Protein in water t=   0.00000 step= 0
325728
    1DG5    H5T    1   8.021  11.459   0.003
    1DG5    O5'    2   7.951  11.393  14.878
    1DG5    C5'    3   7.900  11.385   0.135
    1DG5   H5'1    4   7.793  11.366   0.131
    1DG5   H5'2    5   7.916  11.482   0.181
    1DG5    C4'    6   7.965  11.273   0.220
    1DG5    H4'    7   7.973  11.176   0.172
    1DG5    O4'    8   8.085  11.326   0.262
    1DG5    C1'    9   8.098  11.328   0.403
    1DG5    H1'   10   8.126  11.229   0.439
    1DG5     N9   11   8.204  11.429   0.452
    1DG5     C8   12   8.190  11.563   0.495
    1DG5     H8   13   8.108  11.632   0.483
    1DG5     N7   14   8.301  11.612   0.554
    1DG5     C5   15   8.390  11.502   0.529
    1DG5     C6   16   8.528  11.486   0.567
    1DG5     O6   17   8.598  11.561   0.626
    1DG5     N1   18   8.588  11.379   0.502
    1DG5     H1   19   8.687  11.367   0.519
    1DG5     C2   20   8.515  11.271   0.451
    1DG5     N2   21   8.588  11.178   0.398
    1DG5    H21   22   8.688  11.182   0.415
    1DG5    H22   23   8.542  11.120   0.330
    1DG5     N3   24   8.383  11.283   0.418
    1DG5     C4   25   8.331  11.394   0.466
    1DG5    C3'   26   7.886  11.255   0.354
    1DG5    H3'   27   7.779  11.274   0.343
    1DG5    C2'   28   7.955  11.348   0.444
    1DG5   H2'1   29   7.933  11.453   0.426
    1DG5   H2'2   30   7.930  11.320   0.547
    1DG5    O3'   31   7.912  11.120   0.392
    2DC       P   32   7.810  11.006   0.351
    2DC     O1P   33   7.774  11.025   0.207
    2DC     O2P   34   7.705  11.007   0.458
    2DC     O5'   35   7.914  10.889   0.375
    2DC     C5'   36   8.003  10.855   0.263
    2DC    H5'1   37   8.045  10.952   0.238
    2DC    H5'2   38   7.944  10.823   0.177
    2DC     C4'   39   8.112  10.751   0.302
    2DC     H4'   40   8.140  10.706   0.207
    2DC     O4'   41   8.222  10.827   0.351
    2DC     C1'   42   8.235  10.795   0.489
    2DC     H1'   43   8.317  10.726   0.506
    2DC      N1   44   8.258  10.924   0.565
    2DC      C6   45   8.159  11.017   0.596
    2DC      H6   46   8.060  10.994   0.559
    2DC      C5   47   8.188  11.127   0.672
    2DC      H5   48   8.103  11.192   0.691
    2DC      C4   49   8.318  11.149   0.714
    2DC      N4   50   8.346  11.255   0.786
    2DC     H41   51   8.443  11.265   0.811
    2DC     H42   52   8.275  11.316   0.824
    2DC      N3   53   8.415  11.067   0.679
    2DC      C2   54   8.388  10.953   0.605
    2DC      O2   55   8.493  10.887   0.571
    2DC     C3'   56   8.071  10.646   0.405
    2DC     H3'   57   7.965  10.621   0.398
    2DC     C2'   58   8.109  10.720   0.532
    2DC    H2'1   59   8.028  10.779   0.574
    2DC    H2'2   60   8.128  10.640   0.604
    2DC     O3'   61   8.152  10.535   0.377
    3DA       P   62   8.155  10.402   0.472
    3DA     O1P   63   8.198  10.286   0.385
    3DA     O2P   64   8.025  10.388   0.540
    3DA     O5'   65   8.273  10.422   0.580
    3DA     C5'   66   8.399  10.438   0.529
    3DA    H5'1   67   8.388  10.514   0.452
    3DA    H5'2   68   8.426  10.347   0.475
    3DA     C4'   69   8.502  10.481   0.636
    3DA     H4'   70   8.601  10.491   0.591
    3DA     O4'   71   8.460  10.608   0.683
    3DA     C1'   72   8.484  10.621   0.819
    3DA     H1'   73   8.588  10.653   0.825
    3DA      N9   74   8.396  10.728   0.867
    3DA      C8   75   8.258  10.732   0.862
    3DA      H8   76   8.204  10.649   0.820
    3DA      N7   77   8.207  10.834   0.923
    3DA      C5   78   8.318  10.909   0.961
    3DA      C6   79   8.341  11.029   1.026
    3DA      N6   80   8.246  11.113   1.058
    3DA     H61   81   8.276  11.193   1.112
    3DA     H62   82   8.149  11.100   1.035
    3DA      N1   83   8.460  11.072   1.055
    3DA      C2   84   8.567  11.003   1.017
    3DA      H2   85   8.661  11.052   1.039
    3DA      N3   86   8.567  10.882   0.955
    3DA      C4   87   8.434  10.846   0.922
    3DA     C3'   88   8.516  10.395   0.762
    3DA     H3'   89   8.447  10.310   0.753
    3DA     C2'   90   8.459  10.486   0.876
    3DA    H2'1   91   8.353  10.464   0.884
    3DA    H2'2   92   8.514  10.481   0.970
    3DA     O3'   93   8.659  10.368   0.775
    4DT       P   94   8.721  10.274   0.890
    4DT     O1P   95   8.848  10.210   0.844
    4DT     O2P   96   8.623  10.183   0.948
    4DT     O5'   97   8.759  10.382   0.998
    4DT     C5'   98   8.867  10.469   0.977
    4DT    H5'1   99   8.858  10.526   0.884
    4DT    H5'2  100   8.955  10.407   0.959
    4DT     C4'  101   8.897  10.560   1.101
    4DT     H4'  102   8.997  10.600   1.083
    4DT     O4'  103   8.786  10.651   1.098
    4DT     C1'  104   8.745  10.656   1.236
    4DT     H1'  105   8.820  10.706   1.297
    4DT      N1  106   8.608  10.717   1.257
    4DT      C6  107   8.489  10.646   1.233
    4DT      H6  108   8.499  10.546   1.193
    4DT      C5  109   8.366  10.702   1.251
    4DT      C7  110   8.245  10.614   1.213
    4DT     H71  111   8.192  10.602   1.307
    4DT     H72  112   8.188  10.657   1.131
    4DT     H73  113   8.271  10.514   1.179
    4DT      C4  114   8.356  10.833   1.314
    4DT      O4  115   8.257  10.897   1.336
    4DT      N3  116   8.478  10.892   1.341
    4DT      H3  117   8.479  10.985   1.380
    4DT      C2  118   8.602  10.847   1.308
    4DT      O2  119   8.698  10.914   1.341
    4DT     C3'  120   8.896  10.478   1.235
    4DT     H3'  121   8.907  10.369   1.230
    4DT     C2'  122   8.755  10.513   1.281
    4DT    H2'1  123   8.685  10.447   1.231
    4DT    H2'2  124   8.750  10.497   1.388
    4DT     O3'  125   8.981  10.535   1.337
    5DG       P  126   9.138  10.497   1.340
    5DG     O1P  127   9.186  10.522   1.205
    5DG     O2P  128   9.157  10.367   1.411
    5DG     O5'  129   9.196  10.617   1.439
    5DG     C5'  130   9.155  10.629   1.573
    5DG    H5'1  131   9.099  10.536   1.588
    5DG    H5'2  132   9.251  10.628   1.624
    5DG     C4'  133   9.085  10.763   1.607
    5DG     H4'  134   9.124  10.849   1.553
    5DG     O4'  135   8.951  10.744   1.576
    5DG     C1'  136   8.870  10.851   1.633
    5DG     H1'  137   8.842  10.932   1.565
    5DG      N9  138   8.735  10.812   1.671
    5DG      C8  139   8.663  10.711   1.612
    5DG      H8  140   8.711  10.625   1.568
    5DG      N7  141   8.537  10.723   1.624
    5DG      C5  142   8.518  10.844   1.688
    5DG      C6  143   8.400  10.922   1.714
    5DG      O6  144   8.279  10.904   1.676
    5DG      N1  145   8.418  11.028   1.792
    5DG      H1  146   8.335  11.082   1.812
    5DG      C2  147   8.537  11.059   1.852
    5DG      N2  148   8.547  11.162   1.923
    5DG     H21  149   8.474  11.230   1.939
    5DG     H22  150   8.645  11.183   1.938
    5DG      N3  151   8.647  10.996   1.816
    5DG      C4  152   8.637  10.891   1.734
    5DG     C3'  153   9.079  10.806   1.752
    5DG     H3'  154   9.164  10.866   1.783
    5DG     C2'  155   8.951  10.895   1.756
    5DG    H2'1  156   8.890  10.884   1.846
    5DG    H2'2  157   8.972  11.001   1.750
    5DG     O3'  158   9.067  10.702   1.840
    6DT       P  159   9.128  10.714   1.988
    6DT     O1P  160   9.271  10.749   1.979
    6DT     O2P  161   9.097  10.581   2.045
    6DT     O5'  162   9.056  10.833   2.065
    6DT     C5'  163   9.110  10.968   2.073
    6DT    H5'1  164   9.103  11.022   1.978
    6DT    H5'2  165   9.214  10.963   2.104
    6DT     C4'  166   9.045  11.049   2.184
    6DT     H4'  167   9.088  11.149   2.182
    6DT     O4'  168   8.907  11.063   2.148
    6DT     C1'  169   8.824  11.026   2.255
    6DT     H1'  170   8.791  11.108   2.318
    6DT      N1  171   8.705  10.956   2.197
    6DT      C6  172   8.718  10.833   2.127
    6DT      H6  173   8.819  10.797   2.111
    6DT      C5  174   8.609  10.771   2.065
    6DT      C7  175   8.632  10.658   1.971
    6DT     H71  176   8.590  10.572   2.023
    6DT     H72  177   8.580  10.677   1.877
    6DT     H73  178   8.737  10.637   1.951
    6DT      C4  179   8.476  10.828   2.074
    6DT      O4  180   8.372  10.787   2.016
    6DT      N3  181   8.474  10.948   2.146
    6DT      H3  182   8.398  11.014   2.133
    6DT      C2  183   8.580  11.016   2.204
    6DT      O2  184   8.560  11.132   2.239
    6DT     C3'  185   9.060  10.988   2.317
    6DT     H3'  186   9.126  10.901   2.316
    6DT     C2'  187   8.916  10.934   2.337
    6DT    H2'1  188   8.929  10.835   2.294
    6DT    H2'2  189   8.883  10.918   2.440
    6DT     O3'  190   9.090  11.091   2.407
    7DG       P  191   9.086  11.070   2.564
    7DG     O1P  192   9.169  11.168   2.634
    7DG     O2P  193   9.112  10.929   2.601
    7DG     O5'  194   8.933  11.100   2.598
    7DG     C5'  195   8.867  11.224   2.612
    7DG    H5'1  196   8.863  11.267   2.512
    7DG    H5'2  197   8.913  11.293   2.683
    7DG     C4'  198   8.722  11.202   2.658
    7DG     H4'  199   8.677  11.301   2.670
    7DG     O4'  200   8.643  11.125   2.566
    7DG     C1'  201   8.562  11.030   2.640
    7DG     H1'  202   8.472  11.078   2.679
    7DG      N9  203   8.514  10.909   2.563
    7DG      C8  204   8.577  10.791   2.531
    7DG      H8  205   8.674  10.768   2.573
    7DG      N7  206   8.514  10.721   2.446
    7DG      C5  207   8.396  10.797   2.427
    7DG      C6  208   8.279  10.769   2.351
    7DG      O6  209   8.264  10.675   2.277
    7DG      N1  210   8.186  10.868   2.347
    7DG      H1  211   8.109  10.861   2.282
    7DG      C2  212   8.199  10.982   2.425
    7DG      N2  213   8.097  11.063   2.419
    7DG     H21  214   8.021  11.032   2.360
    7DG     H22  215   8.098  11.150   2.471
    7DG      N3  216   8.301  11.010   2.501
    7DG      C4  217   8.394  10.913   2.499
    7DG     C3'  218   8.708  11.130   2.795
    7DG     H3'  219   8.808  11.124   2.838
    7DG     C2'  220   8.653  10.996   2.754
    7DG    H2'1  221   8.735  10.932   2.722
    7DG    H2'2  222   8.600  10.953   2.839
    7DG     O3'  223   8.620  11.202   2.877
    8DC       P  224   8.673  11.338   2.952
    8DC     O1P  225   8.747  11.434   2.866
    8DC     O2P  226   8.729  11.305   3.083
    8DC     O5'  227   8.534  11.408   2.985
    8DC     C5'  228   8.457  11.476   2.879
    8DC    H5'1  229   8.503  11.453   2.783
    8DC    H5'2  230   8.458  11.583   2.899
    8DC     C4'  231   8.314  11.424   2.854
    8DC     H4'  232   8.266  11.489   2.782
    8DC     O4'  233   8.313  11.296   2.809
    8DC     C1'  234   8.195  11.233   2.846
    8DC     H1'  235   8.112  11.274   2.790
    8DC      N1  236   8.205  11.084   2.845
    8DC      C6  237   8.308  11.010   2.904
    8DC      H6  238   8.385  11.060   2.961
    8DC      C5  239   8.323  10.878   2.868
    8DC      H5  240   8.403  10.821   2.913
    8DC      C4  241   8.233  10.820   2.775
    8DC      N4  242   8.251  10.696   2.730
    8DC     H41  243   8.194  10.650   2.661
    8DC     H42  244   8.326  10.638   2.765
    8DC      N3  245   8.126  10.883   2.737
    8DC      C2  246   8.108  11.014   2.771
    8DC      O2  247   8.010  11.073   2.730
    8DC     C3'  248   8.240  11.427   2.995
    8DC     H3'  249   8.313  11.433   3.076
    8DC     C2'  250   8.183  11.286   2.988
    8DC    H2'1  251   8.232  11.223   3.063
    8DC    H2'2  252   8.081  11.280   3.025
    8DC     O3'  253   8.143  11.526   3.009
    9DG       P  254   8.057  11.542   3.142
    9DG     O1P  255   8.015  11.683   3.145
    9DG     O2P  256   8.132  11.488   3.256
    9DG     O5'  257   7.915  11.453   3.115
    9DG     C5'  258   7.865  11.445   2.983
    9DG    H5'1  259   7.944  11.408   2.918
    9DG    H5'2  260   7.848  11.547   2.949
    9DG     C4'  261   7.742  11.357   2.955
    9DG     H4'  262   7.682  11.401   2.874
    9DG     O4'  263   7.792  11.228   2.919
    9DG     C1'  264   7.748  11.128   3.014
    9DG     H1'  265   7.660  11.076   2.978
    9DG      N9  266   7.857  11.028   3.037
    9DG      C8  267   7.972  11.037   3.100
    9DG      H8  268   7.996  11.128   3.152
    9DG      N7  269   8.057  10.938   3.090
    9DG      C5  270   7.982  10.847   3.014
    9DG      C6  271   8.003  10.710   2.982
    9DG      O6  272   8.109  10.649   2.995
    9DG      N1  273   7.884  10.647   2.930
    9DG      H1  274   7.891  10.549   2.908
    9DG      C2  275   7.772  10.710   2.896
    9DG      N2  276   7.695  10.639   2.821
    9DG     H21  277   7.720  10.543   2.802
    9DG     H22  278   7.605  10.681   2.804
    9DG      N3  279   7.751  10.839   2.924
    9DG      C4  280   7.863  10.904   2.978
    9DG     C3'  281   7.646  11.338   3.076
    9DG     H3'  282   7.654  11.422   3.145
    9DG     C2'  283   7.706  11.211   3.135
    9DG    H2'1  284   7.798  11.242   3.186
    9DG    H2'2  285   7.646  11.163   3.212
    9DG     O3'  286   7.520  11.318   3.016
   10DT       P  287   7.388  11.328   3.102
   10DT     O1P  288   7.274  11.368   3.020
   10DT     O2P  289   7.422  11.405   3.219
   10DT     O5'  290   7.368  11.171   3.149
   10DT     C5'  291   7.291  11.079   3.072
   10DT    H5'1  292   7.349  11.070   2.980
   10DT    H5'2  293   7.196  11.131   3.055
   10DT     C4'  294   7.285  10.942   3.131
   10DT     H4'  295   7.209  10.889   3.074
   10DT     O4'  296   7.403  10.863   3.108
   10DT     C1'  297   7.440  10.795   3.229
   10DT     H1'  298   7.381  10.703   3.232
   10DT      N1  299   7.585  10.768   3.242
   10DT      C6  300   7.673  10.850   3.296
   10DT      H6  301   7.641  10.946   3.333
   10DT      C5  302   7.800  10.811   3.329
   10DT      C7  303   7.884  10.907   3.407
   10DT     H71  304   7.855  11.012   3.401
   10DT     H72  305   7.891  10.885   3.514
   10DT     H73  306   7.980  10.892   3.358
   10DT      C4  307   7.847  10.674   3.300
   10DT      O4  308   7.951  10.623   3.333
   10DT      N3  309   7.751  10.597   3.229
   10DT      H3  310   7.781  10.508   3.192
   10DT      C2  311   7.623  10.636   3.215
   10DT      O2  312   7.543  10.551   3.181
   10DT     C3'  313   7.249  10.930   3.286
   10DT     H3'  314   7.217  11.027   3.326
   10DT     C2'  315   7.386  10.885   3.338
   10DT    H2'1  316   7.438  10.981   3.340
   10DT    H2'2  317   7.389  10.842   3.438
   10DT     O3'  318   7.162  10.826   3.319
   11DA       P  319   7.015  10.852   3.362
   11DA     O1P  320   6.936  10.925   3.262
   11DA     O2P  321   7.015  10.899   3.503
   11DA     O5'  322   6.958  10.696   3.365
   11DA     C5'  323   6.944  10.623   3.245
   11DA    H5'1  324   7.003  10.668   3.165
   11DA    H5'2  325   6.840  10.636   3.214
   11DA     C4'  326   6.982  10.476   3.249
   11DA     H4'  327   6.938  10.435   3.158
   11DA     O4'  328   7.120  10.454   3.263
   11DA     C1'  329   7.152  10.406   3.393
   11DA     H1'  330   7.162  10.302   3.364
   11DA      N9  331   7.278  10.462   3.442
   11DA      C8  332   7.295  10.583   3.512
   11DA      H8  333   7.212  10.651   3.525
   11DA      N7  334   7.412  10.598   3.564
   11DA      C5  335   7.480  10.485   3.510
   11DA      C6  336   7.618  10.447   3.522
   11DA      N6  337   7.702  10.505   3.608
   11DA     H61  338   7.795  10.467   3.603
   11DA     H62  339   7.668  10.584   3.662
   11DA      N1  340   7.662  10.334   3.462
   11DA      C2  341   7.577  10.268   3.390
   11DA      H2  342   7.618  10.174   3.355
   11DA      N3  343   7.447  10.291   3.371
   11DA      C4  344   7.403  10.405   3.433
   11DA     C3'  345   6.915  10.405   3.367
   11DA     H3'  346   6.820  10.451   3.391
   11DA     C2'  347   7.029  10.423   3.471
   11DA    H2'1  348   7.030  10.525   3.510
   11DA    H2'2  349   7.032  10.348   3.551
   11DA     O3'  350   6.891  10.273   3.320
   12DT       P  351   6.851  10.148   3.411
   12DT     O1P  352   6.787  10.050   3.322
   12DT     O2P  353   6.784  10.192   3.539
   12DT     O5'  354   6.982  10.081   3.468
   12DT     C5'  355   7.074  10.015   3.381
   12DT    H5'1  356   7.116  10.082   3.306
   12DT    H5'2  357   7.018   9.934   3.334
   12DT     C4'  358   7.188   9.953   3.464
   12DT     H4'  359   7.243   9.881   3.404
   12DT     O4'  360   7.282  10.050   3.519
   12DT     C1'  361   7.360   9.981   3.621
   12DT     H1'  362   7.430   9.917   3.567
   12DT      N1  363   7.421  10.084   3.708
   12DT      C6  364   7.344  10.185   3.766
   12DT      H6  365   7.236  10.180   3.759
   12DT      C5  366   7.399  10.290   3.834
   12DT      C7  367   7.312  10.403   3.892
   12DT     H71  368   7.211  10.381   3.857
   12DT     H72  369   7.321  10.408   4.001
   12DT     H73  370   7.339  10.494   3.840
   12DT      C4  371   7.548  10.306   3.833
   12DT      O4  372   7.619  10.388   3.883
   12DT      N3  373   7.618  10.201   3.780
   12DT      H3  374   7.719  10.202   3.788
   12DT      C2  375   7.563  10.094   3.717
   12DT      O2  376   7.634  10.007   3.656
   12DT     C3'  377   7.150   9.868   3.584
   12DT     H3'  378   7.057   9.910   3.623
   12DT     C2'  379   7.257   9.895   3.694
   12DT    H2'1  380   7.221   9.950   3.780
   12DT    H2'2  381   7.310   9.804   3.725
   12DT     O3'  382   7.128   9.731   3.550
   13DG       P  383   7.091   9.624   3.660
   13DG     O1P  384   7.031   9.512   3.577
   13DG     O2P  385   7.010   9.695   3.763
   13DG     O5'  386   7.232   9.571   3.721
   13DG     C5'  387   7.287   9.461   3.657
   13DG    H5'1  388   7.313   9.492   3.556
   13DG    H5'2  389   7.217   9.377   3.654
   13DG     C4'  390   7.412   9.410   3.730
   13DG     H4'  391   7.476   9.360   3.658
   13DG     O4'  392   7.484   9.524   3.773
   13DG     C1'  393   7.481   9.532   3.907
   13DG     H1'  394   7.585   9.511   3.928
   13DG      N9  395   7.450   9.671   3.947
   13DG      C8  396   7.330   9.731   3.959
   13DG      H8  397   7.239   9.676   3.938
   13DG      N7  398   7.331   9.862   3.986
   13DG      C5  399   7.468   9.881   4.002
   13DG      C6  400   7.537  10.005   4.036
   13DG      O6  401   7.484  10.116   4.053
   13DG      N1  402   7.666   9.985   4.067
   13DG      H1  403   7.716  10.068   4.096
   13DG      C2  404   7.732   9.870   4.030
   13DG      N2  405   7.857   9.867   4.048
   13DG     H21  406   7.910   9.943   4.090
   13DG     H22  407   7.899   9.776   4.061
   13DG      N3  408   7.676   9.757   3.986
   13DG      C4  409   7.540   9.769   3.972
   13DG     C3'  410   7.387   9.327   3.847
   13DG     H3'  411   7.296   9.268   3.837
   13DG     C2'  412   7.389   9.425   3.964
   13DG    H2'1  413   7.289   9.466   3.982
   13DG    H2'2  414   7.424   9.376   4.055
   13DG     O3'  415   7.486   9.218   3.849
   14DC       P  416   7.482   9.099   3.952
   14DC     O1P  417   7.553   8.990   3.881
   14DC     O2P  418   7.342   9.084   3.994
   14DC     O5'  419   7.569   9.140   4.078
   14DC     C5'  420   7.711   9.159   4.066
   14DC    H5'1  421   7.741   9.202   3.971
   14DC    H5'2  422   7.762   9.063   4.072
   14DC     C4'  423   7.762   9.249   4.183
   14DC     H4'  424   7.869   9.268   4.174
   14DC     O4'  425   7.715   9.384   4.172
   14DC     C1'  426   7.678   9.427   4.304
   14DC     H1'  427   7.764   9.462   4.362
   14DC      N1  428   7.585   9.543   4.308
   14DC      C6  429   7.451   9.526   4.287
   14DC      H6  430   7.411   9.428   4.269
   14DC      C5  431   7.371   9.635   4.283
   14DC      H5  432   7.266   9.616   4.266
   14DC      C4  433   7.433   9.763   4.308
   14DC      N4  434   7.355   9.867   4.311
   14DC     H41  435   7.399   9.953   4.341
   14DC     H42  436   7.256   9.858   4.326
   14DC      N3  437   7.562   9.784   4.322
   14DC      C2  438   7.636   9.674   4.323
   14DC      O2  439   7.755   9.687   4.330
   14DC     C3'  440   7.734   9.191   4.323
   14DC     H3'  441   7.691   9.091   4.332
   14DC     C2'  442   7.632   9.298   4.367
   14DC    H2'1  443   7.533   9.264   4.337
   14DC    H2'2  444   7.625   9.306   4.475
   14DC     O3'  445   7.848   9.210   4.404
   15DG       P  446   7.916   9.089   4.475
   15DG     O1P  447   7.995   9.019   4.370
   15DG     O2P  448   7.814   9.020   4.563
   15DG     O5'  449   8.005   9.166   4.577
   15DG     C5'  450   8.136   9.210   4.542
   15DG    H5'1  451   8.131   9.231   4.435
   15DG    H5'2  452   8.212   9.135   4.563
   15DG     C4'  453   8.174   9.339   4.609
   15DG     H4'  454   8.275   9.361   4.574
   15DG     O4'  455   8.086   9.448   4.579
   15DG     C1'  456   8.026   9.512   4.694
   15DG     H1'  457   8.079   9.602   4.726
   15DG      N9  458   7.885   9.542   4.662
   15DG      C8  459   7.790   9.450   4.640
   15DG      H8  460   7.819   9.346   4.638
   15DG      N7  461   7.672   9.495   4.641
   15DG      C5  462   7.684   9.633   4.660
   15DG      C6  463   7.589   9.739   4.670
   15DG      O6  464   7.468   9.744   4.647
   15DG      N1  465   7.646   9.860   4.709
   15DG      H1  466   7.586   9.940   4.704
   15DG      C2  467   7.777   9.877   4.732
   15DG      N2  468   7.816   9.975   4.804
   15DG     H21  469   7.753  10.048   4.834
   15DG     H22  470   7.911   9.986   4.835
   15DG      N3  471   7.867   9.785   4.720
   15DG      C4  472   7.816   9.662   4.683
   15DG     C3'  473   8.189   9.339   4.762
   15DG     H3'  474   8.200   9.237   4.798
   15DG     C2'  475   8.053   9.404   4.801
   15DG    H2'1  476   7.977   9.327   4.810
   15DG    H2'2  477   8.054   9.446   4.902
   15DG     O3'  478   8.295   9.418   4.816
   16DT       P  479   8.341   9.416   4.966
   16DT     O1P  480   8.485   9.413   4.961
   16DT     O2P  481   8.272   9.312   5.041
   16DT     O5'  482   8.295   9.547   5.026
   16DT     C5'  483   8.352   9.662   4.981
   16DT    H5'1  484   8.334   9.663   4.873
   16DT    H5'2  485   8.457   9.661   5.008
   16DT     C4'  486   8.279   9.775   5.047
   16DT     H4'  487   8.319   9.869   5.011
   16DT     O4'  488   8.142   9.766   5.009
   16DT     C1'  489   8.060   9.779   5.124
   16DT     H1'  490   8.056   9.885   5.149
   16DT      N1  491   7.927   9.726   5.104
   16DT      C6  492   7.898   9.591   5.081
   16DT      H6  493   7.983   9.526   5.090
   16DT      C5  494   7.773   9.546   5.055
   16DT      C7  495   7.759   9.394   5.025
   16DT     H71  496   7.750   9.377   4.918
   16DT     H72  497   7.848   9.345   5.064
   16DT     H73  498   7.667   9.364   5.076
   16DT      C4  499   7.661   9.637   5.030
   16DT      O4  500   7.551   9.621   4.980
   16DT      N3  501   7.694   9.768   5.061
   16DT      H3  502   7.625   9.839   5.044
   16DT      C2  503   7.820   9.820   5.089
   16DT      O2  504   7.834   9.940   5.103
   16DT     C3'  505   8.281   9.772   5.206
   16DT     H3'  506   8.362   9.711   5.243
   16DT     C2'  507   8.141   9.716   5.236
   16DT    H2'1  508   8.139   9.608   5.222
   16DT    H2'2  509   8.102   9.756   5.329
   16DT     O3'  510   8.305   9.905   5.248
   17DT       P  511   8.301   9.945   5.406
   17DT     O1P  512   8.404  10.050   5.413
   17DT     O2P  513   8.336   9.825   5.487
   17DT     O5'  514   8.160  10.011   5.453
   17DT     C5'  515   8.133  10.152   5.414
   17DT    H5'1  516   8.148  10.145   5.306
   17DT    H5'2  517   8.200  10.220   5.467
   17DT     C4'  518   7.986  10.191   5.438
   17DT     H4'  519   7.962  10.287   5.393
   17DT     O4'  520   7.910  10.085   5.378
   17DT     C1'  521   7.786  10.075   5.445
   17DT     H1'  522   7.719  10.149   5.403
   17DT      N1  523   7.724   9.938   5.438
   17DT      C6  524   7.806   9.831   5.471
   17DT      H6  525   7.907   9.850   5.504
   17DT      C5  526   7.770   9.705   5.446
   17DT      C7  527   7.873   9.599   5.469
   17DT     H71  528   7.902   9.551   5.375
   17DT     H72  529   7.959   9.619   5.533
   17DT     H73  530   7.814   9.522   5.519
   17DT      C4  531   7.639   9.683   5.385
   17DT      O4  532   7.598   9.569   5.348
   17DT      N3  533   7.559   9.795   5.356
   17DT      H3  534   7.466   9.789   5.317
   17DT      C2  535   7.592   9.924   5.390
   17DT      O2  536   7.513  10.017   5.376
   17DT     C3'  537   7.951  10.193   5.587
   17DT     H3'  538   8.035  10.150   5.642
   17DT     C2'  539   7.824  10.107   5.598
   17DT    H2'1  540   7.827  10.016   5.657
   17DT    H2'2  541   7.740  10.158   5.644
   17DT     O3'  542   7.923  10.325   5.633
   18DA       P  543   7.894  10.372   5.789
   18DA     O1P  544   7.910  10.519   5.789
   18DA     O2P  545   7.988  10.291   5.873
   18DA     O5'  546   7.744  10.325   5.820
   18DA     C5'  547   7.634  10.390   5.756
   18DA    H5'1  548   7.647  10.378   5.649
   18DA    H5'2  549   7.629  10.495   5.787
   18DA     C4'  550   7.494  10.341   5.802
   18DA     H4'  551   7.413  10.408   5.774
   18DA     O4'  552   7.470  10.212   5.745
   18DA     C1'  553   7.434  10.123   5.847
   18DA     H1'  554   7.325  10.124   5.844
   18DA      N9  555   7.485   9.993   5.807
   18DA      C8  556   7.606   9.937   5.832
   18DA      H8  557   7.686   9.980   5.890
   18DA      N7  558   7.618   9.810   5.801
   18DA      C5  559   7.491   9.784   5.742
   18DA      C6  560   7.432   9.666   5.687
   18DA      N6  561   7.476   9.541   5.674
   18DA     H61  562   7.418   9.482   5.616
   18DA     H62  563   7.564   9.506   5.707
   18DA      N1  564   7.305   9.671   5.642
   18DA      C2  565   7.238   9.785   5.647
   18DA      H2  566   7.137   9.785   5.607
   18DA      N3  567   7.277   9.902   5.695
   18DA      C4  568   7.409   9.895   5.744
   18DA     C3'  569   7.487  10.330   5.955
   18DA     H3'  570   7.578  10.364   6.004
   18DA     C2'  571   7.491  10.181   5.979
   18DA    H2'1  572   7.597  10.153   5.980
   18DA    H2'2  573   7.439  10.144   6.067
   18DA     O3'  574   7.364  10.395   6.004
   19DT       P  575   7.324  10.395   6.156
   19DT     O1P  576   7.254  10.523   6.179
   19DT     O2P  577   7.442  10.360   6.240
   19DT     O5'  578   7.221  10.275   6.157
   19DT     C5'  579   7.106  10.281   6.076
   19DT    H5'1  580   7.126  10.308   5.972
   19DT    H5'2  581   7.038  10.351   6.125
   19DT     C4'  582   7.039  10.148   6.081
   19DT     H4'  583   6.950  10.168   6.021
   19DT     O4'  584   7.113  10.044   6.023
   19DT     C1'  585   7.112   9.930   6.110
   19DT     H1'  586   7.013   9.886   6.111
   19DT      N1  587   7.209   9.823   6.081
   19DT      C6  588   7.337   9.823   6.133
   19DT      H6  589   7.369   9.913   6.183
   19DT      C5  590   7.421   9.721   6.112
   19DT      C7  591   7.560   9.731   6.166
   19DT     H71  592   7.577   9.826   6.217
   19DT     H72  593   7.575   9.648   6.235
   19DT     H73  594   7.634   9.720   6.086
   19DT      C4  595   7.378   9.610   6.032
   19DT      O4  596   7.439   9.504   6.011
   19DT      N3  597   7.250   9.618   5.976
   19DT      H3  598   7.210   9.531   5.945
   19DT      C2  599   7.157   9.717   5.996
   19DT      O2  600   7.042   9.712   5.963
   19DT     C3'  601   7.006  10.105   6.223
   19DT     H3'  602   7.016  10.189   6.292
   19DT     C2'  603   7.110   9.994   6.249
   19DT    H2'1  604   7.208  10.032   6.277
   19DT    H2'2  605   7.064   9.928   6.323
   19DT     O3'  606   6.884  10.045   6.227
   20DG       P  607   6.750  10.113   6.282
   20DG     O1P  608   6.696  10.213   6.186
   20DG     O2P  609   6.760  10.147   6.425
   20DG     O5'  610   6.649   9.978   6.285
   20DG     C5'  611   6.573   9.946   6.170
   20DG    H5'1  612   6.495  10.020   6.152
   20DG    H5'2  613   6.625   9.956   6.075
   20DG     C4'  614   6.494   9.809   6.164
   20DG     H4'  615   6.417   9.823   6.088
   20DG     O4'  616   6.576   9.709   6.109
   20DG     C1'  617   6.616   9.624   6.221
   20DG     H1'  618   6.587   9.527   6.181
   20DG      N9  619   6.758   9.631   6.241
   20DG      C8  620   6.839   9.731   6.284
   20DG      H8  621   6.805   9.829   6.315
   20DG      N7  622   6.962   9.688   6.304
   20DG      C5  623   6.959   9.554   6.260
   20DG      C6  624   7.071   9.465   6.240
   20DG      O6  625   7.189   9.490   6.254
   20DG      N1  626   7.029   9.334   6.201
   20DG      H1  627   7.084   9.250   6.196
   20DG      C2  628   6.901   9.315   6.161
   20DG      N2  629   6.872   9.189   6.125
   20DG     H21  630   6.944   9.127   6.092
   20DG     H22  631   6.779   9.177   6.087
   20DG      N3  632   6.796   9.405   6.160
   20DG      C4  633   6.837   9.515   6.223
   20DG     C3'  634   6.435   9.764   6.295
   20DG     H3'  635   6.422   9.852   6.357
   20DG     C2'  636   6.538   9.665   6.349
   20DG    H2'1  637   6.595   9.719   6.425
   20DG    H2'2  638   6.496   9.573   6.391
   20DG     O3'  639   6.303   9.716   6.266
   21DC       P  640   6.206   9.653   6.377
   21DC     O1P  641   6.067   9.664   6.321
   21DC     O2P  642   6.234   9.715   6.507
   21DC     O5'  643   6.247   9.497   6.374
   21DC     C5'  644   6.268   9.434   6.245
   21DC    H5'1  645   6.345   9.484   6.187
   21DC    H5'2  646   6.169   9.448   6.202
   21DC     C4'  647   6.290   9.282   6.248
   21DC     H4'  648   6.266   9.229   6.156
   21DC     O4'  649   6.429   9.253   6.269
   21DC     C1'  650   6.454   9.192   6.389
   21DC     H1'  651   6.455   9.084   6.380
   21DC      N1  652   6.571   9.247   6.458
   21DC      C6  653   6.568   9.368   6.526
   21DC      H6  654   6.476   9.424   6.515
   21DC      C5  655   6.688   9.415   6.577
   21DC      H5  656   6.687   9.508   6.632
   21DC      C4  657   6.808   9.340   6.555
   21DC      N4  658   6.923   9.385   6.601
   21DC     H41  659   7.009   9.335   6.583
   21DC     H42  660   6.921   9.469   6.657
   21DC      N3  661   6.807   9.226   6.490
   21DC      C2  662   6.690   9.175   6.445
   21DC      O2  663   6.691   9.061   6.395
   21DC     C3'  664   6.212   9.217   6.360
   21DC     H3'  665   6.128   9.282   6.382
   21DC     C2'  666   6.324   9.213   6.471
   21DC    H2'1  667   6.321   9.309   6.523
   21DC    H2'2  668   6.305   9.131   6.540
   21DC     O3'  669   6.155   9.097   6.311
   22DG       P  670   6.113   8.975   6.399
   22DG     O1P  671   6.020   8.894   6.315
   22DG     O2P  672   6.060   9.024   6.525
   22DG     O5'  673   6.249   8.885   6.424
   22DG     C5'  674   6.331   8.839   6.316
   22DG    H5'1  675   6.398   8.916   6.278
   22DG    H5'2  676   6.272   8.807   6.230
   22DG     C4'  677   6.432   8.725   6.352
   22DG     H4'  678   6.478   8.677   6.266
   22DG     O4'  679   6.545   8.785   6.421
   22DG     C1'  680   6.557   8.743   6.557
   22DG     H1'  681   6.636   8.668   6.562
   22DG      N9  682   6.591   8.867   6.621
   22DG      C8  683   6.510   8.971   6.667
   22DG      H8  684   6.405   8.968   6.643
   22DG      N7  685   6.576   9.068   6.729
   22DG      C5  686   6.707   9.021   6.735
   22DG      C6  687   6.828   9.078   6.785
   22DG      O6  688   6.842   9.180   6.851
   22DG      N1  689   6.942   8.997   6.783
   22DG      H1  690   7.022   9.033   6.833
   22DG      C2  691   6.943   8.880   6.713
   22DG      N2  692   7.052   8.810   6.703
   22DG     H21  693   7.131   8.854   6.749
   22DG     H22  694   7.054   8.721   6.655
   22DG      N3  695   6.832   8.830   6.652
   22DG      C4  696   6.717   8.896   6.671
   22DG     C3'  697   6.374   8.632   6.457
   22DG     H3'  698   6.265   8.629   6.445
   22DG     C2'  699   6.419   8.683   6.594
   22DG    H2'1  700   6.341   8.756   6.614
   22DG    H2'2  701   6.426   8.611   6.675
   22DG     O3'  702   6.430   8.499   6.437
   23DC       P  703   6.402   8.372   6.523
   23DC     O1P  704   6.398   8.253   6.436
   23DC     O2P  705   6.277   8.404   6.601
   23DC     O5'  706   6.525   8.346   6.623
   23DC     C5'  707   6.656   8.324   6.580
   23DC    H5'1  708   6.678   8.408   6.513
   23DC    H5'2  709   6.660   8.235   6.518
   23DC     C4'  710   6.768   8.310   6.679
   23DC     H4'  711   6.859   8.266   6.638
   23DC     O4'  712   6.789   8.444   6.726
   23DC     C1'  713   6.784   8.446   6.864
   23DC     H1'  714   6.879   8.410   6.904
   23DC      N1  715   6.760   8.584   6.917
   23DC      C6  716   6.638   8.646   6.923
   23DC      H6  717   6.550   8.586   6.905
   23DC      C5  718   6.615   8.763   6.971
   23DC      H5  719   6.514   8.801   6.973
   23DC      C4  720   6.725   8.820   7.040
   23DC      N4  721   6.719   8.930   7.102
   23DC     H41  722   6.803   8.970   7.143
   23DC     H42  723   6.638   8.989   7.109
   23DC      N3  724   6.847   8.768   7.047
   23DC      C2  725   6.866   8.649   6.986
   23DC      O2  726   6.981   8.600   6.984
   23DC     C3'  727   6.728   8.223   6.802
   23DC     H3'  728   6.642   8.159   6.779
   23DC     C2'  729   6.690   8.332   6.907
   23DC    H2'1  730   6.585   8.357   6.892
   23DC    H2'2  731   6.704   8.304   7.011
   23DC     O3'  732   6.838   8.148   6.844
   24DG       P  733   6.840   8.068   6.981
   24DG     O1P  734   6.909   7.943   6.948
   24DG     O2P  735   6.706   8.058   7.047
   24DG     O5'  736   6.934   8.151   7.086
   24DG     C5'  737   7.057   8.188   7.037
   24DG    H5'1  738   7.054   8.263   6.958
   24DG    H5'2  739   7.108   8.100   6.998
   24DG     C4'  740   7.154   8.242   7.145
   24DG     H4'  741   7.251   8.243   7.096
   24DG     O4'  742   7.110   8.373   7.162
   24DG     C1'  743   7.074   8.390   7.298
   24DG     H1'  744   7.156   8.433   7.356
   24DG      N9  745   6.954   8.481   7.312
   24DG      C8  746   6.822   8.452   7.265
   24DG      H8  747   6.801   8.361   7.211
   24DG      N7  748   6.734   8.541   7.301
   24DG      C5  749   6.811   8.633   7.373
   24DG      C6  750   6.771   8.760   7.424
   24DG      O6  751   6.650   8.808   7.420
   24DG      N1  752   6.871   8.834   7.481
   24DG      H1  753   6.844   8.929   7.502
   24DG      C2  754   7.001   8.792   7.482
   24DG      N2  755   7.090   8.875   7.528
   24DG     H21  756   7.068   8.965   7.568
   24DG     H22  757   7.187   8.848   7.539
   24DG      N3  758   7.052   8.681   7.428
   24DG      C4  759   6.945   8.602   7.379
   24DG     C3'  760   7.152   8.161   7.275
   24DG     H3'  761   7.117   8.058   7.267
   24DG     C2'  762   7.057   8.250   7.360
   24DG    H2'1  763   6.952   8.220   7.351
   24DG    H2'2  764   7.079   8.250   7.467
   24DG     O3'  765   7.278   8.152   7.337
   25DT       P  766   7.316   8.073   7.475
   25DT     O1P  767   7.449   8.004   7.462
   25DT     O2P  768   7.200   7.994   7.521
   25DT     O5'  769   7.329   8.201   7.572
   25DT     C5'  770   7.417   8.308   7.539
   25DT    H5'1  771   7.402   8.346   7.439
   25DT    H5'2  772   7.518   8.268   7.551
   25DT     C4'  773   7.410   8.414   7.647
   25DT     H4'  774   7.490   8.483   7.618
   25DT     O4'  775   7.280   8.472   7.642
   25DT     C1'  776   7.237   8.509   7.770
   25DT     H1'  777   7.284   8.601   7.804
   25DT      N1  778   7.093   8.533   7.763
   25DT      C6  779   7.008   8.435   7.716
   25DT      H6  780   7.052   8.338   7.694
   25DT      C5  781   6.878   8.462   7.694
   25DT      C7  782   6.793   8.349   7.638
   25DT     H71  783   6.841   8.251   7.633
   25DT     H72  784   6.706   8.337   7.703
   25DT     H73  785   6.758   8.372   7.538
   25DT      C4  786   6.826   8.595   7.714
   25DT      O4  787   6.715   8.636   7.678
   25DT      N3  788   6.918   8.679   7.765
   25DT      H3  789   6.890   8.771   7.793
   25DT      C2  790   7.050   8.663   7.788
   25DT      O2  791   7.117   8.749   7.840
   25DT     C3'  792   7.425   8.366   7.794
   25DT     H3'  793   7.437   8.260   7.818
   25DT     C2'  794   7.285   8.402   7.863
   25DT    H2'1  795   7.215   8.320   7.850
   25DT    H2'2  796   7.299   8.441   7.964
   25DT     O3'  797   7.537   8.439   7.863
   26DG       P  798   7.588   8.411   8.004
   26DG     O1P  799   7.731   8.441   8.000
   26DG     O2P  800   7.543   8.275   8.048
   26DG     O5'  801   7.511   8.515   8.095
   26DG     C5'  802   7.542   8.652   8.093
   26DG    H5'1  803   7.527   8.689   7.992
   26DG    H5'2  804   7.637   8.680   8.138
   26DG     C4'  805   7.454   8.740   8.185
   26DG     H4'  806   7.494   8.841   8.194
   26DG     O4'  807   7.319   8.750   8.134
   26DG     C1'  808   7.239   8.704   8.236
   26DG     H1'  809   7.212   8.798   8.283
   26DG      N9  810   7.114   8.651   8.176
   26DG      C8  811   7.082   8.529   8.136
   26DG      H8  812   7.162   8.456   8.138
   26DG      N7  813   6.957   8.515   8.096
   26DG      C5  814   6.903   8.642   8.114
   26DG      C6  815   6.772   8.693   8.091
   26DG      O6  816   6.666   8.634   8.062
   26DG      N1  817   6.766   8.831   8.107
   26DG      H1  818   6.674   8.871   8.092
   26DG      C2  819   6.861   8.902   8.176
   26DG      N2  820   6.838   9.025   8.198
   26DG     H21  821   6.760   9.068   8.149
   26DG     H22  822   6.914   9.082   8.230
   26DG      N3  823   6.983   8.855   8.192
   26DG      C4  824   7.001   8.724   8.160
   26DG     C3'  825   7.451   8.681   8.321
   26DG     H3'  826   7.535   8.612   8.329
   26DG     C2'  827   7.312   8.613   8.330
   26DG    H2'1  828   7.338   8.519   8.281
   26DG    H2'2  829   7.284   8.612   8.436
   26DG     O3'  830   7.456   8.781   8.425
   27DC       P  831   7.528   8.753   8.561
   27DC     O1P  832   7.673   8.773   8.537
   27DC     O2P  833   7.487   8.624   8.620
   27DC     O5'  834   7.489   8.864   8.662
   27DC     C5'  835   7.492   9.004   8.627
   27DC    H5'1  836   7.503   9.016   8.519
   27DC    H5'2  837   7.579   9.043   8.680
   27DC     C4'  838   7.364   9.075   8.672
   27DC     H4'  839   7.373   9.179   8.643
   27DC     O4'  840   7.253   9.031   8.605
   27DC     C1'  841   7.162   8.998   8.712
   27DC     H1'  842   7.091   9.080   8.726
   27DC      N1  843   7.083   8.889   8.656
   27DC      C6  844   7.129   8.760   8.652
   27DC      H6  845   7.227   8.734   8.689
   27DC      C5  846   7.060   8.656   8.603
   27DC      H5  847   7.103   8.557   8.605
   27DC      C4  848   6.928   8.684   8.552
   27DC      N4  849   6.865   8.585   8.500
   27DC     H41  850   6.775   8.603   8.457
   27DC     H42  851   6.884   8.493   8.535
   27DC      N3  852   6.881   8.813   8.546
   27DC      C2  853   6.959   8.913   8.600
   27DC      O2  854   6.909   9.027   8.599
   27DC     C3'  855   7.337   9.082   8.829
   27DC     H3'  856   7.431   9.058   8.879
   27DC     C2'  857   7.245   8.970   8.833
   27DC    H2'1  858   7.301   8.878   8.817
   27DC    H2'2  859   7.189   8.970   8.927
   27DC     O3'  860   7.299   9.211   8.868
   28DG       P  861   7.246   9.246   9.008
   28DG     O1P  862   7.321   9.371   9.033
   28DG     O2P  863   7.271   9.134   9.099
   28DG     O5'  864   7.094   9.271   8.987
   28DG     C5'  865   7.040   9.376   8.904
   28DG    H5'1  866   7.066   9.358   8.800
   28DG    H5'2  867   7.088   9.469   8.934
   28DG     C4'  868   6.883   9.389   8.920
   28DG     H4'  869   6.857   9.474   8.857
   28DG     O4'  870   6.814   9.284   8.862
   28DG     C1'  871   6.743   9.213   8.961
   28DG     H1'  872   6.636   9.228   8.944
   28DG      N9  873   6.772   9.068   8.944
   28DG      C8  874   6.888   9.000   8.975
   28DG      H8  875   6.975   9.045   9.020
   28DG      N7  876   6.887   8.872   8.933
   28DG      C5  877   6.759   8.860   8.879
   28DG      C6  878   6.692   8.746   8.828
   28DG      O6  879   6.720   8.626   8.825
   28DG      N1  880   6.566   8.766   8.777
   28DG      H1  881   6.527   8.690   8.723
   28DG      C2  882   6.513   8.891   8.767
   28DG      N2  883   6.394   8.900   8.725
   28DG     H21  884   6.330   8.823   8.708
   28DG     H22  885   6.361   8.995   8.716
   28DG      N3  886   6.568   9.004   8.816
   28DG      C4  887   6.688   8.980   8.882
   28DG     C3'  888   6.835   9.398   9.068
   28DG     H3'  889   6.920   9.429   9.129
   28DG     C2'  890   6.800   9.257   9.093
   28DG    H2'1  891   6.887   9.203   9.129
   28DG    H2'2  892   6.730   9.251   9.177
   28DG     O3'  893   6.723   9.487   9.084
   29DT       P  894   6.619   9.490   9.210
   29DT     O1P  895   6.577   9.629   9.219
   29DT     O2P  896   6.687   9.439   9.332
   29DT     O5'  897   6.497   9.392   9.170
   29DT     C5'  898   6.411   9.438   9.073
   29DT    H5'1  899   6.462   9.430   8.977
   29DT    H5'2  900   6.369   9.537   9.091
   29DT     C4'  901   6.288   9.348   9.043
   29DT     H4'  902   6.228   9.402   8.969
   29DT     O4'  903   6.328   9.224   8.999
   29DT     C1'  904   6.269   9.126   9.080
   29DT     H1'  905   6.181   9.088   9.029
   29DT      N1  906   6.364   9.014   9.097
   29DT      C6  907   6.481   9.035   9.171
   29DT      H6  908   6.505   9.136   9.199
   29DT      C5  909   6.569   8.936   9.201
   29DT      C7  910   6.703   8.964   9.272
   29DT     H71  911   6.702   9.061   9.322
   29DT     H72  912   6.722   8.881   9.339
   29DT     H73  913   6.771   8.964   9.187
   29DT      C4  914   6.534   8.795   9.166
   29DT      O4  915   6.604   8.692   9.172
   29DT      N3  916   6.409   8.781   9.106
   29DT      H3  917   6.372   8.689   9.091
   29DT      C2  918   6.321   8.881   9.066
   29DT      O2  919   6.213   8.850   9.011
   29DT     C3'  920   6.193   9.331   9.158
   29DT     H3'  921   6.203   9.409   9.234
   29DT     C2'  922   6.225   9.191   9.211
   29DT    H2'1  923   6.314   9.207   9.272
   29DT    H2'2  924   6.138   9.139   9.251
   29DT     O3'  925   6.064   9.335   9.105
   30DG       P  926   5.927   9.342   9.196
   30DG     O1P  927   5.818   9.395   9.113
   30DG     O2P  928   5.961   9.406   9.325
   30DG     O5'  929   5.895   9.189   9.231
   30DG     C5'  930   5.816   9.102   9.152
   30DG    H5'1  931   5.866   9.083   9.057
   30DG    H5'2  932   5.719   9.149   9.135
   30DG     C4'  933   5.805   8.961   9.217
   30DG     H4'  934   5.731   8.895   9.172
   30DG     O4'  935   5.942   8.907   9.224
   30DG     C1'  936   5.963   8.841   9.350
   30DG     H1'  937   5.921   8.741   9.343
   30DG      N9  938   6.109   8.834   9.367
   30DG      C8  939   6.194   8.925   9.418
   30DG      H8  940   6.161   9.027   9.431
   30DG      N7  941   6.319   8.886   9.455
   30DG      C5  942   6.316   8.755   9.402
   30DG      C6  943   6.412   8.648   9.409
   30DG      O6  944   6.519   8.640   9.464
   30DG      N1  945   6.369   8.531   9.345
   30DG      H1  946   6.437   8.457   9.336
   30DG      C2  947   6.247   8.516   9.284
   30DG      N2  948   6.209   8.396   9.254
   30DG     H21  949   6.270   8.317   9.271
   30DG     H22  950   6.109   8.382   9.245
   30DG      N3  951   6.157   8.610   9.287
   30DG      C4  952   6.195   8.724   9.347
   30DG     C3'  953   5.770   8.956   9.373
   30DG     H3'  954   5.735   9.056   9.400
   30DG     C2'  955   5.899   8.936   9.449
   30DG    H2'1  956   5.953   9.028   9.471
   30DG    H2'2  957   5.883   8.875   9.538
   30DG     O3'  958   5.676   8.850   9.399
   31DC       P  959   5.517   8.860   9.372
   31DC     O1P  960   5.492   8.928   9.244
   31DC     O2P  961   5.448   8.912   9.498
   31DC     O5'  962   5.481   8.707   9.351
   31DC     C5'  963   5.515   8.644   9.224
   31DC    H5'1  964   5.582   8.710   9.169
   31DC    H5'2  965   5.422   8.631   9.170
   31DC     C4'  966   5.599   8.516   9.240
   31DC     H4'  967   5.614   8.468   9.143
   31DC     O4'  968   5.721   8.548   9.310
   31DC     C1'  969   5.744   8.438   9.401
   31DC     H1'  970   5.780   8.348   9.352
   31DC      N1  971   5.850   8.477   9.494
   31DC      C6  972   5.834   8.591   9.563
   31DC      H6  973   5.740   8.645   9.559
   31DC      C5  974   5.936   8.638   9.635
   31DC      H5  975   5.931   8.728   9.694
   31DC      C4  976   6.056   8.561   9.631
   31DC      N4  977   6.158   8.595   9.705
   31DC     H41  978   6.239   8.536   9.694
   31DC     H42  979   6.157   8.679   9.761
   31DC      N3  980   6.073   8.442   9.574
   31DC      C2  981   5.969   8.404   9.502
   31DC      O2  982   5.974   8.297   9.435
   31DC     C3'  983   5.513   8.421   9.326
   31DC     H3'  984   5.418   8.461   9.361
   31DC     C2'  985   5.602   8.407   9.453
   31DC    H2'1  986   5.570   8.483   9.523
   31DC    H2'2  987   5.591   8.309   9.499
   31DC     O3'  988   5.499   8.300   9.259
   32DG3      P  989   5.390   8.186   9.297
   32DG3    O1P  990   5.361   8.109   9.174
   32DG3    O2P  991   5.281   8.250   9.370
   32DG3    O5'  992   5.455   8.083   9.395
   32DG3    C5'  993   5.529   7.972   9.352
   32DG3   H5'1  994   5.605   8.012   9.285
   32DG3   H5'2  995   5.465   7.904   9.295
   32DG3    C4'  996   5.589   7.896   9.473
   32DG3    H4'  997   5.620   7.809   9.414
   32DG3    O4'  998   5.692   7.969   9.531
   32DG3    C1'  999   5.661   7.987   9.673
   32DG3    H1' 1000   5.724   7.911   9.721
   32DG3     N9 1001   5.704   8.111   9.726
   32DG3     C8 1002   5.637   8.229   9.759
   32DG3     H8 1003   5.532   8.228   9.737
   32DG3     N7 1004   5.714   8.324   9.800
   32DG3     C5 1005   5.841   8.272   9.809
   32DG3     C6 1006   5.964   8.326   9.861
   32DG3     O6 1007   5.978   8.438   9.915
   32DG3     N1 1008   6.069   8.246   9.843
   32DG3     H1 1009   6.160   8.284   9.864
   32DG3     C2 1010   6.057   8.119   9.793
   32DG3     N2 1011   6.169   8.054   9.785
   32DG3    H21 1012   6.249   8.100   9.826
   32DG3    H22 1013   6.169   7.967   9.734
   32DG3     N3 1014   5.945   8.061   9.761
   32DG3     C4 1015   5.836   8.140   9.766
   32DG3    C3' 1016   5.484   7.851   9.574
   32DG3    H3' 1017   5.381   7.867   9.540
   32DG3    C2' 1018   5.509   7.950   9.690
   32DG3   H2'1 1019   5.439   8.033   9.683
   32DG3   H2'2 1020   5.499   7.905   9.789
   32DG3    O3' 1021   5.509   7.719   9.618
   32DG3    H3T 1022   5.589   7.687   9.576
   33DC5    H5T 1023   6.680   8.101  10.349
   33DC5    O5' 1024   6.769   8.069  10.333
   33DC5    C5' 1025   6.759   7.954  10.239
   33DC5   H5'1 1026   6.664   7.906  10.265
   33DC5   H5'2 1027   6.846   7.888  10.241
   33DC5    C4' 1028   6.747   7.997  10.089
   33DC5    H4' 1029   6.726   7.900  10.044
   33DC5    O4' 1030   6.624   8.079  10.081
   33DC5    C1' 1031   6.642   8.179   9.981
   33DC5    H1' 1032   6.628   8.140   9.881
   33DC5     N1 1033   6.539   8.294   9.989
   33DC5     C6 1034   6.567   8.422  10.037
   33DC5     H6 1035   6.666   8.450  10.072
   33DC5     C5 1036   6.466   8.521  10.054
   33DC5     H5 1037   6.491   8.613  10.103
   33DC5     C4 1038   6.340   8.484  10.011
   33DC5     N4 1039   6.238   8.568  10.027
   33DC5    H41 1040   6.147   8.531  10.006
   33DC5    H42 1041   6.263   8.666  10.034
   33DC5     N3 1042   6.308   8.360   9.970
   33DC5     C2 1043   6.408   8.267   9.959
   33DC5     O2 1044   6.377   8.154   9.918
   33DC5    C3' 1045   6.860   8.077  10.034
   33DC5    H3' 1046   6.942   8.097  10.103
   33DC5    C2' 1047   6.793   8.218  10.011
   33DC5   H2'1 1048   6.802   8.280  10.101
   33DC5   H2'2 1049   6.844   8.269   9.929
   33DC5    O3' 1050   6.891   8.026   9.911
   34DG       P 1051   7.000   7.918   9.893
   34DG     O1P 1052   7.012   7.836  10.014
   34DG     O2P 1053   7.120   7.978   9.826
   34DG     O5' 1054   6.926   7.818   9.781
   34DG     C5' 1055   6.843   7.706   9.807
   34DG    H5'1 1056   6.804   7.714   9.909
   34DG    H5'2 1057   6.902   7.615   9.802
   34DG     C4' 1058   6.717   7.696   9.709
   34DG     H4' 1059   6.660   7.605   9.721
   34DG     O4' 1060   6.636   7.808   9.723
   34DG     C1' 1061   6.607   7.857   9.595
   34DG     H1' 1062   6.513   7.817   9.556
   34DG      N9 1063   6.589   7.998   9.607
   34DG      C8 1064   6.671   8.095   9.661
   34DG      H8 1065   6.776   8.072   9.673
   34DG      N7 1066   6.622   8.211   9.664
   34DG      C5 1067   6.490   8.200   9.618
   34DG      C6 1068   6.385   8.297   9.605
   34DG      O6 1069   6.376   8.412   9.642
   34DG      N1 1070   6.274   8.242   9.546
   34DG      H1 1071   6.193   8.298   9.523
   34DG      C2 1072   6.269   8.112   9.509
   34DG      N2 1073   6.161   8.072   9.445
   34DG     H21 1074   6.081   8.130   9.423
   34DG     H22 1075   6.172   7.976   9.416
   34DG      N3 1076   6.360   8.019   9.525
   34DG      C4 1077   6.474   8.070   9.571
   34DG     C3' 1078   6.753   7.682   9.562
   34DG     H3' 1079   6.861   7.672   9.551
   34DG     C2' 1080   6.718   7.816   9.498
   34DG    H2'1 1081   6.791   7.897   9.508
   34DG    H2'2 1082   6.693   7.794   9.394
   34DG     O3' 1083   6.666   7.580   9.503
   35DC       P 1084   6.717   7.501   9.369
   35DC     O1P 1085   6.659   7.371   9.379
   35DC     O2P 1086   6.865   7.508   9.365
   35DC     O5' 1087   6.654   7.574   9.243
   35DC     C5' 1088   6.509   7.576   9.217
   35DC    H5'1 1089   6.464   7.567   9.316
   35DC    H5'2 1090   6.461   7.486   9.179
   35DC     C4' 1091   6.446   7.706   9.154
   35DC     H4' 1092   6.338   7.694   9.143
   35DC     O4' 1093   6.452   7.822   9.235
   35DC     C1' 1094   6.484   7.931   9.146
   35DC     H1' 1095   6.390   7.957   9.097
   35DC      N1 1096   6.553   8.053   9.204
   35DC      C6 1097   6.692   8.064   9.234
   35DC      H6 1098   6.755   7.980   9.209
   35DC      C5 1099   6.739   8.178   9.289
   35DC      H5 1100   6.845   8.180   9.310
   35DC      C4 1101   6.640   8.279   9.317
   35DC      N4 1102   6.682   8.400   9.351
   35DC     H41 1103   6.618   8.473   9.378
   35DC     H42 1104   6.780   8.400   9.376
   35DC      N3 1105   6.514   8.274   9.289
   35DC      C2 1106   6.472   8.163   9.229
   35DC      O2 1107   6.347   8.163   9.213
   35DC     C3' 1108   6.493   7.725   9.016
   35DC     H3' 1109   6.563   7.647   8.986
   35DC     C2' 1110   6.572   7.856   9.039
   35DC    H2'1 1111   6.669   7.833   9.083
   35DC    H2'2 1112   6.587   7.921   8.953
   35DC     O3' 1113   6.383   7.734   8.927
   36DA       P 1114   6.394   7.710   8.774
   36DA     O1P 1115   6.370   7.565   8.753
   36DA     O2P 1116   6.519   7.777   8.721
   36DA     O5' 1117   6.274   7.797   8.717
   36DA     C5' 1118   6.139   7.768   8.753
   36DA    H5'1 1119   6.139   7.747   8.860
   36DA    H5'2 1120   6.103   7.687   8.691
   36DA     C4' 1121   6.051   7.895   8.727
   36DA     H4' 1122   5.946   7.868   8.738
   36DA     O4' 1123   6.066   8.005   8.821
   36DA     C1' 1124   6.129   8.109   8.757
   36DA     H1' 1125   6.057   8.190   8.754
   36DA      N9 1126   6.250   8.157   8.831
   36DA      C8 1127   6.376   8.096   8.838
   36DA      H8 1128   6.382   8.001   8.787
   36DA      N7 1129   6.466   8.168   8.891
   36DA      C5 1130   6.401   8.293   8.920
   36DA      C6 1131   6.432   8.415   8.979
   36DA      N6 1132   6.543   8.438   9.039
   36DA     H61 1133   6.553   8.527   9.086
   36DA     H62 1134   6.622   8.376   9.031
   36DA      N1 1135   6.342   8.510   8.987
   36DA      C2 1136   6.221   8.488   8.941
   36DA      H2 1137   6.151   8.567   8.961
   36DA      N3 1138   6.176   8.379   8.885
   36DA      C4 1139   6.270   8.285   8.890
   36DA     C3' 1140   6.063   7.953   8.585
   36DA     H3' 1141   6.110   7.878   8.522
   36DA     C2' 1142   6.154   8.073   8.604
   36DA    H2'1 1143   6.257   8.044   8.582
   36DA    H2'2 1144   6.117   8.150   8.536
   36DA     O3' 1145   5.930   7.983   8.533
   37DC       P 1146   5.897   8.067   8.402
   37DC     O1P 1147   5.752   8.041   8.369
   37DC     O2P 1148   5.999   8.045   8.297
   37DC     O5' 1149   5.910   8.224   8.424
   37DC     C5' 1150   5.816   8.286   8.515
   37DC    H5'1 1151   5.814   8.235   8.612
   37DC    H5'2 1152   5.713   8.262   8.490
   37DC     C4' 1153   5.838   8.436   8.535
   37DC     H4' 1154   5.750   8.470   8.590
   37DC     O4' 1155   5.957   8.463   8.610
   37DC     C1' 1156   6.034   8.551   8.537
   37DC     H1' 1157   6.014   8.654   8.568
   37DC      N1 1158   6.173   8.517   8.552
   37DC      C6 1159   6.233   8.398   8.514
   37DC      H6 1160   6.178   8.326   8.453
   37DC      C5 1161   6.356   8.365   8.554
   37DC      H5 1162   6.397   8.266   8.537
   37DC      C4 1163   6.437   8.465   8.612
   37DC      N4 1164   6.558   8.443   8.659
   37DC     H41 1165   6.605   8.521   8.703
   37DC     H42 1166   6.605   8.358   8.633
   37DC      N3 1167   6.381   8.575   8.657
   37DC      C2 1168   6.248   8.602   8.632
   37DC      O2 1169   6.204   8.711   8.673
   37DC     C3' 1170   5.848   8.509   8.406
   37DC     H3' 1171   5.815   8.443   8.326
   37DC     C2' 1172   5.995   8.532   8.389
   37DC    H2'1 1173   6.039   8.444   8.340
   37DC    H2'2 1174   6.015   8.627   8.339
   37DC     O3' 1175   5.767   8.625   8.405
   38DG       P 1176   5.773   8.729   8.286
   38DG     O1P 1177   5.632   8.781   8.272
   38DG     O2P 1178   5.843   8.681   8.168
   38DG     O5' 1179   5.865   8.845   8.344
   38DG     C5' 1180   5.846   8.909   8.469
   38DG    H5'1 1181   5.859   8.840   8.553
   38DG    H5'2 1182   5.741   8.935   8.486
   38DG     C4' 1183   5.919   9.047   8.464
   38DG     H4' 1184   5.867   9.100   8.544
   38DG     O4' 1185   6.054   9.030   8.501
   38DG     C1' 1186   6.138   9.063   8.391
   38DG     H1' 1187   6.204   9.149   8.403
   38DG      N9 1188   6.235   8.950   8.377
   38DG      C8 1189   6.218   8.830   8.320
   38DG      H8 1190   6.119   8.793   8.294
   38DG      N7 1191   6.326   8.757   8.322
   38DG      C5 1192   6.422   8.841   8.371
   38DG      C6 1193   6.560   8.807   8.390
   38DG      O6 1194   6.623   8.703   8.381
   38DG      N1 1195   6.634   8.919   8.421
   38DG      H1 1196   6.731   8.904   8.443
   38DG      C2 1197   6.579   9.042   8.456
   38DG      N2 1198   6.658   9.126   8.508
   38DG     H21 1199   6.751   9.102   8.540
   38DG     H22 1200   6.613   9.199   8.563
   38DG      N3 1201   6.444   9.068   8.453
   38DG      C4 1202   6.371   8.963   8.403
   38DG     C3' 1203   5.912   9.122   8.334
   38DG     H3' 1204   5.830   9.110   8.264
   38DG     C2' 1205   6.046   9.078   8.267
   38DG    H2'1 1206   6.040   8.988   8.206
   38DG    H2'2 1207   6.072   9.154   8.193
   38DG     O3' 1208   5.915   9.261   8.373
   39DC       P 1209   5.893   9.383   8.271
   39DC     O1P 1210   5.870   9.500   8.356
   39DC     O2P 1211   5.791   9.352   8.169
   39DC     O5' 1212   6.031   9.402   8.189
   39DC     C5' 1213   6.126   9.496   8.220
   39DC    H5'1 1214   6.136   9.488   8.329
   39DC    H5'2 1215   6.083   9.595   8.210
   39DC     C4' 1216   6.257   9.466   8.147
   39DC     H4' 1217   6.325   9.547   8.174
   39DC     O4' 1218   6.311   9.335   8.183
   39DC     C1' 1219   6.351   9.273   8.060
   39DC     H1' 1220   6.444   9.320   8.028
   39DC      N1 1221   6.358   9.119   8.063
   39DC      C6 1222   6.257   9.039   8.017
   39DC      H6 1223   6.157   9.081   8.019
   39DC      C5 1224   6.277   8.913   7.984
   39DC      H5 1225   6.191   8.853   7.961
   39DC      C4 1226   6.408   8.858   7.999
   39DC      N4 1227   6.429   8.735   7.961
   39DC     H41 1228   6.523   8.703   7.981
   39DC     H42 1229   6.362   8.676   7.914
   39DC      N3 1230   6.513   8.930   8.045
   39DC      C2 1231   6.482   9.057   8.086
   39DC      O2 1232   6.572   9.121   8.135
   39DC     C3' 1233   6.235   9.467   7.998
   39DC     H3' 1234   6.131   9.494   7.978
   39DC     C2' 1235   6.252   9.323   7.954
   39DC    H2'1 1236   6.154   9.275   7.963
   39DC    H2'2 1237   6.280   9.321   7.849
   39DC     O3' 1238   6.335   9.541   7.928
   40DA       P 1239   6.329   9.698   7.918
   40DA     O1P 1240   6.264   9.755   8.036
   40DA     O2P 1241   6.274   9.731   7.785
   40DA     O5' 1242   6.479   9.748   7.911
   40DA     C5' 1243   6.561   9.753   8.028
   40DA    H5'1 1244   6.509   9.696   8.105
   40DA    H5'2 1245   6.573   9.856   8.063
   40DA     C4' 1246   6.694   9.675   8.006
   40DA     H4' 1247   6.759   9.691   8.092
   40DA     O4' 1248   6.659   9.535   8.004
   40DA     C1' 1249   6.747   9.480   7.902
   40DA     H1' 1250   6.846   9.463   7.945
   40DA      N9 1251   6.686   9.355   7.857
   40DA      C8 1252   6.566   9.335   7.794
   40DA      H8 1253   6.497   9.415   7.773
   40DA      N7 1254   6.551   9.208   7.760
   40DA      C5 1255   6.664   9.142   7.795
   40DA      C6 1256   6.720   9.011   7.782
   40DA      N6 1257   6.648   8.915   7.728
   40DA     H61 1258   6.697   8.834   7.694
   40DA     H62 1259   6.552   8.929   7.700
   40DA      N1 1260   6.842   8.973   7.825
   40DA      C2 1261   6.909   9.072   7.887
   40DA      H2 1262   7.008   9.045   7.920
   40DA      N3 1263   6.872   9.200   7.901
   40DA      C4 1264   6.749   9.233   7.852
   40DA     C3' 1265   6.757   9.720   7.876
   40DA     H3' 1266   6.691   9.794   7.832
   40DA     C2' 1267   6.755   9.590   7.792
   40DA    H2'1 1268   6.671   9.578   7.722
   40DA    H2'2 1269   6.846   9.566   7.738
   40DA     O3' 1270   6.889   9.764   7.895
   41DC       P 1271   6.975   9.847   7.788
   41DC     O1P 1272   7.070   9.926   7.862
   41DC     O2P 1273   6.887   9.908   7.686
   41DC     O5' 1274   7.047   9.720   7.719
   41DC     C5' 1275   7.141   9.641   7.790
   41DC    H5'1 1276   7.103   9.617   7.890
   41DC    H5'2 1277   7.222   9.713   7.803
   41DC     C4' 1278   7.186   9.513   7.729
   41DC     H4' 1279   7.269   9.479   7.791
   41DC     O4' 1280   7.076   9.422   7.726
   41DC     C1' 1281   7.070   9.383   7.586
   41DC     H1' 1282   7.140   9.301   7.570
   41DC      N1 1283   6.935   9.328   7.549
   41DC      C6 1284   6.819   9.391   7.499
   41DC      H6 1285   6.818   9.499   7.500
   41DC      C5 1286   6.719   9.325   7.444
   41DC      H5 1287   6.633   9.377   7.405
   41DC      C4 1288   6.726   9.183   7.448
   41DC      N4 1289   6.650   9.103   7.372
   41DC     H41 1290   6.654   9.002   7.370
   41DC     H42 1291   6.572   9.149   7.327
   41DC      N3 1292   6.824   9.115   7.505
   41DC      C2 1293   6.923   9.183   7.557
   41DC      O2 1294   7.005   9.116   7.621
   41DC     C3' 1295   7.234   9.547   7.585
   41DC     H3' 1296   7.266   9.651   7.581
   41DC     C2' 1297   7.106   9.505   7.509
   41DC    H2'1 1298   7.017   9.567   7.515
   41DC    H2'2 1299   7.135   9.485   7.406
   41DC     O3' 1300   7.343   9.458   7.550
   42DG       P 1301   7.488   9.526   7.541
   42DG     O1P 1302   7.537   9.560   7.674
   42DG     O2P 1303   7.480   9.633   7.438
   42DG     O5' 1304   7.588   9.413   7.476
   42DG     C5' 1305   7.631   9.297   7.552
   42DG    H5'1 1306   7.549   9.267   7.617
   42DG    H5'2 1307   7.717   9.322   7.615
   42DG     C4' 1308   7.670   9.169   7.468
   42DG     H4' 1309   7.742   9.126   7.538
   42DG     O4' 1310   7.552   9.098   7.432
   42DG     C1' 1311   7.531   9.094   7.289
   42DG     H1' 1312   7.559   8.997   7.249
   42DG      N9 1313   7.386   9.123   7.269
   42DG      C8 1314   7.321   9.241   7.297
   42DG      H8 1315   7.381   9.328   7.320
   42DG      N7 1316   7.192   9.240   7.291
   42DG      C5 1317   7.169   9.109   7.248
   42DG      C6 1318   7.048   9.046   7.202
   42DG      O6 1319   6.933   9.089   7.195
   42DG      N1 1320   7.063   8.915   7.157
   42DG      H1 1321   6.981   8.873   7.115
   42DG      C2 1322   7.181   8.857   7.144
   42DG      N2 1323   7.183   8.738   7.099
   42DG     H21 1324   7.092   8.693   7.088
   42DG     H22 1325   7.272   8.690   7.101
   42DG      N3 1326   7.295   8.911   7.180
   42DG      C4 1327   7.283   9.040   7.225
   42DG     C3' 1328   7.743   9.197   7.340
   42DG     H3' 1329   7.797   9.292   7.349
   42DG     C2' 1330   7.637   9.194   7.229
   42DG    H2'1 1331   7.598   9.296   7.222
   42DG    H2'2 1332   7.668   9.162   7.129
   42DG     O3' 1333   7.843   9.090   7.319
   43DC       P 1334   7.944   9.100   7.192
   43DC     O1P 1335   8.061   9.017   7.207
   43DC     O2P 1336   7.966   9.242   7.152
   43DC     O5' 1337   7.862   9.031   7.074
   43DC     C5' 1338   7.812   8.888   7.075
   43DC    H5'1 1339   7.768   8.868   7.173
   43DC    H5'2 1340   7.897   8.823   7.054
   43DC     C4' 1341   7.714   8.859   6.964
   43DC     H4' 1342   7.713   8.751   6.949
   43DC     O4' 1343   7.591   8.927   6.978
   43DC     C1' 1344   7.551   8.990   6.859
   43DC     H1' 1345   7.517   8.910   6.793
   43DC      N1 1346   7.439   9.078   6.888
   43DC      C6 1347   7.451   9.204   6.933
   43DC      H6 1348   7.550   9.240   6.955
   43DC      C5 1349   7.341   9.282   6.953
   43DC      H5 1350   7.355   9.386   6.977
   43DC      C4 1351   7.217   9.221   6.930
   43DC      N4 1352   7.108   9.291   6.942
   43DC     H41 1353   7.026   9.239   6.914
   43DC     H42 1354   7.106   9.368   7.007
   43DC      N3 1355   7.201   9.098   6.893
   43DC      C2 1356   7.309   9.028   6.867
   43DC      O2 1357   7.288   8.917   6.820
   43DC     C3' 1358   7.768   8.922   6.833
   43DC     H3' 1359   7.876   8.935   6.841
   43DC     C2' 1360   7.684   9.047   6.817
   43DC    H2'1 1361   7.731   9.119   6.884
   43DC    H2'2 1362   7.704   9.077   6.714
   43DC     O3' 1363   7.747   8.830   6.734
   44DG       P 1364   7.841   8.822   6.602
   44DG     O1P 1365   7.968   8.750   6.638
   44DG     O2P 1366   7.851   8.958   6.541
   44DG     O5' 1367   7.762   8.742   6.494
   44DG     C5' 1368   7.725   8.603   6.518
   44DG    H5'1 1369   7.734   8.576   6.624
   44DG    H5'2 1370   7.796   8.535   6.471
   44DG     C4' 1371   7.591   8.550   6.479
   44DG     H4' 1372   7.589   8.450   6.523
   44DG     O4' 1373   7.478   8.631   6.525
   44DG     C1' 1374   7.414   8.686   6.403
   44DG     H1' 1375   7.325   8.630   6.374
   44DG      N9 1376   7.381   8.828   6.437
   44DG      C8 1377   7.465   8.929   6.481
   44DG      H8 1378   7.572   8.914   6.486
   44DG      N7 1379   7.403   9.039   6.514
   44DG      C5 1380   7.275   9.017   6.488
   44DG      C6 1381   7.159   9.101   6.487
   44DG      O6 1382   7.150   9.219   6.521
   44DG      N1 1383   7.044   9.039   6.439
   44DG      H1 1384   6.960   9.095   6.433
   44DG      C2 1385   7.044   8.915   6.384
   44DG      N2 1386   6.931   8.867   6.350
   44DG     H21 1387   6.850   8.927   6.343
   44DG     H22 1388   6.931   8.778   6.303
   44DG      N3 1389   7.145   8.830   6.385
   44DG      C4 1390   7.261   8.888   6.434
   44DG     C3' 1391   7.581   8.544   6.325
   44DG     H3' 1392   7.677   8.533   6.275
   44DG     C2' 1393   7.511   8.675   6.287
   44DG    H2'1 1394   7.581   8.759   6.290
   44DG    H2'2 1395   7.455   8.664   6.194
   44DG     O3' 1396   7.501   8.431   6.286
   45DC       P 1397   7.514   8.367   6.139
   45DC     O1P 1398   7.472   8.228   6.149
   45DC     O2P 1399   7.655   8.393   6.093
   45DC     O5' 1400   7.412   8.450   6.058
   45DC     C5' 1401   7.272   8.424   6.077
   45DC    H5'1 1402   7.255   8.407   6.183
   45DC    H5'2 1403   7.257   8.328   6.029
   45DC     C4' 1404   7.177   8.535   6.017
   45DC     H4' 1405   7.071   8.513   6.018
   45DC     O4' 1406   7.204   8.665   6.085
   45DC     C1' 1407   7.208   8.769   5.990
   45DC     H1' 1408   7.108   8.780   5.949
   45DC      N1 1409   7.264   8.899   6.047
   45DC      C6 1410   7.397   8.930   6.051
   45DC      H6 1411   7.466   8.853   6.020
   45DC      C5 1412   7.436   9.045   6.113
   45DC      H5 1413   7.541   9.071   6.114
   45DC      C4 1414   7.337   9.136   6.146
   45DC      N4 1415   7.372   9.254   6.197
   45DC     H41 1416   7.304   9.326   6.217
   45DC     H42 1417   7.471   9.274   6.192
   45DC      N3 1418   7.211   9.114   6.122
   45DC      C2 1419   7.169   8.999   6.072
   45DC      O2 1420   7.047   8.984   6.072
   45DC     C3' 1421   7.204   8.563   5.869
   45DC     H3' 1422   7.257   8.481   5.822
   45DC     C2' 1423   7.281   8.694   5.877
   45DC    H2'1 1424   7.387   8.685   5.896
   45DC    H2'2 1425   7.274   8.733   5.775
   45DC     O3' 1426   7.088   8.596   5.801
   46DA       P 1427   7.075   8.574   5.641
   46DA     O1P 1428   7.047   8.430   5.629
   46DA     O2P 1429   7.199   8.622   5.572
   46DA     O5' 1430   6.953   8.661   5.584
   46DA     C5' 1431   6.820   8.650   5.636
   46DA    H5'1 1432   6.832   8.605   5.735
   46DA    H5'2 1433   6.763   8.592   5.565
   46DA     C4' 1434   6.753   8.786   5.660
   46DA     H4' 1435   6.650   8.772   5.692
   46DA     O4' 1436   6.821   8.872   5.752
   46DA     C1' 1437   6.858   8.995   5.690
   46DA     H1' 1438   6.786   9.076   5.694
   46DA      N9 1439   6.993   9.034   5.725
   46DA      C8 1440   7.113   8.973   5.705
   46DA      H8 1441   7.129   8.869   5.681
   46DA      N7 1442   7.217   9.047   5.728
   46DA      C5 1443   7.159   9.163   5.776
   46DA      C6 1444   7.208   9.281   5.828
   46DA      N6 1445   7.332   9.305   5.859
   46DA     H61 1446   7.349   9.388   5.915
   46DA     H62 1447   7.403   9.235   5.844
   46DA      N1 1448   7.133   9.384   5.869
   46DA      C2 1449   7.002   9.369   5.847
   46DA      H2 1450   6.938   9.454   5.862
   46DA      N3 1451   6.940   9.262   5.795
   46DA      C4 1452   7.024   9.158   5.764
   46DA     C3' 1453   6.749   8.866   5.524
   46DA     H3' 1454   6.775   8.793   5.447
   46DA     C2' 1455   6.869   8.961   5.539
   46DA    H2'1 1456   6.957   8.900   5.519
   46DA    H2'2 1457   6.858   9.048   5.473
   46DA     O3' 1458   6.623   8.925   5.498
   47DT       P 1459   6.553   8.938   5.355
   47DT     O1P 1460   6.413   8.895   5.374
   47DT     O2P 1461   6.635   8.869   5.253
   47DT     O5' 1462   6.553   9.098   5.334
   47DT     C5' 1463   6.499   9.185   5.433
   47DT    H5'1 1464   6.497   9.133   5.529
   47DT    H5'2 1465   6.394   9.205   5.410
   47DT     C4' 1466   6.588   9.317   5.438
   47DT     H4' 1467   6.554   9.377   5.523
   47DT     O4' 1468   6.723   9.292   5.468
   47DT     C1' 1469   6.791   9.411   5.446
   47DT     H1' 1470   6.763   9.489   5.517
   47DT      N1 1471   6.939   9.384   5.457
   47DT      C6 1472   6.998   9.276   5.399
   47DT      H6 1473   6.946   9.212   5.329
   47DT      C5 1474   7.129   9.249   5.412
   47DT      C7 1475   7.196   9.146   5.326
   47DT     H71 1476   7.223   9.065   5.393
   47DT     H72 1477   7.127   9.114   5.247
   47DT     H73 1478   7.288   9.179   5.278
   47DT      C4 1479   7.210   9.337   5.494
   47DT      O4 1480   7.327   9.327   5.524
   47DT      N3 1481   7.145   9.438   5.547
   47DT      H3 1482   7.192   9.503   5.609
   47DT      C2 1483   7.006   9.462   5.546
   47DT      O2 1484   6.961   9.560   5.611
   47DT     C3' 1485   6.594   9.402   5.307
   47DT     H3' 1486   6.572   9.330   5.228
   47DT     C2' 1487   6.743   9.444   5.303
   47DT    H2'1 1488   6.789   9.379   5.228
   47DT    H2'2 1489   6.749   9.550   5.276
   47DT     O3' 1490   6.493   9.507   5.310
   48DA       P 1491   6.422   9.563   5.174
   48DA     O1P 1492   6.283   9.621   5.216
   48DA     O2P 1493   6.422   9.450   5.082
   48DA     O5' 1494   6.509   9.674   5.109
   48DA     C5' 1495   6.495   9.805   5.145
   48DA    H5'1 1496   6.420   9.853   5.082
   48DA    H5'2 1497   6.459   9.812   5.247
   48DA     C4' 1498   6.636   9.877   5.135
   48DA     H4' 1499   6.641   9.969   5.192
   48DA     O4' 1500   6.742   9.789   5.176
   48DA     C1' 1501   6.842   9.795   5.076
   48DA     H1' 1502   6.899   9.887   5.088
   48DA      N9 1503   6.942   9.687   5.081
   48DA      C8 1504   6.944   9.561   5.029
   48DA      H8 1505   6.858   9.523   4.975
   48DA      N7 1506   7.043   9.485   5.069
   48DA      C5 1507   7.117   9.578   5.148
   48DA      C6 1508   7.245   9.577   5.217
   48DA      N6 1509   7.320   9.469   5.216
   48DA     H61 1510   7.412   9.472   5.258
   48DA     H62 1511   7.295   9.389   5.159
   48DA      N1 1512   7.292   9.691   5.276
   48DA      C2 1513   7.204   9.790   5.281
   48DA      H2 1514   7.229   9.878   5.338
   48DA      N3 1515   7.078   9.800   5.242
   48DA      C4 1516   7.050   9.696   5.164
   48DA     C3' 1517   6.662   9.917   4.993
   48DA     H3' 1518   6.574   9.904   4.930
   48DA     C2' 1519   6.767   9.818   4.945
   48DA    H2'1 1520   6.722   9.728   4.905
   48DA    H2'2 1521   6.831   9.871   4.873
   48DA     O3' 1522   6.705  10.057   4.994
   49DA       P 1523   6.665  10.159   4.885
   49DA     O1P 1524   6.535  10.221   4.920
   49DA     O2P 1525   6.673  10.098   4.751
   49DA     O5' 1526   6.781  10.276   4.895
   49DA     C5' 1527   6.782  10.363   5.008
   49DA    H5'1 1528   6.758  10.306   5.099
   49DA    H5'2 1529   6.704  10.437   4.991
   49DA     C4' 1530   6.912  10.442   5.036
   49DA     H4' 1531   6.883  10.510   5.117
   49DA     O4' 1532   7.019  10.349   5.078
   49DA     C1' 1533   7.107  10.329   4.966
   49DA     H1' 1534   7.202  10.372   4.995
   49DA      N9 1535   7.112  10.180   4.930
   49DA      C8 1536   7.037  10.105   4.844
   49DA      H8 1537   6.953  10.149   4.793
   49DA      N7 1538   7.076   9.980   4.840
   49DA      C5 1539   7.195   9.976   4.911
   49DA      C6 1540   7.296   9.884   4.951
   49DA      N6 1541   7.305   9.757   4.908
   49DA     H61 1542   7.386   9.700   4.927
   49DA     H62 1543   7.243   9.718   4.838
   49DA      N1 1544   7.405   9.917   5.029
   49DA      C2 1545   7.413  10.040   5.073
   49DA      H2 1546   7.500  10.055   5.135
   49DA      N3 1547   7.315  10.132   5.061
   49DA      C4 1548   7.214  10.092   4.976
   49DA     C3' 1549   6.973  10.524   4.922
   49DA     H3' 1550   6.894  10.574   4.866
   49DA     C2' 1551   7.046  10.416   4.847
   49DA    H2'1 1552   6.981  10.355   4.785
   49DA    H2'2 1553   7.121  10.459   4.781
   49DA     O3' 1554   7.064  10.622   4.976
   50DC       P 1555   7.128  10.740   4.899
   50DC     O1P 1556   7.111  10.869   4.976
   50DC     O2P 1557   7.088  10.747   4.760
   50DC     O5' 1558   7.277  10.690   4.905
   50DC     C5' 1559   7.337  10.681   5.034
   50DC    H5'1 1560   7.266  10.646   5.109
   50DC    H5'2 1561   7.357  10.784   5.065
   50DC     C4' 1562   7.473  10.606   5.031
   50DC     H4' 1563   7.527  10.618   5.125
   50DC     O4' 1564   7.461  10.470   5.002
   50DC     C1' 1565   7.525  10.440   4.882
   50DC     H1' 1566   7.623  10.404   4.915
   50DC      N1 1567   7.468  10.330   4.798
   50DC      C6 1568   7.362  10.350   4.716
   50DC      H6 1569   7.322  10.450   4.708
   50DC      C5 1570   7.308  10.252   4.644
   50DC      H5 1571   7.215  10.274   4.592
   50DC      C4 1572   7.359  10.122   4.670
   50DC      N4 1573   7.308  10.021   4.607
   50DC     H41 1574   7.361   9.935   4.605
   50DC     H42 1575   7.223  10.032   4.552
   50DC      N3 1576   7.464  10.098   4.738
   50DC      C2 1577   7.519  10.204   4.805
   50DC      O2 1578   7.619  10.175   4.875
   50DC     C3' 1579   7.570  10.666   4.930
   50DC     H3' 1580   7.537  10.769   4.917
   50DC     C2' 1581   7.543  10.576   4.812
   50DC    H2'1 1582   7.458  10.616   4.756
   50DC    H2'2 1583   7.628  10.581   4.744
   50DC     O3' 1584   7.706  10.665   4.986
   51DG       P 1585   7.827  10.721   4.893
   51DG     O1P 1586   7.932  10.776   4.980
   51DG     O2P 1587   7.769  10.813   4.797
   51DG     O5' 1588   7.890  10.600   4.822
   51DG     C5' 1589   7.966  10.501   4.899
   51DG    H5'1 1590   7.902  10.426   4.945
   51DG    H5'2 1591   8.019  10.553   4.979
   51DG     C4' 1592   8.079  10.439   4.818
   51DG     H4' 1593   8.147  10.388   4.885
   51DG     O4' 1594   8.016  10.335   4.736
   51DG     C1' 1595   8.017  10.380   4.600
   51DG     H1' 1596   8.075  10.314   4.535
   51DG      N9 1597   7.877  10.359   4.551
   51DG      C8 1598   7.763  10.430   4.576
   51DG      H8 1599   7.775  10.532   4.610
   51DG      N7 1600   7.651  10.374   4.536
   51DG      C5 1601   7.694  10.244   4.505
   51DG      C6 1602   7.631  10.130   4.451
   51DG      O6 1603   7.519  10.114   4.405
   51DG      N1 1604   7.715  10.027   4.424
   51DG      H1 1605   7.678   9.943   4.382
   51DG      C2 1606   7.851  10.032   4.436
   51DG      N2 1607   7.918   9.933   4.384
   51DG     H21 1608   7.872   9.843   4.374
   51DG     H22 1609   8.019   9.933   4.382
   51DG      N3 1610   7.917  10.134   4.475
   51DG      C4 1611   7.831  10.236   4.508
   51DG     C3' 1612   8.155  10.530   4.730
   51DG     H3' 1613   8.141  10.631   4.770
   51DG     C2' 1614   8.070  10.520   4.601
   51DG    H2'1 1615   7.995  10.599   4.603
   51DG    H2'2 1616   8.124  10.535   4.508
   51DG     O3' 1617   8.291  10.495   4.720
   52DC       P 1618   8.387  10.574   4.614
   52DC     O1P 1619   8.522  10.549   4.670
   52DC     O2P 1620   8.335  10.713   4.599
   52DC     O5' 1621   8.365  10.502   4.472
   52DC     C5' 1622   8.417  10.366   4.457
   52DC    H5'1 1623   8.394  10.304   4.543
   52DC    H5'2 1624   8.526  10.369   4.449
   52DC     C4' 1625   8.368  10.296   4.332
   52DC     H4' 1626   8.427  10.205   4.325
   52DC     O4' 1627   8.229  10.267   4.328
   52DC     C1' 1628   8.179  10.311   4.207
   52DC     H1' 1629   8.208  10.240   4.130
   52DC      N1 1630   8.028  10.325   4.203
   52DC      C6 1631   7.966  10.444   4.227
   52DC      H6 1632   8.028  10.525   4.263
   52DC      C5 1633   7.833  10.457   4.218
   52DC      H5 1634   7.783  10.548   4.247
   52DC      C4 1635   7.761  10.339   4.185
   52DC      N4 1636   7.635  10.337   4.170
   52DC     H41 1637   7.599  10.243   4.165
   52DC     H42 1638   7.575  10.418   4.177
   52DC      N3 1639   7.812  10.223   4.158
   52DC      C2 1640   7.947  10.214   4.167
   52DC      O2 1641   7.998  10.109   4.134
   52DC     C3' 1642   8.401  10.384   4.212
   52DC     H3' 1643   8.473  10.465   4.225
   52DC     C2' 1644   8.264  10.433   4.172
   52DC    H2'1 1645   8.246  10.516   4.240
   52DC    H2'2 1646   8.276  10.454   4.065
   52DC     O3' 1647   8.441  10.302   4.105
   53DA       P 1648   8.591  10.272   4.074
   53DA     O1P 1649   8.654  10.218   4.194
   53DA     O2P 1650   8.652  10.390   4.007
   53DA     O5' 1651   8.591  10.151   3.973
   53DA     C5' 1652   8.587  10.012   4.016
   53DA    H5'1 1653   8.518   9.998   4.099
   53DA    H5'2 1654   8.686   9.996   4.059
   53DA     C4' 1655   8.548   9.907   3.919
   53DA     H4' 1656   8.570   9.809   3.959
   53DA     O4' 1657   8.410   9.938   3.898
   53DA     C1' 1658   8.396  10.006   3.771
   53DA     H1' 1659   8.344   9.935   3.706
   53DA      N9 1660   8.302  10.123   3.781
   53DA      C8 1661   8.335  10.260   3.798
   53DA      H8 1662   8.436  10.297   3.801
   53DA      N7 1663   8.229  10.334   3.827
   53DA      C5 1664   8.124  10.246   3.818
   53DA      C6 1665   7.980  10.255   3.830
   53DA      N6 1666   7.910  10.366   3.843
   53DA     H61 1667   7.811  10.359   3.865
   53DA     H62 1668   7.956  10.455   3.832
   53DA      N1 1669   7.905  10.149   3.834
   53DA      C2 1670   7.962  10.032   3.811
   53DA      H2 1671   7.889   9.952   3.803
   53DA      N3 1672   8.089  10.008   3.782
   53DA      C4 1673   8.168  10.122   3.785
   53DA     C3' 1674   8.605   9.909   3.781
   53DA     H3' 1675   8.708   9.945   3.788
   53DA     C2' 1676   8.531  10.021   3.705
   53DA    H2'1 1677   8.569  10.118   3.738
   53DA    H2'2 1678   8.531  10.000   3.598
   53DA     O3' 1679   8.607   9.780   3.726
   54DT       P 1680   8.625   9.753   3.567
   54DT     O1P 1681   8.656   9.610   3.539
   54DT     O2P 1682   8.725   9.853   3.525
   54DT     O5' 1683   8.479   9.786   3.502
   54DT     C5' 1684   8.372   9.695   3.508
   54DT    H5'1 1685   8.344   9.665   3.609
   54DT    H5'2 1686   8.407   9.603   3.461
   54DT     C4' 1687   8.251   9.746   3.436
   54DT     H4' 1688   8.184   9.660   3.432
   54DT     O4' 1689   8.195   9.871   3.499
   54DT     C1' 1690   8.154   9.948   3.392
   54DT     H1' 1691   8.068   9.903   3.344
   54DT      N1 1692   8.112  10.084   3.428
   54DT      C6 1693   8.198  10.189   3.424
   54DT      H6 1694   8.293  10.180   3.372
   54DT      C5 1695   8.170  10.312   3.478
   54DT      C7 1696   8.271  10.413   3.461
   54DT     H71 1697   8.280  10.449   3.564
   54DT     H72 1698   8.369  10.379   3.426
   54DT     H73 1699   8.247  10.496   3.395
   54DT      C4 1700   8.032  10.342   3.517
   54DT      O4 1701   7.985  10.448   3.564
   54DT      N3 1702   7.940  10.232   3.505
   54DT      H3 1703   7.842  10.244   3.526
   54DT      C2 1704   7.978  10.107   3.465
   54DT      O2 1705   7.895  10.019   3.474
   54DT     C3' 1706   8.280   9.777   3.292
   54DT     H3' 1707   8.381   9.749   3.263
   54DT     C2' 1708   8.270   9.933   3.296
   54DT    H2'1 1709   8.356   9.984   3.339
   54DT    H2'2 1710   8.259   9.966   3.193
   54DT     O3' 1711   8.179   9.724   3.211
   55DA       P 1712   8.204   9.622   3.098
   55DA     O1P 1713   8.199   9.494   3.171
   55DA     O2P 1714   8.330   9.657   3.031
   55DA     O5' 1715   8.089   9.623   2.995
   55DA     C5' 1716   7.961   9.585   3.036
   55DA    H5'1 1717   7.940   9.594   3.143
   55DA    H5'2 1718   7.952   9.480   3.007
   55DA     C4' 1719   7.846   9.668   2.968
   55DA     H4' 1720   7.752   9.617   2.989
   55DA     O4' 1721   7.848   9.804   3.022
   55DA     C1' 1722   7.871   9.898   2.917
   55DA     H1' 1723   7.775   9.942   2.891
   55DA      N9 1724   7.951  10.010   2.971
   55DA      C8 1725   8.086  10.018   2.978
   55DA      H8 1726   8.150   9.935   2.950
   55DA      N7 1727   8.130  10.126   3.040
   55DA      C5 1728   8.008  10.196   3.068
   55DA      C6 1729   7.976  10.324   3.119
   55DA      N6 1730   8.052  10.414   3.181
   55DA     H61 1731   8.008  10.486   3.237
   55DA     H62 1732   8.153  10.402   3.180
   55DA      N1 1733   7.845  10.358   3.126
   55DA      C2 1734   7.747  10.283   3.081
   55DA      H2 1735   7.646  10.320   3.084
   55DA      N3 1736   7.771  10.168   3.022
   55DA      C4 1737   7.901  10.130   3.010
   55DA     C3' 1738   7.854   9.678   2.820
   55DA     H3' 1739   7.921   9.597   2.792
   55DA     C2' 1740   7.923   9.812   2.799
   55DA    H2'1 1741   8.029   9.791   2.815
   55DA    H2'2 1742   7.894   9.851   2.701
   55DA     O3' 1743   7.733   9.653   2.750
   56DC       P 1744   7.728   9.629   2.595
   56DC     O1P 1745   7.613   9.537   2.591
   56DC     O2P 1746   7.856   9.572   2.551
   56DC     O5' 1747   7.698   9.756   2.510
   56DC     C5' 1748   7.599   9.850   2.550
   56DC    H5'1 1749   7.581   9.837   2.657
   56DC    H5'2 1750   7.511   9.822   2.492
   56DC     C4' 1751   7.612  10.002   2.534
   56DC     H4' 1752   7.513  10.047   2.543
   56DC     O4' 1753   7.699  10.059   2.628
   56DC     C1' 1754   7.772  10.162   2.561
   56DC     H1' 1755   7.707  10.243   2.528
   56DC      N1 1756   7.882  10.222   2.642
   56DC      C6 1757   8.016  10.175   2.637
   56DC      H6 1758   8.040  10.085   2.582
   56DC      C5 1759   8.108  10.246   2.702
   56DC      H5 1760   8.214  10.229   2.697
   56DC      C4 1761   8.067  10.352   2.782
   56DC      N4 1762   8.159  10.405   2.860
   56DC     H41 1763   8.134  10.483   2.918
   56DC     H42 1764   8.247  10.357   2.875
   56DC      N3 1765   7.946  10.401   2.793
   56DC      C2 1766   7.852  10.334   2.717
   56DC      O2 1767   7.739  10.382   2.722
   56DC     C3' 1768   7.666  10.033   2.395
   56DC     H3' 1769   7.691   9.954   2.323
   56DC     C2' 1770   7.802  10.090   2.430
   56DC    H2'1 1771   7.871  10.010   2.455
   56DC    H2'2 1772   7.850  10.153   2.356
   56DC     O3' 1773   7.585  10.128   2.329
   57DG       P 1774   7.463  10.085   2.235
   57DG     O1P 1775   7.378   9.996   2.308
   57DG     O2P 1776   7.509  10.050   2.098
   57DG     O5' 1777   7.396  10.235   2.231
   57DG     C5' 1778   7.330  10.289   2.343
   57DG    H5'1 1779   7.389  10.268   2.433
   57DG    H5'2 1780   7.234  10.244   2.366
   57DG     C4' 1781   7.316  10.440   2.338
   57DG     H4' 1782   7.218  10.463   2.381
   57DG     O4' 1783   7.415  10.508   2.412
   57DG     C1' 1784   7.498  10.581   2.328
   57DG     H1' 1785   7.482  10.689   2.334
   57DG      N9 1786   7.642  10.560   2.355
   57DG      C8 1787   7.718  10.445   2.336
   57DG      H8 1788   7.680  10.358   2.284
   57DG      N7 1789   7.845  10.452   2.382
   57DG      C5 1790   7.848  10.578   2.454
   57DG      C6 1791   7.954  10.639   2.524
   57DG      O6 1792   8.073  10.609   2.545
   57DG      N1 1793   7.916  10.760   2.579
   57DG      H1 1794   7.988  10.809   2.630
   57DG      C2 1795   7.789  10.816   2.574
   57DG      N2 1796   7.767  10.932   2.630
   57DG     H21 1797   7.837  10.967   2.694
   57DG     H22 1798   7.682  10.983   2.611
   57DG      N3 1799   7.692  10.762   2.490
   57DG      C4 1800   7.725  10.640   2.436
   57DG     C3' 1801   7.322  10.493   2.192
   57DG     H3' 1802   7.302  10.423   2.111
   57DG     C2' 1803   7.462  10.547   2.183
   57DG    H2'1 1804   7.524  10.470   2.137
   57DG    H2'2 1805   7.474  10.635   2.121
   57DG     O3' 1806   7.227  10.598   2.190
   58DC       P 1807   7.200  10.693   2.064
   58DC     O1P 1808   7.065  10.742   2.091
   58DC     O2P 1809   7.225  10.616   1.933
   58DC     O5' 1810   7.299  10.815   2.082
   58DC     C5' 1811   7.293  10.904   2.191
   58DC    H5'1 1812   7.299  10.844   2.281
   58DC    H5'2 1813   7.195  10.953   2.197
   58DC     C4' 1814   7.417  10.996   2.191
   58DC     H4' 1815   7.399  11.066   2.272
   58DC     O4' 1816   7.537  10.922   2.219
   58DC     C1' 1817   7.638  10.951   2.125
   58DC     H1' 1818   7.681  11.047   2.153
   58DC      N1 1819   7.742  10.848   2.119
   58DC      C6 1820   7.728  10.737   2.038
   58DC      H6 1821   7.638  10.724   1.980
   58DC      C5 1822   7.826  10.638   2.033
   58DC      H5 1823   7.818  10.545   1.979
   58DC      C4 1824   7.941  10.661   2.115
   58DC      N4 1825   8.035  10.575   2.129
   58DC     H41 1826   8.108  10.615   2.187
   58DC     H42 1827   8.037  10.483   2.087
   58DC      N3 1828   7.955  10.762   2.195
   58DC      C2 1829   7.859  10.857   2.200
   58DC      O2 1830   7.876  10.949   2.282
   58DC     C3' 1831   7.447  11.067   2.056
   58DC     H3' 1832   7.355  11.063   1.997
   58DC     C2' 1833   7.564  10.984   2.000
   58DC    H2'1 1834   7.531  10.894   1.949
   58DC    H2'2 1835   7.623  11.039   1.926
   58DC     O3' 1836   7.505  11.195   2.074
   59DA       P 1837   7.422  11.327   2.074
   59DA     O1P 1838   7.327  11.326   2.185
   59DA     O2P 1839   7.361  11.349   1.942
   59DA     O5' 1840   7.531  11.444   2.104
   59DA     C5' 1841   7.568  11.485   2.235
   59DA    H5'1 1842   7.606  11.404   2.298
   59DA    H5'2 1843   7.480  11.531   2.280
   59DA     C4' 1844   7.693  11.575   2.223
   59DA     H4' 1845   7.713  11.634   2.313
   59DA     O4' 1846   7.806  11.490   2.232
   59DA     C1' 1847   7.874  11.488   2.106
   59DA     H1' 1848   7.969  11.539   2.126
   59DA      N9 1849   7.897  11.347   2.072
   59DA      C8 1850   7.814  11.254   2.012
   59DA      H8 1851   7.712  11.278   1.987
   59DA      N7 1852   7.866  11.134   1.991
   59DA      C5 1853   7.993  11.148   2.044
   59DA      C6 1854   8.116  11.072   2.038
   59DA      N6 1855   8.122  10.950   1.980
   59DA     H61 1856   8.207  10.896   1.979
   59DA     H62 1857   8.042  10.919   1.928
   59DA      N1 1858   8.227  11.119   2.099
   59DA      C2 1859   8.228  11.240   2.147
   59DA      H2 1860   8.328  11.272   2.173
   59DA      N3 1861   8.131  11.330   2.138
   59DA      C4 1862   8.015  11.281   2.092
   59DA     C3' 1863   7.710  11.662   2.097
   59DA     H3' 1864   7.623  11.670   2.032
   59DA     C2' 1865   7.798  11.575   2.003
   59DA    H2'1 1866   7.749  11.512   1.930
   59DA    H2'2 1867   7.858  11.637   1.937
   59DA     O3' 1868   7.763  11.792   2.134
   60DC       P 1869   7.798  11.911   2.033
   60DC     O1P 1870   7.820  12.024   2.121
   60DC     O2P 1871   7.706  11.922   1.920
   60DC     O5' 1872   7.939  11.863   1.982
   60DC     C5' 1873   8.044  11.849   2.074
   60DC    H5'1 1874   8.006  11.811   2.169
   60DC    H5'2 1875   8.080  11.943   2.114
   60DC     C4' 1876   8.164  11.776   2.027
   60DC     H4' 1877   8.236  11.781   2.109
   60DC     O4' 1878   8.138  11.638   2.000
   60DC     C1' 1879   8.198  11.604   1.877
   60DC     H1' 1880   8.305  11.592   1.892
   60DC      N1 1881   8.148  11.471   1.828
   60DC      C6 1882   8.023  11.447   1.766
   60DC      H6 1883   7.951  11.527   1.772
   60DC      C5 1884   7.997  11.328   1.708
   60DC      H5 1885   7.897  11.308   1.672
   60DC      C4 1886   8.104  11.234   1.716
   60DC      N4 1887   8.080  11.115   1.664
   60DC     H41 1888   8.163  11.057   1.660
   60DC     H42 1889   7.991  11.105   1.619
   60DC      N3 1890   8.219  11.249   1.777
   60DC      C2 1891   8.241  11.364   1.838
   60DC      O2 1892   8.346  11.368   1.900
   60DC     C3' 1893   8.224  11.827   1.892
   60DC     H3' 1894   8.193  11.930   1.880
   60DC     C2' 1895   8.169  11.724   1.789
   60DC    H2'1 1896   8.063  11.744   1.771
   60DC    H2'2 1897   8.226  11.722   1.696
   60DC     O3' 1898   8.364  11.816   1.914
   61DA       P 1899   8.451  11.934   1.887
   61DA     O1P 1900   8.495  12.001   2.005
   61DA     O2P 1901   8.393  12.017   1.779
   61DA     O5' 1902   8.585  11.870   1.818
   61DA     C5' 1903   8.687  11.819   1.899
   61DA    H5'1 1904   8.648  11.762   1.984
   61DA    H5'2 1905   8.746  11.902   1.938
   61DA     C4' 1906   8.774  11.719   1.832
   61DA     H4' 1907   8.848  11.680   1.902
   61DA     O4' 1908   8.696  11.604   1.793
   61DA     C1' 1909   8.716  11.571   1.660
   61DA     H1' 1910   8.807  11.511   1.656
   61DA      N9 1911   8.590  11.509   1.609
   61DA      C8 1912   8.471  11.568   1.587
   61DA      H8 1913   8.458  11.671   1.615
   61DA      N7 1914   8.377  11.497   1.529
   61DA      C5 1915   8.444  11.372   1.520
   61DA      C6 1916   8.407  11.243   1.470
   61DA      N6 1917   8.286  11.205   1.442
   61DA     H61 1918   8.272  11.108   1.417
   61DA     H62 1919   8.216  11.277   1.454
   61DA      N1 1920   8.492  11.144   1.466
   61DA      C2 1921   8.620  11.168   1.494
   61DA      H2 1922   8.688  11.084   1.484
   61DA      N3 1923   8.674  11.276   1.553
   61DA      C4 1924   8.577  11.377   1.557
   61DA     C3' 1925   8.838  11.777   1.701
   61DA     H3' 1926   8.837  11.886   1.703
   61DA     C2' 1927   8.752  11.707   1.596
   61DA    H2'1 1928   8.671  11.778   1.581
   61DA    H2'2 1929   8.797  11.686   1.499
   61DA     O3' 1930   8.977  11.751   1.709
   62DT       P 1931   9.092  11.776   1.595
   62DT     O1P 1932   9.224  11.773   1.661
   62DT     O2P 1933   9.059  11.907   1.530
   62DT     O5' 1934   9.083  11.663   1.481
   62DT     C5' 1935   9.125  11.538   1.515
   62DT    H5'1 1936   9.071  11.504   1.604
   62DT    H5'2 1937   9.232  11.537   1.535
   62DT     C4' 1938   9.092  11.439   1.408
   62DT     H4' 1939   9.139  11.342   1.425
   62DT     O4' 1940   8.951  11.420   1.401
   62DT     C1' 1941   8.910  11.413   1.262
   62DT     H1' 1942   8.942  11.318   1.219
   62DT      N1 1943   8.762  11.428   1.239
   62DT      C6 1944   8.698  11.554   1.258
   62DT      H6 1945   8.751  11.645   1.282
   62DT      C5 1946   8.567  11.561   1.241
   62DT      C7 1947   8.496  11.697   1.255
   62DT     H71 1948   8.406  11.694   1.316
   62DT     H72 1949   8.558  11.766   1.311
   62DT     H73 1950   8.480  11.748   1.160
   62DT      C4 1951   8.488  11.442   1.194
   62DT      O4 1952   8.368  11.439   1.155
   62DT      N3 1953   8.563  11.328   1.187
   62DT      H3 1954   8.503  11.253   1.156
   62DT      C2 1955   8.694  11.313   1.203
   62DT      O2 1956   8.752  11.210   1.182
   62DT     C3' 1957   9.133  11.485   1.268
   62DT     H3' 1958   9.195  11.574   1.270
   62DT     C2' 1959   8.994  11.524   1.199
   62DT    H2'1 1960   8.948  11.620   1.223
   62DT    H2'2 1961   8.996  11.510   1.091
   62DT     O3' 1962   9.194  11.379   1.190
   63DG       P 1963   9.355  11.353   1.208
   63DG     O1P 1964   9.384  11.299   1.348
   63DG     O2P 1965   9.434  11.470   1.157
   63DG     O5' 1966   9.369  11.239   1.092
   63DG     C5' 1967   9.389  11.099   1.119
   63DG    H5'1 1968   9.335  11.053   1.201
   63DG    H5'2 1969   9.495  11.097   1.145
   63DG     C4' 1970   9.365  11.012   0.991
   63DG     H4' 1971   9.404  10.911   1.002
   63DG     O4' 1972   9.223  11.018   0.972
   63DG     C1' 1973   9.190  11.082   0.848
   63DG     H1' 1974   9.168  11.000   0.779
   63DG      N9 1975   9.064  11.165   0.850
   63DG      C8 1976   9.054  11.295   0.887
   63DG      H8 1977   9.137  11.352   0.925
   63DG      N7 1978   8.932  11.342   0.884
   63DG      C5 1979   8.854  11.235   0.823
   63DG      C6 1980   8.717  11.218   0.792
   63DG      O6 1981   8.623  11.293   0.811
   63DG      N1 1982   8.690  11.094   0.738
   63DG      H1 1983   8.592  11.089   0.717
   63DG      C2 1984   8.783  10.998   0.711
   63DG      N2 1985   8.742  10.879   0.672
   63DG     H21 1986   8.645  10.870   0.647
   63DG     H22 1987   8.795  10.794   0.660
   63DG      N3 1988   8.907  11.000   0.754
   63DG      C4 1989   8.937  11.131   0.799
   63DG     C3' 1990   9.437  11.075   0.869
   63DG     H3' 1991   9.513  11.149   0.893
   63DG     C2' 1992   9.318  11.141   0.797
   63DG    H2'1 1993   9.326  11.248   0.817
   63DG    H2'2 1994   9.323  11.137   0.688
   63DG     O3' 1995   9.501  10.976   0.799
   64DC3      P 1996   9.584  10.994   0.666
   64DC3    O1P 1997   9.659  10.868   0.641
   64DC3    O2P 1998   9.652  11.125   0.669
   64DC3    O5' 1999   9.467  10.994   0.553
   64DC3    C5' 2000   9.386  10.878   0.540
   64DC3   H5'1 2001   9.346  10.860   0.639
   64DC3   H5'2 2002   9.452  10.794   0.520
   64DC3    C4' 2003   9.279  10.893   0.429
   64DC3    H4' 2004   9.242  10.795   0.399
   64DC3    O4' 2005   9.178  10.976   0.481
   64DC3    C1' 2006   9.116  11.045   0.374
   64DC3    H1' 2007   9.032  10.992   0.330
   64DC3     N1 2008   9.061  11.174   0.433
   64DC3     C6 2009   9.143  11.273   0.480
   64DC3     H6 2010   9.249  11.258   0.483
   64DC3     C5 2011   9.091  11.384   0.535
   64DC3     H5 2012   9.147  11.462   0.585
   64DC3     C4 2013   8.946  11.397   0.537
   64DC3     N4 2014   8.879  11.504   0.580
   64DC3    H41 2015   8.782  11.518   0.558
   64DC3    H42 2016   8.925  11.572   0.639
   64DC3     N3 2017   8.864  11.308   0.484
   64DC3     C2 2018   8.921  11.196   0.431
   64DC3     O2 2019   8.847  11.125   0.368
   64DC3    C3' 2020   9.328  10.957   0.296
   64DC3    H3' 2021   9.421  11.012   0.309
   64DC3    C2' 2022   9.217  11.065   0.259
   64DC3   H2'1 2023   9.261  11.164   0.264
   64DC3   H2'2 2024   9.159  11.053   0.167
   64DC3    O3' 2025   9.346  10.865   0.192
   64DC3    H3T 2026   9.428  10.814   0.195
   65SOL     OW 2027   5.738   5.887  12.982
   65SOL    HW1 2028   5.820   5.848  12.953
   65SOL    HW2 2029   5.685   5.894  12.903
   66SOL     OW 2030  13.091   1.650  14.775
   66SOL    HW1 2031  13.063   1.741  14.782
   66SOL    HW2 2032  13.041   1.604  14.842
   67SOL     OW 2033  14.449   4.337   9.965
   67SOL    HW1 2034  14.506   4.260   9.961
   67SOL    HW2 2035  14.362   4.304   9.945
   68SOL     OW 2036  14.192   4.614  14.124
   68SOL    HW1 2037  14.163   4.704  14.135
   68SOL    HW2 2038  14.242   4.614  14.042
   69SOL     OW 2039   4.505  11.366  10.333
   69SOL    HW1 2040   4.574  11.424  10.363
   69SOL    HW2 2041   4.439  11.425  10.295
   70SOL     OW 2042  11.213  11.656  13.688
   70SOL    HW1 2043  11.287  11.597  13.674
   70SOL    HW2 2044  11.166  11.656  13.605
   71SOL     OW 2045  14.602   5.347  12.747
   71SOL    HW1 2046  14.672   5.303  12.700
   71SOL    HW2 2047  14.528   5.286  12.745
   72SOL     OW 2048   8.196   8.841   4.371
   72SOL    HW1 2049   8.126   8.907   4.375
   72SOL    HW2 2050   8.231   8.838   4.460
   73SOL     OW 2051   4.348   6.413  10.819
   73SOL    HW1 2052   4.351   6.348  10.889
   73SOL    HW2 2053   4.263   6.456  10.830
   74SOL     OW 2054   8.648  10.333   0.022
   74SOL    HW1 2055   8.566  10.374  14.875
   74SOL    HW2 2056   8.628  10.290   0.105
   75SOL     OW 2057  14.079   1.635   4.525
   75SOL    HW1 2058  14.154   1.618   4.582
   75SOL    HW2 2059  14.015   1.568   4.549
   76SOL     OW 2060   1.260  14.528   4.114
   76SOL    HW1 2061   1.312  14.587   4.169
   76SOL    HW2 2062   1.285  14.440   4.142
   77SOL     OW 2063   2.860  11.052   3.688
   77SOL    HW1 2064   2.924  10.981   3.691
   77SOL    HW2 2065   2.911  11.131   3.705
   78SOL     OW 2066   2.047  14.732  13.243
   78SOL    HW1 2067   2.091  14.656  13.205
   78SOL    HW2 2068   2.097  14.807  13.212
   79SOL     OW 2069   7.945   8.521  12.803
   79SOL    HW1 2070   7.975   8.554  12.718
   79SOL    HW2 2071   7.939   8.598  12.858
   80SOL     OW 2072   3.592   1.047  14.287
   80SOL    HW1 2073   3.681   1.019  14.266
   80SOL    HW2 2074   3.597   1.142  14.291
   81SOL     OW 2075   2.144   7.983   8.419
   81SOL    HW1 2076   2.166   7.969   8.511
   81SOL    HW2 2077   2.102   8.069   8.418
   82SOL     OW 2078   9.704  13.429  13.702
   82SOL    HW1 2079   9.689  13.519  13.731
   82SOL    HW2 2080   9.621  13.384  13.718
   83SOL     OW 2081  13.896   9.869   5.983
   83SOL    HW1 2082  13.836   9.921   6.036
   83SOL    HW2 2083  13.879   9.778   6.010
   84SOL     OW 2084   6.429   9.281   5.967
   84SOL    HW1 2085   6.415   9.267   6.061
   84SOL    HW2 2086   6.517   9.247   5.951
   85SOL     OW 2087   9.476   2.684   3.596
   85SOL    HW1 2088   9.388   2.723   3.606
   85SOL    HW2 2089   9.504   2.711   3.509
   86SOL     OW 2090  13.892  11.436  13.495
   86SOL    HW1 2091  13.881  11.349  13.534
   86SOL    HW2 2092  13.981  11.462  13.518
   87SOL     OW 2093   6.370   6.381   6.293
   87SOL    HW1 2094   6.366   6.448   6.361
   87SOL    HW2 2095   6.385   6.299   6.341
   88SOL     OW 2096   3.855   7.625   2.931
   88SOL    HW1 2097   3.943   7.663   2.940
   88SOL    HW2 2098   3.871   7.536   2.901
   89SOL     OW 2099   5.650  12.605  12.891
   89SOL    HW1 2100   5.651  12.582  12.984
   89SOL    HW2 2101   5.563  12.581  12.860
   90SOL     OW 2102   7.983   8.278   8.244
   90SOL    HW1 2103   7.939   8.335   8.181
   90SOL    HW2 2104   7.933   8.288   8.325
   91SOL     OW 2105  10.543   3.515  14.072
   91SOL    HW1 2106  10.568   3.607  14.060
   91SOL    HW2 2107  10.620   3.465  14.042
   92SOL     OW 2108   3.782  11.443   2.793
   92SOL    HW1 2109   3.819  11.397   2.868
   92SOL    HW2 2110   3.830  11.409   2.718
   93SOL     OW 2111  12.457  10.796   0.143
   93SOL    HW1 2112  12.500  10.792   0.229
   93SOL    HW2 2113  12.519  10.844   0.088
   94SOL     OW 2114  12.992  12.072   7.197
   94SOL    HW1 2115  12.915  12.026   7.229
   94SOL    HW2 2116  13.046  12.085   7.275
   95SOL     OW 2117   9.050   4.652   7.379
   95SOL    HW1 2118   9.042   4.557   7.377
   95SOL    HW2 2119   9.143   4.668   7.363
   96SOL     OW 2120  12.394  12.891   6.030
   96SOL    HW1 2121  12.475  12.910   6.078
   96SOL    HW2 2122  12.374  12.973   5.985
   97SOL     OW 2123   3.026   6.031  13.783
   97SOL    HW1 2124   3.099   6.090  13.764
   97SOL    HW2 2125   3.064   5.943  13.778
   98SOL     OW 2126   4.965   0.489  12.174
   98SOL    HW1 2127   5.058   0.494  12.195
   98SOL    HW2 2128   4.947   0.572  12.129
   99SOL     OW 2129  13.574   7.011  14.873
   99SOL    HW1 2130  13.561   6.926  14.830
   99SOL    HW2 2131  13.523   7.072  14.820
  100SOL     OW 2132   9.942   6.077  14.525
  100SOL    HW1 2133  10.017   6.075  14.586
  100SOL    HW2 2134   9.982   6.073  14.438
  101SOL     OW 2135   9.740  12.643  10.088
  101SOL    HW1 2136   9.824  12.633  10.134
  101SOL    HW2 2137   9.759  12.708  10.020
  102SOL     OW 2138  12.797  11.367   4.247
  102SOL    HW1 2139  12.795  11.288   4.302
  102SOL    HW2 2140  12.706  11.381   4.222
  103SOL     OW 2141   6.701   3.710   7.306
  103SOL    HW1 2142   6.782   3.730   7.259
  103SOL    HW2 2143   6.730   3.693   7.396
  104SOL     OW 2144   2.953   8.328   3.469
  104SOL    HW1 2145   2.988   8.404   3.515
  104SOL    HW2 2146   2.905   8.279   3.536
  105SOL     OW 2147   6.287  14.609   0.112
  105SOL    HW1 2148   6.295  14.695   0.154
  105SOL    HW2 2149   6.377  14.585   0.090
  106SOL     OW 2150   6.413   9.743  11.511
  106SOL    HW1 2151   6.370   9.684  11.450
  106SOL    HW2 2152   6.383   9.714  11.598
  107SOL     OW 2153   0.480   3.306   2.920
  107SOL    HW1 2154   0.396   3.343   2.948
  107SOL    HW2 2155   0.525   3.378   2.876
  108SOL     OW 2156  10.977  13.344   3.988
  108SOL    HW1 2157  10.921  13.395   3.930
  108SOL    HW2 2158  10.940  13.356   4.075
  109SOL     OW 2159   1.001   5.925  14.218
  109SOL    HW1 2160   0.967   5.849  14.171
  109SOL    HW2 2161   1.036   5.982  14.150
  110SOL     OW 2162   7.047   1.250  12.021
  110SOL    HW1 2163   7.082   1.173  11.977
  110SOL    HW2 2164   7.049   1.319  11.954
  111SOL     OW 2165  13.908   9.729   3.726
  111SOL    HW1 2166  13.888   9.670   3.798
  111SOL    HW2 2167  13.823   9.746   3.684
  112SOL     OW 2168  13.102   4.224   5.858
  112SOL    HW1 2169  13.078   4.195   5.945
  112SOL    HW2 2170  13.018   4.242   5.815
  113SOL     OW 2171   3.913  13.610   9.072
  113SOL    HW1 2172   3.887  13.578   8.985
  113SOL    HW2 2173   3.897  13.704   9.069
  114SOL     OW 2174  12.018   5.724   8.272
  114SOL    HW1 2175  11.997   5.700   8.362
  114SOL    HW2 2176  12.072   5.803   8.280
  115SOL     OW 2177   3.358  10.230   7.445
  115SOL    HW1 2178   3.327  10.140   7.444
  115SOL    HW2 2179   3.396  10.241   7.533
  116SOL     OW 2180   4.377   8.483  11.885
  116SOL    HW1 2181   4.408   8.474  11.794
  116SOL    HW2 2182   4.289   8.447  11.883
  117SOL     OW 2183   9.854  11.734  11.132
  117SOL    HW1 2184   9.845  11.641  11.154
  117SOL    HW2 2185   9.776  11.753  11.080
  118SOL     OW 2186   4.621  10.601   5.279
  118SOL    HW1 2187   4.594  10.669   5.340
  118SOL    HW2 2188   4.709  10.628   5.250
  119SOL     OW 2189   1.942   7.913   6.881
  119SOL    HW1 2190   1.885   7.906   6.803
  119SOL    HW2 2191   1.956   8.007   6.892
  120SOL     OW 2192  10.378  11.954   3.213
  120SOL    HW1 2193  10.328  11.942   3.133
  120SOL    HW2 2194  10.436  11.877   3.218
  121SOL     OW 2195  12.422   3.900  11.761
  121SOL    HW1 2196  12.446   3.991  11.742
  121SOL    HW2 2197  12.376   3.904  11.845
  122SOL     OW 2198   4.845   9.358   6.704
  122SOL    HW1 2199   4.898   9.378   6.782
  122SOL    HW2 2200   4.899   9.296   6.655
  123SOL     OW 2201   4.161   4.828  11.717
  123SOL    HW1 2202   4.134   4.823  11.809
  123SOL    HW2 2203   4.209   4.747  11.701
  124SOL     OW 2204   4.285   7.961   5.347
  124SOL    HW1 2205   4.277   8.050   5.382
  124SOL    HW2 2206   4.297   7.973   5.253
  125SOL     OW 2207   4.320   8.888   1.704
  125SOL    HW1 2208   4.343   8.813   1.760
  125SOL    HW2 2209   4.356   8.964   1.749
  126SOL     OW 2210  14.200   0.541   3.124
  126SOL    HW1 2211  14.165   0.483   3.057
  126SOL    HW2 2212  14.246   0.609   3.075
  127SOL     OW 2213   7.548   7.715  14.053
  127SOL    HW1 2214   7.562   7.809  14.050
  127SOL    HW2 2215   7.460   7.704  14.088
  128SOL     OW 2216  13.192   8.431  13.706
  128SOL    HW1 2217  13.255   8.361  13.717
  128SOL    HW2 2218  13.243   8.505  13.673
  129SOL     OW 2219   0.161   8.740  14.672
  129SOL    HW1 2220   0.226   8.673  14.651
  129SOL    HW2 2221   0.198   8.789  14.744
  130SOL     OW 2222   9.701  13.885  14.866
  130SOL    HW1 2223   9.694  13.918   0.076
  130SOL    HW2 2224   9.657  13.951  14.812
  131SOL     OW 2225   7.794  10.123   9.221
  131SOL    HW1 2226   7.710  10.100   9.262
  131SOL    HW2 2227   7.782  10.214   9.194
  132SOL     OW 2228   7.971   3.275   6.692
  132SOL    HW1 2229   7.888   3.321   6.681
  132SOL    HW2 2230   7.962   3.196   6.640
  133SOL     OW 2231  14.481   9.167  11.210
  133SOL    HW1 2232  14.552   9.211  11.162
  133SOL    HW2 2233  14.409   9.230  11.210
  134SOL     OW 2234   4.884   9.769   6.413
  134SOL    HW1 2235   4.823   9.758   6.340
  134SOL    HW2 2236   4.876   9.862   6.436
  135SOL     OW 2237   3.376   3.713  12.941
  135SOL    HW1 2238   3.440   3.683  12.877
  135SOL    HW2 2239   3.375   3.808  12.932
  136SOL     OW 2240  13.154   3.484  14.524
  136SOL    HW1 2241  13.167   3.562  14.577
  136SOL    HW2 2242  13.171   3.512  14.434
  137SOL     OW 2243   9.534   8.757   3.749
  137SOL    HW1 2244   9.582   8.832   3.785
  137SOL    HW2 2245   9.451   8.793   3.720
  138SOL     OW 2246  13.788   6.837  13.173
  138SOL    HW1 2247  13.711   6.893  13.167
  138SOL    HW2 2248  13.855   6.892  13.214
  139SOL     OW 2249  11.151  12.573   1.690
  139SOL    HW1 2250  11.241  12.602   1.704
  139SOL    HW2 2251  11.123  12.619   1.611
  140SOL     OW 2252  10.315   0.079   4.748
  140SOL    HW1 2253  10.342   0.153   4.803
  140SOL    HW2 2254  10.259   0.027   4.805
  141SOL     OW 2255  14.604   1.215   7.292
  141SOL    HW1 2256  14.536   1.203   7.359
  141SOL    HW2 2257  14.663   1.141   7.306
  142SOL     OW 2258   6.079  13.986   1.837
  142SOL    HW1 2259   6.142  13.926   1.877
  142SOL    HW2 2260   6.120  14.072   1.843
  143SOL     OW 2261  10.616  12.886   8.647
  143SOL    HW1 2262  10.669  12.814   8.612
  143SOL    HW2 2263  10.536  12.843   8.678
  144SOL     OW 2264  12.187  13.800  11.339
  144SOL    HW1 2265  12.223  13.725  11.291
  144SOL    HW2 2266  12.260  13.861  11.345
  145SOL     OW 2267  11.701  13.208   2.621
  145SOL    HW1 2268  11.741  13.131   2.660
  145SOL    HW2 2269  11.722  13.201   2.528
  146SOL     OW 2270   4.442   0.025   9.901
  146SOL    HW1 2271   4.519   0.025   9.845
  146SOL    HW2 2272   4.451   0.104   9.954
  147SOL     OW 2273   0.153  13.544   5.405
  147SOL    HW1 2274   0.165  13.551   5.499
  147SOL    HW2 2275   0.229  13.587   5.368
  148SOL     OW 2276  13.688   0.408   2.489
  148SOL    HW1 2277  13.607   0.459   2.493
  148SOL    HW2 2278  13.660   0.317   2.486
  149SOL     OW 2279   8.874   2.888   3.728
  149SOL    HW1 2280   8.888   2.974   3.690
  149SOL    HW2 2281   8.931   2.830   3.678
  150SOL     OW 2282   9.780   0.652   4.842
  150SOL    HW1 2283   9.873   0.670   4.852
  150SOL    HW2 2284   9.749   0.716   4.778
  151SOL     OW 2285   0.487   3.899  12.293
  151SOL    HW1 2286   0.555   3.886  12.359
  151SOL    HW2 2287   0.436   3.818  12.295
  152SOL     OW 2288  13.712  10.691  11.734
  152SOL    HW1 2289  13.715  10.706  11.828
  152SOL    HW2 2290  13.779  10.749  11.698
  153SOL     OW 2291   7.952   1.099  10.611
  153SOL    HW1 2292   7.966   1.115  10.517
  153SOL    HW2 2293   8.024   1.144  10.654
  154SOL     OW 2294  14.272   6.342   1.329
  154SOL    HW1 2295  14.242   6.287   1.257
  154SOL    HW2 2296  14.326   6.284   1.384
  155SOL     OW 2297   3.852   4.032   3.325
  155SOL    HW1 2298   3.939   4.055   3.358
  155SOL    HW2 2299   3.818   3.970   3.390
  156SOL     OW 2300   7.386   5.084   4.769
  156SOL    HW1 2301   7.459   5.132   4.809
  156SOL    HW2 2302   7.359   5.020   4.835
  157SOL     OW 2303   0.527   1.968   5.730
  157SOL    HW1 2304   0.485   1.885   5.751
  157SOL    HW2 2305   0.582   1.987   5.806
  158SOL     OW 2306   3.497   5.821   8.444
  158SOL    HW1 2307   3.410   5.816   8.405
  158SOL    HW2 2308   3.532   5.905   8.413
  159SOL     OW 2309   0.246   6.036   2.434
  159SOL    HW1 2310   0.267   6.108   2.493
  159SOL    HW2 2311   0.159   6.008   2.461
  160SOL     OW 2312  11.476   3.111  11.861
  160SOL    HW1 2313  11.394   3.062  11.848
  160SOL    HW2 2314  11.492   3.104  11.955
  161SOL     OW 2315   1.447   4.835   1.277
  161SOL    HW1 2316   1.391   4.897   1.230
  161SOL    HW2 2317   1.510   4.890   1.323
  162SOL     OW 2318  10.475  13.955  13.569
  162SOL    HW1 2319  10.526  14.023  13.526
  162SOL    HW2 2320  10.494  13.875  13.519
  163SOL     OW 2321   7.649  11.190   9.394
  163SOL    HW1 2322   7.670  11.206   9.302
  163SOL    HW2 2323   7.728  11.149   9.430
  164SOL     OW 2324  14.566   5.894  13.572
  164SOL    HW1 2325  14.499   5.848  13.622
  164SOL    HW2 2326  14.533   5.897  13.483
  165SOL     OW 2327   2.021  10.705   8.882
  165SOL    HW1 2328   1.962  10.769   8.843
  165SOL    HW2 2329   2.058  10.750   8.959
  166SOL     OW 2330   5.448   0.609   9.766
  166SOL    HW1 2331   5.451   0.698   9.800
  166SOL    HW2 2332   5.390   0.562   9.826
  167SOL     OW 2333  12.057   9.528  14.065
  167SOL    HW1 2334  11.997   9.602  14.077
  167SOL    HW2 2335  12.004   9.461  14.022
  168SOL     OW 2336   3.235   8.269   6.272
  168SOL    HW1 2337   3.227   8.364   6.277
  168SOL    HW2 2338   3.197   8.247   6.187
  169SOL     OW 2339  14.535  12.632   9.808
  169SOL    HW1 2340  14.502  12.673   9.727
  169SOL    HW2 2341  14.628  12.657   9.811
  170SOL     OW 2342   8.552   1.260  14.631
  170SOL    HW1 2343   8.466   1.232  14.662
  170SOL    HW2 2344   8.589   1.181  14.591
  171SOL     OW 2345   7.384   4.722   6.763
  171SOL    HW1 2346   7.391   4.695   6.855
  171SOL    HW2 2347   7.439   4.800   6.757
  172SOL     OW 2348   7.060   9.996  14.045
  172SOL    HW1 2349   7.068   9.939  13.968
  172SOL    HW2 2350   7.127  10.063  14.032
  173SOL     OW 2351   2.462  14.615   3.287
  173SOL    HW1 2352   2.371  14.591   3.272
  173SOL    HW2 2353   2.511  14.565   3.221
  174SOL     OW 2354   0.080   6.565  11.312
  174SOL    HW1 2355  14.865   6.565  11.329
  174SOL    HW2 2356   0.097   6.481  11.270
  175SOL     OW 2357   3.237  13.476   0.315
  175SOL    HW1 2358   3.167  13.410   0.312
  175SOL    HW2 2359   3.304  13.438   0.372
  176SOL     OW 2360   3.485   6.844   0.034
  176SOL    HW1 2361   3.488   6.790   0.112
  176SOL    HW2 2362   3.404   6.895   0.043
  177SOL     OW 2363  12.770  12.341   1.720
  177SOL    HW1 2364  12.809  12.262   1.757
  177SOL    HW2 2365  12.684  12.312   1.688
  178SOL     OW 2366  10.423   9.894   2.261
  178SOL    HW1 2367  10.492   9.842   2.220
  178SOL    HW2 2368  10.344   9.874   2.210
  179SOL     OW 2369   3.493   4.379   3.336
  179SOL    HW1 2370   3.548   4.325   3.394
  179SOL    HW2 2371   3.485   4.327   3.256
  180SOL     OW 2372  13.454   6.039  10.463
  180SOL    HW1 2373  13.453   6.094  10.385
  180SOL    HW2 2374  13.365   6.006  10.470
  181SOL     OW 2375   0.917   7.058   0.785
  181SOL    HW1 2376   0.923   7.042   0.691
  181SOL    HW2 2377   0.916   6.971   0.824
  182SOL     OW 2378   7.141  11.997  14.666
  182SOL    HW1 2379   7.140  12.092  14.668
  182SOL    HW2 2380   7.093  11.971  14.746
  183SOL     OW 2381  12.505  12.003  13.396
  183SOL    HW1 2382  12.449  12.055  13.339
  183SOL    HW2 2383  12.581  12.059  13.413
  184SOL     OW 2384   3.798  11.857   1.256
  184SOL    HW1 2385   3.838  11.771   1.273
  184SOL    HW2 2386   3.731  11.866   1.324
  185SOL     OW 2387   4.677   5.121   1.959
  185SOL    HW1 2388   4.746   5.094   2.020
  185SOL    HW2 2389   4.705   5.086   1.875
  186SOL     OW 2390  13.038  13.315  14.200
  186SOL    HW1 2391  13.053  13.221  14.188
  186SOL    HW2 2392  13.125  13.352  14.215
  187SOL     OW 2393  10.406  14.301   7.306
  187SOL    HW1 2394  10.329  14.254   7.339
  187SOL    HW2 2395  10.374  14.389   7.286
  188SOL     OW 2396   7.757  12.346   3.799
  188SOL    HW1 2397   7.760  12.369   3.706
  188SOL    HW2 2398   7.688  12.400   3.835
  189SOL     OW 2399   0.616  12.536   1.145
  189SOL    HW1 2400   0.587  12.625   1.125
  189SOL    HW2 2401   0.538  12.482   1.136
  190SOL     OW 2402  14.483   5.809   8.258
  190SOL    HW1 2403  14.532   5.890   8.267
  190SOL    HW2 2404  14.436   5.800   8.340
  191SOL     OW 2405   2.384   0.746  13.732
  191SOL    HW1 2406   2.298   0.739  13.774
  191SOL    HW2 2407   2.446   0.731  13.804
  192SOL     OW 2408   9.519   9.275   0.307
  192SOL    HW1 2409   9.560   9.361   0.301
  192SOL    HW2 2410   9.576   9.217   0.257
  193SOL     OW 2411   4.513  11.266   0.363
  193SOL    HW1 2412   4.544  11.242   0.276
  193SOL    HW2 2413   4.590  11.298   0.409
  194SOL     OW 2414  14.771   6.408   9.916
  194SOL    HW1 2415  14.791   6.502   9.915
  194SOL    HW2 2416  14.720   6.396   9.996
  195SOL     OW 2417   6.422   5.758   3.138
  195SOL    HW1 2418   6.469   5.713   3.208
  195SOL    HW2 2419   6.330   5.740   3.156
  196SOL     OW 2420   8.503   8.914   7.143
  196SOL    HW1 2421   8.559   8.906   7.220
  196SOL    HW2 2422   8.490   9.008   7.132
  197SOL     OW 2423  11.190  10.907   6.158
  197SOL    HW1 2424  11.233  10.828   6.192
  197SOL    HW2 2425  11.244  10.979   6.189
  198SOL     OW 2426   7.368   3.373   6.324
  198SOL    HW1 2427   7.378   3.312   6.396
  198SOL    HW2 2428   7.313   3.444   6.359
  199SOL     OW 2429  13.038  11.848  10.197
  199SOL    HW1 2430  13.102  11.834  10.266
  199SOL    HW2 2431  13.079  11.811  10.118
  200SOL     OW 2432  10.763   2.644   5.508
  200SOL    HW1 2433  10.814   2.724   5.522
  200SOL    HW2 2434  10.808   2.600   5.436
  201SOL     OW 2435   7.712  14.738   7.215
  201SOL    HW1 2436   7.681  14.736   7.124
  201SOL    HW2 2437   7.744  14.828   7.227
  202SOL     OW 2438   4.724   4.578   4.155
  202SOL    HW1 2439   4.803   4.601   4.107
  202SOL    HW2 2440   4.658   4.562   4.087
  203SOL     OW 2441   5.429   5.815  14.235
  203SOL    HW1 2442   5.447   5.736  14.286
  203SOL    HW2 2443   5.496   5.815  14.166
  204SOL     OW 2444   6.710   8.750  10.400
  204SOL    HW1 2445   6.655   8.798  10.338
  204SOL    HW2 2446   6.794   8.794  10.397
  205SOL     OW 2447   2.792   8.333   7.787
  205SOL    HW1 2448   2.724   8.304   7.848
  205SOL    HW2 2449   2.867   8.278   7.807
  206SOL     OW 2450   9.002   7.195   1.341
  206SOL    HW1 2451   8.972   7.105   1.357
  206SOL    HW2 2452   8.925   7.249   1.358
  207SOL     OW 2453   5.860   3.458   7.434
  207SOL    HW1 2454   5.787   3.405   7.464
  207SOL    HW2 2455   5.854   3.539   7.485
  208SOL     OW 2456  14.680   3.666   3.491
  208SOL    HW1 2457  14.768   3.698   3.510
  208SOL    HW2 2458  14.634   3.741   3.452
  209SOL     OW 2459  12.327  13.617  11.199
  209SOL    HW1 2460  12.412  13.661  11.200
  209SOL    HW2 2461  12.343  13.535  11.245
  210SOL     OW 2462  11.015   1.392  11.334
  210SOL    HW1 2463  11.066   1.472  11.317
  210SOL    HW2 2464  10.932   1.407  11.289
  211SOL     OW 2465   2.045   0.543   4.210
  211SOL    HW1 2466   2.123   0.548   4.155
  211SOL    HW2 2467   1.972   0.543   4.148
  212SOL     OW 2468  13.608   8.574  14.313
  212SOL    HW1 2469  13.531   8.588  14.369
  212SOL    HW2 2470  13.646   8.661  14.303
  213SOL     OW 2471  10.815   9.472   9.417
  213SOL    HW1 2472  10.851   9.456   9.504
  213SOL    HW2 2473  10.892   9.474   9.360
  214SOL     OW 2474  10.125   4.885   1.649
  214SOL    HW1 2475  10.162   4.815   1.703
  214SOL    HW2 2476  10.197   4.948   1.639
  215SOL     OW 2477  10.358  12.801   8.717
  215SOL    HW1 2478  10.268  12.829   8.699
  215SOL    HW2 2479  10.348  12.729   8.780
  216SOL     OW 2480  10.624   8.386   7.593
  216SOL    HW1 2481  10.610   8.431   7.510
  216SOL    HW2 2482  10.595   8.296   7.577
  217SOL     OW 2483   1.368   1.858   1.123
  217SOL    HW1 2484   1.379   1.886   1.214
  217SOL    HW2 2485   1.423   1.780   1.116
  218SOL     OW 2486   3.680   7.579   1.179
  218SOL    HW1 2487   3.719   7.545   1.259
  218SOL    HW2 2488   3.671   7.503   1.122
  219SOL     OW 2489   7.769   1.800  14.199
  219SOL    HW1 2490   7.678   1.804  14.169
  219SOL    HW2 2491   7.780   1.878  14.253
  220SOL     OW 2492   5.284   7.625   0.858
  220SOL    HW1 2493   5.299   7.532   0.871
  220SOL    HW2 2494   5.360   7.668   0.896
  221SOL     OW 2495   0.168  13.959  10.276
  221SOL    HW1 2496   0.172  13.867  10.248
  221SOL    HW2 2497   0.081  13.989  10.248
  222SOL     OW 2498   4.819   7.668   4.904
  222SOL    HW1 2499   4.810   7.583   4.860
  222SOL    HW2 2500   4.907   7.666   4.942
  223SOL     OW 2501   0.982  11.583  12.982
  223SOL    HW1 2502   1.058  11.616  13.030
  223SOL    HW2 2503   1.012  11.502  12.941
  224SOL     OW 2504  10.386  12.027   8.906
  224SOL    HW1 2505  10.401  12.087   8.979
  224SOL    HW2 2506  10.308  12.061   8.862
  225SOL     OW 2507  10.113   7.637   6.182
  225SOL    HW1 2508  10.029   7.682   6.179
  225SOL    HW2 2509  10.093   7.553   6.225
  226SOL     OW 2510   1.997   5.114   4.097
  226SOL    HW1 2511   2.015   5.052   4.168
  226SOL    HW2 2512   1.984   5.058   4.020
  227SOL     OW 2513  12.541   8.897   6.600
  227SOL    HW1 2514  12.540   8.837   6.525
  227SOL    HW2 2515  12.609   8.863   6.657
  228SOL     OW 2516  14.456   2.817  10.569
  228SOL    HW1 2517  14.551   2.822  10.574
  228SOL    HW2 2518  14.438   2.785  10.480
  229SOL     OW 2519   4.671   3.083   3.980
  229SOL    HW1 2520   4.713   3.113   3.900
  229SOL    HW2 2521   4.583   3.122   3.978
  230SOL     OW 2522   8.273   0.780   5.148
  230SOL    HW1 2523   8.242   0.699   5.107
  230SOL    HW2 2524   8.361   0.793   5.114
  231SOL     OW 2525   6.412   0.184   7.146
  231SOL    HW1 2526   6.460   0.261   7.116
  231SOL    HW2 2527   6.457   0.158   7.227
  232SOL     OW 2528   2.820  12.620   9.513
  232SOL    HW1 2529   2.807  12.710   9.542
  232SOL    HW2 2530   2.915  12.608   9.517
  233SOL     OW 2531   3.275   5.936   9.297
  233SOL    HW1 2532   3.280   5.998   9.224
  233SOL    HW2 2533   3.192   5.891   9.284
  234SOL     OW 2534   4.349   4.643  13.989
  234SOL    HW1 2535   4.356   4.727  14.035
  234SOL    HW2 2536   4.340   4.666  13.897
  235SOL     OW 2537   9.118   4.031   7.565
  235SOL    HW1 2538   9.126   4.083   7.485
  235SOL    HW2 2539   9.199   3.979   7.567
  236SOL     OW 2540   5.471   9.267   6.316
  236SOL    HW1 2541   5.561   9.292   6.295
  236SOL    HW2 2542   5.469   9.172   6.304
  237SOL     OW 2543  12.501  11.245   4.587
  237SOL    HW1 2544  12.457  11.161   4.597
  237SOL    HW2 2545  12.430  11.309   4.583
  238SOL     OW 2546  12.873   3.080  13.819
  238SOL    HW1 2547  12.922   3.159  13.840
  238SOL    HW2 2548  12.792   3.112  13.780
  239SOL     OW 2549  10.075   4.129   1.157
  239SOL    HW1 2550  10.128   4.196   1.200
  239SOL    HW2 2551  10.000   4.178   1.122
  240SOL     OW 2552  12.394   9.872   9.333
  240SOL    HW1 2553  12.359   9.787   9.305
  240SOL    HW2 2554  12.449   9.851   9.408
  241SOL     OW 2555   8.952   1.117   4.571
  241SOL    HW1 2556   9.033   1.160   4.601
  241SOL    HW2 2557   8.964   1.025   4.593
  242SOL     OW 2558   9.075   6.685   3.107
  242SOL    HW1 2559   9.067   6.680   3.203
  242SOL    HW2 2560   9.159   6.643   3.088
  243SOL     OW 2561   0.729  10.057   8.972
  243SOL    HW1 2562   0.729  10.058   9.067
  243SOL    HW2 2563   0.643  10.019   8.949
  244SOL     OW 2564   6.459   5.399  14.286
  244SOL    HW1 2565   6.483   5.416  14.377
  244SOL    HW2 2566   6.373   5.357  14.292
  245SOL     OW 2567  10.263  11.159   6.649
  245SOL    HW1 2568  10.262  11.252   6.631
  245SOL    HW2 2569  10.207  11.149   6.727
  246SOL     OW 2570  10.491   7.857   9.697
  246SOL    HW1 2571  10.497   7.939   9.747
  246SOL    HW2 2572  10.511   7.882   9.607
  247SOL     OW 2573   4.709   8.559   8.179
  247SOL    HW1 2574   4.684   8.644   8.215
  247SOL    HW2 2575   4.804   8.563   8.173
  248SOL     OW 2576  13.471   5.373   0.744
  248SOL    HW1 2577  13.529   5.318   0.796
  248SOL    HW2 2578  13.389   5.324   0.738
  249SOL     OW 2579   0.837   7.571   8.550
  249SOL    HW1 2580   0.902   7.621   8.600
  249SOL    HW2 2581   0.809   7.502   8.609
  250SOL     OW 2582   5.225   5.474   4.153
  250SOL    HW1 2583   5.158   5.539   4.175
  250SOL    HW2 2584   5.177   5.393   4.143
  251SOL     OW 2585   5.201  13.063   3.463
  251SOL    HW1 2586   5.131  13.028   3.408
  251SOL    HW2 2587   5.164  13.063   3.551
  252SOL     OW 2588  11.723   6.348   6.750
  252SOL    HW1 2589  11.733   6.270   6.696
  252SOL    HW2 2590  11.675   6.410   6.695
  253SOL     OW 2591  11.770   9.239  12.715
  253SOL    HW1 2592  11.763   9.146  12.737
  253SOL    HW2 2593  11.703   9.253  12.648
  254SOL     OW 2594   4.700  14.135   9.893
  254SOL    HW1 2595   4.669  14.112   9.980
  254SOL    HW2 2596   4.782  14.183   9.908
  255SOL     OW 2597   3.350  10.289  11.111
  255SOL    HW1 2598   3.265  10.296  11.067
  255SOL    HW2 2599   3.391  10.374  11.098
  256SOL     OW 2600   4.740  11.807   4.416
  256SOL    HW1 2601   4.674  11.744   4.385
  256SOL    HW2 2602   4.716  11.890   4.374
  257SOL     OW 2603  10.310  10.084  13.859
  257SOL    HW1 2604  10.325  10.062  13.767
  257SOL    HW2 2605  10.398  10.096  13.895
  258SOL     OW 2606  10.312   9.898   9.693
  258SOL    HW1 2607  10.391   9.952   9.685
  258SOL    HW2 2608  10.345   9.809   9.706
  259SOL     OW 2609   3.189   6.635   7.913
  259SOL    HW1 2610   3.253   6.671   7.852
  259SOL    HW2 2611   3.148   6.711   7.954
  260SOL     OW 2612   5.295   5.193   0.870
  260SOL    HW1 2613   5.262   5.282   0.883
  260SOL    HW2 2614   5.229   5.151   0.814
  261SOL     OW 2615   5.284  13.555  13.088
  261SOL    HW1 2616   5.315  13.464  13.093
  261SOL    HW2 2617   5.220  13.562  13.159
  262SOL     OW 2618   0.905   1.291  10.775
  262SOL    HW1 2619   0.957   1.244  10.840
  262SOL    HW2 2620   0.833   1.232  10.753
  263SOL     OW 2621   8.466   8.112   0.269
  263SOL    HW1 2622   8.547   8.067   0.295
  263SOL    HW2 2623   8.472   8.119   0.174
  264SOL     OW 2624   8.741   0.922  11.154
  264SOL    HW1 2625   8.778   0.834  11.150
  264SOL    HW2 2626   8.802   0.976  11.103
  265SOL     OW 2627  13.904  11.682   2.095
  265SOL    HW1 2628  13.972  11.637   2.045
  265SOL    HW2 2629  13.951  11.719   2.170
  266SOL     OW 2630   7.856  11.703   0.511
  266SOL    HW1 2631   7.837  11.678   0.421
  266SOL    HW2 2632   7.808  11.640   0.564
  267SOL     OW 2633   5.109   3.915  12.709
  267SOL    HW1 2634   5.173   3.846  12.694
  267SOL    HW2 2635   5.085   3.906  12.802
  268SOL     OW 2636  10.150  12.092   8.821
  268SOL    HW1 2637  10.137  12.049   8.737
  268SOL    HW2 2638  10.111  12.179   8.810
  269SOL     OW 2639  12.600   4.421   7.843
  269SOL    HW1 2640  12.536   4.375   7.789
  269SOL    HW2 2641  12.567   4.511   7.848
  270SOL     OW 2642   2.629  12.536   8.691
  270SOL    HW1 2643   2.617  12.460   8.748
  270SOL    HW2 2644   2.712  12.518   8.645
  271SOL     OW 2645   8.729   8.643   7.871
  271SOL    HW1 2646   8.648   8.693   7.883
  271SOL    HW2 2647   8.700   8.557   7.840
  272SOL     OW 2648   8.786  11.233   8.552
  272SOL    HW1 2649   8.792  11.193   8.466
  272SOL    HW2 2650   8.788  11.328   8.535
  273SOL     OW 2651  13.278   7.513   3.956
  273SOL    HW1 2652  13.240   7.426   3.949
  273SOL    HW2 2653  13.208   7.568   3.991
  274SOL     OW 2654  14.722   9.155   1.136
  274SOL    HW1 2655  14.655   9.222   1.146
  274SOL    HW2 2656  14.749   9.162   1.044
  275SOL     OW 2657  10.097   6.936   1.316
  275SOL    HW1 2658  10.032   6.896   1.257
  275SOL    HW2 2659  10.065   6.917   1.404
  276SOL     OW 2660   0.337   5.527   4.258
  276SOL    HW1 2661   0.368   5.571   4.337
  276SOL    HW2 2662   0.244   5.551   4.252
  277SOL     OW 2663   0.959  13.081  14.674
  277SOL    HW1 2664   0.923  13.154  14.624
  277SOL    HW2 2665   0.938  13.004  14.622
  278SOL     OW 2666  14.507   9.196  14.288
  278SOL    HW1 2667  14.586   9.153  14.322
  278SOL    HW2 2668  14.500   9.277  14.340
  279SOL     OW 2669   6.260   3.748  12.407
  279SOL    HW1 2670   6.321   3.719  12.475
  279SOL    HW2 2671   6.209   3.818  12.449
  280SOL     OW 2672   7.746   3.311   8.840
  280SOL    HW1 2673   7.742   3.345   8.929
  280SOL    HW2 2674   7.838   3.317   8.816
  281SOL     OW 2675   4.620   2.847  13.073
  281SOL    HW1 2676   4.630   2.877  13.163
  281SOL    HW2 2677   4.639   2.753  13.076
  282SOL     OW 2678   4.405  14.296   1.639
  282SOL    HW1 2679   4.383  14.347   1.561
  282SOL    HW2 2680   4.482  14.246   1.613
  283SOL     OW 2681   1.075   5.132  14.103
  283SOL    HW1 2682   1.007   5.136  14.171
  283SOL    HW2 2683   1.123   5.214  14.112
  284SOL     OW 2684  11.731   2.473   8.979
  284SOL    HW1 2685  11.714   2.400   8.920
  284SOL    HW2 2686  11.744   2.432   9.064
  285SOL     OW 2687  13.949  11.390   3.504
  285SOL    HW1 2688  13.935  11.323   3.438
  285SOL    HW2 2689  13.930  11.346   3.587
  286SOL     OW 2690  12.071   1.745   2.936
  286SOL    HW1 2691  12.074   1.698   2.853
  286SOL    HW2 2692  12.132   1.698   2.993
  287SOL     OW 2693   9.903   8.625   4.296
  287SOL    HW1 2694   9.810   8.631   4.275
  287SOL    HW2 2695   9.934   8.549   4.247
  288SOL     OW 2696   2.680  13.729   9.844
  288SOL    HW1 2697   2.714  13.745   9.932
  288SOL    HW2 2698   2.597  13.684   9.858
  289SOL     OW 2699   7.526   6.868   6.426
  289SOL    HW1 2700   7.587   6.925   6.474
  289SOL    HW2 2701   7.555   6.779   6.446
  290SOL     OW 2702   1.475   3.092   4.085
  290SOL    HW1 2703   1.464   3.033   4.160
  290SOL    HW2 2704   1.418   3.055   4.017
  291SOL     OW 2705   6.009   3.438   5.424
  291SOL    HW1 2706   6.072   3.369   5.404
  291SOL    HW2 2707   5.927   3.407   5.388
  292SOL     OW 2708   6.043   7.181   2.292
  292SOL    HW1 2709   6.129   7.217   2.270
  292SOL    HW2 2710   6.062   7.095   2.329
  293SOL     OW 2711   1.688   5.817  14.719
  293SOL    HW1 2712   1.675   5.867  14.800
  293SOL    HW2 2713   1.768   5.854  14.681
  294SOL     OW 2714  12.414   8.241   0.415
  294SOL    HW1 2715  12.429   8.310   0.350
  294SOL    HW2 2716  12.500   8.227   0.455
  295SOL     OW 2717  11.697   2.886   5.909
  295SOL    HW1 2718  11.645   2.810   5.933
  295SOL    HW2 2719  11.785   2.866   5.939
  296SOL     OW 2720   1.358   7.506   4.531
  296SOL    HW1 2721   1.272   7.477   4.562
  296SOL    HW2 2722   1.420   7.442   4.565
  297SOL     OW 2723  11.382   6.549  11.829
  297SOL    HW1 2724  11.454   6.488  11.812
  297SOL    HW2 2725  11.410   6.631  11.789
  298SOL     OW 2726   2.627  11.305  12.260
  298SOL    HW1 2727   2.643  11.327  12.352
  298SOL    HW2 2728   2.692  11.238  12.239
  299SOL     OW 2729  13.091  10.972  13.801
  299SOL    HW1 2730  13.038  10.959  13.880
  299SOL    HW2 2731  13.043  10.927  13.732
  300SOL     OW 2732   7.640   5.771  13.542
  300SOL    HW1 2733   7.726   5.784  13.582
  300SOL    HW2 2734   7.619   5.857  13.505
  301SOL     OW 2735   7.873  13.489  11.659
  301SOL    HW1 2736   7.967  13.485  11.643
  301SOL    HW2 2737   7.833  13.461  11.577
  302SOL     OW 2738   1.982   4.287   6.190
  302SOL    HW1 2739   1.943   4.200   6.196
  302SOL    HW2 2740   1.959   4.318   6.102
  303SOL     OW 2741   1.720  10.740  14.566
  303SOL    HW1 2742   1.795  10.800  14.563
  303SOL    HW2 2743   1.756  10.655  14.539
  304SOL     OW 2744  10.506   3.805   2.950
  304SOL    HW1 2745  10.422   3.779   2.989
  304SOL    HW2 2746  10.572   3.764   3.006
  305SOL     OW 2747   6.630  12.336   4.785
  305SOL    HW1 2748   6.618  12.414   4.729
  305SOL    HW2 2749   6.561  12.276   4.756
  306SOL     OW 2750  13.200   8.331   5.037
  306SOL    HW1 2751  13.230   8.407   4.987
  306SOL    HW2 2752  13.279   8.295   5.077
  307SOL     OW 2753   8.495   4.430  12.953
  307SOL    HW1 2754   8.534   4.510  12.988
  307SOL    HW2 2755   8.431   4.403  13.019
  308SOL     OW 2756  12.888  14.238   1.673
  308SOL    HW1 2757  12.875  14.186   1.752
  308SOL    HW2 2758  12.908  14.326   1.706
  309SOL     OW 2759   3.454  14.613   1.564
  309SOL    HW1 2760   3.452  14.709   1.557
  309SOL    HW2 2761   3.540  14.588   1.530
  310SOL     OW 2762   1.156   0.073   1.417
  310SOL    HW1 2763   1.216   0.011   1.376
  310SOL    HW2 2764   1.153   0.147   1.356
  311SOL     OW 2765   3.164   4.022   3.113
  311SOL    HW1 2766   3.190   4.103   3.070
  311SOL    HW2 2767   3.199   3.952   3.057
  312SOL     OW 2768  12.819   7.835  10.865
  312SOL    HW1 2769  12.860   7.874  10.788
  312SOL    HW2 2770  12.849   7.889  10.939
  313SOL     OW 2771   2.557   3.675   2.756
  313SOL    HW1 2772   2.531   3.663   2.847
  313SOL    HW2 2773   2.599   3.761   2.754
  314SOL     OW 2774   5.037  10.499   7.880
  314SOL    HW1 2775   4.947  10.532   7.882
  314SOL    HW2 2776   5.080  10.552   7.814
  315SOL     OW 2777  10.585   8.442   7.306
  315SOL    HW1 2778  10.617   8.508   7.244
  315SOL    HW2 2779  10.493   8.431   7.283
  316SOL     OW 2780   8.702   8.703   8.405
  316SOL    HW1 2781   8.706   8.731   8.496
  316SOL    HW2 2782   8.745   8.617   8.404
  317SOL     OW 2783   5.970  11.765   3.681
  317SOL    HW1 2784   6.020  11.718   3.614
  317SOL    HW2 2785   5.894  11.709   3.697
  318SOL     OW 2786   5.740   0.404  10.521
  318SOL    HW1 2787   5.758   0.487  10.476
  318SOL    HW2 2788   5.743   0.338  10.452
  319SOL     OW 2789   0.566   7.288  14.011
  319SOL    HW1 2790   0.641   7.239  14.044
  319SOL    HW2 2791   0.594   7.379  14.014
  320SOL     OW 2792  11.267   8.509   1.592
  320SOL    HW1 2793  11.196   8.555   1.547
  320SOL    HW2 2794  11.230   8.483   1.676
  321SOL     OW 2795  11.408  13.447   4.757
  321SOL    HW1 2796  11.361  13.477   4.679
  321SOL    HW2 2797  11.343  13.396   4.805
  322SOL     OW 2798  12.717   3.835   2.002
  322SOL    HW1 2799  12.676   3.774   2.063
  322SOL    HW2 2800  12.799   3.792   1.977
  323SOL     OW 2801   1.775   2.430   3.174
  323SOL    HW1 2802   1.825   2.352   3.151
  323SOL    HW2 2803   1.719   2.401   3.246
  324SOL     OW 2804  12.054   0.067   8.835
  324SOL    HW1 2805  12.107   0.068   8.756
  324SOL    HW2 2806  11.988  14.878   8.820
  325SOL     OW 2807   0.544   5.355   9.243
  325SOL    HW1 2808   0.629   5.375   9.284
  325SOL    HW2 2809   0.504   5.441   9.228
  326SOL     OW 2810   2.774   9.358   7.159
  326SOL    HW1 2811   2.728   9.383   7.079
  326SOL    HW2 2812   2.715   9.382   7.230
  327SOL     OW 2813   1.691   5.265  10.491
  327SOL    HW1 2814   1.775   5.291  10.529
  327SOL    HW2 2815   1.655   5.346  10.455
  328SOL     OW 2816   8.165   6.470   6.472
  328SOL    HW1 2817   8.166   6.416   6.392
  328SOL    HW2 2818   8.184   6.558   6.441
  329SOL     OW 2819  10.234   4.687   7.317
  329SOL    HW1 2820  10.325   4.701   7.344
  329SOL    HW2 2821  10.197   4.775   7.312
  330SOL     OW 2822   9.862  13.257   0.991
  330SOL    HW1 2823   9.891  13.191   0.928
  330SOL    HW2 2824   9.916  13.334   0.972
  331SOL     OW 2825   7.407   2.006   3.774
  331SOL    HW1 2826   7.437   2.037   3.689
  331SOL    HW2 2827   7.324   2.052   3.788
  332SOL     OW 2828  13.319  12.265   6.559
  332SOL    HW1 2829  13.319  12.235   6.649
  332SOL    HW2 2830  13.260  12.340   6.558
  333SOL     OW 2831  11.746  11.845   7.311
  333SOL    HW1 2832  11.724  11.938   7.312
  333SOL    HW2 2833  11.764  11.824   7.403
  334SOL     OW 2834   2.300   9.992   9.868
  334SOL    HW1 2835   2.384  10.013   9.829
  334SOL    HW2 2836   2.308  10.021   9.959
  335SOL     OW 2837   5.037   2.382  13.915
  335SOL    HW1 2838   4.985   2.446  13.867
  335SOL    HW2 2839   4.979   2.348  13.983
  336SOL     OW 2840   2.239   1.290  10.758
  336SOL    HW1 2841   2.290   1.323  10.831
  336SOL    HW2 2842   2.184   1.364  10.732
  337SOL     OW 2843  14.144  11.311   0.876
  337SOL    HW1 2844  14.129  11.220   0.852
  337SOL    HW2 2845  14.060  11.354   0.865
  338SOL     OW 2846  14.286  13.604   5.028
  338SOL    HW1 2847  14.315  13.641   5.112
  338SOL    HW2 2848  14.229  13.672   4.991
  339SOL     OW 2849   5.817   3.404   5.212
  339SOL    HW1 2850   5.854   3.438   5.131
  339SOL    HW2 2851   5.726   3.433   5.210
  340SOL     OW 2852  12.008   3.581   2.022
  340SOL    HW1 2853  12.077   3.535   2.071
  340SOL    HW2 2854  11.928   3.532   2.041
  341SOL     OW 2855   9.000   1.940   6.520
  341SOL    HW1 2856   8.923   1.981   6.483
  341SOL    HW2 2857   9.032   1.881   6.452
  342SOL     OW 2858   4.450   4.881   5.106
  342SOL    HW1 2859   4.539   4.897   5.139
  342SOL    HW2 2860   4.409   4.967   5.104
  343SOL     OW 2861  14.877   3.212  10.638
  343SOL    HW1 2862  14.858   3.241  10.549
  343SOL    HW2 2863  14.797   3.232  10.687
  344SOL     OW 2864   7.658   8.072   7.607
  344SOL    HW1 2865   7.624   8.071   7.697
  344SOL    HW2 2866   7.580   8.059   7.553
  345SOL     OW 2867  11.772   8.666   0.131
  345SOL    HW1 2868  11.704   8.719   0.172
  345SOL    HW2 2869  11.729   8.625   0.057
  346SOL     OW 2870   6.725  12.095   9.543
  346SOL    HW1 2871   6.744  12.100   9.450
  346SOL    HW2 2872   6.677  12.175   9.562
  347SOL     OW 2873   5.360  14.118   6.614
  347SOL    HW1 2874   5.366  14.142   6.706
  347SOL    HW2 2875   5.350  14.023   6.615
  348SOL     OW 2876   9.379   6.910   4.258
  348SOL    HW1 2877   9.375   6.982   4.196
  348SOL    HW2 2878   9.420   6.838   4.209
  349SOL     OW 2879  14.614   0.608   0.041
  349SOL    HW1 2880  14.610   0.598  14.825
  349SOL    HW2 2881  14.705   0.587   0.064
  350SOL     OW 2882  14.485  14.172   2.932
  350SOL    HW1 2883  14.577  14.180   2.906
  350SOL    HW2 2884  14.473  14.078   2.949
  351SOL     OW 2885   3.646  10.467  10.494
  351SOL    HW1 2886   3.636  10.381  10.454
  351SOL    HW2 2887   3.558  10.504  10.494
  352SOL     OW 2888   6.890   7.529   1.897
  352SOL    HW1 2889   6.795   7.532   1.881
  352SOL    HW2 2890   6.902   7.456   1.958
  353SOL     OW 2891   3.773  10.030  12.338
  353SOL    HW1 2892   3.740  10.109  12.294
  353SOL    HW2 2893   3.798  10.061  12.425
  354SOL     OW 2894   1.895   2.269  10.443
  354SOL    HW1 2895   1.986   2.287  10.418
  354SOL    HW2 2896   1.843   2.321  10.382
  355SOL     OW 2897   7.648   5.247   0.621
  355SOL    HW1 2898   7.627   5.298   0.699
  355SOL    HW2 2899   7.581   5.271   0.558
  356SOL     OW 2900   2.661  12.466  13.984
  356SOL    HW1 2901   2.749  12.429  13.982
  356SOL    HW2 2902   2.674  12.560  13.998
  357SOL     OW 2903   4.902   4.910   8.229
  357SOL    HW1 2904   4.832   4.856   8.194
  357SOL    HW2 2905   4.857   4.981   8.274
  358SOL     OW 2906   7.033   1.422   2.429
  358SOL    HW1 2907   7.075   1.367   2.495
  358SOL    HW2 2908   6.952   1.452   2.471
  359SOL     OW 2909   1.544   3.321   8.727
  359SOL    HW1 2910   1.593   3.238   8.725
  359SOL    HW2 2911   1.452   3.295   8.723
  360SOL     OW 2912   5.252   0.561  11.267
  360SOL    HW1 2913   5.236   0.485  11.324
  360SOL    HW2 2914   5.206   0.540  11.186
  361SOL     OW 2915  10.742  13.701   9.450
  361SOL    HW1 2916  10.708  13.789   9.466
  361SOL    HW2 2917  10.825  13.698   9.498
  362SOL     OW 2918   1.673   0.518   1.354
  362SOL    HW1 2919   1.620   0.438   1.361
  362SOL    HW2 2920   1.643   0.572   1.427
  363SOL     OW 2921  13.497  11.381   6.276
  363SOL    HW1 2922  13.405  11.405   6.269
  363SOL    HW2 2923  13.544  11.465   6.279
  364SOL     OW 2924   1.695   0.320   0.292
  364SOL    HW1 2925   1.625   0.302   0.229
  364SOL    HW2 2926   1.650   0.342   0.373
  365SOL     OW 2927   2.017   4.868   3.929
  365SOL    HW1 2928   1.977   4.882   3.843
  365SOL    HW2 2929   2.104   4.833   3.910
  366SOL     OW 2930   7.435  12.863   2.124
  366SOL    HW1 2931   7.344  12.839   2.144
  366SOL    HW2 2932   7.449  12.834   2.034
  367SOL     OW 2933   3.305   4.990   8.125
  367SOL    HW1 2934   3.314   4.909   8.075
  367SOL    HW2 2935   3.281   5.056   8.059
  368SOL     OW 2936   4.902  13.059   0.587
  368SOL    HW1 2937   4.809  13.083   0.586
  368SOL    HW2 2938   4.919  13.035   0.678
  369SOL     OW 2939   9.263   8.573  13.384
  369SOL    HW1 2940   9.179   8.617  13.367
  369SOL    HW2 2941   9.241   8.502  13.444
  370SOL     OW 2942   2.771   7.884   0.993
  370SOL    HW1 2943   2.729   7.860   1.076
  370SOL    HW2 2944   2.704   7.868   0.926
  371SOL     OW 2945   6.804   3.387  14.742
  371SOL    HW1 2946   6.874   3.416  14.800
  371SOL    HW2 2947   6.732   3.448  14.759
  372SOL     OW 2948   4.424   8.577   6.299
  372SOL    HW1 2949   4.436   8.541   6.388
  372SOL    HW2 2950   4.512   8.600   6.271
  373SOL     OW 2951   8.567  12.831   8.896
  373SOL    HW1 2952   8.660  12.834   8.871
  373SOL    HW2 2953   8.520  12.838   8.813
  374SOL     OW 2954  10.595   3.668  10.985
  374SOL    HW1 2955  10.668   3.720  10.952
  374SOL    HW2 2956  10.576   3.605  10.916
  375SOL     OW 2957  13.393   0.456   2.189
  375SOL    HW1 2958  13.362   0.429   2.103
  375SOL    HW2 2959  13.314   0.479   2.238
  376SOL     OW 2960   2.849  10.623   7.929
  376SOL    HW1 2961   2.796  10.546   7.910
  376SOL    HW2 2962   2.826  10.647   8.019
  377SOL     OW 2963  12.547   4.854   5.288
  377SOL    HW1 2964  12.577   4.766   5.264
  377SOL    HW2 2965  12.504   4.887   5.209
  378SOL     OW 2966   7.127   8.525   3.870
  378SOL    HW1 2967   7.038   8.502   3.898
  378SOL    HW2 2968   7.147   8.463   3.800
  379SOL     OW 2969   7.811  13.367   0.579
  379SOL    HW1 2970   7.784  13.373   0.671
  379SOL    HW2 2971   7.869  13.442   0.566
  380SOL     OW 2972   7.313   8.986   4.878
  380SOL    HW1 2973   7.359   8.917   4.925
  380SOL    HW2 2974   7.348   8.981   4.789
  381SOL     OW 2975   2.312   9.636   5.674
  381SOL    HW1 2976   2.223   9.671   5.673
  381SOL    HW2 2977   2.364   9.700   5.626
  382SOL     OW 2978   4.964   4.844   6.634
  382SOL    HW1 2979   4.991   4.929   6.671
  382SOL    HW2 2980   5.008   4.840   6.549
  383SOL     OW 2981   2.706   4.989   5.989
  383SOL    HW1 2982   2.738   4.926   5.923
  383SOL    HW2 2983   2.785   5.029   6.024
  384SOL     OW 2984   9.609   7.222   0.829
  384SOL    HW1 2985   9.587   7.150   0.888
  384SOL    HW2 2986   9.626   7.296   0.887
  385SOL     OW 2987   0.591   4.564   3.619
  385SOL    HW1 2988   0.601   4.533   3.709
  385SOL    HW2 2989   0.676   4.547   3.578
  386SOL     OW 2990   9.312  10.696  12.306
  386SOL    HW1 2991   9.269  10.658  12.382
  386SOL    HW2 2992   9.362  10.623  12.268
  387SOL     OW 2993   2.608   8.194   7.966
  387SOL    HW1 2994   2.560   8.239   8.036
  387SOL    HW2 2995   2.556   8.116   7.948
  388SOL     OW 2996   4.953   6.669   9.906
  388SOL    HW1 2997   5.025   6.658   9.844
  388SOL    HW2 2998   4.976   6.611   9.979
  389SOL     OW 2999   6.645   7.063   7.531
  389SOL    HW1 3000   6.624   7.073   7.624
  389SOL    HW2 3001   6.566   7.090   7.485
  390SOL     OW 3002  12.312   2.692  12.803
  390SOL    HW1 3003  12.394   2.716  12.846
  390SOL    HW2 3004  12.323   2.722  12.713
  391SOL     OW 3005   6.315   6.457  10.636
  391SOL    HW1 3006   6.223   6.448  10.662
  391SOL    HW2 3007   6.363   6.406  10.702
  392SOL     OW 3008  12.454  12.056   8.566
  392SOL    HW1 3009  12.458  12.104   8.649
  392SOL    HW2 3010  12.451  12.124   8.499
  393SOL     OW 3011   2.492   2.573   2.209
  393SOL    HW1 3012   2.505   2.626   2.288
  393SOL    HW2 3013   2.512   2.632   2.137
  394SOL     OW 3014  13.878   6.660   3.066
  394SOL    HW1 3015  13.871   6.621   3.153
  394SOL    HW2 3016  13.934   6.600   3.017
  395SOL     OW 3017   7.039   4.764  13.247
  395SOL    HW1 3018   7.131   4.762  13.270
  395SOL    HW2 3019   7.037   4.796  13.157
  396SOL     OW 3020  10.883  12.762   6.833
  396SOL    HW1 3021  10.867  12.695   6.899
  396SOL    HW2 3022  10.977  12.777   6.837
  397SOL     OW 3023  10.819   3.018   8.306
  397SOL    HW1 3024  10.914   3.012   8.297
  397SOL    HW2 3025  10.804   3.097   8.358
  398SOL     OW 3026  12.442   7.080  11.026
  398SOL    HW1 3027  12.380   7.032  11.080
  398SOL    HW2 3028  12.393   7.100  10.946
  399SOL     OW 3029   3.464   9.278   6.370
  399SOL    HW1 3030   3.398   9.209   6.382
  399SOL    HW2 3031   3.416   9.351   6.332
  400SOL     OW 3032   6.143   3.166   6.622
  400SOL    HW1 3033   6.194   3.093   6.587
  400SOL    HW2 3034   6.174   3.243   6.574
  401SOL     OW 3035  14.338   0.261  13.189
  401SOL    HW1 3036  14.423   0.235  13.224
  401SOL    HW2 3037  14.335   0.356  13.198
  402SOL     OW 3038   4.743   2.222   2.495
  402SOL    HW1 3039   4.769   2.186   2.580
  402SOL    HW2 3040   4.763   2.316   2.502
  403SOL     OW 3041   8.528   3.085   2.281
  403SOL    HW1 3042   8.588   3.160   2.283
  403SOL    HW2 3043   8.566   3.022   2.341
  404SOL     OW 3044  10.543  13.107   6.015
  404SOL    HW1 3045  10.471  13.057   5.977
  404SOL    HW2 3046  10.604  13.041   6.048
  405SOL     OW 3047   8.942   2.983   5.046
  405SOL    HW1 3048   8.849   2.995   5.025
  405SOL    HW2 3049   8.942   2.950   5.136
  406SOL     OW 3050   4.467   6.263   4.095
  406SOL    HW1 3051   4.559   6.253   4.071
  406SOL    HW2 3052   4.448   6.356   4.082
  407SOL     OW 3053   9.897  13.509   5.335
  407SOL    HW1 3054   9.912  13.424   5.294
  407SOL    HW2 3055   9.814  13.501   5.380
  408SOL     OW 3056   6.240   0.029   5.738
  408SOL    HW1 3057   6.299   0.025   5.813
  408SOL    HW2 3058   6.154   0.005   5.774
  409SOL     OW 3059  14.297   6.890   0.196
  409SOL    HW1 3060  14.383   6.915   0.229
  409SOL    HW2 3061  14.239   6.900   0.271
  410SOL     OW 3062  13.025   7.410   9.818
  410SOL    HW1 3063  12.985   7.496   9.810
  410SOL    HW2 3064  12.984   7.371   9.895
  411SOL     OW 3065   3.545  11.961   2.188
  411SOL    HW1 3066   3.566  11.874   2.154
  411SOL    HW2 3067   3.584  11.962   2.276
  412SOL     OW 3068   3.611  12.567   0.914
  412SOL    HW1 3069   3.706  12.556   0.913
  412SOL    HW2 3070   3.581  12.529   0.831
  413SOL     OW 3071   3.585   3.224   4.843
  413SOL    HW1 3072   3.518   3.265   4.789
  413SOL    HW2 3073   3.553   3.233   4.933
  414SOL     OW 3074   4.439   3.832  12.736
  414SOL    HW1 3075   4.358   3.881  12.725
  414SOL    HW2 3076   4.430   3.756  12.679
  415SOL     OW 3077   9.251  12.678   2.023
  415SOL    HW1 3078   9.274  12.762   2.064
  415SOL    HW2 3079   9.321  12.618   2.049
  416SOL     OW 3080   8.393  12.805   1.589
  416SOL    HW1 3081   8.370  12.898   1.581
  416SOL    HW2 3082   8.395  12.773   1.499
  417SOL     OW 3083   9.672  11.188   2.731
  417SOL    HW1 3084   9.576  11.188   2.726
  417SOL    HW2 3085   9.695  11.095   2.727
  418SOL     OW 3086   2.224   0.268   8.730
  418SOL    HW1 3087   2.313   0.237   8.711
  418SOL    HW2 3088   2.236   0.358   8.760
  419SOL     OW 3089   1.591   5.453   0.607
  419SOL    HW1 3090   1.684   5.445   0.629
  419SOL    HW2 3091   1.579   5.396   0.531
  420SOL     OW 3092   4.225   6.733   8.446
  420SOL    HW1 3093   4.180   6.706   8.366
  420SOL    HW2 3094   4.310   6.689   8.441
  421SOL     OW 3095   6.442  10.674   7.000
  421SOL    HW1 3096   6.411  10.703   7.086
  421SOL    HW2 3097   6.533  10.651   7.014
  422SOL     OW 3098   6.461   6.096   6.217
  422SOL    HW1 3099   6.544   6.141   6.205
  422SOL    HW2 3100   6.477   6.007   6.185
  423SOL     OW 3101   9.957   3.057   5.424
  423SOL    HW1 3102  10.050   3.037   5.413
  423SOL    HW2 3103   9.915   2.972   5.439
  424SOL     OW 3104  12.337  13.147   7.036
  424SOL    HW1 3105  12.419  13.197   7.026
  424SOL    HW2 3106  12.268  13.208   7.010
  425SOL     OW 3107  10.562   9.491   7.006
  425SOL    HW1 3108  10.604   9.561   6.956
  425SOL    HW2 3109  10.555   9.526   7.095
  426SOL     OW 3110   8.330  12.316  12.519
  426SOL    HW1 3111   8.377  12.282  12.443
  426SOL    HW2 3112   8.310  12.406  12.497
  427SOL     OW 3113   2.228   2.999   2.832
  427SOL    HW1 3114   2.221   2.969   2.742
  427SOL    HW2 3115   2.165   2.945   2.880
  428SOL     OW 3116   3.857   1.285   9.226
  428SOL    HW1 3117   3.939   1.239   9.210
  428SOL    HW2 3118   3.861   1.309   9.319
  429SOL     OW 3119  12.549   4.917   0.591
  429SOL    HW1 3120  12.560   5.003   0.632
  429SOL    HW2 3121  12.458   4.915   0.563
  430SOL     OW 3122  10.082   0.624   3.218
  430SOL    HW1 3123  10.076   0.559   3.289
  430SOL    HW2 3124  10.096   0.707   3.264
  431SOL     OW 3125  13.289  12.279  10.981
  431SOL    HW1 3126  13.203  12.292  11.021
  431SOL    HW2 3127  13.321  12.196  11.016
  432SOL     OW 3128   7.326   7.744  11.973
  432SOL    HW1 3129   7.263   7.730  12.044
  432SOL    HW2 3130   7.287   7.700  11.898
  433SOL     OW 3131   6.574   3.201  10.727
  433SOL    HW1 3132   6.557   3.160  10.812
  433SOL    HW2 3133   6.537   3.289  10.735
  434SOL     OW 3134   5.164   5.505   7.479
  434SOL    HW1 3135   5.071   5.483   7.479
  434SOL    HW2 3136   5.171   5.584   7.532
  435SOL     OW 3137  13.761   2.646  10.579
  435SOL    HW1 3138  13.802   2.730  10.601
  435SOL    HW2 3139  13.688   2.670  10.522
  436SOL     OW 3140   1.723   8.822   7.528
  436SOL    HW1 3141   1.632   8.793   7.532
  436SOL    HW2 3142   1.749   8.832   7.620
  437SOL     OW 3143   0.896  14.548   7.741
  437SOL    HW1 3144   0.933  14.611   7.679
  437SOL    HW2 3145   0.818  14.515   7.697
  438SOL     OW 3146   5.497   5.340  12.519
  438SOL    HW1 3147   5.552   5.387  12.457
  438SOL    HW2 3148   5.428   5.300  12.465
  439SOL     OW 3149   5.761   9.356   3.470
  439SOL    HW1 3150   5.797   9.354   3.381
  439SOL    HW2 3151   5.670   9.382   3.458
  440SOL     OW 3152  12.837  10.304   3.653
  440SOL    HW1 3153  12.782  10.248   3.597
  440SOL    HW2 3154  12.909  10.247   3.681
  441SOL     OW 3155  13.702   0.063   7.195
  441SOL    HW1 3156  13.693   0.156   7.216
  441SOL    HW2 3157  13.794   0.053   7.169
  442SOL     OW 3158   7.769   3.801   8.590
  442SOL    HW1 3159   7.826   3.749   8.534
  442SOL    HW2 3160   7.807   3.792   8.678
  443SOL     OW 3161  13.340   5.540   6.014
  443SOL    HW1 3162  13.312   5.632   6.013
  443SOL    HW2 3163  13.340   5.514   5.921
  444SOL     OW 3164   0.019   1.072  10.390
  444SOL    HW1 3165  14.814   1.112  10.367
  444SOL    HW2 3166   0.002   1.024  10.471
  445SOL     OW 3167   6.917   2.227   1.998
  445SOL    HW1 3168   6.922   2.158   1.932
  445SOL    HW2 3169   7.005   2.233   2.034
  446SOL     OW 3170   9.284  10.500  14.292
  446SOL    HW1 3171   9.360  10.442  14.295
  446SOL    HW2 3172   9.287  10.539  14.205
  447SOL     OW 3173  12.706  13.406  11.834
  447SOL    HW1 3174  12.764  13.382  11.906
  447SOL    HW2 3175  12.761  13.399  11.755
  448SOL     OW 3176   6.497  12.567  10.295
  448SOL    HW1 3177   6.477  12.605  10.380
  448SOL    HW2 3178   6.531  12.641  10.244
  449SOL     OW 3179   8.893   4.236   7.000
  449SOL    HW1 3180   8.879   4.263   6.909
  449SOL    HW2 3181   8.942   4.154   6.993
  450SOL     OW 3182   8.524   0.966   2.267
  450SOL    HW1 3183   8.599   1.024   2.280
  450SOL    HW2 3184   8.527   0.907   2.342
  451SOL     OW 3185   0.447   0.464   2.483
  451SOL    HW1 3186   0.532   0.495   2.451
  451SOL    HW2 3187   0.436   0.378   2.441
  452SOL     OW 3188   8.709   9.235   0.607
  452SOL    HW1 3189   8.696   9.170   0.538
  452SOL    HW2 3190   8.787   9.206   0.653
  453SOL     OW 3191   7.584  14.868   4.222
  453SOL    HW1 3192   7.678  14.858   4.236
  453SOL    HW2 3193   7.550  14.778   4.224
  454SOL     OW 3194   8.736   6.352  11.413
  454SOL    HW1 3195   8.724   6.337  11.319
  454SOL    HW2 3196   8.725   6.266  11.453
  455SOL     OW 3197   9.108   4.247   3.208
  455SOL    HW1 3198   9.113   4.196   3.289
  455SOL    HW2 3199   9.043   4.202   3.155
  456SOL     OW 3200   8.962   8.179   5.579
  456SOL    HW1 3201   8.943   8.096   5.622
  456SOL    HW2 3202   9.035   8.161   5.521
  457SOL     OW 3203   2.980   7.048   4.063
  457SOL    HW1 3204   2.989   7.098   3.982
  457SOL    HW2 3205   2.950   6.962   4.034
  458SOL     OW 3206   8.794   8.728  10.548
  458SOL    HW1 3207   8.727   8.782  10.506
  458SOL    HW2 3208   8.760   8.713  10.637
  459SOL     OW 3209  14.699   4.556  10.496
  459SOL    HW1 3210  14.720   4.648  10.515
  459SOL    HW2 3211  14.784   4.517  10.473
  460SOL     OW 3212  11.968   4.819   6.941
  460SOL    HW1 3213  11.973   4.864   7.026
  460SOL    HW2 3214  11.885   4.847   6.904
  461SOL     OW 3215   7.455   5.524   8.429
  461SOL    HW1 3216   7.492   5.597   8.478
  461SOL    HW2 3217   7.443   5.557   8.341
  462SOL     OW 3218   9.649   9.756   9.994
  462SOL    HW1 3219   9.611   9.784   9.911
  462SOL    HW2 3220   9.609   9.812  10.059
  463SOL     OW 3221   4.717  12.012   0.266
  463SOL    HW1 3222   4.651  11.976   0.326
  463SOL    HW2 3223   4.772  12.068   0.321
  464SOL     OW 3224   7.249  14.391  10.580
  464SOL    HW1 3225   7.214  14.433  10.501
  464SOL    HW2 3226   7.187  14.321  10.600
  465SOL     OW 3227  13.080   0.031   5.023
  465SOL    HW1 3228  12.996   0.009   5.062
  465SOL    HW2 3229  13.137  14.836   5.043
  466SOL     OW 3230   4.999  14.684   5.851
  466SOL    HW1 3231   4.959  14.747   5.912
  466SOL    HW2 3232   5.065  14.735   5.804
  467SOL     OW 3233  14.762   9.481   2.142
  467SOL    HW1 3234  14.848   9.495   2.179
  467SOL    HW2 3235  14.704   9.541   2.189
  468SOL     OW 3236  12.786  10.856   1.316
  468SOL    HW1 3237  12.855  10.906   1.360
  468SOL    HW2 3238  12.717  10.921   1.300
  469SOL     OW 3239   7.497   1.298   3.278
  469SOL    HW1 3240   7.448   1.301   3.196
  469SOL    HW2 3241   7.561   1.228   3.265
  470SOL     OW 3242   0.108   6.080   1.317
  470SOL    HW1 3243   0.145   6.012   1.261
  470SOL    HW2 3244   0.022   6.099   1.279
  471SOL     OW 3245  12.093  11.361  10.650
  471SOL    HW1 3246  12.185  11.383  10.666
  471SOL    HW2 3247  12.069  11.413  10.573
  472SOL     OW 3248   2.543   5.845   2.939
  472SOL    HW1 3249   2.576   5.790   3.010
  472SOL    HW2 3250   2.467   5.798   2.906
  473SOL     OW 3251   5.236   8.446  10.664
  473SOL    HW1 3252   5.154   8.403  10.688
  473SOL    HW2 3253   5.271   8.394  10.592
  474SOL     OW 3254   8.509  14.857   4.667
  474SOL    HW1 3255   8.526   0.013   4.754
  474SOL    HW2 3256   8.547  14.770   4.669
  475SOL     OW 3257   8.687   7.869  11.028
  475SOL    HW1 3258   8.695   7.839  10.937
  475SOL    HW2 3259   8.636   7.950  11.023
  476SOL     OW 3260   4.613   6.251   1.947
  476SOL    HW1 3261   4.539   6.246   1.887
  476SOL    HW2 3262   4.687   6.276   1.890
  477SOL     OW 3263   3.322   9.817  10.484
  477SOL    HW1 3264   3.368   9.848  10.561
  477SOL    HW2 3265   3.363   9.733  10.464
  478SOL     OW 3266   6.314   4.733  12.248
  478SOL    HW1 3267   6.273   4.711  12.331
  478SOL    HW2 3268   6.359   4.816  12.264
  479SOL     OW 3269   7.851   7.591  13.755
  479SOL    HW1 3270   7.920   7.604  13.820
  479SOL    HW2 3271   7.897   7.559  13.677
  480SOL     OW 3272   8.408   6.259   2.350
  480SOL    HW1 3273   8.463   6.332   2.322
  480SOL    HW2 3274   8.466   6.205   2.405
  481SOL     OW 3275   2.369  10.260   8.193
  481SOL    HW1 3276   2.463  10.280   8.189
  481SOL    HW2 3277   2.332  10.329   8.248
  482SOL     OW 3278  14.375   0.615  14.500
  482SOL    HW1 3279  14.415   0.662  14.427
  482SOL    HW2 3280  14.353   0.683  14.563
  483SOL     OW 3281   7.073  11.247   2.101
  483SOL    HW1 3282   7.165  11.265   2.122
  483SOL    HW2 3283   7.069  11.152   2.092
  484SOL     OW 3284  10.211   0.786   0.862
  484SOL    HW1 3285  10.274   0.726   0.822
  484SOL    HW2 3286  10.257   0.869   0.867
  485SOL     OW 3287  10.561   6.336   5.542
  485SOL    HW1 3288  10.647   6.294   5.541
  485SOL    HW2 3289  10.540   6.350   5.450
  486SOL     OW 3290   6.240  13.935   8.029
  486SOL    HW1 3291   6.161  13.938   8.083
  486SOL    HW2 3292   6.271  14.026   8.027
  487SOL     OW 3293   5.753   0.631  14.185
  487SOL    HW1 3294   5.752   0.698  14.116
  487SOL    HW2 3295   5.817   0.567  14.154
  488SOL     OW 3296   2.341  10.448   6.210
  488SOL    HW1 3297   2.421  10.456   6.261
  488SOL    HW2 3298   2.273  10.428   6.274
  489SOL     OW 3299   9.463  11.038   3.926
  489SOL    HW1 3300   9.455  10.967   3.990
  489SOL    HW2 3301   9.432  11.116   3.971
  490SOL     OW 3302   1.074   1.638   0.997
  490SOL    HW1 3303   1.074   1.641   1.092
  490SOL    HW2 3304   0.996   1.687   0.971
  491SOL     OW 3305   1.222   1.972   9.849
  491SOL    HW1 3306   1.279   1.907   9.808
  491SOL    HW2 3307   1.218   2.043   9.785
  492SOL     OW 3308  13.308   0.541   9.373
  492SOL    HW1 3309  13.275   0.532   9.462
  492SOL    HW2 3310  13.284   0.459   9.330
  493SOL     OW 3311   4.087   3.099   0.088
  493SOL    HW1 3312   4.132   3.111   0.005
  493SOL    HW2 3313   3.995   3.121   0.070
  494SOL     OW 3314  10.135   9.046  11.995
  494SOL    HW1 3315  10.136   9.131  12.037
  494SOL    HW2 3316  10.067   8.996  12.041
  495SOL     OW 3317   8.186   2.488  13.270
  495SOL    HW1 3318   8.126   2.553  13.235
  495SOL    HW2 3319   8.243   2.536  13.330
  496SOL     OW 3320  13.532  14.866   0.683
  496SOL    HW1 3321  13.447   0.031   0.679
  496SOL    HW2 3322  13.592   0.052   0.718
  497SOL     OW 3323   7.142   2.349   8.186
  497SOL    HW1 3324   7.225   2.382   8.219
  497SOL    HW2 3325   7.166   2.270   8.137
  498SOL     OW 3326   7.148  12.767   6.274
  498SOL    HW1 3327   7.228  12.760   6.326
  498SOL    HW2 3328   7.107  12.681   6.281
  499SOL     OW 3329   3.020   3.498   6.102
  499SOL    HW1 3330   3.086   3.537   6.045
  499SOL    HW2 3331   3.024   3.549   6.182
  500SOL     OW 3332  12.533   4.247   8.276
  500SOL    HW1 3333  12.566   4.295   8.199
  500SOL    HW2 3334  12.608   4.244   8.336
  501SOL     OW 3335   1.963  11.226   4.151
  501SOL    HW1 3336   1.897  11.213   4.083
  501SOL    HW2 3337   2.002  11.311   4.131
  502SOL     OW 3338   2.386  14.725  12.982
  502SOL    HW1 3339   2.454  14.790  12.999
  502SOL    HW2 3340   2.420  14.672  12.910
  503SOL     OW 3341   8.859   8.435  14.262
  503SOL    HW1 3342   8.895   8.376  14.328
  503SOL    HW2 3343   8.926   8.504  14.252
  504SOL     OW 3344  12.674  11.416  10.262
  504SOL    HW1 3345  12.586  11.388  10.238
  504SOL    HW2 3346  12.672  11.511  10.254
  505SOL     OW 3347   3.062  10.158  10.155
  505SOL    HW1 3348   3.035  10.066  10.148
  505SOL    HW2 3349   3.151  10.160  10.120
  506SOL     OW 3350   8.212   1.967   7.048
  506SOL    HW1 3351   8.150   2.039   7.034
  506SOL    HW2 3352   8.157   1.893   7.074
  507SOL     OW 3353   7.469   9.689  11.925
  507SOL    HW1 3354   7.425   9.739  11.994
  507SOL    HW2 3355   7.467   9.598  11.955
  508SOL     OW 3356  14.233  10.168   4.051
  508SOL    HW1 3357  14.311  10.222   4.039
  508SOL    HW2 3358  14.250  10.119   4.132
  509SOL     OW 3359   8.560  10.234  14.273
  509SOL    HW1 3360   8.608  10.286  14.210
  509SOL    HW2 3361   8.495  10.293  14.310
  510SOL     OW 3362   4.726   7.781  13.411
  510SOL    HW1 3363   4.753   7.696  13.447
  510SOL    HW2 3364   4.759   7.781  13.322
  511SOL     OW 3365   1.057  13.699   7.916
  511SOL    HW1 3366   1.069  13.655   8.000
  511SOL    HW2 3367   1.137  13.678   7.867
  512SOL     OW 3368  10.211  11.227   4.859
  512SOL    HW1 3369  10.182  11.315   4.836
  512SOL    HW2 3370  10.130  11.178   4.875
  513SOL     OW 3371   1.268   8.605   5.326
  513SOL    HW1 3372   1.362   8.598   5.307
  513SOL    HW2 3373   1.263   8.594   5.421
  514SOL     OW 3374   1.988   5.444   6.210
  514SOL    HW1 3375   2.040   5.437   6.130
  514SOL    HW2 3376   1.916   5.383   6.197
  515SOL     OW 3377   9.250  10.319   5.540
  515SOL    HW1 3378   9.320  10.331   5.605
  515SOL    HW2 3379   9.295  10.289   5.462
  516SOL     OW 3380   1.214  14.253   0.175
  516SOL    HW1 3381   1.257  14.312   0.236
  516SOL    HW2 3382   1.123  14.250   0.205
  517SOL     OW 3383   0.494   5.415   8.388
  517SOL    HW1 3384   0.567   5.464   8.426
  517SOL    HW2 3385   0.481   5.455   8.302
  518SOL     OW 3386  11.600  12.298  10.772
  518SOL    HW1 3387  11.523  12.321  10.720
  518SOL    HW2 3388  11.673  12.341  10.728
  519SOL     OW 3389  11.582  12.925  14.079
  519SOL    HW1 3390  11.665  12.927  14.127
  519SOL    HW2 3391  11.559  13.017  14.068
  520SOL     OW 3392   7.904   9.266  11.343
  520SOL    HW1 3393   7.980   9.239  11.394
  520SOL    HW2 3394   7.906   9.210  11.265
  521SOL     OW 3395  13.329   1.700   6.572
  521SOL    HW1 3396  13.380   1.772   6.535
  521SOL    HW2 3397  13.390   1.626   6.574
  522SOL     OW 3398   4.888   1.373   5.764
  522SOL    HW1 3399   4.902   1.398   5.672
  522SOL    HW2 3400   4.975   1.375   5.803
  523SOL     OW 3401  11.335   4.077  11.979
  523SOL    HW1 3402  11.302   4.046  11.895
  523SOL    HW2 3403  11.276   4.148  12.003
  524SOL     OW 3404  11.482   8.961   4.763
  524SOL    HW1 3405  11.511   9.031   4.821
  524SOL    HW2 3406  11.405   8.997   4.718
  525SOL     OW 3407  12.801   6.368   2.009
  525SOL    HW1 3408  12.770   6.401   2.093
  525SOL    HW2 3409  12.728   6.380   1.949
  526SOL     OW 3410   6.898  10.900  14.233
  526SOL    HW1 3411   6.905  10.838  14.160
  526SOL    HW2 3412   6.863  10.979  14.193
  527SOL     OW 3413  12.754   9.781   8.701
  527SOL    HW1 3414  12.842   9.782   8.738
  527SOL    HW2 3415  12.700   9.739   8.767
  528SOL     OW 3416  13.605   5.220   4.612
  528SOL    HW1 3417  13.604   5.201   4.518
  528SOL    HW2 3418  13.565   5.143   4.653
  529SOL     OW 3419   8.901   1.005   2.105
  529SOL    HW1 3420   8.829   0.961   2.059
  529SOL    HW2 3421   8.860   1.039   2.185
  530SOL     OW 3422   0.069   9.627   1.811
  530SOL    HW1 3423   0.054   9.605   1.719
  530SOL    HW2 3424   0.064   9.543   1.857
  531SOL     OW 3425   3.334   6.195   0.894
  531SOL    HW1 3426   3.357   6.275   0.848
  531SOL    HW2 3427   3.260   6.159   0.845
  532SOL     OW 3428   7.376   9.729   6.969
  532SOL    HW1 3429   7.340   9.676   7.041
  532SOL    HW2 3430   7.397   9.665   6.901
  533SOL     OW 3431   6.762   7.587   6.160
  533SOL    HW1 3432   6.725   7.520   6.218
  533SOL    HW2 3433   6.689   7.646   6.142
  534SOL     OW 3434  14.038   5.011   7.916
  534SOL    HW1 3435  14.074   4.982   7.832
  534SOL    HW2 3436  13.956   5.056   7.893
  535SOL     OW 3437   2.457  11.337   0.273
  535SOL    HW1 3438   2.426  11.425   0.296
  535SOL    HW2 3439   2.402  11.310   0.200
  536SOL     OW 3440  13.953   1.590  14.736
  536SOL    HW1 3441  13.895   1.555  14.803
  536SOL    HW2 3442  13.917   1.555  14.654
  537SOL     OW 3443   9.745  10.445   7.762
  537SOL    HW1 3444   9.836  10.459   7.736
  537SOL    HW2 3445   9.721  10.363   7.719
  538SOL     OW 3446  10.448  11.204  14.644
  538SOL    HW1 3447  10.513  11.188  14.713
  538SOL    HW2 3448  10.440  11.121  14.598
  539SOL     OW 3449   7.972   5.593   5.447
  539SOL    HW1 3450   7.894   5.539   5.454
  539SOL    HW2 3451   8.039   5.545   5.497
  540SOL     OW 3452   1.478   0.747   3.260
  540SOL    HW1 3453   1.550   0.694   3.295
  540SOL    HW2 3454   1.456   0.705   3.177
  541SOL     OW 3455   8.961  10.900   3.493
  541SOL    HW1 3456   8.904  10.879   3.567
  541SOL    HW2 3457   8.909  10.881   3.416
  542SOL     OW 3458   1.107   4.117   1.168
  542SOL    HW1 3459   1.062   4.187   1.215
  542SOL    HW2 3460   1.174   4.162   1.117
  543SOL     OW 3461   2.126  14.320   2.065
  543SOL    HW1 3462   2.104  14.249   2.004
  543SOL    HW2 3463   2.137  14.397   2.009
  544SOL     OW 3464   8.279   5.355  14.792
  544SOL    HW1 3465   8.242   5.367   0.000
  544SOL    HW2 3466   8.236   5.276  14.758
  545SOL     OW 3467   4.124   2.961   8.956
  545SOL    HW1 3468   4.143   3.043   8.910
  545SOL    HW2 3469   4.099   2.989   9.044
  546SOL     OW 3470  11.031  11.560   9.051
  546SOL    HW1 3471  10.983  11.642   9.044
  546SOL    HW2 3472  10.992  11.504   8.983
  547SOL     OW 3473  11.189   5.368  14.571
  547SOL    HW1 3474  11.130   5.427  14.618
  547SOL    HW2 3475  11.200   5.410  14.486
  548SOL     OW 3476   1.630   4.481  14.318
  548SOL    HW1 3477   1.602   4.571  14.336
  548SOL    HW2 3478   1.677   4.487  14.234
  549SOL     OW 3479   5.978  12.540  11.950
  549SOL    HW1 3480   6.010  12.602  12.016
  549SOL    HW2 3481   5.883  12.551  11.950
  550SOL     OW 3482   6.158   5.241   0.721
  550SOL    HW1 3483   6.158   5.314   0.784
  550SOL    HW2 3484   6.232   5.259   0.663
  551SOL     OW 3485   5.765   2.168  10.927
  551SOL    HW1 3486   5.792   2.088  10.882
  551SOL    HW2 3487   5.676   2.185  10.896
  552SOL     OW 3488  13.543   2.892  13.712
  552SOL    HW1 3489  13.502   2.817  13.754
  552SOL    HW2 3490  13.472   2.933  13.662
  553SOL     OW 3491   6.883  14.628   3.316
  553SOL    HW1 3492   6.862  14.573   3.240
  553SOL    HW2 3493   6.850  14.715   3.293
  554SOL     OW 3494   9.935   7.028  13.686
  554SOL    HW1 3495   9.962   7.047  13.776
  554SOL    HW2 3496   9.927   6.933  13.683
  555SOL     OW 3497   2.745  10.113  10.892
  555SOL    HW1 3498   2.669  10.055  10.901
  555SOL    HW2 3499   2.805  10.067  10.834
  556SOL     OW 3500  10.596   8.252   4.762
  556SOL    HW1 3501  10.659   8.311   4.802
  556SOL    HW2 3502  10.570   8.193   4.832
  557SOL     OW 3503   2.863   9.704   8.870
  557SOL    HW1 3504   2.913   9.753   8.935
  557SOL    HW2 3505   2.912   9.716   8.788
  558SOL     OW 3506   4.453   8.522  12.755
  558SOL    HW1 3507   4.450   8.428  12.775
  558SOL    HW2 3508   4.547   8.543  12.755
  559SOL     OW 3509   9.230   3.013  12.386
  559SOL    HW1 3510   9.297   2.953  12.419
  559SOL    HW2 3511   9.152   2.959  12.377
  560SOL     OW 3512  14.301   9.339  13.674
  560SOL    HW1 3513  14.352   9.284  13.735
  560SOL    HW2 3514  14.267   9.409  13.729
  561SOL     OW 3515   0.594   1.368   3.537
  561SOL    HW1 3516   0.654   1.441   3.548
  561SOL    HW2 3517   0.559   1.379   3.448
  562SOL     OW 3518   5.308  11.291  12.951
  562SOL    HW1 3519   5.228  11.341  12.933
  562SOL    HW2 3520   5.317  11.293  13.046
  563SOL     OW 3521   5.842   9.398  10.206
  563SOL    HW1 3522   5.804   9.462  10.146
  563SOL    HW2 3523   5.767   9.364  10.256
  564SOL     OW 3524  11.734   4.529   9.013
  564SOL    HW1 3525  11.679   4.509   9.088
  564SOL    HW2 3526  11.705   4.616   8.985
  565SOL     OW 3527   4.451  12.376   8.403
  565SOL    HW1 3528   4.428  12.438   8.334
  565SOL    HW2 3529   4.533  12.335   8.373
  566SOL     OW 3530   3.948   0.400   5.412
  566SOL    HW1 3531   3.992   0.485   5.402
  566SOL    HW2 3532   3.855   0.423   5.421
  567SOL     OW 3533   4.584  10.390   6.572
  567SOL    HW1 3534   4.525  10.452   6.613
  567SOL    HW2 3535   4.532  10.310   6.564
  568SOL     OW 3536   5.386  11.197   2.025
  568SOL    HW1 3537   5.302  11.170   2.063
  568SOL    HW2 3538   5.375  11.291   2.008
  569SOL     OW 3539   6.103  11.192   2.705
  569SOL    HW1 3540   6.157  11.122   2.741
  569SOL    HW2 3541   6.014  11.169   2.731
  570SOL     OW 3542   0.062   1.387   1.264
  570SOL    HW1 3543   0.047   1.421   1.352
  570SOL    HW2 3544   0.054   1.292   1.273
  571SOL     OW 3545  11.504   5.419   0.452
  571SOL    HW1 3546  11.437   5.389   0.391
  571SOL    HW2 3547  11.469   5.396   0.539
  572SOL     OW 3548   8.764  12.201  10.610
  572SOL    HW1 3549   8.831  12.151  10.657
  572SOL    HW2 3550   8.683  12.153  10.627
  573SOL     OW 3551   5.635   8.313  11.599
  573SOL    HW1 3552   5.670   8.395  11.562
  573SOL    HW2 3553   5.695   8.245  11.568
  574SOL     OW 3554  12.762   1.871  14.673
  574SOL    HW1 3555  12.839   1.884  14.728
  574SOL    HW2 3556  12.796   1.859  14.585
  575SOL     OW 3557   5.736   0.552   5.839
  575SOL    HW1 3558   5.818   0.575   5.796
  575SOL    HW2 3559   5.706   0.634   5.879
  576SOL     OW 3560   5.026   6.818   1.931
  576SOL    HW1 3561   5.013   6.814   2.026
  576SOL    HW2 3562   4.966   6.887   1.902
  577SOL     OW 3563   1.481  13.573   9.660
  577SOL    HW1 3564   1.474  13.556   9.566
  577SOL    HW2 3565   1.391  13.565   9.692
  578SOL     OW 3566  11.085   9.165   4.152
  578SOL    HW1 3567  11.033   9.086   4.132
  578SOL    HW2 3568  11.054   9.230   4.089
  579SOL     OW 3569  14.803   5.514   6.045
  579SOL    HW1 3570  14.840   5.601   6.058
  579SOL    HW2 3571  14.734   5.525   5.981
  580SOL     OW 3572   7.280   8.288   3.135
  580SOL    HW1 3573   7.308   8.374   3.166
  580SOL    HW2 3574   7.359   8.249   3.098
  581SOL     OW 3575   6.847   9.247  10.820
  581SOL    HW1 3576   6.753   9.245  10.839
  581SOL    HW2 3577   6.862   9.335  10.786
  582SOL     OW 3578   0.523   5.262   3.766
  582SOL    HW1 3579   0.552   5.311   3.843
  582SOL    HW2 3580   0.427   5.262   3.773
  583SOL     OW 3581  14.239   3.906   6.753
  583SOL    HW1 3582  14.213   3.880   6.665
  583SOL    HW2 3583  14.227   3.826   6.805
  584SOL     OW 3584   6.164   7.986   9.106
  584SOL    HW1 3585   6.176   8.002   9.012
  584SOL    HW2 3586   6.213   8.057   9.149
  585SOL     OW 3587   6.084   8.057  12.529
  585SOL    HW1 3588   6.056   8.146  12.508
  585SOL    HW2 3589   6.003   8.012  12.555
  586SOL     OW 3590  14.330   0.728   5.869
  586SOL    HW1 3591  14.300   0.663   5.933
  586SOL    HW2 3592  14.407   0.688   5.829
  587SOL     OW 3593   1.357   0.525  12.343
  587SOL    HW1 3594   1.297   0.553  12.412
  587SOL    HW2 3595   1.313   0.451  12.302
  588SOL     OW 3596   8.196   6.556   0.933
  588SOL    HW1 3597   8.240   6.588   0.854
  588SOL    HW2 3598   8.105   6.582   0.922
  589SOL     OW 3599  11.309   9.254   9.920
  589SOL    HW1 3600  11.379   9.238   9.983
  589SOL    HW2 3601  11.240   9.297   9.970
  590SOL     OW 3602  13.450   5.339   7.265
  590SOL    HW1 3603  13.509   5.345   7.340
  590SOL    HW2 3604  13.507   5.346   7.189
  591SOL     OW 3605   1.806  12.464   3.338
  591SOL    HW1 3606   1.807  12.495   3.429
  591SOL    HW2 3607   1.896  12.439   3.320
  592SOL     OW 3608   3.212   5.248   2.062
  592SOL    HW1 3609   3.223   5.341   2.082
  592SOL    HW2 3610   3.299   5.210   2.076
  593SOL     OW 3611  12.123   3.856  14.203
  593SOL    HW1 3612  12.202   3.803  14.212
  593SOL    HW2 3613  12.115   3.901  14.287
  594SOL     OW 3614  11.304   2.924   6.275
  594SOL    HW1 3615  11.216   2.962   6.285
  594SOL    HW2 3616  11.348   2.983   6.214
  595SOL     OW 3617  10.222   0.880   7.667
  595SOL    HW1 3618  10.211   0.971   7.694
  595SOL    HW2 3619  10.133   0.845   7.664
  596SOL     OW 3620  14.583   6.865  14.551
  596SOL    HW1 3621  14.601   6.783  14.506
  596SOL    HW2 3622  14.545   6.839  14.635
  597SOL     OW 3623   4.497  11.204  12.855
  597SOL    HW1 3624   4.493  11.181  12.762
  597SOL    HW2 3625   4.442  11.139  12.898
  598SOL     OW 3626   2.383   7.528  13.264
  598SOL    HW1 3627   2.454   7.567  13.314
  598SOL    HW2 3628   2.304   7.550  13.313
  599SOL     OW 3629  14.576   6.268  13.427
  599SOL    HW1 3630  14.604   6.286  13.337
  599SOL    HW2 3631  14.486   6.300  13.431
  600SOL     OW 3632   5.996   3.256   3.503
  600SOL    HW1 3633   5.903   3.278   3.495
  600SOL    HW2 3634   6.007   3.232   3.595
  601SOL     OW 3635  10.781  14.742   6.636
  601SOL    HW1 3636  10.815  14.689   6.564
  601SOL    HW2 3637  10.848  14.736   6.704
  602SOL     OW 3638   5.552  13.802   7.556
  602SOL    HW1 3639   5.552  13.895   7.579
  602SOL    HW2 3640   5.609  13.796   7.479
  603SOL     OW 3641   7.522  12.886   6.406
  603SOL    HW1 3642   7.462  12.955   6.376
  603SOL    HW2 3643   7.469  12.806   6.404
  604SOL     OW 3644  10.353   3.793  10.739
  604SOL    HW1 3645  10.305   3.869  10.772
  604SOL    HW2 3646  10.347   3.728  10.809
  605SOL     OW 3647   8.336   9.606   0.187
  605SOL    HW1 3648   8.289   9.645   0.113
  605SOL    HW2 3649   8.415   9.660   0.197
  606SOL     OW 3650   1.214  13.145  14.679
  606SOL    HW1 3651   1.138  13.093  14.706
  606SOL    HW2 3652   1.239  13.108  14.595
  607SOL     OW 3653  11.291   3.713   0.946
  607SOL    HW1 3654  11.339   3.693   0.865
  607SOL    HW2 3655  11.239   3.791   0.924
  608SOL     OW 3656   2.687  10.782  14.355
  608SOL    HW1 3657   2.616  10.838  14.322
  608SOL    HW2 3658   2.758  10.794  14.291
  609SOL     OW 3659  13.028   4.845  12.576
  609SOL    HW1 3660  13.061   4.924  12.617
  609SOL    HW2 3661  12.935   4.844  12.596
  610SOL     OW 3662  10.403  14.756   3.637
  610SOL    HW1 3663  10.489  14.714   3.639
  610SOL    HW2 3664  10.345  14.689   3.599
  611SOL     OW 3665   2.644  10.211   6.755
  611SOL    HW1 3666   2.700  10.248   6.824
  611SOL    HW2 3667   2.616  10.286   6.704
  612SOL     OW 3668  10.795  13.185  12.390
  612SOL    HW1 3669  10.879  13.146  12.365
  612SOL    HW2 3670  10.737  13.110  12.403
  613SOL     OW 3671   0.737   4.565   8.559
  613SOL    HW1 3672   0.777   4.564   8.646
  613SOL    HW2 3673   0.690   4.649   8.556
  614SOL     OW 3674   0.913  10.389   4.967
  614SOL    HW1 3675   0.999  10.429   4.962
  614SOL    HW2 3676   0.918  10.312   4.909
  615SOL     OW 3677   2.887   3.093   1.596
  615SOL    HW1 3678   2.915   3.096   1.687
  615SOL    HW2 3679   2.874   3.184   1.571
  616SOL     OW 3680  10.448   2.206   1.179
  616SOL    HW1 3681  10.382   2.228   1.246
  616SOL    HW2 3682  10.453   2.111   1.181
  617SOL     OW 3683   6.589   3.979   5.384
  617SOL    HW1 3684   6.665   4.036   5.395
  617SOL    HW2 3685   6.558   3.964   5.473
  618SOL     OW 3686   3.598   7.500  10.571
  618SOL    HW1 3687   3.508   7.467  10.564
  618SOL    HW2 3688   3.616   7.536  10.484
  619SOL     OW 3689   4.316   6.723   3.035
  619SOL    HW1 3690   4.241   6.711   3.092
  619SOL    HW2 3691   4.283   6.776   2.962
  620SOL     OW 3692   6.355   1.634   1.028
  620SOL    HW1 3693   6.315   1.687   1.097
  620SOL    HW2 3694   6.445   1.665   1.022
  621SOL     OW 3695  14.778  11.358  14.740
  621SOL    HW1 3696  14.722  11.434  14.724
  621SOL    HW2 3697  14.840  11.359  14.668
  622SOL     OW 3698   3.790   1.718   1.469
  622SOL    HW1 3699   3.885   1.709   1.474
  622SOL    HW2 3700   3.775   1.813   1.466
  623SOL     OW 3701  14.180   7.246   1.012
  623SOL    HW1 3702  14.096   7.226   1.054
  623SOL    HW2 3703  14.236   7.278   1.082
  624SOL     OW 3704  12.909  11.359   6.586
  624SOL    HW1 3705  12.918  11.312   6.503
  624SOL    HW2 3706  12.995  11.352   6.627
  625SOL     OW 3707   9.591  10.697   6.918
  625SOL    HW1 3708   9.560  10.612   6.886
  625SOL    HW2 3709   9.685  10.684   6.934
  626SOL     OW 3710   9.081   6.422   9.584
  626SOL    HW1 3711   9.152   6.422   9.648
  626SOL    HW2 3712   9.098   6.346   9.529
  627SOL     OW 3713  11.597   3.907   3.686
  627SOL    HW1 3714  11.626   3.998   3.696
  627SOL    HW2 3715  11.624   3.864   3.768
  628SOL     OW 3716   2.259   2.342   6.040
  628SOL    HW1 3717   2.338   2.310   5.997
  628SOL    HW2 3718   2.190   2.282   6.011
  629SOL     OW 3719   9.018   1.169   9.914
  629SOL    HW1 3720   9.052   1.083   9.889
  629SOL    HW2 3721   8.942   1.183   9.857
  630SOL     OW 3722   1.541   1.363   4.828
  630SOL    HW1 3723   1.611   1.421   4.798
  630SOL    HW2 3724   1.537   1.378   4.923
  631SOL     OW 3725   7.502  10.468   0.689
  631SOL    HW1 3726   7.522  10.430   0.774
  631SOL    HW2 3727   7.519  10.562   0.701
  632SOL     OW 3728   5.213   4.072   6.911
  632SOL    HW1 3729   5.212   4.157   6.867
  632SOL    HW2 3730   5.165   4.086   6.993
  633SOL     OW 3731   5.427  13.762  13.389
  633SOL    HW1 3732   5.522  13.765  13.401
  633SOL    HW2 3733   5.404  13.850  13.361
  634SOL     OW 3734   6.669   8.066  12.014
  634SOL    HW1 3735   6.603   8.020  12.066
  634SOL    HW2 3736   6.627   8.148  11.988
  635SOL     OW 3737   2.454   1.264   6.856
  635SOL    HW1 3738   2.434   1.315   6.777
  635SOL    HW2 3739   2.415   1.315   6.927
  636SOL     OW 3740   8.167   4.741  14.846
  636SOL    HW1 3741   8.134   4.678   0.031
  636SOL    HW2 3742   8.090   4.769  14.797
  637SOL     OW 3743   2.459  10.096  12.405
  637SOL    HW1 3744   2.374  10.124  12.371
  637SOL    HW2 3745   2.523  10.141  12.351
  638SOL     OW 3746   0.760   8.857   6.173
  638SOL    HW1 3747   0.811   8.817   6.102
  638SOL    HW2 3748   0.771   8.952   6.160
  639SOL     OW 3749  12.391   5.377  10.459
  639SOL    HW1 3750  12.413   5.433  10.385
  639SOL    HW2 3751  12.316   5.420  10.501
  640SOL     OW 3752   4.752   3.647   9.784
  640SOL    HW1 3753   4.768   3.711   9.715
  640SOL    HW2 3754   4.682   3.684   9.836
  641SOL     OW 3755   1.325   8.209   1.523
  641SOL    HW1 3756   1.254   8.267   1.550
  641SOL    HW2 3757   1.298   8.176   1.437
  642SOL     OW 3758   7.943   9.899  13.789
  642SOL    HW1 3759   7.910   9.950  13.864
  642SOL    HW2 3760   8.031   9.934  13.774
  643SOL     OW 3761  14.220   4.083  12.345
  643SOL    HW1 3762  14.194   4.171  12.375
  643SOL    HW2 3763  14.139   4.033  12.345
  644SOL     OW 3764   2.951   4.514   7.112
  644SOL    HW1 3765   2.931   4.433   7.066
  644SOL    HW2 3766   2.969   4.487   7.202
  645SOL     OW 3767  14.349  13.569   5.334
  645SOL    HW1 3768  14.289  13.643   5.346
  645SOL    HW2 3769  14.434  13.603   5.361
  646SOL     OW 3770  14.236   1.319   8.365
  646SOL    HW1 3771  14.255   1.241   8.418
  646SOL    HW2 3772  14.185   1.376   8.424
  647SOL     OW 3773   7.502   6.340   6.118
  647SOL    HW1 3774   7.516   6.415   6.060
  647SOL    HW2 3775   7.562   6.354   6.191
  648SOL     OW 3776   3.976  10.440   6.727
  648SOL    HW1 3777   3.914  10.382   6.770
  648SOL    HW2 3778   3.929  10.523   6.719
  649SOL     OW 3779   5.897  13.933  14.214
  649SOL    HW1 3780   5.848  14.004  14.255
  649SOL    HW2 3781   5.984  13.970  14.199
  650SOL     OW 3782   4.872  11.170   3.609
  650SOL    HW1 3783   4.810  11.236   3.640
  650SOL    HW2 3784   4.905  11.129   3.689
  651SOL     OW 3785   0.754   1.672   5.909
  651SOL    HW1 3786   0.696   1.748   5.910
  651SOL    HW2 3787   0.746   1.635   5.997
  652SOL     OW 3788  12.621   6.387  12.494
  652SOL    HW1 3789  12.679   6.363  12.422
  652SOL    HW2 3790  12.587   6.303  12.526
  653SOL     OW 3791  10.918   4.817  11.956
  653SOL    HW1 3792  10.865   4.858  11.888
  653SOL    HW2 3793  10.984   4.767  11.907
  654SOL     OW 3794  11.734   9.632  11.036
  654SOL    HW1 3795  11.655   9.652  11.086
  654SOL    HW2 3796  11.723   9.680  10.954
  655SOL     OW 3797   0.986  13.856   1.277
  655SOL    HW1 3798   0.970  13.769   1.314
  655SOL    HW2 3799   1.062  13.888   1.326
  656SOL     OW 3800  11.471   3.388   0.537
  656SOL    HW1 3801  11.526   3.465   0.543
  656SOL    HW2 3802  11.436   3.389   0.448
  657SOL     OW 3803   3.528  13.362   8.572
  657SOL    HW1 3804   3.502  13.375   8.663
  657SOL    HW2 3805   3.554  13.270   8.568
  658SOL     OW 3806   4.260   8.985   6.026
  658SOL    HW1 3807   4.242   8.967   5.934
  658SOL    HW2 3808   4.181   8.958   6.072
  659SOL     OW 3809   1.048   5.261  13.839
  659SOL    HW1 3810   1.110   5.213  13.783
  659SOL    HW2 3811   0.978   5.288  13.780
  660SOL     OW 3812   2.460   3.072  14.418
  660SOL    HW1 3813   2.505   3.029  14.491
  660SOL    HW2 3814   2.389   3.121  14.459
  661SOL     OW 3815   4.978   1.971   2.239
  661SOL    HW1 3816   4.998   1.877   2.242
  661SOL    HW2 3817   5.063   2.013   2.254
  662SOL     OW 3818   4.328   7.363  10.161
  662SOL    HW1 3819   4.315   7.457  10.172
  662SOL    HW2 3820   4.421   7.349  10.182
  663SOL     OW 3821   5.437  12.509   9.559
  663SOL    HW1 3822   5.456  12.428   9.606
  663SOL    HW2 3823   5.520  12.534   9.519
  664SOL     OW 3824   1.284   0.537   1.949
  664SOL    HW1 3825   1.232   0.602   1.996
  664SOL    HW2 3826   1.350   0.588   1.902
  665SOL     OW 3827   7.347   1.500   0.810
  665SOL    HW1 3828   7.344   1.596   0.810
  665SOL    HW2 3829   7.260   1.474   0.778
  666SOL     OW 3830   1.432   5.689   2.633
  666SOL    HW1 3831   1.444   5.640   2.552
  666SOL    HW2 3832   1.351   5.654   2.671
  667SOL     OW 3833  11.423  10.501   1.728
  667SOL    HW1 3834  11.450  10.561   1.798
  667SOL    HW2 3835  11.484  10.427   1.736
  668SOL     OW 3836   2.071  14.422   7.184
  668SOL    HW1 3837   2.010  14.349   7.180
  668SOL    HW2 3838   2.158  14.381   7.178
  669SOL     OW 3839  12.555   4.191   9.155
  669SOL    HW1 3840  12.515   4.125   9.212
  669SOL    HW2 3841  12.610   4.243   9.214
  670SOL     OW 3842  13.440   9.463   0.307
  670SOL    HW1 3843  13.529   9.481   0.337
  670SOL    HW2 3844  13.384   9.490   0.380
  671SOL     OW 3845   9.899   3.624   6.878
  671SOL    HW1 3846   9.965   3.572   6.833
  671SOL    HW2 3847   9.878   3.574   6.956
  672SOL     OW 3848  14.135   3.055   4.537
  672SOL    HW1 3849  14.049   3.014   4.544
  672SOL    HW2 3850  14.131   3.105   4.455
  673SOL     OW 3851  10.949   8.342   5.806
  673SOL    HW1 3852  11.044   8.332   5.795
  673SOL    HW2 3853  10.921   8.258   5.843
  674SOL     OW 3854   4.162   7.887   7.603
  674SOL    HW1 3855   4.149   7.794   7.623
  674SOL    HW2 3856   4.257   7.899   7.611
  675SOL     OW 3857   0.586   4.954   2.384
  675SOL    HW1 3858   0.498   4.943   2.419
  675SOL    HW2 3859   0.615   5.039   2.416
  676SOL     OW 3860   5.512   3.774  14.296
  676SOL    HW1 3861   5.542   3.684  14.303
  676SOL    HW2 3862   5.552   3.807  14.215
  677SOL     OW 3863   3.949   4.345   8.974
  677SOL    HW1 3864   4.001   4.424   8.957
  677SOL    HW2 3865   3.863   4.379   8.999
  678SOL     OW 3866  13.607   0.870   2.102
  678SOL    HW1 3867  13.582   0.963   2.094
  678SOL    HW2 3868  13.551   0.825   2.039
  679SOL     OW 3869   0.235  14.260   5.632
  679SOL    HW1 3870   0.282  14.270   5.549
  679SOL    HW2 3871   0.167  14.327   5.629
  680SOL     OW 3872   5.475   9.759  14.485
  680SOL    HW1 3873   5.472   9.831  14.423
  680SOL    HW2 3874   5.548   9.704  14.456
  681SOL     OW 3875  12.803   2.564  11.159
  681SOL    HW1 3876  12.856   2.643  11.161
  681SOL    HW2 3877  12.832   2.514  11.236
  682SOL     OW 3878  11.954   9.067   2.570
  682SOL    HW1 3879  11.973   9.076   2.663
  682SOL    HW2 3880  12.034   9.096   2.526
  683SOL     OW 3881   0.823   3.598   7.644
  683SOL    HW1 3882   0.752   3.599   7.580
  683SOL    HW2 3883   0.879   3.525   7.616
  684SOL     OW 3884  13.974  13.413   6.931
  684SOL    HW1 3885  13.911  13.466   6.882
  684SOL    HW2 3886  14.058  13.458   6.919
  685SOL     OW 3887   1.587   6.972  13.977
  685SOL    HW1 3888   1.662   6.918  14.000
  685SOL    HW2 3889   1.511   6.922  14.007
  686SOL     OW 3890  13.299  13.512   3.589
  686SOL    HW1 3891  13.234  13.501   3.658
  686SOL    HW2 3892  13.347  13.591   3.613
  687SOL     OW 3893   4.368   4.918  12.043
  687SOL    HW1 3894   4.437   4.984  12.046
  687SOL    HW2 3895   4.287   4.966  12.062
  688SOL     OW 3896  12.211   8.804  10.117
  688SOL    HW1 3897  12.234   8.752  10.040
  688SOL    HW2 3898  12.127   8.768  10.146
  689SOL     OW 3899   9.288  10.883   9.153
  689SOL    HW1 3900   9.285  10.788   9.166
  689SOL    HW2 3901   9.360  10.912   9.209
  690SOL     OW 3902  12.643  14.690   0.540
  690SOL    HW1 3903  12.737  14.684   0.556
  690SOL    HW2 3904  12.607  14.612   0.581
  691SOL     OW 3905   2.573  12.451   1.458
  691SOL    HW1 3906   2.591  12.357   1.471
  691SOL    HW2 3907   2.590  12.465   1.364
  692SOL     OW 3908  13.847  10.531   9.951
  692SOL    HW1 3909  13.754  10.511   9.937
  692SOL    HW2 3910  13.887  10.521   9.865
  693SOL     OW 3911   3.453   2.901  13.860
  693SOL    HW1 3912   3.472   2.972  13.921
  693SOL    HW2 3913   3.530   2.897  13.803
  694SOL     OW 3914   7.850   1.966   6.669
  694SOL    HW1 3915   7.926   1.981   6.612
  694SOL    HW2 3916   7.888   1.934   6.751
  695SOL     OW 3917   4.952   7.893  13.614
  695SOL    HW1 3918   4.914   7.816  13.573
  695SOL    HW2 3919   4.901   7.966  13.579
  696SOL     OW 3920   4.366  11.635  13.439
  696SOL    HW1 3921   4.302  11.625  13.509
  696SOL    HW2 3922   4.434  11.692  13.476
  697SOL     OW 3923  14.036   7.554   3.079
  697SOL    HW1 3924  14.054   7.566   3.172
  697SOL    HW2 3925  14.025   7.643   3.045
  698SOL     OW 3926   3.331   0.091  12.015
  698SOL    HW1 3927   3.241   0.068  11.992
  698SOL    HW2 3928   3.335   0.079  12.110
  699SOL     OW 3929   4.986   1.610  10.151
  699SOL    HW1 3930   5.000   1.550  10.225
  699SOL    HW2 3931   4.946   1.687  10.190
  700SOL     OW 3932   2.412  11.606  13.325
  700SOL    HW1 3933   2.499  11.627  13.361
  700SOL    HW2 3934   2.362  11.576  13.401
  701SOL     OW 3935  10.121   2.039   2.440
  701SOL    HW1 3936  10.104   1.945   2.451
  701SOL    HW2 3937  10.172   2.064   2.517
  702SOL     OW 3938  10.757  11.021   8.373
  702SOL    HW1 3939  10.731  10.929   8.367
  702SOL    HW2 3940  10.709  11.055   8.449
  703SOL     OW 3941  13.916  12.680  12.558
  703SOL    HW1 3942  13.910  12.671  12.463
  703SOL    HW2 3943  13.890  12.594  12.591
  704SOL     OW 3944  11.877  10.348   2.606
  704SOL    HW1 3945  11.834  10.431   2.629
  704SOL    HW2 3946  11.817  10.281   2.638
  705SOL     OW 3947  14.668   0.286   8.491
  705SOL    HW1 3948  14.761   0.287   8.513
  705SOL    HW2 3949  14.639   0.376   8.507
  706SOL     OW 3950   1.968  13.879   1.144
  706SOL    HW1 3951   2.048  13.840   1.109
  706SOL    HW2 3952   1.926  13.807   1.191
  707SOL     OW 3953   7.163   7.668  11.756
  707SOL    HW1 3954   7.083   7.630  11.793
  707SOL    HW2 3955   7.160   7.645  11.663
  708SOL     OW 3956   4.827   6.344  11.320
  708SOL    HW1 3957   4.887   6.412  11.290
  708SOL    HW2 3958   4.786   6.311  11.240
  709SOL     OW 3959  13.146  13.018   7.502
  709SOL    HW1 3960  13.098  13.090   7.543
  709SOL    HW2 3961  13.200  12.982   7.572
  710SOL     OW 3962   6.384   0.369  13.177
  710SOL    HW1 3963   6.294   0.396  13.194
  710SOL    HW2 3964   6.379   0.273  13.171
  711SOL     OW 3965  13.898  13.438   6.332
  711SOL    HW1 3966  13.824  13.440   6.393
  711SOL    HW2 3967  13.858  13.431   6.246
  712SOL     OW 3968   7.358  13.084   6.296
  712SOL    HW1 3969   7.267  13.068   6.321
  712SOL    HW2 3970   7.353  13.143   6.221
  713SOL     OW 3971   1.751   6.176   9.493
  713SOL    HW1 3972   1.675   6.232   9.509
  713SOL    HW2 3973   1.741   6.148   9.403
  714SOL     OW 3974  11.134   3.069   5.207
  714SOL    HW1 3975  11.075   3.136   5.241
  714SOL    HW2 3976  11.152   3.097   5.117
  715SOL     OW 3977   6.188   4.050   9.693
  715SOL    HW1 3978   6.256   3.998   9.649
  715SOL    HW2 3979   6.106   4.019   9.655
  716SOL     OW 3980  11.373   8.237   6.725
  716SOL    HW1 3981  11.331   8.211   6.643
  716SOL    HW2 3982  11.301   8.256   6.784
  717SOL     OW 3983   5.234   9.404   6.334
  717SOL    HW1 3984   5.296   9.332   6.335
  717SOL    HW2 3985   5.266   9.462   6.265
  718SOL     OW 3986   4.956   1.037  13.431
  718SOL    HW1 3987   4.922   1.094  13.500
  718SOL    HW2 3988   4.973   0.954  13.476
  719SOL     OW 3989   8.154   9.163  12.762
  719SOL    HW1 3990   8.102   9.189  12.838
  719SOL    HW2 3991   8.222   9.107  12.799
  720SOL     OW 3992   8.584  11.412   8.784
  720SOL    HW1 3993   8.626  11.496   8.765
  720SOL    HW2 3994   8.653  11.358   8.822
  721SOL     OW 3995  11.468   3.676  13.311
  721SOL    HW1 3996  11.561   3.681  13.288
  721SOL    HW2 3997  11.424   3.660  13.228
  722SOL     OW 3998   7.634  12.644   3.129
  722SOL    HW1 3999   7.539  12.652   3.134
  722SOL    HW2 4000   7.656  12.669   3.039
  723SOL     OW 4001  10.043   3.952   4.996
  723SOL    HW1 4002   9.965   3.962   5.050
  723SOL    HW2 4003  10.040   4.026   4.935
  724SOL     OW 4004   2.703   3.183   3.102
  724SOL    HW1 4005   2.727   3.271   3.132
  724SOL    HW2 4006   2.628   3.197   3.045
  725SOL     OW 4007   1.321   0.448  13.238
  725SOL    HW1 4008   1.251   0.467  13.301
  725SOL    HW2 4009   1.402   0.458  13.289
  726SOL     OW 4010   8.893   1.597   3.561
  726SOL    HW1 4011   8.975   1.645   3.563
  726SOL    HW2 4012   8.849   1.620   3.643
  727SOL     OW 4013   3.479   6.414   2.118
  727SOL    HW1 4014   3.565   6.438   2.153
  727SOL    HW2 4015   3.449   6.343   2.176
  728SOL     OW 4016  12.593   3.015  14.187
  728SOL    HW1 4017  12.648   3.091  14.207
  728SOL    HW2 4018  12.518   3.024  14.246
  729SOL     OW 4019   5.864   5.671  10.739
  729SOL    HW1 4020   5.874   5.604  10.672
  729SOL    HW2 4021   5.952   5.710  10.748
  730SOL     OW 4022  11.841   0.797   0.591
  730SOL    HW1 4023  11.753   0.806   0.629
  730SOL    HW2 4024  11.900   0.808   0.665
  731SOL     OW 4025  14.319  11.864  10.261
  731SOL    HW1 4026  14.378  11.939  10.264
  731SOL    HW2 4027  14.369  11.792  10.300
  732SOL     OW 4028   6.194   7.237  14.778
  732SOL    HW1 4029   6.186   7.332  14.771
  732SOL    HW2 4030   6.191   7.220  14.872
  733SOL     OW 4031   5.112  11.439   8.343
  733SOL    HW1 4032   5.158  11.413   8.263
  733SOL    HW2 4033   5.181  11.471   8.402
  734SOL     OW 4034   2.229   0.489   7.374
  734SOL    HW1 4035   2.252   0.411   7.424
  734SOL    HW2 4036   2.136   0.477   7.353
  735SOL     OW 4037   5.183   7.051   7.164
  735SOL    HW1 4038   5.130   7.055   7.244
  735SOL    HW2 4039   5.190   7.141   7.135
  736SOL     OW 4040   6.838  11.971  10.897
  736SOL    HW1 4041   6.886  11.948  10.976
  736SOL    HW2 4042   6.832  11.890  10.847
  737SOL     OW 4043   9.310   5.301   5.451
  737SOL    HW1 4044   9.258   5.362   5.503
  737SOL    HW2 4045   9.247   5.240   5.413
  738SOL     OW 4046   3.050   2.660  11.261
  738SOL    HW1 4047   3.098   2.647  11.179
  738SOL    HW2 4048   3.105   2.720  11.312
  739SOL     OW 4049  12.090  11.092  12.482
  739SOL    HW1 4050  12.091  11.007  12.437
  739SOL    HW2 4051  12.163  11.087  12.545
  740SOL     OW 4052   4.528  14.704   6.823
  740SOL    HW1 4053   4.563  14.742   6.743
  740SOL    HW2 4054   4.488  14.778   6.869
  741SOL     OW 4055  12.202  10.497  10.772
  741SOL    HW1 4056  12.269  10.455  10.718
  741SOL    HW2 4057  12.222  10.591  10.765
  742SOL     OW 4058   1.891   2.947   0.810
  742SOL    HW1 4059   1.942   2.919   0.734
  742SOL    HW2 4060   1.805   2.970   0.773
  743SOL     OW 4061   3.572   3.434  14.046
  743SOL    HW1 4062   3.531   3.506  13.997
  743SOL    HW2 4063   3.500   3.375  14.067
  744SOL     OW 4064   2.685   0.094   4.386
  744SOL    HW1 4065   2.723   0.182   4.388
  744SOL    HW2 4066   2.594   0.107   4.414
  745SOL     OW 4067   4.931  11.672   4.839
  745SOL    HW1 4068   4.884  11.710   4.913
  745SOL    HW2 4069   4.967  11.747   4.791
  746SOL     OW 4070   4.865   2.280  14.113
  746SOL    HW1 4071   4.860   2.281  14.208
  746SOL    HW2 4072   4.814   2.204  14.086
  747SOL     OW 4073   7.060   6.808   5.534
  747SOL    HW1 4074   7.003   6.877   5.499
  747SOL    HW2 4075   7.143   6.819   5.487
  748SOL     OW 4076   2.120   0.958   9.849
  748SOL    HW1 4077   2.212   0.944   9.828
  748SOL    HW2 4078   2.121   1.029   9.913
  749SOL     OW 4079  13.451  10.397   4.120
  749SOL    HW1 4080  13.542  10.367   4.126
  749SOL    HW2 4081  13.453  10.486   4.153
  750SOL     OW 4082   9.823  14.119   5.999
  750SOL    HW1 4083   9.751  14.076   6.045
  750SOL    HW2 4084   9.824  14.078   5.912
  751SOL     OW 4085   7.660  12.057   6.659
  751SOL    HW1 4086   7.749  12.091   6.660
  751SOL    HW2 4087   7.670  11.962   6.657
  752SOL     OW 4088   4.404   0.857   2.483
  752SOL    HW1 4089   4.404   0.762   2.475
  752SOL    HW2 4090   4.486   0.885   2.443
  753SOL     OW 4091  12.069  12.326   1.643
  753SOL    HW1 4092  12.018  12.281   1.710
  753SOL    HW2 4093  12.117  12.256   1.598
  754SOL     OW 4094   1.271   7.898  12.783
  754SOL    HW1 4095   1.192   7.865  12.826
  754SOL    HW2 4096   1.280   7.988  12.815
  755SOL     OW 4097   6.819  14.335   0.774
  755SOL    HW1 4098   6.793  14.274   0.842
  755SOL    HW2 4099   6.914  14.330   0.771
  756SOL     OW 4100   6.768   7.772   8.788
  756SOL    HW1 4101   6.774   7.686   8.831
  756SOL    HW2 4102   6.676   7.780   8.763
  757SOL     OW 4103   5.680   7.231   7.750
  757SOL    HW1 4104   5.680   7.271   7.663
  757SOL    HW2 4105   5.711   7.142   7.736
  758SOL     OW 4106   2.572   4.515   3.585
  758SOL    HW1 4107   2.603   4.580   3.648
  758SOL    HW2 4108   2.525   4.566   3.519
  759SOL     OW 4109  10.445   0.834  13.304
  759SOL    HW1 4110  10.494   0.838  13.387
  759SOL    HW2 4111  10.371   0.775  13.323
  760SOL     OW 4112   5.478   8.837   4.668
  760SOL    HW1 4113   5.544   8.873   4.727
  760SOL    HW2 4114   5.528   8.789   4.603
  761SOL     OW 4115   1.945   7.275   8.671
  761SOL    HW1 4116   1.962   7.368   8.682
  761SOL    HW2 4117   1.851   7.269   8.656
  762SOL     OW 4118  12.247   7.683  10.034
  762SOL    HW1 4119  12.342   7.694  10.026
  762SOL    HW2 4120  12.233   7.663  10.127
  763SOL     OW 4121  14.420  13.957  14.686
  763SOL    HW1 4122  14.404  14.043  14.725
  763SOL    HW2 4123  14.482  13.974  14.615
  764SOL     OW 4124   2.574   1.889  11.812
  764SOL    HW1 4125   2.524   1.945  11.871
  764SOL    HW2 4126   2.509   1.856  11.750
  765SOL     OW 4127  12.463  12.602   7.909
  765SOL    HW1 4128  12.416  12.580   7.989
  765SOL    HW2 4129  12.426  12.686   7.881
  766SOL     OW 4130   0.639   1.220   5.141
  766SOL    HW1 4131   0.698   1.247   5.212
  766SOL    HW2 4132   0.697   1.210   5.065
  767SOL     OW 4133   6.826   3.211   6.406
  767SOL    HW1 4134   6.742   3.257   6.410
  767SOL    HW2 4135   6.859   3.230   6.318
  768SOL     OW 4136  13.053   4.428   0.918
  768SOL    HW1 4137  13.046   4.412   0.824
  768SOL    HW2 4138  12.988   4.369   0.957
  769SOL     OW 4139   0.594   4.865   4.358
  769SOL    HW1 4140   0.661   4.916   4.312
  769SOL    HW2 4141   0.637   4.834   4.438
  770SOL     OW 4142   0.754  11.941  11.315
  770SOL    HW1 4143   0.728  11.849  11.323
  770SOL    HW2 4144   0.762  11.972  11.405
  771SOL     OW 4145  13.881   2.017  14.391
  771SOL    HW1 4146  13.969   2.019  14.353
  771SOL    HW2 4147  13.861   1.924  14.399
  772SOL     OW 4148  12.358   8.191   8.912
  772SOL    HW1 4149  12.377   8.163   9.002
  772SOL    HW2 4150  12.263   8.200   8.909
  773SOL     OW 4151   3.545  11.232   6.409
  773SOL    HW1 4152   3.565  11.306   6.352
  773SOL    HW2 4153   3.588  11.254   6.492
  774SOL     OW 4154   9.057   4.067  10.958
  774SOL    HW1 4155   9.014   4.008  11.020
  774SOL    HW2 4156   9.058   4.152  11.002
  775SOL     OW 4157  13.463   8.937  13.271
  775SOL    HW1 4158  13.515   9.017  13.283
  775SOL    HW2 4159  13.517   8.883  13.214
  776SOL     OW 4160  14.056  10.782   6.429
  776SOL    HW1 4161  14.126  10.737   6.478
  776SOL    HW2 4162  14.024  10.849   6.490
  777SOL     OW 4163   5.115  10.726   6.835
  777SOL    HW1 4164   5.081  10.813   6.853
  777SOL    HW2 4165   5.201  10.741   6.796
  778SOL     OW 4166   7.097   1.737   5.676
  778SOL    HW1 4167   7.071   1.801   5.610
  778SOL    HW2 4168   7.121   1.659   5.624
  779SOL     OW 4169  10.192   7.383   6.621
  779SOL    HW1 4170  10.246   7.456   6.591
  779SOL    HW2 4171  10.122   7.424   6.672
  780SOL     OW 4172   4.456   3.359  10.823
  780SOL    HW1 4173   4.410   3.285  10.783
  780SOL    HW2 4174   4.538   3.366  10.773
  781SOL     OW 4175   1.928   1.194   3.222
  781SOL    HW1 4176   1.947   1.223   3.311
  781SOL    HW2 4177   2.012   1.164   3.188
  782SOL     OW 4178   1.310  11.798  14.397
  782SOL    HW1 4179   1.328  11.847  14.478
  782SOL    HW2 4180   1.324  11.862  14.327
  783SOL     OW 4181   0.167  14.516   9.237
  783SOL    HW1 4182   0.190  14.437   9.189
  783SOL    HW2 4183   0.225  14.584   9.202
  784SOL     OW 4184  12.201   0.976  11.420
  784SOL    HW1 4185  12.198   1.067  11.390
  784SOL    HW2 4186  12.139   0.930  11.364
  785SOL     OW 4187   4.444  10.595   8.775
  785SOL    HW1 4188   4.430  10.580   8.869
  785SOL    HW2 4189   4.443  10.508   8.736
  786SOL     OW 4190   6.104   0.753  12.664
  786SOL    HW1 4191   6.132   0.829  12.613
  786SOL    HW2 4192   6.180   0.733  12.720
  787SOL     OW 4193   4.553   2.596  14.427
  787SOL    HW1 4194   4.552   2.649  14.508
  787SOL    HW2 4195   4.483   2.532  14.440
  788SOL     OW 4196   2.426   2.213   3.699
  788SOL    HW1 4197   2.425   2.141   3.635
  788SOL    HW2 4198   2.475   2.177   3.773
  789SOL     OW 4199   9.284  11.339  13.281
  789SOL    HW1 4200   9.248  11.276  13.345
  789SOL    HW2 4201   9.311  11.285  13.207
  790SOL     OW 4202   7.162  11.077   8.791
  790SOL    HW1 4203   7.138  11.030   8.711
  790SOL    HW2 4204   7.222  11.018   8.837
  791SOL     OW 4205   3.251   2.813   5.384
  791SOL    HW1 4206   3.218   2.724   5.375
  791SOL    HW2 4207   3.318   2.807   5.452
  792SOL     OW 4208  10.311   8.383  14.140
  792SOL    HW1 4209  10.216   8.374  14.137
  792SOL    HW2 4210  10.334   8.434  14.063
  793SOL     OW 4211   2.972  11.719   4.293
  793SOL    HW1 4212   3.012  11.801   4.321
  793SOL    HW2 4213   3.042  11.672   4.248
  794SOL     OW 4214   5.747   1.684  11.159
  794SOL    HW1 4215   5.705   1.734  11.089
  794SOL    HW2 4216   5.748   1.744  11.234
  795SOL     OW 4217   2.019  11.142   5.498
  795SOL    HW1 4218   1.937  11.184   5.525
  795SOL    HW2 4219   1.995  11.089   5.422
  796SOL     OW 4220  11.066  13.158  11.847
  796SOL    HW1 4221  11.083  13.065  11.835
  796SOL    HW2 4222  11.112  13.181  11.928
  797SOL     OW 4223  13.309   0.173  14.364
  797SOL    HW1 4224  13.218   0.151  14.386
  797SOL    HW2 4225  13.319   0.144  14.273
  798SOL     OW 4226  14.741   8.264  11.732
  798SOL    HW1 4227  14.752   8.174  11.764
  798SOL    HW2 4228  14.794   8.318  11.790
  799SOL     OW 4229  10.324   1.618   5.143
  799SOL    HW1 4230  10.272   1.645   5.218
  799SOL    HW2 4231  10.351   1.701   5.101
  800SOL     OW 4232   7.456  11.530   4.406
  800SOL    HW1 4233   7.487  11.463   4.345
  800SOL    HW2 4234   7.377  11.565   4.365
  801SOL     OW 4235  10.290   4.446  11.231
  801SOL    HW1 4236  10.201   4.413  11.248
  801SOL    HW2 4237  10.281   4.541  11.235
  802SOL     OW 4238  14.207   1.308   2.944
  802SOL    HW1 4239  14.237   1.368   3.013
  802SOL    HW2 4240  14.112   1.318   2.943
  803SOL     OW 4241  11.477   2.436  11.937
  803SOL    HW1 4242  11.411   2.400  11.877
  803SOL    HW2 4243  11.559   2.394  11.910
  804SOL     OW 4244   3.665  13.254   6.644
  804SOL    HW1 4245   3.755  13.283   6.659
  804SOL    HW2 4246   3.661  13.236   6.550
  805SOL     OW 4247   7.547   5.283  13.125
  805SOL    HW1 4248   7.569   5.285  13.032
  805SOL    HW2 4249   7.523   5.373  13.145
  806SOL     OW 4250  13.733   1.276   2.809
  806SOL    HW1 4251  13.730   1.317   2.895
  806SOL    HW2 4252  13.812   1.311   2.767
  807SOL     OW 4253  10.840   0.013   8.142
  807SOL    HW1 4254  10.877  14.875   8.228
  807SOL    HW2 4255  10.813  14.806   8.110
  808SOL     OW 4256  10.397   1.006   0.838
  808SOL    HW1 4257  10.491   0.990   0.843
  808SOL    HW2 4258  10.390   1.100   0.820
  809SOL     OW 4259   5.071   0.915   4.764
  809SOL    HW1 4260   5.082   0.992   4.820
  809SOL    HW2 4261   5.159   0.879   4.755
  810SOL     OW 4262   8.473   0.326   7.679
  810SOL    HW1 4263   8.489   0.232   7.669
  810SOL    HW2 4264   8.471   0.340   7.774
  811SOL     OW 4265   9.886   1.082  11.395
  811SOL    HW1 4266   9.839   1.121  11.321
  811SOL    HW2 4267   9.882   0.988  11.378
  812SOL     OW 4268   8.740  13.088   0.834
  812SOL    HW1 4269   8.677  13.158   0.851
  812SOL    HW2 4270   8.750  13.044   0.918
  813SOL     OW 4271  12.465   9.096   4.460
  813SOL    HW1 4272  12.557   9.081   4.481
  813SOL    HW2 4273  12.417   9.057   4.532
  814SOL     OW 4274   1.976  10.960   4.293
  814SOL    HW1 4275   1.912  10.978   4.362
  814SOL    HW2 4276   1.976  11.040   4.239
  815SOL     OW 4277  10.927   1.463   6.699
  815SOL    HW1 4278  10.941   1.475   6.605
  815SOL    HW2 4279  10.927   1.551   6.735
  816SOL     OW 4280   0.538   9.528   6.735
  816SOL    HW1 4281   0.525   9.621   6.757
  816SOL    HW2 4282   0.454   9.501   6.698
  817SOL     OW 4283  14.355   0.141  10.083
  817SOL    HW1 4284  14.421   0.076  10.104
  817SOL    HW2 4285  14.375   0.168   9.993
  818SOL     OW 4286   4.266   9.522  11.519
  818SOL    HW1 4287   4.278   9.493  11.428
  818SOL    HW2 4288   4.316   9.603  11.525
  819SOL     OW 4289   8.223   8.560   1.754
  819SOL    HW1 4290   8.259   8.550   1.666
  819SOL    HW2 4291   8.300   8.571   1.810
  820SOL     OW 4292   9.708  10.862   9.150
  820SOL    HW1 4293   9.632  10.857   9.207
  820SOL    HW2 4294   9.736  10.953   9.156
  821SOL     OW 4295   4.843  14.539   5.666
  821SOL    HW1 4296   4.864  14.447   5.650
  821SOL    HW2 4297   4.902  14.565   5.736
  822SOL     OW 4298  10.173   3.728   4.283
  822SOL    HW1 4299  10.123   3.772   4.213
  822SOL    HW2 4300  10.111   3.719   4.355
  823SOL     OW 4301   2.713   8.016   3.843
  823SOL    HW1 4302   2.622   8.046   3.841
  823SOL    HW2 4303   2.738   8.022   3.936
  824SOL     OW 4304   1.560   8.445  13.017
  824SOL    HW1 4305   1.607   8.412  12.941
  824SOL    HW2 4306   1.497   8.376  13.039
  825SOL     OW 4307   5.429   0.810  11.701
  825SOL    HW1 4308   5.424   0.753  11.624
  825SOL    HW2 4309   5.370   0.769  11.764
  826SOL     OW 4310  14.126  14.754   1.551
  826SOL    HW1 4311  14.048  14.803   1.525
  826SOL    HW2 4312  14.093  14.667   1.575
  827SOL     OW 4313   3.666   6.390   8.330
  827SOL    HW1 4314   3.615   6.468   8.354
  827SOL    HW2 4315   3.618   6.352   8.256
  828SOL     OW 4316   7.932   5.599   9.862
  828SOL    HW1 4317   7.991   5.634   9.796
  828SOL    HW2 4318   7.985   5.534   9.909
  829SOL     OW 4319   0.879   4.004  13.461
  829SOL    HW1 4320   0.893   4.075  13.523
  829SOL    HW2 4321   0.963   3.992  13.418
  830SOL     OW 4322   4.750   6.089   3.386
  830SOL    HW1 4323   4.808   6.092   3.310
  830SOL    HW2 4324   4.702   6.172   3.383
  831SOL     OW 4325  12.981   6.624  10.759
  831SOL    HW1 4326  13.042   6.690  10.724
  831SOL    HW2 4327  13.019   6.541  10.732
  832SOL     OW 4328   5.489  12.116  12.424
  832SOL    HW1 4329   5.505  12.056  12.496
  832SOL    HW2 4330   5.414  12.080  12.377
  833SOL     OW 4331  11.008   6.778   0.201
  833SOL    HW1 4332  11.029   6.758   0.293
  833SOL    HW2 4333  11.073   6.842   0.175
  834SOL     OW 4334  10.798   0.895   1.715
  834SOL    HW1 4335  10.738   0.937   1.776
  834SOL    HW2 4336  10.792   0.947   1.635
  835SOL     OW 4337  13.195   1.822  13.907
  835SOL    HW1 4338  13.149   1.752  13.954
  835SOL    HW2 4339  13.163   1.814  13.817
  836SOL     OW 4340  11.907  11.238   9.720
  836SOL    HW1 4341  11.945  11.195   9.796
  836SOL    HW2 4342  11.889  11.167   9.658
  837SOL     OW 4343   6.341  11.152   3.225
  837SOL    HW1 4344   6.301  11.112   3.147
  837SOL    HW2 4345   6.364  11.241   3.197
  838SOL     OW 4346   1.009   8.062  14.641
  838SOL    HW1 4347   0.922   8.062  14.680
  838SOL    HW2 4348   1.022   8.152  14.611
  839SOL     OW 4349   4.701   8.467   9.840
  839SOL    HW1 4350   4.678   8.552   9.801
  839SOL    HW2 4351   4.654   8.403   9.786
  840SOL     OW 4352   0.046  14.293  14.415
  840SOL    HW1 4353  14.867  14.369  14.416
  840SOL    HW2 4354   0.099  14.304  14.336
  841SOL     OW 4355   5.585   9.157  13.041
  841SOL    HW1 4356   5.544   9.146  13.127
  841SOL    HW2 4357   5.668   9.201  13.058
  842SOL     OW 4358   0.105   0.498   9.175
  842SOL    HW1 4359   0.109   0.409   9.209
  842SOL    HW2 4360   0.014   0.509   9.148
  843SOL     OW 4361   0.314   1.332  11.010
  843SOL    HW1 4362   0.264   1.259  10.973
  843SOL    HW2 4363   0.299   1.327  11.104
  844SOL     OW 4364   0.817   3.498  13.232
  844SOL    HW1 4365   0.876   3.573  13.237
  844SOL    HW2 4366   0.769   3.500  13.315
  845SOL     OW 4367   4.887   1.013   8.566
  845SOL    HW1 4368   4.836   0.998   8.645
  845SOL    HW2 4369   4.831   1.066   8.511
  846SOL     OW 4370   8.982   8.707   2.997
  846SOL    HW1 4371   9.063   8.755   2.981
  846SOL    HW2 4372   8.943   8.697   2.910
  847SOL     OW 4373  12.438  12.101   7.423
  847SOL    HW1 4374  12.480  12.058   7.497
  847SOL    HW2 4375  12.358  12.050   7.408
  848SOL     OW 4376   3.400   0.914  11.765
  848SOL    HW1 4377   3.336   0.843  11.770
  848SOL    HW2 4378   3.467   0.891  11.829
  849SOL     OW 4379   4.462   9.609   1.949
  849SOL    HW1 4380   4.376   9.603   1.908
  849SOL    HW2 4381   4.452   9.564   2.033
  850SOL     OW 4382  10.478   0.863   9.866
  850SOL    HW1 4383  10.390   0.900   9.865
  850SOL    HW2 4384  10.491   0.828   9.777
  851SOL     OW 4385  13.497  13.039   7.696
  851SOL    HW1 4386  13.537  13.029   7.610
  851SOL    HW2 4387  13.432  12.969   7.700
  852SOL     OW 4388   0.115   4.617   8.952
  852SOL    HW1 4389   0.021   4.603   8.951
  852SOL    HW2 4390   0.148   4.558   9.019
  853SOL     OW 4391   5.022  13.952   5.756
  853SOL    HW1 4392   5.086  13.888   5.788
  853SOL    HW2 4393   4.957  13.959   5.826
  854SOL     OW 4394  13.204   3.823   3.413
  854SOL    HW1 4395  13.188   3.842   3.505
  854SOL    HW2 4396  13.191   3.728   3.405
  855SOL     OW 4397   8.562   4.151   0.629
  855SOL    HW1 4398   8.593   4.069   0.666
  855SOL    HW2 4399   8.514   4.194   0.700
  856SOL     OW 4400   7.921  14.489   5.269
  856SOL    HW1 4401   7.963  14.462   5.187
  856SOL    HW2 4402   7.829  14.461   5.258
  857SOL     OW 4403   5.994  12.083   3.676
  857SOL    HW1 4404   6.020  11.996   3.705
  857SOL    HW2 4405   6.071  12.138   3.693
  858SOL     OW 4406   5.308  10.804   1.190
  858SOL    HW1 4407   5.389  10.755   1.198
  858SOL    HW2 4408   5.328  10.890   1.227
  859SOL     OW 4409   2.241  14.806   6.205
  859SOL    HW1 4410   2.151  14.801   6.174
  859SOL    HW2 4411   2.240  14.879   6.267
  860SOL     OW 4412   0.079   8.750  13.983
  860SOL    HW1 4413   0.113   8.666  14.012
  860SOL    HW2 4414   0.099   8.810  14.055
  861SOL     OW 4415   7.537   8.692  10.969
  861SOL    HW1 4416   7.472   8.621  10.971
  861SOL    HW2 4417   7.528   8.735  11.054
  862SOL     OW 4418   0.187   0.254   4.346
  862SOL    HW1 4419   0.123   0.187   4.370
  862SOL    HW2 4420   0.187   0.254   4.250
  863SOL     OW 4421  11.796   8.125   9.170
  863SOL    HW1 4422  11.708   8.151   9.198
  863SOL    HW2 4423  11.854   8.155   9.240
  864SOL     OW 4424  10.764   1.232   2.809
  864SOL    HW1 4425  10.698   1.252   2.876
  864SOL    HW2 4426  10.775   1.314   2.760
  865SOL     OW 4427   0.478   0.103   0.607
  865SOL    HW1 4428   0.402   0.098   0.665
  865SOL    HW2 4429   0.467   0.032   0.545
  866SOL     OW 4430  14.583   3.751   7.344
  866SOL    HW1 4431  14.581   3.819   7.277
  866SOL    HW2 4432  14.498   3.759   7.388
  867SOL     OW 4433   0.918  10.651  11.944
  867SOL    HW1 4434   0.845  10.710  11.965
  867SOL    HW2 4435   0.919  10.587  12.015
  868SOL     OW 4436   7.250   3.510  10.547
  868SOL    HW1 4437   7.275   3.584  10.491
  868SOL    HW2 4438   7.195   3.456  10.491
  869SOL     OW 4439   8.790   8.134  10.488
  869SOL    HW1 4440   8.820   8.191  10.418
  869SOL    HW2 4441   8.849   8.152  10.561
  870SOL     OW 4442   4.277   0.715   9.958
  870SOL    HW1 4443   4.256   0.776   9.887
  870SOL    HW2 4444   4.369   0.733   9.978
  871SOL     OW 4445   0.861   9.871   0.494
  871SOL    HW1 4446   0.930   9.868   0.560
  871SOL    HW2 4447   0.789   9.822   0.533
  872SOL     OW 4448   9.707  13.259   6.978
  872SOL    HW1 4449   9.720  13.298   7.065
  872SOL    HW2 4450   9.624  13.296   6.948
  873SOL     OW 4451  13.002   0.178   1.406
  873SOL    HW1 4452  13.045   0.141   1.483
  873SOL    HW2 4453  13.066   0.240   1.370
  874SOL     OW 4454   0.797   5.362   5.749
  874SOL    HW1 4455   0.850   5.326   5.820
  874SOL    HW2 4456   0.860   5.404   5.691
  875SOL     OW 4457   3.096   5.648  10.813
  875SOL    HW1 4458   3.099   5.577  10.749
  875SOL    HW2 4459   3.188   5.670  10.829
  876SOL     OW 4460   5.740  12.921   0.157
  876SOL    HW1 4461   5.773  12.882   0.238
  876SOL    HW2 4462   5.698  13.003   0.185
  877SOL     OW 4463  11.324   0.236   8.100
  877SOL    HW1 4464  11.335   0.210   8.192
  877SOL    HW2 4465  11.285   0.324   8.105
  878SOL     OW 4466   3.623   0.306  13.067
  878SOL    HW1 4467   3.531   0.332  13.066
  878SOL    HW2 4468   3.624   0.219  13.029
  879SOL     OW 4469  14.755  12.303   1.217
  879SOL    HW1 4470  14.691  12.274   1.282
  879SOL    HW2 4471  14.804  12.372   1.261
  880SOL     OW 4472   5.181   2.383   1.697
  880SOL    HW1 4473   5.112   2.402   1.760
  880SOL    HW2 4474   5.158   2.296   1.662
  881SOL     OW 4475   0.823  13.754   6.882
  881SOL    HW1 4476   0.825  13.722   6.792
  881SOL    HW2 4477   0.882  13.695   6.930
  882SOL     OW 4478   2.647   7.397  13.413
  882SOL    HW1 4479   2.698   7.319  13.437
  882SOL    HW2 4480   2.707   7.470  13.424
  883SOL     OW 4481   4.063   1.096   5.046
  883SOL    HW1 4482   4.059   1.183   5.086
  883SOL    HW2 4483   3.972   1.065   5.048
  884SOL     OW 4484   3.371   2.184   0.058
  884SOL    HW1 4485   3.353   2.256   0.118
  884SOL    HW2 4486   3.464   2.164   0.070
  885SOL     OW 4487   0.455   6.106   3.199
  885SOL    HW1 4488   0.472   6.128   3.107
  885SOL    HW2 4489   0.506   6.026   3.214
  886SOL     OW 4490   1.818   7.077   2.923
  886SOL    HW1 4491   1.824   6.989   2.885
  886SOL    HW2 4492   1.820   7.062   3.018
  887SOL     OW 4493  14.644   5.108   9.985
  887SOL    HW1 4494  14.644   5.162   9.906
  887SOL    HW2 4495  14.690   5.028   9.960
  888SOL     OW 4496   5.847  12.189   4.227
  888SOL    HW1 4497   5.789  12.120   4.259
  888SOL    HW2 4498   5.792  12.242   4.169
  889SOL     OW 4499  11.516   1.429   6.661
  889SOL    HW1 4500  11.584   1.411   6.596
  889SOL    HW2 4501  11.497   1.344   6.700
  890SOL     OW 4502   9.943   4.631   0.892
  890SOL    HW1 4503  10.011   4.682   0.848
  890SOL    HW2 4504   9.952   4.543   0.855
  891SOL     OW 4505  13.477   3.079   0.079
  891SOL    HW1 4506  13.569   3.076   0.103
  891SOL    HW2 4507  13.453   2.987   0.067
  892SOL     OW 4508   8.232   4.635   1.652
  892SOL    HW1 4509   8.141   4.612   1.631
  892SOL    HW2 4510   8.262   4.683   1.575
  893SOL     OW 4511  11.465   4.287   5.213
  893SOL    HW1 4512  11.461   4.306   5.306
  893SOL    HW2 4513  11.474   4.191   5.208
  894SOL     OW 4514  14.738  10.248  13.473
  894SOL    HW1 4515  14.702  10.168  13.435
  894SOL    HW2 4516  14.830  10.228  13.489
  895SOL     OW 4517   6.910   3.872   0.483
  895SOL    HW1 4518   6.967   3.797   0.463
  895SOL    HW2 4519   6.967   3.935   0.526
  896SOL     OW 4520   4.028   3.867   2.073
  896SOL    HW1 4521   3.971   3.873   1.997
  896SOL    HW2 4522   3.980   3.911   2.143
  897SOL     OW 4523   3.975   7.960  14.169
  897SOL    HW1 4524   4.033   7.885  14.154
  897SOL    HW2 4525   4.032   8.029  14.201
  898SOL     OW 4526  11.939   8.513   5.757
  898SOL    HW1 4527  11.892   8.565   5.692
  898SOL    HW2 4528  11.919   8.555   5.841
  899SOL     OW 4529  10.845  14.557   1.792
  899SOL    HW1 4530  10.895  14.515   1.861
  899SOL    HW2 4531  10.762  14.508   1.789
  900SOL     OW 4532   7.767   6.963   8.738
  900SOL    HW1 4533   7.756   6.871   8.714
  900SOL    HW2 4534   7.683   6.990   8.774
  901SOL     OW 4535  10.801  10.911  12.840
  901SOL    HW1 4536  10.716  10.881  12.809
  901SOL    HW2 4537  10.842  10.953  12.764
  902SOL     OW 4538   0.306   9.055   1.924
  902SOL    HW1 4539   0.220   9.070   1.885
  902SOL    HW2 4540   0.344   8.984   1.873
  903SOL     OW 4541   4.874   4.546  11.114
  903SOL    HW1 4542   4.816   4.472  11.133
  903SOL    HW2 4543   4.890   4.587  11.199
  904SOL     OW 4544   2.416  13.972   7.793
  904SOL    HW1 4545   2.460  13.995   7.875
  904SOL    HW2 4546   2.468  13.901   7.757
  905SOL     OW 4547  10.777   7.349   0.114
  905SOL    HW1 4548  10.785   7.265   0.158
  905SOL    HW2 4549  10.742   7.409   0.180
  906SOL     OW 4550   3.950  14.053  13.309
  906SOL    HW1 4551   4.036  14.070  13.348
  906SOL    HW2 4552   3.928  14.134  13.263
  907SOL     OW 4553   6.514  10.382   3.348
  907SOL    HW1 4554   6.448  10.447   3.375
  907SOL    HW2 4555   6.567  10.427   3.283
  908SOL     OW 4556   4.308  10.567  13.787
  908SOL    HW1 4557   4.302  10.663  13.793
  908SOL    HW2 4558   4.394  10.550  13.750
  909SOL     OW 4559   2.478   3.615   0.257
  909SOL    HW1 4560   2.520   3.697   0.282
  909SOL    HW2 4561   2.549   3.561   0.224
  910SOL     OW 4562   8.462  14.813  10.640
  910SOL    HW1 4563   8.544  14.820  10.689
  910SOL    HW2 4564   8.466   0.007  10.577
  911SOL     OW 4565   6.960  12.430   1.721
  911SOL    HW1 4566   6.961  12.421   1.626
  911SOL    HW2 4567   7.050  12.414   1.748
  912SOL     OW 4568   2.446  12.331   2.401
  912SOL    HW1 4569   2.369  12.365   2.445
  912SOL    HW2 4570   2.420  12.243   2.373
  913SOL     OW 4571   9.663   3.129   5.671
  913SOL    HW1 4572   9.693   3.192   5.606
  913SOL    HW2 4573   9.588   3.086   5.630
  914SOL     OW 4574   5.152   9.876   8.047
  914SOL    HW1 4575   5.083   9.812   8.031
  914SOL    HW2 4576   5.232   9.833   8.016
  915SOL     OW 4577   3.070   5.264   5.298
  915SOL    HW1 4578   3.146   5.321   5.308
  915SOL    HW2 4579   3.107   5.175   5.300
  916SOL     OW 4580   7.563   3.854   4.228
  916SOL    HW1 4581   7.546   3.761   4.210
  916SOL    HW2 4582   7.478   3.896   4.217
  917SOL     OW 4583  11.644  13.268  11.298
  917SOL    HW1 4584  11.731  13.230  11.311
  917SOL    HW2 4585  11.609  13.279  11.386
  918SOL     OW 4586   5.240   2.538   2.983
  918SOL    HW1 4587   5.325   2.580   3.000
  918SOL    HW2 4588   5.261   2.445   2.975
  919SOL     OW 4589   0.361   1.719   0.050
  919SOL    HW1 4590   0.389   1.752  14.844
  919SOL    HW2 4591   0.313   1.791   0.090
  920SOL     OW 4592   3.273   4.727  10.480
  920SOL    HW1 4593   3.283   4.750  10.388
  920SOL    HW2 4594   3.179   4.735  10.497
  921SOL     OW 4595   9.157  13.127  10.313
  921SOL    HW1 4596   9.088  13.194  10.312
  921SOL    HW2 4597   9.128  13.064  10.247
  922SOL     OW 4598   3.516   5.463   3.862
  922SOL    HW1 4599   3.535   5.553   3.887
  922SOL    HW2 4600   3.426   5.448   3.890
  923SOL     OW 4601  13.072  10.345   6.746
  923SOL    HW1 4602  13.105  10.289   6.817
  923SOL    HW2 4603  13.088  10.295   6.666
  924SOL     OW 4604   5.685   4.709   2.703
  924SOL    HW1 4605   5.772   4.706   2.663
  924SOL    HW2 4606   5.685   4.638   2.767
  925SOL     OW 4607  13.090   9.998  13.341
  925SOL    HW1 4608  13.100   9.933  13.410
  925SOL    HW2 4609  13.000   9.987  13.310
  926SOL     OW 4610  10.064   6.452   6.537
  926SOL    HW1 4611  10.023   6.503   6.468
  926SOL    HW2 4612  10.144   6.501   6.559
  927SOL     OW 4613  12.207  12.760   0.013
  927SOL    HW1 4614  12.231  12.852   0.021
  927SOL    HW2 4615  12.196  12.746  14.798
  928SOL     OW 4616   0.381   4.048  11.471
  928SOL    HW1 4617   0.287   4.067  11.482
  928SOL    HW2 4618   0.384   3.982  11.402
  929SOL     OW 4619   0.019   5.948  14.778
  929SOL    HW1 4620   0.021   5.852  14.774
  929SOL    HW2 4621  14.858   5.967  14.863
  930SOL     OW 4622  12.794   1.516  12.303
  930SOL    HW1 4623  12.705   1.487  12.325
  930SOL    HW2 4624  12.788   1.544  12.212
  931SOL     OW 4625   7.982   0.692  13.706
  931SOL    HW1 4626   8.012   0.730  13.623
  931SOL    HW2 4627   8.010   0.755  13.772
  932SOL     OW 4628  13.294   2.474  10.361
  932SOL    HW1 4629  13.287   2.506  10.451
  932SOL    HW2 4630  13.345   2.393  10.368
  933SOL     OW 4631   3.594   5.179  12.007
  933SOL    HW1 4632   3.686   5.155  12.020
  933SOL    HW2 4633   3.583   5.182  11.912
  934SOL     OW 4634   4.507  13.059   3.673
  934SOL    HW1 4635   4.460  13.022   3.747
  934SOL    HW2 4636   4.531  13.147   3.701
  935SOL     OW 4637   7.741  10.182   6.213
  935SOL    HW1 4638   7.702  10.269   6.220
  935SOL    HW2 4639   7.682  10.125   6.261
  936SOL     OW 4640   2.408   9.424   7.112
  936SOL    HW1 4641   2.444   9.477   7.040
  936SOL    HW2 4642   2.470   9.437   7.184
  937SOL     OW 4643  14.556   9.716   8.426
  937SOL    HW1 4644  14.572   9.777   8.499
  937SOL    HW2 4645  14.480   9.754   8.380
  938SOL     OW 4646   1.282   7.612   7.710
  938SOL    HW1 4647   1.314   7.680   7.651
  938SOL    HW2 4648   1.361   7.564   7.736
  939SOL     OW 4649   6.175  11.039   4.167
  939SOL    HW1 4650   6.123  11.096   4.110
  939SOL    HW2 4651   6.112  11.007   4.232
  940SOL     OW 4652  11.500  11.537   2.359
  940SOL    HW1 4653  11.469  11.479   2.428
  940SOL    HW2 4654  11.594  11.545   2.374
  941SOL     OW 4655   4.501   4.530   3.002
  941SOL    HW1 4656   4.498   4.438   2.973
  941SOL    HW2 4657   4.444   4.576   2.941
  942SOL     OW 4658   6.147   6.822   1.182
  942SOL    HW1 4659   6.187   6.863   1.105
  942SOL    HW2 4660   6.147   6.891   1.249
  943SOL     OW 4661   9.650  11.977   7.497
  943SOL    HW1 4662   9.726  12.031   7.475
  943SOL    HW2 4663   9.651  11.906   7.433
  944SOL     OW 4664   1.317   8.554  10.188
  944SOL    HW1 4665   1.281   8.466  10.191
  944SOL    HW2 4666   1.279   8.592  10.108
  945SOL     OW 4667   0.856   2.195   3.331
  945SOL    HW1 4668   0.917   2.221   3.262
  945SOL    HW2 4669   0.815   2.115   3.298
  946SOL     OW 4670   9.101   1.721  11.192
  946SOL    HW1 4671   9.036   1.790  11.176
  946SOL    HW2 4672   9.185   1.762  11.171
  947SOL     OW 4673   1.773  11.724   9.321
  947SOL    HW1 4674   1.720  11.740   9.399
  947SOL    HW2 4675   1.781  11.810   9.280
  948SOL     OW 4676   2.540  11.205  11.742
  948SOL    HW1 4677   2.620  11.257  11.734
  948SOL    HW2 4678   2.540  11.150  11.664
  949SOL     OW 4679   3.310  12.978  10.290
  949SOL    HW1 4680   3.333  13.041  10.359
  949SOL    HW2 4681   3.256  12.912  10.335
  950SOL     OW 4682  12.064   0.644   1.215
  950SOL    HW1 4683  12.029   0.581   1.278
  950SOL    HW2 4684  12.044   0.607   1.130
  951SOL     OW 4685   8.295   8.125   6.035
  951SOL    HW1 4686   8.226   8.091   5.978
  951SOL    HW2 4687   8.253   8.196   6.083
  952SOL     OW 4688  11.867   2.190  13.067
  952SOL    HW1 4689  11.958   2.208  13.090
  952SOL    HW2 4690  11.862   2.209  12.973
  953SOL     OW 4691   1.912   9.920  13.768
  953SOL    HW1 4692   1.909  10.014  13.787
  953SOL    HW2 4693   1.958   9.883  13.844
  954SOL     OW 4694   0.923  10.466   5.738
  954SOL    HW1 4695   0.979  10.403   5.784
  954SOL    HW2 4696   0.893  10.525   5.807
  955SOL     OW 4697  11.941   1.560   8.218
  955SOL    HW1 4698  11.880   1.616   8.170
  955SOL    HW2 4699  11.925   1.580   8.310
  956SOL     OW 4700  13.959  12.590  13.611
  956SOL    HW1 4701  13.905  12.643  13.553
  956SOL    HW2 4702  13.968  12.643  13.691
  957SOL     OW 4703   9.155   8.437   2.968
  957SOL    HW1 4704   9.142   8.443   3.063
  957SOL    HW2 4705   9.182   8.525   2.942
  958SOL     OW 4706  14.584   7.251   2.613
  958SOL    HW1 4707  14.672   7.275   2.641
  958SOL    HW2 4708  14.597   7.189   2.541
  959SOL     OW 4709   3.353   0.123  14.032
  959SOL    HW1 4710   3.302   0.127  14.113
  959SOL    HW2 4711   3.359   0.214  14.003
  960SOL     OW 4712   5.435   8.801  13.649
  960SOL    HW1 4713   5.472   8.835  13.568
  960SOL    HW2 4714   5.474   8.854  13.718
  961SOL     OW 4715   9.540  10.631   3.145
  961SOL    HW1 4716   9.575  10.720   3.141
  961SOL    HW2 4717   9.518  10.610   3.055
  962SOL     OW 4718  13.378   4.270   9.309
  962SOL    HW1 4719  13.375   4.344   9.369
  962SOL    HW2 4720  13.292   4.230   9.314
  963SOL     OW 4721   8.670   9.980   2.582
  963SOL    HW1 4722   8.714  10.064   2.575
  963SOL    HW2 4723   8.587  10.000   2.626
  964SOL     OW 4724  10.286   0.252  10.820
  964SOL    HW1 4725  10.313   0.166  10.852
  964SOL    HW2 4726  10.275   0.304  10.900
  965SOL     OW 4727   4.244  13.382   4.106
  965SOL    HW1 4728   4.185  13.457   4.101
  965SOL    HW2 4729   4.194  13.309   4.069
  966SOL     OW 4730  13.291   9.953   7.546
  966SOL    HW1 4731  13.230  10.027   7.541
  966SOL    HW2 4732  13.377   9.992   7.534
  967SOL     OW 4733   7.079  12.208  12.746
  967SOL    HW1 4734   7.134  12.265  12.692
  967SOL    HW2 4735   7.020  12.166  12.684
  968SOL     OW 4736   5.754   2.538   1.004
  968SOL    HW1 4737   5.835   2.493   1.029
  968SOL    HW2 4738   5.685   2.473   1.020
  969SOL     OW 4739   2.874   3.316   1.392
  969SOL    HW1 4740   2.792   3.299   1.347
  969SOL    HW2 4741   2.940   3.317   1.323
  970SOL     OW 4742   6.067  14.086   5.787
  970SOL    HW1 4743   6.143  14.134   5.754
  970SOL    HW2 4744   6.060  14.009   5.730
  971SOL     OW 4745   9.144   2.249   5.063
  971SOL    HW1 4746   9.218   2.307   5.079
  971SOL    HW2 4747   9.166   2.202   4.983
  972SOL     OW 4748  13.212   6.612   3.312
  972SOL    HW1 4749  13.187   6.670   3.241
  972SOL    HW2 4750  13.299   6.643   3.339
  973SOL     OW 4751  12.900  13.540  10.635
  973SOL    HW1 4752  12.970  13.576  10.580
  973SOL    HW2 4753  12.878  13.610  10.695
  974SOL     OW 4754   3.533  11.004   5.070
  974SOL    HW1 4755   3.513  11.067   5.000
  974SOL    HW2 4756   3.583  11.054   5.134
  975SOL     OW 4757   3.224   8.826  11.681
  975SOL    HW1 4758   3.266   8.790  11.759
  975SOL    HW2 4759   3.231   8.921  11.691
  976SOL     OW 4760  10.943   1.966   2.544
  976SOL    HW1 4761  10.967   1.873   2.537
  976SOL    HW2 4762  11.017   2.013   2.505
  977SOL     OW 4763   8.819  12.309  13.142
  977SOL    HW1 4764   8.854  12.288  13.055
  977SOL    HW2 4765   8.864  12.248  13.201
  978SOL     OW 4766   8.957  14.745  12.322
  978SOL    HW1 4767   8.862  14.742  12.335
  978SOL    HW2 4768   8.994  14.732  12.410
  979SOL     OW 4769  11.615   9.177  10.330
  979SOL    HW1 4770  11.542   9.207  10.384
  979SOL    HW2 4771  11.655   9.106  10.380
  980SOL     OW 4772   0.112  10.931   1.821
  980SOL    HW1 4773   0.113  10.932   1.916
  980SOL    HW2 4774   0.182  10.871   1.797
  981SOL     OW 4775   5.813   9.213   4.394
  981SOL    HW1 4776   5.867   9.171   4.328
  981SOL    HW2 4777   5.810   9.151   4.466
  982SOL     OW 4778  11.724   5.155   2.430
  982SOL    HW1 4779  11.661   5.120   2.493
  982SOL    HW2 4780  11.697   5.245   2.415
  983SOL     OW 4781   0.697   3.802   3.116
  983SOL    HW1 4782   0.651   3.718   3.111
  983SOL    HW2 4783   0.647   3.853   3.181
  984SOL     OW 4784   4.521   5.271  11.038
  984SOL    HW1 4785   4.567   5.327  10.976
  984SOL    HW2 4786   4.543   5.307  11.124
  985SOL     OW 4787   2.946  10.539  11.260
  985SOL    HW1 4788   2.896  10.570  11.184
  985SOL    HW2 4789   2.880  10.521  11.327
  986SOL     OW 4790  13.985  11.027   7.535
  986SOL    HW1 4791  14.076  11.011   7.559
  986SOL    HW2 4792  13.989  11.101   7.474
  987SOL     OW 4793  14.145   3.041   5.829
  987SOL    HW1 4794  14.091   3.113   5.862
  987SOL    HW2 4795  14.172   3.070   5.741
  988SOL     OW 4796  11.125   3.274   6.674
  988SOL    HW1 4797  11.170   3.195   6.703
  988SOL    HW2 4798  11.169   3.299   6.593
  989SOL     OW 4799  11.598  13.937  13.546
  989SOL    HW1 4800  11.687  13.950  13.579
  989SOL    HW2 4801  11.542  13.944  13.624
  990SOL     OW 4802   9.761   3.850  10.707
  990SOL    HW1 4803   9.707   3.929  10.697
  990SOL    HW2 4804   9.844   3.883  10.741
  991SOL     OW 4805  10.901   3.627   6.034
  991SOL    HW1 4806  10.882   3.563   5.965
  991SOL    HW2 4807  10.816   3.644   6.075
  992SOL     OW 4808  11.120   9.002   8.677
  992SOL    HW1 4809  11.057   9.007   8.605
  992SOL    HW2 4810  11.205   8.990   8.634
  993SOL     OW 4811  13.230   5.154   7.969
  993SOL    HW1 4812  13.249   5.246   7.951
  993SOL    HW2 4813  13.199   5.154   8.060
  994SOL     OW 4814   5.825  12.229   4.926
  994SOL    HW1 4815   5.739  12.194   4.904
  994SOL    HW2 4816   5.841  12.201   5.016
  995SOL     OW 4817   4.323   1.962  12.781
  995SOL    HW1 4818   4.306   2.011  12.861
  995SOL    HW2 4819   4.414   1.981  12.759
  996SOL     OW 4820   2.085   5.560   9.902
  996SOL    HW1 4821   2.037   5.478   9.896
  996SOL    HW2 4822   2.125   5.571   9.815
  997SOL     OW 4823   5.315  13.138  10.583
  997SOL    HW1 4824   5.341  13.230  10.580
  997SOL    HW2 4825   5.363  13.097  10.511
  998SOL     OW 4826  10.475   4.615   7.428
  998SOL    HW1 4827  10.518   4.532   7.406
  998SOL    HW2 4828  10.454   4.608   7.521
  999SOL     OW 4829   8.414   5.570   8.312
  999SOL    HW1 4830   8.421   5.654   8.266
  999SOL    HW2 4831   8.491   5.569   8.369
 1000SOL     OW 4832   2.507   2.020  11.324
 1000SOL    HW1 4833   2.554   2.060  11.251
 1000SOL    HW2 4834   2.419   2.059  11.320
 1001SOL     OW 4835   3.843   8.373   1.482
 1001SOL    HW1 4836   3.814   8.289   1.447
 1001SOL    HW2 4837   3.771   8.403   1.537
 1002SOL     OW 4838   2.866  12.735  11.848
 1002SOL    HW1 4839   2.919  12.813  11.863
 1002SOL    HW2 4840   2.815  12.724  11.928
 1003SOL     OW 4841   0.145   5.106   1.481
 1003SOL    HW1 4842   0.104   5.036   1.533
 1003SOL    HW2 4843   0.200   5.153   1.544
 1004SOL     OW 4844   5.415   5.654  12.914
 1004SOL    HW1 4845   5.450   5.714  12.980
 1004SOL    HW2 4846   5.491   5.629  12.862
 1005SOL     OW 4847   2.665   9.379   4.017
 1005SOL    HW1 4848   2.691   9.470   4.006
 1005SOL    HW2 4849   2.688   9.358   4.107
 1006SOL     OW 4850  14.267   0.760  11.190
 1006SOL    HW1 4851  14.188   0.809  11.168
 1006SOL    HW2 4852  14.321   0.823  11.238
 1007SOL     OW 4853  13.149  13.340   8.131
 1007SOL    HW1 4854  13.126  13.409   8.069
 1007SOL    HW2 4855  13.242  13.354   8.149
 1008SOL     OW 4856   8.435   8.252   1.123
 1008SOL    HW1 4857   8.493   8.316   1.083
 1008SOL    HW2 4858   8.461   8.168   1.085
 1009SOL     OW 4859   0.234  13.064   8.772
 1009SOL    HW1 4860   0.184  12.985   8.788
 1009SOL    HW2 4861   0.326  13.037   8.777
 1010SOL     OW 4862   4.829  11.471   2.407
 1010SOL    HW1 4863   4.907  11.446   2.456
 1010SOL    HW2 4864   4.772  11.395   2.413
 1011SOL     OW 4865   2.247   9.002   7.172
 1011SOL    HW1 4866   2.166   9.047   7.149
 1011SOL    HW2 4867   2.250   8.925   7.115
 1012SOL     OW 4868   6.346  11.367  13.456
 1012SOL    HW1 4869   6.388  11.286  13.427
 1012SOL    HW2 4870   6.412  11.435  13.442
 1013SOL     OW 4871  14.682   5.430   0.478
 1013SOL    HW1 4872  14.612   5.462   0.535
 1013SOL    HW2 4873  14.658   5.463   0.391
 1014SOL     OW 4874   1.630   9.919   5.488
 1014SOL    HW1 4875   1.703   9.977   5.509
 1014SOL    HW2 4876   1.557   9.979   5.473
 1015SOL     OW 4877   1.167   3.258   4.024
 1015SOL    HW1 4878   1.165   3.168   3.991
 1015SOL    HW2 4879   1.127   3.252   4.111
 1016SOL     OW 4880   8.221  11.777  14.364
 1016SOL    HW1 4881   8.193  11.709  14.425
 1016SOL    HW2 4882   8.317  11.769  14.362
 1017SOL     OW 4883   1.506   6.508   6.531
 1017SOL    HW1 4884   1.478   6.541   6.616
 1017SOL    HW2 4885   1.551   6.582   6.490
 1018SOL     OW 4886  12.604  13.093   0.569
 1018SOL    HW1 4887  12.672  13.054   0.623
 1018SOL    HW2 4888  12.523  13.053   0.599
 1019SOL     OW 4889   8.213   3.756   6.535
 1019SOL    HW1 4890   8.169   3.813   6.472
 1019SOL    HW2 4891   8.141   3.712   6.581
 1020SOL     OW 4892  13.151   4.480   0.153
 1020SOL    HW1 4893  13.224   4.516   0.204
 1020SOL    HW2 4894  13.075   4.486   0.211
 1021SOL     OW 4895   8.697   5.948  10.576
 1021SOL    HW1 4896   8.605   5.940  10.600
 1021SOL    HW2 4897   8.732   6.013  10.637
 1022SOL     OW 4898   4.655   1.486  14.532
 1022SOL    HW1 4899   4.677   1.563  14.478
 1022SOL    HW2 4900   4.740   1.450  14.558
 1023SOL     OW 4901  13.876   5.284   0.372
 1023SOL    HW1 4902  13.825   5.277   0.452
 1023SOL    HW2 4903  13.929   5.363   0.384
 1024SOL     OW 4904   2.614   0.439   9.699
 1024SOL    HW1 4905   2.550   0.500   9.662
 1024SOL    HW2 4906   2.565   0.391   9.766
 1025SOL     OW 4907   9.938   8.571   4.003
 1025SOL    HW1 4908   9.848   8.591   3.977
 1025SOL    HW2 4909   9.986   8.570   3.920
 1026SOL     OW 4910   0.972   1.662   9.988
 1026SOL    HW1 4911   0.896   1.629  10.035
 1026SOL    HW2 4912   0.945   1.747   9.953
 1027SOL     OW 4913  14.545   3.816   9.329
 1027SOL    HW1 4914  14.639   3.826   9.315
 1027SOL    HW2 4915  14.505   3.860   9.254
 1028SOL     OW 4916   9.592   0.742   0.628
 1028SOL    HW1 4917   9.540   0.808   0.583
 1028SOL    HW2 4918   9.648   0.792   0.687
 1029SOL     OW 4919   4.553   4.038  14.118
 1029SOL    HW1 4920   4.489   3.967  14.125
 1029SOL    HW2 4921   4.628   3.998  14.072
 1030SOL     OW 4922   7.248   3.203   8.716
 1030SOL    HW1 4923   7.322   3.147   8.691
 1030SOL    HW2 4924   7.279   3.251   8.792
 1031SOL     OW 4925  10.685   9.275  11.399
 1031SOL    HW1 4926  10.720   9.213  11.463
 1031SOL    HW2 4927  10.726   9.358  11.422
 1032SOL     OW 4928   6.449   7.144   9.974
 1032SOL    HW1 4929   6.520   7.141   9.910
 1032SOL    HW2 4930   6.415   7.055   9.977
 1033SOL     OW 4931   1.057   9.441   6.671
 1033SOL    HW1 4932   1.110   9.363   6.656
 1033SOL    HW2 4933   1.047   9.446   6.766
 1034SOL     OW 4934   5.481   4.097  10.873
 1034SOL    HW1 4935   5.390   4.095  10.903
 1034SOL    HW2 4936   5.525   4.156  10.933
 1035SOL     OW 4937   7.191  13.677  11.995
 1035SOL    HW1 4938   7.106  13.721  11.985
 1035SOL    HW2 4939   7.238  13.698  11.914
 1036SOL     OW 4940   3.295   2.218   0.430
 1036SOL    HW1 4941   3.248   2.242   0.350
 1036SOL    HW2 4942   3.387   2.217   0.403
 1037SOL     OW 4943   7.482  12.796   1.874
 1037SOL    HW1 4944   7.419  12.803   1.803
 1037SOL    HW2 4945   7.567  12.807   1.833
 1038SOL     OW 4946   0.120  11.969  13.365
 1038SOL    HW1 4947   0.114  11.874  13.362
 1038SOL    HW2 4948   0.079  11.999  13.284
 1039SOL     OW 4949  12.514   6.807   9.092
 1039SOL    HW1 4950  12.497   6.791   9.184
 1039SOL    HW2 4951  12.429   6.830   9.055
 1040SOL     OW 4952  13.595   0.099  14.806
 1040SOL    HW1 4953  13.582   0.014  14.849
 1040SOL    HW2 4954  13.535   0.158  14.852
 1041SOL     OW 4955  10.684  11.269  10.264
 1041SOL    HW1 4956  10.643  11.230  10.341
 1041SOL    HW2 4957  10.689  11.198  10.200
 1042SOL     OW 4958  13.619   8.796   0.401
 1042SOL    HW1 4959  13.603   8.719   0.346
 1042SOL    HW2 4960  13.602   8.766   0.490
 1043SOL     OW 4961  11.873   0.044   9.747
 1043SOL    HW1 4962  11.871  14.877   9.831
 1043SOL    HW2 4963  11.811   0.116   9.758
 1044SOL     OW 4964   6.252  12.048  14.218
 1044SOL    HW1 4965   6.329  12.048  14.275
 1044SOL    HW2 4966   6.281  12.093  14.139
 1045SOL     OW 4967  10.733   2.637  12.926
 1045SOL    HW1 4968  10.717   2.653  12.833
 1045SOL    HW2 4969  10.819   2.676  12.942
 1046SOL     OW 4970   1.696   9.861   4.119
 1046SOL    HW1 4971   1.636   9.798   4.158
 1046SOL    HW2 4972   1.732   9.816   4.043
 1047SOL     OW 4973  10.760   9.311  11.800
 1047SOL    HW1 4974  10.691   9.261  11.756
 1047SOL    HW2 4975  10.840   9.258  11.786
 1048SOL     OW 4976  14.664   1.906   4.500
 1048SOL    HW1 4977  14.581   1.869   4.530
 1048SOL    HW2 4978  14.643   1.945   4.415
 1049SOL     OW 4979   0.045   5.786  11.608
 1049SOL    HW1 4980   0.021   5.861  11.663
 1049SOL    HW2 4981  14.849   5.775  11.549
 1050SOL     OW 4982   3.875  12.709   4.093
 1050SOL    HW1 4983   3.947  12.682   4.149
 1050SOL    HW2 4984   3.883  12.653   4.016
 1051SOL     OW 4985  13.291  10.372   8.232
 1051SOL    HW1 4986  13.276  10.407   8.145
 1051SOL    HW2 4987  13.271  10.279   8.225
 1052SOL     OW 4988   7.375  12.664  14.399
 1052SOL    HW1 4989   7.382  12.572  14.425
 1052SOL    HW2 4990   7.462  12.700  14.415
 1053SOL     OW 4991   1.584  13.057   2.326
 1053SOL    HW1 4992   1.521  13.066   2.398
 1053SOL    HW2 4993   1.667  13.085   2.363
 1054SOL     OW 4994  12.555  12.638   6.991
 1054SOL    HW1 4995  12.502  12.701   7.039
 1054SOL    HW2 4996  12.645  12.660   7.015
 1055SOL     OW 4997   1.609   8.018   2.486
 1055SOL    HW1 4998   1.621   8.104   2.526
 1055SOL    HW2 4999   1.601   8.036   2.393
 1056SOL     OW 5000   7.919   2.163   8.593
 1056SOL    HW1 5001   7.983   2.102   8.557
 1056SOL    HW2 5002   7.965   2.247   8.594
 1057SOL     OW 5003   2.875  12.445  14.372
 1057SOL    HW1 5004   2.936  12.480  14.307
 1057SOL    HW2 5005   2.868  12.515  14.437
 1058SOL     OW 5006   8.255   5.340  13.246
 1058SOL    HW1 5007   8.189   5.404  13.217
 1058SOL    HW2 5008   8.218   5.303  13.326
 1059SOL     OW 5009  14.224   7.997   0.152
 1059SOL    HW1 5010  14.180   7.995   0.237
 1059SOL    HW2 5011  14.304   7.946   0.164
 1060SOL     OW 5012  13.435  14.828   7.518
 1060SOL    HW1 5013  13.494  14.779   7.460
 1060SOL    HW2 5014  13.362  14.768   7.534
 1061SOL     OW 5015   5.306   7.431   9.970
 1061SOL    HW1 5016   5.349   7.387  10.042
 1061SOL    HW2 5017   5.341   7.520   9.971
 1062SOL     OW 5018  10.283   7.633   8.995
 1062SOL    HW1 5019  10.268   7.681   8.914
 1062SOL    HW2 5020  10.239   7.686   9.062
 1063SOL     OW 5021   2.786  12.920   0.157
 1063SOL    HW1 5022   2.701  12.920   0.114
 1063SOL    HW2 5023   2.788  12.838   0.206
 1064SOL     OW 5024   4.150   2.832   0.224
 1064SOL    HW1 5025   4.093   2.909   0.231
 1064SOL    HW2 5026   4.099   2.761   0.264
 1065SOL     OW 5027   2.363  11.903   7.996
 1065SOL    HW1 5028   2.420  11.854   8.056
 1065SOL    HW2 5029   2.275  11.886   8.028
 1066SOL     OW 5030   2.389   8.222  11.786
 1066SOL    HW1 5031   2.395   8.226  11.690
 1066SOL    HW2 5032   2.326   8.152  11.803
 1067SOL     OW 5033   1.912   1.717  11.470
 1067SOL    HW1 5034   1.819   1.734  11.486
 1067SOL    HW2 5035   1.925   1.737  11.378
 1068SOL     OW 5036   2.316   3.894  11.364
 1068SOL    HW1 5037   2.355   3.862  11.445
 1068SOL    HW2 5038   2.390   3.904  11.304
 1069SOL     OW 5039   9.127   6.723   3.778
 1069SOL    HW1 5040   9.212   6.765   3.773
 1069SOL    HW2 5041   9.076   6.762   3.707
 1070SOL     OW 5042   4.253   3.228  12.728
 1070SOL    HW1 5043   4.189   3.162  12.703
 1070SOL    HW2 5044   4.315   3.229  12.654
 1071SOL     OW 5045   9.021   5.549   1.858
 1071SOL    HW1 5046   9.038   5.526   1.949
 1071SOL    HW2 5047   9.099   5.520   1.811
 1072SOL     OW 5048  11.986   1.038   0.935
 1072SOL    HW1 5049  11.944   1.006   1.015
 1072SOL    HW2 5050  11.949   1.125   0.921
 1073SOL     OW 5051  12.068   7.445   8.190
 1073SOL    HW1 5052  12.026   7.359   8.200
 1073SOL    HW2 5053  12.126   7.435   8.115
 1074SOL     OW 5054   3.748  13.416   7.113
 1074SOL    HW1 5055   3.713  13.503   7.097
 1074SOL    HW2 5056   3.720  13.364   7.038
 1075SOL     OW 5057   2.619  13.689   4.265
 1075SOL    HW1 5058   2.567  13.694   4.184
 1075SOL    HW2 5059   2.710  13.696   4.236
 1076SOL     OW 5060   8.346   9.510  14.744
 1076SOL    HW1 5061   8.352   9.493  14.650
 1076SOL    HW2 5062   8.395   9.592  14.756
 1077SOL     OW 5063   6.634   0.489   2.048
 1077SOL    HW1 5064   6.711   0.541   2.072
 1077SOL    HW2 5065   6.659   0.399   2.065
 1078SOL     OW 5066   5.468  12.182   0.949
 1078SOL    HW1 5067   5.422  12.125   0.888
 1078SOL    HW2 5068   5.534  12.126   0.989
 1079SOL     OW 5069   0.374   7.497   1.610
 1079SOL    HW1 5070   0.304   7.507   1.675
 1079SOL    HW2 5071   0.425   7.578   1.616
 1080SOL     OW 5072   8.993  12.520   5.093
 1080SOL    HW1 5073   8.984  12.608   5.057
 1080SOL    HW2 5074   8.924  12.469   5.050
 1081SOL     OW 5075  11.487   9.260   0.127
 1081SOL    HW1 5076  11.416   9.205   0.160
 1081SOL    HW2 5077  11.458   9.288   0.040
 1082SOL     OW 5078  14.234   4.930  10.350
 1082SOL    HW1 5079  14.202   4.840  10.357
 1082SOL    HW2 5080  14.220   4.968  10.436
 1083SOL     OW 5081   6.755  11.986   6.144
 1083SOL    HW1 5082   6.815  11.961   6.214
 1083SOL    HW2 5083   6.671  11.947   6.168
 1084SOL     OW 5084   8.632  13.996  13.348
 1084SOL    HW1 5085   8.607  14.079  13.389
 1084SOL    HW2 5086   8.564  13.980  13.283
 1085SOL     OW 5087   2.032   7.495  12.664
 1085SOL    HW1 5088   2.036   7.484  12.569
 1085SOL    HW2 5089   1.951   7.542  12.680
 1086SOL     OW 5090   5.766   7.871   8.141
 1086SOL    HW1 5091   5.758   7.910   8.228
 1086SOL    HW2 5092   5.848   7.822   8.145
 1087SOL     OW 5093   7.870   5.048  10.350
 1087SOL    HW1 5094   7.964   5.042  10.332
 1087SOL    HW2 5095   7.864   5.115  10.418
 1088SOL     OW 5096   4.905   8.229  13.234
 1088SOL    HW1 5097   4.996   8.197  13.232
 1088SOL    HW2 5098   4.907   8.311  13.185
 1089SOL     OW 5099  10.412   1.761   3.603
 1089SOL    HW1 5100  10.492   1.713   3.580
 1089SOL    HW2 5101  10.412   1.838   3.547
 1090SOL     OW 5102   3.741   8.370   3.335
 1090SOL    HW1 5103   3.702   8.395   3.251
 1090SOL    HW2 5104   3.675   8.393   3.400
 1091SOL     OW 5105  14.130  11.195   4.689
 1091SOL    HW1 5106  14.096  11.171   4.775
 1091SOL    HW2 5107  14.188  11.122   4.665
 1092SOL     OW 5108   4.232  12.034   3.944
 1092SOL    HW1 5109   4.231  12.056   3.851
 1092SOL    HW2 5110   4.140  12.027   3.968
 1093SOL     OW 5111  13.666  13.562  13.121
 1093SOL    HW1 5112  13.723  13.638  13.111
 1093SOL    HW2 5113  13.592  13.580  13.062
 1094SOL     OW 5114   5.176  12.195   1.161
 1094SOL    HW1 5115   5.241  12.125   1.157
 1094SOL    HW2 5116   5.228  12.275   1.170
 1095SOL     OW 5117   9.677   1.070   0.676
 1095SOL    HW1 5118   9.609   1.053   0.611
 1095SOL    HW2 5119   9.715   1.154   0.650
 1096SOL     OW 5120   9.086  13.224   4.621
 1096SOL    HW1 5121   9.132  13.263   4.547
 1096SOL    HW2 5122   9.055  13.140   4.589
 1097SOL     OW 5123   6.289   0.110  13.435
 1097SOL    HW1 5124   6.243   0.062  13.504
 1097SOL    HW2 5125   6.285   0.202  13.462
 1098SOL     OW 5126   3.910   5.024   0.480
 1098SOL    HW1 5127   3.999   5.059   0.475
 1098SOL    HW2 5128   3.905   4.960   0.409
 1099SOL     OW 5129  12.559   1.613   6.287
 1099SOL    HW1 5130  12.560   1.700   6.327
 1099SOL    HW2 5131  12.517   1.557   6.353
 1100SOL     OW 5132   5.183   8.637   4.993
 1100SOL    HW1 5133   5.188   8.678   5.079
 1100SOL    HW2 5134   5.121   8.564   5.005
 1101SOL     OW 5135   3.307   8.138   1.649
 1101SOL    HW1 5136   3.257   8.203   1.599
 1101SOL    HW2 5137   3.362   8.094   1.584
 1102SOL     OW 5138   4.606   5.280  11.756
 1102SOL    HW1 5139   4.519   5.273  11.716
 1102SOL    HW2 5140   4.613   5.373  11.779
 1103SOL     OW 5141   3.924   1.846   0.195
 1103SOL    HW1 5142   3.943   1.918   0.256
 1103SOL    HW2 5143   4.006   1.797   0.190
 1104SOL     OW 5144  12.234   9.053   2.404
 1104SOL    HW1 5145  12.263   8.964   2.426
 1104SOL    HW2 5146  12.247   9.060   2.309
 1105SOL     OW 5147   2.087   8.317  12.101
 1105SOL    HW1 5148   2.092   8.399  12.151
 1105SOL    HW2 5149   2.120   8.339  12.014
 1106SOL     OW 5150   9.156   0.548  12.899
 1106SOL    HW1 5151   9.135   0.635  12.933
 1106SOL    HW2 5152   9.155   0.559  12.804
 1107SOL     OW 5153   4.863  13.028   7.904
 1107SOL    HW1 5154   4.836  13.083   7.830
 1107SOL    HW2 5155   4.894  12.947   7.863
 1108SOL     OW 5156   0.670   5.861   8.046
 1108SOL    HW1 5157   0.699   5.881   7.957
 1108SOL    HW2 5158   0.736   5.802   8.081
 1109SOL     OW 5159   4.549   1.891  13.019
 1109SOL    HW1 5160   4.591   1.877  12.934
 1109SOL    HW2 5161   4.603   1.840  13.080
 1110SOL     OW 5162   1.180   4.837   9.967
 1110SOL    HW1 5163   1.206   4.766   9.909
 1110SOL    HW2 5164   1.194   4.802  10.055
 1111SOL     OW 5165   3.719   8.581   8.213
 1111SOL    HW1 5166   3.809   8.583   8.245
 1111SOL    HW2 5167   3.666   8.562   8.290
 1112SOL     OW 5168   9.463   8.772   0.505
 1112SOL    HW1 5169   9.398   8.703   0.519
 1112SOL    HW2 5170   9.475   8.812   0.591
 1113SOL     OW 5171   0.353   2.012   3.152
 1113SOL    HW1 5172   0.390   1.935   3.194
 1113SOL    HW2 5173   0.315   1.980   3.071
 1114SOL     OW 5174  10.731  11.993   3.331
 1114SOL    HW1 5175  10.775  11.944   3.262
 1114SOL    HW2 5176  10.677  11.929   3.375
 1115SOL     OW 5177   7.770   9.166   1.506
 1115SOL    HW1 5178   7.795   9.175   1.414
 1115SOL    HW2 5179   7.678   9.193   1.508
 1116SOL     OW 5180   6.851   2.092   3.874
 1116SOL    HW1 5181   6.757   2.109   3.882
 1116SOL    HW2 5182   6.892   2.148   3.940
 1117SOL     OW 5183   4.709  11.617   1.438
 1117SOL    HW1 5184   4.708  11.552   1.368
 1117SOL    HW2 5185   4.623  11.658   1.435
 1118SOL     OW 5186   3.526  13.416   3.407
 1118SOL    HW1 5187   3.468  13.490   3.424
 1118SOL    HW2 5188   3.484  13.341   3.450
 1119SOL     OW 5189  11.576   4.488  13.108
 1119SOL    HW1 5190  11.637   4.561  13.113
 1119SOL    HW2 5191  11.630   4.410  13.117
 1120SOL     OW 5192   5.874  11.310  14.446
 1120SOL    HW1 5193   5.908  11.338  14.531
 1120SOL    HW2 5194   5.947  11.321  14.386
 1121SOL     OW 5195   9.850   5.266   6.824
 1121SOL    HW1 5196   9.881   5.211   6.752
 1121SOL    HW2 5197   9.842   5.353   6.786
 1122SOL     OW 5198   5.386  13.038   5.974
 1122SOL    HW1 5199   5.386  12.974   6.045
 1122SOL    HW2 5200   5.293  13.059   5.961
 1123SOL     OW 5201   7.389  12.718   0.989
 1123SOL    HW1 5202   7.412  12.644   1.045
 1123SOL    HW2 5203   7.379  12.680   0.902
 1124SOL     OW 5204   7.986   1.424   0.513
 1124SOL    HW1 5205   8.013   1.515   0.517
 1124SOL    HW2 5206   8.048   1.382   0.454
 1125SOL     OW 5207   7.203   0.391   2.832
 1125SOL    HW1 5208   7.183   0.479   2.864
 1125SOL    HW2 5209   7.251   0.406   2.750
 1126SOL     OW 5210   4.959  12.201   6.111
 1126SOL    HW1 5211   5.030  12.245   6.157
 1126SOL    HW2 5212   4.955  12.245   6.026
 1127SOL     OW 5213   6.155   3.941  12.571
 1127SOL    HW1 5214   6.157   3.899  12.657
 1127SOL    HW2 5215   6.145   4.035  12.591
 1128SOL     OW 5216  13.772   6.365   3.697
 1128SOL    HW1 5217  13.753   6.341   3.606
 1128SOL    HW2 5218  13.823   6.291   3.731
 1129SOL     OW 5219   2.059   8.776   7.850
 1129SOL    HW1 5220   2.060   8.862   7.809
 1129SOL    HW2 5221   2.050   8.793   7.943
 1130SOL     OW 5222   9.078   5.912   9.603
 1130SOL    HW1 5223   9.041   5.925   9.516
 1130SOL    HW2 5224   9.146   5.846   9.590
 1131SOL     OW 5225   8.099   1.203  11.939
 1131SOL    HW1 5226   8.026   1.173  11.993
 1131SOL    HW2 5227   8.169   1.224  12.001
 1132SOL     OW 5228  11.808  11.635   8.399
 1132SOL    HW1 5229  11.842  11.572   8.335
 1132SOL    HW2 5230  11.877  11.700   8.408
 1133SOL     OW 5231   8.283   5.094  14.746
 1133SOL    HW1 5232   8.349   5.070  14.811
 1133SOL    HW2 5233   8.257   5.011  14.707
 1134SOL     OW 5234   9.411   1.943  13.975
 1134SOL    HW1 5235   9.332   1.926  14.026
 1134SOL    HW2 5236   9.477   1.967  14.040
 1135SOL     OW 5237  14.157   0.318   4.732
 1135SOL    HW1 5238  14.146   0.413   4.720
 1135SOL    HW2 5239  14.221   0.293   4.665
 1136SOL     OW 5240   6.314  10.039   9.493
 1136SOL    HW1 5241   6.341  10.036   9.401
 1136SOL    HW2 5242   6.253  10.114   9.497
 1137SOL     OW 5243   8.896   9.830   7.712
 1137SOL    HW1 5244   8.825   9.787   7.665
 1137SOL    HW2 5245   8.968   9.834   7.649
 1138SOL     OW 5246   4.405  12.326  10.788
 1138SOL    HW1 5247   4.388  12.359  10.700
 1138SOL    HW2 5248   4.420  12.405  10.840
 1139SOL     OW 5249  10.490   9.840   7.618
 1139SOL    HW1 5250  10.564   9.783   7.596
 1139SOL    HW2 5251  10.492   9.908   7.551
 1140SOL     OW 5252   0.202   6.358  13.351
 1140SOL    HW1 5253   0.282   6.321  13.388
 1140SOL    HW2 5254   0.210   6.452  13.368
 1141SOL     OW 5255   4.544   3.875  11.041
 1141SOL    HW1 5256   4.507   3.853  11.127
 1141SOL    HW2 5257   4.586   3.960  11.055
 1142SOL     OW 5258  13.839  11.155  13.604
 1142SOL    HW1 5259  13.848  11.171  13.698
 1142SOL    HW2 5260  13.846  11.059  13.595
 1143SOL     OW 5261   9.088   4.388   8.004
 1143SOL    HW1 5262   9.100   4.336   8.083
 1143SOL    HW2 5263   9.101   4.479   8.032
 1144SOL     OW 5264  13.764   9.319   6.837
 1144SOL    HW1 5265  13.776   9.242   6.893
 1144SOL    HW2 5266  13.710   9.378   6.890
 1145SOL     OW 5267   0.377  12.950  10.359
 1145SOL    HW1 5268   0.394  12.935  10.452
 1145SOL    HW2 5269   0.359  13.044  10.353
 1146SOL     OW 5270   6.864   6.218   0.218
 1146SOL    HW1 5271   6.943   6.246   0.172
 1146SOL    HW2 5272   6.799   6.207   0.149
 1147SOL     OW 5273   2.810   9.207  10.868
 1147SOL    HW1 5274   2.724   9.247  10.850
 1147SOL    HW2 5275   2.872   9.265  10.824
 1148SOL     OW 5276  14.747  14.122   6.285
 1148SOL    HW1 5277  14.689  14.110   6.361
 1148SOL    HW2 5278  14.698  14.084   6.212
 1149SOL     OW 5279   9.613  14.497  12.678
 1149SOL    HW1 5280   9.567  14.422  12.716
 1149SOL    HW2 5281   9.663  14.534  12.751
 1150SOL     OW 5282   4.648   7.354  10.927
 1150SOL    HW1 5283   4.701   7.284  10.888
 1150SOL    HW2 5284   4.604   7.313  11.002
 1151SOL     OW 5285  10.998   2.812   5.332
 1151SOL    HW1 5286  11.053   2.875   5.286
 1151SOL    HW2 5287  10.932   2.786   5.268
 1152SOL     OW 5288   1.726   8.763   5.077
 1152SOL    HW1 5289   1.750   8.670   5.073
 1152SOL    HW2 5290   1.806   8.806   5.107
 1153SOL     OW 5291  12.058  14.124   5.814
 1153SOL    HW1 5292  12.041  14.217   5.829
 1153SOL    HW2 5293  12.145  14.122   5.772
 1154SOL     OW 5294   6.629   0.793  14.381
 1154SOL    HW1 5295   6.700   0.856  14.368
 1154SOL    HW2 5296   6.581   0.828  14.457
 1155SOL     OW 5297   0.208  11.320   3.543
 1155SOL    HW1 5298   0.193  11.254   3.611
 1155SOL    HW2 5299   0.301  11.341   3.550
 1156SOL     OW 5300   2.702   0.624  14.837
 1156SOL    HW1 5301   2.744   0.708  14.820
 1156SOL    HW2 5302   2.619   0.629  14.789
 1157SOL     OW 5303   9.285   3.068   7.668
 1157SOL    HW1 5304   9.336   3.029   7.739
 1157SOL    HW2 5305   9.292   3.162   7.683
 1158SOL     OW 5306   0.848  13.516   6.184
 1158SOL    HW1 5307   0.920  13.563   6.226
 1158SOL    HW2 5308   0.875  13.424   6.186
 1159SOL     OW 5309   5.641  12.887  11.076
 1159SOL    HW1 5310   5.667  12.844  11.158
 1159SOL    HW2 5311   5.579  12.955  11.104
 1160SOL     OW 5312   1.619  12.731   5.973
 1160SOL    HW1 5313   1.608  12.667   6.043
 1160SOL    HW2 5314   1.682  12.794   6.007
 1161SOL     OW 5315  13.979  12.130   7.921
 1161SOL    HW1 5316  13.934  12.182   7.854
 1161SOL    HW2 5317  13.962  12.176   8.003
 1162SOL     OW 5318   0.254   1.845   5.571
 1162SOL    HW1 5319   0.333   1.814   5.616
 1162SOL    HW2 5320   0.207   1.765   5.548
 1163SOL     OW 5321  14.316   0.139  13.665
 1163SOL    HW1 5322  14.309   0.206  13.597
 1163SOL    HW2 5323  14.402   0.152  13.703
 1164SOL     OW 5324  11.993  10.941  10.929
 1164SOL    HW1 5325  11.941  10.954  11.008
 1164SOL    HW2 5326  11.999  11.028  10.890
 1165SOL     OW 5327   6.247   8.048   0.732
 1165SOL    HW1 5328   6.267   8.028   0.824
 1165SOL    HW2 5329   6.279   7.972   0.683
 1166SOL     OW 5330   7.422   8.834  13.855
 1166SOL    HW1 5331   7.438   8.926  13.834
 1166SOL    HW2 5332   7.494   8.809  13.913
 1167SOL     OW 5333   9.113   0.872   3.579
 1167SOL    HW1 5334   9.040   0.811   3.569
 1167SOL    HW2 5335   9.184   0.834   3.527
 1168SOL     OW 5336   1.034  12.098   8.221
 1168SOL    HW1 5337   1.034  12.042   8.298
 1168SOL    HW2 5338   1.124  12.128   8.212
 1169SOL     OW 5339   2.240   4.121   2.568
 1169SOL    HW1 5340   2.275   4.137   2.656
 1169SOL    HW2 5341   2.271   4.196   2.517
 1170SOL     OW 5342   3.164   6.320   6.090
 1170SOL    HW1 5343   3.220   6.248   6.118
 1170SOL    HW2 5344   3.086   6.277   6.055
 1171SOL     OW 5345   0.139   4.254   7.611
 1171SOL    HW1 5346   0.081   4.322   7.576
 1171SOL    HW2 5347   0.220   4.300   7.632
 1172SOL     OW 5348  11.203   9.765  13.278
 1172SOL    HW1 5349  11.148   9.703  13.326
 1172SOL    HW2 5350  11.145   9.838  13.257
 1173SOL     OW 5351  11.700  12.299   4.000
 1173SOL    HW1 5352  11.722  12.331   3.913
 1173SOL    HW2 5353  11.610  12.269   3.993
 1174SOL     OW 5354   7.288   1.711  11.985
 1174SOL    HW1 5355   7.283   1.684  12.077
 1174SOL    HW2 5356   7.366   1.766  11.980
 1175SOL     OW 5357   3.553   8.097  12.650
 1175SOL    HW1 5358   3.516   8.012  12.676
 1175SOL    HW2 5359   3.596   8.129  12.730
 1176SOL     OW 5360   4.311  11.565  12.732
 1176SOL    HW1 5361   4.232  11.510  12.733
 1176SOL    HW2 5362   4.379  11.509  12.767
 1177SOL     OW 5363  11.794   3.877   9.888
 1177SOL    HW1 5364  11.885   3.892   9.915
 1177SOL    HW2 5365  11.768   3.958   9.845
 1178SOL     OW 5366   9.983   0.628   5.881
 1178SOL    HW1 5367   9.971   0.688   5.954
 1178SOL    HW2 5368   9.894   0.608   5.851
 1179SOL     OW 5369  12.960  11.877   3.254
 1179SOL    HW1 5370  12.926  11.944   3.194
 1179SOL    HW2 5371  13.048  11.858   3.221
 1180SOL     OW 5372  12.012  13.621   2.485
 1180SOL    HW1 5373  11.926  13.630   2.446
 1180SOL    HW2 5374  12.073  13.648   2.416
 1181SOL     OW 5375   6.484  12.283  12.336
 1181SOL    HW1 5376   6.465  12.202  12.384
 1181SOL    HW2 5377   6.399  12.326  12.327
 1182SOL     OW 5378  12.741   2.563  14.395
 1182SOL    HW1 5379  12.792   2.495  14.437
 1182SOL    HW2 5380  12.651   2.549  14.425
 1183SOL     OW 5381   4.958  11.713  11.705
 1183SOL    HW1 5382   4.978  11.776  11.775
 1183SOL    HW2 5383   5.006  11.745  11.629
 1184SOL     OW 5384   8.764  11.141   6.433
 1184SOL    HW1 5385   8.730  11.228   6.451
 1184SOL    HW2 5386   8.769  11.099   6.519
 1185SOL     OW 5387  14.652   4.524   0.876
 1185SOL    HW1 5388  14.668   4.617   0.859
 1185SOL    HW2 5389  14.721   4.478   0.827
 1186SOL     OW 5390   8.732   3.707  14.538
 1186SOL    HW1 5391   8.691   3.789  14.512
 1186SOL    HW2 5392   8.666   3.662  14.590
 1187SOL     OW 5393   1.883  11.910   1.489
 1187SOL    HW1 5394   1.916  11.919   1.578
 1187SOL    HW2 5395   1.869  11.816   1.477
 1188SOL     OW 5396   1.197   9.667  11.333
 1188SOL    HW1 5397   1.239   9.606  11.272
 1188SOL    HW2 5398   1.181   9.614  11.411
 1189SOL     OW 5399   3.419  11.755   3.341
 1189SOL    HW1 5400   3.323  11.749   3.338
 1189SOL    HW2 5401   3.441  11.742   3.434
 1190SOL     OW 5402   8.695   4.774  12.435
 1190SOL    HW1 5403   8.675   4.705  12.499
 1190SOL    HW2 5404   8.622   4.835  12.443
 1191SOL     OW 5405   2.519  13.067   9.605
 1191SOL    HW1 5406   2.462  13.118   9.548
 1191SOL    HW2 5407   2.568  13.132   9.654
 1192SOL     OW 5408  13.177  13.368   2.130
 1192SOL    HW1 5409  13.197  13.292   2.185
 1192SOL    HW2 5410  13.082  13.373   2.131
 1193SOL     OW 5411   5.032   6.787   6.119
 1193SOL    HW1 5412   5.053   6.862   6.063
 1193SOL    HW2 5413   5.076   6.713   6.077
 1194SOL     OW 5414   5.050   9.491   1.531
 1194SOL    HW1 5415   5.032   9.473   1.623
 1194SOL    HW2 5416   4.991   9.563   1.509
 1195SOL     OW 5417   5.480   8.743   7.976
 1195SOL    HW1 5418   5.480   8.832   7.941
 1195SOL    HW2 5419   5.444   8.751   8.064
 1196SOL     OW 5420  12.749  10.669   9.604
 1196SOL    HW1 5421  12.790  10.751   9.633
 1196SOL    HW2 5422  12.707  10.691   9.521
 1197SOL     OW 5423  12.162   5.084   8.509
 1197SOL    HW1 5424  12.191   5.136   8.433
 1197SOL    HW2 5425  12.067   5.084   8.504
 1198SOL     OW 5426  10.050   4.506   9.156
 1198SOL    HW1 5427  10.110   4.470   9.221
 1198SOL    HW2 5428  10.075   4.598   9.148
 1199SOL     OW 5429   7.821   4.549  12.722
 1199SOL    HW1 5430   7.764   4.624  12.737
 1199SOL    HW2 5431   7.814   4.496  12.801
 1200SOL     OW 5432   6.349  11.060   0.560
 1200SOL    HW1 5433   6.318  10.980   0.518
 1200SOL    HW2 5434   6.301  11.131   0.516
 1201SOL     OW 5435   7.789   6.395   1.515
 1201SOL    HW1 5436   7.824   6.398   1.604
 1201SOL    HW2 5437   7.818   6.310   1.481
 1202SOL     OW 5438   6.202  14.009   6.352
 1202SOL    HW1 5439   6.129  13.980   6.297
 1202SOL    HW2 5440   6.274  14.024   6.290
 1203SOL     OW 5441  13.841   2.410  11.141
 1203SOL    HW1 5442  13.801   2.474  11.200
 1203SOL    HW2 5443  13.903   2.462  11.089
 1204SOL     OW 5444  12.631  10.810  10.172
 1204SOL    HW1 5445  12.578  10.732  10.158
 1204SOL    HW2 5446  12.662  10.802  10.263
 1205SOL     OW 5447   3.311   9.016   7.601
 1205SOL    HW1 5448   3.354   9.024   7.686
 1205SOL    HW2 5449   3.342   9.091   7.551
 1206SOL     OW 5450   5.142   7.709  12.589
 1206SOL    HW1 5451   5.091   7.790  12.598
 1206SOL    HW2 5452   5.113   7.654  12.662
 1207SOL     OW 5453  13.726   5.483   4.713
 1207SOL    HW1 5454  13.715   5.398   4.670
 1207SOL    HW2 5455  13.694   5.546   4.649
 1208SOL     OW 5456   2.301  10.316  12.983
 1208SOL    HW1 5457   2.368  10.293  13.048
 1208SOL    HW2 5458   2.230  10.353  13.035
 1209SOL     OW 5459   7.705   3.329   6.590
 1209SOL    HW1 5460   7.670   3.378   6.516
 1209SOL    HW2 5461   7.681   3.382   6.667
 1210SOL     OW 5462   5.778   6.395   6.537
 1210SOL    HW1 5463   5.685   6.419   6.537
 1210SOL    HW2 5464   5.794   6.366   6.627
 1211SOL     OW 5465   2.184  10.254   9.918
 1211SOL    HW1 5466   2.211  10.208   9.997
 1211SOL    HW2 5467   2.141  10.186   9.865
 1212SOL     OW 5468   0.574   5.909   5.197
 1212SOL    HW1 5469   0.620   5.952   5.269
 1212SOL    HW2 5470   0.641   5.855   5.154
 1213SOL     OW 5471   6.569   2.138   4.992
 1213SOL    HW1 5472   6.651   2.129   5.039
 1213SOL    HW2 5473   6.594   2.164   4.903
 1214SOL     OW 5474   2.047   0.687  12.486
 1214SOL    HW1 5475   2.040   0.600  12.524
 1214SOL    HW2 5476   1.979   0.738  12.530
 1215SOL     OW 5477   4.350  13.622   7.037
 1215SOL    HW1 5478   4.409  13.591   7.106
 1215SOL    HW2 5479   4.390  13.591   6.956
 1216SOL     OW 5480   8.270   5.791   4.931
 1216SOL    HW1 5481   8.261   5.753   4.843
 1216SOL    HW2 5482   8.327   5.730   4.977
 1217SOL     OW 5483  12.506   8.701   2.597
 1217SOL    HW1 5484  12.551   8.641   2.537
 1217SOL    HW2 5485  12.488   8.648   2.675
 1218SOL     OW 5486  10.365   2.639   2.672
 1218SOL    HW1 5487  10.410   2.707   2.621
 1218SOL    HW2 5488  10.344   2.682   2.755
 1219SOL     OW 5489  12.771   3.465   2.928
 1219SOL    HW1 5490  12.714   3.501   2.996
 1219SOL    HW2 5491  12.728   3.383   2.902
 1220SOL     OW 5492   5.410   6.673  12.926
 1220SOL    HW1 5493   5.400   6.666  13.021
 1220SOL    HW2 5494   5.450   6.759  12.913
 1221SOL     OW 5495   4.281   8.853   9.199
 1221SOL    HW1 5496   4.187   8.858   9.217
 1221SOL    HW2 5497   4.310   8.771   9.240
 1222SOL     OW 5498   8.317   2.035   5.011
 1222SOL    HW1 5499   8.388   2.083   5.055
 1222SOL    HW2 5500   8.257   2.102   4.981
 1223SOL     OW 5501   0.117   9.169   4.287
 1223SOL    HW1 5502   0.059   9.244   4.277
 1223SOL    HW2 5503   0.197   9.205   4.325
 1224SOL     OW 5504  14.562  14.339   6.208
 1224SOL    HW1 5505  14.579  14.409   6.271
 1224SOL    HW2 5506  14.639  14.282   6.213
 1225SOL     OW 5507   6.062   1.128   0.057
 1225SOL    HW1 5508   6.105   1.206   0.091
 1225SOL    HW2 5509   6.129   1.059   0.064
 1226SOL     OW 5510  13.973   7.098   1.639
 1226SOL    HW1 5511  14.007   7.035   1.574
 1226SOL    HW2 5512  13.984   7.183   1.597
 1227SOL     OW 5513   0.193   7.050  11.075
 1227SOL    HW1 5514   0.156   6.969  11.111
 1227SOL    HW2 5515   0.117   7.102  11.050
 1228SOL     OW 5516  14.812  14.375   9.022
 1228SOL    HW1 5517  14.843  14.463   9.001
 1228SOL    HW2 5518   0.012  14.322   9.028
 1229SOL     OW 5519   6.970  10.731  13.318
 1229SOL    HW1 5520   6.892  10.676  13.309
 1229SOL    HW2 5521   7.023  10.687  13.384
 1230SOL     OW 5522   1.399  13.883  13.884
 1230SOL    HW1 5523   1.349  13.949  13.932
 1230SOL    HW2 5524   1.487  13.920  13.877
 1231SOL     OW 5525  14.548  13.414   5.879
 1231SOL    HW1 5526  14.512  13.332   5.847
 1231SOL    HW2 5527  14.501  13.430   5.961
 1232SOL     OW 5528  11.788  13.934   6.263
 1232SOL    HW1 5529  11.810  13.898   6.348
 1232SOL    HW2 5530  11.738  14.013   6.282
 1233SOL     OW 5531   1.951   2.160   4.397
 1233SOL    HW1 5532   1.935   2.213   4.319
 1233SOL    HW2 5533   2.046   2.156   4.404
 1234SOL     OW 5534   4.710   1.991   2.335
 1234SOL    HW1 5535   4.710   2.052   2.409
 1234SOL    HW2 5536   4.801   1.989   2.306
 1235SOL     OW 5537  10.962   0.588  10.214
 1235SOL    HW1 5538  10.997   0.631  10.292
 1235SOL    HW2 5539  10.987   0.496  10.223
 1236SOL     OW 5540  10.046   8.903  10.327
 1236SOL    HW1 5541  10.036   8.870  10.238
 1236SOL    HW2 5542  10.019   8.994  10.322
 1237SOL     OW 5543   1.435   0.963   9.095
 1237SOL    HW1 5544   1.406   0.915   9.173
 1237SOL    HW2 5545   1.354   0.992   9.054
 1238SOL     OW 5546   6.539   1.752   4.040
 1238SOL    HW1 5547   6.571   1.773   3.952
 1238SOL    HW2 5548   6.470   1.687   4.025
 1239SOL     OW 5549   3.468   9.258  12.110
 1239SOL    HW1 5550   3.396   9.243  12.050
 1239SOL    HW2 5551   3.503   9.343  12.084
 1240SOL     OW 5552   5.140  11.218   7.010
 1240SOL    HW1 5553   5.066  11.279   7.012
 1240SOL    HW2 5554   5.099  11.132   7.001
 1241SOL     OW 5555   7.594   5.163   5.570
 1241SOL    HW1 5556   7.564   5.084   5.617
 1241SOL    HW2 5557   7.546   5.162   5.488
 1242SOL     OW 5558   7.480  11.768   0.821
 1242SOL    HW1 5559   7.557  11.820   0.843
 1242SOL    HW2 5560   7.422  11.829   0.777
 1243SOL     OW 5561  12.804   2.358   6.990
 1243SOL    HW1 5562  12.710   2.338   6.986
 1243SOL    HW2 5563  12.809   2.444   7.032
 1244SOL     OW 5564   5.299  11.402   1.339
 1244SOL    HW1 5565   5.219  11.379   1.387
 1244SOL    HW2 5566   5.295  11.498   1.331
 1245SOL     OW 5567   7.839   0.715   0.226
 1245SOL    HW1 5568   7.864   0.668   0.306
 1245SOL    HW2 5569   7.843   0.807   0.251
 1246SOL     OW 5570  14.460   1.030  10.580
 1246SOL    HW1 5571  14.385   1.078  10.545
 1246SOL    HW2 5572  14.458   0.945  10.536
 1247SOL     OW 5573   5.036   3.130  14.006
 1247SOL    HW1 5574   5.101   3.060  14.019
 1247SOL    HW2 5575   5.049   3.158  13.916
 1248SOL     OW 5576  10.312   1.513   0.665
 1248SOL    HW1 5577  10.259   1.536   0.589
 1248SOL    HW2 5578  10.250   1.509   0.738
 1249SOL     OW 5579   5.635  13.074  13.250
 1249SOL    HW1 5580   5.548  13.106  13.272
 1249SOL    HW2 5581   5.645  13.093  13.156
 1250SOL     OW 5582  11.125   0.740   8.326
 1250SOL    HW1 5583  11.145   0.738   8.233
 1250SOL    HW2 5584  11.030   0.728   8.331
 1251SOL     OW 5585  11.224   4.844   4.080
 1251SOL    HW1 5586  11.134   4.829   4.050
 1251SOL    HW2 5587  11.219   4.922   4.134
 1252SOL     OW 5588   7.386   1.248   9.686
 1252SOL    HW1 5589   7.435   1.218   9.610
 1252SOL    HW2 5590   7.346   1.330   9.658
 1253SOL     OW 5591   8.913   9.873  11.248
 1253SOL    HW1 5592   8.901   9.955  11.201
 1253SOL    HW2 5593   8.825   9.834  11.251
 1254SOL     OW 5594   6.075   6.660   5.982
 1254SOL    HW1 5595   6.057   6.573   5.948
 1254SOL    HW2 5596   6.159   6.685   5.944
 1255SOL     OW 5597   6.922   1.818   0.147
 1255SOL    HW1 5598   6.922   1.912   0.161
 1255SOL    HW2 5599   6.864   1.783   0.215
 1256SOL     OW 5600  10.357  11.711   1.914
 1256SOL    HW1 5601  10.382  11.799   1.885
 1256SOL    HW2 5602  10.383  11.707   2.006
 1257SOL     OW 5603   3.994   6.598   5.342
 1257SOL    HW1 5604   3.954   6.511   5.346
 1257SOL    HW2 5605   4.088   6.582   5.353
 1258SOL     OW 5606   3.121   3.856  13.032
 1258SOL    HW1 5607   3.165   3.865  13.116
 1258SOL    HW2 5608   3.177   3.904  12.970
 1259SOL     OW 5609  14.018  11.587  10.654
 1259SOL    HW1 5610  13.978  11.670  10.679
 1259SOL    HW2 5611  14.038  11.544  10.737
 1260SOL     OW 5612   8.219   4.228   3.321
 1260SOL    HW1 5613   8.288   4.287   3.290
 1260SOL    HW2 5614   8.160   4.285   3.371
 1261SOL     OW 5615  14.726   4.992  12.820
 1261SOL    HW1 5616  14.711   5.050  12.745
 1261SOL    HW2 5617  14.815   5.012  12.848
 1262SOL     OW 5618   1.436   7.224   2.366
 1262SOL    HW1 5619   1.354   7.258   2.403
 1262SOL    HW2 5620   1.443   7.135   2.400
 1263SOL     OW 5621   6.729   0.168  10.978
 1263SOL    HW1 5622   6.664   0.112  10.936
 1263SOL    HW2 5623   6.701   0.257  10.957
 1264SOL     OW 5624  14.054   7.978  13.697
 1264SOL    HW1 5625  14.022   7.999  13.609
 1264SOL    HW2 5626  14.048   7.883  13.703
 1265SOL     OW 5627   9.923  11.244  10.919
 1265SOL    HW1 5628   9.851  11.194  10.881
 1265SOL    HW2 5629   9.891  11.271  11.005
 1266SOL     OW 5630   4.782  12.935  12.621
 1266SOL    HW1 5631   4.790  12.856  12.674
 1266SOL    HW2 5632   4.748  13.001  12.682
 1267SOL     OW 5633  11.572   4.780   8.704
 1267SOL    HW1 5634  11.580   4.732   8.621
 1267SOL    HW2 5635  11.492   4.832   8.694
 1268SOL     OW 5636   7.673   4.872   5.463
 1268SOL    HW1 5637   7.646   4.873   5.371
 1268SOL    HW2 5638   7.592   4.885   5.512
 1269SOL     OW 5639  13.657  11.743   8.286
 1269SOL    HW1 5640  13.658  11.647   8.274
 1269SOL    HW2 5641  13.566  11.767   8.270
 1270SOL     OW 5642   3.341   5.854  12.892
 1270SOL    HW1 5643   3.433   5.881  12.891
 1270SOL    HW2 5644   3.344   5.759  12.906
 1271SOL     OW 5645   2.002   7.527  11.026
 1271SOL    HW1 5646   1.998   7.607  11.078
 1271SOL    HW2 5647   1.972   7.458  11.085
 1272SOL     OW 5648  14.285  12.406   0.088
 1272SOL    HW1 5649  14.197  12.416   0.051
 1272SOL    HW2 5650  14.276  12.440   0.178
 1273SOL     OW 5651   1.046   0.251  10.636
 1273SOL    HW1 5652   1.014   0.281  10.721
 1273SOL    HW2 5653   1.120   0.195  10.657
 1274SOL     OW 5654  12.777  11.073   5.760
 1274SOL    HW1 5655  12.781  10.978   5.749
 1274SOL    HW2 5656  12.703  11.087   5.818
 1275SOL     OW 5657   7.967   8.697  11.486
 1275SOL    HW1 5658   7.899   8.711  11.552
 1275SOL    HW2 5659   8.049   8.722  11.530
 1276SOL     OW 5660  10.332  12.229   6.842
 1276SOL    HW1 5661  10.309  12.138   6.822
 1276SOL    HW2 5662  10.249  12.269   6.868
 1277SOL     OW 5663  12.289   4.074   6.014
 1277SOL    HW1 5664  12.243   4.004   5.968
 1277SOL    HW2 5665  12.222   4.114   6.069
 1278SOL     OW 5666   9.648  11.683   2.372
 1278SOL    HW1 5667   9.645  11.631   2.453
 1278SOL    HW2 5668   9.563  11.667   2.330
 1279SOL     OW 5669  11.417  11.404   6.238
 1279SOL    HW1 5670  11.398  11.434   6.327
 1279SOL    HW2 5671  11.352  11.336   6.221
 1280SOL     OW 5672  14.536   1.326   8.506
 1280SOL    HW1 5673  14.461   1.266   8.504
 1280SOL    HW2 5674  14.528   1.371   8.591
 1281SOL     OW 5675  12.544   6.833  10.949
 1281SOL    HW1 5676  12.496   6.781  11.014
 1281SOL    HW2 5677  12.522   6.924  10.969
 1282SOL     OW 5678   5.051  11.559  10.707
 1282SOL    HW1 5679   5.115  11.547  10.638
 1282SOL    HW2 5680   5.081  11.636  10.755
 1283SOL     OW 5681  11.580  10.770   8.037
 1283SOL    HW1 5682  11.555  10.678   8.026
 1283SOL    HW2 5683  11.501  10.812   8.072
 1284SOL     OW 5684   3.937   8.092   3.157
 1284SOL    HW1 5685   3.879   8.052   3.092
 1284SOL    HW2 5686   4.005   8.027   3.173
 1285SOL     OW 5687  11.611   7.840   9.342
 1285SOL    HW1 5688  11.558   7.768   9.377
 1285SOL    HW2 5689  11.639   7.810   9.256
 1286SOL     OW 5690   0.653   4.061   1.385
 1286SOL    HW1 5691   0.658   4.150   1.348
 1286SOL    HW2 5692   0.672   4.073   1.478
 1287SOL     OW 5693  11.067  12.742   0.064
 1287SOL    HW1 5694  11.028  12.828   0.079
 1287SOL    HW2 5695  11.119  12.725   0.143
 1288SOL     OW 5696   0.866   4.759   1.757
 1288SOL    HW1 5697   0.880   4.787   1.666
 1288SOL    HW2 5698   0.944   4.789   1.804
 1289SOL     OW 5699   8.814   4.401   3.110
 1289SOL    HW1 5700   8.891   4.441   3.067
 1289SOL    HW2 5701   8.846   4.374   3.196
 1290SOL     OW 5702   2.142  14.592  13.488
 1290SOL    HW1 5703   2.224  14.621  13.448
 1290SOL    HW2 5704   2.083  14.666  13.478
 1291SOL     OW 5705   2.813  13.255   4.248
 1291SOL    HW1 5706   2.862  13.280   4.327
 1291SOL    HW2 5707   2.843  13.167   4.228
 1292SOL     OW 5708   7.084  10.518   7.344
 1292SOL    HW1 5709   7.046  10.516   7.431
 1292SOL    HW2 5710   7.013  10.495   7.285
 1293SOL     OW 5711   1.570   5.206  14.631
 1293SOL    HW1 5712   1.590   5.219  14.538
 1293SOL    HW2 5713   1.655   5.188  14.672
 1294SOL     OW 5714   2.016   8.073   2.301
 1294SOL    HW1 5715   1.967   8.060   2.382
 1294SOL    HW2 5716   2.072   7.996   2.294
 1295SOL     OW 5717  11.205   7.112   2.652
 1295SOL    HW1 5718  11.247   7.063   2.723
 1295SOL    HW2 5719  11.238   7.071   2.572
 1296SOL     OW 5720  13.180   8.743   6.133
 1296SOL    HW1 5721  13.169   8.749   6.038
 1296SOL    HW2 5722  13.275   8.744   6.146
 1297SOL     OW 5723   3.249   6.291  14.443
 1297SOL    HW1 5724   3.253   6.198  14.461
 1297SOL    HW2 5725   3.155   6.310  14.433
 1298SOL     OW 5726  11.212   8.184  13.279
 1298SOL    HW1 5727  11.290   8.152  13.234
 1298SOL    HW2 5728  11.244   8.248  13.342
 1299SOL     OW 5729   1.995   5.752  11.289
 1299SOL    HW1 5730   2.018   5.832  11.242
 1299SOL    HW2 5731   2.024   5.682  11.231
 1300SOL     OW 5732   0.934   5.914   5.947
 1300SOL    HW1 5733   1.013   5.904   6.001
 1300SOL    HW2 5734   0.910   6.006   5.957
 1301SOL     OW 5735  14.653   0.071   2.077
 1301SOL    HW1 5736  14.674  14.857   2.070
 1301SOL    HW2 5737  14.738   0.114   2.086
 1302SOL     OW 5738  11.107   9.482  11.823
 1302SOL    HW1 5739  11.045   9.546  11.858
 1302SOL    HW2 5740  11.053   9.421  11.774
 1303SOL     OW 5741   5.157   1.343  11.818
 1303SOL    HW1 5742   5.111   1.263  11.839
 1303SOL    HW2 5743   5.126   1.367  11.730
 1304SOL     OW 5744   0.730   5.580  10.036
 1304SOL    HW1 5745   0.654   5.637  10.034
 1304SOL    HW2 5746   0.711   5.512   9.971
 1305SOL     OW 5747   4.427  12.280   5.188
 1305SOL    HW1 5748   4.365  12.299   5.118
 1305SOL    HW2 5749   4.389  12.321   5.266
 1306SOL     OW 5750   1.376  10.834   0.766
 1306SOL    HW1 5751   1.421  10.918   0.781
 1306SOL    HW2 5752   1.303  10.856   0.708
 1307SOL     OW 5753  11.347   8.116  13.642
 1307SOL    HW1 5754  11.401   8.080  13.712
 1307SOL    HW2 5755  11.262   8.132  13.683
 1308SOL     OW 5756   9.620   2.619  12.519
 1308SOL    HW1 5757   9.691   2.600  12.579
 1308SOL    HW2 5758   9.657   2.605  12.432
 1309SOL     OW 5759   2.160  12.910   6.439
 1309SOL    HW1 5760   2.098  12.982   6.452
 1309SOL    HW2 5761   2.142  12.878   6.351
 1310SOL     OW 5762  12.093   7.327  10.860
 1310SOL    HW1 5763  12.132   7.282  10.785
 1310SOL    HW2 5764  12.132   7.415  10.858
 1311SOL     OW 5765   1.648   4.882   7.447
 1311SOL    HW1 5766   1.696   4.920   7.373
 1311SOL    HW2 5767   1.587   4.821   7.407
 1312SOL     OW 5768  13.074   0.585  13.151
 1312SOL    HW1 5769  12.982   0.581  13.177
 1312SOL    HW2 5770  13.123   0.584  13.233
 1313SOL     OW 5771   1.210  11.256   9.992
 1313SOL    HW1 5772   1.131  11.289  10.033
 1313SOL    HW2 5773   1.186  11.169   9.960
 1314SOL     OW 5774  10.265  12.508   8.420
 1314SOL    HW1 5775  10.190  12.504   8.479
 1314SOL    HW2 5776  10.323  12.573   8.459
 1315SOL     OW 5777   3.439  14.279  11.479
 1315SOL    HW1 5778   3.373  14.217  11.510
 1315SOL    HW2 5779   3.455  14.254  11.388
 1316SOL     OW 5780   9.893  13.116   3.827
 1316SOL    HW1 5781   9.878  13.171   3.903
 1316SOL    HW2 5782   9.933  13.174   3.762
 1317SOL     OW 5783   2.587   6.307   5.075
 1317SOL    HW1 5784   2.606   6.401   5.071
 1317SOL    HW2 5785   2.505   6.297   5.025
 1318SOL     OW 5786   0.375  12.064   9.027
 1318SOL    HW1 5787   0.342  12.102   9.109
 1318SOL    HW2 5788   0.445  12.005   9.055
 1319SOL     OW 5789   5.161  13.296   4.132
 1319SOL    HW1 5790   5.253  13.290   4.108
 1319SOL    HW2 5791   5.117  13.324   4.051
 1320SOL     OW 5792   8.124   4.761   7.662
 1320SOL    HW1 5793   8.034   4.769   7.691
 1320SOL    HW2 5794   8.176   4.767   7.743
 1321SOL     OW 5795  12.684  12.363   4.951
 1321SOL    HW1 5796  12.716  12.407   5.029
 1321SOL    HW2 5797  12.606  12.412   4.925
 1322SOL     OW 5798   3.440   3.750   0.518
 1322SOL    HW1 5799   3.420   3.690   0.446
 1322SOL    HW2 5800   3.473   3.829   0.475
 1323SOL     OW 5801   8.720   1.377   9.469
 1323SOL    HW1 5802   8.766   1.306   9.424
 1323SOL    HW2 5803   8.627   1.359   9.454
 1324SOL     OW 5804   3.802   0.461   2.542
 1324SOL    HW1 5805   3.829   0.486   2.454
 1324SOL    HW2 5806   3.755   0.378   2.530
 1325SOL     OW 5807   5.769  10.553   0.364
 1325SOL    HW1 5808   5.750  10.581   0.454
 1325SOL    HW2 5809   5.689  10.574   0.315
 1326SOL     OW 5810   4.621  13.255   6.458
 1326SOL    HW1 5811   4.588  13.243   6.547
 1326SOL    HW2 5812   4.636  13.349   6.449
 1327SOL     OW 5813  13.829   4.188  12.914
 1327SOL    HW1 5814  13.886   4.219  12.844
 1327SOL    HW2 5815  13.889   4.148  12.977
 1328SOL     OW 5816   9.576   2.223  13.284
 1328SOL    HW1 5817   9.601   2.148  13.338
 1328SOL    HW2 5818   9.594   2.299  13.339
 1329SOL     OW 5819  11.260   5.247  12.022
 1329SOL    HW1 5820  11.229   5.330  12.059
 1329SOL    HW2 5821  11.242   5.254  11.928
 1330SOL     OW 5822   5.234  11.835  11.850
 1330SOL    HW1 5823   5.249  11.751  11.893
 1330SOL    HW2 5824   5.144  11.858  11.873
 1331SOL     OW 5825   5.870   9.311   2.919
 1331SOL    HW1 5826   5.916   9.364   2.854
 1331SOL    HW2 5827   5.807   9.260   2.869
 1332SOL     OW 5828  14.602  11.704   4.229
 1332SOL    HW1 5829  14.630  11.789   4.263
 1332SOL    HW2 5830  14.507  11.707   4.231
 1333SOL     OW 5831   4.566   4.421  13.097
 1333SOL    HW1 5832   4.488   4.435  13.044
 1333SOL    HW2 5833   4.620   4.498  13.082
 1334SOL     OW 5834  12.233   4.393   1.467
 1334SOL    HW1 5835  12.137   4.392   1.459
 1334SOL    HW2 5836  12.264   4.410   1.379
 1335SOL     OW 5837   2.916   0.062  13.775
 1335SOL    HW1 5838   2.923   0.008  13.854
 1335SOL    HW2 5839   2.823   0.058  13.752
 1336SOL     OW 5840  11.473   7.185  11.669
 1336SOL    HW1 5841  11.522   7.112  11.631
 1336SOL    HW2 5842  11.404   7.203  11.606
 1337SOL     OW 5843  13.635   3.975  12.975
 1337SOL    HW1 5844  13.684   4.053  12.951
 1337SOL    HW2 5845  13.588   4.000  13.055
 1338SOL     OW 5846   9.423  14.347  10.208
 1338SOL    HW1 5847   9.340  14.316  10.245
 1338SOL    HW2 5848   9.410  14.441  10.196
 1339SOL     OW 5849   9.601   5.106   5.301
 1339SOL    HW1 5850   9.520   5.095   5.249
 1339SOL    HW2 5851   9.626   5.197   5.287
 1340SOL     OW 5852   3.054   2.339   1.893
 1340SOL    HW1 5853   3.126   2.402   1.903
 1340SOL    HW2 5854   2.975   2.392   1.895
 1341SOL     OW 5855   9.578  11.364  13.092
 1341SOL    HW1 5856   9.664  11.376  13.051
 1341SOL    HW2 5857   9.580  11.275  13.126
 1342SOL     OW 5858   3.250   4.123   4.539
 1342SOL    HW1 5859   3.330   4.081   4.506
 1342SOL    HW2 5860   3.209   4.056   4.595
 1343SOL     OW 5861   1.347  11.550  13.106
 1343SOL    HW1 5862   1.274  11.599  13.142
 1343SOL    HW2 5863   1.340  11.562  13.011
 1344SOL     OW 5864  11.771   0.729   9.088
 1344SOL    HW1 5865  11.809   0.815   9.106
 1344SOL    HW2 5866  11.730   0.738   9.002
 1345SOL     OW 5867   9.920  12.652   3.245
 1345SOL    HW1 5868   9.965  12.569   3.230
 1345SOL    HW2 5869   9.964  12.714   3.187
 1346SOL     OW 5870  14.592   8.137   7.879
 1346SOL    HW1 5871  14.582   8.063   7.819
 1346SOL    HW2 5872  14.686   8.147   7.890
 1347SOL     OW 5873  12.484  12.193  12.103
 1347SOL    HW1 5874  12.536  12.169  12.180
 1347SOL    HW2 5875  12.473  12.111  12.055
 1348SOL     OW 5876   7.999   3.725  12.906
 1348SOL    HW1 5877   7.976   3.762  12.821
 1348SOL    HW2 5878   7.940   3.651  12.917
 1349SOL     OW 5879  10.099   8.343   1.379
 1349SOL    HW1 5880  10.156   8.400   1.328
 1349SOL    HW2 5881  10.044   8.300   1.314
 1350SOL     OW 5882  11.869   6.725   6.098
 1350SOL    HW1 5883  11.838   6.740   6.008
 1350SOL    HW2 5884  11.828   6.796   6.148
 1351SOL     OW 5885   6.464  14.339  11.675
 1351SOL    HW1 5886   6.508  14.254  11.683
 1351SOL    HW2 5887   6.462  14.357  11.581
 1352SOL     OW 5888   7.534   5.819   7.014
 1352SOL    HW1 5889   7.461   5.781   7.064
 1352SOL    HW2 5890   7.492   5.882   6.955
 1353SOL     OW 5891  12.984   4.758   8.711
 1353SOL    HW1 5892  12.923   4.752   8.785
 1353SOL    HW2 5893  13.036   4.678   8.717
 1354SOL     OW 5894   6.224   0.623   7.683
 1354SOL    HW1 5895   6.253   0.665   7.603
 1354SOL    HW2 5896   6.268   0.671   7.753
 1355SOL     OW 5897   4.720  10.440   7.694
 1355SOL    HW1 5898   4.687  10.434   7.784
 1355SOL    HW2 5899   4.753  10.529   7.686
 1356SOL     OW 5900   8.317   3.977   7.231
 1356SOL    HW1 5901   8.343   4.017   7.148
 1356SOL    HW2 5902   8.281   3.892   7.207
 1357SOL     OW 5903   3.598  12.590  14.685
 1357SOL    HW1 5904   3.571  12.682  14.692
 1357SOL    HW2 5905   3.572  12.563  14.597
 1358SOL     OW 5906   5.105   5.200   0.200
 1358SOL    HW1 5907   5.027   5.194   0.144
 1358SOL    HW2 5908   5.179   5.184   0.140
 1359SOL     OW 5909   8.664   9.844  12.637
 1359SOL    HW1 5910   8.680   9.750  12.636
 1359SOL    HW2 5911   8.685   9.871  12.726
 1360SOL     OW 5912  13.282   9.734  11.990
 1360SOL    HW1 5913  13.267   9.792  11.915
 1360SOL    HW2 5914  13.234   9.654  11.969
 1361SOL     OW 5915   7.181   0.837   4.747
 1361SOL    HW1 5916   7.095   0.861   4.713
 1361SOL    HW2 5917   7.170   0.749   4.783
 1362SOL     OW 5918   5.366  12.875   7.927
 1362SOL    HW1 5919   5.428  12.948   7.924
 1362SOL    HW2 5920   5.420  12.797   7.913
 1363SOL     OW 5921  13.307  11.348   8.058
 1363SOL    HW1 5922  13.242  11.408   8.021
 1363SOL    HW2 5923  13.282  11.262   8.026
 1364SOL     OW 5924   9.177  13.618   3.824
 1364SOL    HW1 5925   9.113  13.601   3.755
 1364SOL    HW2 5926   9.249  13.558   3.807
 1365SOL     OW 5927   0.083   1.509  11.138
 1365SOL    HW1 5928   0.081   1.549  11.051
 1365SOL    HW2 5929   0.020   1.437  11.132
 1366SOL     OW 5930  12.389   8.913  13.512
 1366SOL    HW1 5931  12.361   8.823  13.495
 1366SOL    HW2 5932  12.361   8.962  13.434
 1367SOL     OW 5933   7.817  12.621  14.794
 1367SOL    HW1 5934   7.891  12.644  14.738
 1367SOL    HW2 5935   7.740  12.649  14.745
 1368SOL     OW 5936   0.599  12.280   5.830
 1368SOL    HW1 5937   0.619  12.229   5.752
 1368SOL    HW2 5938   0.645  12.363   5.817
 1369SOL     OW 5939   5.677  13.844  13.437
 1369SOL    HW1 5940   5.689  13.938  13.422
 1369SOL    HW2 5941   5.766  13.808  13.437
 1370SOL     OW 5942   6.913   7.576  11.826
 1370SOL    HW1 5943   6.864   7.628  11.889
 1370SOL    HW2 5944   6.857   7.501  11.806
 1371SOL     OW 5945   0.041   8.153  14.232
 1371SOL    HW1 5946  14.847   8.091  14.237
 1371SOL    HW2 5947   0.046   8.192  14.319
 1372SOL     OW 5948   9.649   5.704   3.302
 1372SOL    HW1 5949   9.712   5.689   3.231
 1372SOL    HW2 5950   9.610   5.618   3.318
 1373SOL     OW 5951   9.009  13.041   7.615
 1373SOL    HW1 5952   8.958  13.027   7.535
 1373SOL    HW2 5953   8.950  13.016   7.686
 1374SOL     OW 5954   2.541   0.492   9.219
 1374SOL    HW1 5955   2.547   0.578   9.176
 1374SOL    HW2 5956   2.487   0.439   9.160
 1375SOL     OW 5957  14.801   3.747   0.540
 1375SOL    HW1 5958  14.742   3.730   0.466
 1375SOL    HW2 5959  14.865   3.809   0.505
 1376SOL     OW 5960   0.076   5.320   8.922
 1376SOL    HW1 5961  14.863   5.299   8.907
 1376SOL    HW2 5962   0.121   5.236   8.911
 1377SOL     OW 5963  14.529   3.455   2.245
 1377SOL    HW1 5964  14.542   3.513   2.170
 1377SOL    HW2 5965  14.450   3.489   2.288
 1378SOL     OW 5966   8.869   1.571  11.575
 1378SOL    HW1 5967   8.802   1.534  11.632
 1378SOL    HW2 5968   8.865   1.516  11.496
 1379SOL     OW 5969   9.890  12.511   2.976
 1379SOL    HW1 5970   9.838  12.514   3.056
 1379SOL    HW2 5971   9.886  12.419   2.949
 1380SOL     OW 5972   6.617   0.094   1.576
 1380SOL    HW1 5973   6.631   0.169   1.634
 1380SOL    HW2 5974   6.600   0.021   1.635
 1381SOL     OW 5975   8.957   4.185  10.014
 1381SOL    HW1 5976   8.892   4.253   9.994
 1381SOL    HW2 5977   9.036   4.214   9.968
 1382SOL     OW 5978  10.376   9.138  11.453
 1382SOL    HW1 5979  10.387   9.051  11.492
 1382SOL    HW2 5980  10.430   9.136  11.374
 1383SOL     OW 5981   3.489  10.750  11.318
 1383SOL    HW1 5982   3.409  10.698  11.309
 1383SOL    HW2 5983   3.461  10.840  11.309
 1384SOL     OW 5984  10.573   9.169  11.177
 1384SOL    HW1 5985  10.634   9.102  11.148
 1384SOL    HW2 5986  10.615   9.208  11.254
 1385SOL     OW 5987   5.395  12.524   5.579
 1385SOL    HW1 5988   5.307  12.506   5.614
 1385SOL    HW2 5989   5.404  12.466   5.504
 1386SOL     OW 5990   9.517   7.274  13.533
 1386SOL    HW1 5991   9.586   7.218  13.568
 1386SOL    HW2 5992   9.468   7.304  13.609
 1387SOL     OW 5993  14.829   6.669   3.914
 1387SOL    HW1 5994  14.799   6.749   3.956
 1387SOL    HW2 5995   0.002   6.624   3.981
 1388SOL     OW 5996  11.027  11.737   6.020
 1388SOL    HW1 5997  11.060  11.784   6.097
 1388SOL    HW2 5998  11.106  11.711   5.972
 1389SOL     OW 5999   4.709   7.994  14.036
 1389SOL    HW1 6000   4.712   8.051  14.113
 1389SOL    HW2 6001   4.766   8.036  13.972
 1390SOL     OW 6002   7.024   1.526   0.532
 1390SOL    HW1 6003   6.963   1.457   0.507
 1390SOL    HW2 6004   7.045   1.506   0.624
 1391SOL     OW 6005  14.565   1.812   3.942
 1391SOL    HW1 6006  14.500   1.784   3.877
 1391SOL    HW2 6007  14.560   1.907   3.941
 1392SOL     OW 6008  13.629   2.300   7.721
 1392SOL    HW1 6009  13.708   2.328   7.675
 1392SOL    HW2 6010  13.578   2.380   7.731
 1393SOL     OW 6011   1.128   5.817  11.004
 1393SOL    HW1 6012   1.175   5.746  11.047
 1393SOL    HW2 6013   1.196   5.874  10.969
 1394SOL     OW 6014   7.452   9.851   7.282
 1394SOL    HW1 6015   7.458   9.772   7.337
 1394SOL    HW2 6016   7.416   9.819   7.199
 1395SOL     OW 6017   0.387   2.531   6.731
 1395SOL    HW1 6018   0.440   2.525   6.810
 1395SOL    HW2 6019   0.303   2.492   6.755
 1396SOL     OW 6020   2.785   4.852  13.092
 1396SOL    HW1 6021   2.757   4.761  13.106
 1396SOL    HW2 6022   2.745   4.901  13.164
 1397SOL     OW 6023   3.217   8.606   2.983
 1397SOL    HW1 6024   3.129   8.591   2.947
 1397SOL    HW2 6025   3.267   8.529   2.956
 1398SOL     OW 6026   8.922  12.977   0.564
 1398SOL    HW1 6027   8.864  12.951   0.635
 1398SOL    HW2 6028   8.884  13.058   0.530
 1399SOL     OW 6029  12.526  10.428  10.912
 1399SOL    HW1 6030  12.476  10.509  10.923
 1399SOL    HW2 6031  12.462  10.358  10.925
 1400SOL     OW 6032   4.494  11.347   1.390
 1400SOL    HW1 6033   4.466  11.285   1.323
 1400SOL    HW2 6034   4.425  11.345   1.456
 1401SOL     OW 6035  13.585   9.883   3.904
 1401SOL    HW1 6036  13.494   9.914   3.901
 1401SOL    HW2 6037  13.592   9.823   3.830
 1402SOL     OW 6038   0.829   7.594   1.690
 1402SOL    HW1 6039   0.858   7.521   1.636
 1402SOL    HW2 6040   0.908   7.645   1.705
 1403SOL     OW 6041   9.896   9.430   0.598
 1403SOL    HW1 6042   9.863   9.341   0.587
 1403SOL    HW2 6043   9.991   9.420   0.602
 1404SOL     OW 6044   6.536   8.086   1.177
 1404SOL    HW1 6045   6.515   8.086   1.270
 1404SOL    HW2 6046   6.595   8.160   1.165
 1405SOL     OW 6047   9.036   0.086  11.049
 1405SOL    HW1 6048   8.945   0.060  11.061
 1405SOL    HW2 6049   9.038   0.177  11.078
 1406SOL     OW 6050   9.641   8.405   4.939
 1406SOL    HW1 6051   9.698   8.481   4.947
 1406SOL    HW2 6052   9.680   8.353   4.869
 1407SOL     OW 6053   5.924   3.569   6.376
 1407SOL    HW1 6054   5.892   3.480   6.364
 1407SOL    HW2 6055   5.863   3.609   6.437
 1408SOL     OW 6056   0.555   0.527   3.527
 1408SOL    HW1 6057   0.480   0.586   3.518
 1408SOL    HW2 6058   0.523   0.442   3.498
 1409SOL     OW 6059  14.262   1.994   2.854
 1409SOL    HW1 6060  14.199   2.032   2.916
 1409SOL    HW2 6061  14.303   1.923   2.902
 1410SOL     OW 6062   2.549   2.387  11.124
 1410SOL    HW1 6063   2.537   2.391  11.219
 1410SOL    HW2 6064   2.542   2.478  11.096
 1411SOL     OW 6065   8.910   1.631  13.381
 1411SOL    HW1 6066   8.901   1.600  13.291
 1411SOL    HW2 6067   8.920   1.552  13.434
 1412SOL     OW 6068   1.445   4.175   0.282
 1412SOL    HW1 6069   1.418   4.106   0.343
 1412SOL    HW2 6070   1.363   4.208   0.246
 1413SOL     OW 6071   4.292   6.832   3.485
 1413SOL    HW1 6072   4.330   6.822   3.572
 1413SOL    HW2 6073   4.357   6.794   3.426
 1414SOL     OW 6074   8.653   0.072  13.444
 1414SOL    HW1 6075   8.653  14.865  13.487
 1414SOL    HW2 6076   8.577   0.117  13.480
 1415SOL     OW 6077   3.947   1.153  14.551
 1415SOL    HW1 6078   4.018   1.200  14.593
 1415SOL    HW2 6079   3.899   1.220  14.502
 1416SOL     OW 6080   6.247   6.498  13.624
 1416SOL    HW1 6081   6.256   6.432  13.555
 1416SOL    HW2 6082   6.152   6.514  13.630
 1417SOL     OW 6083  12.321   3.272   0.492
 1417SOL    HW1 6084  12.311   3.362   0.464
 1417SOL    HW2 6085  12.371   3.278   0.574
 1418SOL     OW 6086   7.913  10.070   6.021
 1418SOL    HW1 6087   7.856  10.100   6.092
 1418SOL    HW2 6088   7.924  10.146   5.964
 1419SOL     OW 6089   7.182   4.433   1.805
 1419SOL    HW1 6090   7.220   4.356   1.763
 1419SOL    HW2 6091   7.211   4.427   1.896
 1420SOL     OW 6092   5.768   9.638   4.905
 1420SOL    HW1 6093   5.835   9.703   4.885
 1420SOL    HW2 6094   5.794   9.602   4.989
 1421SOL     OW 6095  13.624   5.241   3.253
 1421SOL    HW1 6096  13.583   5.326   3.269
 1421SOL    HW2 6097  13.573   5.179   3.303
 1422SOL     OW 6098   5.846   1.673  14.793
 1422SOL    HW1 6099   5.778   1.606  14.799
 1422SOL    HW2 6100   5.863   1.699   0.004
 1423SOL     OW 6101   9.527   5.568  14.605
 1423SOL    HW1 6102   9.615   5.590  14.576
 1423SOL    HW2 6103   9.470   5.625  14.553
 1424SOL     OW 6104  11.564  11.139   2.242
 1424SOL    HW1 6105  11.621  11.184   2.304
 1424SOL    HW2 6106  11.476  11.155   2.274
 1425SOL     OW 6107   1.987   2.859   1.694
 1425SOL    HW1 6108   1.941   2.918   1.635
 1425SOL    HW2 6109   2.065   2.833   1.645
 1426SOL     OW 6110   7.934   6.123   6.135
 1426SOL    HW1 6111   7.853   6.094   6.093
 1426SOL    HW2 6112   7.970   6.044   6.175
 1427SOL     OW 6113   2.891   8.707  12.300
 1427SOL    HW1 6114   2.862   8.702  12.391
 1427SOL    HW2 6115   2.888   8.616  12.269
 1428SOL     OW 6116  12.171   3.331   3.337
 1428SOL    HW1 6117  12.180   3.301   3.247
 1428SOL    HW2 6118  12.078   3.319   3.357
 1429SOL     OW 6119   0.729   4.879   4.847
 1429SOL    HW1 6120   0.802   4.936   4.870
 1429SOL    HW2 6121   0.651   4.927   4.874
 1430SOL     OW 6122  10.048   8.801  13.950
 1430SOL    HW1 6123  10.003   8.777  13.869
 1430SOL    HW2 6124   9.977   8.810  14.015
 1431SOL     OW 6125   8.588  12.019  14.202
 1431SOL    HW1 6126   8.552  11.947  14.151
 1431SOL    HW2 6127   8.542  12.015  14.286
 1432SOL     OW 6128   9.016   8.704  13.338
 1432SOL    HW1 6129   8.953   8.762  13.295
 1432SOL    HW2 6130   8.965   8.627  13.363
 1433SOL     OW 6131   7.879   6.053  13.201
 1433SOL    HW1 6132   7.822   5.977  13.191
 1433SOL    HW2 6133   7.849   6.095  13.282
 1434SOL     OW 6134   9.893   2.311  12.003
 1434SOL    HW1 6135   9.937   2.252  11.941
 1434SOL    HW2 6136   9.807   2.271  12.016
 1435SOL     OW 6137   4.247   4.438   3.585
 1435SOL    HW1 6138   4.331   4.396   3.600
 1435SOL    HW2 6139   4.258   4.485   3.502
 1436SOL     OW 6140  10.361   2.610   5.201
 1436SOL    HW1 6141  10.404   2.526   5.216
 1436SOL    HW2 6142  10.286   2.610   5.261
 1437SOL     OW 6143  14.221   5.419   8.670
 1437SOL    HW1 6144  14.186   5.388   8.586
 1437SOL    HW2 6145  14.302   5.369   8.682
 1438SOL     OW 6146   6.326   3.382   7.203
 1438SOL    HW1 6147   6.252   3.443   7.205
 1438SOL    HW2 6148   6.403   3.438   7.196
 1439SOL     OW 6149   6.928   9.996   9.207
 1439SOL    HW1 6150   7.013  10.037   9.188
 1439SOL    HW2 6151   6.929   9.915   9.156
 1440SOL     OW 6152   3.220   8.841  11.397
 1440SOL    HW1 6153   3.138   8.829  11.349
 1440SOL    HW2 6154   3.201   8.813  11.486
 1441SOL     OW 6155   2.782  14.705   5.895
 1441SOL    HW1 6156   2.749  14.668   5.977
 1441SOL    HW2 6157   2.708  14.701   5.835
 1442SOL     OW 6158   4.439   9.523   0.007
 1442SOL    HW1 6159   4.409   9.479  14.806
 1442SOL    HW2 6160   4.474   9.607  14.856
 1443SOL     OW 6161   8.087   4.570   3.154
 1443SOL    HW1 6162   8.106   4.555   3.062
 1443SOL    HW2 6163   8.062   4.662   3.159
 1444SOL     OW 6164   9.980  13.966   1.560
 1444SOL    HW1 6165   9.904  13.970   1.503
 1444SOL    HW2 6166   9.950  13.999   1.644
 1445SOL     OW 6167  10.346   8.833  13.476
 1445SOL    HW1 6168  10.334   8.857  13.384
 1445SOL    HW2 6169  10.260   8.848  13.515
 1446SOL     OW 6170  12.549   5.560   5.649
 1446SOL    HW1 6171  12.585   5.555   5.560
 1446SOL    HW2 6172  12.583   5.643   5.683
 1447SOL     OW 6173  12.755  11.007   0.221
 1447SOL    HW1 6174  12.662  11.002   0.245
 1447SOL    HW2 6175  12.787  10.917   0.231
 1448SOL     OW 6176   4.059  10.252  11.890
 1448SOL    HW1 6177   4.021  10.215  11.811
 1448SOL    HW2 6178   4.049  10.183  11.956
 1449SOL     OW 6179   8.802  11.900  13.041
 1449SOL    HW1 6180   8.752  11.942  12.971
 1449SOL    HW2 6181   8.776  11.808  13.037
 1450SOL     OW 6182   9.586   4.697   3.549
 1450SOL    HW1 6183   9.633   4.624   3.590
 1450SOL    HW2 6184   9.606   4.689   3.455
 1451SOL     OW 6185   6.889  11.532   5.334
 1451SOL    HW1 6186   6.882  11.595   5.262
 1451SOL    HW2 6187   6.798  11.507   5.352
 1452SOL     OW 6188  11.327  10.058  12.924
 1452SOL    HW1 6189  11.345  10.152  12.918
 1452SOL    HW2 6190  11.412  10.019  12.946
 1453SOL     OW 6191   2.740  14.539   2.516
 1453SOL    HW1 6192   2.656  14.580   2.534
 1453SOL    HW2 6193   2.734  14.452   2.556
 1454SOL     OW 6194   1.199   6.138  14.496
 1454SOL    HW1 6195   1.171   6.047  14.502
 1454SOL    HW2 6196   1.269   6.146  14.561
 1455SOL     OW 6197  14.390   8.881   6.119
 1455SOL    HW1 6198  14.464   8.898   6.178
 1455SOL    HW2 6199  14.314   8.873   6.178
 1456SOL     OW 6200  10.358   6.116  10.636
 1456SOL    HW1 6201  10.362   6.051  10.706
 1456SOL    HW2 6202  10.265   6.126  10.618
 1457SOL     OW 6203   1.482   2.472  14.545
 1457SOL    HW1 6204   1.475   2.532  14.620
 1457SOL    HW2 6205   1.574   2.481  14.517
 1458SOL     OW 6206  13.980  13.178   4.814
 1458SOL    HW1 6207  14.019  13.214   4.735
 1458SOL    HW2 6208  14.054  13.162   4.872
 1459SOL     OW 6209   2.587   9.512  10.764
 1459SOL    HW1 6210   2.681   9.497  10.777
 1459SOL    HW2 6211   2.581   9.600  10.728
 1460SOL     OW 6212   8.648   1.346   2.930
 1460SOL    HW1 6213   8.634   1.254   2.953
 1460SOL    HW2 6214   8.714   1.343   2.861
 1461SOL     OW 6215   8.956   0.032   0.681
 1461SOL    HW1 6216   8.904   0.071   0.611
 1461SOL    HW2 6217   8.932   0.080   0.759
 1462SOL     OW 6218   2.206  11.705   6.948
 1462SOL    HW1 6219   2.116  11.681   6.971
 1462SOL    HW2 6220   2.221  11.662   6.863
 1463SOL     OW 6221   5.295   2.027   7.093
 1463SOL    HW1 6222   5.312   2.121   7.102
 1463SOL    HW2 6223   5.354   1.986   7.156
 1464SOL     OW 6224   6.755  14.161   7.869
 1464SOL    HW1 6225   6.825  14.100   7.844
 1464SOL    HW2 6226   6.674  14.118   7.841
 1465SOL     OW 6227   8.121  11.806   6.628
 1465SOL    HW1 6228   8.140  11.816   6.535
 1465SOL    HW2 6229   8.157  11.721   6.651
 1466SOL     OW 6230   0.723  13.159   1.690
 1466SOL    HW1 6231   0.635  13.126   1.671
 1466SOL    HW2 6232   0.776  13.131   1.616
 1467SOL     OW 6233   0.897   2.237   2.854
 1467SOL    HW1 6234   0.895   2.206   2.763
 1467SOL    HW2 6235   0.814   2.208   2.891
 1468SOL     OW 6236   4.805   0.075  14.573
 1468SOL    HW1 6237   4.787  14.862  14.594
 1468SOL    HW2 6238   4.890   0.092  14.614
 1469SOL     OW 6239  14.592   4.701  12.928
 1469SOL    HW1 6240  14.596   4.788  12.969
 1469SOL    HW2 6241  14.653   4.707  12.855
 1470SOL     OW 6242   3.978   5.475  11.585
 1470SOL    HW1 6243   4.001   5.480  11.492
 1470SOL    HW2 6244   3.920   5.399  11.591
 1471SOL     OW 6245  12.723   2.948   1.755
 1471SOL    HW1 6246  12.752   3.012   1.691
 1471SOL    HW2 6247  12.757   2.864   1.723
 1472SOL     OW 6248  12.212   1.891   2.539
 1472SOL    HW1 6249  12.131   1.889   2.489
 1472SOL    HW2 6250  12.190   1.937   2.620
 1473SOL     OW 6251   2.176  14.444  14.299
 1473SOL    HW1 6252   2.138  14.531  14.298
 1473SOL    HW2 6253   2.244  14.447  14.232
 1474SOL     OW 6254  10.437   8.780   6.502
 1474SOL    HW1 6255  10.513   8.757   6.447
 1474SOL    HW2 6256  10.476   8.817   6.581
 1475SOL     OW 6257  13.738  11.556  14.871
 1475SOL    HW1 6258  13.765  11.465  14.859
 1475SOL    HW2 6259  13.813  11.599   0.033
 1476SOL     OW 6260   2.255   7.184   7.499
 1476SOL    HW1 6261   2.218   7.108   7.545
 1476SOL    HW2 6262   2.317   7.221   7.562
 1477SOL     OW 6263  14.118   6.313   0.476
 1477SOL    HW1 6264  14.200   6.332   0.431
 1477SOL    HW2 6265  14.069   6.395   0.474
 1478SOL     OW 6266   2.476  13.838   3.027
 1478SOL    HW1 6267   2.403  13.827   2.967
 1478SOL    HW2 6268   2.554  13.833   2.971
 1479SOL     OW 6269   2.635   4.701   1.251
 1479SOL    HW1 6270   2.678   4.620   1.276
 1479SOL    HW2 6271   2.563   4.710   1.313
 1480SOL     OW 6272   6.032   6.941   5.314
 1480SOL    HW1 6273   6.041   6.846   5.327
 1480SOL    HW2 6274   6.003   6.950   5.223
 1481SOL     OW 6275   4.875  10.731   9.057
 1481SOL    HW1 6276   4.921  10.692   8.982
 1481SOL    HW2 6277   4.871  10.660   9.121
 1482SOL     OW 6278  10.523  12.722  10.793
 1482SOL    HW1 6279  10.443  12.670  10.805
 1482SOL    HW2 6280  10.492  12.812  10.783
 1483SOL     OW 6281   5.600   7.128  12.939
 1483SOL    HW1 6282   5.663   7.198  12.958
 1483SOL    HW2 6283   5.520   7.156  12.982
 1484SOL     OW 6284   7.744  14.050  12.633
 1484SOL    HW1 6285   7.793  14.127  12.604
 1484SOL    HW2 6286   7.659  14.084  12.660
 1485SOL     OW 6287   8.164   5.154   9.957
 1485SOL    HW1 6288   8.097   5.107  10.007
 1485SOL    HW2 6289   8.247   5.130  10.000
 1486SOL     OW 6290   6.066   7.913   5.079
 1486SOL    HW1 6291   6.104   7.999   5.099
 1486SOL    HW2 6292   6.141   7.859   5.055
 1487SOL     OW 6293   8.610   7.696   8.231
 1487SOL    HW1 6294   8.598   7.615   8.281
 1487SOL    HW2 6295   8.607   7.765   8.297
 1488SOL     OW 6296  12.387   2.600   8.673
 1488SOL    HW1 6297  12.361   2.688   8.699
 1488SOL    HW2 6298  12.306   2.560   8.640
 1489SOL     OW 6299  10.421   6.224   0.260
 1489SOL    HW1 6300  10.463   6.310   0.261
 1489SOL    HW2 6301  10.489   6.165   0.227
 1490SOL     OW 6302  10.310  10.889   3.706
 1490SOL    HW1 6303  10.256  10.891   3.627
 1490SOL    HW2 6304  10.248  10.871   3.777
 1491SOL     OW 6305   8.046  12.956  11.307
 1491SOL    HW1 6306   7.999  13.019  11.254
 1491SOL    HW2 6307   8.073  12.888  11.246
 1492SOL     OW 6308  13.882   0.545   3.502
 1492SOL    HW1 6309  13.910   0.543   3.594
 1492SOL    HW2 6310  13.957   0.582   3.455
 1493SOL     OW 6311   6.862  14.266   4.786
 1493SOL    HW1 6312   6.810  14.294   4.862
 1493SOL    HW2 6313   6.853  14.339   4.724
 1494SOL     OW 6314   2.630   8.264  11.343
 1494SOL    HW1 6315   2.587   8.310  11.271
 1494SOL    HW2 6316   2.724   8.277  11.327
 1495SOL     OW 6317   3.564   0.572   4.636
 1495SOL    HW1 6318   3.626   0.518   4.586
 1495SOL    HW2 6319   3.484   0.571   4.584
 1496SOL     OW 6320   7.263   6.037   1.435
 1496SOL    HW1 6321   7.326   6.063   1.368
 1496SOL    HW2 6322   7.180   6.028   1.387
 1497SOL     OW 6323   2.727   5.659   3.684
 1497SOL    HW1 6324   2.757   5.616   3.604
 1497SOL    HW2 6325   2.807   5.686   3.729
 1498SOL     OW 6326  14.248   5.077   9.170
 1498SOL    HW1 6327  14.231   5.161   9.213
 1498SOL    HW2 6328  14.230   5.011   9.236
 1499SOL     OW 6329   2.459   0.030   0.168
 1499SOL    HW1 6330   2.517   0.098   0.202
 1499SOL    HW2 6331   2.504  14.827   0.189
 1500SOL     OW 6332   3.363  11.730   9.671
 1500SOL    HW1 6333   3.446  11.765   9.638
 1500SOL    HW2 6334   3.296  11.778   9.622
 1501SOL     OW 6335   0.794  13.605  13.213
 1501SOL    HW1 6336   0.733  13.679  13.212
 1501SOL    HW2 6337   0.738  13.527  13.207
 1502SOL     OW 6338   1.281   4.243   8.501
 1502SOL    HW1 6339   1.293   4.307   8.571
 1502SOL    HW2 6340   1.270   4.296   8.422
 1503SOL     OW 6341   0.299   8.535   5.188
 1503SOL    HW1 6342   0.237   8.473   5.150
 1503SOL    HW2 6343   0.245   8.605   5.225
 1504SOL     OW 6344   6.605   0.348  13.660
 1504SOL    HW1 6345   6.657   0.392  13.593
 1504SOL    HW2 6346   6.662   0.279  13.694
 1505SOL     OW 6347  14.138   3.772  13.887
 1505SOL    HW1 6348  14.101   3.739  13.806
 1505SOL    HW2 6349  14.086   3.850  13.908
 1506SOL     OW 6350  13.858  11.304  14.878
 1506SOL    HW1 6351  13.938  11.279   0.046
 1506SOL    HW2 6352  13.793  11.239   0.025
 1507SOL     OW 6353   9.879   3.433   3.494
 1507SOL    HW1 6354   9.936   3.510   3.497
 1507SOL    HW2 6355   9.831   3.435   3.577
 1508SOL     OW 6356   2.051   9.895   2.561
 1508SOL    HW1 6357   2.067   9.987   2.542
 1508SOL    HW2 6358   1.968   9.875   2.519
 1509SOL     OW 6359   6.521  12.498   3.401
 1509SOL    HW1 6360   6.451  12.509   3.465
 1509SOL    HW2 6361   6.478  12.508   3.316
 1510SOL     OW 6362  13.755  11.343   9.237
 1510SOL    HW1 6363  13.841  11.382   9.222
 1510SOL    HW2 6364  13.748  11.274   9.171
 1511SOL     OW 6365   2.212   3.719  13.278
 1511SOL    HW1 6366   2.173   3.696  13.194
 1511SOL    HW2 6367   2.305   3.728  13.260
 1512SOL     OW 6368   5.512   6.027   9.383
 1512SOL    HW1 6369   5.494   6.017   9.289
 1512SOL    HW2 6370   5.507   5.938   9.417
 1513SOL     OW 6371  13.569  11.996   3.818
 1513SOL    HW1 6372  13.496  11.961   3.766
 1513SOL    HW2 6373  13.648  11.971   3.770
 1514SOL     OW 6374   1.341  11.768  11.143
 1514SOL    HW1 6375   1.344  11.684  11.097
 1514SOL    HW2 6376   1.351  11.745  11.236
 1515SOL     OW 6377  11.211   6.827   6.814
 1515SOL    HW1 6378  11.158   6.847   6.891
 1515SOL    HW2 6379  11.170   6.878   6.744
 1516SOL     OW 6380   1.957   6.340   7.690
 1516SOL    HW1 6381   2.052   6.344   7.703
 1516SOL    HW2 6382   1.937   6.246   7.690
 1517SOL     OW 6383   7.360   0.989   4.586
 1517SOL    HW1 6384   7.301   0.965   4.657
 1517SOL    HW2 6385   7.319   0.954   4.507
 1518SOL     OW 6386   2.192   6.058   8.298
 1518SOL    HW1 6387   2.185   5.991   8.231
 1518SOL    HW2 6388   2.284   6.055   8.326
 1519SOL     OW 6389   9.603  14.359   7.786
 1519SOL    HW1 6390   9.608  14.419   7.711
 1519SOL    HW2 6391   9.689  14.366   7.827
 1520SOL     OW 6392   6.994   2.831   9.497
 1520SOL    HW1 6393   6.900   2.826   9.480
 1520SOL    HW2 6394   7.031   2.756   9.452
 1521SOL     OW 6395   2.920   2.050   5.491
 1521SOL    HW1 6396   2.946   2.022   5.578
 1521SOL    HW2 6397   2.895   2.142   5.501
 1522SOL     OW 6398  10.607   2.507   4.996
 1522SOL    HW1 6399  10.632   2.447   4.925
 1522SOL    HW2 6400  10.570   2.450   5.063
 1523SOL     OW 6401   0.208  14.052  13.539
 1523SOL    HW1 6402   0.144  14.105  13.586
 1523SOL    HW2 6403   0.159  13.977  13.507
 1524SOL     OW 6404   9.145  13.366   0.072
 1524SOL    HW1 6405   9.138  13.309   0.148
 1524SOL    HW2 6406   9.063  13.352   0.024
 1525SOL     OW 6407   4.597   4.575   5.534
 1525SOL    HW1 6408   4.562   4.487   5.519
 1525SOL    HW2 6409   4.534   4.616   5.593
 1526SOL     OW 6410   9.182   5.176  12.707
 1526SOL    HW1 6411   9.179   5.131  12.791
 1526SOL    HW2 6412   9.091   5.183  12.680
 1527SOL     OW 6413  10.535   8.798   2.570
 1527SOL    HW1 6414  10.527   8.709   2.538
 1527SOL    HW2 6415  10.612   8.796   2.628
 1528SOL     OW 6416   5.480   2.629   7.251
 1528SOL    HW1 6417   5.494   2.689   7.178
 1528SOL    HW2 6418   5.532   2.665   7.323
 1529SOL     OW 6419   9.755   9.133  11.943
 1529SOL    HW1 6420   9.754   9.208  12.003
 1529SOL    HW2 6421   9.786   9.169  11.860
 1530SOL     OW 6422   9.613   0.100  14.603
 1530SOL    HW1 6423   9.523   0.086  14.574
 1530SOL    HW2 6424   9.608   0.099  14.699
 1531SOL     OW 6425   7.132   5.875   9.819
 1531SOL    HW1 6426   7.110   5.849   9.729
 1531SOL    HW2 6427   7.224   5.849   9.830
 1532SOL     OW 6428   8.551  12.615   3.058
 1532SOL    HW1 6429   8.470  12.617   3.110
 1532SOL    HW2 6430   8.532  12.555   2.986
 1533SOL     OW 6431  10.741   5.851   9.602
 1533SOL    HW1 6432  10.785   5.766   9.608
 1533SOL    HW2 6433  10.800   5.912   9.646
 1534SOL     OW 6434   5.309  10.298  10.567
 1534SOL    HW1 6435   5.271  10.274  10.652
 1534SOL    HW2 6436   5.273  10.385  10.549
 1535SOL     OW 6437  11.959   2.673   1.379
 1535SOL    HW1 6438  11.867   2.700   1.377
 1535SOL    HW2 6439  11.994   2.715   1.458
 1536SOL     OW 6440   3.492   2.254   9.014
 1536SOL    HW1 6441   3.524   2.325   9.070
 1536SOL    HW2 6442   3.405   2.283   8.986
 1537SOL     OW 6443   6.966   5.632   6.231
 1537SOL    HW1 6444   6.922   5.715   6.252
 1537SOL    HW2 6445   6.987   5.594   6.316
 1538SOL     OW 6446   5.266  13.699  12.842
 1538SOL    HW1 6447   5.268  13.626  12.904
 1538SOL    HW2 6448   5.228  13.772  12.892
 1539SOL     OW 6449   1.030   4.463   4.990
 1539SOL    HW1 6450   1.053   4.514   4.912
 1539SOL    HW2 6451   1.061   4.515   5.064
 1540SOL     OW 6452  11.640  11.928   7.826
 1540SOL    HW1 6453  11.633  12.014   7.785
 1540SOL    HW2 6454  11.582  11.872   7.774
 1541SOL     OW 6455  12.217   6.876   6.880
 1541SOL    HW1 6456  12.285   6.870   6.948
 1541SOL    HW2 6457  12.202   6.970   6.870
 1542SOL     OW 6458   8.788   8.146   8.295
 1542SOL    HW1 6459   8.767   8.185   8.380
 1542SOL    HW2 6460   8.721   8.181   8.236
 1543SOL     OW 6461   6.119  14.713   7.814
 1543SOL    HW1 6462   6.105  14.808   7.807
 1543SOL    HW2 6463   6.064  14.675   7.745
 1544SOL     OW 6464   8.445   1.300   1.157
 1544SOL    HW1 6465   8.531   1.312   1.117
 1544SOL    HW2 6466   8.455   1.333   1.246
 1545SOL     OW 6467  14.563   5.856  10.740
 1545SOL    HW1 6468  14.559   5.934  10.684
 1545SOL    HW2 6469  14.477   5.817  10.733
 1546SOL     OW 6470   1.717   6.880   9.447
 1546SOL    HW1 6471   1.706   6.848   9.358
 1546SOL    HW2 6472   1.702   6.803   9.503
 1547SOL     OW 6473  10.559  11.345  13.124
 1547SOL    HW1 6474  10.646  11.364  13.089
 1547SOL    HW2 6475  10.533  11.425  13.169
 1548SOL     OW 6476   6.525   1.675  10.119
 1548SOL    HW1 6477   6.508   1.751  10.062
 1548SOL    HW2 6478   6.560   1.608  10.060
 1549SOL     OW 6479  10.494  14.000   3.297
 1549SOL    HW1 6480  10.494  13.908   3.323
 1549SOL    HW2 6481  10.526  14.047   3.374
 1550SOL     OW 6482  14.537   6.411   1.518
 1550SOL    HW1 6483  14.501   6.492   1.554
 1550SOL    HW2 6484  14.550   6.429   1.425
 1551SOL     OW 6485   9.409   2.501  14.696
 1551SOL    HW1 6486   9.484   2.442  14.706
 1551SOL    HW2 6487   9.422   2.568  14.763
 1552SOL     OW 6488  14.508   8.492  12.054
 1552SOL    HW1 6489  14.501   8.531  11.967
 1552SOL    HW2 6490  14.435   8.529  12.103
 1553SOL     OW 6491   6.546   0.005  13.395
 1553SOL    HW1 6492   6.582   0.092  13.375
 1553SOL    HW2 6493   6.453   0.020  13.411
 1554SOL     OW 6494   8.356   7.423  10.625
 1554SOL    HW1 6495   8.447   7.420  10.595
 1554SOL    HW2 6496   8.316   7.345  10.588
 1555SOL     OW 6497   9.822  13.149   4.641
 1555SOL    HW1 6498   9.761  13.115   4.707
 1555SOL    HW2 6499   9.779  13.132   4.558
 1556SOL     OW 6500   4.670  11.455   7.204
 1556SOL    HW1 6501   4.614  11.532   7.194
 1556SOL    HW2 6502   4.692  11.430   7.115
 1557SOL     OW 6503   4.262  14.378   4.830
 1557SOL    HW1 6504   4.298  14.347   4.746
 1557SOL    HW2 6505   4.187  14.431   4.805
 1558SOL     OW 6506  14.504   8.549   3.615
 1558SOL    HW1 6507  14.527   8.605   3.689
 1558SOL    HW2 6508  14.537   8.462   3.639
 1559SOL     OW 6509  14.529   7.713   8.073
 1559SOL    HW1 6510  14.462   7.691   8.008
 1559SOL    HW2 6511  14.487   7.698   8.157
 1560SOL     OW 6512  13.581  10.555  13.234
 1560SOL    HW1 6513  13.525  10.570  13.157
 1560SOL    HW2 6514  13.641  10.486  13.208
 1561SOL     OW 6515   7.896   3.837   7.429
 1561SOL    HW1 6516   7.938   3.781   7.365
 1561SOL    HW2 6517   7.848   3.902   7.377
 1562SOL     OW 6518  10.745  12.871   7.722
 1562SOL    HW1 6519  10.754  12.787   7.677
 1562SOL    HW2 6520  10.831  12.912   7.714
 1563SOL     OW 6521   0.642  12.341  12.516
 1563SOL    HW1 6522   0.646  12.354  12.611
 1563SOL    HW2 6523   0.711  12.397  12.481
 1564SOL     OW 6524   8.585   8.204   8.063
 1564SOL    HW1 6525   8.551   8.245   8.142
 1564SOL    HW2 6526   8.513   8.150   8.031
 1565SOL     OW 6527  10.441   0.812   4.077
 1565SOL    HW1 6528  10.505   0.849   4.137
 1565SOL    HW2 6529  10.442   0.871   4.001
 1566SOL     OW 6530   3.936   9.833  12.799
 1566SOL    HW1 6531   3.953   9.740  12.783
 1566SOL    HW2 6532   3.906   9.836  12.890
 1567SOL     OW 6533   0.192   4.973   7.427
 1567SOL    HW1 6534   0.240   4.957   7.346
 1567SOL    HW2 6535   0.257   4.960   7.496
 1568SOL     OW 6536  12.253   0.761   0.153
 1568SOL    HW1 6537  12.198   0.809   0.091
 1568SOL    HW2 6538  12.193   0.700   0.196
 1569SOL     OW 6539   9.861   5.361  10.714
 1569SOL    HW1 6540   9.865   5.422  10.640
 1569SOL    HW2 6541   9.911   5.404  10.783
 1570SOL     OW 6542   1.673  11.878   8.841
 1570SOL    HW1 6543   1.631  11.964   8.844
 1570SOL    HW2 6544   1.601  11.816   8.828
 1571SOL     OW 6545   2.103   7.965   8.697
 1571SOL    HW1 6546   2.011   7.953   8.676
 1571SOL    HW2 6547   2.106   7.963   8.793
 1572SOL     OW 6548   8.993  13.477   2.989
 1572SOL    HW1 6549   9.084  13.468   2.961
 1572SOL    HW2 6550   8.950  13.526   2.919
 1573SOL     OW 6551   0.966   6.622   4.244
 1573SOL    HW1 6552   1.009   6.593   4.164
 1573SOL    HW2 6553   1.033   6.673   4.290
 1574SOL     OW 6554  10.159   4.826  14.719
 1574SOL    HW1 6555  10.140   4.893  14.653
 1574SOL    HW2 6556  10.083   4.767  14.715
 1575SOL     OW 6557   6.459   8.345   3.486
 1575SOL    HW1 6558   6.461   8.269   3.428
 1575SOL    HW2 6559   6.473   8.308   3.574
 1576SOL     OW 6560  10.007   4.434   4.142
 1576SOL    HW1 6561   9.974   4.524   4.135
 1576SOL    HW2 6562  10.026   4.409   4.051
 1577SOL     OW 6563   7.460   5.622  11.016
 1577SOL    HW1 6564   7.527   5.683  10.986
 1577SOL    HW2 6565   7.485   5.601  11.106
 1578SOL     OW 6566   4.771   3.752   7.844
 1578SOL    HW1 6567   4.726   3.770   7.927
 1578SOL    HW2 6568   4.702   3.752   7.778
 1579SOL     OW 6569  12.452   9.148   6.494
 1579SOL    HW1 6570  12.539   9.188   6.489
 1579SOL    HW2 6571  12.468   9.054   6.488
 1580SOL     OW 6572  10.289  12.889   2.435
 1580SOL    HW1 6573  10.288  12.979   2.403
 1580SOL    HW2 6574  10.248  12.894   2.522
 1581SOL     OW 6575   1.010  13.670   8.450
 1581SOL    HW1 6576   0.922  13.639   8.471
 1581SOL    HW2 6577   1.026  13.740   8.513
 1582SOL     OW 6578   4.005  10.210   7.978
 1582SOL    HW1 6579   3.976  10.299   7.997
 1582SOL    HW2 6580   3.974  10.193   7.888
 1583SOL     OW 6581  11.702  13.673   9.182
 1583SOL    HW1 6582  11.609  13.677   9.159
 1583SOL    HW2 6583  11.745  13.726   9.114
 1584SOL     OW 6584   9.748  13.401   8.285
 1584SOL    HW1 6585   9.673  13.459   8.275
 1584SOL    HW2 6586   9.787  13.427   8.369
 1585SOL     OW 6587   1.140   0.592  12.800
 1585SOL    HW1 6588   1.045   0.595  12.808
 1585SOL    HW2 6589   1.169   0.681  12.822
 1586SOL     OW 6590  11.988   5.031  11.850
 1586SOL    HW1 6591  11.960   4.952  11.804
 1586SOL    HW2 6592  12.006   5.095  11.781
 1587SOL     OW 6593   6.322   5.853  13.913
 1587SOL    HW1 6594   6.364   5.876  13.830
 1587SOL    HW2 6595   6.390   5.805  13.961
 1588SOL     OW 6596  14.721   0.985  11.690
 1588SOL    HW1 6597  14.763   0.902  11.668
 1588SOL    HW2 6598  14.696   1.023  11.606
 1589SOL     OW 6599   0.687   2.563   2.507
 1589SOL    HW1 6600   0.626   2.626   2.470
 1589SOL    HW2 6601   0.654   2.547   2.595
 1590SOL     OW 6602  13.926   5.065   3.616
 1590SOL    HW1 6603  13.901   5.155   3.636
 1590SOL    HW2 6604  13.906   5.054   3.523
 1591SOL     OW 6605   9.530  14.622   9.911
 1591SOL    HW1 6606   9.626  14.623   9.905
 1591SOL    HW2 6607   9.500  14.681   9.842
 1592SOL     OW 6608   4.136  12.033   1.536
 1592SOL    HW1 6609   4.144  12.103   1.601
 1592SOL    HW2 6610   4.211  11.976   1.554
 1593SOL     OW 6611   9.638   9.531   6.446
 1593SOL    HW1 6612   9.645   9.495   6.358
 1593SOL    HW2 6613   9.723   9.570   6.463
 1594SOL     OW 6614  13.430  11.355  14.391
 1594SOL    HW1 6615  13.467  11.433  14.351
 1594SOL    HW2 6616  13.395  11.384  14.475
 1595SOL     OW 6617  14.274   8.528  12.161
 1595SOL    HW1 6618  14.186   8.561  12.180
 1595SOL    HW2 6619  14.269   8.498  12.071
 1596SOL     OW 6620  12.251   7.812   0.460
 1596SOL    HW1 6621  12.335   7.850   0.434
 1596SOL    HW2 6622  12.230   7.752   0.389
 1597SOL     OW 6623  11.899   1.989   5.176
 1597SOL    HW1 6624  11.827   1.944   5.132
 1597SOL    HW2 6625  11.969   1.923   5.182
 1598SOL     OW 6626   1.506   7.612   0.186
 1598SOL    HW1 6627   1.428   7.592   0.134
 1598SOL    HW2 6628   1.489   7.572   0.271
 1599SOL     OW 6629   4.346   1.986   4.925
 1599SOL    HW1 6630   4.384   2.050   4.984
 1599SOL    HW2 6631   4.303   2.038   4.857
 1600SOL     OW 6632   8.668   0.622   9.529
 1600SOL    HW1 6633   8.641   0.594   9.442
 1600SOL    HW2 6634   8.758   0.652   9.518
 1601SOL     OW 6635   3.377   0.254   5.073
 1601SOL    HW1 6636   3.320   0.231   4.999
 1601SOL    HW2 6637   3.466   0.253   5.036
 1602SOL     OW 6638   7.883  10.913   1.807
 1602SOL    HW1 6639   7.933  10.958   1.739
 1602SOL    HW2 6640   7.868  10.979   1.874
 1603SOL     OW 6641   7.543   0.300   9.593
 1603SOL    HW1 6642   7.516   0.226   9.538
 1603SOL    HW2 6643   7.630   0.322   9.561
 1604SOL     OW 6644   7.060   9.403   9.638
 1604SOL    HW1 6645   7.021   9.365   9.717
 1604SOL    HW2 6646   6.996   9.387   9.569
 1605SOL     OW 6647   4.049  14.836   9.671
 1605SOL    HW1 6648   4.085   0.045   9.661
 1605SOL    HW2 6649   4.031  14.827   9.764
 1606SOL     OW 6650   0.424  12.448   0.251
 1606SOL    HW1 6651   0.334  12.456   0.220
 1606SOL    HW2 6652   0.416  12.415   0.340
 1607SOL     OW 6653   2.616   3.591  10.263
 1607SOL    HW1 6654   2.522   3.575  10.274
 1607SOL    HW2 6655   2.656   3.505  10.277
 1608SOL     OW 6656   3.721  12.205  12.339
 1608SOL    HW1 6657   3.785  12.196  12.410
 1608SOL    HW2 6658   3.733  12.295  12.308
 1609SOL     OW 6659   6.078  10.315   7.030
 1609SOL    HW1 6660   6.052  10.256   7.101
 1609SOL    HW2 6661   6.123  10.258   6.968
 1610SOL     OW 6662   2.970  13.763   5.459
 1610SOL    HW1 6663   2.902  13.827   5.480
 1610SOL    HW2 6664   2.923  13.691   5.415
 1611SOL     OW 6665  12.589   8.284   8.740
 1611SOL    HW1 6666  12.654   8.352   8.758
 1611SOL    HW2 6667  12.554   8.261   8.826
 1612SOL     OW 6668  12.608  10.212   8.082
 1612SOL    HW1 6669  12.526  10.167   8.061
 1612SOL    HW2 6670  12.616  10.202   8.177
 1613SOL     OW 6671   0.597  13.918   6.189
 1613SOL    HW1 6672   0.660  13.899   6.120
 1613SOL    HW2 6673   0.637  13.989   6.239
 1614SOL     OW 6674   6.563  13.829   7.394
 1614SOL    HW1 6675   6.517  13.883   7.330
 1614SOL    HW2 6676   6.493  13.791   7.447
 1615SOL     OW 6677   5.376   4.450  14.476
 1615SOL    HW1 6678   5.370   4.356  14.459
 1615SOL    HW2 6679   5.458   4.477  14.434
 1616SOL     OW 6680  10.904   1.256   0.659
 1616SOL    HW1 6681  10.953   1.257   0.577
 1616SOL    HW2 6682  10.966   1.286   0.725
 1617SOL     OW 6683   0.724  14.681   3.895
 1617SOL    HW1 6684   0.815  14.650   3.887
 1617SOL    HW2 6685   0.672  14.601   3.899
 1618SOL     OW 6686   2.748  10.854  13.332
 1618SOL    HW1 6687   2.768  10.823  13.244
 1618SOL    HW2 6688   2.831  10.845  13.379
 1619SOL     OW 6689   9.880   7.912   4.090
 1619SOL    HW1 6690   9.792   7.935   4.121
 1619SOL    HW2 6691   9.866   7.835   4.036
 1620SOL     OW 6692  13.616  13.452  13.699
 1620SOL    HW1 6693  13.620  13.426  13.608
 1620SOL    HW2 6694  13.554  13.391  13.740
 1621SOL     OW 6695  14.339  10.539   7.577
 1621SOL    HW1 6696  14.246  10.542   7.553
 1621SOL    HW2 6697  14.359  10.446   7.583
 1622SOL     OW 6698   0.268  12.416  11.919
 1622SOL    HW1 6699   0.262  12.329  11.879
 1622SOL    HW2 6700   0.306  12.400  12.006
 1623SOL     OW 6701   6.725  11.278   7.847
 1623SOL    HW1 6702   6.657  11.343   7.865
 1623SOL    HW2 6703   6.757  11.302   7.760
 1624SOL     OW 6704  14.780   9.994  11.691
 1624SOL    HW1 6705  14.760  10.041  11.771
 1624SOL    HW2 6706  14.814   9.909  11.720
 1625SOL     OW 6707  11.175   5.076   6.955
 1625SOL    HW1 6708  11.090   5.058   6.915
 1625SOL    HW2 6709  11.226   5.116   6.885
 1626SOL     OW 6710   3.290   2.933  12.704
 1626SOL    HW1 6711   3.255   2.897  12.786
 1626SOL    HW2 6712   3.215   2.974  12.662
 1627SOL     OW 6713   7.368   0.053   6.644
 1627SOL    HW1 6714   7.289   0.043   6.697
 1627SOL    HW2 6715   7.419   0.120   6.691
 1628SOL     OW 6716   2.721  11.655   0.279
 1628SOL    HW1 6717   2.762  11.597   0.215
 1628SOL    HW2 6718   2.683  11.596   0.344
 1629SOL     OW 6719   3.840   8.251   5.530
 1629SOL    HW1 6720   3.898   8.177   5.549
 1629SOL    HW2 6721   3.897   8.327   5.531
 1630SOL     OW 6722   7.535   6.315  14.500
 1630SOL    HW1 6723   7.603   6.380  14.483
 1630SOL    HW2 6724   7.571   6.233  14.467
 1631SOL     OW 6725   0.046   0.787   2.365
 1631SOL    HW1 6726  14.872   0.866   2.375
 1631SOL    HW2 6727  14.869   0.717   2.398
 1632SOL     OW 6728   2.387   5.533  11.078
 1632SOL    HW1 6729   2.347   5.620  11.080
 1632SOL    HW2 6730   2.328   5.478  11.129
 1633SOL     OW 6731   0.333   3.537   2.965
 1633SOL    HW1 6732   0.248   3.516   2.927
 1633SOL    HW2 6733   0.374   3.596   2.902
 1634SOL     OW 6734   6.551   3.297   8.840
 1634SOL    HW1 6735   6.636   3.267   8.807
 1634SOL    HW2 6736   6.509   3.336   8.764
 1635SOL     OW 6737   6.213   1.737  12.093
 1635SOL    HW1 6738   6.120   1.730  12.069
 1635SOL    HW2 6739   6.217   1.698  12.181
 1636SOL     OW 6740   7.580   0.473   5.025
 1636SOL    HW1 6741   7.587   0.387   5.067
 1636SOL    HW2 6742   7.486   0.488   5.018
 1637SOL     OW 6743  12.097   2.334   7.259
 1637SOL    HW1 6744  12.175   2.379   7.291
 1637SOL    HW2 6745  12.041   2.325   7.336
 1638SOL     OW 6746   2.414   4.648   3.141
 1638SOL    HW1 6747   2.365   4.729   3.125
 1638SOL    HW2 6748   2.505   4.671   3.123
 1639SOL     OW 6749   1.433   4.034   7.522
 1639SOL    HW1 6750   1.369   3.968   7.497
 1639SOL    HW2 6751   1.436   4.030   7.617
 1640SOL     OW 6752   9.144  11.035   3.982
 1640SOL    HW1 6753   9.124  10.959   4.036
 1640SOL    HW2 6754   9.208  11.084   4.033
 1641SOL     OW 6755   4.864   3.818  14.731
 1641SOL    HW1 6756   4.793   3.805  14.668
 1641SOL    HW2 6757   4.943   3.793  14.684
 1642SOL     OW 6758   0.740   1.146   3.027
 1642SOL    HW1 6759   0.814   1.134   3.086
 1642SOL    HW2 6760   0.692   1.063   3.029
 1643SOL     OW 6761   5.551   3.748   7.950
 1643SOL    HW1 6762   5.639   3.739   7.988
 1643SOL    HW2 6763   5.493   3.754   8.026
 1644SOL     OW 6764  13.485   6.491   4.010
 1644SOL    HW1 6765  13.429   6.544   3.954
 1644SOL    HW2 6766  13.572   6.497   3.971
 1645SOL     OW 6767   5.649  14.341   6.112
 1645SOL    HW1 6768   5.737  14.314   6.085
 1645SOL    HW2 6769   5.665  14.409   6.177
 1646SOL     OW 6770  14.237  12.921   6.875
 1646SOL    HW1 6771  14.249  12.847   6.933
 1646SOL    HW2 6772  14.168  12.894   6.814
 1647SOL     OW 6773  11.875   5.304   5.879
 1647SOL    HW1 6774  11.784   5.333   5.880
 1647SOL    HW2 6775  11.870   5.209   5.891
 1648SOL     OW 6776   2.729   3.738  10.683
 1648SOL    HW1 6777   2.809   3.751  10.734
 1648SOL    HW2 6778   2.675   3.815  10.704
 1649SOL     OW 6779   5.211   1.400   3.547
 1649SOL    HW1 6780   5.220   1.495   3.555
 1649SOL    HW2 6781   5.134   1.379   3.601
 1650SOL     OW 6782   8.697  10.193  11.091
 1650SOL    HW1 6783   8.603  10.206  11.109
 1650SOL    HW2 6784   8.699  10.136  11.015
 1651SOL     OW 6785   4.849   6.603  10.867
 1651SOL    HW1 6786   4.804   6.685  10.846
 1651SOL    HW2 6787   4.942   6.625  10.860
 1652SOL     OW 6788   5.293   2.553  14.283
 1652SOL    HW1 6789   5.245   2.610  14.223
 1652SOL    HW2 6790   5.385   2.575  14.268
 1653SOL     OW 6791   9.582  13.299   8.081
 1653SOL    HW1 6792   9.580  13.216   8.128
 1653SOL    HW2 6793   9.660  13.344   8.114
 1654SOL     OW 6794   2.059   6.163  11.854
 1654SOL    HW1 6795   2.063   6.070  11.830
 1654SOL    HW2 6796   2.099   6.208  11.780
 1655SOL     OW 6797   2.937   9.054  14.800
 1655SOL    HW1 6798   2.994   9.118  14.756
 1655SOL    HW2 6799   2.849   9.079  14.774
 1656SOL     OW 6800   4.883  10.938   8.606
 1656SOL    HW1 6801   4.889  10.938   8.702
 1656SOL    HW2 6802   4.910  10.850   8.580
 1657SOL     OW 6803   6.524   5.826   4.483
 1657SOL    HW1 6804   6.603   5.825   4.537
 1657SOL    HW2 6805   6.541   5.891   4.415
 1658SOL     OW 6806  13.902  11.439   0.845
 1658SOL    HW1 6807  13.879  11.521   0.802
 1658SOL    HW2 6808  13.820  11.390   0.849
 1659SOL     OW 6809   5.773   0.881  13.660
 1659SOL    HW1 6810   5.758   0.886  13.566
 1659SOL    HW2 6811   5.868   0.889  13.669
 1660SOL     OW 6812  10.664  13.442  11.549
 1660SOL    HW1 6813  10.736  13.429  11.611
 1660SOL    HW2 6814  10.585  13.438  11.602
 1661SOL     OW 6815   6.730  10.675   3.699
 1661SOL    HW1 6816   6.665  10.727   3.746
 1661SOL    HW2 6817   6.696  10.670   3.610
 1662SOL     OW 6818   9.465   8.565   7.123
 1662SOL    HW1 6819   9.481   8.650   7.082
 1662SOL    HW2 6820   9.440   8.507   7.051
 1663SOL     OW 6821  14.252   3.196   1.955
 1663SOL    HW1 6822  14.166   3.228   1.927
 1663SOL    HW2 6823  14.301   3.185   1.873
 1664SOL     OW 6824   4.015   8.891   5.058
 1664SOL    HW1 6825   4.069   8.936   4.993
 1664SOL    HW2 6826   3.951   8.842   5.007
 1665SOL     OW 6827  13.395  12.115   7.495
 1665SOL    HW1 6828  13.381  12.187   7.433
 1665SOL    HW2 6829  13.441  12.155   7.569
 1666SOL     OW 6830  14.483   5.230   5.016
 1666SOL    HW1 6831  14.454   5.141   5.035
 1666SOL    HW2 6832  14.462   5.243   4.924
 1667SOL     OW 6833  10.902  13.779   8.060
 1667SOL    HW1 6834  10.853  13.849   8.018
 1667SOL    HW2 6835  10.932  13.816   8.142
 1668SOL     OW 6836  14.261   6.453  12.556
 1668SOL    HW1 6837  14.355   6.471  12.558
 1668SOL    HW2 6838  14.235   6.453  12.648
 1669SOL     OW 6839  14.127  11.589   3.560
 1669SOL    HW1 6840  14.206  11.540   3.534
 1669SOL    HW2 6841  14.055  11.539   3.522
 1670SOL     OW 6842   8.981   0.022   2.037
 1670SOL    HW1 6843   9.064  14.875   2.077
 1670SOL    HW2 6844   8.925   0.044   2.111
 1671SOL     OW 6845   9.847   3.974  13.617
 1671SOL    HW1 6846   9.790   3.994  13.692
 1671SOL    HW2 6847   9.826   4.041  13.552
 1672SOL     OW 6848   7.014   0.497  10.294
 1672SOL    HW1 6849   7.088   0.538  10.249
 1672SOL    HW2 6850   7.044   0.487  10.384
 1673SOL     OW 6851  10.823   8.126  12.779
 1673SOL    HW1 6852  10.890   8.082  12.726
 1673SOL    HW2 6853  10.741   8.106  12.735
 1674SOL     OW 6854   6.219   7.978   0.156
 1674SOL    HW1 6855   6.125   7.982   0.176
 1674SOL    HW2 6856   6.245   7.889   0.179
 1675SOL     OW 6857   5.741  11.521  13.734
 1675SOL    HW1 6858   5.722  11.610  13.763
 1675SOL    HW2 6859   5.815  11.494  13.787
 1676SOL     OW 6860  11.692   4.044  12.015
 1676SOL    HW1 6861  11.620   4.023  11.955
 1676SOL    HW2 6862  11.704   3.963  12.066
 1677SOL     OW 6863  13.002   5.854   1.806
 1677SOL    HW1 6864  13.026   5.830   1.895
 1677SOL    HW2 6865  12.929   5.916   1.816
 1678SOL     OW 6866   5.997   2.474   3.954
 1678SOL    HW1 6867   5.928   2.422   3.913
 1678SOL    HW2 6868   6.072   2.415   3.957
 1679SOL     OW 6869  11.712  13.713   0.393
 1679SOL    HW1 6870  11.741  13.648   0.329
 1679SOL    HW2 6871  11.734  13.797   0.354
 1680SOL     OW 6872   8.287   7.860   8.148
 1680SOL    HW1 6873   8.269   7.952   8.128
 1680SOL    HW2 6874   8.313   7.822   8.064
 1681SOL     OW 6875   5.533  11.794   4.308
 1681SOL    HW1 6876   5.600  11.726   4.295
 1681SOL    HW2 6877   5.452  11.745   4.321
 1682SOL     OW 6878   5.257   0.023   5.536
 1682SOL    HW1 6879   5.175   0.049   5.577
 1682SOL    HW2 6880   5.242   0.034   5.442
 1683SOL     OW 6881  13.865   0.262  10.200
 1683SOL    HW1 6882  13.885   0.185  10.146
 1683SOL    HW2 6883  13.903   0.335  10.151
 1684SOL     OW 6884   8.007   0.381   4.204
 1684SOL    HW1 6885   7.949   0.455   4.183
 1684SOL    HW2 6886   7.953   0.304   4.190
 1685SOL     OW 6887  14.132  12.503   2.836
 1685SOL    HW1 6888  14.072  12.434   2.806
 1685SOL    HW2 6889  14.076  12.564   2.884
 1686SOL     OW 6890   3.185   0.499   9.931
 1686SOL    HW1 6891   3.197   0.580   9.979
 1686SOL    HW2 6892   3.145   0.526   9.848
 1687SOL     OW 6893  14.042   3.246  12.980
 1687SOL    HW1 6894  14.038   3.154  12.954
 1687SOL    HW2 6895  13.952   3.277  12.974
 1688SOL     OW 6896   3.972   5.591   6.319
 1688SOL    HW1 6897   4.044   5.552   6.268
 1688SOL    HW2 6898   3.988   5.685   6.315
 1689SOL     OW 6899   4.388  14.828  12.710
 1689SOL    HW1 6900   4.351   0.023  12.757
 1689SOL    HW2 6901   4.313  14.784  12.670
 1690SOL     OW 6902  14.160   7.311   8.771
 1690SOL    HW1 6903  14.193   7.391   8.731
 1690SOL    HW2 6904  14.081   7.338   8.818
 1691SOL     OW 6905   0.977   4.167  13.665
 1691SOL    HW1 6906   0.995   4.196  13.754
 1691SOL    HW2 6907   0.992   4.245  13.611
 1692SOL     OW 6908   8.960   9.132  14.215
 1692SOL    HW1 6909   8.937   9.189  14.288
 1692SOL    HW2 6910   9.037   9.083  14.246
 1693SOL     OW 6911   8.716   0.298   7.994
 1693SOL    HW1 6912   8.716   0.325   8.086
 1693SOL    HW2 6913   8.807   0.312   7.966
 1694SOL     OW 6914  13.556   8.571   0.235
 1694SOL    HW1 6915  13.555   8.500   0.299
 1694SOL    HW2 6916  13.523   8.531   0.155
 1695SOL     OW 6917   7.646  13.839  14.543
 1695SOL    HW1 6918   7.657  13.768  14.607
 1695SOL    HW2 6919   7.694  13.913  14.581
 1696SOL     OW 6920   2.765  13.355   5.885
 1696SOL    HW1 6921   2.671  13.357   5.902
 1696SOL    HW2 6922   2.786  13.262   5.878
 1697SOL     OW 6923  10.172   1.805  12.825
 1697SOL    HW1 6924  10.159   1.723  12.873
 1697SOL    HW2 6925  10.099   1.808  12.762
 1698SOL     OW 6926   0.043  11.868   5.431
 1698SOL    HW1 6927   0.022  11.959   5.411
 1698SOL    HW2 6928  14.853  11.817   5.389
 1699SOL     OW 6929  13.624  14.299  14.652
 1699SOL    HW1 6930  13.598  14.235  14.585
 1699SOL    HW2 6931  13.647  14.246  14.728
 1700SOL     OW 6932  10.846   6.305   2.338
 1700SOL    HW1 6933  10.811   6.377   2.286
 1700SOL    HW2 6934  10.771   6.250   2.358
 1701SOL     OW 6935   0.521   1.881   9.276
 1701SOL    HW1 6936   0.517   1.855   9.368
 1701SOL    HW2 6937   0.509   1.799   9.228
 1702SOL     OW 6938   2.189   4.817   5.472
 1702SOL    HW1 6939   2.136   4.797   5.394
 1702SOL    HW2 6940   2.255   4.748   5.474
 1703SOL     OW 6941   1.980   2.142   8.819
 1703SOL    HW1 6942   2.002   2.178   8.905
 1703SOL    HW2 6943   2.037   2.066   8.811
 1704SOL     OW 6944  13.796   7.424  10.051
 1704SOL    HW1 6945  13.757   7.511  10.063
 1704SOL    HW2 6946  13.748   7.368  10.111
 1705SOL     OW 6947  10.253   8.627   2.331
 1705SOL    HW1 6948  10.346   8.613   2.346
 1705SOL    HW2 6949  10.216   8.539   2.328
 1706SOL     OW 6950   9.277   0.495   9.329
 1706SOL    HW1 6951   9.364   0.534   9.319
 1706SOL    HW2 6952   9.244   0.486   9.240
 1707SOL     OW 6953   4.993  10.127   3.221
 1707SOL    HW1 6954   5.055  10.120   3.293
 1707SOL    HW2 6955   4.940  10.046   3.227
 1708SOL     OW 6956   9.185   3.135   2.019
 1708SOL    HW1 6957   9.192   3.117   1.925
 1708SOL    HW2 6958   9.097   3.106   2.042
 1709SOL     OW 6959   1.593   0.825   8.769
 1709SOL    HW1 6960   1.651   0.839   8.693
 1709SOL    HW2 6961   1.618   0.894   8.830
 1710SOL     OW 6962   8.407   2.909  10.865
 1710SOL    HW1 6963   8.364   2.841  10.918
 1710SOL    HW2 6964   8.377   2.893  10.776
 1711SOL     OW 6965   4.401   1.727  14.417
 1711SOL    HW1 6966   4.425   1.785  14.345
 1711SOL    HW2 6967   4.329   1.674  14.381
 1712SOL     OW 6968  10.552   1.894   2.689
 1712SOL    HW1 6969  10.502   1.965   2.648
 1712SOL    HW2 6970  10.614   1.866   2.622
 1713SOL     OW 6971   3.063  10.972  14.419
 1713SOL    HW1 6972   3.112  11.001  14.342
 1713SOL    HW2 6973   3.107  11.014  14.493
 1714SOL     OW 6974  14.792  10.211   6.146
 1714SOL    HW1 6975  14.745  10.141   6.190
 1714SOL    HW2 6976  14.728  10.281   6.136
 1715SOL     OW 6977  10.739   2.226   3.493
 1715SOL    HW1 6978  10.797   2.150   3.498
 1715SOL    HW2 6979  10.764   2.270   3.412
 1716SOL     OW 6980  12.187   9.254   9.528
 1716SOL    HW1 6981  12.275   9.221   9.545
 1716SOL    HW2 6982  12.138   9.235   9.609
 1717SOL     OW 6983   6.653   6.842  12.961
 1717SOL    HW1 6984   6.727   6.895  12.932
 1717SOL    HW2 6985   6.578   6.903  12.959
 1718SOL     OW 6986  13.692   8.861   2.076
 1718SOL    HW1 6987  13.741   8.937   2.108
 1718SOL    HW2 6988  13.613   8.859   2.131
 1719SOL     OW 6989  12.836  10.395   9.261
 1719SOL    HW1 6990  12.860  10.309   9.296
 1719SOL    HW2 6991  12.913  10.424   9.214
 1720SOL     OW 6992  13.901   7.048  11.270
 1720SOL    HW1 6993  13.965   7.072  11.202
 1720SOL    HW2 6994  13.852   6.976  11.232
 1721SOL     OW 6995   1.149   1.710  10.631
 1721SOL    HW1 6996   1.199   1.737  10.708
 1721SOL    HW2 6997   1.176   1.620  10.615
 1722SOL     OW 6998  13.010   8.112  10.428
 1722SOL    HW1 6999  13.031   8.044  10.363
 1722SOL    HW2 7000  12.923   8.142  10.404
 1723SOL     OW 7001  14.329   8.872   7.271
 1723SOL    HW1 7002  14.300   8.785   7.300
 1723SOL    HW2 7003  14.415   8.883   7.311
 1724SOL     OW 7004  12.229   7.348  10.059
 1724SOL    HW1 7005  12.138   7.376  10.059
 1724SOL    HW2 7006  12.239   7.302   9.975
 1725SOL     OW 7007   4.344   6.744   6.450
 1725SOL    HW1 7008   4.285   6.712   6.381
 1725SOL    HW2 7009   4.431   6.739   6.411
 1726SOL     OW 7010   8.619   7.209   7.357
 1726SOL    HW1 7011   8.558   7.135   7.359
 1726SOL    HW2 7012   8.663   7.206   7.442
 1727SOL     OW 7013   8.099   1.835   7.836
 1727SOL    HW1 7014   8.079   1.818   7.744
 1727SOL    HW2 7015   8.093   1.749   7.878
 1728SOL     OW 7016   1.532   4.177  13.629
 1728SOL    HW1 7017   1.451   4.128  13.619
 1728SOL    HW2 7018   1.571   4.145  13.710
 1729SOL     OW 7019   5.458  12.864   7.052
 1729SOL    HW1 7020   5.473  12.794   6.988
 1729SOL    HW2 7021   5.365  12.886   7.042
 1730SOL     OW 7022  11.654   6.690  11.676
 1730SOL    HW1 7023  11.634   6.632  11.603
 1730SOL    HW2 7024  11.732   6.652  11.717
 1731SOL     OW 7025   0.541  10.358   8.077
 1731SOL    HW1 7026   0.611  10.350   8.143
 1731SOL    HW2 7027   0.587  10.357   7.993
 1732SOL     OW 7028   8.455  12.239  13.120
 1732SOL    HW1 7029   8.490  12.280  13.200
 1732SOL    HW2 7030   8.364  12.267  13.117
 1733SOL     OW 7031   7.566   4.663   6.038
 1733SOL    HW1 7032   7.659   4.655   6.056
 1733SOL    HW2 7033   7.524   4.603   6.101
 1734SOL     OW 7034   6.702   9.640   8.706
 1734SOL    HW1 7035   6.695   9.589   8.625
 1734SOL    HW2 7036   6.788   9.681   8.701
 1735SOL     OW 7037   8.859  12.706   2.347
 1735SOL    HW1 7038   8.912  12.654   2.287
 1735SOL    HW2 7039   8.917  12.777   2.375
 1736SOL     OW 7040   0.510  12.706   2.347
 1736SOL    HW1 7041   0.443  12.771   2.322
 1736SOL    HW2 7042   0.558  12.689   2.267
 1737SOL     OW 7043   4.833   2.084   7.747
 1737SOL    HW1 7044   4.779   2.073   7.668
 1737SOL    HW2 7045   4.917   2.044   7.725
 1738SOL     OW 7046   3.112   3.815  13.924
 1738SOL    HW1 7047   3.031   3.783  13.964
 1738SOL    HW2 7048   3.174   3.820  13.996
 1739SOL     OW 7049   0.223   6.555  14.347
 1739SOL    HW1 7050   0.163   6.626  14.321
 1739SOL    HW2 7051   0.216   6.551  14.442
 1740SOL     OW 7052   9.304  11.523  12.508
 1740SOL    HW1 7053   9.302  11.489  12.419
 1740SOL    HW2 7054   9.398  11.531  12.528
 1741SOL     OW 7055  11.705   1.528   0.567
 1741SOL    HW1 7056  11.762   1.522   0.490
 1741SOL    HW2 7057  11.624   1.485   0.539
 1742SOL     OW 7058   3.851  12.589  13.289
 1742SOL    HW1 7059   3.756  12.594  13.299
 1742SOL    HW2 7060   3.864  12.550  13.203
 1743SOL     OW 7061   6.293  12.307   7.811
 1743SOL    HW1 7062   6.201  12.295   7.786
 1743SOL    HW2 7063   6.327  12.368   7.746
 1744SOL     OW 7064  11.584   1.866   4.843
 1744SOL    HW1 7065  11.533   1.915   4.908
 1744SOL    HW2 7066  11.667   1.914   4.837
 1745SOL     OW 7067   8.600  14.307   6.633
 1745SOL    HW1 7068   8.669  14.312   6.700
 1745SOL    HW2 7069   8.554  14.226   6.652
 1746SOL     OW 7070   6.018  12.452  13.898
 1746SOL    HW1 7071   6.077  12.525  13.915
 1746SOL    HW2 7072   6.030  12.394  13.973
 1747SOL     OW 7073  12.800  13.798   9.364
 1747SOL    HW1 7074  12.715  13.805   9.322
 1747SOL    HW2 7075  12.791  13.723   9.423
 1748SOL     OW 7076   4.537   8.698  13.779
 1748SOL    HW1 7077   4.501   8.764  13.838
 1748SOL    HW2 7078   4.593   8.643  13.834
 1749SOL     OW 7079   9.979  10.615   7.463
 1749SOL    HW1 7080   9.965  10.536   7.410
 1749SOL    HW2 7081   9.960  10.687   7.402
 1750SOL     OW 7082   1.828   9.441  10.171
 1750SOL    HW1 7083   1.865   9.516  10.124
 1750SOL    HW2 7084   1.875   9.365  10.135
 1751SOL     OW 7085   7.742  11.644   0.272
 1751SOL    HW1 7086   7.727  11.737   0.252
 1751SOL    HW2 7087   7.654  11.606   0.275
 1752SOL     OW 7088   8.427   2.538   5.622
 1752SOL    HW1 7089   8.359   2.538   5.555
 1752SOL    HW2 7090   8.415   2.621   5.668
 1753SOL     OW 7091   6.881   6.683   2.233
 1753SOL    HW1 7092   6.952   6.632   2.273
 1753SOL    HW2 7093   6.901   6.681   2.139
 1754SOL     OW 7094   6.663  11.323   0.462
 1754SOL    HW1 7095   6.721  11.372   0.520
 1754SOL    HW2 7096   6.628  11.252   0.515
 1755SOL     OW 7097   6.371   6.984  14.770
 1755SOL    HW1 7098   6.335   7.073  14.767
 1755SOL    HW2 7099   6.413   6.971  14.685
 1756SOL     OW 7100  10.793   3.003   6.043
 1756SOL    HW1 7101  10.811   2.915   6.011
 1756SOL    HW2 7102  10.710   2.996   6.089
 1757SOL     OW 7103   9.122   9.560   2.015
 1757SOL    HW1 7104   9.149   9.511   2.092
 1757SOL    HW2 7105   9.163   9.646   2.025
 1758SOL     OW 7106  12.580   1.633   3.942
 1758SOL    HW1 7107  12.588   1.716   3.988
 1758SOL    HW2 7108  12.670   1.602   3.932
 1759SOL     OW 7109   2.892   0.314   7.253
 1759SOL    HW1 7110   2.885   0.275   7.166
 1759SOL    HW2 7111   2.906   0.240   7.312
 1760SOL     OW 7112   3.621   8.748   8.524
 1760SOL    HW1 7113   3.565   8.819   8.492
 1760SOL    HW2 7114   3.704   8.761   8.479
 1761SOL     OW 7115  11.579   3.130   3.345
 1761SOL    HW1 7116  11.530   3.211   3.362
 1761SOL    HW2 7117  11.519   3.060   3.368
 1762SOL     OW 7118   7.949   6.686   7.293
 1762SOL    HW1 7119   7.879   6.649   7.239
 1762SOL    HW2 7120   7.979   6.613   7.347
 1763SOL     OW 7121   9.667   0.607   3.357
 1763SOL    HW1 7122   9.576   0.585   3.376
 1763SOL    HW2 7123   9.693   0.543   3.290
 1764SOL     OW 7124  11.030   4.041   3.544
 1764SOL    HW1 7125  11.091   4.106   3.508
 1764SOL    HW2 7126  11.085   3.965   3.563
 1765SOL     OW 7127   8.036   3.945  11.953
 1765SOL    HW1 7128   7.979   3.923  11.880
 1765SOL    HW2 7129   8.081   3.864  11.974
 1766SOL     OW 7130   9.202   5.672   0.890
 1766SOL    HW1 7131   9.176   5.754   0.847
 1766SOL    HW2 7132   9.213   5.610   0.817
 1767SOL     OW 7133  12.828   5.669  12.844
 1767SOL    HW1 7134  12.920   5.695  12.841
 1767SOL    HW2 7135  12.803   5.662  12.752
 1768SOL     OW 7136  11.339   9.502   2.411
 1768SOL    HW1 7137  11.338   9.416   2.371
 1768SOL    HW2 7138  11.430   9.518   2.434
 1769SOL     OW 7139   1.152   7.157   1.916
 1769SOL    HW1 7140   1.102   7.182   1.994
 1769SOL    HW2 7141   1.125   7.067   1.898
 1770SOL     OW 7142   3.121   4.456  14.525
 1770SOL    HW1 7143   3.208   4.417  14.516
 1770SOL    HW2 7144   3.061   4.381  14.527
 1771SOL     OW 7145   1.334   7.946  11.797
 1771SOL    HW1 7146   1.303   7.859  11.773
 1771SOL    HW2 7147   1.307   8.003  11.724
 1772SOL     OW 7148   9.724   4.828   1.840
 1772SOL    HW1 7149   9.744   4.790   1.755
 1772SOL    HW2 7150   9.780   4.781   1.901
 1773SOL     OW 7151  14.296  11.422  14.807
 1773SOL    HW1 7152  14.370  11.362  14.817
 1773SOL    HW2 7153  14.237  11.377  14.746
 1774SOL     OW 7154   9.280   3.578   9.075
 1774SOL    HW1 7155   9.372   3.565   9.099
 1774SOL    HW2 7156   9.244   3.631   9.147
 1775SOL     OW 7157  11.755   6.540  11.117
 1775SOL    HW1 7158  11.794   6.627  11.109
 1775SOL    HW2 7159  11.763   6.519  11.210
 1776SOL     OW 7160  11.476   4.921   6.811
 1776SOL    HW1 7161  11.447   5.006   6.846
 1776SOL    HW2 7162  11.471   4.931   6.716
 1777SOL     OW 7163  14.647   8.473   3.062
 1777SOL    HW1 7164  14.654   8.542   3.128
 1777SOL    HW2 7165  14.726   8.420   3.075
 1778SOL     OW 7166  10.592  13.179   4.670
 1778SOL    HW1 7167  10.513  13.127   4.656
 1778SOL    HW2 7168  10.590  13.202   4.763
 1779SOL     OW 7169  13.416   5.007   3.924
 1779SOL    HW1 7170  13.494   4.967   3.885
 1779SOL    HW2 7171  13.376   4.937   3.975
 1780SOL     OW 7172   4.260   8.371   9.155
 1780SOL    HW1 7173   4.302   8.349   9.238
 1780SOL    HW2 7174   4.206   8.295   9.135
 1781SOL     OW 7175   2.962  10.592   4.927
 1781SOL    HW1 7176   3.001  10.558   5.008
 1781SOL    HW2 7177   2.936  10.682   4.949
 1782SOL     OW 7178   9.221  14.096   8.755
 1782SOL    HW1 7179   9.212  14.079   8.849
 1782SOL    HW2 7180   9.313  14.119   8.744
 1783SOL     OW 7181   2.785   2.024   1.505
 1783SOL    HW1 7182   2.838   2.064   1.574
 1783SOL    HW2 7183   2.784   2.090   1.435
 1784SOL     OW 7184  11.896  10.824   2.503
 1784SOL    HW1 7185  11.919  10.862   2.419
 1784SOL    HW2 7186  11.801  10.812   2.499
 1785SOL     OW 7187   0.019   5.063  13.716
 1785SOL    HW1 7188  14.864   5.149  13.690
 1785SOL    HW2 7189  14.869   5.052  13.806
 1786SOL     OW 7190  11.904  14.053   6.705
 1786SOL    HW1 7191  11.890  14.109   6.629
 1786SOL    HW2 7192  11.982  14.089   6.747
 1787SOL     OW 7193   4.268   3.239   3.332
 1787SOL    HW1 7194   4.328   3.178   3.288
 1787SOL    HW2 7195   4.216   3.277   3.260
 1788SOL     OW 7196  10.034   7.173   3.412
 1788SOL    HW1 7197  10.041   7.241   3.345
 1788SOL    HW2 7198  10.074   7.212   3.490
 1789SOL     OW 7199   8.999   5.450  12.639
 1789SOL    HW1 7200   9.009   5.391  12.714
 1789SOL    HW2 7201   8.930   5.510  12.664
 1790SOL     OW 7202  10.832  12.647  14.213
 1790SOL    HW1 7203  10.894  12.577  14.234
 1790SOL    HW2 7204  10.887  12.718  14.180
 1791SOL     OW 7205   0.421   3.773   5.453
 1791SOL    HW1 7206   0.513   3.794   5.470
 1791SOL    HW2 7207   0.424   3.713   5.378
 1792SOL     OW 7208  12.263   4.630  10.694
 1792SOL    HW1 7209  12.282   4.571  10.766
 1792SOL    HW2 7210  12.179   4.599  10.659
 1793SOL     OW 7211   6.001   1.063   5.479
 1793SOL    HW1 7212   6.087   1.059   5.438
 1793SOL    HW2 7213   5.998   1.150   5.519
 1794SOL     OW 7214  12.668   5.228   0.303
 1794SOL    HW1 7215  12.615   5.153   0.278
 1794SOL    HW2 7216  12.751   5.216   0.256
 1795SOL     OW 7217   1.016  13.308   8.771
 1795SOL    HW1 7218   0.964  13.305   8.690
 1795SOL    HW2 7219   1.093  13.360   8.748
 1796SOL     OW 7220  12.490   5.450   7.495
 1796SOL    HW1 7221  12.429   5.376   7.501
 1796SOL    HW2 7222  12.451   5.517   7.551
 1797SOL     OW 7223   9.480   4.662  13.529
 1797SOL    HW1 7224   9.485   4.580  13.481
 1797SOL    HW2 7225   9.399   4.656  13.580
 1798SOL     OW 7226  12.376   5.150  12.730
 1798SOL    HW1 7227  12.418   5.234  12.749
 1798SOL    HW2 7228  12.337   5.161  12.643
 1799SOL     OW 7229   3.538   3.510   6.360
 1799SOL    HW1 7230   3.529   3.420   6.392
 1799SOL    HW2 7231   3.509   3.506   6.268
 1800SOL     OW 7232   1.739  13.634   6.608
 1800SOL    HW1 7233   1.779  13.679   6.683
 1800SOL    HW2 7234   1.695  13.704   6.560
 1801SOL     OW 7235   3.704   9.718  14.627
 1801SOL    HW1 7236   3.639   9.652  14.651
 1801SOL    HW2 7237   3.655   9.782  14.575
 1802SOL     OW 7238   3.415   5.529   3.480
 1802SOL    HW1 7239   3.477   5.542   3.409
 1802SOL    HW2 7240   3.385   5.617   3.502
 1803SOL     OW 7241  10.027   6.413   2.254
 1803SOL    HW1 7242  10.019   6.479   2.184
 1803SOL    HW2 7243   9.974   6.339   2.223
 1804SOL     OW 7244   9.299   5.153   2.932
 1804SOL    HW1 7245   9.271   5.096   3.004
 1804SOL    HW2 7246   9.346   5.094   2.872
 1805SOL     OW 7247   9.780   5.434   8.700
 1805SOL    HW1 7248   9.852   5.450   8.761
 1805SOL    HW2 7249   9.811   5.363   8.644
 1806SOL     OW 7250   1.909   9.749   1.926
 1806SOL    HW1 7251   1.999   9.758   1.895
 1806SOL    HW2 7252   1.874   9.674   1.879
 1807SOL     OW 7253  12.576   4.939   4.680
 1807SOL    HW1 7254  12.589   4.964   4.771
 1807SOL    HW2 7255  12.505   4.995   4.649
 1808SOL     OW 7256   6.512   0.146  12.886
 1808SOL    HW1 7257   6.494   0.063  12.929
 1808SOL    HW2 7258   6.427   0.174  12.851
 1809SOL     OW 7259  11.242   7.129  11.829
 1809SOL    HW1 7260  11.251   7.038  11.858
 1809SOL    HW2 7261  11.318   7.143  11.773
 1810SOL     OW 7262   5.090  10.390   4.232
 1810SOL    HW1 7263   5.115  10.452   4.300
 1810SOL    HW2 7264   5.133  10.308   4.257
 1811SOL     OW 7265  13.625  10.101   1.265
 1811SOL    HW1 7266  13.643  10.057   1.349
 1811SOL    HW2 7267  13.573  10.178   1.288
 1812SOL     OW 7268   3.701  13.460  10.055
 1812SOL    HW1 7269   3.722  13.486   9.965
 1812SOL    HW2 7270   3.748  13.377  10.067
 1813SOL     OW 7271  13.669   0.587   0.523
 1813SOL    HW1 7272  13.662   0.642   0.601
 1813SOL    HW2 7273  13.759   0.600   0.493
 1814SOL     OW 7274   2.005  12.018   1.805
 1814SOL    HW1 7275   1.915  12.048   1.798
 1814SOL    HW2 7276   2.017  12.000   1.899
 1815SOL     OW 7277   9.156  12.317   5.682
 1815SOL    HW1 7278   9.220  12.288   5.747
 1815SOL    HW2 7279   9.208  12.328   5.601
 1816SOL     OW 7280   7.803   8.814  13.543
 1816SOL    HW1 7281   7.824   8.861  13.624
 1816SOL    HW2 7282   7.709   8.827  13.531
 1817SOL     OW 7283   8.271   9.136   7.334
 1817SOL    HW1 7284   8.205   9.085   7.286
 1817SOL    HW2 7285   8.277   9.093   7.420
 1818SOL     OW 7286   6.252   7.315   9.586
 1818SOL    HW1 7287   6.281   7.406   9.591
 1818SOL    HW2 7288   6.224   7.294   9.675
 1819SOL     OW 7289   8.001   4.578  10.508
 1819SOL    HW1 7290   8.050   4.498  10.488
 1819SOL    HW2 7291   7.923   4.572  10.454
 1820SOL     OW 7292  11.138   7.993   4.448
 1820SOL    HW1 7293  11.206   7.926   4.451
 1820SOL    HW2 7294  11.158   8.045   4.370
 1821SOL     OW 7295   0.601   0.812   1.427
 1821SOL    HW1 7296   0.515   0.796   1.388
 1821SOL    HW2 7297   0.645   0.727   1.421
 1822SOL     OW 7298   4.744   3.043  11.947
 1822SOL    HW1 7299   4.713   3.108  11.884
 1822SOL    HW2 7300   4.837   3.032  11.927
 1823SOL     OW 7301   8.130   8.466   8.587
 1823SOL    HW1 7302   8.101   8.519   8.513
 1823SOL    HW2 7303   8.169   8.530   8.648
 1824SOL     OW 7304  11.973   2.377   7.780
 1824SOL    HW1 7305  11.963   2.470   7.761
 1824SOL    HW2 7306  12.036   2.373   7.852
 1825SOL     OW 7307   5.831   4.085   3.602
 1825SOL    HW1 7308   5.746   4.121   3.624
 1825SOL    HW2 7309   5.883   4.093   3.682
 1826SOL     OW 7310   9.387   3.583   6.310
 1826SOL    HW1 7311   9.304   3.628   6.324
 1826SOL    HW2 7312   9.439   3.606   6.387
 1827SOL     OW 7313   4.827   8.858   9.110
 1827SOL    HW1 7314   4.836   8.920   9.038
 1827SOL    HW2 7315   4.742   8.817   9.095
 1828SOL     OW 7316  12.476   6.725   8.250
 1828SOL    HW1 7317  12.549   6.685   8.203
 1828SOL    HW2 7318  12.463   6.670   8.327
 1829SOL     OW 7319   6.187  12.392   3.815
 1829SOL    HW1 7320   6.094  12.373   3.826
 1829SOL    HW2 7321   6.202  12.470   3.868
 1830SOL     OW 7322   0.166   6.344   1.775
 1830SOL    HW1 7323   0.223   6.302   1.840
 1830SOL    HW2 7324   0.191   6.305   1.692
 1831SOL     OW 7325  10.127  14.772  14.869
 1831SOL    HW1 7326  10.202  14.745  14.816
 1831SOL    HW2 7327  10.129  14.867  14.866
 1832SOL     OW 7328   3.637  14.027  10.580
 1832SOL    HW1 7329   3.549  14.063  10.594
 1832SOL    HW2 7330   3.637  13.999  10.488
 1833SOL     OW 7331  13.716   3.025  13.012
 1833SOL    HW1 7332  13.700   3.114  13.046
 1833SOL    HW2 7333  13.742   2.975  13.089
 1834SOL     OW 7334  10.844  13.292   3.502
 1834SOL    HW1 7335  10.801  13.338   3.430
 1834SOL    HW2 7336  10.934  13.280   3.473
 1835SOL     OW 7337  11.877  10.483   7.946
 1835SOL    HW1 7338  11.819  10.465   7.871
 1835SOL    HW2 7339  11.951  10.423   7.934
 1836SOL     OW 7340   7.164  13.446   5.862
 1836SOL    HW1 7341   7.195  13.380   5.801
 1836SOL    HW2 7342   7.214  13.525   5.840
 1837SOL     OW 7343  10.788   3.544   6.573
 1837SOL    HW1 7344  10.858   3.586   6.523
 1837SOL    HW2 7345  10.830   3.519   6.655
 1838SOL     OW 7346  10.940  10.192   7.345
 1838SOL    HW1 7347  10.975  10.104   7.357
 1838SOL    HW2 7348  10.970  10.241   7.421
 1839SOL     OW 7349   7.846   0.312  11.934
 1839SOL    HW1 7350   7.780   0.284  11.871
 1839SOL    HW2 7351   7.821   0.269  12.016
 1840SOL     OW 7352   1.607   0.129   5.193
 1840SOL    HW1 7353   1.654   0.050   5.166
 1840SOL    HW2 7354   1.645   0.153   5.277
 1841SOL     OW 7355   3.292   7.423  13.287
 1841SOL    HW1 7356   3.310   7.465  13.371
 1841SOL    HW2 7357   3.203   7.390  13.295
 1842SOL     OW 7358   6.017   6.670   3.806
 1842SOL    HW1 7359   5.981   6.584   3.786
 1842SOL    HW2 7360   6.045   6.705   3.722
 1843SOL     OW 7361  13.771  10.713  11.053
 1843SOL    HW1 7362  13.827  10.781  11.016
 1843SOL    HW2 7363  13.684  10.729  11.014
 1844SOL     OW 7364   1.513   4.522   5.417
 1844SOL    HW1 7365   1.550   4.458   5.357
 1844SOL    HW2 7366   1.472   4.469   5.486
 1845SOL     OW 7367   2.645   5.625  14.754
 1845SOL    HW1 7368   2.601   5.705  14.782
 1845SOL    HW2 7369   2.693   5.650  14.675
 1846SOL     OW 7370   8.738   2.887   1.480
 1846SOL    HW1 7371   8.802   2.854   1.417
 1846SOL    HW2 7372   8.667   2.823   1.478
 1847SOL     OW 7373  12.254   5.267  10.987
 1847SOL    HW1 7374  12.349   5.263  11.000
 1847SOL    HW2 7375  12.219   5.296  11.072
 1848SOL     OW 7376   6.852  11.148  11.798
 1848SOL    HW1 7377   6.864  11.236  11.833
 1848SOL    HW2 7378   6.760  11.127  11.818
 1849SOL     OW 7379   9.688   4.917   9.925
 1849SOL    HW1 7380   9.767   4.864   9.911
 1849SOL    HW2 7381   9.720   5.006   9.933
 1850SOL     OW 7382   9.038   0.522  11.670
 1850SOL    HW1 7383   9.115   0.537  11.614
 1850SOL    HW2 7384   8.969   0.495  11.610
 1851SOL     OW 7385  13.013   8.053   2.898
 1851SOL    HW1 7386  12.928   8.009   2.901
 1851SOL    HW2 7387  13.076   7.981   2.891
 1852SOL     OW 7388   3.006   2.962   8.985
 1852SOL    HW1 7389   2.955   2.940   9.063
 1852SOL    HW2 7390   3.097   2.950   9.012
 1853SOL     OW 7391   3.304  10.046   9.620
 1853SOL    HW1 7392   3.227  10.087   9.581
 1853SOL    HW2 7393   3.295  10.062   9.714
 1854SOL     OW 7394   3.047  12.943  11.942
 1854SOL    HW1 7395   3.130  12.988  11.931
 1854SOL    HW2 7396   3.018  12.968  12.030
 1855SOL     OW 7397  11.630  14.127   3.401
 1855SOL    HW1 7398  11.694  14.152   3.334
 1855SOL    HW2 7399  11.570  14.068   3.355
 1856SOL     OW 7400   1.936   8.537   2.115
 1856SOL    HW1 7401   1.992   8.464   2.093
 1856SOL    HW2 7402   1.983   8.615   2.085
 1857SOL     OW 7403   3.946  13.673   1.301
 1857SOL    HW1 7404   3.956  13.734   1.228
 1857SOL    HW2 7405   4.009  13.702   1.367
 1858SOL     OW 7406   8.189   8.800   7.866
 1858SOL    HW1 7407   8.137   8.879   7.882
 1858SOL    HW2 7408   8.141   8.753   7.798
 1859SOL     OW 7409  14.271   1.335   4.855
 1859SOL    HW1 7410  14.209   1.332   4.928
 1859SOL    HW2 7411  14.357   1.346   4.896
 1860SOL     OW 7412   0.491   6.520   4.306
 1860SOL    HW1 7413   0.571   6.572   4.302
 1860SOL    HW2 7414   0.455   6.538   4.393
 1861SOL     OW 7415  10.390  13.090   0.693
 1861SOL    HW1 7416  10.436  13.124   0.770
 1861SOL    HW2 7417  10.319  13.152   0.679
 1862SOL     OW 7418  10.251  10.358   3.826
 1862SOL    HW1 7419  10.225  10.404   3.747
 1862SOL    HW2 7420  10.207  10.405   3.897
 1863SOL     OW 7421   3.710   7.371   3.869
 1863SOL    HW1 7422   3.642   7.310   3.841
 1863SOL    HW2 7423   3.786   7.315   3.887
 1864SOL     OW 7424   2.442   2.035   1.463
 1864SOL    HW1 7425   2.416   2.000   1.378
 1864SOL    HW2 7426   2.535   2.014   1.470
 1865SOL     OW 7427   7.516   4.763  11.100
 1865SOL    HW1 7428   7.573   4.812  11.041
 1865SOL    HW2 7429   7.428   4.790  11.075
 1866SOL     OW 7430   3.862   5.042   5.211
 1866SOL    HW1 7431   3.839   4.952   5.188
 1866SOL    HW2 7432   3.792   5.095   5.174
 1867SOL     OW 7433   7.824   2.140   3.868
 1867SOL    HW1 7434   7.902   2.151   3.924
 1867SOL    HW2 7435   7.751   2.144   3.929
 1868SOL     OW 7436   3.637   1.079  14.633
 1868SOL    HW1 7437   3.698   1.098  14.562
 1868SOL    HW2 7438   3.660   1.142  14.701
 1869SOL     OW 7439   9.220  10.910   4.845
 1869SOL    HW1 7440   9.178  10.883   4.927
 1869SOL    HW2 7441   9.197  10.841   4.783
 1870SOL     OW 7442   3.446  12.757  10.862
 1870SOL    HW1 7443   3.533  12.777  10.896
 1870SOL    HW2 7444   3.444  12.662  10.854
 1871SOL     OW 7445   5.552   2.316   0.143
 1871SOL    HW1 7446   5.532   2.409   0.129
 1871SOL    HW2 7447   5.467   2.277   0.164
 1872SOL     OW 7448  14.342  14.424  12.939
 1872SOL    HW1 7449  14.294  14.433  12.857
 1872SOL    HW2 7450  14.386  14.340  12.932
 1873SOL     OW 7451   7.289   7.477  11.333
 1873SOL    HW1 7452   7.369   7.426  11.334
 1873SOL    HW2 7453   7.241   7.446  11.256
 1874SOL     OW 7454   8.972   7.347   5.701
 1874SOL    HW1 7455   8.976   7.252   5.690
 1874SOL    HW2 7456   9.053   7.380   5.662
 1875SOL     OW 7457  11.972  10.290   4.973
 1875SOL    HW1 7458  12.018  10.217   4.932
 1875SOL    HW2 7459  12.038  10.359   4.978
 1876SOL     OW 7460   4.461   5.913  14.110
 1876SOL    HW1 7461   4.433   5.840  14.164
 1876SOL    HW2 7462   4.442   5.885  14.020
 1877SOL     OW 7463  11.668   4.586   4.733
 1877SOL    HW1 7464  11.707   4.657   4.784
 1877SOL    HW2 7465  11.737   4.520   4.728
 1878SOL     OW 7466   4.394   4.371  10.457
 1878SOL    HW1 7467   4.396   4.427  10.535
 1878SOL    HW2 7468   4.304   4.378  10.425
 1879SOL     OW 7469   3.728  14.860  11.456
 1879SOL    HW1 7470   3.805  14.845  11.401
 1879SOL    HW2 7471   3.673  14.784  11.441
 1880SOL     OW 7472   9.156   3.359   0.885
 1880SOL    HW1 7473   9.213   3.297   0.838
 1880SOL    HW2 7474   9.214   3.431   0.910
 1881SOL     OW 7475  12.141   7.696  13.137
 1881SOL    HW1 7476  12.187   7.732  13.061
 1881SOL    HW2 7477  12.133   7.602  13.118
 1882SOL     OW 7478  12.049   1.455   9.521
 1882SOL    HW1 7479  12.011   1.388   9.578
 1882SOL    HW2 7480  12.122   1.411   9.477
 1883SOL     OW 7481   6.577   6.102   2.602
 1883SOL    HW1 7482   6.572   6.043   2.527
 1883SOL    HW2 7483   6.668   6.096   2.632
 1884SOL     OW 7484   2.458   0.480   5.345
 1884SOL    HW1 7485   2.539   0.503   5.300
 1884SOL    HW2 7486   2.449   0.386   5.331
 1885SOL     OW 7487   1.871   9.842  10.544
 1885SOL    HW1 7488   1.793   9.877  10.501
 1885SOL    HW2 7489   1.880   9.895  10.624
 1886SOL     OW 7490  14.727   2.264  14.030
 1886SOL    HW1 7491  14.657   2.324  14.055
 1886SOL    HW2 7492  14.801   2.288  14.086
 1887SOL     OW 7493   0.356  13.452   2.360
 1887SOL    HW1 7494   0.423  13.394   2.324
 1887SOL    HW2 7495   0.312  13.399   2.426
 1888SOL     OW 7496   1.567  13.795   7.194
 1888SOL    HW1 7497   1.659  13.792   7.170
 1888SOL    HW2 7498   1.521  13.808   7.112
 1889SOL     OW 7499   1.173  11.129   9.029
 1889SOL    HW1 7500   1.122  11.107   8.951
 1889SOL    HW2 7501   1.157  11.055   9.089
 1890SOL     OW 7502   8.887   7.226   6.455
 1890SOL    HW1 7503   8.980   7.207   6.447
 1890SOL    HW2 7504   8.872   7.233   6.550
 1891SOL     OW 7505   1.733  12.490   2.404
 1891SOL    HW1 7506   1.677  12.484   2.482
 1891SOL    HW2 7507   1.704  12.571   2.361
 1892SOL     OW 7508   3.983   3.208  13.212
 1892SOL    HW1 7509   4.005   3.206  13.119
 1892SOL    HW2 7510   3.957   3.299  13.229
 1893SOL     OW 7511   2.755   7.199   3.019
 1893SOL    HW1 7512   2.694   7.205   3.092
 1893SOL    HW2 7513   2.702   7.172   2.944
 1894SOL     OW 7514   0.759   8.227   0.370
 1894SOL    HW1 7515   0.737   8.252   0.460
 1894SOL    HW2 7516   0.779   8.133   0.376
 1895SOL     OW 7517  12.484   1.852  12.648
 1895SOL    HW1 7518  12.417   1.806  12.598
 1895SOL    HW2 7519  12.456   1.943  12.648
 1896SOL     OW 7520   5.954   7.484   9.010
 1896SOL    HW1 7521   5.965   7.539   9.088
 1896SOL    HW2 7522   5.983   7.397   9.037
 1897SOL     OW 7523   7.541   9.953   9.295
 1897SOL    HW1 7524   7.453   9.931   9.327
 1897SOL    HW2 7525   7.527  10.026   9.234
 1898SOL     OW 7526   8.008   2.220   4.042
 1898SOL    HW1 7527   8.028   2.201   4.134
 1898SOL    HW2 7528   8.037   2.311   4.030
 1899SOL     OW 7529   5.865  13.764   5.496
 1899SOL    HW1 7530   5.871  13.793   5.588
 1899SOL    HW2 7531   5.941  13.708   5.484
 1900SOL     OW 7532   6.340   4.670   2.017
 1900SOL    HW1 7533   6.350   4.651   2.110
 1900SOL    HW2 7534   6.353   4.585   1.974
 1901SOL     OW 7535  11.821   0.432   4.557
 1901SOL    HW1 7536  11.797   0.405   4.646
 1901SOL    HW2 7537  11.750   0.491   4.530
 1902SOL     OW 7538   2.308  14.542   6.265
 1902SOL    HW1 7539   2.216  14.525   6.284
 1902SOL    HW2 7540   2.314  14.638   6.263
 1903SOL     OW 7541  14.737   1.966  10.246
 1903SOL    HW1 7542  14.658   1.938  10.198
 1903SOL    HW2 7543  14.801   1.985  10.177
 1904SOL     OW 7544   8.675  14.000   5.902
 1904SOL    HW1 7545   8.671  14.020   5.808
 1904SOL    HW2 7546   8.768  14.003   5.923
 1905SOL     OW 7547   5.583   7.234   3.098
 1905SOL    HW1 7548   5.488   7.236   3.110
 1905SOL    HW2 7549   5.595   7.236   3.003
 1906SOL     OW 7550   4.798   8.539   2.082
 1906SOL    HW1 7551   4.887   8.533   2.046
 1906SOL    HW2 7552   4.796   8.473   2.151
 1907SOL     OW 7553  11.016   6.518   8.579
 1907SOL    HW1 7554  11.088   6.571   8.612
 1907SOL    HW2 7555  10.941   6.544   8.632
 1908SOL     OW 7556   6.571   2.101   8.362
 1908SOL    HW1 7557   6.510   2.118   8.290
 1908SOL    HW2 7558   6.579   2.185   8.407
 1909SOL     OW 7559  10.056  11.272   4.506
 1909SOL    HW1 7560   9.991  11.289   4.437
 1909SOL    HW2 7561  10.021  11.197   4.554
 1910SOL     OW 7562   5.777   3.118  10.923
 1910SOL    HW1 7563   5.694   3.152  10.956
 1910SOL    HW2 7564   5.801   3.178  10.852
 1911SOL     OW 7565   2.020  11.135  10.488
 1911SOL    HW1 7566   2.060  11.066  10.542
 1911SOL    HW2 7567   2.026  11.102  10.399
 1912SOL     OW 7568   7.478   3.817   8.348
 1912SOL    HW1 7569   7.560   3.861   8.368
 1912SOL    HW2 7570   7.488   3.785   8.259
 1913SOL     OW 7571   7.300  12.506   3.605
 1913SOL    HW1 7572   7.311  12.488   3.699
 1913SOL    HW2 7573   7.213  12.473   3.585
 1914SOL     OW 7574  13.303  13.206  13.585
 1914SOL    HW1 7575  13.242  13.133  13.585
 1914SOL    HW2 7576  13.304  13.238  13.495
 1915SOL     OW 7577  14.642  11.218  13.115
 1915SOL    HW1 7578  14.644  11.312  13.096
 1915SOL    HW2 7579  14.695  11.179  13.046
 1916SOL     OW 7580   2.322  11.415   4.878
 1916SOL    HW1 7581   2.267  11.440   4.952
 1916SOL    HW2 7582   2.270  11.438   4.801
 1917SOL     OW 7583   7.689   7.806  14.704
 1917SOL    HW1 7584   7.683   7.741  14.775
 1917SOL    HW2 7585   7.707   7.888  14.748
 1918SOL     OW 7586   8.905  12.479  14.261
 1918SOL    HW1 7587   8.872  12.563  14.295
 1918SOL    HW2 7588   8.969  12.451  14.326
 1919SOL     OW 7589  10.587   9.144  14.328
 1919SOL    HW1 7590  10.619   9.103  14.247
 1919SOL    HW2 7591  10.557   9.070  14.381
 1920SOL     OW 7592   1.586   5.484   7.758
 1920SOL    HW1 7593   1.565   5.395   7.786
 1920SOL    HW2 7594   1.657   5.474   7.695
 1921SOL     OW 7595   5.433  13.020  12.146
 1921SOL    HW1 7596   5.413  13.094  12.089
 1921SOL    HW2 7597   5.420  12.943  12.091
 1922SOL     OW 7598   9.944   0.814   3.060
 1922SOL    HW1 7599   9.887   0.841   3.131
 1922SOL    HW2 7600   9.962   0.721   3.077
 1923SOL     OW 7601   8.883  14.857   5.906
 1923SOL    HW1 7602   8.800  14.815   5.884
 1923SOL    HW2 7603   8.902   0.036   5.832
 1924SOL     OW 7604  13.055   3.232   3.957
 1924SOL    HW1 7605  13.023   3.279   4.034
 1924SOL    HW2 7606  12.978   3.218   3.903
 1925SOL     OW 7607   0.325  10.490   5.541
 1925SOL    HW1 7608   0.372  10.458   5.618
 1925SOL    HW2 7609   0.391  10.491   5.471
 1926SOL     OW 7610  10.755   0.974   2.744
 1926SOL    HW1 7611  10.714   0.917   2.809
 1926SOL    HW2 7612  10.738   1.063   2.775
 1927SOL     OW 7613   4.254   0.642   0.846
 1927SOL    HW1 7614   4.320   0.690   0.895
 1927SOL    HW2 7615   4.185   0.707   0.829
 1928SOL     OW 7616   7.478  13.615   9.998
 1928SOL    HW1 7617   7.559  13.586   9.956
 1928SOL    HW2 7618   7.498  13.616  10.091
 1929SOL     OW 7619   1.183  14.507   5.684
 1929SOL    HW1 7620   1.270  14.536   5.713
 1929SOL    HW2 7621   1.145  14.584   5.643
 1930SOL     OW 7622   5.630  10.289   5.689
 1930SOL    HW1 7623   5.723  10.280   5.672
 1930SOL    HW2 7624   5.622  10.276   5.784
 1931SOL     OW 7625   0.715   6.542  12.634
 1931SOL    HW1 7626   0.768   6.602  12.686
 1931SOL    HW2 7627   0.654   6.503  12.697
 1932SOL     OW 7628   5.581   6.483   1.801
 1932SOL    HW1 7629   5.548   6.401   1.840
 1932SOL    HW2 7630   5.586   6.464   1.708
 1933SOL     OW 7631   5.322   9.896   0.995
 1933SOL    HW1 7632   5.379   9.833   1.039
 1933SOL    HW2 7633   5.243   9.846   0.973
 1934SOL     OW 7634  10.286   7.455  13.333
 1934SOL    HW1 7635  10.196   7.463  13.363
 1934SOL    HW2 7636  10.287   7.498  13.248
 1935SOL     OW 7637  11.450  14.795  13.843
 1935SOL    HW1 7638  11.540  14.774  13.870
 1935SOL    HW2 7639  11.409  14.709  13.831
 1936SOL     OW 7640   3.660   6.883   9.044
 1936SOL    HW1 7641   3.736   6.840   9.005
 1936SOL    HW2 7642   3.656   6.968   9.001
 1937SOL     OW 7643   8.281  10.829  14.089
 1937SOL    HW1 7644   8.326  10.807  14.171
 1937SOL    HW2 7645   8.203  10.773  14.089
 1938SOL     OW 7646   1.479   4.468   8.023
 1938SOL    HW1 7647   1.387   4.492   8.018
 1938SOL    HW2 7648   1.519   4.537   8.076
 1939SOL     OW 7649   7.693   6.040  12.779
 1939SOL    HW1 7650   7.730   6.045  12.691
 1939SOL    HW2 7651   7.751   5.981  12.827
 1940SOL     OW 7652   6.377   9.161   7.535
 1940SOL    HW1 7653   6.434   9.168   7.611
 1940SOL    HW2 7654   6.300   9.114   7.568
 1941SOL     OW 7655  10.872   7.876  13.901
 1941SOL    HW1 7656  10.843   7.788  13.875
 1941SOL    HW2 7657  10.873   7.872  13.997
 1942SOL     OW 7658   9.635   6.273  13.409
 1942SOL    HW1 7659   9.585   6.202  13.449
 1942SOL    HW2 7660   9.725   6.259  13.439
 1943SOL     OW 7661   9.910  12.953   2.463
 1943SOL    HW1 7662   9.913  12.901   2.543
 1943SOL    HW2 7663   9.932  13.042   2.491
 1944SOL     OW 7664   6.994   5.671   8.028
 1944SOL    HW1 7665   6.989   5.635   8.117
 1944SOL    HW2 7666   7.088   5.687   8.014
 1945SOL     OW 7667   6.314   1.564   6.733
 1945SOL    HW1 7668   6.224   1.554   6.704
 1945SOL    HW2 7669   6.340   1.476   6.761
 1946SOL     OW 7670   4.115   9.547   4.082
 1946SOL    HW1 7671   4.070   9.593   4.012
 1946SOL    HW2 7672   4.144   9.616   4.142
 1947SOL     OW 7673   5.497   1.630   7.129
 1947SOL    HW1 7674   5.537   1.673   7.053
 1947SOL    HW2 7675   5.454   1.702   7.176
 1948SOL     OW 7676   8.321   7.047   9.202
 1948SOL    HW1 7677   8.372   7.083   9.129
 1948SOL    HW2 7678   8.253   7.112   9.218
 1949SOL     OW 7679   1.835   7.356   2.986
 1949SOL    HW1 7680   1.753   7.339   3.032
 1949SOL    HW2 7681   1.860   7.272   2.949
 1950SOL     OW 7682   6.601  13.496   3.232
 1950SOL    HW1 7683   6.604  13.557   3.159
 1950SOL    HW2 7684   6.511  13.504   3.265
 1951SOL     OW 7685   7.533   6.945  10.552
 1951SOL    HW1 7686   7.625   6.925  10.537
 1951SOL    HW2 7687   7.533   7.006  10.626
 1952SOL     OW 7688   0.726   3.048   1.765
 1952SOL    HW1 7689   0.708   3.142   1.771
 1952SOL    HW2 7690   0.646   3.007   1.799
 1953SOL     OW 7691  11.541  12.179   0.397
 1953SOL    HW1 7692  11.459  12.228   0.392
 1953SOL    HW2 7693  11.602  12.240   0.439
 1954SOL     OW 7694   4.896   0.871   5.260
 1954SOL    HW1 7695   4.893   0.875   5.165
 1954SOL    HW2 7696   4.812   0.832   5.285
 1955SOL     OW 7697  11.927   3.183   2.925
 1955SOL    HW1 7698  11.841   3.216   2.900
 1955SOL    HW2 7699  11.962   3.143   2.845
 1956SOL     OW 7700   6.479   8.430  11.079
 1956SOL    HW1 7701   6.403   8.479  11.111
 1956SOL    HW2 7702   6.446   8.341  11.064
 1957SOL     OW 7703   4.985   9.757  14.218
 1957SOL    HW1 7704   4.915   9.811  14.181
 1957SOL    HW2 7705   5.044   9.740  14.145
 1958SOL     OW 7706   5.599   0.700   6.897
 1958SOL    HW1 7707   5.534   0.753   6.944
 1958SOL    HW2 7708   5.583   0.610   6.928
 1959SOL     OW 7709   5.271   4.187  14.074
 1959SOL    HW1 7710   5.226   4.215  13.994
 1959SOL    HW2 7711   5.363   4.210  14.059
 1960SOL     OW 7712   2.323   1.648   8.388
 1960SOL    HW1 7713   2.414   1.643   8.359
 1960SOL    HW2 7714   2.303   1.742   8.389
 1961SOL     OW 7715  13.851   5.291   1.800
 1961SOL    HW1 7716  13.891   5.374   1.824
 1961SOL    HW2 7717  13.835   5.246   1.883
 1962SOL     OW 7718   1.141   3.422   5.437
 1962SOL    HW1 7719   1.100   3.404   5.521
 1962SOL    HW2 7720   1.227   3.456   5.459
 1963SOL     OW 7721   0.457  11.405   5.632
 1963SOL    HW1 7722   0.458  11.319   5.675
 1963SOL    HW2 7723   0.545  11.414   5.596
 1964SOL     OW 7724   4.481  10.551   9.743
 1964SOL    HW1 7725   4.453  10.554   9.834
 1964SOL    HW2 7726   4.411  10.594   9.694
 1965SOL     OW 7727   2.326  12.775  11.984
 1965SOL    HW1 7728   2.380  12.840  11.940
 1965SOL    HW2 7729   2.262  12.827  12.033
 1966SOL     OW 7730  10.457   0.475   0.109
 1966SOL    HW1 7731  10.493   0.480   0.020
 1966SOL    HW2 7732  10.486   0.556   0.151
 1967SOL     OW 7733  13.937   3.529   7.101
 1967SOL    HW1 7734  13.941   3.624   7.102
 1967SOL    HW2 7735  14.024   3.502   7.072
 1968SOL     OW 7736  13.035   9.432   7.520
 1968SOL    HW1 7737  13.064   9.351   7.479
 1968SOL    HW2 7738  12.957   9.458   7.470
 1969SOL     OW 7739   9.540  13.869  10.287
 1969SOL    HW1 7740   9.446  13.868  10.271
 1969SOL    HW2 7741   9.579  13.877  10.200
 1970SOL     OW 7742   4.178   1.181  12.533
 1970SOL    HW1 7743   4.184   1.270  12.569
 1970SOL    HW2 7744   4.097   1.146  12.572
 1971SOL     OW 7745   6.763   2.797  10.176
 1971SOL    HW1 7746   6.670   2.813  10.161
 1971SOL    HW2 7747   6.798   2.883  10.201
 1972SOL     OW 7748   9.360   8.342   4.000
 1972SOL    HW1 7749   9.288   8.403   3.985
 1972SOL    HW2 7750   9.316   8.259   4.022
 1973SOL     OW 7751   8.962  11.148  11.915
 1973SOL    HW1 7752   8.987  11.067  11.871
 1973SOL    HW2 7753   8.953  11.212  11.845
 1974SOL     OW 7754  11.277   7.194  11.452
 1974SOL    HW1 7755  11.186   7.165  11.453
 1974SOL    HW2 7756  11.323   7.127  11.401
 1975SOL     OW 7757   2.207   2.656  10.974
 1975SOL    HW1 7758   2.139   2.696  10.920
 1975SOL    HW2 7759   2.161   2.590  11.026
 1976SOL     OW 7760   7.442   1.297  10.743
 1976SOL    HW1 7761   7.522   1.269  10.697
 1976SOL    HW2 7762   7.390   1.217  10.750
 1977SOL     OW 7763   1.922  12.234   1.034
 1977SOL    HW1 7764   1.975  12.157   1.056
 1977SOL    HW2 7765   1.892  12.268   1.118
 1978SOL     OW 7766   7.162  12.201   1.669
 1978SOL    HW1 7767   7.160  12.240   1.581
 1978SOL    HW2 7768   7.252  12.171   1.680
 1979SOL     OW 7769   5.009  10.350  10.779
 1979SOL    HW1 7770   5.036  10.312  10.696
 1979SOL    HW2 7771   5.088  10.349  10.833
 1980SOL     OW 7772   1.409   5.529  12.773
 1980SOL    HW1 7773   1.365   5.613  12.766
 1980SOL    HW2 7774   1.490   5.547  12.820
 1981SOL     OW 7775   3.461   8.973   4.422
 1981SOL    HW1 7776   3.379   9.004   4.384
 1981SOL    HW2 7777   3.454   8.878   4.420
 1982SOL     OW 7778  11.518  13.101  10.144
 1982SOL    HW1 7779  11.607  13.069  10.159
 1982SOL    HW2 7780  11.461  13.030  10.171
 1983SOL     OW 7781  11.744   1.757   8.863
 1983SOL    HW1 7782  11.782   1.801   8.787
 1983SOL    HW2 7783  11.651   1.780   8.860
 1984SOL     OW 7784   6.278   6.621   2.022
 1984SOL    HW1 7785   6.366   6.583   2.023
 1984SOL    HW2 7786   6.288   6.704   1.976
 1985SOL     OW 7787  12.491  14.374   5.773
 1985SOL    HW1 7788  12.435  14.445   5.806
 1985SOL    HW2 7789  12.580  14.405   5.790
 1986SOL     OW 7790   9.810   9.118  13.214
 1986SOL    HW1 7791   9.775   9.039  13.173
 1986SOL    HW2 7792   9.735   9.155  13.261
 1987SOL     OW 7793  10.039  11.169   6.825
 1987SOL    HW1 7794   9.978  11.182   6.752
 1987SOL    HW2 7795   9.993  11.202   6.902
 1988SOL     OW 7796  11.984   3.248   0.242
 1988SOL    HW1 7797  11.974   3.249   0.337
 1988SOL    HW2 7798  12.014   3.159   0.222
 1989SOL     OW 7799  11.240  12.132   0.737
 1989SOL    HW1 7800  11.297  12.078   0.683
 1989SOL    HW2 7801  11.297  12.167   0.805
 1990SOL     OW 7802   1.568   0.867   2.581
 1990SOL    HW1 7803   1.547   0.959   2.564
 1990SOL    HW2 7804   1.483   0.824   2.587
 1991SOL     OW 7805   5.080   1.679  13.999
 1991SOL    HW1 7806   5.110   1.632  13.921
 1991SOL    HW2 7807   5.059   1.609  14.061
 1992SOL     OW 7808   6.800   8.154  13.622
 1992SOL    HW1 7809   6.773   8.196  13.703
 1992SOL    HW2 7810   6.731   8.091  13.602
 1993SOL     OW 7811   2.691   8.670   6.650
 1993SOL    HW1 7812   2.752   8.606   6.685
 1993SOL    HW2 7813   2.747   8.743   6.622
 1994SOL     OW 7814  14.828   0.950  12.807
 1994SOL    HW1 7815   0.023   0.900  12.772
 1994SOL    HW2 7816  14.754   0.926  12.753
 1995SOL     OW 7817  12.448   3.400  11.024
 1995SOL    HW1 7818  12.449   3.485  10.981
 1995SOL    HW2 7819  12.498   3.343  10.966
 1996SOL     OW 7820  10.609   0.120   8.425
 1996SOL    HW1 7821  10.684   0.176   8.405
 1996SOL    HW2 7822  10.604   0.118   8.520
 1997SOL     OW 7823  10.502   2.753   2.320
 1997SOL    HW1 7824  10.502   2.775   2.413
 1997SOL    HW2 7825  10.593   2.726   2.302
 1998SOL     OW 7826   7.925   7.208  14.489
 1998SOL    HW1 7827   7.946   7.285  14.436
 1998SOL    HW2 7828   7.933   7.134  14.428
 1999SOL     OW 7829   9.901   4.614  11.282
 1999SOL    HW1 7830   9.953   4.567  11.217
 1999SOL    HW2 7831   9.810   4.599  11.256
 2000SOL     OW 7832  12.622  10.350  14.752
 2000SOL    HW1 7833  12.660  10.388  14.672
 2000SOL    HW2 7834  12.698  10.328  14.805
 2001SOL     OW 7835  10.822  14.796   8.685
 2001SOL    HW1 7836  10.843   0.001   8.726
 2001SOL    HW2 7837  10.728  14.786   8.699
 2002SOL     OW 7838   7.592   6.693   5.664
 2002SOL    HW1 7839   7.683   6.672   5.685
 2002SOL    HW2 7840   7.572   6.768   5.719
 2003SOL     OW 7841   0.065   2.313  12.816
 2003SOL    HW1 7842   0.092   2.282  12.902
 2003SOL    HW2 7843   0.141   2.361  12.783
 2004SOL     OW 7844   4.756  12.463   1.416
 2004SOL    HW1 7845   4.838  12.504   1.390
 2004SOL    HW2 7846   4.740  12.494   1.505
 2005SOL     OW 7847  10.418   2.451   3.782
 2005SOL    HW1 7848  10.483   2.385   3.756
 2005SOL    HW2 7849  10.336   2.402   3.787
 2006SOL     OW 7850   5.604   5.187  10.543
 2006SOL    HW1 7851   5.630   5.095  10.552
 2006SOL    HW2 7852   5.518   5.191  10.586
 2007SOL     OW 7853   0.623   7.817   6.189
 2007SOL    HW1 7854   0.548   7.762   6.165
 2007SOL    HW2 7855   0.613   7.896   6.137
 2008SOL     OW 7856   7.389   0.198  12.163
 2008SOL    HW1 7857   7.449   0.196  12.237
 2008SOL    HW2 7858   7.445   0.196  12.086
 2009SOL     OW 7859  12.532  11.348   3.926
 2009SOL    HW1 7860  12.544  11.442   3.914
 2009SOL    HW2 7861  12.537  11.334   4.021
 2010SOL     OW 7862  11.833   9.986  11.680
 2010SOL    HW1 7863  11.868   9.920  11.740
 2010SOL    HW2 7864  11.840  10.068  11.729
 2011SOL     OW 7865   4.760   0.179   3.590
 2011SOL    HW1 7866   4.795   0.233   3.661
 2011SOL    HW2 7867   4.695   0.235   3.547
 2012SOL     OW 7868  10.465   1.403   5.257
 2012SOL    HW1 7869  10.449   1.489   5.218
 2012SOL    HW2 7870  10.526   1.360   5.196
 2013SOL     OW 7871  13.412   7.770  12.261
 2013SOL    HW1 7872  13.460   7.774  12.343
 2013SOL    HW2 7873  13.324   7.742  12.286
 2014SOL     OW 7874   9.932  10.223   9.374
 2014SOL    HW1 7875   9.965  10.252   9.289
 2014SOL    HW2 7876  10.010  10.196   9.422
 2015SOL     OW 7877   1.425   0.624   0.666
 2015SOL    HW1 7878   1.393   0.682   0.736
 2015SOL    HW2 7879   1.392   0.538   0.690
 2016SOL     OW 7880   3.697   7.645   3.456
 2016SOL    HW1 7881   3.727   7.691   3.377
 2016SOL    HW2 7882   3.773   7.646   3.515
 2017SOL     OW 7883  14.218   9.578   6.167
 2017SOL    HW1 7884  14.297   9.612   6.209
 2017SOL    HW2 7885  14.184   9.652   6.116
 2018SOL     OW 7886   4.223   9.461  10.924
 2018SOL    HW1 7887   4.216   9.398  10.995
 2018SOL    HW2 7888   4.139   9.455  10.878
 2019SOL     OW 7889   1.087   2.788   5.828
 2019SOL    HW1 7890   1.101   2.867   5.881
 2019SOL    HW2 7891   1.120   2.716   5.882
 2020SOL     OW 7892  12.385   9.084   5.974
 2020SOL    HW1 7893  12.445   9.076   5.900
 2020SOL    HW2 7894  12.410   9.167   6.016
 2021SOL     OW 7895  11.483   1.654   5.975
 2021SOL    HW1 7896  11.472   1.566   5.941
 2021SOL    HW2 7897  11.413   1.664   6.040
 2022SOL     OW 7898   6.201   0.572   5.617
 2022SOL    HW1 7899   6.143   0.568   5.692
 2022SOL    HW2 7900   6.144   0.559   5.541
 2023SOL     OW 7901   6.545   3.033   2.989
 2023SOL    HW1 7902   6.505   2.999   3.069
 2023SOL    HW2 7903   6.473   3.033   2.925
 2024SOL     OW 7904   3.046  11.916   4.986
 2024SOL    HW1 7905   3.026  11.999   5.030
 2024SOL    HW2 7906   2.982  11.854   5.022
 2025SOL     OW 7907   1.938   2.993  10.267
 2025SOL    HW1 7908   1.883   2.937  10.214
 2025SOL    HW2 7909   1.890   3.076  10.273
 2026SOL     OW 7910   9.573   6.414   5.853
 2026SOL    HW1 7911   9.638   6.348   5.875
 2026SOL    HW2 7912   9.536   6.384   5.770
 2027SOL     OW 7913  10.254   0.773  11.322
 2027SOL    HW1 7914  10.319   0.725  11.271
 2027SOL    HW2 7915  10.305   0.836  11.372
 2028SOL     OW 7916   5.728   0.828   5.811
 2028SOL    HW1 7917   5.816   0.866   5.799
 2028SOL    HW2 7918   5.691   0.824   5.723
 2029SOL     OW 7919  13.731   8.081   6.507
 2029SOL    HW1 7920  13.683   8.086   6.590
 2029SOL    HW2 7921  13.682   8.018   6.454
 2030SOL     OW 7922   0.645   0.413   9.931
 2030SOL    HW1 7923   0.550   0.415   9.944
 2030SOL    HW2 7924   0.658   0.434   9.839
 2031SOL     OW 7925   4.093   1.449   4.092
 2031SOL    HW1 7926   4.107   1.368   4.043
 2031SOL    HW2 7927   4.156   1.444   4.165
 2032SOL     OW 7928  13.948   1.678  13.513
 2032SOL    HW1 7929  14.032   1.717  13.536
 2032SOL    HW2 7930  13.944   1.598  13.567
 2033SOL     OW 7931  10.158  13.573  12.172
 2033SOL    HW1 7932  10.170  13.500  12.233
 2033SOL    HW2 7933  10.076  13.553  12.126
 2034SOL     OW 7934   9.600   0.727  14.167
 2034SOL    HW1 7935   9.682   0.690  14.136
 2034SOL    HW2 7936   9.566   0.661  14.228
 2035SOL     OW 7937   3.137   7.722  13.355
 2035SOL    HW1 7938   3.218   7.732  13.304
 2035SOL    HW2 7939   3.160   7.663  13.426
 2036SOL     OW 7940   8.527   7.649   1.747
 2036SOL    HW1 7941   8.607   7.685   1.708
 2036SOL    HW2 7942   8.457   7.676   1.688
 2037SOL     OW 7943   1.956   2.090  13.351
 2037SOL    HW1 7944   1.935   2.025  13.418
 2037SOL    HW2 7945   1.924   2.173  13.387
 2038SOL     OW 7946   3.513  10.640   7.518
 2038SOL    HW1 7947   3.583  10.696   7.551
 2038SOL    HW2 7948   3.552  10.595   7.443
 2039SOL     OW 7949   3.147  13.183   3.694
 2039SOL    HW1 7950   3.198  13.175   3.774
 2039SOL    HW2 7951   3.086  13.255   3.711
 2040SOL     OW 7952  11.025   2.129  11.138
 2040SOL    HW1 7953  11.040   2.142  11.232
 2040SOL    HW2 7954  10.946   2.075  11.134
 2041SOL     OW 7955   6.296   4.780   3.829
 2041SOL    HW1 7956   6.335   4.838   3.895
 2041SOL    HW2 7957   6.319   4.820   3.745
 2042SOL     OW 7958   7.990   0.974  11.287
 2042SOL    HW1 7959   8.027   0.936  11.208
 2042SOL    HW2 7960   7.999   1.069  11.275
 2043SOL     OW 7961   3.943   9.322   8.427
 2043SOL    HW1 7962   3.904   9.410   8.423
 2043SOL    HW2 7963   4.031   9.333   8.393
 2044SOL     OW 7964   0.433   2.231  13.073
 2044SOL    HW1 7965   0.511   2.176  13.073
 2044SOL    HW2 7966   0.361   2.171  13.055
 2045SOL     OW 7967  12.305   0.377  12.275
 2045SOL    HW1 7968  12.258   0.460  12.267
 2045SOL    HW2 7969  12.330   0.373  12.367
 2046SOL     OW 7970  11.631  14.258   5.914
 2046SOL    HW1 7971  11.711  14.308   5.931
 2046SOL    HW2 7972  11.656  14.167   5.926
 2047SOL     OW 7973  12.746   4.993   2.157
 2047SOL    HW1 7974  12.665   4.983   2.206
 2047SOL    HW2 7975  12.745   5.083   2.126
 2048SOL     OW 7976  12.734   4.917   3.547
 2048SOL    HW1 7977  12.794   4.953   3.612
 2048SOL    HW2 7978  12.769   4.945   3.462
 2049SOL     OW 7979   4.605  10.761  11.631
 2049SOL    HW1 7980   4.540  10.711  11.679
 2049SOL    HW2 7981   4.560  10.791  11.552
 2050SOL     OW 7982  14.058  10.661  13.646
 2050SOL    HW1 7983  13.991  10.612  13.598
 2050SOL    HW2 7984  14.082  10.604  13.719
 2051SOL     OW 7985   5.474   1.448   3.755
 2051SOL    HW1 7986   5.473   1.355   3.780
 2051SOL    HW2 7987   5.382   1.475   3.759
 2052SOL     OW 7988  12.834   8.493   0.160
 2052SOL    HW1 7989  12.838   8.507   0.065
 2052SOL    HW2 7990  12.861   8.576   0.198
 2053SOL     OW 7991   3.810   7.748   9.635
 2053SOL    HW1 7992   3.804   7.690   9.711
 2053SOL    HW2 7993   3.885   7.715   9.585
 2054SOL     OW 7994   0.620  11.885  10.966
 2054SOL    HW1 7995   0.562  11.829  11.017
 2054SOL    HW2 7996   0.699  11.834  10.954
 2055SOL     OW 7997  10.166   6.843   2.554
 2055SOL    HW1 7998  10.156   6.776   2.622
 2055SOL    HW2 7999  10.077   6.868   2.531
 2056SOL     OW 8000   5.400  10.666   5.488
 2056SOL    HW1 8001   5.433  10.721   5.417
 2056SOL    HW2 8002   5.475  10.614   5.516
 2057SOL     OW 8003   8.629   0.112   0.632
 2057SOL    HW1 8004   8.683   0.134   0.708
 2057SOL    HW2 8005   8.544   0.086   0.669
 2058SOL     OW 8006  12.204   4.459  13.880
 2058SOL    HW1 8007  12.295   4.456  13.909
 2058SOL    HW2 8008  12.166   4.533  13.927
 2059SOL     OW 8009   8.359   7.781   5.394
 2059SOL    HW1 8010   8.367   7.685   5.394
 2059SOL    HW2 8011   8.283   7.798   5.339
 2060SOL     OW 8012   2.834   1.490   9.123
 2060SOL    HW1 8013   2.784   1.449   9.053
 2060SOL    HW2 8014   2.801   1.580   9.126
 2061SOL     OW 8015  12.479   0.938   3.641
 2061SOL    HW1 8016  12.433   0.874   3.695
 2061SOL    HW2 8017  12.515   0.886   3.569
 2062SOL     OW 8018   8.178  12.795   7.797
 2062SOL    HW1 8019   8.221  12.802   7.711
 2062SOL    HW2 8020   8.249  12.773   7.857
 2063SOL     OW 8021   8.250  14.442   0.473
 2063SOL    HW1 8022   8.341  14.446   0.442
 2063SOL    HW2 8023   8.205  14.389   0.407
 2064SOL     OW 8024   6.496   7.637  13.273
 2064SOL    HW1 8025   6.481   7.544  13.257
 2064SOL    HW2 8026   6.548   7.640  13.353
 2065SOL     OW 8027   6.698   3.135   8.457
 2065SOL    HW1 8028   6.732   3.130   8.368
 2065SOL    HW2 8029   6.610   3.173   8.447
 2066SOL     OW 8030  14.292  12.408   1.655
 2066SOL    HW1 8031  14.281  12.358   1.736
 2066SOL    HW2 8032  14.285  12.342   1.586
 2067SOL     OW 8033   3.438   2.259  12.488
 2067SOL    HW1 8034   3.529   2.272  12.464
 2067SOL    HW2 8035   3.433   2.167  12.515
 2068SOL     OW 8036  12.893   7.566  14.388
 2068SOL    HW1 8037  12.895   7.471  14.404
 2068SOL    HW2 8038  12.983   7.594  14.400
 2069SOL     OW 8039   1.421   6.833   1.194
 2069SOL    HW1 8040   1.488   6.781   1.236
 2069SOL    HW2 8041   1.394   6.897   1.260
 2070SOL     OW 8042   8.937   0.732   2.700
 2070SOL    HW1 8043   8.963   0.820   2.726
 2070SOL    HW2 8044   8.937   0.681   2.781
 2071SOL     OW 8045  11.119   5.027   0.738
 2071SOL    HW1 8046  11.204   5.060   0.709
 2071SOL    HW2 8047  11.056   5.089   0.702
 2072SOL     OW 8048   2.375  13.132  12.493
 2072SOL    HW1 8049   2.433  13.208  12.505
 2072SOL    HW2 8050   2.294  13.169  12.460
 2073SOL     OW 8051   2.464   6.935   2.382
 2073SOL    HW1 8052   2.536   6.981   2.338
 2073SOL    HW2 8053   2.502   6.851   2.408
 2074SOL     OW 8054   5.261   1.316  13.655
 2074SOL    HW1 8055   5.258   1.259  13.578
 2074SOL    HW2 8056   5.194   1.281  13.714
 2075SOL     OW 8057   8.151   7.979  13.942
 2075SOL    HW1 8058   8.055   7.979  13.941
 2075SOL    HW2 8059   8.177   7.910  13.882
 2076SOL     OW 8060   3.890   4.714   4.469
 2076SOL    HW1 8061   3.955   4.781   4.446
 2076SOL    HW2 8062   3.931   4.664   4.539
 2077SOL     OW 8063   4.736   1.489  12.411
 2077SOL    HW1 8064   4.716   1.422  12.476
 2077SOL    HW2 8065   4.831   1.501  12.418
 2078SOL     OW 8066   9.921   8.201   1.247
 2078SOL    HW1 8067   9.926   8.106   1.238
 2078SOL    HW2 8068   9.849   8.216   1.307
 2079SOL     OW 8069   2.140  13.063   0.785
 2079SOL    HW1 8070   2.217  13.056   0.729
 2079SOL    HW2 8071   2.073  13.010   0.741
 2080SOL     OW 8072   7.116  11.092   5.816
 2080SOL    HW1 8073   7.105  11.018   5.876
 2080SOL    HW2 8074   7.131  11.167   5.874
 2081SOL     OW 8075   2.359   6.527  13.153
 2081SOL    HW1 8076   2.368   6.576  13.071
 2081SOL    HW2 8077   2.309   6.586  13.209
 2082SOL     OW 8078   6.146   2.321   5.722
 2082SOL    HW1 8079   6.141   2.416   5.730
 2082SOL    HW2 8080   6.195   2.306   5.642
 2083SOL     OW 8081   1.372  12.229  14.026
 2083SOL    HW1 8082   1.464  12.230  14.055
 2083SOL    HW2 8083   1.377  12.237  13.931
 2084SOL     OW 8084   2.038   1.936   8.445
 2084SOL    HW1 8085   2.134   1.934   8.445
 2084SOL    HW2 8086   2.013   1.850   8.412
 2085SOL     OW 8087  12.665  11.009  10.413
 2085SOL    HW1 8088  12.586  10.985  10.462
 2085SOL    HW2 8089  12.723  10.934  10.424
 2086SOL     OW 8090   1.466   9.628   6.503
 2086SOL    HW1 8091   1.468   9.600   6.412
 2086SOL    HW2 8092   1.374   9.651   6.519
 2087SOL     OW 8093   2.592   7.807   1.285
 2087SOL    HW1 8094   2.515   7.855   1.257
 2087SOL    HW2 8095   2.620   7.851   1.366
 2088SOL     OW 8096  12.587   1.812  12.302
 2088SOL    HW1 8097  12.599   1.804  12.208
 2088SOL    HW2 8098  12.519   1.748  12.323
 2089SOL     OW 8099  12.762   1.265  13.183
 2089SOL    HW1 8100  12.788   1.278  13.091
 2089SOL    HW2 8101  12.681   1.214  13.177
 2090SOL     OW 8102  13.832  14.231   7.616
 2090SOL    HW1 8103  13.889  14.234   7.540
 2090SOL    HW2 8104  13.887  14.260   7.689
 2091SOL     OW 8105   1.348   9.855   2.985
 2091SOL    HW1 8106   1.286   9.860   2.912
 2091SOL    HW2 8107   1.433   9.840   2.942
 2092SOL     OW 8108   5.270   1.096  12.268
 2092SOL    HW1 8109   5.291   1.129  12.180
 2092SOL    HW2 8110   5.328   1.021  12.280
 2093SOL     OW 8111   2.259   3.053  10.726
 2093SOL    HW1 8112   2.320   3.024  10.793
 2093SOL    HW2 8113   2.239   2.974  10.676
 2094SOL     OW 8114   4.631  14.447   9.692
 2094SOL    HW1 8115   4.707  14.497   9.722
 2094SOL    HW2 8116   4.663  14.399   9.616
 2095SOL     OW 8117   8.237   7.574   2.458
 2095SOL    HW1 8118   8.243   7.649   2.400
 2095SOL    HW2 8119   8.155   7.531   2.435
 2096SOL     OW 8120   0.621  10.245   2.812
 2096SOL    HW1 8121   0.589  10.320   2.761
 2096SOL    HW2 8122   0.712  10.266   2.831
 2097SOL     OW 8123   8.799   1.213   2.731
 2097SOL    HW1 8124   8.800   1.134   2.786
 2097SOL    HW2 8125   8.865   1.197   2.664
 2098SOL     OW 8126   6.351   5.583   6.832
 2098SOL    HW1 8127   6.416   5.601   6.764
 2098SOL    HW2 8128   6.274   5.554   6.785
 2099SOL     OW 8129   2.285   6.331   7.071
 2099SOL    HW1 8130   2.308   6.412   7.025
 2099SOL    HW2 8131   2.359   6.273   7.056
 2100SOL     OW 8132   5.674  13.913   3.088
 2100SOL    HW1 8133   5.663  13.877   3.176
 2100SOL    HW2 8134   5.731  13.989   3.099
 2101SOL     OW 8135   7.856   4.696   0.567
 2101SOL    HW1 8136   7.838   4.774   0.514
 2101SOL    HW2 8137   7.849   4.623   0.505
 2102SOL     OW 8138   6.364   4.074   3.219
 2102SOL    HW1 8139   6.313   4.000   3.253
 2102SOL    HW2 8140   6.418   4.036   3.150
 2103SOL     OW 8141   8.773  10.278  13.636
 2103SOL    HW1 8142   8.709  10.338  13.675
 2103SOL    HW2 8143   8.845  10.276  13.700
 2104SOL     OW 8144  11.198  12.597   0.698
 2104SOL    HW1 8145  11.129  12.602   0.765
 2104SOL    HW2 8146  11.183  12.513   0.654
 2105SOL     OW 8147   8.529   9.347  11.682
 2105SOL    HW1 8148   8.535   9.438  11.653
 2105SOL    HW2 8149   8.478   9.303  11.614
 2106SOL     OW 8150   5.744   4.076   5.125
 2106SOL    HW1 8151   5.704   3.990   5.137
 2106SOL    HW2 8152   5.675   4.138   5.149
 2107SOL     OW 8153   7.016   4.166  12.386
 2107SOL    HW1 8154   7.085   4.186  12.323
 2107SOL    HW2 8155   6.935   4.189  12.342
 2108SOL     OW 8156   5.095   4.013   3.258
 2108SOL    HW1 8157   5.026   3.970   3.208
 2108SOL    HW2 8158   5.142   3.941   3.301
 2109SOL     OW 8159   4.462   3.838  11.309
 2109SOL    HW1 8160   4.431   3.820  11.398
 2109SOL    HW2 8161   4.430   3.926  11.290
 2110SOL     OW 8162   3.851  11.472  13.891
 2110SOL    HW1 8163   3.826  11.549  13.839
 2110SOL    HW2 8164   3.945  11.484  13.906
 2111SOL     OW 8165   4.698  14.148  13.599
 2111SOL    HW1 8166   4.767  14.140  13.665
 2111SOL    HW2 8167   4.616  14.140  13.649
 2112SOL     OW 8168   0.630  12.073   8.530
 2112SOL    HW1 8169   0.720  12.075   8.562
 2112SOL    HW2 8170   0.638  12.052   8.437
 2113SOL     OW 8171   0.291   4.492   4.920
 2113SOL    HW1 8172   0.337   4.571   4.950
 2113SOL    HW2 8173   0.207   4.494   4.966
 2114SOL     OW 8174  12.240   4.767   5.772
 2114SOL    HW1 8175  12.270   4.857   5.788
 2114SOL    HW2 8176  12.284   4.742   5.691
 2115SOL     OW 8177  10.085   4.157   4.293
 2115SOL    HW1 8178  10.025   4.138   4.221
 2115SOL    HW2 8179  10.031   4.199   4.359
 2116SOL     OW 8180   0.139  14.696   2.530
 2116SOL    HW1 8181   0.056  14.676   2.573
 2116SOL    HW2 8182   0.114  14.744   2.451
 2117SOL     OW 8183   9.341  12.031  12.121
 2117SOL    HW1 8184   9.388  11.955  12.085
 2117SOL    HW2 8185   9.250  12.001  12.128
 2118SOL     OW 8186  13.951   5.724  13.977
 2118SOL    HW1 8187  13.884   5.792  13.977
 2118SOL    HW2 8188  14.018   5.756  13.917
 2119SOL     OW 8189   7.291  14.799   0.029
 2119SOL    HW1 8190   7.263  14.806  14.817
 2119SOL    HW2 8191   7.253  14.717   0.060
 2120SOL     OW 8192   1.073   8.478  13.446
 2120SOL    HW1 8193   1.093   8.562  13.404
 2120SOL    HW2 8194   0.985   8.456  13.414
 2121SOL     OW 8195   3.894  10.772  14.140
 2121SOL    HW1 8196   3.958  10.731  14.081
 2121SOL    HW2 8197   3.918  10.740  14.227
 2122SOL     OW 8198   5.903   4.270   0.348
 2122SOL    HW1 8199   5.955   4.349   0.363
 2122SOL    HW2 8200   5.871   4.280   0.258
 2123SOL     OW 8201   9.166   8.318   8.627
 2123SOL    HW1 8202   9.185   8.343   8.536
 2123SOL    HW2 8203   9.087   8.366   8.650
 2124SOL     OW 8204  12.477   1.230   5.853
 2124SOL    HW1 8205  12.483   1.154   5.796
 2124SOL    HW2 8206  12.539   1.293   5.816
 2125SOL     OW 8207   5.979   6.876   3.159
 2125SOL    HW1 8208   5.965   6.797   3.211
 2125SOL    HW2 8209   5.907   6.876   3.095
 2126SOL     OW 8210   9.096  13.689   0.185
 2126SOL    HW1 8211   9.164  13.654   0.128
 2126SOL    HW2 8212   9.141  13.755   0.238
 2127SOL     OW 8213   6.256   3.905   6.164
 2127SOL    HW1 8214   6.285   3.974   6.223
 2127SOL    HW2 8215   6.268   3.941   6.076
 2128SOL     OW 8216   8.816  10.324  13.377
 2128SOL    HW1 8217   8.910  10.341  13.377
 2128SOL    HW2 8218   8.795  10.307  13.469
 2129SOL     OW 8219  11.329   8.838   9.084
 2129SOL    HW1 8220  11.289   8.897   9.020
 2129SOL    HW2 8221  11.381   8.895   9.140
 2130SOL     OW 8222   1.158   6.746   7.125
 2130SOL    HW1 8223   1.228   6.810   7.110
 2130SOL    HW2 8224   1.135   6.715   7.038
 2131SOL     OW 8225   3.375   1.757  14.132
 2131SOL    HW1 8226   3.425   1.838  14.121
 2131SOL    HW2 8227   3.355   1.730  14.043
 2132SOL     OW 8228  14.198  13.046   7.958
 2132SOL    HW1 8229  14.120  13.039   8.013
 2132SOL    HW2 8230  14.188  12.979   7.891
 2133SOL     OW 8231   7.988   7.464  13.539
 2133SOL    HW1 8232   7.905   7.418  13.526
 2133SOL    HW2 8233   8.055   7.401  13.510
 2134SOL     OW 8234   0.766   5.961   7.805
 2134SOL    HW1 8235   0.717   6.041   7.785
 2134SOL    HW2 8236   0.779   5.919   7.720
 2135SOL     OW 8237   9.264  10.842   5.682
 2135SOL    HW1 8238   9.241  10.901   5.610
 2135SOL    HW2 8239   9.241  10.755   5.651
 2136SOL     OW 8240   1.505   4.036  14.785
 2136SOL    HW1 8241   1.539   4.013  14.698
 2136SOL    HW2 8242   1.516   3.956  14.837
 2137SOL     OW 8243   7.560  14.170  12.000
 2137SOL    HW1 8244   7.570  14.264  11.989
 2137SOL    HW2 8245   7.471  14.159  12.034
 2138SOL     OW 8246  10.028   2.069   2.174
 2138SOL    HW1 8247  10.099   2.017   2.136
 2138SOL    HW2 8248  10.047   2.070   2.268
 2139SOL     OW 8249   3.024  13.315  13.657
 2139SOL    HW1 8250   3.118  13.297  13.648
 2139SOL    HW2 8251   2.990  13.304  13.568
 2140SOL     OW 8252   1.976   4.703  11.103
 2140SOL    HW1 8253   2.011   4.791  11.121
 2140SOL    HW2 8254   1.905   4.693  11.167
 2141SOL     OW 8255  10.496   8.187  13.102
 2141SOL    HW1 8256  10.464   8.135  13.028
 2141SOL    HW2 8257  10.480   8.278  13.077
 2142SOL     OW 8258  10.440   4.141   5.456
 2142SOL    HW1 8259  10.351   4.113   5.478
 2142SOL    HW2 8260  10.495   4.065   5.479
 2143SOL     OW 8261   1.215  12.937   0.951
 2143SOL    HW1 8262   1.159  12.906   1.022
 2143SOL    HW2 8263   1.155  12.977   0.889
 2144SOL     OW 8264   6.107   1.086   2.645
 2144SOL    HW1 8265   6.013   1.082   2.664
 2144SOL    HW2 8266   6.130   0.997   2.619
 2145SOL     OW 8267   5.580  12.061   4.290
 2145SOL    HW1 8268   5.568  11.967   4.277
 2145SOL    HW2 8269   5.515  12.101   4.233
 2146SOL     OW 8270  14.691   6.253   2.018
 2146SOL    HW1 8271  14.596   6.264   2.020
 2146SOL    HW2 8272  14.716   6.271   1.928
 2147SOL     OW 8273   5.489   8.667   9.708
 2147SOL    HW1 8274   5.485   8.628   9.621
 2147SOL    HW2 8275   5.481   8.761   9.692
 2148SOL     OW 8276   3.879  13.306   8.532
 2148SOL    HW1 8277   3.915  13.344   8.612
 2148SOL    HW2 8278   3.931  13.227   8.517
 2149SOL     OW 8279   7.650   5.852   3.300
 2149SOL    HW1 8280   7.566   5.893   3.282
 2149SOL    HW2 8281   7.709   5.926   3.317
 2150SOL     OW 8282   3.374   3.365   9.635
 2150SOL    HW1 8283   3.355   3.281   9.678
 2150SOL    HW2 8284   3.301   3.378   9.574
 2151SOL     OW 8285   8.356  10.418   6.153
 2151SOL    HW1 8286   8.439  10.397   6.195
 2151SOL    HW2 8287   8.337  10.507   6.181
 2152SOL     OW 8288   3.795   9.137  11.994
 2152SOL    HW1 8289   3.831   9.054  12.026
 2152SOL    HW2 8290   3.702   9.120  11.981
 2153SOL     OW 8291  13.865   2.367   1.620
 2153SOL    HW1 8292  13.823   2.329   1.543
 2153SOL    HW2 8293  13.927   2.301   1.649
 2154SOL     OW 8294  14.453  12.757  10.740
 2154SOL    HW1 8295  14.495  12.694  10.681
 2154SOL    HW2 8296  14.378  12.790  10.690
 2155SOL     OW 8297  14.630   5.476  14.259
 2155SOL    HW1 8298  14.656   5.384  14.266
 2155SOL    HW2 8299  14.711   5.523  14.241
 2156SOL     OW 8300  10.454   1.146   5.098
 2156SOL    HW1 8301  10.536   1.193   5.112
 2156SOL    HW2 8302  10.420   1.131   5.186
 2157SOL     OW 8303   3.798  13.653  12.121
 2157SOL    HW1 8304   3.702  13.655  12.120
 2157SOL    HW2 8305   3.820  13.564  12.093
 2158SOL     OW 8306   3.985   8.772   9.133
 2158SOL    HW1 8307   3.896   8.736   9.123
 2158SOL    HW2 8308   4.003   8.814   9.048
 2159SOL     OW 8309   0.829   3.057   7.672
 2159SOL    HW1 8310   0.844   3.030   7.762
 2159SOL    HW2 8311   0.892   3.128   7.658
 2160SOL     OW 8312   9.086   3.029  12.033
 2160SOL    HW1 8313   9.175   3.028  12.068
 2160SOL    HW2 8314   9.030   3.022  12.110
 2161SOL     OW 8315   5.876  14.292   0.896
 2161SOL    HW1 8316   5.917  14.225   0.951
 2161SOL    HW2 8317   5.942  14.361   0.887
 2162SOL     OW 8318   3.951  13.220  14.311
 2162SOL    HW1 8319   3.882  13.278  14.280
 2162SOL    HW2 8320   3.947  13.145  14.253
 2163SOL     OW 8321   9.175   1.567  12.226
 2163SOL    HW1 8322   9.213   1.650  12.255
 2163SOL    HW2 8323   9.097   1.592  12.176
 2164SOL     OW 8324  12.215   3.706   6.839
 2164SOL    HW1 8325  12.188   3.740   6.924
 2164SOL    HW2 8326  12.222   3.611   6.852
 2165SOL     OW 8327   2.745  13.891   8.346
 2165SOL    HW1 8328   2.698  13.952   8.402
 2165SOL    HW2 8329   2.725  13.804   8.382
 2166SOL     OW 8330  14.820   6.155  12.531
 2166SOL    HW1 8331  14.745   6.154  12.472
 2166SOL    HW2 8332  14.870   6.077  12.508
 2167SOL     OW 8333  10.693   3.315   5.345
 2167SOL    HW1 8334  10.605   3.328   5.383
 2167SOL    HW2 8335  10.705   3.388   5.285
 2168SOL     OW 8336   8.292   5.043   7.928
 2168SOL    HW1 8337   8.360   5.066   7.991
 2168SOL    HW2 8338   8.240   5.122   7.918
 2169SOL     OW 8339   9.169   8.014   9.154
 2169SOL    HW1 8340   9.076   7.998   9.167
 2169SOL    HW2 8341   9.175   8.108   9.135
 2170SOL     OW 8342  12.183   1.345  14.229
 2170SOL    HW1 8343  12.216   1.334  14.318
 2170SOL    HW2 8344  12.221   1.272  14.180
 2171SOL     OW 8345   9.978  11.021   6.238
 2171SOL    HW1 8346  10.038  11.066   6.297
 2171SOL    HW2 8347  10.031  10.952   6.198
 2172SOL     OW 8348   0.706   4.464   4.393
 2172SOL    HW1 8349   0.722   4.451   4.300
 2172SOL    HW2 8350   0.633   4.527   4.397
 2173SOL     OW 8351  12.618  10.955   3.974
 2173SOL    HW1 8352  12.532  10.977   4.009
 2173SOL    HW2 8353  12.601  10.884   3.912
 2174SOL     OW 8354   4.961   5.275  14.824
 2174SOL    HW1 8355   4.890   5.243  14.768
 2174SOL    HW2 8356   4.920   5.341   0.000
 2175SOL     OW 8357   7.599   6.352   0.517
 2175SOL    HW1 8358   7.570   6.394   0.599
 2175SOL    HW2 8359   7.551   6.269   0.515
 2176SOL     OW 8360   5.074   7.677   8.547
 2176SOL    HW1 8361   5.069   7.762   8.503
 2176SOL    HW2 8362   4.990   7.636   8.529
 2177SOL     OW 8363   9.854   8.174  13.072
 2177SOL    HW1 8364   9.925   8.122  13.035
 2177SOL    HW2 8365   9.775   8.121  13.060
 2178SOL     OW 8366   9.259   5.614  13.802
 2178SOL    HW1 8367   9.166   5.597  13.788
 2178SOL    HW2 8368   9.261   5.684  13.868
 2179SOL     OW 8369  11.530   4.836  12.520
 2179SOL    HW1 8370  11.486   4.920  12.528
 2179SOL    HW2 8371  11.484   4.792  12.448
 2180SOL     OW 8372   0.197   3.123  13.058
 2180SOL    HW1 8373   0.289   3.149  13.069
 2180SOL    HW2 8374   0.157   3.197  13.013
 2181SOL     OW 8375  10.975   9.279   1.397
 2181SOL    HW1 8376  11.038   9.210   1.378
 2181SOL    HW2 8377  10.979   9.289   1.492
 2182SOL     OW 8378   0.375   7.037   1.841
 2182SOL    HW1 8379   0.353   6.945   1.823
 2182SOL    HW2 8380   0.470   7.036   1.854
 2183SOL     OW 8381   0.105  10.462   3.011
 2183SOL    HW1 8382   0.025  10.514   3.012
 2183SOL    HW2 8383   0.176  10.527   3.006
 2184SOL     OW 8384   1.586   3.419   7.876
 2184SOL    HW1 8385   1.528   3.483   7.833
 2184SOL    HW2 8386   1.662   3.470   7.904
 2185SOL     OW 8387   8.058   3.838   3.401
 2185SOL    HW1 8388   7.978   3.791   3.379
 2185SOL    HW2 8389   8.030   3.904   3.464
 2186SOL     OW 8390   1.969   1.687   8.366
 2186SOL    HW1 8391   1.887   1.646   8.342
 2186SOL    HW2 8392   2.031   1.615   8.376
 2187SOL     OW 8393   0.860   4.902  13.714
 2187SOL    HW1 8394   0.838   4.811  13.693
 2187SOL    HW2 8395   0.954   4.901  13.729
 2188SOL     OW 8396  13.549   7.572   2.552
 2188SOL    HW1 8397  13.454   7.572   2.539
 2188SOL    HW2 8398  13.563   7.628   2.628
 2189SOL     OW 8399   1.161  10.822   2.215
 2189SOL    HW1 8400   1.224  10.854   2.151
 2189SOL    HW2 8401   1.195  10.737   2.242
 2190SOL     OW 8402   6.495   2.617   5.554
 2190SOL    HW1 8403   6.444   2.666   5.619
 2190SOL    HW2 8404   6.572   2.587   5.603
 2191SOL     OW 8405  13.491  14.815  13.956
 2191SOL    HW1 8406  13.396  14.816  13.969
 2191SOL    HW2 8407  13.511   0.022  13.918
 2192SOL     OW 8408   9.960   0.358   1.430
 2192SOL    HW1 8409   9.998   0.275   1.459
 2192SOL    HW2 8410   9.995   0.372   1.342
 2193SOL     OW 8411   1.658   5.284   5.677
 2193SOL    HW1 8412   1.702   5.214   5.628
 2193SOL    HW2 8413   1.565   5.273   5.657
 2194SOL     OW 8414   2.844  14.467  10.849
 2194SOL    HW1 8415   2.847  14.408  10.925
 2194SOL    HW2 8416   2.899  14.424  10.784
 2195SOL     OW 8417   4.262   7.828   1.291
 2195SOL    HW1 8418   4.326   7.845   1.222
 2195SOL    HW2 8419   4.315   7.807   1.368
 2196SOL     OW 8420   4.724  13.376   4.966
 2196SOL    HW1 8421   4.676  13.430   5.029
 2196SOL    HW2 8422   4.743  13.436   4.894
 2197SOL     OW 8423   8.050   4.162   6.449
 2197SOL    HW1 8424   8.046   4.149   6.544
 2197SOL    HW2 8425   8.064   4.256   6.438
 2198SOL     OW 8426  13.576   1.928   5.357
 2198SOL    HW1 8427  13.491   1.895   5.329
 2198SOL    HW2 8428  13.632   1.916   5.280
 2199SOL     OW 8429   5.972   4.580  10.933
 2199SOL    HW1 8430   5.997   4.499  10.976
 2199SOL    HW2 8431   6.014   4.649  10.984
 2200SOL     OW 8432  13.149   2.590   3.753
 2200SOL    HW1 8433  13.225   2.557   3.705
 2200SOL    HW2 8434  13.176   2.675   3.788
 2201SOL     OW 8435   5.941  12.382   1.153
 2201SOL    HW1 8436   5.955  12.328   1.075
 2201SOL    HW2 8437   5.914  12.320   1.221
 2202SOL     OW 8438   7.964   4.591   1.611
 2202SOL    HW1 8439   7.903   4.552   1.673
 2202SOL    HW2 8440   7.913   4.598   1.529
 2203SOL     OW 8441  14.732   2.014   5.341
 2203SOL    HW1 8442  14.821   1.989   5.317
 2203SOL    HW2 8443  14.740   2.046   5.431
 2204SOL     OW 8444   8.730   5.694  11.379
 2204SOL    HW1 8445   8.813   5.718  11.419
 2204SOL    HW2 8446   8.744   5.706  11.285
 2205SOL     OW 8447   3.244  11.564   7.926
 2205SOL    HW1 8448   3.208  11.566   8.015
 2205SOL    HW2 8449   3.169  11.540   7.871
 2206SOL     OW 8450   4.163  13.886   8.486
 2206SOL    HW1 8451   4.236  13.926   8.534
 2206SOL    HW2 8452   4.175  13.915   8.396
 2207SOL     OW 8453   2.513   5.907   3.579
 2207SOL    HW1 8454   2.596   5.866   3.603
 2207SOL    HW2 8455   2.447   5.845   3.611
 2208SOL     OW 8456  14.455   2.128  13.762
 2208SOL    HW1 8457  14.465   2.047  13.811
 2208SOL    HW2 8458  14.544   2.159  13.746
 2209SOL     OW 8459   6.050  11.895   7.906
 2209SOL    HW1 8460   6.098  11.953   7.965
 2209SOL    HW2 8461   5.958  11.916   7.921
 2210SOL     OW 8462   0.885   4.494   9.318
 2210SOL    HW1 8463   0.950   4.428   9.295
 2210SOL    HW2 8464   0.819   4.488   9.250
 2211SOL     OW 8465   3.723   7.236   7.835
 2211SOL    HW1 8466   3.774   7.214   7.913
 2211SOL    HW2 8467   3.782   7.290   7.783
 2212SOL     OW 8468  14.862   6.686   4.573
 2212SOL    HW1 8469   0.018   6.674   4.485
 2212SOL    HW2 8470  14.769   6.668   4.564
 2213SOL     OW 8471   8.078   5.326   2.797
 2213SOL    HW1 8472   8.099   5.418   2.778
 2213SOL    HW2 8473   8.021   5.299   2.725
 2214SOL     OW 8474  14.762   1.449   0.399
 2214SOL    HW1 8475  14.799   1.519   0.453
 2214SOL    HW2 8476  14.783   1.368   0.447
 2215SOL     OW 8477  11.005   8.631   1.574
 2215SOL    HW1 8478  11.023   8.719   1.609
 2215SOL    HW2 8479  10.954   8.588   1.642
 2216SOL     OW 8480   3.750   8.592   2.470
 2216SOL    HW1 8481   3.743   8.686   2.488
 2216SOL    HW2 8482   3.740   8.551   2.556
 2217SOL     OW 8483   9.242   4.903   0.727
 2217SOL    HW1 8484   9.181   4.977   0.725
 2217SOL    HW2 8485   9.212   4.847   0.655
 2218SOL     OW 8486  13.984   2.654  11.866
 2218SOL    HW1 8487  14.020   2.618  11.947
 2218SOL    HW2 8488  13.912   2.710  11.894
 2219SOL     OW 8489   8.655   1.055   9.903
 2219SOL    HW1 8490   8.631   1.057   9.811
 2219SOL    HW2 8491   8.648   0.963   9.928
 2220SOL     OW 8492  12.210   4.110   7.630
 2220SOL    HW1 8493  12.195   4.065   7.713
 2220SOL    HW2 8494  12.160   4.059   7.565
 2221SOL     OW 8495   8.880   5.045   1.335
 2221SOL    HW1 8496   8.961   5.009   1.372
 2221SOL    HW2 8497   8.831   4.967   1.307
 2222SOL     OW 8498   6.324   4.238   1.415
 2222SOL    HW1 8499   6.240   4.199   1.440
 2222SOL    HW2 8500   6.315   4.330   1.440
 2223SOL     OW 8501   8.997  13.891   1.305
 2223SOL    HW1 8502   8.914  13.876   1.350
 2223SOL    HW2 8503   8.972  13.902   1.213
 2224SOL     OW 8504   5.038   5.156  13.338
 2224SOL    HW1 8505   5.041   5.221  13.268
 2224SOL    HW2 8506   5.123   5.112  13.334
 2225SOL     OW 8507  11.959   3.883   6.382
 2225SOL    HW1 8508  11.971   3.895   6.476
 2225SOL    HW2 8509  11.984   3.792   6.366
 2226SOL     OW 8510   8.735   9.198   6.372
 2226SOL    HW1 8511   8.760   9.194   6.279
 2226SOL    HW2 8512   8.704   9.288   6.384
 2227SOL     OW 8513  14.873   9.828   5.667
 2227SOL    HW1 8514   0.070   9.831   5.609
 2227SOL    HW2 8515  14.840   9.917   5.667
 2228SOL     OW 8516  13.882   2.542   5.351
 2228SOL    HW1 8517  13.958   2.519   5.405
 2228SOL    HW2 8518  13.830   2.599   5.408
 2229SOL     OW 8519   2.389   4.819   3.713
 2229SOL    HW1 8520   2.346   4.875   3.778
 2229SOL    HW2 8521   2.471   4.793   3.755
 2230SOL     OW 8522   2.469  12.812   3.161
 2230SOL    HW1 8523   2.425  12.785   3.241
 2230SOL    HW2 8524   2.554  12.845   3.190
 2231SOL     OW 8525   0.570   1.899  14.191
 2231SOL    HW1 8526   0.524   1.889  14.275
 2231SOL    HW2 8527   0.611   1.985  14.196
 2232SOL     OW 8528   1.229  13.404   9.860
 2232SOL    HW1 8529   1.142  13.364   9.856
 2232SOL    HW2 8530   1.289  13.331   9.875
 2233SOL     OW 8531  11.686   2.119  12.151
 2233SOL    HW1 8532  11.653   2.070  12.075
 2233SOL    HW2 8533  11.651   2.207  12.139
 2234SOL     OW 8534   7.797   0.018   0.812
 2234SOL    HW1 8535   7.776   0.035   0.721
 2234SOL    HW2 8536   7.733   0.069   0.862
 2235SOL     OW 8537   0.113   3.460   6.427
 2235SOL    HW1 8538   0.148   3.372   6.435
 2235SOL    HW2 8539   0.179   3.517   6.467
 2236SOL     OW 8540   3.142   2.348   3.816
 2236SOL    HW1 8541   3.111   2.270   3.770
 2236SOL    HW2 8542   3.078   2.361   3.886
 2237SOL     OW 8543   1.246   0.140   7.433
 2237SOL    HW1 8544   1.310   0.207   7.410
 2237SOL    HW2 8545   1.240   0.084   7.356
 2238SOL     OW 8546   3.229   5.959   2.859
 2238SOL    HW1 8547   3.139   5.990   2.854
 2238SOL    HW2 8548   3.282   6.036   2.838
 2239SOL     OW 8549   3.134   3.000   3.210
 2239SOL    HW1 8550   3.160   3.032   3.296
 2239SOL    HW2 8551   3.051   2.955   3.225
 2240SOL     OW 8552   3.775   6.975  10.109
 2240SOL    HW1 8553   3.790   7.065  10.135
 2240SOL    HW2 8554   3.792   6.924  10.188
 2241SOL     OW 8555   2.236   6.912   3.809
 2241SOL    HW1 8556   2.295   6.979   3.843
 2241SOL    HW2 8557   2.154   6.958   3.792
 2242SOL     OW 8558   4.868  13.530  11.956
 2242SOL    HW1 8559   4.947  13.574  11.988
 2242SOL    HW2 8560   4.899  13.473  11.886
 2243SOL     OW 8561  10.028   4.137   1.467
 2243SOL    HW1 8562   9.961   4.204   1.454
 2243SOL    HW2 8563   9.999   4.063   1.415
 2244SOL     OW 8564   2.215  14.293  13.865
 2244SOL    HW1 8565   2.148  14.247  13.815
 2244SOL    HW2 8566   2.286  14.307  13.802
 2245SOL     OW 8567   4.323   4.324  12.168
 2245SOL    HW1 8568   4.396   4.344  12.226
 2245SOL    HW2 8569   4.351   4.358  12.083
 2246SOL     OW 8570   1.898   3.726   6.876
 2246SOL    HW1 8571   1.967   3.777   6.833
 2246SOL    HW2 8572   1.935   3.639   6.887
 2247SOL     OW 8573  13.380   3.676   2.910
 2247SOL    HW1 8574  13.367   3.646   2.999
 2247SOL    HW2 8575  13.346   3.606   2.855
 2248SOL     OW 8576   9.702   5.904   4.497
 2248SOL    HW1 8577   9.633   5.866   4.443
 2248SOL    HW2 8578   9.680   5.996   4.503
 2249SOL     OW 8579   0.321   9.603  10.854
 2249SOL    HW1 8580   0.245   9.658  10.837
 2249SOL    HW2 8581   0.286   9.514  10.857
 2250SOL     OW 8582  11.518  11.039  14.057
 2250SOL    HW1 8583  11.525  10.943  14.062
 2250SOL    HW2 8584  11.602  11.070  14.091
 2251SOL     OW 8585  13.176   9.210  13.182
 2251SOL    HW1 8586  13.113   9.140  13.197
 2251SOL    HW2 8587  13.261   9.169  13.197
 2252SOL     OW 8588  11.686   0.242   0.322
 2252SOL    HW1 8589  11.668   0.150   0.305
 2252SOL    HW2 8590  11.628   0.265   0.394
 2253SOL     OW 8591   8.711   7.220  12.770
 2253SOL    HW1 8592   8.754   7.197  12.688
 2253SOL    HW2 8593   8.778   7.268  12.819
 2254SOL     OW 8594   5.874   1.778   7.471
 2254SOL    HW1 8595   5.815   1.705   7.488
 2254SOL    HW2 8596   5.821   1.856   7.488
 2255SOL     OW 8597   5.113   3.062  10.159
 2255SOL    HW1 8598   5.135   3.156  10.157
 2255SOL    HW2 8599   5.035   3.057  10.213
 2256SOL     OW 8600  12.881   9.093   7.205
 2256SOL    HW1 8601  12.789   9.088   7.179
 2256SOL    HW2 8602  12.906   9.184   7.186
 2257SOL     OW 8603  10.359   9.109   7.282
 2257SOL    HW1 8604  10.364   9.100   7.187
 2257SOL    HW2 8605  10.425   9.176   7.303
 2258SOL     OW 8606   7.738   8.412   8.665
 2258SOL    HW1 8607   7.718   8.502   8.692
 2258SOL    HW2 8608   7.712   8.359   8.740
 2259SOL     OW 8609  11.116  11.628   7.646
 2259SOL    HW1 8610  11.123  11.709   7.596
 2259SOL    HW2 8611  11.059  11.572   7.594
 2260SOL     OW 8612   1.690   1.667   7.065
 2260SOL    HW1 8613   1.676   1.575   7.087
 2260SOL    HW2 8614   1.643   1.715   7.133
 2261SOL     OW 8615   9.803   5.345   5.971
 2261SOL    HW1 8616   9.827   5.291   5.896
 2261SOL    HW2 8617   9.874   5.409   5.979
 2262SOL     OW 8618   6.083   4.069   7.156
 2262SOL    HW1 8619   6.083   3.973   7.146
 2262SOL    HW2 8620   6.125   4.084   7.241
 2263SOL     OW 8621   2.464   0.454  14.282
 2263SOL    HW1 8622   2.491   0.545  14.299
 2263SOL    HW2 8623   2.452   0.416  14.369
 2264SOL     OW 8624   2.887  13.377  14.577
 2264SOL    HW1 8625   2.890  13.458  14.629
 2264SOL    HW2 8626   2.794  13.357  14.570
 2265SOL     OW 8627   4.664  10.492   0.818
 2265SOL    HW1 8628   4.588  10.443   0.848
 2265SOL    HW2 8629   4.736  10.461   0.873
 2266SOL     OW 8630  11.470  14.526   7.554
 2266SOL    HW1 8631  11.474  14.561   7.644
 2266SOL    HW2 8632  11.453  14.603   7.500
 2267SOL     OW 8633   0.577   4.586   2.621
 2267SOL    HW1 8634   0.526   4.661   2.589
 2267SOL    HW2 8635   0.512   4.518   2.638
 2268SOL     OW 8636   9.537  13.173  10.592
 2268SOL    HW1 8637   9.447  13.185  10.564
 2268SOL    HW2 8638   9.583  13.251  10.560
 2269SOL     OW 8639   2.547  12.866  11.540
 2269SOL    HW1 8640   2.582  12.779  11.558
 2269SOL    HW2 8641   2.459  12.849  11.504
 2270SOL     OW 8642   1.641  13.535   6.329
 2270SOL    HW1 8643   1.621  13.552   6.421
 2270SOL    HW2 8644   1.662  13.441   6.326
 2271SOL     OW 8645  11.321   2.380  12.522
 2271SOL    HW1 8646  11.406   2.411  12.491
 2271SOL    HW2 8647  11.342   2.318  12.591
 2272SOL     OW 8648  10.581   7.589   4.624
 2272SOL    HW1 8649  10.611   7.677   4.606
 2272SOL    HW2 8650  10.585   7.581   4.720
 2273SOL     OW 8651   4.012   3.760   1.689
 2273SOL    HW1 8652   4.057   3.690   1.736
 2273SOL    HW2 8653   3.950   3.795   1.752
 2274SOL     OW 8654  13.496  12.871  12.985
 2274SOL    HW1 8655  13.518  12.875  12.892
 2274SOL    HW2 8656  13.543  12.794  13.018
 2275SOL     OW 8657  10.472   8.517   5.425
 2275SOL    HW1 8658  10.493   8.513   5.332
 2275SOL    HW2 8659  10.489   8.609   5.449
 2276SOL     OW 8660   0.184  13.081  12.199
 2276SOL    HW1 8661   0.102  13.122  12.228
 2276SOL    HW2 8662   0.180  12.992  12.234
 2277SOL     OW 8663   9.888   9.642   9.931
 2277SOL    HW1 8664   9.815   9.684   9.975
 2277SOL    HW2 8665   9.940   9.714   9.895
 2278SOL     OW 8666  14.353  10.693  11.764
 2278SOL    HW1 8667  14.389  10.670  11.679
 2278SOL    HW2 8668  14.296  10.768  11.746
 2279SOL     OW 8669  11.725   9.378   4.437
 2279SOL    HW1 8670  11.718   9.302   4.494
 2279SOL    HW2 8671  11.755   9.449   4.495
 2280SOL     OW 8672  14.206  11.453   2.313
 2280SOL    HW1 8673  14.264  11.457   2.389
 2280SOL    HW2 8674  14.125  11.415   2.346
 2281SOL     OW 8675   8.973   4.747   1.737
 2281SOL    HW1 8676   8.959   4.695   1.816
 2281SOL    HW2 8677   8.950   4.836   1.763
 2282SOL     OW 8678  14.119  11.596   2.597
 2282SOL    HW1 8679  14.054  11.592   2.667
 2282SOL    HW2 8680  14.149  11.687   2.598
 2283SOL     OW 8681  14.729   9.629   3.307
 2283SOL    HW1 8682  14.803   9.615   3.247
 2283SOL    HW2 8683  14.732   9.722   3.328
 2284SOL     OW 8684   3.435   4.843  14.122
 2284SOL    HW1 8685   3.390   4.763  14.092
 2284SOL    HW2 8686   3.383   4.873  14.197
 2285SOL     OW 8687  10.055   6.711   0.418
 2285SOL    HW1 8688   9.963   6.735   0.407
 2285SOL    HW2 8689  10.054   6.615   0.421
 2286SOL     OW 8690   9.065   5.414   7.368
 2286SOL    HW1 8691   9.129   5.343   7.377
 2286SOL    HW2 8692   9.000   5.380   7.307
 2287SOL     OW 8693   2.160  14.865   8.873
 2287SOL    HW1 8694   2.150   0.064   8.929
 2287SOL    HW2 8695   2.139   0.018   8.785
 2288SOL     OW 8696   0.311   1.855   4.953
 2288SOL    HW1 8697   0.398   1.877   4.988
 2288SOL    HW2 8698   0.307   1.759   4.959
 2289SOL     OW 8699   2.963  11.513  11.068
 2289SOL    HW1 8700   2.885  11.566  11.051
 2289SOL    HW2 8701   2.939  11.425  11.041
 2290SOL     OW 8702  11.401  10.886  12.774
 2290SOL    HW1 8703  11.495  10.869  12.780
 2290SOL    HW2 8704  11.395  10.969  12.726
 2291SOL     OW 8705  13.123   9.757   3.290
 2291SOL    HW1 8706  13.087   9.700   3.222
 2291SOL    HW2 8707  13.166   9.698   3.351
 2292SOL     OW 8708  10.447  11.558  13.262
 2292SOL    HW1 8709  10.501  11.637  13.270
 2292SOL    HW2 8710  10.420  11.537  13.351
 2293SOL     OW 8711   8.507   7.396   9.620
 2293SOL    HW1 8712   8.542   7.336   9.686
 2293SOL    HW2 8713   8.469   7.339   9.553
 2294SOL     OW 8714   4.175   7.346   7.700
 2294SOL    HW1 8715   4.154   7.319   7.789
 2294SOL    HW2 8716   4.132   7.282   7.644
 2295SOL     OW 8717   3.098   3.068   5.378
 2295SOL    HW1 8718   3.039   3.028   5.314
 2295SOL    HW2 8719   3.171   3.007   5.384
 2296SOL     OW 8720   2.331   0.913  13.222
 2296SOL    HW1 8721   2.413   0.924  13.175
 2296SOL    HW2 8722   2.355   0.915  13.315
 2297SOL     OW 8723   0.896  12.882   7.288
 2297SOL    HW1 8724   0.889  12.797   7.244
 2297SOL    HW2 8725   0.875  12.864   7.379
 2298SOL     OW 8726   9.476   9.426  10.520
 2298SOL    HW1 8727   9.384   9.453  10.524
 2298SOL    HW2 8728   9.520   9.483  10.584
 2299SOL     OW 8729   7.921   4.766   6.430
 2299SOL    HW1 8730   7.999   4.766   6.485
 2299SOL    HW2 8731   7.881   4.851   6.446
 2300SOL     OW 8732   4.252   8.496  12.564
 2300SOL    HW1 8733   4.336   8.476  12.606
 2300SOL    HW2 8734   4.223   8.577  12.606
 2301SOL     OW 8735  14.566   9.967  12.507
 2301SOL    HW1 8736  14.538  10.010  12.588
 2301SOL    HW2 8737  14.498   9.990  12.443
 2302SOL     OW 8738   1.325   2.677   8.823
 2302SOL    HW1 8739   1.304   2.679   8.729
 2302SOL    HW2 8740   1.401   2.735   8.831
 2303SOL     OW 8741   7.619   4.736  14.150
 2303SOL    HW1 8742   7.609   4.687  14.068
 2303SOL    HW2 8743   7.646   4.670  14.213
 2304SOL     OW 8744   0.166   1.550   0.839
 2304SOL    HW1 8745   0.086   1.583   0.880
 2304SOL    HW2 8746   0.142   1.466   0.802
 2305SOL     OW 8747   9.411   3.470   8.108
 2305SOL    HW1 8748   9.480   3.472   8.175
 2305SOL    HW2 8749   9.458   3.454   8.026
 2306SOL     OW 8750   0.422  13.504   4.916
 2306SOL    HW1 8751   0.467  13.584   4.941
 2306SOL    HW2 8752   0.404  13.459   4.998
 2307SOL     OW 8753   8.013  13.301   9.054
 2307SOL    HW1 8754   7.993  13.317   8.962
 2307SOL    HW2 8755   7.967  13.219   9.074
 2308SOL     OW 8756  13.382   6.465   4.701
 2308SOL    HW1 8757  13.364   6.509   4.618
 2308SOL    HW2 8758  13.464   6.503   4.732
 2309SOL     OW 8759   8.190   7.199  13.172
 2309SOL    HW1 8760   8.233   7.120  13.138
 2309SOL    HW2 8761   8.225   7.270  13.119
 2310SOL     OW 8762   9.951  11.116  12.436
 2310SOL    HW1 8763   9.875  11.154  12.480
 2310SOL    HW2 8764   9.920  11.101  12.346
 2311SOL     OW 8765   3.326   2.391   5.845
 2311SOL    HW1 8766   3.345   2.299   5.859
 2311SOL    HW2 8767   3.411   2.432   5.829
 2312SOL     OW 8768   5.586   1.298  11.593
 2312SOL    HW1 8769   5.557   1.322  11.505
 2312SOL    HW2 8770   5.625   1.211  11.583
 2313SOL     OW 8771   2.836  11.499  10.679
 2313SOL    HW1 8772   2.751  11.497  10.722
 2313SOL    HW2 8773   2.834  11.426  10.617
 2314SOL     OW 8774   6.995   9.812   4.626
 2314SOL    HW1 8775   6.911   9.850   4.601
 2314SOL    HW2 8776   7.031   9.872   4.691
 2315SOL     OW 8777   0.801   7.860   5.211
 2315SOL    HW1 8778   0.730   7.921   5.188
 2315SOL    HW2 8779   0.811   7.869   5.306
 2316SOL     OW 8780   5.693   6.326   0.285
 2316SOL    HW1 8781   5.649   6.254   0.239
 2316SOL    HW2 8782   5.775   6.288   0.317
 2317SOL     OW 8783   3.690  11.782  12.499
 2317SOL    HW1 8784   3.685  11.749  12.409
 2317SOL    HW2 8785   3.608  11.828  12.513
 2318SOL     OW 8786   1.109  13.467  11.877
 2318SOL    HW1 8787   1.093  13.379  11.911
 2318SOL    HW2 8788   1.131  13.519  11.955
 2319SOL     OW 8789  12.427  10.849   3.286
 2319SOL    HW1 8790  12.334  10.855   3.267
 2319SOL    HW2 8791  12.446  10.755   3.288
 2320SOL     OW 8792  14.420   0.313   0.610
 2320SOL    HW1 8793  14.468   0.269   0.680
 2320SOL    HW2 8794  14.328   0.310   0.638
 2321SOL     OW 8795   6.250   2.243   8.124
 2321SOL    HW1 8796   6.185   2.217   8.060
 2321SOL    HW2 8797   6.246   2.175   8.192
 2322SOL     OW 8798  12.555   1.480  10.006
 2322SOL    HW1 8799  12.581   1.569  10.032
 2322SOL    HW2 8800  12.465   1.471  10.038
 2323SOL     OW 8801  14.647  10.877   7.713
 2323SOL    HW1 8802  14.585  10.905   7.779
 2323SOL    HW2 8803  14.601  10.808   7.664
 2324SOL     OW 8804  12.032   9.531   0.226
 2324SOL    HW1 8805  12.063   9.589   0.295
 2324SOL    HW2 8806  12.081   9.559   0.148
 2325SOL     OW 8807  10.768  14.601   3.137
 2325SOL    HW1 8808  10.807  14.519   3.166
 2325SOL    HW2 8809  10.741  14.583   3.047
 2326SOL     OW 8810   8.153   8.579   8.033
 2326SOL    HW1 8811   8.071   8.552   8.075
 2326SOL    HW2 8812   8.138   8.670   8.007
 2327SOL     OW 8813   9.968  10.177  14.154
 2327SOL    HW1 8814  10.032  10.160  14.223
 2327SOL    HW2 8815  10.019  10.173  14.073
 2328SOL     OW 8816  14.113   6.741  10.169
 2328SOL    HW1 8817  14.102   6.651  10.199
 2328SOL    HW2 8818  14.053   6.749  10.095
 2329SOL     OW 8819   7.918   4.311  10.861
 2329SOL    HW1 8820   7.880   4.350  10.782
 2329SOL    HW2 8821   7.965   4.383  10.903
 2330SOL     OW 8822   9.414  12.301   7.814
 2330SOL    HW1 8823   9.405  12.242   7.739
 2330SOL    HW2 8824   9.436  12.243   7.887
 2331SOL     OW 8825  13.036   5.049   6.173
 2331SOL    HW1 8826  13.033   4.968   6.123
 2331SOL    HW2 8827  12.962   5.101   6.139
 2332SOL     OW 8828   3.223   4.890   6.825
 2332SOL    HW1 8829   3.196   4.980   6.843
 2332SOL    HW2 8830   3.157   4.836   6.870
 2333SOL     OW 8831  10.311   5.046   3.323
 2333SOL    HW1 8832  10.399   5.010   3.336
 2333SOL    HW2 8833  10.305   5.062   3.229
 2334SOL     OW 8834   8.326   1.717  12.413
 2334SOL    HW1 8835   8.248   1.681  12.372
 2334SOL    HW2 8836   8.294   1.770  12.486
 2335SOL     OW 8837   6.028  11.798   3.018
 2335SOL    HW1 8838   6.021  11.767   2.927
 2335SOL    HW2 8839   6.123  11.798   3.035
 2336SOL     OW 8840   6.813   5.921   4.020
 2336SOL    HW1 8841   6.880   5.878   3.966
 2336SOL    HW2 8842   6.732   5.909   3.970
 2337SOL     OW 8843  13.545   5.327   2.292
 2337SOL    HW1 8844  13.498   5.282   2.222
 2337SOL    HW2 8845  13.483   5.328   2.365
 2338SOL     OW 8846   7.104   8.048   4.762
 2338SOL    HW1 8847   7.129   7.965   4.801
 2338SOL    HW2 8848   7.182   8.103   4.768
 2339SOL     OW 8849   7.173  12.958  14.825
 2339SOL    HW1 8850   7.119  12.992  14.754
 2339SOL    HW2 8851   7.227  12.890  14.784
 2340SOL     OW 8852  10.885   5.346   8.180
 2340SOL    HW1 8853  10.888   5.355   8.085
 2340SOL    HW2 8854  10.812   5.401   8.208
 2341SOL     OW 8855  10.653   1.155  14.149
 2341SOL    HW1 8856  10.694   1.174  14.065
 2341SOL    HW2 8857  10.592   1.227  14.164
 2342SOL     OW 8858   0.097  11.718   1.089
 2342SOL    HW1 8859   0.031  11.729   1.158
 2342SOL    HW2 8860   0.146  11.800   1.089
 2343SOL     OW 8861   2.530   9.503   9.469
 2343SOL    HW1 8862   2.494   9.554   9.396
 2343SOL    HW2 8863   2.525   9.412   9.440
 2344SOL     OW 8864  12.077   5.435   8.393
 2344SOL    HW1 8865  12.023   5.457   8.318
 2344SOL    HW2 8866  12.140   5.371   8.359
 2345SOL     OW 8867   8.486   6.404  10.704
 2345SOL    HW1 8868   8.519   6.418  10.616
 2345SOL    HW2 8869   8.426   6.329  10.696
 2346SOL     OW 8870   9.770  14.744   6.566
 2346SOL    HW1 8871   9.695  14.701   6.524
 2346SOL    HW2 8872   9.789  14.818   6.508
 2347SOL     OW 8873   0.672   8.578  11.371
 2347SOL    HW1 8874   0.685   8.673  11.369
 2347SOL    HW2 8875   0.750   8.544  11.416
 2348SOL     OW 8876  13.875   5.434  11.647
 2348SOL    HW1 8877  13.811   5.374  11.685
 2348SOL    HW2 8878  13.959   5.406  11.685
 2349SOL     OW 8879   0.288   1.662   2.227
 2349SOL    HW1 8880   0.312   1.618   2.309
 2349SOL    HW2 8881   0.194   1.674   2.233
 2350SOL     OW 8882   8.218  13.623  13.647
 2350SOL    HW1 8883   8.279  13.569  13.698
 2350SOL    HW2 8884   8.133  13.605  13.686
 2351SOL     OW 8885   1.472  12.277   1.911
 2351SOL    HW1 8886   1.455  12.183   1.903
 2351SOL    HW2 8887   1.446  12.313   1.826
 2352SOL     OW 8888   8.829   0.105   0.900
 2352SOL    HW1 8889   8.758   0.053   0.936
 2352SOL    HW2 8890   8.842   0.176   0.962
 2353SOL     OW 8891   1.075   7.512   9.907
 2353SOL    HW1 8892   1.052   7.423   9.880
 2353SOL    HW2 8893   1.132   7.500   9.984
 2354SOL     OW 8894   9.946   8.845  10.974
 2354SOL    HW1 8895   9.972   8.908  10.906
 2354SOL    HW2 8896   9.928   8.764  10.925
 2355SOL     OW 8897   5.985   4.059   4.755
 2355SOL    HW1 8898   5.999   4.128   4.691
 2355SOL    HW2 8899   5.954   3.984   4.704
 2356SOL     OW 8900   3.036  10.191   2.538
 2356SOL    HW1 8901   3.102  10.233   2.484
 2356SOL    HW2 8902   3.072  10.192   2.627
 2357SOL     OW 8903   5.624   5.673   6.843
 2357SOL    HW1 8904   5.617   5.768   6.844
 2357SOL    HW2 8905   5.674   5.653   6.764
 2358SOL     OW 8906   0.125  11.123  12.765
 2358SOL    HW1 8907   0.211  11.082  12.781
 2358SOL    HW2 8908   0.130  11.208  12.807
 2359SOL     OW 8909   3.936   7.111   4.067
 2359SOL    HW1 8910   4.003   7.062   4.116
 2359SOL    HW2 8911   3.880   7.149   4.135
 2360SOL     OW 8912   5.405  11.912  11.291
 2360SOL    HW1 8913   5.382  11.882  11.379
 2360SOL    HW2 8914   5.352  11.991  11.278
 2361SOL     OW 8915   5.904   4.012  11.465
 2361SOL    HW1 8916   5.960   3.966  11.527
 2361SOL    HW2 8917   5.816   4.007  11.502
 2362SOL     OW 8918   7.396   9.858   7.642
 2362SOL    HW1 8919   7.321   9.879   7.586
 2362SOL    HW2 8920   7.448   9.796   7.591
 2363SOL     OW 8921  13.893   9.315  13.051
 2363SOL    HW1 8922  13.844   9.320  13.133
 2363SOL    HW2 8923  13.970   9.263  13.073
 2364SOL     OW 8924  13.326   9.740   7.105
 2364SOL    HW1 8925  13.403   9.714   7.156
 2364SOL    HW2 8926  13.295   9.820   7.148
 2365SOL     OW 8927   1.465   4.128  10.791
 2365SOL    HW1 8928   1.413   4.207  10.803
 2365SOL    HW2 8929   1.554   4.159  10.775
 2366SOL     OW 8930  11.835  11.604   2.702
 2366SOL    HW1 8931  11.920  11.623   2.742
 2366SOL    HW2 8932  11.780  11.678   2.727
 2367SOL     OW 8933  13.963   7.101  11.529
 2367SOL    HW1 8934  13.992   7.030  11.585
 2367SOL    HW2 8935  13.941   7.059  11.446
 2368SOL     OW 8936  10.948   4.519   3.981
 2368SOL    HW1 8937  11.008   4.560   3.918
 2368SOL    HW2 8938  10.921   4.438   3.939
 2369SOL     OW 8939   3.756   4.741   5.965
 2369SOL    HW1 8940   3.777   4.661   6.013
 2369SOL    HW2 8941   3.805   4.734   5.883
 2370SOL     OW 8942   2.162   4.977  13.979
 2370SOL    HW1 8943   2.176   5.069  13.959
 2370SOL    HW2 8944   2.079   4.975  14.027
 2371SOL     OW 8945   5.708   6.019  14.858
 2371SOL    HW1 8946   5.678   6.043  14.770
 2371SOL    HW2 8947   5.803   6.021  14.852
 2372SOL     OW 8948   9.069  13.720   4.085
 2372SOL    HW1 8949   9.020  13.794   4.051
 2372SOL    HW2 8950   9.103  13.675   4.008
 2373SOL     OW 8951   6.810   0.695   1.803
 2373SOL    HW1 8952   6.732   0.751   1.805
 2373SOL    HW2 8953   6.848   0.711   1.716
 2374SOL     OW 8954   2.357  14.581  10.352
 2374SOL    HW1 8955   2.367  14.657  10.295
 2374SOL    HW2 8956   2.428  14.590  10.416
 2375SOL     OW 8957   0.580   8.276   7.817
 2375SOL    HW1 8958   0.526   8.321   7.752
 2375SOL    HW2 8959   0.592   8.188   7.781
 2376SOL     OW 8960   0.425   0.038  13.416
 2376SOL    HW1 8961   0.330   0.043  13.410
 2376SOL    HW2 8962   0.453   0.123  13.450
 2377SOL     OW 8963  10.633   3.647   7.048
 2377SOL    HW1 8964  10.626   3.614   6.958
 2377SOL    HW2 8965  10.545   3.638   7.084
 2378SOL     OW 8966   0.535   0.727   8.316
 2378SOL    HW1 8967   0.554   0.747   8.224
 2378SOL    HW2 8968   0.454   0.774   8.334
 2379SOL     OW 8969   0.886   6.504   5.953
 2379SOL    HW1 8970   0.875   6.411   5.974
 2379SOL    HW2 8971   0.979   6.513   5.934
 2380SOL     OW 8972   7.809   8.531  11.167
 2380SOL    HW1 8973   7.830   8.624  11.177
 2380SOL    HW2 8974   7.826   8.494  11.253
 2381SOL     OW 8975   0.332   6.415  10.852
 2381SOL    HW1 8976   0.296   6.367  10.927
 2381SOL    HW2 8977   0.292   6.374  10.776
 2382SOL     OW 8978   2.189   1.318   4.430
 2382SOL    HW1 8979   2.187   1.332   4.335
 2382SOL    HW2 8980   2.181   1.405   4.467
 2383SOL     OW 8981  13.486  11.012  14.190
 2383SOL    HW1 8982  13.498  10.986  14.098
 2383SOL    HW2 8983  13.401  11.057  14.191
 2384SOL     OW 8984   1.694  13.331   7.800
 2384SOL    HW1 8985   1.689  13.394   7.873
 2384SOL    HW2 8986   1.674  13.384   7.722
 2385SOL     OW 8987  11.266   0.821  10.715
 2385SOL    HW1 8988  11.197   0.855  10.772
 2385SOL    HW2 8989  11.336   0.886  10.721
 2386SOL     OW 8990  10.548   0.276   8.920
 2386SOL    HW1 8991  10.476   0.240   8.971
 2386SOL    HW2 8992  10.625   0.264   8.975
 2387SOL     OW 8993  13.011   9.918   1.337
 2387SOL    HW1 8994  12.927   9.953   1.307
 2387SOL    HW2 8995  13.006   9.926   1.433
 2388SOL     OW 8996   6.435   4.846   7.749
 2388SOL    HW1 8997   6.348   4.808   7.731
 2388SOL    HW2 8998   6.463   4.883   7.665
 2389SOL     OW 8999   1.304   3.645   6.492
 2389SOL    HW1 9000   1.247   3.675   6.421
 2389SOL    HW2 9001   1.244   3.612   6.558
 2390SOL     OW 9002   2.407   7.251   5.146
 2390SOL    HW1 9003   2.498   7.236   5.121
 2390SOL    HW2 9004   2.362   7.267   5.063
 2391SOL     OW 9005   3.766   7.734   0.545
 2391SOL    HW1 9006   3.840   7.672   0.539
 2391SOL    HW2 9007   3.794   7.808   0.492
 2392SOL     OW 9008   4.319   4.171   2.883
 2392SOL    HW1 9009   4.414   4.179   2.870
 2392SOL    HW2 9010   4.284   4.157   2.796
 2393SOL     OW 9011   3.291   3.746  10.654
 2393SOL    HW1 9012   3.200   3.766  10.676
 2393SOL    HW2 9013   3.303   3.784  10.567
 2394SOL     OW 9014   9.295   9.577   2.403
 2394SOL    HW1 9015   9.247   9.519   2.344
 2394SOL    HW2 9016   9.361   9.521   2.443
 2395SOL     OW 9017   7.722   3.344   2.651
 2395SOL    HW1 9018   7.779   3.312   2.721
 2395SOL    HW2 9019   7.742   3.437   2.644
 2396SOL     OW 9020   9.928  12.965   8.298
 2396SOL    HW1 9021   9.995  12.900   8.280
 2396SOL    HW2 9022   9.882  12.977   8.215
 2397SOL     OW 9023   1.353  12.567   6.331
 2397SOL    HW1 9024   1.296  12.563   6.254
 2397SOL    HW2 9025   1.296  12.544   6.404
 2398SOL     OW 9026   9.221  12.730   1.301
 2398SOL    HW1 9027   9.251  12.821   1.302
 2398SOL    HW2 9028   9.285  12.683   1.355
 2399SOL     OW 9029  11.564   3.642  10.263
 2399SOL    HW1 9030  11.561   3.734  10.238
 2399SOL    HW2 9031  11.570   3.595  10.180
 2400SOL     OW 9032   0.022   1.905  13.483
 2400SOL    HW1 9033  14.822   1.945  13.520
 2400SOL    HW2 9034   0.004   1.899  13.389
 2401SOL     OW 9035  13.490   5.011   9.810
 2401SOL    HW1 9036  13.535   5.095   9.821
 2401SOL    HW2 9037  13.560   4.949   9.788
 2402SOL     OW 9038   8.185   8.308   6.416
 2402SOL    HW1 9039   8.152   8.319   6.327
 2402SOL    HW2 9040   8.274   8.273   6.405
 2403SOL     OW 9041  10.428  12.531   4.411
 2403SOL    HW1 9042  10.487  12.544   4.337
 2403SOL    HW2 9043  10.341  12.553   4.376
 2404SOL     OW 9044   4.242   1.106   9.159
 2404SOL    HW1 9045   4.171   1.090   9.098
 2404SOL    HW2 9046   4.290   1.023   9.162
 2405SOL     OW 9047  10.431   3.820   4.241
 2405SOL    HW1 9048  10.460   3.882   4.307
 2405SOL    HW2 9049  10.345   3.791   4.271
 2406SOL     OW 9050  14.138   5.032   6.646
 2406SOL    HW1 9051  14.172   4.944   6.658
 2406SOL    HW2 9052  14.129   5.042   6.551
 2407SOL     OW 9053   6.071   4.413   1.989
 2407SOL    HW1 9054   6.116   4.384   2.069
 2407SOL    HW2 9055   5.992   4.358   1.985
 2408SOL     OW 9056  14.165   1.581   9.759
 2408SOL    HW1 9057  14.091   1.603   9.816
 2408SOL    HW2 9058  14.150   1.490   9.733
 2409SOL     OW 9059   4.442   6.436   0.045
 2409SOL    HW1 9060   4.493   6.486   0.109
 2409SOL    HW2 9061   4.449   6.345   0.073
 2410SOL     OW 9062   2.733   5.244  14.870
 2410SOL    HW1 9063   2.658   5.189   0.014
 2410SOL    HW2 9064   2.710   5.283  14.786
 2411SOL     OW 9065  14.587   1.866   1.859
 2411SOL    HW1 9066  14.646   1.898   1.927
 2411SOL    HW2 9067  14.525   1.937   1.844
 2412SOL     OW 9068   4.766  10.243  10.824
 2412SOL    HW1 9069   4.833  10.309  10.838
 2412SOL    HW2 9070   4.809  10.160  10.845
 2413SOL     OW 9071   2.381   0.974   0.616
 2413SOL    HW1 9072   2.375   1.058   0.663
 2413SOL    HW2 9073   2.290   0.945   0.608
 2414SOL     OW 9074   6.959   7.150   4.084
 2414SOL    HW1 9075   7.027   7.083   4.087
 2414SOL    HW2 9076   6.890   7.118   4.142
 2415SOL     OW 9077   2.925   0.017  14.171
 2415SOL    HW1 9078   2.876  14.844  14.107
 2415SOL    HW2 9079   2.985  14.833  14.212
 2416SOL     OW 9080   8.989   4.211   3.812
 2416SOL    HW1 9081   8.901   4.190   3.781
 2416SOL    HW2 9082   9.000   4.304   3.793
 2417SOL     OW 9083   9.134  10.510   5.238
 2417SOL    HW1 9084   9.047  10.551   5.238
 2417SOL    HW2 9085   9.116  10.417   5.248
 2418SOL     OW 9086   7.383  13.767   2.490
 2418SOL    HW1 9087   7.331  13.775   2.410
 2418SOL    HW2 9088   7.419  13.679   2.487
 2419SOL     OW 9089  11.560   6.298   2.118
 2419SOL    HW1 9090  11.617   6.289   2.041
 2419SOL    HW2 9091  11.490   6.233   2.104
 2420SOL     OW 9092   4.256  13.664   0.764
 2420SOL    HW1 9093   4.314  13.732   0.798
 2420SOL    HW2 9094   4.287  13.583   0.805
 2421SOL     OW 9095  12.660   5.269   2.144
 2421SOL    HW1 9096  12.641   5.359   2.118
 2421SOL    HW2 9097  12.597   5.217   2.095
 2422SOL     OW 9098  14.134  14.664  13.920
 2422SOL    HW1 9099  14.142  14.720  13.997
 2422SOL    HW2 9100  14.060  14.607  13.939
 2423SOL     OW 9101   7.321   1.271   4.584
 2423SOL    HW1 9102   7.332   1.177   4.599
 2423SOL    HW2 9103   7.289   1.277   4.493
 2424SOL     OW 9104   7.259  13.795  14.523
 2424SOL    HW1 9105   7.206  13.718  14.542
 2424SOL    HW2 9106   7.255  13.848  14.603
 2425SOL     OW 9107  13.294  14.548   8.506
 2425SOL    HW1 9108  13.267  14.502   8.585
 2425SOL    HW2 9109  13.298  14.640   8.533
 2426SOL     OW 9110   3.565   9.410   9.920
 2426SOL    HW1 9111   3.576   9.505   9.921
 2426SOL    HW2 9112   3.594   9.383   9.833
 2427SOL     OW 9113   9.173   6.843  12.184
 2427SOL    HW1 9114   9.183   6.805  12.272
 2427SOL    HW2 9115   9.150   6.934  12.200
 2428SOL     OW 9116   8.777  12.194  12.122
 2428SOL    HW1 9117   8.693  12.214  12.080
 2428SOL    HW2 9118   8.772  12.100  12.141
 2429SOL     OW 9119   3.050  10.537   6.765
 2429SOL    HW1 9120   3.096  10.513   6.846
 2429SOL    HW2 9121   3.120  10.560   6.704
 2430SOL     OW 9122  13.839  12.082   8.873
 2430SOL    HW1 9123  13.769  12.020   8.849
 2430SOL    HW2 9124  13.820  12.105   8.964
 2431SOL     OW 9125   8.102   8.633   1.077
 2431SOL    HW1 9126   8.169   8.587   1.126
 2431SOL    HW2 9127   8.099   8.720   1.116
 2432SOL     OW 9128   4.022  11.568   4.552
 2432SOL    HW1 9129   3.979  11.564   4.637
 2432SOL    HW2 9130   4.067  11.652   4.552
 2433SOL     OW 9131  11.243   1.857   3.132
 2433SOL    HW1 9132  11.213   1.895   3.049
 2433SOL    HW2 9133  11.323   1.809   3.109
 2434SOL     OW 9134   6.376   1.968   0.001
 2434SOL    HW1 9135   6.471   1.976   0.010
 2434SOL    HW2 9136   6.343   1.965   0.091
 2435SOL     OW 9137   2.509   9.010   0.806
 2435SOL    HW1 9138   2.565   9.034   0.733
 2435SOL    HW2 9139   2.499   8.915   0.798
 2436SOL     OW 9140   6.267  13.460   1.170
 2436SOL    HW1 9141   6.355  13.443   1.203
 2436SOL    HW2 9142   6.278  13.473   1.076
 2437SOL     OW 9143   7.392   2.374  11.225
 2437SOL    HW1 9144   7.341   2.444  11.266
 2437SOL    HW2 9145   7.430   2.326  11.299
 2438SOL     OW 9146   3.922   2.148   0.586
 2438SOL    HW1 9147   3.962   2.077   0.635
 2438SOL    HW2 9148   3.872   2.198   0.651
 2439SOL     OW 9149   6.817   8.130   3.911
 2439SOL    HW1 9150   6.862   8.190   3.852
 2439SOL    HW2 9151   6.841   8.043   3.879
 2440SOL     OW 9152  12.077   1.262   1.564
 2440SOL    HW1 9153  12.032   1.343   1.542
 2440SOL    HW2 9154  12.042   1.198   1.501
 2441SOL     OW 9155   3.342  13.065   9.732
 2441SOL    HW1 9156   3.332  13.038   9.824
 2441SOL    HW2 9157   3.331  12.984   9.682
 2442SOL     OW 9158   3.958  14.240   4.680
 2442SOL    HW1 9159   3.991  14.323   4.716
 2442SOL    HW2 9160   4.021  14.218   4.611
 2443SOL     OW 9161   6.351  13.733   4.931
 2443SOL    HW1 9162   6.279  13.675   4.955
 2443SOL    HW2 9163   6.318  13.821   4.949
 2444SOL     OW 9164   0.963   3.776  13.240
 2444SOL    HW1 9165   1.020   3.761  13.165
 2444SOL    HW2 9166   0.954   3.871  13.245
 2445SOL     OW 9167   6.676   1.759   2.083
 2445SOL    HW1 9168   6.770   1.776   2.077
 2445SOL    HW2 9169   6.654   1.721   1.998
 2446SOL     OW 9170   5.791  10.000  10.959
 2446SOL    HW1 9171   5.826  10.016  11.046
 2446SOL    HW2 9172   5.704  10.039  10.960
 2447SOL     OW 9173  13.209   0.893  14.634
 2447SOL    HW1 9174  13.178   0.940  14.556
 2447SOL    HW2 9175  13.284   0.842  14.603
 2448SOL     OW 9176   0.672  14.828   5.713
 2448SOL    HW1 9177   0.579  14.846   5.697
 2448SOL    HW2 9178   0.688  14.744   5.670
 2449SOL     OW 9179  14.407  12.273  11.640
 2449SOL    HW1 9180  14.410  12.316  11.726
 2449SOL    HW2 9181  14.470  12.202  11.646
 2450SOL     OW 9182  11.274  13.265   5.277
 2450SOL    HW1 9183  11.301  13.177   5.303
 2450SOL    HW2 9184  11.221  13.297   5.350
 2451SOL     OW 9185  11.049   3.866   7.328
 2451SOL    HW1 9186  11.008   3.950   7.307
 2451SOL    HW2 9187  10.999   3.801   7.279
 2452SOL     OW 9188   8.556   6.108   2.527
 2452SOL    HW1 9189   8.578   6.178   2.589
 2452SOL    HW2 9190   8.542   6.031   2.582
 2453SOL     OW 9191   0.514  13.306  14.151
 2453SOL    HW1 9192   0.539  13.395  14.127
 2453SOL    HW2 9193   0.597  13.261  14.167
 2454SOL     OW 9194   6.252   6.059  10.083
 2454SOL    HW1 9195   6.187   5.988  10.079
 2454SOL    HW2 9196   6.216   6.128  10.028
 2455SOL     OW 9197  13.473   2.959  11.737
 2455SOL    HW1 9198  13.557   2.980  11.695
 2455SOL    HW2 9199  13.452   3.037  11.788
 2456SOL     OW 9200  10.331  14.288   1.897
 2456SOL    HW1 9201  10.237  14.272   1.883
 2456SOL    HW2 9202  10.335  14.327   1.984
 2457SOL     OW 9203  11.926   4.157   2.543
 2457SOL    HW1 9204  11.979   4.113   2.609
 2457SOL    HW2 9205  11.973   4.141   2.461
 2458SOL     OW 9206   3.998  13.753   9.797
 2458SOL    HW1 9207   4.067  13.691   9.821
 2458SOL    HW2 9208   4.026  13.836   9.835
 2459SOL     OW 9209   8.003   7.485   0.948
 2459SOL    HW1 9210   7.973   7.576   0.947
 2459SOL    HW2 9211   7.937   7.439   0.999
 2460SOL     OW 9212   5.202  13.934   1.694
 2460SOL    HW1 9213   5.267  13.864   1.697
 2460SOL    HW2 9214   5.233  13.998   1.759
 2461SOL     OW 9215  11.967  14.693   1.025
 2461SOL    HW1 9216  12.049  14.700   1.074
 2461SOL    HW2 9217  11.982  14.624   0.961
 2462SOL     OW 9218   2.186  13.084  14.366
 2462SOL    HW1 9219   2.149  13.140  14.298
 2462SOL    HW2 9220   2.122  13.013  14.376
 2463SOL     OW 9221  12.788   9.305  11.523
 2463SOL    HW1 9222  12.699   9.327  11.497
 2463SOL    HW2 9223  12.790   9.320  11.617
 2464SOL     OW 9224   4.858  10.936   9.674
 2464SOL    HW1 9225   4.867  10.895   9.588
 2464SOL    HW2 9226   4.946  10.936   9.711
 2465SOL     OW 9227  11.336   3.948   5.035
 2465SOL    HW1 9228  11.304   3.858   5.040
 2465SOL    HW2 9229  11.315   3.986   5.120
 2466SOL     OW 9230   9.096  10.231  14.802
 2466SOL    HW1 9231   9.008  10.234  14.765
 2466SOL    HW2 9232   9.154  10.244  14.727
 2467SOL     OW 9233  13.032  11.369  10.815
 2467SOL    HW1 9234  13.043  11.378  10.720
 2467SOL    HW2 9235  13.103  11.310  10.842
 2468SOL     OW 9236   9.031   8.984   5.841
 2468SOL    HW1 9237   9.095   9.001   5.773
 2468SOL    HW2 9238   9.081   8.987   5.923
 2469SOL     OW 9239   1.496   4.465   6.963
 2469SOL    HW1 9240   1.556   4.481   6.890
 2469SOL    HW2 9241   1.409   4.470   6.923
 2470SOL     OW 9242   0.058   8.448   9.901
 2470SOL    HW1 9243   0.147   8.433   9.931
 2470SOL    HW2 9244   0.003   8.423   9.975
 2471SOL     OW 9245   9.321  11.166   4.747
 2471SOL    HW1 9246   9.248  11.220   4.779
 2471SOL    HW2 9247   9.288  11.076   4.753
 2472SOL     OW 9248   8.061   5.573   6.333
 2472SOL    HW1 9249   8.033   5.490   6.369
 2472SOL    HW2 9250   8.145   5.591   6.377
 2473SOL     OW 9251   2.323   2.732   2.486
 2473SOL    HW1 9252   2.371   2.649   2.483
 2473SOL    HW2 9253   2.371   2.791   2.428
 2474SOL     OW 9254   1.330   2.653   4.421
 2474SOL    HW1 9255   1.401   2.589   4.432
 2474SOL    HW2 9256   1.314   2.687   4.509
 2475SOL     OW 9257  14.742   2.693   7.043
 2475SOL    HW1 9258  14.711   2.645   7.120
 2475SOL    HW2 9259  14.753   2.625   6.976
 2476SOL     OW 9260   6.630  13.230  10.858
 2476SOL    HW1 9261   6.592  13.161  10.912
 2476SOL    HW2 9262   6.568  13.303  10.866
 2477SOL     OW 9263   1.808   1.974   5.578
 2477SOL    HW1 9264   1.716   1.993   5.594
 2477SOL    HW2 9265   1.836   2.039   5.514
 2478SOL     OW 9266   4.556   2.261   2.897
 2478SOL    HW1 9267   4.518   2.210   2.969
 2478SOL    HW2 9268   4.635   2.300   2.935
 2479SOL     OW 9269   6.715  12.058  13.330
 2479SOL    HW1 9270   6.714  12.133  13.270
 2479SOL    HW2 9271   6.803  12.058  13.367
 2480SOL     OW 9272  14.009  14.538  12.132
 2480SOL    HW1 9273  13.995  14.444  12.136
 2480SOL    HW2 9274  14.036  14.555  12.042
 2481SOL     OW 9275   9.063  11.496  11.790
 2481SOL    HW1 9276   9.093  11.549  11.717
 2481SOL    HW2 9277   9.101  11.538  11.868
 2482SOL     OW 9278   6.615   4.846   0.176
 2482SOL    HW1 9279   6.708   4.860   0.156
 2482SOL    HW2 9280   6.569   4.877   0.098
 2483SOL     OW 9281  11.933   2.780   6.502
 2483SOL    HW1 9282  11.896   2.867   6.486
 2483SOL    HW2 9283  12.028   2.794   6.504
 2484SOL     OW 9284   9.523   1.504   2.445
 2484SOL    HW1 9285   9.553   1.574   2.387
 2484SOL    HW2 9286   9.587   1.504   2.516
 2485SOL     OW 9287  13.660  12.264  12.115
 2485SOL    HW1 9288  13.673  12.359  12.121
 2485SOL    HW2 9289  13.707  12.229  12.190
 2486SOL     OW 9290   5.670   0.491  10.891
 2486SOL    HW1 9291   5.612   0.561  10.859
 2486SOL    HW2 9292   5.644   0.414  10.842
 2487SOL     OW 9293  14.529  13.135  11.525
 2487SOL    HW1 9294  14.562  13.168  11.442
 2487SOL    HW2 9295  14.598  13.077  11.558
 2488SOL     OW 9296  14.076  11.603   9.488
 2488SOL    HW1 9297  14.154  11.589   9.435
 2488SOL    HW2 9298  14.104  11.664   9.557
 2489SOL     OW 9299   7.336   2.634   2.122
 2489SOL    HW1 9300   7.398   2.705   2.105
 2489SOL    HW2 9301   7.390   2.562   2.155
 2490SOL     OW 9302  12.614   9.515   0.071
 2490SOL    HW1 9303  12.524   9.543   0.058
 2490SOL    HW2 9304  12.640   9.477  14.866
 2491SOL     OW 9305  14.175   8.382   4.538
 2491SOL    HW1 9306  14.101   8.408   4.592
 2491SOL    HW2 9307  14.165   8.287   4.528
 2492SOL     OW 9308   3.223   0.414  12.442
 2492SOL    HW1 9309   3.290   0.381  12.383
 2492SOL    HW2 9310   3.269   0.431  12.524
 2493SOL     OW 9311  11.510   1.998   6.171
 2493SOL    HW1 9312  11.459   1.985   6.251
 2493SOL    HW2 9313  11.598   1.968   6.193
 2494SOL     OW 9314   3.111   4.227  10.182
 2494SOL    HW1 9315   3.098   4.273  10.264
 2494SOL    HW2 9316   3.205   4.229  10.168
 2495SOL     OW 9317  13.703   9.682   3.244
 2495SOL    HW1 9318  13.618   9.637   3.243
 2495SOL    HW2 9319  13.680   9.775   3.253
 2496SOL     OW 9320   7.031  11.013   2.768
 2496SOL    HW1 9321   7.009  10.971   2.851
 2496SOL    HW2 9322   7.070  11.097   2.792
 2497SOL     OW 9323   3.006   2.083  12.515
 2497SOL    HW1 9324   2.943   2.030  12.466
 2497SOL    HW2 9325   2.954   2.124  12.584
 2498SOL     OW 9326   3.912   3.569   5.282
 2498SOL    HW1 9327   3.885   3.505   5.216
 2498SOL    HW2 9328   3.831   3.590   5.328
 2499SOL     OW 9329   2.021  10.033   6.640
 2499SOL    HW1 9330   1.945   9.979   6.622
 2499SOL    HW2 9331   1.985  10.113   6.678
 2500SOL     OW 9332   3.328   0.052   1.187
 2500SOL    HW1 9333   3.396   0.109   1.150
 2500SOL    HW2 9334   3.376  14.859   1.227
 2501SOL     OW 9335   1.806   8.415   4.083
 2501SOL    HW1 9336   1.798   8.467   4.004
 2501SOL    HW2 9337   1.727   8.436   4.134
 2502SOL     OW 9338   6.876   0.697   3.891
 2502SOL    HW1 9339   6.930   0.773   3.868
 2502SOL    HW2 9340   6.899   0.630   3.826
 2503SOL     OW 9341   3.593   1.396   1.830
 2503SOL    HW1 9342   3.506   1.429   1.809
 2503SOL    HW2 9343   3.588   1.374   1.923
 2504SOL     OW 9344   6.465  13.167   7.501
 2504SOL    HW1 9345   6.530  13.128   7.442
 2504SOL    HW2 9346   6.503  13.250   7.528
 2505SOL     OW 9347   0.569  12.423   2.105
 2505SOL    HW1 9348   0.515  12.439   2.028
 2505SOL    HW2 9349   0.517  12.364   2.160
 2506SOL     OW 9350  11.129  12.888   1.863
 2506SOL    HW1 9351  11.093  12.811   1.908
 2506SOL    HW2 9352  11.082  12.891   1.780
 2507SOL     OW 9353  12.564  13.340   9.901
 2507SOL    HW1 9354  12.611  13.422   9.886
 2507SOL    HW2 9355  12.596  13.281   9.833
 2508SOL     OW 9356   4.141   4.649   1.774
 2508SOL    HW1 9357   4.189   4.601   1.707
 2508SOL    HW2 9358   4.205   4.664   1.844
 2509SOL     OW 9359   2.056   5.003   1.538
 2509SOL    HW1 9360   2.092   4.929   1.586
 2509SOL    HW2 9361   2.019   5.060   1.605
 2510SOL     OW 9362  11.808   3.958  13.938
 2510SOL    HW1 9363  11.745   4.024  13.969
 2510SOL    HW2 9364  11.834   3.989  13.851
 2511SOL     OW 9365   7.584  12.134  12.576
 2511SOL    HW1 9366   7.600  12.040  12.576
 2511SOL    HW2 9367   7.489  12.142  12.590
 2512SOL     OW 9368   2.730   4.336   4.933
 2512SOL    HW1 9369   2.721   4.242   4.942
 2512SOL    HW2 9370   2.782   4.348   4.854
 2513SOL     OW 9371   7.551   7.017   0.456
 2513SOL    HW1 9372   7.572   7.046   0.545
 2513SOL    HW2 9373   7.614   6.947   0.437
 2514SOL     OW 9374  11.533   9.329  10.108
 2514SOL    HW1 9375  11.593   9.285  10.168
 2514SOL    HW2 9376  11.468   9.371  10.164
 2515SOL     OW 9377   2.654   9.373  13.736
 2515SOL    HW1 9378   2.700   9.354  13.654
 2515SOL    HW2 9379   2.561   9.367  13.713
 2516SOL     OW 9380   4.833   3.153  11.496
 2516SOL    HW1 9381   4.779   3.080  11.527
 2516SOL    HW2 9382   4.903   3.111  11.445
 2517SOL     OW 9383   3.989  13.523   5.438
 2517SOL    HW1 9384   4.041  13.591   5.480
 2517SOL    HW2 9385   4.039  13.442   5.453
 2518SOL     OW 9386  12.986   8.650   9.270
 2518SOL    HW1 9387  13.027   8.699   9.199
 2518SOL    HW2 9388  13.008   8.559   9.252
 2519SOL     OW 9389   2.674   3.708   3.259
 2519SOL    HW1 9390   2.670   3.716   3.354
 2519SOL    HW2 9391   2.747   3.764   3.233
 2520SOL     OW 9392  13.590   6.214   1.749
 2520SOL    HW1 9393  13.610   6.252   1.834
 2520SOL    HW2 9394  13.556   6.287   1.697
 2521SOL     OW 9395  11.265   7.076   5.253
 2521SOL    HW1 9396  11.301   7.117   5.174
 2521SOL    HW2 9397  11.173   7.061   5.233
 2522SOL     OW 9398   9.630   2.169   7.317
 2522SOL    HW1 9399   9.566   2.198   7.383
 2522SOL    HW2 9400   9.715   2.185   7.358
 2523SOL     OW 9401   3.794   3.595   4.756
 2523SOL    HW1 9402   3.809   3.562   4.668
 2523SOL    HW2 9403   3.882   3.603   4.794
 2524SOL     OW 9404  11.514   7.300   1.558
 2524SOL    HW1 9405  11.461   7.378   1.544
 2524SOL    HW2 9406  11.460   7.244   1.614
 2525SOL     OW 9407   7.984   5.447   1.514
 2525SOL    HW1 9408   7.904   5.466   1.563
 2525SOL    HW2 9409   7.963   5.470   1.424
 2526SOL     OW 9410  13.026   9.698  11.566
 2526SOL    HW1 9411  13.087   9.689  11.493
 2526SOL    HW2 9412  13.033   9.615  11.613
 2527SOL     OW 9413   6.959  13.288   7.638
 2527SOL    HW1 9414   6.880  13.310   7.589
 2527SOL    HW2 9415   6.998  13.372   7.661
 2528SOL     OW 9416  11.425   9.094   8.343
 2528SOL    HW1 9417  11.496   9.149   8.309
 2528SOL    HW2 9418  11.349   9.152   8.341
 2529SOL     OW 9419   3.522  13.019  10.716
 2529SOL    HW1 9420   3.475  12.944  10.752
 2529SOL    HW2 9421   3.599  13.029  10.773
 2530SOL     OW 9422  14.302   4.629   9.248
 2530SOL    HW1 9423  14.315   4.568   9.320
 2530SOL    HW2 9424  14.211   4.656   9.255
 2531SOL     OW 9425   6.310  11.941   3.489
 2531SOL    HW1 9426   6.316  12.001   3.564
 2531SOL    HW2 9427   6.392  11.953   3.442
 2532SOL     OW 9428   0.210  10.658   1.336
 2532SOL    HW1 9429   0.174  10.665   1.248
 2532SOL    HW2 9430   0.231  10.566   1.347
 2533SOL     OW 9431  13.234   9.498   1.360
 2533SOL    HW1 9432  13.285   9.495   1.441
 2533SOL    HW2 9433  13.144   9.518   1.389
 2534SOL     OW 9434   1.654  10.973   7.545
 2534SOL    HW1 9435   1.695  10.949   7.462
 2534SOL    HW2 9436   1.701  10.922   7.611
 2535SOL     OW 9437   9.421   7.992   9.280
 2535SOL    HW1 9438   9.327   7.985   9.261
 2535SOL    HW2 9439   9.459   8.028   9.200
 2536SOL     OW 9440   3.059   9.222  12.309
 2536SOL    HW1 9441   3.136   9.202  12.363
 2536SOL    HW2 9442   3.015   9.138  12.299
 2537SOL     OW 9443   3.219   0.860   3.542
 2537SOL    HW1 9444   3.204   0.934   3.483
 2537SOL    HW2 9445   3.307   0.875   3.577
 2538SOL     OW 9446   2.125   2.790  12.484
 2538SOL    HW1 9447   2.064   2.736  12.533
 2538SOL    HW2 9448   2.206   2.788  12.535
 2539SOL     OW 9449   7.308   7.461  14.541
 2539SOL    HW1 9450   7.343   7.386  14.494
 2539SOL    HW2 9451   7.269   7.425  14.620
 2540SOL     OW 9452   5.522  12.078  10.712
 2540SOL    HW1 9453   5.495  11.995  10.750
 2540SOL    HW2 9454   5.597  12.106  10.764
 2541SOL     OW 9455  14.546  11.078   8.987
 2541SOL    HW1 9456  14.483  11.109   9.052
 2541SOL    HW2 9457  14.493  11.045   8.915
 2542SOL     OW 9458   7.122   4.027   1.360
 2542SOL    HW1 9459   7.051   4.086   1.332
 2542SOL    HW2 9460   7.153   3.987   1.279
 2543SOL     OW 9461   2.464   7.450   1.107
 2543SOL    HW1 9462   2.482   7.477   1.197
 2543SOL    HW2 9463   2.515   7.510   1.053
 2544SOL     OW 9464   0.348   2.273   7.069
 2544SOL    HW1 9465   0.257   2.272   7.097
 2544SOL    HW2 9466   0.344   2.268   6.974
 2545SOL     OW 9467   0.543   0.723   6.008
 2545SOL    HW1 9468   0.604   0.794   5.989
 2545SOL    HW2 9469   0.508   0.744   6.095
 2546SOL     OW 9470   9.540  13.748   1.338
 2546SOL    HW1 9471   9.614  13.727   1.281
 2546SOL    HW2 9472   9.467  13.696   1.305
 2547SOL     OW 9473   7.551   4.874  10.103
 2547SOL    HW1 9474   7.526   4.957  10.144
 2547SOL    HW2 9475   7.626   4.843  10.154
 2548SOL     OW 9476   9.528  10.899  14.297
 2548SOL    HW1 9477   9.487  10.974  14.340
 2548SOL    HW2 9478   9.548  10.838  14.367
 2549SOL     OW 9479   1.229   4.025   3.703
 2549SOL    HW1 9480   1.256   3.934   3.718
 2549SOL    HW2 9481   1.143   4.017   3.661
 2550SOL     OW 9482   1.031   3.193   1.225
 2550SOL    HW1 9483   1.071   3.225   1.306
 2550SOL    HW2 9484   0.978   3.267   1.194
 2551SOL     OW 9485   8.013   6.982   8.426
 2551SOL    HW1 9486   8.063   7.048   8.378
 2551SOL    HW2 9487   7.961   7.033   8.489
 2552SOL     OW 9488   9.342   3.546  10.211
 2552SOL    HW1 9489   9.284   3.472  10.228
 2552SOL    HW2 9490   9.293   3.603  10.153
 2553SOL     OW 9491  11.473  14.253   6.322
 2553SOL    HW1 9492  11.452  14.272   6.414
 2553SOL    HW2 9493  11.430  14.322   6.273
 2554SOL     OW 9494  14.018  12.509   8.590
 2554SOL    HW1 9495  14.106  12.479   8.610
 2554SOL    HW2 9496  13.970  12.429   8.566
 2555SOL     OW 9497  13.101   1.769  13.657
 2555SOL    HW1 9498  13.061   1.848  13.620
 2555SOL    HW2 9499  13.150   1.731  13.584
 2556SOL     OW 9500   4.617  10.488  12.955
 2556SOL    HW1 9501   4.671  10.432  13.011
 2556SOL    HW2 9502   4.648  10.576  12.972
 2557SOL     OW 9503  13.268   7.926   8.251
 2557SOL    HW1 9504  13.240   7.853   8.195
 2557SOL    HW2 9505  13.189   7.952   8.298
 2558SOL     OW 9506   7.075  10.196   0.144
 2558SOL    HW1 9507   7.135  10.268   0.164
 2558SOL    HW2 9508   7.124  10.117   0.165
 2559SOL     OW 9509  10.708   0.037  11.343
 2559SOL    HW1 9510  10.678   0.116  11.387
 2559SOL    HW2 9511  10.638   0.015  11.282
 2560SOL     OW 9512   6.579   0.808   2.931
 2560SOL    HW1 9513   6.620   0.884   2.972
 2560SOL    HW2 9514   6.652   0.749   2.910
 2561SOL     OW 9515   8.947   1.132   3.126
 2561SOL    HW1 9516   8.950   1.227   3.138
 2561SOL    HW2 9517   8.886   1.101   3.193
 2562SOL     OW 9518   8.160   8.606  13.167
 2562SOL    HW1 9519   8.139   8.670  13.099
 2562SOL    HW2 9520   8.237   8.560  13.133
 2563SOL     OW 9521   0.354   5.047   0.571
 2563SOL    HW1 9522   0.292   5.033   0.499
 2563SOL    HW2 9523   0.347   5.140   0.591
 2564SOL     OW 9524   2.162   3.707   5.546
 2564SOL    HW1 9525   2.228   3.758   5.499
 2564SOL    HW2 9526   2.081   3.755   5.533
 2565SOL     OW 9527   9.811  13.295   6.161
 2565SOL    HW1 9528   9.903  13.320   6.163
 2565SOL    HW2 9529   9.803  13.226   6.227
 2566SOL     OW 9530  13.196   3.740   6.699
 2566SOL    HW1 9531  13.287   3.727   6.725
 2566SOL    HW2 9532  13.200   3.813   6.637
 2567SOL     OW 9533   3.349  11.123  13.938
 2567SOL    HW1 9534   3.279  11.166  13.987
 2567SOL    HW2 9535   3.417  11.190  13.931
 2568SOL     OW 9536   6.298   4.016  10.770
 2568SOL    HW1 9537   6.250   4.099  10.772
 2568SOL    HW2 9538   6.331   4.009  10.680
 2569SOL     OW 9539   8.735  12.437   9.186
 2569SOL    HW1 9540   8.665  12.440   9.120
 2569SOL    HW2 9541   8.689  12.436   9.270
 2570SOL     OW 9542  10.916  13.677   2.090
 2570SOL    HW1 9543  10.959  13.749   2.044
 2570SOL    HW2 9544  10.835  13.661   2.041
 2571SOL     OW 9545  14.836  12.254   0.504
 2571SOL    HW1 9546  14.860  12.221   0.591
 2571SOL    HW2 9547  14.816  12.175   0.453
 2572SOL     OW 9548   5.718   1.301  14.161
 2572SOL    HW1 9549   5.738   1.391  14.186
 2572SOL    HW2 9550   5.787   1.279  14.098
 2573SOL     OW 9551   0.825  10.015  13.966
 2573SOL    HW1 9552   0.909  10.055  13.989
 2573SOL    HW2 9553   0.849   9.930  13.928
 2574SOL     OW 9554   8.043   8.768   0.565
 2574SOL    HW1 9555   8.098   8.737   0.637
 2574SOL    HW2 9556   8.031   8.861   0.582
 2575SOL     OW 9557   8.654   9.296  14.369
 2575SOL    HW1 9558   8.682   9.337  14.287
 2575SOL    HW2 9559   8.571   9.253  14.347
 2576SOL     OW 9560   6.808  11.571   1.458
 2576SOL    HW1 9561   6.835  11.532   1.375
 2576SOL    HW2 9562   6.728  11.524   1.481
 2577SOL     OW 9563   9.029   1.457   5.857
 2577SOL    HW1 9564   9.119   1.425   5.867
 2577SOL    HW2 9565   9.037   1.537   5.805
 2578SOL     OW 9566   8.127   4.248   3.924
 2578SOL    HW1 9567   8.176   4.209   3.996
 2578SOL    HW2 9568   8.045   4.199   3.921
 2579SOL     OW 9569   9.928  13.390  11.744
 2579SOL    HW1 9570   9.859  13.324  11.752
 2579SOL    HW2 9571   9.901  13.445  11.671
 2580SOL     OW 9572   1.180  11.150   1.877
 2580SOL    HW1 9573   1.249  11.086   1.898
 2580SOL    HW2 9574   1.227  11.231   1.862
 2581SOL     OW 9575   2.909   7.447   3.929
 2581SOL    HW1 9576   2.857   7.393   3.870
 2581SOL    HW2 9577   2.891   7.537   3.902
 2582SOL     OW 9578   1.901   3.663  14.055
 2582SOL    HW1 9579   1.896   3.754  14.084
 2582SOL    HW2 9580   1.991   3.637  14.072
 2583SOL     OW 9581   0.360  11.924   4.991
 2583SOL    HW1 9582   0.430  11.884   5.042
 2583SOL    HW2 9583   0.281  11.910   5.044
 2584SOL     OW 9584   2.397   1.759  12.848
 2584SOL    HW1 9585   2.364   1.711  12.773
 2584SOL    HW2 9586   2.342   1.837  12.853
 2585SOL     OW 9587   4.396   6.135   3.203
 2585SOL    HW1 9588   4.336   6.197   3.245
 2585SOL    HW2 9589   4.339   6.075   3.156
 2586SOL     OW 9590   3.748   5.266   7.352
 2586SOL    HW1 9591   3.660   5.229   7.355
 2586SOL    HW2 9592   3.803   5.195   7.317
 2587SOL     OW 9593  10.080   5.771   5.666
 2587SOL    HW1 9594  10.095   5.695   5.722
 2587SOL    HW2 9595  10.040   5.734   5.587
 2588SOL     OW 9596   0.130  13.253   1.396
 2588SOL    HW1 9597   0.192  13.291   1.458
 2588SOL    HW2 9598   0.044  13.279   1.428
 2589SOL     OW 9599   7.185   5.553  11.809
 2589SOL    HW1 9600   7.191   5.546  11.904
 2589SOL    HW2 9601   7.095   5.581  11.793
 2590SOL     OW 9602   5.585   1.873   0.026
 2590SOL    HW1 9603   5.563   1.790   0.069
 2590SOL    HW2 9604   5.673   1.893   0.057
 2591SOL     OW 9605  12.553   4.071   3.979
 2591SOL    HW1 9606  12.601   4.105   3.904
 2591SOL    HW2 9607  12.472   4.121   3.982
 2592SOL     OW 9608  12.254  14.252   7.944
 2592SOL    HW1 9609  12.288  14.175   7.990
 2592SOL    HW2 9610  12.210  14.217   7.867
 2593SOL     OW 9611   2.132   5.256   0.866
 2593SOL    HW1 9612   2.038   5.252   0.883
 2593SOL    HW2 9613   2.140   5.296   0.780
 2594SOL     OW 9614   4.461   4.725  11.361
 2594SOL    HW1 9615   4.468   4.818  11.381
 2594SOL    HW2 9616   4.525   4.683  11.419
 2595SOL     OW 9617  13.800   9.110  11.956
 2595SOL    HW1 9618  13.850   9.177  11.910
 2595SOL    HW2 9619  13.862   9.037  11.966
 2596SOL     OW 9620  10.199   3.675  14.166
 2596SOL    HW1 9621  10.240   3.589  14.150
 2596SOL    HW2 9622  10.220   3.725  14.087
 2597SOL     OW 9623   9.766  13.344   8.983
 2597SOL    HW1 9624   9.786  13.425   8.936
 2597SOL    HW2 9625   9.770  13.275   8.916
 2598SOL     OW 9626   1.080  14.369   9.411
 2598SOL    HW1 9627   1.059  14.439   9.473
 2598SOL    HW2 9628   1.127  14.304   9.463
 2599SOL     OW 9629   2.668   4.673   9.425
 2599SOL    HW1 9630   2.641   4.609   9.360
 2599SOL    HW2 9631   2.633   4.756   9.393
 2600SOL     OW 9632  13.076   9.968  10.844
 2600SOL    HW1 9633  13.056   9.875  10.837
 2600SOL    HW2 9634  13.172   9.973  10.837
 2601SOL     OW 9635   2.323   6.419   9.818
 2601SOL    HW1 9636   2.349   6.341   9.769
 2601SOL    HW2 9637   2.243   6.449   9.773
 2602SOL     OW 9638  12.075   5.855   6.218
 2602SOL    HW1 9639  11.993   5.881   6.176
 2602SOL    HW2 9640  12.134   5.835   6.146
 2603SOL     OW 9641   2.541   6.501   6.080
 2603SOL    HW1 9642   2.471   6.464   6.026
 2603SOL    HW2 9643   2.612   6.437   6.076
 2604SOL     OW 9644  14.753   6.942  13.108
 2604SOL    HW1 9645  14.815   6.880  13.146
 2604SOL    HW2 9646  14.806   7.019  13.086
 2605SOL     OW 9647   8.263  11.775  10.486
 2605SOL    HW1 9648   8.192  11.722  10.523
 2605SOL    HW2 9649   8.274  11.740  10.397
 2606SOL     OW 9650   1.220   2.483  11.657
 2606SOL    HW1 9651   1.214   2.577  11.673
 2606SOL    HW2 9652   1.302   2.472  11.608
 2607SOL     OW 9653   8.911  13.189   5.871
 2607SOL    HW1 9654   8.989  13.234   5.839
 2607SOL    HW2 9655   8.839  13.250   5.855
 2608SOL     OW 9656   7.018   0.190   2.907
 2608SOL    HW1 9657   7.097   0.245   2.905
 2608SOL    HW2 9658   6.955   0.240   2.959
 2609SOL     OW 9659  12.150   2.068  12.073
 2609SOL    HW1 9660  12.101   1.999  12.118
 2609SOL    HW2 9661  12.092   2.143  12.072
 2610SOL     OW 9662  12.454   6.945   4.220
 2610SOL    HW1 9663  12.414   6.891   4.289
 2610SOL    HW2 9664  12.380   6.991   4.180
 2611SOL     OW 9665  10.425   7.190   7.146
 2611SOL    HW1 9666  10.394   7.228   7.229
 2611SOL    HW2 9667  10.512   7.230   7.134
 2612SOL     OW 9668   0.379   0.017  11.539
 2612SOL    HW1 9669   0.370  14.800  11.540
 2612SOL    HW2 9670   0.299   0.048  11.496
 2613SOL     OW 9671   0.700  14.312  10.499
 2613SOL    HW1 9672   0.660  14.324  10.413
 2613SOL    HW2 9673   0.656  14.235  10.536
 2614SOL     OW 9674   7.929   7.757  14.074
 2614SOL    HW1 9675   7.900   7.831  14.021
 2614SOL    HW2 9676   7.848   7.713  14.100
 2615SOL     OW 9677   4.781  13.255   7.763
 2615SOL    HW1 9678   4.723  13.332   7.764
 2615SOL    HW2 9679   4.865  13.289   7.733
 2616SOL     OW 9680   9.123   6.351  13.182
 2616SOL    HW1 9681   9.164   6.304  13.109
 2616SOL    HW2 9682   9.193   6.361  13.247
 2617SOL     OW 9683   1.548  13.516   6.027
 2617SOL    HW1 9684   1.517  13.542   6.114
 2617SOL    HW2 9685   1.641  13.540   6.027
 2618SOL     OW 9686  12.810  13.061   9.421
 2618SOL    HW1 9687  12.872  12.990   9.402
 2618SOL    HW2 9688  12.828  13.126   9.353
 2619SOL     OW 9689   3.179   1.050   3.377
 2619SOL    HW1 9690   3.196   1.140   3.351
 2619SOL    HW2 9691   3.104   1.023   3.324
 2620SOL     OW 9692  13.838  14.007   4.012
 2620SOL    HW1 9693  13.891  14.007   4.092
 2620SOL    HW2 9694  13.889  13.955   3.950
 2621SOL     OW 9695   0.518   1.838   8.703
 2621SOL    HW1 9696   0.426   1.860   8.695
 2621SOL    HW2 9697   0.559   1.876   8.626
 2622SOL     OW 9698   4.261   5.217   3.602
 2622SOL    HW1 9699   4.303   5.131   3.602
 2622SOL    HW2 9700   4.168   5.198   3.613
 2623SOL     OW 9701   1.169   9.558   4.696
 2623SOL    HW1 9702   1.225   9.481   4.704
 2623SOL    HW2 9703   1.124   9.547   4.612
 2624SOL     OW 9704   0.504   8.284   1.456
 2624SOL    HW1 9705   0.424   8.317   1.415
 2624SOL    HW2 9706   0.477   8.206   1.504
 2625SOL     OW 9707  14.677   0.459   2.076
 2625SOL    HW1 9708  14.660   0.550   2.050
 2625SOL    HW2 9709  14.772   0.453   2.081
 2626SOL     OW 9710   8.884  10.080   8.272
 2626SOL    HW1 9711   8.912  10.168   8.250
 2626SOL    HW2 9712   8.916  10.026   8.199
 2627SOL     OW 9713   5.357   8.582  13.930
 2627SOL    HW1 9714   5.414   8.583  13.853
 2627SOL    HW2 9715   5.403   8.635  13.994
 2628SOL     OW 9716  12.544   4.434   1.597
 2628SOL    HW1 9717  12.482   4.470   1.534
 2628SOL    HW2 9718  12.630   4.444   1.556
 2629SOL     OW 9719   0.866   6.411  14.411
 2629SOL    HW1 9720   0.859   6.404  14.316
 2629SOL    HW2 9721   0.776   6.398  14.442
 2630SOL     OW 9722  11.072  10.739  10.154
 2630SOL    HW1 9723  11.100  10.812  10.210
 2630SOL    HW2 9724  10.981  10.760  10.131
 2631SOL     OW 9725  11.629  11.960   8.331
 2631SOL    HW1 9726  11.539  11.929   8.315
 2631SOL    HW2 9727  11.683  11.882   8.322
 2632SOL     OW 9728   9.721  14.091   5.398
 2632SOL    HW1 9729   9.749  14.152   5.330
 2632SOL    HW2 9730   9.791  14.094   5.463
 2633SOL     OW 9731   9.128   4.895   2.738
 2633SOL    HW1 9732   9.092   4.911   2.825
 2633SOL    HW2 9733   9.131   4.981   2.696
 2634SOL     OW 9734   2.900  10.905  11.789
 2634SOL    HW1 9735   2.929  10.819  11.759
 2634SOL    HW2 9736   2.866  10.948  11.710
 2635SOL     OW 9737   1.455   6.475  11.966
 2635SOL    HW1 9738   1.385   6.426  11.923
 2635SOL    HW2 9739   1.420   6.496  12.053
 2636SOL     OW 9740   1.943   2.502   1.668
 2636SOL    HW1 9741   1.983   2.575   1.620
 2636SOL    HW2 9742   2.007   2.479   1.735
 2637SOL     OW 9743  13.008   9.390   4.673
 2637SOL    HW1 9744  13.038   9.309   4.632
 2637SOL    HW2 9745  12.917   9.398   4.646
 2638SOL     OW 9746   3.889   8.995   7.842
 2638SOL    HW1 9747   3.839   9.070   7.810
 2638SOL    HW2 9748   3.922   9.023   7.927
 2639SOL     OW 9749  10.914   4.697   7.924
 2639SOL    HW1 9750  11.001   4.665   7.899
 2639SOL    HW2 9751  10.931   4.782   7.965
 2640SOL     OW 9752   3.861   5.732   3.395
 2640SOL    HW1 9753   3.895   5.741   3.484
 2640SOL    HW2 9754   3.878   5.817   3.354
 2641SOL     OW 9755  12.468  11.987  14.296
 2641SOL    HW1 9756  12.509  12.032  14.370
 2641SOL    HW2 9757  12.527  11.914  14.277
 2642SOL     OW 9758   1.371   0.479   7.155
 2642SOL    HW1 9759   1.442   0.523   7.202
 2642SOL    HW2 9760   1.415   0.417   7.097
 2643SOL     OW 9761   7.065  10.054  13.153
 2643SOL    HW1 9762   7.139  10.113  13.164
 2643SOL    HW2 9763   7.063  10.002  13.233
 2644SOL     OW 9764   7.863   3.821   8.849
 2644SOL    HW1 9765   7.925   3.887   8.818
 2644SOL    HW2 9766   7.895   3.797   8.936
 2645SOL     OW 9767  11.505   5.336   3.430
 2645SOL    HW1 9768  11.569   5.287   3.377
 2645SOL    HW2 9769  11.459   5.269   3.480
 2646SOL     OW 9770  11.839  11.710   7.873
 2646SOL    HW1 9771  11.917  11.703   7.817
 2646SOL    HW2 9772  11.777  11.759   7.820
 2647SOL     OW 9773  10.851  10.235  14.578
 2647SOL    HW1 9774  10.939  10.202  14.564
 2647SOL    HW2 9775  10.829  10.281  14.498
 2648SOL     OW 9776  12.960   7.251   8.920
 2648SOL    HW1 9777  13.017   7.224   8.848
 2648SOL    HW2 9778  12.872   7.228   8.891
 2649SOL     OW 9779   4.581  10.744   9.467
 2649SOL    HW1 9780   4.650  10.689   9.503
 2649SOL    HW2 9781   4.538  10.689   9.401
 2650SOL     OW 9782   2.351   0.062   0.583
 2650SOL    HW1 9783   2.378   0.153   0.595
 2650SOL    HW2 9784   2.317   0.060   0.493
 2651SOL     OW 9785   5.917   4.253   6.293
 2651SOL    HW1 9786   5.822   4.257   6.296
 2651SOL    HW2 9787   5.938   4.162   6.315
 2652SOL     OW 9788  14.073   7.075   7.055
 2652SOL    HW1 9789  14.067   6.982   7.035
 2652SOL    HW2 9790  14.165   7.090   7.076
 2653SOL     OW 9791  10.351  12.916   1.356
 2653SOL    HW1 9792  10.385  12.962   1.279
 2653SOL    HW2 9793  10.291  12.978   1.396
 2654SOL     OW 9794  14.237   7.078   3.418
 2654SOL    HW1 9795  14.172   7.148   3.420
 2654SOL    HW2 9796  14.189   7.001   3.450
 2655SOL     OW 9797   1.842   1.080  14.835
 2655SOL    HW1 9798   1.772   1.014  14.843
 2655SOL    HW2 9799   1.848   1.118   0.044
 2656SOL     OW 9800   9.806  12.065  10.435
 2656SOL    HW1 9801   9.722  12.089  10.473
 2656SOL    HW2 9802   9.871  12.105  10.493
 2657SOL     OW 9803   8.361  12.421   8.405
 2657SOL    HW1 9804   8.424  12.490   8.423
 2657SOL    HW2 9805   8.379  12.353   8.470
 2658SOL     OW 9806  10.523   0.650  10.617
 2658SOL    HW1 9807  10.604   0.668  10.570
 2658SOL    HW2 9808  10.550   0.621  10.704
 2659SOL     OW 9809   6.451   7.802  11.226
 2659SOL    HW1 9810   6.427   7.710  11.214
 2659SOL    HW2 9811   6.473   7.832  11.138
 2660SOL     OW 9812  11.807  14.052   7.378
 2660SOL    HW1 9813  11.876  14.082   7.319
 2660SOL    HW2 9814  11.746  14.004   7.321
 2661SOL     OW 9815  11.349  12.101  14.365
 2661SOL    HW1 9816  11.383  12.081  14.452
 2661SOL    HW2 9817  11.405  12.170  14.331
 2662SOL     OW 9818   6.246  11.354  11.423
 2662SOL    HW1 9819   6.228  11.448  11.411
 2662SOL    HW2 9820   6.259  11.344  11.517
 2663SOL     OW 9821   6.472   5.232  11.346
 2663SOL    HW1 9822   6.422   5.152  11.328
 2663SOL    HW2 9823   6.512   5.216  11.432
 2664SOL     OW 9824   9.477   8.969   1.816
 2664SOL    HW1 9825   9.520   8.884   1.816
 2664SOL    HW2 9826   9.425   8.969   1.896
 2665SOL     OW 9827   6.548  10.562   8.478
 2665SOL    HW1 9828   6.585  10.475   8.491
 2665SOL    HW2 9829   6.454  10.547   8.470
 2666SOL     OW 9830   7.290   0.151   1.901
 2666SOL    HW1 9831   7.295   0.234   1.948
 2666SOL    HW2 9832   7.276   0.085   1.969
 2667SOL     OW 9833  10.187  10.547  10.871
 2667SOL    HW1 9834  10.210  10.517  10.783
 2667SOL    HW2 9835  10.202  10.471  10.927
 2668SOL     OW 9836  11.632   1.399   6.157
 2668SOL    HW1 9837  11.709   1.451   6.136
 2668SOL    HW2 9838  11.639   1.321   6.102
 2669SOL     OW 9839  12.015   3.624   5.634
 2669SOL    HW1 9840  12.028   3.719   5.636
 2669SOL    HW2 9841  12.062   3.594   5.557
 2670SOL     OW 9842   0.016   5.831   1.750
 2670SOL    HW1 9843  14.856   5.753   1.710
 2670SOL    HW2 9844   0.017   5.896   1.679
 2671SOL     OW 9845  12.439   7.172   8.282
 2671SOL    HW1 9846  12.436   7.249   8.339
 2671SOL    HW2 9847  12.489   7.201   8.206
 2672SOL     OW 9848   5.430   1.664  12.801
 2672SOL    HW1 9849   5.347   1.628  12.835
 2672SOL    HW2 9850   5.405   1.747  12.760
 2673SOL     OW 9851   0.364   4.843   8.449
 2673SOL    HW1 9852   0.351   4.916   8.389
 2673SOL    HW2 9853   0.309   4.865   8.525
 2674SOL     OW 9854   3.962   7.709  12.801
 2674SOL    HW1 9855   3.887   7.760  12.770
 2674SOL    HW2 9856   3.949   7.622  12.762
 2675SOL     OW 9857  13.216   5.804   1.109
 2675SOL    HW1 9858  13.265   5.743   1.164
 2675SOL    HW2 9859  13.135   5.758   1.089
 2676SOL     OW 9860   4.849  14.682   7.986
 2676SOL    HW1 9861   4.793  14.644   8.054
 2676SOL    HW2 9862   4.859  14.773   8.012
 2677SOL     OW 9863   2.820   8.804   3.709
 2677SOL    HW1 9864   2.891   8.820   3.646
 2677SOL    HW2 9865   2.842   8.860   3.783
 2678SOL     OW 9866  14.417   4.836  12.173
 2678SOL    HW1 9867  14.383   4.888  12.100
 2678SOL    HW2 9868  14.512   4.842  12.165
 2679SOL     OW 9869  13.833  10.475  12.177
 2679SOL    HW1 9870  13.748  10.475  12.133
 2679SOL    HW2 9871  13.860  10.566  12.178
 2680SOL     OW 9872   7.572   4.313   0.675
 2680SOL    HW1 9873   7.500   4.362   0.636
 2680SOL    HW2 9874   7.529   4.256   0.740
 2681SOL     OW 9875   9.798   8.527   5.290
 2681SOL    HW1 9876   9.777   8.609   5.246
 2681SOL    HW2 9877   9.863   8.551   5.356
 2682SOL     OW 9878   4.005   1.348  10.572
 2682SOL    HW1 9879   3.983   1.440  10.583
 2682SOL    HW2 9880   4.099   1.347  10.554
 2683SOL     OW 9881   5.315  13.573   7.422
 2683SOL    HW1 9882   5.373  13.618   7.360
 2683SOL    HW2 9883   5.369  13.503   7.459
 2684SOL     OW 9884   1.442   8.741   0.417
 2684SOL    HW1 9885   1.485   8.779   0.494
 2684SOL    HW2 9886   1.349   8.745   0.437
 2685SOL     OW 9887  12.373   6.125   2.768
 2685SOL    HW1 9888  12.423   6.046   2.746
 2685SOL    HW2 9889  12.433   6.177   2.823
 2686SOL     OW 9890   7.358   7.904   2.330
 2686SOL    HW1 9891   7.357   7.876   2.238
 2686SOL    HW2 9892   7.385   7.996   2.326
 2687SOL     OW 9893   7.397  10.208   1.295
 2687SOL    HW1 9894   7.390  10.260   1.375
 2687SOL    HW2 9895   7.311  10.213   1.255
 2688SOL     OW 9896   3.872  14.548   2.284
 2688SOL    HW1 9897   3.956  14.552   2.329
 2688SOL    HW2 9898   3.891  14.580   2.196
 2689SOL     OW 9899   6.451  13.614   8.773
 2689SOL    HW1 9900   6.516  13.617   8.703
 2689SOL    HW2 9901   6.501  13.598   8.853
 2690SOL     OW 9902   1.396   2.646   3.480
 2690SOL    HW1 9903   1.353   2.561   3.467
 2690SOL    HW2 9904   1.486   2.623   3.501
 2691SOL     OW 9905   9.316   1.373   5.857
 2691SOL    HW1 9906   9.362   1.312   5.916
 2691SOL    HW2 9907   9.380   1.442   5.840
 2692SOL     OW 9908  12.804   7.352   4.463
 2692SOL    HW1 9909  12.896   7.324   4.465
 2692SOL    HW2 9910  12.754   7.270   4.467
 2693SOL     OW 9911  11.895   7.971   6.792
 2693SOL    HW1 9912  11.813   7.942   6.751
 2693SOL    HW2 9913  11.867   8.029   6.863
 2694SOL     OW 9914  14.717   1.110  10.927
 2694SOL    HW1 9915  14.751   1.023  10.906
 2694SOL    HW2 9916  14.705   1.153  10.842
 2695SOL     OW 9917   4.698   0.701   3.985
 2695SOL    HW1 9918   4.660   0.655   3.911
 2695SOL    HW2 9919   4.675   0.648   4.061
 2696SOL     OW 9920   4.159   4.479   5.466
 2696SOL    HW1 9921   4.097   4.548   5.488
 2696SOL    HW2 9922   4.112   4.423   5.404
 2697SOL     OW 9923   4.578   7.030   2.389
 2697SOL    HW1 9924   4.495   7.075   2.371
 2697SOL    HW2 9925   4.645   7.097   2.379
 2698SOL     OW 9926   3.722  14.142   6.277
 2698SOL    HW1 9927   3.694  14.211   6.336
 2698SOL    HW2 9928   3.643  14.088   6.264
 2699SOL     OW 9929   2.509  10.189  13.086
 2699SOL    HW1 9930   2.504  10.114  13.027
 2699SOL    HW2 9931   2.602  10.203  13.101
 2700SOL     OW 9932   0.400   1.276  12.220
 2700SOL    HW1 9933   0.476   1.241  12.266
 2700SOL    HW2 9934   0.426   1.364  12.193
 2701SOL     OW 9935   2.341   0.521   5.042
 2701SOL    HW1 9936   2.322   0.434   5.079
 2701SOL    HW2 9937   2.304   0.582   5.106
 2702SOL     OW 9938   0.026  12.040   9.803
 2702SOL    HW1 9939  14.821  11.998   9.822
 2702SOL    HW2 9940   0.007  12.101   9.731
 2703SOL     OW 9941   6.281  12.968   6.781
 2703SOL    HW1 9942   6.342  13.041   6.790
 2703SOL    HW2 9943   6.301  12.930   6.696
 2704SOL     OW 9944   0.389   5.391   5.833
 2704SOL    HW1 9945   0.359   5.463   5.890
 2704SOL    HW2 9946   0.322   5.384   5.766
 2705SOL     OW 9947   0.673  10.081   9.236
 2705SOL    HW1 9948   0.608  10.140   9.197
 2705SOL    HW2 9949   0.724  10.136   9.295
 2706SOL     OW 9950   0.272   2.154   0.905
 2706SOL    HW1 9951   0.229   2.091   0.963
 2706SOL    HW2 9952   0.317   2.214   0.965
 2707SOL     OW 9953  10.049  12.382   0.020
 2707SOL    HW1 9954  10.008  12.303   0.053
 2707SOL    HW2 9955   9.983  12.423  14.844
 2708SOL     OW 9956   8.982  14.215  11.088
 2708SOL    HW1 9957   8.942  14.177  11.166
 2708SOL    HW2 9958   9.076  14.217  11.108
 2709SOL     OW 9959   8.454   0.528   3.947
 2709SOL    HW1 9960   8.389   0.461   3.968
 2709SOL    HW2 9961   8.513   0.529   4.023
 2710SOL     OW 9962   5.320   0.290   0.054
 2710SOL    HW1 9963   5.390   0.323  14.876
 2710SOL    HW2 9964   5.254   0.360   0.055
 2711SOL     OW 9965   5.327   3.118   4.292
 2711SOL    HW1 9966   5.411   3.116   4.246
 2711SOL    HW2 9967   5.274   3.050   4.250
 2712SOL     OW 9968   5.321  13.077   0.013
 2712SOL    HW1 9969   5.269  13.146  14.851
 2712SOL    HW2 9970   5.376  13.043  14.822
 2713SOL     OW 9971   5.794   4.539  12.052
 2713SOL    HW1 9972   5.816   4.573  12.138
 2713SOL    HW2 9973   5.878   4.530  12.007
 2714SOL     OW 9974  14.818   9.382   4.028
 2714SOL    HW1 9975  14.750   9.330   3.983
 2714SOL    HW2 9976  14.776   9.466   4.044
 2715SOL     OW 9977   3.410   3.532  11.417
 2715SOL    HW1 9978   3.394   3.459  11.477
 2715SOL    HW2 9979   3.323   3.559  11.388
 2716SOL     OW 9980   8.184   2.737  12.998
 2716SOL    HW1 9981   8.176   2.650  12.959
 2716SOL    HW2 9982   8.120   2.737  13.069
 2717SOL     OW 9983   9.054  11.687  11.268
 2717SOL    HW1 9984   8.999  11.736  11.329
 2717SOL    HW2 9985   9.010  11.602  11.261
 2718SOL     OW 9986   2.836   9.590   4.788
 2718SOL    HW1 9987   2.884   9.511   4.813
 2718SOL    HW2 9988   2.890   9.662   4.821
 2719SOL     OW 9989  10.608  11.979  10.962
 2719SOL    HW1 9990  10.699  12.000  10.983
 2719SOL    HW2 9991  10.603  11.986  10.866
 2720SOL     OW 9992   6.313   9.190   0.633
 2720SOL    HW1 9993   6.230   9.236   0.642
 2720SOL    HW2 9994   6.377   9.259   0.612
 2721SOL     OW 9995   0.990  11.109   4.508
 2721SOL    HW1 9996   1.017  11.018   4.520
 2721SOL    HW2 9997   0.897  11.104   4.487
 2722SOL     OW 9998   8.843   5.543   5.453
 2722SOL    HW1 9999   8.834   5.532   5.548
 2722SOL    HW210000   8.775   5.487   5.416
 2723SOL     OW10001   3.603   5.229   3.186
 2723SOL    HW110002   3.628   5.143   3.153
 2723SOL    HW210003   3.664   5.289   3.144
 2724SOL     OW10004   2.705  10.812   7.001
 2724SOL    HW110005   2.734  10.760   7.075
 2724SOL    HW210006   2.677  10.895   7.039
 2725SOL     OW10007   8.711   3.736  11.521
 2725SOL    HW110008   8.752   3.696  11.444
 2725SOL    HW210009   8.641   3.791  11.485
 2726SOL     OW10010   5.943   0.090  12.147
 2726SOL    HW110011   6.032   0.058  12.132
 2726SOL    HW210012   5.899   0.080  12.063
 2727SOL     OW10013  13.342  13.570   5.894
 2727SOL    HW110014  13.250  13.547   5.905
 2727SOL    HW210015  13.367  13.533   5.810
 2728SOL     OW10016   7.484  12.157   7.692
 2728SOL    HW110017   7.444  12.214   7.759
 2728SOL    HW210018   7.440  12.073   7.702
 2729SOL     OW10019   0.100  12.077  13.867
 2729SOL    HW110020   0.094  12.083  13.772
 2729SOL    HW210021   0.192  12.054  13.883
 2730SOL     OW10022  12.602   8.504  11.305
 2730SOL    HW110023  12.519   8.474  11.342
 2730SOL    HW210024  12.588   8.597  11.288
 2731SOL     OW10025   0.528  11.215   8.941
 2731SOL    HW110026   0.499  11.294   8.895
 2731SOL    HW210027   0.622  11.211   8.923
 2732SOL     OW10028   1.154   8.769   0.511
 2732SOL    HW110029   1.158   8.864   0.504
 2732SOL    HW210030   1.125   8.753   0.601
 2733SOL     OW10031   5.415  11.548  14.182
 2733SOL    HW110032   5.321  11.543  14.200
 2733SOL    HW210033   5.431  11.478  14.119
 2734SOL     OW10034   7.076   3.127   4.552
 2734SOL    HW110035   7.046   3.121   4.462
 2734SOL    HW210036   7.168   3.152   4.546
 2735SOL     OW10037   2.918   4.573   1.171
 2735SOL    HW110038   2.871   4.570   1.088
 2735SOL    HW210039   3.010   4.580   1.147
 2736SOL     OW10040   6.108   8.206   0.555
 2736SOL    HW110041   6.157   8.153   0.618
 2736SOL    HW210042   6.155   8.195   0.472
 2737SOL     OW10043   0.663   8.502   1.620
 2737SOL    HW110044   0.758   8.513   1.611
 2737SOL    HW210045   0.638   8.447   1.546
 2738SOL     OW10046   7.137   3.405  12.655
 2738SOL    HW110047   7.158   3.498  12.647
 2738SOL    HW210048   7.053   3.404  12.700
 2739SOL     OW10049   2.684   9.489   6.926
 2739SOL    HW110050   2.755   9.501   6.862
 2739SOL    HW210051   2.614   9.447   6.875
 2740SOL     OW10052  12.213   1.762  13.965
 2740SOL    HW110053  12.252   1.823  14.028
 2740SOL    HW210054  12.249   1.677  13.990
 2741SOL     OW10055   8.207  12.057   0.707
 2741SOL    HW110056   8.222  11.965   0.728
 2741SOL    HW210057   8.176  12.056   0.616
 2742SOL     OW10058   3.353   1.896   4.594
 2742SOL    HW110059   3.322   1.928   4.678
 2742SOL    HW210060   3.345   1.801   4.599
 2743SOL     OW10061   0.708  14.705  13.676
 2743SOL    HW110062   0.750  14.749  13.601
 2743SOL    HW210063   0.751  14.742  13.753
 2744SOL     OW10064  13.017   4.201  14.625
 2744SOL    HW110065  13.030   4.194  14.719
 2744SOL    HW210066  13.105   4.194  14.587
 2745SOL     OW10067   1.440   9.620   4.694
 2745SOL    HW110068   1.490   9.680   4.749
 2745SOL    HW210069   1.354   9.661   4.685
 2746SOL     OW10070   4.752  13.696  13.893
 2746SOL    HW110071   4.757  13.639  13.817
 2746SOL    HW210072   4.809  13.654  13.958
 2747SOL     OW10073   2.148   6.273   1.336
 2747SOL    HW110074   2.182   6.247   1.422
 2747SOL    HW210075   2.058   6.299   1.353
 2748SOL     OW10076   4.466   6.604   8.357
 2748SOL    HW110077   4.540   6.658   8.330
 2748SOL    HW210078   4.494   6.564   8.439
 2749SOL     OW10079  14.199   0.568   9.790
 2749SOL    HW110080  14.143   0.605   9.858
 2749SOL    HW210081  14.226   0.483   9.826
 2750SOL     OW10082  13.471  11.919   1.543
 2750SOL    HW110083  13.515  11.988   1.493
 2750SOL    HW210084  13.417  11.873   1.479
 2751SOL     OW10085   4.504   7.707   0.622
 2751SOL    HW110086   4.444   7.689   0.695
 2751SOL    HW210087   4.588   7.728   0.665
 2752SOL     OW10088   4.592   4.753  14.715
 2752SOL    HW110089   4.681   4.742  14.749
 2752SOL    HW210090   4.595   4.836  14.667
 2753SOL     OW10091   6.971  12.722   4.085
 2753SOL    HW110092   6.944  12.779   4.158
 2753SOL    HW210093   7.066  12.716   4.093
 2754SOL     OW10094   4.325   0.894   1.176
 2754SOL    HW110095   4.246   0.849   1.205
 2754SOL    HW210096   4.304   0.987   1.185
 2755SOL     OW10097   9.745  11.636  12.454
 2755SOL    HW110098   9.671  11.695  12.447
 2755SOL    HW210099   9.745  11.607  12.545
 2756SOL     OW10100  13.296  14.164  10.872
 2756SOL    HW110101  13.269  14.094  10.931
 2756SOL    HW210102  13.391  14.166  10.878
 2757SOL     OW10103   3.239   4.320  11.201
 2757SOL    HW110104   3.206   4.375  11.272
 2757SOL    HW210105   3.317   4.366  11.169
 2758SOL     OW10106  11.302  12.407   3.521
 2758SOL    HW110107  11.238  12.379   3.455
 2758SOL    HW210108  11.325  12.496   3.496
 2759SOL     OW10109   1.327   9.630  13.555
 2759SOL    HW110110   1.323   9.686  13.477
 2759SOL    HW210111   1.243   9.583  13.554
 2760SOL     OW10112  12.070   0.789   3.379
 2760SOL    HW110113  12.135   0.720   3.391
 2760SOL    HW210114  11.988   0.742   3.361
 2761SOL     OW10115   5.500   7.967   7.585
 2761SOL    HW110116   5.432   8.033   7.571
 2761SOL    HW210117   5.580   8.017   7.599
 2762SOL     OW10118   9.329   0.370  12.018
 2762SOL    HW110119   9.332   0.431  11.944
 2762SOL    HW210120   9.420   0.341  12.028
 2763SOL     OW10121   3.465   4.248   8.981
 2763SOL    HW110122   3.400   4.189   8.944
 2763SOL    HW210123   3.494   4.204   9.061
 2764SOL     OW10124  12.687   8.531  10.973
 2764SOL    HW110125  12.665   8.624  10.985
 2764SOL    HW210126  12.782   8.528  10.987
 2765SOL     OW10127   9.913   5.549  13.746
 2765SOL    HW110128   9.836   5.493  13.751
 2765SOL    HW210129   9.962   5.531  13.826
 2766SOL     OW10130  13.295   2.243  14.450
 2766SOL    HW110131  13.236   2.308  14.413
 2766SOL    HW210132  13.248   2.210  14.527
 2767SOL     OW10133   4.777   6.491   9.635
 2767SOL    HW110134   4.798   6.421   9.697
 2767SOL    HW210135   4.758   6.446   9.553
 2768SOL     OW10136   2.985   4.071   2.811
 2768SOL    HW110137   2.943   4.046   2.729
 2768SOL    HW210138   2.984   4.167   2.809
 2769SOL     OW10139   2.267   8.619   8.762
 2769SOL    HW110140   2.336   8.563   8.724
 2769SOL    HW210141   2.204   8.557   8.798
 2770SOL     OW10142   5.100   5.550  14.714
 2770SOL    HW110143   5.058   5.476  14.671
 2770SOL    HW210144   5.082   5.624  14.655
 2771SOL     OW10145   2.656  10.637   2.354
 2771SOL    HW110146   2.649  10.662   2.446
 2771SOL    HW210147   2.657  10.542   2.355
 2772SOL     OW10148  11.163  11.466   4.372
 2772SOL    HW110149  11.082  11.493   4.329
 2772SOL    HW210150  11.150  11.492   4.464
 2773SOL     OW10151   6.802   3.748   8.517
 2773SOL    HW110152   6.712   3.724   8.535
 2773SOL    HW210153   6.822   3.818   8.579
 2774SOL     OW10154   4.016   4.563  10.244
 2774SOL    HW110155   3.981   4.633  10.299
 2774SOL    HW210156   3.954   4.491  10.255
 2775SOL     OW10157   9.864   4.884   6.970
 2775SOL    HW110158   9.825   4.971   6.963
 2775SOL    HW210159   9.789   4.825   6.983
 2776SOL     OW10160  14.366   9.212   8.800
 2776SOL    HW110161  14.412   9.158   8.735
 2776SOL    HW210162  14.311   9.270   8.748
 2777SOL     OW10163   8.838   7.242  12.493
 2777SOL    HW110164   8.825   7.333  12.469
 2777SOL    HW210165   8.766   7.195  12.450
 2778SOL     OW10166  11.549   2.573   5.848
 2778SOL    HW110167  11.495   2.495   5.840
 2778SOL    HW210168  11.539   2.600   5.939
 2779SOL     OW10169  10.168   2.729   4.996
 2779SOL    HW110170  10.164   2.636   5.020
 2779SOL    HW210171  10.261   2.745   4.977
 2780SOL     OW10172   7.688  13.962  12.155
 2780SOL    HW110173   7.604  13.988  12.193
 2780SOL    HW210174   7.678  13.979  12.061
 2781SOL     OW10175   0.201   2.587   2.880
 2781SOL    HW110176   0.259   2.663   2.886
 2781SOL    HW210177   0.137   2.611   2.813
 2782SOL     OW10178   3.978  12.852  10.825
 2782SOL    HW110179   3.989  12.930  10.772
 2782SOL    HW210180   4.053  12.852  10.884
 2783SOL     OW10181  13.896  14.479   0.762
 2783SOL    HW110182  13.904  14.435   0.846
 2783SOL    HW210183  13.813  14.527   0.767
 2784SOL     OW10184   0.787   1.058  13.760
 2784SOL    HW110185   0.738   1.044  13.679
 2784SOL    HW210186   0.879   1.052  13.734
 2785SOL     OW10187   6.010   7.511   0.504
 2785SOL    HW110188   5.999   7.558   0.587
 2785SOL    HW210189   5.920   7.489   0.477
 2786SOL     OW10190   5.206   8.248   7.487
 2786SOL    HW110191   5.294   8.284   7.477
 2786SOL    HW210192   5.196   8.234   7.581
 2787SOL     OW10193   2.546   3.216   2.010
 2787SOL    HW110194   2.553   3.251   1.921
 2787SOL    HW210195   2.588   3.130   2.006
 2788SOL     OW10196   2.276   9.086   0.664
 2788SOL    HW110197   2.309   9.046   0.583
 2788SOL    HW210198   2.342   9.066   0.730
 2789SOL     OW10199   7.420   4.257   9.282
 2789SOL    HW110200   7.501   4.247   9.332
 2789SOL    HW210201   7.403   4.351   9.281
 2790SOL     OW10202   4.854   3.790  13.006
 2790SOL    HW110203   4.806   3.713  12.975
 2790SOL    HW210204   4.787   3.849  13.038
 2791SOL     OW10205   5.648   3.224   5.417
 2791SOL    HW110206   5.634   3.318   5.428
 2791SOL    HW210207   5.633   3.207   5.324
 2792SOL     OW10208  11.665  12.356   1.721
 2792SOL    HW110209  11.657  12.299   1.798
 2792SOL    HW210210  11.710  12.434   1.754
 2793SOL     OW10211  10.019   0.499   6.845
 2793SOL    HW110212  10.114   0.514   6.839
 2793SOL    HW210213  10.012   0.417   6.893
 2794SOL     OW10214  14.586  13.574  13.520
 2794SOL    HW110215  14.580  13.518  13.597
 2794SOL    HW210216  14.624  13.656  13.552
 2795SOL     OW10217   1.064  10.948  11.457
 2795SOL    HW110218   1.085  10.891  11.384
 2795SOL    HW210219   1.142  10.948  11.512
 2796SOL     OW10220   9.816  10.021   0.236
 2796SOL    HW110221   9.838   9.953   0.173
 2796SOL    HW210222   9.766   9.977   0.304
 2797SOL     OW10223   0.259   5.673   3.275
 2797SOL    HW110224   0.267   5.719   3.191
 2797SOL    HW210225   0.338   5.618   3.279
 2798SOL     OW10226   1.204  12.304  10.408
 2798SOL    HW110227   1.113  12.287  10.384
 2798SOL    HW210228   1.253  12.230  10.373
 2799SOL     OW10229  11.911  11.429   3.297
 2799SOL    HW110230  12.004  11.453   3.295
 2799SOL    HW210231  11.865  11.511   3.282
 2800SOL     OW10232   9.014   0.371   8.151
 2800SOL    HW110233   8.984   0.280   8.155
 2800SOL    HW210234   9.107   0.364   8.127
 2801SOL     OW10235   7.796  12.977   3.520
 2801SOL    HW110236   7.736  12.966   3.446
 2801SOL    HW210237   7.843  13.058   3.500
 2802SOL     OW10238   6.629  13.087   8.647
 2802SOL    HW110239   6.666  12.998   8.644
 2802SOL    HW210240   6.575  13.087   8.726
 2803SOL     OW10241  11.517   6.749   9.387
 2803SOL    HW110242  11.459   6.816   9.422
 2803SOL    HW210243  11.562   6.713   9.464
 2804SOL     OW10244   1.401  13.360   2.378
 2804SOL    HW110245   1.373  13.275   2.415
 2804SOL    HW210246   1.344  13.424   2.421
 2805SOL     OW10247   6.586   9.396  12.924
 2805SOL    HW110248   6.552   9.316  12.884
 2805SOL    HW210249   6.508   9.445  12.950
 2806SOL     OW10250   2.777   6.977  14.662
 2806SOL    HW110251   2.741   7.060  14.631
 2806SOL    HW210252   2.765   6.980  14.757
 2807SOL     OW10253   3.666  10.532   2.851
 2807SOL    HW110254   3.708  10.473   2.789
 2807SOL    HW210255   3.629  10.602   2.796
 2808SOL     OW10256   3.049  14.768   9.684
 2808SOL    HW110257   3.054  14.700   9.751
 2808SOL    HW210258   3.103  14.736   9.612
 2809SOL     OW10259  13.927   6.823   2.522
 2809SOL    HW110260  13.856   6.767   2.554
 2809SOL    HW210261  14.005   6.791   2.568
 2810SOL     OW10262   6.894  14.664  12.139
 2810SOL    HW110263   6.892  14.742  12.195
 2810SOL    HW210264   6.976  14.672  12.090
 2811SOL     OW10265   1.348   5.010   2.510
 2811SOL    HW110266   1.431   5.014   2.556
 2811SOL    HW210267   1.367   4.963   2.429
 2812SOL     OW10268   3.902  14.061   1.489
 2812SOL    HW110269   3.894  14.154   1.507
 2812SOL    HW210270   3.994  14.040   1.506
 2813SOL     OW10271   8.383  10.989   5.044
 2813SOL    HW110272   8.341  10.938   4.974
 2813SOL    HW210273   8.443  10.927   5.085
 2814SOL     OW10274  14.324  10.272   3.070
 2814SOL    HW110275  14.241  10.282   3.024
 2814SOL    HW210276  14.313  10.322   3.151
 2815SOL     OW10277   5.131   6.353   6.138
 2815SOL    HW110278   5.044   6.332   6.170
 2815SOL    HW210279   5.178   6.269   6.138
 2816SOL     OW10280  14.659   7.870   9.612
 2816SOL    HW110281  14.732   7.914   9.569
 2816SOL    HW210282  14.653   7.913   9.698
 2817SOL     OW10283  13.550  10.449  11.742
 2817SOL    HW110284  13.605  10.374  11.764
 2817SOL    HW210285  13.610  10.523  11.740
 2818SOL     OW10286   4.994   9.895   3.866
 2818SOL    HW110287   5.042   9.978   3.858
 2818SOL    HW210288   4.904   9.922   3.884
 2819SOL     OW10289  13.860  14.672   3.289
 2819SOL    HW110290  13.770  14.642   3.301
 2819SOL    HW210291  13.880  14.720   3.369
 2820SOL     OW10292   1.282   7.418  11.305
 2820SOL    HW110293   1.305   7.375  11.387
 2820SOL    HW210294   1.345   7.384  11.241
 2821SOL     OW10295  11.177   0.583   3.000
 2821SOL    HW110296  11.113   0.628   3.055
 2821SOL    HW210297  11.239   0.545   3.063
 2822SOL     OW10298  10.052  14.054   7.885
 2822SOL    HW110299  10.023  13.963   7.880
 2822SOL    HW210300  10.102  14.059   7.966
 2823SOL     OW10301   9.055   1.178   4.889
 2823SOL    HW110302   9.051   1.190   4.984
 2823SOL    HW210303   8.966   1.195   4.859
 2824SOL     OW10304   2.775   4.176   8.010
 2824SOL    HW110305   2.778   4.142   8.100
 2824SOL    HW210306   2.852   4.136   7.968
 2825SOL     OW10307   5.149  10.537   0.794
 2825SOL    HW110308   5.153  10.603   0.863
 2825SOL    HW210309   5.238  10.504   0.786
 2826SOL     OW10310   6.023   6.662   7.959
 2826SOL    HW110311   6.050   6.747   7.926
 2826SOL    HW210312   6.104   6.619   7.985
 2827SOL     OW10313  10.690   9.812  11.642
 2827SOL    HW110314  10.769   9.812  11.589
 2827SOL    HW210315  10.687   9.724  11.680
 2828SOL     OW10316   7.606   8.940   2.787
 2828SOL    HW110317   7.574   8.876   2.850
 2828SOL    HW210318   7.528   8.970   2.740
 2829SOL     OW10319   4.353  13.915  13.144
 2829SOL    HW110320   4.445  13.900  13.162
 2829SOL    HW210321   4.344  13.903  13.049
 2830SOL     OW10322   6.659   2.306   1.869
 2830SOL    HW110323   6.717   2.351   1.808
 2830SOL    HW210324   6.718   2.265   1.932
 2831SOL     OW10325   9.520   1.680   5.395
 2831SOL    HW110326   9.500   1.592   5.429
 2831SOL    HW210327   9.435   1.717   5.373
 2832SOL     OW10328   9.592   8.786   2.361
 2832SOL    HW110329   9.582   8.697   2.327
 2832SOL    HW210330   9.595   8.842   2.283
 2833SOL     OW10331   9.254   2.510   3.426
 2833SOL    HW110332   9.207   2.426   3.428
 2833SOL    HW210333   9.313   2.507   3.501
 2834SOL     OW10334   7.451   5.121  14.839
 2834SOL    HW110335   7.504   5.064  14.784
 2834SOL    HW210336   7.465   5.209  14.803
 2835SOL     OW10337   6.523   3.068   6.448
 2835SOL    HW110338   6.438   3.023   6.445
 2835SOL    HW210339   6.504   3.157   6.419
 2836SOL     OW10340   6.941   0.483   7.899
 2836SOL    HW110341   6.994   0.437   7.964
 2836SOL    HW210342   7.004   0.536   7.851
 2837SOL     OW10343   9.688   7.343   4.148
 2837SOL    HW110344   9.736   7.260   4.147
 2837SOL    HW210345   9.703   7.379   4.060
 2838SOL     OW10346   5.755   3.730   4.983
 2838SOL    HW110347   5.818   3.764   5.046
 2838SOL    HW210348   5.808   3.707   4.906
 2839SOL     OW10349   7.872   9.631   9.667
 2839SOL    HW110350   7.897   9.585   9.748
 2839SOL    HW210351   7.803   9.577   9.630
 2840SOL     OW10352  10.036   1.455   9.728
 2840SOL    HW110353  10.062   1.432   9.817
 2840SOL    HW210354   9.941   1.443   9.727
 2841SOL     OW10355   3.217   9.930   8.690
 2841SOL    HW110356   3.202   9.900   8.779
 2841SOL    HW210357   3.272   9.863   8.650
 2842SOL     OW10358  12.066  10.670  10.367
 2842SOL    HW110359  12.119  10.724  10.309
 2842SOL    HW210360  12.041  10.729  10.438
 2843SOL     OW10361  10.372   8.662  13.848
 2843SOL    HW110362  10.360   8.729  13.915
 2843SOL    HW210363  10.296   8.605  13.858
 2844SOL     OW10364   3.062   7.371   5.508
 2844SOL    HW110365   3.037   7.380   5.416
 2844SOL    HW210366   3.017   7.443   5.552
 2845SOL     OW10367   1.728  14.215   4.567
 2845SOL    HW110368   1.803  14.156   4.577
 2845SOL    HW210369   1.762  14.301   4.590
 2846SOL     OW10370   9.948   2.872  12.743
 2846SOL    HW110371   9.954   2.830  12.657
 2846SOL    HW210372   9.887   2.944  12.730
 2847SOL     OW10373   8.162  11.305  10.332
 2847SOL    HW110374   8.072  11.329  10.309
 2847SOL    HW210375   8.201  11.277  10.249
 2848SOL     OW10376  10.088   4.490  12.052
 2848SOL    HW110377  10.044   4.522  11.973
 2848SOL    HW210378  10.017   4.478  12.116
 2849SOL     OW10379   7.944   7.433   0.461
 2849SOL    HW110380   7.893   7.443   0.381
 2849SOL    HW210381   7.992   7.351   0.449
 2850SOL     OW10382   7.923   4.687   5.012
 2850SOL    HW110383   7.899   4.771   4.972
 2850SOL    HW210384   7.999   4.707   5.067
 2851SOL     OW10385   7.727   7.829  13.547
 2851SOL    HW110386   7.725   7.765  13.619
 2851SOL    HW210387   7.757   7.910  13.587
 2852SOL     OW10388   0.600   6.841   6.911
 2852SOL    HW110389   0.691   6.828   6.940
 2852SOL    HW210390   0.595   6.934   6.887
 2853SOL     OW10391   5.902   9.885   4.803
 2853SOL    HW110392   5.969   9.948   4.777
 2853SOL    HW210393   5.832   9.939   4.841
 2854SOL     OW10394   7.283   9.684  14.311
 2854SOL    HW110395   7.358   9.675  14.369
 2854SOL    HW210396   7.245   9.769  14.332
 2855SOL     OW10397   7.448   8.336  10.642
 2855SOL    HW110398   7.539   8.349  10.666
 2855SOL    HW210399   7.448   8.338  10.546
 2856SOL     OW10400   4.669  12.607   9.472
 2856SOL    HW110401   4.632  12.538   9.417
 2856SOL    HW210402   4.755  12.573   9.497
 2857SOL     OW10403   6.947   5.458   7.158
 2857SOL    HW110404   6.981   5.431   7.073
 2857SOL    HW210405   7.015   5.433   7.221
 2858SOL     OW10406   6.416   4.068   0.399
 2858SOL    HW110407   6.396   4.109   0.483
 2858SOL    HW210408   6.339   4.084   0.345
 2859SOL     OW10409  10.438  10.162   4.766
 2859SOL    HW110410  10.409  10.222   4.833
 2859SOL    HW210411  10.371  10.167   4.698
 2860SOL     OW10412   5.813   2.811   2.461
 2860SOL    HW110413   5.906   2.833   2.467
 2860SOL    HW210414   5.799   2.748   2.532
 2861SOL     OW10415   6.291  14.348   9.992
 2861SOL    HW110416   6.305  14.264  10.035
 2861SOL    HW210417   6.197  14.365  10.004
 2862SOL     OW10418  12.554   2.387   3.873
 2862SOL    HW110419  12.531   2.470   3.914
 2862SOL    HW210420  12.552   2.323   3.944
 2863SOL     OW10421   2.180   8.848   1.453
 2863SOL    HW110422   2.230   8.821   1.530
 2863SOL    HW210423   2.236   8.913   1.410
 2864SOL     OW10424  12.631  11.533  13.543
 2864SOL    HW110425  12.608  11.582  13.464
 2864SOL    HW210426  12.726  11.544  13.552
 2865SOL     OW10427  12.756   0.949   1.005
 2865SOL    HW110428  12.738   1.001   1.084
 2865SOL    HW210429  12.671   0.943   0.961
 2866SOL     OW10430  10.293   2.749   0.919
 2866SOL    HW110431  10.346   2.670   0.909
 2866SOL    HW210432  10.235   2.750   0.843
 2867SOL     OW10433   4.837   8.775   8.570
 2867SOL    HW110434   4.909   8.828   8.537
 2867SOL    HW210435   4.769   8.839   8.592
 2868SOL     OW10436  10.063   8.707   6.152
 2868SOL    HW110437  10.134   8.644   6.149
 2868SOL    HW210438  10.105   8.790   6.173
 2869SOL     OW10439   7.953  11.141   4.217
 2869SOL    HW110440   7.950  11.144   4.313
 2869SOL    HW210441   7.999  11.222   4.193
 2870SOL     OW10442   2.245   1.536   8.636
 2870SOL    HW110443   2.253   1.588   8.556
 2870SOL    HW210444   2.289   1.587   8.703
 2871SOL     OW10445   4.862   4.905   0.589
 2871SOL    HW110446   4.893   4.929   0.502
 2871SOL    HW210447   4.787   4.848   0.574
 2872SOL     OW10448  12.022  13.029  11.908
 2872SOL    HW110449  12.014  12.937  11.882
 2872SOL    HW210450  11.953  13.073  11.860
 2873SOL     OW10451   4.522  12.294  13.641
 2873SOL    HW110452   4.611  12.325  13.620
 2873SOL    HW210453   4.476  12.374  13.669
 2874SOL     OW10454   9.325  11.268   7.069
 2874SOL    HW110455   9.266  11.307   7.005
 2874SOL    HW210456   9.409  11.259   7.022
 2875SOL     OW10457   7.445  13.832  13.115
 2875SOL    HW110458   7.501  13.890  13.064
 2875SOL    HW210459   7.361  13.879  13.120
 2876SOL     OW10460   3.287  10.484   7.574
 2876SOL    HW110461   3.341  10.416   7.615
 2876SOL    HW210462   3.348  10.537   7.524
 2877SOL     OW10463   9.434  14.733   0.837
 2877SOL    HW110464   9.340  14.734   0.849
 2877SOL    HW210465   9.464  14.654   0.883
 2878SOL     OW10466   2.632   5.947   9.712
 2878SOL    HW110467   2.725   5.936   9.734
 2878SOL    HW210468   2.620   5.895   9.632
 2879SOL     OW10469   2.112  10.320  11.163
 2879SOL    HW110470   2.132  10.229  11.188
 2879SOL    HW210471   2.017  10.322  11.154
 2880SOL     OW10472   1.425   6.001   9.686
 2880SOL    HW110473   1.435   6.093   9.711
 2880SOL    HW210474   1.334   5.994   9.656
 2881SOL     OW10475   7.904   3.513   3.450
 2881SOL    HW110476   7.923   3.577   3.519
 2881SOL    HW210477   7.870   3.566   3.378
 2882SOL     OW10478   3.521   5.675   0.590
 2882SOL    HW110479   3.519   5.585   0.557
 2882SOL    HW210480   3.535   5.728   0.512
 2883SOL     OW10481   2.647   1.891   0.422
 2883SOL    HW110482   2.667   1.981   0.449
 2883SOL    HW210483   2.611   1.850   0.501
 2884SOL     OW10484  10.776   4.989   8.330
 2884SOL    HW110485  10.773   4.897   8.356
 2884SOL    HW210486  10.868   5.005   8.309
 2885SOL     OW10487   3.834   2.949   5.679
 2885SOL    HW110488   3.863   2.875   5.626
 2885SOL    HW210489   3.757   2.917   5.726
 2886SOL     OW10490   2.284   5.553   8.950
 2886SOL    HW110491   2.323   5.616   8.889
 2886SOL    HW210492   2.259   5.605   9.026
 2887SOL     OW10493  11.564   2.925   8.559
 2887SOL    HW110494  11.512   2.972   8.625
 2887SOL    HW210495  11.648   2.909   8.603
 2888SOL     OW10496  14.697   7.501   3.432
 2888SOL    HW110497  14.719   7.437   3.364
 2888SOL    HW210498  14.780   7.520   3.475
 2889SOL     OW10499   5.045   7.431  11.805
 2889SOL    HW110500   5.093   7.358  11.843
 2889SOL    HW210501   5.066   7.428  11.712
 2890SOL     OW10502   1.481   5.695  14.181
 2890SOL    HW110503   1.547   5.683  14.249
 2890SOL    HW210504   1.406   5.733  14.227
 2891SOL     OW10505   5.202  12.061   6.303
 2891SOL    HW110506   5.251  12.126   6.254
 2891SOL    HW210507   5.123  12.107   6.333
 2892SOL     OW10508  12.252   3.606   7.540
 2892SOL    HW110509  12.172   3.655   7.520
 2892SOL    HW210510  12.308   3.668   7.587
 2893SOL     OW10511   2.495  14.833   2.750
 2893SOL    HW110512   2.511   0.041   2.787
 2893SOL    HW210513   2.400  14.830   2.737
 2894SOL     OW10514  12.801  10.648  14.173
 2894SOL    HW110515  12.745  10.716  14.210
 2894SOL    HW210516  12.852  10.693  14.105
 2895SOL     OW10517   1.514   2.726  11.261
 2895SOL    HW110518   1.504   2.780  11.340
 2895SOL    HW210519   1.427   2.692  11.244
 2896SOL     OW10520  11.478   3.435   6.554
 2896SOL    HW110521  11.384   3.436   6.570
 2896SOL    HW210522  11.513   3.374   6.619
 2897SOL     OW10523   6.026   3.784   9.962
 2897SOL    HW110524   6.007   3.720   9.894
 2897SOL    HW210525   5.977   3.754  10.039
 2898SOL     OW10526  11.752   9.239   2.887
 2898SOL    HW110527  11.722   9.264   2.974
 2898SOL    HW210528  11.810   9.164   2.902
 2899SOL     OW10529   6.913  11.779  13.746
 2899SOL    HW110530   6.821  11.758  13.733
 2899SOL    HW210531   6.942  11.814  13.662
 2900SOL     OW10532   0.068   3.110   1.000
 2900SOL    HW110533   0.038   3.058   1.075
 2900SOL    HW210534   0.020   3.074   0.925
 2901SOL     OW10535   7.907  12.296   2.986
 2901SOL    HW110536   7.853  12.329   2.915
 2901SOL    HW210537   7.973  12.242   2.943
 2902SOL     OW10538   3.529  13.738   1.514
 2902SOL    HW110539   3.525  13.762   1.421
 2902SOL    HW210540   3.611  13.777   1.545
 2903SOL     OW10541   2.108   3.326   1.304
 2903SOL    HW110542   2.156   3.401   1.268
 2903SOL    HW210543   2.031   3.365   1.345
 2904SOL     OW10544   4.732   1.446   0.698
 2904SOL    HW110545   4.758   1.379   0.760
 2904SOL    HW210546   4.639   1.461   0.716
 2905SOL     OW10547   8.767  10.377  14.470
 2905SOL    HW110548   8.704  10.434  14.514
 2905SOL    HW210549   8.731  10.365  14.382
 2906SOL     OW10550  14.291   6.344   4.885
 2906SOL    HW110551  14.257   6.272   4.830
 2906SOL    HW210552  14.322   6.300   4.964
 2907SOL     OW10553  13.998  10.643  12.945
 2907SOL    HW110554  14.006  10.738  12.945
 2907SOL    HW210555  13.991  10.619  13.037
 2908SOL     OW10556   4.460   8.518   4.481
 2908SOL    HW110557   4.551   8.506   4.506
 2908SOL    HW210558   4.413   8.525   4.564
 2909SOL     OW10559   6.408   1.663  14.755
 2909SOL    HW110560   6.316   1.638  14.764
 2909SOL    HW210561   6.432   1.699  14.840
 2910SOL     OW10562  10.827  12.619   9.862
 2910SOL    HW110563  10.749  12.563   9.867
 2910SOL    HW210564  10.793  12.707   9.852
 2911SOL     OW10565  11.206   1.196   8.822
 2911SOL    HW110566  11.245   1.212   8.908
 2911SOL    HW210567  11.172   1.281   8.794
 2912SOL     OW10568   2.948   2.337   6.360
 2912SOL    HW110569   3.036   2.366   6.385
 2912SOL    HW210570   2.892   2.367   6.431
 2913SOL     OW10571   1.403  14.367  14.027
 2913SOL    HW110572   1.463  14.353  14.101
 2913SOL    HW210573   1.457  14.411  13.961
 2914SOL     OW10574  11.870   4.635   0.800
 2914SOL    HW110575  11.810   4.607   0.869
 2914SOL    HW210576  11.856   4.573   0.728
 2915SOL     OW10577  14.560   6.766   4.621
 2915SOL    HW110578  14.557   6.714   4.540
 2915SOL    HW210579  14.497   6.837   4.606
 2916SOL     OW10580  11.653   7.934  12.449
 2916SOL    HW110581  11.731   7.987  12.464
 2916SOL    HW210582  11.582   7.982  12.490
 2917SOL     OW10583   1.337   4.597  11.829
 2917SOL    HW110584   1.394   4.652  11.775
 2917SOL    HW210585   1.253   4.599  11.784
 2918SOL     OW10586   1.848   6.307   2.607
 2918SOL    HW110587   1.942   6.300   2.622
 2918SOL    HW210588   1.837   6.390   2.561
 2919SOL     OW10589   0.304   5.333  11.625
 2919SOL    HW110590   0.281   5.409  11.678
 2919SOL    HW210591   0.391   5.308  11.655
 2920SOL     OW10592   4.478   2.126   6.723
 2920SOL    HW110593   4.425   2.102   6.647
 2920SOL    HW210594   4.449   2.066   6.792
 2921SOL     OW10595   3.059  14.671   3.540
 2921SOL    HW110596   2.987  14.731   3.523
 2921SOL    HW210597   3.100  14.658   3.455
 2922SOL     OW10598  10.694   2.524   6.180
 2922SOL    HW110599  10.773   2.544   6.231
 2922SOL    HW210600  10.626   2.579   6.218
 2923SOL     OW10601   4.577  11.373  10.889
 2923SOL    HW110602   4.603  11.281  10.884
 2923SOL    HW210603   4.649  11.416  10.934
 2924SOL     OW10604   9.079   6.237  12.583
 2924SOL    HW110605   9.127   6.319  12.596
 2924SOL    HW210606   9.007   6.241  12.647
 2925SOL     OW10607  11.536   1.114   0.600
 2925SOL    HW110608  11.517   1.021   0.608
 2925SOL    HW210609  11.527   1.132   0.506
 2926SOL     OW10610   5.425   8.102  13.338
 2926SOL    HW110611   5.406   8.189  13.303
 2926SOL    HW210612   5.520   8.103  13.355
 2927SOL     OW10613   6.939   3.303   2.339
 2927SOL    HW110614   6.892   3.250   2.275
 2927SOL    HW210615   6.870   3.352   2.385
 2928SOL     OW10616  14.024   3.545  11.656
 2928SOL    HW110617  13.975   3.479  11.704
 2928SOL    HW210618  13.981   3.550  11.571
 2929SOL     OW10619  13.734   1.054  10.677
 2929SOL    HW110620  13.768   1.020  10.594
 2929SOL    HW210621  13.667   1.118  10.650
 2930SOL     OW10622  14.537   9.685   4.482
 2930SOL    HW110623  14.588   9.725   4.552
 2930SOL    HW210624  14.497   9.609   4.523
 2931SOL     OW10625  14.855  13.409   2.085
 2931SOL    HW110626  14.800  13.478   2.123
 2931SOL    HW210627  14.816  13.328   2.118
 2932SOL     OW10628   7.975  12.674   7.377
 2932SOL    HW110629   8.044  12.661   7.443
 2932SOL    HW210630   8.012  12.637   7.297
 2933SOL     OW10631   6.840   0.764   5.165
 2933SOL    HW110632   6.768   0.826   5.160
 2933SOL    HW210633   6.807   0.686   5.120
 2934SOL     OW10634   4.196  10.087   1.783
 2934SOL    HW110635   4.115  10.040   1.802
 2934SOL    HW210636   4.244  10.089   1.866
 2935SOL     OW10637  14.086   0.686  10.002
 2935SOL    HW110638  14.050   0.771   9.978
 2935SOL    HW210639  14.011   0.635  10.032
 2936SOL     OW10640  14.339   8.192  14.187
 2936SOL    HW110641  14.427   8.164  14.161
 2936SOL    HW210642  14.286   8.179  14.108
 2937SOL     OW10643  11.656  11.946   3.988
 2937SOL    HW110644  11.667  11.899   3.906
 2937SOL    HW210645  11.623  11.880   4.049
 2938SOL     OW10646  13.961   9.700   0.286
 2938SOL    HW110647  13.924   9.753   0.356
 2938SOL    HW210648  14.052   9.729   0.279
 2939SOL     OW10649  13.236   3.246   6.186
 2939SOL    HW110650  13.199   3.233   6.274
 2939SOL    HW210651  13.212   3.336   6.163
 2940SOL     OW10652   8.565   0.236  10.748
 2940SOL    HW110653   8.472   0.255  10.759
 2940SOL    HW210654   8.607   0.274  10.825
 2941SOL     OW10655   7.132   3.041   2.976
 2941SOL    HW110656   7.075   3.003   3.042
 2941SOL    HW210657   7.085   3.119   2.945
 2942SOL     OW10658  11.120   0.912  13.461
 2942SOL    HW110659  11.094   0.836  13.514
 2942SOL    HW210660  11.216   0.913  13.466
 2943SOL     OW10661   5.671  11.073  10.878
 2943SOL    HW110662   5.671  11.168  10.866
 2943SOL    HW210663   5.751  11.054  10.928
 2944SOL     OW10664   6.870  14.027  11.585
 2944SOL    HW110665   6.955  14.068  11.568
 2944SOL    HW210666   6.888  13.933  11.580
 2945SOL     OW10667   5.855   5.011  10.461
 2945SOL    HW110668   5.930   4.956  10.440
 2945SOL    HW210669   5.781   4.969  10.415
 2946SOL     OW10670  10.026  12.360  12.737
 2946SOL    HW110671  10.038  12.396  12.825
 2946SOL    HW210672  10.114  12.358  12.699
 2947SOL     OW10673   1.044   0.205   0.428
 2947SOL    HW110674   1.006   0.155   0.500
 2947SOL    HW210675   1.021   0.296   0.448
 2948SOL     OW10676   3.938   3.307   1.037
 2948SOL    HW110677   3.997   3.381   1.025
 2948SOL    HW210678   3.868   3.340   1.093
 2949SOL     OW10679   7.270   5.163   0.806
 2949SOL    HW110680   7.329   5.228   0.844
 2949SOL    HW210681   7.327   5.092   0.777
 2950SOL     OW10682   8.541   3.401   9.373
 2950SOL    HW110683   8.474   3.372   9.434
 2950SOL    HW210684   8.607   3.332   9.374
 2951SOL     OW10685  13.775   0.763  11.764
 2951SOL    HW110686  13.705   0.776  11.828
 2951SOL    HW210687  13.846   0.818  11.795
 2952SOL     OW10688   4.581  13.627   5.102
 2952SOL    HW110689   4.524  13.704   5.099
 2952SOL    HW210690   4.668  13.660   5.079
 2953SOL     OW10691  13.421   3.648   9.616
 2953SOL    HW110692  13.449   3.613   9.532
 2953SOL    HW210693  13.442   3.579   9.679
 2954SOL     OW10694   3.702  12.478  12.342
 2954SOL    HW110695   3.792  12.509  12.357
 2954SOL    HW210696   3.652  12.511  12.416
 2955SOL     OW10697   3.237  14.800   5.682
 2955SOL    HW110698   3.228  14.851   5.601
 2955SOL    HW210699   3.148  14.771   5.701
 2956SOL     OW10700  14.503  14.825   0.144
 2956SOL    HW110701  14.557  14.790   0.215
 2956SOL    HW210702  14.415  14.794   0.163
 2957SOL     OW10703   1.579   6.532  10.219
 2957SOL    HW110704   1.554   6.621  10.243
 2957SOL    HW210705   1.652   6.510  10.276
 2958SOL     OW10706   5.120  13.568  12.052
 2958SOL    HW110707   5.120  13.481  12.091
 2958SOL    HW210708   5.176  13.620  12.111
 2959SOL     OW10709   0.694   2.568  13.423
 2959SOL    HW110710   0.614   2.542  13.378
 2959SOL    HW210711   0.682   2.537  13.512
 2960SOL     OW10712   0.019   8.630   8.319
 2960SOL    HW110713   0.047   8.553   8.368
 2960SOL    HW210714   0.071   8.702   8.356
 2961SOL     OW10715  10.248   0.566   1.914
 2961SOL    HW110716  10.227   0.574   1.821
 2961SOL    HW210717  10.282   0.477   1.924
 2962SOL     OW10718   7.436   0.156   4.860
 2962SOL    HW110719   7.494   0.090   4.822
 2962SOL    HW210720   7.351   0.140   4.818
 2963SOL     OW10721   4.920   8.858  13.451
 2963SOL    HW110722   4.877   8.938  13.422
 2963SOL    HW210723   4.867   8.829  13.526
 2964SOL     OW10724  12.987   6.373  12.643
 2964SOL    HW110725  13.055   6.306  12.646
 2964SOL    HW210726  12.905   6.324  12.653
 2965SOL     OW10727  13.594  14.238  12.633
 2965SOL    HW110728  13.659  14.190  12.684
 2965SOL    HW210729  13.644  14.302  12.583
 2966SOL     OW10730   1.127   7.970   7.677
 2966SOL    HW110731   1.065   7.974   7.750
 2966SOL    HW210732   1.193   8.037   7.698
 2967SOL     OW10733   3.972   3.396   3.607
 2967SOL    HW110734   3.985   3.314   3.558
 2967SOL    HW210735   4.056   3.441   3.601
 2968SOL     OW10736   6.180   0.200   1.051
 2968SOL    HW110737   6.117   0.138   1.089
 2968SOL    HW210738   6.128   0.254   0.992
 2969SOL     OW10739  13.590   3.018   2.269
 2969SOL    HW110740  13.681   3.046   2.276
 2969SOL    HW210741  13.586   2.968   2.187
 2970SOL     OW10742  14.203  12.709   9.311
 2970SOL    HW110743  14.184  12.629   9.261
 2970SOL    HW210744  14.262  12.680   9.381
 2971SOL     OW10745   7.724   9.474   0.142
 2971SOL    HW110746   7.755   9.523   0.219
 2971SOL    HW210747   7.801   9.470   0.084
 2972SOL     OW10748  12.756  10.026   1.246
 2972SOL    HW110749  12.715   9.944   1.217
 2972SOL    HW210750  12.735  10.089   1.177
 2973SOL     OW10751   0.918   8.060   9.600
 2973SOL    HW110752   0.955   8.092   9.683
 2973SOL    HW210753   0.841   8.009   9.627
 2974SOL     OW10754  12.366   5.988  13.874
 2974SOL    HW110755  12.343   6.059  13.934
 2974SOL    HW210756  12.378   6.031  13.790
 2975SOL     OW10757  11.820   9.159  10.737
 2975SOL    HW110758  11.822   9.194  10.647
 2975SOL    HW210759  11.729   9.171  10.764
 2976SOL     OW10760  10.182   1.090  14.306
 2976SOL    HW110761  10.180   1.132  14.220
 2976SOL    HW210762  10.100   1.118  14.347
 2977SOL     OW10763  14.687   0.286  12.839
 2977SOL    HW110764  14.693   0.265  12.746
 2977SOL    HW210765  14.608   0.339  12.847
 2978SOL     OW10766  13.514   1.458   3.662
 2978SOL    HW110767  13.441   1.456   3.600
 2978SOL    HW210768  13.485   1.517   3.731
 2979SOL     OW10769  12.744  10.308   8.855
 2979SOL    HW110770  12.836  10.319   8.880
 2979SOL    HW210771  12.747  10.243   8.784
 2980SOL     OW10772   2.219  10.505  10.883
 2980SOL    HW110773   2.269  10.567  10.831
 2980SOL    HW210774   2.208  10.548  10.968
 2981SOL     OW10775   8.769   7.981   3.564
 2981SOL    HW110776   8.698   7.944   3.511
 2981SOL    HW210777   8.826   8.025   3.500
 2982SOL     OW10778   6.412  11.917   0.942
 2982SOL    HW110779   6.380  11.935   0.853
 2982SOL    HW210780   6.447  12.001   0.972
 2983SOL     OW10781   3.579  12.733   5.748
 2983SOL    HW110782   3.532  12.803   5.702
 2983SOL    HW210783   3.560  12.654   5.697
 2984SOL     OW10784  10.903   1.807  14.495
 2984SOL    HW110785  10.883   1.723  14.454
 2984SOL    HW210786  10.973   1.787  14.557
 2985SOL     OW10787   2.586   1.467  12.517
 2985SOL    HW110788   2.613   1.474  12.426
 2985SOL    HW210789   2.515   1.404  12.517
 2986SOL     OW10790   1.259  14.774   1.237
 2986SOL    HW110791   1.348  14.738   1.244
 2986SOL    HW210792   1.218  14.723   1.168
 2987SOL     OW10793  12.420  12.400   1.029
 2987SOL    HW110794  12.432  12.305   1.025
 2987SOL    HW210795  12.352  12.418   0.965
 2988SOL     OW10796   5.849   0.805   6.583
 2988SOL    HW110797   5.812   0.890   6.606
 2988SOL    HW210798   5.783   0.764   6.527
 2989SOL     OW10799   5.933   4.493   3.698
 2989SOL    HW110800   5.920   4.560   3.765
 2989SOL    HW210801   6.028   4.480   3.696
 2990SOL     OW10802  14.449  10.195   1.680
 2990SOL    HW110803  14.474  10.145   1.757
 2990SOL    HW210804  14.532  10.223   1.641
 2991SOL     OW10805  13.371  12.943   9.684
 2991SOL    HW110806  13.418  12.926   9.603
 2991SOL    HW210807  13.440  12.966   9.747
 2992SOL     OW10808   5.926  14.410   1.286
 2992SOL    HW110809   5.840  14.392   1.325
 2992SOL    HW210810   5.975  14.329   1.298
 2993SOL     OW10811   3.550  13.867  11.959
 2993SOL    HW110812   3.470  13.878  11.907
 2993SOL    HW210813   3.585  13.782  11.930
 2994SOL     OW10814   9.577  13.699  13.348
 2994SOL    HW110815   9.558  13.622  13.402
 2994SOL    HW210816   9.611  13.764  13.410
 2995SOL     OW10817   7.362   4.261   2.693
 2995SOL    HW110818   7.377   4.314   2.615
 2995SOL    HW210819   7.294   4.306   2.742
 2996SOL     OW10820   6.442  11.587   3.913
 2996SOL    HW110821   6.517  11.628   3.955
 2996SOL    HW210822   6.474  11.502   3.884
 2997SOL     OW10823   3.940   6.012   3.170
 2997SOL    HW110824   3.845   6.000   3.160
 2997SOL    HW210825   3.952   6.025   3.264
 2998SOL     OW10826   5.515  14.757  10.411
 2998SOL    HW110827   5.571  14.788  10.340
 2998SOL    HW210828   5.497  14.666  10.390
 2999SOL     OW10829   2.263   4.405   1.422
 2999SOL    HW110830   2.342   4.360   1.452
 2999SOL    HW210831   2.243   4.364   1.338
 3000SOL     OW10832   7.365   3.701   6.063
 3000SOL    HW110833   7.331   3.785   6.095
 3000SOL    HW210834   7.457   3.719   6.043
 3001SOL     OW10835   6.853   7.781  12.274
 3001SOL    HW110836   6.815   7.818  12.353
 3001SOL    HW210837   6.887   7.858  12.226
 3002SOL     OW10838  14.628   1.587   4.278
 3002SOL    HW110839  14.552   1.582   4.336
 3002SOL    HW210840  14.631   1.502   4.234
 3003SOL     OW10841   2.095  13.026   5.425
 3003SOL    HW110842   2.084  13.120   5.435
 3003SOL    HW210843   2.184  13.009   5.455
 3004SOL     OW10844  11.736  11.534   9.391
 3004SOL    HW110845  11.649  11.552   9.354
 3004SOL    HW210846  11.796  11.580   9.333
 3005SOL     OW10847   5.322   4.807   9.901
 3005SOL    HW110848   5.273   4.825   9.982
 3005SOL    HW210849   5.322   4.712   9.894
 3006SOL     OW10850   6.193  10.028   3.642
 3006SOL    HW110851   6.129   9.983   3.586
 3006SOL    HW210852   6.142  10.060   3.715
 3007SOL     OW10853  10.558   2.447  13.779
 3007SOL    HW110854  10.535   2.450  13.872
 3007SOL    HW210855  10.648   2.479  13.776
 3008SOL     OW10856  12.569   4.637   1.796
 3008SOL    HW110857  12.629   4.694   1.748
 3008SOL    HW210858  12.540   4.573   1.730
 3009SOL     OW10859   5.352   8.560   1.102
 3009SOL    HW110860   5.348   8.656   1.102
 3009SOL    HW210861   5.266   8.533   1.134
 3010SOL     OW10862  11.292   1.385   7.073
 3010SOL    HW110863  11.206   1.425   7.090
 3010SOL    HW210864  11.274   1.290   7.073
 3011SOL     OW10865   5.305   5.913   9.729
 3011SOL    HW110866   5.236   5.937   9.667
 3011SOL    HW210867   5.385   5.949   9.690
 3012SOL     OW10868   2.009   2.365   7.647
 3012SOL    HW110869   1.951   2.386   7.720
 3012SOL    HW210870   2.051   2.449   7.625
 3013SOL     OW10871   0.608   3.878  10.442
 3013SOL    HW110872   0.547   3.891  10.515
 3013SOL    HW210873   0.632   3.967  10.416
 3014SOL     OW10874   1.180  14.803   5.823
 3014SOL    HW110875   1.119  14.776   5.755
 3014SOL    HW210876   1.243  14.731   5.829
 3015SOL     OW10877   7.435   9.597   2.916
 3015SOL    HW110878   7.418   9.503   2.921
 3015SOL    HW210879   7.522   9.603   2.877
 3016SOL     OW10880  10.381   2.611   8.659
 3016SOL    HW110881  10.365   2.688   8.715
 3016SOL    HW210882  10.438   2.555   8.712
 3017SOL     OW10883   3.145   8.452   2.544
 3017SOL    HW110884   3.052   8.435   2.536
 3017SOL    HW210885   3.160   8.531   2.493
 3018SOL     OW10886   5.104   1.729   1.258
 3018SOL    HW110887   5.124   1.734   1.164
 3018SOL    HW210888   5.189   1.713   1.299
 3019SOL     OW10889   2.591  13.042   7.398
 3019SOL    HW110890   2.618  13.021   7.488
 3019SOL    HW210891   2.499  13.067   7.406
 3020SOL     OW10892   4.291  10.803   9.140
 3020SOL    HW110893   4.359  10.768   9.083
 3020SOL    HW210894   4.236  10.727   9.161
 3021SOL     OW10895  10.282  14.716  13.775
 3021SOL    HW110896  10.191  14.688  13.790
 3021SOL    HW210897  10.331  14.678  13.847
 3022SOL     OW10898  14.012   7.696   9.009
 3022SOL    HW110899  13.921   7.704   8.980
 3022SOL    HW210900  14.007   7.654   9.094
 3023SOL     OW10901   4.261  11.213  13.173
 3023SOL    HW110902   4.175  11.253  13.164
 3023SOL    HW210903   4.317  11.285  13.204
 3024SOL     OW10904   2.141   5.346  13.201
 3024SOL    HW110905   2.107   5.416  13.146
 3024SOL    HW210906   2.130   5.267  13.148
 3025SOL     OW10907   7.589   5.044  13.194
 3025SOL    HW110908   7.531   5.117  13.176
 3025SOL    HW210909   7.657   5.081  13.250
 3026SOL     OW10910  13.473   6.845  11.245
 3026SOL    HW110911  13.398   6.904  11.239
 3026SOL    HW210912  13.444   6.764  11.203
 3027SOL     OW10913   4.592  14.476  11.110
 3027SOL    HW110914   4.504  14.460  11.077
 3027SOL    HW210915   4.579  14.530  11.188
 3028SOL     OW10916  10.196  10.881   3.002
 3028SOL    HW110917  10.237  10.795   2.991
 3028SOL    HW210918  10.254  10.927   3.063
 3029SOL     OW10919   7.721   6.303   4.814
 3029SOL    HW110920   7.683   6.366   4.754
 3029SOL    HW210921   7.648   6.247   4.840
 3030SOL     OW10922   5.601   6.986   9.583
 3030SOL    HW110923   5.586   7.024   9.669
 3030SOL    HW210924   5.540   6.912   9.579
 3031SOL     OW10925  14.642   4.123   9.921
 3031SOL    HW110926  14.691   4.105   9.840
 3031SOL    HW210927  14.659   4.046   9.976
 3032SOL     OW10928   7.940  11.062  13.557
 3032SOL    HW110929   7.954  10.990  13.496
 3032SOL    HW210930   7.904  11.133  13.504
 3033SOL     OW10931  14.507   7.031  12.874
 3033SOL    HW110932  14.494   7.038  12.780
 3033SOL    HW210933  14.580   6.969  12.884
 3034SOL     OW10934   5.930   7.396   2.207
 3034SOL    HW110935   5.894   7.458   2.271
 3034SOL    HW210936   5.953   7.318   2.258
 3035SOL     OW10937   2.064   6.861   8.463
 3035SOL    HW110938   2.095   6.937   8.513
 3035SOL    HW210939   2.108   6.870   8.378
 3036SOL     OW10940   8.221   2.760   6.932
 3036SOL    HW110941   8.283   2.806   6.988
 3036SOL    HW210942   8.137   2.804   6.948
 3037SOL     OW10943   5.464  13.090  10.956
 3037SOL    HW110944   5.433  13.043  10.879
 3037SOL    HW210945   5.384  13.122  10.998
 3038SOL     OW10946   3.117  10.484   7.979
 3038SOL    HW110947   3.169  10.563   7.994
 3038SOL    HW210948   3.037  10.515   7.937
 3039SOL     OW10949  11.194  10.082  10.010
 3039SOL    HW110950  11.262  10.140  10.044
 3039SOL    HW210951  11.230   9.994  10.017
 3040SOL     OW10952  11.082  13.461  13.585
 3040SOL    HW110953  11.035  13.480  13.504
 3040SOL    HW210954  11.112  13.371  13.575
 3041SOL     OW10955   4.900  12.810   9.282
 3041SOL    HW110956   4.933  12.869   9.215
 3041SOL    HW210957   4.922  12.723   9.249
 3042SOL     OW10958  12.341  13.375   0.404
 3042SOL    HW110959  12.354  13.346   0.314
 3042SOL    HW210960  12.430  13.390   0.438
 3043SOL     OW10961  14.035  13.598   8.178
 3043SOL    HW110962  14.115  13.649   8.188
 3043SOL    HW210963  13.972  13.641   8.236
 3044SOL     OW10964   0.617  14.228  12.847
 3044SOL    HW110965   0.637  14.226  12.753
 3044SOL    HW210966   0.535  14.276  12.853
 3045SOL     OW10967  12.354   0.033   3.838
 3045SOL    HW110968  12.364   0.074   3.924
 3045SOL    HW210969  12.433  14.858   3.829
 3046SOL     OW10970   7.051   9.257   8.509
 3046SOL    HW110971   7.141   9.229   8.526
 3046SOL    HW210972   6.996   9.190   8.551
 3047SOL     OW10973   8.264   2.073   6.239
 3047SOL    HW110974   8.336   2.064   6.177
 3047SOL    HW210975   8.307   2.092   6.322
 3048SOL     OW10976   0.117  10.525   7.863
 3048SOL    HW110977   0.184  10.585   7.896
 3048SOL    HW210978   0.111  10.545   7.770
 3049SOL     OW10979  13.405   5.330  10.930
 3049SOL    HW110980  13.485   5.333  10.983
 3049SOL    HW210981  13.334   5.340  10.993
 3050SOL     OW10982   7.718   8.113  13.244
 3050SOL    HW110983   7.719   8.192  13.190
 3050SOL    HW210984   7.735   8.144  13.333
 3051SOL     OW10985   7.834   9.132   5.350
 3051SOL    HW110986   7.816   9.191   5.424
 3051SOL    HW210987   7.748   9.114   5.313
 3052SOL     OW10988   1.570   9.126   4.626
 3052SOL    HW110989   1.644   9.181   4.652
 3052SOL    HW210990   1.598   9.085   4.544
 3053SOL     OW10991  12.138   2.635   5.797
 3053SOL    HW110992  12.143   2.639   5.892
 3053SOL    HW210993  12.045   2.633   5.777
 3054SOL     OW10994   8.069  11.926   8.007
 3054SOL    HW110995   7.994  11.973   8.045
 3054SOL    HW210996   8.030  11.854   7.959
 3055SOL     OW10997   6.870   1.746  13.625
 3055SOL    HW110998   6.827   1.811  13.681
 3055SOL    HW210999   6.862   1.664  13.673
 3056SOL     OW11000   6.104   3.189   1.822
 3056SOL    HW111001   6.086   3.096   1.811
 3056SOL    HW211002   6.020   3.227   1.847
 3057SOL     OW11003  13.702   6.359   3.179
 3057SOL    HW111004  13.736   6.367   3.089
 3057SOL    HW211005  13.617   6.401   3.176
 3058SOL     OW11006   2.512  12.254  14.255
 3058SOL    HW111007   2.492  12.260  14.162
 3058SOL    HW211008   2.473  12.333  14.294
 3059SOL     OW11009   6.760   1.473  11.450
 3059SOL    HW111010   6.685   1.472  11.509
 3059SOL    HW211011   6.826   1.419  11.494
 3060SOL     OW11012   6.386   2.438  11.454
 3060SOL    HW111013   6.445   2.512  11.473
 3060SOL    HW211014   6.313   2.478  11.406
 3061SOL     OW11015  11.968   6.894   8.784
 3061SOL    HW111016  11.986   6.808   8.746
 3061SOL    HW211017  11.940   6.874   8.874
 3062SOL     OW11018   2.416   8.236   2.578
 3062SOL    HW111019   2.499   8.198   2.606
 3062SOL    HW211020   2.354   8.164   2.583
 3063SOL     OW11021   2.597   5.850   6.237
 3063SOL    HW111022   2.624   5.881   6.151
 3063SOL    HW211023   2.630   5.760   6.242
 3064SOL     OW11024   5.423  11.874   2.364
 3064SOL    HW111025   5.469  11.798   2.400
 3064SOL    HW211026   5.493  11.937   2.344
 3065SOL     OW11027   7.166   8.386   1.864
 3065SOL    HW111028   7.171   8.292   1.883
 3065SOL    HW211029   7.227   8.398   1.791
 3066SOL     OW11030   8.409   1.085  12.685
 3066SOL    HW111031   8.323   1.061  12.649
 3066SOL    HW211032   8.388   1.132  12.766
 3067SOL     OW11033   3.321   2.724   6.411
 3067SOL    HW111034   3.377   2.655   6.373
 3067SOL    HW211035   3.254   2.740   6.344
 3068SOL     OW11036  14.583   4.131  11.681
 3068SOL    HW111037  14.585   4.215  11.727
 3068SOL    HW211038  14.637   4.146  11.603
 3069SOL     OW11039  13.274   3.510  12.418
 3069SOL    HW111040  13.327   3.438  12.384
 3069SOL    HW211041  13.194   3.468  12.450
 3070SOL     OW11042   5.595  10.764   1.557
 3070SOL    HW111043   5.576  10.826   1.628
 3070SOL    HW211044   5.629  10.687   1.602
 3071SOL     OW11045  10.841   5.006   5.337
 3071SOL    HW111046  10.908   5.070   5.312
 3071SOL    HW211047  10.886   4.943   5.393
 3072SOL     OW11048  13.014   8.819   7.307
 3072SOL    HW111049  13.062   8.875   7.367
 3072SOL    HW211050  12.922   8.826   7.335
 3073SOL     OW11051   0.207  13.308   9.698
 3073SOL    HW111052   0.116  13.279   9.696
 3073SOL    HW211053   0.231  13.305   9.791
 3074SOL     OW11054  12.379  10.467   2.736
 3074SOL    HW111055  12.418  10.453   2.822
 3074SOL    HW211056  12.428  10.409   2.678
 3075SOL     OW11057   7.558   0.171  12.381
 3075SOL    HW111058   7.622   0.106  12.410
 3075SOL    HW211059   7.508   0.192  12.461
 3076SOL     OW11060   4.129   9.820   6.699
 3076SOL    HW111061   4.138   9.775   6.616
 3076SOL    HW211062   4.218   9.830   6.731
 3077SOL     OW11063  13.523   8.710   1.607
 3077SOL    HW111064  13.513   8.797   1.644
 3077SOL    HW211065  13.557   8.725   1.519
 3078SOL     OW11066   7.826   0.544  13.868
 3078SOL    HW111067   7.822   0.627  13.914
 3078SOL    HW211068   7.876   0.563  13.789
 3079SOL     OW11069   9.612   0.238   3.324
 3079SOL    HW111070   9.550   0.311   3.331
 3079SOL    HW211071   9.596   0.185   3.402
 3080SOL     OW11072   4.657   3.345  10.651
 3080SOL    HW111073   4.660   3.419  10.590
 3080SOL    HW211074   4.655   3.267  10.594
 3081SOL     OW11075   7.558  12.488   7.725
 3081SOL    HW111076   7.470  12.526   7.719
 3081SOL    HW211077   7.613  12.547   7.674
 3082SOL     OW11078   9.871   5.809  13.857
 3082SOL    HW111079   9.946   5.869  13.849
 3082SOL    HW211080   9.901   5.728  13.816
 3083SOL     OW11081   8.021   8.947   4.058
 3083SOL    HW111082   8.065   9.014   4.110
 3083SOL    HW211083   7.946   8.921   4.112
 3084SOL     OW11084  14.820   6.696   0.889
 3084SOL    HW111085  14.764   6.766   0.856
 3084SOL    HW211086  14.868   6.665   0.812
 3085SOL     OW11087   3.816   6.495   6.701
 3085SOL    HW111088   3.811   6.437   6.625
 3085SOL    HW211089   3.752   6.459   6.763
 3086SOL     OW11090   4.487   8.804   9.955
 3086SOL    HW111091   4.564   8.781   9.904
 3086SOL    HW211092   4.487   8.900   9.956
 3087SOL     OW11093  10.224   3.182   0.679
 3087SOL    HW111094  10.134   3.216   0.675
 3087SOL    HW211095  10.246   3.182   0.772
 3088SOL     OW11096  14.268   0.021   6.705
 3088SOL    HW111097  14.340   0.061   6.753
 3088SOL    HW211098  14.215   0.094   6.674
 3089SOL     OW11099   5.695   9.052  14.745
 3089SOL    HW111100   5.694   9.102  14.827
 3089SOL    HW211101   5.603   9.046  14.720
 3090SOL     OW11102   7.485   7.195   5.163
 3090SOL    HW111103   7.570   7.208   5.122
 3090SOL    HW211104   7.450   7.284   5.175
 3091SOL     OW11105  10.779  10.033  14.301
 3091SOL    HW111106  10.728   9.968  14.253
 3091SOL    HW211107  10.759  10.116  14.258
 3092SOL     OW11108   5.541   8.433   3.080
 3092SOL    HW111109   5.634   8.416   3.095
 3092SOL    HW211110   5.499   8.406   3.162
 3093SOL     OW11111   3.068   1.136   2.612
 3093SOL    HW111112   3.162   1.148   2.622
 3093SOL    HW211113   3.029   1.194   2.677
 3094SOL     OW11114   8.552   4.907  11.860
 3094SOL    HW111115   8.488   4.978  11.863
 3094SOL    HW211116   8.621   4.934  11.921
 3095SOL     OW11117  13.030   4.330   5.054
 3095SOL    HW111118  13.008   4.237   5.047
 3095SOL    HW211119  13.120   4.335   5.023
 3096SOL     OW11120   5.634   7.202   8.181
 3096SOL    HW111121   5.579   7.229   8.107
 3096SOL    HW211122   5.580   7.218   8.258
 3097SOL     OW11123  11.392   6.319   5.511
 3097SOL    HW111124  11.478   6.293   5.542
 3097SOL    HW211125  11.382   6.410   5.541
 3098SOL     OW11126  13.486  14.731   1.529
 3098SOL    HW111127  13.395  14.753   1.549
 3098SOL    HW211128  13.537  14.788   1.586
 3099SOL     OW11129  11.688   1.553   7.117
 3099SOL    HW111130  11.767   1.500   7.112
 3099SOL    HW211131  11.624   1.497   7.160
 3100SOL     OW11132  13.835  12.048  11.423
 3100SOL    HW111133  13.888  12.032  11.344
 3100SOL    HW211134  13.758  12.094  11.391
 3101SOL     OW11135  13.306   1.608   6.196
 3101SOL    HW111136  13.227   1.632   6.244
 3101SOL    HW211137  13.361   1.687   6.198
 3102SOL     OW11138   6.849  11.144  11.172
 3102SOL    HW111139   6.941  11.158  11.149
 3102SOL    HW211140   6.801  11.210  11.123
 3103SOL     OW11141   4.243  14.488  14.817
 3103SOL    HW111142   4.202  14.506  14.732
 3103SOL    HW211143   4.278  14.400  14.809
 3104SOL     OW11144   9.068   7.898   4.727
 3104SOL    HW111145   9.049   7.954   4.802
 3104SOL    HW211146   9.128   7.831   4.762
 3105SOL     OW11147   8.852   7.058  12.058
 3105SOL    HW111148   8.767   7.016  12.046
 3105SOL    HW211149   8.915   6.997  12.019
 3106SOL     OW11150   6.533   6.469   8.075
 3106SOL    HW111151   6.595   6.537   8.103
 3106SOL    HW211152   6.569   6.437   7.993
 3107SOL     OW11153   9.306   2.792   9.548
 3107SOL    HW111154   9.337   2.712   9.591
 3107SOL    HW211155   9.289   2.765   9.458
 3108SOL     OW11156   9.748   8.842   1.817
 3108SOL    HW111157   9.758   8.874   1.906
 3108SOL    HW211158   9.820   8.779   1.807
 3109SOL     OW11159   4.967   4.941  12.933
 3109SOL    HW111160   4.961   4.907  13.022
 3109SOL    HW211161   4.898   5.007  12.927
 3110SOL     OW11162   5.375   0.998   1.637
 3110SOL    HW111163   5.420   0.913   1.642
 3110SOL    HW211164   5.313   0.988   1.565
 3111SOL     OW11165   2.791   8.232  12.299
 3111SOL    HW111166   2.729   8.269  12.361
 3111SOL    HW211167   2.872   8.282  12.313
 3112SOL     OW11168  10.904   2.333   3.264
 3112SOL    HW111169  10.865   2.298   3.184
 3112SOL    HW211170  10.997   2.315   3.256
 3113SOL     OW11171  13.302  11.332   5.304
 3113SOL    HW111172  13.351  11.388   5.245
 3113SOL    HW211173  13.318  11.243   5.272
 3114SOL     OW11174  12.394  12.757   6.686
 3114SOL    HW111175  12.364  12.691   6.624
 3114SOL    HW211176  12.425  12.707   6.762
 3115SOL     OW11177  12.597   3.275   1.240
 3115SOL    HW111178  12.520   3.248   1.189
 3115SOL    HW211179  12.565   3.343   1.299
 3116SOL     OW11180  11.911  12.356   2.480
 3116SOL    HW111181  11.818  12.341   2.499
 3116SOL    HW211182  11.941  12.412   2.552
 3117SOL     OW11183   7.458  11.668   3.165
 3117SOL    HW111184   7.541  11.708   3.191
 3117SOL    HW211185   7.458  11.583   3.208
 3118SOL     OW11186   0.025   2.959  11.016
 3118SOL    HW111187   0.104   3.005  11.044
 3118SOL    HW211188   0.021   2.880  11.070
 3119SOL     OW11189  11.472  14.704   1.892
 3119SOL    HW111190  11.386  14.743   1.906
 3119SOL    HW211191  11.524  14.733   1.968
 3120SOL     OW11192  11.154   1.223   1.622
 3120SOL    HW111193  11.208   1.160   1.575
 3120SOL    HW211194  11.085   1.170   1.663
 3121SOL     OW11195   3.995   2.117   7.294
 3121SOL    HW111196   4.007   2.185   7.360
 3121SOL    HW211197   4.057   2.048   7.318
 3122SOL     OW11198   1.862  13.253  10.591
 3122SOL    HW111199   1.834  13.293  10.509
 3122SOL    HW211200   1.956  13.270  10.596
 3123SOL     OW11201   4.315   8.465   8.907
 3123SOL    HW111202   4.302   8.470   9.002
 3123SOL    HW211203   4.265   8.539   8.873
 3124SOL     OW11204   9.624  13.381  14.856
 3124SOL    HW111205   9.593  13.470  14.873
 3124SOL    HW211206   9.544  13.329  14.847
 3125SOL     OW11207   4.210   5.566   5.754
 3125SOL    HW111208   4.271   5.640   5.760
 3125SOL    HW211209   4.248   5.509   5.688
 3126SOL     OW11210   1.737   7.664  14.079
 3126SOL    HW111211   1.803   7.597  14.063
 3126SOL    HW211212   1.701   7.641  14.165
 3127SOL     OW11213   2.125  14.112   2.394
 3127SOL    HW111214   2.085  14.190   2.434
 3127SOL    HW211215   2.219  14.127   2.402
 3128SOL     OW11216   0.957  14.783   3.209
 3128SOL    HW111217   0.989  14.693   3.212
 3128SOL    HW211218   0.880  14.783   3.266
 3129SOL     OW11219   2.800   2.652  10.867
 3129SOL    HW111220   2.735   2.690  10.927
 3129SOL    HW211221   2.863   2.722  10.851
 3130SOL     OW11222   5.219   5.137   5.516
 3130SOL    HW111223   5.208   5.231   5.527
 3130SOL    HW211224   5.189   5.099   5.599
 3131SOL     OW11225   5.280   0.796  13.094
 3131SOL    HW111226   5.217   0.866  13.105
 3131SOL    HW211227   5.245   0.742  13.023
 3132SOL     OW11228   4.918  11.934   6.031
 3132SOL    HW111229   4.932  11.927   5.936
 3132SOL    HW211230   4.929  12.027   6.050
 3133SOL     OW11231   1.018   5.351   0.015
 3133SOL    HW111232   1.111   5.353   0.039
 3133SOL    HW211233   0.973   5.380   0.094
 3134SOL     OW11234   0.469   8.248   9.066
 3134SOL    HW111235   0.413   8.319   9.098
 3134SOL    HW211236   0.511   8.283   8.988
 3135SOL     OW11237   5.802   2.070   1.748
 3135SOL    HW111238   5.868   2.107   1.807
 3135SOL    HW211239   5.842   1.991   1.712
 3136SOL     OW11240   1.466  12.186   4.963
 3136SOL    HW111241   1.492  12.257   4.904
 3136SOL    HW211242   1.377  12.209   4.990
 3137SOL     OW11243  10.838   2.907   2.009
 3137SOL    HW111244  10.922   2.942   2.038
 3137SOL    HW211245  10.843   2.909   1.914
 3138SOL     OW11246  10.200  13.297   9.400
 3138SOL    HW111247  10.106  13.313   9.406
 3138SOL    HW211248  10.241  13.383   9.409
 3139SOL     OW11249   9.272  12.395   0.270
 3139SOL    HW111250   9.220  12.383   0.350
 3139SOL    HW211251   9.313  12.482   0.281
 3140SOL     OW11252  14.868  11.454   6.866
 3140SOL    HW111253  14.852  11.364   6.896
 3140SOL    HW211254  14.790  11.502   6.892
 3141SOL     OW11255   4.972   9.345   0.263
 3141SOL    HW111256   5.060   9.321   0.292
 3141SOL    HW211257   4.963   9.437   0.288
 3142SOL     OW11258  14.590   2.089   4.282
 3142SOL    HW111259  14.593   2.084   4.186
 3142SOL    HW211260  14.666   2.141   4.306
 3143SOL     OW11261   1.202  10.563   8.989
 3143SOL    HW111262   1.238  10.599   8.907
 3143SOL    HW211263   1.275  10.567   9.050
 3144SOL     OW11264   5.615   9.954   2.626
 3144SOL    HW111265   5.580  10.043   2.634
 3144SOL    HW211266   5.708   9.966   2.610
 3145SOL     OW11267   2.436   5.204   5.204
 3145SOL    HW111268   2.527   5.193   5.177
 3145SOL    HW211269   2.405   5.116   5.223
 3146SOL     OW11270   4.565   0.693   0.639
 3146SOL    HW111271   4.550   0.751   0.714
 3146SOL    HW211272   4.505   0.725   0.572
 3147SOL     OW11273   3.902   0.429  12.093
 3147SOL    HW111274   3.866   0.373  12.025
 3147SOL    HW211275   3.955   0.494  12.046
 3148SOL     OW11276  12.514   5.082   7.301
 3148SOL    HW111277  12.578   5.130   7.353
 3148SOL    HW211278  12.540   4.990   7.309
 3149SOL     OW11279   3.371   6.556   6.310
 3149SOL    HW111280   3.315   6.581   6.383
 3149SOL    HW211281   3.389   6.463   6.324
 3150SOL     OW11282   5.980  13.367   0.624
 3150SOL    HW111283   5.999  13.337   0.713
 3150SOL    HW211284   5.975  13.462   0.631
 3151SOL     OW11285   4.327   6.415   6.480
 3151SOL    HW111286   4.318   6.334   6.428
 3151SOL    HW211287   4.352   6.481   6.416
 3152SOL     OW11288  13.080  12.010   4.100
 3152SOL    HW111289  12.998  11.964   4.085
 3152SOL    HW211290  13.084  12.023   4.195
 3153SOL     OW11291  12.813   5.064   9.212
 3153SOL    HW111292  12.900   5.024   9.210
 3153SOL    HW211293  12.773   5.038   9.129
 3154SOL     OW11294   1.309  13.395  14.332
 3154SOL    HW111295   1.356  13.387  14.415
 3154SOL    HW211296   1.288  13.488  14.324
 3155SOL     OW11297   1.281   7.628   9.762
 3155SOL    HW111298   1.356   7.617   9.820
 3155SOL    HW211299   1.211   7.578   9.803
 3156SOL     OW11300  12.901   9.121  14.003
 3156SOL    HW111301  12.958   9.044  14.015
 3156SOL    HW211302  12.925   9.155  13.917
 3157SOL     OW11303   4.220   0.318   5.494
 3157SOL    HW111304   4.140   0.363   5.469
 3157SOL    HW211305   4.288   0.385   5.485
 3158SOL     OW11306  10.560   8.627   2.901
 3158SOL    HW111307  10.601   8.552   2.859
 3158SOL    HW211308  10.631   8.671   2.948
 3159SOL     OW11309  14.679   0.062  13.023
 3159SOL    HW111310  14.658   0.035  12.934
 3159SOL    HW211311  14.712   0.151  13.014
 3160SOL     OW11312   0.109   8.014  13.034
 3160SOL    HW111313   0.054   7.953  13.083
 3160SOL    HW211314   0.071   8.017  12.947
 3161SOL     OW11315   4.077   2.784  10.002
 3161SOL    HW111316   4.146   2.736  10.049
 3161SOL    HW211317   4.106   2.875  10.005
 3162SOL     OW11318   5.299   8.199   6.892
 3162SOL    HW111319   5.385   8.238   6.878
 3162SOL    HW211320   5.306   8.112   6.853
 3163SOL     OW11321   7.431  13.815   4.245
 3163SOL    HW111322   7.473  13.731   4.223
 3163SOL    HW211323   7.337  13.797   4.241
 3164SOL     OW11324   2.890  11.217  12.704
 3164SOL    HW111325   2.909  11.130  12.670
 3164SOL    HW211326   2.923  11.277  12.638
 3165SOL     OW11327   9.706  12.402   5.064
 3165SOL    HW111328   9.756  12.392   4.983
 3165SOL    HW211329   9.616  12.411   5.035
 3166SOL     OW11330  11.669  12.551   4.806
 3166SOL    HW111331  11.732  12.525   4.873
 3166SOL    HW211332  11.652  12.471   4.756
 3167SOL     OW11333  13.982   7.378   8.956
 3167SOL    HW111334  13.909   7.319   8.937
 3167SOL    HW211335  13.942   7.464   8.967
 3168SOL     OW11336  14.683   6.720   6.422
 3168SOL    HW111337  14.606   6.759   6.463
 3168SOL    HW211338  14.718   6.661   6.488
 3169SOL     OW11339  11.899   8.138   0.258
 3169SOL    HW111340  11.917   8.226   0.225
 3169SOL    HW211341  11.928   8.079   0.189
 3170SOL     OW11342  12.661  10.354  11.698
 3170SOL    HW111343  12.598  10.311  11.756
 3170SOL    HW211344  12.730  10.384  11.757
 3171SOL     OW11345   7.713   3.142  10.381
 3171SOL    HW111346   7.624   3.107  10.379
 3171SOL    HW211347   7.766   3.078  10.334
 3172SOL     OW11348   6.025   5.337   7.880
 3172SOL    HW111349   6.091   5.382   7.828
 3172SOL    HW211350   6.058   5.248   7.890
 3173SOL     OW11351   5.115   3.056   7.736
 3173SOL    HW111352   5.078   3.139   7.765
 3173SOL    HW211353   5.095   3.052   7.643
 3174SOL     OW11354  14.566   2.387   6.125
 3174SOL    HW111355  14.570   2.423   6.036
 3174SOL    HW211356  14.502   2.442   6.170
 3175SOL     OW11357  11.117  11.527  14.457
 3175SOL    HW111358  11.165  11.467  14.516
 3175SOL    HW211359  11.132  11.491  14.370
 3176SOL     OW11360   2.704   2.067   8.393
 3176SOL    HW111361   2.716   1.972   8.387
 3176SOL    HW211362   2.694   2.096   8.302
 3177SOL     OW11363  11.232   3.469  14.461
 3177SOL    HW111364  11.208   3.531  14.392
 3177SOL    HW211365  11.156   3.467  14.519
 3178SOL     OW11366   2.633   7.513  12.430
 3178SOL    HW111367   2.549   7.475  12.405
 3178SOL    HW211368   2.652   7.577  12.362
 3179SOL     OW11369  12.091   8.203  13.272
 3179SOL    HW111370  12.154   8.132  13.283
 3179SOL    HW211371  12.008   8.159  13.254
 3180SOL     OW11372   0.555  14.472   1.686
 3180SOL    HW111373   0.619  14.496   1.754
 3180SOL    HW211374   0.517  14.555   1.658
 3181SOL     OW11375  13.563   3.298  10.517
 3181SOL    HW111376  13.521   3.291  10.431
 3181SOL    HW211377  13.490   3.301  10.578
 3182SOL     OW11378   4.044  13.682   8.593
 3182SOL    HW111379   4.071  13.761   8.545
 3182SOL    HW211380   4.043  13.709   8.685
 3183SOL     OW11381   3.545  10.265   1.501
 3183SOL    HW111382   3.548  10.173   1.524
 3183SOL    HW211383   3.453  10.289   1.504
 3184SOL     OW11384  13.425   5.657   8.240
 3184SOL    HW111385  13.352   5.673   8.300
 3184SOL    HW211386  13.435   5.562   8.240
 3185SOL     OW11387  13.492   6.779  14.751
 3185SOL    HW111388  13.478   6.809  14.661
 3185SOL    HW211389  13.404   6.763  14.785
 3186SOL     OW11390   8.170  11.262  12.566
 3186SOL    HW111391   8.128  11.348  12.568
 3186SOL    HW211392   8.252  11.275  12.615
 3187SOL     OW11393   6.225   8.357   3.903
 3187SOL    HW111394   6.161   8.364   3.974
 3187SOL    HW211395   6.280   8.435   3.912
 3188SOL     OW11396  11.818   5.448  14.541
 3188SOL    HW111397  11.725   5.470  14.531
 3188SOL    HW211398  11.852   5.515  14.600
 3189SOL     OW11399   9.557   0.759   8.661
 3189SOL    HW111400   9.642   0.767   8.617
 3189SOL    HW211401   9.565   0.678   8.712
 3190SOL     OW11402   7.334   7.062   0.869
 3190SOL    HW111403   7.421   7.081   0.834
 3190SOL    HW211404   7.334   6.968   0.885
 3191SOL     OW11405   3.516   5.742   5.928
 3191SOL    HW111406   3.534   5.756   5.835
 3191SOL    HW211407   3.432   5.786   5.943
 3192SOL     OW11408   9.145   7.330   7.383
 3192SOL    HW111409   9.065   7.343   7.332
 3192SOL    HW211410   9.199   7.407   7.364
 3193SOL     OW11411   9.047   3.529   5.816
 3193SOL    HW111412   9.014   3.526   5.726
 3193SOL    HW211413   8.994   3.464   5.862
 3194SOL     OW11414   8.780   5.293   0.549
 3194SOL    HW111415   8.733   5.248   0.619
 3194SOL    HW211416   8.726   5.281   0.471
 3195SOL     OW11417   1.737  12.958   5.254
 3195SOL    HW111418   1.762  12.929   5.342
 3195SOL    HW211419   1.817  12.949   5.202
 3196SOL     OW11420  10.036   9.403  10.936
 3196SOL    HW111421  10.026   9.398  11.031
 3196SOL    HW211422  10.130   9.395  10.921
 3197SOL     OW11423   7.683   7.060  13.108
 3197SOL    HW111424   7.760   7.106  13.075
 3197SOL    HW211425   7.656   7.004  13.036
 3198SOL     OW11426  11.284   7.207   6.562
 3198SOL    HW111427  11.378   7.227   6.564
 3198SOL    HW211428  11.265   7.192   6.469
 3199SOL     OW11429  14.263   6.723  13.584
 3199SOL    HW111430  14.327   6.723  13.512
 3199SOL    HW211431  14.186   6.679  13.547
 3200SOL     OW11432   0.825   3.568   1.492
 3200SOL    HW111433   0.799   3.563   1.584
 3200SOL    HW211434   0.885   3.495   1.480
 3201SOL     OW11435   6.670  12.980   6.318
 3201SOL    HW111436   6.695  13.026   6.238
 3201SOL    HW211437   6.750  12.936   6.347
 3202SOL     OW11438   9.553   1.394   1.529
 3202SOL    HW111439   9.582   1.340   1.603
 3202SOL    HW211440   9.459   1.403   1.541
 3203SOL     OW11441   8.917   6.154  11.717
 3203SOL    HW111442   8.908   6.208  11.796
 3203SOL    HW211443   8.938   6.067  11.750
 3204SOL     OW11444   2.707   0.267  11.701
 3204SOL    HW111445   2.685   0.360  11.711
 3204SOL    HW211446   2.660   0.241  11.621
 3205SOL     OW11447   1.056   5.747  10.711
 3205SOL    HW111448   0.994   5.811  10.677
 3205SOL    HW211449   1.077   5.777  10.799
 3206SOL     OW11450   4.623   1.989   3.752
 3206SOL    HW111451   4.649   1.999   3.661
 3206SOL    HW211452   4.687   2.042   3.801
 3207SOL     OW11453   1.261   5.998   8.350
 3207SOL    HW111454   1.211   6.047   8.285
 3207SOL    HW211455   1.232   5.907   8.339
 3208SOL     OW11456  14.438   2.203   1.728
 3208SOL    HW111457  14.366   2.219   1.789
 3208SOL    HW211458  14.440   2.280   1.671
 3209SOL     OW11459  13.460  13.820   8.427
 3209SOL    HW111460  13.397  13.826   8.499
 3209SOL    HW211461  13.444  13.899   8.375
 3210SOL     OW11462   3.656   1.219  11.747
 3210SOL    HW111463   3.679   1.142  11.695
 3210SOL    HW211464   3.710   1.211  11.826
 3211SOL     OW11465  13.381  11.181   9.309
 3211SOL    HW111466  13.285  11.183   9.308
 3211SOL    HW211467  13.407  11.269   9.335
 3212SOL     OW11468   9.157   5.779   7.785
 3212SOL    HW111469   9.170   5.719   7.858
 3212SOL    HW211470   9.233   5.765   7.728
 3213SOL     OW11471   6.764   5.176   0.231
 3213SOL    HW111472   6.852   5.206   0.207
 3213SOL    HW211473   6.773   5.082   0.241
 3214SOL     OW11474   9.359  11.019   1.895
 3214SOL    HW111475   9.398  10.944   1.940
 3214SOL    HW211476   9.405  11.024   1.811
 3215SOL     OW11477  14.072  12.206  14.652
 3215SOL    HW111478  14.074  12.111  14.643
 3215SOL    HW211479  14.011  12.222  14.724
 3216SOL     OW11480  12.111   1.122   6.798
 3216SOL    HW111481  12.121   1.189   6.865
 3216SOL    HW211482  12.124   1.168   6.715
 3217SOL     OW11483   0.518  10.953  12.272
 3217SOL    HW111484   0.587  11.019  12.280
 3217SOL    HW211485   0.460  10.988  12.204
 3218SOL     OW11486   2.795   1.547   3.945
 3218SOL    HW111487   2.761   1.550   3.855
 3218SOL    HW211488   2.880   1.506   3.937
 3219SOL     OW11489   8.497  14.107   9.033
 3219SOL    HW111490   8.432  14.177   9.043
 3219SOL    HW211491   8.448  14.035   8.993
 3220SOL     OW11492  11.177   4.288   5.150
 3220SOL    HW111493  11.147   4.373   5.120
 3220SOL    HW211494  11.272   4.297   5.157
 3221SOL     OW11495   6.107  10.267   9.535
 3221SOL    HW111496   6.086  10.251   9.627
 3221SOL    HW211497   6.061  10.348   9.513
 3222SOL     OW11498   0.421  14.716   9.317
 3222SOL    HW111499   0.419  14.667   9.234
 3222SOL    HW211500   0.445  14.651   9.383
 3223SOL     OW11501  10.292   2.004  11.685
 3223SOL    HW111502  10.209   1.998  11.636
 3223SOL    HW211503  10.353   2.045  11.623
 3224SOL     OW11504   4.431   3.278   6.215
 3224SOL    HW111505   4.389   3.332   6.281
 3224SOL    HW211506   4.360   3.227   6.175
 3225SOL     OW11507   6.293   1.876  11.181
 3225SOL    HW111508   6.372   1.919  11.148
 3225SOL    HW211509   6.222   1.937  11.160
 3226SOL     OW11510   7.888  10.806  11.282
 3226SOL    HW111511   7.819  10.746  11.253
 3226SOL    HW211512   7.849  10.893  11.275
 3227SOL     OW11513   2.343   2.765   0.701
 3227SOL    HW111514   2.334   2.816   0.782
 3227SOL    HW211515   2.374   2.828   0.636
 3228SOL     OW11516   7.445   3.063   4.913
 3228SOL    HW111517   7.528   3.098   4.945
 3228SOL    HW211518   7.406   3.134   4.863
 3229SOL     OW11519  12.976   9.827  12.519
 3229SOL    HW111520  12.898   9.802  12.469
 3229SOL    HW211521  13.001   9.747  12.565
 3230SOL     OW11522   1.412  13.796  12.488
 3230SOL    HW111523   1.467  13.753  12.422
 3230SOL    HW211524   1.472  13.849  12.539
 3231SOL     OW11525  13.685   1.829  13.024
 3231SOL    HW111526  13.695   1.876  13.107
 3231SOL    HW211527  13.600   1.857  12.990
 3232SOL     OW11528  11.547  10.274   9.481
 3232SOL    HW111529  11.575  10.183   9.493
 3232SOL    HW211530  11.467  10.281   9.534
 3233SOL     OW11531   3.489   1.119   6.796
 3233SOL    HW111532   3.419   1.057   6.816
 3233SOL    HW211533   3.476   1.192   6.856
 3234SOL     OW11534   0.507   8.562   8.834
 3234SOL    HW111535   0.445   8.580   8.905
 3234SOL    HW211536   0.591   8.550   8.878
 3235SOL     OW11537  11.034   9.544   1.324
 3235SOL    HW111538  11.046   9.450   1.330
 3235SOL    HW211539  11.113   9.576   1.282
 3236SOL     OW11540   0.525   3.610   6.784
 3236SOL    HW111541   0.577   3.632   6.861
 3236SOL    HW211542   0.589   3.599   6.714
 3237SOL     OW11543   6.134   3.636   1.530
 3237SOL    HW111544   6.117   3.546   1.557
 3237SOL    HW211545   6.227   3.636   1.505
 3238SOL     OW11546   5.148  11.480  11.697
 3238SOL    HW111547   5.235  11.502  11.729
 3238SOL    HW211548   5.098  11.561  11.704
 3239SOL     OW11549   1.584   3.149  12.055
 3239SOL    HW111550   1.518   3.200  12.009
 3239SOL    HW211551   1.534   3.090  12.111
 3240SOL     OW11552   1.122  11.245   7.544
 3240SOL    HW111553   1.073  11.309   7.595
 3240SOL    HW211554   1.199  11.225   7.598
 3241SOL     OW11555   6.064   6.002  12.211
 3241SOL    HW111556   6.142   6.044  12.248
 3241SOL    HW211557   6.063   5.914  12.250
 3242SOL     OW11558  10.941   6.242  13.528
 3242SOL    HW111559  10.993   6.284  13.459
 3242SOL    HW211560  10.983   6.157  13.541
 3243SOL     OW11561  14.158  14.066  12.214
 3243SOL    HW111562  14.247  14.091  12.238
 3243SOL    HW211563  14.168  14.015  12.134
 3244SOL     OW11564   9.237  11.541  13.125
 3244SOL    HW111565   9.328  11.531  13.098
 3244SOL    HW211566   9.222  11.470  13.188
 3245SOL     OW11567   1.826   9.394   3.767
 3245SOL    HW111568   1.860   9.476   3.803
 3245SOL    HW211569   1.731   9.402   3.774
 3246SOL     OW11570   9.182  10.763  11.599
 3246SOL    HW111571   9.122  10.800  11.663
 3246SOL    HW211572   9.257  10.821  11.599
 3247SOL     OW11573   7.059  12.517  14.745
 3247SOL    HW111574   7.138  12.560  14.714
 3247SOL    HW211575   6.988  12.573  14.715
 3248SOL     OW11576  11.843   1.012   9.156
 3248SOL    HW111577  11.929   0.973   9.140
 3248SOL    HW211578  11.848   1.046   9.245
 3249SOL     OW11579  12.275   1.638   5.704
 3249SOL    HW111580  12.345   1.676   5.757
 3249SOL    HW211581  12.287   1.675   5.617
 3250SOL     OW11582   9.564   0.399   7.968
 3250SOL    HW111583   9.560   0.303   7.962
 3250SOL    HW211584   9.494   0.421   8.030
 3251SOL     OW11585   0.724   0.671   3.364
 3251SOL    HW111586   0.670   0.626   3.428
 3251SOL    HW211587   0.664   0.692   3.292
 3252SOL     OW11588  12.589  14.238  10.707
 3252SOL    HW111589  12.670  14.264  10.752
 3252SOL    HW211590  12.588  14.292  10.628
 3253SOL     OW11591   9.154   0.589  12.645
 3253SOL    HW111592   9.137   0.673  12.602
 3253SOL    HW211593   9.115   0.524  12.586
 3254SOL     OW11594  14.582   5.896  12.775
 3254SOL    HW111595  14.519   5.967  12.782
 3254SOL    HW211596  14.531   5.821  12.743
 3255SOL     OW11597   4.588  11.264   2.649
 3255SOL    HW111598   4.550  11.350   2.630
 3255SOL    HW211599   4.612  11.229   2.564
 3256SOL     OW11600   3.560   5.622   9.429
 3256SOL    HW111601   3.533   5.534   9.401
 3256SOL    HW211602   3.536   5.679   9.356
 3257SOL     OW11603   7.350   8.792   9.632
 3257SOL    HW111604   7.274   8.812   9.686
 3257SOL    HW211605   7.373   8.875   9.590
 3258SOL     OW11606   1.060  13.542  13.141
 3258SOL    HW111607   0.974  13.552  13.181
 3258SOL    HW211608   1.076  13.625  13.097
 3259SOL     OW11609   7.167   1.965  14.340
 3259SOL    HW111610   7.239   2.020  14.308
 3259SOL    HW211611   7.140   2.007  14.422
 3260SOL     OW11612  10.980   5.647  10.670
 3260SOL    HW111613  10.999   5.741  10.663
 3260SOL    HW211614  11.034   5.607  10.601
 3261SOL     OW11615  13.750   7.001  12.428
 3261SOL    HW111616  13.738   7.053  12.348
 3261SOL    HW211617  13.670   7.017  12.478
 3262SOL     OW11618   0.410  12.622   9.630
 3262SOL    HW111619   0.493  12.584   9.660
 3262SOL    HW211620   0.401  12.704   9.679
 3263SOL     OW11621   7.614   8.501  12.832
 3263SOL    HW111622   7.571   8.455  12.761
 3263SOL    HW211623   7.706   8.504  12.807
 3264SOL     OW11624   7.434  14.596   0.691
 3264SOL    HW111625   7.347  14.636   0.702
 3264SOL    HW211626   7.475  14.647   0.622
 3265SOL     OW11627  11.250  11.693   1.933
 3265SOL    HW111628  11.292  11.743   1.863
 3265SOL    HW211629  11.160  11.681   1.903
 3266SOL     OW11630   6.172   4.150   3.957
 3266SOL    HW111631   6.127   4.177   4.038
 3266SOL    HW211632   6.107   4.164   3.888
 3267SOL     OW11633   7.110   7.576   1.758
 3267SOL    HW111634   7.073   7.613   1.678
 3267SOL    HW211635   7.035   7.563   1.816
 3268SOL     OW11636  13.817   7.239  10.517
 3268SOL    HW111637  13.852   7.179  10.451
 3268SOL    HW211638  13.846   7.326  10.488
 3269SOL     OW11639   5.158   6.469   8.725
 3269SOL    HW111640   5.136   6.503   8.811
 3269SOL    HW211641   5.089   6.406   8.705
 3270SOL     OW11642   8.528  11.357  14.363
 3270SOL    HW111643   8.616  11.345  14.398
 3270SOL    HW211644   8.478  11.394  14.435
 3271SOL     OW11645   9.889   6.401   4.980
 3271SOL    HW111646   9.817   6.357   4.934
 3271SOL    HW211647   9.847   6.450   5.050
 3272SOL     OW11648  11.949   7.345   8.950
 3272SOL    HW111649  11.982   7.262   8.917
 3272SOL    HW211650  11.881   7.321   9.014
 3273SOL     OW11651  11.876  11.740   4.913
 3273SOL    HW111652  11.956  11.720   4.865
 3273SOL    HW211653  11.855  11.659   4.959
 3274SOL     OW11654  13.956   4.068   3.125
 3274SOL    HW111655  13.885   4.029   3.073
 3274SOL    HW211656  14.030   4.009   3.111
 3275SOL     OW11657   3.258   5.545  14.766
 3275SOL    HW111658   3.171   5.564  14.729
 3275SOL    HW211659   3.311   5.620  14.739
 3276SOL     OW11660   6.291   1.836   4.237
 3276SOL    HW111661   6.343   1.880   4.304
 3276SOL    HW211662   6.355   1.791   4.182
 3277SOL     OW11663  11.434  13.841   3.447
 3277SOL    HW111664  11.413  13.933   3.462
 3277SOL    HW211665  11.449  13.805   3.534
 3278SOL     OW11666  12.197  14.572   3.679
 3278SOL    HW111667  12.273  14.539   3.632
 3278SOL    HW211668  12.128  14.507   3.664
 3279SOL     OW11669   5.854  11.277   2.549
 3279SOL    HW111670   5.936  11.293   2.597
 3279SOL    HW211671   5.852  11.183   2.536
 3280SOL     OW11672   1.924   1.327   4.742
 3280SOL    HW111673   1.935   1.311   4.836
 3280SOL    HW211674   1.864   1.401   4.737
 3281SOL     OW11675   4.990   4.362   5.316
 3281SOL    HW111676   4.912   4.416   5.305
 3281SOL    HW211677   5.063   4.423   5.311
 3282SOL     OW11678   5.652   4.042   5.702
 3282SOL    HW111679   5.734   4.037   5.751
 3282SOL    HW211680   5.586   4.068   5.767
 3283SOL     OW11681   2.756   4.225   9.088
 3283SOL    HW111682   2.661   4.232   9.085
 3283SOL    HW211683   2.786   4.309   9.122
 3284SOL     OW11684   2.639  13.813   3.925
 3284SOL    HW111685   2.730  13.792   3.950
 3284SOL    HW211686   2.648  13.864   3.845
 3285SOL     OW11687   1.279  11.151   6.932
 3285SOL    HW111688   1.339  11.091   6.974
 3285SOL    HW211689   1.244  11.204   7.004
 3286SOL     OW11690  11.462   8.490   3.655
 3286SOL    HW111691  11.479   8.579   3.626
 3286SOL    HW211692  11.494   8.488   3.746
 3287SOL     OW11693   7.412  14.222   6.270
 3287SOL    HW111694   7.457  14.300   6.302
 3287SOL    HW211695   7.321  14.234   6.295
 3288SOL     OW11696   7.299   9.041   9.531
 3288SOL    HW111697   7.329   9.126   9.565
 3288SOL    HW211698   7.214   9.060   9.491
 3289SOL     OW11699   6.469   5.908  11.156
 3289SOL    HW111700   6.518   5.910  11.238
 3289SOL    HW211701   6.466   5.816  11.131
 3290SOL     OW11702   3.130   7.703   9.726
 3290SOL    HW111703   3.213   7.658   9.712
 3290SOL    HW211704   3.064   7.638   9.700
 3291SOL     OW11705  14.540   8.558   6.784
 3291SOL    HW111706  14.617   8.518   6.823
 3291SOL    HW211707  14.490   8.591   6.858
 3292SOL     OW11708   5.356  14.576   4.961
 3292SOL    HW111709   5.322  14.623   5.037
 3292SOL    HW211710   5.351  14.640   4.890
 3293SOL     OW11711  12.031   3.914   2.130
 3293SOL    HW111712  11.937   3.910   2.144
 3293SOL    HW211713  12.069   3.878   2.210
 3294SOL     OW11714   4.962   7.372  11.538
 3294SOL    HW111715   4.956   7.349  11.445
 3294SOL    HW211716   4.900   7.314  11.582
 3295SOL     OW11717  14.247   9.578  14.302
 3295SOL    HW111718  14.174   9.516  14.292
 3295SOL    HW211719  14.216   9.640  14.369
 3296SOL     OW11720   1.996   6.543   3.525
 3296SOL    HW111721   2.058   6.591   3.580
 3296SOL    HW211722   1.941   6.611   3.486
 3297SOL     OW11723   2.271   0.049  10.374
 3297SOL    HW111724   2.299   0.099  10.297
 3297SOL    HW211725   2.347   0.048  10.432
 3298SOL     OW11726  14.154   5.758  14.872
 3298SOL    HW111727  14.210   5.691   0.033
 3298SOL    HW211728  14.196   5.841   0.016
 3299SOL     OW11729   6.160   5.796   8.980
 3299SOL    HW111730   6.180   5.844   9.060
 3299SOL    HW211731   6.245   5.772   8.944
 3300SOL     OW11732  11.286  10.894   4.330
 3300SOL    HW111733  11.349  10.824   4.349
 3300SOL    HW211734  11.308  10.923   4.241
 3301SOL     OW11735   0.857  13.253   2.260
 3301SOL    HW111736   0.825  13.251   2.170
 3301SOL    HW211737   0.890  13.342   2.271
 3302SOL     OW11738   9.256   1.633   9.194
 3302SOL    HW111739   9.237   1.669   9.108
 3302SOL    HW211740   9.268   1.539   9.178
 3303SOL     OW11741  13.436   3.101   7.394
 3303SOL    HW111742  13.386   3.173   7.432
 3303SOL    HW211743  13.428   3.112   7.299
 3304SOL     OW11744   2.249   9.953   4.838
 3304SOL    HW111745   2.282   9.864   4.827
 3304SOL    HW211746   2.184   9.963   4.768
 3305SOL     OW11747   7.889  10.328   1.742
 3305SOL    HW111748   7.970  10.339   1.793
 3305SOL    HW211749   7.860  10.239   1.764
 3306SOL     OW11750  12.890   3.599   2.197
 3306SOL    HW111751  12.795   3.612   2.194
 3306SOL    HW211752  12.913   3.612   2.289
 3307SOL     OW11753   1.490  13.643   8.957
 3307SOL    HW111754   1.401  13.671   8.932
 3307SOL    HW211755   1.522  13.714   9.012
 3308SOL     OW11756  13.425   5.540   3.944
 3308SOL    HW111757  13.392   5.451   3.955
 3308SOL    HW211758  13.402   5.585   4.025
 3309SOL     OW11759   5.521   7.860   1.200
 3309SOL    HW111760   5.460   7.815   1.259
 3309SOL    HW211761   5.579   7.909   1.258
 3310SOL     OW11762   5.947   9.894   6.401
 3310SOL    HW111763   5.987   9.959   6.343
 3310SOL    HW211764   5.992   9.813   6.381
 3311SOL     OW11765   1.120   6.636   7.595
 3311SOL    HW111766   1.029   6.655   7.575
 3311SOL    HW211767   1.158   6.721   7.619
 3312SOL     OW11768   6.582  14.181   2.938
 3312SOL    HW111769   6.491  14.155   2.949
 3312SOL    HW211770   6.584  14.231   2.857
 3313SOL     OW11771  13.326  11.628   3.137
 3313SOL    HW111772  13.417  11.651   3.117
 3313SOL    HW211773  13.277  11.709   3.125
 3314SOL     OW11774   1.923   0.781   0.259
 3314SOL    HW111775   1.870   0.811   0.333
 3314SOL    HW211776   1.861   0.774   0.187
 3315SOL     OW11777  13.623  12.594   9.602
 3315SOL    HW111778  13.711  12.620   9.628
 3315SOL    HW211779  13.571  12.600   9.682
 3316SOL     OW11780   7.488   3.736   2.885
 3316SOL    HW111781   7.491   3.814   2.940
 3316SOL    HW211782   7.570   3.690   2.905
 3317SOL     OW11783  10.851   0.141   8.840
 3317SOL    HW111784  10.858   0.079   8.913
 3317SOL    HW211785  10.763   0.176   8.846
 3318SOL     OW11786  14.282   2.427   5.912
 3318SOL    HW111787  14.270   2.333   5.927
 3318SOL    HW211788  14.377   2.438   5.901
 3319SOL     OW11789  12.015   5.166   7.493
 3319SOL    HW111790  11.956   5.229   7.535
 3319SOL    HW211791  11.969   5.083   7.498
 3320SOL     OW11792   6.620   4.713  14.523
 3320SOL    HW111793   6.533   4.707  14.563
 3320SOL    HW211794   6.610   4.781  14.456
 3321SOL     OW11795   3.954  10.771  11.769
 3321SOL    HW111796   3.917  10.689  11.802
 3321SOL    HW211797   3.988  10.749  11.683
 3322SOL     OW11798   5.794  12.896   1.957
 3322SOL    HW111799   5.885  12.893   1.927
 3322SOL    HW211800   5.801  12.913   2.051
 3323SOL     OW11801   2.102   9.638  12.438
 3323SOL    HW111802   2.063   9.578  12.502
 3323SOL    HW211803   2.028   9.672  12.388
 3324SOL     OW11804   7.136   3.871   3.281
 3324SOL    HW111805   7.188   3.944   3.249
 3324SOL    HW211806   7.172   3.794   3.236
 3325SOL     OW11807   4.735   8.179   4.959
 3325SOL    HW111808   4.785   8.122   4.901
 3325SOL    HW211809   4.650   8.190   4.916
 3326SOL     OW11810   2.297  11.877  10.825
 3326SOL    HW111811   2.251  11.817  10.766
 3326SOL    HW211812   2.310  11.956  10.772
 3327SOL     OW11813   2.953   1.630  12.959
 3327SOL    HW111814   2.913   1.689  12.895
 3327SOL    HW211815   2.881   1.608  13.019
 3328SOL     OW11816   4.610   7.224   2.100
 3328SOL    HW111817   4.555   7.301   2.105
 3328SOL    HW211818   4.548   7.151   2.091
 3329SOL     OW11819   6.112   2.630  14.517
 3329SOL    HW111820   6.044   2.690  14.548
 3329SOL    HW211821   6.126   2.570  14.590
 3330SOL     OW11822   3.759  10.640   9.084
 3330SOL    HW111823   3.814  10.629   9.006
 3330SOL    HW211824   3.679  10.681   9.051
 3331SOL     OW11825   9.729   4.119   8.713
 3331SOL    HW111826   9.640   4.107   8.681
 3331SOL    HW211827   9.722   4.105   8.808
 3332SOL     OW11828   1.274   7.382   9.349
 3332SOL    HW111829   1.252   7.466   9.390
 3332SOL    HW211830   1.253   7.316   9.415
 3333SOL     OW11831   6.011   3.696   8.830
 3333SOL    HW111832   6.100   3.682   8.797
 3333SOL    HW211833   6.021   3.694   8.925
 3334SOL     OW11834   5.770   1.151   5.786
 3334SOL    HW111835   5.728   1.179   5.705
 3334SOL    HW211836   5.826   1.077   5.760
 3335SOL     OW11837   7.397   7.567   5.772
 3335SOL    HW111838   7.336   7.633   5.738
 3335SOL    HW211839   7.343   7.508   5.824
 3336SOL     OW11840   8.450   6.594   6.298
 3336SOL    HW111841   8.451   6.505   6.333
 3336SOL    HW211842   8.392   6.588   6.221
 3337SOL     OW11843   1.977   3.988   9.185
 3337SOL    HW111844   2.070   3.983   9.164
 3337SOL    HW211845   1.933   3.991   9.100
 3338SOL     OW11846   0.619   8.612   5.989
 3338SOL    HW111847   0.620   8.654   5.903
 3338SOL    HW211848   0.614   8.518   5.970
 3339SOL     OW11849   5.235   5.536  13.292
 3339SOL    HW111850   5.216   5.507  13.203
 3339SOL    HW211851   5.289   5.466  13.329
 3340SOL     OW11852  10.011   8.372   2.958
 3340SOL    HW111853  10.074   8.308   2.923
 3340SOL    HW211854  10.063   8.452   2.966
 3341SOL     OW11855   1.832   6.438   1.920
 3341SOL    HW111856   1.751   6.489   1.917
 3341SOL    HW211857   1.803   6.347   1.917
 3342SOL     OW11858   7.564  10.823  12.794
 3342SOL    HW111859   7.481  10.864  12.771
 3342SOL    HW211860   7.613  10.892  12.840
 3343SOL     OW11861   0.768   5.360   7.866
 3343SOL    HW111862   0.679   5.364   7.901
 3343SOL    HW211863   0.805   5.280   7.903
 3344SOL     OW11864   5.919   7.012  13.053
 3344SOL    HW111865   5.957   7.098  13.035
 3344SOL    HW211866   5.892   6.979  12.968
 3345SOL     OW11867  13.490   4.962  13.650
 3345SOL    HW111868  13.455   4.968  13.739
 3345SOL    HW211869  13.423   5.002  13.595
 3346SOL     OW11870  11.576  12.852   8.050
 3346SOL    HW111871  11.488  12.889   8.056
 3346SOL    HW211872  11.612  12.887   7.968
 3347SOL     OW11873   9.476   4.353  12.835
 3347SOL    HW111874   9.531   4.294  12.886
 3347SOL    HW211875   9.403   4.373  12.892
 3348SOL     OW11876   2.717   9.257   2.592
 3348SOL    HW111877   2.779   9.328   2.613
 3348SOL    HW211878   2.772   9.178   2.590
 3349SOL     OW11879   5.137   3.091  12.912
 3349SOL    HW111880   5.221   3.077  12.955
 3349SOL    HW211881   5.113   3.181  12.935
 3350SOL     OW11882   7.284  13.977   6.913
 3350SOL    HW111883   7.283  13.953   7.006
 3350SOL    HW211884   7.374  13.961   6.885
 3351SOL     OW11885  13.274   0.949  12.978
 3351SOL    HW111886  13.366   0.938  12.956
 3351SOL    HW211887  13.272   1.022  13.039
 3352SOL     OW11888   6.826   3.219   1.064
 3352SOL    HW111889   6.867   3.239   1.148
 3352SOL    HW211890   6.814   3.305   1.023
 3353SOL     OW11891  10.869   3.690   7.192
 3353SOL    HW111892  10.881   3.595   7.200
 3353SOL    HW211893  10.785   3.699   7.145
 3354SOL     OW11894  13.678   9.190   9.096
 3354SOL    HW111895  13.699   9.265   9.152
 3354SOL    HW211896  13.587   9.204   9.070
 3355SOL     OW11897  13.729  11.470   9.900
 3355SOL    HW111898  13.684  11.414   9.837
 3355SOL    HW211899  13.698  11.440   9.985
 3356SOL     OW11900   1.169   2.727   0.184
 3356SOL    HW111901   1.238   2.776   0.139
 3356SOL    HW211902   1.093   2.784   0.181
 3357SOL     OW11903   2.755   4.092   8.844
 3357SOL    HW111904   2.742   4.147   8.921
 3357SOL    HW211905   2.754   4.153   8.771
 3358SOL     OW11906   5.424   2.312   3.027
 3358SOL    HW111907   5.495   2.329   3.090
 3358SOL    HW211908   5.456   2.349   2.945
 3359SOL     OW11909  10.862   8.583  11.979
 3359SOL    HW111910  10.797   8.545  11.920
 3359SOL    HW211911  10.810   8.634  12.042
 3360SOL     OW11912   8.933   8.019   0.165
 3360SOL    HW111913   8.905   7.976   0.084
 3360SOL    HW211914   8.854   8.063   0.198
 3361SOL     OW11915  12.877   3.723   9.912
 3361SOL    HW111916  12.881   3.813   9.945
 3361SOL    HW211917  12.801   3.684   9.956
 3362SOL     OW11918   9.404   3.251   2.754
 3362SOL    HW111919   9.470   3.252   2.684
 3362SOL    HW211920   9.403   3.340   2.788
 3363SOL     OW11921  10.422  14.746   6.262
 3363SOL    HW111922  10.514  14.766   6.279
 3363SOL    HW211923  10.382  14.830   6.244
 3364SOL     OW11924   3.314   2.084   2.189
 3364SOL    HW111925   3.326   1.994   2.220
 3364SOL    HW211926   3.392   2.131   2.219
 3365SOL     OW11927  13.545  13.135  13.683
 3365SOL    HW111928  13.507  13.077  13.750
 3365SOL    HW211929  13.472  13.155  13.625
 3366SOL     OW11930   8.956  11.446   3.878
 3366SOL    HW111931   9.030  11.506   3.867
 3366SOL    HW211932   8.969  11.406   3.964
 3367SOL     OW11933   3.377   8.073   8.284
 3367SOL    HW111934   3.311   8.143   8.278
 3367SOL    HW211935   3.434   8.101   8.356
 3368SOL     OW11936   7.684   8.542  10.214
 3368SOL    HW111937   7.730   8.547  10.297
 3368SOL    HW211938   7.741   8.489  10.158
 3369SOL     OW11939  12.369  12.008  10.134
 3369SOL    HW111940  12.295  11.972  10.183
 3369SOL    HW211941  12.363  12.103  10.149
 3370SOL     OW11942   1.905  11.930  10.970
 3370SOL    HW111943   1.947  12.015  10.964
 3370SOL    HW211944   1.842  11.939  11.041
 3371SOL     OW11945  13.798   1.892  13.419
 3371SOL    HW111946  13.851   1.817  13.449
 3371SOL    HW211947  13.782   1.943  13.498
 3372SOL     OW11948   4.740  10.759  14.483
 3372SOL    HW111949   4.822  10.711  14.470
 3372SOL    HW211950   4.671  10.695  14.467
 3373SOL     OW11951   3.588   8.040   0.371
 3373SOL    HW111952   3.639   8.063   0.449
 3373SOL    HW211953   3.654   8.027   0.303
 3374SOL     OW11954   8.902   9.170   9.706
 3374SOL    HW111955   8.941   9.098   9.657
 3374SOL    HW211956   8.941   9.164   9.793
 3375SOL     OW11957   3.795  10.250   6.439
 3375SOL    HW111958   3.842  10.219   6.362
 3375SOL    HW211959   3.772  10.170   6.487
 3376SOL     OW11960   3.196   7.416  12.179
 3376SOL    HW111961   3.272   7.383  12.225
 3376SOL    HW211962   3.134   7.439  12.248
 3377SOL     OW11963  13.461  11.226   4.453
 3377SOL    HW111964  13.549  11.200   4.427
 3377SOL    HW211965  13.471  11.319   4.477
 3378SOL     OW11966  10.059   7.367  14.595
 3378SOL    HW111967  10.071   7.367  14.500
 3378SOL    HW211968   9.964   7.370  14.606
 3379SOL     OW11969  13.090   0.659   5.795
 3379SOL    HW111970  13.181   0.633   5.806
 3379SOL    HW211971  13.067   0.631   5.707
 3380SOL     OW11972   5.444   8.784   5.899
 3380SOL    HW111973   5.529   8.795   5.943
 3380SOL    HW211974   5.460   8.715   5.835
 3381SOL     OW11975   3.023   7.801   6.897
 3381SOL    HW111976   3.056   7.771   6.982
 3381SOL    HW211977   2.928   7.784   6.901
 3382SOL     OW11978   9.252   4.167  13.213
 3382SOL    HW111979   9.248   4.074  13.194
 3382SOL    HW211980   9.345   4.185  13.227
 3383SOL     OW11981   3.024  10.211  13.612
 3383SOL    HW111982   2.944  10.228  13.663
 3383SOL    HW211983   3.094  10.254  13.662
 3384SOL     OW11984  12.384  11.251   1.035
 3384SOL    HW111985  12.399  11.345   1.044
 3384SOL    HW211986  12.430  11.212   1.109
 3385SOL     OW11987  10.202   6.501  13.572
 3385SOL    HW111988  10.170   6.567  13.633
 3385SOL    HW211989  10.289   6.478  13.605
 3386SOL     OW11990   5.472  13.936   2.137
 3386SOL    HW111991   5.445  13.846   2.156
 3386SOL    HW211992   5.517  13.930   2.053
 3387SOL     OW11993  10.376   2.922   3.308
 3387SOL    HW111994  10.294   2.969   3.303
 3387SOL    HW211995  10.398   2.920   3.401
 3388SOL     OW11996  14.606   3.120   1.468
 3388SOL    HW111997  14.599   3.184   1.539
 3388SOL    HW211998  14.700   3.113   1.452
 3389SOL     OW11999   2.596   2.365   7.262
 3389SOL    HW112000   2.536   2.294   7.285
 3389SOL    HW212001   2.669   2.355   7.324
 3390SOL     OW12002   4.828   5.738   4.217
 3390SOL    HW112003   4.908   5.692   4.241
 3390SOL    HW212004   4.809   5.796   4.291
 3391SOL     OW12005   6.442  13.199  11.378
 3391SOL    HW112006   6.529  13.163  11.394
 3391SOL    HW212007   6.384  13.123  11.383
 3392SOL     OW12008  12.898   6.039  13.729
 3392SOL    HW112009  12.954   6.089  13.789
 3392SOL    HW212010  12.848   6.107  13.682
 3393SOL     OW12011   7.206   5.946   8.818
 3393SOL    HW112012   7.223   5.901   8.735
 3393SOL    HW212013   7.265   6.021   8.817
 3394SOL     OW12014  11.360  12.366  14.083
 3394SOL    HW112015  11.265  12.360  14.097
 3394SOL    HW212016  11.390  12.431  14.147
 3395SOL     OW12017   2.787   0.384   7.578
 3395SOL    HW112018   2.827   0.303   7.548
 3395SOL    HW212019   2.859   0.432   7.620
 3396SOL     OW12020   4.814   5.926   7.022
 3396SOL    HW112021   4.895   5.936   6.972
 3396SOL    HW212022   4.811   6.004   7.078
 3397SOL     OW12023   5.435   1.830   7.939
 3397SOL    HW112024   5.492   1.896   7.978
 3397SOL    HW212025   5.425   1.859   7.848
 3398SOL     OW12026   8.210   6.815   2.337
 3398SOL    HW112027   8.297   6.831   2.300
 3398SOL    HW212028   8.149   6.840   2.268
 3399SOL     OW12029   7.512   5.678   7.687
 3399SOL    HW112030   7.489   5.770   7.674
 3399SOL    HW212031   7.551   5.652   7.604
 3400SOL     OW12032   1.763  10.436   5.434
 3400SOL    HW112033   1.694  10.426   5.369
 3400SOL    HW212034   1.722  10.411   5.517
 3401SOL     OW12035   6.438  11.182   7.305
 3401SOL    HW112036   6.457  11.102   7.354
 3401SOL    HW212037   6.417  11.152   7.217
 3402SOL     OW12038   4.418   3.361  13.557
 3402SOL    HW112039   4.389   3.403  13.476
 3402SOL    HW212040   4.483   3.422  13.593
 3403SOL     OW12041   3.735   2.218  10.086
 3403SOL    HW112042   3.798   2.290  10.092
 3403SOL    HW212043   3.650   2.259  10.097
 3404SOL     OW12044  14.736  12.705   1.468
 3404SOL    HW112045  14.779  12.681   1.550
 3404SOL    HW212046  14.649  12.665   1.474
 3405SOL     OW12047  13.882  11.847  12.212
 3405SOL    HW112048  13.929  11.824  12.132
 3405SOL    HW212049  13.813  11.782  12.219
 3406SOL     OW12050  13.811   1.518   0.102
 3406SOL    HW112051  13.742   1.557   0.156
 3406SOL    HW212052  13.892   1.556   0.137
 3407SOL     OW12053   0.255  14.142   9.647
 3407SOL    HW112054   0.267  14.235   9.627
 3407SOL    HW212055   0.341  14.112   9.677
 3408SOL     OW12056   8.359  10.409  14.433
 3408SOL    HW112057   8.425  10.471  14.464
 3408SOL    HW212058   8.286  10.419  14.494
 3409SOL     OW12059   7.193   4.896   1.088
 3409SOL    HW112060   7.112   4.948   1.092
 3409SOL    HW212061   7.195   4.850   1.172
 3410SOL     OW12062   7.336   7.271   6.933
 3410SOL    HW112063   7.424   7.246   6.904
 3410SOL    HW212064   7.279   7.248   6.860
 3411SOL     OW12065   0.831  12.824   5.840
 3411SOL    HW112066   0.783  12.792   5.763
 3411SOL    HW212067   0.770  12.885   5.883
 3412SOL     OW12068   1.663  13.336  12.629
 3412SOL    HW112069   1.754  13.312  12.610
 3412SOL    HW212070   1.645  13.409  12.569
 3413SOL     OW12071   0.809   1.114  11.585
 3413SOL    HW112072   0.754   1.131  11.661
 3413SOL    HW212073   0.894   1.151  11.608
 3414SOL     OW12074   8.204   2.944  14.518
 3414SOL    HW112075   8.166   3.031  14.505
 3414SOL    HW212076   8.131   2.892  14.554
 3415SOL     OW12077  12.596  11.759   0.501
 3415SOL    HW112078  12.543  11.706   0.440
 3415SOL    HW212079  12.550  11.844   0.504
 3416SOL     OW12080   7.477   6.456   0.726
 3416SOL    HW112081   7.452   6.545   0.751
 3416SOL    HW212082   7.432   6.400   0.789
 3417SOL     OW12083   8.469  13.709   2.828
 3417SOL    HW112084   8.545  13.766   2.835
 3417SOL    HW212085   8.448  13.685   2.918
 3418SOL     OW12086   1.344  12.277   5.351
 3418SOL    HW112087   1.369  12.360   5.309
 3418SOL    HW212088   1.406  12.267   5.422
 3419SOL     OW12089  10.645   2.161   0.367
 3419SOL    HW112090  10.687   2.134   0.285
 3419SOL    HW212091  10.552   2.164   0.346
 3420SOL     OW12092   5.613   0.298  12.295
 3420SOL    HW112093   5.563   0.312  12.376
 3420SOL    HW212094   5.685   0.240  12.321
 3421SOL     OW12095  11.516   2.846  12.532
 3421SOL    HW112096  11.497   2.835  12.439
 3421SOL    HW212097  11.545   2.760  12.562
 3422SOL     OW12098  13.295  12.493  12.746
 3422SOL    HW112099  13.297  12.539  12.830
 3422SOL    HW212100  13.366  12.429  12.752
 3423SOL     OW12101  14.644   2.437   4.473
 3423SOL    HW112102  14.681   2.522   4.448
 3423SOL    HW212103  14.699   2.372   4.429
 3424SOL     OW12104   9.105  10.216   8.727
 3424SOL    HW112105   9.057  10.181   8.653
 3424SOL    HW212106   9.042  10.213   8.800
 3425SOL     OW12107   3.346   9.470   4.057
 3425SOL    HW112108   3.273   9.410   4.075
 3425SOL    HW212109   3.311   9.531   3.992
 3426SOL     OW12110  10.845   6.923   1.671
 3426SOL    HW112111  10.931   6.890   1.644
 3426SOL    HW212112  10.786   6.849   1.658
 3427SOL     OW12113  14.491  10.467   8.162
 3427SOL    HW112114  14.439  10.546   8.177
 3427SOL    HW212115  14.512  10.470   8.069
 3428SOL     OW12116  10.572  11.864   1.524
 3428SOL    HW112117  10.629  11.912   1.464
 3428SOL    HW212118  10.522  11.932   1.569
 3429SOL     OW12119  11.901  10.139   9.470
 3429SOL    HW112120  11.818  10.093   9.485
 3429SOL    HW212121  11.969  10.073   9.485
 3430SOL     OW12122   2.000   6.625  12.112
 3430SOL    HW112123   1.988   6.614  12.018
 3430SOL    HW212124   2.004   6.536  12.147
 3431SOL     OW12125  14.524   3.003   8.857
 3431SOL    HW112126  14.511   3.048   8.940
 3431SOL    HW212127  14.529   3.074   8.792
 3432SOL     OW12128   3.792   9.454   2.547
 3432SOL    HW112129   3.725   9.520   2.532
 3432SOL    HW212130   3.841   9.487   2.623
 3433SOL     OW12131   6.902   1.234  12.781
 3433SOL    HW112132   6.945   1.246  12.866
 3433SOL    HW212133   6.848   1.312  12.771
 3434SOL     OW12134   4.635   5.176   6.895
 3434SOL    HW112135   4.619   5.141   6.807
 3434SOL    HW212136   4.563   5.237   6.911
 3435SOL     OW12137  11.321   0.859   5.146
 3435SOL    HW112138  11.343   0.766   5.155
 3435SOL    HW212139  11.388   0.905   5.198
 3436SOL     OW12140   3.860  11.810   8.316
 3436SOL    HW112141   3.925  11.816   8.387
 3436SOL    HW212142   3.818  11.726   8.330
 3437SOL     OW12143   0.253   9.759   0.727
 3437SOL    HW112144   0.330   9.814   0.744
 3437SOL    HW212145   0.249   9.753   0.631
 3438SOL     OW12146  12.987  12.239   2.437
 3438SOL    HW112147  12.938  12.275   2.511
 3438SOL    HW212148  12.988  12.310   2.373
 3439SOL     OW12149   9.992   3.646  10.862
 3439SOL    HW112150  10.016   3.596  10.784
 3439SOL    HW212151  10.031   3.733  10.847
 3440SOL     OW12152   2.781  12.056  12.830
 3440SOL    HW112153   2.831  12.047  12.749
 3440SOL    HW212154   2.689  12.053  12.802
 3441SOL     OW12155  10.846   2.737   5.111
 3441SOL    HW112156  10.854   2.780   5.026
 3441SOL    HW212157  10.884   2.650   5.097
 3442SOL     OW12158  14.563   2.089   4.003
 3442SOL    HW112159  14.490   2.143   3.972
 3442SOL    HW212160  14.632   2.102   3.938
 3443SOL     OW12161   6.061   0.779   7.216
 3443SOL    HW112162   6.141   0.760   7.265
 3443SOL    HW212163   6.008   0.831   7.277
 3444SOL     OW12164   9.619   2.044   4.469
 3444SOL    HW112165   9.610   2.126   4.420
 3444SOL    HW212166   9.706   2.050   4.509
 3445SOL     OW12167   1.311   1.274   9.565
 3445SOL    HW112168   1.273   1.340   9.508
 3445SOL    HW212169   1.304   1.312   9.653
 3446SOL     OW12170  13.907  14.793   8.972
 3446SOL    HW112171  13.844  14.774   9.041
 3446SOL    HW212172  13.932  14.707   8.938
 3447SOL     OW12173   3.045   9.658   4.128
 3447SOL    HW112174   2.951   9.640   4.127
 3447SOL    HW212175   3.073   9.640   4.217
 3448SOL     OW12176  14.528   6.080   6.958
 3448SOL    HW112177  14.575   6.002   6.987
 3448SOL    HW212178  14.543   6.144   7.028
 3449SOL     OW12179   3.288   3.009   1.058
 3449SOL    HW112180   3.201   3.010   1.098
 3449SOL    HW212181   3.347   2.987   1.131
 3450SOL     OW12182   7.483  10.018  11.595
 3450SOL    HW112183   7.440  10.101  11.614
 3450SOL    HW212184   7.424   9.973  11.535
 3451SOL     OW12185   5.307   5.259   5.774
 3451SOL    HW112186   5.292   5.345   5.733
 3451SOL    HW212187   5.252   5.261   5.853
 3452SOL     OW12188   9.919  13.537   9.904
 3452SOL    HW112189   9.975  13.613   9.921
 3452SOL    HW212190   9.909  13.536   9.809
 3453SOL     OW12191  13.990  12.727   0.879
 3453SOL    HW112192  14.010  12.750   0.969
 3453SOL    HW212193  13.894  12.726   0.875
 3454SOL     OW12194  12.902   0.694   4.935
 3454SOL    HW112195  12.865   0.606   4.950
 3454SOL    HW212196  12.878   0.715   4.844
 3455SOL     OW12197   7.570   4.280   5.739
 3455SOL    HW112198   7.584   4.290   5.645
 3455SOL    HW212199   7.549   4.368   5.770
 3456SOL     OW12200   9.909   9.029   1.652
 3456SOL    HW112201   9.921   8.999   1.562
 3456SOL    HW212202   9.840   8.973   1.687
 3457SOL     OW12203   6.656  10.400   8.850
 3457SOL    HW112204   6.729  10.381   8.791
 3457SOL    HW212205   6.654  10.325   8.910
 3458SOL     OW12206   0.970   1.613  14.792
 3458SOL    HW112207   1.024   1.540  14.763
 3458SOL    HW212208   0.897   1.572  14.838
 3459SOL     OW12209   0.775   5.428   2.899
 3459SOL    HW112210   0.855   5.447   2.947
 3459SOL    HW212211   0.795   5.350   2.848
 3460SOL     OW12212   4.122   4.880   3.653
 3460SOL    HW112213   4.053   4.846   3.710
 3460SOL    HW212214   4.082   4.884   3.566
 3461SOL     OW12215   3.256  14.651   6.729
 3461SOL    HW112216   3.306  14.571   6.743
 3461SOL    HW212217   3.275  14.676   6.639
 3462SOL     OW12218  12.080  10.814  12.360
 3462SOL    HW112219  12.115  10.763  12.433
 3462SOL    HW212220  12.155  10.827  12.302
 3463SOL     OW12221   1.548   3.726  12.993
 3463SOL    HW112222   1.485   3.777  12.943
 3463SOL    HW212223   1.528   3.635  12.972
 3464SOL     OW12224   6.823   1.486  12.772
 3464SOL    HW112225   6.770   1.488  12.852
 3464SOL    HW212226   6.910   1.513  12.801
 3465SOL     OW12227   4.599   7.376   9.012
 3465SOL    HW112228   4.607   7.332   9.096
 3465SOL    HW212229   4.505   7.388   9.000
 3466SOL     OW12230  13.491  12.746   7.910
 3466SOL    HW112231  13.420  12.762   7.972
 3466SOL    HW212232  13.453  12.686   7.845
 3467SOL     OW12233  11.563   8.758   3.601
 3467SOL    HW112234  11.645   8.803   3.621
 3467SOL    HW212235  11.509   8.824   3.557
 3468SOL     OW12236   1.171   8.604   8.821
 3468SOL    HW112237   1.243   8.596   8.884
 3468SOL    HW212238   1.208   8.653   8.748
 3469SOL     OW12239   2.585  11.880  13.107
 3469SOL    HW112240   2.530  11.951  13.142
 3469SOL    HW212241   2.532  11.844  13.035
 3470SOL     OW12242   4.307   8.348   8.233
 3470SOL    HW112243   4.384   8.357   8.177
 3470SOL    HW212244   4.339   8.364   8.321
 3471SOL     OW12245   3.961   1.633   9.529
 3471SOL    HW112246   3.900   1.672   9.592
 3471SOL    HW212247   3.960   1.693   9.455
 3472SOL     OW12248  14.801   1.812   7.082
 3472SOL    HW112249  14.816   1.721   7.107
 3472SOL    HW212250  14.816   1.862   7.162
 3473SOL     OW12251  11.056  12.406   6.322
 3473SOL    HW112252  11.042  12.324   6.370
 3473SOL    HW212253  10.978  12.458   6.342
 3474SOL     OW12254   9.044  14.294  13.237
 3474SOL    HW112255   8.959  14.326  13.207
 3474SOL    HW212256   9.073  14.234  13.168
 3475SOL     OW12257   6.905  12.480   5.560
 3475SOL    HW112258   6.928  12.547   5.625
 3475SOL    HW212259   6.809  12.482   5.558
 3476SOL     OW12260   0.880   6.638   3.550
 3476SOL    HW112261   0.965   6.598   3.532
 3476SOL    HW212262   0.856   6.682   3.469
 3477SOL     OW12263   3.988   2.101   9.850
 3477SOL    HW112264   3.999   2.019   9.803
 3477SOL    HW212265   3.961   2.075   9.938
 3478SOL     OW12266   1.322   9.273   6.004
 3478SOL    HW112267   1.299   9.219   6.079
 3478SOL    HW212268   1.291   9.361   6.027
 3479SOL     OW12269   8.119  10.230   8.842
 3479SOL    HW112270   8.197  10.285   8.840
 3479SOL    HW212271   8.105  10.210   8.934
 3480SOL     OW12272  10.108   4.570   5.654
 3480SOL    HW112273  10.123   4.628   5.729
 3480SOL    HW212274  10.072   4.628   5.587
 3481SOL     OW12275   2.178  10.032   1.885
 3481SOL    HW112276   2.234  10.005   1.812
 3481SOL    HW212277   2.168   9.952   1.937
 3482SOL     OW12278  13.192  12.541  11.426
 3482SOL    HW112279  13.227  12.489  11.498
 3482SOL    HW212280  13.256  12.612  11.415
 3483SOL     OW12281  10.902   9.838   5.363
 3483SOL    HW112282  10.889   9.889   5.283
 3483SOL    HW212283  10.906   9.747   5.333
 3484SOL     OW12284  10.205   3.219   1.075
 3484SOL    HW112285  10.223   3.268   1.155
 3484SOL    HW212286  10.202   3.285   1.006
 3485SOL     OW12287  11.109   7.738   0.882
 3485SOL    HW112288  11.085   7.816   0.932
 3485SOL    HW212289  11.197   7.717   0.912
 3486SOL     OW12290  13.112  14.112  12.633
 3486SOL    HW112291  13.186  14.055  12.653
 3486SOL    HW212292  13.149  14.200  12.634
 3487SOL     OW12293   9.968  12.959   6.081
 3487SOL    HW112294  10.031  12.916   6.140
 3487SOL    HW212295  10.021  12.997   6.012
 3488SOL     OW12296   4.081   3.044  12.633
 3488SOL    HW112297   4.094   3.003  12.547
 3488SOL    HW212298   4.031   2.979  12.683
 3489SOL     OW12299   2.262   6.790   0.056
 3489SOL    HW112300   2.351   6.825   0.056
 3489SOL    HW212301   2.208   6.863   0.083
 3490SOL     OW12302   3.561   5.836   9.601
 3490SOL    HW112303   3.467   5.852   9.593
 3490SOL    HW212304   3.574   5.750   9.562
 3491SOL     OW12305   7.065  13.591  10.010
 3491SOL    HW112306   7.118  13.668  10.031
 3491SOL    HW212307   6.978  13.612  10.046
 3492SOL     OW12308   6.036   8.922   5.143
 3492SOL    HW112309   6.115   8.974   5.159
 3492SOL    HW212310   6.061   8.832   5.165
 3493SOL     OW12311   2.516   8.594   5.926
 3493SOL    HW112312   2.471   8.675   5.902
 3493SOL    HW212313   2.530   8.549   5.842
 3494SOL     OW12314  13.931  10.576  12.578
 3494SOL    HW112315  13.930  10.493  12.625
 3494SOL    HW212316  14.004  10.624  12.616
 3495SOL     OW12317  11.682   6.439   3.453
 3495SOL    HW112318  11.612   6.470   3.510
 3495SOL    HW212319  11.678   6.344   3.458
 3496SOL     OW12320   1.822   9.592   4.352
 3496SOL    HW112321   1.814   9.688   4.349
 3496SOL    HW212322   1.756   9.565   4.415
 3497SOL     OW12323  12.880  13.913   7.830
 3497SOL    HW112324  12.970  13.881   7.827
 3497SOL    HW212325  12.872  13.953   7.916
 3498SOL     OW12326   1.430   3.714  12.367
 3498SOL    HW112327   1.463   3.787  12.314
 3498SOL    HW212328   1.499   3.696  12.430
 3499SOL     OW12329  12.016   7.751   3.607
 3499SOL    HW112330  11.978   7.735   3.521
 3499SOL    HW212331  11.983   7.837   3.633
 3500SOL     OW12332   7.385  12.123   3.891
 3500SOL    HW112333   7.381  12.110   3.986
 3500SOL    HW212334   7.439  12.051   3.859
 3501SOL     OW12335  11.478   6.867  12.715
 3501SOL    HW112336  11.409   6.899  12.773
 3501SOL    HW212337  11.555   6.918  12.738
 3502SOL     OW12338  14.181   4.674   7.665
 3502SOL    HW112339  14.167   4.650   7.574
 3502SOL    HW212340  14.113   4.740   7.683
 3503SOL     OW12341   3.824  13.974  14.208
 3503SOL    HW112342   3.788  13.891  14.240
 3503SOL    HW212343   3.875  14.007  14.281
 3504SOL     OW12344  10.239   5.510  10.275
 3504SOL    HW112345  10.332   5.528  10.287
 3504SOL    HW212346  10.210   5.476  10.360
 3505SOL     OW12347  13.841   0.454   1.359
 3505SOL    HW112348  13.790   0.431   1.281
 3505SOL    HW212349  13.818   0.545   1.377
 3506SOL     OW12350   2.360   1.833   6.414
 3506SOL    HW112351   2.408   1.905   6.373
 3506SOL    HW212352   2.269   1.848   6.388
 3507SOL     OW12353   2.316  14.279   8.695
 3507SOL    HW112354   2.242  14.332   8.665
 3507SOL    HW212355   2.289  14.246   8.781
 3508SOL     OW12356  12.724  13.383   6.592
 3508SOL    HW112357  12.800  13.336   6.557
 3508SOL    HW212358  12.649  13.331   6.564
 3509SOL     OW12359   4.186  13.516   3.522
 3509SOL    HW112360   4.171  13.535   3.430
 3509SOL    HW212361   4.185  13.420   3.527
 3510SOL     OW12362  12.533  14.414   2.283
 3510SOL    HW112363  12.579  14.444   2.361
 3510SOL    HW212364  12.603  14.402   2.218
 3511SOL     OW12365   0.673  12.625   2.542
 3511SOL    HW112366   0.733  12.687   2.501
 3511SOL    HW212367   0.616  12.596   2.471
 3512SOL     OW12368   9.807   9.816   2.737
 3512SOL    HW112369   9.796   9.820   2.642
 3512SOL    HW212370   9.787   9.905   2.767
 3513SOL     OW12371  12.878  14.609   3.778
 3513SOL    HW112372  12.898  14.519   3.751
 3513SOL    HW212373  12.873  14.605   3.873
 3514SOL     OW12374  13.212   0.117   7.497
 3514SOL    HW112375  13.293   0.071   7.518
 3514SOL    HW212376  13.173   0.137   7.583
 3515SOL     OW12377   9.744   3.515   2.004
 3515SOL    HW112378   9.810   3.492   1.939
 3515SOL    HW212379   9.769   3.466   2.083
 3516SOL     OW12380   4.068   2.860  11.767
 3516SOL    HW112381   4.050   2.953  11.782
 3516SOL    HW212382   4.051   2.847  11.674
 3517SOL     OW12383  11.057  11.303   5.056
 3517SOL    HW112384  10.963  11.298   5.071
 3517SOL    HW212385  11.095  11.303   5.144
 3518SOL     OW12386   9.500   9.355   4.175
 3518SOL    HW112387   9.447   9.400   4.240
 3518SOL    HW212388   9.578   9.327   4.223
 3519SOL     OW12389  10.392   1.250   0.756
 3519SOL    HW112390  10.347   1.330   0.727
 3519SOL    HW212391  10.470   1.245   0.701
 3520SOL     OW12392   0.084   5.768   5.293
 3520SOL    HW112393   0.178   5.772   5.309
 3520SOL    HW212394   0.076   5.743   5.201
 3521SOL     OW12395  14.151   6.276  10.027
 3521SOL    HW112396  14.199   6.327   9.962
 3521SOL    HW212397  14.132   6.193   9.984
 3522SOL     OW12398  10.041   7.743  14.247
 3522SOL    HW112399   9.955   7.742  14.290
 3522SOL    HW212400  10.023   7.721  14.156
 3523SOL     OW12401   1.413   1.399   4.510
 3523SOL    HW112402   1.500   1.428   4.538
 3523SOL    HW212403   1.389   1.459   4.440
 3524SOL     OW12404   1.447  12.717   1.369
 3524SOL    HW112405   1.492  12.763   1.439
 3524SOL    HW212406   1.458  12.773   1.292
 3525SOL     OW12407  12.967   1.594   2.953
 3525SOL    HW112408  12.982   1.616   3.045
 3525SOL    HW212409  13.033   1.644   2.905
 3526SOL     OW12410  14.274   2.511  10.253
 3526SOL    HW112411  14.242   2.484  10.167
 3526SOL    HW212412  14.292   2.429  10.299
 3527SOL     OW12413  13.015   3.095   5.371
 3527SOL    HW112414  13.055   3.016   5.409
 3527SOL    HW212415  13.055   3.102   5.284
 3528SOL     OW12416   4.696   7.802  12.261
 3528SOL    HW112417   4.621   7.745  12.276
 3528SOL    HW212418   4.740   7.806  12.346
 3529SOL     OW12419   0.988  11.456   2.025
 3529SOL    HW112420   0.929  11.469   2.099
 3529SOL    HW212421   1.058  11.520   2.038
 3530SOL     OW12422   7.641   7.926   1.290
 3530SOL    HW112423   7.549   7.908   1.273
 3530SOL    HW212424   7.656   8.012   1.250
 3531SOL     OW12425   5.353   7.221   8.361
 3531SOL    HW112426   5.325   7.310   8.380
 3531SOL    HW212427   5.334   7.209   8.268
 3532SOL     OW12428  10.689   0.234  12.281
 3532SOL    HW112429  10.740   0.192  12.212
 3532SOL    HW212430  10.598   0.229  12.251
 3533SOL     OW12431  13.610   2.797  14.300
 3533SOL    HW112432  13.585   2.867  14.360
 3533SOL    HW212433  13.655   2.843  14.228
 3534SOL     OW12434   6.983   9.237  11.060
 3534SOL    HW112435   6.941   9.156  11.089
 3534SOL    HW212436   6.952   9.250  10.970
 3535SOL     OW12437   0.983   3.157  10.471
 3535SOL    HW112438   0.912   3.221  10.483
 3535SOL    HW212439   0.985   3.107  10.552
 3536SOL     OW12440   6.317   2.707  12.074
 3536SOL    HW112441   6.353   2.619  12.074
 3536SOL    HW212442   6.386   2.762  12.037
 3537SOL     OW12443   1.526  10.638   7.074
 3537SOL    HW112444   1.620  10.631   7.057
 3537SOL    HW212445   1.503  10.555   7.115
 3538SOL     OW12446   6.093   2.950   9.532
 3538SOL    HW112447   6.045   2.995   9.462
 3538SOL    HW212448   6.116   2.865   9.495
 3539SOL     OW12449   2.845  14.402   1.994
 3539SOL    HW112450   2.762  14.356   2.003
 3539SOL    HW212451   2.885  14.364   1.916
 3540SOL     OW12452   7.382  13.823   1.221
 3540SOL    HW112453   7.396  13.814   1.127
 3540SOL    HW212454   7.304  13.770   1.238
 3541SOL     OW12455  12.357   2.034   9.380
 3541SOL    HW112456  12.321   1.998   9.298
 3541SOL    HW212457  12.346   1.964   9.444
 3542SOL     OW12458   4.075   1.573  12.120
 3542SOL    HW112459   4.110   1.644  12.066
 3542SOL    HW212460   4.151   1.536  12.164
 3543SOL     OW12461   5.808   9.387   7.563
 3543SOL    HW112462   5.720   9.425   7.554
 3543SOL    HW212463   5.800   9.299   7.527
 3544SOL     OW12464   0.780   3.713   3.919
 3544SOL    HW112465   0.858   3.665   3.947
 3544SOL    HW212466   0.718   3.700   3.991
 3545SOL     OW12467   6.015   6.573   0.168
 3545SOL    HW112468   5.990   6.588   0.259
 3545SOL    HW212469   6.111   6.567   0.171
 3546SOL     OW12470  14.338  12.787   3.076
 3546SOL    HW112471  14.362  12.695   3.062
 3546SOL    HW212472  14.297  12.814   2.994
 3547SOL     OW12473  14.366   0.664  10.051
 3547SOL    HW112474  14.275   0.693  10.040
 3547SOL    HW212475  14.359   0.573  10.079
 3548SOL     OW12476  10.386   8.259   0.565
 3548SOL    HW112477  10.469   8.224   0.599
 3548SOL    HW212478  10.330   8.265   0.642
 3549SOL     OW12479  12.603   4.286   6.734
 3549SOL    HW112480  12.553   4.223   6.681
 3549SOL    HW212481  12.634   4.235   6.809
 3550SOL     OW12482  12.459   1.460   2.065
 3550SOL    HW112483  12.415   1.425   1.987
 3550SOL    HW212484  12.389   1.475   2.128
 3551SOL     OW12485   9.408  13.676   4.904
 3551SOL    HW112486   9.455  13.615   4.962
 3551SOL    HW212487   9.405  13.758   4.953
 3552SOL     OW12488   1.915   5.100  13.534
 3552SOL    HW112489   1.932   5.040  13.461
 3552SOL    HW212490   1.989   5.161  13.533
 3553SOL     OW12491  14.437  11.006  11.833
 3553SOL    HW112492  14.521  11.022  11.791
 3553SOL    HW212493  14.388  11.087  11.818
 3554SOL     OW12494   0.792  13.584  13.891
 3554SOL    HW112495   0.821  13.660  13.839
 3554SOL    HW212496   0.730  13.621  13.954
 3555SOL     OW12497   3.298  11.269   6.688
 3555SOL    HW112498   3.281  11.332   6.618
 3555SOL    HW212499   3.258  11.309   6.766
 3556SOL     OW12500   0.766   3.368  14.747
 3556SOL    HW112501   0.678   3.385  14.711
 3556SOL    HW212502   0.752   3.302  14.814
 3557SOL     OW12503   2.731   3.630  11.702
 3557SOL    HW112504   2.726   3.721  11.729
 3557SOL    HW212505   2.677   3.583  11.766
 3558SOL     OW12506   7.175  11.014   4.529
 3558SOL    HW112507   7.085  10.983   4.526
 3558SOL    HW212508   7.228  10.934   4.536
 3559SOL     OW12509   2.208  10.014  13.672
 3559SOL    HW112510   2.144   9.983  13.608
 3559SOL    HW212511   2.281   9.952  13.665
 3560SOL     OW12512   7.699  12.773  13.254
 3560SOL    HW112513   7.632  12.778  13.186
 3560SOL    HW212514   7.682  12.849  13.310
 3561SOL     OW12515   5.792  12.825  11.986
 3561SOL    HW112516   5.740  12.889  12.033
 3561SOL    HW212517   5.828  12.873  11.911
 3562SOL     OW12518   3.980   9.019  12.272
 3562SOL    HW112519   4.016   9.096  12.229
 3562SOL    HW212520   3.943   8.966  12.201
 3563SOL     OW12521   5.259   5.758  12.702
 3563SOL    HW112522   5.320   5.723  12.767
 3563SOL    HW212523   5.222   5.836  12.743
 3564SOL     OW12524  13.878  10.381   8.577
 3564SOL    HW112525  13.804  10.398   8.636
 3564SOL    HW212526  13.838  10.341   8.500
 3565SOL     OW12527  13.275  14.335  13.975
 3565SOL    HW112528  13.282  14.253  13.926
 3565SOL    HW212529  13.363  14.348  14.011
 3566SOL     OW12530   1.327   7.667  11.450
 3566SOL    HW112531   1.377   7.676  11.368
 3566SOL    HW212532   1.281   7.750  11.458
 3567SOL     OW12533  14.825  14.784   5.644
 3567SOL    HW112534  14.753  14.804   5.583
 3567SOL    HW212535   0.011  14.740   5.590
 3568SOL     OW12536   6.582   1.299   0.879
 3568SOL    HW112537   6.610   1.224   0.931
 3568SOL    HW212538   6.569   1.263   0.791
 3569SOL     OW12539   9.662  11.789   1.306
 3569SOL    HW112540   9.685  11.702   1.274
 3569SOL    HW212541   9.576  11.778   1.348
 3570SOL     OW12542   9.587   8.260   4.112
 3570SOL    HW112543   9.570   8.292   4.200
 3570SOL    HW212544   9.512   8.289   4.060
 3571SOL     OW12545   3.957   4.857   3.441
 3571SOL    HW112546   3.929   4.854   3.350
 3571SOL    HW212547   3.877   4.842   3.491
 3572SOL     OW12548   0.574  10.309   2.452
 3572SOL    HW112549   0.502  10.247   2.457
 3572SOL    HW212550   0.561  10.367   2.527
 3573SOL     OW12551   3.095   9.444  12.914
 3573SOL    HW112552   3.120   9.359  12.952
 3573SOL    HW212553   3.060   9.494  12.988
 3574SOL     OW12554   7.105   2.577  14.630
 3574SOL    HW112555   7.183   2.523  14.642
 3574SOL    HW212556   7.033   2.515  14.624
 3575SOL     OW12557  14.864   8.135  13.562
 3575SOL    HW112558  14.807   8.178  13.498
 3575SOL    HW212559  14.827   8.158  13.647
 3576SOL     OW12560   7.349  12.831  13.415
 3576SOL    HW112561   7.421  12.881  13.377
 3576SOL    HW212562   7.332  12.874  13.499
 3577SOL     OW12563   0.079   9.287   9.687
 3577SOL    HW112564   0.062   9.347   9.760
 3577SOL    HW212565   0.063   9.200   9.722
 3578SOL     OW12566   5.253   0.151  13.149
 3578SOL    HW112567   5.292   0.173  13.064
 3578SOL    HW212568   5.216   0.063  13.136
 3579SOL     OW12569  10.342   1.387   3.761
 3579SOL    HW112570  10.327   1.293   3.765
 3579SOL    HW212571  10.426   1.396   3.716
 3580SOL     OW12572  13.549  12.598   8.375
 3580SOL    HW112573  13.529  12.531   8.440
 3580SOL    HW212574  13.567  12.677   8.427
 3581SOL     OW12575  10.390   0.958   0.543
 3581SOL    HW112576  10.416   1.049   0.532
 3581SOL    HW212577  10.369   0.949   0.635
 3582SOL     OW12578   3.299  10.625   5.790
 3582SOL    HW112579   3.244  10.586   5.722
 3582SOL    HW212580   3.254  10.607   5.872
 3583SOL     OW12581   6.624   6.315   4.748
 3583SOL    HW112582   6.635   6.353   4.661
 3583SOL    HW212583   6.551   6.253   4.739
 3584SOL     OW12584   5.355   8.723   0.201
 3584SOL    HW112585   5.320   8.635   0.183
 3584SOL    HW212586   5.309   8.780   0.138
 3585SOL     OW12587   4.355  13.134  14.583
 3585SOL    HW112588   4.310  13.202  14.533
 3585SOL    HW212589   4.375  13.066  14.520
 3586SOL     OW12590   8.860   2.245  12.068
 3586SOL    HW112591   8.864   2.253  11.973
 3586SOL    HW212592   8.831   2.331  12.099
 3587SOL     OW12593   6.589   4.515   9.346
 3587SOL    HW112594   6.509   4.498   9.396
 3587SOL    HW212595   6.570   4.596   9.298
 3588SOL     OW12596   0.228   3.544   7.771
 3588SOL    HW112597   0.283   3.528   7.847
 3588SOL    HW212598   0.285   3.528   7.696
 3589SOL     OW12599   7.976   8.139   4.650
 3589SOL    HW112600   7.886   8.155   4.679
 3589SOL    HW212601   8.000   8.219   4.604
 3590SOL     OW12602   1.289  14.705   0.241
 3590SOL    HW112603   1.315  14.616   0.263
 3590SOL    HW212604   1.271  14.702   0.147
 3591SOL     OW12605   5.114   6.333   3.049
 3591SOL    HW112606   5.090   6.378   2.968
 3591SOL    HW212607   5.051   6.365   3.114
 3592SOL     OW12608   9.908   8.263   5.248
 3592SOL    HW112609   9.895   8.357   5.241
 3592SOL    HW212610   9.823   8.225   5.228
 3593SOL     OW12611   4.488   6.047   5.271
 3593SOL    HW112612   4.473   5.953   5.258
 3593SOL    HW212613   4.434   6.070   5.347
 3594SOL     OW12614   9.267   9.277   8.272
 3594SOL    HW112615   9.205   9.307   8.205
 3594SOL    HW212616   9.262   9.344   8.341
 3595SOL     OW12617   3.908   8.125  10.642
 3595SOL    HW112618   3.952   8.201  10.681
 3595SOL    HW212619   3.979   8.063  10.623
 3596SOL     OW12620  12.502   2.039   9.098
 3596SOL    HW112621  12.421   1.988   9.107
 3596SOL    HW212622  12.475   2.130   9.107
 3597SOL     OW12623   6.850   5.792  10.769
 3597SOL    HW112624   6.764   5.780  10.810
 3597SOL    HW212625   6.848   5.736  10.692
 3598SOL     OW12626   1.466   9.857  11.563
 3598SOL    HW112627   1.403   9.818  11.623
 3598SOL    HW212628   1.548   9.861  11.614
 3599SOL     OW12629   0.271   6.387   8.799
 3599SOL    HW112630   0.185   6.388   8.758
 3599SOL    HW212631   0.291   6.480   8.814
 3600SOL     OW12632   5.649   4.723   9.963
 3600SOL    HW112633   5.613   4.651  10.014
 3600SOL    HW212634   5.585   4.794   9.974
 3601SOL     OW12635   3.532  10.622  12.476
 3601SOL    HW112636   3.474  10.610  12.401
 3601SOL    HW212637   3.560  10.534  12.499
 3602SOL     OW12638   5.891   5.794   0.106
 3602SOL    HW112639   5.797   5.800   0.122
 3602SOL    HW212640   5.909   5.865   0.044
 3603SOL     OW12641   3.223   1.718   9.668
 3603SOL    HW112642   3.240   1.624   9.667
 3603SOL    HW212643   3.136   1.727   9.707
 3604SOL     OW12644   1.183   3.384  10.700
 3604SOL    HW112645   1.111   3.400  10.638
 3604SOL    HW212646   1.231   3.466  10.702
 3605SOL     OW12647   1.807  13.453  14.751
 3605SOL    HW112648   1.725  13.410  14.776
 3605SOL    HW212649   1.842  13.487  14.833
 3606SOL     OW12650   0.477   2.960   0.409
 3606SOL    HW112651   0.499   2.898   0.478
 3606SOL    HW212652   0.465   3.043   0.455
 3607SOL     OW12653   8.578   8.439   6.579
 3607SOL    HW112654   8.535   8.388   6.648
 3607SOL    HW212655   8.563   8.389   6.499
 3608SOL     OW12656  11.797  12.118   7.335
 3608SOL    HW112657  11.725  12.171   7.367
 3608SOL    HW212658  11.866  12.182   7.314
 3609SOL     OW12659   3.510  10.645   6.494
 3609SOL    HW112660   3.585  10.586   6.495
 3609SOL    HW212661   3.536  10.718   6.550
 3610SOL     OW12662   0.561  13.822   5.373
 3610SOL    HW112663   0.636  13.880   5.377
 3610SOL    HW212664   0.588  13.744   5.421
 3611SOL     OW12665   3.421   4.121   6.264
 3611SOL    HW112666   3.469   4.175   6.326
 3611SOL    HW212667   3.329   4.141   6.281
 3612SOL     OW12668   6.958  13.030   2.704
 3612SOL    HW112669   6.880  13.067   2.663
 3612SOL    HW212670   6.957  12.937   2.679
 3613SOL     OW12671  13.959   1.920   5.773
 3613SOL    HW112672  14.054   1.926   5.763
 3613SOL    HW212673  13.926   1.997   5.726
 3614SOL     OW12674  13.038   9.457   2.640
 3614SOL    HW112675  13.129   9.446   2.668
 3614SOL    HW212676  13.030   9.551   2.621
 3615SOL     OW12677   0.116  12.686   2.361
 3615SOL    HW112678   0.148  12.696   2.451
 3615SOL    HW212679   0.170  12.747   2.310
 3616SOL     OW12680   6.728   5.283  12.496
 3616SOL    HW112681   6.723   5.195  12.535
 3616SOL    HW212682   6.819   5.292  12.470
 3617SOL     OW12683   0.548   5.675   3.530
 3617SOL    HW112684   0.604   5.603   3.501
 3617SOL    HW212685   0.460   5.638   3.533
 3618SOL     OW12686   6.972   1.251   4.711
 3618SOL    HW112687   6.987   1.207   4.627
 3618SOL    HW212688   6.909   1.321   4.691
 3619SOL     OW12689  13.429   7.016   9.364
 3619SOL    HW112690  13.375   7.083   9.405
 3619SOL    HW212691  13.399   6.934   9.402
 3620SOL     OW12692   2.041  12.200   4.104
 3620SOL    HW112693   2.035  12.291   4.130
 3620SOL    HW212694   2.135  12.182   4.099
 3621SOL     OW12695  10.973  11.208   0.579
 3621SOL    HW112696  10.995  11.137   0.639
 3621SOL    HW212697  10.964  11.165   0.494
 3622SOL     OW12698   7.152   7.241   3.131
 3622SOL    HW112699   7.081   7.305   3.137
 3622SOL    HW212700   7.217   7.270   3.194
 3623SOL     OW12701   1.209  11.859   5.467
 3623SOL    HW112702   1.202  11.766   5.447
 3623SOL    HW212703   1.281  11.889   5.412
 3624SOL     OW12704  10.053   4.250   2.187
 3624SOL    HW112705   9.981   4.187   2.186
 3624SOL    HW212706  10.132   4.196   2.184
 3625SOL     OW12707   8.711   2.021   2.168
 3625SOL    HW112708   8.740   1.930   2.177
 3625SOL    HW212709   8.782   2.065   2.122
 3626SOL     OW12710   4.110   5.316  10.075
 3626SOL    HW112711   4.205   5.306  10.071
 3626SOL    HW212712   4.096   5.399  10.122
 3627SOL     OW12713   9.731   6.859   3.642
 3627SOL    HW112714   9.736   6.930   3.579
 3627SOL    HW212715   9.676   6.893   3.713
 3628SOL     OW12716  13.553  14.332   5.085
 3628SOL    HW112717  13.630  14.347   5.139
 3628SOL    HW212718  13.480  14.332   5.147
 3629SOL     OW12719  13.855  13.917   1.936
 3629SOL    HW112720  13.945  13.919   1.966
 3629SOL    HW212721  13.813  13.849   1.989
 3630SOL     OW12722  14.647  10.924   9.181
 3630SOL    HW112723  14.640  10.977   9.101
 3630SOL    HW212724  14.605  10.977   9.248
 3631SOL     OW12725   1.663  13.095   4.374
 3631SOL    HW112726   1.700  13.171   4.418
 3631SOL    HW212727   1.732  13.028   4.381
 3632SOL     OW12728  14.053  12.190  10.490
 3632SOL    HW112729  14.148  12.180  10.488
 3632SOL    HW212730  14.035  12.265  10.434
 3633SOL     OW12731  12.300   6.513  14.789
 3633SOL    HW112732  12.335   6.501  14.701
 3633SOL    HW212733  12.313   6.429  14.832
 3634SOL     OW12734   3.675  10.926  14.185
 3634SOL    HW112735   3.595  10.898  14.139
 3634SOL    HW212736   3.742  10.863  14.157
 3635SOL     OW12737  13.810   2.549   5.809
 3635SOL    HW112738  13.773   2.531   5.895
 3635SOL    HW212739  13.893   2.594   5.828
 3636SOL     OW12740  11.057   8.892   9.807
 3636SOL    HW112741  10.969   8.869   9.777
 3636SOL    HW212742  11.068   8.843   9.889
 3637SOL     OW12743  14.612   0.839  12.643
 3637SOL    HW112744  14.535   0.893  12.627
 3637SOL    HW212745  14.578   0.751  12.655
 3638SOL     OW12746   5.870   8.451   2.683
 3638SOL    HW112747   5.927   8.401   2.741
 3638SOL    HW212748   5.929   8.498   2.625
 3639SOL     OW12749  11.465  14.570   3.928
 3639SOL    HW112750  11.514  14.487   3.921
 3639SOL    HW212751  11.377  14.544   3.955
 3640SOL     OW12752   3.844   9.142  13.194
 3640SOL    HW112753   3.780   9.088  13.240
 3640SOL    HW212754   3.881   9.198  13.262
 3641SOL     OW12755   0.141   2.221   8.589
 3641SOL    HW112756   0.134   2.299   8.534
 3641SOL    HW212757   0.165   2.151   8.528
 3642SOL     OW12758  11.380   8.073   3.105
 3642SOL    HW112759  11.443   8.008   3.135
 3642SOL    HW212760  11.341   8.108   3.185
 3643SOL     OW12761   5.240  10.550  14.421
 3643SOL    HW112762   5.320  10.602  14.414
 3643SOL    HW212763   5.206  10.570  14.508
 3644SOL     OW12764   0.519   1.528  12.168
 3644SOL    HW112765   0.432   1.568  12.166
 3644SOL    HW212766   0.576   1.592  12.125
 3645SOL     OW12767   7.780  12.922   1.528
 3645SOL    HW112768   7.803  12.981   1.456
 3645SOL    HW212769   7.858  12.868   1.540
 3646SOL     OW12770  14.792   5.724   4.530
 3646SOL    HW112771  14.829   5.642   4.563
 3646SOL    HW212772  14.705   5.729   4.570
 3647SOL     OW12773   2.525   6.071   1.734
 3647SOL    HW112774   2.611   6.109   1.713
 3647SOL    HW212775   2.503   6.018   1.657
 3648SOL     OW12776   4.179  12.352  10.560
 3648SOL    HW112777   4.225  12.269  10.576
 3648SOL    HW212778   4.088  12.327  10.545
 3649SOL     OW12779   2.540   1.017  10.780
 3649SOL    HW112780   2.622   1.065  10.785
 3649SOL    HW212781   2.504   1.039  10.694
 3650SOL     OW12782   5.046   1.193   3.923
 3650SOL    HW112783   4.987   1.253   3.878
 3650SOL    HW212784   4.989   1.132   3.969
 3651SOL     OW12785   2.208  14.870   5.540
 3651SOL    HW112786   2.187  14.879   5.447
 3651SOL    HW212787   2.216  14.776   5.554
 3652SOL     OW12788   6.036   0.912  13.816
 3652SOL    HW112789   6.106   0.887  13.756
 3652SOL    HW212790   6.081   0.939  13.896
 3653SOL     OW12791   3.139  13.641  10.198
 3653SOL    HW112792   3.139  13.565  10.256
 3653SOL    HW212793   3.183  13.612  10.119
 3654SOL     OW12794   0.604   9.085   4.557
 3654SOL    HW112795   0.654   9.139   4.618
 3654SOL    HW212796   0.589   9.003   4.605
 3655SOL     OW12797   7.123   5.259  12.707
 3655SOL    HW112798   7.127   5.312  12.787
 3655SOL    HW212799   7.062   5.188  12.729
 3656SOL     OW12800   9.635  10.146   5.556
 3656SOL    HW112801   9.672  10.119   5.640
 3656SOL    HW212802   9.649  10.241   5.553
 3657SOL     OW12803   1.935   1.110   7.652
 3657SOL    HW112804   1.996   1.098   7.579
 3657SOL    HW212805   1.913   1.021   7.680
 3658SOL     OW12806   1.783   0.833  12.107
 3658SOL    HW112807   1.698   0.806  12.141
 3658SOL    HW212808   1.835   0.753  12.105
 3659SOL     OW12809   9.216   3.655   0.659
 3659SOL    HW112810   9.168   3.600   0.597
 3659SOL    HW212811   9.303   3.664   0.621
 3660SOL     OW12812  14.470   1.833  13.396
 3660SOL    HW112813  14.485   1.803  13.486
 3660SOL    HW212814  14.480   1.754  13.343
 3661SOL     OW12815   5.762   4.317   4.939
 3661SOL    HW112816   5.700   4.292   5.007
 3661SOL    HW212817   5.721   4.288   4.857
 3662SOL     OW12818   6.578  14.548  12.885
 3662SOL    HW112819   6.611  14.636  12.864
 3662SOL    HW212820   6.645  14.511  12.942
 3663SOL     OW12821  11.010  11.816   1.097
 3663SOL    HW112822  11.015  11.813   1.002
 3663SOL    HW212823  10.954  11.892   1.116
 3664SOL     OW12824   2.660   4.666   5.053
 3664SOL    HW112825   2.569   4.644   5.075
 3664SOL    HW212826   2.669   4.643   4.961
 3665SOL     OW12827  11.570   4.923  13.937
 3665SOL    HW112828  11.597   4.909  14.027
 3665SOL    HW212829  11.610   5.007  13.913
 3666SOL     OW12830   0.714   9.647   7.195
 3666SOL    HW112831   0.790   9.589   7.193
 3666SOL    HW212832   0.711   9.679   7.286
 3667SOL     OW12833   6.161   8.368  11.289
 3667SOL    HW112834   6.233   8.356  11.351
 3667SOL    HW212835   6.177   8.454  11.250
 3668SOL     OW12836   9.914   8.574   1.927
 3668SOL    HW112837   9.933   8.504   1.989
 3668SOL    HW212838  10.000   8.603   1.896
 3669SOL     OW12839   4.917   0.285   5.041
 3669SOL    HW112840   4.974   0.345   4.992
 3669SOL    HW212841   4.968   0.259   5.117
 3670SOL     OW12842  13.925   7.727  13.557
 3670SOL    HW112843  13.950   7.678  13.478
 3670SOL    HW212844  13.895   7.812  13.524
 3671SOL     OW12845   1.522   6.711  12.967
 3671SOL    HW112846   1.570   6.726  12.885
 3671SOL    HW212847   1.575   6.755  13.033
 3672SOL     OW12848   7.136  14.234   9.116
 3672SOL    HW112849   7.121  14.150   9.074
 3672SOL    HW212850   7.187  14.214   9.194
 3673SOL     OW12851   4.735   5.136   8.250
 3673SOL    HW112852   4.678   5.208   8.223
 3673SOL    HW212853   4.741   5.144   8.346
 3674SOL     OW12854   5.634   9.305   8.938
 3674SOL    HW112855   5.704   9.310   9.003
 3674SOL    HW212856   5.630   9.393   8.900
 3675SOL     OW12857   4.511   6.341  10.586
 3675SOL    HW112858   4.539   6.272  10.646
 3675SOL    HW212859   4.446   6.390  10.635
 3676SOL     OW12860   1.299  14.078   1.124
 3676SOL    HW112861   1.329  14.061   1.214
 3676SOL    HW212862   1.254  13.998   1.099
 3677SOL     OW12863  14.855   0.284   1.371
 3677SOL    HW112864  14.820   0.263   1.457
 3677SOL    HW212865  14.782   0.326   1.325
 3678SOL     OW12866   4.356   3.208   8.568
 3678SOL    HW112867   4.390   3.144   8.505
 3678SOL    HW212868   4.303   3.268   8.515
 3679SOL     OW12869   4.860   6.785  11.279
 3679SOL    HW112870   4.895   6.699  11.257
 3679SOL    HW212871   4.894   6.802  11.367
 3680SOL     OW12872   8.008   3.507   9.838
 3680SOL    HW112873   7.948   3.573   9.803
 3680SOL    HW212874   8.082   3.507   9.778
 3681SOL     OW12875   0.797   9.592   4.757
 3681SOL    HW112876   0.721   9.555   4.711
 3681SOL    HW212877   0.844   9.641   4.690
 3682SOL     OW12878   8.786   1.850   9.184
 3682SOL    HW112879   8.695   1.840   9.211
 3682SOL    HW212880   8.784   1.849   9.089
 3683SOL     OW12881   6.628   1.516   2.208
 3683SOL    HW112882   6.574   1.484   2.136
 3683SOL    HW212883   6.678   1.589   2.171
 3684SOL     OW12884  12.833   7.589  11.020
 3684SOL    HW112885  12.740   7.575  11.034
 3684SOL    HW212886  12.837   7.663  10.958
 3685SOL     OW12887  11.011  10.241   7.870
 3685SOL    HW112888  11.065  10.234   7.949
 3685SOL    HW212889  10.932  10.287   7.898
 3686SOL     OW12890  11.180   3.494   0.746
 3686SOL    HW112891  11.175   3.498   0.651
 3686SOL    HW212892  11.257   3.440   0.764
 3687SOL     OW12893  13.972  13.948   7.297
 3687SOL    HW112894  13.960  13.903   7.213
 3687SOL    HW212895  13.992  13.878   7.359
 3688SOL     OW12896   7.721   4.207   4.753
 3688SOL    HW112897   7.776   4.243   4.823
 3688SOL    HW212898   7.782   4.185   4.683
 3689SOL     OW12899   6.697  13.981  14.422
 3689SOL    HW112900   6.655  14.056  14.379
 3689SOL    HW212901   6.778  14.017  14.458
 3690SOL     OW12902  10.850   1.778   1.532
 3690SOL    HW112903  10.863   1.700   1.587
 3690SOL    HW212904  10.920   1.773   1.467
 3691SOL     OW12905   8.476  12.133   0.771
 3691SOL    HW112906   8.570  12.151   0.770
 3691SOL    HW212907   8.453  12.118   0.679
 3692SOL     OW12908   4.173   7.777  14.222
 3692SOL    HW112909   4.227   7.847  14.184
 3692SOL    HW212910   4.155   7.718  14.149
 3693SOL     OW12911   0.578   7.943   1.077
 3693SOL    HW112912   0.550   8.026   1.039
 3693SOL    HW212913   0.585   7.960   1.171
 3694SOL     OW12914   7.767   0.398   5.432
 3694SOL    HW112915   7.715   0.468   5.471
 3694SOL    HW212916   7.771   0.419   5.339
 3695SOL     OW12917   6.826  10.500   2.449
 3695SOL    HW112918   6.842  10.497   2.355
 3695SOL    HW212919   6.736  10.533   2.457
 3696SOL     OW12920  14.297   3.386   5.391
 3696SOL    HW112921  14.388   3.370   5.416
 3696SOL    HW212922  14.293   3.481   5.374
 3697SOL     OW12923   2.841   4.233   1.940
 3697SOL    HW112924   2.894   4.289   1.996
 3697SOL    HW212925   2.904   4.196   1.877
 3698SOL     OW12926   5.185   3.838   7.165
 3698SOL    HW112927   5.155   3.790   7.242
 3698SOL    HW212928   5.106   3.877   7.128
 3699SOL     OW12929   5.684   1.631   1.998
 3699SOL    HW112930   5.692   1.700   2.064
 3699SOL    HW212931   5.757   1.646   1.938
 3700SOL     OW12932   9.192   5.669  11.672
 3700SOL    HW112933   9.281   5.704  11.680
 3700SOL    HW212934   9.204   5.580  11.641
 3701SOL     OW12935   3.600  13.842   4.729
 3701SOL    HW112936   3.643  13.779   4.788
 3701SOL    HW212937   3.623  13.927   4.766
 3702SOL     OW12938  11.773  10.135  14.192
 3702SOL    HW112939  11.757  10.053  14.239
 3702SOL    HW212940  11.858  10.122  14.150
 3703SOL     OW12941  10.801   5.933  14.449
 3703SOL    HW112942  10.866   5.871  14.481
 3703SOL    HW212943  10.852   6.003  14.409
 3704SOL     OW12944   0.041   6.749   6.038
 3704SOL    HW112945   0.086   6.678   5.994
 3704SOL    HW212946  14.834   6.713   6.060
 3705SOL     OW12947   6.029   8.664   6.180
 3705SOL    HW112948   6.088   8.613   6.235
 3705SOL    HW212949   6.034   8.753   6.217
 3706SOL     OW12950   3.828  11.955  11.704
 3706SOL    HW112951   3.861  11.958  11.614
 3706SOL    HW212952   3.779  11.872  11.708
 3707SOL     OW12953  11.453   2.787  11.304
 3707SOL    HW112954  11.489   2.779  11.215
 3707SOL    HW212955  11.393   2.713  11.312
 3708SOL     OW12956   3.174   2.353  12.779
 3708SOL    HW112957   3.138   2.418  12.839
 3708SOL    HW212958   3.232   2.300  12.832
 3709SOL     OW12959   5.900  10.280  10.790
 3709SOL    HW112960   5.988  10.245  10.776
 3709SOL    HW212961   5.854  10.265  10.707
 3710SOL     OW12962  11.685  11.098  10.888
 3710SOL    HW112963  11.732  11.042  10.827
 3710SOL    HW212964  11.730  11.183  10.882
 3711SOL     OW12965   6.224   6.003  12.624
 3711SOL    HW112966   6.171   5.950  12.683
 3711SOL    HW212967   6.245   5.945  12.551
 3712SOL     OW12968   1.126   4.494  13.923
 3712SOL    HW112969   1.195   4.485  13.858
 3712SOL    HW212970   1.088   4.407  13.930
 3713SOL     OW12971   8.454   4.387   2.804
 3713SOL    HW112972   8.514   4.460   2.789
 3713SOL    HW212973   8.484   4.348   2.886
 3714SOL     OW12974   9.635   1.062   9.401
 3714SOL    HW112975   9.707   1.104   9.446
 3714SOL    HW212976   9.588   1.134   9.358
 3715SOL     OW12977   1.706   8.175  14.032
 3715SOL    HW112978   1.619   8.172  13.993
 3715SOL    HW212979   1.756   8.232  13.975
 3716SOL     OW12980   2.604   5.674   1.230
 3716SOL    HW112981   2.686   5.664   1.183
 3716SOL    HW212982   2.546   5.718   1.168
 3717SOL     OW12983   0.735   4.783  11.976
 3717SOL    HW112984   0.691   4.771  11.892
 3717SOL    HW212985   0.757   4.694  12.006
 3718SOL     OW12986  13.337   1.421   3.433
 3718SOL    HW112987  13.313   1.329   3.447
 3718SOL    HW212988  13.426   1.417   3.399
 3719SOL     OW12989  14.310   6.924   4.602
 3719SOL    HW112990  14.256   6.987   4.650
 3719SOL    HW212991  14.251   6.889   4.534
 3720SOL     OW12992   5.808   3.749   8.438
 3720SOL    HW112993   5.749   3.712   8.372
 3720SOL    HW212994   5.804   3.844   8.423
 3721SOL     OW12995   3.105  12.937  13.345
 3721SOL    HW112996   3.090  12.888  13.264
 3721SOL    HW212997   3.044  12.899  13.408
 3722SOL     OW12998  13.905  14.568   1.186
 3722SOL    HW112999  13.857  14.651   1.188
 3722SOL    HW213000  13.994  14.592   1.161
 3723SOL     OW13001   1.448   8.490   7.679
 3723SOL    HW113002   1.422   8.417   7.623
 3723SOL    HW213003   1.387   8.488   7.752
 3724SOL     OW13004   5.764  12.117  11.897
 3724SOL    HW113005   5.692  12.101  11.836
 3724SOL    HW213006   5.724  12.115  11.984
 3725SOL     OW13007   9.991   9.347   1.470
 3725SOL    HW113008  10.034   9.369   1.553
 3725SOL    HW213009   9.898   9.363   1.487
 3726SOL     OW13010  10.491   3.367  11.446
 3726SOL    HW113011  10.494   3.457  11.412
 3726SOL    HW213012  10.577   3.331  11.423
 3727SOL     OW13013  13.918   9.530  13.940
 3727SOL    HW113014  13.964   9.454  13.906
 3727SOL    HW213015  13.919   9.593  13.868
 3728SOL     OW13016  12.475   7.915   9.942
 3728SOL    HW113017  12.523   7.913   9.858
 3728SOL    HW213018  12.503   7.836   9.987
 3729SOL     OW13019  14.784   8.777   0.073
 3729SOL    HW113020  14.875   8.804   0.086
 3729SOL    HW213021  14.774   8.775  14.857
 3730SOL     OW13022   1.072   2.241  12.268
 3730SOL    HW113023   1.058   2.224  12.175
 3730SOL    HW213024   1.034   2.328  12.283
 3731SOL     OW13025   5.475  13.498   7.120
 3731SOL    HW113026   5.503  13.407   7.108
 3731SOL    HW213027   5.420  13.517   7.044
 3732SOL     OW13028   1.616   2.545  13.769
 3732SOL    HW113029   1.625   2.610  13.700
 3732SOL    HW213030   1.692   2.489  13.760
 3733SOL     OW13031  14.426   2.746   1.802
 3733SOL    HW113032  14.367   2.718   1.872
 3733SOL    HW213033  14.368   2.769   1.730
 3734SOL     OW13034  11.642   3.170   0.860
 3734SOL    HW113035  11.649   3.112   0.936
 3734SOL    HW213036  11.550   3.163   0.834
 3735SOL     OW13037  13.496   7.945   0.970
 3735SOL    HW113038  13.578   7.957   0.922
 3735SOL    HW213039  13.522   7.943   1.062
 3736SOL     OW13040  12.185   7.674   9.748
 3736SOL    HW113041  12.223   7.688   9.835
 3736SOL    HW213042  12.134   7.594   9.757
 3737SOL     OW13043   3.557   6.029   6.032
 3737SOL    HW113044   3.612   6.093   6.077
 3737SOL    HW213045   3.509   6.079   5.967
 3738SOL     OW13046   1.558   1.997   5.234
 3738SOL    HW113047   1.644   2.030   5.261
 3738SOL    HW213048   1.497   2.067   5.258
 3739SOL     OW13049   7.445   5.641   0.150
 3739SOL    HW113050   7.535   5.660   0.122
 3739SOL    HW213051   7.456   5.583   0.226
 3740SOL     OW13052  12.591  12.363  10.178
 3740SOL    HW113053  12.582  12.455  10.204
 3740SOL    HW213054  12.502  12.328  10.184
 3741SOL     OW13055   5.608   5.564   3.404
 3741SOL    HW113056   5.537   5.612   3.361
 3741SOL    HW213057   5.599   5.587   3.496
 3742SOL     OW13058   9.266   8.573   0.769
 3742SOL    HW113059   9.200   8.591   0.837
 3742SOL    HW213060   9.326   8.647   0.774
 3743SOL     OW13061   8.898   6.971  10.198
 3743SOL    HW113062   8.930   6.931  10.117
 3743SOL    HW213063   8.970   7.027  10.227
 3744SOL     OW13064   2.829   7.843   9.730
 3744SOL    HW113065   2.872   7.917   9.686
 3744SOL    HW213066   2.874   7.837   9.815
 3745SOL     OW13067   6.942   2.314   6.729
 3745SOL    HW113068   7.012   2.279   6.784
 3745SOL    HW213069   6.861   2.296   6.777
 3746SOL     OW13070   0.423  14.419  11.322
 3746SOL    HW113071   0.451  14.337  11.283
 3746SOL    HW213072   0.327  14.412  11.328
 3747SOL     OW13073  11.366  10.006   7.495
 3747SOL    HW113074  11.327  10.093   7.503
 3747SOL    HW213075  11.418   9.995   7.575
 3748SOL     OW13076   0.288   1.416  14.062
 3748SOL    HW113077   0.304   1.420  13.968
 3748SOL    HW213078   0.371   1.388  14.100
 3749SOL     OW13079  12.823   5.718   2.899
 3749SOL    HW113080  12.903   5.766   2.924
 3749SOL    HW213081  12.757   5.749   2.961
 3750SOL     OW13082  11.967  13.800   5.235
 3750SOL    HW113083  11.989  13.742   5.308
 3750SOL    HW213084  11.891  13.760   5.194
 3751SOL     OW13085   3.678  10.686   1.349
 3751SOL    HW113086   3.724  10.697   1.265
 3751SOL    HW213087   3.585  10.677   1.324
 3752SOL     OW13088  14.569  14.815   5.884
 3752SOL    HW113089  14.598  14.724   5.893
 3752SOL    HW213090  14.629  14.865   5.939
 3753SOL     OW13091   7.087   9.898   8.117
 3753SOL    HW113092   7.077   9.909   8.023
 3753SOL    HW213093   7.083   9.803   8.130
 3754SOL     OW13094  10.468   5.110   9.204
 3754SOL    HW113095  10.484   5.046   9.273
 3754SOL    HW213096  10.527   5.084   9.133
 3755SOL     OW13097  13.740  10.104   7.009
 3755SOL    HW113098  13.721  10.058   6.927
 3755SOL    HW213099  13.835  10.103   7.017
 3756SOL     OW13100   5.717   7.734   8.789
 3756SOL    HW113101   5.792   7.675   8.776
 3756SOL    HW213102   5.702   7.733   8.884
 3757SOL     OW13103   6.419   7.954   4.113
 3757SOL    HW113104   6.331   7.981   4.087
 3757SOL    HW213105   6.459   8.033   4.149
 3758SOL     OW13106   3.509  11.472  12.604
 3758SOL    HW113107   3.451  11.402  12.633
 3758SOL    HW213108   3.460  11.552  12.622
 3759SOL     OW13109  12.933  11.918   2.086
 3759SOL    HW113110  13.000  11.942   2.150
 3759SOL    HW213111  12.864  11.878   2.138
 3760SOL     OW13112   5.189  13.431  11.246
 3760SOL    HW113113   5.112  13.488  11.242
 3760SOL    HW213114   5.261  13.490  11.266
 3761SOL     OW13115  14.315  14.746  13.714
 3761SOL    HW113116  14.315  14.841  13.710
 3761SOL    HW213117  14.253  14.725  13.783
 3762SOL     OW13118   8.889  14.555   2.992
 3762SOL    HW113119   8.818  14.504   2.953
 3762SOL    HW213120   8.870  14.553   3.086
 3763SOL     OW13121   3.405   6.831  14.305
 3763SOL    HW113122   3.457   6.804  14.230
 3763SOL    HW213123   3.429   6.922  14.320
 3764SOL     OW13124   4.335  11.362   7.618
 3764SOL    HW113125   4.297  11.275   7.632
 3764SOL    HW213126   4.279  11.421   7.668
 3765SOL     OW13127   7.624   4.357   8.898
 3765SOL    HW113128   7.560   4.387   8.963
 3765SOL    HW213129   7.672   4.437   8.873
 3766SOL     OW13130   9.935   4.152   7.479
 3766SOL    HW113131   9.931   4.199   7.396
 3766SOL    HW213132  10.028   4.155   7.503
 3767SOL     OW13133   5.933   9.377   3.690
 3767SOL    HW113134   5.845   9.360   3.655
 3767SOL    HW213135   5.965   9.291   3.717
 3768SOL     OW13136   3.930  11.229  12.443
 3768SOL    HW113137   3.963  11.248  12.530
 3768SOL    HW213138   3.864  11.297  12.427
 3769SOL     OW13139   8.320   4.024   0.437
 3769SOL    HW113140   8.312   4.113   0.401
 3769SOL    HW213141   8.410   3.999   0.419
 3770SOL     OW13142   7.593   1.912   3.196
 3770SOL    HW113143   7.609   1.875   3.109
 3770SOL    HW213144   7.679   1.936   3.228
 3771SOL     OW13145   2.505  11.157   5.996
 3771SOL    HW113146   2.481  11.173   6.087
 3771SOL    HW213147   2.551  11.237   5.969
 3772SOL     OW13148   6.947  11.665  13.988
 3772SOL    HW113149   6.920  11.717  13.912
 3772SOL    HW213150   6.983  11.585  13.951
 3773SOL     OW13151  10.813   6.257   0.008
 3773SOL    HW113152  10.886   6.253  14.825
 3773SOL    HW213153  10.798   6.350   0.022
 3774SOL     OW13154  14.351   9.037   0.543
 3774SOL    HW113155  14.378   9.129   0.547
 3774SOL    HW213156  14.264   9.039   0.504
 3775SOL     OW13157  12.601   7.981  13.698
 3775SOL    HW113158  12.524   8.035  13.685
 3775SOL    HW213159  12.669   8.042  13.725
 3776SOL     OW13160   4.955   2.149   8.845
 3776SOL    HW113161   4.890   2.171   8.778
 3776SOL    HW213162   4.956   2.054   8.847
 3777SOL     OW13163   9.245   6.711   8.607
 3777SOL    HW113164   9.327   6.749   8.641
 3777SOL    HW213165   9.212   6.778   8.546
 3778SOL     OW13166   5.985   0.545  11.016
 3778SOL    HW113167   5.967   0.451  11.014
 3778SOL    HW213168   5.964   0.576  10.928
 3779SOL     OW13169   8.031   9.735   1.993
 3779SOL    HW113170   8.052   9.643   1.978
 3779SOL    HW213171   8.036   9.775   1.906
 3780SOL     OW13172   5.883   1.871  10.401
 3780SOL    HW113173   5.929   1.911  10.327
 3780SOL    HW213174   5.926   1.906  10.479
 3781SOL     OW13175   3.138  11.787   5.910
 3781SOL    HW113176   3.175  11.716   5.963
 3781SOL    HW213177   3.061  11.748   5.868
 3782SOL     OW13178   7.212  11.828   7.228
 3782SOL    HW113179   7.229  11.786   7.313
 3782SOL    HW213180   7.166  11.762   7.177
 3783SOL     OW13181   7.447  12.652  11.610
 3783SOL    HW113182   7.479  12.679  11.696
 3783SOL    HW213183   7.376  12.714  11.590
 3784SOL     OW13184   5.882  11.635   6.804
 3784SOL    HW113185   5.945  11.617   6.874
 3784SOL    HW213186   5.918  11.590   6.728
 3785SOL     OW13187   2.298  13.790   2.523
 3785SOL    HW113188   2.257  13.825   2.444
 3785SOL    HW213189   2.279  13.855   2.591
 3786SOL     OW13190   0.893  13.467   4.843
 3786SOL    HW113191   0.829  13.450   4.912
 3786SOL    HW213192   0.851  13.533   4.787
 3787SOL     OW13193   3.138   2.535  13.003
 3787SOL    HW113194   3.208   2.483  13.041
 3787SOL    HW213195   3.058   2.485  13.023
 3788SOL     OW13196   5.245  13.353  13.696
 3788SOL    HW113197   5.230  13.405  13.617
 3788SOL    HW213198   5.339  13.335  13.695
 3789SOL     OW13199   2.878   8.777   2.028
 3789SOL    HW113200   2.903   8.788   2.119
 3789SOL    HW213201   2.959   8.790   1.978
 3790SOL     OW13202  11.120  10.490   4.459
 3790SOL    HW113203  11.056  10.442   4.511
 3790SOL    HW213204  11.119  10.578   4.497
 3791SOL     OW13205   9.943   7.144   9.496
 3791SOL    HW113206   9.869   7.154   9.436
 3791SOL    HW213207   9.903   7.136   9.582
 3792SOL     OW13208  12.012   0.971   5.511
 3792SOL    HW113209  12.022   0.990   5.417
 3792SOL    HW213210  12.022   1.056   5.553
 3793SOL     OW13211  13.014  11.985  13.830
 3793SOL    HW113212  13.000  12.006  13.738
 3793SOL    HW213213  12.979  11.896  13.840
 3794SOL     OW13214   0.787   4.833   3.713
 3794SOL    HW113215   0.783   4.796   3.625
 3794SOL    HW213216   0.858   4.785   3.756
 3795SOL     OW13217  12.952   1.784   4.057
 3795SOL    HW113218  12.988   1.866   4.091
 3795SOL    HW213219  13.000   1.716   4.103
 3796SOL     OW13220   1.908  14.863  11.969
 3796SOL    HW113221   1.971  14.801  11.932
 3796SOL    HW213222   1.829  14.852  11.915
 3797SOL     OW13223   9.303   9.970   2.307
 3797SOL    HW113224   9.330  10.057   2.338
 3797SOL    HW213225   9.349   9.909   2.365
 3798SOL     OW13226  10.614   9.552  10.854
 3798SOL    HW113227  10.529   9.573  10.894
 3798SOL    HW213228  10.657   9.496  10.918
 3799SOL     OW13229  13.498   3.219   6.105
 3799SOL    HW113230  13.539   3.132   6.106
 3799SOL    HW213231  13.406   3.202   6.126
 3800SOL     OW13232  14.634   0.263   1.893
 3800SOL    HW113233  14.624   0.343   1.945
 3800SOL    HW213234  14.648   0.194   1.959
 3801SOL     OW13235  14.379  11.571   4.603
 3801SOL    HW113236  14.315  11.575   4.532
 3801SOL    HW213237  14.399  11.662   4.622
 3802SOL     OW13238  11.240   3.878   3.691
 3802SOL    HW113239  11.309   3.866   3.756
 3802SOL    HW213240  11.197   3.792   3.687
 3803SOL     OW13241  11.358   4.551   6.320
 3803SOL    HW113242  11.343   4.523   6.230
 3803SOL    HW213243  11.342   4.645   6.319
 3804SOL     OW13244   0.786   9.426   3.521
 3804SOL    HW113245   0.797   9.521   3.523
 3804SOL    HW213246   0.707   9.413   3.468
 3805SOL     OW13247   5.123  12.857  12.026
 3805SOL    HW113248   5.033  12.867  12.057
 3805SOL    HW213249   5.129  12.914  11.949
 3806SOL     OW13250   7.026   0.979   1.735
 3806SOL    HW113251   6.990   0.912   1.677
 3806SOL    HW213252   6.962   0.987   1.805
 3807SOL     OW13253   2.247  14.449   2.946
 3807SOL    HW113254   2.153  14.462   2.933
 3807SOL    HW213255   2.260  14.463   3.040
 3808SOL     OW13256   4.895  12.717   4.112
 3808SOL    HW113257   4.958  12.711   4.040
 3808SOL    HW213258   4.869  12.809   4.114
 3809SOL     OW13259  12.087  14.036   4.323
 3809SOL    HW113260  12.074  14.099   4.394
 3809SOL    HW213261  12.141  13.967   4.362
 3810SOL     OW13262   9.781  12.308  13.013
 3810SOL    HW113263   9.824  12.289  13.096
 3810SOL    HW213264   9.722  12.234  12.999
 3811SOL     OW13265   1.617  10.576  12.298
 3811SOL    HW113266   1.709  10.577  12.272
 3811SOL    HW213267   1.620  10.583  12.394
 3812SOL     OW13268   2.434  12.469   3.949
 3812SOL    HW113269   2.523  12.490   3.920
 3812SOL    HW213270   2.377  12.510   3.884
 3813SOL     OW13271   4.269   1.229   0.367
 3813SOL    HW113272   4.349   1.200   0.410
 3813SOL    HW213273   4.244   1.156   0.311
 3814SOL     OW13274  14.144   7.698   6.830
 3814SOL    HW113275  14.112   7.706   6.740
 3814SOL    HW213276  14.140   7.787   6.865
 3815SOL     OW13277   2.455  11.511   5.444
 3815SOL    HW113278   2.411  11.426   5.439
 3815SOL    HW213279   2.443  11.549   5.357
 3816SOL     OW13280   3.637   2.146  11.746
 3816SOL    HW113281   3.663   2.100  11.666
 3816SOL    HW213282   3.595   2.078  11.800
 3817SOL     OW13283  11.427   4.367   5.477
 3817SOL    HW113284  11.469   4.401   5.556
 3817SOL    HW213285  11.345   4.416   5.471
 3818SOL     OW13286   0.201   3.131   7.380
 3818SOL    HW113287   0.138   3.166   7.442
 3818SOL    HW213288   0.227   3.047   7.417
 3819SOL     OW13289  13.197  12.280   0.955
 3819SOL    HW113290  13.127  12.226   0.917
 3819SOL    HW213291  13.153  12.332   1.022
 3820SOL     OW13292   7.398   8.121  14.835
 3820SOL    HW113293   7.381   8.176   0.032
 3820SOL    HW213294   7.416   8.184  14.764
 3821SOL     OW13295  12.523  12.017   4.091
 3821SOL    HW113296  12.506  12.100   4.135
 3821SOL    HW213297  12.495  11.950   4.154
 3822SOL     OW13298  11.688  13.366   2.901
 3822SOL    HW113299  11.768  13.365   2.954
 3822SOL    HW213300  11.709  13.424   2.828
 3823SOL     OW13301  14.164  13.231  10.657
 3823SOL    HW113302  14.161  13.311  10.604
 3823SOL    HW213303  14.211  13.257  10.737
 3824SOL     OW13304   7.230   8.247  10.314
 3824SOL    HW113305   7.205   8.282  10.228
 3824SOL    HW213306   7.312   8.292  10.334
 3825SOL     OW13307   0.112  11.473   7.727
 3825SOL    HW113308   0.094  11.521   7.647
 3825SOL    HW213309   0.151  11.538   7.786
 3826SOL     OW13310  12.648  13.886   7.655
 3826SOL    HW113311  12.637  13.797   7.621
 3826SOL    HW213312  12.705  13.876   7.731
 3827SOL     OW13313  12.747   5.310   0.913
 3827SOL    HW113314  12.723   5.398   0.942
 3827SOL    HW213315  12.792   5.324   0.830
 3828SOL     OW13316   4.717   7.730  12.549
 3828SOL    HW113317   4.750   7.645  12.523
 3828SOL    HW213318   4.675   7.715  12.634
 3829SOL     OW13319   0.909  14.847   0.843
 3829SOL    HW113320   0.873  14.858   0.932
 3829SOL    HW213321   0.899   0.054   0.803
 3830SOL     OW13322   6.802   5.409  10.903
 3830SOL    HW113323   6.750   5.435  10.827
 3830SOL    HW213324   6.740   5.366  10.961
 3831SOL     OW13325   4.331   2.608   0.868
 3831SOL    HW113326   4.319   2.693   0.826
 3831SOL    HW213327   4.414   2.615   0.915
 3832SOL     OW13328   8.608  12.603   5.407
 3832SOL    HW113329   8.579  12.601   5.316
 3832SOL    HW213330   8.542  12.656   5.452
 3833SOL     OW13331   7.885   3.133  13.719
 3833SOL    HW113332   7.798   3.122  13.680
 3833SOL    HW213333   7.907   3.225  13.702
 3834SOL     OW13334  13.023  11.991  11.500
 3834SOL    HW113335  12.996  12.081  11.482
 3834SOL    HW213336  12.971  11.965  11.575
 3835SOL     OW13337  10.992   4.260  12.787
 3835SOL    HW113338  10.992   4.261  12.883
 3835SOL    HW213339  10.942   4.183  12.764
 3836SOL     OW13340   1.808   7.375  10.345
 3836SOL    HW113341   1.896   7.409  10.360
 3836SOL    HW213342   1.788   7.324  10.423
 3837SOL     OW13343   2.120   8.860   5.967
 3837SOL    HW113344   2.147   8.770   5.984
 3837SOL    HW213345   2.182   8.892   5.902
 3838SOL     OW13346   9.460   4.929   0.075
 3838SOL    HW113347   9.388   4.989   0.097
 3838SOL    HW213348   9.428   4.843   0.103
 3839SOL     OW13349   1.269   4.665   1.402
 3839SOL    HW113350   1.283   4.688   1.494
 3839SOL    HW213351   1.334   4.716   1.354
 3840SOL     OW13352   7.971   0.379   3.448
 3840SOL    HW113353   8.045   0.417   3.495
 3840SOL    HW213354   7.970   0.287   3.475
 3841SOL     OW13355   9.868   7.864  13.468
 3841SOL    HW113356   9.880   7.939  13.410
 3841SOL    HW213357   9.792   7.886  13.521
 3842SOL     OW13358   3.627  11.530   4.281
 3842SOL    HW113359   3.621  11.624   4.267
 3842SOL    HW213360   3.544  11.506   4.321
 3843SOL     OW13361  10.779   5.723   4.880
 3843SOL    HW113362  10.719   5.746   4.951
 3843SOL    HW213363  10.729   5.663   4.825
 3844SOL     OW13364   7.369  14.280  14.158
 3844SOL    HW113365   7.407  14.218  14.096
 3844SOL    HW213366   7.341  14.354  14.105
 3845SOL     OW13367   0.125  13.356   8.721
 3845SOL    HW113368   0.051  13.385   8.774
 3845SOL    HW213369   0.125  13.260   8.731
 3846SOL     OW13370  10.131  10.063   7.215
 3846SOL    HW113371  10.170  10.002   7.277
 3846SOL    HW213372  10.129  10.147   7.262
 3847SOL     OW13373   4.683   3.610   4.831
 3847SOL    HW113374   4.626   3.535   4.816
 3847SOL    HW213375   4.771   3.579   4.808
 3848SOL     OW13376   6.148   1.728   8.384
 3848SOL    HW113377   6.093   1.660   8.346
 3848SOL    HW213378   6.154   1.705   8.477
 3849SOL     OW13379   5.593   6.462   9.221
 3849SOL    HW113380   5.553   6.413   9.292
 3849SOL    HW213381   5.569   6.553   9.238
 3850SOL     OW13382   7.965   9.532  13.101
 3850SOL    HW113383   7.939   9.581  13.179
 3850SOL    HW213384   7.913   9.571  13.031
 3851SOL     OW13385  10.200   9.739   4.238
 3851SOL    HW113386  10.242   9.825   4.240
 3851SOL    HW213387  10.263   9.681   4.280
 3852SOL     OW13388   8.601  14.060   5.278
 3852SOL    HW113389   8.547  14.097   5.347
 3852SOL    HW213390   8.549  14.070   5.198
 3853SOL     OW13391   0.840  12.990  12.445
 3853SOL    HW113392   0.898  12.949  12.509
 3853SOL    HW213393   0.888  13.067  12.415
 3854SOL     OW13394   3.977   6.270  14.056
 3854SOL    HW113395   3.909   6.250  13.991
 3854SOL    HW213396   3.991   6.187  14.102
 3855SOL     OW13397   8.173   6.047  13.502
 3855SOL    HW113398   8.116   6.118  13.471
 3855SOL    HW213399   8.202   6.076  13.588
 3856SOL     OW13400   2.515   5.190   3.083
 3856SOL    HW113401   2.467   5.264   3.048
 3856SOL    HW213402   2.607   5.218   3.081
 3857SOL     OW13403  13.024  13.920   0.938
 3857SOL    HW113404  12.967  13.922   1.015
 3857SOL    HW213405  13.014  14.006   0.898
 3858SOL     OW13406  13.643   6.341  14.651
 3858SOL    HW113407  13.730   6.311  14.625
 3858SOL    HW213408  13.660   6.400  14.724
 3859SOL     OW13409   8.204   0.541   7.615
 3859SOL    HW113410   8.233   0.609   7.676
 3859SOL    HW213411   8.200   0.461   7.668
 3860SOL     OW13412   9.364   9.254   6.452
 3860SOL    HW113413   9.380   9.347   6.470
 3860SOL    HW213414   9.331   9.251   6.362
 3861SOL     OW13415  11.498  11.671   8.981
 3861SOL    HW113416  11.566  11.645   8.919
 3861SOL    HW213417  11.416  11.657   8.934
 3862SOL     OW13418  13.010  11.057  12.703
 3862SOL    HW113419  13.029  11.128  12.765
 3862SOL    HW213420  12.993  11.101  12.620
 3863SOL     OW13421   6.864   8.804   4.615
 3863SOL    HW113422   6.775   8.811   4.650
 3863SOL    HW213423   6.868   8.870   4.546
 3864SOL     OW13424  11.406   7.665   7.689
 3864SOL    HW113425  11.358   7.629   7.762
 3864SOL    HW213426  11.374   7.755   7.681
 3865SOL     OW13427   3.411   1.448   5.347
 3865SOL    HW113428   3.434   1.511   5.416
 3865SOL    HW213429   3.332   1.406   5.380
 3866SOL     OW13430   1.508   3.877  11.444
 3866SOL    HW113431   1.433   3.868  11.504
 3866SOL    HW213432   1.549   3.960  11.471
 3867SOL     OW13433   9.310  12.448   6.536
 3867SOL    HW113434   9.300  12.432   6.629
 3867SOL    HW213435   9.259  12.380   6.493
 3868SOL     OW13436   6.000  14.161   2.172
 3868SOL    HW113437   6.018  14.069   2.191
 3868SOL    HW213438   6.083  14.206   2.187
 3869SOL     OW13439  13.797   0.078   5.612
 3869SOL    HW113440  13.759   0.146   5.667
 3869SOL    HW213441  13.859   0.125   5.556
 3870SOL     OW13442   0.876  12.735   1.075
 3870SOL    HW113443   0.908  12.657   1.120
 3870SOL    HW213444   0.780  12.731   1.084
 3871SOL     OW13445  13.107  12.126   1.235
 3871SOL    HW113446  13.029  12.152   1.285
 3871SOL    HW213447  13.179  12.130   1.299
 3872SOL     OW13448   6.366   2.661   7.287
 3872SOL    HW113449   6.336   2.726   7.224
 3872SOL    HW213450   6.335   2.577   7.252
 3873SOL     OW13451   6.303   9.585   8.521
 3873SOL    HW113452   6.361   9.516   8.489
 3873SOL    HW213453   6.322   9.661   8.465
 3874SOL     OW13454   9.981   7.532   0.804
 3874SOL    HW113455  10.023   7.614   0.777
 3874SOL    HW213456  10.025   7.464   0.753
 3875SOL     OW13457   4.715  13.819   1.416
 3875SOL    HW113458   4.778  13.753   1.387
 3875SOL    HW213459   4.763  13.873   1.478
 3876SOL     OW13460   0.889  14.274   2.387
 3876SOL    HW113461   0.806  14.318   2.406
 3876SOL    HW213462   0.945  14.294   2.462
 3877SOL     OW13463   4.481   9.746   2.944
 3877SOL    HW113464   4.499   9.718   2.855
 3877SOL    HW213465   4.527   9.683   2.999
 3878SOL     OW13466  12.938   5.810   8.959
 3878SOL    HW113467  12.907   5.900   8.960
 3878SOL    HW213468  12.881   5.764   9.020
 3879SOL     OW13469   4.658   3.875   2.976
 3879SOL    HW113470   4.730   3.930   2.945
 3879SOL    HW213471   4.599   3.867   2.901
 3880SOL     OW13472   7.729  10.493   9.897
 3880SOL    HW113473   7.723  10.582   9.932
 3880SOL    HW213474   7.641  10.457   9.908
 3881SOL     OW13475   6.581   8.591   3.183
 3881SOL    HW113476   6.623   8.509   3.159
 3881SOL    HW213477   6.533   8.572   3.263
 3882SOL     OW13478  11.084   8.199   2.570
 3882SOL    HW113479  11.069   8.273   2.511
 3882SOL    HW213480  11.029   8.129   2.534
 3883SOL     OW13481   2.537  13.081   5.893
 3883SOL    HW113482   2.453  13.048   5.924
 3883SOL    HW213483   2.601  13.047   5.955
 3884SOL     OW13484  11.841  12.752  14.265
 3884SOL    HW113485  11.908  12.716  14.322
 3884SOL    HW213486  11.758  12.735  14.310
 3885SOL     OW13487   7.474  11.430   8.703
 3885SOL    HW113488   7.495  11.344   8.668
 3885SOL    HW213489   7.395  11.457   8.655
 3886SOL     OW13490   9.440  10.335  13.174
 3886SOL    HW113491   9.487  10.276  13.233
 3886SOL    HW213492   9.509  10.376  13.121
 3887SOL     OW13493  14.204  10.673  13.382
 3887SOL    HW113494  14.186  10.765  13.365
 3887SOL    HW213495  14.166  10.656  13.468
 3888SOL     OW13496   6.244   7.716   5.023
 3888SOL    HW113497   6.293   7.686   5.100
 3888SOL    HW213498   6.289   7.675   4.949
 3889SOL     OW13499   8.094   1.383  10.134
 3889SOL    HW113500   8.145   1.355  10.210
 3889SOL    HW213501   8.149   1.361  10.059
 3890SOL     OW13502   4.742  10.307  12.192
 3890SOL    HW113503   4.707  10.380  12.243
 3890SOL    HW213504   4.682  10.299  12.118
 3891SOL     OW13505   4.160   3.523  12.612
 3891SOL    HW113506   4.147   3.437  12.571
 3891SOL    HW213507   4.133   3.511  12.703
 3892SOL     OW13508  11.805  13.394  12.643
 3892SOL    HW113509  11.833  13.484  12.627
 3892SOL    HW213510  11.748  13.373  12.569
 3893SOL     OW13511  14.205   9.480   3.171
 3893SOL    HW113512  14.266   9.520   3.234
 3893SOL    HW213513  14.238   9.506   3.085
 3894SOL     OW13514   0.633   9.101  11.198
 3894SOL    HW113515   0.572   9.063  11.261
 3894SOL    HW213516   0.632   9.195  11.218
 3895SOL     OW13517   4.417   4.834   1.592
 3895SOL    HW113518   4.448   4.860   1.505
 3895SOL    HW213519   4.360   4.759   1.575
 3896SOL     OW13520   4.866   1.360   7.873
 3896SOL    HW113521   4.780   1.320   7.886
 3896SOL    HW213522   4.848   1.441   7.825
 3897SOL     OW13523   2.113  11.361   3.882
 3897SOL    HW113524   2.101  11.441   3.830
 3897SOL    HW213525   2.203  11.367   3.913
 3898SOL     OW13526   6.918   1.549   7.519
 3898SOL    HW113527   6.969   1.590   7.589
 3898SOL    HW213528   6.865   1.483   7.563
 3899SOL     OW13529  14.224   9.788   3.577
 3899SOL    HW113530  14.191   9.779   3.667
 3899SOL    HW213531  14.216   9.881   3.557
 3900SOL     OW13532   9.926   4.667  14.653
 3900SOL    HW113533   9.852   4.696  14.599
 3900SOL    HW213534   9.896   4.585  14.692
 3901SOL     OW13535  10.147  11.948   5.400
 3901SOL    HW113536  10.210  11.991   5.457
 3901SOL    HW213537  10.187  11.863   5.379
 3902SOL     OW13538   5.807  10.507   9.726
 3902SOL    HW113539   5.840  10.456   9.801
 3902SOL    HW213540   5.824  10.598   9.750
 3903SOL     OW13541   0.171   4.544   4.660
 3903SOL    HW113542   0.165   4.469   4.601
 3903SOL    HW213543   0.178   4.505   4.748
 3904SOL     OW13544   3.193  14.357   4.028
 3904SOL    HW113545   3.253  14.343   3.956
 3904SOL    HW213546   3.128  14.287   4.019
 3905SOL     OW13547  12.233   8.501  13.327
 3905SOL    HW113548  12.182   8.537  13.254
 3905SOL    HW213549  12.177   8.434  13.364
 3906SOL     OW13550  13.276   0.311  14.607
 3906SOL    HW113551  13.187   0.280  14.589
 3906SOL    HW213552  13.331   0.262  14.546
 3907SOL     OW13553   3.453   5.071   4.408
 3907SOL    HW113554   3.430   5.107   4.494
 3907SOL    HW213555   3.403   4.989   4.402
 3908SOL     OW13556  14.095   2.038   8.268
 3908SOL    HW113557  14.075   2.127   8.240
 3908SOL    HW213558  14.067   2.034   8.360
 3909SOL     OW13559  11.298  14.307  10.791
 3909SOL    HW113560  11.214  14.264  10.776
 3909SOL    HW213561  11.275  14.390  10.833
 3910SOL     OW13562  13.654   6.616   8.190
 3910SOL    HW113563  13.639   6.680   8.120
 3910SOL    HW213564  13.749   6.606   8.193
 3911SOL     OW13565  13.830   0.406   9.952
 3911SOL    HW113566  13.855   0.473  10.017
 3911SOL    HW213567  13.734   0.413   9.948
 3912SOL     OW13568   1.540   8.353   8.452
 3912SOL    HW113569   1.462   8.305   8.424
 3912SOL    HW213570   1.600   8.285   8.481
 3913SOL     OW13571   1.209   1.454  10.694
 3913SOL    HW113572   1.274   1.393  10.729
 3913SOL    HW213573   1.154   1.476  10.769
 3914SOL     OW13574  11.798   1.292  11.523
 3914SOL    HW113575  11.858   1.225  11.556
 3914SOL    HW213576  11.842   1.375  11.540
 3915SOL     OW13577   8.658   5.519   9.107
 3915SOL    HW113578   8.687   5.606   9.079
 3915SOL    HW213579   8.710   5.500   9.184
 3916SOL     OW13580  14.761   4.274   0.054
 3916SOL    HW113581  14.708   4.311  14.863
 3916SOL    HW213582  14.828   4.341   0.071
 3917SOL     OW13583  12.517   0.351   6.909
 3917SOL    HW113584  12.456   0.392   6.970
 3917SOL    HW213585  12.589   0.319   6.964
 3918SOL     OW13586  11.670   4.949  12.760
 3918SOL    HW113587  11.715   4.880  12.712
 3918SOL    HW213588  11.603   4.981  12.698
 3919SOL     OW13589   5.089  12.752  14.361
 3919SOL    HW113590   5.137  12.718  14.285
 3919SOL    HW213591   5.156  12.760  14.429
 3920SOL     OW13592  13.144   2.766   2.014
 3920SOL    HW113593  13.072   2.766   2.078
 3920SOL    HW213594  13.107   2.809   1.937
 3921SOL     OW13595   2.238   4.505   8.780
 3921SOL    HW113596   2.175   4.567   8.741
 3921SOL    HW213597   2.311   4.504   8.718
 3922SOL     OW13598  12.035  14.632  12.204
 3922SOL    HW113599  12.045  14.680  12.287
 3922SOL    HW213600  11.944  14.602  12.205
 3923SOL     OW13601  14.329   3.898   4.369
 3923SOL    HW113602  14.241   3.887   4.332
 3923SOL    HW213603  14.313   3.930   4.458
 3924SOL     OW13604  14.207  10.987   3.706
 3924SOL    HW113605  14.186  11.063   3.759
 3924SOL    HW213606  14.181  11.011   3.617
 3925SOL     OW13607  13.451  10.378  10.061
 3925SOL    HW113608  13.365  10.415  10.042
 3925SOL    HW213609  13.507  10.408   9.990
 3926SOL     OW13610   4.401  13.950  11.015
 3926SOL    HW113611   4.308  13.926  11.009
 3926SOL    HW213612   4.416  13.964  11.108
 3927SOL     OW13613  10.876  12.021   9.790
 3927SOL    HW113614  10.855  11.971   9.869
 3927SOL    HW213615  10.802  12.006   9.732
 3928SOL     OW13616   1.640   9.270   9.239
 3928SOL    HW113617   1.653   9.354   9.284
 3928SOL    HW213618   1.547   9.270   9.216
 3929SOL     OW13619   9.260  12.664  13.717
 3929SOL    HW113620   9.178  12.646  13.762
 3929SOL    HW213621   9.307  12.725  13.774
 3930SOL     OW13622   3.277   3.635   1.283
 3930SOL    HW113623   3.277   3.731   1.283
 3930SOL    HW213624   3.367   3.611   1.260
 3931SOL     OW13625   0.667   1.816   7.002
 3931SOL    HW113626   0.682   1.892   6.946
 3931SOL    HW213627   0.600   1.845   7.064
 3932SOL     OW13628   9.397  11.159   8.657
 3932SOL    HW113629   9.326  11.094   8.655
 3932SOL    HW213630   9.412  11.175   8.750
 3933SOL     OW13631  13.827   7.907   2.446
 3933SOL    HW113632  13.865   7.847   2.510
 3933SOL    HW213633  13.770   7.853   2.393
 3934SOL     OW13634  14.593  12.141   5.600
 3934SOL    HW113635  14.517  12.084   5.591
 3934SOL    HW213636  14.632  12.144   5.513
 3935SOL     OW13637  10.873   7.930   2.586
 3935SOL    HW113638  10.835   7.859   2.639
 3935SOL    HW213639  10.849   8.010   2.632
 3936SOL     OW13640  12.166  10.165   3.218
 3936SOL    HW113641  12.135  10.203   3.136
 3936SOL    HW213642  12.260  10.156   3.206
 3937SOL     OW13643   8.907   9.869  13.350
 3937SOL    HW113644   8.915   9.774  13.357
 3937SOL    HW213645   8.876   9.898  13.436
 3938SOL     OW13646  14.273  11.091   9.785
 3938SOL    HW113647  14.240  11.059   9.869
 3938SOL    HW213648  14.348  11.146   9.808
 3939SOL     OW13649  10.537   6.812   4.561
 3939SOL    HW113650  10.442   6.822   4.557
 3939SOL    HW213651  10.562   6.789   4.472
 3940SOL     OW13652   5.806  10.005  12.341
 3940SOL    HW113653   5.770  10.060  12.410
 3940SOL    HW213654   5.761   9.921  12.351
 3941SOL     OW13655  13.914  11.585   8.474
 3941SOL    HW113656  13.929  11.680   8.480
 3941SOL    HW213657  13.997  11.550   8.443
 3942SOL     OW13658   0.936  12.227   5.714
 3942SOL    HW113659   1.017  12.227   5.765
 3942SOL    HW213660   0.949  12.160   5.647
 3943SOL     OW13661   6.008   5.001  11.798
 3943SOL    HW113662   6.085   4.973  11.848
 3943SOL    HW213663   6.015   4.954  11.715
 3944SOL     OW13664  10.762   9.188  13.173
 3944SOL    HW113665  10.769   9.229  13.087
 3944SOL    HW213666  10.679   9.140  13.170
 3945SOL     OW13667  10.471  10.908  12.525
 3945SOL    HW113668  10.383  10.936  12.501
 3945SOL    HW213669  10.518  10.899  12.442
 3946SOL     OW13670   2.575   9.755   3.115
 3946SOL    HW113671   2.493   9.719   3.081
 3946SOL    HW213672   2.594   9.829   3.058
 3947SOL     OW13673   0.353   3.190  14.322
 3947SOL    HW113674   0.327   3.202  14.231
 3947SOL    HW213675   0.407   3.111  14.321
 3948SOL     OW13676  12.403   9.691  14.586
 3948SOL    HW113677  12.362   9.776  14.576
 3948SOL    HW213678  12.350   9.632  14.533
 3949SOL     OW13679   4.304   1.104   2.586
 3949SOL    HW113680   4.211   1.122   2.600
 3949SOL    HW213681   4.306   1.018   2.544
 3950SOL     OW13682  11.585   1.360   9.172
 3950SOL    HW113683  11.631   1.309   9.106
 3950SOL    HW213684  11.642   1.434   9.190
 3951SOL     OW13685  13.174   8.873   4.245
 3951SOL    HW113686  13.080   8.882   4.226
 3951SOL    HW213687  13.217   8.880   4.160
 3952SOL     OW13688  14.779   5.512   6.584
 3952SOL    HW113689  14.696   5.554   6.606
 3952SOL    HW213690  14.775   5.501   6.489
 3953SOL     OW13691  13.476  11.196   1.045
 3953SOL    HW113692  13.525  11.249   1.107
 3953SOL    HW213693  13.512  11.219   0.960
 3954SOL     OW13694   3.436  11.421   9.435
 3954SOL    HW113695   3.377  11.476   9.487
 3954SOL    HW213696   3.462  11.351   9.495
 3955SOL     OW13697   6.884  13.433   4.154
 3955SOL    HW113698   6.959  13.377   4.131
 3955SOL    HW213699   6.814  13.371   4.174
 3956SOL     OW13700   3.719   4.546  10.031
 3956SOL    HW113701   3.757   4.472  10.079
 3956SOL    HW213702   3.627   4.522  10.018
 3957SOL     OW13703   7.468  13.883   0.131
 3957SOL    HW113704   7.513  13.893   0.215
 3957SOL    HW213705   7.512  13.944   0.072
 3958SOL     OW13706   2.100   9.384   7.629
 3958SOL    HW113707   2.188   9.394   7.592
 3958SOL    HW213708   2.115   9.343   7.714
 3959SOL     OW13709   0.581   4.118   8.415
 3959SOL    HW113710   0.622   4.183   8.472
 3959SOL    HW213711   0.489   4.144   8.410
 3960SOL     OW13712   4.435  12.834  10.184
 3960SOL    HW113713   4.397  12.824  10.271
 3960SOL    HW213714   4.488  12.756  10.171
 3961SOL     OW13715   0.132   3.499  11.769
 3961SOL    HW113716   0.095   3.453  11.844
 3961SOL    HW213717   0.075   3.476  11.696
 3962SOL     OW13718  13.399   8.507   2.865
 3962SOL    HW113719  13.315   8.540   2.831
 3962SOL    HW213720  13.446   8.586   2.892
 3963SOL     OW13721   5.538  14.705  13.150
 3963SOL    HW113722   5.602  14.698  13.221
 3963SOL    HW213723   5.455  14.681  13.190
 3964SOL     OW13724   1.798  11.620  12.245
 3964SOL    HW113725   1.809  11.630  12.340
 3964SOL    HW213726   1.736  11.689  12.221
 3965SOL     OW13727  13.695   7.705  11.173
 3965SOL    HW113728  13.733   7.678  11.257
 3965SOL    HW213729  13.632   7.636  11.152
 3966SOL     OW13730   3.318   1.131   1.033
 3966SOL    HW113731   3.325   1.223   1.009
 3966SOL    HW213732   3.400   1.111   1.078
 3967SOL     OW13733  12.899   8.153  12.729
 3967SOL    HW113734  12.871   8.086  12.666
 3967SOL    HW213735  12.889   8.236  12.682
 3968SOL     OW13736   6.809  14.446   2.583
 3968SOL    HW113737   6.888  14.392   2.577
 3968SOL    HW213738   6.810  14.479   2.673
 3969SOL     OW13739  14.719  14.309   8.680
 3969SOL    HW113740  14.684  14.367   8.613
 3969SOL    HW213741  14.777  14.364   8.732
 3970SOL     OW13742   0.555   6.754   9.221
 3970SOL    HW113743   0.625   6.785   9.279
 3970SOL    HW213744   0.475   6.763   9.273
 3971SOL     OW13745   3.105  12.538  12.841
 3971SOL    HW113746   3.200  12.551  12.845
 3971SOL    HW213747   3.083  12.497  12.925
 3972SOL     OW13748   9.548  12.154  13.324
 3972SOL    HW113749   9.525  12.101  13.249
 3972SOL    HW213750   9.644  12.162  13.319
 3973SOL     OW13751  12.449   1.972   4.273
 3973SOL    HW113752  12.394   2.047   4.251
 3973SOL    HW213753  12.492   1.996   4.355
 3974SOL     OW13754   9.880   0.904   5.549
 3974SOL    HW113755   9.907   0.814   5.526
 3974SOL    HW213756   9.887   0.952   5.467
 3975SOL     OW13757   8.113   8.937   2.914
 3975SOL    HW113758   8.181   8.922   2.980
 3975SOL    HW213759   8.042   8.878   2.940
 3976SOL     OW13760  12.066  14.662  10.588
 3976SOL    HW113761  12.147  14.690  10.546
 3976SOL    HW213762  12.087  14.577  10.628
 3977SOL     OW13763   7.357  12.179   6.138
 3977SOL    HW113764   7.337  12.149   6.049
 3977SOL    HW213765   7.304  12.122   6.194
 3978SOL     OW13766   8.262   9.527   0.787
 3978SOL    HW113767   8.250   9.596   0.722
 3978SOL    HW213768   8.350   9.492   0.769
 3979SOL     OW13769   0.476  14.318   4.831
 3979SOL    HW113770   0.470  14.350   4.741
 3979SOL    HW213771   0.565  14.340   4.858
 3980SOL     OW13772   8.926   6.519   2.382
 3980SOL    HW113773   9.020   6.505   2.395
 3980SOL    HW213774   8.921   6.578   2.306
 3981SOL     OW13775   7.386   4.036  10.269
 3981SOL    HW113776   7.341   4.012  10.350
 3981SOL    HW213777   7.354   4.125  10.250
 3982SOL     OW13778  12.379   5.318   4.172
 3982SOL    HW113779  12.386   5.311   4.077
 3982SOL    HW213780  12.469   5.313   4.203
 3983SOL     OW13781   7.348   2.319  12.555
 3983SOL    HW113782   7.415   2.251  12.544
 3983SOL    HW213783   7.300   2.318  12.472
 3984SOL     OW13784   7.231   4.697   5.415
 3984SOL    HW113785   7.276   4.645   5.480
 3984SOL    HW213786   7.291   4.768   5.393
 3985SOL     OW13787  12.254   9.018   4.951
 3985SOL    HW113788  12.254   9.058   4.864
 3985SOL    HW213789  12.346   8.999   4.969
 3986SOL     OW13790   6.002   9.200  14.627
 3986SOL    HW113791   5.941   9.183  14.555
 3986SOL    HW213792   6.077   9.144  14.608
 3987SOL     OW13793   2.923   4.210   1.470
 3987SOL    HW113794   2.861   4.162   1.525
 3987SOL    HW213795   2.896   4.302   1.479
 3988SOL     OW13796   2.745   5.923   2.394
 3988SOL    HW113797   2.693   5.957   2.466
 3988SOL    HW213798   2.682   5.910   2.323
 3989SOL     OW13799  13.937  13.956   0.462
 3989SOL    HW113800  13.953  13.946   0.556
 3989SOL    HW213801  13.856  14.006   0.457
 3990SOL     OW13802  11.707   2.476  11.675
 3990SOL    HW113803  11.791   2.519  11.661
 3990SOL    HW213804  11.647   2.519  11.615
 3991SOL     OW13805  13.291  13.870   5.354
 3991SOL    HW113806  13.262  13.779   5.346
 3991SOL    HW213807  13.381  13.870   5.322
 3992SOL     OW13808  12.812  14.365  13.278
 3992SOL    HW113809  12.876  14.433  13.258
 3992SOL    HW213810  12.829  14.296  13.213
 3993SOL     OW13811  11.306   3.882  12.463
 3993SOL    HW113812  11.276   3.955  12.517
 3993SOL    HW213813  11.335   3.924  12.382
 3994SOL     OW13814   0.679  11.313   3.326
 3994SOL    HW113815   0.669  11.404   3.354
 3994SOL    HW213816   0.738  11.275   3.391
 3995SOL     OW13817  13.999   6.285   6.511
 3995SOL    HW113818  13.993   6.244   6.597
 3995SOL    HW213819  14.085   6.256   6.478
 3996SOL     OW13820   2.044  14.722   6.486
 3996SOL    HW113821   2.043  14.633   6.449
 3996SOL    HW213822   2.137  14.742   6.498
 3997SOL     OW13823   5.778  13.514   8.840
 3997SOL    HW113824   5.800  13.557   8.923
 3997SOL    HW213825   5.805  13.423   8.852
 3998SOL     OW13826  11.216   9.787   6.484
 3998SOL    HW113827  11.221   9.705   6.437
 3998SOL    HW213828  11.129   9.821   6.464
 3999SOL     OW13829   5.278   5.850   1.503
 3999SOL    HW113830   5.345   5.899   1.455
 3999SOL    HW213831   5.327   5.780   1.548
 4000SOL     OW13832   3.493  13.201   1.191
 4000SOL    HW113833   3.414  13.212   1.137
 4000SOL    HW213834   3.533  13.288   1.192
 4001SOL     OW13835   1.302   3.228   8.123
 4001SOL    HW113836   1.225   3.283   8.139
 4001SOL    HW213837   1.266   3.145   8.093
 4002SOL     OW13838  14.281   7.134  13.335
 4002SOL    HW113839  14.370   7.144  13.303
 4002SOL    HW213840  14.244   7.063  13.282
 4003SOL     OW13841   7.794  10.125   0.133
 4003SOL    HW113842   7.815  10.126   0.040
 4003SOL    HW213843   7.878  10.136   0.177
 4004SOL     OW13844   3.392   4.283   5.063
 4004SOL    HW113845   3.381   4.320   5.151
 4004SOL    HW213846   3.477   4.239   5.067
 4005SOL     OW13847   0.403   3.689  12.960
 4005SOL    HW113848   0.456   3.610  12.949
 4005SOL    HW213849   0.336   3.665  13.023
 4006SOL     OW13850   8.723   6.827   8.244
 4006SOL    HW113851   8.742   6.813   8.151
 4006SOL    HW213852   8.803   6.799   8.289
 4007SOL     OW13853   2.933   6.901   0.765
 4007SOL    HW113854   2.982   6.972   0.806
 4007SOL    HW213855   2.998   6.855   0.711
 4008SOL     OW13856   2.649   7.150  11.484
 4008SOL    HW113857   2.615   7.235  11.456
 4008SOL    HW213858   2.729   7.138  11.432
 4009SOL     OW13859   1.171   2.661   8.571
 4009SOL    HW113860   1.206   2.719   8.504
 4009SOL    HW213861   1.077   2.680   8.572
 4010SOL     OW13862  12.010  14.159   1.025
 4010SOL    HW113863  11.964  14.105   0.962
 4010SOL    HW213864  11.990  14.119   1.110
 4011SOL     OW13865   0.788   7.436   5.329
 4011SOL    HW113866   0.850   7.501   5.294
 4011SOL    HW213867   0.834   7.353   5.319
 4012SOL     OW13868  10.711   0.740   3.467
 4012SOL    HW113869  10.732   0.654   3.504
 4012SOL    HW213870  10.692   0.722   3.375
 4013SOL     OW13871   1.344   2.080  12.872
 4013SOL    HW113872   1.324   2.064  12.964
 4013SOL    HW213873   1.341   1.994  12.831
 4014SOL     OW13874  13.731   2.263  13.486
 4014SOL    HW113875  13.809   2.319  13.494
 4014SOL    HW213876  13.759   2.178  13.519
 4015SOL     OW13877  11.204  11.051   9.720
 4015SOL    HW113878  11.154  10.970   9.727
 4015SOL    HW213879  11.245  11.046   9.634
 4016SOL     OW13880   5.031  11.265   0.048
 4016SOL    HW113881   5.095  11.302   0.108
 4016SOL    HW213882   4.985  11.340   0.012
 4017SOL     OW13883   0.479   1.968  10.726
 4017SOL    HW113884   0.421   2.033  10.767
 4017SOL    HW213885   0.427   1.932  10.654
 4018SOL     OW13886   8.897   3.459   7.747
 4018SOL    HW113887   8.916   3.537   7.798
 4018SOL    HW213888   8.930   3.479   7.659
 4019SOL     OW13889   2.745   4.051   7.128
 4019SOL    HW113890   2.707   4.124   7.178
 4019SOL    HW213891   2.675   3.985   7.127
 4020SOL     OW13892   4.807  13.695   2.993
 4020SOL    HW113893   4.875  13.763   2.993
 4020SOL    HW213894   4.730  13.737   3.031
 4021SOL     OW13895   0.748   2.151   6.577
 4021SOL    HW113896   0.743   2.246   6.578
 4021SOL    HW213897   0.830   2.131   6.533
 4022SOL     OW13898  13.762  13.939  10.219
 4022SOL    HW113899  13.772  14.035  10.221
 4022SOL    HW213900  13.790  13.911  10.306
 4023SOL     OW13901  10.313   5.408   4.931
 4023SOL    HW113902  10.321   5.375   4.841
 4023SOL    HW213903  10.275   5.335   4.980
 4024SOL     OW13904   6.768  10.353  13.008
 4024SOL    HW113905   6.791  10.322  12.921
 4024SOL    HW213906   6.727  10.438  12.993
 4025SOL     OW13907   4.805   1.823   1.790
 4025SOL    HW113908   4.735   1.879   1.755
 4025SOL    HW213909   4.847   1.876   1.857
 4026SOL     OW13910   3.188   7.041   6.520
 4026SOL    HW113911   3.208   7.051   6.426
 4026SOL    HW213912   3.093   7.045   6.524
 4027SOL     OW13913   1.316   1.229  10.798
 4027SOL    HW113914   1.373   1.214  10.873
 4027SOL    HW213915   1.363   1.191  10.724
 4028SOL     OW13916   1.129  14.625   7.536
 4028SOL    HW113917   1.197  14.659   7.478
 4028SOL    HW213918   1.073  14.572   7.479
 4029SOL     OW13919   0.560   7.753  14.550
 4029SOL    HW113920   0.474   7.741  14.589
 4029SOL    HW213921   0.587   7.665  14.522
 4030SOL     OW13922   9.097   0.006  14.298
 4030SOL    HW113923   9.091  14.809  14.241
 4030SOL    HW213924   9.089  14.849  14.387
 4031SOL     OW13925   5.778   9.073   3.722
 4031SOL    HW113926   5.749   8.984   3.744
 4031SOL    HW213927   5.831   9.061   3.644
 4032SOL     OW13928   6.614   9.558   0.090
 4032SOL    HW113929   6.536   9.604   0.059
 4032SOL    HW213930   6.674   9.562   0.016
 4033SOL     OW13931   5.307   2.738   9.953
 4033SOL    HW113932   5.269   2.660   9.912
 4033SOL    HW213933   5.395   2.743   9.915
 4034SOL     OW13934   4.911  10.316   8.462
 4034SOL    HW113935   4.817  10.323   8.475
 4034SOL    HW213936   4.924  10.232   8.419
 4035SOL     OW13937   8.352   0.036   0.680
 4035SOL    HW113938   8.279  14.874   0.726
 4035SOL    HW213939   8.376  14.852   0.612
 4036SOL     OW13940  14.080  11.545  13.102
 4036SOL    HW113941  14.159  11.508  13.141
 4036SOL    HW213942  14.009  11.515  13.158
 4037SOL     OW13943   4.817   3.819   9.532
 4037SOL    HW113944   4.803   3.908   9.564
 4037SOL    HW213945   4.800   3.824   9.438
 4038SOL     OW13946   0.568   0.714   0.642
 4038SOL    HW113947   0.606   0.643   0.693
 4038SOL    HW213948   0.607   0.704   0.555
 4039SOL     OW13949   1.792   8.083  10.018
 4039SOL    HW113950   1.744   8.022   9.961
 4039SOL    HW213951   1.734   8.159  10.025
 4040SOL     OW13952   1.686  12.609  10.603
 4040SOL    HW113953   1.715  12.681  10.547
 4040SOL    HW213954   1.767  12.561  10.624
 4041SOL     OW13955   4.572   1.368  11.627
 4041SOL    HW113956   4.497   1.342  11.681
 4041SOL    HW213957   4.648   1.343  11.679
 4042SOL     OW13958   2.818   2.389   9.220
 4042SOL    HW113959   2.887   2.323   9.222
 4042SOL    HW213960   2.765   2.370   9.298
 4043SOL     OW13961   0.523   3.044   1.113
 4043SOL    HW113962   0.546   3.115   1.053
 4043SOL    HW213963   0.605   3.021   1.155
 4044SOL     OW13964   8.307   4.246   7.649
 4044SOL    HW113965   8.256   4.169   7.624
 4044SOL    HW213966   8.387   4.211   7.688
 4045SOL     OW13967  12.640   5.748  14.352
 4045SOL    HW113968  12.580   5.818  14.375
 4045SOL    HW213969  12.705   5.789  14.295
 4046SOL     OW13970  10.492  11.470   7.802
 4046SOL    HW113971  10.526  11.395   7.850
 4046SOL    HW213972  10.467  11.435   7.716
 4047SOL     OW13973  12.157   1.749   7.503
 4047SOL    HW113974  12.215   1.798   7.562
 4047SOL    HW213975  12.127   1.674   7.555
 4048SOL     OW13976  14.545   6.219  14.581
 4048SOL    HW113977  14.631   6.181  14.597
 4048SOL    HW213978  14.513   6.243  14.668
 4049SOL     OW13979   9.807   1.979  11.252
 4049SOL    HW113980   9.843   1.894  11.277
 4049SOL    HW213981   9.749   2.003  11.324
 4050SOL     OW13982  10.267  13.376   2.445
 4050SOL    HW113983  10.342  13.434   2.432
 4050SOL    HW213984  10.303  13.299   2.488
 4051SOL     OW13985   3.739  12.606   6.738
 4051SOL    HW113986   3.834  12.617   6.732
 4051SOL    HW213987   3.721  12.527   6.687
 4052SOL     OW13988   8.350   7.596  14.291
 4052SOL    HW113989   8.317   7.662  14.353
 4052SOL    HW213990   8.296   7.607  14.213
 4053SOL     OW13991   3.276  11.340   9.027
 4053SOL    HW113992   3.320  11.412   9.071
 4053SOL    HW213993   3.297  11.263   9.080
 4054SOL     OW13994  14.403   1.055   9.369
 4054SOL    HW113995  14.466   1.081   9.437
 4054SOL    HW213996  14.318   1.081   9.405
 4055SOL     OW13997   6.253   8.476   6.858
 4055SOL    HW113998   6.161   8.453   6.876
 4055SOL    HW213999   6.265   8.455   6.766
 4056SOL     OW14000   5.923  14.569   5.236
 4056SOL    HW114001   5.986  14.567   5.164
 4056SOL    HW214002   5.859  14.635   5.210
 4057SOL     OW14003   6.441   4.142   9.394
 4057SOL    HW114004   6.476   4.219   9.350
 4057SOL    HW214005   6.451   4.161   9.487
 4058SOL     OW14006  12.440  14.542  10.645
 4058SOL    HW114007  12.433  14.467  10.587
 4058SOL    HW214008  12.409  14.616  10.593
 4059SOL     OW14009  12.161  13.435   0.816
 4059SOL    HW114010  12.204  13.518   0.797
 4059SOL    HW214011  12.083  13.436   0.760
 4060SOL     OW14012  12.704   6.319  13.895
 4060SOL    HW114013  12.777   6.338  13.836
 4060SOL    HW214014  12.746   6.291  13.976
 4061SOL     OW14015   3.682   6.666   0.766
 4061SOL    HW114016   3.721   6.625   0.689
 4061SOL    HW214017   3.718   6.754   0.767
 4062SOL     OW14018   8.935   9.111  10.105
 4062SOL    HW114019   8.996   9.115  10.032
 4062SOL    HW214020   8.870   9.178  10.086
 4063SOL     OW14021   5.322  12.953  10.768
 4063SOL    HW114022   5.323  13.017  10.697
 4063SOL    HW214023   5.252  12.893  10.745
 4064SOL     OW14024   7.503   8.630  12.138
 4064SOL    HW114025   7.589   8.673  12.142
 4064SOL    HW214026   7.506   8.577  12.059
 4065SOL     OW14027  12.875   2.012   3.521
 4065SOL    HW114028  12.796   2.066   3.519
 4065SOL    HW214029  12.856   1.940   3.460
 4066SOL     OW14030   9.724   0.101   2.005
 4066SOL    HW114031   9.799   0.079   2.059
 4066SOL    HW214032   9.713   0.026   1.947
 4067SOL     OW14033   8.708   3.005  14.693
 4067SOL    HW114034   8.775   3.046  14.748
 4067SOL    HW214035   8.757   2.958  14.625
 4068SOL     OW14036   5.523   6.491   6.511
 4068SOL    HW114037   5.442   6.442   6.501
 4068SOL    HW214038   5.527   6.548   6.435
 4069SOL     OW14039   3.452   1.753   4.192
 4069SOL    HW114040   3.522   1.819   4.193
 4069SOL    HW214041   3.379   1.793   4.239
 4070SOL     OW14042   5.363   2.572   8.152
 4070SOL    HW114043   5.313   2.629   8.094
 4070SOL    HW214044   5.449   2.565   8.111
 4071SOL     OW14045   2.206  11.358   3.300
 4071SOL    HW114046   2.180  11.309   3.221
 4071SOL    HW214047   2.221  11.290   3.365
 4072SOL     OW14048  11.903   9.333  13.958
 4072SOL    HW114049  11.896   9.288  14.043
 4072SOL    HW214050  11.813   9.338  13.926
 4073SOL     OW14051  14.011   3.274   1.843
 4073SOL    HW114052  13.931   3.259   1.793
 4073SOL    HW214053  14.045   3.357   1.811
 4074SOL     OW14054   1.594   7.533  10.977
 4074SOL    HW114055   1.507   7.561  11.006
 4074SOL    HW214056   1.578   7.479  10.900
 4075SOL     OW14057  11.534   8.103   3.372
 4075SOL    HW114058  11.458   8.143   3.414
 4075SOL    HW214059  11.577   8.053   3.442
 4076SOL     OW14060   3.491   0.924   0.507
 4076SOL    HW114061   3.527   0.873   0.435
 4076SOL    HW214062   3.397   0.906   0.505
 4077SOL     OW14063   3.790  14.124   3.967
 4077SOL    HW114064   3.697  14.141   3.953
 4077SOL    HW214065   3.793  14.038   4.008
 4078SOL     OW14066   7.804   3.201   0.475
 4078SOL    HW114067   7.811   3.296   0.460
 4078SOL    HW214068   7.711   3.183   0.470
 4079SOL     OW14069   3.735  14.577  10.235
 4079SOL    HW114070   3.813  14.632  10.223
 4079SOL    HW214071   3.729  14.565  10.330
 4080SOL     OW14072   7.398  10.571   6.683
 4080SOL    HW114073   7.395  10.661   6.716
 4080SOL    HW214074   7.372  10.517   6.757
 4081SOL     OW14075   2.967   3.421   1.147
 4081SOL    HW114076   2.966   3.507   1.105
 4081SOL    HW214077   3.057   3.391   1.137
 4082SOL     OW14078   0.628   5.187  13.086
 4082SOL    HW114079   0.723   5.189  13.095
 4082SOL    HW214080   0.611   5.130  13.011
 4083SOL     OW14081   0.997  11.055  13.995
 4083SOL    HW114082   1.078  11.018  14.031
 4083SOL    HW214083   0.927  11.017  14.049
 4084SOL     OW14084   7.528   8.136   9.790
 4084SOL    HW114085   7.448   8.128   9.842
 4084SOL    HW214086   7.599   8.130   9.854
 4085SOL     OW14087   6.413   9.938   3.932
 4085SOL    HW114088   6.407  10.019   3.982
 4085SOL    HW214089   6.444   9.873   3.995
 4086SOL     OW14090   4.292   5.879   3.055
 4086SOL    HW114091   4.225   5.862   2.989
 4086SOL    HW214092   4.290   5.802   3.112
 4087SOL     OW14093   2.805   6.452   2.872
 4087SOL    HW114094   2.793   6.384   2.806
 4087SOL    HW214095   2.900   6.464   2.876
 4088SOL     OW14096   9.126   5.828  13.023
 4088SOL    HW114097   9.152   5.827  13.115
 4088SOL    HW214098   9.172   5.753  12.985
 4089SOL     OW14099   3.122  11.937   7.767
 4089SOL    HW114100   3.153  12.006   7.708
 4089SOL    HW214101   3.183  11.938   7.840
 4090SOL     OW14102   6.716  10.367   0.635
 4090SOL    HW114103   6.781  10.437   0.640
 4090SOL    HW214104   6.662  10.390   0.559
 4091SOL     OW14105  14.865  10.978  10.221
 4091SOL    HW114106   0.027  11.048  10.272
 4091SOL    HW214107  14.795  11.022  10.173
 4092SOL     OW14108   8.478  12.302   3.199
 4092SOL    HW114109   8.518  12.348   3.272
 4092SOL    HW214110   8.551  12.263   3.151
 4093SOL     OW14111   3.377   3.676   0.262
 4093SOL    HW114112   3.422   3.711   0.185
 4093SOL    HW214113   3.306   3.737   0.279
 4094SOL     OW14114   5.370   2.896  11.386
 4094SOL    HW114115   5.287   2.849  11.398
 4094SOL    HW214116   5.383   2.943  11.468
 4095SOL     OW14117   6.044   7.928   1.741
 4095SOL    HW114118   5.986   7.921   1.665
 4095SOL    HW214119   5.994   7.979   1.804
 4096SOL     OW14120   4.961   1.138   6.240
 4096SOL    HW114121   4.909   1.185   6.305
 4096SOL    HW214122   5.051   1.144   6.272
 4097SOL     OW14123  11.290  14.170   7.546
 4097SOL    HW114124  11.379  14.137   7.535
 4097SOL    HW214125  11.285  14.196   7.638
 4098SOL     OW14126   9.498   3.953   9.695
 4098SOL    HW114127   9.458   4.034   9.727
 4098SOL    HW214128   9.512   3.968   9.601
 4099SOL     OW14129  14.151   0.960   2.645
 4099SOL    HW114130  14.129   0.867   2.652
 4099SOL    HW214131  14.209   0.977   2.719
 4100SOL     OW14132   4.569   8.606   7.595
 4100SOL    HW114133   4.615   8.522   7.597
 4100SOL    HW214134   4.637   8.671   7.612
 4101SOL     OW14135  12.613   2.032   2.934
 4101SOL    HW114136  12.670   1.993   3.000
 4101SOL    HW214137  12.537   1.973   2.929
 4102SOL     OW14138   4.895  12.589  14.467
 4102SOL    HW114139   4.960  12.652  14.437
 4102SOL    HW214140   4.937  12.504  14.452
 4103SOL     OW14141  12.788   7.578  11.490
 4103SOL    HW114142  12.709   7.633  11.491
 4103SOL    HW214143  12.814   7.572  11.582
 4104SOL     OW14144  12.575  14.499  12.136
 4104SOL    HW114145  12.626  14.452  12.202
 4104SOL    HW214146  12.516  14.555  12.187
 4105SOL     OW14147  12.596   4.524   6.216
 4105SOL    HW114148  12.550   4.532   6.300
 4105SOL    HW214149  12.540   4.468   6.163
 4106SOL     OW14150  12.998  11.222   4.692
 4106SOL    HW114151  12.975  11.132   4.669
 4106SOL    HW214152  13.066  11.247   4.629
 4107SOL     OW14153  11.687   1.593   4.231
 4107SOL    HW114154  11.674   1.559   4.319
 4107SOL    HW214155  11.612   1.561   4.181
 4108SOL     OW14156  11.400   0.757  10.417
 4108SOL    HW114157  11.401   0.853  10.416
 4108SOL    HW214158  11.371   0.734  10.505
 4109SOL     OW14159   1.863  10.879   2.123
 4109SOL    HW114160   1.951  10.863   2.157
 4109SOL    HW214161   1.821  10.932   2.191
 4110SOL     OW14162   5.397   6.990   0.248
 4110SOL    HW114163   5.342   7.019   0.175
 4110SOL    HW214164   5.381   6.896   0.253
 4111SOL     OW14165   6.390   1.044   6.574
 4111SOL    HW114166   6.460   1.001   6.624
 4111SOL    HW214167   6.428   1.057   6.487
 4112SOL     OW14168   6.573   3.421   7.491
 4112SOL    HW114169   6.505   3.373   7.539
 4112SOL    HW214170   6.577   3.506   7.536
 4113SOL     OW14171   6.564  11.232  13.619
 4113SOL    HW114172   6.497  11.273  13.672
 4113SOL    HW214173   6.546  11.138  13.626
 4114SOL     OW14174   1.898  14.447   3.775
 4114SOL    HW114175   1.898  14.486   3.863
 4114SOL    HW214176   1.806  14.430   3.756
 4115SOL     OW14177   3.702   9.912   0.976
 4115SOL    HW114178   3.717  10.003   1.001
 4115SOL    HW214179   3.619   9.889   1.018
 4116SOL     OW14180   1.918   0.331  13.654
 4116SOL    HW114181   1.963   0.402  13.610
 4116SOL    HW214182   1.888   0.273  13.583
 4117SOL     OW14183   8.183   7.037   5.028
 4117SOL    HW114184   8.232   6.985   5.092
 4117SOL    HW214185   8.170   7.122   5.072
 4118SOL     OW14186  11.947   1.061   2.722
 4118SOL    HW114187  11.903   1.042   2.640
 4118SOL    HW214188  12.024   1.112   2.698
 4119SOL     OW14189   7.647   3.624   1.016
 4119SOL    HW114190   7.670   3.634   1.108
 4119SOL    HW214191   7.675   3.706   0.975
 4120SOL     OW14192   0.902   1.441   2.884
 4120SOL    HW114193   0.975   1.454   2.824
 4120SOL    HW214194   0.936   1.468   2.970
 4121SOL     OW14195  11.610   0.669   9.864
 4121SOL    HW114196  11.527   0.648   9.821
 4121SOL    HW214197  11.667   0.700   9.794
 4122SOL     OW14198   6.878   3.774   3.308
 4122SOL    HW114199   6.851   3.860   3.339
 4122SOL    HW214200   6.969   3.785   3.279
 4123SOL     OW14201   6.289   1.503   0.640
 4123SOL    HW114202   6.371   1.519   0.685
 4123SOL    HW214203   6.293   1.411   0.613
 4124SOL     OW14204   6.213  14.450  13.041
 4124SOL    HW114205   6.144  14.385  13.053
 4124SOL    HW214206   6.166  14.533  13.032
 4125SOL     OW14207   3.508   5.023  13.192
 4125SOL    HW114208   3.488   4.962  13.263
 4125SOL    HW214209   3.589   4.990  13.153
 4126SOL     OW14210  12.942   2.088   2.622
 4126SOL    HW114211  12.986   2.165   2.585
 4126SOL    HW214212  13.001   2.058   2.691
 4127SOL     OW14213   4.042  11.796  13.480
 4127SOL    HW114214   4.085  11.776  13.397
 4127SOL    HW214215   4.098  11.863  13.520
 4128SOL     OW14216   1.509  12.063   2.684
 4128SOL    HW114217   1.569  11.994   2.655
 4128SOL    HW214218   1.454  12.021   2.749
 4129SOL     OW14219  12.322  13.822   3.146
 4129SOL    HW114220  12.265  13.751   3.178
 4129SOL    HW214221  12.373  13.848   3.223
 4130SOL     OW14222   3.394   2.955   6.737
 4130SOL    HW114223   3.318   2.899   6.718
 4130SOL    HW214224   3.365   3.043   6.714
 4131SOL     OW14225   0.549   5.863  11.794
 4131SOL    HW114226   0.521   5.817  11.715
 4131SOL    HW214227   0.627   5.816  11.823
 4132SOL     OW14228  13.232   8.044  13.409
 4132SOL    HW114229  13.151   7.994  13.421
 4132SOL    HW214230  13.302   7.985  13.437
 4133SOL     OW14231  14.251   6.059   1.715
 4133SOL    HW114232  14.206   5.981   1.747
 4133SOL    HW214233  14.203   6.132   1.754
 4134SOL     OW14234  13.381   6.753   4.832
 4134SOL    HW114235  13.464   6.782   4.794
 4134SOL    HW214236  13.343   6.833   4.869
 4135SOL     OW14237   4.154   5.135   9.223
 4135SOL    HW114238   4.110   5.134   9.308
 4135SOL    HW214239   4.141   5.224   9.190
 4136SOL     OW14240   2.805   9.039   8.932
 4136SOL    HW114241   2.870   8.976   8.963
 4136SOL    HW214242   2.755   8.992   8.865
 4137SOL     OW14243  13.862   1.498   0.555
 4137SOL    HW114244  13.767   1.503   0.555
 4137SOL    HW214245  13.889   1.553   0.628
 4138SOL     OW14246   9.417   5.896   6.118
 4138SOL    HW114247   9.505   5.859   6.127
 4138SOL    HW214248   9.385   5.861   6.035
 4139SOL     OW14249   6.449  14.363  11.208
 4139SOL    HW114250   6.472  14.377  11.299
 4139SOL    HW214251   6.513  14.414  11.158
 4140SOL     OW14252   0.283  13.339   1.657
 4140SOL    HW114253   0.321  13.253   1.638
 4140SOL    HW214254   0.353  13.387   1.700
 4141SOL     OW14255   4.404  11.767   3.716
 4141SOL    HW114256   4.468  11.836   3.733
 4141SOL    HW214257   4.347  11.767   3.793
 4142SOL     OW14258  14.107   6.567  14.169
 4142SOL    HW114259  14.063   6.597  14.090
 4142SOL    HW214260  14.044   6.583  14.239
 4143SOL     OW14261   7.588   6.568   3.292
 4143SOL    HW114262   7.650   6.523   3.350
 4143SOL    HW214263   7.513   6.510   3.287
 4144SOL     OW14264   5.049   5.242   0.460
 4144SOL    HW114265   5.079   5.231   0.369
 4144SOL    HW214266   5.039   5.337   0.470
 4145SOL     OW14267  11.037   6.306  10.509
 4145SOL    HW114268  11.007   6.340  10.425
 4145SOL    HW214269  11.004   6.369  10.574
 4146SOL     OW14270   5.592  14.395   1.062
 4146SOL    HW114271   5.574  14.351   0.979
 4146SOL    HW214272   5.675  14.442   1.047
 4147SOL     OW14273  10.032   1.434  14.503
 4147SOL    HW114274   9.946   1.473  14.520
 4147SOL    HW214275  10.014   1.341  14.493
 4148SOL     OW14276   0.802   1.575   7.373
 4148SOL    HW114277   0.764   1.527   7.447
 4148SOL    HW214278   0.830   1.659   7.411
 4149SOL     OW14279   5.585   2.736   2.733
 4149SOL    HW114280   5.603   2.662   2.675
 4149SOL    HW214281   5.530   2.794   2.681
 4150SOL     OW14282   8.442   3.606  13.314
 4150SOL    HW114283   8.437   3.603  13.219
 4150SOL    HW214284   8.535   3.595  13.334
 4151SOL     OW14285   5.921   9.927  11.609
 4151SOL    HW114286   5.885   9.949  11.523
 4151SOL    HW214287   5.863   9.971  11.672
 4152SOL     OW14288   1.811  11.035   8.949
 4152SOL    HW114289   1.784  11.044   9.040
 4152SOL    HW214290   1.864  11.114   8.932
 4153SOL     OW14291  12.077   6.982  13.411
 4153SOL    HW114292  12.152   7.020  13.365
 4153SOL    HW214293  12.076   7.027  13.496
 4154SOL     OW14294   7.042   2.559  12.578
 4154SOL    HW114295   7.097   2.605  12.514
 4154SOL    HW214296   6.981   2.625  12.610
 4155SOL     OW14297  13.805   9.910   9.604
 4155SOL    HW114298  13.822   9.822   9.571
 4155SOL    HW214299  13.729   9.901   9.661
 4156SOL     OW14300  12.631   0.371   0.453
 4156SOL    HW114301  12.682   0.419   0.518
 4156SOL    HW214302  12.540   0.395   0.471
 4157SOL     OW14303  12.259   9.825   2.633
 4157SOL    HW114304  12.248   9.861   2.721
 4157SOL    HW214305  12.210   9.742   2.635
 4158SOL     OW14306  11.581  13.340   6.159
 4158SOL    HW114307  11.625  13.254   6.156
 4158SOL    HW214308  11.525  13.336   6.236
 4159SOL     OW14309   8.882  11.382  13.337
 4159SOL    HW114310   8.795  11.407  13.369
 4159SOL    HW214311   8.941  11.448  13.374
 4160SOL     OW14312   1.439   0.100   2.724
 4160SOL    HW114313   1.462   0.182   2.768
 4160SOL    HW214314   1.406   0.044   2.795
 4161SOL     OW14315  14.867   3.803  11.329
 4161SOL    HW114316   0.012   3.892  11.305
 4161SOL    HW214317   0.056   3.775  11.390
 4162SOL     OW14318  14.078  13.828  11.293
 4162SOL    HW114319  14.007  13.864  11.241
 4162SOL    HW214320  14.061  13.733  11.295
 4163SOL     OW14321   8.996  14.434  14.389
 4163SOL    HW114322   9.044  14.390  14.319
 4163SOL    HW214323   9.031  14.523  14.391
 4164SOL     OW14324   4.492   2.231  10.004
 4164SOL    HW114325   4.576   2.189  10.024
 4164SOL    HW214326   4.509   2.325  10.015
 4165SOL     OW14327   7.880   4.112   4.538
 4165SOL    HW114328   7.970   4.118   4.507
 4165SOL    HW214329   7.834   4.063   4.469
 4166SOL     OW14330   5.801   5.292   7.051
 4166SOL    HW114331   5.852   5.331   7.121
 4166SOL    HW214332   5.859   5.225   7.014
 4167SOL     OW14333   1.345  13.781  11.629
 4167SOL    HW114334   1.285  13.852  11.651
 4167SOL    HW214335   1.389  13.760  11.711
 4168SOL     OW14336   5.156  13.314  14.245
 4168SOL    HW114337   5.227  13.343  14.302
 4168SOL    HW214338   5.098  13.263  14.302
 4169SOL     OW14339   6.993  11.543   0.921
 4169SOL    HW114340   6.953  11.612   0.868
 4169SOL    HW214341   6.939  11.539   1.000
 4170SOL     OW14342   8.687   5.912  13.034
 4170SOL    HW114343   8.726   5.971  13.098
 4170SOL    HW214344   8.657   5.970  12.964
 4171SOL     OW14345   2.517  10.017   3.349
 4171SOL    HW114346   2.611  10.032   3.354
 4171SOL    HW214347   2.505   9.962   3.271
 4172SOL     OW14348  14.134   8.896   0.055
 4172SOL    HW114349  14.186   8.898   0.135
 4172SOL    HW214350  14.166   8.819   0.008
 4173SOL     OW14351   3.850  12.087   9.736
 4173SOL    HW114352   3.820  12.109   9.648
 4173SOL    HW214353   3.848  11.992   9.739
 4174SOL     OW14354   9.913  13.664   1.467
 4174SOL    HW114355   9.934  13.753   1.494
 4174SOL    HW214356   9.849  13.634   1.531
 4175SOL     OW14357  12.712  14.759  11.215
 4175SOL    HW114358  12.807  14.760  11.209
 4175SOL    HW214359  12.681  14.756  11.125
 4176SOL     OW14360   1.245  11.606   9.866
 4176SOL    HW114361   1.264  11.570   9.779
 4176SOL    HW214362   1.313  11.569   9.922
 4177SOL     OW14363   5.553   9.490  12.476
 4177SOL    HW114364   5.598   9.492  12.391
 4177SOL    HW214365   5.467   9.529  12.459
 4178SOL     OW14366   2.380   3.312   2.588
 4178SOL    HW114367   2.297   3.263   2.592
 4178SOL    HW214368   2.447   3.244   2.596
 4179SOL     OW14369   7.228   1.992   2.212
 4179SOL    HW114370   7.200   2.074   2.170
 4179SOL    HW214371   7.317   1.979   2.182
 4180SOL     OW14372  12.832  14.339   6.689
 4180SOL    HW114373  12.827  14.251   6.652
 4180SOL    HW214374  12.910  14.377   6.648
 4181SOL     OW14375  14.320   3.485   1.753
 4181SOL    HW114376  14.268   3.493   1.673
 4181SOL    HW214377  14.275   3.541   1.817
 4182SOL     OW14378   7.733   1.251  10.200
 4182SOL    HW114379   7.765   1.340  10.218
 4182SOL    HW214380   7.701   1.254  10.110
 4183SOL     OW14381   8.264  11.581   6.569
 4183SOL    HW114382   8.351  11.570   6.607
 4183SOL    HW214383   8.280  11.611   6.480
 4184SOL     OW14384   6.775   3.083   2.835
 4184SOL    HW114385   6.698   3.058   2.886
 4184SOL    HW214386   6.742   3.098   2.747
 4185SOL     OW14387  10.509   2.845   4.267
 4185SOL    HW114388  10.466   2.892   4.338
 4185SOL    HW214389  10.528   2.912   4.201
 4186SOL     OW14390  14.457  10.265   8.372
 4186SOL    HW114391  14.364  10.242   8.376
 4186SOL    HW214392  14.462  10.337   8.310
 4187SOL     OW14393   8.845   8.179  12.342
 4187SOL    HW114394   8.821   8.092  12.374
 4187SOL    HW214395   8.929   8.198  12.383
 4188SOL     OW14396  10.397   3.268   7.387
 4188SOL    HW114397  10.466   3.253   7.323
 4188SOL    HW214398  10.356   3.182   7.399
 4189SOL     OW14399   8.841   5.375   8.921
 4189SOL    HW114400   8.816   5.312   8.853
 4189SOL    HW214401   8.766   5.376   8.981
 4190SOL     OW14402   0.761  12.514   9.820
 4190SOL    HW114403   0.741  12.454   9.892
 4190SOL    HW214404   0.810  12.586   9.861
 4191SOL     OW14405   7.473   9.007   3.609
 4191SOL    HW114406   7.509   8.995   3.697
 4191SOL    HW214407   7.393   9.058   3.623
 4192SOL     OW14408   8.509  13.653  12.212
 4192SOL    HW114409   8.559  13.590  12.161
 4192SOL    HW214410   8.435  13.604  12.247
 4193SOL     OW14411  14.847   8.159   2.793
 4193SOL    HW114412  14.843   8.254   2.782
 4193SOL    HW214413  14.849   8.125   2.704
 4194SOL     OW14414  12.364  11.898  13.977
 4194SOL    HW114415  12.453  11.914  14.008
 4194SOL    HW214416  12.310  11.959  14.028
 4195SOL     OW14417  12.119   7.426   3.895
 4195SOL    HW114418  12.151   7.457   3.810
 4195SOL    HW214419  12.120   7.330   3.888
 4196SOL     OW14420  13.183   7.331   6.951
 4196SOL    HW114421  13.107   7.280   6.980
 4196SOL    HW214422  13.251   7.265   6.935
 4197SOL     OW14423   6.490   3.065  13.125
 4197SOL    HW114424   6.428   3.138  13.125
 4197SOL    HW214425   6.436   2.988  13.110
 4198SOL     OW14426   3.375   3.037  10.569
 4198SOL    HW114427   3.469   3.025  10.587
 4198SOL    HW214428   3.343   3.091  10.641
 4199SOL     OW14429  11.552   0.478  14.408
 4199SOL    HW114430  11.513   0.480  14.321
 4199SOL    HW214431  11.640   0.444  14.395
 4200SOL     OW14432  11.888   7.518  14.093
 4200SOL    HW114433  11.919   7.551  14.008
 4200SOL    HW214434  11.890   7.423  14.083
 4201SOL     OW14435   9.840  10.441  12.147
 4201SOL    HW114436   9.793  10.523  12.129
 4201SOL    HW214437   9.911  10.467  12.207
 4202SOL     OW14438   4.536   8.969   3.920
 4202SOL    HW114439   4.605   8.915   3.959
 4202SOL    HW214440   4.575   9.002   3.839
 4203SOL     OW14441   2.896  11.886   0.211
 4203SOL    HW114442   2.924  11.795   0.216
 4203SOL    HW214443   2.825  11.893   0.274
 4204SOL     OW14444  14.658   9.449   1.780
 4204SOL    HW114445  14.743   9.487   1.759
 4204SOL    HW214446  14.656   9.447   1.876
 4205SOL     OW14447   5.077   6.845   5.062
 4205SOL    HW114448   5.031   6.880   4.986
 4205SOL    HW214449   5.008   6.801   5.113
 4206SOL     OW14450   9.203   1.269  10.757
 4206SOL    HW114451   9.146   1.338  10.790
 4206SOL    HW214452   9.191   1.197  10.818
 4207SOL     OW14453   4.370   7.844   7.935
 4207SOL    HW114454   4.288   7.803   7.907
 4207SOL    HW214455   4.343   7.925   7.978
 4208SOL     OW14456   9.399  11.656   8.776
 4208SOL    HW114457   9.477  11.614   8.741
 4208SOL    HW214458   9.378  11.725   8.713
 4209SOL     OW14459   0.385   4.115   8.019
 4209SOL    HW114460   0.319   4.166   8.067
 4209SOL    HW214461   0.373   4.026   8.050
 4210SOL     OW14462   8.094   8.516  10.369
 4210SOL    HW114463   8.187   8.503  10.355
 4210SOL    HW214464   8.083   8.510  10.464
 4211SOL     OW14465   6.008   9.246   8.840
 4211SOL    HW114466   6.067   9.302   8.791
 4211SOL    HW214467   5.987   9.296   8.919
 4212SOL     OW14468  11.550  12.322  12.210
 4212SOL    HW114469  11.567  12.321  12.116
 4212SOL    HW214470  11.577  12.235  12.240
 4213SOL     OW14471   7.384   3.483  12.315
 4213SOL    HW114472   7.354   3.574  12.319
 4213SOL    HW214473   7.470   3.488  12.273
 4214SOL     OW14474   8.516   3.727  12.043
 4214SOL    HW114475   8.504   3.723  11.949
 4214SOL    HW214476   8.589   3.788  12.055
 4215SOL     OW14477   8.041  14.403   1.362
 4215SOL    HW114478   7.955  14.364   1.345
 4215SOL    HW214479   8.062  14.374   1.451
 4216SOL     OW14480   0.178   3.648  11.063
 4216SOL    HW114481   0.129   3.602  11.131
 4216SOL    HW214482   0.263   3.666  11.103
 4217SOL     OW14483  12.358  13.040   0.705
 4217SOL    HW114484  12.330  13.085   0.785
 4217SOL    HW214485  12.309  13.083   0.635
 4218SOL     OW14486  14.823   8.141   0.857
 4218SOL    HW114487  14.835   8.236   0.869
 4218SOL    HW214488  14.744   8.134   0.803
 4219SOL     OW14489   0.803   4.895   6.301
 4219SOL    HW114490   0.868   4.896   6.371
 4219SOL    HW214491   0.755   4.813   6.314
 4220SOL     OW14492   9.318   6.035  12.081
 4220SOL    HW114493   9.345   6.014  11.992
 4220SOL    HW214494   9.299   5.950  12.121
 4221SOL     OW14495   5.663  13.815  10.044
 4221SOL    HW114496   5.592  13.755  10.021
 4221SOL    HW214497   5.638  13.898  10.003
 4222SOL     OW14498   2.737   6.817   8.529
 4222SOL    HW114499   2.652   6.850   8.502
 4222SOL    HW214500   2.778   6.890   8.575
 4223SOL     OW14501   6.682  14.430   2.341
 4223SOL    HW114502   6.737  14.428   2.420
 4223SOL    HW214503   6.643  14.343   2.337
 4224SOL     OW14504  10.767   3.445   4.766
 4224SOL    HW114505  10.708   3.372   4.786
 4224SOL    HW214506  10.818   3.415   4.691
 4225SOL     OW14507  11.019  12.257   6.723
 4225SOL    HW114508  10.924  12.258   6.705
 4225SOL    HW214509  11.025  12.258   6.818
 4226SOL     OW14510   4.391   5.877  13.790
 4226SOL    HW114511   4.435   5.808  13.740
 4226SOL    HW214512   4.429   5.959  13.756
 4227SOL     OW14513   1.497  14.138  14.435
 4227SOL    HW114514   1.418  14.191  14.447
 4227SOL    HW214515   1.496  14.079  14.511
 4228SOL     OW14516   5.242   4.343   3.421
 4228SOL    HW114517   5.277   4.400   3.489
 4228SOL    HW214518   5.269   4.384   3.339
 4229SOL     OW14519  13.310   0.511   4.256
 4229SOL    HW114520  13.360   0.508   4.337
 4229SOL    HW214521  13.372   0.485   4.188
 4230SOL     OW14522   9.782   9.610   3.534
 4230SOL    HW114523   9.798   9.665   3.457
 4230SOL    HW214524   9.688   9.593   3.531
 4231SOL     OW14525   9.885   0.219  10.384
 4231SOL    HW114526   9.978   0.214  10.407
 4231SOL    HW214527   9.848   0.136  10.414
 4232SOL     OW14528   4.477   9.108  10.344
 4232SOL    HW114529   4.404   9.126  10.404
 4232SOL    HW214530   4.460   9.165  10.269
 4233SOL     OW14531   6.685   1.126   3.813
 4233SOL    HW114532   6.637   1.086   3.741
 4233SOL    HW214533   6.712   1.052   3.868
 4234SOL     OW14534   0.830  14.096   1.489
 4234SOL    HW114535   0.892  14.040   1.535
 4234SOL    HW214536   0.746  14.078   1.531
 4235SOL     OW14537   5.225   5.669   0.582
 4235SOL    HW114538   5.236   5.576   0.600
 4235SOL    HW214539   5.205   5.673   0.488
 4236SOL     OW14540   9.625  12.316   7.485
 4236SOL    HW114541   9.552  12.366   7.521
 4236SOL    HW214542   9.656  12.262   7.558
 4237SOL     OW14543   7.239   0.828   7.935
 4237SOL    HW114544   7.172   0.884   7.974
 4237SOL    HW214545   7.285   0.790   8.010
 4238SOL     OW14546  14.702   9.532  12.464
 4238SOL    HW114547  14.776   9.533  12.525
 4238SOL    HW214548  14.659   9.616  12.477
 4239SOL     OW14549  13.578  10.787   7.188
 4239SOL    HW114550  13.672  10.797   7.177
 4239SOL    HW214551  13.553  10.717   7.127
 4240SOL     OW14552   1.359  11.188  11.409
 4240SOL    HW114553   1.339  11.152  11.495
 4240SOL    HW214554   1.415  11.122  11.368
 4241SOL     OW14555  10.229  14.672   6.523
 4241SOL    HW114556  10.293  14.689   6.592
 4241SOL    HW214557  10.235  14.748   6.465
 4242SOL     OW14558   5.952   3.791   3.668
 4242SOL    HW114559   5.864   3.821   3.646
 4242SOL    HW214560   5.938   3.720   3.731
 4243SOL     OW14561   3.944   8.165   7.335
 4243SOL    HW114562   3.912   8.230   7.273
 4243SOL    HW214563   3.915   8.199   7.421
 4244SOL     OW14564   7.348   5.355   0.447
 4244SOL    HW114565   7.369   5.341   0.355
 4244SOL    HW214566   7.258   5.325   0.456
 4245SOL     OW14567  12.325   8.561  11.595
 4245SOL    HW114568  12.268   8.608  11.656
 4245SOL    HW214569  12.413   8.597  11.613
 4246SOL     OW14570   6.573   7.014  11.786
 4246SOL    HW114571   6.625   6.976  11.715
 4246SOL    HW214572   6.515   7.077  11.742
 4247SOL     OW14573   3.470   6.768  12.746
 4247SOL    HW114574   3.393   6.758  12.690
 4247SOL    HW214575   3.544   6.750  12.688
 4248SOL     OW14576   1.501   7.501  10.715
 4248SOL    HW114577   1.422   7.510  10.768
 4248SOL    HW214578   1.532   7.590  10.701
 4249SOL     OW14579   4.417   5.079   3.109
 4249SOL    HW114580   4.478   5.021   3.155
 4249SOL    HW214581   4.359   5.113   3.178
 4250SOL     OW14582   5.868   5.389   4.191
 4250SOL    HW114583   5.943   5.373   4.134
 4250SOL    HW214584   5.904   5.385   4.280
 4251SOL     OW14585   1.179   6.517  10.996
 4251SOL    HW114586   1.202   6.434  10.956
 4251SOL    HW214587   1.159   6.495  11.087
 4252SOL     OW14588   7.797   3.129   5.415
 4252SOL    HW114589   7.829   3.188   5.347
 4252SOL    HW214590   7.797   3.182   5.495
 4253SOL     OW14591   1.128   0.070  11.038
 4253SOL    HW114592   1.069   0.138  11.070
 4253SOL    HW214593   1.092   0.045  10.952
 4254SOL     OW14594   8.808  12.369   4.973
 4254SOL    HW114595   8.836  12.315   4.899
 4254SOL    HW214596   8.713  12.372   4.965
 4255SOL     OW14597  10.191  14.814  14.094
 4255SOL    HW114598  10.158   0.012  14.141
 4255SOL    HW214599  10.119  14.787  14.037
 4256SOL     OW14600   9.160   6.872   2.619
 4256SOL    HW114601   9.097   6.923   2.670
 4256SOL    HW214602   9.163   6.787   2.663
 4257SOL     OW14603  12.017  14.414   0.593
 4257SOL    HW114604  11.987  14.349   0.529
 4257SOL    HW214605  11.978  14.496   0.563
 4258SOL     OW14606   0.754  11.117   7.482
 4258SOL    HW114607   0.705  11.065   7.418
 4258SOL    HW214608   0.833  11.143   7.435
 4259SOL     OW14609   8.138  13.293   3.719
 4259SOL    HW114610   8.195  13.299   3.642
 4259SOL    HW214611   8.112  13.201   3.723
 4260SOL     OW14612   5.782   7.692   5.943
 4260SOL    HW114613   5.833   7.710   6.022
 4260SOL    HW214614   5.846   7.684   5.873
 4261SOL     OW14615   7.139   0.191   9.479
 4261SOL    HW114616   7.223   0.175   9.437
 4261SOL    HW214617   7.075   0.156   9.416
 4262SOL     OW14618   5.520   1.258   5.920
 4262SOL    HW114619   5.589   1.211   5.874
 4262SOL    HW214620   5.551   1.263   6.011
 4263SOL     OW14621  11.104   3.049   8.662
 4263SOL    HW114622  11.174   3.088   8.610
 4263SOL    HW214623  11.045   3.122   8.681
 4264SOL     OW14624   3.850   5.448   3.787
 4264SOL    HW114625   3.894   5.396   3.854
 4264SOL    HW214626   3.903   5.528   3.779
 4265SOL     OW14627   9.640   9.286   1.469
 4265SOL    HW114628   9.657   9.374   1.436
 4265SOL    HW214629   9.551   9.290   1.504
 4266SOL     OW14630  13.043   3.838  11.077
 4266SOL    HW114631  12.955   3.800  11.090
 4266SOL    HW214632  13.045   3.913  11.135
 4267SOL     OW14633   0.105   6.193   4.681
 4267SOL    HW114634   0.117   6.174   4.587
 4267SOL    HW214635   0.048   6.123   4.713
 4268SOL     OW14636  10.977   5.014   6.735
 4268SOL    HW114637  11.029   5.077   6.685
 4268SOL    HW214638  10.969   4.938   6.676
 4269SOL     OW14639   7.372   0.137   2.781
 4269SOL    HW114640   7.321   0.215   2.802
 4269SOL    HW214641   7.365   0.082   2.859
 4270SOL     OW14642   9.997   6.058   0.075
 4270SOL    HW114643   9.976   6.067   0.168
 4270SOL    HW214644   9.993   6.147   0.041
 4271SOL     OW14645   2.389   2.782  13.043
 4271SOL    HW114646   2.434   2.846  13.098
 4271SOL    HW214647   2.322   2.834  12.998
 4272SOL     OW14648   9.284   4.321   6.985
 4272SOL    HW114649   9.265   4.265   6.909
 4272SOL    HW214650   9.207   4.376   6.994
 4273SOL     OW14651  10.307  10.014  14.537
 4273SOL    HW114652  10.249  10.088  14.520
 4273SOL    HW214653  10.349  10.034  14.621
 4274SOL     OW14654   3.505   6.771  10.171
 4274SOL    HW114655   3.505   6.675  10.171
 4274SOL    HW214656   3.429   6.796  10.119
 4275SOL     OW14657   4.528  12.055  13.498
 4275SOL    HW114658   4.444  12.041  13.455
 4275SOL    HW214659   4.520  12.141  13.539
 4276SOL     OW14660   4.042   7.007  12.199
 4276SOL    HW114661   4.111   6.941  12.191
 4276SOL    HW214662   4.030   7.041  12.110
 4277SOL     OW14663  14.360   6.151   3.309
 4277SOL    HW114664  14.440   6.193   3.341
 4277SOL    HW214665  14.377   6.057   3.316
 4278SOL     OW14666  14.414  10.666  10.908
 4278SOL    HW114667  14.475  10.697  10.973
 4278SOL    HW214668  14.452  10.584  10.875
 4279SOL     OW14669   1.457  13.637   5.797
 4279SOL    HW114670   1.467  13.544   5.777
 4279SOL    HW214671   1.434  13.640   5.890
 4280SOL     OW14672  10.518  11.391   7.537
 4280SOL    HW114673  10.534  11.297   7.545
 4280SOL    HW214674  10.574  11.418   7.463
 4281SOL     OW14675   9.057  11.189   7.435
 4281SOL    HW114676   8.975  11.142   7.453
 4281SOL    HW214677   9.118  11.121   7.406
 4282SOL     OW14678   1.312   0.398  13.862
 4282SOL    HW114679   1.247   0.465  13.884
 4282SOL    HW214680   1.260   0.324  13.829
 4283SOL     OW14681   5.046  10.679  10.931
 4283SOL    HW114682   5.028  10.642  10.845
 4283SOL    HW214683   5.074  10.769  10.914
 4284SOL     OW14684  11.543   4.649   1.990
 4284SOL    HW114685  11.587   4.635   2.074
 4284SOL    HW214686  11.612   4.638   1.925
 4285SOL     OW14687  11.048  10.008   7.727
 4285SOL    HW114688  11.129   9.977   7.768
 4285SOL    HW214689  11.034  10.095   7.764
 4286SOL     OW14690  13.067   7.678   5.119
 4286SOL    HW114691  13.110   7.734   5.183
 4286SOL    HW214692  13.065   7.730   5.039
 4287SOL     OW14693   4.681  12.859   1.239
 4287SOL    HW114694   4.740  12.923   1.199
 4287SOL    HW214695   4.653  12.900   1.321
 4288SOL     OW14696  12.778  13.365   3.982
 4288SOL    HW114697  12.843  13.295   3.984
 4288SOL    HW214698  12.715  13.337   3.916
 4289SOL     OW14699   8.835  14.542   2.062
 4289SOL    HW114700   8.922  14.544   2.021
 4289SOL    HW214701   8.853  14.551   2.155
 4290SOL     OW14702  12.978   2.405  12.251
 4290SOL    HW114703  12.947   2.388  12.340
 4290SOL    HW214704  13.073   2.396  12.257
 4291SOL     OW14705  13.394  12.646   7.117
 4291SOL    HW114706  13.305  12.620   7.096
 4291SOL    HW214707  13.406  12.622   7.209
 4292SOL     OW14708   1.700   4.850   3.072
 4292SOL    HW114709   1.759   4.778   3.094
 4292SOL    HW214710   1.648   4.864   3.151
 4293SOL     OW14711  14.083   2.005   2.648
 4293SOL    HW114712  14.144   1.963   2.709
 4293SOL    HW214713  14.133   2.077   2.610
 4294SOL     OW14714   8.490   6.385   8.600
 4294SOL    HW114715   8.512   6.435   8.679
 4294SOL    HW214716   8.473   6.452   8.534
 4295SOL     OW14717  11.808  14.172  14.380
 4295SOL    HW114718  11.737  14.171  14.316
 4295SOL    HW214719  11.838  14.081  14.384
 4296SOL     OW14720   4.112  11.463   0.950
 4296SOL    HW114721   4.053  11.533   0.976
 4296SOL    HW214722   4.100  11.395   1.017
 4297SOL     OW14723  12.495   1.533  10.374
 4297SOL    HW114724  12.500   1.513  10.468
 4297SOL    HW214725  12.544   1.615  10.365
 4298SOL     OW14726   6.973   5.982  12.971
 4298SOL    HW114727   7.052   5.955  12.924
 4298SOL    HW214728   6.938   5.901  13.007
 4299SOL     OW14729   2.125   1.854   5.173
 4299SOL    HW114730   2.118   1.827   5.081
 4299SOL    HW214731   2.086   1.782   5.222
 4300SOL     OW14732  10.865  11.581   7.925
 4300SOL    HW114733  10.843  11.491   7.950
 4300SOL    HW214734  10.856  11.582   7.830
 4301SOL     OW14735   4.099  10.365  11.229
 4301SOL    HW114736   4.179  10.413  11.208
 4301SOL    HW214737   4.128  10.291  11.282
 4302SOL     OW14738  13.417   9.376  10.089
 4302SOL    HW114739  13.364   9.373  10.010
 4302SOL    HW214740  13.404   9.465  10.123
 4303SOL     OW14741  12.761   8.812   9.091
 4303SOL    HW114742  12.717   8.733   9.119
 4303SOL    HW214743  12.852   8.786   9.077
 4304SOL     OW14744  14.721   4.127   0.298
 4304SOL    HW114745  14.762   4.174   0.225
 4304SOL    HW214746  14.635   4.170   0.308
 4305SOL     OW14747   1.321   0.736   1.623
 4305SOL    HW114748   1.384   0.690   1.678
 4305SOL    HW214749   1.372   0.763   1.546
 4306SOL     OW14750   1.868   8.762   4.324
 4306SOL    HW114751   1.881   8.856   4.319
 4306SOL    HW214752   1.907   8.727   4.244
 4307SOL     OW14753   5.983   2.202   0.382
 4307SOL    HW114754   6.050   2.271   0.378
 4307SOL    HW214755   5.927   2.227   0.455
 4308SOL     OW14756  10.373   9.623   9.735
 4308SOL    HW114757  10.418   9.651   9.655
 4308SOL    HW214758  10.443   9.592   9.792
 4309SOL     OW14759   7.514   3.863   7.788
 4309SOL    HW114760   7.585   3.899   7.736
 4309SOL    HW214761   7.444   3.928   7.784
 4310SOL     OW14762  10.365   0.177   2.676
 4310SOL    HW114763  10.286   0.200   2.627
 4310SOL    HW214764  10.381   0.253   2.731
 4311SOL     OW14765  11.314   1.443  13.108
 4311SOL    HW114766  11.273   1.527  13.127
 4311SOL    HW214767  11.344   1.451  13.017
 4312SOL     OW14768   3.880   0.939   5.715
 4312SOL    HW114769   3.813   0.949   5.647
 4312SOL    HW214770   3.839   0.972   5.795
 4313SOL     OW14771   7.907   9.719   9.382
 4313SOL    HW114772   7.917   9.635   9.428
 4313SOL    HW214773   7.844   9.768   9.435
 4314SOL     OW14774  13.643   0.877  13.084
 4314SOL    HW114775  13.696   0.802  13.058
 4314SOL    HW214776  13.610   0.854  13.171
 4315SOL     OW14777   1.940   2.380   2.871
 4315SOL    HW114778   1.875   2.344   2.931
 4315SOL    HW214779   2.024   2.366   2.914
 4316SOL     OW14780   2.872   4.537  11.426
 4316SOL    HW114781   2.849   4.449  11.397
 4316SOL    HW214782   2.839   4.542  11.516
 4317SOL     OW14783   7.143   1.913   9.286
 4317SOL    HW114784   7.211   1.967   9.325
 4317SOL    HW214785   7.119   1.959   9.205
 4318SOL     OW14786  13.375   6.159   0.757
 4318SOL    HW114787  13.385   6.236   0.813
 4318SOL    HW214788  13.389   6.084   0.815
 4319SOL     OW14789   6.267   5.539   1.280
 4319SOL    HW114790   6.228   5.491   1.353
 4319SOL    HW214791   6.202   5.607   1.259
 4320SOL     OW14792  12.631   8.959  12.839
 4320SOL    HW114793  12.702   8.912  12.883
 4320SOL    HW214794  12.675   9.025  12.786
 4321SOL     OW14795   7.482   4.266   4.342
 4321SOL    HW114796   7.514   4.340   4.392
 4321SOL    HW214797   7.560   4.216   4.319
 4322SOL     OW14798  11.071   4.103   1.298
 4322SOL    HW114799  11.025   4.168   1.245
 4322SOL    HW214800  11.138   4.068   1.240
 4323SOL     OW14801  12.525   7.612   3.202
 4323SOL    HW114802  12.451   7.652   3.248
 4323SOL    HW214803  12.587   7.591   3.271
 4324SOL     OW14804   1.852   9.174   2.223
 4324SOL    HW114805   1.856   9.209   2.312
 4324SOL    HW214806   1.850   9.252   2.167
 4325SOL     OW14807  14.004   4.334  11.486
 4325SOL    HW114808  13.962   4.417  11.463
 4325SOL    HW214809  13.946   4.295  11.552
 4326SOL     OW14810   7.056   1.497   0.177
 4326SOL    HW114811   7.047   1.539   0.092
 4326SOL    HW214812   7.134   1.536   0.215
 4327SOL     OW14813  10.863   3.647   2.360
 4327SOL    HW114814  10.798   3.654   2.290
 4327SOL    HW214815  10.818   3.679   2.438
 4328SOL     OW14816  11.457   2.338   8.700
 4328SOL    HW114817  11.402   2.327   8.777
 4328SOL    HW214818  11.535   2.384   8.733
 4329SOL     OW14819   3.748   8.329   0.299
 4329SOL    HW114820   3.681   8.394   0.321
 4329SOL    HW214821   3.721   8.294   0.215
 4330SOL     OW14822   3.644   3.076   4.499
 4330SOL    HW114823   3.597   2.993   4.497
 4330SOL    HW214824   3.619   3.116   4.582
 4331SOL     OW14825  11.370   1.809  12.098
 4331SOL    HW114826  11.399   1.758  12.174
 4331SOL    HW214827  11.275   1.808  12.103
 4332SOL     OW14828   2.768   6.548   4.179
 4332SOL    HW114829   2.688   6.498   4.195
 4332SOL    HW214830   2.810   6.504   4.105
 4333SOL     OW14831   3.829   9.131   6.498
 4333SOL    HW114832   3.871   9.118   6.413
 4333SOL    HW214833   3.885   9.195   6.543
 4334SOL     OW14834   9.083   4.334   0.584
 4334SOL    HW114835   9.026   4.325   0.508
 4334SOL    HW214836   9.030   4.381   0.648
 4335SOL     OW14837   4.279   8.775   0.231
 4335SOL    HW114838   4.255   8.718   0.158
 4335SOL    HW214839   4.359   8.736   0.267
 4336SOL     OW14840   6.728   6.844  10.809
 4336SOL    HW114841   6.763   6.913  10.751
 4336SOL    HW214842   6.779   6.852  10.889
 4337SOL     OW14843   4.275   6.112   8.442
 4337SOL    HW114844   4.343   6.163   8.486
 4337SOL    HW214845   4.199   6.172   8.439
 4338SOL     OW14846   2.124  12.820  11.705
 4338SOL    HW114847   2.166  12.734  11.695
 4338SOL    HW214848   2.059  12.822  11.634
 4339SOL     OW14849   0.122   9.027   2.170
 4339SOL    HW114850   0.106   8.934   2.185
 4339SOL    HW214851   0.123   9.036   2.075
 4340SOL     OW14852   5.675   1.734   2.253
 4340SOL    HW114853   5.633   1.688   2.325
 4340SOL    HW214854   5.769   1.717   2.264
 4341SOL     OW14855  13.438  13.560   9.696
 4341SOL    HW114856  13.493  13.634   9.722
 4341SOL    HW214857  13.360  13.601   9.658
 4342SOL     OW14858   8.113   2.830  10.055
 4342SOL    HW114859   8.135   2.890   9.984
 4342SOL    HW214860   8.019   2.813  10.045
 4343SOL     OW14861   4.296   1.036  11.096
 4343SOL    HW114862   4.295   1.126  11.128
 4343SOL    HW214863   4.225   0.993  11.143
 4344SOL     OW14864  13.928   4.704   8.319
 4344SOL    HW114865  14.007   4.743   8.356
 4344SOL    HW214866  13.956   4.667   8.235
 4345SOL     OW14867  11.235  14.236   9.219
 4345SOL    HW114868  11.261  14.321   9.184
 4345SOL    HW214869  11.153  14.216   9.173
 4346SOL     OW14870  14.877   3.486   6.795
 4346SOL    HW114871   0.015   3.432   6.872
 4346SOL    HW214872   0.014   3.427   6.721
 4347SOL     OW14873   7.825   7.989   9.537
 4347SOL    HW114874   7.770   7.911   9.529
 4347SOL    HW214875   7.854   8.008   9.448
 4348SOL     OW14876  14.525   1.341   8.767
 4348SOL    HW114877  14.448   1.389   8.797
 4348SOL    HW214878  14.552   1.290   8.843
 4349SOL     OW14879   2.073   6.521   5.389
 4349SOL    HW114880   2.133   6.465   5.340
 4349SOL    HW214881   1.986   6.484   5.371
 4350SOL     OW14882   1.105   7.110  11.707
 4350SOL    HW114883   1.032   7.095  11.647
 4350SOL    HW214884   1.182   7.114  11.651
 4351SOL     OW14885   6.250   0.724   6.390
 4351SOL    HW114886   6.222   0.800   6.339
 4351SOL    HW214887   6.327   0.690   6.343
 4352SOL     OW14888   0.224   8.157  14.857
 4352SOL    HW114889   0.173   8.198   0.049
 4352SOL    HW214890   0.222   8.063  14.877
 4353SOL     OW14891  11.303  14.280   9.466
 4353SOL    HW114892  11.272  14.233   9.389
 4353SOL    HW214893  11.362  14.347   9.431
 4354SOL     OW14894   5.671   7.851  14.271
 4354SOL    HW114895   5.748   7.892  14.311
 4354SOL    HW214896   5.704   7.769  14.235
 4355SOL     OW14897   2.524   3.004   1.022
 4355SOL    HW114898   2.537   3.035   1.112
 4355SOL    HW214899   2.564   2.917   1.021
 4356SOL     OW14900   6.779  14.650   1.014
 4356SOL    HW114901   6.749  14.741   1.007
 4356SOL    HW214902   6.700  14.598   1.003
 4357SOL     OW14903   0.957   5.734   5.671
 4357SOL    HW114904   0.918   5.784   5.742
 4357SOL    HW214905   1.001   5.800   5.617
 4358SOL     OW14906   0.826   5.133  13.411
 4358SOL    HW114907   0.854   5.178  13.331
 4358SOL    HW214908   0.756   5.074  13.382
 4359SOL     OW14909  10.910  13.209   3.053
 4359SOL    HW114910  10.986  13.217   2.995
 4359SOL    HW214911  10.868  13.295   3.050
 4360SOL     OW14912   8.322   8.750   0.086
 4360SOL    HW114913   8.237   8.793   0.080
 4360SOL    HW214914   8.322   8.710   0.173
 4361SOL     OW14915   1.617  13.260   6.306
 4361SOL    HW114916   1.673  13.185   6.325
 4361SOL    HW214917   1.541  13.249   6.364
 4362SOL     OW14918  10.147   6.719   6.331
 4362SOL    HW114919  10.166   6.707   6.238
 4362SOL    HW214920  10.052   6.711   6.337
 4363SOL     OW14921   4.904   8.981   5.055
 4363SOL    HW114922   4.819   8.938   5.046
 4363SOL    HW214923   4.914   9.033   4.975
 4364SOL     OW14924  11.566   5.965  10.135
 4364SOL    HW114925  11.532   6.025  10.201
 4364SOL    HW214926  11.519   5.987  10.055
 4365SOL     OW14927  11.378   4.357   3.853
 4365SOL    HW114928  11.308   4.346   3.789
 4365SOL    HW214929  11.350   4.433   3.905
 4366SOL     OW14930   3.867   7.454   2.377
 4366SOL    HW114931   3.937   7.425   2.435
 4366SOL    HW214932   3.795   7.477   2.436
 4367SOL     OW14933   7.544   2.423   8.468
 4367SOL    HW114934   7.603   2.360   8.429
 4367SOL    HW214935   7.556   2.412   8.563
 4368SOL     OW14936   9.994   2.709   0.151
 4368SOL    HW114937   9.996   2.646   0.079
 4368SOL    HW214938  10.028   2.661   0.227
 4369SOL     OW14939   1.179   0.488   6.467
 4369SOL    HW114940   1.204   0.416   6.525
 4369SOL    HW214941   1.258   0.510   6.420
 4370SOL     OW14942  12.818   1.571  12.034
 4370SOL    HW114943  12.839   1.488  11.992
 4370SOL    HW214944  12.814   1.634  11.963
 4371SOL     OW14945   2.797   5.289   8.315
 4371SOL    HW114946   2.721   5.297   8.256
 4371SOL    HW214947   2.873   5.305   8.259
 4372SOL     OW14948   6.155   4.410   7.290
 4372SOL    HW114949   6.206   4.425   7.210
 4372SOL    HW214950   6.178   4.321   7.316
 4373SOL     OW14951  11.792   5.541   4.473
 4373SOL    HW114952  11.868   5.521   4.418
 4373SOL    HW214953  11.776   5.460   4.522
 4374SOL     OW14954   7.819   5.399  13.160
 4374SOL    HW114955   7.736   5.447  13.160
 4374SOL    HW214956   7.854   5.411  13.249
 4375SOL     OW14957   6.347  13.117  11.939
 4375SOL    HW114958   6.289  13.094  11.866
 4375SOL    HW214959   6.301  13.188  11.984
 4376SOL     OW14960   8.973  12.038  10.068
 4376SOL    HW114961   9.060  12.014  10.035
 4376SOL    HW214962   8.982  12.130  10.093
 4377SOL     OW14963   1.614   6.412  10.610
 4377SOL    HW114964   1.664   6.346  10.658
 4377SOL    HW214965   1.673   6.439  10.539
 4378SOL     OW14966   4.641  13.516  10.329
 4378SOL    HW114967   4.670  13.430  10.359
 4378SOL    HW214968   4.719  13.554  10.287
 4379SOL     OW14969   9.794   3.504  11.330
 4379SOL    HW114970   9.729   3.567  11.299
 4379SOL    HW214971   9.873   3.523  11.278
 4380SOL     OW14972   8.984   6.101  11.270
 4380SOL    HW114973   8.920   6.097  11.340
 4380SOL    HW214974   8.992   6.011  11.240
 4381SOL     OW14975   2.694   9.179   3.851
 4381SOL    HW114976   2.682   9.210   3.761
 4381SOL    HW214977   2.687   9.258   3.905
 4382SOL     OW14978  11.139   9.234  11.938
 4382SOL    HW114979  11.155   9.239  12.033
 4382SOL    HW214980  11.196   9.301  11.901
 4383SOL     OW14981  10.529   3.577   9.036
 4383SOL    HW114982  10.549   3.589   9.129
 4383SOL    HW214983  10.547   3.484   9.020
 4384SOL     OW14984   9.383   5.934   1.488
 4384SOL    HW114985   9.391   6.011   1.432
 4384SOL    HW214986   9.290   5.911   1.484
 4385SOL     OW14987   0.301   6.236   9.633
 4385SOL    HW114988   0.269   6.302   9.695
 4385SOL    HW214989   0.393   6.258   9.619
 4386SOL     OW14990   4.391   2.657  11.365
 4386SOL    HW114991   4.365   2.586  11.424
 4386SOL    HW214992   4.438   2.719  11.420
 4387SOL     OW14993   3.891   7.072   2.643
 4387SOL    HW114994   3.897   7.038   2.732
 4387SOL    HW214995   3.797   7.081   2.627
 4388SOL     OW14996   7.519   7.748   6.960
 4388SOL    HW114997   7.483   7.718   7.043
 4388SOL    HW214998   7.471   7.828   6.940
 4389SOL     OW14999   8.899  10.141   9.210
 4389SOL    HW115000   8.921  10.048   9.214
 4389SOL    HW215001   8.815  10.148   9.255
 4390SOL     OW15002   9.212  11.014   9.665
 4390SOL    HW115003   9.168  11.087   9.709
 4390SOL    HW215004   9.146  10.977   9.606
 4391SOL     OW15005   5.461   4.325   0.280
 4391SOL    HW115006   5.466   4.397   0.217
 4391SOL    HW215007   5.522   4.259   0.246
 4392SOL     OW15008   8.795   5.450   4.154
 4392SOL    HW115009   8.768   5.385   4.089
 4392SOL    HW215010   8.732   5.521   4.145
 4393SOL     OW15011   1.037   9.245   9.243
 4393SOL    HW115012   1.104   9.179   9.256
 4393SOL    HW215013   1.057   9.313   9.308
 4394SOL     OW15014   1.928   1.780   1.520
 4394SOL    HW115015   2.003   1.797   1.576
 4394SOL    HW215016   1.858   1.835   1.556
 4395SOL     OW15017   1.193  12.273   5.810
 4395SOL    HW115018   1.245  12.195   5.792
 4395SOL    HW215019   1.234  12.342   5.758
 4396SOL     OW15020   3.283   2.469   1.974
 4396SOL    HW115021   3.294   2.466   2.069
 4396SOL    HW215022   3.371   2.482   1.939
 4397SOL     OW15023   6.724   6.665   3.180
 4397SOL    HW115024   6.721   6.574   3.152
 4397SOL    HW215025   6.662   6.711   3.124
 4398SOL     OW15026   9.724   1.352  13.635
 4398SOL    HW115027   9.722   1.380  13.543
 4398SOL    HW215028   9.657   1.406  13.678
 4399SOL     OW15029   0.421   3.774   7.042
 4399SOL    HW115030   0.425   3.866   7.017
 4399SOL    HW215031   0.328   3.751   7.033
 4400SOL     OW15032   7.602   6.423  11.379
 4400SOL    HW115033   7.640   6.338  11.354
 4400SOL    HW215034   7.527   6.400  11.434
 4401SOL     OW15035  11.728   2.173   4.194
 4401SOL    HW115036  11.650   2.204   4.149
 4401SOL    HW215037  11.698   2.095   4.242
 4402SOL     OW15038  14.078  10.130   0.435
 4402SOL    HW115039  14.153  10.170   0.391
 4402SOL    HW215040  14.022  10.203   0.459
 4403SOL     OW15041   9.487   5.267  12.906
 4403SOL    HW115042   9.554   5.204  12.931
 4403SOL    HW215043   9.453   5.301  12.989
 4404SOL     OW15044   1.149   0.149  10.360
 4404SOL    HW115045   1.237   0.185  10.377
 4404SOL    HW215046   1.165   0.067  10.315
 4405SOL     OW15047   2.529   9.816   6.280
 4405SOL    HW115048   2.541   9.740   6.222
 4405SOL    HW215049   2.618   9.847   6.297
 4406SOL     OW15050   5.310   9.412   5.942
 4406SOL    HW115051   5.308   9.486   6.002
 4406SOL    HW215052   5.244   9.352   5.975
 4407SOL     OW15053  12.309  10.923   8.934
 4407SOL    HW115054  12.344  11.007   8.905
 4407SOL    HW215055  12.264  10.888   8.857
 4408SOL     OW15056   5.198   4.014   0.194
 4408SOL    HW115057   5.228   4.104   0.207
 4408SOL    HW215058   5.259   3.978   0.130
 4409SOL     OW15059   8.044   4.726   2.352
 4409SOL    HW115060   8.015   4.684   2.270
 4409SOL    HW215061   8.090   4.656   2.399
 4410SOL     OW15062  12.336   1.084   9.930
 4410SOL    HW115063  12.292   1.038  10.002
 4410SOL    HW215064  12.405   1.025   9.902
 4411SOL     OW15065   6.863  10.567   5.441
 4411SOL    HW115066   6.779  10.571   5.396
 4411SOL    HW215067   6.919  10.629   5.393
 4412SOL     OW15068  12.554   2.188  13.180
 4412SOL    HW115069  12.647   2.202  13.160
 4412SOL    HW215070  12.514   2.275  13.171
 4413SOL     OW15071   5.872  13.537   8.032
 4413SOL    HW115072   5.958  13.558   7.995
 4413SOL    HW215073   5.890  13.467   8.096
 4414SOL     OW15074   4.422   8.169   8.621
 4414SOL    HW115075   4.461   8.221   8.691
 4414SOL    HW215076   4.338   8.211   8.605
 4415SOL     OW15077   2.629  13.678   1.891
 4415SOL    HW115078   2.646  13.771   1.902
 4415SOL    HW215079   2.547  13.673   1.842
 4416SOL     OW15080   0.251   7.438   6.566
 4416SOL    HW115081   0.314   7.374   6.600
 4416SOL    HW215082   0.290   7.523   6.585
 4417SOL     OW15083  11.523  11.542   9.961
 4417SOL    HW115084  11.511  11.565   9.869
 4417SOL    HW215085  11.477  11.459   9.971
 4418SOL     OW15086   5.202   1.371  12.414
 4418SOL    HW115087   5.275   1.332  12.462
 4418SOL    HW215088   5.208   1.334  12.326
 4419SOL     OW15089   3.781   6.679  11.054
 4419SOL    HW115090   3.804   6.590  11.081
 4419SOL    HW215091   3.860   6.730  11.071
 4420SOL     OW15092   4.616   4.608  12.537
 4420SOL    HW115093   4.555   4.599  12.464
 4420SOL    HW215094   4.663   4.689  12.520
 4421SOL     OW15095   8.599   0.753   0.083
 4421SOL    HW115096   8.576   0.818   0.017
 4421SOL    HW215097   8.553   0.780   0.162
 4422SOL     OW15098   3.047   8.537  13.913
 4422SOL    HW115099   3.001   8.533  13.829
 4422SOL    HW215100   3.042   8.449  13.949
 4423SOL     OW15101   2.692   9.036  13.517
 4423SOL    HW115102   2.609   9.079  13.538
 4423SOL    HW215103   2.722   9.080  13.437
 4424SOL     OW15104  13.569  12.853   4.551
 4424SOL    HW115105  13.625  12.846   4.474
 4424SOL    HW215106  13.481  12.835   4.518
 4425SOL     OW15107   2.822  12.819   5.305
 4425SOL    HW115108   2.808  12.878   5.379
 4425SOL    HW215109   2.908  12.780   5.322
 4426SOL     OW15110   8.999   6.545  13.509
 4426SOL    HW115111   8.944   6.558  13.586
 4426SOL    HW215112   9.024   6.633  13.482
 4427SOL     OW15113   2.340   5.324   2.538
 4427SOL    HW115114   2.326   5.408   2.582
 4427SOL    HW215115   2.283   5.327   2.462
 4428SOL     OW15116   6.017   0.443   7.739
 4428SOL    HW115117   5.991   0.453   7.831
 4428SOL    HW215118   6.090   0.504   7.729
 4429SOL     OW15119   8.897  13.297   2.145
 4429SOL    HW115120   8.923  13.270   2.057
 4429SOL    HW215121   8.802  13.305   2.140
 4430SOL     OW15122   8.802  14.647   5.252
 4430SOL    HW115123   8.850  14.575   5.293
 4430SOL    HW215124   8.779  14.705   5.325
 4431SOL     OW15125   9.741   5.602   4.079
 4431SOL    HW115126   9.768   5.656   4.154
 4431SOL    HW215127   9.780   5.646   4.003
 4432SOL     OW15128   4.198  13.810  10.456
 4432SOL    HW115129   4.244  13.893  10.448
 4432SOL    HW215130   4.267  13.744  10.459
 4433SOL     OW15131   3.877   8.113   8.000
 4433SOL    HW115132   3.901   8.033   8.048
 4433SOL    HW215133   3.903   8.095   7.909
 4434SOL     OW15134   9.148   0.413   4.825
 4434SOL    HW115135   9.097   0.372   4.895
 4434SOL    HW215136   9.088   0.414   4.750
 4435SOL     OW15137  10.637   6.947  11.221
 4435SOL    HW115138  10.623   6.907  11.136
 4435SOL    HW215139  10.580   6.898  11.280
 4436SOL     OW15140   5.082   3.532   6.893
 4436SOL    HW115141   5.136   3.488   6.959
 4436SOL    HW215142   5.119   3.503   6.809
 4437SOL     OW15143   0.314  10.197   7.061
 4437SOL    HW115144   0.358  10.234   6.985
 4437SOL    HW215145   0.223  10.188   7.033
 4438SOL     OW15146   8.000  14.445   9.629
 4438SOL    HW115147   8.060  14.489   9.690
 4438SOL    HW215148   8.004  14.499   9.549
 4439SOL     OW15149   9.820   7.360   7.819
 4439SOL    HW115150   9.733   7.394   7.841
 4439SOL    HW215151   9.833   7.287   7.880
 4440SOL     OW15152   9.602  10.778   0.998
 4440SOL    HW115153   9.543  10.725   1.052
 4440SOL    HW215154   9.550  10.799   0.920
 4441SOL     OW15155  10.673   2.918  11.238
 4441SOL    HW115156  10.683   2.993  11.298
 4441SOL    HW215157  10.600   2.942  11.182
 4442SOL     OW15158  12.998  14.312  14.848
 4442SOL    HW115159  12.999  14.256   0.047
 4442SOL    HW215160  13.002  14.401   0.004
 4443SOL     OW15161  12.940  14.185  13.098
 4443SOL    HW115162  12.948  14.108  13.042
 4443SOL    HW215163  12.940  14.259  13.037
 4444SOL     OW15164   7.136  12.499   6.520
 4444SOL    HW115165   7.195  12.436   6.562
 4444SOL    HW215166   7.081  12.531   6.591
 4445SOL     OW15167  13.540   5.320  10.154
 4445SOL    HW115168  13.571   5.244  10.203
 4445SOL    HW215169  13.616   5.376  10.146
 4446SOL     OW15170  11.389   3.921   4.369
 4446SOL    HW115171  11.324   3.982   4.335
 4446SOL    HW215172  11.345   3.877   4.442
 4447SOL     OW15173  11.219  10.821   1.100
 4447SOL    HW115174  11.259  10.788   1.180
 4447SOL    HW215175  11.256  10.908   1.089
 4448SOL     OW15176   8.683  10.453   2.303
 4448SOL    HW115177   8.660  10.407   2.222
 4448SOL    HW215178   8.765  10.498   2.282
 4449SOL     OW15179   7.014  13.432   4.455
 4449SOL    HW115180   6.978  13.517   4.480
 4449SOL    HW215181   6.941  13.371   4.468
 4450SOL     OW15182   0.099   9.907   0.048
 4450SOL    HW115183   0.080   9.993   0.011
 4450SOL    HW215184   0.192   9.910   0.070
 4451SOL     OW15185   4.995   7.670   1.766
 4451SOL    HW115186   4.990   7.575   1.754
 4451SOL    HW215187   5.083   7.694   1.737
 4452SOL     OW15188   7.701   9.432   8.445
 4452SOL    HW115189   7.607   9.449   8.432
 4452SOL    HW215190   7.739   9.519   8.460
 4453SOL     OW15191   8.880   1.090  10.988
 4453SOL    HW115192   8.861   1.181  10.965
 4453SOL    HW215193   8.866   1.042  10.907
 4454SOL     OW15194  13.171   6.248  13.535
 4454SOL    HW115195  13.160   6.293  13.452
 4454SOL    HW215196  13.090   6.265  13.583
 4455SOL     OW15197  14.817   9.368   7.063
 4455SOL    HW115198  14.847   9.451   7.098
 4455SOL    HW215199  14.721   9.373   7.070
 4456SOL     OW15200   0.442   7.393  11.651
 4456SOL    HW115201   0.441   7.302  11.622
 4456SOL    HW215202   0.455   7.444  11.570
 4457SOL     OW15203   2.507   8.101   1.781
 4457SOL    HW115204   2.454   8.172   1.745
 4457SOL    HW215205   2.448   8.051   1.837
 4458SOL     OW15206  11.667  12.945  12.665
 4458SOL    HW115207  11.615  12.895  12.729
 4458SOL    HW215208  11.701  13.019  12.714
 4459SOL     OW15209   4.294  10.247   6.222
 4459SOL    HW115210   4.377  10.273   6.262
 4459SOL    HW215211   4.281  10.156   6.249
 4460SOL     OW15212  11.483   9.435  10.902
 4460SOL    HW115213  11.554   9.434  10.967
 4460SOL    HW215214  11.408   9.472  10.949
 4461SOL     OW15215  10.061   8.620   9.065
 4461SOL    HW115216   9.999   8.626   8.992
 4461SOL    HW215217  10.147   8.621   9.024
 4462SOL     OW15218  12.742  14.352  12.299
 4462SOL    HW115219  12.828  14.333  12.337
 4462SOL    HW215220  12.706  14.266  12.279
 4463SOL     OW15221   7.484  14.700   9.346
 4463SOL    HW115222   7.572  14.690   9.311
 4463SOL    HW215223   7.466  14.794   9.341
 4464SOL     OW15224   5.775   0.085  12.372
 4464SOL    HW115225   5.811   0.026  12.438
 4464SOL    HW215226   5.836   0.079  12.298
 4465SOL     OW15227   3.632   3.195   1.389
 4465SOL    HW115228   3.601   3.220   1.302
 4465SOL    HW215229   3.703   3.133   1.372
 4466SOL     OW15230   7.968   6.209  11.174
 4466SOL    HW115231   7.874   6.195  11.184
 4466SOL    HW215232   7.992   6.265  11.247
 4467SOL     OW15233   8.254   3.567  10.757
 4467SOL    HW115234   8.232   3.572  10.664
 4467SOL    HW215235   8.311   3.490  10.764
 4468SOL     OW15236  11.604   2.682   7.186
 4468SOL    HW115237  11.597   2.743   7.112
 4468SOL    HW215238  11.543   2.717   7.251
 4469SOL     OW15239   8.155  12.155   1.351
 4469SOL    HW115240   8.230  12.210   1.371
 4469SOL    HW215241   8.158  12.084   1.415
 4470SOL     OW15242   2.648   8.641  13.340
 4470SOL    HW115243   2.602   8.564  13.373
 4470SOL    HW215244   2.691   8.610  13.260
 4471SOL     OW15245   7.010   5.279   7.966
 4471SOL    HW115246   7.030   5.256   8.057
 4471SOL    HW215247   7.096   5.286   7.924
 4472SOL     OW15248   9.509  13.420  10.333
 4472SOL    HW115249   9.586  13.391  10.381
 4472SOL    HW215250   9.440  13.358  10.357
 4473SOL     OW15251   1.172  11.436  10.580
 4473SOL    HW115252   1.222  11.378  10.522
 4473SOL    HW215253   1.150  11.382  10.655
 4474SOL     OW15254   5.252  10.803   0.238
 4474SOL    HW115255   5.178  10.796   0.298
 4474SOL    HW215256   5.324  10.758   0.283
 4475SOL     OW15257   8.641   8.234  14.107
 4475SOL    HW115258   8.728   8.220  14.145
 4475SOL    HW215259   8.658   8.265  14.018
 4476SOL     OW15260   5.887   0.836   5.414
 4476SOL    HW115261   5.947   0.780   5.364
 4476SOL    HW215262   5.930   0.922   5.414
 4477SOL     OW15263   1.411   2.933  12.969
 4477SOL    HW115264   1.378   2.974  13.049
 4477SOL    HW215265   1.335   2.934  12.910
 4478SOL     OW15266  11.502  10.495   8.037
 4478SOL    HW115267  11.489  10.434   8.109
 4478SOL    HW215268  11.471  10.449   7.959
 4479SOL     OW15269  12.555  14.266  14.615
 4479SOL    HW115270  12.591  14.345  14.654
 4479SOL    HW215271  12.535  14.291  14.524
 4480SOL     OW15272   3.445  12.160   6.201
 4480SOL    HW115273   3.477  12.077   6.167
 4480SOL    HW215274   3.466  12.224   6.132
 4481SOL     OW15275   9.665   0.028  12.009
 4481SOL    HW115276   9.622  14.839  12.062
 4481SOL    HW215277   9.758   0.020  12.031
 4482SOL     OW15278   0.549  11.035   2.715
 4482SOL    HW115279   0.625  11.086   2.689
 4482SOL    HW215280   0.483  11.056   2.648
 4483SOL     OW15281   5.439   4.590   7.708
 4483SOL    HW115282   5.459   4.506   7.666
 4483SOL    HW215283   5.424   4.650   7.636
 4484SOL     OW15284   4.418  12.279   3.488
 4484SOL    HW115285   4.502  12.305   3.451
 4484SOL    HW215286   4.410  12.186   3.468
 4485SOL     OW15287   9.901   7.600   4.947
 4485SOL    HW115288   9.964   7.530   4.962
 4485SOL    HW215289   9.845   7.567   4.877
 4486SOL     OW15290   9.987   6.763   3.707
 4486SOL    HW115291   9.973   6.788   3.615
 4486SOL    HW215292  10.025   6.842   3.746
 4487SOL     OW15293   8.974   8.099   0.790
 4487SOL    HW115294   9.041   8.039   0.758
 4487SOL    HW215295   8.965   8.080   0.883
 4488SOL     OW15296   9.835   8.942   3.537
 4488SOL    HW115297   9.889   8.995   3.478
 4488SOL    HW215298   9.801   9.004   3.601
 4489SOL     OW15299   4.975  14.202   0.663
 4489SOL    HW115300   4.955  14.277   0.608
 4489SOL    HW215301   5.070  14.191   0.655
 4490SOL     OW15302  14.345  14.041   5.723
 4490SOL    HW115303  14.332  14.108   5.790
 4490SOL    HW215304  14.257  14.009   5.704
 4491SOL     OW15305   7.655   1.222  14.269
 4491SOL    HW115306   7.724   1.230  14.335
 4491SOL    HW215307   7.573   1.232  14.318
 4492SOL     OW15308   4.595   4.957   9.024
 4492SOL    HW115309   4.648   5.037   9.032
 4492SOL    HW215310   4.530   4.964   9.094
 4493SOL     OW15311   5.432   0.545   5.697
 4493SOL    HW115312   5.437   0.485   5.772
 4493SOL    HW215313   5.341   0.577   5.698
 4494SOL     OW15314   1.724   6.183   4.366
 4494SOL    HW115315   1.684   6.101   4.339
 4494SOL    HW215316   1.675   6.208   4.445
 4495SOL     OW15317   1.417  13.265   4.257
 4495SOL    HW115318   1.362  13.186   4.262
 4495SOL    HW215319   1.479  13.246   4.186
 4496SOL     OW15320   0.628   8.693   5.735
 4496SOL    HW115321   0.683   8.766   5.762
 4496SOL    HW215322   0.639   8.688   5.641
 4497SOL     OW15323  14.486   3.660  12.152
 4497SOL    HW115324  14.471   3.754  12.164
 4497SOL    HW215325  14.581   3.650  12.153
 4498SOL     OW15326   8.470   8.494   5.461
 4498SOL    HW115327   8.514   8.409   5.466
 4498SOL    HW215328   8.534   8.552   5.418
 4499SOL     OW15329  11.405   2.846   3.894
 4499SOL    HW115330  11.389   2.773   3.835
 4499SOL    HW215331  11.394   2.810   3.981
 4500SOL     OW15332   3.222   8.086   4.478
 4500SOL    HW115333   3.214   8.169   4.431
 4500SOL    HW215334   3.296   8.099   4.537
 4501SOL     OW15335   7.541   8.684   1.904
 4501SOL    HW115336   7.487   8.707   1.828
 4501SOL    HW215337   7.567   8.768   1.941
 4502SOL     OW15338   3.405   1.581   6.059
 4502SOL    HW115339   3.343   1.647   6.091
 4502SOL    HW215340   3.375   1.499   6.099
 4503SOL     OW15341   4.877   1.469   4.539
 4503SOL    HW115342   4.889   1.563   4.556
 4503SOL    HW215343   4.961   1.439   4.506
 4504SOL     OW15344   4.529   0.638  12.675
 4504SOL    HW115345   4.434   0.642  12.688
 4504SOL    HW215346   4.540   0.578  12.601
 4505SOL     OW15347  14.100   9.742   2.320
 4505SOL    HW115348  14.014   9.706   2.343
 4505SOL    HW215349  14.080   9.825   2.277
 4506SOL     OW15350  13.203  14.844   4.105
 4506SOL    HW115351  13.132   0.011   4.149
 4506SOL    HW215352  13.192  14.752   4.130
 4507SOL     OW15353   0.676   2.824  10.661
 4507SOL    HW115354   0.737   2.750  10.654
 4507SOL    HW215355   0.663   2.853  10.571
 4508SOL     OW15356   5.137   9.605   6.894
 4508SOL    HW115357   5.091   9.684   6.864
 4508SOL    HW215358   5.067   9.548   6.927
 4509SOL     OW15359  10.826   2.971  11.712
 4509SOL    HW115360  10.842   2.924  11.794
 4509SOL    HW215361  10.856   3.060  11.729
 4510SOL     OW15362   9.024   1.362   7.516
 4510SOL    HW115363   9.086   1.371   7.444
 4510SOL    HW215364   8.957   1.428   7.499
 4511SOL     OW15365   9.268  13.713   8.822
 4511SOL    HW115366   9.295  13.694   8.912
 4511SOL    HW215367   9.296  13.804   8.807
 4512SOL     OW15368  14.650   0.330   0.834
 4512SOL    HW115369  14.694   0.298   0.912
 4512SOL    HW215370  14.589   0.397   0.866
 4513SOL     OW15371   8.875   7.743   7.558
 4513SOL    HW115372   8.828   7.688   7.620
 4513SOL    HW215373   8.806   7.789   7.510
 4514SOL     OW15374  12.523   8.008  11.024
 4514SOL    HW115375  12.474   7.937  10.983
 4514SOL    HW215376  12.457   8.066  11.061
 4515SOL     OW15377  11.922   8.916   8.000
 4515SOL    HW115378  11.974   8.862   7.940
 4515SOL    HW215379  11.963   8.903   8.086
 4516SOL     OW15380   0.359   9.269   5.998
 4516SOL    HW115381   0.348   9.183   5.959
 4516SOL    HW215382   0.318   9.329   5.936
 4517SOL     OW15383   7.679   8.295  11.820
 4517SOL    HW115384   7.644   8.275  11.734
 4517SOL    HW215385   7.762   8.340  11.802
 4518SOL     OW15386   5.716   8.550   1.907
 4518SOL    HW115387   5.676   8.574   1.991
 4518SOL    HW215388   5.683   8.614   1.845
 4519SOL     OW15389   8.452  11.467  10.237
 4519SOL    HW115390   8.514  11.434  10.302
 4519SOL    HW215391   8.382  11.402  10.235
 4520SOL     OW15392   9.795   4.368   9.899
 4520SOL    HW115393   9.859   4.425   9.856
 4520SOL    HW215394   9.846   4.291   9.926
 4521SOL     OW15395  13.861   7.567   2.114
 4521SOL    HW115396  13.899   7.530   2.034
 4521SOL    HW215397  13.903   7.652   2.124
 4522SOL     OW15398   3.061  12.100  10.454
 4522SOL    HW115399   2.981  12.108  10.507
 4522SOL    HW215400   3.048  12.161  10.382
 4523SOL     OW15401  14.353   6.742  10.347
 4523SOL    HW115402  14.284   6.799  10.314
 4523SOL    HW215403  14.400   6.795  10.412
 4524SOL     OW15404   9.144   4.665  11.680
 4524SOL    HW115405   9.173   4.651  11.771
 4524SOL    HW215406   9.200   4.608  11.628
 4525SOL     OW15407   2.274  11.680   9.944
 4525SOL    HW115408   2.350  11.733   9.918
 4525SOL    HW215409   2.298  11.591   9.919
 4526SOL     OW15410   6.061   4.416   4.385
 4526SOL    HW115411   6.154   4.412   4.408
 4526SOL    HW215412   6.039   4.509   4.391
 4527SOL     OW15413   2.308  13.468   3.350
 4527SOL    HW115414   2.256  13.388   3.338
 4527SOL    HW215415   2.378  13.443   3.410
 4528SOL     OW15416   5.628  14.613   8.748
 4528SOL    HW115417   5.718  14.631   8.722
 4528SOL    HW215418   5.627  14.520   8.769
 4529SOL     OW15419  11.595   0.049   1.148
 4529SOL    HW115420  11.546   0.096   1.216
 4529SOL    HW215421  11.608  14.841   1.184
 4530SOL     OW15422   4.717   6.549   4.851
 4530SOL    HW115423   4.795   6.557   4.797
 4530SOL    HW215424   4.738   6.597   4.931
 4531SOL     OW15425   7.308  14.243   0.952
 4531SOL    HW115426   7.236  14.187   0.982
 4531SOL    HW215427   7.375  14.182   0.920
 4532SOL     OW15428   0.425   5.453   6.503
 4532SOL    HW115429   0.356   5.434   6.440
 4532SOL    HW215430   0.438   5.370   6.550
 4533SOL     OW15431   4.731   8.036   2.358
 4533SOL    HW115432   4.742   7.942   2.345
 4533SOL    HW215433   4.768   8.052   2.445
 4534SOL     OW15434   4.158   6.371   5.158
 4534SOL    HW115435   4.171   6.276   5.165
 4534SOL    HW215436   4.125   6.384   5.070
 4535SOL     OW15437   2.432  11.519   3.076
 4535SOL    HW115438   2.356  11.464   3.054
 4535SOL    HW215439   2.405  11.608   3.052
 4536SOL     OW15440  12.046   6.497  13.394
 4536SOL    HW115441  11.961   6.452  13.395
 4536SOL    HW215442  12.109   6.428  13.418
 4537SOL     OW15443  12.171  12.898   6.902
 4537SOL    HW115444  12.112  12.972   6.916
 4537SOL    HW215445  12.193  12.902   6.809
 4538SOL     OW15446  10.961   0.406  13.670
 4538SOL    HW115447  10.981   0.366  13.755
 4538SOL    HW215448  11.044   0.401  13.622
 4539SOL     OW15449  13.294   0.513   6.128
 4539SOL    HW115450  13.354   0.439   6.139
 4539SOL    HW215451  13.219   0.476   6.082
 4540SOL     OW15452   5.334   1.616   2.163
 4540SOL    HW115453   5.354   1.561   2.087
 4540SOL    HW215454   5.336   1.557   2.237
 4541SOL     OW15455  11.906   4.846   9.128
 4541SOL    HW115456  11.813   4.836   9.107
 4541SOL    HW215457  11.909   4.852   9.223
 4542SOL     OW15458   3.818   6.058  11.552
 4542SOL    HW115459   3.831   6.109  11.473
 4542SOL    HW215460   3.737   6.093  11.590
 4543SOL     OW15461  10.600   7.843   9.983
 4543SOL    HW115462  10.540   7.912   9.957
 4543SOL    HW215463  10.606   7.787   9.906
 4544SOL     OW15464   2.417  11.119   1.059
 4544SOL    HW115465   2.339  11.071   1.032
 4544SOL    HW215466   2.390  11.169   1.136
 4545SOL     OW15467   0.223   6.652  12.286
 4545SOL    HW115468   0.263   6.680  12.368
 4545SOL    HW215469   0.129   6.654  12.304
 4546SOL     OW15470   1.412   2.394  10.643
 4546SOL    HW115471   1.492   2.417  10.690
 4546SOL    HW215472   1.439   2.386  10.551
 4547SOL     OW15473   3.038   6.804   1.800
 4547SOL    HW115474   3.082   6.859   1.865
 4547SOL    HW215475   3.062   6.715   1.824
 4548SOL     OW15476  13.210   5.377   8.269
 4548SOL    HW115477  13.212   5.399   8.176
 4548SOL    HW215478  13.148   5.304   8.275
 4549SOL     OW15479   0.968   3.461   8.792
 4549SOL    HW115480   0.980   3.465   8.697
 4549SOL    HW215481   1.013   3.381   8.818
 4550SOL     OW15482   5.235  11.757  14.073
 4550SOL    HW115483   5.266  11.846  14.090
 4550SOL    HW215484   5.201  11.727  14.157
 4551SOL     OW15485   2.773   7.825  13.503
 4551SOL    HW115486   2.855   7.859  13.538
 4551SOL    HW215487   2.707   7.890  13.529
 4552SOL     OW15488   7.521   4.924  14.312
 4552SOL    HW115489   7.501   4.883  14.397
 4552SOL    HW215490   7.551   4.851  14.257
 4553SOL     OW15491  11.941   6.773   7.280
 4553SOL    HW115492  11.926   6.758   7.187
 4553SOL    HW215493  11.881   6.713   7.324
 4554SOL     OW15494   6.540   2.702   7.012
 4554SOL    HW115495   6.594   2.627   6.988
 4554SOL    HW215496   6.526   2.694   7.106
 4555SOL     OW15497   1.971   9.143   9.034
 4555SOL    HW115498   2.057   9.109   9.056
 4555SOL    HW215499   1.911   9.101   9.096
 4556SOL     OW15500  12.715  11.712   8.352
 4556SOL    HW115501  12.661  11.733   8.275
 4556SOL    HW215502  12.741  11.621   8.339
 4557SOL     OW15503  10.065  14.449  10.754
 4557SOL    HW115504  10.020  14.530  10.728
 4557SOL    HW215505   9.994  14.388  10.774
 4558SOL     OW15506   4.674  14.250   1.615
 4558SOL    HW115507   4.670  14.154   1.617
 4558SOL    HW215508   4.765  14.269   1.595
 4559SOL     OW15509   6.070  10.971   1.988
 4559SOL    HW115510   6.141  10.937   1.935
 4559SOL    HW215511   5.991  10.929   1.953
 4560SOL     OW15512  13.696   7.167  11.408
 4560SOL    HW115513  13.714   7.260  11.421
 4560SOL    HW215514  13.768   7.137  11.352
 4561SOL     OW15515   2.751  11.708   2.463
 4561SOL    HW115516   2.754  11.616   2.439
 4561SOL    HW215517   2.696  11.749   2.396
 4562SOL     OW15518   4.523   6.565  13.959
 4562SOL    HW115519   4.587   6.551  13.889
 4562SOL    HW215520   4.474   6.483  13.965
 4563SOL     OW15521  12.224   5.269   8.981
 4563SOL    HW115522  12.232   5.334   9.051
 4563SOL    HW215523  12.204   5.187   9.026
 4564SOL     OW15524   1.232   2.383   9.445
 4564SOL    HW115525   1.152   2.409   9.400
 4564SOL    HW215526   1.272   2.319   9.387
 4565SOL     OW15527   3.308   9.522  12.480
 4565SOL    HW115528   3.364   9.510  12.557
 4565SOL    HW215529   3.304   9.435  12.440
 4566SOL     OW15530   3.978  13.853   6.063
 4566SOL    HW115531   3.919  13.791   6.106
 4566SOL    HW215532   3.984  13.927   6.123
 4567SOL     OW15533   9.254   4.371   1.415
 4567SOL    HW115534   9.273   4.382   1.322
 4567SOL    HW215535   9.161   4.347   1.418
 4568SOL     OW15536   9.816   1.461   3.013
 4568SOL    HW115537   9.739   1.424   3.057
 4568SOL    HW215538   9.854   1.521   3.077
 4569SOL     OW15539   0.225   6.027   4.127
 4569SOL    HW115540   0.170   6.015   4.049
 4569SOL    HW215541   0.187   5.969   4.192
 4570SOL     OW15542  11.046   8.196  14.650
 4570SOL    HW115543  11.095   8.171  14.571
 4570SOL    HW215544  10.958   8.160  14.635
 4571SOL     OW15545   7.657   7.666   5.824
 4571SOL    HW115546   7.568   7.631   5.828
 4571SOL    HW215547   7.677   7.692   5.914
 4572SOL     OW15548  10.853  11.528   5.116
 4572SOL    HW115549  10.914  11.579   5.062
 4572SOL    HW215550  10.801  11.479   5.054
 4573SOL     OW15551   4.327  14.081  14.537
 4573SOL    HW115552   4.423  14.077  14.545
 4573SOL    HW215553   4.296  13.997  14.572
 4574SOL     OW15554  14.270   5.369   3.574
 4574SOL    HW115555  14.179   5.350   3.597
 4574SOL    HW215556  14.300   5.427   3.645
 4575SOL     OW15557   6.961  10.693   8.706
 4575SOL    HW115558   6.877  10.708   8.663
 4575SOL    HW215559   6.948  10.723   8.796
 4576SOL     OW15560   3.226  12.440   2.431
 4576SOL    HW115561   3.139  12.404   2.447
 4576SOL    HW215562   3.234  12.512   2.495
 4577SOL     OW15563   9.999  14.251   1.207
 4577SOL    HW115564   9.920  14.303   1.223
 4577SOL    HW215565   9.996  14.231   1.113
 4578SOL     OW15566  11.891   9.004   9.534
 4578SOL    HW115567  11.895   9.093   9.499
 4578SOL    HW215568  11.875   9.015   9.628
 4579SOL     OW15569   9.470  10.520   0.251
 4579SOL    HW115570   9.505  10.606   0.227
 4579SOL    HW215571   9.379  10.538   0.276
 4580SOL     OW15572   0.201   5.906  14.413
 4580SOL    HW115573   0.198   5.824  14.364
 4580SOL    HW215574   0.207   5.880  14.504
 4581SOL     OW15575   8.684  11.274   8.127
 4581SOL    HW115576   8.630  11.308   8.198
 4581SOL    HW215577   8.622  11.252   8.058
 4582SOL     OW15578  10.811   2.636  10.269
 4582SOL    HW115579  10.813   2.555  10.217
 4582SOL    HW215580  10.743   2.689  10.228
 4583SOL     OW15581   9.972  11.338   9.246
 4583SOL    HW115582   9.979  11.419   9.296
 4583SOL    HW215583  10.047  11.340   9.186
 4584SOL     OW15584   5.750  14.609   0.080
 4584SOL    HW115585   5.803  14.687   0.062
 4584SOL    HW215586   5.796  14.538   0.034
 4585SOL     OW15587   3.763   3.707  12.823
 4585SOL    HW115588   3.753   3.670  12.911
 4585SOL    HW215589   3.784   3.799  12.838
 4586SOL     OW15590  11.583  10.756   2.914
 4586SOL    HW115591  11.536  10.692   2.859
 4586SOL    HW215592  11.670  10.719   2.924
 4587SOL     OW15593  14.196   1.647  14.632
 4587SOL    HW115594  14.104   1.656  14.659
 4587SOL    HW215595  14.217   1.555  14.646
 4588SOL     OW15596   3.876   9.167  10.836
 4588SOL    HW115597   3.814   9.223  10.790
 4588SOL    HW215598   3.905   9.219  10.911
 4589SOL     OW15599   9.879   8.612   8.826
 4589SOL    HW115600   9.885   8.517   8.823
 4589SOL    HW215601   9.833   8.636   8.745
 4590SOL     OW15602   0.486   3.191  13.411
 4590SOL    HW115603   0.524   3.226  13.492
 4590SOL    HW215604   0.438   3.114  13.440
 4591SOL     OW15605  14.372   3.630   9.836
 4591SOL    HW115606  14.307   3.603   9.771
 4591SOL    HW215607  14.395   3.719   9.810
 4592SOL     OW15608  14.059   7.750   2.141
 4592SOL    HW115609  14.080   7.843   2.154
 4592SOL    HW215610  14.145   7.706   2.142
 4593SOL     OW15611  11.649   8.252   6.470
 4593SOL    HW115612  11.636   8.195   6.546
 4593SOL    HW215613  11.633   8.196   6.395
 4594SOL     OW15614   5.959   4.053   2.183
 4594SOL    HW115615   6.051   4.024   2.186
 4594SOL    HW215616   5.925   4.018   2.101
 4595SOL     OW15617   0.982   2.587   1.614
 4595SOL    HW115618   1.011   2.611   1.526
 4595SOL    HW215619   0.891   2.560   1.602
 4596SOL     OW15620  11.052   0.059   5.180
 4596SOL    HW115621  11.114   0.122   5.142
 4596SOL    HW215622  11.093   0.031   5.262
 4597SOL     OW15623  14.592   9.666  10.599
 4597SOL    HW115624  14.630   9.580  10.582
 4597SOL    HW215625  14.528   9.650  10.669
 4598SOL     OW15626  14.085  11.838   8.428
 4598SOL    HW115627  14.043  11.922   8.443
 4598SOL    HW215628  14.152  11.831   8.496
 4599SOL     OW15629   7.302  13.140   8.722
 4599SOL    HW115630   7.313  13.235   8.720
 4599SOL    HW215631   7.208  13.126   8.712
 4600SOL     OW15632   1.135   6.876   4.911
 4600SOL    HW115633   1.204   6.918   4.962
 4600SOL    HW215634   1.082   6.948   4.878
 4601SOL     OW15635   4.552  14.872  13.479
 4601SOL    HW115636   4.555   0.033  13.566
 4601SOL    HW215637   4.554   0.067  13.419
 4602SOL     OW15638   4.188   8.069   7.278
 4602SOL    HW115639   4.230   8.056   7.362
 4602SOL    HW215640   4.105   8.112   7.298
 4603SOL     OW15641   2.523  13.817   2.754
 4603SOL    HW115642   2.531  13.753   2.684
 4603SOL    HW215643   2.431  13.810   2.782
 4604SOL     OW15644   3.990  11.768   3.450
 4604SOL    HW115645   4.078  11.806   3.460
 4604SOL    HW215646   3.988  11.697   3.514
 4605SOL     OW15647  14.766   2.594   2.956
 4605SOL    HW115648  14.769   2.690   2.965
 4605SOL    HW215649  14.835   2.562   3.015
 4606SOL     OW15650   1.129   7.032   4.394
 4606SOL    HW115651   1.148   7.096   4.325
 4606SOL    HW215652   1.149   6.947   4.355
 4607SOL     OW15653   1.852   4.355   2.026
 4607SOL    HW115654   1.780   4.292   2.018
 4607SOL    HW215655   1.825   4.414   2.097
 4608SOL     OW15656  13.012   4.142   4.295
 4608SOL    HW115657  13.092   4.093   4.312
 4608SOL    HW215658  12.993   4.185   4.378
 4609SOL     OW15659   3.927   6.256  13.207
 4609SOL    HW115660   3.980   6.189  13.164
 4609SOL    HW215661   3.847   6.260  13.155
 4610SOL     OW15662   6.058   7.487   7.717
 4610SOL    HW115663   6.102   7.506   7.800
 4610SOL    HW215664   6.052   7.391   7.715
 4611SOL     OW15665   2.194  11.060   6.051
 4611SOL    HW115666   2.143  11.128   6.007
 4611SOL    HW215667   2.232  11.105   6.127
 4612SOL     OW15668   6.234   1.446  10.517
 4612SOL    HW115669   6.199   1.517  10.569
 4612SOL    HW215670   6.328   1.463  10.512
 4613SOL     OW15671   2.046   9.040   6.497
 4613SOL    HW115672   2.108   8.970   6.515
 4613SOL    HW215673   2.000   9.012   6.418
 4614SOL     OW15674  14.124   1.893   9.449
 4614SOL    HW115675  14.081   1.815   9.412
 4614SOL    HW215676  14.180   1.925   9.378
 4615SOL     OW15677  10.394   0.151  10.227
 4615SOL    HW115678  10.488   0.139  10.214
 4615SOL    HW215679  10.387   0.208  10.303
 4616SOL     OW15680   6.146   5.550   8.525
 4616SOL    HW115681   6.128   5.460   8.552
 4616SOL    HW215682   6.124   5.602   8.603
 4617SOL     OW15683  14.828   5.761  11.023
 4617SOL    HW115684   0.027   5.740  11.074
 4617SOL    HW215685  14.821   5.857  11.028
 4618SOL     OW15686  13.077   4.098   8.038
 4618SOL    HW115687  13.000   4.116   7.985
 4618SOL    HW215688  13.043   4.060   8.119
 4619SOL     OW15689  10.307   1.745   6.987
 4619SOL    HW115690  10.352   1.683   6.930
 4619SOL    HW215691  10.257   1.689   7.047
 4620SOL     OW15692   5.111   6.142   2.806
 4620SOL    HW115693   5.096   6.148   2.900
 4620SOL    HW215694   5.184   6.082   2.797
 4621SOL     OW15695  13.624  10.612   6.100
 4621SOL    HW115696  13.624  10.691   6.153
 4621SOL    HW215697  13.682  10.632   6.026
 4622SOL     OW15698   9.378   0.487   3.098
 4622SOL    HW115699   9.316   0.418   3.121
 4622SOL    HW215700   9.332   0.568   3.118
 4623SOL     OW15701   0.888   7.553   1.059
 4623SOL    HW115702   0.878   7.491   0.987
 4623SOL    HW215703   0.798   7.573   1.085
 4624SOL     OW15704  12.077   2.784   0.715
 4624SOL    HW115705  12.172   2.785   0.731
 4624SOL    HW215706  12.039   2.823   0.793
 4625SOL     OW15707  13.533   0.056  12.566
 4625SOL    HW115708  13.615   0.104  12.571
 4625SOL    HW215709  13.472   0.115  12.521
 4626SOL     OW15710  10.881  10.989  14.740
 4626SOL    HW115711  10.847  10.976  14.829
 4626SOL    HW215712  10.831  10.929  14.686
 4627SOL     OW15713  11.328  12.998   8.930
 4627SOL    HW115714  11.408  12.948   8.916
 4627SOL    HW215715  11.275  12.943   8.988
 4628SOL     OW15716   9.928  11.458   3.951
 4628SOL    HW115717   9.922  11.519   3.878
 4628SOL    HW215718   9.940  11.513   4.028
 4629SOL     OW15719   8.961   1.430   1.431
 4629SOL    HW115720   8.997   1.447   1.518
 4629SOL    HW215721   8.871   1.462   1.436
 4630SOL     OW15722  12.617   4.058  12.399
 4630SOL    HW115723  12.654   4.109  12.328
 4630SOL    HW215724  12.540   4.015  12.360
 4631SOL     OW15725   8.323   0.377   0.895
 4631SOL    HW115726   8.386   0.407   0.831
 4631SOL    HW215727   8.360   0.295   0.929
 4632SOL     OW15728   1.059   0.271  13.768
 4632SOL    HW115729   0.968   0.295  13.788
 4632SOL    HW215730   1.053   0.221  13.686
 4633SOL     OW15731   4.300   7.494  13.486
 4633SOL    HW115732   4.372   7.549  13.453
 4633SOL    HW215733   4.221   7.537  13.454
 4634SOL     OW15734   2.224  11.394   6.034
 4634SOL    HW115735   2.181  11.479   6.033
 4634SOL    HW215736   2.209  11.358   5.947
 4635SOL     OW15737   3.665   9.321  10.719
 4635SOL    HW115738   3.573   9.344  10.701
 4635SOL    HW215739   3.713   9.355  10.644
 4636SOL     OW15740  13.138  11.376   3.742
 4636SOL    HW115741  13.158  11.345   3.653
 4636SOL    HW215742  13.198  11.449   3.756
 4637SOL     OW15743  14.722   3.899  10.099
 4637SOL    HW115744  14.779   3.936  10.166
 4637SOL    HW215745  14.645   3.870  10.146
 4638SOL     OW15746   7.647  10.602  14.644
 4638SOL    HW115747   7.732  10.647  14.650
 4638SOL    HW215748   7.641  10.552  14.725
 4639SOL     OW15749   8.556  10.034   0.659
 4639SOL    HW115750   8.475  10.057   0.704
 4639SOL    HW215751   8.609   9.990   0.725
 4640SOL     OW15752   8.055   1.316  13.212
 4640SOL    HW115753   7.980   1.374  13.197
 4640SOL    HW215754   8.100   1.354  13.287
 4641SOL     OW15755   2.913  11.096   7.152
 4641SOL    HW115756   2.868  11.073   7.071
 4641SOL    HW215757   2.871  11.177   7.181
 4642SOL     OW15758   7.797   7.756   7.241
 4642SOL    HW115759   7.743   7.833   7.260
 4642SOL    HW215760   7.773   7.692   7.307
 4643SOL     OW15761   3.537  13.327   5.419
 4643SOL    HW115762   3.493  13.242   5.426
 4643SOL    HW215763   3.477  13.380   5.366
 4644SOL     OW15764   0.367   8.147   6.732
 4644SOL    HW115765   0.329   8.097   6.804
 4644SOL    HW215766   0.300   8.213   6.711
 4645SOL     OW15767   4.260   2.396  12.137
 4645SOL    HW115768   4.189   2.333  12.148
 4645SOL    HW215769   4.222   2.466  12.084
 4646SOL     OW15770   3.212   0.879  13.137
 4646SOL    HW115771   3.232   0.785  13.136
 4646SOL    HW215772   3.227   0.908  13.047
 4647SOL     OW15773  12.119   3.078   9.160
 4647SOL    HW115774  12.131   3.028   9.080
 4647SOL    HW215775  12.191   3.051   9.217
 4648SOL     OW15776  14.689  10.239  10.361
 4648SOL    HW115777  14.693  10.144  10.353
 4648SOL    HW215778  14.693  10.271  10.271
 4649SOL     OW15779   3.631   9.289   5.555
 4649SOL    HW115780   3.540   9.294   5.581
 4649SOL    HW215781   3.635   9.334   5.471
 4650SOL     OW15782   1.275  14.069  10.884
 4650SOL    HW115783   1.362  14.030  10.895
 4650SOL    HW215784   1.251  14.052  10.793
 4651SOL     OW15785  14.013  13.433   2.526
 4651SOL    HW115786  13.996  13.466   2.614
 4651SOL    HW215787  14.094  13.384   2.533
 4652SOL     OW15788   4.380   2.098   6.232
 4652SOL    HW115789   4.350   2.013   6.200
 4652SOL    HW215790   4.379   2.089   6.327
 4653SOL     OW15791  12.981   0.288   2.513
 4653SOL    HW115792  12.989   0.248   2.599
 4653SOL    HW215793  12.974   0.382   2.531
 4654SOL     OW15794  10.895  12.791   8.224
 4654SOL    HW115795  10.922  12.828   8.308
 4654SOL    HW215796  10.934  12.849   8.159
 4655SOL     OW15797   8.016   7.308   4.963
 4655SOL    HW115798   8.096   7.360   4.968
 4655SOL    HW215799   7.957   7.347   5.027
 4656SOL     OW15800   7.749   8.618   0.807
 4656SOL    HW115801   7.735   8.620   0.902
 4656SOL    HW215802   7.746   8.525   0.784
 4657SOL     OW15803   4.071   1.636  12.902
 4657SOL    HW115804   4.103   1.694  12.972
 4657SOL    HW215805   4.150   1.591  12.870
 4658SOL     OW15806   5.450   2.586   2.037
 4658SOL    HW115807   5.418   2.548   1.956
 4658SOL    HW215808   5.521   2.528   2.065
 4659SOL     OW15809  11.284   7.628   2.642
 4659SOL    HW115810  11.312   7.656   2.556
 4659SOL    HW215811  11.246   7.541   2.628
 4660SOL     OW15812  14.586   6.421   2.391
 4660SOL    HW115813  14.600   6.471   2.472
 4660SOL    HW215814  14.674   6.401   2.360
 4661SOL     OW15815   3.583  10.016   3.643
 4661SOL    HW115816   3.547   9.937   3.684
 4661SOL    HW215817   3.669   9.989   3.612
 4662SOL     OW15818   8.006  12.194  13.576
 4662SOL    HW115819   7.994  12.288  13.571
 4662SOL    HW215820   8.092  12.181  13.616
 4663SOL     OW15821   5.307  12.532   0.454
 4663SOL    HW115822   5.390  12.492   0.479
 4663SOL    HW215823   5.315  12.623   0.481
 4664SOL     OW15824   3.450   7.003  10.507
 4664SOL    HW115825   3.495   7.069  10.454
 4664SOL    HW215826   3.367   6.989  10.462
 4665SOL     OW15827   6.558   9.481  12.428
 4665SOL    HW115828   6.630   9.521  12.380
 4665SOL    HW215829   6.561   9.522  12.514
 4666SOL     OW15830   2.029  14.345  12.605
 4666SOL    HW115831   1.946  14.302  12.586
 4666SOL    HW215832   2.035  14.346  12.700
 4667SOL     OW15833   1.700   5.901   6.913
 4667SOL    HW115834   1.691   5.995   6.928
 4667SOL    HW215835   1.616   5.874   6.877
 4668SOL     OW15836   9.887   7.121   4.211
 4668SOL    HW115837   9.938   7.101   4.132
 4668SOL    HW215838   9.815   7.059   4.209
 4669SOL     OW15839   3.387  12.220   2.358
 4669SOL    HW115840   3.327  12.203   2.286
 4669SOL    HW215841   3.347  12.291   2.408
 4670SOL     OW15842   3.171   9.948   3.644
 4670SOL    HW115843   3.245   9.911   3.693
 4670SOL    HW215844   3.094   9.925   3.696
 4671SOL     OW15845  13.974  12.478   6.979
 4671SOL    HW115846  14.031  12.422   7.031
 4671SOL    HW215847  13.892  12.480   7.029
 4672SOL     OW15848   4.340  12.351   9.142
 4672SOL    HW115849   4.327  12.443   9.118
 4672SOL    HW215850   4.265  12.329   9.196
 4673SOL     OW15851   6.279   8.559  13.577
 4673SOL    HW115852   6.242   8.600  13.499
 4673SOL    HW215853   6.223   8.482  13.592
 4674SOL     OW15854   7.360   7.559   9.528
 4674SOL    HW115855   7.273   7.526   9.504
 4674SOL    HW215856   7.350   7.654   9.525
 4675SOL     OW15857   2.777   4.874   1.842
 4675SOL    HW115858   2.812   4.957   1.808
 4675SOL    HW215859   2.813   4.867   1.930
 4676SOL     OW15860  11.790   6.257   4.515
 4676SOL    HW115861  11.777   6.278   4.423
 4676SOL    HW215862  11.882   6.277   4.531
 4677SOL     OW15863   3.138   7.879   8.451
 4677SOL    HW115864   3.176   7.964   8.470
 4677SOL    HW215865   3.151   7.867   8.357
 4678SOL     OW15866  13.198   2.925   1.014
 4678SOL    HW115867  13.124   2.960   0.965
 4678SOL    HW215868  13.268   2.916   0.949
 4679SOL     OW15869   1.031  14.748   5.601
 4679SOL    HW115870   1.013  14.713   5.514
 4679SOL    HW215871   0.966  14.817   5.613
 4680SOL     OW15872   4.941  12.560   9.190
 4680SOL    HW115873   4.884  12.514   9.128
 4680SOL    HW215874   5.029  12.547   9.157
 4681SOL     OW15875   1.463   3.342   2.524
 4681SOL    HW115876   1.394   3.396   2.486
 4681SOL    HW215877   1.436   3.252   2.507
 4682SOL     OW15878   6.931   1.830   7.156
 4682SOL    HW115879   6.974   1.749   7.183
 4682SOL    HW215880   6.858   1.800   7.101
 4683SOL     OW15881   6.649  11.574  14.415
 4683SOL    HW115882   6.650  11.667  14.392
 4683SOL    HW215883   6.725  11.538  14.370
 4684SOL     OW15884   3.526  10.686   2.674
 4684SOL    HW115885   3.556  10.772   2.645
 4684SOL    HW215886   3.518  10.635   2.593
 4685SOL     OW15887  12.152   7.572  10.741
 4685SOL    HW115888  12.230   7.579  10.685
 4685SOL    HW215889  12.169   7.635  10.812
 4686SOL     OW15890   4.989   6.080   5.427
 4686SOL    HW115891   4.962   5.988   5.427
 4686SOL    HW215892   4.908   6.129   5.417
 4687SOL     OW15893   9.013  12.065   5.746
 4687SOL    HW115894   9.067  12.062   5.825
 4687SOL    HW215895   9.045  12.142   5.699
 4688SOL     OW15896   6.904   5.523  10.363
 4688SOL    HW115897   6.852   5.449  10.334
 4688SOL    HW215898   6.970   5.534  10.295
 4689SOL     OW15899  14.845   8.280   1.579
 4689SOL    HW115900   0.019   8.359   1.592
 4689SOL    HW215901  14.838   8.241   1.666
 4690SOL     OW15902  12.277   0.807   1.488
 4690SOL    HW115903  12.250   0.796   1.580
 4690SOL    HW215904  12.318   0.723   1.465
 4691SOL     OW15905   8.308   0.642   1.697
 4691SOL    HW115906   8.304   0.633   1.792
 4691SOL    HW215907   8.251   0.572   1.664
 4692SOL     OW15908   9.517   4.889   3.155
 4692SOL    HW115909   9.490   4.846   3.074
 4692SOL    HW215910   9.520   4.818   3.220
 4693SOL     OW15911   4.127   3.901   2.482
 4693SOL    HW115912   4.132   3.969   2.415
 4693SOL    HW215913   4.201   3.844   2.463
 4694SOL     OW15914   4.336  14.824   0.341
 4694SOL    HW115915   4.305  14.738   0.371
 4694SOL    HW215916   4.365  14.809   0.252
 4695SOL     OW15917   4.996   8.836   4.320
 4695SOL    HW115918   4.911   8.879   4.313
 4695SOL    HW215919   4.999   8.777   4.244
 4696SOL     OW15920   5.155   7.163   6.765
 4696SOL    HW115921   5.225   7.098   6.763
 4696SOL    HW215922   5.200   7.247   6.755
 4697SOL     OW15923   7.380   5.217   9.490
 4697SOL    HW115924   7.351   5.155   9.424
 4697SOL    HW215925   7.377   5.302   9.445
 4698SOL     OW15926   8.146  14.141  11.771
 4698SOL    HW115927   8.162  14.094  11.853
 4698SOL    HW215928   8.148  14.073  11.703
 4699SOL     OW15929  10.600   8.444   9.921
 4699SOL    HW115930  10.608   8.408  10.010
 4699SOL    HW215931  10.682   8.491   9.906
 4700SOL     OW15932  13.888   3.544   4.772
 4700SOL    HW115933  13.827   3.484   4.815
 4700SOL    HW215934  13.931   3.491   4.705
 4701SOL     OW15935   9.442   9.043  10.102
 4701SOL    HW115936   9.453   9.105  10.173
 4701SOL    HW215937   9.511   8.978  10.117
 4702SOL     OW15938   4.293  13.862   9.487
 4702SOL    HW115939   4.258  13.801   9.552
 4702SOL    HW215940   4.221  13.924   9.471
 4703SOL     OW15941   2.575   1.676   4.436
 4703SOL    HW115942   2.612   1.645   4.353
 4703SOL    HW215943   2.490   1.712   4.413
 4704SOL     OW15944   4.705  13.494   9.143
 4704SOL    HW115945   4.658  13.493   9.227
 4704SOL    HW215946   4.682  13.411   9.101
 4705SOL     OW15947  11.855   9.861   0.471
 4705SOL    HW115948  11.869   9.831   0.561
 4705SOL    HW215949  11.762   9.846   0.454
 4706SOL     OW15950  11.336   8.868   4.438
 4706SOL    HW115951  11.401   8.831   4.379
 4706SOL    HW215952  11.315   8.954   4.402
 4707SOL     OW15953  11.598  13.841   7.541
 4707SOL    HW115954  11.584  13.936   7.542
 4707SOL    HW215955  11.589  13.814   7.632
 4708SOL     OW15956   4.991   4.912  13.197
 4708SOL    HW115957   4.962   4.969  13.269
 4708SOL    HW215958   5.084   4.896  13.215
 4709SOL     OW15959   7.412  14.333   5.071
 4709SOL    HW115960   7.342  14.375   5.020
 4709SOL    HW215961   7.461  14.282   5.007
 4710SOL     OW15962   0.049   8.712   6.133
 4710SOL    HW115963   0.038   8.776   6.203
 4710SOL    HW215964   0.123   8.658   6.162
 4711SOL     OW15965   9.751   3.087   5.937
 4711SOL    HW115966   9.715   3.138   5.864
 4711SOL    HW215967   9.678   3.032   5.966
 4712SOL     OW15968   9.262  14.666   7.460
 4712SOL    HW115969   9.352  14.633   7.468
 4712SOL    HW215970   9.212  14.617   7.525
 4713SOL     OW15971  12.569   1.008  13.630
 4713SOL    HW115972  12.545   0.999  13.722
 4713SOL    HW215973  12.486   1.021  13.585
 4714SOL     OW15974   4.464   8.522   3.551
 4714SOL    HW115975   4.511   8.604   3.541
 4714SOL    HW215976   4.374   8.542   3.525
 4715SOL     OW15977  11.938   4.892  14.457
 4715SOL    HW115978  11.896   4.974  14.430
 4715SOL    HW215979  11.893   4.867  14.537
 4716SOL     OW15980   1.993   9.541   8.043
 4716SOL    HW115981   2.071   9.511   8.090
 4716SOL    HW215982   1.940   9.461   8.033
 4717SOL     OW15983   7.226   9.709   2.804
 4717SOL    HW115984   7.291   9.663   2.857
 4717SOL    HW215985   7.195   9.780   2.861
 4718SOL     OW15986   0.618  13.560   0.605
 4718SOL    HW115987   0.577  13.480   0.574
 4718SOL    HW215988   0.604  13.559   0.699
 4719SOL     OW15989   7.982   1.697   0.535
 4719SOL    HW115990   7.914   1.752   0.496
 4719SOL    HW215991   8.008   1.743   0.614
 4720SOL     OW15992  14.421   5.264   8.251
 4720SOL    HW115993  14.338   5.247   8.206
 4720SOL    HW215994  14.442   5.182   8.296
 4721SOL     OW15995   4.367   7.624   9.892
 4721SOL    HW115996   4.282   7.581   9.907
 4721SOL    HW215997   4.429   7.571   9.941
 4722SOL     OW15998   8.008   6.404   4.967
 4722SOL    HW115999   8.048   6.428   4.884
 4722SOL    HW216000   7.915   6.390   4.947
 4723SOL     OW16001   0.493   6.402  11.604
 4723SOL    HW116002   0.422   6.353  11.646
 4723SOL    HW216003   0.449   6.470  11.553
 4724SOL     OW16004   2.722   4.143  12.684
 4724SOL    HW116005   2.710   4.191  12.766
 4724SOL    HW216006   2.813   4.160  12.659
 4725SOL     OW16007  11.321   0.737   5.481
 4725SOL    HW116008  11.389   0.792   5.519
 4725SOL    HW216009  11.327   0.654   5.529
 4726SOL     OW16010   2.555   6.470  12.091
 4726SOL    HW116011   2.583   6.554  12.127
 4726SOL    HW216012   2.563   6.481  11.996
 4727SOL     OW16013  12.151  14.852   2.436
 4727SOL    HW116014  12.141   0.037   2.366
 4727SOL    HW216015  12.089  14.783   2.415
 4728SOL     OW16016   3.943  10.030   6.643
 4728SOL    HW116017   4.025   9.984   6.626
 4728SOL    HW216018   3.881   9.991   6.582
 4729SOL     OW16019   3.535   5.164   3.445
 4729SOL    HW116020   3.549   5.178   3.351
 4729SOL    HW216021   3.590   5.229   3.488
 4730SOL     OW16022   4.606  13.542   0.253
 4730SOL    HW116023   4.647  13.626   0.277
 4730SOL    HW216024   4.552  13.520   0.328
 4731SOL     OW16025   5.608  14.289   2.590
 4731SOL    HW116026   5.685  14.344   2.603
 4731SOL    HW216027   5.636  14.201   2.616
 4732SOL     OW16028   4.053   2.825   4.730
 4732SOL    HW116029   4.110   2.831   4.654
 4732SOL    HW216030   3.964   2.827   4.693
 4733SOL     OW16031  12.195  10.203   0.870
 4733SOL    HW116032  12.109  10.177   0.903
 4733SOL    HW216033  12.244  10.121   0.864
 4734SOL     OW16034   5.481   1.483   4.093
 4734SOL    HW116035   5.537   1.407   4.075
 4734SOL    HW216036   5.505   1.510   4.181
 4735SOL     OW16037  13.142   2.169   2.831
 4735SOL    HW116038  13.145   2.078   2.860
 4735SOL    HW216039  13.167   2.219   2.909
 4736SOL     OW16040   9.191   1.241   4.670
 4736SOL    HW116041   9.276   1.244   4.713
 4736SOL    HW216042   9.128   1.223   4.740
 4737SOL     OW16043  11.976   6.345   2.750
 4737SOL    HW116044  12.022   6.427   2.766
 4737SOL    HW216045  11.924   6.362   2.672
 4738SOL     OW16046   8.948   5.134  10.598
 4738SOL    HW116047   9.036   5.135  10.636
 4738SOL    HW216048   8.894   5.091  10.664
 4739SOL     OW16049  13.708   9.087   4.041
 4739SOL    HW116050  13.762   9.159   4.009
 4739SOL    HW216051  13.756   9.052   4.116
 4740SOL     OW16052   7.229  13.041   2.491
 4740SOL    HW116053   7.318  13.016   2.466
 4740SOL    HW216054   7.241  13.101   2.565
 4741SOL     OW16055  13.212   9.856   5.676
 4741SOL    HW116056  13.228   9.780   5.733
 4741SOL    HW216057  13.287   9.858   5.618
 4742SOL     OW16058   9.741  14.069   9.642
 4742SOL    HW116059   9.651  14.038   9.651
 4742SOL    HW216060   9.759  14.061   9.548
 4743SOL     OW16061   3.648   4.936  14.310
 4743SOL    HW116062   3.571   4.949  14.367
 4743SOL    HW216063   3.624   4.862  14.255
 4744SOL     OW16064  13.903  13.086  10.420
 4744SOL    HW116065  13.819  13.046  10.439
 4744SOL    HW216066  13.965  13.013  10.418
 4745SOL     OW16067   3.376   8.411   6.791
 4745SOL    HW116068   3.373   8.506   6.793
 4745SOL    HW216069   3.469   8.390   6.778
 4746SOL     OW16070  12.933   2.890   7.522
 4746SOL    HW116071  12.939   2.804   7.480
 4746SOL    HW216072  12.840   2.913   7.515
 4747SOL     OW16073   9.255   2.934  14.088
 4747SOL    HW116074   9.203   2.855  14.074
 4747SOL    HW216075   9.191   3.005  14.086
 4748SOL     OW16076   7.861   3.413  14.159
 4748SOL    HW116077   7.842   3.441  14.070
 4748SOL    HW216078   7.930   3.471  14.188
 4749SOL     OW16079  14.414  14.816  14.095
 4749SOL    HW116080  14.318  14.819  14.094
 4749SOL    HW216081  14.436  14.728  14.064
 4750SOL     OW16082   7.639   5.340   1.297
 4750SOL    HW116083   7.647   5.295   1.381
 4750SOL    HW216084   7.559   5.392   1.305
 4751SOL     OW16085   9.673  10.482  10.339
 4751SOL    HW116086   9.763  10.452  10.322
 4751SOL    HW216087   9.656  10.546  10.270
 4752SOL     OW16088  10.370   6.794   8.409
 4752SOL    HW116089  10.403   6.739   8.480
 4752SOL    HW216090  10.315   6.736   8.357
 4753SOL     OW16091   4.203   3.761  10.580
 4753SOL    HW116092   4.266   3.784  10.648
 4753SOL    HW216093   4.192   3.843  10.530
 4754SOL     OW16094   8.663  11.890   8.484
 4754SOL    HW116095   8.586  11.841   8.457
 4754SOL    HW216096   8.699  11.840   8.557
 4755SOL     OW16097  12.667   9.129  11.769
 4755SOL    HW116098  12.752   9.141  11.811
 4755SOL    HW216099  12.608   9.188  11.817
 4756SOL     OW16100   7.774   2.345   7.827
 4756SOL    HW116101   7.711   2.291   7.874
 4756SOL    HW216102   7.737   2.354   7.739
 4757SOL     OW16103   7.279  10.583   1.489
 4757SOL    HW116104   7.247  10.653   1.546
 4757SOL    HW216105   7.224  10.588   1.411
 4758SOL     OW16106   7.387  14.872   8.468
 4758SOL    HW116107   7.385  14.778   8.453
 4758SOL    HW216108   7.321   0.029   8.409
 4759SOL     OW16109   0.860  13.242   8.537
 4759SOL    HW116110   0.791  13.251   8.604
 4759SOL    HW216111   0.860  13.325   8.491
 4760SOL     OW16112   1.681   2.907   6.464
 4760SOL    HW116113   1.679   2.848   6.540
 4760SOL    HW216114   1.717   2.989   6.499
 4761SOL     OW16115  12.173   0.890   4.069
 4761SOL    HW116116  12.136   0.823   4.126
 4761SOL    HW216117  12.265   0.898   4.096
 4762SOL     OW16118   2.997   5.820   2.162
 4762SOL    HW116119   3.028   5.909   2.144
 4762SOL    HW216120   2.922   5.831   2.220
 4763SOL     OW16121   9.814   8.118  12.016
 4763SOL    HW116122   9.831   8.074  11.933
 4763SOL    HW216123   9.751   8.187  11.994
 4764SOL     OW16124  11.629  11.550   0.154
 4764SOL    HW116125  11.712  11.513   0.123
 4764SOL    HW216126  11.564  11.484   0.131
 4765SOL     OW16127  11.074   7.852  11.222
 4765SOL    HW116128  11.006   7.906  11.184
 4765SOL    HW216129  11.071   7.871  11.316
 4766SOL     OW16130  13.660   3.324   0.279
 4766SOL    HW116131  13.747   3.331   0.240
 4766SOL    HW216132  13.674   3.275   0.360
 4767SOL     OW16133  10.563   5.243   4.822
 4767SOL    HW116134  10.650   5.202   4.827
 4767SOL    HW216135  10.529   5.240   4.911
 4768SOL     OW16136   4.209   5.014   2.908
 4768SOL    HW116137   4.184   4.931   2.949
 4768SOL    HW216138   4.286   5.043   2.957
 4769SOL     OW16139  11.336   2.184   1.264
 4769SOL    HW116140  11.428   2.185   1.292
 4769SOL    HW216141  11.337   2.141   1.179
 4770SOL     OW16142   4.549   8.207   7.601
 4770SOL    HW116143   4.465   8.252   7.613
 4770SOL    HW216144   4.560   8.156   7.681
 4771SOL     OW16145   4.633   4.061  11.523
 4771SOL    HW116146   4.553   4.015  11.548
 4771SOL    HW216147   4.604   4.149  11.500
 4772SOL     OW16148   4.858   1.978   4.017
 4772SOL    HW116149   4.812   2.056   3.987
 4772SOL    HW216150   4.797   1.937   4.079
 4773SOL     OW16151  11.716  14.055   9.295
 4773SOL    HW116152  11.622  14.048   9.277
 4773SOL    HW216153  11.751  14.106   9.222
 4774SOL     OW16154   0.589  14.733   8.300
 4774SOL    HW116155   0.536  14.813   8.308
 4774SOL    HW216156   0.670  14.753   8.347
 4775SOL     OW16157   6.032   1.375   2.889
 4775SOL    HW116158   5.990   1.460   2.903
 4775SOL    HW216159   5.981   1.314   2.942
 4776SOL     OW16160  12.811  10.659   8.833
 4776SOL    HW116161  12.798  10.616   8.749
 4776SOL    HW216162  12.748  10.731   8.834
 4777SOL     OW16163   6.920  14.164   7.359
 4777SOL    HW116164   6.954  14.100   7.296
 4777SOL    HW216165   6.924  14.247   7.313
 4778SOL     OW16166   6.625   2.134   6.151
 4778SOL    HW116167   6.623   2.127   6.056
 4778SOL    HW216168   6.608   2.046   6.183
 4779SOL     OW16169   3.031   7.049  14.796
 4779SOL    HW116170   2.963   7.050  14.729
 4779SOL    HW216171   3.113   7.058  14.747
 4780SOL     OW16172   6.193  13.061   9.963
 4780SOL    HW116173   6.243  13.013  10.029
 4780SOL    HW216174   6.113  13.010   9.951
 4781SOL     OW16175  11.535   1.491   7.397
 4781SOL    HW116176  11.448   1.467   7.428
 4781SOL    HW216177  11.541   1.585   7.415
 4782SOL     OW16178   9.349   8.540   0.255
 4782SOL    HW116179   9.377   8.621   0.211
 4782SOL    HW216180   9.313   8.570   0.339
 4783SOL     OW16181  13.296   0.265   9.466
 4783SOL    HW116182  13.391   0.276   9.459
 4783SOL    HW216183  13.276   0.192   9.407
 4784SOL     OW16184  13.502   3.266  10.925
 4784SOL    HW116185  13.510   3.356  10.954
 4784SOL    HW216186  13.581   3.250  10.873
 4785SOL     OW16187   7.056  10.098   8.411
 4785SOL    HW116188   7.009  10.179   8.390
 4785SOL    HW216189   7.100  10.074   8.330
 4786SOL     OW16190   7.673   3.745  13.719
 4786SOL    HW116191   7.583   3.759  13.692
 4786SOL    HW216192   7.672   3.759  13.814
 4787SOL     OW16193   0.896  10.598   7.839
 4787SOL    HW116194   0.842  10.676   7.827
 4787SOL    HW216195   0.920  10.572   7.750
 4788SOL     OW16196   4.326   5.053   3.847
 4788SOL    HW116197   4.243   5.009   3.863
 4788SOL    HW216198   4.302   5.139   3.814
 4789SOL     OW16199   1.151  12.572   5.427
 4789SOL    HW116200   1.117  12.483   5.425
 4789SOL    HW216201   1.134  12.606   5.339
 4790SOL     OW16202   6.159   5.326   9.487
 4790SOL    HW116203   6.185   5.253   9.543
 4790SOL    HW216204   6.204   5.402   9.524
 4791SOL     OW16205  12.384   2.973   7.935
 4791SOL    HW116206  12.453   2.959   7.870
 4791SOL    HW216207  12.430   2.970   8.019
 4792SOL     OW16208  14.489   3.872   8.725
 4792SOL    HW116209  14.447   3.792   8.693
 4792SOL    HW216210  14.434   3.942   8.691
 4793SOL     OW16211  10.799  10.603   2.009
 4793SOL    HW116212  10.775  10.611   2.101
 4793SOL    HW216213  10.893  10.620   2.007
 4794SOL     OW16214  12.877  10.039   2.558
 4794SOL    HW116215  12.903  10.127   2.583
 4794SOL    HW216216  12.811  10.051   2.489
 4795SOL     OW16217   5.261   4.461   5.271
 4795SOL    HW116218   5.282   4.373   5.300
 4795SOL    HW216219   5.274   4.459   5.176
 4796SOL     OW16220  14.558  10.329  12.491
 4796SOL    HW116221  14.589  10.419  12.504
 4796SOL    HW216222  14.467  10.339  12.465
 4797SOL     OW16223   7.065   3.443   0.013
 4797SOL    HW116224   7.097   3.408   0.097
 4797SOL    HW216225   7.137   3.427  14.831
 4798SOL     OW16226   9.323   6.025  12.902
 4798SOL    HW116227   9.287   5.943  12.938
 4798SOL    HW216228   9.393   5.996  12.843
 4799SOL     OW16229  11.808   4.162   5.429
 4799SOL    HW116230  11.716   4.139   5.435
 4799SOL    HW216231  11.817   4.204   5.343
 4800SOL     OW16232   3.618  11.919   9.021
 4800SOL    HW116233   3.525  11.928   9.002
 4800SOL    HW216234   3.638  11.827   9.000
 4801SOL     OW16235  13.620   5.326  12.633
 4801SOL    HW116236  13.647   5.366  12.550
 4801SOL    HW216237  13.685   5.358  12.696
 4802SOL     OW16238   7.803   0.548   0.605
 4802SOL    HW116239   7.872   0.542   0.538
 4802SOL    HW216240   7.837   0.497   0.678
 4803SOL     OW16241  14.682   1.409  14.553
 4803SOL    HW116242  14.635   1.338  14.508
 4803SOL    HW216243  14.623   1.436  14.623
 4804SOL     OW16244   6.617   0.145   3.059
 4804SOL    HW116245   6.566   0.184   2.988
 4804SOL    HW216246   6.572   0.172   3.139
 4805SOL     OW16247   8.399   8.765   0.872
 4805SOL    HW116248   8.404   8.855   0.839
 4805SOL    HW216249   8.469   8.719   0.827
 4806SOL     OW16250  10.482   5.616  14.049
 4806SOL    HW116251  10.490   5.688  13.987
 4806SOL    HW216252  10.456   5.658  14.131
 4807SOL     OW16253   3.815   4.763   0.291
 4807SOL    HW116254   3.884   4.698   0.300
 4807SOL    HW216255   3.735   4.712   0.275
 4808SOL     OW16256   4.262  14.817  10.625
 4808SOL    HW116257   4.181  14.776  10.597
 4808SOL    HW216258   4.331  14.759  10.593
 4809SOL     OW16259   3.813   2.418   9.357
 4809SOL    HW116260   3.744   2.394   9.295
 4809SOL    HW216261   3.804   2.513   9.366
 4810SOL     OW16262   6.244   1.612  14.514
 4810SOL    HW116263   6.227   1.580  14.603
 4810SOL    HW216264   6.325   1.568  14.488
 4811SOL     OW16265  10.149  12.777   6.206
 4811SOL    HW116266  10.232  12.822   6.223
 4811SOL    HW216267  10.153  12.699   6.261
 4812SOL     OW16268  12.061  11.451  11.863
 4812SOL    HW116269  12.093  11.425  11.950
 4812SOL    HW216270  11.987  11.509  11.882
 4813SOL     OW16271   8.923   0.579   9.948
 4813SOL    HW116272   8.872   0.536  10.016
 4813SOL    HW216273   8.906   0.527   9.869
 4814SOL     OW16274   4.017   8.119   2.147
 4814SOL    HW116275   3.925   8.104   2.123
 4814SOL    HW216276   4.023   8.214   2.160
 4815SOL     OW16277  10.016   3.197   1.386
 4815SOL    HW116278   9.937   3.215   1.335
 4815SOL    HW216279  10.040   3.282   1.423
 4816SOL     OW16280  13.997  12.946   5.705
 4816SOL    HW116281  14.022  12.863   5.744
 4816SOL    HW216282  13.947  12.922   5.627
 4817SOL     OW16283   1.343   7.912  10.545
 4817SOL    HW116284   1.328   7.864  10.627
 4817SOL    HW216285   1.406   7.858  10.497
 4818SOL     OW16286   4.373   9.657   5.011
 4818SOL    HW116287   4.417   9.743   5.011
 4818SOL    HW216288   4.280   9.678   4.999
 4819SOL     OW16289  14.631  10.042   8.304
 4819SOL    HW116290  14.581   9.969   8.341
 4819SOL    HW216291  14.570  10.116   8.306
 4820SOL     OW16292   1.867   6.061  10.892
 4820SOL    HW116293   1.832   6.033  10.977
 4820SOL    HW216294   1.924   5.989  10.865
 4821SOL     OW16295   3.187   1.083   4.799
 4821SOL    HW116296   3.178   1.013   4.864
 4821SOL    HW216297   3.253   1.141   4.835
 4822SOL     OW16298   2.706   4.486  12.861
 4822SOL    HW116299   2.772   4.549  12.833
 4822SOL    HW216300   2.641   4.486  12.791
 4823SOL     OW16301   2.360  14.736   9.446
 4823SOL    HW116302   2.264  14.733   9.437
 4823SOL    HW216303   2.383  14.652   9.483
 4824SOL     OW16304   4.625  14.380   0.700
 4824SOL    HW116305   4.619  14.332   0.617
 4824SOL    HW216306   4.593  14.467   0.680
 4825SOL     OW16307   7.502   7.749   4.711
 4825SOL    HW116308   7.464   7.780   4.794
 4825SOL    HW216309   7.440   7.684   4.679
 4826SOL     OW16310   1.722  11.256   7.311
 4826SOL    HW116311   1.644  11.202   7.322
 4826SOL    HW216312   1.782  11.202   7.258
 4827SOL     OW16313  11.415   0.636   0.193
 4827SOL    HW116314  11.403   0.729   0.174
 4827SOL    HW216315  11.414   0.594   0.108
 4828SOL     OW16316   6.770   3.084  14.690
 4828SOL    HW116317   6.687   3.040  14.675
 4828SOL    HW216318   6.748   3.177  14.693
 4829SOL     OW16319   2.581   4.802   4.473
 4829SOL    HW116320   2.567   4.885   4.427
 4829SOL    HW216321   2.668   4.811   4.511
 4830SOL     OW16322  11.794   2.586   2.134
 4830SOL    HW116323  11.730   2.549   2.073
 4830SOL    HW216324  11.776   2.542   2.216
 4831SOL     OW16325  14.458   7.877   0.241
 4831SOL    HW116326  14.492   7.789   0.229
 4831SOL    HW216327  14.534   7.929   0.268
 4832SOL     OW16328   6.980   1.791   2.198
 4832SOL    HW116329   7.055   1.840   2.167
 4832SOL    HW216330   6.924   1.856   2.242
 4833SOL     OW16331   1.819   8.975   6.032
 4833SOL    HW116332   1.868   8.976   5.949
 4833SOL    HW216333   1.729   8.954   6.006
 4834SOL     OW16334  13.051  11.605   4.722
 4834SOL    HW116335  12.974  11.579   4.670
 4834SOL    HW216336  13.121  11.549   4.690
 4835SOL     OW16337  11.641  10.775   9.656
 4835SOL    HW116338  11.734  10.751   9.665
 4835SOL    HW216339  11.607  10.715   9.590
 4836SOL     OW16340  10.627   2.643   6.464
 4836SOL    HW116341  10.661   2.725   6.499
 4836SOL    HW216342  10.701   2.604   6.417
 4837SOL     OW16343   0.209  12.977   9.085
 4837SOL    HW116344   0.209  12.910   9.016
 4837SOL    HW216345   0.300  13.009   9.088
 4838SOL     OW16346   2.927  12.392  14.864
 4838SOL    HW116347   2.946  12.400  14.770
 4838SOL    HW216348   2.836  12.361  14.867
 4839SOL     OW16349   9.918   5.750  12.463
 4839SOL    HW116350   9.845   5.810  12.446
 4839SOL    HW216351   9.925   5.697  12.384
 4840SOL     OW16352   1.017  10.580   6.218
 4840SOL    HW116353   0.934  10.569   6.172
 4840SOL    HW216354   1.081  10.535   6.164
 4841SOL     OW16355  12.701   7.651   7.085
 4841SOL    HW116356  12.695   7.561   7.051
 4841SOL    HW216357  12.657   7.704   7.019
 4842SOL     OW16358   9.917   2.583  14.201
 4842SOL    HW116359   9.957   2.606  14.285
 4842SOL    HW216360   9.898   2.667  14.159
 4843SOL     OW16361   9.259   8.677  10.212
 4843SOL    HW116362   9.291   8.615  10.146
 4843SOL    HW216363   9.296   8.646  10.294
 4844SOL     OW16364   5.631   1.130   1.690
 4844SOL    HW116365   5.558   1.071   1.673
 4844SOL    HW216366   5.668   1.100   1.773
 4845SOL     OW16367   5.434   7.074   3.678
 4845SOL    HW116368   5.437   7.039   3.589
 4845SOL    HW216369   5.483   7.156   3.674
 4846SOL     OW16370   5.991   8.178  10.471
 4846SOL    HW116371   5.992   8.259  10.421
 4846SOL    HW216372   5.929   8.122  10.425
 4847SOL     OW16373  11.468  14.552   7.863
 4847SOL    HW116374  11.417  14.631   7.882
 4847SOL    HW216375  11.553  14.568   7.904
 4848SOL     OW16376   2.684   1.269  10.446
 4848SOL    HW116377   2.641   1.229  10.370
 4848SOL    HW216378   2.759   1.211  10.463
 4849SOL     OW16379   1.033   4.734   9.480
 4849SOL    HW116380   0.980   4.773   9.549
 4849SOL    HW216381   1.067   4.653   9.518
 4850SOL     OW16382  12.506   1.327  14.235
 4850SOL    HW116383  12.507   1.421  14.250
 4850SOL    HW216384  12.469   1.317  14.147
 4851SOL     OW16385   7.151   0.681   2.162
 4851SOL    HW116386   7.117   0.592   2.173
 4851SOL    HW216387   7.180   0.685   2.071
 4852SOL     OW16388   2.358   6.606   8.541
 4852SOL    HW116389   2.399   6.684   8.503
 4852SOL    HW216390   2.406   6.533   8.502
 4853SOL     OW16391  13.986  12.173   6.163
 4853SOL    HW116392  13.984  12.086   6.204
 4853SOL    HW216393  14.074  12.205   6.179
 4854SOL     OW16394   1.081   3.168   4.954
 4854SOL    HW116395   1.163   3.193   4.913
 4854SOL    HW216396   1.062   3.239   5.015
 4855SOL     OW16397  12.656  11.032   3.580
 4855SOL    HW116398  12.749  11.041   3.560
 4855SOL    HW216399  12.629  11.117   3.613
 4856SOL     OW16400   1.202  14.024  10.628
 4856SOL    HW116401   1.182  14.003  10.537
 4856SOL    HW216402   1.294  13.998  10.639
 4857SOL     OW16403  11.707   9.932  12.761
 4857SOL    HW116404  11.669   9.912  12.846
 4857SOL    HW216405  11.753  10.015  12.773
 4858SOL     OW16406  13.944  13.108   8.089
 4858SOL    HW116407  13.980  13.165   8.158
 4858SOL    HW216408  13.859  13.082   8.123
 4859SOL     OW16409  12.567   8.770  14.290
 4859SOL    HW116410  12.497   8.835  14.288
 4859SOL    HW216411  12.533   8.699  14.344
 4860SOL     OW16412   2.122   8.585  12.214
 4860SOL    HW116413   2.039   8.630  12.228
 4860SOL    HW216414   2.150   8.612  12.126
 4861SOL     OW16415  10.646  13.792  11.770
 4861SOL    HW116416  10.569  13.833  11.731
 4861SOL    HW216417  10.717  13.810  11.708
 4862SOL     OW16418   2.581  13.787   9.149
 4862SOL    HW116419   2.666  13.778   9.192
 4862SOL    HW216420   2.574  13.711   9.092
 4863SOL     OW16421  11.868   6.593   9.198
 4863SOL    HW116422  11.957   6.565   9.218
 4863SOL    HW216423  11.839   6.639   9.277
 4864SOL     OW16424   2.047   3.408   3.957
 4864SOL    HW116425   2.027   3.428   3.866
 4864SOL    HW216426   2.000   3.327   3.975
 4865SOL     OW16427   6.784  13.776   7.561
 4865SOL    HW116428   6.842  13.844   7.594
 4865SOL    HW216429   6.736  13.817   7.489
 4866SOL     OW16430   4.600  14.613  12.352
 4866SOL    HW116431   4.642  14.684  12.401
 4866SOL    HW216432   4.508  14.637  12.348
 4867SOL     OW16433  12.881   7.531  11.748
 4867SOL    HW116434  12.976   7.531  11.759
 4867SOL    HW216435  12.846   7.540  11.836
 4868SOL     OW16436   1.222   6.246   4.683
 4868SOL    HW116437   1.164   6.307   4.638
 4868SOL    HW216438   1.216   6.165   4.632
 4869SOL     OW16439  11.638  10.003   9.510
 4869SOL    HW116440  11.624   9.955   9.428
 4869SOL    HW216441  11.566   9.975   9.566
 4870SOL     OW16442   1.940   0.408   7.053
 4870SOL    HW116443   1.919   0.431   7.144
 4870SOL    HW216444   2.015   0.464   7.031
 4871SOL     OW16445  14.820   3.240   1.739
 4871SOL    HW116446  14.750   3.297   1.769
 4871SOL    HW216447  14.837   3.269   1.649
 4872SOL     OW16448   7.016   1.623  14.166
 4872SOL    HW116449   6.938   1.679  14.163
 4872SOL    HW216450   6.983   1.538  14.195
 4873SOL     OW16451  14.543   6.074  13.193
 4873SOL    HW116452  14.629   6.033  13.189
 4873SOL    HW216453  14.493   6.030  13.123
 4874SOL     OW16454   8.418  12.947  13.071
 4874SOL    HW116455   8.478  12.887  13.029
 4874SOL    HW216456   8.441  12.943  13.164
 4875SOL     OW16457   0.283   9.599  12.881
 4875SOL    HW116458   0.375   9.572  12.881
 4875SOL    HW216459   0.234   9.521  12.906
 4876SOL     OW16460  14.614  11.759   1.157
 4876SOL    HW116461  14.658  11.836   1.121
 4876SOL    HW216462  14.656  11.745   1.242
 4877SOL     OW16463  10.511   6.031  13.216
 4877SOL    HW116464  10.484   6.112  13.173
 4877SOL    HW216465  10.436   5.973  13.207
 4878SOL     OW16466   5.178   7.008  12.266
 4878SOL    HW116467   5.203   6.960  12.186
 4878SOL    HW216468   5.261   7.039  12.302
 4879SOL     OW16469  10.509   6.707  14.251
 4879SOL    HW116470  10.428   6.657  14.250
 4879SOL    HW216471  10.481   6.798  14.260
 4880SOL     OW16472  10.670   9.591   3.895
 4880SOL    HW116473  10.585   9.611   3.935
 4880SOL    HW216474  10.647   9.545   3.814
 4881SOL     OW16475   8.897  10.601   2.752
 4881SOL    HW116476   8.876  10.539   2.822
 4881SOL    HW216477   8.855  10.683   2.779
 4882SOL     OW16478   5.581  14.537   0.550
 4882SOL    HW116479   5.616  14.524   0.462
 4882SOL    HW216480   5.657  14.532   0.607
 4883SOL     OW16481   1.137  13.896   8.641
 4883SOL    HW116482   1.051  13.934   8.659
 4883SOL    HW216483   1.162  13.934   8.556
 4884SOL     OW16484  12.174  13.166   2.401
 4884SOL    HW116485  12.188  13.203   2.313
 4884SOL    HW216486  12.157  13.242   2.456
 4885SOL     OW16487   4.665  14.001   3.473
 4885SOL    HW116488   4.722  14.075   3.494
 4885SOL    HW216489   4.606  14.035   3.405
 4886SOL     OW16490   2.715  14.284   9.907
 4886SOL    HW116491   2.800  14.281   9.951
 4886SOL    HW216492   2.709  14.200   9.861
 4887SOL     OW16493   0.672   6.950   1.239
 4887SOL    HW116494   0.667   6.879   1.174
 4887SOL    HW216495   0.754   6.933   1.286
 4888SOL     OW16496  13.678  13.110   4.591
 4888SOL    HW116497  13.629  13.103   4.673
 4888SOL    HW216498  13.664  13.026   4.547
 4889SOL     OW16499   1.377   2.162  14.255
 4889SOL    HW116500   1.303   2.114  14.218
 4889SOL    HW216501   1.434   2.093  14.290
 4890SOL     OW16502   5.425  10.857  10.758
 4890SOL    HW116503   5.381  10.773  10.745
 4890SOL    HW216504   5.358  10.923  10.743
 4891SOL     OW16505   1.320   3.596   1.728
 4891SOL    HW116506   1.347   3.621   1.816
 4891SOL    HW216507   1.299   3.502   1.735
 4892SOL     OW16508   7.957   8.235  14.868
 4892SOL    HW116509   7.961   8.263   0.081
 4892SOL    HW216510   8.048   8.235  14.840
 4893SOL     OW16511  11.391   2.018   3.383
 4893SOL    HW116512  11.329   1.983   3.318
 4893SOL    HW216513  11.339   2.030   3.462
 4894SOL     OW16514   1.167  12.139  10.900
 4894SOL    HW116515   1.126  12.121  10.985
 4894SOL    HW216516   1.150  12.232  10.884
 4895SOL     OW16517   6.384   2.906   8.445
 4895SOL    HW116518   6.365   2.971   8.513
 4895SOL    HW216519   6.299   2.887   8.405
 4896SOL     OW16520   7.507   0.131   5.550
 4896SOL    HW116521   7.581   0.168   5.598
 4896SOL    HW216522   7.430   0.162   5.597
 4897SOL     OW16523   5.304   1.018   4.513
 4897SOL    HW116524   5.352   1.092   4.550
 4897SOL    HW216525   5.212   1.038   4.530
 4898SOL     OW16526  11.282   3.117  12.741
 4898SOL    HW116527  11.225   3.044  12.766
 4898SOL    HW216528  11.235   3.195  12.771
 4899SOL     OW16529  13.006  12.423  13.138
 4899SOL    HW116530  12.980  12.369  13.064
 4899SOL    HW216531  12.923  12.451  13.178
 4900SOL     OW16532   0.894   1.265  13.383
 4900SOL    HW116533   0.981   1.260  13.422
 4900SOL    HW216534   0.868   1.174  13.368
 4901SOL     OW16535  10.871   0.788   5.088
 4901SOL    HW116536  10.951   0.840   5.092
 4901SOL    HW216537  10.847   0.787   4.996
 4902SOL     OW16538   8.448   3.992  14.780
 4902SOL    HW116539   8.379   3.928  14.762
 4902SOL    HW216540   8.433   4.019  14.870
 4903SOL     OW16541   3.486   6.755   6.858
 4903SOL    HW116542   3.438   6.836   6.847
 4903SOL    HW216543   3.427   6.687   6.824
 4904SOL     OW16544  10.265   7.090   1.181
 4904SOL    HW116545  10.319   7.114   1.257
 4904SOL    HW216546  10.197   7.034   1.217
 4905SOL     OW16547  10.408  14.614  11.695
 4905SOL    HW116548  10.465  14.557  11.643
 4905SOL    HW216549  10.426  14.702  11.664
 4906SOL     OW16550   1.231  12.504  11.843
 4906SOL    HW116551   1.310  12.547  11.877
 4906SOL    HW216552   1.200  12.562  11.773
 4907SOL     OW16553   8.038   8.681  14.506
 4907SOL    HW116554   8.067   8.592  14.525
 4907SOL    HW216555   7.987   8.673  14.425
 4908SOL     OW16556   3.834  13.318  10.352
 4908SOL    HW116557   3.921  13.336  10.316
 4908SOL    HW216558   3.788  13.272  10.281
 4909SOL     OW16559   6.409   8.532  11.953
 4909SOL    HW116560   6.466   8.560  11.882
 4909SOL    HW216561   6.440   8.444  11.976
 4910SOL     OW16562   4.797   7.439   1.634
 4910SOL    HW116563   4.839   7.410   1.716
 4910SOL    HW216564   4.869   7.447   1.572
 4911SOL     OW16565   5.740  12.730  14.329
 4911SOL    HW116566   5.697  12.815  14.320
 4911SOL    HW216567   5.675  12.675  14.373
 4912SOL     OW16568  12.821  12.276   9.940
 4912SOL    HW116569  12.729  12.267   9.915
 4912SOL    HW216570  12.868  12.285   9.857
 4913SOL     OW16571   0.490   8.328  13.662
 4913SOL    HW116572   0.523   8.418  13.655
 4913SOL    HW216573   0.404   8.338  13.704
 4914SOL     OW16574   9.639  10.671   7.388
 4914SOL    HW116575   9.665  10.588   7.348
 4914SOL    HW216576   9.712  10.730   7.370
 4915SOL     OW16577   7.158   5.782   7.136
 4915SOL    HW116578   7.170   5.710   7.074
 4915SOL    HW216579   7.173   5.743   7.222
 4916SOL     OW16580  11.155  12.076   3.441
 4916SOL    HW116581  11.190  12.142   3.381
 4916SOL    HW216582  11.159  11.995   3.391
 4917SOL     OW16583  11.375   3.168  12.425
 4917SOL    HW116584  11.367   3.235  12.492
 4917SOL    HW216585  11.360   3.086  12.472
 4918SOL     OW16586  10.386  12.009  13.730
 4918SOL    HW116587  10.312  11.987  13.787
 4918SOL    HW216588  10.350  12.073  13.668
 4919SOL     OW16589  14.128  12.275   5.906
 4919SOL    HW116590  14.033  12.262   5.907
 4919SOL    HW216591  14.139  12.364   5.872
 4920SOL     OW16592  10.591   0.973   4.244
 4920SOL    HW116593  10.543   1.035   4.299
 4920SOL    HW216594  10.663   0.942   4.299
 4921SOL     OW16595  13.347   5.658   1.295
 4921SOL    HW116596  13.356   5.572   1.337
 4921SOL    HW216597  13.408   5.714   1.342
 4922SOL     OW16598  14.101   6.837  14.876
 4922SOL    HW116599  14.017   6.866   0.034
 4922SOL    HW216600  14.166   6.870   0.059
 4923SOL     OW16601   9.990   7.562   0.101
 4923SOL    HW116602   9.972   7.639   0.155
 4923SOL    HW216603   9.915   7.504   0.117
 4924SOL     OW16604   0.091   0.471  13.174
 4924SOL    HW116605   0.072   0.386  13.136
 4924SOL    HW216606   0.097   0.530  13.099
 4925SOL     OW16607   5.734   5.906  10.045
 4925SOL    HW116608   5.655   5.960  10.052
 4925SOL    HW216609   5.713   5.827  10.096
 4926SOL     OW16610  14.137   8.567  13.200
 4926SOL    HW116611  14.100   8.614  13.125
 4926SOL    HW216612  14.187   8.495  13.161
 4927SOL     OW16613  12.207   5.062   7.214
 4927SOL    HW116614  12.293   5.081   7.251
 4927SOL    HW216615  12.146   5.075   7.286
 4928SOL     OW16616   3.744  13.469   3.620
 4928SOL    HW116617   3.674  13.475   3.555
 4928SOL    HW216618   3.752  13.375   3.637
 4929SOL     OW16619   4.765  11.455   4.831
 4929SOL    HW116620   4.678  11.470   4.794
 4929SOL    HW216621   4.811  11.538   4.819
 4930SOL     OW16622   4.551  14.326  11.969
 4930SOL    HW116623   4.566  14.415  12.000
 4930SOL    HW216624   4.468  14.331  11.921
 4931SOL     OW16625   6.613   3.209   1.383
 4931SOL    HW116626   6.676   3.263   1.430
 4931SOL    HW216627   6.595   3.258   1.302
 4932SOL     OW16628   6.689  12.963   7.431
 4932SOL    HW116629   6.749  12.916   7.373
 4932SOL    HW216630   6.716  12.937   7.519
 4933SOL     OW16631   4.950   4.628   2.351
 4933SOL    HW116632   5.030   4.624   2.404
 4933SOL    HW216633   4.945   4.719   2.323
 4934SOL     OW16634  11.973   9.390   2.504
 4934SOL    HW116635  11.949   9.418   2.592
 4934SOL    HW216636  11.915   9.316   2.486
 4935SOL     OW16637   3.492   3.896   4.696
 4935SOL    HW116638   3.461   3.815   4.656
 4935SOL    HW216639   3.547   3.867   4.769
 4936SOL     OW16640   3.069  14.780   0.378
 4936SOL    HW116641   3.030  14.693   0.386
 4936SOL    HW216642   3.146  14.776   0.435
 4937SOL     OW16643   0.764  11.774  13.228
 4937SOL    HW116644   0.822  11.835  13.274
 4937SOL    HW216645   0.796  11.687  13.253
 4938SOL     OW16646   7.834  13.527  10.588
 4938SOL    HW116647   7.920  13.497  10.619
 4938SOL    HW216648   7.840  13.522  10.492
 4939SOL     OW16649   7.010   1.625   8.806
 4939SOL    HW116650   7.064   1.594   8.879
 4939SOL    HW216651   7.072   1.646   8.737
 4940SOL     OW16652   6.020  14.831   1.640
 4940SOL    HW116653   5.940  14.862   1.597
 4940SOL    HW216654   6.047  14.755   1.588
 4941SOL     OW16655   2.691  10.201   7.628
 4941SOL    HW116656   2.626  10.174   7.563
 4941SOL    HW216657   2.763  10.140   7.616
 4942SOL     OW16658   7.289   7.158   7.783
 4942SOL    HW116659   7.251   7.245   7.799
 4942SOL    HW216660   7.365   7.154   7.841
 4943SOL     OW16661  13.026   0.554  10.041
 4943SOL    HW116662  13.027   0.644  10.074
 4943SOL    HW216663  13.008   0.501  10.118
 4944SOL     OW16664   0.236   6.508  13.071
 4944SOL    HW116665   0.271   6.522  13.159
 4944SOL    HW216666   0.230   6.413  13.063
 4945SOL     OW16667   0.401   1.921   1.182
 4945SOL    HW116668   0.329   1.915   1.244
 4945SOL    HW216669   0.363   1.895   1.098
 4946SOL     OW16670  14.872   2.770   0.550
 4946SOL    HW116671   0.036   2.764   0.464
 4946SOL    HW216672   0.062   2.797   0.610
 4947SOL     OW16673   1.747   2.791  13.670
 4947SOL    HW116674   1.836   2.827  13.680
 4947SOL    HW216675   1.736   2.782  13.575
 4948SOL     OW16676  12.667   8.341   3.980
 4948SOL    HW116677  12.651   8.259   4.028
 4948SOL    HW216678  12.579   8.375   3.962
 4949SOL     OW16679   2.940   7.404  11.469
 4949SOL    HW116680   2.850   7.422  11.497
 4949SOL    HW216681   2.987   7.486  11.486
 4950SOL     OW16682   3.817   8.531   1.230
 4950SOL    HW116683   3.865   8.467   1.282
 4950SOL    HW216684   3.790   8.598   1.293
 4951SOL     OW16685   7.732   9.114   2.999
 4951SOL    HW116686   7.727   9.080   2.909
 4951SOL    HW216687   7.656   9.075   3.043
 4952SOL     OW16688  10.408   2.763   8.883
 4952SOL    HW116689  10.438   2.841   8.837
 4952SOL    HW216690  10.345   2.796   8.948
 4953SOL     OW16691  13.820  10.225   5.750
 4953SOL    HW116692  13.759  10.264   5.688
 4953SOL    HW216693  13.777  10.145   5.779
 4954SOL     OW16694   8.557   3.658   9.022
 4954SOL    HW116695   8.634   3.612   8.990
 4954SOL    HW216696   8.488   3.638   8.958
 4955SOL     OW16697  10.713   4.532   8.693
 4955SOL    HW116698  10.762   4.500   8.768
 4955SOL    HW216699  10.706   4.626   8.707
 4956SOL     OW16700  12.504   3.798   0.431
 4956SOL    HW116701  12.489   3.891   0.449
 4956SOL    HW216702  12.432   3.773   0.373
 4957SOL     OW16703   7.173   6.715  10.677
 4957SOL    HW116704   7.126   6.777  10.620
 4957SOL    HW216705   7.206   6.648  10.617
 4958SOL     OW16706   5.061   8.048   2.297
 4958SOL    HW116707   5.086   8.087   2.380
 4958SOL    HW216708   5.066   7.953   2.312
 4959SOL     OW16709  13.408   8.918   7.910
 4959SOL    HW116710  13.326   8.876   7.885
 4959SOL    HW216711  13.388   9.012   7.906
 4960SOL     OW16712   4.430   0.447  10.662
 4960SOL    HW116713   4.495   0.402  10.716
 4960SOL    HW216714   4.355   0.459  10.720
 4961SOL     OW16715  13.477   0.559   2.442
 4961SOL    HW116716  13.391   0.524   2.464
 4961SOL    HW216717  13.478   0.564   2.347
 4962SOL     OW16718   5.370  14.794   1.153
 4962SOL    HW116719   5.333  14.835   1.231
 4962SOL    HW216720   5.315  14.717   1.138
 4963SOL     OW16721   3.640   0.262   2.346
 4963SOL    HW116722   3.565   0.320   2.353
 4963SOL    HW216723   3.647   0.222   2.433
 4964SOL     OW16724  14.728  10.443   0.186
 4964SOL    HW116725  14.751  10.523   0.232
 4964SOL    HW216726  14.638  10.457   0.156
 4965SOL     OW16727  10.198  13.704   6.903
 4965SOL    HW116728  10.276  13.659   6.935
 4965SOL    HW216729  10.145  13.636   6.863
 4966SOL     OW16730  10.385   6.027  14.237
 4966SOL    HW116731  10.416   6.117  14.240
 4966SOL    HW216732  10.290   6.033  14.251
 4967SOL     OW16733   3.440  13.154  12.113
 4967SOL    HW116734   3.374  13.223  12.112
 4967SOL    HW216735   3.444  13.127  12.205
 4968SOL     OW16736  13.068  12.152   8.271
 4968SOL    HW116737  13.055  12.246   8.256
 4968SOL    HW216738  12.985  12.121   8.307
 4969SOL     OW16739  12.438  14.406  10.089
 4969SOL    HW116740  12.420  14.330  10.145
 4969SOL    HW216741  12.510  14.378  10.033
 4970SOL     OW16742  11.101  14.074   0.247
 4970SOL    HW116743  11.036  14.125   0.198
 4970SOL    HW216744  11.051  14.001   0.283
 4971SOL     OW16745  14.445   2.560  13.709
 4971SOL    HW116746  14.479   2.572  13.798
 4971SOL    HW216747  14.435   2.649  13.676
 4972SOL     OW16748   0.572   2.018  13.200
 4972SOL    HW116749   0.636   2.025  13.271
 4972SOL    HW216750   0.507   1.956  13.232
 4973SOL     OW16751   6.177   8.282  10.845
 4973SOL    HW116752   6.149   8.368  10.812
 4973SOL    HW216753   6.202   8.233  10.767
 4974SOL     OW16754  12.053  11.808  11.273
 4974SOL    HW116755  11.969  11.811  11.226
 4974SOL    HW216756  12.054  11.721  11.312
 4975SOL     OW16757  10.823  10.990   8.874
 4975SOL    HW116758  10.777  11.063   8.915
 4975SOL    HW216759  10.777  10.976   8.791
 4976SOL     OW16760   0.245   7.116  12.057
 4976SOL    HW116761   0.220   7.029  12.088
 4976SOL    HW216762   0.323   7.101  12.004
 4977SOL     OW16763   8.470  13.515   8.218
 4977SOL    HW116764   8.453  13.507   8.124
 4977SOL    HW216765   8.395  13.473   8.260
 4978SOL     OW16766   5.504   4.973   8.375
 4978SOL    HW116767   5.456   5.045   8.416
 4978SOL    HW216768   5.483   4.980   8.282
 4979SOL     OW16769  14.818   5.906  12.241
 4979SOL    HW116770   0.009   5.955  12.283
 4979SOL    HW216771  14.863   5.846  12.181
 4980SOL     OW16772   7.090  10.180  14.516
 4980SOL    HW116773   7.017  10.197  14.457
 4980SOL    HW216774   7.049  10.169  14.602
 4981SOL     OW16775   8.853  13.546   6.777
 4981SOL    HW116776   8.901  13.620   6.812
 4981SOL    HW216777   8.920  13.480   6.758
 4982SOL     OW16778  13.019   2.825  13.995
 4982SOL    HW116779  13.012   2.918  13.974
 4982SOL    HW216780  12.935   2.803  14.034
 4983SOL     OW16781   2.020  13.139  10.306
 4983SOL    HW116782   1.933  13.118  10.340
 4983SOL    HW216783   2.077  13.131  10.382
 4984SOL     OW16784  12.084   5.693   6.461
 4984SOL    HW116785  12.132   5.610   6.449
 4984SOL    HW216786  12.072   5.725   6.372
 4985SOL     OW16787   7.269   9.714  12.371
 4985SOL    HW116788   7.178   9.724  12.399
 4985SOL    HW216789   7.305   9.649  12.432
 4986SOL     OW16790   9.521   6.917  10.914
 4986SOL    HW116791   9.612   6.941  10.934
 4986SOL    HW216792   9.469   6.981  10.963
 4987SOL     OW16793   2.657  13.479   8.965
 4987SOL    HW116794   2.751  13.470   8.979
 4987SOL    HW216795   2.628  13.393   8.936
 4988SOL     OW16796  14.326   8.803  12.398
 4988SOL    HW116797  14.330   8.787  12.304
 4988SOL    HW216798  14.411   8.774  12.432
 4989SOL     OW16799   6.641  13.357   2.360
 4989SOL    HW116800   6.547  13.376   2.370
 4989SOL    HW216801   6.652  13.343   2.266
 4990SOL     OW16802  11.620   0.274  10.115
 4990SOL    HW116803  11.544   0.309  10.161
 4990SOL    HW216804  11.678   0.243  10.185
 4991SOL     OW16805   7.067   2.150   5.794
 4991SOL    HW116806   7.113   2.233   5.799
 4991SOL    HW216807   7.096   2.111   5.712
 4992SOL     OW16808   5.949   1.998  13.540
 4992SOL    HW116809   6.011   1.964  13.605
 4992SOL    HW216810   5.865   1.998  13.586
 4993SOL     OW16811   2.903   3.877   1.292
 4993SOL    HW116812   2.934   3.844   1.377
 4993SOL    HW216813   2.982   3.883   1.239
 4994SOL     OW16814  11.349   5.581  12.474
 4994SOL    HW116815  11.284   5.548  12.536
 4994SOL    HW216816  11.297   5.607  12.397
 4995SOL     OW16817   6.378   4.073  13.740
 4995SOL    HW116818   6.449   4.093  13.801
 4995SOL    HW216819   6.375   4.149  13.681
 4996SOL     OW16820   8.688   3.725   8.052
 4996SOL    HW116821   8.715   3.639   8.086
 4996SOL    HW216822   8.750   3.787   8.092
 4997SOL     OW16823   0.768   4.482   4.117
 4997SOL    HW116824   0.721   4.528   4.047
 4997SOL    HW216825   0.825   4.548   4.156
 4998SOL     OW16826  10.813   1.899   6.549
 4998SOL    HW116827  10.831   1.818   6.500
 4998SOL    HW216828  10.720   1.892   6.573
 4999SOL     OW16829   2.347   8.491  13.771
 4999SOL    HW116830   2.318   8.464  13.684
 4999SOL    HW216831   2.442   8.480  13.770
 5000SOL     OW16832   9.360  11.846   2.499
 5000SOL    HW116833   9.286  11.899   2.468
 5000SOL    HW216834   9.370  11.778   2.432
 5001SOL     OW16835  13.418   7.897   1.868
 5001SOL    HW116836  13.462   7.812   1.864
 5001SOL    HW216837  13.408   7.914   1.961
 5002SOL     OW16838   1.685  10.389   7.688
 5002SOL    HW116839   1.762  10.333   7.677
 5002SOL    HW216840   1.618  10.348   7.633
 5003SOL     OW16841  12.697  12.392  12.372
 5003SOL    HW116842  12.669  12.474  12.412
 5003SOL    HW216843  12.787  12.409  12.344
 5004SOL     OW16844   0.083   6.774  10.897
 5004SOL    HW116845   0.036   6.701  10.857
 5004SOL    HW216846   0.153   6.732  10.948
 5005SOL     OW16847   0.358   9.148  13.636
 5005SOL    HW116848   0.274   9.103  13.628
 5005SOL    HW216849   0.359   9.180  13.727
 5006SOL     OW16850  11.209   5.263   9.374
 5006SOL    HW116851  11.228   5.247   9.466
 5006SOL    HW216852  11.279   5.321   9.345
 5007SOL     OW16853   4.052  14.381   4.335
 5007SOL    HW116854   3.972  14.333   4.359
 5007SOL    HW216855   4.052  14.380   4.239
 5008SOL     OW16856  10.147  10.797  13.323
 5008SOL    HW116857  10.196  10.799  13.240
 5008SOL    HW216858  10.056  10.811  13.297
 5009SOL     OW16859   5.374  12.243   2.647
 5009SOL    HW116860   5.315  12.299   2.597
 5009SOL    HW216861   5.456  12.292   2.652
 5010SOL     OW16862   8.325   3.456   4.025
 5010SOL    HW116863   8.350   3.383   3.968
 5010SOL    HW216864   8.236   3.478   3.999
 5011SOL     OW16865   4.393   8.124   9.272
 5011SOL    HW116866   4.429   8.170   9.348
 5011SOL    HW216867   4.415   8.032   9.287
 5012SOL     OW16868   1.764   2.935  13.027
 5012SOL    HW116869   1.822   2.860  13.024
 5012SOL    HW216870   1.682   2.903  12.989
 5013SOL     OW16871   5.750  12.091   7.215
 5013SOL    HW116872   5.826  12.136   7.178
 5013SOL    HW216873   5.733  12.136   7.298
 5014SOL     OW16874   6.874   7.546   3.658
 5014SOL    HW116875   6.798   7.564   3.713
 5014SOL    HW216876   6.844   7.480   3.596
 5015SOL     OW16877  14.430   4.966  11.505
 5015SOL    HW116878  14.347   4.973  11.552
 5015SOL    HW216879  14.488   4.918  11.564
 5016SOL     OW16880  11.553   3.513   1.578
 5016SOL    HW116881  11.563   3.553   1.664
 5016SOL    HW216882  11.582   3.423   1.590
 5017SOL     OW16883  14.183   7.769  11.004
 5017SOL    HW116884  14.088   7.766  11.014
 5017SOL    HW216885  14.211   7.843  11.058
 5018SOL     OW16886  12.077   9.897  14.321
 5018SOL    HW116887  12.083   9.975  14.375
 5018SOL    HW216888  11.988   9.901  14.284
 5019SOL     OW16889  13.157   9.052  10.584
 5019SOL    HW116890  13.210   9.040  10.505
 5019SOL    HW216891  13.067   9.037  10.555
 5020SOL     OW16892   7.069   6.248   9.275
 5020SOL    HW116893   7.095   6.265   9.184
 5020SOL    HW216894   6.988   6.297   9.286
 5021SOL     OW16895  12.130   9.704  12.558
 5021SOL    HW116896  12.127   9.616  12.519
 5021SOL    HW216897  12.053   9.707  12.616
 5022SOL     OW16898   2.145  10.332  13.967
 5022SOL    HW116899   2.205  10.403  13.946
 5022SOL    HW216900   2.196  10.252  13.954
 5023SOL     OW16901   0.303   7.223   7.915
 5023SOL    HW116902   0.377   7.283   7.919
 5023SOL    HW216903   0.268   7.221   8.004
 5024SOL     OW16904   3.190  10.196   4.948
 5024SOL    HW116905   3.204  10.131   4.879
 5024SOL    HW216906   3.248  10.168   5.019
 5025SOL     OW16907  10.570  12.719  12.723
 5025SOL    HW116908  10.642  12.781  12.729
 5025SOL    HW216909  10.491  12.774  12.720
 5026SOL     OW16910   7.373   8.362   9.727
 5026SOL    HW116911   7.432   8.432   9.752
 5026SOL    HW216912   7.430   8.286   9.712
 5027SOL     OW16913   8.010   2.312   0.487
 5027SOL    HW116914   8.024   2.306   0.393
 5027SOL    HW216915   8.064   2.243   0.524
 5028SOL     OW16916   9.155   0.973  13.936
 5028SOL    HW116917   9.170   0.887  13.975
 5028SOL    HW216918   9.193   0.967  13.848
 5029SOL     OW16919  11.953  14.330  10.272
 5029SOL    HW116920  11.914  14.353  10.356
 5029SOL    HW216921  12.046  14.319  10.291
 5030SOL     OW16922  13.714   1.233  13.435
 5030SOL    HW116923  13.628   1.274  13.447
 5030SOL    HW216924  13.718   1.212  13.342
 5031SOL     OW16925   9.372   3.079   8.046
 5031SOL    HW116926   9.401   2.995   8.010
 5031SOL    HW216927   9.449   3.135   8.042
 5032SOL     OW16928   0.886   3.161   9.275
 5032SOL    HW116929   0.954   3.101   9.245
 5032SOL    HW216930   0.804   3.114   9.259
 5033SOL     OW16931   2.893   3.647  13.050
 5033SOL    HW116932   2.893   3.592  12.972
 5033SOL    HW216933   2.961   3.712  13.032
 5034SOL     OW16934   7.081   6.555  11.895
 5034SOL    HW116935   7.151   6.552  11.830
 5034SOL    HW216936   7.118   6.604  11.968
 5035SOL     OW16937   0.642  11.213   8.455
 5035SOL    HW116938   0.594  11.131   8.468
 5035SOL    HW216939   0.583  11.269   8.406
 5036SOL     OW16940  12.833  13.301  13.227
 5036SOL    HW116941  12.895  13.296  13.299
 5036SOL    HW216942  12.825  13.211  13.196
 5037SOL     OW16943   4.243   6.410  10.111
 5037SOL    HW116944   4.193   6.344  10.063
 5037SOL    HW216945   4.224   6.493  10.066
 5038SOL     OW16946   5.961   7.136   3.187
 5038SOL    HW116947   6.010   7.146   3.106
 5038SOL    HW216948   5.983   7.048   3.218
 5039SOL     OW16949   2.705  10.135   1.681
 5039SOL    HW116950   2.651  10.117   1.758
 5039SOL    HW216951   2.794  10.117   1.709
 5040SOL     OW16952   6.315   9.415   6.994
 5040SOL    HW116953   6.246   9.383   7.052
 5040SOL    HW216954   6.276   9.413   6.907
 5041SOL     OW16955  14.329   7.427   7.059
 5041SOL    HW116956  14.325   7.460   6.970
 5041SOL    HW216957  14.340   7.506   7.113
 5042SOL     OW16958   8.186   8.681   2.476
 5042SOL    HW116959   8.144   8.711   2.395
 5042SOL    HW216960   8.172   8.587   2.477
 5043SOL     OW16961  14.565   5.873   5.626
 5043SOL    HW116962  14.617   5.844   5.551
 5043SOL    HW216963  14.546   5.965   5.608
 5044SOL     OW16964   4.789   3.755   1.356
 5044SOL    HW116965   4.727   3.705   1.303
 5044SOL    HW216966   4.875   3.727   1.325
 5045SOL     OW16967  11.399   1.646   7.079
 5045SOL    HW116968  11.401   1.550   7.078
 5045SOL    HW216969  11.455   1.671   7.006
 5046SOL     OW16970  11.375   6.501  13.234
 5046SOL    HW116971  11.389   6.590  13.201
 5046SOL    HW216972  11.436   6.447  13.184
 5047SOL     OW16973   1.048   0.169   8.123
 5047SOL    HW116974   1.078   0.084   8.156
 5047SOL    HW216975   0.970   0.148   8.072
 5048SOL     OW16976   0.176  10.609   1.043
 5048SOL    HW116977   0.235  10.536   1.062
 5048SOL    HW216978   0.190  10.629   0.950
 5049SOL     OW16979   6.386   6.538   5.892
 5049SOL    HW116980   6.396   6.574   5.980
 5049SOL    HW216981   6.352   6.450   5.905
 5050SOL     OW16982  10.464  13.788   0.202
 5050SOL    HW116983  10.386  13.733   0.188
 5050SOL    HW216984  10.431  13.864   0.249
 5051SOL     OW16985  14.582  11.888  14.628
 5051SOL    HW116986  14.573  11.876  14.534
 5051SOL    HW216987  14.670  11.922  14.640
 5052SOL     OW16988   9.804   6.482   4.431
 5052SOL    HW116989   9.722   6.498   4.477
 5052SOL    HW216990   9.821   6.562   4.381
 5053SOL     OW16991   9.578   1.190   5.041
 5053SOL    HW116992   9.660   1.240   5.035
 5053SOL    HW216993   9.587   1.138   5.120
 5054SOL     OW16994   0.222  14.178   4.924
 5054SOL    HW116995   0.232  14.096   4.973
 5054SOL    HW216996   0.310  14.196   4.890
 5055SOL     OW16997   1.380  14.013   5.814
 5055SOL    HW116998   1.314  13.944   5.819
 5055SOL    HW216999   1.331  14.094   5.829
 5056SOL     OW17000   1.847   7.976   0.898
 5056SOL    HW117001   1.773   7.917   0.914
 5056SOL    HW217002   1.912   7.951   0.964
 5057SOL     OW17003   8.887  10.996   8.001
 5057SOL    HW117004   8.979  11.024   8.005
 5057SOL    HW217005   8.890  10.911   7.956
 5058SOL     OW17006   0.202   6.475   0.873
 5058SOL    HW117007   0.210   6.402   0.936
 5058SOL    HW217008   0.266   6.539   0.904
 5059SOL     OW17009   9.749  11.392   5.130
 5059SOL    HW117010   9.672  11.443   5.105
 5059SOL    HW217011   9.742  11.382   5.225
 5060SOL     OW17012  14.878   2.982   1.662
 5060SOL    HW117013  14.821   2.930   1.718
 5060SOL    HW217014  14.862   3.072   1.689
 5061SOL     OW17015   0.035   9.336  14.088
 5061SOL    HW117016  14.842   9.394  14.112
 5061SOL    HW217017  14.875   9.249  14.086
 5062SOL     OW17018  12.054   1.144   2.153
 5062SOL    HW117019  12.083   1.234   2.141
 5062SOL    HW217020  12.109   1.111   2.225
 5063SOL     OW17021  12.101   9.825  10.479
 5063SOL    HW117022  12.126   9.771  10.403
 5063SOL    HW217023  12.182   9.872  10.501
 5064SOL     OW17024   0.699   0.524   6.531
 5064SOL    HW117025   0.729   0.435   6.548
 5064SOL    HW217026   0.751   0.579   6.590
 5065SOL     OW17027   0.030  13.707   1.955
 5065SOL    HW117028   0.058  13.792   1.989
 5065SOL    HW217029   0.026  13.651   2.032
 5066SOL     OW17030  12.222   5.777   7.359
 5066SOL    HW117031  12.272   5.781   7.277
 5066SOL    HW217032  12.157   5.846   7.351
 5067SOL     OW17033  13.676   5.832   3.273
 5067SOL    HW117034  13.706   5.905   3.327
 5067SOL    HW217035  13.685   5.756   3.330
 5068SOL     OW17036   8.379   1.923   4.030
 5068SOL    HW117037   8.348   2.013   4.018
 5068SOL    HW217038   8.430   1.905   3.951
 5069SOL     OW17039   8.466   9.960   7.191
 5069SOL    HW117040   8.455   9.897   7.262
 5069SOL    HW217041   8.513  10.033   7.230
 5070SOL     OW17042   4.339  13.503   6.760
 5070SOL    HW117043   4.319  13.537   6.672
 5070SOL    HW217044   4.253  13.486   6.799
 5071SOL     OW17045   2.591   1.340   4.248
 5071SOL    HW117046   2.668   1.303   4.292
 5071SOL    HW217047   2.612   1.432   4.235
 5072SOL     OW17048   1.019   0.021   1.764
 5072SOL    HW117049   1.114   0.021   1.750
 5072SOL    HW217050   1.009   0.035   1.858
 5073SOL     OW17051   1.799   6.756   7.665
 5073SOL    HW117052   1.836   6.674   7.631
 5073SOL    HW217053   1.708   6.754   7.637
 5074SOL     OW17054   8.034  12.821   1.561
 5074SOL    HW117055   8.116  12.773   1.573
 5074SOL    HW217056   8.049  12.877   1.485
 5075SOL     OW17057   0.568   0.365   9.069
 5075SOL    HW117058   0.566   0.419   8.990
 5075SOL    HW217059   0.553   0.276   9.037
 5076SOL     OW17060  10.932  11.980   4.161
 5076SOL    HW117061  10.847  11.954   4.125
 5076SOL    HW217062  10.915  11.995   4.254
 5077SOL     OW17063   1.210   7.351   3.902
 5077SOL    HW117064   1.143   7.420   3.893
 5077SOL    HW217065   1.288   7.398   3.932
 5078SOL     OW17066  12.754   6.922   2.651
 5078SOL    HW117067  12.731   6.889   2.565
 5078SOL    HW217068  12.846   6.899   2.662
 5079SOL     OW17069  10.698   3.214   7.784
 5079SOL    HW117070  10.655   3.239   7.702
 5079SOL    HW217071  10.785   3.254   7.779
 5080SOL     OW17072   6.722  14.428   7.736
 5080SOL    HW117073   6.754  14.341   7.760
 5080SOL    HW217074   6.718  14.427   7.640
 5081SOL     OW17075  11.636  12.658  10.823
 5081SOL    HW117076  11.677  12.577  10.855
 5081SOL    HW217077  11.643  12.719  10.896
 5082SOL     OW17078   6.509  12.046   1.212
 5082SOL    HW117079   6.438  12.047   1.277
 5082SOL    HW217080   6.560  12.124   1.232
 5083SOL     OW17081   7.998   8.021   1.671
 5083SOL    HW117082   7.963   8.109   1.683
 5083SOL    HW217083   7.925   7.962   1.693
 5084SOL     OW17084  13.036   9.767   5.493
 5084SOL    HW117085  13.087   9.812   5.560
 5084SOL    HW217086  13.100   9.717   5.443
 5085SOL     OW17087   1.780   6.183   7.027
 5085SOL    HW117088   1.796   6.167   7.120
 5085SOL    HW217089   1.866   6.204   6.991
 5086SOL     OW17090   6.834   1.360  12.409
 5086SOL    HW117091   6.757   1.319  12.370
 5086SOL    HW217092   6.908   1.325  12.360
 5087SOL     OW17093   6.858   4.661   7.706
 5087SOL    HW117094   6.771   4.631   7.733
 5087SOL    HW217095   6.896   4.584   7.664
 5088SOL     OW17096   4.593   4.983   0.160
 5088SOL    HW117097   4.639   4.902   0.137
 5088SOL    HW217098   4.561   5.017   0.077
 5089SOL     OW17099  12.596  13.629   4.633
 5089SOL    HW117100  12.545  13.673   4.565
 5089SOL    HW217101  12.641  13.699   4.679
 5090SOL     OW17102   6.000   2.653  14.072
 5090SOL    HW117103   6.065   2.602  14.121
 5090SOL    HW217104   6.027   2.646  13.981
 5091SOL     OW17105  14.525   2.855   1.482
 5091SOL    HW117106  14.443   2.827   1.521
 5091SOL    HW217107  14.517   2.951   1.475
 5092SOL     OW17108  10.391  11.240  12.504
 5092SOL    HW117109  10.419  11.328  12.478
 5092SOL    HW217110  10.455  11.214  12.570
 5093SOL     OW17111   6.779   9.747   0.607
 5093SOL    HW117112   6.693   9.753   0.565
 5093SOL    HW217113   6.821   9.672   0.565
 5094SOL     OW17114  13.697   5.679   5.984
 5094SOL    HW117115  13.659   5.735   6.051
 5094SOL    HW217116  13.790   5.702   5.982
 5095SOL     OW17117   2.223   7.244   6.289
 5095SOL    HW117118   2.171   7.215   6.214
 5095SOL    HW217119   2.270   7.166   6.318
 5096SOL     OW17120   7.181  14.626   3.356
 5096SOL    HW117121   7.174  14.637   3.451
 5096SOL    HW217122   7.092  14.636   3.324
 5097SOL     OW17123   0.870   5.285   4.600
 5097SOL    HW117124   0.780   5.275   4.569
 5097SOL    HW217125   0.924   5.268   4.523
 5098SOL     OW17126   1.744   9.361   9.653
 5098SOL    HW117127   1.764   9.283   9.600
 5098SOL    HW217128   1.828   9.386   9.692
 5099SOL     OW17129   0.629  12.497   4.909
 5099SOL    HW117130   0.649  12.475   5.000
 5099SOL    HW217131   0.570  12.426   4.880
 5100SOL     OW17132   0.750   9.003  12.505
 5100SOL    HW117133   0.832   9.013  12.456
 5100SOL    HW217134   0.713   9.091  12.508
 5101SOL     OW17135  13.600   1.226  13.950
 5101SOL    HW117136  13.512   1.202  13.920
 5101SOL    HW217137  13.650   1.145  13.945
 5102SOL     OW17138   6.752  12.962   9.016
 5102SOL    HW117139   6.771  12.971   9.109
 5102SOL    HW217140   6.817  12.900   8.984
 5103SOL     OW17141  14.005   2.717   2.951
 5103SOL    HW117142  14.076   2.653   2.952
 5103SOL    HW217143  14.048   2.801   2.961
 5104SOL     OW17144   7.174  13.142   3.847
 5104SOL    HW117145   7.263  13.174   3.861
 5104SOL    HW217146   7.185  13.058   3.802
 5105SOL     OW17147  11.574   0.934  11.852
 5105SOL    HW117148  11.577   1.003  11.919
 5105SOL    HW217149  11.484   0.902  11.856
 5106SOL     OW17150   5.944   2.145   2.454
 5106SOL    HW117151   6.029   2.125   2.493
 5106SOL    HW217152   5.917   2.065   2.410
 5107SOL     OW17153   0.326  11.284   1.281
 5107SOL    HW117154   0.349  11.369   1.243
 5107SOL    HW217155   0.348  11.220   1.214
 5108SOL     OW17156   3.394   1.446   2.569
 5108SOL    HW117157   3.399   1.382   2.640
 5108SOL    HW217158   3.436   1.402   2.495
 5109SOL     OW17159   1.807   3.917  14.726
 5109SOL    HW117160   1.882   3.904  14.668
 5109SOL    HW217161   1.733   3.884  14.676
 5110SOL     OW17162   8.938   2.459  12.866
 5110SOL    HW117163   8.844   2.464  12.880
 5110SOL    HW217164   8.966   2.382  12.916
 5111SOL     OW17165   3.154   2.965   7.489
 5111SOL    HW117166   3.115   2.948   7.403
 5111SOL    HW217167   3.103   3.036   7.525
 5112SOL     OW17168  13.923   8.421   7.020
 5112SOL    HW117169  13.966   8.441   7.103
 5112SOL    HW217170  13.969   8.343   6.988
 5113SOL     OW17171   3.116   6.957   9.874
 5113SOL    HW117172   3.083   6.870   9.850
 5113SOL    HW217173   3.051   7.018   9.840
 5114SOL     OW17174   1.206  10.589  10.636
 5114SOL    HW117175   1.226  10.630  10.720
 5114SOL    HW217176   1.164  10.658  10.585
 5115SOL     OW17177  12.997   2.836   5.870
 5115SOL    HW117178  12.949   2.837   5.952
 5115SOL    HW217179  13.058   2.910   5.877
 5116SOL     OW17180   8.051   6.101   1.716
 5116SOL    HW117181   8.123   6.163   1.722
 5116SOL    HW217182   8.043   6.083   1.622
 5117SOL     OW17183  14.870   0.051   4.200
 5117SOL    HW117184  14.800   0.115   4.196
 5117SOL    HW217185   0.036   0.060   4.116
 5118SOL     OW17186   8.629  12.018   4.058
 5118SOL    HW117187   8.703  12.071   4.027
 5118SOL    HW217188   8.599  11.972   3.979
 5119SOL     OW17189   4.222  12.394   6.131
 5119SOL    HW117190   4.304  12.356   6.101
 5119SOL    HW217191   4.216  12.369   6.224
 5120SOL     OW17192  14.237   8.401   1.123
 5120SOL    HW117193  14.253   8.362   1.037
 5120SOL    HW217194  14.141   8.410   1.128
 5121SOL     OW17195  14.601   2.070  10.478
 5121SOL    HW117196  14.624   2.041  10.390
 5121SOL    HW217197  14.621   2.164  10.479
 5122SOL     OW17198  14.736  14.517  11.341
 5122SOL    HW117199  14.664  14.480  11.393
 5122SOL    HW217200  14.733  14.611  11.359
 5123SOL     OW17201   2.838   6.189   4.831
 5123SOL    HW117202   2.915   6.164   4.780
 5123SOL    HW217203   2.865   6.174   4.922
 5124SOL     OW17204  12.709   8.565  10.112
 5124SOL    HW117205  12.700   8.575  10.206
 5124SOL    HW217206  12.656   8.636  10.075
 5125SOL     OW17207   4.109   2.819   5.550
 5125SOL    HW117208   4.129   2.740   5.600
 5125SOL    HW217209   4.146   2.890   5.602
 5126SOL     OW17210   3.293   5.069   4.640
 5126SOL    HW117211   3.322   5.057   4.730
 5126SOL    HW217212   3.257   5.158   4.637
 5127SOL     OW17213  10.373  12.817   9.047
 5127SOL    HW117214  10.278  12.820   9.033
 5127SOL    HW217215  10.401  12.908   9.042
 5128SOL     OW17216  13.641   8.033  14.620
 5128SOL    HW117217  13.694   7.996  14.549
 5128SOL    HW217218  13.675   8.121  14.632
 5129SOL     OW17219   0.441   9.664   4.964
 5129SOL    HW117220   0.430   9.610   4.886
 5129SOL    HW217221   0.530   9.644   4.995
 5130SOL     OW17222  10.330  13.447   1.675
 5130SOL    HW117223  10.400  13.503   1.639
 5130SOL    HW217224  10.368  13.410   1.755
 5131SOL     OW17225  13.534  10.757   6.328
 5131SOL    HW117226  13.509  10.819   6.260
 5131SOL    HW217227  13.532  10.808   6.409
 5132SOL     OW17228   4.047  13.429   1.494
 5132SOL    HW117229   4.003  13.413   1.578
 5132SOL    HW217230   4.048  13.524   1.486
 5133SOL     OW17231  10.153   6.451  11.295
 5133SOL    HW117232  10.243   6.465  11.325
 5133SOL    HW217233  10.147   6.501  11.214
 5134SOL     OW17234   4.315   0.050   4.521
 5134SOL    HW117235   4.305   0.111   4.594
 5134SOL    HW217236   4.344  14.847   4.562
 5135SOL     OW17237  12.806   0.467   3.696
 5135SOL    HW117238  12.799   0.383   3.741
 5135SOL    HW217239  12.815   0.444   3.603
 5136SOL     OW17240  14.345   3.244   4.308
 5136SOL    HW117241  14.364   3.320   4.253
 5136SOL    HW217242  14.253   3.224   4.290
 5137SOL     OW17243   4.243  10.940   5.834
 5137SOL    HW117244   4.230  10.950   5.740
 5137SOL    HW217245   4.166  10.891   5.864
 5138SOL     OW17246   2.090   1.594  13.291
 5138SOL    HW117247   2.093   1.502  13.315
 5138SOL    HW217248   2.181   1.624  13.299
 5139SOL     OW17249   1.322  10.385   0.320
 5139SOL    HW117250   1.296  10.476   0.337
 5139SOL    HW217251   1.391  10.392   0.254
 5140SOL     OW17252   9.305   8.023   9.658
 5140SOL    HW117253   9.384   8.005   9.708
 5140SOL    HW217254   9.333   8.086   9.591
 5141SOL     OW17255   4.398   6.014   2.572
 5141SOL    HW117256   4.363   5.980   2.654
 5141SOL    HW217257   4.449   5.942   2.536
 5142SOL     OW17258  12.130   9.844   8.977
 5142SOL    HW117259  12.055   9.847   9.036
 5142SOL    HW217260  12.149   9.751   8.967
 5143SOL     OW17261  12.916  12.515  14.475
 5143SOL    HW117262  12.907  12.543  14.566
 5143SOL    HW217263  12.919  12.420  14.479
 5144SOL     OW17264   9.096  10.482   9.319
 5144SOL    HW117265   9.095  10.499   9.413
 5144SOL    HW217266   9.014  10.436   9.302
 5145SOL     OW17267   1.221   0.345  14.274
 5145SOL    HW117268   1.292   0.363  14.213
 5145SOL    HW217269   1.172   0.274  14.234
 5146SOL     OW17270  11.888  14.435   5.051
 5146SOL    HW117271  11.815  14.381   5.080
 5146SOL    HW217272  11.961  14.408   5.107
 5147SOL     OW17273   2.059   9.750   3.831
 5147SOL    HW117274   2.141   9.792   3.854
 5147SOL    HW217275   2.053   9.759   3.736
 5148SOL     OW17276  11.752   6.639   7.412
 5148SOL    HW117277  11.658   6.640   7.391
 5148SOL    HW217278  11.767   6.554   7.453
 5149SOL     OW17279   5.395  10.120   4.527
 5149SOL    HW117280   5.325  10.173   4.489
 5149SOL    HW217281   5.413  10.053   4.461
 5150SOL     OW17282   8.373   4.806   8.186
 5150SOL    HW117283   8.335   4.798   8.099
 5150SOL    HW217284   8.454   4.855   8.173
 5151SOL     OW17285   9.900   6.741  11.087
 5151SOL    HW117286   9.969   6.674  11.085
 5151SOL    HW217287   9.895   6.767  11.179
 5152SOL     OW17288   7.658   6.530   4.688
 5152SOL    HW117289   7.649   6.600   4.623
 5152SOL    HW217290   7.624   6.569   4.769
 5153SOL     OW17291  10.311   4.851  10.455
 5153SOL    HW117292  10.262   4.813  10.528
 5153SOL    HW217293  10.381   4.788  10.438
 5154SOL     OW17294   5.376   6.936   2.765
 5154SOL    HW117295   5.308   6.942   2.832
 5154SOL    HW217296   5.443   6.880   2.804
 5155SOL     OW17297  12.711   2.342   5.701
 5155SOL    HW117298  12.744   2.426   5.668
 5155SOL    HW217299  12.691   2.291   5.622
 5156SOL     OW17300  13.028  13.604   7.669
 5156SOL    HW117301  12.983  13.686   7.647
 5156SOL    HW217302  13.104  13.602   7.612
 5157SOL     OW17303  11.633   4.408   3.853
 5157SOL    HW117304  11.539   4.390   3.851
 5157SOL    HW217305  11.656   4.411   3.946
 5158SOL     OW17306   3.000   5.388   9.168
 5158SOL    HW117307   2.948   5.340   9.232
 5158SOL    HW217308   3.043   5.320   9.116
 5159SOL     OW17309   0.674   9.498   0.622
 5159SOL    HW117310   0.722   9.511   0.703
 5159SOL    HW217311   0.582   9.512   0.646
 5160SOL     OW17312  14.858   8.423   0.855
 5160SOL    HW117313   0.004   8.515   0.846
 5160SOL    HW217314  14.762   8.425   0.858
 5161SOL     OW17315   7.855   5.019   3.972
 5161SOL    HW117316   7.846   4.991   4.063
 5161SOL    HW217317   7.899   5.104   3.977
 5162SOL     OW17318   0.239  12.239  10.366
 5162SOL    HW117319   0.260  12.197  10.282
 5162SOL    HW217320   0.150  12.211  10.386
 5163SOL     OW17321   0.720   0.669  11.534
 5163SOL    HW117322   0.732   0.725  11.610
 5163SOL    HW217323   0.625   0.654  11.529
 5164SOL     OW17324   7.093   9.055  14.213
 5164SOL    HW117325   7.116   8.983  14.154
 5164SOL    HW217326   7.122   9.027  14.299
 5165SOL     OW17327   1.825   7.951   9.619
 5165SOL    HW117328   1.880   7.955   9.697
 5165SOL    HW217329   1.780   8.035   9.617
 5166SOL     OW17330   7.817   6.839  11.967
 5166SOL    HW117331   7.845   6.894  12.040
 5166SOL    HW217332   7.786   6.900  11.900
 5167SOL     OW17333   0.529   8.958  13.542
 5167SOL    HW117334   0.483   9.031  13.584
 5167SOL    HW217335   0.576   8.915  13.614
 5168SOL     OW17336   8.014  13.478   5.225
 5168SOL    HW117337   7.973  13.561   5.249
 5168SOL    HW217338   8.016  13.479   5.129
 5169SOL     OW17339   6.368   4.062   8.579
 5169SOL    HW117340   6.432   4.086   8.646
 5169SOL    HW217341   6.287   4.046   8.628
 5170SOL     OW17342   8.427   4.533  13.996
 5170SOL    HW117343   8.480   4.471  14.046
 5170SOL    HW217344   8.347   4.486  13.975
 5171SOL     OW17345   8.440   0.741   6.012
 5171SOL    HW117346   8.495   0.673   6.050
 5171SOL    HW217347   8.353   0.725   6.049
 5172SOL     OW17348   7.717   8.096  14.362
 5172SOL    HW117349   7.721   8.011  14.407
 5172SOL    HW217350   7.793   8.096  14.304
 5173SOL     OW17351   1.945  11.712  11.225
 5173SOL    HW117352   2.019  11.772  11.228
 5173SOL    HW217353   1.930  11.686  11.316
 5174SOL     OW17354  12.499   7.135  12.105
 5174SOL    HW117355  12.516   7.046  12.076
 5174SOL    HW217356  12.547   7.143  12.188
 5175SOL     OW17357   3.898   7.131   2.020
 5175SOL    HW117358   3.929   7.141   1.930
 5175SOL    HW217359   3.848   7.050   2.020
 5176SOL     OW17360   3.940  11.508   0.045
 5176SOL    HW117361   3.908  11.447  14.858
 5176SOL    HW217362   3.988  11.574  14.874
 5177SOL     OW17363  10.748  11.133   4.641
 5177SOL    HW117364  10.731  11.130   4.546
 5177SOL    HW217365  10.722  11.046   4.672
 5178SOL     OW17366  12.452   3.507  11.670
 5178SOL    HW117367  12.391   3.544  11.734
 5178SOL    HW217368  12.530   3.484  11.721
 5179SOL     OW17369   0.544   0.243  13.519
 5179SOL    HW117370   0.509   0.329  13.540
 5179SOL    HW217371   0.592   0.217  13.598
 5180SOL     OW17372  13.310  10.225  14.795
 5180SOL    HW117373  13.341  10.315  14.783
 5180SOL    HW217374  13.270  10.202  14.711
 5181SOL     OW17375  13.847   6.455   4.647
 5181SOL    HW117376  13.794   6.504   4.710
 5181SOL    HW217377  13.786   6.437   4.575
 5182SOL     OW17378   9.203   8.921   5.080
 5182SOL    HW117379   9.278   8.887   5.128
 5182SOL    HW217380   9.239   8.954   4.998
 5183SOL     OW17381   8.094   3.069  10.696
 5183SOL    HW117382   8.044   2.988  10.706
 5183SOL    HW217383   8.124   3.089  10.785
 5184SOL     OW17384   5.634  11.102   9.347
 5184SOL    HW117385   5.718  11.058   9.354
 5184SOL    HW217386   5.650  11.174   9.286
 5185SOL     OW17387  14.659   0.737   8.039
 5185SOL    HW117388  14.575   0.758   7.999
 5185SOL    HW217389  14.662   0.642   8.041
 5186SOL     OW17390   2.279   8.043  11.299
 5186SOL    HW117391   2.205   8.086  11.256
 5186SOL    HW217392   2.288   7.959  11.254
 5187SOL     OW17393  11.451   3.174   8.824
 5187SOL    HW117394  11.397   3.203   8.750
 5187SOL    HW217395  11.540   3.194   8.797
 5188SOL     OW17396   4.183   8.859  10.073
 5188SOL    HW117397   4.213   8.826  10.158
 5188SOL    HW217398   4.088   8.872  10.085
 5189SOL     OW17399   8.746   7.788   1.669
 5189SOL    HW117400   8.793   7.747   1.597
 5189SOL    HW217401   8.814   7.836   1.717
 5190SOL     OW17402   2.200   1.208  12.325
 5190SOL    HW117403   2.118   1.226  12.280
 5190SOL    HW217404   2.204   1.113  12.331
 5191SOL     OW17405  11.917   8.880   0.958
 5191SOL    HW117406  11.992   8.929   0.993
 5191SOL    HW217407  11.954   8.799   0.924
 5192SOL     OW17408  13.740   0.770  12.412
 5192SOL    HW117409  13.654   0.753  12.450
 5192SOL    HW217410  13.784   0.685  12.413
 5193SOL     OW17411   5.249   7.309   7.075
 5193SOL    HW117412   5.259   7.393   7.120
 5193SOL    HW217413   5.216   7.332   6.988
 5194SOL     OW17414  11.262  10.047   0.910
 5194SOL    HW117415  11.184   9.996   0.932
 5194SOL    HW217416  11.311   9.991   0.849
 5195SOL     OW17417   9.117  13.634   6.515
 5195SOL    HW117418   9.046  13.697   6.501
 5195SOL    HW217419   9.163  13.632   6.432
 5196SOL     OW17420   6.993   3.233   8.870
 5196SOL    HW117421   7.072   3.179   8.863
 5196SOL    HW217422   6.966   3.223   8.961
 5197SOL     OW17423  12.913   2.961  11.952
 5197SOL    HW117424  12.970   2.900  11.906
 5197SOL    HW217425  12.948   2.963  12.042
 5198SOL     OW17426  14.510  12.747   8.133
 5198SOL    HW117427  14.530  12.827   8.085
 5198SOL    HW217428  14.440  12.706   8.081
 5199SOL     OW17429   2.962  10.559   4.359
 5199SOL    HW117430   3.012  10.480   4.340
 5199SOL    HW217431   2.877  10.544   4.316
 5200SOL     OW17432  11.057   5.831  14.440
 5200SOL    HW117433  11.048   5.764  14.373
 5200SOL    HW217434  11.098   5.785  14.514
 5201SOL     OW17435   4.768   7.960  14.767
 5201SOL    HW117436   4.711   8.022  14.722
 5201SOL    HW217437   4.708   7.901  14.813
 5202SOL     OW17438   7.239   3.364   3.013
 5202SOL    HW117439   7.175   3.424   2.976
 5202SOL    HW217440   7.275   3.317   2.937
 5203SOL     OW17441   6.087  12.022   2.097
 5203SOL    HW117442   6.135  12.059   2.170
 5203SOL    HW217443   6.069  11.932   2.123
 5204SOL     OW17444   3.481  13.018   6.086
 5204SOL    HW117445   3.571  13.011   6.053
 5204SOL    HW217446   3.437  12.941   6.051
 5205SOL     OW17447  10.399   4.192  10.233
 5205SOL    HW117448  10.470   4.186  10.297
 5205SOL    HW217449  10.385   4.286  10.221
 5206SOL     OW17450   9.398   9.537   6.533
 5206SOL    HW117451   9.426   9.548   6.624
 5206SOL    HW217452   9.474   9.564   6.481
 5207SOL     OW17453   0.319  13.933  13.820
 5207SOL    HW117454   0.253  13.926  13.751
 5207SOL    HW217455   0.397  13.891  13.784
 5208SOL     OW17456   6.876   0.973   1.327
 5208SOL    HW117457   6.784   0.949   1.334
 5208SOL    HW217458   6.923   0.897   1.361
 5209SOL     OW17459  13.835  11.864   9.460
 5209SOL    HW117460  13.782  11.933   9.419
 5209SOL    HW217461  13.800  11.858   9.549
 5210SOL     OW17462  10.344   6.193   1.191
 5210SOL    HW117463  10.263   6.215   1.145
 5210SOL    HW217464  10.406   6.261   1.165
 5211SOL     OW17465  14.850   2.052   6.939
 5211SOL    HW117466  14.833   1.966   6.977
 5211SOL    HW217467   0.023   2.034   6.860
 5212SOL     OW17468   9.736   8.491   7.384
 5212SOL    HW117469   9.753   8.534   7.468
 5212SOL    HW217470   9.668   8.426   7.404
 5213SOL     OW17471   6.523   3.104   8.195
 5213SOL    HW117472   6.488   3.062   8.117
 5213SOL    HW217473   6.613   3.074   8.200
 5214SOL     OW17474   5.204  14.341   5.669
 5214SOL    HW117475   5.167  14.360   5.755
 5214SOL    HW217476   5.175  14.252   5.649
 5215SOL     OW17477   2.202   0.463   5.883
 5215SOL    HW117478   2.258   0.450   5.959
 5215SOL    HW217479   2.127   0.406   5.897
 5216SOL     OW17480   8.376  11.115   8.930
 5216SOL    HW117481   8.444  11.165   8.974
 5216SOL    HW217482   8.296  11.164   8.946
 5217SOL     OW17483   4.421   4.761   2.242
 5217SOL    HW117484   4.372   4.813   2.306
 5217SOL    HW217485   4.513   4.773   2.267
 5218SOL     OW17486  14.268  13.613  12.174
 5218SOL    HW117487  14.189  13.599  12.226
 5218SOL    HW217488  14.317  13.532  12.183
 5219SOL     OW17489  12.825  13.714   6.279
 5219SOL    HW117490  12.914  13.689   6.305
 5219SOL    HW217491  12.784  13.633   6.250
 5220SOL     OW17492   3.424  13.459  14.203
 5220SOL    HW117493   3.466  13.444  14.118
 5220SOL    HW217494   3.332  13.471  14.182
 5221SOL     OW17495   2.475   3.225  10.846
 5221SOL    HW117496   2.559   3.244  10.888
 5221SOL    HW217497   2.437   3.154  10.898
 5222SOL     OW17498   6.272   9.030   7.280
 5222SOL    HW117499   6.270   8.935   7.288
 5222SOL    HW217500   6.305   9.061   7.364
 5223SOL     OW17501   4.601   6.697   1.701
 5223SOL    HW117502   4.604   6.737   1.788
 5223SOL    HW217503   4.537   6.626   1.709
 5224SOL     OW17504   1.091   8.725  10.042
 5224SOL    HW117505   1.073   8.707  10.134
 5224SOL    HW217506   1.115   8.818  10.040
 5225SOL     OW17507  13.877   4.814   0.778
 5225SOL    HW117508  13.784   4.807   0.759
 5225SOL    HW217509  13.920   4.801   0.694
 5226SOL     OW17510   6.874   0.162   6.967
 5226SOL    HW117511   6.853   0.137   6.877
 5226SOL    HW217512   6.834   0.249   6.978
 5227SOL     OW17513  11.177  11.190  12.442
 5227SOL    HW117514  11.182  11.285  12.442
 5227SOL    HW217515  11.086  11.170  12.467
 5228SOL     OW17516  14.679  12.261   0.077
 5228SOL    HW117517  14.660  12.273   0.170
 5228SOL    HW217518  14.667  12.348   0.038
 5229SOL     OW17519  14.503   3.645   2.481
 5229SOL    HW117520  14.531   3.722   2.531
 5229SOL    HW217521  14.544   3.657   2.395
 5230SOL     OW17522   6.580   1.878   6.232
 5230SOL    HW117523   6.564   1.804   6.174
 5230SOL    HW217524   6.652   1.849   6.288
 5231SOL     OW17525   4.056   3.148   3.492
 5231SOL    HW117526   4.132   3.172   3.440
 5231SOL    HW217527   4.061   3.052   3.499
 5232SOL     OW17528   2.329   8.735  12.383
 5232SOL    HW117529   2.273   8.679  12.329
 5232SOL    HW217530   2.287   8.736  12.469
 5233SOL     OW17531  14.461   6.806  12.059
 5233SOL    HW117532  14.406   6.824  11.983
 5233SOL    HW217533  14.550   6.803  12.024
 5234SOL     OW17534   9.117  12.322   6.355
 5234SOL    HW117535   9.099  12.295   6.264
 5234SOL    HW217536   9.042  12.290   6.404
 5235SOL     OW17537  10.269  14.218  12.166
 5235SOL    HW117538  10.241  14.133  12.133
 5235SOL    HW217539  10.365  14.216  12.159
 5236SOL     OW17540  12.669   6.628  12.138
 5236SOL    HW117541  12.584   6.599  12.172
 5236SOL    HW217542  12.660   6.621  12.043
 5237SOL     OW17543  11.114  13.560   6.951
 5237SOL    HW117544  11.042  13.580   6.891
 5237SOL    HW217545  11.110  13.466   6.963
 5238SOL     OW17546   3.804   3.010   7.866
 5238SOL    HW117547   3.892   3.003   7.903
 5238SOL    HW217548   3.811   2.967   7.781
 5239SOL     OW17549  12.846  11.158   0.025
 5239SOL    HW117550  12.814  11.104   0.097
 5239SOL    HW217551  12.886  11.096  14.843
 5240SOL     OW17552   0.199   1.406   3.016
 5240SOL    HW117553   0.269   1.350   3.048
 5240SOL    HW217554   0.140   1.347   2.969
 5241SOL     OW17555  11.162   5.179   6.033
 5241SOL    HW117556  11.236   5.124   6.005
 5241SOL    HW217557  11.175   5.191   6.127
 5242SOL     OW17558  13.129  11.432  10.272
 5242SOL    HW117559  13.112  11.432  10.178
 5242SOL    HW217560  13.159  11.521  10.290
 5243SOL     OW17561   6.685   0.083   6.305
 5243SOL    HW117562   6.662   0.045   6.220
 5243SOL    HW217563   6.601   0.108   6.343
 5244SOL     OW17564   8.395   6.810   4.762
 5244SOL    HW117565   8.480   6.820   4.805
 5244SOL    HW217566   8.415   6.808   4.668
 5245SOL     OW17567   8.705   7.525   9.504
 5245SOL    HW117568   8.770   7.582   9.545
 5245SOL    HW217569   8.646   7.500   9.575
 5246SOL     OW17570  14.453   1.515   2.974
 5246SOL    HW117571  14.365   1.521   3.012
 5246SOL    HW217572  14.448   1.569   2.895
 5247SOL     OW17573  14.841   9.104  11.628
 5247SOL    HW117574   0.029   9.168  11.651
 5247SOL    HW217575  14.876   9.021  11.661
 5248SOL     OW17576   1.318   4.875   4.342
 5248SOL    HW117577   1.274   4.932   4.406
 5248SOL    HW217578   1.390   4.836   4.391
 5249SOL     OW17579   2.726   6.621   2.174
 5249SOL    HW117580   2.669   6.596   2.247
 5249SOL    HW217581   2.762   6.706   2.199
 5250SOL     OW17582   8.986   5.326  14.205
 5250SOL    HW117583   9.056   5.391  14.200
 5250SOL    HW217584   9.011   5.268  14.276
 5251SOL     OW17585  11.594   8.940  13.622
 5251SOL    HW117586  11.568   9.013  13.678
 5251SOL    HW217587  11.611   8.868  13.683
 5252SOL     OW17588   9.202   0.211   7.106
 5252SOL    HW117589   9.126   0.267   7.125
 5252SOL    HW217590   9.207   0.151   7.180
 5253SOL     OW17591   8.101  11.745   2.702
 5253SOL    HW117592   8.108  11.779   2.613
 5253SOL    HW217593   8.088  11.651   2.691
 5254SOL     OW17594  10.557   2.046   3.076
 5254SOL    HW117595  10.625   2.037   3.142
 5254SOL    HW217596  10.537   1.957   3.048
 5255SOL     OW17597   1.272   7.195  14.339
 5255SOL    HW117598   1.310   7.281  14.352
 5255SOL    HW217599   1.257   7.189  14.245
 5256SOL     OW17600   5.905  13.224   5.375
 5256SOL    HW117601   5.848  13.238   5.451
 5256SOL    HW217602   5.869  13.282   5.308
 5257SOL     OW17603   4.509   8.933  14.769
 5257SOL    HW117604   4.587   8.878  14.775
 5257SOL    HW217605   4.436   8.873  14.780
 5258SOL     OW17606  13.099   5.969   4.617
 5258SOL    HW117607  13.094   6.026   4.694
 5258SOL    HW217608  13.016   5.982   4.572
 5259SOL     OW17609   0.811   9.205   4.691
 5259SOL    HW117610   0.875   9.173   4.755
 5259SOL    HW217611   0.863   9.247   4.623
 5260SOL     OW17612   7.418   3.353  10.350
 5260SOL    HW117613   7.375   3.277  10.311
 5260SOL    HW217614   7.390   3.427  10.297
 5261SOL     OW17615   7.760   5.601   3.366
 5261SOL    HW117616   7.717   5.681   3.338
 5261SOL    HW217617   7.832   5.631   3.422
 5262SOL     OW17618   4.747   6.547   4.543
 5262SOL    HW117619   4.812   6.617   4.548
 5262SOL    HW217620   4.675   6.577   4.599
 5263SOL     OW17621   9.764   8.258   2.882
 5263SOL    HW117622   9.694   8.262   2.946
 5263SOL    HW217623   9.841   8.293   2.927
 5264SOL     OW17624   0.600  12.349   5.421
 5264SOL    HW117625   0.602  12.295   5.500
 5264SOL    HW217626   0.584  12.438   5.453
 5265SOL     OW17627  12.905   1.587   0.118
 5265SOL    HW117628  12.816   1.599   0.152
 5265SOL    HW217629  12.961   1.604   0.193
 5266SOL     OW17630   3.786   0.309  11.896
 5266SOL    HW117631   3.729   0.241  11.932
 5266SOL    HW217632   3.738   0.343  11.820
 5267SOL     OW17633   3.112   2.940   7.227
 5267SOL    HW117634   3.051   3.007   7.197
 5267SOL    HW217635   3.073   2.857   7.199
 5268SOL     OW17636  10.654   6.069   0.297
 5268SOL    HW117637  10.690   6.113   0.374
 5268SOL    HW217638  10.706   6.102   0.224
 5269SOL     OW17639   6.100   8.265   2.712
 5269SOL    HW117640   6.174   8.225   2.666
 5269SOL    HW217641   6.138   8.337   2.761
 5270SOL     OW17642   5.671  13.697  14.324
 5270SOL    HW117643   5.718  13.643  14.387
 5270SOL    HW217644   5.726  13.774  14.311
 5271SOL     OW17645  12.343   0.205  14.808
 5271SOL    HW117646  12.373   0.118  14.831
 5271SOL    HW217647  12.368   0.260   0.004
 5272SOL     OW17648  13.988   5.434   3.313
 5272SOL    HW117649  13.947   5.405   3.232
 5272SOL    HW217650  14.069   5.383   3.319
 5273SOL     OW17651   9.042   9.472  10.057
 5273SOL    HW117652   9.019   9.431  10.141
 5273SOL    HW217653   8.983   9.431   9.994
 5274SOL     OW17654   0.364   3.032   9.238
 5274SOL    HW117655   0.385   2.999   9.325
 5274SOL    HW217656   0.396   3.122   9.237
 5275SOL     OW17657   1.200  11.072  13.792
 5275SOL    HW117658   1.141  11.072  13.867
 5275SOL    HW217659   1.238  10.984  13.791
 5276SOL     OW17660   2.086  14.222   1.420
 5276SOL    HW117661   2.153  14.289   1.409
 5276SOL    HW217662   2.026  14.236   1.346
 5277SOL     OW17663  13.348   1.914  10.884
 5277SOL    HW117664  13.314   1.946  10.800
 5277SOL    HW217665  13.409   1.982  10.912
 5278SOL     OW17666   6.893   0.340  10.115
 5278SOL    HW117667   6.939   0.409  10.163
 5278SOL    HW217668   6.934   0.340  10.029
 5279SOL     OW17669   2.036  14.408   8.197
 5279SOL    HW117670   2.122  14.404   8.239
 5279SOL    HW217671   1.981  14.453   8.261
 5280SOL     OW17672   8.137  14.477   4.251
 5280SOL    HW117673   8.056  14.503   4.207
 5280SOL    HW217674   8.124  14.384   4.270
 5281SOL     OW17675   0.614   7.140   2.530
 5281SOL    HW117676   0.542   7.199   2.553
 5281SOL    HW217677   0.600   7.120   2.438
 5282SOL     OW17678   3.403  10.725   2.916
 5282SOL    HW117679   3.340  10.665   2.957
 5282SOL    HW217680   3.458  10.668   2.862
 5283SOL     OW17681  11.377   2.730   4.521
 5283SOL    HW117682  11.420   2.776   4.449
 5283SOL    HW217683  11.332   2.656   4.479
 5284SOL     OW17684   7.585   8.056   5.980
 5284SOL    HW117685   7.614   8.124   5.919
 5284SOL    HW217686   7.526   8.102   6.041
 5285SOL     OW17687   1.804   9.049   8.565
 5285SOL    HW117688   1.767   9.122   8.614
 5285SOL    HW217689   1.810   8.977   8.628
 5286SOL     OW17690   6.816   2.211  13.799
 5286SOL    HW117691   6.885   2.277  13.807
 5286SOL    HW217692   6.754   2.233  13.868
 5287SOL     OW17693   8.320   0.972   7.218
 5287SOL    HW117694   8.290   0.881   7.213
 5287SOL    HW217695   8.349   0.982   7.309
 5288SOL     OW17696  12.327   4.045   8.673
 5288SOL    HW117697  12.237   4.021   8.652
 5288SOL    HW217698  12.324   4.077   8.763
 5289SOL     OW17699   4.157  10.227   5.011
 5289SOL    HW117700   4.208  10.220   5.092
 5289SOL    HW217701   4.209  10.284   4.955
 5290SOL     OW17702   2.790  11.124  12.122
 5290SOL    HW117703   2.753  11.042  12.090
 5290SOL    HW217704   2.867  11.138  12.067
 5291SOL     OW17705  13.147  10.131   6.629
 5291SOL    HW117706  13.239  10.147   6.608
 5291SOL    HW217707  13.134  10.038   6.610
 5292SOL     OW17708   6.930   4.209  10.980
 5292SOL    HW117709   6.899   4.119  10.992
 5292SOL    HW217710   7.000   4.219  11.045
 5293SOL     OW17711   4.428   3.377  12.922
 5293SOL    HW117712   4.370   3.449  12.946
 5293SOL    HW217713   4.375   3.322  12.865
 5294SOL     OW17714   5.915   3.707  13.914
 5294SOL    HW117715   5.884   3.630  13.962
 5294SOL    HW217716   5.929   3.774  13.981
 5295SOL     OW17717  10.763   8.456   4.829
 5295SOL    HW117718  10.780   8.550   4.823
 5295SOL    HW217719  10.752   8.441   4.923
 5296SOL     OW17720   8.724   2.320   1.875
 5296SOL    HW117721   8.685   2.346   1.958
 5296SOL    HW217722   8.817   2.309   1.894
 5297SOL     OW17723   6.294  12.280   7.423
 5297SOL    HW117724   6.326  12.275   7.333
 5297SOL    HW217725   6.309  12.371   7.449
 5298SOL     OW17726   9.698   5.464   0.136
 5298SOL    HW117727   9.742   5.446   0.220
 5298SOL    HW217728   9.668   5.555   0.145
 5299SOL     OW17729   4.657  10.336  11.642
 5299SOL    HW117730   4.716  10.411  11.640
 5299SOL    HW217731   4.697  10.272  11.583
 5300SOL     OW17732   1.769   3.801   7.129
 5300SOL    HW117733   1.816   3.760   7.056
 5300SOL    HW217734   1.820   3.878   7.151
 5301SOL     OW17735   0.529  13.739   4.990
 5301SOL    HW117736   0.534  13.834   4.998
 5301SOL    HW217737   0.594  13.707   5.053
 5302SOL     OW17738  12.083   8.020   0.526
 5302SOL    HW117739  12.142   7.944   0.531
 5302SOL    HW217740  11.995   7.982   0.525
 5303SOL     OW17741   4.090   6.718  11.062
 5303SOL    HW117742   4.111   6.775  10.988
 5303SOL    HW217743   4.091   6.630  11.026
 5304SOL     OW17744  13.507   9.336   1.216
 5304SOL    HW117745  13.498   9.242   1.204
 5304SOL    HW217746  13.572   9.363   1.150
 5305SOL     OW17747   7.803  10.263  13.936
 5305SOL    HW117748   7.876  10.266  13.874
 5305SOL    HW217749   7.826  10.193  13.997
 5306SOL     OW17750  11.734   3.164   8.780
 5306SOL    HW117751  11.819   3.122   8.766
 5306SOL    HW217752  11.727   3.171   8.875
 5307SOL     OW17753   1.432   7.681  11.169
 5307SOL    HW117754   1.445   7.770  11.136
 5307SOL    HW217755   1.338   7.665  11.157
 5308SOL     OW17756   8.485   9.453   2.969
 5308SOL    HW117757   8.556   9.498   2.923
 5308SOL    HW217758   8.425   9.524   2.994
 5309SOL     OW17759  12.859   6.393   9.275
 5309SOL    HW117760  12.864   6.399   9.180
 5309SOL    HW217761  12.811   6.311   9.291
 5310SOL     OW17762   7.183   1.251  14.326
 5310SOL    HW117763   7.156   1.159  14.318
 5310SOL    HW217764   7.276   1.248  14.345
 5311SOL     OW17765   7.903   0.803   3.674
 5311SOL    HW117766   7.997   0.812   3.691
 5311SOL    HW217767   7.873   0.892   3.656
 5312SOL     OW17768  10.829   0.789   7.475
 5312SOL    HW117769  10.796   0.872   7.510
 5312SOL    HW217770  10.894   0.815   7.410
 5313SOL     OW17771   7.764   5.589  14.257
 5313SOL    HW117772   7.733   5.498  14.255
 5313SOL    HW217773   7.858   5.582  14.270
 5314SOL     OW17774   6.369   5.007   8.995
 5314SOL    HW117775   6.342   4.925   8.956
 5314SOL    HW217776   6.341   5.002   9.086
 5315SOL     OW17777  11.883  10.223   4.589
 5315SOL    HW117778  11.899  10.153   4.653
 5315SOL    HW217779  11.798  10.201   4.551
 5316SOL     OW17780  14.416   7.584   0.411
 5316SOL    HW117781  14.496   7.610   0.366
 5316SOL    HW217782  14.418   7.488   0.409
 5317SOL     OW17783   7.606   3.873  12.465
 5317SOL    HW117784   7.641   3.925  12.537
 5317SOL    HW217785   7.514   3.859  12.487
 5318SOL     OW17786  10.044   7.109   8.331
 5318SOL    HW117787   9.958   7.145   8.309
 5318SOL    HW217788  10.090   7.181   8.373
 5319SOL     OW17789  11.553  10.079   8.697
 5319SOL    HW117790  11.609  10.054   8.625
 5319SOL    HW217791  11.552  10.175   8.694
 5320SOL     OW17792   9.923  14.081   6.362
 5320SOL    HW117793   9.839  14.112   6.331
 5320SOL    HW217794   9.936  14.125   6.446
 5321SOL     OW17795   3.851   5.003   0.169
 5321SOL    HW117796   3.946   5.002   0.169
 5321SOL    HW217797   3.826   4.925   0.218
 5322SOL     OW17798  10.121  11.461  14.621
 5322SOL    HW117799  10.114  11.533  14.685
 5322SOL    HW217800  10.049  11.478  14.559
 5323SOL     OW17801   4.942   5.625  12.830
 5323SOL    HW117802   4.904   5.673  12.756
 5323SOL    HW217803   4.914   5.535  12.816
 5324SOL     OW17804  11.046   5.147  12.237
 5324SOL    HW117805  11.125   5.133  12.184
 5324SOL    HW217806  10.973   5.132  12.177
 5325SOL     OW17807  14.783  14.242  12.050
 5325SOL    HW117808  14.850  14.194  12.099
 5325SOL    HW217809  14.831  14.280  11.976
 5326SOL     OW17810  12.866  10.088   9.007
 5326SOL    HW117811  12.776  10.118   9.015
 5326SOL    HW217812  12.918  10.168   9.001
 5327SOL     OW17813   8.587   7.558   3.106
 5327SOL    HW117814   8.560   7.625   3.043
 5327SOL    HW217815   8.551   7.476   3.072
 5328SOL     OW17816   3.103  11.880   1.175
 5328SOL    HW117817   3.194  11.883   1.146
 5328SOL    HW217818   3.085  11.968   1.208
 5329SOL     OW17819   3.480   8.064  13.542
 5329SOL    HW117820   3.518   8.010  13.611
 5329SOL    HW217821   3.417   8.120  13.588
 5330SOL     OW17822  13.264  10.677   8.090
 5330SOL    HW117823  13.237  10.647   8.003
 5330SOL    HW217824  13.183  10.705   8.132
 5331SOL     OW17825   6.425   6.313   3.955
 5331SOL    HW117826   6.419   6.397   3.909
 5331SOL    HW217827   6.340   6.302   3.997
 5332SOL     OW17828  11.904   7.906   8.130
 5332SOL    HW117829  11.866   7.840   8.188
 5332SOL    HW217830  11.954   7.856   8.065
 5333SOL     OW17831  14.845   6.920   8.695
 5333SOL    HW117832   0.012   6.978   8.634
 5333SOL    HW217833   0.035   6.870   8.739
 5334SOL     OW17834   5.168  14.770  13.083
 5334SOL    HW117835   5.200  14.808  13.000
 5334SOL    HW217836   5.081  14.738  13.062
 5335SOL     OW17837   4.253   6.119  11.625
 5335SOL    HW117838   4.254   6.104  11.530
 5335SOL    HW217839   4.161   6.134  11.646
 5336SOL     OW17840  12.394   5.721   4.776
 5336SOL    HW117841  12.405   5.779   4.851
 5336SOL    HW217842  12.302   5.728   4.754
 5337SOL     OW17843  13.622   9.634   6.426
 5337SOL    HW117844  13.569   9.713   6.437
 5337SOL    HW217845  13.666   9.622   6.510
 5338SOL     OW17846   3.156   8.906   0.566
 5338SOL    HW117847   3.209   8.834   0.531
 5338SOL    HW217848   3.086   8.861   0.615
 5339SOL     OW17849   9.953   8.467  11.238
 5339SOL    HW117850  10.017   8.402  11.267
 5339SOL    HW217851  10.004   8.548  11.228
 5340SOL     OW17852  10.236   4.400   6.703
 5340SOL    HW117853  10.186   4.345   6.764
 5340SOL    HW217854  10.307   4.344   6.672
 5341SOL     OW17855  12.022   6.282   7.212
 5341SOL    HW117856  11.942   6.278   7.161
 5341SOL    HW217857  12.092   6.289   7.147
 5342SOL     OW17858  13.092   7.422   0.959
 5342SOL    HW117859  13.133   7.475   0.890
 5342SOL    HW217860  13.033   7.363   0.913
 5343SOL     OW17861   5.770  13.913   3.890
 5343SOL    HW117862   5.682  13.930   3.858
 5343SOL    HW217863   5.758  13.857   3.966
 5344SOL     OW17864   6.828   1.458   3.993
 5344SOL    HW117865   6.910   1.499   4.022
 5344SOL    HW217866   6.813   1.492   3.905
 5345SOL     OW17867   9.965  11.934   3.580
 5345SOL    HW117868  10.054  11.948   3.548
 5345SOL    HW217869   9.956  11.839   3.584
 5346SOL     OW17870   8.356   9.091   1.002
 5346SOL    HW117871   8.298   9.033   0.954
 5346SOL    HW217872   8.298   9.140   1.060
 5347SOL     OW17873   6.598  14.220   8.086
 5347SOL    HW117874   6.640  14.177   8.011
 5347SOL    HW217875   6.622  14.313   8.076
 5348SOL     OW17876  14.810   1.187   4.656
 5348SOL    HW117877  14.825   1.142   4.739
 5348SOL    HW217878  14.876   1.151   4.597
 5349SOL     OW17879   3.878  13.086  12.013
 5349SOL    HW117880   3.885  13.167  11.962
 5349SOL    HW217881   3.794  13.048  11.986
 5350SOL     OW17882   4.607   1.037  11.297
 5350SOL    HW117883   4.547   0.986  11.243
 5350SOL    HW217884   4.553   1.106  11.335
 5351SOL     OW17885   5.615   0.577   2.413
 5351SOL    HW117886   5.673   0.600   2.486
 5351SOL    HW217887   5.583   0.661   2.380
 5352SOL     OW17888   6.627   2.007  10.773
 5352SOL    HW117889   6.722   2.006  10.788
 5352SOL    HW217890   6.600   2.095  10.800
 5353SOL     OW17891   9.681   3.116   5.280
 5353SOL    HW117892   9.756   3.150   5.328
 5353SOL    HW217893   9.707   3.028   5.252
 5354SOL     OW17894  10.360   4.157   3.327
 5354SOL    HW117895  10.323   4.071   3.304
 5354SOL    HW217896  10.423   4.138   3.396
 5355SOL     OW17897  11.577   0.606   4.487
 5355SOL    HW117898  11.579   0.695   4.452
 5355SOL    HW217899  11.504   0.608   4.549
 5356SOL     OW17900   1.952  10.097   0.269
 5356SOL    HW117901   1.926  10.008   0.293
 5356SOL    HW217902   2.047  10.096   0.270
 5357SOL     OW17903   5.710   9.921   9.104
 5357SOL    HW117904   5.680   9.966   9.025
 5357SOL    HW217905   5.647   9.947   9.172
 5358SOL     OW17906  13.902   7.667   2.541
 5358SOL    HW117907  13.973   7.615   2.578
 5358SOL    HW217908  13.862   7.610   2.475
 5359SOL     OW17909  11.393   4.788   2.339
 5359SOL    HW117910  11.445   4.868   2.336
 5359SOL    HW217911  11.347   4.786   2.255
 5360SOL     OW17912   7.224  11.001   1.300
 5360SOL    HW117913   7.216  10.999   1.395
 5360SOL    HW217914   7.297  10.943   1.280
 5361SOL     OW17915   9.644  10.873  13.831
 5361SOL    HW117916   9.687  10.826  13.760
 5361SOL    HW217917   9.678  10.963  13.825
 5362SOL     OW17918   3.146   5.123  12.870
 5362SOL    HW117919   3.060   5.160  12.885
 5362SOL    HW217920   3.202   5.162  12.937
 5363SOL     OW17921   4.115   2.809   0.542
 5363SOL    HW117922   4.187   2.768   0.494
 5363SOL    HW217923   4.155   2.840   0.623
 5364SOL     OW17924  11.950   0.884   7.365
 5364SOL    HW117925  11.930   0.969   7.403
 5364SOL    HW217926  12.020   0.901   7.302
 5365SOL     OW17927  11.756  14.642  13.423
 5365SOL    HW117928  11.758  14.669  13.331
 5365SOL    HW217929  11.752  14.724  13.472
 5366SOL     OW17930  10.384   6.125   6.886
 5366SOL    HW117931  10.434   6.202   6.860
 5366SOL    HW217932  10.372   6.075   6.805
 5367SOL     OW17933   7.092   7.757   8.076
 5367SOL    HW117934   7.138   7.799   8.148
 5367SOL    HW217935   7.035   7.693   8.117
 5368SOL     OW17936  11.986   1.870   4.173
 5368SOL    HW117937  12.077   1.858   4.199
 5368SOL    HW217938  11.984   1.849   4.079
 5369SOL     OW17939  12.835   2.140  11.795
 5369SOL    HW117940  12.840   2.051  11.831
 5369SOL    HW217941  12.920   2.180  11.817
 5370SOL     OW17942  11.431  12.856   9.952
 5370SOL    HW117943  11.360  12.804   9.990
 5370SOL    HW217944  11.388  12.934   9.916
 5371SOL     OW17945  10.795   4.380   9.862
 5371SOL    HW117946  10.795   4.423   9.948
 5371SOL    HW217947  10.767   4.448   9.801
 5372SOL     OW17948   3.315   7.357   2.141
 5372SOL    HW117949   3.300   7.299   2.067
 5372SOL    HW217950   3.295   7.444   2.108
 5373SOL     OW17951   4.043   4.193  10.062
 5373SOL    HW117952   4.084   4.109  10.043
 5373SOL    HW217953   4.073   4.216  10.150
 5374SOL     OW17954   6.104   8.618  13.382
 5374SOL    HW117955   6.082   8.710  13.394
 5374SOL    HW217956   6.053   8.591  13.306
 5375SOL     OW17957   6.676   6.221   6.456
 5375SOL    HW117958   6.731   6.162   6.406
 5375SOL    HW217959   6.635   6.166   6.523
 5376SOL     OW17960  12.883   1.242  10.357
 5376SOL    HW117961  12.902   1.216  10.448
 5376SOL    HW217962  12.900   1.336  10.355
 5377SOL     OW17963  14.720   4.486   8.627
 5377SOL    HW117964  14.662   4.424   8.672
 5377SOL    HW217965  14.800   4.436   8.612
 5378SOL     OW17966   4.219  14.557  13.040
 5378SOL    HW117967   4.187  14.582  12.953
 5378SOL    HW217968   4.314  14.547  13.029
 5379SOL     OW17969   7.591   9.717  13.075
 5379SOL    HW117970   7.543   9.699  13.156
 5379SOL    HW217971   7.559   9.802  13.046
 5380SOL     OW17972   1.470  10.141   4.842
 5380SOL    HW117973   1.521  10.204   4.791
 5380SOL    HW217974   1.535  10.095   4.895
 5381SOL     OW17975   8.316  12.654   8.698
 5381SOL    HW117976   8.260  12.698   8.762
 5381SOL    HW217977   8.344  12.574   8.743
 5382SOL     OW17978   5.071   8.364   2.093
 5382SOL    HW117979   5.065   8.294   2.028
 5382SOL    HW217980   5.008   8.340   2.161
 5383SOL     OW17981   3.184  11.083   7.746
 5383SOL    HW117982   3.175  11.175   7.772
 5383SOL    HW217983   3.264  11.082   7.693
 5384SOL     OW17984   6.529   9.981  11.970
 5384SOL    HW117985   6.450   9.930  11.951
 5384SOL    HW217986   6.496  10.061  12.012
 5385SOL     OW17987  14.648   2.974  11.532
 5385SOL    HW117988  14.738   2.949  11.551
 5385SOL    HW217989  14.646   2.984  11.437
 5386SOL     OW17990  13.925   8.627  12.129
 5386SOL    HW117991  13.865   8.564  12.090
 5386SOL    HW217992  13.966   8.580  12.202
 5387SOL     OW17993   6.390   3.443  13.419
 5387SOL    HW117994   6.396   3.526  13.372
 5387SOL    HW217995   6.315   3.453  13.477
 5388SOL     OW17996   4.619   0.136  13.713
 5388SOL    HW117997   4.555   0.202  13.741
 5388SOL    HW217998   4.693   0.148  13.772
 5389SOL     OW17999   7.168   6.856  14.877
 5389SOL    HW118000   7.214   6.799   0.060
 5389SOL    HW218001   7.178   6.944   0.035
 5390SOL     OW18002   1.221   9.273  10.554
 5390SOL    HW118003   1.162   9.224  10.496
 5390SOL    HW218004   1.216   9.227  10.637
 5391SOL     OW18005  10.781  10.954   3.456
 5391SOL    HW118006  10.843  10.920   3.391
 5391SOL    HW218007  10.785  10.890   3.528
 5392SOL     OW18008  10.869   4.625   9.226
 5392SOL    HW118009  10.922   4.704   9.235
 5392SOL    HW218010  10.805   4.647   9.158
 5393SOL     OW18011  13.725  13.617   7.119
 5393SOL    HW118012  13.766  13.535   7.149
 5393SOL    HW218013  13.769  13.637   7.037
 5394SOL     OW18014   4.329   8.568   8.516
 5394SOL    HW118015   4.233   8.568   8.521
 5394SOL    HW218016   4.354   8.654   8.550
 5395SOL     OW18017   8.947  13.004   1.754
 5395SOL    HW118018   8.991  12.946   1.816
 5395SOL    HW218019   8.862  13.021   1.793
 5396SOL     OW18020   4.840   3.562   2.836
 5396SOL    HW118021   4.755   3.518   2.837
 5396SOL    HW218022   4.837   3.616   2.757
 5397SOL     OW18023  11.807   7.268   2.228
 5397SOL    HW118024  11.713   7.289   2.230
 5397SOL    HW218025  11.821   7.218   2.309
 5398SOL     OW18026  11.999  13.780  11.632
 5398SOL    HW118027  12.083  13.794  11.588
 5398SOL    HW218028  12.022  13.749  11.719
 5399SOL     OW18029   7.434  11.821   9.322
 5399SOL    HW118030   7.374  11.806   9.395
 5399SOL    HW218031   7.505  11.874   9.360
 5400SOL     OW18032   2.916   5.379   7.229
 5400SOL    HW118033   2.827   5.409   7.208
 5400SOL    HW218034   2.956   5.361   7.144
 5401SOL     OW18035   1.096  10.940  14.248
 5401SOL    HW118036   1.155  10.867  14.227
 5401SOL    HW218037   1.088  10.937  14.343
 5402SOL     OW18038   0.270   6.636   5.701
 5402SOL    HW118039   0.300   6.575   5.634
 5402SOL    HW218040   0.203   6.688   5.658
 5403SOL     OW18041   6.133   8.892   2.339
 5403SOL    HW118042   6.117   8.801   2.362
 5403SOL    HW218043   6.086   8.904   2.256
 5404SOL     OW18044  10.530  11.724  10.875
 5404SOL    HW118045  10.434  11.718  10.874
 5404SOL    HW218046  10.548  11.798  10.933
 5405SOL     OW18047   7.412   5.517   1.364
 5405SOL    HW118048   7.398   5.476   1.450
 5405SOL    HW218049   7.329   5.561   1.345
 5406SOL     OW18050  13.664  12.996   7.484
 5406SOL    HW118051  13.748  13.043   7.476
 5406SOL    HW218052  13.635  12.984   7.393
 5407SOL     OW18053   0.875  11.583  13.884
 5407SOL    HW118054   0.878  11.494  13.849
 5407SOL    HW218055   0.782  11.600  13.899
 5408SOL     OW18056  14.360   0.967   6.078
 5408SOL    HW118057  14.295   0.969   6.148
 5408SOL    HW218058  14.339   0.888   6.028
 5409SOL     OW18059  14.279   1.770   9.922
 5409SOL    HW118060  14.234   1.700   9.875
 5409SOL    HW218061  14.238   1.771  10.008
 5410SOL     OW18062   4.001  12.349   7.311
 5410SOL    HW118063   4.065  12.386   7.372
 5410SOL    HW218064   3.945  12.423   7.286
 5411SOL     OW18065   0.682   2.855  12.637
 5411SOL    HW118066   0.622   2.794  12.594
 5411SOL    HW218067   0.625   2.917  12.683
 5412SOL     OW18068  11.412   0.767   9.048
 5412SOL    HW118069  11.348   0.764   9.120
 5412SOL    HW218070  11.361   0.750   8.969
 5413SOL     OW18071   3.818  13.125   2.151
 5413SOL    HW118072   3.889  13.113   2.088
 5413SOL    HW218073   3.749  13.067   2.120
 5414SOL     OW18074   7.734  13.438  12.409
 5414SOL    HW118075   7.814  13.446  12.357
 5414SOL    HW218076   7.755  13.481  12.492
 5415SOL     OW18077  12.702  13.352   5.089
 5415SOL    HW118078  12.686  13.410   5.014
 5415SOL    HW218079  12.780  13.302   5.065
 5416SOL     OW18080   2.962  10.766   0.105
 5416SOL    HW118081   2.917  10.703   0.161
 5416SOL    HW218082   2.893  10.821   0.070
 5417SOL     OW18083   8.823  12.815   8.518
 5417SOL    HW118084   8.852  12.730   8.550
 5417SOL    HW218085   8.858  12.878   8.581
 5418SOL     OW18086   8.123  11.938   0.035
 5418SOL    HW118087   8.040  11.891   0.034
 5418SOL    HW218088   8.181  11.883   0.087
 5419SOL     OW18089   0.125   2.222   0.569
 5419SOL    HW118090   0.207   2.248   0.527
 5419SOL    HW218091   0.112   2.286   0.638
 5420SOL     OW18092   0.606   5.559   0.789
 5420SOL    HW118093   0.526   5.513   0.814
 5420SOL    HW218094   0.604   5.560   0.693
 5421SOL     OW18095   8.558   4.134   4.236
 5421SOL    HW118096   8.626   4.075   4.269
 5421SOL    HW218097   8.602   4.218   4.228
 5422SOL     OW18098  14.004   0.328   8.463
 5422SOL    HW118099  13.922   0.278   8.461
 5422SOL    HW218100  14.010   0.361   8.553
 5423SOL     OW18101   1.994  10.359   8.325
 5423SOL    HW118102   2.014  10.295   8.393
 5423SOL    HW218103   2.021  10.443   8.362
 5424SOL     OW18104   2.036   2.525   3.755
 5424SOL    HW118105   2.126   2.554   3.769
 5424SOL    HW218106   1.982   2.592   3.796
 5425SOL     OW18107   1.913   0.285  12.425
 5425SOL    HW118108   1.893   0.273  12.332
 5425SOL    HW218109   1.869   0.212  12.468
 5426SOL     OW18110  13.072  12.144  10.653
 5426SOL    HW118111  13.038  12.170  10.567
 5426SOL    HW218112  13.144  12.205  10.670
 5427SOL     OW18113  12.333   8.948   8.853
 5427SOL    HW118114  12.250   8.943   8.804
 5427SOL    HW218115  12.327   9.031   8.900
 5428SOL     OW18116  12.275   4.907  13.898
 5428SOL    HW118117  12.249   4.897  13.807
 5428SOL    HW218118  12.285   5.002  13.910
 5429SOL     OW18119  11.987   7.511  11.435
 5429SOL    HW118120  12.006   7.567  11.510
 5429SOL    HW218121  11.955   7.429  11.474
 5430SOL     OW18122   2.205   9.730   4.589
 5430SOL    HW118123   2.261   9.715   4.665
 5430SOL    HW218124   2.233   9.664   4.525
 5431SOL     OW18125  13.540   5.472   8.634
 5431SOL    HW118126  13.610   5.504   8.578
 5431SOL    HW218127  13.469   5.451   8.574
 5432SOL     OW18128   8.517   1.789  13.604
 5432SOL    HW118129   8.460   1.721  13.567
 5432SOL    HW218130   8.606   1.756  13.592
 5433SOL     OW18131   7.558  11.344  10.926
 5433SOL    HW118132   7.627  11.375  10.984
 5433SOL    HW218133   7.477  11.374  10.967
 5434SOL     OW18134   8.332  14.158   7.668
 5434SOL    HW118135   8.337  14.065   7.645
 5434SOL    HW218136   8.380  14.165   7.750
 5435SOL     OW18137   3.877   2.415  12.767
 5435SOL    HW118138   3.946   2.412  12.701
 5435SOL    HW218139   3.882   2.329  12.810
 5436SOL     OW18140   4.612   7.896  12.000
 5436SOL    HW118141   4.619   7.905  12.095
 5436SOL    HW218142   4.702   7.879  11.972
 5437SOL     OW18143   3.811   5.402   6.542
 5437SOL    HW118144   3.798   5.348   6.620
 5437SOL    HW218145   3.886   5.457   6.564
 5438SOL     OW18146   7.967   3.359   5.709
 5438SOL    HW118147   7.888   3.306   5.699
 5438SOL    HW218148   7.938   3.448   5.689
 5439SOL     OW18149   5.108   5.739   6.465
 5439SOL    HW118150   5.067   5.775   6.544
 5439SOL    HW218151   5.158   5.664   6.497
 5440SOL     OW18152   4.518   1.362  13.435
 5440SOL    HW118153   4.574   1.316  13.372
 5440SOL    HW218154   4.481   1.292  13.489
 5441SOL     OW18155   1.565   0.409  13.820
 5441SOL    HW118156   1.471   0.399  13.836
 5441SOL    HW218157   1.578   0.503  13.811
 5442SOL     OW18158   4.616  12.758   2.484
 5442SOL    HW118159   4.577  12.761   2.397
 5442SOL    HW218160   4.620  12.665   2.505
 5443SOL     OW18161   6.920   1.153   2.940
 5443SOL    HW118162   6.985   1.137   3.008
 5443SOL    HW218163   6.868   1.227   2.973
 5444SOL     OW18164   2.691  11.160  11.125
 5444SOL    HW118165   2.765  11.212  11.093
 5444SOL    HW218166   2.698  11.077  11.078
 5445SOL     OW18167   6.457  10.089   8.205
 5445SOL    HW118168   6.548  10.099   8.175
 5445SOL    HW218169   6.465  10.044   8.289
 5446SOL     OW18170  12.278  11.194   9.517
 5446SOL    HW118171  12.230  11.113   9.497
 5446SOL    HW218172  12.210  11.260   9.530
 5447SOL     OW18173   0.542  12.626  10.589
 5447SOL    HW118174   0.552  12.610  10.495
 5447SOL    HW218175   0.617  12.583  10.629
 5448SOL     OW18176   7.700  14.574   1.253
 5448SOL    HW118177   7.628  14.634   1.274
 5448SOL    HW218178   7.744  14.559   1.337
 5449SOL     OW18179  11.203   6.626  10.519
 5449SOL    HW118180  11.120   6.667  10.546
 5449SOL    HW218181  11.185   6.592  10.431
 5450SOL     OW18182  11.106   7.890   6.937
 5450SOL    HW118183  11.201   7.894   6.947
 5450SOL    HW218184  11.071   7.919   7.022
 5451SOL     OW18185   8.279  13.211   0.456
 5451SOL    HW118186   8.232  13.133   0.427
 5451SOL    HW218187   8.282  13.267   0.379
 5452SOL     OW18188   5.521  11.313   0.742
 5452SOL    HW118189   5.524  11.274   0.655
 5452SOL    HW218190   5.551  11.403   0.728
 5453SOL     OW18191  12.344   0.423   0.550
 5453SOL    HW118192  12.315   0.346   0.501
 5453SOL    HW218193  12.278   0.434   0.619
 5454SOL     OW18194   6.409  10.136  13.185
 5454SOL    HW118195   6.358  10.055  13.184
 5454SOL    HW218196   6.350  10.203  13.152
 5455SOL     OW18197   3.988   1.793  14.619
 5455SOL    HW118198   3.975   1.812  14.526
 5455SOL    HW218199   3.903   1.811  14.659
 5456SOL     OW18200   8.711   5.089   8.939
 5456SOL    HW118201   8.780   5.023   8.926
 5456SOL    HW218202   8.713   5.141   8.858
 5457SOL     OW18203  12.534   2.507  14.683
 5457SOL    HW118204  12.447   2.517  14.722
 5457SOL    HW218205  12.579   2.589  14.702
 5458SOL     OW18206   9.114  10.991  12.529
 5458SOL    HW118207   9.069  10.912  12.499
 5458SOL    HW218208   9.160  10.964  12.608
 5459SOL     OW18209  14.383  10.758   1.093
 5459SOL    HW118210  14.440  10.813   1.146
 5459SOL    HW218211  14.294  10.784   1.117
 5460SOL     OW18212   5.172  10.025   5.325
 5460SOL    HW118213   5.162  10.116   5.296
 5460SOL    HW218214   5.246   9.993   5.274
 5461SOL     OW18215   0.679  12.398   0.127
 5461SOL    HW118216   0.600  12.382   0.179
 5461SOL    HW218217   0.716  12.478   0.164
 5462SOL     OW18218  12.646  12.051  14.505
 5462SOL    HW118219  12.586  12.057  14.579
 5462SOL    HW218220  12.682  11.963  14.511
 5463SOL     OW18221   8.294   0.167   2.771
 5463SOL    HW118222   8.362   0.170   2.704
 5463SOL    HW218223   8.341   0.164   2.854
 5464SOL     OW18224   1.443  11.057  12.517
 5464SOL    HW118225   1.450  10.987  12.581
 5464SOL    HW218226   1.354  11.091  12.526
 5465SOL     OW18227  12.925   1.102   7.409
 5465SOL    HW118228  12.861   1.136   7.472
 5465SOL    HW218229  12.956   1.180   7.362
 5466SOL     OW18230   0.371  13.320   4.708
 5466SOL    HW118231   0.386  13.382   4.780
 5466SOL    HW218232   0.330  13.245   4.750
 5467SOL     OW18233   8.949   0.355   4.639
 5467SOL    HW118234   9.006   0.362   4.562
 5467SOL    HW218235   8.894   0.280   4.620
 5468SOL     OW18236   9.401   2.967   7.264
 5468SOL    HW118237   9.428   2.893   7.209
 5468SOL    HW218238   9.400   3.042   7.205
 5469SOL     OW18239  13.083   9.257   4.885
 5469SOL    HW118240  13.093   9.294   4.797
 5469SOL    HW218241  13.103   9.331   4.944
 5470SOL     OW18242   5.925   3.265   2.329
 5470SOL    HW118243   5.877   3.201   2.275
 5470SOL    HW218244   5.866   3.284   2.401
 5471SOL     OW18245   9.164   6.959   6.670
 5471SOL    HW118246   9.154   6.868   6.644
 5471SOL    HW218247   9.156   6.958   6.766
 5472SOL     OW18248   7.128   2.867   8.522
 5472SOL    HW118249   7.040   2.869   8.559
 5472SOL    HW218250   7.186   2.874   8.598
 5473SOL     OW18251  11.059   1.564  10.319
 5473SOL    HW118252  11.107   1.626  10.264
 5473SOL    HW218253  11.092   1.580  10.407
 5474SOL     OW18254   8.129  12.319   8.773
 5474SOL    HW118255   8.179  12.265   8.712
 5474SOL    HW218256   8.081  12.256   8.827
 5475SOL     OW18257   5.979   1.493  14.440
 5475SOL    HW118258   5.969   1.578  14.485
 5475SOL    HW218259   5.993   1.430  14.511
 5476SOL     OW18260   5.055   1.461  10.851
 5476SOL    HW118261   5.004   1.428  10.778
 5476SOL    HW218262   5.012   1.426  10.929
 5477SOL     OW18263   9.500   7.193   2.941
 5477SOL    HW118264   9.507   7.281   2.903
 5477SOL    HW218265   9.426   7.153   2.896
 5478SOL     OW18266  10.338   4.814   5.493
 5478SOL    HW118267  10.278   4.872   5.446
 5478SOL    HW218268  10.282   4.748   5.533
 5479SOL     OW18269  14.216   0.564  13.783
 5479SOL    HW118270  14.224   0.596  13.693
 5479SOL    HW218271  14.132   0.517  13.784
 5480SOL     OW18272   6.689   0.555   5.782
 5480SOL    HW118273   6.625   0.623   5.802
 5480SOL    HW218274   6.764   0.603   5.745
 5481SOL     OW18275   7.096  13.365   8.319
 5481SOL    HW118276   7.091  13.350   8.225
 5481SOL    HW218277   7.113  13.279   8.356
 5482SOL     OW18278   4.626   1.746   7.216
 5482SOL    HW118279   4.634   1.700   7.133
 5482SOL    HW218280   4.638   1.838   7.194
 5483SOL     OW18281   0.108   2.383   1.537
 5483SOL    HW118282   0.110   2.289   1.522
 5483SOL    HW218283   0.041   2.397   1.604
 5484SOL     OW18284  11.708   5.595  14.787
 5484SOL    HW118285  11.624   5.611  14.745
 5484SOL    HW218286  11.694   5.622  14.878
 5485SOL     OW18287   7.712  13.823   6.584
 5485SOL    HW118288   7.638  13.795   6.529
 5485SOL    HW218289   7.748  13.742   6.619
 5486SOL     OW18290  10.167  11.421   5.319
 5486SOL    HW118291  10.250  11.423   5.271
 5486SOL    HW218292  10.192  11.422   5.411
 5487SOL     OW18293  14.305   9.592   6.718
 5487SOL    HW118294  14.285   9.534   6.644
 5487SOL    HW218295  14.285   9.540   6.796
 5488SOL     OW18296   5.492   6.019   4.859
 5488SOL    HW118297   5.444   5.943   4.893
 5488SOL    HW218298   5.582   5.988   4.848
 5489SOL     OW18299   8.991   1.081   0.562
 5489SOL    HW118300   9.059   1.118   0.619
 5489SOL    HW218301   9.013   1.112   0.474
 5490SOL     OW18302   5.575  12.571  11.856
 5490SOL    HW118303   5.646  12.624  11.820
 5490SOL    HW218304   5.605  12.546  11.943
 5491SOL     OW18305   9.845   0.049  14.454
 5491SOL    HW118306   9.806  14.868  14.390
 5491SOL    HW218307   9.779   0.055  14.524
 5492SOL     OW18308  10.442   9.280   1.095
 5492SOL    HW118309  10.487   9.326   1.024
 5492SOL    HW218310  10.442   9.343   1.167
 5493SOL     OW18311  11.083  12.677   7.569
 5493SOL    HW118312  11.159  12.718   7.610
 5493SOL    HW218313  11.079  12.589   7.607
 5494SOL     OW18314  11.443   8.465   7.832
 5494SOL    HW118315  11.426   8.415   7.752
 5494SOL    HW218316  11.366   8.521   7.843
 5495SOL     OW18317   4.208  11.515   2.863
 5495SOL    HW118318   4.266  11.488   2.791
 5495SOL    HW218319   4.199  11.610   2.852
 5496SOL     OW18320   4.391   5.527   6.377
 5496SOL    HW118321   4.319   5.490   6.428
 5496SOL    HW218322   4.467   5.475   6.402
 5497SOL     OW18323   8.474   0.421   1.893
 5497SOL    HW118324   8.416   0.373   1.952
 5497SOL    HW218325   8.468   0.374   1.810
 5498SOL     OW18326   4.730   1.844   6.814
 5498SOL    HW118327   4.718   1.771   6.874
 5498SOL    HW218328   4.720   1.922   6.868
 5499SOL     OW18329   4.173   7.650   3.500
 5499SOL    HW118330   4.081   7.652   3.526
 5499SOL    HW218331   4.216   7.715   3.555
 5500SOL     OW18332   9.340   3.034   6.014
 5500SOL    HW118333   9.361   3.038   6.107
 5500SOL    HW218334   9.371   2.948   5.986
 5501SOL     OW18335   2.218   6.433   1.854
 5501SOL    HW118336   2.229   6.407   1.763
 5501SOL    HW218337   2.287   6.387   1.901
 5502SOL     OW18338   6.657  13.685  11.055
 5502SOL    HW118339   6.575  13.734  11.055
 5502SOL    HW218340   6.719  13.742  11.009
 5503SOL     OW18341   2.894  10.667   3.402
 5503SOL    HW118342   2.803  10.697   3.396
 5503SOL    HW218343   2.930  10.683   3.315
 5504SOL     OW18344   5.140   4.476   6.759
 5504SOL    HW118345   5.069   4.521   6.714
 5504SOL    HW218346   5.110   4.470   6.850
 5505SOL     OW18347  10.067   2.914   2.201
 5505SOL    HW118348  10.018   2.902   2.120
 5505SOL    HW218349  10.086   2.826   2.231
 5506SOL     OW18350   8.594   1.565   2.264
 5506SOL    HW118351   8.547   1.610   2.334
 5506SOL    HW218352   8.671   1.620   2.248
 5507SOL     OW18353   9.124   7.996  13.321
 5507SOL    HW118354   9.144   8.069  13.263
 5507SOL    HW218355   9.142   7.918  13.269
 5508SOL     OW18356  14.756  11.606   0.477
 5508SOL    HW118357  14.669  11.641   0.459
 5508SOL    HW218358  14.743  11.547   0.552
 5509SOL     OW18359  13.642   1.682  12.361
 5509SOL    HW118360  13.712   1.619  12.344
 5509SOL    HW218361  13.687   1.765  12.377
 5510SOL     OW18362   2.201   4.545  13.068
 5510SOL    HW118363   2.151   4.614  13.022
 5510SOL    HW218364   2.151   4.528  13.147
 5511SOL     OW18365  13.201   9.428   9.255
 5511SOL    HW118366  13.181   9.512   9.295
 5511SOL    HW218367  13.183   9.440   9.162
 5512SOL     OW18368   8.914  10.735   9.948
 5512SOL    HW118369   8.835  10.681   9.947
 5512SOL    HW218370   8.957  10.713  10.031
 5513SOL     OW18371   2.806   0.289  14.093
 5513SOL    HW118372   2.833   0.206  14.133
 5513SOL    HW218373   2.846   0.288  14.006
 5514SOL     OW18374   9.122   4.495   6.269
 5514SOL    HW118375   9.084   4.411   6.296
 5514SOL    HW218376   9.047   4.548   6.243
 5515SOL     OW18377   2.542  12.721   7.563
 5515SOL    HW118378   2.604  12.699   7.632
 5515SOL    HW218379   2.486  12.789   7.602
 5516SOL     OW18380  10.522   0.373   0.978
 5516SOL    HW118381  10.491   0.403   1.064
 5516SOL    HW218382  10.604   0.420   0.964
 5517SOL     OW18383   8.653   2.260  12.639
 5517SOL    HW118384   8.661   2.288  12.730
 5517SOL    HW218385   8.573   2.301  12.609
 5518SOL     OW18386  11.502   3.875   0.049
 5518SOL    HW118387  11.575   3.863  14.868
 5518SOL    HW218388  11.499   3.793   0.099
 5519SOL     OW18389   8.824   2.828  11.134
 5519SOL    HW118390   8.813   2.783  11.050
 5519SOL    HW218391   8.736   2.830  11.172
 5520SOL     OW18392  13.020  14.335   4.623
 5520SOL    HW118393  13.085  14.383   4.675
 5520SOL    HW218394  12.966  14.403   4.582
 5521SOL     OW18395   8.792   1.280   9.760
 5521SOL    HW118396   8.802   1.318   9.673
 5521SOL    HW218397   8.806   1.187   9.747
 5522SOL     OW18398   6.520   0.811   6.730
 5522SOL    HW118399   6.483   0.740   6.678
 5522SOL    HW218400   6.504   0.786   6.821
 5523SOL     OW18401   1.264   0.215   3.101
 5523SOL    HW118402   1.309   0.298   3.087
 5523SOL    HW218403   1.174   0.230   3.072
 5524SOL     OW18404   0.091   9.777   0.935
 5524SOL    HW118405   0.142   9.748   0.859
 5524SOL    HW218406   0.133   9.734   1.010
 5525SOL     OW18407  11.592   6.040   4.328
 5525SOL    HW118408  11.619   5.978   4.395
 5525SOL    HW218409  11.498   6.024   4.316
 5526SOL     OW18410   7.853   7.373   9.238
 5526SOL    HW118411   7.781   7.422   9.278
 5526SOL    HW218412   7.814   7.334   9.159
 5527SOL     OW18413   0.138   5.302  13.192
 5527SOL    HW118414   0.116   5.214  13.224
 5527SOL    HW218415   0.201   5.286  13.121
 5528SOL     OW18416   1.638   2.750   5.541
 5528SOL    HW118417   1.660   2.726   5.631
 5528SOL    HW218418   1.675   2.837   5.529
 5529SOL     OW18419   0.443   7.044  12.987
 5529SOL    HW118420   0.513   6.981  12.968
 5529SOL    HW218421   0.362   6.997  12.968
 5530SOL     OW18422   1.605   0.700  13.775
 5530SOL    HW118423   1.671   0.731  13.713
 5530SOL    HW218424   1.525   0.693  13.722
 5531SOL     OW18425   8.634   2.430   2.834
 5531SOL    HW118426   8.659   2.365   2.901
 5531SOL    HW218427   8.632   2.513   2.881
 5532SOL     OW18428   4.667   4.544  10.471
 5532SOL    HW118429   4.578   4.518  10.496
 5532SOL    HW218430   4.701   4.470  10.422
 5533SOL     OW18431   0.271   9.779   3.227
 5533SOL    HW118432   0.268   9.806   3.319
 5533SOL    HW218433   0.335   9.708   3.225
 5534SOL     OW18434   3.993   7.653   7.117
 5534SOL    HW118435   3.947   7.673   7.036
 5534SOL    HW218436   4.010   7.739   7.157
 5535SOL     OW18437  11.563  10.650   5.598
 5535SOL    HW118438  11.628  10.595   5.641
 5535SOL    HW218439  11.609  10.731   5.577
 5536SOL     OW18440   1.999   6.887  13.721
 5536SOL    HW118441   1.975   6.808  13.672
 5536SOL    HW218442   2.028   6.854  13.806
 5537SOL     OW18443  12.583   3.014   0.247
 5537SOL    HW118444  12.505   3.069   0.251
 5537SOL    HW218445  12.622   3.033   0.162
 5538SOL     OW18446   2.254   3.735   2.143
 5538SOL    HW118447   2.243   3.740   2.238
 5538SOL    HW218448   2.241   3.643   2.123
 5539SOL     OW18449   6.440   5.424   1.994
 5539SOL    HW118450   6.373   5.356   2.003
 5539SOL    HW218451   6.396   5.505   2.019
 5540SOL     OW18452   4.013  14.674   7.164
 5540SOL    HW118453   3.970  14.690   7.248
 5540SOL    HW218454   3.943  14.644   7.106
 5541SOL     OW18455   6.619   7.555   1.891
 5541SOL    HW118456   6.559   7.481   1.879
 5541SOL    HW218457   6.573   7.630   1.852
 5542SOL     OW18458   4.194  12.450  12.271
 5542SOL    HW118459   4.243  12.488  12.198
 5542SOL    HW218460   4.109  12.494  12.269
 5543SOL     OW18461   4.250   3.087  11.421
 5543SOL    HW118462   4.208   3.136  11.350
 5543SOL    HW218463   4.235   3.141  11.499
 5544SOL     OW18464   8.972   2.195  14.283
 5544SOL    HW118465   8.990   2.253  14.357
 5544SOL    HW218466   9.016   2.113  14.305
 5545SOL     OW18467  10.698  10.724   4.525
 5545SOL    HW118468  10.616  10.772   4.519
 5545SOL    HW218469  10.733  10.746   4.611
 5546SOL     OW18470  12.640   6.102  10.732
 5546SOL    HW118471  12.668   6.073  10.646
 5546SOL    HW218472  12.544   6.097  10.729
 5547SOL     OW18473   7.304   2.807   8.773
 5547SOL    HW118474   7.382   2.793   8.720
 5547SOL    HW218475   7.322   2.887   8.822
 5548SOL     OW18476   7.307   8.434  14.729
 5548SOL    HW118477   7.382   8.455  14.784
 5548SOL    HW218478   7.231   8.458  14.782
 5549SOL     OW18479   0.750  10.628  11.609
 5549SOL    HW118480   0.745  10.714  11.652
 5549SOL    HW218481   0.828  10.587  11.647
 5550SOL     OW18482  11.497   5.037  11.689
 5550SOL    HW118483  11.497   5.114  11.746
 5550SOL    HW218484  11.589   5.011  11.684
 5551SOL     OW18485   5.836  13.871  10.640
 5551SOL    HW118486   5.828  13.784  10.677
 5551SOL    HW218487   5.774  13.872  10.567
 5552SOL     OW18488   2.993  13.940   2.649
 5552SOL    HW118489   2.985  13.987   2.732
 5552SOL    HW218490   2.943  13.859   2.663
 5553SOL     OW18491   7.241  13.600   9.451
 5553SOL    HW118492   7.298  13.563   9.517
 5553SOL    HW218493   7.298  13.653   9.395
 5554SOL     OW18494   0.288   9.730   8.529
 5554SOL    HW118495   0.313   9.768   8.445
 5554SOL    HW218496   0.254   9.804   8.580
 5555SOL     OW18497   4.381  11.058   3.476
 5555SOL    HW118498   4.382  11.083   3.569
 5555SOL    HW218499   4.306  11.000   3.468
 5556SOL     OW18500   4.185   8.941   3.190
 5556SOL    HW118501   4.275   8.971   3.203
 5556SOL    HW218502   4.184   8.908   3.101
 5557SOL     OW18503  11.476   2.708  11.818
 5557SOL    HW118504  11.451   2.680  11.730
 5557SOL    HW218505  11.443   2.639  11.875
 5558SOL     OW18506   2.627   2.367   9.409
 5558SOL    HW118507   2.648   2.307   9.480
 5558SOL    HW218508   2.540   2.340   9.379
 5559SOL     OW18509   9.137   0.852   0.083
 5559SOL    HW118510   9.116   0.941   0.055
 5559SOL    HW218511   9.172   0.809   0.005
 5560SOL     OW18512   0.314   4.639   2.853
 5560SOL    HW118513   0.338   4.585   2.928
 5560SOL    HW218514   0.337   4.728   2.879
 5561SOL     OW18515   2.092  11.909   2.063
 5561SOL    HW118516   2.146  11.987   2.079
 5561SOL    HW218517   2.072  11.875   2.150
 5562SOL     OW18518   8.983   8.657  10.229
 5562SOL    HW118519   8.940   8.729  10.183
 5562SOL    HW218520   9.074   8.661  10.199
 5563SOL     OW18521   4.931   6.797   5.447
 5563SOL    HW118522   5.016   6.823   5.484
 5563SOL    HW218523   4.951   6.721   5.392
 5564SOL     OW18524   4.877   5.564   7.705
 5564SOL    HW118525   4.809   5.514   7.750
 5564SOL    HW218526   4.881   5.647   7.753
 5565SOL     OW18527   2.121   2.033   3.018
 5565SOL    HW118528   2.123   1.996   2.930
 5565SOL    HW218529   2.186   1.982   3.067
 5566SOL     OW18530   9.825  13.888   6.994
 5566SOL    HW118531   9.757  13.910   7.057
 5566SOL    HW218532   9.781  13.889   6.909
 5567SOL     OW18533  12.046  10.679   7.125
 5567SOL    HW118534  12.070  10.767   7.097
 5567SOL    HW218535  12.026  10.689   7.218
 5568SOL     OW18536   0.371  14.570   2.640
 5568SOL    HW118537   0.325  14.652   2.658
 5568SOL    HW218538   0.329  14.536   2.562
 5569SOL     OW18539  12.758   9.145  12.719
 5569SOL    HW118540  12.695   9.157  12.648
 5569SOL    HW218541  12.825   9.212  12.702
 5570SOL     OW18542  10.835   8.564  13.116
 5570SOL    HW118543  10.891   8.540  13.043
 5570SOL    HW218544  10.875   8.522  13.192
 5571SOL     OW18545  10.899  10.398  10.080
 5571SOL    HW118546  10.948  10.361  10.153
 5571SOL    HW218547  10.962  10.453  10.034
 5572SOL     OW18548   1.903   3.134  12.434
 5572SOL    HW118549   1.860   3.049  12.448
 5572SOL    HW218550   1.909   3.143  12.339
 5573SOL     OW18551   3.954  12.021  10.244
 5573SOL    HW118552   3.882  11.958  10.249
 5573SOL    HW218553   3.980  12.020  10.152
 5574SOL     OW18554   3.091   7.622   2.995
 5574SOL    HW118555   3.020   7.585   2.943
 5574SOL    HW218556   3.169   7.576   2.965
 5575SOL     OW18557  11.438   3.094   0.129
 5575SOL    HW118558  11.466   3.005   0.109
 5575SOL    HW218559  11.496   3.150   0.078
 5576SOL     OW18560   7.973   8.103   4.352
 5576SOL    HW118561   7.905   8.036   4.352
 5576SOL    HW218562   7.990   8.120   4.445
 5577SOL     OW18563   4.947  12.215   7.890
 5577SOL    HW118564   4.983  12.137   7.847
 5577SOL    HW218565   4.857  12.193   7.910
 5578SOL     OW18566  10.941   9.796  11.492
 5578SOL    HW118567  10.977   9.814  11.579
 5578SOL    HW218568  11.010   9.821  11.432
 5579SOL     OW18569   0.292   3.383   3.582
 5579SOL    HW118570   0.273   3.301   3.627
 5579SOL    HW218571   0.337   3.356   3.502
 5580SOL     OW18572   6.929   5.257  13.275
 5580SOL    HW118573   6.975   5.236  13.356
 5580SOL    HW218574   6.836   5.256  13.299
 5581SOL     OW18575   4.835  13.855   6.903
 5581SOL    HW118576   4.821  13.949   6.909
 5581SOL    HW218577   4.828  13.835   6.810
 5582SOL     OW18578   7.331  10.693   2.824
 5582SOL    HW118579   7.316  10.746   2.903
 5582SOL    HW218580   7.403  10.738   2.779
 5583SOL     OW18581   1.884   2.439   5.266
 5583SOL    HW118582   1.949   2.509   5.268
 5583SOL    HW218583   1.911   2.382   5.195
 5584SOL     OW18584   8.748   3.968   2.365
 5584SOL    HW118585   8.774   3.933   2.280
 5584SOL    HW218586   8.825   4.013   2.397
 5585SOL     OW18587   0.353   0.568   9.959
 5585SOL    HW118588   0.296   0.498   9.990
 5585SOL    HW218589   0.300   0.617   9.896
 5586SOL     OW18590  10.334  12.562  10.439
 5586SOL    HW118591  10.393  12.556  10.363
 5586SOL    HW218592  10.363  12.493  10.498
 5587SOL     OW18593   6.870   6.697  13.661
 5587SOL    HW118594   6.870   6.697  13.756
 5587SOL    HW218595   6.931   6.767  13.637
 5588SOL     OW18596  10.482   6.590   2.555
 5588SOL    HW118597  10.388   6.580   2.541
 5588SOL    HW218598  10.517   6.613   2.469
 5589SOL     OW18599  10.190   9.394   1.672
 5589SOL    HW118600  10.281   9.397   1.701
 5589SOL    HW218601  10.153   9.320   1.720
 5590SOL     OW18602  10.719   3.516   1.420
 5590SOL    HW118603  10.655   3.573   1.377
 5590SOL    HW218604  10.687   3.428   1.405
 5591SOL     OW18605   5.442   8.040   4.395
 5591SOL    HW118606   5.367   8.059   4.339
 5591SOL    HW218607   5.409   8.057   4.484
 5592SOL     OW18608   1.481   5.267   9.487
 5592SOL    HW118609   1.519   5.327   9.422
 5592SOL    HW218610   1.401   5.311   9.517
 5593SOL     OW18611   9.372   3.952   7.451
 5593SOL    HW118612   9.431   4.023   7.476
 5593SOL    HW218613   9.426   3.873   7.453
 5594SOL     OW18614   3.634   1.782  12.818
 5594SOL    HW118615   3.725   1.809  12.829
 5594SOL    HW218616   3.621   1.779  12.723
 5595SOL     OW18617  10.752   1.119  11.143
 5595SOL    HW118618  10.771   1.202  11.100
 5595SOL    HW218619  10.838   1.083  11.164
 5596SOL     OW18620   7.376   6.477  12.674
 5596SOL    HW118621   7.376   6.566  12.639
 5596SOL    HW218622   7.333   6.425  12.607
 5597SOL     OW18623   8.955   7.791   5.035
 5597SOL    HW118624   8.979   7.754   5.120
 5597SOL    HW218625   8.887   7.855   5.055
 5598SOL     OW18626   2.081  10.660   6.318
 5598SOL    HW118627   2.134  10.646   6.397
 5598SOL    HW218628   2.029  10.580   6.310
 5599SOL     OW18629  11.427   9.871   3.631
 5599SOL    HW118630  11.362   9.919   3.683
 5599SOL    HW218631  11.379   9.840   3.555
 5600SOL     OW18632  10.210   1.378   3.403
 5600SOL    HW118633  10.275   1.314   3.431
 5600SOL    HW218634  10.197   1.435   3.478
 5601SOL     OW18635   7.283  10.991   9.204
 5601SOL    HW118636   7.358  10.955   9.252
 5601SOL    HW218637   7.317  11.070   9.162
 5602SOL     OW18638   7.280   0.779   6.559
 5602SOL    HW118639   7.373   0.798   6.543
 5602SOL    HW218640   7.275   0.684   6.561
 5603SOL     OW18641   9.382   7.887   8.235
 5603SOL    HW118642   9.375   7.957   8.300
 5603SOL    HW218643   9.304   7.897   8.181
 5604SOL     OW18644  10.229   4.839   8.609
 5604SOL    HW118645  10.275   4.853   8.526
 5604SOL    HW218646  10.147   4.797   8.585
 5605SOL     OW18647   8.549   8.438   0.708
 5605SOL    HW118648   8.643   8.446   0.693
 5605SOL    HW218649   8.537   8.465   0.799
 5606SOL     OW18650  11.983   1.052  13.133
 5606SOL    HW118651  11.944   0.974  13.173
 5606SOL    HW218652  12.069   1.022  13.102
 5607SOL     OW18653   8.578   7.032  13.879
 5607SOL    HW118654   8.560   6.956  13.935
 5607SOL    HW218655   8.499   7.044  13.827
 5608SOL     OW18656   8.129   7.842  13.492
 5608SOL    HW118657   8.134   7.934  13.466
 5608SOL    HW218658   8.035   7.822  13.491
 5609SOL     OW18659   8.387  10.995   9.197
 5609SOL    HW118660   8.410  10.902   9.194
 5609SOL    HW218661   8.388  11.023   9.106
 5610SOL     OW18662   4.007   8.496   3.702
 5610SOL    HW118663   4.026   8.436   3.629
 5610SOL    HW218664   4.045   8.580   3.675
 5611SOL     OW18665  11.775   8.345   3.623
 5611SOL    HW118666  11.829   8.422   3.644
 5611SOL    HW218667  11.747   8.359   3.533
 5612SOL     OW18668   9.586   0.535   9.740
 5612SOL    HW118669   9.599   0.451   9.783
 5612SOL    HW218670   9.621   0.522   9.652
 5613SOL     OW18671  14.505  13.817   5.691
 5613SOL    HW118672  14.456  13.899   5.692
 5613SOL    HW218673  14.484  13.775   5.775
 5614SOL     OW18674  11.580  10.018   1.479
 5614SOL    HW118675  11.664   9.976   1.461
 5614SOL    HW218676  11.597  10.076   1.553
 5615SOL     OW18677   7.286   1.608   9.829
 5615SOL    HW118678   7.283   1.553   9.751
 5615SOL    HW218679   7.296   1.546   9.902
 5616SOL     OW18680  13.517   8.680   6.817
 5616SOL    HW118681  13.593   8.715   6.771
 5616SOL    HW218682  13.554   8.615   6.877
 5617SOL     OW18683  11.158   1.363   8.418
 5617SOL    HW118684  11.213   1.288   8.441
 5617SOL    HW218685  11.070   1.336   8.441
 5618SOL     OW18686   4.016   6.766   6.371
 5618SOL    HW118687   4.047   6.681   6.401
 5618SOL    HW218688   3.932   6.749   6.330
 5619SOL     OW18689   1.518  10.899  11.654
 5619SOL    HW118690   1.594  10.919  11.599
 5619SOL    HW218691   1.510  10.804  11.650
 5620SOL     OW18692   1.900   4.074   4.648
 5620SOL    HW118693   1.943   4.001   4.604
 5620SOL    HW218694   1.901   4.050   4.741
 5621SOL     OW18695   1.069   0.756  11.683
 5621SOL    HW118696   1.045   0.673  11.643
 5621SOL    HW218697   0.986   0.797  11.706
 5622SOL     OW18698   2.966   7.132  14.381
 5622SOL    HW118699   3.038   7.069  14.386
 5622SOL    HW218700   2.896   7.084  14.335
 5623SOL     OW18701   4.216   0.613   9.555
 5623SOL    HW118702   4.301   0.632   9.515
 5623SOL    HW218703   4.164   0.577   9.483
 5624SOL     OW18704   7.032   8.054   9.140
 5624SOL    HW118705   6.977   7.977   9.124
 5624SOL    HW218706   7.062   8.045   9.230
 5625SOL     OW18707   0.820  12.462   5.745
 5625SOL    HW118708   0.899  12.488   5.792
 5625SOL    HW218709   0.838  12.373   5.714
 5626SOL     OW18710   9.968   4.656   9.515
 5626SOL    HW118711   9.950   4.699   9.432
 5626SOL    HW218712   9.913   4.703   9.579
 5627SOL     OW18713  10.691   6.645   2.742
 5627SOL    HW118714  10.618   6.630   2.681
 5627SOL    HW218715  10.708   6.560   2.781
 5628SOL     OW18716  12.016   1.960   8.967
 5628SOL    HW118717  11.928   1.938   8.938
 5628SOL    HW218718  12.057   2.003   8.892
 5629SOL     OW18719  12.900   5.633   7.805
 5629SOL    HW118720  12.842   5.671   7.739
 5629SOL    HW218721  12.854   5.556   7.836
 5630SOL     OW18722   5.836  11.054  14.311
 5630SOL    HW118723   5.795  10.967  14.310
 5630SOL    HW218724   5.763  11.114  14.323
 5631SOL     OW18725   6.363  12.851   7.612
 5631SOL    HW118726   6.368  12.939   7.575
 5631SOL    HW218727   6.395  12.860   7.702
 5632SOL     OW18728   0.611  12.500  13.374
 5632SOL    HW118729   0.656  12.584  13.378
 5632SOL    HW218730   0.654  12.452  13.303
 5633SOL     OW18731  14.020   8.912  10.841
 5633SOL    HW118732  14.105   8.956  10.838
 5633SOL    HW218733  13.985   8.921  10.753
 5634SOL     OW18734  13.777  13.807   6.413
 5634SOL    HW118735  13.706  13.839   6.468
 5634SOL    HW218736  13.739  13.800   6.325
 5635SOL     OW18737  14.519   1.974   5.629
 5635SOL    HW118738  14.510   2.055   5.679
 5635SOL    HW218739  14.597   1.932   5.665
 5636SOL     OW18740   0.886  14.849   9.695
 5636SOL    HW118741   0.908  14.764   9.733
 5636SOL    HW218742   0.793  14.843   9.673
 5637SOL     OW18743   3.015  14.795  10.060
 5637SOL    HW118744   3.031  14.711  10.017
 5637SOL    HW218745   2.920  14.796  10.076
 5638SOL     OW18746   0.577   2.973   4.266
 5638SOL    HW118747   0.535   3.050   4.304
 5638SOL    HW218748   0.626   2.934   4.338
 5639SOL     OW18749   7.503  11.397   8.213
 5639SOL    HW118750   7.568  11.377   8.146
 5639SOL    HW218751   7.440  11.455   8.170
 5640SOL     OW18752   5.548  13.971   5.452
 5640SOL    HW118753   5.555  14.063   5.476
 5640SOL    HW218754   5.533  13.972   5.357
 5641SOL     OW18755  12.043   7.378  10.467
 5641SOL    HW118756  12.001   7.413  10.546
 5641SOL    HW218757  11.992   7.301  10.444
 5642SOL     OW18758   3.475   1.751  10.907
 5642SOL    HW118759   3.540   1.809  10.947
 5642SOL    HW218760   3.392   1.777  10.947
 5643SOL     OW18761   0.496   3.239   8.441
 5643SOL    HW118762   0.464   3.323   8.406
 5643SOL    HW218763   0.465   3.237   8.531
 5644SOL     OW18764   8.850   6.668   3.361
 5644SOL    HW118765   8.838   6.574   3.344
 5644SOL    HW218766   8.761   6.702   3.366
 5645SOL     OW18767  12.315  13.753   8.689
 5645SOL    HW118768  12.360  13.836   8.700
 5645SOL    HW218769  12.247  13.754   8.757
 5646SOL     OW18770  13.562  14.097  13.343
 5646SOL    HW118771  13.504  14.173  13.330
 5646SOL    HW218772  13.613  14.119  13.421
 5647SOL     OW18773   1.727  11.740  13.388
 5647SOL    HW118774   1.692  11.826  13.367
 5647SOL    HW218775   1.690  11.681  13.323
 5648SOL     OW18776  11.333  10.636   4.757
 5648SOL    HW118777  11.287  10.680   4.686
 5648SOL    HW218778  11.390  10.573   4.712
 5649SOL     OW18779   5.338  14.801   6.381
 5649SOL    HW118780   5.279  14.856   6.331
 5649SOL    HW218781   5.425  14.818   6.344
 5650SOL     OW18782   4.694   2.540   8.417
 5650SOL    HW118783   4.663   2.458   8.457
 5650SOL    HW218784   4.761   2.572   8.478
 5651SOL     OW18785  12.329   4.821   8.130
 5651SOL    HW118786  12.254   4.813   8.070
 5651SOL    HW218787  12.294   4.793   8.215
 5652SOL     OW18788   5.517   1.792   9.696
 5652SOL    HW118789   5.466   1.771   9.618
 5652SOL    HW218790   5.598   1.830   9.661
 5653SOL     OW18791   3.532  14.240   6.492
 5653SOL    HW118792   3.456  14.289   6.459
 5653SOL    HW218793   3.494  14.167   6.540
 5654SOL     OW18794   8.225   9.999   4.455
 5654SOL    HW118795   8.212   9.980   4.548
 5654SOL    HW218796   8.202  10.092   4.447
 5655SOL     OW18797  14.322   8.953   3.351
 5655SOL    HW118798  14.284   8.866   3.338
 5655SOL    HW218799  14.249   9.006   3.384
 5656SOL     OW18800   8.074   7.387   8.657
 5656SOL    HW118801   8.045   7.436   8.734
 5656SOL    HW218802   8.105   7.454   8.596
 5657SOL     OW18803  12.052   1.675   2.148
 5657SOL    HW118804  12.039   1.707   2.059
 5657SOL    HW218805  11.966   1.641   2.174
 5658SOL     OW18806   8.943   3.510  10.997
 5658SOL    HW118807   8.917   3.557  11.077
 5658SOL    HW218808   8.904   3.561  10.926
 5659SOL     OW18809  11.047  11.027   3.561
 5659SOL    HW118810  10.977  11.053   3.621
 5659SOL    HW218811  11.024  10.938   3.534
 5660SOL     OW18812   9.215   5.680   0.483
 5660SOL    HW118813   9.259   5.690   0.399
 5660SOL    HW218814   9.239   5.758   0.532
 5661SOL     OW18815   6.002   1.644   1.847
 5661SOL    HW118816   6.001   1.550   1.866
 5661SOL    HW218817   6.084   1.676   1.885
 5662SOL     OW18818   3.906  12.172   7.611
 5662SOL    HW118819   3.866  12.196   7.527
 5662SOL    HW218820   3.992  12.137   7.587
 5663SOL     OW18821   4.805   2.865  10.658
 5663SOL    HW118822   4.756   2.880  10.739
 5663SOL    HW218823   4.886   2.823  10.686
 5664SOL     OW18824  12.312   7.308   1.469
 5664SOL    HW118825  12.344   7.379   1.413
 5664SOL    HW218826  12.372   7.235   1.452
 5665SOL     OW18827  14.849  11.837  12.184
 5665SOL    HW118828  14.782  11.890  12.226
 5665SOL    HW218829   0.034  11.821  12.254
 5666SOL     OW18830   7.678   0.782  13.603
 5666SOL    HW118831   7.763   0.738  13.611
 5666SOL    HW218832   7.692   0.847  13.534
 5667SOL     OW18833  14.622   2.494   1.971
 5667SOL    HW118834  14.677   2.461   2.041
 5667SOL    HW218835  14.592   2.580   2.002
 5668SOL     OW18836   4.966  10.288   9.938
 5668SOL    HW118837   4.951  10.379   9.914
 5668SOL    HW218838   4.986  10.243   9.856
 5669SOL     OW18839   1.369   7.668  14.700
 5669SOL    HW118840   1.353   7.712  14.617
 5669SOL    HW218841   1.457   7.696  14.725
 5670SOL     OW18842   0.587   5.930  13.665
 5670SOL    HW118843   0.611   5.878  13.589
 5670SOL    HW218844   0.598   6.021  13.636
 5671SOL     OW18845  11.220   6.410   3.033
 5671SOL    HW118846  11.125   6.402   3.029
 5671SOL    HW218847  11.252   6.365   2.955
 5672SOL     OW18848   1.029   3.934   5.311
 5672SOL    HW118849   1.026   3.923   5.216
 5672SOL    HW218850   1.103   3.879   5.339
 5673SOL     OW18851  13.910   8.898   6.438
 5673SOL    HW118852  13.896   8.927   6.528
 5673SOL    HW218853  13.870   8.966   6.384
 5674SOL     OW18854   0.179  12.542   3.146
 5674SOL    HW118855   0.116  12.491   3.197
 5674SOL    HW218856   0.239  12.477   3.110
 5675SOL     OW18857   1.120   2.942   1.368
 5675SOL    HW118858   1.079   2.856   1.360
 5675SOL    HW218859   1.076   2.996   1.302
 5676SOL     OW18860  12.716   0.206   4.330
 5676SOL    HW118861  12.754   0.293   4.324
 5676SOL    HW218862  12.679   0.189   4.243
 5677SOL     OW18863   3.495  10.447   0.995
 5677SOL    HW118864   3.558  10.423   1.063
 5677SOL    HW218865   3.535  10.523   0.952
 5678SOL     OW18866  13.363  12.561   7.380
 5678SOL    HW118867  13.317  12.545   7.463
 5678SOL    HW218868  13.387  12.473   7.350
 5679SOL     OW18869  14.208   0.994  13.308
 5679SOL    HW118870  14.200   1.046  13.388
 5679SOL    HW218871  14.143   1.033  13.248
 5680SOL     OW18872  13.808   8.368  12.038
 5680SOL    HW118873  13.887   8.315  12.030
 5680SOL    HW218874  13.775   8.373  11.948
 5681SOL     OW18875   9.230   8.803   2.904
 5681SOL    HW118876   9.290   8.786   2.830
 5681SOL    HW218877   9.221   8.898   2.906
 5682SOL     OW18878   6.896   4.954  11.972
 5682SOL    HW118879   6.803   4.960  11.991
 5682SOL    HW218880   6.919   4.864  11.996
 5683SOL     OW18881  14.074  14.698   7.181
 5683SOL    HW118882  14.066  14.674   7.274
 5683SOL    HW218883  14.026  14.781   7.174
 5684SOL     OW18884   9.053  10.200   2.175
 5684SOL    HW118885   8.989  10.212   2.245
 5684SOL    HW218886   9.116  10.271   2.188
 5685SOL     OW18887  11.030  11.357   8.276
 5685SOL    HW118888  11.053  11.265   8.293
 5685SOL    HW218889  11.102  11.406   8.315
 5686SOL     OW18890   4.607   1.108   9.436
 5686SOL    HW118891   4.512   1.099   9.440
 5686SOL    HW218892   4.627   1.174   9.503
 5687SOL     OW18893  11.932  13.934  11.281
 5687SOL    HW118894  12.013  13.884  11.297
 5687SOL    HW218895  11.912  13.975  11.365
 5688SOL     OW18896   7.044   9.026   1.228
 5688SOL    HW118897   6.978   9.024   1.297
 5688SOL    HW218898   7.111   8.964   1.258
 5689SOL     OW18899   6.788   8.361   8.891
 5689SOL    HW118900   6.721   8.429   8.886
 5689SOL    HW218901   6.855   8.389   8.827
 5690SOL     OW18902   1.188  11.378   7.058
 5690SOL    HW118903   1.102  11.415   7.078
 5690SOL    HW218904   1.248  11.452   7.065
 5691SOL     OW18905  11.893  14.459  10.915
 5691SOL    HW118906  11.809  14.413  10.914
 5691SOL    HW218907  11.958  14.390  10.928
 5692SOL     OW18908   2.202   9.473  13.788
 5692SOL    HW118909   2.113   9.467  13.823
 5692SOL    HW218910   2.245   9.540  13.841
 5693SOL     OW18911   3.016  14.449   5.079
 5693SOL    HW118912   3.029  14.531   5.031
 5693SOL    HW218913   3.105  14.416   5.093
 5694SOL     OW18914  13.569   7.410   8.955
 5694SOL    HW118915  13.477   7.387   8.965
 5694SOL    HW218916  13.607   7.397   9.042
 5695SOL     OW18917   7.723  13.351  13.342
 5695SOL    HW118918   7.654  13.344  13.276
 5695SOL    HW218919   7.688  13.303  13.417
 5696SOL     OW18920   8.731  12.907  10.083
 5696SOL    HW118921   8.696  12.842  10.022
 5696SOL    HW218922   8.711  12.872  10.170
 5697SOL     OW18923   0.616  13.091   5.420
 5697SOL    HW118924   0.552  13.071   5.352
 5697SOL    HW218925   0.609  13.019   5.482
 5698SOL     OW18926  10.591   4.772   8.541
 5698SOL    HW118927  10.682   4.767   8.511
 5698SOL    HW218928  10.544   4.709   8.487
 5699SOL     OW18929   0.507   5.742   7.754
 5699SOL    HW118930   0.554   5.785   7.826
 5699SOL    HW218931   0.565   5.751   7.678
 5700SOL     OW18932   3.545  10.017   7.308
 5700SOL    HW118933   3.551   9.993   7.401
 5700SOL    HW218934   3.452  10.036   7.294
 5701SOL     OW18935   5.646   8.375   5.831
 5701SOL    HW118936   5.742   8.372   5.826
 5701SOL    HW218937   5.616   8.344   5.746
 5702SOL     OW18938  11.584   4.360  12.855
 5702SOL    HW118939  11.565   4.393  12.943
 5702SOL    HW218940  11.621   4.435  12.809
 5703SOL     OW18941  11.050   1.720   5.433
 5703SOL    HW118942  11.139   1.745   5.460
 5703SOL    HW218943  11.039   1.762   5.347
 5704SOL     OW18944  11.487   6.581  12.651
 5704SOL    HW118945  11.510   6.545  12.737
 5704SOL    HW218946  11.470   6.674  12.667
 5705SOL     OW18947  12.891  13.031   4.789
 5705SOL    HW118948  12.916  12.945   4.824
 5705SOL    HW218949  12.948  13.093   4.834
 5706SOL     OW18950  13.813   1.501   1.283
 5706SOL    HW118951  13.834   1.415   1.319
 5706SOL    HW218952  13.890   1.525   1.231
 5707SOL     OW18953   4.816   2.268   6.283
 5707SOL    HW118954   4.910   2.254   6.276
 5707SOL    HW218955   4.787   2.205   6.350
 5708SOL     OW18956   6.742  10.950   4.971
 5708SOL    HW118957   6.749  11.036   5.012
 5708SOL    HW218958   6.668  10.908   5.014
 5709SOL     OW18959   8.601  12.970   4.928
 5709SOL    HW118960   8.511  12.978   4.959
 5709SOL    HW218961   8.654  12.976   5.008
 5710SOL     OW18962  10.064   5.166   9.982
 5710SOL    HW118963  10.044   5.230  10.051
 5710SOL    HW218964  10.153   5.186   9.955
 5711SOL     OW18965   3.939  13.705  14.477
 5711SOL    HW118966   3.943  13.634  14.542
 5711SOL    HW218967   3.907  13.780  14.527
 5712SOL     OW18968   6.884   8.020   1.398
 5712SOL    HW118969   6.901   7.929   1.376
 5712SOL    HW218970   6.919   8.069   1.323
 5713SOL     OW18971  12.411  13.241   2.723
 5713SOL    HW118972  12.343  13.295   2.683
 5713SOL    HW218973  12.385  13.233   2.815
 5714SOL     OW18974   0.964   2.797  12.712
 5714SOL    HW118975   0.883   2.819  12.667
 5714SOL    HW218976   0.948   2.711  12.750
 5715SOL     OW18977   4.184   9.822  11.281
 5715SOL    HW118978   4.223   9.833  11.368
 5715SOL    HW218979   4.254   9.784  11.227
 5716SOL     OW18980   4.001  11.254   7.647
 5716SOL    HW118981   4.047  11.323   7.696
 5716SOL    HW218982   3.925  11.299   7.609
 5717SOL     OW18983   5.856  11.872  12.838
 5717SOL    HW118984   5.880  11.949  12.787
 5717SOL    HW218985   5.916  11.873  12.913
 5718SOL     OW18986   2.947  10.427   0.768
 5718SOL    HW118987   3.038  10.418   0.796
 5718SOL    HW218988   2.897  10.374   0.829
 5719SOL     OW18989   1.649  14.342   9.969
 5719SOL    HW118990   1.616  14.252   9.968
 5719SOL    HW218991   1.738  14.335  10.005
 5720SOL     OW18992   0.534  10.761   0.571
 5720SOL    HW118993   0.584  10.823   0.624
 5720SOL    HW218994   0.478  10.716   0.633
 5721SOL     OW18995  10.225   3.129  10.423
 5721SOL    HW118996  10.206   3.222  10.428
 5721SOL    HW218997  10.144   3.086  10.451
 5722SOL     OW18998   7.035  12.572   5.309
 5722SOL    HW118999   6.992  12.520   5.376
 5722SOL    HW219000   7.001  12.661   5.322
 5723SOL     OW19001   2.897   4.285   6.984
 5723SOL    HW119002   2.969   4.257   6.926
 5723SOL    HW219003   2.862   4.203   7.018
 5724SOL     OW19004   8.677   0.273   2.678
 5724SOL    HW119005   8.725   0.342   2.632
 5724SOL    HW219006   8.614   0.240   2.614
 5725SOL     OW19007   9.200   6.284   5.983
 5725SOL    HW119008   9.204   6.273   6.078
 5725SOL    HW219009   9.106   6.279   5.963
 5726SOL     OW19010   5.806   3.260   1.629
 5726SOL    HW119011   5.713   3.285   1.636
 5726SOL    HW219012   5.819   3.198   1.700
 5727SOL     OW19013   0.246   8.296   1.343
 5727SOL    HW119014   0.224   8.322   1.253
 5727SOL    HW219015   0.177   8.336   1.397
 5728SOL     OW19016   9.263  11.564  13.590
 5728SOL    HW119017   9.313  11.600  13.518
 5728SOL    HW219018   9.328  11.532  13.652
 5729SOL     OW19019   6.789  11.602  13.295
 5729SOL    HW119020   6.810  11.564  13.209
 5729SOL    HW219021   6.873  11.635  13.327
 5730SOL     OW19022  10.131   3.128   9.680
 5730SOL    HW119023  10.150   3.220   9.698
 5730SOL    HW219024  10.040   3.128   9.650
 5731SOL     OW19025  11.032   7.350  14.530
 5731SOL    HW119026  11.033   7.365  14.625
 5731SOL    HW219027  10.943   7.319  14.511
 5732SOL     OW19028   7.462  14.624   3.454
 5732SOL    HW119029   7.477  14.535   3.486
 5732SOL    HW219030   7.387  14.616   3.395
 5733SOL     OW19031  10.496  14.113   8.825
 5733SOL    HW119032  10.495  14.137   8.732
 5733SOL    HW219033  10.554  14.037   8.829
 5734SOL     OW19034   5.004  12.931   3.284
 5734SOL    HW119035   4.929  12.952   3.339
 5734SOL    HW219036   4.966  12.896   3.204
 5735SOL     OW19037  12.342  11.268   5.902
 5735SOL    HW119038  12.375  11.357   5.919
 5735SOL    HW219039  12.283  11.250   5.975
 5736SOL     OW19040   0.995   8.649   5.320
 5736SOL    HW119041   1.088   8.626   5.315
 5736SOL    HW219042   0.964   8.642   5.230
 5737SOL     OW19043   4.076   6.822  12.635
 5737SOL    HW119044   4.034   6.749  12.680
 5737SOL    HW219045   4.151   6.844  12.690
 5738SOL     OW19046   9.672   5.885   5.337
 5738SOL    HW119047   9.674   5.936   5.418
 5738SOL    HW219048   9.621   5.939   5.277
 5739SOL     OW19049  12.748   1.250   1.582
 5739SOL    HW119050  12.793   1.241   1.666
 5739SOL    HW219051  12.817   1.244   1.516
 5740SOL     OW19052   8.977  13.449   6.070
 5740SOL    HW119053   9.013  13.410   6.150
 5740SOL    HW219054   8.883  13.429   6.074
 5741SOL     OW19055   2.377  12.639   1.533
 5741SOL    HW119056   2.417  12.697   1.598
 5741SOL    HW219057   2.439  12.567   1.524
 5742SOL     OW19058  13.667   3.820  11.669
 5742SOL    HW119059  13.600   3.759  11.636
 5742SOL    HW219060  13.717   3.846  11.592
 5743SOL     OW19061  11.216  12.876  10.696
 5743SOL    HW119062  11.133  12.840  10.665
 5743SOL    HW219063  11.200  12.900  10.787
 5744SOL     OW19064  10.660  14.247  10.832
 5744SOL    HW119065  10.571  14.226  10.802
 5744SOL    HW219066  10.709  14.263  10.751
 5745SOL     OW19067   4.115   4.492   5.739
 5745SOL    HW119068   4.024   4.520   5.728
 5745SOL    HW219069   4.148   4.484   5.649
 5746SOL     OW19070   5.649  12.225   5.168
 5746SOL    HW119071   5.674  12.317   5.176
 5746SOL    HW219072   5.675  12.185   5.251
 5747SOL     OW19073   8.321   9.501   7.002
 5747SOL    HW119074   8.287   9.468   7.085
 5747SOL    HW219075   8.244   9.505   6.945
 5748SOL     OW19076   2.687   8.850   1.641
 5748SOL    HW119077   2.725   8.764   1.662
 5748SOL    HW219078   2.762   8.909   1.636
 5749SOL     OW19079   7.992   4.470   6.575
 5749SOL    HW119080   8.050   4.418   6.631
 5749SOL    HW219081   8.028   4.559   6.579
 5750SOL     OW19082   1.515   0.015   6.486
 5750SOL    HW119083   1.476  14.844   6.415
 5750SOL    HW219084   1.608  14.873   6.482
 5751SOL     OW19085   7.699  13.772   9.411
 5751SOL    HW119086   7.705  13.866   9.431
 5751SOL    HW219087   7.677  13.731   9.495
 5752SOL     OW19088  10.518   7.004  12.156
 5752SOL    HW119089  10.487   7.093  12.137
 5752SOL    HW219090  10.591   6.990  12.096
 5753SOL     OW19091   6.175  11.146   7.270
 5753SOL    HW119092   6.253  11.193   7.302
 5753SOL    HW219093   6.144  11.098   7.347
 5754SOL     OW19094   8.852   7.929   7.995
 5754SOL    HW119095   8.766   7.970   7.989
 5754SOL    HW219096   8.839   7.855   8.054
 5755SOL     OW19097   5.984   6.542  13.610
 5755SOL    HW119098   5.918   6.544  13.679
 5755SOL    HW219099   5.938   6.508  13.533
 5756SOL     OW19100   8.479   5.394  11.562
 5756SOL    HW119101   8.529   5.473  11.542
 5756SOL    HW219102   8.388   5.417  11.542
 5757SOL     OW19103   3.802   2.097   8.909
 5757SOL    HW119104   3.717   2.085   8.868
 5757SOL    HW219105   3.795   2.053   8.994
 5758SOL     OW19106  13.261  11.093   8.018
 5758SOL    HW119107  13.184  11.039   8.037
 5758SOL    HW219108  13.331  11.030   8.002
 5759SOL     OW19109   4.695   6.103  12.700
 5759SOL    HW119110   4.731   6.099  12.788
 5759SOL    HW219111   4.771   6.117  12.643
 5760SOL     OW19112  10.487   3.608   5.059
 5760SOL    HW119113  10.462   3.641   4.972
 5760SOL    HW219114  10.494   3.687   5.113
 5761SOL     OW19115   6.215   2.587  10.831
 5761SOL    HW119116   6.143   2.649  10.826
 5761SOL    HW219117   6.192   2.528  10.903
 5762SOL     OW19118   7.579   5.090   6.103
 5762SOL    HW119119   7.643   5.094   6.173
 5762SOL    HW219120   7.506   5.039   6.139
 5763SOL     OW19121   7.097  12.475   0.803
 5763SOL    HW119122   7.012  12.477   0.846
 5763SOL    HW219123   7.081  12.512   0.716
 5764SOL     OW19124   1.601   7.222  14.439
 5764SOL    HW119125   1.549   7.261  14.370
 5764SOL    HW219126   1.667   7.169  14.392
 5765SOL     OW19127  13.877  11.877   0.670
 5765SOL    HW119128  13.830  11.917   0.596
 5765SOL    HW219129  13.955  11.839   0.630
 5766SOL     OW19130  10.780   0.407   0.946
 5766SOL    HW119131  10.851   0.461   0.912
 5766SOL    HW219132  10.822   0.349   1.009
 5767SOL     OW19133  11.844   2.789   5.439
 5767SOL    HW119134  11.791   2.845   5.495
 5767SOL    HW219135  11.855   2.839   5.358
 5768SOL     OW19136   8.028  12.039  12.218
 5768SOL    HW119137   8.022  12.095  12.295
 5768SOL    HW219138   8.016  12.098  12.144
 5769SOL     OW19139   3.195   1.536   4.830
 5769SOL    HW119140   3.186   1.446   4.861
 5769SOL    HW219141   3.105   1.564   4.811
 5770SOL     OW19142   9.473   1.168   6.062
 5770SOL    HW119143   9.519   1.242   6.103
 5770SOL    HW219144   9.531   1.141   5.991
 5771SOL     OW19145   6.364   8.185  11.044
 5771SOL    HW119146   6.325   8.194  10.957
 5771SOL    HW219147   6.289   8.183  11.104
 5772SOL     OW19148   6.436   1.252   3.546
 5772SOL    HW119149   6.386   1.182   3.587
 5772SOL    HW219150   6.509   1.208   3.504
 5773SOL     OW19151   2.982  13.723   0.861
 5773SOL    HW119152   3.060  13.777   0.872
 5773SOL    HW219153   3.016  13.638   0.833
 5774SOL     OW19154   0.165   2.548   0.205
 5774SOL    HW119155   0.153   2.639   0.230
 5774SOL    HW219156   0.229   2.514   0.267
 5775SOL     OW19157   0.702  12.432  11.811
 5775SOL    HW119158   0.664  12.449  11.897
 5775SOL    HW219159   0.763  12.360  11.825
 5776SOL     OW19160  13.859  11.774   4.924
 5776SOL    HW119161  13.948  11.756   4.954
 5776SOL    HW219162  13.840  11.702   4.863
 5777SOL     OW19163   1.564   1.589   8.647
 5777SOL    HW119164   1.612   1.645   8.707
 5777SOL    HW219165   1.532   1.517   8.701
 5778SOL     OW19166  11.550   7.840   2.311
 5778SOL    HW119167  11.464   7.858   2.348
 5778SOL    HW219168  11.543   7.865   2.219
 5779SOL     OW19169   2.759  12.189   7.393
 5779SOL    HW119170   2.690  12.224   7.337
 5779SOL    HW219171   2.799  12.119   7.341
 5780SOL     OW19172  10.752  12.164  12.618
 5780SOL    HW119173  10.684  12.225  12.589
 5780SOL    HW219174  10.831  12.192  12.572
 5781SOL     OW19175   9.741   0.888   0.346
 5781SOL    HW119176   9.685   0.960   0.375
 5781SOL    HW219177   9.795   0.867   0.422
 5782SOL     OW19178  12.957   9.028  12.434
 5782SOL    HW119179  13.018   8.961  12.466
 5782SOL    HW219180  12.870   8.992  12.455
 5783SOL     OW19181  14.379   4.517   2.562
 5783SOL    HW119182  14.437   4.557   2.499
 5783SOL    HW219183  14.437   4.474   2.625
 5784SOL     OW19184   5.493   8.240  14.241
 5784SOL    HW119185   5.496   8.232  14.145
 5784SOL    HW219186   5.455   8.326  14.256
 5785SOL     OW19187   9.815  10.176   9.627
 5785SOL    HW119188   9.852  10.213   9.547
 5785SOL    HW219189   9.745  10.117   9.597
 5786SOL     OW19190   6.825   6.888  11.063
 5786SOL    HW119191   6.818   6.895  11.159
 5786SOL    HW219192   6.902   6.833  11.049
 5787SOL     OW19193  11.679   6.297   8.139
 5787SOL    HW119194  11.709   6.209   8.161
 5787SOL    HW219195  11.651   6.292   8.048
 5788SOL     OW19196   8.947   9.460   5.644
 5788SOL    HW119197   8.897   9.471   5.725
 5788SOL    HW219198   8.955   9.365   5.634
 5789SOL     OW19199   1.025   5.878   6.727
 5789SOL    HW119200   1.102   5.908   6.774
 5789SOL    HW219201   1.043   5.786   6.706
 5790SOL     OW19202   6.315  13.460   0.641
 5790SOL    HW119203   6.282  13.509   0.566
 5790SOL    HW219204   6.335  13.373   0.606
 5791SOL     OW19205   2.218  10.945   1.183
 5791SOL    HW119206   2.142  10.928   1.127
 5791SOL    HW219207   2.181  10.971   1.267
 5792SOL     OW19208  14.868   2.613  10.436
 5792SOL    HW119209   0.076   2.609  10.397
 5792SOL    HW219210  14.808   2.618  10.361
 5793SOL     OW19211  13.033  14.030   4.700
 5793SOL    HW119212  12.976  14.045   4.775
 5793SOL    HW219213  13.039  14.115   4.657
 5794SOL     OW19214  10.756   7.819   1.285
 5794SOL    HW119215  10.766   7.874   1.208
 5794SOL    HW219216  10.669   7.840   1.319
 5795SOL     OW19217  14.530  13.674   9.596
 5795SOL    HW119218  14.489  13.635   9.519
 5795SOL    HW219219  14.618  13.696   9.566
 5796SOL     OW19220   9.126   0.697   1.024
 5796SOL    HW119221   9.034   0.723   1.033
 5796SOL    HW219222   9.158   0.691   1.114
 5797SOL     OW19223   1.362  10.320   1.442
 5797SOL    HW119224   1.419  10.386   1.403
 5797SOL    HW219225   1.275  10.360   1.442
 5798SOL     OW19226  12.691  11.621   4.967
 5798SOL    HW119227  12.775  11.631   5.012
 5798SOL    HW219228  12.699  11.536   4.923
 5799SOL     OW19229   8.271   6.410   3.925
 5799SOL    HW119230   8.259   6.504   3.939
 5799SOL    HW219231   8.186   6.379   3.894
 5800SOL     OW19232   3.628   2.635   9.572
 5800SOL    HW119233   3.534   2.636   9.591
 5800SOL    HW219234   3.669   2.654   9.656
 5801SOL     OW19235  13.645   1.805   6.767
 5801SOL    HW119236  13.565   1.790   6.817
 5801SOL    HW219237  13.678   1.889   6.799
 5802SOL     OW19238   5.598   4.708  11.977
 5802SOL    HW119239   5.657   4.640  12.010
 5802SOL    HW219240   5.642   4.790  11.997
 5803SOL     OW19241   7.622   9.965   1.294
 5803SOL    HW119242   7.529   9.961   1.313
 5803SOL    HW219243   7.638   9.892   1.235
 5804SOL     OW19244   6.849   4.338   4.590
 5804SOL    HW119245   6.882   4.248   4.590
 5804SOL    HW219246   6.851   4.366   4.499
 5805SOL     OW19247   8.864   9.393   7.504
 5805SOL    HW119248   8.938   9.334   7.509
 5805SOL    HW219249   8.828   9.380   7.417
 5806SOL     OW19250   9.525   8.015   0.300
 5806SOL    HW119251   9.520   8.110   0.296
 5806SOL    HW219252   9.495   7.985   0.214
 5807SOL     OW19253  13.268  10.706   3.873
 5807SOL    HW119254  13.346  10.704   3.929
 5807SOL    HW219255  13.264  10.796   3.841
 5808SOL     OW19256   1.334   5.189   3.757
 5808SOL    HW119257   1.380   5.214   3.838
 5808SOL    HW219258   1.300   5.101   3.775
 5809SOL     OW19259  13.321  14.375   5.273
 5809SOL    HW119260  13.362  14.461   5.266
 5809SOL    HW219261  13.256  14.385   5.342
 5810SOL     OW19262   2.298  13.232   0.381
 5810SOL    HW119263   2.365  13.285   0.424
 5810SOL    HW219264   2.345  13.185   0.312
 5811SOL     OW19265  13.198  11.380   5.001
 5811SOL    HW119266  13.113  11.378   4.958
 5811SOL    HW219267  13.247  11.307   4.961
 5812SOL     OW19268   7.773   4.458  12.090
 5812SOL    HW119269   7.778   4.388  12.025
 5812SOL    HW219270   7.682   4.488  12.086
 5813SOL     OW19271   3.409   7.795   8.291
 5813SOL    HW119272   3.394   7.881   8.251
 5813SOL    HW219273   3.504   7.781   8.285
 5814SOL     OW19274   0.330   8.569   9.693
 5814SOL    HW119275   0.273   8.566   9.617
 5814SOL    HW219276   0.272   8.553   9.767
 5815SOL     OW19277  10.177  14.229   4.194
 5815SOL    HW119278  10.205  14.138   4.204
 5815SOL    HW219279  10.101  14.225   4.136
 5816SOL     OW19280   2.456   9.274   1.204
 5816SOL    HW119281   2.510   9.273   1.125
 5816SOL    HW219282   2.412   9.360   1.202
 5817SOL     OW19283   4.059   6.774  14.229
 5817SOL    HW119284   4.092   6.859  14.258
 5817SOL    HW219285   4.118   6.749  14.158
 5818SOL     OW19286   0.879   3.405  13.692
 5818SOL    HW119287   0.956   3.354  13.667
 5818SOL    HW219288   0.869   3.469  13.621
 5819SOL     OW19289   4.111   1.242   4.610
 5819SOL    HW119290   4.056   1.213   4.683
 5819SOL    HW219291   4.058   1.308   4.565
 5820SOL     OW19292   9.063  13.313   3.428
 5820SOL    HW119293   9.088  13.242   3.369
 5820SOL    HW219294   9.007  13.370   3.375
 5821SOL     OW19295   2.140  12.465  13.423
 5821SOL    HW119296   2.190  12.502  13.496
 5821SOL    HW219297   2.145  12.532  13.354
 5822SOL     OW19298  12.392  12.354   5.585
 5822SOL    HW119299  12.348  12.381   5.504
 5822SOL    HW219300  12.483  12.339   5.560
 5823SOL     OW19301   1.112  10.796   9.527
 5823SOL    HW119302   1.059  10.764   9.455
 5823SOL    HW219303   1.176  10.855   9.486
 5824SOL     OW19304   8.315   0.165   3.607
 5824SOL    HW119305   8.310   0.139   3.515
 5824SOL    HW219306   8.242   0.120   3.649
 5825SOL     OW19307  11.919   4.127   5.967
 5825SOL    HW119308  11.915   4.120   5.872
 5825SOL    HW219309  11.887   4.216   5.986
 5826SOL     OW19310   0.078   5.093   6.394
 5826SOL    HW119311   0.125   5.034   6.452
 5826SOL    HW219312   0.090   5.056   6.307
 5827SOL     OW19313  11.283   8.524  14.833
 5827SOL    HW119314  11.297   8.482   0.039
 5827SOL    HW219315  11.313   8.459  14.769
 5828SOL     OW19316  12.646  13.822   2.907
 5828SOL    HW119317  12.630  13.910   2.939
 5828SOL    HW219318  12.634  13.827   2.812
 5829SOL     OW19319   4.697   4.768   2.280
 5829SOL    HW119320   4.692   4.695   2.218
 5829SOL    HW219321   4.709   4.726   2.365
 5830SOL     OW19322   8.956  14.396   3.513
 5830SOL    HW119323   9.035  14.443   3.487
 5830SOL    HW219324   8.895  14.409   3.441
 5831SOL     OW19325  14.247   8.172   6.999
 5831SOL    HW119326  14.320   8.231   6.980
 5831SOL    HW219327  14.199   8.167   6.917
 5832SOL     OW19328   8.190   1.657  12.012
 5832SOL    HW119329   8.112   1.622  11.968
 5832SOL    HW219330   8.172   1.751  12.020
 5833SOL     OW19331  14.026   6.037  14.108
 5833SOL    HW119332  13.947   6.026  14.162
 5833SOL    HW219333  14.093   6.068  14.170
 5834SOL     OW19334  10.379   7.536   5.559
 5834SOL    HW119335  10.439   7.596   5.516
 5834SOL    HW219336  10.324   7.502   5.488
 5835SOL     OW19337   5.118   6.883   3.536
 5835SOL    HW119338   5.152   6.970   3.512
 5835SOL    HW219339   5.145   6.871   3.627
 5836SOL     OW19340   4.660   9.636  12.127
 5836SOL    HW119341   4.595   9.701  12.151
 5836SOL    HW219342   4.723   9.683  12.073
 5837SOL     OW19343  14.372   0.564  13.185
 5837SOL    HW119344  14.402   0.630  13.248
 5837SOL    HW219345  14.414   0.589  13.102
 5838SOL     OW19346   6.063   3.291   7.502
 5838SOL    HW119347   6.000   3.229   7.539
 5838SOL    HW219348   6.010   3.350   7.448
 5839SOL     OW19349  12.891   5.794  10.848
 5839SOL    HW119350  12.902   5.889  10.851
 5839SOL    HW219351  12.803   5.781  10.813
 5840SOL     OW19352   5.851  10.778   2.849
 5840SOL    HW119353   5.841  10.728   2.769
 5840SOL    HW219354   5.943  10.769   2.872
 5841SOL     OW19355   0.133  13.582   1.654
 5841SOL    HW119356   0.168  13.498   1.682
 5841SOL    HW219357   0.129  13.634   1.734
 5842SOL     OW19358   1.142  12.149   1.843
 5842SOL    HW119359   1.220  12.096   1.856
 5842SOL    HW219360   1.147  12.178   1.751
 5843SOL     OW19361   8.142  12.079   5.805
 5843SOL    HW119362   8.128  11.996   5.759
 5843SOL    HW219363   8.168  12.140   5.736
 5844SOL     OW19364  11.585  13.964  13.052
 5844SOL    HW119365  11.563  13.881  13.094
 5844SOL    HW219366  11.679  13.975  13.071
 5845SOL     OW19367   2.270   3.334   0.152
 5845SOL    HW119368   2.212   3.305   0.082
 5845SOL    HW219369   2.241   3.423   0.172
 5846SOL     OW19370   3.487  10.827  14.461
 5846SOL    HW119371   3.515  10.877  14.385
 5846SOL    HW219372   3.568  10.809  14.509
 5847SOL     OW19373  12.605  12.453   6.231
 5847SOL    HW119374  12.681  12.409   6.192
 5847SOL    HW219375  12.603  12.421   6.321
 5848SOL     OW19376   7.914  10.291   2.075
 5848SOL    HW119377   7.861  10.211   2.069
 5848SOL    HW219378   7.854  10.358   2.108
 5849SOL     OW19379   9.627  14.136   9.330
 5849SOL    HW119380   9.555  14.113   9.272
 5849SOL    HW219381   9.588  14.192   9.397
 5850SOL     OW19382   5.437  11.469  10.647
 5850SOL    HW119383   5.423  11.378  10.622
 5850SOL    HW219384   5.530  11.474  10.670
 5851SOL     OW19385   1.435  11.930  10.058
 5851SOL    HW119386   1.378  11.902   9.986
 5851SOL    HW219387   1.495  11.857  10.072
 5852SOL     OW19388  10.192   5.681   6.501
 5852SOL    HW119389  10.173   5.774   6.517
 5852SOL    HW219390  10.185   5.672   6.406
 5853SOL     OW19391  12.752   9.710   9.457
 5853SOL    HW119392  12.808   9.639   9.490
 5853SOL    HW219393  12.672   9.703   9.510
 5854SOL     OW19394   3.384   0.581   3.252
 5854SOL    HW119395   3.460   0.618   3.298
 5854SOL    HW219396   3.396   0.487   3.259
 5855SOL     OW19397   5.524   7.761  13.520
 5855SOL    HW119398   5.446   7.792  13.566
 5855SOL    HW219399   5.585   7.737  13.589
 5856SOL     OW19400   2.336  11.462  14.573
 5856SOL    HW119401   2.309  11.551  14.549
 5856SOL    HW219402   2.254  11.416  14.589
 5857SOL     OW19403   5.505   9.673   6.762
 5857SOL    HW119404   5.490   9.701   6.672
 5857SOL    HW219405   5.520   9.578   6.756
 5858SOL     OW19406   6.085   8.091   2.380
 5858SOL    HW119407   6.005   8.102   2.430
 5858SOL    HW219408   6.120   8.180   2.370
 5859SOL     OW19409  10.314  12.585  10.043
 5859SOL    HW119410  10.266  12.571   9.962
 5859SOL    HW219411  10.365  12.506  10.055
 5860SOL     OW19412   5.230   9.608   9.308
 5860SOL    HW119413   5.263   9.519   9.322
 5860SOL    HW219414   5.136   9.597   9.296
 5861SOL     OW19415  13.543  12.417  13.177
 5861SOL    HW119416  13.453  12.405  13.147
 5861SOL    HW219417  13.537  12.488  13.242
 5862SOL     OW19418   3.110   8.848  10.164
 5862SOL    HW119419   3.113   8.753  10.171
 5862SOL    HW219420   3.202   8.875  10.162
 5863SOL     OW19421  13.923   5.467  11.970
 5863SOL    HW119422  13.906   5.553  12.010
 5863SOL    HW219423  13.844   5.416  11.989
 5864SOL     OW19424   8.219  13.592   9.439
 5864SOL    HW119425   8.232  13.515   9.496
 5864SOL    HW219426   8.272  13.573   9.362
 5865SOL     OW19427  11.913   0.005   0.624
 5865SOL    HW119428  11.853   0.067   0.583
 5865SOL    HW219429  11.874  14.864   0.709
 5866SOL     OW19430  14.842   2.611   4.351
 5866SOL    HW119431   0.036   2.561   4.316
 5866SOL    HW219432  14.781   2.620   4.277
 5867SOL     OW19433  13.629  11.585  14.357
 5867SOL    HW119434  13.661  11.561  14.444
 5867SOL    HW219435  13.595  11.674  14.367
 5868SOL     OW19436  13.113  12.818   5.989
 5868SOL    HW119437  13.202  12.804   5.958
 5868SOL    HW219438  13.121  12.825   6.084
 5869SOL     OW19439   1.951   1.270   5.218
 5869SOL    HW119440   1.995   1.225   5.291
 5869SOL    HW219441   1.997   1.353   5.209
 5870SOL     OW19442   3.054   6.024   7.647
 5870SOL    HW119443   3.037   5.979   7.564
 5870SOL    HW219444   2.981   6.085   7.656
 5871SOL     OW19445   5.980  13.108   2.181
 5871SOL    HW119446   6.042  13.180   2.170
 5871SOL    HW219447   6.017  13.037   2.129
 5872SOL     OW19448  12.541   9.994   2.275
 5872SOL    HW119449  12.538   9.915   2.330
 5872SOL    HW219450  12.596   9.969   2.201
 5873SOL     OW19451   9.365   4.441   7.772
 5873SOL    HW119452   9.310   4.364   7.783
 5873SOL    HW219453   9.321   4.510   7.821
 5874SOL     OW19454   7.495   5.764   4.388
 5874SOL    HW119455   7.536   5.762   4.475
 5874SOL    HW219456   7.452   5.849   4.383
 5875SOL     OW19457  12.382   2.939   0.576
 5875SOL    HW119458  12.462   2.961   0.624
 5875SOL    HW219459  12.392   2.981   0.491
 5876SOL     OW19460   0.514   6.150   9.280
 5876SOL    HW119461   0.600   6.184   9.257
 5876SOL    HW219462   0.470   6.135   9.196
 5877SOL     OW19463   0.117   6.408   2.827
 5877SOL    HW119464   0.134   6.448   2.912
 5877SOL    HW219465   0.072   6.475   2.777
 5878SOL     OW19466  12.823   8.460   9.848
 5878SOL    HW119467  12.786   8.448   9.936
 5878SOL    HW219468  12.749   8.451   9.789
 5879SOL     OW19469   1.727  12.523   3.866
 5879SOL    HW119470   1.791  12.590   3.840
 5879SOL    HW219471   1.667  12.518   3.791
 5880SOL     OW19472   8.677   4.422   7.255
 5880SOL    HW119473   8.676   4.386   7.343
 5880SOL    HW219474   8.762   4.465   7.248
 5881SOL     OW19475   6.194  12.174   3.105
 5881SOL    HW119476   6.170  12.085   3.131
 5881SOL    HW219477   6.142  12.231   3.163
 5882SOL     OW19478   5.686  11.644   0.240
 5882SOL    HW119479   5.660  11.680   0.325
 5882SOL    HW219480   5.734  11.715   0.197
 5883SOL     OW19481   3.804   3.768   9.067
 5883SOL    HW119482   3.833   3.705   9.001
 5883SOL    HW219483   3.741   3.823   9.022
 5884SOL     OW19484   6.860   6.580   0.017
 5884SOL    HW119485   6.873   6.569  14.802
 5884SOL    HW219486   6.943   6.616   0.048
 5885SOL     OW19487   7.886  12.477   5.657
 5885SOL    HW119488   7.925  12.551   5.610
 5885SOL    HW219489   7.932  12.400   5.624
 5886SOL     OW19490   8.300   9.228  13.817
 5886SOL    HW119491   8.342   9.145  13.840
 5886SOL    HW219492   8.232   9.204  13.753
 5887SOL     OW19493   6.913   8.947  11.009
 5887SOL    HW119494   6.882   9.005  10.939
 5887SOL    HW219495   6.983   8.895  10.968
 5888SOL     OW19496   7.220   3.767   5.068
 5888SOL    HW119497   7.280   3.839   5.050
 5888SOL    HW219498   7.148   3.807   5.116
 5889SOL     OW19499   5.472  13.110   1.691
 5889SOL    HW119500   5.455  13.155   1.773
 5889SOL    HW219501   5.413  13.034   1.692
 5890SOL     OW19502   6.349   6.049  14.387
 5890SOL    HW119503   6.322   6.103  14.313
 5890SOL    HW219504   6.366   5.962  14.349
 5891SOL     OW19505   4.556   9.475   5.116
 5891SOL    HW119506   4.591   9.525   5.190
 5891SOL    HW219507   4.506   9.540   5.065
 5892SOL     OW19508   4.597   2.921  10.833
 5892SOL    HW119509   4.593   2.900  10.927
 5892SOL    HW219510   4.531   2.863  10.794
 5893SOL     OW19511  12.953   4.109   6.704
 5893SOL    HW119512  12.949   4.192   6.751
 5893SOL    HW219513  12.889   4.053   6.749
 5894SOL     OW19514   0.184   5.320  11.193
 5894SOL    HW119515   0.122   5.249  11.213
 5894SOL    HW219516   0.142   5.368  11.121
 5895SOL     OW19517   6.907   2.898   1.781
 5895SOL    HW119518   6.908   2.836   1.854
 5895SOL    HW219519   6.817   2.931   1.778
 5896SOL     OW19520  13.907   5.589   0.607
 5896SOL    HW119521  13.937   5.638   0.683
 5896SOL    HW219522  13.984   5.538   0.579
 5897SOL     OW19523  12.311  11.029  12.656
 5897SOL    HW119524  12.396  10.986  12.655
 5897SOL    HW219525  12.260  10.980  12.722
 5898SOL     OW19526   6.007   2.930   4.929
 5898SOL    HW119527   5.978   2.981   4.854
 5898SOL    HW219528   5.982   2.840   4.907
 5899SOL     OW19529  13.316   8.576   2.494
 5899SOL    HW119530  13.394   8.553   2.443
 5899SOL    HW219531  13.273   8.492   2.509
 5900SOL     OW19532   0.675   2.858   5.105
 5900SOL    HW119533   0.582   2.849   5.084
 5900SOL    HW219534   0.677   2.877   5.199
 5901SOL     OW19535   8.090  11.179   7.689
 5901SOL    HW119536   8.071  11.090   7.720
 5901SOL    HW219537   8.126  11.167   7.601
 5902SOL     OW19538   9.734   3.056  13.956
 5902SOL    HW119539   9.654   3.021  13.917
 5902SOL    HW219540   9.715   3.150  13.967
 5903SOL     OW19541  14.294  13.331   3.431
 5903SOL    HW119542  14.332  13.379   3.358
 5903SOL    HW219543  14.201  13.352   3.428
 5904SOL     OW19544   9.890  14.783   5.358
 5904SOL    HW119545   9.799  14.796   5.383
 5904SOL    HW219546   9.939  14.849   5.407
 5905SOL     OW19547  13.887   8.358   8.711
 5905SOL    HW119548  13.975   8.327   8.731
 5905SOL    HW219549  13.831   8.317   8.777
 5906SOL     OW19550  13.638   6.795   9.623
 5906SOL    HW119551  13.719   6.844   9.620
 5906SOL    HW219552  13.658   6.712   9.579
 5907SOL     OW19553   1.200   0.843   4.150
 5907SOL    HW119554   1.211   0.929   4.190
 5907SOL    HW219555   1.285   0.824   4.110
 5908SOL     OW19556  11.334  11.824   3.047
 5908SOL    HW119557  11.374  11.766   3.112
 5908SOL    HW219558  11.306  11.901   3.097
 5909SOL     OW19559  13.805   7.727  14.608
 5909SOL    HW119560  13.846   7.641  14.602
 5909SOL    HW219561  13.761   7.739  14.524
 5910SOL     OW19562  10.146  11.213  14.792
 5910SOL    HW119563  10.232  11.219  14.834
 5910SOL    HW219564  10.143  11.287  14.732
 5911SOL     OW19565  12.362  14.686  13.582
 5911SOL    HW119566  12.356  14.645  13.668
 5911SOL    HW219567  12.454  14.678  13.558
 5912SOL     OW19568  12.728  11.443   3.014
 5912SOL    HW119569  12.719  11.384   2.939
 5912SOL    HW219570  12.639  11.450   3.049
 5913SOL     OW19571   5.183   0.459   9.152
 5913SOL    HW119572   5.220   0.400   9.087
 5913SOL    HW219573   5.222   0.432   9.235
 5914SOL     OW19574  12.288   1.783   7.262
 5914SOL    HW119575  12.229   1.773   7.187
 5914SOL    HW219576  12.234   1.764   7.338
 5915SOL     OW19577  10.378  10.138   5.567
 5915SOL    HW119578  10.458  10.125   5.618
 5915SOL    HW219579  10.404  10.120   5.476
 5916SOL     OW19580   4.739   7.969   1.142
 5916SOL    HW119581   4.834   7.979   1.146
 5916SOL    HW219582   4.717   7.981   1.049
 5917SOL     OW19583   0.784   6.685   4.896
 5917SOL    HW119584   0.699   6.674   4.939
 5917SOL    HW219585   0.817   6.595   4.886
 5918SOL     OW19586   0.975   4.250  11.781
 5918SOL    HW119587   0.969   4.332  11.830
 5918SOL    HW219588   1.010   4.187  11.845
 5919SOL     OW19589   8.070  13.758  10.704
 5919SOL    HW119590   7.980  13.788  10.712
 5919SOL    HW219591   8.117  13.833  10.668
 5920SOL     OW19592   4.192  14.142   3.143
 5920SOL    HW119593   4.133  14.142   3.068
 5920SOL    HW219594   4.194  14.234   3.172
 5921SOL     OW19595   8.049   1.761   6.652
 5921SOL    HW119596   8.129   1.718   6.620
 5921SOL    HW219597   8.047   1.844   6.604
 5922SOL     OW19598   3.279   4.870   4.958
 5922SOL    HW119599   3.188   4.855   4.932
 5922SOL    HW219600   3.326   4.792   4.929
 5923SOL     OW19601   3.245  14.507  14.595
 5923SOL    HW119602   3.251  14.446  14.521
 5923SOL    HW219603   3.323  14.562  14.587
 5924SOL     OW19604   6.910  11.179   1.711
 5924SOL    HW119605   6.865  11.229   1.643
 5924SOL    HW219606   6.942  11.245   1.772
 5925SOL     OW19607   6.305   1.037   1.832
 5925SOL    HW119608   6.293   0.944   1.811
 5925SOL    HW219609   6.398   1.052   1.821
 5926SOL     OW19610  13.443   0.903   9.865
 5926SOL    HW119611  13.415   0.989   9.835
 5926SOL    HW219612  13.384   0.882   9.937
 5927SOL     OW19613   7.387   0.084  10.439
 5927SOL    HW119614   7.297   0.117  10.447
 5927SOL    HW219615   7.420   0.124  10.359
 5928SOL     OW19616   7.688   6.110  14.383
 5928SOL    HW119617   7.756   6.143  14.442
 5928SOL    HW219618   7.720   6.025  14.354
 5929SOL     OW19619   8.477  10.040   9.217
 5929SOL    HW119620   8.395  10.042   9.266
 5929SOL    HW219621   8.480  10.124   9.171
 5930SOL     OW19622  12.012   6.425  11.114
 5930SOL    HW119623  12.006   6.330  11.100
 5930SOL    HW219624  11.921   6.455  11.112
 5931SOL     OW19625   6.479   7.383   7.017
 5931SOL    HW119626   6.520   7.351   7.098
 5931SOL    HW219627   6.518   7.470   7.004
 5932SOL     OW19628   0.169  13.643  12.639
 5932SOL    HW119629   0.194  13.551  12.630
 5932SOL    HW219630   0.104  13.657  12.571
 5933SOL     OW19631   0.549  10.081   3.919
 5933SOL    HW119632   0.533  10.129   4.001
 5933SOL    HW219633   0.644  10.069   3.916
 5934SOL     OW19634  12.085   2.462  14.350
 5934SOL    HW119635  12.123   2.374  14.343
 5934SOL    HW219636  12.093   2.499  14.262
 5935SOL     OW19637   4.878  10.832  11.686
 5935SOL    HW119638   4.940  10.840  11.613
 5935SOL    HW219639   4.796  10.805  11.644
 5936SOL     OW19640  10.851   9.070   5.268
 5936SOL    HW119641  10.877   8.982   5.240
 5936SOL    HW219642  10.846   9.064   5.364
 5937SOL     OW19643   4.177   9.901   8.586
 5937SOL    HW119644   4.189   9.873   8.677
 5937SOL    HW219645   4.264   9.893   8.547
 5938SOL     OW19646   5.208   1.658   6.095
 5938SOL    HW119647   5.190   1.668   6.001
 5938SOL    HW219648   5.303   1.669   6.102
 5939SOL     OW19649   8.932  12.404   8.956
 5939SOL    HW119650   8.935  12.461   9.033
 5939SOL    HW219651   8.899  12.320   8.989
 5940SOL     OW19652   0.111   2.758   5.424
 5940SOL    HW119653   0.168   2.785   5.497
 5940SOL    HW219654   0.106   2.835   5.367
 5941SOL     OW19655  14.515   8.207   5.079
 5941SOL    HW119656  14.489   8.154   5.004
 5941SOL    HW219657  14.452   8.279   5.082
 5942SOL     OW19658   9.881   4.082   5.807
 5942SOL    HW119659   9.815   4.015   5.824
 5942SOL    HW219660   9.848   4.127   5.729
 5943SOL     OW19661  10.572   5.008   0.860
 5943SOL    HW119662  10.653   4.983   0.816
 5943SOL    HW219663  10.596   5.017   0.952
 5944SOL     OW19664   7.852   0.576  13.063
 5944SOL    HW119665   7.779   0.520  13.034
 5944SOL    HW219666   7.817   0.622  13.140
 5945SOL     OW19667   8.662   4.259   6.578
 5945SOL    HW119668   8.713   4.178   6.579
 5945SOL    HW219669   8.691   4.307   6.656
 5946SOL     OW19670   4.605  11.888  11.211
 5946SOL    HW119671   4.617  11.982  11.196
 5946SOL    HW219672   4.532  11.864  11.155
 5947SOL     OW19673  10.825  11.909   5.391
 5947SOL    HW119674  10.878  11.982   5.423
 5947SOL    HW219675  10.748  11.951   5.352
 5948SOL     OW19676  14.835   0.388   2.896
 5948SOL    HW119677   0.006   0.327   2.842
 5948SOL    HW219678   0.023   0.442   2.939
 5949SOL     OW19679  13.706   5.148  12.259
 5949SOL    HW119680  13.790   5.156  12.304
 5949SOL    HW219681  13.683   5.055  12.268
 5950SOL     OW19682   3.681  14.103   7.112
 5950SOL    HW119683   3.751  14.098   7.047
 5950SOL    HW219684   3.720  14.149   7.186
 5951SOL     OW19685  12.752   6.077   2.243
 5951SOL    HW119686  12.771   6.019   2.317
 5951SOL    HW219687  12.836   6.120   2.224
 5952SOL     OW19688   2.133  14.162  13.327
 5952SOL    HW119689   2.063  14.207  13.374
 5952SOL    HW219690   2.092  14.080  13.297
 5953SOL     OW19691   1.009   3.909   4.046
 5953SOL    HW119692   0.966   3.977   4.098
 5953SOL    HW219693   1.092   3.948   4.019
 5954SOL     OW19694   4.321   1.855   4.132
 5954SOL    HW119695   4.354   1.941   4.103
 5954SOL    HW219696   4.236   1.847   4.089
 5955SOL     OW19697  12.122   2.438   8.937
 5955SOL    HW119698  12.062   2.382   8.986
 5955SOL    HW219699  12.168   2.377   8.879
 5956SOL     OW19700   9.627   5.931   3.983
 5956SOL    HW119701   9.643   5.855   4.039
 5956SOL    HW219702   9.657   6.006   4.034
 5957SOL     OW19703   8.385  13.834   2.282
 5957SOL    HW119704   8.293  13.855   2.267
 5957SOL    HW219705   8.433  13.884   2.216
 5958SOL     OW19706  11.434  10.209   6.457
 5958SOL    HW119707  11.369  10.140   6.459
 5958SOL    HW219708  11.479  10.197   6.373
 5959SOL     OW19709  12.307  12.800   7.799
 5959SOL    HW119710  12.306  12.878   7.744
 5959SOL    HW219711  12.265  12.827   7.881
 5960SOL     OW19712  12.382   8.201   2.413
 5960SOL    HW119713  12.410   8.166   2.328
 5960SOL    HW219714  12.321   8.135   2.447
 5961SOL     OW19715  12.109   8.899  11.232
 5961SOL    HW119716  12.099   8.876  11.324
 5961SOL    HW219717  12.199   8.930  11.224
 5962SOL     OW19718  13.793  11.189   7.170
 5962SOL    HW119719  13.763  11.144   7.249
 5962SOL    HW219720  13.718  11.186   7.110
 5963SOL     OW19721   4.730   1.108  14.396
 5963SOL    HW119722   4.762   1.108  14.486
 5963SOL    HW219723   4.683   1.190  14.386
 5964SOL     OW19724   3.887  14.026   8.595
 5964SOL    HW119725   3.901  14.115   8.628
 5964SOL    HW219726   3.974  13.998   8.565
 5965SOL     OW19727   5.835  13.988   1.956
 5965SOL    HW119728   5.877  14.040   2.026
 5965SOL    HW219729   5.906  13.971   1.894
 5966SOL     OW19730   7.694  13.407   6.242
 5966SOL    HW119731   7.724  13.388   6.153
 5966SOL    HW219732   7.636  13.335   6.264
 5967SOL     OW19733   7.833   4.289   2.017
 5967SOL    HW119734   7.750   4.269   2.059
 5967SOL    HW219735   7.899   4.267   2.082
 5968SOL     OW19736  12.107  13.180   8.023
 5968SOL    HW119737  12.115  13.210   7.933
 5968SOL    HW219738  12.145  13.092   8.023
 5969SOL     OW19739  10.869   6.000   2.768
 5969SOL    HW119740  10.883   6.058   2.693
 5969SOL    HW219741  10.912   5.918   2.743
 5970SOL     OW19742   5.286   3.587   2.993
 5970SOL    HW119743   5.233   3.619   3.066
 5970SOL    HW219744   5.366   3.638   2.997
 5971SOL     OW19745   0.864   9.747  10.320
 5971SOL    HW119746   0.878   9.698  10.239
 5971SOL    HW219747   0.769   9.758  10.324
 5972SOL     OW19748  13.828   6.029   3.396
 5972SOL    HW119749  13.905   6.002   3.346
 5972SOL    HW219750  13.846   6.119   3.421
 5973SOL     OW19751  10.109   8.186   6.680
 5973SOL    HW119752  10.017   8.204   6.665
 5973SOL    HW219753  10.112   8.136   6.762
 5974SOL     OW19754  11.475   5.439  12.782
 5974SOL    HW119755  11.561   5.408  12.811
 5974SOL    HW219756  11.418   5.362  12.790
 5975SOL     OW19757  12.623  10.000   7.788
 5975SOL    HW119758  12.671  10.070   7.743
 5975SOL    HW219759  12.540   9.993   7.740
 5976SOL     OW19760   3.601  12.582   3.179
 5976SOL    HW119761   3.622  12.561   3.088
 5976SOL    HW219762   3.584  12.676   3.179
 5977SOL     OW19763   9.713   8.141  11.454
 5977SOL    HW119764   9.710   8.164  11.361
 5977SOL    HW219765   9.650   8.071  11.464
 5978SOL     OW19766   9.387   9.584   9.037
 5978SOL    HW119767   9.420   9.514   9.094
 5978SOL    HW219768   9.464   9.614   8.989
 5979SOL     OW19769  13.215  12.158   1.829
 5979SOL    HW119770  13.155  12.228   1.804
 5979SOL    HW219771  13.244  12.182   1.918
 5980SOL     OW19772   2.273  10.200   3.741
 5980SOL    HW119773   2.208  10.143   3.700
 5980SOL    HW219774   2.337  10.216   3.672
 5981SOL     OW19775   3.844   6.342   9.483
 5981SOL    HW119776   3.756   6.331   9.448
 5981SOL    HW219777   3.836   6.411   9.549
 5982SOL     OW19778   6.513  10.775   4.602
 5982SOL    HW119779   6.511  10.704   4.538
 5982SOL    HW219780   6.605  10.781   4.629
 5983SOL     OW19781   3.455  11.746  12.313
 5983SOL    HW119782   3.393  11.818  12.321
 5983SOL    HW219783   3.406  11.668  12.340
 5984SOL     OW19784  12.253   4.245  12.144
 5984SOL    HW119785  12.269   4.262  12.237
 5984SOL    HW219786  12.293   4.159  12.128
 5985SOL     OW19787   5.650   4.035   6.106
 5985SOL    HW119788   5.700   3.965   6.148
 5985SOL    HW219789   5.562   4.026   6.143
 5986SOL     OW19790  14.227  13.285  10.962
 5986SOL    HW119791  14.187  13.228  11.028
 5986SOL    HW219792  14.317  13.254  10.956
 5987SOL     OW19793   2.844   7.351  10.932
 5987SOL    HW119794   2.936   7.343  10.906
 5987SOL    HW219795   2.822   7.443  10.918
 5988SOL     OW19796   6.420   7.750   0.212
 5988SOL    HW119797   6.490   7.738   0.276
 5988SOL    HW219798   6.344   7.706   0.250
 5989SOL     OW19799   7.586  14.651  13.098
 5989SOL    HW119800   7.676  14.681  13.086
 5989SOL    HW219801   7.553  14.703  13.172
 5990SOL     OW19802  14.033   1.735   2.473
 5990SOL    HW119803  14.114   1.785   2.486
 5990SOL    HW219804  14.012   1.747   2.381
 5991SOL     OW19805  11.482   3.285  13.231
 5991SOL    HW119806  11.550   3.322  13.287
 5991SOL    HW219807  11.499   3.324  13.145
 5992SOL     OW19808   2.541  10.206   3.136
 5992SOL    HW119809   2.603  10.137   3.115
 5992SOL    HW219810   2.456  10.162   3.138
 5993SOL     OW19811  13.196   0.113   8.215
 5993SOL    HW119812  13.124   0.066   8.171
 5993SOL    HW219813  13.271   0.055   8.206
 5994SOL     OW19814   0.947   3.414   5.670
 5994SOL    HW119815   0.988   3.403   5.756
 5994SOL    HW219816   0.980   3.498   5.639
 5995SOL     OW19817   1.596   3.660  10.391
 5995SOL    HW119818   1.654   3.585  10.380
 5995SOL    HW219819   1.508   3.623  10.386
 5996SOL     OW19820   7.578  14.865   9.840
 5996SOL    HW119821   7.639   0.059   9.840
 5996SOL    HW219822   7.585  14.828   9.928
 5997SOL     OW19823   8.008   0.929   1.078
 5997SOL    HW119824   8.009   0.887   0.992
 5997SOL    HW219825   7.917   0.952   1.092
 5998SOL     OW19826   0.608  10.699   4.249
 5998SOL    HW119827   0.673  10.744   4.302
 5998SOL    HW219828   0.553  10.652   4.313
 5999SOL     OW19829   3.447   5.843   3.032
 5999SOL    HW119830   3.483   5.809   2.950
 5999SOL    HW219831   3.387   5.913   3.005
 6000SOL     OW19832   3.595   2.701   4.464
 6000SOL    HW119833   3.569   2.610   4.479
 6000SOL    HW219834   3.528   2.737   4.407
 6001SOL     OW19835   1.909   7.951   1.761
 6001SOL    HW119836   1.948   7.889   1.823
 6001SOL    HW219837   1.977   8.017   1.747
 6002SOL     OW19838  11.356   9.466   3.046
 6002SOL    HW119839  11.325   9.518   2.972
 6002SOL    HW219840  11.375   9.380   3.008
 6003SOL     OW19841   6.164  11.369   0.217
 6003SOL    HW119842   6.094  11.433   0.208
 6003SOL    HW219843   6.245  11.420   0.209
 6004SOL     OW19844  12.566  11.097  13.361
 6004SOL    HW119845  12.567  11.185  13.324
 6004SOL    HW219846  12.531  11.042  13.290
 6005SOL     OW19847  14.407   0.716   3.022
 6005SOL    HW119848  14.465   0.643   2.999
 6005SOL    HW219849  14.437   0.743   3.109
 6006SOL     OW19850   1.987  14.782  12.928
 6006SOL    HW119851   2.023  14.714  12.984
 6006SOL    HW219852   2.061  14.839  12.908
 6007SOL     OW19853   8.174   8.413   2.305
 6007SOL    HW119854   8.093   8.383   2.346
 6007SOL    HW219855   8.148   8.442   2.218
 6008SOL     OW19856   4.060   5.870   6.342
 6008SOL    HW119857   4.073   5.957   6.303
 6008SOL    HW219858   4.107   5.874   6.425
 6009SOL     OW19859   8.434   3.052   0.596
 6009SOL    HW119860   8.385   3.042   0.515
 6009SOL    HW219861   8.374   3.020   0.664
 6010SOL     OW19862  13.517   8.779   3.282
 6010SOL    HW119863  13.522   8.825   3.199
 6010SOL    HW219864  13.467   8.699   3.263
 6011SOL     OW19865  13.208  13.666   2.258
 6011SOL    HW119866  13.175  13.591   2.209
 6011SOL    HW219867  13.257  13.628   2.331
 6012SOL     OW19868   2.619   7.630   3.590
 6012SOL    HW119869   2.535   7.650   3.549
 6012SOL    HW219870   2.600   7.628   3.684
 6013SOL     OW19871   4.476   6.599  13.634
 6013SOL    HW119872   4.565   6.566  13.629
 6013SOL    HW219873   4.485   6.688  13.670
 6014SOL     OW19874   2.760   4.419   9.823
 6014SOL    HW119875   2.831   4.414   9.887
 6014SOL    HW219876   2.735   4.328   9.808
 6015SOL     OW19877  14.095   4.762   1.436
 6015SOL    HW119878  14.179   4.753   1.392
 6015SOL    HW219879  14.118   4.783   1.527
 6016SOL     OW19880  11.428   4.121  11.537
 6016SOL    HW119881  11.466   4.132  11.623
 6016SOL    HW219882  11.363   4.051  11.548
 6017SOL     OW19883   6.373   1.328  14.082
 6017SOL    HW119884   6.305   1.336  14.148
 6017SOL    HW219885   6.376   1.415  14.040
 6018SOL     OW19886   2.542  11.043   3.898
 6018SOL    HW119887   2.555  10.948   3.894
 6018SOL    HW219888   2.583  11.070   3.980
 6019SOL     OW19889  10.171  13.086   4.099
 6019SOL    HW119890  10.172  13.158   4.036
 6019SOL    HW219891  10.187  13.128   4.184
 6020SOL     OW19892  12.224   1.684  14.433
 6020SOL    HW119893  12.170   1.705  14.356
 6020SOL    HW219894  12.175   1.615  14.478
 6021SOL     OW19895   8.574   0.792   3.337
 6021SOL    HW119896   8.666   0.789   3.311
 6021SOL    HW219897   8.529   0.741   3.271
 6022SOL     OW19898  11.654   1.435   8.304
 6022SOL    HW119899  11.621   1.514   8.347
 6022SOL    HW219900  11.671   1.374   8.375
 6023SOL     OW19901   7.666   4.568   2.802
 6023SOL    HW119902   7.710   4.622   2.868
 6023SOL    HW219903   7.720   4.489   2.796
 6024SOL     OW19904   4.614   9.181   9.342
 6024SOL    HW119905   4.555   9.156   9.271
 6024SOL    HW219906   4.596   9.274   9.358
 6025SOL     OW19907  13.180   2.881  10.122
 6025SOL    HW119908  13.225   2.965  10.114
 6025SOL    HW219909  13.088   2.901  10.104
 6026SOL     OW19910   2.175  11.800   6.302
 6026SOL    HW119911   2.105  11.741   6.274
 6026SOL    HW219912   2.202  11.766   6.387
 6027SOL     OW19913   1.556   4.487  11.981
 6027SOL    HW119914   1.475   4.502  11.931
 6027SOL    HW219915   1.525   4.454  12.066
 6028SOL     OW19916   0.539   4.058  14.385
 6028SOL    HW119917   0.511   4.146  14.412
 6028SOL    HW219918   0.554   4.012  14.467
 6029SOL     OW19919  13.295   3.870  14.166
 6029SOL    HW119920  13.313   3.906  14.080
 6029SOL    HW219921  13.379   3.876  14.212
 6030SOL     OW19922   5.069  12.531   4.485
 6030SOL    HW119923   5.119  12.513   4.565
 6030SOL    HW219924   5.084  12.624   4.467
 6031SOL     OW19925   3.272   8.014   5.611
 6031SOL    HW119926   3.280   7.930   5.656
 6031SOL    HW219927   3.355   8.024   5.564
 6032SOL     OW19928   7.847   1.495  11.595
 6032SOL    HW119929   7.930   1.472  11.553
 6032SOL    HW219930   7.821   1.577  11.554
 6033SOL     OW19931   9.857   0.063   6.406
 6033SOL    HW119932   9.824   0.149   6.381
 6033SOL    HW219933   9.936   0.051   6.354
 6034SOL     OW19934   5.359   7.352  11.615
 6034SOL    HW119935   5.282   7.315  11.659
 6034SOL    HW219936   5.405   7.276  11.580
 6035SOL     OW19937  13.067   9.534  14.040
 6035SOL    HW119938  13.109   9.618  14.022
 6035SOL    HW219939  12.982   9.540  13.995
 6036SOL     OW19940   6.462  11.127   2.051
 6036SOL    HW119941   6.461  11.048   1.997
 6036SOL    HW219942   6.501  11.194   1.995
 6037SOL     OW19943  12.948  12.620   3.748
 6037SOL    HW119944  12.898  12.671   3.684
 6037SOL    HW219945  12.933  12.529   3.723
 6038SOL     OW19946   5.775  14.576  10.404
 6038SOL    HW119947   5.736  14.492  10.429
 6038SOL    HW219948   5.804  14.615  10.486
 6039SOL     OW19949   9.287   3.700   1.644
 6039SOL    HW119950   9.297   3.778   1.589
 6039SOL    HW219951   9.220   3.725   1.708
 6040SOL     OW19952   3.252  11.001   0.979
 6040SOL    HW119953   3.242  11.072   0.915
 6040SOL    HW219954   3.302  11.040   1.050
 6041SOL     OW19955   3.359   3.485   6.150
 6041SOL    HW119956   3.331   3.407   6.199
 6041SOL    HW219957   3.367   3.455   6.060
 6042SOL     OW19958   9.304   7.561   7.289
 6042SOL    HW119959   9.256   7.612   7.353
 6042SOL    HW219960   9.300   7.613   7.208
 6043SOL     OW19961   8.426  14.560   8.780
 6043SOL    HW119962   8.454  14.616   8.707
 6043SOL    HW219963   8.464  14.602   8.857
 6044SOL     OW19964  12.277   4.141   1.534
 6044SOL    HW119965  12.230   4.131   1.617
 6044SOL    HW219966  12.270   4.235   1.514
 6045SOL     OW19967   8.208  10.607   8.333
 6045SOL    HW119968   8.193  10.513   8.322
 6045SOL    HW219969   8.134  10.648   8.288
 6046SOL     OW19970  14.725   3.190   9.514
 6046SOL    HW119971  14.785   3.249   9.469
 6046SOL    HW219972  14.763   3.180   9.602
 6047SOL     OW19973   3.774   6.417  12.614
 6047SOL    HW119974   3.780   6.477  12.687
 6047SOL    HW219975   3.734   6.468  12.543
 6048SOL     OW19976   9.162  12.564   9.492
 6048SOL    HW119977   9.250  12.553   9.528
 6048SOL    HW219978   9.120  12.479   9.506
 6049SOL     OW19979  10.140   4.055  14.795
 6049SOL    HW119980  10.208   4.062  14.727
 6049SOL    HW219981  10.159   3.972  14.839
 6050SOL     OW19982  10.816   7.023   6.124
 6050SOL    HW119983  10.723   7.020   6.099
 6050SOL    HW219984  10.839   7.115   6.117
 6051SOL     OW19985   1.124   7.233   8.781
 6051SOL    HW119986   1.201   7.283   8.755
 6051SOL    HW219987   1.068   7.297   8.826
 6052SOL     OW19988   8.215   0.716   2.473
 6052SOL    HW119989   8.200   0.777   2.400
 6052SOL    HW219990   8.158   0.748   2.543
 6053SOL     OW19991  10.067   7.205   5.561
 6053SOL    HW119992  10.112   7.195   5.645
 6053SOL    HW219993  10.092   7.128   5.511
 6054SOL     OW19994  14.771  13.188   3.184
 6054SOL    HW119995  14.792  13.203   3.276
 6054SOL    HW219996  14.711  13.114   3.185
 6055SOL     OW19997  10.625  11.243   1.243
 6055SOL    HW119998  10.543  11.226   1.197
 6055SOL    HW219999  10.692  11.241   1.174
 6056SOL     OW20000  11.704  13.947   7.100
 6056SOL    HW120001  11.623  13.928   7.148
 6056SOL    HW220002  11.716  13.871   7.043
 6057SOL     OW20003   2.146   4.907  10.663
 6057SOL    HW120004   2.186   4.860  10.590
 6057SOL    HW220005   2.196   4.879  10.740
 6058SOL     OW20006  10.290  10.664   9.021
 6058SOL    HW120007  10.364  10.662   9.082
 6058SOL    HW220008  10.239  10.740   9.049
 6059SOL     OW20009   3.478   9.593  13.865
 6059SOL    HW120010   3.515   9.608  13.778
 6059SOL    HW220011   3.405   9.532  13.850
 6060SOL     OW20012  11.184  10.346   2.830
 6060SOL    HW120013  11.156  10.366   2.741
 6060SOL    HW220014  11.271  10.385   2.837
 6061SOL     OW20015   3.614   7.660   6.661
 6061SOL    HW120016   3.571   7.578   6.689
 6061SOL    HW220017   3.703   7.653   6.696
 6062SOL     OW20018  13.159   7.519   3.580
 6062SOL    HW120019  13.240   7.560   3.550
 6062SOL    HW220020  13.133   7.570   3.657
 6063SOL     OW20021   5.318   1.828  11.777
 6063SOL    HW120022   5.262   1.836  11.855
 6063SOL    HW220023   5.399   1.790  11.810
 6064SOL     OW20024  11.542   1.370   1.607
 6064SOL    HW120025  11.615   1.353   1.667
 6064SOL    HW220026  11.579   1.429   1.541
 6065SOL     OW20027  12.578  12.856  10.748
 6065SOL    HW120028  12.568  12.907  10.668
 6065SOL    HW220029  12.502  12.798  10.749
 6066SOL     OW20030  11.468   0.492  14.167
 6066SOL    HW120031  11.489   0.455  14.081
 6066SOL    HW220032  11.374   0.509  14.163
 6067SOL     OW20033   5.338   7.210  13.397
 6067SOL    HW120034   5.280   7.142  13.362
 6067SOL    HW220035   5.305   7.226  13.485
 6068SOL     OW20036   2.534  12.890   1.047
 6068SOL    HW120037   2.517  12.815   0.989
 6068SOL    HW220038   2.627  12.886   1.065
 6069SOL     OW20039  11.845   7.625   8.169
 6069SOL    HW120040  11.837   7.616   8.074
 6069SOL    HW220041  11.920   7.570   8.192
 6070SOL     OW20042  12.934   0.001   8.731
 6070SOL    HW120043  12.986   0.052   8.668
 6070SOL    HW220044  12.992  14.808   8.757
 6071SOL     OW20045   8.791   8.747   4.413
 6071SOL    HW120046   8.773   8.654   4.407
 6071SOL    HW220047   8.728   8.788   4.355
 6072SOL     OW20048   3.692   5.877   5.376
 6072SOL    HW120049   3.624   5.943   5.363
 6072SOL    HW220050   3.690   5.824   5.296
 6073SOL     OW20051   4.126   7.627   3.078
 6073SOL    HW120052   4.077   7.607   3.158
 6073SOL    HW220053   4.161   7.715   3.093
 6074SOL     OW20054   3.663   6.097  10.346
 6074SOL    HW120055   3.691   6.118  10.257
 6074SOL    HW220056   3.607   6.020  10.337
 6075SOL     OW20057   3.212  13.185  10.783
 6075SOL    HW120058   3.188  13.221  10.868
 6075SOL    HW220059   3.221  13.091  10.797
 6076SOL     OW20060   9.174   6.746  12.447
 6076SOL    HW120061   9.261   6.706  12.451
 6076SOL    HW220062   9.154   6.770  12.538
 6077SOL     OW20063   1.514   3.102   2.360
 6077SOL    HW120064   1.577   3.033   2.381
 6077SOL    HW220065   1.569   3.177   2.335
 6078SOL     OW20066   4.470  14.673   3.974
 6078SOL    HW120067   4.511  14.648   3.891
 6078SOL    HW220068   4.524  14.631   4.041
 6079SOL     OW20069   4.891  10.377   3.664
 6079SOL    HW120070   4.984  10.357   3.665
 6079SOL    HW220071   4.870  10.393   3.571
 6080SOL     OW20072   4.727  11.722   9.241
 6080SOL    HW120073   4.669  11.683   9.176
 6080SOL    HW220074   4.691  11.695   9.325
 6081SOL     OW20075   2.837   9.435  12.004
 6081SOL    HW120076   2.782   9.478  12.070
 6081SOL    HW220077   2.810   9.474  11.921
 6082SOL     OW20078  14.293  11.557   8.684
 6082SOL    HW120079  14.379  11.576   8.647
 6082SOL    HW220080  14.247  11.508   8.616
 6083SOL     OW20081   4.108  10.615  10.951
 6083SOL    HW120082   4.161  10.535  10.954
 6083SOL    HW220083   4.165  10.680  10.909
 6084SOL     OW20084   2.203   7.868   8.172
 6084SOL    HW120085   2.186   7.887   8.265
 6084SOL    HW220086   2.119   7.838   8.138
 6085SOL     OW20087  14.333   1.100   7.368
 6085SOL    HW120088  14.394   1.030   7.393
 6085SOL    HW220089  14.263   1.095   7.433
 6086SOL     OW20090   7.583   2.741   7.873
 6086SOL    HW120091   7.618   2.777   7.792
 6086SOL    HW220092   7.498   2.705   7.849
 6087SOL     OW20093   3.045  10.394   1.775
 6087SOL    HW120094   3.002  10.436   1.700
 6087SOL    HW220095   3.052  10.464   1.840
 6088SOL     OW20096   2.258   5.677   9.251
 6088SOL    HW120097   2.179   5.710   9.296
 6088SOL    HW220098   2.304   5.756   9.223
 6089SOL     OW20099   5.538   1.852   0.640
 6089SOL    HW120100   5.632   1.835   0.638
 6089SOL    HW220101   5.507   1.806   0.718
 6090SOL     OW20102   0.874   5.157  14.711
 6090SOL    HW120103   0.879   5.248  14.739
 6090SOL    HW220104   0.963   5.136  14.681
 6091SOL     OW20105   5.330   2.298  14.288
 6091SOL    HW120106   5.278   2.271  14.364
 6091SOL    HW220107   5.313   2.392  14.281
 6092SOL     OW20108   1.858   1.829   1.064
 6092SOL    HW120109   1.940   1.855   1.106
 6092SOL    HW220110   1.824   1.910   1.026
 6093SOL     OW20111  10.675   7.250  13.985
 6093SOL    HW120112  10.742   7.199  13.939
 6093SOL    HW220113  10.605   7.187  14.004
 6094SOL     OW20114   8.699   7.706  14.166
 6094SOL    HW120115   8.751   7.773  14.211
 6094SOL    HW220116   8.636   7.755  14.113
 6095SOL     OW20117   1.289   5.462   4.539
 6095SOL    HW120118   1.199   5.432   4.521
 6095SOL    HW220119   1.278   5.547   4.581
 6096SOL     OW20120   9.860   3.443   7.093
 6096SOL    HW120121   9.887   3.353   7.074
 6096SOL    HW220122   9.832   3.441   7.185
 6097SOL     OW20123   4.139   0.285   6.455
 6097SOL    HW120124   4.229   0.280   6.488
 6097SOL    HW220125   4.134   0.216   6.389
 6098SOL     OW20126  10.759   8.171  11.365
 6098SOL    HW120127  10.806   8.162  11.448
 6098SOL    HW220128  10.677   8.125  11.379
 6099SOL     OW20129   1.817  12.421   0.310
 6099SOL    HW120130   1.848  12.332   0.327
 6099SOL    HW220131   1.862  12.474   0.376
 6100SOL     OW20132  12.231   4.575   9.746
 6100SOL    HW120133  12.278   4.516   9.688
 6100SOL    HW220134  12.160   4.610   9.692
 6101SOL     OW20135  13.757  13.771  12.393
 6101SOL    HW120136  13.699  13.788  12.319
 6101SOL    HW220137  13.831  13.724  12.355
 6102SOL     OW20138   3.929   0.663   5.928
 6102SOL    HW120139   3.875   0.597   5.885
 6102SOL    HW220140   3.901   0.746   5.889
 6103SOL     OW20141   0.298   1.784   7.460
 6103SOL    HW120142   0.205   1.805   7.469
 6103SOL    HW220143   0.323   1.747   7.545
 6104SOL     OW20144   8.459   4.346   5.297
 6104SOL    HW120145   8.408   4.271   5.330
 6104SOL    HW220146   8.408   4.423   5.322
 6105SOL     OW20147   2.171   6.571   7.901
 6105SOL    HW120148   2.263   6.556   7.879
 6105SOL    HW220149   2.156   6.664   7.885
 6106SOL     OW20150   8.619  14.026   5.646
 6106SOL    HW120151   8.583  14.099   5.596
 6106SOL    HW220152   8.556  13.955   5.634
 6107SOL     OW20153  13.467   6.480   9.018
 6107SOL    HW120154  13.435   6.553   8.965
 6107SOL    HW220155  13.388   6.438   9.052
 6108SOL     OW20156   0.257  10.436   4.157
 6108SOL    HW120157   0.307  10.485   4.091
 6108SOL    HW220158   0.296  10.462   4.241
 6109SOL     OW20159   4.883   7.842   2.862
 6109SOL    HW120160   4.933   7.886   2.931
 6109SOL    HW220161   4.946   7.782   2.822
 6110SOL     OW20162   9.567  11.069  10.445
 6110SOL    HW120163   9.518  11.060  10.364
 6110SOL    HW220164   9.587  11.163  10.451
 6111SOL     OW20165   9.560   6.422   3.760
 6111SOL    HW120166   9.623   6.351   3.747
 6111SOL    HW220167   9.480   6.378   3.790
 6112SOL     OW20168   5.450  14.849   9.747
 6112SOL    HW120169   5.498   0.046   9.780
 6112SOL    HW220170   5.454  14.858   9.652
 6113SOL     OW20171   9.764  13.818   3.986
 6113SOL    HW120172   9.782  13.912   3.990
 6113SOL    HW220173   9.684  13.807   4.038
 6114SOL     OW20174   6.482  11.886  12.077
 6114SOL    HW120175   6.540  11.904  12.151
 6114SOL    HW220176   6.401  11.932  12.098
 6115SOL     OW20177  11.180   7.129   5.851
 6115SOL    HW120178  11.119   7.059   5.872
 6115SOL    HW220179  11.207   7.111   5.761
 6116SOL     OW20180   2.939   5.837   7.422
 6116SOL    HW120181   2.869   5.827   7.358
 6116SOL    HW220182   2.931   5.759   7.478
 6117SOL     OW20183  13.906   1.211   6.724
 6117SOL    HW120184  13.872   1.301   6.725
 6117SOL    HW220185  13.975   1.211   6.790
 6118SOL     OW20186   0.817   2.631   4.121
 6118SOL    HW120187   0.747   2.592   4.173
 6118SOL    HW220188   0.878   2.666   4.185
 6119SOL     OW20189   8.339  11.650   5.138
 6119SOL    HW120190   8.347  11.611   5.051
 6119SOL    HW220191   8.356  11.578   5.198
 6120SOL     OW20192  11.118   7.337   3.225
 6120SOL    HW120193  11.184   7.298   3.168
 6120SOL    HW220194  11.167   7.378   3.296
 6121SOL     OW20195   2.764   8.824   4.114
 6121SOL    HW120196   2.698   8.801   4.179
 6121SOL    HW220197   2.763   8.920   4.112
 6122SOL     OW20198   7.869   4.696   7.290
 6122SOL    HW120199   7.836   4.684   7.379
 6122SOL    HW220200   7.958   4.661   7.293
 6123SOL     OW20201   6.699  14.707   7.851
 6123SOL    HW120202   6.697  14.640   7.920
 6123SOL    HW220203   6.613  14.701   7.809
 6124SOL     OW20204  10.720   3.291   2.689
 6124SOL    HW120205  10.633   3.285   2.729
 6124SOL    HW220206  10.702   3.304   2.595
 6125SOL     OW20207   4.544   3.534   0.043
 6125SOL    HW120208   4.496   3.471   0.096
 6125SOL    HW220209   4.635   3.506   0.049
 6126SOL     OW20210  14.162   2.886  12.527
 6126SOL    HW120211  14.231   2.860  12.588
 6126SOL    HW220212  14.166   2.981  12.524
 6127SOL     OW20213  12.257  10.403  12.941
 6127SOL    HW120214  12.186  10.360  12.894
 6127SOL    HW220215  12.332  10.346  12.929
 6128SOL     OW20216   8.316   2.649   2.779
 6128SOL    HW120217   8.245   2.610   2.829
 6128SOL    HW220218   8.375   2.686   2.846
 6129SOL     OW20219  10.749  10.126   4.037
 6129SOL    HW120220  10.670  10.160   3.996
 6129SOL    HW220221  10.740  10.148   4.129
 6130SOL     OW20222   4.226   5.705   7.810
 6130SOL    HW120223   4.284   5.630   7.797
 6130SOL    HW220224   4.259   5.772   7.751
 6131SOL     OW20225   5.244   9.791   4.273
 6131SOL    HW120226   5.238   9.766   4.365
 6131SOL    HW220227   5.331   9.760   4.245
 6132SOL     OW20228   6.927  14.400  12.183
 6132SOL    HW120229   6.960  14.417  12.272
 6132SOL    HW220230   6.899  14.486  12.152
 6133SOL     OW20231   7.973   9.309  10.245
 6133SOL    HW120232   7.982   9.320  10.340
 6133SOL    HW220233   8.043   9.364  10.208
 6134SOL     OW20234   9.952   5.806   9.879
 6134SOL    HW120235   9.897   5.844   9.811
 6134SOL    HW220236  10.039   5.842   9.862
 6135SOL     OW20237   9.243  11.579   7.943
 6135SOL    HW120238   9.267  11.566   8.034
 6135SOL    HW220239   9.323  11.612   7.901
 6136SOL     OW20240   0.860   1.939   7.225
 6136SOL    HW120241   0.783   1.918   7.173
 6136SOL    HW220242   0.834   2.015   7.277
 6137SOL     OW20243  14.643   7.728   0.922
 6137SOL    HW120244  14.663   7.635   0.929
 6137SOL    HW220245  14.697   7.770   0.989
 6138SOL     OW20246  12.702  13.931  12.615
 6138SOL    HW120247  12.749  13.864  12.566
 6138SOL    HW220248  12.616  13.937  12.573
 6139SOL     OW20249   3.788   6.997   1.390
 6139SOL    HW120250   3.859   6.943   1.426
 6139SOL    HW220251   3.712   6.939   1.388
 6140SOL     OW20252   8.936   9.319   1.738
 6140SOL    HW120253   8.999   9.257   1.702
 6140SOL    HW220254   8.938   9.394   1.679
 6141SOL     OW20255   2.020   9.839  11.403
 6141SOL    HW120256   1.987   9.756  11.370
 6141SOL    HW220257   2.097   9.815  11.454
 6142SOL     OW20258   5.916   2.355  13.977
 6142SOL    HW120259   5.995   2.308  14.005
 6142SOL    HW220260   5.867   2.368  14.058
 6143SOL     OW20261  13.420  13.011   5.999
 6143SOL    HW120262  13.467  13.061   6.066
 6143SOL    HW220263  13.388  13.078   5.938
 6144SOL     OW20264   6.051  14.343   0.592
 6144SOL    HW120265   6.055  14.395   0.512
 6144SOL    HW220266   6.128  14.286   0.587
 6145SOL     OW20267  14.242   8.118   7.475
 6145SOL    HW120268  14.193   8.163   7.543
 6145SOL    HW220269  14.242   8.179   7.401
 6146SOL     OW20270  14.390   1.333   9.776
 6146SOL    HW120271  14.394   1.305   9.868
 6146SOL    HW220272  14.480   1.359   9.755
 6147SOL     OW20273   2.762   3.955  13.909
 6147SOL    HW120274   2.672   3.988  13.913
 6147SOL    HW220275   2.784   3.933  14.000
 6148SOL     OW20276  12.185   7.518   3.655
 6148SOL    HW120277  12.242   7.495   3.581
 6148SOL    HW220278  12.109   7.559   3.614
 6149SOL     OW20279   6.952   9.633   3.345
 6149SOL    HW120280   7.027   9.659   3.291
 6149SOL    HW220281   6.992   9.609   3.429
 6150SOL     OW20282  10.322   2.895  11.951
 6150SOL    HW120283  10.351   2.805  11.965
 6150SOL    HW220284  10.291   2.896  11.861
 6151SOL     OW20285  12.192   3.035  10.051
 6151SOL    HW120286  12.181   3.018   9.957
 6151SOL    HW220287  12.285   3.054  10.061
 6152SOL     OW20288   6.854  13.090  12.921
 6152SOL    HW120289   6.809  13.024  12.869
 6152SOL    HW220290   6.872  13.161  12.860
 6153SOL     OW20291   2.853   7.148  10.201
 6153SOL    HW120292   2.779   7.198  10.167
 6153SOL    HW220293   2.825   7.056  10.196
 6154SOL     OW20294   3.271  13.140   4.304
 6154SOL    HW120295   3.224  13.138   4.221
 6154SOL    HW220296   3.326  13.218   4.298
 6155SOL     OW20297  14.301   5.493   9.000
 6155SOL    HW120298  14.273   5.584   8.999
 6155SOL    HW220299  14.231   5.445   8.956
 6156SOL     OW20300   8.447  10.708   8.316
 6156SOL    HW120301   8.454  10.708   8.221
 6156SOL    HW220302   8.360  10.673   8.334
 6157SOL     OW20303  11.699  13.790   2.122
 6157SOL    HW120304  11.677  13.739   2.044
 6157SOL    HW220305  11.692  13.881   2.095
 6158SOL     OW20306   3.167   5.584  12.449
 6158SOL    HW120307   3.225   5.516  12.483
 6158SOL    HW220308   3.089   5.537  12.420
 6159SOL     OW20309   2.461   2.266   5.904
 6159SOL    HW120310   2.398   2.239   5.838
 6159SOL    HW220311   2.545   2.267   5.859
 6160SOL     OW20312  11.858  10.089   6.788
 6160SOL    HW120313  11.798  10.023   6.756
 6160SOL    HW220314  11.914  10.042   6.851
 6161SOL     OW20315   7.318  10.510  14.674
 6161SOL    HW120316   7.394  10.534  14.727
 6161SOL    HW220317   7.265  10.590  14.673
 6162SOL     OW20318  10.774   4.955   3.816
 6162SOL    HW120319  10.865   4.928   3.827
 6162SOL    HW220320  10.780   5.045   3.784
 6163SOL     OW20321   1.954   1.777   3.148
 6163SOL    HW120322   1.984   1.713   3.084
 6163SOL    HW220323   2.035   1.817   3.181
 6164SOL     OW20324  11.506   0.444   1.364
 6164SOL    HW120325  11.476   0.421   1.451
 6164SOL    HW220326  11.600   0.458   1.374
 6165SOL     OW20327   8.263   4.634   4.722
 6165SOL    HW120328   8.198   4.703   4.734
 6165SOL    HW220329   8.305   4.654   4.638
 6166SOL     OW20330   7.795  11.740   6.897
 6166SOL    HW120331   7.821  11.690   6.975
 6166SOL    HW220332   7.796  11.831   6.926
 6167SOL     OW20333   7.079   5.485  13.239
 6167SOL    HW120334   7.036   5.555  13.287
 6167SOL    HW220335   7.013   5.416  13.232
 6168SOL     OW20336   5.038   0.906  10.144
 6168SOL    HW120337   4.973   0.962  10.186
 6168SOL    HW220338   5.112   0.905  10.205
 6169SOL     OW20339   0.529  13.325  13.749
 6169SOL    HW120340   0.557  13.277  13.827
 6169SOL    HW220341   0.435  13.311  13.745
 6170SOL     OW20342   3.272   9.260  11.927
 6170SOL    HW120343   3.277   9.326  11.857
 6170SOL    HW220344   3.240   9.309  12.003
 6171SOL     OW20345   1.998   4.495   3.448
 6171SOL    HW120346   1.928   4.459   3.393
 6171SOL    HW220347   1.990   4.590   3.439
 6172SOL     OW20348  14.300  14.574   9.313
 6172SOL    HW120349  14.297  14.486   9.351
 6172SOL    HW220350  14.303  14.559   9.218
 6173SOL     OW20351   1.988  11.914   7.490
 6173SOL    HW120352   2.000  11.999   7.534
 6173SOL    HW220353   1.954  11.937   7.404
 6174SOL     OW20354  13.906   7.064   2.611
 6174SOL    HW120355  13.834   7.034   2.666
 6174SOL    HW220356  13.933   6.985   2.563
 6175SOL     OW20357  13.391  14.359   6.742
 6175SOL    HW120358  13.399  14.404   6.657
 6175SOL    HW220359  13.481  14.337   6.766
 6176SOL     OW20360   5.526  11.638   2.471
 6176SOL    HW120361   5.505  11.581   2.397
 6176SOL    HW220362   5.504  11.586   2.548
 6177SOL     OW20363   4.019   1.448   0.884
 6177SOL    HW120364   3.997   1.535   0.917
 6177SOL    HW220365   4.058   1.402   0.958
 6178SOL     OW20366   9.014  11.822  13.589
 6178SOL    HW120367   9.089  11.829  13.648
 6178SOL    HW220368   8.939  11.848  13.643
 6179SOL     OW20369  13.750   8.902   5.930
 6179SOL    HW120370  13.712   8.869   6.012
 6179SOL    HW220371  13.768   8.824   5.879
 6180SOL     OW20372  11.227   2.662  10.984
 6180SOL    HW120373  11.196   2.753  10.990
 6180SOL    HW220374  11.192   2.630  10.901
 6181SOL     OW20375  10.516  12.085  10.105
 6181SOL    HW120376  10.536  12.066  10.197
 6181SOL    HW220377  10.601  12.085  10.062
 6182SOL     OW20378   1.645   0.247  11.105
 6182SOL    HW120379   1.696   0.327  11.121
 6182SOL    HW220380   1.692   0.178  11.151
 6183SOL     OW20381  10.046  14.785   7.172
 6183SOL    HW120382   9.955  14.806   7.153
 6183SOL    HW220383  10.041  14.724   7.246
 6184SOL     OW20384  11.365   0.879   8.216
 6184SOL    HW120385  11.280   0.851   8.183
 6184SOL    HW220386  11.429   0.828   8.166
 6185SOL     OW20387   4.088  12.326  14.098
 6185SOL    HW120388   4.014  12.388  14.105
 6185SOL    HW220389   4.092  12.284  14.183
 6186SOL     OW20390   5.553   7.270  11.109
 6186SOL    HW120391   5.490   7.321  11.058
 6186SOL    HW220392   5.637   7.313  11.091
 6187SOL     OW20393   0.356  14.462   9.434
 6187SOL    HW120394   0.268  14.457   9.396
 6187SOL    HW220395   0.409  14.404   9.379
 6188SOL     OW20396   8.239   7.526   0.623
 6188SOL    HW120397   8.223   7.596   0.560
 6188SOL    HW220398   8.332   7.505   0.613
 6189SOL     OW20399  11.007   7.892  11.520
 6189SOL    HW120400  11.018   7.971  11.467
 6189SOL    HW220401  11.061   7.908  11.598
 6190SOL     OW20402   8.138   0.922   2.296
 6190SOL    HW120403   8.105   1.006   2.263
 6190SOL    HW220404   8.064   0.862   2.287
 6191SOL     OW20405   5.760   9.484   5.969
 6191SOL    HW120406   5.851   9.513   5.968
 6191SOL    HW220407   5.730   9.496   5.879
 6192SOL     OW20408   5.807   2.103   5.371
 6192SOL    HW120409   5.826   2.013   5.397
 6192SOL    HW220410   5.892   2.141   5.352
 6193SOL     OW20411   4.781   6.501   2.786
 6193SOL    HW120412   4.744   6.418   2.756
 6193SOL    HW220413   4.708   6.545   2.830
 6194SOL     OW20414   0.965   8.376  11.825
 6194SOL    HW120415   0.959   8.375  11.920
 6194SOL    HW220416   0.876   8.354  11.795
 6195SOL     OW20417   6.099   1.772   8.085
 6195SOL    HW120418   6.070   1.711   8.153
 6195SOL    HW220419   6.019   1.795   8.038
 6196SOL     OW20420  13.603   5.419   8.241
 6196SOL    HW120421  13.651   5.425   8.158
 6196SOL    HW220422  13.593   5.325   8.257
 6197SOL     OW20423   7.240   7.973   5.685
 6197SOL    HW120424   7.284   7.922   5.617
 6197SOL    HW220425   7.198   7.908   5.741
 6198SOL     OW20426   1.004  13.787  12.093
 6198SOL    HW120427   1.062  13.711  12.095
 6198SOL    HW220428   0.979  13.802  12.184
 6199SOL     OW20429   5.131   8.807  11.627
 6199SOL    HW120430   5.088   8.725  11.601
 6199SOL    HW220431   5.223   8.793  11.602
 6200SOL     OW20432   8.615   4.537   8.198
 6200SOL    HW120433   8.616   4.581   8.113
 6200SOL    HW220434   8.546   4.471   8.191
 6201SOL     OW20435   8.303   9.707   7.607
 6201SOL    HW120436   8.335   9.671   7.524
 6201SOL    HW220437   8.380   9.706   7.664
 6202SOL     OW20438   8.383  13.798  11.100
 6202SOL    HW120439   8.382  13.763  11.189
 6202SOL    HW220440   8.292  13.793  11.071
 6203SOL     OW20441   6.006   1.960   1.587
 6203SOL    HW120442   6.042   1.874   1.611
 6203SOL    HW220443   5.930   1.940   1.532
 6204SOL     OW20444  12.679   0.803   3.473
 6204SOL    HW120445  12.617   0.812   3.401
 6204SOL    HW220446  12.656   0.719   3.513
 6205SOL     OW20447   5.609   1.104   0.828
 6205SOL    HW120448   5.594   1.140   0.915
 6205SOL    HW220449   5.528   1.120   0.781
 6206SOL     OW20450   3.554   9.380   3.045
 6206SOL    HW120451   3.601   9.462   3.058
 6206SOL    HW220452   3.573   9.329   3.123
 6207SOL     OW20453   0.373  11.134   7.652
 6207SOL    HW120454   0.411  11.055   7.690
 6207SOL    HW220455   0.290  11.145   7.697
 6208SOL     OW20456   6.544  12.603   9.182
 6208SOL    HW120457   6.451  12.602   9.161
 6208SOL    HW220458   6.586  12.556   9.110
 6209SOL     OW20459   7.798   4.698   3.669
 6209SOL    HW120460   7.736   4.740   3.609
 6209SOL    HW220461   7.790   4.605   3.651
 6210SOL     OW20462   7.188  13.669  11.711
 6210SOL    HW120463   7.138  13.588  11.717
 6210SOL    HW220464   7.278  13.644  11.730
 6211SOL     OW20465   8.114  13.806   5.701
 6211SOL    HW120466   8.150  13.879   5.753
 6211SOL    HW220467   8.025  13.834   5.679
 6212SOL     OW20468   2.835  10.677   0.692
 6212SOL    HW120469   2.920  10.720   0.679
 6212SOL    HW220470   2.856  10.599   0.743
 6213SOL     OW20471   9.868   2.844   8.865
 6213SOL    HW120472   9.862   2.780   8.794
 6213SOL    HW220473   9.846   2.794   8.943
 6214SOL     OW20474   0.020  10.519   9.370
 6214SOL    HW120475   0.115  10.526   9.380
 6214SOL    HW220476   0.007  10.435   9.325
 6215SOL     OW20477  13.609   6.130  13.490
 6215SOL    HW120478  13.599   6.220  13.523
 6215SOL    HW220479  13.520   6.096  13.486
 6216SOL     OW20480  13.610   7.699  14.845
 6216SOL    HW120481  13.688   7.702  14.789
 6216SOL    HW220482  13.591   7.606  14.855
 6217SOL     OW20483   4.199   0.716   6.368
 6217SOL    HW120484   4.127   0.713   6.305
 6217SOL    HW220485   4.243   0.799   6.351
 6218SOL     OW20486   7.822   7.538  12.677
 6218SOL    HW120487   7.816   7.486  12.597
 6218SOL    HW220488   7.912   7.525  12.707
 6219SOL     OW20489   4.521   0.744  10.689
 6219SOL    HW120490   4.541   0.742  10.783
 6219SOL    HW220491   4.494   0.655  10.668
 6220SOL     OW20492   6.159  12.151   6.146
 6220SOL    HW120493   6.245  12.114   6.166
 6220SOL    HW220494   6.155  12.154   6.050
 6221SOL     OW20495   2.824   2.139  12.892
 6221SOL    HW120496   2.838   2.165  12.801
 6221SOL    HW220497   2.780   2.054  12.886
 6222SOL     OW20498   9.607  10.602   2.359
 6222SOL    HW120499   9.674  10.580   2.295
 6222SOL    HW220500   9.533  10.633   2.307
 6223SOL     OW20501   0.013   2.711  10.833
 6223SOL    HW120502  14.873   2.623  10.800
 6223SOL    HW220503  14.872   2.706  10.926
 6224SOL     OW20504  10.882  12.770   3.336
 6224SOL    HW120505  10.873  12.830   3.262
 6224SOL    HW220506  10.804  12.716   3.333
 6225SOL     OW20507  10.716  11.062  13.058
 6225SOL    HW120508  10.756  11.004  12.992
 6225SOL    HW220509  10.696  11.143  13.010
 6226SOL     OW20510   8.903   4.635   8.938
 6226SOL    HW120511   8.869   4.569   8.878
 6226SOL    HW220512   8.989   4.601   8.964
 6227SOL     OW20513  11.553   8.441   3.917
 6227SOL    HW120514  11.467   8.438   3.958
 6227SOL    HW220515  11.592   8.356   3.936
 6228SOL     OW20516   6.929   7.186   3.815
 6228SOL    HW120517   6.893   7.275   3.811
 6228SOL    HW220518   6.945   7.171   3.908
 6229SOL     OW20519   0.039   7.679   8.871
 6229SOL    HW120520  14.830   7.664   8.905
 6229SOL    HW220521   0.091   7.702   8.948
 6230SOL     OW20522  13.129   6.744   3.078
 6230SOL    HW120523  13.065   6.803   3.116
 6230SOL    HW220524  13.192   6.802   3.034
 6231SOL     OW20525   0.826   2.855   2.921
 6231SOL    HW120526   0.849   2.940   2.884
 6231SOL    HW220527   0.730   2.851   2.913
 6232SOL     OW20528   5.962   2.468   7.973
 6232SOL    HW120529   5.919   2.386   7.948
 6232SOL    HW220530   6.025   2.485   7.903
 6233SOL     OW20531   8.957  12.438  11.448
 6233SOL    HW120532   8.964  12.396  11.362
 6233SOL    HW220533   8.901  12.378  11.499
 6234SOL     OW20534   3.256   0.474  11.130
 6234SOL    HW120535   3.256   0.555  11.182
 6234SOL    HW220536   3.172   0.477  11.083
 6235SOL     OW20537  13.486   7.747  10.006
 6235SOL    HW120538  13.576   7.739  10.035
 6235SOL    HW220539  13.485   7.706   9.919
 6236SOL     OW20540   6.715  14.845   3.276
 6236SOL    HW120541   6.750   0.021   3.207
 6236SOL    HW220542   6.622  14.867   3.279
 6237SOL     OW20543   0.972   1.152   6.818
 6237SOL    HW120544   1.024   1.108   6.885
 6237SOL    HW220545   1.005   1.116   6.735
 6238SOL     OW20546  13.841   4.847   3.277
 6238SOL    HW120547  13.933   4.821   3.279
 6238SOL    HW220548  13.839   4.932   3.322
 6239SOL     OW20549   4.263  11.452  10.209
 6239SOL    HW120550   4.232  11.418  10.125
 6239SOL    HW220551   4.216  11.400  10.274
 6240SOL     OW20552   4.318   6.175  14.285
 6240SOL    HW120553   4.256   6.210  14.221
 6240SOL    HW220554   4.404   6.188  14.245
 6241SOL     OW20555  11.286  14.646   9.658
 6241SOL    HW120556  11.269  14.639   9.564
 6241SOL    HW220557  11.331  14.564   9.680
 6242SOL     OW20558   1.904  12.740   0.006
 6242SOL    HW120559   1.896  12.648  14.857
 6242SOL    HW220560   1.995  12.749   0.034
 6243SOL     OW20561  10.787   7.498   7.002
 6243SOL    HW120562  10.772   7.569   6.940
 6243SOL    HW220563  10.850   7.441   6.958
 6244SOL     OW20564  14.701   1.166   6.850
 6244SOL    HW120565  14.725   1.258   6.840
 6244SOL    HW220566  14.624   1.167   6.906
 6245SOL     OW20567  14.367   5.505   8.398
 6245SOL    HW120568  14.388   5.467   8.313
 6245SOL    HW220569  14.391   5.436   8.461
 6246SOL     OW20570  12.357   8.177   1.519
 6246SOL    HW120571  12.308   8.256   1.541
 6246SOL    HW220572  12.445   8.208   1.497
 6247SOL     OW20573  10.363  13.133   7.470
 6247SOL    HW120574  10.397  13.215   7.437
 6247SOL    HW220575  10.440  13.081   7.493
 6248SOL     OW20576   6.061   3.370   8.466
 6248SOL    HW120577   6.153   3.342   8.472
 6248SOL    HW220578   6.011   3.296   8.500
 6249SOL     OW20579  10.604   8.738  14.595
 6249SOL    HW120580  10.562   8.691  14.524
 6249SOL    HW220581  10.609   8.829  14.563
 6250SOL     OW20582   3.651   8.694   0.055
 6250SOL    HW120583   3.569   8.646   0.065
 6250SOL    HW220584   3.624   8.784   0.035
 6251SOL     OW20585  10.859   4.393   4.965
 6251SOL    HW120586  10.837   4.461   4.901
 6251SOL    HW220587  10.939   4.425   5.007
 6252SOL     OW20588   9.867  11.858  14.729
 6252SOL    HW120589   9.792  11.886  14.781
 6252SOL    HW220590   9.856  11.763  14.720
 6253SOL     OW20591  13.904  14.009   9.946
 6253SOL    HW120592  13.871  13.980  10.031
 6253SOL    HW220593  13.853  13.960   9.882
 6254SOL     OW20594  12.135   1.899   5.445
 6254SOL    HW120595  12.159   1.905   5.538
 6254SOL    HW220596  12.219   1.892   5.399
 6255SOL     OW20597   9.087  11.874   8.143
 6255SOL    HW120598   9.044  11.809   8.087
 6255SOL    HW220599   9.020  11.900   8.206
 6256SOL     OW20600  10.740  10.244  13.592
 6256SOL    HW120601  10.766  10.251  13.684
 6256SOL    HW220602  10.686  10.321  13.576
 6257SOL     OW20603   2.392  10.709   5.718
 6257SOL    HW120604   2.393  10.788   5.771
 6257SOL    HW220605   2.326  10.725   5.651
 6258SOL     OW20606   2.820   2.002   7.642
 6258SOL    HW120607   2.892   1.943   7.664
 6258SOL    HW220608   2.826   2.013   7.547
 6259SOL     OW20609  12.015   4.896  10.521
 6259SOL    HW120610  11.941   4.949  10.549
 6259SOL    HW220611  12.071   4.956  10.472
 6260SOL     OW20612   3.005  11.475  14.672
 6260SOL    HW120613   2.965  11.390  14.651
 6260SOL    HW220614   3.038  11.464  14.761
 6261SOL     OW20615  12.775   4.202  12.986
 6261SOL    HW120616  12.868   4.177  12.993
 6261SOL    HW220617  12.766   4.237  12.898
 6262SOL     OW20618   8.184   4.999   4.457
 6262SOL    HW120619   8.249   5.003   4.527
 6262SOL    HW220620   8.147   4.911   4.464
 6263SOL     OW20621  14.536   6.590   5.903
 6263SOL    HW120622  14.606   6.577   5.967
 6263SOL    HW220623  14.575   6.564   5.819
 6264SOL     OW20624   2.410   5.333   9.898
 6264SOL    HW120625   2.362   5.269   9.950
 6264SOL    HW220626   2.448   5.282   9.826
 6265SOL     OW20627   8.969   2.950   6.348
 6265SOL    HW120628   9.008   2.992   6.272
 6265SOL    HW220629   8.911   3.017   6.384
 6266SOL     OW20630  12.694  13.686   3.207
 6266SOL    HW120631  12.678  13.776   3.178
 6266SOL    HW220632  12.717  13.695   3.300
 6267SOL     OW20633  10.139   1.691   5.352
 6267SOL    HW120634  10.154   1.721   5.441
 6267SOL    HW220635  10.048   1.716   5.333
 6268SOL     OW20636  10.718  10.918   5.433
 6268SOL    HW120637  10.775  10.964   5.494
 6268SOL    HW220638  10.753  10.829   5.428
 6269SOL     OW20639   4.059   4.735  11.950
 6269SOL    HW120640   4.024   4.771  12.031
 6269SOL    HW220641   3.983   4.725  11.893
 6270SOL     OW20642  11.393  14.090   2.258
 6270SOL    HW120643  11.461  14.115   2.321
 6270SOL    HW220644  11.363  14.173   2.221
 6271SOL     OW20645  13.500   7.614   1.814
 6271SOL    HW120646  13.572   7.608   1.752
 6271SOL    HW220647  13.464   7.525   1.818
 6272SOL     OW20648   9.385   0.126   3.078
 6272SOL    HW120649   9.375   0.117   3.173
 6272SOL    HW220650   9.480   0.124   3.064
 6273SOL     OW20651   7.708   0.132   0.586
 6273SOL    HW120652   7.738   0.178   0.507
 6273SOL    HW220653   7.617   0.158   0.596
 6274SOL     OW20654   1.541   7.174   4.920
 6274SOL    HW120655   1.526   7.246   4.981
 6274SOL    HW220656   1.479   7.106   4.946
 6275SOL     OW20657   3.920   5.376   0.906
 6275SOL    HW120658   3.938   5.469   0.895
 6275SOL    HW220659   3.865   5.370   0.984
 6276SOL     OW20660   5.064  14.320  11.692
 6276SOL    HW120661   5.093  14.409  11.670
 6276SOL    HW220662   5.013  14.293  11.616
 6277SOL     OW20663   1.120   3.889   4.713
 6277SOL    HW120664   1.161   3.853   4.634
 6277SOL    HW220665   1.068   3.816   4.747
 6278SOL     OW20666   3.623  12.984   2.041
 6278SOL    HW120667   3.585  13.052   1.985
 6278SOL    HW220668   3.550  12.953   2.094
 6279SOL     OW20669  11.753   0.063  12.282
 6279SOL    HW120670  11.830   0.055  12.227
 6279SOL    HW220671  11.709   0.142  12.251
 6280SOL     OW20672  11.759   0.298   1.055
 6280SOL    HW120673  11.667   0.321   1.056
 6280SOL    HW220674  11.787   0.315   0.965
 6281SOL     OW20675  12.440   0.649   4.164
 6281SOL    HW120676  12.530   0.642   4.196
 6281SOL    HW220677  12.433   0.737   4.128
 6282SOL     OW20678   0.573   3.221  14.005
 6282SOL    HW120679   0.549   3.313  13.991
 6282SOL    HW220680   0.637   3.225  14.076
 6283SOL     OW20681   3.023   2.763   8.291
 6283SOL    HW120682   3.025   2.852   8.258
 6283SOL    HW220683   3.029   2.772   8.386
 6284SOL     OW20684   2.237  13.455   1.973
 6284SOL    HW120685   2.183  13.514   1.920
 6284SOL    HW220686   2.320  13.449   1.925
 6285SOL     OW20687   5.031   6.867   1.043
 6285SOL    HW120688   5.107   6.843   1.096
 6285SOL    HW220689   5.045   6.959   1.020
 6286SOL     OW20690   3.337   1.479   1.757
 6286SOL    HW120691   3.309   1.553   1.704
 6286SOL    HW220692   3.271   1.472   1.826
 6287SOL     OW20693  12.804   1.628   2.112
 6287SOL    HW120694  12.874   1.685   2.081
 6287SOL    HW220695  12.733   1.688   2.136
 6288SOL     OW20696   3.271   3.727   6.255
 6288SOL    HW120697   3.304   3.660   6.195
 6288SOL    HW220698   3.350   3.766   6.292
 6289SOL     OW20699  13.168  10.397   4.934
 6289SOL    HW120700  13.108  10.453   4.984
 6289SOL    HW220701  13.126  10.390   4.848
 6290SOL     OW20702  10.591   0.478  12.419
 6290SOL    HW120703  10.505   0.519  12.415
 6290SOL    HW220704  10.585   0.403  12.360
 6291SOL     OW20705   3.351  14.253   3.224
 6291SOL    HW120706   3.401  14.301   3.157
 6291SOL    HW220707   3.260  14.279   3.210
 6292SOL     OW20708   3.796  14.410  10.867
 6292SOL    HW120709   3.889  14.415  10.846
 6292SOL    HW220710   3.770  14.322  10.840
 6293SOL     OW20711  12.230   0.946   5.274
 6293SOL    HW120712  12.210   0.968   5.183
 6293SOL    HW220713  12.200   0.855   5.283
 6294SOL     OW20714   4.403   3.819   5.821
 6294SOL    HW120715   4.491   3.783   5.824
 6294SOL    HW220716   4.410   3.905   5.862
 6295SOL     OW20717  14.264   9.591   2.927
 6295SOL    HW120718  14.285   9.520   2.867
 6295SOL    HW220719  14.326   9.660   2.905
 6296SOL     OW20720   2.485   1.745   5.810
 6296SOL    HW120721   2.510   1.813   5.872
 6296SOL    HW220722   2.392   1.729   5.829
 6297SOL     OW20723   7.279   0.375   2.058
 6297SOL    HW120724   7.306   0.354   2.147
 6297SOL    HW220725   7.185   0.362   2.057
 6298SOL     OW20726   7.072   8.481  14.855
 6298SOL    HW120727   7.098   8.573  14.861
 6298SOL    HW220728   7.012   8.477  14.781
 6299SOL     OW20729  10.680   4.760  12.428
 6299SOL    HW120730  10.765   4.741  12.389
 6299SOL    HW220731  10.668   4.692  12.495
 6300SOL     OW20732  10.964   9.138  14.080
 6300SOL    HW120733  10.905   9.072  14.117
 6300SOL    HW220734  11.013   9.092  14.013
 6301SOL     OW20735   5.806   1.739   9.520
 6301SOL    HW120736   5.899   1.733   9.499
 6301SOL    HW220737   5.764   1.678   9.459
 6302SOL     OW20738  13.513   6.172   8.885
 6302SOL    HW120739  13.482   6.262   8.882
 6302SOL    HW220740  13.579   6.166   8.816
 6303SOL     OW20741   1.043   5.296   7.496
 6303SOL    HW120742   0.967   5.346   7.524
 6303SOL    HW220743   1.008   5.209   7.475
 6304SOL     OW20744  13.435   2.424   8.408
 6304SOL    HW120745  13.490   2.466   8.474
 6304SOL    HW220746  13.348   2.461   8.422
 6305SOL     OW20747  10.309   7.020   0.343
 6305SOL    HW120748  10.222   7.052   0.367
 6305SOL    HW220749  10.362   7.099   0.333
 6306SOL     OW20750   4.711  10.363   8.232
 6306SOL    HW120751   4.767  10.286   8.220
 6306SOL    HW220752   4.632  10.329   8.274
 6307SOL     OW20753   1.058   2.238   0.323
 6307SOL    HW120754   1.053   2.165   0.385
 6307SOL    HW220755   1.061   2.196   0.237
 6308SOL     OW20756   1.988  13.669  10.188
 6308SOL    HW120757   2.079  13.675  10.157
 6308SOL    HW220758   1.940  13.630  10.115
 6309SOL     OW20759   9.335  14.127   2.256
 6309SOL    HW120760   9.340  14.222   2.250
 6309SOL    HW220761   9.427  14.098   2.252
 6310SOL     OW20762   3.983  12.972   8.070
 6310SOL    HW120763   4.047  12.923   8.120
 6310SOL    HW220764   3.912  12.909   8.055
 6311SOL     OW20765   2.533   4.145  11.657
 6311SOL    HW120766   2.533   4.237  11.685
 6311SOL    HW220767   2.623   4.116  11.672
 6312SOL     OW20768   7.875   7.042  11.073
 6312SOL    HW120769   7.885   7.006  11.161
 6312SOL    HW220770   7.910   7.131  11.079
 6313SOL     OW20771  14.824   8.713  10.416
 6313SOL    HW120772  14.769   8.662  10.356
 6313SOL    HW220773  14.865   8.648  10.473
 6314SOL     OW20774   8.227   5.075   0.268
 6314SOL    HW120775   8.172   5.098   0.192
 6314SOL    HW220776   8.250   5.159   0.307
 6315SOL     OW20777   6.907   1.439   1.875
 6315SOL    HW120778   6.997   1.438   1.843
 6315SOL    HW220779   6.881   1.346   1.876
 6316SOL     OW20780   5.661   6.287   6.945
 6316SOL    HW120781   5.638   6.260   7.034
 6316SOL    HW220782   5.616   6.370   6.934
 6317SOL     OW20783   0.770   3.998  13.723
 6317SOL    HW120784   0.856   4.035  13.703
 6317SOL    HW220785   0.728   4.065  13.777
 6318SOL     OW20786  11.588  10.572   5.197
 6318SOL    HW120787  11.544  10.520   5.265
 6318SOL    HW220788  11.673  10.530   5.187
 6319SOL     OW20789   9.229  11.686   2.877
 6319SOL    HW120790   9.239  11.616   2.812
 6319SOL    HW220791   9.184  11.645   2.950
 6320SOL     OW20792   5.416   9.504   4.563
 6320SOL    HW120793   5.450   9.424   4.605
 6320SOL    HW220794   5.323   9.487   4.550
 6321SOL     OW20795   3.135   3.849   0.587
 6321SOL    HW120796   3.135   3.753   0.591
 6321SOL    HW220797   3.124   3.869   0.494
 6322SOL     OW20798   4.878   3.977  13.422
 6322SOL    HW120799   4.947   3.952  13.484
 6322SOL    HW220800   4.925   4.022  13.351
 6323SOL     OW20801   2.847   2.398   4.630
 6323SOL    HW120802   2.851   2.450   4.550
 6323SOL    HW220803   2.922   2.339   4.623
 6324SOL     OW20804  14.098   5.996   2.292
 6324SOL    HW120805  14.105   5.931   2.222
 6324SOL    HW220806  14.103   6.080   2.247
 6325SOL     OW20807  10.261   7.496  11.703
 6325SOL    HW120808  10.339   7.462  11.747
 6325SOL    HW220809  10.271   7.591  11.706
 6326SOL     OW20810   6.615  12.830   8.742
 6326SOL    HW120811   6.641  12.739   8.756
 6326SOL    HW220812   6.552  12.847   8.812
 6327SOL     OW20813   4.343   9.979   2.953
 6327SOL    HW120814   4.393   9.899   2.933
 6327SOL    HW220815   4.359   9.993   3.047
 6328SOL     OW20816   6.685   2.120   0.345
 6328SOL    HW120817   6.648   2.060   0.410
 6328SOL    HW220818   6.645   2.205   0.365
 6329SOL     OW20819   0.900   0.253  11.125
 6329SOL    HW120820   0.835   0.290  11.066
 6329SOL    HW220821   0.856   0.249  11.210
 6330SOL     OW20822  14.032  13.177   9.812
 6330SOL    HW120823  14.090  13.211   9.879
 6330SOL    HW220824  14.081  13.187   9.730
 6331SOL     OW20825   8.477   3.355  10.776
 6331SOL    HW120826   8.430   3.280  10.740
 6331SOL    HW220827   8.543   3.316  10.834
 6332SOL     OW20828  13.201  12.253   0.013
 6332SOL    HW120829  13.128  12.252   0.074
 6332SOL    HW220830  13.212  12.345  14.868
 6333SOL     OW20831   0.394   3.610   0.968
 6333SOL    HW120832   0.434   3.656   0.894
 6333SOL    HW220833   0.306   3.647   0.974
 6334SOL     OW20834  12.699   6.786   7.530
 6334SOL    HW120835  12.722   6.804   7.439
 6334SOL    HW220836  12.604   6.802   7.534
 6335SOL     OW20837   1.097   6.272  13.048
 6335SOL    HW120838   1.119   6.183  13.075
 6335SOL    HW220839   1.146   6.328  13.108
 6336SOL     OW20840   4.544  13.796   0.068
 6336SOL    HW120841   4.470  13.748   0.030
 6336SOL    HW220842   4.537  13.780   0.162
 6337SOL     OW20843   1.059  10.775   0.745
 6337SOL    HW120844   1.114  10.698   0.731
 6337SOL    HW220845   1.000  10.776   0.670
 6338SOL     OW20846   1.334  13.795   1.276
 6338SOL    HW120847   1.382  13.713   1.268
 6338SOL    HW220848   1.401  13.863   1.279
 6339SOL     OW20849   1.733   4.250  13.827
 6339SOL    HW120850   1.724   4.214  13.915
 6339SOL    HW220851   1.700   4.340  13.834
 6340SOL     OW20852  11.196  12.104   1.769
 6340SOL    HW120853  11.140  12.174   1.735
 6340SOL    HW220854  11.219  12.132   1.857
 6341SOL     OW20855   6.210  12.058   2.381
 6341SOL    HW120856   6.217  12.120   2.454
 6341SOL    HW220857   6.182  11.976   2.422
 6342SOL     OW20858  11.936   5.048   0.659
 6342SOL    HW120859  11.873   5.107   0.617
 6342SOL    HW220860  11.884   4.997   0.721
 6343SOL     OW20861   9.931   3.401   1.068
 6343SOL    HW120862   9.891   3.316   1.053
 6343SOL    HW220863   9.997   3.409   0.999
 6344SOL     OW20864   4.864  14.569  14.054
 6344SOL    HW120865   4.872  14.538  13.964
 6344SOL    HW220866   4.806  14.644  14.049
 6345SOL     OW20867   4.905  13.855   0.825
 6345SOL    HW120868   4.836  13.898   0.876
 6345SOL    HW220869   4.980  13.914   0.833
 6346SOL     OW20870   2.252   8.491   9.063
 6346SOL    HW120871   2.218   8.448   9.141
 6346SOL    HW220872   2.345   8.470   9.063
 6347SOL     OW20873   7.069   7.196   5.715
 6347SOL    HW120874   7.103   7.259   5.778
 6347SOL    HW220875   7.126   7.120   5.723
 6348SOL     OW20876   9.744   2.627   4.313
 6348SOL    HW120877   9.699   2.609   4.395
 6348SOL    HW220878   9.723   2.719   4.293
 6349SOL     OW20879   9.844   7.573   8.906
 6349SOL    HW120880   9.832   7.599   8.998
 6349SOL    HW220881   9.755   7.553   8.875
 6350SOL     OW20882   9.451  14.441   3.965
 6350SOL    HW120883   9.518  14.486   3.914
 6350SOL    HW220884   9.496  14.368   4.006
 6351SOL     OW20885  13.881   0.898  12.876
 6351SOL    HW120886  13.820   0.824  12.884
 6351SOL    HW220887  13.829   0.968  12.837
 6352SOL     OW20888   4.461   7.861  10.968
 6352SOL    HW120889   4.492   7.933  10.914
 6352SOL    HW220890   4.365   7.864  10.961
 6353SOL     OW20891  11.442  10.895   0.073
 6353SOL    HW120892  11.403  10.974   0.037
 6353SOL    HW220893  11.398  10.823   0.028
 6354SOL     OW20894  13.221  10.133   9.568
 6354SOL    HW120895  13.256  10.199   9.627
 6354SOL    HW220896  13.288  10.063   9.569
 6355SOL     OW20897  13.462   9.962   0.416
 6355SOL    HW120898  13.424   9.898   0.355
 6355SOL    HW220899  13.450   9.922   0.503
 6356SOL     OW20900   2.866   0.618   4.517
 6356SOL    HW120901   2.820   0.656   4.443
 6356SOL    HW220902   2.951   0.662   4.518
 6357SOL     OW20903   9.971  11.215   8.178
 6357SOL    HW120904   9.968  11.127   8.141
 6357SOL    HW220905   9.900  11.218   8.241
 6358SOL     OW20906   9.645   8.865   1.517
 6358SOL    HW120907   9.655   8.792   1.456
 6358SOL    HW220908   9.640   8.824   1.603
 6359SOL     OW20909   6.086   8.685  10.524
 6359SOL    HW120910   6.074   8.747  10.452
 6359SOL    HW220911   6.156   8.723  10.577
 6360SOL     OW20912   0.590  10.905   2.021
 6360SOL    HW120913   0.529  10.975   1.997
 6360SOL    HW220914   0.616  10.925   2.111
 6361SOL     OW20915  12.706   3.146   9.248
 6361SOL    HW120916  12.775   3.097   9.205
 6361SOL    HW220917  12.664   3.196   9.178
 6362SOL     OW20918   3.752  10.269   0.369
 6362SOL    HW120919   3.780  10.360   0.361
 6362SOL    HW220920   3.695  10.269   0.446
 6363SOL     OW20921  13.911  11.522   4.755
 6363SOL    HW120922  14.001  11.491   4.754
 6363SOL    HW220923  13.896  11.556   4.667
 6364SOL     OW20924  10.163  13.047   7.733
 6364SOL    HW120925  10.141  12.955   7.717
 6364SOL    HW220926  10.119  13.094   7.662
 6365SOL     OW20927  12.845   2.360   0.584
 6365SOL    HW120928  12.878   2.440   0.543
 6365SOL    HW220929  12.806   2.390   0.666
 6366SOL     OW20930   2.543   3.606  11.004
 6366SOL    HW120931   2.466   3.573  11.049
 6366SOL    HW220932   2.575   3.531  10.953
 6367SOL     OW20933  13.803  13.127   6.354
 6367SOL    HW120934  13.871  13.194   6.339
 6367SOL    HW220935  13.825  13.091   6.440
 6368SOL     OW20936  14.137   9.110  11.611
 6368SOL    HW120937  14.209   9.133  11.551
 6368SOL    HW220938  14.090   9.040  11.565
 6369SOL     OW20939   3.289   0.097   5.485
 6369SOL    HW120940   3.377   0.075   5.516
 6369SOL    HW220941   3.293   0.083   5.390
 6370SOL     OW20942   3.041   5.866   0.573
 6370SOL    HW120943   2.949   5.892   0.563
 6370SOL    HW220944   3.059   5.813   0.495
 6371SOL     OW20945   6.081  13.593   5.156
 6371SOL    HW120946   6.023  13.632   5.090
 6371SOL    HW220947   6.150  13.550   5.105
 6372SOL     OW20948  14.637   4.293   7.260
 6372SOL    HW120949  14.638   4.359   7.190
 6372SOL    HW220950  14.694   4.223   7.229
 6373SOL     OW20951   7.284   8.293  14.480
 6373SOL    HW120952   7.200   8.270  14.441
 6373SOL    HW220953   7.261   8.338  14.561
 6374SOL     OW20954  10.084   5.368   8.692
 6374SOL    HW120955  10.080   5.279   8.658
 6374SOL    HW220956  10.145   5.414   8.633
 6375SOL     OW20957   4.528   7.025   6.011
 6375SOL    HW120958   4.623   7.037   6.017
 6375SOL    HW220959   4.503   7.073   5.932
 6376SOL     OW20960   7.510  11.746   8.804
 6376SOL    HW120961   7.508  11.654   8.778
 6376SOL    HW220962   7.590  11.755   8.856
 6377SOL     OW20963  10.133   7.267  10.634
 6377SOL    HW120964  10.213   7.319  10.634
 6377SOL    HW220965  10.107   7.264  10.542
 6378SOL     OW20966   6.543  12.933   3.707
 6378SOL    HW120967   6.540  12.838   3.713
 6378SOL    HW220968   6.635  12.955   3.720
 6379SOL     OW20969   4.594   1.589  11.077
 6379SOL    HW120970   4.667   1.585  11.138
 6379SOL    HW220971   4.516   1.579  11.133
 6380SOL     OW20972  11.187  14.556  10.960
 6380SOL    HW120973  11.216  14.577  10.871
 6380SOL    HW220974  11.106  14.606  10.971
 6381SOL     OW20975  12.328   3.232   1.936
 6381SOL    HW120976  12.237   3.204   1.944
 6381SOL    HW220977  12.372   3.159   1.892
 6382SOL     OW20978  10.746   3.580   3.676
 6382SOL    HW120979  10.771   3.491   3.701
 6382SOL    HW220980  10.809   3.605   3.609
 6383SOL     OW20981   2.212  12.455  13.873
 6383SOL    HW120982   2.216  12.515  13.798
 6383SOL    HW220983   2.129  12.476  13.915
 6384SOL     OW20984  10.791   4.357  12.288
 6384SOL    HW120985  10.751   4.436  12.250
 6384SOL    HW220986  10.731   4.286  12.265
 6385SOL     OW20987   5.888  12.937  11.755
 6385SOL    HW120988   5.837  12.984  11.690
 6385SOL    HW220989   5.974  12.979  11.753
 6386SOL     OW20990   5.670   7.813   5.732
 6386SOL    HW120991   5.698   7.904   5.736
 6386SOL    HW220992   5.688   7.779   5.820
 6387SOL     OW20993   8.908   0.601   8.077
 6387SOL    HW120994   8.828   0.574   8.122
 6387SOL    HW220995   8.973   0.536   8.102
 6388SOL     OW20996  14.530   4.259   4.959
 6388SOL    HW120997  14.530   4.175   5.005
 6388SOL    HW220998  14.620   4.290   4.966
 6389SOL     OW20999   8.108   8.262   6.937
 6389SOL    HW121000   8.168   8.332   6.964
 6389SOL    HW221001   8.022   8.291   6.969
 6390SOL     OW21002   2.985   9.977  11.060
 6390SOL    HW121003   2.935  10.043  11.107
 6390SOL    HW221004   2.938   9.967  10.977
 6391SOL     OW21005   2.289   0.200   3.167
 6391SOL    HW121006   2.277   0.123   3.223
 6391SOL    HW221007   2.306   0.272   3.227
 6392SOL     OW21008   4.339   9.672   7.327
 6392SOL    HW121009   4.426   9.692   7.361
 6392SOL    HW221010   4.347   9.583   7.292
 6393SOL     OW21011   4.359  12.334   0.637
 6393SOL    HW121012   4.272  12.295   0.651
 6393SOL    HW221013   4.395  12.287   0.562
 6394SOL     OW21014  12.206   3.135   4.824
 6394SOL    HW121015  12.296   3.168   4.822
 6394SOL    HW221016  12.194   3.094   4.739
 6395SOL     OW21017  11.943   4.641  11.993
 6395SOL    HW121018  11.995   4.621  11.916
 6395SOL    HW221019  12.003   4.686  12.052
 6396SOL     OW21020   2.429  10.498   1.296
 6396SOL    HW121021   2.374  10.551   1.238
 6396SOL    HW221022   2.412  10.408   1.270
 6397SOL     OW21023  13.066  11.447   4.280
 6397SOL    HW121024  12.975  11.421   4.262
 6397SOL    HW221025  13.104  11.461   4.194
 6398SOL     OW21026   5.658   0.912   2.397
 6398SOL    HW121027   5.669   0.890   2.490
 6398SOL    HW221028   5.565   0.897   2.380
 6399SOL     OW21029   0.875   5.028   2.481
 6399SOL    HW121030   0.953   5.062   2.437
 6399SOL    HW221031   0.809   5.097   2.468
 6400SOL     OW21032   2.178   7.475   1.105
 6400SOL    HW121033   2.272   7.454   1.102
 6400SOL    HW221034   2.154   7.464   1.197
 6401SOL     OW21035   6.769   0.644   4.497
 6401SOL    HW121036   6.786   0.636   4.403
 6401SOL    HW221037   6.842   0.697   4.530
 6402SOL     OW21038  13.743   9.045   7.540
 6402SOL    HW121039  13.818   9.095   7.508
 6402SOL    HW221040  13.753   9.046   7.635
 6403SOL     OW21041  14.010   5.646  12.940
 6403SOL    HW121042  14.068   5.571  12.956
 6403SOL    HW221043  14.027   5.705  13.014
 6404SOL     OW21044   1.882   0.963   3.571
 6404SOL    HW121045   1.789   0.963   3.597
 6404SOL    HW221046   1.926   0.916   3.641
 6405SOL     OW21047  13.339   1.163   3.603
 6405SOL    HW121048  13.388   1.098   3.654
 6405SOL    HW221049  13.313   1.229   3.667
 6406SOL     OW21050   0.905   8.460   0.705
 6406SOL    HW121051   0.864   8.378   0.677
 6406SOL    HW221052   0.971   8.434   0.769
 6407SOL     OW21053   5.679  11.073   3.202
 6407SOL    HW121054   5.649  11.085   3.112
 6407SOL    HW221055   5.774  11.080   3.196
 6408SOL     OW21056   8.304   5.795  10.160
 6408SOL    HW121057   8.323   5.807  10.253
 6408SOL    HW221058   8.214   5.762  10.158
 6409SOL     OW21059  13.866   6.090   9.478
 6409SOL    HW121060  13.878   6.061   9.387
 6409SOL    HW221061  13.906   6.021   9.531
 6410SOL     OW21062   2.288  14.800  14.530
 6410SOL    HW121063   2.350  14.752  14.475
 6410SOL    HW221064   2.317  14.785  14.619
 6411SOL     OW21065   7.115  13.183  10.236
 6411SOL    HW121066   7.097  13.089  10.241
 6411SOL    HW221067   7.074  13.212  10.155
 6412SOL     OW21068   4.721   8.755   9.837
 6412SOL    HW121069   4.797   8.739   9.893
 6412SOL    HW221070   4.747   8.830   9.782
 6413SOL     OW21071   7.461  14.720  13.342
 6413SOL    HW121072   7.527  14.709  13.411
 6413SOL    HW221073   7.450  14.815  13.335
 6414SOL     OW21074   2.310   7.490   8.102
 6414SOL    HW121075   2.276   7.407   8.134
 6414SOL    HW221076   2.235   7.549   8.105
 6415SOL     OW21077  14.051   4.415  13.276
 6415SOL    HW121078  13.971   4.467  13.273
 6415SOL    HW221079  14.103   4.447  13.203
 6416SOL     OW21080   4.704   9.907   9.595
 6416SOL    HW121081   4.788   9.953   9.591
 6416SOL    HW221082   4.718   9.827   9.544
 6417SOL     OW21083   5.654  10.174   0.308
 6417SOL    HW121084   5.680  10.157   0.218
 6417SOL    HW221085   5.558  10.181   0.305
 6418SOL     OW21086   3.096   7.335  11.938
 6418SOL    HW121087   3.171   7.298  11.892
 6418SOL    HW221088   3.134   7.384  12.011
 6419SOL     OW21089   3.308  14.170   3.654
 6419SOL    HW121090   3.289  14.225   3.578
 6419SOL    HW221091   3.312  14.081   3.619
 6420SOL     OW21092   5.300   9.417  12.245
 6420SOL    HW121093   5.309   9.462  12.329
 6420SOL    HW221094   5.225   9.459  12.203
 6421SOL     OW21095   4.870  11.951   3.902
 6421SOL    HW121096   4.868  11.857   3.923
 6421SOL    HW221097   4.921  11.956   3.822
 6422SOL     OW21098   0.661   5.525   7.147
 6422SOL    HW121099   0.665   5.514   7.052
 6422SOL    HW221100   0.580   5.481   7.173
 6423SOL     OW21101  11.023   4.421  11.395
 6423SOL    HW121102  10.984   4.506  11.374
 6423SOL    HW221103  11.116   4.431  11.376
 6424SOL     OW21104   0.840  13.845   3.203
 6424SOL    HW121105   0.821  13.913   3.268
 6424SOL    HW221106   0.922  13.873   3.162
 6425SOL     OW21107   4.920   8.586  11.829
 6425SOL    HW121108   4.930   8.560  11.920
 6425SOL    HW221109   4.862   8.519  11.792
 6426SOL     OW21110   4.934   0.555   6.261
 6426SOL    HW121111   4.918   0.463   6.242
 6426SOL    HW221112   4.974   0.590   6.181
 6427SOL     OW21113  12.606   9.933  10.814
 6427SOL    HW121114  12.651   9.983  10.746
 6427SOL    HW221115  12.675   9.911  10.877
 6428SOL     OW21116   8.676   0.656   5.319
 6428SOL    HW121117   8.615   0.589   5.351
 6428SOL    HW221118   8.762   0.617   5.332
 6429SOL     OW21119  14.489   4.565  10.690
 6429SOL    HW121120  14.471   4.632  10.756
 6429SOL    HW221121  14.584   4.559  10.687
 6430SOL     OW21122   2.721   5.954  14.716
 6430SOL    HW121123   2.786   5.952  14.787
 6430SOL    HW221124   2.642   5.915  14.754
 6431SOL     OW21125   0.790  12.913  14.532
 6431SOL    HW121126   0.736  12.939  14.457
 6431SOL    HW221127   0.805  12.819  14.519
 6432SOL     OW21128  11.005   5.881   7.076
 6432SOL    HW121129  11.046   5.796   7.092
 6432SOL    HW221130  11.079   5.941   7.061
 6433SOL     OW21131   1.422   0.442  10.682
 6433SOL    HW121132   1.499   0.496  10.700
 6433SOL    HW221133   1.371   0.444  10.763
 6434SOL     OW21134   3.226  12.812   1.353
 6434SOL    HW121135   3.204  12.720   1.336
 6434SOL    HW221136   3.320  12.811   1.372
 6435SOL     OW21137  12.748   6.596   4.054
 6435SOL    HW121138  12.727   6.641   3.972
 6435SOL    HW221139  12.781   6.511   4.027
 6436SOL     OW21140   5.454   6.330   5.993
 6436SOL    HW121141   5.400   6.402   5.962
 6436SOL    HW221142   5.437   6.259   5.931
 6437SOL     OW21143   1.679  10.725  10.955
 6437SOL    HW121144   1.756  10.689  11.000
 6437SOL    HW221145   1.701  10.816  10.938
 6438SOL     OW21146   4.110   8.227  13.258
 6438SOL    HW121147   4.053   8.154  13.235
 6438SOL    HW221148   4.199   8.194  13.244
 6439SOL     OW21149   4.243   3.602   9.442
 6439SOL    HW121150   4.255   3.530   9.380
 6439SOL    HW221151   4.148   3.610   9.452
 6440SOL     OW21152  12.709   4.805   3.013
 6440SOL    HW121153  12.718   4.736   2.947
 6440SOL    HW221154  12.732   4.885   2.966
 6441SOL     OW21155   9.669   6.782   8.287
 6441SOL    HW121156   9.587   6.739   8.311
 6441SOL    HW221157   9.645   6.840   8.214
 6442SOL     OW21158   4.598   1.262  13.873
 6442SOL    HW121159   4.580   1.331  13.810
 6442SOL    HW221160   4.527   1.268  13.937
 6443SOL     OW21161   2.692  10.146   7.120
 6443SOL    HW121162   2.743  10.065   7.121
 6443SOL    HW221163   2.757  10.215   7.107
 6444SOL     OW21164  14.777   1.450   6.824
 6444SOL    HW121165  14.744   1.539   6.834
 6444SOL    HW221166  14.871   1.458   6.836
 6445SOL     OW21167   2.361   1.908   1.215
 6445SOL    HW121168   2.302   1.834   1.202
 6445SOL    HW221169   2.313   1.984   1.181
 6446SOL     OW21170   2.141  11.857   3.673
 6446SOL    HW121171   2.095  11.792   3.726
 6446SOL    HW221172   2.076  11.890   3.612
 6447SOL     OW21173   3.504  13.203   2.904
 6447SOL    HW121174   3.539  13.182   2.991
 6447SOL    HW221175   3.581  13.231   2.854
 6448SOL     OW21176  11.911  11.038   7.665
 6448SOL    HW121177  11.994  11.083   7.648
 6448SOL    HW221178  11.862  11.046   7.584
 6449SOL     OW21179   0.383   1.560   6.016
 6449SOL    HW121180   0.294   1.531   5.999
 6449SOL    HW221181   0.421   1.491   6.071
 6450SOL     OW21182   0.537  13.081   8.235
 6450SOL    HW121183   0.593  13.159   8.240
 6450SOL    HW221184   0.525  13.067   8.141
 6451SOL     OW21185   0.167  14.789  10.772
 6451SOL    HW121186   0.123  14.705  10.779
 6451SOL    HW221187   0.194  14.809  10.862
 6452SOL     OW21188  14.645   8.604  13.761
 6452SOL    HW121189  14.652   8.573  13.671
 6452SOL    HW221190  14.587   8.680  13.755
 6453SOL     OW21191   7.501   4.015   5.987
 6453SOL    HW121192   7.493   3.971   6.072
 6453SOL    HW221193   7.440   3.968   5.930
 6454SOL     OW21194   8.487   8.240   9.327
 6454SOL    HW121195   8.391   8.245   9.332
 6454SOL    HW221196   8.517   8.293   9.400
 6455SOL     OW21197   7.084  10.489   9.042
 6455SOL    HW121198   7.079  10.488   9.137
 6455SOL    HW221199   6.997  10.516   9.013
 6456SOL     OW21200  11.440  10.274   0.290
 6456SOL    HW121201  11.512  10.336   0.303
 6456SOL    HW221202  11.466  10.225   0.212
 6457SOL     OW21203   8.119   2.479   1.658
 6457SOL    HW121204   8.185   2.520   1.714
 6457SOL    HW221205   8.080   2.411   1.713
 6458SOL     OW21206   7.936   0.450   7.754
 6458SOL    HW121207   8.006   0.392   7.723
 6458SOL    HW221208   7.923   0.425   7.846
 6459SOL     OW21209   8.442   5.092  11.064
 6459SOL    HW121210   8.524   5.141  11.054
 6459SOL    HW221211   8.470   5.005  11.093
 6460SOL     OW21212  12.866  10.826  11.845
 6460SOL    HW121213  12.929  10.769  11.802
 6460SOL    HW221214  12.871  10.909  11.797
 6461SOL     OW21215   6.923   6.750  12.989
 6461SOL    HW121216   6.834   6.715  12.991
 6461SOL    HW221217   6.914   6.836  12.948
 6462SOL     OW21218   6.984   4.860  10.024
 6462SOL    HW121219   6.968   4.913   9.945
 6462SOL    HW221220   6.932   4.781  10.010
 6463SOL     OW21221   2.343   9.613   3.101
 6463SOL    HW121222   2.250   9.634   3.115
 6463SOL    HW221223   2.363   9.550   3.170
 6464SOL     OW21224  10.469  10.042   5.172
 6464SOL    HW121225  10.544  10.041   5.113
 6464SOL    HW221226  10.432  10.130   5.163
 6465SOL     OW21227  10.513   1.894  10.626
 6465SOL    HW121228  10.538   1.976  10.584
 6465SOL    HW221229  10.437   1.864  10.576
 6466SOL     OW21230   0.942   6.800   5.109
 6466SOL    HW121231   0.858   6.780   5.068
 6466SOL    HW221232   1.004   6.805   5.036
 6467SOL     OW21233   7.618   9.722   1.208
 6467SOL    HW121234   7.615   9.649   1.269
 6467SOL    HW221235   7.575   9.689   1.129
 6468SOL     OW21236  12.622   9.064  12.229
 6468SOL    HW121237  12.644   9.100  12.143
 6468SOL    HW221238  12.702   9.019  12.257
 6469SOL     OW21239   9.356   0.671   9.747
 6469SOL    HW121240   9.303   0.634   9.817
 6469SOL    HW221241   9.435   0.616   9.745
 6470SOL     OW21242  11.629  12.221   8.410
 6470SOL    HW121243  11.641  12.131   8.380
 6470SOL    HW221244  11.670  12.274   8.342
 6471SOL     OW21245   2.400  12.138   8.815
 6471SOL    HW121246   2.362  12.174   8.895
 6471SOL    HW221247   2.472  12.197   8.794
 6472SOL     OW21248   0.320   5.879  12.182
 6472SOL    HW121249   0.411   5.868  12.155
 6472SOL    HW221250   0.284   5.940  12.117
 6473SOL     OW21251   8.081   0.246  14.162
 6473SOL    HW121252   8.008   0.308  14.156
 6473SOL    HW221253   8.050   0.179  14.223
 6474SOL     OW21254   6.582   5.125   7.706
 6474SOL    HW121255   6.618   5.171   7.630
 6474SOL    HW221256   6.655   5.120   7.768
 6475SOL     OW21257   4.348   5.815   3.670
 6475SOL    HW121258   4.313   5.886   3.724
 6475SOL    HW221259   4.366   5.855   3.585
 6476SOL     OW21260   3.368   6.248  10.781
 6476SOL    HW121261   3.364   6.293  10.697
 6476SOL    HW221262   3.398   6.314  10.843
 6477SOL     OW21263   0.744   2.445   6.555
 6477SOL    HW121264   0.708   2.490   6.631
 6477SOL    HW221265   0.694   2.479   6.481
 6478SOL     OW21266   9.583   7.604   1.912
 6478SOL    HW121267   9.538   7.662   1.974
 6478SOL    HW221268   9.587   7.520   1.957
 6479SOL     OW21269   4.993   0.222  10.159
 6479SOL    HW121270   4.957   0.154  10.217
 6479SOL    HW221271   5.074   0.248  10.201
 6480SOL     OW21272   9.194   1.755   8.949
 6480SOL    HW121273   9.163   1.819   8.885
 6480SOL    HW221274   9.289   1.754   8.937
 6481SOL     OW21275   5.870  13.692  12.317
 6481SOL    HW121276   5.780  13.684  12.286
 6481SOL    HW221277   5.868  13.769  12.375
 6482SOL     OW21278   9.581  10.719   1.996
 6482SOL    HW121279   9.556  10.630   2.023
 6482SOL    HW221280   9.537  10.776   2.059
 6483SOL     OW21281  14.659   0.316  11.264
 6483SOL    HW121282  14.664   0.395  11.210
 6483SOL    HW221283  14.743   0.313  11.310
 6484SOL     OW21284  10.805   6.000   4.801
 6484SOL    HW121285  10.715   6.025   4.822
 6484SOL    HW221286  10.810   5.908   4.826
 6485SOL     OW21287  10.391  13.075   8.784
 6485SOL    HW121288  10.473  13.094   8.738
 6485SOL    HW221289  10.385  12.980   8.787
 6486SOL     OW21290   0.156  12.404  10.080
 6486SOL    HW121291   0.250  12.416  10.095
 6486SOL    HW221292   0.142  12.310  10.086
 6487SOL     OW21293   7.123   8.799  12.714
 6487SOL    HW121294   7.186   8.727  12.712
 6487SOL    HW221295   7.112   8.824  12.623
 6488SOL     OW21296  14.267   9.793   3.242
 6488SOL    HW121297  14.176   9.771   3.219
 6488SOL    HW221298  14.267   9.888   3.249
 6489SOL     OW21299   6.952  14.088   0.008
 6489SOL    HW121300   6.917  14.035  14.815
 6489SOL    HW221301   6.915  14.048   0.087
 6490SOL     OW21302   0.066  13.165  14.214
 6490SOL    HW121303  14.868  13.211  14.182
 6490SOL    HW221304   0.129  13.234  14.232
 6491SOL     OW21305   7.958   4.634  11.260
 6491SOL    HW121306   7.970   4.589  11.176
 6491SOL    HW221307   8.043   4.674  11.278
 6492SOL     OW21308   3.005   7.670  11.524
 6492SOL    HW121309   2.925   7.705  11.564
 6492SOL    HW221310   3.065   7.657  11.597
 6493SOL     OW21311   9.216   2.590   7.109
 6493SOL    HW121312   9.233   2.497   7.095
 6493SOL    HW221313   9.123   2.595   7.131
 6494SOL     OW21314  12.813  10.641  14.870
 6494SOL    HW121315  12.830  10.692  14.791
 6494SOL    HW221316  12.803  10.706   0.061
 6495SOL     OW21317   5.743   8.382  14.811
 6495SOL    HW121318   5.799   8.459  14.815
 6495SOL    HW221319   5.796   8.316  14.768
 6496SOL     OW21320   8.383   2.509   3.458
 6496SOL    HW121321   8.400   2.475   3.547
 6496SOL    HW221322   8.388   2.604   3.468
 6497SOL     OW21323  10.175   3.584   3.567
 6497SOL    HW121324  10.140   3.670   3.543
 6497SOL    HW221325  10.160   3.578   3.662
 6498SOL     OW21326   8.523   4.468   9.257
 6498SOL    HW121327   8.539   4.374   9.251
 6498SOL    HW221328   8.452   4.484   9.194
 6499SOL     OW21329   2.700   7.643   7.541
 6499SOL    HW121330   2.623   7.640   7.484
 6499SOL    HW221331   2.674   7.701   7.612
 6500SOL     OW21332  14.598  14.333   6.591
 6500SOL    HW121333  14.640  14.253   6.621
 6500SOL    HW221334  14.671  14.387   6.559
 6501SOL     OW21335   2.455   7.545   9.833
 6501SOL    HW121336   2.478   7.452   9.828
 6501SOL    HW221337   2.537   7.588   9.860
 6502SOL     OW21338  11.817   5.819   4.371
 6502SOL    HW121339  11.781   5.734   4.399
 6502SOL    HW221340  11.892   5.796   4.316
 6503SOL     OW21341  13.513   6.571   1.897
 6503SOL    HW121342  13.494   6.665   1.889
 6503SOL    HW221343  13.550   6.547   1.813
 6504SOL     OW21344  10.612   4.542   0.230
 6504SOL    HW121345  10.529   4.500   0.254
 6504SOL    HW221346  10.667   4.470   0.199
 6505SOL     OW21347  13.119  12.515   3.461
 6505SOL    HW121348  13.195  12.487   3.513
 6505SOL    HW221349  13.138  12.607   3.441
 6506SOL     OW21350   2.112  14.572  10.746
 6506SOL    HW121351   2.021  14.546  10.761
 6506SOL    HW221352   2.113  14.603  10.655
 6507SOL     OW21353   0.047   3.485   9.697
 6507SOL    HW121354   0.004   3.399   9.699
 6507SOL    HW221355  14.870   3.541   9.750
 6508SOL     OW21356  13.373  11.881   3.628
 6508SOL    HW121357  13.377  11.890   3.532
 6508SOL    HW221358  13.280  11.890   3.649
 6509SOL     OW21359   9.317   6.409  12.647
 6509SOL    HW121360   9.312   6.395  12.552
 6509SOL    HW221361   9.373   6.485  12.658
 6510SOL     OW21362   7.435   8.099  13.185
 6510SOL    HW121363   7.392   8.054  13.112
 6510SOL    HW221364   7.528   8.080  13.174
 6511SOL     OW21365  12.663  13.366   9.546
 6511SOL    HW121366  12.730  13.415   9.498
 6511SOL    HW221367  12.618  13.315   9.479
 6512SOL     OW21368  14.172   3.592   5.087
 6512SOL    HW121369  14.161   3.593   5.182
 6512SOL    HW221370  14.159   3.500   5.062
 6513SOL     OW21371  12.415   4.126   6.320
 6513SOL    HW121372  12.509   4.115   6.308
 6513SOL    HW221373  12.391   4.193   6.256
 6514SOL     OW21374   9.141  12.083   7.241
 6514SOL    HW121375   9.130  12.020   7.311
 6514SOL    HW221376   9.233  12.078   7.217
 6515SOL     OW21377   5.138   0.263   3.186
 6515SOL    HW121378   5.197   0.289   3.116
 6515SOL    HW221379   5.196   0.247   3.261
 6516SOL     OW21380  11.314   2.082   1.848
 6516SOL    HW121381  11.262   2.023   1.903
 6516SOL    HW221382  11.304   2.046   1.760
 6517SOL     OW21383   6.057   6.043   2.807
 6517SOL    HW121384   6.024   6.044   2.716
 6517SOL    HW221385   5.988   5.999   2.856
 6518SOL     OW21386  14.820  14.767  14.277
 6518SOL    HW121387  14.841  14.843  14.223
 6518SOL    HW221388   0.005  14.769  14.348
 6519SOL     OW21389  14.528   0.939  14.558
 6519SOL    HW121390  14.543   0.874  14.489
 6519SOL    HW221391  14.481   0.891  14.626
 6520SOL     OW21392  14.077   9.349   7.709
 6520SOL    HW121393  13.991   9.389   7.722
 6520SOL    HW221394  14.084   9.285   7.780
 6521SOL     OW21395  13.379   8.718   8.091
 6521SOL    HW121396  13.341   8.641   8.049
 6521SOL    HW221397  13.389   8.782   8.020
 6522SOL     OW21398   1.025  11.488   4.996
 6522SOL    HW121399   1.059  11.544   5.066
 6522SOL    HW221400   1.049  11.534   4.915
 6523SOL     OW21401   0.737   7.590  11.314
 6523SOL    HW121402   0.713   7.650  11.244
 6523SOL    HW221403   0.744   7.504  11.271
 6524SOL     OW21404  12.003   9.017  12.477
 6524SOL    HW121405  12.072   9.070  12.517
 6524SOL    HW221406  11.969   8.964  12.549
 6525SOL     OW21407   9.650   6.320   7.147
 6525SOL    HW121408   9.694   6.256   7.202
 6525SOL    HW221409   9.622   6.271   7.070
 6526SOL     OW21410   5.601  13.152   2.945
 6526SOL    HW121411   5.538  13.203   2.996
 6526SOL    HW221412   5.616  13.205   2.866
 6527SOL     OW21413   5.473   9.017   5.270
 6527SOL    HW121414   5.406   9.048   5.330
 6527SOL    HW221415   5.555   9.033   5.316
 6528SOL     OW21416   7.550   3.538  14.157
 6528SOL    HW121417   7.489   3.572  14.223
 6528SOL    HW221418   7.536   3.443  14.159
 6529SOL     OW21419   0.657   8.588  12.537
 6529SOL    HW121420   0.735   8.605  12.589
 6529SOL    HW221421   0.666   8.645  12.460
 6530SOL     OW21422  10.780   9.550   7.437
 6530SOL    HW121423  10.790   9.528   7.530
 6530SOL    HW221424  10.686   9.542   7.421
 6531SOL     OW21425   0.429   3.277   6.869
 6531SOL    HW121426   0.485   3.289   6.792
 6531SOL    HW221427   0.363   3.214   6.840
 6532SOL     OW21428  10.458   9.771  14.122
 6532SOL    HW121429  10.407   9.837  14.169
 6532SOL    HW221430  10.393   9.714  14.082
 6533SOL     OW21431  13.953  13.064   6.606
 6533SOL    HW121432  13.900  13.084   6.683
 6533SOL    HW221433  14.009  12.992   6.634
 6534SOL     OW21434  12.619   2.803   6.492
 6534SOL    HW121435  12.609   2.882   6.439
 6534SOL    HW221436  12.562   2.738   6.451
 6535SOL     OW21437  12.339  13.775  11.931
 6535SOL    HW121438  12.326  13.816  11.846
 6535SOL    HW221439  12.425  13.733  11.925
 6536SOL     OW21440   5.534   0.167   6.977
 6536SOL    HW121441   5.552   0.261   6.966
 6536SOL    HW221442   5.553   0.129   6.892
 6537SOL     OW21443   5.177  10.410   5.547
 6537SOL    HW121444   5.154  10.318   5.559
 6537SOL    HW221445   5.161  10.426   5.454
 6538SOL     OW21446   8.778   0.059  11.134
 6538SOL    HW121447   8.684   0.054  11.119
 6538SOL    HW221448   8.786   0.097  11.221
 6539SOL     OW21449   9.866  10.228   1.160
 6539SOL    HW121450   9.954  10.190   1.152
 6539SOL    HW221451   9.852  10.272   1.076
 6540SOL     OW21452   5.460   8.804  14.274
 6540SOL    HW121453   5.473   8.851  14.191
 6540SOL    HW221454   5.543   8.813  14.320
 6541SOL     OW21455   8.546   0.218   5.427
 6541SOL    HW121456   8.639   0.196   5.431
 6541SOL    HW221457   8.543   0.313   5.421
 6542SOL     OW21458   7.939   8.402   3.857
 6542SOL    HW121459   7.932   8.457   3.934
 6542SOL    HW221460   7.971   8.318   3.890
 6543SOL     OW21461   1.681   6.018   3.209
 6543SOL    HW121462   1.647   5.957   3.276
 6543SOL    HW221463   1.645   5.985   3.127
 6544SOL     OW21464   2.588  14.026   5.447
 6544SOL    HW121465   2.506  13.993   5.482
 6544SOL    HW221466   2.592  13.990   5.358
 6545SOL     OW21467  11.645  10.454   1.252
 6545SOL    HW121468  11.577  10.391   1.229
 6545SOL    HW221469  11.645  10.456   1.348
 6546SOL     OW21470   8.248   4.423   2.352
 6546SOL    HW121471   8.334   4.453   2.322
 6546SOL    HW221472   8.230   4.476   2.430
 6547SOL     OW21473   7.729   0.773  12.072
 6547SOL    HW121474   7.652   0.718  12.057
 6547SOL    HW221475   7.775   0.730  12.145
 6548SOL     OW21476   7.533   1.647  10.443
 6548SOL    HW121477   7.589   1.661  10.367
 6548SOL    HW221478   7.590   1.606  10.509
 6549SOL     OW21479  13.980   7.105   1.146
 6549SOL    HW121480  13.930   7.148   1.077
 6549SOL    HW221481  14.002   7.019   1.109
 6550SOL     OW21482   6.725   5.445  12.837
 6550SOL    HW121483   6.806   5.396  12.824
 6550SOL    HW221484   6.714   5.448  12.933
 6551SOL     OW21485   8.315   4.752   1.412
 6551SOL    HW121486   8.403   4.737   1.377
 6551SOL    HW221487   8.259   4.696   1.358
 6552SOL     OW21488   2.130   9.516   4.927
 6552SOL    HW121489   2.084   9.457   4.867
 6552SOL    HW221490   2.223   9.503   4.907
 6553SOL     OW21491   8.453   6.624   1.764
 6553SOL    HW121492   8.425   6.631   1.855
 6553SOL    HW221493   8.547   6.604   1.770
 6554SOL     OW21494   9.777   9.768  11.437
 6554SOL    HW121495   9.706   9.706  11.454
 6554SOL    HW221496   9.817   9.737  11.356
 6555SOL     OW21497   0.019   4.171  12.178
 6555SOL    HW121498  14.859   4.257  12.190
 6555SOL    HW221499   0.113   4.188  12.166
 6556SOL     OW21500   4.200   5.137   8.384
 6556SOL    HW121501   4.179   5.076   8.312
 6556SOL    HW221502   4.138   5.114   8.453
 6557SOL     OW21503  10.081   6.703   8.811
 6557SOL    HW121504  10.168   6.717   8.850
 6557SOL    HW221505  10.063   6.782   8.761
 6558SOL     OW21506   5.981   4.744   4.985
 6558SOL    HW121507   5.944   4.656   4.992
 6558SOL    HW221508   6.072   4.730   4.958
 6559SOL     OW21509  12.807   1.953  10.941
 6559SOL    HW121510  12.893   1.926  10.974
 6559SOL    HW221511  12.827   2.013  10.869
 6560SOL     OW21512   0.522   9.857   1.089
 6560SOL    HW121513   0.499   9.902   1.170
 6560SOL    HW221514   0.605   9.897   1.061
 6561SOL     OW21515  14.666  12.349  13.391
 6561SOL    HW121516  14.754  12.356  13.354
 6561SOL    HW221517  14.616  12.417  13.345
 6562SOL     OW21518  11.476   6.484   4.242
 6562SOL    HW121519  11.447   6.536   4.167
 6562SOL    HW221520  11.542   6.425   4.205
 6563SOL     OW21521  11.734   0.972  10.923
 6563SOL    HW121522  11.787   0.939  10.851
 6563SOL    HW221523  11.784   1.046  10.957
 6564SOL     OW21524  13.572   2.940   3.852
 6564SOL    HW121525  13.637   2.875   3.828
 6564SOL    HW221526  13.622   3.016   3.880
 6565SOL     OW21527  14.754   2.775   7.510
 6565SOL    HW121528  14.791   2.777   7.422
 6565SOL    HW221529  14.694   2.849   7.513
 6566SOL     OW21530   9.777  11.543  11.735
 6566SOL    HW121531   9.854  11.532  11.790
 6566SOL    HW221532   9.752  11.635  11.746
 6567SOL     OW21533   0.312   0.651   3.481
 6567SOL    HW121534   0.247   0.626   3.546
 6567SOL    HW221535   0.275   0.728   3.438
 6568SOL     OW21536  12.215   3.593   3.108
 6568SOL    HW121537  12.237   3.515   3.056
 6568SOL    HW221538  12.120   3.589   3.118
 6569SOL     OW21539   9.047  12.890   2.415
 6569SOL    HW121540   9.042  12.968   2.359
 6569SOL    HW221541   9.119  12.839   2.379
 6570SOL     OW21542   7.195   6.218  13.235
 6570SOL    HW121543   7.237   6.303  13.224
 6570SOL    HW221544   7.243   6.158  13.178
 6571SOL     OW21545   2.499   4.942  11.856
 6571SOL    HW121546   2.428   4.907  11.802
 6571SOL    HW221547   2.534   5.015  11.806
 6572SOL     OW21548  13.581   6.535   8.637
 6572SOL    HW121549  13.579   6.480   8.559
 6572SOL    HW221550  13.585   6.625   8.603
 6573SOL     OW21551   7.531   1.914   7.224
 6573SOL    HW121552   7.586   1.855   7.171
 6573SOL    HW221553   7.450   1.865   7.237
 6574SOL     OW21554   8.552   5.291   2.938
 6574SOL    HW121555   8.494   5.363   2.963
 6574SOL    HW221556   8.547   5.230   3.011
 6575SOL     OW21557   1.839   3.731  10.721
 6575SOL    HW121558   1.882   3.649  10.742
 6575SOL    HW221559   1.858   3.788  10.796
 6576SOL     OW21560  11.193  13.269   7.947
 6576SOL    HW121561  11.242  13.345   7.978
 6576SOL    HW221562  11.186  13.212   8.023
 6577SOL     OW21563   7.744   2.725   4.436
 6577SOL    HW121564   7.792   2.757   4.513
 6577SOL    HW221565   7.694   2.801   4.406
 6578SOL     OW21566   1.050   1.099   4.557
 6578SOL    HW121567   1.009   1.032   4.501
 6578SOL    HW221568   1.127   1.056   4.593
 6579SOL     OW21569   7.851  13.209  12.762
 6579SOL    HW121570   7.874  13.209  12.669
 6579SOL    HW221571   7.935  13.205  12.808
 6580SOL     OW21572  10.164   8.531   8.151
 6580SOL    HW121573  10.145   8.464   8.085
 6580SOL    HW221574  10.104   8.602   8.130
 6581SOL     OW21575  10.601  10.089   2.314
 6581SOL    HW121576  10.656  10.016   2.343
 6581SOL    HW221577  10.527  10.047   2.271
 6582SOL     OW21578  10.866  10.711  12.200
 6582SOL    HW121579  10.772  10.704  12.214
 6582SOL    HW221580  10.898  10.765  12.273
 6583SOL     OW21581   0.259   0.300   0.084
 6583SOL    HW121582   0.275   0.231   0.149
 6583SOL    HW221583   0.300   0.378   0.121
 6584SOL     OW21584  14.598   8.255  10.004
 6584SOL    HW121585  14.692   8.243  10.019
 6584SOL    HW221586  14.558   8.244  10.090
 6585SOL     OW21587   9.305   3.970  11.684
 6585SOL    HW121588   9.241   4.006  11.623
 6585SOL    HW221589   9.366   4.042  11.700
 6586SOL     OW21590   3.213   7.348   9.711
 6586SOL    HW121591   3.289   7.392   9.672
 6586SOL    HW221592   3.140   7.376   9.656
 6587SOL     OW21593  13.050   5.268  13.843
 6587SOL    HW121594  12.971   5.260  13.790
 6587SOL    HW221595  13.121   5.248  13.783
 6588SOL     OW21596   6.929   3.513   3.421
 6588SOL    HW121597   6.971   3.458   3.354
 6588SOL    HW221598   6.903   3.593   3.374
 6589SOL     OW21599   9.531  14.762   5.639
 6589SOL    HW121600   9.455  14.712   5.671
 6589SOL    HW221601   9.606  14.717   5.678
 6590SOL     OW21602   0.826  10.791   4.409
 6590SOL    HW121603   0.816  10.715   4.467
 6590SOL    HW221604   0.907  10.774   4.361
 6591SOL     OW21605   9.690   9.960  10.489
 6591SOL    HW121606   9.684  10.029  10.423
 6591SOL    HW221607   9.671  10.004  10.572
 6592SOL     OW21608  12.918  12.837   7.536
 6592SOL    HW121609  12.955  12.866   7.620
 6592SOL    HW221610  12.920  12.915   7.481
 6593SOL     OW21611  13.476   1.870  13.547
 6593SOL    HW121612  13.498   1.778  13.531
 6593SOL    HW221613  13.536   1.896  13.617
 6594SOL     OW21614  11.621   6.740   8.326
 6594SOL    HW121615  11.543   6.731   8.271
 6594SOL    HW221616  11.666   6.817   8.292
 6595SOL     OW21617   8.072   9.472   0.305
 6595SOL    HW121618   8.154   9.432   0.333
 6595SOL    HW221619   8.096   9.560   0.276
 6596SOL     OW21620   2.504   1.493   7.254
 6596SOL    HW121621   2.516   1.479   7.160
 6596SOL    HW221622   2.439   1.428   7.280
 6597SOL     OW21623   1.481   9.247   9.674
 6597SOL    HW121624   1.477   9.208   9.587
 6597SOL    HW221625   1.568   9.286   9.678
 6598SOL     OW21626   0.477   3.350   1.310
 6598SOL    HW121627   0.520   3.417   1.256
 6598SOL    HW221628   0.549   3.296   1.342
 6599SOL     OW21629  12.675   3.044  11.312
 6599SOL    HW121630  12.679   2.968  11.371
 6599SOL    HW221631  12.760   3.085  11.320
 6600SOL     OW21632   3.386   9.576   6.376
 6600SOL    HW121633   3.442   9.635   6.325
 6600SOL    HW221634   3.363   9.626   6.454
 6601SOL     OW21635   7.427   6.733   8.589
 6601SOL    HW121636   7.364   6.762   8.522
 6601SOL    HW221637   7.378   6.669   8.641
 6602SOL     OW21638  12.422  11.463   7.518
 6602SOL    HW121639  12.486  11.496   7.455
 6602SOL    HW221640  12.345  11.442   7.464
 6603SOL     OW21641   8.324  12.575   3.209
 6603SOL    HW121642   8.241  12.579   3.161
 6603SOL    HW221643   8.344  12.481   3.213
 6604SOL     OW21644   7.317   8.411  11.605
 6604SOL    HW121645   7.269   8.441  11.682
 6604SOL    HW221646   7.253   8.361  11.555
 6605SOL     OW21647   0.935   0.433   4.770
 6605SOL    HW121648   0.989   0.448   4.848
 6605SOL    HW221649   0.857   0.488   4.784
 6606SOL     OW21650   6.873   4.883   5.924
 6606SOL    HW121651   6.785   4.866   5.891
 6606SOL    HW221652   6.878   4.831   6.005
 6607SOL     OW21653  14.661  10.007   2.158
 6607SOL    HW121654  14.569   9.987   2.139
 6607SOL    HW221655  14.661  10.100   2.181
 6608SOL     OW21656   3.496   5.171  12.834
 6608SOL    HW121657   3.481   5.225  12.756
 6608SOL    HW221658   3.591   5.164  12.840
 6609SOL     OW21659   4.757   9.949   3.188
 6609SOL    HW121660   4.786   9.896   3.114
 6609SOL    HW221661   4.665   9.968   3.170
 6610SOL     OW21662   7.581  12.055  10.769
 6610SOL    HW121663   7.564  12.147  10.792
 6610SOL    HW221664   7.642  12.060  10.695
 6611SOL     OW21665   4.692  12.151   1.151
 6611SOL    HW121666   4.773  12.187   1.187
 6611SOL    HW221667   4.631  12.225   1.147
 6612SOL     OW21668   6.292   9.863   3.000
 6612SOL    HW121669   6.228   9.873   3.071
 6612SOL    HW221670   6.350   9.794   3.031
 6613SOL     OW21671  13.639   9.326   0.714
 6613SOL    HW121672  13.559   9.291   0.673
 6613SOL    HW221673  13.691   9.248   0.735
 6614SOL     OW21674  12.270  13.667   6.932
 6614SOL    HW121675  12.328  13.633   7.000
 6614SOL    HW221676  12.188  13.689   6.978
 6615SOL     OW21677  11.947   2.759   3.139
 6615SOL    HW121678  11.880   2.795   3.081
 6615SOL    HW221679  11.984   2.685   3.092
 6616SOL     OW21680   5.741   7.997   8.713
 6616SOL    HW121681   5.717   7.905   8.724
 6616SOL    HW221682   5.807   7.997   8.644
 6617SOL     OW21683   2.609  12.760   6.875
 6617SOL    HW121684   2.641  12.670   6.866
 6617SOL    HW221685   2.688  12.812   6.890
 6618SOL     OW21686   3.104   4.599   3.727
 6618SOL    HW121687   3.101   4.694   3.739
 6618SOL    HW221688   3.174   4.585   3.663
 6619SOL     OW21689   6.585  14.209  14.291
 6619SOL    HW121690   6.538  14.228  14.209
 6619SOL    HW221691   6.676  14.229  14.271
 6620SOL     OW21692   4.641   1.934  12.362
 6620SOL    HW121693   4.585   1.951  12.439
 6620SOL    HW221694   4.693   1.858  12.387
 6621SOL     OW21695  11.881  10.714   2.948
 6621SOL    HW121696  11.931  10.657   2.891
 6621SOL    HW221697  11.935  10.792   2.958
 6622SOL     OW21698   4.301   0.179   8.800
 6622SOL    HW121699   4.279   0.192   8.892
 6622SOL    HW221700   4.338   0.263   8.773
 6623SOL     OW21701   4.948   3.307  11.972
 6623SOL    HW121702   5.023   3.247  11.980
 6623SOL    HW221703   4.924   3.302  11.880
 6624SOL     OW21704   7.511   5.557   5.325
 6624SOL    HW121705   7.543   5.640   5.359
 6624SOL    HW221706   7.415   5.566   5.326
 6625SOL     OW21707   5.439   8.555  10.127
 6625SOL    HW121708   5.466   8.482  10.182
 6625SOL    HW221709   5.462   8.528  10.038
 6626SOL     OW21710  10.449  12.970   7.849
 6626SOL    HW121711  10.398  12.988   7.770
 6626SOL    HW221712  10.536  13.007   7.830
 6627SOL     OW21713  11.568  11.750   6.858
 6627SOL    HW121714  11.597  11.742   6.949
 6627SOL    HW221715  11.480  11.714   6.858
 6628SOL     OW21716   0.876   9.346  13.587
 6628SOL    HW121717   0.847   9.267  13.633
 6628SOL    HW221718   0.898   9.317  13.499
 6629SOL     OW21719  11.050   5.902   7.968
 6629SOL    HW121720  10.998   5.980   7.948
 6629SOL    HW221721  11.131   5.936   8.004
 6630SOL     OW21722  12.206  13.015   4.455
 6630SOL    HW121723  12.164  12.966   4.525
 6630SOL    HW221724  12.134  13.050   4.403
 6631SOL     OW21725  13.722   4.740  14.467
 6631SOL    HW121726  13.649   4.721  14.525
 6631SOL    HW221727  13.695   4.705  14.382
 6632SOL     OW21728   5.212  14.751   6.626
 6632SOL    HW121729   5.242  14.786   6.542
 6632SOL    HW221730   5.265  14.672   6.639
 6633SOL     OW21731   4.416   7.749   3.005
 6633SOL    HW121732   4.404   7.830   3.054
 6633SOL    HW221733   4.392   7.771   2.915
 6634SOL     OW21734   8.809   3.567   6.989
 6634SOL    HW121735   8.753   3.585   7.065
 6634SOL    HW221736   8.789   3.476   6.966
 6635SOL     OW21737   7.489   4.270   8.232
 6635SOL    HW121738   7.503   4.363   8.250
 6635SOL    HW221739   7.576   4.238   8.207
 6636SOL     OW21740   6.973   9.288   2.263
 6636SOL    HW121741   6.976   9.358   2.329
 6636SOL    HW221742   6.982   9.207   2.313
 6637SOL     OW21743   8.535   8.003  11.367
 6637SOL    HW121744   8.482   7.991  11.287
 6637SOL    HW221745   8.609   8.056  11.339
 6638SOL     OW21746   4.271  10.004  11.896
 6638SOL    HW121747   4.326  10.080  11.880
 6638SOL    HW221748   4.192  10.039  11.937
 6639SOL     OW21749   7.470  14.487   1.435
 6639SOL    HW121750   7.390  14.450   1.473
 6639SOL    HW221751   7.487  14.566   1.487
 6640SOL     OW21752  11.664   1.981   3.031
 6640SOL    HW121753  11.647   2.064   2.986
 6640SOL    HW221754  11.759   1.971   3.027
 6641SOL     OW21755   0.931   9.826   6.773
 6641SOL    HW121756   0.879   9.775   6.836
 6641SOL    HW221757   1.012   9.846   6.819
 6642SOL     OW21758   9.103  13.265   7.749
 6642SOL    HW121759   9.075  13.191   7.696
 6642SOL    HW221760   9.197  13.271   7.735
 6643SOL     OW21761   3.184   8.426   9.960
 6643SOL    HW121762   3.213   8.346   9.916
 6643SOL    HW221763   3.091   8.433   9.938
 6644SOL     OW21764   7.062   1.958   6.494
 6644SOL    HW121765   7.002   2.032   6.482
 6644SOL    HW221766   7.138   1.996   6.538
 6645SOL     OW21767  12.753   6.031   0.459
 6645SOL    HW121768  12.765   5.982   0.378
 6645SOL    HW221769  12.764   5.966   0.529
 6646SOL     OW21770   0.653  11.873   5.634
 6646SOL    HW121771   0.692  11.877   5.547
 6646SOL    HW221772   0.580  11.812   5.625
 6647SOL     OW21773   8.702   3.657  10.044
 6647SOL    HW121774   8.704   3.752  10.045
 6647SOL    HW221775   8.721   3.633   9.953
 6648SOL     OW21776   4.419   6.808   2.247
 6648SOL    HW121777   4.339   6.772   2.209
 6648SOL    HW221778   4.419   6.778   2.338
 6649SOL     OW21779   0.799   6.109   3.422
 6649SOL    HW121780   0.830   6.048   3.489
 6649SOL    HW221781   0.859   6.097   3.348
 6650SOL     OW21782  11.056   0.597   4.638
 6650SOL    HW121783  10.962   0.609   4.651
 6650SOL    HW221784  11.063   0.514   4.590
 6651SOL     OW21785  14.074   8.216   9.794
 6651SOL    HW121786  14.022   8.222   9.874
 6651SOL    HW221787  14.136   8.145   9.810
 6652SOL     OW21788   4.559   5.769   6.594
 6652SOL    HW121789   4.606   5.686   6.602
 6652SOL    HW221790   4.570   5.811   6.679
 6653SOL     OW21791  14.400   1.027  12.546
 6653SOL    HW121792  14.377   1.113  12.581
 6653SOL    HW221793  14.385   1.034  12.452
 6654SOL     OW21794  12.793   7.070   5.833
 6654SOL    HW121795  12.848   7.018   5.774
 6654SOL    HW221796  12.761   7.007   5.897
 6655SOL     OW21797  14.305   5.678  13.320
 6655SOL    HW121798  14.228   5.686  13.376
 6655SOL    HW221799  14.342   5.767  13.318
 6656SOL     OW21800  13.101   7.696   6.954
 6656SOL    HW121801  13.025   7.690   7.012
 6656SOL    HW221802  13.081   7.638   6.881
 6657SOL     OW21803   0.393   2.044   0.681
 6657SOL    HW121804   0.364   2.071   0.768
 6657SOL    HW221805   0.463   1.981   0.697
 6658SOL     OW21806   7.416  10.222  12.777
 6658SOL    HW121807   7.321  10.219  12.789
 6658SOL    HW221808   7.433  10.310  12.742
 6659SOL     OW21809   9.004  11.365   1.976
 6659SOL    HW121810   8.930  11.319   1.935
 6659SOL    HW221811   9.080  11.311   1.956
 6660SOL     OW21812   5.905   5.261  14.601
 6660SOL    HW121813   5.996   5.248  14.577
 6660SOL    HW221814   5.908   5.314  14.681
 6661SOL     OW21815   2.698   0.422   1.126
 6661SOL    HW121816   2.739   0.426   1.040
 6661SOL    HW221817   2.627   0.486   1.122
 6662SOL     OW21818  13.363  13.872   1.827
 6662SOL    HW121819  13.391  13.799   1.882
 6662SOL    HW221820  13.420  13.945   1.853
 6663SOL     OW21821   4.067  13.459  10.228
 6663SOL    HW121822   4.044  13.443  10.136
 6663SOL    HW221823   4.162  13.455  10.231
 6664SOL     OW21824  12.870   9.226   9.119
 6664SOL    HW121825  12.778   9.203   9.103
 6664SOL    HW221826  12.866   9.307   9.170
 6665SOL     OW21827   1.699  11.727  10.652
 6665SOL    HW121828   1.739  11.814  10.661
 6665SOL    HW221829   1.606  11.741  10.668
 6666SOL     OW21830   0.770   3.168   5.974
 6666SOL    HW121831   0.768   3.101   5.905
 6666SOL    HW221832   0.702   3.230   5.948
 6667SOL     OW21833   0.493   8.353   8.110
 6667SOL    HW121834   0.407   8.386   8.083
 6667SOL    HW221835   0.540   8.338   8.027
 6668SOL     OW21836  12.973   1.709  12.521
 6668SOL    HW121837  12.993   1.667  12.437
 6668SOL    HW221838  12.901   1.768  12.502
 6669SOL     OW21839   9.823   6.850   1.916
 6669SOL    HW121840   9.859   6.827   1.831
 6669SOL    HW221841   9.733   6.815   1.914
 6670SOL     OW21842  12.827   0.726  13.757
 6670SOL    HW121843  12.805   0.814  13.787
 6670SOL    HW221844  12.752   0.699  13.704
 6671SOL     OW21845  14.528   7.765   8.784
 6671SOL    HW121846  14.559   7.789   8.697
 6671SOL    HW221847  14.473   7.688   8.770
 6672SOL     OW21848   3.246   2.094   9.898
 6672SOL    HW121849   3.195   2.051   9.830
 6672SOL    HW221850   3.288   2.023   9.946
 6673SOL     OW21851   4.154  10.031   7.016
 6673SOL    HW121852   4.245  10.004   7.027
 6673SOL    HW221853   4.104   9.950   7.026
 6674SOL     OW21854  14.589   6.366  14.333
 6674SOL    HW121855  14.660   6.311  14.300
 6674SOL    HW221856  14.545   6.312  14.398
 6675SOL     OW21857   1.965   2.887   7.386
 6675SOL    HW121858   1.920   2.876   7.303
 6675SOL    HW221859   1.992   2.979   7.387
 6676SOL     OW21860   1.579   1.482   2.228
 6676SOL    HW121861   1.619   1.518   2.307
 6676SOL    HW221862   1.648   1.488   2.161
 6677SOL     OW21863  13.505  13.961  14.229
 6677SOL    HW121864  13.567  13.887  14.228
 6677SOL    HW221865  13.435  13.934  14.169
 6678SOL     OW21866   1.645  13.249  13.885
 6678SOL    HW121867   1.599  13.314  13.938
 6678SOL    HW221868   1.583  13.226  13.816
 6679SOL     OW21869   2.321   9.262   5.191
 6679SOL    HW121870   2.298   9.347   5.228
 6679SOL    HW221871   2.238   9.226   5.161
 6680SOL     OW21872  12.931   3.657   2.466
 6680SOL    HW121873  13.015   3.614   2.476
 6680SOL    HW221874  12.941   3.741   2.511
 6681SOL     OW21875  10.319   2.530   6.448
 6681SOL    HW121876  10.403   2.567   6.421
 6681SOL    HW221877  10.293   2.474   6.375
 6682SOL     OW21878  12.870   8.798   1.654
 6682SOL    HW121879  12.922   8.829   1.580
 6682SOL    HW221880  12.930   8.800   1.728
 6683SOL     OW21881   9.529   8.931   4.665
 6683SOL    HW121882   9.503   8.864   4.602
 6683SOL    HW221883   9.557   9.005   4.611
 6684SOL     OW21884   9.078  14.846  13.490
 6684SOL    HW121885   9.123   0.039  13.445
 6684SOL    HW221886   9.142  14.812  13.552
 6685SOL     OW21887  14.593   5.938   3.683
 6685SOL    HW121888  14.657   6.002   3.715
 6685SOL    HW221889  14.638   5.892   3.612
 6686SOL     OW21890  14.115  11.962   8.951
 6686SOL    HW121891  14.022  11.980   8.964
 6686SOL    HW221892  14.119  11.869   8.927
 6687SOL     OW21893   0.129   8.828   2.931
 6687SOL    HW121894   0.143   8.787   2.845
 6687SOL    HW221895   0.049   8.880   2.920
 6688SOL     OW21896   8.758   3.946   0.736
 6688SOL    HW121897   8.810   3.878   0.781
 6688SOL    HW221898   8.696   3.897   0.683
 6689SOL     OW21899   6.440   5.385  12.761
 6689SOL    HW121900   6.420   5.464  12.711
 6689SOL    HW221901   6.527   5.402  12.798
 6690SOL     OW21902   0.225   0.911   6.385
 6690SOL    HW121903   0.154   0.846   6.392
 6690SOL    HW221904   0.256   0.922   6.475
 6691SOL     OW21905   9.238   9.846   7.630
 6691SOL    HW121906   9.187   9.927   7.629
 6691SOL    HW221907   9.327   9.874   7.612
 6692SOL     OW21908   8.796   3.093  11.758
 6692SOL    HW121909   8.808   3.134  11.673
 6692SOL    HW221910   8.880   3.050  11.775
 6693SOL     OW21911   2.517   3.222  11.921
 6693SOL    HW121912   2.584   3.160  11.949
 6693SOL    HW221913   2.453   3.168  11.873
 6694SOL     OW21914   1.933   7.371   1.323
 6694SOL    HW121915   1.940   7.365   1.227
 6694SOL    HW221916   1.905   7.461   1.339
 6695SOL     OW21917  12.387  12.436  12.688
 6695SOL    HW121918  12.316  12.498  12.672
 6695SOL    HW221919  12.388  12.381  12.609
 6696SOL     OW21920   1.988   1.307   6.673
 6696SOL    HW121921   2.009   1.371   6.740
 6696SOL    HW221922   1.998   1.222   6.716
 6697SOL     OW21923  11.997  10.815  11.313
 6697SOL    HW121924  11.997  10.808  11.409
 6697SOL    HW221925  12.019  10.728  11.282
 6698SOL     OW21926   9.286   9.330   3.579
 6698SOL    HW121927   9.360   9.338   3.639
 6698SOL    HW221928   9.300   9.400   3.515
 6699SOL     OW21929   0.945   4.532   5.665
 6699SOL    HW121930   0.884   4.522   5.738
 6699SOL    HW221931   1.018   4.583   5.702
 6700SOL     OW21932  11.869   1.363   8.926
 6700SOL    HW121933  11.795   1.315   8.964
 6700SOL    HW221934  11.882   1.325   8.840
 6701SOL     OW21935  11.797  10.382   5.161
 6701SOL    HW121936  11.873  10.408   5.214
 6701SOL    HW221937  11.833  10.369   5.073
 6702SOL     OW21938   9.826   6.102   5.537
 6702SOL    HW121939   9.825   6.184   5.488
 6702SOL    HW221940   9.888   6.046   5.489
 6703SOL     OW21941   4.295   3.431   2.762
 6703SOL    HW121942   4.252   3.370   2.702
 6703SOL    HW221943   4.384   3.441   2.727
 6704SOL     OW21944   1.589  14.366  13.556
 6704SOL    HW121945   1.618  14.402  13.472
 6704SOL    HW221946   1.652  14.398  13.620
 6705SOL     OW21947   5.185   2.898   0.553
 6705SOL    HW121948   5.116   2.911   0.489
 6705SOL    HW221949   5.194   2.982   0.597
 6706SOL     OW21950  11.117  10.059   9.226
 6706SOL    HW121951  11.029  10.052   9.188
 6706SOL    HW221952  11.123  10.149   9.256
 6707SOL     OW21953   2.924   6.207   5.968
 6707SOL    HW121954   2.882   6.293   5.972
 6707SOL    HW221955   2.852   6.147   5.949
 6708SOL     OW21956   4.676   4.119   2.123
 6708SOL    HW121957   4.758   4.122   2.172
 6708SOL    HW221958   4.692   4.053   2.055
 6709SOL     OW21959   2.199   2.405   6.292
 6709SOL    HW121960   2.122   2.355   6.318
 6709SOL    HW221961   2.219   2.375   6.203
 6710SOL     OW21962  11.402   6.156   8.616
 6710SOL    HW121963  11.469   6.197   8.563
 6710SOL    HW221964  11.451   6.114   8.688
 6711SOL     OW21965   8.472  12.197  10.950
 6711SOL    HW121966   8.443  12.108  10.973
 6711SOL    HW221967   8.421  12.254  11.007
 6712SOL     OW21968   0.613  13.039   1.383
 6712SOL    HW121969   0.608  13.109   1.318
 6712SOL    HW221970   0.522  13.015   1.401
 6713SOL     OW21971  13.359   7.286   3.141
 6713SOL    HW121972  13.297   7.234   3.090
 6713SOL    HW221973  13.428   7.308   3.078
 6714SOL     OW21974  10.764   3.251   5.088
 6714SOL    HW121975  10.739   3.165   5.123
 6714SOL    HW221976  10.715   3.314   5.141
 6715SOL     OW21977   0.010  10.449  12.598
 6715SOL    HW121978   0.007  10.356  12.620
 6715SOL    HW221979   0.095  10.461  12.555
 6716SOL     OW21980   1.815   8.801  14.760
 6716SOL    HW121981   1.859   8.884  14.741
 6716SOL    HW221982   1.757   8.821  14.834
 6717SOL     OW21983   4.627   1.570   3.198
 6717SOL    HW121984   4.617   1.589   3.105
 6717SOL    HW221985   4.616   1.655   3.242
 6718SOL     OW21986   1.040   4.121  12.030
 6718SOL    HW121987   0.973   4.182  12.060
 6718SOL    HW221988   1.110   4.128  12.096
 6719SOL     OW21989   0.458   3.504   9.759
 6719SOL    HW121990   0.450   3.423   9.809
 6719SOL    HW221991   0.382   3.504   9.701
 6720SOL     OW21992   0.188   6.083   7.572
 6720SOL    HW121993   0.163   5.992   7.562
 6720SOL    HW221994   0.134   6.116   7.644
 6721SOL     OW21995   2.995  10.480   9.070
 6721SOL    HW121996   3.015  10.485   9.164
 6721SOL    HW221997   3.070  10.521   9.028
 6722SOL     OW21998  13.549   9.592   2.549
 6722SOL    HW121999  13.518   9.580   2.459
 6722SOL    HW222000  13.565   9.686   2.557
 6723SOL     OW22001   3.631  14.473   2.784
 6723SOL    HW122002   3.562  14.467   2.850
 6723SOL    HW222003   3.601  14.418   2.712
 6724SOL     OW22004   6.999   7.763   1.976
 6724SOL    HW122005   6.966   7.673   1.972
 6724SOL    HW222006   7.094   7.754   1.969
 6725SOL     OW22007   3.893   9.522   9.884
 6725SOL    HW122008   3.923   9.432   9.872
 6725SOL    HW222009   3.821   9.532   9.821
 6726SOL     OW22010   5.897  11.751   1.413
 6726SOL    HW122011   5.976  11.745   1.360
 6726SOL    HW222012   5.848  11.672   1.393
 6727SOL     OW22013   9.216   9.555   5.117
 6727SOL    HW122014   9.193   9.646   5.102
 6727SOL    HW222015   9.166   9.529   5.194
 6728SOL     OW22016  14.190   8.660   5.670
 6728SOL    HW122017  14.263   8.705   5.629
 6728SOL    HW222018  14.215   8.650   5.762
 6729SOL     OW22019   4.163   4.755   9.849
 6729SOL    HW122020   4.169   4.663   9.875
 6729SOL    HW222021   4.077   4.783   9.882
 6730SOL     OW22022  11.104  12.335   6.008
 6730SOL    HW122023  11.148  12.409   5.967
 6730SOL    HW222024  11.125  12.260   5.953
 6731SOL     OW22025   7.574   1.580  13.897
 6731SOL    HW122026   7.619   1.516  13.951
 6731SOL    HW222027   7.550   1.650  13.957
 6732SOL     OW22028   9.211  14.876   7.322
 6732SOL    HW122029   9.151   0.055   7.369
 6732SOL    HW222030   9.215  14.797   7.375
 6733SOL     OW22031   8.587  14.328   3.999
 6733SOL    HW122032   8.622  14.314   4.087
 6733SOL    HW222033   8.493  14.313   4.008
 6734SOL     OW22034  12.795  14.717   5.597
 6734SOL    HW122035  12.814  14.760   5.514
 6734SOL    HW222036  12.700  14.706   5.597
 6735SOL     OW22037  11.965   9.249   2.094
 6735SOL    HW122038  11.914   9.180   2.052
 6735SOL    HW222039  11.931   9.253   2.183
 6736SOL     OW22040  11.292   4.015  10.285
 6736SOL    HW122041  11.383   4.036  10.304
 6736SOL    HW222042  11.249   4.009  10.370
 6737SOL     OW22043   2.795  10.177  11.153
 6737SOL    HW122044   2.792  10.159  11.059
 6737SOL    HW222045   2.713  10.221  11.172
 6738SOL     OW22046  14.207  12.609  11.982
 6738SOL    HW122047  14.152  12.553  12.037
 6738SOL    HW222048  14.176  12.593  11.893
 6739SOL     OW22049   4.207   5.902   5.646
 6739SOL    HW122050   4.160   5.936   5.569
 6739SOL    HW222051   4.243   5.980   5.688
 6740SOL     OW22052   3.458   5.833   1.293
 6740SOL    HW122053   3.427   5.863   1.207
 6740SOL    HW222054   3.552   5.847   1.290
 6741SOL     OW22055   1.143   3.041  13.978
 6741SOL    HW122056   1.151   3.091  14.059
 6741SOL    HW222057   1.137   2.950  14.006
 6742SOL     OW22058   1.144  14.436  14.117
 6742SOL    HW122059   1.116  14.523  14.090
 6742SOL    HW222060   1.232  14.427  14.082
 6743SOL     OW22061   1.288   9.294   9.841
 6743SOL    HW122062   1.351   9.302   9.913
 6743SOL    HW222063   1.341   9.297   9.762
 6744SOL     OW22064  11.779   7.173   9.242
 6744SOL    HW122065  11.729   7.135   9.170
 6744SOL    HW222066  11.720   7.239   9.280
 6745SOL     OW22067  13.177   8.784   5.861
 6745SOL    HW122068  13.119   8.822   5.794
 6745SOL    HW222069  13.247   8.743   5.810
 6746SOL     OW22070  11.915   5.254   5.544
 6746SOL    HW122071  12.002   5.225   5.570
 6746SOL    HW222072  11.893   5.202   5.467
 6747SOL     OW22073   3.967   5.582   5.190
 6747SOL    HW122074   4.005   5.555   5.107
 6747SOL    HW222075   4.029   5.550   5.256
 6748SOL     OW22076   8.239   0.470   9.422
 6748SOL    HW122077   8.287   0.516   9.491
 6748SOL    HW222078   8.220   0.538   9.357
 6749SOL     OW22079  12.575  14.856   6.592
 6749SOL    HW122080  12.616  14.781   6.635
 6749SOL    HW222081  12.542   0.031   6.664
 6750SOL     OW22082   4.225   7.766   8.368
 6750SOL    HW122083   4.137   7.758   8.407
 6750SOL    HW222084   4.249   7.858   8.382
 6751SOL     OW22085  10.556  13.667  11.251
 6751SOL    HW122086  10.497  13.593  11.236
 6751SOL    HW222087  10.508  13.723  11.312
 6752SOL     OW22088  12.703   6.091   6.076
 6752SOL    HW122089  12.721   6.167   6.022
 6752SOL    HW222090  12.662   6.127   6.155
 6753SOL     OW22091   0.173  11.966   7.717
 6753SOL    HW122092   0.081  11.958   7.692
 6753SOL    HW222093   0.171  11.997   7.807
 6754SOL     OW22094  10.576   3.108   3.250
 6754SOL    HW122095  10.512   3.037   3.245
 6754SOL    HW222096  10.586   3.138   3.160
 6755SOL     OW22097   3.625  14.555   3.511
 6755SOL    HW122098   3.696  14.541   3.448
 6755SOL    HW222099   3.660  14.522   3.593
 6756SOL     OW22100  13.176  10.448   7.517
 6756SOL    HW122101  13.089  10.487   7.507
 6756SOL    HW222102  13.227  10.516   7.560
 6757SOL     OW22103   3.007  13.451   3.735
 6757SOL    HW122104   3.074  13.503   3.779
 6757SOL    HW222105   2.958  13.410   3.806
 6758SOL     OW22106  10.027   4.371  11.306
 6758SOL    HW122107   9.953   4.320  11.275
 6758SOL    HW222108   9.996   4.414  11.386
 6759SOL     OW22109  11.548   8.095  13.849
 6759SOL    HW122110  11.494   8.108  13.927
 6759SOL    HW222111  11.593   8.179  13.837
 6760SOL     OW22112   1.564   9.015  13.360
 6760SOL    HW122113   1.644   8.994  13.407
 6760SOL    HW222114   1.497   8.960  13.401
 6761SOL     OW22115  12.096   2.092  12.527
 6761SOL    HW122116  12.046   2.091  12.445
 6761SOL    HW222117  12.043   2.040  12.587
 6762SOL     OW22118  10.346   7.831  12.375
 6762SOL    HW122119  10.256   7.860  12.385
 6762SOL    HW222120  10.399   7.902  12.412
 6763SOL     OW22121   5.978   1.018   9.261
 6763SOL    HW122122   5.950   0.942   9.313
 6763SOL    HW222123   5.990   1.088   9.325
 6764SOL     OW22124   3.612  11.433   6.251
 6764SOL    HW122125   3.666  11.407   6.177
 6764SOL    HW222126   3.646  11.518   6.277
 6765SOL     OW22127   8.349   9.652   9.395
 6765SOL    HW122128   8.419   9.635   9.331
 6765SOL    HW222129   8.271   9.611   9.357
 6766SOL     OW22130   9.332   8.198  10.116
 6766SOL    HW122131   9.362   8.258  10.048
 6766SOL    HW222132   9.347   8.246  10.198
 6767SOL     OW22133   6.790  13.203   8.872
 6767SOL    HW122134   6.783  13.112   8.901
 6767SOL    HW222135   6.714  13.216   8.815
 6768SOL     OW22136  10.619  12.807  12.127
 6768SOL    HW122137  10.629  12.772  12.038
 6768SOL    HW222138  10.700  12.855  12.143
 6769SOL     OW22139   0.971   7.723   2.230
 6769SOL    HW122140   0.923   7.642   2.247
 6769SOL    HW222141   1.026   7.704   2.154
 6770SOL     OW22142   6.995   9.438  11.824
 6770SOL    HW122143   7.072   9.382  11.809
 6770SOL    HW222144   7.010   9.474  11.911
 6771SOL     OW22145   7.642   3.484   5.984
 6771SOL    HW122146   7.666   3.576   5.971
 6771SOL    HW222147   7.638   3.449   5.895
 6772SOL     OW22148   9.456   8.275   3.737
 6772SOL    HW122149   9.510   8.269   3.816
 6772SOL    HW222150   9.381   8.327   3.763
 6773SOL     OW22151   8.987  11.846   0.447
 6773SOL    HW122152   9.064  11.821   0.498
 6773SOL    HW222153   8.965  11.767   0.396
 6774SOL     OW22154   3.323   0.361  13.054
 6774SOL    HW122155   3.295   0.367  13.146
 6774SOL    HW222156   3.308   0.269  13.030
 6775SOL     OW22157   4.157   5.112   7.494
 6775SOL    HW122158   4.236   5.066   7.523
 6775SOL    HW222159   4.184   5.203   7.485
 6776SOL     OW22160   8.097   7.077  11.729
 6776SOL    HW122161   8.078   6.985  11.709
 6776SOL    HW222162   8.152   7.106  11.656
 6777SOL     OW22163   2.970  14.707   5.644
 6777SOL    HW122164   2.894  14.698   5.701
 6777SOL    HW222165   2.935  14.740   5.561
 6778SOL     OW22166   9.831   6.421  14.141
 6778SOL    HW122167   9.775   6.349  14.112
 6778SOL    HW222168   9.900   6.379  14.192
 6779SOL     OW22169   6.865  11.238  14.216
 6779SOL    HW122170   6.844  11.216  14.125
 6779SOL    HW222171   6.879  11.333  14.215
 6780SOL     OW22172   8.652   2.876   5.109
 6780SOL    HW122173   8.664   2.849   5.200
 6780SOL    HW222174   8.631   2.969   5.114
 6781SOL     OW22175  11.541   4.419  13.450
 6781SOL    HW122176  11.601   4.491  13.430
 6781SOL    HW222177  11.591   4.362  13.508
 6782SOL     OW22178  11.490  12.546  10.224
 6782SOL    HW122179  11.543  12.620  10.198
 6782SOL    HW222180  11.527  12.471  10.177
 6783SOL     OW22181   4.668  10.394  11.914
 6783SOL    HW122182   4.656  10.368  11.823
 6783SOL    HW222183   4.677  10.490  11.910
 6784SOL     OW22184  14.777   9.714   5.064
 6784SOL    HW122185  14.705   9.765   5.027
 6784SOL    HW222186  14.748   9.695   5.154
 6785SOL     OW22187  10.578  12.082   6.950
 6785SOL    HW122188  10.511  12.124   6.895
 6785SOL    HW222189  10.529  12.040   7.020
 6786SOL     OW22190   3.218  14.243   1.962
 6786SOL    HW122191   3.207  14.338   1.968
 6786SOL    HW222192   3.236  14.227   1.870
 6787SOL     OW22193   2.327  10.249  14.552
 6787SOL    HW122194   2.416  10.283  14.561
 6787SOL    HW222195   2.311  10.201  14.633
 6788SOL     OW22196   6.321   7.797   6.322
 6788SOL    HW122197   6.344   7.885   6.293
 6788SOL    HW222198   6.326   7.743   6.243
 6789SOL     OW22199   2.145   8.703   3.892
 6789SOL    HW122200   2.241   8.705   3.887
 6789SOL    HW222201   2.118   8.662   3.810
 6790SOL     OW22202   9.844   3.122  13.553
 6790SOL    HW122203   9.794   3.117  13.472
 6790SOL    HW222204   9.850   3.032  13.584
 6791SOL     OW22205   5.251   1.381  10.572
 6791SOL    HW122206   5.343   1.392  10.596
 6791SOL    HW222207   5.223   1.468  10.544
 6792SOL     OW22208   4.028   3.167   4.011
 6792SOL    HW122209   3.976   3.236   3.972
 6792SOL    HW222210   3.965   3.114   4.060
 6793SOL     OW22211   9.886   6.389   1.662
 6793SOL    HW122212   9.957   6.410   1.724
 6793SOL    HW222213   9.922   6.411   1.576
 6794SOL     OW22214  10.062   9.142   9.474
 6794SOL    HW122215  10.086   9.145   9.381
 6794SOL    HW222216   9.989   9.204   9.482
 6795SOL     OW22217   1.848   6.874  14.635
 6795SOL    HW122218   1.887   6.817  14.701
 6795SOL    HW222219   1.911   6.946  14.625
 6796SOL     OW22220   7.553   7.386  12.089
 6796SOL    HW122221   7.556   7.309  12.032
 6796SOL    HW222222   7.550   7.349  12.178
 6797SOL     OW22223  10.925   6.666   5.450
 6797SOL    HW122224  10.985   6.675   5.523
 6797SOL    HW222225  10.839   6.657   5.491
 6798SOL     OW22226   7.212   3.215   0.589
 6798SOL    HW122227   7.207   3.237   0.682
 6798SOL    HW222228   7.149   3.274   0.547
 6799SOL     OW22229   9.717   4.324   5.230
 6799SOL    HW122230   9.647   4.360   5.175
 6799SOL    HW222231   9.724   4.385   5.302
 6800SOL     OW22232  10.635  11.313   3.282
 6800SOL    HW122233  10.716  11.272   3.312
 6800SOL    HW222234  10.566  11.253   3.310
 6801SOL     OW22235   6.094  13.277  14.228
 6801SOL    HW122236   6.075  13.335  14.154
 6801SOL    HW222237   6.046  13.196  14.207
 6802SOL     OW22238  12.463   7.181   0.559
 6802SOL    HW122239  12.473   7.218   0.472
 6802SOL    HW222240  12.444   7.089   0.545
 6803SOL     OW22241   6.384   0.144   5.274
 6803SOL    HW122242   6.372   0.154   5.369
 6803SOL    HW222243   6.473   0.174   5.258
 6804SOL     OW22244   3.553   8.274   5.534
 6804SOL    HW122245   3.527   8.311   5.618
 6804SOL    HW222246   3.647   8.290   5.529
 6805SOL     OW22247   7.071   9.292   0.763
 6805SOL    HW122248   7.047   9.261   0.850
 6805SOL    HW222249   6.987   9.310   0.720
 6806SOL     OW22250  13.784   4.832  12.632
 6806SOL    HW122251  13.705   4.795  12.594
 6806SOL    HW222252  13.856   4.791  12.584
 6807SOL     OW22253   9.430   0.031   4.057
 6807SOL    HW122254   9.445   0.021   4.151
 6807SOL    HW222255   9.345  14.869   4.042
 6808SOL     OW22256   2.391   5.477  14.541
 6808SOL    HW122257   2.453   5.464  14.613
 6808SOL    HW222258   2.445   5.480  14.462
 6809SOL     OW22259   0.813   7.040   3.398
 6809SOL    HW122260   0.840   7.054   3.488
 6809SOL    HW222261   0.765   6.957   3.400
 6810SOL     OW22262   6.692  13.788  13.418
 6810SOL    HW122263   6.610  13.773  13.466
 6810SOL    HW222264   6.758  13.740  13.468
 6811SOL     OW22265  14.330   9.214   2.558
 6811SOL    HW122266  14.276   9.274   2.507
 6811SOL    HW222267  14.333   9.252   2.645
 6812SOL     OW22268   5.332   3.276   8.464
 6812SOL    HW122269   5.326   3.358   8.415
 6812SOL    HW222270   5.350   3.210   8.398
 6813SOL     OW22271  12.782  12.044   3.996
 6813SOL    HW122272  12.805  12.094   4.075
 6813SOL    HW222273  12.693  12.012   4.013
 6814SOL     OW22274  14.875   3.219  11.719
 6814SOL    HW122275  14.781   3.216  11.698
 6814SOL    HW222276   0.038   3.173  11.647
 6815SOL     OW22277   8.943   6.802   4.864
 6815SOL    HW122278   8.888   6.749   4.922
 6815SOL    HW222279   9.011   6.741   4.834
 6816SOL     OW22280  14.332   9.936   4.598
 6816SOL    HW122281  14.348   9.882   4.520
 6816SOL    HW222282  14.406   9.996   4.601
 6817SOL     OW22283   3.960  13.402  13.822
 6817SOL    HW122284   4.049  13.437  13.820
 6817SOL    HW222285   3.930  13.416  13.912
 6818SOL     OW22286  10.436  14.007   2.975
 6818SOL    HW122287  10.441  14.048   3.061
 6818SOL    HW222288  10.527  13.990   2.950
 6819SOL     OW22289   9.968  12.048   4.559
 6819SOL    HW122290   9.997  11.963   4.592
 6819SOL    HW222291   9.954  12.034   4.466
 6820SOL     OW22292   4.295  14.857   1.097
 6820SOL    HW122293   4.280   0.068   1.125
 6820SOL    HW222294   4.278  14.858   1.003
 6821SOL     OW22295   5.194   4.865   1.682
 6821SOL    HW122296   5.219   4.943   1.633
 6821SOL    HW222297   5.214   4.792   1.623
 6822SOL     OW22298  12.948  13.905   9.885
 6822SOL    HW122299  12.931  13.811   9.877
 6822SOL    HW222300  12.987  13.930   9.801
 6823SOL     OW22301   7.744   2.426   0.827
 6823SOL    HW122302   7.746   2.461   0.738
 6823SOL    HW222303   7.831   2.446   0.862
 6824SOL     OW22304  11.267   8.282   6.279
 6824SOL    HW122305  11.332   8.325   6.223
 6824SOL    HW222306  11.183   8.310   6.244
 6825SOL     OW22307   8.314   9.744   4.550
 6825SOL    HW122308   8.408   9.747   4.569
 6825SOL    HW222309   8.273   9.790   4.623
 6826SOL     OW22310  13.472  12.253   8.959
 6826SOL    HW122311  13.510  12.240   8.871
 6826SOL    HW222312  13.512  12.335   8.989
 6827SOL     OW22313   1.328   1.123   7.657
 6827SOL    HW122314   1.251   1.072   7.634
 6827SOL    HW222315   1.401   1.077   7.615
 6828SOL     OW22316   6.499   1.268  11.947
 6828SOL    HW122317   6.476   1.343  12.002
 6828SOL    HW222318   6.472   1.191  11.999
 6829SOL     OW22319   0.106  14.393  11.265
 6829SOL    HW122320   0.044  14.425  11.330
 6829SOL    HW222321   0.121  14.301  11.290
 6830SOL     OW22322  11.252  13.406   3.987
 6830SOL    HW122323  11.281  13.476   4.045
 6830SOL    HW222324  11.157  13.402   3.998
 6831SOL     OW22325   4.965   6.655   3.045
 6831SOL    HW122326   4.887   6.601   3.058
 6831SOL    HW222327   4.977   6.656   2.950
 6832SOL     OW22328   2.028   9.790   1.171
 6832SOL    HW122329   2.002   9.780   1.079
 6832SOL    HW222330   1.945   9.785   1.219
 6833SOL     OW22331  11.545  12.510   3.305
 6833SOL    HW122332  11.625  12.499   3.356
 6833SOL    HW222333  11.482  12.548   3.367
 6834SOL     OW22334   8.338   0.751   4.222
 6834SOL    HW122335   8.343   0.727   4.315
 6834SOL    HW222336   8.271   0.693   4.186
 6835SOL     OW22337  11.048   2.204   6.047
 6835SOL    HW122338  11.140   2.178   6.049
 6835SOL    HW222339  11.046   2.283   5.994
 6836SOL     OW22340   3.985  11.299  12.731
 6836SOL    HW122341   3.932  11.324  12.807
 6836SOL    HW222342   4.028  11.380  12.703
 6837SOL     OW22343  11.362   3.077   3.796
 6837SOL    HW122344  11.350   3.113   3.884
 6837SOL    HW222345  11.390   2.987   3.811
 6838SOL     OW22346   0.576   0.722   9.400
 6838SOL    HW122347   0.667   0.729   9.429
 6838SOL    HW222348   0.532   0.672   9.470
 6839SOL     OW22349   8.531   5.065   1.242
 6839SOL    HW122350   8.568   4.978   1.228
 6839SOL    HW222351   8.507   5.066   1.335
 6840SOL     OW22352   1.769  14.011   3.897
 6840SOL    HW122353   1.712  14.071   3.946
 6840SOL    HW222354   1.709  13.953   3.851
 6841SOL     OW22355   6.370   3.395   8.633
 6841SOL    HW122356   6.344   3.447   8.709
 6841SOL    HW222357   6.415   3.457   8.576
 6842SOL     OW22358   0.525   1.045  11.882
 6842SOL    HW122359   0.492   0.959  11.855
 6842SOL    HW222360   0.448   1.100  11.889
 6843SOL     OW22361  12.620   2.363  10.306
 6843SOL    HW122362  12.545   2.367  10.246
 6843SOL    HW222363  12.695   2.388  10.252
 6844SOL     OW22364  13.756   6.512   0.701
 6844SOL    HW122365  13.717   6.549   0.780
 6844SOL    HW222366  13.726   6.421   0.700
 6845SOL     OW22367   8.885  11.116  14.437
 6845SOL    HW122368   8.914  11.026  14.419
 6845SOL    HW222369   8.881  11.157  14.351
 6846SOL     OW22370   5.173  10.744   6.429
 6846SOL    HW122371   5.209  10.714   6.513
 6846SOL    HW222372   5.207  10.682   6.365
 6847SOL     OW22373   4.458   8.970  12.871
 6847SOL    HW122374   4.535   9.026  12.879
 6847SOL    HW222375   4.428   8.985  12.781
 6848SOL     OW22376  13.411   6.362   1.557
 6848SOL    HW122377  13.345   6.420   1.519
 6848SOL    HW222378  13.454   6.322   1.482
 6849SOL     OW22379   4.329  11.003   1.001
 6849SOL    HW122380   4.415  10.962   0.991
 6849SOL    HW222381   4.287  10.990   0.915
 6850SOL     OW22382   9.854  12.383   4.837
 6850SOL    HW122383   9.823  12.422   4.755
 6850SOL    HW222384   9.937  12.427   4.855
 6851SOL     OW22385  12.081   8.398  14.017
 6851SOL    HW122386  12.013   8.361  14.074
 6851SOL    HW222387  12.103   8.481  14.059
 6852SOL     OW22388   3.014   8.361  10.509
 6852SOL    HW122389   2.968   8.323  10.434
 6852SOL    HW222390   2.947   8.368  10.577
 6853SOL     OW22391  12.163  12.113   5.095
 6853SOL    HW122392  12.087  12.058   5.077
 6853SOL    HW222393  12.238  12.054   5.087
 6854SOL     OW22394   7.463   9.430  13.191
 6854SOL    HW122395   7.555   9.432  13.217
 6854SOL    HW222396   7.415   9.447  13.271
 6855SOL     OW22397   3.176   3.187   4.169
 6855SOL    HW122398   3.102   3.148   4.216
 6855SOL    HW222399   3.167   3.153   4.080
 6856SOL     OW22400  10.531   0.450   5.976
 6856SOL    HW122401  10.475   0.491   5.910
 6856SOL    HW222402  10.600   0.408   5.925
 6857SOL     OW22403   5.255   5.576   9.040
 6857SOL    HW122404   5.190   5.524   8.993
 6857SOL    HW222405   5.288   5.639   8.976
 6858SOL     OW22406   8.376  13.448  13.805
 6858SOL    HW122407   8.364  13.421  13.896
 6858SOL    HW222408   8.372  13.367  13.755
 6859SOL     OW22409   0.801   9.906   9.995
 6859SOL    HW122410   0.732   9.857   9.950
 6859SOL    HW222411   0.816   9.983   9.939
 6860SOL     OW22412  10.403   5.025   4.106
 6860SOL    HW122413  10.365   5.042   4.019
 6860SOL    HW222414  10.341   4.965   4.147
 6861SOL     OW22415   3.213   4.308   5.404
 6861SOL    HW122416   3.220   4.338   5.495
 6861SOL    HW222417   3.301   4.322   5.368
 6862SOL     OW22418  12.640   8.209  14.273
 6862SOL    HW122419  12.687   8.287  14.303
 6862SOL    HW222420  12.682   8.186  14.190
 6863SOL     OW22421  13.393   1.251  14.343
 6863SOL    HW122422  13.321   1.212  14.294
 6863SOL    HW222423  13.459   1.271  14.276
 6864SOL     OW22424   7.849   2.106  12.060
 6864SOL    HW122425   7.800   2.067  12.132
 6864SOL    HW222426   7.941   2.093  12.084
 6865SOL     OW22427   1.318   5.787  13.788
 6865SOL    HW122428   1.338   5.734  13.710
 6865SOL    HW222429   1.331   5.728  13.862
 6866SOL     OW22430   8.248   8.019   2.133
 6866SOL    HW122431   8.194   8.016   2.212
 6866SOL    HW222432   8.194   8.066   2.069
 6867SOL     OW22433   9.046   5.124  13.570
 6867SOL    HW122434   9.130   5.099  13.609
 6867SOL    HW222435   8.991   5.147  13.646
 6868SOL     OW22436   4.911  12.979   8.821
 6868SOL    HW122437   4.935  13.054   8.874
 6868SOL    HW222438   4.841  12.936   8.870
 6869SOL     OW22439   6.363  14.034  10.861
 6869SOL    HW122440   6.432  14.045  10.795
 6869SOL    HW222441   6.387  13.954  10.908
 6870SOL     OW22442   0.644   9.021  12.770
 6870SOL    HW122443   0.673   8.975  12.691
 6870SOL    HW222444   0.686   8.974  12.842
 6871SOL     OW22445  12.292   0.664  12.281
 6871SOL    HW122446  12.303   0.725  12.207
 6871SOL    HW222447  12.248   0.716  12.348
 6872SOL     OW22448  11.346  12.791  10.484
 6872SOL    HW122449  11.335  12.697  10.499
 6872SOL    HW222450  11.302  12.833  10.558
 6873SOL     OW22451   2.893   0.130   8.156
 6873SOL    HW122452   2.979   0.161   8.186
 6873SOL    HW222453   2.852   0.094   8.235
 6874SOL     OW22454  14.717   2.868   2.977
 6874SOL    HW122455  14.629   2.895   2.952
 6874SOL    HW222456  14.752   2.942   3.027
 6875SOL     OW22457  14.872   0.970   7.583
 6875SOL    HW122458   0.045   0.893   7.608
 6875SOL    HW222459  14.785   0.953   7.619
 6876SOL     OW22460   5.522   8.330  10.281
 6876SOL    HW122461   5.576   8.327  10.360
 6876SOL    HW222462   5.575   8.286  10.214
 6877SOL     OW22463  14.576  14.096  11.947
 6877SOL    HW122464  14.582  14.003  11.928
 6877SOL    HW222465  14.639  14.111  12.018
 6878SOL     OW22466   7.281   1.298   5.833
 6878SOL    HW122467   7.250   1.214   5.799
 6878SOL    HW222468   7.237   1.307   5.918
 6879SOL     OW22469   5.209  13.577  10.839
 6879SOL    HW122470   5.244  13.636  10.772
 6879SOL    HW222471   5.195  13.632  10.916
 6880SOL     OW22472   9.319   5.652  12.830
 6880SOL    HW122473   9.404   5.640  12.788
 6880SOL    HW222474   9.265   5.580  12.798
 6881SOL     OW22475   4.053   5.928   2.465
 6881SOL    HW122476   3.965   5.911   2.500
 6881SOL    HW222477   4.081   5.844   2.428
 6882SOL     OW22478  12.523   7.901   8.404
 6882SOL    HW122479  12.544   7.913   8.311
 6882SOL    HW222480  12.436   7.861   8.404
 6883SOL     OW22481  11.098   5.524   6.840
 6883SOL    HW122482  11.087   5.463   6.767
 6883SOL    HW222483  11.187   5.557   6.830
 6884SOL     OW22484  10.552   2.978  12.971
 6884SOL    HW122485  10.530   3.071  12.966
 6884SOL    HW222486  10.573   2.953  12.881
 6885SOL     OW22487   1.734  12.743   8.199
 6885SOL    HW122488   1.706  12.749   8.291
 6885SOL    HW222489   1.828  12.756   8.202
 6886SOL     OW22490   1.953   8.292   4.866
 6886SOL    HW122491   1.940   8.262   4.957
 6886SOL    HW222492   2.047   8.294   4.855
 6887SOL     OW22493   9.142   4.894   3.462
 6887SOL    HW122494   9.105   4.962   3.406
 6887SOL    HW222495   9.211   4.938   3.511
 6888SOL     OW22496   9.630  13.663  13.873
 6888SOL    HW122497   9.558  13.679  13.934
 6888SOL    HW222498   9.621  13.731  13.806
 6889SOL     OW22499   6.836   9.400   3.202
 6889SOL    HW122500   6.851   9.456   3.278
 6889SOL    HW222501   6.827   9.461   3.129
 6890SOL     OW22502  14.173  13.736   9.117
 6890SOL    HW122503  14.163  13.737   9.022
 6890SOL    HW222504  14.251  13.788   9.134
 6891SOL     OW22505   8.689   6.944   5.632
 6891SOL    HW122506   8.749   6.888   5.582
 6891SOL    HW222507   8.623   6.884   5.666
 6892SOL     OW22508   0.087   8.413   3.849
 6892SOL    HW122509   0.069   8.466   3.772
 6892SOL    HW222510   0.173   8.375   3.833
 6893SOL     OW22511   0.954  14.861  10.505
 6893SOL    HW122512   0.894  14.802  10.459
 6893SOL    HW222513   1.033  14.809  10.519
 6894SOL     OW22514  11.641   0.972  13.517
 6894SOL    HW122515  11.690   0.962  13.598
 6894SOL    HW222516  11.652   1.064  13.493
 6895SOL     OW22517   8.777   9.345   7.235
 6895SOL    HW122518   8.768   9.417   7.173
 6895SOL    HW222519   8.698   9.348   7.288
 6896SOL     OW22520   4.658  10.440  10.645
 6896SOL    HW122521   4.728  10.501  10.621
 6896SOL    HW222522   4.702  10.368  10.688
 6897SOL     OW22523  10.647  12.578  13.791
 6897SOL    HW122524  10.567  12.630  13.796
 6897SOL    HW222525  10.641  12.532  13.707
 6898SOL     OW22526   3.942   1.067  12.644
 6898SOL    HW122527   3.923   1.087  12.736
 6898SOL    HW222528   3.900   0.982  12.628
 6899SOL     OW22529  11.668   8.418  14.577
 6899SOL    HW122530  11.592   8.361  14.570
 6899SOL    HW222531  11.742   8.363  14.553
 6900SOL     OW22532   1.829   2.326  13.443
 6900SOL    HW122533   1.797   2.348  13.530
 6900SOL    HW222534   1.749   2.321  13.389
 6901SOL     OW22535   1.914   6.731   0.796
 6901SOL    HW122536   1.988   6.693   0.748
 6901SOL    HW222537   1.839   6.677   0.771
 6902SOL     OW22538   5.697   2.534  10.325
 6902SOL    HW122539   5.747   2.544  10.407
 6902SOL    HW222540   5.641   2.611  10.322
 6903SOL     OW22541  10.552   5.093   1.479
 6903SOL    HW122542  10.510   5.166   1.433
 6903SOL    HW222543  10.593   5.133   1.556
 6904SOL     OW22544  13.902   4.555   5.483
 6904SOL    HW122545  13.974   4.552   5.421
 6904SOL    HW222546  13.828   4.516   5.436
 6905SOL     OW22547  13.949   0.536   0.426
 6905SOL    HW122548  13.915   0.451   0.396
 6905SOL    HW222549  14.036   0.541   0.387
 6906SOL     OW22550   4.144  14.216   8.564
 6906SOL    HW122551   4.148  14.209   8.469
 6906SOL    HW222552   4.219  14.270   8.588
 6907SOL     OW22553   7.760   2.607  11.796
 6907SOL    HW122554   7.784   2.592  11.888
 6907SOL    HW222555   7.785   2.526  11.752
 6908SOL     OW22556   6.299  14.440   7.747
 6908SOL    HW122557   6.346  14.437   7.831
 6908SOL    HW222558   6.232  14.507   7.760
 6909SOL     OW22559  12.615   2.757  12.402
 6909SOL    HW122560  12.640   2.666  12.384
 6909SOL    HW222561  12.537   2.749  12.457
 6910SOL     OW22562  11.454   3.892   1.475
 6910SOL    HW122563  11.428   3.803   1.497
 6910SOL    HW222564  11.519   3.883   1.406
 6911SOL     OW22565   2.831  13.096   5.814
 6911SOL    HW122566   2.830  13.056   5.727
 6911SOL    HW222567   2.917  13.074   5.849
 6912SOL     OW22568   3.249  12.146   9.341
 6912SOL    HW122569   3.233  12.233   9.377
 6912SOL    HW222570   3.204  12.087   9.401
 6913SOL     OW22571   5.962  12.264   5.487
 6913SOL    HW122572   5.884  12.213   5.508
 6913SOL    HW222573   5.964  12.266   5.391
 6914SOL     OW22574  11.347  12.286   8.409
 6914SOL    HW122575  11.305  12.211   8.366
 6914SOL    HW222576  11.440  12.267   8.405
 6915SOL     OW22577  13.849   4.523   9.591
 6915SOL    HW122578  13.840   4.589   9.523
 6915SOL    HW222579  13.849   4.440   9.543
 6916SOL     OW22580   0.703   3.106   8.013
 6916SOL    HW122581   0.622   3.091   8.062
 6916SOL    HW222582   0.719   3.024   7.967
 6917SOL     OW22583   1.052   1.929  13.430
 6917SOL    HW122584   1.081   1.838  13.434
 6917SOL    HW222585   1.012   1.945  13.515
 6918SOL     OW22586   0.657   8.180  10.023
 6918SOL    HW122587   0.693   8.259   9.982
 6918SOL    HW222588   0.685   8.109   9.967
 6919SOL     OW22589   5.728   3.526  12.992
 6919SOL    HW122590   5.739   3.545  13.085
 6919SOL    HW222591   5.807   3.478  12.967
 6920SOL     OW22592   5.231  10.277  11.241
 6920SOL    HW122593   5.255  10.205  11.183
 6920SOL    HW222594   5.227  10.353  11.184
 6921SOL     OW22595   4.011   1.426   9.879
 6921SOL    HW122596   4.097   1.392   9.903
 6921SOL    HW222597   4.022   1.521   9.878
 6922SOL     OW22598  14.753   7.079   1.196
 6922SOL    HW122599  14.701   7.081   1.115
 6922SOL    HW222600  14.800   7.162   1.196
 6923SOL     OW22601   6.711   8.218   0.843
 6923SOL    HW122602   6.786   8.184   0.794
 6923SOL    HW222603   6.738   8.306   0.869
 6924SOL     OW22604   5.387  10.947   5.389
 6924SOL    HW122605   5.320  10.958   5.322
 6924SOL    HW222606   5.338  10.943   5.471
 6925SOL     OW22607   1.737   0.266   5.385
 6925SOL    HW122608   1.830   0.265   5.410
 6925SOL    HW222609   1.690   0.255   5.468
 6926SOL     OW22610   0.630   6.151  13.034
 6926SOL    HW122611   0.670   6.115  12.955
 6926SOL    HW222612   0.686   6.119  13.105
 6927SOL     OW22613   7.014   9.263   4.709
 6927SOL    HW122614   7.003   9.357   4.696
 6927SOL    HW222615   6.989   9.248   4.800
 6928SOL     OW22616   1.116  12.263  14.384
 6928SOL    HW122617   1.204  12.228  14.399
 6928SOL    HW222618   1.060  12.186  14.375
 6929SOL     OW22619  12.897   1.545   3.424
 6929SOL    HW122620  12.851   1.538   3.507
 6929SOL    HW222621  12.852   1.483   3.366
 6930SOL     OW22622   3.922   6.193  12.235
 6930SOL    HW122623   3.933   6.231  12.322
 6930SOL    HW222624   3.828   6.174  12.229
 6931SOL     OW22625  13.157   0.983  12.610
 6931SOL    HW122626  13.065   0.999  12.628
 6931SOL    HW222627  13.196   0.969  12.696
 6932SOL     OW22628  11.673  11.416  12.881
 6932SOL    HW122629  11.680  11.501  12.924
 6932SOL    HW222630  11.760  11.402  12.842
 6933SOL     OW22631   1.639  11.452   1.201
 6933SOL    HW122632   1.649  11.543   1.171
 6933SOL    HW222633   1.544  11.437   1.199
 6934SOL     OW22634   4.200   9.650  10.464
 6934SOL    HW122635   4.275   9.690  10.508
 6934SOL    HW222636   4.228   9.641  10.373
 6935SOL     OW22637   9.746   7.636   5.466
 6935SOL    HW122638   9.717   7.713   5.416
 6935SOL    HW222639   9.668   7.583   5.475
 6936SOL     OW22640  11.792   6.785   0.072
 6936SOL    HW122641  11.704   6.814   0.095
 6936SOL    HW222642  11.816   6.838  14.874
 6937SOL     OW22643   1.208  13.287  14.087
 6937SOL    HW122644   1.145  13.359  14.081
 6937SOL    HW222645   1.278  13.322  14.142
 6938SOL     OW22646   9.511   3.030   0.124
 6938SOL    HW122647   9.531   2.967   0.055
 6938SOL    HW222648   9.422   3.059   0.105
 6939SOL     OW22649  14.015   2.206   0.559
 6939SOL    HW122650  13.947   2.186   0.495
 6939SOL    HW222651  14.092   2.158   0.528
 6940SOL     OW22652  10.705   0.944   1.318
 6940SOL    HW122653  10.791   0.961   1.355
 6940SOL    HW222654  10.644   0.987   1.378
 6941SOL     OW22655   6.822  14.469   5.506
 6941SOL    HW122656   6.775  14.385   5.507
 6941SOL    HW222657   6.753  14.535   5.513
 6942SOL     OW22658  12.363   6.882   6.393
 6942SOL    HW122659  12.329   6.919   6.474
 6942SOL    HW222660  12.286   6.863   6.340
 6943SOL     OW22661  12.404   1.264   9.743
 6943SOL    HW122662  12.495   1.237   9.730
 6943SOL    HW222663  12.370   1.206   9.811
 6944SOL     OW22664   2.632  10.452   7.841
 6944SOL    HW122665   2.588  10.457   7.756
 6944SOL    HW222666   2.581  10.511   7.897
 6945SOL     OW22667  12.815   3.775   6.531
 6945SOL    HW122668  12.874   3.700   6.517
 6945SOL    HW222669  12.843   3.840   6.466
 6946SOL     OW22670   0.534   3.238   9.278
 6946SOL    HW122671   0.521   3.332   9.284
 6946SOL    HW222672   0.603   3.219   9.342
 6947SOL     OW22673   4.182   8.781  13.595
 6947SOL    HW122674   4.152   8.872  13.601
 6947SOL    HW222675   4.184   8.750  13.685
 6948SOL     OW22676   5.522   5.415   1.698
 6948SOL    HW122677   5.551   5.362   1.772
 6948SOL    HW222678   5.432   5.386   1.682
 6949SOL     OW22679   4.572   1.266   6.946
 6949SOL    HW122680   4.516   1.195   6.915
 6949SOL    HW222681   4.537   1.287   7.032
 6950SOL     OW22682   3.191   1.872   5.407
 6950SOL    HW122683   3.215   1.790   5.450
 6950SOL    HW222684   3.099   1.886   5.430
 6951SOL     OW22685   0.951   6.497   9.952
 6951SOL    HW122686   1.001   6.558  10.006
 6951SOL    HW222687   0.887   6.552   9.906
 6952SOL     OW22688  10.922   6.888   7.638
 6952SOL    HW122689  10.923   6.896   7.734
 6952SOL    HW222690  10.830   6.892   7.615
 6953SOL     OW22691   7.484   8.726   1.633
 6953SOL    HW122692   7.393   8.696   1.635
 6953SOL    HW222693   7.478   8.819   1.613
 6954SOL     OW22694   6.846   2.301   1.452
 6954SOL    HW122695   6.940   2.281   1.449
 6954SOL    HW222696   6.814   2.279   1.364
 6955SOL     OW22697   1.956   7.071  11.326
 6955SOL    HW122698   1.929   6.995  11.274
 6955SOL    HW222699   2.042   7.046  11.361
 6956SOL     OW22700  14.741   2.520   0.527
 6956SOL    HW122701  14.777   2.606   0.508
 6956SOL    HW222702  14.805   2.480   0.586
 6957SOL     OW22703   3.179  13.195   9.525
 6957SOL    HW122704   3.261  13.167   9.566
 6957SOL    HW222705   3.177  13.149   9.441
 6958SOL     OW22706  14.562   4.500   6.209
 6958SOL    HW122707  14.647   4.456   6.213
 6958SOL    HW222708  14.566   4.552   6.129
 6959SOL     OW22709   8.683   8.362   1.538
 6959SOL    HW122710   8.725   8.282   1.507
 6959SOL    HW222711   8.661   8.343   1.629
 6960SOL     OW22712  12.745  12.607  12.107
 6960SOL    HW122713  12.710  12.529  12.065
 6960SOL    HW222714  12.668  12.663  12.123
 6961SOL     OW22715   6.714   5.662  12.665
 6961SOL    HW122716   6.805   5.690  12.659
 6961SOL    HW222717   6.718   5.571  12.695
 6962SOL     OW22718   9.026  14.219   6.986
 6962SOL    HW122719   9.067  14.133   6.988
 6962SOL    HW222720   9.054  14.261   7.067
 6963SOL     OW22721  12.200   5.315   8.065
 6963SOL    HW122722  12.147   5.262   8.005
 6963SOL    HW222723  12.153   5.398   8.072
 6964SOL     OW22724  11.491   3.442   5.301
 6964SOL    HW122725  11.436   3.368   5.327
 6964SOL    HW222726  11.428   3.511   5.277
 6965SOL     OW22727   7.434   3.240  11.872
 6965SOL    HW122728   7.348   3.277  11.852
 6965SOL    HW222729   7.487   3.315  11.898
 6966SOL     OW22730   1.452   3.344   5.174
 6966SOL    HW122731   1.408   3.267   5.137
 6966SOL    HW222732   1.381   3.402   5.201
 6967SOL     OW22733  13.212  10.676   7.037
 6967SOL    HW122734  13.206  10.663   6.943
 6967SOL    HW222735  13.231  10.590   7.073
 6968SOL     OW22736   9.471   9.573   4.864
 6968SOL    HW122737   9.386   9.574   4.819
 6968SOL    HW222738   9.452   9.607   4.952
 6969SOL     OW22739  12.583   9.392   7.322
 6969SOL    HW122740  12.513   9.452   7.347
 6969SOL    HW222741  12.563   9.368   7.232
 6970SOL     OW22742   7.005   2.061   0.998
 6970SOL    HW122743   7.097   2.058   0.972
 6970SOL    HW222744   6.992   1.983   1.051
 6971SOL     OW22745  14.547   2.680  10.047
 6971SOL    HW122746  14.503   2.738   9.986
 6971SOL    HW222747  14.520   2.592  10.021
 6972SOL     OW22748  10.996   2.771   3.743
 6972SOL    HW122749  10.966   2.780   3.653
 6972SOL    HW222750  10.956   2.844   3.789
 6973SOL     OW22751   1.801   8.585   8.758
 6973SOL    HW122752   1.804   8.490   8.747
 6973SOL    HW222753   1.880   8.617   8.715
 6974SOL     OW22754   1.189  11.676   3.541
 6974SOL    HW122755   1.123  11.691   3.473
 6974SOL    HW222756   1.160  11.731   3.614
 6975SOL     OW22757  10.806   8.568  14.711
 6975SOL    HW122758  10.735   8.522  14.755
 6975SOL    HW222759  10.764   8.611  14.636
 6976SOL     OW22760   0.379   4.937  13.509
 6976SOL    HW122761   0.459   4.955  13.559
 6976SOL    HW222762   0.407   4.875  13.442
 6977SOL     OW22763   5.244   4.611  11.250
 6977SOL    HW122764   5.336   4.585  11.250
 6977SOL    HW222765   5.228   4.644  11.162
 6978SOL     OW22766  13.776   7.222   8.838
 6978SOL    HW122767  13.712   7.292   8.849
 6978SOL    HW222768  13.741   7.149   8.889
 6979SOL     OW22769   2.102  11.171   8.083
 6979SOL    HW122770   2.109  11.102   8.016
 6979SOL    HW222771   2.009  11.175   8.104
 6980SOL     OW22772   0.929   9.546   4.218
 6980SOL    HW122773   0.904   9.612   4.152
 6980SOL    HW222774   0.946   9.467   4.167
 6981SOL     OW22775  11.623  13.057   3.635
 6981SOL    HW122776  11.610  13.013   3.719
 6981SOL    HW222777  11.670  12.993   3.582
 6982SOL     OW22778  10.567   9.175   3.273
 6982SOL    HW122779  10.498   9.200   3.212
 6982SOL    HW222780  10.601   9.093   3.237
 6983SOL     OW22781   1.005   0.918   9.843
 6983SOL    HW122782   0.968   0.944   9.927
 6983SOL    HW222783   1.013   1.000   9.794
 6984SOL     OW22784   7.989   7.014   2.000
 6984SOL    HW122785   8.055   7.032   2.068
 6984SOL    HW222786   8.039   6.980   1.926
 6985SOL     OW22787  12.965  13.886   4.202
 6985SOL    HW122788  13.054  13.892   4.168
 6985SOL    HW222789  12.934  13.800   4.173
 6986SOL     OW22790   6.010   9.603   3.834
 6986SOL    HW122791   6.000   9.523   3.783
 6986SOL    HW222792   6.105   9.612   3.845
 6987SOL     OW22793  13.427   8.330   9.475
 6987SOL    HW122794  13.438   8.421   9.502
 6987SOL    HW222795  13.350   8.300   9.522
 6988SOL     OW22796   7.200  12.943   9.484
 6988SOL    HW122797   7.244  12.938   9.569
 6988SOL    HW222798   7.222  12.860   9.441
 6989SOL     OW22799   4.788   5.794   1.965
 6989SOL    HW122800   4.744   5.875   1.939
 6989SOL    HW222801   4.781   5.737   1.889
 6990SOL     OW22802   9.546   9.983  13.604
 6990SOL    HW122803   9.517  10.073  13.617
 6990SOL    HW222804   9.465   9.933  13.593
 6991SOL     OW22805  12.434   5.351   9.945
 6991SOL    HW122806  12.431   5.299   9.864
 6991SOL    HW222807  12.354   5.403   9.943
 6992SOL     OW22808  13.833   0.531  11.615
 6992SOL    HW122809  13.792   0.587  11.681
 6992SOL    HW222810  13.770   0.461  11.600
 6993SOL     OW22811   6.241   4.709   4.912
 6993SOL    HW122812   6.300   4.784   4.914
 6993SOL    HW222813   6.296   4.634   4.936
 6994SOL     OW22814  11.801   0.576  11.411
 6994SOL    HW122815  11.818   0.639  11.341
 6994SOL    HW222816  11.728   0.523  11.378
 6995SOL     OW22817  14.366   1.412   5.367
 6995SOL    HW122818  14.426   1.410   5.442
 6995SOL    HW222819  14.414   1.461   5.300
 6996SOL     OW22820  13.450   7.299  11.326
 6996SOL    HW122821  13.443   7.319  11.232
 6996SOL    HW222822  13.531   7.248  11.333
 6997SOL     OW22823   3.538  10.500  10.944
 6997SOL    HW122824   3.602  10.529  10.879
 6997SOL    HW222825   3.587  10.493  11.025
 6998SOL     OW22826   5.079  10.698  12.112
 6998SOL    HW122827   5.035  10.615  12.097
 6998SOL    HW222828   5.020  10.764  12.076
 6999SOL     OW22829  13.470  10.654   1.219
 6999SOL    HW122830  13.386  10.653   1.265
 6999SOL    HW222831  13.463  10.728   1.158
 7000SOL     OW22832   5.205   8.485   6.597
 7000SOL    HW122833   5.139   8.420   6.622
 7000SOL    HW222834   5.288   8.445   6.624
 7001SOL     OW22835   3.277   3.447  14.844
 7001SOL    HW122836   3.355   3.502  14.852
 7001SOL    HW222837   3.275   3.397   0.047
 7002SOL     OW22838   7.279   0.878   7.068
 7002SOL    HW122839   7.326   0.847   6.991
 7002SOL    HW222840   7.187   0.883   7.040
 7003SOL     OW22841   6.556   8.211  10.409
 7003SOL    HW122842   6.463   8.233  10.413
 7003SOL    HW222843   6.595   8.281  10.357
 7004SOL     OW22844  13.355   7.237   4.415
 7004SOL    HW122845  13.341   7.307   4.480
 7004SOL    HW222846  13.435   7.193   4.444
 7005SOL     OW22847  14.850  13.734   1.442
 7005SOL    HW122848   0.026  13.703   1.514
 7005SOL    HW222849   0.031  13.777   1.382
 7006SOL     OW22850  14.696   7.405   2.273
 7006SOL    HW122851  14.724   7.447   2.354
 7006SOL    HW222852  14.760   7.435   2.208
 7007SOL     OW22853   2.254   0.686  14.353
 7007SOL    HW122854   2.338   0.731  14.358
 7007SOL    HW222855   2.224   0.681  14.444
 7008SOL     OW22856   6.416   1.675   6.481
 7008SOL    HW122857   6.413   1.634   6.567
 7008SOL    HW222858   6.509   1.687   6.463
 7009SOL     OW22859   6.846  13.700   1.283
 7009SOL    HW122860   6.878  13.657   1.203
 7009SOL    HW222861   6.787  13.637   1.323
 7010SOL     OW22862   2.175   0.874  10.920
 7010SOL    HW122863   2.257   0.894  10.964
 7010SOL    HW222864   2.126   0.956  10.922
 7011SOL     OW22865   1.014   2.512   0.643
 7011SOL    HW122866   1.003   2.423   0.608
 7011SOL    HW222867   1.091   2.546   0.598
 7012SOL     OW22868  12.442  14.798  11.477
 7012SOL    HW122869  12.492  14.719  11.500
 7012SOL    HW222870  12.493  14.870  11.514
 7013SOL     OW22871   4.585  11.773   2.720
 7013SOL    HW122872   4.607  11.840   2.784
 7013SOL    HW222873   4.650  11.784   2.650
 7014SOL     OW22874  11.845   7.871   6.444
 7014SOL    HW122875  11.781   7.807   6.412
 7014SOL    HW222876  11.895   7.824   6.510
 7015SOL     OW22877   8.439   2.045  14.127
 7015SOL    HW122878   8.533   2.029  14.132
 7015SOL    HW222879   8.411   2.053  14.218
 7016SOL     OW22880  13.958   0.065  10.607
 7016SOL    HW122881  14.022   0.094  10.542
 7016SOL    HW222882  13.963  14.848  10.604
 7017SOL     OW22883  11.300   0.945   2.757
 7017SOL    HW122884  11.379   0.996   2.738
 7017SOL    HW222885  11.327   0.881   2.822
 7018SOL     OW22886  11.417   0.122   1.352
 7018SOL    HW122887  11.428   0.191   1.417
 7018SOL    HW222888  11.421   0.041   1.403
 7019SOL     OW22889   7.419   7.529  10.576
 7019SOL    HW122890   7.410   7.464  10.506
 7019SOL    HW222891   7.481   7.594  10.542
 7020SOL     OW22892   3.883   6.873   4.915
 7020SOL    HW122893   3.797   6.899   4.948
 7020SOL    HW222894   3.897   6.785   4.951
 7021SOL     OW22895   5.518  12.054   7.649
 7021SOL    HW122896   5.442  12.024   7.599
 7021SOL    HW222897   5.588  12.061   7.584
 7022SOL     OW22898   1.128   1.045  10.439
 7022SOL    HW122899   1.152   0.977  10.502
 7022SOL    HW222900   1.032   1.047  10.441
 7023SOL     OW22901   4.483  10.439   2.610
 7023SOL    HW122902   4.533  10.484   2.541
 7023SOL    HW222903   4.484  10.501   2.683
 7024SOL     OW22904  13.751   9.710  10.201
 7024SOL    HW122905  13.751   9.700  10.105
 7024SOL    HW222906  13.675   9.765  10.219
 7025SOL     OW22907   4.847   6.864   7.416
 7025SOL    HW122908   4.916   6.797   7.411
 7025SOL    HW222909   4.774   6.819   7.457
 7026SOL     OW22910   9.599   0.650   7.378
 7026SOL    HW122911   9.598   0.663   7.283
 7026SOL    HW222912   9.649   0.570   7.391
 7027SOL     OW22913   7.116  10.470   8.646
 7027SOL    HW122914   7.083  10.556   8.670
 7027SOL    HW222915   7.121  10.472   8.551
 7028SOL     OW22916  11.243  14.822  14.171
 7028SOL    HW122917  11.171  14.818  14.108
 7028SOL    HW222918  11.296   0.017  14.141
 7029SOL     OW22919  14.545   4.625   2.366
 7029SOL    HW122920  14.522   4.576   2.287
 7029SOL    HW222921  14.514   4.714   2.349
 7030SOL     OW22922   1.741  11.161  10.443
 7030SOL    HW122923   1.833  11.163  10.468
 7030SOL    HW222924   1.737  11.214  10.363
 7031SOL     OW22925   1.534  12.109   9.664
 7031SOL    HW122926   1.570  12.112   9.753
 7031SOL    HW222927   1.556  12.021   9.633
 7032SOL     OW22928   3.228  13.503  12.305
 7032SOL    HW122929   3.206  13.593  12.330
 7032SOL    HW222930   3.305  13.482  12.358
 7033SOL     OW22931   0.756   6.814   3.891
 7033SOL    HW122932   0.665   6.828   3.920
 7033SOL    HW222933   0.767   6.719   3.892
 7034SOL     OW22934   1.064   7.721   7.612
 7034SOL    HW122935   1.126   7.661   7.653
 7034SOL    HW222936   1.090   7.807   7.643
 7035SOL     OW22937  12.024   3.734  11.246
 7035SOL    HW122938  11.940   3.721  11.291
 7035SOL    HW222939  12.036   3.829  11.248
 7036SOL     OW22940   6.909   6.501  13.340
 7036SOL    HW122941   6.975   6.544  13.286
 7036SOL    HW222942   6.959   6.461  13.412
 7037SOL     OW22943   8.139   3.121   5.960
 7037SOL    HW122944   8.079   3.179   6.007
 7037SOL    HW222945   8.226   3.144   5.994
 7038SOL     OW22946  10.419   5.542  11.621
 7038SOL    HW122947  10.337   5.500  11.595
 7038SOL    HW222948  10.448   5.589  11.543
 7039SOL     OW22949   5.616   7.305  11.377
 7039SOL    HW122950   5.608   7.288  11.283
 7039SOL    HW222951   5.584   7.395  11.388
 7040SOL     OW22952   7.102  14.296  13.143
 7040SOL    HW122953   7.106  14.344  13.060
 7040SOL    HW222954   7.065  14.211  13.120
 7041SOL     OW22955   1.881   1.564   9.819
 7041SOL    HW122956   1.819   1.503   9.779
 7041SOL    HW222957   1.861   1.562   9.912
 7042SOL     OW22958  13.693   2.315  11.878
 7042SOL    HW122959  13.720   2.233  11.918
 7042SOL    HW222960  13.608   2.296  11.839
 7043SOL     OW22961   4.305   8.311   7.427
 7043SOL    HW122962   4.282   8.280   7.339
 7043SOL    HW222963   4.291   8.406   7.424
 7044SOL     OW22964  11.576   7.073  10.471
 7044SOL    HW122965  11.539   6.986  10.486
 7044SOL    HW222966  11.528   7.130  10.532
 7045SOL     OW22967  13.194  12.588  12.504
 7045SOL    HW122968  13.236  12.545  12.578
 7045SOL    HW222969  13.188  12.680  12.529
 7046SOL     OW22970  12.924   1.027   4.627
 7046SOL    HW122971  12.883   1.096   4.575
 7046SOL    HW222972  13.005   1.006   4.581
 7047SOL     OW22973   5.499   6.245  11.555
 7047SOL    HW122974   5.465   6.206  11.475
 7047SOL    HW222975   5.449   6.204  11.625
 7048SOL     OW22976   9.130   8.872   0.453
 7048SOL    HW122977   9.162   8.783   0.468
 7048SOL    HW222978   9.099   8.871   0.362
 7049SOL     OW22979   3.254  11.288   0.835
 7049SOL    HW122980   3.191  11.330   0.776
 7049SOL    HW222981   3.335  11.337   0.822
 7050SOL     OW22982   7.176   7.435  12.368
 7050SOL    HW122983   7.192   7.519  12.410
 7050SOL    HW222984   7.081   7.427  12.364
 7051SOL     OW22985   4.151   8.488   9.737
 7051SOL    HW122986   4.186   8.570   9.703
 7051SOL    HW222987   4.192   8.478   9.823
 7052SOL     OW22988   7.136  14.127  10.023
 7052SOL    HW122989   7.113  14.101   9.933
 7052SOL    HW222990   7.055  14.161  10.060
 7053SOL     OW22991   2.436  10.829   7.190
 7053SOL    HW122992   2.489  10.783   7.255
 7053SOL    HW222993   2.500  10.883   7.142
 7054SOL     OW22994   4.090   2.480   4.060
 7054SOL    HW122995   4.131   2.455   3.977
 7054SOL    HW222996   4.071   2.397   4.103
 7055SOL     OW22997   1.247   8.091   0.763
 7055SOL    HW122998   1.329   8.141   0.761
 7055SOL    HW222999   1.268   8.010   0.716
 7056SOL     OW23000  11.738   0.510   2.043
 7056SOL    HW123001  11.652   0.541   2.072
 7056SOL    HW223002  11.762   0.443   2.108
 7057SOL     OW23003   8.356   0.279  11.768
 7057SOL    HW123004   8.347   0.374  11.755
 7057SOL    HW223005   8.331   0.241  11.683
 7058SOL     OW23006  13.969  11.308   6.989
 7058SOL    HW123007  13.972  11.235   6.927
 7058SOL    HW223008  13.921  11.274   7.064
 7059SOL     OW23009   2.328  14.335   8.270
 7059SOL    HW123010   2.343  14.311   8.178
 7059SOL    HW223011   2.407  14.309   8.316
 7060SOL     OW23012  11.212  10.498   6.612
 7060SOL    HW123013  11.271  10.492   6.538
 7060SOL    HW223014  11.269  10.498   6.689
 7061SOL     OW23015   1.240   1.070  10.147
 7061SOL    HW123016   1.267   1.057  10.056
 7061SOL    HW223017   1.272   1.157  10.169
 7062SOL     OW23018   6.698   8.981  13.875
 7062SOL    HW123019   6.725   9.067  13.907
 7062SOL    HW223020   6.716   8.984  13.781
 7063SOL     OW23021   3.537   0.821   1.184
 7063SOL    HW123022   3.509   0.734   1.212
 7063SOL    HW223023   3.484   0.882   1.236
 7064SOL     OW23024   1.783   1.929   1.674
 7064SOL    HW123025   1.693   1.955   1.693
 7064SOL    HW223026   1.836   1.983   1.733
 7065SOL     OW23027  14.463  10.013   5.150
 7065SOL    HW123028  14.505  10.057   5.224
 7065SOL    HW223029  14.404   9.950   5.191
 7066SOL     OW23030  14.794   5.381  10.774
 7066SOL    HW123031  14.768   5.456  10.720
 7066SOL    HW223032  14.804   5.309  10.712
 7067SOL     OW23033   9.135  14.095   6.670
 7067SOL    HW123034   9.073  14.149   6.621
 7067SOL    HW223035   9.158  14.148   6.746
 7068SOL     OW23036  10.880  11.605   2.662
 7068SOL    HW123037  10.791  11.605   2.697
 7068SOL    HW223038  10.925  11.673   2.713
 7069SOL     OW23039   5.936   7.828   3.863
 7069SOL    HW123040   5.877   7.772   3.812
 7069SOL    HW223041   6.011   7.843   3.806
 7070SOL     OW23042   3.185   6.485   9.933
 7070SOL    HW123043   3.137   6.404   9.913
 7070SOL    HW223044   3.201   6.480  10.027
 7071SOL     OW23045   8.520   0.948  14.119
 7071SOL    HW123046   8.520   0.853  14.107
 7071SOL    HW223047   8.588   0.980  14.059
 7072SOL     OW23048   1.050   8.138  13.376
 7072SOL    HW123049   1.014   8.119  13.463
 7072SOL    HW223050   1.136   8.177  13.393
 7073SOL     OW23051   1.135  11.150   2.913
 7073SOL    HW123052   1.109  11.158   2.821
 7073SOL    HW223053   1.228  11.126   2.909
 7074SOL     OW23054  11.558   3.796   8.000
 7074SOL    HW123055  11.608   3.818   8.078
 7074SOL    HW223056  11.521   3.709   8.019
 7075SOL     OW23057  11.171  14.702   4.437
 7075SOL    HW123058  11.253  14.708   4.485
 7075SOL    HW223059  11.119  14.775   4.471
 7076SOL     OW23060  11.410   5.698   8.429
 7076SOL    HW123061  11.335   5.703   8.489
 7076SOL    HW223062  11.470   5.766   8.460
 7077SOL     OW23063   8.707   0.684  12.147
 7077SOL    HW123064   8.737   0.680  12.238
 7077SOL    HW223065   8.774   0.636  12.097
 7078SOL     OW23066  13.989  13.084  12.733
 7078SOL    HW123067  13.902  13.122  12.744
 7078SOL    HW223068  13.983  13.033  12.652
 7079SOL     OW23069   5.776   5.603   8.594
 7079SOL    HW123070   5.853   5.645   8.633
 7079SOL    HW223071   5.763   5.649   8.511
 7080SOL     OW23072   3.895   4.451   9.368
 7080SOL    HW123073   3.954   4.468   9.441
 7080SOL    HW223074   3.924   4.367   9.332
 7081SOL     OW23075   8.940  12.050   9.224
 7081SOL    HW123076   8.880  12.098   9.167
 7081SOL    HW223077   8.974  11.979   9.170
 7082SOL     OW23078   4.342   4.215   9.195
 7082SOL    HW123079   4.350   4.310   9.193
 7082SOL    HW223080   4.401   4.185   9.125
 7083SOL     OW23081   9.117   0.359  14.678
 7083SOL    HW123082   9.098   0.360  14.585
 7083SOL    HW223083   9.091   0.447  14.708
 7084SOL     OW23084   4.850  10.519  13.896
 7084SOL    HW123085   4.922  10.499  13.836
 7084SOL    HW223086   4.859  10.613  13.912
 7085SOL     OW23087   9.861   3.662   8.099
 7085SOL    HW123088   9.909   3.619   8.030
 7085SOL    HW223089   9.929   3.694   8.160
 7086SOL     OW23090   3.817   5.625   1.037
 7086SOL    HW123091   3.854   5.711   1.023
 7086SOL    HW223092   3.795   5.623   1.131
 7087SOL     OW23093  14.140  14.246  13.984
 7087SOL    HW123094  14.048  14.263  13.962
 7087SOL    HW223095  14.187  14.261  13.902
 7088SOL     OW23096   0.301   8.499  10.478
 7088SOL    HW123097   0.359   8.566  10.515
 7088SOL    HW223098   0.348   8.466  10.402
 7089SOL     OW23099   0.996   8.804  14.253
 7089SOL    HW123100   0.940   8.859  14.307
 7089SOL    HW223101   1.034   8.864  14.189
 7090SOL     OW23102  10.077  12.387  13.290
 7090SOL    HW123103  10.109  12.313  13.238
 7090SOL    HW223104  10.104  12.368  13.379
 7091SOL     OW23105   5.758   6.672  14.214
 7091SOL    HW123106   5.739   6.649  14.305
 7091SOL    HW223107   5.769   6.767  14.215
 7092SOL     OW23108   0.769   4.073   6.326
 7092SOL    HW123109   0.706   4.109   6.263
 7092SOL    HW223110   0.830   4.145   6.343
 7093SOL     OW23111  10.427   8.973   8.032
 7093SOL    HW123112  10.512   8.943   8.000
 7093SOL    HW223113  10.378   8.994   7.953
 7094SOL     OW23114   0.647   2.882   8.783
 7094SOL    HW123115   0.555   2.894   8.757
 7094SOL    HW223116   0.643   2.825   8.859
 7095SOL     OW23117   1.640   8.040   1.812
 7095SOL    HW123118   1.669   8.099   1.743
 7095SOL    HW223119   1.714   7.980   1.824
 7096SOL     OW23120   2.982  14.089  13.739
 7096SOL    HW123121   3.030  14.025  13.791
 7096SOL    HW223122   2.892  14.057  13.739
 7097SOL     OW23123   9.789   4.164  14.504
 7097SOL    HW123124   9.871   4.123  14.532
 7097SOL    HW223125   9.811   4.210  14.423
 7098SOL     OW23126   4.406   0.112   2.907
 7098SOL    HW123127   4.347   0.041   2.883
 7098SOL    HW223128   4.439   0.089   2.993
 7099SOL     OW23129  13.730  12.242  10.022
 7099SOL    HW123130  13.656  12.279   9.972
 7099SOL    HW223131  13.801  12.304  10.007
 7100SOL     OW23132   4.930  13.754  11.658
 7100SOL    HW123133   4.907  13.826  11.600
 7100SOL    HW223134   5.021  13.735  11.639
 7101SOL     OW23135  14.679  12.964   1.561
 7101SOL    HW123136  14.743  12.896   1.538
 7101SOL    HW223137  14.710  13.042   1.516
 7102SOL     OW23138   3.324  10.378   4.802
 7102SOL    HW123139   3.279  10.321   4.864
 7102SOL    HW223140   3.393  10.323   4.764
 7103SOL     OW23141   6.489   9.090   7.072
 7103SOL    HW123142   6.462   9.028   7.004
 7103SOL    HW223143   6.421   9.083   7.139
 7104SOL     OW23144   4.585   9.015   6.834
 7104SOL    HW123145   4.668   8.979   6.803
 7104SOL    HW223146   4.591   9.109   6.816
 7105SOL     OW23147   7.969  14.514  13.789
 7105SOL    HW123148   7.962  14.547  13.878
 7105SOL    HW223149   7.977  14.592  13.735
 7106SOL     OW23150   1.115   8.378   7.660
 7106SOL    HW123151   1.186   8.317   7.677
 7106SOL    HW223152   1.057   8.332   7.600
 7107SOL     OW23153  10.172   0.904   6.119
 7107SOL    HW123154  10.121   0.833   6.156
 7107SOL    HW223155  10.118   0.940   6.049
 7108SOL     OW23156  10.699   4.473   6.598
 7108SOL    HW123157  10.783   4.453   6.556
 7108SOL    HW223158  10.692   4.407   6.668
 7109SOL     OW23159  13.605   2.592  11.613
 7109SOL    HW123160  13.653   2.670  11.640
 7109SOL    HW223161  13.650   2.520  11.657
 7110SOL     OW23162   8.595  10.190   8.277
 7110SOL    HW123163   8.589  10.191   8.372
 7110SOL    HW223164   8.686  10.170   8.258
 7111SOL     OW23165   8.802   6.176   1.026
 7111SOL    HW123166   8.801   6.088   0.989
 7111SOL    HW223167   8.721   6.182   1.076
 7112SOL     OW23168  13.984  14.675  10.645
 7112SOL    HW123169  13.957  14.723  10.724
 7112SOL    HW223170  13.977  14.583  10.669
 7113SOL     OW23171  14.799  13.508   4.425
 7113SOL    HW123172  14.825  13.587   4.472
 7113SOL    HW223173  14.771  13.538   4.339
 7114SOL     OW23174  14.146  14.238   9.170
 7114SOL    HW123175  14.102  14.154   9.159
 7114SOL    HW223176  14.196  14.250   9.089
 7115SOL     OW23177   7.904  14.740   8.317
 7115SOL    HW123178   7.822  14.692   8.326
 7115SOL    HW223179   7.887  14.806   8.250
 7116SOL     OW23180  11.124  14.856  12.712
 7116SOL    HW123181  11.032  14.878  12.698
 7116SOL    HW223182  11.169   0.012  12.635
 7117SOL     OW23183   8.702  14.440   2.819
 7117SOL    HW123184   8.638  14.476   2.757
 7117SOL    HW223185   8.669  14.352   2.838
 7118SOL     OW23186   5.153   7.070   5.360
 7118SOL    HW123187   5.210   7.031   5.294
 7118SOL    HW223188   5.129   6.996   5.417
 7119SOL     OW23189  13.891   4.244   4.645
 7119SOL    HW123190  13.958   4.240   4.577
 7119SOL    HW223191  13.840   4.323   4.624
 7120SOL     OW23192   7.579   0.083  12.876
 7120SOL    HW123193   7.670   0.105  12.897
 7120SOL    HW223194   7.534   0.082  12.960
 7121SOL     OW23195  12.243   0.652   4.370
 7121SOL    HW123196  12.158   0.666   4.329
 7121SOL    HW223197  12.306   0.661   4.298
 7122SOL     OW23198   1.910  14.570  12.126
 7122SOL    HW123199   1.980  14.525  12.173
 7122SOL    HW223200   1.867  14.624  12.192
 7123SOL     OW23201  10.926   9.756  10.304
 7123SOL    HW123202  10.873   9.706  10.241
 7123SOL    HW223203  10.870   9.829  10.330
 7124SOL     OW23204   1.199   9.685  12.778
 7124SOL    HW123205   1.149   9.740  12.718
 7124SOL    HW223206   1.290   9.694  12.751
 7125SOL     OW23207  11.795   2.750  13.398
 7125SOL    HW123208  11.713   2.767  13.351
 7125SOL    HW223209  11.830   2.837  13.418
 7126SOL     OW23210  10.319  13.334  13.268
 7126SOL    HW123211  10.384  13.341  13.198
 7126SOL    HW223212  10.367  13.297  13.342
 7127SOL     OW23213   2.594   5.360  13.218
 7127SOL    HW123214   2.667   5.421  13.229
 7127SOL    HW223215   2.636   5.277  13.194
 7128SOL     OW23216   0.414   6.906  14.786
 7128SOL    HW123217   0.444   6.907  14.695
 7128SOL    HW223218   0.358   6.829  14.792
 7129SOL     OW23219   0.801  14.428   0.485
 7129SOL    HW123220   0.716  14.429   0.441
 7129SOL    HW223221   0.813  14.517   0.518
 7130SOL     OW23222  12.890   9.553   6.920
 7130SOL    HW123223  12.902   9.583   6.830
 7130SOL    HW223224  12.845   9.470   6.912
 7131SOL     OW23225  11.681   6.588   0.279
 7131SOL    HW123226  11.676   6.646   0.203
 7131SOL    HW223227  11.730   6.512   0.249
 7132SOL     OW23228   8.214   2.312   8.281
 7132SOL    HW123229   8.133   2.359   8.259
 7132SOL    HW223230   8.216   2.238   8.221
 7133SOL     OW23231  12.797   6.520   3.529
 7133SOL    HW123232  12.708   6.533   3.562
 7133SOL    HW223233  12.854   6.551   3.599
 7134SOL     OW23234   4.961   0.882   6.180
 7134SOL    HW123235   4.872   0.885   6.147
 7134SOL    HW223236   4.979   0.972   6.208
 7135SOL     OW23237  13.221  14.745  14.032
 7135SOL    HW123238  13.236  14.672  14.092
 7135SOL    HW223239  13.218  14.705  13.946
 7136SOL     OW23240   7.957   1.141  10.331
 7136SOL    HW123241   7.880   1.144  10.276
 7136SOL    HW223242   7.987   1.232  10.336
 7137SOL     OW23243  11.325   2.321   9.968
 7137SOL    HW123244  11.316   2.379   9.893
 7137SOL    HW223245  11.398   2.358  10.018
 7138SOL     OW23246   5.453   4.732   7.487
 7138SOL    HW123247   5.545   4.709   7.489
 7138SOL    HW223248   5.444   4.795   7.415
 7139SOL     OW23249  10.031  11.636   1.735
 7139SOL    HW123250  10.114  11.661   1.695
 7139SOL    HW223251   9.964  11.672   1.677
 7140SOL     OW23252  13.555  13.140  11.830
 7140SOL    HW123253  13.471  13.122  11.789
 7140SOL    HW223254  13.619  13.132  11.759
 7141SOL     OW23255  12.891   2.088   1.292
 7141SOL    HW123256  12.971   2.128   1.325
 7141SOL    HW223257  12.821   2.131   1.342
 7142SOL     OW23258   8.856  11.498   8.195
 7142SOL    HW123259   8.951  11.489   8.203
 7142SOL    HW223260   8.826  11.413   8.162
 7143SOL     OW23261   3.049   1.708   1.073
 7143SOL    HW123262   3.089   1.781   1.026
 7143SOL    HW223263   3.122   1.668   1.121
 7144SOL     OW23264  13.535   2.019   0.439
 7144SOL    HW123265  13.529   2.036   0.533
 7144SOL    HW223266  13.445   2.029   0.408
 7145SOL     OW23267   7.596  14.465   2.673
 7145SOL    HW123268   7.577  14.374   2.693
 7145SOL    HW223269   7.531  14.490   2.608
 7146SOL     OW23270   3.369  10.601   4.432
 7146SOL    HW123271   3.306  10.633   4.497
 7146SOL    HW223272   3.342  10.644   4.351
 7147SOL     OW23273  12.796   5.400   7.866
 7147SOL    HW123274  12.726   5.347   7.829
 7147SOL    HW223275  12.804   5.370   7.957
 7148SOL     OW23276   9.959  14.775   0.301
 7148SOL    HW123277   9.965  14.696   0.354
 7148SOL    HW223278  10.018  14.837   0.343
 7149SOL     OW23279   8.025  14.333  11.588
 7149SOL    HW123280   8.111  14.292  11.585
 7149SOL    HW223281   7.980  14.288  11.660
 7150SOL     OW23282  14.262   6.205   4.594
 7150SOL    HW123283  14.290   6.232   4.507
 7150SOL    HW223284  14.167   6.218   4.594
 7151SOL     OW23285   1.586   4.098  10.148
 7151SOL    HW123286   1.558   4.028  10.089
 7151SOL    HW223287   1.625   4.163  10.090
 7152SOL     OW23288   7.138  12.916  10.239
 7152SOL    HW123289   7.080  12.845  10.269
 7152SOL    HW223290   7.149  12.900  10.146
 7153SOL     OW23291  14.827  12.061  11.844
 7153SOL    HW123292  14.784  12.084  11.926
 7153SOL    HW223293  14.825  11.965  11.842
 7154SOL     OW23294   5.786   9.029   6.537
 7154SOL    HW123295   5.878   9.056   6.536
 7154SOL    HW223296   5.785   8.952   6.594
 7155SOL     OW23297   3.930  14.431   8.257
 7155SOL    HW123298   3.981  14.351   8.264
 7155SOL    HW223299   3.973  14.481   8.188
 7156SOL     OW23300   5.388   5.854  14.750
 7156SOL    HW123301   5.391   5.785  14.816
 7156SOL    HW223302   5.466   5.840  14.697
 7157SOL     OW23303   0.743   3.416   9.715
 7157SOL    HW123304   0.815   3.470   9.747
 7157SOL    HW223305   0.666   3.450   9.761
 7158SOL     OW23306  14.702   1.771  10.004
 7158SOL    HW123307  14.645   1.711   9.956
 7158SOL    HW223308  14.734   1.832   9.938
 7159SOL     OW23309  11.939  12.115   0.827
 7159SOL    HW123310  11.894  12.135   0.909
 7159SOL    HW223311  11.949  12.020   0.827
 7160SOL     OW23312   1.218   9.136  13.744
 7160SOL    HW123313   1.151   9.186  13.789
 7160SOL    HW223314   1.220   9.173  13.655
 7161SOL     OW23315   7.576   0.792  10.173
 7161SOL    HW123316   7.551   0.842  10.095
 7161SOL    HW223317   7.599   0.859  10.238
 7162SOL     OW23318   2.311  12.973   5.621
 7162SOL    HW123319   2.260  12.921   5.683
 7162SOL    HW223320   2.395  12.928   5.616
 7163SOL     OW23321  12.136  12.376   8.681
 7163SOL    HW123322  12.068  12.321   8.644
 7163SOL    HW223323  12.107  12.394   8.771
 7164SOL     OW23324  11.364   3.074   2.066
 7164SOL    HW123325  11.347   3.113   2.152
 7164SOL    HW223326  11.317   2.990   2.068
 7165SOL     OW23327   4.489   6.336   3.574
 7165SOL    HW123328   4.499   6.246   3.607
 7165SOL    HW223329   4.575   6.358   3.538
 7166SOL     OW23330   8.774   7.907   3.194
 7166SOL    HW123331   8.715   7.853   3.248
 7166SOL    HW223332   8.743   7.997   3.209
 7167SOL     OW23333  11.163   7.757   8.563
 7167SOL    HW123334  11.220   7.708   8.622
 7167SOL    HW223335  11.118   7.820   8.620
 7168SOL     OW23336   7.982   7.032  10.453
 7168SOL    HW123337   8.029   7.023  10.370
 7168SOL    HW223338   7.958   7.124  10.457
 7169SOL     OW23339   3.569   7.215  14.692
 7169SOL    HW123340   3.618   7.249  14.766
 7169SOL    HW223341   3.636   7.191  14.627
 7170SOL     OW23342   8.578   8.068  14.319
 7170SOL    HW123343   8.501   8.026  14.281
 7170SOL    HW223344   8.612   8.125  14.249
 7171SOL     OW23345  12.613   8.837   3.408
 7171SOL    HW123346  12.568   8.753   3.408
 7171SOL    HW223347  12.694   8.822   3.360
 7172SOL     OW23348   3.539  10.441   3.788
 7172SOL    HW123349   3.509  10.352   3.769
 7172SOL    HW223350   3.460  10.487   3.816
 7173SOL     OW23351   5.810   2.945  12.312
 7173SOL    HW123352   5.891   2.896  12.300
 7173SOL    HW223353   5.772   2.949  12.224
 7174SOL     OW23354   7.161   5.592   1.360
 7174SOL    HW123355   7.102   5.530   1.403
 7174SOL    HW223356   7.171   5.663   1.423
 7175SOL     OW23357  12.737   8.076   6.653
 7175SOL    HW123358  12.731   7.983   6.672
 7175SOL    HW223359  12.697   8.118   6.730
 7176SOL     OW23360   8.106   2.843   5.880
 7176SOL    HW123361   8.050   2.820   5.954
 7176SOL    HW223362   8.130   2.934   5.895
 7177SOL     OW23363   1.124   9.026   5.912
 7177SOL    HW123364   1.213   9.044   5.881
 7177SOL    HW223365   1.081   9.111   5.913
 7178SOL     OW23366  13.681  13.878   8.046
 7178SOL    HW123367  13.712  13.945   8.106
 7178SOL    HW223368  13.744  13.878   7.974
 7179SOL     OW23369  14.413   3.992   4.772
 7179SOL    HW123370  14.441   4.027   4.856
 7179SOL    HW223371  14.365   3.912   4.793
 7180SOL     OW23372  11.532  12.959   5.882
 7180SOL    HW123373  11.525  12.867   5.908
 7180SOL    HW223374  11.482  13.006   5.948
 7181SOL     OW23375  11.290   6.850  10.193
 7181SOL    HW123376  11.264   6.942  10.187
 7181SOL    HW223377  11.331   6.842  10.280
 7182SOL     OW23378  11.179   7.900  14.557
 7182SOL    HW123379  11.108   7.837  14.547
 7182SOL    HW223380  11.255   7.857  14.518
 7183SOL     OW23381   7.812  10.328  11.536
 7183SOL    HW123382   7.839  10.329  11.444
 7183SOL    HW223383   7.717  10.335  11.533
 7184SOL     OW23384   4.249   0.743  14.355
 7184SOL    HW123385   4.226   0.775  14.442
 7184SOL    HW223386   4.226   0.650  14.357
 7185SOL     OW23387   5.043   7.548   7.329
 7185SOL    HW123388   5.082   7.472   7.372
 7185SOL    HW223389   4.959   7.516   7.296
 7186SOL     OW23390   9.766   6.038  11.047
 7186SOL    HW123391   9.734   6.000  10.965
 7186SOL    HW223392   9.810   5.965  11.091
 7187SOL     OW23393   7.919   8.744  10.371
 7187SOL    HW123394   7.966   8.823  10.399
 7187SOL    HW223395   7.986   8.676  10.367
 7188SOL     OW23396  10.914  11.443   8.634
 7188SOL    HW123397  10.894  11.483   8.549
 7188SOL    HW223398  10.915  11.349   8.617
 7189SOL     OW23399   6.007  12.279  13.661
 7189SOL    HW123400   5.929  12.322  13.625
 7189SOL    HW223401   6.030  12.330  13.738
 7190SOL     OW23402   4.673   5.590  14.690
 7190SOL    HW123403   4.730   5.633  14.626
 7190SOL    HW223404   4.625   5.662  14.731
 7191SOL     OW23405   1.544   1.352   0.028
 7191SOL    HW123406   1.500   1.287   0.084
 7191SOL    HW223407   1.564   1.304  14.827
 7192SOL     OW23408   1.656   3.030   9.710
 7192SOL    HW123409   1.625   2.988   9.630
 7192SOL    HW223410   1.576   3.064   9.752
 7193SOL     OW23411   2.919  11.068   9.803
 7193SOL    HW123412   2.996  11.123   9.812
 7193SOL    HW223413   2.938  11.010   9.730
 7194SOL     OW23414   3.958   1.732   0.865
 7194SOL    HW123415   3.880   1.744   0.810
 7194SOL    HW223416   3.945   1.792   0.938
 7195SOL     OW23417  14.761   4.288  13.362
 7195SOL    HW123418  14.804   4.333  13.435
 7195SOL    HW223419  14.669   4.312  13.371
 7196SOL     OW23420   5.984   5.512  10.289
 7196SOL    HW123421   6.074   5.511  10.324
 7196SOL    HW223422   5.955   5.421  10.296
 7197SOL     OW23423   9.639  11.828   4.738
 7197SOL    HW123424   9.558  11.862   4.776
 7197SOL    HW223425   9.709  11.870   4.788
 7198SOL     OW23426  14.090  13.745   9.440
 7198SOL    HW123427  14.116  13.653   9.440
 7198SOL    HW223428  14.113  13.776   9.352
 7199SOL     OW23429   6.576   7.094   7.844
 7199SOL    HW123430   6.497   7.083   7.897
 7199SOL    HW223431   6.613   7.178   7.873
 7200SOL     OW23432   9.892  11.479   0.861
 7200SOL    HW123433   9.872  11.522   0.945
 7200SOL    HW223434   9.835  11.403   0.859
 7201SOL     OW23435  13.889   5.009  10.932
 7201SOL    HW123436  13.915   4.969  11.015
 7201SOL    HW223437  13.844   5.090  10.958
 7202SOL     OW23438  13.247   1.013   3.183
 7202SOL    HW123439  13.216   1.030   3.272
 7202SOL    HW223440  13.221   1.091   3.133
 7203SOL     OW23441  11.123  12.783  13.708
 7203SOL    HW123442  11.187  12.725  13.751
 7203SOL    HW223443  11.040  12.735  13.715
 7204SOL     OW23444   6.714   8.468   9.712
 7204SOL    HW123445   6.697   8.381   9.677
 7204SOL    HW223446   6.647   8.524   9.672
 7205SOL     OW23447   4.978   3.242  13.771
 7205SOL    HW123448   5.063   3.277  13.744
 7205SOL    HW223449   4.914   3.305  13.737
 7206SOL     OW23450   2.801  14.674   7.248
 7206SOL    HW123451   2.884  14.719   7.235
 7206SOL    HW223452   2.759  14.722   7.320
 7207SOL     OW23453   7.208   4.182   0.760
 7207SOL    HW123454   7.256   4.253   0.718
 7207SOL    HW223455   7.137   4.225   0.806
 7208SOL     OW23456  11.186   6.541   2.051
 7208SOL    HW123457  11.226   6.628   2.056
 7208SOL    HW223458  11.144   6.529   2.136
 7209SOL     OW23459   6.265   3.716   6.488
 7209SOL    HW123460   6.336   3.703   6.424
 7209SOL    HW223461   6.300   3.779   6.550
 7210SOL     OW23462   1.912  11.254  10.904
 7210SOL    HW123463   1.931  11.340  10.942
 7210SOL    HW223464   1.874  11.275  10.818
 7211SOL     OW23465   7.113  13.594  13.841
 7211SOL    HW123466   7.043  13.561  13.896
 7211SOL    HW223467   7.161  13.516  13.813
 7212SOL     OW23468   0.490   9.895   8.973
 7212SOL    HW123469   0.405   9.861   9.000
 7212SOL    HW223470   0.552   9.851   9.031
 7213SOL     OW23471  12.765   1.038  12.472
 7213SOL    HW123472  12.756   0.988  12.391
 7213SOL    HW223473  12.696   1.104  12.469
 7214SOL     OW23474   4.376   6.505  14.307
 7214SOL    HW123475   4.337   6.449  14.241
 7214SOL    HW223476   4.434   6.564  14.258
 7215SOL     OW23477   3.888   9.105  14.265
 7215SOL    HW123478   3.858   9.071  14.349
 7215SOL    HW223479   3.858   9.040  14.201
 7216SOL     OW23480   2.776   8.388   1.528
 7216SOL    HW123481   2.864   8.384   1.566
 7216SOL    HW223482   2.792   8.400   1.434
 7217SOL     OW23483   4.879   7.518   2.608
 7217SOL    HW123484   4.951   7.544   2.666
 7217SOL    HW223485   4.921   7.465   2.540
 7218SOL     OW23486   4.444   9.704  14.341
 7218SOL    HW123487   4.500   9.779  14.358
 7218SOL    HW223488   4.502   9.628  14.351
 7219SOL     OW23489   1.055  14.012   6.053
 7219SOL    HW123490   1.083  14.079   5.991
 7219SOL    HW223491   1.103  13.933   6.026
 7220SOL     OW23492   5.394  14.185  14.838
 7220SOL    HW123493   5.392  14.217  14.748
 7220SOL    HW223494   5.487  14.188  14.863
 7221SOL     OW23495   7.990   9.273  12.957
 7221SOL    HW123496   7.992   9.351  13.012
 7221SOL    HW223497   7.930   9.213  13.002
 7222SOL     OW23498  11.617   7.199   6.731
 7222SOL    HW123499  11.555   7.155   6.789
 7222SOL    HW223500  11.648   7.274   6.781
 7223SOL     OW23501   4.036   9.422   2.773
 7223SOL    HW123502   4.012   9.433   2.865
 7223SOL    HW223503   4.011   9.332   2.752
 7224SOL     OW23504  12.603   7.620  14.704
 7224SOL    HW123505  12.544   7.686  14.741
 7224SOL    HW223506  12.690   7.660  14.708
 7225SOL     OW23507   5.992   3.162  10.366
 7225SOL    HW123508   6.029   3.189  10.282
 7225SOL    HW223509   5.967   3.245  10.408
 7226SOL     OW23510  12.492   8.567  13.284
 7226SOL    HW123511  12.529   8.479  13.270
 7226SOL    HW223512  12.403   8.550  13.316
 7227SOL     OW23513  14.299   4.968  11.955
 7227SOL    HW123514  14.296   4.891  11.897
 7227SOL    HW223515  14.219   5.016  11.933
 7228SOL     OW23516  14.006  14.213   6.680
 7228SOL    HW123517  14.058  14.133   6.676
 7228SOL    HW223518  14.051  14.274   6.621
 7229SOL     OW23519   6.003  11.505   7.417
 7229SOL    HW123520   5.920  11.463   7.442
 7229SOL    HW223521   6.025  11.465   7.333
 7230SOL     OW23522   4.746  10.915  13.342
 7230SOL    HW123523   4.673  10.887  13.397
 7230SOL    HW223524   4.707  10.933  13.257
 7231SOL     OW23525   6.304   6.272   5.732
 7231SOL    HW123526   6.389   6.281   5.690
 7231SOL    HW223527   6.312   6.195   5.788
 7232SOL     OW23528   9.147   7.368   8.116
 7232SOL    HW123529   9.169   7.450   8.160
 7232SOL    HW223530   9.218   7.308   8.141
 7233SOL     OW23531   1.136   1.611   2.816
 7233SOL    HW123532   1.190   1.639   2.742
 7233SOL    HW223533   1.192   1.553   2.867
 7234SOL     OW23534   1.083   9.523  13.522
 7234SOL    HW123535   1.014   9.576  13.482
 7234SOL    HW223536   1.035   9.451  13.564
 7235SOL     OW23537   1.715  10.227   8.471
 7235SOL    HW123538   1.804  10.199   8.492
 7235SOL    HW223539   1.710  10.318   8.502
 7236SOL     OW23540  11.210   1.001  12.367
 7236SOL    HW123541  11.131   0.947  12.371
 7236SOL    HW223542  11.178   1.091  12.370
 7237SOL     OW23543  10.221  11.953   7.426
 7237SOL    HW123544  10.299  11.944   7.480
 7237SOL    HW223545  10.153  11.982   7.487
 7238SOL     OW23546  14.221   6.465   0.840
 7238SOL    HW123547  14.167   6.541   0.818
 7238SOL    HW223548  14.183   6.393   0.790
 7239SOL     OW23549   5.816  14.170  10.375
 7239SOL    HW123550   5.734  14.209  10.403
 7239SOL    HW223551   5.799  14.139  10.286
 7240SOL     OW23552  14.446   6.249   8.140
 7240SOL    HW123553  14.352   6.246   8.122
 7240SOL    HW223554  14.470   6.340   8.127
 7241SOL     OW23555  11.084   0.546   0.217
 7241SOL    HW123556  11.136   0.503   0.149
 7241SOL    HW223557  11.148   0.570   0.284
 7242SOL     OW23558  10.710  11.403  14.213
 7242SOL    HW123559  10.746  11.368  14.131
 7242SOL    HW223560  10.752  11.489  14.223
 7243SOL     OW23561   7.083   4.209   6.907
 7243SOL    HW123562   7.076   4.187   7.000
 7243SOL    HW223563   7.029   4.144   6.863
 7244SOL     OW23564   1.037  13.218   0.106
 7244SOL    HW123565   1.031  13.271   0.026
 7244SOL    HW223566   1.104  13.153   0.086
 7245SOL     OW23567  12.928   5.376   9.980
 7245SOL    HW123568  12.920   5.377  10.075
 7245SOL    HW223569  12.940   5.284   9.958
 7246SOL     OW23570   6.037   0.534   8.018
 7246SOL    HW123571   5.944   0.556   8.025
 7246SOL    HW223572   6.082   0.615   8.042
 7247SOL     OW23573  14.562  10.298  13.689
 7247SOL    HW123574  14.474  10.319  13.658
 7247SOL    HW223575  14.613  10.284  13.609
 7248SOL     OW23576   2.543   0.779  11.308
 7248SOL    HW123577   2.518   0.730  11.387
 7248SOL    HW223578   2.555   0.712  11.241
 7249SOL     OW23579   4.891   7.085  14.242
 7249SOL    HW123580   4.797   7.083  14.225
 7249SOL    HW223581   4.912   7.177  14.254
 7250SOL     OW23582  13.945   7.950   5.411
 7250SOL    HW123583  13.944   8.022   5.474
 7250SOL    HW223584  14.028   7.904   5.428
 7251SOL     OW23585   9.553   4.834  10.773
 7251SOL    HW123586   9.560   4.905  10.709
 7251SOL    HW223587   9.459   4.826  10.789
 7252SOL     OW23588   1.324  14.613   7.344
 7252SOL    HW123589   1.316  14.639   7.252
 7252SOL    HW223590   1.406  14.563   7.347
 7253SOL     OW23591   0.554  12.659   8.789
 7253SOL    HW123592   0.480  12.638   8.732
 7253SOL    HW223593   0.599  12.576   8.801
 7254SOL     OW23594   0.500   7.889   9.831
 7254SOL    HW123595   0.559   7.830   9.784
 7254SOL    HW223596   0.538   7.895   9.919
 7255SOL     OW23597  13.511   2.968   0.567
 7255SOL    HW123598  13.565   2.906   0.616
 7255SOL    HW223599  13.498   2.925   0.482
 7256SOL     OW23600   2.383  12.881   0.635
 7256SOL    HW123601   2.425  12.863   0.551
 7256SOL    HW223602   2.290  12.873   0.618
 7257SOL     OW23603   8.982   7.709  12.055
 7257SOL    HW123604   9.017   7.738  12.139
 7257SOL    HW223605   9.059   7.686  12.003
 7258SOL     OW23606   0.418  13.544   6.398
 7258SOL    HW123607   0.459  13.629   6.414
 7258SOL    HW223608   0.402  13.542   6.304
 7259SOL     OW23609  12.624  14.713   9.641
 7259SOL    HW123610  12.595  14.804   9.639
 7259SOL    HW223611  12.543  14.662   9.649
 7260SOL     OW23612   4.719   8.954  10.316
 7260SOL    HW123613   4.639   9.001  10.337
 7260SOL    HW223614   4.690   8.865  10.295
 7261SOL     OW23615   6.339   6.001   7.859
 7261SOL    HW123616   6.344   6.034   7.948
 7261SOL    HW223617   6.290   6.067   7.810
 7262SOL     OW23618  12.108   9.868   4.999
 7262SOL    HW123619  12.164   9.876   5.076
 7262SOL    HW223620  12.026   9.911   5.024
 7263SOL     OW23621  14.358   8.220   6.577
 7263SOL    HW123622  14.358   8.316   6.575
 7263SOL    HW223623  14.318   8.194   6.494
 7264SOL     OW23624   5.852  13.996   0.043
 7264SOL    HW123625   5.888  13.997   0.132
 7264SOL    HW223626   5.928  13.978  14.867
 7265SOL     OW23627  12.221   6.279  13.841
 7265SOL    HW123628  12.174   6.210  13.794
 7265SOL    HW223629  12.259   6.235  13.917
 7266SOL     OW23630  11.748  10.922   9.271
 7266SOL    HW123631  11.754  10.890   9.181
 7266SOL    HW223632  11.658  10.905   9.297
 7267SOL     OW23633   3.912  14.680   3.997
 7267SOL    HW123634   3.890  14.700   4.089
 7267SOL    HW223635   3.946  14.763   3.962
 7268SOL     OW23636   4.495  13.970   2.580
 7268SOL    HW123637   4.569  14.030   2.577
 7268SOL    HW223638   4.418  14.025   2.565
 7269SOL     OW23639   1.892   6.849   9.929
 7269SOL    HW123640   1.804   6.837   9.894
 7269SOL    HW223641   1.915   6.939   9.907
 7270SOL     OW23642  10.416   4.831  14.642
 7270SOL    HW123643  10.446   4.771  14.710
 7270SOL    HW223644  10.326   4.852  14.666
 7271SOL     OW23645   3.701   8.205  12.860
 7271SOL    HW123646   3.793   8.177  12.858
 7271SOL    HW223647   3.688   8.238  12.949
 7272SOL     OW23648  10.126  11.375  14.254
 7272SOL    HW123649  10.170  11.460  14.256
 7272SOL    HW223650  10.197  11.311  14.254
 7273SOL     OW23651  12.108   4.436   6.567
 7273SOL    HW123652  12.096   4.354   6.518
 7273SOL    HW223653  12.137   4.407   6.654
 7274SOL     OW23654   9.443  12.117   7.609
 7274SOL    HW123655   9.437  12.045   7.546
 7274SOL    HW223656   9.521  12.098   7.660
 7275SOL     OW23657   4.847   4.072   8.552
 7275SOL    HW123658   4.826   4.006   8.618
 7275SOL    HW223659   4.878   4.147   8.602
 7276SOL     OW23660   4.974  10.799   4.616
 7276SOL    HW123661   4.950  10.876   4.564
 7276SOL    HW223662   4.938  10.725   4.567
 7277SOL     OW23663  14.006   3.156  13.739
 7277SOL    HW123664  14.084   3.184  13.692
 7277SOL    HW223665  13.975   3.236  13.783
 7278SOL     OW23666  14.125   4.565   4.933
 7278SOL    HW123667  14.035   4.541   4.910
 7278SOL    HW223668  14.167   4.482   4.954
 7279SOL     OW23669  12.185   7.570   5.984
 7279SOL    HW123670  12.200   7.631   5.913
 7279SOL    HW223671  12.130   7.501   5.946
 7280SOL     OW23672  11.139   4.846   5.510
 7280SOL    HW123673  11.090   4.785   5.454
 7280SOL    HW223674  11.158   4.920   5.454
 7281SOL     OW23675   1.589  13.053   2.052
 7281SOL    HW123676   1.571  13.036   2.144
 7281SOL    HW223677   1.673  13.100   2.052
 7282SOL     OW23678  11.748  13.945   3.975
 7282SOL    HW123679  11.710  14.001   3.908
 7282SOL    HW223680  11.792  14.005   4.035
 7283SOL     OW23681   3.014  11.030  10.207
 7283SOL    HW123682   2.945  11.078  10.161
 7283SOL    HW223683   3.053  11.095  10.266
 7284SOL     OW23684   3.289   1.458   6.363
 7284SOL    HW123685   3.332   1.543   6.375
 7284SOL    HW223686   3.328   1.402   6.430
 7285SOL     OW23687   1.368  10.224   6.157
 7285SOL    HW123688   1.379  10.148   6.100
 7285SOL    HW223689   1.419  10.203   6.235
 7286SOL     OW23690   3.462   5.612   1.951
 7286SOL    HW123691   3.394   5.611   2.018
 7286SOL    HW223692   3.532   5.557   1.985
 7287SOL     OW23693   9.435   6.984   3.922
 7287SOL    HW123694   9.392   6.955   3.841
 7287SOL    HW223695   9.365   7.024   3.973
 7288SOL     OW23696  12.773  11.195  13.860
 7288SOL    HW123697  12.681  11.168  13.856
 7288SOL    HW223698  12.802  11.170  13.947
 7289SOL     OW23699  13.634  10.011   4.172
 7289SOL    HW123700  13.715   9.980   4.211
 7289SOL    HW223701  13.623   9.959   4.092
 7290SOL     OW23702   2.221   5.993   2.714
 7290SOL    HW123703   2.251   5.970   2.626
 7290SOL    HW223704   2.142   5.940   2.726
 7291SOL     OW23705   4.611   6.066   9.443
 7291SOL    HW123706   4.638   6.071   9.352
 7291SOL    HW223707   4.517   6.049   9.439
 7292SOL     OW23708   6.393   4.503   2.324
 7292SOL    HW123709   6.387   4.472   2.234
 7292SOL    HW223710   6.486   4.497   2.346
 7293SOL     OW23711   4.948   4.378   3.452
 7293SOL    HW123712   4.921   4.398   3.362
 7293SOL    HW223713   5.039   4.348   3.443
 7294SOL     OW23714   3.953  14.297  13.193
 7294SOL    HW123715   3.913  14.334  13.114
 7294SOL    HW223716   4.036  14.344  13.201
 7295SOL     OW23717   4.641   4.328   6.341
 7295SOL    HW123718   4.559   4.312   6.389
 7295SOL    HW223719   4.684   4.243   6.339
 7296SOL     OW23720   9.936  11.205   1.901
 7296SOL    HW123721   9.852  11.190   1.858
 7296SOL    HW223722   9.994  11.139   1.862
 7297SOL     OW23723  12.431   8.912   7.498
 7297SOL    HW123724  12.363   8.906   7.431
 7297SOL    HW223725  12.489   8.837   7.479
 7298SOL     OW23726  10.220  12.482   1.420
 7298SOL    HW123727  10.214  12.555   1.358
 7298SOL    HW223728  10.267  12.414   1.372
 7299SOL     OW23729  11.658   6.231   9.636
 7299SOL    HW123730  11.744   6.192   9.625
 7299SOL    HW223731  11.653   6.299   9.569
 7300SOL     OW23732   9.225   8.276   1.339
 7300SOL    HW123733   9.232   8.360   1.294
 7300SOL    HW223734   9.276   8.288   1.419
 7301SOL     OW23735   8.564   6.985  10.358
 7301SOL    HW123736   8.653   6.983  10.394
 7301SOL    HW223737   8.573   6.951  10.269
 7302SOL     OW23738   3.364   9.885   9.990
 7302SOL    HW123739   3.303   9.927   9.931
 7302SOL    HW223740   3.350   9.928  10.074
 7303SOL     OW23741   3.915  11.534  12.864
 7303SOL    HW123742   3.896  11.582  12.783
 7303SOL    HW223743   3.833  11.490  12.885
 7304SOL     OW23744  14.271   6.712   5.685
 7304SOL    HW123745  14.353   6.761   5.690
 7304SOL    HW223746  14.230   6.742   5.604
 7305SOL     OW23747   5.671  10.819   9.221
 7305SOL    HW123748   5.738  10.857   9.278
 7305SOL    HW223749   5.667  10.727   9.246
 7306SOL     OW23750   8.977  10.595   3.812
 7306SOL    HW123751   9.016  10.674   3.774
 7306SOL    HW223752   9.008  10.524   3.756
 7307SOL     OW23753   1.410   9.367   8.899
 7307SOL    HW123754   1.403   9.455   8.863
 7307SOL    HW223755   1.353   9.313   8.843
 7308SOL     OW23756  13.734   4.800   9.053
 7308SOL    HW123757  13.669   4.743   9.011
 7308SOL    HW223758  13.684   4.853   9.114
 7309SOL     OW23759   0.048  10.821   1.516
 7309SOL    HW123760   0.129  10.774   1.500
 7309SOL    HW223761   0.069  10.912   1.496
 7310SOL     OW23762  14.659  10.783   2.220
 7310SOL    HW123763  14.638  10.752   2.308
 7310SOL    HW223764  14.634  10.875   2.220
 7311SOL     OW23765  12.330   4.122  11.109
 7311SOL    HW123766  12.414   4.160  11.082
 7311SOL    HW223767  12.267   4.154  11.045
 7312SOL     OW23768  12.513  11.950   7.631
 7312SOL    HW123769  12.493  11.857   7.620
 7312SOL    HW223770  12.608  11.952   7.644
 7313SOL     OW23771   3.700  11.400  12.897
 7313SOL    HW123772   3.621  11.446  12.928
 7313SOL    HW223773   3.698  11.316  12.943
 7314SOL     OW23774   3.378   5.304  10.254
 7314SOL    HW123775   3.425   5.388  10.257
 7314SOL    HW223776   3.418   5.257  10.181
 7315SOL     OW23777   4.977   6.696   3.410
 7315SOL    HW123778   4.952   6.632   3.476
 7315SOL    HW223779   5.025   6.763   3.459
 7316SOL     OW23780  10.580   2.631   0.252
 7316SOL    HW123781  10.669   2.599   0.246
 7316SOL    HW223782  10.526   2.562   0.212
 7317SOL     OW23783   6.313  10.686   2.744
 7317SOL    HW123784   6.360  10.650   2.669
 7317SOL    HW223785   6.339  10.630   2.817
 7318SOL     OW23786   6.649   7.740   8.243
 7318SOL    HW123787   6.692   7.802   8.301
 7318SOL    HW223788   6.689   7.755   8.158
 7319SOL     OW23789  10.091  13.188  13.298
 7319SOL    HW123790  10.176  13.232  13.285
 7319SOL    HW223791  10.087  13.170  13.391
 7320SOL     OW23792  10.290   4.212   1.491
 7320SOL    HW123793  10.326   4.265   1.420
 7320SOL    HW223794  10.201   4.192   1.463
 7321SOL     OW23795   2.797   2.077   9.347
 7321SOL    HW123796   2.775   2.102   9.437
 7321SOL    HW223797   2.771   1.985   9.341
 7322SOL     OW23798  11.674   1.947  10.524
 7322SOL    HW123799  11.659   1.881  10.591
 7322SOL    HW223800  11.662   1.900  10.441
 7323SOL     OW23801   4.154   8.892   5.798
 7323SOL    HW123802   4.105   8.867   5.720
 7323SOL    HW223803   4.222   8.824   5.806
 7324SOL     OW23804  10.471   5.545   9.060
 7324SOL    HW123805  10.468   5.488   8.983
 7324SOL    HW223806  10.401   5.609   9.046
 7325SOL     OW23807   8.844  11.915   4.360
 7325SOL    HW123808   8.893  11.903   4.278
 7325SOL    HW223809   8.758  11.877   4.343
 7326SOL     OW23810  12.261   5.761   6.701
 7326SOL    HW123811  12.239   5.699   6.632
 7326SOL    HW223812  12.221   5.724   6.780
 7327SOL     OW23813   3.111  11.796  10.465
 7327SOL    HW123814   3.111  11.889  10.486
 7327SOL    HW223815   3.153  11.754  10.539
 7328SOL     OW23816   5.508  11.400   3.113
 7328SOL    HW123817   5.597  11.380   3.084
 7328SOL    HW223818   5.455  11.328   3.079
 7329SOL     OW23819   9.105   8.665   5.698
 7329SOL    HW123820   9.045   8.682   5.771
 7329SOL    HW223821   9.103   8.570   5.688
 7330SOL     OW23822   7.686   1.105   9.672
 7330SOL    HW123823   7.690   1.198   9.693
 7330SOL    HW223824   7.618   1.099   9.605
 7331SOL     OW23825   8.144   8.345   2.929
 7331SOL    HW123826   8.102   8.431   2.929
 7331SOL    HW223827   8.238   8.365   2.917
 7332SOL     OW23828   3.516   5.849   0.810
 7332SOL    HW123829   3.595   5.904   0.803
 7332SOL    HW223830   3.531   5.778   0.748
 7333SOL     OW23831   6.306   3.796  13.690
 7333SOL    HW123832   6.340   3.882  13.715
 7333SOL    HW223833   6.298   3.748  13.772
 7334SOL     OW23834  13.428  14.170  11.530
 7334SOL    HW123835  13.347  14.128  11.560
 7334SOL    HW223836  13.402  14.221  11.454
 7335SOL     OW23837   5.387   6.073   2.736
 7335SOL    HW123838   5.470   6.059   2.689
 7335SOL    HW223839   5.324   6.093   2.667
 7336SOL     OW23840  13.206  14.018   4.389
 7336SOL    HW123841  13.206  13.925   4.412
 7336SOL    HW223842  13.119  14.035   4.355
 7337SOL     OW23843   0.248   5.225  13.518
 7337SOL    HW123844   0.273   5.159  13.582
 7337SOL    HW223845   0.218   5.174  13.442
 7338SOL     OW23846   4.213   6.416  10.523
 7338SOL    HW123847   4.267   6.359  10.469
 7338SOL    HW223848   4.202   6.495  10.470
 7339SOL     OW23849   0.858   1.811   7.908
 7339SOL    HW123850   0.888   1.857   7.986
 7339SOL    HW223851   0.905   1.727   7.909
 7340SOL     OW23852   4.891   5.751   2.681
 7340SOL    HW123853   4.878   5.762   2.586
 7340SOL    HW223854   4.979   5.784   2.697
 7341SOL     OW23855   3.146   3.422   7.250
 7341SOL    HW123856   3.125   3.366   7.176
 7341SOL    HW223857   3.231   3.389   7.281
 7342SOL     OW23858   7.037   2.500  14.089
 7342SOL    HW123859   7.090   2.516  14.167
 7342SOL    HW223860   6.960   2.555  14.100
 7343SOL     OW23861  10.414  11.871   8.692
 7343SOL    HW123862  10.426  11.920   8.773
 7343SOL    HW223863  10.330  11.901   8.657
 7344SOL     OW23864  12.090  12.311   3.750
 7344SOL    HW123865  12.068  12.401   3.773
 7344SOL    HW223866  12.163  12.288   3.808
 7345SOL     OW23867   2.310   0.859   8.352
 7345SOL    HW123868   2.300   0.948   8.386
 7345SOL    HW223869   2.404   0.842   8.355
 7346SOL     OW23870   0.516   4.215  14.809
 7346SOL    HW123871   0.426   4.210  14.778
 7346SOL    HW223872   0.548   4.125  14.807
 7347SOL     OW23873   4.763   6.292  13.169
 7347SOL    HW123874   4.697   6.356  13.196
 7347SOL    HW223875   4.753   6.220  13.231
 7348SOL     OW23876  14.865   5.508   7.985
 7348SOL    HW123877   0.010   5.601   7.987
 7348SOL    HW223878  14.776   5.507   7.951
 7349SOL     OW23879  10.853   1.553   3.300
 7349SOL    HW123880  10.905   1.571   3.378
 7349SOL    HW223881  10.911   1.503   3.243
 7350SOL     OW23882  12.687  14.313   5.026
 7350SOL    HW123883  12.780  14.298   5.009
 7350SOL    HW223884  12.645  14.305   4.941
 7351SOL     OW23885   8.032   7.997  14.613
 7351SOL    HW123886   8.001   8.087  14.607
 7351SOL    HW223887   7.969   7.946  14.561
 7352SOL     OW23888   1.108  13.920   0.354
 7352SOL    HW123889   1.192  13.948   0.317
 7352SOL    HW223890   1.130  13.893   0.443
 7353SOL     OW23891   4.420   2.359   6.287
 7353SOL    HW123892   4.451   2.390   6.202
 7353SOL    HW223893   4.407   2.265   6.274
 7354SOL     OW23894   6.160   5.138   4.825
 7354SOL    HW123895   6.226   5.207   4.814
 7354SOL    HW223896   6.145   5.105   4.737
 7355SOL     OW23897  13.643   9.714   7.964
 7355SOL    HW123898  13.691   9.668   8.034
 7355SOL    HW223899  13.698   9.704   7.887
 7356SOL     OW23900   9.633   1.298  12.139
 7356SOL    HW123901   9.709   1.324  12.087
 7356SOL    HW223902   9.582   1.378  12.149
 7357SOL     OW23903   9.680   8.008   3.716
 7357SOL    HW123904   9.697   8.079   3.778
 7357SOL    HW223905   9.640   7.939   3.770
 7358SOL     OW23906   6.904  10.940   9.794
 7358SOL    HW123907   6.940  11.010   9.740
 7358SOL    HW223908   6.941  10.954   9.881
 7359SOL     OW23909   8.306   7.960   0.824
 7359SOL    HW123910   8.285   7.931   0.913
 7359SOL    HW223911   8.221   7.971   0.781
 7360SOL     OW23912   3.823  10.604   0.056
 7360SOL    HW123913   3.753  10.546   0.086
 7360SOL    HW223914   3.845  10.658   0.132
 7361SOL     OW23915   8.889   9.599  13.414
 7361SOL    HW123916   8.838   9.601  13.495
 7361SOL    HW223917   8.950   9.526  13.427
 7362SOL     OW23918  14.853   1.243   7.606
 7362SOL    HW123919  14.877   1.151   7.596
 7362SOL    HW223920  14.757   1.243   7.607
 7363SOL     OW23921  11.844   1.177   3.766
 7363SOL    HW123922  11.929   1.149   3.730
 7363SOL    HW223923  11.867   1.240   3.834
 7364SOL     OW23924   7.118  12.828   1.266
 7364SOL    HW123925   7.113  12.741   1.227
 7364SOL    HW223926   7.075  12.819   1.351
 7365SOL     OW23927  13.479  13.939  11.155
 7365SOL    HW123928  13.416  13.933  11.083
 7365SOL    HW223929  13.511  13.850  11.167
 7366SOL     OW23930   6.832  14.343   8.273
 7366SOL    HW123931   6.862  14.286   8.203
 7366SOL    HW223932   6.746  14.308   8.297
 7367SOL     OW23933   0.773  11.823   1.218
 7367SOL    HW123934   0.773  11.915   1.193
 7367SOL    HW223935   0.843  11.816   1.284
 7368SOL     OW23936   2.238   1.137   8.392
 7368SOL    HW123937   2.264   1.203   8.458
 7368SOL    HW223938   2.205   1.188   8.319
 7369SOL     OW23939   2.026  12.864   9.793
 7369SOL    HW123940   1.987  12.858   9.705
 7369SOL    HW223941   1.964  12.917   9.843
 7370SOL     OW23942   3.546   8.549   6.484
 7370SOL    HW123943   3.458   8.511   6.478
 7370SOL    HW223944   3.584   8.534   6.398
 7371SOL     OW23945   3.994   0.067  12.163
 7371SOL    HW123946   4.009   0.117  12.083
 7371SOL    HW223947   4.049  14.868  12.153
 7372SOL     OW23948  12.964  13.444  13.034
 7372SOL    HW123949  13.028  13.376  13.012
 7372SOL    HW223950  12.913  13.406  13.106
 7373SOL     OW23951  14.320   3.310   5.832
 7373SOL    HW123952  14.390   3.365   5.867
 7373SOL    HW223953  14.337   3.223   5.869
 7374SOL     OW23954  10.446   0.043   2.290
 7374SOL    HW123955  10.508   0.041   2.217
 7374SOL    HW223956  10.491   0.095   2.357
 7375SOL     OW23957   7.692   4.330   5.036
 7375SOL    HW123958   7.607   4.373   5.047
 7375SOL    HW223959   7.735   4.380   4.967
 7376SOL     OW23960   9.155   0.519  12.151
 7376SOL    HW123961   9.067   0.497  12.121
 7376SOL    HW223962   9.210   0.446  12.122
 7377SOL     OW23963   8.408   0.470  14.194
 7377SOL    HW123964   8.327   0.521  14.187
 7377SOL    HW223965   8.404   0.430  14.281
 7378SOL     OW23966   4.355  12.612  13.080
 7378SOL    HW123967   4.372  12.567  13.162
 7378SOL    HW223968   4.437  12.604  13.030
 7379SOL     OW23969   1.807  10.108   5.544
 7379SOL    HW123970   1.877  10.134   5.484
 7379SOL    HW223971   1.798  10.183   5.603
 7380SOL     OW23972   2.414   6.626   7.770
 7380SOL    HW123973   2.469   6.559   7.730
 7380SOL    HW223974   2.416   6.699   7.708
 7381SOL     OW23975  11.030   0.411   3.257
 7381SOL    HW123976  11.107   0.359   3.232
 7381SOL    HW223977  11.050   0.499   3.224
 7382SOL     OW23978   5.591  13.999   6.777
 7382SOL    HW123979   5.586  13.977   6.869
 7382SOL    HW223980   5.522  13.948   6.735
 7383SOL     OW23981   9.048   7.959   6.221
 7383SOL    HW123982   8.976   7.953   6.284
 7383SOL    HW223983   9.080   7.870   6.212
 7384SOL     OW23984   2.613   1.271   0.753
 7384SOL    HW123985   2.531   1.226   0.768
 7384SOL    HW223986   2.593   1.364   0.768
 7385SOL     OW23987  11.380   4.302  10.648
 7385SOL    HW123988  11.425   4.220  10.667
 7385SOL    HW223989  11.322   4.315  10.723
 7386SOL     OW23990  14.184   8.225   5.449
 7386SOL    HW123991  14.124   8.294   5.476
 7386SOL    HW223992  14.152   8.198   5.363
 7387SOL     OW23993   4.409   1.866   9.382
 7387SOL    HW123994   4.470   1.895   9.450
 7387SOL    HW223995   4.366   1.946   9.353
 7388SOL     OW23996   8.985  11.837   3.472
 7388SOL    HW123997   9.051  11.875   3.415
 7388SOL    HW223998   9.018  11.749   3.492
 7389SOL     OW23999  14.010  11.502   6.177
 7389SOL    HW124000  14.063  11.574   6.211
 7389SOL    HW224001  14.070  11.428   6.173
 7390SOL     OW24002   7.195   3.225   0.923
 7390SOL    HW124003   7.267   3.237   0.985
 7390SOL    HW224004   7.157   3.140   0.946
 7391SOL     OW24005   0.378  13.992   6.344
 7391SOL    HW124006   0.453  13.963   6.293
 7391SOL    HW224007   0.316  14.026   6.280
 7392SOL     OW24008   0.292   6.817   6.201
 7392SOL    HW124009   0.270   6.770   6.280
 7392SOL    HW224010   0.220   6.798   6.140
 7393SOL     OW24011   2.858   5.635   4.693
 7393SOL    HW124012   2.920   5.681   4.750
 7393SOL    HW224013   2.773   5.645   4.737
 7394SOL     OW24014   3.760   5.250   0.447
 7394SOL    HW124015   3.757   5.284   0.536
 7394SOL    HW224016   3.792   5.160   0.456
 7395SOL     OW24017   5.673   5.551   3.036
 7395SOL    HW124018   5.763   5.547   3.004
 7395SOL    HW224019   5.630   5.474   2.999
 7396SOL     OW24020   6.191   8.069  11.268
 7396SOL    HW124021   6.268   8.065  11.324
 7396SOL    HW224022   6.151   8.154  11.288
 7397SOL     OW24023  10.292  10.394  10.357
 7397SOL    HW124024  10.215  10.446  10.378
 7397SOL    HW224025  10.363  10.434  10.406
 7398SOL     OW24026   1.752   4.765   1.819
 7398SOL    HW124027   1.793   4.678   1.818
 7398SOL    HW224028   1.658   4.747   1.807
 7399SOL     OW24029   6.164   4.834   9.880
 7399SOL    HW124030   6.171   4.785   9.962
 7399SOL    HW224031   6.078   4.812   9.846
 7400SOL     OW24032  11.960   6.777  10.322
 7400SOL    HW124033  11.935   6.822  10.403
 7400SOL    HW224034  12.048   6.744  10.338
 7401SOL     OW24035  11.513   1.734  12.330
 7401SOL    HW124036  11.526   1.826  12.353
 7401SOL    HW224037  11.562   1.686  12.397
 7402SOL     OW24038  12.644   8.215   4.903
 7402SOL    HW124039  12.701   8.201   4.978
 7402SOL    HW224040  12.692   8.178   4.829
 7403SOL     OW24041   9.344   7.247  10.814
 7403SOL    HW124042   9.325   7.340  10.830
 7403SOL    HW224043   9.440   7.243  10.807
 7404SOL     OW24044   1.416   4.512  11.214
 7404SOL    HW124045   1.508   4.531  11.198
 7404SOL    HW224046   1.417   4.433  11.269
 7405SOL     OW24047  12.554   9.347   8.606
 7405SOL    HW124048  12.513   9.434   8.613
 7405SOL    HW224049  12.487   9.287   8.639
 7406SOL     OW24050   9.807  14.085   3.238
 7406SOL    HW124051   9.856  14.162   3.212
 7406SOL    HW224052   9.832  14.018   3.175
 7407SOL     OW24053   6.979   1.512   1.495
 7407SOL    HW124054   7.003   1.450   1.564
 7407SOL    HW224055   6.904   1.471   1.452
 7408SOL     OW24056  12.521   3.029   3.353
 7408SOL    HW124057  12.573   3.058   3.428
 7408SOL    HW224058  12.541   3.091   3.284
 7409SOL     OW24059   4.703   1.708  12.562
 7409SOL    HW124060   4.698   1.635  12.501
 7409SOL    HW224061   4.773   1.684  12.622
 7410SOL     OW24062   4.297   6.082   9.148
 7410SOL    HW124063   4.303   5.989   9.169
 7410SOL    HW224064   4.207   6.095   9.119
 7411SOL     OW24065   9.706   4.627   8.141
 7411SOL    HW124066   9.722   4.533   8.151
 7411SOL    HW224067   9.785   4.660   8.098
 7412SOL     OW24068  14.297   2.872   8.936
 7412SOL    HW124069  14.378   2.901   8.894
 7412SOL    HW224070  14.323   2.798   8.991
 7413SOL     OW24071  11.421  13.376  13.876
 7413SOL    HW124072  11.441  13.286  13.902
 7413SOL    HW224073  11.426  13.375  13.780
 7414SOL     OW24074  11.331   8.839  13.830
 7414SOL    HW124075  11.315   8.826  13.736
 7414SOL    HW224076  11.412   8.792  13.847
 7415SOL     OW24077  12.483   5.930   6.077
 7415SOL    HW124078  12.446   5.962   5.995
 7415SOL    HW224079  12.561   5.983   6.091
 7416SOL     OW24080   8.630   3.152   5.101
 7416SOL    HW124081   8.672   3.222   5.051
 7416SOL    HW224082   8.550   3.191   5.134
 7417SOL     OW24083  10.603   0.882  10.093
 7417SOL    HW124084  10.586   0.968  10.131
 7417SOL    HW224085  10.569   0.888  10.004
 7418SOL     OW24086   8.431   5.258   4.413
 7418SOL    HW124087   8.474   5.319   4.473
 7418SOL    HW224088   8.497   5.239   4.347
 7419SOL     OW24089   5.381  12.352   2.197
 7419SOL    HW124090   5.291  12.334   2.226
 7419SOL    HW224091   5.383  12.322   2.106
 7420SOL     OW24092   6.915  12.982  10.489
 7420SOL    HW124093   6.851  12.916  10.517
 7420SOL    HW224094   6.991  12.967  10.545
 7421SOL     OW24095  10.587   2.101  13.887
 7421SOL    HW124096  10.507   2.150  13.907
 7421SOL    HW224097  10.595   2.038  13.959
 7422SOL     OW24098   2.343   2.995   6.982
 7422SOL    HW124099   2.382   2.951   7.056
 7422SOL    HW224100   2.398   3.072   6.968
 7423SOL     OW24101   9.852   6.738   5.506
 7423SOL    HW124102   9.818   6.813   5.458
 7423SOL    HW224103   9.859   6.770   5.597
 7424SOL     OW24104   3.846   3.231   7.186
 7424SOL    HW124105   3.856   3.138   7.206
 7424SOL    HW224106   3.846   3.236   7.091
 7425SOL     OW24107   8.578  12.351   1.271
 7425SOL    HW124108   8.670  12.333   1.249
 7425SOL    HW224109   8.541  12.387   1.190
 7426SOL     OW24110   2.235  10.232   3.176
 7426SOL    HW124111   2.182  10.249   3.254
 7426SOL    HW224112   2.172  10.212   3.107
 7427SOL     OW24113  14.412  14.473   4.902
 7427SOL    HW124114  14.507  14.482   4.910
 7427SOL    HW224115  14.400  14.393   4.851
 7428SOL     OW24116   3.206  13.821  14.046
 7428SOL    HW124117   3.207  13.737  14.000
 7428SOL    HW224118   3.135  13.812  14.110
 7429SOL     OW24119  13.542   2.908  10.766
 7429SOL    HW124120  13.502   2.943  10.846
 7429SOL    HW224121  13.591   2.982  10.730
 7430SOL     OW24122   1.758   7.945   2.733
 7430SOL    HW124123   1.722   7.970   2.648
 7430SOL    HW224124   1.749   8.024   2.787
 7431SOL     OW24125   5.839  11.911   3.382
 7431SOL    HW124126   5.857  11.818   3.369
 7431SOL    HW224127   5.792  11.915   3.465
 7432SOL     OW24128   9.675   4.222  14.747
 7432SOL    HW124129   9.702   4.181  14.666
 7432SOL    HW224130   9.698   4.314  14.737
 7433SOL     OW24131   9.627   4.901   6.417
 7433SOL    HW124132   9.586   4.964   6.475
 7433SOL    HW224133   9.676   4.842   6.476
 7434SOL     OW24134   4.925   2.438   5.906
 7434SOL    HW124135   5.016   2.428   5.933
 7434SOL    HW224136   4.881   2.476   5.982
 7435SOL     OW24137   7.986   6.897   8.867
 7435SOL    HW124138   7.910   6.923   8.814
 7435SOL    HW224139   7.970   6.805   8.887
 7436SOL     OW24140   1.765   6.506   7.256
 7436SOL    HW124141   1.730   6.418   7.270
 7436SOL    HW224142   1.800   6.504   7.167
 7437SOL     OW24143   8.066  13.437   4.464
 7437SOL    HW124144   8.055  13.526   4.497
 7437SOL    HW224145   8.133  13.443   4.397
 7438SOL     OW24146   7.516  11.593  12.824
 7438SOL    HW124147   7.485  11.670  12.871
 7438SOL    HW224148   7.612  11.600  12.826
 7439SOL     OW24149  12.914  13.296  13.910
 7439SOL    HW124150  12.950  13.311  13.997
 7439SOL    HW224151  12.833  13.347  13.909
 7440SOL     OW24152  10.406   1.993   9.549
 7440SOL    HW124153  10.416   2.087   9.567
 7440SOL    HW224154  10.422   1.986   9.454
 7441SOL     OW24155  10.529   1.945   1.081
 7441SOL    HW124156  10.495   1.988   1.002
 7441SOL    HW224157  10.492   1.857   1.077
 7442SOL     OW24158   3.590   9.909   5.434
 7442SOL    HW124159   3.638   9.982   5.395
 7442SOL    HW224160   3.556   9.943   5.517
 7443SOL     OW24161   5.131  14.376   8.182
 7443SOL    HW124162   5.219  14.359   8.216
 7443SOL    HW224163   5.110  14.297   8.132
 7444SOL     OW24164   9.633   7.549   5.866
 7444SOL    HW124165   9.708   7.604   5.843
 7444SOL    HW224166   9.667   7.459   5.861
 7445SOL     OW24167  13.453   5.148   7.839
 7445SOL    HW124168  13.483   5.057   7.846
 7445SOL    HW224169  13.373   5.151   7.892
 7446SOL     OW24170   2.689   6.490  13.051
 7446SOL    HW124171   2.656   6.447  13.130
 7446SOL    HW224172   2.784   6.496  13.065
 7447SOL     OW24173  13.632  14.581  13.882
 7447SOL    HW124174  13.667  14.554  13.797
 7447SOL    HW224175  13.604  14.672  13.868
 7448SOL     OW24176  10.944  13.614   9.195
 7448SOL    HW124177  10.999  13.684   9.231
 7448SOL    HW224178  10.860  13.624   9.240
 7449SOL     OW24179   5.114   5.187   2.658
 7449SOL    HW124180   5.138   5.277   2.635
 7449SOL    HW224181   5.197   5.146   2.681
 7450SOL     OW24182  14.527   3.310   3.841
 7450SOL    HW124183  14.442   3.316   3.797
 7450SOL    HW224184  14.566   3.396   3.829
 7451SOL     OW24185   0.397  11.392   0.369
 7451SOL    HW124186   0.386  11.399   0.275
 7451SOL    HW224187   0.466  11.454   0.390
 7452SOL     OW24188   2.366   5.566   4.561
 7452SOL    HW124189   2.312   5.646   4.560
 7452SOL    HW224190   2.330   5.514   4.633
 7453SOL     OW24191   5.805  10.511   1.315
 7453SOL    HW124192   5.810  10.607   1.318
 7453SOL    HW224193   5.711  10.492   1.319
 7454SOL     OW24194  11.815   4.330   2.084
 7454SOL    HW124195  11.744   4.325   2.020
 7454SOL    HW224196  11.830   4.423   2.097
 7455SOL     OW24197   6.768   7.255   9.954
 7455SOL    HW124198   6.815   7.310   9.890
 7455SOL    HW224199   6.717   7.195   9.900
 7456SOL     OW24200   5.013   0.218   2.701
 7456SOL    HW124201   5.031   0.253   2.788
 7456SOL    HW224202   4.944   0.153   2.714
 7457SOL     OW24203   3.562  11.152  10.759
 7457SOL    HW124204   3.579  11.217  10.827
 7457SOL    HW224205   3.506  11.198  10.696
 7458SOL     OW24206   2.591   6.324   7.747
 7458SOL    HW124207   2.672   6.285   7.781
 7458SOL    HW224208   2.525   6.305   7.814
 7459SOL     OW24209   5.546  10.202  10.652
 7459SOL    HW124210   5.459  10.211  10.613
 7459SOL    HW224211   5.579  10.291  10.658
 7460SOL     OW24212   0.666   6.502  12.387
 7460SOL    HW124213   0.593   6.561  12.369
 7460SOL    HW224214   0.691   6.522  12.477
 7461SOL     OW24215   5.429   2.346   4.016
 7461SOL    HW124216   5.471   2.394   4.087
 7461SOL    HW224217   5.485   2.361   3.940
 7462SOL     OW24218   2.856   7.586   5.949
 7462SOL    HW124219   2.837   7.543   5.866
 7462SOL    HW224220   2.874   7.515   6.010
 7463SOL     OW24221  10.775   7.043   1.322
 7463SOL    HW124222  10.744   6.964   1.278
 7463SOL    HW224223  10.866   7.022   1.346
 7464SOL     OW24224   0.584   2.581   3.038
 7464SOL    HW124225   0.572   2.676   3.031
 7464SOL    HW224226   0.670   2.570   3.078
 7465SOL     OW24227  10.102   4.728  13.921
 7465SOL    HW124228  10.183   4.678  13.925
 7465SOL    HW224229  10.100   4.777  14.004
 7466SOL     OW24230  12.526  11.725   5.782
 7466SOL    HW124231  12.515  11.780   5.705
 7466SOL    HW224232  12.574  11.780   5.845
 7467SOL     OW24233  11.038   3.366   6.202
 7467SOL    HW124234  11.088   3.310   6.142
 7467SOL    HW224235  11.010   3.440   6.148
 7468SOL     OW24236   5.535   3.312   8.873
 7468SOL    HW124237   5.504   3.254   8.942
 7468SOL    HW224238   5.463   3.374   8.860
 7469SOL     OW24239   9.824   3.683   8.885
 7469SOL    HW124240   9.732   3.708   8.899
 7469SOL    HW224241   9.819   3.608   8.826
 7470SOL     OW24242   2.251   6.761  10.799
 7470SOL    HW124243   2.284   6.850  10.788
 7470SOL    HW224244   2.231   6.731  10.710
 7471SOL     OW24245   1.017   2.694   9.487
 7471SOL    HW124246   0.930   2.674   9.453
 7471SOL    HW224247   1.077   2.667   9.417
 7472SOL     OW24248  14.817   4.153  11.199
 7472SOL    HW124249  14.808   4.246  11.178
 7472SOL    HW224250  14.752   4.109  11.143
 7473SOL     OW24251   9.009   9.225   0.419
 7473SOL    HW124252   8.949   9.209   0.347
 7473SOL    HW224253   9.086   9.265   0.377
 7474SOL     OW24254  13.902   0.138   5.889
 7474SOL    HW124255  13.848   0.212   5.865
 7474SOL    HW224256  13.870   0.066   5.835
 7475SOL     OW24257  13.124   7.667  10.344
 7475SOL    HW124258  13.154   7.699  10.428
 7475SOL    HW224259  13.149   7.574  10.343
 7476SOL     OW24260  14.600   6.142  13.664
 7476SOL    HW124261  14.608   6.195  13.584
 7476SOL    HW224262  14.597   6.052  13.632
 7477SOL     OW24263  11.333   4.347   7.201
 7477SOL    HW124264  11.247   4.390   7.209
 7477SOL    HW224265  11.321   4.262   7.243
 7478SOL     OW24266  13.222   0.315   3.654
 7478SOL    HW124267  13.171   0.247   3.698
 7478SOL    HW224268  13.309   0.276   3.641
 7479SOL     OW24269   7.102   8.007   8.638
 7479SOL    HW124270   7.013   7.994   8.605
 7479SOL    HW224271   7.100   7.972   8.727
 7480SOL     OW24272   4.913   4.429  13.735
 7480SOL    HW124273   4.843   4.488  13.709
 7480SOL    HW224274   4.921   4.366  13.663
 7481SOL     OW24275  10.640  13.286  13.562
 7481SOL    HW124276  10.557  13.327  13.588
 7481SOL    HW224277  10.614  13.211  13.508
 7482SOL     OW24278  14.147  13.481   7.946
 7482SOL    HW124279  14.095  13.412   7.906
 7482SOL    HW224280  14.090  13.519   8.013
 7483SOL     OW24281   8.510   2.742   1.493
 7483SOL    HW124282   8.504   2.674   1.560
 7483SOL    HW224283   8.420   2.758   1.467
 7484SOL     OW24284   7.671  10.738  11.709
 7484SOL    HW124285   7.700  10.710  11.796
 7484SOL    HW224286   7.718  10.681  11.648
 7485SOL     OW24287  10.561   6.697  14.831
 7485SOL    HW124288  10.538   6.768   0.012
 7485SOL    HW224289  10.586   6.741  14.750
 7486SOL     OW24290  12.510  13.411  13.672
 7486SOL    HW124291  12.493  13.456  13.588
 7486SOL    HW224292  12.550  13.478  13.727
 7487SOL     OW24293   2.371   9.479   2.435
 7487SOL    HW124294   2.310   9.537   2.481
 7487SOL    HW224295   2.317   9.432   2.371
 7488SOL     OW24296  13.504   2.866   0.305
 7488SOL    HW124297  13.585   2.902   0.270
 7488SOL    HW224298  13.504   2.775   0.276
 7489SOL     OW24299  14.838  14.030  13.173
 7489SOL    HW124300  14.802  14.106  13.127
 7489SOL    HW224301  14.860  14.064  13.260
 7490SOL     OW24302  14.187   5.391   5.532
 7490SOL    HW124303  14.222   5.302   5.542
 7490SOL    HW224304  14.106   5.391   5.583
 7491SOL     OW24305   0.229   6.284   4.415
 7491SOL    HW124306   0.307   6.257   4.366
 7491SOL    HW224307   0.242   6.377   4.431
 7492SOL     OW24308  11.938   8.520   4.933
 7492SOL    HW124309  11.997   8.594   4.919
 7492SOL    HW224310  11.995   8.443   4.930
 7493SOL     OW24311   9.745   1.394   7.829
 7493SOL    HW124312   9.657   1.376   7.862
 7493SOL    HW224313   9.734   1.468   7.769
 7494SOL     OW24314   9.717   5.807   3.727
 7494SOL    HW124315   9.657   5.862   3.777
 7494SOL    HW224316   9.672   5.792   3.644
 7495SOL     OW24317  11.072  11.169   0.305
 7495SOL    HW124318  11.166  11.181   0.298
 7495SOL    HW224319  11.057  11.079   0.274
 7496SOL     OW24320  11.798   8.637   1.777
 7496SOL    HW124321  11.805   8.598   1.864
 7496SOL    HW224322  11.704   8.648   1.763
 7497SOL     OW24323  14.161  13.579   9.749
 7497SOL    HW124324  14.074  13.603   9.781
 7497SOL    HW224325  14.146  13.544   9.661
 7498SOL     OW24326   2.542   7.625   8.144
 7498SOL    HW124327   2.510   7.713   8.126
 7498SOL    HW224328   2.463   7.570   8.146
 7499SOL     OW24329  13.522   2.107  14.816
 7499SOL    HW124330  13.502   2.061  14.734
 7499SOL    HW224331  13.612   2.080  14.836
 7500SOL     OW24332   1.723   4.206  10.709
 7500SOL    HW124333   1.816   4.227  10.701
 7500SOL    HW224334   1.707   4.145  10.637
 7501SOL     OW24335  12.930   7.030  12.560
 7501SOL    HW124336  13.004   7.050  12.617
 7501SOL    HW224337  12.904   6.941  12.584
 7502SOL     OW24338  11.632   8.589   6.293
 7502SOL    HW124339  11.625   8.638   6.211
 7502SOL    HW224340  11.715   8.542   6.285
 7503SOL     OW24341  13.532   2.150   3.862
 7503SOL    HW124342  13.455   2.146   3.805
 7503SOL    HW224343  13.537   2.064   3.902
 7504SOL     OW24344   5.686   8.345  10.508
 7504SOL    HW124345   5.767   8.332  10.459
 7504SOL    HW224346   5.714   8.353  10.599
 7505SOL     OW24347  10.927   8.501  12.425
 7505SOL    HW124348  10.922   8.414  12.386
 7505SOL    HW224349  11.018   8.527  12.412
 7506SOL     OW24350  13.713  10.670  10.150
 7506SOL    HW124351  13.774  10.613  10.104
 7506SOL    HW224352  13.768  10.730  10.200
 7507SOL     OW24353   0.748  10.780  13.983
 7507SOL    HW124354   0.757  10.805  13.892
 7507SOL    HW224355   0.689  10.845  14.021
 7508SOL     OW24356   3.169   3.985   5.806
 7508SOL    HW124357   3.097   3.941   5.761
 7508SOL    HW224358   3.127   4.043   5.869
 7509SOL     OW24359   6.937  14.085  13.052
 7509SOL    HW124360   6.886  14.043  13.121
 7509SOL    HW224361   6.874  14.136  13.002
 7510SOL     OW24362   8.651  11.747  12.623
 7510SOL    HW124363   8.583  11.688  12.591
 7510SOL    HW224364   8.733  11.702  12.602
 7511SOL     OW24365  14.289   6.683   3.339
 7511SOL    HW124366  14.285   6.725   3.254
 7511SOL    HW224367  14.277   6.590   3.321
 7512SOL     OW24368   2.886  14.042   0.994
 7512SOL    HW124369   2.881  13.996   0.910
 7512SOL    HW224370   2.808  14.014   1.042
 7513SOL     OW24371  11.336   5.588  10.644
 7513SOL    HW124372  11.344   5.499  10.678
 7513SOL    HW224373  11.387   5.642  10.705
 7514SOL     OW24374  12.320   9.647   9.230
 7514SOL    HW124375  12.283   9.658   9.142
 7514SOL    HW224376  12.339   9.553   9.237
 7515SOL     OW24377  10.549  12.909   0.893
 7515SOL    HW124378  10.506  12.846   0.836
 7515SOL    HW224379  10.632  12.929   0.849
 7516SOL     OW24380  11.614   0.778   0.762
 7516SOL    HW124381  11.548   0.746   0.701
 7516SOL    HW224382  11.568   0.841   0.817
 7517SOL     OW24383   3.619  12.887   3.235
 7517SOL    HW124384   3.583  12.951   3.174
 7517SOL    HW224385   3.580  12.910   3.319
 7518SOL     OW24386   7.009   3.845   9.350
 7518SOL    HW124387   7.058   3.791   9.288
 7518SOL    HW224388   7.067   3.919   9.367
 7519SOL     OW24389   5.187  12.736  12.277
 7519SOL    HW124390   5.271  12.696  12.298
 7519SOL    HW224391   5.197  12.767  12.187
 7520SOL     OW24392  12.142   4.138  12.454
 7520SOL    HW124393  12.225   4.182  12.435
 7520SOL    HW224394  12.156   4.099  12.540
 7521SOL     OW24395  12.304  13.221   0.922
 7521SOL    HW124396  12.270  13.302   0.886
 7521SOL    HW224397  12.394  13.241   0.947
 7522SOL     OW24398   8.988   7.187   7.994
 7522SOL    HW124399   9.049   7.247   8.037
 7522SOL    HW224400   8.992   7.211   7.901
 7523SOL     OW24401   1.164   8.425  10.936
 7523SOL    HW124402   1.248   8.440  10.894
 7523SOL    HW224403   1.100   8.465  10.877
 7524SOL     OW24404  13.881   0.185  11.109
 7524SOL    HW124405  13.837   0.247  11.167
 7524SOL    HW224406  13.973   0.211  11.113
 7525SOL     OW24407  10.989  14.530  12.659
 7525SOL    HW124408  10.978  14.492  12.572
 7525SOL    HW224409  11.076  14.571  12.656
 7526SOL     OW24410  10.978   3.195  14.070
 7526SOL    HW124411  11.069   3.214  14.093
 7526SOL    HW224412  10.983   3.145  13.989
 7527SOL     OW24413  14.242   7.954  10.735
 7527SOL    HW124414  14.288   8.005  10.669
 7527SOL    HW224415  14.310   7.901  10.777
 7528SOL     OW24416   3.805   9.032  13.787
 7528SOL    HW124417   3.858   9.034  13.866
 7528SOL    HW224418   3.754   8.950  13.794
 7529SOL     OW24419   4.283   9.958   9.401
 7529SOL    HW124420   4.293  10.044   9.442
 7529SOL    HW224421   4.194   9.959   9.365
 7530SOL     OW24422  12.369  14.497   0.452
 7530SOL    HW124423  12.406  14.556   0.518
 7530SOL    HW224424  12.314  14.437   0.501
 7531SOL     OW24425  14.873   1.930  13.182
 7531SOL    HW124426  14.789   1.967  13.208
 7531SOL    HW224427  14.857   1.836  13.176
 7532SOL     OW24428   1.724  12.802   7.918
 7532SOL    HW124429   1.642  12.846   7.897
 7532SOL    HW224430   1.722  12.791   8.013
 7533SOL     OW24431   5.746   6.689   0.659
 7533SOL    HW124432   5.789   6.743   0.725
 7533SOL    HW224433   5.788   6.603   0.667
 7534SOL     OW24434   5.128   1.090  11.203
 7534SOL    HW124435   5.100   1.077  11.112
 7534SOL    HW224436   5.125   1.002  11.241
 7535SOL     OW24437  13.703   7.939  11.403
 7535SOL    HW124438  13.636   7.875  11.425
 7535SOL    HW224439  13.730   7.977  11.487
 7536SOL     OW24440  10.846  10.156  12.434
 7536SOL    HW124441  10.774  10.150  12.498
 7536SOL    HW224442  10.886  10.069  12.435
 7537SOL     OW24443   2.219   5.835   9.501
 7537SOL    HW124444   2.222   5.854   9.595
 7537SOL    HW224445   2.250   5.916   9.460
 7538SOL     OW24446   1.199   7.184   4.176
 7538SOL    HW124447   1.289   7.202   4.151
 7538SOL    HW224448   1.167   7.123   4.109
 7539SOL     OW24449   0.002  10.780   4.074
 7539SOL    HW124450  14.842  10.718   4.135
 7539SOL    HW224451  14.844  10.865   4.098
 7540SOL     OW24452  13.914  12.430   0.051
 7540SOL    HW124453  13.882  12.413  14.841
 7540SOL    HW224454  13.904  12.346   0.096
 7541SOL     OW24455   9.497  11.928   1.836
 7541SOL    HW124456   9.516  11.989   1.765
 7541SOL    HW224457   9.411  11.955   1.868
 7542SOL     OW24458  11.171   9.139   7.736
 7542SOL    HW124459  11.240   9.202   7.718
 7542SOL    HW224460  11.215   9.067   7.781
 7543SOL     OW24461  13.430   8.869   1.122
 7543SOL    HW124462  13.407   8.943   1.179
 7543SOL    HW224463  13.475   8.808   1.180
 7544SOL     OW24464  12.460   4.005  13.237
 7544SOL    HW124465  12.444   4.099  13.243
 7544SOL    HW224466  12.556   3.998  13.238
 7545SOL     OW24467  10.457   8.355  12.466
 7545SOL    HW124468  10.524   8.415  12.433
 7545SOL    HW224469  10.389   8.356  12.399
 7546SOL     OW24470   9.139   3.050   4.676
 7546SOL    HW124471   9.164   3.062   4.584
 7546SOL    HW224472   9.059   2.998   4.672
 7547SOL     OW24473  13.866  13.489  11.520
 7547SOL    HW124474  13.914  13.424  11.468
 7547SOL    HW224475  13.892  13.471  11.610
 7548SOL     OW24476   1.710   3.238   1.341
 7548SOL    HW124477   1.677   3.258   1.253
 7548SOL    HW224478   1.643   3.273   1.400
 7549SOL     OW24479   9.049   5.506  10.309
 7549SOL    HW124480   9.130   5.469  10.343
 7549SOL    HW224481   9.076   5.550  10.228
 7550SOL     OW24482  13.974  10.435   9.299
 7550SOL    HW124483  13.932  10.366   9.248
 7550SOL    HW224484  13.911  10.455   9.369
 7551SOL     OW24485  14.698  14.762   8.820
 7551SOL    HW124486  14.695  14.821   8.896
 7551SOL    HW224487  14.653  14.810   8.751
 7552SOL     OW24488   8.729  13.925   4.217
 7552SOL    HW124489   8.709  13.976   4.295
 7552SOL    HW224490   8.792  13.859   4.247
 7553SOL     OW24491   0.383   2.156  14.485
 7553SOL    HW124492   0.338   2.106  14.418
 7553SOL    HW224493   0.349   2.122  14.568
 7554SOL     OW24494   4.208   7.180  10.478
 7554SOL    HW124495   4.149   7.207  10.548
 7554SOL    HW224496   4.258   7.260  10.457
 7555SOL     OW24497  12.379  11.960   2.512
 7555SOL    HW124498  12.321  11.883   2.508
 7555SOL    HW224499  12.363  11.997   2.599
 7556SOL     OW24500   8.960   3.487  12.830
 7556SOL    HW124501   9.034   3.441  12.790
 7556SOL    HW224502   8.922   3.538  12.759
 7557SOL     OW24503  12.504  14.794  12.718
 7557SOL    HW124504  12.450  14.810  12.795
 7557SOL    HW224505  12.590  14.770  12.754
 7558SOL     OW24506   9.139  14.290   4.084
 7558SOL    HW124507   9.202  14.239   4.034
 7558SOL    HW224508   9.087  14.224   4.132
 7559SOL     OW24509  13.202  14.808  12.404
 7559SOL    HW124510  13.136  14.744  12.378
 7559SOL    HW224511  13.241  14.770  12.483
 7560SOL     OW24512   2.470   8.971  10.013
 7560SOL    HW124513   2.444   8.881  10.032
 7560SOL    HW224514   2.532   8.993  10.082
 7561SOL     OW24515  13.825   1.169   5.691
 7561SOL    HW124516  13.871   1.226   5.753
 7561SOL    HW224517  13.761   1.227   5.650
 7562SOL     OW24518   1.824  11.940   9.776
 7562SOL    HW124519   1.900  11.905   9.822
 7562SOL    HW224520   1.767  11.974   9.845
 7563SOL     OW24521   2.727   5.603  10.561
 7563SOL    HW124522   2.786   5.612  10.487
 7563SOL    HW224523   2.766   5.535  10.616
 7564SOL     OW24524  10.652   1.493  11.271
 7564SOL    HW124525  10.721   1.435  11.239
 7564SOL    HW224526  10.587   1.494  11.202
 7565SOL     OW24527   6.082   1.425  12.609
 7565SOL    HW124528   6.010   1.456  12.554
 7565SOL    HW224529   6.048   1.432  12.698
 7566SOL     OW24530  12.265  12.793   9.421
 7566SOL    HW124531  12.202  12.839   9.365
 7566SOL    HW224532  12.282  12.711   9.375
 7567SOL     OW24533   5.590  14.719   3.027
 7567SOL    HW124534   5.653  14.789   3.010
 7567SOL    HW224535   5.600  14.658   2.953
 7568SOL     OW24536   5.810   0.698  11.138
 7568SOL    HW124537   5.881   0.646  11.099
 7568SOL    HW224538   5.731   0.664  11.096
 7569SOL     OW24539   9.294   4.718   0.132
 7569SOL    HW124540   9.345   4.645   0.099
 7569SOL    HW224541   9.219   4.724   0.073
 7570SOL     OW24542  13.772  10.091  14.790
 7570SOL    HW124543  13.799  10.073   0.001
 7570SOL    HW224544  13.751  10.184  14.790
 7571SOL     OW24545   0.938   9.275  14.374
 7571SOL    HW124546   1.025   9.269  14.335
 7571SOL    HW224547   0.902   9.357  14.339
 7572SOL     OW24548   6.740   0.299  11.966
 7572SOL    HW124549   6.645   0.302  11.972
 7572SOL    HW224550   6.766   0.235  12.032
 7573SOL     OW24551   8.429   1.796   9.998
 7573SOL    HW124552   8.354   1.742  10.021
 7573SOL    HW224553   8.500   1.734   9.984
 7574SOL     OW24554   8.270   1.999   9.622
 7574SOL    HW124555   8.203   1.944   9.662
 7574SOL    HW224556   8.353   1.959   9.648
 7575SOL     OW24557   1.402   1.850   9.683
 7575SOL    HW124558   1.366   1.762   9.691
 7575SOL    HW224559   1.356   1.889   9.609
 7576SOL     OW24560   1.635   2.814   1.597
 7576SOL    HW124561   1.722   2.802   1.559
 7576SOL    HW224562   1.602   2.895   1.556
 7577SOL     OW24563   1.781   6.006   1.025
 7577SOL    HW124564   1.740   6.093   1.018
 7577SOL    HW224565   1.868   6.023   1.061
 7578SOL     OW24566  11.210   3.655  14.817
 7578SOL    HW124567  11.197   3.638  14.724
 7578SOL    HW224568  11.154   3.730  14.836
 7579SOL     OW24569   9.812   4.083   5.152
 7579SOL    HW124570   9.790   4.176   5.151
 7579SOL    HW224571   9.751   4.045   5.215
 7580SOL     OW24572   7.527   0.636  10.447
 7580SOL    HW124573   7.463   0.625  10.376
 7580SOL    HW224574   7.609   0.606  10.409
 7581SOL     OW24575   0.092   3.763   2.174
 7581SOL    HW124576   0.141   3.829   2.126
 7581SOL    HW224577   0.160   3.704   2.209
 7582SOL     OW24578   4.755  11.702   5.240
 7582SOL    HW124579   4.835  11.678   5.287
 7582SOL    HW224580   4.782  11.774   5.183
 7583SOL     OW24581   6.665   2.524   8.893
 7583SOL    HW124582   6.612   2.578   8.835
 7583SOL    HW224583   6.742   2.501   8.841
 7584SOL     OW24584   2.079   4.903   5.209
 7584SOL    HW124585   1.992   4.943   5.216
 7584SOL    HW224586   2.068   4.830   5.148
 7585SOL     OW24587   5.702   8.266   6.215
 7585SOL    HW124588   5.705   8.241   6.307
 7585SOL    HW224589   5.736   8.190   6.168
 7586SOL     OW24590   4.064  11.163   9.037
 7586SOL    HW124591   3.971  11.187   9.036
 7586SOL    HW224592   4.064  11.068   9.034
 7587SOL     OW24593   1.821   2.458   0.652
 7587SOL    HW124594   1.902   2.436   0.699
 7587SOL    HW224595   1.758   2.393   0.681
 7588SOL     OW24596   2.715   3.773   0.331
 7588SOL    HW124597   2.802   3.807   0.354
 7588SOL    HW224598   2.656   3.847   0.344
 7589SOL     OW24599   9.034   8.664   7.167
 7589SOL    HW124600   8.944   8.687   7.189
 7589SOL    HW224601   9.086   8.704   7.236
 7590SOL     OW24602   2.814   3.860   3.475
 7590SOL    HW124603   2.826   3.955   3.470
 7590SOL    HW224604   2.902   3.824   3.467
 7591SOL     OW24605  11.907  12.326  14.488
 7591SOL    HW124606  11.837  12.270  14.520
 7591SOL    HW224607  11.986  12.272  14.496
 7592SOL     OW24608   5.517   8.517   0.017
 7592SOL    HW124609   5.590   8.496  14.838
 7592SOL    HW224610   5.499   8.610   0.000
 7593SOL     OW24611   3.186   4.208   0.693
 7593SOL    HW124612   3.219   4.132   0.742
 7593SOL    HW224613   3.227   4.283   0.734
 7594SOL     OW24614   1.636   6.406  10.004
 7594SOL    HW124615   1.599   6.463  10.071
 7594SOL    HW224616   1.701   6.460   9.959
 7595SOL     OW24617   5.707   8.095   4.331
 7595SOL    HW124618   5.613   8.100   4.351
 7595SOL    HW224619   5.750   8.132   4.408
 7596SOL     OW24620   9.711   8.864  11.981
 7596SOL    HW124621   9.713   8.960  11.980
 7596SOL    HW224622   9.620   8.842  11.963
 7597SOL     OW24623   2.683   2.664  12.184
 7597SOL    HW124624   2.629   2.643  12.260
 7597SOL    HW224625   2.737   2.738  12.212
 7598SOL     OW24626  10.097   2.273   4.808
 7598SOL    HW124627  10.173   2.215   4.819
 7598SOL    HW224628  10.102   2.332   4.883
 7599SOL     OW24629   1.086  14.329  13.611
 7599SOL    HW124630   1.161  14.383  13.636
 7599SOL    HW224631   1.031  14.328  13.689
 7600SOL     OW24632   1.013   3.966   2.490
 7600SOL    HW124633   1.039   3.914   2.414
 7600SOL    HW224634   1.091   3.968   2.545
 7601SOL     OW24635   6.826  14.184  12.485
 7601SOL    HW124636   6.809  14.132  12.564
 7601SOL    HW224637   6.825  14.121  12.413
 7602SOL     OW24638   2.236   0.055  12.870
 7602SOL    HW124639   2.296   0.129  12.877
 7602SOL    HW224640   2.201   0.060  12.782
 7603SOL     OW24641  12.435  14.150   2.350
 7603SOL    HW124642  12.349  14.135   2.389
 7603SOL    HW224643  12.440  14.245   2.338
 7604SOL     OW24644   4.204  13.913   0.631
 7604SOL    HW124645   4.130  13.921   0.570
 7604SOL    HW224646   4.207  13.820   0.653
 7605SOL     OW24647  14.156   0.096   1.756
 7605SOL    HW124648  14.075   0.147   1.743
 7605SOL    HW224649  14.146   0.021   1.698
 7606SOL     OW24650   0.834   9.471   8.213
 7606SOL    HW124651   0.910   9.444   8.266
 7606SOL    HW224652   0.789   9.389   8.194
 7607SOL     OW24653   5.217   6.937   3.031
 7607SOL    HW124654   5.127   6.929   3.063
 7607SOL    HW224655   5.257   6.852   3.049
 7608SOL     OW24656  10.516  11.817   7.473
 7608SOL    HW124657  10.488  11.866   7.551
 7608SOL    HW224658  10.459  11.740   7.471
 7609SOL     OW24659  14.725   5.756  13.337
 7609SOL    HW124660  14.735   5.762  13.432
 7609SOL    HW224661  14.651   5.696  13.325
 7610SOL     OW24662   2.665   4.669  14.476
 7610SOL    HW124663   2.645   4.742  14.418
 7610SOL    HW224664   2.585   4.657  14.528
 7611SOL     OW24665   1.661   4.445  13.184
 7611SOL    HW124666   1.576   4.428  13.143
 7611SOL    HW224667   1.673   4.371  13.244
 7612SOL     OW24668   9.612  12.903   9.265
 7612SOL    HW124669   9.578  12.934   9.181
 7612SOL    HW224670   9.649  12.817   9.246
 7613SOL     OW24671  11.914   8.745   2.195
 7613SOL    HW124672  12.004   8.750   2.161
 7613SOL    HW224673  11.871   8.824   2.162
 7614SOL     OW24674   7.089  14.643   9.824
 7614SOL    HW124675   7.140  14.682   9.895
 7614SOL    HW224676   7.012  14.699   9.816
 7615SOL     OW24677   7.104  14.365   4.006
 7615SOL    HW124678   7.057  14.291   4.046
 7615SOL    HW224679   7.035  14.418   3.966
 7616SOL     OW24680   2.609   7.059   7.145
 7616SOL    HW124681   2.665   7.033   7.218
 7616SOL    HW224682   2.536   7.106   7.185
 7617SOL     OW24683   9.025  14.072  11.713
 7617SOL    HW124684   8.941  14.118  11.708
 7617SOL    HW224685   9.091  14.140  11.699
 7618SOL     OW24686   2.643   1.892  12.555
 7618SOL    HW124687   2.688   1.898  12.471
 7618SOL    HW224688   2.560   1.849  12.535
 7619SOL     OW24689   1.385   9.394   6.670
 7619SOL    HW124690   1.444   9.328   6.706
 7619SOL    HW224691   1.333   9.348   6.605
 7620SOL     OW24692  11.446   8.393   1.004
 7620SOL    HW124693  11.401   8.312   0.982
 7620SOL    HW224694  11.383   8.462   0.985
 7621SOL     OW24695  14.851  12.068   2.035
 7621SOL    HW124696  14.782  12.118   2.079
 7621SOL    HW224697  14.838  12.087   1.942
 7622SOL     OW24698  12.125  10.027  11.619
 7622SOL    HW124699  12.203  10.010  11.566
 7622SOL    HW224700  12.092   9.939  11.642
 7623SOL     OW24701   8.934  10.013   3.257
 7623SOL    HW124702   8.899  10.054   3.178
 7623SOL    HW224703   8.857   9.987   3.308
 7624SOL     OW24704   5.399   5.375   6.341
 7624SOL    HW124705   5.464   5.360   6.273
 7624SOL    HW224706   5.449   5.376   6.423
 7625SOL     OW24707  14.383   2.059   1.153
 7625SOL    HW124708  14.318   2.099   1.210
 7625SOL    HW224709  14.400   1.974   1.192
 7626SOL     OW24710  12.157   1.581  11.724
 7626SOL    HW124711  12.192   1.622  11.803
 7626SOL    HW224712  12.149   1.653  11.661
 7627SOL     OW24713  13.432  13.029   2.099
 7627SOL    HW124714  13.409  12.938   2.118
 7627SOL    HW224715  13.372  13.081   2.154
 7628SOL     OW24716   7.085   7.476  13.132
 7628SOL    HW124717   7.021   7.537  13.096
 7628SOL    HW224718   7.076   7.485  13.226
 7629SOL     OW24719   1.967   4.241  14.074
 7629SOL    HW124720   1.911   4.285  14.137
 7629SOL    HW224721   1.989   4.157  14.115
 7630SOL     OW24722  10.637   4.983   5.155
 7630SOL    HW124723  10.709   4.989   5.217
 7630SOL    HW224724  10.589   4.904   5.180
 7631SOL     OW24725   1.977   2.455   8.190
 7631SOL    HW124726   2.031   2.530   8.215
 7631SOL    HW224727   1.950   2.474   8.100
 7632SOL     OW24728   6.610   2.430   9.386
 7632SOL    HW124729   6.699   2.397   9.380
 7632SOL    HW224730   6.585   2.415   9.477
 7633SOL     OW24731   7.178  11.829   2.473
 7633SOL    HW124732   7.210  11.850   2.561
 7633SOL    HW224733   7.240  11.765   2.439
 7634SOL     OW24734  10.381  14.848   3.208
 7634SOL    HW124735  10.424   0.020   3.140
 7634SOL    HW224736  10.446  14.783   3.234
 7635SOL     OW24737   0.447   9.394   1.195
 7635SOL    HW124738   0.461   9.457   1.125
 7635SOL    HW224739   0.520   9.408   1.255
 7636SOL     OW24740   0.852  14.121   2.172
 7636SOL    HW124741   0.851  14.177   2.249
 7636SOL    HW224742   0.856  14.032   2.207
 7637SOL     OW24743   0.870   3.652   4.710
 7637SOL    HW124744   0.782   3.654   4.672
 7637SOL    HW224745   0.869   3.718   4.779
 7638SOL     OW24746  13.846   4.973  13.999
 7638SOL    HW124747  13.768   4.918  14.000
 7638SOL    HW224748  13.854   5.006  14.089
 7639SOL     OW24749   8.044  12.112   8.947
 7639SOL    HW124750   7.951  12.090   8.956
 7639SOL    HW224751   8.086  12.027   8.933
 7640SOL     OW24752   8.849   1.082   0.807
 7640SOL    HW124753   8.878   1.093   0.716
 7640SOL    HW224754   8.930   1.080   0.857
 7641SOL     OW24755  10.174   7.203   7.026
 7641SOL    HW124756  10.252   7.194   7.081
 7641SOL    HW224757  10.183   7.135   6.959
 7642SOL     OW24758  11.156   7.006   0.165
 7642SOL    HW124759  11.166   7.047   0.079
 7642SOL    HW224760  11.243   7.010   0.204
 7643SOL     OW24761   1.880   2.444   6.539
 7643SOL    HW124762   1.886   2.527   6.585
 7643SOL    HW224763   1.835   2.386   6.600
 7644SOL     OW24764   6.539  10.172   2.068
 7644SOL    HW124765   6.564  10.157   1.977
 7644SOL    HW224766   6.620  10.159   2.118
 7645SOL     OW24767   5.584   5.061   4.129
 7645SOL    HW124768   5.609   4.987   4.073
 7645SOL    HW224769   5.655   5.067   4.193
 7646SOL     OW24770  13.086  13.650   8.730
 7646SOL    HW124771  13.110  13.563   8.761
 7646SOL    HW224772  12.998  13.640   8.695
 7647SOL     OW24773   1.008  14.396   9.170
 7647SOL    HW124774   1.069  14.345   9.116
 7647SOL    HW224775   1.028  14.370   9.260
 7648SOL     OW24776   5.050   6.700   4.456
 7648SOL    HW124777   5.084   6.785   4.429
 7648SOL    HW224778   5.043   6.650   4.375
 7649SOL     OW24779  11.329   7.936   3.671
 7649SOL    HW124780  11.285   7.912   3.590
 7649SOL    HW224781  11.350   8.029   3.660
 7650SOL     OW24782   1.276   5.896   6.403
 7650SOL    HW124783   1.362   5.874   6.367
 7650SOL    HW224784   1.271   5.847   6.485
 7651SOL     OW24785   4.801   2.044   8.234
 7651SOL    HW124786   4.800   2.096   8.154
 7651SOL    HW224787   4.796   2.109   8.304
 7652SOL     OW24788   8.725   6.201   8.004
 7652SOL    HW124789   8.766   6.232   7.923
 7652SOL    HW224790   8.652   6.147   7.974
 7653SOL     OW24791   1.621   9.246   6.814
 7653SOL    HW124792   1.561   9.173   6.827
 7653SOL    HW224793   1.670   9.224   6.735
 7654SOL     OW24794   1.158  10.730   6.395
 7654SOL    HW124795   1.095  10.682   6.342
 7654SOL    HW224796   1.115  10.741   6.480
 7655SOL     OW24797   1.888   7.308   6.040
 7655SOL    HW124798   1.933   7.243   5.987
 7655SOL    HW224799   1.843   7.257   6.108
 7656SOL     OW24800   8.191  11.017   0.038
 7656SOL    HW124801   8.195  10.925   0.014
 7656SOL    HW224802   8.220  11.020   0.129
 7657SOL     OW24803  14.252  12.250  13.525
 7657SOL    HW124804  14.250  12.330  13.472
 7657SOL    HW224805  14.320  12.196  13.484
 7658SOL     OW24806  14.088   9.779   5.008
 7658SOL    HW124807  14.116   9.780   5.099
 7658SOL    HW224808  14.058   9.689   4.993
 7659SOL     OW24809   8.663  10.795  11.169
 7659SOL    HW124810   8.596  10.763  11.108
 7659SOL    HW224811   8.613  10.837  11.239
 7660SOL     OW24812  13.891   1.765   9.083
 7660SOL    HW124813  13.912   1.694   9.022
 7660SOL    HW224814  13.943   1.745   9.161
 7661SOL     OW24815  11.507   6.812   5.819
 7661SOL    HW124816  11.549   6.851   5.895
 7661SOL    HW224817  11.578   6.797   5.757
 7662SOL     OW24818   4.691   8.394   3.441
 7662SOL    HW124819   4.627   8.462   3.462
 7662SOL    HW224820   4.719   8.414   3.352
 7663SOL     OW24821   1.568   9.729   1.434
 7663SOL    HW124822   1.526   9.648   1.405
 7663SOL    HW224823   1.608   9.707   1.518
 7664SOL     OW24824   3.755   4.222  13.125
 7664SOL    HW124825   3.828   4.281  13.142
 7664SOL    HW224826   3.791   4.135  13.143
 7665SOL     OW24827   9.714   1.035   7.723
 7665SOL    HW124828   9.688   1.078   7.805
 7665SOL    HW224829   9.669   0.950   7.725
 7666SOL     OW24830   3.367  13.719   5.055
 7666SOL    HW124831   3.338  13.809   5.068
 7666SOL    HW224832   3.402  13.692   5.139
 7667SOL     OW24833   1.929   6.194   5.727
 7667SOL    HW124834   1.900   6.283   5.746
 7667SOL    HW224835   2.021   6.204   5.702
 7668SOL     OW24836   9.644   1.305  10.025
 7668SOL    HW124837   9.680   1.221  10.055
 7668SOL    HW224838   9.552   1.302  10.051
 7669SOL     OW24839   1.943   0.080   3.233
 7669SOL    HW124840   2.037   0.083   3.215
 7669SOL    HW224841   1.902   0.112   3.153
 7670SOL     OW24842   4.231   8.144  12.415
 7670SOL    HW124843   4.248   8.179  12.327
 7670SOL    HW224844   4.316   8.112  12.445
 7671SOL     OW24845   4.779   9.922   0.162
 7671SOL    HW124846   4.856   9.976   0.181
 7671SOL    HW224847   4.754   9.947   0.073
 7672SOL     OW24848   0.766  10.753   5.480
 7672SOL    HW124849   0.726  10.716   5.559
 7672SOL    HW224850   0.711  10.828   5.458
 7673SOL     OW24851   0.873   7.666   3.373
 7673SOL    HW124852   0.924   7.636   3.448
 7673SOL    HW224853   0.920   7.632   3.297
 7674SOL     OW24854  11.721   5.913   3.426
 7674SOL    HW124855  11.795   5.856   3.449
 7674SOL    HW224856  11.648   5.853   3.415
 7675SOL     OW24857  10.151  12.933  11.901
 7675SOL    HW124858  10.138  13.025  11.879
 7675SOL    HW224859  10.135  12.887  11.819
 7676SOL     OW24860   9.714   1.754  12.990
 7676SOL    HW124861   9.776   1.825  12.980
 7676SOL    HW224862   9.657   1.761  12.913
 7677SOL     OW24863   1.847   9.374   7.671
 7677SOL    HW124864   1.937   9.395   7.647
 7677SOL    HW224865   1.834   9.285   7.639
 7678SOL     OW24866  10.529   3.018   9.878
 7678SOL    HW124867  10.550   2.982   9.792
 7678SOL    HW224868  10.441   2.988   9.897
 7679SOL     OW24869   2.622  11.009   6.311
 7679SOL    HW124870   2.673  10.972   6.239
 7679SOL    HW224871   2.575  10.935   6.349
 7680SOL     OW24872   4.188   3.414   2.289
 7680SOL    HW124873   4.113   3.473   2.284
 7680SOL    HW224874   4.149   3.327   2.305
 7681SOL     OW24875   9.318  13.064  13.390
 7681SOL    HW124876   9.331  13.017  13.472
 7681SOL    HW224877   9.229  13.097  13.394
 7682SOL     OW24878   4.122  10.342  14.386
 7682SOL    HW124879   4.102  10.328  14.478
 7682SOL    HW224880   4.100  10.434  14.371
 7683SOL     OW24881   8.447  11.354   3.584
 7683SOL    HW124882   8.432  11.364   3.490
 7683SOL    HW224883   8.395  11.425   3.624
 7684SOL     OW24884  12.285   6.646   9.970
 7684SOL    HW124885  12.312   6.724   9.923
 7684SOL    HW224886  12.362   6.589   9.968
 7685SOL     OW24887   7.055   3.069   9.322
 7685SOL    HW124888   7.029   2.991   9.371
 7685SOL    HW224889   7.101   3.123   9.385
 7686SOL     OW24890   7.249   5.780   1.049
 7686SOL    HW124891   7.184   5.787   0.979
 7686SOL    HW224892   7.280   5.690   1.045
 7687SOL     OW24893  13.462   8.538   4.738
 7687SOL    HW124894  13.387   8.546   4.797
 7687SOL    HW224895  13.423   8.516   4.653
 7688SOL     OW24896   9.497   4.985  14.295
 7688SOL    HW124897   9.554   5.060  14.282
 7688SOL    HW224898   9.494   4.971  14.390
 7689SOL     OW24899   2.071  10.699   4.130
 7689SOL    HW124900   2.036  10.670   4.045
 7689SOL    HW224901   2.033  10.638   4.193
 7690SOL     OW24902   4.087  10.836   2.023
 7690SOL    HW124903   4.176  10.831   1.991
 7690SOL    HW224904   4.035  10.787   1.959
 7691SOL     OW24905   6.277   2.347   2.081
 7691SOL    HW124906   6.232   2.267   2.109
 7691SOL    HW224907   6.254   2.412   2.147
 7692SOL     OW24908   6.665   4.252  10.093
 7692SOL    HW124909   6.724   4.288  10.159
 7692SOL    HW224910   6.719   4.192  10.042
 7693SOL     OW24911  10.630   7.545  12.954
 7693SOL    HW124912  10.630   7.509  13.043
 7693SOL    HW224913  10.690   7.620  12.958
 7694SOL     OW24914   6.344  13.982  12.645
 7694SOL    HW124915   6.329  13.930  12.566
 7694SOL    HW224916   6.349  13.917  12.715
 7695SOL     OW24917  13.107   4.576   6.660
 7695SOL    HW124918  13.185   4.535   6.696
 7695SOL    HW224919  13.069   4.624   6.734
 7696SOL     OW24920   8.961   9.240  11.979
 7696SOL    HW124921   8.883   9.215  11.929
 7696SOL    HW224922   9.018   9.163  11.975
 7697SOL     OW24923   2.049   0.809  10.258
 7697SOL    HW124924   1.998   0.889  10.267
 7697SOL    HW224925   2.092   0.798  10.343
 7698SOL     OW24926  14.001   7.343   8.178
 7698SOL    HW124927  14.056   7.314   8.251
 7698SOL    HW224928  13.911   7.335   8.211
 7699SOL     OW24929   8.543  10.766   7.870
 7699SOL    HW124930   8.596  10.818   7.931
 7699SOL    HW224931   8.502  10.699   7.924
 7700SOL     OW24932   5.628  11.258   6.611
 7700SOL    HW124933   5.650  11.167   6.630
 7700SOL    HW224934   5.618  11.261   6.516
 7701SOL     OW24935  10.779   2.828  12.265
 7701SOL    HW124936  10.764   2.827  12.170
 7701SOL    HW224937  10.694   2.847  12.302
 7702SOL     OW24938   5.019   8.066   1.106
 7702SOL    HW124939   5.052   7.977   1.117
 7702SOL    HW224940   5.004   8.074   1.012
 7703SOL     OW24941   4.263  12.109  11.410
 7703SOL    HW124942   4.297  12.033  11.457
 7703SOL    HW224943   4.170  12.090  11.397
 7704SOL     OW24944  14.662   4.145  13.740
 7704SOL    HW124945  14.622   4.229  13.717
 7704SOL    HW224946  14.618   4.120  13.822
 7705SOL     OW24947  14.650   7.885   9.235
 7705SOL    HW124948  14.635   7.881   9.141
 7705SOL    HW224949  14.590   7.819   9.271
 7706SOL     OW24950   9.347  13.361   2.595
 7706SOL    HW124951   9.361  13.455   2.585
 7706SOL    HW224952   9.432  13.325   2.618
 7707SOL     OW24953  11.896   4.946  10.962
 7707SOL    HW124954  11.885   4.873  10.901
 7707SOL    HW224955  11.990   4.966  10.958
 7708SOL     OW24956   2.840   2.356   5.266
 7708SOL    HW124957   2.763   2.397   5.307
 7708SOL    HW224958   2.904   2.350   5.337
 7709SOL     OW24959  11.300  11.797   6.381
 7709SOL    HW124960  11.370  11.853   6.413
 7709SOL    HW224961  11.240  11.857   6.335
 7710SOL     OW24962   5.058   5.506   5.360
 7710SOL    HW124963   5.072   5.598   5.341
 7710SOL    HW224964   5.083   5.460   5.279
 7711SOL     OW24965  12.974  11.582  11.071
 7711SOL    HW124966  12.990  11.611  11.161
 7711SOL    HW224967  12.968  11.487  11.077
 7712SOL     OW24968   7.951   3.220   7.272
 7712SOL    HW124969   7.959   3.144   7.213
 7712SOL    HW224970   7.971   3.184   7.359
 7713SOL     OW24971   6.812   0.087   2.543
 7713SOL    HW124972   6.732   0.083   2.491
 7713SOL    HW224973   6.880   0.056   2.483
 7714SOL     OW24974   9.106   1.949   0.459
 7714SOL    HW124975   9.046   1.998   0.515
 7714SOL    HW224976   9.114   1.864   0.501
 7715SOL     OW24977   3.470   6.176   8.700
 7715SOL    HW124978   3.478   6.081   8.685
 7715SOL    HW224979   3.529   6.193   8.773
 7716SOL     OW24980   5.345   4.606   2.695
 7716SOL    HW124981   5.267   4.561   2.661
 7716SOL    HW224982   5.356   4.571   2.783
 7717SOL     OW24983   0.249   5.959  10.939
 7717SOL    HW124984   0.262   5.868  10.911
 7717SOL    HW224985   0.292   5.964  11.024
 7718SOL     OW24986   4.140   3.520  14.835
 7718SOL    HW124987   4.213   3.484  14.784
 7718SOL    HW224988   4.082   3.559  14.770
 7719SOL     OW24989  13.280   0.683   2.682
 7719SOL    HW124990  13.248   0.701   2.771
 7719SOL    HW224991  13.264   0.589   2.671
 7720SOL     OW24992   5.827  13.969   6.124
 7720SOL    HW124993   5.787  13.999   6.206
 7720SOL    HW224994   5.834  13.874   6.134
 7721SOL     OW24995  13.579   2.825   2.061
 7721SOL    HW124996  13.571   2.732   2.039
 7721SOL    HW224997  13.606   2.867   1.979
 7722SOL     OW24998   7.039   2.378  13.850
 7722SOL    HW124999   7.039   2.413  13.939
 7722SOL    HW225000   7.129   2.388  13.820
 7723SOL     OW25001   6.988  10.792   1.297
 7723SOL    HW125002   7.072  10.770   1.257
 7723SOL    HW225003   6.952  10.861   1.240
 7724SOL     OW25004   8.168   9.860   0.326
 7724SOL    HW125005   8.210   9.871   0.411
 7724SOL    HW225006   8.240   9.841   0.266
 7725SOL     OW25007   2.669   1.841   7.885
 7725SOL    HW125008   2.693   1.928   7.918
 7725SOL    HW225009   2.721   1.830   7.806
 7726SOL     OW25010  13.328   2.877  13.134
 7726SOL    HW125011  13.403   2.909  13.184
 7726SOL    HW225012  13.338   2.918  13.048
 7727SOL     OW25013   3.347  14.282   2.405
 7727SOL    HW125014   3.255  14.311   2.403
 7727SOL    HW225015   3.379  14.296   2.316
 7728SOL     OW25016   2.045   3.831   1.745
 7728SOL    HW125017   2.042   3.758   1.807
 7728SOL    HW225018   1.953   3.857   1.735
 7729SOL     OW25019   4.852   3.147   0.225
 7729SOL    HW125020   4.779   3.114   0.171
 7729SOL    HW225021   4.914   3.183   0.161
 7730SOL     OW25022   6.292   4.613  10.054
 7730SOL    HW125023   6.334   4.531  10.080
 7730SOL    HW225024   6.213   4.617  10.107
 7731SOL     OW25025   6.886   0.455   4.791
 7731SOL    HW125026   6.865   0.548   4.792
 7731SOL    HW225027   6.814   0.413   4.838
 7732SOL     OW25028  14.358  11.862  10.882
 7732SOL    HW125029  14.445  11.878  10.919
 7732SOL    HW225030  14.304  11.839  10.957
 7733SOL     OW25031  14.200   8.783   6.306
 7733SOL    HW125032  14.116   8.818   6.274
 7733SOL    HW225033  14.185   8.766   6.399
 7734SOL     OW25034   0.739   4.186  10.756
 7734SOL    HW125035   0.786   4.115  10.714
 7734SOL    HW225036   0.803   4.257  10.763
 7735SOL     OW25037   7.518   7.465   9.719
 7735SOL    HW125038   7.489   7.377   9.741
 7735SOL    HW225039   7.477   7.484   9.635
 7736SOL     OW25040   4.674   4.537   9.092
 7736SOL    HW125041   4.602   4.598   9.109
 7736SOL    HW225042   4.749   4.577   9.135
 7737SOL     OW25043   3.037   2.510   9.739
 7737SOL    HW125044   3.053   2.498   9.833
 7737SOL    HW225045   2.990   2.431   9.712
 7738SOL     OW25046   0.548   1.833   1.774
 7738SOL    HW125047   0.630   1.852   1.820
 7738SOL    HW225048   0.573   1.778   1.700
 7739SOL     OW25049  13.102   6.377   2.607
 7739SOL    HW125050  13.033   6.440   2.626
 7739SOL    HW225051  13.099   6.366   2.512
 7740SOL     OW25052  11.340  12.396   8.946
 7740SOL    HW125053  11.354  12.377   8.853
 7740SOL    HW225054  11.347  12.310   8.989
 7741SOL     OW25055   0.965  12.304   1.947
 7741SOL    HW125056   1.008  12.230   1.904
 7741SOL    HW225057   1.037  12.352   1.988
 7742SOL     OW25058  14.852  10.795  12.866
 7742SOL    HW125059   0.021  10.803  12.783
 7742SOL    HW225060   0.021  10.852  12.927
 7743SOL     OW25061  14.378   6.211   0.018
 7743SOL    HW125062  14.289   6.240   0.000
 7743SOL    HW225063  14.433   6.286  14.874
 7744SOL     OW25064   6.892   1.665   6.241
 7744SOL    HW125065   6.962   1.728   6.255
 7744SOL    HW225066   6.903   1.637   6.150
 7745SOL     OW25067   8.853  10.168  10.388
 7745SOL    HW125068   8.760  10.171  10.411
 7745SOL    HW225069   8.897  10.146  10.471
 7746SOL     OW25070   7.490   5.728   2.133
 7746SOL    HW125071   7.526   5.815   2.150
 7746SOL    HW225072   7.563   5.678   2.096
 7747SOL     OW25073  11.175   4.096   0.985
 7747SOL    HW125074  11.186   4.190   0.974
 7747SOL    HW225075  11.232   4.074   1.059
 7748SOL     OW25076   3.287   3.347   8.325
 7748SOL    HW125077   3.372   3.305   8.316
 7748SOL    HW225078   3.302   3.438   8.298
 7749SOL     OW25079   3.653  12.801  14.512
 7749SOL    HW125080   3.730  12.782  14.459
 7749SOL    HW225081   3.676  12.879  14.562
 7750SOL     OW25082   4.908   6.087  13.378
 7750SOL    HW125083   4.865   6.054  13.299
 7750SOL    HW225084   4.865   6.042  13.450
 7751SOL     OW25085   5.795   1.586  14.248
 7751SOL    HW125086   5.872   1.552  14.203
 7751SOL    HW225087   5.824   1.601  14.338
 7752SOL     OW25088   5.085   6.957  12.821
 7752SOL    HW125089   5.095   6.902  12.899
 7752SOL    HW225090   5.000   6.933  12.785
 7753SOL     OW25091   0.487   9.690  11.380
 7753SOL    HW125092   0.454   9.692  11.470
 7753SOL    HW225093   0.429   9.629  11.335
 7754SOL     OW25094   5.765  14.800   8.339
 7754SOL    HW125095   5.681  14.756   8.327
 7754SOL    HW225096   5.811  14.788   8.255
 7755SOL     OW25097  14.472   5.458   9.213
 7755SOL    HW125098  14.530   5.533   9.217
 7755SOL    HW225099  14.415   5.476   9.138
 7756SOL     OW25100   9.765  13.764  10.632
 7756SOL    HW125101   9.700  13.819  10.675
 7756SOL    HW225102   9.755  13.782  10.539
 7757SOL     OW25103   4.359  14.006   4.861
 7757SOL    HW125104   4.268  14.012   4.833
 7757SOL    HW225105   4.357  14.030   4.953
 7758SOL     OW25106  13.411   5.182  14.089
 7758SOL    HW125107  13.447   5.242  14.024
 7758SOL    HW225108  13.465   5.197  14.167
 7759SOL     OW25109   6.086   7.058   3.742
 7759SOL    HW125110   6.045   7.144   3.733
 7759SOL    HW225111   6.036   7.016   3.812
 7760SOL     OW25112   1.906   5.768   0.618
 7760SOL    HW125113   1.960   5.838   0.582
 7760SOL    HW225114   1.877   5.718   0.541
 7761SOL     OW25115   6.636   3.727  13.599
 7761SOL    HW125116   6.563   3.746  13.658
 7761SOL    HW225117   6.615   3.775  13.519
 7762SOL     OW25118   5.112   1.017  12.453
 7762SOL    HW125119   5.171   1.061  12.391
 7762SOL    HW225120   5.111   1.074  12.530
 7763SOL     OW25121   5.736   3.704   8.747
 7763SOL    HW125122   5.784   3.664   8.674
 7763SOL    HW225123   5.799   3.704   8.819
 7764SOL     OW25124   3.612   6.342   9.087
 7764SOL    HW125125   3.648   6.254   9.097
 7764SOL    HW225126   3.565   6.358   9.169
 7765SOL     OW25127   9.054  11.623   3.593
 7765SOL    HW125128   9.118  11.552   3.604
 7765SOL    HW225129   8.971  11.577   3.577
 7766SOL     OW25130  13.495   3.202   1.049
 7766SOL    HW125131  13.414   3.234   1.090
 7766SOL    HW225132  13.518   3.124   1.099
 7767SOL     OW25133  12.380  14.722   1.453
 7767SOL    HW125134  12.454  14.675   1.492
 7767SOL    HW225135  12.338  14.657   1.396
 7768SOL     OW25136   0.582   4.400   1.980
 7768SOL    HW125137   0.570   4.458   2.056
 7768SOL    HW225138   0.618   4.457   1.912
 7769SOL     OW25139   5.614   8.902   4.192
 7769SOL    HW125140   5.545   8.916   4.127
 7769SOL    HW225141   5.567   8.879   4.272
 7770SOL     OW25142   6.259  14.179  12.371
 7770SOL    HW125143   6.307  14.194  12.452
 7770SOL    HW225144   6.315  14.121  12.320
 7771SOL     OW25145  11.685   2.021   9.188
 7771SOL    HW125146  11.633   2.049   9.113
 7771SOL    HW225147  11.698   1.927   9.175
 7772SOL     OW25148   6.287   7.186   7.720
 7772SOL    HW125149   6.325   7.106   7.755
 7772SOL    HW225150   6.204   7.159   7.681
 7773SOL     OW25151  11.412  12.909  11.044
 7773SOL    HW125152  11.318  12.922  11.034
 7773SOL    HW225153  11.451  12.963  10.975
 7774SOL     OW25154   1.682   2.258   2.172
 7774SOL    HW125155   1.679   2.173   2.215
 7774SOL    HW225156   1.774   2.271   2.149
 7775SOL     OW25157   1.332   8.364  12.666
 7775SOL    HW125158   1.357   8.438  12.721
 7775SOL    HW225159   1.263   8.398  12.609
 7776SOL     OW25160  10.848   8.093   3.161
 7776SOL    HW125161  10.824   8.015   3.110
 7776SOL    HW225162  10.915   8.137   3.108
 7777SOL     OW25163   1.580  14.023  12.558
 7777SOL    HW125164   1.658  14.054  12.605
 7777SOL    HW225165   1.582  14.070  12.475
 7778SOL     OW25166   6.844   8.284   1.695
 7778SOL    HW125167   6.834   8.271   1.789
 7778SOL    HW225168   6.878   8.200   1.663
 7779SOL     OW25169   1.818   0.091  13.144
 7779SOL    HW125170   1.769   0.008  13.145
 7779SOL    HW225171   1.869   0.087  13.063
 7780SOL     OW25172   5.627   6.705   5.844
 7780SOL    HW125173   5.644   6.756   5.764
 7780SOL    HW225174   5.674   6.623   5.829
 7781SOL     OW25175  14.522  14.867  11.328
 7781SOL    HW125176  14.571  14.826  11.257
 7781SOL    HW225177  14.572  14.848  11.407
 7782SOL     OW25178   2.407  10.336   0.680
 7782SOL    HW125179   2.431  10.243   0.678
 7782SOL    HW225180   2.447  10.370   0.760
 7783SOL     OW25181   8.271   7.128   7.807
 7783SOL    HW125182   8.304   7.040   7.788
 7783SOL    HW225183   8.180   7.114   7.833
 7784SOL     OW25184   7.883   3.675  10.858
 7784SOL    HW125185   7.801   3.656  10.814
 7784SOL    HW225186   7.933   3.727  10.795
 7785SOL     OW25187  11.201   6.546   1.073
 7785SOL    HW125188  11.215   6.581   1.160
 7785SOL    HW225189  11.269   6.480   1.062
 7786SOL     OW25190  11.542   5.782  12.489
 7786SOL    HW125191  11.478   5.711  12.485
 7786SOL    HW225192  11.554   5.797  12.583
 7787SOL     OW25193   9.632   9.724  12.367
 7787SOL    HW125194   9.710   9.700  12.318
 7787SOL    HW225195   9.638   9.674  12.448
 7788SOL     OW25196   4.267  11.580   3.113
 7788SOL    HW125197   4.256  11.558   3.021
 7788SOL    HW225198   4.313  11.505   3.151
 7789SOL     OW25199  12.968   0.568  13.929
 7789SOL    HW125200  12.941   0.624  13.856
 7789SOL    HW225201  13.064   0.571  13.928
 7790SOL     OW25202   9.429   0.794   5.925
 7790SOL    HW125203   9.462   0.818   5.838
 7790SOL    HW225204   9.489   0.726   5.956
 7791SOL     OW25205  11.955   7.430  10.008
 7791SOL    HW125206  11.898   7.505  10.025
 7791SOL    HW225207  11.906   7.354  10.041
 7792SOL     OW25208  11.657  14.413  10.290
 7792SOL    HW125209  11.704  14.413  10.373
 7792SOL    HW225210  11.659  14.321  10.262
 7793SOL     OW25211  10.144  10.408   5.537
 7793SOL    HW125212  10.217  10.470   5.537
 7793SOL    HW225213  10.114  10.406   5.446
 7794SOL     OW25214   2.574  14.324   5.307
 7794SOL    HW125215   2.667  14.310   5.325
 7794SOL    HW225216   2.548  14.247   5.256
 7795SOL     OW25217   2.908   8.907   0.421
 7795SOL    HW125218   2.930   8.962   0.496
 7795SOL    HW225219   2.992   8.882   0.383
 7796SOL     OW25220  13.042  13.302   7.593
 7796SOL    HW125221  13.021  13.395   7.606
 7796SOL    HW225222  12.976  13.256   7.645
 7797SOL     OW25223   2.383   8.443   2.819
 7797SOL    HW125224   2.341   8.371   2.772
 7797SOL    HW225225   2.446   8.478   2.755
 7798SOL     OW25226   5.321   7.265   6.064
 7798SOL    HW125227   5.403   7.271   6.014
 7798SOL    HW225228   5.255   7.303   6.006
 7799SOL     OW25229  13.079   0.576   1.459
 7799SOL    HW125230  12.988   0.592   1.480
 7799SOL    HW225231  13.109   0.515   1.526
 7800SOL     OW25232  11.864   8.233  14.513
 7800SOL    HW125233  11.871   8.164  14.580
 7800SOL    HW225234  11.907   8.196  14.436
 7801SOL     OW25235  13.092  12.332   3.865
 7801SOL    HW125236  13.073  12.291   3.949
 7801SOL    HW225237  13.067  12.423   3.875
 7802SOL     OW25238  10.584   4.417  13.361
 7802SOL    HW125239  10.542   4.337  13.328
 7802SOL    HW225240  10.528   4.488  13.331
 7803SOL     OW25241  13.311   8.340   2.138
 7803SOL    HW125242  13.387   8.344   2.080
 7803SOL    HW225243  13.253   8.275   2.097
 7804SOL     OW25244   3.048   1.704   3.273
 7804SOL    HW125245   3.141   1.698   3.297
 7804SOL    HW225246   3.046   1.683   3.180
 7805SOL     OW25247  12.173   5.487   9.161
 7805SOL    HW125248  12.135   5.453   9.242
 7805SOL    HW225249  12.119   5.562   9.139
 7806SOL     OW25250   3.814   2.219  11.017
 7806SOL    HW125251   3.739   2.197  11.072
 7806SOL    HW225252   3.846   2.135  10.985
 7807SOL     OW25253   3.241   9.085   5.860
 7807SOL    HW125254   3.274   9.010   5.809
 7807SOL    HW225255   3.162   9.052   5.903
 7808SOL     OW25256  13.438  13.855   6.758
 7808SOL    HW125257  13.444  13.795   6.832
 7808SOL    HW225258  13.379  13.924   6.788
 7809SOL     OW25259   6.015   3.778   2.775
 7809SOL    HW125260   6.046   3.700   2.820
 7809SOL    HW225261   5.970   3.829   2.842
 7810SOL     OW25262   5.606   6.406   1.090
 7810SOL    HW125263   5.594   6.500   1.073
 7810SOL    HW225264   5.691   6.400   1.134
 7811SOL     OW25265  13.515  14.169  14.425
 7811SOL    HW125266  13.471  14.239  14.376
 7811SOL    HW225267  13.517  14.095  14.364
 7812SOL     OW25268   7.882   3.370   0.901
 7812SOL    HW125269   7.834   3.422   0.837
 7812SOL    HW225270   7.867   3.280   0.875
 7813SOL     OW25271   9.611  11.786   9.819
 7813SOL    HW125272   9.704  11.767   9.812
 7813SOL    HW225273   9.590  11.833   9.738
 7814SOL     OW25274   4.657   8.323   8.437
 7814SOL    HW125275   4.582   8.364   8.481
 7814SOL    HW225276   4.618   8.252   8.386
 7815SOL     OW25277   4.775  12.251   6.962
 7815SOL    HW125278   4.687  12.254   6.924
 7815SOL    HW225279   4.810  12.166   6.936
 7816SOL     OW25280  10.477   5.653  12.597
 7816SOL    HW125281  10.389   5.682  12.574
 7816SOL    HW225282  10.471   5.557  12.601
 7817SOL     OW25283   6.118   7.464  10.503
 7817SOL    HW125284   6.065   7.455  10.582
 7817SOL    HW225285   6.056   7.456  10.430
 7818SOL     OW25286  10.853   9.501   0.818
 7818SOL    HW125287  10.867   9.558   0.741
 7818SOL    HW225288  10.849   9.562   0.892
 7819SOL     OW25289   8.879  14.214  14.748
 7819SOL    HW125290   8.788  14.200  14.775
 7819SOL    HW225291   8.906  14.131  14.710
 7820SOL     OW25292  11.940  14.800   8.361
 7820SOL    HW125293  11.920   0.015   8.356
 7820SOL    HW225294  11.861  14.761   8.399
 7821SOL     OW25295  13.003  13.010   5.822
 7821SOL    HW125296  13.056  12.971   5.753
 7821SOL    HW225297  13.009  12.948   5.895
 7822SOL     OW25298  10.511   8.807   7.705
 7822SOL    HW125299  10.565   8.827   7.781
 7822SOL    HW225300  10.434   8.763   7.741
 7823SOL     OW25301   9.105  11.976   9.441
 7823SOL    HW125302   9.043  11.962   9.512
 7823SOL    HW225303   9.052  11.979   9.362
 7824SOL     OW25304   2.007   9.111  14.431
 7824SOL    HW125305   1.963   9.151  14.356
 7824SOL    HW225306   2.058   9.039  14.392
 7825SOL     OW25307   7.383   7.859   4.460
 7825SOL    HW125308   7.435   7.876   4.538
 7825SOL    HW225309   7.389   7.940   4.409
 7826SOL     OW25310   8.173   1.548   9.074
 7826SOL    HW125311   8.268   1.547   9.089
 7826SOL    HW225312   8.136   1.501   9.148
 7827SOL     OW25313   1.526  12.671   4.436
 7827SOL    HW125314   1.604  12.677   4.490
 7827SOL    HW225315   1.536  12.589   4.388
 7828SOL     OW25316   2.499   2.285  13.196
 7828SOL    HW125317   2.478   2.323  13.282
 7828SOL    HW225318   2.518   2.361  13.141
 7829SOL     OW25319   0.542   0.777   2.631
 7829SOL    HW125320   0.489   0.851   2.662
 7829SOL    HW225321   0.484   0.731   2.570
 7830SOL     OW25322   3.250   1.488  12.454
 7830SOL    HW125323   3.210   1.416  12.406
 7830SOL    HW225324   3.344   1.474  12.443
 7831SOL     OW25325   2.194  11.021  11.499
 7831SOL    HW125326   2.270  11.079  11.503
 7831SOL    HW225327   2.119  11.080  11.498
 7832SOL     OW25328   5.545   1.538   3.514
 7832SOL    HW125329   5.494   1.508   3.589
 7832SOL    HW225330   5.636   1.527   3.542
 7833SOL     OW25331   5.657  10.498  14.282
 7833SOL    HW125332   5.695  10.586  14.287
 7833SOL    HW225333   5.585  10.506  14.220
 7834SOL     OW25334   3.166   7.621   9.345
 7834SOL    HW125335   3.146   7.690   9.282
 7834SOL    HW225336   3.245   7.580   9.311
 7835SOL     OW25337  14.201   8.022   1.234
 7835SOL    HW125338  14.253   7.975   1.298
 7835SOL    HW225339  14.181   8.106   1.276
 7836SOL     OW25340  10.980  11.697   4.947
 7836SOL    HW125341  11.031  11.777   4.963
 7836SOL    HW225342  10.917  11.723   4.880
 7837SOL     OW25343   1.614   0.254  10.835
 7837SOL    HW125344   1.614   0.244  10.930
 7837SOL    HW225345   1.618   0.349  10.821
 7838SOL     OW25346   8.923   3.643   3.638
 7838SOL    HW125347   8.906   3.673   3.728
 7838SOL    HW225348   8.877   3.560   3.632
 7839SOL     OW25349  11.195  10.650   2.831
 7839SOL    HW125350  11.239  10.613   2.754
 7839SOL    HW225351  11.104  10.621   2.823
 7840SOL     OW25352   6.876   6.158  11.204
 7840SOL    HW125353   6.793   6.158  11.253
 7840SOL    HW225354   6.922   6.235  11.236
 7841SOL     OW25355   5.349  12.258   1.941
 7841SOL    HW125356   5.336  12.225   1.852
 7841SOL    HW225357   5.346  12.353   1.932
 7842SOL     OW25358  12.842   1.346  11.854
 7842SOL    HW125359  12.760   1.303  11.829
 7842SOL    HW225360  12.908   1.304  11.799
 7843SOL     OW25361  14.483   4.357  13.721
 7843SOL    HW125362  14.402   4.393  13.759
 7843SOL    HW225363  14.551   4.418  13.749
 7844SOL     OW25364   9.563  10.462  10.089
 7844SOL    HW125365   9.597  10.373  10.082
 7844SOL    HW225366   9.482  10.453  10.140
 7845SOL     OW25367   4.778  12.970  14.587
 7845SOL    HW125368   4.756  13.044  14.643
 7845SOL    HW225369   4.727  12.897  14.622
 7846SOL     OW25370  12.376   0.202  13.134
 7846SOL    HW125371  12.285   0.190  13.104
 7846SOL    HW225372  12.400   0.118  13.172
 7847SOL     OW25373  14.641  12.885  13.209
 7847SOL    HW125374  14.588  12.831  13.268
 7847SOL    HW225375  14.668  12.826  13.139
 7848SOL     OW25376  13.414   2.032  12.945
 7848SOL    HW125377  13.426   2.016  12.852
 7848SOL    HW225378  13.459   2.115  12.961
 7849SOL     OW25379   1.452   3.796   0.069
 7849SOL    HW125380   1.510   3.836   0.134
 7849SOL    HW225381   1.379   3.760   0.120
 7850SOL     OW25382   1.003  11.172   6.094
 7850SOL    HW125383   1.003  11.223   6.175
 7850SOL    HW225384   0.912  11.172   6.064
 7851SOL     OW25385  13.914  11.621   3.316
 7851SOL    HW125386  13.905  11.558   3.244
 7851SOL    HW225387  13.831  11.614   3.363
 7852SOL     OW25388   5.828   3.968   4.025
 7852SOL    HW125389   5.903   3.944   4.080
 7852SOL    HW225390   5.861   4.041   3.972
 7853SOL     OW25391  13.393   7.541   7.412
 7853SOL    HW125392  13.401   7.634   7.435
 7853SOL    HW225393  13.477   7.502   7.438
 7854SOL     OW25394   0.853   4.346   1.503
 7854SOL    HW125395   0.818   4.265   1.541
 7854SOL    HW225396   0.905   4.385   1.573
 7855SOL     OW25397  11.689   8.273  11.103
 7855SOL    HW125398  11.652   8.189  11.076
 7855SOL    HW225399  11.690   8.268  11.199
 7856SOL     OW25400   9.459  14.302  12.759
 7856SOL    HW125401   9.496  14.234  12.816
 7856SOL    HW225402   9.371  14.272  12.740
 7857SOL     OW25403   6.739   8.411   0.459
 7857SOL    HW125404   6.830   8.407   0.485
 7857SOL    HW225405   6.711   8.319   0.455
 7858SOL     OW25406  14.574   0.065  13.884
 7858SOL    HW125407  14.507   0.034  13.944
 7858SOL    HW225408  14.577   0.160  13.898
 7859SOL     OW25409   7.394   5.193  11.579
 7859SOL    HW125410   7.310   5.238  11.581
 7859SOL    HW225411   7.453   5.250  11.629
 7860SOL     OW25412  11.100   4.306   3.716
 7860SOL    HW125413  11.123   4.262   3.634
 7860SOL    HW225414  11.085   4.397   3.691
 7861SOL     OW25415  14.510   3.381   9.844
 7861SOL    HW125416  14.588   3.428   9.814
 7861SOL    HW225417  14.442   3.448   9.846
 7862SOL     OW25418   4.614  12.051   4.334
 7862SOL    HW125419   4.545  12.023   4.274
 7862SOL    HW225420   4.669  12.110   4.282
 7863SOL     OW25421  13.353   9.846  12.467
 7863SOL    HW125422  13.295   9.890  12.404
 7863SOL    HW225423  13.335   9.753  12.453
 7864SOL     OW25424   4.802   0.677  10.140
 7864SOL    HW125425   4.727   0.731  10.116
 7864SOL    HW225426   4.795   0.599  10.086
 7865SOL     OW25427  14.609   4.172   2.202
 7865SOL    HW125428  14.607   4.267   2.208
 7865SOL    HW225429  14.524   4.144   2.235
 7866SOL     OW25430  11.357   2.283  10.831
 7866SOL    HW125431  11.276   2.315  10.872
 7866SOL    HW225432  11.328   2.215  10.771
 7867SOL     OW25433   9.316   1.575   1.745
 7867SOL    HW125434   9.224   1.562   1.765
 7867SOL    HW225435   9.318   1.604   1.654
 7868SOL     OW25436  11.910  12.138   1.799
 7868SOL    HW125437  12.000  12.107   1.785
 7868SOL    HW225438  11.865  12.063   1.838
 7869SOL     OW25439   6.569   0.229   9.822
 7869SOL    HW125440   6.521   0.212   9.903
 7869SOL    HW225441   6.504   0.262   9.761
 7870SOL     OW25442   7.014   7.267   7.301
 7870SOL    HW125443   7.074   7.260   7.375
 7870SOL    HW225444   7.048   7.205   7.236
 7871SOL     OW25445  12.958  13.456   2.575
 7871SOL    HW125446  12.932  13.414   2.656
 7871SOL    HW225447  12.984  13.384   2.518
 7872SOL     OW25448   5.396   8.738  13.119
 7872SOL    HW125449   5.462   8.725  13.188
 7872SOL    HW225450   5.446   8.773  13.045
 7873SOL     OW25451   8.311   2.507   9.715
 7873SOL    HW125452   8.323   2.413   9.722
 7873SOL    HW225453   8.240   2.527   9.777
 7874SOL     OW25454   3.688   4.445   8.936
 7874SOL    HW125455   3.604   4.400   8.936
 7874SOL    HW225456   3.668   4.534   8.908
 7875SOL     OW25457  12.255   6.716   6.016
 7875SOL    HW125458  12.289   6.704   6.105
 7875SOL    HW225459  12.241   6.627   5.984
 7876SOL     OW25460  12.342  12.352   0.532
 7876SOL    HW125461  12.287  12.336   0.455
 7876SOL    HW225462  12.403  12.420   0.504
 7877SOL     OW25463   8.253  14.326   9.976
 7877SOL    HW125464   8.208  14.321  10.060
 7877SOL    HW225465   8.192  14.285   9.914
 7878SOL     OW25466   9.930   6.177   9.200
 7878SOL    HW125467   9.980   6.232   9.139
 7878SOL    HW225468   9.984   6.173   9.279
 7879SOL     OW25469   6.148  12.542   3.363
 7879SOL    HW125470   6.201  12.535   3.442
 7879SOL    HW225471   6.091  12.617   3.378
 7880SOL     OW25472  13.683   6.957   6.587
 7880SOL    HW125473  13.737   6.997   6.520
 7880SOL    HW225474  13.693   6.862   6.574
 7881SOL     OW25475   9.036   4.792   1.104
 7881SOL    HW125476   9.117   4.824   1.143
 7881SOL    HW225477   9.059   4.706   1.068
 7882SOL     OW25478   4.884  10.330   5.229
 7882SOL    HW125479   4.838  10.398   5.179
 7882SOL    HW225480   4.871  10.250   5.178
 7883SOL     OW25481  11.596  11.058   6.179
 7883SOL    HW125482  11.532  11.110   6.131
 7883SOL    HW225483  11.659  11.121   6.214
 7884SOL     OW25484   7.248   1.051   0.836
 7884SOL    HW125485   7.323   1.110   0.843
 7884SOL    HW225486   7.206   1.054   0.922
 7885SOL     OW25487   7.660  13.377   5.261
 7885SOL    HW125488   7.652  13.469   5.287
 7885SOL    HW225489   7.737  13.375   5.203
 7886SOL     OW25490   9.857   9.573   8.584
 7886SOL    HW125491   9.943   9.557   8.545
 7886SOL    HW225492   9.877   9.600   8.674
 7887SOL     OW25493   5.992  12.983   5.488
 7887SOL    HW125494   5.952  13.057   5.443
 7887SOL    HW225495   6.075  12.969   5.442
 7888SOL     OW25496  10.565   5.612   5.841
 7888SOL    HW125497  10.608   5.540   5.887
 7888SOL    HW225498  10.607   5.691   5.876
 7889SOL     OW25499   1.635  13.852   6.825
 7889SOL    HW125500   1.547  13.832   6.857
 7889SOL    HW225501   1.626  13.936   6.781
 7890SOL     OW25502  10.575   9.028   0.975
 7890SOL    HW125503  10.575   9.093   1.046
 7890SOL    HW225504  10.649   9.054   0.920
 7891SOL     OW25505   3.970   2.218   5.259
 7891SOL    HW125506   3.881   2.251   5.248
 7891SOL    HW225507   3.995   2.242   5.348
 7892SOL     OW25508  13.043   3.293  13.876
 7892SOL    HW125509  13.040   3.388  13.874
 7892SOL    HW225510  13.137   3.273  13.879
 7893SOL     OW25511   8.979  11.140   9.143
 7893SOL    HW125512   8.943  11.215   9.095
 7893SOL    HW225513   9.021  11.179   9.219
 7894SOL     OW25514   9.675   3.301  12.946
 7894SOL    HW125515   9.745   3.349  12.902
 7894SOL    HW225516   9.719   3.229  12.990
 7895SOL     OW25517   9.552  12.824  13.531
 7895SOL    HW125518   9.545  12.728  13.534
 7895SOL    HW225519   9.508  12.854  13.610
 7896SOL     OW25520   2.947   3.308  12.624
 7896SOL    HW125521   2.941   3.372  12.695
 7896SOL    HW225522   2.865   3.320  12.575
 7897SOL     OW25523  12.187   9.348   9.840
 7897SOL    HW125524  12.219   9.380   9.756
 7897SOL    HW225525  12.259   9.295   9.874
 7898SOL     OW25526   4.851  12.171  11.948
 7898SOL    HW125527   4.780  12.190  12.010
 7898SOL    HW225528   4.849  12.246  11.888
 7899SOL     OW25529  13.992   4.094   7.071
 7899SOL    HW125530  14.053   4.077   7.143
 7899SOL    HW225531  13.928   4.023   7.076
 7900SOL     OW25532   8.078   0.919  10.193
 7900SOL    HW125533   8.068   0.974  10.270
 7900SOL    HW225534   7.999   0.935  10.142
 7901SOL     OW25535   1.259   9.165   4.277
 7901SOL    HW125536   1.295   9.118   4.202
 7901SOL    HW225537   1.272   9.106   4.351
 7902SOL     OW25538   5.855  13.918  12.549
 7902SOL    HW125539   5.878  14.002  12.588
 7902SOL    HW225540   5.903  13.853  12.601
 7903SOL     OW25541   9.190  10.681   5.453
 7903SOL    HW125542   9.198  10.623   5.378
 7903SOL    HW225543   9.096  10.683   5.471
 7904SOL     OW25544   1.802  13.462  11.911
 7904SOL    HW125545   1.848  13.502  11.838
 7904SOL    HW225546   1.736  13.407  11.871
 7905SOL     OW25547   3.165   9.009   6.227
 7905SOL    HW125548   3.233   9.075   6.210
 7905SOL    HW225549   3.093   9.034   6.168
 7906SOL     OW25550   0.071  11.374   9.795
 7906SOL    HW125551   0.058  11.348   9.704
 7906SOL    HW225552   0.035  11.302   9.846
 7907SOL     OW25553  13.430   7.278   2.034
 7907SOL    HW125554  13.451   7.277   1.941
 7907SOL    HW225555  13.426   7.186   2.059
 7908SOL     OW25556  14.498   2.148   2.125
 7908SOL    HW125557  14.451   2.083   2.072
 7908SOL    HW225558  14.431   2.214   2.144
 7909SOL     OW25559   0.340  13.918   9.460
 7909SOL    HW125560   0.318  13.974   9.534
 7909SOL    HW225561   0.434  13.931   9.447
 7910SOL     OW25562   4.164   5.590   8.059
 7910SOL    HW125563   4.100   5.631   8.117
 7910SOL    HW225564   4.164   5.644   7.980
 7911SOL     OW25565   6.129  11.099   6.759
 7911SOL    HW125566   6.120  11.155   6.836
 7911SOL    HW225567   6.213  11.055   6.771
 7912SOL     OW25568  10.904  14.675  14.331
 7912SOL    HW125569  10.984  14.639  14.293
 7912SOL    HW225570  10.930  14.760  14.367
 7913SOL     OW25571   1.658  14.873  10.808
 7913SOL    HW125572   1.643   0.087  10.824
 7913SOL    HW225573   1.699  14.869  10.722
 7914SOL     OW25574   7.871   2.083  14.782
 7914SOL    HW125575   7.811   2.147  14.745
 7914SOL    HW225576   7.954   2.099  14.738
 7915SOL     OW25577   2.989   5.783  11.109
 7915SOL    HW125578   2.927   5.791  11.181
 7915SOL    HW225579   2.935   5.764  11.032
 7916SOL     OW25580  13.136   2.234   0.918
 7916SOL    HW125581  13.069   2.229   0.986
 7916SOL    HW225582  13.175   2.321   0.929
 7917SOL     OW25583   1.037   3.946  12.368
 7917SOL    HW125584   0.999   3.895  12.439
 7917SOL    HW225585   1.000   3.907  12.288
 7918SOL     OW25586   9.401   8.450   1.627
 7918SOL    HW125587   9.404   8.354   1.631
 7918SOL    HW225588   9.481   8.479   1.670
 7919SOL     OW25589   5.598   9.773   6.128
 7919SOL    HW125590   5.592   9.780   6.032
 7919SOL    HW225591   5.649   9.849   6.154
 7920SOL     OW25592  13.229   6.874  14.709
 7920SOL    HW125593  13.140   6.844  14.729
 7920SOL    HW225594  13.242   6.951  14.765
 7921SOL     OW25595   4.512   0.508   1.252
 7921SOL    HW125596   4.584   0.559   1.291
 7921SOL    HW225597   4.482   0.563   1.179
 7922SOL     OW25598  14.024  12.656   0.196
 7922SOL    HW125599  13.959  12.590   0.171
 7922SOL    HW225600  14.031  12.713   0.120
 7923SOL     OW25601   2.320   6.113   6.840
 7923SOL    HW125602   2.234   6.143   6.812
 7923SOL    HW225603   2.306   6.023   6.869
 7924SOL     OW25604   9.835   4.871  10.640
 7924SOL    HW125605   9.741   4.857  10.627
 7924SOL    HW225606   9.876   4.799  10.592
 7925SOL     OW25607  14.262  11.961  10.603
 7925SOL    HW125608  14.279  12.054  10.589
 7925SOL    HW225609  14.347  11.924  10.627
 7926SOL     OW25610  13.066  11.402   2.027
 7926SOL    HW125611  13.094  11.486   1.991
 7926SOL    HW225612  12.986  11.422   2.076
 7927SOL     OW25613  11.064   1.172  13.469
 7927SOL    HW125614  11.090   1.174  13.561
 7927SOL    HW225615  11.058   1.079  13.448
 7928SOL     OW25616   8.084   5.350   7.830
 7928SOL    HW125617   8.145   5.303   7.773
 7928SOL    HW225618   7.997   5.326   7.797
 7929SOL     OW25619   0.762   5.284  10.270
 7929SOL    HW125620   0.696   5.330  10.216
 7929SOL    HW225621   0.845   5.306  10.229
 7930SOL     OW25622  10.304   2.345   5.986
 7930SOL    HW125623  10.288   2.341   6.080
 7930SOL    HW225624  10.399   2.330   5.978
 7931SOL     OW25625   2.619   4.006  13.214
 7931SOL    HW125626   2.595   3.986  13.124
 7931SOL    HW225627   2.655   3.924  13.248
 7932SOL     OW25628  12.880   0.361   4.936
 7932SOL    HW125629  12.838   0.349   4.851
 7932SOL    HW225630  12.809   0.358   5.000
 7933SOL     OW25631   6.833   5.314   2.667
 7933SOL    HW125632   6.762   5.319   2.731
 7933SOL    HW225633   6.846   5.405   2.639
 7934SOL     OW25634   5.113   5.857   8.103
 7934SOL    HW125635   5.082   5.767   8.099
 7934SOL    HW225636   5.189   5.854   8.162
 7935SOL     OW25637   3.755  13.370   3.245
 7935SOL    HW125638   3.671  13.385   3.290
 7935SOL    HW225639   3.803  13.311   3.302
 7936SOL     OW25640  14.718   4.906   2.308
 7936SOL    HW125641  14.631   4.879   2.278
 7936SOL    HW225642  14.759   4.942   2.230
 7937SOL     OW25643   6.290  11.244  10.594
 7937SOL    HW125644   6.285  11.308  10.522
 7937SOL    HW225645   6.354  11.281  10.655
 7938SOL     OW25646   7.524   0.562   6.322
 7938SOL    HW125647   7.432   0.566   6.350
 7938SOL    HW225648   7.573   0.556   6.404
 7939SOL     OW25649  12.490   5.472   9.055
 7939SOL    HW125650  12.456   5.515   8.977
 7939SOL    HW225651  12.497   5.380   9.031
 7940SOL     OW25652   7.955   4.525  13.639
 7940SOL    HW125653   7.868   4.543  13.676
 7940SOL    HW225654   8.016   4.544  13.711
 7941SOL     OW25655   4.194   1.807  10.170
 7941SOL    HW125656   4.261   1.873  10.154
 7941SOL    HW225657   4.201   1.788  10.264
 7942SOL     OW25658   7.748   6.885  10.893
 7942SOL    HW125659   7.656   6.898  10.918
 7942SOL    HW225660   7.797   6.944  10.950
 7943SOL     OW25661   1.005   4.590  11.118
 7943SOL    HW125662   0.977   4.499  11.127
 7943SOL    HW225663   0.925   4.641  11.133
 7944SOL     OW25664   0.578   4.033   0.832
 7944SOL    HW125665   0.573   4.082   0.913
 7944SOL    HW225666   0.672   4.020   0.817
 7945SOL     OW25667  13.229  13.565   3.940
 7945SOL    HW125668  13.261  13.476   3.956
 7945SOL    HW225669  13.281  13.620   3.998
 7946SOL     OW25670   3.505   9.395   2.063
 7946SOL    HW125671   3.448   9.381   2.139
 7946SOL    HW225672   3.575   9.331   2.073
 7947SOL     OW25673   4.168   8.982   9.682
 7947SOL    HW125674   4.078   9.002   9.657
 7947SOL    HW225675   4.178   9.018   9.770
 7948SOL     OW25676   3.347   0.904   8.107
 7948SOL    HW125677   3.422   0.851   8.082
 7948SOL    HW225678   3.380   0.961   8.176
 7949SOL     OW25679  11.305  11.979   2.817
 7949SOL    HW125680  11.337  11.959   2.729
 7949SOL    HW225681  11.327  11.902   2.869
 7950SOL     OW25682   3.435   0.953  12.090
 7950SOL    HW125683   3.397   0.917  12.170
 7950SOL    HW225684   3.493   0.884  12.059
 7951SOL     OW25685   7.304   4.453   7.234
 7951SOL    HW125686   7.395   4.479   7.244
 7951SOL    HW225687   7.305   4.358   7.242
 7952SOL     OW25688   5.565   8.911   9.981
 7952SOL    HW125689   5.649   8.926   9.938
 7952SOL    HW225690   5.501   8.911   9.910
 7953SOL     OW25691   6.168   0.820   2.541
 7953SOL    HW125692   6.194   0.832   2.450
 7953SOL    HW225693   6.118   0.738   2.541
 7954SOL     OW25694  14.483  13.104   9.719
 7954SOL    HW125695  14.502  13.187   9.675
 7954SOL    HW225696  14.566  13.056   9.718
 7955SOL     OW25697   1.104  10.618   5.241
 7955SOL    HW125698   1.122  10.638   5.334
 7955SOL    HW225699   1.070  10.700   5.206
 7956SOL     OW25700   5.080  14.553  11.347
 7956SOL    HW125701   5.162  14.505  11.358
 7956SOL    HW225702   5.064  14.594  11.432
 7957SOL     OW25703   3.844  10.318  13.729
 7957SOL    HW125704   3.786  10.393  13.718
 7957SOL    HW225705   3.930  10.357  13.743
 7958SOL     OW25706   4.342   9.236   3.398
 7958SOL    HW125707   4.332   9.186   3.479
 7958SOL    HW225708   4.275   9.304   3.403
 7959SOL     OW25709  10.971   9.237  14.659
 7959SOL    HW125710  10.883   9.274  14.650
 7959SOL    HW225711  10.999   9.219  14.569
 7960SOL     OW25712   1.555   0.286   8.360
 7960SOL    HW125713   1.582   0.201   8.326
 7960SOL    HW225714   1.573   0.281   8.454
 7961SOL     OW25715   3.909   4.808  10.297
 7961SOL    HW125716   3.938   4.878  10.239
 7961SOL    HW225717   3.825   4.838  10.331
 7962SOL     OW25718  10.093  13.288   1.961
 7962SOL    HW125719  10.106  13.194   1.950
 7962SOL    HW225720  10.122  13.307   2.050
 7963SOL     OW25721  14.565   7.229  10.516
 7963SOL    HW125722  14.514   7.305  10.488
 7963SOL    HW225723  14.598   7.253  10.602
 7964SOL     OW25724  12.866   4.955   7.419
 7964SOL    HW125725  12.787   4.901   7.416
 7964SOL    HW225726  12.934   4.900   7.378
 7965SOL     OW25727   7.874   5.856   2.068
 7965SOL    HW125728   7.952   5.825   2.114
 7965SOL    HW225729   7.899   5.859   1.976
 7966SOL     OW25730  14.241   5.116   2.209
 7966SOL    HW125731  14.249   5.212   2.204
 7966SOL    HW225732  14.197   5.101   2.293
 7967SOL     OW25733   7.627  10.764   0.475
 7967SOL    HW125734   7.647  10.857   0.465
 7967SOL    HW225735   7.676  10.721   0.404
 7968SOL     OW25736  10.490  10.305   6.750
 7968SOL    HW125737  10.580  10.279   6.733
 7968SOL    HW225738  10.439  10.224   6.741
 7969SOL     OW25739   0.060  12.149  11.165
 7969SOL    HW125740   0.036  12.168  11.075
 7969SOL    HW225741   0.137  12.204  11.182
 7970SOL     OW25742  12.907   6.002   2.956
 7970SOL    HW125743  12.875   6.037   3.040
 7970SOL    HW225744  13.002   6.008   2.964
 7971SOL     OW25745   7.410   2.946   3.570
 7971SOL    HW125746   7.455   2.927   3.488
 7971SOL    HW225747   7.402   2.862   3.614
 7972SOL     OW25748  13.629  13.821   6.175
 7972SOL    HW125749  13.668  13.876   6.107
 7972SOL    HW225750  13.621  13.735   6.135
 7973SOL     OW25751   6.747   2.134   3.071
 7973SOL    HW125752   6.807   2.109   3.142
 7973SOL    HW225753   6.674   2.073   3.079
 7974SOL     OW25754   6.169   7.503   2.137
 7974SOL    HW125755   6.215   7.442   2.080
 7974SOL    HW225756   6.080   7.467   2.144
 7975SOL     OW25757  10.024   3.843   8.811
 7975SOL    HW125758   9.950   3.792   8.846
 7975SOL    HW225759   9.995   3.870   8.724
 7976SOL     OW25760  11.965  13.876   8.041
 7976SOL    HW125761  11.947  13.863   7.947
 7976SOL    HW225762  11.992  13.789   8.072
 7977SOL     OW25763  10.834   3.473   1.111
 7977SOL    HW125764  10.870   3.527   1.181
 7977SOL    HW225765  10.858   3.384   1.135
 7978SOL     OW25766   1.856   4.064   0.886
 7978SOL    HW125767   1.905   4.104   0.814
 7978SOL    HW225768   1.765   4.067   0.856
 7979SOL     OW25769   7.661   7.992   7.278
 7979SOL    HW125770   7.683   8.085   7.287
 7979SOL    HW225771   7.613   7.972   7.358
 7980SOL     OW25772  12.276   8.269   6.471
 7980SOL    HW125773  12.269   8.325   6.548
 7980SOL    HW225774  12.368   8.240   6.471
 7981SOL     OW25775  13.627  13.121   8.882
 7981SOL    HW125776  13.716  13.145   8.906
 7981SOL    HW225777  13.598  13.061   8.951
 7982SOL     OW25778   8.506   6.144  12.113
 7982SOL    HW125779   8.543   6.130  12.200
 7982SOL    HW225780   8.414   6.165  12.129
 7983SOL     OW25781   0.974  11.207   2.218
 7983SOL    HW125782   1.070  11.209   2.221
 7983SOL    HW225783   0.949  11.299   2.209
 7984SOL     OW25784   2.710  14.467  12.430
 7984SOL    HW125785   2.792  14.511  12.452
 7984SOL    HW225786   2.646  14.505  12.490
 7985SOL     OW25787   0.251  11.120   8.662
 7985SOL    HW125788   0.327  11.065   8.681
 7985SOL    HW225789   0.177  11.069   8.693
 7986SOL     OW25790   5.998  12.453  11.190
 7986SOL    HW125791   6.081  12.408  11.203
 7986SOL    HW225792   6.018  12.545  11.206
 7987SOL     OW25793   0.744   1.356   5.359
 7987SOL    HW125794   0.777   1.300   5.429
 7987SOL    HW225795   0.754   1.445   5.393
 7988SOL     OW25796  11.888   2.707   6.835
 7988SOL    HW125797  11.964   2.731   6.783
 7988SOL    HW225798  11.882   2.776   6.902
 7989SOL     OW25799  11.806   7.993   0.445
 7989SOL    HW125800  11.826   7.909   0.404
 7989SOL    HW225801  11.843   8.058   0.386
 7990SOL     OW25802   9.431   9.440  10.910
 7990SOL    HW125803   9.446   9.371  10.847
 7990SOL    HW225804   9.516   9.453  10.953
 7991SOL     OW25805   1.522  13.364   4.745
 7991SOL    HW125806   1.512  13.457   4.765
 7991SOL    HW225807   1.465  13.320   4.809
 7992SOL     OW25808   5.971  11.210  11.822
 7992SOL    HW125809   5.950  11.145  11.755
 7992SOL    HW225810   5.894  11.267  11.824
 7993SOL     OW25811  12.519   7.465  11.736
 7993SOL    HW125812  12.512   7.558  11.754
 7993SOL    HW225813  12.583   7.458  11.665
 7994SOL     OW25814   9.674  10.097   6.703
 7994SOL    HW125815   9.593  10.102   6.755
 7994SOL    HW225816   9.715  10.182   6.716
 7995SOL     OW25817   2.111   2.359   8.523
 7995SOL    HW125818   2.038   2.298   8.513
 7995SOL    HW225819   2.119   2.371   8.617
 7996SOL     OW25820   2.289   4.610  11.108
 7996SOL    HW125821   2.208   4.639  11.065
 7996SOL    HW225822   2.337   4.562  11.040
 7997SOL     OW25823   4.190   6.846   9.440
 7997SOL    HW125824   4.236   6.930   9.446
 7997SOL    HW225825   4.243   6.786   9.492
 7998SOL     OW25826  12.328   7.052  10.791
 7998SOL    HW125827  12.400   7.007  10.747
 7998SOL    HW225828  12.296   7.115  10.727
 7999SOL     OW25829   9.166  10.810  11.101
 7999SOL    HW125830   9.167  10.802  11.197
 7999SOL    HW225831   9.197  10.726  11.069
 8000SOL     OW25832   8.510   6.846   8.793
 8000SOL    HW125833   8.536   6.898   8.717
 8000SOL    HW225834   8.416   6.833   8.781
 8001SOL     OW25835  13.816   2.138   2.012
 8001SOL    HW125836  13.734   2.134   2.061
 8001SOL    HW225837  13.858   2.054   2.028
 8002SOL     OW25838  14.336   1.720   5.213
 8002SOL    HW125839  14.303   1.630   5.213
 8002SOL    HW225840  14.395   1.724   5.288
 8003SOL     OW25841   5.412  14.744   3.500
 8003SOL    HW125842   5.424  14.678   3.569
 8003SOL    HW225843   5.432  14.698   3.419
 8004SOL     OW25844   6.668  12.559  14.041
 8004SOL    HW125845   6.586  12.512  14.025
 8004SOL    HW225846   6.728  12.525  13.974
 8005SOL     OW25847  12.443   5.487   6.724
 8005SOL    HW125848  12.523   5.443   6.754
 8005SOL    HW225849  12.474   5.567   6.682
 8006SOL     OW25850   1.037   0.651   3.625
 8006SOL    HW125851   1.077   0.618   3.706
 8006SOL    HW225852   0.943   0.638   3.638
 8007SOL     OW25853   7.903   0.525  12.547
 8007SOL    HW125854   7.952   0.606  12.533
 8007SOL    HW225855   7.812   0.548  12.528
 8008SOL     OW25856   6.708  14.289   3.160
 8008SOL    HW125857   6.753  14.362   3.117
 8008SOL    HW225858   6.648  14.255   3.093
 8009SOL     OW25859   7.144   4.520   1.364
 8009SOL    HW125860   7.229   4.496   1.399
 8009SOL    HW225861   7.082   4.495   1.433
 8010SOL     OW25862   5.334  10.037  10.775
 8010SOL    HW125863   5.351   9.963  10.834
 8010SOL    HW225864   5.324   9.997  10.689
 8011SOL     OW25865   8.250   8.229  14.768
 8011SOL    HW125866   8.314   8.181  14.821
 8011SOL    HW225867   8.287   8.230  14.680
 8012SOL     OW25868   1.739  10.721  12.805
 8012SOL    HW125869   1.813  10.689  12.754
 8012SOL    HW225870   1.711  10.801  12.759
 8013SOL     OW25871   3.530  10.322   5.657
 8013SOL    HW125872   3.553  10.386   5.590
 8013SOL    HW225873   3.436  10.334   5.670
 8014SOL     OW25874  10.821   0.481   2.623
 8014SOL    HW125875  10.795   0.520   2.539
 8014SOL    HW225876  10.884   0.542   2.660
 8015SOL     OW25877   5.378   6.461   5.607
 8015SOL    HW125878   5.462   6.419   5.590
 8015SOL    HW225879   5.314   6.403   5.564
 8016SOL     OW25880   2.540  14.123   2.811
 8016SOL    HW125881   2.514  14.037   2.777
 8016SOL    HW225882   2.473  14.143   2.877
 8017SOL     OW25883   1.501  12.915   7.805
 8017SOL    HW125884   1.407  12.897   7.807
 8017SOL    HW225885   1.521  12.926   7.712
 8018SOL     OW25886   7.672  14.519   0.394
 8018SOL    HW125887   7.631  14.595   0.436
 8018SOL    HW225888   7.619  14.504   0.316
 8019SOL     OW25889  12.025   6.611   0.652
 8019SOL    HW125890  12.089   6.552   0.613
 8019SOL    HW225891  11.957   6.621   0.584
 8020SOL     OW25892  11.159   5.559  10.423
 8020SOL    HW125893  11.206   5.503  10.360
 8020SOL    HW225894  11.226   5.590  10.483
 8021SOL     OW25895   9.491  11.422   2.800
 8021SOL    HW125896   9.571  11.455   2.839
 8021SOL    HW225897   9.455  11.362   2.866
 8022SOL     OW25898   9.264   7.555   2.464
 8022SOL    HW125899   9.207   7.478   2.466
 8022SOL    HW225900   9.352   7.520   2.464
 8023SOL     OW25901  13.541  10.731  12.156
 8023SOL    HW125902  13.563  10.715  12.248
 8023SOL    HW225903  13.446  10.743  12.156
 8024SOL     OW25904   5.781   5.721   7.104
 8024SOL    HW125905   5.865   5.722   7.059
 8024SOL    HW225906   5.716   5.727   7.035
 8025SOL     OW25907  10.807   7.370   3.522
 8025SOL    HW125908  10.825   7.328   3.438
 8025SOL    HW225909  10.827   7.304   3.588
 8026SOL     OW25910   4.758   7.494   7.319
 8026SOL    HW125911   4.674   7.529   7.349
 8026SOL    HW225912   4.767   7.410   7.363
 8027SOL     OW25913   8.607   7.562  13.440
 8027SOL    HW125914   8.552   7.629  13.399
 8027SOL    HW225915   8.576   7.479  13.403
 8028SOL     OW25916   9.052   4.994   6.916
 8028SOL    HW125917   9.013   5.078   6.938
 8028SOL    HW225918   8.981   4.931   6.922
 8029SOL     OW25919   5.530   3.657   6.529
 8029SOL    HW125920   5.618   3.681   6.556
 8029SOL    HW225921   5.541   3.619   6.441
 8030SOL     OW25922   9.077  10.461   8.848
 8030SOL    HW125923   9.083  10.376   8.806
 8030SOL    HW225924   9.104  10.523   8.780
 8031SOL     OW25925  11.382   1.188  12.897
 8031SOL    HW125926  11.311   1.196  12.960
 8031SOL    HW225927  11.353   1.239  12.821
 8032SOL     OW25928   4.860  11.710   7.640
 8032SOL    HW125929   4.829  11.636   7.693
 8032SOL    HW225930   4.955  11.698   7.636
 8033SOL     OW25931   4.917   1.126   7.257
 8033SOL    HW125932   4.920   1.109   7.351
 8033SOL    HW225933   4.876   1.212   7.249
 8034SOL     OW25934  12.578   9.987   9.694
 8034SOL    HW125935  12.485   9.994   9.674
 8034SOL    HW225936  12.622  10.000   9.609
 8035SOL     OW25937   2.718  11.496  13.203
 8035SOL    HW125938   2.707  11.500  13.298
 8035SOL    HW225939   2.803  11.537  13.188
 8036SOL     OW25940   4.009   9.518   7.002
 8036SOL    HW125941   4.095   9.484   7.029
 8036SOL    HW225942   3.992   9.476   6.918
 8037SOL     OW25943   1.201   1.808   9.483
 8037SOL    HW125944   1.112   1.779   9.506
 8037SOL    HW225945   1.205   1.799   9.388
 8038SOL     OW25946   0.585  13.967   4.282
 8038SOL    HW125947   0.574  14.060   4.300
 8038SOL    HW225948   0.679  13.957   4.265
 8039SOL     OW25949  12.444   3.477  12.943
 8039SOL    HW125950  12.478   3.493  13.031
 8039SOL    HW225951  12.462   3.385  12.927
 8040SOL     OW25952   5.734  12.717   6.638
 8040SOL    HW125953   5.790  12.646   6.670
 8040SOL    HW225954   5.649  12.699   6.678
 8041SOL     OW25955  11.037   6.452  11.605
 8041SOL    HW125956  10.958   6.437  11.657
 8041SOL    HW225957  11.085   6.369  11.612
 8042SOL     OW25958   9.579   9.813  11.824
 8042SOL    HW125959   9.580   9.878  11.893
 8042SOL    HW225960   9.560   9.862  11.744
 8043SOL     OW25961   1.844  13.728   3.114
 8043SOL    HW125962   1.833  13.647   3.164
 8043SOL    HW225963   1.795  13.793   3.164
 8044SOL     OW25964   1.744   1.335   1.008
 8044SOL    HW125965   1.686   1.346   1.083
 8044SOL    HW225966   1.708   1.391   0.940
 8045SOL     OW25967   0.607  13.957  13.752
 8045SOL    HW125968   0.647  13.973  13.667
 8045SOL    HW225969   0.678  13.925  13.807
 8046SOL     OW25970  10.681   5.202   0.522
 8046SOL    HW125971  10.598   5.225   0.564
 8046SOL    HW225972  10.676   5.241   0.435
 8047SOL     OW25973   5.007  11.389  12.978
 8047SOL    HW125974   4.983  11.304  13.015
 8047SOL    HW225975   4.937  11.408  12.916
 8048SOL     OW25976   5.332   2.389   5.164
 8048SOL    HW125977   5.328   2.357   5.254
 8048SOL    HW225978   5.387   2.467   5.169
 8049SOL     OW25979  11.144  11.805   0.735
 8049SOL    HW125980  11.126  11.848   0.651
 8049SOL    HW225981  11.060  11.806   0.781
 8050SOL     OW25982   1.787   5.066  11.309
 8050SOL    HW125983   1.780   5.161  11.298
 8050SOL    HW225984   1.700   5.033  11.289
 8051SOL     OW25985   6.313   6.950   7.880
 8051SOL    HW125986   6.229   6.914   7.909
 8051SOL    HW225987   6.378   6.885   7.906
 8052SOL     OW25988   9.778  13.036  11.614
 8052SOL    HW125989   9.833  12.966  11.647
 8052SOL    HW225990   9.809  13.050  11.524
 8053SOL     OW25991   8.706  11.007  10.886
 8053SOL    HW125992   8.746  11.075  10.939
 8053SOL    HW225993   8.779  10.957  10.851
 8054SOL     OW25994   2.539   8.409   0.829
 8054SOL    HW125995   2.543   8.358   0.748
 8054SOL    HW225996   2.464   8.372   0.877
 8055SOL     OW25997   9.138   8.390   2.379
 8055SOL    HW125998   9.233   8.381   2.381
 8055SOL    HW225999   9.122   8.467   2.325
 8056SOL     OW26000   5.575  13.816   7.883
 8056SOL    HW126001   5.519  13.840   7.809
 8056SOL    HW226002   5.569  13.720   7.887
 8057SOL     OW26003   4.088   5.094  12.924
 8057SOL    HW126004   4.024   5.066  12.859
 8057SOL    HW226005   4.123   5.176  12.889
 8058SOL     OW26006  14.659   6.933   9.117
 8058SOL    HW126007  14.576   6.952   9.072
 8058SOL    HW226008  14.635   6.928   9.210
 8059SOL     OW26009  12.999  12.129   5.619
 8059SOL    HW126010  12.907  12.107   5.632
 8059SOL    HW226011  13.001  12.177   5.536
 8060SOL     OW26012   2.683   9.732   8.549
 8060SOL    HW126013   2.639   9.805   8.592
 8060SOL    HW226014   2.611   9.676   8.518
 8061SOL     OW26015   2.172   8.665   4.908
 8061SOL    HW126016   2.200   8.748   4.947
 8061SOL    HW226017   2.222   8.598   4.954
 8062SOL     OW26018   3.780   4.138   6.031
 8062SOL    HW126019   3.707   4.082   6.055
 8062SOL    HW226020   3.749   4.190   5.957
 8063SOL     OW26021  14.067  13.518   5.497
 8063SOL    HW126022  14.156  13.485   5.484
 8063SOL    HW226023  14.029  13.459   5.563
 8064SOL     OW26024  10.639  11.225   1.512
 8064SOL    HW126025  10.626  11.224   1.417
 8064SOL    HW226026  10.590  11.302   1.542
 8065SOL     OW26027  14.616  11.607  10.945
 8065SOL    HW126028  14.644  11.569  11.028
 8065SOL    HW226029  14.601  11.532  10.888
 8066SOL     OW26030   1.472   4.902  12.288
 8066SOL    HW126031   1.511   4.815  12.278
 8066SOL    HW226032   1.386   4.895  12.245
 8067SOL     OW26033   4.827   6.361   5.155
 8067SOL    HW126034   4.867   6.422   5.093
 8067SOL    HW226035   4.797   6.416   5.227
 8068SOL     OW26036   8.079  13.471   6.806
 8068SOL    HW126037   8.113  13.554   6.839
 8068SOL    HW226038   8.133  13.452   6.729
 8069SOL     OW26039   1.375  11.856   2.841
 8069SOL    HW126040   1.386  11.852   2.936
 8069SOL    HW226041   1.281  11.842   2.827
 8070SOL     OW26042   0.898  13.783  12.965
 8070SOL    HW126043   0.850  13.748  13.040
 8070SOL    HW226044   0.841  13.853  12.931
 8071SOL     OW26045   8.884   5.719   6.015
 8071SOL    HW126046   8.964   5.758   5.983
 8071SOL    HW226047   8.825   5.717   5.940
 8072SOL     OW26048   0.190  12.653   5.463
 8072SOL    HW126049   0.164  12.635   5.372
 8072SOL    HW226050   0.119  12.708   5.497
 8073SOL     OW26051  14.383   2.852  14.158
 8073SOL    HW126052  14.474   2.834  14.180
 8073SOL    HW226053  14.357   2.923  14.216
 8074SOL     OW26054   6.524  12.344   0.176
 8074SOL    HW126055   6.515  12.306   0.088
 8074SOL    HW226056   6.516  12.438   0.162
 8075SOL     OW26057   8.538   5.433   7.674
 8075SOL    HW126058   8.527   5.338   7.667
 8075SOL    HW226059   8.630   5.446   7.694
 8076SOL     OW26060  11.410   1.146  14.354
 8076SOL    HW126061  11.428   1.175  14.265
 8076SOL    HW226062  11.398   1.227  14.404
 8077SOL     OW26063   4.750  13.417   8.684
 8077SOL    HW126064   4.823  13.389   8.628
 8077SOL    HW226065   4.671  13.390   8.636
 8078SOL     OW26066  14.060  13.518   0.599
 8078SOL    HW126067  14.112  13.454   0.551
 8078SOL    HW226068  14.080  13.601   0.556
 8079SOL     OW26069   7.916   9.766   6.136
 8079SOL    HW126070   7.917   9.823   6.059
 8079SOL    HW226071   7.871   9.817   6.203
 8080SOL     OW26072   3.477  14.650  14.549
 8080SOL    HW126073   3.512  14.697  14.625
 8080SOL    HW226074   3.555  14.615  14.505
 8081SOL     OW26075  14.441  10.284   5.230
 8081SOL    HW126076  14.357  10.302   5.271
 8081SOL    HW226077  14.501  10.271   5.303
 8082SOL     OW26078  13.485   0.072  11.662
 8082SOL    HW126079  13.431   0.138  11.618
 8082SOL    HW226080  13.528   0.025  11.590
 8083SOL     OW26081  11.878  10.510   6.473
 8083SOL    HW126082  11.943  10.496   6.403
 8083SOL    HW226083  11.894  10.439   6.535
 8084SOL     OW26084   0.901  12.485  13.262
 8084SOL    HW126085   0.894  12.478  13.358
 8084SOL    HW226086   0.989  12.454  13.242
 8085SOL     OW26087  13.649   5.835  10.760
 8085SOL    HW126088  13.699   5.875  10.832
 8085SOL    HW226089  13.670   5.889  10.684
 8086SOL     OW26090  13.380   6.764  13.434
 8086SOL    HW126091  13.329   6.713  13.497
 8086SOL    HW226092  13.446   6.808  13.486
 8087SOL     OW26093   6.039   2.243   5.335
 8087SOL    HW126094   6.050   2.334   5.363
 8087SOL    HW226095   6.122   2.201   5.357
 8088SOL     OW26096  14.519   9.124  10.883
 8088SOL    HW126097  14.485   9.134  10.794
 8088SOL    HW226098  14.610   9.153  10.877
 8089SOL     OW26099   3.363   3.738   3.251
 8089SOL    HW126100   3.448   3.707   3.283
 8089SOL    HW226101   3.372   3.833   3.250
 8090SOL     OW26102   7.329  12.575   2.535
 8090SOL    HW126103   7.286  12.493   2.509
 8090SOL    HW226104   7.410  12.577   2.483
 8091SOL     OW26105  14.296   8.010   9.453
 8091SOL    HW126106  14.336   8.006   9.367
 8091SOL    HW226107  14.325   7.931   9.497
 8092SOL     OW26108   4.066   6.320  11.992
 8092SOL    HW126109   4.023   6.276  12.066
 8092SOL    HW226110   4.000   6.319  11.923
 8093SOL     OW26111   7.115   2.975   1.021
 8093SOL    HW126112   7.137   2.889   0.984
 8093SOL    HW226113   7.127   2.964   1.115
 8094SOL     OW26114   5.949  14.086   0.636
 8094SOL    HW126115   5.855  14.082   0.618
 8094SOL    HW226116   5.965  14.178   0.658
 8095SOL     OW26117   8.414   7.463  10.107
 8095SOL    HW126118   8.347   7.490  10.044
 8095SOL    HW226119   8.365   7.417  10.176
 8096SOL     OW26120   7.946   9.257   7.940
 8096SOL    HW126121   7.922   9.283   8.029
 8096SOL    HW226122   7.863   9.231   7.899
 8097SOL     OW26123   6.376  10.620   7.878
 8097SOL    HW126124   6.388  10.629   7.972
 8097SOL    HW226125   6.419  10.538   7.856
 8098SOL     OW26126   2.702  12.925   2.020
 8098SOL    HW126127   2.645  12.856   2.055
 8098SOL    HW226128   2.643  12.998   2.001
 8099SOL     OW26129  14.796   3.054   3.160
 8099SOL    HW126130  14.806   3.140   3.200
 8099SOL    HW226131  14.758   3.000   3.230
 8100SOL     OW26132   8.360   9.879  14.480
 8100SOL    HW126133   8.318   9.804  14.523
 8100SOL    HW226134   8.429   9.840  14.426
 8101SOL     OW26135   4.521   5.601   1.452
 8101SOL    HW126136   4.568   5.684   1.453
 8101SOL    HW226137   4.590   5.535   1.442
 8102SOL     OW26138   8.477   2.407  14.299
 8102SOL    HW126139   8.461   2.363  14.383
 8102SOL    HW226140   8.422   2.485  14.302
 8103SOL     OW26141  13.651  12.463   0.210
 8103SOL    HW126142  13.710  12.523   0.256
 8103SOL    HW226143  13.704  12.385   0.194
 8104SOL     OW26144  14.125  14.465   0.606
 8104SOL    HW126145  14.085  14.396   0.554
 8104SOL    HW226146  14.056  14.491   0.668
 8105SOL     OW26147   4.293  11.881  11.193
 8105SOL    HW126148   4.330  11.895  11.280
 8105SOL    HW226149   4.200  11.904  11.203
 8106SOL     OW26150   1.678   1.698  13.638
 8106SOL    HW126151   1.583   1.699  13.649
 8106SOL    HW226152   1.696   1.621  13.585
 8107SOL     OW26153   5.565   8.243   6.835
 8107SOL    HW126154   5.646   8.211   6.795
 8107SOL    HW226155   5.536   8.312   6.776
 8108SOL     OW26156   3.181   1.525   1.972
 8108SOL    HW126157   3.127   1.456   2.012
 8108SOL    HW226158   3.120   1.573   1.915
 8109SOL     OW26159   2.835   1.460  13.911
 8109SOL    HW126160   2.818   1.546  13.949
 8109SOL    HW226161   2.898   1.477  13.841
 8110SOL     OW26162   2.242   9.592   9.080
 8110SOL    HW126163   2.338   9.585   9.082
 8110SOL    HW226164   2.223   9.674   9.126
 8111SOL     OW26165  13.423  14.806   8.166
 8111SOL    HW126166  13.366  14.735   8.196
 8111SOL    HW226167  13.449  14.780   8.078
 8112SOL     OW26168   4.264   7.874   9.989
 8112SOL    HW126169   4.274   7.813  10.062
 8112SOL    HW226170   4.210   7.827   9.925
 8113SOL     OW26171   6.748   3.465   9.473
 8113SOL    HW126172   6.757   3.435   9.383
 8113SOL    HW226173   6.818   3.419   9.520
 8114SOL     OW26174   2.883   5.474  13.197
 8114SOL    HW126175   2.904   5.399  13.252
 8114SOL    HW226176   2.932   5.547  13.236
 8115SOL     OW26177   6.674   5.558   5.349
 8115SOL    HW126178   6.757   5.567   5.302
 8115SOL    HW226179   6.647   5.468   5.332
 8116SOL     OW26180  12.904  10.073   0.433
 8116SOL    HW126181  12.881  10.000   0.376
 8116SOL    HW226182  12.961  10.035   0.500
 8117SOL     OW26183   5.520   0.117  11.864
 8117SOL    HW126184   5.536   0.026  11.891
 8117SOL    HW226185   5.562   0.170  11.932
 8118SOL     OW26186   3.357   4.764   7.961
 8118SOL    HW126187   3.408   4.751   7.881
 8118SOL    HW226188   3.379   4.689   8.016
 8119SOL     OW26189  10.702   4.085   8.372
 8119SOL    HW126190  10.632   4.040   8.326
 8119SOL    HW226191  10.705   4.043   8.458
 8120SOL     OW26192  13.655   2.356   6.604
 8120SOL    HW126193  13.690   2.288   6.547
 8120SOL    HW226194  13.590   2.311   6.658
 8121SOL     OW26195   3.128   4.541   9.578
 8121SOL    HW126196   3.150   4.536   9.485
 8121SOL    HW226197   3.038   4.510   9.583
 8122SOL     OW26198  11.851  12.428  12.347
 8122SOL    HW126199  11.854  12.501  12.409
 8122SOL    HW226200  11.796  12.363  12.390
 8123SOL     OW26201   2.142  14.048  12.807
 8123SOL    HW126202   2.101  14.022  12.724
 8123SOL    HW226203   2.236  14.038  12.791
 8124SOL     OW26204  11.464   9.570   0.596
 8124SOL    HW126205  11.552   9.536   0.613
 8124SOL    HW226206  11.426   9.510   0.532
 8125SOL     OW26207   9.807   2.727  13.229
 8125SOL    HW126208   9.798   2.785  13.153
 8125SOL    HW226209   9.752   2.652  13.208
 8126SOL     OW26210   7.104   7.467  14.241
 8126SOL    HW126211   7.132   7.379  14.268
 8126SOL    HW226212   7.180   7.522  14.258
 8127SOL     OW26213  10.160   4.555  14.492
 8127SOL    HW126214  10.250   4.572  14.519
 8127SOL    HW226215  10.115   4.529  14.572
 8128SOL     OW26216   1.395  10.083  10.931
 8128SOL    HW126217   1.483  10.073  10.968
 8128SOL    HW226218   1.395  10.024  10.855
 8129SOL     OW26219   7.429   1.224   0.527
 8129SOL    HW126220   7.420   1.136   0.491
 8129SOL    HW226221   7.523   1.241   0.526
 8130SOL     OW26222   6.064  13.571   4.691
 8130SOL    HW126223   6.040  13.484   4.724
 8130SOL    HW226224   6.113  13.611   4.763
 8131SOL     OW26225   5.836   3.299   6.349
 8131SOL    HW126226   5.789   3.264   6.273
 8131SOL    HW226227   5.857   3.223   6.402
 8132SOL     OW26228   6.071   4.098   5.289
 8132SOL    HW126229   5.987   4.099   5.334
 8132SOL    HW226230   6.050   4.119   5.198
 8133SOL     OW26231  14.246  14.142  11.020
 8133SOL    HW126232  14.290  14.122  11.103
 8133SOL    HW226233  14.154  14.153  11.045
 8134SOL     OW26234   9.486   6.763   6.937
 8134SOL    HW126235   9.421   6.834   6.935
 8134SOL    HW226236   9.496   6.737   6.846
 8135SOL     OW26237  12.795   8.641   3.292
 8135SOL    HW126238  12.831   8.568   3.341
 8135SOL    HW226239  12.704   8.616   3.274
 8136SOL     OW26240   5.778   5.528   3.975
 8136SOL    HW126241   5.768   5.612   4.019
 8136SOL    HW226242   5.787   5.465   4.047
 8137SOL     OW26243   2.466  11.949   2.088
 8137SOL    HW126244   2.443  11.912   2.003
 8137SOL    HW226245   2.393  12.007   2.110
 8138SOL     OW26246   0.842   9.856   5.457
 8138SOL    HW126247   0.902   9.884   5.526
 8138SOL    HW226248   0.787   9.790   5.499
 8139SOL     OW26249   2.738  12.291   4.252
 8139SOL    HW126250   2.649  12.319   4.273
 8139SOL    HW226251   2.793  12.361   4.286
 8140SOL     OW26252  10.171   2.209   5.226
 8140SOL    HW126253  10.123   2.185   5.305
 8140SOL    HW226254  10.164   2.133   5.169
 8141SOL     OW26255   9.811   6.799   7.920
 8141SOL    HW126256   9.873   6.783   7.849
 8141SOL    HW226257   9.726   6.776   7.882
 8142SOL     OW26258   9.898  14.551   1.478
 8142SOL    HW126259   9.962  14.598   1.423
 8142SOL    HW226260   9.826  14.613   1.489
 8143SOL     OW26261   9.565   9.855  14.086
 8143SOL    HW126262   9.556   9.778  14.030
 8143SOL    HW226263   9.655   9.884  14.073
 8144SOL     OW26264   4.957   5.959   0.569
 8144SOL    HW126265   4.953   5.967   0.664
 8144SOL    HW226266   5.039   6.000   0.544
 8145SOL     OW26267  11.003  11.707   1.838
 8145SOL    HW126268  10.953  11.632   1.870
 8145SOL    HW226269  10.941  11.780   1.841
 8146SOL     OW26270   0.624   4.886  10.751
 8146SOL    HW126271   0.579   4.966  10.777
 8146SOL    HW226272   0.717   4.909  10.755
 8147SOL     OW26273  11.185   9.853  13.597
 8147SOL    HW126274  11.099   9.894  13.603
 8147SOL    HW226275  11.183   9.804  13.515
 8148SOL     OW26276   2.811   9.155  11.996
 8148SOL    HW126277   2.865   9.117  11.927
 8148SOL    HW226278   2.827   9.249  11.990
 8149SOL     OW26279   8.025   3.093   7.995
 8149SOL    HW126280   8.019   3.049   8.080
 8149SOL    HW226281   8.116   3.125   7.991
 8150SOL     OW26282   4.180   7.653   4.148
 8150SOL    HW126283   4.091   7.645   4.115
 8150SOL    HW226284   4.218   7.566   4.138
 8151SOL     OW26285   6.478   0.586   9.699
 8151SOL    HW126286   6.409   0.569   9.763
 8151SOL    HW226287   6.441   0.654   9.642
 8152SOL     OW26288   2.285   4.938   5.984
 8152SOL    HW126289   2.276   4.884   6.062
 8152SOL    HW226290   2.379   4.954   5.975
 8153SOL     OW26291   5.202   6.309   5.492
 8153SOL    HW126292   5.211   6.232   5.548
 8153SOL    HW226293   5.160   6.276   5.412
 8154SOL     OW26294   6.242  13.499   0.904
 8154SOL    HW126295   6.262  13.467   0.816
 8154SOL    HW226296   6.147  13.505   0.907
 8155SOL     OW26297   5.967   6.878  11.942
 8155SOL    HW126298   5.895   6.895  12.003
 8155SOL    HW226299   6.002   6.965  11.922
 8156SOL     OW26300   3.434   8.649   5.402
 8156SOL    HW126301   3.520   8.640   5.443
 8156SOL    HW226302   3.424   8.743   5.390
 8157SOL     OW26303   1.763  13.564   8.253
 8157SOL    HW126304   1.828  13.494   8.260
 8157SOL    HW226305   1.686  13.530   8.299
 8158SOL     OW26306  12.006  12.493  13.462
 8158SOL    HW126307  12.032  12.584  13.463
 8158SOL    HW226308  12.088  12.444  13.453
 8159SOL     OW26309   9.041   0.799   5.523
 8159SOL    HW126310   9.126   0.775   5.559
 8159SOL    HW226311   9.046   0.894   5.510
 8160SOL     OW26312   5.437  10.889   6.135
 8160SOL    HW126313   5.421  10.802   6.098
 8160SOL    HW226314   5.458  10.944   6.059
 8161SOL     OW26315   5.558   9.704   2.016
 8161SOL    HW126316   5.631   9.762   1.993
 8161SOL    HW226317   5.545   9.649   1.938
 8162SOL     OW26318  14.172   0.589  14.081
 8162SOL    HW126319  14.116   0.512  14.071
 8162SOL    HW226320  14.137   0.653  14.018
 8163SOL     OW26321  12.802   4.182   1.414
 8163SOL    HW126322  12.852   4.101   1.418
 8163SOL    HW226323  12.778   4.201   1.504
 8164SOL     OW26324  13.298  11.531   0.201
 8164SOL    HW126325  13.229  11.588   0.167
 8164SOL    HW226326  13.266  11.502   0.287
 8165SOL     OW26327   2.008   5.048   5.940
 8165SOL    HW126328   1.983   5.015   5.853
 8165SOL    HW226329   2.096   5.015   5.953
 8166SOL     OW26330   7.871   3.372   9.607
 8166SOL    HW126331   7.821   3.292   9.591
 8166SOL    HW226332   7.883   3.375   9.702
 8167SOL     OW26333   0.150   4.149  12.794
 8167SOL    HW126334   0.132   4.238  12.762
 8167SOL    HW226335   0.187   4.162  12.881
 8168SOL     OW26336   1.442  11.775  10.710
 8168SOL    HW126337   1.376  11.716  10.747
 8168SOL    HW226338   1.409  11.863  10.728
 8169SOL     OW26339  11.011  13.745  13.367
 8169SOL    HW126340  11.070  13.777  13.435
 8169SOL    HW226341  11.035  13.653  13.356
 8170SOL     OW26342   6.765  11.652  12.922
 8170SOL    HW126343   6.739  11.563  12.901
 8170SOL    HW226344   6.861  11.650  12.919
 8171SOL     OW26345   4.248   2.098   2.969
 8171SOL    HW126346   4.260   2.078   3.062
 8171SOL    HW226347   4.169   2.153   2.967
 8172SOL     OW26348  14.556   8.472   5.911
 8172SOL    HW126349  14.526   8.401   5.853
 8172SOL    HW226350  14.651   8.469   5.904
 8173SOL     OW26351  13.043   3.944   2.327
 8173SOL    HW126352  13.074   3.867   2.279
 8173SOL    HW226353  13.008   3.908   2.408
 8174SOL     OW26354   4.708   8.944  13.294
 8174SOL    HW126355   4.764   8.927  13.218
 8174SOL    HW226356   4.681   8.857  13.323
 8175SOL     OW26357  14.687  10.585   2.766
 8175SOL    HW126358  14.754  10.650   2.743
 8175SOL    HW226359  14.697  10.516   2.700
 8176SOL     OW26360  13.833   9.759   0.816
 8176SOL    HW126361  13.903   9.812   0.854
 8176SOL    HW226362  13.790   9.817   0.753
 8177SOL     OW26363   3.465   8.423  12.708
 8177SOL    HW126364   3.516   8.484  12.762
 8177SOL    HW226365   3.519   8.344  12.704
 8178SOL     OW26366   4.752  14.795   0.808
 8178SOL    HW126367   4.813  14.805   0.881
 8178SOL    HW226368   4.680  14.856   0.828
 8179SOL     OW26369   3.063   1.427   0.494
 8179SOL    HW126370   3.014   1.354   0.531
 8179SOL    HW226371   3.002   1.501   0.496
 8180SOL     OW26372   4.784  10.354  11.257
 8180SOL    HW126373   4.733  10.435  11.254
 8180SOL    HW226374   4.870  10.379  11.223
 8181SOL     OW26375  10.546   1.137   3.188
 8181SOL    HW126376  10.492   1.059   3.201
 8181SOL    HW226377  10.620   1.126   3.247
 8182SOL     OW26378   1.787  14.164  12.700
 8182SOL    HW126379   1.776  14.187  12.792
 8182SOL    HW226380   1.760  14.242  12.651
 8183SOL     OW26381  14.230   4.118   0.575
 8183SOL    HW126382  14.268   4.135   0.661
 8183SOL    HW226383  14.222   4.204   0.535
 8184SOL     OW26384   7.651   2.475  12.040
 8184SOL    HW126385   7.742   2.486  12.066
 8184SOL    HW226386   7.616   2.564  12.037
 8185SOL     OW26387   5.717   9.167  10.390
 8185SOL    HW126388   5.721   9.077  10.422
 8185SOL    HW226389   5.690   9.159  10.299
 8186SOL     OW26390   4.573  10.862   1.793
 8186SOL    HW126391   4.599  10.949   1.823
 8186SOL    HW226392   4.585  10.864   1.698
 8187SOL     OW26393   0.054   8.578   6.854
 8187SOL    HW126394   0.108   8.551   6.928
 8187SOL    HW226395  14.850   8.604   6.893
 8188SOL     OW26396   3.015   6.708  11.287
 8188SOL    HW126397   3.090   6.651  11.269
 8188SOL    HW226398   2.996   6.695  11.380
 8189SOL     OW26399   1.503   4.283   6.212
 8189SOL    HW126400   1.517   4.355   6.273
 8189SOL    HW226401   1.434   4.230   6.251
 8190SOL     OW26402   1.902   7.892   4.674
 8190SOL    HW126403   1.876   7.857   4.759
 8190SOL    HW226404   1.916   7.814   4.620
 8191SOL     OW26405  10.121   7.365  13.557
 8191SOL    HW126406  10.053   7.336  13.496
 8191SOL    HW226407  10.114   7.460  13.558
 8192SOL     OW26408   6.646   3.509   2.655
 8192SOL    HW126409   6.655   3.448   2.582
 8192SOL    HW226410   6.729   3.505   2.701
 8193SOL     OW26411   2.257   9.334   8.933
 8193SOL    HW126412   2.171   9.297   8.914
 8193SOL    HW226413   2.238   9.416   8.979
 8194SOL     OW26414   3.926   2.874  14.729
 8194SOL    HW126415   3.930   2.970  14.724
 8194SOL    HW226416   3.832   2.855  14.740
 8195SOL     OW26417   7.404   3.641   5.724
 8195SOL    HW126418   7.362   3.557   5.743
 8195SOL    HW226419   7.418   3.640   5.629
 8196SOL     OW26420   2.312   5.253   1.750
 8196SOL    HW126421   2.314   5.267   1.655
 8196SOL    HW226422   2.404   5.248   1.775
 8197SOL     OW26423   4.000   9.869   7.653
 8197SOL    HW126424   4.012   9.805   7.583
 8197SOL    HW226425   4.069   9.934   7.638
 8198SOL     OW26426   6.175   6.201   0.522
 8198SOL    HW126427   6.195   6.292   0.545
 8198SOL    HW226428   6.238   6.149   0.572
 8199SOL     OW26429   8.489   3.288  14.691
 8199SOL    HW126430   8.467   3.195  14.699
 8199SOL    HW226431   8.514   3.314  14.780
 8200SOL     OW26432   0.166   0.274   4.721
 8200SOL    HW126433   0.243   0.258   4.666
 8200SOL    HW226434   0.103   0.208   4.693
 8201SOL     OW26435   1.256   6.217   5.622
 8201SOL    HW126436   1.314   6.254   5.689
 8201SOL    HW226437   1.170   6.215   5.663
 8202SOL     OW26438   4.630   8.179  13.341
 8202SOL    HW126439   4.720   8.198  13.318
 8202SOL    HW226440   4.635   8.109  13.406
 8203SOL     OW26441   7.953   6.008   9.965
 8203SOL    HW126442   7.950   6.103   9.976
 8203SOL    HW226443   8.006   5.994   9.887
 8204SOL     OW26444  13.761   5.189  11.481
 8204SOL    HW126445  13.840   5.214  11.434
 8204SOL    HW226446  13.724   5.271  11.512
 8205SOL     OW26447   0.952  14.614  12.093
 8205SOL    HW126448   1.041  14.581  12.095
 8205SOL    HW226449   0.943  14.655  12.007
 8206SOL     OW26450   5.722   4.765   9.093
 8206SOL    HW126451   5.690   4.827   9.158
 8206SOL    HW226452   5.773   4.701   9.143
 8207SOL     OW26453  13.006   6.825  12.993
 8207SOL    HW126454  13.012   6.919  12.973
 8207SOL    HW226455  13.091   6.790  12.966
 8208SOL     OW26456   2.818   2.007  10.415
 8208SOL    HW126457   2.824   2.099  10.390
 8208SOL    HW226458   2.812   2.010  10.511
 8209SOL     OW26459   3.883   3.923  13.647
 8209SOL    HW126460   3.868   3.930  13.742
 8209SOL    HW226461   3.926   3.839  13.635
 8210SOL     OW26462   2.927   3.630  14.047
 8210SOL    HW126463   2.843   3.677  14.046
 8210SOL    HW226464   2.930   3.589  14.133
 8211SOL     OW26465   0.242  11.748  12.025
 8211SOL    HW126466   0.320  11.701  11.997
 8211SOL    HW226467   0.201  11.689  12.089
 8212SOL     OW26468   8.202   0.175   7.412
 8212SOL    HW126469   8.281   0.191   7.464
 8212SOL    HW226470   8.210   0.085   7.382
 8213SOL     OW26471   7.491   4.589   7.793
 8213SOL    HW126472   7.461   4.585   7.884
 8213SOL    HW226473   7.463   4.676   7.763
 8214SOL     OW26474   9.230   2.897   7.467
 8214SOL    HW126475   9.280   2.940   7.397
 8214SOL    HW226476   9.249   2.948   7.545
 8215SOL     OW26477  14.123  10.808   1.124
 8215SOL    HW126478  14.045  10.769   1.085
 8215SOL    HW226479  14.142  10.753   1.200
 8216SOL     OW26480   5.205  10.570   6.207
 8216SOL    HW126481   5.223  10.484   6.245
 8216SOL    HW226482   5.278  10.585   6.147
 8217SOL     OW26483   4.349  12.822  10.480
 8217SOL    HW126484   4.308  12.904  10.509
 8217SOL    HW226485   4.283  12.755  10.497
 8218SOL     OW26486  14.654   9.726   0.374
 8218SOL    HW126487  14.733   9.770   0.342
 8218SOL    HW226488  14.687   9.648   0.419
 8219SOL     OW26489  12.585  13.515   6.171
 8219SOL    HW126490  12.523  13.495   6.101
 8219SOL    HW226491  12.558  13.602   6.202
 8220SOL     OW26492   8.872   8.503   9.929
 8220SOL    HW126493   8.927   8.426   9.921
 8220SOL    HW226494   8.790   8.471   9.967
 8221SOL     OW26495   2.721   1.538   0.829
 8221SOL    HW126496   2.684   1.596   0.762
 8221SOL    HW226497   2.814   1.532   0.806
 8222SOL     OW26498   1.913  10.650  11.022
 8222SOL    HW126499   1.994  10.642  11.072
 8222SOL    HW226500   1.941  10.686  10.937
 8223SOL     OW26501   9.431   0.402  14.128
 8223SOL    HW126502   9.517   0.386  14.167
 8223SOL    HW226503   9.370   0.348  14.179
 8224SOL     OW26504   9.774   1.599   5.435
 8224SOL    HW126505   9.683   1.629   5.431
 8224SOL    HW226506   9.815   1.638   5.358
 8225SOL     OW26507   8.300  14.254  10.744
 8225SOL    HW126508   8.306  14.266  10.650
 8225SOL    HW226509   8.388  14.227  10.771
 8226SOL     OW26510   3.423   0.254  10.366
 8226SOL    HW126511   3.475   0.322  10.322
 8226SOL    HW226512   3.469   0.172  10.346
 8227SOL     OW26513  14.096   2.661  13.540
 8227SOL    HW126514  14.184   2.698  13.536
 8227SOL    HW226515  14.042   2.722  13.489
 8228SOL     OW26516   9.310  13.226  10.093
 8228SOL    HW126517   9.261  13.188  10.165
 8228SOL    HW226518   9.292  13.320  10.099
 8229SOL     OW26519   7.763  14.215   5.144
 8229SOL    HW126520   7.761  14.308   5.125
 8229SOL    HW226521   7.709  14.175   5.076
 8230SOL     OW26522  11.626  12.684   6.364
 8230SOL    HW126523  11.650  12.712   6.452
 8230SOL    HW226524  11.630  12.588   6.367
 8231SOL     OW26525   6.181   8.874  13.804
 8231SOL    HW126526   6.211   8.803  13.860
 8231SOL    HW226527   6.261   8.923  13.783
 8232SOL     OW26528   3.071   2.346  12.502
 8232SOL    HW126529   3.049   2.254  12.485
 8232SOL    HW226530   3.108   2.346  12.590
 8233SOL     OW26531   5.444   3.529   7.790
 8233SOL    HW126532   5.462   3.609   7.841
 8233SOL    HW226533   5.442   3.559   7.699
 8234SOL     OW26534  10.931  14.804   8.393
 8234SOL    HW126535  11.027  14.798   8.397
 8234SOL    HW226536  10.904  14.818   8.484
 8235SOL     OW26537   7.169   4.988  10.766
 8235SOL    HW126538   7.149   5.075  10.800
 8235SOL    HW226539   7.264   4.986  10.759
 8236SOL     OW26540  10.871   1.767  13.773
 8236SOL    HW126541  10.841   1.739  13.686
 8236SOL    HW226542  10.966   1.768  13.766
 8237SOL     OW26543  14.611   1.431  12.478
 8237SOL    HW126544  14.695   1.442  12.522
 8237SOL    HW226545  14.633   1.401  12.390
 8238SOL     OW26546  12.507   5.586  13.437
 8238SOL    HW126547  12.466   5.637  13.507
 8238SOL    HW226548  12.588   5.634  13.417
 8239SOL     OW26549  14.574  14.575   1.811
 8239SOL    HW126550  14.617  14.490   1.823
 8239SOL    HW226551  14.534  14.595   1.895
 8240SOL     OW26552   8.201   3.330   1.461
 8240SOL    HW126553   8.133   3.375   1.511
 8240SOL    HW226554   8.260   3.292   1.526
 8241SOL     OW26555  11.300  13.335  11.326
 8241SOL    HW126556  11.247  13.257  11.341
 8241SOL    HW226557  11.241  13.408  11.344
 8242SOL     OW26558   3.833   4.436   0.700
 8242SOL    HW126559   3.801   4.499   0.635
 8242SOL    HW226560   3.926   4.457   0.710
 8243SOL     OW26561   4.829   6.154  13.947
 8243SOL    HW126562   4.750   6.171  13.896
 8243SOL    HW226563   4.876   6.237  13.948
 8244SOL     OW26564   4.852   3.532  13.173
 8244SOL    HW126565   4.797   3.556  13.247
 8244SOL    HW226566   4.791   3.524  13.099
 8245SOL     OW26567   3.540   7.838  10.178
 8245SOL    HW126568   3.546   7.933  10.177
 8245SOL    HW226569   3.615   7.810  10.231
 8246SOL     OW26570   9.016  10.728  13.831
 8246SOL    HW126571   9.004  10.683  13.915
 8246SOL    HW226572   8.996  10.661  13.766
 8247SOL     OW26573   6.602   0.320   2.394
 8247SOL    HW126574   6.531   0.359   2.445
 8247SOL    HW226575   6.570   0.233   2.371
 8248SOL     OW26576   2.506   2.593   4.479
 8248SOL    HW126577   2.481   2.562   4.392
 8248SOL    HW226578   2.434   2.651   4.505
 8249SOL     OW26579  12.652  14.852  12.029
 8249SOL    HW126580  12.700  14.772  12.008
 8249SOL    HW226581  12.563  14.822  12.048
 8250SOL     OW26582   5.731   1.504   8.935
 8250SOL    HW126583   5.671   1.449   8.885
 8250SOL    HW226584   5.675   1.573   8.972
 8251SOL     OW26585  10.981  12.099   7.446
 8251SOL    HW126586  10.903  12.050   7.418
 8251SOL    HW226587  10.969  12.186   7.407
 8252SOL     OW26588   1.462  11.446   2.809
 8252SOL    HW126589   1.422  11.408   2.887
 8252SOL    HW226590   1.408  11.414   2.736
 8253SOL     OW26591   5.777  13.377  14.690
 8253SOL    HW126592   5.835  13.411  14.759
 8253SOL    HW226593   5.836  13.354  14.619
 8254SOL     OW26594   4.417   1.599  10.160
 8254SOL    HW126595   4.371   1.674  10.197
 8254SOL    HW226596   4.469   1.636  10.088
 8255SOL     OW26597  12.936   7.398  13.112
 8255SOL    HW126598  13.029   7.418  13.113
 8255SOL    HW226599  12.896   7.469  13.062
 8256SOL     OW26600  14.448   0.157  12.118
 8256SOL    HW126601  14.423   0.112  12.037
 8256SOL    HW226602  14.392   0.235  12.119
 8257SOL     OW26603   8.500  11.957  10.110
 8257SOL    HW126604   8.441  11.887  10.137
 8257SOL    HW226605   8.477  11.974  10.018
 8258SOL     OW26606  10.940   8.761  13.664
 8258SOL    HW126607  10.966   8.670  13.652
 8258SOL    HW226608  11.019   8.811  13.644
 8259SOL     OW26609   5.508   4.820  13.660
 8259SOL    HW126610   5.470   4.887  13.716
 8259SOL    HW226611   5.511   4.742  13.715
 8260SOL     OW26612   1.346  10.446  10.957
 8260SOL    HW126613   1.318  10.370  11.008
 8260SOL    HW226614   1.303  10.521  10.999
 8261SOL     OW26615  12.544   3.252   7.228
 8261SOL    HW126616  12.563   3.160   7.249
 8261SOL    HW226617  12.628   3.287   7.198
 8262SOL     OW26618   9.931   0.150   5.811
 8262SOL    HW126619   9.980   0.231   5.794
 8262SOL    HW226620   9.904   0.158   5.902
 8263SOL     OW26621  10.189   3.023  14.075
 8263SOL    HW126622  10.179   3.073  13.994
 8263SOL    HW226623  10.259   2.961  14.056
 8264SOL     OW26624  13.415   7.703   9.632
 8264SOL    HW126625  13.495   7.652   9.616
 8264SOL    HW226626  13.441   7.769   9.695
 8265SOL     OW26627   6.022   7.341   1.602
 8265SOL    HW126628   6.113   7.339   1.573
 8265SOL    HW226629   6.026   7.382   1.689
 8266SOL     OW26630  13.571   3.440   3.039
 8266SOL    HW126631  13.490   3.424   2.990
 8266SOL    HW226632  13.639   3.441   2.972
 8267SOL     OW26633   6.074  10.101   4.051
 8267SOL    HW126634   6.010  10.141   4.110
 8267SOL    HW226635   6.037  10.115   3.964
 8268SOL     OW26636   0.929   4.385  12.801
 8268SOL    HW126637   0.877   4.345  12.871
 8268SOL    HW226638   0.903   4.339  12.721
 8269SOL     OW26639  10.564  10.632   2.803
 8269SOL    HW126640  10.619  10.587   2.868
 8269SOL    HW226641  10.563  10.572   2.728
 8270SOL     OW26642   8.968  13.296  10.174
 8270SOL    HW126643   8.984  13.360  10.106
 8270SOL    HW226644   8.883  13.319  10.211
 8271SOL     OW26645   2.712   4.684   7.125
 8271SOL    HW126646   2.802   4.654   7.115
 8271SOL    HW226647   2.692   4.728   7.042
 8272SOL     OW26648  14.056  14.753   2.500
 8272SOL    HW126649  14.102  14.817   2.555
 8272SOL    HW226650  14.107  14.673   2.509
 8273SOL     OW26651   0.757   6.897   2.083
 8273SOL    HW126652   0.769   6.861   1.995
 8273SOL    HW226653   0.782   6.826   2.142
 8274SOL     OW26654   8.377  13.066   3.493
 8274SOL    HW126655   8.396  12.984   3.447
 8274SOL    HW226656   8.282  13.066   3.504
 8275SOL     OW26657   0.722   1.900   2.756
 8275SOL    HW126658   0.680   1.971   2.804
 8275SOL    HW226659   0.791   1.868   2.815
 8276SOL     OW26660  12.584  13.690   9.588
 8276SOL    HW126661  12.545  13.776   9.576
 8276SOL    HW226662  12.569  13.645   9.504
 8277SOL     OW26663  13.025   7.180   3.409
 8277SOL    HW126664  12.933   7.198   3.390
 8277SOL    HW226665  13.067   7.266   3.407
 8278SOL     OW26666  13.226   7.530   9.944
 8278SOL    HW126667  13.174   7.553  10.021
 8278SOL    HW226668  13.164   7.487   9.885
 8279SOL     OW26669   3.376   7.570  13.024
 8279SOL    HW126670   3.437   7.557  12.952
 8279SOL    HW226671   3.412   7.518  13.096
 8280SOL     OW26672  13.567   3.058   8.566
 8280SOL    HW126673  13.567   2.994   8.638
 8280SOL    HW226674  13.562   3.004   8.487
 8281SOL     OW26675   3.600   6.308   4.156
 8281SOL    HW126676   3.532   6.306   4.222
 8281SOL    HW226677   3.669   6.251   4.190
 8282SOL     OW26678   6.364   8.885  12.301
 8282SOL    HW126679   6.319   8.941  12.365
 8282SOL    HW226680   6.312   8.805  12.298
 8283SOL     OW26681   8.674  13.868   2.878
 8283SOL    HW126682   8.752  13.821   2.908
 8283SOL    HW226683   8.709  13.939   2.824
 8284SOL     OW26684  11.562  11.648   8.497
 8284SOL    HW126685  11.652  11.655   8.464
 8284SOL    HW226686  11.571  11.652   8.592
 8285SOL     OW26687   6.574   4.490   4.268
 8285SOL    HW126688   6.643   4.425   4.278
 8285SOL    HW226689   6.492   4.441   4.276
 8286SOL     OW26690   8.190  10.231   2.077
 8286SOL    HW126691   8.238  10.254   1.998
 8286SOL    HW226692   8.101  10.260   2.061
 8287SOL     OW26693   8.643   7.067  12.439
 8287SOL    HW126694   8.703   6.994  12.429
 8287SOL    HW226695   8.556   7.026  12.444
 8288SOL     OW26696   2.970   4.540  10.912
 8288SOL    HW126697   2.915   4.557  10.835
 8288SOL    HW226698   2.987   4.446  10.909
 8289SOL     OW26699   5.514   8.832  11.109
 8289SOL    HW126700   5.538   8.924  11.117
 8289SOL    HW226701   5.460   8.827  11.030
 8290SOL     OW26702   7.200   7.718  14.550
 8290SOL    HW126703   7.280   7.762  14.577
 8290SOL    HW226704   7.225   7.625  14.545
 8291SOL     OW26705  11.697   9.370   1.497
 8291SOL    HW126706  11.678   9.287   1.541
 8291SOL    HW226707  11.792   9.376   1.497
 8292SOL     OW26708   8.481   2.789   7.269
 8292SOL    HW126709   8.471   2.694   7.267
 8292SOL    HW226710   8.556   2.804   7.327
 8293SOL     OW26711  13.968   6.151   1.471
 8293SOL    HW126712  13.977   6.087   1.400
 8293SOL    HW226713  13.908   6.109   1.533
 8294SOL     OW26714   6.118  13.793  10.696
 8294SOL    HW126715   6.038  13.829  10.657
 8294SOL    HW226716   6.174  13.772  10.622
 8295SOL     OW26717  11.140   4.992   0.351
 8295SOL    HW126718  11.214   5.031   0.398
 8295SOL    HW226719  11.163   4.899   0.345
 8296SOL     OW26720  12.974   4.496  13.440
 8296SOL    HW126721  12.908   4.427  13.433
 8296SOL    HW226722  12.998   4.515  13.350
 8297SOL     OW26723   1.126   3.768  10.895
 8297SOL    HW126724   1.175   3.745  10.816
 8297SOL    HW226725   1.148   3.859  10.912
 8298SOL     OW26726   4.280   6.749  13.429
 8298SOL    HW126727   4.342   6.698  13.479
 8298SOL    HW226728   4.310   6.840  13.439
 8299SOL     OW26729   6.204  13.790   6.829
 8299SOL    HW126730   6.122  13.840   6.831
 8299SOL    HW226731   6.255  13.830   6.760
 8300SOL     OW26732   2.531   1.424   1.624
 8300SOL    HW126733   2.583   1.344   1.625
 8300SOL    HW226734   2.552   1.466   1.541
 8301SOL     OW26735   9.312  10.286   5.989
 8301SOL    HW126736   9.362  10.219   5.942
 8301SOL    HW226737   9.244  10.312   5.927
 8302SOL     OW26738   5.570   0.281  10.740
 8302SOL    HW126739   5.605   0.309  10.655
 8302SOL    HW226740   5.596   0.190  10.748
 8303SOL     OW26741   7.153   9.325  14.139
 8303SOL    HW126742   7.110   9.295  14.219
 8303SOL    HW226743   7.187   9.246  14.098
 8304SOL     OW26744   4.701   5.407   1.363
 8304SOL    HW126745   4.689   5.424   1.269
 8304SOL    HW226746   4.781   5.455   1.385
 8305SOL     OW26747   5.001   3.049   8.011
 8305SOL    HW126748   4.920   2.998   8.004
 8305SOL    HW226749   5.020   3.076   7.921
 8306SOL     OW26750   1.336  11.342   3.034
 8306SOL    HW126751   1.243  11.363   3.038
 8306SOL    HW226752   1.339  11.252   3.000
 8307SOL     OW26753   7.939   3.697   5.105
 8307SOL    HW126754   7.944   3.691   5.201
 8307SOL    HW226755   7.846   3.705   5.086
 8308SOL     OW26756  11.692  14.546  12.494
 8308SOL    HW126757  11.712  14.639  12.506
 8308SOL    HW226758  11.735  14.522  12.412
 8309SOL     OW26759   9.907   1.584   6.422
 8309SOL    HW126760  10.000   1.607   6.422
 8309SOL    HW226761   9.865   1.659   6.379
 8310SOL     OW26762   7.345  12.643   0.739
 8310SOL    HW126763   7.399  12.661   0.662
 8310SOL    HW226764   7.313  12.554   0.727
 8311SOL     OW26765   2.081  14.433   5.287
 8311SOL    HW126766   2.130  14.452   5.208
 8311SOL    HW226767   2.039  14.516   5.311
 8312SOL     OW26768   8.463   9.593   8.184
 8312SOL    HW126769   8.533   9.585   8.249
 8312SOL    HW226770   8.388   9.550   8.224
 8313SOL     OW26771   8.199   3.801   5.477
 8313SOL    HW126772   8.179   3.806   5.384
 8313SOL    HW226773   8.233   3.712   5.491
 8314SOL     OW26774   0.786   6.614   9.789
 8314SOL    HW126775   0.751   6.582   9.706
 8314SOL    HW226776   0.744   6.699   9.801
 8315SOL     OW26777   2.263   7.866  13.659
 8315SOL    HW126778   2.203   7.817  13.714
 8315SOL    HW226779   2.247   7.833  13.571
 8316SOL     OW26780  11.451  12.646   4.971
 8316SOL    HW126781  11.387  12.678   4.908
 8316SOL    HW226782  11.523  12.613   4.918
 8317SOL     OW26783   7.283  13.733   6.266
 8317SOL    HW126784   7.253  13.823   6.254
 8317SOL    HW226785   7.227  13.698   6.336
 8318SOL     OW26786  13.029   6.755   6.496
 8318SOL    HW126787  12.960   6.770   6.430
 8318SOL    HW226788  13.103   6.807   6.465
 8319SOL     OW26789  12.685   2.705  14.792
 8319SOL    HW126790  12.672   2.644  14.865
 8319SOL    HW226791  12.750   2.768  14.824
 8320SOL     OW26792   9.456   2.428   1.680
 8320SOL    HW126793   9.542   2.414   1.719
 8320SOL    HW226794   9.453   2.521   1.660
 8321SOL     OW26795  11.798   5.588   1.850
 8321SOL    HW126796  11.877   5.610   1.899
 8321SOL    HW226797  11.830   5.549   1.769
 8322SOL     OW26798  11.380   5.734  11.058
 8322SOL    HW126799  11.462   5.733  11.009
 8322SOL    HW226800  11.320   5.784  11.003
 8323SOL     OW26801  11.195   2.661   6.484
 8323SOL    HW126802  11.231   2.572   6.488
 8323SOL    HW226803  11.253   2.713   6.539
 8324SOL     OW26804   6.197   0.127  14.386
 8324SOL    HW126805   6.243   0.179  14.320
 8324SOL    HW226806   6.259   0.119  14.458
 8325SOL     OW26807   0.743  12.493  10.750
 8325SOL    HW126808   0.664  12.450  10.781
 8325SOL    HW226809   0.800  12.422  10.722
 8326SOL     OW26810   1.346  14.553   5.113
 8326SOL    HW126811   1.421  14.518   5.161
 8326SOL    HW226812   1.328  14.637   5.155
 8327SOL     OW26813   0.902   9.287   7.608
 8327SOL    HW126814   0.905   9.212   7.549
 8327SOL    HW226815   0.837   9.345   7.571
 8328SOL     OW26816  10.069   8.163   5.455
 8328SOL    HW126817  10.132   8.231   5.478
 8328SOL    HW226818  10.022   8.199   5.379
 8329SOL     OW26819   8.616   6.884  10.107
 8329SOL    HW126820   8.603   6.891  10.013
 8329SOL    HW226821   8.707   6.911  10.121
 8330SOL     OW26822  12.188  12.253   4.434
 8330SOL    HW126823  12.256  12.308   4.395
 8330SOL    HW226824  12.157  12.198   4.361
 8331SOL     OW26825  11.819   7.028  14.798
 8331SOL    HW126826  11.769   7.062  14.724
 8331SOL    HW226827  11.905   7.007  14.762
 8332SOL     OW26828   7.148   6.043   0.295
 8332SOL    HW126829   7.225   6.017   0.245
 8332SOL    HW226830   7.089   6.081   0.230
 8333SOL     OW26831   1.846   5.305  12.740
 8333SOL    HW126832   1.923   5.248  12.741
 8333SOL    HW226833   1.779   5.254  12.694
 8334SOL     OW26834  11.034  10.020   0.424
 8334SOL    HW126835  11.005   9.942   0.471
 8334SOL    HW226836  11.045  10.086   0.492
 8335SOL     OW26837   1.599   8.884  12.464
 8335SOL    HW126838   1.579   8.812  12.404
 8335SOL    HW226839   1.535   8.875  12.534
 8336SOL     OW26840  11.481  10.164   0.783
 8336SOL    HW126841  11.414  10.101   0.810
 8336SOL    HW226842  11.545  10.112   0.735
 8337SOL     OW26843  10.111   4.432   1.914
 8337SOL    HW126844  10.029   4.423   1.963
 8337SOL    HW226845  10.084   4.462   1.827
 8338SOL     OW26846   7.466  11.827  10.298
 8338SOL    HW126847   7.443  11.877  10.376
 8338SOL    HW226848   7.487  11.739  10.332
 8339SOL     OW26849   5.491   4.876   2.601
 8339SOL    HW126850   5.567   4.833   2.639
 8339SOL    HW226851   5.418   4.852   2.658
 8340SOL     OW26852  11.548   0.123   9.401
 8340SOL    HW126853  11.505   0.096   9.483
 8340SOL    HW226854  11.622   0.177   9.429
 8341SOL     OW26855   9.222  12.871   7.499
 8341SOL    HW126856   9.272  12.817   7.560
 8341SOL    HW226857   9.181  12.938   7.554
 8342SOL     OW26858   7.711  11.730   1.447
 8342SOL    HW126859   7.748  11.642   1.437
 8342SOL    HW226860   7.786  11.789   1.436
 8343SOL     OW26861  11.936   1.106  11.262
 8343SOL    HW126862  11.994   1.180  11.282
 8343SOL    HW226863  11.963   1.038  11.323
 8344SOL     OW26864  14.302  13.712   7.877
 8344SOL    HW126865  14.359  13.694   7.802
 8344SOL    HW226866  14.259  13.628   7.895
 8345SOL     OW26867  11.599   8.766   4.330
 8345SOL    HW126868  11.597   8.801   4.419
 8345SOL    HW226869  11.555   8.682   4.336
 8346SOL     OW26870  13.512   4.144   4.159
 8346SOL    HW126871  13.437   4.202   4.166
 8346SOL    HW226872  13.587   4.202   4.146
 8347SOL     OW26873   3.869  14.622   1.731
 8347SOL    HW126874   3.906  14.535   1.747
 8347SOL    HW226875   3.883  14.638   1.638
 8348SOL     OW26876  14.754  14.531  10.929
 8348SOL    HW126877  14.807  14.550  10.851
 8348SOL    HW226878  14.678  14.589  10.921
 8349SOL     OW26879  10.883  13.214   8.221
 8349SOL    HW126880  10.819  13.265   8.270
 8349SOL    HW226881  10.831  13.169   8.154
 8350SOL     OW26882   9.748   9.261   9.904
 8350SOL    HW126883   9.706   9.177   9.921
 8350SOL    HW226884   9.677   9.318   9.873
 8351SOL     OW26885   5.836  10.350   8.084
 8351SOL    HW126886   5.888  10.277   8.048
 8351SOL    HW226887   5.782  10.309   8.151
 8352SOL     OW26888   3.892   5.737   9.007
 8352SOL    HW126889   3.958   5.672   8.980
 8352SOL    HW226890   3.932   5.782   9.081
 8353SOL     OW26891  12.862  13.834   5.971
 8353SOL    HW126892  12.911  13.915   5.956
 8353SOL    HW226893  12.899  13.798   6.052
 8354SOL     OW26894   5.247   1.453   9.694
 8354SOL    HW126895   5.172   1.508   9.716
 8354SOL    HW226896   5.240   1.379   9.754
 8355SOL     OW26897   2.648   5.396   9.686
 8355SOL    HW126898   2.579   5.459   9.708
 8355SOL    HW226899   2.725   5.450   9.667
 8356SOL     OW26900   9.851  10.673  13.688
 8356SOL    HW126901   9.808  10.603  13.638
 8356SOL    HW226902   9.871  10.633  13.772
 8357SOL     OW26903   8.005   6.885   4.622
 8357SOL    HW126904   8.078   6.936   4.658
 8357SOL    HW226905   7.942   6.952   4.594
 8358SOL     OW26906   0.548   1.948   7.216
 8358SOL    HW126907   0.603   1.983   7.286
 8358SOL    HW226908   0.460   1.979   7.237
 8359SOL     OW26909   8.719   7.786   0.802
 8359SOL    HW126910   8.810   7.778   0.774
 8359SOL    HW226911   8.714   7.737   0.884
 8360SOL     OW26912   6.404   6.237  10.803
 8360SOL    HW126913   6.359   6.167  10.756
 8360SOL    HW226914   6.392   6.215  10.895
 8361SOL     OW26915  12.558   5.467   2.493
 8361SOL    HW126916  12.638   5.513   2.518
 8361SOL    HW226917  12.589   5.384   2.455
 8362SOL     OW26918   4.228   3.000  14.420
 8362SOL    HW126919   4.281   2.944  14.476
 8362SOL    HW226920   4.286   3.025  14.349
 8363SOL     OW26921  13.462   9.499  12.615
 8363SOL    HW126922  13.373   9.506  12.579
 8363SOL    HW226923  13.517   9.480  12.539
 8364SOL     OW26924  12.309   0.611  13.282
 8364SOL    HW126925  12.358   0.529  13.286
 8364SOL    HW226926  12.327   0.654  13.366
 8365SOL     OW26927   6.238   7.713   6.046
 8365SOL    HW126928   6.172   7.714   5.976
 8365SOL    HW226929   6.285   7.631   6.034
 8366SOL     OW26930   4.482   8.486   6.535
 8366SOL    HW126931   4.399   8.471   6.581
 8366SOL    HW226932   4.547   8.441   6.587
 8367SOL     OW26933   3.899   0.016   2.820
 8367SOL    HW126934   3.879   0.000   2.728
 8367SOL    HW226935   3.816   0.042   2.859
 8368SOL     OW26936   1.148   5.568   3.558
 8368SOL    HW126937   1.139   5.479   3.525
 8368SOL    HW226938   1.071   5.580   3.615
 8369SOL     OW26939   2.456   2.631   2.815
 8369SOL    HW126940   2.392   2.674   2.758
 8369SOL    HW226941   2.421   2.641   2.903
 8370SOL     OW26942   8.840   1.141  11.646
 8370SOL    HW126943   8.887   1.214  11.688
 8370SOL    HW226944   8.748   1.161  11.661
 8371SOL     OW26945  10.012   9.103  14.700
 8371SOL    HW126946  10.082   9.068  14.647
 8371SOL    HW226947   9.996   9.191  14.665
 8372SOL     OW26948   5.111   6.793   7.554
 8372SOL    HW126949   5.197   6.778   7.593
 8372SOL    HW226950   5.052   6.734   7.601
 8373SOL     OW26951   7.609   8.465   0.498
 8373SOL    HW126952   7.659   8.545   0.484
 8373SOL    HW226953   7.531   8.476   0.444
 8374SOL     OW26954   8.972   7.225   4.334
 8374SOL    HW126955   8.991   7.290   4.402
 8374SOL    HW226956   9.026   7.150   4.358
 8375SOL     OW26957  10.797   4.456   6.918
 8375SOL    HW126958  10.825   4.506   6.842
 8375SOL    HW226959  10.713   4.496   6.943
 8376SOL     OW26960   3.102  14.596   8.447
 8376SOL    HW126961   3.055  14.522   8.484
 8376SOL    HW226962   3.173  14.557   8.396
 8377SOL     OW26963   3.969   0.766   6.186
 8377SOL    HW126964   3.964   0.744   6.093
 8377SOL    HW226965   3.893   0.724   6.225
 8378SOL     OW26966  12.876  12.380   2.628
 8378SOL    HW126967  12.933  12.404   2.701
 8378SOL    HW226968  12.789  12.372   2.667
 8379SOL     OW26969  14.451  12.341  14.360
 8379SOL    HW126970  14.494  12.418  14.397
 8379SOL    HW226971  14.360  12.348  14.390
 8380SOL     OW26972   0.852   5.120   0.225
 8380SOL    HW126973   0.903   5.075   0.292
 8380SOL    HW226974   0.773   5.067   0.215
 8381SOL     OW26975  14.743   4.397  11.093
 8381SOL    HW126976  14.694   4.354  11.023
 8381SOL    HW226977  14.787   4.470  11.049
 8382SOL     OW26978   3.714  11.284   7.605
 8382SOL    HW126979   3.712  11.234   7.524
 8382SOL    HW226980   3.642  11.347   7.596
 8383SOL     OW26981   4.326  14.245   2.332
 8383SOL    HW126982   4.264  14.224   2.262
 8383SOL    HW226983   4.411  14.222   2.296
 8384SOL     OW26984   6.498   7.779  11.885
 8384SOL    HW126985   6.570   7.718  11.900
 8384SOL    HW226986   6.536   7.850  11.835
 8385SOL     OW26987   6.328  10.298   3.119
 8385SOL    HW126988   6.417  10.285   3.151
 8385SOL    HW226989   6.279  10.223   3.151
 8386SOL     OW26990  14.737  11.118   8.451
 8386SOL    HW126991  14.715  11.026   8.469
 8386SOL    HW226992  14.767  11.152   8.535
 8387SOL     OW26993  13.527   8.506  10.807
 8387SOL    HW126994  13.514   8.525  10.714
 8387SOL    HW226995  13.512   8.412  10.815
 8388SOL     OW26996   6.894   3.404   7.169
 8388SOL    HW126997   6.870   3.378   7.258
 8388SOL    HW226998   6.989   3.394   7.165
 8389SOL     OW26999  12.004  12.809   3.778
 8389SOL    HW127000  11.928  12.850   3.819
 8389SOL    HW227001  12.031  12.870   3.710
 8390SOL     OW27002   2.115  13.272   4.366
 8390SOL    HW127003   2.151  13.191   4.330
 8390SOL    HW227004   2.190  13.331   4.372
 8391SOL     OW27005  13.120   5.192   3.945
 8391SOL    HW127006  13.140   5.277   3.984
 8391SOL    HW227007  13.037   5.205   3.898
 8392SOL     OW27008  13.289   6.030   8.993
 8392SOL    HW127009  13.215   6.088   8.978
 8392SOL    HW227010  13.365   6.088   8.999
 8393SOL     OW27011  11.694   9.036   9.101
 8393SOL    HW127012  11.766   8.973   9.097
 8393SOL    HW227013  11.736   9.119   9.122
 8394SOL     OW27014  14.451  13.031   8.454
 8394SOL    HW127015  14.488  12.948   8.483
 8394SOL    HW227016  14.504  13.057   8.379
 8395SOL     OW27017   2.707   3.658   7.032
 8395SOL    HW127018   2.651   3.677   7.107
 8395SOL    HW227019   2.718   3.563   7.033
 8396SOL     OW27020  14.107  14.589   4.627
 8396SOL    HW127021  14.198  14.613   4.611
 8396SOL    HW227022  14.076  14.654   4.690
 8397SOL     OW27023  12.164  10.750   4.383
 8397SOL    HW127024  12.069  10.737   4.385
 8397SOL    HW227025  12.191  10.724   4.295
 8398SOL     OW27026   0.769  13.880   5.973
 8398SOL    HW127027   0.863  13.899   5.978
 8398SOL    HW227028   0.765  13.784   5.965
 8399SOL     OW27029  14.000   9.242  11.424
 8399SOL    HW127030  13.983   9.249  11.517
 8399SOL    HW227031  14.013   9.148  11.409
 8400SOL     OW27032   4.144   2.041   3.918
 8400SOL    HW127033   4.239   2.039   3.917
 8400SOL    HW227034   4.118   1.978   3.850
 8401SOL     OW27035  10.055  10.954  14.822
 8401SOL    HW127036  10.072  11.042  14.786
 8401SOL    HW227037  10.073  10.895  14.749
 8402SOL     OW27038  10.420  14.411  13.775
 8402SOL    HW127039  10.376  14.354  13.838
 8402SOL    HW227040  10.349  14.452  13.726
 8403SOL     OW27041   9.453   8.868  12.980
 8403SOL    HW127042   9.396   8.943  12.996
 8403SOL    HW227043   9.488   8.846  13.067
 8404SOL     OW27044  10.039  10.301   8.168
 8404SOL    HW127045  10.052  10.393   8.146
 8404SOL    HW227046   9.971  10.302   8.236
 8405SOL     OW27047  11.037   2.122  10.010
 8405SOL    HW127048  11.025   2.117  10.105
 8405SOL    HW227049  11.107   2.185   9.998
 8406SOL     OW27050  11.180   4.672   0.430
 8406SOL    HW127051  11.096   4.632   0.450
 8406SOL    HW227052  11.227   4.673   0.514
 8407SOL     OW27053   1.866   0.731  11.217
 8407SOL    HW127054   1.920   0.709  11.293
 8407SOL    HW227055   1.929   0.745  11.146
 8408SOL     OW27056  13.198  14.586   0.380
 8408SOL    HW127057  13.258  14.639   0.431
 8408SOL    HW227058  13.251  14.549   0.310
 8409SOL     OW27059   5.753   0.237   4.413
 8409SOL    HW127060   5.771   0.182   4.337
 8409SOL    HW227061   5.775   0.326   4.385
 8410SOL     OW27062   3.494  14.510   8.259
 8410SOL    HW127063   3.575  14.462   8.242
 8410SOL    HW227064   3.515  14.567   8.333
 8411SOL     OW27065  13.397   9.960   4.448
 8411SOL    HW127066  13.335   9.889   4.464
 8411SOL    HW227067  13.441   9.937   4.367
 8412SOL     OW27068  11.769   5.340   7.340
 8412SOL    HW127069  11.785   5.325   7.433
 8412SOL    HW227070  11.695   5.401   7.339
 8413SOL     OW27071   9.056   0.676   4.446
 8413SOL    HW127072   9.019   0.737   4.382
 8413SOL    HW227073   9.100   0.733   4.510
 8414SOL     OW27074  11.616   0.077   3.599
 8414SOL    HW127075  11.624  14.874   3.550
 8414SOL    HW227076  11.573   0.053   3.681
 8415SOL     OW27077   0.532   4.240   6.828
 8415SOL    HW127078   0.506   4.175   6.763
 8415SOL    HW227079   0.475   4.223   6.903
 8416SOL     OW27080   0.380  11.370   5.216
 8416SOL    HW127081   0.425  11.286   5.216
 8416SOL    HW227082   0.421  11.420   5.145
 8417SOL     OW27083   0.822   1.013   9.285
 8417SOL    HW127084   0.879   0.948   9.244
 8417SOL    HW227085   0.820   1.086   9.223
 8418SOL     OW27086   2.866   3.180  13.866
 8418SOL    HW127087   2.849   3.273  13.859
 8418SOL    HW227088   2.938   3.164  13.804
 8419SOL     OW27089   2.691   3.756  14.879
 8419SOL    HW127090   2.654   3.687   0.055
 8419SOL    HW227091   2.702   3.715  14.793
 8420SOL     OW27092   3.362  12.109   5.264
 8420SOL    HW127093   3.439  12.159   5.292
 8420SOL    HW227094   3.392  12.061   5.187
 8421SOL     OW27095   9.127   8.661   2.223
 8421SOL    HW127096   9.165   8.697   2.303
 8421SOL    HW227097   9.181   8.697   2.153
 8422SOL     OW27098  14.322   4.715   1.278
 8422SOL    HW127099  14.355   4.774   1.210
 8422SOL    HW227100  14.386   4.644   1.280
 8423SOL     OW27101  11.842   0.958   6.391
 8423SOL    HW127102  11.817   0.974   6.300
 8423SOL    HW227103  11.860   0.864   6.395
 8424SOL     OW27104   9.704   0.264   6.321
 8424SOL    HW127105   9.627   0.208   6.309
 8424SOL    HW227106   9.669   0.353   6.323
 8425SOL     OW27107   3.600   3.786   2.521
 8425SOL    HW127108   3.537   3.820   2.458
 8425SOL    HW227109   3.611   3.857   2.585
 8426SOL     OW27110  10.255   7.368   6.161
 8426SOL    HW127111  10.249   7.432   6.231
 8426SOL    HW227112  10.170   7.322   6.163
 8427SOL     OW27113  12.370   8.392   2.939
 8427SOL    HW127114  12.342   8.305   2.913
 8427SOL    HW227115  12.450   8.408   2.889
 8428SOL     OW27116   5.040  10.873   3.311
 8428SOL    HW127117   4.946  10.868   3.330
 8428SOL    HW227118   5.054  10.806   3.244
 8429SOL     OW27119  12.800   3.795  14.091
 8429SOL    HW127120  12.828   3.757  14.175
 8429SOL    HW227121  12.867   3.860  14.071
 8430SOL     OW27122   5.959   9.682   6.051
 8430SOL    HW127123   5.987   9.774   6.052
 8430SOL    HW227124   5.961   9.655   6.143
 8431SOL     OW27125   5.982   0.113   1.873
 8431SOL    HW127126   5.903   0.084   1.919
 8431SOL    HW227127   5.985   0.059   1.794
 8432SOL     OW27128  14.751  12.625   0.622
 8432SOL    HW127129  14.679  12.591   0.675
 8432SOL    HW227130  14.717  12.706   0.584
 8433SOL     OW27131   0.161   8.935  11.761
 8433SOL    HW127132   0.240   8.958  11.712
 8433SOL    HW227133   0.178   8.848  11.795
 8434SOL     OW27134   8.512  10.344  13.114
 8434SOL    HW127135   8.524  10.295  13.195
 8434SOL    HW227136   8.447  10.293  13.065
 8435SOL     OW27137   1.649   0.125  14.090
 8435SOL    HW127138   1.653   0.139  13.995
 8435SOL    HW227139   1.720   0.063  14.108
 8436SOL     OW27140  11.271   1.697  10.936
 8436SOL    HW127141  11.341   1.635  10.953
 8436SOL    HW227142  11.286   1.768  10.998
 8437SOL     OW27143   3.201   1.517  14.080
 8437SOL    HW127144   3.109   1.532  14.102
 8437SOL    HW227145   3.228   1.595  14.032
 8438SOL     OW27146  13.455  10.379  13.610
 8438SOL    HW127147  13.525  10.441  13.629
 8438SOL    HW227148  13.450  10.324  13.688
 8439SOL     OW27149  14.639   2.063   9.089
 8439SOL    HW127150  14.609   2.034   9.175
 8439SOL    HW227151  14.727   2.025   9.080
 8440SOL     OW27152   7.200   2.739  13.377
 8440SOL    HW127153   7.268   2.672  13.367
 8440SOL    HW227154   7.212   2.797  13.302
 8441SOL     OW27155  11.686   6.031   4.665
 8441SOL    HW127156  11.735   6.084   4.602
 8441SOL    HW227157  11.611   6.085   4.688
 8442SOL     OW27158  11.276   2.375  11.786
 8442SOL    HW127159  11.232   2.306  11.737
 8442SOL    HW227160  11.218   2.392  11.861
 8443SOL     OW27161  12.090   4.593   8.166
 8443SOL    HW127162  12.085   4.608   8.261
 8443SOL    HW227163  12.002   4.614   8.134
 8444SOL     OW27164   4.167  13.296   5.504
 8444SOL    HW127165   4.246  13.348   5.518
 8444SOL    HW227166   4.199  13.211   5.473
 8445SOL     OW27167   1.157   1.632   1.995
 8445SOL    HW127168   1.181   1.597   2.080
 8445SOL    HW227169   1.192   1.721   1.995
 8446SOL     OW27170   8.139   3.977   1.269
 8446SOL    HW127171   8.213   3.918   1.281
 8446SOL    HW227172   8.137   4.030   1.349
 8447SOL     OW27173   4.185  11.823  10.496
 8447SOL    HW127174   4.249  11.763  10.458
 8447SOL    HW227175   4.139  11.770  10.562
 8448SOL     OW27176   9.521   0.915   2.566
 8448SOL    HW127177   9.557   0.994   2.525
 8448SOL    HW227178   9.531   0.847   2.500
 8449SOL     OW27179   0.001   5.312   8.345
 8449SOL    HW127180   0.010   5.299   8.439
 8449SOL    HW227181   0.064   5.381   8.323
 8450SOL     OW27182   2.211  10.044   0.276
 8450SOL    HW127183   2.268  10.022   0.202
 8450SOL    HW227184   2.272  10.065   0.347
 8451SOL     OW27185   2.457  11.353   8.950
 8451SOL    HW127186   2.417  11.326   9.033
 8451SOL    HW227187   2.384  11.356   8.888
 8452SOL     OW27188   9.830   0.794  10.229
 8452SOL    HW127189   9.925   0.796  10.237
 8452SOL    HW227190   9.798   0.829  10.312
 8453SOL     OW27191   1.801  13.826   9.460
 8453SOL    HW127192   1.783  13.785   9.544
 8453SOL    HW227193   1.860  13.899   9.480
 8454SOL     OW27194   1.324   5.437   7.878
 8454SOL    HW127195   1.328   5.357   7.826
 8454SOL    HW227196   1.381   5.421   7.953
 8455SOL     OW27197   2.431   7.666  12.830
 8455SOL    HW127198   2.368   7.601  12.859
 8455SOL    HW227199   2.513   7.644  12.875
 8456SOL     OW27200   4.847   5.355   5.976
 8456SOL    HW127201   4.802   5.403   6.045
 8456SOL    HW227202   4.810   5.389   5.895
 8457SOL     OW27203   7.247  13.431   1.257
 8457SOL    HW127204   7.219  13.385   1.178
 8457SOL    HW227205   7.343  13.432   1.252
 8458SOL     OW27206  14.020  10.771   9.658
 8458SOL    HW127207  13.995  10.825   9.733
 8458SOL    HW227208  13.954  10.792   9.592
 8459SOL     OW27209   0.529   3.409   4.583
 8459SOL    HW127210   0.538   3.504   4.594
 8459SOL    HW227211   0.605   3.384   4.531
 8460SOL     OW27212   4.258   2.316   1.707
 8460SOL    HW127213   4.262   2.223   1.728
 8460SOL    HW227214   4.235   2.319   1.614
 8461SOL     OW27215   8.127   8.254   1.116
 8461SOL    HW127216   8.163   8.293   1.196
 8461SOL    HW227217   8.203   8.213   1.073
 8462SOL     OW27218   0.198   1.633   3.180
 8462SOL    HW127219   0.206   1.551   3.130
 8462SOL    HW227220   0.112   1.628   3.221
 8463SOL     OW27221  14.397   1.299   5.744
 8463SOL    HW127222  14.416   1.376   5.690
 8463SOL    HW227223  14.395   1.332   5.833
 8464SOL     OW27224  13.506  12.969  13.352
 8464SOL    HW127225  13.525  12.905  13.420
 8464SOL    HW227226  13.537  12.927  13.271
 8465SOL     OW27227   4.286   4.833   3.225
 8465SOL    HW127228   4.246   4.917   3.249
 8465SOL    HW227229   4.262   4.821   3.133
 8466SOL     OW27230   9.339   0.721   1.933
 8466SOL    HW127231   9.307   0.717   1.843
 8466SOL    HW227232   9.280   0.784   1.976
 8467SOL     OW27233   3.324  14.725   8.192
 8467SOL    HW127234   3.237  14.736   8.154
 8467SOL    HW227235   3.337  14.631   8.197
 8468SOL     OW27236   6.591   0.077  14.163
 8468SOL    HW127237   6.585   0.159  14.113
 8468SOL    HW227238   6.526   0.020  14.120
 8469SOL     OW27239   0.815   9.150   6.796
 8469SOL    HW127240   0.830   9.120   6.706
 8469SOL    HW227241   0.903   9.170   6.829
 8470SOL     OW27242  14.635   1.248  12.273
 8470SOL    HW127243  14.551   1.204  12.262
 8470SOL    HW227244  14.696   1.179  12.299
 8471SOL     OW27245   6.994  13.298  11.593
 8471SOL    HW127246   6.933  13.290  11.520
 8471SOL    HW227247   7.079  13.270  11.557
 8472SOL     OW27248  13.205  14.361   1.772
 8472SOL    HW127249  13.176  14.279   1.814
 8472SOL    HW227250  13.281  14.388   1.824
 8473SOL     OW27251   9.796   4.439   5.733
 8473SOL    HW127252   9.706   4.467   5.748
 8473SOL    HW227253   9.845   4.473   5.808
 8474SOL     OW27254   7.286   7.312   1.402
 8474SOL    HW127255   7.221   7.243   1.389
 8474SOL    HW227256   7.328   7.322   1.317
 8475SOL     OW27257   6.444   7.240   0.835
 8475SOL    HW127258   6.352   7.231   0.860
 8475SOL    HW227259   6.490   7.261   0.916
 8476SOL     OW27260   0.245   2.033  14.697
 8476SOL    HW127261   0.185   2.025  14.771
 8476SOL    HW227262   0.194   2.003  14.622
 8477SOL     OW27263   4.687   6.997  11.018
 8477SOL    HW127264   4.778   7.019  11.033
 8477SOL    HW227265   4.640   7.080  11.024
 8478SOL     OW27266   6.251  13.384   5.542
 8478SOL    HW127267   6.334  13.393   5.588
 8478SOL    HW227268   6.274  13.341   5.459
 8479SOL     OW27269   3.484  14.833   7.073
 8479SOL    HW127270   3.521  14.759   7.121
 8479SOL    HW227271   3.469   0.021   7.140
 8480SOL     OW27272   9.476   7.243   5.814
 8480SOL    HW127273   9.431   7.170   5.855
 8480SOL    HW227274   9.506   7.209   5.730
 8481SOL     OW27275   8.237  11.190  10.950
 8481SOL    HW127276   8.210  11.099  10.957
 8481SOL    HW227277   8.162  11.240  10.983
 8482SOL     OW27278   1.774   9.196  13.565
 8482SOL    HW127279   1.784   9.177  13.658
 8482SOL    HW227280   1.706   9.263  13.560
 8483SOL     OW27281  14.864   1.560   9.884
 8483SOL    HW127282   0.070   1.530   9.854
 8483SOL    HW227283  14.865   1.543   9.979
 8484SOL     OW27284  12.250   4.643   7.106
 8484SOL    HW127285  12.219   4.624   7.018
 8484SOL    HW227286  12.244   4.739   7.114
 8485SOL     OW27287   7.331   6.012  13.418
 8485SOL    HW127288   7.349   6.098  13.457
 8485SOL    HW227289   7.353   6.023  13.326
 8486SOL     OW27290   0.627  10.628   1.736
 8486SOL    HW127291   0.673  10.647   1.818
 8486SOL    HW227292   0.697  10.626   1.670
 8487SOL     OW27293  12.599  11.234   7.931
 8487SOL    HW127294  12.604  11.324   7.962
 8487SOL    HW227295  12.595  11.241   7.836
 8488SOL     OW27296   4.618   0.323   7.827
 8488SOL    HW127297   4.597   0.255   7.890
 8488SOL    HW227298   4.560   0.307   7.752
 8489SOL     OW27299   9.281  13.631   8.058
 8489SOL    HW127300   9.242  13.658   7.975
 8489SOL    HW227301   9.286  13.536   8.053
 8490SOL     OW27302  12.138   7.493   4.325
 8490SOL    HW127303  12.148   7.403   4.293
 8490SOL    HW227304  12.058   7.525   4.283
 8491SOL     OW27305  14.809   9.033   8.565
 8491SOL    HW127306  14.877   9.080   8.516
 8491SOL    HW227307  14.856   8.963   8.610
 8492SOL     OW27308   5.922   7.549   8.745
 8492SOL    HW127309   5.909   7.523   8.837
 8492SOL    HW227310   6.000   7.500   8.718
 8493SOL     OW27311  10.708   4.498   4.252
 8493SOL    HW127312  10.665   4.553   4.187
 8493SOL    HW227313  10.797   4.534   4.258
 8494SOL     OW27314  10.441  11.580  12.706
 8494SOL    HW127315  10.432  11.557  12.613
 8494SOL    HW227316  10.368  11.640  12.723
 8495SOL     OW27317   1.658   3.488  12.745
 8495SOL    HW127318   1.673   3.403  12.784
 8495SOL    HW227319   1.563   3.493  12.735
 8496SOL     OW27320  12.878  12.343  13.718
 8496SOL    HW127321  12.816  12.325  13.647
 8496SOL    HW227322  12.823  12.349  13.797
 8497SOL     OW27323   5.788   7.715  14.516
 8497SOL    HW127324   5.823   7.776  14.451
 8497SOL    HW227325   5.781   7.766  14.596
 8498SOL     OW27326   5.119  11.786  11.490
 8498SOL    HW127327   5.113  11.812  11.398
 8498SOL    HW227328   5.213  11.772  11.505
 8499SOL     OW27329   8.196   7.121   4.481
 8499SOL    HW127330   8.215   7.116   4.575
 8499SOL    HW227331   8.270   7.169   4.445
 8500SOL     OW27332  14.674  14.143  14.265
 8500SOL    HW127333  14.759  14.127  14.223
 8500SOL    HW227334  14.666  14.239  14.265
 8501SOL     OW27335   4.021   0.978  10.929
 8501SOL    HW127336   3.959   0.975  10.856
 8501SOL    HW227337   4.009   1.065  10.967
 8502SOL     OW27338   9.952   7.037   3.936
 8502SOL    HW127339  10.032   7.023   3.886
 8502SOL    HW227340   9.920   6.948   3.954
 8503SOL     OW27341   4.930   0.424  10.485
 8503SOL    HW127342   4.864   0.441  10.552
 8503SOL    HW227343   5.004   0.480  10.510
 8504SOL     OW27344  14.637   8.613   0.832
 8504SOL    HW127345  14.647   8.687   0.892
 8504SOL    HW227346  14.544   8.610   0.812
 8505SOL     OW27347   2.703   1.760  10.447
 8505SOL    HW127348   2.758   1.837  10.437
 8505SOL    HW227349   2.683   1.732  10.357
 8506SOL     OW27350   3.847   9.089  11.477
 8506SOL    HW127351   3.866   9.115  11.567
 8506SOL    HW227352   3.804   9.165  11.438
 8507SOL     OW27353   0.044   4.814  14.252
 8507SOL    HW127354   0.074   4.816  14.161
 8507SOL    HW227355   0.045   4.906  14.279
 8508SOL     OW27356   3.800   6.283   0.322
 8508SOL    HW127357   3.797   6.370   0.362
 8508SOL    HW227358   3.817   6.224   0.396
 8509SOL     OW27359   8.336   3.776   3.536
 8509SOL    HW127360   8.394   3.799   3.463
 8509SOL    HW227361   8.259   3.739   3.494
 8510SOL     OW27362  13.581   4.280   9.909
 8510SOL    HW127363  13.601   4.363   9.953
 8510SOL    HW227364  13.502   4.299   9.858
 8511SOL     OW27365   7.070  13.835  12.903
 8511SOL    HW127366   7.104  13.777  12.835
 8511SOL    HW227367   7.143  13.848  12.963
 8512SOL     OW27368   4.258  12.559   3.427
 8512SOL    HW127369   4.309  12.567   3.507
 8512SOL    HW227370   4.319  12.527   3.361
 8513SOL     OW27371  12.539  12.086   6.925
 8513SOL    HW127372  12.495  12.069   6.842
 8513SOL    HW227373  12.544  12.181   6.931
 8514SOL     OW27374   7.098   3.207  11.055
 8514SOL    HW127375   7.170   3.144  11.067
 8514SOL    HW227376   7.094   3.255  11.137
 8515SOL     OW27377  11.595   8.281   1.773
 8515SOL    HW127378  11.621   8.367   1.738
 8515SOL    HW227379  11.506   8.293   1.804
 8516SOL     OW27380  11.133  11.039  12.107
 8516SOL    HW127381  11.165  10.974  12.045
 8516SOL    HW227382  11.038  11.039  12.095
 8517SOL     OW27383  12.395  12.160   6.102
 8517SOL    HW127384  12.427  12.248   6.123
 8517SOL    HW227385  12.428  12.143   6.014
 8518SOL     OW27386   5.249   4.440   7.377
 8518SOL    HW127387   5.235   4.414   7.468
 8518SOL    HW227388   5.300   4.369   7.339
 8519SOL     OW27389  11.068   9.719   2.609
 8519SOL    HW127390  10.991   9.774   2.621
 8519SOL    HW227391  11.091   9.729   2.516
 8520SOL     OW27392   1.363   2.494   8.422
 8520SOL    HW127393   1.311   2.535   8.491
 8520SOL    HW227394   1.316   2.413   8.401
 8521SOL     OW27395   0.745  10.576   6.942
 8521SOL    HW127396   0.798  10.655   6.930
 8521SOL    HW227397   0.785  10.512   6.884
 8522SOL     OW27398   2.579   2.984   7.715
 8522SOL    HW127399   2.542   3.014   7.798
 8522SOL    HW227400   2.535   2.902   7.697
 8523SOL     OW27401   7.725   7.581  14.418
 8523SOL    HW127402   7.762   7.550  14.501
 8523SOL    HW227403   7.644   7.625  14.444
 8524SOL     OW27404  12.947   0.445  14.267
 8524SOL    HW127405  12.918   0.527  14.306
 8524SOL    HW227406  13.023   0.469  14.215
 8525SOL     OW27407   5.738   5.523   9.944
 8525SOL    HW127408   5.716   5.574  10.022
 8525SOL    HW227409   5.690   5.566   9.873
 8526SOL     OW27410  10.793   1.078   3.395
 8526SOL    HW127411  10.834   1.071   3.309
 8526SOL    HW227412  10.861   1.049   3.456
 8527SOL     OW27413  11.009  10.947   6.725
 8527SOL    HW127414  10.975  10.862   6.755
 8527SOL    HW227415  11.009  10.940   6.629
 8528SOL     OW27416  12.748   2.802   0.319
 8528SOL    HW127417  12.823   2.842   0.363
 8528SOL    HW227418  12.687   2.875   0.305
 8529SOL     OW27419   5.125   9.548  13.981
 8529SOL    HW127420   5.143   9.472  13.925
 8529SOL    HW227421   5.188   9.614  13.953
 8530SOL     OW27422   4.972   8.546   4.428
 8530SOL    HW127423   5.017   8.622   4.391
 8530SOL    HW227424   5.028   8.519   4.501
 8531SOL     OW27425   5.035   5.692   0.774
 8531SOL    HW127426   5.097   5.710   0.703
 8531SOL    HW227427   4.997   5.778   0.794
 8532SOL     OW27428   9.494   7.863   4.550
 8532SOL    HW127429   9.503   7.775   4.513
 8532SOL    HW227430   9.576   7.907   4.528
 8533SOL     OW27431   3.133  14.661  12.930
 8533SOL    HW127432   3.056  14.605  12.923
 8533SOL    HW227433   3.206  14.604  12.906
 8534SOL     OW27434  13.725   5.650   7.230
 8534SOL    HW127435  13.771   5.630   7.312
 8534SOL    HW227436  13.776   5.721   7.191
 8535SOL     OW27437   0.561   9.707   4.385
 8535SOL    HW127438   0.631   9.717   4.321
 8535SOL    HW227439   0.481   9.707   4.332
 8536SOL     OW27440  13.922  12.576   0.582
 8536SOL    HW127441  13.941  12.548   0.671
 8536SOL    HW227442  13.839  12.623   0.588
 8537SOL     OW27443  13.898   1.166  10.489
 8537SOL    HW127444  13.913   1.203  10.576
 8537SOL    HW227445  13.865   1.240  10.437
 8538SOL     OW27446   5.455   1.901   9.925
 8538SOL    HW127447   5.480   1.861   9.842
 8538SOL    HW227448   5.417   1.829   9.976
 8539SOL     OW27449   4.678  10.724  10.333
 8539SOL    HW127450   4.738  10.691  10.266
 8539SOL    HW227451   4.591  10.717  10.292
 8540SOL     OW27452   4.899   0.542   2.249
 8540SOL    HW127453   4.952   0.477   2.295
 8540SOL    HW227454   4.955   0.573   2.177
 8541SOL     OW27455  12.410   9.891  11.216
 8541SOL    HW127456  12.444   9.966  11.167
 8541SOL    HW227457  12.359   9.842  11.151
 8542SOL     OW27458   8.416   6.583  11.977
 8542SOL    HW127459   8.417   6.552  12.068
 8542SOL    HW227460   8.495   6.638  11.970
 8543SOL     OW27461   1.051   1.176   7.826
 8543SOL    HW127462   1.039   1.269   7.808
 8543SOL    HW227463   1.126   1.150   7.772
 8544SOL     OW27464   5.655  13.313   7.975
 8544SOL    HW127465   5.605  13.239   8.007
 8544SOL    HW227466   5.734  13.315   8.030
 8545SOL     OW27467   1.370   3.991   4.421
 8545SOL    HW127468   1.438   4.038   4.470
 8545SOL    HW227469   1.417   3.917   4.381
 8546SOL     OW27470  14.059   5.799   2.917
 8546SOL    HW127471  14.004   5.855   2.972
 8546SOL    HW227472  14.094   5.734   2.978
 8547SOL     OW27473  14.824   9.830  13.475
 8547SOL    HW127474   0.024   9.807  13.426
 8547SOL    HW227475  14.848   9.909  13.524
 8548SOL     OW27476   5.542   0.782   8.565
 8548SOL    HW127477   5.625   0.738   8.585
 8548SOL    HW227478   5.568   0.858   8.513
 8549SOL     OW27479   4.337   3.947  13.666
 8549SOL    HW127480   4.374   4.027  13.703
 8549SOL    HW227481   4.298   3.975  13.583
 8550SOL     OW27482  11.846   3.618  13.454
 8550SOL    HW127483  11.781   3.626  13.523
 8550SOL    HW227484  11.796   3.618  13.373
 8551SOL     OW27485   1.121   7.924   5.764
 8551SOL    HW127486   1.051   7.955   5.822
 8551SOL    HW227487   1.184   7.996   5.763
 8552SOL     OW27488  10.847   4.732   8.432
 8552SOL    HW127489  10.862   4.685   8.350
 8552SOL    HW227490  10.921   4.707   8.488
 8553SOL     OW27491  11.055   9.292   3.086
 8553SOL    HW127492  11.042   9.357   3.017
 8553SOL    HW227493  11.014   9.330   3.163
 8554SOL     OW27494  11.323  10.832   8.921
 8554SOL    HW127495  11.376  10.895   8.971
 8554SOL    HW227496  11.243  10.879   8.901
 8555SOL     OW27497   1.206   6.059  13.167
 8555SOL    HW127498   1.144   6.004  13.213
 8555SOL    HW227499   1.248   6.111  13.236
 8556SOL     OW27500  13.313   8.651  14.275
 8556SOL    HW127501  13.265   8.711  14.332
 8556SOL    HW227502  13.288   8.677  14.186
 8557SOL     OW27503  10.109  10.091   1.098
 8557SOL    HW127504  10.092  10.044   1.017
 8557SOL    HW227505  10.202  10.076   1.116
 8558SOL     OW27506   9.364   8.214  13.938
 8558SOL    HW127507   9.275   8.180  13.952
 8558SOL    HW227508   9.367   8.235  13.845
 8559SOL     OW27509  12.001  12.187  13.556
 8559SOL    HW127510  11.946  12.205  13.480
 8559SOL    HW227511  11.951  12.220  13.630
 8560SOL     OW27512  14.361   0.498   9.272
 8560SOL    HW127513  14.379   0.588   9.298
 8560SOL    HW227514  14.383   0.494   9.179
 8561SOL     OW27515  11.222  10.885   6.519
 8561SOL    HW127516  11.240  10.843   6.603
 8561SOL    HW227517  11.136  10.850   6.494
 8562SOL     OW27518   4.320   4.493   9.222
 8562SOL    HW127519   4.360   4.580   9.221
 8562SOL    HW227520   4.257   4.496   9.295
 8563SOL     OW27521   1.075   4.474  12.431
 8563SOL    HW127522   1.064   4.512  12.518
 8563SOL    HW227523   1.038   4.386  12.439
 8564SOL     OW27524  12.544   7.122   3.817
 8564SOL    HW127525  12.477   7.154   3.878
 8564SOL    HW227526  12.623   7.169   3.841
 8565SOL     OW27527   3.983   3.556   9.427
 8565SOL    HW127528   3.965   3.508   9.507
 8565SOL    HW227529   3.897   3.585   9.397
 8566SOL     OW27530  13.055   3.006  13.159
 8566SOL    HW127531  12.992   3.022  13.229
 8566SOL    HW227532  13.138   2.991  13.204
 8567SOL     OW27533  13.813   5.727  12.352
 8567SOL    HW127534  13.908   5.731  12.350
 8567SOL    HW227535  13.786   5.758  12.265
 8568SOL     OW27536   9.983   4.685   2.976
 8568SOL    HW127537   9.967   4.779   2.977
 8568SOL    HW227538  10.061   4.673   3.030
 8569SOL     OW27539   1.213  11.174  14.195
 8569SOL    HW127540   1.178  11.089  14.220
 8569SOL    HW227541   1.183  11.233  14.264
 8570SOL     OW27542   3.482   0.161   1.847
 8570SOL    HW127543   3.545   0.232   1.864
 8570SOL    HW227544   3.508   0.092   1.907
 8571SOL     OW27545   2.687   3.987   0.761
 8571SOL    HW127546   2.609   3.967   0.709
 8571SOL    HW227547   2.737   3.906   0.761
 8572SOL     OW27548  10.880  13.234   1.948
 8572SOL    HW127549  10.860  13.300   1.882
 8572SOL    HW227550  10.965  13.261   1.985
 8573SOL     OW27551  12.608   4.523   6.491
 8573SOL    HW127552  12.574   4.434   6.484
 8573SOL    HW227553  12.702   4.514   6.476
 8574SOL     OW27554   2.102   8.943  12.951
 8574SOL    HW127555   2.105   9.039  12.944
 8574SOL    HW227556   2.176   8.922  13.009
 8575SOL     OW27557   7.879   5.526   1.836
 8575SOL    HW127558   7.887   5.444   1.885
 8575SOL    HW227559   7.966   5.539   1.796
 8576SOL     OW27560   0.362   7.850   1.389
 8576SOL    HW127561   0.317   7.917   1.338
 8576SOL    HW227562   0.292   7.791   1.419
 8577SOL     OW27563   7.224   8.904   9.942
 8577SOL    HW127564   7.319   8.904   9.932
 8577SOL    HW227565   7.205   8.989   9.981
 8578SOL     OW27566   0.417   6.499   9.018
 8578SOL    HW127567   0.452   6.512   9.106
 8578SOL    HW227568   0.322   6.507   9.029
 8579SOL     OW27569  14.300  11.660   1.239
 8579SOL    HW127570  14.312  11.726   1.171
 8579SOL    HW227571  14.285  11.578   1.192
 8580SOL     OW27572   6.781  11.115   7.581
 8580SOL    HW127573   6.713  11.105   7.648
 8580SOL    HW227574   6.806  11.207   7.586
 8581SOL     OW27575  12.160   9.107  13.948
 8581SOL    HW127576  12.248   9.075  13.926
 8581SOL    HW227577  12.175   9.186  13.999
 8582SOL     OW27578  13.217   9.907  12.214
 8582SOL    HW127579  13.185   9.997  12.201
 8582SOL    HW227580  13.213   9.868  12.126
 8583SOL     OW27581   4.106   0.948  10.513
 8583SOL    HW127582   4.115   0.991  10.428
 8583SOL    HW227583   4.015   0.918  10.515
 8584SOL     OW27584   0.115   5.336  12.863
 8584SOL    HW127585   0.121   5.243  12.842
 8584SOL    HW227586   0.204   5.361  12.890
 8585SOL     OW27587   1.919   9.208  10.045
 8585SOL    HW127588   1.984   9.216   9.976
 8585SOL    HW227589   1.967   9.169  10.118
 8586SOL     OW27590   6.428   0.922   4.192
 8586SOL    HW127591   6.437   0.845   4.137
 8586SOL    HW227592   6.478   0.902   4.271
 8587SOL     OW27593  12.649  12.417   3.992
 8587SOL    HW127594  12.632  12.353   3.924
 8587SOL    HW227595  12.729  12.386   4.035
 8588SOL     OW27596   4.890  14.849  10.246
 8588SOL    HW127597   4.845  14.809  10.321
 8588SOL    HW227598   4.823  14.855  10.178
 8589SOL     OW27599   1.642  14.401   3.632
 8589SOL    HW127600   1.680  14.456   3.564
 8589SOL    HW227601   1.649  14.312   3.598
 8590SOL     OW27602   7.212  13.863  11.437
 8590SOL    HW127603   7.195  13.848  11.344
 8590SOL    HW227604   7.307  13.867  11.443
 8591SOL     OW27605   1.379  10.166   2.916
 8591SOL    HW127606   1.317  10.095   2.899
 8591SOL    HW227607   1.447  10.126   2.971
 8592SOL     OW27608   2.754  14.680   1.859
 8592SOL    HW127609   2.714  14.644   1.780
 8592SOL    HW227610   2.784  14.604   1.908
 8593SOL     OW27611  13.498  10.408   1.119
 8593SOL    HW127612  13.473  10.494   1.151
 8593SOL    HW227613  13.475  10.347   1.189
 8594SOL     OW27614  13.556   2.358   6.898
 8594SOL    HW127615  13.563   2.265   6.920
 8594SOL    HW227616  13.642   2.381   6.863
 8595SOL     OW27617  11.392   9.438  13.880
 8595SOL    HW127618  11.342   9.364  13.916
 8595SOL    HW227619  11.329   9.487  13.828
 8596SOL     OW27620   9.099   2.579   2.877
 8596SOL    HW127621   9.068   2.645   2.815
 8596SOL    HW227622   9.194   2.579   2.867
 8597SOL     OW27623   8.373   2.909  14.295
 8597SOL    HW127624   8.354   2.828  14.247
 8597SOL    HW227625   8.329   2.898  14.379
 8598SOL     OW27626  10.825  12.352  11.533
 8598SOL    HW127627  10.860  12.268  11.504
 8598SOL    HW227628  10.837  12.411  11.458
 8599SOL     OW27629  13.539   9.611  13.044
 8599SOL    HW127630  13.461   9.659  13.018
 8599SOL    HW227631  13.538   9.533  12.989
 8600SOL     OW27632   9.391  14.285   7.425
 8600SOL    HW127633   9.469  14.232   7.440
 8600SOL    HW227634   9.324  14.222   7.397
 8601SOL     OW27635  12.476   1.226   3.903
 8601SOL    HW127636  12.411   1.189   3.843
 8601SOL    HW227637  12.556   1.176   3.884
 8602SOL     OW27638   8.902  14.259   2.962
 8602SOL    HW127639   8.839  14.249   3.034
 8602SOL    HW227640   8.988  14.255   3.004
 8603SOL     OW27641  12.057  13.321  13.836
 8603SOL    HW127642  12.019  13.252  13.891
 8603SOL    HW227643  12.047  13.401  13.888
 8604SOL     OW27644  13.887  10.847  11.499
 8604SOL    HW127645  13.815  10.899  11.535
 8604SOL    HW227646  13.869  10.843  11.405
 8605SOL     OW27647   9.419   1.810   7.617
 8605SOL    HW127648   9.365   1.733   7.632
 8605SOL    HW227649   9.357   1.878   7.591
 8606SOL     OW27650  10.365  13.473  11.608
 8606SOL    HW127651  10.291  13.503  11.557
 8606SOL    HW227652  10.366  13.530  11.685
 8607SOL     OW27653   2.818   5.789  13.416
 8607SOL    HW127654   2.893   5.754  13.368
 8607SOL    HW227655   2.781   5.856  13.359
 8608SOL     OW27656   6.235   9.448   9.512
 8608SOL    HW127657   6.325   9.437   9.483
 8608SOL    HW227658   6.209   9.534   9.478
 8609SOL     OW27659   1.665  11.934   5.749
 8609SOL    HW127660   1.614  12.010   5.779
 8609SOL    HW227661   1.756  11.958   5.766
 8610SOL     OW27662   8.822  13.743  10.146
 8610SOL    HW127663   8.878  13.724  10.070
 8610SOL    HW227664   8.841  13.834  10.168
 8611SOL     OW27665  11.581   5.067   0.967
 8611SOL    HW127666  11.650   5.000   0.970
 8611SOL    HW227667  11.629   5.149   0.958
 8612SOL     OW27668   8.888   4.751   4.260
 8612SOL    HW127669   8.832   4.796   4.322
 8612SOL    HW227670   8.977   4.768   4.291
 8613SOL     OW27671   2.950   3.525  12.826
 8613SOL    HW127672   3.044   3.510  12.814
 8613SOL    HW227673   2.935   3.612  12.790
 8614SOL     OW27674  11.050   4.098   4.610
 8614SOL    HW127675  10.978   4.157   4.634
 8614SOL    HW227676  11.088   4.137   4.532
 8615SOL     OW27677  14.073  14.496  10.005
 8615SOL    HW127678  14.014  14.422   9.993
 8615SOL    HW227679  14.146  14.461  10.057
 8616SOL     OW27680   8.968   2.781  14.653
 8616SOL    HW127681   8.908   2.787  14.579
 8616SOL    HW227682   9.028   2.711  14.630
 8617SOL     OW27683  14.073  11.741   3.991
 8617SOL    HW127684  14.104  11.677   3.926
 8617SOL    HW227685  14.063  11.822   3.942
 8618SOL     OW27686  10.045   7.647  11.478
 8618SOL    HW127687   9.957   7.616  11.502
 8618SOL    HW227688  10.081   7.575  11.426
 8619SOL     OW27689   0.984   1.532   1.783
 8619SOL    HW127690   1.064   1.568   1.822
 8619SOL    HW227691   0.918   1.539   1.852
 8620SOL     OW27692  13.231   6.374   3.820
 8620SOL    HW127693  13.243   6.311   3.749
 8620SOL    HW227694  13.270   6.455   3.787
 8621SOL     OW27695   6.640   5.486  13.525
 8621SOL    HW127696   6.714   5.515  13.579
 8621SOL    HW227697   6.665   5.398  13.495
 8622SOL     OW27698   1.230  12.724   8.292
 8622SOL    HW127699   1.310  12.775   8.301
 8622SOL    HW227700   1.260  12.636   8.268
 8623SOL     OW27701   5.771   8.763   3.891
 8623SOL    HW127702   5.729   8.683   3.859
 8623SOL    HW227703   5.776   8.751   3.986
 8624SOL     OW27704   9.995   7.418   9.514
 8624SOL    HW127705   9.969   7.406   9.606
 8624SOL    HW227706  10.006   7.329   9.481
 8625SOL     OW27707  12.842   0.214  11.078
 8625SOL    HW127708  12.886   0.162  11.146
 8625SOL    HW227709  12.804   0.288  11.125
 8626SOL     OW27710   8.903  12.811   8.036
 8626SOL    HW127711   8.820  12.830   8.079
 8626SOL    HW227712   8.925  12.722   8.064
 8627SOL     OW27713  11.313   1.248   9.062
 8627SOL    HW127714  11.403   1.280   9.061
 8627SOL    HW227715  11.314   1.175   9.124
 8628SOL     OW27716   3.711   6.543   1.023
 8628SOL    HW127717   3.700   6.582   0.937
 8628SOL    HW227718   3.800   6.508   1.022
 8629SOL     OW27719   1.067   3.328   8.526
 8629SOL    HW127720   0.974   3.346   8.514
 8629SOL    HW227721   1.069   3.242   8.568
 8630SOL     OW27722   6.937   4.951   4.900
 8630SOL    HW127723   6.922   5.028   4.844
 8630SOL    HW227724   7.024   4.920   4.874
 8631SOL     OW27725   8.431   6.211   7.760
 8631SOL    HW127726   8.382   6.246   7.834
 8631SOL    HW227727   8.364   6.182   7.698
 8632SOL     OW27728  13.234   8.072  14.708
 8632SOL    HW127729  13.308   8.018  14.680
 8632SOL    HW227730  13.182   8.085  14.629
 8633SOL     OW27731   1.746   6.958   2.425
 8633SOL    HW127732   1.803   7.026   2.460
 8633SOL    HW227733   1.769   6.951   2.333
 8634SOL     OW27734   6.989   1.826  12.322
 8634SOL    HW127735   7.047   1.897  12.297
 8634SOL    HW227736   7.006   1.813  12.416
 8635SOL     OW27737  12.748   7.281  12.967
 8635SOL    HW127738  12.797   7.316  13.041
 8635SOL    HW227739  12.660   7.265  13.001
 8636SOL     OW27740  10.974   6.008   6.221
 8636SOL    HW127741  10.953   5.920   6.249
 8636SOL    HW227742  11.003   6.053   6.300
 8637SOL     OW27743   4.433  10.256   3.785
 8637SOL    HW127744   4.436  10.344   3.748
 8637SOL    HW227745   4.431  10.270   3.880
 8638SOL     OW27746   7.620   3.293  11.609
 8638SOL    HW127747   7.630   3.205  11.646
 8638SOL    HW227748   7.528   3.315  11.624
 8639SOL     OW27749   8.221   6.349   5.534
 8639SOL    HW127750   8.145   6.393   5.496
 8639SOL    HW227751   8.242   6.281   5.471
 8640SOL     OW27752  14.441  10.889  13.732
 8640SOL    HW127753  14.386  10.905  13.809
 8640SOL    HW227754  14.492  10.811  13.755
 8641SOL     OW27755   8.579   7.845  11.851
 8641SOL    HW127756   8.515   7.779  11.824
 8641SOL    HW227757   8.610   7.883  11.769
 8642SOL     OW27758   6.754   9.584   2.600
 8642SOL    HW127759   6.716   9.504   2.636
 8642SOL    HW227760   6.848   9.573   2.610
 8643SOL     OW27761  11.990   0.753   2.340
 8643SOL    HW127762  12.063   0.693   2.321
 8643SOL    HW227763  12.033   0.832   2.374
 8644SOL     OW27764   4.841   6.297   5.998
 8644SOL    HW127765   4.767   6.357   5.996
 8644SOL    HW227766   4.916   6.352   6.018
 8645SOL     OW27767  10.148   5.960   8.263
 8645SOL    HW127768  10.168   6.005   8.181
 8645SOL    HW227769  10.105   6.027   8.317
 8646SOL     OW27770   5.564   1.682   4.622
 8646SOL    HW127771   5.578   1.768   4.583
 8646SOL    HW227772   5.651   1.644   4.629
 8647SOL     OW27773   2.459  14.412  10.024
 8647SOL    HW127774   2.526  14.356   9.984
 8647SOL    HW227775   2.508  14.475  10.077
 8648SOL     OW27776   9.802   5.121  11.149
 8648SOL    HW127777   9.849   5.089  11.072
 8648SOL    HW227778   9.865   5.174  11.197
 8649SOL     OW27779   1.779   0.809   4.826
 8649SOL    HW127780   1.812   0.853   4.748
 8649SOL    HW227781   1.685   0.798   4.809
 8650SOL     OW27782  12.761   1.762  13.630
 8650SOL    HW127783  12.730   1.848  13.658
 8650SOL    HW227784  12.821   1.781  13.558
 8651SOL     OW27785  14.599  12.506   2.752
 8651SOL    HW127786  14.571  12.427   2.798
 8651SOL    HW227787  14.522  12.535   2.704
 8652SOL     OW27788   2.824   5.420   5.273
 8652SOL    HW127789   2.774   5.359   5.218
 8652SOL    HW227790   2.899   5.369   5.302
 8653SOL     OW27791   6.319   1.288   8.881
 8653SOL    HW127792   6.242   1.250   8.922
 8653SOL    HW227793   6.291   1.309   8.791
 8654SOL     OW27794   6.861   3.732   5.138
 8654SOL    HW127795   6.814   3.723   5.056
 8654SOL    HW227796   6.888   3.643   5.161
 8655SOL     OW27797   5.550  12.136  13.842
 8655SOL    HW127798   5.580  12.079  13.913
 8655SOL    HW227799   5.591  12.100  13.763
 8656SOL     OW27800   3.230   9.191  13.002
 8656SOL    HW127801   3.299   9.127  13.022
 8656SOL    HW227802   3.159   9.138  12.966
 8657SOL     OW27803   1.171  12.490  13.526
 8657SOL    HW127804   1.081  12.490  13.557
 8657SOL    HW227805   1.205  12.404  13.551
 8658SOL     OW27806   6.529   3.525   5.920
 8658SOL    HW127807   6.452   3.495   5.872
 8658SOL    HW227808   6.579   3.445   5.936
 8659SOL     OW27809   6.541  12.296   9.449
 8659SOL    HW127810   6.615  12.355   9.460
 8659SOL    HW227811   6.504  12.287   9.537
 8660SOL     OW27812   7.478  14.151  12.711
 8660SOL    HW127813   7.431  14.069  12.716
 8660SOL    HW227814   7.422  14.209  12.659
 8661SOL     OW27815   4.611   7.537  10.739
 8661SOL    HW127816   4.618   7.498  10.825
 8661SOL    HW227817   4.568   7.470  10.685
 8662SOL     OW27818  13.237   4.996  14.304
 8662SOL    HW127819  13.164   5.001  14.242
 8662SOL    HW227820  13.230   5.075  14.357
 8663SOL     OW27821  12.541   7.867  12.070
 8663SOL    HW127822  12.611   7.931  12.079
 8663SOL    HW227823  12.483   7.885  12.144
 8664SOL     OW27824  10.018   5.302   6.513
 8664SOL    HW127825   9.980   5.216   6.531
 8664SOL    HW227826  10.028   5.304   6.418
 8665SOL     OW27827  12.298   5.125   6.361
 8665SOL    HW127828  12.316   5.185   6.434
 8665SOL    HW227829  12.213   5.153   6.327
 8666SOL     OW27830   0.394   8.056   1.590
 8666SOL    HW127831   0.360   7.991   1.528
 8666SOL    HW227832   0.465   8.011   1.636
 8667SOL     OW27833   1.655   1.240  11.476
 8667SOL    HW127834   1.570   1.199  11.492
 8667SOL    HW227835   1.685   1.268  11.563
 8668SOL     OW27836  12.280   3.524   6.581
 8668SOL    HW127837  12.334   3.596   6.616
 8668SOL    HW227838  12.276   3.461   6.653
 8669SOL     OW27839   6.990   6.542   5.536
 8669SOL    HW127840   6.992   6.551   5.441
 8669SOL    HW227841   7.028   6.623   5.569
 8670SOL     OW27842   3.896  14.673   1.468
 8670SOL    HW127843   3.844  14.678   1.388
 8670SOL    HW227844   3.975  14.724   1.448
 8671SOL     OW27845   1.753   6.528   0.721
 8671SOL    HW127846   1.665   6.494   0.701
 8671SOL    HW227847   1.811   6.473   0.668
 8672SOL     OW27848   2.268   9.168   0.199
 8672SOL    HW127849   2.178   9.138   0.186
 8672SOL    HW227850   2.322   9.100   0.158
 8673SOL     OW27851   4.802   6.792  13.468
 8673SOL    HW127852   4.813   6.697  13.476
 8673SOL    HW227853   4.872   6.829  13.523
 8674SOL     OW27854   8.211   6.414  14.212
 8674SOL    HW127855   8.149   6.411  14.140
 8674SOL    HW227856   8.262   6.334  14.204
 8675SOL     OW27857   5.258   8.361  14.743
 8675SOL    HW127858   5.230   8.303  14.673
 8675SOL    HW227859   5.351   8.376  14.726
 8676SOL     OW27860   0.003   0.013   1.267
 8676SOL    HW127861   0.073   0.078   1.265
 8676SOL    HW227862   0.046  14.810   1.290
 8677SOL     OW27863   3.116  11.934   0.848
 8677SOL    HW127864   3.206  11.944   0.816
 8677SOL    HW227865   3.108  12.000   0.918
 8678SOL     OW27866   7.771   4.095  13.362
 8678SOL    HW127867   7.795   4.013  13.407
 8678SOL    HW227868   7.780   4.163  13.429
 8679SOL     OW27869  10.439  11.722   2.169
 8679SOL    HW127870  10.514  11.665   2.151
 8679SOL    HW227871  10.387  11.674   2.234
 8680SOL     OW27872   1.624   9.449  11.793
 8680SOL    HW127873   1.684   9.400  11.849
 8680SOL    HW227874   1.562   9.489  11.855
 8681SOL     OW27875   7.179   3.494   0.839
 8681SOL    HW127876   7.168   3.485   0.744
 8681SOL    HW227877   7.189   3.405   0.871
 8682SOL     OW27878  12.476  13.989   8.655
 8682SOL    HW127879  12.478  14.049   8.730
 8682SOL    HW227880  12.561  14.000   8.613
 8683SOL     OW27881   8.604   3.618   3.400
 8683SOL    HW127882   8.680   3.632   3.344
 8683SOL    HW227883   8.560   3.702   3.402
 8684SOL     OW27884   1.379   5.611   5.247
 8684SOL    HW127885   1.438   5.685   5.234
 8684SOL    HW227886   1.407   5.572   5.329
 8685SOL     OW27887   2.130  10.395  13.188
 8685SOL    HW127888   2.041  10.391  13.224
 8685SOL    HW227889   2.187  10.391  13.264
 8686SOL     OW27890  13.056   3.227  14.465
 8686SOL    HW127891  13.084   3.315  14.493
 8686SOL    HW227892  13.110   3.167  14.517
 8687SOL     OW27893  12.570  13.358   1.270
 8687SOL    HW127894  12.483  13.388   1.241
 8687SOL    HW227895  12.627  13.433   1.254
 8688SOL     OW27896   5.357   0.268   6.406
 8688SOL    HW127897   5.345   0.360   6.430
 8688SOL    HW227898   5.374   0.270   6.312
 8689SOL     OW27899   6.873   0.198   8.069
 8689SOL    HW127900   6.957   0.210   8.025
 8689SOL    HW227901   6.894   0.145   8.146
 8690SOL     OW27902   5.015  10.134   1.995
 8690SOL    HW127903   4.987  10.077   1.924
 8690SOL    HW227904   5.087  10.185   1.958
 8691SOL     OW27905   2.638  10.604  12.900
 8691SOL    HW127906   2.548  10.577  12.918
 8691SOL    HW227907   2.631  10.695  12.873
 8692SOL     OW27908   0.062   9.023   9.784
 8692SOL    HW127909   0.055   8.934   9.748
 8692SOL    HW227910   0.097   9.010   9.872
 8693SOL     OW27911   3.849   1.015  14.313
 8693SOL    HW127912   3.880   1.028  14.402
 8693SOL    HW227913   3.892   1.083  14.262
 8694SOL     OW27914   1.164   8.960   2.550
 8694SOL    HW127915   1.181   9.001   2.635
 8694SOL    HW227916   1.118   9.028   2.500
 8695SOL     OW27917   1.891  13.543  14.511
 8695SOL    HW127918   1.924  13.629  14.538
 8695SOL    HW227919   1.857  13.504  14.591
 8696SOL     OW27920   5.394  12.904   4.147
 8696SOL    HW127921   5.327  12.947   4.201
 8696SOL    HW227922   5.350  12.826   4.114
 8697SOL     OW27923   2.556  10.780   9.571
 8697SOL    HW127924   2.530  10.837   9.643
 8697SOL    HW227925   2.650  10.795   9.562
 8698SOL     OW27926   8.730  10.511  12.572
 8698SOL    HW127927   8.799  10.482  12.632
 8698SOL    HW227928   8.729  10.606  12.579
 8699SOL     OW27929   9.265   6.473  10.954
 8699SOL    HW127930   9.200   6.413  10.917
 8699SOL    HW227931   9.322   6.495  10.881
 8700SOL     OW27932  14.142   0.294  12.757
 8700SOL    HW127933  14.151   0.286  12.852
 8700SOL    HW227934  14.229   0.318  12.726
 8701SOL     OW27935  11.603   2.309   1.611
 8701SOL    HW127936  11.539   2.333   1.678
 8701SOL    HW227937  11.668   2.257   1.658
 8702SOL     OW27938   3.974   1.827   3.839
 8702SOL    HW127939   3.912   1.753   3.842
 8702SOL    HW227940   4.019   1.824   3.923
 8703SOL     OW27941  14.048  14.371   3.052
 8703SOL    HW127942  13.963  14.346   3.018
 8703SOL    HW227943  14.038  14.365   3.147
 8704SOL     OW27944  11.225  10.930  10.647
 8704SOL    HW127945  11.171  10.935  10.727
 8704SOL    HW227946  11.240  10.837  10.634
 8705SOL     OW27947  14.806   3.758   9.361
 8705SOL    HW127948  14.861   3.835   9.349
 8705SOL    HW227949  14.864   3.684   9.346
 8706SOL     OW27950   2.807   7.418   0.083
 8706SOL    HW127951   2.720   7.377   0.081
 8706SOL    HW227952   2.851   7.379   0.159
 8707SOL     OW27953   8.844   6.062   2.842
 8707SOL    HW127954   8.888   6.144   2.866
 8707SOL    HW227955   8.773   6.053   2.906
 8708SOL     OW27956  11.081   4.534   1.106
 8708SOL    HW127957  11.103   4.441   1.110
 8708SOL    HW227958  11.153   4.578   1.153
 8709SOL     OW27959   0.137  14.135   3.210
 8709SOL    HW127960   0.142  14.230   3.224
 8709SOL    HW227961   0.192  14.119   3.134
 8710SOL     OW27962   5.470  12.272   9.668
 8710SOL    HW127963   5.479  12.213   9.743
 8710SOL    HW227964   5.499  12.219   9.593
 8711SOL     OW27965   7.097  10.364   6.828
 8711SOL    HW127966   7.009  10.329   6.827
 8711SOL    HW227967   7.153  10.290   6.806
 8712SOL     OW27968   4.477   4.757   6.841
 8712SOL    HW127969   4.547   4.693   6.858
 8712SOL    HW227970   4.476   4.812   6.918
 8713SOL     OW27971   6.851   0.021  14.229
 8713SOL    HW127972   6.875   0.111  14.251
 8713SOL    HW227973   6.756   0.024  14.217
 8714SOL     OW27974   9.069   1.174   5.184
 8714SOL    HW127975   9.121   1.094   5.182
 8714SOL    HW227976   9.034   1.178   5.273
 8715SOL     OW27977   7.978  11.159   8.466
 8715SOL    HW127978   7.938  11.222   8.527
 8715SOL    HW227979   7.958  11.193   8.379
 8716SOL     OW27980   7.031   7.282   8.623
 8716SOL    HW127981   6.948   7.327   8.638
 8716SOL    HW227982   7.086   7.308   8.697
 8717SOL     OW27983   3.394   3.785  14.633
 8717SOL    HW127984   3.400   3.880  14.637
 8717SOL    HW227985   3.312   3.764  14.678
 8718SOL     OW27986   2.895   7.208   4.273
 8718SOL    HW127987   2.882   7.163   4.357
 8718SOL    HW227988   2.908   7.138   4.210
 8719SOL     OW27989   2.858   2.527  12.587
 8719SOL    HW127990   2.873   2.621  12.584
 8719SOL    HW227991   2.941   2.488  12.562
 8720SOL     OW27992  14.614   8.380   4.444
 8720SOL    HW127993  14.705   8.382   4.474
 8720SOL    HW227994  14.574   8.310   4.494
 8721SOL     OW27995  12.324  10.254  12.032
 8721SOL    HW127996  12.266  10.181  12.012
 8721SOL    HW227997  12.275  10.307  12.095
 8722SOL     OW27998   9.173  14.222   5.210
 8722SOL    HW127999   9.080  14.200   5.201
 8722SOL    HW228000   9.218  14.157   5.156
 8723SOL     OW28001   2.400   9.017   3.074
 8723SOL    HW128002   2.461   9.058   3.136
 8723SOL    HW228003   2.405   9.072   2.996
 8724SOL     OW28004   0.784   2.058  11.309
 8724SOL    HW128005   0.789   1.994  11.380
 8724SOL    HW228006   0.744   2.010  11.236
 8725SOL     OW28007  13.126   5.249  11.950
 8725SOL    HW128008  13.163   5.307  11.884
 8725SOL    HW228009  13.197   5.234  12.012
 8726SOL     OW28010  12.574   5.116  13.769
 8726SOL    HW128011  12.577   5.208  13.742
 8726SOL    HW228012  12.573   5.067  13.686
 8727SOL     OW28013  13.864   6.564   1.859
 8727SOL    HW128014  13.857   6.469   1.855
 8727SOL    HW228015  13.945   6.584   1.812
 8728SOL     OW28016  13.017  12.161   7.649
 8728SOL    HW128017  13.022  12.179   7.743
 8728SOL    HW228018  12.926  12.181   7.626
 8729SOL     OW28019  13.913   0.284   0.329
 8729SOL    HW128020  13.978   0.253   0.267
 8729SOL    HW228021  13.829   0.256   0.292
 8730SOL     OW28022  11.240   5.535   1.404
 8730SOL    HW128023  11.326   5.494   1.404
 8730SOL    HW228024  11.209   5.525   1.314
 8731SOL     OW28025  10.963   3.064  12.615
 8731SOL    HW128026  10.934   3.096  12.530
 8731SOL    HW228027  11.051   3.032  12.600
 8732SOL     OW28028   5.286  11.661   1.222
 8732SOL    HW128029   5.288  11.601   1.147
 8732SOL    HW228030   5.196  11.694   1.224
 8733SOL     OW28031   8.040   5.389   7.450
 8733SOL    HW128032   8.089   5.320   7.406
 8733SOL    HW228033   8.107   5.451   7.479
 8734SOL     OW28034   4.320   6.043   4.137
 8734SOL    HW128035   4.287   6.026   4.226
 8734SOL    HW228036   4.372   6.123   4.145
 8735SOL     OW28037   3.080   7.488   4.735
 8735SOL    HW128038   3.113   7.500   4.646
 8735SOL    HW228039   3.056   7.396   4.740
 8736SOL     OW28040   3.890   8.949   3.584
 8736SOL    HW128041   3.896   8.976   3.493
 8736SOL    HW228042   3.981   8.938   3.612
 8737SOL     OW28043   7.860   0.842   5.668
 8737SOL    HW128044   7.886   0.865   5.757
 8737SOL    HW228045   7.837   0.926   5.627
 8738SOL     OW28046  11.318  14.004   5.791
 8738SOL    HW128047  11.400  13.955   5.795
 8738SOL    HW228048  11.254  13.948   5.834
 8739SOL     OW28049   5.186   0.489   9.634
 8739SOL    HW128050   5.259   0.427   9.631
 8739SOL    HW228051   5.228   0.574   9.646
 8740SOL     OW28052   4.682   2.595   5.797
 8740SOL    HW128053   4.745   2.527   5.823
 8740SOL    HW228054   4.733   2.656   5.745
 8741SOL     OW28055   6.848   1.153  13.427
 8741SOL    HW128056   6.905   1.157  13.504
 8741SOL    HW228057   6.835   1.245  13.402
 8742SOL     OW28058   9.592  10.900   8.897
 8742SOL    HW128059   9.555  10.827   8.848
 8742SOL    HW228060   9.600  10.867   8.987
 8743SOL     OW28061   0.738   6.195   8.095
 8743SOL    HW128062   0.816   6.249   8.092
 8743SOL    HW228063   0.706   6.193   8.005
 8744SOL     OW28064   5.379   6.615  10.880
 8744SOL    HW128065   5.423   6.695  10.906
 8744SOL    HW228066   5.445   6.546  10.891
 8745SOL     OW28067   0.586   6.114   6.994
 8745SOL    HW128068   0.620   6.061   7.066
 8745SOL    HW228069   0.512   6.162   7.032
 8746SOL     OW28070  12.624  14.371  11.197
 8746SOL    HW128071  12.558  14.409  11.255
 8746SOL    HW228072  12.582  14.372  11.110
 8747SOL     OW28073   2.388   8.314   2.011
 8747SOL    HW128074   2.399   8.236   2.065
 8747SOL    HW228075   2.293   8.326   2.005
 8748SOL     OW28076   0.240   9.058   7.130
 8748SOL    HW128077   0.315   9.081   7.075
 8748SOL    HW228078   0.275   9.055   7.219
 8749SOL     OW28079  13.678   8.446   7.908
 8749SOL    HW128080  13.710   8.365   7.948
 8749SOL    HW228081  13.589   8.426   7.880
 8750SOL     OW28082   4.442  10.536   3.698
 8750SOL    HW128083   4.455  10.573   3.785
 8750SOL    HW228084   4.432  10.612   3.640
 8751SOL     OW28085   4.069  12.597  12.615
 8751SOL    HW128086   4.109  12.568  12.697
 8751SOL    HW228087   4.093  12.690  12.608
 8752SOL     OW28088   3.584  10.118   0.709
 8752SOL    HW128089   3.604  10.087   0.621
 8752SOL    HW228090   3.669  10.127   0.752
 8753SOL     OW28091   2.023  13.833  11.194
 8753SOL    HW128092   2.000  13.890  11.121
 8753SOL    HW228093   2.075  13.763  11.154
 8754SOL     OW28094   6.092  10.219  14.630
 8754SOL    HW128095   6.115  10.253  14.543
 8754SOL    HW228096   6.152  10.265  14.690
 8755SOL     OW28097  11.385   3.122   7.965
 8755SOL    HW128098  11.387   3.026   7.958
 8755SOL    HW228099  11.305   3.147   7.919
 8756SOL     OW28100   1.793   9.665   0.033
 8756SOL    HW128101   1.815   9.671   0.126
 8756SOL    HW228102   1.710   9.616   0.032
 8757SOL     OW28103   9.594   8.707  12.828
 8757SOL    HW128104   9.526   8.764  12.864
 8757SOL    HW228105   9.596   8.633  12.889
 8758SOL     OW28106   1.649  12.185  12.656
 8758SOL    HW128107   1.667  12.153  12.568
 8758SOL    HW228108   1.633  12.279  12.644
 8759SOL     OW28109   9.497  10.977   1.686
 8759SOL    HW128110   9.496  10.882   1.671
 8759SOL    HW228111   9.500  11.015   1.598
 8760SOL     OW28112   0.324  11.360  11.930
 8760SOL    HW128113   0.244  11.332  11.885
 8760SOL    HW228114   0.299  11.439  11.978
 8761SOL     OW28115   3.755   1.198   0.593
 8761SOL    HW128116   3.732   1.119   0.641
 8761SOL    HW228117   3.834   1.175   0.545
 8762SOL     OW28118  10.590  12.509  11.659
 8762SOL    HW128119  10.562  12.496  11.568
 8762SOL    HW228120  10.677  12.470  11.663
 8763SOL     OW28121   8.441  13.994   0.188
 8763SOL    HW128122   8.416  13.927   0.252
 8763SOL    HW228123   8.517  13.957   0.142
 8764SOL     OW28124   4.763  11.094   6.319
 8764SOL    HW128125   4.799  11.027   6.376
 8764SOL    HW228126   4.757  11.052   6.233
 8765SOL     OW28127   9.249   6.023   1.043
 8765SOL    HW128128   9.230   6.116   1.060
 8765SOL    HW228129   9.273   6.020   0.951
 8766SOL     OW28130   3.803   9.961   3.473
 8766SOL    HW128131   3.763   9.969   3.387
 8766SOL    HW228132   3.869  10.030   3.477
 8767SOL     OW28133   9.001   7.958   7.285
 8767SOL    HW128134   9.012   7.927   7.374
 8767SOL    HW228135   9.080   8.009   7.267
 8768SOL     OW28136   5.671   6.112   7.447
 8768SOL    HW128137   5.649   6.074   7.532
 8768SOL    HW228138   5.765   6.132   7.453
 8769SOL     OW28139   0.291   9.077   7.679
 8769SOL    HW128140   0.353   9.044   7.743
 8769SOL    HW228141   0.236   9.138   7.729
 8770SOL     OW28142   3.169   5.110   5.980
 8770SOL    HW128143   3.189   5.037   5.921
 8770SOL    HW228144   3.237   5.175   5.962
 8771SOL     OW28145   2.006   5.544   7.264
 8771SOL    HW128146   1.916   5.522   7.288
 8771SOL    HW228147   2.004   5.555   7.169
 8772SOL     OW28148   6.566   4.156   8.749
 8772SOL    HW128149   6.646   4.120   8.711
 8772SOL    HW228150   6.595   4.234   8.796
 8773SOL     OW28151   9.343  10.022  14.202
 8773SOL    HW128152   9.409   9.955  14.186
 8773SOL    HW228153   9.358  10.088  14.134
 8774SOL     OW28154  10.934   6.334   9.784
 8774SOL    HW128155  11.020   6.299   9.806
 8774SOL    HW228156  10.943   6.366   9.694
 8775SOL     OW28157   6.698   6.476   2.999
 8775SOL    HW128158   6.682   6.508   2.910
 8775SOL    HW228159   6.647   6.395   3.006
 8776SOL     OW28160   8.166   0.779   3.656
 8776SOL    HW128161   8.162   0.736   3.571
 8776SOL    HW228162   8.260   0.790   3.673
 8777SOL     OW28163   5.110   6.318  13.622
 8777SOL    HW128164   5.151   6.369  13.692
 8777SOL    HW228165   5.157   6.235  13.621
 8778SOL     OW28166   7.290   2.922   2.665
 8778SOL    HW128167   7.209   2.877   2.688
 8778SOL    HW228168   7.261   3.008   2.634
 8779SOL     OW28169  11.723  14.074  12.442
 8779SOL    HW128170  11.706  14.059  12.349
 8779SOL    HW228171  11.742  13.987  12.477
 8780SOL     OW28172   3.580   9.020   2.581
 8780SOL    HW128173   3.574   9.084   2.652
 8780SOL    HW228174   3.581   8.935   2.626
 8781SOL     OW28175   0.914   4.514   4.703
 8781SOL    HW128176   0.926   4.460   4.625
 8781SOL    HW228177   0.824   4.497   4.731
 8782SOL     OW28178  10.934   4.600   0.523
 8782SOL    HW128179  10.853   4.617   0.477
 8782SOL    HW228180  10.921   4.638   0.610
 8783SOL     OW28181  12.688   3.187  12.138
 8783SOL    HW128182  12.679   3.094  12.161
 8783SOL    HW228183  12.765   3.191  12.082
 8784SOL     OW28184  11.744   5.178   3.364
 8784SOL    HW128185  11.809   5.164   3.432
 8784SOL    HW228186  11.788   5.232   3.298
 8785SOL     OW28187   9.513   7.574   0.122
 8785SOL    HW128188   9.428   7.571   0.166
 8785SOL    HW228189   9.561   7.643   0.167
 8786SOL     OW28190   6.109   1.131   9.020
 8786SOL    HW128191   6.044   1.062   9.013
 8786SOL    HW228192   6.144   1.123   9.109
 8787SOL     OW28193   2.321  10.301   5.843
 8787SOL    HW128194   2.254  10.369   5.835
 8787SOL    HW228195   2.303  10.259   5.927
 8788SOL     OW28196  12.207  12.647  12.917
 8788SOL    HW128197  12.167  12.656  13.003
 8788SOL    HW228198  12.167  12.716  12.865
 8789SOL     OW28199   7.884   4.716  10.014
 8789SOL    HW128200   7.935   4.635  10.015
 8789SOL    HW228201   7.834   4.712   9.932
 8790SOL     OW28202   4.875   6.956  14.537
 8790SOL    HW128203   4.956   6.979  14.492
 8790SOL    HW228204   4.810   7.015  14.500
 8791SOL     OW28205  13.767  10.832   0.570
 8791SOL    HW128206  13.679  10.797   0.582
 8791SOL    HW228207  13.770  10.863   0.480
 8792SOL     OW28208  10.802   5.409   0.863
 8792SOL    HW128209  10.834   5.499   0.851
 8792SOL    HW228210  10.845   5.378   0.943
 8793SOL     OW28211   9.824  11.784  10.548
 8793SOL    HW128212   9.810  11.869  10.508
 8793SOL    HW228213   9.920  11.776  10.554
 8794SOL     OW28214   4.763   4.106   3.150
 8794SOL    HW128215   4.809   4.027   3.121
 8794SOL    HW228216   4.699   4.075   3.213
 8795SOL     OW28217   5.481  14.676   8.025
 8795SOL    HW128218   5.505  14.657   8.115
 8795SOL    HW228219   5.552  14.731   7.992
 8796SOL     OW28220   6.344  10.459   1.180
 8796SOL    HW128221   6.371  10.523   1.246
 8796SOL    HW228222   6.314  10.512   1.106
 8797SOL     OW28223   9.358   3.411  11.847
 8797SOL    HW128224   9.288   3.477  11.840
 8797SOL    HW228225   9.313   3.327  11.835
 8798SOL     OW28226  13.142   3.867  13.854
 8798SOL    HW128227  13.236   3.865  13.868
 8798SOL    HW228228  13.117   3.775  13.844
 8799SOL     OW28229  11.165  10.023   5.759
 8799SOL    HW128230  11.131  10.112   5.775
 8799SOL    HW228231  11.153  10.010   5.665
 8800SOL     OW28232  10.777   0.922   0.223
 8800SOL    HW128233  10.807   0.836   0.194
 8800SOL    HW228234  10.756   0.909   0.316
 8801SOL     OW28235   5.847   8.688   6.436
 8801SOL    HW128236   5.904   8.743   6.382
 8801SOL    HW228237   5.898   8.608   6.451
 8802SOL     OW28238   1.171   4.374   9.887
 8802SOL    HW128239   1.194   4.458   9.848
 8802SOL    HW228240   1.152   4.395   9.979
 8803SOL     OW28241   2.520  12.767  12.853
 8803SOL    HW128242   2.485  12.681  12.829
 8803SOL    HW228243   2.572  12.794  12.778
 8804SOL     OW28244   6.142   1.764  14.124
 8804SOL    HW128245   6.194   1.817  14.184
 8804SOL    HW228246   6.059   1.811  14.117
 8805SOL     OW28247  13.667   4.073   8.448
 8805SOL    HW128248  13.659   4.005   8.381
 8805SOL    HW228249  13.699   4.026   8.525
 8806SOL     OW28250   4.487  11.865  10.954
 8806SOL    HW128251   4.487  11.890  10.862
 8806SOL    HW228252   4.463  11.772  10.954
 8807SOL     OW28253   7.417   9.111   0.303
 8807SOL    HW128254   7.502   9.089   0.341
 8807SOL    HW228255   7.419   9.206   0.292
 8808SOL     OW28256  11.649   3.975   0.566
 8808SOL    HW128257  11.554   3.963   0.556
 8808SOL    HW228258  11.673   4.036   0.496
 8809SOL     OW28259   0.518   0.991   5.787
 8809SOL    HW128260   0.488   1.029   5.870
 8809SOL    HW228261   0.596   0.940   5.811
 8810SOL     OW28262   0.521  10.253   5.136
 8810SOL    HW128263   0.593  10.307   5.105
 8810SOL    HW228264   0.562  10.168   5.155
 8811SOL     OW28265  14.411   9.574   0.457
 8811SOL    HW128266  14.473   9.634   0.415
 8811SOL    HW228267  14.325   9.612   0.438
 8812SOL     OW28268   5.832   4.498   9.806
 8812SOL    HW128269   5.803   4.444   9.880
 8812SOL    HW228270   5.928   4.493   9.810
 8813SOL     OW28271  12.533   9.936  10.374
 8813SOL    HW128272  12.567   9.989  10.302
 8813SOL    HW228273  12.462   9.989  10.412
 8814SOL     OW28274   7.690   6.087   6.387
 8814SOL    HW128275   7.618   6.024   6.391
 8814SOL    HW228276   7.706   6.098   6.293
 8815SOL     OW28277   4.490   7.551   0.415
 8815SOL    HW128278   4.506   7.608   0.490
 8815SOL    HW228279   4.476   7.464   0.454
 8816SOL     OW28280   7.074  14.678   9.195
 8816SOL    HW128281   7.044  14.639   9.277
 8816SOL    HW228282   7.116  14.606   9.148
 8817SOL     OW28283   0.878  13.930  13.443
 8817SOL    HW128284   0.864  13.995  13.511
 8817SOL    HW228285   0.912  13.979  13.368
 8818SOL     OW28286  10.919  11.863   0.838
 8818SOL    HW128287  10.890  11.947   0.801
 8818SOL    HW228288  10.846  11.803   0.821
 8819SOL     OW28289  11.727  12.518  14.629
 8819SOL    HW128290  11.649  12.543  14.579
 8819SOL    HW228291  11.771  12.453  14.574
 8820SOL     OW28292   6.483   0.721  11.248
 8820SOL    HW128293   6.394   0.736  11.278
 8820SOL    HW228294   6.538   0.750  11.320
 8821SOL     OW28295  10.465   5.370   9.303
 8821SOL    HW128296  10.483   5.288   9.256
 8821SOL    HW228297  10.449   5.434   9.233
 8822SOL     OW28298   3.785  13.081  10.823
 8822SOL    HW128299   3.824  13.152  10.774
 8822SOL    HW228300   3.821  13.089  10.911
 8823SOL     OW28301   0.654  13.442  13.532
 8823SOL    HW128302   0.613  13.418  13.615
 8823SOL    HW228303   0.748  13.444  13.552
 8824SOL     OW28304   4.963   5.633   8.003
 8824SOL    HW128305   4.868   5.633   7.991
 8824SOL    HW228306   4.987   5.541   8.005
 8825SOL     OW28307  13.806   4.145   7.728
 8825SOL    HW128308  13.877   4.196   7.768
 8825SOL    HW228309  13.741   4.210   7.704
 8826SOL     OW28310   4.754  11.354   0.434
 8826SOL    HW128311   4.794  11.431   0.393
 8826SOL    HW228312   4.816  11.283   0.419
 8827SOL     OW28313  12.647  12.428   6.544
 8827SOL    HW128314  12.659  12.334   6.534
 8827SOL    HW228315  12.731  12.466   6.519
 8828SOL     OW28316   7.132   6.283   6.957
 8828SOL    HW128317   7.049   6.264   7.001
 8828SOL    HW228318   7.107   6.328   6.876
 8829SOL     OW28319  14.271  12.435  14.085
 8829SOL    HW128320  14.339  12.428  14.152
 8829SOL    HW228321  14.296  12.511  14.033
 8830SOL     OW28322  10.055   2.996   1.153
 8830SOL    HW128323   9.983   3.027   1.098
 8830SOL    HW228324  10.124   3.062   1.143
 8831SOL     OW28325  10.878   2.519  12.093
 8831SOL    HW128326  10.816   2.582  12.055
 8831SOL    HW228327  10.873   2.535  12.187
 8832SOL     OW28328   2.281   0.063   6.836
 8832SOL    HW128329   2.273   0.020   6.750
 8832SOL    HW228330   2.259  14.874   6.899
 8833SOL     OW28331   7.697  11.946  11.522
 8833SOL    HW128332   7.713  11.952  11.428
 8833SOL    HW228333   7.620  11.889  11.530
 8834SOL     OW28334  12.182  11.969   9.231
 8834SOL    HW128335  12.105  11.938   9.183
 8834SOL    HW228336  12.253  11.963   9.167
 8835SOL     OW28337   7.611  14.152  10.195
 8835SOL    HW128338   7.627  14.154  10.290
 8835SOL    HW228339   7.537  14.210  10.182
 8836SOL     OW28340   6.537   8.995   5.731
 8836SOL    HW128341   6.447   8.999   5.699
 8836SOL    HW228342   6.587   8.960   5.657
 8837SOL     OW28343  13.503   1.916   0.145
 8837SOL    HW128344  13.551   1.933   0.227
 8837SOL    HW228345  13.519   1.993   0.091
 8838SOL     OW28346  13.569   0.095   9.799
 8838SOL    HW128347  13.520   0.064   9.723
 8838SOL    HW228348  13.541   0.186   9.811
 8839SOL     OW28349  12.287   9.205  11.624
 8839SOL    HW128350  12.197   9.238  11.628
 8839SOL    HW228351  12.279   9.110  11.631
 8840SOL     OW28352  12.107   0.314   0.171
 8840SOL    HW128353  12.096   0.251   0.100
 8840SOL    HW228354  12.201   0.312   0.191
 8841SOL     OW28355   3.306  11.579  10.028
 8841SOL    HW128356   3.344  11.666  10.023
 8841SOL    HW228357   3.265  11.576  10.115
 8842SOL     OW28358   6.055   2.973  11.829
 8842SOL    HW128359   6.033   2.896  11.881
 8842SOL    HW228360   6.147   2.961  11.804
 8843SOL     OW28361  10.948  10.021  11.236
 8843SOL    HW128362  10.926  10.090  11.173
 8843SOL    HW228363  10.883   9.953  11.220
 8844SOL     OW28364  12.909   7.697   0.727
 8844SOL    HW128365  12.889   7.636   0.656
 8844SOL    HW228366  13.004   7.703   0.728
 8845SOL     OW28367  10.909  10.028   2.700
 8845SOL    HW128368  10.844   9.988   2.757
 8845SOL    HW228369  10.885   9.999   2.612
 8846SOL     OW28370   9.606   4.678   5.445
 8846SOL    HW128371   9.629   4.702   5.355
 8846SOL    HW228372   9.555   4.597   5.435
 8847SOL     OW28373   6.070   7.768   2.124
 8847SOL    HW128374   6.122   7.692   2.149
 8847SOL    HW228375   6.121   7.843   2.154
 8848SOL     OW28376   0.081   7.863  13.558
 8848SOL    HW128377   0.170   7.896  13.545
 8848SOL    HW228378   0.025   7.939  13.544
 8849SOL     OW28379   4.265   5.028  10.421
 8849SOL    HW128380   4.237   4.939  10.400
 8849SOL    HW228381   4.357   5.020  10.445
 8850SOL     OW28382  11.909  10.196   0.598
 8850SOL    HW128383  11.969  10.134   0.639
 8850SOL    HW228384  11.871  10.147   0.525
 8851SOL     OW28385   7.140   3.605  11.152
 8851SOL    HW128386   7.075   3.549  11.193
 8851SOL    HW228387   7.185   3.549  11.088
 8852SOL     OW28388   1.581   5.613   5.726
 8852SOL    HW128389   1.591   5.669   5.649
 8852SOL    HW228390   1.667   5.572   5.738
 8853SOL     OW28391   1.983   0.807   6.745
 8853SOL    HW128392   2.076   0.785   6.733
 8853SOL    HW228393   1.938   0.754   6.680
 8854SOL     OW28394  12.465   0.970  11.128
 8854SOL    HW128395  12.436   0.891  11.175
 8854SOL    HW228396  12.515   0.937  11.053
 8855SOL     OW28397   1.794   5.593  13.559
 8855SOL    HW128398   1.756   5.511  13.591
 8855SOL    HW228399   1.865   5.612  13.620
 8856SOL     OW28400   1.047  10.658   2.673
 8856SOL    HW128401   1.121  10.610   2.637
 8856SOL    HW228402   0.982  10.591   2.694
 8857SOL     OW28403   5.551   2.337   8.996
 8857SOL    HW128404   5.643   2.356   9.014
 8857SOL    HW228405   5.538   2.248   9.029
 8858SOL     OW28406   1.876  11.355   0.117
 8858SOL    HW128407   1.843  11.288   0.057
 8858SOL    HW228408   1.902  11.428   0.060
 8859SOL     OW28409  10.634   4.958  10.271
 8859SOL    HW128410  10.716   4.961  10.221
 8859SOL    HW228411  10.575   5.015  10.223
 8860SOL     OW28412   3.693   7.586   6.987
 8860SOL    HW128413   3.605   7.609   6.957
 8860SOL    HW228414   3.751   7.608   6.915
 8861SOL     OW28415   8.112   3.443   2.682
 8861SOL    HW128416   8.070   3.484   2.606
 8861SOL    HW228417   8.111   3.349   2.661
 8862SOL     OW28418   0.422   4.495  12.865
 8862SOL    HW128419   0.385   4.479  12.778
 8862SOL    HW228420   0.348   4.523  12.918
 8863SOL     OW28421   7.132   4.340   2.395
 8863SOL    HW128422   7.113   4.381   2.479
 8863SOL    HW228423   7.221   4.369   2.374
 8864SOL     OW28424  10.811   1.302   7.648
 8864SOL    HW128425  10.868   1.257   7.585
 8864SOL    HW228426  10.782   1.381   7.601
 8865SOL     OW28427  13.677  12.393   5.173
 8865SOL    HW128428  13.677  12.366   5.265
 8865SOL    HW228429  13.587  12.378   5.144
 8866SOL     OW28430  14.693   5.869  14.148
 8866SOL    HW128431  14.673   5.879  14.055
 8866SOL    HW228432  14.784   5.839  14.150
 8867SOL     OW28433   9.710  11.069  10.891
 8867SOL    HW128434   9.653  11.145  10.887
 8867SOL    HW228435   9.682  11.013  10.818
 8868SOL     OW28436   9.322   1.974   7.909
 8868SOL    HW128437   9.290   1.896   7.955
 8868SOL    HW228438   9.244   2.008   7.864
 8869SOL     OW28439  11.566   0.610  10.995
 8869SOL    HW128440  11.612   0.588  11.076
 8869SOL    HW228441  11.478   0.634  11.022
 8870SOL     OW28442  14.224  13.338   0.457
 8870SOL    HW128443  14.203  13.301   0.372
 8870SOL    HW228444  14.278  13.414   0.438
 8871SOL     OW28445   6.952  13.862   6.891
 8871SOL    HW128446   7.016  13.795   6.915
 8871SOL    HW228447   6.900  13.823   6.821
 8872SOL     OW28448  13.114   7.079  12.766
 8872SOL    HW128449  13.064   7.083  12.848
 8872SOL    HW228450  13.205   7.094  12.793
 8873SOL     OW28451  13.938   8.668   6.921
 8873SOL    HW128452  13.911   8.581   6.949
 8873SOL    HW228453  14.018   8.653   6.870
 8874SOL     OW28454  12.833   2.231  13.417
 8874SOL    HW128455  12.926   2.212  13.430
 8874SOL    HW228456  12.821   2.229  13.322
 8875SOL     OW28457   2.083   2.711   5.287
 8875SOL    HW128458   2.121   2.711   5.199
 8875SOL    HW228459   2.152   2.747   5.343
 8876SOL     OW28460   0.622   7.759   8.580
 8876SOL    HW128461   0.699   7.703   8.570
 8876SOL    HW228462   0.629   7.823   8.509
 8877SOL     OW28463   4.921   5.434   6.376
 8877SOL    HW128464   5.005   5.463   6.413
 8877SOL    HW228465   4.913   5.342   6.403
 8878SOL     OW28466   0.395   2.607   9.410
 8878SOL    HW128467   0.373   2.519   9.441
 8878SOL    HW228468   0.409   2.657   9.491
 8879SOL     OW28469  13.355   5.632   9.502
 8879SOL    HW128470  13.357   5.720   9.465
 8879SOL    HW228471  13.261   5.612   9.512
 8880SOL     OW28472   7.129   6.633   5.036
 8880SOL    HW128473   7.159   6.589   5.115
 8880SOL    HW228474   7.099   6.562   4.979
 8881SOL     OW28475  13.273   6.784   2.655
 8881SOL    HW128476  13.331   6.828   2.718
 8881SOL    HW228477  13.333   6.744   2.592
 8882SOL     OW28478   2.191  11.498   2.101
 8882SOL    HW128479   2.106  11.541   2.091
 8882SOL    HW228480   2.186  11.421   2.045
 8883SOL     OW28481   0.536   4.628  14.224
 8883SOL    HW128482   0.607   4.688  14.199
 8883SOL    HW228483   0.456   4.679  14.213
 8884SOL     OW28484  12.278  11.139   3.799
 8884SOL    HW128485  12.332  11.212   3.767
 8884SOL    HW228486  12.315  11.119   3.885
 8885SOL     OW28487   3.238  13.349   5.447
 8885SOL    HW128488   3.190  13.309   5.519
 8885SOL    HW228489   3.220  13.443   5.455
 8886SOL     OW28490  14.832   2.005   7.322
 8886SOL    HW128491  14.790   2.063   7.385
 8886SOL    HW228492  14.857   1.927   7.373
 8887SOL     OW28493   1.418   6.758   9.633
 8887SOL    HW128494   1.482   6.701   9.591
 8887SOL    HW228495   1.340   6.703   9.643
 8888SOL     OW28496   1.126   0.793   0.308
 8888SOL    HW128497   1.124   0.699   0.291
 8888SOL    HW228498   1.193   0.804   0.376
 8889SOL     OW28499  11.572   7.722   1.531
 8889SOL    HW128500  11.545   7.722   1.439
 8889SOL    HW228501  11.630   7.647   1.539
 8890SOL     OW28502   4.928   7.930   5.767
 8890SOL    HW128503   4.901   7.978   5.689
 8890SOL    HW228504   4.995   7.869   5.737
 8891SOL     OW28505   1.068   8.397  10.487
 8891SOL    HW128506   1.086   8.376  10.396
 8891SOL    HW228507   0.982   8.440  10.485
 8892SOL     OW28508   3.663   1.934   6.961
 8892SOL    HW128509   3.595   1.911   6.898
 8892SOL    HW228510   3.632   2.015   7.002
 8893SOL     OW28511   9.054   4.890  10.157
 8893SOL    HW128512   9.134   4.910  10.205
 8893SOL    HW228513   9.079   4.895  10.065
 8894SOL     OW28514   0.340  12.468   1.275
 8894SOL    HW128515   0.288  12.547   1.258
 8894SOL    HW228516   0.275  12.399   1.287
 8895SOL     OW28517   4.572  10.668   9.143
 8895SOL    HW128518   4.484  10.636   9.123
 8895SOL    HW228519   4.630  10.617   9.087
 8896SOL     OW28520  12.793  10.137  11.364
 8896SOL    HW128521  12.830  10.056  11.327
 8896SOL    HW228522  12.830  10.207  11.310
 8897SOL     OW28523  12.274   8.126   7.809
 8897SOL    HW128524  12.314   8.040   7.800
 8897SOL    HW228525  12.183   8.109   7.831
 8898SOL     OW28526   2.057  12.592  11.477
 8898SOL    HW128527   1.969  12.571  11.446
 8898SOL    HW228528   2.104  12.509  11.470
 8899SOL     OW28529  11.994   7.318   0.834
 8899SOL    HW128530  11.977   7.407   0.804
 8899SOL    HW228531  12.056   7.282   0.770
 8900SOL     OW28532  10.578   8.356   6.849
 8900SOL    HW128533  10.545   8.309   6.773
 8900SOL    HW228534  10.583   8.447   6.821
 8901SOL     OW28535   6.631   6.484  13.858
 8901SOL    HW128536   6.695   6.449  13.795
 8901SOL    HW228537   6.576   6.542  13.806
 8902SOL     OW28538   7.346  10.468   3.040
 8902SOL    HW128539   7.427  10.488   3.086
 8902SOL    HW228540   7.295  10.416   3.103
 8903SOL     OW28541   4.004   6.265  12.876
 8903SOL    HW128542   3.951   6.330  12.831
 8903SOL    HW228543   4.086   6.311  12.897
 8904SOL     OW28544  12.849   5.112   3.016
 8904SOL    HW128545  12.834   5.151   2.930
 8904SOL    HW228546  12.922   5.052   3.003
 8905SOL     OW28547   6.049   4.510   0.346
 8905SOL    HW128548   6.064   4.549   0.260
 8905SOL    HW228549   5.998   4.575   0.394
 8906SOL     OW28550   0.806  11.384  12.112
 8906SOL    HW128551   0.747  11.385  12.037
 8906SOL    HW228552   0.832  11.475  12.124
 8907SOL     OW28553   5.362  11.044   1.275
 8907SOL    HW128554   5.424  11.043   1.201
 8907SOL    HW228555   5.417  11.060   1.352
 8908SOL     OW28556  14.582   9.145   2.898
 8908SOL    HW128557  14.502   9.093   2.908
 8908SOL    HW228558  14.561   9.229   2.937
 8909SOL     OW28559  10.134  13.725   1.099
 8909SOL    HW128560  10.208  13.743   1.040
 8909SOL    HW228561  10.110  13.811   1.134
 8910SOL     OW28562  12.257  11.689   6.676
 8910SOL    HW128563  12.166  11.689   6.646
 8910SOL    HW228564  12.259  11.630   6.751
 8911SOL     OW28565   1.715   4.993  10.829
 8911SOL    HW128566   1.781   4.930  10.802
 8911SOL    HW228567   1.664   4.948  10.897
 8912SOL     OW28568   0.028   8.382   4.399
 8912SOL    HW128569   0.050   8.387   4.306
 8912SOL    HW228570   0.055   8.294   4.425
 8913SOL     OW28571   7.360  10.066  14.681
 8913SOL    HW128572   7.362  10.124  14.757
 8913SOL    HW228573   7.359  10.125  14.606
 8914SOL     OW28574   2.425   0.392   2.301
 8914SOL    HW128575   2.500   0.382   2.243
 8914SOL    HW228576   2.377   0.310   2.295
 8915SOL     OW28577   4.005   9.063   8.109
 8915SOL    HW128578   3.936   9.008   8.145
 8915SOL    HW228579   4.083   9.040   8.158
 8916SOL     OW28580  14.808   1.366   7.351
 8916SOL    HW128581  14.728   1.331   7.312
 8916SOL    HW228582  14.782   1.394   7.439
 8917SOL     OW28583  10.383  11.017  12.160
 8917SOL    HW128584  10.367  11.109  12.181
 8917SOL    HW228585  10.337  11.002  12.078
 8918SOL     OW28586  13.524   8.298   6.651
 8918SOL    HW128587  13.539   8.285   6.744
 8918SOL    HW228588  13.612   8.309   6.613
 8919SOL     OW28589   8.404  14.512   9.824
 8919SOL    HW128590   8.439  14.564   9.897
 8919SOL    HW228591   8.333  14.461   9.863
 8920SOL     OW28592   1.829   9.454   4.118
 8920SOL    HW128593   1.788   9.506   4.187
 8920SOL    HW228594   1.910   9.421   4.158
 8921SOL     OW28595  13.656   9.468   0.088
 8921SOL    HW128596  13.725   9.402   0.092
 8921SOL    HW228597  13.678   9.530   0.158
 8922SOL     OW28598   5.043  10.782   5.864
 8922SOL    HW128599   5.134  10.811   5.868
 8922SOL    HW228600   5.039  10.726   5.786
 8923SOL     OW28601  11.978   0.680   2.062
 8923SOL    HW128602  11.982   0.712   2.152
 8923SOL    HW228603  11.898   0.628   2.059
 8924SOL     OW28604   9.680   9.497   3.129
 8924SOL    HW128605   9.701   9.574   3.182
 8924SOL    HW228606   9.609   9.525   3.071
 8925SOL     OW28607   3.268   4.570   3.929
 8925SOL    HW128608   3.318   4.488   3.934
 8925SOL    HW228609   3.197   4.551   3.868
 8926SOL     OW28610  14.025  13.492  14.862
 8926SOL    HW128611  13.939  13.504  14.822
 8926SOL    HW228612  14.031  13.561   0.049
 8927SOL     OW28613   8.591   5.439   0.990
 8927SOL    HW128614   8.612   5.353   0.955
 8927SOL    HW228615   8.498   5.435   1.013
 8928SOL     OW28616   2.600   4.303   8.624
 8928SOL    HW128617   2.668   4.360   8.659
 8928SOL    HW228618   2.628   4.285   8.534
 8929SOL     OW28619  12.959  13.839   7.525
 8929SOL    HW128620  12.994  13.871   7.442
 8929SOL    HW228621  12.934  13.918   7.573
 8930SOL     OW28622   4.549   6.754   9.756
 8930SOL    HW128623   4.617   6.714   9.810
 8930SOL    HW228624   4.493   6.800   9.818
 8931SOL     OW28625   3.228   0.378  13.283
 8931SOL    HW128626   3.149   0.340  13.322
 8931SOL    HW228627   3.277   0.412  13.358
 8932SOL     OW28628  12.692   7.943  10.211
 8932SOL    HW128629  12.707   8.036  10.228
 8932SOL    HW228630  12.598   7.937  10.193
 8933SOL     OW28631  13.649  14.439   2.549
 8933SOL    HW128632  13.627  14.399   2.633
 8933SOL    HW228633  13.624  14.375   2.484
 8934SOL     OW28634   5.549   7.522  12.571
 8934SOL    HW128635   5.470   7.536  12.519
 8934SOL    HW228636   5.599   7.457  12.522
 8935SOL     OW28637   1.519   5.330  11.784
 8935SOL    HW128638   1.482   5.411  11.749
 8935SOL    HW228639   1.445   5.270  11.792
 8936SOL     OW28640   8.848   3.821   7.236
 8936SOL    HW128641   8.790   3.832   7.161
 8936SOL    HW228642   8.789   3.810   7.310
 8937SOL     OW28643   6.092   1.359   6.767
 8937SOL    HW128644   6.078   1.437   6.714
 8937SOL    HW228645   6.164   1.313   6.722
 8938SOL     OW28646   1.224   2.191   3.461
 8938SOL    HW128647   1.224   2.156   3.550
 8938SOL    HW228648   1.271   2.126   3.409
 8939SOL     OW28649   9.148   9.722   9.061
 8939SOL    HW128650   9.200   9.646   9.086
 8939SOL    HW228651   9.115   9.700   8.974
 8940SOL     OW28652  13.483   2.855   7.465
 8940SOL    HW128653  13.451   2.935   7.422
 8940SOL    HW228654  13.559   2.884   7.516
 8941SOL     OW28655   3.857   1.108  12.901
 8941SOL    HW128656   3.781   1.054  12.882
 8941SOL    HW228657   3.839   1.144  12.988
 8942SOL     OW28658  14.629   7.878   5.861
 8942SOL    HW128659  14.678   7.797   5.873
 8942SOL    HW228660  14.678   7.943   5.911
 8943SOL     OW28661   0.011  13.709   4.104
 8943SOL    HW128662  14.803  13.747   4.115
 8943SOL    HW228663   0.060  13.774   4.053
 8944SOL     OW28664   4.654   6.965   3.240
 8944SOL    HW128665   4.675   6.931   3.153
 8944SOL    HW228666   4.685   7.056   3.238
 8945SOL     OW28667   9.314  13.987  12.367
 8945SOL    HW128668   9.333  14.043  12.292
 8945SOL    HW228669   9.245  14.034  12.415
 8946SOL     OW28670  13.192   2.446   1.270
 8946SOL    HW128671  13.287   2.454   1.275
 8946SOL    HW228672  13.163   2.527   1.228
 8947SOL     OW28673   9.736   9.979   4.729
 8947SOL    HW128674   9.806   9.939   4.781
 8947SOL    HW228675   9.680   9.905   4.705
 8948SOL     OW28676  11.263   4.102   4.807
 8948SOL    HW128677  11.264   4.045   4.884
 8948SOL    HW228678  11.187   4.072   4.756
 8949SOL     OW28679  11.752  11.488   2.472
 8949SOL    HW128680  11.776  11.532   2.553
 8949SOL    HW228681  11.818  11.517   2.409
 8950SOL     OW28682   5.059   4.837   6.356
 8950SOL    HW128683   5.017   4.878   6.279
 8950SOL    HW228684   5.055   4.743   6.338
 8951SOL     OW28685   1.080   4.854  10.880
 8951SOL    HW128686   1.116   4.818  10.799
 8951SOL    HW228687   1.042   4.779  10.925
 8952SOL     OW28688   2.446   8.381  13.107
 8952SOL    HW128689   2.393   8.449  13.150
 8952SOL    HW228690   2.517   8.429  13.065
 8953SOL     OW28691   1.111   5.320   6.687
 8953SOL    HW128692   1.039   5.288   6.632
 8953SOL    HW228693   1.135   5.245   6.741
 8954SOL     OW28694  13.775   9.992   6.519
 8954SOL    HW128695  13.738   9.958   6.437
 8954SOL    HW228696  13.863   9.953   6.522
 8955SOL     OW28697   7.218  14.709   5.076
 8955SOL    HW128698   7.153  14.707   5.146
 8955SOL    HW228699   7.285  14.770   5.107
 8956SOL     OW28700   7.345  13.991   8.247
 8956SOL    HW128701   7.313  14.066   8.295
 8956SOL    HW228702   7.289  13.918   8.273
 8957SOL     OW28703  12.163  12.818   9.147
 8957SOL    HW128704  12.130  12.742   9.100
 8957SOL    HW228705  12.129  12.894   9.098
 8958SOL     OW28706  14.772   4.969  13.465
 8958SOL    HW128707  14.680   4.965  13.492
 8958SOL    HW228708  14.821   4.963  13.547
 8959SOL     OW28709   5.289  11.412   9.373
 8959SOL    HW128710   5.381  11.404   9.347
 8959SOL    HW228711   5.247  11.455   9.299
 8960SOL     OW28712  12.371   0.740   7.965
 8960SOL    HW128713  12.426   0.674   7.923
 8960SOL    HW228714  12.282   0.716   7.942
 8961SOL     OW28715  12.888   9.612   9.839
 8961SOL    HW128716  12.832   9.601   9.916
 8961SOL    HW228717  12.864   9.698   9.804
 8962SOL     OW28718   0.835  11.787   4.926
 8962SOL    HW128719   0.872  11.867   4.963
 8962SOL    HW228720   0.870  11.782   4.838
 8963SOL     OW28721   3.477  12.878  13.842
 8963SOL    HW128722   3.452  12.822  13.915
 8963SOL    HW228723   3.482  12.966  13.879
 8964SOL     OW28724  11.470  14.787   6.159
 8964SOL    HW128725  11.464  14.855   6.227
 8964SOL    HW228726  11.521  14.718   6.200
 8965SOL     OW28727   1.503  11.016  12.979
 8965SOL    HW128728   1.581  10.999  13.031
 8965SOL    HW228729   1.430  11.009  13.040
 8966SOL     OW28730   0.289   3.851   9.810
 8966SOL    HW128731   0.226   3.879   9.876
 8966SOL    HW228732   0.364   3.818   9.860
 8967SOL     OW28733   7.862  12.151  11.556
 8967SOL    HW128734   7.814  12.068  11.550
 8967SOL    HW228735   7.918  12.140  11.633
 8968SOL     OW28736   4.759  12.086   8.590
 8968SOL    HW128737   4.705  12.036   8.651
 8968SOL    HW228738   4.702  12.100   8.514
 8969SOL     OW28739  11.902  14.666   6.275
 8969SOL    HW128740  11.854  14.696   6.198
 8969SOL    HW228741  11.916  14.744   6.328
 8970SOL     OW28742  13.413   5.544  11.615
 8970SOL    HW128743  13.380   5.589  11.537
 8970SOL    HW228744  13.505   5.524  11.594
 8971SOL     OW28745  12.687  11.303   2.811
 8971SOL    HW128746  12.630  11.323   2.737
 8971SOL    HW228747  12.773  11.289   2.772
 8972SOL     OW28748   2.913   0.027   6.930
 8972SOL    HW128749   2.933  14.822   6.887
 8972SOL    HW228750   2.925   0.009   7.023
 8973SOL     OW28751   0.982   3.449   0.557
 8973SOL    HW128752   1.023   3.382   0.612
 8973SOL    HW228753   0.976   3.409   0.471
 8974SOL     OW28754  11.549   7.550  14.033
 8974SOL    HW128755  11.589   7.528  13.949
 8974SOL    HW228756  11.613   7.521  14.099
 8975SOL     OW28757   2.923   3.129   0.256
 8975SOL    HW128758   2.872   3.140   0.176
 8975SOL    HW228759   2.919   3.214   0.300
 8976SOL     OW28760   8.970  12.577   0.352
 8976SOL    HW128761   9.040  12.561   0.415
 8976SOL    HW228762   8.970  12.500   0.295
 8977SOL     OW28763   7.223  14.409  13.672
 8977SOL    HW128764   7.206  14.315  13.677
 8977SOL    HW228765   7.136  14.449  13.670
 8978SOL     OW28766   1.874   2.838   8.132
 8978SOL    HW128767   1.898   2.900   8.202
 8978SOL    HW228768   1.914   2.756   8.158
 8979SOL     OW28769   7.976  12.576  12.149
 8979SOL    HW128770   7.905  12.626  12.190
 8979SOL    HW228771   7.992  12.621  12.066
 8980SOL     OW28772   5.306   5.430  14.349
 8980SOL    HW128773   5.384   5.483  14.360
 8980SOL    HW228774   5.337   5.350  14.308
 8981SOL     OW28775   5.383   0.885   5.606
 8981SOL    HW128776   5.329   0.949   5.654
 8981SOL    HW228777   5.351   0.800   5.636
 8982SOL     OW28778   8.770   6.247  10.376
 8982SOL    HW128779   8.768   6.210  10.288
 8982SOL    HW228780   8.827   6.324  10.369
 8983SOL     OW28781   1.767   4.196  12.514
 8983SOL    HW128782   1.714   4.242  12.579
 8983SOL    HW228783   1.797   4.117  12.559
 8984SOL     OW28784   9.998  11.099  13.617
 8984SOL    HW128785  10.093  11.089  13.610
 8984SOL    HW228786   9.962  11.022  13.572
 8985SOL     OW28787   7.520   3.347   8.629
 8985SOL    HW128788   7.575   3.269   8.619
 8985SOL    HW228789   7.564   3.398   8.696
 8986SOL     OW28790   1.001   0.814   6.128
 8986SOL    HW128791   1.077   0.857   6.166
 8986SOL    HW228792   0.934   0.820   6.196
 8987SOL     OW28793   2.393   2.035  10.484
 8987SOL    HW128794   2.362   1.945  10.498
 8987SOL    HW228795   2.351   2.062  10.402
 8988SOL     OW28796   3.276   4.664   2.153
 8988SOL    HW128797   3.333   4.630   2.222
 8988SOL    HW228798   3.189   4.665   2.193
 8989SOL     OW28799  11.272   6.895   8.930
 8989SOL    HW128800  11.208   6.960   8.901
 8989SOL    HW228801  11.253   6.882   9.023
 8990SOL     OW28802   2.605   7.765  13.227
 8990SOL    HW128803   2.655   7.725  13.299
 8990SOL    HW228804   2.655   7.743  13.148
 8991SOL     OW28805   3.726   4.772   7.886
 8991SOL    HW128806   3.698   4.689   7.925
 8991SOL    HW228807   3.797   4.803   7.942
 8992SOL     OW28808   8.801  10.481  11.940
 8992SOL    HW128809   8.843  10.423  12.005
 8992SOL    HW228810   8.722  10.513  11.984
 8993SOL     OW28811   0.019   6.856  14.664
 8993SOL    HW128812  14.831   6.838  14.730
 8993SOL    HW228813  14.865   6.931  14.615
 8994SOL     OW28814  14.716   1.143  10.646
 8994SOL    HW128815  14.629   1.107  10.628
 8994SOL    HW228816  14.775   1.068  10.644
 8995SOL     OW28817   3.035   3.572  10.958
 8995SOL    HW128818   3.125   3.580  10.989
 8995SOL    HW228819   2.983   3.562  11.039
 8996SOL     OW28820   0.488   6.416  13.610
 8996SOL    HW128821   0.533   6.421  13.694
 8996SOL    HW228822   0.421   6.348  13.622
 8997SOL     OW28823   3.763   2.966  10.047
 8997SOL    HW128824   3.815   3.005   9.977
 8997SOL    HW228825   3.718   2.893  10.005
 8998SOL     OW28826   1.486  14.090   6.759
 8998SOL    HW128827   1.492  14.105   6.853
 8998SOL    HW228828   1.517  14.172   6.720
 8999SOL     OW28829   6.139   6.285   0.050
 8999SOL    HW128830   6.131   6.192   0.071
 8999SOL    HW228831   6.078   6.300  14.857
 9000SOL     OW28832   5.466   8.910   1.741
 9000SOL    HW128833   5.431   8.860   1.814
 9000SOL    HW228834   5.441   9.001   1.760
 9001SOL     OW28835   5.790  11.621   4.371
 9001SOL    HW128836   5.828  11.615   4.283
 9001SOL    HW228837   5.853  11.673   4.421
 9002SOL     OW28838  10.870   9.588   0.500
 9002SOL    HW128839  10.882   9.603   0.406
 9002SOL    HW228840  10.925   9.513   0.519
 9003SOL     OW28841   6.812   5.219   4.801
 9003SOL    HW128842   6.842   5.309   4.807
 9003SOL    HW228843   6.724   5.225   4.763
 9004SOL     OW28844  11.637   6.358   1.330
 9004SOL    HW128845  11.569   6.344   1.396
 9004SOL    HW228846  11.672   6.271   1.312
 9005SOL     OW28847   0.774   2.147   2.117
 9005SOL    HW128848   0.786   2.114   2.206
 9005SOL    HW228849   0.745   2.238   2.129
 9006SOL     OW28850   7.900   8.941   9.065
 9006SOL    HW128851   7.846   8.978   8.996
 9006SOL    HW228852   7.986   8.981   9.054
 9007SOL     OW28853  11.160  10.141   9.733
 9007SOL    HW128854  11.081  10.110   9.688
 9007SOL    HW228855  11.147  10.115   9.824
 9008SOL     OW28856  10.046   5.297   3.694
 9008SOL    HW128857   9.955   5.303   3.726
 9008SOL    HW228858  10.042   5.232   3.624
 9009SOL     OW28859  10.525  14.283   1.581
 9009SOL    HW128860  10.539  14.199   1.624
 9009SOL    HW228861  10.545  14.266   1.489
 9010SOL     OW28862  13.288   4.141   9.811
 9010SOL    HW128863  13.340   4.210   9.770
 9010SOL    HW228864  13.295   4.066   9.751
 9011SOL     OW28865   0.105   7.758   2.774
 9011SOL    HW128866   0.061   7.832   2.732
 9011SOL    HW228867   0.033   7.703   2.806
 9012SOL     OW28868   8.230  11.045  13.880
 9012SOL    HW128869   8.141  11.054  13.845
 9012SOL    HW228870   8.225  10.968  13.937
 9013SOL     OW28871   4.326   2.227   4.524
 9013SOL    HW128872   4.361   2.231   4.435
 9013SOL    HW228873   4.254   2.164   4.518
 9014SOL     OW28874   4.355   8.682   1.901
 9014SOL    HW128875   4.407   8.623   1.955
 9014SOL    HW228876   4.280   8.629   1.873
 9015SOL     OW28877  10.666   5.825   5.334
 9015SOL    HW128878  10.648   5.847   5.426
 9015SOL    HW228879  10.724   5.894   5.304
 9016SOL     OW28880   7.620   2.648   4.840
 9016SOL    HW128881   7.658   2.616   4.922
 9016SOL    HW228882   7.527   2.624   4.846
 9017SOL     OW28883   5.220  10.543   0.481
 9017SOL    HW128884   5.252  10.595   0.555
 9017SOL    HW228885   5.145  10.593   0.447
 9018SOL     OW28886   4.809   3.009   3.385
 9018SOL    HW128887   4.805   2.918   3.355
 9018SOL    HW228888   4.901   3.034   3.374
 9019SOL     OW28889   3.171   1.752   0.434
 9019SOL    HW128890   3.177   1.744   0.339
 9019SOL    HW228891   3.261   1.748   0.464
 9020SOL     OW28892  14.411  11.560   6.470
 9020SOL    HW128893  14.390  11.558   6.564
 9020SOL    HW228894  14.405  11.469   6.442
 9021SOL     OW28895   9.295   0.114   2.093
 9021SOL    HW128896   9.368   0.085   2.147
 9021SOL    HW228897   9.270   0.199   2.129
 9022SOL     OW28898   2.747   0.463   6.718
 9022SOL    HW128899   2.794   0.411   6.783
 9022SOL    HW228900   2.725   0.544   6.764
 9023SOL     OW28901  12.367  14.603   9.720
 9023SOL    HW128902  12.290  14.564   9.762
 9023SOL    HW228903  12.366  14.695   9.746
 9024SOL     OW28904   6.014  11.424  13.881
 9024SOL    HW128905   6.029  11.350  13.821
 9024SOL    HW228906   6.098  11.434  13.927
 9025SOL     OW28907  12.774  13.751   3.470
 9025SOL    HW128908  12.802  13.841   3.487
 9025SOL    HW228909  12.812  13.700   3.541
 9026SOL     OW28910  10.692   8.890   6.784
 9026SOL    HW128911  10.732   8.975   6.766
 9026SOL    HW228912  10.687   8.847   6.699
 9027SOL     OW28913   9.988   9.812   8.484
 9027SOL    HW128914   9.900   9.788   8.512
 9027SOL    HW228915  10.006   9.754   8.409
 9028SOL     OW28916   5.753   9.866  14.784
 9028SOL    HW128917   5.796   9.784  14.806
 9028SOL    HW228918   5.777   9.882  14.692
 9029SOL     OW28919   9.733   0.812   0.980
 9029SOL    HW128920   9.815   0.779   0.944
 9029SOL    HW228921   9.665   0.758   0.940
 9030SOL     OW28922  11.641   7.435   2.531
 9030SOL    HW128923  11.676   7.393   2.610
 9030SOL    HW228924  11.595   7.364   2.486
 9031SOL     OW28925   5.261   7.324   3.789
 9031SOL    HW128926   5.272   7.289   3.878
 9031SOL    HW228927   5.349   7.327   3.753
 9032SOL     OW28928  14.369  11.626  10.023
 9032SOL    HW128929  14.285  11.669  10.006
 9032SOL    HW228930  14.354  11.534  10.001
 9033SOL     OW28931   5.055   6.356   4.104
 9033SOL    HW128932   4.993   6.292   4.140
 9033SOL    HW228933   5.000   6.420   4.060
 9034SOL     OW28934   0.046   8.272  10.946
 9034SOL    HW128935  14.830   8.279  10.942
 9034SOL    HW228936   0.067   8.269  11.039
 9035SOL     OW28937  14.124   4.858  13.928
 9035SOL    HW128938  14.101   4.857  13.835
 9035SOL    HW228939  14.040   4.855  13.974
 9036SOL     OW28940  10.253   6.912   5.758
 9036SOL    HW128941  10.170   6.890   5.800
 9036SOL    HW228942  10.256   7.008   5.761
 9037SOL     OW28943   9.497  10.342   8.326
 9037SOL    HW128944   9.405  10.355   8.348
 9037SOL    HW228945   9.516  10.252   8.353
 9038SOL     OW28946  14.167   3.610  10.960
 9038SOL    HW128947  14.228   3.554  11.007
 9038SOL    HW228948  14.131   3.554  10.891
 9039SOL     OW28949   2.421  10.340  11.923
 9039SOL    HW128950   2.400  10.363  11.833
 9039SOL    HW228951   2.391  10.416  11.974
 9040SOL     OW28952   5.493  13.952   9.142
 9040SOL    HW128953   5.426  14.017   9.122
 9040SOL    HW228954   5.452  13.891   9.203
 9041SOL     OW28955   7.788   9.608   8.191
 9041SOL    HW128956   7.705   9.562   8.191
 9041SOL    HW228957   7.786   9.661   8.111
 9042SOL     OW28958   4.944  13.393   0.724
 9042SOL    HW128959   4.886  13.357   0.790
 9042SOL    HW228960   4.933  13.488   0.732
 9043SOL     OW28961  14.119   8.373   8.892
 9043SOL    HW128962  14.134   8.427   8.969
 9043SOL    HW228963  14.093   8.435   8.824
 9044SOL     OW28964   2.707   0.505   5.210
 9044SOL    HW128965   2.792   0.550   5.213
 9044SOL    HW228966   2.727   0.414   5.232
 9045SOL     OW28967   9.372   8.175   3.196
 9045SOL    HW128968   9.411   8.221   3.122
 9045SOL    HW228969   9.445   8.130   3.238
 9046SOL     OW28970   4.423   6.710   3.298
 9046SOL    HW128971   4.396   6.730   3.208
 9046SOL    HW228972   4.514   6.681   3.289
 9047SOL     OW28973   0.173   0.574  13.884
 9047SOL    HW128974   0.164   0.496  13.939
 9047SOL    HW228975   0.150   0.544  13.796
 9048SOL     OW28976   7.325   9.277   1.054
 9048SOL    HW128977   7.401   9.278   1.112
 9048SOL    HW228978   7.345   9.211   0.988
 9049SOL     OW28979  10.904   6.870   4.008
 9049SOL    HW128980  10.893   6.965   4.000
 9049SOL    HW228981  10.998   6.856   4.006
 9050SOL     OW28982   2.349   3.996  14.784
 9050SOL    HW128983   2.311   3.972  14.869
 9050SOL    HW228984   2.333   3.920  14.728
 9051SOL     OW28985   7.455   4.665   7.417
 9051SOL    HW128986   7.464   4.706   7.504
 9051SOL    HW228987   7.362   4.675   7.397
 9052SOL     OW28988   0.615   4.866  12.250
 9052SOL    HW128989   0.596   4.775  12.271
 9052SOL    HW228990   0.691   4.888  12.304
 9053SOL     OW28991   5.407   0.030   8.644
 9053SOL    HW128992   5.408  14.860   8.562
 9053SOL    HW228993   5.392   0.121   8.618
 9054SOL     OW28994  11.096   7.089   1.729
 9054SOL    HW128995  11.080   7.003   1.768
 9054SOL    HW228996  11.056   7.151   1.790
 9055SOL     OW28997  12.981  12.631   4.339
 9055SOL    HW128998  12.983  12.706   4.280
 9055SOL    HW228999  12.932  12.663   4.415
 9056SOL     OW29000   9.474  11.139   8.939
 9056SOL    HW129001   9.506  11.054   8.908
 9056SOL    HW229002   9.466  11.128   9.034
 9057SOL     OW29003  12.047  13.916   0.602
 9057SOL    HW129004  11.994  13.995   0.595
 9057SOL    HW229005  12.014  13.873   0.681
 9058SOL     OW29006  12.120  14.330  11.572
 9058SOL    HW129007  12.104  14.421  11.597
 9058SOL    HW229008  12.184  14.298  11.636
 9059SOL     OW29009   4.015  13.339   6.490
 9059SOL    HW129010   4.012  13.244   6.504
 9059SOL    HW229011   4.093  13.353   6.437
 9060SOL     OW29012   8.159  14.422   6.867
 9060SOL    HW129013   8.105  14.348   6.895
 9060SOL    HW229014   8.097  14.495   6.861
 9061SOL     OW29015  12.188   6.392   3.536
 9061SOL    HW129016  12.094   6.402   3.553
 9061SOL    HW229017  12.208   6.303   3.565
 9062SOL     OW29018  13.274  14.240  12.411
 9062SOL    HW129019  13.360  14.261  12.373
 9062SOL    HW229020  13.279  14.272  12.500
 9063SOL     OW29021   6.554   9.649   6.838
 9063SOL    HW129022   6.640   9.608   6.849
 9063SOL    HW229023   6.555   9.723   6.898
 9064SOL     OW29024   5.269  10.701  12.320
 9064SOL    HW129025   5.206  10.711  12.249
 9064SOL    HW229026   5.329  10.633  12.288
 9065SOL     OW29027   7.143  10.160   1.196
 9065SOL    HW129028   7.095  10.079   1.209
 9065SOL    HW229029   7.075  10.228   1.192
 9066SOL     OW29030   9.227   6.657  14.458
 9066SOL    HW129031   9.266   6.740  14.432
 9066SOL    HW229032   9.252   6.646  14.550
 9067SOL     OW29033   6.230   5.402   0.945
 9067SOL    HW129034   6.139   5.431   0.958
 9067SOL    HW229035   6.278   5.443   1.016
 9068SOL     OW29036  14.046   3.352   0.847
 9068SOL    HW129037  14.103   3.423   0.877
 9068SOL    HW229038  14.060   3.281   0.910
 9069SOL     OW29039   0.115   3.532   9.300
 9069SOL    HW129040   0.184   3.499   9.357
 9069SOL    HW229041   0.067   3.453   9.274
 9070SOL     OW29042   9.638   8.014  13.036
 9070SOL    HW129043   9.638   7.963  12.954
 9070SOL    HW229044   9.621   7.949  13.104
 9071SOL     OW29045   8.812  12.253  12.576
 9071SOL    HW129046   8.740  12.308  12.606
 9071SOL    HW229047   8.866  12.239  12.654
 9072SOL     OW29048   7.821  12.815   6.996
 9072SOL    HW129049   7.736  12.857   6.994
 9072SOL    HW229050   7.877  12.868   6.939
 9073SOL     OW29051   7.272   2.724  12.813
 9073SOL    HW129052   7.260   2.675  12.895
 9073SOL    HW229053   7.367   2.724  12.799
 9074SOL     OW29054   6.257  14.668  10.067
 9074SOL    HW129055   6.316  14.607  10.111
 9074SOL    HW229056   6.275  14.655   9.973
 9075SOL     OW29057   2.654   8.957   4.906
 9075SOL    HW129058   2.637   8.908   4.825
 9075SOL    HW229059   2.744   8.935   4.928
 9076SOL     OW29060  12.106  11.893  14.857
 9076SOL    HW129061  12.014  11.878  14.875
 9076SOL    HW229062  12.136  11.814  14.813
 9077SOL     OW29063   7.457   9.184   2.161
 9077SOL    HW129064   7.519   9.174   2.233
 9077SOL    HW229065   7.508   9.165   2.082
 9078SOL     OW29066  14.174  10.472  14.254
 9078SOL    HW129067  14.132  10.525  14.186
 9078SOL    HW229068  14.134  10.386  14.245
 9079SOL     OW29069   9.480   8.201  13.405
 9079SOL    HW129070   9.512   8.230  13.319
 9079SOL    HW229071   9.428   8.124  13.386
 9080SOL     OW29072   5.273   5.846  11.783
 9080SOL    HW129073   5.297   5.771  11.838
 9080SOL    HW229074   5.327   5.836  11.705
 9081SOL     OW29075   6.259  10.955   2.672
 9081SOL    HW129076   6.276  10.862   2.689
 9081SOL    HW229077   6.263  10.963   2.577
 9082SOL     OW29078   3.098   1.296   8.470
 9082SOL    HW129079   3.124   1.209   8.500
 9082SOL    HW229080   3.164   1.354   8.507
 9083SOL     OW29081  14.737   7.939   6.699
 9083SOL    HW129082  14.750   7.851   6.735
 9083SOL    HW229083  14.650   7.936   6.659
 9084SOL     OW29084   5.082   2.532   8.825
 9084SOL    HW129085   5.088   2.440   8.798
 9084SOL    HW229086   5.122   2.581   8.753
 9085SOL     OW29087   9.133  13.177   5.130
 9085SOL    HW129088   9.204  13.121   5.099
 9085SOL    HW229089   9.094  13.129   5.203
 9086SOL     OW29090  10.118   6.382   9.736
 9086SOL    HW129091  10.076   6.435   9.805
 9086SOL    HW229092  10.050   6.373   9.669
 9087SOL     OW29093   8.797  12.078   7.824
 9087SOL    HW129094   8.838  12.146   7.770
 9087SOL    HW229095   8.712  12.116   7.848
 9088SOL     OW29096   8.472  12.468   7.067
 9088SOL    HW129097   8.401  12.526   7.040
 9088SOL    HW229098   8.427  12.392   7.105
 9089SOL     OW29099   6.853   4.332   3.811
 9089SOL    HW129100   6.762   4.342   3.783
 9089SOL    HW229101   6.870   4.409   3.865
 9090SOL     OW29102   0.594   3.751   1.738
 9090SOL    HW129103   0.665   3.814   1.754
 9090SOL    HW229104   0.558   3.777   1.653
 9091SOL     OW29105   7.497   9.065  11.009
 9091SOL    HW129106   7.539   9.039  11.091
 9091SOL    HW229107   7.403   9.066  11.029
 9092SOL     OW29108   6.153   0.625   4.257
 9092SOL    HW129109   6.061   0.621   4.283
 9092SOL    HW229110   6.182   0.533   4.257
 9093SOL     OW29111  14.081   1.491  12.576
 9093SOL    HW129112  14.153   1.543  12.612
 9093SOL    HW229113  14.006   1.511  12.633
 9094SOL     OW29114  13.460   3.236   5.268
 9094SOL    HW129115  13.486   3.271   5.354
 9094SOL    HW229116  13.537   3.247   5.213
 9095SOL     OW29117   5.968  11.508  10.160
 9095SOL    HW129118   5.988  11.434  10.217
 9095SOL    HW229119   6.053  11.551  10.146
 9096SOL     OW29120   3.744   1.588  10.449
 9096SOL    HW129121   3.679   1.518  10.444
 9096SOL    HW229122   3.806   1.568  10.378
 9097SOL     OW29123   2.090  10.433  13.484
 9097SOL    HW129124   2.132  10.506  13.529
 9097SOL    HW229125   2.090  10.362  13.549
 9098SOL     OW29126  13.772   9.879   1.191
 9098SOL    HW129127  13.855   9.923   1.210
 9098SOL    HW229128  13.708   9.949   1.191
 9099SOL     OW29129   1.686   7.649   9.193
 9099SOL    HW129130   1.726   7.578   9.142
 9099SOL    HW229131   1.753   7.716   9.199
 9100SOL     OW29132   8.032   5.563  12.513
 9100SOL    HW129133   8.084   5.630  12.556
 9100SOL    HW229134   8.038   5.487  12.571
 9101SOL     OW29135  13.365  11.980   7.187
 9101SOL    HW129136  13.451  11.938   7.186
 9101SOL    HW229137  13.323  11.946   7.266
 9102SOL     OW29138  14.260  11.932   7.077
 9102SOL    HW129139  14.256  11.884   7.160
 9102SOL    HW229140  14.190  11.997   7.084
 9103SOL     OW29141   0.897  11.337   6.727
 9103SOL    HW129142   0.986  11.329   6.692
 9103SOL    HW229143   0.855  11.255   6.701
 9104SOL     OW29144   8.437   1.075   6.923
 9104SOL    HW129145   8.404   1.029   6.846
 9104SOL    HW229146   8.432   1.010   6.994
 9105SOL     OW29147   9.650   3.784   3.841
 9105SOL    HW129148   9.620   3.736   3.917
 9105SOL    HW229149   9.582   3.771   3.775
 9106SOL     OW29150   1.000   3.243   7.233
 9106SOL    HW129151   0.952   3.167   7.268
 9106SOL    HW229152   1.091   3.225   7.253
 9107SOL     OW29153  10.097  14.060  11.453
 9107SOL    HW129154  10.147  13.993  11.499
 9107SOL    HW229155  10.025  14.081  11.513
 9108SOL     OW29156   6.929   9.175   2.831
 9108SOL    HW129157   6.965   9.097   2.789
 9108SOL    HW229158   6.960   9.171   2.922
 9109SOL     OW29159  11.071   8.999  12.255
 9109SOL    HW129160  11.066   8.944  12.333
 9109SOL    HW229161  11.151   9.050  12.267
 9110SOL     OW29162   0.210  12.118   0.316
 9110SOL    HW129163   0.121  12.084   0.322
 9110SOL    HW229164   0.238  12.130   0.407
 9111SOL     OW29165   2.242   3.530  13.879
 9111SOL    HW129166   2.334   3.541  13.854
 9111SOL    HW229167   2.241   3.447  13.927
 9112SOL     OW29168  14.312   2.003  10.409
 9112SOL    HW129169  14.235   1.956  10.440
 9112SOL    HW229170  14.379   1.986  10.475
 9113SOL     OW29171   3.518   9.360  12.594
 9113SOL    HW129172   3.582   9.377  12.664
 9113SOL    HW229173   3.570   9.327  12.521
 9114SOL     OW29174   9.246  11.512   3.405
 9114SOL    HW129175   9.192  11.551   3.337
 9114SOL    HW229176   9.315  11.466   3.357
 9115SOL     OW29177   7.840   6.865   9.151
 9115SOL    HW129178   7.829   6.841   9.059
 9115SOL    HW229179   7.756   6.846   9.192
 9116SOL     OW29180   4.635  11.909   0.014
 9116SOL    HW129181   4.560  11.861   0.050
 9116SOL    HW229182   4.670  11.959   0.087
 9117SOL     OW29183   3.358   5.811  14.429
 9117SOL    HW129184   3.348   5.754  14.505
 9117SOL    HW229185   3.403   5.758  14.364
 9118SOL     OW29186   6.586   6.424   5.210
 9118SOL    HW129187   6.592   6.520   5.216
 9118SOL    HW229188   6.639   6.401   5.133
 9119SOL     OW29189   6.724   3.941   4.881
 9119SOL    HW129190   6.774   4.007   4.928
 9119SOL    HW229191   6.652   3.990   4.840
 9120SOL     OW29192  13.908   1.831   1.645
 9120SOL    HW129193  13.911   1.779   1.564
 9120SOL    HW229194  13.818   1.864   1.649
 9121SOL     OW29195   5.059  12.953  11.559
 9121SOL    HW129196   5.080  12.964  11.652
 9121SOL    HW229197   5.024  12.864  11.553
 9122SOL     OW29198   5.014   8.128   2.888
 9122SOL    HW129199   5.096   8.149   2.842
 9122SOL    HW229200   4.974   8.214   2.906
 9123SOL     OW29201   1.243  13.439   1.791
 9123SOL    HW129202   1.186  13.371   1.754
 9123SOL    HW229203   1.328  13.395   1.802
 9124SOL     OW29204   5.486   7.413   5.755
 9124SOL    HW129205   5.470   7.436   5.664
 9124SOL    HW229206   5.532   7.329   5.750
 9125SOL     OW29207  11.241   4.916  11.668
 9125SOL    HW129208  11.326   4.957  11.650
 9125SOL    HW229209  11.253   4.875  11.754
 9126SOL     OW29210  10.252   5.783  14.582
 9126SOL    HW129211  10.343   5.799  14.559
 9126SOL    HW229212  10.225   5.860  14.632
 9127SOL     OW29213   0.065  10.368   4.736
 9127SOL    HW129214   0.097  10.413   4.815
 9127SOL    HW229215   0.143  10.354   4.683
 9128SOL     OW29216   0.106   3.392  12.676
 9128SOL    HW129217   0.012   3.405  12.666
 9128SOL    HW229218   0.144   3.478  12.657
 9129SOL     OW29219  12.631   7.405   8.374
 9129SOL    HW129220  12.719   7.426   8.343
 9129SOL    HW229221  12.640   7.394   8.468
 9130SOL     OW29222   2.116   1.355   7.488
 9130SOL    HW129223   2.031   1.368   7.446
 9130SOL    HW229224   2.179   1.360   7.417
 9131SOL     OW29225   5.537   8.694  12.277
 9131SOL    HW129226   5.606   8.720  12.338
 9131SOL    HW229227   5.576   8.710  12.190
 9132SOL     OW29228   1.505   4.500   9.458
 9132SOL    HW129229   1.549   4.584   9.449
 9132SOL    HW229230   1.444   4.495   9.385
 9133SOL     OW29231  14.386  13.940   9.660
 9133SOL    HW129232  14.457  13.964   9.719
 9133SOL    HW229233  14.382  13.844   9.666
 9134SOL     OW29234   3.849   7.780  12.421
 9134SOL    HW129235   3.776   7.767  12.361
 9134SOL    HW229236   3.883   7.867  12.398
 9135SOL     OW29237  10.657   8.840   7.947
 9135SOL    HW129238  10.727   8.902   7.970
 9135SOL    HW229239  10.672   8.764   8.003
 9136SOL     OW29240  13.413   3.799  11.549
 9136SOL    HW129241  13.374   3.862  11.488
 9136SOL    HW229242  13.434   3.723  11.496
 9137SOL     OW29243   4.456  13.778   8.065
 9137SOL    HW129244   4.363  13.755   8.065
 9137SOL    HW229245   4.475  13.802   8.156
 9138SOL     OW29246   8.756   7.849  10.461
 9138SOL    HW129247   8.667   7.830  10.489
 9138SOL    HW229248   8.771   7.941  10.485
 9139SOL     OW29249   7.704   5.602   8.285
 9139SOL    HW129250   7.715   5.685   8.240
 9139SOL    HW229251   7.701   5.624   8.378
 9140SOL     OW29252   8.218   4.027   6.172
 9140SOL    HW129253   8.208   4.036   6.077
 9140SOL    HW229254   8.308   3.999   6.184
 9141SOL     OW29255   2.722   9.034   2.024
 9141SOL    HW129256   2.643   9.016   1.973
 9141SOL    HW229257   2.782   8.964   2.001
 9142SOL     OW29258  12.417   0.446  13.755
 9142SOL    HW129259  12.429   0.399  13.673
 9142SOL    HW229260  12.486   0.411  13.812
 9143SOL     OW29261  12.316  11.308   2.739
 9143SOL    HW129262  12.339  11.216   2.755
 9143SOL    HW229263  12.400  11.351   2.722
 9144SOL     OW29264  13.040   9.612  13.361
 9144SOL    HW129265  13.014   9.523  13.385
 9144SOL    HW229266  13.069   9.605  13.270
 9145SOL     OW29267   3.028   0.315   5.272
 9145SOL    HW129268   3.019   0.401   5.232
 9145SOL    HW229269   3.059   0.259   5.201
 9146SOL     OW29270   5.124   1.425  11.527
 9146SOL    HW129271   5.101   1.512  11.495
 9146SOL    HW229272   5.151   1.377  11.449
 9147SOL     OW29273  10.378   5.986  10.875
 9147SOL    HW129274  10.437   6.060  10.878
 9147SOL    HW229275  10.434   5.909  10.889
 9148SOL     OW29276   0.799  12.694   1.649
 9148SOL    HW129277   0.827  12.602   1.653
 9148SOL    HW229278   0.758  12.703   1.563
 9149SOL     OW29279   7.486   6.794   0.228
 9149SOL    HW129280   7.403   6.756   0.198
 9149SOL    HW229281   7.519   6.731   0.292
 9150SOL     OW29282  14.446   7.700   2.827
 9150SOL    HW129283  14.370   7.758   2.837
 9150SOL    HW229284  14.409   7.614   2.807
 9151SOL     OW29285   8.997  14.302   9.456
 9151SOL    HW129286   9.030  14.281   9.369
 9151SOL    HW229287   9.076  14.317   9.509
 9152SOL     OW29288   2.969  10.130  12.012
 9152SOL    HW129289   2.995  10.072  11.940
 9152SOL    HW229290   2.986  10.079  12.091
 9153SOL     OW29291   7.707   7.840   7.890
 9153SOL    HW129292   7.612   7.829   7.893
 9153SOL    HW229293   7.722   7.931   7.915
 9154SOL     OW29294  12.825   7.475  10.497
 9154SOL    HW129295  12.827   7.519  10.582
 9154SOL    HW229296  12.804   7.545  10.434
 9155SOL     OW29297   4.270   4.565  11.838
 9155SOL    HW129298   4.209   4.590  11.907
 9155SOL    HW229299   4.258   4.470  11.829
 9156SOL     OW29300   5.474   7.568   2.863
 9156SOL    HW129301   5.553   7.593   2.816
 9156SOL    HW229302   5.412   7.544   2.795
 9157SOL     OW29303   3.142   5.666  12.104
 9157SOL    HW129304   3.086   5.612  12.049
 9157SOL    HW229305   3.114   5.646  12.194
 9158SOL     OW29306  13.387   2.300  11.768
 9158SOL    HW129307  13.408   2.232  11.832
 9158SOL    HW229308  13.387   2.255  11.684
 9159SOL     OW29309  14.676   2.351   3.673
 9159SOL    HW129310  14.761   2.365   3.631
 9159SOL    HW229311  14.612   2.379   3.607
 9160SOL     OW29312  12.906   3.947   2.569
 9160SOL    HW129313  12.922   4.036   2.538
 9160SOL    HW229314  12.822   3.953   2.616
 9161SOL     OW29315   5.291   5.879   7.368
 9161SOL    HW129316   5.264   5.802   7.317
 9161SOL    HW229317   5.369   5.850   7.416
 9162SOL     OW29318  10.916  10.563   4.813
 9162SOL    HW129319  10.986  10.542   4.876
 9162SOL    HW229320  10.911  10.486   4.757
 9163SOL     OW29321  11.949   1.543   4.254
 9163SOL    HW129322  11.858   1.527   4.233
 9163SOL    HW229323  11.947   1.583   4.341
 9164SOL     OW29324  12.967   2.540   2.375
 9164SOL    HW129325  12.971   2.587   2.458
 9164SOL    HW229326  12.956   2.609   2.309
 9165SOL     OW29327   5.209   7.525   5.392
 9165SOL    HW129328   5.158   7.605   5.403
 9165SOL    HW229329   5.146   7.454   5.406
 9166SOL     OW29330   1.710   8.546   8.399
 9166SOL    HW129331   1.651   8.471   8.390
 9166SOL    HW229332   1.662   8.607   8.455
 9167SOL     OW29333  10.950  14.622   0.558
 9167SOL    HW129334  11.006  14.629   0.481
 9167SOL    HW229335  10.863  14.645   0.527
 9168SOL     OW29336   6.603  12.926   3.384
 9168SOL    HW129337   6.519  12.971   3.398
 9168SOL    HW229338   6.594  12.883   3.299
 9169SOL     OW29339   6.886   2.233   8.699
 9169SOL    HW129340   6.818   2.165   8.697
 9169SOL    HW229341   6.919   2.236   8.609
 9170SOL     OW29342   6.657  10.283   8.497
 9170SOL    HW129343   6.686  10.275   8.588
 9170SOL    HW229344   6.619  10.197   8.477
 9171SOL     OW29345   8.569   4.438   4.951
 9171SOL    HW129346   8.652   4.391   4.939
 9171SOL    HW229347   8.505   4.370   4.970
 9172SOL     OW29348   0.483   8.387  14.465
 9172SOL    HW129349   0.451   8.347  14.384
 9172SOL    HW229350   0.542   8.322  14.503
 9173SOL     OW29351   0.249  10.838  10.371
 9173SOL    HW129352   0.321  10.775  10.374
 9173SOL    HW229353   0.174  10.787  10.339
 9174SOL     OW29354  13.924   1.792   7.813
 9174SOL    HW129355  13.874   1.801   7.731
 9174SOL    HW229356  13.912   1.701   7.839
 9175SOL     OW29357   8.791   6.357   9.566
 9175SOL    HW129358   8.850   6.409   9.620
 9175SOL    HW229359   8.834   6.352   9.481
 9176SOL     OW29360  10.831   1.792   8.231
 9176SOL    HW129361  10.901   1.807   8.167
 9176SOL    HW229362  10.755   1.770   8.178
 9177SOL     OW29363   0.318   6.042   6.482
 9177SOL    HW129364   0.303   6.132   6.513
 9177SOL    HW229365   0.414   6.033   6.482
 9178SOL     OW29366   4.299   9.118   4.469
 9178SOL    HW129367   4.318   9.162   4.552
 9178SOL    HW229368   4.311   9.025   4.488
 9179SOL     OW29369  10.961  12.229  12.956
 9179SOL    HW129370  11.038  12.195  12.911
 9179SOL    HW229371  10.891  12.167  12.934
 9180SOL     OW29372   4.572   0.211   1.235
 9180SOL    HW129373   4.480   0.198   1.214
 9180SOL    HW229374   4.578   0.303   1.260
 9181SOL     OW29375   4.053   8.619   8.570
 9181SOL    HW129376   3.991   8.581   8.633
 9181SOL    HW229377   3.998   8.666   8.508
 9182SOL     OW29378   4.912  11.043   4.786
 9182SOL    HW129379   5.004  11.059   4.807
 9182SOL    HW229380   4.913  10.960   4.739
 9183SOL     OW29381   9.247   8.454   1.129
 9183SOL    HW129382   9.310   8.521   1.155
 9183SOL    HW229383   9.288   8.408   1.056
 9184SOL     OW29384   8.396   2.979  10.379
 9184SOL    HW129385   8.433   3.063  10.352
 9184SOL    HW229386   8.416   2.919  10.307
 9185SOL     OW29387   5.335  13.577   6.881
 9185SOL    HW129388   5.305  13.486   6.884
 9185SOL    HW229389   5.255  13.628   6.871
 9186SOL     OW29390  10.781  14.069   1.962
 9186SOL    HW129391  10.869  14.090   1.995
 9186SOL    HW229392  10.735  14.034   2.038
 9187SOL     OW29393  14.182   6.790   4.971
 9187SOL    HW129394  14.094   6.828   4.967
 9187SOL    HW229395  14.168   6.696   4.971
 9188SOL     OW29396  10.526   3.666   2.735
 9188SOL    HW129397  10.601   3.609   2.755
 9188SOL    HW229398  10.502   3.703   2.820
 9189SOL     OW29399   7.491  10.351  13.050
 9189SOL    HW129400   7.473  10.295  12.975
 9189SOL    HW229401   7.496  10.440  13.014
 9190SOL     OW29402  14.531   0.487  14.254
 9190SOL    HW129403  14.607   0.450  14.298
 9190SOL    HW229404  14.456   0.459  14.306
 9191SOL     OW29405   2.712  11.083   1.596
 9191SOL    HW129406   2.758  11.041   1.668
 9191SOL    HW229407   2.778  11.092   1.527
 9192SOL     OW29408  12.310   8.690   1.934
 9192SOL    HW129409  12.257   8.680   1.855
 9192SOL    HW229410  12.339   8.601   1.954
 9193SOL     OW29411  10.343   2.094  13.398
 9193SOL    HW129412  10.274   2.158  13.378
 9193SOL    HW229413  10.363   2.109  13.490
 9194SOL     OW29414  10.967  11.239   1.809
 9194SOL    HW129415  10.920  11.156   1.802
 9194SOL    HW229416  10.901  11.303   1.834
 9195SOL     OW29417   8.250   5.355   8.875
 9195SOL    HW129418   8.314   5.413   8.916
 9195SOL    HW229419   8.187   5.414   8.834
 9196SOL     OW29420  14.850   1.241   5.888
 9196SOL    HW129421  14.771   1.214   5.841
 9196SOL    HW229422  14.879   1.163   5.934
 9197SOL     OW29423   2.659   0.590   4.732
 9197SOL    HW129424   2.621   0.675   4.754
 9197SOL    HW229425   2.735   0.611   4.677
 9198SOL     OW29426   4.303  10.350   9.443
 9198SOL    HW129427   4.268  10.282   9.501
 9198SOL    HW229428   4.377  10.386   9.491
 9199SOL     OW29429   2.943   5.738   0.837
 9199SOL    HW129430   2.986   5.804   0.783
 9199SOL    HW229431   2.911   5.673   0.774
 9200SOL     OW29432   1.415  14.595   0.660
 9200SOL    HW129433   1.454  14.510   0.638
 9200SOL    HW229434   1.374  14.580   0.745
 9201SOL     OW29435   8.886   2.700  10.050
 9201SOL    HW129436   8.910   2.787  10.082
 9201SOL    HW229437   8.965   2.670  10.004
 9202SOL     OW29438   3.562  12.057  10.698
 9202SOL    HW129439   3.614  11.992  10.650
 9202SOL    HW229440   3.627  12.122  10.727
 9203SOL     OW29441   9.454   7.468   8.472
 9203SOL    HW129442   9.413   7.459   8.558
 9203SOL    HW229443   9.444   7.560   8.450
 9204SOL     OW29444   1.622   6.234   1.250
 9204SOL    HW129445   1.634   6.221   1.156
 9204SOL    HW229446   1.557   6.304   1.256
 9205SOL     OW29447  11.234   0.285   3.152
 9205SOL    HW129448  11.202   0.255   3.067
 9205SOL    HW229449  11.309   0.227   3.171
 9206SOL     OW29450   7.404   7.168   4.779
 9206SOL    HW129451   7.397   7.260   4.756
 9206SOL    HW229452   7.498   7.151   4.781
 9207SOL     OW29453  10.120   6.782   4.878
 9207SOL    HW129454  10.172   6.710   4.842
 9207SOL    HW229455  10.031   6.765   4.847
 9208SOL     OW29456   2.477   2.145   1.014
 9208SOL    HW129457   2.390   2.107   1.009
 9208SOL    HW229458   2.462   2.239   1.017
 9209SOL     OW29459   8.628  13.648   1.727
 9209SOL    HW129460   8.674  13.688   1.800
 9209SOL    HW229461   8.594  13.566   1.761
 9210SOL     OW29462   4.188   6.326   2.030
 9210SOL    HW129463   4.111   6.350   1.978
 9210SOL    HW229464   4.170   6.237   2.060
 9211SOL     OW29465   2.784   2.079   6.279
 9211SOL    HW129466   2.753   2.151   6.225
 9211SOL    HW229467   2.872   2.105   6.307
 9212SOL     OW29468   8.099   7.848  14.288
 9212SOL    HW129469   8.039   7.790  14.241
 9212SOL    HW229470   8.052   7.931  14.295
 9213SOL     OW29471  12.652   1.964   0.365
 9213SOL    HW129472  12.723   1.905   0.339
 9213SOL    HW229473  12.652   1.960   0.461
 9214SOL     OW29474   9.342  11.821   9.335
 9214SOL    HW129475   9.331  11.843   9.243
 9214SOL    HW229476   9.273  11.870   9.380
 9215SOL     OW29477   3.398   4.091  14.658
 9215SOL    HW129478   3.437   4.160  14.711
 9215SOL    HW229479   3.410   4.120  14.568
 9216SOL     OW29480  14.797   7.173  10.378
 9216SOL    HW129481  14.834   7.201  10.293
 9216SOL    HW229482  14.703   7.185  10.368
 9217SOL     OW29483  14.483  11.116  14.399
 9217SOL    HW129484  14.512  11.204  14.420
 9217SOL    HW229485  14.541  11.059  14.449
 9218SOL     OW29486   6.207   7.929  11.524
 9218SOL    HW129487   6.205   8.022  11.548
 9218SOL    HW229488   6.116   7.908  11.503
 9219SOL     OW29489   8.103   6.201   5.873
 9219SOL    HW129490   8.041   6.195   5.946
 9219SOL    HW229491   8.137   6.291   5.878
 9220SOL     OW29492   1.897  10.909   3.463
 9220SOL    HW129493   1.835  10.976   3.492
 9220SOL    HW229494   1.883  10.902   3.369
 9221SOL     OW29495   9.058   1.341   5.559
 9221SOL    HW129496   9.136   1.285   5.560
 9221SOL    HW229497   9.051   1.374   5.648
 9222SOL     OW29498  13.202   7.444   7.611
 9222SOL    HW129499  13.131   7.445   7.547
 9222SOL    HW229500  13.280   7.468   7.562
 9223SOL     OW29501  13.306  14.810   8.582
 9223SOL    HW129502  13.231  14.828   8.526
 9223SOL    HW229503  13.342   0.018   8.602
 9224SOL     OW29504  14.454   6.467   3.118
 9224SOL    HW129505  14.387   6.453   3.185
 9224SOL    HW229506  14.410   6.444   3.036
 9225SOL     OW29507   6.654   3.043  14.073
 9225SOL    HW129508   6.561   3.066  14.070
 9225SOL    HW229509   6.661   2.984  14.148
 9226SOL     OW29510  14.347  11.014   2.398
 9226SOL    HW129511  14.429  10.988   2.356
 9226SOL    HW229512  14.330  11.102   2.362
 9227SOL     OW29513   4.952  12.643   0.717
 9227SOL    HW129514   4.875  12.696   0.697
 9227SOL    HW229515   5.024  12.688   0.673
 9228SOL     OW29516   0.623  13.380  11.981
 9228SOL    HW129517   0.637  13.293  11.943
 9228SOL    HW229518   0.538  13.375  12.024
 9229SOL     OW29519   0.895   8.596   7.430
 9229SOL    HW129520   0.948   8.628   7.504
 9229SOL    HW229521   0.824   8.547   7.471
 9230SOL     OW29522   9.437  13.601   9.364
 9230SOL    HW129523   9.404  13.607   9.454
 9230SOL    HW229524   9.513  13.543   9.370
 9231SOL     OW29525   5.820   7.612  12.830
 9231SOL    HW129526   5.915   7.611  12.830
 9231SOL    HW229527   5.796   7.688  12.883
 9232SOL     OW29528   0.461   4.311  14.407
 9232SOL    HW129529   0.398   4.306  14.335
 9232SOL    HW229530   0.482   4.404  14.414
 9233SOL     OW29531   9.863  14.191  10.715
 9233SOL    HW129532   9.777  14.223  10.689
 9233SOL    HW229533   9.891  14.136  10.642
 9234SOL     OW29534  12.339  10.079   0.610
 9234SOL    HW129535  12.316  10.164   0.572
 9234SOL    HW229536  12.435  10.079   0.612
 9235SOL     OW29537  10.782   9.695   8.463
 9235SOL    HW129538  10.752   9.637   8.393
 9235SOL    HW229539  10.702   9.739   8.493
 9236SOL     OW29540  11.189  11.622   4.003
 9236SOL    HW129541  11.195  11.712   4.034
 9236SOL    HW229542  11.095  11.603   4.000
 9237SOL     OW29543   4.918   8.893   0.616
 9237SOL    HW129544   4.912   8.798   0.602
 9237SOL    HW229545   4.934   8.929   0.529
 9238SOL     OW29546   7.974   4.489   4.567
 9238SOL    HW129547   8.050   4.431   4.572
 9238SOL    HW229548   7.910   4.439   4.516
 9239SOL     OW29549  10.522  14.165  14.255
 9239SOL    HW129550  10.429  14.183  14.271
 9239SOL    HW229551  10.522  14.096  14.189
 9240SOL     OW29552   2.662  13.581   1.361
 9240SOL    HW129553   2.673  13.563   1.268
 9240SOL    HW229554   2.739  13.543   1.403
 9241SOL     OW29555  10.118   1.661   5.791
 9241SOL    HW129556  10.198   1.625   5.828
 9241SOL    HW229557  10.071   1.585   5.756
 9242SOL     OW29558  12.689   4.499   3.878
 9242SOL    HW129559  12.597   4.510   3.901
 9242SOL    HW229560  12.694   4.524   3.785
 9243SOL     OW29561  12.712  14.503   5.868
 9243SOL    HW129562  12.804  14.521   5.853
 9243SOL    HW229563  12.711  14.422   5.919
 9244SOL     OW29564   3.953  13.883   5.091
 9244SOL    HW129565   3.898  13.824   5.141
 9244SOL    HW229566   3.904  13.965   5.087
 9245SOL     OW29567   6.462   3.809   0.391
 9245SOL    HW129568   6.423   3.784   0.475
 9245SOL    HW229569   6.448   3.904   0.386
 9246SOL     OW29570   5.386   4.483   6.506
 9246SOL    HW129571   5.378   4.452   6.597
 9246SOL    HW229572   5.345   4.569   6.507
 9247SOL     OW29573   6.160  12.472   4.563
 9247SOL    HW129574   6.096  12.534   4.599
 9247SOL    HW229575   6.124  12.386   4.584
 9248SOL     OW29576  11.747  10.725  10.478
 9248SOL    HW129577  11.764  10.799  10.537
 9248SOL    HW229578  11.721  10.654  10.537
 9249SOL     OW29579   9.347  12.053  12.408
 9249SOL    HW129580   9.333  12.084  12.318
 9249SOL    HW229581   9.284  12.102  12.460
 9250SOL     OW29582   0.881   6.874   4.697
 9250SOL    HW129583   0.913   6.949   4.747
 9250SOL    HW229584   0.869   6.805   4.762
 9251SOL     OW29585   1.246   4.531  10.997
 9251SOL    HW129586   1.167   4.563  11.040
 9251SOL    HW229587   1.309   4.521  11.069
 9252SOL     OW29588   5.544   1.026  10.067
 9252SOL    HW129589   5.619   1.049  10.012
 9252SOL    HW229590   5.499   1.109  10.083
 9253SOL     OW29591   2.046   1.240   2.051
 9253SOL    HW129592   2.054   1.159   2.100
 9253SOL    HW229593   2.114   1.297   2.087
 9254SOL     OW29594  12.803  11.746  10.198
 9254SOL    HW129595  12.883  11.799  10.198
 9254SOL    HW229596  12.742  11.795  10.143
 9255SOL     OW29597  14.712  10.786   8.130
 9255SOL    HW129598  14.772  10.714   8.115
 9255SOL    HW229599  14.768  10.860   8.155
 9256SOL     OW29600   8.941   3.489  11.972
 9256SOL    HW129601   9.004   3.419  11.952
 9256SOL    HW229602   8.951   3.551  11.900
 9257SOL     OW29603   4.245   2.355   9.659
 9257SOL    HW129604   4.287   2.416   9.597
 9257SOL    HW229605   4.312   2.289   9.676
 9258SOL     OW29606   2.477   5.882  10.130
 9258SOL    HW129607   2.423   5.873  10.209
 9258SOL    HW229608   2.507   5.972  10.132
 9259SOL     OW29609   0.785   8.410   9.949
 9259SOL    HW129610   0.794   8.431   9.856
 9259SOL    HW229611   0.766   8.495   9.990
 9260SOL     OW29612   0.941  10.015   4.976
 9260SOL    HW129613   1.030  10.035   5.004
 9260SOL    HW229614   0.901   9.971   5.051
 9261SOL     OW29615   3.547  10.110   6.167
 9261SOL    HW129616   3.541  10.202   6.142
 9261SOL    HW229617   3.572  10.111   6.259
 9262SOL     OW29618   0.750   1.722   0.994
 9262SOL    HW129619   0.705   1.656   0.942
 9262SOL    HW229620   0.709   1.717   1.080
 9263SOL     OW29621  13.545   4.415   0.192
 9263SOL    HW129622  13.468   4.456   0.231
 9263SOL    HW229623  13.509   4.354   0.127
 9264SOL     OW29624  12.641   8.253   3.301
 9264SOL    HW129625  12.549   8.248   3.276
 9264SOL    HW229626  12.688   8.246   3.218
 9265SOL     OW29627   4.988   8.725   9.890
 9265SOL    HW129628   4.999   8.684   9.975
 9265SOL    HW229629   4.993   8.653   9.827
 9266SOL     OW29630   3.042  11.090   7.421
 9266SOL    HW129631   3.128  11.048   7.434
 9266SOL    HW229632   3.018  11.067   7.331
 9267SOL     OW29633   4.309  12.942   8.556
 9267SOL    HW129634   4.326  13.021   8.505
 9267SOL    HW229635   4.278  12.878   8.492
 9268SOL     OW29636   1.324   6.324   1.547
 9268SOL    HW129637   1.399   6.288   1.594
 9268SOL    HW229638   1.362   6.366   1.470
 9269SOL     OW29639   7.158   9.260   2.635
 9269SOL    HW129640   7.230   9.316   2.603
 9269SOL    HW229641   7.096   9.321   2.675
 9270SOL     OW29642   3.879   9.847  14.041
 9270SOL    HW129643   3.894   9.937  14.071
 9270SOL    HW229644   3.787   9.831  14.059
 9271SOL     OW29645   0.682  10.391   7.500
 9271SOL    HW129646   0.679  10.433   7.414
 9271SOL    HW229647   0.771  10.406   7.531
 9272SOL     OW29648   7.023  10.358  12.502
 9272SOL    HW129649   7.093  10.342  12.566
 9272SOL    HW229650   6.970  10.278  12.504
 9273SOL     OW29651   7.479   7.367  13.223
 9273SOL    HW129652   7.395   7.358  13.179
 9273SOL    HW229653   7.472   7.448  13.273
 9274SOL     OW29654   4.848   7.202  10.061
 9274SOL    HW129655   4.792   7.124  10.051
 9274SOL    HW229656   4.919   7.173  10.119
 9275SOL     OW29657   7.821   1.319  11.230
 9275SOL    HW129658   7.814   1.286  11.140
 9275SOL    HW229659   7.907   1.361  11.233
 9276SOL     OW29660   3.830   1.033   8.824
 9276SOL    HW129661   3.852   0.972   8.754
 9276SOL    HW229662   3.738   1.016   8.844
 9277SOL     OW29663   6.878   3.825   3.795
 9277SOL    HW129664   6.819   3.890   3.834
 9277SOL    HW229665   6.961   3.870   3.786
 9278SOL     OW29666  12.411   1.194   1.344
 9278SOL    HW129667  12.435   1.169   1.433
 9278SOL    HW229668  12.335   1.140   1.323
 9279SOL     OW29669   9.651   6.864  11.202
 9279SOL    HW129670   9.563   6.900  11.190
 9279SOL    HW229671   9.644   6.774  11.168
 9280SOL     OW29672   6.914   0.165   7.237
 9280SOL    HW129673   6.904   0.158   7.143
 9280SOL    HW229674   6.894   0.257   7.257
 9281SOL     OW29675   7.462   2.147  11.805
 9281SOL    HW129676   7.403   2.222  11.814
 9281SOL    HW229677   7.548   2.187  11.788
 9282SOL     OW29678   7.344   5.723  10.111
 9282SOL    HW129679   7.374   5.646  10.161
 9282SOL    HW229680   7.258   5.742  10.147
 9283SOL     OW29681   6.271   9.569  11.651
 9283SOL    HW129682   6.252   9.478  11.671
 9283SOL    HW229683   6.185   9.612  11.653
 9284SOL     OW29684   2.301   9.525   1.096
 9284SOL    HW129685   2.255   9.609   1.088
 9284SOL    HW229686   2.363   9.524   1.023
 9285SOL     OW29687   2.207   7.915   4.649
 9285SOL    HW129688   2.112   7.903   4.638
 9285SOL    HW229689   2.230   7.983   4.585
 9286SOL     OW29690   4.849   8.873   3.176
 9286SOL    HW129691   4.808   8.902   3.257
 9286SOL    HW229692   4.778   8.875   3.111
 9287SOL     OW29693   5.859   7.122   5.875
 9287SOL    HW129694   5.826   7.074   5.799
 9287SOL    HW229695   5.784   7.125   5.935
 9288SOL     OW29696   5.356   0.319   8.172
 9288SOL    HW129697   5.397   0.255   8.114
 9288SOL    HW229698   5.301   0.267   8.230
 9289SOL     OW29699  13.103  11.959   1.043
 9289SOL    HW129700  13.049  12.000   0.976
 9289SOL    HW229701  13.120  12.028   1.106
 9290SOL     OW29702   0.015   6.658   2.252
 9290SOL    HW129703   0.044   6.579   2.206
 9290SOL    HW229704  14.816   6.687   2.204
 9291SOL     OW29705   4.644  12.856   3.968
 9291SOL    HW129706   4.669  12.948   3.964
 9291SOL    HW229707   4.600  12.846   4.053
 9292SOL     OW29708   4.169   1.625   1.067
 9292SOL    HW129709   4.079   1.655   1.058
 9292SOL    HW229710   4.172   1.582   1.153
 9293SOL     OW29711   7.520  11.714   0.008
 9293SOL    HW129712   7.498  11.622   0.022
 9293SOL    HW229713   7.458  11.745  14.822
 9294SOL     OW29714   6.547  12.086   3.639
 9294SOL    HW129715   6.558  12.115   3.548
 9294SOL    HW229716   6.568  11.993   3.637
 9295SOL     OW29717  10.191   2.309   6.675
 9295SOL    HW129718  10.179   2.254   6.753
 9295SOL    HW229719  10.181   2.398   6.708
 9296SOL     OW29720  10.974   4.179   9.834
 9296SOL    HW129721  10.917   4.249   9.864
 9296SOL    HW229722  11.025   4.155   9.911
 9297SOL     OW29723   4.930   1.994   7.481
 9297SOL    HW129724   4.934   1.918   7.423
 9297SOL    HW229725   4.868   2.054   7.439
 9298SOL     OW29726   3.624  14.429   5.838
 9298SOL    HW129727   3.532  14.456   5.838
 9298SOL    HW229728   3.642  14.407   5.930
 9299SOL     OW29729   4.296   0.144   6.031
 9299SOL    HW129730   4.385   0.171   6.008
 9299SOL    HW229731   4.257   0.115   5.949
 9300SOL     OW29732   0.232   3.626  12.706
 9300SOL    HW129733   0.303   3.623  12.770
 9300SOL    HW229734   0.246   3.708  12.658
 9301SOL     OW29735  13.173   3.758   0.967
 9301SOL    HW129736  13.109   3.783   0.900
 9301SOL    HW229737  13.121   3.743   1.046
 9302SOL     OW29738  10.035   7.983  12.973
 9302SOL    HW129739  10.027   7.907  12.915
 9302SOL    HW229740  10.082   7.950  13.050
 9303SOL     OW29741   4.652   5.830  10.400
 9303SOL    HW129742   4.597   5.883  10.343
 9303SOL    HW229743   4.695   5.892  10.459
 9304SOL     OW29744   9.639   2.516   2.809
 9304SOL    HW129745   9.618   2.432   2.768
 9304SOL    HW229746   9.616   2.581   2.743
 9305SOL     OW29747   3.248   7.261   7.407
 9305SOL    HW129748   3.248   7.299   7.494
 9305SOL    HW229749   3.252   7.336   7.348
 9306SOL     OW29750   9.999   6.513   4.148
 9306SOL    HW129751  10.043   6.452   4.207
 9306SOL    HW229752  10.055   6.518   4.071
 9307SOL     OW29753   5.555   5.550  14.290
 9307SOL    HW129754   5.618   5.501  14.341
 9307SOL    HW229755   5.608   5.606  14.233
 9308SOL     OW29756   0.601   2.366   6.311
 9308SOL    HW129757   0.524   2.374   6.367
 9308SOL    HW229758   0.575   2.306   6.242
 9309SOL     OW29759   9.462   7.349  13.072
 9309SOL    HW129760   9.485   7.306  12.989
 9309SOL    HW229761   9.397   7.415  13.048
 9310SOL     OW29762  13.697  13.298   0.907
 9310SOL    HW129763  13.722  13.335   0.822
 9310SOL    HW229764  13.630  13.357   0.941
 9311SOL     OW29765   2.478  10.100   5.163
 9311SOL    HW129766   2.574  10.100   5.171
 9311SOL    HW229767   2.462  10.117   5.070
 9312SOL     OW29768   2.348   2.236  14.858
 9312SOL    HW129769   2.344   2.159   0.035
 9312SOL    HW229770   2.281   2.221  14.791
 9313SOL     OW29771   4.097   9.321   2.071
 9313SOL    HW129772   4.166   9.288   2.129
 9313SOL    HW229773   4.075   9.246   2.016
 9314SOL     OW29774   4.072   7.970   9.692
 9314SOL    HW129775   3.987   8.013   9.702
 9314SOL    HW229776   4.052   7.876   9.693
 9315SOL     OW29777   2.999   2.857   7.754
 9315SOL    HW129778   2.961   2.896   7.676
 9315SOL    HW229779   2.932   2.869   7.822
 9316SOL     OW29780  13.507  14.799   1.899
 9316SOL    HW129781  13.502  14.707   1.925
 9316SOL    HW229782  13.456  14.846   1.966
 9317SOL     OW29783   8.558   5.681  13.129
 9317SOL    HW129784   8.622   5.617  13.097
 9317SOL    HW229785   8.595   5.765  13.103
 9318SOL     OW29786   4.689   3.972  13.117
 9318SOL    HW129787   4.665   4.064  13.110
 9318SOL    HW229788   4.723   3.963  13.206
 9319SOL     OW29789  14.871   9.935   8.820
 9319SOL    HW129790   0.029   9.885   8.892
 9319SOL    HW229791  14.847  10.019   8.858
 9320SOL     OW29792  13.352   6.530   4.452
 9320SOL    HW129793  13.337   6.463   4.385
 9320SOL    HW229794  13.386   6.605   4.404
 9321SOL     OW29795   8.948   1.057   6.234
 9321SOL    HW129796   8.990   1.143   6.224
 9321SOL    HW229797   9.001   0.999   6.180
 9322SOL     OW29798  13.282  11.586   1.340
 9322SOL    HW129799  13.263  11.561   1.250
 9322SOL    HW229800  13.375  11.566   1.352
 9323SOL     OW29801   7.005   1.954   3.696
 9323SOL    HW129802   7.087   2.000   3.716
 9323SOL    HW229803   6.940   1.997   3.751
 9324SOL     OW29804   5.684  13.882   8.593
 9324SOL    HW129805   5.598  13.843   8.577
 9324SOL    HW229806   5.691  13.889   8.688
 9325SOL     OW29807   2.533   3.803  11.901
 9325SOL    HW129808   2.492   3.873  11.850
 9325SOL    HW229809   2.460   3.751  11.934
 9326SOL     OW29810   9.205   9.177  10.244
 9326SOL    HW129811   9.285   9.218  10.276
 9326SOL    HW229812   9.214   9.085  10.268
 9327SOL     OW29813   1.620  14.324   8.745
 9327SOL    HW129814   1.645  14.232   8.736
 9327SOL    HW229815   1.645  14.347   8.835
 9328SOL     OW29816   9.700   9.860   5.054
 9328SOL    HW129817   9.718   9.901   4.970
 9328SOL    HW229818   9.780   9.813   5.076
 9329SOL     OW29819  14.110   6.625  12.859
 9329SOL    HW129820  14.189   6.620  12.914
 9329SOL    HW229821  14.046   6.572  12.906
 9330SOL     OW29822   8.022   0.242   8.436
 9330SOL    HW129823   8.006   0.151   8.459
 9330SOL    HW229824   8.108   0.262   8.473
 9331SOL     OW29825   0.241   1.695  11.844
 9331SOL    HW129826   0.166   1.701  11.786
 9331SOL    HW229827   0.208   1.649  11.922
 9332SOL     OW29828   3.966  10.367  10.323
 9332SOL    HW129829   3.939  10.458  10.306
 9332SOL    HW229830   3.964  10.360  10.419
 9333SOL     OW29831   7.602  11.991  11.036
 9333SOL    HW129832   7.641  12.071  11.073
 9333SOL    HW229833   7.602  12.006  10.941
 9334SOL     OW29834   2.022  12.969   7.891
 9334SOL    HW129835   1.971  12.935   7.965
 9334SOL    HW229836   1.990  12.919   7.816
 9335SOL     OW29837   2.678   1.554   2.958
 9335SOL    HW129838   2.642   1.509   2.882
 9335SOL    HW229839   2.722   1.631   2.922
 9336SOL     OW29840   4.070   8.384  10.526
 9336SOL    HW129841   4.008   8.379  10.453
 9336SOL    HW229842   4.017   8.415  10.600
 9337SOL     OW29843   8.582   9.238   0.169
 9337SOL    HW129844   8.526   9.234   0.092
 9337SOL    HW229845   8.546   9.310   0.221
 9338SOL     OW29846  11.333  13.263  14.281
 9338SOL    HW129847  11.257  13.273  14.224
 9338SOL    HW229848  11.299  13.224  14.361
 9339SOL     OW29849   3.847   0.677   3.617
 9339SOL    HW129850   3.904   0.635   3.552
 9339SOL    HW229851   3.867   0.770   3.609
 9340SOL     OW29852  13.312  14.364  12.655
 9340SOL    HW129853  13.407  14.371  12.646
 9340SOL    HW229854  13.286  14.447  12.696
 9341SOL     OW29855   1.138   1.880  12.081
 9341SOL    HW129856   1.227   1.857  12.055
 9341SOL    HW229857   1.135   1.864  12.176
 9342SOL     OW29858   7.151   4.519   3.535
 9342SOL    HW129859   7.184   4.605   3.560
 9342SOL    HW229860   7.066   4.536   3.494
 9343SOL     OW29861   0.559   0.474  12.000
 9343SOL    HW129862   0.551   0.382  12.023
 9343SOL    HW229863   0.513   0.521  12.070
 9344SOL     OW29864   1.085  12.638   2.374
 9344SOL    HW129865   1.158  12.695   2.399
 9344SOL    HW229866   1.009  12.696   2.374
 9345SOL     OW29867  13.606  14.554   7.084
 9345SOL    HW129868  13.568  14.467   7.071
 9345SOL    HW229869  13.587  14.601   7.004
 9346SOL     OW29870   9.216  12.892   7.880
 9346SOL    HW129871   9.251  12.832   7.947
 9346SOL    HW229872   9.158  12.837   7.828
 9347SOL     OW29873   8.934   8.964   1.225
 9347SOL    HW129874   8.971   8.917   1.299
 9347SOL    HW229875   8.840   8.951   1.231
 9348SOL     OW29876   2.479   7.350   3.940
 9348SOL    HW129877   2.544   7.329   4.006
 9348SOL    HW229878   2.395   7.340   3.985
 9349SOL     OW29879   3.341   8.292   1.880
 9349SOL    HW129880   3.334   8.284   1.785
 9349SOL    HW229881   3.352   8.202   1.911
 9350SOL     OW29882   3.725   4.590   3.313
 9350SOL    HW129883   3.780   4.512   3.322
 9350SOL    HW229884   3.647   4.570   3.364
 9351SOL     OW29885  14.564  14.091   0.244
 9351SOL    HW129886  14.653  14.118   0.222
 9351SOL    HW229887  14.553  14.006   0.202
 9352SOL     OW29888   2.944  12.019   1.461
 9352SOL    HW129889   2.993  11.942   1.490
 9352SOL    HW229890   2.854  12.003   1.488
 9353SOL     OW29891   5.824   8.388   3.125
 9353SOL    HW129892   5.827   8.295   3.149
 9353SOL    HW229893   5.888   8.430   3.183
 9354SOL     OW29894  10.857  14.635  14.878
 9354SOL    HW129895  10.858  14.685   0.081
 9354SOL    HW229896  10.854  14.702  14.810
 9355SOL     OW29897  10.890  12.067   9.260
 9355SOL    HW129898  10.970  12.056   9.208
 9355SOL    HW229899  10.917  12.118   9.336
 9356SOL     OW29900   2.089   7.968   8.973
 9356SOL    HW129901   2.109   7.878   8.998
 9356SOL    HW229902   2.045   8.005   9.050
 9357SOL     OW29903  10.360   7.057   7.937
 9357SOL    HW129904  10.289   7.028   7.994
 9357SOL    HW229905  10.317   7.080   7.854
 9358SOL     OW29906   8.646   1.275  13.421
 9358SOL    HW129907   8.574   1.335  13.440
 9358SOL    HW229908   8.693   1.267  13.504
 9359SOL     OW29909   3.388  12.716   0.998
 9359SOL    HW129910   3.451  12.648   0.973
 9359SOL    HW229911   3.433  12.798   0.979
 9360SOL     OW29912   5.843  10.599   6.418
 9360SOL    HW129913   5.830  10.544   6.341
 9360SOL    HW229914   5.827  10.541   6.493
 9361SOL     OW29915   6.301  14.607  10.923
 9361SOL    HW129916   6.315  14.671  10.993
 9361SOL    HW229917   6.269  14.659  10.849
 9362SOL     OW29918   0.142  11.752   6.291
 9362SOL    HW129919   0.135  11.749   6.386
 9362SOL    HW229920   0.090  11.828   6.265
 9363SOL     OW29921  12.311   6.545   1.125
 9363SOL    HW129922  12.314   6.453   1.099
 9363SOL    HW229923  12.257   6.586   1.058
 9364SOL     OW29924  10.869   9.232   8.263
 9364SOL    HW129925  10.853   9.309   8.318
 9364SOL    HW229926  10.940   9.259   8.204
 9365SOL     OW29927   6.381   2.051   6.902
 9365SOL    HW129928   6.459   2.062   6.957
 9365SOL    HW229929   6.393   1.964   6.862
 9366SOL     OW29930   8.816   3.451  13.790
 9366SOL    HW129931   8.870   3.527  13.769
 9366SOL    HW229932   8.728   3.476  13.763
 9367SOL     OW29933  11.709   7.777   3.014
 9367SOL    HW129934  11.759   7.787   2.933
 9367SOL    HW229935  11.706   7.865   3.052
 9368SOL     OW29936  12.713  13.983   8.489
 9368SOL    HW129937  12.791  13.957   8.539
 9368SOL    HW229938  12.689  13.904   8.441
 9369SOL     OW29939   6.013   7.002  10.345
 9369SOL    HW129940   6.004   7.078  10.402
 9369SOL    HW229941   5.985   7.033  10.259
 9370SOL     OW29942   3.313   6.446   7.334
 9370SOL    HW129943   3.221   6.438   7.310
 9370SOL    HW229944   3.339   6.358   7.361
 9371SOL     OW29945  11.076   0.284  14.042
 9371SOL    HW129946  11.059   0.214  13.979
 9371SOL    HW229947  11.011   0.269  14.112
 9372SOL     OW29948  12.720   0.061   0.016
 9372SOL    HW129949  12.748  14.849   0.024
 9372SOL    HW229950  12.679   0.066  14.809
 9373SOL     OW29951   8.624   9.719   7.286
 9373SOL    HW129952   8.707   9.695   7.326
 9373SOL    HW229953   8.646   9.747   7.197
 9374SOL     OW29954   4.096   4.125  10.929
 9374SOL    HW129955   4.119   4.198  10.871
 9374SOL    HW229956   4.046   4.065  10.874
 9375SOL     OW29957  14.642   9.030   0.427
 9375SOL    HW129958  14.551   9.004   0.442
 9375SOL    HW229959  14.694   8.962   0.470
 9376SOL     OW29960   0.746   5.688   5.070
 9376SOL    HW129961   0.675   5.673   5.007
 9376SOL    HW229962   0.826   5.684   5.017
 9377SOL     OW29963  10.130   2.716   1.571
 9377SOL    HW129964  10.101   2.807   1.578
 9377SOL    HW229965  10.225   2.722   1.567
 9378SOL     OW29966   2.548   6.992   4.309
 9378SOL    HW129967   2.527   6.928   4.241
 9378SOL    HW229968   2.598   6.943   4.374
 9379SOL     OW29969   0.218   6.222  13.049
 9379SOL    HW129970   0.170   6.191  12.972
 9379SOL    HW229971   0.151   6.256  13.108
 9380SOL     OW29972  11.895  11.034   6.858
 9380SOL    HW129973  11.970  11.076   6.815
 9380SOL    HW229974  11.819  11.064   6.809
 9381SOL     OW29975   6.378   0.064  12.170
 9381SOL    HW129976   6.449   0.127  12.177
 9381SOL    HW229977   6.404  14.871  12.229
 9382SOL     OW29978  12.802  10.090  11.960
 9382SOL    HW129979  12.779  10.000  11.937
 9382SOL    HW229980  12.740  10.115  12.028
 9383SOL     OW29981  10.719   4.157  14.205
 9383SOL    HW129982  10.782   4.145  14.134
 9383SOL    HW229983  10.764   4.212  14.269
 9384SOL     OW29984  14.602  13.467   6.640
 9384SOL    HW129985  14.556  13.392   6.678
 9384SOL    HW229986  14.686  13.431   6.612
 9385SOL     OW29987  11.664   6.160  11.558
 9385SOL    HW129988  11.580   6.204  11.538
 9385SOL    HW229989  11.709   6.221  11.617
 9386SOL     OW29990   5.387   3.425   6.282
 9386SOL    HW129991   5.418   3.514   6.265
 9386SOL    HW229992   5.347   3.429   6.368
 9387SOL     OW29993   0.173  14.274   2.878
 9387SOL    HW129994   0.186  14.180   2.889
 9387SOL    HW229995   0.261  14.311   2.877
 9388SOL     OW29996  10.036  12.004   5.834
 9388SOL    HW129997   9.956  11.952   5.833
 9388SOL    HW229998  10.020  12.076   5.774
 9389SOL     OW29999  13.902   6.680  10.011
 9389SOL    HW130000  13.914   6.585  10.014
 9389SOL    HW230001  13.826   6.696  10.068
 9390SOL     OW30002   9.323  12.395   4.343
 9390SOL    HW130003   9.267  12.319   4.358
 9390SOL    HW230004   9.266  12.470   4.360
 9391SOL     OW30005  14.426  13.119   3.974
 9391SOL    HW130006  14.363  13.075   4.031
 9391SOL    HW230007  14.404  13.212   3.981
 9392SOL     OW30008  10.609  11.797   5.061
 9392SOL    HW130009  10.539  11.850   5.023
 9392SOL    HW230010  10.688  11.825   5.015
 9393SOL     OW30011  13.548   7.873   4.461
 9393SOL    HW130012  13.469   7.826   4.485
 9393SOL    HW230013  13.565   7.932   4.535
 9394SOL     OW30014   6.000   6.291  11.999
 9394SOL    HW130015   5.969   6.368  12.047
 9394SOL    HW230016   5.953   6.218  12.038
 9395SOL     OW30017  12.292   9.257   4.769
 9395SOL    HW130018  12.361   9.280   4.706
 9395SOL    HW230019  12.210   9.273   4.722
 9396SOL     OW30020   7.274   2.472   6.188
 9396SOL    HW130021   7.300   2.416   6.262
 9396SOL    HW230022   7.207   2.422   6.142
 9397SOL     OW30023   1.619   9.850  12.854
 9397SOL    HW130024   1.684   9.889  12.912
 9397SOL    HW230025   1.544   9.910  12.860
 9398SOL     OW30026  13.810   4.349  14.604
 9398SOL    HW130027  13.857   4.431  14.590
 9398SOL    HW230028  13.826   4.327  14.696
 9399SOL     OW30029  11.798   8.876  13.847
 9399SOL    HW130030  11.789   8.968  13.824
 9399SOL    HW230031  11.892   8.857  13.836
 9400SOL     OW30032   2.308   7.400   1.919
 9400SOL    HW130033   2.281   7.316   1.882
 9400SOL    HW230034   2.387   7.424   1.871
 9401SOL     OW30035  14.732   5.045  11.035
 9401SOL    HW130036  14.820   5.083  11.039
 9401SOL    HW230037  14.743   4.957  11.070
 9402SOL     OW30038  11.669   7.917  13.650
 9402SOL    HW130039  11.638   7.989  13.705
 9402SOL    HW230040  11.726   7.958  13.586
 9403SOL     OW30041  12.550  13.471  12.210
 9403SOL    HW130042  12.486  13.467  12.138
 9403SOL    HW230043  12.544  13.560  12.243
 9404SOL     OW30044  11.414   1.362  14.799
 9404SOL    HW130045  11.476   1.311  14.852
 9404SOL    HW230046  11.465   1.388  14.722
 9405SOL     OW30047   6.492   7.059  12.905
 9405SOL    HW130048   6.466   7.066  12.813
 9405SOL    HW230049   6.423   7.106  12.952
 9406SOL     OW30050  13.944   1.951   2.899
 9406SOL    HW130051  14.006   1.984   2.833
 9406SOL    HW230052  13.931   1.859   2.875
 9407SOL     OW30053   3.061  13.447   7.287
 9407SOL    HW130054   3.038  13.407   7.371
 9407SOL    HW230055   3.004  13.404   7.224
 9408SOL     OW30056  11.862   7.922   5.688
 9408SOL    HW130057  11.916   8.000   5.674
 9408SOL    HW230058  11.831   7.898   5.600
 9409SOL     OW30059   6.806   9.999   4.546
 9409SOL    HW130060   6.764  10.016   4.630
 9409SOL    HW230061   6.813  10.085   4.504
 9410SOL     OW30062   3.940   4.959   8.416
 9410SOL    HW130063   3.998   4.898   8.370
 9410SOL    HW230064   3.852   4.927   8.397
 9411SOL     OW30065   3.691   0.770  13.474
 9411SOL    HW130066   3.726   0.701  13.530
 9411SOL    HW230067   3.710   0.740  13.385
 9412SOL     OW30068   8.550   7.450  12.439
 9412SOL    HW130069   8.621   7.429  12.377
 9412SOL    HW230070   8.552   7.546  12.445
 9413SOL     OW30071   0.769   7.258  14.219
 9413SOL    HW130072   0.716   7.294  14.290
 9413SOL    HW230073   0.752   7.164  14.221
 9414SOL     OW30074   3.900   3.044  11.628
 9414SOL    HW130075   3.816   3.023  11.669
 9414SOL    HW230076   3.883   3.041  11.534
 9415SOL     OW30077  13.343   5.029  10.047
 9415SOL    HW130078  13.323   5.107   9.997
 9415SOL    HW230079  13.420   4.991  10.004
 9416SOL     OW30080  13.934   6.905   4.912
 9416SOL    HW130081  13.905   6.827   4.865
 9416SOL    HW230082  13.854   6.955   4.927
 9417SOL     OW30083   7.300   3.011   0.441
 9417SOL    HW130084   7.267   3.068   0.510
 9417SOL    HW230085   7.306   3.066   0.363
 9418SOL     OW30086   4.856   9.010   2.172
 9418SOL    HW130087   4.815   8.940   2.121
 9418SOL    HW230088   4.843   8.985   2.263
 9419SOL     OW30089  12.834   9.327   5.212
 9419SOL    HW130090  12.920   9.322   5.253
 9419SOL    HW230091  12.775   9.289   5.277
 9420SOL     OW30092  12.924  10.814  13.616
 9420SOL    HW130093  12.863  10.863  13.562
 9420SOL    HW230094  12.945  10.736  13.564
 9421SOL     OW30095   5.943   2.310  12.038
 9421SOL    HW130096   6.026   2.267  12.057
 9421SOL    HW230097   5.885   2.238  12.011
 9422SOL     OW30098   8.784   0.148   7.762
 9422SOL    HW130099   8.729   0.191   7.827
 9422SOL    HW230100   8.873   0.164   7.792
 9423SOL     OW30101   7.112   7.955   6.749
 9423SOL    HW130102   7.135   8.048   6.744
 9423SOL    HW230103   7.082   7.943   6.839
 9424SOL     OW30104   2.876   9.292   4.243
 9424SOL    HW130105   2.812   9.221   4.254
 9424SOL    HW230106   2.908   9.309   4.331
 9425SOL     OW30107   8.390   0.920   2.021
 9425SOL    HW130108   8.316   0.891   2.074
 9425SOL    HW230109   8.455   0.951   2.085
 9426SOL     OW30110   1.654   1.050   4.150
 9426SOL    HW130111   1.685   1.122   4.095
 9426SOL    HW230112   1.735   1.011   4.185
 9427SOL     OW30113   3.583   0.608   0.591
 9427SOL    HW130114   3.543   0.644   0.670
 9427SOL    HW230115   3.516   0.617   0.523
 9428SOL     OW30116   3.456   8.453   4.599
 9428SOL    HW130117   3.407   8.492   4.672
 9428SOL    HW230118   3.397   8.386   4.564
 9429SOL     OW30119   9.419   8.060  11.119
 9429SOL    HW130120   9.456   8.037  11.205
 9429SOL    HW230121   9.476   8.129  11.086
 9430SOL     OW30122   0.995   7.686   6.750
 9430SOL    HW130123   1.019   7.597   6.776
 9430SOL    HW230124   0.913   7.676   6.702
 9431SOL     OW30125   2.037   0.212   1.005
 9431SOL    HW130126   1.961   0.155   0.994
 9431SOL    HW230127   2.008   0.297   0.971
 9432SOL     OW30128   7.101  10.103   4.408
 9432SOL    HW130129   7.161  10.161   4.362
 9432SOL    HW230130   7.080  10.035   4.344
 9433SOL     OW30131   4.982  10.317  11.738
 9433SOL    HW130132   4.952  10.228  11.758
 9433SOL    HW230133   5.044  10.306  11.666
 9434SOL     OW30134   8.355   0.119   5.001
 9434SOL    HW130135   8.307   0.151   4.925
 9434SOL    HW230136   8.446   0.112   4.971
 9435SOL     OW30137  11.448   1.124   8.717
 9435SOL    HW130138  11.485   1.067   8.784
 9435SOL    HW230139  11.369   1.161   8.757
 9436SOL     OW30140   6.953   0.574  12.726
 9436SOL    HW130141   6.975   0.667  12.736
 9436SOL    HW230142   6.858   0.571  12.738
 9437SOL     OW30143   6.849   0.572   8.914
 9437SOL    HW130144   6.867   0.622   8.834
 9437SOL    HW230145   6.858   0.635   8.985
 9438SOL     OW30146   2.447   9.102   7.638
 9438SOL    HW130147   2.413   9.058   7.560
 9438SOL    HW230148   2.526   9.147   7.607
 9439SOL     OW30149   4.657   8.994   1.840
 9439SOL    HW130150   4.730   9.054   1.852
 9439SOL    HW230151   4.674   8.923   1.903
 9440SOL     OW30152   1.457   7.366   9.740
 9440SOL    HW130153   1.425   7.330   9.823
 9440SOL    HW230154   1.379   7.376   9.686
 9441SOL     OW30155   1.759   6.588   4.358
 9441SOL    HW130156   1.842   6.627   4.384
 9441SOL    HW230157   1.704   6.592   4.436
 9442SOL     OW30158   0.935   7.212  10.176
 9442SOL    HW130159   1.014   7.256  10.208
 9442SOL    HW230160   0.878   7.283  10.147
 9443SOL     OW30161  10.449   9.184   1.643
 9443SOL    HW130162  10.522   9.244   1.627
 9443SOL    HW230163  10.417   9.208   1.730
 9444SOL     OW30164  12.244   5.564   6.917
 9444SOL    HW130165  12.315   5.534   6.860
 9444SOL    HW230166  12.262   5.521   7.001
 9445SOL     OW30167  11.982   0.609   9.367
 9445SOL    HW130168  11.995   0.682   9.428
 9445SOL    HW230169  11.936   0.648   9.293
 9446SOL     OW30170  11.304   2.551   1.727
 9446SOL    HW130171  11.232   2.490   1.707
 9446SOL    HW230172  11.296   2.567   1.821
 9447SOL     OW30173  12.056   2.305  10.495
 9447SOL    HW130174  12.056   2.219  10.537
 9447SOL    HW230175  12.011   2.362  10.557
 9448SOL     OW30176   8.492   0.880   6.566
 9448SOL    HW130177   8.400   0.899   6.544
 9448SOL    HW230178   8.537   0.877   6.482
 9449SOL     OW30179   9.537   6.475   5.548
 9449SOL    HW130180   9.571   6.565   5.546
 9449SOL    HW230181   9.576   6.433   5.472
 9450SOL     OW30182  11.792  12.778   9.614
 9450SOL    HW130183  11.764  12.869   9.623
 9450SOL    HW230184  11.746  12.733   9.685
 9451SOL     OW30185  12.899   9.407  10.340
 9451SOL    HW130186  12.854   9.474  10.392
 9451SOL    HW230187  12.834   9.380  10.275
 9452SOL     OW30188  10.246   1.307  11.493
 9452SOL    HW130189  10.299   1.386  11.503
 9452SOL    HW230190  10.245   1.290  11.399
 9453SOL     OW30191   4.680   1.587  10.371
 9453SOL    HW130192   4.762   1.635  10.379
 9453SOL    HW230193   4.612   1.654  10.381
 9454SOL     OW30194  12.182   4.685  14.036
 9454SOL    HW130195  12.144   4.701  14.122
 9454SOL    HW230196  12.208   4.772  14.005
 9455SOL     OW30197  13.592   0.452   7.845
 9455SOL    HW130198  13.668   0.505   7.871
 9455SOL    HW230199  13.607   0.368   7.888
 9456SOL     OW30200   5.933  10.554   5.948
 9456SOL    HW130201   5.988  10.476   5.952
 9456SOL    HW230202   5.990  10.622   5.914
 9457SOL     OW30203   8.502   5.720   5.516
 9457SOL    HW130204   8.435   5.772   5.472
 9457SOL    HW230205   8.582   5.773   5.508
 9458SOL     OW30206  14.853   7.836   8.636
 9458SOL    HW130207  14.775   7.818   8.584
 9458SOL    HW230208  14.862   7.758   8.692
 9459SOL     OW30209   1.007   7.737   2.975
 9459SOL    HW130210   1.041   7.704   2.891
 9459SOL    HW230211   0.916   7.758   2.957
 9460SOL     OW30212  14.505   8.903   5.870
 9460SOL    HW130213  14.471   8.891   5.959
 9460SOL    HW230214  14.599   8.891   5.879
 9461SOL     OW30215  12.854  12.747   9.075
 9461SOL    HW130216  12.797  12.747   9.152
 9461SOL    HW230217  12.835  12.665   9.031
 9462SOL     OW30218  13.993   8.908   7.324
 9462SOL    HW130219  14.062   8.914   7.390
 9462SOL    HW230220  13.927   8.851   7.363
 9463SOL     OW30221   8.053   9.044  11.858
 9463SOL    HW130222   7.963   9.071  11.843
 9463SOL    HW230223   8.106   9.118  11.830
 9464SOL     OW30224   9.014  10.277   7.255
 9464SOL    HW130225   9.087  10.218   7.272
 9464SOL    HW230226   9.050  10.345   7.199
 9465SOL     OW30227   1.357  13.644  14.009
 9465SOL    HW130228   1.384  13.729  13.975
 9465SOL    HW230229   1.318  13.599  13.933
 9466SOL     OW30230   1.575   7.356   0.678
 9466SOL    HW130231   1.641   7.344   0.747
 9466SOL    HW230232   1.588   7.445   0.648
 9467SOL     OW30233   0.015  11.955   2.673
 9467SOL    HW130234   0.104  11.927   2.697
 9467SOL    HW230235   0.029  12.033   2.619
 9468SOL     OW30236   4.820   7.001   5.634
 9468SOL    HW130237   4.808   7.065   5.563
 9468SOL    HW230238   4.800   6.917   5.594
 9469SOL     OW30239   9.813   0.078   4.441
 9469SOL    HW130240   9.758   0.000   4.449
 9469SOL    HW230241   9.883   0.053   4.382
 9470SOL     OW30242   4.301   4.977   9.768
 9470SOL    HW130243   4.259   4.899   9.805
 9470SOL    HW230244   4.385   4.947   9.735
 9471SOL     OW30245  12.910   1.127   8.257
 9471SOL    HW130246  12.959   1.053   8.294
 9471SOL    HW230247  12.900   1.187   8.330
 9472SOL     OW30248   4.959   6.574   7.383
 9472SOL    HW130249   4.956   6.480   7.363
 9472SOL    HW230250   4.947   6.578   7.477
 9473SOL     OW30251   4.077  12.000   8.836
 9473SOL    HW130252   4.156  12.015   8.784
 9473SOL    HW230253   4.093  12.047   8.918
 9474SOL     OW30254  10.268   4.933   0.179
 9474SOL    HW130255  10.196   4.973   0.130
 9474SOL    HW230256  10.347   4.973   0.144
 9475SOL     OW30257   2.208  12.328   5.647
 9475SOL    HW130258   2.137  12.388   5.626
 9475SOL    HW230259   2.287  12.381   5.639
 9476SOL     OW30260  12.562   0.120   7.732
 9476SOL    HW130261  12.476   0.131   7.692
 9476SOL    HW230262  12.567   0.188   7.799
 9477SOL     OW30263   9.982   9.739   3.100
 9477SOL    HW130264  10.011   9.827   3.126
 9477SOL    HW230265  10.014   9.728   3.011
 9478SOL     OW30266   6.556  11.246   2.592
 9478SOL    HW130267   6.559  11.247   2.497
 9478SOL    HW230268   6.644  11.272   2.619
 9479SOL     OW30269   9.714   9.016  14.575
 9479SOL    HW130270   9.801   8.988  14.604
 9479SOL    HW230271   9.668   8.935  14.556
 9480SOL     OW30272   2.385   7.889  14.449
 9480SOL    HW130273   2.351   7.938  14.524
 9480SOL    HW230274   2.403   7.802  14.484
 9481SOL     OW30275  14.450   5.917  11.290
 9481SOL    HW130276  14.439   5.823  11.303
 9481SOL    HW230277  14.432   5.931  11.197
 9482SOL     OW30278  12.365  10.269   2.265
 9482SOL    HW130279  12.313  10.347   2.243
 9482SOL    HW230280  12.302  10.210   2.307
 9483SOL     OW30281   6.061   6.331  14.136
 9483SOL    HW130282   6.091   6.311  14.047
 9483SOL    HW230283   6.024   6.419  14.129
 9484SOL     OW30284   3.088   3.126  13.724
 9484SOL    HW130285   3.057   3.135  13.634
 9484SOL    HW230286   3.130   3.210  13.743
 9485SOL     OW30287   6.074   8.644   4.873
 9485SOL    HW130288   6.068   8.665   4.966
 9485SOL    HW230289   6.161   8.604   4.864
 9486SOL     OW30290   6.210   1.685  12.667
 9486SOL    HW130291   6.251   1.756  12.617
 9486SOL    HW230292   6.156   1.639  12.602
 9487SOL     OW30293   1.082   1.600   5.298
 9487SOL    HW130294   1.057   1.686   5.330
 9487SOL    HW230295   1.133   1.618   5.219
 9488SOL     OW30296   5.237   2.753   6.955
 9488SOL    HW130297   5.285   2.692   6.899
 9488SOL    HW230298   5.284   2.748   7.039
 9489SOL     OW30299   6.458   1.756   9.162
 9489SOL    HW130300   6.434   1.730   9.073
 9489SOL    HW230301   6.523   1.825   9.150
 9490SOL     OW30302   0.323   4.636  12.468
 9490SOL    HW130303   0.243   4.689  12.458
 9490SOL    HW230304   0.325   4.582  12.389
 9491SOL     OW30305  11.311  12.195   7.584
 9491SOL    HW130306  11.237  12.233   7.632
 9491SOL    HW230307  11.318  12.106   7.617
 9492SOL     OW30308   3.320   2.763   3.334
 9492SOL    HW130309   3.368   2.782   3.414
 9492SOL    HW230310   3.244   2.712   3.362
 9493SOL     OW30311   4.592  14.875   3.693
 9493SOL    HW130312   4.650  14.799   3.690
 9493SOL    HW230313   4.646   0.069   3.664
 9494SOL     OW30314   0.416   7.501   3.332
 9494SOL    HW130315   0.397   7.519   3.424
 9494SOL    HW230316   0.340   7.534   3.285
 9495SOL     OW30317   9.308  12.074  10.504
 9495SOL    HW130318   9.266  12.054  10.588
 9495SOL    HW230319   9.270  12.158  10.477
 9496SOL     OW30320  11.536  12.497   4.200
 9496SOL    HW130321  11.567  12.455   4.119
 9496SOL    HW230322  11.548  12.591   4.183
 9497SOL     OW30323   6.522   2.866  14.645
 9497SOL    HW130324   6.558   2.780  14.668
 9497SOL    HW230325   6.465   2.888  14.719
 9498SOL     OW30326   2.295   9.971   1.029
 9498SOL    HW130327   2.338  10.056   1.022
 9498SOL    HW230328   2.333   9.931   1.108
 9499SOL     OW30329  11.402   5.638  11.537
 9499SOL    HW130330  11.479   5.683  11.503
 9499SOL    HW230331  11.399   5.555  11.490
 9500SOL     OW30332   8.616   5.588   8.471
 9500SOL    HW130333   8.582   5.535   8.543
 9500SOL    HW230334   8.582   5.676   8.488
 9501SOL     OW30335   3.444   4.282   9.554
 9501SOL    HW130336   3.357   4.277   9.514
 9501SOL    HW230337   3.504   4.281   9.479
 9502SOL     OW30338  12.620   4.667  13.164
 9502SOL    HW130339  12.647   4.578  13.187
 9502SOL    HW230340  12.620   4.668  13.068
 9503SOL     OW30341   9.779   6.497  10.292
 9503SOL    HW130342   9.871   6.520  10.283
 9503SOL    HW230343   9.760   6.508  10.386
 9504SOL     OW30344   3.930   8.155  10.297
 9504SOL    HW130345   3.933   8.218  10.225
 9504SOL    HW230346   4.016   8.160  10.338
 9505SOL     OW30347   6.760   2.188   1.236
 9505SOL    HW130348   6.701   2.226   1.172
 9505SOL    HW230349   6.723   2.103   1.256
 9506SOL     OW30350   5.923   0.061   0.278
 9506SOL    HW130351   5.835   0.094   0.295
 9506SOL    HW230352   5.931  14.862   0.332
 9507SOL     OW30353   4.170   9.189  10.406
 9507SOL    HW130354   4.096   9.199  10.346
 9507SOL    HW230355   4.149   9.247  10.479
 9508SOL     OW30356   6.629   8.860  12.239
 9508SOL    HW130357   6.671   8.905  12.313
 9508SOL    HW230358   6.537   8.858  12.262
 9509SOL     OW30359  14.151   2.733   3.722
 9509SOL    HW130360  14.078   2.674   3.742
 9509SOL    HW230361  14.120   2.819   3.751
 9510SOL     OW30362  10.538  13.267   9.744
 9510SOL    HW130363  10.598  13.309   9.806
 9510SOL    HW230364  10.454  13.309   9.760
 9511SOL     OW30365   1.507   8.944   9.850
 9511SOL    HW130366   1.490   9.034   9.821
 9511SOL    HW230367   1.559   8.954   9.930
 9512SOL     OW30368  13.197  12.180   8.722
 9512SOL    HW130369  13.275  12.129   8.698
 9512SOL    HW230370  13.153  12.125   8.787
 9513SOL     OW30371   8.476  11.435   5.624
 9513SOL    HW130372   8.538  11.492   5.578
 9513SOL    HW230373   8.437  11.491   5.691
 9514SOL     OW30374   4.031   4.636   2.464
 9514SOL    HW130375   4.064   4.558   2.419
 9514SOL    HW230376   3.938   4.619   2.477
 9515SOL     OW30377   3.250   8.751  10.451
 9515SOL    HW130378   3.321   8.696  10.485
 9515SOL    HW230379   3.172   8.720  10.497
 9516SOL     OW30380  11.437  14.725   5.834
 9516SOL    HW130381  11.435  14.634   5.866
 9516SOL    HW230382  11.459  14.777   5.912
 9517SOL     OW30383   2.541   6.250  11.571
 9517SOL    HW130384   2.571   6.246  11.480
 9517SOL    HW230385   2.499   6.336  11.578
 9518SOL     OW30386   7.943   8.340  13.770
 9518SOL    HW130387   7.981   8.427  13.778
 9518SOL    HW230388   7.860   8.345  13.816
 9519SOL     OW30389  14.658   5.271  13.681
 9519SOL    HW130390  14.632   5.332  13.612
 9519SOL    HW230391  14.579   5.257  13.732
 9520SOL     OW30392  14.487  10.334   4.713
 9520SOL    HW130393  14.433  10.295   4.782
 9520SOL    HW230394  14.429  10.396   4.668
 9521SOL     OW30395   0.930   8.198   9.257
 9521SOL    HW130396   0.947   8.111   9.292
 9521SOL    HW230397   0.864   8.234   9.316
 9522SOL     OW30398  13.196   9.401   8.744
 9522SOL    HW130399  13.162   9.468   8.685
 9522SOL    HW230400  13.125   9.384   8.805
 9523SOL     OW30401   0.546  10.283   3.715
 9523SOL    HW130402   0.553  10.224   3.790
 9523SOL    HW230403   0.607  10.248   3.650
 9524SOL     OW30404   2.504   8.983   3.832
 9524SOL    HW130405   2.437   9.038   3.791
 9524SOL    HW230406   2.576   9.043   3.851
 9525SOL     OW30407   0.856   2.645  13.157
 9525SOL    HW130408   0.811   2.618  13.237
 9525SOL    HW230409   0.855   2.741  13.161
 9526SOL     OW30410  13.234   5.621  13.327
 9526SOL    HW130411  13.212   5.670  13.247
 9526SOL    HW230412  13.157   5.631  13.383
 9527SOL     OW30413   5.375  12.527   1.848
 9527SOL    HW130414   5.459  12.567   1.826
 9527SOL    HW230415   5.322  12.600   1.879
 9528SOL     OW30416   4.845   1.053   1.590
 9528SOL    HW130417   4.831   1.104   1.670
 9528SOL    HW230418   4.787   0.977   1.599
 9529SOL     OW30419  13.616   2.596   1.813
 9529SOL    HW130420  13.522   2.608   1.822
 9529SOL    HW230421  13.638   2.527   1.876
 9530SOL     OW30422   5.685   2.684  13.416
 9530SOL    HW130423   5.736   2.672  13.335
 9530SOL    HW230424   5.752   2.689  13.485
 9531SOL     OW30425   1.530  13.135  14.514
 9531SOL    HW130426   1.527  13.073  14.441
 9531SOL    HW230427   1.570  13.214  14.477
 9532SOL     OW30428   9.780  10.443   7.273
 9532SOL    HW130429   9.860  10.400   7.305
 9532SOL    HW230430   9.791  10.447   7.178
 9533SOL     OW30431   9.594   0.145  10.181
 9533SOL    HW130432   9.650   0.165  10.106
 9533SOL    HW230433   9.568   0.054  10.169
 9534SOL     OW30434  14.411   3.678   5.421
 9534SOL    HW130435  14.407   3.666   5.516
 9534SOL    HW230436  14.436   3.769   5.410
 9535SOL     OW30437   4.267   4.648   2.862
 9535SOL    HW130438   4.254   4.633   2.768
 9535SOL    HW230439   4.207   4.587   2.905
 9536SOL     OW30440   9.124   8.003   2.894
 9536SOL    HW130441   9.102   8.006   2.987
 9536SOL    HW230442   9.052   8.049   2.851
 9537SOL     OW30443   3.090   7.706   9.026
 9537SOL    HW130444   3.014   7.743   9.071
 9537SOL    HW230445   3.115   7.773   8.962
 9538SOL     OW30446   8.464  12.568   2.394
 9538SOL    HW130447   8.508  12.617   2.464
 9538SOL    HW230448   8.442  12.633   2.328
 9539SOL     OW30449   7.847  14.759  11.657
 9539SOL    HW130450   7.807  14.713  11.583
 9539SOL    HW230451   7.824  14.705  11.733
 9540SOL     OW30452  13.501   0.518   3.414
 9540SOL    HW130453  13.585   0.474   3.409
 9540SOL    HW230454  13.482   0.543   3.323
 9541SOL     OW30455  13.707   9.839  14.719
 9541SOL    HW130456  13.743   9.786  14.790
 9541SOL    HW230457  13.748   9.924  14.729
 9542SOL     OW30458   0.569   8.041  12.256
 9542SOL    HW130459   0.593   7.950  12.243
 9542SOL    HW230460   0.474   8.042  12.252
 9543SOL     OW30461   5.068  13.333   2.983
 9543SOL    HW130462   5.053  13.242   2.959
 9543SOL    HW230463   4.990  13.380   2.951
 9544SOL     OW30464  11.068   3.166   3.473
 9544SOL    HW130465  10.999   3.166   3.540
 9544SOL    HW230466  11.023   3.139   3.393
 9545SOL     OW30467   4.305  13.905  12.549
 9545SOL    HW130468   4.215  13.937  12.558
 9545SOL    HW230469   4.322  13.858  12.631
 9546SOL     OW30470   3.647   4.850  10.075
 9546SOL    HW130471   3.626   4.759  10.055
 9546SOL    HW230472   3.701   4.879  10.001
 9547SOL     OW30473   0.164   9.794   5.439
 9547SOL    HW130474   0.092   9.831   5.387
 9547SOL    HW230475   0.168   9.702   5.413
 9548SOL     OW30476  10.162   3.612   9.248
 9548SOL    HW130477  10.161   3.606   9.153
 9548SOL    HW230478  10.190   3.701   9.267
 9549SOL     OW30479  14.119   1.717   8.148
 9549SOL    HW130480  14.136   1.692   8.239
 9549SOL    HW230481  14.082   1.805   8.154
 9550SOL     OW30482   3.726  11.277   3.313
 9550SOL    HW130483   3.692  11.188   3.304
 9550SOL    HW230484   3.792  11.270   3.382
 9551SOL     OW30485   5.154  12.585  12.573
 9551SOL    HW130486   5.165  12.678  12.590
 9551SOL    HW230487   5.209  12.567  12.497
 9552SOL     OW30488   2.012   1.734   0.835
 9552SOL    HW130489   1.979   1.758   0.921
 9552SOL    HW230490   1.946   1.768   0.774
 9553SOL     OW30491  14.749   8.595   7.408
 9553SOL    HW130492  14.780   8.532   7.344
 9553SOL    HW230493  14.692   8.545   7.467
 9554SOL     OW30494  11.199  10.299   9.354
 9554SOL    HW130495  11.290  10.320   9.379
 9554SOL    HW230496  11.146  10.333   9.426
 9555SOL     OW30497  12.661   8.216   2.150
 9555SOL    HW130498  12.674   8.123   2.128
 9555SOL    HW230499  12.744   8.242   2.191
 9556SOL     OW30500   5.862   8.321   7.316
 9556SOL    HW130501   5.916   8.397   7.294
 9556SOL    HW230502   5.921   8.264   7.365
 9557SOL     OW30503   6.348  14.775  12.584
 9557SOL    HW130504   6.342  14.738  12.496
 9557SOL    HW230505   6.440  14.763  12.608
 9558SOL     OW30506   2.676   4.781   9.702
 9558SOL    HW130507   2.681   4.773   9.606
 9558SOL    HW230508   2.586   4.756   9.723
 9559SOL     OW30509   7.671   6.414   6.302
 9559SOL    HW130510   7.748   6.457   6.266
 9559SOL    HW230511   7.666   6.446   6.393
 9560SOL     OW30512  10.697   9.536  13.399
 9560SOL    HW130513  10.623   9.530  13.339
 9560SOL    HW230514  10.770   9.495  13.351
 9561SOL     OW30515   8.348  11.726  10.209
 9561SOL    HW130516   8.387  11.641  10.230
 9561SOL    HW230517   8.254  11.712  10.217
 9562SOL     OW30518   7.816   0.655  10.153
 9562SOL    HW130519   7.725   0.683  10.161
 9562SOL    HW230520   7.811   0.560  10.143
 9563SOL     OW30521  13.500   2.798   1.586
 9563SOL    HW130522  13.498   2.721   1.643
 9563SOL    HW230523  13.564   2.776   1.519
 9564SOL     OW30524  14.649  12.754   7.846
 9564SOL    HW130525  14.581  12.811   7.810
 9564SOL    HW230526  14.688  12.711   7.770
 9565SOL     OW30527   1.117   4.829   5.346
 9565SOL    HW130528   1.117   4.736   5.369
 9565SOL    HW230529   1.035   4.863   5.384
 9566SOL     OW30530  10.683  14.678   0.453
 9566SOL    HW130531  10.647  14.765   0.435
 9566SOL    HW230532  10.653  14.624   0.380
 9567SOL     OW30533   7.869   0.549   3.817
 9567SOL    HW130534   7.818   0.541   3.736
 9567SOL    HW230535   7.913   0.633   3.810
 9568SOL     OW30536   1.063   7.909   4.041
 9568SOL    HW130537   1.077   7.836   4.101
 9568SOL    HW230538   0.975   7.895   4.005
 9569SOL     OW30539   5.699  10.598   8.027
 9569SOL    HW130540   5.730  10.508   8.036
 9569SOL    HW230541   5.722  10.639   8.111
 9570SOL     OW30542   1.436  10.541   4.205
 9570SOL    HW130543   1.433  10.473   4.137
 9570SOL    HW230544   1.344  10.567   4.216
 9571SOL     OW30545   1.110   1.415   3.663
 9571SOL    HW130546   1.072   1.351   3.723
 9571SOL    HW230547   1.202   1.420   3.689
 9572SOL     OW30548   1.781   1.160   0.263
 9572SOL    HW130549   1.737   1.121   0.339
 9572SOL    HW230550   1.793   1.252   0.287
 9573SOL     OW30551  10.049   8.834   8.589
 9573SOL    HW130552  10.008   8.917   8.565
 9573SOL    HW230553   9.980   8.768   8.577
 9574SOL     OW30554   9.895   8.089   5.656
 9574SOL    HW130555   9.807   8.083   5.619
 9574SOL    HW230556   9.950   8.115   5.582
 9575SOL     OW30557   0.619   7.482   1.444
 9575SOL    HW130558   0.551   7.439   1.495
 9575SOL    HW230559   0.673   7.410   1.410
 9576SOL     OW30560  13.611  10.669   3.392
 9576SOL    HW130561  13.552  10.598   3.417
 9576SOL    HW230562  13.632  10.713   3.475
 9577SOL     OW30563   0.677  14.252   9.765
 9577SOL    HW130564   0.771  14.264   9.778
 9577SOL    HW230565   0.655  14.314   9.696
 9578SOL     OW30566   8.329   0.288   2.059
 9578SOL    HW130567   8.319   0.305   2.152
 9578SOL    HW230568   8.248   0.244   2.033
 9579SOL     OW30569   6.569   9.667  12.650
 9579SOL    HW130570   6.480   9.653  12.683
 9579SOL    HW230571   6.572   9.760  12.628
 9580SOL     OW30572   7.047   8.991   1.611
 9580SOL    HW130573   7.027   9.064   1.670
 9580SOL    HW230574   6.975   8.929   1.625
 9581SOL     OW30575  13.066   3.320   1.079
 9581SOL    HW130576  12.976   3.345   1.061
 9581SOL    HW230577  13.094   3.381   1.148
 9582SOL     OW30578  10.693  10.311   7.331
 9582SOL    HW130579  10.666  10.267   7.412
 9582SOL    HW230580  10.785  10.285   7.319
 9583SOL     OW30581   0.573   6.262  10.380
 9583SOL    HW130582   0.479   6.279  10.380
 9583SOL    HW230583   0.608   6.318  10.449
 9584SOL     OW30584   3.400   8.430  13.771
 9584SOL    HW130585   3.467   8.370  13.802
 9584SOL    HW230586   3.438   8.517  13.783
 9585SOL     OW30587   9.342   2.912  11.238
 9585SOL    HW130588   9.306   2.876  11.319
 9585SOL    HW230589   9.273   2.896  11.173
 9586SOL     OW30590   6.641  11.516   4.682
 9586SOL    HW130591   6.719  11.559   4.645
 9586SOL    HW230592   6.582  11.506   4.607
 9587SOL     OW30593   4.650  11.374  12.451
 9587SOL    HW130594   4.672  11.460  12.487
 9587SOL    HW230595   4.728  11.349  12.401
 9588SOL     OW30596   8.621  14.293   3.577
 9588SOL    HW130597   8.545  14.236   3.566
 9588SOL    HW230598   8.678  14.272   3.504
 9589SOL     OW30599  11.393   1.729   0.600
 9589SOL    HW130600  11.447   1.733   0.679
 9589SOL    HW230601  11.320   1.788   0.619
 9590SOL     OW30602   9.502   2.237   0.688
 9590SOL    HW130603   9.450   2.224   0.608
 9590SOL    HW230604   9.472   2.321   0.722
 9591SOL     OW30605   5.080  13.661   7.328
 9591SOL    HW130606   5.173  13.642   7.340
 9591SOL    HW230607   5.047  13.678   7.417
 9592SOL     OW30608   4.616  14.773   8.464
 9592SOL    HW130609   4.625  14.859   8.424
 9592SOL    HW230610   4.531  14.776   8.509
 9593SOL     OW30611   4.030  14.370   5.472
 9593SOL    HW130612   3.986  14.300   5.520
 9593SOL    HW230613   4.123  14.358   5.492
 9594SOL     OW30614   1.048  12.363  11.991
 9594SOL    HW130615   1.077  12.353  12.082
 9594SOL    HW230616   1.120  12.410  11.949
 9595SOL     OW30617   2.238   5.887   1.528
 9595SOL    HW130618   2.309   5.855   1.584
 9595SOL    HW230619   2.193   5.808   1.497
 9596SOL     OW30620   3.537   1.977  10.173
 9596SOL    HW130621   3.599   2.032  10.125
 9596SOL    HW230622   3.582   1.956  10.255
 9597SOL     OW30623   0.335   2.383  10.363
 9597SOL    HW130624   0.273   2.361  10.433
 9597SOL    HW230625   0.388   2.304  10.352
 9598SOL     OW30626   6.271   8.923   6.947
 9598SOL    HW130627   6.231   8.979   6.879
 9598SOL    HW230628   6.199   8.866   6.975
 9599SOL     OW30629   1.244   6.779   2.853
 9599SOL    HW130630   1.240   6.820   2.767
 9599SOL    HW230631   1.214   6.689   2.839
 9600SOL     OW30632   9.532  11.965  10.761
 9600SOL    HW130633   9.436  11.961  10.769
 9600SOL    HW230634   9.548  12.036  10.700
 9601SOL     OW30635  12.392   8.167  14.204
 9601SOL    HW130636  12.341   8.224  14.261
 9601SOL    HW230637  12.482   8.194  14.217
 9602SOL     OW30638   2.741   6.213   3.024
 9602SOL    HW130639   2.720   6.263   2.945
 9602SOL    HW230640   2.656   6.195   3.064
 9603SOL     OW30641   4.826   4.584   9.379
 9603SOL    HW130642   4.849   4.674   9.353
 9603SOL    HW230643   4.909   4.537   9.376
 9604SOL     OW30644   3.055   7.936  14.273
 9604SOL    HW130645   3.102   8.003  14.323
 9604SOL    HW230646   2.993   7.898  14.335
 9605SOL     OW30647   6.665  10.741  13.873
 9605SOL    HW130648   6.606  10.755  13.947
 9605SOL    HW230649   6.655  10.821  13.820
 9606SOL     OW30650   7.314   7.947  12.973
 9606SOL    HW130651   7.266   7.885  12.919
 9606SOL    HW230652   7.333   8.020  12.915
 9607SOL     OW30653   2.554   9.795   9.949
 9607SOL    HW130654   2.573   9.868   9.891
 9607SOL    HW230655   2.472   9.758   9.916
 9608SOL     OW30656  13.535  11.237  12.070
 9608SOL    HW130657  13.539  11.159  12.125
 9608SOL    HW230658  13.442  11.258  12.066
 9609SOL     OW30659   4.745   9.976   3.915
 9609SOL    HW130660   4.663   9.935   3.942
 9609SOL    HW230661   4.719  10.061   3.880
 9610SOL     OW30662   5.467  11.759  12.452
 9610SOL    HW130663   5.382  11.779  12.491
 9610SOL    HW230664   5.449  11.741  12.360
 9611SOL     OW30665   7.715  10.366   9.110
 9611SOL    HW130666   7.727  10.461   9.104
 9611SOL    HW230667   7.742  10.333   9.024
 9612SOL     OW30668  11.341   3.742   7.288
 9612SOL    HW130669  11.258   3.782   7.315
 9612SOL    HW230670  11.363   3.784   7.206
 9613SOL     OW30671   1.856   2.060   3.433
 9613SOL    HW130672   1.848   1.997   3.505
 9613SOL    HW230673   1.818   2.141   3.467
 9614SOL     OW30674   0.413  11.617  13.743
 9614SOL    HW130675   0.351  11.563  13.693
 9614SOL    HW230676   0.374  11.704  13.742
 9615SOL     OW30677  11.769   5.061   6.575
 9615SOL    HW130678  11.863   5.080   6.585
 9615SOL    HW230679  11.727   5.146   6.567
 9616SOL     OW30680   8.515  14.717  14.314
 9616SOL    HW130681   8.539  14.790  14.372
 9616SOL    HW230682   8.594  14.663  14.310
 9617SOL     OW30683   0.592   9.351   6.191
 9617SOL    HW130684   0.522   9.345   6.126
 9617SOL    HW230685   0.562   9.418   6.253
 9618SOL     OW30686   9.961  10.402   6.864
 9618SOL    HW130687  10.056  10.412   6.855
 9618SOL    HW230688   9.936  10.471   6.925
 9619SOL     OW30689  11.004  11.185   4.553
 9619SOL    HW130690  11.011  11.146   4.466
 9619SOL    HW230691  10.911  11.185   4.573
 9620SOL     OW30692   7.870   2.587   4.055
 9620SOL    HW130693   7.786   2.582   4.101
 9620SOL    HW230694   7.912   2.665   4.090
 9621SOL     OW30695  12.358   1.242   2.233
 9621SOL    HW130696  12.330   1.291   2.156
 9621SOL    HW230697  12.381   1.155   2.200
 9622SOL     OW30698  12.493  10.761  14.659
 9622SOL    HW130699  12.541  10.694  14.609
 9622SOL    HW230700  12.416  10.715  14.693
 9623SOL     OW30701   0.047   7.577   1.026
 9623SOL    HW130702   0.121   7.535   1.070
 9623SOL    HW230703  14.857   7.579   1.092
 9624SOL     OW30704   4.444   2.086   7.331
 9624SOL    HW130705   4.369   2.026   7.326
 9624SOL    HW230706   4.491   2.072   7.249
 9625SOL     OW30707   8.172  13.632   8.315
 9625SOL    HW130708   8.186  13.600   8.226
 9625SOL    HW230709   8.163  13.552   8.368
 9626SOL     OW30710  14.543   7.177   8.812
 9626SOL    HW130711  14.485   7.117   8.859
 9626SOL    HW230712  14.619   7.124   8.788
 9627SOL     OW30713   8.967   1.797   4.382
 9627SOL    HW130714   8.903   1.799   4.311
 9627SOL    HW230715   9.038   1.744   4.349
 9628SOL     OW30716  13.244   6.526   2.227
 9628SOL    HW130717  13.317   6.508   2.287
 9628SOL    HW230718  13.184   6.579   2.279
 9629SOL     OW30719   8.553   2.004   9.099
 9629SOL    HW130720   8.612   2.049   9.040
 9629SOL    HW230721   8.466   2.035   9.074
 9630SOL     OW30722   2.636   8.807   3.269
 9630SOL    HW130723   2.582   8.728   3.266
 9630SOL    HW230724   2.628   8.838   3.359
 9631SOL     OW30725   5.794   5.443  14.437
 9631SOL    HW130726   5.784   5.379  14.366
 9631SOL    HW230727   5.825   5.392  14.512
 9632SOL     OW30728   2.272  13.958   7.119
 9632SOL    HW130729   2.326  14.008   7.057
 9632SOL    HW230730   2.296  13.867   7.103
 9633SOL     OW30731   7.939  12.627   8.818
 9633SOL    HW130732   7.851  12.654   8.791
 9633SOL    HW230733   7.924  12.559   8.884
 9634SOL     OW30734   8.624   6.626  11.173
 9634SOL    HW130735   8.703   6.612  11.120
 9634SOL    HW230736   8.554   6.585  11.123
 9635SOL     OW30737   3.106  10.576   4.707
 9635SOL    HW130738   3.186  10.528   4.729
 9635SOL    HW230739   3.064  10.592   4.791
 9636SOL     OW30740  11.287   2.041   1.571
 9636SOL    HW130741  11.211   2.030   1.514
 9636SOL    HW230742  11.318   2.129   1.553
 9637SOL     OW30743   7.795  13.912   7.162
 9637SOL    HW130744   7.854  13.863   7.105
 9637SOL    HW230745   7.794  13.863   7.244
 9638SOL     OW30746   9.223  12.866   4.574
 9638SOL    HW130747   9.278  12.936   4.539
 9638SOL    HW230748   9.221  12.883   4.669
 9639SOL     OW30749   0.346   3.368   7.291
 9639SOL    HW130750   0.328   3.396   7.201
 9639SOL    HW230751   0.307   3.280   7.296
 9640SOL     OW30752   8.689   4.765   6.123
 9640SOL    HW130753   8.629   4.776   6.196
 9640SOL    HW230754   8.643   4.802   6.048
 9641SOL     OW30755   4.845   1.009   0.988
 9641SOL    HW130756   4.926   1.001   1.038
 9641SOL    HW230757   4.844   0.932   0.932
 9642SOL     OW30758   8.555   3.315  12.294
 9642SOL    HW130759   8.515   3.229  12.281
 9642SOL    HW230760   8.506   3.353  12.368
 9643SOL     OW30761  13.178  14.430  11.091
 9643SOL    HW130762  13.228  14.485  11.152
 9643SOL    HW230763  13.086  14.447  11.113
 9644SOL     OW30764   9.848   0.463  10.559
 9644SOL    HW130765   9.856   0.468  10.463
 9644SOL    HW230766   9.753   0.462  10.575
 9645SOL     OW30767   3.619   8.284  13.120
 9645SOL    HW130768   3.533   8.326  13.120
 9645SOL    HW230769   3.617   8.224  13.194
 9646SOL     OW30770   7.524  13.846   5.414
 9646SOL    HW130771   7.500  13.939   5.415
 9646SOL    HW230772   7.528  13.821   5.506
 9647SOL     OW30773  10.819  11.423   9.533
 9647SOL    HW130774  10.829  11.329   9.519
 9647SOL    HW230775  10.890  11.462   9.481
 9648SOL     OW30776   4.110   0.965   4.010
 9648SOL    HW130777   4.139   0.919   3.931
 9648SOL    HW230778   4.106   0.897   4.077
 9649SOL     OW30779   9.831  14.334   2.051
 9649SOL    HW130780   9.748  14.287   2.050
 9649SOL    HW230781   9.820  14.404   1.986
 9650SOL     OW30782   4.174   3.743  11.054
 9650SOL    HW130783   4.231   3.693  10.996
 9650SOL    HW230784   4.174   3.694  11.136
 9651SOL     OW30785  14.443   4.180   0.778
 9651SOL    HW130786  14.410   4.116   0.841
 9651SOL    HW230787  14.464   4.257   0.831
 9652SOL     OW30788  10.759  14.006  11.285
 9652SOL    HW130789  10.789  13.917  11.264
 9652SOL    HW230790  10.775  14.055  11.204
 9653SOL     OW30791  10.472   1.307  14.486
 9653SOL    HW130792  10.411   1.328  14.416
 9653SOL    HW230793  10.524   1.387  14.498
 9654SOL     OW30794   5.245   4.940  10.504
 9654SOL    HW130795   5.331   4.902  10.486
 9654SOL    HW230796   5.246   5.025  10.460
 9655SOL     OW30797   0.861   1.634   7.106
 9655SOL    HW130798   0.796   1.699   7.078
 9655SOL    HW230799   0.842   1.620   7.198
 9656SOL     OW30800   2.698  13.020   2.638
 9656SOL    HW130801   2.653  13.038   2.555
 9656SOL    HW230802   2.628  13.020   2.704
 9657SOL     OW30803  12.579  11.325  12.561
 9657SOL    HW130804  12.625  11.265  12.620
 9657SOL    HW230805  12.513  11.367  12.616
 9658SOL     OW30806  10.416  13.443  13.550
 9658SOL    HW130807  10.320  13.441  13.540
 9658SOL    HW230808  10.437  13.536  13.552
 9659SOL     OW30809   5.679   9.311  12.006
 9659SOL    HW130810   5.763   9.289  11.965
 9659SOL    HW230811   5.615   9.257  11.960
 9660SOL     OW30812   7.188   7.802   9.598
 9660SOL    HW130813   7.135   7.827   9.674
 9660SOL    HW230814   7.264   7.860   9.601
 9661SOL     OW30815   7.126   7.087   1.396
 9661SOL    HW130816   7.121   7.033   1.317
 9661SOL    HW230817   7.040   7.080   1.437
 9662SOL     OW30818   2.026   3.234   7.837
 9662SOL    HW130819   1.956   3.258   7.777
 9662SOL    HW230820   2.023   3.138   7.840
 9663SOL     OW30821   4.619   0.182   9.028
 9663SOL    HW130822   4.568   0.101   9.027
 9663SOL    HW230823   4.661   0.185   8.942
 9664SOL     OW30824   5.415   4.641   8.281
 9664SOL    HW130825   5.340   4.582   8.289
 9664SOL    HW230826   5.437   4.664   8.371
 9665SOL     OW30827   3.616  12.738   1.861
 9665SOL    HW130828   3.574  12.706   1.941
 9665SOL    HW230829   3.660  12.819   1.888
 9666SOL     OW30830   5.396   4.651  14.112
 9666SOL    HW130831   5.349   4.680  14.034
 9666SOL    HW230832   5.326   4.632  14.176
 9667SOL     OW30833  12.253   5.890   0.799
 9667SOL    HW130834  12.270   5.961   0.862
 9667SOL    HW230835  12.202   5.826   0.848
 9668SOL     OW30836   5.926   9.358  11.051
 9668SOL    HW130837   5.863   9.427  11.075
 9668SOL    HW230838   5.878   9.303  10.989
 9669SOL     OW30839  10.013  12.370   9.903
 9669SOL    HW130840  10.026  12.360   9.997
 9669SOL    HW230841   9.920  12.388   9.893
 9670SOL     OW30842  12.382   4.525   4.202
 9670SOL    HW130843  12.334   4.598   4.242
 9670SOL    HW230844  12.377   4.455   4.267
 9671SOL     OW30845  13.623   0.507  10.883
 9671SOL    HW130846  13.615   0.449  10.807
 9671SOL    HW230847  13.534   0.511  10.918
 9672SOL     OW30848  10.225   5.641  14.804
 9672SOL    HW130849  10.247   5.688  14.724
 9672SOL    HW230850  10.270   5.556  14.795
 9673SOL     OW30851   9.230   9.984  12.044
 9673SOL    HW130852   9.270  10.017  11.964
 9673SOL    HW230853   9.284  10.021  12.114
 9674SOL     OW30854   3.491   8.942   0.461
 9674SOL    HW130855   3.547   9.007   0.417
 9674SOL    HW230856   3.535   8.858   0.445
 9675SOL     OW30857  11.821   0.945   3.954
 9675SOL    HW130858  11.904   0.900   3.935
 9675SOL    HW230859  11.819   1.019   3.893
 9676SOL     OW30860   2.903  14.519  14.166
 9676SOL    HW130861   2.844  14.552  14.098
 9676SOL    HW230862   2.980  14.488  14.118
 9677SOL     OW30863   7.532  10.033   2.907
 9677SOL    HW130864   7.611  10.076   2.939
 9677SOL    HW230865   7.474  10.029   2.984
 9678SOL     OW30866   7.925  13.714  10.065
 9678SOL    HW130867   8.019  13.716  10.046
 9678SOL    HW230868   7.886  13.678   9.985
 9679SOL     OW30869   0.404  13.894   3.208
 9679SOL    HW130870   0.363  13.858   3.287
 9679SOL    HW230871   0.464  13.825   3.179
 9680SOL     OW30872   9.428  11.137  12.769
 9680SOL    HW130873   9.377  11.057  12.782
 9680SOL    HW230874   9.379  11.204  12.817
 9681SOL     OW30875   9.759  12.490   7.351
 9681SOL    HW130876   9.849  12.493   7.386
 9681SOL    HW230877   9.718  12.418   7.399
 9682SOL     OW30878   8.073   1.511   7.140
 9682SOL    HW130879   8.052   1.444   7.206
 9682SOL    HW230880   8.051   1.469   7.057
 9683SOL     OW30881  10.026   5.728   0.701
 9683SOL    HW130882  10.049   5.732   0.608
 9683SOL    HW230883  10.109   5.740   0.747
 9684SOL     OW30884   8.000   5.781   0.640
 9684SOL    HW130885   7.998   5.866   0.595
 9684SOL    HW230886   8.090   5.772   0.671
 9685SOL     OW30887  10.590   0.399   2.758
 9685SOL    HW130888  10.655   0.424   2.693
 9685SOL    HW230889  10.507   0.432   2.724
 9686SOL     OW30890   4.996   7.943   0.197
 9686SOL    HW130891   5.050   8.017   0.169
 9686SOL    HW230892   5.060   7.879   0.229
 9687SOL     OW30893   0.891   3.564   6.913
 9687SOL    HW130894   0.838   3.625   6.965
 9687SOL    HW230895   0.891   3.602   6.825
 9688SOL     OW30896   6.232   7.783   9.644
 9688SOL    HW130897   6.293   7.841   9.689
 9688SOL    HW230898   6.277   7.699   9.640
 9689SOL     OW30899   5.892   4.012   1.926
 9689SOL    HW130900   5.820   4.069   1.897
 9689SOL    HW230901   5.870   3.926   1.891
 9690SOL     OW30902   3.347  12.689  12.795
 9690SOL    HW130903   3.301  12.738  12.728
 9690SOL    HW230904   3.344  12.746  12.873
 9691SOL     OW30905   2.191   7.589  13.780
 9691SOL    HW130906   2.101   7.593  13.814
 9691SOL    HW230907   2.179   7.575  13.685
 9692SOL     OW30908   3.554   4.536   0.764
 9692SOL    HW130909   3.620   4.568   0.825
 9692SOL    HW230910   3.602   4.525   0.682
 9693SOL     OW30911   9.493   4.945   0.478
 9693SOL    HW130912   9.530   4.857   0.484
 9693SOL    HW230913   9.398   4.930   0.479
 9694SOL     OW30914  11.536   5.790   4.632
 9694SOL    HW130915  11.466   5.837   4.586
 9694SOL    HW230916  11.569   5.852   4.697
 9695SOL     OW30917  14.509   3.936  11.130
 9695SOL    HW130918  14.418   3.938  11.101
 9695SOL    HW230919  14.519   3.849  11.168
 9696SOL     OW30920  14.826   8.546   5.656
 9696SOL    HW130921  14.823   8.520   5.749
 9696SOL    HW230922  14.866   8.633   5.657
 9697SOL     OW30923  13.853   0.716   9.302
 9697SOL    HW130924  13.929   0.667   9.271
 9697SOL    HW230925  13.885   0.762   9.380
 9698SOL     OW30926  14.391  11.338  10.509
 9698SOL    HW130927  14.309  11.336  10.460
 9698SOL    HW230928  14.415  11.247  10.520
 9699SOL     OW30929  14.481   5.405   6.034
 9699SOL    HW130930  14.388   5.400   6.012
 9699SOL    HW230931  14.524   5.346   5.971
 9700SOL     OW30932  10.542  13.663   4.571
 9700SOL    HW130933  10.486  13.730   4.611
 9700SOL    HW230934  10.546  13.689   4.478
 9701SOL     OW30935   4.926  13.368  14.840
 9701SOL    HW130936   4.935  13.431  14.769
 9701SOL    HW230937   5.002  13.383   0.016
 9702SOL     OW30938   1.061  11.042   3.172
 9702SOL    HW130939   1.099  11.075   3.090
 9702SOL    HW230940   0.977  11.005   3.147
 9703SOL     OW30941   6.395  13.960   7.164
 9703SOL    HW130942   6.391  13.880   7.111
 9703SOL    HW230943   6.317  13.957   7.219
 9704SOL     OW30944   8.787   3.377   3.641
 9704SOL    HW130945   8.824   3.291   3.623
 9704SOL    HW230946   8.703   3.378   3.594
 9705SOL     OW30947   9.173   1.109   0.338
 9705SOL    HW130948   9.128   1.056   0.272
 9705SOL    HW230949   9.185   1.194   0.297
 9706SOL     OW30950   1.250  11.300  13.200
 9706SOL    HW130951   1.307  11.375  13.182
 9706SOL    HW230952   1.223  11.311  13.291
 9707SOL     OW30953   6.149  12.137   5.860
 9707SOL    HW130954   6.212  12.087   5.810
 9707SOL    HW230955   6.066  12.092   5.846
 9708SOL     OW30956   5.120   3.133  11.380
 9708SOL    HW130957   5.183   3.065  11.357
 9708SOL    HW230958   5.173   3.204  11.415
 9709SOL     OW30959   9.755  13.437  11.074
 9709SOL    HW130960   9.683  13.374  11.063
 9709SOL    HW230961   9.764  13.478  10.988
 9710SOL     OW30962   4.081   5.710  11.902
 9710SOL    HW130963   3.987   5.697  11.893
 9710SOL    HW230964   4.090   5.791  11.952
 9711SOL     OW30965   7.960   4.282  11.941
 9711SOL    HW130966   7.938   4.254  11.852
 9711SOL    HW230967   8.034   4.342  11.930
 9712SOL     OW30968  14.377   7.856  11.319
 9712SOL    HW130969  14.398   7.902  11.238
 9712SOL    HW230970  14.460   7.850  11.366
 9713SOL     OW30971  13.372   3.842  11.873
 9713SOL    HW130972  13.410   3.872  11.790
 9713SOL    HW230973  13.289   3.889  11.879
 9714SOL     OW30974  13.107   0.315  13.121
 9714SOL    HW130975  13.019   0.295  13.090
 9714SOL    HW230976  13.116   0.410  13.107
 9715SOL     OW30977   6.741  12.969   6.793
 9715SOL    HW130978   6.665  12.911   6.794
 9715SOL    HW230979   6.777  12.965   6.881
 9716SOL     OW30980   8.830   2.347   4.978
 9716SOL    HW130981   8.797   2.284   4.913
 9716SOL    HW230982   8.924   2.331   4.980
 9717SOL     OW30983   5.685  12.764   2.318
 9717SOL    HW130984   5.762  12.755   2.262
 9717SOL    HW230985   5.627  12.693   2.290
 9718SOL     OW30986  10.954   4.766  14.112
 9718SOL    HW130987  11.040   4.726  14.097
 9718SOL    HW230988  10.969   4.860  14.097
 9719SOL     OW30989   3.032  11.022   5.571
 9719SOL    HW130990   3.043  11.117   5.562
 9719SOL    HW230991   3.121  10.988   5.568
 9720SOL     OW30992   9.919   2.032   2.739
 9720SOL    HW130993  10.000   2.019   2.788
 9720SOL    HW230994   9.858   1.969   2.778
 9721SOL     OW30995   6.503  12.065   8.809
 9721SOL    HW130996   6.430  12.098   8.757
 9721SOL    HW230997   6.475  11.978   8.838
 9722SOL     OW30998   7.435  12.899   2.764
 9722SOL    HW130999   7.362  12.857   2.718
 9722SOL    HW231000   7.513  12.870   2.716
 9723SOL     OW31001  11.450  12.651   8.717
 9723SOL    HW131002  11.492  12.692   8.792
 9723SOL    HW231003  11.514  12.588   8.685
 9724SOL     OW31004   1.896   7.277   5.581
 9724SOL    HW131005   1.911   7.298   5.489
 9724SOL    HW231006   1.966   7.323   5.628
 9725SOL     OW31007   5.993   7.773   2.888
 9725SOL    HW131008   5.996   7.792   2.794
 9725SOL    HW231009   6.084   7.757   2.912
 9726SOL     OW31010   5.855   1.158  13.854
 9726SOL    HW131011   5.906   1.175  13.934
 9726SOL    HW231012   5.890   1.075  13.821
 9727SOL     OW31013   9.088   3.107  14.371
 9727SOL    HW131014   9.101   3.202  14.373
 9727SOL    HW231015   9.052   3.090  14.285
 9728SOL     OW31016   6.069  13.071   3.694
 9728SOL    HW131017   6.146  13.123   3.673
 9728SOL    HW231018   6.047  13.095   3.784
 9729SOL     OW31019   9.999   5.243  12.749
 9729SOL    HW131020  10.080   5.237  12.697
 9729SOL    HW231021   9.943   5.302  12.699
 9730SOL     OW31022   5.887   6.444   4.887
 9730SOL    HW131023   5.981   6.448   4.872
 9730SOL    HW231024   5.873   6.357   4.925
 9731SOL     OW31025   4.493   1.655   4.210
 9731SOL    HW131026   4.425   1.716   4.181
 9731SOL    HW231027   4.519   1.608   4.131
 9732SOL     OW31028   2.914   5.764   4.019
 9732SOL    HW131029   2.919   5.857   4.041
 9732SOL    HW231030   2.979   5.752   3.950
 9733SOL     OW31031   8.841  12.869   9.098
 9733SOL    HW131032   8.786  12.839   9.171
 9733SOL    HW231033   8.861  12.789   9.049
 9734SOL     OW31034   8.825   5.174   2.259
 9734SOL    HW131035   8.814   5.209   2.170
 9734SOL    HW231036   8.833   5.252   2.314
 9735SOL     OW31037  11.155   7.266   3.880
 9735SOL    HW131038  11.180   7.331   3.947
 9735SOL    HW231039  11.239   7.238   3.842
 9736SOL     OW31040   6.786   2.919   5.312
 9736SOL    HW131041   6.822   2.835   5.341
 9736SOL    HW231042   6.739   2.952   5.389
 9737SOL     OW31043  10.987   2.506   7.113
 9737SOL    HW131044  10.984   2.508   7.017
 9737SOL    HW231045  11.061   2.449   7.134
 9738SOL     OW31046   8.108   2.841   1.692
 9738SOL    HW131047   8.123   2.935   1.708
 9738SOL    HW231048   8.184   2.799   1.731
 9739SOL     OW31049   9.345   3.577   1.397
 9739SOL    HW131050   9.285   3.577   1.323
 9739SOL    HW231051   9.290   3.598   1.472
 9740SOL     OW31052   3.214  12.497  10.084
 9740SOL    HW131053   3.295  12.455  10.055
 9740SOL    HW231054   3.221  12.499  10.180
 9741SOL     OW31055  12.632   5.235   7.736
 9741SOL    HW131056  12.589   5.269   7.658
 9741SOL    HW231057  12.692   5.168   7.703
 9742SOL     OW31058  14.132  13.880   0.150
 9742SOL    HW131059  14.139  13.976   0.152
 9742SOL    HW231060  14.219  13.850   0.126
 9743SOL     OW31061   8.576  13.095  10.341
 9743SOL    HW131062   8.545  13.099  10.251
 9743SOL    HW231063   8.523  13.160  10.388
 9744SOL     OW31064  13.151   7.945   1.862
 9744SOL    HW131065  13.125   7.864   1.905
 9744SOL    HW231066  13.245   7.935   1.847
 9745SOL     OW31067   1.135   6.578  12.756
 9745SOL    HW131068   1.225   6.600  12.729
 9745SOL    HW231069   1.083   6.595  12.678
 9746SOL     OW31070   2.195   3.973   8.920
 9746SOL    HW131071   2.282   3.947   8.951
 9746SOL    HW231072   2.163   3.897   8.872
 9747SOL     OW31073   0.023   0.887   1.688
 9747SOL    HW131074   0.048   0.869   1.598
 9747SOL    HW231075   0.101   0.864   1.739
 9748SOL     OW31076   8.909  10.345   8.553
 9748SOL    HW131077   8.918  10.280   8.484
 9748SOL    HW231078   8.820  10.380   8.542
 9749SOL     OW31079   3.507  10.800   0.064
 9749SOL    HW131080   3.561  10.725   0.041
 9749SOL    HW231081   3.559  10.876   0.036
 9750SOL     OW31082   8.962   6.771   5.537
 9750SOL    HW131083   9.040   6.807   5.581
 9750SOL    HW231084   8.953   6.683   5.574
 9751SOL     OW31085   5.487   8.626   1.340
 9751SOL    HW131086   5.482   8.566   1.415
 9751SOL    HW231087   5.457   8.574   1.266
 9752SOL     OW31088   6.576   4.607   5.503
 9752SOL    HW131089   6.571   4.632   5.595
 9752SOL    HW231090   6.541   4.518   5.500
 9753SOL     OW31091   5.636   4.755   3.179
 9753SOL    HW131092   5.628   4.790   3.090
 9753SOL    HW231093   5.583   4.814   3.233
 9754SOL     OW31094   7.619  10.259  12.229
 9754SOL    HW131095   7.576  10.177  12.255
 9754SOL    HW231096   7.680  10.234  12.159
 9755SOL     OW31097  12.965   2.763  11.077
 9755SOL    HW131098  13.034   2.801  11.131
 9755SOL    HW231099  12.922   2.839  11.037
 9756SOL     OW31100   8.527   9.352   9.383
 9756SOL    HW131101   8.590   9.295   9.338
 9756SOL    HW231102   8.529   9.434   9.335
 9757SOL     OW31103  13.212   8.024  12.444
 9757SOL    HW131104  13.195   8.107  12.399
 9757SOL    HW231105  13.172   7.958  12.388
 9758SOL     OW31106   5.710   4.481   4.533
 9758SOL    HW131107   5.679   4.561   4.576
 9758SOL    HW231108   5.686   4.410   4.593
 9759SOL     OW31109  13.239  12.662  12.952
 9759SOL    HW131110  13.147  12.686  12.952
 9759SOL    HW231111  13.285  12.745  12.967
 9760SOL     OW31112  11.699   8.471  13.923
 9760SOL    HW131113  11.758   8.412  13.969
 9760SOL    HW231114  11.675   8.423  13.843
 9761SOL     OW31115   2.066   3.555   8.407
 9761SOL    HW131116   2.140   3.591   8.457
 9761SOL    HW231117   1.989   3.602   8.440
 9762SOL     OW31118  13.955   0.409   4.387
 9762SOL    HW131119  13.912   0.369   4.313
 9762SOL    HW231120  13.905   0.379   4.463
 9763SOL     OW31121   1.298   5.042  14.320
 9763SOL    HW131122   1.304   4.952  14.289
 9763SOL    HW231123   1.378   5.056  14.370
 9764SOL     OW31124  12.991   3.299   9.275
 9764SOL    HW131125  13.078   3.337   9.279
 9764SOL    HW231126  12.988   3.237   9.348
 9765SOL     OW31127   5.058  13.100  10.678
 9765SOL    HW131128   5.150  13.094  10.651
 9765SOL    HW231129   5.045  13.026  10.737
 9766SOL     OW31130   5.007  13.474  14.592
 9766SOL    HW131131   5.092  13.466  14.634
 9766SOL    HW231132   5.007  13.405  14.525
 9767SOL     OW31133  12.725   1.365   6.212
 9767SOL    HW131134  12.672   1.444   6.208
 9767SOL    HW231135  12.746   1.344   6.121
 9768SOL     OW31136   9.907  14.275   3.733
 9768SOL    HW131137  10.000  14.298   3.732
 9768SOL    HW231138   9.889  14.243   3.645
 9769SOL     OW31139   9.597   3.878   4.207
 9769SOL    HW131140   9.532   3.879   4.137
 9769SOL    HW231141   9.544   3.867   4.287
 9770SOL     OW31142  14.763   3.065   4.423
 9770SOL    HW131143  14.749   2.986   4.475
 9770SOL    HW231144  14.721   3.135   4.473
 9771SOL     OW31145   3.672   7.644  11.653
 9771SOL    HW131146   3.705   7.637  11.564
 9771SOL    HW231147   3.629   7.730  11.656
 9772SOL     OW31148   3.139   3.726   2.724
 9772SOL    HW131149   3.133   3.815   2.691
 9772SOL    HW231150   3.161   3.673   2.648
 9773SOL     OW31151   5.687   9.142  14.447
 9773SOL    HW131152   5.732   9.120  14.529
 9773SOL    HW231153   5.603   9.177  14.475
 9774SOL     OW31154   6.370  11.299  12.536
 9774SOL    HW131155   6.405  11.238  12.600
 9774SOL    HW231156   6.343  11.244  12.462
 9775SOL     OW31157  11.652  14.828  10.678
 9775SOL    HW131158  11.656  14.735  10.655
 9775SOL    HW231159  11.595  14.867  10.611
 9776SOL     OW31160   2.283   6.704   6.998
 9776SOL    HW131161   2.232   6.738   6.925
 9776SOL    HW231162   2.294   6.779   7.057
 9777SOL     OW31163  11.143   7.309  13.844
 9777SOL    HW131164  11.224   7.306  13.895
 9777SOL    HW231165  11.153   7.240  13.779
 9778SOL     OW31166   3.653  14.544  11.076
 9778SOL    HW131167   3.699  14.513  10.998
 9778SOL    HW231168   3.635  14.636  11.057
 9779SOL     OW31169   7.931   5.343   6.435
 9779SOL    HW131170   7.942   5.254   6.469
 9779SOL    HW231171   7.845   5.342   6.393
 9780SOL     OW31172  10.983  11.378   2.566
 9780SOL    HW131173  10.960  11.459   2.612
 9780SOL    HW231174  11.060  11.401   2.515
 9781SOL     OW31175   5.484   6.570   0.287
 9781SOL    HW131176   5.549   6.500   0.281
 9781SOL    HW231177   5.526   6.637   0.341
 9782SOL     OW31178   6.893  14.264   9.591
 9782SOL    HW131179   6.819  14.312   9.555
 9782SOL    HW231180   6.947  14.331   9.633
 9783SOL     OW31181   3.766   6.894   0.108
 9783SOL    HW131182   3.777   6.975   0.057
 9783SOL    HW231183   3.680   6.860   0.081
 9784SOL     OW31184   1.288   1.124   5.611
 9784SOL    HW131185   1.248   1.063   5.549
 9784SOL    HW231186   1.316   1.198   5.557
 9785SOL     OW31187  10.920  13.148   8.515
 9785SOL    HW131188  10.970  13.067   8.506
 9785SOL    HW231189  10.922  13.186   8.427
 9786SOL     OW31190  13.080  14.273  14.591
 9786SOL    HW131191  13.045  14.289  14.678
 9786SOL    HW231192  13.162  14.226  14.606
 9787SOL     OW31193   9.602   3.339   1.743
 9787SOL    HW131194   9.510   3.365   1.735
 9787SOL    HW231195   9.651   3.412   1.706
 9788SOL     OW31196   1.806   1.603   8.800
 9788SOL    HW131197   1.859   1.542   8.748
 9788SOL    HW231198   1.838   1.690   8.774
 9789SOL     OW31199   8.933   1.564  13.868
 9789SOL    HW131200   8.927   1.649  13.911
 9789SOL    HW231201   8.922   1.501  13.939
 9790SOL     OW31202   0.442   0.772   0.207
 9790SOL    HW131203   0.430   0.777   0.301
 9790SOL    HW231204   0.500   0.845   0.186
 9791SOL     OW31205  10.833   7.759  14.152
 9791SOL    HW131206  10.865   7.793  14.236
 9791SOL    HW231207  10.893   7.687  14.131
 9792SOL     OW31208  10.791   3.580   2.788
 9792SOL    HW131209  10.782   3.488   2.765
 9792SOL    HW231210  10.876   3.606   2.752
 9793SOL     OW31211   1.566   2.062  12.470
 9793SOL    HW131212   1.508   1.991  12.495
 9793SOL    HW231213   1.516   2.114  12.406
 9794SOL     OW31214   0.953   8.484  12.883
 9794SOL    HW131215   0.877   8.499  12.827
 9794SOL    HW231216   0.970   8.390  12.874
 9795SOL     OW31217   8.321  13.235   6.229
 9795SOL    HW131218   8.350  13.309   6.282
 9795SOL    HW231219   8.391  13.222   6.165
 9796SOL     OW31220   7.026   7.774   1.303
 9796SOL    HW131221   7.087   7.848   1.309
 9796SOL    HW231222   7.018   7.743   1.393
 9797SOL     OW31223  11.107   6.483   2.306
 9797SOL    HW131224  11.048   6.415   2.272
 9797SOL    HW231225  11.067   6.511   2.388
 9798SOL     OW31226   6.815   6.474   3.711
 9798SOL    HW131227   6.756   6.493   3.784
 9798SOL    HW231228   6.900   6.457   3.753
 9799SOL     OW31229  11.177   0.163   3.681
 9799SOL    HW131230  11.229   0.156   3.761
 9799SOL    HW231231  11.233   0.210   3.620
 9800SOL     OW31232  12.837   3.570  12.373
 9800SOL    HW131233  12.798   3.488  12.401
 9800SOL    HW231234  12.871   3.552  12.285
 9801SOL     OW31235  11.564   9.494   6.276
 9801SOL    HW131236  11.621   9.420   6.296
 9801SOL    HW231237  11.613   9.570   6.307
 9802SOL     OW31238  13.178   0.145   1.053
 9802SOL    HW131239  13.100   0.190   1.085
 9802SOL    HW231240  13.194   0.075   1.117
 9803SOL     OW31241   3.759   0.370  10.213
 9803SOL    HW131242   3.788   0.438  10.151
 9803SOL    HW231243   3.775   0.288  10.167
 9804SOL     OW31244   7.514   6.726  14.194
 9804SOL    HW131245   7.512   6.630  14.190
 9804SOL    HW231246   7.471   6.747  14.277
 9805SOL     OW31247   7.047   9.294  12.975
 9805SOL    HW131248   7.035   9.255  13.062
 9805SOL    HW231249   6.968   9.347  12.963
 9806SOL     OW31250   9.994   7.527   6.763
 9806SOL    HW131251   9.921   7.472   6.790
 9806SOL    HW231252   9.968   7.615   6.789
 9807SOL     OW31253   2.290   6.127  12.048
 9807SOL    HW131254   2.240   6.103  11.970
 9807SOL    HW231255   2.254   6.070  12.117
 9808SOL     OW31256   8.635  14.189   9.956
 9808SOL    HW131257   8.557  14.136   9.937
 9808SOL    HW231258   8.632  14.259   9.891
 9809SOL     OW31259  13.511   1.437   7.565
 9809SOL    HW131260  13.482   1.358   7.610
 9809SOL    HW231261  13.445   1.503   7.586
 9810SOL     OW31262  12.551   3.439   4.610
 9810SOL    HW131263  12.478   3.431   4.549
 9810SOL    HW231264  12.628   3.418   4.557
 9811SOL     OW31265  12.559   2.537   6.763
 9811SOL    HW131266  12.475   2.553   6.807
 9811SOL    HW231267  12.588   2.623   6.735
 9812SOL     OW31268   4.906   5.379  10.268
 9812SOL    HW131269   4.828   5.420  10.305
 9812SOL    HW231270   4.948   5.449  10.217
 9813SOL     OW31271  10.256   4.124  14.544
 9813SOL    HW131272  10.172   4.100  14.503
 9813SOL    HW231273  10.283   4.203  14.498
 9814SOL     OW31274   8.816   1.836   4.167
 9814SOL    HW131275   8.844   1.925   4.189
 9814SOL    HW231276   8.777   1.845   4.080
 9815SOL     OW31277   4.179   1.376  14.436
 9815SOL    HW131278   4.163   1.314  14.506
 9815SOL    HW231279   4.179   1.462  14.479
 9816SOL     OW31280   6.238   4.814   5.445
 9816SOL    HW131281   6.180   4.888   5.428
 9816SOL    HW231282   6.195   4.766   5.517
 9817SOL     OW31283  10.858   2.549   1.600
 9817SOL    HW131284  10.766   2.576   1.610
 9817SOL    HW231285  10.853   2.457   1.573
 9818SOL     OW31286   7.444  14.646   6.877
 9818SOL    HW131287   7.396  14.721   6.913
 9818SOL    HW231288   7.432  14.653   6.782
 9819SOL     OW31289   4.012  12.059   2.393
 9819SOL    HW131290   4.049  11.990   2.337
 9819SOL    HW231291   3.942  12.014   2.442
 9820SOL     OW31292   0.411   0.215  14.648
 9820SOL    HW131293   0.432   0.145  14.710
 9820SOL    HW231294   0.316   0.225  14.654
 9821SOL     OW31295   4.320   1.642   6.915
 9821SOL    HW131296   4.228   1.628   6.895
 9821SOL    HW231297   4.320   1.683   7.002
 9822SOL     OW31298   4.510  11.628   7.962
 9822SOL    HW131299   4.445  11.564   7.990
 9822SOL    HW231300   4.594  11.588   7.983
 9823SOL     OW31301   6.901  13.023   1.355
 9823SOL    HW131302   6.903  13.113   1.322
 9823SOL    HW231303   6.990  12.991   1.342
 9824SOL     OW31304  13.412   7.742   0.252
 9824SOL    HW131305  13.455   7.823   0.280
 9824SOL    HW231306  13.456   7.719   0.169
 9825SOL     OW31307   1.136  12.630   1.939
 9825SOL    HW131308   1.171  12.554   1.985
 9825SOL    HW231309   1.128  12.601   1.848
 9826SOL     OW31310  10.299   1.407  10.211
 9826SOL    HW131311  10.324   1.364  10.293
 9826SOL    HW231312  10.370   1.469  10.194
 9827SOL     OW31313   7.171   7.528   9.103
 9827SOL    HW131314   7.240   7.570   9.052
 9827SOL    HW231315   7.089   7.556   9.062
 9828SOL     OW31316  12.646   5.766  11.296
 9828SOL    HW131317  12.729   5.781  11.341
 9828SOL    HW231318  12.589   5.727  11.363
 9829SOL     OW31319  14.349   2.970   2.058
 9829SOL    HW131320  14.436   3.009   2.054
 9829SOL    HW231321  14.289   3.044   2.053
 9830SOL     OW31322   9.435  14.055  10.740
 9830SOL    HW131323   9.360  14.051  10.681
 9830SOL    HW231324   9.429  14.141  10.781
 9831SOL     OW31325   7.768   3.735  11.290
 9831SOL    HW131326   7.781   3.645  11.321
 9831SOL    HW231327   7.713   3.726  11.213
 9832SOL     OW31328   3.307  14.336  12.690
 9832SOL    HW131329   3.324  14.387  12.769
 9832SOL    HW231330   3.313  14.245  12.720
 9833SOL     OW31331   3.544   9.246  13.225
 9833SOL    HW131332   3.488   9.318  13.194
 9833SOL    HW231333   3.508   9.168  13.184
 9834SOL     OW31334   8.060  14.012  14.207
 9834SOL    HW131335   8.131  14.002  14.144
 9834SOL    HW231336   8.033  13.922  14.226
 9835SOL     OW31337   6.652   0.328   5.645
 9835SOL    HW131338   6.716   0.265   5.678
 9835SOL    HW231339   6.662   0.404   5.702
 9836SOL     OW31340  10.563   5.473   0.711
 9836SOL    HW131341  10.639   5.473   0.770
 9836SOL    HW231342  10.489   5.457   0.769
 9837SOL     OW31343   3.621  12.615  10.166
 9837SOL    HW131344   3.572  12.577  10.239
 9837SOL    HW231345   3.670  12.687  10.205
 9838SOL     OW31346   5.250   7.219   4.059
 9838SOL    HW131347   5.180   7.165   4.024
 9838SOL    HW231348   5.210   7.262   4.135
 9839SOL     OW31349   0.203   6.992  14.386
 9839SOL    HW131350   0.132   6.933  14.408
 9839SOL    HW231351   0.220   6.977  14.293
 9840SOL     OW31352  14.505  10.091  10.078
 9840SOL    HW131353  14.491  10.186  10.079
 9840SOL    HW231354  14.431  10.056  10.029
 9841SOL     OW31355  11.933  13.160  11.025
 9841SOL    HW131356  11.932  13.097  10.953
 9841SOL    HW231357  11.924  13.107  11.104
 9842SOL     OW31358   6.940   8.054  13.982
 9842SOL    HW131359   6.978   8.104  14.055
 9842SOL    HW231360   7.016   8.017  13.937
 9843SOL     OW31361  11.684   6.709   1.855
 9843SOL    HW131362  11.625   6.710   1.780
 9843SOL    HW231363  11.650   6.640   1.911
 9844SOL     OW31364   0.509  13.452  12.689
 9844SOL    HW131365   0.587  13.476  12.639
 9844SOL    HW231366   0.531  13.368  12.730
 9845SOL     OW31367   5.682   0.457   7.541
 9845SOL    HW131368   5.760   0.404   7.527
 9845SOL    HW231369   5.650   0.476   7.452
 9846SOL     OW31370   7.611   3.389   3.067
 9846SOL    HW131371   7.653   3.474   3.056
 9846SOL    HW231372   7.556   3.378   2.989
 9847SOL     OW31373  12.899  14.626   8.069
 9847SOL    HW131374  12.814  14.606   8.107
 9847SOL    HW231375  12.928  14.544   8.030
 9848SOL     OW31376   8.349   8.899   2.585
 9848SOL    HW131377   8.304   8.840   2.525
 9848SOL    HW231378   8.284   8.917   2.654
 9849SOL     OW31379  13.142   1.941   3.011
 9849SOL    HW131380  13.135   1.937   3.107
 9849SOL    HW231381  13.054   1.922   2.980
 9850SOL     OW31382   6.888  11.376   2.243
 9850SOL    HW131383   6.846  11.308   2.297
 9850SOL    HW231384   6.946  11.327   2.184
 9851SOL     OW31385   7.927  14.549   0.507
 9851SOL    HW131386   8.004  14.499   0.481
 9851SOL    HW231387   7.858  14.521   0.446
 9852SOL     OW31388   9.242   1.407   0.692
 9852SOL    HW131389   9.222   1.326   0.740
 9852SOL    HW231390   9.156   1.448   0.678
 9853SOL     OW31391   8.975  13.313   8.661
 9853SOL    HW131392   8.998  13.393   8.709
 9853SOL    HW231393   8.891  13.333   8.620
 9854SOL     OW31394  14.183   2.084   2.261
 9854SOL    HW131395  14.103   2.044   2.295
 9854SOL    HW231396  14.153   2.164   2.218
 9855SOL     OW31397  11.876   3.290   5.192
 9855SOL    HW131398  11.944   3.226   5.217
 9855SOL    HW231399  11.814   3.239   5.140
 9856SOL     OW31400   1.099   2.463   6.745
 9856SOL    HW131401   1.079   2.411   6.667
 9856SOL    HW231402   1.064   2.412   6.817
 9857SOL     OW31403  12.769   6.035  11.599
 9857SOL    HW131404  12.689   6.062  11.645
 9857SOL    HW231405  12.814   6.117  11.580
 9858SOL     OW31406   3.465   7.234   0.252
 9858SOL    HW131407   3.483   7.146   0.285
 9858SOL    HW231408   3.411   7.221   0.174
 9859SOL     OW31409   3.652  12.897   0.506
 9859SOL    HW131410   3.655  12.993   0.511
 9859SOL    HW231411   3.559  12.876   0.500
 9860SOL     OW31412   8.147  13.685   3.541
 9860SOL    HW131413   8.079  13.656   3.602
 9860SOL    HW231414   8.201  13.607   3.526
 9861SOL     OW31415   3.953  14.634   5.534
 9861SOL    HW131416   3.950  14.541   5.514
 9861SOL    HW231417   3.905  14.643   5.616
 9862SOL     OW31418  12.803  14.736   2.586
 9862SOL    HW131419  12.752  14.772   2.658
 9862SOL    HW231420  12.800  14.804   2.518
 9863SOL     OW31421   3.972   4.517   4.670
 9863SOL    HW131422   4.059   4.476   4.669
 9863SOL    HW231423   3.912   4.446   4.691
 9864SOL     OW31424  14.150  13.427   1.533
 9864SOL    HW131425  14.116  13.476   1.458
 9864SOL    HW231426  14.177  13.495   1.595
 9865SOL     OW31427   7.353  11.531   4.027
 9865SOL    HW131428   7.291  11.544   4.098
 9865SOL    HW231429   7.428  11.587   4.049
 9866SOL     OW31430   0.843  11.875   0.455
 9866SOL    HW131431   0.768  11.888   0.514
 9866SOL    HW231432   0.843  11.952   0.399
 9867SOL     OW31433   9.319  12.164   4.122
 9867SOL    HW131434   9.260  12.153   4.197
 9867SOL    HW231435   9.263  12.202   4.054
 9868SOL     OW31436   0.284   3.293   2.514
 9868SOL    HW131437   0.288   3.228   2.584
 9868SOL    HW231438   0.359   3.350   2.530
 9869SOL     OW31439  13.205  11.732   7.501
 9869SOL    HW131440  13.297  11.757   7.496
 9869SOL    HW231441  13.164  11.800   7.555
 9870SOL     OW31442   0.096  10.246   0.709
 9870SOL    HW131443   0.016  10.195   0.693
 9870SOL    HW231444   0.070  10.309   0.777
 9871SOL     OW31445  14.768   0.683  13.059
 9871SOL    HW131446  14.783   0.707  13.151
 9871SOL    HW231447  14.674   0.661  13.056
 9872SOL     OW31448  10.420   4.178   3.062
 9872SOL    HW131449  10.423   4.083   3.056
 9872SOL    HW231450  10.390   4.195   3.152
 9873SOL     OW31451   6.723  13.879  11.890
 9873SOL    HW131452   6.700  13.816  11.958
 9873SOL    HW231453   6.818  13.873  11.884
 9874SOL     OW31454   5.924   6.539  11.667
 9874SOL    HW131455   5.979   6.593  11.609
 9874SOL    HW231456   5.849   6.595  11.686
 9875SOL     OW31457   3.590   3.540  10.305
 9875SOL    HW131458   3.585   3.586  10.222
 9875SOL    HW231459   3.635   3.458  10.285
 9876SOL     OW31460  13.899   2.856   3.470
 9876SOL    HW131461  13.966   2.788   3.476
 9876SOL    HW231462  13.888   2.871   3.376
 9877SOL     OW31463   2.468   2.277   6.335
 9877SOL    HW131464   2.419   2.356   6.358
 9877SOL    HW231465   2.481   2.231   6.418
 9878SOL     OW31466  12.636   8.609  14.019
 9878SOL    HW131467  12.669   8.691  13.982
 9878SOL    HW231468  12.611   8.631  14.109
 9879SOL     OW31469   2.695   5.544  10.205
 9879SOL    HW131470   2.623   5.496  10.245
 9879SOL    HW231471   2.687   5.529  10.111
 9880SOL     OW31472   3.998  12.338   6.604
 9880SOL    HW131473   4.028  12.420   6.642
 9880SOL    HW231474   4.012  12.273   6.673
 9881SOL     OW31475   9.068  12.735   3.681
 9881SOL    HW131476   9.073  12.829   3.701
 9881SOL    HW231477   9.156  12.713   3.648
 9882SOL     OW31478   4.803   1.414   7.252
 9882SOL    HW131479   4.720   1.407   7.205
 9882SOL    HW231480   4.780   1.408   7.344
 9883SOL     OW31481  13.344   7.644   3.333
 9883SOL    HW131482  13.410   7.654   3.264
 9883SOL    HW231483  13.374   7.700   3.404
 9884SOL     OW31484   9.151   6.617   1.085
 9884SOL    HW131485   9.172   6.673   1.160
 9884SOL    HW231486   9.064   6.581   1.105
 9885SOL     OW31487   2.126   7.429   5.651
 9885SOL    HW131488   2.145   7.401   5.741
 9885SOL    HW231489   2.201   7.399   5.600
 9886SOL     OW31490   1.620   3.023   0.692
 9886SOL    HW131491   1.616   3.108   0.736
 9886SOL    HW231492   1.542   2.977   0.723
 9887SOL     OW31493  14.649   0.510   4.771
 9887SOL    HW131494  14.592   0.562   4.715
 9887SOL    HW231495  14.731   0.503   4.723
 9888SOL     OW31496   7.696  11.786   6.641
 9888SOL    HW131497   7.709  11.703   6.595
 9888SOL    HW231498   7.746  11.775   6.722
 9889SOL     OW31499   5.642  13.150   0.273
 9889SOL    HW131500   5.551  13.161   0.244
 9889SOL    HW231501   5.640  13.172   0.366
 9890SOL     OW31502   3.471  12.542   9.430
 9890SOL    HW131503   3.413  12.473   9.398
 9890SOL    HW231504   3.415  12.620   9.433
 9891SOL     OW31505   6.435   1.637   6.089
 9891SOL    HW131506   6.454   1.595   6.005
 9891SOL    HW231507   6.342   1.661   6.082
 9892SOL     OW31508   2.487  11.404  12.611
 9892SOL    HW131509   2.446  11.437  12.691
 9892SOL    HW231510   2.553  11.470  12.590
 9893SOL     OW31511   3.831   2.227   6.785
 9893SOL    HW131512   3.876   2.186   6.858
 9893SOL    HW231513   3.832   2.321   6.806
 9894SOL     OW31514   8.825  12.675   4.456
 9894SOL    HW131515   8.842  12.766   4.432
 9894SOL    HW231516   8.870  12.663   4.539
 9895SOL     OW31517  12.894  10.884   8.608
 9895SOL    HW131518  12.834  10.942   8.654
 9895SOL    HW231519  12.837  10.819   8.566
 9896SOL     OW31520  13.946   1.106  14.424
 9896SOL    HW131521  13.911   1.029  14.470
 9896SOL    HW231522  13.872   1.139  14.373
 9897SOL     OW31523   6.185  11.518   5.190
 9897SOL    HW131524   6.212  11.434   5.226
 9897SOL    HW231525   6.114  11.547   5.248
 9898SOL     OW31526   2.701   5.881  13.684
 9898SOL    HW131527   2.708   5.845  13.595
 9898SOL    HW231528   2.735   5.970  13.676
 9899SOL     OW31529   6.470   9.847   4.666
 9899SOL    HW131530   6.411   9.828   4.739
 9899SOL    HW231531   6.528   9.916   4.699
 9900SOL     OW31532   9.208  11.402   2.730
 9900SOL    HW131533   9.302  11.395   2.744
 9900SOL    HW231534   9.182  11.316   2.696
 9901SOL     OW31535   0.034   8.013  12.769
 9901SOL    HW131536   0.058   8.105  12.780
 9901SOL    HW231537  14.832   8.015  12.718
 9902SOL     OW31538   8.378  12.852   6.338
 9902SOL    HW131539   8.326  12.932   6.327
 9902SOL    HW231540   8.338  12.789   6.278
 9903SOL     OW31541   8.877   8.979   1.568
 9903SOL    HW131542   8.957   8.951   1.525
 9903SOL    HW231543   8.896   8.973   1.662
 9904SOL     OW31544   5.148   1.857  10.270
 9904SOL    HW131545   5.104   1.939  10.292
 9904SOL    HW231546   5.113   1.834  10.184
 9905SOL     OW31547   2.978   4.388   0.328
 9905SOL    HW131548   2.999   4.360   0.239
 9905SOL    HW231549   2.967   4.483   0.321
 9906SOL     OW31550   6.559   3.318   6.387
 9906SOL    HW131551   6.484   3.313   6.328
 9906SOL    HW231552   6.566   3.411   6.408
 9907SOL     OW31553  13.611  12.120   6.752
 9907SOL    HW131554  13.681  12.128   6.687
 9907SOL    HW231555  13.588  12.211   6.773
 9908SOL     OW31556   0.868  10.089  14.671
 9908SOL    HW131557   0.839  10.170  14.630
 9908SOL    HW231558   0.788  10.040  14.687
 9909SOL     OW31559  13.196  10.110   8.220
 9909SOL    HW131560  13.214  10.084   8.130
 9909SOL    HW231561  13.102  10.128   8.222
 9910SOL     OW31562   4.782   5.976  13.614
 9910SOL    HW131563   4.800   6.018  13.698
 9910SOL    HW231564   4.741   5.892  13.637
 9911SOL     OW31565   9.404   8.891   9.106
 9911SOL    HW131566   9.421   8.887   9.012
 9911SOL    HW231567   9.315   8.927   9.112
 9912SOL     OW31568   2.318   3.684  14.341
 9912SOL    HW131569   2.270   3.652  14.264
 9912SOL    HW231570   2.314   3.612  14.403
 9913SOL     OW31571   7.419   1.779   7.923
 9913SOL    HW131572   7.369   1.823   7.854
 9913SOL    HW231573   7.372   1.800   8.004
 9914SOL     OW31574  14.394   9.449   3.573
 9914SOL    HW131575  14.346   9.480   3.496
 9914SOL    HW231576  14.483   9.434   3.541
 9915SOL     OW31577   1.859   1.032  11.860
 9915SOL    HW131578   1.768   1.058  11.871
 9915SOL    HW231579   1.903   1.058  11.941
 9916SOL     OW31580   7.396   8.451  10.919
 9916SOL    HW131581   7.450   8.420  10.846
 9916SOL    HW231582   7.313   8.404  10.911
 9917SOL     OW31583   6.537   9.269  10.268
 9917SOL    HW131584   6.466   9.318  10.228
 9917SOL    HW231585   6.617   9.309  10.234
 9918SOL     OW31586  14.211  12.136   0.684
 9918SOL    HW131587  14.274  12.148   0.755
 9918SOL    HW231588  14.126  12.137   0.728
 9919SOL     OW31589  12.947   2.633   0.866
 9919SOL    HW131590  12.876   2.569   0.864
 9919SOL    HW231591  12.921   2.699   0.801
 9920SOL     OW31592   8.183   4.195  13.881
 9920SOL    HW131593   8.174   4.110  13.926
 9920SOL    HW231594   8.232   4.174  13.801
 9921SOL     OW31595   1.358   5.838   4.276
 9921SOL    HW131596   1.361   5.744   4.258
 9921SOL    HW231597   1.442   5.871   4.244
 9922SOL     OW31598  11.994   6.440   7.980
 9922SOL    HW131599  11.986   6.437   7.885
 9922SOL    HW231600  12.088   6.432   7.996
 9923SOL     OW31601  11.920   9.556   3.796
 9923SOL    HW131602  11.874   9.613   3.734
 9923SOL    HW231603  12.002   9.534   3.751
 9924SOL     OW31604   2.417   0.756   3.951
 9924SOL    HW131605   2.422   0.790   3.862
 9924SOL    HW231606   2.508   0.738   3.975
 9925SOL     OW31607   6.927   3.485   5.392
 9925SOL    HW131608   6.885   3.400   5.384
 9925SOL    HW231609   7.018   3.469   5.366
 9926SOL     OW31610  11.396   9.248  10.493
 9926SOL    HW131611  11.332   9.205  10.437
 9926SOL    HW231612  11.386   9.205  10.578
 9927SOL     OW31613  13.553   0.201  13.767
 9927SOL    HW131614  13.460   0.192  13.747
 9927SOL    HW231615  13.585   0.269  13.708
 9928SOL     OW31616  10.673   3.188  12.491
 9928SOL    HW131617  10.730   3.257  12.458
 9928SOL    HW231618  10.623   3.230  12.561
 9929SOL     OW31619   0.328   9.096  11.322
 9929SOL    HW131620   0.288   9.082  11.236
 9929SOL    HW231621   0.283   9.173  11.357
 9930SOL     OW31622   2.936   3.417   2.191
 9930SOL    HW131623   2.960   3.352   2.126
 9930SOL    HW231624   2.993   3.397   2.266
 9931SOL     OW31625   8.119   1.668   3.919
 9931SOL    HW131626   8.031   1.698   3.941
 9931SOL    HW231627   8.168   1.748   3.898
 9932SOL     OW31628   4.914  14.102  10.079
 9932SOL    HW131629   4.882  14.087  10.168
 9932SOL    HW231630   4.896  14.195  10.062
 9933SOL     OW31631   6.722  13.036  11.186
 9933SOL    HW131632   6.736  13.017  11.279
 9933SOL    HW231633   6.804  13.076  11.157
 9934SOL     OW31634  12.009   4.643   5.286
 9934SOL    HW131635  12.026   4.601   5.202
 9934SOL    HW231636  12.096   4.666   5.319
 9935SOL     OW31637  10.163   4.777   0.798
 9935SOL    HW131638  10.217   4.714   0.751
 9935SOL    HW231639  10.164   4.855   0.743
 9936SOL     OW31640   1.547   8.242   3.472
 9936SOL    HW131641   1.507   8.157   3.491
 9936SOL    HW231642   1.620   8.221   3.414
 9937SOL     OW31643   5.836  11.131  11.608
 9937SOL    HW131644   5.810  11.043  11.578
 9937SOL    HW231645   5.875  11.172  11.530
 9938SOL     OW31646  11.886   0.286   7.015
 9938SOL    HW131647  11.881   0.316   7.106
 9938SOL    HW231648  11.976   0.305   6.989
 9939SOL     OW31649  11.969   4.601  13.351
 9939SOL    HW131650  11.894   4.605  13.411
 9939SOL    HW231651  12.045   4.614  13.407
 9940SOL     OW31652  13.314   4.267  13.975
 9940SOL    HW131653  13.400   4.302  13.997
 9940SOL    HW231654  13.257   4.298  14.046
 9941SOL     OW31655   1.818   3.668  14.446
 9941SOL    HW131656   1.831   3.689  14.353
 9941SOL    HW231657   1.885   3.719  14.492
 9942SOL     OW31658   3.120   8.957   2.530
 9942SOL    HW131659   3.150   8.930   2.443
 9942SOL    HW231660   3.116   9.052   2.526
 9943SOL     OW31661  13.889  12.772  10.250
 9943SOL    HW131662  13.802  12.778  10.290
 9943SOL    HW231663  13.936  12.709  10.305
 9944SOL     OW31664  11.797   8.249  14.070
 9944SOL    HW131665  11.737   8.249  14.145
 9944SOL    HW231666  11.797   8.159  14.039
 9945SOL     OW31667  13.297   0.187   6.183
 9945SOL    HW131668  13.305   0.149   6.095
 9945SOL    HW231669  13.203   0.183   6.201
 9946SOL     OW31670  12.217   0.583   1.954
 9946SOL    HW131671  12.141   0.581   2.012
 9946SOL    HW231672  12.185   0.547   1.872
 9947SOL     OW31673   0.815   5.881  10.728
 9947SOL    HW131674   0.821   5.969  10.692
 9947SOL    HW231675   0.808   5.894  10.823
 9948SOL     OW31676  11.923   1.480   3.946
 9948SOL    HW131677  11.972   1.517   4.019
 9948SOL    HW231678  11.875   1.406   3.984
 9949SOL     OW31679   3.363   7.611  13.771
 9949SOL    HW131680   3.429   7.557  13.815
 9949SOL    HW231681   3.284   7.558  13.772
 9950SOL     OW31682  11.626   9.662   1.974
 9950SOL    HW131683  11.645   9.754   1.992
 9950SOL    HW231684  11.634   9.619   2.059
 9951SOL     OW31685  14.450   3.627   6.758
 9951SOL    HW131686  14.513   3.620   6.686
 9951SOL    HW231687  14.364   3.624   6.716
 9952SOL     OW31688   6.604   8.294   5.048
 9952SOL    HW131689   6.683   8.345   5.037
 9952SOL    HW231690   6.571   8.318   5.135
 9953SOL     OW31691  12.061   5.825   0.560
 9953SOL    HW131692  12.138   5.843   0.613
 9953SOL    HW231693  12.095   5.779   0.483
 9954SOL     OW31694   8.358   2.868  10.615
 9954SOL    HW131695   8.290   2.808  10.584
 9954SOL    HW231696   8.381   2.921  10.538
 9955SOL     OW31697   2.903   2.682  13.415
 9955SOL    HW131698   2.988   2.711  13.382
 9955SOL    HW231699   2.858   2.647  13.338
 9956SOL     OW31700   8.240  11.165   4.468
 9956SOL    HW131701   8.240  11.178   4.373
 9956SOL    HW231702   8.231  11.071   4.479
 9957SOL     OW31703   3.096   5.998  12.943
 9957SOL    HW131704   3.175   5.951  12.915
 9957SOL    HW231705   3.040   5.998  12.866
 9958SOL     OW31706  11.804   9.052  12.256
 9958SOL    HW131707  11.873   9.102  12.212
 9958SOL    HW231708  11.824   9.060  12.349
 9959SOL     OW31709  11.382   8.486   7.391
 9959SOL    HW131710  11.394   8.391   7.397
 9959SOL    HW231711  11.433   8.521   7.464
 9960SOL     OW31712  11.020   8.039   5.778
 9960SOL    HW131713  11.087   8.092   5.822
 9960SOL    HW231714  10.949   8.032   5.842
 9961SOL     OW31715   5.107  14.392   0.227
 9961SOL    HW131716   5.186  14.443   0.250
 9961SOL    HW231717   5.036  14.437   0.273
 9962SOL     OW31718   6.054  13.063  14.585
 9962SOL    HW131719   6.028  12.971  14.595
 9962SOL    HW231720   6.137  13.070  14.632
 9963SOL     OW31721  14.664   5.941   6.068
 9963SOL    HW131722  14.628   5.854   6.083
 9963SOL    HW231723  14.706   5.935   5.982
 9964SOL     OW31724  12.073  13.036  12.866
 9964SOL    HW131725  12.080  13.126  12.898
 9964SOL    HW231726  12.046  12.985  12.942
 9965SOL     OW31727   9.874   5.190   5.758
 9965SOL    HW131728   9.844   5.099   5.755
 9965SOL    HW231729   9.849   5.226   5.674
 9966SOL     OW31730  10.046  13.767  12.988
 9966SOL    HW131731  10.071  13.679  13.016
 9966SOL    HW231732   9.950  13.769  12.997
 9967SOL     OW31733   0.722  14.640   1.887
 9967SOL    HW131734   0.771  14.688   1.820
 9967SOL    HW231735   0.673  14.708   1.933
 9968SOL     OW31736   4.685  13.365   1.900
 9968SOL    HW131737   4.713  13.309   1.973
 9968SOL    HW231738   4.738  13.444   1.909
 9969SOL     OW31739  13.338   6.244  11.779
 9969SOL    HW131740  13.400   6.171  11.785
 9969SOL    HW231741  13.393   6.322  11.768
 9970SOL     OW31742   9.837   0.014   0.067
 9970SOL    HW131743   9.871  14.846   0.143
 9970SOL    HW231744   9.915   0.040   0.018
 9971SOL     OW31745   9.260  14.234   9.876
 9971SOL    HW131746   9.290  14.324   9.863
 9971SOL    HW231747   9.166  14.238   9.862
 9972SOL     OW31748  14.193  11.542   5.684
 9972SOL    HW131749  14.122  11.531   5.622
 9972SOL    HW231750  14.262  11.483   5.652
 9973SOL     OW31751  10.573  10.391   0.613
 9973SOL    HW131752  10.568  10.345   0.698
 9973SOL    HW231753  10.548  10.481   0.633
 9974SOL     OW31754   0.516  10.530   9.610
 9974SOL    HW131755   0.493  10.596   9.676
 9974SOL    HW231756   0.561  10.462   9.659
 9975SOL     OW31757   9.391  11.599  10.806
 9975SOL    HW131758   9.312  11.608  10.860
 9975SOL    HW231759   9.449  11.544  10.859
 9976SOL     OW31760   2.110  10.359  12.062
 9976SOL    HW131761   2.076  10.375  11.974
 9976SOL    HW231762   2.120  10.264  12.067
 9977SOL     OW31763   3.296  12.942  11.172
 9977SOL    HW131764   3.285  12.850  11.197
 9977SOL    HW231765   3.382  12.946  11.130
 9978SOL     OW31766  12.953   0.839   2.501
 9978SOL    HW131767  12.890   0.880   2.441
 9978SOL    HW231768  13.036   0.881   2.481
 9979SOL     OW31769  12.930   8.539  12.767
 9979SOL    HW131770  12.886   8.583  12.840
 9979SOL    HW231771  13.016   8.516  12.801
 9980SOL     OW31772   0.995   0.520   8.882
 9980SOL    HW131773   0.941   0.456   8.929
 9980SOL    HW231774   0.931   0.578   8.840
 9981SOL     OW31775  14.726   3.148   0.640
 9981SOL    HW131776  14.715   3.242   0.653
 9981SOL    HW231777  14.660   3.108   0.697
 9982SOL     OW31778   2.584   1.461   6.325
 9982SOL    HW131779   2.609   1.395   6.261
 9982SOL    HW231780   2.594   1.417   6.410
 9983SOL     OW31781   0.440   6.809   4.579
 9983SOL    HW131782   0.530   6.833   4.557
 9983SOL    HW231783   0.417   6.865   4.653
 9984SOL     OW31784   3.882  11.040   2.071
 9984SOL    HW131785   3.921  10.955   2.051
 9984SOL    HW231786   3.799  11.040   2.025
 9985SOL     OW31787   6.260  11.997   7.388
 9985SOL    HW131788   6.290  12.088   7.395
 9985SOL    HW231789   6.275  11.960   7.475
 9986SOL     OW31790   8.257  14.063   7.197
 9986SOL    HW131791   8.171  14.103   7.207
 9986SOL    HW231792   8.305  14.089   7.276
 9987SOL     OW31793   1.533   1.825   1.743
 9987SOL    HW131794   1.477   1.900   1.761
 9987SOL    HW231795   1.525   1.770   1.821
 9988SOL     OW31796   8.789  14.759   1.385
 9988SOL    HW131797   8.799  14.667   1.360
 9988SOL    HW231798   8.850  14.806   1.328
 9989SOL     OW31799   5.804  14.823  10.268
 9989SOL    HW131800   5.826  14.819  10.175
 9989SOL    HW231801   5.812  14.732  10.298
 9990SOL     OW31802   0.700  14.247   8.746
 9990SOL    HW131803   0.650  14.325   8.768
 9990SOL    HW231804   0.691  14.239   8.651
 9991SOL     OW31805   0.783   8.586   8.693
 9991SOL    HW131806   0.851   8.648   8.666
 9991SOL    HW231807   0.728   8.576   8.615
 9992SOL     OW31808  10.782   9.199   9.930
 9992SOL    HW131809  10.787   9.209  10.025
 9992SOL    HW231810  10.841   9.127   9.910
 9993SOL     OW31811   7.206   4.746   8.330
 9993SOL    HW131812   7.184   4.717   8.241
 9993SOL    HW231813   7.252   4.829   8.317
 9994SOL     OW31814  12.837  13.371  10.410
 9994SOL    HW131815  12.849  13.444  10.471
 9994SOL    HW231816  12.742  13.364  10.400
 9995SOL     OW31817  11.850   5.107  11.589
 9995SOL    HW131818  11.886   5.073  11.507
 9995SOL    HW231819  11.807   5.031  11.629
 9996SOL     OW31820   8.982  12.252  13.862
 9996SOL    HW131821   9.049  12.270  13.797
 9996SOL    HW231822   9.004  12.165  13.896
 9997SOL     OW31823   5.906   9.418   6.630
 9997SOL    HW131824   5.881   9.510   6.636
 9997SOL    HW231825   5.948   9.409   6.545
 9998SOL     OW31826   2.677   3.326   9.163
 9998SOL    HW131827   2.661   3.249   9.218
 9998SOL    HW231828   2.763   3.310   9.124
 9999SOL     OW31829   9.396   1.538   0.951
 9999SOL    HW131830   9.487   1.568   0.961
 9999SOL    HW231831   9.405   1.448   0.919
10000SOL     OW31832   8.202   5.267   8.196
10000SOL    HW131833   8.260   5.279   8.120
10000SOL    HW231834   8.221   5.343   8.252
10001SOL     OW31835   1.120   1.666   7.062
10001SOL    HW131836   1.140   1.662   7.156
10001SOL    HW231837   1.027   1.643   7.056
10002SOL     OW31838   2.333   6.012   5.688
10002SOL    HW131839   2.373   5.926   5.703
10002SOL    HW231840   2.344   6.058   5.771
10003SOL     OW31841   2.358  10.384   0.266
10003SOL    HW131842   2.397  10.449   0.324
10003SOL    HW231843   2.351  10.428   0.182
10004SOL     OW31844   1.810   9.520   1.807
10004SOL    HW131845   1.863   9.482   1.737
10004SOL    HW231846   1.785   9.445   1.862
10005SOL     OW31847   5.537   2.000   6.565
10005SOL    HW131848   5.554   1.911   6.597
10005SOL    HW231849   5.554   2.055   6.641
10006SOL     OW31850   6.686   7.301   3.517
10006SOL    HW131851   6.624   7.362   3.479
10006SOL    HW231852   6.772   7.328   3.483
10007SOL     OW31853  10.318   9.740   8.909
10007SOL    HW131854  10.280   9.777   8.830
10007SOL    HW231855  10.394   9.691   8.878
10008SOL     OW31856  11.942  12.148   6.086
10008SOL    HW131857  11.974  12.151   5.996
10008SOL    HW231858  11.886  12.071   6.089
10009SOL     OW31859  11.206   9.588   6.158
10009SOL    HW131860  11.264   9.544   6.096
10009SOL    HW231861  11.142   9.633   6.103
10010SOL     OW31862   5.227   8.613   5.900
10010SOL    HW131863   5.299   8.550   5.900
10010SOL    HW231864   5.243   8.667   5.977
10011SOL     OW31865   6.589   7.737   6.359
10011SOL    HW131866   6.506   7.698   6.385
10011SOL    HW231867   6.566   7.798   6.288
10012SOL     OW31868   9.421   4.998   7.389
10012SOL    HW131869   9.401   4.915   7.346
10012SOL    HW231870   9.490   4.977   7.452
10013SOL     OW31871   5.732  13.867   0.995
10013SOL    HW131872   5.696  13.813   1.065
10013SOL    HW231873   5.742  13.954   1.034
10014SOL     OW31874   9.938   0.783  11.555
10014SOL    HW131875   9.844   0.768  11.567
10014SOL    HW231876   9.963   0.725  11.483
10015SOL     OW31877   5.353   7.801  13.054
10015SOL    HW131878   5.375   7.890  13.027
10015SOL    HW231879   5.258   7.803  13.065
10016SOL     OW31880   3.721  13.393   4.592
10016SOL    HW131881   3.763  13.340   4.660
10016SOL    HW231882   3.790  13.449   4.558
10017SOL     OW31883  14.800   2.915   1.408
10017SOL    HW131884  14.720   2.863   1.423
10017SOL    HW231885  14.833   2.934   1.495
10018SOL     OW31886   8.129   3.873   9.878
10018SOL    HW131887   8.105   3.921   9.798
10018SOL    HW231888   8.055   3.887   9.937
10019SOL     OW31889   9.739  13.749   6.213
10019SOL    HW131890   9.697  13.689   6.151
10019SOL    HW231891   9.812  13.786   6.163
10020SOL     OW31892   4.569   1.250  14.191
10020SOL    HW131893   4.650   1.203  14.211
10020SOL    HW231894   4.503   1.182  14.179
10021SOL     OW31895   0.394  13.349   8.565
10021SOL    HW131896   0.307  13.340   8.604
10021SOL    HW231897   0.411  13.265   8.523
10022SOL     OW31898   1.434  14.501   4.822
10022SOL    HW131899   1.379  14.555   4.879
10022SOL    HW231900   1.499  14.464   4.881
10023SOL     OW31901  11.529   0.084   0.883
10023SOL    HW131902  11.494   0.172   0.867
10023SOL    HW231903  11.527   0.074   0.978
10024SOL     OW31904  11.613   8.915  11.492
10024SOL    HW131905  11.601   8.835  11.543
10024SOL    HW231906  11.565   8.982  11.541
10025SOL     OW31907   8.289   8.725   1.503
10025SOL    HW131908   8.269   8.791   1.436
10025SOL    HW231909   8.383   8.733   1.517
10026SOL     OW31910   6.652   9.850   9.363
10026SOL    HW131911   6.576   9.901   9.334
10026SOL    HW231912   6.643   9.767   9.317
10027SOL     OW31913   3.836   2.061   5.637
10027SOL    HW131914   3.882   2.060   5.722
10027SOL    HW231915   3.799   1.973   5.629
10028SOL     OW31916   4.546   6.211   4.635
10028SOL    HW131917   4.566   6.255   4.552
10028SOL    HW231918   4.516   6.282   4.692
10029SOL     OW31919   2.156   5.496  10.857
10029SOL    HW131920   2.112   5.524  10.777
10029SOL    HW231921   2.215   5.568  10.878
10030SOL     OW31922   6.265  13.281   3.631
10030SOL    HW131923   6.360  13.274   3.632
10030SOL    HW231924   6.246  13.354   3.690
10031SOL     OW31925   9.980   7.882  12.507
10031SOL    HW131926  10.019   7.849  12.425
10031SOL    HW231927   9.959   7.974  12.488
10032SOL     OW31928   4.107   5.514   1.997
10032SOL    HW131929   4.068   5.460   2.066
10032SOL    HW231930   4.194   5.536   2.031
10033SOL     OW31931   8.332   7.357  12.993
10033SOL    HW131932   8.330   7.334  12.901
10033SOL    HW231933   8.422   7.385  13.009
10034SOL     OW31934  14.350  11.732   4.309
10034SOL    HW131935  14.258  11.719   4.286
10034SOL    HW231936  14.347  11.788   4.387
10035SOL     OW31937  10.462   1.879  11.435
10035SOL    HW131938  10.387   1.824  11.457
10035SOL    HW231939  10.452   1.896  11.341
10036SOL     OW31940   4.714  14.561   0.004
10036SOL    HW131941   4.791  14.608   0.037
10036SOL    HW231942   4.742  14.470  14.875
10037SOL     OW31943   3.648   9.204   6.192
10037SOL    HW131944   3.611   9.241   6.272
10037SOL    HW231945   3.647   9.110   6.206
10038SOL     OW31946  10.243   2.893   7.158
10038SOL    HW131947  10.328   2.850   7.153
10038SOL    HW231948  10.179   2.821   7.153
10039SOL     OW31949   2.246   0.001   8.307
10039SOL    HW131950   2.333  14.841   8.298
10039SOL    HW231951   2.263   0.093   8.324
10040SOL     OW31952   7.317  12.478  13.774
10040SOL    HW131953   7.282  12.437  13.695
10040SOL    HW231954   7.345  12.405  13.829
10041SOL     OW31955   4.798   5.168   8.938
10041SOL    HW131956   4.861   5.119   8.885
10041SOL    HW231957   4.851   5.209   9.007
10042SOL     OW31958   8.996   3.198  13.188
10042SOL    HW131959   9.006   3.260  13.260
10042SOL    HW231960   8.998   3.112  13.230
10043SOL     OW31961   3.914   7.680   3.645
10043SOL    HW131962   3.876   7.745   3.705
10043SOL    HW231963   3.942   7.609   3.702
10044SOL     OW31964  10.382   2.735   0.392
10044SOL    HW131965  10.427   2.795   0.450
10044SOL    HW231966  10.449   2.707   0.330
10045SOL     OW31967   2.288  12.357  12.070
10045SOL    HW131968   2.379  12.375  12.045
10045SOL    HW231969   2.257  12.295  12.003
10046SOL     OW31970   6.755   2.495   4.435
10046SOL    HW131971   6.800   2.580   4.437
10046SOL    HW231972   6.662   2.517   4.440
10047SOL     OW31973   5.659   1.958  12.762
10047SOL    HW131974   5.632   1.935  12.851
10047SOL    HW231975   5.720   1.889  12.737
10048SOL     OW31976   1.332  12.979   1.548
10048SOL    HW131977   1.343  13.044   1.617
10048SOL    HW231978   1.386  13.011   1.476
10049SOL     OW31979   9.158  11.514   6.597
10049SOL    HW131980   9.201  11.500   6.512
10049SOL    HW231981   9.101  11.438   6.608
10050SOL     OW31982   5.488   3.002   1.025
10050SOL    HW131983   5.508   3.090   0.994
10050SOL    HW231984   5.516   3.002   1.117
10051SOL     OW31985   3.585  10.748   3.483
10051SOL    HW131986   3.660  10.726   3.428
10051SOL    HW231987   3.622  10.761   3.570
10052SOL     OW31988   8.570   2.736   5.959
10052SOL    HW131989   8.633   2.808   5.967
10052SOL    HW231990   8.624   2.658   5.951
10053SOL     OW31991   5.058  11.449   4.741
10053SOL    HW131992   5.060  11.545   4.749
10053SOL    HW231993   4.966  11.426   4.752
10054SOL     OW31994   4.160   1.124   4.364
10054SOL    HW131995   4.215   1.045   4.367
10054SOL    HW231996   4.114   1.124   4.448
10055SOL     OW31997   9.449  14.764   6.016
10055SOL    HW131998   9.506  14.688   6.027
10055SOL    HW231999   9.507  14.839   6.029
10056SOL     OW32000  14.291  14.642   7.980
10056SOL    HW132001  14.296  14.722   7.928
10056SOL    HW232002  14.220  14.591   7.940
10057SOL     OW32003  14.364   1.012   2.306
10057SOL    HW132004  14.272   1.024   2.330
10057SOL    HW232005  14.375   0.918   2.296
10058SOL     OW32006   3.117   7.135  13.067
10058SOL    HW132007   3.152   7.171  13.148
10058SOL    HW232008   3.074   7.209  13.025
10059SOL     OW32009   2.530   4.090  10.690
10059SOL    HW132010   2.500   4.133  10.770
10059SOL    HW232011   2.622   4.069  10.707
10060SOL     OW32012   8.234   2.310   9.459
10060SOL    HW132013   8.308   2.282   9.513
10060SOL    HW232014   8.250   2.404   9.444
10061SOL     OW32015   2.903   9.998   9.115
10061SOL    HW132016   2.926  10.028   9.027
10061SOL    HW232017   2.975   9.940   9.140
10062SOL     OW32018   6.798  12.255  14.541
10062SOL    HW132019   6.740  12.235  14.467
10062SOL    HW232020   6.813  12.171  14.583
10063SOL     OW32021   2.984   4.165  12.596
10063SOL    HW132022   3.065   4.131  12.556
10063SOL    HW232023   2.970   4.249  12.554
10064SOL     OW32024   5.145   8.236   7.747
10064SOL    HW132025   5.102   8.317   7.777
10064SOL    HW232026   5.237   8.247   7.771
10065SOL     OW32027  11.570   8.981   7.174
10065SOL    HW132028  11.577   8.990   7.079
10065SOL    HW232029  11.655   8.947   7.202
10066SOL     OW32030   8.795  13.176   3.749
10066SOL    HW132031   8.710  13.216   3.766
10066SOL    HW232032   8.775  13.099   3.695
10067SOL     OW32033   3.864   4.636   3.844
10067SOL    HW132034   3.816   4.653   3.924
10067SOL    HW232035   3.864   4.719   3.797
10068SOL     OW32036  12.165   0.494   0.735
10068SOL    HW132037  12.122   0.554   0.797
10068SOL    HW232038  12.124   0.409   0.752
10069SOL     OW32039   3.120   2.207   5.911
10069SOL    HW132040   3.178   2.280   5.889
10069SOL    HW232041   3.042   2.248   5.947
10070SOL     OW32042  10.131   0.750  10.483
10070SOL    HW132043  10.100   0.769  10.395
10070SOL    HW232044  10.202   0.812  10.498
10071SOL     OW32045  10.470   2.353   6.639
10071SOL    HW132046  10.382   2.316   6.645
10071SOL    HW232047  10.457   2.441   6.602
10072SOL     OW32048   8.099   6.157  10.468
10072SOL    HW132049   8.127   6.248  10.480
10072SOL    HW232050   8.129   6.134  10.380
10073SOL     OW32051  14.010   8.208  11.980
10073SOL    HW132052  14.078   8.176  11.922
10073SOL    HW232053  14.020   8.156  12.060
10074SOL     OW32054  13.258   3.995  10.889
10074SOL    HW132055  13.349   4.001  10.919
10074SOL    HW232056  13.215   3.939  10.953
10075SOL     OW32057   8.953  11.708   6.487
10075SOL    HW132058   8.980  11.646   6.554
10075SOL    HW232059   8.879  11.665   6.444
10076SOL     OW32060   9.189   4.390   4.684
10076SOL    HW132061   9.276   4.399   4.725
10076SOL    HW232062   9.128   4.390   4.758
10077SOL     OW32063  11.121  10.786   5.497
10077SOL    HW132064  11.196  10.845   5.487
10077SOL    HW232065  11.088  10.774   5.408
10078SOL     OW32066   8.221  14.660   4.925
10078SOL    HW132067   8.211  14.565   4.927
10078SOL    HW232068   8.233  14.681   4.832
10079SOL     OW32069  14.174   4.377  10.413
10079SOL    HW132070  14.138   4.293  10.441
10079SOL    HW232071  14.189   4.367  10.319
10080SOL     OW32072   6.956  13.977   2.211
10080SOL    HW132073   6.948  13.964   2.305
10080SOL    HW232074   7.006  13.902   2.180
10081SOL     OW32075   0.081   8.557  14.855
10081SOL    HW132076   0.082   8.606  14.773
10081SOL    HW232077  14.870   8.564   0.007
10082SOL     OW32078  11.975   6.233   8.828
10082SOL    HW132079  11.932   6.222   8.743
10082SOL    HW232080  11.965   6.326   8.847
10083SOL     OW32081  12.939   7.861  12.582
10083SOL    HW132082  12.891   7.837  12.502
10083SOL    HW232083  13.030   7.866  12.553
10084SOL     OW32084  12.974  12.327  10.492
10084SOL    HW132085  12.939  12.314  10.404
10084SOL    HW232086  12.898  12.314  10.549
10085SOL     OW32087  12.142  10.403  13.442
10085SOL    HW132088  12.162  10.338  13.374
10085SOL    HW232089  12.105  10.352  13.514
10086SOL     OW32090   6.669  11.739   2.127
10086SOL    HW132091   6.609  11.719   2.055
10086SOL    HW232092   6.734  11.670   2.124
10087SOL     OW32093   7.028  12.137   2.454
10087SOL    HW132094   6.952  12.102   2.407
10087SOL    HW232095   7.104  12.104   2.406
10088SOL     OW32096   7.161  13.829   2.019
10088SOL    HW132097   7.254  13.811   2.036
10088SOL    HW232098   7.129  13.749   1.977
10089SOL     OW32099   6.965   4.227   8.603
10089SOL    HW132100   6.923   4.166   8.663
10089SOL    HW232101   7.047   4.251   8.646
10090SOL     OW32102   2.832  12.333  12.795
10090SOL    HW132103   2.907  12.328  12.735
10090SOL    HW232104   2.814  12.242  12.818
10091SOL     OW32105   7.574   3.281   9.914
10091SOL    HW132106   7.487   3.306   9.946
10091SOL    HW232107   7.635   3.317   9.979
10092SOL     OW32108   4.933  10.342   0.232
10092SOL    HW132109   5.015  10.389   0.218
10092SOL    HW232110   4.930  10.278   0.161
10093SOL     OW32111   8.781  13.471   5.793
10093SOL    HW132112   8.777  13.475   5.697
10093SOL    HW232113   8.689  13.466   5.820
10094SOL     OW32114   4.595   8.734   6.485
10094SOL    HW132115   4.691   8.740   6.492
10094SOL    HW232116   4.575   8.643   6.505
10095SOL     OW32117   2.599  12.726   4.023
10095SOL    HW132118   2.623  12.782   3.950
10095SOL    HW232119   2.673  12.665   4.032
10096SOL     OW32120   4.431  11.688  13.029
10096SOL    HW132121   4.343  11.657  13.053
10096SOL    HW232122   4.460  11.628  12.961
10097SOL     OW32123   3.947   6.067   8.592
10097SOL    HW132124   4.036   6.053   8.561
10097SOL    HW232125   3.917   5.981   8.622
10098SOL     OW32126  12.819   7.899   8.753
10098SOL    HW132127  12.737   7.933   8.718
10098SOL    HW232128  12.814   7.915   8.847
10099SOL     OW32129   3.922   7.326   3.674
10099SOL    HW132130   3.958   7.278   3.600
10099SOL    HW232131   3.827   7.322   3.662
10100SOL     OW32132  10.658   7.433   8.530
10100SOL    HW132133  10.724   7.462   8.467
10100SOL    HW232134  10.617   7.514   8.560
10101SOL     OW32135  10.717   4.283   8.184
10101SOL    HW132136  10.715   4.214   8.251
10101SOL    HW232137  10.751   4.238   8.105
10102SOL     OW32138   5.216  11.561   3.425
10102SOL    HW132139   5.184  11.483   3.470
10102SOL    HW232140   5.287  11.593   3.480
10103SOL     OW32141   0.760   2.442   1.886
10103SOL    HW132142   0.827   2.413   1.824
10103SOL    HW232143   0.685   2.386   1.869
10104SOL     OW32144  14.688  12.940  11.116
10104SOL    HW132145  14.659  12.940  11.207
10104SOL    HW232146  14.689  13.033  11.091
10105SOL     OW32147   5.116  14.357  10.716
10105SOL    HW132148   5.090  14.279  10.763
10105SOL    HW232149   5.090  14.430  10.773
10106SOL     OW32150  12.928   9.776   6.251
10106SOL    HW132151  12.907   9.862   6.288
10106SOL    HW232152  13.021   9.782   6.230
10107SOL     OW32153   1.782   5.417   4.520
10107SOL    HW132154   1.799   5.323   4.522
10107SOL    HW232155   1.703   5.429   4.572
10108SOL     OW32156   4.053   3.783   0.996
10108SOL    HW132157   4.000   3.836   0.937
10108SOL    HW232158   4.036   3.820   1.083
10109SOL     OW32159  11.243  13.185  12.323
10109SOL    HW132160  11.209  13.198  12.412
10109SOL    HW232161  11.307  13.114  12.332
10110SOL     OW32162   7.303  13.866   8.666
10110SOL    HW132163   7.345  13.944   8.632
10110SOL    HW232164   7.321  13.798   8.601
10111SOL     OW32165   8.577   2.918   7.653
10111SOL    HW132166   8.534   2.845   7.698
10111SOL    HW232167   8.653   2.879   7.610
10112SOL     OW32168  12.016   1.836  10.075
10112SOL    HW132169  12.008   1.749  10.034
10112SOL    HW232170  11.975   1.825  10.161
10113SOL     OW32171   2.566   4.816   6.156
10113SOL    HW132172   2.546   4.866   6.235
10113SOL    HW232173   2.611   4.877   6.099
10114SOL     OW32174  12.153  13.998   9.962
10114SOL    HW132175  12.167  13.929  10.027
10114SOL    HW232176  12.173  14.080  10.009
10115SOL     OW32177   5.291  10.174   5.075
10115SOL    HW132178   5.352  10.112   5.115
10115SOL    HW232179   5.290  10.149   4.982
10116SOL     OW32180   3.558  13.963   2.249
10116SOL    HW132181   3.604  13.928   2.173
10116SOL    HW232182   3.476  13.997   2.214
10117SOL     OW32183  13.772  10.396   1.727
10117SOL    HW132184  13.819  10.376   1.646
10117SOL    HW232185  13.735  10.312   1.755
10118SOL     OW32186  14.455  12.233   3.643
10118SOL    HW132187  14.362  12.255   3.639
10118SOL    HW232188  14.486  12.243   3.553
10119SOL     OW32189   6.551   5.143  12.197
10119SOL    HW132190   6.509   5.069  12.240
10119SOL    HW232191   6.633   5.156  12.245
10120SOL     OW32192   8.678  12.287   9.437
10120SOL    HW132193   8.632  12.296   9.521
10120SOL    HW232194   8.669  12.194   9.416
10121SOL     OW32195   7.300   8.546  13.166
10121SOL    HW132196   7.391   8.553  13.137
10121SOL    HW232197   7.277   8.633  13.198
10122SOL     OW32198   9.595   3.833   3.476
10122SOL    HW132199   9.609   3.928   3.478
10122SOL    HW232200   9.681   3.796   3.496
10123SOL     OW32201   7.621   5.570   4.770
10123SOL    HW132202   7.631   5.542   4.861
10123SOL    HW232203   7.692   5.526   4.723
10124SOL     OW32204  14.864   4.214   3.328
10124SOL    HW132205  14.772   4.202   3.305
10124SOL    HW232206  14.872   4.307   3.347
10125SOL     OW32207   8.419   7.801   0.287
10125SOL    HW132208   8.363   7.733   0.324
10125SOL    HW232209   8.366   7.880   0.290
10126SOL     OW32210  12.433   3.931   4.382
10126SOL    HW132211  12.465   4.009   4.337
10126SOL    HW232212  12.447   3.860   4.320
10127SOL     OW32213  12.910   0.145   5.927
10127SOL    HW132214  12.931   0.067   5.875
10127SOL    HW232215  12.824   0.172   5.897
10128SOL     OW32216  11.601   5.763  13.197
10128SOL    HW132217  11.608   5.680  13.151
10128SOL    HW232218  11.507   5.777  13.210
10129SOL     OW32219   8.449   4.355   6.422
10129SOL    HW132220   8.534   4.338   6.463
10129SOL    HW232221   8.469   4.362   6.328
10130SOL     OW32222   3.744   4.595   2.493
10130SOL    HW132223   3.706   4.629   2.412
10130SOL    HW232224   3.743   4.500   2.481
10131SOL     OW32225   9.058   8.908   3.771
10131SOL    HW132226   8.994   8.919   3.701
10131SOL    HW232227   9.083   8.997   3.795
10132SOL     OW32228   0.734  10.300   5.605
10132SOL    HW132229   0.812  10.354   5.614
10132SOL    HW232230   0.710  10.307   5.513
10133SOL     OW32231   3.000  13.299   1.083
10133SOL    HW132232   2.916  13.269   1.048
10133SOL    HW232233   2.977  13.372   1.140
10134SOL     OW32234   5.318  11.801   6.181
10134SOL    HW132235   5.305  11.870   6.246
10134SOL    HW232236   5.235  11.798   6.132
10135SOL     OW32237  11.307   2.892  13.538
10135SOL    HW132238  11.255   2.953  13.590
10135SOL    HW232239  11.369   2.854  13.599
10136SOL     OW32240   9.080   7.884   1.652
10136SOL    HW132241   9.110   7.795   1.631
10136SOL    HW232242   9.059   7.881   1.746
10137SOL     OW32243   0.343   5.306   1.225
10137SOL    HW132244   0.372   5.282   1.137
10137SOL    HW232245   0.421   5.292   1.280
10138SOL     OW32246  12.095  10.857   0.618
10138SOL    HW132247  12.065  10.769   0.593
10138SOL    HW232248  12.167  10.875   0.558
10139SOL     OW32249  12.225   1.527   9.724
10139SOL    HW132250  12.319   1.536   9.736
10139SOL    HW232251  12.214   1.513   9.630
10140SOL     OW32252   5.248  13.822   8.173
10140SOL    HW132253   5.261  13.803   8.080
10140SOL    HW232254   5.153  13.832   8.182
10141SOL     OW32255   8.133  10.225  11.598
10141SOL    HW132256   8.050  10.208  11.641
10141SOL    HW232257   8.198  10.180  11.652
10142SOL     OW32258   5.049   6.480  14.195
10142SOL    HW132259   5.082   6.551  14.250
10142SOL    HW232260   5.099   6.403  14.223
10143SOL     OW32261   7.427   3.973   2.241
10143SOL    HW132262   7.417   3.955   2.147
10143SOL    HW232263   7.364   3.915   2.283
10144SOL     OW32264  12.802   3.039   6.315
10144SOL    HW132265  12.791   3.127   6.279
10144SOL    HW232266  12.742   2.984   6.264
10145SOL     OW32267   6.079   1.598   8.946
10145SOL    HW132268   6.066   1.521   8.890
10145SOL    HW232269   6.013   1.589   9.015
10146SOL     OW32270   9.428  13.981   1.988
10146SOL    HW132271   9.478  13.941   2.058
10146SOL    HW232272   9.339  13.946   1.999
10147SOL     OW32273   1.425   2.412   0.484
10147SOL    HW132274   1.453   2.503   0.484
10147SOL    HW232275   1.348   2.409   0.428
10148SOL     OW32276  12.773   3.389   4.475
10148SOL    HW132277  12.842   3.395   4.542
10148SOL    HW232278  12.804   3.323   4.414
10149SOL     OW32279  13.499   9.372   8.316
10149SOL    HW132280  13.422   9.317   8.331
10149SOL    HW232281  13.571   9.323   8.357
10150SOL     OW32282  10.975   1.019  11.251
10150SOL    HW132283  11.012   0.932  11.258
10150SOL    HW232284  11.024   1.071  11.314
10151SOL     OW32285  12.338   4.565  10.297
10151SOL    HW132286  12.385   4.584  10.216
10151SOL    HW232287  12.324   4.651  10.338
10152SOL     OW32288   5.670  14.407  10.169
10152SOL    HW132289   5.693  14.406  10.262
10152SOL    HW232290   5.634  14.320  10.152
10153SOL     OW32291   8.893   3.765  11.213
10153SOL    HW132292   8.847   3.830  11.160
10153SOL    HW232293   8.827   3.697  11.229
10154SOL     OW32294  12.443  13.214   4.480
10154SOL    HW132295  12.384  13.138   4.473
10154SOL    HW232296  12.432  13.260   4.397
10155SOL     OW32297   5.343   5.231   8.427
10155SOL    HW132298   5.275   5.298   8.431
10155SOL    HW232299   5.406   5.257   8.494
10156SOL     OW32300   3.062   3.858   5.323
10156SOL    HW132301   3.087   3.899   5.406
10156SOL    HW232302   3.050   3.765   5.346
10157SOL     OW32303  14.211  11.414   5.061
10157SOL    HW132304  14.203  11.332   5.110
10157SOL    HW232305  14.165  11.397   4.978
10158SOL     OW32306   8.346  14.619   6.926
10158SOL    HW132307   8.347  14.683   6.855
10158SOL    HW232308   8.285  14.551   6.896
10159SOL     OW32309   2.756   3.125   9.662
10159SOL    HW132310   2.755   3.068   9.740
10159SOL    HW232311   2.728   3.210   9.694
10160SOL     OW32312   0.224   8.774   9.267
10160SOL    HW132313   0.155   8.751   9.205
10160SOL    HW232314   0.290   8.818   9.214
10161SOL     OW32315   3.165   9.756  12.984
10161SOL    HW132316   3.100   9.813  12.944
10161SOL    HW232317   3.117   9.709  13.052
10162SOL     OW32318   1.008   3.843   7.340
10162SOL    HW132319   1.098   3.856   7.311
10162SOL    HW232320   0.959   3.822   7.261
10163SOL     OW32321   9.729   4.188  12.378
10163SOL    HW132322   9.710   4.246  12.452
10163SOL    HW232323   9.815   4.216  12.347
10164SOL     OW32324   0.432  12.317   9.315
10164SOL    HW132325   0.375  12.387   9.347
10164SOL    HW232326   0.479  12.357   9.241
10165SOL     OW32327   4.522   5.238   7.854
10165SOL    HW132328   4.518   5.176   7.927
10165SOL    HW232329   4.430   5.262   7.839
10166SOL     OW32330  11.138  10.200   0.137
10166SOL    HW132331  11.213  10.214   0.195
10166SOL    HW232332  11.095  10.285   0.132
10167SOL     OW32333   3.496   8.579   8.711
10167SOL    HW132334   3.567   8.576   8.775
10167SOL    HW232335   3.494   8.670   8.680
10168SOL     OW32336   0.994  14.755  11.150
10168SOL    HW132337   0.902  14.779  11.139
10168SOL    HW232338   1.043  14.829  11.114
10169SOL     OW32339   1.805   4.257  10.970
10169SOL    HW132340   1.786   4.349  10.952
10169SOL    HW232341   1.855   4.228  10.894
10170SOL     OW32342   9.207   3.592   4.704
10170SOL    HW132343   9.254   3.509   4.708
10170SOL    HW232344   9.218   3.631   4.791
10171SOL     OW32345  13.430   2.669   5.219
10171SOL    HW132346  13.495   2.629   5.161
10171SOL    HW232347  13.416   2.605   5.288
10172SOL     OW32348  12.171  12.182   8.380
10172SOL    HW132349  12.141  12.139   8.299
10172SOL    HW232350  12.176  12.111   8.444
10173SOL     OW32351   6.209   3.105   5.986
10173SOL    HW132352   6.147   3.044   6.026
10173SOL    HW232353   6.192   3.098   5.892
10174SOL     OW32354  12.426  10.957   4.552
10174SOL    HW132355  12.386  10.914   4.627
10174SOL    HW232356  12.502  10.903   4.532
10175SOL     OW32357  12.448   6.027   3.232
10175SOL    HW132358  12.459   6.073   3.315
10175SOL    HW232359  12.439   5.935   3.257
10176SOL     OW32360   0.836   9.504   9.124
10176SOL    HW132361   0.911   9.459   9.085
10176SOL    HW232362   0.875   9.571   9.180
10177SOL     OW32363   0.782   0.626  13.125
10177SOL    HW132364   0.728   0.610  13.202
10177SOL    HW232365   0.866   0.586  13.145
10178SOL     OW32366  10.325  13.858   5.191
10178SOL    HW132367  10.355  13.948   5.181
10178SOL    HW232368  10.278  13.858   5.275
10179SOL     OW32369   6.829   4.489  11.638
10179SOL    HW132370   6.881   4.438  11.701
10179SOL    HW232371   6.739   4.458  11.651
10180SOL     OW32372   9.942  13.238   5.272
10180SOL    HW132373  10.034  13.219   5.291
10180SOL    HW232374   9.894  13.206   5.349
10181SOL     OW32375  10.519   7.355  14.412
10181SOL    HW132376  10.449   7.306  14.455
10181SOL    HW232377  10.474   7.425  14.365
10182SOL     OW32378  10.698   8.614   8.280
10182SOL    HW132379  10.613   8.652   8.301
10182SOL    HW232380  10.679   8.527   8.245
10183SOL     OW32381   1.000  10.362   5.241
10183SOL    HW132382   1.054  10.435   5.211
10183SOL    HW232383   0.957  10.330   5.162
10184SOL     OW32384  11.804  13.527   7.118
10184SOL    HW132385  11.780  13.440   7.087
10184SOL    HW232386  11.721  13.576   7.120
10185SOL     OW32387   8.623   3.887   7.066
10185SOL    HW132388   8.565   3.960   7.086
10185SOL    HW232389   8.594   3.855   6.981
10186SOL     OW32390   4.423   1.461   2.719
10186SOL    HW132391   4.435   1.367   2.706
10186SOL    HW232392   4.440   1.500   2.633
10187SOL     OW32393   9.534   0.427  12.841
10187SOL    HW132394   9.472   0.427  12.913
10187SOL    HW232395   9.564   0.336  12.835
10188SOL     OW32396  11.531  12.327   5.613
10188SOL    HW132397  11.487  12.248   5.582
10188SOL    HW232398  11.598  12.296   5.673
10189SOL     OW32399  12.813  12.336   0.716
10189SOL    HW132400  12.847  12.425   0.726
10189SOL    HW232401  12.730  12.337   0.763
10190SOL     OW32402  12.887   0.779   3.101
10190SOL    HW132403  12.849   0.712   3.045
10190SOL    HW232404  12.958   0.735   3.147
10191SOL     OW32405  11.620   9.466   8.957
10191SOL    HW132406  11.685   9.505   9.014
10191SOL    HW232407  11.628   9.515   8.874
10192SOL     OW32408  13.849  14.123   9.611
10192SOL    HW132409  13.928  14.075   9.633
10192SOL    HW232410  13.800  14.064   9.554
10193SOL     OW32411  10.039   6.890   0.181
10193SOL    HW132412  10.015   6.921   0.269
10193SOL    HW232413   9.956   6.859   0.143
10194SOL     OW32414   7.389   5.081  11.336
10194SOL    HW132415   7.387   5.125  11.421
10194SOL    HW232416   7.478   5.096  11.304
10195SOL     OW32417   6.220   4.723  13.880
10195SOL    HW132418   6.304   4.720  13.834
10195SOL    HW232419   6.209   4.635  13.917
10196SOL     OW32420   6.390  14.377   1.341
10196SOL    HW132421   6.324  14.413   1.282
10196SOL    HW232422   6.449  14.329   1.283
10197SOL     OW32423   2.418  10.617   9.403
10197SOL    HW132424   2.470  10.680   9.453
10197SOL    HW232425   2.482  10.560   9.362
10198SOL     OW32426   6.350   3.567  11.739
10198SOL    HW132427   6.314   3.597  11.822
10198SOL    HW232428   6.378   3.646  11.694
10199SOL     OW32429   8.800   4.656   9.210
10199SOL    HW132430   8.829   4.646   9.119
10199SOL    HW232431   8.774   4.568   9.237
10200SOL     OW32432  11.584   2.187   1.358
10200SOL    HW132433  11.574   2.219   1.447
10200SOL    HW232434  11.674   2.211   1.334
10201SOL     OW32435  12.996   7.075   0.443
10201SOL    HW132436  13.003   7.161   0.486
10201SOL    HW232437  13.068   7.073   0.380
10202SOL     OW32438   6.708   3.319   9.239
10202SOL    HW132439   6.681   3.234   9.272
10202SOL    HW232440   6.629   3.354   9.197
10203SOL     OW32441   5.607  11.690   3.357
10203SOL    HW132442   5.675  11.757   3.350
10203SOL    HW232443   5.646  11.612   3.318
10204SOL     OW32444   8.159   6.330   2.310
10204SOL    HW132445   8.243   6.315   2.352
10204SOL    HW232446   8.112   6.247   2.319
10205SOL     OW32447   5.865   9.453   2.060
10205SOL    HW132448   5.915   9.406   2.127
10205SOL    HW232449   5.778   9.461   2.098
10206SOL     OW32450   9.270   4.380   1.898
10206SOL    HW132451   9.315   4.401   1.816
10206SOL    HW232452   9.330   4.410   1.966
10207SOL     OW32453   5.690  14.297   4.054
10207SOL    HW132454   5.727  14.359   3.991
10207SOL    HW232455   5.766  14.254   4.092
10208SOL     OW32456  10.530  12.711   4.659
10208SOL    HW132457  10.489  12.646   4.716
10208SOL    HW232458  10.601  12.664   4.616
10209SOL     OW32459   5.819  13.374   6.261
10209SOL    HW132460   5.858  13.384   6.348
10209SOL    HW232461   5.892  13.391   6.201
10210SOL     OW32462  12.493  12.066  12.456
10210SOL    HW132463  12.536  12.071  12.542
10210SOL    HW232464  12.456  12.153  12.443
10211SOL     OW32465  13.039   4.706   1.567
10211SOL    HW132466  13.030   4.801   1.570
10211SOL    HW232467  13.076   4.683   1.652
10212SOL     OW32468   7.383   5.568  14.137
10212SOL    HW132469   7.411   5.524  14.056
10212SOL    HW232470   7.331   5.643  14.106
10213SOL     OW32471   8.843   5.205   5.281
10213SOL    HW132472   8.850   5.146   5.356
10213SOL    HW232473   8.770   5.263   5.304
10214SOL     OW32474   6.940  12.369  13.433
10214SOL    HW132475   6.885  12.335  13.503
10214SOL    HW232476   6.956  12.295  13.375
10215SOL     OW32477   3.658   0.629   9.059
10215SOL    HW132478   3.674   0.559   8.995
10215SOL    HW232479   3.575   0.606   9.100
10216SOL     OW32480  14.651   7.648   0.295
10216SOL    HW132481  14.722   7.613   0.348
10216SOL    HW232482  14.672   7.620   0.206
10217SOL     OW32483   3.092   7.831   2.510
10217SOL    HW132484   3.097   7.922   2.539
10217SOL    HW232485   3.045   7.836   2.426
10218SOL     OW32486   7.657  12.665   9.107
10218SOL    HW132487   7.602  12.647   9.031
10218SOL    HW232488   7.606  12.724   9.161
10219SOL     OW32489   1.115  11.662  14.537
10219SOL    HW132490   1.170  11.709  14.474
10219SOL    HW232491   1.081  11.731  14.594
10220SOL     OW32492  14.498   6.352   9.718
10220SOL    HW132493  14.464   6.377   9.632
10220SOL    HW232494  14.421   6.351   9.775
10221SOL     OW32495   6.553   3.604   4.742
10221SOL    HW132496   6.519   3.687   4.773
10221SOL    HW232497   6.593   3.564   4.820
10222SOL     OW32498   2.312   8.302   9.822
10222SOL    HW132499   2.295   8.338   9.909
10222SOL    HW232500   2.225   8.293   9.783
10223SOL     OW32501  14.423   1.271  12.676
10223SOL    HW132502  14.507   1.237  12.707
10223SOL    HW232503  14.445   1.356  12.636
10224SOL     OW32504   8.256   1.006   4.794
10224SOL    HW132505   8.176   0.970   4.755
10224SOL    HW232506   8.322   0.998   4.725
10225SOL     OW32507   0.330  14.464   3.682
10225SOL    HW132508   0.283  14.430   3.757
10225SOL    HW232509   0.357  14.386   3.633
10226SOL     OW32510  11.189   8.176  12.235
10226SOL    HW132511  11.159   8.092  12.198
10226SOL    HW232512  11.191   8.235  12.160
10227SOL     OW32513  12.528  11.549   0.659
10227SOL    HW132514  12.515  11.469   0.609
10227SOL    HW232515  12.552  11.614   0.594
10228SOL     OW32516   4.773   9.378   1.173
10228SOL    HW132517   4.764   9.373   1.078
10228SOL    HW232518   4.782   9.472   1.192
10229SOL     OW32519   8.414   8.584   8.116
10229SOL    HW132520   8.323   8.560   8.097
10229SOL    HW232521   8.437   8.646   8.047
10230SOL     OW32522   6.677   4.172   0.969
10230SOL    HW132523   6.653   4.124   1.049
10230SOL    HW232524   6.688   4.104   0.903
10231SOL     OW32525   0.581   8.192   2.646
10231SOL    HW132526   0.548   8.123   2.704
10231SOL    HW232527   0.667   8.160   2.619
10232SOL     OW32528   6.392   8.532   7.559
10232SOL    HW132529   6.453   8.489   7.499
10232SOL    HW232530   6.414   8.495   7.645
10233SOL     OW32531   3.101  11.834   1.826
10233SOL    HW132532   3.037  11.850   1.895
10233SOL    HW232533   3.172  11.895   1.844
10234SOL     OW32534   3.241   0.105  12.594
10234SOL    HW132535   3.189   0.179  12.624
10234SOL    HW232536   3.181   0.052  12.543
10235SOL     OW32537   0.904   9.148  11.059
10235SOL    HW132538   0.840   9.144  11.131
10235SOL    HW232539   0.984   9.110  11.096
10236SOL     OW32540  10.450   3.059   9.247
10236SOL    HW132541  10.531   3.108   9.232
10236SOL    HW232542  10.402   3.067   9.164
10237SOL     OW32543   7.736   7.437   1.395
10237SOL    HW132544   7.822   7.472   1.419
10237SOL    HW232545   7.678   7.513   1.395
10238SOL     OW32546   0.880   2.341   8.088
10238SOL    HW132547   0.804   2.378   8.044
10238SOL    HW232548   0.844   2.272   8.144
10239SOL     OW32549   0.831   4.325  14.190
10239SOL    HW132550   0.797   4.237  14.208
10239SOL    HW232551   0.858   4.358  14.276
10240SOL     OW32552   3.896   6.485   5.701
10240SOL    HW132553   3.841   6.558   5.730
10240SOL    HW232554   3.845   6.444   5.631
10241SOL     OW32555   0.689  10.485   9.087
10241SOL    HW132556   0.767  10.469   9.141
10241SOL    HW232557   0.723  10.527   9.008
10242SOL     OW32558   0.011   3.993   1.266
10242SOL    HW132559   0.064   3.916   1.247
10242SOL    HW232560   0.066   4.047   1.324
10243SOL     OW32561  14.330  10.597   8.548
10243SOL    HW132562  14.293  10.675   8.588
10243SOL    HW232563  14.422  10.619   8.531
10244SOL     OW32564   3.924  13.559   5.864
10244SOL    HW132565   3.955  13.488   5.808
10244SOL    HW232566   3.955  13.535   5.952
10245SOL     OW32567   6.303  13.103  13.639
10245SOL    HW132568   6.222  13.091  13.689
10245SOL    HW232569   6.372  13.082  13.701
10246SOL     OW32570   4.873   5.575  10.008
10246SOL    HW132571   4.788   5.600   9.970
10246SOL    HW232572   4.892   5.646  10.070
10247SOL     OW32573   2.455   4.514   0.243
10247SOL    HW132574   2.535   4.567   0.248
10247SOL    HW232575   2.485   4.424   0.252
10248SOL     OW32576   1.750   4.405   0.685
10248SOL    HW132577   1.799   4.484   0.708
10248SOL    HW232578   1.818   4.339   0.668
10249SOL     OW32579   6.837   0.477  11.359
10249SOL    HW132580   6.883   0.416  11.417
10249SOL    HW232581   6.800   0.543  11.418
10250SOL     OW32582   9.805   9.168   0.649
10250SOL    HW132583   9.846   9.139   0.730
10250SOL    HW232584   9.716   9.132   0.653
10251SOL     OW32585   2.060   7.070  14.677
10251SOL    HW132586   2.138   7.032  14.718
10251SOL    HW232587   2.089   7.094  14.589
10252SOL     OW32588   3.619   6.940   6.131
10252SOL    HW132589   3.590   6.910   6.045
10252SOL    HW232590   3.625   7.035   6.122
10253SOL     OW32591  11.051   1.783   8.605
10253SOL    HW132592  11.103   1.807   8.682
10253SOL    HW232593  11.091   1.831   8.533
10254SOL     OW32594  10.771   9.840  11.117
10254SOL    HW132595  10.789   9.811  11.027
10254SOL    HW232596  10.683   9.878  11.113
10255SOL     OW32597   3.575   7.744   1.636
10255SOL    HW132598   3.652   7.689   1.622
10255SOL    HW232599   3.501   7.684   1.627
10256SOL     OW32600   8.599   5.888   5.073
10256SOL    HW132601   8.519   5.926   5.036
10256SOL    HW232602   8.632   5.830   5.004
10257SOL     OW32603   4.250   8.972   7.893
10257SOL    HW132604   4.305   9.048   7.907
10257SOL    HW232605   4.172   9.006   7.849
10258SOL     OW32606  11.829   7.873  13.855
10258SOL    HW132607  11.773   7.874  13.776
10258SOL    HW232608  11.891   7.944  13.841
10259SOL     OW32609  13.664  12.579  12.971
10259SOL    HW132610  13.717  12.607  13.045
10259SOL    HW232611  13.605  12.512  13.007
10260SOL     OW32612   8.244   0.899   1.490
10260SOL    HW132613   8.318   0.894   1.550
10260SOL    HW232614   8.223   0.808   1.470
10261SOL     OW32615   8.133  11.623  12.064
10261SOL    HW132616   8.065  11.670  12.113
10261SOL    HW232617   8.187  11.583  12.132
10262SOL     OW32618   3.608   3.495  12.502
10262SOL    HW132619   3.602   3.554  12.577
10262SOL    HW232620   3.701   3.487  12.485
10263SOL     OW32621   2.765   5.956   6.651
10263SOL    HW132622   2.837   5.994   6.600
10263SOL    HW232623   2.771   5.998   6.736
10264SOL     OW32624   8.913   7.804   1.168
10264SOL    HW132625   8.974   7.777   1.099
10264SOL    HW232626   8.907   7.899   1.159
10265SOL     OW32627   7.110   4.208   7.473
10265SOL    HW132628   7.117   4.131   7.530
10265SOL    HW232629   7.165   4.274   7.514
10266SOL     OW32630  12.735  13.100   8.180
10266SOL    HW132631  12.747  13.062   8.267
10266SOL    HW232632  12.640  13.107   8.170
10267SOL     OW32633   3.189   5.751   7.281
10267SOL    HW132634   3.207   5.842   7.254
10267SOL    HW232635   3.126   5.720   7.216
10268SOL     OW32636  13.945   9.285  13.780
10268SOL    HW132637  13.995   9.220  13.731
10268SOL    HW232638  13.871   9.235  13.816
10269SOL     OW32639   3.318  10.957   2.785
10269SOL    HW132640   3.267  10.918   2.714
10269SOL    HW232641   3.344  10.883   2.840
10270SOL     OW32642  14.218  14.057  11.904
10270SOL    HW132643  14.257  13.979  11.943
10270SOL    HW232644  14.155  14.023  11.841
10271SOL     OW32645   9.341   0.138   1.172
10271SOL    HW132646   9.412   0.193   1.137
10271SOL    HW232647   9.264   0.162   1.121
10272SOL     OW32648  12.460  12.862   3.196
10272SOL    HW132649  12.516  12.844   3.121
10272SOL    HW232650  12.470  12.956   3.212
10273SOL     OW32651  10.221   2.618   3.344
10273SOL    HW132652  10.308   2.658   3.342
10273SOL    HW232653  10.226   2.555   3.415
10274SOL     OW32654   6.324  12.392   8.157
10274SOL    HW132655   6.347  12.482   8.135
10274SOL    HW232656   6.375  12.338   8.097
10275SOL     OW32657   3.970   8.767   5.321
10275SOL    HW132658   3.904   8.712   5.278
10275SOL    HW232659   4.013   8.812   5.249
10276SOL     OW32660  10.573  12.965  11.700
10276SOL    HW132661  10.500  12.903  11.691
10276SOL    HW232662  10.532  13.046  11.730
10277SOL     OW32663   4.917   3.872   1.106
10277SOL    HW132664   4.910   3.777   1.100
10277SOL    HW232665   4.982   3.888   1.174
10278SOL     OW32666  13.198   3.619   4.683
10278SOL    HW132667  13.209   3.710   4.654
10278SOL    HW232668  13.287   3.584   4.685
10279SOL     OW32669  14.762   3.058   2.659
10279SOL    HW132670  14.789   3.022   2.575
10279SOL    HW232671  14.769   3.152   2.648
10280SOL     OW32672   0.906  11.334  11.557
10280SOL    HW132673   0.957  11.362  11.481
10280SOL    HW232674   0.849  11.408  11.577
10281SOL     OW32675  10.230  14.772   5.612
10281SOL    HW132676  10.165  14.738   5.673
10281SOL    HW232677  10.211  14.727   5.529
10282SOL     OW32678  14.409   4.896   7.758
10282SOL    HW132679  14.463   4.889   7.837
10282SOL    HW232680  14.466   4.866   7.688
10283SOL     OW32681   5.101  13.566   2.462
10283SOL    HW132682   5.100  13.555   2.557
10283SOL    HW232683   5.174  13.512   2.432
10284SOL     OW32684   6.301   7.095  12.291
10284SOL    HW132685   6.212   7.131  12.287
10284SOL    HW232686   6.297   7.032  12.364
10285SOL     OW32687   0.835   9.205   9.781
10285SOL    HW132688   0.918   9.174   9.743
10285SOL    HW232689   0.803   9.271   9.719
10286SOL     OW32690   2.840   2.557   4.847
10286SOL    HW132691   2.827   2.505   4.926
10286SOL    HW232692   2.837   2.493   4.776
10287SOL     OW32693   8.783  12.424  10.738
10287SOL    HW132694   8.865  12.460  10.702
10287SOL    HW232695   8.756  12.359  10.674
10288SOL     OW32696   6.880   4.476  10.890
10288SOL    HW132697   6.953   4.527  10.925
10288SOL    HW232698   6.895   4.387  10.921
10289SOL     OW32699   8.436   2.030  10.739
10289SOL    HW132700   8.425   1.953  10.683
10289SOL    HW232701   8.521   2.016  10.782
10290SOL     OW32702  10.129   1.934   9.292
10290SOL    HW132703  10.221   1.919   9.315
10290SOL    HW232704  10.132   2.004   9.226
10291SOL     OW32705   7.970   0.882  10.773
10291SOL    HW132706   7.956   0.955  10.713
10291SOL    HW232707   7.935   0.914  10.857
10292SOL     OW32708  12.862  11.472   4.577
10292SOL    HW132709  12.820  11.493   4.493
10292SOL    HW232710  12.883  11.379   4.570
10293SOL     OW32711   0.794   0.339   3.843
10293SOL    HW132712   0.798   0.433   3.823
10293SOL    HW232713   0.706   0.326   3.878
10294SOL     OW32714  13.981   4.390   7.759
10294SOL    HW132715  13.978   4.471   7.708
10294SOL    HW232716  14.060   4.345   7.728
10295SOL     OW32717   8.102   8.305   4.857
10295SOL    HW132718   8.144   8.386   4.886
10295SOL    HW232719   8.092   8.317   4.762
10296SOL     OW32720   0.353   8.303  11.044
10296SOL    HW132721   0.263   8.308  11.076
10296SOL    HW232722   0.407   8.297  11.123
10297SOL     OW32723  10.575   2.014   1.728
10297SOL    HW132724  10.510   2.062   1.779
10297SOL    HW232725  10.571   1.925   1.762
10298SOL     OW32726  13.256   4.437   1.479
10298SOL    HW132727  13.254   4.479   1.565
10298SOL    HW232728  13.254   4.343   1.498
10299SOL     OW32729  10.282   9.984   3.623
10299SOL    HW132730  10.329  10.063   3.596
10299SOL    HW232731  10.256   9.942   3.541
10300SOL     OW32732   4.394   8.450   7.859
10300SOL    HW132733   4.327   8.386   7.834
10300SOL    HW232734   4.348   8.533   7.864
10301SOL     OW32735   2.569   4.329  10.908
10301SOL    HW132736   2.600   4.414  10.939
10301SOL    HW232737   2.493   4.309  10.962
10302SOL     OW32738  14.808   3.480   8.109
10302SOL    HW132739  14.816   3.468   8.015
10302SOL    HW232740  14.749   3.410   8.137
10303SOL     OW32741   5.279   2.483  13.993
10303SOL    HW132742   5.253   2.575  13.995
10303SOL    HW232743   5.198   2.434  13.981
10304SOL     OW32744  12.768   3.614  11.639
10304SOL    HW132745  12.739   3.684  11.696
10304SOL    HW232746  12.721   3.628  11.557
10305SOL     OW32747   5.632   6.407  11.228
10305SOL    HW132748   5.633   6.485  11.283
10305SOL    HW232749   5.645   6.440  11.139
10306SOL     OW32750   9.825   3.483  14.334
10306SOL    HW132751   9.779   3.530  14.264
10306SOL    HW232752   9.908   3.456  14.295
10307SOL     OW32753   5.336  10.203  13.378
10307SOL    HW132754   5.365  10.228  13.465
10307SOL    HW232755   5.275  10.272  13.352
10308SOL     OW32756   1.228   7.509   1.190
10308SOL    HW132757   1.149   7.520   1.137
10308SOL    HW232758   1.299   7.500   1.126
10309SOL     OW32759  11.093  12.462  10.799
10309SOL    HW132760  11.039  12.505  10.866
10309SOL    HW232761  11.173  12.436  10.846
10310SOL     OW32762   4.949   9.668   5.825
10310SOL    HW132763   4.866   9.621   5.836
10310SOL    HW232764   4.991   9.662   5.911
10311SOL     OW32765   2.501   1.520  10.464
10311SOL    HW132766   2.567   1.581  10.432
10311SOL    HW232767   2.545   1.435  10.467
10312SOL     OW32768   6.030  10.336   3.500
10312SOL    HW132769   6.007  10.397   3.570
10312SOL    HW232770   5.961  10.270   3.502
10313SOL     OW32771  14.284   5.182   5.978
10313SOL    HW132772  14.277   5.123   6.053
10313SOL    HW232773  14.194   5.192   5.947
10314SOL     OW32774   0.563   2.222  11.402
10314SOL    HW132775   0.607   2.163  11.341
10314SOL    HW232776   0.505   2.165  11.453
10315SOL     OW32777   2.021  13.327   2.590
10315SOL    HW132778   2.060  13.406   2.553
10315SOL    HW232779   2.042  13.331   2.683
10316SOL     OW32780  11.134  10.133   3.393
10316SOL    HW132781  11.139  10.124   3.297
10316SOL    HW232782  11.211  10.185   3.416
10317SOL     OW32783  14.289   5.356  14.869
10317SOL    HW132784  14.242   5.360  14.786
10317SOL    HW232785  14.241   5.291   0.042
10318SOL     OW32786   4.018   6.720   1.404
10318SOL    HW132787   4.078   6.690   1.471
10318SOL    HW232788   3.944   6.660   1.408
10319SOL     OW32789   0.276   2.825   6.630
10319SOL    HW132790   0.206   2.824   6.565
10319SOL    HW232791   0.292   2.733   6.651
10320SOL     OW32792  14.765  12.479   5.303
10320SOL    HW132793  14.706  12.405   5.315
10320SOL    HW232794  14.713  12.556   5.327
10321SOL     OW32795  13.779   4.816   5.833
10321SOL    HW132796  13.836   4.867   5.891
10321SOL    HW232797  13.714   4.878   5.801
10322SOL     OW32798   5.714   0.453   0.765
10322SOL    HW132799   5.637   0.426   0.714
10322SOL    HW232800   5.773   0.491   0.700
10323SOL     OW32801   8.624   8.072   1.438
10323SOL    HW132802   8.578   8.039   1.515
10323SOL    HW232803   8.714   8.085   1.468
10324SOL     OW32804  12.183  11.064   6.606
10324SOL    HW132805  12.137  11.134   6.558
10324SOL    HW232806  12.271  11.065   6.569
10325SOL     OW32807  13.280   2.576   6.826
10325SOL    HW132808  13.314   2.551   6.912
10325SOL    HW232809  13.358   2.594   6.774
10326SOL     OW32810   9.678   8.008   2.045
10326SOL    HW132811   9.773   8.002   2.034
10326SOL    HW232812   9.666   8.024   2.139
10327SOL     OW32813  10.182  11.241   7.592
10327SOL    HW132814  10.262  11.209   7.634
10327SOL    HW232815  10.140  11.162   7.558
10328SOL     OW32816  11.055   4.918  12.867
10328SOL    HW132817  11.030   4.977  12.938
10328SOL    HW232818  11.112   4.854  12.908
10329SOL     OW32819   8.532   1.007  12.391
10329SOL    HW132820   8.507   1.063  12.465
10329SOL    HW232821   8.556   0.924  12.431
10330SOL     OW32822   2.753   3.338  12.408
10330SOL    HW132823   2.747   3.243  12.407
10330SOL    HW232824   2.663   3.368  12.418
10331SOL     OW32825   0.007   5.335   0.100
10331SOL    HW132826   0.011   5.377   0.185
10331SOL    HW232827   0.093   5.352   0.061
10332SOL     OW32828   0.660  12.960  14.269
10332SOL    HW132829   0.730  12.907  14.232
10332SOL    HW232830   0.673  13.047  14.231
10333SOL     OW32831   8.285   6.795  12.480
10333SOL    HW132832   8.329   6.790  12.395
10333SOL    HW232833   8.194   6.812  12.459
10334SOL     OW32834  14.852   1.209  14.662
10334SOL    HW132835  14.777   1.268  14.657
10334SOL    HW232836  14.825   1.140  14.723
10335SOL     OW32837   3.493   3.211   8.020
10335SOL    HW132838   3.431   3.244   7.955
10335SOL    HW232839   3.577   3.249   7.994
10336SOL     OW32840   4.228  10.672   0.519
10336SOL    HW132841   4.299  10.707   0.572
10336SOL    HW232842   4.213  10.738   0.452
10337SOL     OW32843   6.432   0.302   3.743
10337SOL    HW132844   6.510   0.352   3.716
10337SOL    HW232845   6.369   0.369   3.771
10338SOL     OW32846  10.017   8.484   7.005
10338SOL    HW132847  10.073   8.408   6.985
10338SOL    HW232848   9.977   8.507   6.921
10339SOL     OW32849   5.647   5.367   2.537
10339SOL    HW132850   5.578   5.409   2.485
10339SOL    HW232851   5.633   5.273   2.526
10340SOL     OW32852   1.216  11.019   9.399
10340SOL    HW132853   1.291  11.013   9.340
10340SOL    HW232854   1.141  11.027   9.341
10341SOL     OW32855   3.760  11.658   0.808
10341SOL    HW132856   3.754  11.685   0.717
10341SOL    HW232857   3.676  11.684   0.846
10342SOL     OW32858   4.236   7.636   4.777
10342SOL    HW132859   4.271   7.583   4.706
10342SOL    HW232860   4.238   7.726   4.744
10343SOL     OW32861  12.895   6.649  11.725
10343SOL    HW132862  12.961   6.682  11.786
10343SOL    HW232863  12.934   6.660  11.639
10344SOL     OW32864   8.458  11.363   9.909
10344SOL    HW132865   8.446  11.341   9.816
10344SOL    HW232866   8.375  11.403   9.935
10345SOL     OW32867   0.799   9.073   6.544
10345SOL    HW132868   0.820   8.981   6.529
10345SOL    HW232869   0.858   9.121   6.485
10346SOL     OW32870   3.313   1.087  11.439
10346SOL    HW132871   3.250   1.138  11.388
10346SOL    HW232872   3.333   1.141  11.515
10347SOL     OW32873   5.001  11.046   6.129
10347SOL    HW132874   5.060  11.057   6.203
10347SOL    HW232875   4.948  10.969   6.151
10348SOL     OW32876   5.159   6.200  14.608
10348SOL    HW132877   5.110   6.163  14.535
10348SOL    HW232878   5.112   6.280  14.631
10349SOL     OW32879  13.868  13.582   3.193
10349SOL    HW132880  13.784  13.556   3.230
10349SOL    HW232881  13.919  13.501   3.190
10350SOL     OW32882  11.192  14.442   1.185
10350SOL    HW132883  11.128  14.385   1.228
10350SOL    HW232884  11.267  14.385   1.168
10351SOL     OW32885   9.047   5.459  13.293
10351SOL    HW132886   9.105   5.456  13.369
10351SOL    HW232887   8.967   5.499  13.325
10352SOL     OW32888   7.346   7.704   5.498
10352SOL    HW132889   7.255   7.677   5.508
10352SOL    HW232890   7.352   7.736   5.408
10353SOL     OW32891   1.838  12.127  11.804
10353SOL    HW132892   1.901  12.057  11.786
10353SOL    HW232893   1.830  12.127  11.899
10354SOL     OW32894   1.526   5.580  12.306
10354SOL    HW132895   1.516   5.655  12.248
10354SOL    HW232896   1.596   5.528  12.265
10355SOL     OW32897   9.639  14.720   7.900
10355SOL    HW132898   9.684  14.669   7.833
10355SOL    HW232899   9.658  14.675   7.982
10356SOL     OW32900   5.590  12.476   6.864
10356SOL    HW132901   5.642  12.480   6.944
10356SOL    HW232902   5.583  12.383   6.844
10357SOL     OW32903   6.743   6.131   1.411
10357SOL    HW132904   6.775   6.049   1.373
10357SOL    HW232905   6.740   6.114   1.505
10358SOL     OW32906   1.662   4.089  11.510
10358SOL    HW132907   1.732   4.041  11.466
10358SOL    HW232908   1.703   4.124  11.589
10359SOL     OW32909  12.831   7.821   5.809
10359SOL    HW132910  12.919   7.841   5.778
10359SOL    HW232911  12.841   7.799   5.901
10360SOL     OW32912  12.624   4.657  12.861
10360SOL    HW132913  12.582   4.686  12.779
10360SOL    HW232914  12.587   4.570  12.877
10361SOL     OW32915  12.538   2.145   8.813
10361SOL    HW132916  12.464   2.203   8.795
10361SOL    HW232917  12.532   2.128   8.907
10362SOL     OW32918   9.524   2.983  12.895
10362SOL    HW132919   9.499   3.057  12.950
10362SOL    HW232920   9.469   2.910  12.925
10363SOL     OW32921   0.496   5.054  11.732
10363SOL    HW132922   0.562   4.987  11.745
10363SOL    HW232923   0.545   5.135  11.716
10364SOL     OW32924   4.425  12.694   0.017
10364SOL    HW132925   4.354  12.694   0.080
10364SOL    HW232926   4.503  12.716   0.068
10365SOL     OW32927  10.924   6.455   3.385
10365SOL    HW132928  10.995   6.510   3.419
10365SOL    HW232929  10.847   6.483   3.434
10366SOL     OW32930   6.577   2.730   8.713
10366SOL    HW132931   6.572   2.821   8.740
10366SOL    HW232932   6.605   2.733   8.622
10367SOL     OW32933   6.427  10.844   6.121
10367SOL    HW132934   6.390  10.840   6.033
10367SOL    HW232935   6.426  10.753   6.151
10368SOL     OW32936  12.023  10.276   5.484
10368SOL    HW132937  12.007  10.325   5.404
10368SOL    HW232938  12.031  10.184   5.456
10369SOL     OW32939   1.804   5.935  14.159
10369SOL    HW132940   1.895   5.950  14.183
10369SOL    HW232941   1.756   6.006  14.202
10370SOL     OW32942   3.763   0.862  12.652
10370SOL    HW132943   3.696   0.830  12.592
10370SOL    HW232944   3.714   0.893  12.729
10371SOL     OW32945   7.445  11.288  11.664
10371SOL    HW132946   7.434  11.193  11.673
10371SOL    HW232947   7.445  11.320  11.754
10372SOL     OW32948  14.464   6.016  10.498
10372SOL    HW132949  14.400   5.958  10.456
10372SOL    HW232950  14.420   6.047  10.576
10373SOL     OW32951   7.547   4.730  12.790
10373SOL    HW132952   7.477   4.758  12.849
10373SOL    HW232953   7.507   4.730  12.703
10374SOL     OW32954   9.193   4.399  10.740
10374SOL    HW132955   9.157   4.465  10.799
10374SOL    HW232956   9.133   4.399  10.665
10375SOL     OW32957   5.746   7.047  14.471
10375SOL    HW132958   5.830   7.090  14.488
10375SOL    HW232959   5.728   6.997  14.550
10376SOL     OW32960   4.923  10.927   6.459
10376SOL    HW132961   4.891  10.871   6.530
10376SOL    HW232962   4.997  10.879   6.423
10377SOL     OW32963  12.135   3.722  13.833
10377SOL    HW132964  12.107   3.666  13.761
10377SOL    HW232965  12.064   3.717  13.897
10378SOL     OW32966   8.063  11.578  13.222
10378SOL    HW132967   7.991  11.555  13.281
10378SOL    HW232968   8.071  11.673  13.231
10379SOL     OW32969  12.167   0.421   3.104
10379SOL    HW132970  12.208   0.395   3.021
10379SOL    HW232971  12.156   0.338   3.151
10380SOL     OW32972  13.951  10.006  14.400
10380SOL    HW132973  13.892  10.077  14.374
10380SOL    HW232974  13.952  10.008  14.495
10381SOL     OW32975   8.671   4.697   7.975
10381SOL    HW132976   8.730   4.684   7.901
10381SOL    HW232977   8.586   4.713   7.934
10382SOL     OW32978   0.872   0.728   7.239
10382SOL    HW132979   0.958   0.707   7.276
10382SOL    HW232980   0.890   0.750   7.148
10383SOL     OW32981  10.996  14.009   7.695
10383SOL    HW132982  11.040  14.072   7.753
10383SOL    HW232983  11.047  14.012   7.614
10384SOL     OW32984  11.623   2.606  12.104
10384SOL    HW132985  11.560   2.552  12.057
10384SOL    HW232986  11.591   2.696  12.093
10385SOL     OW32987   5.889   9.569   1.421
10385SOL    HW132988   5.845   9.652   1.402
10385SOL    HW232989   5.907   9.572   1.515
10386SOL     OW32990  12.933   9.784   2.963
10386SOL    HW132991  13.013   9.763   2.914
10386SOL    HW232992  12.946   9.745   3.049
10387SOL     OW32993  13.642   1.044  12.838
10387SOL    HW132994  13.622   1.137  12.853
10387SOL    HW232995  13.645   1.006  12.925
10388SOL     OW32996  10.837   1.508   9.491
10388SOL    HW132997  10.749   1.513   9.528
10388SOL    HW232998  10.895   1.510   9.566
10389SOL     OW32999   6.966   0.968   3.817
10389SOL    HW133000   7.003   1.022   3.887
10389SOL    HW233001   7.042   0.934   3.770
10390SOL     OW33002   8.808  12.249   4.041
10390SOL    HW133003   8.755  12.284   3.969
10390SOL    HW233004   8.817  12.321   4.103
10391SOL     OW33005  13.479   7.466   0.903
10391SOL    HW133006  13.544   7.440   0.839
10391SOL    HW233007  13.526   7.523   0.964
10392SOL     OW33008  10.491   3.003   8.744
10392SOL    HW133009  10.569   3.029   8.695
10392SOL    HW233010  10.462   3.083   8.787
10393SOL     OW33011   2.915  12.948   2.486
10393SOL    HW133012   2.865  12.957   2.567
10393SOL    HW233013   2.999  12.990   2.504
10394SOL     OW33014   4.581  14.513   4.760
10394SOL    HW133015   4.599  14.429   4.802
10394SOL    HW233016   4.602  14.578   4.826
10395SOL     OW33017   2.728   7.252   5.679
10395SOL    HW133018   2.645   7.227   5.719
10395SOL    HW233019   2.776   7.170   5.669
10396SOL     OW33020   1.980   7.843   2.858
10396SOL    HW133021   1.933   7.769   2.896
10396SOL    HW233022   1.912   7.897   2.818
10397SOL     OW33023  13.335   3.029  14.214
10397SOL    HW133024  13.372   2.987  14.136
10397SOL    HW233025  13.327   2.958  14.278
10398SOL     OW33026   8.457   4.440   1.667
10398SOL    HW133027   8.426   4.385   1.595
10398SOL    HW233028   8.388   4.505   1.679
10399SOL     OW33029  10.102  13.048   6.953
10399SOL    HW133030  10.083  13.139   6.976
10399SOL    HW233031  10.171  13.021   7.014
10400SOL     OW33032  14.498   9.607   1.142
10400SOL    HW133033  14.566   9.630   1.205
10400SOL    HW233034  14.417   9.636   1.183
10401SOL     OW33035  11.060   1.896   4.428
10401SOL    HW133036  11.062   1.952   4.506
10401SOL    HW233037  11.150   1.863   4.421
10402SOL     OW33038   6.792   7.514   1.175
10402SOL    HW133039   6.781   7.425   1.210
10402SOL    HW233040   6.720   7.564   1.213
10403SOL     OW33041   8.939  14.140   4.198
10403SOL    HW133042   8.867  14.194   4.229
10403SOL    HW233043   8.901  14.053   4.186
10404SOL     OW33044   2.037   4.196  12.203
10404SOL    HW133045   1.994   4.123  12.249
10404SOL    HW233046   2.117   4.157  12.167
10405SOL     OW33047   9.665  13.126   8.370
10405SOL    HW133048   9.606  13.189   8.411
10405SOL    HW233049   9.742  13.179   8.346
10406SOL     OW33050  11.315   7.755   3.881
10406SOL    HW133051  11.232   7.708   3.890
10406SOL    HW233052  11.295   7.829   3.824
10407SOL     OW33053   3.016  10.823   3.603
10407SOL    HW133054   2.967  10.766   3.544
10407SOL    HW233055   3.005  10.782   3.689
10408SOL     OW33056   5.942   0.060   7.800
10408SOL    HW133057   5.905   0.034   7.715
10408SOL    HW233058   5.866   0.086   7.852
10409SOL     OW33059  10.524   6.091   4.782
10409SOL    HW133060  10.488   6.010   4.746
10409SOL    HW233061  10.461   6.118   4.849
10410SOL     OW33062  10.085   7.882  11.920
10410SOL    HW133063  10.123   7.844  11.841
10410SOL    HW233064  10.018   7.819  11.947
10411SOL     OW33065  14.740  13.204  12.669
10411SOL    HW133066  14.670  13.162  12.717
10411SOL    HW233067  14.700  13.283  12.633
10412SOL     OW33068   6.495   9.312  13.335
10412SOL    HW133069   6.430   9.359  13.387
10412SOL    HW233070   6.569   9.372  13.329
10413SOL     OW33071   4.716   4.677   2.573
10413SOL    HW133072   4.688   4.594   2.612
10413SOL    HW233073   4.761   4.723   2.644
10414SOL     OW33074  13.072  11.774   7.122
10414SOL    HW133075  13.003  11.816   7.173
10414SOL    HW233076  13.070  11.820   7.038
10415SOL     OW33077   3.271   3.953   7.696
10415SOL    HW133078   3.236   3.922   7.612
10415SOL    HW233079   3.218   4.030   7.717
10416SOL     OW33080   5.572   1.058  14.172
10416SOL    HW133081   5.484   1.074  14.137
10416SOL    HW233082   5.612   1.145  14.177
10417SOL     OW33083   6.497   2.096   0.636
10417SOL    HW133084   6.441   2.143   0.575
10417SOL    HW233085   6.449   2.095   0.718
10418SOL     OW33086   0.384  13.545  10.705
10418SOL    HW133087   0.370  13.527  10.798
10418SOL    HW233088   0.468  13.591  10.702
10419SOL     OW33089  11.879  14.732   8.747
10419SOL    HW133090  11.788  14.717   8.775
10419SOL    HW233091  11.903  14.650   8.703
10420SOL     OW33092   5.467  11.610   7.526
10420SOL    HW133093   5.446  11.685   7.583
10420SOL    HW233094   5.408  11.620   7.451
10421SOL     OW33095  11.621   7.872   9.952
10421SOL    HW133096  11.527   7.883   9.938
10421SOL    HW233097  11.630   7.781   9.981
10422SOL     OW33098   2.197   5.094   7.875
10422SOL    HW133099   2.228   5.161   7.936
10422SOL    HW233100   2.134   5.042   7.926
10423SOL     OW33101   2.344  11.054   8.851
10423SOL    HW133102   2.348  11.034   8.758
10423SOL    HW233103   2.302  11.140   8.855
10424SOL     OW33104   4.987   7.659   4.362
10424SOL    HW133105   4.936   7.593   4.409
10424SOL    HW233106   5.074   7.655   4.402
10425SOL     OW33107   6.473   7.676   7.024
10425SOL    HW133108   6.550   7.680   7.081
10425SOL    HW233109   6.455   7.767   7.001
10426SOL     OW33110   1.461  12.526   0.963
10426SOL    HW133111   1.450  12.621   0.961
10426SOL    HW233112   1.504  12.505   0.879
10427SOL     OW33113   2.438  10.097   9.088
10427SOL    HW133114   2.517  10.150   9.090
10427SOL    HW233115   2.413  10.094   8.995
10428SOL     OW33116   4.812  11.877   5.057
10428SOL    HW133117   4.877  11.934   5.098
10428SOL    HW233118   4.732  11.930   5.055
10429SOL     OW33119   5.424   3.799  11.655
10429SOL    HW133120   5.385   3.728  11.605
10429SOL    HW233121   5.453   3.758  11.737
10430SOL     OW33122   1.912  11.909  10.703
10430SOL    HW133123   1.904  11.918  10.797
10430SOL    HW233124   1.979  11.842  10.691
10431SOL     OW33125   7.053   6.691   4.191
10431SOL    HW133126   7.085   6.769   4.145
10431SOL    HW233127   7.083   6.702   4.281
10432SOL     OW33128   4.518   4.751   7.328
10432SOL    HW133129   4.549   4.663   7.306
10432SOL    HW233130   4.597   4.805   7.330
10433SOL     OW33131  10.016  11.634   5.920
10433SOL    HW133132   9.924  11.631   5.895
10433SOL    HW233133  10.062  11.658   5.840
10434SOL     OW33134   1.668  12.181   8.594
10434SOL    HW133135   1.604  12.211   8.659
10434SOL    HW233136   1.752  12.187   8.639
10435SOL     OW33137   6.594   9.670   5.532
10435SOL    HW133138   6.530   9.632   5.593
10435SOL    HW233139   6.560   9.649   5.445
10436SOL     OW33140   4.792  13.998   2.976
10436SOL    HW133141   4.758  14.059   3.041
10436SOL    HW233142   4.719  13.984   2.916
10437SOL     OW33143   1.736  10.614   5.107
10437SOL    HW133144   1.719  10.578   5.020
10437SOL    HW233145   1.696  10.702   5.105
10438SOL     OW33146  10.313   2.235  10.855
10438SOL    HW133147  10.261   2.273  10.784
10438SOL    HW233148  10.256   2.238  10.932
10439SOL     OW33149   8.232  10.281   9.455
10439SOL    HW133150   8.267  10.226   9.525
10439SOL    HW233151   8.139  10.260   9.453
10440SOL     OW33152   1.028  13.798   1.988
10440SOL    HW133153   1.087  13.747   1.933
10440SOL    HW233154   1.086  13.841   2.051
10441SOL     OW33155  12.042   7.995  11.808
10441SOL    HW133156  12.135   8.014  11.811
10441SOL    HW233157  12.033   7.911  11.852
10442SOL     OW33158   9.587  12.832   8.359
10442SOL    HW133159   9.619  12.918   8.331
10442SOL    HW233160   9.497  12.847   8.386
10443SOL     OW33161   8.858   0.647  12.394
10443SOL    HW133162   8.836   0.659  12.486
10443SOL    HW233163   8.905   0.564  12.391
10444SOL     OW33164   3.459   8.443   5.720
10444SOL    HW133165   3.546   8.479   5.737
10444SOL    HW233166   3.404   8.478   5.790
10445SOL     OW33167  10.928  13.444  13.337
10445SOL    HW133168  10.903  13.352  13.342
10445SOL    HW233169  10.848  13.489  13.312
10446SOL     OW33170   7.798   3.597   2.092
10446SOL    HW133171   7.846   3.610   2.011
10446SOL    HW233172   7.789   3.685   2.129
10447SOL     OW33173   6.196  13.055  11.019
10447SOL    HW133174   6.288  13.035  11.032
10447SOL    HW233175   6.162  12.980  10.970
10448SOL     OW33176   0.160  13.159   3.896
10448SOL    HW133177   0.250  13.189   3.894
10448SOL    HW233178   0.116  13.210   3.828
10449SOL     OW33179   5.819   8.039   6.124
10449SOL    HW133180   5.807   7.963   6.181
10449SOL    HW233181   5.904   8.024   6.082
10450SOL     OW33182  12.330   2.385  12.733
10450SOL    HW133183  12.315   2.479  12.741
10450SOL    HW233184  12.402   2.376  12.671
10451SOL     OW33185  14.498   3.868   3.455
10451SOL    HW133186  14.406   3.843   3.459
10451SOL    HW233187  14.505   3.939   3.520
10452SOL     OW33188   0.747  14.022   5.359
10452SOL    HW133189   0.792  14.072   5.427
10452SOL    HW233190   0.799  14.037   5.280
10453SOL     OW33191   5.408   6.661  13.878
10453SOL    HW133192   5.476   6.710  13.925
10453SOL    HW233193   5.327   6.709  13.898
10454SOL     OW33194   5.519   5.373   3.787
10454SOL    HW133195   5.588   5.316   3.822
10454SOL    HW233196   5.539   5.380   3.694
10455SOL     OW33197  13.966  13.959   2.668
10455SOL    HW133198  14.000  13.880   2.710
10455SOL    HW233199  13.874  13.963   2.695
10456SOL     OW33200  13.060   3.319   7.783
10456SOL    HW133201  13.048   3.374   7.860
10456SOL    HW233202  13.048   3.230   7.816
10457SOL     OW33203   1.788   9.978  13.057
10457SOL    HW133204   1.878  10.009  13.067
10457SOL    HW233205   1.734  10.057  13.069
10458SOL     OW33206  12.091   2.370  13.418
10458SOL    HW133207  12.174   2.365  13.464
10458SOL    HW233208  12.081   2.462  13.395
10459SOL     OW33209   2.793   1.781   3.351
10459SOL    HW133210   2.729   1.728   3.304
10459SOL    HW233211   2.878   1.751   3.319
10460SOL     OW33212   3.711   2.756   1.444
10460SOL    HW133213   3.743   2.715   1.524
10460SOL    HW233214   3.790   2.773   1.393
10461SOL     OW33215  10.543  10.973   7.044
10461SOL    HW133216  10.636  10.980   7.021
10461SOL    HW233217  10.497  10.973   6.960
10462SOL     OW33218   5.353   5.893  10.815
10462SOL    HW133219   5.325   5.805  10.841
10462SOL    HW233220   5.445   5.898  10.841
10463SOL     OW33221  13.604   2.964  12.255
10463SOL    HW133222  13.518   2.922  12.247
10463SOL    HW233223  13.627   2.955  12.347
10464SOL     OW33224   0.390   9.196   9.067
10464SOL    HW133225   0.458   9.259   9.089
10464SOL    HW233226   0.337   9.188   9.147
10465SOL     OW33227  13.413  13.568   4.482
10465SOL    HW133228  13.460  13.597   4.560
10465SOL    HW233229  13.379  13.481   4.505
10466SOL     OW33230   5.207   4.892   3.213
10466SOL    HW133231   5.163   4.845   3.142
10466SOL    HW233232   5.164   4.862   3.293
10467SOL     OW33233  11.163   9.598  14.543
10467SOL    HW133234  11.208   9.513  14.547
10467SOL    HW233235  11.234   9.662  14.539
10468SOL     OW33236   9.662  11.730   7.363
10468SOL    HW133237   9.578  11.684   7.371
10468SOL    HW233238   9.722  11.680   7.418
10469SOL     OW33239   7.205  12.027   4.366
10469SOL    HW133240   7.119  12.060   4.341
10469SOL    HW233241   7.187  11.968   4.440
10470SOL     OW33242   9.154  13.616  13.429
10470SOL    HW133243   9.101  13.542  13.401
10470SOL    HW233244   9.144  13.681  13.360
10471SOL     OW33245  11.791   6.563  10.226
10471SOL    HW133246  11.869   6.534  10.179
10471SOL    HW233247  11.819   6.642  10.272
10472SOL     OW33248  10.532   4.921  11.597
10472SOL    HW133249  10.623   4.950  11.602
10472SOL    HW233250  10.482   4.994  11.633
10473SOL     OW33251   8.314   5.238  14.366
10473SOL    HW133252   8.228   5.265  14.398
10473SOL    HW233253   8.311   5.255  14.272
10474SOL     OW33254   4.404   9.823   6.739
10474SOL    HW133255   4.464   9.759   6.699
10474SOL    HW233256   4.459   9.871   6.801
10475SOL     OW33257  11.884   6.655   7.029
10475SOL    HW133258  11.847   6.574   7.066
10475SOL    HW233259  11.927   6.627   6.948
10476SOL     OW33260  12.366   8.868  12.209
10476SOL    HW133261  12.419   8.889  12.286
10476SOL    HW233262  12.394   8.780  12.184
10477SOL     OW33263  13.385   9.589   9.489
10477SOL    HW133264  13.291   9.579   9.471
10477SOL    HW233265  13.394   9.569   9.582
10478SOL     OW33266   5.763   8.481  13.964
10478SOL    HW133267   5.831   8.540  13.932
10478SOL    HW233268   5.747   8.421  13.892
10479SOL     OW33269   0.835  11.689   6.176
10479SOL    HW133270   0.805  11.779   6.188
10479SOL    HW233271   0.863  11.662   6.264
10480SOL     OW33272   5.644  12.365   2.593
10480SOL    HW133273   5.691  12.314   2.527
10480SOL    HW233274   5.698  12.359   2.671
10481SOL     OW33275  12.755   1.565   8.842
10481SOL    HW133276  12.765   1.615   8.761
10481SOL    HW233277  12.840   1.522   8.853
10482SOL     OW33278  13.010  10.776  12.260
10482SOL    HW133279  12.924  10.742  12.234
10482SOL    HW233280  12.992  10.837  12.331
10483SOL     OW33281   2.480  10.254  13.698
10483SOL    HW133282   2.396  10.216  13.675
10483SOL    HW233283   2.462  10.312  13.772
10484SOL     OW33284   0.932   6.887   2.773
10484SOL    HW133285   0.862   6.946   2.802
10484SOL    HW233286   0.992   6.943   2.724
10485SOL     OW33287  11.276   8.967   3.981
10485SOL    HW133288  11.323   9.043   4.017
10485SOL    HW233289  11.223   8.935   4.054
10486SOL     OW33290   4.508   6.106  13.292
10486SOL    HW133291   4.558   6.033  13.325
10486SOL    HW233292   4.537   6.181  13.343
10487SOL     OW33293   2.547   8.654  10.276
10487SOL    HW133294   2.547   8.680  10.368
10487SOL    HW233295   2.610   8.582  10.271
10488SOL     OW33296  14.788   0.894   5.441
10488SOL    HW133297  14.826   0.894   5.353
10488SOL    HW233298  14.847   0.949   5.492
10489SOL     OW33299   2.822   5.647  14.475
10489SOL    HW133300   2.843   5.568  14.425
10489SOL    HW233301   2.862   5.718  14.425
10490SOL     OW33302   8.259  13.842  13.806
10490SOL    HW133303   8.256  13.766  13.747
10490SOL    HW233304   8.324  13.900  13.767
10491SOL     OW33305  10.555   5.866   0.633
10491SOL    HW133306  10.626   5.905   0.581
10491SOL    HW233307  10.542   5.779   0.595
10492SOL     OW33308  14.771  11.402  14.280
10492SOL    HW133309  14.799  11.342  14.211
10492SOL    HW233310  14.829  11.382  14.354
10493SOL     OW33311  14.189   4.692   7.397
10493SOL    HW133312  14.271   4.650   7.374
10493SOL    HW233313  14.171   4.750   7.323
10494SOL     OW33314   9.171  12.172   6.627
10494SOL    HW133315   9.195  12.195   6.717
10494SOL    HW233316   9.089  12.124   6.636
10495SOL     OW33317  12.080  11.155   8.436
10495SOL    HW133318  12.034  11.137   8.355
10495SOL    HW233319  12.126  11.074   8.457
10496SOL     OW33320   4.018   6.471   9.270
10496SOL    HW133321   3.951   6.447   9.334
10496SOL    HW233322   3.999   6.562   9.249
10497SOL     OW33323  14.280   3.395  14.808
10497SOL    HW133324  14.291   3.400  14.713
10497SOL    HW233325  14.273   3.301  14.827
10498SOL     OW33326   0.355   9.864  13.016
10498SOL    HW133327   0.347   9.894  12.925
10498SOL    HW233328   0.315   9.777  13.016
10499SOL     OW33329  13.728   7.325   3.655
10499SOL    HW133330  13.634   7.334   3.669
10499SOL    HW233331  13.745   7.231   3.665
10500SOL     OW33332  13.061   7.701  12.063
10500SOL    HW133333  13.135   7.679  12.007
10500SOL    HW233334  12.985   7.664  12.020
10501SOL     OW33335  13.571   0.633  14.325
10501SOL    HW133336  13.614   0.682  14.395
10501SOL    HW233337  13.551   0.548  14.364
10502SOL     OW33338   4.325  13.632   7.733
10502SOL    HW133339   4.339  13.567   7.801
10502SOL    HW233340   4.233  13.622   7.708
10503SOL     OW33341  11.916   2.411   6.653
10503SOL    HW133342  11.993   2.467   6.662
10503SOL    HW233343  11.842   2.469   6.669
10504SOL     OW33344   4.103   6.075   2.139
10504SOL    HW133345   4.016   6.043   2.116
10504SOL    HW233346   4.089   6.138   2.209
10505SOL     OW33347   3.685   2.819  13.394
10505SOL    HW133348   3.771   2.829  13.353
10505SOL    HW233349   3.651   2.737  13.358
10506SOL     OW33350   1.074   5.905   6.212
10506SOL    HW133351   1.129   5.890   6.289
10506SOL    HW233352   1.004   5.840   6.220
10507SOL     OW33353  14.507  12.471   7.832
10507SOL    HW133354  14.446  12.542   7.848
10507SOL    HW233355  14.510  12.464   7.736
10508SOL     OW33356   1.795  10.627  14.220
10508SOL    HW133357   1.841  10.575  14.154
10508SOL    HW233358   1.793  10.571  14.297
10509SOL     OW33359   3.952   0.412   4.584
10509SOL    HW133360   3.890   0.481   4.560
10509SOL    HW233361   3.961   0.360   4.505
10510SOL     OW33362   5.682   6.579   6.733
10510SOL    HW133363   5.636   6.527   6.668
10510SOL    HW233364   5.621   6.586   6.806
10511SOL     OW33365   8.041  13.190  13.569
10511SOL    HW133366   8.045  13.223  13.479
10511SOL    HW233367   8.106  13.121  13.572
10512SOL     OW33368   6.358   1.125   5.523
10512SOL    HW133369   6.322   1.079   5.447
10512SOL    HW233370   6.328   1.216   5.512
10513SOL     OW33371   1.318  14.766   2.549
10513SOL    HW133372   1.410  14.774   2.522
10513SOL    HW233373   1.298  14.852   2.587
10514SOL     OW33374  13.027   9.556   9.054
10514SOL    HW133375  13.005   9.499   8.981
10514SOL    HW233376  13.105   9.604   9.025
10515SOL     OW33377   6.215   3.783  11.340
10515SOL    HW133378   6.209   3.742  11.253
10515SOL    HW233379   6.228   3.710  11.400
10516SOL     OW33380  12.040   2.973  12.693
10516SOL    HW133381  11.980   2.998  12.624
10516SOL    HW233382  11.989   2.915  12.750
10517SOL     OW33383   4.516  13.866   4.682
10517SOL    HW133384   4.427  13.833   4.672
10517SOL    HW233385   4.509  13.936   4.748
10518SOL     OW33386   3.099   1.106  10.668
10518SOL    HW133387   3.119   1.028  10.616
10518SOL    HW233388   3.185   1.143  10.690
10519SOL     OW33389   3.067   1.207   1.768
10519SOL    HW133390   3.048   1.132   1.711
10519SOL    HW233391   3.160   1.198   1.789
10520SOL     OW33392   2.125  11.494   1.205
10520SOL    HW133393   2.051  11.535   1.249
10520SOL    HW233394   2.172  11.567   1.165
10521SOL     OW33395   6.591   9.219  12.345
10521SOL    HW133396   6.645   9.166  12.404
10521SOL    HW233397   6.569   9.297  12.396
10522SOL     OW33398   4.295   9.930  13.575
10522SOL    HW133399   4.358   9.926  13.503
10522SOL    HW233400   4.223   9.873  13.546
10523SOL     OW33401   5.045  13.493   7.022
10523SOL    HW133402   4.951  13.478   7.017
10523SOL    HW233403   5.053  13.575   7.072
10524SOL     OW33404   9.621   3.210   2.002
10524SOL    HW133405   9.709   3.171   2.002
10524SOL    HW233406   9.622   3.271   1.928
10525SOL     OW33407   6.303   7.524   8.497
10525SOL    HW133408   6.221   7.569   8.473
10525SOL    HW233409   6.316   7.546   8.589
10526SOL     OW33410   7.094  13.361   8.058
10526SOL    HW133411   7.074  13.413   7.981
10526SOL    HW233412   7.169  13.308   8.033
10527SOL     OW33413  13.851   8.762   8.926
10527SOL    HW133414  13.855   8.717   8.842
10527SOL    HW233415  13.758   8.761   8.950
10528SOL     OW33416   3.760   8.078   1.377
10528SOL    HW133417   3.833   8.018   1.391
10528SOL    HW233418   3.758   8.091   1.282
10529SOL     OW33419  12.838   3.353   9.042
10529SOL    HW133420  12.857   3.442   9.015
10529SOL    HW233421  12.893   3.339   9.120
10530SOL     OW33422   5.993   0.937  11.984
10530SOL    HW133423   5.918   0.911  11.930
10530SOL    HW233424   5.966   1.018  12.026
10531SOL     OW33425   1.975   7.612   7.996
10531SOL    HW133426   1.912   7.556   7.950
10531SOL    HW233427   2.026   7.652   7.926
10532SOL     OW33428  11.911   0.010   3.860
10532SOL    HW133429  11.884  14.807   3.820
10532SOL    HW233430  11.831   0.045   3.901
10533SOL     OW33431   0.665  11.291  10.394
10533SOL    HW133432   0.736  11.353  10.410
10533SOL    HW233433   0.622  11.281  10.479
10534SOL     OW33434   2.294   9.532  11.206
10534SOL    HW133435   2.229   9.464  11.195
10534SOL    HW233436   2.378   9.487  11.194
10535SOL     OW33437  12.321   6.195   5.148
10535SOL    HW133438  12.229   6.192   5.174
10535SOL    HW233439  12.369   6.173   5.227
10536SOL     OW33440   2.508  14.613   7.054
10536SOL    HW133441   2.553  14.577   7.131
10536SOL    HW233442   2.457  14.540   7.019
10537SOL     OW33443   4.769  14.439  14.282
10537SOL    HW133444   4.687  14.393  14.270
10537SOL    HW233445   4.787  14.478  14.196
10538SOL     OW33446  10.623  14.658   4.867
10538SOL    HW133447  10.699  14.614   4.828
10538SOL    HW233448  10.597  14.724   4.804
10539SOL     OW33449  14.783  10.247   7.976
10539SOL    HW133450  14.855  10.249   7.912
10539SOL    HW233451  14.727  10.175   7.947
10540SOL     OW33452   8.874   3.340  10.322
10540SOL    HW133453   8.806   3.301  10.377
10540SOL    HW233454   8.849   3.317  10.232
10541SOL     OW33455   0.934   7.836  11.360
10541SOL    HW133456   0.975   7.751  11.378
10541SOL    HW233457   0.865   7.843  11.425
10542SOL     OW33458   4.583   2.748   7.035
10542SOL    HW133459   4.556   2.657   7.050
10542SOL    HW233460   4.510   2.800   7.068
10543SOL     OW33461  11.546   1.594   3.959
10543SOL    HW133462  11.586   1.678   3.934
10543SOL    HW233463  11.529   1.550   3.876
10544SOL     OW33464  12.223  12.944   8.004
10544SOL    HW133465  12.159  12.916   8.069
10544SOL    HW233466  12.308  12.918   8.041
10545SOL     OW33467  10.562   9.275   9.787
10545SOL    HW133468  10.637   9.234   9.830
10545SOL    HW233469  10.539   9.348   9.844
10546SOL     OW33470   8.931  12.132   5.188
10546SOL    HW133471   8.865  12.201   5.193
10546SOL    HW233472   8.883  12.051   5.203
10547SOL     OW33473   3.723  11.875  12.896
10547SOL    HW133474   3.811  11.866  12.935
10547SOL    HW233475   3.702  11.787  12.864
10548SOL     OW33476   9.704   5.329   9.273
10548SOL    HW133477   9.698   5.288   9.186
10548SOL    HW233478   9.755   5.408   9.258
10549SOL     OW33479  13.580   6.141   3.755
10549SOL    HW133480  13.576   6.223   3.706
10549SOL    HW233481  13.558   6.165   3.845
10550SOL     OW33482   0.696  13.442   2.496
10550SOL    HW133483   0.743  13.509   2.544
10550SOL    HW233484   0.611  13.436   2.540
10551SOL     OW33485   8.144   5.898   5.753
10551SOL    HW133486   8.097   5.976   5.724
10551SOL    HW233487   8.173   5.856   5.672
10552SOL     OW33488   5.398  11.913   5.126
10552SOL    HW133489   5.344  11.887   5.052
10552SOL    HW233490   5.337  11.921   5.199
10553SOL     OW33491  12.582   6.171   8.760
10553SOL    HW133492  12.620   6.112   8.694
10553SOL    HW233493  12.512   6.216   8.714
10554SOL     OW33494   2.031   5.029   2.982
10554SOL    HW133495   1.971   4.988   2.919
10554SOL    HW233496   2.100   5.066   2.927
10555SOL     OW33497   6.431  13.832   4.196
10555SOL    HW133498   6.366  13.863   4.133
10555SOL    HW233499   6.381  13.817   4.276
10556SOL     OW33500   8.031  12.414   9.940
10556SOL    HW133501   8.072  12.462   9.868
10556SOL    HW233502   7.937  12.418   9.921
10557SOL     OW33503   1.957   1.812  12.207
10557SOL    HW133504   1.881   1.813  12.149
10557SOL    HW233505   2.015   1.880  12.172
10558SOL     OW33506   4.448  12.863   9.101
10558SOL    HW133507   4.388  12.789   9.111
10558SOL    HW233508   4.533  12.828   9.130
10559SOL     OW33509   6.638   9.100   1.012
10559SOL    HW133510   6.639   9.075   1.104
10559SOL    HW233511   6.565   9.161   1.004
10560SOL     OW33512   1.772   0.649   1.905
10560SOL    HW133513   1.856   0.682   1.875
10560SOL    HW233514   1.787   0.556   1.922
10561SOL     OW33515   2.159   6.796   6.795
10561SOL    HW133516   2.069   6.782   6.764
10561SOL    HW233517   2.169   6.891   6.796
10562SOL     OW33518  11.257   2.834  14.875
10562SOL    HW133519  11.282   2.781  14.799
10562SOL    HW233520  11.337   2.837   0.050
10563SOL     OW33521   4.723  10.256   1.893
10563SOL    HW133522   4.662  10.198   1.939
10563SOL    HW233523   4.807  10.243   1.938
10564SOL     OW33524   2.047   0.418   1.661
10564SOL    HW133525   2.082   0.389   1.745
10564SOL    HW233526   1.963   0.372   1.653
10565SOL     OW33527  14.652   3.643   0.334
10565SOL    HW133528  14.651   3.549   0.319
10565SOL    HW233529  14.560   3.669   0.326
10566SOL     OW33530   8.836   5.504  12.294
10566SOL    HW133531   8.752   5.549  12.304
10566SOL    HW233532   8.901   5.574  12.301
10567SOL     OW33533  14.067   5.746  10.836
10567SOL    HW133534  14.024   5.760  10.752
10567SOL    HW233535  14.046   5.824  10.888
10568SOL     OW33536   7.912   7.239   6.721
10568SOL    HW133537   7.919   7.320   6.772
10568SOL    HW233538   7.861   7.264   6.644
10569SOL     OW33539   2.072  12.520   4.577
10569SOL    HW133540   2.099  12.611   4.582
10569SOL    HW233541   2.115  12.486   4.499
10570SOL     OW33542  12.306   6.301   1.693
10570SOL    HW133543  12.377   6.320   1.754
10570SOL    HW233544  12.349   6.286   1.610
10571SOL     OW33545  10.605   7.132   0.487
10571SOL    HW133546  10.565   7.203   0.538
10571SOL    HW233547  10.567   7.142   0.399
10572SOL     OW33548   6.441  14.318  13.044
10572SOL    HW133549   6.433  14.281  12.956
10572SOL    HW233550   6.364  14.374  13.053
10573SOL     OW33551  12.738  10.695   7.006
10573SOL    HW133552  12.783  10.692   7.091
10573SOL    HW233553  12.758  10.782   6.971
10574SOL     OW33554  13.499   9.499   1.802
10574SOL    HW133555  13.586   9.531   1.824
10574SOL    HW233556  13.509   9.404   1.796
10575SOL     OW33557  14.031   2.660   8.864
10575SOL    HW133558  14.035   2.592   8.932
10575SOL    HW233559  13.944   2.699   8.874
10576SOL     OW33560   1.342   1.596   1.346
10576SOL    HW133561   1.423   1.640   1.372
10576SOL    HW233562   1.278   1.666   1.339
10577SOL     OW33563  14.567   5.925   8.900
10577SOL    HW133564  14.582   5.886   8.986
10577SOL    HW233565  14.570   6.019   8.916
10578SOL     OW33566   2.668   7.994   8.238
10578SOL    HW133567   2.738   7.976   8.175
10578SOL    HW233568   2.602   7.928   8.220
10579SOL     OW33569   4.846   1.822   1.020
10579SOL    HW133570   4.860   1.776   1.103
10579SOL    HW233571   4.767   1.782   0.984
10580SOL     OW33572  12.512   8.821   9.539
10580SOL    HW133573  12.505   8.736   9.497
10580SOL    HW233574  12.581   8.811   9.605
10581SOL     OW33575   7.689  11.246   4.573
10581SOL    HW133576   7.779  11.212   4.576
10581SOL    HW233577   7.641  11.182   4.520
10582SOL     OW33578   5.918   7.906  14.372
10582SOL    HW133579   5.940   7.993  14.406
10582SOL    HW233580   6.002   7.860  14.367
10583SOL     OW33581   0.964  10.500   9.149
10583SOL    HW133582   1.018  10.446   9.206
10583SOL    HW233583   1.021  10.522   9.076
10584SOL     OW33584  13.670   2.556  11.295
10584SOL    HW133585  13.608   2.627  11.277
10584SOL    HW233586  13.647   2.526  11.384
10585SOL     OW33587   8.838   3.093   5.826
10585SOL    HW133588   8.881   3.008   5.837
10585SOL    HW233589   8.758   3.073   5.777
10586SOL     OW33590  10.055  14.146  12.748
10586SOL    HW133591  10.033  14.238  12.762
10586SOL    HW233592  10.029  14.129  12.658
10587SOL     OW33593  11.640  13.898   2.376
10587SOL    HW133594  11.652  13.992   2.392
10587SOL    HW233595  11.651  13.889   2.281
10588SOL     OW33596   0.131   8.302   5.168
10588SOL    HW133597   0.087   8.284   5.085
10588SOL    HW233598   0.129   8.219   5.215
10589SOL     OW33599  12.836  11.787  12.849
10589SOL    HW133600  12.812  11.860  12.906
10589SOL    HW233601  12.767  11.722  12.863
10590SOL     OW33602   4.042  12.740   3.057
10590SOL    HW133603   3.968  12.744   2.996
10590SOL    HW233604   4.064  12.647   3.061
10591SOL     OW33605   3.126  14.220  12.058
10591SOL    HW133606   3.136  14.315  12.045
10591SOL    HW233607   3.066  14.194  11.988
10592SOL     OW33608   5.688   4.900   5.844
10592SOL    HW133609   5.717   4.893   5.935
10592SOL    HW233610   5.594   4.920   5.850
10593SOL     OW33611  14.528  11.324   6.005
10593SOL    HW133612  14.608  11.375   5.994
10593SOL    HW233613  14.529  11.262   5.932
10594SOL     OW33614   9.842  11.954   4.915
10594SOL    HW133615   9.800  11.918   4.994
10594SOL    HW233616   9.931  11.921   4.919
10595SOL     OW33617   7.876   1.690   4.325
10595SOL    HW133618   7.885   1.744   4.404
10595SOL    HW233619   7.951   1.714   4.271
10596SOL     OW33620   4.799   7.244   3.002
10596SOL    HW133621   4.829   7.331   2.975
10596SOL    HW233622   4.824   7.187   2.929
10597SOL     OW33623   3.626  10.500   5.210
10597SOL    HW133624   3.706  10.535   5.171
10597SOL    HW233625   3.557  10.519   5.146
10598SOL     OW33626   0.932  11.046  10.329
10598SOL    HW133627   1.010  11.040  10.275
10598SOL    HW233628   0.934  11.135  10.364
10599SOL     OW33629   1.221  13.219  10.228
10599SOL    HW133630   1.168  13.286  10.186
10599SOL    HW233631   1.175  13.137  10.211
10600SOL     OW33632  14.543   0.010   4.720
10600SOL    HW133633  14.555   0.101   4.693
10600SOL    HW233634  14.569  14.837   4.644
10601SOL     OW33635   7.340  14.240  10.173
10601SOL    HW133636   7.274  14.202  10.116
10601SOL    HW233637   7.310  14.329  10.189
10602SOL     OW33638  11.051   4.203  11.677
10602SOL    HW133639  11.003   4.123  11.701
10602SOL    HW233640  11.066   4.194  11.583
10603SOL     OW33641   1.389   3.575   7.725
10603SOL    HW133642   1.336   3.621   7.659
10603SOL    HW233643   1.364   3.615   7.808
10604SOL     OW33644  14.241  14.449   7.370
10604SOL    HW133645  14.314  14.509   7.356
10604SOL    HW233646  14.165  14.506   7.379
10605SOL     OW33647  11.939  10.660   9.732
10605SOL    HW133648  12.011  10.638   9.672
10605SOL    HW233649  11.940  10.590   9.797
10606SOL     OW33650  13.713   4.681   7.999
10606SOL    HW133651  13.631   4.662   8.043
10606SOL    HW233652  13.747   4.596   7.973
10607SOL     OW33653   5.153   7.510   1.102
10607SOL    HW133654   5.191   7.479   1.019
10607SOL    HW233655   5.175   7.441   1.165
10608SOL     OW33656  11.310   9.982   1.441
10608SOL    HW133657  11.404   9.966   1.433
10608SOL    HW233658  11.275   9.899   1.472
10609SOL     OW33659   6.315  14.059   3.765
10609SOL    HW133660   6.382  14.085   3.702
10609SOL    HW233661   6.258  14.136   3.772
10610SOL     OW33662   8.142  12.292   9.111
10610SOL    HW133663   8.078  12.270   9.179
10610SOL    HW233664   8.126  12.228   9.042
10611SOL     OW33665   1.898   4.546   1.820
10611SOL    HW133666   1.839   4.495   1.876
10611SOL    HW233667   1.964   4.483   1.791
10612SOL     OW33668   6.349   9.251  13.104
10612SOL    HW133669   6.421   9.273  13.163
10612SOL    HW233670   6.271   9.248  13.160
10613SOL     OW33671   3.857  13.529   3.908
10613SOL    HW133672   3.892  13.606   3.863
10613SOL    HW233673   3.781  13.503   3.856
10614SOL     OW33674  10.344  11.320  12.904
10614SOL    HW133675  10.389  11.371  12.838
10614SOL    HW233676  10.410  11.303  12.971
10615SOL     OW33677   1.615   6.607   9.497
10615SOL    HW133678   1.597   6.517   9.525
10615SOL    HW233679   1.707   6.606   9.470
10616SOL     OW33680  12.345   7.676  12.592
10616SOL    HW133681  12.281   7.627  12.643
10616SOL    HW233682  12.306   7.684  12.505
10617SOL     OW33683   4.887   1.705   7.340
10617SOL    HW133684   4.876   1.623   7.389
10617SOL    HW233685   4.830   1.695   7.263
10618SOL     OW33686   3.413   1.863   5.804
10618SOL    HW133687   3.400   1.769   5.799
10618SOL    HW233688   3.428   1.881   5.897
10619SOL     OW33689  10.394  10.179   8.381
10619SOL    HW133690  10.303  10.155   8.364
10619SOL    HW233691  10.410  10.152   8.471
10620SOL     OW33692   7.191  13.893   4.659
10620SOL    HW133693   7.249  13.959   4.621
10620SOL    HW233694   7.125  13.943   4.706
10621SOL     OW33695   3.781   5.253   8.129
10621SOL    HW133696   3.826   5.272   8.047
10621SOL    HW233697   3.714   5.189   8.106
10622SOL     OW33698   3.596  12.355   0.417
10622SOL    HW133699   3.552  12.299   0.352
10622SOL    HW233700   3.685  12.365   0.384
10623SOL     OW33701   6.893  12.444  12.608
10623SOL    HW133702   6.877  12.351  12.621
10623SOL    HW233703   6.815  12.477  12.564
10624SOL     OW33704  10.936   2.181  14.455
10624SOL    HW133705  10.865   2.223  14.405
10624SOL    HW233706  10.900   2.171  14.543
10625SOL     OW33707   0.506  12.263   7.263
10625SOL    HW133708   0.463  12.283   7.180
10625SOL    HW233709   0.439  12.278   7.330
10626SOL     OW33710   1.560   1.896   6.553
10626SOL    HW133711   1.566   1.902   6.648
10626SOL    HW233712   1.569   1.802   6.534
10627SOL     OW33713   4.239   3.202   6.044
10627SOL    HW133714   4.188   3.121   6.054
10627SOL    HW233715   4.195   3.248   5.972
10628SOL     OW33716   7.011   2.425   0.945
10628SOL    HW133717   7.084   2.471   0.986
10628SOL    HW233718   6.943   2.492   0.933
10629SOL     OW33719   0.371  14.577   7.482
10629SOL    HW133720   0.442  14.636   7.456
10629SOL    HW233721   0.410  14.518   7.546
10630SOL     OW33722   1.604   8.003  13.728
10630SOL    HW133723   1.568   8.035  13.646
10630SOL    HW233724   1.575   7.912  13.733
10631SOL     OW33725   7.404   0.089   9.327
10631SOL    HW133726   7.319   0.073   9.286
10631SOL    HW233727   7.457   0.130   9.259
10632SOL     OW33728   4.544  13.900   7.602
10632SOL    HW133729   4.480  13.912   7.672
10632SOL    HW233730   4.611  13.966   7.620
10633SOL     OW33731   6.977  11.741   0.769
10633SOL    HW133732   7.067  11.716   0.745
10633SOL    HW233733   6.975  11.836   0.756
10634SOL     OW33734   3.898   8.381  10.750
10634SOL    HW133735   3.921   8.459  10.800
10634SOL    HW233736   3.814   8.353  10.787
10635SOL     OW33737   3.622   6.056   3.437
10635SOL    HW133738   3.526   6.053   3.444
10635SOL    HW233739   3.642   6.012   3.355
10636SOL     OW33740   5.535   7.284   0.020
10636SOL    HW133741   5.586   7.317  14.824
10636SOL    HW233742   5.514   7.194  14.876
10637SOL     OW33743   8.730   1.112  11.347
10637SOL    HW133744   8.716   1.052  11.273
10637SOL    HW233745   8.665   1.086  11.412
10638SOL     OW33746   4.302   9.842   1.268
10638SOL    HW133747   4.241   9.877   1.334
10638SOL    HW233748   4.388   9.872   1.297
10639SOL     OW33749   1.984  10.962   5.840
10639SOL    HW133750   1.977  10.880   5.790
10639SOL    HW233751   1.997  10.933   5.931
10640SOL     OW33752   2.139  10.898  13.903
10640SOL    HW133753   2.108  10.842  13.832
10640SOL    HW233754   2.112  10.852  13.983
10641SOL     OW33755   1.776   8.075   3.913
10641SOL    HW133756   1.701   8.114   3.957
10641SOL    HW233757   1.810   8.010   3.974
10642SOL     OW33758   5.604   0.132   4.891
10642SOL    HW133759   5.646   0.130   4.805
10642SOL    HW233760   5.668   0.177   4.947
10643SOL     OW33761   1.875  11.406  14.188
10643SOL    HW133762   1.789  11.370  14.210
10643SOL    HW233763   1.856  11.488  14.142
10644SOL     OW33764  10.423   6.601   0.781
10644SOL    HW133765  10.333   6.604   0.813
10644SOL    HW233766  10.438   6.509   0.760
10645SOL     OW33767   3.585   9.855   8.193
10645SOL    HW133768   3.599   9.761   8.183
10645SOL    HW233769   3.571   9.887   8.104
10646SOL     OW33770  11.209  11.877   9.835
10646SOL    HW133771  11.185  11.956   9.786
10646SOL    HW233772  11.303  11.868   9.822
10647SOL     OW33773  11.771   5.594  10.739
10647SOL    HW133774  11.805   5.637  10.660
10647SOL    HW233775  11.848   5.583  10.795
10648SOL     OW33776  14.834  12.005   0.314
10648SOL    HW133777  14.785  11.954   0.248
10648SOL    HW233778  14.800  11.973   0.398
10649SOL     OW33779   3.698  10.513   6.771
10649SOL    HW133780   3.712  10.482   6.681
10649SOL    HW233781   3.678  10.434   6.821
10650SOL     OW33782  10.986   9.899   0.865
10650SOL    HW133783  10.928   9.828   0.892
10650SOL    HW233784  10.990   9.891   0.769
10651SOL     OW33785   1.866   6.581   9.433
10651SOL    HW133786   1.900   6.582   9.344
10651SOL    HW233787   1.943   6.590   9.489
10652SOL     OW33788   6.705   4.036   3.897
10652SOL    HW133789   6.713   4.074   3.809
10652SOL    HW233790   6.611   4.035   3.914
10653SOL     OW33791  10.237   7.717  10.399
10653SOL    HW133792  10.303   7.657  10.432
10653SOL    HW233793  10.196   7.754  10.477
10654SOL     OW33794   5.038  12.226   6.431
10654SOL    HW133795   4.956  12.275   6.428
10654SOL    HW233796   5.075  12.246   6.517
10655SOL     OW33797   1.109   6.210   3.922
10655SOL    HW133798   1.139   6.227   4.011
10655SOL    HW233799   1.139   6.121   3.903
10656SOL     OW33800   8.093   9.191   2.818
10656SOL    HW133801   8.094   9.248   2.895
10656SOL    HW233802   8.086   9.103   2.854
10657SOL     OW33803  10.339   8.017  10.671
10657SOL    HW133804  10.257   7.967  10.676
10657SOL    HW233805  10.398   7.961  10.620
10658SOL     OW33806   9.484   9.427   7.534
10658SOL    HW133807   9.533   9.355   7.494
10658SOL    HW233808   9.526   9.440   7.619
10659SOL     OW33809   7.963   9.632   4.165
10659SOL    HW133810   8.032   9.593   4.218
10659SOL    HW233811   7.886   9.633   4.222
10660SOL     OW33812   8.792  14.727  14.589
10660SOL    HW133813   8.726  14.780  14.544
10660SOL    HW233814   8.742  14.656  14.630
10661SOL     OW33815   0.961  11.417   4.228
10661SOL    HW133816   0.980  11.461   4.145
10661SOL    HW233817   1.045  11.380   4.256
10662SOL     OW33818  14.731   3.273   2.250
10662SOL    HW133819  14.654   3.330   2.247
10662SOL    HW233820  14.802   3.328   2.216
10663SOL     OW33821   3.850   8.349   7.134
10663SOL    HW133822   3.794   8.419   7.168
10663SOL    HW233823   3.801   8.313   7.059
10664SOL     OW33824   6.295   4.199  10.398
10664SOL    HW133825   6.285   4.261  10.326
10664SOL    HW233826   6.375   4.227  10.442
10665SOL     OW33827   2.633  14.474   5.671
10665SOL    HW133828   2.560  14.427   5.629
10665SOL    HW233829   2.618  14.566   5.648
10666SOL     OW33830   9.679   3.006   3.410
10666SOL    HW133831   9.676   2.915   3.441
10666SOL    HW233832   9.771   3.031   3.419
10667SOL     OW33833   8.103   7.040   1.354
10667SOL    HW133834   8.125   7.132   1.369
10667SOL    HW233835   8.042   7.042   1.281
10668SOL     OW33836   2.134  12.333   2.994
10668SOL    HW133837   2.169  12.323   3.083
10668SOL    HW233838   2.041  12.311   3.001
10669SOL     OW33839  12.412  12.953   6.505
10669SOL    HW133840  12.325  12.938   6.469
10669SOL    HW233841  12.421  12.887   6.574
10670SOL     OW33842  12.525  11.593   6.234
10670SOL    HW133843  12.603  11.644   6.255
10670SOL    HW233844  12.455  11.658   6.224
10671SOL     OW33845   8.293  14.863  11.873
10671SOL    HW133846   8.333  14.829  11.793
10671SOL    HW233847   8.319   0.076  11.876
10672SOL     OW33848   0.835   7.960   8.220
10672SOL    HW133849   0.796   7.909   8.148
10672SOL    HW233850   0.855   8.045   8.181
10673SOL     OW33851   1.830   1.874   6.965
10673SOL    HW133852   1.774   1.819   7.020
10673SOL    HW233853   1.904   1.895   7.022
10674SOL     OW33854   9.307  13.676  14.856
10674SOL    HW133855   9.296  13.587  14.822
10674SOL    HW233856   9.373  13.716  14.799
10675SOL     OW33857   6.845   3.865   8.990
10675SOL    HW133858   6.765   3.915   8.975
10675SOL    HW233859   6.813   3.777   9.012
10676SOL     OW33860   5.169   0.316   6.139
10676SOL    HW133861   5.245   0.374   6.145
10676SOL    HW233862   5.159   0.298   6.045
10677SOL     OW33863   1.174   2.291   7.442
10677SOL    HW133864   1.084   2.313   7.417
10677SOL    HW233865   1.226   2.312   7.364
10678SOL     OW33866  12.220  14.832   6.652
10678SOL    HW133867  12.177  14.749   6.674
10678SOL    HW233868  12.230  14.830   6.557
10679SOL     OW33869   1.136  13.188   9.472
10679SOL    HW133870   1.071  13.258   9.479
10679SOL    HW233871   1.214  13.224   9.514
10680SOL     OW33872   8.550   9.558   5.344
10680SOL    HW133873   8.495   9.623   5.388
10680SOL    HW233874   8.488   9.500   5.300
10681SOL     OW33875  14.080   1.572   0.121
10681SOL    HW133876  14.112   1.515   0.052
10681SOL    HW233877  14.110   1.659   0.096
10682SOL     OW33878  10.262   8.300   1.843
10682SOL    HW133879  10.199   8.229   1.832
10682SOL    HW233880  10.271   8.337   1.755
10683SOL     OW33881  11.130   8.421   1.843
10683SOL    HW133882  11.055   8.362   1.832
10683SOL    HW233883  11.090   8.504   1.870
10684SOL     OW33884   8.306  14.663   0.939
10684SOL    HW133885   8.265  14.635   0.857
10684SOL    HW233886   8.264  14.608   1.006
10685SOL     OW33887   7.884  10.954  12.242
10685SOL    HW133888   7.816  10.891  12.220
10685SOL    HW233889   7.906  10.934  12.333
10686SOL     OW33890   0.920   2.465  12.298
10686SOL    HW133891   0.867   2.409  12.355
10686SOL    HW233892   0.864   2.480  12.221
10687SOL     OW33893   6.295  13.220   3.327
10687SOL    HW133894   6.276  13.242   3.418
10687SOL    HW233895   6.328  13.130   3.330
10688SOL     OW33896   9.775   2.560  14.577
10688SOL    HW133897   9.773   2.628  14.510
10688SOL    HW233898   9.790   2.608  14.659
10689SOL     OW33899   2.715   1.909   5.126
10689SOL    HW133900   2.688   1.844   5.191
10689SOL    HW233901   2.764   1.858   5.061
10690SOL     OW33902   9.336   9.828  14.682
10690SOL    HW133903   9.398   9.861  14.617
10690SOL    HW233904   9.275   9.901  14.695
10691SOL     OW33905   8.910  14.094   3.779
10691SOL    HW133906   9.004  14.110   3.773
10691SOL    HW233907   8.873  14.139   3.703
10692SOL     OW33908  12.162   0.042   4.825
10692SOL    HW133909  12.116   0.111   4.778
10692SOL    HW233910  12.134   0.051   4.916
10693SOL     OW33911   5.630   1.611   7.987
10693SOL    HW133912   5.582   1.587   7.908
10693SOL    HW233913   5.689   1.681   7.959
10694SOL     OW33914   5.455  11.407   2.621
10694SOL    HW133915   5.524  11.383   2.683
10694SOL    HW233916   5.374  11.400   2.672
10695SOL     OW33917  11.972   8.869  10.995
10695SOL    HW133918  12.007   8.854  11.083
10695SOL    HW233919  12.048   8.863  10.937
10696SOL     OW33920   7.816   0.740  11.288
10696SOL    HW133921   7.835   0.832  11.305
10696SOL    HW233922   7.902   0.701  11.271
10697SOL     OW33923   9.356   3.618   8.807
10697SOL    HW133924   9.430   3.561   8.789
10697SOL    HW233925   9.311   3.577   8.881
10698SOL     OW33926   5.019  10.147   4.942
10698SOL    HW133927   5.082  10.089   4.898
10698SOL    HW233928   5.073  10.209   4.991
10699SOL     OW33929   0.154   3.363   0.843
10699SOL    HW133930   0.173   3.277   0.879
10699SOL    HW233931   0.155   3.422   0.919
10700SOL     OW33932  11.285  10.240   0.502
10700SOL    HW133933  11.307  10.320   0.549
10700SOL    HW233934  11.342  10.240   0.425
10701SOL     OW33935  12.099   2.098   3.696
10701SOL    HW133936  12.027   2.161   3.704
10701SOL    HW233937  12.169   2.135   3.750
10702SOL     OW33938  14.064   0.458   5.276
10702SOL    HW133939  14.096   0.471   5.186
10702SOL    HW233940  14.141   0.471   5.331
10703SOL     OW33941   4.641  10.252   2.314
10703SOL    HW133942   4.661  10.290   2.400
10703SOL    HW233943   4.716  10.276   2.259
10704SOL     OW33944   0.023   2.735   7.726
10704SOL    HW133945   0.096   2.785   7.690
10704SOL    HW233946  14.838   2.732   7.656
10705SOL     OW33947   2.591   5.220  10.763
10705SOL    HW133948   2.498   5.234  10.780
10705SOL    HW233949   2.629   5.202  10.849
10706SOL     OW33950  14.491  13.609   3.603
10706SOL    HW133951  14.400  13.638   3.596
10706SOL    HW233952  14.492  13.548   3.676
10707SOL     OW33953   5.163   6.356   9.347
10707SOL    HW133954   5.133   6.346   9.438
10707SOL    HW233955   5.250   6.395   9.355
10708SOL     OW33956   2.895  11.939   5.279
10708SOL    HW133957   2.983  11.937   5.317
10708SOL    HW233958   2.861  12.025   5.305
10709SOL     OW33959   6.316  14.539   5.685
10709SOL    HW133960   6.408  14.513   5.672
10709SOL    HW233961   6.291  14.581   5.603
10710SOL     OW33962   0.583   2.976  12.992
10710SOL    HW133963   0.543   2.969  12.905
10710SOL    HW233964   0.677   2.982  12.975
10711SOL     OW33965   7.393   0.976  14.111
10711SOL    HW133966   7.372   0.970  14.018
10711SOL    HW233967   7.415   1.068  14.125
10712SOL     OW33968   1.863  13.093  14.379
10712SOL    HW133969   1.837  13.119  14.467
10712SOL    HW233970   1.814  13.152  14.322
10713SOL     OW33971   2.649   9.792  10.689
10713SOL    HW133972   2.557   9.780  10.666
10713SOL    HW233973   2.663   9.887  10.686
10714SOL     OW33974   7.247  11.823   6.016
10714SOL    HW133975   7.169  11.871   5.989
10714SOL    HW233976   7.319  11.885   6.006
10715SOL     OW33977   1.916   4.819   0.461
10715SOL    HW133978   1.922   4.728   0.432
10715SOL    HW233979   1.947   4.870   0.386
10716SOL     OW33980   3.531  10.715   7.859
10716SOL    HW133981   3.556  10.798   7.819
10716SOL    HW233982   3.566  10.648   7.800
10717SOL     OW33983   8.548   8.006   1.739
10717SOL    HW133984   8.538   8.093   1.779
10717SOL    HW233985   8.563   7.947   1.813
10718SOL     OW33986  13.793  14.651   2.048
10718SOL    HW133987  13.805  14.684   1.959
10718SOL    HW233988  13.815  14.725   2.105
10719SOL     OW33989  14.754  11.110  12.875
10719SOL    HW133990  14.767  11.022  12.911
10719SOL    HW233991  14.824  11.121  12.811
10720SOL     OW33992   2.364   7.201   1.216
10720SOL    HW133993   2.454   7.229   1.231
10720SOL    HW233994   2.310   7.268   1.258
10721SOL     OW33995  11.938  11.379   1.447
10721SOL    HW133996  11.932  11.468   1.482
10721SOL    HW233997  12.021  11.346   1.481
10722SOL     OW33998  12.850  11.604  12.204
10722SOL    HW133999  12.886  11.681  12.249
10722SOL    HW234000  12.813  11.551  12.274
10723SOL     OW34001  14.548  11.649   6.182
10723SOL    HW134002  14.457  11.676   6.169
10723SOL    HW234003  14.543  11.569   6.234
10724SOL     OW34004  13.084  13.379   8.821
10724SOL    HW134005  13.178  13.366   8.833
10724SOL    HW234006  13.049  13.391   8.909
10725SOL     OW34007   4.169  10.978  11.557
10725SOL    HW134008   4.166  10.961  11.463
10725SOL    HW234009   4.225  11.055  11.566
10726SOL     OW34010   4.830   8.006   8.612
10726SOL    HW134011   4.792   8.089   8.642
10726SOL    HW234012   4.899   7.988   8.676
10727SOL     OW34013  13.419   4.561   3.699
10727SOL    HW134014  13.478   4.496   3.660
10727SOL    HW234015  13.340   4.511   3.720
10728SOL     OW34016   4.985  10.554  14.299
10728SOL    HW134017   5.076  10.559  14.329
10728SOL    HW234018   4.950  10.475  14.340
10729SOL     OW34019   0.737   7.780  14.800
10729SOL    HW134020   0.713   7.763  14.709
10729SOL    HW234021   0.730   7.875  14.810
10730SOL     OW34022  14.149   6.742  13.916
10730SOL    HW134023  14.244   6.751  13.929
10730SOL    HW234024  14.118   6.831  13.904
10731SOL     OW34025  14.490   2.646   2.678
10731SOL    HW134026  14.510   2.739   2.666
10731SOL    HW234027  14.400   2.637   2.649
10732SOL     OW34028   5.656  12.221   1.970
10732SOL    HW134029   5.569  12.227   2.008
10732SOL    HW234030   5.662  12.298   1.912
10733SOL     OW34031   0.317   6.407   6.096
10733SOL    HW134032   0.398   6.412   6.044
10733SOL    HW234033   0.261   6.475   6.059
10734SOL     OW34034  10.694  11.819  12.158
10734SOL    HW134035  10.640  11.891  12.191
10734SOL    HW234036  10.680  11.820  12.064
10735SOL     OW34037   0.350   2.151   2.584
10735SOL    HW134038   0.418   2.214   2.559
10735SOL    HW234039   0.399   2.071   2.606
10736SOL     OW34040  12.070  12.819   5.340
10736SOL    HW134041  11.999  12.869   5.382
10736SOL    HW234042  12.101  12.759   5.407
10737SOL     OW34043  14.083   1.291   5.537
10737SOL    HW134044  14.134   1.211   5.528
10737SOL    HW234045  14.148   1.361   5.540
10738SOL     OW34046  13.374   3.723  13.094
10738SOL    HW134047  13.340   3.796  13.044
10738SOL    HW234048  13.299   3.665  13.107
10739SOL     OW34049  14.238  10.690   0.229
10739SOL    HW134050  14.164  10.630   0.225
10739SOL    HW234051  14.281  10.670   0.312
10740SOL     OW34052   0.109   2.363   3.662
10740SOL    HW134053   0.172   2.432   3.685
10740SOL    HW234054   0.156   2.281   3.680
10741SOL     OW34055  14.847  10.710  11.781
10741SOL    HW134056  14.845  10.737  11.689
10741SOL    HW234057  14.766  10.746  11.817
10742SOL     OW34058   3.389   9.260   7.900
10742SOL    HW134059   3.400   9.168   7.878
10742SOL    HW234060   3.461   9.304   7.855
10743SOL     OW34061  13.493  12.960   0.510
10743SOL    HW134062  13.416  12.934   0.560
10743SOL    HW234063  13.510  13.050   0.537
10744SOL     OW34064   4.916  13.431   6.582
10744SOL    HW134065   4.940  13.524   6.589
10744SOL    HW234066   4.823  13.432   6.559
10745SOL     OW34067   5.378   9.522  11.695
10745SOL    HW134068   5.472   9.539  11.691
10745SOL    HW234069   5.352   9.511  11.603
10746SOL     OW34070  10.825  11.752  10.837
10746SOL    HW134071  10.735  11.781  10.827
10746SOL    HW234072  10.844  11.706  10.755
10747SOL     OW34073   6.540   3.664  12.830
10747SOL    HW134074   6.594   3.660  12.909
10747SOL    HW234075   6.512   3.573  12.815
10748SOL     OW34076   9.583  14.682  13.397
10748SOL    HW134077   9.608  14.677  13.305
10748SOL    HW234078   9.657  14.645  13.444
10749SOL     OW34079  10.039  13.903   0.080
10749SOL    HW134080  10.099  13.837   0.114
10749SOL    HW234081   9.993  13.937   0.157
10750SOL     OW34082   6.460   2.200   2.354
10750SOL    HW134083   6.524   2.177   2.421
10750SOL    HW234084   6.471   2.134   2.285
10751SOL     OW34085  11.696   9.729   9.087
10751SOL    HW134086  11.717   9.778   9.007
10751SOL    HW234087  11.778   9.685   9.110
10752SOL     OW34088   9.803   9.999   0.801
10752SOL    HW134089   9.791   9.933   0.733
10752SOL    HW234090   9.790   9.950   0.883
10753SOL     OW34091   4.756  13.331   0.900
10753SOL    HW134092   4.759  13.371   0.987
10753SOL    HW234093   4.750  13.237   0.917
10754SOL     OW34094   7.379   4.728  12.570
10754SOL    HW134095   7.376   4.690  12.483
10754SOL    HW234096   7.313   4.797  12.569
10755SOL     OW34097  10.012   9.835  11.150
10755SOL    HW134098  10.062   9.826  11.231
10755SOL    HW234099   9.961   9.753  11.143
10756SOL     OW34100   1.750   2.174   6.314
10756SOL    HW134101   1.664   2.160   6.353
10756SOL    HW234102   1.733   2.232   6.240
10757SOL     OW34103   9.876  11.857   2.398
10757SOL    HW134104   9.843  11.939   2.360
10757SOL    HW234105   9.802  11.797   2.392
10758SOL     OW34106   3.701   7.115   8.921
10758SOL    HW134107   3.653   7.195   8.900
10758SOL    HW234108   3.771   7.144   8.979
10759SOL     OW34109   2.408   4.218   4.218
10759SOL    HW134110   2.321   4.216   4.178
10759SOL    HW234111   2.438   4.127   4.216
10760SOL     OW34112   1.624   1.353   1.805
10760SOL    HW134113   1.529   1.352   1.818
10760SOL    HW234114   1.653   1.266   1.831
10761SOL     OW34115   6.710   0.451  11.129
10761SOL    HW134116   6.752   0.510  11.067
10761SOL    HW234117   6.772   0.443  11.201
10762SOL     OW34118   0.915   7.013  11.232
10762SOL    HW134119   0.963   6.931  11.222
10762SOL    HW234120   0.867   7.024  11.150
10763SOL     OW34121  12.302  10.026  10.499
10763SOL    HW134122  12.241  10.097  10.478
10763SOL    HW234123  12.303  10.022  10.594
10764SOL     OW34124   6.597  13.913   3.113
10764SOL    HW134125   6.533  13.983   3.098
10764SOL    HW234126   6.554  13.834   3.079
10765SOL     OW34127   5.874   4.492   3.408
10765SOL    HW134128   5.783   4.463   3.412
10765SOL    HW234129   5.919   4.436   3.472
10766SOL     OW34130  13.764  10.029   2.942
10766SOL    HW134131  13.778  10.122   2.959
10766SOL    HW234132  13.764   9.989   3.030
10767SOL     OW34133   7.777  13.047  14.499
10767SOL    HW134134   7.852  13.000  14.463
10767SOL    HW234135   7.737  12.985  14.560
10768SOL     OW34136   6.628   2.440   6.535
10768SOL    HW134137   6.593   2.528   6.547
10768SOL    HW234138   6.562   2.395   6.482
10769SOL     OW34139   6.474  11.556   6.775
10769SOL    HW134140   6.560  11.578   6.810
10769SOL    HW234141   6.453  11.471   6.812
10770SOL     OW34142  11.728   5.418  13.417
10770SOL    HW134143  11.656   5.354  13.413
10770SOL    HW234144  11.685   5.503  13.400
10771SOL     OW34145  14.327  10.547   5.827
10771SOL    HW134146  14.234  10.526   5.815
10771SOL    HW234147  14.349  10.602   5.752
10772SOL     OW34148   2.727   8.883  14.536
10772SOL    HW134149   2.722   8.977  14.556
10772SOL    HW234150   2.673   8.842  14.603
10773SOL     OW34151  11.424  10.772  13.988
10773SOL    HW134152  11.430  10.695  13.932
10773SOL    HW234153  11.395  10.842  13.930
10774SOL     OW34154   2.364  12.449  10.402
10774SOL    HW134155   2.330  12.413  10.484
10774SOL    HW234156   2.336  12.541  10.402
10775SOL     OW34157   6.655  10.484  10.774
10775SOL    HW134158   6.580  10.527  10.734
10775SOL    HW234159   6.673  10.409  10.717
10776SOL     OW34160  11.806   2.780   9.582
10776SOL    HW134161  11.849   2.744   9.660
10776SOL    HW234162  11.874   2.780   9.515
10777SOL     OW34163   6.645  10.262   7.613
10777SOL    HW134164   6.611  10.326   7.551
10777SOL    HW234165   6.699  10.203   7.560
10778SOL     OW34166   7.001  11.509  14.520
10778SOL    HW134167   6.917  11.550  14.541
10778SOL    HW234168   7.010  11.520  14.425
10779SOL     OW34169   5.610   3.886   0.818
10779SOL    HW134170   5.516   3.904   0.810
10779SOL    HW234171   5.652   3.958   0.772
10780SOL     OW34172   8.953  11.736  10.272
10780SOL    HW134173   8.915  11.818  10.240
10780SOL    HW234174   9.047  11.748  10.262
10781SOL     OW34175  13.626   5.603   1.966
10781SOL    HW134176  13.608   5.696   1.972
10781SOL    HW234177  13.643   5.575   2.056
10782SOL     OW34178   6.973   0.520   4.081
10782SOL    HW134179   7.018   0.471   4.012
10782SOL    HW234180   6.915   0.580   4.034
10783SOL     OW34181   9.394   9.093   9.555
10783SOL    HW134182   9.328   9.160   9.537
10783SOL    HW234183   9.345   9.011   9.559
10784SOL     OW34184   6.627   3.420   8.197
10784SOL    HW134185   6.551   3.437   8.142
10784SOL    HW234186   6.681   3.361   8.145
10785SOL     OW34187  10.843   2.780   9.702
10785SOL    HW134188  10.895   2.726   9.643
10785SOL    HW234189  10.832   2.726   9.781
10786SOL     OW34190  10.337   4.599   4.825
10786SOL    HW134191  10.408   4.603   4.889
10786SOL    HW234192  10.309   4.690   4.814
10787SOL     OW34193   9.792  13.094   6.341
10787SOL    HW134194   9.877  13.122   6.376
10787SOL    HW234195   9.780  13.006   6.376
10788SOL     OW34196  11.045   9.567   1.779
10788SOL    HW134197  11.043   9.530   1.867
10788SOL    HW234198  11.096   9.647   1.788
10789SOL     OW34199   2.670   0.162  10.218
10789SOL    HW134200   2.576   0.150  10.225
10789SOL    HW234201   2.683   0.257  10.218
10790SOL     OW34202  13.983  11.535   3.057
10790SOL    HW134203  13.970  11.612   3.001
10790SOL    HW234204  13.898  11.490   3.055
10791SOL     OW34205   4.197   7.585   1.901
10791SOL    HW134206   4.158   7.498   1.911
10791SOL    HW234207   4.207   7.617   1.991
10792SOL     OW34208   9.289  14.627   9.414
10792SOL    HW134209   9.324  14.678   9.340
10792SOL    HW234210   9.199  14.657   9.424
10793SOL     OW34211  14.240  10.032   4.959
10793SOL    HW134212  14.323  10.025   5.007
10793SOL    HW234213  14.185   9.963   4.997
10794SOL     OW34214  11.761   9.910   8.836
10794SOL    HW134215  11.829   9.961   8.791
10794SOL    HW234216  11.680   9.958   8.821
10795SOL     OW34217   0.088   6.505   4.090
10795SOL    HW134218   0.170   6.456   4.096
10795SOL    HW234219   0.089   6.563   4.167
10796SOL     OW34220  10.274   7.339   2.002
10796SOL    HW134221  10.225   7.277   2.055
10796SOL    HW234222  10.283   7.297   1.917
10797SOL     OW34223   1.527  13.774   5.190
10797SOL    HW134224   1.519  13.732   5.276
10797SOL    HW234225   1.583  13.851   5.207
10798SOL     OW34226  12.933   2.702   4.036
10798SOL    HW134227  12.884   2.661   3.964
10798SOL    HW234228  13.010   2.646   4.048
10799SOL     OW34229   7.287   2.508   9.287
10799SOL    HW134230   7.377   2.499   9.255
10799SOL    HW234231   7.239   2.542   9.212
10800SOL     OW34232   0.457   7.658   2.318
10800SOL    HW134233   0.379   7.610   2.345
10800SOL    HW234234   0.470   7.724   2.387
10801SOL     OW34235  10.639  14.200   7.444
10801SOL    HW134236  10.628  14.108   7.466
10801SOL    HW234237  10.553  14.228   7.412
10802SOL     OW34238  10.724   1.816  13.979
10802SOL    HW134239  10.776   1.854  14.049
10802SOL    HW234240  10.780   1.823  13.901
10803SOL     OW34241  12.070  14.189   4.560
10803SOL    HW134242  12.059  14.166   4.652
10803SOL    HW234243  12.095  14.282   4.561
10804SOL     OW34244   0.011  10.965   8.227
10804SOL    HW134245   0.102  10.934   8.234
10804SOL    HW234246  14.873  11.009   8.310
10805SOL     OW34247   3.546   2.916  12.848
10805SOL    HW134248   3.561   2.880  12.935
10805SOL    HW234249   3.457   2.889  12.826
10806SOL     OW34250   7.905   0.128   9.105
10806SOL    HW134251   7.993   0.104   9.135
10806SOL    HW234252   7.846   0.090   9.170
10807SOL     OW34253  13.600  13.767   0.371
10807SOL    HW134254  13.695  13.771   0.388
10807SOL    HW234255  13.586  13.678   0.339
10808SOL     OW34256  12.894   4.071   3.804
10808SOL    HW134257  12.948   4.079   3.726
10808SOL    HW234258  12.954   4.087   3.877
10809SOL     OW34259   4.309  11.358   0.198
10809SOL    HW134260   4.239  11.409   0.238
10809SOL    HW234261   4.375  11.347   0.267
10810SOL     OW34262   8.290   9.395   5.452
10810SOL    HW134263   8.212   9.390   5.395
10810SOL    HW234264   8.359   9.351   5.401
10811SOL     OW34265  12.174   7.273   0.608
10811SOL    HW134266  12.140   7.357   0.576
10811SOL    HW234267  12.262   7.268   0.571
10812SOL     OW34268  10.968  12.220  12.086
10812SOL    HW134269  11.050  12.182  12.054
10812SOL    HW234270  10.930  12.152  12.141
10813SOL     OW34271   7.803   7.153  13.722
10813SOL    HW134272   7.757   7.215  13.665
10813SOL    HW234273   7.800   7.194  13.809
10814SOL     OW34274   3.129  12.472   6.550
10814SOL    HW134275   3.149  12.498   6.461
10814SOL    HW234276   3.082  12.389   6.541
10815SOL     OW34277  14.570  11.465   0.242
10815SOL    HW134278  14.582  11.499   0.154
10815SOL    HW234279  14.606  11.532   0.299
10816SOL     OW34280   4.849   8.354  11.729
10816SOL    HW134281   4.933   8.369  11.687
10816SOL    HW234282   4.865   8.283  11.791
10817SOL     OW34283   3.884   0.150   7.271
10817SOL    HW134284   3.905   0.240   7.245
10817SOL    HW234285   3.938   0.095   7.214
10818SOL     OW34286  11.988   5.430   3.499
10818SOL    HW134287  12.001   5.347   3.454
10818SOL    HW234288  11.930   5.409   3.572
10819SOL     OW34289   1.324   8.105   6.643
10819SOL    HW134290   1.264   8.128   6.572
10819SOL    HW234291   1.285   8.143   6.721
10820SOL     OW34292   6.573  13.765   2.541
10820SOL    HW134293   6.570  13.723   2.627
10820SOL    HW234294   6.518  13.843   2.550
10821SOL     OW34295   7.731  13.385   3.140
10821SOL    HW134296   7.668  13.331   3.093
10821SOL    HW234297   7.765  13.328   3.209
10822SOL     OW34298   9.289  12.116  13.907
10822SOL    HW134299   9.294  12.024  13.933
10822SOL    HW234300   9.326  12.118  13.818
10823SOL     OW34301  10.495   7.726   0.806
10823SOL    HW134302  10.580   7.735   0.849
10823SOL    HW234303  10.442   7.797   0.843
10824SOL     OW34304   6.816   7.024   7.997
10824SOL    HW134305   6.883   6.958   7.980
10824SOL    HW234306   6.756   7.017   7.923
10825SOL     OW34307  13.941   6.303  14.567
10825SOL    HW134308  13.949   6.213  14.535
10825SOL    HW234309  13.993   6.305  14.647
10826SOL     OW34310  12.386   1.550   3.700
10826SOL    HW134311  12.300   1.593   3.701
10826SOL    HW234312  12.435   1.591   3.771
10827SOL     OW34313   6.713  12.069   7.568
10827SOL    HW134314   6.624  12.099   7.589
10827SOL    HW234315   6.703  12.022   7.485
10828SOL     OW34316   1.410   6.571   2.251
10828SOL    HW134317   1.353   6.589   2.325
10828SOL    HW234318   1.422   6.656   2.209
10829SOL     OW34319   5.614   5.218  12.983
10829SOL    HW134320   5.535   5.224  12.929
10829SOL    HW234321   5.683   5.255  12.928
10830SOL     OW34322   7.308   2.348   3.413
10830SOL    HW134323   7.343   2.435   3.398
10830SOL    HW234324   7.245   2.359   3.483
10831SOL     OW34325  11.679  11.475  10.633
10831SOL    HW134326  11.746  11.509  10.574
10831SOL    HW234327  11.619  11.426  10.575
10832SOL     OW34328  10.202   7.150  14.310
10832SOL    HW134329  10.152   7.116  14.384
10832SOL    HW234330  10.248   7.226  14.345
10833SOL     OW34331  12.781  14.098  10.928
10833SOL    HW134332  12.775  14.105  11.023
10833SOL    HW234333  12.823  14.180  10.900
10834SOL     OW34334  14.422   2.879   7.258
10834SOL    HW134335  14.434   2.942   7.329
10834SOL    HW234336  14.441   2.794   7.298
10835SOL     OW34337   6.423   0.605  12.540
10835SOL    HW134338   6.471   0.665  12.482
10835SOL    HW234339   6.437   0.519  12.501
10836SOL     OW34340   1.887   5.788   9.152
10836SOL    HW134341   1.821   5.788   9.221
10836SOL    HW234342   1.882   5.876   9.115
10837SOL     OW34343  14.480   0.594   6.088
10837SOL    HW134344  14.406   0.598   6.149
10837SOL    HW234345  14.523   0.679   6.097
10838SOL     OW34346  14.551   8.094   2.073
10838SOL    HW134347  14.460   8.074   2.049
10838SOL    HW234348  14.546   8.174   2.124
10839SOL     OW34349   7.906  12.714   9.260
10839SOL    HW134350   7.851  12.693   9.185
10839SOL    HW234351   7.876  12.800   9.289
10840SOL     OW34352  11.316   5.570  13.289
10840SOL    HW134353  11.270   5.493  13.254
10840SOL    HW234354  11.403   5.537  13.312
10841SOL     OW34355  13.285  11.518   1.064
10841SOL    HW134356  13.248  11.474   0.987
10841SOL    HW234357  13.359  11.568   1.029
10842SOL     OW34358  10.766   3.720  11.629
10842SOL    HW134359  10.750   3.741  11.537
10842SOL    HW234360  10.686   3.747  11.674
10843SOL     OW34361   4.685   4.038   5.332
10843SOL    HW134362   4.643   3.999   5.409
10843SOL    HW234363   4.627   4.015   5.259
10844SOL     OW34364   2.328   6.277   4.895
10844SOL    HW134365   2.368   6.194   4.871
10844SOL    HW234366   2.249   6.253   4.942
10845SOL     OW34367   8.829   8.997   4.524
10845SOL    HW134368   8.864   8.979   4.611
10845SOL    HW234369   8.797   8.913   4.492
10846SOL     OW34370   2.990  12.774   6.929
10846SOL    HW134371   2.974  12.743   6.840
10846SOL    HW234372   3.075  12.738   6.952
10847SOL     OW34373  14.032   0.865   2.145
10847SOL    HW134374  14.117   0.872   2.100
10847SOL    HW234375  13.971   0.910   2.087
10848SOL     OW34376  11.360  11.875   2.545
10848SOL    HW134377  11.367  11.968   2.525
10848SOL    HW234378  11.444  11.838   2.516
10849SOL     OW34379   8.697  12.377   3.366
10849SOL    HW134380   8.736  12.444   3.309
10849SOL    HW234381   8.745  12.297   3.344
10850SOL     OW34382   5.229   2.670  10.442
10850SOL    HW134383   5.198   2.759  10.426
10850SOL    HW234384   5.246   2.634  10.355
10851SOL     OW34385   5.120   3.549   0.230
10851SOL    HW134386   5.067   3.627   0.247
10851SOL    HW234387   5.202   3.584   0.195
10852SOL     OW34388   4.205   3.155  14.709
10852SOL    HW134389   4.222   3.105  14.629
10852SOL    HW234390   4.247   3.240  14.693
10853SOL     OW34391   4.422   8.271   2.652
10853SOL    HW134392   4.418   8.198   2.714
10853SOL    HW234393   4.384   8.345   2.700
10854SOL     OW34394  11.920   4.912   2.875
10854SOL    HW134395  11.932   4.990   2.929
10854SOL    HW234396  12.008   4.874   2.869
10855SOL     OW34397   0.430  13.931   1.972
10855SOL    HW134398   0.484  14.010   1.976
10855SOL    HW234399   0.449  13.892   1.887
10856SOL     OW34400   9.076   0.262  11.948
10856SOL    HW134401   9.169   0.277  11.968
10856SOL    HW234402   9.042   0.221  12.027
10857SOL     OW34403  10.507   3.717   7.813
10857SOL    HW134404  10.544   3.777   7.748
10857SOL    HW234405  10.416   3.706   7.785
10858SOL     OW34406   1.221   9.826   3.234
10858SOL    HW134407   1.128   9.849   3.230
10858SOL    HW234408   1.249   9.824   3.142
10859SOL     OW34409   4.592   7.402   3.236
10859SOL    HW134410   4.557   7.325   3.192
10859SOL    HW234411   4.552   7.401   3.323
10860SOL     OW34412   9.410   0.486   8.933
10860SOL    HW134413   9.453   0.409   8.970
10860SOL    HW234414   9.470   0.517   8.865
10861SOL     OW34415   6.519   9.630   3.334
10861SOL    HW134416   6.518   9.672   3.248
10861SOL    HW234417   6.597   9.666   3.377
10862SOL     OW34418   9.952   6.661   6.946
10862SOL    HW134419   9.992   6.590   6.996
10862SOL    HW234420   9.858   6.653   6.962
10863SOL     OW34421   7.949   5.515  11.243
10863SOL    HW134422   7.862   5.491  11.273
10863SOL    HW234423   7.934   5.568  11.165
10864SOL     OW34424  13.768   2.964   2.928
10864SOL    HW134425  13.764   2.884   2.876
10864SOL    HW234426  13.676   2.990   2.939
10865SOL     OW34427   0.251   0.659   2.193
10865SOL    HW134428   0.192   0.732   2.174
10865SOL    HW234429   0.200   0.602   2.251
10866SOL     OW34430   4.025   5.586   5.950
10866SOL    HW134431   4.045   5.583   6.044
10866SOL    HW234432   4.106   5.559   5.907
10867SOL     OW34433   7.414   0.822  14.481
10867SOL    HW134434   7.366   0.751  14.524
10867SOL    HW234435   7.374   0.902  14.515
10868SOL     OW34436   2.845   3.474  14.816
10868SOL    HW134437   2.785   3.522  14.760
10868SOL    HW234438   2.928   3.473  14.768
10869SOL     OW34439   4.094   7.720   7.899
10869SOL    HW134440   4.020   7.747   7.845
10869SOL    HW234441   4.091   7.778   7.975
10870SOL     OW34442  12.026  12.193   2.276
10870SOL    HW134443  12.040  12.110   2.320
10870SOL    HW234444  11.985  12.249   2.342
10871SOL     OW34445   3.359  13.700  10.381
10871SOL    HW134446   3.287  13.684  10.320
10871SOL    HW234447   3.316  13.728  10.462
10872SOL     OW34448   7.563   6.955  11.317
10872SOL    HW134449   7.632   6.971  11.252
10872SOL    HW234450   7.508   6.888  11.278
10873SOL     OW34451   1.139  10.803   0.163
10873SOL    HW134452   1.203  10.788   0.093
10873SOL    HW234453   1.054  10.796   0.119
10874SOL     OW34454  14.346   0.133  10.915
10874SOL    HW134455  14.265   0.174  10.882
10874SOL    HW234456  14.317   0.078  10.988
10875SOL     OW34457   1.417   6.946   7.676
10875SOL    HW134458   1.329   6.915   7.700
10875SOL    HW234459   1.467   6.866   7.662
10876SOL     OW34460   3.968  10.036   2.637
10876SOL    HW134461   4.037  10.052   2.702
10876SOL    HW234462   3.913  10.114   2.642
10877SOL     OW34463   3.342   5.171   1.128
10877SOL    HW134464   3.305   5.197   1.044
10877SOL    HW234465   3.284   5.101   1.159
10878SOL     OW34466   7.325   1.407  10.430
10878SOL    HW134467   7.306   1.468  10.359
10878SOL    HW234468   7.404   1.441  10.471
10879SOL     OW34469   6.409   5.839   1.956
10879SOL    HW134470   6.502   5.835   1.977
10879SOL    HW234471   6.382   5.926   1.985
10880SOL     OW34472   8.654   1.604  10.715
10880SOL    HW134473   8.614   1.517  10.713
10880SOL    HW234474   8.722   1.601  10.647
10881SOL     OW34475  13.474   7.410  11.888
10881SOL    HW134476  13.424   7.331  11.869
10881SOL    HW234477  13.407   7.478  11.902
10882SOL     OW34478   0.834   6.965   0.532
10882SOL    HW134479   0.843   6.873   0.507
10882SOL    HW234480   0.741   6.976   0.551
10883SOL     OW34481   0.209   0.945  11.075
10883SOL    HW134482   0.208   1.009  11.004
10883SOL    HW234483   0.134   0.968  11.129
10884SOL     OW34484   4.515   7.617   7.369
10884SOL    HW134485   4.427   7.579   7.366
10884SOL    HW234486   4.505   7.698   7.420
10885SOL     OW34487   8.156   9.771   7.274
10885SOL    HW134488   8.185   9.708   7.340
10885SOL    HW234489   8.160   9.723   7.191
10886SOL     OW34490   8.788   1.209   8.893
10886SOL    HW134491   8.879   1.228   8.870
10886SOL    HW234492   8.774   1.256   8.975
10887SOL     OW34493   1.341   4.634   5.726
10887SOL    HW134494   1.431   4.632   5.757
10887SOL    HW234495   1.310   4.544   5.733
10888SOL     OW34496  11.452  10.478   6.782
10888SOL    HW134497  11.489  10.390   6.771
10888SOL    HW234498  11.525  10.531   6.813
10889SOL     OW34499   8.565  14.134  10.278
10889SOL    HW134500   8.497  14.183  10.325
10889SOL    HW234501   8.519  14.092  10.206
10890SOL     OW34502   2.259   4.447  14.576
10890SOL    HW134503   2.268   4.379  14.643
10890SOL    HW234504   2.172   4.483  14.590
10891SOL     OW34505  12.963   5.519  13.566
10891SOL    HW134506  12.910   5.586  13.609
10891SOL    HW234507  12.957   5.540  13.473
10892SOL     OW34508   3.640   4.934   2.838
10892SOL    HW134509   3.689   4.997   2.785
10892SOL    HW234510   3.656   4.850   2.796
10893SOL     OW34511   2.323   7.852  11.804
10893SOL    HW134512   2.262   7.781  11.779
10893SOL    HW234513   2.270   7.931  11.800
10894SOL     OW34514  12.409   7.120   3.138
10894SOL    HW134515  12.325   7.140   3.097
10894SOL    HW234516  12.387   7.100   3.229
10895SOL     OW34517   7.303   0.909  13.875
10895SOL    HW134518   7.347   0.825  13.864
10895SOL    HW234519   7.221   0.899  13.827
10896SOL     OW34520   7.098   0.107   5.270
10896SOL    HW134521   7.190   0.083   5.264
10896SOL    HW234522   7.079   0.148   5.185
10897SOL     OW34523  10.486   1.288   6.314
10897SOL    HW134524  10.500   1.364   6.257
10897SOL    HW234525  10.422   1.235   6.266
10898SOL     OW34526   5.590  12.741   1.994
10898SOL    HW134527   5.665  12.799   1.983
10898SOL    HW234528   5.627  12.659   2.027
10899SOL     OW34529   5.540  11.804  11.801
10899SOL    HW134530   5.540  11.890  11.758
10899SOL    HW234531   5.448  11.785  11.817
10900SOL     OW34532   9.319   4.256   4.252
10900SOL    HW134533   9.414   4.245   4.255
10900SOL    HW234534   9.285   4.175   4.288
10901SOL     OW34535   3.521   5.838   1.795
10901SOL    HW134536   3.514   5.920   1.844
10901SOL    HW234537   3.504   5.770   1.861
10902SOL     OW34538   2.471   6.213  14.449
10902SOL    HW134539   2.511   6.252  14.371
10902SOL    HW234540   2.535   6.149  14.479
10903SOL     OW34541   3.192   5.091  10.015
10903SOL    HW134542   3.287   5.102  10.010
10903SOL    HW234543   3.157   5.145   9.944
10904SOL     OW34544   9.956  12.609   1.214
10904SOL    HW134545   9.893  12.542   1.239
10904SOL    HW234546   9.989  12.580   1.128
10905SOL     OW34547   4.881   6.298  10.017
10905SOL    HW134548   4.821   6.301  10.092
10905SOL    HW234549   4.825   6.308   9.941
10906SOL     OW34550   8.009   4.890   1.543
10906SOL    HW134551   8.029   4.797   1.537
10906SOL    HW234552   7.987   4.916   1.454
10907SOL     OW34553   7.020   3.467   6.741
10907SOL    HW134554   6.924   3.466   6.741
10907SOL    HW234555   7.044   3.416   6.663
10908SOL     OW34556  12.220   5.461  13.115
10908SOL    HW134557  12.287   5.513  13.070
10908SOL    HW234558  12.204   5.508  13.197
10909SOL     OW34559   5.839   8.089  10.686
10909SOL    HW134560   5.893   8.128  10.618
10909SOL    HW234561   5.785   8.162  10.718
10910SOL     OW34562  12.949   4.915   1.159
10910SOL    HW134563  12.969   4.827   1.125
10910SOL    HW234564  13.023   4.968   1.132
10911SOL     OW34565   4.063  12.865  12.549
10911SOL    HW134566   4.118  12.905  12.482
10911SOL    HW234567   4.014  12.938  12.586
10912SOL     OW34568   1.874  12.836   7.083
10912SOL    HW134569   1.829  12.890   7.019
10912SOL    HW234570   1.947  12.889   7.113
10913SOL     OW34571   7.272   2.539   0.360
10913SOL    HW134572   7.334   2.469   0.340
10913SOL    HW234573   7.244   2.521   0.450
10914SOL     OW34574  13.385   3.780  10.507
10914SOL    HW134575  13.450   3.802  10.573
10914SOL    HW234576  13.321   3.726  10.553
10915SOL     OW34577   2.721  13.525   6.684
10915SOL    HW134578   2.680  13.579   6.616
10915SOL    HW234579   2.716  13.436   6.651
10916SOL     OW34580  10.984   2.105  12.546
10916SOL    HW134581  11.069   2.067  12.523
10916SOL    HW234582  11.006   2.192  12.580
10917SOL     OW34583   3.970  13.488   6.125
10917SOL    HW134584   4.045  13.446   6.166
10917SOL    HW234585   3.949  13.562   6.182
10918SOL     OW34586   3.873  14.378  12.939
10918SOL    HW134587   3.810  14.314  12.905
10918SOL    HW234588   3.957  14.351  12.902
10919SOL     OW34589   1.864   7.911   8.581
10919SOL    HW134590   1.813   7.990   8.564
10919SOL    HW234591   1.801   7.848   8.614
10920SOL     OW34592  14.645  10.590   5.832
10920SOL    HW134593  14.571  10.538   5.864
10920SOL    HW234594  14.606  10.647   5.765
10921SOL     OW34595  14.726  13.415   7.204
10921SOL    HW134596  14.805  13.461   7.176
10921SOL    HW234597  14.657  13.450   7.148
10922SOL     OW34598   9.846   0.790   9.785
10922SOL    HW134599   9.769   0.839   9.755
10922SOL    HW234600   9.817   0.748   9.867
10923SOL     OW34601   8.923   5.924   7.214
10923SOL    HW134602   8.980   5.997   7.237
10923SOL    HW234603   8.982   5.849   7.206
10924SOL     OW34604   7.942   6.267   6.672
10924SOL    HW134605   7.909   6.352   6.643
10924SOL    HW234606   7.972   6.224   6.591
10925SOL     OW34607   8.772  12.992   2.501
10925SOL    HW134608   8.863  12.964   2.508
10925SOL    HW234609   8.751  13.029   2.587
10926SOL     OW34610   7.026  13.221   7.100
10926SOL    HW134611   7.079  13.222   7.180
10926SOL    HW234612   7.090  13.208   7.030
10927SOL     OW34613   8.383  13.725   4.591
10927SOL    HW134614   8.387  13.630   4.589
10927SOL    HW234615   8.296  13.745   4.626
10928SOL     OW34616   9.173  14.356   7.179
10928SOL    HW134617   9.245  14.298   7.204
10928SOL    HW234618   9.209  14.445   7.187
10929SOL     OW34619  10.291  10.735   0.292
10929SOL    HW134620  10.359  10.676   0.260
10929SOL    HW234621  10.211  10.683   0.290
10930SOL     OW34622   6.172  10.965   3.089
10930SOL    HW134623   6.177  10.894   3.154
10930SOL    HW234624   6.178  10.921   3.005
10931SOL     OW34625   8.533   9.558   4.243
10931SOL    HW134626   8.495   9.637   4.205
10931SOL    HW234627   8.575   9.588   4.324
10932SOL     OW34628   1.288   0.118  13.564
10932SOL    HW134629   1.199   0.149  13.552
10932SOL    HW234630   1.340   0.198  13.575
10933SOL     OW34631   3.533  14.243  10.297
10933SOL    HW134632   3.597  14.173  10.289
10933SOL    HW234633   3.562  14.310  10.235
10934SOL     OW34634   7.432   4.615  10.083
10934SOL    HW134635   7.362   4.678  10.096
10934SOL    HW234636   7.512   4.666  10.088
10935SOL     OW34637   6.910   8.608   6.529
10935SOL    HW134638   6.888   8.698   6.551
10935SOL    HW234639   6.893   8.559   6.610
10936SOL     OW34640   9.660   8.904   2.988
10936SOL    HW134641   9.717   8.859   2.925
10936SOL    HW234642   9.701   8.889   3.073
10937SOL     OW34643  11.540   8.760  11.729
10937SOL    HW134644  11.613   8.702  11.750
10937SOL    HW234645  11.518   8.801  11.813
10938SOL     OW34646   7.311   3.779  10.533
10938SOL    HW134647   7.356   3.862  10.547
10938SOL    HW234648   7.381   3.715  10.526
10939SOL     OW34649   1.113   2.537  12.505
10939SOL    HW134650   1.034   2.527  12.453
10939SOL    HW234651   1.182   2.552  12.441
10940SOL     OW34652   7.942   5.817   1.536
10940SOL    HW134653   7.984   5.806   1.450
10940SOL    HW234654   7.860   5.767   1.529
10941SOL     OW34655   6.745  11.794   8.601
10941SOL    HW134656   6.820  11.735   8.608
10941SOL    HW234657   6.742  11.838   8.686
10942SOL     OW34658   4.700   1.167  10.639
10942SOL    HW134659   4.627   1.107  10.626
10942SOL    HW234660   4.758   1.152  10.565
10943SOL     OW34661   2.390   8.576   7.889
10943SOL    HW134662   2.331   8.521   7.942
10943SOL    HW234663   2.404   8.654   7.942
10944SOL     OW34664  14.074  14.798  12.212
10944SOL    HW134665  14.065  14.705  12.192
10944SOL    HW234666  13.986  14.825  12.238
10945SOL     OW34667  11.319   6.284   2.826
10945SOL    HW134668  11.326   6.192   2.851
10945SOL    HW234669  11.381   6.294   2.754
10946SOL     OW34670   4.809   7.143  11.518
10946SOL    HW134671   4.748   7.208  11.485
10946SOL    HW234672   4.839   7.096  11.440
10947SOL     OW34673   9.338  12.835   9.056
10947SOL    HW134674   9.315  12.924   9.032
10947SOL    HW234675   9.254  12.793   9.077
10948SOL     OW34676   8.403   9.052  11.625
10948SOL    HW134677   8.461   9.015  11.692
10948SOL    HW234678   8.325   9.080  11.674
10949SOL     OW34679   3.055   4.837  13.995
10949SOL    HW134680   3.107   4.914  14.020
10949SOL    HW234681   3.117   4.783  13.946
10950SOL     OW34682   5.103   1.684   8.202
10950SOL    HW134683   5.066   1.686   8.114
10950SOL    HW234684   5.063   1.608   8.244
10951SOL     OW34685  10.988   0.747   3.707
10951SOL    HW134686  10.943   0.704   3.780
10951SOL    HW234687  11.081   0.742   3.730
10952SOL     OW34688   1.217   0.698  13.076
10952SOL    HW134689   1.228   0.766  13.009
10952SOL    HW234690   1.288   0.713  13.137
10953SOL     OW34691   6.354   1.403   7.673
10953SOL    HW134692   6.323   1.473   7.614
10953SOL    HW234693   6.320   1.323   7.634
10954SOL     OW34694  12.113   5.241  12.214
10954SOL    HW134695  12.140   5.155  12.181
10954SOL    HW234696  12.045   5.222  12.278
10955SOL     OW34697  10.614   7.490  14.742
10955SOL    HW134698  10.530   7.522  14.709
10955SOL    HW234699  10.653   7.565  14.787
10956SOL     OW34700   0.300  10.832   5.148
10956SOL    HW134701   0.368  10.797   5.090
10956SOL    HW234702   0.341  10.834   5.234
10957SOL     OW34703   1.550  11.066   8.835
10957SOL    HW134704   1.552  11.031   8.745
10957SOL    HW234705   1.639  11.051   8.868
10958SOL     OW34706   5.909  11.047   3.068
10958SOL    HW134707   6.003  11.031   3.075
10958SOL    HW234708   5.872  10.965   3.037
10959SOL     OW34709   0.143   6.275   3.879
10959SOL    HW134710   0.214   6.305   3.936
10959SOL    HW234711   0.185   6.261   3.794
10960SOL     OW34712   9.815   7.534   3.560
10960SOL    HW134713   9.726   7.498   3.564
10960SOL    HW234714   9.847   7.507   3.473
10961SOL     OW34715   0.746   2.339  11.543
10961SOL    HW134716   0.675   2.312  11.484
10961SOL    HW234717   0.786   2.414  11.500
10962SOL     OW34718   4.074  11.518  12.600
10962SOL    HW134719   4.041  11.608  12.601
10962SOL    HW234720   4.137  11.517  12.528
10963SOL     OW34721   3.799   6.249  13.846
10963SOL    HW134722   3.727   6.208  13.894
10963SOL    HW234723   3.764   6.261  13.757
10964SOL     OW34724   6.975   8.339   8.622
10964SOL    HW134725   7.048   8.318   8.565
10964SOL    HW234726   7.013   8.341   8.710
10965SOL     OW34727  11.035   2.832  11.521
10965SOL    HW134728  11.018   2.899  11.587
10965SOL    HW234729  11.070   2.880  11.446
10966SOL     OW34730   8.055   2.680  11.863
10966SOL    HW134731   8.081   2.757  11.812
10966SOL    HW234732   8.134   2.625  11.865
10967SOL     OW34733   4.313  13.068   6.677
10967SOL    HW134734   4.373  13.142   6.692
10967SOL    HW234735   4.366  13.005   6.628
10968SOL     OW34736   7.221   2.925   6.146
10968SOL    HW134737   7.239   2.837   6.180
10968SOL    HW234738   7.294   2.942   6.086
10969SOL     OW34739  13.506   6.303   2.250
10969SOL    HW134740  13.598   6.279   2.237
10969SOL    HW234741  13.502   6.334   2.341
10970SOL     OW34742   6.068  10.978  12.104
10970SOL    HW134743   6.044  10.998  12.195
10970SOL    HW234744   6.005  10.912  12.077
10971SOL     OW34745  13.263   8.340   5.414
10971SOL    HW134746  13.327   8.400   5.452
10971SOL    HW234747  13.281   8.341   5.320
10972SOL     OW34748   5.783  10.291   2.401
10972SOL    HW134749   5.784  10.281   2.496
10972SOL    HW234750   5.858  10.349   2.383
10973SOL     OW34751   8.031   5.526  13.999
10973SOL    HW134752   8.115   5.502  13.960
10973SOL    HW234753   8.036   5.493  14.089
10974SOL     OW34754   0.467   0.722  13.640
10974SOL    HW134755   0.436   0.804  13.600
10974SOL    HW234756   0.562   0.732  13.643
10975SOL     OW34757   2.221   8.106  10.162
10975SOL    HW134758   2.148   8.167  10.155
10975SOL    HW234759   2.298   8.157  10.137
10976SOL     OW34760   7.735   1.515   1.305
10976SOL    HW134761   7.752   1.585   1.242
10976SOL    HW234762   7.768   1.436   1.263
10977SOL     OW34763   7.091  10.378   4.212
10977SOL    HW134764   7.114  10.469   4.226
10977SOL    HW234765   7.175  10.331   4.214
10978SOL     OW34766  13.986  12.850   3.664
10978SOL    HW134767  13.982  12.885   3.753
10978SOL    HW234768  14.079  12.853   3.641
10979SOL     OW34769   3.302   7.181  14.555
10979SOL    HW134770   3.249   7.256  14.583
10979SOL    HW234771   3.392   7.207  14.575
10980SOL     OW34772   8.205   9.222  10.724
10980SOL    HW134773   8.244   9.136  10.742
10980SOL    HW234774   8.280   9.281  10.718
10981SOL     OW34775   7.208   1.530  11.475
10981SOL    HW134776   7.178   1.616  11.448
10981SOL    HW234777   7.254   1.545  11.558
10982SOL     OW34778  10.291   6.661   6.650
10982SOL    HW134779  10.299   6.712   6.731
10982SOL    HW234780  10.378   6.667   6.610
10983SOL     OW34781  11.975   4.162   2.270
10983SOL    HW134782  11.899   4.194   2.222
10983SOL    HW234783  12.002   4.083   2.223
10984SOL     OW34784  13.417  13.810  13.675
10984SOL    HW134785  13.461  13.882  13.721
10984SOL    HW234786  13.422  13.835  13.582
10985SOL     OW34787  11.316   7.711   6.622
10985SOL    HW134788  11.252   7.783   6.621
10985SOL    HW234789  11.400   7.754   6.606
10986SOL     OW34790   2.314  14.109  10.667
10986SOL    HW134791   2.299  14.195  10.627
10986SOL    HW234792   2.392  14.120  10.721
10987SOL     OW34793   4.374   3.914   1.399
10987SOL    HW134794   4.346   3.920   1.490
10987SOL    HW234795   4.421   3.830   1.394
10988SOL     OW34796   5.411   6.266  12.239
10988SOL    HW134797   5.421   6.362  12.234
10988SOL    HW234798   5.319   6.253  12.263
10989SOL     OW34799  14.715  11.532   1.696
10989SOL    HW134800  14.758  11.461   1.743
10989SOL    HW234801  14.719  11.506   1.604
10990SOL     OW34802   6.538   0.493   4.517
10990SOL    HW134803   6.610   0.557   4.521
10990SOL    HW234804   6.459   0.546   4.516
10991SOL     OW34805  14.763  11.769   3.297
10991SOL    HW134806  14.698  11.710   3.333
10991SOL    HW234807  14.712  11.832   3.245
10992SOL     OW34808   1.520   8.520   5.279
10992SOL    HW134809   1.469   8.439   5.279
10992SOL    HW234810   1.608   8.492   5.308
10993SOL     OW34811   3.520   8.311   1.459
10993SOL    HW134812   3.578   8.343   1.528
10993SOL    HW234813   3.576   8.255   1.405
10994SOL     OW34814   1.299   7.821   4.937
10994SOL    HW134815   1.341   7.749   4.890
10994SOL    HW234816   1.364   7.846   5.004
10995SOL     OW34817   8.335   2.084   8.936
10995SOL    HW134818   8.241   2.091   8.946
10995SOL    HW234819   8.364   2.172   8.913
10996SOL     OW34820  14.596   4.298   3.186
10996SOL    HW134821  14.509   4.337   3.196
10996SOL    HW234822  14.581   4.204   3.191
10997SOL     OW34823   7.070   2.880   1.282
10997SOL    HW134824   7.135   2.921   1.340
10997SOL    HW234825   6.986   2.900   1.323
10998SOL     OW34826  11.000  14.760   6.851
10998SOL    HW134827  11.001  14.736   6.943
10998SOL    HW234828  11.087  14.738   6.819
10999SOL     OW34829  10.298   0.067   1.852
10999SOL    HW134830  10.319   0.053   1.759
10999SOL    HW234831  10.208   0.036   1.860
11000SOL     OW34832   7.770  11.555   6.498
11000SOL    HW134833   7.846  11.546   6.440
11000SOL    HW234834   7.707  11.491   6.464
11001SOL     OW34835   6.629   1.476  12.183
11001SOL    HW134836   6.683   1.544  12.223
11001SOL    HW234837   6.691   1.423  12.132
11002SOL     OW34838  13.260   5.461   6.729
11002SOL    HW134839  13.228   5.542   6.770
11002SOL    HW234840  13.192   5.438   6.665
11003SOL     OW34841   8.882   4.366   9.148
11003SOL    HW134842   8.913   4.326   9.229
11003SOL    HW234843   8.834   4.297   9.103
11004SOL     OW34844   4.353   5.561  13.316
11004SOL    HW134845   4.330   5.503  13.388
11004SOL    HW234846   4.422   5.617  13.351
11005SOL     OW34847   8.362   0.015   4.014
11005SOL    HW134848   8.348   0.037   4.107
11005SOL    HW234849   8.306  14.818   3.999
11006SOL     OW34850   6.411   7.405   0.117
11006SOL    HW134851   6.437   7.332   0.062
11006SOL    HW234852   6.344   7.451   0.067
11007SOL     OW34853   2.351  14.839  13.596
11007SOL    HW134854   2.372  14.784  13.521
11007SOL    HW234855   2.284   0.020  13.564
11008SOL     OW34856   6.521   5.766   5.243
11008SOL    HW134857   6.593   5.806   5.194
11008SOL    HW234858   6.558   5.684   5.276
11009SOL     OW34859  11.369  14.371  11.567
11009SOL    HW134860  11.384  14.284  11.605
11009SOL    HW234861  11.384  14.359  11.474
11010SOL     OW34862   2.658   4.466  14.214
11010SOL    HW134863   2.625   4.530  14.152
11010SOL    HW234864   2.634   4.501  14.300
11011SOL     OW34865   4.722   0.829   8.352
11011SOL    HW134866   4.787   0.846   8.421
11011SOL    HW234867   4.756   0.753   8.304
11012SOL     OW34868  13.643   3.419   5.842
11012SOL    HW134869  13.629   3.423   5.937
11012SOL    HW234870  13.720   3.474   5.827
11013SOL     OW34871   5.805   0.644   8.236
11013SOL    HW134872   5.794   0.600   8.320
11013SOL    HW234873   5.781   0.579   8.170
11014SOL     OW34874   3.905  14.843   2.227
11014SOL    HW134875   3.820   0.005   2.209
11014SOL    HW234876   3.885  14.773   2.289
11015SOL     OW34877   0.258   4.899   3.331
11015SOL    HW134878   0.337   4.871   3.376
11015SOL    HW234879   0.274   4.990   3.306
11016SOL     OW34880  11.194   2.704   0.308
11016SOL    HW134881  11.176   2.797   0.298
11016SOL    HW234882  11.284   2.694   0.277
11017SOL     OW34883   8.106  10.234  14.141
11017SOL    HW134884   8.180  10.199  14.190
11017SOL    HW234885   8.133  10.323  14.118
11018SOL     OW34886   7.920   3.123  12.273
11018SOL    HW134887   7.992   3.090  12.327
11018SOL    HW234888   7.851   3.056  12.282
11019SOL     OW34889   8.178   9.431   8.192
11019SOL    HW134890   8.246   9.366   8.173
11019SOL    HW234891   8.140   9.402   8.275
11020SOL     OW34892   1.718   3.878   5.279
11020SOL    HW134893   1.781   3.808   5.260
11020SOL    HW234894   1.751   3.921   5.357
11021SOL     OW34895  11.862   7.293   3.712
11021SOL    HW134896  11.847   7.350   3.788
11021SOL    HW234897  11.795   7.320   3.649
11022SOL     OW34898   0.071   4.785   2.391
11022SOL    HW134899   0.051   4.750   2.478
11022SOL    HW234900  14.866   4.819   2.359
11023SOL     OW34901   6.686   6.701  10.576
11023SOL    HW134902   6.674   6.732  10.665
11023SOL    HW234903   6.629   6.758  10.523
11024SOL     OW34904  11.215  10.192   8.883
11024SOL    HW134905  11.238  10.108   8.842
11024SOL    HW234906  11.289  10.213   8.939
11025SOL     OW34907  10.135   9.188   2.377
11025SOL    HW134908  10.130   9.282   2.361
11025SOL    HW234909  10.224   9.163   2.351
11026SOL     OW34910   7.324   4.934   8.876
11026SOL    HW134911   7.414   4.908   8.894
11026SOL    HW234912   7.283   4.856   8.838
11027SOL     OW34913   2.985  10.363  12.414
11027SOL    HW134914   3.035  10.308  12.474
11027SOL    HW234915   2.894  10.352  12.442
11028SOL     OW34916   7.797  12.428   3.511
11028SOL    HW134917   7.833  12.440   3.423
11028SOL    HW234918   7.702  12.423   3.498
11029SOL     OW34919   3.731  11.601   7.666
11029SOL    HW134920   3.652  11.641   7.629
11029SOL    HW234921   3.726  11.621   7.760
11030SOL     OW34922   4.858   0.090   7.695
11030SOL    HW134923   4.797   0.151   7.653
11030SOL    HW234924   4.871   0.020   7.631
11031SOL     OW34925   6.779   6.796   5.628
11031SOL    HW134926   6.715   6.762   5.690
11031SOL    HW234927   6.848   6.833   5.683
11032SOL     OW34928   6.784   3.247   5.595
11032SOL    HW134929   6.806   3.170   5.648
11032SOL    HW234930   6.809   3.221   5.506
11033SOL     OW34931   7.100   2.756   8.085
11033SOL    HW134932   7.067   2.767   7.997
11033SOL    HW234933   7.058   2.676   8.117
11034SOL     OW34934  11.227  11.905   6.703
11034SOL    HW134935  11.251  11.825   6.749
11034SOL    HW234936  11.305  11.961   6.711
11035SOL     OW34937  12.144  10.404   3.705
11035SOL    HW134938  12.186  10.355   3.776
11035SOL    HW234939  12.136  10.340   3.634
11036SOL     OW34940   6.080   0.105   3.571
11036SOL    HW134941   6.036   0.145   3.646
11036SOL    HW234942   6.039   0.145   3.494
11037SOL     OW34943  13.581   4.631   0.647
11037SOL    HW134944  13.503   4.576   0.640
11037SOL    HW234945  13.647   4.585   0.594
11038SOL     OW34946  13.650   6.272  14.315
11038SOL    HW134947  13.582   6.334  14.342
11038SOL    HW234948  13.667   6.293  14.223
11039SOL     OW34949   5.970   1.503  13.399
11039SOL    HW134950   5.888   1.491  13.446
11039SOL    HW234951   6.019   1.566  13.452
11040SOL     OW34952   1.671   0.628   0.360
11040SOL    HW134953   1.712   0.597   0.441
11040SOL    HW234954   1.720   0.584   0.290
11041SOL     OW34955   4.123   5.865   8.170
11041SOL    HW134956   4.077   5.802   8.225
11041SOL    HW234957   4.075   5.863   8.087
11042SOL     OW34958  10.702   3.104   6.433
11042SOL    HW134959  10.753   3.165   6.486
11042SOL    HW234960  10.647   3.057   6.496
11043SOL     OW34961   0.190  13.792  11.033
11043SOL    HW134962   0.148  13.856  10.975
11043SOL    HW234963   0.276  13.829  11.050
11044SOL     OW34964   2.756   7.098  14.112
11044SOL    HW134965   2.773   7.157  14.039
11044SOL    HW234966   2.767   7.010  14.076
11045SOL     OW34967   1.214  12.369   6.541
11045SOL    HW134968   1.177  12.390   6.627
11045SOL    HW234969   1.137  12.356   6.485
11046SOL     OW34970  13.590  12.283   6.469
11046SOL    HW134971  13.495  12.286   6.481
11046SOL    HW234972  13.616  12.374   6.459
11047SOL     OW34973  13.857  13.554  10.689
11047SOL    HW134974  13.871  13.607  10.611
11047SOL    HW234975  13.887  13.466  10.663
11048SOL     OW34976   0.874   8.014   6.619
11048SOL    HW134977   0.941   7.974   6.563
11048SOL    HW234978   0.835   7.940   6.666
11049SOL     OW34979  12.131   6.214   1.210
11049SOL    HW134980  12.071   6.264   1.266
11049SOL    HW234981  12.166   6.146   1.267
11050SOL     OW34982  13.466   0.594  12.388
11050SOL    HW134983  13.515   0.659  12.338
11050SOL    HW234984  13.385   0.639  12.414
11051SOL     OW34985   2.255  13.391   8.257
11051SOL    HW134986   2.345  13.405   8.227
11051SOL    HW234987   2.237  13.466   8.314
11052SOL     OW34988   5.241   2.590  12.020
11052SOL    HW134989   5.150   2.600  12.046
11052SOL    HW234990   5.272   2.514  12.070
11053SOL     OW34991  11.007  14.431   7.243
11053SOL    HW134992  11.021  14.382   7.323
11053SOL    HW234993  11.092  14.470   7.223
11054SOL     OW34994   1.597   7.463   6.952
11054SOL    HW134995   1.517   7.426   6.988
11054SOL    HW234996   1.586   7.558   6.959
11055SOL     OW34997   7.361   0.453  10.312
11055SOL    HW134998   7.418   0.416  10.379
11055SOL    HW234999   7.371   0.393  10.237
11056SOL     OW35000   6.316   1.400  10.263
11056SOL    HW135001   6.282   1.424  10.349
11056SOL    HW235002   6.373   1.472  10.238
11057SOL     OW35003   9.859   4.311   1.957
11057SOL    HW135004   9.838   4.266   1.876
11057SOL    HW235005   9.879   4.241   2.019
11058SOL     OW35006  11.009   6.698   7.142
11058SOL    HW135007  11.067   6.749   7.085
11058SOL    HW235008  11.004   6.748   7.223
11059SOL     OW35009   0.002   4.991   8.000
11059SOL    HW135010   0.039   5.051   7.935
11059SOL    HW235011  14.815   5.043   8.045
11060SOL     OW35012   1.884   5.455  12.516
11060SOL    HW135013   1.855   5.400  12.588
11060SOL    HW235014   1.896   5.395  12.442
11061SOL     OW35015   1.464  11.470   4.897
11061SOL    HW135016   1.452  11.499   4.806
11061SOL    HW235017   1.553  11.499   4.919
11062SOL     OW35018   7.868  14.869   1.365
11062SOL    HW135019   7.809   0.007   1.293
11062SOL    HW235020   7.892  14.776   1.356
11063SOL     OW35021   4.608   5.668  14.356
11063SOL    HW135022   4.605   5.572  14.349
11063SOL    HW235023   4.534   5.689  14.414
11064SOL     OW35024   7.727  12.147   7.625
11064SOL    HW135025   7.711  12.073   7.566
11064SOL    HW235026   7.640  12.169   7.659
11065SOL     OW35027   6.522  11.422   3.441
11065SOL    HW135028   6.431  11.398   3.459
11065SOL    HW235029   6.561  11.342   3.406
11066SOL     OW35030   9.673   8.562  13.869
11066SOL    HW135031   9.675   8.653  13.900
11066SOL    HW235032   9.764   8.533  13.873
11067SOL     OW35033   0.943   7.250   2.640
11067SOL    HW135034   0.876   7.193   2.677
11067SOL    HW235035   0.904   7.338   2.642
11068SOL     OW35036   6.214  12.017   9.135
11068SOL    HW135037   6.271  12.093   9.143
11068SOL    HW235038   6.140  12.037   9.192
11069SOL     OW35039   1.143   4.550   5.417
11069SOL    HW135040   1.077   4.481   5.413
11069SOL    HW235041   1.212   4.514   5.473
11070SOL     OW35042  11.704  12.029   2.723
11070SOL    HW135043  11.661  11.983   2.796
11070SOL    HW235044  11.789  11.987   2.715
11071SOL     OW35045   5.957   6.190   0.335
11071SOL    HW135046   5.993   6.237   0.260
11071SOL    HW235047   6.024   6.199   0.404
11072SOL     OW35048  13.243  13.905   4.107
11072SOL    HW135049  13.297  13.830   4.082
11072SOL    HW235050  13.265  13.921   4.199
11073SOL     OW35051  10.925   1.587  12.876
11073SOL    HW135052  10.918   1.600  12.971
11073SOL    HW235053  10.958   1.670  12.842
11074SOL     OW35054   2.766   6.351   0.476
11074SOL    HW135055   2.812   6.353   0.560
11074SOL    HW235056   2.819   6.405   0.418
11075SOL     OW35057   8.158  14.645   5.873
11075SOL    HW135058   8.076  14.653   5.825
11075SOL    HW235059   8.175  14.551   5.876
11076SOL     OW35060   8.360   9.619   2.335
11076SOL    HW135061   8.439   9.668   2.358
11076SOL    HW235062   8.305   9.681   2.288
11077SOL     OW35063   0.389   4.851   6.193
11077SOL    HW135064   0.437   4.930   6.214
11077SOL    HW235065   0.421   4.825   6.107
11078SOL     OW35066   1.820   6.250   7.341
11078SOL    HW135067   1.811   6.155   7.348
11078SOL    HW235068   1.890   6.272   7.402
11079SOL     OW35069   7.726  11.710  14.469
11079SOL    HW135070   7.789  11.766  14.424
11079SOL    HW235071   7.702  11.759  14.548
11080SOL     OW35072   0.154   1.063  13.568
11080SOL    HW135073   0.150   0.977  13.527
11080SOL    HW235074   0.227   1.108  13.524
11081SOL     OW35075  10.332  10.012   2.491
11081SOL    HW135076  10.378   9.975   2.416
11081SOL    HW235077  10.248   9.967   2.492
11082SOL     OW35078   4.475   8.305   1.213
11082SOL    HW135079   4.383   8.284   1.195
11082SOL    HW235080   4.500   8.248   1.285
11083SOL     OW35081  10.075  12.255   9.106
11083SOL    HW135082  10.145  12.245   9.042
11083SOL    HW235083   9.999  12.213   9.066
11084SOL     OW35084   9.059   7.408   4.512
11084SOL    HW135085   9.026   7.498   4.516
11084SOL    HW235086   9.090   7.390   4.600
11085SOL     OW35087  11.030   2.698   4.832
11085SOL    HW135088  11.055   2.626   4.775
11085SOL    HW235089  11.096   2.765   4.817
11086SOL     OW35090   3.110  12.802   9.823
11086SOL    HW135091   3.034  12.858   9.807
11086SOL    HW235092   3.094  12.763   9.909
11087SOL     OW35093  12.498   5.692  13.170
11087SOL    HW135094  12.440   5.652  13.234
11087SOL    HW235095  12.585   5.689  13.211
11088SOL     OW35096   5.310   9.408   3.778
11088SOL    HW135097   5.317   9.503   3.779
11088SOL    HW235098   5.337   9.380   3.865
11089SOL     OW35099   3.398   6.131   3.967
11089SOL    HW135100   3.388   6.218   3.929
11089SOL    HW235101   3.391   6.071   3.893
11090SOL     OW35102   4.494   6.891   1.488
11090SOL    HW135103   4.430   6.941   1.539
11090SOL    HW235104   4.544   6.842   1.554
11091SOL     OW35105   0.543  11.313  12.666
11091SOL    HW135106   0.514  11.292  12.755
11091SOL    HW235107   0.492  11.254  12.610
11092SOL     OW35108   8.866  14.143  11.314
11092SOL    HW135109   8.918  14.183  11.384
11092SOL    HW235110   8.788  14.198  11.309
11093SOL     OW35111   8.777   0.768  13.133
11093SOL    HW135112   8.824   0.685  13.134
11093SOL    HW235113   8.846   0.835  13.138
11094SOL     OW35114  10.934   7.062   0.755
11094SOL    HW135115  10.928   7.120   0.679
11094SOL    HW235116  10.870   6.993   0.739
11095SOL     OW35117  14.737   4.715  14.435
11095SOL    HW135118  14.786   4.732  14.516
11095SOL    HW235119  14.803   4.724  14.366
11096SOL     OW35120   7.887   2.111   1.114
11096SOL    HW135121   7.877   2.020   1.142
11096SOL    HW235122   7.799   2.138   1.087
11097SOL     OW35123  14.469   0.548   7.127
11097SOL    HW135124  14.415   0.621   7.095
11097SOL    HW235125  14.556   0.587   7.139
11098SOL     OW35126  11.477  14.374   1.103
11098SOL    HW135127  11.530  14.325   1.165
11098SOL    HW235128  11.506  14.344   1.017
11099SOL     OW35129   3.246  10.985  11.494
11099SOL    HW135130   3.294  10.946  11.567
11099SOL    HW235131   3.176  10.922  11.475
11100SOL     OW35132   2.349   4.497  10.582
11100SOL    HW135133   2.342   4.518  10.675
11100SOL    HW235134   2.426   4.441  10.575
11101SOL     OW35135   5.300  10.927   5.793
11101SOL    HW135136   5.308  11.012   5.835
11101SOL    HW235137   5.390  10.897   5.781
11102SOL     OW35138  12.262   4.406  14.449
11102SOL    HW135139  12.268   4.345  14.375
11102SOL    HW235140  12.341   4.390  14.500
11103SOL     OW35141   7.295   5.597   4.457
11103SOL    HW135142   7.360   5.654   4.416
11103SOL    HW235143   7.250   5.652   4.520
11104SOL     OW35144  10.714  12.097  10.405
11104SOL    HW135145  10.766  12.028  10.445
11104SOL    HW235146  10.623  12.070  10.419
11105SOL     OW35147   8.201  14.371  11.237
11105SOL    HW135148   8.233  14.297  11.288
11105SOL    HW235149   8.280  14.422  11.217
11106SOL     OW35150  14.257  13.215   5.997
11106SOL    HW135151  14.344  13.192   5.965
11106SOL    HW235152  14.203  13.139   5.973
11107SOL     OW35153  10.242   1.772  11.124
11107SOL    HW135154  10.201   1.753  11.039
11107SOL    HW235155  10.199   1.713  11.186
11108SOL     OW35156   5.822  10.272  14.270
11108SOL    HW135157   5.764  10.201  14.298
11108SOL    HW235158   5.767  10.351  14.276
11109SOL     OW35159   7.033   0.087  10.207
11109SOL    HW135160   6.969   0.147  10.168
11109SOL    HW235161   7.057   0.127  10.290
11110SOL     OW35162  11.525   2.177   9.001
11110SOL    HW135163  11.516   2.241   9.072
11110SOL    HW235164  11.436   2.168   8.967
11111SOL     OW35165  13.812   2.648   4.251
11111SOL    HW135166  13.811   2.559   4.286
11111SOL    HW235167  13.750   2.645   4.178
11112SOL     OW35168  10.072   8.478  13.390
11112SOL    HW135169  10.150   8.479  13.446
11112SOL    HW235170  10.014   8.414  13.431
11113SOL     OW35171  14.498  12.091  10.324
11113SOL    HW135172  14.534  12.100  10.236
11113SOL    HW235173  14.431  12.159  10.330
11114SOL     OW35174   8.791   6.749   9.097
11114SOL    HW135175   8.840   6.820   9.137
11114SOL    HW235176   8.699   6.773   9.108
11115SOL     OW35177   3.920   2.844   8.409
11115SOL    HW135178   3.885   2.832   8.320
11115SOL    HW235179   3.901   2.763   8.454
11116SOL     OW35180  14.812   4.717   8.463
11116SOL    HW135181  14.778   4.734   8.375
11116SOL    HW235182  14.774   4.633   8.488
11117SOL     OW35183  10.809   9.364   2.874
11117SOL    HW135184  10.886   9.417   2.854
11117SOL    HW235185  10.744   9.390   2.808
11118SOL     OW35186   2.293   4.130   1.505
11118SOL    HW135187   2.384   4.158   1.516
11118SOL    HW235188   2.285   4.051   1.557
11119SOL     OW35189   6.464   9.561  14.093
11119SOL    HW135190   6.413   9.640  14.072
11119SOL    HW235191   6.533   9.559  14.027
11120SOL     OW35192   9.019   8.332   6.329
11120SOL    HW135193   9.046   8.351   6.239
11120SOL    HW235194   9.100   8.332   6.379
11121SOL     OW35195   9.841   5.049   6.080
11121SOL    HW135196   9.799   5.096   6.008
11121SOL    HW235197   9.771   4.999   6.120
11122SOL     OW35198  11.440  14.178   4.499
11122SOL    HW135199  11.437  14.269   4.527
11122SOL    HW235200  11.526  14.167   4.459
11123SOL     OW35201   1.586   8.682  12.208
11123SOL    HW135202   1.660   8.621  12.209
11123SOL    HW235203   1.510   8.627  12.192
11124SOL     OW35204   2.720   4.944   4.831
11124SOL    HW135205   2.750   4.897   4.754
11124SOL    HW235206   2.779   5.019   4.838
11125SOL     OW35207   8.301  10.742   4.002
11125SOL    HW135208   8.376  10.689   4.031
11125SOL    HW235209   8.334  10.791   3.927
11126SOL     OW35210   9.080  13.514   8.785
11126SOL    HW135211   9.059  13.455   8.857
11126SOL    HW235212   9.144  13.575   8.820
11127SOL     OW35213   9.592   5.225  10.465
11127SOL    HW135214   9.537   5.294  10.428
11127SOL    HW235215   9.594   5.245  10.559
11128SOL     OW35216  14.649   2.111   9.586
11128SOL    HW135217  14.616   2.022   9.596
11128SOL    HW235218  14.588   2.164   9.638
11129SOL     OW35219   4.358  14.510   1.443
11129SOL    HW135220   4.319  14.580   1.391
11129SOL    HW235221   4.437  14.549   1.480
11130SOL     OW35222   9.532   2.427   3.621
11130SOL    HW135223   9.507   2.519   3.626
11130SOL    HW235224   9.540   2.399   3.713
11131SOL     OW35225   8.733  14.713  13.557
11131SOL    HW135226   8.813  14.674  13.523
11131SOL    HW235227   8.663  14.672  13.507
11132SOL     OW35228  10.260   4.093   4.506
11132SOL    HW135229  10.211   4.097   4.424
11132SOL    HW235230  10.306   4.177   4.510
11133SOL     OW35231  12.494   9.752   9.564
11133SOL    HW135232  12.531   9.751   9.652
11133SOL    HW235233  12.432   9.678   9.563
11134SOL     OW35234  12.117   5.644   2.967
11134SOL    HW135235  12.147   5.631   2.877
11134SOL    HW235236  12.057   5.719   2.961
11135SOL     OW35237  11.380  12.824  11.984
11135SOL    HW135238  11.375  12.741  11.936
11135SOL    HW235239  11.413  12.887  11.920
11136SOL     OW35240   2.387  12.764   5.878
11136SOL    HW135241   2.460  12.761   5.815
11136SOL    HW235242   2.381  12.675   5.913
11137SOL     OW35243   4.053   2.001   5.436
11137SOL    HW135244   4.002   2.037   5.362
11137SOL    HW235245   3.993   2.007   5.510
11138SOL     OW35246   0.514   7.685  12.837
11138SOL    HW135247   0.469   7.659  12.917
11138SOL    HW235248   0.515   7.606  12.783
11139SOL     OW35249   5.520   6.941   7.806
11139SOL    HW135250   5.535   6.876   7.737
11139SOL    HW235251   5.426   6.959   7.802
11140SOL     OW35252  10.398  13.558   7.080
11140SOL    HW135253  10.437  13.523   7.160
11140SOL    HW235254  10.389  13.483   7.022
11141SOL     OW35255   4.237  13.013   5.546
11141SOL    HW135256   4.309  12.981   5.601
11141SOL    HW235257   4.159  12.993   5.597
11142SOL     OW35258   0.216   2.168   1.947
11142SOL    HW135259   0.276   2.142   1.877
11142SOL    HW235260   0.183   2.254   1.920
11143SOL     OW35261   3.199   5.753  11.432
11143SOL    HW135262   3.233   5.816  11.495
11143SOL    HW235263   3.103   5.761  11.438
11144SOL     OW35264   3.589   6.680   8.667
11144SOL    HW135265   3.607   6.631   8.747
11144SOL    HW235266   3.566   6.768   8.697
11145SOL     OW35267  11.926  12.565   3.645
11145SOL    HW135268  11.902  12.643   3.594
11145SOL    HW235269  11.949  12.599   3.731
11146SOL     OW35270   9.888  11.651   3.780
11146SOL    HW135271   9.924  11.719   3.837
11146SOL    HW235272   9.919  11.674   3.692
11147SOL     OW35273   3.844   6.576   9.931
11147SOL    HW135274   3.790   6.653   9.949
11147SOL    HW235275   3.933   6.610   9.926
11148SOL     OW35276  14.424   4.593   5.323
11148SOL    HW135277  14.364   4.658   5.359
11148SOL    HW235278  14.512   4.629   5.338
11149SOL     OW35279   3.238   8.736  13.936
11149SOL    HW135280   3.200   8.821  13.956
11149SOL    HW235281   3.164   8.676  13.935
11150SOL     OW35282   6.088   0.503   1.626
11150SOL    HW135283   6.052   0.576   1.576
11150SOL    HW235284   6.179   0.528   1.642
11151SOL     OW35285  11.168  14.583  14.281
11151SOL    HW135286  11.192  14.490  14.276
11151SOL    HW235287  11.242  14.628  14.242
11152SOL     OW35288  10.999   4.289  12.453
11152SOL    HW135289  10.930   4.310  12.390
11152SOL    HW235290  11.001   4.364  12.512
11153SOL     OW35291   2.221   6.114  10.873
11153SOL    HW135292   2.200   6.176  10.804
11153SOL    HW235293   2.202   6.028  10.834
11154SOL     OW35294   7.665   4.241  13.132
11154SOL    HW135295   7.623   4.176  13.075
11154SOL    HW235296   7.702   4.189  13.204
11155SOL     OW35297   4.173   9.908   4.511
11155SOL    HW135298   4.119   9.909   4.590
11155SOL    HW235299   4.246   9.967   4.532
11156SOL     OW35300   1.680   3.659   1.962
11156SOL    HW135301   1.607   3.702   2.007
11156SOL    HW235302   1.677   3.694   1.873
11157SOL     OW35303  10.493   2.090   2.435
11157SOL    HW135304  10.425   2.111   2.498
11157SOL    HW235305  10.481   2.153   2.364
11158SOL     OW35306   7.025   9.505   2.709
11158SOL    HW135307   6.975   9.475   2.785
11158SOL    HW235308   7.082   9.574   2.744
11159SOL     OW35309  13.579  10.575   9.231
11159SOL    HW135310  13.509  10.556   9.293
11159SOL    HW235311  13.536  10.578   9.146
11160SOL     OW35312  11.696  11.439   9.762
11160SOL    HW135313  11.685  11.384   9.840
11160SOL    HW235314  11.771  11.401   9.717
11161SOL     OW35315   2.114   1.033   1.894
11161SOL    HW135316   2.210   1.040   1.896
11161SOL    HW235317   2.083   1.121   1.914
11162SOL     OW35318   1.487  11.098  13.493
11162SOL    HW135319   1.487  11.007  13.522
11162SOL    HW235320   1.481  11.149  13.573
11163SOL     OW35321   1.992   2.040   9.556
11163SOL    HW135322   1.936   2.096   9.502
11163SOL    HW235323   1.936   2.015   9.630
11164SOL     OW35324   3.782  13.270  11.200
11164SOL    HW135325   3.795  13.294  11.292
11164SOL    HW235326   3.696  13.227  11.199
11165SOL     OW35327   5.496   3.183   0.819
11165SOL    HW135328   5.531   3.119   0.758
11165SOL    HW235329   5.535   3.266   0.791
11166SOL     OW35330   3.695   6.236  13.569
11166SOL    HW135331   3.610   6.224  13.526
11166SOL    HW235332   3.742   6.296  13.512
11167SOL     OW35333   0.353  12.340  13.301
11167SOL    HW135334   0.439  12.383  13.300
11167SOL    HW235335   0.359  12.275  13.231
11168SOL     OW35336   2.001   5.827   7.620
11168SOL    HW135337   2.034   5.747   7.578
11168SOL    HW235338   1.962   5.877   7.548
11169SOL     OW35339  13.898   9.378   9.151
11169SOL    HW135340  13.948   9.318   9.206
11169SOL    HW235341  13.900   9.461   9.199
11170SOL     OW35342   1.266   7.180   6.070
11170SOL    HW135343   1.192   7.174   6.010
11170SOL    HW235344   1.292   7.272   6.068
11171SOL     OW35345   2.277  12.232  11.190
11171SOL    HW135346   2.260  12.224  11.096
11171SOL    HW235347   2.358  12.183  11.204
11172SOL     OW35348   8.726  10.984   6.653
11172SOL    HW135349   8.640  10.968   6.692
11172SOL    HW235350   8.782  10.918   6.692
11173SOL     OW35351   4.984   0.246   5.335
11173SOL    HW135352   4.928   0.189   5.387
11173SOL    HW235353   4.953   0.334   5.355
11174SOL     OW35354   6.317   1.499  13.495
11174SOL    HW135355   6.395   1.522  13.444
11174SOL    HW235356   6.304   1.406  13.478
11175SOL     OW35357   3.330   8.393   0.489
11175SOL    HW135358   3.266   8.427   0.551
11175SOL    HW235359   3.278   8.351   0.421
11176SOL     OW35360  10.474  12.735   7.160
11176SOL    HW135361  10.545  12.739   7.224
11176SOL    HW235362  10.489  12.809   7.101
11177SOL     OW35363   7.910   1.165   3.971
11177SOL    HW135364   7.930   1.237   3.911
11177SOL    HW235365   7.992   1.116   3.977
11178SOL     OW35366   7.242   9.908  12.781
11178SOL    HW135367   7.279   9.920  12.868
11178SOL    HW235368   7.194   9.825  12.787
11179SOL     OW35369   5.860   9.332   5.352
11179SOL    HW135370   5.789   9.336   5.416
11179SOL    HW235371   5.909   9.413   5.366
11180SOL     OW35372   6.088   4.114   9.113
11180SOL    HW135373   6.091   4.052   9.186
11180SOL    HW235374   6.078   4.199   9.155
11181SOL     OW35375   1.619  10.680  11.903
11181SOL    HW135376   1.634  10.754  11.843
11181SOL    HW235377   1.651  10.604  11.855
11182SOL     OW35378   6.749  12.572   3.850
11182SOL    HW135379   6.758  12.487   3.805
11182SOL    HW235380   6.805  12.631   3.800
11183SOL     OW35381   2.879   6.791   6.285
11183SOL    HW135382   2.876   6.884   6.263
11183SOL    HW235383   2.796   6.757   6.253
11184SOL     OW35384   0.114   6.229  11.351
11184SOL    HW135385   0.180   6.206  11.416
11184SOL    HW235386   0.034   6.244  11.401
11185SOL     OW35387   6.754  12.556   2.354
11185SOL    HW135388   6.743  12.500   2.430
11185SOL    HW235389   6.833  12.523   2.311
11186SOL     OW35390   4.826   8.847   1.181
11186SOL    HW135391   4.900   8.853   1.119
11186SOL    HW235392   4.806   8.938   1.203
11187SOL     OW35393   0.726   8.238   5.783
11187SOL    HW135394   0.662   8.269   5.718
11187SOL    HW235395   0.805   8.290   5.766
11188SOL     OW35396  14.267  11.251  12.370
11188SOL    HW135397  14.329  11.311  12.412
11188SOL    HW235398  14.258  11.179  12.432
11189SOL     OW35399   0.029  12.116   3.203
11189SOL    HW135400   0.102  12.061   3.176
11189SOL    HW235401  14.863  12.138   3.122
11190SOL     OW35402   4.874   4.891   7.572
11190SOL    HW135403   4.954   4.841   7.553
11190SOL    HW235404   4.851   4.866   7.662
11191SOL     OW35405  10.161   5.985   4.980
11191SOL    HW135406  10.241   6.003   4.931
11191SOL    HW235407  10.190   5.936   5.057
11192SOL     OW35408  11.754   9.229   0.162
11192SOL    HW135409  11.659   9.233   0.177
11192SOL    HW235410  11.762   9.196   0.072
11193SOL     OW35411  11.687   7.519  12.091
11193SOL    HW135412  11.634   7.574  12.033
11193SOL    HW235413  11.696   7.570  12.171
11194SOL     OW35414   3.783  12.721   5.093
11194SOL    HW135415   3.783  12.640   5.043
11194SOL    HW235416   3.706  12.769   5.062
11195SOL     OW35417  14.049   0.866   1.024
11195SOL    HW135418  14.135   0.869   0.982
11195SOL    HW235419  14.055   0.792   1.084
11196SOL     OW35420   8.776  14.253   9.619
11196SOL    HW135421   8.744  14.326   9.671
11196SOL    HW235422   8.854  14.287   9.575
11197SOL     OW35423   7.154  13.993   6.169
11197SOL    HW135424   7.085  13.929   6.154
11197SOL    HW235425   7.142  14.022   6.259
11198SOL     OW35426   9.435   6.533   6.064
11198SOL    HW135427   9.458   6.505   5.976
11198SOL    HW235428   9.494   6.485   6.121
11199SOL     OW35429  12.512   9.243   7.039
11199SOL    HW135430  12.489   9.203   6.954
11199SOL    HW235431  12.555   9.173   7.088
11200SOL     OW35432  10.158  11.768  14.759
11200SOL    HW135433  10.153  11.706  14.832
11200SOL    HW235434  10.067  11.785  14.737
11201SOL     OW35435  10.830   8.994   2.351
11201SOL    HW135436  10.871   8.908   2.358
11201SOL    HW235437  10.901   9.053   2.325
11202SOL     OW35438   2.770  11.360  11.783
11202SOL    HW135439   2.745  11.376  11.874
11202SOL    HW235440   2.848  11.414  11.770
11203SOL     OW35441   4.323   8.596   5.840
11203SOL    HW135442   4.392   8.626   5.781
11203SOL    HW235443   4.337   8.502   5.849
11204SOL     OW35444  13.541   9.107  14.277
11204SOL    HW135445  13.634   9.097  14.258
11204SOL    HW235446  13.532   9.086  14.369
11205SOL     OW35447   8.137   5.706   6.083
11205SOL    HW135448   8.159   5.662   6.001
11205SOL    HW235449   8.120   5.635   6.144
11206SOL     OW35450   0.869   3.124   0.928
11206SOL    HW135451   0.775   3.135   0.921
11206SOL    HW235452   0.903   3.212   0.941
11207SOL     OW35453   0.931   8.184   4.394
11207SOL    HW135454   0.876   8.117   4.355
11207SOL    HW235455   0.983   8.138   4.461
11208SOL     OW35456  10.442   1.412   0.990
11208SOL    HW135457  10.450   1.367   1.074
11208SOL    HW235458  10.413   1.344   0.929
11209SOL     OW35459  10.101   9.205   8.520
11209SOL    HW135460  10.184   9.159   8.531
11209SOL    HW235461  10.096   9.223   8.426
11210SOL     OW35462   5.837  13.909   7.665
11210SOL    HW135463   5.792  13.863   7.736
11210SOL    HW235464   5.799  13.872   7.585
11211SOL     OW35465   3.810  10.126   1.724
11211SOL    HW135466   3.742  10.096   1.664
11211SOL    HW235467   3.836  10.211   1.690
11212SOL     OW35468   4.718   0.468  13.609
11212SOL    HW135469   4.741   0.528  13.680
11212SOL    HW235470   4.635   0.502  13.574
11213SOL     OW35471   4.220  10.980   0.748
11213SOL    HW135472   4.266  10.902   0.715
11213SOL    HW235473   4.247  11.051   0.690
11214SOL     OW35474  11.959   8.764   2.903
11214SOL    HW135475  11.877   8.742   2.946
11214SOL    HW235476  12.021   8.698   2.933
11215SOL     OW35477   6.345   7.258  14.275
11215SOL    HW135478   6.291   7.184  14.247
11215SOL    HW235479   6.304   7.288  14.356
11216SOL     OW35480   5.475   8.782  10.613
11216SOL    HW135481   5.453   8.875  10.620
11216SOL    HW235482   5.407   8.745  10.557
11217SOL     OW35483  13.982   3.641   8.237
11217SOL    HW135484  13.932   3.636   8.319
11217SOL    HW235485  13.961   3.727   8.202
11218SOL     OW35486   6.401  12.687   1.947
11218SOL    HW135487   6.477  12.701   2.004
11218SOL    HW235488   6.435  12.702   1.858
11219SOL     OW35489  14.860   4.993   1.692
11219SOL    HW135490  14.778   5.034   1.720
11219SOL    HW235491  14.833   4.912   1.648
11220SOL     OW35492   2.506  14.419  12.610
11220SOL    HW135493   2.426  14.468  12.630
11220SOL    HW235494   2.495  14.390  12.520
11221SOL     OW35495  13.219   2.707  14.419
11221SOL    HW135496  13.132   2.746  14.418
11221SOL    HW235497  13.242   2.698  14.326
11222SOL     OW35498   4.298   0.406  10.108
11222SOL    HW135499   4.347   0.417  10.189
11222SOL    HW235500   4.325   0.481  10.054
11223SOL     OW35501   3.866   4.153   3.007
11223SOL    HW135502   3.870   4.185   2.916
11223SOL    HW235503   3.950   4.109   3.021
11224SOL     OW35504  13.142   8.398   1.101
11224SOL    HW135505  13.047   8.387   1.090
11224SOL    HW235506  13.153   8.491   1.123
11225SOL     OW35507  11.870   9.519   8.074
11225SOL    HW135508  11.876   9.614   8.087
11225SOL    HW235509  11.856   9.509   7.979
11226SOL     OW35510   9.662   2.343   2.451
11226SOL    HW135511   9.592   2.327   2.514
11226SOL    HW235512   9.723   2.271   2.464
11227SOL     OW35513  11.085   7.617  12.804
11227SOL    HW135514  11.068   7.565  12.882
11227SOL    HW235515  11.061   7.560  12.731
11228SOL     OW35516   2.837   1.430  10.834
11228SOL    HW135517   2.919   1.381  10.846
11228SOL    HW235518   2.836   1.452  10.741
11229SOL     OW35519  12.755   4.201   8.431
11229SOL    HW135520  12.781   4.259   8.502
11229SOL    HW235521  12.790   4.115   8.456
11230SOL     OW35522   6.120  13.881   0.604
11230SOL    HW135523   6.205  13.921   0.622
11230SOL    HW235524   6.056  13.949   0.625
11231SOL     OW35525   5.330   6.345   1.309
11231SOL    HW135526   5.282   6.346   1.227
11231SOL    HW235527   5.399   6.280   1.297
11232SOL     OW35528   0.678  12.930  12.223
11232SOL    HW135529   0.638  12.859  12.273
11232SOL    HW235530   0.756  12.954  12.273
11233SOL     OW35531   2.886  11.608   9.711
11233SOL    HW135532   2.832  11.531   9.692
11233SOL    HW235533   2.974  11.573   9.724
11234SOL     OW35534   9.742   0.816   4.432
11234SOL    HW135535   9.769   0.727   4.453
11234SOL    HW235536   9.647   0.812   4.428
11235SOL     OW35537   6.038  10.148   8.865
11235SOL    HW135538   5.964  10.089   8.881
11235SOL    HW235539   6.108  10.116   8.921
11236SOL     OW35540   5.499   0.860   9.127
11236SOL    HW135541   5.505   0.875   9.032
11236SOL    HW235542   5.552   0.930   9.165
11237SOL     OW35543  14.736  12.986   9.433
11237SOL    HW135544  14.769  12.907   9.389
11237SOL    HW235545  14.712  12.956   9.520
11238SOL     OW35546  10.092   0.400   5.410
11238SOL    HW135547  10.016   0.366   5.362
11238SOL    HW235548  10.067   0.392   5.502
11239SOL     OW35549  13.902   5.029  13.712
11239SOL    HW135550  13.902   4.934  13.725
11239SOL    HW235551  13.853   5.063  13.787
11240SOL     OW35552   9.518  14.576   9.538
11240SOL    HW135553   9.434  14.584   9.492
11240SOL    HW235554   9.529  14.660   9.582
11241SOL     OW35555   8.340  14.789   5.158
11241SOL    HW135556   8.289  14.736   5.097
11241SOL    HW235557   8.355  14.872   5.112
11242SOL     OW35558   3.597  13.546   8.149
11242SOL    HW135559   3.612  13.475   8.212
11242SOL    HW235560   3.658  13.529   8.078
11243SOL     OW35561   8.756   3.924   4.259
11243SOL    HW135562   8.765   3.854   4.323
11243SOL    HW235563   8.838   3.973   4.265
11244SOL     OW35564  10.697   6.230   6.764
11244SOL    HW135565  10.739   6.165   6.708
11244SOL    HW235566  10.707   6.196   6.853
11245SOL     OW35567  12.829  13.286   8.024
11245SOL    HW135568  12.763  13.222   8.051
11245SOL    HW235569  12.879  13.304   8.104
11246SOL     OW35570   0.097  10.914   4.471
11246SOL    HW135571   0.153  10.977   4.425
11246SOL    HW235572   0.046  10.967   4.532
11247SOL     OW35573   7.982  10.301   6.574
11247SOL    HW135574   8.023  10.264   6.653
11247SOL    HW235575   7.971  10.226   6.516
11248SOL     OW35576   1.242  12.709   9.014
11248SOL    HW135577   1.222  12.696   9.107
11248SOL    HW235578   1.181  12.777   8.986
11249SOL     OW35579   1.744   0.073  12.484
11249SOL    HW135580   1.692   0.075  12.563
11249SOL    HW235581   1.682   0.047  12.415
11250SOL     OW35582  11.327   0.126  13.734
11250SOL    HW135583  11.360   0.041  13.763
11250SOL    HW235584  11.405   0.176  13.710
11251SOL     OW35585   0.979  10.488  14.802
11251SOL    HW135586   0.962  10.440   0.004
11251SOL    HW235587   0.922  10.447  14.737
11252SOL     OW35588  14.433  12.135  13.955
11252SOL    HW135589  14.457  12.177  13.872
11252SOL    HW235590  14.340  12.151  13.964
11253SOL     OW35591   6.457   0.737   6.114
11253SOL    HW135592   6.513   0.670   6.152
11253SOL    HW235593   6.386   0.689   6.071
11254SOL     OW35594   2.929  12.062  11.177
11254SOL    HW135595   2.843  12.093  11.208
11254SOL    HW235596   2.992  12.107  11.233
11255SOL     OW35597   9.142   5.361  12.375
11255SOL    HW135598   9.093   5.385  12.454
11255SOL    HW235599   9.127   5.268  12.364
11256SOL     OW35600   7.684   2.262  11.265
11256SOL    HW135601   7.610   2.260  11.325
11256SOL    HW235602   7.689   2.174  11.229
11257SOL     OW35603   7.236   2.317  11.882
11257SOL    HW135604   7.165   2.348  11.826
11257SOL    HW235605   7.194   2.260  11.946
11258SOL     OW35606   3.916   8.674  12.848
11258SOL    HW135607   3.930   8.579  12.852
11258SOL    HW235608   3.886   8.697  12.936
11259SOL     OW35609   3.014   3.072  12.340
11259SOL    HW135610   3.002   2.978  12.326
11259SOL    HW235611   2.934   3.112  12.307
11260SOL     OW35612   9.339   3.835  12.294
11260SOL    HW135613   9.276   3.900  12.325
11260SOL    HW235614   9.353   3.857  12.202
11261SOL     OW35615   5.324  11.401  12.239
11261SOL    HW135616   5.321  11.361  12.153
11261SOL    HW235617   5.318  11.327  12.300
11262SOL     OW35618   0.715   0.792   4.571
11262SOL    HW135619   0.802   0.754   4.558
11262SOL    HW235620   0.654   0.724   4.542
11263SOL     OW35621   5.529   6.747   1.852
11263SOL    HW135622   5.538   6.652   1.844
11263SOL    HW235623   5.593   6.782   1.789
11264SOL     OW35624  12.167   5.439   1.608
11264SOL    HW135625  12.234   5.460   1.674
11264SOL    HW235626  12.212   5.444   1.524
11265SOL     OW35627  13.494   1.627   0.086
11265SOL    HW135628  13.499   1.723   0.079
11265SOL    HW235629  13.462   1.599  14.879
11266SOL     OW35630   1.359   7.566   1.822
11266SOL    HW135631   1.310   7.641   1.857
11266SOL    HW235632   1.388   7.596   1.736
11267SOL     OW35633   5.176   5.284  12.792
11267SOL    HW135634   5.161   5.346  12.720
11267SOL    HW235635   5.153   5.333  12.871
11268SOL     OW35636   1.854   4.900   2.024
11268SOL    HW135637   1.822   4.830   1.968
11268SOL    HW235638   1.798   4.975   2.003
11269SOL     OW35639  12.576  11.880  10.623
11269SOL    HW135640  12.513  11.918  10.563
11269SOL    HW235641  12.643  11.948  10.634
11270SOL     OW35642  10.233  11.616  13.056
11270SOL    HW135643  10.256  11.655  12.972
11270SOL    HW235644  10.273  11.529  13.054
11271SOL     OW35645  10.473   0.938  10.712
11271SOL    HW135646  10.465   0.853  10.668
11271SOL    HW235647  10.469   0.916  10.805
11272SOL     OW35648   6.941   6.901   4.575
11272SOL    HW135649   7.018   6.949   4.603
11272SOL    HW235650   6.874   6.968   4.559
11273SOL     OW35651   4.539   5.417  14.219
11273SOL    HW135652   4.493   5.338  14.191
11273SOL    HW235653   4.516   5.483  14.153
11274SOL     OW35654  13.865   8.132   8.994
11274SOL    HW135655  13.796   8.096   8.937
11274SOL    HW235656  13.947   8.108   8.950
11275SOL     OW35657   8.388   3.766   2.114
11275SOL    HW135658   8.440   3.746   2.192
11275SOL    HW235659   8.446   3.747   2.040
11276SOL     OW35660  10.663   6.203   2.714
11276SOL    HW135661  10.713   6.278   2.747
11276SOL    HW235662  10.694   6.129   2.766
11277SOL     OW35663   5.614   6.801  13.987
11277SOL    HW135664   5.708   6.808  13.971
11277SOL    HW235665   5.591   6.881  14.034
11278SOL     OW35666   6.386   7.372   8.947
11278SOL    HW135667   6.383   7.457   8.902
11278SOL    HW235668   6.437   7.316   8.889
11279SOL     OW35669   3.037   1.482  11.196
11279SOL    HW135670   3.106   1.492  11.262
11279SOL    HW235671   3.084   1.465  11.115
11280SOL     OW35672  14.752   1.267  11.768
11280SOL    HW135673  14.722   1.177  11.754
11280SOL    HW235674  14.839   1.269  11.728
11281SOL     OW35675  14.110   7.683  12.029
11281SOL    HW135676  14.018   7.660  12.036
11281SOL    HW235677  14.113   7.751  11.962
11282SOL     OW35678   1.487  13.332  10.171
11282SOL    HW135679   1.517  13.389  10.242
11282SOL    HW235680   1.405  13.295  10.204
11283SOL     OW35681   9.487  13.012   7.880
11283SOL    HW135682   9.467  13.103   7.901
11283SOL    HW235683   9.402  12.967   7.879
11284SOL     OW35684   9.210   8.251   5.428
11284SOL    HW135685   9.198   8.343   5.409
11284SOL    HW235686   9.293   8.227   5.386
11285SOL     OW35687  12.515   9.341   1.800
11285SOL    HW135688  12.537   9.423   1.755
11285SOL    HW235689  12.435   9.311   1.758
11286SOL     OW35690  13.848   9.889   4.271
11286SOL    HW135691  13.903   9.936   4.208
11286SOL    HW235692  13.908   9.864   4.342
11287SOL     OW35693  10.807   5.847   0.488
11287SOL    HW135694  10.764   5.816   0.408
11287SOL    HW235695  10.880   5.899   0.457
11288SOL     OW35696  10.481   1.076  12.768
11288SOL    HW135697  10.546   1.014  12.801
11288SOL    HW235698  10.399   1.051  12.811
11289SOL     OW35699  10.391   3.692   6.291
11289SOL    HW135700  10.395   3.708   6.385
11289SOL    HW235701  10.395   3.779   6.252
11290SOL     OW35702   6.216   7.441   5.303
11290SOL    HW135703   6.213   7.405   5.391
11290SOL    HW235704   6.299   7.490   5.300
11291SOL     OW35705   2.031  14.381  11.543
11291SOL    HW135706   2.106  14.343  11.587
11291SOL    HW235707   1.966  14.310  11.540
11292SOL     OW35708  12.989  10.970   1.435
11292SOL    HW135709  13.045  10.989   1.360
11292SOL    HW235710  12.982  11.053   1.482
11293SOL     OW35711   9.869  14.512  10.364
11293SOL    HW135712   9.810  14.523  10.439
11293SOL    HW235713   9.859  14.421  10.339
11294SOL     OW35714   2.415  12.040  14.463
11294SOL    HW135715   2.492  11.985  14.478
11294SOL    HW235716   2.448  12.130  14.464
11295SOL     OW35717  12.560  13.610  12.608
11295SOL    HW135718  12.655  13.601  12.603
11295SOL    HW235719  12.530  13.599  12.518
11296SOL     OW35720  13.581   8.131   5.427
11296SOL    HW135721  13.621   8.189   5.492
11296SOL    HW235722  13.618   8.159   5.344
11297SOL     OW35723   0.838  11.718   5.201
11297SOL    HW135724   0.833  11.712   5.106
11297SOL    HW235725   0.782  11.647   5.233
11298SOL     OW35726  12.715   1.840  11.311
11298SOL    HW135727  12.721   1.914  11.251
11298SOL    HW235728  12.788   1.853  11.372
11299SOL     OW35729   3.186   8.296   5.716
11299SOL    HW135730   3.268   8.340   5.694
11299SOL    HW235731   3.120   8.341   5.663
11300SOL     OW35732   4.180   9.785   5.409
11300SOL    HW135733   4.114   9.851   5.432
11300SOL    HW235734   4.174   9.778   5.313
11301SOL     OW35735  13.884  10.528   9.678
11301SOL    HW135736  13.924  10.614   9.668
11301SOL    HW235737  13.812  10.527   9.615
11302SOL     OW35738  11.797  10.482   8.226
11302SOL    HW135739  11.808  10.504   8.134
11302SOL    HW235740  11.716  10.525   8.253
11303SOL     OW35741  13.197   0.240   5.295
11303SOL    HW135742  13.204   0.280   5.382
11303SOL    HW235743  13.105   0.252   5.271
11304SOL     OW35744  10.697   8.480   9.252
11304SOL    HW135745  10.667   8.475   9.343
11304SOL    HW235746  10.780   8.527   9.257
11305SOL     OW35747   6.267   5.612   2.176
11305SOL    HW135748   6.231   5.699   2.159
11305SOL    HW235749   6.314   5.621   2.258
11306SOL     OW35750   4.835   2.141   4.416
11306SOL    HW135751   4.826   2.193   4.337
11306SOL    HW235752   4.758   2.163   4.468
11307SOL     OW35753   2.956  13.880   4.597
11307SOL    HW135754   2.922  13.914   4.680
11307SOL    HW235755   2.881  13.878   4.539
11308SOL     OW35756  11.558  13.675   8.397
11308SOL    HW135757  11.589  13.590   8.429
11308SOL    HW235758  11.555  13.666   8.302
11309SOL     OW35759   2.111   1.560   2.534
11309SOL    HW135760   2.024   1.549   2.573
11309SOL    HW235761   2.109   1.505   2.456
11310SOL     OW35762   6.094   5.350   6.445
11310SOL    HW135763   6.018   5.322   6.496
11310SOL    HW235764   6.164   5.292   6.473
11311SOL     OW35765  14.001   8.489   3.195
11311SOL    HW135766  13.935   8.532   3.250
11311SOL    HW235767  14.055   8.439   3.257
11312SOL     OW35768   0.844   3.861   5.640
11312SOL    HW135769   0.783   3.862   5.714
11312SOL    HW235770   0.794   3.899   5.568
11313SOL     OW35771   6.054  10.476   8.610
11313SOL    HW135772   6.121  10.540   8.635
11313SOL    HW235773   6.103  10.407   8.564
11314SOL     OW35774   5.140  12.172  10.911
11314SOL    HW135775   5.170  12.262  10.923
11314SOL    HW235776   5.058  12.167  10.961
11315SOL     OW35777  14.625   5.832   1.114
11315SOL    HW135778  14.535   5.828   1.084
11315SOL    HW235779  14.643   5.745   1.148
11316SOL     OW35780  14.659   4.107   1.426
11316SOL    HW135781  14.610   4.183   1.395
11316SOL    HW235782  14.708   4.077   1.349
11317SOL     OW35783  13.128   9.977   7.212
11317SOL    HW135784  13.092  10.040   7.149
11317SOL    HW235785  13.152  10.030   7.288
11318SOL     OW35786  11.142  13.637   3.147
11318SOL    HW135787  11.053  13.635   3.182
11318SOL    HW235788  11.132  13.608   3.056
11319SOL     OW35789   0.453  10.107   9.773
11319SOL    HW135790   0.476  10.034   9.831
11319SOL    HW235791   0.381  10.074   9.720
11320SOL     OW35792   7.363  12.401  14.486
11320SOL    HW135793   7.444  12.366  14.449
11320SOL    HW235794   7.303  12.326  14.487
11321SOL     OW35795   6.782  12.103   1.195
11321SOL    HW135796   6.788  12.024   1.141
11321SOL    HW235797   6.801  12.073   1.284
11322SOL     OW35798  12.097   4.030  14.423
11322SOL    HW135799  12.160   4.037  14.495
11322SOL    HW235800  12.061   4.119  14.414
11323SOL     OW35801   5.721   4.758  11.146
11323SOL    HW135802   5.733   4.723  11.058
11323SOL    HW235803   5.666   4.692  11.190
11324SOL     OW35804  14.603  12.236   3.384
11324SOL    HW135805  14.679  12.178   3.391
11324SOL    HW235806  14.546  12.193   3.321
11325SOL     OW35807  12.014   1.327   5.881
11325SOL    HW135808  12.049   1.370   5.960
11325SOL    HW235809  12.031   1.390   5.811
11326SOL     OW35810  10.049   8.333  10.805
11326SOL    HW135811   9.964   8.310  10.841
11326SOL    HW235812  10.043   8.310  10.712
11327SOL     OW35813   6.611   9.686  13.093
11327SOL    HW135814   6.542   9.623  13.073
11327SOL    HW235815   6.658   9.648  13.167
11328SOL     OW35816   9.445   2.352  13.075
11328SOL    HW135817   9.415   2.319  12.990
11328SOL    HW235818   9.482   2.276  13.119
11329SOL     OW35819  14.652   5.531   7.659
11329SOL    HW135820  14.587   5.498   7.721
11329SOL    HW235821  14.722   5.564   7.715
11330SOL     OW35822   6.971   1.087   0.412
11330SOL    HW135823   7.040   1.108   0.476
11330SOL    HW235824   6.989   0.996   0.387
11331SOL     OW35825  11.210   9.954  12.042
11331SOL    HW135826  11.132   9.980  12.091
11331SOL    HW235827  11.227  10.028  11.983
11332SOL     OW35828   6.660   2.093   7.040
11332SOL    HW135829   6.726   2.102   7.109
11332SOL    HW235830   6.668   2.002   7.012
11333SOL     OW35831  12.668   4.541  10.329
11333SOL    HW135832  12.633   4.613  10.277
11333SOL    HW235833  12.763   4.552  10.324
11334SOL     OW35834   9.102  12.765  11.439
11334SOL    HW135835   9.108  12.835  11.374
11334SOL    HW235836   9.008  12.743  11.440
11335SOL     OW35837  13.216   4.908   6.337
11335SOL    HW135838  13.152   4.959   6.287
11335SOL    HW235839  13.167   4.832   6.369
11336SOL     OW35840  10.704   6.864   0.337
11336SOL    HW135841  10.756   6.879   0.415
11336SOL    HW235842  10.722   6.939   0.281
11337SOL     OW35843   3.597   5.880   4.599
11337SOL    HW135844   3.569   5.803   4.550
11337SOL    HW235845   3.632   5.845   4.681
11338SOL     OW35846  11.980  10.666  13.255
11338SOL    HW135847  11.898  10.707  13.229
11338SOL    HW235848  11.975  10.577  13.220
11339SOL     OW35849   7.186   0.618   0.877
11339SOL    HW135850   7.161   0.702   0.914
11339SOL    HW235851   7.215   0.638   0.788
11340SOL     OW35852  13.216   6.732  14.008
11340SOL    HW135853  13.143   6.786  13.979
11340SOL    HW235854  13.180   6.643  14.013
11341SOL     OW35855  12.587   8.238   3.704
11341SOL    HW135856  12.562   8.327   3.727
11341SOL    HW235857  12.522   8.211   3.639
11342SOL     OW35858   7.540   3.378   1.446
11342SOL    HW135859   7.500   3.291   1.452
11342SOL    HW235860   7.612   3.375   1.508
11343SOL     OW35861   5.503  10.334  13.946
11343SOL    HW135862   5.414  10.305  13.925
11343SOL    HW235863   5.494  10.428  13.963
11344SOL     OW35864   2.101   6.224  10.284
11344SOL    HW135865   2.155   6.221  10.363
11344SOL    HW235866   2.116   6.140  10.241
11345SOL     OW35867  12.765   6.430   2.887
11345SOL    HW135868  12.754   6.490   2.813
11345SOL    HW235869  12.855   6.445   2.916
11346SOL     OW35870   5.200   0.669   5.683
11346SOL    HW135871   5.160   0.703   5.763
11346SOL    HW235872   5.129   0.668   5.619
11347SOL     OW35873   3.243   7.446   8.022
11347SOL    HW135874   3.188   7.494   7.960
11347SOL    HW235875   3.307   7.401   7.966
11348SOL     OW35876   5.271   6.838   9.665
11348SOL    HW135877   5.300   6.916   9.713
11348SOL    HW235878   5.238   6.779   9.732
11349SOL     OW35879   3.056  11.276   0.445
11349SOL    HW135880   3.146  11.307   0.436
11349SOL    HW235881   3.011  11.346   0.491
11350SOL     OW35882   3.429   9.622   6.958
11350SOL    HW135883   3.517   9.659   6.968
11350SOL    HW235884   3.371   9.689   6.993
11351SOL     OW35885   5.879  10.333   4.112
11351SOL    HW135886   5.874  10.401   4.180
11351SOL    HW235887   5.865  10.380   4.030
11352SOL     OW35888   6.258   8.915   4.113
11352SOL    HW135889   6.246   8.916   4.018
11352SOL    HW235890   6.304   8.996   4.132
11353SOL     OW35891  13.498  14.365   2.748
11353SOL    HW135892  13.498  14.278   2.789
11353SOL    HW235893  13.457  14.422   2.814
11354SOL     OW35894   3.860   5.933  10.427
11354SOL    HW135895   3.911   5.931  10.509
11354SOL    HW235896   3.770   5.950  10.455
11355SOL     OW35897  10.567   8.652   6.876
11355SOL    HW135898  10.589   8.735   6.836
11355SOL    HW235899  10.473   8.658   6.893
11356SOL     OW35900   4.308  13.086  12.039
11356SOL    HW135901   4.266  13.154  12.092
11356SOL    HW235902   4.241  13.059  11.976
11357SOL     OW35903   4.970   4.177   4.029
11357SOL    HW135904   4.957   4.222   4.113
11357SOL    HW235905   5.030   4.105   4.050
11358SOL     OW35906   2.962   7.141  13.500
11358SOL    HW135907   2.973   7.052  13.468
11358SOL    HW235908   2.890   7.135  13.564
11359SOL     OW35909  12.816   8.802  12.963
11359SOL    HW135910  12.802   8.722  13.013
11359SOL    HW235911  12.909   8.822  12.976
11360SOL     OW35912   1.869   2.914   2.136
11360SOL    HW135913   1.891   2.844   2.198
11360SOL    HW235914   1.875   2.995   2.187
11361SOL     OW35915  13.239   9.695   4.130
11361SOL    HW135916  13.332   9.678   4.115
11361SOL    HW235917  13.214   9.633   4.198
11362SOL     OW35918  14.642   8.223  14.146
11362SOL    HW135919  14.664   8.298  14.090
11362SOL    HW235920  14.682   8.243  14.231
11363SOL     OW35921   9.452  14.627   4.830
11363SOL    HW135922   9.521  14.680   4.791
11363SOL    HW235923   9.373  14.651   4.782
11364SOL     OW35924   8.883  12.024  14.220
11364SOL    HW135925   8.791  12.001  14.207
11364SOL    HW235926   8.927  11.992  14.141
11365SOL     OW35927  14.150   5.875  12.028
11365SOL    HW135928  14.215   5.806  12.016
11365SOL    HW235929  14.202   5.953  12.050
11366SOL     OW35930   3.519   0.149   9.522
11366SOL    HW135931   3.610   0.170   9.541
11366SOL    HW235932   3.519   0.120   9.431
11367SOL     OW35933   6.084   0.469   9.196
11367SOL    HW135934   5.991   0.485   9.215
11367SOL    HW235935   6.121   0.445   9.281
11368SOL     OW35936   9.207   2.245   4.669
11368SOL    HW135937   9.146   2.178   4.638
11368SOL    HW235938   9.252   2.204   4.743
11369SOL     OW35939  12.194   6.710  11.100
11369SOL    HW135940  12.277   6.664  11.113
11369SOL    HW235941  12.127   6.643  11.115
11370SOL     OW35942  14.770   0.976   2.765
11370SOL    HW135943  14.682   1.006   2.789
11370SOL    HW235944  14.764   0.880   2.769
11371SOL     OW35945   2.834   8.644   1.699
11371SOL    HW135946   2.920   8.628   1.660
11371SOL    HW235947   2.833   8.588   1.777
11372SOL     OW35948   5.727  11.199   0.865
11372SOL    HW135949   5.665  11.262   0.827
11372SOL    HW235950   5.752  11.238   0.949
11373SOL     OW35951  14.212   3.156   6.580
11373SOL    HW135952  14.157   3.078   6.582
11373SOL    HW235953  14.288   3.133   6.633
11374SOL     OW35954  10.959  14.814   5.554
11374SOL    HW135955  11.038  14.799   5.502
11374SOL    HW235956  10.980  14.779   5.640
11375SOL     OW35957  11.512   3.971   2.379
11375SOL    HW135958  11.419   3.992   2.371
11375SOL    HW235959  11.554   4.055   2.395
11376SOL     OW35960   4.129   3.244   4.416
11376SOL    HW135961   4.206   3.189   4.404
11376SOL    HW235962   4.056   3.182   4.420
11377SOL     OW35963  14.579   3.821  11.679
11377SOL    HW135964  14.626   3.891  11.633
11377SOL    HW235965  14.541   3.864  11.755
11378SOL     OW35966   7.347   6.848   7.421
11378SOL    HW135967   7.302   6.767   7.447
11378SOL    HW235968   7.440   6.829   7.435
11379SOL     OW35969   2.902   0.704  10.788
11379SOL    HW135970   2.880   0.743  10.704
11379SOL    HW235971   2.904   0.778  10.849
11380SOL     OW35972  12.629   3.450   5.063
11380SOL    HW135973  12.606   3.532   5.018
11380SOL    HW235974  12.548   3.423   5.106
11381SOL     OW35975   4.174   5.859   8.645
11381SOL    HW135976   4.124   5.795   8.695
11381SOL    HW235977   4.200   5.925   8.710
11382SOL     OW35978   2.324  13.243   5.637
11382SOL    HW135979   2.360  13.159   5.665
11382SOL    HW235980   2.348  13.304   5.707
11383SOL     OW35981   1.496  11.373   4.032
11383SOL    HW135982   1.529  11.369   4.122
11383SOL    HW235983   1.495  11.282   4.002
11384SOL     OW35984   3.027  10.203   3.220
11384SOL    HW135985   3.006  10.116   3.186
11384SOL    HW235986   3.037  10.189   3.314
11385SOL     OW35987   4.719   2.969   1.737
11385SOL    HW135988   4.770   2.945   1.815
11385SOL    HW235989   4.629   2.948   1.760
11386SOL     OW35990   8.907   3.098  11.183
11386SOL    HW135991   8.882   3.008  11.163
11386SOL    HW235992   8.981   3.115  11.126
11387SOL     OW35993  13.988  13.069   0.897
11387SOL    HW135994  13.980  13.032   0.809
11387SOL    HW235995  14.017  13.159   0.883
11388SOL     OW35996   6.263   3.881   4.176
11388SOL    HW135997   6.187   3.936   4.196
11388SOL    HW235998   6.336   3.942   4.170
11389SOL     OW35999   3.005  11.445   7.742
11389SOL    HW136000   2.959  11.363   7.721
11389SOL    HW236001   2.939  11.498   7.787
11390SOL     OW36002  13.906   3.403  11.854
11390SOL    HW136003  13.995   3.407  11.889
11390SOL    HW236004  13.881   3.311  11.861
11391SOL     OW36005   0.482   3.283  11.920
11391SOL    HW136006   0.546   3.215  11.942
11391SOL    HW236007   0.535   3.355  11.887
11392SOL     OW36008  10.928  14.725   3.644
11392SOL    HW136009  10.959  14.814   3.659
11392SOL    HW236010  11.007  14.670   3.656
11393SOL     OW36011  10.139   8.082   1.720
11393SOL    HW136012  10.148   8.091   1.625
11393SOL    HW236013  10.044   8.086   1.736
11394SOL     OW36014   8.437   3.881   4.150
11394SOL    HW136015   8.500   3.939   4.192
11394SOL    HW236016   8.478   3.794   4.153
11395SOL     OW36017   0.170  12.019   0.814
11395SOL    HW136018   0.111  12.095   0.809
11395SOL    HW236019   0.112  11.943   0.819
11396SOL     OW36020  11.880   7.007   0.247
11396SOL    HW136021  11.917   6.954   0.317
11396SOL    HW236022  11.815   6.950   0.205
11397SOL     OW36023   2.982  10.699  14.557
11397SOL    HW136024   3.064  10.653  14.575
11397SOL    HW236025   3.002  10.791  14.574
11398SOL     OW36026  13.895   1.175   6.428
11398SOL    HW136027  13.947   1.207   6.502
11398SOL    HW236028  13.808   1.160   6.465
11399SOL     OW36029  10.976   0.458   7.393
11399SOL    HW136030  10.952   0.508   7.471
11399SOL    HW236031  10.967   0.367   7.419
11400SOL     OW36032  11.141   4.588   7.234
11400SOL    HW136033  11.067   4.628   7.279
11400SOL    HW236034  11.148   4.637   7.152
11401SOL     OW36035  11.645   3.685  11.097
11401SOL    HW136036  11.554   3.672  11.125
11401SOL    HW236037  11.682   3.597  11.095
11402SOL     OW36038   1.011   5.525  13.087
11402SOL    HW136039   1.030   5.505  12.996
11402SOL    HW236040   1.097   5.540  13.127
11403SOL     OW36041   8.223  14.146   1.033
11403SOL    HW136042   8.206  14.075   1.095
11403SOL    HW236043   8.138  14.186   1.018
11404SOL     OW36044   8.181   4.881   7.425
11404SOL    HW136045   8.157   4.825   7.499
11404SOL    HW236046   8.243   4.829   7.375
11405SOL     OW36047   9.342   6.355  13.354
11405SOL    HW136048   9.430   6.319  13.344
11405SOL    HW236049   9.338   6.384  13.445
11406SOL     OW36050   5.904  11.163   4.231
11406SOL    HW136051   5.834  11.220   4.262
11406SOL    HW236052   5.924  11.195   4.143
11407SOL     OW36053   1.400   2.366   7.274
11407SOL    HW136054   1.467   2.348   7.340
11407SOL    HW236055   1.448   2.396   7.197
11408SOL     OW36056   6.206  11.709  13.081
11408SOL    HW136057   6.298  11.688  13.095
11408SOL    HW236058   6.167  11.626  13.051
11409SOL     OW36059  11.862   7.599   0.058
11409SOL    HW136060  11.779   7.630   0.094
11409SOL    HW236061  11.845   7.508   0.033
11410SOL     OW36062   6.319   3.868   4.742
11410SOL    HW136063   6.367   3.842   4.821
11410SOL    HW236064   6.366   3.945   4.711
11411SOL     OW36065   9.194   3.546  12.353
11411SOL    HW136066   9.137   3.554  12.276
11411SOL    HW236067   9.176   3.625  12.404
11412SOL     OW36068  14.106   5.913   4.513
11412SOL    HW136069  14.145   6.001   4.516
11412SOL    HW236070  14.081   5.902   4.421
11413SOL     OW36071   8.480  12.648   7.450
11413SOL    HW136072   8.562  12.626   7.494
11413SOL    HW236073   8.504  12.654   7.357
11414SOL     OW36074   8.039   0.323   8.976
11414SOL    HW136075   8.022   0.325   8.882
11414SOL    HW236076   7.996   0.243   9.007
11415SOL     OW36077   7.140  11.633  12.061
11415SOL    HW136078   7.093  11.708  12.024
11415SOL    HW236079   7.169  11.663  12.147
11416SOL     OW36080  14.864   2.768   0.073
11416SOL    HW136081   0.013   2.740  14.865
11416SOL    HW236082  14.817   2.693   0.109
11417SOL     OW36083   2.153   2.150   9.883
11417SOL    HW136084   2.065   2.131   9.848
11417SOL    HW236085   2.172   2.238   9.850
11418SOL     OW36086   9.597  11.449   6.250
11418SOL    HW136087   9.666  11.506   6.283
11418SOL    HW236088   9.595  11.465   6.156
11419SOL     OW36089  12.063  13.888   5.952
11419SOL    HW136090  12.047  13.983   5.948
11419SOL    HW236091  12.158  13.879   5.939
11420SOL     OW36092   0.038   5.956   4.482
11420SOL    HW136093   0.108   5.939   4.545
11420SOL    HW236094  14.862   5.879   4.485
11421SOL     OW36095   3.726   3.539   3.627
11421SOL    HW136096   3.710   3.594   3.550
11421SOL    HW236097   3.803   3.487   3.604
11422SOL     OW36098   3.667  13.811   7.987
11422SOL    HW136099   3.728  13.883   7.972
11422SOL    HW236100   3.681  13.753   7.912
11423SOL     OW36101  14.824  13.652   5.261
11423SOL    HW136102  14.762  13.580   5.252
11423SOL    HW236103   0.022  13.612   5.301
11424SOL     OW36104   7.241  14.087  14.351
11424SOL    HW136105   7.170  14.090  14.287
11424SOL    HW236106   7.198  14.073  14.435
11425SOL     OW36107   1.485  10.780   1.648
11425SOL    HW136108   1.493  10.740   1.562
11425SOL    HW236109   1.510  10.871   1.636
11426SOL     OW36110   9.702  11.380   6.864
11426SOL    HW136111   9.785  11.382   6.912
11426SOL    HW236112   9.647  11.445   6.908
11427SOL     OW36113  12.355   5.817  10.335
11427SOL    HW136114  12.379   5.728  10.361
11427SOL    HW236115  12.431   5.848  10.286
11428SOL     OW36116   1.066   9.894  11.405
11428SOL    HW136117   1.104   9.905  11.492
11428SOL    HW236118   1.112   9.818  11.368
11429SOL     OW36119   6.500  10.283  12.852
11429SOL    HW136120   6.559  10.289  12.928
11429SOL    HW236121   6.424  10.335  12.877
11430SOL     OW36122  11.013   2.165  11.752
11430SOL    HW136123  10.917   2.167  11.752
11430SOL    HW236124  11.036   2.124  11.836
11431SOL     OW36125  12.482   2.468   1.744
11431SOL    HW136126  12.441   2.457   1.658
11431SOL    HW236127  12.544   2.396   1.751
11432SOL     OW36128  13.699   1.242   8.091
11432SOL    HW136129  13.741   1.193   8.162
11432SOL    HW236130  13.737   1.330   8.097
11433SOL     OW36131   8.733   4.927   5.130
11433SOL    HW136132   8.792   4.863   5.089
11433SOL    HW236133   8.791   4.999   5.157
11434SOL     OW36134  13.903  12.927   9.817
11434SOL    HW136135  13.964  12.999   9.803
11434SOL    HW236136  13.826  12.951   9.766
11435SOL     OW36137   5.750  14.413   3.323
11435SOL    HW136138   5.760  14.460   3.406
11435SOL    HW236139   5.833  14.368   3.310
11436SOL     OW36140   7.891   8.838  13.188
11436SOL    HW136141   7.881   8.742  13.183
11436SOL    HW236142   7.938   8.861  13.108
11437SOL     OW36143  10.317  10.050   7.944
11437SOL    HW136144  10.327   9.997   8.023
11437SOL    HW236145  10.226  10.035   7.918
11438SOL     OW36146   4.693   5.111  12.536
11438SOL    HW136147   4.637   5.111  12.614
11438SOL    HW236148   4.632   5.125  12.464
11439SOL     OW36149  12.926  11.681   8.977
11439SOL    HW136150  12.952  11.611   9.037
11439SOL    HW236151  13.002  11.693   8.921
11440SOL     OW36152   1.488   1.023   0.910
11440SOL    HW136153   1.478   1.103   0.858
11440SOL    HW236154   1.577   1.028   0.944
11441SOL     OW36155   5.279   4.535   3.228
11441SOL    HW136156   5.283   4.627   3.254
11441SOL    HW236157   5.290   4.536   3.133
11442SOL     OW36158   9.889  10.032   2.377
11442SOL    HW136159   9.866   9.940   2.360
11442SOL    HW236160   9.943  10.029   2.456
11443SOL     OW36161  14.280  13.447  10.508
11443SOL    HW136162  14.334  13.464  10.585
11443SOL    HW236163  14.288  13.525  10.454
11444SOL     OW36164  14.852   8.779  11.512
11444SOL    HW136165   0.055   8.825  11.497
11444SOL    HW236166  14.797   8.804  11.437
11445SOL     OW36167   4.379  14.870   2.027
11445SOL    HW136168   4.304  14.814   2.046
11445SOL    HW236169   4.351   0.044   1.952
11446SOL     OW36170  13.105   7.417   4.863
11446SOL    HW136171  13.013   7.417   4.837
11446SOL    HW236172  13.136   7.329   4.841
11447SOL     OW36173   0.812   1.741   6.665
11447SOL    HW136174   0.898   1.746   6.706
11447SOL    HW236175   0.783   1.651   6.682
11448SOL     OW36176  14.628   7.056  13.305
11448SOL    HW136177  14.636   6.996  13.379
11448SOL    HW236178  14.675   7.012  13.234
11449SOL     OW36179   9.185  10.741   7.893
11449SOL    HW136180   9.202  10.655   7.856
11449SOL    HW236181   9.269  10.786   7.892
11450SOL     OW36182   8.495   1.281   2.085
11450SOL    HW136183   8.487   1.228   2.164
11450SOL    HW236184   8.404   1.300   2.060
11451SOL     OW36185   1.945   2.381   9.330
11451SOL    HW136186   1.888   2.312   9.365
11451SOL    HW236187   1.907   2.462   9.364
11452SOL     OW36188   4.657   6.771   3.898
11452SOL    HW136189   4.746   6.800   3.877
11452SOL    HW236190   4.625   6.836   3.960
11453SOL     OW36191   9.470   3.492   0.139
11453SOL    HW136192   9.485   3.478   0.233
11453SOL    HW236193   9.385   3.452   0.122
11454SOL     OW36194  10.635   1.884   4.197
11454SOL    HW136195  10.588   1.919   4.121
11454SOL    HW236196  10.575   1.896   4.270
11455SOL     OW36197  11.051   7.891  13.662
11455SOL    HW136198  11.089   7.889  13.749
11455SOL    HW236199  10.957   7.903  13.677
11456SOL     OW36200   4.002   0.179   5.258
11456SOL    HW136201   3.959   0.254   5.298
11456SOL    HW236202   4.013   0.117   5.330
11457SOL     OW36203   5.677   5.792  13.690
11457SOL    HW136204   5.605   5.844  13.726
11457SOL    HW236205   5.640   5.704  13.681
11458SOL     OW36206   7.218   6.951   2.268
11458SOL    HW136207   7.211   6.896   2.346
11458SOL    HW236208   7.175   7.033   2.293
11459SOL     OW36209   2.679  13.114  13.956
11459SOL    HW136210   2.753  13.147  14.009
11459SOL    HW236211   2.690  13.157  13.871
11460SOL     OW36212   0.925  12.791  10.181
11460SOL    HW136213   0.894  12.798  10.272
11460SOL    HW236214   0.847  12.764  10.132
11461SOL     OW36215  13.628   4.402  12.188
11461SOL    HW136216  13.616   4.328  12.128
11461SOL    HW236217  13.545   4.411  12.233
11462SOL     OW36218   9.751  14.063   4.245
11462SOL    HW136219   9.701  14.058   4.326
11462SOL    HW236220   9.708  14.000   4.187
11463SOL     OW36221   9.104   8.652   3.681
11463SOL    HW136222   9.076   8.720   3.743
11463SOL    HW236223   9.094   8.692   3.595
11464SOL     OW36224   2.451   6.030   7.448
11464SOL    HW136225   2.454   6.017   7.354
11464SOL    HW236226   2.531   5.989   7.481
11465SOL     OW36227  12.765  10.821  11.274
11465SOL    HW136228  12.707  10.795  11.202
11465SOL    HW236229  12.821  10.746  11.289
11466SOL     OW36230   2.501   9.934   2.794
11466SOL    HW136231   2.492  10.023   2.826
11466SOL    HW236232   2.413   9.897   2.799
11467SOL     OW36233   8.518  12.863  14.292
11467SOL    HW136234   8.583  12.864  14.221
11467SOL    HW236235   8.480  12.951  14.292
11468SOL     OW36236   0.663  11.680   1.551
11468SOL    HW136237   0.750  11.641   1.556
11468SOL    HW236238   0.603  11.609   1.572
11469SOL     OW36239   0.585  13.905   8.468
11469SOL    HW136240   0.627  13.848   8.403
11469SOL    HW236241   0.624  13.879   8.552
11470SOL     OW36242   0.403   7.117   8.606
11470SOL    HW136243   0.405   7.131   8.701
11470SOL    HW236244   0.382   7.024   8.597
11471SOL     OW36245   7.967   5.202   6.082
11471SOL    HW136246   7.920   5.285   6.088
11471SOL    HW236247   7.998   5.198   5.992
11472SOL     OW36248   0.818   2.267   9.280
11472SOL    HW136249   0.736   2.316   9.282
11472SOL    HW236250   0.798   2.188   9.231
11473SOL     OW36251   2.472  10.786   0.791
11473SOL    HW136252   2.555  10.834   0.792
11473SOL    HW236253   2.480  10.723   0.862
11474SOL     OW36254   5.600   4.424   5.695
11474SOL    HW136255   5.671   4.423   5.758
11474SOL    HW236256   5.531   4.476   5.736
11475SOL     OW36257   3.322   2.924   3.603
11475SOL    HW136258   3.352   2.966   3.683
11475SOL    HW236259   3.403   2.897   3.559
11476SOL     OW36260   4.661  12.213   7.511
11476SOL    HW136261   4.634  12.122   7.519
11476SOL    HW236262   4.665  12.229   7.417
11477SOL     OW36263   8.819  11.233   1.796
11477SOL    HW136264   8.780  11.267   1.716
11477SOL    HW236265   8.809  11.138   1.789
11478SOL     OW36266   9.260   2.938   8.373
11478SOL    HW136267   9.266   2.843   8.376
11478SOL    HW236268   9.181   2.959   8.423
11479SOL     OW36269   3.820   3.360   1.537
11479SOL    HW136270   3.912   3.341   1.519
11479SOL    HW236271   3.773   3.283   1.507
11480SOL     OW36272   9.763   7.527   4.364
11480SOL    HW136273   9.706   7.480   4.303
11480SOL    HW236274   9.829   7.462   4.389
11481SOL     OW36275   5.616   2.475   5.139
11481SOL    HW136276   5.627   2.395   5.190
11481SOL    HW236277   5.666   2.459   5.059
11482SOL     OW36278   4.238   4.816  14.254
11482SOL    HW136279   4.271   4.893  14.300
11482SOL    HW236280   4.225   4.751  14.323
11483SOL     OW36281   4.628  13.110  12.148
11483SOL    HW136282   4.535  13.129  12.139
11483SOL    HW236283   4.633  13.047  12.220
11484SOL     OW36284  10.585  10.058   4.451
11484SOL    HW136285  10.564   9.966   4.436
11484SOL    HW236286  10.655  10.057   4.516
11485SOL     OW36287   0.938   6.246   5.081
11485SOL    HW136288   0.866   6.287   5.033
11485SOL    HW236289   0.968   6.175   5.024
11486SOL     OW36290   8.693  10.851  12.458
11486SOL    HW136291   8.613  10.828  12.411
11486SOL    HW236292   8.672  10.932  12.505
11487SOL     OW36293  13.680   2.684   9.247
11487SOL    HW136294  13.770   2.667   9.220
11487SOL    HW236295  13.662   2.773   9.218
11488SOL     OW36296   7.644   9.463   9.545
11488SOL    HW136297   7.619   9.376   9.573
11488SOL    HW236298   7.634   9.462   9.449
11489SOL     OW36299   1.965   4.977  12.054
11489SOL    HW136300   1.917   4.903  12.017
11489SOL    HW236301   1.945   5.050  11.995
11490SOL     OW36302  12.857  12.077   3.073
11490SOL    HW136303  12.846  12.170   3.051
11490SOL    HW236304  12.869  12.034   2.989
11491SOL     OW36305  11.216   3.947  11.506
11491SOL    HW136306  11.166   4.010  11.454
11491SOL    HW236307  11.168   3.864  11.495
11492SOL     OW36308  13.072   1.476   3.802
11492SOL    HW136309  12.991   1.458   3.849
11492SOL    HW236310  13.063   1.567   3.772
11493SOL     OW36311  13.221  10.819   6.287
11493SOL    HW136312  13.135  10.843   6.254
11493SOL    HW236313  13.264  10.776   6.212
11494SOL     OW36314   4.489   8.698   7.348
11494SOL    HW136315   4.556   8.764   7.328
11494SOL    HW236316   4.516   8.662   7.433
11495SOL     OW36317  14.594   9.253   8.943
11495SOL    HW136318  14.626   9.169   8.910
11495SOL    HW236319  14.505   9.260   8.909
11496SOL     OW36320   3.531  13.591  13.615
11496SOL    HW136321   3.569  13.674  13.643
11496SOL    HW236322   3.603  13.529  13.619
11497SOL     OW36323  13.547   9.969  13.062
11497SOL    HW136324  13.583   9.945  13.148
11497SOL    HW236325  13.452   9.962  13.073
11498SOL     OW36326  12.716   3.541   7.407
11498SOL    HW136327  12.641   3.560   7.463
11498SOL    HW236328  12.786   3.518   7.468
11499SOL     OW36329   5.449   3.021   5.991
11499SOL    HW136330   5.470   3.098   5.938
11499SOL    HW236331   5.534   2.990   6.023
11500SOL     OW36332  11.957   5.838   2.883
11500SOL    HW136333  11.999   5.902   2.826
11500SOL    HW236334  11.863   5.848   2.864
11501SOL     OW36335   8.726   3.093   7.812
11501SOL    HW136336   8.691   3.179   7.787
11501SOL    HW236337   8.656   3.032   7.791
11502SOL     OW36338   3.498   4.649  10.602
11502SOL    HW136339   3.418   4.682  10.561
11502SOL    HW236340   3.548   4.611  10.530
11503SOL     OW36341  10.858   6.158   0.495
11503SOL    HW136342  10.936   6.119   0.534
11503SOL    HW236343  10.891   6.229   0.440
11504SOL     OW36344  11.006   1.848   5.181
11504SOL    HW136345  11.056   1.906   5.237
11504SOL    HW236346  11.033   1.871   5.092
11505SOL     OW36347   9.481  11.923  11.320
11505SOL    HW136348   9.407  11.983  11.330
11505SOL    HW236349   9.447  11.851  11.267
11506SOL     OW36350   8.321   0.271   5.747
11506SOL    HW136351   8.315   0.336   5.677
11506SOL    HW236352   8.266   0.199   5.717
11507SOL     OW36353  11.159  11.927  14.315
11507SOL    HW136354  11.211  12.007  14.319
11507SOL    HW236355  11.220  11.859  14.289
11508SOL     OW36356   2.770   6.822  11.210
11508SOL    HW136357   2.707   6.756  11.183
11508SOL    HW236358   2.844   6.773  11.246
11509SOL     OW36359   5.327   5.523  11.496
11509SOL    HW136360   5.347   5.435  11.526
11509SOL    HW236361   5.237   5.518  11.465
11510SOL     OW36362  14.157   1.378   3.370
11510SOL    HW136363  14.125   1.387   3.460
11510SOL    HW236364  14.091   1.324   3.327
11511SOL     OW36365   7.353  13.281  10.263
11511SOL    HW136366   7.360  13.296  10.169
11511SOL    HW236367   7.264  13.248  10.275
11512SOL     OW36368  10.881   0.969   8.858
11512SOL    HW136369  10.864   0.890   8.909
11512SOL    HW236370  10.969   0.956   8.822
11513SOL     OW36371   0.037  12.128   6.556
11513SOL    HW136372   0.059  12.101   6.645
11513SOL    HW236373   0.017  12.047   6.510
11514SOL     OW36374   2.345   5.146   4.371
11514SOL    HW136375   2.290   5.087   4.421
11514SOL    HW236376   2.427   5.098   4.359
11515SOL     OW36377   5.144  13.512   2.721
11515SOL    HW136378   5.148  13.421   2.750
11515SOL    HW236379   5.195  13.560   2.787
11516SOL     OW36380  13.935   7.043   9.214
11516SOL    HW136381  13.917   6.951   9.231
11516SOL    HW236382  13.853   7.088   9.237
11517SOL     OW36383   0.252  11.489  13.570
11517SOL    HW136384   0.210  11.464  13.488
11517SOL    HW236385   0.227  11.421  13.632
11518SOL     OW36386   9.540   5.369  10.065
11518SOL    HW136387   9.612   5.307  10.058
11518SOL    HW236388   9.549   5.425   9.988
11519SOL     OW36389   0.032   3.859  12.191
11519SOL    HW136390   0.030   3.954  12.187
11519SOL    HW236391   0.103   3.833  12.132
11520SOL     OW36392   1.606  11.236   9.511
11520SOL    HW136393   1.617  11.308   9.573
11520SOL    HW236394   1.670  11.256   9.442
11521SOL     OW36395  10.628   7.185   5.275
11521SOL    HW136396  10.622   7.261   5.217
11521SOL    HW236397  10.538   7.155   5.286
11522SOL     OW36398  10.316  13.789   3.981
11522SOL    HW136399  10.408  13.815   3.974
11522SOL    HW236400  10.312  13.701   3.943
11523SOL     OW36401  13.940  10.106   8.680
11523SOL    HW136402  13.933  10.196   8.645
11523SOL    HW236403  14.033  10.094   8.698
11524SOL     OW36404   0.615  11.887   6.848
11524SOL    HW136405   0.574  11.937   6.918
11524SOL    HW236406   0.557  11.901   6.772
11525SOL     OW36407   5.839   3.137  12.092
11525SOL    HW136408   5.931   3.129  12.067
11525SOL    HW236409   5.792   3.145  12.010
11526SOL     OW36410   3.989   3.305   6.204
11526SOL    HW136411   4.070   3.329   6.250
11526SOL    HW236412   3.921   3.360   6.243
11527SOL     OW36413  11.728   0.735   9.567
11527SOL    HW136414  11.713   0.817   9.613
11527SOL    HW236415  11.802   0.694   9.613
11528SOL     OW36416   5.363   6.699   7.986
11528SOL    HW136417   5.282   6.664   8.022
11528SOL    HW236418   5.382   6.776   8.040
11529SOL     OW36419   8.955  11.088  10.206
11529SOL    HW136420   9.018  11.070  10.275
11529SOL    HW236421   8.985  11.169  10.166
11530SOL     OW36422   7.273   9.422  10.951
11530SOL    HW136423   7.211   9.415  10.878
11530SOL    HW236424   7.219   9.407  11.029
11531SOL     OW36425   6.170   2.574  11.737
11531SOL    HW136426   6.208   2.514  11.800
11531SOL    HW236427   6.075   2.564  11.748
11532SOL     OW36428   2.701   2.306   8.843
11532SOL    HW136429   2.715   2.400   8.836
11532SOL    HW236430   2.677   2.278   8.755
11533SOL     OW36431   6.221   4.813   8.033
11533SOL    HW136432   6.157   4.746   8.013
11533SOL    HW236433   6.306   4.770   8.024
11534SOL     OW36434   3.128  12.767   3.521
11534SOL    HW136435   3.172  12.824   3.458
11534SOL    HW236436   3.050  12.815   3.548
11535SOL     OW36437  11.151   4.753   9.575
11535SOL    HW136438  11.203   4.739   9.497
11535SOL    HW236439  11.213   4.786   9.640
11536SOL     OW36440  12.744  10.876   5.997
11536SOL    HW136441  12.716  10.857   5.908
11536SOL    HW236442  12.711  10.964   6.014
11537SOL     OW36443   4.715   6.151   7.381
11537SOL    HW136444   4.740   6.123   7.292
11537SOL    HW236445   4.677   6.072   7.420
11538SOL     OW36446   0.237   9.310   4.073
11538SOL    HW136447   0.211   9.252   4.001
11538SOL    HW236448   0.161   9.312   4.131
11539SOL     OW36449   4.056   2.312   8.269
11539SOL    HW136450   4.125   2.378   8.276
11539SOL    HW236451   4.006   2.321   8.350
11540SOL     OW36452   4.911   6.369   2.148
11540SOL    HW136453   4.978   6.316   2.106
11540SOL    HW236454   4.863   6.308   2.203
11541SOL     OW36455  10.806   5.817   6.369
11541SOL    HW136456  10.809   5.732   6.326
11541SOL    HW236457  10.812   5.797   6.462
11542SOL     OW36458   7.365   6.460  13.119
11542SOL    HW136459   7.423   6.473  13.194
11542SOL    HW236460   7.386   6.532  13.060
11543SOL     OW36461   1.549   8.528   4.224
11543SOL    HW136462   1.511   8.447   4.257
11543SOL    HW236463   1.573   8.578   4.302
11544SOL     OW36464   7.873   1.806   4.003
11544SOL    HW136465   7.790   1.783   4.045
11544SOL    HW236466   7.849   1.868   3.934
11545SOL     OW36467  11.573   3.794  10.021
11545SOL    HW136468  11.571   3.700  10.007
11545SOL    HW236469  11.657   3.823   9.985
11546SOL     OW36470   4.484   6.792   3.703
11546SOL    HW136471   4.549   6.787   3.773
11546SOL    HW236472   4.531   6.829   3.629
11547SOL     OW36473   3.484  12.306   7.600
11547SOL    HW136474   3.569  12.349   7.600
11547SOL    HW236475   3.421  12.377   7.612
11548SOL     OW36476  13.772   1.797   1.337
11548SOL    HW136477  13.777   1.705   1.314
11548SOL    HW236478  13.706   1.834   1.279
11549SOL     OW36479  10.715  12.449   4.392
11549SOL    HW136480  10.744  12.539   4.404
11549SOL    HW236481  10.625  12.448   4.424
11550SOL     OW36482   4.284   5.073   5.820
11550SOL    HW136483   4.301   5.098   5.911
11550SOL    HW236484   4.352   5.117   5.769
11551SOL     OW36485   1.995   3.798  13.404
11551SOL    HW136486   2.062   3.753  13.353
11551SOL    HW236487   2.032   3.884  13.422
11552SOL     OW36488   7.413   3.183  12.255
11552SOL    HW136489   7.345   3.190  12.188
11552SOL    HW236490   7.443   3.273  12.268
11553SOL     OW36491  10.360   4.492  14.208
11553SOL    HW136492  10.370   4.574  14.258
11553SOL    HW236493  10.325   4.520  14.123
11554SOL     OW36494   7.840  13.096  10.915
11554SOL    HW136495   7.844  13.188  10.892
11554SOL    HW236496   7.769  13.090  10.978
11555SOL     OW36497   6.376  14.622  13.584
11555SOL    HW136498   6.344  14.712  13.574
11555SOL    HW236499   6.393  14.594  13.494
11556SOL     OW36500   7.516   4.662  11.378
11556SOL    HW136501   7.534   4.704  11.293
11556SOL    HW236502   7.600   4.665  11.424
11557SOL     OW36503   8.669   0.564   6.078
11557SOL    HW136504   8.741   0.613   6.040
11557SOL    HW236505   8.682   0.571   6.172
11558SOL     OW36506   3.256   0.095   2.310
11558SOL    HW136507   3.246   0.025   2.374
11558SOL    HW236508   3.286   0.051   2.231
11559SOL     OW36509  10.808  14.575  13.666
11559SOL    HW136510  10.828  14.554  13.756
11559SOL    HW236511  10.773  14.665  13.669
11560SOL     OW36512  13.401  14.144   0.035
11560SOL    HW136513  13.491  14.167   0.013
11560SOL    HW236514  13.362  14.115  14.832
11561SOL     OW36515  13.768  11.333   1.999
11561SOL    HW136516  13.699  11.278   1.963
11561SOL    HW236517  13.823  11.273   2.049
11562SOL     OW36518   8.278   4.788   0.274
11562SOL    HW136519   8.302   4.881   0.272
11562SOL    HW236520   8.193   4.786   0.316
11563SOL     OW36521   2.865   9.940   1.429
11563SOL    HW136522   2.801  10.010   1.437
11563SOL    HW236523   2.901   9.950   1.340
11564SOL     OW36524  12.494  10.381   8.916
11564SOL    HW136525  12.489  10.468   8.877
11564SOL    HW236526  12.585  10.355   8.907
11565SOL     OW36527   0.955  12.044  14.423
11565SOL    HW136528   0.884  11.981  14.439
11565SOL    HW236529   0.988  12.066  14.510
11566SOL     OW36530   5.251   1.826   5.423
11566SOL    HW136531   5.226   1.738   5.451
11566SOL    HW236532   5.185   1.850   5.359
11567SOL     OW36533   1.766   9.048  10.525
11567SOL    HW136534   1.853   9.043  10.564
11567SOL    HW236535   1.755   9.140  10.503
11568SOL     OW36536   1.213  13.075  12.927
11568SOL    HW136537   1.170  13.140  12.983
11568SOL    HW236538   1.149  13.005  12.916
11569SOL     OW36539  14.614  10.510   1.762
11569SOL    HW136540  14.676  10.583   1.761
11569SOL    HW236541  14.667  10.432   1.745
11570SOL     OW36542  12.566   7.175  10.054
11570SOL    HW136543  12.504   7.110  10.020
11570SOL    HW236544  12.622   7.196   9.980
11571SOL     OW36545   5.004   0.626  13.153
11571SOL    HW136546   5.094   0.649  13.175
11571SOL    HW236547   5.007   0.532  13.135
11572SOL     OW36548  14.573  11.150   9.878
11572SOL    HW136549  14.665  11.153   9.904
11572SOL    HW236550  14.575  11.134   9.784
11573SOL     OW36551   1.277   3.554  12.156
11573SOL    HW136552   1.316   3.625  12.208
11573SOL    HW236553   1.223   3.506  12.219
11574SOL     OW36554   9.948   3.927   1.299
11574SOL    HW136555   9.967   3.983   1.224
11574SOL    HW236556  10.024   3.869   1.306
11575SOL     OW36557  13.572   1.058   0.316
11575SOL    HW136558  13.536   1.039   0.402
11575SOL    HW236559  13.523   1.003   0.256
11576SOL     OW36560  12.132  11.643   2.768
11576SOL    HW136561  12.216  11.673   2.804
11576SOL    HW236562  12.107  11.570   2.824
11577SOL     OW36563   5.503   5.854  13.103
11577SOL    HW136564   5.594   5.875  13.080
11577SOL    HW236565   5.502   5.851  13.199
11578SOL     OW36566   6.759   2.050   0.662
11578SOL    HW136567   6.668   2.045   0.634
11578SOL    HW236568   6.756   2.097   0.745
11579SOL     OW36569   7.642  13.179   2.930
11579SOL    HW136570   7.633  13.128   3.011
11579SOL    HW236571   7.701  13.127   2.875
11580SOL     OW36572  12.784  11.552   9.985
11580SOL    HW136573  12.809  11.615   9.918
11580SOL    HW236574  12.781  11.604  10.066
11581SOL     OW36575  14.611   9.995   1.007
11581SOL    HW136576  14.606   9.986   0.911
11581SOL    HW236577  14.526   9.964   1.038
11582SOL     OW36578   4.044   5.920  13.614
11582SOL    HW136579   4.025   5.892  13.704
11582SOL    HW236580   4.093   5.847  13.576
11583SOL     OW36581  12.954  14.458   7.351
11583SOL    HW136582  13.013  14.456   7.426
11583SOL    HW236583  12.871  14.488   7.387
11584SOL     OW36584   8.988  11.244  13.986
11584SOL    HW136585   9.007  11.161  13.942
11584SOL    HW236586   9.058  11.302  13.957
11585SOL     OW36587   5.240  10.286  14.345
11585SOL    HW136588   5.151  10.264  14.372
11585SOL    HW236589   5.262  10.364  14.396
11586SOL     OW36590   5.107   8.242  12.701
11586SOL    HW136591   5.147   8.155  12.706
11586SOL    HW236592   5.132   8.285  12.782
11587SOL     OW36593   5.468   3.364  13.809
11587SOL    HW136594   5.389   3.412  13.787
11587SOL    HW236595   5.440   3.273  13.820
11588SOL     OW36596   6.248  10.119   6.859
11588SOL    HW136597   6.291  10.181   6.800
11588SOL    HW236598   6.222  10.046   6.804
11589SOL     OW36599   2.213   6.284  11.230
11589SOL    HW136600   2.272   6.310  11.159
11589SOL    HW236601   2.235   6.344  11.301
11590SOL     OW36602  10.836  14.237   3.830
11590SOL    HW136603  10.798  14.211   3.914
11590SOL    HW236604  10.764  14.282   3.784
11591SOL     OW36605   3.802   7.967   1.052
11591SOL    HW136606   3.727   7.909   1.054
11591SOL    HW236607   3.768   8.052   1.080
11592SOL     OW36608  12.047   0.159   5.755
11592SOL    HW136609  11.952   0.174   5.754
11592SOL    HW236610  12.083   0.235   5.800
11593SOL     OW36611   2.057  14.234  10.956
11593SOL    HW136612   2.148  14.240  10.927
11593SOL    HW236613   2.048  14.304  11.020
11594SOL     OW36614  14.432   9.714   6.250
11594SOL    HW136615  14.527   9.711   6.233
11594SOL    HW236616  14.418   9.794   6.299
11595SOL     OW36617   2.354   9.748  11.042
11595SOL    HW136618   2.290   9.816  11.061
11595SOL    HW236619   2.351   9.690  11.118
11596SOL     OW36620  13.511   3.548  10.271
11596SOL    HW136621  13.417   3.535  10.263
11596SOL    HW236622  13.524   3.582  10.359
11597SOL     OW36623   6.297   0.111  13.165
11597SOL    HW136624   6.349   0.034  13.143
11597SOL    HW236625   6.275   0.100  13.258
11598SOL     OW36626   6.477  10.546   5.921
11598SOL    HW136627   6.495  10.505   5.836
11598SOL    HW236628   6.547  10.611   5.931
11599SOL     OW36629   7.934  13.306   8.777
11599SOL    HW136630   7.925  13.211   8.770
11599SOL    HW236631   7.878  13.341   8.708
11600SOL     OW36632  13.115   0.162  14.878
11600SOL    HW136633  13.070   0.169   0.083
11600SOL    HW236634  13.067   0.222  14.821
11601SOL     OW36635   0.333   8.326   5.698
11601SOL    HW136636   0.274   8.359   5.630
11601SOL    HW236637   0.421   8.340   5.663
11602SOL     OW36638   3.770  12.836   0.763
11602SOL    HW136639   3.845  12.776   0.758
11602SOL    HW236640   3.744  12.850   0.672
11603SOL     OW36641  11.158  10.240  11.052
11603SOL    HW136642  11.204  10.322  11.070
11603SOL    HW236643  11.222  10.172  11.071
11604SOL     OW36644  11.804  10.084   0.333
11604SOL    HW136645  11.836   9.997   0.357
11604SOL    HW236646  11.731  10.067   0.273
11605SOL     OW36647  12.087  13.243   6.300
11605SOL    HW136648  12.082  13.319   6.357
11605SOL    HW236649  12.052  13.274   6.216
11606SOL     OW36650  12.905  10.450  12.792
11606SOL    HW136651  12.849  10.438  12.716
11606SOL    HW236652  12.971  10.514  12.763
11607SOL     OW36653  10.007   4.587  14.192
11607SOL    HW136654  10.073   4.589  14.262
11607SOL    HW236655   9.995   4.679  14.168
11608SOL     OW36656   2.786  11.458   2.402
11608SOL    HW136657   2.804  11.423   2.314
11608SOL    HW236658   2.744  11.385   2.448
11609SOL     OW36659   2.928   3.879   8.879
11609SOL    HW136660   2.867   3.808   8.899
11609SOL    HW236661   2.871   3.951   8.851
11610SOL     OW36662   5.553   3.449   2.337
11610SOL    HW136663   5.592   3.537   2.335
11610SOL    HW236664   5.589   3.406   2.259
11611SOL     OW36665   5.735  12.726   1.369
11611SOL    HW136666   5.652  12.684   1.389
11611SOL    HW236667   5.755  12.699   1.280
11612SOL     OW36668   7.428   1.120   3.087
11612SOL    HW136669   7.401   1.063   3.159
11612SOL    HW236670   7.360   1.108   3.020
11613SOL     OW36671  11.706   4.592   0.021
11613SOL    HW136672  11.707   4.631   0.108
11613SOL    HW236673  11.726   4.499   0.036
11614SOL     OW36674   6.865   2.395  12.343
11614SOL    HW136675   6.948   2.435  12.367
11614SOL    HW236676   6.877   2.302  12.360
11615SOL     OW36677   6.723   4.278   7.705
11615SOL    HW136678   6.718   4.192   7.663
11615SOL    HW236679   6.816   4.302   7.698
11616SOL     OW36680  12.918   7.728   7.475
11616SOL    HW136681  12.942   7.638   7.498
11616SOL    HW236682  12.992   7.781   7.506
11617SOL     OW36683   4.913   6.643   2.521
11617SOL    HW136684   4.874   6.572   2.571
11617SOL    HW236685   4.843   6.675   2.464
11618SOL     OW36686   3.456  12.125   3.427
11618SOL    HW136687   3.378  12.110   3.373
11618SOL    HW236688   3.475  12.218   3.417
11619SOL     OW36689   7.737  13.954   5.252
11619SOL    HW136690   7.735  14.046   5.228
11619SOL    HW236691   7.659  13.941   5.305
11620SOL     OW36692  10.313   6.863  14.025
11620SOL    HW136693  10.343   6.790  14.078
11620SOL    HW236694  10.235   6.831  13.980
11621SOL     OW36695   6.832  12.133   2.248
11621SOL    HW136696   6.765  12.067   2.268
11621SOL    HW236697   6.785  12.201   2.201
11622SOL     OW36698  12.784   8.925   5.637
11622SOL    HW136699  12.806   8.940   5.545
11622SOL    HW236700  12.867   8.935   5.683
11623SOL     OW36701   3.394   9.270   1.835
11623SOL    HW136702   3.465   9.206   1.848
11623SOL    HW236703   3.403   9.331   1.908
11624SOL     OW36704   3.750   1.214  10.585
11624SOL    HW136705   3.728   1.183  10.497
11624SOL    HW236706   3.843   1.237  10.580
11625SOL     OW36707   1.818  14.861   6.607
11625SOL    HW136708   1.876  14.808   6.552
11625SOL    HW236709   1.862   0.067   6.613
11626SOL     OW36710   9.453   9.536   2.137
11626SOL    HW136711   9.493   9.483   2.068
11626SOL    HW236712   9.414   9.472   2.197
11627SOL     OW36713  11.749  11.094   3.061
11627SOL    HW136714  11.824  11.034   3.054
11627SOL    HW236715  11.747  11.119   3.153
11628SOL     OW36716   1.018   1.988   9.587
11628SOL    HW136717   1.100   1.946   9.560
11628SOL    HW236718   0.963   1.988   9.508
11629SOL     OW36719   9.224   4.129   4.585
11629SOL    HW136720   9.275   4.141   4.505
11629SOL    HW236721   9.219   4.217   4.624
11630SOL     OW36722   7.068   0.729   9.930
11630SOL    HW136723   7.094   0.723  10.022
11630SOL    HW236724   7.121   0.662   9.886
11631SOL     OW36725   3.614   0.396   1.434
11631SOL    HW136726   3.603   0.302   1.419
11631SOL    HW236727   3.660   0.401   1.518
11632SOL     OW36728   8.375   1.309  13.191
11632SOL    HW136729   8.431   1.348  13.124
11632SOL    HW236730   8.336   1.233  13.148
11633SOL     OW36731   8.180   3.927   5.232
11633SOL    HW136732   8.111   3.861   5.240
11633SOL    HW236733   8.156   3.978   5.155
11634SOL     OW36734   0.783   8.130   6.328
11634SOL    HW136735   0.823   8.183   6.259
11634SOL    HW236736   0.844   8.058   6.342
11635SOL     OW36737  10.775   7.476   5.566
11635SOL    HW136738  10.713   7.531   5.519
11635SOL    HW236739  10.784   7.517   5.652
11636SOL     OW36740   8.373  13.433  11.863
11636SOL    HW136741   8.335  13.428  11.951
11636SOL    HW236742   8.433  13.358  11.859
11637SOL     OW36743   8.944   7.683  13.304
11637SOL    HW136744   8.917   7.641  13.386
11637SOL    HW236745   8.943   7.612  13.239
11638SOL     OW36746   5.634   9.955   3.039
11638SOL    HW136747   5.690   9.936   2.964
11638SOL    HW236748   5.673   9.906   3.112
11639SOL     OW36749   3.041   2.940  12.023
11639SOL    HW136750   3.023   2.852  11.990
11639SOL    HW236751   3.092   2.981  11.953
11640SOL     OW36752   6.772   6.732   4.016
11640SOL    HW136753   6.725   6.650   4.000
11640SOL    HW236754   6.774   6.740   4.112
11641SOL     OW36755   3.846   1.371  13.144
11641SOL    HW136756   3.877   1.392  13.056
11641SOL    HW236757   3.802   1.451  13.173
11642SOL     OW36758   1.264  13.693   2.333
11642SOL    HW136759   1.225  13.773   2.298
11642SOL    HW236760   1.335  13.673   2.272
11643SOL     OW36761  12.145   7.376   2.338
11643SOL    HW136762  12.090   7.413   2.269
11643SOL    HW236763  12.083   7.337   2.400
11644SOL     OW36764   5.748   3.604   4.040
11644SOL    HW136765   5.744   3.539   4.110
11644SOL    HW236766   5.666   3.653   4.048
11645SOL     OW36767   5.241  13.870   8.691
11645SOL    HW136768   5.223  13.939   8.627
11645SOL    HW236769   5.249  13.917   8.774
11646SOL     OW36770   8.293  10.127   0.611
11646SOL    HW136771   8.223  10.156   0.670
11646SOL    HW236772   8.278  10.177   0.531
11647SOL     OW36773   9.970  14.515  13.015
11647SOL    HW136774  10.020  14.593  13.038
11647SOL    HW236775   9.936  14.483  13.099
11648SOL     OW36776   5.452   1.754   8.920
11648SOL    HW136777   5.411   1.688   8.865
11648SOL    HW236778   5.438   1.837   8.874
11649SOL     OW36779   5.686   5.326  10.332
11649SOL    HW136780   5.780   5.306  10.330
11649SOL    HW236781   5.650   5.264  10.396
11650SOL     OW36782   5.381   3.732   7.030
11650SOL    HW136783   5.390   3.789   6.954
11650SOL    HW236784   5.303   3.764   7.075
11651SOL     OW36785  13.184  13.901   5.058
11651SOL    HW136786  13.207  13.852   5.137
11651SOL    HW236787  13.219  13.988   5.073
11652SOL     OW36788   8.044  13.317   4.135
11652SOL    HW136789   7.961  13.281   4.167
11652SOL    HW236790   8.018  13.378   4.066
11653SOL     OW36791  13.635   8.577  13.714
11653SOL    HW136792  13.728   8.560  13.703
11653SOL    HW236793  13.602   8.589  13.625
11654SOL     OW36794   0.988  13.034   5.640
11654SOL    HW136795   1.033  12.960   5.682
11654SOL    HW236796   0.966  13.002   5.553
11655SOL     OW36797   7.746  11.180   6.280
11655SOL    HW136798   7.722  11.229   6.359
11655SOL    HW236799   7.840  11.164   6.289
11656SOL     OW36800   1.700   4.430   5.729
11656SOL    HW136801   1.731   4.481   5.655
11656SOL    HW236802   1.643   4.363   5.691
11657SOL     OW36803   7.349  12.312   9.577
11657SOL    HW136804   7.282  12.360   9.626
11657SOL    HW236805   7.304  12.233   9.546
11658SOL     OW36806   0.946   2.554  12.853
11658SOL    HW136807   1.016   2.503  12.813
11658SOL    HW236808   0.939   2.521  12.942
11659SOL     OW36809  10.778   3.646   1.974
11659SOL    HW136810  10.737   3.671   2.057
11659SOL    HW236811  10.729   3.568   1.946
11660SOL     OW36812   8.841  13.308  12.178
11660SOL    HW136813   8.877  13.229  12.138
11660SOL    HW236814   8.911  13.339  12.236
11661SOL     OW36815   5.439   8.690   3.049
11661SOL    HW136816   5.484   8.608   3.031
11661SOL    HW236817   5.354   8.681   3.005
11662SOL     OW36818   5.716  12.024   3.635
11662SOL    HW136819   5.700  11.959   3.704
11662SOL    HW236820   5.807  12.051   3.646
11663SOL     OW36821   5.543   4.059   2.345
11663SOL    HW136822   5.619   4.003   2.356
11663SOL    HW236823   5.534   4.106   2.428
11664SOL     OW36824  14.331   8.620   3.366
11664SOL    HW136825  14.320   8.591   3.456
11664SOL    HW236826  14.365   8.544   3.320
11665SOL     OW36827   5.435  11.115   4.380
11665SOL    HW136828   5.399  11.031   4.349
11665SOL    HW236829   5.487  11.092   4.456
11666SOL     OW36830   3.976   6.739  11.954
11666SOL    HW136831   3.925   6.739  12.036
11666SOL    HW236832   4.043   6.672  11.968
11667SOL     OW36833   3.992  14.279   6.065
11667SOL    HW136834   4.050  14.308   5.994
11667SOL    HW236835   3.922  14.231   6.021
11668SOL     OW36836   7.534   9.267  14.183
11668SOL    HW136837   7.469   9.207  14.145
11668SOL    HW236838   7.484   9.320  14.245
11669SOL     OW36839   2.017   3.055  12.950
11669SOL    HW136840   2.000   3.098  12.867
11669SOL    HW236841   1.932   3.023  12.980
11670SOL     OW36842   3.387   3.235  14.124
11670SOL    HW136843   3.401   3.178  14.200
11670SOL    HW236844   3.300   3.271  14.137
11671SOL     OW36845   1.360  13.605   8.060
11671SOL    HW136846   1.292  13.580   8.123
11671SOL    HW236847   1.399  13.523   8.033
11672SOL     OW36848   7.098  11.317   5.992
11672SOL    HW136849   7.092  11.409   5.964
11672SOL    HW236850   7.030  11.309   6.059
11673SOL     OW36851  14.395   5.863   0.870
11673SOL    HW136852  14.365   5.858   0.960
11673SOL    HW236853  14.315   5.875   0.819
11674SOL     OW36854   1.321  12.824  11.769
11674SOL    HW136855   1.254  12.810  11.837
11674SOL    HW236856   1.271  12.832  11.688
11675SOL     OW36857   1.032  12.655   9.519
11675SOL    HW136858   1.075  12.706   9.450
11675SOL    HW236859   1.086  12.577   9.528
11676SOL     OW36860   5.883   7.890   9.141
11676SOL    HW136861   5.977   7.905   9.129
11676SOL    HW236862   5.854   7.961   9.198
11677SOL     OW36863   1.149  11.284   1.440
11677SOL    HW136864   1.063  11.277   1.482
11677SOL    HW236865   1.170  11.377   1.443
11678SOL     OW36866   8.041   2.344   7.982
11678SOL    HW136867   7.962   2.332   7.930
11678SOL    HW236868   8.104   2.384   7.923
11679SOL     OW36869  11.612   7.479   1.026
11679SOL    HW136870  11.667   7.532   1.084
11679SOL    HW236871  11.656   7.393   1.024
11680SOL     OW36872   9.378  14.009   9.986
11680SOL    HW136873   9.331  14.088   9.961
11680SOL    HW236874   9.327  13.937   9.948
11681SOL     OW36875   0.847  10.510   8.180
11681SOL    HW136876   0.817  10.470   8.098
11681SOL    HW236877   0.809  10.597   8.179
11682SOL     OW36878   8.451  11.031   7.517
11682SOL    HW136879   8.373  11.004   7.468
11682SOL    HW236880   8.431  11.119   7.548
11683SOL     OW36881   9.141   5.810   5.985
11683SOL    HW136882   9.188   5.752   6.046
11683SOL    HW236883   9.196   5.888   5.979
11684SOL     OW36884  13.960   0.772  13.893
11684SOL    HW136885  13.875   0.740  13.924
11684SOL    HW236886  13.956   0.765  13.798
11685SOL     OW36887  11.135   7.382   4.928
11685SOL    HW136888  11.098   7.442   4.862
11685SOL    HW236889  11.222   7.361   4.895
11686SOL     OW36890   2.882  13.218  14.091
11686SOL    HW136891   2.879  13.270  14.172
11686SOL    HW236892   2.906  13.281  14.023
11687SOL     OW36893   9.170   1.901  14.104
11687SOL    HW136894   9.136   1.812  14.092
11687SOL    HW236895   9.151   1.922  14.195
11688SOL     OW36896   4.622   8.292   6.217
11688SOL    HW136897   4.597   8.260   6.304
11688SOL    HW236898   4.627   8.387   6.227
11689SOL     OW36899   9.295   4.158  10.609
11689SOL    HW136900   9.274   4.231  10.667
11689SOL    HW236901   9.236   4.088  10.636
11690SOL     OW36902   5.054   8.983   6.996
11690SOL    HW136903   4.990   9.012   6.930
11690SOL    HW236904   5.122   8.938   6.945
11691SOL     OW36905   3.180   9.699   6.091
11691SOL    HW136906   3.097   9.737   6.063
11691SOL    HW236907   3.247   9.746   6.041
11692SOL     OW36908   1.295   1.091   6.444
11692SOL    HW136909   1.236   1.156   6.405
11692SOL    HW236910   1.377   1.138   6.458
11693SOL     OW36911   7.862   6.055   4.921
11693SOL    HW136912   7.850   6.150   4.918
11693SOL    HW236913   7.950   6.041   4.885
11694SOL     OW36914   5.463   9.511  12.775
11694SOL    HW136915   5.510   9.502  12.692
11694SOL    HW236916   5.371   9.521  12.750
11695SOL     OW36917   6.138   1.240   4.891
11695SOL    HW136918   6.132   1.328   4.927
11695SOL    HW236919   6.058   1.196   4.922
11696SOL     OW36920   8.457   8.426   6.133
11696SOL    HW136921   8.394   8.452   6.065
11696SOL    HW236922   8.540   8.467   6.105
11697SOL     OW36923   4.386  14.090   0.513
11697SOL    HW136924   4.356  14.064   0.426
11697SOL    HW236925   4.347  14.025   0.572
11698SOL     OW36926   9.051   5.073  12.358
11698SOL    HW136927   8.986   5.048  12.292
11698SOL    HW236928   9.005   5.063  12.441
11699SOL     OW36929   7.628   7.142   3.856
11699SOL    HW136930   7.581   7.098   3.785
11699SOL    HW236931   7.585   7.110   3.936
11700SOL     OW36932  12.408   1.268   0.373
11700SOL    HW136933  12.461   1.197   0.337
11700SOL    HW236934  12.365   1.230   0.449
11701SOL     OW36935  14.259  12.482   3.873
11701SOL    HW136936  14.267  12.566   3.918
11701SOL    HW236937  14.341  12.473   3.824
11702SOL     OW36938  13.584   3.587   8.282
11702SOL    HW136939  13.624   3.512   8.327
11702SOL    HW236940  13.548   3.550   8.201
11703SOL     OW36941  12.307  14.563  11.671
11703SOL    HW136942  12.400  14.586  11.674
11703SOL    HW236943  12.286  14.533  11.759
11704SOL     OW36944  11.033   2.168   5.294
11704SOL    HW136945  11.041   2.174   5.199
11704SOL    HW236946  11.101   2.106   5.321
11705SOL     OW36947   8.639  13.033   5.835
11705SOL    HW136948   8.640  13.006   5.743
11705SOL    HW236949   8.731  13.049   5.857
11706SOL     OW36950   8.850   4.546  14.171
11706SOL    HW136951   8.909   4.614  14.137
11706SOL    HW236952   8.881   4.465  14.130
11707SOL     OW36953  14.095   5.615  10.365
11707SOL    HW136954  14.059   5.526  10.362
11707SOL    HW236955  14.172   5.607  10.421
11708SOL     OW36956  12.344  12.600   2.176
11708SOL    HW136957  12.347  12.521   2.123
11708SOL    HW236958  12.296  12.664   2.122
11709SOL     OW36959   2.911   9.393   2.839
11709SOL    HW136960   2.862   9.470   2.869
11709SOL    HW236961   2.967   9.427   2.770
11710SOL     OW36962   6.476   5.350   9.141
11710SOL    HW136963   6.476   5.319   9.051
11710SOL    HW236964   6.388   5.385   9.154
11711SOL     OW36965  11.287   9.939  10.740
11711SOL    HW136966  11.310   9.848  10.756
11711SOL    HW236967  11.213   9.935  10.679
11712SOL     OW36968   2.283  11.246   2.985
11712SOL    HW136969   2.373  11.221   3.002
11712SOL    HW236970   2.231  11.171   3.014
11713SOL     OW36971   5.921   5.623  13.886
11713SOL    HW136972   5.939   5.702  13.937
11713SOL    HW236973   6.005   5.601  13.845
11714SOL     OW36974   6.959  10.339   9.856
11714SOL    HW136975   6.922  10.361   9.770
11714SOL    HW236976   6.899  10.274   9.892
11715SOL     OW36977   8.831  11.258  14.210
11715SOL    HW136978   8.826  11.345  14.249
11715SOL    HW236979   8.889  11.268  14.135
11716SOL     OW36980   9.497   5.044   2.766
11716SOL    HW136981   9.511   4.962   2.719
11716SOL    HW236982   9.521   5.112   2.703
11717SOL     OW36983  10.226   8.439   6.536
11717SOL    HW136984  10.309   8.430   6.489
11717SOL    HW236985  10.203   8.350   6.562
11718SOL     OW36986  14.071  11.955   7.496
11718SOL    HW136987  14.132  11.931   7.426
11718SOL    HW236988  14.087  11.891   7.565
11719SOL     OW36989  12.655  10.130  13.778
11719SOL    HW136990  12.686  10.066  13.715
11719SOL    HW236991  12.715  10.123  13.852
11720SOL     OW36992  10.119   7.274  12.639
11720SOL    HW136993  10.136   7.184  12.668
11720SOL    HW236994  10.095   7.265  12.547
11721SOL     OW36995   3.529   3.120   1.890
11721SOL    HW136996   3.527   3.030   1.856
11721SOL    HW236997   3.622   3.139   1.903
11722SOL     OW36998  14.618  14.070   8.477
11722SOL    HW136999  14.580  14.119   8.404
11722SOL    HW237000  14.616  14.132   8.551
11723SOL     OW37001   9.255  11.675   4.649
11723SOL    HW137002   9.202  11.745   4.613
11723SOL    HW237003   9.264  11.612   4.577
11724SOL     OW37004   8.479   6.804  12.277
11724SOL    HW137005   8.488   6.718  12.237
11724SOL    HW237006   8.515   6.793  12.365
11725SOL     OW37007   8.314   6.495   1.191
11725SOL    HW137008   8.300   6.578   1.237
11725SOL    HW237009   8.270   6.507   1.107
11726SOL     OW37010  14.772   5.997  10.077
11726SOL    HW137011  14.820   5.915  10.061
11726SOL    HW237012  14.748   5.993  10.169
11727SOL     OW37013  14.368   8.021  11.823
11727SOL    HW137014  14.324   8.090  11.774
11727SOL    HW237015  14.415   8.068  11.892
11728SOL     OW37016   7.575   2.441   3.506
11728SOL    HW137017   7.535   2.515   3.461
11728SOL    HW237018   7.655   2.475   3.544
11729SOL     OW37019   7.632   9.828   9.762
11729SOL    HW137020   7.673   9.767   9.824
11729SOL    HW237021   7.556   9.780   9.729
11730SOL     OW37022  13.220   9.711   4.509
11730SOL    HW137023  13.218   9.684   4.600
11730SOL    HW237024  13.234   9.630   4.460
11731SOL     OW37025   5.226   0.489  12.275
11731SOL    HW137026   5.295   0.549  12.301
11731SOL    HW237027   5.270   0.422  12.222
11732SOL     OW37028   4.616   6.318  12.521
11732SOL    HW137029   4.628   6.265  12.599
11732SOL    HW237030   4.588   6.256  12.454
11733SOL     OW37031  10.900   2.508   6.420
11733SOL    HW137032  10.944   2.441   6.367
11733SOL    HW237033  10.970   2.566   6.449
11734SOL     OW37034   6.921   6.468   5.281
11734SOL    HW137035   6.843   6.467   5.226
11734SOL    HW237036   6.911   6.391   5.337
11735SOL     OW37037  12.399  13.811   6.755
11735SOL    HW137038  12.373  13.790   6.665
11735SOL    HW237039  12.342  13.757   6.810
11736SOL     OW37040  11.487  10.583  10.169
11736SOL    HW137041  11.506  10.618  10.082
11736SOL    HW237042  11.461  10.660  10.220
11737SOL     OW37043  11.162   1.811  10.188
11737SOL    HW137044  11.186   1.813  10.095
11737SOL    HW237045  11.241   1.840  10.234
11738SOL     OW37046   0.139   6.635  14.631
11738SOL    HW137047   0.204   6.640  14.701
11738SOL    HW237048   0.094   6.720  14.634
11739SOL     OW37049  12.105   7.110   7.962
11739SOL    HW137050  12.156   7.066   7.894
11739SOL    HW237051  12.133   7.069   8.044
11740SOL     OW37052  10.838  13.830  11.584
11740SOL    HW137053  10.918  13.855  11.629
11740SOL    HW237054  10.843  13.873  11.499
11741SOL     OW37055   2.816   5.506   3.972
11741SOL    HW137056   2.763   5.487   4.049
11741SOL    HW237057   2.834   5.600   3.978
11742SOL     OW37058  12.942  14.646   4.469
11742SOL    HW137059  12.979  14.674   4.552
11742SOL    HW237060  12.965  14.716   4.407
11743SOL     OW37061   0.684   0.052   3.763
11743SOL    HW137062   0.607   0.083   3.810
11743SOL    HW237063   0.717  14.858   3.816
11744SOL     OW37064   3.993   7.645   0.491
11744SOL    HW137065   3.994   7.563   0.440
11744SOL    HW237066   4.044   7.706   0.438
11745SOL     OW37067   3.953   3.845   7.702
11745SOL    HW137068   4.026   3.859   7.763
11745SOL    HW237069   3.953   3.751   7.686
11746SOL     OW37070   1.980   9.074   7.296
11746SOL    HW137071   2.012   9.093   7.384
11746SOL    HW237072   1.955   9.159   7.260
11747SOL     OW37073  12.934   8.985  11.604
11747SOL    HW137074  12.851   9.021  11.572
11747SOL    HW237075  12.908   8.907  11.654
11748SOL     OW37076   9.640  10.141   9.361
11748SOL    HW137077   9.603  10.227   9.381
11748SOL    HW237078   9.726  10.159   9.323
11749SOL     OW37079   9.697  11.917  13.955
11749SOL    HW137080   9.650  11.969  14.021
11749SOL    HW237081   9.757  11.980  13.914
11750SOL     OW37082  12.907   7.936   9.062
11750SOL    HW137083  12.908   8.016   9.009
11750SOL    HW237084  12.833   7.948   9.121
11751SOL     OW37085  11.616   6.582  11.400
11751SOL    HW137086  11.711   6.567  11.398
11751SOL    HW237087  11.579   6.506  11.355
11752SOL     OW37088  12.594  13.733  13.136
11752SOL    HW137089  12.643  13.804  13.094
11752SOL    HW237090  12.561  13.680  13.063
11753SOL     OW37091   4.424   4.486  11.616
11753SOL    HW137092   4.367   4.514  11.688
11753SOL    HW237093   4.512   4.509  11.646
11754SOL     OW37094   1.046   7.447   7.100
11754SOL    HW137095   0.951   7.459   7.111
11754SOL    HW237096   1.079   7.443   7.190
11755SOL     OW37097   2.628   2.018   5.709
11755SOL    HW137098   2.695   2.086   5.699
11755SOL    HW237099   2.671   1.950   5.761
11756SOL     OW37100   7.529   0.115   7.075
11756SOL    HW137101   7.606   0.170   7.067
11756SOL    HW237102   7.497   0.131   7.164
11757SOL     OW37103  10.446   3.597   3.492
11757SOL    HW137104  10.493   3.518   3.519
11757SOL    HW237105  10.369   3.600   3.549
11758SOL     OW37106   4.266   3.471   3.183
11758SOL    HW137107   4.345   3.420   3.165
11758SOL    HW237108   4.298   3.550   3.228
11759SOL     OW37109  14.107  11.986  13.133
11759SOL    HW137110  14.093  11.935  13.053
11759SOL    HW237111  14.038  11.958  13.192
11760SOL     OW37112   0.140   2.902   4.180
11760SOL    HW137113   0.177   2.978   4.225
11760SOL    HW237114   0.045   2.914   4.185
11761SOL     OW37115  10.879   5.689  10.946
11761SOL    HW137116  10.958   5.664  10.899
11761SOL    HW237117  10.908   5.754  11.010
11762SOL     OW37118  14.287  11.116   6.949
11762SOL    HW137119  14.200  11.076   6.952
11762SOL    HW237120  14.348  11.044   6.965
11763SOL     OW37121  11.076   1.648  14.670
11763SOL    HW137122  11.092   1.616  14.759
11763SOL    HW237123  11.052   1.570  14.620
11764SOL     OW37124   2.769   9.568   9.158
11764SOL    HW137125   2.829   9.522   9.100
11764SOL    HW237126   2.821   9.588   9.236
11765SOL     OW37127  14.750   0.979   2.074
11765SOL    HW137128  14.704   0.923   2.136
11765SOL    HW237129  14.805   1.036   2.128
11766SOL     OW37130   8.798   6.059   4.371
11766SOL    HW137131   8.800   5.967   4.344
11766SOL    HW237132   8.879   6.096   4.334
11767SOL     OW37133  14.445   5.178   7.497
11767SOL    HW137134  14.430   5.098   7.446
11767SOL    HW237135  14.416   5.249   7.439
11768SOL     OW37136   3.577  14.557  12.790
11768SOL    HW137137   3.624  14.593  12.866
11768SOL    HW237138   3.487  14.549  12.820
11769SOL     OW37139   2.038   7.630  11.955
11769SOL    HW137140   1.952   7.593  11.935
11769SOL    HW237141   2.025   7.679  12.036
11770SOL     OW37142   4.066   2.937   2.451
11770SOL    HW137143   4.029   2.936   2.539
11770SOL    HW237144   3.993   2.917   2.393
11771SOL     OW37145   2.440  11.370  13.840
11771SOL    HW137146   2.350  11.346  13.817
11771SOL    HW237147   2.431  11.444  13.899
11772SOL     OW37148   3.391   7.545   3.157
11772SOL    HW137149   3.323   7.487   3.123
11772SOL    HW237150   3.362   7.633   3.133
11773SOL     OW37151   5.903  14.735   7.321
11773SOL    HW137152   5.962  14.786   7.378
11773SOL    HW237153   5.824  14.724   7.373
11774SOL     OW37154  12.787   4.839   4.548
11774SOL    HW137155  12.701   4.869   4.579
11774SOL    HW237156  12.834   4.920   4.528
11775SOL     OW37157   4.792  12.166  13.835
11775SOL    HW137158   4.701  12.139  13.822
11775SOL    HW237159   4.787  12.259  13.855
11776SOL     OW37160   7.911   3.755   5.795
11776SOL    HW137161   8.003   3.731   5.793
11776SOL    HW237162   7.896   3.786   5.884
11777SOL     OW37163   0.983  11.328   5.804
11777SOL    HW137164   1.018  11.392   5.866
11777SOL    HW237165   0.891  11.320   5.827
11778SOL     OW37166  13.591  13.091   8.467
11778SOL    HW137167  13.498  13.097   8.491
11778SOL    HW237168  13.629  13.173   8.498
11779SOL     OW37169   5.072  11.765   8.904
11779SOL    HW137170   5.082  11.685   8.956
11779SOL    HW237171   5.018  11.822   8.959
11780SOL     OW37172  11.057   2.609   5.948
11780SOL    HW137173  11.102   2.572   5.872
11780SOL    HW237174  11.126   2.621   6.013
11781SOL     OW37175  10.854  11.092   3.741
11781SOL    HW137176  10.764  11.070   3.718
11781SOL    HW237177  10.872  11.042   3.820
11782SOL     OW37178   5.315   6.222   4.091
11782SOL    HW137179   5.228   6.237   4.127
11782SOL    HW237180   5.301   6.156   4.023
11783SOL     OW37181  11.532   8.600   1.676
11783SOL    HW137182  11.509   8.661   1.606
11783SOL    HW237183  11.448   8.571   1.711
11784SOL     OW37184  10.996  11.012   2.330
11784SOL    HW137185  11.016  11.006   2.236
11784SOL    HW237186  10.901  11.020   2.334
11785SOL     OW37187   8.718   6.762   1.517
11785SOL    HW137188   8.782   6.691   1.527
11785SOL    HW237189   8.636   6.717   1.497
11786SOL     OW37190   2.405   8.729   3.884
11786SOL    HW137191   2.471   8.673   3.843
11786SOL    HW237192   2.447   8.815   3.888
11787SOL     OW37193   9.356   5.371  12.697
11787SOL    HW137194   9.284   5.311  12.678
11787SOL    HW237195   9.398   5.334  12.774
11788SOL     OW37196   5.209   9.932  11.123
11788SOL    HW137197   5.302   9.948  11.112
11788SOL    HW237198   5.203   9.874  11.200
11789SOL     OW37199   6.225   2.638   8.372
11789SOL    HW137200   6.177   2.678   8.444
11789SOL    HW237201   6.189   2.549   8.366
11790SOL     OW37202   6.946  10.403   0.386
11790SOL    HW137203   6.939  10.488   0.343
11790SOL    HW237204   6.876  10.350   0.349
11791SOL     OW37205  13.346   5.377   1.398
11791SOL    HW137206  13.398   5.305   1.434
11791SOL    HW237207  13.340   5.357   1.304
11792SOL     OW37208  14.560   6.078   4.620
11792SOL    HW137209  14.493   6.018   4.654
11792SOL    HW237210  14.511   6.144   4.572
11793SOL     OW37211   6.730   9.076  12.517
11793SOL    HW137212   6.818   9.113  12.508
11793SOL    HW237213   6.709   9.086  12.609
11794SOL     OW37214   3.256   5.685   3.791
11794SOL    HW137215   3.291   5.691   3.702
11794SOL    HW237216   3.322   5.729   3.846
11795SOL     OW37217   0.162   6.917  14.128
11795SOL    HW137218   0.134   6.850  14.065
11795SOL    HW237219   0.105   6.992  14.109
11796SOL     OW37220  14.387   6.972   4.899
11796SOL    HW137221  14.371   6.980   4.805
11796SOL    HW237222  14.313   6.921   4.932
11797SOL     OW37223  10.282   3.609  11.188
11797SOL    HW137224  10.263   3.587  11.097
11797SOL    HW237225  10.213   3.566  11.238
11798SOL     OW37226   6.871   0.628   2.688
11798SOL    HW137227   6.892   0.702   2.631
11798SOL    HW237228   6.871   0.552   2.630
11799SOL     OW37229  12.385  11.660   2.896
11799SOL    HW137230  12.458  11.714   2.864
11799SOL    HW237231  12.418  11.620   2.976
11800SOL     OW37232   2.602   2.730   0.469
11800SOL    HW137233   2.542   2.801   0.491
11800SOL    HW237234   2.675   2.772   0.423
11801SOL     OW37235  14.498  11.987   6.668
11801SOL    HW137236  14.487  12.011   6.760
11801SOL    HW237237  14.410  11.994   6.630
11802SOL     OW37238   3.036   4.404   9.978
11802SOL    HW137239   3.010   4.491  10.007
11802SOL    HW237240   3.036   4.351  10.058
11803SOL     OW37241   2.241   6.395   6.583
11803SOL    HW137242   2.331   6.380   6.613
11803SOL    HW237243   2.238   6.356   6.496
11804SOL     OW37244  11.194  11.293  14.604
11804SOL    HW137245  11.107  11.264  14.629
11804SOL    HW237246  11.225  11.226  14.543
11805SOL     OW37247  11.773  14.181   9.532
11805SOL    HW137248  11.754  14.144   9.446
11805SOL    HW237249  11.757  14.108   9.593
11806SOL     OW37250  10.921   8.154   8.011
11806SOL    HW137251  10.828   8.150   7.988
11806SOL    HW237252  10.953   8.235   7.971
11807SOL     OW37253   2.229  12.936  13.166
11807SOL    HW137254   2.138  12.965  13.175
11807SOL    HW237255   2.239  12.919  13.072
11808SOL     OW37256   2.213   3.202  11.779
11808SOL    HW137257   2.199   3.183  11.686
11808SOL    HW237258   2.274   3.134  11.808
11809SOL     OW37259   1.854   0.682   6.981
11809SOL    HW137260   1.893   0.620   6.919
11809SOL    HW237261   1.872   0.768   6.944
11810SOL     OW37262  13.230   5.889   4.961
11810SOL    HW137263  13.150   5.911   5.010
11810SOL    HW237264  13.200   5.826   4.895
11811SOL     OW37265   6.862   8.568   1.179
11811SOL    HW137266   6.804   8.640   1.205
11811SOL    HW237267   6.930   8.611   1.127
11812SOL     OW37268   5.367   3.703   2.026
11812SOL    HW137269   5.462   3.693   2.035
11812SOL    HW237270   5.333   3.614   2.037
11813SOL     OW37271  11.941   3.618  11.960
11813SOL    HW137272  11.965   3.700  11.918
11813SOL    HW237273  11.860   3.591  11.917
11814SOL     OW37274   8.790  14.452  11.796
11814SOL    HW137275   8.865  14.509  11.812
11814SOL    HW237276   8.763  14.423  11.883
11815SOL     OW37277   6.419   0.150   2.190
11815SOL    HW137278   6.483   0.173   2.123
11815SOL    HW237279   6.334   0.161   2.147
11816SOL     OW37280   1.025   0.394  12.084
11816SOL    HW137281   1.042   0.381  12.177
11816SOL    HW237282   0.960   0.464  12.081
11817SOL     OW37283   6.291   0.335   5.117
11817SOL    HW137284   6.336   0.265   5.165
11817SOL    HW237285   6.267   0.294   5.034
11818SOL     OW37286   9.258  11.625  14.780
11818SOL    HW137287   9.320  11.641  14.850
11818SOL    HW237288   9.172  11.628  14.822
11819SOL     OW37289  11.670   5.801   2.166
11819SOL    HW137290  11.692   5.724   2.218
11819SOL    HW237291  11.755   5.838   2.140
11820SOL     OW37292  12.298   7.404   8.025
11820SOL    HW137293  12.366   7.343   7.998
11820SOL    HW237294  12.325   7.488   7.988
11821SOL     OW37295  13.468  10.423   7.951
11821SOL    HW137296  13.480  10.350   7.891
11821SOL    HW237297  13.374  10.443   7.945
11822SOL     OW37298  12.256   0.604   3.470
11822SOL    HW137299  12.297   0.601   3.557
11822SOL    HW237300  12.168   0.570   3.484
11823SOL     OW37301   9.303  14.366   4.915
11823SOL    HW137302   9.338  14.452   4.890
11823SOL    HW237303   9.365  14.333   4.980
11824SOL     OW37304   2.936  14.711  10.899
11824SOL    HW137305   2.909  14.631  10.854
11824SOL    HW237306   3.023  14.730  10.865
11825SOL     OW37307   9.889   7.191  11.765
11825SOL    HW137308   9.849   7.277  11.759
11825SOL    HW237309   9.980   7.204  11.738
11826SOL     OW37310   6.202  11.229   4.699
11826SOL    HW137311   6.148  11.252   4.623
11826SOL    HW237312   6.290  11.217   4.663
11827SOL     OW37313   0.268   6.869  13.136
11827SOL    HW137314   0.230   6.931  13.199
11827SOL    HW237315   0.338   6.825  13.185
11828SOL     OW37316   9.529   9.793   1.657
11828SOL    HW137317   9.580   9.801   1.576
11828SOL    HW237318   9.478   9.874   1.661
11829SOL     OW37319   1.101   5.318   3.642
11829SOL    HW137320   1.043   5.334   3.716
11829SOL    HW237321   1.184   5.291   3.682
11830SOL     OW37322   2.982  10.811   5.250
11830SOL    HW137323   2.943  10.780   5.331
11830SOL    HW237324   3.034  10.738   5.218
11831SOL     OW37325   3.685   4.432   9.772
11831SOL    HW137326   3.675   4.484   9.693
11831SOL    HW237327   3.618   4.465   9.832
11832SOL     OW37328   6.589   4.071   5.116
11832SOL    HW137329   6.504   4.112   5.101
11832SOL    HW237330   6.585   4.040   5.207
11833SOL     OW37331   8.885   9.717  14.723
11833SOL    HW137332   8.834   9.767  14.659
11833SOL    HW237333   8.964   9.691  14.676
11834SOL     OW37334   9.096   2.754   9.772
11834SOL    HW137335   9.150   2.747   9.851
11834SOL    HW237336   9.159   2.752   9.700
11835SOL     OW37337  14.172   2.615   6.856
11835SOL    HW137338  14.126   2.576   6.931
11835SOL    HW237339  14.146   2.561   6.781
11836SOL     OW37340  13.613  10.084  13.488
11836SOL    HW137341  13.556  10.158  13.468
11836SOL    HW237342  13.632  10.043  13.404
11837SOL     OW37343   2.863  14.747   7.759
11837SOL    HW137344   2.855  14.661   7.800
11837SOL    HW237345   2.774  14.768   7.730
11838SOL     OW37346  12.595   6.584   1.115
11838SOL    HW137347  12.501   6.576   1.130
11838SOL    HW237348  12.605   6.663   1.062
11839SOL     OW37349  12.836   8.350   7.300
11839SOL    HW137350  12.766   8.288   7.319
11839SOL    HW237351  12.916   8.298   7.298
11840SOL     OW37352   5.462   3.155   2.566
11840SOL    HW137353   5.417   3.238   2.548
11840SOL    HW237354   5.465   3.150   2.661
11841SOL     OW37355  12.087   1.367   1.826
11841SOL    HW137356  12.090   1.341   1.734
11841SOL    HW237357  11.999   1.345   1.855
11842SOL     OW37358   4.496   2.913  11.087
11842SOL    HW137359   4.464   3.001  11.065
11842SOL    HW237360   4.521   2.918  11.179
11843SOL     OW37361  13.608  10.408   4.866
11843SOL    HW137362  13.686  10.384   4.916
11843SOL    HW237363  13.643  10.447   4.785
11844SOL     OW37364   1.705  14.419  14.750
11844SOL    HW137365   1.749  14.503  14.758
11844SOL    HW237366   1.616  14.435  14.784
11845SOL     OW37367   3.035  13.206   4.826
11845SOL    HW137368   2.982  13.279   4.858
11845SOL    HW237369   3.053  13.153   4.903
11846SOL     OW37370   9.644  11.168   9.720
11846SOL    HW137371   9.705  11.205   9.784
11846SOL    HW237372   9.696  11.157   9.641
11847SOL     OW37373  11.082   1.318  10.920
11847SOL    HW137374  11.125   1.355  10.843
11847SOL    HW237375  11.146   1.258  10.957
11848SOL     OW37376   9.011   0.335  13.610
11848SOL    HW137377   8.975   0.279  13.542
11848SOL    HW237378   8.947   0.333  13.680
11849SOL     OW37379   0.322   8.600   6.613
11849SOL    HW137380   0.358   8.665   6.553
11849SOL    HW237381   0.347   8.630   6.700
11850SOL     OW37382   9.431   2.513   1.334
11850SOL    HW137383   9.409   2.546   1.421
11850SOL    HW237384   9.499   2.572   1.302
11851SOL     OW37385   8.996   2.254  11.786
11851SOL    HW137386   8.957   2.326  11.736
11851SOL    HW237387   9.012   2.185  11.721
11852SOL     OW37388  13.382   2.759   4.024
11852SOL    HW137389  13.436   2.708   3.964
11852SOL    HW237390  13.318   2.802   3.967
11853SOL     OW37391   5.772  10.503  12.285
11853SOL    HW137392   5.738  10.502  12.375
11853SOL    HW237393   5.710  10.449  12.236
11854SOL     OW37394   1.977   2.572   5.552
11854SOL    HW137395   1.972   2.657   5.508
11854SOL    HW237396   1.899   2.569   5.608
11855SOL     OW37397   2.445   9.016   0.458
11855SOL    HW137398   2.531   8.974   0.459
11855SOL    HW237399   2.457   9.094   0.404
11856SOL     OW37400  10.917  14.014  12.818
11856SOL    HW137401  10.877  14.084  12.869
11856SOL    HW237402  10.885  13.933  12.859
11857SOL     OW37403   4.710   1.900   9.040
11857SOL    HW137404   4.799   1.895   9.004
11857SOL    HW237405   4.720   1.949   9.122
11858SOL     OW37406   0.299   9.048   8.336
11858SOL    HW137407   0.339   9.106   8.272
11858SOL    HW237408   0.361   9.045   8.409
11859SOL     OW37409  12.971   9.453   5.515
11859SOL    HW137410  12.976   9.473   5.609
11859SOL    HW237411  12.878   9.460   5.494
11860SOL     OW37412  12.099  13.038   2.804
11860SOL    HW137413  12.070  13.128   2.787
11860SOL    HW237414  12.164  13.021   2.737
11861SOL     OW37415   6.092   6.676  11.499
11861SOL    HW137416   6.162   6.723  11.454
11861SOL    HW237417   6.057   6.739  11.562
11862SOL     OW37418   1.392   2.883   2.690
11862SOL    HW137419   1.349   2.807   2.651
11862SOL    HW237420   1.459   2.908   2.626
11863SOL     OW37421   2.708  10.855  11.989
11863SOL    HW137422   2.651  10.781  11.967
11863SOL    HW237423   2.757  10.872  11.909
11864SOL     OW37424   2.946   4.246   9.485
11864SOL    HW137425   2.973   4.252   9.577
11864SOL    HW237426   2.909   4.332   9.464
11865SOL     OW37427  11.550  13.691   4.890
11865SOL    HW137428  11.473  13.722   4.938
11865SOL    HW237429  11.521  13.609   4.850
11866SOL     OW37430   6.710  10.688   2.980
11866SOL    HW137431   6.797  10.711   2.949
11866SOL    HW237432   6.665  10.772   2.992
11867SOL     OW37433   6.347   8.153  13.496
11867SOL    HW137434   6.379   8.166  13.585
11867SOL    HW237435   6.422   8.172  13.440
11868SOL     OW37436   5.593   5.874  12.707
11868SOL    HW137437   5.542   5.842  12.632
11868SOL    HW237438   5.550   5.957  12.730
11869SOL     OW37439   0.341   6.269   3.580
11869SOL    HW137440   0.295   6.341   3.536
11869SOL    HW237441   0.434   6.287   3.566
11870SOL     OW37442   7.998  12.696  14.613
11870SOL    HW137443   7.919  12.736  14.577
11870SOL    HW237444   8.057  12.770  14.628
11871SOL     OW37445  14.145   6.076   9.829
11871SOL    HW137446  14.180   6.063   9.740
11871SOL    HW237447  14.201   6.022   9.885
11872SOL     OW37448   2.112  13.841  14.364
11872SOL    HW137449   2.130  13.901  14.436
11872SOL    HW237450   2.146  13.757  14.393
11873SOL     OW37451   9.462   0.514   7.688
11873SOL    HW137452   9.379   0.473   7.664
11873SOL    HW237453   9.486   0.472   7.771
11874SOL     OW37454  14.804  13.482   9.983
11874SOL    HW137455  14.784  13.490   9.889
11874SOL    HW237456  14.737  13.423  10.016
11875SOL     OW37457   6.175  14.273   1.896
11875SOL    HW137458   6.097  14.271   1.841
11875SOL    HW237459   6.197  14.366   1.904
11876SOL     OW37460  10.889   8.452  11.671
11876SOL    HW137461  10.834   8.462  11.594
11876SOL    HW237462  10.848   8.383  11.723
11877SOL     OW37463  10.309  11.474   3.071
11877SOL    HW137464  10.255  11.547   3.040
11877SOL    HW237465  10.268  11.449   3.154
11878SOL     OW37466  13.913   8.877   4.564
11878SOL    HW137467  13.995   8.851   4.520
11878SOL    HW237468  13.875   8.794   4.594
11879SOL     OW37469  10.886   5.232  11.994
11879SOL    HW137470  10.818   5.173  11.961
11879SOL    HW237471  10.945   5.245  11.920
11880SOL     OW37472   4.462   6.164  12.911
11880SOL    HW137473   4.414   6.110  12.974
11880SOL    HW237474   4.554   6.141  12.926
11881SOL     OW37475   2.623   5.437   0.441
11881SOL    HW137476   2.661   5.360   0.483
11881SOL    HW237477   2.695   5.474   0.390
11882SOL     OW37478  10.360   8.863   5.893
11882SOL    HW137479  10.337   8.956   5.899
11882SOL    HW237480  10.277   8.818   5.885
11883SOL     OW37481   5.047  13.033   2.244
11883SOL    HW137482   5.139  13.020   2.225
11883SOL    HW237483   5.001  12.992   2.171
11884SOL     OW37484  11.169  11.913   4.044
11884SOL    HW137485  11.164  11.964   3.963
11884SOL    HW237486  11.086  11.930   4.088
11885SOL     OW37487   5.824   3.762  13.441
11885SOL    HW137488   5.859   3.749  13.353
11885SOL    HW237489   5.763   3.689  13.453
11886SOL     OW37490   2.152   7.936  12.573
11886SOL    HW137491   2.240   7.924  12.609
11886SOL    HW237492   2.118   8.012  12.621
11887SOL     OW37493  12.455  12.772  13.146
11887SOL    HW137494  12.472  12.717  13.070
11887SOL    HW237495  12.505  12.732  13.217
11888SOL     OW37496   8.847   8.853  10.093
11888SOL    HW137497   8.873   8.941  10.067
11888SOL    HW237498   8.777   8.866  10.156
11889SOL     OW37499  10.377   0.600   5.797
11889SOL    HW137500  10.417   0.540   5.734
11889SOL    HW237501  10.293   0.623   5.758
11890SOL     OW37502   1.733  10.949  12.418
11890SOL    HW137503   1.796  10.962  12.489
11890SOL    HW237504   1.648  10.941  12.461
11891SOL     OW37505   2.350   1.308  12.540
11891SOL    HW137506   2.289   1.282  12.470
11891SOL    HW237507   2.396   1.228  12.563
11892SOL     OW37508   3.533   3.159   8.854
11892SOL    HW137509   3.468   3.200   8.798
11892SOL    HW237510   3.550   3.223   8.923
11893SOL     OW37511  11.487   3.782  10.864
11893SOL    HW137512  11.576   3.767  10.896
11893SOL    HW237513  11.431   3.748  10.933
11894SOL     OW37514   4.962   8.416   0.402
11894SOL    HW137515   5.001   8.348   0.458
11894SOL    HW237516   4.889   8.372   0.358
11895SOL     OW37517   9.742   5.982   8.187
11895SOL    HW137518   9.797   5.948   8.258
11895SOL    HW237519   9.752   5.918   8.116
11896SOL     OW37520   7.276  14.834   1.476
11896SOL    HW137521   7.286   0.027   1.538
11896SOL    HW237522   7.202  14.784   1.509
11897SOL     OW37523  11.510   9.622   7.696
11897SOL    HW137524  11.479   9.713   7.697
11897SOL    HW237525  11.462   9.581   7.624
11898SOL     OW37526   4.336   5.353   2.444
11898SOL    HW137527   4.362   5.289   2.378
11898SOL    HW237528   4.400   5.424   2.435
11899SOL     OW37529   9.998   2.793  12.201
11899SOL    HW137530   9.950   2.872  12.227
11899SOL    HW237531   9.991   2.790  12.106
11900SOL     OW37532   4.518   4.896   1.352
11900SOL    HW137533   4.514   4.987   1.321
11900SOL    HW237534   4.610   4.871   1.341
11901SOL     OW37535   5.408  13.834   6.610
11901SOL    HW137536   5.339  13.794   6.556
11901SOL    HW237537   5.445  13.760   6.659
11902SOL     OW37538   4.264   7.940   4.657
11902SOL    HW137539   4.329   8.005   4.630
11902SOL    HW237540   4.227   7.909   4.574
11903SOL     OW37541  14.690   2.183   1.834
11903SOL    HW137542  14.596   2.181   1.812
11903SOL    HW237543  14.731   2.224   1.758
11904SOL     OW37544   5.614   3.530   3.750
11904SOL    HW137545   5.669   3.548   3.826
11904SOL    HW237546   5.651   3.450   3.713
11905SOL     OW37547  13.640  10.328   6.015
11905SOL    HW137548  13.716  10.281   6.049
11905SOL    HW237549  13.661  10.420   6.027
11906SOL     OW37550  14.484   3.274  11.094
11906SOL    HW137551  14.556   3.255  11.033
11906SOL    HW237552  14.445   3.189  11.113
11907SOL     OW37553   7.537   0.591   9.408
11907SOL    HW137554   7.593   0.661   9.376
11907SOL    HW237555   7.589   0.511   9.398
11908SOL     OW37556   7.262   2.322  12.312
11908SOL    HW137557   7.350   2.323  12.276
11908SOL    HW237558   7.210   2.376  12.252
11909SOL     OW37559   8.140   7.177   5.658
11909SOL    HW137560   8.177   7.128   5.585
11909SOL    HW237561   8.208   7.176   5.725
11910SOL     OW37562   4.694   6.365   9.424
11910SOL    HW137563   4.645   6.400   9.350
11910SOL    HW237564   4.666   6.273   9.429
11911SOL     OW37565   1.805   6.676   6.316
11911SOL    HW137566   1.791   6.614   6.387
11911SOL    HW237567   1.894   6.659   6.286
11912SOL     OW37568  12.680   7.875   0.604
11912SOL    HW137569  12.741   7.896   0.534
11912SOL    HW237570  12.736   7.853   0.679
11913SOL     OW37571   4.398   0.992  12.555
11913SOL    HW137572   4.315   1.039  12.551
11913SOL    HW237573   4.458   1.052  12.600
11914SOL     OW37574  14.337  10.241   7.485
11914SOL    HW137575  14.263  10.189   7.453
11914SOL    HW237576  14.388  10.179   7.538
11915SOL     OW37577   7.646  13.511   8.784
11915SOL    HW137578   7.570  13.567   8.770
11915SOL    HW237579   7.614  13.440   8.839
11916SOL     OW37580   2.968   2.664  12.028
11916SOL    HW137581   2.940   2.626  12.111
11916SOL    HW237582   3.009   2.592  11.981
11917SOL     OW37583   7.941   5.074  11.550
11917SOL    HW137584   7.999   5.105  11.480
11917SOL    HW237585   7.962   4.981  11.558
11918SOL     OW37586   0.545  10.944   9.224
11918SOL    HW137587   0.486  10.966   9.151
11918SOL    HW237588   0.544  10.849   9.227
11919SOL     OW37589  10.032   1.096  10.396
11919SOL    HW137590  10.005   1.168  10.338
11919SOL    HW237591  10.017   1.017  10.344
11920SOL     OW37592   3.695   8.440   4.934
11920SOL    HW137593   3.607   8.462   4.966
11920SOL    HW237594   3.725   8.371   4.993
11921SOL     OW37595   2.366  10.424   1.642
11921SOL    HW137596   2.376  10.406   1.735
11921SOL    HW237597   2.334  10.341   1.605
11922SOL     OW37598  12.366  12.477  10.451
11922SOL    HW137599  12.285  12.527  10.451
11922SOL    HW237600  12.413  12.504  10.372
11923SOL     OW37601  11.721   3.018   4.294
11923SOL    HW137602  11.663   3.041   4.221
11923SOL    HW237603  11.808   3.012   4.254
11924SOL     OW37604  13.702   3.906   5.810
11924SOL    HW137605  13.642   3.843   5.770
11924SOL    HW237606  13.672   3.916   5.900
11925SOL     OW37607   8.000   7.519  13.133
11925SOL    HW137608   8.077   7.520  13.191
11925SOL    HW237609   7.938   7.577  13.177
11926SOL     OW37610   5.903   0.977   1.765
11926SOL    HW137611   5.903   0.990   1.860
11926SOL    HW237612   5.918   0.883   1.753
11927SOL     OW37613   9.689  12.168   4.891
11927SOL    HW137614   9.749  12.229   4.847
11927SOL    HW237615   9.735  12.084   4.892
11928SOL     OW37616   6.372   2.089   0.891
11928SOL    HW137617   6.464   2.064   0.901
11928SOL    HW237618   6.349   2.128   0.975
11929SOL     OW37619   8.523   3.297  14.388
11929SOL    HW137620   8.547   3.293  14.480
11929SOL    HW237621   8.602   3.328  14.344
11930SOL     OW37622   5.589   2.902   9.499
11930SOL    HW137623   5.500   2.877   9.477
11930SOL    HW237624   5.642   2.866   9.429
11931SOL     OW37625  12.162   4.390   2.317
11931SOL    HW137626  12.250   4.351   2.314
11931SOL    HW237627  12.103   4.314   2.319
11932SOL     OW37628   8.401   3.749   0.896
11932SOL    HW137629   8.357   3.706   0.823
11932SOL    HW237630   8.336   3.810   0.931
11933SOL     OW37631   2.359   2.109   4.783
11933SOL    HW137632   2.421   2.168   4.826
11933SOL    HW237633   2.403   2.082   4.702
11934SOL     OW37634   3.544   4.155  12.416
11934SOL    HW137635   3.584   4.242  12.422
11934SOL    HW237636   3.587   4.104  12.484
11935SOL     OW37637  13.958  14.663   4.834
11935SOL    HW137638  13.940  14.755   4.852
11935SOL    HW237639  13.935  14.618   4.916
11936SOL     OW37640   7.455   9.212  14.571
11936SOL    HW137641   7.392   9.227  14.642
11936SOL    HW237642   7.428   9.273  14.502
11937SOL     OW37643  12.139   6.557   9.223
11937SOL    HW137644  12.178   6.604   9.149
11937SOL    HW237645  12.137   6.622   9.294
11938SOL     OW37646  12.827  13.254  12.543
11938SOL    HW137647  12.743  13.237  12.585
11938SOL    HW237648  12.824  13.203  12.462
11939SOL     OW37649  11.406  14.437   4.505
11939SOL    HW137650  11.312  14.419   4.505
11939SOL    HW237651  11.420  14.492   4.428
11940SOL     OW37652   2.886  13.395  14.298
11940SOL    HW137653   2.899  13.403  14.393
11940SOL    HW237654   2.825  13.465  14.276
11941SOL     OW37655   0.608   7.951   1.346
11941SOL    HW137656   0.666   7.914   1.413
11941SOL    HW237657   0.522   7.916   1.366
11942SOL     OW37658   1.966  10.153   8.510
11942SOL    HW137659   1.992  10.065   8.483
11942SOL    HW237660   1.980  10.154   8.604
11943SOL     OW37661   7.597   5.552  13.170
11943SOL    HW137662   7.515   5.568  13.217
11943SOL    HW237663   7.642   5.636  13.169
11944SOL     OW37664   2.041   6.251   3.713
11944SOL    HW137665   2.127   6.265   3.674
11944SOL    HW237666   2.020   6.334   3.755
11945SOL     OW37667   7.536  14.548   0.163
11945SOL    HW137668   7.550  14.639   0.137
11945SOL    HW237669   7.459  14.521   0.113
11946SOL     OW37670  11.098   7.127   2.979
11946SOL    HW137671  11.161   7.198   2.967
11946SOL    HW237672  11.018   7.157   2.937
11947SOL     OW37673   1.043   9.186   1.088
11947SOL    HW137674   1.046   9.261   1.028
11947SOL    HW237675   0.983   9.125   1.047
11948SOL     OW37676   0.540  11.425   4.979
11948SOL    HW137677   0.547  11.514   4.943
11948SOL    HW237678   0.628  11.389   4.969
11949SOL     OW37679  14.583  10.426  11.477
11949SOL    HW137680  14.611  10.348  11.524
11949SOL    HW237681  14.654  10.489  11.491
11950SOL     OW37682  14.078   1.508   2.147
11950SOL    HW137683  14.071   1.423   2.190
11950SOL    HW237684  14.168   1.512   2.116
11951SOL     OW37685  12.356   4.723  11.360
11951SOL    HW137686  12.440   4.769  11.367
11951SOL    HW237687  12.342   4.714  11.266
11952SOL     OW37688   2.481   5.120   0.278
11952SOL    HW137689   2.482   5.116   0.373
11952SOL    HW237690   2.544   5.188   0.256
11953SOL     OW37691   3.921   2.436  10.072
11953SOL    HW137692   3.971   2.460  10.150
11953SOL    HW237693   3.943   2.504  10.008
11954SOL     OW37694   5.017   7.375   4.678
11954SOL    HW137695   5.091   7.368   4.738
11954SOL    HW237696   5.055   7.407   4.596
11955SOL     OW37697   5.232   6.506  13.378
11955SOL    HW137698   5.273   6.455  13.448
11955SOL    HW237699   5.183   6.442  13.327
11956SOL     OW37700  12.802  10.960   2.183
11956SOL    HW137701  12.892  10.977   2.153
11956SOL    HW237702  12.810  10.882   2.237
11957SOL     OW37703   8.702  14.004  14.471
11957SOL    HW137704   8.651  13.959  14.538
11957SOL    HW237705   8.781  14.034  14.515
11958SOL     OW37706  11.418   6.822   1.697
11958SOL    HW137707  11.338   6.772   1.710
11958SOL    HW237708  11.430   6.825   1.602
11959SOL     OW37709   5.656   2.193   6.735
11959SOL    HW137710   5.663   2.252   6.810
11959SOL    HW237711   5.729   2.217   6.678
11960SOL     OW37712  12.370   1.556  14.055
11960SOL    HW137713  12.446   1.532  14.002
11960SOL    HW237714  12.322   1.474  14.067
11961SOL     OW37715   8.865   1.549   1.926
11961SOL    HW137716   8.827   1.470   1.965
11961SOL    HW237717   8.792   1.592   1.882
11962SOL     OW37718   7.702   9.205  10.364
11962SOL    HW137719   7.723   9.255  10.285
11962SOL    HW237720   7.781   9.212  10.418
11963SOL     OW37721   8.340   3.108   0.323
11963SOL    HW137722   8.343   3.050   0.247
11963SOL    HW237723   8.310   3.192   0.287
11964SOL     OW37724   0.206  14.320   4.225
11964SOL    HW137725   0.250  14.245   4.266
11964SOL    HW237726   0.249  14.329   4.140
11965SOL     OW37727   6.603  13.134  12.304
11965SOL    HW137728   6.607  13.092  12.391
11965SOL    HW237729   6.694  13.150  12.281
11966SOL     OW37730  14.416   1.660   8.247
11966SOL    HW137731  14.347   1.699   8.300
11966SOL    HW237732  14.389   1.569   8.236
11967SOL     OW37733   0.587   3.546   4.199
11967SOL    HW137734   0.500   3.514   4.225
11967SOL    HW237735   0.576   3.640   4.187
11968SOL     OW37736   2.482   3.221  13.723
11968SOL    HW137737   2.485   3.304  13.770
11968SOL    HW237738   2.441   3.241  13.639
11969SOL     OW37739   7.122   5.983   5.562
11969SOL    HW137740   7.101   6.075   5.581
11969SOL    HW237741   7.198   5.987   5.504
11970SOL     OW37742  14.157   3.793  12.786
11970SOL    HW137743  14.116   3.710  12.808
11970SOL    HW237744  14.212   3.774  12.710
11971SOL     OW37745   5.750  10.476   2.875
11971SOL    HW137746   5.793  10.509   2.796
11971SOL    HW237747   5.773  10.383   2.878
11972SOL     OW37748   6.907   8.355  13.462
11972SOL    HW137749   6.880   8.278  13.511
11972SOL    HW237750   6.873   8.429  13.513
11973SOL     OW37751   5.712  14.673   5.063
11973SOL    HW137752   5.665  14.756   5.078
11973SOL    HW237753   5.643  14.607   5.060
11974SOL     OW37754   6.528  14.039   5.906
11974SOL    HW137755   6.516  14.093   5.828
11974SOL    HW237756   6.502  14.096   5.978
11975SOL     OW37757   5.611  14.243   0.831
11975SOL    HW137758   5.697  14.256   0.872
11975SOL    HW237759   5.630  14.234   0.738
11976SOL     OW37760   7.540  11.622   5.100
11976SOL    HW137761   7.539  11.688   5.170
11976SOL    HW237762   7.512  11.541   5.142
11977SOL     OW37763   4.816  12.896  14.295
11977SOL    HW137764   4.810  12.933  14.383
11977SOL    HW237765   4.908  12.906  14.272
11978SOL     OW37766   9.665  14.451  14.275
11978SOL    HW137767   9.574  14.439  14.248
11978SOL    HW237768   9.661  14.457  14.371
11979SOL     OW37769   0.831   0.217   4.143
11979SOL    HW137770   0.815   0.133   4.184
11979SOL    HW237771   0.867   0.196   4.057
11980SOL     OW37772   1.574   4.983  13.186
11980SOL    HW137773   1.629   5.033  13.126
11980SOL    HW237774   1.614   4.896  13.188
11981SOL     OW37775  12.303   6.975  10.408
11981SOL    HW137776  12.312   6.884  10.382
11981SOL    HW237777  12.375   6.989  10.470
11982SOL     OW37778   6.882   8.052   0.276
11982SOL    HW137779   6.841   8.123   0.325
11982SOL    HW237780   6.825   8.040   0.200
11983SOL     OW37781  14.273   1.480   7.585
11983SOL    HW137782  14.202   1.457   7.645
11983SOL    HW237783  14.241   1.453   7.499
11984SOL     OW37784   3.515   6.324   6.183
11984SOL    HW137785   3.433   6.280   6.202
11984SOL    HW237786   3.528   6.312   6.089
11985SOL     OW37787   3.225   0.009   7.344
11985SOL    HW137788   3.265   0.095   7.358
11985SOL    HW237789   3.173  14.873   7.423
11986SOL     OW37790  10.497   2.976   5.984
11986SOL    HW137791  10.424   2.941   6.034
11986SOL    HW237792  10.507   3.066   6.015
11987SOL     OW37793   8.904  11.060   0.015
11987SOL    HW137794   8.983  11.008  14.877
11987SOL    HW237795   8.851  11.003   0.072
11988SOL     OW37796   4.794  10.042  14.251
11988SOL    HW137797   4.738  10.063  14.176
11988SOL    HW237798   4.880  10.023  14.213
11989SOL     OW37799  10.741  14.836  10.305
11989SOL    HW137800  10.820  14.849  10.357
11989SOL    HW237801  10.726   0.042  10.262
11990SOL     OW37802   3.503  11.495  11.688
11990SOL    HW137803   3.528  11.584  11.662
11990SOL    HW237804   3.584  11.455  11.719
11991SOL     OW37805   2.562   0.232   2.801
11991SOL    HW137806   2.471   0.250   2.776
11991SOL    HW237807   2.559   0.227   2.897
11992SOL     OW37808   4.998   8.071   7.968
11992SOL    HW137809   5.043   8.112   8.042
11992SOL    HW237810   5.062   8.072   7.897
11993SOL     OW37811   8.675   4.657   7.474
11993SOL    HW137812   8.745   4.643   7.538
11993SOL    HW237813   8.721   4.674   7.392
11994SOL     OW37814  11.102   5.281  12.680
11994SOL    HW137815  11.144   5.234  12.608
11994SOL    HW237816  11.030   5.224  12.707
11995SOL     OW37817   1.106  12.742  10.649
11995SOL    HW137818   1.122  12.676  10.581
11995SOL    HW237819   1.117  12.826  10.605
11996SOL     OW37820   9.290   3.775   2.073
11996SOL    HW137821   9.351   3.731   2.133
11996SOL    HW237822   9.248   3.703   2.025
11997SOL     OW37823   1.733  11.539   4.862
11997SOL    HW137824   1.736  11.635   4.859
11997SOL    HW237825   1.823  11.512   4.842
11998SOL     OW37826   0.890  12.081  12.471
11998SOL    HW137827   0.985  12.080  12.460
11998SOL    HW237828   0.872  12.010  12.533
11999SOL     OW37829   4.017  12.209  11.112
11999SOL    HW137830   3.939  12.264  11.113
11999SOL    HW237831   4.044  12.209  11.020
12000SOL     OW37832   2.731  13.798  14.346
12000SOL    HW137833   2.665  13.729  14.344
12000SOL    HW237834   2.729  13.837  14.259
12001SOL     OW37835  13.387   9.331   0.069
12001SOL    HW137836  13.378   9.373   0.155
12001SOL    HW237837  13.476   9.354   0.041
12002SOL     OW37838   2.431  14.800   7.279
12002SOL    HW137839   2.404  14.872   7.222
12002SOL    HW237840   2.440  14.725   7.221
12003SOL     OW37841   2.610  14.450   3.110
12003SOL    HW137842   2.586  14.357   3.100
12003SOL    HW237843   2.574  14.492   3.032
12004SOL     OW37844   3.251  11.580   0.453
12004SOL    HW137845   3.241  11.562   0.546
12004SOL    HW237846   3.254  11.676   0.447
12005SOL     OW37847   4.907   4.775   2.779
12005SOL    HW137848   4.996   4.740   2.786
12005SOL    HW237849   4.903   4.845   2.843
12006SOL     OW37850  13.939   4.574  11.159
12006SOL    HW137851  13.861   4.627  11.145
12006SOL    HW237852  13.911   4.484  11.139
12007SOL     OW37853  13.162   2.317  12.528
12007SOL    HW137854  13.155   2.242  12.588
12007SOL    HW237855  13.175   2.278  12.442
12008SOL     OW37856   4.678  11.750   6.730
12008SOL    HW137857   4.644  11.837   6.751
12008SOL    HW237858   4.610  11.708   6.678
12009SOL     OW37859   8.578   2.341   7.629
12009SOL    HW137860   8.488   2.334   7.661
12009SOL    HW237861   8.622   2.395   7.694
12010SOL     OW37862  14.717   5.385   1.064
12010SOL    HW137863  14.804   5.368   1.026
12010SOL    HW237864  14.698   5.308   1.117
12011SOL     OW37865  10.715   5.657  11.885
12011SOL    HW137866  10.751   5.734  11.839
12011SOL    HW237867  10.777   5.641  11.956
12012SOL     OW37868   6.424   3.492  14.215
12012SOL    HW137869   6.469   3.411  14.238
12012SOL    HW237870   6.341   3.464  14.176
12013SOL     OW37871  10.819  14.827   9.026
12013SOL    HW137872  10.777  14.741   9.023
12013SOL    HW237873  10.905  14.810   9.065
12014SOL     OW37874   4.194   0.910  13.637
12014SOL    HW137875   4.122   0.900  13.575
12014SOL    HW237876   4.174   0.991  13.684
12015SOL     OW37877  12.366   2.791   3.148
12015SOL    HW137878  12.460   2.810   3.147
12015SOL    HW237879  12.357   2.712   3.201
12016SOL     OW37880   5.848   0.879   1.093
12016SOL    HW137881   5.943   0.872   1.095
12016SOL    HW237882   5.820   0.815   1.028
12017SOL     OW37883  13.170   6.264  12.330
12017SOL    HW137884  13.220   6.329  12.281
12017SOL    HW237885  13.096   6.243  12.274
12018SOL     OW37886   8.169   5.600   8.681
12018SOL    HW137887   8.108   5.607   8.754
12018SOL    HW237888   8.255   5.588   8.722
12019SOL     OW37889   7.674   3.965   9.027
12019SOL    HW137890   7.616   4.022   8.977
12019SOL    HW237891   7.713   3.907   8.962
12020SOL     OW37892  12.457   5.061   0.908
12020SOL    HW137893  12.444   5.092   0.997
12020SOL    HW237894  12.392   4.991   0.896
12021SOL     OW37895  13.075  10.205   3.760
12021SOL    HW137896  13.068  10.201   3.856
12021SOL    HW237897  13.104  10.294   3.742
12022SOL     OW37898  10.508   4.613   4.066
12022SOL    HW137899  10.514   4.519   4.051
12022SOL    HW237900  10.564   4.652   4.000
12023SOL     OW37901  13.412  10.537   5.013
12023SOL    HW137902  13.328  10.493   4.999
12023SOL    HW237903  13.472  10.493   4.953
12024SOL     OW37904   6.631   4.233  11.008
12024SOL    HW137905   6.591   4.180  11.077
12024SOL    HW237906   6.713   4.264  11.047
12025SOL     OW37907  13.194   2.132   5.713
12025SOL    HW137908  13.138   2.073   5.763
12025SOL    HW237909  13.168   2.118   5.622
12026SOL     OW37910  11.036   8.874   4.880
12026SOL    HW137911  11.045   8.967   4.858
12026SOL    HW237912  11.112   8.832   4.840
12027SOL     OW37913  14.018   0.464   9.190
12027SOL    HW137914  14.040   0.401   9.259
12027SOL    HW237915  14.088   0.530   9.195
12028SOL     OW37916   5.679   3.946   6.398
12028SOL    HW137917   5.637   3.964   6.482
12028SOL    HW237918   5.730   3.866   6.414
12029SOL     OW37919  14.504   7.038   3.621
12029SOL    HW137920  14.499   7.133   3.620
12029SOL    HW237921  14.597   7.019   3.638
12030SOL     OW37922   3.729   2.779   8.187
12030SOL    HW137923   3.713   2.761   8.094
12030SOL    HW237924   3.648   2.757   8.231
12031SOL     OW37925   6.099   1.240  10.081
12031SOL    HW137926   6.111   1.334  10.092
12031SOL    HW237927   6.127   1.223   9.991
12032SOL     OW37928  11.801   3.016  10.101
12032SOL    HW137929  11.744   2.974  10.166
12032SOL    HW237930  11.740   3.055  10.038
12033SOL     OW37931   2.859   5.007  11.613
12033SOL    HW137932   2.799   5.037  11.681
12033SOL    HW237933   2.927   5.074  11.611
12034SOL     OW37934   7.683  11.036   8.108
12034SOL    HW137935   7.739  11.079   8.043
12034SOL    HW237936   7.726  10.952   8.125
12035SOL     OW37937  11.757   9.500   5.442
12035SOL    HW137938  11.829   9.527   5.500
12035SOL    HW237939  11.696   9.573   5.444
12036SOL     OW37940  14.274   4.781   3.084
12036SOL    HW137941  14.266   4.799   2.990
12036SOL    HW237942  14.368   4.767   3.097
12037SOL     OW37943   2.743   7.994   2.044
12037SOL    HW137944   2.796   8.034   2.113
12037SOL    HW237945   2.782   8.026   1.962
12038SOL     OW37946   9.468   8.053   8.757
12038SOL    HW137947   9.544   7.996   8.766
12038SOL    HW237948   9.461   8.069   8.663
12039SOL     OW37949   9.247   7.571   3.309
12039SOL    HW137950   9.283   7.629   3.376
12039SOL    HW237951   9.208   7.630   3.245
12040SOL     OW37952   3.073   0.427  14.235
12040SOL    HW137953   3.027   0.454  14.156
12040SOL    HW237954   3.101   0.509  14.276
12041SOL     OW37955  11.952  11.443  13.931
12041SOL    HW137956  12.048  11.452  13.932
12041SOL    HW237957  11.937  11.354  13.900
12042SOL     OW37958   5.920   7.654   9.237
12042SOL    HW137959   5.891   7.742   9.213
12042SOL    HW237960   6.007   7.666   9.273
12043SOL     OW37961   9.794  14.376   1.317
12043SOL    HW137962   9.846  14.435   1.371
12043SOL    HW237963   9.749  14.433   1.255
12044SOL     OW37964  12.229   0.322   2.262
12044SOL    HW137965  12.209   0.250   2.202
12044SOL    HW237966  12.295   0.374   2.216
12045SOL     OW37967   4.684   6.811   2.333
12045SOL    HW137968   4.656   6.901   2.352
12045SOL    HW237969   4.623   6.780   2.266
12046SOL     OW37970   1.535  11.593   9.653
12046SOL    HW137971   1.462  11.532   9.652
12046SOL    HW237972   1.613  11.538   9.646
12047SOL     OW37973   0.553  12.331   6.378
12047SOL    HW137974   0.557  12.410   6.432
12047SOL    HW237975   0.521  12.362   6.293
12048SOL     OW37976   6.755  12.926   7.060
12048SOL    HW137977   6.681  12.867   7.073
12048SOL    HW237978   6.799  12.930   7.145
12049SOL     OW37979   4.203  10.800   8.443
12049SOL    HW137980   4.269  10.734   8.419
12049SOL    HW237981   4.142  10.801   8.370
12050SOL     OW37982   3.020  14.446   6.986
12050SOL    HW137983   3.093  14.389   7.009
12050SOL    HW237984   3.056  14.504   6.919
12051SOL     OW37985   8.831   6.101   9.675
12051SOL    HW137986   8.839   6.193   9.651
12051SOL    HW237987   8.910   6.082   9.726
12052SOL     OW37988   0.281   5.611   4.768
12052SOL    HW137989   0.268   5.516   4.762
12052SOL    HW237990   0.363   5.620   4.817
12053SOL     OW37991   2.192  11.969   1.597
12053SOL    HW137992   2.122  11.989   1.659
12053SOL    HW237993   2.173  12.024   1.521
12054SOL     OW37994   2.736  14.384   7.807
12054SOL    HW137995   2.657  14.438   7.800
12054SOL    HW237996   2.724  14.315   7.741
12055SOL     OW37997   0.801   8.587   2.804
12055SOL    HW137998   0.706   8.595   2.794
12055SOL    HW237999   0.814   8.559   2.895
12056SOL     OW38000   5.269   9.212   5.278
12056SOL    HW138001   5.195   9.155   5.257
12056SOL    HW238002   5.249   9.244   5.366
12057SOL     OW38003  14.668   3.759  13.977
12057SOL    HW138004  14.728   3.704  13.927
12057SOL    HW238005  14.592   3.769  13.920
12058SOL     OW38006   9.530  11.199   7.892
12058SOL    HW138007   9.439  11.226   7.900
12058SOL    HW238008   9.579  11.262   7.945
12059SOL     OW38009   6.135   9.490   9.894
12059SOL    HW138010   6.077   9.532   9.830
12059SOL    HW238011   6.171   9.415   9.847
12060SOL     OW38012   3.843  14.087   0.568
12060SOL    HW138013   3.769  14.106   0.511
12060SOL    HW238014   3.910  14.151   0.543
12061SOL     OW38015   2.694   6.546   2.439
12061SOL    HW138016   2.743   6.468   2.415
12061SOL    HW238017   2.745   6.586   2.509
12062SOL     OW38018   3.892   7.056  10.970
12062SOL    HW138019   3.890   6.978  10.914
12062SOL    HW238020   3.952   7.116  10.926
12063SOL     OW38021  14.611   6.871  13.514
12063SOL    HW138022  14.663   6.793  13.534
12063SOL    HW238023  14.574   6.898  13.598
12064SOL     OW38024   3.370   6.148   6.816
12064SOL    HW138025   3.371   6.121   6.725
12064SOL    HW238026   3.457   6.124   6.849
12065SOL     OW38027   8.440   5.066   6.432
12065SOL    HW138028   8.510   5.011   6.395
12065SOL    HW238029   8.452   5.151   6.391
12066SOL     OW38030  14.021  14.297   8.070
12066SOL    HW138031  14.107  14.317   8.108
12066SOL    HW238032  13.964  14.284   8.145
12067SOL     OW38033   2.359   7.930  10.436
12067SOL    HW138034   2.400   8.013  10.459
12067SOL    HW238035   2.392   7.910  10.348
12068SOL     OW38036   0.150   9.435   9.294
12068SOL    HW138037   0.186   9.451   9.206
12068SOL    HW238038   0.165   9.342   9.309
12069SOL     OW38039  14.853   8.412   2.786
12069SOL    HW138040  14.867   8.447   2.874
12069SOL    HW238041   0.056   8.429   2.740
12070SOL     OW38042  12.790   7.749  12.397
12070SOL    HW138043  12.827   7.670  12.437
12070SOL    HW238044  12.700   7.725  12.375
12071SOL     OW38045   2.301   6.278   6.284
12071SOL    HW138046   2.275   6.209   6.222
12071SOL    HW238047   2.391   6.255   6.307
12072SOL     OW38048  10.674   6.134   6.487
12072SOL    HW138049  10.761   6.100   6.467
12072SOL    HW238050  10.680   6.227   6.469
12073SOL     OW38051   8.755   0.203  10.308
12073SOL    HW138052   8.753   0.140  10.380
12073SOL    HW238053   8.824   0.171  10.250
12074SOL     OW38054   3.077   5.165   4.977
12074SOL    HW138055   3.108   5.127   5.059
12074SOL    HW238056   3.087   5.259   4.988
12075SOL     OW38057   4.941  14.744   6.150
12075SOL    HW138058   5.022  14.794   6.163
12075SOL    HW238059   4.880  14.782   6.214
12076SOL     OW38060  12.447  14.307  13.101
12076SOL    HW138061  12.510  14.338  13.165
12076SOL    HW238062  12.361  14.324  13.141
12077SOL     OW38063  13.256  11.835  13.852
12077SOL    HW138064  13.177  11.889  13.857
12077SOL    HW238065  13.283  11.841  13.761
12078SOL     OW38066   3.829  14.398   9.503
12078SOL    HW138067   3.781  14.430   9.579
12078SOL    HW238068   3.919  14.391   9.532
12079SOL     OW38069   8.028   6.369   9.255
12079SOL    HW138070   7.984   6.452   9.272
12079SOL    HW238071   8.110   6.374   9.304
12080SOL     OW38072  13.228   6.256  10.471
12080SOL    HW138073  13.238   6.161  10.462
12080SOL    HW238074  13.299   6.292  10.418
12081SOL     OW38075   8.766   3.385  14.290
12081SOL    HW138076   8.785   3.389  14.196
12081SOL    HW238077   8.852   3.388  14.332
12082SOL     OW38078  12.646  14.010   4.939
12082SOL    HW138079  12.689  14.022   5.023
12082SOL    HW238080  12.691  14.072   4.880
12083SOL     OW38081   2.822   2.902   1.401
12083SOL    HW138082   2.877   2.914   1.324
12083SOL    HW238083   2.854   2.967   1.464
12084SOL     OW38084  13.775   3.374   4.203
12084SOL    HW138085  13.754   3.286   4.172
12084SOL    HW238086  13.871   3.377   4.203
12085SOL     OW38087  13.009  11.470   9.110
12085SOL    HW138088  13.002  11.451   9.203
12085SOL    HW238089  13.020  11.385   9.069
12086SOL     OW38090   5.075   7.139   1.010
12086SOL    HW138091   5.096   7.196   1.084
12086SOL    HW238092   5.161   7.117   0.972
12087SOL     OW38093   2.416  11.409   7.260
12087SOL    HW138094   2.473  11.477   7.297
12087SOL    HW238095   2.342  11.405   7.321
12088SOL     OW38096  12.623   4.844  11.391
12088SOL    HW138097  12.703   4.794  11.375
12088SOL    HW238098  12.654   4.927  11.429
12089SOL     OW38099   6.933   6.496   6.933
12089SOL    HW138100   7.021   6.526   6.955
12089SOL    HW238101   6.880   6.576   6.928
12090SOL     OW38102  14.395   7.132   8.480
12090SOL    HW138103  14.476   7.175   8.451
12090SOL    HW238104  14.394   7.143   8.575
12091SOL     OW38105  12.935  14.128  12.114
12091SOL    HW138106  12.935  14.071  12.191
12091SOL    HW238107  12.989  14.203  12.139
12092SOL     OW38108  12.589   0.067  10.164
12092SOL    HW138109  12.593   0.150  10.118
12092SOL    HW238110  12.574   0.090  10.255
12093SOL     OW38111   9.806   6.888  13.362
12093SOL    HW138112   9.840   6.807  13.401
12093SOL    HW238113   9.711   6.883  13.376
12094SOL     OW38114   7.835   1.357   8.837
12094SOL    HW138115   7.925   1.338   8.865
12094SOL    HW238116   7.806   1.277   8.794
12095SOL     OW38117   4.915   5.787  10.171
12095SOL    HW138118   4.865   5.855  10.126
12095SOL    HW238119   4.890   5.797  10.263
12096SOL     OW38120  11.996   7.111   9.674
12096SOL    HW138121  11.941   7.188   9.692
12096SOL    HW238122  12.011   7.114   9.580
12097SOL     OW38123  13.513  14.300  12.265
12097SOL    HW138124  13.564  14.337  12.193
12097SOL    HW238125  13.535  14.207  12.266
12098SOL     OW38126  13.677   6.565  14.810
12098SOL    HW138127  13.617   6.636  14.791
12098SOL    HW238128  13.680   6.561   0.026
12099SOL     OW38129   1.246   9.960   8.452
12099SOL    HW138130   1.309  10.016   8.498
12099SOL    HW238131   1.240   9.881   8.506
12100SOL     OW38132   0.773   0.984   1.168
12100SOL    HW138133   0.719   0.916   1.127
12100SOL    HW238134   0.817   0.939   1.240
12101SOL     OW38135   3.861   1.564   3.922
12101SOL    HW138136   3.914   1.550   4.001
12101SOL    HW238137   3.823   1.479   3.903
12102SOL     OW38138  14.039  11.788  12.950
12102SOL    HW138139  14.057  11.734  12.873
12102SOL    HW238140  14.042  11.728  13.024
12103SOL     OW38141   1.487   3.819   2.731
12103SOL    HW138142   1.524   3.901   2.763
12103SOL    HW238143   1.556   3.780   2.678
12104SOL     OW38144   3.069  13.072  11.635
12104SOL    HW138145   3.112  13.007  11.579
12104SOL    HW238146   3.116  13.067  11.718
12105SOL     OW38147  14.721   5.215   6.437
12105SOL    HW138148  14.653   5.168   6.389
12105SOL    HW238149  14.801   5.163   6.424
12106SOL     OW38150  11.425   5.436   9.316
12106SOL    HW138151  11.458   5.492   9.246
12106SOL    HW238152  11.404   5.496   9.387
12107SOL     OW38153   7.297   1.314   7.956
12107SOL    HW138154   7.328   1.229   7.988
12107SOL    HW238155   7.377   1.361   7.931
12108SOL     OW38156   2.102   5.700   3.695
12108SOL    HW138157   2.153   5.696   3.614
12108SOL    HW238158   2.142   5.772   3.744
12109SOL     OW38159  10.122  13.695   5.071
12109SOL    HW138160  10.172  13.775   5.087
12109SOL    HW238161  10.159  13.632   5.133
12110SOL     OW38162  13.253  10.323   5.760
12110SOL    HW138163  13.255  10.290   5.849
12110SOL    HW238164  13.163  10.355   5.748
12111SOL     OW38165   7.793   2.076   7.105
12111SOL    HW138166   7.710   2.051   7.064
12111SOL    HW238167   7.783   2.052   7.197
12112SOL     OW38168   4.015   5.180   2.324
12112SOL    HW138169   4.070   5.137   2.258
12112SOL    HW238170   3.969   5.109   2.367
12113SOL     OW38171  14.805   7.176  13.767
12113SOL    HW138172  14.861   7.127  13.828
12113SOL    HW238173  14.803   7.265  13.802
12114SOL     OW38174  13.257   6.001  14.460
12114SOL    HW138175  13.242   5.925  14.403
12114SOL    HW238176  13.352   6.014  14.458
12115SOL     OW38177   1.406   8.396   9.741
12115SOL    HW138178   1.388   8.490   9.754
12115SOL    HW238179   1.327   8.363   9.698
12116SOL     OW38180   7.508   8.612   8.892
12116SOL    HW138181   7.539   8.699   8.914
12116SOL    HW238182   7.489   8.615   8.798
12117SOL     OW38183   1.886   1.489   2.664
12117SOL    HW138184   1.849   1.405   2.690
12117SOL    HW238185   1.863   1.548   2.736
12118SOL     OW38186   2.178  13.620   8.397
12118SOL    HW138187   2.117  13.630   8.470
12118SOL    HW238188   2.150  13.687   8.334
12119SOL     OW38189  10.300  10.379  12.189
12119SOL    HW138190  10.379  10.430  12.206
12119SOL    HW238191  10.322  10.290  12.216
12120SOL     OW38192   5.486  13.638   0.613
12120SOL    HW138193   5.442  13.564   0.655
12120SOL    HW238194   5.555  13.598   0.561
12121SOL     OW38195  11.363   2.558  11.593
12121SOL    HW138196  11.285   2.549  11.540
12121SOL    HW238197  11.363   2.482  11.651
12122SOL     OW38198  13.039   2.073  14.184
12122SOL    HW138199  12.988   2.026  14.118
12122SOL    HW238200  12.975   2.130  14.227
12123SOL     OW38201   6.725  10.383   8.089
12123SOL    HW138202   6.757  10.405   8.001
12123SOL    HW238203   6.688  10.465   8.123
12124SOL     OW38204   5.291   5.235  11.567
12124SOL    HW138205   5.362   5.210  11.508
12124SOL    HW238206   5.212   5.209  11.521
12125SOL     OW38207   6.158  11.470   5.900
12125SOL    HW138208   6.234  11.519   5.868
12125SOL    HW238209   6.082  11.518   5.867
12126SOL     OW38210   9.594  14.308   9.534
12126SOL    HW138211   9.565  14.274   9.618
12126SOL    HW238212   9.576  14.401   9.537
12127SOL     OW38213   8.268   1.059  14.675
12127SOL    HW138214   8.206   0.988  14.690
12127SOL    HW238215   8.337   1.045  14.740
12128SOL     OW38216   4.855   8.590  14.451
12128SOL    HW138217   4.895   8.576  14.537
12128SOL    HW238218   4.761   8.586  14.467
12129SOL     OW38219   0.905  11.188   5.345
12129SOL    HW138220   0.985  11.196   5.293
12129SOL    HW238221   0.834  11.197   5.282
12130SOL     OW38222   5.098  12.100  13.076
12130SOL    HW138223   5.175  12.066  13.031
12130SOL    HW238224   5.061  12.024  13.121
12131SOL     OW38225   0.388   3.094  10.719
12131SOL    HW138226   0.299   3.063  10.703
12131SOL    HW238227   0.427   3.026  10.774
12132SOL     OW38228   3.972   4.156  12.706
12132SOL    HW138229   3.890   4.191  12.740
12132SOL    HW238230   4.034   4.228  12.714
12133SOL     OW38231   2.670   0.803   5.871
12133SOL    HW138232   2.604   0.753   5.822
12133SOL    HW238233   2.641   0.798   5.962
12134SOL     OW38234   5.952   4.196   3.059
12134SOL    HW138235   5.962   4.165   3.149
12134SOL    HW238236   6.027   4.254   3.046
12135SOL     OW38237   5.582   4.335   1.190
12135SOL    HW138238   5.661   4.323   1.244
12135SOL    HW238239   5.572   4.252   1.143
12136SOL     OW38240  13.392  11.069  13.753
12136SOL    HW138241  13.318  11.009  13.763
12136SOL    HW238242  13.366  11.147  13.803
12137SOL     OW38243   2.852   1.521   7.115
12137SOL    HW138244   2.799   1.598   7.135
12137SOL    HW238245   2.799   1.470   7.054
12138SOL     OW38246  12.418  11.561   4.807
12138SOL    HW138247  12.483  11.513   4.756
12138SOL    HW238248  12.417  11.649   4.768
12139SOL     OW38249   2.649   8.840   0.488
12139SOL    HW138250   2.647   8.770   0.423
12139SOL    HW238251   2.739   8.872   0.486
12140SOL     OW38252  13.529  13.722   2.639
12140SOL    HW138253  13.584  13.795   2.667
12140SOL    HW238254  13.463  13.714   2.708
12141SOL     OW38255   3.445  13.369   5.806
12141SOL    HW138256   3.405  13.282   5.803
12141SOL    HW238257   3.455  13.394   5.714
12142SOL     OW38258  12.672   9.458   4.403
12142SOL    HW138259  12.706   9.384   4.351
12142SOL    HW238260  12.717   9.534   4.367
12143SOL     OW38261  13.078   4.548   8.515
12143SOL    HW138262  13.148   4.606   8.545
12143SOL    HW238263  13.121   4.485   8.457
12144SOL     OW38264  13.148  12.904  13.265
12144SOL    HW138265  13.074  12.850  13.239
12144SOL    HW238266  13.164  12.961  13.190
12145SOL     OW38267  11.719   3.679  13.226
12145SOL    HW138268  11.736   3.603  13.172
12145SOL    HW238269  11.760   3.752  13.179
12146SOL     OW38270  13.052   5.532  10.739
12146SOL    HW138271  13.004   5.568  10.665
12146SOL    HW238272  13.026   5.439  10.743
12147SOL     OW38273   6.424  11.550   9.561
12147SOL    HW138274   6.501  11.550   9.504
12147SOL    HW238275   6.352  11.581   9.506
12148SOL     OW38276  11.844  14.202  13.832
12148SOL    HW138277  11.783  14.259  13.879
12148SOL    HW238278  11.916  14.188  13.892
12149SOL     OW38279   3.233  11.735   6.458
12149SOL    HW138280   3.290  11.663   6.486
12149SOL    HW238281   3.267  11.760   6.371
12150SOL     OW38282  13.185   3.827   8.682
12150SOL    HW138283  13.266   3.874   8.702
12150SOL    HW238284  13.213   3.751   8.632
12151SOL     OW38285   9.432   5.692  10.632
12151SOL    HW138286   9.350   5.738  10.611
12151SOL    HW238287   9.500   5.756  10.614
12152SOL     OW38288   3.928  11.750  12.688
12152SOL    HW138289   3.861  11.773  12.623
12152SOL    HW238290   3.975  11.832  12.703
12153SOL     OW38291  12.000  12.798   6.267
12153SOL    HW138292  11.962  12.722   6.312
12153SOL    HW238293  11.928  12.832   6.214
12154SOL     OW38294   2.571  13.608   6.452
12154SOL    HW138295   2.641  13.672   6.438
12154SOL    HW238296   2.493  13.650   6.416
12155SOL     OW38297   5.950   5.415  11.344
12155SOL    HW138298   5.857   5.426  11.325
12155SOL    HW238299   5.952   5.390  11.437
12156SOL     OW38300   9.709   4.016   5.397
12156SOL    HW138301   9.634   4.067   5.365
12156SOL    HW238302   9.752   4.075   5.459
12157SOL     OW38303   6.135   1.586   6.156
12157SOL    HW138304   6.044   1.584   6.184
12157SOL    HW238305   6.137   1.649   6.084
12158SOL     OW38306   9.232   5.307  11.429
12158SOL    HW138307   9.276   5.228  11.395
12158SOL    HW238308   9.225   5.365  11.353
12159SOL     OW38309  13.717   3.870   2.495
12159SOL    HW138310  13.789   3.812   2.520
12159SOL    HW238311  13.674   3.891   2.577
12160SOL     OW38312   7.381   5.415   4.150
12160SOL    HW138313   7.386   5.504   4.114
12160SOL    HW238314   7.432   5.362   4.089
12161SOL     OW38315   2.912   6.181  11.328
12161SOL    HW138316   2.848   6.238  11.370
12161SOL    HW238317   2.934   6.226  11.246
12162SOL     OW38318  14.640   8.167  10.903
12162SOL    HW138319  14.648   8.084  10.856
12162SOL    HW238320  14.596   8.226  10.841
12163SOL     OW38321  11.855   0.638  13.470
12163SOL    HW138322  11.785   0.627  13.534
12163SOL    HW238323  11.895   0.551  13.462
12164SOL     OW38324  10.354  10.135   0.917
12164SOL    HW138325  10.367  10.123   1.011
12164SOL    HW238326  10.432  10.183   0.888
12165SOL     OW38327   7.093  12.221  12.264
12165SOL    HW138328   7.088  12.165  12.342
12165SOL    HW238329   7.160  12.179  12.210
12166SOL     OW38330   1.859   8.806  12.960
12166SOL    HW138331   1.875   8.731  12.902
12166SOL    HW238332   1.944   8.849  12.968
12167SOL     OW38333   5.687   2.597  11.303
12167SOL    HW138334   5.769   2.643  11.319
12167SOL    HW238335   5.713   2.507  11.285
12168SOL     OW38336   2.377   6.185   8.602
12168SOL    HW138337   2.344   6.238   8.529
12168SOL    HW238338   2.334   6.100   8.590
12169SOL     OW38339   9.487   8.938  12.273
12169SOL    HW138340   9.481   8.879  12.198
12169SOL    HW238341   9.440   9.017  12.245
12170SOL     OW38342   7.743  11.898   3.686
12170SOL    HW138343   7.717  11.912   3.595
12170SOL    HW238344   7.662  11.878   3.732
12171SOL     OW38345   3.959  11.069  13.361
12171SOL    HW138346   3.948  10.993  13.304
12171SOL    HW238347   3.896  11.133  13.329
12172SOL     OW38348  13.491  14.826   0.295
12172SOL    HW138349  13.498  14.805   0.202
12172SOL    HW238350  13.407  14.873   0.302
12173SOL     OW38351  13.867   2.394   0.149
12173SOL    HW138352  13.889   2.372   0.058
12173SOL    HW238353  13.924   2.468   0.170
12174SOL     OW38354  10.416  14.664   2.524
12174SOL    HW138355  10.336  14.684   2.476
12174SOL    HW238356  10.464  14.604   2.467
12175SOL     OW38357  12.607   8.373   0.880
12175SOL    HW138358  12.610   8.393   0.786
12175SOL    HW238359  12.593   8.279   0.884
12176SOL     OW38360  11.712   8.914  14.362
12176SOL    HW138361  11.668   8.882  14.283
12176SOL    HW238362  11.803   8.924  14.336
12177SOL     OW38363   8.282   5.853   7.474
12177SOL    HW138364   8.195   5.825   7.446
12177SOL    HW238365   8.266   5.925   7.535
12178SOL     OW38366   8.269  13.240  14.350
12178SOL    HW138367   8.187  13.191  14.353
12178SOL    HW238368   8.322  13.196  14.283
12179SOL     OW38369   9.793  13.414  12.362
12179SOL    HW138370   9.735  13.480  12.325
12179SOL    HW238371   9.795  13.344  12.297
12180SOL     OW38372   3.936   0.750   6.978
12180SOL    HW138373   4.023   0.713   6.963
12180SOL    HW238374   3.953   0.842   6.997
12181SOL     OW38375   4.535   3.640   8.034
12181SOL    HW138376   4.575   3.638   8.121
12181SOL    HW238377   4.582   3.574   7.983
12182SOL     OW38378  10.824   9.004   6.022
12182SOL    HW138379  10.746   8.968   5.979
12182SOL    HW238380  10.801   9.006   6.115
12183SOL     OW38381   8.202  10.264   9.862
12183SOL    HW138382   8.192  10.345   9.911
12183SOL    HW238383   8.114  10.245   9.829
12184SOL     OW38384   0.204   4.797  12.879
12184SOL    HW138385   0.263   4.784  12.806
12184SOL    HW238386   0.261   4.810  12.955
12185SOL     OW38387  10.449   1.467  11.721
12185SOL    HW138388  10.371   1.516  11.749
12185SOL    HW238389  10.496   1.447  11.801
12186SOL     OW38390   6.385   1.059  12.163
12186SOL    HW138391   6.331   1.038  12.087
12186SOL    HW238392   6.359   0.995  12.229
12187SOL     OW38393   8.215  13.912   7.477
12187SOL    HW138394   8.300  13.893   7.518
12187SOL    HW238395   8.181  13.986   7.528
12188SOL     OW38396   6.315  12.873   2.682
12188SOL    HW138397   6.277  12.814   2.747
12188SOL    HW238398   6.250  12.877   2.612
12189SOL     OW38399  14.223  14.327   9.410
12189SOL    HW138400  14.237  14.250   9.465
12189SOL    HW238401  14.195  14.291   9.326
12190SOL     OW38402   2.279   4.637   0.661
12190SOL    HW138403   2.258   4.595   0.578
12190SOL    HW238404   2.366   4.675   0.647
12191SOL     OW38405  10.703   3.290   2.410
12191SOL    HW138406  10.796   3.312   2.407
12191SOL    HW238407  10.674   3.294   2.319
12192SOL     OW38408   3.621   0.938  12.886
12192SOL    HW138409   3.539   0.987  12.897
12192SOL    HW238410   3.602   0.851  12.922
12193SOL     OW38411   7.624   3.064   0.230
12193SOL    HW138412   7.602   3.043   0.321
12193SOL    HW238413   7.623   2.980   0.185
12194SOL     OW38414  12.331   0.121  10.400
12194SOL    HW138415  12.422   0.150  10.388
12194SOL    HW238416  12.298   0.111  10.310
12195SOL     OW38417   3.577   6.933  11.804
12195SOL    HW138418   3.558   6.963  11.715
12195SOL    HW238419   3.660   6.886  11.796
12196SOL     OW38420   2.502   5.958   3.971
12196SOL    HW138421   2.419   5.967   3.924
12196SOL    HW238422   2.482   5.900   4.044
12197SOL     OW38423   3.582   9.528   1.832
12197SOL    HW138424   3.527   9.476   1.773
12197SOL    HW238425   3.574   9.485   1.917
12198SOL     OW38426  11.374  11.466  14.683
12198SOL    HW138427  11.322  11.533  14.728
12198SOL    HW238428  11.313  11.393  14.671
12199SOL     OW38429  14.569   8.290   0.411
12199SOL    HW138430  14.542   8.249   0.329
12199SOL    HW238431  14.488   8.328   0.446
12200SOL     OW38432   2.805   0.412   3.537
12200SOL    HW138433   2.831   0.350   3.469
12200SOL    HW238434   2.717   0.439   3.512
12201SOL     OW38435   3.362  11.897   8.964
12201SOL    HW138436   3.367  11.915   8.870
12201SOL    HW238437   3.307  11.967   8.999
12202SOL     OW38438   2.236   7.002  12.293
12202SOL    HW138439   2.308   6.967  12.346
12202SOL    HW238440   2.168   7.022  12.356
12203SOL     OW38441   9.073  13.023   9.176
12203SOL    HW138442   9.033  13.109   9.190
12203SOL    HW238443   9.034  12.991   9.095
12204SOL     OW38444   8.545   1.879   8.146
12204SOL    HW138445   8.598   1.823   8.203
12204SOL    HW238446   8.603   1.897   8.071
12205SOL     OW38447   6.479   1.601  10.641
12205SOL    HW138448   6.461   1.691  10.613
12205SOL    HW238449   6.531   1.564  10.570
12206SOL     OW38450  13.282   8.169   6.515
12206SOL    HW138451  13.267   8.087   6.561
12206SOL    HW238452  13.342   8.218   6.570
12207SOL     OW38453  14.598   9.491   4.865
12207SOL    HW138454  14.672   9.551   4.866
12207SOL    HW238455  14.631   9.410   4.903
12208SOL     OW38456  13.166   9.578   8.511
12208SOL    HW138457  13.087   9.525   8.498
12208SOL    HW238458  13.192   9.605   8.423
12209SOL     OW38459   7.646   8.029  11.919
12209SOL    HW138460   7.673   8.113  11.882
12209SOL    HW238461   7.585   7.993  11.855
12210SOL     OW38462   7.806   4.479   4.840
12210SOL    HW138463   7.837   4.497   4.752
12210SOL    HW238464   7.847   4.545   4.895
12211SOL     OW38465  12.200   0.111  10.171
12211SOL    HW138466  12.191   0.025  10.131
12211SOL    HW238467  12.123   0.159  10.142
12212SOL     OW38468   9.561  11.063  11.489
12212SOL    HW138469   9.636  11.015  11.453
12212SOL    HW238470   9.587  11.155  11.482
12213SOL     OW38471   4.686   1.297   6.155
12213SOL    HW138472   4.744   1.258   6.220
12213SOL    HW238473   4.603   1.308   6.200
12214SOL     OW38474  11.791  14.042   0.877
12214SOL    HW138475  11.725  13.996   0.826
12214SOL    HW238476  11.796  14.129   0.837
12215SOL     OW38477   1.632  14.242  11.587
12215SOL    HW138478   1.707  14.183  11.588
12215SOL    HW238479   1.564  14.197  11.636
12216SOL     OW38480   5.467   4.661  12.358
12216SOL    HW138481   5.442   4.739  12.309
12216SOL    HW238482   5.503   4.695  12.440
12217SOL     OW38483  11.953  13.983  12.801
12217SOL    HW138484  12.006  14.021  12.871
12217SOL    HW238485  11.916  14.058  12.755
12218SOL     OW38486  10.429   8.714   6.105
12218SOL    HW138487  10.408   8.743   6.017
12218SOL    HW238488  10.375   8.637   6.119
12219SOL     OW38489   6.055  11.752   0.963
12219SOL    HW138490   6.069  11.675   1.019
12219SOL    HW238491   6.118  11.741   0.892
12220SOL     OW38492   6.152   0.853  14.676
12220SOL    HW138493   6.075   0.854  14.620
12220SOL    HW238494   6.135   0.920  14.742
12221SOL     OW38495   6.642   1.562  12.970
12221SOL    HW138496   6.557   1.551  12.926
12221SOL    HW238497   6.620   1.578  13.062
12222SOL     OW38498  10.988   1.264   6.972
12222SOL    HW138499  10.911   1.311   7.004
12222SOL    HW238500  11.029   1.326   6.912
12223SOL     OW38501   2.607   2.981   4.530
12223SOL    HW138502   2.671   2.909   4.530
12223SOL    HW238503   2.652   3.054   4.488
12224SOL     OW38504  12.843   8.079   9.944
12224SOL    HW138505  12.767   8.030   9.976
12224SOL    HW238506  12.824   8.170   9.968
12225SOL     OW38507  10.347  14.393   8.098
12225SOL    HW138508  10.256  14.420   8.110
12225SOL    HW238509  10.366  14.414   8.007
12226SOL     OW38510  13.264  13.277   7.385
12226SOL    HW138511  13.177  13.275   7.425
12226SOL    HW238512  13.272  13.193   7.340
12227SOL     OW38513  10.363  11.754   5.385
12227SOL    HW138514  10.419  11.690   5.342
12227SOL    HW238515  10.369  11.732   5.478
12228SOL     OW38516   0.945   0.495   7.587
12228SOL    HW138517   0.950   0.559   7.517
12228SOL    HW238518   0.987   0.417   7.551
12229SOL     OW38519   6.302   6.953   0.638
12229SOL    HW138520   6.241   7.026   0.632
12229SOL    HW238521   6.385   6.993   0.662
12230SOL     OW38522  11.757  14.292   0.798
12230SOL    HW138523  11.765  14.386   0.815
12230SOL    HW238524  11.723  14.288   0.708
12231SOL     OW38525  11.966   5.815  13.705
12231SOL    HW138526  11.938   5.792  13.616
12231SOL    HW238527  11.885   5.824  13.754
12232SOL     OW38528   2.239   0.173  14.139
12232SOL    HW138529   2.249   0.263  14.172
12232SOL    HW238530   2.145   0.158  14.139
12233SOL     OW38531   8.063  14.369   8.350
12233SOL    HW138532   7.987  14.427   8.353
12233SOL    HW238533   8.034  14.290   8.395
12234SOL     OW38534   5.278  13.948   6.357
12234SOL    HW138535   5.339  13.935   6.284
12234SOL    HW238536   5.305  14.031   6.396
12235SOL     OW38537   1.338   9.080   5.704
12235SOL    HW138538   1.400   9.028   5.653
12235SOL    HW238539   1.393   9.145   5.749
12236SOL     OW38540   1.488  10.225   4.216
12236SOL    HW138541   1.398  10.213   4.185
12236SOL    HW238542   1.479  10.259   4.305
12237SOL     OW38543  13.585   5.898   3.570
12237SOL    HW138544  13.674   5.875   3.544
12237SOL    HW238545  13.586   5.993   3.583
12238SOL     OW38546   0.047  12.741   6.920
12238SOL    HW138547   0.053  12.836   6.912
12238SOL    HW238548  14.841  12.726   6.962
12239SOL     OW38549   8.617  10.590  12.852
12239SOL    HW138550   8.683  10.637  12.801
12239SOL    HW238551   8.666  10.523  12.899
12240SOL     OW38552   2.998   1.488   9.367
12240SOL    HW138553   3.034   1.576   9.361
12240SOL    HW238554   2.935   1.483   9.295
12241SOL     OW38555   2.354   3.437   0.940
12241SOL    HW138556   2.325   3.357   0.895
12241SOL    HW238557   2.366   3.411   1.031
12242SOL     OW38558   6.645   2.262   4.744
12242SOL    HW138559   6.621   2.179   4.702
12242SOL    HW238560   6.649   2.325   4.672
12243SOL     OW38561   6.275  14.228   8.847
12243SOL    HW138562   6.333  14.160   8.883
12243SOL    HW238563   6.311  14.248   8.761
12244SOL     OW38564   8.543   2.189   6.146
12244SOL    HW138565   8.564   2.273   6.107
12244SOL    HW238566   8.589   2.125   6.093
12245SOL     OW38567  12.491   9.637  14.152
12245SOL    HW138568  12.426   9.696  14.191
12245SOL    HW238569  12.485   9.653  14.058
12246SOL     OW38570   8.927   4.936  14.636
12246SOL    HW138571   8.849   4.887  14.662
12246SOL    HW238572   8.946   4.906  14.547
12247SOL     OW38573  11.602   2.164  14.001
12247SOL    HW138574  11.691   2.157  13.968
12247SOL    HW238575  11.575   2.073  14.016
12248SOL     OW38576   3.538  11.744   1.049
12248SOL    HW138577   3.546  11.689   1.127
12248SOL    HW238578   3.470  11.808   1.071
12249SOL     OW38579  13.675  13.278   0.371
12249SOL    HW138580  13.696  13.215   0.439
12249SOL    HW238581  13.755  13.284   0.319
12250SOL     OW38582  11.139  12.139  13.483
12250SOL    HW138583  11.211  12.136  13.547
12250SOL    HW238584  11.088  12.060  13.502
12251SOL     OW38585  11.561   4.873   0.555
12251SOL    HW138586  11.534   4.909   0.470
12251SOL    HW238587  11.568   4.778   0.539
12252SOL     OW38588   5.031   4.200   7.750
12252SOL    HW138589   5.013   4.190   7.843
12252SOL    HW238590   4.958   4.253   7.717
12253SOL     OW38591   2.162  10.340  12.602
12253SOL    HW138592   2.222  10.271  12.632
12253SOL    HW238593   2.078  10.317  12.640
12254SOL     OW38594   6.163   6.027   7.596
12254SOL    HW138595   6.098   5.966   7.631
12254SOL    HW238596   6.148   6.108   7.644
12255SOL     OW38597  13.252   6.525   1.070
12255SOL    HW138598  13.183   6.534   1.004
12255SOL    HW238599  13.264   6.614   1.104
12256SOL     OW38600   7.582   2.061  14.098
12256SOL    HW138601   7.566   2.037  14.006
12256SOL    HW238602   7.677   2.063  14.106
12257SOL     OW38603  13.669   8.799  11.869
12257SOL    HW138604  13.698   8.718  11.828
12257SOL    HW238605  13.740   8.861  11.855
12258SOL     OW38606   8.838  11.241   5.439
12258SOL    HW138607   8.817  11.315   5.382
12258SOL    HW238608   8.914  11.200   5.398
12259SOL     OW38609   2.849  13.516   4.123
12259SOL    HW138610   2.783  13.447   4.119
12259SOL    HW238611   2.929  13.471   4.149
12260SOL     OW38612  13.477   2.987  13.993
12260SOL    HW138613  13.566   2.970  14.023
12260SOL    HW238614  13.463   2.924  13.922
12261SOL     OW38615   9.426   1.389   8.991
12261SOL    HW138616   9.494   1.456   9.002
12261SOL    HW238617   9.383   1.413   8.908
12262SOL     OW38618   4.687  11.985   5.355
12262SOL    HW138619   4.702  11.891   5.365
12262SOL    HW238620   4.620  11.991   5.287
12263SOL     OW38621  14.123  14.681   3.085
12263SOL    HW138622  14.117  14.587   3.067
12263SOL    HW238623  14.057  14.697   3.153
12264SOL     OW38624   5.349  11.294  13.227
12264SOL    HW138625   5.354  11.370  13.286
12264SOL    HW238626   5.421  11.237  13.255
12265SOL     OW38627   4.487   7.646   8.096
12265SOL    HW138628   4.463   7.677   8.009
12265SOL    HW238629   4.533   7.564   8.081
12266SOL     OW38630   2.146  10.087  11.302
12266SOL    HW138631   2.093  10.011  11.328
12266SOL    HW238632   2.235  10.063  11.325
12267SOL     OW38633   9.643   5.873   6.459
12267SOL    HW138634   9.558   5.833   6.445
12267SOL    HW238635   9.632   5.964   6.431
12268SOL     OW38636   1.907   2.032   1.915
12268SOL    HW138637   1.859   2.084   1.979
12268SOL    HW238638   1.999   2.047   1.936
12269SOL     OW38639  14.136  10.698   3.563
12269SOL    HW138640  14.040  10.701   3.559
12269SOL    HW238641  14.155  10.674   3.654
12270SOL     OW38642   3.055   5.236   4.393
12270SOL    HW138643   3.118   5.201   4.330
12270SOL    HW238644   2.990   5.281   4.338
12271SOL     OW38645  12.366   4.286   3.512
12271SOL    HW138646  12.272   4.272   3.499
12271SOL    HW238647  12.401   4.298   3.424
12272SOL     OW38648   0.344  14.332  13.778
12272SOL    HW138649   0.436  14.357  13.772
12272SOL    HW238650   0.296  14.415  13.771
12273SOL     OW38651   4.915   1.235   8.205
12273SOL    HW138652   4.994   1.202   8.247
12273SOL    HW238653   4.941   1.254   8.115
12274SOL     OW38654  11.457   6.666   7.646
12274SOL    HW138655  11.445   6.576   7.615
12274SOL    HW238656  11.551   6.674   7.662
12275SOL     OW38657   5.101   3.887  12.978
12275SOL    HW138658   5.105   3.956  13.044
12275SOL    HW238659   5.008   3.862  12.977
12276SOL     OW38660   7.728  10.175  12.801
12276SOL    HW138661   7.678  10.220  12.733
12276SOL    HW238662   7.699  10.084  12.796
12277SOL     OW38663  13.413   3.830   6.304
12277SOL    HW138664  13.507   3.826   6.287
12277SOL    HW238665  13.376   3.761   6.249
12278SOL     OW38666  12.374  11.674  12.879
12278SOL    HW138667  12.380  11.769  12.888
12278SOL    HW238668  12.371  11.658  12.785
12279SOL     OW38669   1.734   9.036   7.022
12279SOL    HW138670   1.803   9.040   6.956
12279SOL    HW238671   1.758   9.102   7.087
12280SOL     OW38672   3.764   2.990   6.935
12280SOL    HW138673   3.734   2.963   6.848
12280SOL    HW238674   3.849   3.030   6.919
12281SOL     OW38675   4.091   5.594   0.863
12281SOL    HW138676   4.181   5.562   0.874
12281SOL    HW238677   4.099   5.663   0.797
12282SOL     OW38678   1.580   3.874  14.582
12282SOL    HW138679   1.554   3.785  14.604
12282SOL    HW238680   1.532   3.894  14.501
12283SOL     OW38681   7.173  10.046  12.389
12283SOL    HW138682   7.200  10.025  12.299
12283SOL    HW238683   7.255  10.044  12.439
12284SOL     OW38684   8.756  11.905  11.207
12284SOL    HW138685   8.690  11.963  11.245
12284SOL    HW238686   8.840  11.948  11.225
12285SOL     OW38687  12.939  11.677   1.659
12285SOL    HW138688  13.003  11.628   1.710
12285SOL    HW238689  12.990  11.717   1.588
12286SOL     OW38690   9.017   2.139   5.336
12286SOL    HW138691   9.033   2.053   5.374
12286SOL    HW238692   9.053   2.132   5.247
12287SOL     OW38693   5.902  13.156  10.317
12287SOL    HW138694   5.942  13.239  10.343
12287SOL    HW238695   5.977  13.098  10.298
12288SOL     OW38696  14.187  13.178   8.948
12288SOL    HW138697  14.210  13.199   9.039
12288SOL    HW238698  14.114  13.116   8.957
12289SOL     OW38699   1.193   0.891  14.560
12289SOL    HW138700   1.239   0.886  14.644
12289SOL    HW238701   1.137   0.968  14.568
12290SOL     OW38702   0.384  13.067   6.891
12290SOL    HW138703   0.317  13.106   6.947
12290SOL    HW238704   0.394  12.977   6.925
12291SOL     OW38705  11.991   9.992   3.327
12291SOL    HW138706  12.040  10.052   3.270
12291SOL    HW238707  12.057   9.929   3.356
12292SOL     OW38708  10.358   7.196  13.376
12292SOL    HW138709  10.350   7.286  13.347
12292SOL    HW238710  10.352   7.200  13.471
12293SOL     OW38711   6.981   6.503   2.993
12293SOL    HW138712   6.998   6.431   3.055
12293SOL    HW238713   6.893   6.486   2.961
12294SOL     OW38714   8.973   4.659   0.321
12294SOL    HW138715   9.011   4.614   0.246
12294SOL    HW238716   8.957   4.748   0.290
12295SOL     OW38717  13.864   6.209  13.786
12295SOL    HW138718  13.794   6.152  13.754
12295SOL    HW238719  13.939   6.151  13.797
12296SOL     OW38720   5.060   1.909   0.729
12296SOL    HW138721   5.068   1.972   0.800
12296SOL    HW238722   5.094   1.955   0.652
12297SOL     OW38723   9.894  13.931  11.814
12297SOL    HW138724   9.896  13.902  11.905
12297SOL    HW238725   9.805  13.910  11.785
12298SOL     OW38726  11.638   7.400   1.837
12298SOL    HW138727  11.624   7.446   1.920
12298SOL    HW238728  11.551   7.370   1.811
12299SOL     OW38729   2.890   8.497   6.755
12299SOL    HW138730   2.902   8.526   6.845
12299SOL    HW238731   2.837   8.418   6.763
12300SOL     OW38732   0.021   6.834   0.172
12300SOL    HW138733   0.017   6.916   0.122
12300SOL    HW238734  14.866   6.768   0.111
12301SOL     OW38735  11.940   9.483   4.560
12301SOL    HW138736  12.027   9.498   4.523
12301SOL    HW238737  11.921   9.391   4.542
12302SOL     OW38738   3.643   6.240  10.590
12302SOL    HW138739   3.642   6.196  10.505
12302SOL    HW238740   3.586   6.316  10.578
12303SOL     OW38741   9.127   7.905   3.711
12303SOL    HW138742   9.222   7.904   3.715
12303SOL    HW238743   9.107   7.910   3.618
12304SOL     OW38744   8.710   0.512   8.212
12304SOL    HW138745   8.736   0.579   8.275
12304SOL    HW238746   8.615   0.502   8.226
12305SOL     OW38747   0.397   7.753  11.056
12305SOL    HW138748   0.396   7.737  10.962
12305SOL    HW238749   0.436   7.840  11.065
12306SOL     OW38750   6.287   6.998   1.702
12306SOL    HW138751   6.342   6.920   1.694
12306SOL    HW238752   6.230   6.980   1.777
12307SOL     OW38753   2.640   4.561  10.207
12307SOL    HW138754   2.705   4.491  10.207
12307SOL    HW238755   2.688   4.639  10.237
12308SOL     OW38756   9.740  13.592   7.148
12308SOL    HW138757   9.806  13.660   7.162
12308SOL    HW238758   9.700  13.615   7.064
12309SOL     OW38759   0.683   5.891   1.913
12309SOL    HW138760   0.650   5.903   1.824
12309SOL    HW238761   0.766   5.845   1.902
12310SOL     OW38762   1.373   3.339  11.255
12310SOL    HW138763   1.442   3.279  11.228
12310SOL    HW238764   1.293   3.305  11.213
12311SOL     OW38765   6.018  11.097   6.338
12311SOL    HW138766   5.936  11.072   6.295
12311SOL    HW238767   6.047  11.016   6.380
12312SOL     OW38768   4.039   1.821  11.532
12312SOL    HW138769   4.052   1.746  11.590
12312SOL    HW238770   4.122   1.870  11.537
12313SOL     OW38771   6.721  10.004   2.599
12313SOL    HW138772   6.732  10.043   2.512
12313SOL    HW238773   6.659   9.932   2.585
12314SOL     OW38774   1.391   1.061   0.489
12314SOL    HW138775   1.395   0.972   0.454
12314SOL    HW238776   1.351   1.052   0.575
12315SOL     OW38777   9.190   1.923  12.342
12315SOL    HW138778   9.137   2.001  12.328
12315SOL    HW238779   9.276   1.944  12.304
12316SOL     OW38780  10.114   3.568   6.547
12316SOL    HW138781  10.072   3.624   6.482
12316SOL    HW238782  10.107   3.480   6.510
12317SOL     OW38783   1.110   7.968   8.279
12317SOL    HW138784   1.129   8.034   8.345
12317SOL    HW238785   1.014   7.970   8.270
12318SOL     OW38786  12.583   1.110   4.745
12318SOL    HW138787  12.593   1.024   4.704
12318SOL    HW238788  12.548   1.165   4.675
12319SOL     OW38789   9.161   7.347   6.941
12319SOL    HW138790   9.183   7.260   6.907
12319SOL    HW238791   9.070   7.338   6.970
12320SOL     OW38792   1.898   0.750   7.358
12320SOL    HW138793   1.876   0.750   7.451
12320SOL    HW238794   1.847   0.679   7.320
12321SOL     OW38795  10.759  13.894  13.380
12321SOL    HW138796  10.831  13.831  13.390
12321SOL    HW238797  10.725  13.878  13.292
12322SOL     OW38798   2.255   4.572  14.037
12322SOL    HW138799   2.178   4.518  14.020
12322SOL    HW238800   2.231   4.624  14.113
12323SOL     OW38801   2.241   3.779   5.038
12323SOL    HW138802   2.152   3.773   5.072
12323SOL    HW238803   2.293   3.723   5.096
12324SOL     OW38804  13.168   6.243   2.353
12324SOL    HW138805  13.192   6.152   2.369
12324SOL    HW238806  13.122   6.241   2.269
12325SOL     OW38807  10.322   1.472  10.837
12325SOL    HW138808  10.324   1.376  10.835
12325SOL    HW238809  10.269   1.497  10.761
12326SOL     OW38810  11.624  14.635   4.384
12326SOL    HW138811  11.628  14.714   4.331
12326SOL    HW238812  11.580  14.571   4.328
12327SOL     OW38813  13.002   5.390  12.407
12327SOL    HW138814  13.068   5.367  12.472
12327SOL    HW238815  12.952   5.309  12.394
12328SOL     OW38816   3.104   0.304  10.095
12328SOL    HW138817   3.050   0.339  10.166
12328SOL    HW238818   3.131   0.382  10.045
12329SOL     OW38819   8.322   7.328   6.951
12329SOL    HW138820   8.292   7.397   7.010
12329SOL    HW238821   8.243   7.276   6.933
12330SOL     OW38822  10.225  13.956   8.733
12330SOL    HW138823  10.304  13.961   8.787
12330SOL    HW238824  10.228  14.035   8.680
12331SOL     OW38825   4.920   1.419   3.839
12331SOL    HW138826   4.935   1.372   3.757
12331SOL    HW238827   4.908   1.510   3.813
12332SOL     OW38828   5.063  13.985  14.040
12332SOL    HW138829   5.069  13.913  14.103
12332SOL    HW238830   4.971  14.011  14.041
12333SOL     OW38831  14.677   8.845  13.997
12333SOL    HW138832  14.707   8.767  13.950
12333SOL    HW238833  14.608   8.881  13.941
12334SOL     OW38834   2.347  12.646   2.685
12334SOL    HW138835   2.339  12.556   2.716
12334SOL    HW238836   2.432  12.649   2.642
12335SOL     OW38837   8.899   1.418   3.159
12335SOL    HW138838   8.812   1.456   3.158
12335SOL    HW238839   8.952   1.478   3.107
12336SOL     OW38840   2.479   4.014   1.910
12336SOL    HW138841   2.494   3.936   1.962
12336SOL    HW238842   2.488   3.984   1.819
12337SOL     OW38843   3.038   3.129  11.454
12337SOL    HW138844   3.032   3.224  11.468
12337SOL    HW238845   2.948   3.097  11.460
12338SOL     OW38846   8.311  10.225   1.171
12338SOL    HW138847   8.284  10.135   1.184
12338SOL    HW238848   8.289  10.269   1.253
12339SOL     OW38849   9.873  10.532   9.487
12339SOL    HW138850   9.790  10.574   9.511
12339SOL    HW238851   9.847  10.453   9.440
12340SOL     OW38852  12.044  12.360  12.965
12340SOL    HW138853  12.091  12.442  12.952
12340SOL    HW238854  12.005  12.341  12.880
12341SOL     OW38855  13.493   5.815   7.247
12341SOL    HW138856  13.533   5.900   7.262
12341SOL    HW238857  13.567   5.754   7.245
12342SOL     OW38858   3.602  11.772  11.619
12342SOL    HW138859   3.673  11.744  11.561
12342SOL    HW238860   3.579  11.859  11.587
12343SOL     OW38861   5.778   4.036   9.771
12343SOL    HW138862   5.825   4.049   9.689
12343SOL    HW238863   5.687   4.058   9.751
12344SOL     OW38864   3.797   0.171   9.618
12344SOL    HW138865   3.769   0.107   9.684
12344SOL    HW238866   3.872   0.130   9.575
12345SOL     OW38867  10.208  12.830   5.632
12345SOL    HW138868  10.126  12.880   5.629
12345SOL    HW238869  10.212  12.798   5.722
12346SOL     OW38870   7.561   2.511   2.891
12346SOL    HW138871   7.569   2.424   2.930
12346SOL    HW238872   7.545   2.495   2.798
12347SOL     OW38873   9.337  13.780   7.632
12347SOL    HW138874   9.422  13.742   7.652
12347SOL    HW238875   9.343  13.871   7.662
12348SOL     OW38876  11.477   2.896   4.312
12348SOL    HW138877  11.421   2.955   4.364
12348SOL    HW238878  11.559   2.945   4.301
12349SOL     OW38879   6.600   4.694   6.087
12349SOL    HW138880   6.562   4.723   6.170
12349SOL    HW238881   6.693   4.681   6.107
12350SOL     OW38882   2.643  14.532  14.000
12350SOL    HW138883   2.614  14.501  13.914
12350SOL    HW238884   2.566  14.573  14.038
12351SOL     OW38885   0.707   2.294   9.551
12351SOL    HW138886   0.785   2.243   9.529
12351SOL    HW238887   0.701   2.359   9.482
12352SOL     OW38888   3.581  14.722  14.184
12352SOL    HW138889   3.655  14.684  14.231
12352SOL    HW238890   3.521  14.753  14.253
12353SOL     OW38891  13.500   4.258  11.144
12353SOL    HW138892  13.496   4.263  11.240
12353SOL    HW238893  13.421   4.303  11.115
12354SOL     OW38894  14.251  11.041   1.043
12354SOL    HW138895  14.219  10.981   1.111
12354SOL    HW238896  14.181  11.045   0.979
12355SOL     OW38897  14.032   3.002   7.116
12355SOL    HW138898  14.001   3.093   7.120
12355SOL    HW238899  14.053   2.988   7.024
12356SOL     OW38900  14.310   6.479   8.693
12356SOL    HW138901  14.216   6.492   8.710
12356SOL    HW238902  14.317   6.480   8.597
12357SOL     OW38903   0.155  10.061   1.329
12357SOL    HW138904   0.237  10.085   1.286
12357SOL    HW238905   0.088  10.074   1.262
12358SOL     OW38906   3.941   3.433  14.448
12358SOL    HW138907   3.853   3.397  14.458
12358SOL    HW238908   3.987   3.370  14.392
12359SOL     OW38909   4.247   2.699  13.051
12359SOL    HW138910   4.249   2.751  12.970
12359SOL    HW238911   4.164   2.650  13.046
12360SOL     OW38912   6.181   3.374  12.578
12360SOL    HW138913   6.110   3.315  12.553
12360SOL    HW238914   6.245   3.367  12.507
12361SOL     OW38915   4.815   1.162  10.887
12361SOL    HW138916   4.755   1.208  10.945
12361SOL    HW238917   4.777   1.172  10.799
12362SOL     OW38918   2.698   7.579  11.544
12362SOL    HW138919   2.618   7.627  11.524
12362SOL    HW238920   2.700   7.574  11.639
12363SOL     OW38921   7.900   7.002  11.347
12363SOL    HW138922   7.923   6.913  11.372
12363SOL    HW238923   7.845   7.034  11.419
12364SOL     OW38924  14.557   3.936   3.949
12364SOL    HW138925  14.519   3.999   3.889
12364SOL    HW238926  14.648   3.926   3.920
12365SOL     OW38927  11.764  10.818  13.251
12365SOL    HW138928  11.756  10.886  13.185
12365SOL    HW238929  11.725  10.856  13.330
12366SOL     OW38930  10.906  13.931  10.082
12366SOL    HW138931  10.936  14.014  10.047
12366SOL    HW238932  10.855  13.954  10.160
12367SOL     OW38933   9.182   6.945   1.789
12367SOL    HW138934   9.091   6.925   1.813
12367SOL    HW238935   9.227   6.861   1.798
12368SOL     OW38936  13.015   7.693   4.830
12368SOL    HW138937  13.089   7.633   4.845
12368SOL    HW238938  12.965   7.652   4.760
12369SOL     OW38939  11.383  12.738   4.376
12369SOL    HW138940  11.435  12.729   4.456
12369SOL    HW238941  11.299  12.774   4.405
12370SOL     OW38942   1.577  14.597   6.668
12370SOL    HW138943   1.529  14.661   6.721
12370SOL    HW238944   1.524  14.588   6.589
12371SOL     OW38945   6.031   3.688   8.109
12371SOL    HW138946   6.063   3.624   8.044
12371SOL    HW238947   6.111   3.722   8.150
12372SOL     OW38948   0.561   5.802   0.458
12372SOL    HW138949   0.557   5.882   0.511
12372SOL    HW238950   0.654   5.788   0.443
12373SOL     OW38951   3.082   2.686   0.320
12373SOL    HW138952   3.078   2.698   0.225
12373SOL    HW238953   3.083   2.775   0.355
12374SOL     OW38954  10.021   2.455  13.092
12374SOL    HW138955   9.972   2.411  13.161
12374SOL    HW238956   9.962   2.454  13.017
12375SOL     OW38957  14.256   8.398  14.343
12375SOL    HW138958  14.286   8.330  14.283
12375SOL    HW238959  14.259   8.356  14.429
12376SOL     OW38960   0.064  14.409   2.102
12376SOL    HW138961  14.868  14.383   2.155
12376SOL    HW238962   0.094  14.492   2.142
12377SOL     OW38963   4.247   5.174  12.619
12377SOL    HW138964   4.157   5.143  12.613
12377SOL    HW238965   4.255   5.237  12.546
12378SOL     OW38966  11.763  14.684   6.035
12378SOL    HW138967  11.706  14.761   6.030
12378SOL    HW238968  11.769  14.652   5.945
12379SOL     OW38969   5.546  10.107   4.003
12379SOL    HW138970   5.604  10.091   4.077
12379SOL    HW238971   5.512  10.195   4.018
12380SOL     OW38972   0.906   2.951   9.931
12380SOL    HW138973   0.862   3.033   9.911
12380SOL    HW238974   0.888   2.894   9.856
12381SOL     OW38975   7.282   8.777   2.226
12381SOL    HW138976   7.254   8.732   2.146
12381SOL    HW238977   7.376   8.788   2.215
12382SOL     OW38978   6.195  14.379   6.023
12382SOL    HW138979   6.169  14.471   6.023
12382SOL    HW238980   6.115  14.332   6.044
12383SOL     OW38981  12.287   9.040  12.766
12383SOL    HW138982  12.250   8.966  12.814
12383SOL    HW238983  12.380   9.038  12.786
12384SOL     OW38984   6.619   5.220  10.347
12384SOL    HW138985   6.670   5.286  10.301
12384SOL    HW238986   6.684   5.164  10.391
12385SOL     OW38987   8.611   0.419  13.080
12385SOL    HW138988   8.699   0.435  13.046
12385SOL    HW238989   8.553   0.472  13.025
12386SOL     OW38990   7.965  12.307   0.128
12386SOL    HW138991   8.005  12.254   0.197
12386SOL    HW238992   8.010  12.280   0.048
12387SOL     OW38993   0.578  13.119   0.100
12387SOL    HW138994   0.542  13.033   0.077
12387SOL    HW238995   0.602  13.111   0.192
12388SOL     OW38996  13.818  12.245  14.134
12388SOL    HW138997  13.845  12.175  14.075
12388SOL    HW238998  13.730  12.268  14.105
12389SOL     OW38999  11.712   6.093   1.284
12389SOL    HW139000  11.638   6.070   1.229
12389SOL    HW239001  11.767   6.015   1.285
12390SOL     OW39002  14.359   9.303   0.343
12390SOL    HW139003  14.452   9.295   0.366
12390SOL    HW239004  14.328   9.379   0.391
12391SOL     OW39005   2.070  11.279   9.201
12391SOL    HW139006   2.038  11.312   9.118
12391SOL    HW239007   2.032  11.192   9.209
12392SOL     OW39008   1.683   3.080   8.876
12392SOL    HW139009   1.716   3.096   8.965
12392SOL    HW239010   1.756   3.105   8.819
12393SOL     OW39011  11.251  10.626  10.951
12393SOL    HW139012  11.253  10.561  11.022
12393SOL    HW239013  11.341  10.658  10.946
12394SOL     OW39014   1.037  11.039   7.966
12394SOL    HW139015   1.109  11.007   8.021
12394SOL    HW239016   0.967  11.058   8.028
12395SOL     OW39017   5.141   7.910   7.037
12395SOL    HW139018   5.149   7.856   7.116
12395SOL    HW239019   5.118   7.997   7.070
12396SOL     OW39020   8.719   7.032   2.526
12396SOL    HW139021   8.747   7.019   2.616
12396SOL    HW239022   8.717   6.945   2.488
12397SOL     OW39023   2.374   5.126  12.045
12397SOL    HW139024   2.437   5.062  12.010
12397SOL    HW239025   2.413   5.211  12.025
12398SOL     OW39026   6.365   9.140  12.184
12398SOL    HW139027   6.438   9.179  12.233
12398SOL    HW239028   6.367   9.047  12.208
12399SOL     OW39029   3.334   5.363   9.636
12399SOL    HW139030   3.295   5.356   9.549
12399SOL    HW239031   3.422   5.328   9.626
12400SOL     OW39032   9.012   8.393  12.730
12400SOL    HW139033   9.038   8.331  12.798
12400SOL    HW239034   8.916   8.391  12.731
12401SOL     OW39035   4.123   9.408   5.502
12401SOL    HW139036   4.195   9.396   5.439
12401SOL    HW239037   4.155   9.368   5.582
12402SOL     OW39038   8.972   1.436   0.772
12402SOL    HW139039   8.943   1.519   0.809
12402SOL    HW239040   8.932   1.369   0.828
12403SOL     OW39041   9.200   0.925   2.478
12403SOL    HW139042   9.276   0.894   2.528
12403SOL    HW239043   9.190   0.862   2.407
12404SOL     OW39044   7.171  14.399  14.394
12404SOL    HW139045   7.101  14.335  14.402
12404SOL    HW239046   7.242  14.351  14.351
12405SOL     OW39047  12.144  11.732   9.710
12405SOL    HW139048  12.186  11.684   9.780
12405SOL    HW239049  12.063  11.766   9.748
12406SOL     OW39050  11.825   3.038   9.631
12406SOL    HW139051  11.883   3.054   9.557
12406SOL    HW239052  11.797   2.947   9.622
12407SOL     OW39053  10.303   1.985   6.880
12407SOL    HW139054  10.234   2.033   6.926
12407SOL    HW239055  10.289   1.894   6.905
12408SOL     OW39056  13.114   6.284   9.482
12408SOL    HW139057  13.116   6.355   9.418
12408SOL    HW239058  13.190   6.231   9.461
12409SOL     OW39059  14.348   8.540   6.579
12409SOL    HW139060  14.362   8.543   6.484
12409SOL    HW239061  14.436   8.537   6.616
12410SOL     OW39062   9.632   4.325  12.604
12410SOL    HW139063   9.629   4.417  12.578
12410SOL    HW239064   9.553   4.313  12.657
12411SOL     OW39065   7.586  12.814   0.079
12411SOL    HW139066   7.543  12.899   0.075
12411SOL    HW239067   7.678  12.835   0.097
12412SOL     OW39068  11.951   6.895  11.568
12412SOL    HW139069  11.883   6.915  11.633
12412SOL    HW239070  11.992   6.980  11.550
12413SOL     OW39071   6.910  13.402   5.911
12413SOL    HW139072   7.006  13.393   5.906
12413SOL    HW239073   6.882  13.400   5.819
12414SOL     OW39074   8.144  12.510   1.641
12414SOL    HW139075   8.209  12.449   1.676
12414SOL    HW239076   8.168  12.521   1.549
12415SOL     OW39077   6.804   2.905   7.985
12415SOL    HW139078   6.764   2.929   7.902
12415SOL    HW239079   6.873   2.842   7.962
12416SOL     OW39080   3.178   6.756   5.890
12416SOL    HW139081   3.128   6.822   5.938
12416SOL    HW239082   3.269   6.785   5.898
12417SOL     OW39083   6.839  14.407  10.181
12417SOL    HW139084   6.890  14.374  10.107
12417SOL    HW239085   6.749  14.383  10.160
12418SOL     OW39086  11.207   3.476  12.015
12418SOL    HW139087  11.302   3.488  12.013
12418SOL    HW239088  11.193   3.400  12.071
12419SOL     OW39089  14.741   6.286   8.651
12419SOL    HW139090  14.778   6.198   8.645
12419SOL    HW239091  14.816   6.344   8.661
12420SOL     OW39092  11.140   8.975   8.216
12420SOL    HW139093  11.118   8.992   8.307
12420SOL    HW239094  11.201   8.902   8.219
12421SOL     OW39095   2.680   0.512  13.023
12421SOL    HW139096   2.617   0.538  13.090
12421SOL    HW239097   2.747   0.581  13.025
12422SOL     OW39098   9.526   3.231   4.846
12422SOL    HW139099   9.568   3.312   4.875
12422SOL    HW239100   9.517   3.178   4.925
12423SOL     OW39101   0.422   9.379   8.647
12423SOL    HW139102   0.439   9.319   8.720
12423SOL    HW239103   0.509   9.400   8.614
12424SOL     OW39104   7.408   4.376  12.878
12424SOL    HW139105   7.432   4.284  12.891
12424SOL    HW239106   7.475   4.425  12.925
12425SOL     OW39107   6.248   0.059   0.812
12425SOL    HW139108   6.214   0.082   0.898
12425SOL    HW239109   6.332   0.105   0.806
12426SOL     OW39110   8.813  13.824   8.381
12426SOL    HW139111   8.801  13.744   8.329
12426SOL    HW239112   8.856  13.794   8.461
12427SOL     OW39113   0.957  10.054  10.622
12427SOL    HW139114   0.939   9.970  10.580
12427SOL    HW239115   0.991  10.109  10.552
12428SOL     OW39116   4.228   2.323  13.021
12428SOL    HW139117   4.281   2.296  12.945
12428SOL    HW239118   4.282   2.301  13.096
12429SOL     OW39119   5.981  14.539   7.666
12429SOL    HW139120   5.987  14.526   7.571
12429SOL    HW239121   5.888  14.558   7.681
12430SOL     OW39122   7.526  14.607   8.194
12430SOL    HW139123   7.467  14.593   8.268
12430SOL    HW239124   7.470  14.599   8.117
12431SOL     OW39125   7.425  14.118   8.578
12431SOL    HW139126   7.471  14.197   8.608
12431SOL    HW239127   7.351  14.151   8.527
12432SOL     OW39128   3.388   5.483   2.942
12432SOL    HW139129   3.405   5.497   3.035
12432SOL    HW239130   3.392   5.388   2.931
12433SOL     OW39131   4.376  10.602   8.378
12433SOL    HW139132   4.311  10.532   8.388
12433SOL    HW239133   4.409  10.591   8.289
12434SOL     OW39134   8.963   5.774   6.443
12434SOL    HW139135   8.936   5.704   6.384
12434SOL    HW239136   8.990   5.845   6.385
12435SOL     OW39137   9.022   6.370  10.668
12435SOL    HW139138   9.005   6.458  10.703
12435SOL    HW239139   9.083   6.385  10.596
12436SOL     OW39140   8.298  14.336   9.220
12436SOL    HW139141   8.244  14.314   9.144
12436SOL    HW239142   8.235  14.363   9.287
12437SOL     OW39143   0.234  11.562  12.690
12437SOL    HW139144   0.308  11.553  12.630
12437SOL    HW239145   0.158  11.571  12.632
12438SOL     OW39146   3.520   4.123  11.052
12438SOL    HW139147   3.584   4.162  10.994
12438SOL    HW239148   3.531   4.169  11.135
12439SOL     OW39149   2.323   9.384   5.573
12439SOL    HW139150   2.323   9.473   5.608
12439SOL    HW239151   2.231   9.360   5.569
12440SOL     OW39152   7.409  13.331  14.543
12440SOL    HW139153   7.448  13.308  14.459
12440SOL    HW239154   7.321  13.361  14.521
12441SOL     OW39155   5.017   2.293   2.916
12441SOL    HW139156   5.103   2.252   2.912
12441SOL    HW239157   4.958   2.224   2.946
12442SOL     OW39158   4.065   7.962   5.828
12442SOL    HW139159   4.151   7.953   5.871
12442SOL    HW239160   4.013   8.012   5.891
12443SOL     OW39161   3.545   9.088  14.683
12443SOL    HW139162   3.455   9.109  14.709
12443SOL    HW239163   3.535   9.036  14.603
12444SOL     OW39164   0.165   2.446   1.924
12444SOL    HW139165   0.094   2.462   1.862
12444SOL    HW239166   0.233   2.509   1.900
12445SOL     OW39167  13.486   1.934  13.271
12445SOL    HW139168  13.506   2.028  13.270
12445SOL    HW239169  13.473   1.914  13.364
12446SOL     OW39170   0.041   8.859  10.654
12446SOL    HW139171   0.035   8.818  10.568
12446SOL    HW239172   0.028   8.787  10.716
12447SOL     OW39173  12.601  12.490   5.370
12447SOL    HW139174  12.546  12.428   5.321
12447SOL    HW239175  12.573  12.576   5.340
12448SOL     OW39176  13.589   8.268   8.455
12448SOL    HW139177  13.567   8.351   8.496
12448SOL    HW239178  13.684   8.269   8.447
12449SOL     OW39179  14.148   8.774  11.519
12449SOL    HW139180  14.227   8.742  11.477
12449SOL    HW239181  14.080   8.711  11.494
12450SOL     OW39182  12.568   2.569   2.398
12450SOL    HW139183  12.651   2.585   2.352
12450SOL    HW239184  12.583   2.487   2.445
12451SOL     OW39185   7.570   8.912  11.231
12451SOL    HW139186   7.558   8.932  11.323
12451SOL    HW239187   7.657   8.872  11.226
12452SOL     OW39188   9.417   8.011  14.129
12452SOL    HW139189   9.412   8.045  14.040
12452SOL    HW239190   9.384   8.083  14.184
12453SOL     OW39191   1.793  10.582   8.684
12453SOL    HW139192   1.758  10.544   8.765
12453SOL    HW239193   1.816  10.672   8.707
12454SOL     OW39194  13.854   1.306   9.735
12454SOL    HW139195  13.778   1.295   9.678
12454SOL    HW239196  13.909   1.370   9.689
12455SOL     OW39197  13.416   1.879   9.598
12455SOL    HW139198  13.400   1.857   9.506
12455SOL    HW239199  13.495   1.831   9.621
12456SOL     OW39200   9.066   5.300   2.914
12456SOL    HW139201   9.062   5.344   2.829
12456SOL    HW239202   9.151   5.255   2.913
12457SOL     OW39203  14.188   7.465   9.207
12457SOL    HW139204  14.241   7.388   9.185
12457SOL    HW239205  14.244   7.539   9.188
12458SOL     OW39206   1.713  14.661   9.408
12458SOL    HW139207   1.750  14.662   9.496
12458SOL    HW239208   1.772  14.715   9.356
12459SOL     OW39209   5.160   3.416   4.965
12459SOL    HW139210   5.224   3.370   5.019
12459SOL    HW239211   5.177   3.386   4.876
12460SOL     OW39212   0.804   0.550  12.107
12460SOL    HW139213   0.724   0.517  12.067
12460SOL    HW239214   0.799   0.645  12.097
12461SOL     OW39215   7.681  14.392  14.708
12461SOL    HW139216   7.716  14.350  14.630
12461SOL    HW239217   7.592  14.357  14.717
12462SOL     OW39218   7.882   6.201  13.688
12462SOL    HW139219   7.861   6.207  13.781
12462SOL    HW239220   7.915   6.112  13.676
12463SOL     OW39221  11.988  11.717  13.615
12463SOL    HW139222  11.918  11.782  13.610
12463SOL    HW239223  12.066  11.768  13.636
12464SOL     OW39224  14.756   1.278   2.259
12464SOL    HW139225  14.805   1.196   2.246
12464SOL    HW239226  14.816   1.334   2.308
12465SOL     OW39227  11.221  11.359  11.939
12465SOL    HW139228  11.229  11.330  12.030
12465SOL    HW239229  11.191  11.281  11.892
12466SOL     OW39230  12.710  11.802   4.584
12466SOL    HW139231  12.704  11.897   4.574
12466SOL    HW239232  12.762  11.773   4.509
12467SOL     OW39233   9.142   9.393   2.236
12467SOL    HW139234   9.097   9.341   2.169
12467SOL    HW239235   9.076   9.407   2.304
12468SOL     OW39236   5.684  11.547  14.313
12468SOL    HW139237   5.602  11.553  14.264
12468SOL    HW239238   5.702  11.453  14.317
12469SOL     OW39239  12.602  10.203  12.121
12469SOL    HW139240  12.592  10.124  12.175
12469SOL    HW239241  12.513  10.227  12.098
12470SOL     OW39242   8.374  13.405   2.268
12470SOL    HW139243   8.311  13.333   2.268
12470SOL    HW239244   8.323  13.482   2.294
12471SOL     OW39245   3.772   4.895  12.823
12471SOL    HW139246   3.826   4.821  12.796
12471SOL    HW239247   3.682   4.863  12.818
12472SOL     OW39248   4.007  14.794   0.867
12472SOL    HW139249   4.094  14.830   0.883
12472SOL    HW239250   3.964  14.860   0.812
12473SOL     OW39251   0.364  13.047   9.744
12473SOL    HW139252   0.282  13.037   9.695
12473SOL    HW239253   0.363  13.138   9.774
12474SOL     OW39254   5.979   9.144   2.499
12474SOL    HW139255   5.900   9.102   2.465
12474SOL    HW239256   6.047   9.121   2.436
12475SOL     OW39257   5.892   4.068   2.637
12475SOL    HW139258   5.890   4.007   2.711
12475SOL    HW239259   5.931   4.148   2.672
12476SOL     OW39260   3.884   6.848   4.611
12476SOL    HW139261   3.804   6.817   4.567
12476SOL    HW239262   3.880   6.807   4.698
12477SOL     OW39263  10.100   2.429   5.056
12477SOL    HW139264  10.123   2.348   5.102
12477SOL    HW239265  10.007   2.442   5.074
12478SOL     OW39266  13.586  11.071   4.767
12478SOL    HW139267  13.633  11.087   4.685
12478SOL    HW239268  13.643  11.012   4.816
12479SOL     OW39269   5.700   2.277   7.015
12479SOL    HW139270   5.727   2.358   7.059
12479SOL    HW239271   5.683   2.216   7.087
12480SOL     OW39272  14.134  14.769  14.178
12480SOL    HW139273  14.116  14.818  14.258
12480SOL    HW239274  14.164  14.683  14.209
12481SOL     OW39275   6.475  10.927   4.357
12481SOL    HW139276   6.427  10.944   4.276
12481SOL    HW239277   6.492  10.832   4.354
12482SOL     OW39278  13.108  11.446  11.868
12482SOL    HW139279  13.142  11.380  11.808
12482SOL    HW239280  13.014  11.450  11.848
12483SOL     OW39281   7.750  10.298  13.025
12483SOL    HW139282   7.662  10.328  13.043
12483SOL    HW239283   7.739  10.233  12.955
12484SOL     OW39284  10.533   9.445   9.398
12484SOL    HW139285  10.629   9.454   9.395
12484SOL    HW239286  10.519   9.358   9.433
12485SOL     OW39287  14.492  14.326   0.126
12485SOL    HW139288  14.514  14.396   0.186
12485SOL    HW239289  14.517  14.246   0.171
12486SOL     OW39290   9.638   0.224   8.221
12486SOL    HW139291   9.653   0.301   8.275
12486SOL    HW239292   9.547   0.200   8.238
12487SOL     OW39293  11.842   2.541   4.333
12487SOL    HW139294  11.918   2.598   4.345
12487SOL    HW239295  11.832   2.496   4.417
12488SOL     OW39296  10.580   9.124  11.703
12488SOL    HW139297  10.537   9.047  11.741
12488SOL    HW239298  10.639   9.088  11.638
12489SOL     OW39299   6.552   0.839   1.840
12489SOL    HW139300   6.572   0.899   1.912
12489SOL    HW239301   6.557   0.894   1.762
12490SOL     OW39302   9.436  12.765   3.073
12490SOL    HW139303   9.404  12.722   2.994
12490SOL    HW239304   9.461  12.853   3.045
12491SOL     OW39305   2.123  12.007  10.218
12491SOL    HW139306   2.094  12.074  10.280
12491SOL    HW239307   2.157  11.937  10.274
12492SOL     OW39308   5.069   8.549   7.458
12492SOL    HW139309   5.001   8.489   7.427
12492SOL    HW239310   5.120   8.571   7.380
12493SOL     OW39311   2.808   8.149  12.053
12493SOL    HW139312   2.791   8.173  12.144
12493SOL    HW239313   2.755   8.210  12.002
12494SOL     OW39314   3.530   3.963   7.749
12494SOL    HW139315   3.437   3.962   7.727
12494SOL    HW239316   3.572   3.920   7.674
12495SOL     OW39317   6.615   8.584  12.221
12495SOL    HW139318   6.671   8.567  12.145
12495SOL    HW239319   6.589   8.675  12.212
12496SOL     OW39320  13.045  11.124   8.569
12496SOL    HW139321  13.030  11.032   8.548
12496SOL    HW239322  13.077  11.163   8.488
12497SOL     OW39323   4.048  10.302   0.125
12497SOL    HW139324   4.037  10.334   0.215
12497SOL    HW239325   4.104  10.367   0.083
12498SOL     OW39326   8.464   7.787  13.999
12498SOL    HW139327   8.505   7.814  13.916
12498SOL    HW239328   8.445   7.694  13.986
12499SOL     OW39329   4.468  12.954   4.153
12499SOL    HW139330   4.526  12.992   4.219
12499SOL    HW239331   4.381  12.959   4.191
12500SOL     OW39332   9.230   8.734  14.331
12500SOL    HW139333   9.315   8.690  14.321
12500SOL    HW239334   9.234   8.775  14.417
12501SOL     OW39335  11.539  14.033   3.105
12501SOL    HW139336  11.616  14.007   3.055
12501SOL    HW239337  11.468  14.034   3.040
12502SOL     OW39338  10.455  11.895  12.949
12502SOL    HW139339  10.365  11.889  12.917
12502SOL    HW239340  10.447  11.886  13.044
12503SOL     OW39341   6.164  14.843  12.778
12503SOL    HW139342   6.169   0.060  12.786
12503SOL    HW239343   6.230  14.821  12.713
12504SOL     OW39344   2.266   9.838   3.416
12504SOL    HW139345   2.350   9.862   3.454
12504SOL    HW239346   2.241   9.913   3.362
12505SOL     OW39347  12.077  11.223   2.909
12505SOL    HW139348  12.158  11.235   2.859
12505SOL    HW239349  12.038  11.310   2.911
12506SOL     OW39350   3.645   7.717  10.749
12506SOL    HW139351   3.612   7.636  10.711
12506SOL    HW239352   3.714   7.746  10.689
12507SOL     OW39353  11.635  13.401  11.975
12507SOL    HW139354  11.590  13.421  12.057
12507SOL    HW239355  11.666  13.486  11.943
12508SOL     OW39356   1.440  13.975  14.676
12508SOL    HW139357   1.515  13.920  14.697
12508SOL    HW239358   1.434  14.038  14.748
12509SOL     OW39359   1.884  11.206   2.512
12509SOL    HW139360   1.824  11.167   2.448
12509SOL    HW239361   1.828  11.227   2.587
12510SOL     OW39362   8.886   6.693   7.833
12510SOL    HW139363   8.905   6.604   7.863
12510SOL    HW239364   8.902   6.748   7.910
12511SOL     OW39365   2.650  12.357  10.422
12511SOL    HW139366   2.559  12.384  10.406
12511SOL    HW239367   2.698  12.393  10.347
12512SOL     OW39368   7.432  14.519  10.364
12512SOL    HW139369   7.448  14.553  10.452
12512SOL    HW239370   7.346  14.553  10.341
12513SOL     OW39371   1.734  13.124   1.002
12513SOL    HW139372   1.757  13.033   0.982
12513SOL    HW239373   1.700  13.122   1.091
12514SOL     OW39374   9.072   3.279   8.391
12514SOL    HW139375   9.097   3.298   8.301
12514SOL    HW239376   9.155   3.268   8.437
12515SOL     OW39377   0.279   8.743   1.752
12515SOL    HW139378   0.366   8.718   1.720
12515SOL    HW239379   0.241   8.793   1.680
12516SOL     OW39380   1.703   3.572   7.565
12516SOL    HW139381   1.701   3.607   7.476
12516SOL    HW239382   1.683   3.648   7.620
12517SOL     OW39383  14.302  13.647   0.925
12517SOL    HW139384  14.270  13.698   0.851
12517SOL    HW239385  14.294  13.556   0.897
12518SOL     OW39386   8.647  13.653  14.754
12518SOL    HW139387   8.596  13.598  14.813
12518SOL    HW239388   8.629  13.742  14.783
12519SOL     OW39389   7.040   5.993   2.901
12519SOL    HW139390   7.104   6.015   2.833
12519SOL    HW239391   7.025   5.899   2.889
12520SOL     OW39392   0.498   6.264  12.620
12520SOL    HW139393   0.594   6.267  12.626
12520SOL    HW239394   0.481   6.251  12.527
12521SOL     OW39395  10.038  11.547  10.332
12521SOL    HW139396   9.983  11.523  10.407
12521SOL    HW239397   9.983  11.603  10.278
12522SOL     OW39398   1.438   2.419   1.335
12522SOL    HW139399   1.460   2.480   1.263
12522SOL    HW239400   1.463   2.466   1.414
12523SOL     OW39401  10.200   1.827  13.857
12523SOL    HW139402  10.290   1.809  13.883
12523SOL    HW239403  10.206   1.907  13.804
12524SOL     OW39404   2.931   9.983   5.814
12524SOL    HW139405   2.940   9.938   5.730
12524SOL    HW239406   2.860   9.937   5.859
12525SOL     OW39407   2.968   3.125   2.508
12525SOL    HW139408   3.004   3.145   2.595
12525SOL    HW239409   2.875   3.148   2.515
12526SOL     OW39410   5.407   9.904  10.057
12526SOL    HW139411   5.464   9.892   9.981
12526SOL    HW239412   5.318   9.893  10.023
12527SOL     OW39413  12.916  13.678   6.743
12527SOL    HW139414  12.922  13.706   6.652
12527SOL    HW239415  12.835  13.719   6.775
12528SOL     OW39416   4.617   4.403  12.727
12528SOL    HW139417   4.676   4.334  12.697
12528SOL    HW239418   4.614   4.465  12.654
12529SOL     OW39419   2.679  12.200   1.521
12529SOL    HW139420   2.679  12.143   1.598
12529SOL    HW239421   2.640  12.147   1.452
12530SOL     OW39422  14.861  11.357   0.367
12530SOL    HW139423  14.821  11.362   0.281
12530SOL    HW239424  14.849  11.444   0.405
12531SOL     OW39425   0.007  11.794   9.560
12531SOL    HW139426  14.796  11.825   9.559
12531SOL    HW239427   0.016  11.747   9.643
12532SOL     OW39428  10.449   1.080  11.187
12532SOL    HW139429  10.542   1.059  11.179
12532SOL    HW239430  10.415   1.013  11.247
12533SOL     OW39431   4.162   0.196   7.255
12533SOL    HW139432   4.188   0.286   7.234
12533SOL    HW239433   4.112   0.168   7.179
12534SOL     OW39434   4.157  10.522   6.939
12534SOL    HW139435   4.241  10.502   6.899
12534SOL    HW239436   4.092  10.498   6.873
12535SOL     OW39437   9.518  11.740  12.123
12535SOL    HW139438   9.502  11.650  12.153
12535SOL    HW239439   9.475  11.744  12.037
12536SOL     OW39440  11.771   5.028   4.260
12536SOL    HW139441  11.760   5.000   4.169
12536SOL    HW239442  11.688   5.007   4.301
12537SOL     OW39443   9.266   9.676  12.462
12537SOL    HW139444   9.231   9.589  12.483
12537SOL    HW239445   9.277   9.676  12.367
12538SOL     OW39446   1.176  14.631  12.496
12538SOL    HW139447   1.108  14.571  12.466
12538SOL    HW239448   1.228  14.580  12.557
12539SOL     OW39449  14.834  12.763   6.145
12539SOL    HW139450   0.047  12.767   6.168
12539SOL    HW239451  14.788  12.787   6.226
12540SOL     OW39452   9.943  13.798   6.447
12540SOL    HW139453   9.919  13.879   6.402
12540SOL    HW239454   9.966  13.738   6.377
12541SOL     OW39455  14.187   2.147   1.316
12541SOL    HW139456  14.214   2.199   1.392
12541SOL    HW239457  14.120   2.088   1.350
12542SOL     OW39458  10.898   9.206   7.261
12542SOL    HW139459  10.872   9.269   7.328
12542SOL    HW239460  10.945   9.137   7.310
12543SOL     OW39461   6.968   2.599   5.891
12543SOL    HW139462   6.894   2.585   5.949
12543SOL    HW239463   7.023   2.521   5.903
12544SOL     OW39464   2.911  12.989   3.903
12544SOL    HW139465   2.886  12.980   3.995
12544SOL    HW239466   2.997  12.947   3.897
12545SOL     OW39467   4.703  11.385  13.254
12545SOL    HW139468   4.675  11.307  13.303
12545SOL    HW239469   4.750  11.350  13.179
12546SOL     OW39470   7.601  10.409   1.881
12546SOL    HW139471   7.529  10.349   1.900
12546SOL    HW239472   7.639  10.376   1.799
12547SOL     OW39473   6.945   6.947   7.065
12547SOL    HW139474   6.868   6.947   7.123
12547SOL    HW239475   7.015   6.985   7.118
12548SOL     OW39476   4.974   8.526   8.135
12548SOL    HW139477   5.065   8.553   8.123
12548SOL    HW239478   4.957   8.465   8.064
12549SOL     OW39479   6.249   8.333   7.242
12549SOL    HW139480   6.255   8.275   7.166
12549SOL    HW239481   6.336   8.331   7.282
12550SOL     OW39482   3.816  13.043  14.803
12550SOL    HW139483   3.749  13.088  14.752
12550SOL    HW239484   3.836  12.965  14.752
12551SOL     OW39485   1.474  12.790  10.771
12551SOL    HW139486   1.430  12.719  10.725
12551SOL    HW239487   1.565  12.762  10.778
12552SOL     OW39488   4.971  13.072  12.125
12552SOL    HW139489   4.877  13.074  12.106
12552SOL    HW239490   4.976  13.066  12.220
12553SOL     OW39491   1.748   3.893  12.144
12553SOL    HW139492   1.807   3.876  12.071
12553SOL    HW239493   1.777   3.833  12.212
12554SOL     OW39494   4.761   7.727  14.082
12554SOL    HW139495   4.671   7.714  14.112
12554SOL    HW239496   4.765   7.819  14.056
12555SOL     OW39497   7.297   4.754  11.535
12555SOL    HW139498   7.360   4.735  11.466
12555SOL    HW239499   7.348   4.796  11.604
12556SOL     OW39500  13.037   7.852   8.566
12556SOL    HW139501  12.963   7.871   8.623
12556SOL    HW239502  13.106   7.911   8.597
12557SOL     OW39503   2.641   8.293   9.070
12557SOL    HW139504   2.713   8.356   9.058
12557SOL    HW239505   2.598   8.291   8.984
12558SOL     OW39506  11.497   8.959   9.278
12558SOL    HW139507  11.558   9.022   9.239
12558SOL    HW239508  11.553   8.892   9.317
12559SOL     OW39509   2.358   2.856   7.221
12559SOL    HW139510   2.429   2.853   7.286
12559SOL    HW239511   2.349   2.765   7.192
12560SOL     OW39512  14.716   6.041   2.217
12560SOL    HW139513  14.621   6.053   2.213
12560SOL    HW239514  14.751   6.114   2.165
12561SOL     OW39515   9.902   9.508   5.476
12561SOL    HW139516   9.884   9.597   5.507
12561SOL    HW239517   9.831   9.490   5.414
12562SOL     OW39518  11.228  12.930  12.629
12562SOL    HW139519  11.307  12.980  12.610
12562SOL    HW239520  11.228  12.917  12.724
12563SOL     OW39521   1.879  14.709  12.358
12563SOL    HW139522   1.895  14.691  12.450
12563SOL    HW239523   1.824  14.787  12.357
12564SOL     OW39524  13.435   2.512  12.306
12564SOL    HW139525  13.457   2.436  12.253
12564SOL    HW239526  13.426   2.478  12.395
12565SOL     OW39527   3.414   1.266   3.945
12565SOL    HW139528   3.389   1.202   4.012
12565SOL    HW239529   3.363   1.344   3.968
12566SOL     OW39530   9.457  12.860  13.825
12566SOL    HW139531   9.553  12.868  13.822
12566SOL    HW239532   9.439  12.829  13.914
12567SOL     OW39533   4.752   9.574  13.299
12567SOL    HW139534   4.747   9.565  13.394
12567SOL    HW239535   4.666   9.608  13.274
12568SOL     OW39536   2.050  12.857   6.166
12568SOL    HW139537   2.049  12.761   6.174
12568SOL    HW239538   1.957  12.880   6.159
12569SOL     OW39539  12.879   8.605   3.681
12569SOL    HW139540  12.974   8.594   3.693
12569SOL    HW239541  12.859   8.550   3.606
12570SOL     OW39542  11.213   3.624  13.167
12570SOL    HW139543  11.268   3.600  13.092
12570SOL    HW239544  11.133   3.659  13.128
12571SOL     OW39545  12.266   3.847   0.758
12571SOL    HW139546  12.319   3.908   0.707
12571SOL    HW239547  12.320   3.828   0.835
12572SOL     OW39548  13.404  11.653   6.310
12572SOL    HW139549  13.463  11.677   6.239
12572SOL    HW239550  13.379  11.736   6.350
12573SOL     OW39551   4.734   3.614  13.450
12573SOL    HW139552   4.718   3.690  13.506
12573SOL    HW239553   4.654   3.604  13.400
12574SOL     OW39554   2.966  11.539  12.111
12574SOL    HW139555   3.007  11.554  12.025
12574SOL    HW239556   3.039  11.524  12.170
12575SOL     OW39557   2.757  11.642   7.968
12575SOL    HW139558   2.699  11.691   8.026
12575SOL    HW239559   2.842  11.686   7.977
12576SOL     OW39560   6.001   4.427   9.151
12576SOL    HW139561   5.951   4.489   9.205
12576SOL    HW239562   5.961   4.432   9.065
12577SOL     OW39563   6.381   0.153   1.238
12577SOL    HW139564   6.405   0.063   1.218
12577SOL    HW239565   6.319   0.178   1.169
12578SOL     OW39566   3.208  13.232   5.079
12578SOL    HW139567   3.291  13.280   5.077
12578SOL    HW239568   3.163  13.265   5.157
12579SOL     OW39569   2.678  11.454   9.916
12579SOL    HW139570   2.701  11.368   9.950
12579SOL    HW239571   2.750  11.511   9.943
12580SOL     OW39572   0.093  13.099   8.521
12580SOL    HW139573   0.118  13.077   8.611
12580SOL    HW239574   0.176  13.105   8.474
12581SOL     OW39575  14.277  12.413  12.284
12581SOL    HW139576  14.299  12.326  12.250
12581SOL    HW239577  14.360  12.451  12.311
12582SOL     OW39578   1.208  13.207   5.985
12582SOL    HW139579   1.194  13.160   5.903
12582SOL    HW239580   1.303  13.207   5.998
12583SOL     OW39581   9.328  11.688   1.044
12583SOL    HW139582   9.352  11.609   1.093
12583SOL    HW239583   9.252  11.722   1.090
12584SOL     OW39584   7.939   0.028   8.078
12584SOL    HW139585   7.844   0.018   8.074
12584SOL    HW239586   7.966   0.038   7.986
12585SOL     OW39587  11.844  14.676   2.951
12585SOL    HW139588  11.900  14.598   2.958
12585SOL    HW239589  11.888  14.730   2.885
12586SOL     OW39590  10.863  14.311   3.120
12586SOL    HW139591  10.930  14.365   3.078
12586SOL    HW239592  10.901  14.224   3.124
12587SOL     OW39593   9.488   5.886   8.402
12587SOL    HW139594   9.537   5.805   8.419
12587SOL    HW239595   9.492   5.897   8.307
12588SOL     OW39596   2.827   1.960  12.346
12588SOL    HW139597   2.817   1.896  12.275
12588SOL    HW239598   2.751   2.017  12.336
12589SOL     OW39599  11.831   0.807  14.041
12589SOL    HW139600  11.807   0.803  14.133
12589SOL    HW239601  11.873   0.892  14.030
12590SOL     OW39602   4.954  12.839   3.670
12590SOL    HW139603   4.895  12.878   3.606
12590SOL    HW239604   4.967  12.907   3.737
12591SOL     OW39605   3.779  14.640   4.522
12591SOL    HW139606   3.866  14.629   4.560
12591SOL    HW239607   3.780  14.586   4.443
12592SOL     OW39608   7.872   1.595  13.460
12592SOL    HW139609   7.923   1.521  13.493
12592SOL    HW239610   7.794   1.598  13.516
12593SOL     OW39611   6.740   4.950   7.375
12593SOL    HW139612   6.801   4.921   7.443
12593SOL    HW239613   6.716   5.039   7.400
12594SOL     OW39614   6.702  14.097  10.367
12594SOL    HW139615   6.783  14.085  10.416
12594SOL    HW239616   6.691  14.014  10.319
12595SOL     OW39617   5.631   4.744  12.615
12595SOL    HW139618   5.626   4.832  12.651
12595SOL    HW239619   5.671   4.692  12.685
12596SOL     OW39620  12.369   3.357   7.587
12596SOL    HW139621  12.306   3.301   7.544
12596SOL    HW239622  12.342   3.446   7.564
12597SOL     OW39623  13.032   7.583   5.430
12597SOL    HW139624  13.094   7.631   5.376
12597SOL    HW239625  13.073   7.580   5.517
12598SOL     OW39626   5.295  12.622   9.289
12598SOL    HW139627   5.233  12.596   9.220
12598SOL    HW239628   5.371  12.566   9.274
12599SOL     OW39629   1.558   3.606  14.760
12599SOL    HW139630   1.520   3.661  14.828
12599SOL    HW239631   1.649   3.595  14.785
12600SOL     OW39632  12.816  12.191   8.388
12600SOL    HW139633  12.831  12.264   8.448
12600SOL    HW239634  12.721  12.183   8.383
12601SOL     OW39635  11.155   4.404   6.941
12601SOL    HW139636  11.229   4.374   6.993
12601SOL    HW239637  11.157   4.500   6.949
12602SOL     OW39638   5.478   9.395  14.473
12602SOL    HW139639   5.543   9.462  14.454
12602SOL    HW239640   5.448   9.415  14.562
12603SOL     OW39641   1.826  13.911  10.059
12603SOL    HW139642   1.881  13.980  10.094
12603SOL    HW239643   1.793  13.865  10.136
12604SOL     OW39644  14.621   3.180   2.959
12604SOL    HW139645  14.557   3.237   2.916
12604SOL    HW239646  14.617   3.205   3.052
12605SOL     OW39647   3.004   0.614   7.590
12605SOL    HW139648   3.018   0.701   7.627
12605SOL    HW239649   3.070   0.559   7.632
12606SOL     OW39650   6.839  10.029   3.074
12606SOL    HW139651   6.839  10.034   3.170
12606SOL    HW239652   6.850  10.119   3.045
12607SOL     OW39653  11.378  11.981   8.022
12607SOL    HW139654  11.310  11.924   7.986
12607SOL    HW239655  11.459  11.952   7.979
12608SOL     OW39656  11.306  14.353   6.955
12608SOL    HW139657  11.372  14.388   6.896
12608SOL    HW239658  11.355  14.298   7.016
12609SOL     OW39659   8.249   4.535   0.468
12609SOL    HW139660   8.289   4.572   0.547
12609SOL    HW239661   8.312   4.553   0.398
12610SOL     OW39662   9.263   4.152   0.695
12610SOL    HW139663   9.210   4.212   0.643
12610SOL    HW239664   9.222   4.066   0.681
12611SOL     OW39665  10.397   8.803   1.437
12611SOL    HW139666  10.492   8.798   1.454
12611SOL    HW239667  10.384   8.890   1.399
12612SOL     OW39668  10.084   1.090   6.422
12612SOL    HW139669  10.170   1.048   6.433
12612SOL    HW239670  10.087   1.127   6.334
12613SOL     OW39671  13.077  10.934   5.643
12613SOL    HW139672  13.060  10.985   5.564
12613SOL    HW239673  13.029  10.853   5.631
12614SOL     OW39674  10.178  13.773   4.356
12614SOL    HW139675  10.220  13.695   4.394
12614SOL    HW239676  10.106  13.794   4.416
12615SOL     OW39677   3.904  10.730   9.730
12615SOL    HW139678   3.811  10.722   9.754
12615SOL    HW239679   3.904  10.788   9.655
12616SOL     OW39680  14.662   0.447  10.451
12616SOL    HW139681  14.630   0.373  10.399
12616SOL    HW239682  14.586   0.477  10.500
12617SOL     OW39683   2.502  14.211   7.419
12617SOL    HW139684   2.482  14.119   7.401
12617SOL    HW239685   2.566  14.208   7.491
12618SOL     OW39686   7.675   5.634   9.888
12618SOL    HW139687   7.769   5.619   9.897
12618SOL    HW239688   7.663   5.725   9.916
12619SOL     OW39689   0.177   8.436   1.606
12619SOL    HW139690   0.250   8.397   1.654
12619SOL    HW239691   0.211   8.519   1.572
12620SOL     OW39692   0.264  12.898   6.461
12620SOL    HW139693   0.231  12.987   6.451
12620SOL    HW239694   0.222  12.865   6.541
12621SOL     OW39695   2.266   3.147   8.185
12621SOL    HW139696   2.262   3.174   8.276
12621SOL    HW239697   2.318   3.215   8.142
12622SOL     OW39698   3.744  11.957  12.212
12622SOL    HW139699   3.734  12.042  12.254
12622SOL    HW239700   3.836  11.934  12.226
12623SOL     OW39701   5.489   8.658   6.749
12623SOL    HW139702   5.525   8.730   6.698
12623SOL    HW239703   5.457   8.596   6.684
12624SOL     OW39704   0.892   8.641  13.979
12624SOL    HW139705   0.910   8.547  13.988
12624SOL    HW239706   0.976   8.682  14.001
12625SOL     OW39707   9.348   6.878   3.651
12625SOL    HW139708   9.320   6.947   3.591
12625SOL    HW239709   9.415   6.830   3.602
12626SOL     OW39710   3.323  13.562  11.544
12626SOL    HW139711   3.262  13.494  11.513
12626SOL    HW239712   3.402  13.549  11.492
12627SOL     OW39713   3.992  14.750  11.343
12627SOL    HW139714   4.035  14.794  11.416
12627SOL    HW239715   4.021  14.799  11.266
12628SOL     OW39716  10.870  14.806   5.054
12628SOL    HW139717  10.792  14.861   5.054
12628SOL    HW239718  10.934  14.854   5.107
12629SOL     OW39719   1.645  11.677   5.332
12629SOL    HW139720   1.565  11.697   5.284
12629SOL    HW239721   1.660  11.754   5.388
12630SOL     OW39722   3.064  11.174  12.944
12630SOL    HW139723   3.031  11.123  12.870
12630SOL    HW239724   3.090  11.258  12.906
12631SOL     OW39725  12.523  13.610  12.890
12631SOL    HW139726  12.573  13.529  12.899
12631SOL    HW239727  12.519  13.625  12.795
12632SOL     OW39728   4.935  13.139   1.326
12632SOL    HW139729   4.978  13.222   1.305
12632SOL    HW239730   4.979  13.074   1.271
12633SOL     OW39731   7.273   2.853   0.203
12633SOL    HW139732   7.211   2.885   0.268
12633SOL    HW239733   7.219   2.837   0.125
12634SOL     OW39734  13.641   9.085  10.230
12634SOL    HW139735  13.728   9.066  10.263
12634SOL    HW239736  13.645   9.177  10.202
12635SOL     OW39737  11.988   6.779   3.548
12635SOL    HW139738  11.916   6.818   3.598
12635SOL    HW239739  11.948   6.705   3.502
12636SOL     OW39740   6.532   4.579   3.274
12636SOL    HW139741   6.441   4.550   3.275
12636SOL    HW239742   6.565   4.553   3.187
12637SOL     OW39743   4.664  14.571   2.018
12637SOL    HW139744   4.684  14.554   2.110
12637SOL    HW239745   4.737  14.533   1.970
12638SOL     OW39746   5.235   3.211  13.661
12638SOL    HW139747   5.279   3.237  13.579
12638SOL    HW239748   5.209   3.120  13.646
12639SOL     OW39749  11.792  14.872  10.923
12639SOL    HW139750  11.726   0.050  10.963
12639SOL    HW239751  11.759  14.856  10.834
12640SOL     OW39752   7.756   7.417   7.875
12640SOL    HW139753   7.843   7.443   7.905
12640SOL    HW239754   7.738   7.473   7.799
12641SOL     OW39755  11.562   0.983   4.919
12641SOL    HW139756  11.531   1.049   4.856
12641SOL    HW239757  11.483   0.955   4.964
12642SOL     OW39758  13.242  12.930   5.080
12642SOL    HW139759  13.331  12.911   5.048
12642SOL    HW239760  13.237  12.885   5.164
12643SOL     OW39761   2.259   7.317   7.063
12643SOL    HW139762   2.274   7.374   7.139
12643SOL    HW239763   2.300   7.363   6.990
12644SOL     OW39764   5.367  10.246   8.090
12644SOL    HW139765   5.325  10.184   8.149
12644SOL    HW239766   5.305  10.319   8.084
12645SOL     OW39767   9.862   4.145   7.747
12645SOL    HW139768   9.874   4.144   7.651
12645SOL    HW239769   9.778   4.188   7.760
12646SOL     OW39770  10.676  13.105   7.286
12646SOL    HW139771  10.683  13.019   7.244
12646SOL    HW239772  10.766  13.128   7.308
12647SOL     OW39773   5.959  13.700   8.661
12647SOL    HW139774   5.868  13.675   8.680
12647SOL    HW239775   6.010  13.664   8.733
12648SOL     OW39776   5.656  10.042   0.586
12648SOL    HW139777   5.566  10.059   0.616
12648SOL    HW239778   5.656  10.069   0.494
12649SOL     OW39779  13.648   2.555   6.033
12649SOL    HW139780  13.568   2.591   5.995
12649SOL    HW239781  13.620   2.473   6.074
12650SOL     OW39782   8.437   6.491   4.709
12650SOL    HW139783   8.486   6.519   4.632
12650SOL    HW239784   8.406   6.573   4.749
12651SOL     OW39785   1.371   3.019  10.088
12651SOL    HW139786   1.384   3.001  10.181
12651SOL    HW239787   1.290   2.971  10.066
12652SOL     OW39788   6.757   6.265   3.525
12652SOL    HW139789   6.765   6.332   3.594
12652SOL    HW239790   6.731   6.186   3.572
12653SOL     OW39791   7.615   5.705  11.832
12653SOL    HW139792   7.631   5.772  11.765
12653SOL    HW239793   7.590   5.755  11.909
12654SOL     OW39794   1.641   0.061   3.028
12654SOL    HW139795   1.628   0.142   2.979
12654SOL    HW239796   1.610   0.081   3.116
12655SOL     OW39797  11.334   8.436   3.380
12655SOL    HW139798  11.419   8.441   3.425
12655SOL    HW239799  11.326   8.520   3.335
12656SOL     OW39800   6.064   4.882  10.338
12656SOL    HW139801   6.023   4.823  10.274
12656SOL    HW239802   6.149   4.903  10.299
12657SOL     OW39803   6.266  13.448   9.969
12657SOL    HW139804   6.243  13.355   9.969
12657SOL    HW239805   6.270  13.471   9.877
12658SOL     OW39806  13.532  13.743   2.042
12658SOL    HW139807  13.616  13.700   2.028
12658SOL    HW239808  13.467  13.673   2.033
12659SOL     OW39809   1.492   2.670   0.476
12659SOL    HW139810   1.532   2.698   0.558
12659SOL    HW239811   1.484   2.750   0.424
12660SOL     OW39812   1.277   1.850   4.766
12660SOL    HW139813   1.348   1.804   4.811
12660SOL    HW239814   1.210   1.861   4.834
12661SOL     OW39815   1.733   1.408  13.877
12661SOL    HW139816   1.800   1.422  13.809
12661SOL    HW239817   1.766   1.336  13.929
12662SOL     OW39818  13.637   9.781  12.375
12662SOL    HW139819  13.598   9.716  12.317
12662SOL    HW239820  13.562   9.832  12.407
12663SOL     OW39821  10.898  10.064  11.916
12663SOL    HW139822  10.821  10.051  11.860
12663SOL    HW239823  10.895  10.156  11.939
12664SOL     OW39824   7.069   2.402   7.292
12664SOL    HW139825   6.996   2.463   7.293
12664SOL    HW239826   7.136   2.446   7.239
12665SOL     OW39827   8.241   6.116   3.575
12665SOL    HW139828   8.299   6.174   3.525
12665SOL    HW239829   8.268   6.028   3.550
12666SOL     OW39830  14.115   0.114  13.436
12666SOL    HW139831  14.116   0.125  13.341
12666SOL    HW239832  14.179   0.178  13.468
12667SOL     OW39833   5.299   1.625   3.390
12667SOL    HW139834   5.226   1.605   3.332
12667SOL    HW239835   5.349   1.543   3.395
12668SOL     OW39836   6.875  13.979   1.178
12668SOL    HW139837   6.819  13.912   1.217
12668SOL    HW239838   6.950  13.930   1.143
12669SOL     OW39839   1.683   5.147  12.979
12669SOL    HW139840   1.631   5.214  13.024
12669SOL    HW239841   1.656   5.153  12.887
12670SOL     OW39842  11.161  14.048  10.260
12670SOL    HW139843  11.149  13.983  10.329
12670SOL    HW239844  11.072  14.072  10.233
12671SOL     OW39845  12.345  13.273   6.242
12671SOL    HW139846  12.337  13.275   6.147
12671SOL    HW239847  12.256  13.257   6.273
12672SOL     OW39848  10.906   8.552   9.035
12672SOL    HW139849  10.907   8.597   8.950
12672SOL    HW239850  10.815   8.561   9.064
12673SOL     OW39851   3.844   7.559   8.263
12673SOL    HW139852   3.899   7.543   8.186
12673SOL    HW239853   3.819   7.472   8.294
12674SOL     OW39854   8.087   9.485   8.980
12674SOL    HW139855   8.029   9.561   8.978
12674SOL    HW239856   8.039   9.417   8.931
12675SOL     OW39857  13.926   2.405  14.413
12675SOL    HW139858  13.879   2.487  14.423
12675SOL    HW239859  13.886   2.346  14.477
12676SOL     OW39860  13.838   4.069  12.186
12676SOL    HW139861  13.794   3.995  12.228
12676SOL    HW239862  13.854   4.040  12.097
12677SOL     OW39863  13.354   9.732   0.211
12677SOL    HW139864  13.346   9.737   0.116
12677SOL    HW239865  13.391   9.645   0.227
12678SOL     OW39866   8.733   9.691   2.611
12678SOL    HW139867   8.685   9.632   2.553
12678SOL    HW239868   8.703   9.779   2.585
12679SOL     OW39869   6.618  11.481  10.011
12679SOL    HW139870   6.581  11.477  10.099
12679SOL    HW239871   6.548  11.520   9.958
12680SOL     OW39872   9.203   9.544   4.645
12680SOL    HW139873   9.122   9.576   4.607
12680SOL    HW239874   9.176   9.488   4.718
12681SOL     OW39875   9.670   2.526   0.203
12681SOL    HW139876   9.621   2.449   0.232
12681SOL    HW239877   9.762   2.503   0.217
12682SOL     OW39878   0.916   7.762   9.499
12682SOL    HW139879   0.906   7.744   9.593
12682SOL    HW239880   0.917   7.676   9.458
12683SOL     OW39881   6.791  14.254   5.759
12683SOL    HW139882   6.804  14.165   5.792
12683SOL    HW239883   6.834  14.310   5.823
12684SOL     OW39884  13.972   9.069   3.150
12684SOL    HW139885  13.955   9.071   3.244
12684SOL    HW239886  13.975   9.161   3.125
12685SOL     OW39887  13.850   3.980  11.898
12685SOL    HW139888  13.784   3.977  11.828
12685SOL    HW239889  13.882   3.890  11.904
12686SOL     OW39890   0.996   7.706   8.732
12686SOL    HW139891   0.962   7.781   8.779
12686SOL    HW239892   1.088   7.728   8.715
12687SOL     OW39893   9.781   0.455  11.121
12687SOL    HW139894   9.739   0.393  11.060
12687SOL    HW239895   9.869   0.468  11.084
12688SOL     OW39896  11.636   0.872   2.750
12688SOL    HW139897  11.707   0.843   2.807
12688SOL    HW239898  11.607   0.955   2.787
12689SOL     OW39899  12.730   5.234  11.972
12689SOL    HW139900  12.654   5.276  12.013
12689SOL    HW239901  12.764   5.300  11.911
12690SOL     OW39902   0.644   3.921   8.998
12690SOL    HW139903   0.631   3.920   8.903
12690SOL    HW239904   0.714   3.858   9.014
12691SOL     OW39905   0.258   5.629  10.710
12691SOL    HW139906   0.215   5.594  10.788
12691SOL    HW239907   0.332   5.570  10.696
12692SOL     OW39908   7.698   2.136  10.772
12692SOL    HW139909   7.605   2.152  10.758
12692SOL    HW239910   7.702   2.099  10.861
12693SOL     OW39911   9.881   1.463   0.812
12693SOL    HW139912   9.973   1.453   0.835
12693SOL    HW239913   9.836   1.392   0.858
12694SOL     OW39914   3.314   6.798   7.341
12694SOL    HW139915   3.292   6.754   7.259
12694SOL    HW239916   3.235   6.790   7.394
12695SOL     OW39917  12.448   1.923   1.567
12695SOL    HW139918  12.370   1.889   1.525
12695SOL    HW239919  12.439   1.899   1.659
12696SOL     OW39920   6.466   1.149   9.241
12696SOL    HW139921   6.493   1.213   9.175
12696SOL    HW239922   6.428   1.202   9.311
12697SOL     OW39923  12.578   4.055   1.871
12697SOL    HW139924  12.626   3.989   1.921
12697SOL    HW239925  12.547   4.117   1.937
12698SOL     OW39926   7.063  12.103   0.663
12698SOL    HW139927   6.985  12.050   0.649
12698SOL    HW239928   7.082  12.142   0.578
12699SOL     OW39929   3.641   8.456   1.645
12699SOL    HW139930   3.672   8.472   1.734
12699SOL    HW239931   3.554   8.498   1.642
12700SOL     OW39932   5.931   2.217   9.623
12700SOL    HW139933   6.015   2.254   9.597
12700SOL    HW239934   5.905   2.268   9.700
12701SOL     OW39935   0.589  12.381   9.089
12701SOL    HW139936   0.605  12.287   9.074
12701SOL    HW239937   0.671  12.413   9.126
12702SOL     OW39938  11.642   7.123   9.677
12702SOL    HW139939  11.688   7.203   9.652
12702SOL    HW239940  11.595   7.146   9.757
12703SOL     OW39941  12.181   2.147   8.158
12703SOL    HW139942  12.085   2.152   8.156
12703SOL    HW239943  12.209   2.190   8.077
12704SOL     OW39944  13.492   1.019   8.020
12704SOL    HW139945  13.483   0.924   8.024
12704SOL    HW239946  13.552   1.040   8.092
12705SOL     OW39947   3.458  11.036   0.290
12705SOL    HW139948   3.390  11.012   0.227
12705SOL    HW239949   3.422  11.111   0.337
12706SOL     OW39950  11.438   1.081   4.691
12706SOL    HW139951  11.503   1.131   4.643
12706SOL    HW239952  11.354   1.105   4.651
12707SOL     OW39953   6.552   1.964   1.302
12707SOL    HW139954   6.522   2.020   1.374
12707SOL    HW239955   6.629   1.919   1.336
12708SOL     OW39956   8.169  11.141   5.188
12708SOL    HW139957   8.099  11.091   5.145
12708SOL    HW239958   8.249  11.102   5.155
12709SOL     OW39959   1.074   9.261   5.383
12709SOL    HW139960   1.046   9.282   5.294
12709SOL    HW239961   1.055   9.168   5.393
12710SOL     OW39962   6.792   0.924   3.616
12710SOL    HW139963   6.763   0.836   3.640
12710SOL    HW239964   6.849   0.951   3.688
12711SOL     OW39965   1.596   8.170   8.659
12711SOL    HW139966   1.513   8.214   8.680
12711SOL    HW239967   1.621   8.126   8.740
12712SOL     OW39968   1.830   6.247  14.524
12712SOL    HW139969   1.829   6.339  14.498
12712SOL    HW239970   1.749   6.211  14.487
12713SOL     OW39971   1.588  11.199   3.116
12713SOL    HW139972   1.602  11.292   3.135
12713SOL    HW239973   1.505  11.178   3.160
12714SOL     OW39974   2.647  14.577  11.164
12714SOL    HW139975   2.585  14.540  11.227
12714SOL    HW239976   2.614  14.550  11.079
12715SOL     OW39977  13.505   6.628   2.484
12715SOL    HW139978  13.496   6.674   2.401
12715SOL    HW239979  13.540   6.542   2.460
12716SOL     OW39980   5.076  12.372  12.995
12716SOL    HW139981   5.085  12.380  12.901
12716SOL    HW239982   5.082  12.278  13.012
12717SOL     OW39983   5.963   1.081  12.465
12717SOL    HW139984   5.948   1.159  12.411
12717SOL    HW239985   5.953   1.112  12.555
12718SOL     OW39986  11.061   9.834  12.684
12718SOL    HW139987  11.038   9.844  12.776
12718SOL    HW239988  11.149   9.872  12.677
12719SOL     OW39989   8.295   2.610  11.901
12719SOL    HW139990   8.324   2.700  11.882
12719SOL    HW239991   8.354   2.580  11.970
12720SOL     OW39992  10.774   1.200   6.349
12720SOL    HW139993  10.743   1.287   6.372
12720SOL    HW239994  10.708   1.165   6.290
12721SOL     OW39995  13.733   9.586  11.929
12721SOL    HW139996  13.747   9.603  12.022
12721SOL    HW239997  13.663   9.646  11.905
12722SOL     OW39998  12.934   1.806   9.300
12722SOL    HW139999  12.961   1.897   9.285
12722SOL    HW240000  12.840   1.806   9.282
12723SOL     OW40001   0.698   1.256   7.062
12723SOL    HW140002   0.654   1.320   7.119
12723SOL    HW240003   0.791   1.272   7.076
12724SOL     OW40004   6.604   0.689   8.680
12724SOL    HW140005   6.697   0.701   8.662
12724SOL    HW240006   6.565   0.774   8.659
12725SOL     OW40007   3.123   1.326   9.189
12725SOL    HW140008   3.107   1.360   9.276
12725SOL    HW240009   3.211   1.288   9.194
12726SOL     OW40010   3.962   9.944   5.519
12726SOL    HW140011   3.900   9.879   5.552
12726SOL    HW240012   3.964  10.012   5.585
12727SOL     OW40013   7.451   1.125   9.453
12727SOL    HW140014   7.470   1.032   9.436
12727SOL    HW240015   7.382   1.147   9.391
12728SOL     OW40016  12.508   3.272  11.261
12728SOL    HW140017  12.508   3.312  11.174
12728SOL    HW240018  12.577   3.207  11.257
12729SOL     OW40019   3.405  10.305  11.961
12729SOL    HW140020   3.442  10.222  11.990
12729SOL    HW240021   3.336  10.324  12.024
12730SOL     OW40022   5.859   8.075   0.493
12730SOL    HW140023   5.821   8.134   0.428
12730SOL    HW240024   5.925   8.128   0.538
12731SOL     OW40025   1.452  14.813   6.760
12731SOL    HW140026   1.482  14.861   6.682
12731SOL    HW240027   1.476  14.870   6.833
12732SOL     OW40028  12.581  13.935  11.806
12732SOL    HW140029  12.584  13.841  11.825
12732SOL    HW240030  12.673  13.962  11.808
12733SOL     OW40031   9.635  10.713   5.448
12733SOL    HW140032   9.603  10.729   5.537
12733SOL    HW240033   9.726  10.685   5.461
12734SOL     OW40034   3.651   8.392   9.063
12734SOL    HW140035   3.573   8.343   9.089
12734SOL    HW240036   3.718   8.326   9.051
12735SOL     OW40037   5.385  10.057   5.724
12735SOL    HW140038   5.424  10.123   5.666
12735SOL    HW240039   5.293  10.082   5.731
12736SOL     OW40040   1.712   1.908   4.030
12736SOL    HW140041   1.641   1.944   3.978
12736SOL    HW240042   1.763   1.984   4.057
12737SOL     OW40043   2.254   5.296   2.246
12737SOL    HW140044   2.194   5.280   2.173
12737SOL    HW240045   2.340   5.270   2.212
12738SOL     OW40046   3.771  12.131   8.988
12738SOL    HW140047   3.710  12.205   8.983
12738SOL    HW240048   3.723  12.063   9.035
12739SOL     OW40049   3.219   1.745   6.133
12739SOL    HW140050   3.151   1.717   6.195
12739SOL    HW240051   3.205   1.839   6.123
12740SOL     OW40052   3.015   2.469  12.205
12740SOL    HW140053   3.061   2.463  12.288
12740SOL    HW240054   3.062   2.410  12.147
12741SOL     OW40055   7.102  14.426   9.671
12741SOL    HW140056   7.121  14.491   9.739
12741SOL    HW240057   7.185  14.417   9.624
12742SOL     OW40058  11.164   8.737   5.691
12742SOL    HW140059  11.119   8.718   5.609
12742SOL    HW240060  11.209   8.820   5.675
12743SOL     OW40061   4.399  13.448   2.581
12743SOL    HW140062   4.494  13.434   2.580
12743SOL    HW240063   4.365  13.384   2.518
12744SOL     OW40064  12.054   3.554   8.404
12744SOL    HW140065  11.987   3.546   8.336
12744SOL    HW240066  12.073   3.648   8.407
12745SOL     OW40067   3.124   7.965   8.167
12745SOL    HW140068   3.078   8.048   8.182
12745SOL    HW240069   3.216   7.989   8.162
12746SOL     OW40070   4.096  11.153  11.791
12746SOL    HW140071   4.041  11.216  11.838
12746SOL    HW240072   4.179  11.200  11.777
12747SOL     OW40073   4.129   4.990   0.109
12747SOL    HW140074   4.180   4.929   0.056
12747SOL    HW240075   4.195   5.047   0.149
12748SOL     OW40076   8.529  11.971   3.599
12748SOL    HW140077   8.471  12.001   3.529
12748SOL    HW240078   8.587  12.045   3.616
12749SOL     OW40079   6.117   3.191   0.131
12749SOL    HW140080   6.073   3.131   0.191
12749SOL    HW240081   6.144   3.265   0.185
12750SOL     OW40082   4.022  11.699   5.805
12750SOL    HW140083   4.053  11.626   5.859
12750SOL    HW240084   4.099  11.756   5.795
12751SOL     OW40085  11.074  10.803  13.940
12751SOL    HW140086  11.062  10.896  13.959
12751SOL    HW240087  11.046  10.793  13.849
12752SOL     OW40088   8.452   8.616  12.776
12752SOL    HW140089   8.391   8.581  12.710
12752SOL    HW240090   8.401   8.618  12.857
12753SOL     OW40091  14.265   9.780  10.285
12753SOL    HW140092  14.256   9.781  10.380
12753SOL    HW240093  14.357   9.759  10.270
12754SOL     OW40094  11.993   3.957   9.646
12754SOL    HW140095  11.973   4.027   9.709
12754SOL    HW240096  12.026   3.885   9.700
12755SOL     OW40097  10.602  14.301   3.084
12755SOL    HW140098  10.583  14.315   2.991
12755SOL    HW240099  10.697  14.287   3.087
12756SOL     OW40100   2.960   0.085  11.393
12756SOL    HW140101   2.866   0.091  11.373
12756SOL    HW240102   2.985   0.175  11.416
12757SOL     OW40103   1.351   8.912   8.145
12757SOL    HW140104   1.366   8.921   8.239
12757SOL    HW240105   1.397   8.833   8.120
12758SOL     OW40106   8.933   4.873   0.838
12758SOL    HW140107   8.942   4.924   0.757
12758SOL    HW240108   8.903   4.937   0.903
12759SOL     OW40109   0.678   1.039   1.502
12759SOL    HW140110   0.753   1.071   1.452
12759SOL    HW240111   0.658   0.954   1.464
12760SOL     OW40112  14.497   2.084  12.396
12760SOL    HW140113  14.481   2.063  12.304
12760SOL    HW240114  14.578   2.135  12.396
12761SOL     OW40115   4.057  10.545   4.219
12761SOL    HW140116   4.089  10.460   4.187
12761SOL    HW240117   4.137  10.590   4.249
12762SOL     OW40118  10.991  12.833   4.311
12762SOL    HW140119  11.059  12.874   4.258
12762SOL    HW240120  10.961  12.759   4.259
12763SOL     OW40121   1.380  11.239   0.036
12763SOL    HW140122   1.326  11.197  14.849
12763SOL    HW240123   1.421  11.312  14.869
12764SOL     OW40124  11.033  12.041   3.845
12764SOL    HW140125  11.068  12.109   3.787
12764SOL    HW240126  10.956  12.081   3.885
12765SOL     OW40127   3.694  11.141   4.272
12765SOL    HW140128   3.624  11.091   4.313
12765SOL    HW240129   3.690  11.116   4.179
12766SOL     OW40130   2.167   2.492   1.263
12766SOL    HW140131   2.249   2.527   1.299
12766SOL    HW240132   2.154   2.409   1.308
12767SOL     OW40133  12.269  13.321   1.743
12767SOL    HW140134  12.286  13.406   1.782
12767SOL    HW240135  12.346  13.303   1.689
12768SOL     OW40136  13.336  12.517  14.304
12768SOL    HW140137  13.349  12.548  14.214
12768SOL    HW240138  13.417  12.470  14.325
12769SOL     OW40139  12.511   8.020  12.323
12769SOL    HW140140  12.584   7.977  12.368
12769SOL    HW240141  12.548   8.101  12.288
12770SOL     OW40142   6.350  11.419   8.775
12770SOL    HW140143   6.292  11.486   8.740
12770SOL    HW240144   6.372  11.450   8.863
12771SOL     OW40145   1.145   0.935   5.890
12771SOL    HW140146   1.126   0.871   5.959
12771SOL    HW240147   1.133   0.886   5.808
12772SOL     OW40148  11.326   2.999   0.514
12772SOL    HW140149  11.382   2.922   0.511
12772SOL    HW240150  11.283   3.002   0.429
12773SOL     OW40151  10.666   6.813   1.209
12773SOL    HW140152  10.629   6.801   1.121
12773SOL    HW240153  10.630   6.740   1.260
12774SOL     OW40154   5.118  12.345   4.290
12774SOL    HW140155   5.092  12.416   4.349
12774SOL    HW240156   5.084  12.372   4.205
12775SOL     OW40157   7.442  11.859   1.981
12775SOL    HW140158   7.530  11.886   1.953
12775SOL    HW240159   7.419  11.786   1.922
12776SOL     OW40160  14.802   4.576   2.050
12776SOL    HW140161   0.012   4.572   2.085
12776SOL    HW240162  14.812   4.557   1.957
12777SOL     OW40163   7.295   4.420   5.238
12777SOL    HW140164   7.206   4.411   5.202
12777SOL    HW240165   7.290   4.497   5.294
12778SOL     OW40166  14.218   2.458   9.983
12778SOL    HW140167  14.188   2.368   9.987
12778SOL    HW240168  14.308   2.452   9.949
12779SOL     OW40169   2.164   4.670   2.321
12779SOL    HW140170   2.205   4.613   2.256
12779SOL    HW240171   2.171   4.758   2.283
12780SOL     OW40172   2.163   6.664   3.677
12780SOL    HW140173   2.247   6.646   3.720
12780SOL    HW240174   2.160   6.759   3.669
12781SOL     OW40175   6.329  14.136   9.546
12781SOL    HW140176   6.334  14.230   9.563
12781SOL    HW240177   6.240  14.112   9.573
12782SOL     OW40178   5.560   0.070   6.734
12782SOL    HW140179   5.530   0.122   6.661
12782SOL    HW240180   5.656   0.070   6.726
12783SOL     OW40181  14.148   1.173   4.580
12783SOL    HW140182  14.207   1.111   4.536
12783SOL    HW240183  14.196   1.200   4.658
12784SOL     OW40184  12.312   8.477  11.302
12784SOL    HW140185  12.265   8.510  11.379
12784SOL    HW240186  12.337   8.555  11.254
12785SOL     OW40187  13.359   5.799  10.841
12785SOL    HW140188  13.446   5.804  10.801
12785SOL    HW240189  13.334   5.707  10.833
12786SOL     OW40190  14.197   3.868  13.110
12786SOL    HW140191  14.165   3.875  13.020
12786SOL    HW240192  14.195   3.774  13.129
12787SOL     OW40193   4.206   6.401   8.440
12787SOL    HW140194   4.204   6.475   8.379
12787SOL    HW240195   4.125   6.408   8.489
12788SOL     OW40196   4.455  12.299   6.466
12788SOL    HW140197   4.425  12.264   6.549
12788SOL    HW240198   4.383  12.282   6.405
12789SOL     OW40199   0.153  10.509  10.900
12789SOL    HW140200   0.204  10.447  10.952
12789SOL    HW240201   0.170  10.594  10.941
12790SOL     OW40202   7.005   6.372   9.610
12790SOL    HW140203   6.999   6.277   9.606
12790SOL    HW240204   6.944   6.403   9.542
12791SOL     OW40205   9.539   6.870  13.388
12791SOL    HW140206   9.474   6.938  13.401
12791SOL    HW240207   9.499   6.810  13.325
12792SOL     OW40208   1.097   2.655   1.355
12792SOL    HW140209   1.170   2.687   1.408
12792SOL    HW240210   1.138   2.594   1.294
12793SOL     OW40211   5.102   2.596  13.119
12793SOL    HW140212   5.106   2.692  13.112
12793SOL    HW240213   5.011   2.575  13.100
12794SOL     OW40214   9.942  11.488   1.402
12794SOL    HW140215   9.890  11.485   1.482
12794SOL    HW240216   9.900  11.424   1.344
12795SOL     OW40217   7.245   8.185  13.353
12795SOL    HW140218   7.265   8.278  13.363
12795SOL    HW240219   7.312   8.153  13.293
12796SOL     OW40220  10.462   6.782  11.393
12796SOL    HW140221  10.393   6.813  11.335
12796SOL    HW240222  10.416   6.748  11.470
12797SOL     OW40223   1.206   4.413   1.450
12797SOL    HW140224   1.254   4.491   1.423
12797SOL    HW240225   1.154   4.442   1.525
12798SOL     OW40226   2.348   0.306  12.707
12798SOL    HW140227   2.268   0.356  12.690
12798SOL    HW240228   2.374   0.333  12.796
12799SOL     OW40229   0.629  12.839  12.638
12799SOL    HW140230   0.647  12.839  12.733
12799SOL    HW240231   0.670  12.919  12.606
12800SOL     OW40232   2.222   2.596   2.164
12800SOL    HW140233   2.316   2.599   2.179
12800SOL    HW240234   2.206   2.661   2.096
12801SOL     OW40235   3.790   2.769   4.643
12801SOL    HW140236   3.725   2.745   4.577
12801SOL    HW240237   3.749   2.839   4.693
12802SOL     OW40238   6.295  14.261   3.396
12802SOL    HW140239   6.339  14.333   3.350
12802SOL    HW240240   6.328  14.266   3.486
12803SOL     OW40241   5.249  14.488   3.241
12803SOL    HW140242   5.225  14.581   3.243
12803SOL    HW240243   5.315  14.481   3.172
12804SOL     OW40244  14.246   8.298  14.590
12804SOL    HW140245  14.193   8.330  14.663
12804SOL    HW240246  14.313   8.243  14.630
12805SOL     OW40247   6.725   5.235   2.028
12805SOL    HW140248   6.703   5.318   1.986
12805SOL    HW240249   6.704   5.168   1.963
12806SOL     OW40250  13.365   6.458   5.912
12806SOL    HW140251  13.278   6.460   5.872
12806SOL    HW240252  13.424   6.486   5.842
12807SOL     OW40253   9.121   5.902   4.527
12807SOL    HW140254   9.102   5.882   4.435
12807SOL    HW240255   9.048   5.957   4.556
12808SOL     OW40256  11.905   0.013  10.479
12808SOL    HW140257  11.828   0.008  10.537
12808SOL    HW240258  11.959  14.818  10.506
12809SOL     OW40259   4.592   6.094  12.293
12809SOL    HW140260   4.497   6.088  12.297
12809SOL    HW240261   4.618   6.022  12.236
12810SOL     OW40262   3.134  10.884  14.038
12810SOL    HW140263   3.124  10.909  13.946
12810SOL    HW240264   3.150  10.967  14.083
12811SOL     OW40265  10.751   7.448   7.760
12811SOL    HW140266  10.841   7.417   7.767
12811SOL    HW240267  10.710   7.421   7.842
12812SOL     OW40268   7.112   0.163   1.282
12812SOL    HW140269   7.184   0.105   1.306
12812SOL    HW240270   7.037   0.104   1.271
12813SOL     OW40271   1.431   7.943  10.897
12813SOL    HW140272   1.463   7.968  10.984
12813SOL    HW240273   1.391   8.023  10.863
12814SOL     OW40274   5.758   1.354   6.769
12814SOL    HW140275   5.743   1.265   6.737
12814SOL    HW240276   5.850   1.355   6.797
12815SOL     OW40277   4.640   4.799   6.530
12815SOL    HW140278   4.557   4.774   6.571
12815SOL    HW240279   4.688   4.717   6.521
12816SOL     OW40280   1.587   9.576   8.056
12816SOL    HW140281   1.596   9.669   8.077
12816SOL    HW240282   1.517   9.573   7.991
12817SOL     OW40283   6.924   6.418   4.702
12817SOL    HW140284   6.956   6.383   4.619
12817SOL    HW240285   6.880   6.499   4.678
12818SOL     OW40286   6.230   6.988   5.896
12818SOL    HW140287   6.286   6.912   5.910
12818SOL    HW240288   6.273   7.037   5.826
12819SOL     OW40289   6.073   0.470  14.142
12819SOL    HW140290   6.104   0.504  14.058
12819SOL    HW240291   6.145   0.416  14.174
12820SOL     OW40292   5.474   5.158   5.437
12820SOL    HW140293   5.487   5.064   5.428
12820SOL    HW240294   5.388   5.167   5.478
12821SOL     OW40295   8.831  11.152   4.845
12821SOL    HW140296   8.826  11.089   4.773
12821SOL    HW240297   8.795  11.106   4.920
12822SOL     OW40298   6.108   5.177   8.367
12822SOL    HW140299   6.066   5.121   8.301
12822SOL    HW240300   6.192   5.200   8.329
12823SOL     OW40301   0.593  12.923   3.466
12823SOL    HW140302   0.544  13.002   3.443
12823SOL    HW240303   0.684  12.944   3.442
12824SOL     OW40304   1.673   5.381  13.695
12824SOL    HW140305   1.686   5.363  13.788
12824SOL    HW240306   1.581   5.359  13.680
12825SOL     OW40307   9.888  14.133  13.877
12825SOL    HW140308   9.893  14.166  13.787
12825SOL    HW240309   9.907  14.209  13.932
12826SOL     OW40310  12.330   2.573  11.846
12826SOL    HW140311  12.333   2.494  11.791
12826SOL    HW240312  12.241   2.606  11.835
12827SOL     OW40313   1.950   5.569  12.106
12827SOL    HW140314   1.940   5.527  12.020
12827SOL    HW240315   1.862   5.568  12.143
12828SOL     OW40316  14.154  12.959   2.552
12828SOL    HW140317  14.245  12.957   2.524
12828SOL    HW240318  14.112  12.888   2.503
12829SOL     OW40319   2.294   6.401  12.101
12829SOL    HW140320   2.306   6.307  12.091
12829SOL    HW240321   2.383   6.436  12.106
12830SOL     OW40322   0.462   4.140  13.076
12830SOL    HW140323   0.501   4.068  13.028
12830SOL    HW240324   0.379   4.158  13.031
12831SOL     OW40325   0.303   7.912   5.148
12831SOL    HW140326   0.293   7.822   5.181
12831SOL    HW240327   0.234   7.961   5.193
12832SOL     OW40328   8.746   2.449   5.622
12832SOL    HW140329   8.787   2.389   5.559
12832SOL    HW240330   8.669   2.483   5.576
12833SOL     OW40331  10.914   9.984   3.275
12833SOL    HW140332  10.942   9.924   3.344
12833SOL    HW240333  10.978   9.972   3.205
12834SOL     OW40334  12.883  13.970   3.614
12834SOL    HW140335  12.976  13.975   3.635
12834SOL    HW240336  12.850  14.059   3.627
12835SOL     OW40337   2.962   5.442  14.343
12835SOL    HW140338   2.921   5.362  14.309
12835SOL    HW240339   3.055   5.419  14.351
12836SOL     OW40340  14.275   9.140   1.760
12836SOL    HW140341  14.322   9.219   1.734
12836SOL    HW240342  14.311   9.118   1.846
12837SOL     OW40343   3.044   5.014   4.565
12837SOL    HW140344   3.133   4.990   4.590
12837SOL    HW240345   3.055   5.082   4.499
12838SOL     OW40346   3.110   3.309  14.136
12838SOL    HW140347   3.116   3.333  14.044
12838SOL    HW240348   3.038   3.361  14.171
12839SOL     OW40349  13.451   8.372  13.764
12839SOL    HW140350  13.521   8.435  13.747
12839SOL    HW240351  13.465   8.344  13.854
12840SOL     OW40352  13.062   8.598   5.648
12840SOL    HW140353  13.071   8.687   5.614
12840SOL    HW240354  13.002   8.555   5.587
12841SOL     OW40355   3.880   8.977   3.996
12841SOL    HW140356   3.973   8.957   4.001
12841SOL    HW240357   3.863   9.034   4.071
12842SOL     OW40358   5.833   8.965   4.495
12842SOL    HW140359   5.904   8.951   4.433
12842SOL    HW240360   5.857   8.911   4.570
12843SOL     OW40361   0.284   6.648   9.261
12843SOL    HW140362   0.245   6.612   9.182
12843SOL    HW240363   0.278   6.577   9.325
12844SOL     OW40364  12.997   8.319   9.493
12844SOL    HW140365  13.090   8.311   9.514
12844SOL    HW240366  12.977   8.411   9.507
12845SOL     OW40367  10.714  10.450   3.682
12845SOL    HW140368  10.641  10.406   3.725
12845SOL    HW240369  10.775  10.380   3.661
12846SOL     OW40370  13.832  12.096   9.720
12846SOL    HW140371  13.793  12.183   9.731
12846SOL    HW240372  13.872  12.076   9.805
12847SOL     OW40373   4.998  14.097   9.685
12847SOL    HW140374   4.968  14.168   9.742
12847SOL    HW240375   4.934  14.027   9.698
12848SOL     OW40376  12.982   5.536  11.961
12848SOL    HW140377  12.890   5.506  11.962
12848SOL    HW240378  12.983   5.606  11.896
12849SOL     OW40379  14.177   6.152   2.743
12849SOL    HW140380  14.145   6.076   2.693
12849SOL    HW240381  14.151   6.134   2.833
12850SOL     OW40382  12.476  10.716   4.319
12850SOL    HW140383  12.559  10.725   4.366
12850SOL    HW240384  12.411  10.755   4.377
12851SOL     OW40385   9.025   3.311   6.640
12851SOL    HW140386   9.082   3.348   6.573
12851SOL    HW240387   9.082   3.256   6.693
12852SOL     OW40388  11.629   4.229  12.220
12852SOL    HW140389  11.636   4.165  12.149
12852SOL    HW240390  11.536   4.231  12.243
12853SOL     OW40391   3.276  11.317  14.105
12853SOL    HW140392   3.338  11.387  14.126
12853SOL    HW240393   3.190  11.357  14.120
12854SOL     OW40394   2.093   1.351  13.436
12854SOL    HW140395   2.051   1.273  13.399
12854SOL    HW240396   2.182   1.324  13.457
12855SOL     OW40397  13.676  12.138  10.273
12855SOL    HW140398  13.654  12.228  10.295
12855SOL    HW240399  13.705  12.142  10.182
12856SOL     OW40400   3.681   7.020  14.449
12856SOL    HW140401   3.763   7.009  14.497
12856SOL    HW240402   3.627   6.946  14.475
12857SOL     OW40403   3.648   3.332  12.269
12857SOL    HW140404   3.717   3.391  12.238
12857SOL    HW240405   3.602   3.383  12.336
12858SOL     OW40406   6.710   8.616   4.153
12858SOL    HW140407   6.800   8.597   4.177
12858SOL    HW240408   6.676   8.666   4.228
12859SOL     OW40409  10.310  13.456  11.887
12859SOL    HW140410  10.241  13.523  11.884
12859SOL    HW240411  10.390  13.506  11.905
12860SOL     OW40412   7.843   8.761   2.768
12860SOL    HW140413   7.787   8.838   2.756
12860SOL    HW240414   7.837   8.714   2.685
12861SOL     OW40415   4.319   9.373   5.318
12861SOL    HW140416   4.392   9.312   5.328
12861SOL    HW240417   4.353   9.442   5.261
12862SOL     OW40418   6.748  12.387  14.241
12862SOL    HW140419   6.714  12.441  14.313
12862SOL    HW240420   6.715  12.429  14.162
12863SOL     OW40421  13.449   1.300  13.452
12863SOL    HW140422  13.388   1.353  13.400
12863SOL    HW240423  13.398   1.224  13.479
12864SOL     OW40424   3.245   0.619   5.688
12864SOL    HW140425   3.239   0.712   5.709
12864SOL    HW240426   3.160   0.597   5.650
12865SOL     OW40427  10.757   8.872  12.996
12865SOL    HW140428  10.764   8.885  12.901
12865SOL    HW240429  10.703   8.793  13.005
12866SOL     OW40430   1.529  12.849   8.934
12866SOL    HW140431   1.451  12.860   8.881
12866SOL    HW240432   1.578  12.778   8.892
12867SOL     OW40433   9.770   3.074  12.747
12867SOL    HW140434   9.721   3.154  12.726
12867SOL    HW240435   9.724   3.036  12.821
12868SOL     OW40436  12.637   2.123   9.698
12868SOL    HW140437  12.638   2.202   9.751
12868SOL    HW240438  12.627   2.155   9.608
12869SOL     OW40439   5.980  12.554  13.343
12869SOL    HW140440   5.945  12.627  13.292
12869SOL    HW240441   5.995  12.485  13.278
12870SOL     OW40442   2.536   7.670  14.242
12870SOL    HW140443   2.475   7.696  14.312
12870SOL    HW240444   2.479   7.643  14.170
12871SOL     OW40445   5.558   4.928  11.632
12871SOL    HW140446   5.483   4.874  11.607
12871SOL    HW240447   5.624   4.909  11.566
12872SOL     OW40448  10.307  13.107  12.662
12872SOL    HW140449  10.255  13.131  12.739
12872SOL    HW240450  10.292  13.178  12.600
12873SOL     OW40451   1.281  12.343   1.655
12873SOL    HW140452   1.234  12.427   1.653
12873SOL    HW240453   1.368  12.364   1.622
12874SOL     OW40454   4.012   1.280   2.860
12874SOL    HW140455   4.052   1.360   2.826
12874SOL    HW240456   3.947   1.311   2.923
12875SOL     OW40457  13.092   3.123   9.803
12875SOL    HW140458  13.138   3.042   9.781
12875SOL    HW240459  13.162   3.184   9.829
12876SOL     OW40460  13.102   0.301   5.789
12876SOL    HW140461  13.017   0.277   5.753
12876SOL    HW240462  13.145   0.218   5.809
12877SOL     OW40463  10.346   1.410   5.498
12877SOL    HW140464  10.376   1.325   5.529
12877SOL    HW240465  10.389   1.422   5.414
12878SOL     OW40466  11.345  12.014  12.176
12878SOL    HW140467  11.296  12.096  12.179
12878SOL    HW240468  11.425  12.031  12.225
12879SOL     OW40469  11.505  13.517   9.837
12879SOL    HW140470  11.452  13.467   9.775
12879SOL    HW240471  11.501  13.607   9.806
12880SOL     OW40472   9.711  14.249   0.675
12880SOL    HW140473   9.638  14.191   0.658
12880SOL    HW240474   9.789  14.197   0.654
12881SOL     OW40475   0.573   9.186   1.779
12881SOL    HW140476   0.654   9.138   1.792
12881SOL    HW240477   0.596   9.277   1.797
12882SOL     OW40478  10.769   2.745   7.787
12882SOL    HW140479  10.833   2.750   7.716
12882SOL    HW240480  10.821   2.723   7.864
12883SOL     OW40481   5.352   9.620   6.109
12883SOL    HW140482   5.351   9.695   6.169
12883SOL    HW240483   5.439   9.621   6.070
12884SOL     OW40484  14.098  13.064   1.597
12884SOL    HW140485  14.098  12.994   1.532
12884SOL    HW240486  14.144  13.137   1.554
12885SOL     OW40487  11.057  11.547  10.439
12885SOL    HW140488  11.144  11.580  10.460
12885SOL    HW240489  11.048  11.560  10.345
12886SOL     OW40490   3.459   7.829   3.945
12886SOL    HW140491   3.394   7.845   4.014
12886SOL    HW240492   3.463   7.733   3.939
12887SOL     OW40493   7.422   7.778  11.526
12887SOL    HW140494   7.345   7.725  11.546
12887SOL    HW240495   7.423   7.783  11.430
12888SOL     OW40496  14.753   6.113  12.042
12888SOL    HW140497  14.729   6.180  12.106
12888SOL    HW240498  14.773   6.035  12.095
12889SOL     OW40499  10.349  14.582   7.846
12889SOL    HW140500  10.417  14.546   7.790
12889SOL    HW240501  10.349  14.676   7.828
12890SOL     OW40502   2.010   9.301   4.794
12890SOL    HW140503   1.919   9.289   4.821
12890SOL    HW240504   2.005   9.331   4.703
12891SOL     OW40505   0.834  13.788   8.039
12891SOL    HW140506   0.916  13.764   7.996
12891SOL    HW240507   0.770  13.724   8.008
12892SOL     OW40508   8.189   5.484  10.482
12892SOL    HW140509   8.238   5.425  10.424
12892SOL    HW240510   8.211   5.455  10.570
12893SOL     OW40511   5.231  14.219   0.623
12893SOL    HW140512   5.277  14.148   0.576
12893SOL    HW240513   5.271  14.299   0.590
12894SOL     OW40514   5.884   9.698   4.341
12894SOL    HW140515   5.946   9.666   4.275
12894SOL    HW240516   5.845   9.619   4.377
12895SOL     OW40517  12.174   7.717   2.352
12895SOL    HW140518  12.227   7.653   2.399
12895SOL    HW240519  12.107   7.665   2.307
12896SOL     OW40520   0.030  11.745   1.587
12896SOL    HW140521   0.011  11.686   1.659
12896SOL    HW240522  14.863  11.826   1.609
12897SOL     OW40523   0.160  12.274   1.343
12897SOL    HW140524   0.156  12.178   1.342
12897SOL    HW240525   0.198  12.295   1.428
12898SOL     OW40526  11.367   3.823   2.750
12898SOL    HW140527  11.339   3.837   2.660
12898SOL    HW240528  11.392   3.910   2.781
12899SOL     OW40529  12.517   7.673   5.780
12899SOL    HW140530  12.560   7.737   5.724
12899SOL    HW240531  12.444   7.720   5.819
12900SOL     OW40532   4.565  13.306   8.522
12900SOL    HW140533   4.579  13.220   8.485
12900SOL    HW240534   4.473  13.326   8.505
12901SOL     OW40535  13.251   0.374   9.139
12901SOL    HW140536  13.174   0.374   9.082
12901SOL    HW240537  13.281   0.283   9.139
12902SOL     OW40538   1.857   3.950   6.331
12902SOL    HW140539   1.820   3.977   6.247
12902SOL    HW240540   1.798   3.986   6.397
12903SOL     OW40541  11.749   2.489  14.375
12903SOL    HW140542  11.737   2.524  14.286
12903SOL    HW240543  11.839   2.511  14.397
12904SOL     OW40544   1.527   4.654   3.441
12904SOL    HW140545   1.537   4.729   3.383
12904SOL    HW240546   1.433   4.652   3.462
12905SOL     OW40547  14.441  12.278  13.717
12905SOL    HW140548  14.440  12.373  13.726
12905SOL    HW240549  14.375  12.259  13.651
12906SOL     OW40550   5.490   7.898   2.664
12906SOL    HW140551   5.540   7.848   2.600
12906SOL    HW240552   5.430   7.951   2.612
12907SOL     OW40553  13.896   0.016  11.971
12907SOL    HW140554  13.835   0.089  11.968
12907SOL    HW240555  13.916   0.006  12.064
12908SOL     OW40556   9.145  13.618   6.874
12908SOL    HW140557   9.203  13.568   6.931
12908SOL    HW240558   9.196  13.695   6.848
12909SOL     OW40559   0.012   0.372   7.777
12909SOL    HW140560   0.001   0.291   7.826
12909SOL    HW240561  14.802   0.403   7.761
12910SOL     OW40562  12.711  10.680   8.570
12910SOL    HW140563  12.630  10.652   8.528
12910SOL    HW240564  12.776  10.616   8.540
12911SOL     OW40565   3.807   4.781   5.114
12911SOL    HW140566   3.789   4.743   5.028
12911SOL    HW240567   3.740   4.745   5.172
12912SOL     OW40568   0.903   5.781  11.865
12912SOL    HW140569   0.940   5.858  11.822
12912SOL    HW240570   0.925   5.792  11.957
12913SOL     OW40571   1.544   1.449  14.303
12913SOL    HW140572   1.629   1.416  14.332
12913SOL    HW240573   1.561   1.539  14.276
12914SOL     OW40574   7.823   4.330   2.777
12914SOL    HW140575   7.754   4.265   2.791
12914SOL    HW240576   7.875   4.328   2.857
12915SOL     OW40577  10.417   9.244   0.597
12915SOL    HW140578  10.400   9.203   0.681
12915SOL    HW240579  10.498   9.294   0.611
12916SOL     OW40580   1.311  12.454  13.832
12916SOL    HW140581   1.362  12.529  13.862
12916SOL    HW240582   1.226  12.465  13.876
12917SOL     OW40583   6.227   7.669   2.964
12917SOL    HW140584   6.269   7.625   2.889
12917SOL    HW240585   6.198   7.597   3.020
12918SOL     OW40586   1.859   5.353   5.061
12918SOL    HW140587   1.919   5.391   4.996
12918SOL    HW240588   1.825   5.275   5.018
12919SOL     OW40589   4.369  10.857   3.060
12919SOL    HW140590   4.315  10.935   3.045
12919SOL    HW240591   4.442  10.867   2.999
12920SOL     OW40592   2.867   5.243   9.342
12920SOL    HW140593   2.778   5.210   9.332
12920SOL    HW240594   2.874   5.264   9.435
12921SOL     OW40595   6.344  14.217   8.588
12921SOL    HW140596   6.385  14.302   8.606
12921SOL    HW240597   6.332  14.216   8.494
12922SOL     OW40598   8.159   8.588   8.326
12922SOL    HW140599   8.090   8.534   8.289
12922SOL    HW240600   8.225   8.593   8.256
12923SOL     OW40601   7.861   2.929  10.296
12923SOL    HW140602   7.881   2.854  10.352
12923SOL    HW240603   7.813   2.892  10.223
12924SOL     OW40604   4.200   2.154   0.793
12924SOL    HW140605   4.285   2.130   0.829
12924SOL    HW240606   4.209   2.139   0.699
12925SOL     OW40607   0.048   6.884   1.288
12925SOL    HW140608   0.130   6.929   1.309
12925SOL    HW240609   0.005   6.940   1.223
12926SOL     OW40610   1.398   3.041   5.718
12926SOL    HW140611   1.424   2.992   5.796
12926SOL    HW240612   1.303   3.040   5.719
12927SOL     OW40613  11.318   8.128   5.420
12927SOL    HW140614  11.314   8.036   5.395
12927SOL    HW240615  11.409   8.154   5.401
12928SOL     OW40616   4.235   4.494  10.829
12928SOL    HW140617   4.186   4.559  10.879
12928SOL    HW240618   4.298   4.458  10.892
12929SOL     OW40619   6.381   2.472   9.225
12929SOL    HW140620   6.393   2.395   9.170
12929SOL    HW240621   6.463   2.479   9.274
12930SOL     OW40622  13.411   3.846   1.994
12930SOL    HW140623  13.505   3.835   1.979
12930SOL    HW240624  13.403   3.857   2.088
12931SOL     OW40625  11.862   9.625  14.300
12931SOL    HW140626  11.956   9.633  14.316
12931SOL    HW240627  11.827   9.593  14.382
12932SOL     OW40628   4.638   7.529   2.777
12932SOL    HW140629   4.653   7.573   2.861
12932SOL    HW240630   4.725   7.497   2.752
12933SOL     OW40631   9.527   0.634  12.380
12933SOL    HW140632   9.488   0.599  12.460
12933SOL    HW240633   9.453   0.670  12.331
12934SOL     OW40634   5.027  10.050  13.428
12934SOL    HW140635   4.956   9.986  13.431
12934SOL    HW240636   5.095  10.008  13.376
12935SOL     OW40637   4.802  13.704   7.109
12935SOL    HW140638   4.811  13.745   7.024
12935SOL    HW240639   4.817  13.775   7.172
12936SOL     OW40640   0.319   7.422   3.957
12936SOL    HW140641   0.287   7.360   3.892
12936SOL    HW240642   0.349   7.367   4.030
12937SOL     OW40643   7.081   1.917   6.921
12937SOL    HW140644   7.050   1.891   7.007
12937SOL    HW240645   7.070   1.839   6.866
12938SOL     OW40646   6.341  14.375   0.794
12938SOL    HW140647   6.315  14.345   0.708
12938SOL    HW240648   6.276  14.338   0.854
12939SOL     OW40649   7.232   7.463   6.505
12939SOL    HW140650   7.270   7.399   6.445
12939SOL    HW240651   7.279   7.544   6.487
12940SOL     OW40652   9.063   5.565   8.631
12940SOL    HW140653   9.144   5.603   8.665
12940SOL    HW240654   9.010   5.640   8.604
12941SOL     OW40655   2.207   2.695   7.451
12941SOL    HW140656   2.221   2.746   7.371
12941SOL    HW240657   2.228   2.756   7.522
12942SOL     OW40658  12.354  10.498  14.711
12942SOL    HW140659  12.304  10.435  14.660
12942SOL    HW240660  12.441  10.460  14.720
12943SOL     OW40661  13.051   0.828  12.257
12943SOL    HW140662  12.968   0.855  12.218
12943SOL    HW240663  13.100   0.910  12.265
12944SOL     OW40664   1.268   0.908   8.564
12944SOL    HW140665   1.177   0.890   8.587
12944SOL    HW240666   1.306   0.822   8.546
12945SOL     OW40667  12.746  10.002  12.877
12945SOL    HW140668  12.669   9.954  12.910
12945SOL    HW240669  12.786  10.041  12.954
12946SOL     OW40670   1.944  11.111  12.838
12946SOL    HW140671   2.020  11.169  12.846
12946SOL    HW240672   1.876  11.155  12.889
12947SOL     OW40673   6.286   4.167   0.653
12947SOL    HW140674   6.228   4.242   0.644
12947SOL    HW240675   6.345   4.190   0.725
12948SOL     OW40676   6.645   6.721  13.490
12948SOL    HW140677   6.736   6.700  13.514
12948SOL    HW240678   6.635   6.684  13.403
12949SOL     OW40679   7.669   3.885  12.965
12949SOL    HW140680   7.723   3.881  12.887
12949SOL    HW240681   7.622   3.802  12.966
12950SOL     OW40682   2.901   8.245   0.845
12950SOL    HW140683   2.841   8.254   0.919
12950SOL    HW240684   2.972   8.190   0.878
12951SOL     OW40685  12.270   5.757   1.586
12951SOL    HW140686  12.354   5.733   1.548
12951SOL    HW240687  12.281   5.847   1.615
12952SOL     OW40688  12.834  10.221   1.830
12952SOL    HW140689  12.794  10.144   1.871
12952SOL    HW240690  12.762  10.264   1.784
12953SOL     OW40691   9.663  13.505  11.910
12953SOL    HW140692   9.662  13.418  11.871
12953SOL    HW240693   9.571  13.528  11.920
12954SOL     OW40694   2.154  13.152   8.265
12954SOL    HW140695   2.215  13.220   8.235
12954SOL    HW240696   2.177  13.137   8.357
12955SOL     OW40697  11.843   2.749   4.791
12955SOL    HW140698  11.776   2.762   4.858
12955SOL    HW240699  11.804   2.783   4.711
12956SOL     OW40700   8.599  10.099  14.715
12956SOL    HW140701   8.515  10.131  14.682
12956SOL    HW240702   8.607  10.138  14.802
12957SOL     OW40703   7.776  13.475   7.727
12957SOL    HW140704   7.771  13.503   7.636
12957SOL    HW240705   7.866  13.443   7.737
12958SOL     OW40706   5.484  11.763   1.374
12958SOL    HW140707   5.457  11.763   1.466
12958SOL    HW240708   5.405  11.734   1.327
12959SOL     OW40709   3.166  11.083   6.865
12959SOL    HW140710   3.089  11.133   6.840
12959SOL    HW240711   3.182  11.025   6.791
12960SOL     OW40712  13.946   7.317   7.613
12960SOL    HW140713  14.004   7.246   7.587
12960SOL    HW240714  13.883   7.325   7.541
12961SOL     OW40715   4.127  12.046   5.883
12961SOL    HW140716   4.188  12.015   5.815
12961SOL    HW240717   4.179  12.045   5.964
12962SOL     OW40718  13.830  13.282   1.146
12962SOL    HW140719  13.779  13.331   1.211
12962SOL    HW240720  13.789  13.304   1.063
12963SOL     OW40721   0.162   9.272   7.836
12963SOL    HW140722   0.137   9.349   7.889
12963SOL    HW240723   0.112   9.200   7.874
12964SOL     OW40724  11.665   5.406   9.891
12964SOL    HW140725  11.753   5.369   9.885
12964SOL    HW240726  11.679   5.499   9.909
12965SOL     OW40727   4.609   4.214   0.967
12965SOL    HW140728   4.561   4.294   0.989
12965SOL    HW240729   4.544   4.158   0.925
12966SOL     OW40730   1.711   5.436   1.522
12966SOL    HW140731   1.710   5.417   1.428
12966SOL    HW240732   1.697   5.530   1.528
12967SOL     OW40733   6.334   1.548  13.828
12967SOL    HW140734   6.345   1.586  13.741
12967SOL    HW240735   6.414   1.569  13.875
12968SOL     OW40736   2.689   4.016  13.632
12968SOL    HW140737   2.615   4.012  13.572
12968SOL    HW240738   2.650   4.040  13.717
12969SOL     OW40739  14.825   5.036   7.540
12969SOL    HW140740  14.803   5.127   7.524
12969SOL    HW240741   0.040   5.031   7.525
12970SOL     OW40742   5.846   2.897  13.939
12970SOL    HW140743   5.909   2.825  13.947
12970SOL    HW240744   5.761   2.856  13.954
12971SOL     OW40745   4.623   0.249   5.733
12971SOL    HW140746   4.581   0.183   5.788
12971SOL    HW240747   4.569   0.327   5.744
12972SOL     OW40748   3.656   2.942   3.019
12972SOL    HW140749   3.576   2.965   3.066
12972SOL    HW240750   3.629   2.876   2.955
12973SOL     OW40751   4.356   5.647   7.056
12973SOL    HW140752   4.363   5.667   7.150
12973SOL    HW240753   4.443   5.667   7.021
12974SOL     OW40754   9.442  14.043   4.866
12974SOL    HW140755   9.447  14.093   4.948
12974SOL    HW240756   9.352  14.011   4.863
12975SOL     OW40757  14.474   2.097   3.455
12975SOL    HW140758  14.406   2.078   3.391
12975SOL    HW240759  14.514   2.178   3.424
12976SOL     OW40760   9.639   5.736  11.253
12976SOL    HW140761   9.595   5.673  11.311
12976SOL    HW240762   9.682   5.797  11.313
12977SOL     OW40763   9.829   0.808   8.958
12977SOL    HW140764   9.802   0.870   8.890
12977SOL    HW240765   9.831   0.723   8.915
12978SOL     OW40766   1.592  13.853   3.750
12978SOL    HW140767   1.501  13.884   3.752
12978SOL    HW240768   1.588  13.771   3.700
12979SOL     OW40769  10.809   8.902   1.092
12979SOL    HW140770  10.736   8.917   1.032
12979SOL    HW240771  10.871   8.849   1.042
12980SOL     OW40772   9.996   6.217  11.148
12980SOL    HW140773  10.006   6.299  11.196
12980SOL    HW240774   9.912   6.182  11.178
12981SOL     OW40775   5.674   6.270   3.245
12981SOL    HW140776   5.752   6.215   3.254
12981SOL    HW240777   5.628   6.235   3.169
12982SOL     OW40778  10.205   7.869   2.038
12982SOL    HW140779  10.213   7.783   2.080
12982SOL    HW240780  10.290   7.882   1.995
12983SOL     OW40781   1.813  13.723   9.770
12983SOL    HW140782   1.869  13.684   9.702
12983SOL    HW240783   1.874  13.768   9.828
12984SOL     OW40784   2.668   5.826  11.020
12984SOL    HW140785   2.704   5.903  10.976
12984SOL    HW240786   2.685   5.754  10.960
12985SOL     OW40787  10.430   8.698   4.134
12985SOL    HW140788  10.388   8.726   4.053
12985SOL    HW240789  10.524   8.709   4.117
12986SOL     OW40790   5.439  12.007   2.000
12986SOL    HW140791   5.472  11.995   1.911
12986SOL    HW240792   5.399  12.094   1.999
12987SOL     OW40793   6.455   6.974   8.797
12987SOL    HW140794   6.507   7.053   8.780
12987SOL    HW240795   6.412   6.956   8.713
12988SOL     OW40796  13.672  11.215  13.342
12988SOL    HW140797  13.591  11.202  13.391
12988SOL    HW240798  13.740  11.224  13.409
12989SOL     OW40799   1.240   7.408   5.369
12989SOL    HW140800   1.323   7.453   5.381
12989SOL    HW240801   1.239   7.340   5.436
12990SOL     OW40802   3.165   7.594  11.782
12990SOL    HW140803   3.255   7.577  11.754
12990SOL    HW240804   3.169   7.679  11.826
12991SOL     OW40805   1.645   7.172   1.778
12991SOL    HW140806   1.553   7.198   1.788
12991SOL    HW240807   1.681   7.180   1.866
12992SOL     OW40808   3.671   8.903   9.695
12992SOL    HW140809   3.669   8.874   9.786
12992SOL    HW240810   3.628   8.832   9.646
12993SOL     OW40811  12.834  10.934   0.721
12993SOL    HW140812  12.908  10.936   0.781
12993SOL    HW240813  12.812  10.841   0.713
12994SOL     OW40814   9.061  11.772  14.481
12994SOL    HW140815   9.106  11.801  14.402
12994SOL    HW240816   9.086  11.836  14.548
12995SOL     OW40817   0.215   8.844  11.445
12995SOL    HW140818   0.257   8.928  11.424
12995SOL    HW240819   0.271   8.778  11.403
12996SOL     OW40820   3.586   7.828   1.090
12996SOL    HW140821   3.591   7.748   1.141
12996SOL    HW240822   3.529   7.886   1.142
12997SOL     OW40823   5.751   8.792   3.102
12997SOL    HW140824   5.763   8.882   3.071
12997SOL    HW240825   5.657   8.777   3.093
12998SOL     OW40826  12.878  10.035   6.969
12998SOL    HW140827  12.840  10.121   6.950
12998SOL    HW240828  12.819   9.972   6.927
12999SOL     OW40829   4.167   4.431   2.330
12999SOL    HW140830   4.128   4.415   2.244
12999SOL    HW240831   4.257   4.455   2.311
13000SOL     OW40832  12.680  13.629   0.392
13000SOL    HW140833  12.599  13.597   0.431
13000SOL    HW240834  12.677  13.600   0.301
13001SOL     OW40835   5.760   4.563   2.152
13001SOL    HW140836   5.705   4.588   2.077
13001SOL    HW240837   5.777   4.470   2.140
13002SOL     OW40838   2.611   3.552   9.492
13002SOL    HW140839   2.647   3.632   9.531
13002SOL    HW240840   2.532   3.582   9.446
13003SOL     OW40841   4.486   0.248   0.126
13003SOL    HW140842   4.407   0.280   0.170
13003SOL    HW240843   4.494   0.302   0.048
13004SOL     OW40844   9.541   9.642   0.640
13004SOL    HW140845   9.584   9.664   0.557
13004SOL    HW240846   9.585   9.562   0.670
13005SOL     OW40847   1.445  10.853   0.401
13005SOL    HW140848   1.457  10.861   0.306
13005SOL    HW240849   1.534  10.835   0.434
13006SOL     OW40850  11.744   0.331   6.536
13006SOL    HW140851  11.835   0.321   6.562
13006SOL    HW240852  11.694   0.286   6.604
13007SOL     OW40853   1.112   9.849  10.031
13007SOL    HW140854   1.130   9.900  10.110
13007SOL    HW240855   1.023   9.816  10.042
13008SOL     OW40856  12.288   6.310   2.209
13008SOL    HW140857  12.240   6.245   2.260
13008SOL    HW240858  12.380   6.288   2.224
13009SOL     OW40859   4.874  14.377   3.032
13009SOL    HW140860   4.871  14.471   3.052
13009SOL    HW240861   4.916  14.372   2.946
13010SOL     OW40862   6.295   4.421  10.644
13010SOL    HW140863   6.333   4.508  10.656
13010SOL    HW240864   6.365   4.369  10.603
13011SOL     OW40865  10.132   5.545   1.821
13011SOL    HW140866  10.210   5.555   1.875
13011SOL    HW240867  10.067   5.603   1.861
13012SOL     OW40868  10.787   7.958   0.616
13012SOL    HW140869  10.764   8.051   0.615
13012SOL    HW240870  10.876   7.955   0.581
13013SOL     OW40871  10.065  10.846  13.876
13013SOL    HW140872  10.054  10.941  13.875
13013SOL    HW240873  10.112  10.829  13.958
13014SOL     OW40874  11.324  10.515   0.050
13014SOL    HW140875  11.349  10.573  14.857
13014SOL    HW240876  11.362  10.431   0.028
13015SOL     OW40877   6.221  13.990   3.432
13015SOL    HW140878   6.253  14.074   3.401
13015SOL    HW240879   6.128  14.006   3.451
13016SOL     OW40880   4.426   4.577   9.741
13016SOL    HW140881   4.345   4.560   9.789
13016SOL    HW240882   4.466   4.652   9.786
13017SOL     OW40883   8.961   7.541  14.303
13017SOL    HW140884   8.947   7.576  14.391
13017SOL    HW240885   8.979   7.617  14.248
13018SOL     OW40886  14.429   9.171  11.918
13018SOL    HW140887  14.440   9.153  12.012
13018SOL    HW240888  14.488   9.110  11.875
13019SOL     OW40889   9.279  13.434   0.527
13019SOL    HW140890   9.260  13.341   0.532
13019SOL    HW240891   9.369  13.439   0.495
13020SOL     OW40892   9.934  13.332   8.589
13020SOL    HW140893  10.027  13.336   8.614
13020SOL    HW240894   9.906  13.245   8.618
13021SOL     OW40895   6.455   4.802   6.321
13021SOL    HW140896   6.397   4.878   6.319
13021SOL    HW240897   6.409   4.737   6.375
13022SOL     OW40898  14.383   9.164  11.471
13022SOL    HW140899  14.414   9.158  11.380
13022SOL    HW240900  14.393   9.257  11.493
13023SOL     OW40901   4.092   1.147   6.468
13023SOL    HW140902   4.086   1.241   6.483
13023SOL    HW240903   4.087   1.138   6.372
13024SOL     OW40904  14.603   0.025   8.585
13024SOL    HW140905  14.592   0.108   8.539
13024SOL    HW240906  14.573  14.838   8.522
13025SOL     OW40907  11.025   1.539  14.234
13025SOL    HW140908  11.082   1.591  14.177
13025SOL    HW240909  11.056   1.449  14.224
13026SOL     OW40910  12.841   9.546   2.266
13026SOL    HW140911  12.876   9.626   2.306
13026SOL    HW240912  12.804   9.497   2.340
13027SOL     OW40913  13.303   5.078   6.652
13027SOL    HW140914  13.359   5.072   6.575
13027SOL    HW240915  13.214   5.069   6.618
13028SOL     OW40916   4.939   9.476  12.890
13028SOL    HW140917   4.880   9.519  12.829
13028SOL    HW240918   4.951   9.539  12.961
13029SOL     OW40919   9.399  11.340  10.597
13029SOL    HW140920   9.406  11.426  10.555
13029SOL    HW240921   9.318  11.345  10.648
13030SOL     OW40922  12.245  14.781   7.638
13030SOL    HW140923  12.208  14.829   7.564
13030SOL    HW240924  12.244  14.689   7.610
13031SOL     OW40925   5.572   2.816   6.801
13031SOL    HW140926   5.546   2.825   6.709
13031SOL    HW240927   5.582   2.722   6.814
13032SOL     OW40928  13.951   4.539   4.198
13032SOL    HW140929  14.007   4.501   4.267
13032SOL    HW240930  13.995   4.620   4.174
13033SOL     OW40931   1.146   1.610   8.363
13033SOL    HW140932   1.114   1.689   8.406
13033SOL    HW240933   1.240   1.610   8.379
13034SOL     OW40934   1.063   3.793   3.439
13034SOL    HW140935   1.028   3.795   3.349
13034SOL    HW240936   1.026   3.870   3.480
13035SOL     OW40937   9.363   8.553   8.284
13035SOL    HW140938   9.314   8.635   8.289
13035SOL    HW240939   9.417   8.562   8.205
13036SOL     OW40940   4.049   7.829   2.640
13036SOL    HW140941   4.079   7.784   2.719
13036SOL    HW240942   4.001   7.905   2.672
13037SOL     OW40943  11.124  10.037   8.087
13037SOL    HW140944  11.157  10.095   8.155
13037SOL    HW240945  11.029  10.044   8.093
13038SOL     OW40946   0.833   0.167  13.014
13038SOL    HW140947   0.869   0.256  13.012
13038SOL    HW240948   0.866   0.126  12.934
13039SOL     OW40949   2.071   5.893   5.642
13039SOL    HW140950   2.052   5.827   5.708
13039SOL    HW240951   2.153   5.933   5.670
13040SOL     OW40952   3.119   5.719   5.311
13040SOL    HW140953   3.166   5.798   5.284
13040SOL    HW240954   3.072   5.691   5.232
13041SOL     OW40955   9.964   0.104   1.512
13041SOL    HW140956   9.995   0.049   1.585
13041SOL    HW240957   9.898   0.051   1.468
13042SOL     OW40958   0.821   2.212   2.601
13042SOL    HW140959   0.863   2.177   2.523
13042SOL    HW240960   0.732   2.233   2.572
13043SOL     OW40961  11.182  11.932  12.620
13043SOL    HW140962  11.156  12.009  12.670
13043SOL    HW240963  11.100  11.898  12.584
13044SOL     OW40964   5.323   1.065  12.813
13044SOL    HW140965   5.369   1.110  12.885
13044SOL    HW240966   5.330   0.972  12.835
13045SOL     OW40967  14.024   9.663  10.562
13045SOL    HW140968  14.065   9.582  10.592
13045SOL    HW240969  13.936   9.637  10.536
13046SOL     OW40970   0.391   2.978   6.434
13046SOL    HW140971   0.348   2.947   6.514
13046SOL    HW240972   0.469   2.922   6.425
13047SOL     OW40973  13.117  12.131   5.354
13047SOL    HW140974  13.160  12.216   5.343
13047SOL    HW240975  13.050  12.129   5.286
13048SOL     OW40976   5.524   6.420   7.768
13048SOL    HW140977   5.447   6.405   7.713
13048SOL    HW240978   5.586   6.465   7.712
13049SOL     OW40979   4.878   4.144  10.111
13049SOL    HW140980   4.914   4.060  10.142
13049SOL    HW240981   4.813   4.120  10.046
13050SOL     OW40982   5.213   7.234   5.803
13050SOL    HW140983   5.259   7.156   5.773
13050SOL    HW240984   5.273   7.306   5.785
13051SOL     OW40985   5.836  13.573   9.830
13051SOL    HW140986   5.823  13.481   9.809
13051SOL    HW240987   5.757  13.617   9.797
13052SOL     OW40988   0.707   9.620   5.013
13052SOL    HW140989   0.743   9.707   5.030
13052SOL    HW240990   0.738   9.598   4.925
13053SOL     OW40991   5.680   7.892  13.311
13053SOL    HW140992   5.628   7.831  13.364
13053SOL    HW240993   5.619   7.924  13.244
13054SOL     OW40994   2.454   4.059   5.766
13054SOL    HW140995   2.545   4.034   5.755
13054SOL    HW240996   2.455   4.154   5.777
13055SOL     OW40997  10.644   1.938   4.555
13055SOL    HW140998  10.581   1.930   4.483
13055SOL    HW240999  10.683   1.851   4.562
13056SOL     OW41000  12.129   0.454   1.735
13056SOL    HW141001  12.110   0.476   1.644
13056SOL    HW241002  12.118   0.359   1.740
13057SOL     OW41003  13.964   0.665   6.989
13057SOL    HW141004  13.936   0.684   6.900
13057SOL    HW241005  13.890   0.691   7.044
13058SOL     OW41006  11.163   7.252   0.039
13058SOL    HW141007  11.171   7.290   0.126
13058SOL    HW241008  11.245   7.204   0.026
13059SOL     OW41009  13.593  14.599   8.029
13059SOL    HW141010  13.569  14.529   7.968
13059SOL    HW241011  13.650  14.557   8.093
13060SOL     OW41012   0.145   8.794  13.706
13060SOL    HW141013   0.134   8.787  13.801
13060SOL    HW241014   0.066   8.754  13.670
13061SOL     OW41015  13.370   8.468  12.138
13061SOL    HW141016  13.402   8.547  12.181
13061SOL    HW241017  13.369   8.402  12.207
13062SOL     OW41018   5.038   9.639  11.013
13062SOL    HW141019   5.012   9.715  10.961
13062SOL    HW241020   5.014   9.564  10.960
13063SOL     OW41021   1.304   4.831  13.018
13063SOL    HW141022   1.383   4.878  12.989
13063SOL    HW241023   1.289   4.863  13.107
13064SOL     OW41024   9.243  13.115   9.403
13064SOL    HW141025   9.284  13.028   9.403
13064SOL    HW241026   9.150  13.097   9.391
13065SOL     OW41027   7.711   5.388  11.331
13065SOL    HW141028   7.731   5.378  11.424
13065SOL    HW241029   7.708   5.299  11.297
13066SOL     OW41030   6.193   4.754   1.206
13066SOL    HW141031   6.246   4.825   1.170
13066SOL    HW241032   6.217   4.678   1.153
13067SOL     OW41033   4.111   6.168   3.687
13067SOL    HW141034   4.177   6.236   3.673
13067SOL    HW241035   4.125   6.139   3.777
13068SOL     OW41036   2.962   1.738  12.169
13068SOL    HW141037   2.883   1.783  12.139
13068SOL    HW241038   3.015   1.728  12.091
13069SOL     OW41039  12.318   2.336  13.544
13069SOL    HW141040  12.378   2.284  13.491
13069SOL    HW241041  12.269   2.272  13.596
13070SOL     OW41042  10.866   3.511   7.777
13070SOL    HW141043  10.800   3.549   7.721
13070SOL    HW241044  10.819   3.487   7.857
13071SOL     OW41045   5.958  13.555   1.010
13071SOL    HW141046   6.004  13.501   1.074
13071SOL    HW241047   5.988  13.644   1.027
13072SOL     OW41048   8.283  12.085   2.511
13072SOL    HW141049   8.289  12.054   2.421
13072SOL    HW241050   8.322  12.173   2.508
13073SOL     OW41051   9.352  13.505  14.266
13073SOL    HW141052   9.407  13.481  14.340
13073SOL    HW241053   9.277  13.446  14.272
13074SOL     OW41054   5.132   8.088   7.232
13074SOL    HW141055   5.133   8.146   7.308
13074SOL    HW241056   5.140   8.000   7.268
13075SOL     OW41057   3.783   3.895   4.765
13075SOL    HW141058   3.756   3.806   4.743
13075SOL    HW241059   3.742   3.950   4.698
13076SOL     OW41060  12.529   2.904   3.598
13076SOL    HW141061  12.455   2.846   3.617
13076SOL    HW241062  12.568   2.868   3.518
13077SOL     OW41063   5.597  13.181   6.043
13077SOL    HW141064   5.534  13.122   6.002
13077SOL    HW241065   5.682  13.141   6.027
13078SOL     OW41066   2.548   3.431   3.684
13078SOL    HW141067   2.535   3.419   3.778
13078SOL    HW241068   2.462   3.419   3.646
13079SOL     OW41069  13.497   4.151   1.244
13079SOL    HW141070  13.566   4.107   1.293
13079SOL    HW241071  13.541   4.222   1.198
13080SOL     OW41072   2.855   7.408  12.291
13080SOL    HW141073   2.863   7.503  12.282
13080SOL    HW241074   2.775   7.396  12.342
13081SOL     OW41075  10.955  11.165   5.927
13081SOL    HW141076  10.945  11.244   5.980
13081SOL    HW241077  11.026  11.186   5.866
13082SOL     OW41078  14.098   2.124   7.828
13082SOL    HW141079  14.115   2.030   7.822
13082SOL    HW241080  14.170   2.164   7.779
13083SOL     OW41081   3.704   5.959   3.952
13083SOL    HW141082   3.656   6.013   4.014
13083SOL    HW241083   3.691   6.003   3.868
13084SOL     OW41084   4.837  13.087   5.365
13084SOL    HW141085   4.753  13.103   5.321
13084SOL    HW241086   4.902  13.124   5.305
13085SOL     OW41087   9.998   6.201   5.144
13085SOL    HW141088   9.958   6.260   5.080
13085SOL    HW241089  10.090   6.226   5.146
13086SOL     OW41090   1.744   8.278  14.350
13086SOL    HW141091   1.835   8.301  14.370
13086SOL    HW241092   1.742   8.266  14.255
13087SOL     OW41093   7.000   0.210  14.506
13087SOL    HW141094   6.957   0.242  14.427
13087SOL    HW241095   6.966   0.265  14.577
13088SOL     OW41096   9.822  14.617  10.852
13088SOL    HW141097   9.887  14.637  10.920
13088SOL    HW241098   9.782  14.702  10.832
13089SOL     OW41099  11.959  12.441   0.238
13089SOL    HW141100  11.955  12.477   0.149
13089SOL    HW241101  11.869  12.449   0.271
13090SOL     OW41102   1.506  13.271   9.908
13090SOL    HW141103   1.511  13.324   9.988
13090SOL    HW241104   1.482  13.184   9.938
13091SOL     OW41105  10.473   8.485   4.705
13091SOL    HW141106  10.508   8.397   4.715
13091SOL    HW241107  10.396   8.474   4.648
13092SOL     OW41108   9.336  13.491   3.432
13092SOL    HW141109   9.273  13.487   3.360
13092SOL    HW241110   9.298  13.436   3.500
13093SOL     OW41111   9.929  13.414  10.645
13093SOL    HW141112  10.004  13.470  10.666
13093SOL    HW241113   9.952  13.330  10.683
13094SOL     OW41114   8.395  10.063  12.330
13094SOL    HW141115   8.479  10.026  12.356
13094SOL    HW241116   8.331   9.995  12.349
13095SOL     OW41117   5.498  14.696   5.362
13095SOL    HW141118   5.542  14.751   5.297
13095SOL    HW241119   5.490  14.752   5.440
13096SOL     OW41120  12.040  14.138   7.235
13096SOL    HW141121  12.124  14.148   7.280
13096SOL    HW241122  12.047  14.054   7.189
13097SOL     OW41123  14.328   9.283  14.084
13097SOL    HW141124  14.392   9.275  14.156
13097SOL    HW241125  14.243   9.287  14.128
13098SOL     OW41126  10.770   2.671   6.898
13098SOL    HW141127  10.861   2.648   6.876
13098SOL    HW241128  10.765   2.657   6.992
13099SOL     OW41129   8.662   4.790   9.408
13099SOL    HW141130   8.579   4.743   9.417
13099SOL    HW241131   8.698   4.758   9.325
13100SOL     OW41132  10.563  11.787  13.361
13100SOL    HW141133  10.650  11.800  13.323
13100SOL    HW241134  10.575  11.805  13.454
13101SOL     OW41135   6.014   0.434   2.127
13101SOL    HW141136   5.969   0.447   2.043
13101SOL    HW241137   5.945   0.407   2.187
13102SOL     OW41138   0.274  10.748  14.384
13102SOL    HW141139   0.203  10.702  14.341
13102SOL    HW241140   0.266  10.724  14.476
13103SOL     OW41141   7.868   1.796   0.870
13103SOL    HW141142   7.844   1.849   0.793
13103SOL    HW241143   7.800   1.729   0.875
13104SOL     OW41144  11.840   5.926  11.871
13104SOL    HW141145  11.787   5.983  11.928
13104SOL    HW241146  11.909   5.892  11.927
13105SOL     OW41147   6.943   6.066  13.266
13105SOL    HW141148   6.938   6.034  13.175
13105SOL    HW241149   7.026   6.113  13.269
13106SOL     OW41150   6.051   7.615   8.370
13106SOL    HW141151   6.030   7.658   8.287
13106SOL    HW241152   5.973   7.628   8.424
13107SOL     OW41153  13.577   5.302   8.840
13107SOL    HW141154  13.584   5.362   8.766
13107SOL    HW241155  13.545   5.356   8.912
13108SOL     OW41156   4.404   2.012  13.346
13108SOL    HW141157   4.324   1.971  13.380
13108SOL    HW241158   4.473   1.948  13.363
13109SOL     OW41159   9.888  14.649   0.661
13109SOL    HW141160   9.818  14.613   0.606
13109SOL    HW241161   9.921  14.574   0.711
13110SOL     OW41162   5.168   3.483  14.237
13110SOL    HW141163   5.175   3.574  14.264
13110SOL    HW241164   5.084   3.478  14.191
13111SOL     OW41165  10.699   3.809   9.955
13111SOL    HW141166  10.738   3.886   9.913
13111SOL    HW241167  10.764   3.740   9.942
13112SOL     OW41168  11.933  10.333   6.852
13112SOL    HW141169  11.905  10.243   6.832
13112SOL    HW241170  11.977  10.363   6.773
13113SOL     OW41171   2.641  10.336   8.119
13113SOL    HW141172   2.726  10.294   8.128
13113SOL    HW241173   2.636  10.361   8.026
13114SOL     OW41174   2.161   7.691   8.611
13114SOL    HW141175   2.193   7.750   8.679
13114SOL    HW241176   2.236   7.679   8.553
13115SOL     OW41177   1.398   3.989   9.587
13115SOL    HW141178   1.427   4.005   9.497
13115SOL    HW241179   1.364   4.074   9.616
13116SOL     OW41180   4.810   4.190  14.464
13116SOL    HW141181   4.816   4.245  14.386
13116SOL    HW241182   4.716   4.181  14.480
13117SOL     OW41183  14.545  11.407   5.307
13117SOL    HW141184  14.617  11.393   5.246
13117SOL    HW241185  14.528  11.320   5.345
13118SOL     OW41186   5.880   8.751  13.013
13118SOL    HW141187   5.911   8.734  12.924
13118SOL    HW241188   5.901   8.671  13.061
13119SOL     OW41189   5.981  13.608   1.917
13119SOL    HW141190   6.007  13.558   1.841
13119SOL    HW241191   6.039  13.685   1.916
13120SOL     OW41192  10.492   8.967   5.075
13120SOL    HW141193  10.420   8.937   5.130
13120SOL    HW241194  10.462   9.050   5.038
13121SOL     OW41195   9.815  13.318   7.237
13121SOL    HW141196   9.858  13.404   7.244
13121SOL    HW241197   9.887  13.257   7.222
13122SOL     OW41198   8.426   8.389   3.911
13122SOL    HW141199   8.492   8.346   3.965
13122SOL    HW241200   8.404   8.469   3.959
13123SOL     OW41201   5.731   6.355  12.491
13123SOL    HW141202   5.793   6.368  12.563
13123SOL    HW241203   5.715   6.443  12.456
13124SOL     OW41204   1.625   5.900   9.271
13124SOL    HW141205   1.614   5.910   9.177
13124SOL    HW241206   1.612   5.989   9.306
13125SOL     OW41207  10.718   9.617   5.380
13125SOL    HW141208  10.662   9.552   5.423
13125SOL    HW241209  10.669   9.699   5.387
13126SOL     OW41210   6.521  13.381   7.310
13126SOL    HW141211   6.607  13.340   7.302
13126SOL    HW241212   6.460  13.318   7.272
13127SOL     OW41213   9.583   3.402  13.233
13127SOL    HW141214   9.556   3.368  13.147
13127SOL    HW241215   9.616   3.326  13.280
13128SOL     OW41216  14.271   2.093   0.457
13128SOL    HW141217  14.262   2.003   0.489
13128SOL    HW241218  14.302   2.082   0.366
13129SOL     OW41219   1.101   4.961   4.744
13129SOL    HW141220   1.134   4.891   4.801
13129SOL    HW241221   1.034   4.918   4.690
13130SOL     OW41222   0.966  13.907   1.639
13130SOL    HW141223   1.001  13.896   1.727
13130SOL    HW241224   1.027  13.860   1.582
13131SOL     OW41225   1.887   4.166   1.556
13131SOL    HW141226   1.943   4.131   1.487
13131SOL    HW241227   1.877   4.258   1.535
13132SOL     OW41228   0.724   3.113  14.581
13132SOL    HW141229   0.732   3.110  14.676
13132SOL    HW241230   0.790   3.176  14.553
13133SOL     OW41231   4.716   0.551   2.698
13133SOL    HW141232   4.724   0.497   2.777
13133SOL    HW241233   4.630   0.591   2.705
13134SOL     OW41234   4.635   5.539  13.411
13134SOL    HW141235   4.621   5.562  13.319
13134SOL    HW241236   4.730   5.545  13.423
13135SOL     OW41237   8.254   4.068   9.481
13135SOL    HW141238   8.335   4.074   9.532
13135SOL    HW241239   8.269   4.127   9.407
13136SOL     OW41240   9.811   9.154  12.763
13136SOL    HW141241   9.766   9.074  12.736
13136SOL    HW241242   9.899   9.126  12.788
13137SOL     OW41243   0.311  11.758   7.533
13137SOL    HW141244   0.396  11.801   7.520
13137SOL    HW241245   0.269  11.807   7.603
13138SOL     OW41246   7.556   1.173   7.562
13138SOL    HW141247   7.480   1.116   7.549
13138SOL    HW241248   7.524   1.261   7.544
13139SOL     OW41249   0.812   0.348  14.247
13139SOL    HW141250   0.744   0.358  14.180
13139SOL    HW241251   0.813   0.432  14.292
13140SOL     OW41252   7.921   7.280  10.506
13140SOL    HW141253   7.879   7.264  10.590
13140SOL    HW241254   7.880   7.360  10.473
13141SOL     OW41255   7.821   9.840  10.055
13141SOL    HW141256   7.859   9.868   9.972
13141SOL    HW241257   7.798   9.748  10.041
13142SOL     OW41258  11.957   1.473   3.371
13142SOL    HW141259  11.892   1.541   3.385
13142SOL    HW241260  11.907   1.391   3.372
13143SOL     OW41261   1.757   5.985   1.690
13143SOL    HW141262   1.723   6.001   1.778
13143SOL    HW241263   1.811   6.062   1.672
13144SOL     OW41264  14.225   7.930  14.737
13144SOL    HW141265  14.201   7.958  14.825
13144SOL    HW241266  14.270   7.846  14.750
13145SOL     OW41267   3.149   9.647   0.183
13145SOL    HW141268   3.190   9.641   0.097
13145SOL    HW241269   3.222   9.655   0.244
13146SOL     OW41270   7.486   8.004  10.175
13146SOL    HW141271   7.479   8.083  10.121
13146SOL    HW241272   7.432   7.939  10.130
13147SOL     OW41273   7.784   3.713   9.742
13147SOL    HW141274   7.721   3.643   9.723
13147SOL    HW241275   7.815   3.742   9.657
13148SOL     OW41276  11.996  12.472  11.842
13148SOL    HW141277  11.964  12.443  11.927
13148SOL    HW241278  11.930  12.440  11.779
13149SOL     OW41279   5.157   5.511   0.107
13149SOL    HW141280   5.121   5.518   0.019
13149SOL    HW241281   5.080   5.503   0.164
13150SOL     OW41282   6.838  13.317  11.362
13150SOL    HW141283   6.769  13.266  11.404
13150SOL    HW241284   6.790  13.384  11.312
13151SOL     OW41285   1.560  14.866   9.192
13151SOL    HW141286   1.636  14.811   9.174
13151SOL    HW241287   1.587   0.075   9.166
13152SOL     OW41288   6.828   4.892   8.749
13152SOL    HW141289   6.877   4.971   8.769
13152SOL    HW241290   6.857   4.828   8.814
13153SOL     OW41291   9.701   4.377   0.395
13153SOL    HW141292   9.619   4.404   0.354
13153SOL    HW241293   9.752   4.337   0.325
13154SOL     OW41294   5.209   9.551  14.291
13154SOL    HW141295   5.250   9.588  14.213
13154SOL    HW241296   5.172   9.468  14.261
13155SOL     OW41297   6.863   9.092  13.626
13155SOL    HW141298   6.803   9.156  13.664
13155SOL    HW241299   6.948   9.110  13.667
13156SOL     OW41300   4.892   1.971   3.301
13156SOL    HW141301   4.914   1.937   3.388
13156SOL    HW241302   4.866   2.062   3.318
13157SOL     OW41303  12.525  14.330   7.510
13157SOL    HW141304  12.539  14.304   7.419
13157SOL    HW241305  12.481  14.415   7.504
13158SOL     OW41306   4.146   8.508   0.395
13158SOL    HW141307   4.096   8.502   0.314
13158SOL    HW241308   4.234   8.479   0.371
13159SOL     OW41309   3.253   5.066  11.824
13159SOL    HW141310   3.314   5.123  11.871
13159SOL    HW241311   3.301   4.984  11.812
13160SOL     OW41312   8.640   5.993   8.288
13160SOL    HW141313   8.627   5.934   8.214
13160SOL    HW241314   8.624   5.939   8.365
13161SOL     OW41315   9.578   7.539  10.678
13161SOL    HW141316   9.501   7.542  10.621
13161SOL    HW241317   9.645   7.494  10.626
13162SOL     OW41318   7.133  13.550   0.916
13162SOL    HW141319   7.118  13.566   0.823
13162SOL    HW241320   7.222  13.514   0.920
13163SOL     OW41321  10.286   3.188   1.956
13163SOL    HW141322  10.239   3.236   2.024
13163SOL    HW241323  10.216   3.150   1.901
13164SOL     OW41324  12.906   4.283   6.113
13164SOL    HW141325  12.873   4.373   6.108
13164SOL    HW241326  13.001   4.292   6.120
13165SOL     OW41327  14.638   3.364  12.299
13165SOL    HW141328  14.614   3.441  12.351
13165SOL    HW241329  14.644   3.397  12.209
13166SOL     OW41330   5.582   2.376   3.786
13166SOL    HW141331   5.505   2.359   3.731
13166SOL    HW241332   5.656   2.374   3.724
13167SOL     OW41333  14.322   7.790   1.908
13167SOL    HW141334  14.299   7.879   1.933
13167SOL    HW241335  14.323   7.741   1.990
13168SOL     OW41336   3.186   5.434  11.580
13168SOL    HW141337   3.233   5.351  11.587
13168SOL    HW241338   3.144   5.431  11.494
13169SOL     OW41339   3.990  10.655  14.403
13169SOL    HW141340   3.914  10.626  14.454
13169SOL    HW241341   4.055  10.680  14.469
13170SOL     OW41342   2.442   2.668   1.785
13170SOL    HW141343   2.532   2.700   1.780
13170SOL    HW241344   2.399   2.707   1.709
13171SOL     OW41345   6.008   4.092   5.021
13171SOL    HW141346   5.913   4.092   5.030
13171SOL    HW241347   6.023   4.094   4.926
13172SOL     OW41348   5.649   3.212  10.045
13172SOL    HW141349   5.710   3.231  10.116
13172SOL    HW241350   5.572   3.175  10.090
13173SOL     OW41351   7.450  11.345   5.016
13173SOL    HW141352   7.474  11.358   5.108
13173SOL    HW241353   7.526  11.374   4.967
13174SOL     OW41354  12.251   6.733  10.263
13174SOL    HW141355  12.219   6.646  10.287
13174SOL    HW241356  12.245   6.734  10.167
13175SOL     OW41357  14.858  12.209  10.850
13175SOL    HW141358  14.847  12.170  10.764
13175SOL    HW241359   0.059  12.261  10.844
13176SOL     OW41360  10.339   2.859  10.150
13176SOL    HW141361  10.289   2.843  10.230
13176SOL    HW241362  10.275   2.894  10.089
13177SOL     OW41363   6.219   4.317   8.158
13177SOL    HW141364   6.203   4.264   8.236
13177SOL    HW241365   6.137   4.317   8.110
13178SOL     OW41366   9.705  12.828   3.206
13178SOL    HW141367   9.635  12.791   3.151
13178SOL    HW241368   9.766  12.755   3.218
13179SOL     OW41369   7.135  14.404   6.604
13179SOL    HW141370   7.052  14.409   6.651
13179SOL    HW241371   7.185  14.337   6.651
13180SOL     OW41372  14.728   9.475   7.639
13180SOL    HW141373  14.767   9.388   7.630
13180SOL    HW241374  14.738   9.497   7.731
13181SOL     OW41375  12.716   1.829   9.165
13181SOL    HW141376  12.639   1.870   9.203
13181SOL    HW241377  12.683   1.777   9.092
13182SOL     OW41378   4.248  14.428   7.688
13182SOL    HW141379   4.259  14.457   7.598
13182SOL    HW241380   4.159  14.393   7.692
13183SOL     OW41381  10.477   2.730   4.876
13183SOL    HW141382  10.508   2.659   4.931
13183SOL    HW241383  10.540   2.734   4.804
13184SOL     OW41384   2.505   4.549   9.969
13184SOL    HW141385   2.571   4.544  10.039
13184SOL    HW241386   2.539   4.492   9.900
13185SOL     OW41387  13.733   4.734   5.028
13185SOL    HW141388  13.764   4.651   4.991
13185SOL    HW241389  13.780   4.801   4.979
13186SOL     OW41390  11.659  14.274   5.122
13186SOL    HW141391  11.685  14.190   5.160
13186SOL    HW241392  11.585  14.303   5.175
13187SOL     OW41393   6.191   7.244  13.829
13187SOL    HW141394   6.256   7.203  13.772
13187SOL    HW241395   6.217   7.336  13.833
13188SOL     OW41396   5.119   1.205   0.189
13188SOL    HW141397   5.155   1.185   0.275
13188SOL    HW241398   5.191   1.245   0.141
13189SOL     OW41399   7.126   3.093   7.939
13189SOL    HW141400   7.199   3.032   7.928
13189SOL    HW241401   7.152   3.148   8.013
13190SOL     OW41402   9.190   6.759   9.079
13190SOL    HW141403   9.125   6.816   9.120
13190SOL    HW241404   9.150   6.672   9.083
13191SOL     OW41405  10.999   1.663   9.067
13191SOL    HW141406  11.007   1.718   8.989
13191SOL    HW241407  11.082   1.615   9.071
13192SOL     OW41408   7.157  11.719  12.326
13192SOL    HW141409   7.145  11.814  12.318
13192SOL    HW241410   7.248  11.709  12.353
13193SOL     OW41411   9.907   8.448   6.415
13193SOL    HW141412   9.882   8.370   6.466
13193SOL    HW241413  10.002   8.440   6.404
13194SOL     OW41414   9.703  10.999   6.456
13194SOL    HW141415   9.689  11.084   6.498
13194SOL    HW241416   9.665  10.936   6.517
13195SOL     OW41417   6.679  12.385   7.382
13195SOL    HW141418   6.643  12.426   7.460
13195SOL    HW241419   6.767  12.422   7.373
13196SOL     OW41420  10.125   9.038   2.595
13196SOL    HW141421  10.139   8.946   2.573
13196SOL    HW241422  10.124   9.084   2.511
13197SOL     OW41423   4.643   5.524  13.898
13197SOL    HW141424   4.569   5.585  13.900
13197SOL    HW241425   4.603   5.437  13.904
13198SOL     OW41426   6.937   9.960   6.958
13198SOL    HW141427   6.900   9.876   6.987
13198SOL    HW241428   6.971   9.942   6.871
13199SOL     OW41429   8.948   9.411   9.587
13199SOL    HW141430   9.018   9.417   9.521
13199SOL    HW241431   8.952   9.321   9.619
13200SOL     OW41432   3.984  10.816   9.994
13200SOL    HW141433   4.045  10.890   9.999
13200SOL    HW241434   3.979  10.795   9.901
13201SOL     OW41435   4.716   9.022  12.113
13201SOL    HW141436   4.731   9.115  12.128
13201SOL    HW241437   4.622   9.016  12.093
13202SOL     OW41438   9.878   7.720   9.781
13202SOL    HW141439   9.808   7.679   9.832
13202SOL    HW241440   9.879   7.672   9.698
13203SOL     OW41441   8.765   7.061   3.095
13203SOL    HW141442   8.818   7.002   3.149
13203SOL    HW241443   8.738   7.130   3.156
13204SOL     OW41444   9.818  10.483  11.774
13204SOL    HW141445   9.836  10.401  11.729
13204SOL    HW241446   9.723  10.487  11.779
13205SOL     OW41447  10.807   7.140  10.941
13205SOL    HW141448  10.810   7.218  10.885
13205SOL    HW241449  10.742   7.084  10.901
13206SOL     OW41450   6.168   9.943   5.838
13206SOL    HW141451   6.153   9.917   5.929
13206SOL    HW241452   6.261   9.969   5.835
13207SOL     OW41453   6.200  12.380   5.224
13207SOL    HW141454   6.223  12.325   5.298
13207SOL    HW241455   6.260  12.454   5.229
13208SOL     OW41456  11.117   5.326   1.756
13208SOL    HW141457  11.174   5.269   1.807
13208SOL    HW241458  11.155   5.326   1.668
13209SOL     OW41459   8.490   2.776   2.974
13209SOL    HW141460   8.524   2.744   3.058
13209SOL    HW241461   8.458   2.864   2.994
13210SOL     OW41462   8.250   1.184   8.183
13210SOL    HW141463   8.290   1.214   8.102
13210SOL    HW241464   8.156   1.202   8.173
13211SOL     OW41465   0.508  14.786   2.335
13211SOL    HW141466   0.498  14.844   2.411
13211SOL    HW241467   0.589  14.816   2.292
13212SOL     OW41468  12.346  10.288   0.214
13212SOL    HW141469  12.423  10.233   0.227
13212SOL    HW241470  12.376  10.358   0.155
13213SOL     OW41471   1.740   3.084   3.509
13213SOL    HW141472   1.701   3.069   3.423
13213SOL    HW241473   1.805   3.153   3.494
13214SOL     OW41474   8.084   9.119   6.821
13214SOL    HW141475   8.012   9.127   6.884
13214SOL    HW241476   8.094   9.207   6.785
13215SOL     OW41477   8.176  11.155  13.185
13215SOL    HW141478   8.246  11.203  13.227
13215SOL    HW241479   8.207  11.064  13.183
13216SOL     OW41480  11.694   9.529   2.247
13216SOL    HW141481  11.682   9.602   2.308
13216SOL    HW241482  11.781   9.543   2.211
13217SOL     OW41483   5.901   4.805   6.534
13217SOL    HW141484   5.846   4.736   6.496
13217SOL    HW241485   5.960   4.758   6.592
13218SOL     OW41486   8.512  14.391   5.123
13218SOL    HW141487   8.548  14.466   5.172
13218SOL    HW241488   8.421  14.387   5.151
13219SOL     OW41489  13.051   6.795   7.524
13219SOL    HW141490  13.091   6.708   7.527
13219SOL    HW241491  12.975   6.788   7.582
13220SOL     OW41492   8.993   9.151  10.560
13220SOL    HW141493   9.000   9.068  10.513
13220SOL    HW241494   8.985   9.217  10.490
13221SOL     OW41495   9.917  14.409  13.995
13221SOL    HW141496   9.988  14.456  13.951
13221SOL    HW241497   9.842  14.467  13.989
13222SOL     OW41498  10.912   7.390  13.748
13222SOL    HW141499  11.001   7.379  13.781
13222SOL    HW241500  10.922   7.392  13.653
13223SOL     OW41501  14.813   5.663   0.102
13223SOL    HW141502  14.823   5.755   0.125
13223SOL    HW241503  14.855   5.616   0.174
13224SOL     OW41504   8.831  11.848   5.113
13224SOL    HW141505   8.828  11.891   5.028
13224SOL    HW241506   8.750  11.797   5.117
13225SOL     OW41507  13.175   2.117  12.696
13225SOL    HW141508  13.229   2.149  12.768
13225SOL    HW241509  13.109   2.061  12.738
13226SOL     OW41510  12.425   0.482  10.498
13226SOL    HW141511  12.333   0.464  10.517
13226SOL    HW241512  12.423   0.562  10.446
13227SOL     OW41513  11.739   9.550   7.834
13227SOL    HW141514  11.820   9.586   7.798
13227SOL    HW241515  11.670   9.589   7.781
13228SOL     OW41516  14.349  13.008   5.683
13228SOL    HW141517  14.288  13.029   5.613
13228SOL    HW241518  14.397  12.931   5.652
13229SOL     OW41519  14.067   2.022  13.746
13229SOL    HW141520  14.130   2.019  13.818
13229SOL    HW241521  14.113   1.984  13.672
13230SOL     OW41522   2.447   7.645   7.409
13230SOL    HW141523   2.412   7.588   7.479
13230SOL    HW241524   2.369   7.686   7.371
13231SOL     OW41525  13.189   6.517   6.385
13231SOL    HW141526  13.095   6.523   6.399
13231SOL    HW241527  13.200   6.441   6.327
13232SOL     OW41528   4.094  11.601  10.624
13232SOL    HW141529   4.180  11.559  10.630
13232SOL    HW241530   4.057  11.593  10.712
13233SOL     OW41531   7.672   3.214   2.211
13233SOL    HW141532   7.629   3.296   2.189
13233SOL    HW241533   7.727   3.194   2.136
13234SOL     OW41534   8.878   4.191  11.378
13234SOL    HW141535   8.880   4.280  11.342
13234SOL    HW241536   8.840   4.202  11.465
13235SOL     OW41537   8.016   5.846   7.498
13235SOL    HW141538   7.952   5.884   7.558
13235SOL    HW241539   7.983   5.866   7.411
13236SOL     OW41540   8.850   1.894  11.168
13236SOL    HW141541   8.855   1.951  11.091
13236SOL    HW241542   8.771   1.843  11.155
13237SOL     OW41543   6.089  11.875   1.279
13237SOL    HW141544   6.138  11.847   1.202
13237SOL    HW241545   6.117  11.965   1.294
13238SOL     OW41546   2.126   2.186   3.585
13238SOL    HW141547   2.187   2.203   3.657
13238SOL    HW241548   2.068   2.117   3.618
13239SOL     OW41549   6.928   4.732   0.114
13239SOL    HW141550   6.892   4.651   0.149
13239SOL    HW241551   7.002   4.704   0.061
13240SOL     OW41552   2.673  10.119   4.289
13240SOL    HW141553   2.741  10.110   4.222
13240SOL    HW241554   2.721  10.133   4.371
13241SOL     OW41555   3.756   9.841   1.429
13241SOL    HW141556   3.813   9.764   1.432
13241SOL    HW241557   3.669   9.806   1.407
13242SOL     OW41558   2.475   8.858   5.274
13242SOL    HW141559   2.397   8.854   5.329
13242SOL    HW241560   2.504   8.767   5.267
13243SOL     OW41561  13.010  10.740   9.024
13243SOL    HW141562  12.947  10.734   8.952
13243SOL    HW241563  13.085  10.786   8.988
13244SOL     OW41564   6.899   5.029   5.675
13244SOL    HW141565   6.985   4.988   5.680
13244SOL    HW241566   6.838   4.963   5.709
13245SOL     OW41567   9.175   8.301   7.731
13245SOL    HW141568   9.156   8.223   7.785
13245SOL    HW241569   9.174   8.374   7.794
13246SOL     OW41570  13.202  14.327   3.719
13246SOL    HW141571  13.193  14.278   3.800
13246SOL    HW241572  13.289  14.302   3.685
13247SOL     OW41573   2.166   3.820   7.637
13247SOL    HW141574   2.198   3.904   7.670
13247SOL    HW241575   2.109   3.788   7.706
13248SOL     OW41576   8.695   4.110  14.733
13248SOL    HW141577   8.610   4.067  14.724
13248SOL    HW241578   8.684   4.168  14.809
13249SOL     OW41579   8.740   2.010  12.124
13249SOL    HW141580   8.773   2.099  12.132
13249SOL    HW241581   8.780   1.976  12.045
13250SOL     OW41582   4.802  13.951   1.142
13250SOL    HW141583   4.786  14.003   1.063
13250SOL    HW241584   4.838  14.014   1.205
13251SOL     OW41585   0.030   0.890  13.250
13251SOL    HW141586   0.098   0.861  13.188
13251SOL    HW241587   0.060   0.857  13.335
13252SOL     OW41588   8.666  13.492   3.132
13252SOL    HW141589   8.759  13.471   3.123
13252SOL    HW241590   8.665  13.581   3.168
13253SOL     OW41591  14.300   6.894  11.823
13253SOL    HW141592  14.215   6.859  11.850
13253SOL    HW241593  14.284   6.931  11.736
13254SOL     OW41594   2.224   9.573  13.535
13254SOL    HW141595   2.130   9.574  13.557
13254SOL    HW241596   2.267   9.551  13.617
13255SOL     OW41597   3.935   4.481   9.668
13255SOL    HW141598   4.022   4.453   9.698
13255SOL    HW241599   3.874   4.442   9.731
13256SOL     OW41600   8.069  13.522   4.829
13256SOL    HW141601   8.164  13.521   4.820
13256SOL    HW241602   8.041  13.434   4.802
13257SOL     OW41603  14.762  12.909   6.689
13257SOL    HW141604  14.723  12.981   6.639
13257SOL    HW241605  14.838  12.947   6.732
13258SOL     OW41606  14.268  12.660   1.730
13258SOL    HW141607  14.350  12.698   1.696
13258SOL    HW241608  14.270  12.569   1.702
13259SOL     OW41609   7.184   5.251   4.238
13259SOL    HW141610   7.158   5.286   4.323
13259SOL    HW241611   7.257   5.306   4.210
13260SOL     OW41612   6.645  11.537  13.758
13260SOL    HW141613   6.565  11.484  13.751
13260SOL    HW241614   6.716  11.475  13.743
13261SOL     OW41615  10.370   1.434   2.289
13261SOL    HW141616  10.377   1.444   2.194
13261SOL    HW241617  10.347   1.342   2.302
13262SOL     OW41618  10.554   9.015   7.570
13262SOL    HW141619  10.510   9.028   7.486
13262SOL    HW241620  10.509   8.941   7.610
13263SOL     OW41621  10.849   7.235   6.389
13263SOL    HW141622  10.835   7.245   6.295
13263SOL    HW241623  10.939   7.266   6.403
13264SOL     OW41624  10.766   8.661  12.594
13264SOL    HW141625  10.730   8.594  12.652
13264SOL    HW241626  10.830   8.614  12.540
13265SOL     OW41627   5.940   7.496  10.295
13265SOL    HW141628   5.925   7.489  10.201
13265SOL    HW241629   5.883   7.568  10.323
13266SOL     OW41630   4.645  13.027  10.052
13266SOL    HW141631   4.690  13.108  10.077
13266SOL    HW241632   4.603  12.997  10.133
13267SOL     OW41633   4.519  11.720   7.680
13267SOL    HW141634   4.526  11.642   7.626
13267SOL    HW241635   4.515  11.687   7.770
13268SOL     OW41636   5.637   2.423  13.312
13268SOL    HW141637   5.728   2.396  13.297
13268SOL    HW241638   5.591   2.342  13.333
13269SOL     OW41639   1.032   9.488  10.618
13269SOL    HW141640   1.125   9.464  10.612
13269SOL    HW241641   0.985   9.405  10.607
13270SOL     OW41642  11.794   8.593   8.742
13270SOL    HW141643  11.777   8.525   8.808
13270SOL    HW241644  11.889   8.599   8.738
13271SOL     OW41645   5.792   3.715   6.583
13271SOL    HW141646   5.775   3.684   6.672
13271SOL    HW241647   5.882   3.749   6.587
13272SOL     OW41648  10.555   6.486   5.312
13272SOL    HW141649  10.519   6.508   5.226
13272SOL    HW241650  10.577   6.571   5.350
13273SOL     OW41651   1.252   6.442  11.603
13273SOL    HW141652   1.282   6.359  11.642
13273SOL    HW241653   1.328   6.475  11.557
13274SOL     OW41654  14.368  14.226   7.460
13274SOL    HW141655  14.362  14.166   7.386
13274SOL    HW241656  14.341  14.311   7.425
13275SOL     OW41657  10.372   7.943   1.535
13275SOL    HW141658  10.343   7.926   1.625
13275SOL    HW241659  10.307   8.004   1.500
13276SOL     OW41660  13.214  13.777   1.095
13276SOL    HW141661  13.307  13.792   1.079
13276SOL    HW241662  13.170  13.827   1.027
13277SOL     OW41663   2.235  14.835   2.675
13277SOL    HW141664   2.182  14.842   2.754
13277SOL    HW241665   2.211   0.032   2.623
13278SOL     OW41666   8.252   3.426   0.159
13278SOL    HW141667   8.337   3.440   0.202
13278SOL    HW241668   8.270   3.358   0.094
13279SOL     OW41669   2.395  10.000   0.073
13279SOL    HW141670   2.377   9.919   0.026
13279SOL    HW241671   2.482   9.988   0.109
13280SOL     OW41672   7.999  13.835   2.761
13280SOL    HW141673   7.915  13.789   2.758
13280SOL    HW241674   8.025  13.831   2.853
13281SOL     OW41675   3.616   4.302   4.383
13281SOL    HW141676   3.551   4.360   4.345
13281SOL    HW241677   3.565   4.230   4.421
13282SOL     OW41678   2.444   5.132   8.155
13282SOL    HW141679   2.519   5.183   8.124
13282SOL    HW241680   2.368   5.185   8.131
13283SOL     OW41681   5.753  11.451   3.508
13283SOL    HW141682   5.728  11.518   3.572
13283SOL    HW241683   5.685  11.384   3.516
13284SOL     OW41684  13.963   2.100   9.189
13284SOL    HW141685  13.998   2.019   9.226
13284SOL    HW241686  13.960   2.161   9.263
13285SOL     OW41687  14.331   8.683   4.289
13285SOL    HW141688  14.392   8.628   4.337
13285SOL    HW241689  14.248   8.675   4.336
13286SOL     OW41690   8.793   0.956   0.287
13286SOL    HW141691   8.845   0.877   0.300
13286SOL    HW241692   8.702   0.926   0.293
13287SOL     OW41693   8.699   8.705  11.788
13287SOL    HW141694   8.685   8.676  11.697
13287SOL    HW241695   8.620   8.755  11.809
13288SOL     OW41696   6.689  10.065  13.606
13288SOL    HW141697   6.782  10.057  13.582
13288SOL    HW241698   6.655  10.134  13.550
13289SOL     OW41699  11.433  12.255  11.605
13289SOL    HW141700  11.349  12.227  11.569
13289SOL    HW241701  11.486  12.175  11.609
13290SOL     OW41702   3.665  13.438   0.924
13290SOL    HW141703   3.652  13.352   0.884
13290SOL    HW241704   3.577  13.464   0.953
13291SOL     OW41705   3.236   9.981  14.270
13291SOL    HW141706   3.233  10.068  14.230
13291SOL    HW241707   3.275   9.925  14.203
13292SOL     OW41708  11.565   2.476  12.396
13292SOL    HW141709  11.510   2.555  12.396
13292SOL    HW241710  11.564   2.446  12.306
13293SOL     OW41711  14.671   6.832  11.857
13293SOL    HW141712  14.763   6.834  11.831
13293SOL    HW241713  14.626   6.797  11.780
13294SOL     OW41714   3.730   5.470   4.957
13294SOL    HW141715   3.652   5.425   4.924
13294SOL    HW241716   3.745   5.540   4.894
13295SOL     OW41717   5.788   0.455   9.834
13295SOL    HW141718   5.817   0.511   9.763
13295SOL    HW241719   5.696   0.478   9.846
13296SOL     OW41720   2.832   2.806   6.378
13296SOL    HW141721   2.806   2.717   6.356
13296SOL    HW241722   2.916   2.818   6.334
13297SOL     OW41723   5.823  12.958   4.195
13297SOL    HW141724   5.915  12.942   4.215
13297SOL    HW241725   5.783  12.871   4.193
13298SOL     OW41726   8.922   7.347  12.912
13298SOL    HW141727   8.988   7.293  12.868
13298SOL    HW241728   8.925   7.318  13.004
13299SOL     OW41729   7.104   3.150   5.996
13299SOL    HW141730   7.109   3.075   6.055
13299SOL    HW241731   7.193   3.187   5.997
13300SOL     OW41732  12.761   3.643  13.445
13300SOL    HW141733  12.672   3.675  13.456
13300SOL    HW241734  12.783   3.602  13.529
13301SOL     OW41735   4.472  14.864  11.800
13301SOL    HW141736   4.546  14.862  11.861
13301SOL    HW241737   4.456  14.772  11.779
13302SOL     OW41738   1.394   8.894  14.816
13302SOL    HW141739   1.444   8.824  14.774
13302SOL    HW241740   1.357   8.854   0.015
13303SOL     OW41741   0.948   9.826  13.346
13303SOL    HW141742   0.928   9.847  13.255
13303SOL    HW241743   0.899   9.745  13.363
13304SOL     OW41744   3.087  12.577   9.599
13304SOL    HW141745   3.062  12.613   9.684
13304SOL    HW241746   3.173  12.616   9.581
13305SOL     OW41747   2.608   8.959   3.499
13305SOL    HW141748   2.603   8.885   3.561
13305SOL    HW241749   2.679   9.013   3.533
13306SOL     OW41750   1.767   4.193  11.755
13306SOL    HW141751   1.847   4.238  11.780
13306SOL    HW241752   1.698   4.234  11.807
13307SOL     OW41753   7.338   9.502   8.786
13307SOL    HW141754   7.350   9.452   8.867
13307SOL    HW241755   7.321   9.437   8.719
13308SOL     OW41756  14.690   1.462   3.120
13308SOL    HW141757  14.721   1.402   3.053
13308SOL    HW241758  14.601   1.486   3.092
13309SOL     OW41759  11.258   1.519   6.708
13309SOL    HW141760  11.337   1.465   6.713
13309SOL    HW241761  11.213   1.488   6.630
13310SOL     OW41762   5.103   6.963  11.750
13310SOL    HW141763   5.053   6.932  11.824
13310SOL    HW241764   5.185   6.913  11.753
13311SOL     OW41765   2.863   8.704   8.667
13311SOL    HW141766   2.813   8.631   8.630
13311SOL    HW241767   2.797   8.760   8.709
13312SOL     OW41768  13.630   5.548  10.400
13312SOL    HW141769  13.579   5.628  10.387
13312SOL    HW241770  13.595   5.510  10.480
13313SOL     OW41771  11.166  13.265  10.935
13313SOL    HW141772  11.233  13.333  10.941
13313SOL    HW241773  11.084  13.314  10.926
13314SOL     OW41774   0.501   1.450  10.663
13314SOL    HW141775   0.479   1.480  10.751
13314SOL    HW241776   0.416   1.439  10.620
13315SOL     OW41777   9.627   4.065  13.753
13315SOL    HW141778   9.614   4.113  13.835
13315SOL    HW241779   9.538   4.049  13.722
13316SOL     OW41780   5.236  10.958  12.025
13316SOL    HW141781   5.271  10.932  11.940
13316SOL    HW241782   5.310  10.999  12.070
13317SOL     OW41783  12.446   6.044   7.265
13317SOL    HW141784  12.466   5.951   7.272
13317SOL    HW241785  12.506   6.077   7.199
13318SOL     OW41786   1.693   8.267   6.524
13318SOL    HW141787   1.626   8.244   6.588
13318SOL    HW241788   1.708   8.361   6.538
13319SOL     OW41789   5.585   9.687  11.974
13319SOL    HW141790   5.586   9.644  12.059
13319SOL    HW241791   5.511   9.748  11.978
13320SOL     OW41792  10.507   6.900   8.703
13320SOL    HW141793  10.437   6.842   8.734
13320SOL    HW241794  10.554   6.924   8.783
13321SOL     OW41795   6.387   7.092  13.979
13321SOL    HW141796   6.423   7.036  13.911
13321SOL    HW241797   6.293   7.096  13.960
13322SOL     OW41798   5.312   6.230   2.525
13322SOL    HW141799   5.323   6.237   2.430
13322SOL    HW241800   5.217   6.231   2.539
13323SOL     OW41801   1.395   3.369   7.017
13323SOL    HW141802   1.434   3.439   7.070
13323SOL    HW241803   1.469   3.330   6.971
13324SOL     OW41804  11.657   9.393  11.371
13324SOL    HW141805  11.652   9.366  11.279
13324SOL    HW241806  11.703   9.477  11.369
13325SOL     OW41807  13.647   7.644  12.695
13325SOL    HW141808  13.666   7.564  12.744
13325SOL    HW241809  13.671   7.715  12.755
13326SOL     OW41810  10.817   0.156  14.097
13326SOL    HW141811  10.767   0.179  14.176
13326SOL    HW241812  10.852   0.069  14.115
13327SOL     OW41813   5.920   5.367   1.412
13327SOL    HW141814   5.852   5.372   1.345
13327SOL    HW241815   5.876   5.326   1.487
13328SOL     OW41816  13.336   8.957  12.289
13328SOL    HW141817  13.384   8.882  12.252
13328SOL    HW241818  13.289   8.994  12.214
13329SOL     OW41819  10.890   1.314   8.482
13329SOL    HW141820  10.860   1.404   8.465
13329SOL    HW241821  10.850   1.291   8.566
13330SOL     OW41822   6.918   2.010   5.993
13330SOL    HW141823   6.974   2.061   5.934
13330SOL    HW241824   6.923   2.056   6.077
13331SOL     OW41825   5.606   6.606  12.379
13331SOL    HW141826   5.568   6.601  12.466
13331SOL    HW241827   5.538   6.571  12.321
13332SOL     OW41828   9.151  10.347   3.170
13332SOL    HW141829   9.184  10.260   3.145
13332SOL    HW241830   9.111  10.333   3.256
13333SOL     OW41831  11.141  13.042   2.087
13333SOL    HW141832  11.144  12.989   2.007
13333SOL    HW241833  11.142  12.977   2.158
13334SOL     OW41834   6.753  10.525   0.908
13334SOL    HW141835   6.715  10.494   0.990
13334SOL    HW241836   6.749  10.449   0.849
13335SOL     OW41837   2.560   8.311   7.336
13335SOL    HW141838   2.569   8.318   7.431
13335SOL    HW241839   2.478   8.263   7.322
13336SOL     OW41840   4.030   0.757  11.852
13336SOL    HW141841   4.084   0.836  11.852
13336SOL    HW241842   4.037   0.724  11.941
13337SOL     OW41843   7.531   9.647   0.064
13337SOL    HW141844   7.580   9.719   0.103
13337SOL    HW241845   7.583   9.569   0.084
13338SOL     OW41846  10.427   8.995  13.872
13338SOL    HW141847  10.483   8.972  13.797
13338SOL    HW241848  10.416   8.912  13.919
13339SOL     OW41849   6.571  12.558   6.128
13339SOL    HW141850   6.560  12.553   6.033
13339SOL    HW241851   6.644  12.499   6.147
13340SOL     OW41852  12.852   8.794  13.412
13340SOL    HW141853  12.800   8.718  13.387
13340SOL    HW241854  12.806   8.831  13.488
13341SOL     OW41855  13.697  13.810   3.623
13341SOL    HW141856  13.745  13.865   3.561
13341SOL    HW241857  13.607  13.841   3.618
13342SOL     OW41858  10.958  11.932   6.618
13342SOL    HW141859  10.922  11.972   6.539
13342SOL    HW241860  11.053  11.936   6.607
13343SOL     OW41861   1.669  13.748   2.546
13343SOL    HW141862   1.751  13.770   2.501
13343SOL    HW241863   1.664  13.653   2.541
13344SOL     OW41864  11.318  10.721   6.333
13344SOL    HW141865  11.293  10.780   6.403
13344SOL    HW241866  11.391  10.670   6.369
13345SOL     OW41867   5.332  14.187   6.930
13345SOL    HW141868   5.415  14.185   6.977
13345SOL    HW241869   5.315  14.280   6.914
13346SOL     OW41870   6.184   0.347   4.200
13346SOL    HW141871   6.244   0.273   4.208
13346SOL    HW241872   6.184   0.368   4.107
13347SOL     OW41873  14.591   9.816  11.475
13347SOL    HW141874  14.548   9.895  11.441
13347SOL    HW241875  14.676   9.815  11.431
13348SOL     OW41876   0.290   7.898   6.384
13348SOL    HW141877   0.294   7.870   6.292
13348SOL    HW241878   0.197   7.891   6.407
13349SOL     OW41879   2.432   9.481  11.476
13349SOL    HW141880   2.454   9.420  11.545
13349SOL    HW241881   2.350   9.448  11.438
13350SOL     OW41882   0.229   6.235   0.340
13350SOL    HW141883   0.241   6.147   0.304
13350SOL    HW241884   0.273   6.293   0.277
13351SOL     OW41885   9.412   0.399   6.883
13351SOL    HW141886   9.378   0.349   6.808
13351SOL    HW241887   9.486   0.448   6.847
13352SOL     OW41888  13.626   2.556   0.669
13352SOL    HW141889  13.566   2.618   0.711
13352SOL    HW241890  13.600   2.471   0.703
13353SOL     OW41891   3.627   3.800   1.000
13353SOL    HW141892   3.695   3.848   0.953
13353SOL    HW241893   3.568   3.768   0.932
13354SOL     OW41894   9.588   5.559  11.830
13354SOL    HW141895   9.509   5.519  11.794
13354SOL    HW241896   9.655   5.491  11.822
13355SOL     OW41897   2.715   9.231   4.792
13355SOL    HW141898   2.679   9.160   4.845
13355SOL    HW241899   2.737   9.299   4.855
13356SOL     OW41900   2.649   2.159  12.069
13356SOL    HW141901   2.692   2.219  12.130
13356SOL    HW241902   2.563   2.142  12.108
13357SOL     OW41903   4.142   9.746   8.883
13357SOL    HW141904   4.234   9.774   8.875
13357SOL    HW241905   4.139   9.696   8.965
13358SOL     OW41906  13.149   8.126   0.101
13358SOL    HW141907  13.140   8.221   0.097
13358SOL    HW241908  13.175   8.100   0.013
13359SOL     OW41909  12.142   8.423   1.173
13359SOL    HW141910  12.135   8.345   1.227
13359SOL    HW241911  12.179   8.392   1.090
13360SOL     OW41912   8.960  12.166  13.346
13360SOL    HW141913   9.022  12.097  13.369
13360SOL    HW241914   8.944  12.212  13.428
13361SOL     OW41915   4.341  11.268  13.512
13361SOL    HW141916   4.345  11.281  13.417
13361SOL    HW241917   4.248  11.256  13.532
13362SOL     OW41918  12.990  11.235   6.347
13362SOL    HW141919  12.913  11.213   6.296
13362SOL    HW241920  13.020  11.150   6.382
13363SOL     OW41921  13.093   7.318  11.244
13363SOL    HW141922  13.061   7.407  11.230
13363SOL    HW241923  13.120   7.316  11.336
13364SOL     OW41924   3.466   0.008  10.210
13364SOL    HW141925   3.467   0.034  10.118
13364SOL    HW241926   3.377   0.025  10.239
13365SOL     OW41927  14.568  12.323   6.371
13365SOL    HW141928  14.560  12.232   6.400
13365SOL    HW241929  14.560  12.375   6.451
13366SOL     OW41930   3.536   8.408   3.494
13366SOL    HW141931   3.557   8.396   3.587
13366SOL    HW241932   3.453   8.361   3.482
13367SOL     OW41933  10.601   9.042   3.640
13367SOL    HW141934  10.519   9.048   3.592
13367SOL    HW241935  10.586   8.972   3.704
13368SOL     OW41936  12.877   5.443   0.679
13368SOL    HW141937  12.910   5.530   0.702
13368SOL    HW241938  12.811   5.460   0.612
13369SOL     OW41939  13.959   6.140   3.684
13369SOL    HW141940  14.051   6.115   3.675
13369SOL    HW241941  13.911   6.059   3.669
13370SOL     OW41942  11.341   5.928   5.751
13370SOL    HW141943  11.247   5.930   5.732
13370SOL    HW241944  11.347   5.938   5.846
13371SOL     OW41945   1.176  10.579   1.300
13371SOL    HW141946   1.247  10.627   1.342
13371SOL    HW241947   1.121  10.549   1.373
13372SOL     OW41948   4.723   7.339  11.851
13372SOL    HW141949   4.809   7.380  11.864
13372SOL    HW241950   4.742   7.248  11.830
13373SOL     OW41951   5.287   8.993   6.013
13373SOL    HW141952   5.327   8.936   5.947
13373SOL    HW241953   5.308   9.082   5.984
13374SOL     OW41954   1.484   8.878  12.704
13374SOL    HW141955   1.464   8.801  12.758
13374SOL    HW241956   1.541   8.932  12.759
13375SOL     OW41957   3.230  14.871   8.987
13375SOL    HW141958   3.173   0.064   9.016
13375SOL    HW241959   3.310   0.035   8.957
13376SOL     OW41960   7.343  12.432   5.490
13376SOL    HW141961   7.260  12.407   5.531
13376SOL    HW241962   7.405  12.437   5.562
13377SOL     OW41963  13.489   5.258  11.822
13377SOL    HW141964  13.418   5.261  11.758
13377SOL    HW241965  13.454   5.302  11.899
13378SOL     OW41966   6.010  10.791   8.115
13378SOL    HW141967   6.071  10.832   8.176
13378SOL    HW241968   6.022  10.697   8.129
13379SOL     OW41969  11.016  12.611  12.756
13379SOL    HW141970  11.080  12.615  12.827
13379SOL    HW241971  11.068  12.618  12.677
13380SOL     OW41972  12.379  11.321   6.693
13380SOL    HW141973  12.340  11.380   6.628
13380SOL    HW241974  12.454  11.282   6.648
13381SOL     OW41975   6.375   0.153   4.161
13381SOL    HW141976   6.387   0.058   4.158
13381SOL    HW241977   6.417   0.180   4.243
13382SOL     OW41978   9.771   7.724   1.764
13382SOL    HW141979   9.708   7.680   1.820
13382SOL    HW241980   9.795   7.659   1.698
13383SOL     OW41981   3.456   9.637  14.746
13383SOL    HW141982   3.428   9.555  14.706
13383SOL    HW241983   3.375   9.684  14.766
13384SOL     OW41984   4.110   4.356  14.250
13384SOL    HW141985   4.050   4.281  14.247
13384SOL    HW241986   4.106   4.387  14.340
13385SOL     OW41987   6.435   0.890   3.428
13385SOL    HW141988   6.473   0.954   3.487
13385SOL    HW241989   6.376   0.940   3.372
13386SOL     OW41990  13.490  13.623   6.975
13386SOL    HW141991  13.404  13.623   7.018
13386SOL    HW241992  13.553  13.619   7.047
13387SOL     OW41993   0.476  13.609   8.820
13387SOL    HW141994   0.403  13.612   8.758
13387SOL    HW241995   0.470  13.522   8.860
13388SOL     OW41996   8.906  11.097  13.586
13388SOL    HW141997   8.874  11.058  13.504
13388SOL    HW241998   8.828  11.108  13.640
13389SOL     OW41999  12.919   5.915   7.877
13389SOL    HW142000  13.010   5.894   7.857
13389SOL    HW242001  12.873   5.831   7.870
13390SOL     OW42002   7.936   3.562   6.943
13390SOL    HW142003   7.957   3.519   7.026
13390SOL    HW242004   8.020   3.570   6.898
13391SOL     OW42005  11.945   1.959   3.037
13391SOL    HW142006  11.988   2.037   3.001
13391SOL    HW242007  11.991   1.885   2.997
13392SOL     OW42008  11.381   0.465   8.369
13392SOL    HW142009  11.345   0.513   8.444
13392SOL    HW242010  11.309   0.461   8.306
13393SOL     OW42011  10.849   3.388   4.011
13393SOL    HW142012  10.874   3.466   3.962
13393SOL    HW242013  10.807   3.421   4.090
13394SOL     OW42014   8.326  14.617   4.651
13394SOL    HW142015   8.411  14.579   4.673
13394SOL    HW242016   8.329  14.631   4.557
13395SOL     OW42017  13.387  10.446  14.666
13395SOL    HW142018  13.342  10.529  14.654
13395SOL    HW242019  13.411  10.418  14.578
13396SOL     OW42020   0.128   2.548  12.255
13396SOL    HW142021   0.155   2.485  12.188
13396SOL    HW242022   0.086   2.619  12.206
13397SOL     OW42023  11.393   8.222   3.626
13397SOL    HW142024  11.394   8.309   3.589
13397SOL    HW242025  11.359   8.234   3.715
13398SOL     OW42026  13.188  14.658   1.912
13398SOL    HW142027  13.236  14.618   1.985
13398SOL    HW242028  13.116  14.705   1.953
13399SOL     OW42029   8.367   7.648   7.605
13399SOL    HW142030   8.411   7.591   7.542
13399SOL    HW242031   8.375   7.736   7.568
13400SOL     OW42032   7.177   7.213   2.029
13400SOL    HW142033   7.234   7.250   1.962
13400SOL    HW242034   7.169   7.121   2.005
13401SOL     OW42035   2.790   8.677  14.347
13401SOL    HW142036   2.767   8.768  14.367
13401SOL    HW242037   2.827   8.680  14.259
13402SOL     OW42038  12.097   8.378  10.265
13402SOL    HW142039  12.040   8.452  10.245
13402SOL    HW242040  12.046   8.323  10.325
13403SOL     OW42041   5.750   6.983   5.629
13403SOL    HW142042   5.696   6.906   5.645
13403SOL    HW242043   5.825   6.951   5.580
13404SOL     OW42044   5.871   4.140   1.060
13404SOL    HW142045   5.912   4.210   1.009
13404SOL    HW242046   5.937   4.117   1.125
13405SOL     OW42047   5.167   0.281   5.879
13405SOL    HW142048   5.083   0.263   5.836
13405SOL    HW242049   5.221   0.319   5.810
13406SOL     OW42050   0.747  12.818  12.902
13406SOL    HW142051   0.834  12.821  12.863
13406SOL    HW242052   0.754  12.875  12.979
13407SOL     OW42053   2.586   2.703  13.433
13407SOL    HW142054   2.664   2.740  13.474
13407SOL    HW242055   2.618   2.663  13.352
13408SOL     OW42056   2.871   6.701   0.478
13408SOL    HW142057   2.949   6.700   0.533
13408SOL    HW242058   2.841   6.792   0.479
13409SOL     OW42059   8.827   9.461   1.479
13409SOL    HW142060   8.751   9.512   1.505
13409SOL    HW242061   8.801   9.370   1.491
13410SOL     OW42062  14.615  12.341  14.051
13410SOL    HW142063  14.554  12.268  14.036
13410SOL    HW242064  14.682  12.305  14.109
13411SOL     OW42065  12.310  10.100   4.947
13411SOL    HW142066  12.254  10.133   4.877
13411SOL    HW242067  12.306  10.005   4.938
13412SOL     OW42068   6.692   2.256   6.822
13412SOL    HW142069   6.706   2.188   6.888
13412SOL    HW242070   6.673   2.207   6.742
13413SOL     OW42071   4.732   5.939  13.218
13413SOL    HW142072   4.756   5.860  13.170
13413SOL    HW242073   4.671   5.909  13.286
13414SOL     OW42074   9.465  10.941  14.030
13414SOL    HW142075   9.520  10.921  13.953
13414SOL    HW242076   9.520  10.916  14.104
13415SOL     OW42077  14.732   7.146  11.229
13415SOL    HW142078  14.812   7.169  11.182
13415SOL    HW242079  14.754   7.155  11.321
13416SOL     OW42080  14.610   1.295   4.769
13416SOL    HW142081  14.583   1.381   4.736
13416SOL    HW242082  14.684   1.270   4.712
13417SOL     OW42083   3.233   5.025   8.561
13417SOL    HW142084   3.228   4.949   8.503
13417SOL    HW242085   3.228   5.101   8.502
13418SOL     OW42086   4.146  10.129  11.345
13418SOL    HW142087   4.109  10.057  11.294
13418SOL    HW242088   4.149  10.096  11.434
13419SOL     OW42089   9.967  14.162   2.558
13419SOL    HW142090   9.945  14.213   2.480
13419SOL    HW242091   9.912  14.083   2.550
13420SOL     OW42092   6.423   7.573   4.067
13420SOL    HW142093   6.433   7.637   3.997
13420SOL    HW242094   6.371   7.503   4.029
13421SOL     OW42095  13.091   6.658   6.756
13421SOL    HW142096  13.083   6.695   6.668
13421SOL    HW242097  13.181   6.676   6.782
13422SOL     OW42098   9.848   3.785   3.053
13422SOL    HW142099   9.873   3.774   2.961
13422SOL    HW242100   9.759   3.751   3.059
13423SOL     OW42101   9.220   8.610   0.457
13423SOL    HW142102   9.158   8.562   0.403
13423SOL    HW242103   9.205   8.576   0.546
13424SOL     OW42104  14.767  14.622   2.661
13424SOL    HW142105  14.783  14.531   2.637
13424SOL    HW242106  14.671  14.630   2.662
13425SOL     OW42107   6.529  11.468   4.413
13425SOL    HW142108   6.434  11.472   4.404
13425SOL    HW242109   6.562  11.534   4.351
13426SOL     OW42110   5.217   4.878   4.828
13426SOL    HW142111   5.246   4.902   4.740
13426SOL    HW242112   5.206   4.783   4.825
13427SOL     OW42113  10.072   5.021   4.238
13427SOL    HW142114  10.099   5.087   4.174
13427SOL    HW242115   9.978   5.010   4.222
13428SOL     OW42116   0.943   5.518  11.507
13428SOL    HW142117   1.006   5.583  11.477
13428SOL    HW242118   0.947   5.522  11.602
13429SOL     OW42119  13.452   7.151  14.096
13429SOL    HW142120  13.428   7.243  14.097
13429SOL    HW242121  13.381   7.109  14.046
13430SOL     OW42122  10.145   7.841   9.825
13430SOL    HW142123  10.166   7.902   9.754
13430SOL    HW242124  10.054   7.815   9.808
13431SOL     OW42125   6.685  13.580   9.474
13431SOL    HW142126   6.758  13.623   9.517
13431SOL    HW242127   6.626  13.651   9.448
13432SOL     OW42128   2.940   6.491   0.320
13432SOL    HW142129   2.950   6.574   0.368
13432SOL    HW242130   2.971   6.510   0.232
13433SOL     OW42131  10.923  11.343  11.186
13433SOL    HW142132  10.883  11.386  11.110
13433SOL    HW242133  11.009  11.314  11.156
13434SOL     OW42134   5.982   1.220   9.460
13434SOL    HW142135   6.029   1.281   9.517
13434SOL    HW242136   5.891   1.224   9.489
13435SOL     OW42137  13.394   5.733  13.528
13435SOL    HW142138  13.355   5.706  13.445
13435SOL    HW242139  13.325   5.718  13.592
13436SOL     OW42140   2.560   0.719   9.052
13436SOL    HW142141   2.536   0.732   8.960
13436SOL    HW242142   2.635   0.777   9.066
13437SOL     OW42143  13.840  10.903  10.276
13437SOL    HW142144  13.829  10.994  10.302
13437SOL    HW242145  13.932  10.883  10.293
13438SOL     OW42146   0.338   1.298  11.307
13438SOL    HW142147   0.295   1.379  11.335
13438SOL    HW242148   0.336   1.242  11.385
13439SOL     OW42149  11.318  13.290   0.970
13439SOL    HW142150  11.374  13.367   0.960
13439SOL    HW242151  11.252  13.300   0.902
13440SOL     OW42152  14.483   7.203  11.914
13440SOL    HW142153  14.395   7.216  11.881
13440SOL    HW242154  14.486   7.111  11.941
13441SOL     OW42155   8.798  14.403   0.645
13441SOL    HW142156   8.858  14.387   0.718
13441SOL    HW242157   8.796  14.498   0.637
13442SOL     OW42158   8.302  14.638   4.385
13442SOL    HW142159   8.234  14.582   4.347
13442SOL    HW242160   8.375  14.633   4.324
13443SOL     OW42161  13.988   5.954  11.021
13443SOL    HW142162  13.952   6.043  11.028
13443SOL    HW242163  13.960   5.910  11.101
13444SOL     OW42164   0.482   0.573   6.375
13444SOL    HW142165   0.517   0.651   6.331
13444SOL    HW242166   0.550   0.549   6.439
13445SOL     OW42167  13.151   8.407   0.083
13445SOL    HW142168  13.244   8.406   0.060
13445SOL    HW242169  13.148   8.442   0.172
13446SOL     OW42170   6.778  14.641   5.089
13446SOL    HW142171   6.757  14.554   5.120
13446SOL    HW242172   6.725  14.700   5.143
13447SOL     OW42173   6.834  11.612   9.096
13447SOL    HW142174   6.839  11.550   9.168
13447SOL    HW242175   6.912  11.667   9.105
13448SOL     OW42176   0.303   6.657  10.983
13448SOL    HW142177   0.301   6.564  10.960
13448SOL    HW242178   0.351   6.660  11.066
13449SOL     OW42179   3.380   8.164  11.092
13449SOL    HW142180   3.336   8.104  11.032
13449SOL    HW242181   3.397   8.111  11.170
13450SOL     OW42182  12.180   8.111  12.516
13450SOL    HW142183  12.213   8.194  12.482
13450SOL    HW242184  12.216   8.045  12.457
13451SOL     OW42185   6.138   5.133   1.102
13451SOL    HW142186   6.222   5.086   1.096
13451SOL    HW242187   6.158   5.221   1.071
13452SOL     OW42188  10.321  14.384   4.026
13452SOL    HW142189  10.414  14.386   4.047
13452SOL    HW242190  10.280  14.345   4.103
13453SOL     OW42191  14.301   1.095   5.566
13453SOL    HW142192  14.347   1.169   5.607
13453SOL    HW242193  14.368   1.026   5.560
13454SOL     OW42194   1.631   0.773   8.290
13454SOL    HW142195   1.611   0.866   8.280
13454SOL    HW242196   1.545   0.729   8.289
13455SOL     OW42197   6.858  11.925  13.043
13455SOL    HW142198   6.951  11.909  13.030
13455SOL    HW242199   6.821  11.838  13.060
13456SOL     OW42200  12.327   2.392  13.034
13456SOL    HW142201  12.412   2.436  13.027
13456SOL    HW242202  12.329   2.324  12.967
13457SOL     OW42203   2.755  10.450   5.823
13457SOL    HW142204   2.671  10.473   5.781
13457SOL    HW242205   2.792  10.383   5.765
13458SOL     OW42206  13.948  13.750   5.640
13458SOL    HW142207  13.982  13.677   5.588
13458SOL    HW242208  14.023  13.781   5.690
13459SOL     OW42209   7.008  10.710   3.719
13459SOL    HW142210   6.931  10.661   3.747
13459SOL    HW242211   6.991  10.731   3.628
13460SOL     OW42212  11.395   8.124   8.601
13460SOL    HW142213  11.367   8.207   8.640
13460SOL    HW242214  11.460   8.090   8.661
13461SOL     OW42215  11.225  14.213  12.776
13461SOL    HW142216  11.167  14.255  12.841
13461SOL    HW242217  11.223  14.272  12.701
13462SOL     OW42218   2.602  13.419  11.779
13462SOL    HW142219   2.682  13.472  11.781
13462SOL    HW242220   2.534  13.479  11.809
13463SOL     OW42221  14.665   4.772   2.664
13463SOL    HW142222  14.752   4.789   2.699
13463SOL    HW242223  14.679   4.702   2.599
13464SOL     OW42224  13.120  11.879   5.779
13464SOL    HW142225  13.127  11.795   5.824
13464SOL    HW242226  13.100  11.942   5.849
13465SOL     OW42227   2.557   5.210   8.773
13465SOL    HW142228   2.612   5.207   8.851
13465SOL    HW242229   2.614   5.182   8.701
13466SOL     OW42230   4.711   1.096   5.442
13466SOL    HW142231   4.659   1.122   5.366
13466SOL    HW242232   4.647   1.073   5.509
13467SOL     OW42233   4.050   9.916  14.605
13467SOL    HW142234   4.082   9.870  14.527
13467SOL    HW242235   3.966   9.953  14.578
13468SOL     OW42236  12.095   0.594   4.628
13468SOL    HW142237  12.154   0.637   4.566
13468SOL    HW242238  12.023   0.561   4.575
13469SOL     OW42239   9.217   9.981  14.430
13469SOL    HW142240   9.270  10.010  14.356
13469SOL    HW242241   9.135  10.029  14.422
13470SOL     OW42242   4.037  11.060   2.669
13470SOL    HW142243   4.028  11.155   2.657
13470SOL    HW242244   3.948  11.026   2.659
13471SOL     OW42245   6.671  13.714  14.683
13471SOL    HW142246   6.594  13.770  14.696
13471SOL    HW242247   6.640  13.625  14.700
13472SOL     OW42248  13.777   6.638  14.580
13472SOL    HW142249  13.868   6.616  14.601
13472SOL    HW242250  13.731   6.634  14.665
13473SOL     OW42251   0.871   0.181  11.426
13473SOL    HW142252   0.912   0.268  11.426
13473SOL    HW242253   0.778   0.199  11.436
13474SOL     OW42254  12.128  13.445   8.770
13474SOL    HW142255  12.205  13.439   8.827
13474SOL    HW242256  12.145  13.522   8.715
13475SOL     OW42257  10.324   8.155   7.298
13475SOL    HW142258  10.299   8.246   7.317
13475SOL    HW242259  10.394   8.162   7.233
13476SOL     OW42260   9.605   2.470  13.437
13476SOL    HW142261   9.572   2.439  13.521
13476SOL    HW242262   9.537   2.529  13.404
13477SOL     OW42263   1.198   9.575   6.224
13477SOL    HW142264   1.147   9.573   6.304
13477SOL    HW242265   1.286   9.546   6.251
13478SOL     OW42266  13.239   7.932   9.541
13478SOL    HW142267  13.289   7.933   9.460
13478SOL    HW242268  13.288   7.873   9.599
13479SOL     OW42269   4.322  13.402  10.243
13479SOL    HW142270   4.358  13.313  10.239
13479SOL    HW242271   4.387  13.453  10.291
13480SOL     OW42272  11.398   9.847  13.874
13480SOL    HW142273  11.488   9.815  13.872
13480SOL    HW242274  11.388   9.897  13.793
13481SOL     OW42275   2.906   2.473   0.133
13481SOL    HW142276   2.830   2.513   0.174
13481SOL    HW242277   2.874   2.441   0.049
13482SOL     OW42278   7.089   4.670   4.223
13482SOL    HW142279   7.126   4.758   4.209
13482SOL    HW242280   7.157   4.622   4.268
13483SOL     OW42281   4.424  13.358  11.631
13483SOL    HW142282   4.368  13.358  11.709
13483SOL    HW242283   4.442  13.451  11.615
13484SOL     OW42284   3.104   6.234   2.621
13484SOL    HW142285   3.082   6.321   2.654
13484SOL    HW242286   3.022   6.184   2.626
13485SOL     OW42287   2.274  13.266  12.193
13485SOL    HW142288   2.252  13.359  12.179
13485SOL    HW242289   2.218  13.239  12.265
13486SOL     OW42290   2.638   6.664   0.076
13486SOL    HW142291   2.726   6.652   0.039
13486SOL    HW242292   2.653   6.686   0.168
13487SOL     OW42293   1.659   8.317   1.407
13487SOL    HW142294   1.718   8.389   1.382
13487SOL    HW242295   1.614   8.349   1.485
13488SOL     OW42296   3.706   6.102   5.692
13488SOL    HW142297   3.657   6.019   5.687
13488SOL    HW242298   3.760   6.103   5.613
13489SOL     OW42299   2.301  12.242   8.389
13489SOL    HW142300   2.312  12.157   8.346
13489SOL    HW242301   2.268  12.220   8.476
13490SOL     OW42302   6.159   8.478  11.598
13490SOL    HW142303   6.243   8.510  11.565
13490SOL    HW242304   6.133   8.544  11.662
13491SOL     OW42305   8.388   3.800   1.293
13491SOL    HW142306   8.428   3.744   1.226
13491SOL    HW242307   8.327   3.743   1.339
13492SOL     OW42308   7.994   3.560   2.464
13492SOL    HW142309   8.049   3.633   2.434
13492SOL    HW242310   8.014   3.489   2.403
13493SOL     OW42311   6.007   4.513   8.276
13493SOL    HW142312   5.936   4.565   8.314
13493SOL    HW242313   6.085   4.540   8.324
13494SOL     OW42314  12.608  14.044   7.318
13494SOL    HW142315  12.641  14.133   7.303
13494SOL    HW242316  12.557  14.025   7.239
13495SOL     OW42317  14.579   4.341   6.520
13495SOL    HW142318  14.658   4.395   6.521
13495SOL    HW242319  14.612   4.251   6.531
13496SOL     OW42320   9.470  14.850   7.701
13496SOL    HW142321   9.549  14.818   7.744
13496SOL    HW242322   9.403  14.785   7.721
13497SOL     OW42323   7.328  11.312  10.364
13497SOL    HW142324   7.422  11.315  10.382
13497SOL    HW242325   7.311  11.391  10.313
13498SOL     OW42326  12.185  11.512   0.437
13498SOL    HW142327  12.122  11.514   0.509
13498SOL    HW242328  12.166  11.592   0.387
13499SOL     OW42329   7.856  14.422   6.203
13499SOL    HW142330   7.809  14.460   6.129
13499SOL    HW242331   7.815  14.459   6.280
13500SOL     OW42332   2.173   5.642   1.419
13500SOL    HW142333   2.189   5.554   1.452
13500SOL    HW242334   2.078   5.645   1.404
13501SOL     OW42335   2.436   7.954   5.828
13501SOL    HW142336   2.383   7.877   5.848
13501SOL    HW242337   2.495   7.963   5.903
13502SOL     OW42338   8.426   3.322   3.812
13502SOL    HW142339   8.466   3.401   3.775
13502SOL    HW242340   8.372   3.286   3.741
13503SOL     OW42341   8.933   9.370   8.591
13503SOL    HW142342   8.914   9.440   8.653
13503SOL    HW242343   9.020   9.339   8.615
13504SOL     OW42344   0.969   5.322   1.743
13504SOL    HW142345   0.920   5.242   1.725
13504SOL    HW242346   1.059   5.303   1.716
13505SOL     OW42347   5.280   5.392  14.621
13505SOL    HW142348   5.286   5.413  14.528
13505SOL    HW242349   5.238   5.470  14.660
13506SOL     OW42350  11.127   0.645   6.792
13506SOL    HW142351  11.139   0.568   6.737
13506SOL    HW242352  11.042   0.681   6.765
13507SOL     OW42353  14.537  12.773  14.509
13507SOL    HW142354  14.456  12.749  14.463
13507SOL    HW242355  14.587  12.691  14.513
13508SOL     OW42356   5.828  14.551   0.686
13508SOL    HW142357   5.872  14.593   0.760
13508SOL    HW242358   5.878  14.471   0.670
13509SOL     OW42359   1.762  11.978  14.536
13509SOL    HW142360   1.692  11.913  14.527
13509SOL    HW242361   1.750  12.013  14.624
13510SOL     OW42362   1.096   1.862   8.445
13510SOL    HW142363   1.189   1.873   8.461
13510SOL    HW242364   1.053   1.912   8.515
13511SOL     OW42365   5.623   2.810   6.488
13511SOL    HW142366   5.705   2.768   6.514
13511SOL    HW242367   5.556   2.744   6.504
13512SOL     OW42368  10.279   5.889  10.267
13512SOL    HW142369  10.264   5.851  10.354
13512SOL    HW242370  10.241   5.825  10.207
13513SOL     OW42371   3.934  11.543  13.494
13513SOL    HW142372   3.974  11.614  13.545
13513SOL    HW242373   3.917  11.582  13.408
13514SOL     OW42374   4.870   7.685   4.103
13514SOL    HW142375   4.892   7.594   4.086
13514SOL    HW242376   4.924   7.709   4.179
13515SOL     OW42377   6.291  12.122  11.496
13515SOL    HW142378   6.278  12.126  11.591
13515SOL    HW242379   6.362  12.183  11.478
13516SOL     OW42380  12.184  12.859   8.809
13516SOL    HW142381  12.123  12.893   8.874
13516SOL    HW242382  12.129  12.814   8.745
13517SOL     OW42383  11.203   5.587  11.738
13517SOL    HW142384  11.129   5.643  11.712
13517SOL    HW242385  11.252   5.574  11.657
13518SOL     OW42386   6.821  12.441   6.221
13518SOL    HW142387   6.892  12.394   6.177
13518SOL    HW242388   6.834  12.422   6.314
13519SOL     OW42389   6.577   9.255  10.610
13519SOL    HW142390   6.585   9.339  10.657
13519SOL    HW242391   6.533   9.278  10.528
13520SOL     OW42392  14.671   4.159   9.371
13520SOL    HW142393  14.761   4.132   9.353
13520SOL    HW242394  14.656   4.235   9.314
13521SOL     OW42395   9.121   6.024   9.842
13521SOL    HW142396   9.103   5.975   9.762
13521SOL    HW242397   9.182   5.969   9.890
13522SOL     OW42398  12.785   2.010   1.908
13522SOL    HW142399  12.862   2.055   1.874
13522SOL    HW242400  12.789   1.923   1.869
13523SOL     OW42401   5.191   9.129   0.384
13523SOL    HW142402   5.172   9.050   0.334
13523SOL    HW242403   5.280   9.116   0.417
13524SOL     OW42404   1.385   0.534  14.705
13524SOL    HW142405   1.472   0.514  14.742
13524SOL    HW242406   1.365   0.457  14.651
13525SOL     OW42407   6.568   8.872  12.759
13525SOL    HW142408   6.620   8.794  12.779
13525SOL    HW242409   6.547   8.910  12.844
13526SOL     OW42410   4.041  13.573   4.096
13526SOL    HW142411   4.015  13.597   4.185
13526SOL    HW242412   3.962  13.538   4.056
13527SOL     OW42413   5.375   7.217  12.692
13527SOL    HW142414   5.342   7.296  12.733
13527SOL    HW242415   5.464   7.207  12.725
13528SOL     OW42416   3.348   7.640   1.918
13528SOL    HW142417   3.411   7.712   1.926
13528SOL    HW242418   3.390   7.578   1.858
13529SOL     OW42419   6.319   9.615  11.235
13529SOL    HW142420   6.246   9.674  11.217
13529SOL    HW242421   6.310   9.546  11.168
13530SOL     OW42422   2.047   3.933   4.049
13530SOL    HW142423   2.088   3.863   3.998
13530SOL    HW242424   2.002   3.987   3.984
13531SOL     OW42425  13.550  10.045  11.398
13531SOL    HW142426  13.601   9.994  11.461
13531SOL    HW242427  13.570  10.136  11.420
13532SOL     OW42428   9.673  14.113   0.960
13532SOL    HW142429   9.631  14.085   0.879
13532SOL    HW242430   9.601  14.149   1.013
13533SOL     OW42431   8.937   2.068   0.662
13533SOL    HW142432   9.015   2.104   0.705
13533SOL    HW242433   8.870   2.067   0.730
13534SOL     OW42434   8.841   3.347   0.369
13534SOL    HW142435   8.850   3.295   0.289
13534SOL    HW242436   8.860   3.286   0.440
13535SOL     OW42437   2.664   5.487   4.511
13535SOL    HW142438   2.589   5.529   4.552
13535SOL    HW242439   2.740   5.519   4.561
13536SOL     OW42440  10.043  12.157   8.027
13536SOL    HW142441  10.009  12.074   8.061
13536SOL    HW242442  10.029  12.219   8.099
13537SOL     OW42443  11.939   4.416  12.171
13537SOL    HW142444  12.029   4.386  12.186
13537SOL    HW242445  11.945   4.478  12.098
13538SOL     OW42446   0.532   2.335   2.591
13538SOL    HW142447   0.574   2.393   2.528
13538SOL    HW242448   0.540   2.381   2.675
13539SOL     OW42449  10.089  11.873  11.066
13539SOL    HW142450  10.057  11.961  11.088
13539SOL    HW242451  10.027  11.814  11.109
13540SOL     OW42452   4.263   7.060   6.135
13540SOL    HW142453   4.217   7.098   6.060
13540SOL    HW242454   4.351   7.041   6.102
13541SOL     OW42455   8.782   5.374   9.316
13541SOL    HW142456   8.772   5.291   9.362
13541SOL    HW242457   8.828   5.431   9.378
13542SOL     OW42458  13.184  12.463   7.050
13542SOL    HW142459  13.201  12.380   7.093
13542SOL    HW242460  13.092  12.481   7.067
13543SOL     OW42461   6.682  10.119   8.094
13543SOL    HW142462   6.701  10.213   8.090
13543SOL    HW242463   6.688  10.090   8.003
13544SOL     OW42464  12.824   8.047  13.170
13544SOL    HW142465  12.783   8.025  13.253
13544SOL    HW242466  12.754   8.037  13.105
13545SOL     OW42467   2.123  14.455   7.908
13545SOL    HW142468   2.130  14.464   8.003
13545SOL    HW242469   2.214  14.450   7.877
13546SOL     OW42470  12.205  10.084   9.153
13546SOL    HW142471  12.167  10.008   9.110
13546SOL    HW242472  12.295  10.058   9.173
13547SOL     OW42473   1.170  12.973   7.212
13547SOL    HW142474   1.097  12.973   7.150
13547SOL    HW242475   1.133  13.013   7.291
13548SOL     OW42476  13.427  10.075  10.783
13548SOL    HW142477  13.387  10.002  10.736
13548SOL    HW242478  13.520  10.055  10.784
13549SOL     OW42479   3.002   2.099   0.657
13549SOL    HW142480   3.087   2.075   0.622
13549SOL    HW242481   2.969   2.020   0.699
13550SOL     OW42482   3.440  13.908   4.207
13550SOL    HW142483   3.476  13.847   4.271
13550SOL    HW242484   3.416  13.985   4.259
13551SOL     OW42485   0.493   0.482  14.695
13551SOL    HW142486   0.476   0.388  14.687
13551SOL    HW242487   0.462   0.520  14.613
13552SOL     OW42488   5.630  12.269   3.791
13552SOL    HW142489   5.633  12.196   3.729
13552SOL    HW242490   5.561  12.326   3.756
13553SOL     OW42491  10.433  13.317  12.406
13553SOL    HW142492  10.388  13.401  12.417
13553SOL    HW242493  10.387  13.274  12.334
13554SOL     OW42494   2.084   4.254   4.708
13554SOL    HW142495   2.089   4.335   4.657
13554SOL    HW242496   2.016   4.203   4.665
13555SOL     OW42497   2.193   1.123   4.130
13555SOL    HW142498   2.193   1.075   4.047
13555SOL    HW242499   2.246   1.070   4.189
13556SOL     OW42500   4.625   0.916   6.285
13556SOL    HW142501   4.632   0.843   6.346
13556SOL    HW242502   4.667   0.989   6.330
13557SOL     OW42503   1.056   3.994   9.392
13557SOL    HW142504   0.996   3.958   9.327
13557SOL    HW242505   1.054   4.089   9.379
13558SOL     OW42506  14.449   1.314   3.267
13558SOL    HW142507  14.371   1.360   3.297
13558SOL    HW242508  14.501   1.382   3.224
13559SOL     OW42509   0.230   2.082  13.448
13559SOL    HW142510   0.147   2.048  13.479
13559SOL    HW242511   0.274   2.007  13.409
13560SOL     OW42512   2.350   2.369  12.409
13560SOL    HW142513   2.374   2.293  12.462
13560SOL    HW242514   2.261   2.391  12.436
13561SOL     OW42515   9.587   2.202  14.754
13561SOL    HW142516   9.655   2.137  14.771
13561SOL    HW242517   9.506   2.151  14.747
13562SOL     OW42518   0.774   1.163   9.963
13562SOL    HW142519   0.834   1.147  10.035
13562SOL    HW242520   0.811   1.239   9.918
13563SOL     OW42521  10.045  11.761   1.255
13563SOL    HW142522   9.991  11.734   1.181
13563SOL    HW242523  10.034  11.691   1.319
13564SOL     OW42524  11.103  10.196   6.173
13564SOL    HW142525  11.053  10.125   6.133
13564SOL    HW242526  11.048  10.228   6.244
13565SOL     OW42527   3.960  10.173   3.515
13565SOL    HW142528   4.050  10.182   3.547
13565SOL    HW242529   3.910  10.236   3.568
13566SOL     OW42530  10.382   0.106   6.103
13566SOL    HW142531  10.309   0.163   6.078
13566SOL    HW242532  10.391   0.044   6.031
13567SOL     OW42533   9.130   1.030   1.295
13567SOL    HW142534   9.210   0.987   1.326
13567SOL    HW242535   9.156   1.120   1.277
13568SOL     OW42536  14.400   2.514   4.556
13568SOL    HW142537  14.474   2.458   4.537
13568SOL    HW242538  14.394   2.572   4.480
13569SOL     OW42539  13.577   8.289   4.849
13569SOL    HW142540  13.553   8.257   4.763
13569SOL    HW242541  13.580   8.384   4.840
13570SOL     OW42542   0.039  11.759   6.552
13570SOL    HW142543   0.095  11.710   6.612
13570SOL    HW242544  14.829  11.735   6.578
13571SOL     OW42545  12.246   2.740  10.203
13571SOL    HW142546  12.189   2.800  10.250
13571SOL    HW242547  12.332   2.751  10.244
13572SOL     OW42548  11.235  13.761  14.807
13572SOL    HW142549  11.306  13.713  14.849
13572SOL    HW242550  11.160  13.748  14.865
13573SOL     OW42551   1.023   3.930   6.267
13573SOL    HW142552   0.935   3.936   6.232
13573SOL    HW242553   1.051   4.020   6.280
13574SOL     OW42554   9.121   0.952   1.942
13574SOL    HW142555   9.064   0.996   2.005
13574SOL    HW242556   9.098   0.859   1.950
13575SOL     OW42557   2.909  11.457  12.458
13575SOL    HW142558   2.842  11.511  12.417
13575SOL    HW242559   2.939  11.509  12.533
13576SOL     OW42560   3.640  12.951   7.294
13576SOL    HW142561   3.620  12.999   7.214
13576SOL    HW242562   3.593  12.997   7.363
13577SOL     OW42563   7.487  13.005  12.547
13577SOL    HW142564   7.413  13.029  12.491
13577SOL    HW242565   7.460  12.923  12.589
13578SOL     OW42566   8.320   3.060   9.261
13578SOL    HW142567   8.270   3.141   9.270
13578SOL    HW242568   8.379   3.060   9.336
13579SOL     OW42569  14.725  11.236   2.044
13579SOL    HW142570  14.647  11.288   2.023
13579SOL    HW242571  14.779  11.295   2.097
13580SOL     OW42572   1.752   8.089   1.540
13580SOL    HW142573   1.848   8.091   1.543
13580SOL    HW242574   1.727   8.180   1.523
13581SOL     OW42575   9.729   5.506   2.687
13581SOL    HW142576   9.775   5.493   2.769
13581SOL    HW242577   9.797   5.528   2.624
13582SOL     OW42578  14.868  11.052  12.390
13582SOL    HW142579  14.829  11.078  12.306
13582SOL    HW242580  14.853  11.127  12.448
13583SOL     OW42581  11.394   2.673   2.532
13583SOL    HW142582  11.421   2.685   2.623
13583SOL    HW242583  11.300   2.691   2.532
13584SOL     OW42584   8.010   0.055   7.823
13584SOL    HW142585   7.941   0.051   7.756
13584SOL    HW242586   8.058  14.852   7.813
13585SOL     OW42587  10.698  11.948   2.831
13585SOL    HW142588  10.643  11.870   2.829
13585SOL    HW242589  10.649  12.011   2.885
13586SOL     OW42590   1.240   1.737   0.209
13586SOL    HW142591   1.308   1.681   0.246
13586SOL    HW242592   1.167   1.678   0.190
13587SOL     OW42593  11.384  10.689  14.722
13587SOL    HW142594  11.367  10.780  14.698
13587SOL    HW242595  11.477  10.676  14.699
13588SOL     OW42596   4.337  13.848  13.785
13588SOL    HW142597   4.309  13.926  13.738
13588SOL    HW242598   4.410  13.813  13.733
13589SOL     OW42599  14.850  12.987   4.858
13589SOL    HW142600  14.837  12.898   4.889
13589SOL    HW242601   0.026  12.978   4.780
13590SOL     OW42602  11.815  13.144   9.288
13590SOL    HW142603  11.819  13.237   9.265
13590SOL    HW242604  11.726  13.131   9.319
13591SOL     OW42605  14.690   5.501   4.291
13591SOL    HW142606  14.703   5.493   4.197
13591SOL    HW242607  14.630   5.575   4.301
13592SOL     OW42608   5.364   0.284  12.146
13592SOL    HW142609   5.441   0.244  12.184
13592SOL    HW242610   5.306   0.211  12.125
13593SOL     OW42611  12.138   7.634  10.317
13593SOL    HW142612  12.096   7.719  10.310
13593SOL    HW242613  12.071   7.577  10.356
13594SOL     OW42614   9.416   4.508   9.374
13594SOL    HW142615   9.469   4.587   9.364
13594SOL    HW242616   9.332   4.540   9.407
13595SOL     OW42617  14.422  10.736   2.496
13595SOL    HW142618  14.360  10.662   2.501
13595SOL    HW242619  14.370  10.812   2.523
13596SOL     OW42620   5.227   9.929   0.169
13596SOL    HW142621   5.206   9.861   0.233
13596SOL    HW242622   5.170   9.911   0.094
13597SOL     OW42623  11.161  11.624   2.380
13597SOL    HW142624  11.248  11.663   2.370
13597SOL    HW242625  11.142  11.583   2.296
13598SOL     OW42626  11.454   1.123   8.175
13598SOL    HW142627  11.420   1.043   8.215
13598SOL    HW242628  11.544   1.129   8.205
13599SOL     OW42629   2.595   8.652   8.102
13599SOL    HW142630   2.552   8.567   8.114
13599SOL    HW242631   2.523   8.715   8.094
13600SOL     OW42632  10.513   7.934   5.999
13600SOL    HW142633  10.435   7.880   6.012
13600SOL    HW242634  10.487   7.996   5.931
13601SOL     OW42635   4.882   5.824   9.122
13601SOL    HW142636   4.937   5.893   9.086
13601SOL    HW242637   4.932   5.790   9.197
13602SOL     OW42638   3.960  10.380  12.190
13602SOL    HW142639   4.042  10.380  12.239
13602SOL    HW242640   3.976  10.321  12.116
13603SOL     OW42641   6.781  12.445   9.385
13603SOL    HW142642   6.762  12.539   9.385
13603SOL    HW242643   6.822  12.428   9.301
13604SOL     OW42644  11.713  10.937   7.075
13604SOL    HW142645  11.782  10.952   7.011
13604SOL    HW242646  11.736  10.854   7.117
13605SOL     OW42647   2.767   0.426  13.387
13605SOL    HW142648   2.698   0.458  13.445
13605SOL    HW242649   2.778   0.496  13.322
13606SOL     OW42650   5.052  14.690  13.669
13606SOL    HW142651   5.124  14.741  13.634
13606SOL    HW242652   5.015  14.745  13.738
13607SOL     OW42653  11.121  10.734   0.406
13607SOL    HW142654  11.198  10.685   0.378
13607SOL    HW242655  11.104  10.703   0.495
13608SOL     OW42656  14.243  14.445   3.818
13608SOL    HW142657  14.243  14.540   3.826
13608SOL    HW242658  14.176  14.416   3.879
13609SOL     OW42659   4.581  10.536   5.565
13609SOL    HW142660   4.586  10.631   5.559
13609SOL    HW242661   4.673  10.508   5.568
13610SOL     OW42662   2.154   0.744   9.461
13610SOL    HW142663   2.080   0.800   9.437
13610SOL    HW242664   2.133   0.659   9.422
13611SOL     OW42665  14.081   8.839  10.421
13611SOL    HW142666  14.086   8.808  10.330
13611SOL    HW242667  14.073   8.760  10.473
13612SOL     OW42668   2.507   3.286   4.779
13612SOL    HW142669   2.585   3.284   4.724
13612SOL    HW242670   2.459   3.364   4.751
13613SOL     OW42671   9.153  14.433   1.081
13613SOL    HW142672   9.099  14.367   1.123
13613SOL    HW242673   9.237  14.429   1.126
13614SOL     OW42674   5.442  10.893   9.116
13614SOL    HW142675   5.502  10.850   9.178
13614SOL    HW242676   5.439  10.984   9.145
13615SOL     OW42677   9.142   7.547   3.621
13615SOL    HW142678   9.164   7.455   3.636
13615SOL    HW242679   9.224   7.594   3.637
13616SOL     OW42680  13.265   1.259  14.709
13616SOL    HW142681  13.187   1.204  14.698
13616SOL    HW242682  13.268   1.276  14.804
13617SOL     OW42683   7.444   2.241  14.469
13617SOL    HW142684   7.415   2.196  14.389
13617SOL    HW242685   7.524   2.286  14.443
13618SOL     OW42686   7.767  12.016   9.027
13618SOL    HW142687   7.780  11.942   8.967
13618SOL    HW242688   7.679  12.048   9.007
13619SOL     OW42689   0.975   0.025   5.202
13619SOL    HW142690   0.930  14.832   5.246
13619SOL    HW242691   0.979  14.877   5.110
13620SOL     OW42692  10.218  12.946   5.257
13620SOL    HW142693  10.225  12.983   5.169
13620SOL    HW242694  10.258  12.860   5.251
13621SOL     OW42695   1.311   8.128   1.210
13621SOL    HW142696   1.249   8.152   1.141
13621SOL    HW242697   1.314   8.032   1.207
13622SOL     OW42698   7.096  13.395  10.407
13622SOL    HW142699   7.002  13.391  10.427
13622SOL    HW242700   7.116  13.310  10.368
13623SOL     OW42701   3.357  10.230  10.685
13623SOL    HW142702   3.395  10.309  10.724
13623SOL    HW242703   3.368  10.163  10.752
13624SOL     OW42704   1.162  12.584   0.880
13624SOL    HW142705   1.147  12.679   0.891
13624SOL    HW242706   1.249  12.578   0.843
13625SOL     OW42707   0.938   8.680  12.590
13625SOL    HW142708   0.976   8.709  12.507
13625SOL    HW242709   0.953   8.753  12.650
13626SOL     OW42710   4.205   5.197   4.779
13626SOL    HW142711   4.188   5.156   4.694
13626SOL    HW242712   4.159   5.143   4.842
13627SOL     OW42713   4.719   2.579  10.905
13627SOL    HW142714   4.801   2.531  10.913
13627SOL    HW242715   4.679   2.571  10.992
13628SOL     OW42716   7.646   0.214   2.768
13628SOL    HW142717   7.688   0.193   2.852
13628SOL    HW242718   7.555   0.187   2.778
13629SOL     OW42719  13.667   8.356  14.640
13629SOL    HW142720  13.599   8.423  14.645
13629SOL    HW242721  13.721   8.382  14.565
13630SOL     OW42722  11.385   9.679   5.192
13630SOL    HW142723  11.298   9.703   5.161
13630SOL    HW242724  11.397   9.730   5.272
13631SOL     OW42725   5.915   6.196   8.805
13631SOL    HW142726   5.912   6.278   8.854
13631SOL    HW242727   5.824   6.167   8.801
13632SOL     OW42728  11.406   4.059   3.492
13632SOL    HW142729  11.471   4.119   3.529
13632SOL    HW242730  11.403   3.985   3.553
13633SOL     OW42731   5.540   7.666   8.472
13633SOL    HW142732   5.546   7.653   8.378
13633SOL    HW242733   5.539   7.761   8.483
13634SOL     OW42734   1.191   9.347  11.182
13634SOL    HW142735   1.224   9.302  11.259
13634SOL    HW242736   1.111   9.391  11.211
13635SOL     OW42737   2.381   0.101   1.926
13635SOL    HW142738   2.471   0.069   1.934
13635SOL    HW242739   2.327   0.026   1.952
13636SOL     OW42740   2.957   4.893   1.546
13636SOL    HW142741   2.919   4.956   1.607
13636SOL    HW242742   2.899   4.817   1.553
13637SOL     OW42743   5.007   9.479  11.545
13637SOL    HW142744   4.923   9.523  11.536
13637SOL    HW242745   5.062   9.516  11.476
13638SOL     OW42746  12.319   2.115  10.894
13638SOL    HW142747  12.225   2.133  10.890
13638SOL    HW242748  12.330   2.064  10.975
13639SOL     OW42749  12.186  13.777  12.549
13639SOL    HW142750  12.176  13.812  12.638
13639SOL    HW242751  12.172  13.683  12.559
13640SOL     OW42752   3.836  11.148   2.913
13640SOL    HW142753   3.867  11.068   2.870
13640SOL    HW242754   3.742  11.134   2.926
13641SOL     OW42755  10.484   5.804   1.022
13641SOL    HW142756  10.433   5.728   1.051
13641SOL    HW242757  10.554   5.812   1.087
13642SOL     OW42758   0.337   7.502  10.025
13642SOL    HW142759   0.312   7.565   9.957
13642SOL    HW242760   0.292   7.421  10.000
13643SOL     OW42761   8.898  12.427   2.067
13643SOL    HW142762   8.917  12.502   2.124
13643SOL    HW242763   8.813  12.395   2.097
13644SOL     OW42764   0.357   6.782  10.746
13644SOL    HW142765   0.279   6.818  10.704
13644SOL    HW242766   0.325   6.746  10.828
13645SOL     OW42767   4.154  11.441  11.531
13645SOL    HW142768   4.133  11.471  11.442
13645SOL    HW242769   4.114  11.354  11.537
13646SOL     OW42770   8.092   5.935  14.556
13646SOL    HW142771   8.024   5.999  14.533
13646SOL    HW242772   8.148   5.981  14.618
13647SOL     OW42773   5.421   4.758   0.677
13647SOL    HW142774   5.444   4.758   0.584
13647SOL    HW242775   5.326   4.773   0.678
13648SOL     OW42776  12.356   5.198   3.015
13648SOL    HW142777  12.437   5.230   2.975
13648SOL    HW242778  12.383   5.126   3.071
13649SOL     OW42779   2.337  14.475   4.017
13649SOL    HW142780   2.352  14.394   3.968
13649SOL    HW242781   2.323  14.447   4.108
13650SOL     OW42782   1.383  11.979  14.163
13650SOL    HW142783   1.349  11.930  14.088
13650SOL    HW242784   1.374  12.071  14.137
13651SOL     OW42785  12.004   8.638  13.252
13651SOL    HW142786  11.932   8.679  13.206
13651SOL    HW242787  11.992   8.664  13.344
13652SOL     OW42788   2.650   1.269   8.972
13652SOL    HW142789   2.607   1.184   8.968
13652SOL    HW242790   2.743   1.249   8.962
13653SOL     OW42791   3.186   2.825  13.867
13653SOL    HW142792   3.148   2.876  13.938
13653SOL    HW242793   3.275   2.859  13.858
13654SOL     OW42794  13.206   3.264   8.927
13654SOL    HW142795  13.254   3.253   9.009
13654SOL    HW242796  13.182   3.357   8.926
13655SOL     OW42797   3.196   5.507  13.402
13655SOL    HW142798   3.282   5.544  13.383
13655SOL    HW242799   3.213   5.414  13.418
13656SOL     OW42800   9.638  13.388  12.596
13656SOL    HW142801   9.610  13.480  12.599
13656SOL    HW242802   9.715  13.389  12.539
13657SOL     OW42803   4.440   3.377   3.504
13657SOL    HW142804   4.398   3.320   3.440
13657SOL    HW242805   4.526   3.337   3.518
13658SOL     OW42806   8.360  14.323  11.864
13658SOL    HW142807   8.287  14.265  11.882
13658SOL    HW242808   8.357  14.337  11.770
13659SOL     OW42809   4.132   8.207   4.638
13659SOL    HW142810   4.080   8.131   4.666
13659SOL    HW242811   4.089   8.282   4.679
13660SOL     OW42812  14.684   9.405   2.405
13660SOL    HW142813  14.636   9.482   2.376
13660SOL    HW242814  14.615   9.344   2.433
13661SOL     OW42815   3.512   0.413   8.558
13661SOL    HW142816   3.485   0.491   8.607
13661SOL    HW242817   3.512   0.342   8.623
13662SOL     OW42818  13.538   0.237   8.813
13662SOL    HW142819  13.554   0.306   8.750
13662SOL    HW242820  13.573   0.158   8.772
13663SOL     OW42821   8.000   2.738  12.265
13663SOL    HW142822   8.058   2.814  12.261
13663SOL    HW242823   7.955   2.746  12.349
13664SOL     OW42824  11.437   4.589   4.608
13664SOL    HW142825  11.421   4.502   4.572
13664SOL    HW242826  11.523   4.583   4.649
13665SOL     OW42827  11.648  10.836   4.627
13665SOL    HW142828  11.618  10.755   4.585
13665SOL    HW242829  11.569  10.888   4.639
13666SOL     OW42830   7.185  14.023   7.191
13666SOL    HW142831   7.093  14.001   7.180
13666SOL    HW242832   7.188  14.119   7.188
13667SOL     OW42833   0.861   3.397   1.112
13667SOL    HW142834   0.920   3.450   1.166
13667SOL    HW242835   0.781   3.450   1.104
13668SOL     OW42836   7.364  12.290  13.964
13668SOL    HW142837   7.443  12.249  14.000
13668SOL    HW242838   7.327  12.223  13.906
13669SOL     OW42839  10.193   0.285  14.445
13669SOL    HW142840  10.233   0.354  14.497
13669SOL    HW242841  10.108   0.269  14.486
13670SOL     OW42842   4.221   9.637   4.728
13670SOL    HW142843   4.184   9.679   4.650
13670SOL    HW242844   4.309   9.610   4.701
13671SOL     OW42845   8.856   3.705  13.721
13671SOL    HW142846   8.827   3.795  13.706
13671SOL    HW242847   8.938   3.697  13.673
13672SOL     OW42848   1.817   6.178   3.585
13672SOL    HW142849   1.908   6.174   3.611
13672SOL    HW242850   1.793   6.087   3.567
13673SOL     OW42851   2.230   9.525   5.188
13673SOL    HW142852   2.182   9.557   5.112
13673SOL    HW242853   2.185   9.565   5.263
13674SOL     OW42854   5.530  10.429   1.890
13674SOL    HW142855   5.470  10.390   1.954
13674SOL    HW242856   5.559  10.511   1.931
13675SOL     OW42857   0.074   2.227   6.533
13675SOL    HW142858   0.038   2.282   6.603
13675SOL    HW242859   0.144   2.178   6.575
13676SOL     OW42860   9.542   3.080   1.327
13676SOL    HW142861   9.461   3.123   1.299
13676SOL    HW242862   9.532   2.989   1.300
13677SOL     OW42863  13.373  12.434  11.609
13677SOL    HW142864  13.434  12.362  11.627
13677SOL    HW242865  13.389  12.497  11.678
13678SOL     OW42866  11.272  12.900   6.987
13678SOL    HW142867  11.315  12.925   7.068
13678SOL    HW242868  11.189  12.949   6.987
13679SOL     OW42869  14.821  11.600  12.836
13679SOL    HW142870   0.003  11.600  12.909
13679SOL    HW242871  14.823  11.509  12.804
13680SOL     OW42872  10.139   4.362   9.964
13680SOL    HW142873  10.071   4.333  10.024
13680SOL    HW242874  10.120   4.317   9.882
13681SOL     OW42875   5.916   1.005   4.681
13681SOL    HW142876   5.961   1.085   4.653
13681SOL    HW242877   5.965   0.977   4.759
13682SOL     OW42878  14.691   1.968   1.124
13682SOL    HW142879  14.641   1.949   1.204
13682SOL    HW242880  14.629   1.952   1.053
13683SOL     OW42881   0.156   4.094   4.493
13683SOL    HW142882   0.160   4.158   4.564
13683SOL    HW242883   0.184   4.143   4.416
13684SOL     OW42884   2.759   7.358   0.406
13684SOL    HW142885   2.690   7.358   0.472
13684SOL    HW242886   2.781   7.451   0.394
13685SOL     OW42887  11.696   8.597   7.955
13685SOL    HW142888  11.699   8.589   7.860
13685SOL    HW242889  11.658   8.683   7.971
13686SOL     OW42890   3.038   6.041   5.471
13686SOL    HW142891   2.957   6.066   5.517
13686SOL    HW242892   3.015   5.962   5.423
13687SOL     OW42893   5.352   2.871  10.740
13687SOL    HW142894   5.406   2.882  10.662
13687SOL    HW242895   5.410   2.895  10.813
13688SOL     OW42896  14.778   2.914   1.130
13688SOL    HW142897  14.817   2.902   1.216
13688SOL    HW242898  14.690   2.946   1.147
13689SOL     OW42899  12.883  12.676   1.463
13689SOL    HW142900  12.875  12.706   1.373
13689SOL    HW242901  12.944  12.602   1.459
13690SOL     OW42902   9.256  13.857  14.260
13690SOL    HW142903   9.280  13.770  14.290
13690SOL    HW242904   9.322  13.880  14.195
13691SOL     OW42905   1.131  10.708  10.856
13691SOL    HW142906   1.094  10.779  10.803
13691SOL    HW242907   1.054  10.660  10.888
13692SOL     OW42908  11.680  13.593   5.160
13692SOL    HW142909  11.662  13.513   5.111
13692SOL    HW242910  11.687  13.661   5.092
13693SOL     OW42911   3.800   7.742   8.801
13693SOL    HW142912   3.797   7.690   8.881
13693SOL    HW242913   3.749   7.693   8.738
13694SOL     OW42914   9.461   6.915   9.879
13694SOL    HW142915   9.390   6.858   9.851
13694SOL    HW242916   9.469   6.980   9.809
13695SOL     OW42917  10.096   3.368  11.145
13695SOL    HW142918  10.017   3.332  11.185
13695SOL    HW242919  10.105   3.320  11.062
13696SOL     OW42920   1.818   0.465   8.626
13696SOL    HW142921   1.889   0.528   8.636
13696SOL    HW242922   1.805   0.458   8.532
13697SOL     OW42923  13.737   5.977  13.671
13697SOL    HW142924  13.700   6.021  13.594
13697SOL    HW242925  13.826   5.955  13.645
13698SOL     OW42926  11.500   9.845  14.752
13698SOL    HW142927  11.431   9.781  14.769
13698SOL    HW242928  11.461   9.929  14.774
13699SOL     OW42929  12.743   9.614  12.671
13699SOL    HW142930  12.657   9.576  12.689
13699SOL    HW242931  12.789   9.548  12.620
13700SOL     OW42932   5.658   3.711  12.299
13700SOL    HW142933   5.579   3.710  12.353
13700SOL    HW242934   5.653   3.793  12.250
13701SOL     OW42935   7.788  14.125   6.933
13701SOL    HW142936   7.744  14.063   6.992
13701SOL    HW242937   7.776  14.088   6.846
13702SOL     OW42938   1.282   1.706   0.851
13702SOL    HW142939   1.243   1.669   0.930
13702SOL    HW242940   1.213   1.763   0.815
13703SOL     OW42941  10.915   0.965   0.683
13703SOL    HW142942  10.857   0.947   0.609
13703SOL    HW242943  10.856   0.994   0.753
13704SOL     OW42944   4.180   7.159   4.953
13704SOL    HW142945   4.167   7.069   4.922
13704SOL    HW242946   4.227   7.150   5.036
13705SOL     OW42947   6.916  12.124   8.316
13705SOL    HW142948   6.878  12.186   8.377
13705SOL    HW242949   6.852  12.117   8.245
13706SOL     OW42950  10.724   1.695   9.289
13706SOL    HW142951  10.750   1.612   9.330
13706SOL    HW242952  10.668   1.737   9.355
13707SOL     OW42953   5.401   8.485  14.276
13707SOL    HW142954   5.363   8.573  14.273
13707SOL    HW242955   5.457   8.486  14.354
13708SOL     OW42956  12.369  13.396   7.427
13708SOL    HW142957  12.284  13.381   7.386
13708SOL    HW242958  12.389  13.487   7.409
13709SOL     OW42959   2.333  10.715   8.280
13709SOL    HW142960   2.292  10.662   8.211
13709SOL    HW242961   2.342  10.802   8.241
13710SOL     OW42962   0.418   5.490   5.232
13710SOL    HW142963   0.402   5.585   5.224
13710SOL    HW242964   0.336   5.456   5.268
13711SOL     OW42965  10.377   2.264  14.632
13711SOL    HW142966  10.376   2.226  14.720
13711SOL    HW242967  10.316   2.337  14.637
13712SOL     OW42968   4.451   2.548   4.664
13712SOL    HW142969   4.385   2.585   4.722
13712SOL    HW242970   4.485   2.472   4.711
13713SOL     OW42971  14.017   7.840   3.054
13713SOL    HW142972  13.963   7.906   3.012
13713SOL    HW242973  14.100   7.842   3.006
13714SOL     OW42974   8.438  13.117  14.190
13714SOL    HW142975   8.396  13.073  14.116
13714SOL    HW242976   8.486  13.190  14.150
13715SOL     OW42977  10.285   2.831   1.868
13715SOL    HW142978  10.275   2.858   1.777
13715SOL    HW242979  10.317   2.909   1.913
13716SOL     OW42980  11.946   1.878   3.788
13716SOL    HW142981  11.975   1.957   3.744
13716SOL    HW242982  11.904   1.826   3.719
13717SOL     OW42983  11.119   6.705   4.946
13717SOL    HW142984  11.109   6.651   5.025
13717SOL    HW242985  11.031   6.737   4.927
13718SOL     OW42986   3.334  12.639   5.527
13718SOL    HW142987   3.337  12.545   5.512
13718SOL    HW242988   3.413  12.673   5.483
13719SOL     OW42989   3.513   4.068   9.213
13719SOL    HW142990   3.438   4.034   9.261
13719SOL    HW242991   3.573   3.994   9.206
13720SOL     OW42992  12.794   3.263   0.832
13720SOL    HW142993  12.838   3.328   0.778
13720SOL    HW242994  12.795   3.301   0.920
13721SOL     OW42995  11.951   2.805   2.089
13721SOL    HW142996  11.884   2.740   2.110
13721SOL    HW242997  11.922   2.842   2.005
13722SOL     OW42998  11.162  13.218  10.659
13722SOL    HW142999  11.178  13.206  10.752
13722SOL    HW243000  11.246  13.245  10.623
13723SOL     OW43001   4.354   5.312   8.527
13723SOL    HW143002   4.434   5.333   8.479
13723SOL    HW243003   4.308   5.251   8.470
13724SOL     OW43004  14.840  13.373  10.304
13724SOL    HW143005  14.852  13.367  10.399
13724SOL    HW243006  14.745  13.369  10.291
13725SOL     OW43007  10.464  10.786   5.478
13725SOL    HW143008  10.511  10.712   5.516
13725SOL    HW243009  10.525  10.860   5.484
13726SOL     OW43010   2.146   4.290   7.849
13726SOL    HW143011   2.186   4.351   7.911
13726SOL    HW243012   2.068   4.336   7.817
13727SOL     OW43013  10.642   1.848   9.530
13727SOL    HW143014  10.646   1.768   9.582
13727SOL    HW243015  10.550   1.872   9.530
13728SOL     OW43016  13.585   6.755   2.257
13728SOL    HW143017  13.576   6.850   2.267
13728SOL    HW243018  13.652   6.745   2.189
13729SOL     OW43019   7.534   0.816   3.248
13729SOL    HW143020   7.623   0.793   3.274
13729SOL    HW243021   7.522   0.772   3.164
13730SOL     OW43022   0.103  14.652  11.691
13730SOL    HW143023   0.122  14.643  11.598
13730SOL    HW243024   0.010  14.627  11.699
13731SOL     OW43025   1.919  13.861   2.449
13731SOL    HW143026   1.951  13.935   2.501
13731SOL    HW243027   1.996  13.831   2.401
13732SOL     OW43028   5.535   4.992  14.401
13732SOL    HW143029   5.543   5.031  14.488
13732SOL    HW243030   5.490   4.909  14.416
13733SOL     OW43031  11.364   1.253   0.989
13733SOL    HW143032  11.285   1.293   1.027
13733SOL    HW243033  11.370   1.291   0.901
13734SOL     OW43034   8.899   5.577  13.887
13734SOL    HW143035   8.870   5.668  13.880
13734SOL    HW243036   8.952   5.563  13.808
13735SOL     OW43037  11.895  13.060   6.505
13735SOL    HW143038  11.969  13.090   6.452
13735SOL    HW243039  11.933  13.038   6.590
13736SOL     OW43040   4.264   4.861   0.494
13736SOL    HW143041   4.350   4.886   0.528
13736SOL    HW243042   4.230   4.941   0.456
13737SOL     OW43043  12.893  10.139   4.554
13737SOL    HW143044  12.802  10.134   4.525
13737SOL    HW243045  12.888  10.121   4.648
13738SOL     OW43046   8.343   1.414  14.496
13738SOL    HW143047   8.319   1.457  14.578
13738SOL    HW243048   8.431   1.380  14.512
13739SOL     OW43049   8.658  11.125  12.941
13739SOL    HW143050   8.628  11.164  13.022
13739SOL    HW243051   8.648  11.030  12.955
13740SOL     OW43052  10.045   0.743  12.722
13740SOL    HW143053   9.969   0.774  12.771
13740SOL    HW243054  10.018   0.656  12.690
13741SOL     OW43055   5.035  14.694   9.388
13741SOL    HW143056   5.127  14.674   9.369
13741SOL    HW243057   4.992  14.609   9.394
13742SOL     OW43058  12.212   1.748   3.849
13742SOL    HW143059  12.186   1.680   3.912
13742SOL    HW243060  12.130   1.781   3.814
13743SOL     OW43061   0.876  14.450   4.103
13743SOL    HW143062   0.931  14.401   4.163
13743SOL    HW243063   0.793  14.403   4.102
13744SOL     OW43064   3.097   9.327  10.979
13744SOL    HW143065   3.040   9.319  11.055
13744SOL    HW243066   3.043   9.375  10.915
13745SOL     OW43067  10.979   0.360   9.096
13745SOL    HW143068  10.919   0.435   9.102
13745SOL    HW243069  11.057   0.396   9.055
13746SOL     OW43070  12.732   3.134   2.970
13746SOL    HW143071  12.680   3.112   2.893
13746SOL    HW243072  12.803   3.069   2.970
13747SOL     OW43073   1.651   8.122   5.136
13747SOL    HW143074   1.737   8.091   5.106
13747SOL    HW243075   1.616   8.170   5.061
13748SOL     OW43076  13.926   0.928   7.624
13748SOL    HW143077  13.841   0.922   7.669
13748SOL    HW243078  13.913   0.880   7.542
13749SOL     OW43079   7.134  14.115  11.509
13749SOL    HW143080   7.122  14.196  11.460
13749SOL    HW243081   7.198  14.065  11.458
13750SOL     OW43082  12.852   6.722   8.420
13750SOL    HW143083  12.810   6.691   8.340
13750SOL    HW243084  12.942   6.741   8.393
13751SOL     OW43085  10.971   2.335  13.900
13751SOL    HW143086  11.048   2.323  13.956
13751SOL    HW243087  10.906   2.276  13.936
13752SOL     OW43088   0.797  14.297   1.778
13752SOL    HW143089   0.748  14.302   1.861
13752SOL    HW243090   0.875  14.245   1.800
13753SOL     OW43091   0.566  14.479  13.741
13753SOL    HW143092   0.603  14.566  13.724
13753SOL    HW243093   0.630  14.418  13.705
13754SOL     OW43094  13.746  11.863   6.425
13754SOL    HW143095  13.723  11.886   6.336
13754SOL    HW243096  13.699  11.781   6.442
13755SOL     OW43097   6.884   1.775   2.932
13755SOL    HW143098   6.832   1.848   2.897
13755SOL    HW243099   6.862   1.773   3.025
13756SOL     OW43100   8.661  13.653   2.212
13756SOL    HW143101   8.650  13.675   2.305
13756SOL    HW243102   8.591  13.702   2.168
13757SOL     OW43103  12.161   4.294   3.074
13757SOL    HW143104  12.141   4.384   3.100
13757SOL    HW243105  12.135   4.241   3.149
13758SOL     OW43106   2.500  10.962  14.779
13758SOL    HW143107   2.438  10.894  14.806
13758SOL    HW243108   2.583  10.916  14.767
13759SOL     OW43109   1.609  11.857  12.486
13759SOL    HW143110   1.580  11.809  12.408
13759SOL    HW243111   1.607  11.949  12.460
13760SOL     OW43112   8.913  10.475   3.058
13760SOL    HW143113   8.986  10.469   3.119
13760SOL    HW243114   8.836  10.484   3.114
13761SOL     OW43115  13.182   7.872   6.752
13761SOL    HW143116  13.178   7.955   6.799
13761SOL    HW243117  13.137   7.810   6.810
13762SOL     OW43118   1.805   6.052   5.180
13762SOL    HW143119   1.770   6.080   5.095
13762SOL    HW243120   1.853   5.972   5.161
13763SOL     OW43121   2.662   6.302  10.899
13763SOL    HW143122   2.637   6.356  10.824
13763SOL    HW243123   2.580   6.283  10.943
13764SOL     OW43124   3.298   7.718   0.391
13764SOL    HW143125   3.385   7.690   0.420
13764SOL    HW243126   3.239   7.693   0.462
13765SOL     OW43127  13.037   8.847   1.868
13765SOL    HW143128  12.980   8.893   1.930
13765SOL    HW243129  13.117   8.900   1.865
13766SOL     OW43130  12.837  10.274  13.007
13766SOL    HW143131  12.741  10.279  13.012
13766SOL    HW243132  12.859  10.319  12.925
13767SOL     OW43133   9.591   1.872  11.057
13767SOL    HW143134   9.673   1.843  11.096
13767SOL    HW243135   9.592   1.835  10.968
13768SOL     OW43136   0.556   6.460   7.627
13768SOL    HW143137   0.558   6.536   7.685
13768SOL    HW243138   0.646   6.450   7.596
13769SOL     OW43139   1.607  11.354   2.507
13769SOL    HW143140   1.679  11.413   2.484
13769SOL    HW243141   1.531  11.412   2.517
13770SOL     OW43142  10.966   9.115  10.954
13770SOL    HW143143  10.996   9.187  11.008
13770SOL    HW243144  11.032   9.046  10.965
13771SOL     OW43145  10.314  14.526   0.599
13771SOL    HW143146  10.319  14.602   0.656
13771SOL    HW243147  10.382  14.466   0.632
13772SOL     OW43148   7.596   6.043   5.663
13772SOL    HW143149   7.640   6.120   5.627
13772SOL    HW243150   7.507   6.074   5.681
13773SOL     OW43151   7.226   8.963   0.216
13773SOL    HW143152   7.189   9.004   0.138
13773SOL    HW243153   7.292   9.025   0.246
13774SOL     OW43154   8.940   1.389  14.088
13774SOL    HW143155   9.033   1.368  14.092
13774SOL    HW243156   8.917   1.415  14.177
13775SOL     OW43157  10.213   4.841  12.755
13775SOL    HW143158  10.283   4.861  12.692
13775SOL    HW243159  10.213   4.915  12.815
13776SOL     OW43160   8.479  11.234  13.783
13776SOL    HW143161   8.432  11.317  13.790
13776SOL    HW243162   8.409  11.168  13.778
13777SOL     OW43163  13.880  13.609   3.658
13777SOL    HW143164  13.837  13.692   3.637
13777SOL    HW243165  13.866  13.598   3.752
13778SOL     OW43166  13.637  11.144   1.858
13778SOL    HW143167  13.542  11.152   1.867
13778SOL    HW243168  13.656  11.178   1.770
13779SOL     OW43169  12.371   3.338   5.009
13779SOL    HW143170  12.423   3.308   4.934
13779SOL    HW243171  12.297   3.385   4.970
13780SOL     OW43172   1.503  14.117   2.900
13780SOL    HW143173   1.533  14.042   2.849
13780SOL    HW243174   1.410  14.125   2.879
13781SOL     OW43175   9.388   5.005   6.535
13781SOL    HW143176   9.366   5.066   6.464
13781SOL    HW243177   9.387   4.919   6.494
13782SOL     OW43178  11.180   4.875   6.071
13782SOL    HW143179  11.115   4.932   6.030
13782SOL    HW243180  11.263   4.919   6.056
13783SOL     OW43181   1.125  12.100  11.396
13783SOL    HW143182   1.089  12.054  11.320
13783SOL    HW243183   1.056  12.095  11.462
13784SOL     OW43184  12.666   0.883  13.367
13784SOL    HW143185  12.626   0.896  13.453
13784SOL    HW243186  12.656   0.967  13.323
13785SOL     OW43187   9.920  10.837  10.786
13785SOL    HW143188   9.834  10.858  10.751
13785SOL    HW243189   9.940  10.750  10.750
13786SOL     OW43190  12.370   3.243  14.850
13786SOL    HW143191  12.417   3.208  14.774
13786SOL    HW243192  12.353   3.166   0.026
13787SOL     OW43193   0.951  11.476  11.072
13787SOL    HW143194   0.886  11.417  11.110
13787SOL    HW243195   1.031  11.458  11.121
13788SOL     OW43196   8.538  11.387   2.481
13788SOL    HW143197   8.556  11.301   2.444
13788SOL    HW243198   8.610  11.442   2.449
13789SOL     OW43199  13.998  12.183  13.596
13789SOL    HW143200  13.977  12.239  13.671
13789SOL    HW243201  14.088  12.205  13.574
13790SOL     OW43202   7.193   5.047  14.465
13790SOL    HW143203   7.180   5.138  14.489
13790SOL    HW243204   7.210   5.049  14.370
13791SOL     OW43205   8.071   8.626  13.820
13791SOL    HW143206   8.110   8.667  13.743
13791SOL    HW243207   8.138   8.635  13.888
13792SOL     OW43208  10.127   8.767   2.763
13792SOL    HW143209  10.197   8.829   2.782
13792SOL    HW243210  10.120   8.768   2.667
13793SOL     OW43211   0.213   9.796   1.390
13793SOL    HW143212   0.294   9.813   1.438
13793SOL    HW243213   0.190   9.879   1.350
13794SOL     OW43214   5.985   0.372  10.023
13794SOL    HW143215   5.996   0.438  10.091
13794SOL    HW243216   5.910   0.401   9.972
13795SOL     OW43217  14.869   3.009   5.070
13795SOL    HW143218  14.855   3.006   5.164
13795SOL    HW243219  14.831   2.927   5.037
13796SOL     OW43220   2.419   5.654  12.060
13796SOL    HW143221   2.348   5.686  12.116
13796SOL    HW243222   2.495   5.705  12.086
13797SOL     OW43223   8.361   7.159   7.174
13797SOL    HW143224   8.361   7.230   7.111
13797SOL    HW243225   8.445   7.116   7.163
13798SOL     OW43226   7.905   3.998   2.516
13798SOL    HW143227   7.841   3.960   2.576
13798SOL    HW243228   7.924   4.085   2.551
13799SOL     OW43229   9.719   1.405   9.315
13799SOL    HW143230   9.756   1.446   9.237
13799SOL    HW243231   9.639   1.363   9.285
13800SOL     OW43232   7.425  10.759   3.942
13800SOL    HW143233   7.495  10.736   3.880
13800SOL    HW243234   7.457  10.730   4.027
13801SOL     OW43235   5.358   5.098   2.268
13801SOL    HW143236   5.328   5.026   2.322
13801SOL    HW243237   5.375   5.059   2.183
13802SOL     OW43238  12.624   3.515   3.173
13802SOL    HW143239  12.552   3.553   3.123
13802SOL    HW243240  12.624   3.564   3.255
13803SOL     OW43241   4.143   9.104   0.719
13803SOL    HW143242   4.181   9.189   0.738
13803SOL    HW243243   4.163   9.050   0.796
13804SOL     OW43244   3.587   2.748   4.954
13804SOL    HW143245   3.616   2.662   4.985
13804SOL    HW243246   3.529   2.728   4.880
13805SOL     OW43247  14.814   1.906   2.439
13805SOL    HW143248  14.863   1.989   2.441
13805SOL    HW243249  14.729   1.928   2.478
13806SOL     OW43250  10.186   4.718   5.199
13806SOL    HW143251  10.263   4.668   5.229
13806SOL    HW243252  10.136   4.735   5.279
13807SOL     OW43253   7.710  11.291   4.840
13807SOL    HW143254   7.666  11.206   4.846
13807SOL    HW243255   7.732  11.300   4.747
13808SOL     OW43256  11.555   1.768   0.808
13808SOL    HW143257  11.509   1.725   0.880
13808SOL    HW243258  11.647   1.745   0.819
13809SOL     OW43259   2.829  12.440   3.676
13809SOL    HW143260   2.761  12.376   3.657
13809SOL    HW243261   2.910  12.390   3.674
13810SOL     OW43262   5.475   0.749  11.420
13810SOL    HW143263   5.561   0.726  11.457
13810SOL    HW243264   5.477   0.844  11.415
13811SOL     OW43265  12.934   4.678  12.917
13811SOL    HW143266  12.843   4.685  12.888
13811SOL    HW243267  12.960   4.589  12.891
13812SOL     OW43268   1.680  10.404   6.678
13812SOL    HW143269   1.747  10.344   6.710
13812SOL    HW243270   1.604  10.389   6.734
13813SOL     OW43271  12.194   2.339   9.308
13813SOL    HW143272  12.153   2.304   9.229
13813SOL    HW243273  12.174   2.274   9.376
13814SOL     OW43274  11.342   4.006   1.193
13814SOL    HW143275  11.368   4.039   1.279
13814SOL    HW243276  11.423   4.003   1.143
13815SOL     OW43277  13.985  12.810   6.432
13815SOL    HW143278  14.069  12.835   6.394
13815SOL    HW243279  13.922  12.822   6.361
13816SOL     OW43280  11.546   1.824   5.616
13816SOL    HW143281  11.571   1.750   5.670
13816SOL    HW243282  11.454   1.809   5.594
13817SOL     OW43283   6.102   6.352   6.865
13817SOL    HW143284   6.159   6.313   6.798
13817SOL    HW243285   6.160   6.411   6.913
13818SOL     OW43286   1.026   1.494  13.900
13818SOL    HW143287   1.081   1.529  13.970
13818SOL    HW243288   0.967   1.433  13.943
13819SOL     OW43289   8.942   3.166   1.811
13819SOL    HW143290   8.951   3.103   1.740
13819SOL    HW243291   8.926   3.113   1.889
13820SOL     OW43292   3.378  10.934   1.347
13820SOL    HW143293   3.453  10.947   1.405
13820SOL    HW243294   3.383  10.842   1.322
13821SOL     OW43295   5.680  14.479   6.610
13821SOL    HW143296   5.689  14.395   6.654
13821SOL    HW243297   5.736  14.539   6.660
13822SOL     OW43298  10.744   1.488   2.642
13822SOL    HW143299  10.735   1.442   2.558
13822SOL    HW243300  10.666   1.543   2.647
13823SOL     OW43301   6.612  10.764   2.039
13823SOL    HW143302   6.529  10.717   2.038
13823SOL    HW243303   6.678  10.696   2.025
13824SOL     OW43304   8.806  12.586  10.178
13824SOL    HW143305   8.770  12.636  10.105
13824SOL    HW243306   8.888  12.550  10.143
13825SOL     OW43307   9.490   9.573   6.795
13825SOL    HW143308   9.578   9.540   6.813
13825SOL    HW243309   9.451   9.584   6.882
13826SOL     OW43310   1.398   7.378   7.351
13826SOL    HW143311   1.379   7.345   7.439
13826SOL    HW243312   1.328   7.441   7.333
13827SOL     OW43313   3.075   3.467  14.662
13827SOL    HW143314   3.067   3.383  14.616
13827SOL    HW243315   3.154   3.456  14.716
13828SOL     OW43316  14.146   9.292  10.388
13828SOL    HW143317  14.233   9.255  10.399
13828SOL    HW243318  14.153   9.349  10.312
13829SOL     OW43319  12.280   1.679   3.098
13829SOL    HW143320  12.255   1.615   3.166
13829SOL    HW243321  12.315   1.753   3.147
13830SOL     OW43322   4.012   8.606   6.996
13830SOL    HW143323   3.978   8.517   7.013
13830SOL    HW243324   4.097   8.592   6.956
13831SOL     OW43325  12.327   6.127   3.718
13831SOL    HW143326  12.346   6.201   3.775
13831SOL    HW243327  12.254   6.082   3.760
13832SOL     OW43328  10.509   0.517   3.005
13832SOL    HW143329  10.488   0.424   3.013
13832SOL    HW243330  10.543   0.526   2.915
13833SOL     OW43331   3.794   5.389   5.781
13833SOL    HW143332   3.747   5.461   5.824
13833SOL    HW243333   3.886   5.409   5.795
13834SOL     OW43334  14.164  12.452   9.446
13834SOL    HW143335  14.107  12.397   9.392
13834SOL    HW243336  14.159  12.414   9.533
13835SOL     OW43337  11.603   4.689   5.998
13835SOL    HW143338  11.637   4.618   6.053
13835SOL    HW243339  11.639   4.671   5.911
13836SOL     OW43340   8.303  13.326   8.308
13836SOL    HW143341   8.269  13.236   8.304
13836SOL    HW243342   8.344  13.333   8.394
13837SOL     OW43343   2.543  10.241   2.802
13837SOL    HW143344   2.473  10.213   2.743
13837SOL    HW243345   2.509  10.319   2.845
13838SOL     OW43346  12.249   1.340   8.621
13838SOL    HW143347  12.315   1.351   8.689
13838SOL    HW243348  12.289   1.280   8.558
13839SOL     OW43349  10.223   5.117  13.716
13839SOL    HW143350  10.130   5.129  13.737
13839SOL    HW243351  10.258   5.069  13.791
13840SOL     OW43352   8.488   7.203   0.609
13840SOL    HW143353   8.529   7.179   0.692
13840SOL    HW243354   8.555   7.186   0.543
13841SOL     OW43355  10.419   6.069   0.899
13841SOL    HW143356  10.482   6.110   0.958
13841SOL    HW243357  10.421   5.976   0.922
13842SOL     OW43358   3.170   3.990   2.534
13842SOL    HW143359   3.120   4.057   2.580
13842SOL    HW243360   3.103   3.931   2.497
13843SOL     OW43361  14.599   7.272   5.611
13843SOL    HW143362  14.523   7.328   5.595
13843SOL    HW243363  14.587   7.239   5.700
13844SOL     OW43364  11.369   8.375  12.335
13844SOL    HW143365  11.299   8.325  12.293
13844SOL    HW243366  11.444   8.367  12.276
13845SOL     OW43367  13.326   5.277  10.456
13845SOL    HW143368  13.392   5.252  10.520
13845SOL    HW243369  13.376   5.315  10.384
13846SOL     OW43370  10.054   7.778   4.710
13846SOL    HW143371   9.982   7.716   4.722
13846SOL    HW243372  10.024   7.858   4.753
13847SOL     OW43373  12.542   7.001   7.724
13847SOL    HW143374  12.473   6.937   7.707
13847SOL    HW243375  12.615   6.973   7.669
13848SOL     OW43376  11.909  12.570   2.062
13848SOL    HW143377  11.954  12.487   2.051
13848SOL    HW243378  11.828  12.548   2.108
13849SOL     OW43379   9.751  11.960   5.712
13849SOL    HW143380   9.809  12.011   5.656
13849SOL    HW243381   9.664  11.999   5.698
13850SOL     OW43382   9.357   3.062   8.914
13850SOL    HW143383   9.399   3.148   8.911
13850SOL    HW243384   9.283   3.070   8.854
13851SOL     OW43385   2.880   5.913   9.795
13851SOL    HW143386   2.915   5.908   9.706
13851SOL    HW243387   2.930   5.848   9.844
13852SOL     OW43388   4.826   3.768   5.415
13852SOL    HW143389   4.828   3.801   5.505
13852SOL    HW243390   4.816   3.847   5.361
13853SOL     OW43391  11.967   0.417   2.236
13853SOL    HW143392  11.936   0.329   2.256
13853SOL    HW243393  12.060   0.415   2.256
13854SOL     OW43394   3.723   8.061   0.106
13854SOL    HW143395   3.685   8.010   0.034
13854SOL    HW243396   3.739   8.147   0.068
13855SOL     OW43397  10.301  12.475   1.678
13855SOL    HW143398  10.231  12.513   1.731
13855SOL    HW243399  10.267  12.479   1.588
13856SOL     OW43400  14.834   2.657   9.134
13856SOL    HW143401  14.803   2.664   9.044
13856SOL    HW243402  14.754   2.654   9.186
13857SOL     OW43403   2.802  13.728   8.630
13857SOL    HW143404   2.887  13.723   8.587
13857SOL    HW243405   2.821  13.757   8.719
13858SOL     OW43406  11.471  11.597   2.726
13858SOL    HW143407  11.376  11.600   2.728
13858SOL    HW243408  11.491  11.534   2.656
13859SOL     OW43409  13.134   8.558   2.793
13859SOL    HW143410  13.095   8.618   2.730
13859SOL    HW243411  13.117   8.471   2.757
13860SOL     OW43412   5.757   5.204   0.006
13860SOL    HW143413   5.693   5.170  14.822
13860SOL    HW243414   5.826   5.139   0.009
13861SOL     OW43415   3.576   0.859   8.573
13861SOL    HW143416   3.517   0.797   8.616
13861SOL    HW243417   3.595   0.925   8.641
13862SOL     OW43418  10.448   9.974  13.237
13862SOL    HW143419  10.482   9.994  13.325
13862SOL    HW243420  10.404   9.890  13.247
13863SOL     OW43421   7.037  11.550   4.571
13863SOL    HW143422   7.124  11.541   4.610
13863SOL    HW243423   6.978  11.564   4.645
13864SOL     OW43424   6.720  13.605   2.025
13864SOL    HW143425   6.786  13.608   2.094
13864SOL    HW243426   6.669  13.686   2.036
13865SOL     OW43427  14.856   3.407   8.934
13865SOL    HW143428   0.065   3.399   8.899
13865SOL    HW243429  14.841   3.324   8.980
13866SOL     OW43430   4.497   7.284   9.699
13866SOL    HW143431   4.575   7.320   9.740
13866SOL    HW243432   4.431   7.285   9.768
13867SOL     OW43433  10.910   4.109  13.778
13867SOL    HW143434  10.970   4.138  13.709
13867SOL    HW243435  10.830   4.085  13.732
13868SOL     OW43436   6.508  12.941   5.508
13868SOL    HW143437   6.512  12.846   5.522
13868SOL    HW243438   6.588  12.974   5.549
13869SOL     OW43439   3.808   8.828  13.060
13869SOL    HW143440   3.888   8.872  13.032
13869SOL    HW243441   3.758   8.895  13.107
13870SOL     OW43442   1.635  10.595  11.383
13870SOL    HW143443   1.586  10.612  11.302
13870SOL    HW243444   1.722  10.629  11.365
13871SOL     OW43445   1.310  11.811   8.998
13871SOL    HW143446   1.365  11.759   9.057
13871SOL    HW243447   1.229  11.760   8.991
13872SOL     OW43448   7.700   7.018   7.614
13872SOL    HW143449   7.710   7.071   7.535
13872SOL    HW243450   7.701   6.928   7.583
13873SOL     OW43451  13.339   7.425  13.340
13873SOL    HW143452  13.328   7.520  13.331
13873SOL    HW243453  13.252   7.394  13.367
13874SOL     OW43454   4.053   0.641   5.367
13874SOL    HW143455   4.041   0.735   5.349
13874SOL    HW243456   4.137   0.620   5.327
13875SOL     OW43457   5.435   7.572   3.137
13875SOL    HW143458   5.456   7.568   3.043
13875SOL    HW243459   5.340   7.570   3.140
13876SOL     OW43460   4.920  12.254   1.240
13876SOL    HW143461   4.927  12.222   1.330
13876SOL    HW243462   5.004  12.231   1.200
13877SOL     OW43463  12.597   0.052   1.116
13877SOL    HW143464  12.508   0.017   1.118
13877SOL    HW243465  12.599   0.117   1.186
13878SOL     OW43466   0.324   4.912   4.529
13878SOL    HW143467   0.237   4.880   4.506
13878SOL    HW243468   0.371   4.834   4.558
13879SOL     OW43469   3.045   5.059  14.256
13879SOL    HW143470   3.112   5.025  14.315
13879SOL    HW243471   2.970   5.001  14.269
13880SOL     OW43472   5.987   5.882   7.380
13880SOL    HW143473   5.969   5.873   7.474
13880SOL    HW243474   6.080   5.904   7.376
13881SOL     OW43475   9.006   0.137  10.796
13881SOL    HW143476   9.056   0.210  10.762
13881SOL    HW243477   9.044   0.119  10.882
13882SOL     OW43478   4.919   8.252   1.264
13882SOL    HW143479   4.841   8.292   1.224
13882SOL    HW243480   4.945   8.184   1.201
13883SOL     OW43481   6.981   4.514   2.130
13883SOL    HW143482   7.025   4.559   2.057
13883SOL    HW243483   7.016   4.556   2.208
13884SOL     OW43484  13.121   8.351   5.818
13884SOL    HW143485  13.050   8.302   5.777
13884SOL    HW243486  13.116   8.439   5.780
13885SOL     OW43487   0.775  10.845   7.920
13885SOL    HW143488   0.795  10.907   7.850
13885SOL    HW243489   0.791  10.894   8.001
13886SOL     OW43490   1.460   1.610   7.939
13886SOL    HW143491   1.421   1.626   7.853
13886SOL    HW243492   1.415   1.532   7.972
13887SOL     OW43493   5.447   6.366   9.006
13887SOL    HW143494   5.464   6.456   8.977
13887SOL    HW243495   5.503   6.355   9.083
13888SOL     OW43496   4.791   1.302   2.150
13888SOL    HW143497   4.707   1.347   2.143
13888SOL    HW243498   4.853   1.371   2.171
13889SOL     OW43499   4.106   2.904   4.467
13889SOL    HW143500   4.044   2.852   4.415
13889SOL    HW243501   4.188   2.900   4.418
13890SOL     OW43502  12.772   2.594   9.033
13890SOL    HW143503  12.698   2.640   9.071
13890SOL    HW243504  12.737   2.510   9.004
13891SOL     OW43505   2.308   4.516  13.716
13891SOL    HW143506   2.237   4.576  13.738
13891SOL    HW243507   2.276   4.430  13.745
13892SOL     OW43508   7.955   3.452   1.596
13892SOL    HW143509   7.925   3.542   1.609
13892SOL    HW243510   7.878   3.398   1.614
13893SOL     OW43511   9.936  13.577   7.705
13893SOL    HW143512   9.944  13.482   7.713
13893SOL    HW243513   9.927  13.592   7.611
13894SOL     OW43514  11.847  12.380   9.198
13894SOL    HW143515  11.802  12.302   9.166
13894SOL    HW243516  11.940  12.358   9.189
13895SOL     OW43517  13.527  14.509   8.811
13895SOL    HW143518  13.583  14.559   8.752
13895SOL    HW243519  13.489  14.441   8.756
13896SOL     OW43520   6.046  13.236   9.358
13896SOL    HW143521   6.022  13.147   9.385
13896SOL    HW243522   6.140  13.231   9.339
13897SOL     OW43523   2.663   6.437  10.062
13897SOL    HW143524   2.707   6.424   9.978
13897SOL    HW243525   2.607   6.360  10.071
13898SOL     OW43526   8.472   1.550  12.257
13898SOL    HW143527   8.459   1.467  12.304
13898SOL    HW243528   8.416   1.613  12.303
13899SOL     OW43529  11.405  12.974   9.296
13899SOL    HW143530  11.313  12.954   9.276
13899SOL    HW243531  11.438  13.019   9.218
13900SOL     OW43532   1.454   8.173   0.298
13900SOL    HW143533   1.382   8.234   0.313
13900SOL    HW243534   1.501   8.170   0.381
13901SOL     OW43535   6.154   7.411   8.741
13901SOL    HW143536   6.160   7.360   8.822
13901SOL    HW243537   6.240   7.451   8.731
13902SOL     OW43538   4.297   5.336   5.559
13902SOL    HW143539   4.212   5.301   5.587
13902SOL    HW243540   4.361   5.290   5.613
13903SOL     OW43541   0.035   6.988   7.073
13903SOL    HW143542   0.041   6.920   7.140
13903SOL    HW243543  14.822   7.014   7.074
13904SOL     OW43544   2.753  13.842  10.261
13904SOL    HW143545   2.846  13.864  10.251
13904SOL    HW243546   2.708  13.926  10.251
13905SOL     OW43547   2.430  11.789   0.597
13905SOL    HW143548   2.421  11.884   0.608
13905SOL    HW243549   2.431  11.755   0.687
13906SOL     OW43550  10.424   1.843  10.172
13906SOL    HW143551  10.374   1.918  10.141
13906SOL    HW243552  10.419   1.779  10.102
13907SOL     OW43553   4.310   8.668   7.640
13907SOL    HW143554   4.401   8.645   7.621
13907SOL    HW243555   4.312   8.700   7.730
13908SOL     OW43556   1.078   2.845   3.398
13908SOL    HW143557   0.983   2.848   3.387
13908SOL    HW243558   1.105   2.766   3.350
13909SOL     OW43559   6.704   9.980   3.999
13909SOL    HW143560   6.794   9.947   4.005
13909SOL    HW243561   6.710  10.072   4.024
13910SOL     OW43562   1.795   1.529   5.136
13910SOL    HW143563   1.821   1.454   5.082
13910SOL    HW243564   1.718   1.497   5.185
13911SOL     OW43565   2.729   9.078   7.232
13911SOL    HW143566   2.757   9.155   7.183
13911SOL    HW243567   2.650   9.049   7.187
13912SOL     OW43568   5.534   2.402   8.546
13912SOL    HW143569   5.456   2.452   8.568
13912SOL    HW243570   5.550   2.347   8.623
13913SOL     OW43571   8.534   5.788   7.454
13913SOL    HW143572   8.439   5.795   7.448
13913SOL    HW243573   8.566   5.816   7.368
13914SOL     OW43574   8.235   9.421   7.270
13914SOL    HW143575   8.243   9.329   7.297
13914SOL    HW243576   8.146   9.445   7.294
13915SOL     OW43577   7.163   1.386   1.907
13915SOL    HW143578   7.217   1.325   1.957
13915SOL    HW243579   7.162   1.466   1.960
13916SOL     OW43580   2.902   1.758  13.855
13916SOL    HW143581   2.942   1.731  13.773
13916SOL    HW243582   2.864   1.844  13.836
13917SOL     OW43583  12.255   2.235   0.535
13917SOL    HW143584  12.314   2.289   0.483
13917SOL    HW243585  12.182   2.216   0.476
13918SOL     OW43586   8.823  12.712   6.621
13918SOL    HW143587   8.865  12.700   6.536
13918SOL    HW243588   8.732  12.733   6.600
13919SOL     OW43589   2.037   3.634   1.940
13919SOL    HW143590   2.005   3.555   1.895
13919SOL    HW243591   2.093   3.602   2.010
13920SOL     OW43592  11.937   9.576   5.647
13920SOL    HW143593  11.982   9.635   5.707
13920SOL    HW243594  11.984   9.493   5.654
13921SOL     OW43595  13.114  12.225  13.857
13921SOL    HW143596  13.085  12.135  13.843
13921SOL    HW243597  13.046  12.279  13.816
13922SOL     OW43598  12.338  10.992  14.557
13922SOL    HW143599  12.392  10.915  14.577
13922SOL    HW243600  12.249  10.958  14.551
13923SOL     OW43601   8.552   5.387  10.743
13923SOL    HW143602   8.585   5.336  10.668
13923SOL    HW243603   8.605   5.467  10.742
13924SOL     OW43604   3.125   9.849   8.938
13924SOL    HW143605   3.110   9.943   8.949
13924SOL    HW243606   3.135   9.816   9.027
13925SOL     OW43607   4.214   2.411   9.166
13925SOL    HW143608   4.159   2.390   9.242
13925SOL    HW243609   4.152   2.419   9.094
13926SOL     OW43610   4.545   8.439   8.752
13926SOL    HW143611   4.505   8.507   8.698
13926SOL    HW243612   4.482   8.425   8.823
13927SOL     OW43613  14.217   2.274   2.529
13927SOL    HW143614  14.155   2.305   2.463
13927SOL    HW243615  14.302   2.279   2.486
13928SOL     OW43616  10.090  10.950  10.979
13928SOL    HW143617  10.042  10.917  10.903
13928SOL    HW243618  10.031  11.015  11.018
13929SOL     OW43619  13.367   7.517  11.097
13929SOL    HW143620  13.337   7.435  11.058
13929SOL    HW243621  13.460   7.502  11.114
13930SOL     OW43622  12.394  13.792   8.231
13930SOL    HW143623  12.480  13.812   8.268
13930SOL    HW243624  12.401  13.700   8.203
13931SOL     OW43625   7.313   4.398  11.336
13931SOL    HW143626   7.264   4.479  11.327
13931SOL    HW243627   7.404   4.424  11.325
13932SOL     OW43628   7.100  12.834  13.668
13932SOL    HW143629   7.028  12.877  13.622
13932SOL    HW243630   7.077  12.741  13.667
13933SOL     OW43631   0.612   9.508  13.647
13933SOL    HW143632   0.536   9.508  13.705
13933SOL    HW243633   0.648   9.597  13.654
13934SOL     OW43634   2.251   7.779   0.075
13934SOL    HW143635   2.203   7.781   0.157
13934SOL    HW243636   2.249   7.870   0.043
13935SOL     OW43637  10.917   2.226  13.536
13935SOL    HW143638  10.881   2.194  13.619
13935SOL    HW243639  10.926   2.320  13.549
13936SOL     OW43640   0.867  10.015   4.469
13936SOL    HW143641   0.823   9.982   4.391
13936SOL    HW243642   0.843  10.108   4.473
13937SOL     OW43643  12.451   6.982   2.410
13937SOL    HW143644  12.468   7.076   2.414
13937SOL    HW243645  12.445   6.962   2.317
13938SOL     OW43646   5.518   8.535  13.607
13938SOL    HW143647   5.499   8.628  13.615
13938SOL    HW243648   5.446   8.500  13.555
13939SOL     OW43649   3.266   7.027  11.032
13939SOL    HW143650   3.217   6.969  10.974
13939SOL    HW243651   3.319   6.968  11.085
13940SOL     OW43652   8.447   1.820   7.831
13940SOL    HW143653   8.395   1.899   7.814
13940SOL    HW243654   8.457   1.818   7.926
13941SOL     OW43655   4.327   2.690  14.178
13941SOL    HW143656   4.366   2.688  14.266
13941SOL    HW243657   4.233   2.685  14.194
13942SOL     OW43658  12.296   6.763  13.137
13942SOL    HW143659  12.297   6.684  13.084
13942SOL    HW243660  12.217   6.810  13.108
13943SOL     OW43661   6.003   2.085   8.736
13943SOL    HW143662   5.942   2.019   8.704
13943SOL    HW243663   6.089   2.045   8.725
13944SOL     OW43664  12.898  11.296   0.835
13944SOL    HW143665  12.843  11.242   0.778
13944SOL    HW243666  12.891  11.255   0.921
13945SOL     OW43667  10.374  14.108  10.815
13945SOL    HW143668  10.352  14.200  10.832
13945SOL    HW243669  10.360  14.064  10.899
13946SOL     OW43670   2.628  10.411  13.432
13946SOL    HW143671   2.602  10.441  13.344
13946SOL    HW243672   2.548  10.418  13.484
13947SOL     OW43673  12.532   7.067  11.647
13947SOL    HW143674  12.593   7.141  11.651
13947SOL    HW243675  12.580   6.994  11.686
13948SOL     OW43676   8.335   7.379  13.708
13948SOL    HW143677   8.267   7.372  13.776
13948SOL    HW243678   8.350   7.473  13.699
13949SOL     OW43679   2.418   7.664   1.654
13949SOL    HW143680   2.410   7.601   1.582
13949SOL    HW243681   2.486   7.627   1.710
13950SOL     OW43682  11.382   9.815   0.219
13950SOL    HW143683  11.335   9.769   0.288
13950SOL    HW243684  11.317   9.826   0.149
13951SOL     OW43685   8.170   7.969   4.716
13951SOL    HW143686   8.153   7.979   4.810
13951SOL    HW243687   8.105   8.025   4.674
13952SOL     OW43688   5.159   3.011   5.180
13952SOL    HW143689   5.234   3.069   5.192
13952SOL    HW243690   5.147   2.969   5.265
13953SOL     OW43691   1.629   3.030   3.265
13953SOL    HW143692   1.622   2.935   3.267
13953SOL    HW243693   1.538   3.061   3.263
13954SOL     OW43694  14.704   0.742   7.210
13954SOL    HW143695  14.622   0.784   7.182
13954SOL    HW243696  14.749   0.722   7.129
13955SOL     OW43697  11.587  11.091  12.856
13955SOL    HW143698  11.543  11.169  12.892
13955SOL    HW243699  11.639  11.125  12.783
13956SOL     OW43700   9.841  11.136   9.530
13956SOL    HW143701   9.859  11.166   9.441
13956SOL    HW243702   9.916  11.082   9.553
13957SOL     OW43703   1.607   1.600  12.006
13957SOL    HW143704   1.669   1.527  12.009
13957SOL    HW243705   1.663   1.677  11.997
13958SOL     OW43706   3.370   1.064   2.654
13958SOL    HW143707   3.416   1.054   2.737
13958SOL    HW243708   3.430   1.114   2.599
13959SOL     OW43709   5.656  13.443   2.140
13959SOL    HW143710   5.608  13.360   2.144
13959SOL    HW243711   5.632  13.488   2.220
13960SOL     OW43712   0.090   6.485   6.492
13960SOL    HW143713   0.111   6.401   6.531
13960SOL    HW243714   0.014   6.516   6.541
13961SOL     OW43715  14.750   5.500   4.001
13961SOL    HW143716  14.693   5.565   3.959
13961SOL    HW243717  14.838   5.524   3.975
13962SOL     OW43718   3.027   7.521   0.306
13962SOL    HW143719   3.094   7.520   0.237
13962SOL    HW243720   3.056   7.455   0.369
13963SOL     OW43721   5.159  11.518   2.229
13963SOL    HW143722   5.101  11.443   2.244
13963SOL    HW243723   5.111  11.593   2.263
13964SOL     OW43724  13.243   4.405  11.110
13964SOL    HW143725  13.199   4.351  11.046
13964SOL    HW243726  13.279   4.479  11.060
13965SOL     OW43727   6.303  10.545  13.635
13965SOL    HW143728   6.271  10.486  13.704
13965SOL    HW243729   6.387  10.577  13.668
13966SOL     OW43730   7.734  13.018   8.558
13966SOL    HW143731   7.791  12.948   8.527
13966SOL    HW243732   7.780  13.057   8.632
13967SOL     OW43733   1.708   7.950   3.658
13967SOL    HW143734   1.619   7.941   3.624
13967SOL    HW243735   1.696   7.981   3.748
13968SOL     OW43736   9.726   2.999   3.867
13968SOL    HW143737   9.787   3.011   3.940
13968SOL    HW243738   9.735   3.079   3.815
13969SOL     OW43739  10.775  10.955  14.285
13969SOL    HW143740  10.790  10.898  14.361
13969SOL    HW243741  10.822  11.036  14.306
13970SOL     OW43742   4.326  14.180   6.878
13970SOL    HW143743   4.417  14.159   6.856
13970SOL    HW243744   4.280  14.178   6.794
13971SOL     OW43745  14.660   5.019   4.719
13971SOL    HW143746  14.594   4.994   4.784
13971SOL    HW243747  14.645   4.960   4.645
13972SOL     OW43748   4.622  13.250   9.035
13972SOL    HW143749   4.601  13.222   8.946
13972SOL    HW243750   4.580  13.185   9.091
13973SOL     OW43751  10.761   1.817   7.769
13973SOL    HW143752  10.840   1.774   7.803
13973SOL    HW243753  10.691   1.752   7.782
13974SOL     OW43754   0.050   9.230   6.070
13974SOL    HW143755   0.115   9.160   6.063
13974SOL    HW243756  14.872   9.218   5.995
13975SOL     OW43757   1.098   4.443  10.624
13975SOL    HW143758   1.074   4.534  10.605
13975SOL    HW243759   1.037   4.415  10.692
13976SOL     OW43760   8.384  11.485   9.404
13976SOL    HW143761   8.352  11.460   9.318
13976SOL    HW243762   8.417  11.574   9.393
13977SOL     OW43763  10.020   7.314   3.872
13977SOL    HW143764  10.075   7.350   3.941
13977SOL    HW243765  10.019   7.220   3.888
13978SOL     OW43766   3.706   6.878   2.990
13978SOL    HW143767   3.775   6.936   2.959
13978SOL    HW243768   3.634   6.936   3.013
13979SOL     OW43769   1.403  12.463  13.148
13979SOL    HW143770   1.477  12.426  13.196
13979SOL    HW243771   1.407  12.422  13.062
13980SOL     OW43772   9.528   7.057   6.635
13980SOL    HW143773   9.455   7.040   6.695
13980SOL    HW243774   9.497   7.025   6.550
13981SOL     OW43775  13.266   5.629   3.631
13981SOL    HW143776  13.295   5.708   3.677
13981SOL    HW243777  13.293   5.643   3.541
13982SOL     OW43778  12.337  13.627   0.498
13982SOL    HW143779  12.359  13.668   0.415
13982SOL    HW243780  12.337  13.533   0.480
13983SOL     OW43781   3.041   0.034  10.436
13983SOL    HW143782   3.093   0.043  10.356
13983SOL    HW243783   2.960   0.082  10.417
13984SOL     OW43784   4.051   2.921  13.749
13984SOL    HW143785   4.011   2.843  13.785
13984SOL    HW243786   4.142   2.918  13.778
13985SOL     OW43787  12.158  12.690  14.650
13985SOL    HW143788  12.162  12.597  14.630
13985SOL    HW243789  12.191  12.733  14.571
13986SOL     OW43790   1.632  13.469  12.379
13986SOL    HW143791   1.718  13.510  12.387
13986SOL    HW243792   1.614  13.470  12.285
13987SOL     OW43793  10.694   2.571   3.192
13987SOL    HW143794  10.657   2.583   3.105
13987SOL    HW243795  10.640   2.502   3.231
13988SOL     OW43796   7.630   1.671   4.766
13988SOL    HW143797   7.717   1.674   4.726
13988SOL    HW243798   7.593   1.588   4.736
13989SOL     OW43799   9.811   5.174   5.480
13989SOL    HW143800   9.888   5.197   5.427
13989SOL    HW243801   9.755   5.125   5.420
13990SOL     OW43802   2.954  11.959  14.019
13990SOL    HW143803   2.962  12.052  14.042
13990SOL    HW243804   3.035  11.938  13.973
13991SOL     OW43805  12.538   4.145   4.237
13991SOL    HW143806  12.484   4.223   4.221
13991SOL    HW243807  12.559   4.112   4.150
13992SOL     OW43808   8.440   9.066   5.515
13992SOL    HW143809   8.474   8.984   5.551
13992SOL    HW243810   8.369   9.039   5.457
13993SOL     OW43811   7.362   7.663   0.881
13993SOL    HW143812   7.445   7.708   0.862
13993SOL    HW243813   7.374   7.575   0.847
13994SOL     OW43814   6.590  14.116   6.791
13994SOL    HW143815   6.603  14.024   6.815
13994SOL    HW243816   6.585  14.115   6.695
13995SOL     OW43817   0.420   9.596   0.990
13995SOL    HW143818   0.328   9.586   1.012
13995SOL    HW243819   0.442   9.685   1.018
13996SOL     OW43820   1.900  13.191  12.576
13996SOL    HW143821   1.942  13.133  12.640
13996SOL    HW243822   1.849  13.133  12.520
13997SOL     OW43823   6.992  10.882   6.625
13997SOL    HW143824   7.074  10.848   6.591
13997SOL    HW243825   7.016  10.963   6.670
13998SOL     OW43826   6.483  14.555   0.577
13998SOL    HW143827   6.509  14.464   0.587
13998SOL    HW243828   6.554  14.604   0.618
13999SOL     OW43829  14.308  12.717   7.109
13999SOL    HW143830  14.288  12.656   7.180
13999SOL    HW243831  14.223  12.745   7.076
14000SOL     OW43832   4.750   8.413  10.621
14000SOL    HW143833   4.727   8.412  10.713
14000SOL    HW243834   4.778   8.503  10.603
14001SOL     OW43835  10.953  12.032   4.438
14001SOL    HW143836  11.020  12.091   4.403
14001SOL    HW243837  10.894  12.090   4.487
14002SOL     OW43838   6.288   1.979  11.965
14002SOL    HW143839   6.312   1.963  11.873
14002SOL    HW243840   6.271   1.893  12.001
14003SOL     OW43841   9.556   3.951  12.451
14003SOL    HW143842   9.520   3.958  12.362
14003SOL    HW243843   9.600   4.034  12.466
14004SOL     OW43844   3.863   1.768  10.185
14004SOL    HW143845   3.882   1.852  10.144
14004SOL    HW243846   3.811   1.790  10.263
14005SOL     OW43847   2.688   5.899   8.648
14005SOL    HW143848   2.760   5.949   8.609
14005SOL    HW243849   2.641   5.862   8.573
14006SOL     OW43850  14.744  11.469   8.604
14006SOL    HW143851  14.829  11.511   8.590
14006SOL    HW243852  14.764  11.390   8.655
14007SOL     OW43853  13.319   8.180  10.517
14007SOL    HW143854  13.311   8.275  10.506
14007SOL    HW243855  13.228   8.150  10.527
14008SOL     OW43856   9.715   5.399   9.817
14008SOL    HW143857   9.710   5.488   9.851
14008SOL    HW243858   9.792   5.399   9.760
14009SOL     OW43859   7.190   9.977   2.487
14009SOL    HW143860   7.252   9.971   2.414
14009SOL    HW243861   7.239  10.021   2.556
14010SOL     OW43862   2.560   3.480   2.065
14010SOL    HW143863   2.589   3.463   2.155
14010SOL    HW243864   2.535   3.394   2.031
14011SOL     OW43865   7.323  11.803   9.581
14011SOL    HW143866   7.253  11.743   9.553
14011SOL    HW243867   7.332  11.787   9.675
14012SOL     OW43868  10.480   2.852   2.571
14012SOL    HW143869  10.566   2.891   2.559
14012SOL    HW243870  10.418   2.924   2.562
14013SOL     OW43871   3.509  13.278   4.131
14013SOL    HW143872   3.460  13.351   4.169
14013SOL    HW243873   3.592  13.278   4.178
14014SOL     OW43874   1.072  12.125  14.684
14014SOL    HW143875   1.017  12.100  14.758
14014SOL    HW243876   1.073  12.221  14.686
14015SOL     OW43877   7.077  11.475   1.384
14015SOL    HW143878   7.105  11.516   1.466
14015SOL    HW243879   7.073  11.381   1.404
14016SOL     OW43880   2.944   8.734   6.411
14016SOL    HW143881   2.985   8.664   6.463
14016SOL    HW243882   2.956   8.812   6.465
14017SOL     OW43883   4.265   5.766   2.397
14017SOL    HW143884   4.350   5.784   2.437
14017SOL    HW243885   4.273   5.676   2.364
14018SOL     OW43886   0.078   4.791   5.152
14018SOL    HW143887   0.133   4.789   5.074
14018SOL    HW243888   0.009   4.727   5.134
14019SOL     OW43889   8.324   6.288   6.638
14019SOL    HW143890   8.254   6.229   6.665
14019SOL    HW243891   8.281   6.371   6.619
14020SOL     OW43892   2.236   9.320  10.437
14020SOL    HW143893   2.239   9.391  10.373
14020SOL    HW243894   2.173   9.349  10.502
14021SOL     OW43895   9.285   0.676   6.566
14021SOL    HW143896   9.237   0.606   6.523
14021SOL    HW243897   9.377   0.649   6.560
14022SOL     OW43898   2.600   9.668  13.776
14022SOL    HW143899   2.691   9.692  13.757
14022SOL    HW243900   2.594   9.576  13.750
14023SOL     OW43901   2.762   1.575  13.497
14023SOL    HW143902   2.705   1.648  13.522
14023SOL    HW243903   2.768   1.582  13.401
14024SOL     OW43904  14.842   3.650   7.160
14024SOL    HW143905  14.755   3.651   7.199
14024SOL    HW243906  14.860   3.558   7.141
14025SOL     OW43907   2.441   2.750   7.697
14025SOL    HW143908   2.428   2.746   7.791
14025SOL    HW243909   2.490   2.671   7.676
14026SOL     OW43910   2.835   9.965   5.430
14026SOL    HW143911   2.897   9.943   5.500
14026SOL    HW243912   2.801   9.881   5.400
14027SOL     OW43913   1.999  12.798   7.415
14027SOL    HW143914   2.056  12.790   7.491
14027SOL    HW243915   1.919  12.750   7.439
14028SOL     OW43916   9.629   5.234  14.290
14028SOL    HW143917   9.628   5.247  14.385
14028SOL    HW243918   9.646   5.321  14.254
14029SOL     OW43919   2.234   6.326   7.633
14029SOL    HW143920   2.301   6.325   7.565
14029SOL    HW243921   2.245   6.243   7.679
14030SOL     OW43922   0.411   0.134  12.334
14030SOL    HW143923   0.339   0.142  12.271
14030SOL    HW243924   0.367   0.130  12.419
14031SOL     OW43925   5.237  11.282  14.047
14031SOL    HW143926   5.236  11.366  14.001
14031SOL    HW243927   5.278  11.221  13.986
14032SOL     OW43928   2.907   2.375  13.056
14032SOL    HW143929   2.871   2.315  13.122
14032SOL    HW243930   2.871   2.344  12.973
14033SOL     OW43931   8.082   8.050  10.089
14033SOL    HW143932   8.172   8.076  10.112
14033SOL    HW243933   8.088   7.956  10.075
14034SOL     OW43934  13.345   2.210   7.694
14034SOL    HW143935  13.411   2.277   7.709
14034SOL    HW243936  13.297   2.241   7.617
14035SOL     OW43937   2.798  10.976  14.585
14035SOL    HW143938   2.705  10.993  14.575
14035SOL    HW243939   2.829  10.957  14.496
14036SOL     OW43940   0.897   1.799   7.540
14036SOL    HW143941   0.833   1.853   7.586
14036SOL    HW243942   0.970   1.789   7.602
14037SOL     OW43943  12.286  14.097   7.369
14037SOL    HW143944  12.302  14.123   7.459
14037SOL    HW243945  12.372  14.101   7.327
14038SOL     OW43946   6.229   0.717   3.544
14038SOL    HW143947   6.296   0.770   3.500
14038SOL    HW243948   6.179   0.781   3.596
14039SOL     OW43949   2.688  14.374  10.263
14039SOL    HW143950   2.740  14.455  10.267
14039SOL    HW243951   2.647  14.367  10.349
14040SOL     OW43952   1.382  12.011   1.950
14040SOL    HW143953   1.318  11.945   1.923
14040SOL    HW243954   1.377  12.011   2.046
14041SOL     OW43955   0.169   0.676   9.798
14041SOL    HW143956   0.200   0.765   9.782
14041SOL    HW243957   0.076   0.678   9.773
14042SOL     OW43958  10.281  14.700   8.662
14042SOL    HW143959  10.305  14.671   8.574
14042SOL    HW243960  10.341  14.651   8.720
14043SOL     OW43961  11.827  10.738  11.671
14043SOL    HW143962  11.905  10.710  11.623
14043SOL    HW243963  11.838  10.701  11.758
14044SOL     OW43964  12.043   7.455   0.442
14044SOL    HW143965  12.064   7.365   0.416
14044SOL    HW243966  12.119   7.506   0.415
14045SOL     OW43967   2.943   0.599   5.173
14045SOL    HW143968   3.024   0.613   5.124
14045SOL    HW243969   2.946   0.664   5.242
14046SOL     OW43970   9.218   0.681   8.455
14046SOL    HW143971   9.207   0.691   8.550
14046SOL    HW243972   9.181   0.595   8.436
14047SOL     OW43973   5.964  10.444  11.811
14047SOL    HW143974   5.957  10.373  11.748
14047SOL    HW243975   5.937  10.405  11.894
14048SOL     OW43976   9.469   2.327   4.532
14048SOL    HW143977   9.393   2.278   4.500
14048SOL    HW243978   9.535   2.315   4.463
14049SOL     OW43979  14.486   9.308   1.105
14049SOL    HW143980  14.396   9.339   1.105
14049SOL    HW243981  14.532   9.367   1.165
14050SOL     OW43982   1.777  10.860   0.067
14050SOL    HW143983   1.695  10.874   0.020
14050SOL    HW243984   1.766  10.777   0.112
14051SOL     OW43985  14.310   8.933   1.537
14051SOL    HW143986  14.295   8.998   1.605
14051SOL    HW243987  14.404   8.934   1.522
14052SOL     OW43988  10.557   9.652   8.795
14052SOL    HW143989  10.599   9.737   8.807
14052SOL    HW243990  10.625   9.588   8.816
14053SOL     OW43991  10.909   5.651  13.588
14053SOL    HW143992  11.001   5.660  13.565
14053SOL    HW243993  10.909   5.640  13.683
14054SOL     OW43994   1.443   0.354   5.285
14054SOL    HW143995   1.471   0.421   5.347
14054SOL    HW243996   1.524   0.320   5.248
14055SOL     OW43997  11.065  10.280  10.288
14055SOL    HW143998  11.134  10.267  10.222
14055SOL    HW243999  11.095  10.229  10.363
14056SOL     OW44000   4.550  13.404  11.305
14056SOL    HW144001   4.502  13.476  11.264
14056SOL    HW244002   4.482  13.338  11.323
14057SOL     OW44003   7.037   1.980   7.722
14057SOL    HW144004   6.995   2.024   7.648
14057SOL    HW244005   7.004   2.027   7.799
14058SOL     OW44006  10.444  11.139   1.758
14058SOL    HW144007  10.490  11.220   1.736
14058SOL    HW244008  10.449  11.086   1.678
14059SOL     OW44009   6.409   5.930   6.664
14059SOL    HW144010   6.485   5.878   6.689
14059SOL    HW244011   6.336   5.867   6.663
14060SOL     OW44012   7.433   4.069   0.792
14060SOL    HW144013   7.437   3.978   0.762
14060SOL    HW244014   7.340   4.090   0.792
14061SOL     OW44015   7.134   6.833  11.413
14061SOL    HW144016   7.111   6.925  11.407
14061SOL    HW244017   7.165   6.821  11.503
14062SOL     OW44018  14.511   7.867  14.497
14062SOL    HW144019  14.429   7.862  14.545
14062SOL    HW244020  14.494   7.820  14.415
14063SOL     OW44021  14.636   1.475   0.811
14063SOL    HW144022  14.658   1.396   0.761
14063SOL    HW244023  14.673   1.458   0.898
14064SOL     OW44024   5.315  13.414   2.305
14064SOL    HW144025   5.350  13.465   2.232
14064SOL    HW244026   5.391  13.392   2.358
14065SOL     OW44027   2.046   8.241   0.489
14065SOL    HW144028   2.134   8.227   0.454
14065SOL    HW244029   2.027   8.162   0.540
14066SOL     OW44030  11.107   9.010  13.348
14066SOL    HW144031  11.147   8.992  13.263
14066SOL    HW244032  11.073   9.099  13.340
14067SOL     OW44033   3.037  12.842   6.132
14067SOL    HW144034   3.087  12.761   6.142
14067SOL    HW244035   2.966  12.835   6.196
14068SOL     OW44036   4.945   6.347   4.503
14068SOL    HW144037   4.905   6.434   4.509
14068SOL    HW244038   4.933   6.310   4.590
14069SOL     OW44039  14.105   6.091   3.218
14069SOL    HW144040  14.201   6.086   3.211
14069SOL    HW244041  14.076   6.120   3.131
14070SOL     OW44042   5.033  10.632  13.241
14070SOL    HW144043   5.037  10.723  13.210
14070SOL    HW244044   5.039  10.580  13.161
14071SOL     OW44045  14.020   5.231   5.028
14071SOL    HW144046  14.057   5.260   5.111
14071SOL    HW244047  13.935   5.275   5.022
14072SOL     OW44048  11.617   2.364  10.572
14072SOL    HW144049  11.576   2.286  10.536
14072SOL    HW244050  11.555   2.435  10.553
14073SOL     OW44051   6.805   6.251  10.114
14073SOL    HW144052   6.874   6.218  10.056
14073SOL    HW244053   6.726   6.206  10.086
14074SOL     OW44054  12.721   4.805   1.653
14074SOL    HW144055  12.805   4.796   1.697
14074SOL    HW244056  12.743   4.816   1.561
14075SOL     OW44057  12.493   5.430   8.393
14075SOL    HW144058  12.419   5.373   8.371
14075SOL    HW244059  12.455   5.499   8.446
14076SOL     OW44060   2.039  11.301   1.005
14076SOL    HW144061   2.028  11.221   1.055
14076SOL    HW244062   2.062  11.367   1.070
14077SOL     OW44063   7.659   5.303  12.585
14077SOL    HW144064   7.749   5.287  12.556
14077SOL    HW244065   7.610   5.226  12.556
14078SOL     OW44066   9.583  10.515   5.251
14078SOL    HW144067   9.611  10.591   5.304
14078SOL    HW244068   9.588  10.441   5.312
14079SOL     OW44069  14.799  10.983   4.913
14079SOL    HW144070  14.776  11.021   4.997
14079SOL    HW244071  14.720  10.994   4.860
14080SOL     OW44072  11.081   3.422   5.630
14080SOL    HW144073  11.006   3.465   5.589
14080SOL    HW244074  11.044   3.378   5.707
14081SOL     OW44075  12.920  11.428   0.030
14081SOL    HW144076  12.944  11.337   0.045
14081SOL    HW244077  12.948  11.446  14.819
14082SOL     OW44078   7.196   5.811   9.058
14082SOL    HW144079   7.128   5.870   9.092
14082SOL    HW244080   7.206   5.836   8.966
14083SOL     OW44081   2.862   6.615   7.733
14083SOL    HW144082   2.924   6.546   7.754
14083SOL    HW244083   2.910   6.696   7.749
14084SOL     OW44084  13.395  10.062   3.266
14084SOL    HW144085  13.308  10.059   3.307
14084SOL    HW244086  13.382  10.113   3.186
14085SOL     OW44087   5.250   2.513   7.743
14085SOL    HW144088   5.181   2.462   7.785
14085SOL    HW244089   5.205   2.587   7.702
14086SOL     OW44090  12.506  12.648   5.820
14086SOL    HW144091  12.495  12.732   5.863
14086SOL    HW244092  12.504  12.584   5.891
14087SOL     OW44093  13.684   8.234   6.886
14087SOL    HW144094  13.766   8.213   6.931
14087SOL    HW244095  13.658   8.151   6.845
14088SOL     OW44096   5.846   6.069  11.322
14088SOL    HW144097   5.755   6.073  11.350
14088SOL    HW244098   5.876   5.982  11.347
14089SOL     OW44099   9.142   9.563   7.294
14089SOL    HW144100   9.174   9.481   7.256
14089SOL    HW244101   9.178   9.632   7.238
14090SOL     OW44102   7.971   5.853  11.623
14090SOL    HW144103   7.993   5.789  11.554
14090SOL    HW244104   8.042   5.845  11.686
14091SOL     OW44105   3.628  14.284   4.624
14091SOL    HW144106   3.697  14.287   4.558
14091SOL    HW244107   3.547  14.287   4.573
14092SOL     OW44108  11.993   7.338   2.045
14092SOL    HW144109  11.916   7.322   2.099
14092SOL    HW244110  11.961   7.395   1.974
14093SOL     OW44111  13.674   7.515   5.479
14093SOL    HW144112  13.680   7.545   5.389
14093SOL    HW244113  13.736   7.571   5.527
14094SOL     OW44114   3.112  14.597  11.532
14094SOL    HW144115   3.158  14.513  11.535
14094SOL    HW244116   3.182  14.662  11.528
14095SOL     OW44117   7.731   0.927   6.284
14095SOL    HW144118   7.747   1.004   6.228
14095SOL    HW244119   7.652   0.888   6.248
14096SOL     OW44120   1.215   8.165   5.804
14096SOL    HW144121   1.285   8.224   5.777
14096SOL    HW244122   1.135   8.217   5.796
14097SOL     OW44123  10.200   5.966   7.191
14097SOL    HW144124  10.183   5.893   7.132
14097SOL    HW244125  10.113   5.999   7.215
14098SOL     OW44126   4.113   7.353   0.804
14098SOL    HW144127   4.200   7.386   0.781
14098SOL    HW244128   4.104   7.371   0.898
14099SOL     OW44129  14.180   2.975   8.699
14099SOL    HW144130  14.234   2.965   8.620
14099SOL    HW244131  14.222   2.919   8.764
14100SOL     OW44132   9.940   5.298   6.234
14100SOL    HW144133   9.891   5.318   6.154
14100SOL    HW244134   9.986   5.217   6.214
14101SOL     OW44135   7.325   5.776   0.757
14101SOL    HW144136   7.338   5.767   0.663
14101SOL    HW244137   7.241   5.733   0.774
14102SOL     OW44138  11.882  13.001   5.463
14102SOL    HW144139  11.929  13.080   5.489
14102SOL    HW244140  11.818  12.987   5.532
14103SOL     OW44141   2.572   9.772   9.610
14103SOL    HW144142   2.476   9.775   9.610
14103SOL    HW244143   2.594   9.716   9.535
14104SOL     OW44144   9.162  10.770   1.063
14104SOL    HW144145   9.189  10.845   1.010
14104SOL    HW244146   9.244  10.724   1.083
14105SOL     OW44147   9.357   0.689   6.968
14105SOL    HW144148   9.444   0.711   6.935
14105SOL    HW244149   9.362   0.595   6.988
14106SOL     OW44150  13.525  14.765   2.776
14106SOL    HW144151  13.455  14.769   2.841
14106SOL    HW244152  13.597  14.721   2.821
14107SOL     OW44153   6.181   0.135   8.248
14107SOL    HW144154   6.207   0.227   8.247
14107SOL    HW244155   6.264   0.086   8.249
14108SOL     OW44156   1.992   9.852   0.345
14108SOL    HW144157   2.085   9.832   0.353
14108SOL    HW244158   1.973   9.908   0.420
14109SOL     OW44159  13.262  14.628   9.305
14109SOL    HW144160  13.316  14.621   9.383
14109SOL    HW244161  13.318  14.674   9.241
14110SOL     OW44162   1.559  12.175   5.880
14110SOL    HW144163   1.533  12.124   5.956
14110SOL    HW244164   1.630  12.231   5.912
14111SOL     OW44165   2.361  13.868  12.548
14111SOL    HW144166   2.385  13.915  12.628
14111SOL    HW244167   2.358  13.935  12.480
14112SOL     OW44168   2.157  13.773   9.230
14112SOL    HW144169   2.224  13.705   9.230
14112SOL    HW244170   2.204  13.853   9.253
14113SOL     OW44171  10.440   1.767  13.932
14113SOL    HW144172  10.524   1.809  13.919
14113SOL    HW244173  10.459   1.674  13.936
14114SOL     OW44174   2.463   9.072  14.511
14114SOL    HW144175   2.557   9.082  14.523
14114SOL    HW244176   2.450   9.073  14.417
14115SOL     OW44177   9.958  14.490  14.571
14115SOL    HW144178  10.015  14.533  14.507
14115SOL    HW244179   9.994  14.516  14.656
14116SOL     OW44180  14.438   5.782   2.766
14116SOL    HW144181  14.445   5.863   2.716
14116SOL    HW244182  14.351   5.747   2.745
14117SOL     OW44183   4.159  12.984  12.882
14117SOL    HW144184   4.153  13.080  12.887
14117SOL    HW244185   4.175  12.966  12.790
14118SOL     OW44186   1.977  13.403   1.089
14118SOL    HW144187   1.901  13.358   1.052
14118SOL    HW244188   1.940  13.460   1.157
14119SOL     OW44189  14.791   1.292   9.190
14119SOL    HW144190  14.866   1.326   9.239
14119SOL    HW244191  14.726   1.271   9.257
14120SOL     OW44192  14.461   8.192   5.447
14120SOL    HW144193  14.366   8.191   5.440
14120SOL    HW244194  14.480   8.272   5.497
14121SOL     OW44195  13.090   1.793   7.849
14121SOL    HW144196  13.118   1.824   7.763
14121SOL    HW244197  13.166   1.805   7.905
14122SOL     OW44198   3.025  13.367   6.193
14122SOL    HW144199   3.084  13.441   6.208
14122SOL    HW244200   3.082  13.297   6.161
14123SOL     OW44201   0.949  11.178   4.768
14123SOL    HW144202   1.000  11.207   4.692
14123SOL    HW244203   0.871  11.139   4.730
14124SOL     OW44204   1.296   4.354   5.564
14124SOL    HW144205   1.295   4.277   5.507
14124SOL    HW244206   1.251   4.327   5.644
14125SOL     OW44207  14.828  10.027   9.397
14125SOL    HW144208  14.800   9.969   9.326
14125SOL    HW244209  14.844  10.111   9.356
14126SOL     OW44210   1.877   7.093   3.222
14126SOL    HW144211   1.794   7.049   3.240
14126SOL    HW244212   1.908   7.123   3.308
14127SOL     OW44213  12.635   5.333  13.630
14127SOL    HW144214  12.591   5.343  13.546
14127SOL    HW244215  12.728   5.325  13.608
14128SOL     OW44216  14.867  12.836   5.424
14128SOL    HW144217   0.011  12.831   5.517
14128SOL    HW244218  14.778  12.871   5.423
14129SOL     OW44219   5.176   3.434  10.505
14129SOL    HW144220   5.248   3.378  10.535
14129SOL    HW244221   5.137   3.468  10.586
14130SOL     OW44222   2.264   1.718   3.582
14130SOL    HW144223   2.322   1.783   3.621
14130SOL    HW244224   2.193   1.707   3.645
14131SOL     OW44225   1.934   6.470   6.010
14131SOL    HW144226   1.969   6.537   6.068
14131SOL    HW244227   1.929   6.391   6.064
14132SOL     OW44228   9.110  12.499  11.822
14132SOL    HW144229   9.029  12.453  11.845
14132SOL    HW244230   9.130  12.554  11.898
14133SOL     OW44231   0.996   2.730   4.643
14133SOL    HW144232   0.903   2.751   4.633
14133SOL    HW244233   1.037   2.811   4.671
14134SOL     OW44234  11.339   1.079   7.823
14134SOL    HW144235  11.395   1.096   7.746
14134SOL    HW244236  11.374   0.999   7.861
14135SOL     OW44237  14.582   3.322  11.920
14135SOL    HW144238  14.607   3.304  11.829
14135SOL    HW244239  14.543   3.240  11.950
14136SOL     OW44240   0.112   5.247  10.437
14136SOL    HW144241   0.113   5.191  10.515
14136SOL    HW244242   0.111   5.186  10.363
14137SOL     OW44243   2.840   4.817  14.770
14137SOL    HW144244   2.835   4.903  14.728
14137SOL    HW244245   2.749   4.787  14.776
14138SOL     OW44246  11.697   3.026   1.458
14138SOL    HW144247  11.741   2.962   1.513
14138SOL    HW244248  11.613   2.986   1.437
14139SOL     OW44249   9.748   5.795  14.566
14139SOL    HW144250   9.677   5.859  14.569
14139SOL    HW244251   9.825   5.846  14.543
14140SOL     OW44252  14.122   0.229  13.012
14140SOL    HW144253  14.046   0.229  13.071
14140SOL    HW244254  14.194   0.263  13.066
14141SOL     OW44255   2.475   8.364   6.913
14141SOL    HW144256   2.542   8.356   6.980
14141SOL    HW244257   2.402   8.407   6.957
14142SOL     OW44258   3.960   2.332   9.654
14142SOL    HW144259   3.925   2.276   9.585
14142SOL    HW244260   4.046   2.359   9.621
14143SOL     OW44261   0.557   4.558  11.278
14143SOL    HW144262   0.643   4.515  11.282
14143SOL    HW244263   0.517   4.524  11.198
14144SOL     OW44264  14.235   8.285   0.166
14144SOL    HW144265  14.229   8.190   0.154
14144SOL    HW244266  14.180   8.321   0.097
14145SOL     OW44267  12.789  11.697   6.357
14145SOL    HW144268  12.873  11.668   6.320
14145SOL    HW244269  12.800  11.688   6.451
14146SOL     OW44270   6.670  10.297   6.614
14146SOL    HW144271   6.679  10.387   6.582
14146SOL    HW244272   6.700  10.243   6.540
14147SOL     OW44273   1.626   2.382  10.805
14147SOL    HW144274   1.657   2.448  10.867
14147SOL    HW244275   1.706   2.353  10.759
14148SOL     OW44276   6.034   4.672   5.559
14148SOL    HW144277   6.066   4.603   5.617
14148SOL    HW244278   5.939   4.670   5.568
14149SOL     OW44279   9.925   5.510  10.507
14149SOL    HW144280   9.863   5.525  10.435
14149SOL    HW244281   9.995   5.573  10.491
14150SOL     OW44282  11.422  13.703   5.237
14150SOL    HW144283  11.402  13.795   5.219
14150SOL    HW244284  11.517  13.702   5.252
14151SOL     OW44285  14.581   1.107   9.189
14151SOL    HW144286  14.537   1.076   9.268
14151SOL    HW244287  14.538   1.061   9.117
14152SOL     OW44288  12.251   9.314   9.088
14152SOL    HW144289  12.286   9.351   9.169
14152SOL    HW244290  12.229   9.223   9.110
14153SOL     OW44291   5.147  11.100   7.426
14153SOL    HW144292   5.168  11.011   7.453
14153SOL    HW244293   5.073  11.090   7.365
14154SOL     OW44294   5.301   0.371   7.847
14154SOL    HW144295   5.278   0.283   7.875
14154SOL    HW244296   5.312   0.364   7.752
14155SOL     OW44297   2.721  10.016   3.080
14155SOL    HW144298   2.761  10.039   2.997
14155SOL    HW244299   2.782   9.955   3.121
14156SOL     OW44300   9.821   1.186   0.938
14156SOL    HW144301   9.758   1.159   0.871
14156SOL    HW244302   9.906   1.163   0.901
14157SOL     OW44303   5.770  13.739   9.479
14157SOL    HW144304   5.815  13.766   9.558
14157SOL    HW244305   5.816  13.660   9.451
14158SOL     OW44306  10.708   1.286   5.181
14158SOL    HW144307  10.749   1.287   5.267
14158SOL    HW244308  10.728   1.372   5.143
14159SOL     OW44309   6.778   4.102   6.856
14159SOL    HW144310   6.733   4.033   6.904
14159SOL    HW244311   6.839   4.056   6.799
14160SOL     OW44312  14.037   4.337   8.127
14160SOL    HW144313  14.112   4.385   8.089
14160SOL    HW244314  13.967   4.349   8.063
14161SOL     OW44315   2.475   2.830   3.413
14161SOL    HW144316   2.490   2.846   3.320
14161SOL    HW244317   2.400   2.770   3.415
14162SOL     OW44318  13.097   3.674   7.519
14162SOL    HW144319  13.045   3.598   7.493
14162SOL    HW244320  13.033   3.738   7.550
14163SOL     OW44321   1.409  14.122   2.145
14163SOL    HW144322   1.399  14.165   2.060
14163SOL    HW244323   1.333  14.150   2.195
14164SOL     OW44324   7.286   3.800   2.013
14164SOL    HW144325   7.350   3.814   1.943
14164SOL    HW244326   7.252   3.888   2.032
14165SOL     OW44327  12.373   8.867   3.612
14165SOL    HW144328  12.313   8.854   3.685
14165SOL    HW244329  12.454   8.823   3.640
14166SOL     OW44330  10.180   1.664   6.399
14166SOL    HW144331  10.245   1.695   6.336
14166SOL    HW244332  10.190   1.569   6.398
14167SOL     OW44333  11.712  13.629  13.614
14167SOL    HW144334  11.691  13.562  13.549
14167SOL    HW244335  11.751  13.701  13.564
14168SOL     OW44336   8.014  14.421  13.026
14168SOL    HW144337   8.020  14.341  13.078
14168SOL    HW244338   8.068  14.484  13.073
14169SOL     OW44339   3.728   3.293   7.896
14169SOL    HW144340   3.740   3.317   7.804
14169SOL    HW244341   3.744   3.199   7.899
14170SOL     OW44342   9.336  11.159  13.094
14170SOL    HW144343   9.269  11.092  13.103
14170SOL    HW244344   9.318  11.201  13.010
14171SOL     OW44345   1.248  11.504   9.607
14171SOL    HW144346   1.278  11.439   9.543
14171SOL    HW244347   1.157  11.482   9.623
14172SOL     OW44348   2.449   3.437   7.665
14172SOL    HW144349   2.451   3.354   7.619
14172SOL    HW244350   2.367   3.437   7.714
14173SOL     OW44351   6.826   4.073  10.304
14173SOL    HW144352   6.747   4.040  10.348
14173SOL    HW244353   6.813   4.050  10.212
14174SOL     OW44354   7.016   1.919  11.648
14174SOL    HW144355   6.998   1.863  11.724
14174SOL    HW244356   7.107   1.947  11.660
14175SOL     OW44357   2.219  13.802   8.679
14175SOL    HW144358   2.281  13.745   8.724
14175SOL    HW244359   2.142  13.747   8.666
14176SOL     OW44360   8.187   2.200   5.819
14176SOL    HW144361   8.152   2.115   5.792
14176SOL    HW244362   8.246   2.225   5.748
14177SOL     OW44363  12.423   7.321   4.434
14177SOL    HW144364  12.501   7.297   4.385
14177SOL    HW244365  12.439   7.411   4.461
14178SOL     OW44366   6.764   6.647   4.547
14178SOL    HW144367   6.676   6.672   4.573
14178SOL    HW244368   6.820   6.719   4.575
14179SOL     OW44369  13.903   1.279  11.480
14179SOL    HW144370  13.951   1.248  11.557
14179SOL    HW244371  13.880   1.199  11.433
14180SOL     OW44372   6.321   3.641   5.612
14180SOL    HW144373   6.295   3.690   5.534
14180SOL    HW244374   6.239   3.616   5.654
14181SOL     OW44375   5.033   0.192  11.268
14181SOL    HW144376   4.961   0.244  11.305
14181SOL    HW244377   5.041   0.225  11.178
14182SOL     OW44378  10.010  12.898  12.720
14182SOL    HW144379  10.055  12.888  12.636
14182SOL    HW244380   9.917  12.889  12.699
14183SOL     OW44381  14.872   1.275   7.962
14183SOL    HW144382  14.858   1.194   8.010
14183SOL    HW244383   0.073   1.261   7.913
14184SOL     OW44384  14.540  12.888   6.098
14184SOL    HW144385  14.617  12.884   6.042
14184SOL    HW244386  14.468  12.914   6.040
14185SOL     OW44387  12.518  13.627   5.520
14185SOL    HW144388  12.535  13.721   5.526
14185SOL    HW244389  12.590  13.586   5.568
14186SOL     OW44390  11.346  14.552  12.249
14186SOL    HW144391  11.396  14.622  12.292
14186SOL    HW244392  11.255  14.574  12.267
14187SOL     OW44393   6.175   8.747   1.101
14187SOL    HW144394   6.139   8.667   1.139
14187SOL    HW244395   6.120   8.817   1.135
14188SOL     OW44396   3.098   0.580  13.171
14188SOL    HW144397   3.134   0.597  13.084
14188SOL    HW244398   3.147   0.505  13.203
14189SOL     OW44399   4.940   7.356   0.906
14189SOL    HW144400   4.909   7.324   0.821
14189SOL    HW244401   4.985   7.280   0.944
14190SOL     OW44402  14.738  14.500  11.676
14190SOL    HW144403  14.713  14.476  11.765
14190SOL    HW244404  14.694  14.436  11.621
14191SOL     OW44405  14.618   0.109   2.649
14191SOL    HW144406  14.654   0.099   2.561
14191SOL    HW244407  14.649   0.033   2.697
14192SOL     OW44408  11.692  10.696   6.571
14192SOL    HW144409  11.649  10.721   6.488
14192SOL    HW244410  11.756  10.629   6.545
14193SOL     OW44411   0.872  10.983   0.319
14193SOL    HW144412   0.941  11.050   0.316
14193SOL    HW244413   0.895  10.928   0.393
14194SOL     OW44414  14.451   2.850   3.374
14194SOL    HW144415  14.380   2.914   3.380
14194SOL    HW244416  14.417   2.773   3.419
14195SOL     OW44417  12.343  13.009  12.714
14195SOL    HW144418  12.270  12.999  12.775
14195SOL    HW244419  12.332  13.096  12.677
14196SOL     OW44420  12.064  10.274   7.760
14196SOL    HW144421  12.139  10.317   7.801
14196SOL    HW244422  12.020  10.228   7.831
14197SOL     OW44423   1.445   1.845   2.357
14197SOL    HW144424   1.513   1.853   2.290
14197SOL    HW244425   1.471   1.907   2.425
14198SOL     OW44426   2.864   1.071  10.510
14198SOL    HW144427   2.930   1.103  10.572
14198SOL    HW244428   2.853   0.978  10.532
14199SOL     OW44429   7.386   1.102   6.663
14199SOL    HW144430   7.476   1.091   6.633
14199SOL    HW244431   7.373   1.031   6.727
14200SOL     OW44432   3.938  11.078   3.207
14200SOL    HW144433   3.874  11.131   3.159
14200SOL    HW244434   3.909  11.081   3.298
14201SOL     OW44435   6.361  13.396   2.404
14201SOL    HW144436   6.295  13.464   2.392
14201SOL    HW244437   6.331  13.323   2.350
14202SOL     OW44438  14.379  14.012   3.681
14202SOL    HW144439  14.335  14.097   3.680
14202SOL    HW244440  14.364  13.976   3.593
14203SOL     OW44441   1.034   3.808   6.576
14203SOL    HW144442   0.977   3.876   6.541
14203SOL    HW244443   1.055   3.753   6.500
14204SOL     OW44444   0.339  11.970  14.585
14204SOL    HW144445   0.309  12.044  14.531
14204SOL    HW244446   0.382  11.911  14.524
14205SOL     OW44447   8.407   2.956   6.031
14205SOL    HW144448   8.372   2.912   6.109
14205SOL    HW244449   8.489   2.910   6.013
14206SOL     OW44450  12.528   0.399  11.025
14206SOL    HW144451  12.444   0.435  10.995
14206SOL    HW244452  12.503   0.317  11.069
14207SOL     OW44453  10.875   7.995  10.217
14207SOL    HW144454  10.938   7.927  10.239
14207SOL    HW244455  10.901   8.025  10.130
14208SOL     OW44456  12.309   9.754   6.068
14208SOL    HW144457  12.264   9.824   6.115
14208SOL    HW244458  12.275   9.674   6.106
14209SOL     OW44459  13.352   4.938  13.893
14209SOL    HW144460  13.428   4.947  13.950
14209SOL    HW244461  13.285   4.993  13.934
14210SOL     OW44462   6.863   6.359   1.828
14210SOL    HW144463   6.912   6.288   1.785
14210SOL    HW244464   6.821   6.406   1.756
14211SOL     OW44465   8.172   0.195   6.738
14211SOL    HW144466   8.178   0.171   6.830
14211SOL    HW244467   8.120   0.275   6.738
14212SOL     OW44468   9.686   5.636   9.931
14212SOL    HW144469   9.741   5.596   9.998
14212SOL    HW244470   9.690   5.730   9.948
14213SOL     OW44471   2.167   1.158   0.433
14213SOL    HW144472   2.142   1.126   0.346
14213SOL    HW244473   2.118   1.102   0.494
14214SOL     OW44474   8.348  11.865   0.879
14214SOL    HW144475   8.434  11.900   0.857
14214SOL    HW244476   8.338  11.882   0.973
14215SOL     OW44477   4.593   0.502   8.164
14215SOL    HW144478   4.652   0.556   8.217
14215SOL    HW244479   4.596   0.415   8.205
14216SOL     OW44480   5.626  14.360  10.460
14216SOL    HW144481   5.541  14.401  10.440
14216SOL    HW244482   5.607  14.299  10.531
14217SOL     OW44483   2.278  12.617  11.758
14217SOL    HW144484   2.287  12.643  11.850
14217SOL    HW244485   2.360  12.572  11.738
14218SOL     OW44486  11.607   9.562  14.485
14218SOL    HW144487  11.600   9.586  14.577
14218SOL    HW244488  11.588   9.643  14.437
14219SOL     OW44489  13.408   3.949   7.325
14219SOL    HW144490  13.440   3.890   7.393
14219SOL    HW244491  13.313   3.941   7.329
14220SOL     OW44492  14.415   3.130   6.748
14220SOL    HW144493  14.504   3.104   6.723
14220SOL    HW244494  14.407   3.104   6.839
14221SOL     OW44495  13.710  12.634   1.972
14221SOL    HW144496  13.700  12.716   2.022
14221SOL    HW244497  13.781  12.588   2.016
14222SOL     OW44498  13.568  10.498   9.827
14222SOL    HW144499  13.521  10.580   9.814
14222SOL    HW244500  13.584  10.464   9.739
14223SOL     OW44501  12.134   4.533   8.488
14223SOL    HW144502  12.190   4.463   8.455
14223SOL    HW244503  12.092   4.495   8.565
14224SOL     OW44504   2.254   0.297   9.969
14224SOL    HW144505   2.260   0.304   9.873
14224SOL    HW244506   2.171   0.338   9.991
14225SOL     OW44507   3.539  14.109   0.809
14225SOL    HW144508   3.629  14.136   0.794
14225SOL    HW244509   3.512  14.067   0.728
14226SOL     OW44510  13.609  13.953   4.141
14226SOL    HW144511  13.680  13.988   4.086
14226SOL    HW244512  13.619  13.858   4.135
14227SOL     OW44513   3.783   3.552   6.968
14227SOL    HW144514   3.784   3.476   6.910
14227SOL    HW244515   3.753   3.624   6.912
14228SOL     OW44516   9.673   6.861  14.008
14228SOL    HW144517   9.722   6.934  14.045
14228SOL    HW244518   9.599   6.902  13.965
14229SOL     OW44519   6.183  11.929  11.332
14229SOL    HW144520   6.241  11.976  11.391
14229SOL    HW244521   6.206  11.960  11.245
14230SOL     OW44522  14.288  11.630   7.582
14230SOL    HW144523  14.193  11.621   7.576
14230SOL    HW244524  14.322  11.542   7.564
14231SOL     OW44525   4.138  10.550   1.078
14231SOL    HW144526   4.179  10.606   1.012
14231SOL    HW244527   4.203  10.543   1.148
14232SOL     OW44528   6.495   5.600   1.170
14232SOL    HW144529   6.415   5.575   1.215
14232SOL    HW244530   6.517   5.524   1.116
14233SOL     OW44531  12.515   9.310   6.059
14233SOL    HW144532  12.566   9.363   5.997
14233SOL    HW244533  12.504   9.368   6.135
14234SOL     OW44534  11.191   9.330   0.160
14234SOL    HW144535  11.172   9.242   0.193
14234SOL    HW244536  11.218   9.380   0.237
14235SOL     OW44537   9.041   8.003   3.162
14235SOL    HW144538   9.078   7.999   3.250
14235SOL    HW244539   8.947   8.014   3.175
14236SOL     OW44540  11.993   9.265  11.512
14236SOL    HW144541  11.921   9.205  11.491
14236SOL    HW244542  11.961   9.315  11.587
14237SOL     OW44543   3.213  14.797   2.544
14237SOL    HW144544   3.258  14.731   2.596
14237SOL    HW244545   3.120  14.785   2.565
14238SOL     OW44546   6.079  11.833   8.889
14238SOL    HW144547   6.074  11.840   8.984
14238SOL    HW244548   6.092  11.923   8.858
14239SOL     OW44549   3.313   7.405  10.121
14239SOL    HW144550   3.332   7.402  10.215
14239SOL    HW244551   3.256   7.330  10.105
14240SOL     OW44552  13.653  13.624   0.763
14240SOL    HW144553  13.609  13.696   0.717
14240SOL    HW244554  13.590  13.595   0.828
14241SOL     OW44555   6.830  11.991   7.959
14241SOL    HW144556   6.805  12.062   8.018
14241SOL    HW244557   6.853  11.919   8.017
14242SOL     OW44558   0.100   9.289   0.127
14242SOL    HW144559   0.128   9.220   0.187
14242SOL    HW244560   0.157   9.363   0.146
14243SOL     OW44561   8.175  13.545  12.608
14243SOL    HW144562   8.173  13.639  12.624
14243SOL    HW244563   8.258  13.529  12.564
14244SOL     OW44564  11.605  12.247   3.704
14244SOL    HW144565  11.613  12.153   3.720
14244SOL    HW244566  11.523  12.256   3.655
14245SOL     OW44567   5.065   0.103   6.712
14245SOL    HW144568   5.000   0.077   6.776
14245SOL    HW244569   5.116   0.024   6.695
14246SOL     OW44570  12.907   8.755   0.237
14246SOL    HW144571  12.897   8.824   0.172
14246SOL    HW244572  12.904   8.801   0.321
14247SOL     OW44573   4.807   1.541   6.209
14247SOL    HW144574   4.784   1.464   6.157
14247SOL    HW244575   4.892   1.520   6.248
14248SOL     OW44576  13.059   0.562   7.549
14248SOL    HW144577  13.086   0.526   7.465
14248SOL    HW244578  13.136   0.607   7.582
14249SOL     OW44579  13.626  14.178  11.123
14249SOL    HW144580  13.586  14.098  11.156
14249SOL    HW244581  13.628  14.166  11.028
14250SOL     OW44582   7.692  11.938   8.289
14250SOL    HW144583   7.657  11.849   8.296
14250SOL    HW244584   7.619  11.991   8.257
14251SOL     OW44585  14.610  10.763   6.547
14251SOL    HW144586  14.651  10.725   6.470
14251SOL    HW244587  14.581  10.687   6.599
14252SOL     OW44588   3.042  14.305  10.782
14252SOL    HW144589   3.129  14.329  10.814
14252SOL    HW244590   3.053  14.218  10.745
14253SOL     OW44591   7.192  10.396   1.787
14253SOL    HW144592   7.200  10.482   1.828
14253SOL    HW244593   7.228  10.335   1.851
14254SOL     OW44594   1.632   8.144   9.214
14254SOL    HW144595   1.599   8.232   9.235
14254SOL    HW244596   1.629   8.097   9.298
14255SOL     OW44597   0.753   1.945   1.888
14255SOL    HW144598   0.703   2.025   1.905
14255SOL    HW244599   0.783   1.917   1.975
14256SOL     OW44600  13.090   7.051   2.902
14256SOL    HW144601  13.054   7.133   2.935
14256SOL    HW244602  13.150   7.077   2.833
14257SOL     OW44603   9.170   6.566   6.103
14257SOL    HW144604   9.133   6.631   6.043
14257SOL    HW244605   9.253   6.542   6.062
14258SOL     OW44606  11.106   7.075  11.043
14258SOL    HW144607  11.029   7.055  10.989
14258SOL    HW244608  11.114   7.170  11.038
14259SOL     OW44609   5.757   1.252   3.051
14259SOL    HW144610   5.679   1.307   3.050
14259SOL    HW244611   5.725   1.164   3.031
14260SOL     OW44612  14.008   6.125  11.636
14260SOL    HW144613  14.103   6.122  11.620
14260SOL    HW244614  13.970   6.072  11.566
14261SOL     OW44615   3.257   4.946   9.142
14261SOL    HW144616   3.250   4.921   9.234
14261SOL    HW244617   3.316   4.881   9.104
14262SOL     OW44618   7.391   2.191   0.681
14262SOL    HW144619   7.452   2.124   0.712
14262SOL    HW244620   7.404   2.264   0.742
14263SOL     OW44621   2.471   1.839   7.241
14263SOL    HW144622   2.444   1.861   7.330
14263SOL    HW244623   2.436   1.751   7.226
14264SOL     OW44624  12.722   0.081  10.807
14264SOL    HW144625  12.762   0.154  10.855
14264SOL    HW244626  12.627   0.096  10.816
14265SOL     OW44627   2.078   9.433  12.160
14265SOL    HW144628   2.164   9.469  12.181
14265SOL    HW244629   2.018   9.476  12.221
14266SOL     OW44630   6.080   4.983   7.582
14266SOL    HW144631   6.144   5.052   7.599
14266SOL    HW244632   6.083   4.971   7.487
14267SOL     OW44633   6.529  10.399   4.401
14267SOL    HW144634   6.506  10.317   4.444
14267SOL    HW244635   6.582  10.373   4.325
14268SOL     OW44636  11.394   3.321   1.952
14268SOL    HW144637  11.354   3.238   1.979
14268SOL    HW244638  11.485   3.314   1.981
14269SOL     OW44639   0.376  12.427   0.870
14269SOL    HW144640   0.284  12.447   0.886
14269SOL    HW244641   0.402  12.489   0.802
14270SOL     OW44642   3.813   2.393  14.478
14270SOL    HW144643   3.732   2.419  14.523
14270SOL    HW244644   3.878   2.457  14.507
14271SOL     OW44645  11.660  14.759   3.367
14271SOL    HW144646  11.628  14.730   3.282
14271SOL    HW244647  11.628  14.693   3.428
14272SOL     OW44648  12.288   0.826   0.746
14272SOL    HW144649  12.377   0.832   0.712
14272SOL    HW244650  12.296   0.776   0.827
14273SOL     OW44651   8.712   3.891  12.146
14273SOL    HW144652   8.700   3.959  12.079
14273SOL    HW244653   8.805   3.869  12.141
14274SOL     OW44654  11.909  10.257   6.562
14274SOL    HW144655  11.860  10.222   6.488
14274SOL    HW244656  11.893  10.195   6.633
14275SOL     OW44657   6.613   4.854   5.828
14275SOL    HW144658   6.588   4.762   5.825
14275SOL    HW244659   6.577   4.886   5.911
14276SOL     OW44660  12.977  14.396   3.597
14276SOL    HW144661  12.999  14.462   3.531
14276SOL    HW244662  13.061  14.369   3.634
14277SOL     OW44663   7.285   2.127   1.810
14277SOL    HW144664   7.345   2.053   1.815
14277SOL    HW244665   7.246   2.120   1.723
14278SOL     OW44666  10.764   4.857  13.319
14278SOL    HW144667  10.716   4.887  13.396
14278SOL    HW244668  10.739   4.766  13.308
14279SOL     OW44669   6.976   3.764   7.215
14279SOL    HW144670   7.056   3.815   7.229
14279SOL    HW244671   6.996   3.708   7.141
14280SOL     OW44672   3.119  10.675   7.665
14280SOL    HW144673   3.088  10.706   7.580
14280SOL    HW244674   3.188  10.613   7.644
14281SOL     OW44675  13.319   3.682   2.558
14281SOL    HW144676  13.248   3.735   2.594
14281SOL    HW244677  13.323   3.605   2.616
14282SOL     OW44678  10.776  14.692  12.717
14282SOL    HW144679  10.706  14.645  12.762
14282SOL    HW244680  10.848  14.630  12.714
14283SOL     OW44681   5.863  10.076   1.097
14283SOL    HW144682   5.784  10.108   1.140
14283SOL    HW244683   5.832  10.031   1.019
14284SOL     OW44684   8.699  10.062   4.397
14284SOL    HW144685   8.629   9.997   4.399
14284SOL    HW244686   8.684  10.110   4.316
14285SOL     OW44687   0.916   8.868   8.075
14285SOL    HW144688   0.830   8.852   8.036
14285SOL    HW244689   0.918   8.962   8.092
14286SOL     OW44690   1.204   8.174  12.839
14286SOL    HW144691   1.239   8.239  12.779
14286SOL    HW244692   1.114   8.202  12.855
14287SOL     OW44693  10.943   6.223   7.115
14287SOL    HW144694  10.959   6.309   7.075
14287SOL    HW244695  11.010   6.215   7.183
14288SOL     OW44696   5.887  10.941   6.624
14288SOL    HW144697   5.944  10.910   6.694
14288SOL    HW244698   5.931  10.914   6.544
14289SOL     OW44699   1.547   8.035   8.971
14289SOL    HW144700   1.453   8.045   8.955
14289SOL    HW244701   1.563   8.082   9.052
14290SOL     OW44702   5.920   5.912   0.501
14290SOL    HW144703   5.991   5.879   0.445
14290SOL    HW244704   5.869   5.970   0.444
14291SOL     OW44705   8.641   7.458   4.016
14291SOL    HW144706   8.716   7.510   3.985
14291SOL    HW244707   8.636   7.477   4.110
14292SOL     OW44708  11.605   5.319  11.604
14292SOL    HW144709  11.676   5.356  11.656
14292SOL    HW244710  11.551   5.272  11.667
14293SOL     OW44711  10.370  14.487   2.752
14293SOL    HW144712  10.378  14.535   2.670
14293SOL    HW244713  10.439  14.421   2.749
14294SOL     OW44714   8.373   9.997   8.915
14294SOL    HW144715   8.294   9.979   8.966
14294SOL    HW244716   8.340  10.018   8.827
14295SOL     OW44717  13.992   9.091   3.799
14295SOL    HW144718  14.066   9.067   3.744
14295SOL    HW244719  13.930   9.019   3.789
14296SOL     OW44720  13.215  12.146   4.814
14296SOL    HW144721  13.231  12.143   4.719
14296SOL    HW244722  13.193  12.055   4.836
14297SOL     OW44723   9.526  10.173   4.439
14297SOL    HW144724   9.469  10.109   4.482
14297SOL    HW244725   9.468  10.244   4.413
14298SOL     OW44726   9.565   8.260   9.960
14298SOL    HW144727   9.518   8.296   9.884
14298SOL    HW244728   9.616   8.187   9.925
14299SOL     OW44729   5.584  14.299   6.943
14299SOL    HW144730   5.624  14.282   6.858
14299SOL    HW244731   5.645  14.359   6.987
14300SOL     OW44732  10.940   6.772  10.521
14300SOL    HW144733  10.943   6.868  10.525
14300SOL    HW244734  10.957   6.743  10.611
14301SOL     OW44735   9.858   9.772   8.930
14301SOL    HW144736   9.911   9.757   9.009
14301SOL    HW244737   9.777   9.810   8.963
14302SOL     OW44738  14.343   6.730   3.994
14302SOL    HW144739  14.350   6.690   4.081
14302SOL    HW244740  14.249   6.743   3.982
14303SOL     OW44741   3.565   8.998  10.037
14303SOL    HW144742   3.507   8.958  10.102
14303SOL    HW244743   3.636   8.934  10.026
14304SOL     OW44744  10.864  11.837  13.800
14304SOL    HW144745  10.895  11.746  13.807
14304SOL    HW244746  10.777  11.829  13.762
14305SOL     OW44747  13.555   5.158  14.647
14305SOL    HW144748  13.555   5.201  14.561
14305SOL    HW244749  13.523   5.070  14.629
14306SOL     OW44750  12.218  13.553  13.606
14306SOL    HW144751  12.301  13.546  13.560
14306SOL    HW244752  12.156  13.503  13.552
14307SOL     OW44753   6.523   3.229  14.356
14307SOL    HW144754   6.502   3.214  14.448
14307SOL    HW244755   6.606   3.278  14.358
14308SOL     OW44756  11.505   1.114   1.604
14308SOL    HW144757  11.495   1.209   1.606
14308SOL    HW244758  11.426   1.082   1.561
14309SOL     OW44759   2.272   8.765   2.199
14309SOL    HW144760   2.288   8.702   2.129
14309SOL    HW244761   2.357   8.808   2.212
14310SOL     OW44762   7.107   0.250   7.936
14310SOL    HW144763   7.173   0.306   7.976
14310SOL    HW244764   7.118   0.264   7.842
14311SOL     OW44765   7.435  13.989   9.460
14311SOL    HW144766   7.410  14.077   9.431
14311SOL    HW244767   7.531  13.992   9.464
14312SOL     OW44768   0.768   6.667  12.135
14312SOL    HW144769   0.745   6.622  12.217
14312SOL    HW244770   0.857   6.638  12.117
14313SOL     OW44771   9.335   5.421  11.650
14313SOL    HW144772   9.301   5.386  11.567
14313SOL    HW244773   9.384   5.348  11.688
14314SOL     OW44774   1.777  14.639   4.389
14314SOL    HW144775   1.721  14.648   4.466
14314SOL    HW244776   1.720  14.600   4.322
14315SOL     OW44777   9.558   2.066   4.996
14315SOL    HW144778   9.559   2.130   4.925
14315SOL    HW244779   9.577   1.982   4.954
14316SOL     OW44780   8.669   3.238  12.842
14316SOL    HW144781   8.685   3.231  12.747
14316SOL    HW244782   8.595   3.180  12.858
14317SOL     OW44783   4.325   2.256   6.893
14317SOL    HW144784   4.384   2.202   6.840
14317SOL    HW244785   4.374   2.337   6.908
14318SOL     OW44786   9.517  10.232   6.269
14318SOL    HW144787   9.473  10.200   6.347
14318SOL    HW244788   9.502  10.165   6.203
14319SOL     OW44789   3.962  11.364   2.032
14319SOL    HW144790   4.034  11.420   2.002
14319SOL    HW244791   3.981  11.349   2.125
14320SOL     OW44792  13.685  10.041  10.781
14320SOL    HW144793  13.703  10.135  10.776
14320SOL    HW244794  13.769   9.999  10.763
14321SOL     OW44795  13.087   4.127   4.032
14321SOL    HW144796  13.068   4.160   4.120
14321SOL    HW244797  13.167   4.174   4.006
14322SOL     OW44798   4.501  11.718  10.046
14322SOL    HW144799   4.521  11.802  10.006
14322SOL    HW244800   4.570  11.705  10.111
14323SOL     OW44801   9.877   6.223   1.340
14323SOL    HW144802   9.809   6.185   1.396
14323SOL    HW244803   9.957   6.219   1.392
14324SOL     OW44804   6.810  13.259   4.506
14324SOL    HW144805   6.835  13.169   4.485
14324SOL    HW244806   6.721  13.268   4.472
14325SOL     OW44807   0.536   7.937  12.873
14325SOL    HW144808   0.534   7.842  12.879
14325SOL    HW244809   0.575   7.955  12.787
14326SOL     OW44810   1.815   7.940  14.149
14326SOL    HW144811   1.769   7.867  14.107
14326SOL    HW244812   1.803   8.014  14.088
14327SOL     OW44813   0.131  10.866   3.852
14327SOL    HW144814   0.062  10.833   3.794
14327SOL    HW244815   0.108  10.833   3.938
14328SOL     OW44816   3.222   9.198   9.969
14328SOL    HW144817   3.187   9.287   9.980
14328SOL    HW244818   3.273   9.183  10.049
14329SOL     OW44819  13.632   1.751  14.650
14329SOL    HW144820  13.700   1.752  14.718
14329SOL    HW244821  13.557   1.709  14.691
14330SOL     OW44822   7.271   0.917   5.896
14330SOL    HW144823   7.266   0.864   5.976
14330SOL    HW244824   7.206   0.878   5.837
14331SOL     OW44825   6.597  13.179   7.070
14331SOL    HW144826   6.656  13.194   7.145
14331SOL    HW244827   6.638  13.106   7.023
14332SOL     OW44828  13.994   6.649   3.314
14332SOL    HW144829  14.082   6.620   3.287
14332SOL    HW244830  13.957   6.573   3.359
14333SOL     OW44831   8.980   5.842   7.555
14333SOL    HW144832   9.050   5.903   7.582
14333SOL    HW244833   9.021   5.786   7.489
14334SOL     OW44834  11.597   0.397   9.572
14334SOL    HW144835  11.590   0.447   9.653
14334SOL    HW244836  11.689   0.404   9.547
14335SOL     OW44837   9.137   1.618   0.277
14335SOL    HW144838   9.049   1.585   0.259
14335SOL    HW244839   9.130   1.661   0.362
14336SOL     OW44840   6.076  12.666   4.846
14336SOL    HW144841   6.027  12.587   4.869
14336SOL    HW244842   6.042  12.690   4.759
14337SOL     OW44843   5.746  12.128   2.432
14337SOL    HW144844   5.764  12.036   2.415
14337SOL    HW244845   5.800  12.150   2.508
14338SOL     OW44846   0.491  12.329   8.540
14338SOL    HW144847   0.413  12.275   8.547
14338SOL    HW244848   0.563  12.267   8.533
14339SOL     OW44849   6.420   0.446   4.759
14339SOL    HW144850   6.469   0.485   4.686
14339SOL    HW244851   6.432   0.352   4.748
14340SOL     OW44852  10.974   1.299   9.403
14340SOL    HW144853  10.915   1.373   9.415
14340SOL    HW244854  11.048   1.336   9.355
14341SOL     OW44855   7.056  11.312   0.428
14341SOL    HW144856   7.049  11.258   0.349
14341SOL    HW244857   7.104  11.257   0.490
14342SOL     OW44858   8.584   1.071   8.755
14342SOL    HW144859   8.637   1.027   8.688
14342SOL    HW244860   8.636   1.148   8.780
14343SOL     OW44861   9.312   4.909   4.066
14343SOL    HW144862   9.266   4.874   3.989
14343SOL    HW244863   9.394   4.859   4.069
14344SOL     OW44864   7.361   0.164   1.642
14344SOL    HW144865   7.355   0.150   1.737
14344SOL    HW244866   7.380   0.258   1.634
14345SOL     OW44867  11.338   8.205   0.392
14345SOL    HW144868  11.303   8.204   0.481
14345SOL    HW244869  11.433   8.209   0.404
14346SOL     OW44870   3.249   8.392   9.531
14346SOL    HW144871   3.175   8.437   9.571
14346SOL    HW244872   3.212   8.346   9.456
14347SOL     OW44873   7.408   7.435   8.551
14347SOL    HW144874   7.371   7.432   8.639
14347SOL    HW244875   7.335   7.414   8.493
14348SOL     OW44876  10.550   2.899   9.635
14348SOL    HW144877  10.625   2.838   9.628
14348SOL    HW244878  10.494   2.876   9.561
14349SOL     OW44879   2.362   1.955  11.961
14349SOL    HW144880   2.355   1.868  12.000
14349SOL    HW244881   2.271   1.981  11.945
14350SOL     OW44882   4.244  12.815   9.328
14350SOL    HW144883   4.210  12.843   9.243
14350SOL    HW244884   4.171  12.769   9.369
14351SOL     OW44885   8.033   3.506  11.645
14351SOL    HW144886   7.984   3.559  11.708
14351SOL    HW244887   8.058   3.428  11.694
14352SOL     OW44888  11.746   0.722  12.602
14352SOL    HW144889  11.732   0.658  12.532
14352SOL    HW244890  11.787   0.797  12.558
14353SOL     OW44891  14.126   3.287   7.874
14353SOL    HW144892  14.052   3.328   7.918
14353SOL    HW244893  14.164   3.229   7.940
14354SOL     OW44894   0.921   9.372   2.667
14354SOL    HW144895   0.888   9.462   2.659
14354SOL    HW244896   0.976   9.374   2.745
14355SOL     OW44897   8.043   3.914  13.556
14355SOL    HW144898   8.064   3.932  13.464
14355SOL    HW244899   7.949   3.894  13.556
14356SOL     OW44900   5.477  13.426  13.325
14356SOL    HW144901   5.425  13.506  13.327
14356SOL    HW244902   5.441  13.375  13.253
14357SOL     OW44903   1.707   1.529   3.020
14357SOL    HW144904   1.702   1.618   2.986
14357SOL    HW244905   1.642   1.480   2.971
14358SOL     OW44906   4.007   0.020  12.829
14358SOL    HW144907   4.078   0.082  12.847
14358SOL    HW244908   4.026  14.864  12.742
14359SOL     OW44909   2.590   1.795  13.440
14359SOL    HW144910   2.510   1.843  13.421
14359SOL    HW244911   2.632   1.782  13.355
14360SOL     OW44912  11.073   3.657   9.734
14360SOL    HW144913  11.035   3.655   9.822
14360SOL    HW244914  11.029   3.730   9.690
14361SOL     OW44915  13.783  12.437  11.798
14361SOL    HW144916  13.856  12.388  11.838
14361SOL    HW244917  13.786  12.413  11.706
14362SOL     OW44918   8.213   3.362   8.298
14362SOL    HW144919   8.265   3.338   8.374
14362SOL    HW244920   8.223   3.457   8.291
14363SOL     OW44921  11.141  12.354   4.755
14363SOL    HW144922  11.105  12.391   4.836
14363SOL    HW244923  11.076  12.374   4.688
14364SOL     OW44924   5.290   2.932   6.687
14364SOL    HW144925   5.322   2.918   6.776
14364SOL    HW244926   5.331   3.014   6.659
14365SOL     OW44927   0.670   1.070   4.571
14365SOL    HW144928   0.606   1.042   4.636
14365SOL    HW244929   0.695   0.989   4.526
14366SOL     OW44930   1.510   4.658   7.367
14366SOL    HW144931   1.444   4.691   7.428
14366SOL    HW244932   1.467   4.585   7.322
14367SOL     OW44933   0.106  13.236   4.987
14367SOL    HW144934   0.044  13.171   4.954
14367SOL    HW244935   0.176  13.238   4.922
14368SOL     OW44936   8.637   7.572   2.145
14368SOL    HW144937   8.715   7.627   2.136
14368SOL    HW244938   8.628   7.559   2.239
14369SOL     OW44939   4.328   6.141  12.652
14369SOL    HW144940   4.284   6.224  12.671
14369SOL    HW244941   4.368   6.115  12.734
14370SOL     OW44942   1.019   6.720  10.556
14370SOL    HW144943   1.095   6.686  10.604
14370SOL    HW244944   1.039   6.701  10.464
14371SOL     OW44945  10.797  10.501   5.252
14371SOL    HW144946  10.815  10.443   5.179
14371SOL    HW244947  10.767  10.443   5.322
14372SOL     OW44948   9.148   6.128   7.267
14372SOL    HW144949   9.150   6.217   7.232
14372SOL    HW244950   9.200   6.132   7.347
14373SOL     OW44951  11.659   7.444  12.593
14373SOL    HW144952  11.739   7.393  12.580
14373SOL    HW244953  11.670   7.483  12.679
14374SOL     OW44954   8.337  13.149   3.117
14374SOL    HW144955   8.299  13.095   3.048
14374SOL    HW244956   8.407  13.095   3.153
14375SOL     OW44957  13.227   6.864   9.753
14375SOL    HW144958  13.300   6.849   9.812
14375SOL    HW244959  13.222   6.785   9.700
14376SOL     OW44960  12.494   8.286   4.329
14376SOL    HW144961  12.504   8.220   4.398
14376SOL    HW244962  12.525   8.368   4.369
14377SOL     OW44963   1.654  12.329  10.478
14377SOL    HW144964   1.659  12.263  10.409
14377SOL    HW244965   1.617  12.406  10.436
14378SOL     OW44966   2.887  12.432   4.642
14378SOL    HW144967   2.912  12.510   4.593
14378SOL    HW244968   2.895  12.457   4.734
14379SOL     OW44969   9.474   4.913   4.746
14379SOL    HW144970   9.521   4.911   4.829
14379SOL    HW244971   9.423   4.994   4.748
14380SOL     OW44972  13.345   8.925   2.735
14380SOL    HW144973  13.275   8.938   2.799
14380SOL    HW244974  13.354   9.010   2.691
14381SOL     OW44975   6.529  14.191   2.426
14381SOL    HW144976   6.491  14.151   2.348
14381SOL    HW244977   6.460  14.248   2.460
14382SOL     OW44978   8.339   0.732  10.345
14382SOL    HW144979   8.276   0.665  10.319
14382SOL    HW244980   8.285   0.802  10.381
14383SOL     OW44981   5.232   6.991   1.959
14383SOL    HW144982   5.171   6.921   1.939
14383SOL    HW244983   5.220   7.008   2.052
14384SOL     OW44984   1.197   6.250   0.658
14384SOL    HW144985   1.194   6.157   0.681
14384SOL    HW244986   1.251   6.253   0.579
14385SOL     OW44987   6.021   8.355   7.798
14385SOL    HW144988   6.105   8.369   7.755
14385SOL    HW244989   6.035   8.381   7.889
14386SOL     OW44990   9.991  11.827   6.780
14386SOL    HW144991  10.062  11.818   6.843
14386SOL    HW244992  10.025  11.889   6.715
14387SOL     OW44993   3.375  12.772  14.101
14387SOL    HW144994   3.282  12.795  14.106
14387SOL    HW244995   3.376  12.681  14.074
14388SOL     OW44996   2.031  10.069   1.253
14388SOL    HW144997   2.022  10.016   1.174
14388SOL    HW244998   2.108  10.033   1.298
14389SOL     OW44999   5.920   8.977  13.760
14389SOL    HW145000   5.922   9.032  13.839
14389SOL    HW245001   6.001   8.927  13.764
14390SOL     OW45002   4.293   1.489  13.694
14390SOL    HW145003   4.210   1.536  13.683
14390SOL    HW245004   4.278   1.404  13.654
14391SOL     OW45005  10.502  13.705   4.262
14391SOL    HW145006  10.544  13.632   4.216
14391SOL    HW245007  10.412  13.706   4.228
14392SOL     OW45008   1.821  11.257   0.526
14392SOL    HW145009   1.870  11.176   0.509
14392SOL    HW245010   1.883  11.327   0.505
14393SOL     OW45011   3.668   0.197   2.611
14393SOL    HW145012   3.583   0.156   2.593
14393SOL    HW245013   3.690   0.167   2.699
14394SOL     OW45014   0.611   4.542   6.563
14394SOL    HW145015   0.621   4.609   6.495
14394SOL    HW245016   0.557   4.475   6.522
14395SOL     OW45017   2.521   7.426   0.543
14395SOL    HW145018   2.467   7.351   0.570
14395SOL    HW245019   2.460   7.485   0.500
14396SOL     OW45020   9.916  10.264  10.854
14396SOL    HW145021   9.904  10.197  10.921
14396SOL    HW245022  10.002  10.301  10.871
14397SOL     OW45023  14.609   0.166   6.419
14397SOL    HW145024  14.527   0.183   6.372
14397SOL    HW245025  14.659   0.247   6.409
14398SOL     OW45026  12.246   7.268   8.510
14398SOL    HW145027  12.274   7.256   8.600
14398SOL    HW245028  12.194   7.190   8.490
14399SOL     OW45029  14.042   3.662   9.744
14399SOL    HW145030  14.106   3.618   9.688
14399SOL    HW245031  14.061   3.756   9.734
14400SOL     OW45032  12.944  14.431   1.841
14400SOL    HW145033  13.030  14.390   1.827
14400SOL    HW245034  12.937  14.438   1.936
14401SOL     OW45035   0.231   3.863   8.918
14401SOL    HW145036   0.184   3.793   8.873
14401SOL    HW245037   0.268   3.823   8.996
14402SOL     OW45038  14.483  11.567   1.445
14402SOL    HW145039  14.561  11.518   1.415
14402SOL    HW245040  14.441  11.595   1.364
14403SOL     OW45041   9.038   9.672   2.468
14403SOL    HW145042   9.131   9.678   2.444
14403SOL    HW245043   9.010   9.763   2.475
14404SOL     OW45044  13.586   4.316   7.570
14404SOL    HW145045  13.501   4.275   7.586
14404SOL    HW245046  13.566   4.393   7.516
14405SOL     OW45047  12.798  14.623   8.712
14405SOL    HW145048  12.845  14.596   8.791
14405SOL    HW245049  12.788  14.717   8.721
14406SOL     OW45050   0.454   1.055  10.140
14406SOL    HW145051   0.480   0.998  10.067
14406SOL    HW245052   0.375   1.013  10.174
14407SOL     OW45053   9.146   6.058   5.700
14407SOL    HW145054   9.088   6.112   5.753
14407SOL    HW245055   9.220   6.039   5.758
14408SOL     OW45056   5.198  13.124   8.498
14408SOL    HW145057   5.250  13.202   8.518
14408SOL    HW245058   5.243  13.083   8.424
14409SOL     OW45059   6.275  14.768   3.125
14409SOL    HW145060   6.201  14.737   3.074
14409SOL    HW245061   6.346  14.707   3.104
14410SOL     OW45062   3.349   7.704  11.146
14410SOL    HW145063   3.431   7.742  11.180
14410SOL    HW245064   3.377   7.628  11.096
14411SOL     OW45065   9.865  12.035   9.949
14411SOL    HW145066   9.939  12.034  10.010
14411SOL    HW245067   9.889  11.971   9.882
14412SOL     OW45068   9.592   3.926  11.608
14412SOL    HW145069   9.598   3.845  11.658
14412SOL    HW245070   9.571   3.898  11.519
14413SOL     OW45071   9.382   4.417  10.004
14413SOL    HW145072   9.463   4.468  10.000
14413SOL    HW245073   9.411   4.326   9.994
14414SOL     OW45074  11.005   4.626  13.400
14414SOL    HW145075  11.073   4.689  13.377
14414SOL    HW245076  11.045   4.541  13.384
14415SOL     OW45077  12.357  10.028  11.478
14415SOL    HW145078  12.387  10.088  11.410
14415SOL    HW245079  12.380   9.941  11.445
14416SOL     OW45080   1.652   1.805   9.564
14416SOL    HW145081   1.615   1.717   9.557
14416SOL    HW245082   1.589   1.853   9.618
14417SOL     OW45083   9.311  11.558  11.291
14417SOL    HW145084   9.304  11.500  11.367
14417SOL    HW245085   9.229  11.608  11.291
14418SOL     OW45086  13.118   8.827  13.521
14418SOL    HW145087  13.032   8.833  13.479
14418SOL    HW245088  13.161   8.909  13.499
14419SOL     OW45089  13.231  11.305   3.461
14419SOL    HW145090  13.302  11.266   3.513
14419SOL    HW245091  13.243  11.399   3.471
14420SOL     OW45092   0.376  12.773   8.467
14420SOL    HW145093   0.318  12.773   8.392
14420SOL    HW245094   0.318  12.770   8.543
14421SOL     OW45095   0.716  12.373   5.155
14421SOL    HW145096   0.682  12.393   5.242
14421SOL    HW245097   0.810  12.357   5.170
14422SOL     OW45098  11.898  11.331   3.885
14422SOL    HW145099  11.960  11.291   3.825
14422SOL    HW245100  11.822  11.273   3.883
14423SOL     OW45101   6.656  13.237   9.720
14423SOL    HW145102   6.648  13.300   9.791
14423SOL    HW245103   6.714  13.169   9.755
14424SOL     OW45104   8.976   1.055   2.471
14424SOL    HW145105   9.024   1.138   2.469
14424SOL    HW245106   9.043   0.989   2.493
14425SOL     OW45107  12.786  10.285   9.821
14425SOL    HW145108  12.875  10.320   9.827
14425SOL    HW245109  12.796  10.201   9.776
14426SOL     OW45110  12.980   8.021   9.477
14426SOL    HW145111  12.989   8.110   9.510
14426SOL    HW245112  13.056   7.975   9.513
14427SOL     OW45113   4.977   2.474   3.223
14427SOL    HW145114   5.057   2.421   3.222
14427SOL    HW245115   4.987   2.531   3.299
14428SOL     OW45116   4.160   0.245  11.202
14428SOL    HW145117   4.243   0.272  11.241
14428SOL    HW245118   4.114   0.326  11.182
14429SOL     OW45119  12.150  12.424   3.484
14429SOL    HW145120  12.074  12.471   3.450
14429SOL    HW245121  12.124  12.398   3.573
14430SOL     OW45122  13.200   4.167   2.905
14430SOL    HW145123  13.230   4.102   2.969
14430SOL    HW245124  13.257   4.155   2.830
14431SOL     OW45125  10.748   9.124   9.041
14431SOL    HW145126  10.815   9.160   9.099
14431SOL    HW245127  10.792   9.117   8.956
14432SOL     OW45128   4.473  13.926   6.620
14432SOL    HW145129   4.385  13.897   6.645
14432SOL    HW245130   4.509  13.963   6.701
14433SOL     OW45131   7.923   1.120   2.162
14433SOL    HW145132   7.996   1.175   2.191
14433SOL    HW245133   7.930   1.118   2.067
14434SOL     OW45134   6.980  13.302   3.771
14434SOL    HW145135   7.004  13.348   3.690
14434SOL    HW245136   7.044  13.232   3.778
14435SOL     OW45137   5.507   3.855   4.849
14435SOL    HW145138   5.593   3.826   4.878
14435SOL    HW245139   5.447   3.790   4.887
14436SOL     OW45140   3.526  13.212   1.867
14436SOL    HW145141   3.609  13.189   1.824
14436SOL    HW245142   3.461  13.154   1.827
14437SOL     OW45143   1.895   1.934   2.581
14437SOL    HW145144   1.894   2.026   2.555
14437SOL    HW245145   1.924   1.888   2.502
14438SOL     OW45146  12.109   2.214   0.995
14438SOL    HW145147  12.015   2.215   0.973
14438SOL    HW245148  12.153   2.238   0.914
14439SOL     OW45149  13.047   4.623   9.974
14439SOL    HW145150  13.106   4.695   9.949
14439SOL    HW245151  13.102   4.565  10.026
14440SOL     OW45152   3.351   8.198   4.724
14440SOL    HW145153   3.347   8.149   4.806
14440SOL    HW245154   3.277   8.259   4.730
14441SOL     OW45155   2.226   7.791  11.484
14441SOL    HW145156   2.170   7.801  11.561
14441SOL    HW245157   2.242   7.880  11.454
14442SOL     OW45158  12.268   4.808  13.628
14442SOL    HW145159  12.336   4.803  13.561
14442SOL    HW245160  12.195   4.757  13.593
14443SOL     OW45161   7.604   2.462   8.753
14443SOL    HW145162   7.660   2.450   8.830
14443SOL    HW245163   7.573   2.374   8.733
14444SOL     OW45164  14.832   8.269   3.085
14444SOL    HW145165  14.865   8.212   3.155
14444SOL    HW245166   0.032   8.309   3.048
14445SOL     OW45167   2.038  14.532   4.755
14445SOL    HW145168   2.053  14.438   4.760
14445SOL    HW245169   2.062  14.565   4.842
14446SOL     OW45170   0.271   7.291   1.961
14446SOL    HW145171   0.309   7.278   2.048
14446SOL    HW245172   0.297   7.214   1.911
14447SOL     OW45173   7.499   3.662  12.969
14447SOL    HW145174   7.522   3.583  13.018
14447SOL    HW245175   7.450   3.715  13.032
14448SOL     OW45176   7.477  10.607  11.413
14448SOL    HW145177   7.513  10.520  11.431
14448SOL    HW245178   7.478  10.614  11.318
14449SOL     OW45179   3.983   2.506   1.381
14449SOL    HW145180   3.911   2.452   1.348
14449SOL    HW245181   3.986   2.581   1.321
14450SOL     OW45182   6.501  10.576   6.571
14450SOL    HW145183   6.592  10.597   6.593
14450SOL    HW245184   6.456  10.573   6.655
14451SOL     OW45185  14.325  10.263  10.528
14451SOL    HW145186  14.420  10.261  10.535
14451SOL    HW245187  14.296  10.185  10.576
14452SOL     OW45188   7.974  10.356  14.462
14452SOL    HW145189   7.975  10.336  14.556
14452SOL    HW245190   7.942  10.446  14.457
14453SOL     OW45191   9.865  13.533  11.484
14453SOL    HW145192   9.825  13.459  11.438
14453SOL    HW245193   9.824  13.610  11.445
14454SOL     OW45194   7.315   3.296  10.000
14454SOL    HW145195   7.305   3.367  10.063
14454SOL    HW245196   7.237   3.302   9.944
14455SOL     OW45197   5.434  12.209   8.132
14455SOL    HW145198   5.357  12.250   8.093
14455SOL    HW245199   5.412  12.116   8.135
14456SOL     OW45200  11.005   5.302   9.175
14456SOL    HW145201  11.037   5.392   9.165
14456SOL    HW245202  11.053   5.268   9.251
14457SOL     OW45203  10.229  13.595  12.768
14457SOL    HW145204  10.293  13.665  12.755
14457SOL    HW245205  10.155  13.638  12.810
14458SOL     OW45206   0.270  13.357  14.255
14458SOL    HW145207   0.292  13.450  14.261
14458SOL    HW245208   0.351  13.315  14.226
14459SOL     OW45209   7.242  10.786   6.584
14459SOL    HW145210   7.298  10.760   6.511
14459SOL    HW245211   7.284  10.863   6.621
14460SOL     OW45212   9.187   4.458   6.619
14460SOL    HW145213   9.227   4.502   6.694
14460SOL    HW245214   9.238   4.378   6.608
14461SOL     OW45215   1.709   2.390   8.053
14461SOL    HW145216   1.753   2.338   8.121
14461SOL    HW245217   1.630   2.422   8.095
14462SOL     OW45218   3.501   4.924  10.690
14462SOL    HW145219   3.532   4.834  10.684
14462SOL    HW245220   3.519   4.961  10.604
14463SOL     OW45221   7.473   3.314   9.173
14463SOL    HW145222   7.392   3.303   9.224
14463SOL    HW245223   7.539   3.337   9.238
14464SOL     OW45224   0.668   4.870   7.841
14464SOL    HW145225   0.618   4.951   7.833
14464SOL    HW245226   0.641   4.818   7.765
14465SOL     OW45227  11.361   2.432   7.724
14465SOL    HW145228  11.274   2.463   7.697
14465SOL    HW245229  11.371   2.347   7.681
14466SOL     OW45230   7.138   9.534  14.741
14466SOL    HW145231   7.053   9.566  14.771
14466SOL    HW245232   7.193   9.612  14.736
14467SOL     OW45233   5.816   9.909   4.531
14467SOL    HW145234   5.858   9.839   4.481
14467SOL    HW245235   5.848   9.898   4.620
14468SOL     OW45236   5.632   0.006   4.568
14468SOL    HW145237   5.672   0.083   4.529
14468SOL    HW245238   5.706  14.832   4.598
14469SOL     OW45239   7.368   9.330   8.453
14469SOL    HW145240   7.301   9.381   8.409
14469SOL    HW245241   7.367   9.245   8.408
14470SOL     OW45242   4.696   8.331   7.416
14470SOL    HW145243   4.791   8.318   7.409
14470SOL    HW245244   4.670   8.279   7.491
14471SOL     OW45245   9.948   3.055   3.479
14471SOL    HW145246   9.947   3.001   3.559
14471SOL    HW245247  10.029   3.029   3.434
14472SOL     OW45248  11.244  12.050   5.932
14472SOL    HW145249  11.279  11.979   5.985
14472SOL    HW245250  11.312  12.118   5.935
14473SOL     OW45251   1.406  14.474  10.472
14473SOL    HW145252   1.418  14.481  10.567
14473SOL    HW245253   1.486  14.510  10.435
14474SOL     OW45254  13.853   1.347   4.132
14474SOL    HW145255  13.895   1.332   4.047
14474SOL    HW245256  13.825   1.260   4.161
14475SOL     OW45257   6.571   3.280  12.242
14475SOL    HW145258   6.621   3.361  12.236
14475SOL    HW245259   6.609   3.234  12.316
14476SOL     OW45260  12.074   8.847  13.791
14476SOL    HW145261  12.154   8.863  13.842
14476SOL    HW245262  12.057   8.754  13.803
14477SOL     OW45263  11.649  10.512   9.553
14477SOL    HW145264  11.739  10.502   9.520
14477SOL    HW245265  11.604  10.432   9.526
14478SOL     OW45266   4.612   3.422   7.147
14478SOL    HW145267   4.610   3.516   7.162
14478SOL    HW245268   4.642   3.413   7.056
14479SOL     OW45269   3.316   6.248   8.419
14479SOL    HW145270   3.223   6.238   8.438
14479SOL    HW245271   3.352   6.293   8.496
14480SOL     OW45272   8.678   6.635   4.331
14480SOL    HW145273   8.591   6.606   4.303
14480SOL    HW245274   8.660   6.702   4.397
14481SOL     OW45275  14.740  13.542   3.436
14481SOL    HW145276  14.720  13.449   3.443
14481SOL    HW245277  14.673  13.585   3.489
14482SOL     OW45278   6.795   3.652  11.155
14482SOL    HW145279   6.853   3.629  11.227
14482SOL    HW245280   6.780   3.570  11.108
14483SOL     OW45281   5.527  14.851  10.685
14483SOL    HW145282   5.439  14.862  10.722
14483SOL    HW245283   5.512  14.834  10.592
14484SOL     OW45284   5.063   9.888  10.417
14484SOL    HW145285   5.067   9.817  10.353
14484SOL    HW245286   4.972   9.919  10.413
14485SOL     OW45287   6.039  11.064   8.543
14485SOL    HW145288   6.049  11.026   8.630
14485SOL    HW245289   6.121  11.111   8.528
14486SOL     OW45290   7.962  14.588   5.688
14486SOL    HW145291   8.012  14.567   5.609
14486SOL    HW245292   7.871  14.578   5.662
14487SOL     OW45293   5.970   4.727   0.493
14487SOL    HW145294   6.005   4.694   0.575
14487SOL    HW245295   5.919   4.804   0.517
14488SOL     OW45296   1.642   3.246  14.793
14488SOL    HW145297   1.566   3.285  14.748
14488SOL    HW245298   1.636   3.278   0.004
14489SOL     OW45299   7.904  13.472   9.271
14489SOL    HW145300   7.850  13.396   9.291
14489SOL    HW245301   7.957  13.445   9.196
14490SOL     OW45302  13.001  11.527   8.613
14490SOL    HW145303  13.059  11.548   8.686
14490SOL    HW245304  12.998  11.607   8.561
14491SOL     OW45305  14.396   7.006   5.984
14491SOL    HW145306  14.329   7.014   6.052
14491SOL    HW245307  14.466   7.065   6.013
14492SOL     OW45308  12.357  10.630   8.721
14492SOL    HW145309  12.370  10.724   8.717
14492SOL    HW245310  12.372  10.599   8.631
14493SOL     OW45311  11.478   0.655   2.026
14493SOL    HW145312  11.490   0.644   1.932
14493SOL    HW245313  11.383   0.660   2.038
14494SOL     OW45314   7.719  14.379   6.889
14494SOL    HW145315   7.734  14.284   6.894
14494SOL    HW245316   7.789  14.417   6.943
14495SOL     OW45317   8.616   0.956   3.998
14495SOL    HW145318   8.561   0.898   3.945
14495SOL    HW245319   8.615   1.039   3.951
14496SOL     OW45320   8.662  10.443   3.736
14496SOL    HW145321   8.651  10.451   3.831
14496SOL    HW245322   8.616  10.519   3.700
14497SOL     OW45323   8.229  14.397  13.321
14497SOL    HW145324   8.136  14.405  13.341
14497SOL    HW245325   8.273  14.444  13.392
14498SOL     OW45326   0.278  11.837  10.909
14498SOL    HW145327   0.326  11.918  10.928
14498SOL    HW245328   0.295  11.822  10.816
14499SOL     OW45329  10.516   8.560   2.356
14499SOL    HW145330  10.563   8.489   2.400
14499SOL    HW245331  10.542   8.553   2.264
14500SOL     OW45332   4.491  13.217   4.724
14500SOL    HW145333   4.421  13.160   4.692
14500SOL    HW245334   4.482  13.215   4.819
14501SOL     OW45335   6.482  11.648  13.103
14501SOL    HW145336   6.533  11.716  13.147
14501SOL    HW245337   6.546  11.578  13.087
14502SOL     OW45338   7.924  11.383   1.071
14502SOL    HW145339   7.891  11.297   1.043
14502SOL    HW245340   7.845  11.434   1.089
14503SOL     OW45341  10.679   5.619  10.506
14503SOL    HW145342  10.762   5.603  10.460
14503SOL    HW245343  10.673   5.546  10.568
14504SOL     OW45344  13.241  12.063   2.153
14504SOL    HW145345  13.159  12.035   2.193
14504SOL    HW245346  13.236  12.158   2.151
14505SOL     OW45347  14.077   1.649   7.105
14505SOL    HW145348  14.065   1.735   7.065
14505SOL    HW245349  14.009   1.594   7.066
14506SOL     OW45350   7.436  10.721  10.424
14506SOL    HW145351   7.461  10.803  10.467
14506SOL    HW245352   7.420  10.746  10.333
14507SOL     OW45353  13.917  11.976   3.881
14507SOL    HW145354  13.987  12.040   3.894
14507SOL    HW245355  13.903  11.974   3.786
14508SOL     OW45356   2.569   6.600   5.119
14508SOL    HW145357   2.641   6.636   5.068
14508SOL    HW245358   2.491   6.617   5.067
14509SOL     OW45359   5.212   8.619   9.378
14509SOL    HW145360   5.213   8.632   9.473
14509SOL    HW245361   5.295   8.656   9.348
14510SOL     OW45362  14.081   4.173  13.045
14510SOL    HW145363  14.149   4.150  12.981
14510SOL    HW245364  14.094   4.266  13.062
14511SOL     OW45365  12.397  11.080  13.568
14511SOL    HW145366  12.464  11.110  13.506
14511SOL    HW245367  12.314  11.108  13.529
14512SOL     OW45368  14.042  10.379   0.776
14512SOL    HW145369  14.023  10.473   0.788
14512SOL    HW245370  14.072  10.350   0.862
14513SOL     OW45371   3.121   0.483   3.853
14513SOL    HW145372   3.176   0.426   3.798
14513SOL    HW245373   3.165   0.568   3.851
14514SOL     OW45374   5.064   0.303   8.789
14514SOL    HW145375   5.155   0.314   8.817
14514SOL    HW245376   5.041   0.214   8.816
14515SOL     OW45377   1.002  14.807   8.754
14515SOL    HW145378   1.085  14.824   8.798
14515SOL    HW245379   0.996  14.874   8.686
14516SOL     OW45380   1.321   0.089   0.017
14516SOL    HW145381   1.394   0.100  14.835
14516SOL    HW245382   1.362   0.058   0.098
14517SOL     OW45383   2.572  14.324   0.126
14517SOL    HW145384   2.633  14.328   0.199
14517SOL    HW245385   2.623  14.289   0.053
14518SOL     OW45386   5.700  13.058  12.080
14518SOL    HW145387   5.737  13.093  12.161
14518SOL    HW245388   5.606  13.057  12.096
14519SOL     OW45389   2.258   3.789   1.348
14519SOL    HW145390   2.252   3.858   1.414
14519SOL    HW245391   2.346   3.754   1.358
14520SOL     OW45392   0.388   1.075   4.474
14520SOL    HW145393   0.385   1.051   4.567
14520SOL    HW245394   0.478   1.106   4.460
14521SOL     OW45395   9.747   9.298  12.219
14521SOL    HW145396   9.754   9.384  12.178
14521SOL    HW245397   9.697   9.314  12.299
14522SOL     OW45398  13.714   7.199   1.952
14522SOL    HW145399  13.786   7.206   2.014
14522SOL    HW245400  13.645   7.255   1.988
14523SOL     OW45401   2.816  12.111   4.923
14523SOL    HW145402   2.891  12.126   4.866
14523SOL    HW245403   2.740  12.128   4.866
14524SOL     OW45404  12.044   8.458  10.619
14524SOL    HW145405  11.975   8.394  10.606
14524SOL    HW245406  12.059   8.459  10.713
14525SOL     OW45407   8.649   7.564  12.697
14525SOL    HW145408   8.627   7.614  12.619
14525SOL    HW245409   8.567   7.562  12.747
14526SOL     OW45410   1.796   0.641  11.821
14526SOL    HW145411   1.861   0.578  11.791
14526SOL    HW245412   1.771   0.610  11.908
14527SOL     OW45413   7.388   3.438  12.803
14527SOL    HW145414   7.351   3.514  12.849
14527SOL    HW245415   7.321   3.415  12.738
14528SOL     OW45416   6.970   5.149   7.582
14528SOL    HW145417   7.065   5.157   7.571
14528SOL    HW245418   6.955   5.054   7.583
14529SOL     OW45419  11.676  11.049   6.704
14529SOL    HW145420  11.601  11.086   6.656
14529SOL    HW245421  11.638  10.978   6.755
14530SOL     OW45422   2.191  14.629  12.488
14530SOL    HW145423   2.215  14.587  12.570
14530SOL    HW245424   2.274  14.641  12.442
14531SOL     OW45425   2.604  13.267  11.391
14531SOL    HW145426   2.558  13.320  11.327
14531SOL    HW245427   2.553  13.276  11.471
14532SOL     OW45428   0.663   4.819   0.991
14532SOL    HW145429   0.587   4.862   1.031
14532SOL    HW245430   0.627   4.741   0.949
14533SOL     OW45431   5.800  14.759   5.508
14533SOL    HW145432   5.738  14.821   5.545
14533SOL    HW245433   5.808  14.785   5.417
14534SOL     OW45434  13.656   0.117   0.946
14534SOL    HW145435  13.574   0.151   0.984
14534SOL    HW245436  13.685   0.186   0.887
14535SOL     OW45437  11.765   1.040   2.509
14535SOL    HW145438  11.672   1.018   2.499
14535SOL    HW245439  11.800   1.039   2.420
14536SOL     OW45440   5.664  10.887   6.328
14536SOL    HW145441   5.596  10.867   6.263
14536SOL    HW245442   5.711  10.804   6.339
14537SOL     OW45443   7.739   1.368  12.104
14537SOL    HW145444   7.719   1.429  12.034
14537SOL    HW245445   7.797   1.417  12.163
14538SOL     OW45446   1.090   5.320   9.188
14538SOL    HW145447   1.164   5.380   9.175
14538SOL    HW245448   1.079   5.315   9.283
14539SOL     OW45449   9.580   5.243   2.607
14539SOL    HW145450   9.519   5.271   2.539
14539SOL    HW245451   9.620   5.324   2.638
14540SOL     OW45452   4.834   6.039   1.573
14540SOL    HW145453   4.910   6.063   1.520
14540SOL    HW245454   4.871   6.012   1.657
14541SOL     OW45455   8.326  14.671  11.005
14541SOL    HW145456   8.294  14.747  11.054
14541SOL    HW245457   8.356  14.707  10.922
14542SOL     OW45458   3.157   0.375   1.514
14542SOL    HW145459   3.166   0.435   1.588
14542SOL    HW245460   3.078   0.324   1.534
14543SOL     OW45461   7.641   2.898   7.318
14543SOL    HW145462   7.637   2.960   7.245
14543SOL    HW245463   7.658   2.813   7.277
14544SOL     OW45464   6.773  11.070  14.867
14544SOL    HW145465   6.861  11.102  14.843
14544SOL    HW245466   6.754  11.003  14.802
14545SOL     OW45467  12.102   5.668   1.818
14545SOL    HW145468  12.130   5.737   1.877
14545SOL    HW245469  12.151   5.683   1.737
14546SOL     OW45470  10.392   3.160   4.268
14546SOL    HW145471  10.397   3.179   4.362
14546SOL    HW245472  10.419   3.241   4.225
14547SOL     OW45473   3.835  13.786   3.444
14547SOL    HW145474   3.800  13.864   3.486
14547SOL    HW245475   3.885  13.742   3.514
14548SOL     OW45476  13.599   0.722   8.964
14548SOL    HW145477  13.529   0.658   8.969
14548SOL    HW245478  13.679   0.670   8.959
14549SOL     OW45479   2.385   0.850   0.260
14549SOL    HW145480   2.378   0.762   0.296
14549SOL    HW245481   2.324   0.902   0.313
14550SOL     OW45482   2.963  10.421  10.796
14550SOL    HW145483   2.872  10.403  10.770
14550SOL    HW245484   3.015  10.397  10.720
14551SOL     OW45485   9.419   4.905  11.696
14551SOL    HW145486   9.406   4.856  11.777
14551SOL    HW245487   9.435   4.838  11.630
14552SOL     OW45488  13.076  13.392   6.495
14552SOL    HW145489  13.156  13.343   6.510
14552SOL    HW245490  13.009  13.326   6.478
14553SOL     OW45491   7.117   8.180   4.436
14553SOL    HW145492   7.159   8.230   4.507
14553SOL    HW245493   7.025   8.204   4.441
14554SOL     OW45494   2.181   9.217   1.525
14554SOL    HW145495   2.261   9.183   1.485
14554SOL    HW245496   2.110   9.187   1.469
14555SOL     OW45497  12.583   6.119   3.961
14555SOL    HW145498  12.667   6.139   3.919
14555SOL    HW245499  12.530   6.197   3.947
14556SOL     OW45500  13.759   0.894   3.238
14556SOL    HW145501  13.696   0.953   3.196
14556SOL    HW245502  13.775   0.827   3.172
14557SOL     OW45503   8.977   0.355  14.040
14557SOL    HW145504   9.018   0.420  13.985
14557SOL    HW245505   9.003   0.271  14.003
14558SOL     OW45506  12.068   7.142   5.956
14558SOL    HW145507  12.153   7.125   5.914
14558SOL    HW245508  12.013   7.069   5.929
14559SOL     OW45509   4.946  11.409  12.245
14559SOL    HW145510   4.954  11.318  12.216
14559SOL    HW245511   5.018  11.421  12.307
14560SOL     OW45512  12.754  12.706  13.766
14560SOL    HW145513  12.784  12.703  13.857
14560SOL    HW245514  12.667  12.667  13.768
14561SOL     OW45515   3.515   9.321   0.611
14561SOL    HW145516   3.564   9.291   0.688
14561SOL    HW245517   3.583   9.349   0.549
14562SOL     OW45518   4.073   1.810   1.670
14562SOL    HW145519   3.981   1.826   1.691
14562SOL    HW245520   4.072   1.770   1.583
14563SOL     OW45521   7.220   8.905   1.431
14563SOL    HW145522   7.160   8.948   1.491
14563SOL    HW245523   7.194   8.813   1.433
14564SOL     OW45524   1.993   2.041   7.144
14564SOL    HW145525   2.071   2.092   7.123
14564SOL    HW245526   1.938   2.102   7.194
14565SOL     OW45527  10.174   2.360  11.757
14565SOL    HW145528  10.159   2.268  11.778
14565SOL    HW245529  10.267   2.365  11.735
14566SOL     OW45530   9.995   9.382   5.736
14566SOL    HW145531   9.990   9.477   5.748
14566SOL    HW245532  10.068   9.368   5.676
14567SOL     OW45533  11.299   9.685  14.825
14567SOL    HW145534  11.221   9.719  14.871
14567SOL    HW245535  11.277   9.594  14.806
14568SOL     OW45536  14.161   5.903   0.491
14568SOL    HW145537  14.077   5.941   0.466
14568SOL    HW245538  14.141   5.846   0.565
14569SOL     OW45539   7.159  11.400   0.116
14569SOL    HW145540   7.147  11.405   0.021
14569SOL    HW245541   7.118  11.318   0.141
14570SOL     OW45542   6.749  14.408  14.590
14570SOL    HW145543   6.669  14.458  14.573
14570SOL    HW245544   6.811  14.474  14.623
14571SOL     OW45545   6.277  10.771  13.222
14571SOL    HW145546   6.301  10.678  13.217
14571SOL    HW245547   6.358  10.815  13.247
14572SOL     OW45548   7.314   2.947   7.672
14572SOL    HW145549   7.368   3.019   7.704
14572SOL    HW245550   7.329   2.946   7.578
14573SOL     OW45551   5.627   9.208   1.987
14573SOL    HW145552   5.587   9.283   2.030
14573SOL    HW245553   5.556   9.167   1.938
14574SOL     OW45554   1.714   9.838  12.392
14574SOL    HW145555   1.735   9.894  12.466
14574SOL    HW245556   1.619   9.829  12.394
14575SOL     OW45557  14.730  12.972   9.761
14575SOL    HW145558  14.793  12.905   9.787
14575SOL    HW245559  14.785  13.045   9.730
14576SOL     OW45560   1.932   2.957   7.851
14576SOL    HW145561   1.964   2.923   7.934
14576SOL    HW245562   1.852   2.906   7.834
14577SOL     OW45563   6.832  14.206  11.396
14577SOL    HW145564   6.802  14.166  11.478
14577SOL    HW245565   6.883  14.138  11.353
14578SOL     OW45566   5.541   0.214   1.695
14578SOL    HW145567   5.446   0.220   1.682
14578SOL    HW245568   5.555   0.126   1.731
14579SOL     OW45569   7.035   8.640  11.125
14579SOL    HW145570   6.998   8.597  11.047
14579SOL    HW245571   7.107   8.693  11.090
14580SOL     OW45572   4.658  11.826   1.073
14580SOL    HW145573   4.712  11.887   1.124
14580SOL    HW245574   4.597  11.882   1.025
14581SOL     OW45575   7.717   2.484   1.170
14581SOL    HW145576   7.706   2.401   1.217
14581SOL    HW245577   7.668   2.472   1.089
14582SOL     OW45578   1.914  13.781   5.861
14582SOL    HW145579   1.916  13.841   5.936
14582SOL    HW245580   1.868  13.703   5.895
14583SOL     OW45581  14.723   6.281  10.879
14583SOL    HW145582  14.627   6.287  10.880
14583SOL    HW245583  14.742   6.195  10.916
14584SOL     OW45584   4.514   9.462   8.945
14584SOL    HW145585   4.447   9.395   8.960
14584SOL    HW245586   4.597   9.416   8.953
14585SOL     OW45587  13.019   4.784  13.843
14585SOL    HW145588  13.094   4.799  13.785
14585SOL    HW245589  12.951   4.841  13.809
14586SOL     OW45590   6.411   9.543  10.437
14586SOL    HW145591   6.418   9.515  10.346
14586SOL    HW245592   6.352   9.480  10.478
14587SOL     OW45593  11.390  11.733   9.252
14587SOL    HW145594  11.433  11.734   9.166
14587SOL    HW245595  11.456  11.767   9.312
14588SOL     OW45596   0.986   0.118   3.887
14588SOL    HW145597   0.950   0.203   3.861
14588SOL    HW245598   0.929   0.054   3.844
14589SOL     OW45599  10.795  10.319   5.059
14589SOL    HW145600  10.777  10.225   5.067
14589SOL    HW245601  10.851  10.326   4.982
14590SOL     OW45602  14.030   4.332   3.122
14590SOL    HW145603  13.995   4.372   3.202
14590SOL    HW245604  13.980   4.251   3.112
14591SOL     OW45605   4.146  13.935   8.209
14591SOL    HW145606   4.191  13.990   8.146
14591SOL    HW245607   4.117  13.858   8.159
14592SOL     OW45608   8.903  11.402   9.286
14592SOL    HW145609   8.959  11.335   9.325
14592SOL    HW245610   8.857  11.442   9.360
14593SOL     OW45611   5.273   3.065   2.179
14593SOL    HW145612   5.289   3.137   2.117
14593SOL    HW245613   5.201   3.096   2.233
14594SOL     OW45614  11.640   4.716  11.859
14594SOL    HW145615  11.691   4.648  11.814
14594SOL    HW245616  11.653   4.698  11.953
14595SOL     OW45617  14.568   8.978   3.478
14595SOL    HW145618  14.542   9.039   3.547
14595SOL    HW245619  14.485   8.953   3.436
14596SOL     OW45620  10.567  13.387   9.168
14596SOL    HW145621  10.632  13.337   9.217
14596SOL    HW245622  10.539  13.330   9.097
14597SOL     OW45623   5.374   5.595  10.025
14597SOL    HW145624   5.335   5.628   9.944
14597SOL    HW245625   5.374   5.500  10.015
14598SOL     OW45626   4.532   3.176   8.776
14598SOL    HW145627   4.444   3.198   8.744
14598SOL    HW245628   4.530   3.081   8.788
14599SOL     OW45629  11.665   0.249   5.223
14599SOL    HW145630  11.686   0.193   5.149
14599SOL    HW245631  11.751   0.272   5.260
14600SOL     OW45632  14.290   3.538   7.253
14600SOL    HW145633  14.236   3.477   7.303
14600SOL    HW245634  14.332   3.593   7.319
14601SOL     OW45635  10.376   9.902   8.174
14601SOL    HW145636  10.364   9.810   8.198
14601SOL    HW245637  10.305   9.948   8.220
14602SOL     OW45638   1.690   6.052  12.864
14602SOL    HW145639   1.719   6.009  12.784
14602SOL    HW245640   1.741   6.011  12.934
14603SOL     OW45641  10.331  13.177   3.290
14603SOL    HW145642  10.312  13.232   3.366
14603SOL    HW245643  10.369  13.097   3.326
14604SOL     OW45644   6.629   8.045  13.852
14604SOL    HW145645   6.702   8.020  13.908
14604SOL    HW245646   6.602   7.964  13.809
14605SOL     OW45647  14.798  10.324  14.469
14605SOL    HW145648  14.804  10.364  14.556
14605SOL    HW245649  14.706  10.296  14.462
14606SOL     OW45650   6.822   3.430   1.973
14606SOL    HW145651   6.798   3.495   1.907
14606SOL    HW245652   6.899   3.467   2.016
14607SOL     OW45653   9.549   0.022   2.220
14607SOL    HW145654   9.552  14.817   2.174
14607SOL    HW245655   9.610   0.078   2.172
14608SOL     OW45656   8.665  14.295  13.623
14608SOL    HW145657   8.730  14.364  13.633
14608SOL    HW245658   8.690  14.228  13.686
14609SOL     OW45659   5.581   1.651   2.977
14609SOL    HW145660   5.537   1.703   3.044
14609SOL    HW245661   5.653   1.706   2.946
14610SOL     OW45662   2.738   7.025   2.776
14610SOL    HW145663   2.715   7.011   2.684
14610SOL    HW245664   2.699   6.950   2.822
14611SOL     OW45665  13.058   1.246   8.540
14611SOL    HW145666  12.970   1.279   8.523
14611SOL    HW245667  13.116   1.318   8.514
14612SOL     OW45668   1.284   1.408  14.193
14612SOL    HW145669   1.318   1.405  14.283
14612SOL    HW245670   1.362   1.417  14.139
14613SOL     OW45671   4.769  14.585  10.947
14613SOL    HW145672   4.847  14.541  10.982
14613SOL    HW245673   4.695  14.540  10.988
14614SOL     OW45674  10.479  13.767   9.988
14614SOL    HW145675  10.439  13.794   9.905
14614SOL    HW245676  10.513  13.849  10.025
14615SOL     OW45677   1.915   4.716   2.433
14615SOL    HW145678   1.993   4.707   2.377
14615SOL    HW245679   1.847   4.748   2.374
14616SOL     OW45680  13.090   2.924   8.663
14616SOL    HW145681  13.071   3.006   8.617
14616SOL    HW245682  13.028   2.922   8.735
14617SOL     OW45683   9.831  11.782   1.543
14617SOL    HW145684   9.755  11.750   1.592
14617SOL    HW245685   9.804  11.778   1.452
14618SOL     OW45686   5.631   2.824  14.729
14618SOL    HW145687   5.582   2.742  14.739
14618SOL    HW245688   5.641   2.856  14.819
14619SOL     OW45689   1.966   4.907  13.100
14619SOL    HW145690   1.884   4.858  13.104
14619SOL    HW245691   1.984   4.932  13.190
14620SOL     OW45692   3.457   3.189   1.607
14620SOL    HW145693   3.487   3.172   1.697
14620SOL    HW245694   3.537   3.211   1.559
14621SOL     OW45695   2.496   9.350   6.745
14621SOL    HW145696   2.478   9.382   6.657
14621SOL    HW245697   2.451   9.265   6.749
14622SOL     OW45698   0.118   4.188   1.925
14622SOL    HW145699   0.046   4.208   1.864
14622SOL    HW245700   0.188   4.247   1.899
14623SOL     OW45701   5.945   2.005   9.193
14623SOL    HW145702   6.032   1.995   9.232
14623SOL    HW245703   5.960   2.052   9.111
14624SOL     OW45704   4.942   9.764  12.229
14624SOL    HW145705   4.920   9.829  12.162
14624SOL    HW245706   4.862   9.754  12.280
14625SOL     OW45707   6.655   9.492   0.360
14625SOL    HW145708   6.623   9.576   0.393
14625SOL    HW245709   6.660   9.504   0.265
14626SOL     OW45710   1.627   5.629   8.644
14626SOL    HW145711   1.584   5.543   8.646
14626SOL    HW245712   1.607   5.664   8.557
14627SOL     OW45713   5.480   4.963   3.269
14627SOL    HW145714   5.474   5.036   3.330
14627SOL    HW245715   5.390   4.932   3.260
14628SOL     OW45716   2.691  11.551  14.489
14628SOL    HW145717   2.642  11.502  14.423
14628SOL    HW245718   2.680  11.500  14.569
14629SOL     OW45719   5.627  14.152   7.197
14629SOL    HW145720   5.648  14.235   7.154
14629SOL    HW245721   5.604  14.093   7.125
14630SOL     OW45722  11.779  10.722  10.815
14630SOL    HW145723  11.867  10.759  10.807
14630SOL    HW245724  11.764  10.716  10.909
14631SOL     OW45725   0.526   3.911   2.026
14631SOL    HW145726   0.574   3.898   2.108
14631SOL    HW245727   0.512   3.822   1.993
14632SOL     OW45728   3.339   1.717  11.526
14632SOL    HW145729   3.247   1.722  11.501
14632SOL    HW245730   3.359   1.804  11.560
14633SOL     OW45731  12.435   2.578   9.852
14633SOL    HW145732  12.378   2.514   9.810
14633SOL    HW245733  12.380   2.656   9.862
14634SOL     OW45734  13.584   0.033   9.356
14634SOL    HW145735  13.636   0.112   9.372
14634SOL    HW245736  13.648  14.842   9.345
14635SOL     OW45737   1.651   6.765   4.898
14635SOL    HW145738   1.662   6.853   4.862
14635SOL    HW245739   1.700   6.708   4.839
14636SOL     OW45740   6.137  10.162   0.433
14636SOL    HW145741   6.100  10.117   0.509
14636SOL    HW245742   6.072  10.150   0.364
14637SOL     OW45743   2.505  12.817  10.322
14637SOL    HW145744   2.434  12.776  10.371
14637SOL    HW245745   2.477  12.814  10.231
14638SOL     OW45746  13.154  12.488   6.074
14638SOL    HW145747  13.149  12.495   6.169
14638SOL    HW245748  13.165  12.394   6.058
14639SOL     OW45749   4.965   2.931   7.529
14639SOL    HW145750   5.028   2.985   7.481
14639SOL    HW245751   4.880   2.968   7.507
14640SOL     OW45752   0.727   5.161  14.391
14640SOL    HW145753   0.676   5.081  14.378
14640SOL    HW245754   0.805   5.133  14.438
14641SOL     OW45755   8.015  14.788  13.641
14641SOL    HW145756   7.990  14.868  13.596
14641SOL    HW245757   8.110  14.793  13.650
14642SOL     OW45758   3.439  10.740   4.713
14642SOL    HW145759   3.365  10.735   4.773
14642SOL    HW245760   3.504  10.793   4.759
14643SOL     OW45761   4.086  13.914   6.495
14643SOL    HW145762   4.044  13.916   6.409
14643SOL    HW245763   4.105  14.006   6.514
14644SOL     OW45764  10.694   5.827   5.926
14644SOL    HW145765  10.782   5.862   5.937
14644SOL    HW245766  10.650   5.845   6.009
14645SOL     OW45767  12.016   0.822   9.825
14645SOL    HW145768  12.001   0.728   9.818
14645SOL    HW245769  12.103   0.835   9.785
14646SOL     OW45770  12.350   7.049   2.148
14646SOL    HW145771  12.272   7.078   2.101
14646SOL    HW245772  12.374   6.967   2.106
14647SOL     OW45773   2.548   4.359   0.649
14647SOL    HW145774   2.521   4.432   0.705
14647SOL    HW245775   2.632   4.331   0.687
14648SOL     OW45776   5.811  14.156   4.755
14648SOL    HW145777   5.906  14.147   4.750
14648SOL    HW245778   5.790  14.223   4.690
14649SOL     OW45779   5.203   9.114  14.522
14649SOL    HW145780   5.222   9.026  14.489
14649SOL    HW245781   5.158   9.158  14.450
14650SOL     OW45782  11.469  14.193   7.127
14650SOL    HW145783  11.496  14.243   7.204
14650SOL    HW245784  11.483  14.102   7.151
14651SOL     OW45785   8.840  10.719  14.262
14651SOL    HW145786   8.774  10.786  14.243
14651SOL    HW245787   8.790  10.642  14.288
14652SOL     OW45788   1.466  14.716   8.514
14652SOL    HW145789   1.467  14.651   8.443
14652SOL    HW245790   1.537  14.688   8.572
14653SOL     OW45791   5.331  14.667  12.579
14653SOL    HW145792   5.302  14.754  12.552
14653SOL    HW245793   5.294  14.607  12.514
14654SOL     OW45794   8.856   1.571  10.549
14654SOL    HW145795   8.808   1.560  10.467
14654SOL    HW245796   8.948   1.565  10.524
14655SOL     OW45797   4.648  10.391   4.788
14655SOL    HW145798   4.636  10.446   4.711
14655SOL    HW245799   4.735  10.414   4.820
14656SOL     OW45800  11.987  10.731   8.169
14656SOL    HW145801  11.907  10.713   8.218
14656SOL    HW245802  11.957  10.772   8.088
14657SOL     OW45803  13.477   2.313  12.985
14657SOL    HW145804  13.502   2.404  12.999
14657SOL    HW245805  13.384   2.317  12.962
14658SOL     OW45806  14.402  14.298  11.942
14658SOL    HW145807  14.352  14.218  11.930
14658SOL    HW245808  14.492  14.269  11.954
14659SOL     OW45809   7.800   7.277   8.965
14659SOL    HW145810   7.751   7.195   8.974
14659SOL    HW245811   7.734   7.345   8.972
14660SOL     OW45812   2.881   6.821   2.316
14660SOL    HW145813   2.901   6.910   2.345
14660SOL    HW245814   2.955   6.769   2.347
14661SOL     OW45815   3.210   9.197   9.010
14661SOL    HW145816   3.142   9.243   8.962
14661SOL    HW245817   3.229   9.254   9.085
14662SOL     OW45818  11.960  13.660   6.080
14662SOL    HW145819  11.992  13.743   6.045
14662SOL    HW245820  11.865  13.671   6.084
14663SOL     OW45821   4.905   5.108   3.201
14663SOL    HW145822   4.924   5.069   3.286
14663SOL    HW245823   4.979   5.167   3.184
14664SOL     OW45824  14.574   0.773   2.161
14664SOL    HW145825  14.501   0.736   2.111
14664SOL    HW245826  14.545   0.770   2.252
14665SOL     OW45827  14.742   2.510   4.787
14665SOL    HW145828  14.814   2.551   4.740
14665SOL    HW245829  14.666   2.523   4.732
14666SOL     OW45830  12.191   0.836  13.162
14666SOL    HW145831  12.175   0.747  13.194
14666SOL    HW245832  12.240   0.823  13.080
14667SOL     OW45833  10.905   4.082   9.176
14667SOL    HW145834  10.829   4.068   9.233
14667SOL    HW245835  10.970   4.124   9.233
14668SOL     OW45836   5.094  10.497  10.092
14668SOL    HW145837   5.084  10.410  10.053
14668SOL    HW245838   5.185  10.501  10.120
14669SOL     OW45839  10.557   7.462   7.359
14669SOL    HW145840  10.564   7.412   7.277
14669SOL    HW245841  10.644   7.498   7.373
14670SOL     OW45842  12.295   0.818   6.247
14670SOL    HW145843  12.340   0.807   6.164
14670SOL    HW245844  12.202   0.816   6.225
14671SOL     OW45845  14.052  11.925   6.544
14671SOL    HW145846  13.987  11.985   6.579
14671SOL    HW245847  14.046  11.847   6.600
14672SOL     OW45848  12.254   6.625   5.669
14672SOL    HW145849  12.290   6.591   5.587
14672SOL    HW245850  12.327   6.619   5.731
14673SOL     OW45851   8.837   8.677   4.744
14673SOL    HW145852   8.768   8.683   4.810
14673SOL    HW245853   8.890   8.756   4.757
14674SOL     OW45854   9.772  10.804   8.107
14674SOL    HW145855   9.805  10.753   8.033
14674SOL    HW245856   9.679  10.814   8.089
14675SOL     OW45857  11.507  13.444  12.196
14675SOL    HW145858  11.453  13.519  12.222
14675SOL    HW245859  11.446  13.371  12.191
14676SOL     OW45860  10.154  10.556  13.719
14676SOL    HW145861  10.095  10.608  13.773
14676SOL    HW245862  10.224  10.528  13.779
14677SOL     OW45863   7.765   8.073   6.904
14677SOL    HW145864   7.675   8.102   6.895
14677SOL    HW245865   7.759   7.981   6.931
14678SOL     OW45866   0.462   3.727   9.977
14678SOL    HW145867   0.471   3.723  10.072
14678SOL    HW245868   0.442   3.636   9.951
14679SOL     OW45869  12.743  13.079   3.342
14679SOL    HW145870  12.751  13.115   3.430
14679SOL    HW245871  12.652  13.097   3.317
14680SOL     OW45872   8.776  14.175  14.230
14680SOL    HW145873   8.776  14.168  14.325
14680SOL    HW245874   8.791  14.085  14.199
14681SOL     OW45875   7.567  14.277   9.384
14681SOL    HW145876   7.636  14.212   9.400
14681SOL    HW245877   7.591  14.352   9.439
14682SOL     OW45878   7.712  14.051   1.266
14682SOL    HW145879   7.662  14.063   1.347
14682SOL    HW245880   7.670  13.977   1.222
14683SOL     OW45881   3.637   2.154  12.146
14683SOL    HW145882   3.543   2.163  12.128
14683SOL    HW245883   3.667   2.244  12.160
14684SOL     OW45884   2.243   9.723  13.313
14684SOL    HW145885   2.254   9.684  13.399
14684SOL    HW245886   2.332   9.728  13.277
14685SOL     OW45887   1.000   2.398  13.270
14685SOL    HW145888   0.952   2.477  13.244
14685SOL    HW245889   0.941   2.326  13.247
14686SOL     OW45890   5.261   2.179   2.837
14686SOL    HW145891   5.260   2.202   2.744
14686SOL    HW245892   5.320   2.242   2.877
14687SOL     OW45893   8.457   6.042   1.611
14687SOL    HW145894   8.404   6.116   1.644
14687SOL    HW245895   8.402   5.965   1.627
14688SOL     OW45896   2.773   4.717   2.860
14688SOL    HW145897   2.679   4.704   2.850
14688SOL    HW245898   2.781   4.807   2.892
14689SOL     OW45899   2.266  11.330  13.296
14689SOL    HW145900   2.352  11.353  13.261
14689SOL    HW245901   2.239  11.407  13.347
14690SOL     OW45902   2.046   5.257   7.341
14690SOL    HW145903   2.091   5.334   7.307
14690SOL    HW245904   2.048   5.194   7.269
14691SOL     OW45905   0.610   6.410  13.132
14691SOL    HW145906   0.574   6.393  13.219
14691SOL    HW245907   0.586   6.333  13.081
14692SOL     OW45908  10.464   4.790   8.790
14692SOL    HW145909  10.515   4.808   8.711
14692SOL    HW245910  10.377   4.766   8.758
14693SOL     OW45911   2.454   6.043   8.349
14693SOL    HW145912   2.501   6.099   8.411
14693SOL    HW245913   2.510   5.966   8.339
14694SOL     OW45914   6.362   4.952   1.161
14694SOL    HW145915   6.422   5.002   1.106
14694SOL    HW245916   6.404   4.949   1.246
14695SOL     OW45917   8.197  11.800   5.683
14695SOL    HW145918   8.154  11.715   5.688
14695SOL    HW245919   8.291  11.780   5.682
14696SOL     OW45920   2.562   8.271   3.335
14696SOL    HW145921   2.528   8.184   3.354
14696SOL    HW245922   2.608   8.261   3.252
14697SOL     OW45923   2.623   5.329   8.119
14697SOL    HW145924   2.586   5.415   8.139
14697SOL    HW245925   2.686   5.345   8.049
14698SOL     OW45926  12.927   1.479   9.526
14698SOL    HW145927  12.848   1.508   9.480
14698SOL    HW245928  12.906   1.491   9.619
14699SOL     OW45929   8.950   7.680   6.167
14699SOL    HW145930   9.045   7.673   6.157
14699SOL    HW245931   8.935   7.667   6.261
14700SOL     OW45932   2.778  10.001   8.280
14700SOL    HW145933   2.818  10.087   8.291
14700SOL    HW245934   2.769   9.966   8.368
14701SOL     OW45935  13.477  10.852  10.039
14701SOL    HW145936  13.508  10.775  10.087
14701SOL    HW245937  13.413  10.892  10.097
14702SOL     OW45938  10.067  12.623   5.503
14702SOL    HW145939  10.113  12.707   5.502
14702SOL    HW245940  10.027  12.616   5.416
14703SOL     OW45941  12.871   9.215   7.529
14703SOL    HW145942  12.792   9.171   7.559
14703SOL    HW245943  12.848   9.250   7.443
14704SOL     OW45944   3.612   1.144   2.870
14704SOL    HW145945   3.654   1.141   2.956
14704SOL    HW245946   3.684   1.156   2.809
14705SOL     OW45947   6.138   9.076   2.736
14705SOL    HW145948   6.212   9.135   2.721
14705SOL    HW245949   6.092   9.073   2.652
14706SOL     OW45950  12.587   7.759  11.492
14706SOL    HW145951  12.529   7.801  11.555
14706SOL    HW245952  12.557   7.790  11.407
14707SOL     OW45953   0.954   9.254  12.413
14707SOL    HW145954   1.020   9.323  12.411
14707SOL    HW245955   1.005   9.173  12.417
14708SOL     OW45956  11.272   3.695   9.214
14708SOL    HW145957  11.213   3.622   9.194
14708SOL    HW245958  11.223   3.748   9.278
14709SOL     OW45959   2.630   0.622  10.974
14709SOL    HW145960   2.628   0.546  11.032
14709SOL    HW245961   2.703   0.604  10.914
14710SOL     OW45962   1.680  11.552  10.907
14710SOL    HW145963   1.692  11.606  10.830
14710SOL    HW245964   1.662  11.614  10.978
14711SOL     OW45965   6.715  14.162  10.840
14711SOL    HW145966   6.762  14.134  10.918
14711SOL    HW245967   6.647  14.222  10.871
14712SOL     OW45968   2.577   1.448   7.727
14712SOL    HW145969   2.514   1.382   7.697
14712SOL    HW245970   2.612   1.486   7.646
14713SOL     OW45971   7.369  13.442   9.674
14713SOL    HW145972   7.278  13.420   9.694
14713SOL    HW245973   7.398  13.492   9.750
14714SOL     OW45974  10.471   5.986   7.103
14714SOL    HW145975  10.378   5.969   7.117
14714SOL    HW245976  10.473   6.041   7.024
14715SOL     OW45977  11.826   2.615   5.773
14715SOL    HW145978  11.730   2.623   5.776
14715SOL    HW245979  11.853   2.680   5.708
14716SOL     OW45980   7.823  13.308  13.678
14716SOL    HW145981   7.781  13.231  13.640
14716SOL    HW245982   7.917  13.288  13.675
14717SOL     OW45983   3.333   8.885  14.604
14717SOL    HW145984   3.297   8.805  14.642
14717SOL    HW245985   3.288   8.956  14.650
14718SOL     OW45986  12.661   3.228   7.495
14718SOL    HW145987  12.600   3.289   7.453
14718SOL    HW245988  12.666   3.258   7.586
14719SOL     OW45989   4.114   6.846   7.498
14719SOL    HW145990   4.143   6.931   7.531
14719SOL    HW245991   4.043   6.866   7.437
14720SOL     OW45992  13.039   9.448  10.093
14720SOL    HW145993  13.111   9.507  10.071
14720SOL    HW245994  13.045   9.437  10.188
14721SOL     OW45995   4.699   2.112   0.868
14721SOL    HW145996   4.766   2.180   0.859
14721SOL    HW245997   4.741   2.033   0.834
14722SOL     OW45998  12.763   3.415   1.510
14722SOL    HW145999  12.716   3.453   1.436
14722SOL    HW246000  12.796   3.490   1.559
14723SOL     OW46001   8.076  10.897   4.047
14723SOL    HW146002   8.143  10.830   4.032
14723SOL    HW246003   8.119  10.961   4.104
14724SOL     OW46004   2.653   5.554   9.025
14724SOL    HW146005   2.707   5.544   8.947
14724SOL    HW246006   2.673   5.642   9.056
14725SOL     OW46007   2.192  10.806   1.863
14725SOL    HW146008   2.274  10.854   1.847
14725SOL    HW246009   2.124  10.860   1.823
14726SOL     OW46010   0.517   8.419   7.250
14726SOL    HW146011   0.472   8.369   7.318
14726SOL    HW246012   0.452   8.426   7.179
14727SOL     OW46013   7.362   3.991  14.796
14727SOL    HW146014   7.402   3.942  14.725
14727SOL    HW246015   7.297   3.930  14.832
14728SOL     OW46016   9.510   9.597  13.138
14728SOL    HW146017   9.532   9.594  13.231
14728SOL    HW246018   9.480   9.687  13.122
14729SOL     OW46019  12.393  10.168   6.322
14729SOL    HW146020  12.482  10.145   6.294
14729SOL    HW246021  12.398  10.171   6.418
14730SOL     OW46022  10.954   4.255   2.471
14730SOL    HW146023  10.960   4.162   2.448
14730SOL    HW246024  10.983   4.301   2.392
14731SOL     OW46025  10.071   0.630   2.109
14731SOL    HW146026  10.138   0.619   2.041
14731SOL    HW246027   9.995   0.663   2.062
14732SOL     OW46028  12.770   1.299   9.964
14732SOL    HW146029  12.689   1.342   9.993
14732SOL    HW246030  12.814   1.365   9.911
14733SOL     OW46031   5.334   7.528  13.745
14733SOL    HW146032   5.268   7.551  13.810
14733SOL    HW246033   5.417   7.559  13.782
14734SOL     OW46034   4.793  13.258  10.131
14734SOL    HW146035   4.770  13.341  10.089
14734SOL    HW246036   4.788  13.277  10.225
14735SOL     OW46037   0.318   3.093   0.671
14735SOL    HW146038   0.252   3.095   0.601
14735SOL    HW246039   0.295   3.016   0.724
14736SOL     OW46040  11.639   6.978   4.515
14736SOL    HW146041  11.628   6.893   4.471
14736SOL    HW246042  11.732   6.998   4.505
14737SOL     OW46043  11.791   2.849   3.354
14737SOL    HW146044  11.798   2.942   3.377
14737SOL    HW246045  11.832   2.843   3.268
14738SOL     OW46046   5.366  10.966   9.756
14738SOL    HW146047   5.392  11.014   9.678
14738SOL    HW246048   5.337  11.033   9.818
14739SOL     OW46049   0.436   4.907   1.147
14739SOL    HW146050   0.455   4.836   1.209
14739SOL    HW246051   0.375   4.964   1.193
14740SOL     OW46052   0.095   5.493  12.296
14740SOL    HW146053   0.181   5.529  12.278
14740SOL    HW246054   0.059   5.549  12.364
14741SOL     OW46055   0.583  12.474  14.531
14741SOL    HW146056   0.528  12.544  14.497
14741SOL    HW246057   0.539  12.445  14.611
14742SOL     OW46058   5.419   0.507  11.987
14742SOL    HW146059   5.442   0.462  11.906
14742SOL    HW246060   5.400   0.436  12.049
14743SOL     OW46061   9.945   5.073   9.731
14743SOL    HW146062  10.014   5.095   9.668
14743SOL    HW246063   9.989   5.075   9.816
14744SOL     OW46064  11.643  12.274   4.347
14744SOL    HW146065  11.671  12.220   4.273
14744SOL    HW246066  11.609  12.354   4.306
14745SOL     OW46067   2.030   9.073   1.047
14745SOL    HW146068   1.948   9.060   1.000
14745SOL    HW246069   2.075   9.142   0.999
14746SOL     OW46070   3.179   2.551   5.272
14746SOL    HW146071   3.240   2.558   5.198
14746SOL    HW246072   3.094   2.533   5.231
14747SOL     OW46073   0.078  11.156   2.886
14747SOL    HW146074   0.065  11.143   2.980
14747SOL    HW246075   0.149  11.096   2.862
14748SOL     OW46076   1.287   5.126   9.729
14748SOL    HW146077   1.200   5.124   9.768
14748SOL    HW246078   1.271   5.130   9.634
14749SOL     OW46079  13.959  10.940   2.197
14749SOL    HW146080  14.048  10.905   2.186
14749SOL    HW246081  13.902  10.873   2.160
14750SOL     OW46082  12.326   4.756   2.970
14750SOL    HW146083  12.329   4.818   3.043
14750SOL    HW246084  12.324   4.670   3.012
14751SOL     OW46085   0.935   2.647  14.719
14751SOL    HW146086   0.973   2.722  14.673
14751SOL    HW246087   1.011   2.596  14.746
14752SOL     OW46088  14.725   7.888  13.154
14752SOL    HW146089  14.664   7.870  13.225
14752SOL    HW246090  14.669   7.905  13.078
14753SOL     OW46091   1.972  12.886   6.753
14753SOL    HW146092   1.964  12.823   6.681
14753SOL    HW246093   1.882  12.898   6.784
14754SOL     OW46094  13.267  10.051  13.843
14754SOL    HW146095  13.195  10.050  13.779
14754SOL    HW246096  13.338  10.004  13.800
14755SOL     OW46097   3.028   6.521   3.440
14755SOL    HW146098   2.955   6.509   3.379
14755SOL    HW246099   3.061   6.609   3.422
14756SOL     OW46100  12.330   0.070   8.352
14756SOL    HW146101  12.406   0.115   8.314
14756SOL    HW246102  12.256   0.098   8.299
14757SOL     OW46103   5.873   1.966   8.153
14757SOL    HW146104   5.796   1.994   8.105
14757SOL    HW246105   5.943   2.023   8.121
14758SOL     OW46106   2.585   1.206   3.368
14758SOL    HW146107   2.669   1.176   3.335
14758SOL    HW246108   2.604   1.291   3.409
14759SOL     OW46109   4.466   6.281   2.619
14759SOL    HW146110   4.527   6.269   2.691
14759SOL    HW246111   4.415   6.200   2.615
14760SOL     OW46112   9.304   3.529   5.642
14760SOL    HW146113   9.323   3.452   5.696
14760SOL    HW246114   9.212   3.549   5.660
14761SOL     OW46115   3.696   3.517  14.809
14761SOL    HW146116   3.782   3.480  14.829
14761SOL    HW246117   3.653   3.449  14.757
14762SOL     OW46118   5.500  14.266  10.888
14762SOL    HW146119   5.425  14.207  10.878
14762SOL    HW246120   5.575  14.209  10.903
14763SOL     OW46121   9.844   0.501  13.264
14763SOL    HW146122   9.909   0.431  13.250
14763SOL    HW246123   9.865   0.566  13.196
14764SOL     OW46124  13.930  14.507  13.975
14764SOL    HW146125  13.872  14.473  13.907
14764SOL    HW246126  13.872  14.535  14.045
14765SOL     OW46127   9.061  12.102  14.598
14765SOL    HW146128   9.075  12.130  14.507
14765SOL    HW246129   8.967  12.084  14.602
14766SOL     OW46130  10.967   2.779   3.489
14766SOL    HW146131  10.874   2.796   3.475
14766SOL    HW246132  11.012   2.826   3.419
14767SOL     OW46133   1.362   7.840   8.894
14767SOL    HW146134   1.370   7.790   8.975
14767SOL    HW246135   1.307   7.915   8.918
14768SOL     OW46136   3.160  13.219   8.365
14768SOL    HW146137   3.221  13.268   8.310
14768SOL    HW246138   3.208  13.141   8.391
14769SOL     OW46139  12.786   8.471   8.856
14769SOL    HW146140  12.837   8.500   8.932
14769SOL    HW246141  12.786   8.547   8.797
14770SOL     OW46142   4.051   4.834   6.183
14770SOL    HW146143   4.133   4.883   6.195
14770SOL    HW246144   4.050   4.812   6.090
14771SOL     OW46145  13.957   2.767   7.775
14771SOL    HW146146  14.013   2.693   7.749
14771SOL    HW246147  13.980   2.837   7.714
14772SOL     OW46148  10.621  14.129   3.516
14772SOL    HW146149  10.693  14.068   3.533
14772SOL    HW246150  10.665  14.210   3.489
14773SOL     OW46151  10.996  11.474  12.991
14773SOL    HW146152  10.930  11.463  13.059
14773SOL    HW246153  10.946  11.504  12.914
14774SOL     OW46154   2.289   4.555   6.135
14774SOL    HW146155   2.232   4.629   6.157
14774SOL    HW246156   2.370   4.596   6.105
14775SOL     OW46157   6.915  13.713  10.389
14775SOL    HW146158   7.008  13.729  10.373
14775SOL    HW246159   6.914  13.649  10.461
14776SOL     OW46160   3.177   7.310   2.979
14776SOL    HW146161   3.226   7.239   2.937
14776SOL    HW246162   3.151   7.275   3.064
14777SOL     OW46163   8.268   9.803   6.681
14777SOL    HW146164   8.308   9.819   6.767
14777SOL    HW246165   8.332   9.839   6.618
14778SOL     OW46166   8.382  11.415   3.316
14778SOL    HW146167   8.423  11.495   3.283
14778SOL    HW246168   8.291  11.421   3.284
14779SOL     OW46169   0.506  10.946  10.679
14779SOL    HW146170   0.516  10.859  10.641
14779SOL    HW246171   0.465  10.998  10.610
14780SOL     OW46172  10.307  11.688   5.004
14780SOL    HW146173  10.399  11.713   4.997
14780SOL    HW246174  10.287  11.646   4.921
14781SOL     OW46175   7.474  14.275   1.188
14781SOL    HW146176   7.516  14.235   1.112
14781SOL    HW246177   7.508  14.365   1.189
14782SOL     OW46178   0.402   6.920   9.692
14782SOL    HW146179   0.307   6.909   9.681
14782SOL    HW246180   0.433   6.952   9.608
14783SOL     OW46181   9.139   7.651   4.338
14783SOL    HW146182   9.113   7.719   4.400
14783SOL    HW246183   9.235   7.658   4.334
14784SOL     OW46184   9.158   1.646   8.209
14784SOL    HW146185   9.119   1.659   8.295
14784SOL    HW246186   9.135   1.556   8.185
14785SOL     OW46187   3.688  10.969  11.690
14785SOL    HW146188   3.730  10.996  11.608
14785SOL    HW246189   3.683  10.873  11.684
14786SOL     OW46190   3.877  14.016   8.262
14786SOL    HW146191   3.906  14.060   8.342
14786SOL    HW246192   3.937  13.942   8.252
14787SOL     OW46193   2.574  11.717   2.734
14787SOL    HW146194   2.503  11.655   2.714
14787SOL    HW246195   2.604  11.746   2.648
14788SOL     OW46196   6.387   6.015   7.300
14788SOL    HW146197   6.406   6.106   7.323
14788SOL    HW246198   6.346   6.020   7.214
14789SOL     OW46199   9.804   9.189   6.814
14789SOL    HW146200   9.788   9.188   6.719
14789SOL    HW246201   9.855   9.110   6.831
14790SOL     OW46202   0.157  12.902   4.068
14790SOL    HW146203   0.217  12.967   4.105
14790SOL    HW246204   0.140  12.934   3.979
14791SOL     OW46205   6.451   4.113  14.539
14791SOL    HW146206   6.533   4.155  14.513
14791SOL    HW246207   6.448   4.033  14.486
14792SOL     OW46208  11.829  10.189  14.623
14792SOL    HW146209  11.766  10.256  14.595
14792SOL    HW246210  11.822  10.188  14.719
14793SOL     OW46211   6.850   1.102   8.243
14793SOL    HW146212   6.797   1.180   8.229
14793SOL    HW246213   6.803   1.032   8.196
14794SOL     OW46214   2.865  11.887  13.610
14794SOL    HW146215   2.858  11.945  13.534
14794SOL    HW246216   2.859  11.799  13.572
14795SOL     OW46217   9.083   3.790   3.126
14795SOL    HW146218   9.086   3.823   3.216
14795SOL    HW246219   9.124   3.704   3.131
14796SOL     OW46220   3.276  13.934  13.104
14796SOL    HW146221   3.316  13.848  13.088
14796SOL    HW246222   3.350  13.992  13.119
14797SOL     OW46223  14.465   3.259  13.655
14797SOL    HW146224  14.508   3.181  13.620
14797SOL    HW246225  14.466   3.246  13.750
14798SOL     OW46226  10.180   6.650   8.272
14798SOL    HW146227  10.095   6.681   8.241
14798SOL    HW246228  10.187   6.561   8.237
14799SOL     OW46229  11.051   8.704  14.229
14799SOL    HW146230  10.996   8.779  14.251
14799SOL    HW246231  11.132   8.718  14.278
14800SOL     OW46232   5.878   4.595   9.324
14800SOL    HW146233   5.791   4.586   9.365
14800SOL    HW246234   5.926   4.652   9.383
14801SOL     OW46235   8.521   0.520  10.656
14801SOL    HW146236   8.429   0.495  10.661
14801SOL    HW246237   8.566   0.455  10.711
14802SOL     OW46238  12.346   5.810   4.325
14802SOL    HW146239  12.346   5.848   4.238
14802SOL    HW246240  12.371   5.882   4.383
14803SOL     OW46241   5.487  13.939   3.873
14803SOL    HW146242   5.448  14.026   3.881
14803SOL    HW246243   5.482  13.901   3.961
14804SOL     OW46244  12.561   8.591   5.325
14804SOL    HW146245  12.479   8.554   5.294
14804SOL    HW246246  12.545   8.616   5.415
14805SOL     OW46247   5.000   7.729   9.333
14805SOL    HW146248   5.059   7.803   9.316
14805SOL    HW246249   5.055   7.663   9.375
14806SOL     OW46250   1.244  10.851   8.676
14806SOL    HW146251   1.283  10.853   8.763
14806SOL    HW246252   1.314  10.879   8.617
14807SOL     OW46253   5.845   2.210   3.939
14807SOL    HW146254   5.753   2.225   3.963
14807SOL    HW246255   5.893   2.220   4.021
14808SOL     OW46256   3.554  12.978  11.485
14808SOL    HW146257   3.610  12.949  11.557
14808SOL    HW246258   3.546  12.901  11.429
14809SOL     OW46259   1.872   7.041  13.231
14809SOL    HW146260   1.927   7.051  13.154
14809SOL    HW246261   1.929   7.004  13.298
14810SOL     OW46262   6.928   5.963  11.472
14810SOL    HW146263   6.964   5.880  11.442
14810SOL    HW246264   6.949   5.967  11.565
14811SOL     OW46265   9.160   4.020   5.350
14811SOL    HW146266   9.191   3.930   5.360
14811SOL    HW246267   9.065   4.013   5.353
14812SOL     OW46268  10.045   8.693   9.515
14812SOL    HW146269   9.977   8.637   9.478
14812SOL    HW246270   9.997   8.754   9.571
14813SOL     OW46271   8.709   7.077   7.621
14813SOL    HW146272   8.654   7.039   7.689
14813SOL    HW246273   8.792   7.096   7.664
14814SOL     OW46274   2.520   3.271   8.121
14814SOL    HW146275   2.483   3.353   8.090
14814SOL    HW246276   2.582   3.296   8.189
14815SOL     OW46277  11.094  14.065   3.382
14815SOL    HW146278  11.180  14.064   3.338
14815SOL    HW246279  11.032  14.084   3.312
14816SOL     OW46280  14.730   6.947   0.524
14816SOL    HW146281  14.704   6.938   0.616
14816SOL    HW246282  14.735   7.042   0.511
14817SOL     OW46283   7.164   2.225  14.808
14817SOL    HW146284   7.128   2.305  14.844
14817SOL    HW246285   7.210   2.183   0.002
14818SOL     OW46286   9.364  13.602   1.219
14818SOL    HW146287   9.349  13.551   1.139
14818SOL    HW246288   9.277  13.615   1.256
14819SOL     OW46289   5.115   6.078   1.503
14819SOL    HW146290   5.151   5.989   1.507
14819SOL    HW246291   5.185   6.133   1.539
14820SOL     OW46292   0.523   6.290   5.424
14820SOL    HW146293   0.525   6.215   5.484
14820SOL    HW246294   0.568   6.258   5.346
14821SOL     OW46295   4.987   1.728   5.027
14821SOL    HW146296   4.951   1.792   5.088
14821SOL    HW246297   5.070   1.701   5.066
14822SOL     OW46298  14.293  14.274   3.619
14822SOL    HW146299  14.272  14.352   3.670
14822SOL    HW246300  14.389  14.272   3.617
14823SOL     OW46301   7.367   7.881   2.050
14823SOL    HW146302   7.456   7.890   2.018
14823SOL    HW246303   7.342   7.792   2.029
14824SOL     OW46304  14.716  14.265  13.022
14824SOL    HW146305  14.700  14.335  13.085
14824SOL    HW246306  14.765  14.306  12.951
14825SOL     OW46307  11.845   5.675  12.954
14825SOL    HW146308  11.906   5.683  12.880
14825SOL    HW246309  11.899   5.644  13.026
14826SOL     OW46310   1.470  13.124  12.931
14826SOL    HW146311   1.379  13.101  12.947
14826SOL    HW246312   1.467  13.210  12.889
14827SOL     OW46313  11.882   7.108   4.118
14827SOL    HW146314  11.881   7.100   4.023
14827SOL    HW246315  11.796   7.077   4.145
14828SOL     OW46316  13.162  11.866  14.165
14828SOL    HW146317  13.245  11.885  14.123
14828SOL    HW246318  13.174  11.896  14.256
14829SOL     OW46319   0.366   3.749   4.835
14829SOL    HW146320   0.417   3.829   4.845
14829SOL    HW246321   0.398   3.691   4.904
14830SOL     OW46322   0.375  12.768  13.126
14830SOL    HW146323   0.303  12.723  13.169
14830SOL    HW246324   0.333  12.826  13.062
14831SOL     OW46325   7.910   8.640   7.301
14831SOL    HW146326   7.956   8.559   7.280
14831SOL    HW246327   7.818   8.615   7.306
14832SOL     OW46328  13.323  14.446   9.668
14832SOL    HW146329  13.307  14.379   9.735
14832SOL    HW246330  13.257  14.513   9.685
14833SOL     OW46331   6.212   8.195   3.384
14833SOL    HW146332   6.299   8.164   3.360
14833SOL    HW246333   6.187   8.255   3.313
14834SOL     OW46334   9.427  13.479  14.653
14834SOL    HW146335   9.411  13.386  14.639
14834SOL    HW246336   9.356  13.523  14.606
14835SOL     OW46337   3.396  12.860   4.607
14835SOL    HW146338   3.449  12.912   4.547
14835SOL    HW246339   3.370  12.783   4.557
14836SOL     OW46340  14.401  14.566   6.986
14836SOL    HW146341  14.411  14.581   6.892
14836SOL    HW246342  14.314  14.528   6.995
14837SOL     OW46343   7.511   3.173   6.500
14837SOL    HW146344   7.534   3.085   6.468
14837SOL    HW246345   7.579   3.194   6.563
14838SOL     OW46346   8.724   1.772   7.397
14838SOL    HW146347   8.752   1.803   7.483
14838SOL    HW246348   8.655   1.833   7.370
14839SOL     OW46349   8.599   4.918  10.450
14839SOL    HW146350   8.527   4.915  10.388
14839SOL    HW246351   8.670   4.961  10.402
14840SOL     OW46352   6.651   4.702   2.587
14840SOL    HW146353   6.558   4.683   2.603
14840SOL    HW246354   6.678   4.637   2.522
14841SOL     OW46355   9.810   2.519   3.498
14841SOL    HW146356   9.797   2.561   3.413
14841SOL    HW246357   9.723   2.523   3.539
14842SOL     OW46358   9.331   2.495  11.664
14842SOL    HW146359   9.396   2.560  11.635
14842SOL    HW246360   9.351   2.417  11.612
14843SOL     OW46361  13.231   3.577  10.614
14843SOL    HW146362  13.154   3.572  10.671
14843SOL    HW246363  13.247   3.487  10.587
14844SOL     OW46364   9.462   1.826   1.470
14844SOL    HW146365   9.420   1.905   1.503
14844SOL    HW246366   9.390   1.772   1.437
14845SOL     OW46367   4.333   9.443  14.645
14845SOL    HW146368   4.319   9.436  14.551
14845SOL    HW246369   4.287   9.366  14.681
14846SOL     OW46370   7.670   8.958  13.304
14846SOL    HW146371   7.612   8.898  13.351
14846SOL    HW246372   7.743   8.903  13.276
14847SOL     OW46373  14.091  12.744   2.415
14847SOL    HW146374  14.065  12.743   2.323
14847SOL    HW246375  14.073  12.655   2.446
14848SOL     OW46376   3.585   9.041   8.113
14848SOL    HW146377   3.497   9.024   8.147
14848SOL    HW246378   3.615   9.118   8.161
14849SOL     OW46379  14.052  14.112   3.652
14849SOL    HW146380  14.088  14.162   3.578
14849SOL    HW246381  14.049  14.022   3.620
14850SOL     OW46382  14.761   2.825  10.599
14850SOL    HW146383  14.766   2.790  10.688
14850SOL    HW246384  14.804   2.760  10.545
14851SOL     OW46385   2.097   7.105  12.495
14851SOL    HW146386   2.006   7.123  12.517
14851SOL    HW246387   2.147   7.168  12.547
14852SOL     OW46388   5.232  11.970   5.350
14852SOL    HW146389   5.241  12.061   5.377
14852SOL    HW246390   5.228  11.921   5.433
14853SOL     OW46391  14.267   3.276  12.275
14853SOL    HW146392  14.233   3.188  12.256
14853SOL    HW246393  14.233   3.330  12.204
14854SOL     OW46394  10.900   8.067   2.059
14854SOL    HW146395  10.900   8.019   1.976
14854SOL    HW246396  10.924   8.157   2.035
14855SOL     OW46397   3.916   9.659   4.803
14855SOL    HW146398   3.985   9.594   4.818
14855SOL    HW246399   3.843   9.629   4.857
14856SOL     OW46400  14.876   8.068  13.887
14856SOL    HW146401  14.808   8.108  13.833
14856SOL    HW246402  14.828   8.028  13.959
14857SOL     OW46403  13.355   4.102   1.823
14857SOL    HW146404  13.446   4.127   1.838
14857SOL    HW246405  13.342   4.024   1.877
14858SOL     OW46406   3.518  12.215   2.096
14858SOL    HW146407   3.508  12.245   2.187
14858SOL    HW246408   3.552  12.126   2.104
14859SOL     OW46409  14.336   3.216  11.758
14859SOL    HW146410  14.351   3.130  11.798
14859SOL    HW246411  14.390   3.276  11.809
14860SOL     OW46412   7.761   6.221   3.642
14860SOL    HW146413   7.706   6.144   3.624
14860SOL    HW246414   7.844   6.202   3.600
14861SOL     OW46415  12.883   5.986   5.304
14861SOL    HW146416  12.805   5.943   5.270
14861SOL    HW246417  12.850   6.049   5.368
14862SOL     OW46418   5.575   9.689  13.492
14862SOL    HW146419   5.560   9.608  13.444
14862SOL    HW246420   5.552   9.759  13.430
14863SOL     OW46421   0.578   6.995   9.427
14863SOL    HW146422   0.635   6.925   9.458
14863SOL    HW246423   0.628   7.037   9.357
14864SOL     OW46424   5.404   1.178  11.197
14864SOL    HW146425   5.456   1.098  11.207
14864SOL    HW246426   5.313   1.147  11.198
14865SOL     OW46427   8.752   7.223  14.322
14865SOL    HW146428   8.783   7.276  14.249
14865SOL    HW246429   8.713   7.285  14.383
14866SOL     OW46430   1.589  11.008   1.634
14866SOL    HW146431   1.571  11.084   1.577
14866SOL    HW246432   1.683  10.993   1.624
14867SOL     OW46433   4.652  11.011  14.434
14867SOL    HW146434   4.657  11.028  14.528
14867SOL    HW246435   4.667  10.917  14.426
14868SOL     OW46436  12.729  14.693   9.183
14868SOL    HW146437  12.821  14.715   9.169
14868SOL    HW246438  12.731  14.613   9.236
14869SOL     OW46439   0.722   5.463  14.829
14869SOL    HW146440   0.701   5.426   0.035
14869SOL    HW246441   0.688   5.399  14.766
14870SOL     OW46442   8.309   7.208   6.541
14870SOL    HW146443   8.357   7.179   6.463
14870SOL    HW246444   8.369   7.268   6.585
14871SOL     OW46445   1.976   5.671   3.359
14871SOL    HW146446   1.943   5.761   3.365
14871SOL    HW246447   2.062   5.675   3.400
14872SOL     OW46448   6.697   6.231   9.182
14872SOL    HW146449   6.741   6.175   9.119
14872SOL    HW246450   6.609   6.244   9.147
14873SOL     OW46451  14.034  13.344   0.977
14873SOL    HW146452  13.982  13.307   1.048
14873SOL    HW246453  14.088  13.411   1.020
14874SOL     OW46454  13.090  10.148   6.097
14874SOL    HW146455  13.116  10.080   6.034
14874SOL    HW246456  13.159  10.214   6.092
14875SOL     OW46457   3.221   1.649   1.524
14875SOL    HW146458   3.273   1.716   1.568
14875SOL    HW246459   3.131   1.669   1.548
14876SOL     OW46460   7.015   3.062   4.069
14876SOL    HW146461   6.938   3.047   4.124
14876SOL    HW246462   6.978   3.081   3.982
14877SOL     OW46463   4.930   4.952  14.559
14877SOL    HW146464   4.928   4.928  14.467
14877SOL    HW246465   4.845   4.994  14.575
14878SOL     OW46466   8.951   0.417   5.631
14878SOL    HW146467   8.950   0.460   5.545
14878SOL    HW246468   9.032   0.447   5.672
14879SOL     OW46469   1.860  14.376   3.370
14879SOL    HW146470   1.781  14.429   3.359
14879SOL    HW246471   1.910  14.421   3.438
14880SOL     OW46472  13.270   9.960   1.200
14880SOL    HW146473  13.321   9.912   1.265
14880SOL    HW246474  13.182   9.964   1.236
14881SOL     OW46475   2.968   7.179  11.719
14881SOL    HW146476   2.980   7.260  11.669
14881SOL    HW246477   2.992   7.203  11.809
14882SOL     OW46478  14.849   1.450  12.599
14882SOL    HW146479  14.878   1.360  12.612
14882SOL    HW246480   0.048   1.495  12.564
14883SOL     OW46481   1.067   5.505  14.678
14883SOL    HW146482   1.158   5.478  14.691
14883SOL    HW246483   1.018   5.454  14.743
14884SOL     OW46484   8.393   4.612   6.165
14884SOL    HW146485   8.395   4.681   6.099
14884SOL    HW246486   8.415   4.532   6.117
14885SOL     OW46487  13.069   1.965   7.619
14885SOL    HW146488  12.984   1.954   7.575
14885SOL    HW246489  13.134   1.944   7.552
14886SOL     OW46490   9.849  12.325  13.940
14886SOL    HW146491   9.755  12.319  13.920
14886SOL    HW246492   9.881  12.236  13.932
14887SOL     OW46493   9.055  12.744  14.616
14887SOL    HW146494   9.141  12.731  14.577
14887SOL    HW246495   9.049  12.676  14.683
14888SOL     OW46496   8.355   4.091   6.432
14888SOL    HW146497   8.381   4.183   6.445
14888SOL    HW246498   8.308   4.091   6.349
14889SOL     OW46499  11.373  13.921  10.174
14889SOL    HW146500  11.411  13.897  10.258
14889SOL    HW246501  11.283  13.944  10.194
14890SOL     OW46502   9.757  13.545  10.815
14890SOL    HW146503   9.767  13.620  10.757
14890SOL    HW246504   9.819  13.480  10.782
14891SOL     OW46505  14.538   0.852   4.133
14891SOL    HW146506  14.462   0.814   4.177
14891SOL    HW246507  14.537   0.944   4.158
14892SOL     OW46508  12.902  11.746  13.871
14892SOL    HW146509  12.812  11.763  13.843
14892SOL    HW246510  12.926  11.665  13.827
14893SOL     OW46511   3.687   4.089   0.069
14893SOL    HW146512   3.689   3.998   0.039
14893SOL    HW246513   3.751   4.134   0.014
14894SOL     OW46514   7.935  14.568  12.434
14894SOL    HW146515   7.992  14.645  12.422
14894SOL    HW246516   7.995  14.497  12.453
14895SOL     OW46517  10.682  14.154   4.059
14895SOL    HW146518  10.690  14.084   4.124
14895SOL    HW246519  10.618  14.214   4.097
14896SOL     OW46520  11.771   7.521  13.153
14896SOL    HW146521  11.774   7.575  13.232
14896SOL    HW246522  11.707   7.564  13.097
14897SOL     OW46523   9.080   1.668   9.784
14897SOL    HW146524   9.157   1.717   9.755
14897SOL    HW246525   9.018   1.674   9.711
14898SOL     OW46526  14.540   3.474   7.453
14898SOL    HW146527  14.623   3.429   7.462
14898SOL    HW246528  14.559   3.551   7.399
14899SOL     OW46529   8.352   2.798   3.562
14899SOL    HW146530   8.277   2.750   3.597
14899SOL    HW246531   8.350   2.882   3.609
14900SOL     OW46532  13.253  13.037  10.609
14900SOL    HW146533  13.214  13.107  10.662
14900SOL    HW246534  13.180  13.002  10.557
14901SOL     OW46535   2.360   4.377   2.506
14901SOL    HW146536   2.407   4.340   2.431
14901SOL    HW246537   2.403   4.461   2.522
14902SOL     OW46538   9.526   3.066   0.925
14902SOL    HW146539   9.438   3.029   0.928
14902SOL    HW246540   9.517   3.154   0.962
14903SOL     OW46541   2.371  13.342   8.750
14903SOL    HW146542   2.337  13.270   8.803
14903SOL    HW246543   2.437  13.302   8.694
14904SOL     OW46544  14.789  14.714   2.085
14904SOL    HW146545  14.877  14.704   2.050
14904SOL    HW246546  14.779  14.642   2.147
14905SOL     OW46547  14.045   9.193  12.329
14905SOL    HW146548  13.954   9.212  12.353
14905SOL    HW246549  14.062   9.249  12.253
14906SOL     OW46550   1.090  12.601  10.426
14906SOL    HW146551   1.123  12.617  10.337
14906SOL    HW246552   1.115  12.511  10.445
14907SOL     OW46553   7.013  14.417  10.428
14907SOL    HW146554   6.984  14.382  10.512
14907SOL    HW246555   6.932  14.433  10.379
14908SOL     OW46556   7.010  13.386   8.854
14908SOL    HW146557   6.937  13.327   8.837
14908SOL    HW246558   7.020  13.436   8.773
14909SOL     OW46559  12.743   6.997   3.480
14909SOL    HW146560  12.779   6.976   3.394
14909SOL    HW246561  12.798   6.948   3.542
14910SOL     OW46562   0.064   7.233   4.963
14910SOL    HW146563   0.045   7.144   4.993
14910SOL    HW246564   0.157   7.231   4.940
14911SOL     OW46565   3.044   4.049   1.006
14911SOL    HW146566   3.055   3.962   1.045
14911SOL    HW246567   3.124   4.062   0.955
14912SOL     OW46568   9.428   6.862  14.443
14912SOL    HW146569   9.448   6.792  14.380
14912SOL    HW246570   9.482   6.935  14.415
14913SOL     OW46571  12.761  13.504  14.000
14913SOL    HW146572  12.743  13.590  13.961
14913SOL    HW246573  12.826  13.522  14.068
14914SOL     OW46574   2.142  13.316  11.147
14914SOL    HW146575   2.107  13.269  11.222
14914SOL    HW246576   2.200  13.252  11.104
14915SOL     OW46577  11.314  12.711   2.476
14915SOL    HW146578  11.374  12.696   2.549
14915SOL    HW246579  11.341  12.648   2.409
14916SOL     OW46580  13.683  14.869  13.028
14916SOL    HW146581  13.752   0.055  13.010
14916SOL    HW246582  13.614   0.012  12.967
14917SOL     OW46583  13.923   3.338   1.237
14917SOL    HW146584  13.909   3.263   1.294
14917SOL    HW246585  13.847   3.339   1.179
14918SOL     OW46586   9.859  13.870  13.821
14918SOL    HW146587   9.910  13.847  13.743
14918SOL    HW246588   9.880  13.962  13.837
14919SOL     OW46589   7.373   7.738  11.251
14919SOL    HW146590   7.362   7.645  11.274
14919SOL    HW246591   7.325   7.749  11.169
14920SOL     OW46592  10.107  13.185   7.485
14920SOL    HW146593  10.193  13.144   7.474
14920SOL    HW246594  10.044  13.116   7.464
14921SOL     OW46595   9.347  11.567  11.810
14921SOL    HW146596   9.308  11.481  11.802
14921SOL    HW246597   9.295  11.612  11.876
14922SOL     OW46598   4.047  11.820   0.694
14922SOL    HW146599   4.014  11.900   0.735
14922SOL    HW246600   4.141  11.822   0.710
14923SOL     OW46601  14.498  10.301   6.962
14923SOL    HW146602  14.409  10.306   6.997
14923SOL    HW246603  14.549  10.359   7.018
14924SOL     OW46604   9.597  13.703  11.001
14924SOL    HW146605   9.666  13.650  10.961
14924SOL    HW246606   9.608  13.790  10.964
14925SOL     OW46607   2.582   0.638  13.971
14925SOL    HW146608   2.565   0.544  13.957
14925SOL    HW246609   2.654   0.640  14.033
14926SOL     OW46610   5.852  14.624   4.060
14926SOL    HW146611   5.858  14.584   3.974
14926SOL    HW246612   5.938  14.662   4.076
14927SOL     OW46613   4.406   6.417   3.293
14927SOL    HW146614   4.436   6.392   3.380
14927SOL    HW246615   4.394   6.512   3.298
14928SOL     OW46616   7.737  12.253   6.970
14928SOL    HW146617   7.687  12.289   6.897
14928SOL    HW246618   7.672  12.238   7.039
14929SOL     OW46619   6.510   3.796   4.963
14929SOL    HW146620   6.499   3.809   5.058
14929SOL    HW246621   6.585   3.850   4.940
14930SOL     OW46622   0.879  11.558   8.776
14930SOL    HW146623   0.823  11.483   8.754
14930SOL    HW246624   0.878  11.561   8.872
14931SOL     OW46625  10.217   1.959   0.116
14931SOL    HW146626  10.155   1.895   0.151
14931SOL    HW246627  10.226   1.936   0.023
14932SOL     OW46628   8.661   9.569   5.650
14932SOL    HW146629   8.724   9.540   5.585
14932SOL    HW246630   8.621   9.648   5.612
14933SOL     OW46631   8.818   6.273   9.267
14933SOL    HW146632   8.726   6.283   9.244
14933SOL    HW246633   8.864   6.276   9.183
14934SOL     OW46634   0.927   9.248  10.612
14934SOL    HW146635   0.935   9.156  10.640
14934SOL    HW246636   0.880   9.291  10.684
14935SOL     OW46637   4.017   9.280   9.950
14935SOL    HW146638   4.079   9.209   9.930
14935SOL    HW246639   4.012   9.280  10.045
14936SOL     OW46640   8.261   5.894   9.469
14936SOL    HW146641   8.247   5.985   9.441
14936SOL    HW246642   8.302   5.901   9.555
14937SOL     OW46643  13.499   3.914   0.298
14937SOL    HW146644  13.416   3.914   0.346
14937SOL    HW246645  13.548   3.987   0.336
14938SOL     OW46646   7.083  13.128  13.092
14938SOL    HW146647   6.995  13.108  13.060
14938SOL    HW246648   7.108  13.209  13.048
14939SOL     OW46649  14.218   9.576   5.379
14939SOL    HW146650  14.181   9.651   5.332
14939SOL    HW246651  14.285   9.615   5.436
14940SOL     OW46652   2.619   6.484  11.803
14940SOL    HW146653   2.529   6.508  11.780
14940SOL    HW246654   2.668   6.492  11.721
14941SOL     OW46655  12.112  13.839  10.188
14941SOL    HW146656  12.163  13.785  10.248
14941SOL    HW246657  12.022  13.806  10.197
14942SOL     OW46658   6.435   6.346   2.691
14942SOL    HW146659   6.448   6.264   2.643
14942SOL    HW246660   6.351   6.380   2.659
14943SOL     OW46661  10.053  14.551  13.528
14943SOL    HW146662  10.120  14.487  13.552
14943SOL    HW246663  10.103  14.625  13.493
14944SOL     OW46664   0.069   7.365  14.139
14944SOL    HW146665   0.149   7.412  14.115
14944SOL    HW246666   0.065   7.372  14.235
14945SOL     OW46667  13.624   9.426   8.060
14945SOL    HW146668  13.580   9.434   8.145
14945SOL    HW246669  13.710   9.466   8.074
14946SOL     OW46670   8.220   7.645  10.417
14946SOL    HW146671   8.150   7.628  10.354
14946SOL    HW246672   8.300   7.646  10.364
14947SOL     OW46673  13.287   2.817  10.656
14947SOL    HW146674  13.282   2.823  10.560
14947SOL    HW246675  13.373   2.855  10.677
14948SOL     OW46676  11.055   2.655  14.433
14948SOL    HW146677  11.030   2.747  14.436
14948SOL    HW246678  11.115   2.648  14.359
14949SOL     OW46679   5.554   0.678   4.936
14949SOL    HW146680   5.540   0.584   4.943
14949SOL    HW246681   5.648   0.690   4.952
14950SOL     OW46682   8.310  12.316   5.457
14950SOL    HW146683   8.289  12.397   5.504
14950SOL    HW246684   8.391  12.286   5.497
14951SOL     OW46685   2.302   4.851   7.809
14951SOL    HW146686   2.266   4.939   7.821
14951SOL    HW246687   2.391   4.857   7.842
14952SOL     OW46688   0.344  12.014   5.414
14952SOL    HW146689   0.408  12.051   5.352
14952SOL    HW246690   0.306  12.090   5.458
14953SOL     OW46691   9.136   9.701   5.686
14953SOL    HW146692   9.043   9.679   5.696
14953SOL    HW246693   9.141   9.744   5.601
14954SOL     OW46694  12.755   6.937  11.416
14954SOL    HW146695  12.677   6.991  11.428
14954SOL    HW246696  12.824   6.984  11.463
14955SOL     OW46697   5.968   1.999  14.860
14955SOL    HW146698   5.970   1.905  14.843
14955SOL    HW246699   5.886   2.013   0.029
14956SOL     OW46700  11.149   3.769   4.391
14956SOL    HW146701  11.081   3.801   4.332
14956SOL    HW246702  11.193   3.700   4.341
14957SOL     OW46703  13.424   7.820   7.434
14957SOL    HW146704  13.459   7.906   7.458
14957SOL    HW246705  13.330   7.827   7.451
14958SOL     OW46706  10.507   8.721   1.811
14958SOL    HW146707  10.561   8.776   1.869
14958SOL    HW246708  10.427   8.772   1.798
14959SOL     OW46709   2.863   7.924  11.646
14959SOL    HW146710   2.776   7.961  11.659
14959SOL    HW246711   2.868   7.852  11.708
14960SOL     OW46712   9.708   2.271   1.845
14960SOL    HW146713   9.740   2.193   1.891
14960SOL    HW246714   9.756   2.344   1.884
14961SOL     OW46715   1.912   4.760   4.146
14961SOL    HW146716   1.926   4.799   4.060
14961SOL    HW246717   1.996   4.771   4.191
14962SOL     OW46718  11.134   2.378  10.298
14962SOL    HW146719  11.041   2.365  10.281
14962SOL    HW246720  11.159   2.450  10.240
14963SOL     OW46721   4.490   3.222  13.129
14963SOL    HW146722   4.489   3.294  13.067
14963SOL    HW246723   4.466   3.145  13.077
14964SOL     OW46724   5.069  12.418  10.646
14964SOL    HW146725   5.137  12.470  10.689
14964SOL    HW246726   5.009  12.395  10.717
14965SOL     OW46727   3.321   0.252  11.541
14965SOL    HW146728   3.348   0.209  11.622
14965SOL    HW246729   3.397   0.247  11.484
14966SOL     OW46730   2.663   2.989  13.724
14966SOL    HW146731   2.740   3.004  13.778
14966SOL    HW246732   2.629   3.076  13.706
14967SOL     OW46733  10.028  12.603  14.128
14967SOL    HW146734  10.081  12.642  14.198
14967SOL    HW246735   9.974  12.675  14.096
14968SOL     OW46736  12.447   6.389   6.779
14968SOL    HW146737  12.424   6.478   6.750
14968SOL    HW246738  12.540   6.381   6.757
14969SOL     OW46739   5.275   5.303   1.730
14969SOL    HW146740   5.180   5.312   1.738
14969SOL    HW246741   5.290   5.209   1.728
14970SOL     OW46742   9.518   3.574   2.155
14970SOL    HW146743   9.597   3.556   2.104
14970SOL    HW246744   9.466   3.494   2.148
14971SOL     OW46745   8.118   2.199  10.730
14971SOL    HW146746   8.164   2.162  10.655
14971SOL    HW246747   8.147   2.290  10.733
14972SOL     OW46748   9.455  12.308   1.807
14972SOL    HW146749   9.456  12.393   1.763
14972SOL    HW246750   9.547  12.282   1.812
14973SOL     OW46751  11.402   6.195   1.688
14973SOL    HW146752  11.450   6.113   1.673
14973SOL    HW246753  11.329   6.170   1.745
14974SOL     OW46754   9.506   0.906   6.731
14974SOL    HW146755   9.455   0.827   6.752
14974SOL    HW246756   9.512   0.953   6.815
14975SOL     OW46757   9.936   7.277   7.348
14975SOL    HW146758  10.001   7.226   7.396
14975SOL    HW246759   9.860   7.280   7.406
14976SOL     OW46760   5.613  10.557   7.303
14976SOL    HW146761   5.687  10.519   7.351
14976SOL    HW246762   5.556  10.483   7.283
14977SOL     OW46763   0.104  14.814  13.309
14977SOL    HW146764   0.119  14.782  13.398
14977SOL    HW246765   0.029  14.763  13.278
14978SOL     OW46766   7.283   5.674   5.824
14978SOL    HW146767   7.357   5.726   5.856
14978SOL    HW246768   7.285   5.686   5.729
14979SOL     OW46769  11.487   7.138   7.569
14979SOL    HW146770  11.542   7.105   7.498
14979SOL    HW246771  11.506   7.231   7.573
14980SOL     OW46772   4.985   8.076   6.297
14980SOL    HW146773   5.060   8.078   6.357
14980SOL    HW246774   5.016   8.028   6.221
14981SOL     OW46775   4.335   9.332   0.692
14981SOL    HW146776   4.368   9.414   0.728
14981SOL    HW246777   4.400   9.266   0.716
14982SOL     OW46778   3.720  10.131   4.955
14982SOL    HW146779   3.716  10.213   4.906
14982SOL    HW246780   3.665  10.071   4.904
14983SOL     OW46781   7.460  10.685  11.859
14983SOL    HW146782   7.499  10.720  11.778
14983SOL    HW246783   7.367  10.676  11.839
14984SOL     OW46784   7.924   1.865  12.675
14984SOL    HW146785   7.930   1.881  12.769
14984SOL    HW246786   8.015   1.869  12.644
14985SOL     OW46787  12.047  10.910  14.574
14985SOL    HW146788  11.991  10.972  14.527
14985SOL    HW246789  12.049  10.943  14.664
14986SOL     OW46790   9.363   9.226  14.330
14986SOL    HW146791   9.293   9.286  14.302
14986SOL    HW246792   9.429   9.283  14.369
14987SOL     OW46793  11.887   0.120   2.201
14987SOL    HW146794  11.942   0.079   2.136
14987SOL    HW246795  11.797   0.107   2.169
14988SOL     OW46796   1.037   0.546  14.236
14988SOL    HW146797   1.091   0.471  14.261
14988SOL    HW246798   0.972   0.553  14.305
14989SOL     OW46799   3.387   6.790   0.687
14989SOL    HW146800   3.480   6.810   0.675
14989SOL    HW246801   3.366   6.824   0.774
14990SOL     OW46802  10.809  14.415  13.923
14990SOL    HW146803  10.811  14.372  13.837
14990SOL    HW246804  10.726  14.463  13.924
14991SOL     OW46805  14.037   3.539   5.340
14991SOL    HW146806  14.016   3.463   5.285
14991SOL    HW246807  14.017   3.510   5.429
14992SOL     OW46808   2.809   7.777   4.872
14992SOL    HW146809   2.815   7.871   4.893
14992SOL    HW246810   2.745   7.773   4.801
14993SOL     OW46811   0.688   3.277   4.308
14993SOL    HW146812   0.737   3.253   4.387
14993SOL    HW246813   0.596   3.277   4.336
14994SOL     OW46814   8.383   0.281  13.401
14994SOL    HW146815   8.461   0.335  13.390
14994SOL    HW246816   8.377   0.230  13.320
14995SOL     OW46817   1.374  11.253   8.925
14995SOL    HW146818   1.416  11.186   8.871
14995SOL    HW246819   1.299  11.209   8.964
14996SOL     OW46820  13.202   1.947   8.609
14996SOL    HW146821  13.240   2.032   8.631
14996SOL    HW246822  13.122   1.968   8.561
14997SOL     OW46823   0.606   8.905   4.753
14997SOL    HW146824   0.544   8.834   4.771
14997SOL    HW246825   0.691   8.871   4.780
14998SOL     OW46826   1.628   0.000   8.342
14998SOL    HW146827   1.668  14.796   8.316
14998SOL    HW246828   1.564  14.856   8.409
14999SOL     OW46829  11.556   3.935  13.721
14999SOL    HW146830  11.534   4.016  13.768
14999SOL    HW246831  11.589   3.965  13.637
15000SOL     OW46832   2.815   4.481   3.496
15000SOL    HW146833   2.720   4.485   3.506
15000SOL    HW246834   2.848   4.458   3.583
15001SOL     OW46835  11.910   0.210   2.729
15001SOL    HW146836  11.964   0.189   2.805
15001SOL    HW246837  11.951   0.287   2.689
15002SOL     OW46838   0.450  12.618   4.612
15002SOL    HW146839   0.380  12.627   4.676
15002SOL    HW246840   0.407  12.579   4.535
15003SOL     OW46841   8.683   3.821   7.446
15003SOL    HW146842   8.627   3.744   7.453
15003SOL    HW246843   8.634   3.881   7.389
15004SOL     OW46844   6.058  12.228   4.406
15004SOL    HW146845   6.016  12.221   4.492
15004SOL    HW246846   5.985  12.235   4.344
15005SOL     OW46847  11.138   6.344   8.037
15005SOL    HW146848  11.159   6.268   7.982
15005SOL    HW246849  11.078   6.309   8.103
15006SOL     OW46850   2.989   8.797   3.501
15006SOL    HW146851   2.945   8.752   3.428
15006SOL    HW246852   3.079   8.767   3.497
15007SOL     OW46853  13.388   1.900   4.761
15007SOL    HW146854  13.475   1.934   4.741
15007SOL    HW246855  13.386   1.813   4.721
15008SOL     OW46856   9.580   0.265   9.082
15008SOL    HW146857   9.593   0.245   9.174
15008SOL    HW246858   9.645   0.333   9.063
15009SOL     OW46859   3.493   8.693  13.841
15009SOL    HW146860   3.413   8.720  13.887
15009SOL    HW246861   3.563   8.741  13.884
15010SOL     OW46862   6.041   9.622  14.204
15010SOL    HW146863   6.089   9.690  14.158
15010SOL    HW246864   5.960   9.665  14.232
15011SOL     OW46865   1.742   0.990   3.234
15011SOL    HW146866   1.806   0.946   3.290
15011SOL    HW246867   1.777   1.079   3.224
15012SOL     OW46868  14.177   1.239   7.158
15012SOL    HW146869  14.208   1.154   7.188
15012SOL    HW246870  14.189   1.297   7.233
15013SOL     OW46871   7.865   9.758   1.011
15013SOL    HW146872   7.775   9.789   1.005
15013SOL    HW246873   7.881   9.716   0.927
15014SOL     OW46874   0.252   7.877  12.648
15014SOL    HW146875   0.300   7.807  12.692
15014SOL    HW246876   0.217   7.931  12.718
15015SOL     OW46877  11.604   7.560  14.647
15015SOL    HW146878  11.662   7.621  14.693
15015SOL    HW246879  11.573   7.500  14.715
15016SOL     OW46880  13.867   6.319  10.659
15016SOL    HW146881  13.937   6.254  10.671
15016SOL    HW246882  13.909   6.391  10.613
15017SOL     OW46883   9.423   8.346   2.622
15017SOL    HW146884   9.516   8.342   2.646
15017SOL    HW246885   9.379   8.287   2.684
15018SOL     OW46886   9.639  13.061   4.819
15018SOL    HW146887   9.624  12.980   4.868
15018SOL    HW246888   9.585  13.126   4.864
15019SOL     OW46889   5.548  12.498  13.610
15019SOL    HW146890   5.506  12.505  13.696
15019SOL    HW246891   5.596  12.581  13.600
15020SOL     OW46892  10.412   2.904  14.099
15020SOL    HW146893  10.446   2.843  14.164
15020SOL    HW246894  10.444   2.870  14.015
15021SOL     OW46895   0.373   8.279   5.319
15021SOL    HW146896   0.330   8.336   5.255
15021SOL    HW246897   0.334   8.304   5.403
15022SOL     OW46898  14.078   1.425   4.329
15022SOL    HW146899  14.100   1.480   4.404
15022SOL    HW246900  13.991   1.391   4.349
15023SOL     OW46901   4.806  12.742   6.985
15023SOL    HW146902   4.854  12.659   6.986
15023SOL    HW246903   4.847  12.792   7.056
15024SOL     OW46904  12.448   8.179   2.726
15024SOL    HW146905  12.419   8.114   2.791
15024SOL    HW246906  12.432   8.136   2.642
15025SOL     OW46907   4.734   4.399   6.107
15025SOL    HW146908   4.690   4.370   6.186
15025SOL    HW246909   4.671   4.383   6.037
15026SOL     OW46910   6.558   0.323  12.505
15026SOL    HW146911   6.547   0.283  12.419
15026SOL    HW246912   6.631   0.275  12.545
15027SOL     OW46913   3.041  10.901  12.841
15027SOL    HW146914   2.967  10.899  12.902
15027SOL    HW246915   3.001  10.889  12.755
15028SOL     OW46916   1.494   5.587   1.718
15028SOL    HW146917   1.510   5.495   1.738
15028SOL    HW246918   1.581   5.625   1.709
15029SOL     OW46919   8.944   6.442   0.949
15029SOL    HW146920   8.902   6.359   0.967
15029SOL    HW246921   8.884   6.488   0.890
15030SOL     OW46922   9.516   2.162   4.068
15030SOL    HW146923   9.587   2.099   4.050
15030SOL    HW246924   9.439   2.107   4.082
15031SOL     OW46925   0.578   2.280  12.604
15031SOL    HW146926   0.634   2.324  12.669
15031SOL    HW246927   0.573   2.342  12.531
15032SOL     OW46928   2.175   3.900   7.192
15032SOL    HW146929   2.228   3.832   7.233
15032SOL    HW246930   2.196   3.979   7.241
15033SOL     OW46931  11.832   0.735   5.381
15033SOL    HW146932  11.783   0.781   5.313
15033SOL    HW246933  11.866   0.804   5.437
15034SOL     OW46934   7.344   2.619   4.884
15034SOL    HW146935   7.307   2.656   4.964
15034SOL    HW246936   7.308   2.530   4.880
15035SOL     OW46937  14.348   0.121   1.942
15035SOL    HW146938  14.285   0.110   1.871
15035SOL    HW246939  14.433   0.131   1.898
15036SOL     OW46940   6.421  12.880   4.543
15036SOL    HW146941   6.411  12.786   4.562
15036SOL    HW246942   6.515  12.894   4.541
15037SOL     OW46943   6.569   3.405   5.584
15037SOL    HW146944   6.591   3.488   5.628
15037SOL    HW246945   6.637   3.344   5.613
15038SOL     OW46946  12.933  11.347   1.687
15038SOL    HW146947  12.862  11.384   1.739
15038SOL    HW246948  12.993  11.421   1.672
15039SOL     OW46949  11.113   0.633   0.557
15039SOL    HW146950  11.122   0.722   0.523
15039SOL    HW246951  11.174   0.581   0.505
15040SOL     OW46952   7.280   0.606  14.582
15040SOL    HW146953   7.250   0.574  14.497
15040SOL    HW246954   7.318   0.529  14.624
15041SOL     OW46955   3.448   0.440   4.861
15041SOL    HW146956   3.446   0.347   4.840
15041SOL    HW246957   3.465   0.483   4.777
15042SOL     OW46958   1.901   7.234  11.792
15042SOL    HW146959   1.971   7.257  11.853
15042SOL    HW246960   1.937   7.250  11.706
15043SOL     OW46961  12.170  10.999   9.299
15043SOL    HW146962  12.177  10.936   9.227
15043SOL    HW246963  12.198  11.082   9.261
15044SOL     OW46964   6.119  12.106   6.433
15044SOL    HW146965   6.200  12.113   6.383
15044SOL    HW246966   6.087  12.196   6.439
15045SOL     OW46967  13.782   8.635   1.298
15045SOL    HW146968  13.794   8.730   1.295
15045SOL    HW246969  13.698   8.620   1.256
15046SOL     OW46970   3.306  10.303   6.283
15046SOL    HW146971   3.277  10.226   6.235
15046SOL    HW246972   3.317  10.370   6.216
15047SOL     OW46973  13.177   1.641  14.358
15047SOL    HW146974  13.165   1.569  14.420
15047SOL    HW246975  13.249   1.612  14.302
15048SOL     OW46976   7.812   9.223  11.991
15048SOL    HW146977   7.774   9.272  11.918
15048SOL    HW246978   7.743   9.162  12.017
15049SOL     OW46979  10.515   9.684   5.869
15049SOL    HW146980  10.460   9.612   5.839
15049SOL    HW246981  10.545   9.727   5.788
15050SOL     OW46982   5.386   5.112  13.155
15050SOL    HW146983   5.390   5.207  13.168
15050SOL    HW246984   5.354   5.102  13.065
15051SOL     OW46985  13.007   3.394   2.793
15051SOL    HW146986  12.923   3.422   2.830
15051SOL    HW246987  12.984   3.347   2.713
15052SOL     OW46988   6.777  12.876   7.678
15052SOL    HW146989   6.800  12.933   7.751
15052SOL    HW246990   6.782  12.787   7.714
15053SOL     OW46991   5.014  14.066  12.806
15053SOL    HW146992   5.050  14.148  12.838
15053SOL    HW246993   5.018  14.007  12.881
15054SOL     OW46994   9.001  11.729   3.152
15054SOL    HW146995   8.908  11.745   3.169
15054SOL    HW246996   9.047  11.795   3.203
15055SOL     OW46997   2.295   4.983  13.466
15055SOL    HW146998   2.320   5.037  13.541
15055SOL    HW246999   2.301   4.893  13.498
15056SOL     OW47000   1.969  13.239   7.840
15056SOL    HW147001   1.990  13.155   7.881
15056SOL    HW247002   1.874  13.245   7.845
15057SOL     OW47003   3.978   9.515   5.198
15057SOL    HW147004   3.916   9.585   5.178
15057SOL    HW247005   4.060   9.544   5.157
15058SOL     OW47006  11.777   8.107   8.284
15058SOL    HW147007  11.794   8.041   8.351
15058SOL    HW247008  11.794   8.062   8.201
15059SOL     OW47009   2.459  10.424  11.547
15059SOL    HW147010   2.418  10.480  11.612
15059SOL    HW247011   2.416  10.339  11.558
15060SOL     OW47012   3.040   8.492   3.671
15060SOL    HW147013   2.957   8.539   3.676
15060SOL    HW247014   3.100   8.553   3.629
15061SOL     OW47015  11.299   6.878   0.687
15061SOL    HW147016  11.260   6.846   0.768
15061SOL    HW247017  11.383   6.915   0.713
15062SOL     OW47018   8.956  10.225   1.527
15062SOL    HW147019   8.903  10.303   1.542
15062SOL    HW247020   9.031  10.256   1.476
15063SOL     OW47021   9.071   9.731   4.403
15063SOL    HW147022   9.013   9.805   4.389
15063SOL    HW247023   9.014   9.654   4.396
15064SOL     OW47024  13.598   2.773   8.113
15064SOL    HW147025  13.688   2.748   8.092
15064SOL    HW247026  13.579   2.848   8.056
15065SOL     OW47027   6.740   4.229   7.996
15065SOL    HW147028   6.736   4.253   7.903
15065SOL    HW247029   6.650   4.237   8.026
15066SOL     OW47030   1.794   2.449   0.040
15066SOL    HW147031   1.744   2.422   0.117
15066SOL    HW247032   1.882   2.466   0.074
15067SOL     OW47033   2.583  14.876   2.451
15067SOL    HW147034   2.611   0.084   2.421
15067SOL    HW247035   2.590   0.002   2.547
15068SOL     OW47036  14.520   1.403   4.080
15068SOL    HW147037  14.518   1.382   3.987
15068SOL    HW247038  14.430   1.392   4.109
15069SOL     OW47039   7.380  12.496  10.912
15069SOL    HW147040   7.409  12.587  10.907
15069SOL    HW247041   7.437  12.457  10.978
15070SOL     OW47042   3.623   8.710   7.805
15070SOL    HW147043   3.555   8.653   7.770
15070SOL    HW247044   3.645   8.769   7.733
15071SOL     OW47045   7.541  12.523  12.233
15071SOL    HW147046   7.594  12.603  12.224
15071SOL    HW247047   7.574  12.465  12.165
15072SOL     OW47048   1.583   4.214   6.635
15072SOL    HW147049   1.502   4.209   6.686
15072SOL    HW247050   1.626   4.294   6.665
15073SOL     OW47051   9.392   7.898   3.671
15073SOL    HW147052   9.423   7.817   3.630
15073SOL    HW247053   9.432   7.968   3.619
15074SOL     OW47054  13.301   5.951   1.363
15074SOL    HW147055  13.250   5.911   1.433
15074SOL    HW247056  13.264   5.915   1.283
15075SOL     OW47057   8.614  12.402   6.174
15075SOL    HW147058   8.704  12.374   6.188
15075SOL    HW247059   8.589  12.446   6.256
15076SOL     OW47060   0.717   6.440   0.836
15076SOL    HW147061   0.767   6.481   0.766
15076SOL    HW247062   0.739   6.348   0.831
15077SOL     OW47063  13.358   2.857   3.285
15077SOL    HW147064  13.404   2.937   3.310
15077SOL    HW247065  13.267   2.884   3.274
15078SOL     OW47066   1.866   1.806  13.143
15078SOL    HW147067   1.778   1.843  13.151
15078SOL    HW247068   1.910   1.829  13.225
15079SOL     OW47069  11.839   4.519   8.077
15079SOL    HW147070  11.835   4.425   8.061
15079SOL    HW247071  11.748   4.545   8.092
15080SOL     OW47072  11.953  11.351   7.691
15080SOL    HW147073  12.001  11.287   7.639
15080SOL    HW247074  11.917  11.412   7.627
15081SOL     OW47075   2.574   0.770   3.455
15081SOL    HW147076   2.480   0.777   3.473
15081SOL    HW247077   2.616   0.800   3.535
15082SOL     OW47078   1.708   4.016   0.528
15082SOL    HW147079   1.699   4.071   0.606
15082SOL    HW247080   1.686   3.928   0.558
15083SOL     OW47081   1.000  13.540   7.004
15083SOL    HW147082   0.941  13.554   7.078
15083SOL    HW247083   1.036  13.453   7.017
15084SOL     OW47084  11.609   8.559   5.742
15084SOL    HW147085  11.515   8.569   5.726
15084SOL    HW247086  11.650   8.578   5.657
15085SOL     OW47087   9.450   0.364   2.570
15085SOL    HW147088   9.480   0.335   2.656
15085SOL    HW247089   9.510   0.323   2.508
15086SOL     OW47090   6.380   9.054   1.833
15086SOL    HW147091   6.335   9.115   1.891
15086SOL    HW247092   6.459   9.100   1.805
15087SOL     OW47093   5.475   8.372   3.347
15087SOL    HW147094   5.562   8.403   3.373
15087SOL    HW247095   5.466   8.287   3.390
15088SOL     OW47096  10.068  13.619   5.530
15088SOL    HW147097  10.016  13.586   5.457
15088SOL    HW247098  10.157  13.586   5.512
15089SOL     OW47099   1.038   6.650  13.118
15089SOL    HW147100   1.116   6.634  13.064
15089SOL    HW247101   1.068   6.710  13.186
15090SOL     OW47102  11.767   8.418  12.947
15090SOL    HW147103  11.684   8.400  12.990
15090SOL    HW247104  11.754   8.387  12.857
15091SOL     OW47105  12.591  14.135   3.510
15091SOL    HW147106  12.502  14.124   3.544
15091SOL    HW247107  12.645  14.151   3.587
15092SOL     OW47108  11.056   3.120   6.953
15092SOL    HW147109  11.106   3.067   7.016
15092SOL    HW247110  11.069   3.210   6.981
15093SOL     OW47111   2.268  11.846   1.177
15093SOL    HW147112   2.336  11.846   1.245
15093SOL    HW247113   2.254  11.753   1.158
15094SOL     OW47114  14.071   9.801   9.442
15094SOL    HW147115  14.075   9.790   9.537
15094SOL    HW247116  14.154   9.843   9.419
15095SOL     OW47117   4.859   1.790  10.332
15095SOL    HW147118   4.905   1.835  10.402
15095SOL    HW247119   4.798   1.856  10.298
15096SOL     OW47120   6.579   3.562   1.943
15096SOL    HW147121   6.666   3.592   1.916
15096SOL    HW247122   6.592   3.527   2.031
15097SOL     OW47123   3.933   4.421   8.573
15097SOL    HW147124   3.964   4.384   8.491
15097SOL    HW247125   3.838   4.429   8.561
15098SOL     OW47126   8.840   4.377   2.049
15098SOL    HW147127   8.766   4.370   1.988
15098SOL    HW247128   8.802   4.358   2.135
15099SOL     OW47129   3.337   2.481   4.220
15099SOL    HW147130   3.388   2.424   4.278
15099SOL    HW247131   3.331   2.433   4.138
15100SOL     OW47132   2.718   1.618  14.869
15100SOL    HW147133   2.629   1.652  14.866
15100SOL    HW247134   2.709   1.527   0.019
15101SOL     OW47135  12.512   5.044  13.498
15101SOL    HW147136  12.510   4.949  13.486
15101SOL    HW247137  12.536   5.079  13.412
15102SOL     OW47138   0.440  11.532   2.060
15102SOL    HW147139   0.357  11.578   2.070
15102SOL    HW247140   0.420  11.442   2.085
15103SOL     OW47141   8.296   6.658   9.141
15103SOL    HW147142   8.260   6.744   9.162
15103SOL    HW247143   8.257   6.599   9.205
15104SOL     OW47144   8.723  14.848   0.238
15104SOL    HW147145   8.650   0.023   0.269
15104SOL    HW247146   8.682  14.781   0.184
15105SOL     OW47147   1.332  12.614   3.615
15105SOL    HW147148   1.314  12.542   3.554
15105SOL    HW247149   1.342  12.691   3.559
15106SOL     OW47150   9.401   6.852   1.175
15106SOL    HW147151   9.396   6.877   1.082
15106SOL    HW247152   9.311   6.832   1.199
15107SOL     OW47153  13.858  14.085  10.608
15107SOL    HW147154  13.905  14.121  10.682
15107SOL    HW247155  13.922  14.085  10.536
15108SOL     OW47156   2.490   8.803  13.623
15108SOL    HW147157   2.436   8.769  13.552
15108SOL    HW247158   2.574   8.757  13.613
15109SOL     OW47159   8.395  11.114  14.289
15109SOL    HW147160   8.446  11.191  14.314
15109SOL    HW247161   8.357  11.137  14.205
15110SOL     OW47162   6.386   5.135   5.827
15110SOL    HW147163   6.447   5.096   5.764
15110SOL    HW247164   6.349   5.211   5.782
15111SOL     OW47165   1.604   5.895  11.865
15111SOL    HW147166   1.637   5.844  11.939
15111SOL    HW247167   1.519   5.857  11.845
15112SOL     OW47168   4.074   5.576   7.444
15112SOL    HW147169   4.048   5.548   7.357
15112SOL    HW247170   4.084   5.671   7.437
15113SOL     OW47171  14.448   0.701  12.957
15113SOL    HW147172  14.424   0.793  12.968
15113SOL    HW247173  14.474   0.694  12.866
15114SOL     OW47174  13.702   3.704  14.053
15114SOL    HW147175  13.721   3.750  13.971
15114SOL    HW247176  13.761   3.629  14.053
15115SOL     OW47177   2.765  10.545  14.685
15115SOL    HW147178   2.819  10.597  14.626
15115SOL    HW247179   2.814  10.464  14.697
15116SOL     OW47180  14.137  13.613  14.060
15116SOL    HW147181  14.155  13.575  14.147
15116SOL    HW247182  14.153  13.706  14.071
15117SOL     OW47183   6.976   5.109   8.862
15117SOL    HW147184   7.059   5.139   8.824
15117SOL    HW247185   7.001   5.057   8.938
15118SOL     OW47186  11.865  13.059   8.344
15118SOL    HW147187  11.810  12.988   8.377
15118SOL    HW247188  11.941  13.059   8.401
15119SOL     OW47189  13.619  11.674   6.128
15119SOL    HW147190  13.618  11.653   6.034
15119SOL    HW247191  13.648  11.765   6.131
15120SOL     OW47192   3.844   1.349   2.477
15120SOL    HW147193   3.907   1.286   2.441
15120SOL    HW247194   3.782   1.295   2.526
15121SOL     OW47195  12.553   6.259   1.504
15121SOL    HW147196  12.638   6.219   1.486
15121SOL    HW247197  12.573   6.352   1.518
15122SOL     OW47198  13.794   1.551   3.002
15122SOL    HW147199  13.718   1.505   3.038
15122SOL    HW247200  13.868   1.515   3.050
15123SOL     OW47201  12.022   3.900   4.361
15123SOL    HW147202  11.952   3.931   4.418
15123SOL    HW247203  12.001   3.809   4.344
15124SOL     OW47204   1.294   6.933  12.053
15124SOL    HW147205   1.283   7.026  12.070
15124SOL    HW247206   1.206   6.901  12.033
15125SOL     OW47207   1.267   8.570   7.424
15125SOL    HW147208   1.249   8.608   7.510
15125SOL    HW247209   1.297   8.645   7.371
15126SOL     OW47210   1.297  11.607   6.022
15126SOL    HW147211   1.204  11.586   6.020
15126SOL    HW247212   1.341  11.523   6.012
15127SOL     OW47213  11.572   8.195   5.341
15127SOL    HW147214  11.626   8.141   5.283
15127SOL    HW247215  11.625   8.209   5.419
15128SOL     OW47216  14.569  14.746  10.442
15128SOL    HW147217  14.644  14.781  10.492
15128SOL    HW247218  14.547  14.664  10.486
15129SOL     OW47219  13.592   0.655   7.339
15129SOL    HW147220  13.616   0.704   7.418
15129SOL    HW247221  13.587   0.564   7.368
15130SOL     OW47222   9.518   1.825  10.612
15130SOL    HW147223   9.542   1.754  10.672
15130SOL    HW247224   9.436   1.796  10.572
15131SOL     OW47225  12.862  12.950  14.127
15131SOL    HW147226  12.794  13.011  14.156
15131SOL    HW247227  12.919  13.004  14.071
15132SOL     OW47228   6.877  14.727  11.650
15132SOL    HW147229   6.967  14.754  11.633
15132SOL    HW247230   6.853  14.772  11.730
15133SOL     OW47231  12.889   3.653   3.361
15133SOL    HW147232  12.809   3.601   3.370
15133SOL    HW247233  12.942   3.604   3.298
15134SOL     OW47234   8.545  11.504  14.106
15134SOL    HW147235   8.547  11.473  14.197
15134SOL    HW247236   8.616  11.568  14.101
15135SOL     OW47237   6.689   2.337  14.700
15135SOL    HW147238   6.622   2.401  14.677
15135SOL    HW247239   6.711   2.357  14.791
15136SOL     OW47240   6.170   3.164  12.847
15136SOL    HW147241   6.264   3.178  12.852
15136SOL    HW247242   6.161   3.074  12.816
15137SOL     OW47243  10.939   2.095  12.270
15137SOL    HW147244  10.949   2.080  12.364
15137SOL    HW247245  10.849   2.122  12.259
15138SOL     OW47246   9.255   6.406   7.465
15138SOL    HW147247   9.285   6.315   7.466
15138SOL    HW247248   9.327   6.454   7.425
15139SOL     OW47249  10.182   6.676  14.448
15139SOL    HW147250  10.114   6.640  14.504
15139SOL    HW247251  10.239   6.724  14.507
15140SOL     OW47252   5.981  13.795   1.117
15140SOL    HW147253   5.978  13.830   1.206
15140SOL    HW247254   5.889  13.793   1.089
15141SOL     OW47255  14.823   1.455   1.485
15141SOL    HW147256  14.873   1.528   1.521
15141SOL    HW247257  14.772   1.422   1.559
15142SOL     OW47258   4.813   2.548   3.930
15142SOL    HW147259   4.804   2.553   4.025
15142SOL    HW247260   4.812   2.640   3.901
15143SOL     OW47261   3.971   5.969  10.667
15143SOL    HW147262   3.999   5.924  10.747
15143SOL    HW247263   4.021   6.050  10.666
15144SOL     OW47264   8.672   8.450  12.717
15144SOL    HW147265   8.627   8.382  12.667
15144SOL    HW247266   8.603   8.513  12.739
15145SOL     OW47267  14.334  10.727   2.932
15145SOL    HW147268  14.284  10.714   3.012
15145SOL    HW247269  14.358  10.639   2.903
15146SOL     OW47270   4.094   7.790   1.745
15146SOL    HW147271   4.086   7.848   1.821
15146SOL    HW247272   4.134   7.710   1.780
15147SOL     OW47273   7.842  13.091  13.117
15147SOL    HW147274   7.801  13.157  13.061
15147SOL    HW247275   7.790  13.012  13.104
15148SOL     OW47276   9.989  13.834   8.842
15148SOL    HW147277  10.072  13.864   8.806
15148SOL    HW247278   9.954  13.774   8.775
15149SOL     OW47279   9.034   3.436   2.793
15149SOL    HW147280   9.065   3.525   2.812
15149SOL    HW247281   8.942   3.438   2.817
15150SOL     OW47282   4.651   8.399  10.920
15150SOL    HW147283   4.565   8.413  10.882
15150SOL    HW247284   4.639   8.419  11.013
15151SOL     OW47285   6.944   5.244   5.512
15151SOL    HW147286   7.011   5.191   5.469
15151SOL    HW247287   6.929   5.200   5.596
15152SOL     OW47288  12.025  12.755  11.851
15152SOL    HW147289  12.119  12.752  11.871
15152SOL    HW247290  11.996  12.665  11.862
15153SOL     OW47291   4.483   5.814   7.298
15153SOL    HW147292   4.413   5.876   7.276
15153SOL    HW247293   4.509   5.837   7.387
15154SOL     OW47294   7.800   0.314   2.238
15154SOL    HW147295   7.794   0.218   2.229
15154SOL    HW247296   7.791   0.329   2.332
15155SOL     OW47297   6.238   4.177   5.493
15155SOL    HW147298   6.199   4.116   5.554
15155SOL    HW247299   6.192   4.163   5.411
15156SOL     OW47300   5.602  11.049  10.491
15156SOL    HW147301   5.615  11.027  10.583
15156SOL    HW247302   5.662  11.122  10.476
15157SOL     OW47303   7.576   7.619   4.157
15157SOL    HW147304   7.572   7.572   4.074
15157SOL    HW247305   7.613   7.704   4.134
15158SOL     OW47306   4.339   3.801   6.771
15158SOL    HW147307   4.299   3.739   6.710
15158SOL    HW247308   4.379   3.868   6.715
15159SOL     OW47309   4.682  13.097   1.787
15159SOL    HW147310   4.596  13.116   1.750
15159SOL    HW247311   4.719  13.183   1.809
15160SOL     OW47312   6.433   8.722   2.314
15160SOL    HW147313   6.526   8.720   2.336
15160SOL    HW247314   6.418   8.812   2.283
15161SOL     OW47315  14.796   1.842   6.601
15161SOL    HW147316  14.743   1.796   6.666
15161SOL    HW247317  14.732   1.886   6.544
15162SOL     OW47318   7.665   2.982   9.532
15162SOL    HW147319   7.698   2.915   9.593
15162SOL    HW247320   7.591   3.022   9.578
15163SOL     OW47321   3.710   5.318   4.023
15163SOL    HW147322   3.652   5.370   3.968
15163SOL    HW247323   3.743   5.380   4.088
15164SOL     OW47324   3.085   4.788   7.908
15164SOL    HW147325   3.180   4.788   7.923
15164SOL    HW247326   3.075   4.767   7.815
15165SOL     OW47327   0.811  14.158  14.293
15165SOL    HW147328   0.812  14.152  14.388
15165SOL    HW247329   0.898  14.190  14.270
15166SOL     OW47330   0.524   7.947   8.922
15166SOL    HW147331   0.503   8.036   8.950
15166SOL    HW247332   0.557   7.957   8.833
15167SOL     OW47333  10.064  14.510   7.021
15167SOL    HW147334  10.047  14.603   7.005
15167SOL    HW247335  10.102  14.478   6.939
15168SOL     OW47336  12.281  14.238   0.999
15168SOL    HW147337  12.305  14.222   1.090
15168SOL    HW247338  12.185  14.234   0.998
15169SOL     OW47339   1.898   1.420   6.455
15169SOL    HW147340   1.933   1.363   6.522
15169SOL    HW247341   1.903   1.368   6.374
15170SOL     OW47342  13.580   6.318   6.472
15170SOL    HW147343  13.654   6.294   6.418
15170SOL    HW247344  13.551   6.402   6.437
15171SOL     OW47345   2.329   7.907   1.550
15171SOL    HW147346   2.354   7.830   1.603
15171SOL    HW247347   2.305   7.870   1.465
15172SOL     OW47348  10.263   5.900   0.535
15172SOL    HW147349  10.241   5.975   0.591
15172SOL    HW247350  10.326   5.850   0.586
15173SOL     OW47351   9.185   8.126  10.456
15173SOL    HW147352   9.157   8.053  10.401
15173SOL    HW247353   9.138   8.202  10.421
15174SOL     OW47354  11.488   6.581   0.926
15174SOL    HW147355  11.481   6.670   0.961
15174SOL    HW247356  11.481   6.524   1.003
15175SOL     OW47357  13.726  12.885   3.084
15175SOL    HW147358  13.762  12.906   2.998
15175SOL    HW247359  13.772  12.944   3.144
15176SOL     OW47360   1.461   0.499   3.943
15176SOL    HW147361   1.423   0.522   3.858
15176SOL    HW247362   1.436   0.407   3.956
15177SOL     OW47363   9.107   1.286   7.074
15177SOL    HW147364   9.160   1.208   7.093
15177SOL    HW247365   9.170   1.358   7.075
15178SOL     OW47366   3.514   0.587  14.145
15178SOL    HW147367   3.566   0.548  14.215
15178SOL    HW247368   3.545   0.677  14.140
15179SOL     OW47369   6.527   3.362   1.144
15179SOL    HW147370   6.606   3.409   1.118
15179SOL    HW247371   6.500   3.313   1.065
15180SOL     OW47372  14.181   7.789   7.685
15180SOL    HW147373  14.265   7.744   7.691
15180SOL    HW247374  14.118   7.718   7.669
15181SOL     OW47375  12.215  12.174  13.991
15181SOL    HW147376  12.143  12.236  13.994
15181SOL    HW247377  12.195  12.109  14.059
15182SOL     OW47378  14.659   1.337  13.041
15182SOL    HW147379  14.565   1.348  13.051
15182SOL    HW247380  14.687   1.295  13.123
15183SOL     OW47381  11.521   1.263  11.506
15183SOL    HW147382  11.514   1.171  11.531
15183SOL    HW247383  11.614   1.284  11.516
15184SOL     OW47384   2.415   4.233   8.794
15184SOL    HW147385   2.477   4.279   8.737
15184SOL    HW247386   2.396   4.151   8.747
15185SOL     OW47387   0.880   8.142   6.004
15185SOL    HW147388   0.882   8.223   6.055
15185SOL    HW247389   0.838   8.167   5.921
15186SOL     OW47390   3.754   1.344   8.460
15186SOL    HW147391   3.751   1.352   8.365
15186SOL    HW247392   3.835   1.296   8.477
15187SOL     OW47393  12.485   4.638  10.958
15187SOL    HW147394  12.547   4.565  10.955
15187SOL    HW247395  12.527   4.707  10.906
15188SOL     OW47396   2.431   1.022  10.505
15188SOL    HW147397   2.385   1.091  10.457
15188SOL    HW247398   2.490   0.983  10.440
15189SOL     OW47399  13.407   9.548   2.048
15189SOL    HW147400  13.398   9.510   1.961
15189SOL    HW247401  13.499   9.573   2.054
15190SOL     OW47402   3.332  10.807   1.734
15190SOL    HW147403   3.253  10.860   1.729
15190SOL    HW247404   3.320  10.739   1.667
15191SOL     OW47405  10.101   5.806  11.842
15191SOL    HW147406  10.046   5.735  11.809
15191SOL    HW247407  10.188   5.766  11.852
15192SOL     OW47408   2.196  14.725  13.804
15192SOL    HW147409   2.260  14.773  13.752
15192SOL    HW247410   2.117  14.780  13.801
15193SOL     OW47411   1.608   2.890   2.504
15193SOL    HW147412   1.611   2.812   2.449
15193SOL    HW247413   1.700   2.908   2.523
15194SOL     OW47414  12.506   3.502  13.216
15194SOL    HW147415  12.462   3.586  13.203
15194SOL    HW247416  12.506   3.489  13.310
15195SOL     OW47417   2.964   6.095   1.000
15195SOL    HW147418   2.884   6.075   1.049
15195SOL    HW247419   2.990   6.182   1.030
15196SOL     OW47420   3.302   3.727  12.409
15196SOL    HW147421   3.215   3.767  12.409
15196SOL    HW247422   3.290   3.642  12.449
15197SOL     OW47423   5.347   3.646  11.099
15197SOL    HW147424   5.283   3.588  11.140
15197SOL    HW247425   5.343   3.727  11.151
15198SOL     OW47426  10.591  10.045  13.488
15198SOL    HW147427  10.643  10.112  13.531
15198SOL    HW247428  10.624   9.962  13.522
15199SOL     OW47429  12.090   1.432   4.850
15199SOL    HW147430  12.068   1.525   4.854
15199SOL    HW247431  12.021   1.389   4.902
15200SOL     OW47432   0.182  14.329  14.185
15200SOL    HW147433   0.183  14.411  14.136
15200SOL    HW247434   0.201  14.262  14.120
15201SOL     OW47435  14.695  14.291   4.903
15201SOL    HW147436  14.659  14.223   4.961
15201SOL    HW247437  14.713  14.245   4.821
15202SOL     OW47438  13.445  10.602  11.046
15202SOL    HW147439  13.451  10.525  10.990
15202SOL    HW247440  13.491  10.577  11.126
15203SOL     OW47441   8.202  10.820  12.895
15203SOL    HW147442   8.165  10.869  12.821
15203SOL    HW247443   8.232  10.738  12.856
15204SOL     OW47444  13.576   4.371   1.130
15204SOL    HW147445  13.567   4.421   1.211
15204SOL    HW247446  13.537   4.427   1.063
15205SOL     OW47447  12.364  10.914   7.478
15205SOL    HW147448  12.304  10.987   7.460
15205SOL    HW247449  12.315  10.856   7.536
15206SOL     OW47450   4.576  12.796   7.371
15206SOL    HW147451   4.522  12.873   7.385
15206SOL    HW247452   4.564  12.775   7.278
15207SOL     OW47453  14.255   9.840  10.579
15207SOL    HW147454  14.286   9.762  10.625
15207SOL    HW247455  14.165   9.819  10.554
15208SOL     OW47456  14.161  11.307  11.602
15208SOL    HW147457  14.149  11.214  11.582
15208SOL    HW247458  14.081  11.332  11.649
15209SOL     OW47459   5.054  14.205   3.928
15209SOL    HW147460   5.006  14.272   3.977
15209SOL    HW247461   5.026  14.122   3.967
15210SOL     OW47462   6.961  14.495  13.905
15210SOL    HW147463   6.931  14.496  13.814
15210SOL    HW247464   6.910  14.564  13.947
15211SOL     OW47465  13.423  10.338   7.560
15211SOL    HW147466  13.457  10.416   7.604
15211SOL    HW247467  13.338  10.365   7.525
15212SOL     OW47468   3.174   4.028   5.526
15212SOL    HW147469   3.216   4.043   5.610
15212SOL    HW247470   3.177   4.112   5.481
15213SOL     OW47471  14.796  13.422   0.978
15213SOL    HW147472  14.841  13.503   0.957
15213SOL    HW247473  14.704  13.446   0.984
15214SOL     OW47474   2.164   0.412   8.118
15214SOL    HW147475   2.192   0.504   8.109
15214SOL    HW247476   2.224   0.374   8.181
15215SOL     OW47477  10.451   2.236  11.508
15215SOL    HW147478  10.462   2.328  11.484
15215SOL    HW247479  10.397   2.200  11.438
15216SOL     OW47480   6.455  13.980   6.243
15216SOL    HW147481   6.545  13.955   6.266
15216SOL    HW247482   6.431  13.921   6.172
15217SOL     OW47483   4.946   9.202   8.011
15217SOL    HW147484   5.035   9.213   8.044
15217SOL    HW247485   4.894   9.181   8.089
15218SOL     OW47486  10.470  14.107   5.086
15218SOL    HW147487  10.428  14.070   5.008
15218SOL    HW247488  10.541  14.161   5.052
15219SOL     OW47489  12.598   9.698   8.927
15219SOL    HW147490  12.668   9.715   8.989
15219SOL    HW247491  12.527   9.756   8.954
15220SOL     OW47492   1.005  13.243   2.699
15220SOL    HW147493   0.941  13.208   2.637
15220SOL    HW247494   0.952  13.275   2.772
15221SOL     OW47495   3.415   9.641   0.337
15221SOL    HW147496   3.436   9.718   0.285
15221SOL    HW247497   3.429   9.669   0.428
15222SOL     OW47498  13.630   2.226  12.430
15222SOL    HW147499  13.685   2.287  12.479
15222SOL    HW247500  13.547   2.225  12.477
15223SOL     OW47501   5.168   6.236  12.336
15223SOL    HW147502   5.163   6.180  12.413
15223SOL    HW247503   5.101   6.303  12.351
15224SOL     OW47504  13.299  13.612   5.215
15224SOL    HW147505  13.215  13.567   5.209
15224SOL    HW247506  13.323  13.607   5.307
15225SOL     OW47507   1.959   2.856  11.012
15225SOL    HW147508   1.967   2.943  10.972
15225SOL    HW247509   1.930   2.874  11.102
15226SOL     OW47510   6.489  10.597   0.715
15226SOL    HW147511   6.530  10.534   0.775
15226SOL    HW247512   6.400  10.564   0.702
15227SOL     OW47513  10.369   7.985   7.961
15227SOL    HW147514  10.401   7.947   7.879
15227SOL    HW247515  10.282   7.948   7.973
15228SOL     OW47516  13.657   1.004  13.589
15228SOL    HW147517  13.674   1.090  13.551
15228SOL    HW247518  13.629   1.022  13.679
15229SOL     OW47519   7.354  12.753   4.665
15229SOL    HW147520   7.377  12.695   4.738
15229SOL    HW247521   7.293  12.816   4.704
15230SOL     OW47522  11.167   0.156  12.335
15230SOL    HW147523  11.170   0.137  12.241
15230SOL    HW247524  11.074   0.160  12.356
15231SOL     OW47525  10.235  11.096   2.155
15231SOL    HW147526  10.143  11.101   2.180
15231SOL    HW247527  10.243  11.012   2.110
15232SOL     OW47528  11.210   9.384   4.585
15232SOL    HW147529  11.160   9.466   4.581
15232SOL    HW247530  11.293   9.405   4.542
15233SOL     OW47531   2.592   3.739  12.245
15233SOL    HW147532   2.637   3.689  12.314
15233SOL    HW247533   2.643   3.723  12.166
15234SOL     OW47534   3.162   0.108   6.489
15234SOL    HW147535   3.139   0.114   6.581
15234SOL    HW247536   3.114   0.179   6.447
15235SOL     OW47537   7.188   5.108  13.891
15235SOL    HW147538   7.135   5.185  13.911
15235SOL    HW247539   7.147   5.037  13.940
15236SOL     OW47540   0.770   7.411   2.916
15236SOL    HW147541   0.700   7.447   2.970
15236SOL    HW247542   0.746   7.435   2.826
15237SOL     OW47543   2.918   2.816  12.582
15237SOL    HW147544   2.997   2.772  12.550
15237SOL    HW247545   2.944   2.908  12.592
15238SOL     OW47546  14.804   9.257  10.233
15238SOL    HW147547  14.786   9.212  10.151
15238SOL    HW247548   0.020   9.261  10.239
15239SOL     OW47549   0.173   4.058   2.251
15239SOL    HW147550   0.182   4.066   2.156
15239SOL    HW247551   0.261   4.039   2.282
15240SOL     OW47552   2.193  13.318   6.502
15240SOL    HW147553   2.109  13.361   6.487
15240SOL    HW247554   2.170  13.233   6.539
15241SOL     OW47555   8.036   4.165   4.784
15241SOL    HW147556   8.123   4.195   4.759
15241SOL    HW247557   8.000   4.127   4.704
15242SOL     OW47558   4.996  11.768   8.606
15242SOL    HW147559   5.036  11.791   8.690
15242SOL    HW247560   4.984  11.852   8.562
15243SOL     OW47561   9.832   9.396   7.848
15243SOL    HW147562   9.854   9.401   7.755
15243SOL    HW247563   9.795   9.308   7.859
15244SOL     OW47564   5.097   1.175   8.570
15244SOL    HW147565   5.013   1.165   8.613
15244SOL    HW247566   5.156   1.206   8.638
15245SOL     OW47567   6.448  11.813   8.819
15245SOL    HW147568   6.529  11.772   8.848
15245SOL    HW247569   6.425  11.767   8.738
15246SOL     OW47570  13.700   8.659   1.890
15246SOL    HW147571  13.611   8.628   1.874
15246SOL    HW247572  13.689   8.731   1.952
15247SOL     OW47573  10.152  12.945   2.705
15247SOL    HW147574  10.197  12.899   2.777
15247SOL    HW247575  10.109  13.019   2.747
15248SOL     OW47576   6.541  11.499   1.491
15248SOL    HW147577   6.519  11.420   1.540
15248SOL    HW247578   6.464  11.555   1.500
15249SOL     OW47579   1.115   9.098   9.724
15249SOL    HW147580   1.142   9.100   9.632
15249SOL    HW247581   1.172   9.162   9.767
15250SOL     OW47582   6.714   3.726   3.572
15250SOL    HW147583   6.781   3.775   3.620
15250SOL    HW247584   6.700   3.778   3.493
15251SOL     OW47585  10.701   9.739   2.246
15251SOL    HW147586  10.669   9.767   2.160
15251SOL    HW247587  10.788   9.704   2.228
15252SOL     OW47588  10.937   3.681   3.420
15252SOL    HW147589  10.891   3.606   3.381
15252SOL    HW247590  10.946   3.743   3.348
15253SOL     OW47591   9.054   2.093  14.708
15253SOL    HW147592   9.052   2.189  14.708
15253SOL    HW247593   8.962   2.067  14.714
15254SOL     OW47594  13.405   4.633  14.521
15254SOL    HW147595  13.377   4.614  14.611
15254SOL    HW247596  13.327   4.615  14.468
15255SOL     OW47597   9.614   1.343  13.979
15255SOL    HW147598   9.695   1.342  14.030
15255SOL    HW247599   9.554   1.398  14.030
15256SOL     OW47600   6.489   4.607   5.768
15256SOL    HW147601   6.464   4.515   5.756
15256SOL    HW247602   6.408   4.651   5.794
15257SOL     OW47603   7.914   6.186   7.537
15257SOL    HW147604   7.949   6.188   7.449
15257SOL    HW247605   7.822   6.163   7.526
15258SOL     OW47606  13.217  12.849   4.083
15258SOL    HW147607  13.129  12.868   4.115
15258SOL    HW247608  13.208  12.766   4.036
15259SOL     OW47609   3.085   9.524   3.061
15259SOL    HW147610   3.065   9.431   3.074
15259SOL    HW247611   3.000   9.567   3.056
15260SOL     OW47612  10.926  13.725   7.348
15260SOL    HW147613  10.879  13.762   7.423
15260SOL    HW247614  11.016  13.755   7.360
15261SOL     OW47615   3.785  11.118   9.160
15261SOL    HW147616   3.721  11.089   9.224
15261SOL    HW247617   3.862  11.141   9.211
15262SOL     OW47618   1.969  13.019   1.490
15262SOL    HW147619   1.995  13.024   1.399
15262SOL    HW247620   1.968  13.110   1.520
15263SOL     OW47621  13.668   4.261  11.897
15263SOL    HW147622  13.730   4.263  11.969
15263SOL    HW247623  13.594   4.210  11.929
15264SOL     OW47624   1.290   8.397   0.083
15264SOL    HW147625   1.215   8.454   0.068
15264SOL    HW247626   1.263   8.342   0.156
15265SOL     OW47627   5.248  10.184   7.217
15265SOL    HW147628   5.340  10.207   7.233
15265SOL    HW247629   5.223  10.133   7.294
15266SOL     OW47630  12.322  13.354  12.651
15266SOL    HW147631  12.229  13.331  12.644
15266SOL    HW247632  12.323  13.428  12.711
15267SOL     OW47633   8.518  11.070  11.344
15267SOL    HW147634   8.431  11.045  11.313
15267SOL    HW247635   8.549  10.994  11.393
15268SOL     OW47636   0.505   8.342  12.846
15268SOL    HW147637   0.535   8.251  12.848
15268SOL    HW247638   0.441   8.347  12.917
15269SOL     OW47639  10.298   3.680   3.077
15269SOL    HW147640  10.259   3.641   2.999
15269SOL    HW247641  10.330   3.606   3.128
15270SOL     OW47642   1.979   1.192   4.533
15270SOL    HW147643   1.961   1.241   4.613
15270SOL    HW247644   2.064   1.223   4.503
15271SOL     OW47645  10.467   2.761  13.870
15271SOL    HW147646  10.516   2.782  13.791
15271SOL    HW247647  10.376   2.751  13.840
15272SOL     OW47648  10.112   9.978   0.842
15272SOL    HW147649  10.206   9.993   0.842
15272SOL    HW247650  10.079  10.022   0.764
15273SOL     OW47651   4.382   0.086  12.384
15273SOL    HW147652   4.353   0.172  12.412
15273SOL    HW247653   4.426   0.101  12.301
15274SOL     OW47654   8.153   8.574  10.637
15274SOL    HW147655   8.089   8.616  10.694
15274SOL    HW247656   8.235   8.577  10.688
15275SOL     OW47657  10.015   4.670   0.219
15275SOL    HW147658   9.968   4.744   0.182
15275SOL    HW247659  10.105   4.679   0.185
15276SOL     OW47660   5.516  10.959  12.019
15276SOL    HW147661   5.565  11.042  12.014
15276SOL    HW247662   5.548  10.908  11.945
15277SOL     OW47663   3.311  12.143   0.451
15277SOL    HW147664   3.263  12.211   0.498
15277SOL    HW247665   3.243  12.083   0.419
15278SOL     OW47666  10.689   6.781  11.732
15278SOL    HW147667  10.755   6.726  11.775
15278SOL    HW247668  10.740   6.846  11.683
15279SOL     OW47669   6.565   6.144  10.057
15279SOL    HW147670   6.514   6.220  10.031
15279SOL    HW247671   6.500   6.083  10.094
15280SOL     OW47672  14.247   0.623  13.506
15280SOL    HW147673  14.161   0.597  13.473
15280SOL    HW247674  14.283   0.678  13.437
15281SOL     OW47675  14.044   4.575  12.106
15281SOL    HW147676  14.086   4.647  12.152
15281SOL    HW247677  13.985   4.536  12.171
15282SOL     OW47678   2.472   4.631  13.145
15282SOL    HW147679   2.426   4.708  13.178
15282SOL    HW247680   2.403   4.579  13.102
15283SOL     OW47681   9.291  12.357   9.125
15283SOL    HW147682   9.308  12.442   9.167
15283SOL    HW247683   9.216  12.322   9.172
15284SOL     OW47684  12.104   2.846   5.082
15284SOL    HW147685  12.156   2.786   5.135
15284SOL    HW247686  12.124   2.822   4.991
15285SOL     OW47687   8.556   5.558  10.298
15285SOL    HW147688   8.645   5.541  10.265
15285SOL    HW247689   8.569   5.617  10.373
15286SOL     OW47690   7.919  13.827   3.986
15286SOL    HW147691   8.002  13.803   3.944
15286SOL    HW247692   7.852  13.786   3.931
15287SOL     OW47693  10.670   6.041  13.694
15287SOL    HW147694  10.713   6.085  13.621
15287SOL    HW247695  10.624   5.967  13.654
15288SOL     OW47696  11.676  14.019   4.710
15288SOL    HW147697  11.627  14.095   4.741
15288SOL    HW247698  11.768  14.041   4.726
15289SOL     OW47699   6.038   8.129   2.931
15289SOL    HW147700   6.042   8.179   2.849
15289SOL    HW247701   6.105   8.062   2.921
15290SOL     OW47702   1.475  11.701  11.377
15290SOL    HW147703   1.440  11.770  11.434
15290SOL    HW247704   1.446  11.620  11.418
15291SOL     OW47705   3.067   0.885  14.664
15291SOL    HW147706   3.154   0.923  14.675
15291SOL    HW247707   3.024   0.899  14.749
15292SOL     OW47708   1.312   4.810   6.447
15292SOL    HW147709   1.311   4.893   6.399
15292SOL    HW247710   1.230   4.810   6.496
15293SOL     OW47711  14.274   2.121  11.375
15293SOL    HW147712  14.239   2.036  11.400
15293SOL    HW247713  14.283   2.169  11.458
15294SOL     OW47714   8.390  10.847   9.555
15294SOL    HW147715   8.400  10.767   9.503
15294SOL    HW247716   8.479  10.870   9.580
15295SOL     OW47717   5.881   0.836   5.021
15295SOL    HW147718   5.854   0.927   5.020
15295SOL    HW247719   5.841   0.800   5.100
15296SOL     OW47720   2.229   7.272   0.275
15296SOL    HW147721   2.316   7.233   0.287
15296SOL    HW247722   2.244   7.366   0.275
15297SOL     OW47723   0.094   1.312   1.748
15297SOL    HW147724   0.056   1.389   1.791
15297SOL    HW247725   0.188   1.329   1.744
15298SOL     OW47726   4.621   6.810   9.401
15298SOL    HW147727   4.614   6.880   9.466
15298SOL    HW247728   4.715   6.797   9.388
15299SOL     OW47729   8.419  13.478   9.230
15299SOL    HW147730   8.388  13.390   9.213
15299SOL    HW247731   8.499  13.466   9.282
15300SOL     OW47732  14.877   3.105  11.984
15300SOL    HW147733   0.086   3.103  12.022
15300SOL    HW247734   0.010   3.149  11.900
15301SOL     OW47735  14.558   4.734   6.339
15301SOL    HW147736  14.514   4.758   6.258
15301SOL    HW247737  14.581   4.641   6.328
15302SOL     OW47738  11.678   9.732   1.650
15302SOL    HW147739  11.684   9.636   1.649
15302SOL    HW247740  11.673   9.754   1.743
15303SOL     OW47741   7.738  11.737   3.142
15303SOL    HW147742   7.706  11.748   3.053
15303SOL    HW247743   7.829  11.710   3.131
15304SOL     OW47744  14.608  12.965  14.315
15304SOL    HW147745  14.567  12.881  14.337
15304SOL    HW247746  14.701  12.952  14.332
15305SOL     OW47747  10.898   1.049   3.661
15305SOL    HW147748  10.921   0.957   3.674
15305SOL    HW247749  10.976   1.098   3.688
15306SOL     OW47750  11.007   6.993   5.166
15306SOL    HW147751  10.998   7.052   5.092
15306SOL    HW247752  10.951   7.030   5.234
15307SOL     OW47753  14.078   4.132   4.986
15307SOL    HW147754  13.999   4.185   4.977
15307SOL    HW247755  14.081   4.108   5.079
15308SOL     OW47756   7.619   5.897   0.535
15308SOL    HW147757   7.564   5.964   0.494
15308SOL    HW247758   7.702   5.941   0.552
15309SOL     OW47759  12.069   0.914   8.461
15309SOL    HW147760  12.123   0.871   8.395
15309SOL    HW247761  12.096   0.874   8.544
15310SOL     OW47762   5.059  13.328  13.987
15310SOL    HW147763   5.066  13.236  13.962
15310SOL    HW247764   5.087  13.330  14.078
15311SOL     OW47765  12.783  10.442   4.312
15311SOL    HW147766  12.751  10.355   4.287
15311SOL    HW247767  12.872  10.445   4.278
15312SOL     OW47768  14.705  13.863  11.187
15312SOL    HW147769  14.718  13.775  11.154
15312SOL    HW247770  14.702  13.918  11.108
15313SOL     OW47771   2.958   6.163  10.592
15313SOL    HW147772   3.003   6.152  10.675
15313SOL    HW247773   3.028   6.169  10.527
15314SOL     OW47774   3.604   8.038  10.418
15314SOL    HW147775   3.571   8.103  10.480
15314SOL    HW247776   3.653   8.089  10.354
15315SOL     OW47777  10.297   3.821   8.423
15315SOL    HW147778  10.268   3.794   8.510
15315SOL    HW247779  10.253   3.905   8.408
15316SOL     OW47780  13.445  12.849  14.631
15316SOL    HW147781  13.459  12.758  14.605
15316SOL    HW247782  13.350  12.857  14.637
15317SOL     OW47783   1.661   9.009  12.854
15317SOL    HW147784   1.734   8.956  12.887
15317SOL    HW247785   1.631   9.059  12.930
15318SOL     OW47786   8.039   6.339  14.005
15318SOL    HW147787   7.993   6.256  14.019
15318SOL    HW247788   7.980   6.390  13.950
15319SOL     OW47789   3.330   0.533  11.497
15319SOL    HW147790   3.362   0.556  11.410
15319SOL    HW247791   3.323   0.438  11.497
15320SOL     OW47792  11.598   5.973   5.668
15320SOL    HW147793  11.599   5.884   5.633
15320SOL    HW247794  11.510   5.984   5.705
15321SOL     OW47795  10.925   4.723   5.009
15321SOL    HW147796  10.869   4.701   5.083
15321SOL    HW247797  10.984   4.790   5.043
15322SOL     OW47798  12.214   8.475   9.370
15322SOL    HW147799  12.229   8.390   9.411
15322SOL    HW247800  12.208   8.456   9.276
15323SOL     OW47801  10.015   6.010  13.688
15323SOL    HW147802   9.939   6.052  13.646
15323SOL    HW247803  10.075   5.993  13.616
15324SOL     OW47804   7.284   7.626   1.137
15324SOL    HW147805   7.328   7.648   1.055
15324SOL    HW247806   7.299   7.532   1.148
15325SOL     OW47807   9.716   2.986   2.547
15325SOL    HW147808   9.642   2.970   2.488
15325SOL    HW247809   9.773   3.045   2.498
15326SOL     OW47810   6.670   1.620   6.797
15326SOL    HW147811   6.716   1.557   6.853
15326SOL    HW247812   6.728   1.632   6.722
15327SOL     OW47813  14.400  14.441   4.532
15327SOL    HW147814  14.386  14.362   4.585
15327SOL    HW247815  14.477  14.482   4.571
15328SOL     OW47816   1.629  11.191   0.994
15328SOL    HW147817   1.702  11.236   0.952
15328SOL    HW247818   1.670  11.122   1.046
15329SOL     OW47819   6.793  14.017   0.751
15329SOL    HW147820   6.888  14.026   0.757
15329SOL    HW247821   6.779  13.925   0.727
15330SOL     OW47822  10.766   8.667  13.454
15330SOL    HW147823  10.774   8.712  13.538
15330SOL    HW247824  10.830   8.710  13.397
15331SOL     OW47825   4.315   5.433  13.555
15331SOL    HW147826   4.281   5.455  13.642
15331SOL    HW247827   4.273   5.351  13.533
15332SOL     OW47828   6.453  14.275  10.595
15332SOL    HW147829   6.382  14.336  10.574
15332SOL    HW247830   6.470  14.288  10.688
15333SOL     OW47831  12.463   3.780   0.971
15333SOL    HW147832  12.522   3.856   0.964
15333SOL    HW247833  12.521   3.704   0.969
15334SOL     OW47834   0.950   7.737   0.068
15334SOL    HW147835   1.016   7.797   0.036
15334SOL    HW247836   0.879   7.742   0.004
15335SOL     OW47837   2.347   4.176   3.471
15335SOL    HW147838   2.354   4.217   3.385
15335SOL    HW247839   2.421   4.117   3.476
15336SOL     OW47840  10.664   0.839   5.811
15336SOL    HW147841  10.597   0.854   5.878
15336SOL    HW247842  10.636   0.760   5.765
15337SOL     OW47843   9.922   4.786  12.235
15337SOL    HW147844  10.010   4.783  12.272
15337SOL    HW247845   9.935   4.785  12.140
15338SOL     OW47846  12.770   3.528  13.192
15338SOL    HW147847  12.779   3.564  13.280
15338SOL    HW247848  12.676   3.521  13.178
15339SOL     OW47849  13.391   0.580  11.511
15339SOL    HW147850  13.429   0.655  11.466
15339SOL    HW247851  13.400   0.507  11.449
15340SOL     OW47852  12.210  10.683   6.413
15340SOL    HW147853  12.268  10.728   6.351
15340SOL    HW247854  12.235  10.591   6.406
15341SOL     OW47855   1.442  10.378  12.222
15341SOL    HW147856   1.516  10.437  12.237
15341SOL    HW247857   1.447  10.357  12.129
15342SOL     OW47858  11.131  13.977   8.574
15342SOL    HW147859  11.199  13.990   8.508
15342SOL    HW247860  11.053  14.018   8.537
15343SOL     OW47861   9.522  14.696  12.120
15343SOL    HW147862   9.453  14.730  12.063
15343SOL    HW247863   9.499  14.728  12.207
15344SOL     OW47864   7.520   3.612  10.456
15344SOL    HW147865   7.599   3.650  10.419
15344SOL    HW247866   7.512   3.527  10.414
15345SOL     OW47867   2.919   6.789  12.891
15345SOL    HW147868   2.925   6.822  12.802
15345SOL    HW247869   2.825   6.781  12.907
15346SOL     OW47870  13.920   7.767   6.173
15346SOL    HW147871  13.983   7.792   6.241
15346SOL    HW247872  13.904   7.674   6.189
15347SOL     OW47873   4.295   9.220   9.507
15347SOL    HW147874   4.365   9.164   9.541
15347SOL    HW247875   4.232   9.225   9.579
15348SOL     OW47876   5.969   9.133  13.972
15348SOL    HW147877   5.933   9.222  13.966
15348SOL    HW247878   5.998   9.126  14.063
15349SOL     OW47879  13.510   7.494   6.347
15349SOL    HW147880  13.467   7.573   6.379
15349SOL    HW247881  13.553   7.521   6.266
15350SOL     OW47882   2.459   3.661   4.370
15350SOL    HW147883   2.501   3.633   4.289
15350SOL    HW247884   2.366   3.644   4.355
15351SOL     OW47885   3.221   7.787  11.991
15351SOL    HW147886   3.152   7.842  12.028
15351SOL    HW247887   3.261   7.745  12.067
15352SOL     OW47888   3.867   6.304   2.008
15352SOL    HW147889   3.813   6.378   1.980
15352SOL    HW247890   3.864   6.244   1.933
15353SOL     OW47891   0.948  11.025   2.413
15353SOL    HW147892   0.941  11.079   2.335
15353SOL    HW247893   0.924  10.937   2.384
15354SOL     OW47894   8.729   8.755   3.483
15354SOL    HW147895   8.744   8.827   3.545
15354SOL    HW247896   8.636   8.735   3.492
15355SOL     OW47897  11.232   9.074   4.707
15355SOL    HW147898  11.197   9.126   4.780
15355SOL    HW247899  11.169   9.088   4.636
15356SOL     OW47900   1.004  10.756   1.030
15356SOL    HW147901   0.997  10.760   0.934
15356SOL    HW247902   0.943  10.686   1.055
15357SOL     OW47903   7.087   5.688   0.844
15357SOL    HW147904   7.036   5.607   0.850
15357SOL    HW247905   7.024   5.754   0.813
15358SOL     OW47906  13.146   3.295   8.342
15358SOL    HW147907  13.101   3.284   8.425
15358SOL    HW247908  13.172   3.207   8.316
15359SOL     OW47909  10.574   9.957   1.569
15359SOL    HW147910  10.546   9.995   1.485
15359SOL    HW247911  10.620  10.029   1.613
15360SOL     OW47912   2.701   6.929  10.833
15360SOL    HW147913   2.719   6.843  10.796
15360SOL    HW247914   2.774   6.945  10.893
15361SOL     OW47915  10.075  14.498   4.036
15361SOL    HW147916  10.096  14.585   4.002
15361SOL    HW247917  10.159  14.452   4.039
15362SOL     OW47918   2.433  12.954   8.910
15362SOL    HW147919   2.428  12.928   8.819
15362SOL    HW247920   2.428  12.872   8.960
15363SOL     OW47921   8.115  11.556  14.534
15363SOL    HW147922   8.086  11.466  14.548
15363SOL    HW247923   8.071  11.606  14.603
15364SOL     OW47924  12.265   6.155   5.894
15364SOL    HW147925  12.297   6.210   5.822
15364SOL    HW247926  12.241   6.073   5.852
15365SOL     OW47927  11.628   1.957   2.629
15365SOL    HW147928  11.574   2.014   2.574
15365SOL    HW247929  11.574   1.879   2.641
15366SOL     OW47930   4.436   9.605   0.682
15366SOL    HW147931   4.389   9.641   0.607
15366SOL    HW247932   4.404   9.653   0.758
15367SOL     OW47933  13.847   6.778  12.202
15367SOL    HW147934  13.851   6.858  12.254
15367SOL    HW247935  13.753   6.761  12.190
15368SOL     OW47936   4.668   9.609  14.107
15368SOL    HW147937   4.722   9.596  14.185
15368SOL    HW247938   4.595   9.547  14.118
15369SOL     OW47939  13.122   4.910   3.607
15369SOL    HW147940  13.114   4.916   3.512
15369SOL    HW247941  13.216   4.912   3.623
15370SOL     OW47942   4.099   3.275   1.493
15370SOL    HW147943   4.181   3.259   1.541
15370SOL    HW247944   4.125   3.273   1.401
15371SOL     OW47945   3.918  13.177  13.163
15371SOL    HW147946   3.827  13.202  13.181
15371SOL    HW247947   3.928  13.092  13.208
15372SOL     OW47948   4.514   1.342   7.205
15372SOL    HW147949   4.447   1.406   7.228
15372SOL    HW247950   4.527   1.290   7.284
15373SOL     OW47951   0.621   5.575  10.894
15373SOL    HW147952   0.607   5.592  10.988
15373SOL    HW247953   0.698   5.627  10.872
15374SOL     OW47954  13.859   3.357   8.043
15374SOL    HW147955  13.860   3.366   8.138
15374SOL    HW247956  13.806   3.279   8.027
15375SOL     OW47957  10.589  13.736   3.127
15375SOL    HW147958  10.550  13.741   3.214
15375SOL    HW247959  10.625  13.823   3.111
15376SOL     OW47960   8.614   6.492   6.804
15376SOL    HW147961   8.535   6.486   6.859
15376SOL    HW247962   8.682   6.448   6.855
15377SOL     OW47963  12.793  14.144   9.612
15377SOL    HW147964  12.860  14.170   9.548
15377SOL    HW247965  12.780  14.051   9.596
15378SOL     OW47966   5.896   0.564  13.249
15378SOL    HW147967   5.887   0.510  13.171
15378SOL    HW247968   5.862   0.650  13.224
15379SOL     OW47969   1.834   1.790   5.107
15379SOL    HW147970   1.859   1.817   5.195
15379SOL    HW247971   1.794   1.704   5.119
15380SOL     OW47972  11.052  12.315  10.572
15380SOL    HW147973  11.058  12.346  10.663
15380SOL    HW247974  11.019  12.391  10.524
15381SOL     OW47975  14.575  10.978   3.341
15381SOL    HW147976  14.564  10.955   3.433
15381SOL    HW247977  14.503  10.932   3.296
15382SOL     OW47978   1.258   3.501  14.385
15382SOL    HW147979   1.253   3.511  14.480
15382SOL    HW247980   1.248   3.590  14.351
15383SOL     OW47981  11.902   9.714   0.694
15383SOL    HW147982  11.978   9.768   0.716
15383SOL    HW247983  11.925   9.626   0.724
15384SOL     OW47984   2.422   7.454   9.370
15384SOL    HW147985   2.381   7.386   9.423
15384SOL    HW247986   2.363   7.465   9.295
15385SOL     OW47987   7.914  10.673   5.237
15385SOL    HW147988   7.936  10.689   5.146
15385SOL    HW247989   7.976  10.727   5.287
15386SOL     OW47990   8.905   9.240   4.823
15386SOL    HW147991   8.856   9.224   4.742
15386SOL    HW247992   8.842   9.226   4.893
15387SOL     OW47993   3.213   7.651  10.367
15387SOL    HW147994   3.124   7.680  10.382
15387SOL    HW247995   3.268   7.717  10.410
15388SOL     OW47996  11.338   1.500   1.771
15388SOL    HW147997  11.301   1.432   1.828
15388SOL    HW247998  11.402   1.454   1.717
15389SOL     OW47999   5.035  13.371   3.915
15389SOL    HW148000   4.946  13.399   3.894
15389SOL    HW248001   5.091  13.425   3.859
15390SOL     OW48002   6.244   9.155   2.367
15390SOL    HW148003   6.238   9.060   2.358
15390SOL    HW248004   6.322   9.169   2.421
15391SOL     OW48005   4.262   2.667   8.018
15391SOL    HW148006   4.216   2.668   8.102
15391SOL    HW248007   4.317   2.589   8.022
15392SOL     OW48008   7.843  10.032  11.771
15392SOL    HW148009   7.803   9.953  11.805
15392SOL    HW248010   7.808  10.040  11.682
15393SOL     OW48011  13.890   5.129   7.251
15393SOL    HW148012  13.894   5.094   7.340
15393SOL    HW248013  13.831   5.069   7.204
15394SOL     OW48014   8.064  14.871   9.577
15394SOL    HW148015   8.090  14.792   9.625
15394SOL    HW248016   8.146   0.030   9.547
15395SOL     OW48017   1.640   7.374   6.544
15395SOL    HW148018   1.694   7.341   6.616
15395SOL    HW248019   1.646   7.306   6.477
15396SOL     OW48020   1.662  14.379  14.164
15396SOL    HW148021   1.660  14.300  14.217
15396SOL    HW248022   1.754  14.405  14.164
15397SOL     OW48023  12.534  13.719   7.376
15397SOL    HW148024  12.581  13.697   7.456
15397SOL    HW248025  12.534  13.815   7.374
15398SOL     OW48026  14.470  14.074  11.683
15398SOL    HW148027  14.438  14.077  11.773
15398SOL    HW248028  14.564  14.062  11.691
15399SOL     OW48029   3.193   2.527   1.024
15399SOL    HW148030   3.124   2.490   1.080
15399SOL    HW248031   3.183   2.481   0.941
15400SOL     OW48032   6.150  12.100   4.853
15400SOL    HW148033   6.088  12.173   4.853
15400SOL    HW248034   6.102  12.029   4.810
15401SOL     OW48035   0.092   0.631   7.512
15401SOL    HW148036   0.042   0.626   7.430
15401SOL    HW248037   0.029   0.667   7.576
15402SOL     OW48038   5.293   3.764   5.522
15402SOL    HW148039   5.226   3.828   5.545
15402SOL    HW248040   5.252   3.710   5.455
15403SOL     OW48041   9.025  10.049  10.605
15403SOL    HW148042   9.052  10.082  10.691
15403SOL    HW248043   9.094   9.989  10.578
15404SOL     OW48044   2.126   5.413  14.460
15404SOL    HW148045   2.166   5.355  14.395
15404SOL    HW248046   2.200   5.457  14.501
15405SOL     OW48047  10.705   8.397  13.411
15405SOL    HW148048  10.781   8.368  13.362
15405SOL    HW248049  10.711   8.493  13.412
15406SOL     OW48050   0.684   9.911   6.736
15406SOL    HW148051   0.638   9.835   6.771
15406SOL    HW248052   0.776   9.883   6.731
15407SOL     OW48053   5.655  12.585   4.098
15407SOL    HW148054   5.672  12.491   4.098
15407SOL    HW248055   5.568  12.594   4.060
15408SOL     OW48056  13.672  10.716   4.198
15408SOL    HW148057  13.579  10.708   4.218
15408SOL    HW248058  13.704  10.626   4.197
15409SOL     OW48059  13.862   0.375   8.728
15409SOL    HW148060  13.768   0.362   8.715
15409SOL    HW248061  13.878   0.349   8.819
15410SOL     OW48062   6.541   9.958   6.946
15410SOL    HW148063   6.536   9.956   6.850
15410SOL    HW248064   6.616  10.014   6.965
15411SOL     OW48065  10.886  14.661   7.988
15411SOL    HW148066  10.898  14.590   7.925
15411SOL    HW248067  10.973  14.673   8.027
15412SOL     OW48068  13.803  14.091   1.417
15412SOL    HW148069  13.804  14.078   1.511
15412SOL    HW248070  13.735  14.157   1.402
15413SOL     OW48071   4.764   0.703  14.247
15413SOL    HW148072   4.828   0.723  14.315
15413SOL    HW248073   4.680   0.700  14.293
15414SOL     OW48074  10.607  14.534  10.912
15414SOL    HW148075  10.629  14.459  10.857
15414SOL    HW248076  10.533  14.576  10.868
15415SOL     OW48077  14.576  13.401  10.320
15415SOL    HW148078  14.539  13.425  10.235
15415SOL    HW248079  14.520  13.330  10.352
15416SOL     OW48080   3.877   3.085   1.613
15416SOL    HW148081   3.973   3.085   1.616
15416SOL    HW248082   3.856   3.076   1.520
15417SOL     OW48083   7.143   0.853  12.979
15417SOL    HW148084   7.101   0.840  12.894
15417SOL    HW248085   7.094   0.798  13.039
15418SOL     OW48086   5.215  14.077   4.538
15418SOL    HW148087   5.132  14.123   4.522
15418SOL    HW248088   5.192  14.006   4.599
15419SOL     OW48089   3.883  10.641   2.280
15419SOL    HW148090   3.900  10.715   2.338
15419SOL    HW248091   3.939  10.571   2.313
15420SOL     OW48092  13.112   8.123   7.663
15420SOL    HW148093  13.195   8.121   7.712
15420SOL    HW248094  13.056   8.181   7.714
15421SOL     OW48095   4.577   3.854  11.825
15421SOL    HW148096   4.496   3.828  11.870
15421SOL    HW248097   4.594   3.942  11.858
15422SOL     OW48098   4.392   7.574   2.672
15422SOL    HW148099   4.392   7.531   2.586
15422SOL    HW248100   4.483   7.567   2.701
15423SOL     OW48101   9.592   4.958   5.005
15423SOL    HW148102   9.517   5.003   5.044
15423SOL    HW248103   9.639   4.919   5.079
15424SOL     OW48104  13.320   5.344  13.380
15424SOL    HW148105  13.284   5.430  13.359
15424SOL    HW248106  13.376   5.323  13.304
15425SOL     OW48107   2.839   4.348  11.708
15425SOL    HW148108   2.835   4.253  11.718
15425SOL    HW248109   2.807   4.364  11.619
15426SOL     OW48110   0.270   0.552  13.385
15426SOL    HW148111   0.358   0.562  13.349
15426SOL    HW248112   0.227   0.489  13.328
15427SOL     OW48113   4.796   2.782   3.792
15427SOL    HW148114   4.738   2.858   3.784
15427SOL    HW248115   4.884   2.818   3.793
15428SOL     OW48116   3.842  12.780  14.000
15428SOL    HW148117   3.831  12.797  13.907
15428SOL    HW248118   3.753  12.774  14.035
15429SOL     OW48119   2.211   3.777   3.905
15429SOL    HW148120   2.200   3.746   3.815
15429SOL    HW248121   2.295   3.822   3.905
15430SOL     OW48122  11.715   3.966  11.426
15430SOL    HW148123  11.644   3.902  11.430
15430SOL    HW248124  11.743   3.965  11.334
15431SOL     OW48125  14.749   1.844   5.685
15431SOL    HW148126  14.802   1.923   5.674
15431SOL    HW248127  14.797   1.792   5.749
15432SOL     OW48128  10.702  13.287   9.968
15432SOL    HW148129  10.734  13.344  10.039
15432SOL    HW248130  10.654  13.218  10.013
15433SOL     OW48131   0.957   5.905   5.331
15433SOL    HW148132   0.994   5.910   5.243
15433SOL    HW248133   1.034   5.898   5.388
15434SOL     OW48134   2.827  10.924  13.021
15434SOL    HW148135   2.852  11.009  13.057
15434SOL    HW248136   2.740  10.937  12.985
15435SOL     OW48137  11.206   4.024   6.833
15435SOL    HW148138  11.126   4.077   6.830
15435SOL    HW248139  11.258   4.055   6.758
15436SOL     OW48140  11.821   6.102  14.046
15436SOL    HW148141  11.752   6.051  14.087
15436SOL    HW248142  11.903   6.061  14.074
15437SOL     OW48143   8.671   5.658   0.814
15437SOL    HW148144   8.618   5.612   0.880
15437SOL    HW248145   8.651   5.612   0.732
15438SOL     OW48146   0.365  10.105   4.260
15438SOL    HW148147   0.307  10.134   4.190
15438SOL    HW248148   0.390  10.016   4.236
15439SOL     OW48149   7.819  10.464  13.550
15439SOL    HW148150   7.802  10.429  13.462
15439SOL    HW248151   7.744  10.436  13.602
15440SOL     OW48152  14.810  12.742   4.048
15440SOL    HW148153   0.014  12.789   4.048
15440SOL    HW248154  14.831  12.657   4.088
15441SOL     OW48155   4.111   3.524   1.808
15441SOL    HW148156   4.043   3.475   1.855
15441SOL    HW248157   4.191   3.506   1.857
15442SOL     OW48158  14.288   3.621  14.392
15442SOL    HW148159  14.289   3.714  14.416
15442SOL    HW248160  14.244   3.619  14.307
15443SOL     OW48161  11.439  12.507   6.023
15443SOL    HW148162  11.453  12.414   6.043
15443SOL    HW248163  11.511  12.529   5.964
15444SOL     OW48164  11.673   8.825   6.528
15444SOL    HW148165  11.757   8.867   6.509
15444SOL    HW248166  11.657   8.768   6.452
15445SOL     OW48167  14.122  13.727   4.866
15445SOL    HW148168  14.045  13.709   4.921
15445SOL    HW248169  14.107  13.815   4.833
15446SOL     OW48170   6.355  13.378   8.986
15446SOL    HW148171   6.392  13.445   9.044
15446SOL    HW248172   6.416  13.305   8.991
15447SOL     OW48173   0.404   0.172   7.557
15447SOL    HW148174   0.461   0.099   7.579
15447SOL    HW248175   0.432   0.199   7.469
15448SOL     OW48176  11.832   0.714  11.168
15448SOL    HW148177  11.763   0.777  11.150
15448SOL    HW248178  11.881   0.707  11.086
15449SOL     OW48179   6.753   7.815  14.359
15449SOL    HW148180   6.747   7.720  14.357
15449SOL    HW248181   6.847   7.833  14.359
15450SOL     OW48182   2.237  10.512   3.818
15450SOL    HW148183   2.205  10.601   3.805
15450SOL    HW248184   2.159  10.457   3.808
15451SOL     OW48185  12.113   6.288  11.825
15451SOL    HW148186  12.139   6.312  11.736
15451SOL    HW248187  12.052   6.215  11.813
15452SOL     OW48188   8.798   5.542  13.042
15452SOL    HW148189   8.852   5.607  12.996
15452SOL    HW248190   8.768   5.482  12.974
15453SOL     OW48191  14.210  12.625   7.591
15453SOL    HW148192  14.274  12.594   7.527
15453SOL    HW248193  14.153  12.684   7.541
15454SOL     OW48194   1.431  12.795   0.885
15454SOL    HW148195   1.359  12.840   0.929
15454SOL    HW248196   1.429  12.826   0.795
15455SOL     OW48197  10.387   7.623  13.558
15455SOL    HW148198  10.476   7.615  13.591
15455SOL    HW248199  10.367   7.537  13.522
15456SOL     OW48200  11.208   6.168   2.492
15456SOL    HW148201  11.301   6.190   2.503
15456SOL    HW248202  11.161   6.246   2.523
15457SOL     OW48203   3.112   3.241   2.716
15457SOL    HW148204   3.053   3.250   2.791
15457SOL    HW248205   3.185   3.190   2.749
15458SOL     OW48206   1.636   2.780  10.421
15458SOL    HW148207   1.581   2.709  10.387
15458SOL    HW248208   1.587   2.814  10.496
15459SOL     OW48209   3.834  14.489   8.988
15459SOL    HW148210   3.778  14.441   8.927
15459SOL    HW248211   3.923  14.470   8.958
15460SOL     OW48212   5.682  12.396   7.983
15460SOL    HW148213   5.595  12.365   8.009
15460SOL    HW248214   5.731  12.402   8.065
15461SOL     OW48215   3.168   8.204   7.531
15461SOL    HW148216   3.210   8.263   7.593
15461SOL    HW248217   3.161   8.255   7.450
15462SOL     OW48218   3.714   2.797  12.002
15462SOL    HW148219   3.670   2.713  11.986
15462SOL    HW248220   3.658   2.842  12.066
15463SOL     OW48221   4.670  13.522   6.516
15463SOL    HW148222   4.593  13.515   6.572
15463SOL    HW248223   4.675  13.616   6.495
15464SOL     OW48224   7.316   1.376   6.668
15464SOL    HW148225   7.348   1.286   6.668
15464SOL    HW248226   7.372   1.422   6.730
15465SOL     OW48227   4.979  11.385  10.373
15465SOL    HW148228   4.995  11.350  10.286
15465SOL    HW248229   5.063  11.422  10.400
15466SOL     OW48230  14.172   6.568  11.805
15466SOL    HW148231  14.236   6.513  11.850
15466SOL    HW248232  14.124   6.611  11.875
15467SOL     OW48233  12.948   5.474  13.288
15467SOL    HW148234  12.987   5.389  13.309
15467SOL    HW248235  12.916   5.465  13.198
15468SOL     OW48236  12.360  12.729  10.689
15468SOL    HW148237  12.327  12.755  10.602
15468SOL    HW248238  12.291  12.672  10.724
15469SOL     OW48239   2.647   6.944   1.035
15469SOL    HW148240   2.659   7.038   1.046
15469SOL    HW248241   2.557   6.935   1.001
15470SOL     OW48242  14.449   1.901  14.486
15470SOL    HW148243  14.483   1.824  14.531
15470SOL    HW248244  14.483   1.894  14.397
15471SOL     OW48245  14.767  11.520   7.928
15471SOL    HW148246  14.812  11.443   7.963
15471SOL    HW248247  14.810  11.537   7.845
15472SOL     OW48248  14.199  10.441  10.014
15472SOL    HW148249  14.120  10.420  10.064
15472SOL    HW248250  14.200  10.536  10.009
15473SOL     OW48251  10.150   7.839  13.963
15473SOL    HW148252  10.214   7.903  13.932
15473SOL    HW248253  10.181   7.755  13.930
15474SOL     OW48254   5.428  12.644   0.064
15474SOL    HW148255   5.448  12.693  14.864
15474SOL    HW248256   5.340  12.671   0.088
15475SOL     OW48257   6.689   5.596  14.236
15475SOL    HW148258   6.619   5.535  14.258
15475SOL    HW248259   6.764   5.565  14.288
15476SOL     OW48260   8.197   9.226  11.740
15476SOL    HW148261   8.173   9.252  11.652
15476SOL    HW248262   8.183   9.304  11.793
15477SOL     OW48263   7.120  14.055   3.426
15477SOL    HW148264   7.127  14.057   3.330
15477SOL    HW248265   7.061  13.982   3.444
15478SOL     OW48266   8.157   6.784   9.700
15478SOL    HW148267   8.097   6.836   9.755
15478SOL    HW248268   8.222   6.848   9.669
15479SOL     OW48269   0.707   4.802   0.073
15479SOL    HW148270   0.644   4.856   0.121
15479SOL    HW248271   0.711   4.840  14.865
15480SOL     OW48272   4.281  13.298   7.128
15480SOL    HW148273   4.367  13.258   7.140
15480SOL    HW248274   4.240  13.248   7.058
15481SOL     OW48275  12.111   1.498  10.220
15481SOL    HW148276  12.091   1.552  10.143
15481SOL    HW248277  12.203   1.476  10.210
15482SOL     OW48278   6.045   2.722  12.033
15482SOL    HW148279   6.021   2.749  12.121
15482SOL    HW248280   6.141   2.724  12.032
15483SOL     OW48281   7.632   1.826   2.937
15483SOL    HW148282   7.620   1.742   2.892
15483SOL    HW248283   7.584   1.888   2.883
15484SOL     OW48284  10.671   6.192   1.011
15484SOL    HW148285  10.715   6.189   0.927
15484SOL    HW248286  10.741   6.183   1.076
15485SOL     OW48287  14.274   8.861   8.935
15485SOL    HW148288  14.364   8.832   8.918
15485SOL    HW248289  14.235   8.870   8.848
15486SOL     OW48290   7.775  10.051   2.065
15486SOL    HW148291   7.812   9.978   2.117
15486SOL    HW248292   7.681  10.042   2.076
15487SOL     OW48293   9.161   3.986   7.034
15487SOL    HW148294   9.117   3.901   7.025
15487SOL    HW248295   9.253   3.963   7.048
15488SOL     OW48296   6.837   9.953   0.323
15488SOL    HW148297   6.761   9.930   0.269
15488SOL    HW248298   6.909   9.903   0.286
15489SOL     OW48299   4.689   6.357  14.788
15489SOL    HW148300   4.630   6.366  14.714
15489SOL    HW248301   4.741   6.437  14.787
15490SOL     OW48302   4.003  14.313   4.049
15490SOL    HW148303   3.923  14.276   4.012
15490SOL    HW248304   4.061  14.238   4.060
15491SOL     OW48305   9.552   6.619   8.828
15491SOL    HW148306   9.483   6.646   8.888
15491SOL    HW248307   9.631   6.660   8.864
15492SOL     OW48308  13.610  13.730  14.136
15492SOL    HW148309  13.590  13.721  14.043
15492SOL    HW248310  13.704  13.715  14.142
15493SOL     OW48311  13.328  11.518  11.215
15493SOL    HW148312  13.271  11.477  11.149
15493SOL    HW248313  13.301  11.610  11.216
15494SOL     OW48314   1.601  10.622  14.818
15494SOL    HW148315   1.664  10.560  14.855
15494SOL    HW248316   1.643  10.655  14.739
15495SOL     OW48317  10.063   9.288   8.253
15495SOL    HW148318  10.115   9.328   8.184
15495SOL    HW248319   9.972   9.308   8.231
15496SOL     OW48320   4.484   9.920   9.173
15496SOL    HW148321   4.497   9.828   9.196
15496SOL    HW248322   4.425   9.954   9.240
15497SOL     OW48323   0.511   3.768   7.287
15497SOL    HW148324   0.523   3.853   7.330
15497SOL    HW248325   0.482   3.790   7.198
15498SOL     OW48326   3.744   8.323   0.002
15498SOL    HW148327   3.670   8.326  14.821
15498SOL    HW248328   3.819   8.298  14.827
15499SOL     OW48329   9.975   6.932   2.136
15499SOL    HW148330   9.912   6.940   2.208
15499SOL    HW248331   9.923   6.902   2.062
15500SOL     OW48332  11.552  13.204  14.122
15500SOL    HW148333  11.611  13.279  14.114
15500SOL    HW248334  11.481  13.236  14.178
15501SOL     OW48335   6.388   6.305   7.384
15501SOL    HW148336   6.334   6.350   7.450
15501SOL    HW248337   6.473   6.348   7.389
15502SOL     OW48338  14.246   1.322   8.837
15502SOL    HW148339  14.158   1.320   8.874
15502SOL    HW248340  14.302   1.286   8.905
15503SOL     OW48341   7.884   4.687   6.118
15503SOL    HW148342   7.832   4.716   6.193
15503SOL    HW248343   7.952   4.631   6.155
15504SOL     OW48344   9.092  12.806   6.668
15504SOL    HW148345   9.122  12.789   6.757
15504SOL    HW248346   8.998  12.790   6.671
15505SOL     OW48347   7.081  13.228  12.275
15505SOL    HW148348   7.037  13.311  12.254
15505SOL    HW248349   7.174  13.248  12.267
15506SOL     OW48350  12.870   4.461   6.397
15506SOL    HW148351  12.911   4.386   6.441
15506SOL    HW248352  12.890   4.448   6.304
15507SOL     OW48353  12.936   3.212   5.910
15507SOL    HW148354  12.927   3.207   6.005
15507SOL    HW248355  13.010   3.155   5.889
15508SOL     OW48356   4.037   6.286   6.830
15508SOL    HW148357   3.991   6.359   6.788
15508SOL    HW248358   3.988   6.271   6.911
15509SOL     OW48359   5.901   1.709  12.957
15509SOL    HW148360   5.878   1.736  12.868
15509SOL    HW248361   5.979   1.761  12.977
15510SOL     OW48362   3.579   1.101  13.777
15510SOL    HW148363   3.606   1.134  13.862
15510SOL    HW248364   3.487   1.077  13.788
15511SOL     OW48365   8.638   5.122   7.643
15511SOL    HW148366   8.681   5.123   7.557
15511SOL    HW248367   8.614   5.030   7.656
15512SOL     OW48368   0.813   9.809  12.364
15512SOL    HW148369   0.871   9.741  12.399
15512SOL    HW248370   0.728   9.791  12.406
15513SOL     OW48371   4.172  12.945   8.807
15513SOL    HW148372   4.104  12.913   8.749
15513SOL    HW248373   4.248  12.959   8.750
15514SOL     OW48374   2.479   1.694   9.326
15514SOL    HW148375   2.569   1.727   9.325
15514SOL    HW248376   2.457   1.679   9.234
15515SOL     OW48377  13.259   3.080   5.156
15515SOL    HW148378  13.317   3.151   5.182
15515SOL    HW248379  13.264   3.018   5.229
15516SOL     OW48380   9.069   5.716   6.696
15516SOL    HW148381   9.134   5.785   6.712
15516SOL    HW248382   9.030   5.739   6.612
15517SOL     OW48383  13.106   7.324  13.458
15517SOL    HW148384  13.137   7.359  13.541
15517SOL    HW248385  13.032   7.379  13.434
15518SOL     OW48386   2.879  13.323  11.161
15518SOL    HW148387   2.955  13.303  11.107
15518SOL    HW248388   2.888  13.416  11.183
15519SOL     OW48389  10.556   6.830   7.346
15519SOL    HW148390  10.573   6.901   7.408
15519SOL    HW248391  10.610   6.758   7.377
15520SOL     OW48392  14.535  12.603   1.626
15520SOL    HW148393  14.530  12.606   1.721
15520SOL    HW248394  14.556  12.512   1.606
15521SOL     OW48395  12.710  11.816   9.056
15521SOL    HW148396  12.794  11.776   9.034
15521SOL    HW248397  12.684  11.774   9.138
15522SOL     OW48398  10.953  10.542   2.803
15522SOL    HW148399  10.944  10.456   2.844
15522SOL    HW248400  10.889  10.542   2.732
15523SOL     OW48401   5.560   5.835   0.190
15523SOL    HW148402   5.610   5.886   0.126
15523SOL    HW248403   5.527   5.760   0.140
15524SOL     OW48404  12.375   6.652   6.723
15524SOL    HW148405  12.388   6.728   6.667
15524SOL    HW248406  12.281   6.650   6.740
15525SOL     OW48407  11.611  14.492  10.653
15525SOL    HW148408  11.536  14.439  10.627
15525SOL    HW248409  11.580  14.541  10.730
15526SOL     OW48410   8.760   5.786  10.293
15526SOL    HW148411   8.727   5.782  10.203
15526SOL    HW248412   8.732   5.872  10.325
15527SOL     OW48413  12.205   6.701   0.840
15527SOL    HW148414  12.179   6.785   0.880
15527SOL    HW248415  12.126   6.670   0.796
15528SOL     OW48416  10.845   2.155   6.465
15528SOL    HW148417  10.804   2.154   6.379
15528SOL    HW248418  10.826   2.069   6.502
15529SOL     OW48419   4.481   4.732   1.860
15529SOL    HW148420   4.522   4.656   1.819
15529SOL    HW248421   4.468   4.794   1.788
15530SOL     OW48422   7.278  13.347  11.701
15530SOL    HW148423   7.325  13.300  11.770
15530SOL    HW248424   7.346  13.398  11.656
15531SOL     OW48425   1.714  13.962   0.719
15531SOL    HW148426   1.643  13.933   0.776
15531SOL    HW248427   1.693  14.054   0.700
15532SOL     OW48428   6.325   9.773   8.337
15532SOL    HW148429   6.338   9.785   8.243
15532SOL    HW248430   6.249   9.828   8.357
15533SOL     OW48431   4.804   0.348   7.084
15533SOL    HW148432   4.800   0.415   7.016
15533SOL    HW248433   4.872   0.379   7.145
15534SOL     OW48434   9.133   5.384   3.883
15534SOL    HW148435   9.117   5.308   3.938
15534SOL    HW248436   9.046   5.414   3.858
15535SOL     OW48437   6.069   8.589  12.530
15535SOL    HW148438   6.146   8.633  12.494
15535SOL    HW248439   5.997   8.615  12.472
15536SOL     OW48440   7.859   9.608   7.668
15536SOL    HW148441   7.768   9.593   7.695
15536SOL    HW248442   7.855   9.610   7.573
15537SOL     OW48443  14.824   8.288   3.523
15537SOL    HW148444   0.001   8.270   3.448
15537SOL    HW248445  14.791   8.202   3.549
15538SOL     OW48446   7.731   4.397   2.343
15538SOL    HW148447   7.794   4.325   2.336
15538SOL    HW248448   7.758   4.446   2.420
15539SOL     OW48449   2.203   3.299  14.048
15539SOL    HW148450   2.117   3.263  14.069
15539SOL    HW248451   2.263   3.224  14.053
15540SOL     OW48452   9.345  13.100   2.220
15540SOL    HW148453   9.438  13.099   2.197
15540SOL    HW248454   9.326  13.192   2.239
15541SOL     OW48455   5.379   7.156   0.468
15541SOL    HW148456   5.367   7.099   0.392
15541SOL    HW248457   5.389   7.244   0.432
15542SOL     OW48458   3.847  14.422  14.291
15542SOL    HW148459   3.785  14.357  14.324
15542SOL    HW248460   3.835  14.422  14.196
15543SOL     OW48461   2.597   4.588  11.023
15543SOL    HW148462   2.613   4.572  11.116
15543SOL    HW248463   2.665   4.649  10.996
15544SOL     OW48464  12.999   7.971  12.894
15544SOL    HW148465  13.071   7.977  12.832
15544SOL    HW248466  12.934   8.034  12.861
15545SOL     OW48467   7.031  13.022   8.619
15545SOL    HW148468   7.032  12.975   8.702
15545SOL    HW248469   6.940  13.049   8.608
15546SOL     OW48470   7.929   6.563   3.637
15546SOL    HW148471   7.907   6.617   3.713
15546SOL    HW248472   7.995   6.502   3.669
15547SOL     OW48473   1.472   2.052   2.544
15547SOL    HW148474   1.495   2.068   2.635
15547SOL    HW248475   1.423   2.130   2.517
15548SOL     OW48476   7.705   4.468   0.882
15548SOL    HW148477   7.708   4.374   0.865
15548SOL    HW248478   7.796   4.494   0.894
15549SOL     OW48479   5.004   3.078   1.938
15549SOL    HW148480   4.997   3.152   1.998
15549SOL    HW248481   5.084   3.095   1.888
15550SOL     OW48482   2.931  13.394   1.747
15550SOL    HW148483   2.896  13.309   1.774
15550SOL    HW248484   3.025  13.380   1.738
15551SOL     OW48485   6.587   4.375   3.762
15551SOL    HW148486   6.579   4.464   3.796
15551SOL    HW248487   6.532   4.323   3.820
15552SOL     OW48488  12.965  13.177   3.893
15552SOL    HW148489  13.023  13.139   3.960
15552SOL    HW248490  12.977  13.121   3.816
15553SOL     OW48491   2.710   5.563   6.205
15553SOL    HW148492   2.767   5.534   6.275
15553SOL    HW248493   2.722   5.498   6.136
15554SOL     OW48494  10.505  10.982   1.537
15554SOL    HW148495  10.562  10.906   1.539
15554SOL    HW248496  10.564  11.057   1.530
15555SOL     OW48497   2.812   0.182   3.332
15555SOL    HW148498   2.723   0.149   3.338
15555SOL    HW248499   2.804   0.261   3.278
15556SOL     OW48500   5.347   9.303   2.995
15556SOL    HW148501   5.314   9.217   3.022
15556SOL    HW248502   5.340   9.358   3.073
15557SOL     OW48503   9.702   1.323  11.771
15557SOL    HW148504   9.690   1.241  11.724
15557SOL    HW248505   9.616   1.365  11.769
15558SOL     OW48506   9.468  12.107   0.311
15558SOL    HW148507   9.507  12.191   0.285
15558SOL    HW248508   9.387  12.131   0.356
15559SOL     OW48509   4.127  12.527   2.855
15559SOL    HW148510   4.177  12.520   2.936
15559SOL    HW248511   4.131  12.620   2.833
15560SOL     OW48512   5.766  11.387   2.098
15560SOL    HW148513   5.718  11.469   2.094
15560SOL    HW248514   5.838  11.405   2.160
15561SOL     OW48515  12.143   0.958  13.835
15561SOL    HW148516  12.110   0.882  13.787
15561SOL    HW248517  12.211   0.995  13.779
15562SOL     OW48518   9.422  11.538  13.793
15562SOL    HW148519   9.480  11.463  13.780
15562SOL    HW248520   9.474  11.600  13.845
15563SOL     OW48521  11.297   7.821  13.283
15563SOL    HW148522  11.361   7.884  13.252
15563SOL    HW248523  11.217   7.872  13.297
15564SOL     OW48524   2.927   3.683   6.527
15564SOL    HW148525   2.944   3.705   6.435
15564SOL    HW248526   2.866   3.750   6.556
15565SOL     OW48527  11.284  10.110  14.089
15565SOL    HW148528  11.218  10.068  14.033
15565SOL    HW248529  11.342  10.039  14.115
15566SOL     OW48530  11.949   5.457   4.863
15566SOL    HW148531  11.885   5.522   4.834
15566SOL    HW248532  11.896   5.387   4.900
15567SOL     OW48533   6.491   8.844   0.429
15567SOL    HW148534   6.507   8.913   0.494
15567SOL    HW248535   6.448   8.774   0.479
15568SOL     OW48536   8.662   0.986   1.155
15568SOL    HW148537   8.602   0.944   1.217
15568SOL    HW248538   8.698   0.914   1.104
15569SOL     OW48539  10.975   4.165   5.962
15569SOL    HW148540  10.970   4.205   5.875
15569SOL    HW248541  11.062   4.123   5.963
15570SOL     OW48542   2.586   3.675   3.537
15570SOL    HW148543   2.575   3.594   3.588
15570SOL    HW248544   2.651   3.725   3.586
15571SOL     OW48545   9.899   1.885  14.379
15571SOL    HW148546   9.912   1.895  14.285
15571SOL    HW248547   9.877   1.974  14.410
15572SOL     OW48548  14.747  14.251  13.931
15572SOL    HW148549  14.799  14.186  13.977
15572SOL    HW248550  14.786  14.335  13.956
15573SOL     OW48551   8.972   1.874   8.284
15573SOL    HW148552   8.953   1.817   8.358
15573SOL    HW248553   9.010   1.816   8.218
15574SOL     OW48554  12.118   5.780   9.899
15574SOL    HW148555  12.075   5.754   9.817
15574SOL    HW248556  12.154   5.867   9.880
15575SOL     OW48557   5.966   6.664   5.594
15575SOL    HW148558   5.983   6.677   5.500
15575SOL    HW248559   6.036   6.606   5.623
15576SOL     OW48560   1.692  10.163  12.187
15576SOL    HW148561   1.688  10.222  12.112
15576SOL    HW248562   1.663  10.078  12.153
15577SOL     OW48563   5.137   0.495  12.901
15577SOL    HW148564   5.190   0.493  12.981
15577SOL    HW248565   5.046   0.495  12.932
15578SOL     OW48566   9.685   1.902   9.954
15578SOL    HW148567   9.756   1.924  10.015
15578SOL    HW248568   9.720   1.831   9.901
15579SOL     OW48569   6.029   6.793   1.698
15579SOL    HW148570   6.025   6.889   1.696
15579SOL    HW248571   5.977   6.769   1.775
15580SOL     OW48572   3.343   6.513   5.394
15580SOL    HW148573   3.401   6.463   5.451
15580SOL    HW248574   3.268   6.455   5.378
15581SOL     OW48575  12.144   1.920   5.704
15581SOL    HW148576  12.081   1.852   5.729
15581SOL    HW248577  12.101   2.002   5.730
15582SOL     OW48578   1.469   4.876   9.730
15582SOL    HW148579   1.415   4.945   9.769
15582SOL    HW248580   1.408   4.824   9.678
15583SOL     OW48581   2.415   5.934   0.744
15583SOL    HW148582   2.476   5.881   0.795
15583SOL    HW248583   2.405   5.888   0.661
15584SOL     OW48584   3.540   9.603  14.377
15584SOL    HW148585   3.602   9.536  14.405
15584SOL    HW248586   3.546   9.603  14.281
15585SOL     OW48587   7.003  14.264   2.501
15585SOL    HW148588   7.083  14.240   2.548
15585SOL    HW248589   7.034  14.287   2.413
15586SOL     OW48590   0.605   2.932  10.406
15586SOL    HW148591   0.527   2.986  10.397
15586SOL    HW248592   0.677   2.987  10.374
15587SOL     OW48593   1.097   5.585   5.852
15587SOL    HW148594   1.040   5.635   5.793
15587SOL    HW248595   1.137   5.652   5.909
15588SOL     OW48596   7.890   8.073   1.136
15588SOL    HW148597   7.863   8.054   1.046
15588SOL    HW248598   7.965   8.132   1.127
15589SOL     OW48599   7.175   1.424  13.620
15589SOL    HW148600   7.133   1.452  13.702
15589SOL    HW248601   7.124   1.348  13.591
15590SOL     OW48602   1.663  10.891   6.489
15590SOL    HW148603   1.691  10.801   6.504
15590SOL    HW248604   1.716  10.921   6.415
15591SOL     OW48605   8.075   1.574   0.182
15591SOL    HW148606   8.041   1.661   0.159
15591SOL    HW248607   7.997   1.521   0.197
15592SOL     OW48608   0.268   8.995   6.164
15592SOL    HW148609   0.255   9.002   6.069
15592SOL    HW248610   0.299   8.905   6.177
15593SOL     OW48611  12.587   6.806   0.971
15593SOL    HW148612  12.631   6.791   0.888
15593SOL    HW248613  12.551   6.895   0.963
15594SOL     OW48614   1.163  11.474  11.278
15594SOL    HW148615   1.112  11.549  11.306
15594SOL    HW248616   1.224  11.458  11.351
15595SOL     OW48617  14.372   3.047  11.157
15595SOL    HW148618  14.400   3.000  11.236
15595SOL    HW248619  14.303   3.106  11.187
15596SOL     OW48620   2.666   6.083   4.656
15596SOL    HW148621   2.726   6.044   4.593
15596SOL    HW248622   2.721   6.110   4.729
15597SOL     OW48623   8.007  12.626   5.326
15597SOL    HW148624   7.955  12.643   5.248
15597SOL    HW248625   8.034  12.535   5.317
15598SOL     OW48626   7.227   6.821   2.537
15598SOL    HW148627   7.292   6.752   2.535
15598SOL    HW248628   7.256   6.879   2.608
15599SOL     OW48629   9.945   8.744   8.094
15599SOL    HW148630  10.006   8.817   8.085
15599SOL    HW248631   9.920   8.724   8.004
15600SOL     OW48632   8.159  14.192   9.020
15600SOL    HW148633   8.105  14.118   9.046
15600SOL    HW248634   8.115  14.229   8.944
15601SOL     OW48635   9.854   8.792   2.819
15601SOL    HW148636   9.872   8.886   2.818
15601SOL    HW248637   9.929   8.753   2.774
15602SOL     OW48638  10.152  12.000  12.769
15602SOL    HW148639  10.061  11.994  12.799
15602SOL    HW248640  10.146  12.033  12.679
15603SOL     OW48641   1.621  14.517  12.206
15603SOL    HW148642   1.582  14.527  12.119
15603SOL    HW248643   1.715  14.524  12.190
15604SOL     OW48644   4.155   1.969   1.295
15604SOL    HW148645   4.093   2.023   1.246
15604SOL    HW248646   4.241   2.002   1.269
15605SOL     OW48647   9.199   0.611  14.347
15605SOL    HW148648   9.201   0.696  14.392
15605SOL    HW248649   9.276   0.611  14.291
15606SOL     OW48650   5.540  11.147   5.703
15606SOL    HW148651   5.510  11.210   5.636
15606SOL    HW248652   5.551  11.065   5.655
15607SOL     OW48653   8.817   4.780   5.745
15607SOL    HW148654   8.847   4.868   5.723
15607SOL    HW248655   8.741   4.794   5.803
15608SOL     OW48656   2.019   3.286  14.345
15608SOL    HW148657   1.957   3.264  14.414
15608SOL    HW248658   1.970   3.276  14.263
15609SOL     OW48659   1.337  12.592   0.019
15609SOL    HW148660   1.273  12.523   0.037
15609SOL    HW248661   1.377  12.566  14.815
15610SOL     OW48662   9.028  10.900   9.080
15610SOL    HW148663   9.001  10.989   9.102
15610SOL    HW248664   9.116  10.892   9.116
15611SOL     OW48665   8.783   5.254  14.511
15611SOL    HW148666   8.737   5.180  14.552
15611SOL    HW248667   8.741   5.263  14.426
15612SOL     OW48668  11.800   2.061   9.421
15612SOL    HW148669  11.726   2.047   9.363
15612SOL    HW248670  11.877   2.042   9.367
15613SOL     OW48671   8.639   6.933   6.495
15613SOL    HW148672   8.656   6.858   6.552
15613SOL    HW248673   8.691   7.004   6.533
15614SOL     OW48674   8.604   0.736   2.790
15614SOL    HW148675   8.567   0.649   2.808
15614SOL    HW248676   8.673   0.719   2.726
15615SOL     OW48677   5.614   7.846   6.692
15615SOL    HW148678   5.522   7.865   6.676
15615SOL    HW248679   5.658   7.931   6.687
15616SOL     OW48680  12.452   2.962   7.046
15616SOL    HW148681  12.435   3.043   6.997
15616SOL    HW248682  12.514   2.914   6.992
15617SOL     OW48683   8.675   7.387   1.664
15617SOL    HW148684   8.683   7.292   1.659
15617SOL    HW248685   8.652   7.404   1.755
15618SOL     OW48686   5.778   5.368  11.027
15618SOL    HW148687   5.706   5.304  11.018
15618SOL    HW248688   5.746   5.446  10.982
15619SOL     OW48689   9.411   1.993  14.432
15619SOL    HW148690   9.415   2.071  14.377
15619SOL    HW248691   9.406   2.027  14.522
15620SOL     OW48692   4.226  11.452  14.683
15620SOL    HW148693   4.267  11.393  14.747
15620SOL    HW248694   4.178  11.394  14.624
15621SOL     OW48695   2.795   6.209  12.889
15621SOL    HW148696   2.748   6.128  12.870
15621SOL    HW248697   2.735   6.278  12.862
15622SOL     OW48698   3.859  14.086   0.823
15622SOL    HW148699   3.944  14.080   0.866
15622SOL    HW248700   3.880  14.092   0.730
15623SOL     OW48701  14.487  14.545  11.466
15623SOL    HW148702  14.415  14.599  11.435
15623SOL    HW248703  14.451  14.498  11.542
15624SOL     OW48704   5.849   6.229   6.783
15624SOL    HW148705   5.785   6.240   6.854
15624SOL    HW248706   5.926   6.278   6.812
15625SOL     OW48707  12.572   2.210  11.877
15625SOL    HW148708  12.658   2.172  11.859
15625SOL    HW248709  12.540   2.239  11.791
15626SOL     OW48710   3.559   8.934   0.044
15626SOL    HW148711   3.551   8.983  14.842
15626SOL    HW248712   3.474   8.943   0.087
15627SOL     OW48713   4.612  12.644  13.875
15627SOL    HW148714   4.569  12.645  13.790
15627SOL    HW248715   4.549  12.688  13.934
15628SOL     OW48716  11.678   1.636   2.018
15628SOL    HW148717  11.726   1.613   2.098
15628SOL    HW248718  11.590   1.602   2.033
15629SOL     OW48719  12.034   9.268  14.551
15629SOL    HW148720  11.986   9.345  14.583
15629SOL    HW248721  12.124   9.299  14.540
15630SOL     OW48722   2.114   5.865  10.420
15630SOL    HW148723   2.047   5.803  10.394
15630SOL    HW248724   2.066   5.936  10.463
15631SOL     OW48725   2.176   6.249   9.072
15631SOL    HW148726   2.257   6.266   9.120
15631SOL    HW248727   2.117   6.319   9.098
15632SOL     OW48728   3.279  13.602   6.029
15632SOL    HW148729   3.359  13.637   5.992
15632SOL    HW248730   3.211  13.625   5.966
15633SOL     OW48731   4.530   1.746   1.235
15633SOL    HW148732   4.610   1.787   1.268
15633SOL    HW248733   4.560   1.679   1.174
15634SOL     OW48734  14.108  12.690  13.948
15634SOL    HW148735  14.073  12.771  13.911
15634SOL    HW248736  14.152  12.718  14.029
15635SOL     OW48737  11.393  12.274  13.571
15635SOL    HW148738  11.430  12.249  13.487
15635SOL    HW248739  11.346  12.356  13.553
15636SOL     OW48740   4.503   5.499   3.282
15636SOL    HW148741   4.551   5.447   3.218
15636SOL    HW248742   4.496   5.443   3.359
15637SOL     OW48743   5.761  11.187   8.546
15637SOL    HW148744   5.788  11.245   8.475
15637SOL    HW248745   5.843  11.155   8.584
15638SOL     OW48746   8.365  14.710   9.511
15638SOL    HW148747   8.330  14.695   9.599
15638SOL    HW248748   8.441  14.653   9.505
15639SOL     OW48749   0.081   4.089   4.019
15639SOL    HW148750   0.025   4.028   3.971
15639SOL    HW248751   0.136   4.129   3.952
15640SOL     OW48752   8.511   6.305   3.066
15640SOL    HW148753   8.557   6.330   3.145
15640SOL    HW248754   8.576   6.314   2.996
15641SOL     OW48755   5.929   5.751  13.590
15641SOL    HW148756   5.967   5.798  13.664
15641SOL    HW248757   5.840   5.732  13.618
15642SOL     OW48758   9.116   1.119   9.521
15642SOL    HW148759   9.041   1.097   9.576
15642SOL    HW248760   9.102   1.069   9.441
15643SOL     OW48761   4.553   4.489   7.314
15643SOL    HW148762   4.619   4.420   7.312
15643SOL    HW248763   4.509   4.482   7.229
15644SOL     OW48764  14.236   7.373  14.517
15644SOL    HW148765  14.302   7.312  14.550
15644SOL    HW248766  14.158   7.319  14.504
15645SOL     OW48767   3.757   9.887   9.561
15645SOL    HW148768   3.824   9.956   9.560
15645SOL    HW248769   3.675   9.933   9.544
15646SOL     OW48770   0.448   5.689  11.244
15646SOL    HW148771   0.436   5.732  11.329
15646SOL    HW248772   0.497   5.753  11.192
15647SOL     OW48773  10.477  12.129  14.399
15647SOL    HW148774  10.453  12.036  14.391
15647SOL    HW248775  10.530  12.147  14.322
15648SOL     OW48776   7.582   0.132  10.249
15648SOL    HW148777   7.588   0.057  10.190
15648SOL    HW248778   7.623   0.204  10.202
15649SOL     OW48779   7.593  11.158  12.084
15649SOL    HW148780   7.527  11.117  12.141
15649SOL    HW248781   7.599  11.098  12.009
15650SOL     OW48782   3.917   0.005   3.279
15650SOL    HW148783   3.883  14.835   3.204
15650SOL    HW248784   3.860   0.082   3.285
15651SOL     OW48785   1.819   6.757  10.717
15651SOL    HW148786   1.845   6.701  10.790
15651SOL    HW248787   1.881   6.736  10.648
15652SOL     OW48788  12.312   2.208   3.849
15652SOL    HW148789  12.395   2.242   3.818
15652SOL    HW248790  12.334   2.125   3.893
15653SOL     OW48791  12.089   4.418   0.493
15653SOL    HW148792  12.045   4.389   0.413
15653SOL    HW248793  12.141   4.342   0.520
15654SOL     OW48794  12.535   5.208   1.390
15654SOL    HW148795  12.472   5.146   1.428
15654SOL    HW248796  12.529   5.192   1.295
15655SOL     OW48797  11.127   6.849  13.139
15655SOL    HW148798  11.097   6.855  13.230
15655SOL    HW248799  11.195   6.917  13.132
15656SOL     OW48800  11.421   7.919   6.375
15656SOL    HW148801  11.377   7.976   6.439
15656SOL    HW248802  11.490   7.974   6.338
15657SOL     OW48803  12.886   3.163  13.338
15657SOL    HW148804  12.807   3.197  13.380
15657SOL    HW248805  12.951   3.232  13.352
15658SOL     OW48806   0.687   7.893   6.789
15658SOL    HW148807   0.621   7.933   6.732
15658SOL    HW248808   0.665   7.800   6.790
15659SOL     OW48809  11.517  10.782  10.720
15659SOL    HW148810  11.605  10.774  10.758
15659SOL    HW248811  11.520  10.864  10.671
15660SOL     OW48812  10.726   3.466  12.415
15660SOL    HW148813  10.646   3.498  12.456
15660SOL    HW248814  10.783   3.543  12.410
15661SOL     OW48815   0.479   9.843   6.284
15661SOL    HW148816   0.508   9.873   6.370
15661SOL    HW248817   0.512   9.909   6.223
15662SOL     OW48818   1.557   4.678   8.165
15662SOL    HW148819   1.491   4.747   8.155
15662SOL    HW248820   1.616   4.712   8.232
15663SOL     OW48821   3.312   5.787   8.220
15663SOL    HW148822   3.290   5.705   8.175
15663SOL    HW248823   3.244   5.848   8.194
15664SOL     OW48824   9.563   0.138   6.079
15664SOL    HW148825   9.559   0.211   6.017
15664SOL    HW248826   9.507   0.165   6.152
15665SOL     OW48827   6.119   9.356   7.418
15665SOL    HW148828   6.165   9.388   7.495
15665SOL    HW248829   6.076   9.275   7.448
15666SOL     OW48830  13.806   6.976   0.807
15666SOL    HW148831  13.717   7.010   0.815
15666SOL    HW248832  13.800   6.908   0.739
15667SOL     OW48833   8.680  13.877   0.136
15667SOL    HW148834   8.729  13.914   0.209
15667SOL    HW248835   8.743  13.823   0.089
15668SOL     OW48836  12.415  13.916  12.479
15668SOL    HW148837  12.325  13.886  12.488
15668SOL    HW248838  12.420  13.994  12.534
15669SOL     OW48839   3.864  12.511   8.557
15669SOL    HW148840   3.799  12.445   8.534
15669SOL    HW248841   3.859  12.518   8.652
15670SOL     OW48842   3.667   3.369  11.368
15670SOL    HW148843   3.696   3.377  11.458
15670SOL    HW248844   3.747   3.376  11.316
15671SOL     OW48845   2.364   3.311   9.297
15671SOL    HW148846   2.312   3.259   9.236
15671SOL    HW248847   2.423   3.248   9.339
15672SOL     OW48848   6.397   2.906   3.194
15672SOL    HW148849   6.326   2.858   3.152
15672SOL    HW248850   6.434   2.844   3.257
15673SOL     OW48851   6.311  12.437  10.140
15673SOL    HW148852   6.373  12.485  10.194
15673SOL    HW248853   6.301  12.489  10.061
15674SOL     OW48854   3.651  14.395  12.566
15674SOL    HW148855   3.611  14.411  12.481
15674SOL    HW248856   3.636  14.476  12.616
15675SOL     OW48857   4.805   7.986   7.745
15675SOL    HW148858   4.851   8.006   7.827
15675SOL    HW248859   4.713   7.977   7.771
15676SOL     OW48860   0.916   6.321  14.145
15676SOL    HW148861   0.940   6.385  14.078
15676SOL    HW248862   0.949   6.238  14.111
15677SOL     OW48863   5.736  10.100   4.180
15677SOL    HW148864   5.791  10.178   4.171
15677SOL    HW248865   5.696  10.110   4.267
15678SOL     OW48866   8.972   3.199   5.501
15678SOL    HW148867   8.887   3.186   5.544
15678SOL    HW248868   8.981   3.124   5.443
15679SOL     OW48869   3.336   3.410   2.793
15679SOL    HW148870   3.354   3.476   2.725
15679SOL    HW248871   3.241   3.404   2.796
15680SOL     OW48872   2.377  14.410   5.951
15680SOL    HW148873   2.355  14.499   5.922
15680SOL    HW248874   2.419  14.422   6.036
15681SOL     OW48875   5.574   9.111  12.738
15681SOL    HW148876   5.605   9.134  12.825
15681SOL    HW248877   5.481   9.134  12.738
15682SOL     OW48878   6.348   4.983   4.965
15682SOL    HW148879   6.411   5.040   5.009
15682SOL    HW248880   6.297   5.042   4.909
15683SOL     OW48881   7.367   4.035   7.539
15683SOL    HW148882   7.285   4.011   7.582
15683SOL    HW248883   7.398   3.953   7.500
15684SOL     OW48884   4.811  12.173   4.905
15684SOL    HW148885   4.746  12.242   4.920
15684SOL    HW248886   4.801  12.150   4.813
15685SOL     OW48887   1.594   1.338  13.093
15685SOL    HW148888   1.620   1.269  13.032
15685SOL    HW248889   1.677   1.377  13.121
15686SOL     OW48890  14.741   6.667   8.618
15686SOL    HW148891  14.777   6.755   8.613
15686SOL    HW248892  14.692   6.665   8.700
15687SOL     OW48893   8.034   9.708  11.152
15687SOL    HW148894   8.029   9.663  11.236
15687SOL    HW248895   7.960   9.769  11.153
15688SOL     OW48896  11.877  14.619   0.502
15688SOL    HW148897  11.904  14.707   0.525
15688SOL    HW248898  11.785  14.615   0.528
15689SOL     OW48899  11.872  14.561   8.161
15689SOL    HW148900  11.923  14.642   8.166
15689SOL    HW248901  11.817  14.572   8.084
15690SOL     OW48902   4.548   9.122  13.161
15690SOL    HW148903   4.591   9.043  13.194
15690SOL    HW248904   4.601   9.150  13.087
15691SOL     OW48905  13.465   5.601  12.442
15691SOL    HW148906  13.455   5.696  12.447
15691SOL    HW248907  13.390   5.572  12.390
15692SOL     OW48908  12.070   5.294  11.322
15692SOL    HW148909  11.994   5.315  11.376
15692SOL    HW248910  12.101   5.210  11.356
15693SOL     OW48911  13.578   1.395  11.088
15693SOL    HW148912  13.548   1.334  11.021
15693SOL    HW248913  13.674   1.384  11.089
15694SOL     OW48914  14.741   4.610   7.284
15694SOL    HW148915  14.773   4.566   7.206
15694SOL    HW248916  14.813   4.667   7.311
15695SOL     OW48917  12.760  10.663   0.733
15695SOL    HW148918  12.699  10.669   0.660
15695SOL    HW248919  12.815  10.588   0.713
15696SOL     OW48920  10.981  14.815  13.471
15696SOL    HW148921  11.064  14.815  13.422
15696SOL    HW248922  10.963  14.723  13.487
15697SOL     OW48923   3.998   4.541   8.322
15697SOL    HW148924   4.044   4.625   8.318
15697SOL    HW248925   4.049   4.483   8.265
15698SOL     OW48926   1.038   9.386   2.903
15698SOL    HW148927   1.004   9.355   2.987
15698SOL    HW248928   1.117   9.436   2.926
15699SOL     OW48929  10.890   5.205   2.760
15699SOL    HW148930  10.860   5.208   2.669
15699SOL    HW248931  10.914   5.113   2.773
15700SOL     OW48932  13.852   7.457  13.664
15700SOL    HW148933  13.883   7.527  13.607
15700SOL    HW248934  13.931   7.423  13.705
15701SOL     OW48935   2.280   7.373  12.614
15701SOL    HW148936   2.216   7.442  12.628
15701SOL    HW248937   2.325   7.399  12.533
15702SOL     OW48938   8.663   0.047  14.446
15702SOL    HW148939   8.587   0.102  14.428
15702SOL    HW248940   8.739   0.103  14.430
15703SOL     OW48941   3.222   1.258   0.324
15703SOL    HW148942   3.294   1.219   0.373
15703SOL    HW248943   3.187   1.326   0.383
15704SOL     OW48944   4.692  11.602   1.942
15704SOL    HW148945   4.727  11.622   2.028
15704SOL    HW248946   4.768  11.573   1.891
15705SOL     OW48947  12.681  13.726  14.812
15705SOL    HW148948  12.739  13.710  14.737
15705SOL    HW248949  12.683  13.821  14.825
15706SOL     OW48950  10.792  11.612   8.388
15706SOL    HW148951  10.751  11.677   8.445
15706SOL    HW248952  10.850  11.663   8.331
15707SOL     OW48953   5.403   8.730   0.476
15707SOL    HW148954   5.380   8.705   0.386
15707SOL    HW248955   5.334   8.692   0.530
15708SOL     OW48956   1.776   7.414   7.913
15708SOL    HW148957   1.824   7.387   7.834
15708SOL    HW248958   1.799   7.347   7.978
15709SOL     OW48959  12.559  14.004   3.886
15709SOL    HW148960  12.635  13.951   3.909
15709SOL    HW248961  12.496  13.987   3.955
15710SOL     OW48962   5.890   1.618   5.153
15710SOL    HW148963   5.819   1.668   5.114
15710SOL    HW248964   5.847   1.561   5.217
15711SOL     OW48965   4.151  11.542  13.965
15711SOL    HW148966   4.159  11.582  14.052
15711SOL    HW248967   4.232  11.493  13.954
15712SOL     OW48968   3.402   0.527   5.898
15712SOL    HW148969   3.335   0.500   5.835
15712SOL    HW248970   3.466   0.456   5.897
15713SOL     OW48971   4.543   3.938   9.352
15713SOL    HW148972   4.488   3.994   9.407
15713SOL    HW248973   4.482   3.894   9.294
15714SOL     OW48974   3.692   1.319   3.931
15714SOL    HW148975   3.598   1.309   3.947
15714SOL    HW248976   3.732   1.294   4.014
15715SOL     OW48977  10.428   3.893  14.547
15715SOL    HW148978  10.400   3.983  14.567
15715SOL    HW248979  10.484   3.903  14.470
15716SOL     OW48980  13.994  10.552   4.837
15716SOL    HW148981  13.968  10.592   4.754
15716SOL    HW248982  14.082  10.586   4.853
15717SOL     OW48983  13.707   8.768  10.634
15717SOL    HW148984  13.772   8.827  10.598
15717SOL    HW248985  13.724   8.769  10.729
15718SOL     OW48986  11.145  13.738   8.699
15718SOL    HW148987  11.152  13.827   8.664
15718SOL    HW248988  11.083  13.746   8.772
15719SOL     OW48989   7.637   0.563  12.455
15719SOL    HW148990   7.588   0.630  12.408
15719SOL    HW248991   7.569   0.504  12.489
15720SOL     OW48992   1.113   4.158   6.791
15720SOL    HW148993   1.191   4.177   6.738
15720SOL    HW248994   1.141   4.092   6.853
15721SOL     OW48995   5.375   1.130   8.889
15721SOL    HW148996   5.315   1.085   8.949
15721SOL    HW248997   5.336   1.217   8.877
15722SOL     OW48998   4.269   9.827   0.217
15722SOL    HW148999   4.280   9.918   0.245
15722SOL    HW249000   4.316   9.821   0.134
15723SOL     OW49001   1.748  13.226   5.352
15723SOL    HW149002   1.792  13.239   5.436
15723SOL    HW249003   1.750  13.131   5.338
15724SOL     OW49004   1.379   5.256   5.612
15724SOL    HW149005   1.297   5.290   5.649
15724SOL    HW249006   1.357   5.167   5.584
15725SOL     OW49007  12.098   7.209  12.378
15725SOL    HW149008  12.170   7.218  12.440
15725SOL    HW249009  12.138   7.225  12.292
15726SOL     OW49010  10.096   7.016  10.339
15726SOL    HW149011  10.110   7.110  10.349
15726SOL    HW249012  10.133   6.995  10.254
15727SOL     OW49013  12.722   2.602   6.294
15727SOL    HW149014  12.626   2.600   6.294
15727SOL    HW249015  12.745   2.610   6.386
15728SOL     OW49016   2.736  10.492  11.733
15728SOL    HW149017   2.720  10.507  11.826
15728SOL    HW249018   2.798  10.560  11.708
15729SOL     OW49019   7.874   8.136  12.247
15729SOL    HW149020   7.940   8.142  12.178
15729SOL    HW249021   7.802   8.190  12.216
15730SOL     OW49022  13.464   5.733   2.770
15730SOL    HW149023  13.496   5.693   2.689
15730SOL    HW249024  13.429   5.818   2.743
15731SOL     OW49025   5.895  12.030   6.143
15731SOL    HW149026   5.919  12.117   6.175
15731SOL    HW249027   5.865  11.983   6.220
15732SOL     OW49028   9.674  14.430   6.299
15732SOL    HW149029   9.639  14.406   6.213
15732SOL    HW249030   9.682  14.347   6.346
15733SOL     OW49031  12.477   6.614   5.818
15733SOL    HW149032  12.504   6.705   5.827
15733SOL    HW249033  12.489   6.577   5.906
15734SOL     OW49034   5.939   1.323  14.639
15734SOL    HW149035   5.972   1.311  14.728
15734SOL    HW249036   5.921   1.234  14.608
15735SOL     OW49037   7.031   3.501   4.338
15735SOL    HW149038   6.948   3.463   4.365
15735SOL    HW249039   7.038   3.582   4.389
15736SOL     OW49040  10.743   7.846  10.717
15736SOL    HW149041  10.741   7.775  10.781
15736SOL    HW249042  10.729   7.925  10.769
15737SOL     OW49043  10.968  11.531  14.717
15737SOL    HW149044  10.989  11.506  14.627
15737SOL    HW249045  11.047  11.576  14.748
15738SOL     OW49046  11.512  12.533   7.067
15738SOL    HW149047  11.474  12.549   7.154
15738SOL    HW249048  11.436  12.530   7.009
15739SOL     OW49049   3.663  10.663   8.610
15739SOL    HW149050   3.625  10.632   8.527
15739SOL    HW249051   3.740  10.713   8.583
15740SOL     OW49052  13.452  11.227   9.781
15740SOL    HW149053  13.467  11.134   9.762
15740SOL    HW249054  13.531  11.271   9.749
15741SOL     OW49055   7.440   7.968  12.088
15741SOL    HW149056   7.431   7.881  12.049
15741SOL    HW249057   7.508   8.010  12.036
15742SOL     OW49058   8.156   2.283   7.281
15742SOL    HW149059   8.097   2.235   7.224
15742SOL    HW249060   8.240   2.283   7.236
15743SOL     OW49061  11.656   3.640   6.535
15743SOL    HW149062  11.585   3.577   6.541
15743SOL    HW249063  11.699   3.620   6.452
15744SOL     OW49064   0.477   7.535   2.093
15744SOL    HW149065   0.388   7.559   2.067
15744SOL    HW249066   0.485   7.566   2.183
15745SOL     OW49067  13.586   9.576   4.948
15745SOL    HW149068  13.656   9.513   4.936
15745SOL    HW249069  13.595   9.636   4.874
15746SOL     OW49070   5.825   2.714   7.899
15746SOL    HW149071   5.823   2.697   7.993
15746SOL    HW249072   5.876   2.642   7.862
15747SOL     OW49073  11.224   0.584  11.762
15747SOL    HW149074  11.182   0.569  11.846
15747SOL    HW249075  11.310   0.542  11.770
15748SOL     OW49076   3.491  10.649  13.570
15748SOL    HW149077   3.517  10.557  13.577
15748SOL    HW249078   3.570  10.692  13.536
15749SOL     OW49079  10.800   3.446  13.984
15749SOL    HW149080  10.861   3.377  13.958
15749SOL    HW249081  10.847   3.498  14.049
15750SOL     OW49082   0.037   6.413   6.218
15750SOL    HW149083   0.094   6.434   6.292
15750SOL    HW249084   0.083   6.343   6.172
15751SOL     OW49085   1.546   4.432   0.289
15751SOL    HW149086   1.493   4.423   0.369
15751SOL    HW249087   1.592   4.349   0.281
15752SOL     OW49088   9.354  11.278  10.912
15752SOL    HW149089   9.283  11.319  10.960
15752SOL    HW249090   9.423  11.267  10.978
15753SOL     OW49091   9.015   1.386   3.401
15753SOL    HW149092   8.954   1.451   3.435
15753SOL    HW249093   8.998   1.384   3.307
15754SOL     OW49094   5.881   4.219   3.842
15754SOL    HW149095   5.865   4.267   3.923
15754SOL    HW249096   5.935   4.279   3.790
15755SOL     OW49097  11.941   6.215   6.903
15755SOL    HW149098  12.018   6.157   6.899
15755SOL    HW249099  11.870   6.164   6.865
15756SOL     OW49100   2.360  12.144   5.907
15756SOL    HW149101   2.373  12.130   6.001
15756SOL    HW249102   2.441  12.114   5.867
15757SOL     OW49103  13.514   5.528   1.731
15757SOL    HW149104  13.578   5.554   1.665
15757SOL    HW249105  13.560   5.540   1.814
15758SOL     OW49106  11.747   6.919   7.079
15758SOL    HW149107  11.804   6.872   7.140
15758SOL    HW249108  11.730   6.855   7.009
15759SOL     OW49109   7.709   4.608   6.323
15759SOL    HW149110   7.662   4.527   6.346
15759SOL    HW249111   7.776   4.617   6.391
15760SOL     OW49112  13.561   9.557  11.631
15760SOL    HW149113  13.530   9.647  11.642
15760SOL    HW249114  13.651   9.559  11.663
15761SOL     OW49115  11.041   9.348   3.596
15761SOL    HW149116  11.053   9.387   3.510
15761SOL    HW249117  10.965   9.291   3.586
15762SOL     OW49118   8.766   1.059  14.029
15762SOL    HW149119   8.822   1.126  14.067
15762SOL    HW249120   8.806   1.040  13.944
15763SOL     OW49121   1.236   1.365   1.441
15763SOL    HW149122   1.307   1.330   1.495
15763SOL    HW249123   1.264   1.454   1.420
15764SOL     OW49124   5.936  10.732   0.818
15764SOL    HW149125   6.026  10.756   0.795
15764SOL    HW249126   5.946  10.671   0.892
15765SOL     OW49127  12.924   0.805   2.114
15765SOL    HW149128  12.962   0.722   2.084
15765SOL    HW249129  12.991   0.842   2.171
15766SOL     OW49130   2.408   1.805   1.915
15766SOL    HW149131   2.438   1.887   1.953
15766SOL    HW249132   2.487   1.762   1.883
15767SOL     OW49133  14.025   5.042   0.525
15767SOL    HW149134  13.964   5.112   0.501
15767SOL    HW249135  14.020   4.979   0.453
15768SOL     OW49136   1.983   3.996   4.909
15768SOL    HW149137   1.998   4.075   4.961
15768SOL    HW249138   1.988   3.924   4.972
15769SOL     OW49139   9.095   7.375   4.789
15769SOL    HW149140   9.039   7.298   4.798
15769SOL    HW249141   9.043   7.446   4.827
15770SOL     OW49142   4.892  10.897   7.724
15770SOL    HW149143   4.983  10.920   7.704
15770SOL    HW249144   4.842  10.927   7.648
15771SOL     OW49145   8.275   1.319   8.432
15771SOL    HW149146   8.195   1.284   8.473
15771SOL    HW249147   8.275   1.281   8.345
15772SOL     OW49148  13.498   9.097   6.350
15772SOL    HW149149  13.449   9.064   6.426
15772SOL    HW249150  13.431   9.115   6.284
15773SOL     OW49151   6.389   5.163   1.568
15773SOL    HW149152   6.329   5.137   1.498
15773SOL    HW249153   6.339   5.150   1.649
15774SOL     OW49154  10.412  12.311  11.441
15774SOL    HW149155  10.363  12.257  11.378
15774SOL    HW249156  10.348  12.376  11.471
15775SOL     OW49157   2.520   6.082   9.908
15775SOL    HW149158   2.535   6.032   9.827
15775SOL    HW249159   2.433   6.119   9.899
15776SOL     OW49160  11.946  11.324   7.982
15776SOL    HW149161  11.949  11.346   7.889
15776SOL    HW249162  11.931  11.230   7.985
15777SOL     OW49163   0.649   7.987   5.893
15777SOL    HW149164   0.566   7.986   5.846
15777SOL    HW249165   0.661   8.079   5.918
15778SOL     OW49166   1.395  12.730  13.227
15778SOL    HW149167   1.411  12.648  13.180
15778SOL    HW249168   1.475  12.745  13.277
15779SOL     OW49169   6.864   4.494   8.503
15779SOL    HW149170   6.892   4.405   8.483
15779SOL    HW249171   6.793   4.482   8.567
15780SOL     OW49172   5.526  10.222   9.815
15780SOL    HW149173   5.618  10.219   9.790
15780SOL    HW249174   5.523  10.289   9.884
15781SOL     OW49175  10.807   6.087  12.490
15781SOL    HW149176  10.732   6.035  12.519
15781SOL    HW249177  10.873   6.076  12.559
15782SOL     OW49178   3.938  12.684  11.404
15782SOL    HW149179   4.026  12.647  11.408
15782SOL    HW249180   3.892  12.645  11.480
15783SOL     OW49181   6.122  10.760   6.984
15783SOL    HW149182   6.108  10.781   6.892
15783SOL    HW249183   6.082  10.832   7.032
15784SOL     OW49184  14.329   5.497  13.829
15784SOL    HW149185  14.394   5.427  13.836
15784SOL    HW249186  14.343   5.551  13.907
15785SOL     OW49187   5.219   7.952  13.433
15785SOL    HW149188   5.235   7.911  13.518
15785SOL    HW249189   5.300   7.998  13.412
15786SOL     OW49190   0.231   5.824   7.484
15786SOL    HW149191   0.321   5.835   7.453
15786SOL    HW249192   0.179   5.818   7.404
15787SOL     OW49193  11.245  14.337  13.999
15787SOL    HW149194  11.299  14.334  14.078
15787SOL    HW249195  11.217  14.247  13.985
15788SOL     OW49196   2.567  14.869   3.362
15788SOL    HW149197   2.515   0.012   3.440
15788SOL    HW249198   2.537  14.782   3.337
15789SOL     OW49199   9.363   7.131   6.262
15789SOL    HW149200   9.280   7.120   6.309
15789SOL    HW249201   9.352   7.212   6.213
15790SOL     OW49202  10.480  10.642   1.349
15790SOL    HW149203  10.511  10.677   1.432
15790SOL    HW249204  10.553  10.653   1.289
15791SOL     OW49205  13.464  13.049  12.432
15791SOL    HW149206  13.496  13.131  12.396
15791SOL    HW249207  13.487  12.983  12.366
15792SOL     OW49208   3.979   6.500   6.112
15792SOL    HW149209   3.894   6.542   6.100
15792SOL    HW249210   3.991   6.448   6.032
15793SOL     OW49211   9.217   6.427  11.666
15793SOL    HW149212   9.164   6.380  11.602
15793SOL    HW249213   9.155   6.452  11.734
15794SOL     OW49214   8.935  12.899  12.767
15794SOL    HW149215   8.869  12.963  12.792
15794SOL    HW249216   9.008  12.951  12.734
15795SOL     OW49217  13.450   0.325   6.337
15795SOL    HW149218  13.427   0.283   6.420
15795SOL    HW249219  13.398   0.279   6.271
15796SOL     OW49220   3.479  13.977  11.471
15796SOL    HW149221   3.411  13.919  11.504
15796SOL    HW249222   3.557  13.922  11.467
15797SOL     OW49223   9.488   1.504   3.789
15797SOL    HW149224   9.404   1.549   3.779
15797SOL    HW249225   9.551   1.563   3.747
15798SOL     OW49226  13.570   4.334  14.032
15798SOL    HW149227  13.617   4.287  13.964
15798SOL    HW249228  13.578   4.278  14.110
15799SOL     OW49229   1.096   0.477   1.743
15799SOL    HW149230   1.111   0.388   1.711
15799SOL    HW249231   1.172   0.496   1.799
15800SOL     OW49232   9.474   6.825   9.232
15800SOL    HW149233   9.396   6.774   9.208
15800SOL    HW249234   9.459   6.911   9.194
15801SOL     OW49235   9.604   1.082   7.987
15801SOL    HW149236   9.613   0.988   8.000
15801SOL    HW249237   9.510   1.097   7.978
15802SOL     OW49238   0.273  14.586   3.123
15802SOL    HW149239   0.200  14.584   3.061
15802SOL    HW249240   0.241  14.638   3.197
15803SOL     OW49241   8.071   1.796  11.226
15803SOL    HW149242   8.019   1.721  11.256
15803SOL    HW249243   8.132   1.759  11.162
15804SOL     OW49244  10.531  13.995  10.452
15804SOL    HW149245  10.530  14.073  10.508
15804SOL    HW249246  10.540  13.922  10.514
15805SOL     OW49247   7.569   6.954   4.313
15805SOL    HW149248   7.500   7.010   4.278
15805SOL    HW249249   7.575   6.978   4.406
15806SOL     OW49250   9.127   3.002   7.951
15806SOL    HW149251   9.215   3.036   7.964
15806SOL    HW249252   9.077   3.077   7.919
15807SOL     OW49253   3.522   9.706   9.859
15807SOL    HW149254   3.491   9.773   9.920
15807SOL    HW249255   3.455   9.701   9.792
15808SOL     OW49256   5.412  12.898   0.412
15808SOL    HW149257   5.493  12.910   0.462
15808SOL    HW249258   5.399  12.982   0.368
15809SOL     OW49259   3.168  12.906   7.238
15809SOL    HW149260   3.078  12.928   7.260
15809SOL    HW249261   3.203  12.865   7.317
15810SOL     OW49262   1.662  12.775   8.442
15810SOL    HW149263   1.627  12.688   8.465
15810SOL    HW249264   1.585  12.827   8.422
15811SOL     OW49265   6.060   5.939   1.469
15811SOL    HW149266   6.144   5.894   1.463
15811SOL    HW249267   6.083   6.031   1.479
15812SOL     OW49268   4.682   0.698   5.328
15812SOL    HW149269   4.704   0.605   5.331
15812SOL    HW249270   4.594   0.701   5.292
15813SOL     OW49271   6.713  13.659   9.043
15813SOL    HW149272   6.732  13.710   8.964
15813SOL    HW249273   6.789  13.602   9.054
15814SOL     OW49274   8.668  14.462   9.750
15814SOL    HW149275   8.725  14.530   9.787
15814SOL    HW249276   8.579  14.495   9.765
15815SOL     OW49277   7.289  13.029  14.126
15815SOL    HW149278   7.264  13.116  14.096
15815SOL    HW249279   7.243  12.969  14.068
15816SOL     OW49280  13.281  11.217  12.333
15816SOL    HW149281  13.228  11.150  12.289
15816SOL    HW249282  13.236  11.299  12.312
15817SOL     OW49283   2.923   8.212   4.079
15817SOL    HW149284   2.889   8.149   4.143
15817SOL    HW249285   2.972   8.158   4.016
15818SOL     OW49286   1.617   8.539   2.803
15818SOL    HW149287   1.529   8.542   2.840
15818SOL    HW249288   1.613   8.596   2.726
15819SOL     OW49289   9.167   1.703  12.527
15819SOL    HW149290   9.161   1.764  12.454
15819SOL    HW249291   9.260   1.704  12.552
15820SOL     OW49292  10.663  11.272   2.236
15820SOL    HW149293  10.607  11.240   2.166
15820SOL    HW249294  10.609  11.266   2.315
15821SOL     OW49295  11.239   3.526   1.334
15821SOL    HW149296  11.241   3.611   1.291
15821SOL    HW249297  11.199   3.468   1.269
15822SOL     OW49298  11.026   7.199   7.669
15822SOL    HW149299  11.075   7.118   7.665
15822SOL    HW249300  10.967   7.188   7.743
15823SOL     OW49301   0.504   7.121   6.741
15823SOL    HW149302   0.413   7.121   6.769
15823SOL    HW249303   0.539   7.205   6.771
15824SOL     OW49304   9.774  13.357  10.043
15824SOL    HW149305   9.722  13.317   9.973
15824SOL    HW249306   9.837  13.413   9.997
15825SOL     OW49307   1.173  14.043   7.944
15825SOL    HW149308   1.227  14.000   7.878
15825SOL    HW249309   1.149  14.127   7.904
15826SOL     OW49310   7.769  12.366   9.868
15826SOL    HW149311   7.803  12.329   9.787
15826SOL    HW249312   7.675  12.348   9.865
15827SOL     OW49313   4.577  13.881  12.083
15827SOL    HW149314   4.514  13.935  12.131
15827SOL    HW249315   4.539  13.871  11.996
15828SOL     OW49316  11.522  10.657   1.954
15828SOL    HW149317  11.588  10.660   2.024
15828SOL    HW249318  11.524  10.745   1.915
15829SOL     OW49319   1.725  12.539   5.737
15829SOL    HW149320   1.703  12.625   5.772
15829SOL    HW249321   1.729  12.482   5.814
15830SOL     OW49322  14.441  11.217  13.732
15830SOL    HW149323  14.441  11.280  13.804
15830SOL    HW249324  14.355  11.175  13.737
15831SOL     OW49325  13.593   5.822   0.192
15831SOL    HW149326  13.544   5.903   0.210
15831SOL    HW249327  13.615   5.828   0.100
15832SOL     OW49328   9.964   1.198  10.683
15832SOL    HW149329   9.987   1.186  10.591
15832SOL    HW249330  10.045   1.176  10.730
15833SOL     OW49331   5.200  10.287   7.748
15833SOL    HW149332   5.278  10.295   7.692
15833SOL    HW249333   5.179  10.377   7.772
15834SOL     OW49334   6.216   0.994   5.315
15834SOL    HW149335   6.193   0.903   5.297
15834SOL    HW249336   6.261   1.023   5.236
15835SOL     OW49337   9.374   0.335   4.227
15835SOL    HW149338   9.355   0.285   4.306
15835SOL    HW249339   9.459   0.302   4.197
15836SOL     OW49340  12.660   5.368  12.756
15836SOL    HW149341  12.571   5.402  12.757
15836SOL    HW249342  12.669   5.325  12.671
15837SOL     OW49343   1.819  13.895   8.117
15837SOL    HW149344   1.891  13.907   8.056
15837SOL    HW249345   1.861  13.871   8.200
15838SOL     OW49346   3.206  14.691   7.002
15838SOL    HW149347   3.298  14.686   7.028
15838SOL    HW249348   3.209  14.697   6.907
15839SOL     OW49349  14.763   9.099  14.340
15839SOL    HW149350  14.809   9.174  14.378
15839SOL    HW249351  14.809   9.022  14.375
15840SOL     OW49352   0.068   4.669   5.644
15840SOL    HW149353   0.051   4.693   5.735
15840SOL    HW249354   0.025   4.738   5.593
15841SOL     OW49355   3.569   2.243   0.357
15841SOL    HW149356   3.610   2.246   0.271
15841SOL    HW249357   3.625   2.295   0.414
15842SOL     OW49358   7.114   5.013  11.323
15842SOL    HW149359   7.208   5.026  11.335
15842SOL    HW249360   7.087   5.088  11.269
15843SOL     OW49361   7.461  12.936   2.395
15843SOL    HW149362   7.537  12.903   2.443
15843SOL    HW249363   7.470  12.900   2.307
15844SOL     OW49364   2.199   2.853   3.148
15844SOL    HW149365   2.139   2.837   3.076
15844SOL    HW249366   2.172   2.791   3.216
15845SOL     OW49367   8.842   9.975  13.852
15845SOL    HW149368   8.794  10.058  13.862
15845SOL    HW249369   8.927   9.991  13.891
15846SOL     OW49370   0.607  14.768   0.418
15846SOL    HW149371   0.675  14.744   0.481
15846SOL    HW249372   0.529  14.721   0.449
15847SOL     OW49373   6.352   8.068  12.055
15847SOL    HW149374   6.350   8.053  11.961
15847SOL    HW249375   6.303   8.149  12.068
15848SOL     OW49376   8.338  14.304   3.186
15848SOL    HW149377   8.313  14.332   3.274
15848SOL    HW249378   8.258  14.314   3.134
15849SOL     OW49379   1.151   6.282   1.112
15849SOL    HW149380   1.230   6.246   1.154
15849SOL    HW249381   1.084   6.215   1.125
15850SOL     OW49382   1.681   6.167   8.578
15850SOL    HW149383   1.767   6.199   8.551
15850SOL    HW249384   1.695   6.074   8.597
15851SOL     OW49385  14.845   4.523  11.946
15851SOL    HW149386  14.843   4.522  12.042
15851SOL    HW249387  14.756   4.496  11.920
15852SOL     OW49388   4.912   6.342   8.719
15852SOL    HW149389   4.831   6.326   8.767
15852SOL    HW249390   4.884   6.347   8.627
15853SOL     OW49391  10.715   3.261   6.214
15853SOL    HW149392  10.811   3.266   6.213
15853SOL    HW249393  10.694   3.210   6.292
15854SOL     OW49394  10.129   9.551  14.717
15854SOL    HW149395  10.174   9.625  14.758
15854SOL    HW249396  10.050   9.590  14.679
15855SOL     OW49397   2.295   9.006  11.847
15855SOL    HW149398   2.376   9.049  11.873
15855SOL    HW249399   2.226   9.053  11.894
15856SOL     OW49400   3.367   6.382  10.495
15856SOL    HW149401   3.368   6.477  10.486
15856SOL    HW249402   3.446   6.352  10.451
15857SOL     OW49403  13.841   3.109   7.354
15857SOL    HW149404  13.836   3.133   7.261
15857SOL    HW249405  13.838   3.192   7.401
15858SOL     OW49406   3.248   8.934   8.712
15858SOL    HW149407   3.189   8.859   8.720
15858SOL    HW249408   3.225   8.973   8.627
15859SOL     OW49409   1.192   6.850   0.513
15859SOL    HW149410   1.152   6.933   0.486
15859SOL    HW249411   1.213   6.863   0.606
15860SOL     OW49412   5.773   3.282   3.957
15860SOL    HW149413   5.739   3.206   3.911
15860SOL    HW249414   5.728   3.356   3.916
15861SOL     OW49415   3.765   2.340   7.196
15861SOL    HW149416   3.848   2.337   7.148
15861SOL    HW249417   3.728   2.425   7.175
15862SOL     OW49418   9.111   8.367   0.657
15862SOL    HW149419   9.160   8.440   0.695
15862SOL    HW249420   9.139   8.291   0.708
15863SOL     OW49421   1.314   7.395   8.021
15863SOL    HW149422   1.275   7.333   7.960
15863SOL    HW249423   1.383   7.345   8.066
15864SOL     OW49424   2.280  11.488  10.502
15864SOL    HW149425   2.362  11.536  10.493
15864SOL    HW249426   2.307  11.397  10.516
15865SOL     OW49427  14.700   7.658  14.017
15865SOL    HW149428  14.745   7.671  14.101
15865SOL    HW249429  14.740   7.720  13.958
15866SOL     OW49430   2.677   4.717   3.153
15866SOL    HW149431   2.750   4.744   3.098
15866SOL    HW249432   2.650   4.797   3.198
15867SOL     OW49433  13.436   1.678   4.558
15867SOL    HW149434  13.455   1.735   4.483
15867SOL    HW249435  13.436   1.590   4.522
15868SOL     OW49436   5.294   5.836   7.015
15868SOL    HW149437   5.232   5.798   7.077
15868SOL    HW249438   5.328   5.761   6.966
15869SOL     OW49439   3.374  14.786  14.350
15869SOL    HW149440   3.383  14.741  14.434
15869SOL    HW249441   3.280  14.783  14.331
15870SOL     OW49442   4.189  14.561  14.568
15870SOL    HW149443   4.107  14.560  14.519
15870SOL    HW249444   4.256  14.547  14.502
15871SOL     OW49445   4.684   2.289   6.657
15871SOL    HW149446   4.634   2.349   6.601
15871SOL    HW249447   4.618   2.227   6.689
15872SOL     OW49448   8.700  10.762  14.871
15872SOL    HW149449   8.752  10.684  14.854
15872SOL    HW249450   8.742  10.804   0.067
15873SOL     OW49451   8.487  12.251   8.604
15873SOL    HW149452   8.444  12.193   8.666
15873SOL    HW249453   8.529  12.192   8.541
15874SOL     OW49454   3.270   4.339   0.414
15874SOL    HW149455   3.277   4.366   0.506
15874SOL    HW249456   3.176   4.342   0.396
15875SOL     OW49457  12.581  13.742   4.352
15875SOL    HW149458  12.610  13.831   4.332
15875SOL    HW249459  12.586  13.696   4.269
15876SOL     OW49460  13.151  12.305   4.136
15876SOL    HW149461  13.199  12.234   4.094
15876SOL    HW249462  13.215  12.376   4.144
15877SOL     OW49463  12.539   3.190   2.426
15877SOL    HW149464  12.449   3.180   2.395
15877SOL    HW249465  12.533   3.258   2.494
15878SOL     OW49466   8.498   4.039   9.532
15878SOL    HW149467   8.580   4.045   9.484
15878SOL    HW249468   8.489   3.946   9.553
15879SOL     OW49469  11.793  13.792  12.495
15879SOL    HW149470  11.798  13.834  12.580
15879SOL    HW249471  11.727  13.723  12.505
15880SOL     OW49472  12.716   2.722   5.691
15880SOL    HW149473  12.634   2.726   5.740
15880SOL    HW249474  12.774   2.783   5.738
15881SOL     OW49475   3.768  12.541   9.613
15881SOL    HW149476   3.729  12.576   9.693
15881SOL    HW249477   3.848  12.497   9.642
15882SOL     OW49478   2.012   7.083  12.996
15882SOL    HW149479   2.079   7.017  12.982
15882SOL    HW249480   2.053   7.165  12.969
15883SOL     OW49481   3.540   7.779   9.619
15883SOL    HW149482   3.513   7.833   9.694
15883SOL    HW249483   3.631   7.756   9.638
15884SOL     OW49484   4.315   4.856  13.523
15884SOL    HW149485   4.402   4.896  13.516
15884SOL    HW249486   4.259   4.927  13.554
15885SOL     OW49487  10.235   7.130   2.978
15885SOL    HW149488  10.323   7.160   2.954
15885SOL    HW249489  10.247   7.037   3.000
15886SOL     OW49490   0.982   0.875  14.030
15886SOL    HW149491   0.958   0.908  14.117
15886SOL    HW249492   1.076   0.890  14.023
15887SOL     OW49493   8.639   4.191   8.021
15887SOL    HW149494   8.560   4.148   7.987
15887SOL    HW249495   8.611   4.232   8.102
15888SOL     OW49496  11.994   9.086   5.754
15888SOL    HW149497  11.988   9.181   5.741
15888SOL    HW249498  11.942   9.049   5.683
15889SOL     OW49499   5.548   4.932  13.237
15889SOL    HW149500   5.486   4.984  13.185
15889SOL    HW249501   5.631   4.939  13.190
15890SOL     OW49502   2.722   9.353   3.275
15890SOL    HW149503   2.768   9.401   3.344
15890SOL    HW249504   2.778   9.362   3.198
15891SOL     OW49505  12.372   0.842   5.922
15891SOL    HW149506  12.364   0.923   5.871
15891SOL    HW249507  12.439   0.792   5.876
15892SOL     OW49508   4.849  14.108   9.314
15892SOL    HW149509   4.824  14.142   9.228
15892SOL    HW249510   4.858  14.014   9.301
15893SOL     OW49511   1.173  12.969   7.816
15893SOL    HW149512   1.185  13.059   7.785
15893SOL    HW249513   1.087  12.943   7.781
15894SOL     OW49514   9.986   6.472   8.682
15894SOL    HW149515  10.013   6.558   8.713
15894SOL    HW249516  10.052   6.412   8.717
15895SOL     OW49517   8.025  11.676   9.290
15895SOL    HW149518   8.013  11.581   9.298
15895SOL    HW249519   8.058  11.703   9.376
15896SOL     OW49520   5.130   3.950   4.031
15896SOL    HW149521   5.099   3.873   3.984
15896SOL    HW249522   5.178   4.001   3.966
15897SOL     OW49523   5.406   5.608   0.027
15897SOL    HW149524   5.465   5.546  14.864
15897SOL    HW249525   5.324   5.559   0.039
15898SOL     OW49526   2.244   8.090   6.689
15898SOL    HW149527   2.333   8.105   6.721
15898SOL    HW249528   2.257   8.064   6.598
15899SOL     OW49529   0.727   0.386   8.645
15899SOL    HW149530   0.822   0.378   8.630
15899SOL    HW249531   0.700   0.457   8.587
15900SOL     OW49532   5.673   6.077   2.613
15900SOL    HW149533   5.643   6.140   2.547
15900SOL    HW249534   5.761   6.052   2.584
15901SOL     OW49535  14.203   3.327  10.953
15901SOL    HW149536  14.244   3.355  10.872
15901SOL    HW249537  14.275   3.316  11.015
15902SOL     OW49538   9.496  11.926  13.752
15902SOL    HW149539   9.522  12.012  13.783
15902SOL    HW249540   9.575  11.873  13.755
15903SOL     OW49541  11.939   1.367   0.863
15903SOL    HW149542  11.859   1.391   0.909
15903SOL    HW249543  11.916   1.375   0.770
15904SOL     OW49544   3.076   7.226  10.620
15904SOL    HW149545   3.030   7.259  10.543
15904SOL    HW249546   3.055   7.288  10.690
15905SOL     OW49547  10.249   1.545   4.891
15905SOL    HW149548  10.187   1.475   4.872
15905SOL    HW249549  10.256   1.544   4.987
15906SOL     OW49550   9.052   6.439   1.891
15906SOL    HW149551   8.974   6.432   1.836
15906SOL    HW249552   9.125   6.444   1.830
15907SOL     OW49553   2.059  14.503  11.044
15907SOL    HW149554   2.107  14.505  10.962
15907SOL    HW249555   1.974  14.541  11.023
15908SOL     OW49556   6.388   8.171  13.778
15908SOL    HW149557   6.453   8.102  13.793
15908SOL    HW249558   6.423   8.248  13.824
15909SOL     OW49559   8.409  12.248  12.255
15909SOL    HW149560   8.349  12.272  12.185
15909SOL    HW249561   8.383  12.159  12.279
15910SOL     OW49562   3.914   6.767   8.181
15910SOL    HW149563   3.846   6.785   8.245
15910SOL    HW249564   3.867   6.740   8.103
15911SOL     OW49565  11.179   5.589  12.909
15911SOL    HW149566  11.168   5.519  12.973
15911SOL    HW249567  11.273   5.587  12.887
15912SOL     OW49568   7.159   7.683  12.494
15912SOL    HW149569   7.223   7.726  12.551
15912SOL    HW249570   7.075   7.696  12.538
15913SOL     OW49571   7.987  12.341  13.879
15913SOL    HW149572   7.937  12.270  13.919
15913SOL    HW249573   8.078  12.312  13.881
15914SOL     OW49574   1.466  13.365  12.820
15914SOL    HW149575   1.468  13.460  12.833
15914SOL    HW249576   1.536  13.348  12.757
15915SOL     OW49577   0.521  10.245   9.985
15915SOL    HW149578   0.503  10.212   9.897
15915SOL    HW249579   0.452  10.309  10.001
15916SOL     OW49580   1.683   1.391   0.628
15916SOL    HW149581   1.710   1.425   0.714
15916SOL    HW249582   1.674   1.469   0.574
15917SOL     OW49583  11.648   8.443   8.948
15917SOL    HW149584  11.687   8.457   9.035
15917SOL    HW249585  11.593   8.520   8.934
15918SOL     OW49586  12.785   6.599  14.834
15918SOL    HW149587  12.806   6.624   0.045
15918SOL    HW249588  12.700   6.555  14.841
15919SOL     OW49589   8.964   2.377  10.858
15919SOL    HW149590   8.953   2.337  10.771
15919SOL    HW249591   9.059   2.385  10.868
15920SOL     OW49592  13.181   7.580  12.511
15920SOL    HW149593  13.133   7.497  12.511
15920SOL    HW249594  13.157   7.622  12.593
15921SOL     OW49595   8.466  14.499   7.718
15921SOL    HW149596   8.388  14.483   7.771
15921SOL    HW249597   8.474  14.420   7.663
15922SOL     OW49598  13.189   0.675  14.413
15922SOL    HW149599  13.228   0.644  14.495
15922SOL    HW249600  13.251   0.739  14.379
15923SOL     OW49601   6.956   9.924   3.876
15923SOL    HW149602   6.987   9.848   3.826
15923SOL    HW249603   6.996   9.914   3.962
15924SOL     OW49604  13.901  12.458   6.446
15924SOL    HW149605  13.949  12.505   6.514
15924SOL    HW249606  13.966  12.439   6.379
15925SOL     OW49607   1.382   5.912   1.553
15925SOL    HW149608   1.336   5.969   1.492
15925SOL    HW249609   1.462   5.887   1.507
15926SOL     OW49610  10.910   6.793  14.184
15926SOL    HW149611  10.835   6.744  14.152
15926SOL    HW249612  10.957   6.731  14.240
15927SOL     OW49613   3.229  12.168   5.484
15927SOL    HW149614   3.246  12.144   5.393
15927SOL    HW249615   3.250  12.090   5.534
15928SOL     OW49616   0.558   6.677  10.612
15928SOL    HW149617   0.496   6.714  10.675
15928SOL    HW249618   0.616   6.751  10.589
15929SOL     OW49619   8.211   1.785   0.669
15929SOL    HW149620   8.226   1.796   0.575
15929SOL    HW249621   8.207   1.690   0.682
15930SOL     OW49622   2.668  11.935  11.862
15930SOL    HW149623   2.734  11.876  11.828
15930SOL    HW249624   2.648  11.902  11.949
15931SOL     OW49625   4.688   7.634   1.023
15931SOL    HW149626   4.694   7.539   1.017
15931SOL    HW249627   4.777   7.663   1.044
15932SOL     OW49628   4.227   7.356   2.998
15932SOL    HW149629   4.189   7.440   3.022
15932SOL    HW249630   4.304   7.348   3.055
15933SOL     OW49631  10.923   2.858   5.585
15933SOL    HW149632  10.969   2.938   5.613
15933SOL    HW249633  10.947   2.848   5.493
15934SOL     OW49634   5.406  12.530  10.700
15934SOL    HW149635   5.351  12.480  10.760
15934SOL    HW249636   5.451  12.594  10.754
15935SOL     OW49637   2.566  11.853  14.599
15935SOL    HW149638   2.626  11.789  14.635
15935SOL    HW249639   2.541  11.907  14.674
15936SOL     OW49640  10.156  13.606   3.466
15936SOL    HW149641  10.109  13.688   3.448
15936SOL    HW249642  10.166  13.605   3.561
15937SOL     OW49643   4.455   3.568   8.664
15937SOL    HW149644   4.499   3.652   8.676
15937SOL    HW249645   4.397   3.560   8.740
15938SOL     OW49646  11.792  10.714   7.276
15938SOL    HW149647  11.704  10.728   7.312
15938SOL    HW249648  11.791  10.623   7.248
15939SOL     OW49649   8.150   0.543   5.921
15939SOL    HW149650   8.237   0.507   5.941
15939SOL    HW249651   8.160   0.638   5.932
15940SOL     OW49652  12.590  14.393  14.156
15940SOL    HW149653  12.568  14.411  14.064
15940SOL    HW249654  12.515  14.425  14.205
15941SOL     OW49655  14.210   9.730  10.031
15941SOL    HW149656  14.204   9.816   9.990
15941SOL    HW249657  14.221   9.749  10.125
15942SOL     OW49658  12.634   8.847  11.859
15942SOL    HW149659  12.702   8.839  11.792
15942SOL    HW249660  12.637   8.939  11.884
15943SOL     OW49661  12.845  11.857  11.689
15943SOL    HW149662  12.759  11.897  11.698
15943SOL    HW249663  12.851  11.796  11.762
15944SOL     OW49664  11.586   5.357  10.713
15944SOL    HW149665  11.620   5.444  10.735
15944SOL    HW249666  11.646   5.325  10.645
15945SOL     OW49667  11.515   1.394   0.432
15945SOL    HW149668  11.512   1.311   0.384
15945SOL    HW249669  11.425   1.408   0.461
15946SOL     OW49670   8.269   2.230   1.952
15946SOL    HW149671   8.190   2.241   2.005
15946SOL    HW249672   8.290   2.319   1.923
15947SOL     OW49673  11.551   2.820   6.915
15947SOL    HW149674  11.629   2.798   6.864
15947SOL    HW249675  11.541   2.915   6.903
15948SOL     OW49676  14.561  12.729   0.362
15948SOL    HW149677  14.492  12.773   0.312
15948SOL    HW249678  14.514  12.674   0.424
15949SOL     OW49679  13.502   9.620   4.085
15949SOL    HW149680  13.547   9.611   4.001
15949SOL    HW249681  13.521   9.540   4.132
15950SOL     OW49682   3.689  12.405  10.483
15950SOL    HW149683   3.671  12.488  10.528
15950SOL    HW249684   3.621  12.345  10.515
15951SOL     OW49685   9.033  14.642   0.945
15951SOL    HW149686   9.095  14.712   0.927
15951SOL    HW249687   9.081  14.581   1.001
15952SOL     OW49688   0.689  11.344   5.888
15952SOL    HW149689   0.697  11.437   5.905
15952SOL    HW249690   0.630  11.338   5.813
15953SOL     OW49691  14.712   5.266   2.229
15953SOL    HW149692  14.679   5.265   2.139
15953SOL    HW249693  14.635   5.288   2.282
15954SOL     OW49694  11.393   3.469   0.024
15954SOL    HW149695  11.331   3.533  14.868
15954SOL    HW249696  11.474   3.485  14.854
15955SOL     OW49697  14.068  10.480   0.255
15955SOL    HW149698  14.022  10.468   0.338
15955SOL    HW249699  14.091  10.391   0.228
15956SOL     OW49700   8.292   0.472   6.987
15956SOL    HW149701   8.329   0.452   6.902
15956SOL    HW249702   8.366   0.504   7.039
15957SOL     OW49703   6.950   9.201   1.000
15957SOL    HW149704   6.864   9.170   0.971
15957SOL    HW249705   6.959   9.167   1.089
15958SOL     OW49706   6.058  14.065   9.875
15958SOL    HW149707   5.982  14.069   9.933
15958SOL    HW249708   6.133  14.072   9.935
15959SOL     OW49709   5.838  11.274  14.809
15959SOL    HW149710   5.780  11.350  14.811
15959SOL    HW249711   5.912  11.301  14.754
15960SOL     OW49712   1.183   3.545  12.645
15960SOL    HW149713   1.202   3.620  12.588
15960SOL    HW249714   1.134   3.582  12.718
15961SOL     OW49715  10.067  11.022   9.632
15961SOL    HW149716  10.131  11.070   9.685
15961SOL    HW249717  10.120  10.969   9.573
15962SOL     OW49718  14.241  13.821  10.458
15962SOL    HW149719  14.235  13.799  10.365
15962SOL    HW249720  14.332  13.807  10.481
15963SOL     OW49721  13.030   5.882  13.976
15963SOL    HW149722  13.075   5.962  14.005
15963SOL    HW249723  13.084   5.850  13.904
15964SOL     OW49724   3.728  13.407  12.433
15964SOL    HW149725   3.741  13.314  12.415
15964SOL    HW249726   3.810  13.437  12.471
15965SOL     OW49727   4.519   4.805   0.854
15965SOL    HW149728   4.511   4.859   0.775
15965SOL    HW249729   4.556   4.864   0.920
15966SOL     OW49730   7.462   6.952  10.044
15966SOL    HW149731   7.436   6.871  10.001
15966SOL    HW249732   7.411   6.954  10.125
15967SOL     OW49733   5.588   2.748   9.978
15967SOL    HW149734   5.593   2.824   9.920
15967SOL    HW249735   5.671   2.702   9.964
15968SOL     OW49736   4.872  10.463   3.020
15968SOL    HW149737   4.861  10.407   2.943
15968SOL    HW249738   4.833  10.413   3.092
15969SOL     OW49739   9.146   3.653   0.312
15969SOL    HW149740   9.225   3.636   0.259
15969SOL    HW249741   9.128   3.569   0.355
15970SOL     OW49742   4.495   4.449  13.667
15970SOL    HW149743   4.418   4.409  13.709
15970SOL    HW249744   4.462   4.483  13.584
15971SOL     OW49745   1.685   3.580   3.190
15971SOL    HW149746   1.761   3.550   3.140
15971SOL    HW249747   1.704   3.672   3.209
15972SOL     OW49748   2.918  14.204  13.070
15972SOL    HW149749   2.895  14.165  12.986
15972SOL    HW249750   2.907  14.132  13.133
15973SOL     OW49751   4.048   9.103   1.911
15973SOL    HW149752   3.965   9.057   1.917
15973SOL    HW249753   4.097   9.056   1.844
15974SOL     OW49754   0.030  14.287   0.649
15974SOL    HW149755   0.041  14.230   0.572
15974SOL    HW249756   0.087  14.249   0.715
15975SOL     OW49757   5.704   3.388   2.107
15975SOL    HW149758   5.681   3.457   2.045
15975SOL    HW249759   5.782   3.421   2.151
15976SOL     OW49760  12.419  14.071   7.632
15976SOL    HW149761  12.489  14.010   7.656
15976SOL    HW249762  12.462  14.156   7.625
15977SOL     OW49763   5.985   0.441   8.506
15977SOL    HW149764   5.969   0.384   8.431
15977SOL    HW249765   6.044   0.509   8.473
15978SOL     OW49766  13.819   6.902   0.340
15978SOL    HW149767  13.906   6.938   0.359
15978SOL    HW249768  13.793   6.858   0.421
15979SOL     OW49769   9.430   5.979   7.860
15979SOL    HW149770   9.349   6.006   7.816
15979SOL    HW249771   9.449   6.050   7.921
15980SOL     OW49772   8.905  13.817   3.605
15980SOL    HW149773   8.941  13.734   3.637
15980SOL    HW249774   8.908  13.876   3.680
15981SOL     OW49775   1.119   8.361   9.167
15981SOL    HW149776   1.062   8.391   9.095
15981SOL    HW249777   1.061   8.309   9.222
15982SOL     OW49778  12.667  11.592   1.590
15982SOL    HW149779  12.760  11.616   1.590
15982SOL    HW249780  12.629  11.643   1.661
15983SOL     OW49781   0.675  11.263  10.120
15983SOL    HW149782   0.648  11.299  10.204
15983SOL    HW249783   0.624  11.312  10.055
15984SOL     OW49784   0.116  11.528   8.524
15984SOL    HW149785   0.187  11.464   8.516
15984SOL    HW249786   0.107  11.565   8.436
15985SOL     OW49787   9.284  12.788   5.343
15985SOL    HW149788   9.341  12.826   5.410
15985SOL    HW249789   9.236  12.719   5.390
15986SOL     OW49790  13.953  13.990   6.008
15986SOL    HW149791  14.000  14.002   5.925
15986SOL    HW249792  13.976  13.901   6.035
15987SOL     OW49793   7.432   4.550  13.559
15987SOL    HW149794   7.489   4.573  13.486
15987SOL    HW249795   7.477   4.585  13.636
15988SOL     OW49796  14.313   2.867   2.310
15988SOL    HW149797  14.327   2.895   2.220
15988SOL    HW249798  14.400   2.847   2.343
15989SOL     OW49799   6.877   0.586   6.160
15989SOL    HW149800   6.829   0.567   6.241
15989SOL    HW249801   6.860   0.511   6.103
15990SOL     OW49802  14.518  12.748   4.583
15990SOL    HW149803  14.433  12.789   4.568
15990SOL    HW249804  14.581  12.817   4.562
15991SOL     OW49805   1.642   3.457   4.440
15991SOL    HW149806   1.550   3.437   4.457
15991SOL    HW249807   1.665   3.401   4.365
15992SOL     OW49808   2.988   6.279  13.341
15992SOL    HW149809   2.969   6.276  13.247
15992SOL    HW249810   2.999   6.188  13.367
15993SOL     OW49811   0.555   5.763  12.096
15993SOL    HW149812   0.625   5.706  12.062
15993SOL    HW249813   0.481   5.748  12.038
15994SOL     OW49814   1.905   0.756  14.212
15994SOL    HW149815   1.986   0.794  14.177
15994SOL    HW249816   1.932   0.716  14.295
15995SOL     OW49817   1.919   9.361   7.385
15995SOL    HW149818   2.004   9.340   7.346
15995SOL    HW249819   1.939   9.378   7.477
15996SOL     OW49820   4.131   6.822   8.948
15996SOL    HW149821   4.186   6.746   8.967
15996SOL    HW249822   4.177   6.867   8.878
15997SOL     OW49823  11.819   2.710   0.468
15997SOL    HW149824  11.816   2.777   0.536
15997SOL    HW249825  11.877   2.643   0.503
15998SOL     OW49826   0.979   6.398   7.028
15998SOL    HW149827   1.037   6.402   7.104
15998SOL    HW249828   1.029   6.347   6.964
15999SOL     OW49829   6.522   0.549  12.973
15999SOL    HW149830   6.475   0.517  13.050
15999SOL    HW249831   6.453   0.567  12.909
16000SOL     OW49832   1.546   4.609   9.117
16000SOL    HW149833   1.592   4.530   9.145
16000SOL    HW249834   1.590   4.634   9.035
16001SOL     OW49835   3.139  11.242   9.751
16001SOL    HW149836   3.142  11.336   9.771
16001SOL    HW249837   3.148  11.237   9.656
16002SOL     OW49838   9.285   9.025   4.391
16002SOL    HW149839   9.380   9.020   4.393
16002SOL    HW249840   9.263   9.108   4.434
16003SOL     OW49841  10.783   1.193   1.130
16003SOL    HW149842  10.811   1.285   1.133
16003SOL    HW249843  10.857   1.145   1.167
16004SOL     OW49844   2.575   4.060   9.237
16004SOL    HW149845   2.638   4.117   9.194
16004SOL    HW249846   2.598   4.065   9.330
16005SOL     OW49847   8.357   3.378   9.584
16005SOL    HW149848   8.280   3.321   9.580
16005SOL    HW249849   8.355   3.414   9.673
16006SOL     OW49850  12.908  10.907   3.047
16006SOL    HW149851  12.989  10.879   3.006
16006SOL    HW249852  12.846  10.917   2.974
16007SOL     OW49853  12.637   5.590  12.156
16007SOL    HW149854  12.709   5.588  12.220
16007SOL    HW249855  12.670   5.646  12.086
16008SOL     OW49856  10.659   8.479   3.431
16008SOL    HW149857  10.754   8.486   3.425
16008SOL    HW249858  10.639   8.500   3.523
16009SOL     OW49859   1.671  13.348  14.398
16009SOL    HW149860   1.621  13.398  14.334
16009SOL    HW249861   1.740  13.408  14.428
16010SOL     OW49862   5.086  10.675   3.579
16010SOL    HW149863   5.007  10.729   3.576
16010SOL    HW249864   5.152  10.729   3.535
16011SOL     OW49865  12.153  10.780   3.397
16011SOL    HW149866  12.146  10.740   3.310
16011SOL    HW249867  12.079  10.841   3.402
16012SOL     OW49868   7.156   8.674   8.963
16012SOL    HW149869   7.128   8.597   8.914
16012SOL    HW249870   7.074   8.714   8.994
16013SOL     OW49871   5.699   6.625  11.424
16013SOL    HW149872   5.615   6.647  11.384
16013SOL    HW249873   5.676   6.579  11.505
16014SOL     OW49874  11.850   2.870   5.191
16014SOL    HW149875  11.939   2.857   5.158
16014SOL    HW249876  11.794   2.826   5.127
16015SOL     OW49877   0.662  11.627   5.959
16015SOL    HW149878   0.723  11.634   6.033
16015SOL    HW249879   0.703  11.679   5.890
16016SOL     OW49880   8.499  14.083  12.635
16016SOL    HW149881   8.406  14.099  12.651
16016SOL    HW249882   8.520  14.137  12.558
16017SOL     OW49883  10.176   7.332   8.777
16017SOL    HW149884  10.150   7.315   8.867
16017SOL    HW249885  10.267   7.303   8.772
16018SOL     OW49886   6.740   3.490  14.462
16018SOL    HW149887   6.727   3.579  14.431
16018SOL    HW249888   6.816   3.459  14.413
16019SOL     OW49889  12.190  11.708  12.081
16019SOL    HW149890  12.272  11.693  12.033
16019SOL    HW249891  12.134  11.754  12.019
16020SOL     OW49892   3.442   3.331   0.569
16020SOL    HW149893   3.390   3.385   0.510
16020SOL    HW249894   3.413   3.242   0.551
16021SOL     OW49895   2.698  13.938  11.649
16021SOL    HW149896   2.625  13.895  11.693
16021SOL    HW249897   2.773  13.924  11.707
16022SOL     OW49898   8.015   9.326   9.269
16022SOL    HW149899   7.956   9.251   9.283
16022SOL    HW249900   8.037   9.321   9.176
16023SOL     OW49901   3.813   3.189   5.309
16023SOL    HW149902   3.797   3.267   5.255
16023SOL    HW249903   3.809   3.116   5.247
16024SOL     OW49904   5.294  13.115  14.449
16024SOL    HW149905   5.234  13.070  14.390
16024SOL    HW249906   5.340  13.178  14.393
16025SOL     OW49907   7.765  10.188  11.257
16025SOL    HW149908   7.683  10.184  11.209
16025SOL    HW249909   7.746  10.148  11.342
16026SOL     OW49910  12.960   8.218   2.401
16026SOL    HW149911  12.934   8.309   2.385
16026SOL    HW249912  13.033   8.223   2.462
16027SOL     OW49913   1.579   4.842  11.024
16027SOL    HW149914   1.554   4.902  11.094
16027SOL    HW249915   1.610   4.764  11.069
16028SOL     OW49916   6.871  11.754  11.358
16028SOL    HW149917   6.925  11.772  11.435
16028SOL    HW249918   6.901  11.669  11.326
16029SOL     OW49919  12.544   9.719   5.908
16029SOL    HW149920  12.523   9.680   5.823
16029SOL    HW249921  12.462   9.714   5.957
16030SOL     OW49922   7.672   9.002   0.330
16030SOL    HW149923   7.683   9.068   0.262
16030SOL    HW249924   7.755   9.002   0.379
16031SOL     OW49925   6.241   3.534   7.546
16031SOL    HW149926   6.305   3.562   7.481
16031SOL    HW249927   6.256   3.440   7.556
16032SOL     OW49928  12.353   6.993  10.016
16032SOL    HW149929  12.308   7.021  10.096
16032SOL    HW249930  12.297   7.026   9.946
16033SOL     OW49931   8.936   0.564   2.924
16033SOL    HW149932   8.856   0.535   2.969
16033SOL    HW249933   8.978   0.623   2.987
16034SOL     OW49934   8.838   7.384  14.114
16034SOL    HW149935   8.867   7.436  14.188
16034SOL    HW249936   8.840   7.444  14.040
16035SOL     OW49937   3.492  11.596   6.040
16035SOL    HW149938   3.527  11.675   6.082
16035SOL    HW249939   3.541  11.524   6.080
16036SOL     OW49940   2.367   7.783   0.487
16036SOL    HW149941   2.408   7.802   0.402
16036SOL    HW249942   2.274   7.769   0.466
16037SOL     OW49943   5.136   3.692   4.804
16037SOL    HW149944   5.091   3.611   4.782
16037SOL    HW249945   5.221   3.664   4.839
16038SOL     OW49946  14.517   3.002   7.511
16038SOL    HW149947  14.518   3.096   7.495
16038SOL    HW249948  14.443   2.988   7.570
16039SOL     OW49949  13.914   3.932   7.870
16039SOL    HW149950  13.860   3.986   7.813
16039SOL    HW249951  13.909   3.844   7.833
16040SOL     OW49952   6.741   6.606   5.988
16040SOL    HW149953   6.668   6.585   6.047
16040SOL    HW249954   6.744   6.533   5.926
16041SOL     OW49955   6.849   9.053  14.753
16041SOL    HW149956   6.900   8.989  14.704
16041SOL    HW249957   6.885   9.138  14.727
16042SOL     OW49958   1.989   8.580   5.642
16042SOL    HW149959   2.043   8.567   5.720
16042SOL    HW249960   1.977   8.674   5.636
16043SOL     OW49961   8.895  13.785  14.867
16043SOL    HW149962   8.900  13.703  14.818
16043SOL    HW249963   8.943  13.768   0.069
16044SOL     OW49964  13.185  14.798  10.092
16044SOL    HW149965  13.136  14.812  10.173
16044SOL    HW249966  13.267  14.846  10.105
16045SOL     OW49967  14.378  12.169   9.215
16045SOL    HW149968  14.314  12.108   9.252
16045SOL    HW249969  14.352  12.178   9.124
16046SOL     OW49970  12.514   7.434   2.015
16046SOL    HW149971  12.452   7.375   1.971
16046SOL    HW249972  12.471   7.457   2.097
16047SOL     OW49973   4.364   7.536  11.884
16047SOL    HW149974   4.374   7.628  11.909
16047SOL    HW249975   4.423   7.489  11.943
16048SOL     OW49976   7.735   9.311   1.798
16048SOL    HW149977   7.825   9.310   1.765
16048SOL    HW249978   7.731   9.387   1.856
16049SOL     OW49979   9.436   1.012  12.373
16049SOL    HW149980   9.506   1.072  12.347
16049SOL    HW249981   9.437   0.943  12.308
16050SOL     OW49982   9.963  11.018   4.600
16050SOL    HW149983   9.994  11.011   4.691
16050SOL    HW249984   9.889  10.959   4.595
16051SOL     OW49985   4.827  11.653   2.168
16051SOL    HW149986   4.823  11.611   2.253
16051SOL    HW249987   4.904  11.710   2.173
16052SOL     OW49988   8.555   6.428   0.756
16052SOL    HW149989   8.550   6.333   0.748
16052SOL    HW249990   8.550   6.460   0.666
16053SOL     OW49991  10.476   5.573   3.231
16053SOL    HW149992  10.396   5.523   3.220
16053SOL    HW249993  10.547   5.509   3.218
16054SOL     OW49994   0.754   0.258   0.050
16054SOL    HW149995   0.740   0.182  14.872
16054SOL    HW249996   0.842   0.246   0.084
16055SOL     OW49997  11.946  12.006  10.703
16055SOL    HW149998  11.906  12.073  10.648
16055SOL    HW249999  12.011  12.054  10.755
16056SOL     OW50000   8.828   5.899   3.415
16056SOL    HW150001   8.852   5.928   3.503
16056SOL    HW250002   8.872   5.961   3.357
16057SOL     OW50003   4.446  13.627  11.655
16057SOL    HW150004   4.499  13.636  11.734
16057SOL    HW250005   4.372  13.686  11.669
16058SOL     OW50006   4.531  13.340   3.687
16058SOL    HW150007   4.552  13.389   3.608
16058SOL    HW250008   4.447  13.375   3.716
16059SOL     OW50009   1.592   9.131  11.320
16059SOL    HW150010   1.584   9.037  11.336
16059SOL    HW250011   1.598   9.170  11.408
16060SOL     OW50012  14.426  12.367  10.827
16060SOL    HW150013  14.515  12.347  10.856
16060SOL    HW250014  14.409  12.455  10.859
16061SOL     OW50015   5.691   1.871   6.166
16061SOL    HW150016   5.672   1.959   6.200
16061SOL    HW250017   5.695   1.882   6.071
16062SOL     OW50018   1.367   7.116   2.134
16062SOL    HW150019   1.317   7.146   2.058
16062SOL    HW250020   1.355   7.185   2.199
16063SOL     OW50021   5.964  10.656   7.290
16063SOL    HW150022   6.054  10.627   7.274
16063SOL    HW250023   5.929  10.593   7.353
16064SOL     OW50024  12.414  10.007  13.303
16064SOL    HW150025  12.498   9.961  13.305
16064SOL    HW250026  12.352   9.944  13.268
16065SOL     OW50027   6.867   1.197   6.076
16065SOL    HW150028   6.921   1.275   6.089
16065SOL    HW250029   6.928   1.132   6.040
16066SOL     OW50030  12.301  14.708   7.238
16066SOL    HW150031  12.349  14.786   7.211
16066SOL    HW250032  12.331  14.639   7.180
16067SOL     OW50033   3.970   7.060  10.337
16067SOL    HW150034   3.900   7.124  10.325
16067SOL    HW250035   4.038   7.107  10.386
16068SOL     OW50036   6.433  11.624   5.409
16068SOL    HW150037   6.363  11.580   5.456
16068SOL    HW250038   6.401  11.713   5.395
16069SOL     OW50039   6.392  14.129  11.134
16069SOL    HW150040   6.421  14.106  11.046
16069SOL    HW250041   6.412  14.222  11.142
16070SOL     OW50042   3.550   2.440   7.386
16070SOL    HW150043   3.575   2.466   7.298
16070SOL    HW250044   3.629   2.450   7.438
16071SOL     OW50045   3.529  10.858   8.296
16071SOL    HW150046   3.436  10.846   8.275
16071SOL    HW250047   3.530  10.865   8.392
16072SOL     OW50048   1.686   9.497   9.414
16072SOL    HW150049   1.610   9.551   9.437
16072SOL    HW250050   1.705   9.447   9.493
16073SOL     OW50051   5.767  13.328   8.535
16073SOL    HW150052   5.737  13.412   8.501
16073SOL    HW250053   5.855  13.318   8.496
16074SOL     OW50054   8.854   5.932  14.655
16074SOL    HW150055   8.809   5.852  14.684
16074SOL    HW250056   8.839   5.995  14.726
16075SOL     OW50057  13.746   4.292   4.109
16075SOL    HW150058  13.816   4.228   4.114
16075SOL    HW250059  13.781   4.362   4.053
16076SOL     OW50060  14.185  11.166  13.275
16076SOL    HW150061  14.241  11.244  13.266
16076SOL    HW250062  14.173  11.134  13.186
16077SOL     OW50063   4.178   7.857  12.818
16077SOL    HW150064   4.098   7.805  12.814
16077SOL    HW250065   4.159   7.934  12.764
16078SOL     OW50066   1.019   9.705   8.959
16078SOL    HW150067   0.954   9.678   8.894
16078SOL    HW250068   1.070   9.626   8.976
16079SOL     OW50069  12.309   6.643   0.206
16079SOL    HW150070  12.285   6.583   0.135
16079SOL    HW250071  12.388   6.605   0.244
16080SOL     OW50072   1.654  10.756   8.339
16080SOL    HW150073   1.659  10.660   8.347
16080SOL    HW250074   1.743  10.786   8.355
16081SOL     OW50075   6.452   6.386  14.045
16081SOL    HW150076   6.369   6.383  13.998
16081SOL    HW250077   6.518   6.368  13.978
16082SOL     OW50078   8.221   6.900   6.208
16082SOL    HW150079   8.227   6.841   6.283
16082SOL    HW250080   8.263   6.981   6.237
16083SOL     OW50081  14.664  11.230   3.854
16083SOL    HW150082  14.577  11.233   3.895
16083SOL    HW250083  14.719  11.286   3.908
16084SOL     OW50084   3.027  10.197   3.484
16084SOL    HW150085   3.105  10.180   3.537
16084SOL    HW250086   2.998  10.284   3.511
16085SOL     OW50087   2.431  13.071  12.082
16085SOL    HW150088   2.400  13.161  12.087
16085SOL    HW250089   2.360  13.018  12.119
16086SOL     OW50090  10.601   6.997  10.757
16086SOL    HW150091  10.641   6.952  10.683
16086SOL    HW250092  10.523   7.038  10.720
16087SOL     OW50093   7.713  13.420   6.976
16087SOL    HW150094   7.647  13.387   6.916
16087SOL    HW250095   7.772  13.346   6.990
16088SOL     OW50096   2.841   9.042   5.770
16088SOL    HW150097   2.750   9.020   5.790
16088SOL    HW250098   2.876   8.963   5.729
16089SOL     OW50099   5.420   3.076  12.987
16089SOL    HW150100   5.406   3.168  12.966
16089SOL    HW250101   5.515   3.068  12.996
16090SOL     OW50102  12.659   7.032   9.170
16090SOL    HW150103  12.633   6.942   9.149
16090SOL    HW250104  12.683   7.029   9.263
16091SOL     OW50105  10.575   8.244   8.783
16091SOL    HW150106  10.572   8.243   8.879
16091SOL    HW250107  10.642   8.310   8.763
16092SOL     OW50108   8.424  10.207  12.704
16092SOL    HW150109   8.432  10.244  12.792
16092SOL    HW250110   8.385  10.121  12.717
16093SOL     OW50111   7.490   2.579   9.596
16093SOL    HW150112   7.422   2.516   9.573
16093SOL    HW250113   7.444   2.651   9.638
16094SOL     OW50114   0.320   6.860   8.531
16094SOL    HW150115   0.346   6.802   8.459
16094SOL    HW250116   0.311   6.801   8.606
16095SOL     OW50117   8.603   7.346   4.855
16095SOL    HW150118   8.533   7.411   4.862
16095SOL    HW250119   8.560   7.269   4.818
16096SOL     OW50120   8.977  13.738   9.906
16096SOL    HW150121   9.036  13.801   9.865
16096SOL    HW250122   8.910  13.722   9.840
16097SOL     OW50123   3.475   6.979  13.167
16097SOL    HW150124   3.422   6.982  13.247
16097SOL    HW250125   3.412   6.958  13.097
16098SOL     OW50126   5.950   4.828  10.097
16098SOL    HW150127   5.927   4.737  10.080
16098SOL    HW250128   5.869   4.877  10.083
16099SOL     OW50129   0.830   3.725  12.871
16099SOL    HW150130   0.790   3.783  12.937
16099SOL    HW250131   0.758   3.707  12.810
16100SOL     OW50132   1.094   8.239   3.416
16100SOL    HW150133   1.098   8.152   3.377
16100SOL    HW250134   1.076   8.222   3.509
16101SOL     OW50135  11.979  14.422   3.672
16101SOL    HW150136  11.985  14.355   3.740
16101SOL    HW250137  11.885  14.431   3.656
16102SOL     OW50138   2.183   8.883  11.601
16102SOL    HW150139   2.124   8.832  11.656
16102SOL    HW250140   2.233   8.936  11.662
16103SOL     OW50141   6.687   8.317  14.735
16103SOL    HW150142   6.681   8.399  14.686
16103SOL    HW250143   6.647   8.337  14.820
16104SOL     OW50144   5.815  11.033   2.434
16104SOL    HW150145   5.732  10.986   2.432
16104SOL    HW250146   5.819  11.076   2.349
16105SOL     OW50147   3.533   3.426   3.279
16105SOL    HW150148   3.469   3.356   3.270
16105SOL    HW250149   3.617   3.385   3.255
16106SOL     OW50150  11.703  13.831   8.713
16106SOL    HW150151  11.744  13.744   8.705
16106SOL    HW250152  11.617  13.820   8.673
16107SOL     OW50153   0.428  14.374   3.266
16107SOL    HW150154   0.365  14.401   3.198
16107SOL    HW250155   0.503  14.432   3.253
16108SOL     OW50156  12.327   7.818   4.017
16108SOL    HW150157  12.403   7.848   4.066
16108SOL    HW250158  12.338   7.724   4.009
16109SOL     OW50159  13.287   9.887  10.634
16109SOL    HW150160  13.325   9.800  10.634
16109SOL    HW250161  13.278   9.910  10.542
16110SOL     OW50162   7.583   1.090   9.057
16110SOL    HW150163   7.591   1.058   8.968
16110SOL    HW250164   7.501   1.140   9.058
16111SOL     OW50165   5.065   3.140   2.668
16111SOL    HW150166   4.977   3.120   2.700
16111SOL    HW250167   5.059   3.228   2.633
16112SOL     OW50168  11.795  11.606  12.267
16112SOL    HW150169  11.764  11.685  12.222
16112SOL    HW250170  11.717  11.569  12.309
16113SOL     OW50171  12.567   8.805   4.508
16113SOL    HW150172  12.493   8.744   4.518
16113SOL    HW250173  12.609   8.780   4.426
16114SOL     OW50174   4.602  11.971   9.967
16114SOL    HW150175   4.683  12.022   9.973
16114SOL    HW250176   4.581  11.971   9.873
16115SOL     OW50177   5.665   9.121   8.069
16115SOL    HW150178   5.717   9.196   8.097
16115SOL    HW250179   5.638   9.142   7.979
16116SOL     OW50180  12.724   4.381  12.736
16116SOL    HW150181  12.702   4.444  12.668
16116SOL    HW250182  12.800   4.418  12.781
16117SOL     OW50183   9.606   5.187   0.546
16117SOL    HW150184   9.548   5.111   0.538
16117SOL    HW250185   9.659   5.185   0.467
16118SOL     OW50186   8.155   4.704   8.540
16118SOL    HW150187   8.099   4.650   8.596
16118SOL    HW250188   8.220   4.740   8.599
16119SOL     OW50189  13.385  14.202   4.850
16119SOL    HW150190  13.465  14.169   4.891
16119SOL    HW250191  13.368  14.139   4.780
16120SOL     OW50192   8.905  12.418   1.790
16120SOL    HW150193   8.877  12.509   1.780
16120SOL    HW250194   8.922  12.409   1.884
16121SOL     OW50195  13.560  11.660   7.326
16121SOL    HW150196  13.563  11.736   7.384
16121SOL    HW250197  13.474  11.666   7.283
16122SOL     OW50198  13.185   3.740   2.206
16122SOL    HW150199  13.185   3.646   2.188
16122SOL    HW250200  13.277   3.761   2.223
16123SOL     OW50201  10.350   7.199   5.337
16123SOL    HW150202  10.303   7.274   5.373
16123SOL    HW250203  10.309   7.184   5.252
16124SOL     OW50204  14.569   8.221   2.901
16124SOL    HW150205  14.655   8.204   2.939
16124SOL    HW250206  14.566   8.316   2.890
16125SOL     OW50207   1.447   6.061   0.489
16125SOL    HW150208   1.436   6.006   0.411
16125SOL    HW250209   1.389   6.022   0.554
16126SOL     OW50210  13.020   4.503   4.598
16126SOL    HW150211  13.098   4.502   4.654
16126SOL    HW250212  12.947   4.502   4.660
16127SOL     OW50213   6.109   7.130  11.491
16127SOL    HW150214   6.033   7.099  11.441
16127SOL    HW250215   6.139   7.207  11.444
16128SOL     OW50216   5.962   1.576   3.112
16128SOL    HW150217   6.049   1.538   3.129
16128SOL    HW250218   5.933   1.609   3.198
16129SOL     OW50219   0.519  11.771   8.082
16129SOL    HW150220   0.443  11.822   8.112
16129SOL    HW250221   0.485  11.681   8.075
16130SOL     OW50222   2.018  13.952  13.876
16130SOL    HW150223   2.020  13.864  13.839
16130SOL    HW250224   2.017  13.938  13.971
16131SOL     OW50225   5.756   6.056   2.165
16131SOL    HW150226   5.727   6.120   2.230
16131SOL    HW250227   5.750   6.102   2.081
16132SOL     OW50228  12.654   6.214   0.633
16132SOL    HW150229  12.696   6.173   0.708
16132SOL    HW250230  12.696   6.173   0.557
16133SOL     OW50231   6.534   0.976  12.671
16133SOL    HW150232   6.453   1.022  12.648
16133SOL    HW250233   6.527   0.961  12.765
16134SOL     OW50234   8.539  13.580  10.706
16134SOL    HW150235   8.569  13.527  10.780
16134SOL    HW250236   8.443  13.579  10.713
16135SOL     OW50237   6.760   5.865   7.677
16135SOL    HW150238   6.673   5.878   7.715
16135SOL    HW250239   6.749   5.792   7.616
16136SOL     OW50240   4.266  11.270   2.568
16136SOL    HW150241   4.209  11.223   2.629
16136SOL    HW250242   4.305  11.201   2.513
16137SOL     OW50243   5.711   0.164   7.349
16137SOL    HW150244   5.633   0.118   7.379
16137SOL    HW250245   5.767   0.168   7.427
16138SOL     OW50246   7.559  14.197   2.755
16138SOL    HW150247   7.611  14.158   2.826
16138SOL    HW250248   7.492  14.132   2.736
16139SOL     OW50249   6.846   7.027   3.363
16139SOL    HW150250   6.906   7.074   3.421
16139SOL    HW250251   6.874   6.935   3.368
16140SOL     OW50252  14.730  10.485  11.895
16140SOL    HW150253  14.698  10.575  11.900
16140SOL    HW250254  14.651  10.432  11.891
16141SOL     OW50255  14.202   7.104   2.946
16141SOL    HW150256  14.294   7.129   2.942
16141SOL    HW250257  14.171   7.110   2.856
16142SOL     OW50258   6.198   0.349   0.710
16142SOL    HW150259   6.132   0.321   0.774
16142SOL    HW250260   6.238   0.426   0.749
16143SOL     OW50261  14.510   5.956  14.357
16143SOL    HW150262  14.549   5.967  14.444
16143SOL    HW250263  14.584   5.964  14.297
16144SOL     OW50264   9.568  11.331   0.549
16144SOL    HW150265   9.601  11.251   0.590
16144SOL    HW250266   9.553  11.307   0.457
16145SOL     OW50267   3.743  10.588   1.590
16145SOL    HW150268   3.716  10.674   1.621
16145SOL    HW250269   3.726  10.589   1.496
16146SOL     OW50270  14.160   0.260   9.650
16146SOL    HW150271  14.117   0.176   9.633
16146SOL    HW250272  14.140   0.314   9.573
16147SOL     OW50273   3.214  13.331   0.899
16147SOL    HW150274   3.237  13.242   0.870
16147SOL    HW250275   3.143  13.318   0.961
16148SOL     OW50276   2.910  14.738   6.447
16148SOL    HW150277   2.967  14.780   6.383
16148SOL    HW250278   2.905  14.646   6.419
16149SOL     OW50279   4.205   1.561   0.116
16149SOL    HW150280   4.201   1.558   0.212
16149SOL    HW250281   4.214   1.654   0.095
16150SOL     OW50282  14.817   1.979   1.983
16150SOL    HW150283   0.033   1.991   1.991
16150SOL    HW250284  14.790   2.044   1.918
16151SOL     OW50285   2.262  14.029   2.667
16151SOL    HW150286   2.316  14.057   2.593
16151SOL    HW250287   2.216  14.108   2.695
16152SOL     OW50288   2.447   5.450  14.023
16152SOL    HW150289   2.450   5.527  14.080
16152SOL    HW250290   2.486   5.479  13.940
16153SOL     OW50291   4.782  14.586  12.710
16153SOL    HW150292   4.789  14.536  12.628
16153SOL    HW250293   4.770  14.520  12.777
16154SOL     OW50294   7.979  13.969   0.957
16154SOL    HW150295   7.947  14.059   0.961
16154SOL    HW250296   8.021  13.963   0.871
16155SOL     OW50297  13.762   3.285   6.869
16155SOL    HW150298  13.807   3.223   6.811
16155SOL    HW250299  13.801   3.370   6.848
16156SOL     OW50300   7.869  13.397  10.070
16156SOL    HW150301   7.796  13.346  10.106
16156SOL    HW250302   7.830  13.446   9.997
16157SOL     OW50303   8.062   4.922  13.844
16157SOL    HW150304   8.021   4.950  13.927
16157SOL    HW250305   8.081   4.830  13.857
16158SOL     OW50306  13.939  12.038   1.540
16158SOL    HW150307  14.031  12.014   1.554
16158SOL    HW250308  13.892  11.998   1.612
16159SOL     OW50309   2.002  12.316  12.201
16159SOL    HW150310   2.077  12.275  12.244
16159SOL    HW250311   2.035  12.345  12.116
16160SOL     OW50312   9.203   5.935   3.110
16160SOL    HW150313   9.159   5.853   3.088
16160SOL    HW250314   9.294   5.909   3.127
16161SOL     OW50315   1.792   6.044   5.514
16161SOL    HW150316   1.776   6.116   5.452
16161SOL    HW250317   1.850   6.083   5.580
16162SOL     OW50318   1.153   8.586   6.887
16162SOL    HW150319   1.112   8.599   6.973
16162SOL    HW250320   1.239   8.626   6.896
16163SOL     OW50321  10.439  12.335  10.194
16163SOL    HW150322  10.515  12.385  10.224
16163SOL    HW250323  10.476  12.268  10.136
16164SOL     OW50324   3.401   9.309   2.287
16164SOL    HW150325   3.334   9.240   2.288
16164SOL    HW250326   3.354   9.386   2.318
16165SOL     OW50327   8.310  12.942  10.685
16165SOL    HW150328   8.233  12.966  10.737
16165SOL    HW250329   8.284  12.861  10.641
16166SOL     OW50330   8.545   8.383   8.261
16166SOL    HW150331   8.488   8.446   8.218
16166SOL    HW250332   8.529   8.397   8.355
16167SOL     OW50333   3.952  11.694   0.445
16167SOL    HW150334   4.003  11.722   0.522
16167SOL    HW250335   3.861  11.695   0.475
16168SOL     OW50336   9.111  13.946   4.450
16168SOL    HW150337   9.207  13.948   4.452
16168SOL    HW250338   9.087  14.029   4.409
16169SOL     OW50339  11.203   0.026  10.567
16169SOL    HW150340  11.255   0.013  10.487
16169SOL    HW250341  11.249   0.096  10.614
16170SOL     OW50342  13.071   6.098   0.431
16170SOL    HW150343  13.148   6.139   0.472
16170SOL    HW250344  13.043   6.162   0.365
16171SOL     OW50345   4.804  12.291  12.213
16171SOL    HW150346   4.739  12.234  12.255
16171SOL    HW250347   4.849  12.333  12.286
16172SOL     OW50348   0.624   7.224  14.536
16172SOL    HW150349   0.586   7.236  14.623
16172SOL    HW250350   0.551   7.238  14.476
16173SOL     OW50351  11.222   6.811   2.161
16173SOL    HW150352  11.215   6.903   2.186
16173SOL    HW250353  11.252   6.767   2.241
16174SOL     OW50354   6.734   6.403  13.059
16174SOL    HW150355   6.811   6.349  13.042
16174SOL    HW250356   6.668   6.372  12.997
16175SOL     OW50357   0.916   7.734  13.419
16175SOL    HW150358   0.934   7.782  13.500
16175SOL    HW250359   0.838   7.682  13.438
16176SOL     OW50360   4.434   7.759   9.666
16176SOL    HW150361   4.415   7.694   9.734
16176SOL    HW250362   4.529   7.766   9.666
16177SOL     OW50363   0.744  12.417  10.098
16177SOL    HW150364   0.736  12.512  10.111
16177SOL    HW250365   0.735  12.380  10.186
16178SOL     OW50366   4.994  13.858   2.669
16178SOL    HW150367   5.000  13.856   2.765
16178SOL    HW250368   4.926  13.794   2.648
16179SOL     OW50369   8.053   4.229   0.064
16179SOL    HW150370   8.013   4.178   0.135
16179SOL    HW250371   8.029   4.182  14.864
16180SOL     OW50372   7.765  13.767   2.462
16180SOL    HW150373   7.843  13.716   2.443
16180SOL    HW250374   7.758  13.767   2.557
16181SOL     OW50375  10.943   9.661  14.322
16181SOL    HW150376  10.927   9.570  14.297
16181SOL    HW250377  10.910   9.668  14.412
16182SOL     OW50378  14.696   4.604  13.427
16182SOL    HW150379  14.632   4.658  13.379
16182SOL    HW250380  14.664   4.604  13.517
16183SOL     OW50381  11.611   8.817   5.265
16183SOL    HW150382  11.560   8.884   5.218
16183SOL    HW250383  11.702   8.845   5.256
16184SOL     OW50384   7.924  11.041   9.995
16184SOL    HW150385   7.863  11.024   9.923
16184SOL    HW250386   7.934  11.136   9.995
16185SOL     OW50387  10.101   5.220  11.092
16185SOL    HW150388  10.123   5.217  10.999
16185SOL    HW250389  10.146   5.144  11.129
16186SOL     OW50390   0.724   0.638   8.489
16186SOL    HW150391   0.656   0.706   8.484
16186SOL    HW250392   0.774   0.647   8.408
16187SOL     OW50393   9.147   4.696   0.563
16187SOL    HW150394   9.234   4.673   0.532
16187SOL    HW250395   9.088   4.663   0.494
16188SOL     OW50396   2.232  10.082   9.237
16188SOL    HW150397   2.317  10.122   9.223
16188SOL    HW250398   2.198  10.067   9.149
16189SOL     OW50399   5.398   8.104   0.083
16189SOL    HW150400   5.403   8.086  14.868
16189SOL    HW250401   5.381   8.019   0.123
16190SOL     OW50402   8.125  12.754   4.680
16190SOL    HW150403   8.086  12.835   4.649
16190SOL    HW250404   8.064  12.686   4.653
16191SOL     OW50405   5.212  10.357   1.268
16191SOL    HW150406   5.281  10.411   1.305
16191SOL    HW250407   5.257  10.278   1.237
16192SOL     OW50408  10.895   1.750   0.100
16192SOL    HW150409  10.809   1.769   0.137
16192SOL    HW250410  10.884   1.665   0.056
16193SOL     OW50411  12.455   1.070   1.845
16193SOL    HW150412  12.408   0.988   1.857
16193SOL    HW250413  12.400   1.136   1.887
16194SOL     OW50414   9.519   4.429   6.862
16194SOL    HW150415   9.521   4.394   6.773
16194SOL    HW250416   9.453   4.376   6.907
16195SOL     OW50417  10.454   3.373   5.183
16195SOL    HW150418  10.381   3.417   5.226
16195SOL    HW250419  10.503   3.443   5.140
16196SOL     OW50420   8.835   4.192   4.333
16196SOL    HW150421   8.885   4.274   4.338
16196SOL    HW250422   8.898   4.127   4.304
16197SOL     OW50423  10.705  10.051   5.016
16197SOL    HW150424  10.684  10.034   4.924
16197SOL    HW250425  10.773   9.987   5.037
16198SOL     OW50426   7.647   9.408   2.983
16198SOL    HW150427   7.655   9.313   2.991
16198SOL    HW250428   7.678   9.427   2.895
16199SOL     OW50429   3.301  13.522   8.508
16199SOL    HW150430   3.268  13.441   8.469
16199SOL    HW250431   3.395  13.508   8.518
16200SOL     OW50432   8.496   1.303  11.093
16200SOL    HW150433   8.469   1.211  11.096
16200SOL    HW250434   8.525   1.316  11.002
16201SOL     OW50435  12.335   0.237   1.527
16201SOL    HW150436  12.393   0.226   1.451
16201SOL    HW250437  12.251   0.201   1.498
16202SOL     OW50438   7.553   8.853   4.799
16202SOL    HW150439   7.470   8.807   4.815
16202SOL    HW250440   7.562   8.853   4.703
16203SOL     OW50441  12.069   3.569  13.617
16203SOL    HW150442  11.984   3.576  13.574
16203SOL    HW250443  12.063   3.490  13.670
16204SOL     OW50444   7.825   1.090   9.197
16204SOL    HW150445   7.778   1.141   9.263
16204SOL    HW250446   7.759   1.031   9.161
16205SOL     OW50447   7.404  10.512   6.962
16205SOL    HW150448   7.455  10.435   6.940
16205SOL    HW250449   7.375  10.497   7.052
16206SOL     OW50450   1.969   5.243   3.168
16206SOL    HW150451   1.876   5.265   3.169
16206SOL    HW250452   1.975   5.170   3.105
16207SOL     OW50453   0.531   0.063  13.022
16207SOL    HW150454   0.553   0.014  13.101
16207SOL    HW250455   0.616   0.090  12.986
16208SOL     OW50456   4.416  10.698  14.414
16208SOL    HW150457   4.365  10.671  14.490
16208SOL    HW250458   4.379  10.782  14.389
16209SOL     OW50459  13.819   2.779   6.098
16209SOL    HW150460  13.821   2.807   6.007
16209SOL    HW250461  13.778   2.692   6.096
16210SOL     OW50462   6.831   6.688   6.670
16210SOL    HW150463   6.790   6.682   6.757
16210SOL    HW250464   6.783   6.626   6.616
16211SOL     OW50465  10.509   3.280   4.511
16211SOL    HW150466  10.566   3.292   4.586
16211SOL    HW250467  10.567   3.251   4.441
16212SOL     OW50468  14.825  12.530  10.304
16212SOL    HW150469  14.863  12.474  10.372
16212SOL    HW250470  14.796  12.469  10.236
16213SOL     OW50471  12.425   2.539  11.501
16213SOL    HW150472  12.430   2.607  11.568
16213SOL    HW250473  12.345   2.558  11.453
16214SOL     OW50474  14.717  10.587  12.750
16214SOL    HW150475  14.772  10.552  12.680
16214SOL    HW250476  14.756  10.672  12.771
16215SOL     OW50477   0.558  10.003   6.485
16215SOL    HW150478   0.582   9.949   6.560
16215SOL    HW250479   0.640  10.045   6.459
16216SOL     OW50480   8.159   1.167   6.768
16216SOL    HW150481   8.084   1.110   6.788
16216SOL    HW250482   8.198   1.185   6.853
16217SOL     OW50483  14.371  14.148   7.910
16217SOL    HW150484  14.333  14.097   7.982
16217SOL    HW250485  14.330  14.113   7.831
16218SOL     OW50486   1.460   4.166  10.398
16218SOL    HW150487   1.542   4.150  10.444
16218SOL    HW250488   1.483   4.155  10.305
16219SOL     OW50489   8.319   0.985   8.335
16219SOL    HW150490   8.292   1.028   8.416
16219SOL    HW250491   8.302   1.050   8.267
16220SOL     OW50492  14.077  10.911  11.104
16220SOL    HW150493  14.039  10.990  11.064
16220SOL    HW250494  14.047  10.840  11.048
16221SOL     OW50495  11.905  11.347  14.464
16221SOL    HW150496  11.958  11.359  14.385
16221SOL    HW250497  11.941  11.410  14.527
16222SOL     OW50498  11.342   4.863   4.493
16222SOL    HW150499  11.400   4.932   4.460
16222SOL    HW250500  11.400   4.803   4.540
16223SOL     OW50501  13.760   9.974   5.235
16223SOL    HW150502  13.793   9.999   5.149
16223SOL    HW250503  13.665   9.966   5.223
16224SOL     OW50504  11.901   4.727  10.293
16224SOL    HW150505  11.885   4.732  10.387
16224SOL    HW250506  11.856   4.647  10.265
16225SOL     OW50507   1.926   7.720  10.247
16225SOL    HW150508   1.980   7.790  10.283
16225SOL    HW250509   1.887   7.677  10.323
16226SOL     OW50510  14.238   0.985  11.384
16226SOL    HW150511  14.184   0.987  11.304
16226SOL    HW250512  14.246   1.077  11.409
16227SOL     OW50513   4.408   4.461   4.316
16227SOL    HW150514   4.352   4.384   4.319
16227SOL    HW250515   4.490   4.433   4.356
16228SOL     OW50516  12.745  14.028   2.168
16228SOL    HW150517  12.677  14.089   2.196
16228SOL    HW250518  12.714  13.942   2.197
16229SOL     OW50519   0.853   6.059   9.528
16229SOL    HW150520   0.815   5.989   9.476
16229SOL    HW250521   0.906   6.109   9.465
16230SOL     OW50522   7.549   8.549   9.930
16230SOL    HW150523   7.642   8.536   9.949
16230SOL    HW250524   7.543   8.642   9.907
16231SOL     OW50525  10.370   1.680  13.640
16231SOL    HW150526  10.308   1.629  13.587
16231SOL    HW250527  10.362   1.769  13.606
16232SOL     OW50528  13.564  14.163  10.484
16232SOL    HW150529  13.561  14.258  10.500
16232SOL    HW250530  13.657  14.142  10.477
16233SOL     OW50531  14.071   2.453   9.043
16233SOL    HW150532  14.012   2.386   9.008
16233SOL    HW250533  14.159   2.416   9.032
16234SOL     OW50534   7.936  12.150   6.623
16234SOL    HW150535   8.031  12.151   6.637
16234SOL    HW250536   7.912  12.241   6.609
16235SOL     OW50537   4.784   5.827   8.726
16235SOL    HW150538   4.853   5.892   8.742
16235SOL    HW250539   4.737   5.861   8.649
16236SOL     OW50540   5.803   7.383  11.098
16236SOL    HW150541   5.854   7.307  11.126
16236SOL    HW250542   5.842   7.456  11.147
16237SOL     OW50543  12.173   1.186   3.456
16237SOL    HW150544  12.219   1.171   3.538
16237SOL    HW250545  12.080   1.177   3.478
16238SOL     OW50546  13.297   8.923   1.897
16238SOL    HW150547  13.362   8.992   1.892
16238SOL    HW250548  13.333   8.860   1.960
16239SOL     OW50549   8.145   5.677  14.617
16239SOL    HW150550   8.157   5.624  14.539
16239SOL    HW250551   8.120   5.764  14.584
16240SOL     OW50552  10.787  13.408  11.007
16240SOL    HW150553  10.804  13.423  10.914
16240SOL    HW250554  10.873  13.388  11.044
16241SOL     OW50555  14.146   4.233   2.125
16241SOL    HW150556  14.069   4.280   2.158
16241SOL    HW250557  14.189   4.296   2.067
16242SOL     OW50558  11.661   4.204   8.138
16242SOL    HW150559  11.607   4.188   8.060
16242SOL    HW250560  11.745   4.164   8.117
16243SOL     OW50561   9.513   9.662  13.649
16243SOL    HW150562   9.435   9.712  13.623
16243SOL    HW250563   9.483   9.607  13.721
16244SOL     OW50564   0.476  10.866   4.823
16244SOL    HW150565   0.462  10.788   4.769
16244SOL    HW250566   0.426  10.935   4.779
16245SOL     OW50567   5.046   5.982  12.781
16245SOL    HW150568   4.984   6.023  12.842
16245SOL    HW250569   5.121   5.960  12.836
16246SOL     OW50570   5.034  14.143   8.058
16246SOL    HW150571   5.068  14.058   8.030
16246SOL    HW250572   4.989  14.177   7.981
16247SOL     OW50573  13.884   7.707   0.560
16247SOL    HW150574  13.952   7.737   0.500
16247SOL    HW250575  13.930   7.656   0.627
16248SOL     OW50576   9.740   8.277   0.387
16248SOL    HW150577   9.656   8.299   0.347
16248SOL    HW250578   9.796   8.251   0.314
16249SOL     OW50579  13.323  14.750   4.905
16249SOL    HW150580  13.367  14.819   4.956
16249SOL    HW250581  13.386  14.679   4.902
16250SOL     OW50582  11.210   8.072   8.911
16250SOL    HW150583  11.289   8.117   8.883
16250SOL    HW250584  11.164   8.051   8.829
16251SOL     OW50585  12.937   6.055  13.221
16251SOL    HW150586  12.949   6.146  13.246
16251SOL    HW250587  12.889   6.016  13.294
16252SOL     OW50588   7.544  11.303  12.943
16252SOL    HW150589   7.493  11.382  12.927
16252SOL    HW250590   7.616  11.332  12.999
16253SOL     OW50591  11.605  12.004   3.553
16253SOL    HW150592  11.626  11.949   3.628
16253SOL    HW250593  11.634  11.953   3.477
16254SOL     OW50594   0.375  10.654   7.423
16254SOL    HW150595   0.333  10.740   7.430
16254SOL    HW250596   0.462  10.673   7.388
16255SOL     OW50597   4.863   9.848  11.951
16255SOL    HW150598   4.777   9.860  11.911
16255SOL    HW250599   4.922   9.835  11.876
16256SOL     OW50600   6.160  14.804  12.106
16256SOL    HW150601   6.198  14.719  12.081
16256SOL    HW250602   6.236  14.859  12.125
16257SOL     OW50603  13.510   6.577   5.703
16257SOL    HW150604  13.474   6.547   5.620
16257SOL    HW250605  13.486   6.670   5.707
16258SOL     OW50606   8.949   1.790   6.758
16258SOL    HW150607   8.880   1.833   6.809
16258SOL    HW250608   8.970   1.853   6.689
16259SOL     OW50609   1.056   6.543   5.083
16259SOL    HW150610   1.054   6.638   5.099
16259SOL    HW250611   1.008   6.505   5.156
16260SOL     OW50612  13.257  10.955  10.175
16260SOL    HW150613  13.178  10.962  10.121
16260SOL    HW250614  13.227  10.916  10.257
16261SOL     OW50615   4.157   7.084   0.789
16261SOL    HW150616   4.126   7.168   0.822
16261SOL    HW250617   4.100   7.019   0.831
16262SOL     OW50618   0.727   4.915   2.710
16262SOL    HW150619   0.765   4.912   2.623
16262SOL    HW250620   0.746   4.830   2.748
16263SOL     OW50621   8.943   6.274   5.891
16263SOL    HW150622   8.871   6.242   5.837
16263SOL    HW250623   8.914   6.261   5.981
16264SOL     OW50624   6.199   5.184  10.791
16264SOL    HW150625   6.291   5.167  10.814
16264SOL    HW250626   6.203   5.206  10.697
16265SOL     OW50627   8.811   7.739  13.583
16265SOL    HW150628   8.859   7.656  13.583
16265SOL    HW250629   8.747   7.729  13.512
16266SOL     OW50630   9.291   5.515   5.198
16266SOL    HW150631   9.368   5.559   5.163
16266SOL    HW250632   9.315   5.491   5.287
16267SOL     OW50633   7.709   6.710   7.703
16267SOL    HW150634   7.755   6.660   7.636
16267SOL    HW250635   7.629   6.660   7.721
16268SOL     OW50636   0.647   7.812  11.178
16268SOL    HW150637   0.592   7.839  11.252
16268SOL    HW250638   0.616   7.865  11.105
16269SOL     OW50639  12.215  13.631   4.461
16269SOL    HW150640  12.188  13.613   4.551
16269SOL    HW250641  12.243  13.722   4.462
16270SOL     OW50642  14.006  10.004   1.211
16270SOL    HW150643  14.042  10.004   1.299
16270SOL    HW250644  13.988  10.096   1.192
16271SOL     OW50645   3.209   6.229   4.317
16271SOL    HW150646   3.228   6.234   4.223
16271SOL    HW250647   3.166   6.312   4.338
16272SOL     OW50648   4.302   7.903   5.950
16272SOL    HW150649   4.356   7.979   5.970
16272SOL    HW250650   4.355   7.828   5.976
16273SOL     OW50651  10.614   2.157  10.600
16273SOL    HW150652  10.626   2.188  10.690
16273SOL    HW250653  10.564   2.226  10.557
16274SOL     OW50654   3.285   0.526   7.998
16274SOL    HW150655   3.288   0.431   7.990
16274SOL    HW250656   3.192   0.547   7.999
16275SOL     OW50657  13.092  10.599   0.151
16275SOL    HW150658  13.141  10.538   0.206
16275SOL    HW250659  13.011  10.553   0.130
16276SOL     OW50660   0.289   5.847   2.057
16276SOL    HW150661   0.305   5.874   2.147
16276SOL    HW250662   0.252   5.924   2.014
16277SOL     OW50663  11.716  13.084   1.927
16277SOL    HW150664  11.629  13.079   1.886
16277SOL    HW250665  11.719  13.008   1.985
16278SOL     OW50666   7.653   5.300   6.356
16278SOL    HW150667   7.635   5.290   6.450
16278SOL    HW250668   7.567   5.313   6.316
16279SOL     OW50669   6.507   2.548   4.394
16279SOL    HW150670   6.464   2.562   4.310
16279SOL    HW250671   6.453   2.595   4.458
16280SOL     OW50672   9.934   3.045  12.346
16280SOL    HW150673   9.854   3.036  12.398
16280SOL    HW250674   9.969   3.131  12.371
16281SOL     OW50675   0.862  14.860   4.242
16281SOL    HW150676   0.938  14.855   4.183
16281SOL    HW250677   0.849  14.769   4.271
16282SOL     OW50678   4.296  11.238   9.141
16282SOL    HW150679   4.300  11.333   9.143
16282SOL    HW250680   4.208  11.218   9.108
16283SOL     OW50681   4.477   5.397  12.063
16283SOL    HW150682   4.524   5.445  11.994
16283SOL    HW250683   4.449   5.466  12.124
16284SOL     OW50684   1.378   1.751  14.313
16284SOL    HW150685   1.412   1.701  14.387
16284SOL    HW250686   1.317   1.813  14.353
16285SOL     OW50687   8.222   5.961  11.119
16285SOL    HW150688   8.182   5.946  11.033
16285SOL    HW250689   8.156   5.935  11.182
16286SOL     OW50690   8.946   6.665   3.994
16286SOL    HW150691   8.898   6.585   3.974
16286SOL    HW250692   9.006   6.676   3.920
16287SOL     OW50693   1.457  11.099   1.866
16287SOL    HW150694   1.461  11.194   1.853
16287SOL    HW250695   1.500  11.063   1.789
16288SOL     OW50696   0.874   7.279   5.028
16288SOL    HW150697   0.823   7.311   5.102
16288SOL    HW250698   0.960   7.319   5.038
16289SOL     OW50699  11.147  11.511   2.107
16289SOL    HW150700  11.197  11.579   2.062
16289SOL    HW250701  11.062  11.509   2.063
16290SOL     OW50702   5.235   9.146  10.446
16290SOL    HW150703   5.204   9.120  10.360
16290SOL    HW250704   5.170   9.111  10.507
16291SOL     OW50705  14.174   4.157   3.629
16291SOL    HW150706  14.266   4.147   3.606
16291SOL    HW250707  14.131   4.177   3.546
16292SOL     OW50708  12.397  11.758   0.794
16292SOL    HW150709  12.322  11.774   0.736
16292SOL    HW250710  12.453  11.699   0.744
16293SOL     OW50711   9.874   2.156  10.723
16293SOL    HW150712   9.805   2.108  10.677
16293SOL    HW250713   9.889   2.105  10.803
16294SOL     OW50714   9.723   2.912   8.438
16294SOL    HW150715   9.640   2.955   8.458
16294SOL    HW250716   9.731   2.920   8.343
16295SOL     OW50717  11.535   7.763  11.820
16295SOL    HW150718  11.498   7.829  11.763
16295SOL    HW250719  11.577   7.700  11.760
16296SOL     OW50720  12.982   4.228   2.724
16296SOL    HW150721  12.989   4.306   2.669
16296SOL    HW250722  13.056   4.234   2.784
16297SOL     OW50723   4.499  14.238   9.210
16297SOL    HW150724   4.563  14.303   9.182
16297SOL    HW250725   4.546  14.183   9.272
16298SOL     OW50726   5.873  12.737   5.424
16298SOL    HW150727   5.908  12.816   5.466
16298SOL    HW250728   5.802  12.709   5.482
16299SOL     OW50729  10.191   7.084  12.204
16299SOL    HW150730  10.280   7.118  12.217
16299SOL    HW250731  10.189   7.061  12.111
16300SOL     OW50732  11.035   9.304  11.123
16300SOL    HW150733  11.126   9.277  11.108
16300SOL    HW250734  11.040   9.369  11.192
16301SOL     OW50735   2.331   0.782   3.636
16301SOL    HW150736   2.360   0.692   3.655
16301SOL    HW250737   2.237   0.773   3.620
16302SOL     OW50738  12.566   5.035   6.241
16302SOL    HW150739  12.598   4.947   6.259
16302SOL    HW250740  12.470   5.027   6.244
16303SOL     OW50741  12.618   0.834  14.743
16303SOL    HW150742  12.604   0.773  14.816
16303SOL    HW250743  12.671   0.904  14.780
16304SOL     OW50744  12.989   2.786   7.085
16304SOL    HW150745  12.986   2.870   7.130
16304SOL    HW250746  13.081   2.777   7.058
16305SOL     OW50747   1.079   7.782  12.247
16305SOL    HW150748   1.062   7.864  12.201
16305SOL    HW250749   1.065   7.803  12.339
16306SOL     OW50750   1.838   3.808   9.792
16306SOL    HW150751   1.789   3.827   9.712
16306SOL    HW250752   1.873   3.720   9.779
16307SOL     OW50753   3.874  12.921   2.328
16307SOL    HW150754   3.953  12.890   2.284
16307SOL    HW250755   3.847  12.998   2.278
16308SOL     OW50756   7.729  14.650   9.147
16308SOL    HW150757   7.802  14.622   9.093
16308SOL    HW250758   7.671  14.574   9.151
16309SOL     OW50759  10.760   1.427   4.561
16309SOL    HW150760  10.689   1.471   4.514
16309SOL    HW250761  10.725   1.409   4.648
16310SOL     OW50762   4.617  11.075   7.074
16310SOL    HW150763   4.682  11.140   7.046
16310SOL    HW250764   4.556  11.069   7.000
16311SOL     OW50765   6.431   8.913   6.013
16311SOL    HW150766   6.494   8.941   6.081
16311SOL    HW250767   6.425   8.988   5.954
16312SOL     OW50768  11.805   0.753   8.488
16312SOL    HW150769  11.870   0.819   8.514
16312SOL    HW250770  11.810   0.688   8.558
16313SOL     OW50771   3.609   9.739   4.707
16313SOL    HW150772   3.632   9.670   4.769
16313SOL    HW250773   3.679   9.736   4.641
16314SOL     OW50774  10.264   8.348  12.254
16314SOL    HW150775  10.242   8.338  12.161
16314SOL    HW250776  10.186   8.320  12.301
16315SOL     OW50777   5.996   3.494  13.086
16315SOL    HW150778   6.004   3.446  13.004
16315SOL    HW250779   6.022   3.432  13.154
16316SOL     OW50780   0.103  10.526   2.655
16316SOL    HW150781   0.155  10.569   2.722
16316SOL    HW250782   0.061  10.452   2.700
16317SOL     OW50783  11.845   9.793   1.211
16317SOL    HW150784  11.786   9.814   1.283
16317SOL    HW250785  11.793   9.739   1.152
16318SOL     OW50786  13.771   8.026   9.840
16318SOL    HW150787  13.694   8.014   9.894
16318SOL    HW250788  13.738   8.065   9.759
16319SOL     OW50789  11.441  10.562  12.117
16319SOL    HW150790  11.346  10.569  12.115
16319SOL    HW250791  11.472  10.649  12.141
16320SOL     OW50792   7.127   5.504  10.155
16320SOL    HW150793   7.163   5.453  10.228
16320SOL    HW250794   7.182   5.482  10.080
16321SOL     OW50795   6.633   8.814   9.974
16321SOL    HW150796   6.634   8.909   9.985
16321SOL    HW250797   6.602   8.800   9.885
16322SOL     OW50798  13.699  10.798   6.590
16322SOL    HW150799  13.635  10.845   6.644
16322SOL    HW250800  13.721  10.720   6.642
16323SOL     OW50801   1.703   6.699   6.048
16323SOL    HW150802   1.749   6.655   6.119
16323SOL    HW250803   1.772   6.723   5.986
16324SOL     OW50804   5.216  11.760  12.890
16324SOL    HW150805   5.225  11.852  12.866
16324SOL    HW250806   5.278  11.747  12.962
16325SOL     OW50807   8.350  13.475  13.020
16325SOL    HW150808   8.268  13.520  13.043
16325SOL    HW250809   8.403  13.480  13.100
16326SOL     OW50810  14.821  12.487  11.819
16326SOL    HW150811  14.763  12.512  11.747
16326SOL    HW250812  14.765  12.484  11.896
16327SOL     OW50813  10.663   9.415   2.643
16327SOL    HW150814  10.682   9.439   2.553
16327SOL    HW250815  10.570   9.432   2.654
16328SOL     OW50816  10.262  13.039  14.356
16328SOL    HW150817  10.353  13.060  14.337
16328SOL    HW250818  10.214  13.120  14.339
16329SOL     OW50819  14.627   3.876  14.508
16329SOL    HW150820  14.627   3.810  14.578
16329SOL    HW250821  14.630   3.825  14.427
16330SOL     OW50822   1.457  10.388   5.764
16330SOL    HW150823   1.413  10.307   5.791
16330SOL    HW250824   1.389  10.438   5.718
16331SOL     OW50825   7.294   8.437   5.397
16331SOL    HW150826   7.274   8.479   5.480
16331SOL    HW250827   7.257   8.495   5.331
16332SOL     OW50828   5.908   1.836   6.896
16332SOL    HW150829   5.944   1.907   6.843
16332SOL    HW250830   5.974   1.820   6.964
16333SOL     OW50831   3.954   3.505  12.795
16333SOL    HW150832   3.898   3.581  12.783
16333SOL    HW250833   3.897   3.430  12.779
16334SOL     OW50834  13.866  14.021   5.639
16334SOL    HW150835  13.780  14.040   5.677
16334SOL    HW250836  13.870  13.926   5.634
16335SOL     OW50837   9.317  14.174   9.281
16335SOL    HW150838   9.311  14.082   9.308
16335SOL    HW250839   9.244  14.186   9.219
16336SOL     OW50840  13.774   0.278   8.978
16336SOL    HW150841  13.686   0.262   8.945
16336SOL    HW250842  13.771   0.251   9.070
16337SOL     OW50843   0.317   6.471   9.820
16337SOL    HW150844   0.338   6.556   9.859
16337SOL    HW250845   0.292   6.416   9.894
16338SOL     OW50846   7.436   6.859   3.826
16338SOL    HW150847   7.469   6.889   3.741
16338SOL    HW250848   7.341   6.866   3.818
16339SOL     OW50849   3.828  10.889   2.773
16339SOL    HW150850   3.863  10.823   2.833
16339SOL    HW250851   3.838  10.851   2.686
16340SOL     OW50852   8.474   8.869   6.885
16340SOL    HW150853   8.564   8.852   6.857
16340SOL    HW250854   8.484   8.913   6.970
16341SOL     OW50855   6.965  10.014   2.334
16341SOL    HW150856   7.044  10.016   2.387
16341SOL    HW250857   6.958   9.923   2.304
16342SOL     OW50858   1.538  14.491  13.231
16342SOL    HW150859   1.611  14.552  13.219
16342SOL    HW250860   1.578  14.405  13.223
16343SOL     OW50861   9.583   2.342   3.879
16343SOL    HW150862   9.566   2.278   3.949
16343SOL    HW250863   9.613   2.420   3.925
16344SOL     OW50864   2.793   5.409   1.693
16344SOL    HW150865   2.871   5.462   1.711
16344SOL    HW250866   2.730   5.437   1.760
16345SOL     OW50867   4.621   4.998  14.554
16345SOL    HW150868   4.587   5.052  14.625
16345SOL    HW250869   4.569   5.024  14.478
16346SOL     OW50870  10.706   9.035   9.415
16346SOL    HW150871  10.676   8.973   9.481
16346SOL    HW250872  10.649   9.112   9.426
16347SOL     OW50873   7.784   0.165   7.647
16347SOL    HW150874   7.849   0.234   7.658
16347SOL    HW250875   7.728   0.195   7.576
16348SOL     OW50876   8.072  11.962  10.925
16348SOL    HW150877   8.134  11.891  10.910
16348SOL    HW250878   7.991  11.932  10.883
16349SOL     OW50879  12.397  12.490   6.021
16349SOL    HW150880  12.338  12.546   6.072
16349SOL    HW250881  12.464  12.462   6.084
16350SOL     OW50882  12.300  12.524  10.156
16350SOL    HW150883  12.316  12.609  10.116
16350SOL    HW250884  12.233  12.541  10.223
16351SOL     OW50885   6.662   8.613   0.611
16351SOL    HW150886   6.753   8.643   0.612
16351SOL    HW250887   6.664   8.532   0.560
16352SOL     OW50888  10.253  13.616   0.730
16352SOL    HW150889  10.237  13.532   0.772
16352SOL    HW250890  10.178  13.627   0.671
16353SOL     OW50891   7.554   6.277   6.963
16353SOL    HW150892   7.622   6.344   6.948
16353SOL    HW250893   7.603   6.198   6.985
16354SOL     OW50894  13.782   6.487  12.282
16354SOL    HW150895  13.732   6.406  12.266
16354SOL    HW250896  13.782   6.532  12.198
16355SOL     OW50897  10.356   0.903   4.650
16355SOL    HW150898  10.269   0.914   4.687
16355SOL    HW250899  10.340   0.883   4.558
16356SOL     OW50900   2.638   1.957   3.586
16356SOL    HW150901   2.666   1.895   3.519
16356SOL    HW250902   2.583   2.019   3.539
16357SOL     OW50903  12.604   6.150   7.050
16357SOL    HW150904  12.597   6.245   7.038
16357SOL    HW250905  12.544   6.113   6.984
16358SOL     OW50906  10.659   4.616   1.115
16358SOL    HW150907  10.689   4.542   1.169
16358SOL    HW250908  10.705   4.692   1.150
16359SOL     OW50909   1.989   9.518   3.371
16359SOL    HW150910   2.052   9.453   3.340
16359SOL    HW250911   1.904   9.485   3.343
16360SOL     OW50912  14.497  13.716  14.058
16360SOL    HW150913  14.508  13.622  14.071
16360SOL    HW250914  14.565  13.757  14.112
16361SOL     OW50915   8.174   8.655   9.226
16361SOL    HW150916   8.097   8.695   9.266
16361SOL    HW250917   8.202   8.589   9.290
16362SOL     OW50918   1.708   8.366  14.730
16362SOL    HW150919   1.645   8.295  14.720
16362SOL    HW250920   1.662   8.432  14.782
16363SOL     OW50921  11.817   1.400  13.490
16363SOL    HW150922  11.773   1.480  13.519
16363SOL    HW250923  11.896   1.430  13.446
16364SOL     OW50924  13.447  14.318  12.969
16364SOL    HW150925  13.454  14.231  12.930
16364SOL    HW250926  13.374  14.311  13.030
16365SOL     OW50927  13.123   9.788  14.284
16365SOL    HW150928  13.166   9.718  14.333
16365SOL    HW250929  13.032   9.784  14.311
16366SOL     OW50930   6.922   8.505  13.229
16366SOL    HW150931   6.927   8.450  13.151
16366SOL    HW250932   6.831   8.497  13.258
16367SOL     OW50933   5.927   1.966  11.850
16367SOL    HW150934   5.836   1.991  11.833
16367SOL    HW250935   5.935   1.878  11.813
16368SOL     OW50936   3.321   5.600   7.773
16368SOL    HW150937   3.280   5.664   7.714
16368SOL    HW250938   3.316   5.517   7.725
16369SOL     OW50939  13.581  14.294   7.217
16369SOL    HW150940  13.603  14.203   7.238
16369SOL    HW250941  13.648  14.346   7.261
16370SOL     OW50942   7.600  12.391   8.936
16370SOL    HW150943   7.537  12.463   8.928
16370SOL    HW250944   7.640  12.385   8.849
16371SOL     OW50945   5.924   3.898  12.932
16371SOL    HW150946   6.009   3.874  12.896
16371SOL    HW250947   5.868   3.909  12.856
16372SOL     OW50948   8.151   0.646   8.025
16372SOL    HW150949   8.170   0.558   8.057
16372SOL    HW250950   8.139   0.698   8.104
16373SOL     OW50951   6.495  14.790  13.072
16373SOL    HW150952   6.493  14.695  13.064
16373SOL    HW250953   6.587  14.812  13.084
16374SOL     OW50954   3.244  14.865   0.039
16374SOL    HW150955   3.177  14.863  14.850
16374SOL    HW250956   3.220   0.061   0.094
16375SOL     OW50957   5.794   0.828   2.177
16375SOL    HW150958   5.742   0.750   2.161
16375SOL    HW250959   5.760   0.864   2.259
16376SOL     OW50960   1.506  13.658   4.455
16376SOL    HW150961   1.514  13.562   4.459
16376SOL    HW250962   1.583  13.690   4.502
16377SOL     OW50963   0.404  12.328   0.491
16377SOL    HW150964   0.460  12.386   0.542
16377SOL    HW250965   0.369  12.267   0.555
16378SOL     OW50966   6.670  14.399  12.563
16378SOL    HW150967   6.747  14.347  12.539
16378SOL    HW250968   6.705  14.472  12.615
16379SOL     OW50969  13.559  14.611   3.285
16379SOL    HW150970  13.474  14.642   3.253
16379SOL    HW250971  13.556  14.627   3.380
16380SOL     OW50972   9.246   6.504   2.289
16380SOL    HW150973   9.328   6.508   2.338
16380SOL    HW250974   9.230   6.595   2.263
16381SOL     OW50975   5.434  13.124   9.840
16381SOL    HW150976   5.477  13.086   9.917
16381SOL    HW250977   5.390  13.203   9.874
16382SOL     OW50978   0.316  10.043   9.160
16382SOL    HW150979   0.347  10.092   9.236
16382SOL    HW250980   0.389  10.046   9.099
16383SOL     OW50981   2.356   1.054   0.035
16383SOL    HW150982   2.275   1.005   0.020
16383SOL    HW250983   2.385   1.025   0.121
16384SOL     OW50984   4.758  14.281   3.822
16384SOL    HW150985   4.825  14.349   3.823
16384SOL    HW250986   4.689  14.317   3.765
16385SOL     OW50987   7.729  12.603   8.061
16385SOL    HW150988   7.821  12.602   8.032
16385SOL    HW250989   7.729  12.663   8.136
16386SOL     OW50990   8.749   8.257   7.398
16386SOL    HW150991   8.698   8.306   7.333
16386SOL    HW250992   8.840   8.269   7.372
16387SOL     OW50993   0.561   1.267  12.451
16387SOL    HW150994   0.615   1.249  12.528
16387SOL    HW250995   0.541   1.360  12.457
16388SOL     OW50996   5.843  12.241  14.284
16388SOL    HW150997   5.891  12.167  14.247
16388SOL    HW250998   5.912  12.302  14.311
16389SOL     OW50999   8.647   1.537   3.450
16389SOL    HW151000   8.600   1.517   3.531
16389SOL    HW251001   8.740   1.536   3.475
16390SOL     OW51002  14.630   8.965   2.046
16390SOL    HW151003  14.663   8.942   2.133
16390SOL    HW251004  14.662   8.895   1.989
16391SOL     OW51005   1.849   8.250   2.743
16391SOL    HW151006   1.777   8.265   2.681
16391SOL    HW251007   1.881   8.338   2.763
16392SOL     OW51008   7.962  10.124  13.355
16392SOL    HW151009   8.046  10.169  13.346
16392SOL    HW251010   7.985  10.034  13.379
16393SOL     OW51011  14.756  13.707   5.675
16393SOL    HW151012  14.672  13.753   5.678
16393SOL    HW251013  14.737  13.621   5.713
16394SOL     OW51014  13.366   2.654   0.167
16394SOL    HW151015  13.374   2.562   0.142
16394SOL    HW251016  13.294   2.655   0.231
16395SOL     OW51017   2.353  11.109   1.850
16395SOL    HW151018   2.429  11.127   1.906
16395SOL    HW251019   2.280  11.154   1.892
16396SOL     OW51020   4.581   3.180   1.260
16396SOL    HW151021   4.529   3.235   1.201
16396SOL    HW251022   4.520   3.113   1.290
16397SOL     OW51023   8.841   3.201   4.790
16397SOL    HW151024   8.925   3.175   4.829
16397SOL    HW251025   8.844   3.168   4.701
16398SOL     OW51026   2.451   1.147  14.428
16398SOL    HW151027   2.443   1.236  14.392
16398SOL    HW251028   2.463   1.161  14.522
16399SOL     OW51029   7.878   8.800   4.283
16399SOL    HW151030   7.927   8.877   4.313
16399SOL    HW251031   7.788   8.832   4.273
16400SOL     OW51032   7.949  12.209   2.306
16400SOL    HW151033   7.977  12.131   2.355
16400SOL    HW251034   7.909  12.173   2.226
16401SOL     OW51035   0.230   3.647  13.392
16401SOL    HW151036   0.175   3.628  13.468
16401SOL    HW251037   0.240   3.742  13.392
16402SOL     OW51038   7.559  10.005  13.224
16402SOL    HW151039   7.562  10.075  13.289
16402SOL    HW251040   7.648  10.002  13.188
16403SOL     OW51041   6.465  13.009   5.922
16403SOL    HW151042   6.405  12.936   5.908
16403SOL    HW251043   6.433  13.051   6.002
16404SOL     OW51044   1.859  14.879  14.818
16404SOL    HW151045   1.879  14.854  14.728
16404SOL    HW251046   1.838  14.796  14.862
16405SOL     OW51047   2.557  13.725  13.873
16405SOL    HW151048   2.481  13.723  13.931
16405SOL    HW251049   2.559  13.814  13.839
16406SOL     OW51050   0.594  11.431   1.225
16406SOL    HW151051   0.585  11.526   1.218
16406SOL    HW251052   0.573  11.398   1.138
16407SOL     OW51053   3.826   7.885   1.796
16407SOL    HW151054   3.809   7.809   1.742
16407SOL    HW251055   3.893   7.934   1.748
16408SOL     OW51056   2.476   3.789   8.990
16408SOL    HW151057   2.392   3.755   9.020
16408SOL    HW251058   2.541   3.749   9.048
16409SOL     OW51059   4.163   3.403   9.775
16409SOL    HW151060   4.237   3.443   9.729
16409SOL    HW251061   4.190   3.312   9.788
16410SOL     OW51062   4.425   3.026   5.362
16410SOL    HW151063   4.396   2.941   5.329
16410SOL    HW251064   4.499   3.050   5.306
16411SOL     OW51065   8.087   3.425   1.089
16411SOL    HW151066   8.068   3.517   1.108
16411SOL    HW251067   8.007   3.392   1.048
16412SOL     OW51068   3.152  12.505   8.381
16412SOL    HW151069   3.058  12.492   8.377
16412SOL    HW251070   3.179  12.461   8.462
16413SOL     OW51071   6.134   9.797  14.021
16413SOL    HW151072   6.216   9.836  13.991
16413SOL    HW251073   6.069   9.867  14.011
16414SOL     OW51074   5.584   5.495   7.430
16414SOL    HW151075   5.517   5.555   7.399
16414SOL    HW251076   5.544   5.451   7.505
16415SOL     OW51077   9.447  11.240   0.013
16415SOL    HW151078   9.372  11.220  14.835
16415SOL    HW251079   9.507  11.167   0.000
16416SOL     OW51080   6.296   2.881   6.199
16416SOL    HW151081   6.207   2.852   6.179
16416SOL    HW251082   6.340   2.803   6.235
16417SOL     OW51083  10.061  11.265   9.866
16417SOL    HW151084   9.985  11.209   9.880
16417SOL    HW251085  10.083  11.298   9.953
16418SOL     OW51086   4.562   1.872   2.620
16418SOL    HW151087   4.548   1.921   2.539
16418SOL    HW251088   4.528   1.928   2.689
16419SOL     OW51089   0.419   6.495   8.111
16419SOL    HW151090   0.367   6.452   8.042
16419SOL    HW251091   0.412   6.589   8.091
16420SOL     OW51092   1.580   0.196  10.559
16420SOL    HW151093   1.609   0.221  10.647
16420SOL    HW251094   1.637   0.244  10.500
16421SOL     OW51095  12.501   5.617  14.570
16421SOL    HW151096  12.572   5.666  14.527
16421SOL    HW251097  12.423   5.671  14.558
16422SOL     OW51098   2.819  11.136  10.039
16422SOL    HW151099   2.725  11.118  10.047
16422SOL    HW251100   2.841  11.111   9.949
16423SOL     OW51101  10.582  11.245   3.944
16423SOL    HW151102  10.602  11.242   3.850
16423SOL    HW251103  10.490  11.270   3.948
16424SOL     OW51104   1.241   3.043  11.501
16424SOL    HW151105   1.251   3.119  11.559
16424SOL    HW251106   1.268   3.075  11.415
16425SOL     OW51107   5.156   4.409  14.156
16425SOL    HW151108   5.236   4.371  14.119
16425SOL    HW251109   5.094   4.336  14.158
16426SOL     OW51110  10.450   6.103  10.261
16426SOL    HW151111  10.392   6.167  10.219
16426SOL    HW251112  10.404   6.020  10.251
16427SOL     OW51113  13.123   6.948   1.316
16427SOL    HW151114  13.108   7.042   1.317
16427SOL    HW251115  13.096   6.918   1.403
16428SOL     OW51116   0.902   5.805   4.162
16428SOL    HW151117   0.911   5.729   4.219
16428SOL    HW251118   0.985   5.811   4.115
16429SOL     OW51119   3.842  11.342   4.777
16429SOL    HW151120   3.760  11.368   4.819
16429SOL    HW251121   3.816  11.305   4.693
16430SOL     OW51122  12.244   6.498   7.406
16430SOL    HW151123  12.218   6.477   7.495
16430SOL    HW251124  12.316   6.437   7.387
16431SOL     OW51125  12.069   2.620  12.585
16431SOL    HW151126  12.017   2.629  12.665
16431SOL    HW251127  12.083   2.526  12.576
16432SOL     OW51128   3.107  13.204   0.153
16432SOL    HW151129   3.153  13.139   0.101
16432SOL    HW251130   3.112  13.285   0.101
16433SOL     OW51131   0.306  12.081  10.144
16433SOL    HW151132   0.357  12.134  10.083
16433SOL    HW251133   0.353  11.998  10.149
16434SOL     OW51134   4.712  13.988   1.705
16434SOL    HW151135   4.784  13.965   1.764
16434SOL    HW251136   4.679  13.905   1.673
16435SOL     OW51137  12.253  13.408   4.921
16435SOL    HW151138  12.210  13.353   4.856
16435SOL    HW251139  12.294  13.346   4.981
16436SOL     OW51140   9.480   4.150  11.324
16436SOL    HW151141   9.509   4.059  11.331
16436SOL    HW251142   9.491   4.185  11.412
16437SOL     OW51143  14.877   9.565   9.654
16437SOL    HW151144  14.850   9.649   9.618
16437SOL    HW251145  14.804   9.506   9.634
16438SOL     OW51146   3.492  12.048  12.140
16438SOL    HW151147   3.528  12.133  12.114
16438SOL    HW251148   3.568  11.996  12.164
16439SOL     OW51149   1.320  12.583  11.037
16439SOL    HW151150   1.344  12.675  11.030
16439SOL    HW251151   1.371  12.550  11.110
16440SOL     OW51152   6.367   1.606  12.441
16440SOL    HW151153   6.429   1.538  12.468
16440SOL    HW251154   6.422   1.675  12.404
16441SOL     OW51155   9.475  13.462  13.490
16441SOL    HW151156   9.477  13.377  13.535
16441SOL    HW251157   9.389  13.465  13.448
16442SOL     OW51158  14.464   1.700  14.674
16442SOL    HW151159  14.491   1.619  14.717
16442SOL    HW251160  14.369   1.692  14.666
16443SOL     OW51161   6.187   0.570  13.891
16443SOL    HW151162   6.119   0.585  13.826
16443SOL    HW251163   6.238   0.652  13.891
16444SOL     OW51164  14.503  13.728  10.490
16444SOL    HW151165  14.541  13.765  10.410
16444SOL    HW251166  14.558  13.652  10.509
16445SOL     OW51167   6.396  14.320  12.557
16445SOL    HW151168   6.362  14.381  12.623
16445SOL    HW251169   6.491  14.330  12.563
16446SOL     OW51170   6.790  14.700   9.187
16446SOL    HW151171   6.873  14.703   9.235
16446SOL    HW251172   6.749  14.618   9.215
16447SOL     OW51173   8.765   2.482   3.765
16447SOL    HW151174   8.724   2.499   3.850
16447SOL    HW251175   8.736   2.554   3.710
16448SOL     OW51176   7.101   0.844   3.570
16448SOL    HW151177   7.125   0.757   3.538
16448SOL    HW251178   7.167   0.863   3.637
16449SOL     OW51179  14.374  13.391  13.385
16449SOL    HW151180  14.426  13.314  13.406
16449SOL    HW251181  14.429  13.465  13.409
16450SOL     OW51182   3.598   1.686   5.547
16450SOL    HW151183   3.509   1.708   5.573
16450SOL    HW251184   3.607   1.722   5.459
16451SOL     OW51185  12.143   5.132   5.698
16451SOL    HW151186  12.208   5.137   5.768
16451SOL    HW251187  12.193   5.142   5.617
16452SOL     OW51188   9.524   0.967   1.106
16452SOL    HW151189   9.603   0.923   1.074
16452SOL    HW251190   9.458   0.950   1.040
16453SOL     OW51191  13.423  13.940   8.859
16453SOL    HW151192  13.350  14.002   8.859
16453SOL    HW251193  13.479  13.968   8.932
16454SOL     OW51194   3.692  14.726   7.248
16454SOL    HW151195   3.641  14.777   7.311
16454SOL    HW251196   3.757  14.679   7.302
16455SOL     OW51197  14.764  11.517   4.320
16455SOL    HW151198  14.705  11.585   4.288
16455SOL    HW251199  14.846  11.563   4.337
16456SOL     OW51200   4.220   9.668   2.659
16456SOL    HW151201   4.179   9.723   2.725
16456SOL    HW251202   4.183   9.581   2.674
16457SOL     OW51203   3.535   9.926   7.943
16457SOL    HW151204   3.615   9.951   7.896
16457SOL    HW251205   3.478  10.003   7.936
16458SOL     OW51206   5.891  12.662   2.127
16458SOL    HW151207   5.979  12.699   2.132
16458SOL    HW251208   5.889  12.616   2.042
16459SOL     OW51209   3.518  10.780  13.185
16459SOL    HW151210   3.476  10.758  13.102
16459SOL    HW251211   3.457  10.748  13.251
16460SOL     OW51212  12.387  12.479   4.286
16460SOL    HW151213  12.318  12.528   4.242
16460SOL    HW251214  12.398  12.524   4.370
16461SOL     OW51215  11.105   9.267  13.775
16461SOL    HW151216  11.018   9.239  13.803
16461SOL    HW251217  11.096   9.360  13.755
16462SOL     OW51218   5.416   0.356  10.121
16462SOL    HW151219   5.354   0.407  10.069
16462SOL    HW251220   5.499   0.404  10.114
16463SOL     OW51221   1.529   3.017   9.476
16463SOL    HW151222   1.559   2.945   9.420
16463SOL    HW251223   1.463   3.062   9.423
16464SOL     OW51224   6.380  12.022  12.400
16464SOL    HW151225   6.397  11.930  12.419
16464SOL    HW251226   6.305  12.044  12.455
16465SOL     OW51227  10.165   2.936   4.238
16465SOL    HW151228  10.110   2.939   4.317
16465SOL    HW251229  10.240   2.991   4.260
16466SOL     OW51230  12.032   6.797   4.440
16466SOL    HW151231  12.040   6.804   4.535
16466SOL    HW251232  11.956   6.742   4.425
16467SOL     OW51233  10.002   4.239  10.166
16467SOL    HW151234   9.925   4.183  10.169
16467SOL    HW251235  10.070   4.188  10.210
16468SOL     OW51236   9.176   2.714  10.293
16468SOL    HW151237   9.102   2.760  10.255
16468SOL    HW251238   9.146   2.624  10.306
16469SOL     OW51239   4.324   6.247   2.299
16469SOL    HW151240   4.318   6.331   2.254
16469SOL    HW251241   4.387   6.196   2.248
16470SOL     OW51242   7.024   9.528   8.522
16470SOL    HW151243   6.970   9.558   8.449
16470SOL    HW251244   7.032   9.433   8.509
16471SOL     OW51245   3.813  14.201   4.409
16471SOL    HW151246   3.730  14.159   4.432
16471SOL    HW251247   3.871  14.128   4.386
16472SOL     OW51248  13.318   0.146   4.936
16472SOL    HW151249  13.323   0.242   4.943
16472SOL    HW251250  13.230   0.124   4.967
16473SOL     OW51251  11.812   8.705   5.582
16473SOL    HW151252  11.883   8.764   5.556
16473SOL    HW251253  11.791   8.656   5.502
16474SOL     OW51254  13.521   7.332   7.909
16474SOL    HW151255  13.583   7.291   7.849
16474SOL    HW251256  13.435   7.300   7.881
16475SOL     OW51257   5.026   8.830   3.515
16475SOL    HW151258   5.086   8.858   3.584
16475SOL    HW251259   5.009   8.738   3.533
16476SOL     OW51260   0.298   8.501  13.759
16476SOL    HW151261   0.309   8.533  13.670
16476SOL    HW251262   0.348   8.562  13.813
16477SOL     OW51263  11.839  13.020  14.145
16477SOL    HW151264  11.849  12.973  14.227
16477SOL    HW251265  11.929  13.038  14.116
16478SOL     OW51266   4.482   2.872  11.875
16478SOL    HW151267   4.418   2.935  11.909
16478SOL    HW251268   4.564   2.896  11.918
16479SOL     OW51269   7.455   7.715   9.784
16479SOL    HW151270   7.465   7.619   9.785
16479SOL    HW251271   7.371   7.730   9.827
16480SOL     OW51272   9.585  14.447   0.909
16480SOL    HW151273   9.626  14.403   0.835
16480SOL    HW251274   9.524  14.382   0.945
16481SOL     OW51275   3.752   1.312  10.219
16481SOL    HW151276   3.845   1.317  10.196
16481SOL    HW251277   3.745   1.235  10.274
16482SOL     OW51278   5.788   1.026  11.153
16482SOL    HW151279   5.779   1.115  11.120
16482SOL    HW251280   5.791   0.971  11.075
16483SOL     OW51281   0.111  10.310   6.495
16483SOL    HW151282   0.187  10.253   6.483
16483SOL    HW251283   0.036  10.251   6.499
16484SOL     OW51284   0.341   2.966   0.935
16484SOL    HW151285   0.404   2.982   1.006
16484SOL    HW251286   0.270   3.029   0.952
16485SOL     OW51287  11.174   1.667   3.710
16485SOL    HW151288  11.212   1.671   3.622
16485SOL    HW251289  11.241   1.622   3.762
16486SOL     OW51290   9.600   2.309   7.802
16486SOL    HW151291   9.605   2.298   7.897
16486SOL    HW251292   9.506   2.308   7.783
16487SOL     OW51293  11.522   0.752  12.293
16487SOL    HW151294  11.499   0.820  12.357
16487SOL    HW251295  11.501   0.670  12.337
16488SOL     OW51296   9.858   0.999   1.164
16488SOL    HW151297   9.839   1.071   1.104
16488SOL    HW251298   9.845   0.920   1.112
16489SOL     OW51299   8.585   8.858  12.689
16489SOL    HW151300   8.544   8.789  12.742
16489SOL    HW251301   8.586   8.822  12.601
16490SOL     OW51302   0.910   7.833   1.460
16490SOL    HW151303   0.919   7.870   1.373
16490SOL    HW251304   0.981   7.769   1.466
16491SOL     OW51305   6.074   2.170   3.802
16491SOL    HW151306   6.131   2.121   3.861
16491SOL    HW251307   5.986   2.137   3.821
16492SOL     OW51308   7.716   5.822  11.541
16492SOL    HW151309   7.724   5.829  11.446
16492SOL    HW251310   7.805   5.830  11.573
16493SOL     OW51311   8.023  10.118   0.310
16493SOL    HW151312   8.086  10.175   0.355
16493SOL    HW251313   8.056  10.029   0.325
16494SOL     OW51314   0.586   2.954  13.915
16494SOL    HW151315   0.613   2.912  13.996
16494SOL    HW251316   0.606   3.047  13.929
16495SOL     OW51317  12.568  13.316   3.787
16495SOL    HW151318  12.539  13.230   3.817
16495SOL    HW251319  12.488  13.359   3.757
16496SOL     OW51320   4.535   3.742   2.220
16496SOL    HW151321   4.503   3.770   2.135
16496SOL    HW251322   4.456   3.732   2.273
16497SOL     OW51323   5.515   5.213   6.804
16497SOL    HW151324   5.547   5.294   6.844
16497SOL    HW251325   5.540   5.145   6.866
16498SOL     OW51326   2.373   5.569   7.548
16498SOL    HW151327   2.428   5.633   7.594
16498SOL    HW251328   2.402   5.485   7.581
16499SOL     OW51329   6.978   4.983   4.241
16499SOL    HW151330   7.073   4.984   4.240
16499SOL    HW251331   6.953   5.066   4.282
16500SOL     OW51332  13.948  13.413   4.185
16500SOL    HW151333  13.901  13.456   4.256
16500SOL    HW251334  14.034  13.393   4.222
16501SOL     OW51335  14.012  11.149  12.315
16501SOL    HW151336  13.981  11.127  12.402
16501SOL    HW251337  14.100  11.185  12.328
16502SOL     OW51338   3.959   9.191  10.198
16502SOL    HW151339   3.949   9.096  10.185
16502SOL    HW251340   3.883   9.217  10.250
16503SOL     OW51341   1.651  11.486   1.605
16503SOL    HW151342   1.703  11.512   1.681
16503SOL    HW251343   1.703  11.417   1.563
16504SOL     OW51344   1.350   0.549   7.827
16504SOL    HW151345   1.387   0.536   7.739
16504SOL    HW251346   1.328   0.460   7.856
16505SOL     OW51347  13.103  10.078  10.296
16505SOL    HW151348  13.072  10.168  10.281
16505SOL    HW251349  13.054  10.049  10.374
16506SOL     OW51350   5.616  10.359   1.025
16506SOL    HW151351   5.656  10.329   0.943
16506SOL    HW251352   5.670  10.433   1.052
16507SOL     OW51353   7.669   1.875   9.860
16507SOL    HW151354   7.582   1.840   9.878
16507SOL    HW251355   7.669   1.962   9.901
16508SOL     OW51356  14.520  12.687   1.939
16508SOL    HW151357  14.438  12.728   1.966
16508SOL    HW251358  14.539  12.622   2.006
16509SOL     OW51359   5.942   1.893   3.959
16509SOL    HW151360   5.916   1.808   3.994
16509SOL    HW251361   5.862   1.927   3.917
16510SOL     OW51362   9.258  12.952   7.224
16510SOL    HW151363   9.178  13.003   7.207
16510SOL    HW251364   9.254  12.933   7.317
16511SOL     OW51365   1.578   8.712   3.382
16511SOL    HW151366   1.502   8.698   3.439
16511SOL    HW251367   1.582   8.807   3.371
16512SOL     OW51368   9.232   3.135   2.338
16512SOL    HW151369   9.192   3.174   2.261
16512SOL    HW251370   9.326   3.152   2.328
16513SOL     OW51371   2.825  12.646  14.615
16513SOL    HW151372   2.894  12.671  14.676
16513SOL    HW251373   2.840  12.699  14.537
16514SOL     OW51374   1.019  13.823   7.634
16514SOL    HW151375   0.968  13.780   7.703
16514SOL    HW251376   0.977  13.796   7.553
16515SOL     OW51377  13.205  12.159   3.164
16515SOL    HW151378  13.164  12.244   3.148
16515SOL    HW251379  13.225  12.159   3.257
16516SOL     OW51380   7.103  14.383   8.198
16516SOL    HW151381   7.015  14.373   8.234
16516SOL    HW251382   7.088  14.398   8.104
16517SOL     OW51383   3.301  13.492  13.649
16517SOL    HW151384   3.394  13.511  13.634
16517SOL    HW251385   3.257  13.574  13.629
16518SOL     OW51386  10.792   3.462  12.893
16518SOL    HW151387  10.877   3.469  12.849
16518SOL    HW251388  10.737   3.528  12.850
16519SOL     OW51389  10.269   1.155   0.147
16519SOL    HW151390  10.310   1.146   0.062
16519SOL    HW251391  10.259   1.249   0.160
16520SOL     OW51392   1.603  13.126   7.958
16520SOL    HW151393   1.632  13.194   7.896
16520SOL    HW251394   1.548  13.068   7.905
16521SOL     OW51395   8.389   0.627  13.780
16521SOL    HW151396   8.396   0.676  13.861
16521SOL    HW251397   8.337   0.550  13.802
16522SOL     OW51398   3.387   0.731   6.063
16522SOL    HW151399   3.396   0.638   6.042
16522SOL    HW251400   3.295   0.742   6.084
16523SOL     OW51401   5.204  11.905   0.977
16523SOL    HW151402   5.154  11.950   1.045
16523SOL    HW251403   5.143  11.840   0.942
16524SOL     OW51404  13.842   1.261   5.380
16524SOL    HW151405  13.938   1.259   5.383
16524SOL    HW251406  13.821   1.350   5.352
16525SOL     OW51407   0.974   1.530   2.593
16525SOL    HW151408   1.046   1.481   2.554
16525SOL    HW251409   1.015   1.587   2.658
16526SOL     OW51410   7.813   9.783   1.699
16526SOL    HW151411   7.740   9.727   1.725
16526SOL    HW251412   7.837   9.752   1.611
16527SOL     OW51413  12.257   6.656   8.800
16527SOL    HW151414  12.190   6.675   8.734
16527SOL    HW251415  12.339   6.689   8.762
16528SOL     OW51416  11.346   9.422  14.477
16528SOL    HW151417  11.341   9.360  14.404
16528SOL    HW251418  11.439   9.445  14.483
16529SOL     OW51419   5.450  11.337  14.623
16529SOL    HW151420   5.451  11.416  14.677
16529SOL    HW251421   5.362  11.301  14.634
16530SOL     OW51422   9.017   5.619   4.084
16530SOL    HW151423   9.060   5.611   3.998
16530SOL    HW251424   8.943   5.559   4.079
16531SOL     OW51425  13.311   8.626  13.579
16531SOL    HW151426  13.230   8.676  13.566
16531SOL    HW251427  13.380   8.684  13.548
16532SOL     OW51428   4.686   4.563  13.392
16532SOL    HW151429   4.702   4.553  13.298
16532SOL    HW251430   4.596   4.595  13.398
16533SOL     OW51431   4.616   0.535  12.217
16533SOL    HW151432   4.658   0.449  12.220
16533SOL    HW251433   4.636   0.575  12.302
16534SOL     OW51434   7.722  12.802  14.615
16534SOL    HW151435   7.640  12.809  14.664
16534SOL    HW251436   7.694  12.783  14.525
16535SOL     OW51437   2.570   9.281   5.634
16535SOL    HW151438   2.607   9.316   5.553
16535SOL    HW251439   2.476   9.301   5.629
16536SOL     OW51440  11.991   7.820   9.266
16536SOL    HW151441  11.932   7.858   9.201
16536SOL    HW251442  11.953   7.844   9.350
16537SOL     OW51443   9.548   5.502   6.983
16537SOL    HW151444   9.503   5.486   6.900
16537SOL    HW251445   9.640   5.514   6.959
16538SOL     OW51446   0.403   9.299  12.147
16538SOL    HW151447   0.433   9.258  12.065
16538SOL    HW251448   0.310   9.318  12.132
16539SOL     OW51449   3.096  14.590   0.705
16539SOL    HW151450   3.155  14.637   0.646
16539SOL    HW251451   3.030  14.655   0.731
16540SOL     OW51452   9.898   1.767   5.238
16540SOL    HW151453   9.911   1.833   5.307
16540SOL    HW251454   9.874   1.817   5.161
16541SOL     OW51455   3.926  14.539   0.927
16541SOL    HW151456   3.965  14.626   0.916
16541SOL    HW251457   3.999  14.478   0.920
16542SOL     OW51458  11.399  11.757   8.327
16542SOL    HW151459  11.449  11.712   8.258
16542SOL    HW251460  11.439  11.728   8.408
16543SOL     OW51461   5.139   8.524   2.316
16543SOL    HW151462   5.118   8.446   2.368
16543SOL    HW251463   5.108   8.503   2.228
16544SOL     OW51464   3.946  11.095   0.036
16544SOL    HW151465   3.900  11.056   0.111
16544SOL    HW251466   3.876  11.109  14.851
16545SOL     OW51467  14.743  11.687  11.616
16545SOL    HW151468  14.778  11.713  11.531
16545SOL    HW251469  14.781  11.749  11.678
16546SOL     OW51470   3.659  11.021  14.834
16546SOL    HW151471   3.606  11.099  14.820
16546SOL    HW251472   3.678  11.022   0.048
16547SOL     OW51473   0.173   4.228  13.043
16547SOL    HW151474   0.203   4.304  13.093
16547SOL    HW251475   0.079   4.225  13.059
16548SOL     OW51476   2.944   8.578   0.114
16548SOL    HW151477   2.889   8.598   0.189
16548SOL    HW251478   2.958   8.662   0.070
16549SOL     OW51479   5.506   4.895   5.420
16549SOL    HW151480   5.582   4.844   5.391
16549SOL    HW251481   5.467   4.841   5.489
16550SOL     OW51482   7.785   1.672  10.704
16550SOL    HW151483   7.840   1.678  10.782
16550SOL    HW251484   7.712   1.731  10.721
16551SOL     OW51485   0.562   5.338  11.683
16551SOL    HW151486   0.617   5.326  11.761
16551SOL    HW251487   0.620   5.319  11.609
16552SOL     OW51488   4.107  12.394   9.949
16552SOL    HW151489   4.138  12.475   9.908
16552SOL    HW251490   4.185  12.357   9.990
16553SOL     OW51491   6.812  13.022   9.296
16553SOL    HW151492   6.795  13.068   9.378
16553SOL    HW251493   6.900  13.049   9.271
16554SOL     OW51494   6.329   7.460   4.834
16554SOL    HW151495   6.403   7.515   4.859
16554SOL    HW251496   6.355   7.420   4.752
16555SOL     OW51497   1.374   5.975   5.866
16555SOL    HW151498   1.372   5.950   5.774
16555SOL    HW251499   1.461   6.011   5.880
16556SOL     OW51500  10.817   2.078  13.755
16556SOL    HW151501  10.741   2.107  13.805
16556SOL    HW251502  10.847   1.998  13.800
16557SOL     OW51503   2.015   2.903  13.658
16557SOL    HW151504   1.975   2.955  13.588
16557SOL    HW251505   2.098   2.947  13.676
16558SOL     OW51506   6.738  12.891  12.796
16558SOL    HW151507   6.654  12.852  12.773
16558SOL    HW251508   6.773  12.835  12.865
16559SOL     OW51509   2.944   9.338   0.583
16559SOL    HW151510   3.037   9.341   0.605
16559SOL    HW251511   2.931   9.413   0.525
16560SOL     OW51512   0.994   1.932  12.878
16560SOL    HW151513   0.976   2.024  12.898
16560SOL    HW251514   0.939   1.884  12.941
16561SOL     OW51515   8.985   9.448   6.348
16561SOL    HW151516   8.981   9.480   6.258
16561SOL    HW251517   8.894   9.443   6.376
16562SOL     OW51518   0.466  11.149   3.221
16562SOL    HW151519   0.520  11.209   3.273
16562SOL    HW251520   0.451  11.196   3.139
16563SOL     OW51521   4.720   2.177   7.984
16563SOL    HW151522   4.766   2.160   7.902
16563SOL    HW251523   4.634   2.135   7.972
16564SOL     OW51524   4.209  13.035   6.415
16564SOL    HW151525   4.289  13.070   6.374
16564SOL    HW251526   4.215  13.063   6.506
16565SOL     OW51527   4.031   6.570   9.672
16565SOL    HW151528   3.989   6.650   9.641
16565SOL    HW251529   4.120   6.574   9.636
16566SOL     OW51530   8.678   9.023   7.936
16566SOL    HW151531   8.613   9.000   7.869
16566SOL    HW251532   8.681   8.948   7.995
16567SOL     OW51533   0.670  11.242   7.739
16567SOL    HW151534   0.689  11.188   7.662
16567SOL    HW251535   0.633  11.323   7.703
16568SOL     OW51536   1.162   5.599   1.072
16568SOL    HW151537   1.186   5.592   1.164
16568SOL    HW251538   1.211   5.675   1.040
16569SOL     OW51539   3.279  14.731   3.765
16569SOL    HW151540   3.341  14.661   3.788
16569SOL    HW251541   3.202  14.713   3.819
16570SOL     OW51542   5.986   2.469  13.154
16570SOL    HW151543   5.926   2.544  13.148
16570SOL    HW251544   6.060   2.493  13.099
16571SOL     OW51545   9.432  13.732   3.524
16571SOL    HW151546   9.428  13.648   3.479
16571SOL    HW251547   9.509  13.726   3.580
16572SOL     OW51548  14.557   0.513   2.936
16572SOL    HW151549  14.525   0.453   2.868
16572SOL    HW251550  14.651   0.495   2.942
16573SOL     OW51551   5.558   7.308  13.820
16573SOL    HW151552   5.547   7.386  13.766
16573SOL    HW251553   5.473   7.295  13.861
16574SOL     OW51554  11.345   3.993   7.968
16574SOL    HW151555  11.393   3.912   7.987
16574SOL    HW251556  11.294   4.010   8.048
16575SOL     OW51557   9.014   9.472  12.473
16575SOL    HW151558   9.031   9.424  12.555
16575SOL    HW251559   8.967   9.550  12.501
16576SOL     OW51560   9.737  10.969   4.315
16576SOL    HW151561   9.832  10.978   4.321
16576SOL    HW251562   9.703  11.018   4.390
16577SOL     OW51563  11.331  10.589   0.324
16577SOL    HW151564  11.418  10.620   0.348
16577SOL    HW251565  11.343  10.542   0.242
16578SOL     OW51566  13.478   7.271   7.085
16578SOL    HW151567  13.436   7.198   7.039
16578SOL    HW251568  13.417   7.293   7.155
16579SOL     OW51569   3.525  11.083  12.226
16579SOL    HW151570   3.617  11.100  12.247
16579SOL    HW251571   3.521  10.989  12.208
16580SOL     OW51572   9.222   4.011   2.830
16580SOL    HW151573   9.303   4.028   2.878
16580SOL    HW251574   9.250   4.000   2.739
16581SOL     OW51575   1.198   7.621   9.522
16581SOL    HW151576   1.211   7.635   9.616
16581SOL    HW251577   1.219   7.705   9.482
16582SOL     OW51578  14.860  10.736   1.170
16582SOL    HW151579   0.041  10.679   1.121
16582SOL    HW251580  14.775  10.723   1.128
16583SOL     OW51581  11.396  12.556  14.282
16583SOL    HW151582  11.411  12.492  14.351
16583SOL    HW251583  11.320  12.606  14.311
16584SOL     OW51584   9.892  10.766   3.010
16584SOL    HW151585   9.957  10.781   3.079
16584SOL    HW251586   9.944  10.760   2.930
16585SOL     OW51587   1.498   5.635  11.501
16585SOL    HW151588   1.481   5.727  11.525
16585SOL    HW251589   1.466   5.585  11.576
16586SOL     OW51590   9.276   6.449   1.720
16586SOL    HW151591   9.319   6.383   1.775
16586SOL    HW251592   9.290   6.419   1.631
16587SOL     OW51593   8.854   9.860   4.317
16587SOL    HW151594   8.874   9.863   4.223
16587SOL    HW251595   8.830   9.951   4.338
16588SOL     OW51596  12.546   2.849   6.750
16588SOL    HW151597  12.561   2.844   6.655
16588SOL    HW251598  12.542   2.942   6.768
16589SOL     OW51599   6.083   4.399   6.027
16589SOL    HW151600   6.169   4.398   6.070
16589SOL    HW251601   6.021   4.373   6.096
16590SOL     OW51602   1.305   7.853   0.515
16590SOL    HW151603   1.387   7.866   0.562
16590SOL    HW251604   1.260   7.938   0.522
16591SOL     OW51605   8.548  11.190   3.259
16591SOL    HW151606   8.473  11.241   3.288
16591SOL    HW251607   8.579  11.233   3.180
16592SOL     OW51608  14.319   8.962  10.467
16592SOL    HW151609  14.231   8.933  10.446
16592SOL    HW251610  14.322   9.053  10.437
16593SOL     OW51611  14.066   9.071  12.904
16593SOL    HW151612  14.128   9.140  12.928
16593SOL    HW251613  14.065   9.072  12.809
16594SOL     OW51614   1.998  11.878   4.435
16594SOL    HW151615   2.033  11.833   4.358
16594SOL    HW251616   1.923  11.825   4.461
16595SOL     OW51617   3.266   5.658   5.800
16595SOL    HW151618   3.214   5.738   5.805
16595SOL    HW251619   3.284   5.646   5.707
16596SOL     OW51620   1.186  13.421   7.634
16596SOL    HW151621   1.230  13.487   7.688
16596SOL    HW251622   1.169  13.465   7.551
16597SOL     OW51623   9.856  11.372   9.680
16597SOL    HW151624   9.884  11.353   9.770
16597SOL    HW251625   9.872  11.291   9.632
16598SOL     OW51626  14.482  13.001   7.989
16598SOL    HW151627  14.399  13.048   7.984
16598SOL    HW251628  14.518  13.006   7.901
16599SOL     OW51629   6.226   4.156   2.144
16599SOL    HW151630   6.226   4.067   2.178
16599SOL    HW251631   6.286   4.203   2.202
16600SOL     OW51632   1.123   8.808   7.892
16600SOL    HW151633   1.183   8.882   7.904
16600SOL    HW251634   1.080   8.797   7.977
16601SOL     OW51635   8.716  11.648  13.067
16601SOL    HW151636   8.806  11.616  13.076
16601SOL    HW251637   8.678  11.639  13.154
16602SOL     OW51638   5.844  12.739  13.152
16602SOL    HW151639   5.898  12.706  13.080
16602SOL    HW251640   5.787  12.667  13.175
16603SOL     OW51641   0.716  13.628  11.935
16603SOL    HW151642   0.784  13.623  11.867
16603SOL    HW251643   0.697  13.537  11.957
16604SOL     OW51644   7.615   3.458   9.390
16604SOL    HW151645   7.603   3.421   9.477
16604SOL    HW251646   7.565   3.539   9.392
16605SOL     OW51647   7.097   9.921   2.974
16605SOL    HW151648   7.052   9.912   2.890
16605SOL    HW251649   7.094  10.015   2.992
16606SOL     OW51650  10.035   3.975   0.829
16606SOL    HW151651  10.116   4.018   0.856
16606SOL    HW251652  10.051   3.882   0.845
16607SOL     OW51653  13.944   9.227   7.463
16607SOL    HW151654  14.006   9.158   7.440
16607SOL    HW251655  13.975   9.260   7.547
16608SOL     OW51656  10.899  12.349   0.048
16608SOL    HW151657  10.872  12.257   0.042
16608SOL    HW251658  10.818  12.398   0.036
16609SOL     OW51659  13.168  10.396  11.554
16609SOL    HW151660  13.255  10.393  11.514
16609SOL    HW251661  13.136  10.306  11.547
16610SOL     OW51662  14.878   1.078   9.547
16610SOL    HW151663   0.081   1.077   9.596
16610SOL    HW251664  14.866   1.169   9.521
16611SOL     OW51665   9.661   2.124   1.570
16611SOL    HW151666   9.664   2.156   1.480
16611SOL    HW251667   9.712   2.187   1.620
16612SOL     OW51668  14.004   9.452   2.766
16612SOL    HW151669  13.925   9.504   2.750
16612SOL    HW251670  14.068   9.515   2.798
16613SOL     OW51671   7.075  13.787   1.033
16613SOL    HW151672   7.110  13.712   0.986
16613SOL    HW251673   7.089  13.766   1.126
16614SOL     OW51674   3.820  13.729   1.862
16614SOL    HW151675   3.852  13.768   1.780
16614SOL    HW251676   3.767  13.654   1.834
16615SOL     OW51677  11.242  14.707   6.709
16615SOL    HW151678  11.319  14.652   6.725
16615SOL    HW251679  11.221  14.691   6.618
16616SOL     OW51680   5.679  10.378   6.476
16616SOL    HW151681   5.766  10.390   6.513
16616SOL    HW251682   5.692  10.384   6.381
16617SOL     OW51683  14.842  11.331  10.188
16617SOL    HW151684  14.849  11.270  10.115
16617SOL    HW251685  14.754  11.317  10.223
16618SOL     OW51686   6.663  11.782  11.652
16618SOL    HW151687   6.611  11.818  11.723
16618SOL    HW251688   6.618  11.701  11.627
16619SOL     OW51689   2.178   1.826  13.122
16619SOL    HW151690   2.103   1.771  13.145
16619SOL    HW251691   2.140   1.902  13.077
16620SOL     OW51692   7.991   6.360   9.606
16620SOL    HW151693   7.942   6.350   9.687
16620SOL    HW251694   7.968   6.447   9.574
16621SOL     OW51695  10.188  11.300   2.421
16621SOL    HW151696  10.183  11.299   2.517
16621SOL    HW251697  10.134  11.226   2.394
16622SOL     OW51698   4.010   0.075   8.422
16622SOL    HW151699   4.061   0.018   8.480
16622SOL    HW251700   3.971   0.140   8.480
16623SOL     OW51701   6.583  10.694   1.216
16623SOL    HW151702   6.505  10.680   1.269
16623SOL    HW251703   6.550  10.717   1.129
16624SOL     OW51704   7.441  12.581   8.655
16624SOL    HW151705   7.417  12.672   8.635
16624SOL    HW251706   7.416  12.569   8.746
16625SOL     OW51707   6.356   4.552   1.022
16625SOL    HW151708   6.431   4.495   1.004
16625SOL    HW251709   6.338   4.596   0.939
16626SOL     OW51710   6.698   1.581   2.479
16626SOL    HW151711   6.661   1.518   2.541
16626SOL    HW251712   6.678   1.545   2.393
16627SOL     OW51713   2.183   2.046   7.732
16627SOL    HW151714   2.250   2.113   7.747
16627SOL    HW251715   2.129   2.048   7.811
16628SOL     OW51716   2.064   5.747  12.295
16628SOL    HW151717   2.004   5.821  12.287
16628SOL    HW251718   2.036   5.687  12.226
16629SOL     OW51719   2.749   3.553   4.635
16629SOL    HW151720   2.773   3.597   4.554
16629SOL    HW251721   2.763   3.460   4.617
16630SOL     OW51722   9.971   9.724   1.257
16630SOL    HW151723   9.933   9.719   1.169
16630SOL    HW251724   9.915   9.786   1.304
16631SOL     OW51725   2.070   1.395   9.344
16631SOL    HW151726   2.078   1.441   9.261
16631SOL    HW251727   1.999   1.440   9.390
16632SOL     OW51728  12.444   3.106  14.623
16632SOL    HW151729  12.428   3.032  14.682
16632SOL    HW251730  12.528   3.086  14.582
16633SOL     OW51731   7.533   3.917  12.120
16633SOL    HW151732   7.536   4.012  12.108
16633SOL    HW251733   7.561   3.903  12.210
16634SOL     OW51734   8.587  13.618   6.976
16634SOL    HW151735   8.492  13.624   6.976
16634SOL    HW251736   8.605  13.529   6.945
16635SOL     OW51737   4.852  14.372   0.863
16635SOL    HW151738   4.774  14.361   0.809
16635SOL    HW251739   4.925  14.352   0.805
16636SOL     OW51740   3.552   3.464   2.958
16636SOL    HW151741   3.498   3.432   2.886
16636SOL    HW251742   3.517   3.421   3.036
16637SOL     OW51743  11.210   1.525  13.701
16637SOL    HW151744  11.141   1.537  13.636
16637SOL    HW251745  11.238   1.614  13.723
16638SOL     OW51746  14.765   8.226   8.710
16638SOL    HW151747  14.713   8.203   8.633
16638SOL    HW251748  14.851   8.249   8.675
16639SOL     OW51749   0.200   2.599  10.260
16639SOL    HW151750   0.257   2.667  10.297
16639SOL    HW251751   0.249   2.518  10.272
16640SOL     OW51752  13.399  12.407   4.115
16640SOL    HW151753  13.428  12.498   4.107
16640SOL    HW251754  13.441  12.362   4.041
16641SOL     OW51755   9.205   6.194   4.765
16641SOL    HW151756   9.230   6.164   4.677
16641SOL    HW251757   9.131   6.253   4.750
16642SOL     OW51758  13.994   7.550   7.016
16642SOL    HW151759  14.038   7.475   7.056
16642SOL    HW251760  14.065   7.602   6.979
16643SOL     OW51761  13.256   5.706  14.325
16643SOL    HW151762  13.319   5.642  14.357
16643SOL    HW251763  13.255   5.694  14.230
16644SOL     OW51764   2.512   2.613  12.402
16644SOL    HW151765   2.483   2.662  12.479
16644SOL    HW251766   2.470   2.527  12.410
16645SOL     OW51767   9.161   0.693   8.732
16645SOL    HW151768   9.113   0.647   8.801
16645SOL    HW251769   9.159   0.785   8.759
16646SOL     OW51770  13.333  11.174   4.863
16646SOL    HW151771  13.284  11.099   4.830
16646SOL    HW251772  13.425  11.152   4.844
16647SOL     OW51773  14.242   0.960   4.835
16647SOL    HW151774  14.318   1.007   4.799
16647SOL    HW251775  14.240   0.986   4.927
16648SOL     OW51776   9.047  11.696   7.480
16648SOL    HW151777   8.994  11.712   7.558
16648SOL    HW251778   9.048  11.601   7.470
16649SOL     OW51779   2.908  12.850  13.481
16649SOL    HW151780   2.891  12.785  13.549
16649SOL    HW251781   2.829  12.851  13.428
16650SOL     OW51782   6.413   5.789   3.529
16650SOL    HW151783   6.397   5.871   3.483
16650SOL    HW251784   6.428   5.725   3.460
16651SOL     OW51785  10.336   0.276   0.744
16651SOL    HW151786  10.343   0.366   0.777
16651SOL    HW251787  10.287   0.229   0.811
16652SOL     OW51788   8.216  14.414   6.162
16652SOL    HW151789   8.144  14.360   6.130
16652SOL    HW251790   8.191  14.436   6.252
16653SOL     OW51791   2.136   8.574   4.392
16653SOL    HW151792   2.149   8.493   4.342
16653SOL    HW251793   2.091   8.633   4.331
16654SOL     OW51794   3.223   4.607   5.154
16654SOL    HW151795   3.277   4.607   5.075
16654SOL    HW251796   3.275   4.558   5.218
16655SOL     OW51797   6.795   2.412   2.985
16655SOL    HW151798   6.815   2.374   2.900
16655SOL    HW251799   6.772   2.337   3.040
16656SOL     OW51800   2.515   6.323  11.286
16656SOL    HW151801   2.494   6.271  11.209
16656SOL    HW251802   2.456   6.399  11.281
16657SOL     OW51803   9.724   4.034   9.897
16657SOL    HW151804   9.747   3.950   9.860
16657SOL    HW251805   9.733   4.096   9.825
16658SOL     OW51806  12.586   1.539   3.381
16658SOL    HW151807  12.539   1.547   3.298
16658SOL    HW251808  12.542   1.466   3.426
16659SOL     OW51809   1.666   6.066   1.933
16659SOL    HW151810   1.662   6.134   2.001
16659SOL    HW251811   1.575   6.058   1.902
16660SOL     OW51812   3.460   0.128   8.955
16660SOL    HW151813   3.528   0.083   8.906
16660SOL    HW251814   3.454   0.215   8.914
16661SOL     OW51815   5.745   0.401   6.957
16661SOL    HW151816   5.758   0.405   6.862
16661SOL    HW251817   5.823   0.443   6.993
16662SOL     OW51818   6.783   4.576  13.998
16662SOL    HW151819   6.869   4.580  13.957
16662SOL    HW251820   6.801   4.583  14.092
16663SOL     OW51821   8.907   6.726  14.700
16663SOL    HW151822   8.886   6.633  14.697
16663SOL    HW251823   8.946   6.745  14.615
16664SOL     OW51824  12.998   4.785  13.441
16664SOL    HW151825  12.951   4.802  13.359
16664SOL    HW251826  13.005   4.690  13.445
16665SOL     OW51827   2.007   5.211  11.891
16665SOL    HW151828   1.924   5.257  11.877
16665SOL    HW251829   2.047   5.256  11.965
16666SOL     OW51830   8.314   5.203  14.086
16666SOL    HW151831   8.397   5.158  14.068
16666SOL    HW251832   8.306   5.268  14.016
16667SOL     OW51833   2.740   6.792   3.769
16667SOL    HW151834   2.703   6.771   3.855
16667SOL    HW251835   2.754   6.887   3.771
16668SOL     OW51836   1.740   3.933  12.862
16668SOL    HW151837   1.808   3.960  12.923
16668SOL    HW251838   1.673   3.894  12.917
16669SOL     OW51839   2.383   0.977   4.218
16669SOL    HW151840   2.460   0.981   4.274
16669SOL    HW251841   2.344   0.891   4.237
16670SOL     OW51842   4.108   1.206   9.665
16670SOL    HW151843   4.178   1.225   9.727
16670SOL    HW251844   4.153   1.173   9.587
16671SOL     OW51845   0.569   6.221   9.542
16671SOL    HW151846   0.585   6.136   9.583
16671SOL    HW251847   0.536   6.199   9.455
16672SOL     OW51848   5.752   0.758   3.314
16672SOL    HW151849   5.794   0.691   3.260
16672SOL    HW251850   5.820   0.825   3.326
16673SOL     OW51851   2.458  14.324  13.040
16673SOL    HW151852   2.484  14.250  13.094
16673SOL    HW251853   2.524  14.329  12.972
16674SOL     OW51854  14.534   9.943   7.776
16674SOL    HW151855  14.624   9.938   7.808
16674SOL    HW251856  14.503  10.028   7.806
16675SOL     OW51857   2.238   2.906   7.995
16675SOL    HW151858   2.247   2.892   8.089
16675SOL    HW251859   2.221   2.819   7.959
16676SOL     OW51860   6.804   1.510  13.761
16676SOL    HW151861   6.869   1.495  13.829
16676SOL    HW251862   6.720   1.492  13.803
16677SOL     OW51863  10.870   3.765   1.516
16677SOL    HW151864  10.935   3.756   1.586
16677SOL    HW251865  10.786   3.750   1.560
16678SOL     OW51866  14.311   5.064   8.892
16678SOL    HW151867  14.229   5.042   8.847
16678SOL    HW251868  14.285   5.077   8.983
16679SOL     OW51869  11.745  11.257   1.278
16679SOL    HW151870  11.781  11.328   1.330
16679SOL    HW251871  11.686  11.299   1.216
16680SOL     OW51872   0.137  11.399   8.956
16680SOL    HW151873   0.067  11.334   8.960
16680SOL    HW251874   0.102  11.468   8.900
16681SOL     OW51875  12.294   3.075   6.499
16681SOL    HW151876  12.263   3.135   6.432
16681SOL    HW251877  12.292   3.125   6.580
16682SOL     OW51878   0.053   5.764   7.281
16682SOL    HW151879   0.031   5.836   7.222
16682SOL    HW251880  14.858   5.757   7.340
16683SOL     OW51881   0.774   9.878   9.687
16683SOL    HW151882   0.830   9.955   9.695
16683SOL    HW251883   0.718   9.897   9.612
16684SOL     OW51884   3.672  12.031  11.904
16684SOL    HW151885   3.736  11.998  11.968
16684SOL    HW251886   3.719  12.030  11.821
16685SOL     OW51887   7.444   6.875  13.076
16685SOL    HW151888   7.373   6.937  13.057
16685SOL    HW251889   7.483   6.907  13.157
16686SOL     OW51890  11.959   8.554  11.009
16686SOL    HW151891  11.975   8.639  11.051
16686SOL    HW251892  12.023   8.495  11.050
16687SOL     OW51893  10.530   4.138   1.858
16687SOL    HW151894  10.534   4.053   1.902
16687SOL    HW251895  10.604   4.138   1.798
16688SOL     OW51896   6.449   9.246  13.972
16688SOL    HW151897   6.425   9.313  13.908
16688SOL    HW251898   6.535   9.272  14.004
16689SOL     OW51899   6.214   4.462   6.265
16689SOL    HW151900   6.237   4.528   6.331
16689SOL    HW251901   6.281   4.472   6.197
16690SOL     OW51902   3.723   1.061   7.885
16690SOL    HW151903   3.713   0.969   7.909
16690SOL    HW251904   3.648   1.079   7.828
16691SOL     OW51905  11.639   1.214  13.401
16691SOL    HW151906  11.565   1.274  13.389
16691SOL    HW251907  11.714   1.271  13.417
16692SOL     OW51908   1.898   2.117  13.774
16692SOL    HW151909   1.817   2.123  13.826
16692SOL    HW251910   1.879   2.049  13.709
16693SOL     OW51911   4.568   0.806   4.841
16693SOL    HW151912   4.602   0.890   4.810
16693SOL    HW251913   4.550   0.821   4.934
16694SOL     OW51914  11.418   4.095   7.556
16694SOL    HW151915  11.474   4.173   7.560
16694SOL    HW251916  11.397   4.085   7.464
16695SOL     OW51917   5.303   7.927  12.301
16695SOL    HW151918   5.210   7.947  12.290
16695SOL    HW251919   5.318   7.852  12.243
16696SOL     OW51920   6.102   1.657  12.376
16696SOL    HW151921   6.194   1.661  12.402
16696SOL    HW251922   6.094   1.574  12.328
16697SOL     OW51923   6.928   0.877   5.422
16697SOL    HW151924   6.874   0.869   5.344
16697SOL    HW251925   6.883   0.822   5.487
16698SOL     OW51926   7.176   1.024   8.548
16698SOL    HW151927   7.261   0.979   8.550
16698SOL    HW251928   7.156   1.041   8.641
16699SOL     OW51929   3.773   0.140   1.957
16699SOL    HW151930   3.756   0.234   1.959
16699SOL    HW251931   3.713   0.103   2.023
16700SOL     OW51932   7.237   9.616   9.065
16700SOL    HW151933   7.261   9.523   9.068
16700SOL    HW251934   7.175   9.627   9.137
16701SOL     OW51935   7.343  14.184   4.789
16701SOL    HW151936   7.388  14.128   4.724
16701SOL    HW251937   7.342  14.131   4.869
16702SOL     OW51938   3.582   2.233   4.648
16702SOL    HW151939   3.637   2.270   4.717
16702SOL    HW251940   3.527   2.168   4.693
16703SOL     OW51941   9.415   0.550  12.613
16703SOL    HW151942   9.454   0.521  12.696
16703SOL    HW251943   9.334   0.594  12.638
16704SOL     OW51944  13.591   9.477  10.676
16704SOL    HW151945  13.590   9.504  10.767
16704SOL    HW251946  13.516   9.520  10.637
16705SOL     OW51947  12.854  10.292  12.445
16705SOL    HW151948  12.784  10.243  12.489
16705SOL    HW251949  12.852  10.379  12.486
16706SOL     OW51950   9.994   6.894   3.455
16706SOL    HW151951  10.014   6.984   3.429
16706SOL    HW251952   9.938   6.861   3.385
16707SOL     OW51953   9.207  11.333   6.837
16707SOL    HW151954   9.233  11.402   6.775
16707SOL    HW251955   9.240  11.252   6.797
16708SOL     OW51956  14.177  10.106   1.460
16708SOL    HW151957  14.206  10.021   1.491
16708SOL    HW251958  14.191  10.165   1.535
16709SOL     OW51959   8.653  13.757   3.333
16709SOL    HW151960   8.624  13.806   3.256
16709SOL    HW251961   8.573  13.740   3.383
16710SOL     OW51962   8.557  10.376  13.826
16710SOL    HW151963   8.524  10.422  13.902
16710SOL    HW251964   8.513  10.418  13.751
16711SOL     OW51965   0.047   3.654  10.099
16711SOL    HW151966   0.095   3.719  10.150
16711SOL    HW251967  14.860   3.705  10.051
16712SOL     OW51968   1.465  10.660  11.582
16712SOL    HW151969   1.376  10.638  11.552
16712SOL    HW251970   1.522  10.621  11.516
16713SOL     OW51971   6.546  12.780  13.599
16713SOL    HW151972   6.616  12.732  13.643
16713SOL    HW251973   6.591  12.849  13.551
16714SOL     OW51974  11.496   3.642   0.727
16714SOL    HW151975  11.448   3.560   0.716
16714SOL    HW251976  11.573   3.632   0.672
16715SOL     OW51977   0.411  10.058   2.829
16715SOL    HW151978   0.403  10.023   2.740
16715SOL    HW251979   0.456  10.141   2.818
16716SOL     OW51980   5.556  12.458   2.909
16716SOL    HW151981   5.488  12.525   2.911
16716SOL    HW251982   5.601  12.468   2.993
16717SOL     OW51983  13.312  10.336  13.008
16717SOL    HW151984  13.229  10.307  13.047
16717SOL    HW251985  13.324  10.425  13.041
16718SOL     OW51986   7.538   4.264   0.377
16718SOL    HW151987   7.448   4.232   0.372
16718SOL    HW251988   7.561   4.257   0.470
16719SOL     OW51989  10.598   6.552  11.088
16719SOL    HW151990  10.529   6.486  11.079
16719SOL    HW251991  10.602   6.570  11.182
16720SOL     OW51992  12.687  14.426   9.336
16720SOL    HW151993  12.645  14.346   9.367
16720SOL    HW251994  12.733  14.400   9.256
16721SOL     OW51995   0.682   0.320   2.365
16721SOL    HW151996   0.715   0.360   2.446
16721SOL    HW251997   0.728   0.367   2.295
16722SOL     OW51998   5.356   8.053   1.024
16722SOL    HW151999   5.329   8.135   1.065
16722SOL    HW252000   5.413   8.012   1.089
16723SOL     OW52001   7.414   8.765  10.551
16723SOL    HW152002   7.384   8.772  10.641
16723SOL    HW252003   7.509   8.774  10.555
16724SOL     OW52004  11.302  11.133   6.376
16724SOL    HW152005  11.231  11.174   6.327
16724SOL    HW252006  11.261  11.059   6.420
16725SOL     OW52007  12.867   2.474   8.219
16725SOL    HW152008  12.959   2.478   8.191
16725SOL    HW252009  12.818   2.464   8.138
16726SOL     OW52010  12.276   3.645  12.818
16726SOL    HW152011  12.334   3.593  12.874
16726SOL    HW252012  12.207   3.675  12.876
16727SOL     OW52013  11.046   6.502  14.642
16727SOL    HW152014  11.032   6.591  14.676
16727SOL    HW252015  11.141   6.488  14.652
16728SOL     OW52016   7.670   4.093   0.083
16728SOL    HW152017   7.686   4.027   0.016
16728SOL    HW252018   7.601   4.148   0.047
16729SOL     OW52019   1.905   8.752  14.467
16729SOL    HW152020   1.899   8.737  14.561
16729SOL    HW252021   1.850   8.829  14.452
16730SOL     OW52022   1.494  12.248   5.599
16730SOL    HW152023   1.450  12.329   5.624
16730SOL    HW252024   1.476  12.188   5.672
16731SOL     OW52025   7.845  14.660   4.429
16731SOL    HW152026   7.851  14.753   4.406
16731SOL    HW252027   7.933  14.637   4.459
16732SOL     OW52028   7.516   1.570   1.433
16732SOL    HW152029   7.607   1.553   1.409
16732SOL    HW252030   7.476   1.483   1.438
16733SOL     OW52031  11.880   7.041   7.396
16733SOL    HW152032  11.934   6.964   7.375
16733SOL    HW252033  11.790   7.009   7.392
16734SOL     OW52034  11.696   4.581   1.028
16734SOL    HW152035  11.627   4.636   1.065
16734SOL    HW252036  11.749   4.554   1.103
16735SOL     OW52037  10.600   2.827   8.349
16735SOL    HW152038  10.595   2.878   8.268
16735SOL    HW252039  10.683   2.855   8.390
16736SOL     OW52040   4.642  11.587  13.640
16736SOL    HW152041   4.640  11.662  13.581
16736SOL    HW252042   4.643  11.626  13.728
16737SOL     OW52043   5.501  12.234   5.656
16737SOL    HW152044   5.423  12.200   5.702
16737SOL    HW252045   5.480  12.325   5.638
16738SOL     OW52046   8.998   3.864   5.055
16738SOL    HW152047   9.076   3.815   5.027
16738SOL    HW252048   8.930   3.837   4.993
16739SOL     OW52049  14.207  11.970  11.419
16739SOL    HW152050  14.257  11.903  11.465
16739SOL    HW252051  14.121  11.970  11.462
16740SOL     OW52052   3.747   0.610   3.909
16740SOL    HW152053   3.742   0.611   3.813
16740SOL    HW252054   3.771   0.700   3.932
16741SOL     OW52055   5.387  10.603  10.600
16741SOL    HW152056   5.294  10.613  10.579
16741SOL    HW252057   5.432  10.617  10.517
16742SOL     OW52058   7.144   3.294   6.870
16742SOL    HW152059   7.126   3.375   6.822
16742SOL    HW252060   7.119   3.314   6.961
16743SOL     OW52061   5.817   1.883  10.845
16743SOL    HW152062   5.815   1.808  10.786
16743SOL    HW252063   5.909   1.907  10.851
16744SOL     OW52064  14.701   5.694   1.925
16744SOL    HW152065  14.731   5.613   1.967
16744SOL    HW252066  14.781   5.744   1.909
16745SOL     OW52067   0.793  14.698   0.612
16745SOL    HW152068   0.860  14.683   0.545
16745SOL    HW252069   0.835  14.758   0.674
16746SOL     OW52070   7.022   9.229   4.052
16746SOL    HW152071   7.092   9.208   3.990
16746SOL    HW252072   6.984   9.145   4.075
16747SOL     OW52073   6.431  11.351   1.697
16747SOL    HW152074   6.359  11.414   1.695
16747SOL    HW252075   6.469  11.361   1.785
16748SOL     OW52076   9.466   5.290  12.146
16748SOL    HW152077   9.440   5.217  12.202
16748SOL    HW252078   9.383   5.326  12.113
16749SOL     OW52079   1.049   0.818   0.052
16749SOL    HW152080   1.074   0.802   0.143
16749SOL    HW252081   0.956   0.796   0.048
16750SOL     OW52082  13.440  14.108   5.468
16750SOL    HW152083  13.460  14.070   5.382
16750SOL    HW252084  13.344  14.105   5.473
16751SOL     OW52085   0.892  11.439   1.205
16751SOL    HW152086   0.891  11.526   1.165
16751SOL    HW252087   0.800  11.412   1.208
16752SOL     OW52088   6.019   4.854   8.583
16752SOL    HW152089   5.939   4.818   8.543
16752SOL    HW252090   6.040   4.792   8.654
16753SOL     OW52091   9.617  10.994   2.492
16753SOL    HW152092   9.539  10.970   2.442
16753SOL    HW252093   9.615  11.090   2.495
16754SOL     OW52094  14.807  10.835  10.929
16754SOL    HW152095   0.009  10.819  10.978
16754SOL    HW252096  14.799  10.930  10.926
16755SOL     OW52097   9.711  13.725   9.417
16755SOL    HW152098   9.634  13.733   9.473
16755SOL    HW252099   9.764  13.801   9.440
16756SOL     OW52100   2.756   3.894   6.551
16756SOL    HW152101   2.786   3.934   6.633
16756SOL    HW252102   2.666   3.924   6.541
16757SOL     OW52103   9.790   9.954  13.728
16757SOL    HW152104   9.698   9.970  13.711
16757SOL    HW252105   9.829  10.041  13.735
16758SOL     OW52106   1.503   6.514   8.299
16758SOL    HW152107   1.447   6.568   8.356
16758SOL    HW252108   1.503   6.559   8.215
16759SOL     OW52109  10.897   0.753  12.634
16759SOL    HW152110  10.960   0.684  12.654
16759SOL    HW252111  10.814   0.707  12.621
16760SOL     OW52112   9.473  12.997   6.876
16760SOL    HW152113   9.492  13.087   6.904
16760SOL    HW252114   9.527  12.942   6.934
16761SOL     OW52115  14.165   5.883   8.045
16761SOL    HW152116  14.115   5.802   8.030
16761SOL    HW252117  14.179   5.885   8.139
16762SOL     OW52118  12.010  14.636   9.159
16762SOL    HW152119  12.052  14.582   9.225
16762SOL    HW252120  12.044  14.724   9.175
16763SOL     OW52121  12.297  10.599   3.885
16763SOL    HW152122  12.292  10.660   3.811
16763SOL    HW252123  12.265  10.516   3.850
16764SOL     OW52124   3.856   0.529  12.338
16764SOL    HW152125   3.880   0.504  12.248
16764SOL    HW252126   3.936   0.566  12.375
16765SOL     OW52127   4.345  13.162  13.705
16765SOL    HW152128   4.427  13.118  13.728
16765SOL    HW252129   4.285  13.138  13.775
16766SOL     OW52130   8.674   7.128   8.268
16766SOL    HW152131   8.681   7.052   8.210
16766SOL    HW252132   8.745   7.185   8.241
16767SOL     OW52133   5.799   1.527   5.434
16767SOL    HW152134   5.804   1.546   5.528
16767SOL    HW252135   5.719   1.475   5.424
16768SOL     OW52136  10.589  13.569  12.560
16768SOL    HW152137  10.621  13.480  12.571
16768SOL    HW252138  10.507  13.559  12.512
16769SOL     OW52139  14.356   0.085   7.595
16769SOL    HW152140  14.370   0.116   7.505
16769SOL    HW252141  14.419   0.134   7.647
16770SOL     OW52142   6.759  13.237   6.071
16770SOL    HW152143   6.792  13.151   6.043
16770SOL    HW252144   6.794  13.297   6.005
16771SOL     OW52145   2.146   2.970   2.283
16771SOL    HW152146   2.141   2.890   2.230
16771SOL    HW252147   2.239   2.988   2.291
16772SOL     OW52148   8.757   3.421   3.920
16772SOL    HW152149   8.761   3.397   3.828
16772SOL    HW252150   8.781   3.341   3.967
16773SOL     OW52151   5.048   9.684   6.090
16773SOL    HW152152   5.065   9.778   6.097
16773SOL    HW252153   5.127   9.642   6.125
16774SOL     OW52154  13.055   9.181  10.910
16774SOL    HW152155  13.123   9.215  10.852
16774SOL    HW252156  12.973   9.191  10.861
16775SOL     OW52157   5.901   9.141  12.831
16775SOL    HW152158   5.988   9.170  12.858
16775SOL    HW252159   5.867   9.094  12.908
16776SOL     OW52160  11.944  11.135   2.639
16776SOL    HW152161  12.008  11.071   2.669
16776SOL    HW252162  11.920  11.184   2.718
16777SOL     OW52163   0.607   1.382   4.876
16777SOL    HW152164   0.613   1.476   4.894
16777SOL    HW252165   0.672   1.366   4.807
16778SOL     OW52166   7.026   1.461  11.839
16778SOL    HW152167   6.944   1.450  11.792
16778SOL    HW252168   7.093   1.462  11.771
16779SOL     OW52169  12.995   7.165   7.055
16779SOL    HW152170  12.918   7.201   7.099
16779SOL    HW252171  13.033   7.105   7.119
16780SOL     OW52172   4.587   4.910  13.535
16780SOL    HW152173   4.595   4.828  13.584
16780SOL    HW252174   4.618   4.977  13.596
16781SOL     OW52175   4.884   5.557   7.425
16781SOL    HW152176   4.868   5.523   7.512
16781SOL    HW252177   4.874   5.652   7.434
16782SOL     OW52178   7.386   3.312   6.756
16782SOL    HW152179   7.379   3.282   6.665
16782SOL    HW252180   7.298   3.299   6.792
16783SOL     OW52181   1.279   0.036   1.714
16783SOL    HW152182   1.350   0.026   1.777
16783SOL    HW252183   1.285   0.127   1.685
16784SOL     OW52184  11.588   0.132  14.466
16784SOL    HW152185  11.540   0.157  14.387
16784SOL    HW252186  11.634   0.051  14.441
16785SOL     OW52187   8.205  14.037   6.494
16785SOL    HW152188   8.267  14.099   6.456
16785SOL    HW252189   8.126  14.045   6.440
16786SOL     OW52190   8.387  10.157  12.074
16786SOL    HW152191   8.373  10.113  12.158
16786SOL    HW252192   8.366  10.249  12.090
16787SOL     OW52193  13.075   6.503   8.135
16787SOL    HW152194  13.128   6.436   8.093
16787SOL    HW252195  13.007   6.524   8.070
16788SOL     OW52196   7.065   6.480   2.248
16788SOL    HW152197   7.137   6.516   2.196
16788SOL    HW252198   7.096   6.394   2.275
16789SOL     OW52199   5.205   2.125  13.914
16789SOL    HW152200   5.279   2.159  13.964
16789SOL    HW252201   5.141   2.196  13.915
16790SOL     OW52202   9.344   5.520   2.955
16790SOL    HW152203   9.326   5.494   2.864
16790SOL    HW252204   9.384   5.442   2.995
16791SOL     OW52205   3.792   7.829   5.431
16791SOL    HW152206   3.809   7.868   5.517
16791SOL    HW252207   3.874   7.840   5.384
16792SOL     OW52208   4.125  10.761   3.867
16792SOL    HW152209   4.053  10.778   3.927
16792SOL    HW252210   4.129  10.666   3.859
16793SOL     OW52211  11.709   6.701   5.225
16793SOL    HW152212  11.666   6.630   5.176
16793SOL    HW252213  11.673   6.694   5.314
16794SOL     OW52214   9.667   3.815  12.180
16794SOL    HW152215   9.622   3.735  12.207
16794SOL    HW252216   9.758   3.788  12.164
16795SOL     OW52217   7.134   3.941   0.647
16795SOL    HW152218   7.118   3.892   0.728
16795SOL    HW252219   7.137   4.032   0.675
16796SOL     OW52220   5.286   3.101   7.029
16796SOL    HW152221   5.280   3.196   7.039
16796SOL    HW252222   5.369   3.088   6.984
16797SOL     OW52223   8.330  14.110   2.094
16797SOL    HW152224   8.305  14.042   2.032
16797SOL    HW252225   8.248  14.157   2.114
16798SOL     OW52226   0.480  14.602   6.655
16798SOL    HW152227   0.533  14.589   6.576
16798SOL    HW252228   0.544  14.604   6.726
16799SOL     OW52229  12.542   9.124   6.808
16799SOL    HW152230  12.629   9.084   6.807
16799SOL    HW252231  12.503   9.099   6.724
16800SOL     OW52232   2.882   5.925   4.984
16800SOL    HW152233   2.816   5.860   5.007
16800SOL    HW252234   2.859   6.002   5.036
16801SOL     OW52235  11.053  11.674   6.546
16801SOL    HW152236  11.112  11.722   6.489
16801SOL    HW252237  10.972  11.724   6.546
16802SOL     OW52238  12.866  10.277   2.198
16802SOL    HW152239  12.783  10.291   2.152
16802SOL    HW252240  12.926  10.340   2.157
16803SOL     OW52241   6.723   6.035   3.729
16803SOL    HW152242   6.687   5.948   3.712
16803SOL    HW252243   6.674   6.067   3.805
16804SOL     OW52244   8.227   6.484  11.520
16804SOL    HW152245   8.239   6.511  11.612
16804SOL    HW252246   8.286   6.542  11.471
16805SOL     OW52247   3.955   0.542  10.533
16805SOL    HW152248   4.028   0.581  10.580
16805SOL    HW252249   3.986   0.534  10.442
16806SOL     OW52250   5.257   6.993   7.716
16806SOL    HW152251   5.271   7.087   7.713
16806SOL    HW252252   5.308   6.959   7.642
16807SOL     OW52253  13.483   7.484   4.257
16807SOL    HW152254  13.439   7.490   4.342
16807SOL    HW252255  13.413   7.460   4.196
16808SOL     OW52256   0.137   9.700   4.648
16808SOL    HW152257   0.099   9.741   4.726
16808SOL    HW252258   0.156   9.773   4.589
16809SOL     OW52259  11.168   9.873   2.119
16809SOL    HW152260  11.174   9.860   2.024
16809SOL    HW252261  11.255   9.902   2.145
16810SOL     OW52262  11.230   8.450   5.497
16810SOL    HW152263  11.167   8.378   5.491
16810SOL    HW252264  11.281   8.430   5.575
16811SOL     OW52265   9.877   6.054   1.852
16811SOL    HW152266   9.848   6.049   1.761
16811SOL    HW252267   9.970   6.074   1.846
16812SOL     OW52268   4.344  11.657   6.577
16812SOL    HW152269   4.288  11.674   6.501
16812SOL    HW252270   4.314  11.720   6.643
16813SOL     OW52271   8.139   6.595   2.966
16813SOL    HW152272   8.068   6.571   2.906
16813SOL    HW252273   8.196   6.518   2.969
16814SOL     OW52274   1.702   6.104  11.729
16814SOL    HW152275   1.673   6.028  11.779
16814SOL    HW252276   1.781   6.075  11.684
16815SOL     OW52277   0.002  13.548   0.597
16815SOL    HW152278   0.056  13.598   0.537
16815SOL    HW252279  14.876  13.602   0.676
16816SOL     OW52280  12.509   6.541   6.092
16816SOL    HW152281  12.455   6.567   6.167
16816SOL    HW252282  12.598   6.541   6.126
16817SOL     OW52283   8.049   3.901   6.377
16817SOL    HW152284   8.079   3.914   6.287
16817SOL    HW252285   8.046   3.988   6.415
16818SOL     OW52286  12.714  13.617  11.364
16818SOL    HW152287  12.781  13.655  11.307
16818SOL    HW252288  12.762  13.556  11.420
16819SOL     OW52289   9.939  10.211  11.998
16819SOL    HW152290   9.846  10.190  11.986
16819SOL    HW252291   9.941  10.266  12.076
16820SOL     OW52292   5.359  13.963   1.036
16820SOL    HW152293   5.412  13.914   0.972
16820SOL    HW252294   5.348  14.049   0.997
16821SOL     OW52295   5.103  13.787  14.216
16821SOL    HW152296   5.190  13.748  14.207
16821SOL    HW252297   5.093  13.802  14.310
16822SOL     OW52298  12.796  13.753   8.842
16822SOL    HW152299  12.821  13.701   8.766
16822SOL    HW252300  12.879  13.781   8.881
16823SOL     OW52301   3.835   1.838   5.984
16823SOL    HW152302   3.822   1.856   5.891
16823SOL    HW252303   3.763   1.780   6.008
16824SOL     OW52304   6.744   6.779   1.069
16824SOL    HW152305   6.736   6.684   1.062
16824SOL    HW252306   6.760   6.809   0.980
16825SOL     OW52307  14.386   3.528  11.123
16825SOL    HW152308  14.464   3.580  11.106
16825SOL    HW252309  14.418   3.438  11.129
16826SOL     OW52310   3.485   1.366   0.960
16826SOL    HW152311   3.451   1.393   0.875
16826SOL    HW252312   3.578   1.386   0.956
16827SOL     OW52313  13.632   1.210   8.809
16827SOL    HW152314  13.705   1.245   8.757
16827SOL    HW252315  13.564   1.276   8.803
16828SOL     OW52316  12.259   4.113   2.138
16828SOL    HW152317  12.169   4.130   2.110
16828SOL    HW252318  12.267   4.018   2.136
16829SOL     OW52319   0.147   4.634  11.321
16829SOL    HW152320   0.204   4.695  11.368
16829SOL    HW252321   0.188   4.623  11.236
16830SOL     OW52322   5.907  13.717  13.355
16830SOL    HW152323   5.959  13.661  13.298
16830SOL    HW252324   5.964  13.736  13.429
16831SOL     OW52325   2.561   8.306  14.291
16831SOL    HW152326   2.594   8.341  14.374
16831SOL    HW252327   2.468   8.288  14.309
16832SOL     OW52328  14.538   5.547   6.823
16832SOL    HW152329  14.554   5.554   6.729
16832SOL    HW252330  14.522   5.636   6.852
16833SOL     OW52331   8.060   0.358  11.666
16833SOL    HW152332   8.037   0.322  11.752
16833SOL    HW252333   8.125   0.298  11.631
16834SOL     OW52334   9.389   6.353  14.664
16834SOL    HW152335   9.415   6.386  14.750
16834SOL    HW252336   9.451   6.392  14.603
16835SOL     OW52337   8.801   6.971   1.373
16835SOL    HW152338   8.718   7.017   1.358
16835SOL    HW252339   8.778   6.897   1.430
16836SOL     OW52340   2.642  12.104   5.887
16836SOL    HW152341   2.681  12.176   5.936
16836SOL    HW252342   2.638  12.031   5.950
16837SOL     OW52343   1.148   3.806   1.688
16837SOL    HW152344   1.213   3.737   1.704
16837SOL    HW252345   1.082   3.792   1.755
16838SOL     OW52346   7.144  13.836   8.371
16838SOL    HW152347   7.087  13.798   8.304
16838SOL    HW252348   7.086  13.890   8.425
16839SOL     OW52349   7.738   2.198   5.025
16839SOL    HW152350   7.705   2.121   4.980
16839SOL    HW252351   7.804   2.165   5.085
16840SOL     OW52352  12.659   1.242  12.306
16840SOL    HW152353  12.615   1.314  12.352
16840SOL    HW252354  12.588   1.196  12.261
16841SOL     OW52355   3.656  13.140   3.917
16841SOL    HW152356   3.673  13.054   3.957
16841SOL    HW252357   3.582  13.175   3.968
16842SOL     OW52358   4.133   2.468   4.605
16842SOL    HW152359   4.207   2.416   4.637
16842SOL    HW252360   4.159   2.496   4.517
16843SOL     OW52361   5.989   5.582  12.045
16843SOL    HW152362   5.907   5.599  12.091
16843SOL    HW252363   5.984   5.635  11.966
16844SOL     OW52364   5.659  13.671  12.571
16844SOL    HW152365   5.746  13.709  12.582
16844SOL    HW252366   5.623  13.666  12.659
16845SOL     OW52367   9.769   6.774   0.103
16845SOL    HW152368   9.762   6.752   0.196
16845SOL    HW252369   9.687   6.820   0.084
16846SOL     OW52370  13.649  13.350   5.849
16846SOL    HW152371  13.626  13.365   5.757
16846SOL    HW252372  13.657  13.254   5.856
16847SOL     OW52373   4.897   9.366  12.251
16847SOL    HW152374   4.947   9.310  12.310
16847SOL    HW252375   4.963   9.401  12.191
16848SOL     OW52376  11.318   4.955   8.680
16848SOL    HW152377  11.342   5.001   8.600
16848SOL    HW252378  11.223   4.945   8.675
16849SOL     OW52379  13.208  10.606  10.299
16849SOL    HW152380  13.181  10.596  10.390
16849SOL    HW252381  13.195  10.699  10.281
16850SOL     OW52382   1.859   9.101  11.533
16850SOL    HW152383   1.776   9.139  11.563
16850SOL    HW252384   1.846   9.006  11.542
16851SOL     OW52385  14.361   0.760   0.911
16851SOL    HW152386  14.396   0.808   0.986
16851SOL    HW252387  14.359   0.825   0.840
16852SOL     OW52388   7.075   6.909   9.940
16852SOL    HW152389   7.036   6.949  10.018
16852SOL    HW252390   7.012   6.925   9.870
16853SOL     OW52391   4.722  11.162   1.358
16853SOL    HW152392   4.695  11.153   1.267
16853SOL    HW252393   4.662  11.228   1.394
16854SOL     OW52394   5.546   3.838   5.212
16854SOL    HW152395   5.573   3.835   5.304
16854SOL    HW252396   5.576   3.755   5.175
16855SOL     OW52397   3.873  12.570   2.169
16855SOL    HW152398   3.829  12.489   2.195
16855SOL    HW252399   3.875  12.623   2.248
16856SOL     OW52400   4.071  12.316   5.389
16856SOL    HW152401   4.069  12.352   5.300
16856SOL    HW252402   4.103  12.226   5.378
16857SOL     OW52403   7.955   0.163   6.173
16857SOL    HW152404   8.024   0.163   6.106
16857SOL    HW252405   7.875   0.142   6.125
16858SOL     OW52406   3.356   5.324   1.596
16858SOL    HW152407   3.261   5.314   1.582
16858SOL    HW252408   3.396   5.280   1.521
16859SOL     OW52409   8.658   3.113   0.162
16859SOL    HW152410   8.576   3.064   0.170
16859SOL    HW252411   8.725   3.052   0.192
16860SOL     OW52412  12.025   7.113   2.581
16860SOL    HW152413  12.090   7.045   2.562
16860SOL    HW252414  11.948   7.087   2.532
16861SOL     OW52415  10.138  11.856   7.013
16861SOL    HW152416  10.101  11.940   7.041
16861SOL    HW252417  10.172  11.817   7.093
16862SOL     OW52418  12.491   4.798   2.015
16862SOL    HW152419  12.526   4.798   1.926
16862SOL    HW252420  12.494   4.706   2.042
16863SOL     OW52421   9.594   5.024   6.176
16863SOL    HW152422   9.580   4.960   6.246
16863SOL    HW252423   9.527   5.091   6.192
16864SOL     OW52424   8.607  11.701  10.824
16864SOL    HW152425   8.568  11.633  10.770
16864SOL    HW252426   8.548  11.710  10.899
16865SOL     OW52427  12.542   8.599   1.044
16865SOL    HW152428  12.567   8.546   0.968
16865SOL    HW252429  12.491   8.540   1.099
16866SOL     OW52430  14.234   8.770  11.782
16866SOL    HW152431  14.181   8.693  11.803
16866SOL    HW252432  14.200   8.801  11.698
16867SOL     OW52433   6.036   4.057  14.828
16867SOL    HW152434   6.040   3.968  14.792
16867SOL    HW252435   6.066   4.047   0.040
16868SOL     OW52436  10.159   8.672  10.642
16868SOL    HW152437  10.196   8.708  10.722
16868SOL    HW252438  10.085   8.730  10.622
16869SOL     OW52439   0.367  12.863   7.071
16869SOL    HW152440   0.277  12.868   7.101
16869SOL    HW252441   0.378  12.773   7.041
16870SOL     OW52442   3.523  14.749   4.903
16870SOL    HW152443   3.578  14.680   4.866
16870SOL    HW252444   3.564  14.768   4.988
16871SOL     OW52445   3.405  12.498   8.252
16871SOL    HW152446   3.399  12.546   8.170
16871SOL    HW252447   3.327  12.524   8.301
16872SOL     OW52448   5.981   3.944   4.236
16872SOL    HW152449   5.893   3.921   4.267
16872SOL    HW252450   5.984   4.040   4.243
16873SOL     OW52451   5.845   7.603   1.639
16873SOL    HW152452   5.869   7.679   1.587
16873SOL    HW252453   5.928   7.564   1.666
16874SOL     OW52454  11.157  13.603  13.009
16874SOL    HW152455  11.106  13.603  12.928
16874SOL    HW252456  11.163  13.696  13.034
16875SOL     OW52457   1.790   6.525   2.447
16875SOL    HW152458   1.746   6.588   2.504
16875SOL    HW252459   1.871   6.569   2.420
16876SOL     OW52460  12.714   8.004   9.454
16876SOL    HW152461  12.721   8.091   9.414
16876SOL    HW252462  12.805   7.974   9.461
16877SOL     OW52463  10.131   9.233   6.789
16877SOL    HW152464  10.224   9.224   6.769
16877SOL    HW252465  10.116   9.176   6.865
16878SOL     OW52466   5.063  11.243  12.615
16878SOL    HW152467   4.974  11.214  12.595
16878SOL    HW252468   5.081  11.311  12.549
16879SOL     OW52469  12.804   1.258   2.338
16879SOL    HW152470  12.844   1.344   2.349
16879SOL    HW252471  12.768   1.260   2.249
16880SOL     OW52472   2.675   4.131  12.166
16880SOL    HW152473   2.628   4.198  12.115
16880SOL    HW252474   2.651   4.148  12.257
16881SOL     OW52475   0.562  12.629   3.183
16881SOL    HW152476   0.487  12.678   3.150
16881SOL    HW252477   0.590  12.575   3.110
16882SOL     OW52478   5.897  10.769   5.511
16882SOL    HW152479   5.893  10.844   5.570
16882SOL    HW252480   5.967  10.791   5.449
16883SOL     OW52481   8.333   0.465   3.318
16883SOL    HW152482   8.337   0.370   3.308
16883SOL    HW252483   8.264   0.479   3.384
16884SOL     OW52484  11.123   8.666  11.951
16884SOL    HW152485  11.120   8.757  11.921
16884SOL    HW252486  11.032   8.638  11.953
16885SOL     OW52487   2.383  14.196   3.038
16885SOL    HW152488   2.326  14.256   3.086
16885SOL    HW252489   2.335  14.114   3.035
16886SOL     OW52490   1.156   0.511   0.224
16886SOL    HW152491   1.239   0.478   0.259
16886SOL    HW252492   1.144   0.462   0.142
16887SOL     OW52493  12.971   6.529  11.024
16887SOL    HW152494  12.886   6.537  11.066
16887SOL    HW252495  12.961   6.577  10.941
16888SOL     OW52496   4.728   0.739   8.735
16888SOL    HW152497   4.673   0.801   8.688
16888SOL    HW252498   4.700   0.653   8.704
16889SOL     OW52499  10.056   6.556   5.587
16889SOL    HW152500   9.995   6.612   5.539
16889SOL    HW252501  10.077   6.606   5.666
16890SOL     OW52502   6.001  13.918  13.900
16890SOL    HW152503   6.088  13.893  13.932
16890SOL    HW252504   5.941  13.870  13.957
16891SOL     OW52505  10.977   8.404   2.426
16891SOL    HW152506  11.012   8.363   2.347
16891SOL    HW252507  10.882   8.400   2.416
16892SOL     OW52508   4.673   1.231   5.172
16892SOL    HW152509   4.590   1.268   5.201
16892SOL    HW252510   4.726   1.307   5.148
16893SOL     OW52511   0.221  12.342  10.732
16893SOL    HW152512   0.309  12.316  10.706
16893SOL    HW252513   0.209  12.429  10.692
16894SOL     OW52514   3.222   2.514   3.574
16894SOL    HW152515   3.222   2.581   3.643
16894SOL    HW252516   3.221   2.431   3.621
16895SOL     OW52517   2.431   5.724   8.501
16895SOL    HW152518   2.494   5.682   8.559
16895SOL    HW252519   2.346   5.707   8.543
16896SOL     OW52520  11.931  13.280  11.294
16896SOL    HW152521  11.929  13.248  11.204
16896SOL    HW252522  12.023  13.302  11.310
16897SOL     OW52523   3.376  13.890  13.500
16897SOL    HW152524   3.363  13.985  13.502
16897SOL    HW252525   3.457  13.876  13.549
16898SOL     OW52526   1.231   5.224   2.850
16898SOL    HW152527   1.240   5.167   2.926
16898SOL    HW252528   1.281   5.302   2.872
16899SOL     OW52529  12.666   6.999   7.985
16899SOL    HW152530  12.628   7.007   7.898
16899SOL    HW252531  12.600   6.952   8.036
16900SOL     OW52532   4.722   4.656  13.129
16900SOL    HW152533   4.801   4.643  13.077
16900SOL    HW252534   4.665   4.708  13.073
16901SOL     OW52535   5.522   3.092   6.891
16901SOL    HW152536   5.577   3.168   6.871
16901SOL    HW252537   5.564   3.019   6.847
16902SOL     OW52538   7.141  14.865   6.239
16902SOL    HW152539   7.163  14.835   6.327
16902SOL    HW252540   7.050  14.837   6.226
16903SOL     OW52541  10.864   4.306   8.486
16903SOL    HW152542  10.847   4.237   8.422
16903SOL    HW252543  10.810   4.380   8.457
16904SOL     OW52544   7.089   8.277  12.205
16904SOL    HW152545   7.135   8.357  12.176
16904SOL    HW252546   7.159   8.216  12.226
16905SOL     OW52547   1.690  13.221   0.599
16905SOL    HW152548   1.638  13.223   0.680
16905SOL    HW252549   1.631  13.257   0.532
16906SOL     OW52550   7.015   4.563   5.656
16906SOL    HW152551   6.930   4.575   5.698
16906SOL    HW252552   7.056   4.649   5.659
16907SOL     OW52553   9.407  12.897  14.298
16907SOL    HW152554   9.478  12.939  14.348
16907SOL    HW252555   9.426  12.803  14.304
16908SOL     OW52556   8.049  10.058   7.677
16908SOL    HW152557   8.047   9.963   7.688
16908SOL    HW252558   8.126  10.073   7.622
16909SOL     OW52559   4.515   5.436   0.751
16909SOL    HW152560   4.596   5.480   0.778
16909SOL    HW252561   4.540   5.345   0.737
16910SOL     OW52562  14.570   3.223   4.618
16910SOL    HW152563  14.488   3.221   4.569
16910SOL    HW252564  14.589   3.317   4.627
16911SOL     OW52565   7.491   6.583  12.401
16911SOL    HW152566   7.549   6.570  12.476
16911SOL    HW252567   7.551   6.597  12.327
16912SOL     OW52568   5.782   7.488   5.552
16912SOL    HW152569   5.789   7.456   5.642
16912SOL    HW252570   5.794   7.410   5.498
16913SOL     OW52571   8.030  10.912   4.681
16913SOL    HW152572   7.947  10.872   4.707
16913SOL    HW252573   8.013  11.006   4.685
16914SOL     OW52574   3.170  14.354   7.727
16914SOL    HW152575   3.183  14.400   7.810
16914SOL    HW252576   3.139  14.421   7.666
16915SOL     OW52577  13.732   1.038   5.457
16915SOL    HW152578  13.737   1.125   5.417
16915SOL    HW252579  13.779   1.047   5.540
16916SOL     OW52580   7.410  12.034   8.136
16916SOL    HW152581   7.315  12.034   8.123
16916SOL    HW252582   7.434  12.126   8.138
16917SOL     OW52583   8.821  10.261   5.442
16917SOL    HW152584   8.732  10.258   5.407
16917SOL    HW252585   8.877  10.254   5.365
16918SOL     OW52586   0.559   2.958  11.504
16918SOL    HW152587   0.522   2.872  11.526
16918SOL    HW252588   0.516   2.982  11.422
16919SOL     OW52589   0.804  10.093   6.418
16919SOL    HW152590   0.899  10.104   6.415
16919SOL    HW252591   0.771  10.182   6.429
16920SOL     OW52592  10.565   6.334   3.694
16920SOL    HW152593  10.493   6.318   3.633
16920SOL    HW252594  10.610   6.250   3.702
16921SOL     OW52595   6.875   7.446   1.472
16921SOL    HW152596   6.782   7.443   1.452
16921SOL    HW252597   6.882   7.421   1.564
16922SOL     OW52598   4.563  11.336   8.636
16922SOL    HW152599   4.535  11.336   8.545
16922SOL    HW252600   4.647  11.289   8.635
16923SOL     OW52601   8.574  13.454   4.095
16923SOL    HW152602   8.541  13.511   4.164
16923SOL    HW252603   8.657  13.495   4.068
16924SOL     OW52604  10.921  13.757   5.560
16924SOL    HW152605  10.966  13.683   5.519
16924SOL    HW252606  10.866  13.793   5.491
16925SOL     OW52607   3.848  10.454   5.789
16925SOL    HW152608   3.933  10.495   5.775
16925SOL    HW252609   3.813  10.499   5.866
16926SOL     OW52610   5.129   1.608  10.468
16926SOL    HW152611   5.129   1.693  10.424
16926SOL    HW252612   5.146   1.629  10.560
16927SOL     OW52613   8.616   9.063   0.967
16927SOL    HW152614   8.624   8.980   0.921
16927SOL    HW252615   8.522   9.071   0.986
16928SOL     OW52616   4.786   5.836  11.053
16928SOL    HW152617   4.707   5.845  10.999
16928SOL    HW252618   4.858   5.841  10.990
16929SOL     OW52619   6.280   3.596   2.294
16929SOL    HW152620   6.318   3.517   2.333
16929SOL    HW252621   6.199   3.566   2.254
16930SOL     OW52622  12.920  12.085  10.916
16930SOL    HW152623  12.954  12.108  10.829
16930SOL    HW252624  12.829  12.115  10.915
16931SOL     OW52625   0.105   9.304  11.774
16931SOL    HW152626   0.061   9.387  11.756
16931SOL    HW252627   0.074   9.278  11.861
16932SOL     OW52628  13.428   5.375   9.447
16932SOL    HW152629  13.484   5.371   9.370
16932SOL    HW252630  13.392   5.464   9.446
16933SOL     OW52631   0.205  11.144   9.216
16933SOL    HW152632   0.234  11.233   9.199
16933SOL    HW252633   0.127  11.154   9.271
16934SOL     OW52634   5.315   3.420   2.030
16934SOL    HW152635   5.358   3.336   2.014
16934SOL    HW252636   5.264   3.406   2.110
16935SOL     OW52637   5.071  11.974  14.351
16935SOL    HW152638   5.023  12.009  14.427
16935SOL    HW252639   5.038  11.885  14.341
16936SOL     OW52640   4.245  11.349  10.833
16936SOL    HW152641   4.308  11.421  10.835
16936SOL    HW252642   4.298  11.270  10.843
16937SOL     OW52643   2.607  10.358  14.505
16937SOL    HW152644   2.635  10.370  14.415
16937SOL    HW252645   2.581  10.446  14.533
16938SOL     OW52646   8.390  10.678   0.089
16938SOL    HW152647   8.454  10.735   0.047
16938SOL    HW252648   8.409  10.685   0.182
16939SOL     OW52649   5.409  12.325  12.126
16939SOL    HW152650   5.388  12.243  12.172
16939SOL    HW252651   5.323  12.361  12.103
16940SOL     OW52652   8.065   4.291  13.573
16940SOL    HW152653   8.019   4.249  13.645
16940SOL    HW252654   8.022   4.376  13.563
16941SOL     OW52655   3.171  12.824   1.643
16941SOL    HW152656   3.215  12.744   1.673
16941SOL    HW252657   3.189  12.828   1.550
16942SOL     OW52658   7.979   2.077   2.258
16942SOL    HW152659   7.966   2.053   2.350
16942SOL    HW252660   8.070   2.052   2.239
16943SOL     OW52661   2.477   8.623   6.841
16943SOL    HW152662   2.489   8.528   6.836
16943SOL    HW252663   2.554   8.660   6.799
16944SOL     OW52664   8.901   8.097   1.108
16944SOL    HW152665   8.920   8.152   1.184
16944SOL    HW252666   8.808   8.109   1.092
16945SOL     OW52667   6.336   1.340   9.370
16945SOL    HW152668   6.377   1.427   9.368
16945SOL    HW252669   6.302   1.332   9.459
16946SOL     OW52670  13.887   3.556   8.475
16946SOL    HW152671  13.914   3.643   8.506
16946SOL    HW252672  13.880   3.503   8.554
16947SOL     OW52673   8.662   5.081   0.682
16947SOL    HW152674   8.714   5.040   0.613
16947SOL    HW252675   8.575   5.092   0.644
16948SOL     OW52676   8.334   4.407   7.406
16948SOL    HW152677   8.428   4.411   7.426
16948SOL    HW252678   8.296   4.358   7.479
16949SOL     OW52679   3.663  13.425   9.216
16949SOL    HW152680   3.721  13.423   9.140
16949SOL    HW252681   3.616  13.508   9.208
16950SOL     OW52682   5.607   1.154  13.294
16950SOL    HW152683   5.570   1.106  13.368
16950SOL    HW252684   5.691   1.186  13.327
16951SOL     OW52685   4.061  10.456   2.386
16951SOL    HW152686   4.129  10.522   2.373
16951SOL    HW252687   4.107  10.373   2.375
16952SOL     OW52688  13.651  13.443   9.535
16952SOL    HW152689  13.670  13.535   9.515
16952SOL    HW252690  13.556  13.437   9.532
16953SOL     OW52691   1.203  13.483   7.359
16953SOL    HW152692   1.240  13.401   7.390
16953SOL    HW252693   1.272  13.548   7.376
16954SOL     OW52694   1.178   4.654   7.278
16954SOL    HW152695   1.227   4.572   7.267
16954SOL    HW252696   1.158   4.658   7.371
16955SOL     OW52697   3.614  11.795   8.581
16955SOL    HW152698   3.637  11.732   8.513
16955SOL    HW252699   3.694  11.804   8.634
16956SOL     OW52700   0.181   9.030  13.239
16956SOL    HW152701   0.162   8.937  13.232
16956SOL    HW252702   0.174   9.049  13.332
16957SOL     OW52703  14.006  13.260   7.830
16957SOL    HW152704  13.921  13.265   7.786
16957SOL    HW252705  13.991  13.203   7.905
16958SOL     OW52706  10.017   9.047  11.609
16958SOL    HW152707  10.109   9.071  11.606
16958SOL    HW252708  10.000   9.006  11.524
16959SOL     OW52709   1.935   4.725  12.257
16959SOL    HW152710   1.985   4.753  12.180
16959SOL    HW252711   1.964   4.635  12.273
16960SOL     OW52712  10.075  14.656   1.308
16960SOL    HW152713  10.064  14.739   1.261
16960SOL    HW252714  10.146  14.612   1.261
16961SOL     OW52715   6.233  12.532  11.808
16961SOL    HW152716   6.293  12.522  11.882
16961SOL    HW252717   6.149  12.552  11.848
16962SOL     OW52718  11.495   3.439  12.608
16962SOL    HW152719  11.566   3.376  12.603
16962SOL    HW252720  11.528   3.508  12.666
16963SOL     OW52721  13.219   5.487   0.493
16963SOL    HW152722  13.287   5.435   0.450
16963SOL    HW252723  13.238   5.578   0.467
16964SOL     OW52724  12.841   5.040   3.317
16964SOL    HW152725  12.926   4.996   3.329
16964SOL    HW252726  12.854   5.095   3.240
16965SOL     OW52727   0.205  12.897   6.015
16965SOL    HW152728   0.209  12.866   5.925
16965SOL    HW252729   0.224  12.819   6.068
16966SOL     OW52730   7.139  12.463  11.277
16966SOL    HW152731   7.094  12.481  11.360
16966SOL    HW252732   7.176  12.548  11.252
16967SOL     OW52733   0.491   6.052  10.816
16967SOL    HW152734   0.483   6.046  10.721
16967SOL    HW252735   0.405   6.028  10.849
16968SOL     OW52736  11.574   6.733  14.119
16968SOL    HW152737  11.603   6.698  14.035
16968SOL    HW252738  11.481   6.753  14.106
16969SOL     OW52739  13.586   5.884   1.948
16969SOL    HW152740  13.637   5.931   2.014
16969SOL    HW252741  13.503   5.864   1.991
16970SOL     OW52742   9.052  14.807  14.558
16970SOL    HW152743   8.963  14.778  14.576
16970SOL    HW252744   9.076  14.860  14.634
16971SOL     OW52745   1.001  12.102  13.590
16971SOL    HW152746   1.072  12.159  13.621
16971SOL    HW252747   1.010  12.023  13.643
16972SOL     OW52748  13.904  10.753   1.682
16972SOL    HW152749  13.939  10.710   1.604
16972SOL    HW252750  13.924  10.846   1.670
16973SOL     OW52751  11.513   6.316   0.580
16973SOL    HW152752  11.562   6.398   0.570
16973SOL    HW252753  11.533   6.287   0.669
16974SOL     OW52754  13.055   7.222   9.613
16974SOL    HW152755  12.992   7.151   9.626
16974SOL    HW252756  13.044   7.277   9.690
16975SOL     OW52757  10.871   0.471  11.679
16975SOL    HW152758  10.957   0.432  11.664
16975SOL    HW252759  10.811   0.397  11.686
16976SOL     OW52760  12.889   3.734   7.294
16976SOL    HW152761  12.834   3.665   7.330
16976SOL    HW252762  12.838   3.814   7.305
16977SOL     OW52763   0.702   1.590  12.437
16977SOL    HW152764   0.732   1.679  12.418
16977SOL    HW252765   0.682   1.553  12.351
16978SOL     OW52766  13.740   2.399   3.323
16978SOL    HW152767  13.836   2.396   3.320
16978SOL    HW252768  13.720   2.488   3.350
16979SOL     OW52769   1.456  12.788   3.412
16979SOL    HW152770   1.458  12.724   3.342
16979SOL    HW252771   1.399  12.858   3.380
16980SOL     OW52772  10.404   9.777  11.485
16980SOL    HW152773  10.494   9.764  11.513
16980SOL    HW252774  10.408   9.858  11.432
16981SOL     OW52775  12.624   3.193   8.970
16981SOL    HW152776  12.694   3.257   8.970
16981SOL    HW252777  12.544   3.246   8.968
16982SOL     OW52778   7.497  12.313   3.160
16982SOL    HW152779   7.514  12.330   3.067
16982SOL    HW252780   7.583  12.314   3.201
16983SOL     OW52781   6.034  14.274   4.111
16983SOL    HW152782   5.969  14.214   4.148
16983SOL    HW252783   6.119  14.232   4.130
16984SOL     OW52784   9.213   9.657  13.209
16984SOL    HW152785   9.144   9.701  13.161
16984SOL    HW252786   9.285   9.720  13.212
16985SOL     OW52787   9.848   3.980   3.824
16985SOL    HW152788   9.868   3.989   3.731
16985SOL    HW252789   9.800   3.898   3.830
16986SOL     OW52790   1.618  12.797   2.538
16986SOL    HW152791   1.648  12.884   2.564
16986SOL    HW252792   1.670  12.776   2.460
16987SOL     OW52793   4.967   2.706   6.329
16987SOL    HW152794   4.879   2.733   6.353
16987SOL    HW252795   5.011   2.688   6.412
16988SOL     OW52796   0.851   8.123   5.536
16988SOL    HW152797   0.777   8.139   5.595
16988SOL    HW252798   0.829   8.169   5.456
16989SOL     OW52799   8.711  11.320  10.039
16989SOL    HW152800   8.639  11.304   9.979
16989SOL    HW252801   8.764  11.387   9.996
16990SOL     OW52802   8.499  13.860  10.596
16990SOL    HW152803   8.459  13.864  10.510
16990SOL    HW252804   8.500  13.767  10.618
16991SOL     OW52805   2.220   8.711  10.842
16991SOL    HW152806   2.304   8.670  10.861
16991SOL    HW252807   2.208   8.698  10.748
16992SOL     OW52808  11.754  10.565  10.272
16992SOL    HW152809  11.758  10.618  10.352
16992SOL    HW252810  11.661  10.550  10.258
16993SOL     OW52811   7.730   4.799   2.296
16993SOL    HW152812   7.776   4.881   2.276
16993SOL    HW252813   7.787   4.730   2.263
16994SOL     OW52814   2.893   3.034  13.432
16994SOL    HW152815   2.909   3.120  13.473
16994SOL    HW252816   2.892   2.973  13.505
16995SOL     OW52817  11.783  12.492   3.428
16995SOL    HW152818  11.784  12.397   3.428
16995SOL    HW252819  11.812  12.517   3.516
16996SOL     OW52820   3.206  13.660   2.391
16996SOL    HW152821   3.245  13.680   2.477
16996SOL    HW252822   3.195  13.746   2.350
16997SOL     OW52823   0.417   6.229   8.649
16997SOL    HW152824   0.374   6.297   8.701
16997SOL    HW252825   0.354   6.157   8.647
16998SOL     OW52826   5.202  12.254   5.906
16998SOL    HW152827   5.229  12.283   5.993
16998SOL    HW252828   5.225  12.161   5.904
16999SOL     OW52829   6.363  13.073   8.266
16999SOL    HW152830   6.419  13.104   8.338
16999SOL    HW252831   6.275  13.071   8.303
17000SOL     OW52832  10.178  13.224   0.201
17000SOL    HW152833  10.153  13.175   0.123
17000SOL    HW252834  10.163  13.164   0.273
17001SOL     OW52835   5.604  11.190   9.941
17001SOL    HW152836   5.657  11.247   9.996
17001SOL    HW252837   5.518  11.190   9.982
17002SOL     OW52838   6.082   0.021   8.568
17002SOL    HW152839   6.118  14.827   8.618
17002SOL    HW252840   6.093   0.097   8.626
17003SOL     OW52841   0.420   6.785   5.870
17003SOL    HW152842   0.507   6.745   5.863
17003SOL    HW252843   0.363   6.729   5.819
17004SOL     OW52844   3.983   8.395   3.417
17004SOL    HW152845   3.996   8.489   3.422
17004SOL    HW252846   3.896   8.384   3.378
17005SOL     OW52847   3.835  11.385   4.194
17005SOL    HW152848   3.782  11.462   4.215
17005SOL    HW252849   3.789  11.312   4.238
17006SOL     OW52850   0.412   8.049   7.203
17006SOL    HW152851   0.444   8.051   7.113
17006SOL    HW252852   0.320   8.025   7.195
17007SOL     OW52853   4.364  10.522   8.098
17007SOL    HW152854   4.290  10.553   8.046
17007SOL    HW252855   4.347  10.428   8.108
17008SOL     OW52856   1.658  13.629  11.678
17008SOL    HW152857   1.716  13.633  11.602
17008SOL    HW252858   1.693  13.694  11.739
17009SOL     OW52859   4.799   4.630   8.383
17009SOL    HW152860   4.709   4.598   8.385
17009SOL    HW252861   4.791   4.725   8.397
17010SOL     OW52862  14.821  12.182   9.391
17010SOL    HW152863  14.844  12.272   9.414
17010SOL    HW252864  14.762  12.153   9.460
17011SOL     OW52865  11.918  14.046   3.593
17011SOL    HW152866  11.962  13.978   3.542
17011SOL    HW252867  11.943  14.128   3.550
17012SOL     OW52868   6.099   5.561  14.243
17012SOL    HW152869   6.029   5.626  14.237
17012SOL    HW252870   6.082   5.500  14.172
17013SOL     OW52871   6.209   8.639   0.809
17013SOL    HW152872   6.181   8.675   0.893
17013SOL    HW252873   6.135   8.587   0.780
17014SOL     OW52874   1.203  10.947   8.151
17014SOL    HW152875   1.141  10.894   8.200
17014SOL    HW252876   1.222  11.021   8.209
17015SOL     OW52877   6.356   8.835  10.185
17015SOL    HW152878   6.305   8.896  10.239
17015SOL    HW252879   6.357   8.753  10.236
17016SOL     OW52880   1.615   8.535   7.453
17016SOL    HW152881   1.549   8.523   7.521
17016SOL    HW252882   1.699   8.522   7.497
17017SOL     OW52883   9.935  13.540   4.926
17017SOL    HW152884   9.880  13.618   4.915
17017SOL    HW252885  10.012  13.572   4.974
17018SOL     OW52886   1.357   9.184   0.019
17018SOL    HW152887   1.361   9.095  14.862
17018SOL    HW252888   1.433   9.228  14.859
17019SOL     OW52889   3.220  14.420   8.211
17019SOL    HW152890   3.305  14.427   8.254
17019SOL    HW252891   3.181  14.340   8.247
17020SOL     OW52892  14.473  14.071  14.057
17020SOL    HW152893  14.425  13.990  14.075
17020SOL    HW252894  14.552  14.065  14.110
17021SOL     OW52895  11.076   8.845   3.325
17021SOL    HW152896  11.076   8.939   3.308
17021SOL    HW252897  11.128   8.808   3.254
17022SOL     OW52898   1.561   6.403   4.314
17022SOL    HW152899   1.646   6.439   4.341
17022SOL    HW252900   1.582   6.322   4.269
17023SOL     OW52901  12.242  13.936   8.446
17023SOL    HW152902  12.269  13.882   8.371
17023SOL    HW252903  12.320  13.940   8.501
17024SOL     OW52904   3.227   2.180   5.518
17024SOL    HW152905   3.154   2.118   5.521
17024SOL    HW252906   3.303   2.130   5.545
17025SOL     OW52907  14.676  13.364  10.874
17025SOL    HW152908  14.754  13.308  10.878
17025SOL    HW252909  14.666  13.384  10.781
17026SOL     OW52910   4.831   7.413   3.883
17026SOL    HW152911   4.749   7.420   3.834
17026SOL    HW252912   4.888   7.478   3.843
17027SOL     OW52913   6.253  10.165  14.035
17027SOL    HW152914   6.287  10.130  13.952
17027SOL    HW252915   6.326  10.216  14.070
17028SOL     OW52916   6.417   2.749  11.319
17028SOL    HW152917   6.474   2.814  11.277
17028SOL    HW252918   6.461   2.729  11.402
17029SOL     OW52919   9.185  13.522   5.894
17029SOL    HW152920   9.254  13.531   5.960
17029SOL    HW252921   9.104  13.516   5.945
17030SOL     OW52922   1.179   5.454   1.951
17030SOL    HW152923   1.224   5.417   1.875
17030SOL    HW252924   1.161   5.545   1.927
17031SOL     OW52925  10.497  13.195   6.619
17031SOL    HW152926  10.453  13.265   6.571
17031SOL    HW252927  10.427  13.154   6.670
17032SOL     OW52928  11.678   3.978   2.131
17032SOL    HW152929  11.633   3.953   2.211
17032SOL    HW252930  11.688   3.896   2.082
17033SOL     OW52931   9.686   8.997  13.739
17033SOL    HW152932   9.649   9.072  13.786
17033SOL    HW252933   9.667   8.922  13.796
17034SOL     OW52934   8.913   3.666   1.410
17034SOL    HW152935   8.826   3.683   1.372
17034SOL    HW252936   8.971   3.727   1.366
17035SOL     OW52937   3.109   3.790   1.063
17035SOL    HW152938   3.041   3.736   1.022
17035SOL    HW252939   3.191   3.747   1.039
17036SOL     OW52940  13.033  12.223  13.366
17036SOL    HW152941  13.109  12.212  13.424
17036SOL    HW252942  13.050  12.305  13.320
17037SOL     OW52943  13.074  13.918   9.639
17037SOL    HW152944  13.056  13.854   9.570
17037SOL    HW252945  13.088  14.001   9.592
17038SOL     OW52946  11.541   2.634   7.738
17038SOL    HW152947  11.499   2.548   7.735
17038SOL    HW252948  11.555   2.657   7.646
17039SOL     OW52949  14.143   5.364   4.650
17039SOL    HW152950  14.080   5.434   4.630
17039SOL    HW252951  14.096   5.283   4.630
17040SOL     OW52952   1.542  11.803   7.032
17040SOL    HW152953   1.635  11.804   7.055
17040SOL    HW252954   1.507  11.884   7.068
17041SOL     OW52955   7.633   9.940  13.946
17041SOL    HW152956   7.682   9.858  13.950
17041SOL    HW252957   7.548   9.918  13.986
17042SOL     OW52958   1.600   0.732  12.560
17042SOL    HW152959   1.509   0.711  12.583
17042SOL    HW252960   1.639   0.647  12.539
17043SOL     OW52961   7.834   9.621   5.849
17043SOL    HW152962   7.780   9.681   5.798
17043SOL    HW252963   7.794   9.621   5.936
17044SOL     OW52964  12.638   6.125   4.345
17044SOL    HW152965  12.662   6.214   4.317
17044SOL    HW252966  12.554   6.137   4.391
17045SOL     OW52967  13.411  10.721   6.720
17045SOL    HW152968  13.337  10.689   6.771
17045SOL    HW252969  13.372  10.757   6.641
17046SOL     OW52970   4.004  14.029  13.006
17046SOL    HW152971   4.081  13.981  12.978
17046SOL    HW252972   4.022  14.053  13.098
17047SOL     OW52973   6.803  14.563   7.456
17047SOL    HW152974   6.877  14.534   7.403
17047SOL    HW252975   6.841  14.627   7.517
17048SOL     OW52976   3.299  14.352   0.295
17048SOL    HW152977   3.303  14.446   0.274
17048SOL    HW252978   3.340  14.309   0.219
17049SOL     OW52979  11.951   0.043   6.786
17049SOL    HW152980  11.910   0.089   6.859
17049SOL    HW252981  11.972  14.835   6.821
17050SOL     OW52982   0.637  10.148  13.830
17050SOL    HW152983   0.700  10.090  13.873
17050SOL    HW252984   0.642  10.230  13.880
17051SOL     OW52985   5.860  10.433   7.730
17051SOL    HW152986   5.954  10.421   7.721
17051SOL    HW252987   5.824  10.344   7.729
17052SOL     OW52988   3.206   2.667   4.849
17052SOL    HW152989   3.297   2.658   4.819
17052SOL    HW252990   3.206   2.630   4.937
17053SOL     OW52991  13.662   5.239   3.980
17053SOL    HW152992  13.571   5.227   4.006
17053SOL    HW252993  13.713   5.185   4.041
17054SOL     OW52994   8.641   5.683   5.257
17054SOL    HW152995   8.606   5.706   5.343
17054SOL    HW252996   8.644   5.766   5.209
17055SOL     OW52997   9.153  11.484  14.560
17055SOL    HW152998   9.059  11.499  14.547
17055SOL    HW252999   9.175  11.537  14.636
17056SOL     OW53000   4.954   0.813   7.625
17056SOL    HW153001   5.012   0.788   7.697
17056SOL    HW253002   4.872   0.767   7.644
17057SOL     OW53003   7.048   6.589  14.322
17057SOL    HW153004   6.984   6.654  14.352
17057SOL    HW253005   7.069   6.616  14.233
17058SOL     OW53006   1.862   6.835   5.286
17058SOL    HW153007   1.929   6.850   5.353
17058SOL    HW253008   1.868   6.911   5.228
17059SOL     OW53009   0.080  14.325  12.898
17059SOL    HW153010   0.117  14.330  12.986
17059SOL    HW253011   0.077  14.232  12.878
17060SOL     OW53012   2.525  10.801   0.263
17060SOL    HW153013   2.612  10.776   0.231
17060SOL    HW253014   2.538  10.818   0.356
17061SOL     OW53015   6.497   2.836   3.707
17061SOL    HW153016   6.590   2.815   3.707
17061SOL    HW253017   6.483   2.887   3.628
17062SOL     OW53018   6.543   4.794   9.260
17062SOL    HW153019   6.468   4.848   9.285
17062SOL    HW253020   6.592   4.847   9.197
17063SOL     OW53021   2.996   4.626   0.751
17063SOL    HW153022   2.902   4.635   0.766
17063SOL    HW253023   3.034   4.619   0.839
17064SOL     OW53024  11.084  11.128   5.312
17064SOL    HW153025  11.138  11.169   5.380
17064SOL    HW253026  10.996  11.125   5.350
17065SOL     OW53027   9.147   5.821   4.893
17065SOL    HW153028   9.058   5.847   4.869
17065SOL    HW253029   9.202   5.895   4.867
17066SOL     OW53030   1.997   4.925   0.197
17066SOL    HW153031   1.977   4.859   0.131
17066SOL    HW253032   2.092   4.934   0.194
17067SOL     OW53033   6.427  14.002   8.884
17067SOL    HW153034   6.514  14.037   8.865
17067SOL    HW253035   6.408  13.941   8.813
17068SOL     OW53036   0.868  13.227  10.136
17068SOL    HW153037   0.942  13.285  10.118
17068SOL    HW253038   0.878  13.203  10.228
17069SOL     OW53039  12.071  10.807   7.594
17069SOL    HW153040  12.029  10.886   7.629
17069SOL    HW253041  12.146  10.793   7.652
17070SOL     OW53042   4.713  13.500  13.701
17070SOL    HW153043   4.671  13.451  13.631
17070SOL    HW253044   4.792  13.450  13.722
17071SOL     OW53045  11.895   5.914   1.897
17071SOL    HW153046  11.870   5.877   1.813
17071SOL    HW253047  11.813   5.946   1.935
17072SOL     OW53048  14.486   1.546   6.084
17072SOL    HW153049  14.400   1.525   6.047
17072SOL    HW253050  14.538   1.467   6.071
17073SOL     OW53051   3.508  13.646  12.574
17073SOL    HW153052   3.559  13.724  12.553
17073SOL    HW253053   3.530  13.583  12.504
17074SOL     OW53054   3.593   7.604  12.836
17074SOL    HW153055   3.570   7.564  12.752
17074SOL    HW253056   3.637   7.686  12.812
17075SOL     OW53057   7.132   4.156  12.131
17075SOL    HW153058   7.039   4.141  12.145
17075SOL    HW253059   7.166   4.071  12.102
17076SOL     OW53060   3.707  11.331  10.207
17076SOL    HW153061   3.732  11.411  10.160
17076SOL    HW253062   3.779  11.270  10.190
17077SOL     OW53063   5.553   3.690   9.978
17077SOL    HW153064   5.531   3.752   9.909
17077SOL    HW253065   5.616   3.630   9.938
17078SOL     OW53066  10.153   4.498  12.425
17078SOL    HW153067  10.190   4.489  12.513
17078SOL    HW253068  10.059   4.509  12.440
17079SOL     OW53069   3.545   5.745   7.518
17079SOL    HW153070   3.640   5.745   7.513
17079SOL    HW253071   3.525   5.786   7.602
17080SOL     OW53072   0.288  13.279  13.624
17080SOL    HW153073   0.313  13.356  13.573
17080SOL    HW253074   0.195  13.267  13.608
17081SOL     OW53075   6.550   4.621  13.354
17081SOL    HW153076   6.606   4.632  13.277
17081SOL    HW253077   6.501   4.541  13.336
17082SOL     OW53078   1.567   1.755   5.323
17082SOL    HW153079   1.485   1.767   5.371
17082SOL    HW253080   1.580   1.838   5.277
17083SOL     OW53081   0.599   9.908   5.602
17083SOL    HW153082   0.539   9.835   5.617
17083SOL    HW253083   0.630   9.897   5.512
17084SOL     OW53084   3.168   1.770  14.327
17084SOL    HW153085   3.087   1.746  14.282
17084SOL    HW253086   3.234   1.771  14.258
17085SOL     OW53087   0.893   2.733   7.469
17085SOL    HW153088   0.981   2.715   7.437
17085SOL    HW253089   0.899   2.723   7.564
17086SOL     OW53090   9.472  14.800  11.360
17086SOL    HW153091   9.401  14.862  11.378
17086SOL    HW253092   9.427  14.720  11.333
17087SOL     OW53093  10.636  12.509  13.534
17087SOL    HW153094  10.707  12.462  13.491
17087SOL    HW253095  10.556  12.472  13.495
17088SOL     OW53096   4.340  14.878  11.294
17088SOL    HW153097   4.297   0.055  11.230
17088SOL    HW253098   4.268  14.836  11.341
17089SOL     OW53099   6.328   4.263  11.822
17089SOL    HW153100   6.277   4.239  11.900
17089SOL    HW253101   6.293   4.207  11.753
17090SOL     OW53102  12.484  12.011  11.523
17090SOL    HW153103  12.396  11.974  11.513
17090SOL    HW253104  12.516  11.974  11.605
17091SOL     OW53105  13.388   7.905   3.101
17091SOL    HW153106  13.432   7.826   3.131
17091SOL    HW253107  13.355   7.946   3.181
17092SOL     OW53108  13.586   9.334   5.695
17092SOL    HW153109  13.655   9.336   5.629
17092SOL    HW253110  13.619   9.275   5.763
17093SOL     OW53111  14.218  13.573   4.660
17093SOL    HW153112  14.213  13.642   4.726
17093SOL    HW253113  14.232  13.493   4.710
17094SOL     OW53114   0.833  13.861  10.713
17094SOL    HW153115   0.850  13.949  10.746
17094SOL    HW253116   0.879  13.803  10.774
17095SOL     OW53117   3.586  10.994   7.466
17095SOL    HW153118   3.621  11.019   7.381
17095SOL    HW253119   3.663  10.964   7.515
17096SOL     OW53120  10.143   6.724   2.201
17096SOL    HW153121  10.080   6.682   2.142
17096SOL    HW253122  10.124   6.818   2.194
17097SOL     OW53123  13.405   9.535   7.900
17097SOL    HW153124  13.498   9.523   7.916
17097SOL    HW253125  13.400   9.583   7.817
17098SOL     OW53126  12.360   1.365   5.134
17098SOL    HW153127  12.280   1.333   5.174
17098SOL    HW253128  12.376   1.305   5.061
17099SOL     OW53129  12.830   6.375   3.918
17099SOL    HW153130  12.811   6.284   3.895
17099SOL    HW253131  12.921   6.374   3.947
17100SOL     OW53132  13.979   9.053  11.053
17100SOL    HW153133  13.905   9.028  11.108
17100SOL    HW253134  14.008   8.970  11.014
17101SOL     OW53135  12.544  11.252  14.863
17101SOL    HW153136  12.502  11.192   0.045
17101SOL    HW253137  12.638  11.232  14.871
17102SOL     OW53138   7.316   7.781   3.089
17102SOL    HW153139   7.376   7.816   3.155
17102SOL    HW253140   7.306   7.851   3.025
17103SOL     OW53141   1.997   5.248   2.062
17103SOL    HW153142   1.997   5.194   2.141
17103SOL    HW253143   1.905   5.252   2.036
17104SOL     OW53144   1.582   9.513   3.203
17104SOL    HW153145   1.619   9.519   3.291
17104SOL    HW253146   1.493   9.482   3.217
17105SOL     OW53147   2.200   9.660   2.578
17105SOL    HW153148   2.217   9.651   2.672
17105SOL    HW253149   2.120   9.712   2.572
17106SOL     OW53150  13.283   6.230   0.511
17106SOL    HW153151  13.328   6.196   0.588
17106SOL    HW253152  13.320   6.318   0.498
17107SOL     OW53153   2.158  11.421   6.558
17107SOL    HW153154   2.164  11.380   6.472
17107SOL    HW253155   2.068  11.405   6.586
17108SOL     OW53156  12.740   7.955  11.637
17108SOL    HW153157  12.708   7.876  11.593
17108SOL    HW253158  12.791   8.001  11.570
17109SOL     OW53159  14.367  12.812  13.645
17109SOL    HW153160  14.418  12.784  13.721
17109SOL    HW253161  14.326  12.894  13.674
17110SOL     OW53162   0.498  14.872   3.981
17110SOL    HW153163   0.547  14.791   3.974
17110SOL    HW253164   0.408  14.848   3.958
17111SOL     OW53165   0.789   8.476   7.887
17111SOL    HW153166   0.722   8.409   7.872
17111SOL    HW253167   0.872   8.428   7.884
17112SOL     OW53168   6.550   0.760  12.365
17112SOL    HW153169   6.632   0.803  12.342
17112SOL    HW253170   6.483   0.828  12.357
17113SOL     OW53171  11.778  12.500   1.346
17113SOL    HW153172  11.810  12.521   1.434
17113SOL    HW253173  11.828  12.558   1.288
17114SOL     OW53174   8.983   7.799   1.896
17114SOL    HW153175   8.925   7.750   1.954
17114SOL    HW253176   9.071   7.779   1.927
17115SOL     OW53177   1.202   8.511  11.190
17115SOL    HW153178   1.204   8.470  11.104
17115SOL    HW253179   1.122   8.564  11.190
17116SOL     OW53180   3.358  12.421  13.159
17116SOL    HW153181   3.265  12.427  13.182
17116SOL    HW253182   3.363  12.458  13.071
17117SOL     OW53183  12.879   5.359  11.026
17117SOL    HW153184  12.833   5.316  10.955
17117SOL    HW253185  12.822   5.432  11.051
17118SOL     OW53186  12.286   2.647  13.602
17118SOL    HW153187  12.319   2.683  13.520
17118SOL    HW253188  12.298   2.552  13.594
17119SOL     OW53189   9.970   6.402   6.779
17119SOL    HW153190   9.981   6.493   6.806
17119SOL    HW253191  10.017   6.396   6.696
17120SOL     OW53192   7.056  10.580   2.881
17120SOL    HW153193   7.023  10.598   2.793
17120SOL    HW253194   7.053  10.665   2.925
17121SOL     OW53195   4.809   6.710  13.137
17121SOL    HW153196   4.790   6.798  13.169
17121SOL    HW253197   4.736   6.690  13.078
17122SOL     OW53198  11.274   6.559   6.881
17122SOL    HW153199  11.302   6.522   6.797
17122SOL    HW253200  11.243   6.647   6.859
17123SOL     OW53201   9.834  11.910   4.351
17123SOL    HW153202   9.741  11.894   4.368
17123SOL    HW253203   9.839  11.932   4.258
17124SOL     OW53204  12.919   2.849   9.840
17124SOL    HW153205  13.006   2.870   9.807
17124SOL    HW253206  12.922   2.869   9.934
17125SOL     OW53207   6.751   3.487   1.045
17125SOL    HW153208   6.681   3.530   0.995
17125SOL    HW253209   6.831   3.533   1.020
17126SOL     OW53210  10.104   0.776   8.376
17126SOL    HW153211  10.145   0.857   8.346
17126SOL    HW253212  10.016   0.779   8.339
17127SOL     OW53213  14.112   8.999   7.562
17127SOL    HW153214  14.154   8.928   7.611
17127SOL    HW253215  14.118   9.075   7.619
17128SOL     OW53216   1.878   9.228   3.545
17128SOL    HW153217   1.951   9.167   3.557
17128SOL    HW253218   1.886   9.290   3.617
17129SOL     OW53219   0.272  11.579   4.255
17129SOL    HW153220   0.224  11.606   4.333
17129SOL    HW253221   0.238  11.635   4.185
17130SOL     OW53222  10.449  13.900  13.205
17130SOL    HW153223  10.439  13.855  13.121
17130SOL    HW253224  10.396  13.979  13.196
17131SOL     OW53225   4.341   4.745   6.592
17131SOL    HW153226   4.267   4.803   6.611
17131SOL    HW253227   4.368   4.712   6.678
17132SOL     OW53228   9.405   6.002   4.540
17132SOL    HW153229   9.386   6.088   4.503
17132SOL    HW253230   9.320   5.967   4.566
17133SOL     OW53231   8.503   2.989   4.585
17133SOL    HW153232   8.489   2.904   4.626
17133SOL    HW253233   8.495   2.972   4.491
17134SOL     OW53234   3.367  11.739   4.283
17134SOL    HW153235   3.296  11.687   4.247
17134SOL    HW253236   3.328  11.784   4.358
17135SOL     OW53237   3.115   2.720  12.439
17135SOL    HW153238   3.164   2.787  12.391
17135SOL    HW253239   3.165   2.639  12.423
17136SOL     OW53240   6.023   9.304   4.103
17136SOL    HW153241   6.091   9.332   4.042
17136SOL    HW253242   6.028   9.209   4.104
17137SOL     OW53243   0.204   4.664   3.210
17137SOL    HW153244   0.116   4.678   3.173
17137SOL    HW253245   0.232   4.751   3.236
17138SOL     OW53246   3.283   2.496   7.651
17138SOL    HW153247   3.211   2.539   7.697
17138SOL    HW253248   3.294   2.547   7.571
17139SOL     OW53249   1.959   4.825  14.361
17139SOL    HW153250   1.979   4.733  14.344
17139SOL    HW253251   1.916   4.825  14.447
17140SOL     OW53252   2.423   3.436   5.439
17140SOL    HW153253   2.367   3.471   5.369
17140SOL    HW253254   2.434   3.344   5.417
17141SOL     OW53255  14.021   8.550  11.374
17141SOL    HW153256  14.112   8.576  11.359
17141SOL    HW253257  13.979   8.558  11.288
17142SOL     OW53258  10.397   7.698   7.809
17142SOL    HW153259  10.328   7.697   7.742
17142SOL    HW253260  10.476   7.671   7.761
17143SOL     OW53261   2.023   8.822  13.522
17143SOL    HW153262   2.023   8.744  13.467
17143SOL    HW253263   1.932   8.831  13.552
17144SOL     OW53264  11.847   9.740  12.994
17144SOL    HW153265  11.766   9.690  13.001
17144SOL    HW253266  11.916   9.673  12.995
17145SOL     OW53267   7.285   1.131  10.375
17145SOL    HW153268   7.301   1.225  10.371
17145SOL    HW253269   7.330   1.102  10.454
17146SOL     OW53270   0.765  12.760  10.730
17146SOL    HW153271   0.755  12.669  10.760
17146SOL    HW253272   0.838  12.794  10.781
17147SOL     OW53273  13.227  12.704  13.460
17147SOL    HW153274  13.231  12.753  13.378
17147SOL    HW253275  13.134  12.690  13.475
17148SOL     OW53276   0.607   2.671  14.262
17148SOL    HW153277   0.589   2.699  14.173
17148SOL    HW253278   0.521   2.663  14.303
17149SOL     OW53279   6.371  12.641   8.055
17149SOL    HW153280   6.456  12.658   8.015
17149SOL    HW253281   6.368  12.699   8.131
17150SOL     OW53282   4.044   6.049  10.233
17150SOL    HW153283   3.978   6.003  10.285
17150SOL    HW253284   4.082   6.112  10.293
17151SOL     OW53285   0.501   4.771   1.366
17151SOL    HW153286   0.513   4.865   1.380
17151SOL    HW253287   0.590   4.737   1.354
17152SOL     OW53288   2.340   4.056  13.229
17152SOL    HW153289   2.310   4.006  13.152
17152SOL    HW253290   2.435   4.050  13.226
17153SOL     OW53291   5.395   4.862   9.628
17153SOL    HW153292   5.377   4.813   9.709
17153SOL    HW253293   5.485   4.892   9.638
17154SOL     OW53294  12.709  14.663  13.272
17154SOL    HW153295  12.655  14.685  13.196
17154SOL    HW253296  12.799  14.667  13.240
17155SOL     OW53297  12.705   8.174  10.814
17155SOL    HW153298  12.683   8.105  10.876
17155SOL    HW253299  12.715   8.252  10.867
17156SOL     OW53300   1.542  12.210   3.560
17156SOL    HW153301   1.527  12.296   3.600
17156SOL    HW253302   1.630  12.185   3.588
17157SOL     OW53303   0.374   3.406   5.492
17157SOL    HW153304   0.342   3.316   5.480
17157SOL    HW253305   0.364   3.446   5.406
17158SOL     OW53306   9.833  12.339   6.382
17158SOL    HW153307   9.898  12.312   6.446
17158SOL    HW253308   9.749  12.322   6.425
17159SOL     OW53309   6.960   1.657  12.979
17159SOL    HW153310   6.924   1.605  13.050
17159SOL    HW253311   6.953   1.748  13.009
17160SOL     OW53312   9.759   6.487   4.051
17160SOL    HW153313   9.844   6.506   4.091
17160SOL    HW253314   9.767   6.521   3.962
17161SOL     OW53315  14.170   4.843   8.345
17161SOL    HW153316  14.250   4.840   8.293
17161SOL    HW253317  14.124   4.921   8.314
17162SOL     OW53318   6.803   6.501  11.395
17162SOL    HW153319   6.833   6.582  11.436
17162SOL    HW253320   6.823   6.511  11.302
17163SOL     OW53321   6.221   6.435   3.732
17163SOL    HW153322   6.236   6.520   3.774
17163SOL    HW253323   6.260   6.443   3.645
17164SOL     OW53324   9.665   8.582   2.829
17164SOL    HW153325   9.626   8.589   2.917
17164SOL    HW253326   9.737   8.644   2.830
17165SOL     OW53327   2.536  10.250  12.181
17165SOL    HW153328   2.627  10.255  12.151
17165SOL    HW253329   2.484  10.261  12.101
17166SOL     OW53330   4.453   1.258   8.513
17166SOL    HW153331   4.499   1.257   8.597
17166SOL    HW253332   4.498   1.324   8.462
17167SOL     OW53333   3.173   9.786   4.558
17167SOL    HW153334   3.123   9.733   4.496
17167SOL    HW253335   3.232   9.838   4.503
17168SOL     OW53336  13.265   3.338   0.693
17168SOL    HW153337  13.350   3.376   0.715
17168SOL    HW253338  13.203   3.380   0.754
17169SOL     OW53339   0.308   5.793  10.502
17169SOL    HW153340   0.303   5.772  10.595
17169SOL    HW253341   0.344   5.714  10.461
17170SOL     OW53342  13.305  10.165  12.124
17170SOL    HW153343  13.210  10.156  12.110
17170SOL    HW253344  13.324  10.256  12.102
17171SOL     OW53345   7.459   4.283  11.690
17171SOL    HW153346   7.374   4.322  11.668
17171SOL    HW253347   7.488   4.242  11.609
17172SOL     OW53348  11.276   2.122   3.621
17172SOL    HW153349  11.249   2.184   3.689
17172SOL    HW253350  11.270   2.037   3.663
17173SOL     OW53351   1.724   4.612   0.180
17173SOL    HW153352   1.656   4.560   0.223
17173SOL    HW253353   1.801   4.600   0.235
17174SOL     OW53354   5.508   6.160   1.198
17174SOL    HW153355   5.546   6.241   1.163
17174SOL    HW253356   5.463   6.120   1.123
17175SOL     OW53357  11.492  14.567   8.814
17175SOL    HW153358  11.568  14.596   8.864
17175SOL    HW253359  11.416  14.594   8.866
17176SOL     OW53360   0.572  12.802   1.083
17176SOL    HW153361   0.530  12.824   1.000
17176SOL    HW253362   0.514  12.836   1.150
17177SOL     OW53363   3.233   4.875  12.935
17177SOL    HW153364   3.234   4.824  12.855
17177SOL    HW253365   3.205   4.962  12.908
17178SOL     OW53366   3.356   4.572  13.130
17178SOL    HW153367   3.436   4.592  13.081
17178SOL    HW253368   3.327   4.488  13.095
17179SOL     OW53369   2.187  12.815   2.809
17179SOL    HW153370   2.256  12.768   2.763
17179SOL    HW253371   2.117  12.750   2.822
17180SOL     OW53372  10.587   1.625   0.683
17180SOL    HW153373  10.531   1.584   0.749
17180SOL    HW253374  10.562   1.717   0.684
17181SOL     OW53375  11.993  14.744   7.817
17181SOL    HW153376  12.086  14.762   7.804
17181SOL    HW253377  11.986  14.649   7.808
17182SOL     OW53378   2.999   5.674   9.885
17182SOL    HW153379   2.935   5.637   9.824
17182SOL    HW253380   3.024   5.601   9.942
17183SOL     OW53381   0.866   3.895   7.581
17183SOL    HW153382   0.856   3.808   7.619
17183SOL    HW253383   0.890   3.878   7.489
17184SOL     OW53384  14.865   8.124   7.971
17184SOL    HW153385   0.036   8.043   7.960
17184SOL    HW253386  14.873   8.145   8.064
17185SOL     OW53387   4.535   5.154  14.804
17185SOL    HW153388   4.572   5.220  14.745
17185SOL    HW253389   4.455   5.194  14.837
17186SOL     OW53390   6.525  11.957  14.535
17186SOL    HW153391   6.610  11.978  14.573
17186SOL    HW253392   6.485  12.041  14.515
17187SOL     OW53393  11.404   7.322  13.939
17187SOL    HW153394  11.379   7.250  13.997
17187SOL    HW253395  11.444   7.386  13.997
17188SOL     OW53396   6.989   9.866   0.780
17188SOL    HW153397   7.030   9.951   0.766
17188SOL    HW253398   6.912   9.867   0.722
17189SOL     OW53399  11.228  11.846   0.112
17189SOL    HW153400  11.166  11.913   0.143
17189SOL    HW253401  11.274  11.818   0.191
17190SOL     OW53402  13.221  11.477   4.029
17190SOL    HW153403  13.184  11.425   3.957
17190SOL    HW253404  13.206  11.568   4.003
17191SOL     OW53405  13.064   1.080   1.737
17191SOL    HW153406  13.082   1.162   1.784
17191SOL    HW253407  13.016   1.026   1.800
17192SOL     OW53408  13.608   6.619   6.831
17192SOL    HW153409  13.651   6.655   6.753
17192SOL    HW253410  13.564   6.540   6.800
17193SOL     OW53411   7.287   0.807   0.187
17193SOL    HW153412   7.215   0.782   0.129
17193SOL    HW253413   7.345   0.730   0.187
17194SOL     OW53414  13.314  13.287   8.415
17194SOL    HW153415  13.329  13.374   8.452
17194SOL    HW253416  13.344  13.294   8.324
17195SOL     OW53417   1.040   0.102   8.543
17195SOL    HW153418   1.135   0.099   8.528
17195SOL    HW253419   1.019   0.195   8.546
17196SOL     OW53420   3.310  12.856  12.488
17196SOL    HW153421   3.224  12.887  12.516
17196SOL    HW253422   3.299  12.761  12.477
17197SOL     OW53423   2.828   6.854   8.035
17197SOL    HW153424   2.785   6.770   8.017
17197SOL    HW253425   2.917   6.830   8.062
17198SOL     OW53426   4.195  12.970  11.363
17198SOL    HW153427   4.140  12.975  11.442
17198SOL    HW253428   4.280  13.005  11.391
17199SOL     OW53429  13.845  13.499   2.301
17199SOL    HW153430  13.888  13.466   2.380
17199SOL    HW253431  13.775  13.436   2.284
17200SOL     OW53432  11.993  10.274  12.175
17200SOL    HW153433  11.944  10.350  12.146
17200SOL    HW253434  11.937  10.233  12.241
17201SOL     OW53435   0.331  12.584  12.745
17201SOL    HW153436   0.407  12.612  12.796
17201SOL    HW253437   0.301  12.663  12.701
17202SOL     OW53438   7.800   8.028   3.638
17202SOL    HW153439   7.802   7.972   3.561
17202SOL    HW253440   7.837   7.974   3.708
17203SOL     OW53441   4.033   7.908  10.198
17203SOL    HW153442   4.033   7.993  10.242
17203SOL    HW253443   4.119   7.872  10.217
17204SOL     OW53444  12.120   2.808   1.182
17204SOL    HW153445  12.063   2.766   1.246
17204SOL    HW253446  12.197   2.835   1.233
17205SOL     OW53447   8.520   0.150  13.692
17205SOL    HW153448   8.541   0.242  13.673
17205SOL    HW253449   8.552   0.136  13.781
17206SOL     OW53450   0.584   3.521  10.728
17206SOL    HW153451   0.662   3.489  10.773
17206SOL    HW253452   0.514   3.463  10.758
17207SOL     OW53453  10.996   3.574   4.182
17207SOL    HW153454  10.946   3.652   4.161
17207SOL    HW253455  10.965   3.547   4.268
17208SOL     OW53456   0.454   1.864  14.706
17208SOL    HW153457   0.508   1.921  14.760
17208SOL    HW253458   0.373   1.913  14.693
17209SOL     OW53459   1.787  13.465   2.619
17209SOL    HW153460   1.869  13.419   2.607
17209SOL    HW253461   1.749  13.471   2.531
17210SOL     OW53462  13.678   1.246   9.528
17210SOL    HW153463  13.652   1.327   9.484
17210SOL    HW253464  13.602   1.189   9.521
17211SOL     OW53465   3.103   2.248   4.288
17211SOL    HW153466   3.120   2.220   4.197
17211SOL    HW253467   3.190   2.246   4.329
17212SOL     OW53468   1.221  11.205  10.417
17212SOL    HW153469   1.222  11.133  10.354
17212SOL    HW253470   1.270  11.172  10.493
17213SOL     OW53471   3.137  12.910   0.718
17213SOL    HW153472   3.213  12.948   0.762
17213SOL    HW253473   3.152  12.926   0.625
17214SOL     OW53474   1.332   8.119  14.861
17214SOL    HW153475   1.380   8.095   0.061
17214SOL    HW253476   1.284   8.198   0.006
17215SOL     OW53477   9.795   4.710   2.727
17215SOL    HW153478   9.885   4.680   2.739
17215SOL    HW253479   9.798   4.804   2.748
17216SOL     OW53480   4.761  11.859   2.514
17216SOL    HW153481   4.757  11.906   2.431
17216SOL    HW253482   4.854  11.861   2.538
17217SOL     OW53483  11.122   3.190   9.090
17217SOL    HW153484  11.053   3.145   9.137
17217SOL    HW253485  11.110   3.283   9.113
17218SOL     OW53486  13.246  13.961  12.424
17218SOL    HW153487  13.245  14.056  12.436
17218SOL    HW253488  13.305  13.947  12.349
17219SOL     OW53489  11.583   6.210  12.875
17219SOL    HW153490  11.591   6.305  12.877
17219SOL    HW253491  11.492   6.193  12.899
17220SOL     OW53492  13.803   3.769   6.848
17220SOL    HW153493  13.811   3.759   6.943
17220SOL    HW253494  13.804   3.864   6.834
17221SOL     OW53495   4.599   8.786  13.002
17221SOL    HW153496   4.603   8.706  12.949
17221SOL    HW253497   4.536   8.842  12.957
17222SOL     OW53498   2.669   9.736   6.565
17222SOL    HW153499   2.713   9.797   6.505
17222SOL    HW253500   2.701   9.650   6.540
17223SOL     OW53501  11.658   9.691   4.521
17223SOL    HW153502  11.580   9.655   4.562
17223SOL    HW253503  11.624   9.751   4.454
17224SOL     OW53504  14.278  13.251   8.111
17224SOL    HW153505  14.263  13.194   8.036
17224SOL    HW253506  14.271  13.340   8.075
17225SOL     OW53507   8.588   7.087   1.166
17225SOL    HW153508   8.652   7.157   1.150
17225SOL    HW253509   8.531   7.121   1.234
17226SOL     OW53510  12.349   3.474  10.659
17226SOL    HW153511  12.324   3.515  10.741
17226SOL    HW253512  12.402   3.539  10.614
17227SOL     OW53513   7.349   8.538  13.554
17227SOL    HW153514   7.288   8.492  13.495
17227SOL    HW253515   7.294   8.601  13.600
17228SOL     OW53516  12.006   3.364   7.910
17228SOL    HW153517  11.911   3.355   7.908
17228SOL    HW253518  12.035   3.291   7.965
17229SOL     OW53519   5.347   7.451  14.380
17229SOL    HW153520   5.435   7.485  14.397
17229SOL    HW253521   5.320   7.414  14.463
17230SOL     OW53522  14.815  13.712   8.611
17230SOL    HW153523  14.723  13.714   8.637
17230SOL    HW253524  14.845  13.802   8.622
17231SOL     OW53525  12.361   1.324   9.083
17231SOL    HW153526  12.401   1.246   9.122
17231SOL    HW253527  12.268   1.303   9.076
17232SOL     OW53528   9.725   8.441   8.454
17232SOL    HW153529   9.760   8.479   8.373
17232SOL    HW253530   9.636   8.413   8.431
17233SOL     OW53531  10.305   6.553  10.667
17233SOL    HW153532  10.273   6.524  10.582
17233SOL    HW253533  10.314   6.648  10.658
17234SOL     OW53534   2.145  13.144  10.542
17234SOL    HW153535   2.235  13.156  10.573
17234SOL    HW253536   2.108  13.078  10.601
17235SOL     OW53537   5.722   8.413   1.675
17235SOL    HW153538   5.641   8.426   1.625
17235SOL    HW253539   5.705   8.454   1.759
17236SOL     OW53540  13.654  11.834   0.380
17236SOL    HW153541  13.657  11.906   0.444
17236SOL    HW253542  13.562  11.827   0.356
17237SOL     OW53543  14.260   3.943   5.614
17237SOL    HW153544  14.345   3.942   5.571
17237SOL    HW253545  14.199   3.910   5.548
17238SOL     OW53546   2.158   0.718   8.925
17238SOL    HW153547   2.176   0.774   9.000
17238SOL    HW253548   2.063   0.719   8.916
17239SOL     OW53549   0.811   6.199   4.408
17239SOL    HW153550   0.770   6.113   4.396
17239SOL    HW253551   0.811   6.238   4.320
17240SOL     OW53552  11.198  12.246  13.204
17240SOL    HW153553  11.138  12.235  13.278
17240SOL    HW253554  11.160  12.192  13.134
17241SOL     OW53555  13.199  12.199   7.108
17241SOL    HW153556  13.259  12.127   7.129
17241SOL    HW253557  13.116  12.174   7.148
17242SOL     OW53558   0.117   0.547   1.410
17242SOL    HW153559   0.084   0.476   1.465
17242SOL    HW253560   0.049   0.561   1.345
17243SOL     OW53561   9.912   9.736   0.367
17243SOL    HW153562   9.884   9.765   0.281
17243SOL    HW253563   9.877   9.647   0.375
17244SOL     OW53564  13.518   7.162   4.636
17244SOL    HW153565  13.510   7.177   4.730
17244SOL    HW253566  13.448   7.099   4.617
17245SOL     OW53567  12.897   4.784  10.164
17245SOL    HW153568  12.920   4.710  10.108
17245SOL    HW253569  12.963   4.851  10.144
17246SOL     OW53570   1.928  11.596   1.357
17246SOL    HW153571   1.881  11.611   1.274
17246SOL    HW253572   1.873  11.533   1.404
17247SOL     OW53573   4.316   5.336  14.808
17247SOL    HW153574   4.229   5.300  14.823
17247SOL    HW253575   4.303   5.407  14.745
17248SOL     OW53576  10.664   9.719   2.700
17248SOL    HW153577  10.641   9.720   2.793
17248SOL    HW253578  10.619   9.642   2.665
17249SOL     OW53579  11.139  10.271   5.907
17249SOL    HW153580  11.146  10.241   5.997
17249SOL    HW253581  11.193  10.351   5.904
17250SOL     OW53582   4.238  12.229   1.732
17250SOL    HW153583   4.281  12.300   1.685
17250SOL    HW253584   4.296  12.211   1.806
17251SOL     OW53585   4.429  10.966   6.295
17251SOL    HW153586   4.450  10.906   6.367
17251SOL    HW253587   4.474  10.930   6.219
17252SOL     OW53588   7.783   3.161   9.159
17252SOL    HW153589   7.754   3.252   9.166
17252SOL    HW253590   7.703   3.112   9.144
17253SOL     OW53591   7.018   9.045  12.346
17253SOL    HW153592   7.021   8.949  12.349
17253SOL    HW253593   7.032   9.072  12.437
17254SOL     OW53594  11.160  12.198  11.497
17254SOL    HW153595  11.148  12.267  11.561
17254SOL    HW253596  11.113  12.228  11.419
17255SOL     OW53597   3.590  10.037   6.848
17255SOL    HW153598   3.639  10.006   6.923
17255SOL    HW253599   3.499  10.014   6.867
17256SOL     OW53600   7.399   5.850   9.881
17256SOL    HW153601   7.481   5.898   9.894
17256SOL    HW253602   7.375   5.818   9.968
17257SOL     OW53603  10.420  11.278  10.687
17257SOL    HW153604  10.380  11.237  10.763
17257SOL    HW253605  10.477  11.211  10.650
17258SOL     OW53606  11.141  13.199   8.958
17258SOL    HW153607  11.201  13.139   8.915
17258SOL    HW253608  11.104  13.148   9.030
17259SOL     OW53609  12.946   1.645   9.046
17259SOL    HW153610  12.930   1.691   9.128
17259SOL    HW253611  12.982   1.712   8.987
17260SOL     OW53612   7.992  10.553   7.318
17260SOL    HW153613   8.058  10.550   7.388
17260SOL    HW253614   7.965  10.461   7.307
17261SOL     OW53615   9.461   0.752   8.382
17261SOL    HW153616   9.376   0.709   8.397
17261SOL    HW253617   9.511   0.734   8.461
17262SOL     OW53618   0.759   0.566   3.705
17262SOL    HW153619   0.758   0.661   3.715
17262SOL    HW253620   0.685   0.547   3.648
17263SOL     OW53621   3.105   9.210   3.877
17263SOL    HW153622   3.134   9.271   3.809
17263SOL    HW253623   3.076   9.266   3.949
17264SOL     OW53624   5.123   9.736   6.544
17264SOL    HW153625   5.117   9.789   6.623
17264SOL    HW253626   5.035   9.738   6.506
17265SOL     OW53627  14.286   7.056   9.541
17265SOL    HW153628  14.226   6.990   9.577
17265SOL    HW253629  14.281   7.043   9.446
17266SOL     OW53630   8.482   1.275  12.489
17266SOL    HW153631   8.560   1.314  12.527
17266SOL    HW253632   8.451   1.214  12.557
17267SOL     OW53633   8.625   8.761   4.887
17267SOL    HW153634   8.676   8.838   4.913
17267SOL    HW253635   8.551   8.797   4.838
17268SOL     OW53636   4.342   3.779   0.251
17268SOL    HW153637   4.287   3.701   0.250
17268SOL    HW253638   4.377   3.784   0.162
17269SOL     OW53639   3.493  12.581  13.922
17269SOL    HW153640   3.574  12.533  13.940
17269SOL    HW253641   3.508  12.624  13.838
17270SOL     OW53642   8.096   9.908  13.076
17270SOL    HW153643   8.025   9.866  13.125
17270SOL    HW253644   8.057   9.988  13.042
17271SOL     OW53645  10.662   9.737   4.949
17271SOL    HW153646  10.659   9.644   4.927
17271SOL    HW253647  10.583   9.773   4.910
17272SOL     OW53648   9.018   3.749   7.026
17272SOL    HW153649   8.986   3.773   7.113
17272SOL    HW253650   8.951   3.690   6.991
17273SOL     OW53651   4.968   4.775   8.838
17273SOL    HW153652   4.873   4.769   8.839
17273SOL    HW253653   4.986   4.869   8.824
17274SOL     OW53654  11.162   2.885  13.131
17274SOL    HW153655  11.183   2.814  13.191
17274SOL    HW253656  11.113   2.948  13.184
17275SOL     OW53657   4.796  12.932   6.244
17275SOL    HW153658   4.877  12.919   6.195
17275SOL    HW253659   4.757  12.844   6.250
17276SOL     OW53660   0.958   1.284   3.397
17276SOL    HW153661   1.029   1.273   3.460
17276SOL    HW253662   0.894   1.339   3.441
17277SOL     OW53663   3.500  13.441   8.859
17277SOL    HW153664   3.519  13.483   8.943
17277SOL    HW253665   3.429  13.379   8.879
17278SOL     OW53666  14.812   5.526   5.707
17278SOL    HW153667  14.808   5.572   5.623
17278SOL    HW253668   0.002   5.571   5.756
17279SOL     OW53669  10.495   0.879  12.471
17279SOL    HW153670  10.408   0.844  12.492
17279SOL    HW253671  10.547   0.864  12.550
17280SOL     OW53672  11.250   2.450   8.330
17280SOL    HW153673  11.239   2.491   8.245
17280SOL    HW253674  11.251   2.524   8.392
17281SOL     OW53675  10.196   7.620   8.002
17281SOL    HW153676  10.263   7.675   7.962
17281SOL    HW253677  10.243   7.569   8.068
17282SOL     OW53678  11.052  14.126   1.125
17282SOL    HW153679  11.138  14.125   1.082
17282SOL    HW253680  11.071  14.158   1.213
17283SOL     OW53681   2.964   8.923   8.535
17283SOL    HW153682   2.963   8.907   8.441
17283SOL    HW253683   2.950   8.837   8.575
17284SOL     OW53684   2.459   8.407   4.866
17284SOL    HW153685   2.504   8.428   4.784
17284SOL    HW253686   2.492   8.471   4.928
17285SOL     OW53687   5.749   9.560  11.152
17285SOL    HW153688   5.785   9.626  11.211
17285SOL    HW253689   5.731   9.608  11.071
17286SOL     OW53690  14.649   9.647   9.369
17286SOL    HW153691  14.687   9.662   9.456
17286SOL    HW253692  14.724   9.640   9.311
17287SOL     OW53693  13.878  13.490  10.018
17287SOL    HW153694  13.824  13.460   9.946
17287SOL    HW253695  13.920  13.410  10.051
17288SOL     OW53696   5.116   8.003  14.549
17288SOL    HW153697   5.099   7.962  14.634
17288SOL    HW253698   5.210   8.020  14.549
17289SOL     OW53699  10.892  13.441   6.424
17289SOL    HW153700  10.890  13.534   6.448
17289SOL    HW253701  10.948  13.437   6.347
17290SOL     OW53702  12.406   9.303   3.378
17290SOL    HW153703  12.436   9.337   3.294
17290SOL    HW253704  12.446   9.216   3.384
17291SOL     OW53705  14.703   7.996   2.435
17291SOL    HW153706  14.778   8.055   2.439
17291SOL    HW253707  14.628   8.052   2.454
17292SOL     OW53708   5.929   1.707  11.737
17292SOL    HW153709   5.953   1.746  11.653
17292SOL    HW253710   5.863   1.641  11.715
17293SOL     OW53711   8.030   2.474   7.682
17293SOL    HW153712   7.949   2.423   7.671
17293SOL    HW253713   8.053   2.501   7.593
17294SOL     OW53714   4.382   2.902   2.478
17294SOL    HW153715   4.290   2.904   2.504
17294SOL    HW253716   4.429   2.877   2.558
17295SOL     OW53717   7.918   8.079   0.404
17295SOL    HW153718   7.970   8.124   0.470
17295SOL    HW253719   7.870   8.149   0.360
17296SOL     OW53720  11.798  14.504  12.221
17296SOL    HW153721  11.737  14.540  12.156
17296SOL    HW253722  11.804  14.411  12.200
17297SOL     OW53723   4.629  14.878  12.553
17297SOL    HW153724   4.657   0.083  12.589
17297SOL    HW253725   4.537  14.870  12.579
17298SOL     OW53726   7.567   6.168  13.292
17298SOL    HW153727   7.570   6.246  13.236
17298SOL    HW253728   7.618   6.192  13.369
17299SOL     OW53729   9.096   0.351   4.421
17299SOL    HW153730   9.119   0.438   4.387
17299SOL    HW253731   9.085   0.297   4.343
17300SOL     OW53732   8.416   6.490  11.068
17300SOL    HW153733   8.392   6.410  11.114
17300SOL    HW253734   8.335   6.541  11.066
17301SOL     OW53735   6.751   6.363   8.276
17301SOL    HW153736   6.702   6.309   8.337
17301SOL    HW253737   6.752   6.314   8.194
17302SOL     OW53738   6.093   6.794   6.527
17302SOL    HW153739   6.033   6.867   6.543
17302SOL    HW253740   6.055   6.721   6.576
17303SOL     OW53741   0.950   0.120   8.993
17303SOL    HW153742   0.927   0.064   8.919
17303SOL    HW253743   0.942   0.063   9.070
17304SOL     OW53744   7.642  14.247   8.950
17304SOL    HW153745   7.606  14.158   8.955
17304SOL    HW253746   7.702  14.253   9.024
17305SOL     OW53747   9.809   3.776  10.079
17305SOL    HW153748   9.728   3.725  10.082
17305SOL    HW253749   9.863   3.738  10.148
17306SOL     OW53750  10.085   3.230   4.129
17306SOL    HW153751  10.133   3.216   4.046
17306SOL    HW253752  10.135   3.179   4.193
17307SOL     OW53753   0.430  10.516   4.383
17307SOL    HW153754   0.440  10.422   4.400
17307SOL    HW253755   0.344  10.537   4.419
17308SOL     OW53756  13.227   8.015   2.450
17308SOL    HW153757  13.151   7.964   2.421
17308SOL    HW253758  13.301   7.955   2.442
17309SOL     OW53759  12.230   6.656   3.674
17309SOL    HW153760  12.168   6.705   3.619
17309SOL    HW253761  12.242   6.572   3.628
17310SOL     OW53762   7.363   3.333  13.880
17310SOL    HW153763   7.385   3.256  13.827
17310SOL    HW253764   7.386   3.308  13.969
17311SOL     OW53765   5.256   9.247  13.032
17311SOL    HW153766   5.348   9.224  13.040
17311SOL    HW253767   5.209   9.168  13.057
17312SOL     OW53768   6.220   9.103   8.718
17312SOL    HW153769   6.184   9.069   8.637
17312SOL    HW253770   6.144   9.134   8.767
17313SOL     OW53771   1.621   2.461   5.348
17313SOL    HW153772   1.707   2.431   5.321
17313SOL    HW253773   1.615   2.550   5.313
17314SOL     OW53774   2.333  10.242   1.234
17314SOL    HW153775   2.269  10.278   1.173
17314SOL    HW253776   2.399  10.201   1.178
17315SOL     OW53777   1.964   2.399  12.320
17315SOL    HW153778   2.015   2.468  12.280
17315SOL    HW253779   1.980   2.408  12.414
17316SOL     OW53780   8.664   4.204   9.745
17316SOL    HW153781   8.604   4.252   9.803
17316SOL    HW253782   8.612   4.183   9.668
17317SOL     OW53783   1.238   5.945  11.366
17317SOL    HW153784   1.317   5.945  11.311
17317SOL    HW253785   1.184   6.016  11.331
17318SOL     OW53786   8.143  14.186   2.777
17318SOL    HW153787   8.145  14.276   2.746
17318SOL    HW253788   8.066  14.148   2.735
17319SOL     OW53789  14.303   7.510  11.338
17319SOL    HW153790  14.398   7.508  11.338
17319SOL    HW253791  14.280   7.599  11.310
17320SOL     OW53792   8.915   1.961   9.725
17320SOL    HW153793   8.851   1.889   9.734
17320SOL    HW253794   8.940   1.958   9.633
17321SOL     OW53795   8.967  13.137  14.088
17321SOL    HW153796   9.050  13.185  14.087
17321SOL    HW253797   8.992  13.045  14.074
17322SOL     OW53798  12.713   4.104   6.925
17322SOL    HW153799  12.719   4.026   6.870
17322SOL    HW253800  12.641   4.086   6.985
17323SOL     OW53801   2.149   2.079  10.821
17323SOL    HW153802   2.137   1.985  10.836
17323SOL    HW253803   2.060   2.113  10.809
17324SOL     OW53804  12.144   6.401   6.062
17324SOL    HW153805  12.132   6.382   5.969
17324SOL    HW253806  12.056   6.420   6.094
17325SOL     OW53807   3.360   5.946   2.294
17325SOL    HW153808   3.281   5.892   2.304
17325SOL    HW253809   3.424   5.905   2.352
17326SOL     OW53810  12.690   7.388   6.987
17326SOL    HW153811  12.600   7.364   7.010
17326SOL    HW253812  12.717   7.322   6.923
17327SOL     OW53813  13.397  13.433   0.144
17327SOL    HW153814  13.317  13.482   0.160
17327SOL    HW253815  13.395  13.413   0.050
17328SOL     OW53816   3.272   3.792  12.148
17328SOL    HW153817   3.297   3.751  12.230
17328SOL    HW253818   3.284   3.886  12.163
17329SOL     OW53819   2.221  11.538   0.084
17329SOL    HW153820   2.184  11.579   0.006
17329SOL    HW253821   2.206  11.444   0.072
17330SOL     OW53822   0.768   9.802   0.209
17330SOL    HW153823   0.854   9.773   0.237
17330SOL    HW253824   0.741   9.867   0.275
17331SOL     OW53825  11.810   3.017  12.547
17331SOL    HW153826  11.791   2.985  12.459
17331SOL    HW253827  11.729   3.062  12.574
17332SOL     OW53828  12.131   4.913  12.606
17332SOL    HW153829  12.063   4.846  12.615
17332SOL    HW253830  12.131   4.960  12.689
17333SOL     OW53831   9.636   4.298   4.046
17333SOL    HW153832   9.637   4.279   4.140
17333SOL    HW253833   9.639   4.212   4.004
17334SOL     OW53834   1.376  11.087  10.586
17334SOL    HW153835   1.416  11.173  10.594
17334SOL    HW253836   1.445  11.026  10.611
17335SOL     OW53837   1.070   7.764   4.853
17335SOL    HW153838   1.154   7.785   4.894
17335SOL    HW253839   1.088   7.766   4.759
17336SOL     OW53840   7.605   8.354   5.076
17336SOL    HW153841   7.601   8.427   5.138
17336SOL    HW253842   7.698   8.335   5.068
17337SOL     OW53843  13.612   4.727   3.337
17337SOL    HW153844  13.698   4.758   3.308
17337SOL    HW253845  13.615   4.632   3.324
17338SOL     OW53846   9.182  13.587  14.586
17338SOL    HW153847   9.147  13.573  14.498
17338SOL    HW253848   9.180  13.682  14.598
17339SOL     OW53849   2.208   6.384   0.611
17339SOL    HW153850   2.180   6.475   0.617
17339SOL    HW253851   2.206   6.353   0.701
17340SOL     OW53852  10.740  12.943   6.202
17340SOL    HW153853  10.806  12.885   6.239
17340SOL    HW253854  10.689  12.972   6.278
17341SOL     OW53855   9.933  12.434   3.524
17341SOL    HW153856   9.847  12.396   3.541
17341SOL    HW253857   9.919  12.528   3.528
17342SOL     OW53858   0.249   1.453  10.560
17342SOL    HW153859   0.207   1.441  10.475
17342SOL    HW253860   0.178   1.445  10.623
17343SOL     OW53861  13.349   9.911   9.558
17343SOL    HW153862  13.436   9.941   9.535
17343SOL    HW253863  13.340   9.827   9.514
17344SOL     OW53864   5.186   2.806   2.111
17344SOL    HW153865   5.228   2.755   2.181
17344SOL    HW253866   5.228   2.891   2.115
17345SOL     OW53867   7.876   8.555  13.118
17345SOL    HW153868   7.855   8.470  13.082
17345SOL    HW253869   7.965   8.545  13.153
17346SOL     OW53870  12.154   1.166   4.779
17346SOL    HW153871  12.147   1.149   4.685
17346SOL    HW253872  12.108   1.249   4.791
17347SOL     OW53873  11.458   3.310   9.839
17347SOL    HW153874  11.515   3.288   9.765
17347SOL    HW253875  11.374   3.332   9.799
17348SOL     OW53876   2.084  11.838   5.028
17348SOL    HW153877   2.046  11.868   4.946
17348SOL    HW253878   2.010  11.826   5.087
17349SOL     OW53879  11.478  10.323  12.925
17349SOL    HW153880  11.436  10.407  12.944
17349SOL    HW253881  11.469  10.273  13.005
17350SOL     OW53882   0.215  12.960   8.091
17350SOL    HW153883   0.129  12.977   8.052
17350SOL    HW253884   0.240  13.044   8.130
17351SOL     OW53885   6.524  13.199   2.972
17351SOL    HW153886   6.435  13.168   2.989
17351SOL    HW253887   6.557  13.140   2.904
17352SOL     OW53888   3.421   5.750  10.518
17352SOL    HW153889   3.391   5.833  10.553
17352SOL    HW253890   3.470   5.774  10.438
17353SOL     OW53891   4.367   9.155  11.672
17353SOL    HW153892   4.342   9.124  11.585
17353SOL    HW253893   4.437   9.218  11.656
17354SOL     OW53894  11.391   5.840   0.072
17354SOL    HW153895  11.422   5.922   0.110
17354SOL    HW253896  11.465   5.780   0.078
17355SOL     OW53897  11.048   7.384   6.521
17355SOL    HW153898  11.132   7.338   6.525
17355SOL    HW253899  11.068   7.468   6.479
17356SOL     OW53900   3.510   8.912   6.070
17356SOL    HW153901   3.492   9.006   6.082
17356SOL    HW253902   3.456   8.887   5.995
17357SOL     OW53903   0.739  13.411   6.451
17357SOL    HW153904   0.823  13.363   6.449
17357SOL    HW253905   0.716  13.422   6.359
17358SOL     OW53906  11.043   0.976   0.087
17358SOL    HW153907  10.957   0.971   0.129
17358SOL    HW253908  11.045   1.063   0.047
17359SOL     OW53909  12.513   2.067  12.376
17359SOL    HW153910  12.564   1.994  12.409
17359SOL    HW253911  12.493   2.044  12.285
17360SOL     OW53912   8.557   7.603   7.977
17360SOL    HW153913   8.593   7.514   7.971
17360SOL    HW253914   8.589   7.636   8.061
17361SOL     OW53915  12.059   1.404  13.986
17361SOL    HW153916  12.070   1.392  14.080
17361SOL    HW253917  11.998   1.335  13.959
17362SOL     OW53918   1.378  10.769   8.897
17362SOL    HW153919   1.435  10.739   8.968
17362SOL    HW253920   1.400  10.712   8.824
17363SOL     OW53921   3.673   8.726   0.457
17363SOL    HW153922   3.641   8.636   0.468
17363SOL    HW253923   3.747   8.718   0.397
17364SOL     OW53924   6.269   9.624   3.928
17364SOL    HW153925   6.321   9.694   3.968
17364SOL    HW253926   6.331   9.575   3.875
17365SOL     OW53927   5.727  13.167   7.748
17365SOL    HW153928   5.641  13.127   7.736
17365SOL    HW253929   5.720  13.215   7.830
17366SOL     OW53930  13.051   9.020   9.119
17366SOL    HW153931  12.980   9.084   9.122
17366SOL    HW253932  13.078   9.019   9.027
17367SOL     OW53933   2.011   7.269   2.725
17367SOL    HW153934   1.932   7.323   2.727
17367SOL    HW253935   1.988   7.191   2.775
17368SOL     OW53936   8.053   4.915   8.055
17368SOL    HW153937   7.971   4.950   8.019
17368SOL    HW253938   8.115   4.919   7.982
17369SOL     OW53939  13.629  14.833   8.817
17369SOL    HW153940  13.704  14.789   8.856
17369SOL    HW253941  13.553  14.780   8.841
17370SOL     OW53942   9.786   6.931  10.920
17370SOL    HW153943   9.849   6.918  10.850
17370SOL    HW253944   9.812   6.870  10.989
17371SOL     OW53945  10.274   8.926  11.039
17371SOL    HW153946  10.288   8.999  10.977
17371SOL    HW253947  10.190   8.945  11.080
17372SOL     OW53948   3.730   0.074  11.711
17372SOL    HW153949   3.709   0.035  11.625
17372SOL    HW253950   3.824   0.062  11.719
17373SOL     OW53951   7.500   2.348  13.387
17373SOL    HW153952   7.484   2.282  13.454
17373SOL    HW253953   7.509   2.298  13.306
17374SOL     OW53954  11.355   9.218   2.314
17374SOL    HW153955  11.376   9.235   2.222
17374SOL    HW253956  11.327   9.127   2.316
17375SOL     OW53957   1.738   1.329   4.017
17375SOL    HW153958   1.828   1.355   4.034
17375SOL    HW253959   1.744   1.264   3.947
17376SOL     OW53960   4.933   2.847   6.685
17376SOL    HW153961   4.902   2.937   6.677
17376SOL    HW253962   5.024   2.851   6.657
17377SOL     OW53963   0.684  14.460  14.295
17377SOL    HW153964   0.609  14.506  14.256
17377SOL    HW253965   0.701  14.387  14.236
17378SOL     OW53966   3.748   4.389   7.654
17378SOL    HW153967   3.692   4.315   7.630
17378SOL    HW253968   3.799   4.407   7.576
17379SOL     OW53969   4.804  10.497   1.372
17379SOL    HW153970   4.818  10.513   1.466
17379SOL    HW253971   4.738  10.427   1.370
17380SOL     OW53972   0.069   8.926   0.558
17380SOL    HW153973   0.071   8.878   0.641
17380SOL    HW253974   0.149   8.899   0.513
17381SOL     OW53975   9.888   9.350   9.578
17381SOL    HW153976   9.936   9.370   9.658
17381SOL    HW253977   9.802   9.319   9.608
17382SOL     OW53978  10.018   3.435   1.518
17382SOL    HW153979  10.036   3.511   1.573
17382SOL    HW253980   9.992   3.472   1.434
17383SOL     OW53981   9.271  12.568  10.261
17383SOL    HW153982   9.259  12.553  10.354
17383SOL    HW253983   9.366  12.573  10.249
17384SOL     OW53984   0.152   3.433   4.583
17384SOL    HW153985   0.211   3.475   4.521
17384SOL    HW253986   0.087   3.389   4.529
17385SOL     OW53987  11.276  14.376   5.420
17385SOL    HW153988  11.338  14.423   5.476
17385SOL    HW253989  11.299  14.284   5.431
17386SOL     OW53990   6.375   1.785   7.754
17386SOL    HW153991   6.376   1.690   7.768
17386SOL    HW253992   6.467   1.811   7.762
17387SOL     OW53993   4.763   6.933   0.325
17387SOL    HW153994   4.668   6.937   0.336
17387SOL    HW253995   4.797   6.916   0.413
17388SOL     OW53996   4.947   4.947   0.349
17388SOL    HW153997   4.901   4.886   0.291
17388SOL    HW253998   5.039   4.922   0.341
17389SOL     OW53999   0.477   0.938  13.463
17389SOL    HW154000   0.461   0.938  13.368
17389SOL    HW254001   0.562   0.980  13.474
17390SOL     OW54002   0.948   7.131   8.529
17390SOL    HW154003   0.972   7.205   8.473
17390SOL    HW254004   0.993   7.149   8.612
17391SOL     OW54005   4.104   0.225  11.916
17391SOL    HW154006   4.024   0.263  11.879
17391SOL    HW254007   4.162   0.300  11.928
17392SOL     OW54008  12.271   4.952   0.532
17392SOL    HW154009  12.217   5.027   0.508
17392SOL    HW254010  12.211   4.877   0.529
17393SOL     OW54011  14.781   1.702   0.648
17393SOL    HW154012  14.830   1.764   0.703
17393SOL    HW254013  14.749   1.636   0.710
17394SOL     OW54014  13.081   3.614   4.412
17394SOL    HW154015  13.118   3.631   4.498
17394SOL    HW254016  12.989   3.642   4.419
17395SOL     OW54017   7.507   2.872   3.312
17395SOL    HW154018   7.580   2.816   3.286
17395SOL    HW254019   7.452   2.878   3.234
17396SOL     OW54020   3.233  14.470   4.641
17396SOL    HW154021   3.256  14.438   4.728
17396SOL    HW254022   3.306  14.443   4.585
17397SOL     OW54023   3.303  11.066   4.157
17397SOL    HW154024   3.221  11.112   4.176
17397SOL    HW254025   3.347  11.120   4.092
17398SOL     OW54026  13.350   5.755   0.572
17398SOL    HW154027  13.363   5.739   0.478
17398SOL    HW254028  13.301   5.838   0.575
17399SOL     OW54029   5.013   5.289  14.064
17399SOL    HW154030   4.948   5.358  14.075
17399SOL    HW254031   5.033   5.259  14.153
17400SOL     OW54032   4.689  12.243   7.246
17400SOL    HW154033   4.773  12.270   7.209
17400SOL    HW254034   4.643  12.202   7.173
17401SOL     OW54035  10.876  12.705  13.833
17401SOL    HW154036  10.851  12.779  13.887
17401SOL    HW254037  10.794  12.665  13.806
17402SOL     OW54038   5.279   7.802   5.137
17402SOL    HW154039   5.339   7.784   5.064
17402SOL    HW254040   5.336   7.818   5.212
17403SOL     OW54041  12.521   8.394   6.856
17403SOL    HW154042  12.488   8.324   6.801
17403SOL    HW254043  12.500   8.366   6.945
17404SOL     OW54044   6.477   7.233  11.359
17404SOL    HW154045   6.487   7.203  11.269
17404SOL    HW254046   6.549   7.293  11.373
17405SOL     OW54047   6.313  14.219   4.576
17405SOL    HW154048   6.311  14.271   4.656
17405SOL    HW254049   6.403  14.185   4.572
17406SOL     OW54050   2.974  14.111   2.850
17406SOL    HW154051   3.017  14.070   2.925
17406SOL    HW254052   2.981  14.205   2.867
17407SOL     OW54053   2.319  14.324   7.619
17407SOL    HW154054   2.365  14.332   7.703
17407SOL    HW254055   2.384  14.288   7.559
17408SOL     OW54056   6.542   6.840   2.661
17408SOL    HW154057   6.618   6.858   2.717
17408SOL    HW254058   6.468   6.838   2.722
17409SOL     OW54059   8.667   2.138   4.838
17409SOL    HW154060   8.620   2.055   4.842
17409SOL    HW254061   8.691   2.148   4.746
17410SOL     OW54062  11.699   9.261   2.179
17410SOL    HW154063  11.680   9.346   2.219
17410SOL    HW254064  11.703   9.200   2.253
17411SOL     OW54065   5.667   0.862   8.100
17411SOL    HW154066   5.591   0.866   8.158
17411SOL    HW254067   5.716   0.786   8.132
17412SOL     OW54068   1.027  13.883  14.625
17412SOL    HW154069   0.954  13.853  14.571
17412SOL    HW254070   0.986  13.910  14.708
17413SOL     OW54071  11.781  10.519   8.612
17413SOL    HW154072  11.855  10.571   8.579
17413SOL    HW254073  11.822  10.449   8.663
17414SOL     OW54074  10.947   4.703   7.412
17414SOL    HW154075  10.862   4.702   7.367
17414SOL    HW254076  10.928   4.669   7.499
17415SOL     OW54077  12.062   8.013  10.775
17415SOL    HW154078  12.009   7.955  10.830
17415SOL    HW254079  12.005   8.088  10.757
17416SOL     OW54080  13.206  10.598   5.476
17416SOL    HW154081  13.220  10.526   5.415
17416SOL    HW254082  13.254  10.671   5.438
17417SOL     OW54083   2.801  12.695  11.118
17417SOL    HW154084   2.806  12.695  11.022
17417SOL    HW254085   2.708  12.708  11.137
17418SOL     OW54086   7.502   0.821   6.240
17418SOL    HW154087   7.410   0.849   6.242
17418SOL    HW254088   7.499   0.728   6.262
17419SOL     OW54089   4.410  12.568   1.717
17419SOL    HW154090   4.402  12.541   1.626
17419SOL    HW254091   4.321  12.567   1.751
17420SOL     OW54092  14.238   2.512   0.716
17420SOL    HW154093  14.201   2.562   0.643
17420SOL    HW254094  14.194   2.427   0.710
17421SOL     OW54095   5.925   6.886   8.945
17421SOL    HW154096   5.872   6.873   9.023
17421SOL    HW254097   5.988   6.814   8.946
17422SOL     OW54098   1.488   3.733   3.534
17422SOL    HW154099   1.461   3.824   3.547
17422SOL    HW254100   1.579   3.731   3.562
17423SOL     OW54101   6.094   3.791  10.810
17423SOL    HW154102   6.078   3.885  10.816
17423SOL    HW254103   6.149   3.781  10.732
17424SOL     OW54104   8.103   4.780   5.198
17424SOL    HW154105   8.125   4.855   5.253
17424SOL    HW254106   8.033   4.735   5.247
17425SOL     OW54107   9.253   1.336   9.401
17425SOL    HW154108   9.261   1.388   9.480
17425SOL    HW254109   9.213   1.254   9.429
17426SOL     OW54110   7.575   5.016   7.086
17426SOL    HW154111   7.649   5.076   7.074
17426SOL    HW254112   7.564   5.011   7.180
17427SOL     OW54113   6.470   1.766   5.383
17427SOL    HW154114   6.497   1.844   5.432
17427SOL    HW254115   6.486   1.693   5.442
17428SOL     OW54116  11.729  13.844  12.743
17428SOL    HW154117  11.805  13.885  12.784
17428SOL    HW254118  11.710  13.768  12.798
17429SOL     OW54119   2.854   6.648  10.917
17429SOL    HW154120   2.940   6.614  10.939
17429SOL    HW254121   2.822   6.589  10.848
17430SOL     OW54122   1.186   3.015  13.692
17430SOL    HW154123   1.155   3.020  13.783
17430SOL    HW254124   1.233   2.931  13.688
17431SOL     OW54125   1.362   3.414   9.898
17431SOL    HW154126   1.377   3.503   9.931
17431SOL    HW254127   1.350   3.425   9.804
17432SOL     OW54128   7.394   1.976  11.432
17432SOL    HW154129   7.345   1.978  11.515
17432SOL    HW254130   7.343   1.917  11.377
17433SOL     OW54131  13.597   3.447   6.562
17433SOL    HW154132  13.684   3.486   6.550
17433SOL    HW254133  13.612   3.352   6.555
17434SOL     OW54134   0.478   6.137   9.934
17434SOL    HW154135   0.413   6.171   9.995
17434SOL    HW254136   0.532   6.213   9.911
17435SOL     OW54137  13.883   2.937   8.668
17435SOL    HW154138  13.949   2.886   8.715
17435SOL    HW254139  13.895   2.913   8.576
17436SOL     OW54140   5.186  10.395   6.464
17436SOL    HW154141   5.258  10.365   6.520
17436SOL    HW254142   5.149  10.470   6.512
17437SOL     OW54143   6.759   4.245   2.296
17437SOL    HW154144   6.725   4.286   2.217
17437SOL    HW254145   6.827   4.186   2.265
17438SOL     OW54146   4.631   4.975   1.083
17438SOL    HW154147   4.723   5.002   1.081
17438SOL    HW254148   4.630   4.894   1.134
17439SOL     OW54149   1.226   3.965   7.007
17439SOL    HW154150   1.217   3.933   7.097
17439SOL    HW254151   1.217   3.887   6.953
17440SOL     OW54152   6.703   9.339   2.758
17440SOL    HW154153   6.631   9.286   2.791
17440SOL    HW254154   6.782   9.294   2.789
17441SOL     OW54155   2.540   9.629   7.504
17441SOL    HW154156   2.589   9.662   7.580
17441SOL    HW254157   2.507   9.708   7.461
17442SOL     OW54158   3.424   1.008   1.324
17442SOL    HW154159   3.357   1.071   1.352
17442SOL    HW254160   3.500   1.062   1.302
17443SOL     OW54161   6.885   8.225  11.959
17443SOL    HW154162   6.959   8.228  12.020
17443SOL    HW254163   6.821   8.169  12.002
17444SOL     OW54164  14.082  12.005   1.042
17444SOL    HW154165  14.170  11.968   1.038
17444SOL    HW254166  14.024  11.929   1.049
17445SOL     OW54167  14.438   0.430   7.416
17445SOL    HW154168  14.481   0.374   7.352
17445SOL    HW254169  14.508   0.457   7.476
17446SOL     OW54170  13.701   2.350   2.474
17446SOL    HW154171  13.768   2.295   2.515
17446SOL    HW254172  13.690   2.424   2.535
17447SOL     OW54173  12.885   3.343   3.241
17447SOL    HW154174  12.872   3.383   3.155
17447SOL    HW254175  12.808   3.368   3.292
17448SOL     OW54176   1.538   4.733   2.731
17448SOL    HW154177   1.604   4.663   2.736
17448SOL    HW254178   1.512   4.747   2.823
17449SOL     OW54179   4.828   8.529   2.747
17449SOL    HW154180   4.777   8.494   2.675
17449SOL    HW254181   4.917   8.497   2.732
17450SOL     OW54182  10.792   3.516   9.684
17450SOL    HW154183  10.879   3.484   9.661
17450SOL    HW254184  10.754   3.447   9.738
17451SOL     OW54185  10.870   4.574   5.809
17451SOL    HW154186  10.776   4.561   5.805
17451SOL    HW254187  10.902   4.505   5.867
17452SOL     OW54188   1.647   5.587   8.937
17452SOL    HW154189   1.685   5.623   8.856
17452SOL    HW254190   1.665   5.493   8.932
17453SOL     OW54191  13.496   3.243   6.888
17453SOL    HW154192  13.476   3.149   6.886
17453SOL    HW254193  13.587   3.248   6.858
17454SOL     OW54194  14.432   0.728   7.780
17454SOL    HW154195  14.473   0.659   7.727
17454SOL    HW254196  14.369   0.682   7.835
17455SOL     OW54197   5.689   7.171  11.887
17455SOL    HW154198   5.754   7.155  11.956
17455SOL    HW254199   5.741   7.178  11.807
17456SOL     OW54200  10.638   6.290   3.071
17456SOL    HW154201  10.545   6.310   3.055
17456SOL    HW254202  10.642   6.274   3.166
17457SOL     OW54203  11.149   8.702   5.403
17457SOL    HW154204  11.174   8.699   5.311
17457SOL    HW254205  11.199   8.632   5.444
17458SOL     OW54206   2.653   2.136  11.111
17458SOL    HW154207   2.631   2.230  11.114
17458SOL    HW254208   2.640   2.112  11.019
17459SOL     OW54209   2.117  13.940   3.286
17459SOL    HW154210   2.150  13.850   3.285
17459SOL    HW254211   2.121  13.968   3.194
17460SOL     OW54212   6.862   3.117  12.941
17460SOL    HW154213   6.796   3.051  12.961
17460SOL    HW254214   6.872   3.113  12.846
17461SOL     OW54215   1.498  12.038  12.079
17461SOL    HW154216   1.503  12.133  12.087
17461SOL    HW254217   1.409  12.015  12.106
17462SOL     OW54218  11.247   2.227   9.125
17462SOL    HW154219  11.264   2.134   9.117
17462SOL    HW254220  11.175   2.233   9.187
17463SOL     OW54221   5.397   0.567  10.637
17463SOL    HW154222   5.371   0.478  10.660
17463SOL    HW254223   5.329   0.622  10.677
17464SOL     OW54224  11.819  13.536   2.695
17464SOL    HW154225  11.801  13.556   2.603
17464SOL    HW254226  11.820  13.621   2.739
17465SOL     OW54227   7.478   9.218  10.533
17465SOL    HW154228   7.488   9.144  10.592
17465SOL    HW254229   7.557   9.216  10.479
17466SOL     OW54230   6.195   4.991   0.566
17466SOL    HW154231   6.209   5.064   0.626
17466SOL    HW254232   6.131   5.025   0.502
17467SOL     OW54233   9.843   2.274   6.345
17467SOL    HW154234   9.785   2.340   6.384
17467SOL    HW254235   9.860   2.306   6.256
17468SOL     OW54236   9.093   0.408   1.264
17468SOL    HW154237   9.050   0.335   1.308
17468SOL    HW254238   9.082   0.391   1.171
17469SOL     OW54239  13.788   9.277   3.692
17469SOL    HW154240  13.710   9.222   3.688
17469SOL    HW254241  13.821   9.266   3.781
17470SOL     OW54242   8.352  14.524   8.439
17470SOL    HW154243   8.287  14.558   8.378
17470SOL    HW254244   8.436  14.558   8.406
17471SOL     OW54245   2.939   8.943   6.640
17471SOL    HW154246   2.899   9.025   6.613
17471SOL    HW254247   2.928   8.940   6.735
17472SOL     OW54248  10.622   2.950  10.866
17472SOL    HW154249  10.575   2.904  10.936
17472SOL    HW254250  10.570   2.932  10.787
17473SOL     OW54251   8.832   5.454   5.720
17473SOL    HW154252   8.869   5.433   5.806
17473SOL    HW254253   8.878   5.396   5.659
17474SOL     OW54254   8.748  12.239  11.598
17474SOL    HW154255   8.669  12.291  11.615
17474SOL    HW254256   8.714  12.155  11.566
17475SOL     OW54257  13.973   0.190  11.468
17475SOL    HW154258  13.958   0.281  11.443
17475SOL    HW254259  14.065   0.186  11.493
17476SOL     OW54260  10.633  12.619   0.719
17476SOL    HW154261  10.701  12.686   0.724
17476SOL    HW254262  10.584  12.640   0.640
17477SOL     OW54263   8.253  14.068   9.327
17477SOL    HW154264   8.189  14.093   9.261
17477SOL    HW254265   8.329  14.125   9.309
17478SOL     OW54266   1.901   2.493   7.907
17478SOL    HW154267   1.830   2.446   7.952
17478SOL    HW254268   1.857   2.566   7.863
17479SOL     OW54269  11.147   3.375   7.071
17479SOL    HW154270  11.093   3.394   7.148
17479SOL    HW254271  11.215   3.442   7.072
17480SOL     OW54272   9.416   3.377   4.134
17480SOL    HW154273   9.471   3.310   4.176
17480SOL    HW254274   9.343   3.389   4.194
17481SOL     OW54275  10.629   4.713   8.078
17481SOL    HW154276  10.714   4.713   8.034
17481SOL    HW254277  10.581   4.785   8.038
17482SOL     OW54278   3.325  12.925  10.003
17482SOL    HW154279   3.250  12.874   9.974
17482SOL    HW254280   3.316  12.929  10.099
17483SOL     OW54281  12.891   7.413   3.533
17483SOL    HW154282  12.960   7.477   3.514
17483SOL    HW254283  12.840   7.407   3.453
17484SOL     OW54284  13.744   2.137   9.904
17484SOL    HW154285  13.776   2.228   9.900
17484SOL    HW254286  13.716   2.118   9.815
17485SOL     OW54287  13.394   6.755  10.199
17485SOL    HW154288  13.365   6.687  10.137
17485SOL    HW254289  13.316   6.807  10.215
17486SOL     OW54290  11.601   4.787  10.221
17486SOL    HW154291  11.566   4.698  10.217
17486SOL    HW254292  11.648   4.791  10.304
17487SOL     OW54293  10.665   7.424   9.938
17487SOL    HW154294  10.591   7.441   9.997
17487SOL    HW254295  10.714   7.507   9.937
17488SOL     OW54296   6.234   6.859  11.000
17488SOL    HW154297   6.311   6.813  11.032
17488SOL    HW254298   6.168   6.791  10.989
17489SOL     OW54299  12.915   3.051   1.364
17489SOL    HW154300  12.895   3.103   1.442
17489SOL    HW254301  12.942   2.966   1.399
17490SOL     OW54302   1.637   4.746   4.220
17490SOL    HW154303   1.731   4.763   4.222
17490SOL    HW254304   1.623   4.694   4.141
17491SOL     OW54305   2.513   7.637   5.790
17491SOL    HW154306   2.595   7.596   5.763
17491SOL    HW254307   2.507   7.716   5.736
17492SOL     OW54308  10.176   8.385   2.323
17492SOL    HW154309  10.101   8.326   2.331
17492SOL    HW254310  10.252   8.330   2.341
17493SOL     OW54311   1.336  11.089   3.257
17493SOL    HW154312   1.241  11.098   3.264
17493SOL    HW254313   1.369  11.119   3.342
17494SOL     OW54314   8.490   7.559   3.408
17494SOL    HW154315   8.454   7.547   3.321
17494SOL    HW254316   8.484   7.472   3.449
17495SOL     OW54317  14.473   1.668   7.489
17495SOL    HW154318  14.407   1.602   7.510
17495SOL    HW254319  14.502   1.646   7.401
17496SOL     OW54320   1.252  12.917   3.976
17496SOL    HW154321   1.298  12.987   3.929
17496SOL    HW254322   1.322  12.866   4.016
17497SOL     OW54323  12.031   7.612  12.242
17497SOL    HW154324  12.012   7.705  12.248
17497SOL    HW254325  12.000   7.587  12.155
17498SOL     OW54326  13.828   7.377   1.163
17498SOL    HW154327  13.907   7.432   1.165
17498SOL    HW254328  13.827   7.339   1.075
17499SOL     OW54329   0.956  12.830   3.855
17499SOL    HW154330   0.938  12.787   3.939
17499SOL    HW254331   1.041  12.873   3.868
17500SOL     OW54332   3.492   6.195  13.375
17500SOL    HW154333   3.463   6.268  13.320
17500SOL    HW254334   3.510   6.124  13.314
17501SOL     OW54335  14.494  13.094   0.459
17501SOL    HW154336  14.430  13.164   0.473
17501SOL    HW254337  14.467  13.025   0.519
17502SOL     OW54338   1.151   1.758   6.268
17502SOL    HW154339   1.201   1.747   6.349
17502SOL    HW254340   1.060   1.743   6.294
17503SOL     OW54341   4.360  14.662  14.279
17503SOL    HW154342   4.322  14.574  14.283
17503SOL    HW254343   4.446  14.652  14.319
17504SOL     OW54344   9.468   4.723  12.221
17504SOL    HW154345   9.526   4.788  12.182
17504SOL    HW254346   9.380   4.752  12.198
17505SOL     OW54347   6.311   0.312   9.706
17505SOL    HW154348   6.240   0.371   9.730
17505SOL    HW254349   6.275   0.224   9.719
17506SOL     OW54350   1.875   9.383   5.234
17506SOL    HW154351   1.817   9.459   5.224
17506SOL    HW254352   1.834   9.331   5.303
17507SOL     OW54353  12.453   0.233   3.594
17507SOL    HW154354  12.396   0.306   3.620
17507SOL    HW254355  12.469   0.247   3.501
17508SOL     OW54356   3.990   8.755   7.928
17508SOL    HW154357   4.002   8.697   7.853
17508SOL    HW254358   3.952   8.834   7.890
17509SOL     OW54359   6.653   2.435   3.737
17509SOL    HW154360   6.581   2.373   3.752
17509SOL    HW254361   6.618   2.499   3.676
17510SOL     OW54362   6.100   1.516  10.024
17510SOL    HW154363   6.076   1.579   9.957
17510SOL    HW254364   6.119   1.569  10.101
17511SOL     OW54365  14.238   3.788   3.484
17511SOL    HW154366  14.161   3.742   3.450
17511SOL    HW254367  14.227   3.787   3.579
17512SOL     OW54368   7.875   6.102   1.442
17512SOL    HW154369   7.850   6.010   1.457
17512SOL    HW254370   7.962   6.097   1.403
17513SOL     OW54371   2.254   4.101  12.096
17513SOL    HW154372   2.260   4.114  12.002
17513SOL    HW254373   2.309   4.024  12.113
17514SOL     OW54374   3.743   6.752   6.669
17514SOL    HW154375   3.692   6.762   6.750
17514SOL    HW254376   3.783   6.665   6.676
17515SOL     OW54377  11.920  13.246   5.858
17515SOL    HW154378  11.957  13.314   5.802
17515SOL    HW254379  11.825  13.260   5.854
17516SOL     OW54380   9.287   1.591   7.360
17516SOL    HW154381   9.361   1.575   7.419
17516SOL    HW254382   9.216   1.617   7.419
17517SOL     OW54383  10.786  14.585   4.644
17517SOL    HW154384  10.833  14.558   4.565
17517SOL    HW254385  10.846  14.646   4.687
17518SOL     OW54386   2.558   0.198   5.023
17518SOL    HW154387   2.651   0.211   5.042
17518SOL    HW254388   2.543   0.250   4.943
17519SOL     OW54389  10.036   6.320   1.132
17519SOL    HW154390  10.064   6.397   1.182
17519SOL    HW254391   9.978   6.273   1.191
17520SOL     OW54392   3.342   9.321   8.157
17520SOL    HW154393   3.249   9.315   8.176
17520SOL    HW254394   3.353   9.275   8.074
17521SOL     OW54395   6.766  13.963   9.125
17521SOL    HW154396   6.818  13.890   9.158
17521SOL    HW254397   6.728  13.931   9.043
17522SOL     OW54398   4.447   0.188   9.555
17522SOL    HW154399   4.487   0.235   9.628
17522SOL    HW254400   4.516   0.181   9.490
17523SOL     OW54401   4.279  12.388   4.976
17523SOL    HW154402   4.263  12.300   4.942
17523SOL    HW254403   4.312  12.437   4.901
17524SOL     OW54404  14.420   6.695   7.411
17524SOL    HW154405  14.415   6.714   7.505
17524SOL    HW254406  14.328   6.692   7.383
17525SOL     OW54407  12.742   9.248   4.250
17525SOL    HW154408  12.753   9.162   4.291
17525SOL    HW254409  12.687   9.231   4.174
17526SOL     OW54410  11.968   9.381   4.892
17526SOL    HW154411  11.963   9.474   4.869
17526SOL    HW254412  11.967   9.336   4.807
17527SOL     OW54413  11.909   1.614   9.009
17527SOL    HW154414  11.908   1.533   8.959
17527SOL    HW254415  11.853   1.674   8.959
17528SOL     OW54416   0.612  10.759  11.401
17528SOL    HW154417   0.653  10.729  11.482
17528SOL    HW254418   0.685  10.786  11.346
17529SOL     OW54419   7.704   6.633   7.201
17529SOL    HW154420   7.738   6.548   7.173
17529SOL    HW254421   7.609   6.620   7.207
17530SOL     OW54422  14.223   0.839  12.357
17530SOL    HW154423  14.198   0.856  12.266
17530SOL    HW254424  14.159   0.775  12.388
17531SOL     OW54425   6.373   7.694  10.969
17531SOL    HW154426   6.387   7.750  10.893
17531SOL    HW254427   6.288   7.653  10.954
17532SOL     OW54428  11.273   3.066   5.426
17532SOL    HW154429  11.215   3.066   5.349
17532SOL    HW254430  11.349   3.015   5.398
17533SOL     OW54431  11.157  14.597   4.795
17533SOL    HW154432  11.075  14.644   4.780
17533SOL    HW254433  11.219  14.637   4.734
17534SOL     OW54434   3.256   3.207  11.089
17534SOL    HW154435   3.187   3.258  11.130
17534SOL    HW254436   3.335   3.226  11.140
17535SOL     OW54437   7.672  12.637   0.808
17535SOL    HW154438   7.767  12.632   0.807
17535SOL    HW254439   7.653  12.720   0.853
17536SOL     OW54440  11.206   3.333   6.419
17536SOL    HW154441  11.223   3.427   6.410
17536SOL    HW254442  11.144   3.314   6.349
17537SOL     OW54443  11.574   4.811  10.987
17537SOL    HW154444  11.614   4.876  10.931
17537SOL    HW254445  11.579   4.849  11.075
17538SOL     OW54446   1.902  13.790   6.872
17538SOL    HW154447   1.954  13.870   6.863
17538SOL    HW254448   1.811  13.821   6.865
17539SOL     OW54449   4.191  12.663  12.867
17539SOL    HW154450   4.231  12.651  12.953
17539SOL    HW254451   4.257  12.707  12.815
17540SOL     OW54452  11.713   8.479  14.830
17540SOL    HW154453  11.709   8.384  14.840
17540SOL    HW254454  11.682   8.496  14.741
17541SOL     OW54455  11.455   1.499  12.001
17541SOL    HW154456  11.360   1.506  12.011
17541SOL    HW254457  11.467   1.466  11.913
17542SOL     OW54458   3.158  11.141  14.685
17542SOL    HW154459   3.176  11.050  14.664
17542SOL    HW254460   3.172  11.147  14.780
17543SOL     OW54461   0.036  14.409   3.910
17543SOL    HW154462  14.845  14.365   3.958
17543SOL    HW254463   0.117  14.371   3.945
17544SOL     OW54464   2.810   2.922   0.427
17544SOL    HW154465   2.873   2.979   0.384
17544SOL    HW254466   2.844   2.912   0.516
17545SOL     OW54467   8.265   7.432  11.538
17545SOL    HW154468   8.177   7.436  11.502
17545SOL    HW254469   8.302   7.519  11.521
17546SOL     OW54470   9.281  12.694   0.650
17546SOL    HW154471   9.363  12.677   0.697
17546SOL    HW254472   9.213  12.685   0.717
17547SOL     OW54473   8.607   9.015   2.500
17547SOL    HW154474   8.520   8.975   2.509
17547SOL    HW254475   8.593   9.088   2.440
17548SOL     OW54476   1.502   2.549   6.582
17548SOL    HW154477   1.523   2.456   6.578
17548SOL    HW254478   1.407   2.552   6.568
17549SOL     OW54479  14.468  12.987   9.962
17549SOL    HW154480  14.483  13.017   9.872
17549SOL    HW254481  14.499  12.897   9.962
17550SOL     OW54482  10.480   5.287   2.405
17550SOL    HW154483  10.422   5.218   2.437
17550SOL    HW254484  10.445   5.367   2.444
17551SOL     OW54485   4.364   2.623   1.980
17551SOL    HW154486   4.346   2.530   1.996
17551SOL    HW254487   4.283   2.668   2.002
17552SOL     OW54488   7.262  12.273   8.957
17552SOL    HW154489   7.293  12.351   8.911
17552SOL    HW254490   7.247  12.209   8.888
17553SOL     OW54491   4.653  10.508  14.413
17553SOL    HW154492   4.642  10.414  14.428
17553SOL    HW254493   4.627  10.522  14.322
17554SOL     OW54494   6.499   2.309  10.229
17554SOL    HW154495   6.473   2.217  10.233
17554SOL    HW254496   6.592   2.307  10.207
17555SOL     OW54497   2.611   9.036   1.067
17555SOL    HW154498   2.597   9.027   0.973
17555SOL    HW254499   2.531   9.001   1.106
17556SOL     OW54500   2.108  10.700  14.535
17556SOL    HW154501   2.049  10.643  14.585
17556SOL    HW254502   2.134  10.647  14.460
17557SOL     OW54503   9.972   8.928   9.634
17557SOL    HW154504  10.007   9.009   9.599
17557SOL    HW254505   9.880   8.928   9.607
17558SOL     OW54506   6.771   8.540  13.658
17558SOL    HW154507   6.789   8.631  13.635
17558SOL    HW254508   6.675   8.535  13.660
17559SOL     OW54509  14.842   7.855   5.252
17559SOL    HW154510  14.803   7.838   5.337
17559SOL    HW254511   0.007   7.939   5.263
17560SOL     OW54512  13.955   1.122   0.541
17560SOL    HW154513  13.873   1.142   0.587
17560SOL    HW254514  13.970   1.198   0.485
17561SOL     OW54515   0.714   9.530   6.475
17561SOL    HW154516   0.807   9.530   6.453
17561SOL    HW254517   0.709   9.479   6.556
17562SOL     OW54518   7.471  11.616   3.790
17562SOL    HW154519   7.418  11.579   3.861
17562SOL    HW254520   7.529  11.544   3.764
17563SOL     OW54521   4.188  11.506   3.384
17563SOL    HW154522   4.103  11.489   3.424
17563SOL    HW254523   4.168  11.539   3.297
17564SOL     OW54524   7.013  11.091   7.407
17564SOL    HW154525   6.931  11.092   7.455
17564SOL    HW254526   6.994  11.038   7.329
17565SOL     OW54527   3.322  10.115   8.488
17565SOL    HW154528   3.407  10.073   8.471
17565SOL    HW254529   3.284  10.063   8.559
17566SOL     OW54530  13.919   2.543  14.001
17566SOL    HW154531  13.993   2.594  14.033
17566SOL    HW254532  13.953   2.495  13.925
17567SOL     OW54533   8.152   3.469  11.421
17567SOL    HW154534   8.120   3.471  11.512
17567SOL    HW254535   8.099   3.534  11.376
17568SOL     OW54536   2.448   4.468   7.853
17568SOL    HW154537   2.402   4.425   7.781
17568SOL    HW254538   2.518   4.518   7.809
17569SOL     OW54539   1.181   1.185   1.007
17569SOL    HW154540   1.226   1.200   0.924
17569SOL    HW254541   1.123   1.110   0.990
17570SOL     OW54542   1.479   2.450   5.858
17570SOL    HW154543   1.550   2.387   5.849
17570SOL    HW254544   1.410   2.417   5.800
17571SOL     OW54545   0.006   1.149   0.199
17571SOL    HW154546  14.808   1.144   0.143
17571SOL    HW254547   0.006   1.067   0.248
17572SOL     OW54548  12.483  11.191   0.291
17572SOL    HW154549  12.502  11.243   0.370
17572SOL    HW254550  12.389  11.174   0.295
17573SOL     OW54551  12.813   1.174   4.269
17573SOL    HW154552  12.835   1.219   4.350
17573SOL    HW254553  12.877   1.103   4.263
17574SOL     OW54554  12.784  12.174   7.512
17574SOL    HW154555  12.695  12.209   7.510
17574SOL    HW254556  12.773  12.082   7.488
17575SOL     OW54557   6.835   2.243  10.556
17575SOL    HW154558   6.885   2.300  10.497
17575SOL    HW254559   6.744   2.270  10.544
17576SOL     OW54560  10.538  13.183  14.608
17576SOL    HW154561  10.613  13.231  14.644
17576SOL    HW254562  10.463  13.241  14.621
17577SOL     OW54563   4.564   4.210   5.017
17577SOL    HW154564   4.522   4.181   4.936
17577SOL    HW254565   4.550   4.138   5.079
17578SOL     OW54566  11.945   6.342  12.843
17578SOL    HW154567  11.937   6.281  12.770
17578SOL    HW254568  11.973   6.288  12.917
17579SOL     OW54569  11.033   8.127   7.550
17579SOL    HW154570  11.010   8.114   7.458
17579SOL    HW254571  10.997   8.213   7.571
17580SOL     OW54572   6.611   0.948   1.393
17580SOL    HW154573   6.550   0.879   1.417
17580SOL    HW254574   6.560   1.028   1.398
17581SOL     OW54575  10.655   4.960   3.525
17581SOL    HW154576  10.647   4.912   3.607
17581SOL    HW254577  10.699   4.900   3.466
17582SOL     OW54578  14.056   4.449   8.879
17582SOL    HW154579  14.042   4.357   8.859
17582SOL    HW254580  14.017   4.497   8.806
17583SOL     OW54581   5.942   5.265   2.575
17583SOL    HW154582   5.954   5.357   2.555
17583SOL    HW254583   5.968   5.256   2.666
17584SOL     OW54584   5.115   2.202   8.086
17584SOL    HW154585   5.150   2.119   8.119
17584SOL    HW254586   5.127   2.198   7.992
17585SOL     OW54587   0.139  14.770  14.466
17585SOL    HW154588   0.164  14.736  14.552
17585SOL    HW254589   0.181  14.856  14.461
17586SOL     OW54590   3.656   0.834  11.865
17586SOL    HW154591   3.699   0.767  11.812
17586SOL    HW254592   3.689   0.917  11.830
17587SOL     OW54593   6.002   6.495   4.170
17587SOL    HW154594   6.041   6.420   4.125
17587SOL    HW254595   6.072   6.529   4.225
17588SOL     OW54596   3.897   0.053  13.592
17588SOL    HW154597   3.970  14.870  13.597
17588SOL    HW254598   3.868   0.063  13.682
17589SOL     OW54599  12.162   3.284  10.256
17589SOL    HW154600  12.121   3.351  10.201
17589SOL    HW254601  12.169   3.207  10.200
17590SOL     OW54602   8.830   7.682  14.525
17590SOL    HW154603   8.897   7.735  14.567
17590SOL    HW254604   8.748   7.714  14.562
17591SOL     OW54605  14.814   6.315  13.216
17591SOL    HW154606   0.010   6.346  13.268
17591SOL    HW254607  14.784   6.237  13.261
17592SOL     OW54608   8.031   1.032   1.634
17592SOL    HW154609   7.992   1.078   1.559
17592SOL    HW254610   8.041   0.942   1.604
17593SOL     OW54611   7.257  12.834   6.785
17593SOL    HW154612   7.181  12.846   6.728
17593SOL    HW254613   7.305  12.916   6.780
17594SOL     OW54614   7.061   1.436  10.567
17594SOL    HW154615   7.071   1.366  10.631
17594SOL    HW254616   7.133   1.424  10.505
17595SOL     OW54617  14.075  12.787   0.470
17595SOL    HW154618  14.038  12.739   0.396
17595SOL    HW254619  14.084  12.722   0.540
17596SOL     OW54620   5.370   7.837   6.364
17596SOL    HW154621   5.350   7.844   6.271
17596SOL    HW254622   5.289   7.805   6.404
17597SOL     OW54623   2.944   5.876   1.438
17597SOL    HW154624   2.943   5.781   1.427
17597SOL    HW254625   3.004   5.907   1.370
17598SOL     OW54626   0.953   9.521   8.516
17598SOL    HW154627   0.974   9.606   8.478
17598SOL    HW254628   0.998   9.458   8.460
17599SOL     OW54629   3.886   9.300   1.809
17599SOL    HW154630   3.853   9.359   1.877
17599SOL    HW254631   3.953   9.248   1.853
17600SOL     OW54632   2.453   2.832  13.758
17600SOL    HW154633   2.525   2.890  13.734
17600SOL    HW254634   2.472   2.750  13.714
17601SOL     OW54635   8.092   7.329   7.626
17601SOL    HW154636   8.117   7.401   7.684
17601SOL    HW254637   8.087   7.252   7.683
17602SOL     OW54638   7.977   3.392  10.181
17602SOL    HW154639   7.897   3.372  10.132
17602SOL    HW254640   8.005   3.308  10.218
17603SOL     OW54641   2.980   4.166  14.151
17603SOL    HW154642   2.963   4.187  14.060
17603SOL    HW254643   2.979   4.251  14.196
17604SOL     OW54644   0.848  11.439   2.270
17604SOL    HW154645   0.752  11.444   2.271
17604SOL    HW254646   0.874  11.471   2.356
17605SOL     OW54647   9.893   8.639   4.960
17605SOL    HW154648   9.912   8.694   5.036
17605SOL    HW254649   9.970   8.583   4.950
17606SOL     OW54650   6.189   6.335   0.937
17606SOL    HW154651   6.187   6.260   0.996
17606SOL    HW254652   6.282   6.355   0.927
17607SOL     OW54653  13.924  13.248  10.196
17607SOL    HW154654  13.916  13.199  10.278
17607SOL    HW254655  13.948  13.182  10.131
17608SOL     OW54656   0.681   0.883  10.032
17608SOL    HW154657   0.743   0.841  10.092
17608SOL    HW254658   0.707   0.975  10.031
17609SOL     OW54659  11.489   7.539   9.137
17609SOL    HW154660  11.570   7.557   9.089
17609SOL    HW254661  11.512   7.467   9.197
17610SOL     OW54662   2.558   0.494   3.437
17610SOL    HW154663   2.550   0.587   3.417
17610SOL    HW254664   2.487   0.453   3.386
17611SOL     OW54665  14.120   6.662  13.168
17611SOL    HW154666  14.026   6.679  13.161
17611SOL    HW254667  14.126   6.581  13.218
17612SOL     OW54668  11.222   4.813   2.119
17612SOL    HW154669  11.221   4.906   2.096
17612SOL    HW254670  11.132   4.793   2.143
17613SOL     OW54671   8.217   5.200   6.191
17613SOL    HW154672   8.142   5.170   6.139
17613SOL    HW254673   8.230   5.132   6.257
17614SOL     OW54674   2.914  13.237   9.681
17614SOL    HW154675   2.952  13.320   9.712
17614SOL    HW254676   2.956  13.223   9.596
17615SOL     OW54677   9.936   6.448   8.404
17615SOL    HW154678   9.973   6.518   8.350
17615SOL    HW254679   9.933   6.485   8.492
17616SOL     OW54680  11.785  10.380  14.311
17616SOL    HW154681  11.731  10.370  14.389
17616SOL    HW254682  11.769  10.300  14.261
17617SOL     OW54683   3.496  14.272   5.190
17617SOL    HW154684   3.411  14.271   5.233
17617SOL    HW254685   3.557  14.301   5.258
17618SOL     OW54686   6.042  12.353  13.167
17618SOL    HW154687   5.996  12.286  13.116
17618SOL    HW254688   6.053  12.314  13.254
17619SOL     OW54689  10.979   5.986   8.375
17619SOL    HW154690  10.991   5.922   8.445
17619SOL    HW254691  10.992   5.936   8.294
17620SOL     OW54692   5.955  13.085   2.618
17620SOL    HW154693   6.020  13.120   2.680
17620SOL    HW254694   5.990  12.999   2.594
17621SOL     OW54695   5.899   8.519   5.382
17621SOL    HW154696   5.840   8.547   5.451
17621SOL    HW254697   5.851   8.451   5.336
17622SOL     OW54698  11.943   6.289   1.373
17622SOL    HW154699  11.879   6.218   1.379
17622SOL    HW254700  11.974   6.301   1.463
17623SOL     OW54701   4.958   7.086   0.174
17623SOL    HW154702   4.896   7.036   0.226
17623SOL    HW254703   4.905   7.125   0.105
17624SOL     OW54704   9.890  10.796  13.203
17624SOL    HW154705   9.805  10.790  13.160
17624SOL    HW254706   9.940  10.856  13.147
17625SOL     OW54707   3.998   8.461   2.481
17625SOL    HW154708   3.997   8.408   2.402
17625SOL    HW254709   3.945   8.538   2.459
17626SOL     OW54710   7.434   1.881   3.441
17626SOL    HW154711   7.469   1.892   3.352
17626SOL    HW254712   7.508   1.845   3.491
17627SOL     OW54713   7.456   8.561  11.250
17627SOL    HW154714   7.389   8.609  11.298
17627SOL    HW254715   7.539   8.589  11.290
17628SOL     OW54716   5.168  14.784   8.779
17628SOL    HW154717   5.180  14.803   8.872
17628SOL    HW254718   5.222  14.849   8.734
17629SOL     OW54719   1.555  12.763   6.938
17629SOL    HW154720   1.515  12.833   6.990
17629SOL    HW254721   1.642  12.796   6.917
17630SOL     OW54722   6.904  10.100  12.508
17630SOL    HW154723   6.842  10.027  12.518
17630SOL    HW254724   6.966  10.070  12.442
17631SOL     OW54725   4.860   2.608  13.529
17631SOL    HW154726   4.836   2.539  13.467
17631SOL    HW254727   4.783   2.665  13.533
17632SOL     OW54728   9.625   3.819   7.158
17632SOL    HW154729   9.646   3.884   7.226
17632SOL    HW254730   9.574   3.868   7.093
17633SOL     OW54731   1.899  11.425  11.946
17633SOL    HW154732   1.940  11.397  12.028
17633SOL    HW254733   1.805  11.425  11.965
17634SOL     OW54734   4.049   0.629  14.557
17634SOL    HW154735   4.067   0.541  14.590
17634SOL    HW254736   3.984   0.616  14.488
17635SOL     OW54737   9.810   6.882   5.758
17635SOL    HW154738   9.872   6.831   5.810
17635SOL    HW254739   9.726   6.840   5.774
17636SOL     OW54740   4.021   2.840   3.488
17636SOL    HW154741   3.963   2.831   3.563
17636SOL    HW254742   3.976   2.796   3.416
17637SOL     OW54743   4.617   3.530   2.577
17637SOL    HW154744   4.630   3.467   2.506
17637SOL    HW254745   4.624   3.478   2.657
17638SOL     OW54746   8.354   4.704   5.851
17638SOL    HW154747   8.390   4.616   5.860
17638SOL    HW254748   8.270   4.691   5.807
17639SOL     OW54749   3.864   4.956   9.936
17639SOL    HW154750   3.931   4.988   9.995
17639SOL    HW254751   3.879   4.862   9.931
17640SOL     OW54752   0.314   3.285  11.712
17640SOL    HW154753   0.357   3.300  11.796
17640SOL    HW254754   0.271   3.368  11.692
17641SOL     OW54755   9.178   8.566   6.952
17641SOL    HW154756   9.132   8.585   7.033
17641SOL    HW254757   9.204   8.475   6.959
17642SOL     OW54758   5.412   6.759   5.635
17642SOL    HW154759   5.493   6.733   5.592
17642SOL    HW254760   5.374   6.678   5.668
17643SOL     OW54761   9.903   5.808  10.680
17643SOL    HW154762   9.947   5.884  10.719
17643SOL    HW254763   9.969   5.739  10.680
17644SOL     OW54764   2.869   7.068   6.267
17644SOL    HW154765   2.805   7.137   6.252
17644SOL    HW254766   2.954   7.112   6.267
17645SOL     OW54767  12.350  12.140   3.492
17645SOL    HW154768  12.381  12.193   3.419
17645SOL    HW254769  12.254  12.148   3.489
17646SOL     OW54770   3.526   6.041  10.856
17646SOL    HW154771   3.466   6.110  10.828
17646SOL    HW254772   3.566   6.010  10.775
17647SOL     OW54773  11.292   3.568   6.335
17647SOL    HW154774  11.327   3.540   6.251
17647SOL    HW254775  11.289   3.663   6.330
17648SOL     OW54776   6.492   0.335  11.608
17648SOL    HW154777   6.418   0.295  11.562
17648SOL    HW254778   6.483   0.428  11.591
17649SOL     OW54779   0.739   8.311   9.446
17649SOL    HW154780   0.660   8.281   9.400
17649SOL    HW254781   0.783   8.231   9.472
17650SOL     OW54782   5.476   8.676   5.393
17650SOL    HW154783   5.486   8.677   5.298
17650SOL    HW254784   5.425   8.754   5.412
17651SOL     OW54785  11.952   2.531   0.640
17651SOL    HW154786  11.929   2.455   0.694
17651SOL    HW254787  11.966   2.602   0.702
17652SOL     OW54788  14.444   7.063  14.403
17652SOL    HW154789  14.358   7.053  14.362
17652SOL    HW254790  14.464   6.976  14.439
17653SOL     OW54791   0.561   4.388   5.024
17653SOL    HW154792   0.481   4.397   5.077
17653SOL    HW254793   0.631   4.420   5.080
17654SOL     OW54794   3.113  10.725   2.300
17654SOL    HW154795   3.114  10.819   2.316
17654SOL    HW254796   3.041  10.692   2.355
17655SOL     OW54797   2.724  11.444  12.024
17655SOL    HW154798   2.800  11.494  12.054
17655SOL    HW254799   2.727  11.364  12.076
17656SOL     OW54800   7.659   8.016   5.150
17656SOL    HW154801   7.700   7.958   5.085
17656SOL    HW254802   7.719   8.090   5.156
17657SOL     OW54803  11.078   5.621   7.121
17657SOL    HW154804  11.086   5.590   7.031
17657SOL    HW254805  11.068   5.542   7.173
17658SOL     OW54806   4.148   4.108   2.288
17658SOL    HW154807   4.244   4.112   2.285
17658SOL    HW254808   4.121   4.142   2.202
17659SOL     OW54809  13.441   5.272   1.772
17659SOL    HW154810  13.509   5.218   1.733
17659SOL    HW254811  13.470   5.362   1.757
17660SOL     OW54812  12.984   7.752   2.666
17660SOL    HW154813  13.066   7.795   2.691
17660SOL    HW254814  12.979   7.675   2.723
17661SOL     OW54815  13.809  13.173   4.302
17661SOL    HW154816  13.845  13.231   4.235
17661SOL    HW254817  13.811  13.225   4.382
17662SOL     OW54818   1.336   3.008  12.150
17662SOL    HW154819   1.318   3.075  12.084
17662SOL    HW254820   1.253   2.996  12.196
17663SOL     OW54821   1.330   1.117   5.188
17663SOL    HW154822   1.404   1.073   5.147
17663SOL    HW254823   1.263   1.119   5.120
17664SOL     OW54824  14.182  10.053   3.545
17664SOL    HW154825  14.129  10.096   3.477
17664SOL    HW254826  14.141  10.081   3.627
17665SOL     OW54827   6.191  11.671   6.320
17665SOL    HW154828   6.124  11.718   6.270
17665SOL    HW254829   6.193  11.584   6.280
17666SOL     OW54830   8.823  10.844   4.320
17666SOL    HW154831   8.802  10.840   4.227
17666SOL    HW254832   8.741  10.822   4.364
17667SOL     OW54833  13.836  14.412   7.322
17667SOL    HW154834  13.901  14.482   7.329
17667SOL    HW254835  13.882  14.334   7.351
17668SOL     OW54836  14.814   4.064   2.395
17668SOL    HW154837  14.774   4.128   2.336
17668SOL    HW254838   0.028   4.068   2.375
17669SOL     OW54839   8.635  10.931   9.689
17669SOL    HW154840   8.689  10.894   9.759
17669SOL    HW254841   8.698  10.976   9.631
17670SOL     OW54842   0.735   2.258  12.221
17670SOL    HW154843   0.791   2.192  12.179
17670SOL    HW254844   0.748   2.244  12.315
17671SOL     OW54845  12.066   1.785   6.299
17671SOL    HW154846  12.015   1.816   6.373
17671SOL    HW254847  12.103   1.702   6.330
17672SOL     OW54848  13.070  14.557   1.482
17672SOL    HW154849  12.994  14.586   1.533
17672SOL    HW254850  13.067  14.462   1.486
17673SOL     OW54851   9.918  12.242   2.881
17673SOL    HW154852   9.837  12.190   2.880
17673SOL    HW254853   9.983  12.182   2.918
17674SOL     OW54854  13.125   3.838   2.941
17674SOL    HW154855  13.205   3.818   2.990
17674SOL    HW254856  13.083   3.908   2.991
17675SOL     OW54857  10.323  14.290   0.117
17675SOL    HW154858  10.300  14.322   0.205
17675SOL    HW254859  10.246  14.240   0.090
17676SOL     OW54860  11.832   1.653  14.161
17676SOL    HW154861  11.835   1.679  14.069
17676SOL    HW254862  11.740   1.632  14.177
17677SOL     OW54863   6.556   8.444   0.106
17677SOL    HW154864   6.551   8.368   0.164
17677SOL    HW254865   6.596   8.512   0.160
17678SOL     OW54866   1.318   8.228   4.869
17678SOL    HW154867   1.361   8.202   4.788
17678SOL    HW254868   1.236   8.178   4.870
17679SOL     OW54869   3.941   9.947  11.271
17679SOL    HW154870   3.890   9.954  11.352
17679SOL    HW254871   4.008   9.881  11.291
17680SOL     OW54872  10.049  11.801   4.975
17680SOL    HW154873  10.141  11.808   5.001
17680SOL    HW254874  10.034  11.707   4.965
17681SOL     OW54875  13.355   6.431  13.758
17681SOL    HW154876  13.396   6.395  13.679
17681SOL    HW254877  13.369   6.363  13.825
17682SOL     OW54878   0.482   3.130  11.002
17682SOL    HW154879   0.570   3.160  11.026
17682SOL    HW254880   0.497   3.045  10.960
17683SOL     OW54881   9.280   3.920  14.448
17683SOL    HW154882   9.250   4.009  14.428
17683SOL    HW254883   9.227   3.864  14.392
17684SOL     OW54884   2.431   7.695  12.553
17684SOL    HW154885   2.434   7.677  12.647
17684SOL    HW254886   2.521   7.682  12.523
17685SOL     OW54887   4.895   0.443   5.490
17685SOL    HW154888   4.865   0.496   5.564
17685SOL    HW254889   4.820   0.439   5.431
17686SOL     OW54890   0.935   8.586  10.249
17686SOL    HW154891   0.886   8.547  10.322
17686SOL    HW254892   0.965   8.511  10.198
17687SOL     OW54893   7.792   3.738  10.333
17687SOL    HW154894   7.865   3.731  10.395
17687SOL    HW254895   7.786   3.652  10.293
17688SOL     OW54896   2.275  11.204   7.157
17688SOL    HW154897   2.287  11.184   7.064
17688SOL    HW254898   2.355  11.249   7.182
17689SOL     OW54899  14.737  12.147   2.998
17689SOL    HW154900  14.667  12.205   2.968
17689SOL    HW254901  14.725  12.067   2.948
17690SOL     OW54902  12.372   3.769   0.182
17690SOL    HW154903  12.384   3.674   0.178
17690SOL    HW254904  12.444   3.804   0.130
17691SOL     OW54905  12.487  14.723  11.000
17691SOL    HW154906  12.451  14.766  11.077
17691SOL    HW254907  12.467  14.783  10.928
17692SOL     OW54908   1.984   3.086   8.227
17692SOL    HW154909   1.924   3.151   8.192
17692SOL    HW254910   2.066   3.102   8.180
17693SOL     OW54911  12.613   5.694   4.373
17693SOL    HW154912  12.652   5.739   4.298
17693SOL    HW254913  12.593   5.763   4.436
17694SOL     OW54914   9.443   6.561   4.981
17694SOL    HW154915   9.373   6.498   4.996
17694SOL    HW254916   9.435   6.623   5.054
17695SOL     OW54917   0.813   0.167   9.991
17695SOL    HW154918   0.744   0.108   9.960
17695SOL    HW254919   0.785   0.254   9.962
17696SOL     OW54920   1.745   0.318   3.241
17696SOL    HW154921   1.667   0.274   3.275
17696SOL    HW254922   1.813   0.250   3.242
17697SOL     OW54923  13.666   4.967   1.278
17697SOL    HW154924  13.604   4.920   1.221
17697SOL    HW254925  13.739   4.906   1.288
17698SOL     OW54926   0.102  10.960  11.793
17698SOL    HW154927   0.162  10.935  11.723
17698SOL    HW254928   0.103  10.885  11.853
17699SOL     OW54929  12.213  12.086   7.796
17699SOL    HW154930  12.229  12.180   7.784
17699SOL    HW254931  12.159  12.061   7.721
17700SOL     OW54932  11.993  13.783  12.314
17700SOL    HW154933  11.955  13.785  12.402
17700SOL    HW254934  12.087  13.793  12.328
17701SOL     OW54935  10.227   8.990   8.278
17701SOL    HW154936  10.196   9.076   8.249
17701SOL    HW254937  10.274   8.955   8.203
17702SOL     OW54938  14.569   4.953  12.464
17702SOL    HW154939  14.565   4.896  12.541
17702SOL    HW254940  14.492   5.009  12.473
17703SOL     OW54941   5.322   4.633  10.571
17703SOL    HW154942   5.237   4.630  10.528
17703SOL    HW254943   5.304   4.664  10.660
17704SOL     OW54944  10.165   7.796   3.783
17704SOL    HW154945  10.256   7.769   3.792
17704SOL    HW254946  10.116   7.714   3.770
17705SOL     OW54947  12.344   4.933  14.609
17705SOL    HW154948  12.354   4.849  14.654
17705SOL    HW254949  12.323   4.909  14.519
17706SOL     OW54950   8.852   1.324   8.613
17706SOL    HW154951   8.908   1.332   8.690
17706SOL    HW254952   8.848   1.230   8.596
17707SOL     OW54953   2.367  11.881   7.572
17707SOL    HW154954   2.343  11.958   7.623
17707SOL    HW254955   2.334  11.807   7.624
17708SOL     OW54956  10.659   4.412  12.866
17708SOL    HW154957  10.668   4.483  12.929
17708SOL    HW254958  10.644   4.456  12.782
17709SOL     OW54959  12.343  13.309   8.617
17709SOL    HW154960  12.248  13.312   8.629
17709SOL    HW254961  12.366  13.217   8.631
17710SOL     OW54962   1.355  12.471   8.931
17710SOL    HW154963   1.328  12.414   9.003
17710SOL    HW254964   1.330  12.559   8.959
17711SOL     OW54965  10.161   9.114  11.273
17711SOL    HW154966  10.209   9.162  11.206
17711SOL    HW254967  10.204   9.137  11.355
17712SOL     OW54968   0.119   9.040   1.178
17712SOL    HW154969   0.144   9.120   1.224
17712SOL    HW254970   0.038   9.062   1.132
17713SOL     OW54971   5.353  11.505  10.233
17713SOL    HW154972   5.441  11.474  10.255
17713SOL    HW254973   5.335  11.468  10.147
17714SOL     OW54974  12.129   1.844  11.021
17714SOL    HW154975  12.210   1.845  11.072
17714SOL    HW254976  12.069   1.790  11.073
17715SOL     OW54977   3.496  11.163  12.932
17715SOL    HW154978   3.455  11.087  12.889
17715SOL    HW254979   3.426  11.229  12.936
17716SOL     OW54980   8.805   4.227   0.841
17716SOL    HW154981   8.899   4.218   0.856
17716SOL    HW254982   8.777   4.142   0.807
17717SOL     OW54983  13.894  11.543   6.426
17717SOL    HW154984  13.800  11.560   6.437
17717SOL    HW254985  13.902  11.510   6.337
17718SOL     OW54986   7.146  14.785  10.934
17718SOL    HW154987   7.119  14.704  10.977
17718SOL    HW254988   7.064  14.831  10.916
17719SOL     OW54989   1.433   1.820   5.025
17719SOL    HW154990   1.519   1.828   5.066
17719SOL    HW254991   1.371   1.838   5.095
17720SOL     OW54992   1.947  14.696   3.179
17720SOL    HW154993   1.876  14.636   3.156
17720SOL    HW254994   1.903  14.773   3.215
17721SOL     OW54995  12.092  12.481   7.947
17721SOL    HW154996  11.998  12.477   7.928
17721SOL    HW254997  12.100  12.550   8.012
17722SOL     OW54998   4.874   9.391   4.648
17722SOL    HW154999   4.932   9.315   4.650
17722SOL    HW255000   4.851   9.406   4.739
17723SOL     OW55001   4.078   5.837   0.713
17723SOL    HW155002   4.038   5.816   0.628
17723SOL    HW255003   4.143   5.904   0.692
17724SOL     OW55004  13.802   4.602  13.218
17724SOL    HW155005  13.717   4.567  13.245
17724SOL    HW255006  13.803   4.692  13.251
17725SOL     OW55007   3.992   2.995   7.345
17725SOL    HW155008   4.067   3.053   7.331
17725SOL    HW255009   4.009   2.920   7.289
17726SOL     OW55010   7.945   8.447  12.058
17726SOL    HW155011   8.009   8.518  12.066
17726SOL    HW255012   7.995   8.367  12.075
17727SOL     OW55013   5.014   7.810   2.432
17727SOL    HW155014   4.919   7.800   2.431
17727SOL    HW255015   5.031   7.876   2.499
17728SOL     OW55016   8.740   4.621  11.223
17728SOL    HW155017   8.689   4.557  11.273
17728SOL    HW255018   8.691   4.703  11.233
17729SOL     OW55019  11.913   9.518  10.023
17729SOL    HW155020  11.945   9.606  10.005
17729SOL    HW255021  11.906   9.476   9.937
17730SOL     OW55022   9.943   8.024   4.899
17730SOL    HW155023   9.988   8.106   4.881
17730SOL    HW255024   9.885   8.011   4.824
17731SOL     OW55025  12.345   6.848   9.733
17731SOL    HW155026  12.272   6.909   9.742
17731SOL    HW255027  12.304   6.765   9.708
17732SOL     OW55028   3.537   3.964   2.737
17732SOL    HW155029   3.627   3.996   2.747
17732SOL    HW255030   3.536   3.880   2.783
17733SOL     OW55031   7.049  11.292  10.400
17733SOL    HW155032   7.140  11.320  10.409
17733SOL    HW255033   6.998  11.366  10.434
17734SOL     OW55034   7.683   8.926   1.645
17734SOL    HW155035   7.709   9.013   1.614
17734SOL    HW255036   7.719   8.866   1.581
17735SOL     OW55037   2.474   6.311   7.502
17735SOL    HW155038   2.487   6.220   7.476
17735SOL    HW255039   2.532   6.323   7.578
17736SOL     OW55040   9.756  11.443   1.594
17736SOL    HW155041   9.661  11.444   1.584
17736SOL    HW255042   9.770  11.413   1.684
17737SOL     OW55043   6.038  14.583  10.291
17737SOL    HW155044   6.057  14.658  10.347
17737SOL    HW255045   6.023  14.511  10.352
17738SOL     OW55046  10.772   7.949   1.045
17738SOL    HW155047  10.690   7.998   1.035
17738SOL    HW255048  10.772   7.887   0.972
17739SOL     OW55049   6.381   9.258  14.755
17739SOL    HW155050   6.307   9.235  14.812
17739SOL    HW255051   6.444   9.187  14.768
17740SOL     OW55052   2.767   0.187   5.387
17740SOL    HW155053   2.826   0.197   5.312
17740SOL    HW255054   2.780   0.097   5.416
17741SOL     OW55055  11.948   2.483   8.041
17741SOL    HW155056  11.941   2.524   8.127
17741SOL    HW255057  11.895   2.538   7.984
17742SOL     OW55058   6.877   4.038   2.977
17742SOL    HW155059   6.867   4.115   2.921
17742SOL    HW255060   6.946   3.986   2.934
17743SOL     OW55061  11.875   3.551   1.080
17743SOL    HW155062  11.925   3.485   1.127
17743SOL    HW255063  11.805   3.502   1.036
17744SOL     OW55064   3.350   0.637  13.091
17744SOL    HW155065   3.335   0.543  13.083
17744SOL    HW255066   3.394   0.647  13.176
17745SOL     OW55067   9.846  14.503   9.666
17745SOL    HW155068   9.839  14.430   9.727
17745SOL    HW255069   9.806  14.577   9.711
17746SOL     OW55070   2.825   4.959   5.109
17746SOL    HW155071   2.789   4.935   5.024
17746SOL    HW255072   2.904   4.906   5.118
17747SOL     OW55073  11.598  12.249  14.283
17747SOL    HW155074  11.561  12.337  14.282
17747SOL    HW255075  11.606  12.225  14.191
17748SOL     OW55076   3.481   8.402  13.389
17748SOL    HW155077   3.432   8.380  13.309
17748SOL    HW255078   3.546   8.333  13.396
17749SOL     OW55079   8.639   0.820   7.504
17749SOL    HW155080   8.648   0.785   7.416
17749SOL    HW255081   8.604   0.747   7.556
17750SOL     OW55082   3.284  10.895   4.531
17750SOL    HW155083   3.202  10.849   4.519
17750SOL    HW255084   3.325  10.853   4.606
17751SOL     OW55085   2.952   6.332   9.759
17751SOL    HW155086   2.896   6.355   9.684
17751SOL    HW255087   3.023   6.280   9.720
17752SOL     OW55088  12.136   7.168   4.566
17752SOL    HW155089  12.224   7.155   4.603
17752SOL    HW255090  12.147   7.238   4.502
17753SOL     OW55091   2.990  11.311   0.965
17753SOL    HW155092   2.963  11.355   1.046
17753SOL    HW255093   3.076  11.347   0.946
17754SOL     OW55094  11.672  14.861   4.255
17754SOL    HW155095  11.736   0.044   4.291
17754SOL    HW255096  11.589   0.030   4.256
17755SOL     OW55097   1.283   9.734   5.994
17755SOL    HW155098   1.276   9.667   6.062
17755SOL    HW255099   1.230   9.701   5.922
17756SOL     OW55100   1.543  13.081   0.016
17756SOL    HW155101   1.618  13.064   0.072
17756SOL    HW255102   1.534  13.001  14.843
17757SOL     OW55103   9.650   1.825   9.469
17757SOL    HW155104   9.564   1.826   9.428
17757SOL    HW255105   9.661   1.735   9.500
17758SOL     OW55106   0.466  13.232   7.181
17758SOL    HW155107   0.533  13.165   7.184
17758SOL    HW255108   0.490  13.288   7.107
17759SOL     OW55109   1.553  14.302  11.352
17759SOL    HW155110   1.578  14.264  11.437
17759SOL    HW255111   1.478  14.358  11.372
17760SOL     OW55112  12.058   6.408   5.031
17760SOL    HW155113  11.969   6.413   5.065
17760SOL    HW255114  12.081   6.499   5.010
17761SOL     OW55115   6.976   8.466   5.343
17761SOL    HW155116   6.893   8.419   5.346
17761SOL    HW255117   7.004   8.471   5.434
17762SOL     OW55118   4.855   7.916   4.395
17762SOL    HW155119   4.869   7.958   4.310
17762SOL    HW255120   4.873   7.824   4.380
17763SOL     OW55121  12.620   5.334   5.306
17763SOL    HW155122  12.654   5.251   5.340
17763SOL    HW255123  12.598   5.315   5.215
17764SOL     OW55124  10.220  11.778   3.906
17764SOL    HW155125  10.129  11.765   3.931
17764SOL    HW255126  10.268  11.779   3.988
17765SOL     OW55127   5.873   7.613   0.223
17765SOL    HW155128   5.948   7.673   0.225
17765SOL    HW255129   5.884   7.563   0.143
17766SOL     OW55130   7.038   8.124   9.629
17766SOL    HW155131   7.086   8.200   9.663
17766SOL    HW255132   7.042   8.059   9.699
17767SOL     OW55133   0.029   5.754  13.871
17767SOL    HW155134   0.060   5.702  13.945
17767SOL    HW255135   0.104   5.761  13.813
17768SOL     OW55136   7.482   4.736  10.760
17768SOL    HW155137   7.570   4.705  10.781
17768SOL    HW255138   7.490   4.831  10.761
17769SOL     OW55139  10.537  10.833   5.750
17769SOL    HW155140  10.554  10.764   5.814
17769SOL    HW255141  10.620  10.879   5.741
17770SOL     OW55142  10.555   4.767   5.687
17770SOL    HW155143  10.486   4.793   5.625
17770SOL    HW255144  10.606   4.701   5.641
17771SOL     OW55145  14.178   0.653   7.308
17771SOL    HW155146  14.161   0.561   7.331
17771SOL    HW255147  14.239   0.648   7.235
17772SOL     OW55148  12.852   1.543  10.441
17772SOL    HW155149  12.835   1.610  10.508
17772SOL    HW255150  12.873   1.593  10.362
17773SOL     OW55151   1.372   4.411   2.310
17773SOL    HW155152   1.409   4.461   2.382
17773SOL    HW255153   1.398   4.460   2.231
17774SOL     OW55154  10.238  11.610   5.681
17774SOL    HW155155  10.156  11.598   5.633
17774SOL    HW255156  10.279  11.524   5.682
17775SOL     OW55157   1.220   8.959  11.815
17775SOL    HW155158   1.125   8.950  11.810
17775SOL    HW255159   1.253   8.876  11.780
17776SOL     OW55160   7.132   9.472   3.038
17776SOL    HW155161   7.056   9.417   3.057
17776SOL    HW255162   7.200   9.410   3.009
17777SOL     OW55163   0.948  14.304   9.779
17777SOL    HW155164   0.990  14.293   9.694
17777SOL    HW255165   1.020  14.301   9.842
17778SOL     OW55166   5.604  12.394  12.302
17778SOL    HW155167   5.545  12.381  12.228
17778SOL    HW255168   5.590  12.316  12.357
17779SOL     OW55169  12.489   0.084  11.715
17779SOL    HW155170  12.425   0.108  11.782
17779SOL    HW255171  12.523  14.878  11.743
17780SOL     OW55172   1.042   2.971  14.664
17780SOL    HW155173   1.057   3.029  14.589
17780SOL    HW255174   1.128   2.935  14.684
17781SOL     OW55175   9.912   5.165   1.511
17781SOL    HW155176   9.978   5.191   1.448
17781SOL    HW255177   9.881   5.080   1.480
17782SOL     OW55178   0.604   1.438  10.039
17782SOL    HW155179   0.596   1.394  10.124
17782SOL    HW255180   0.626   1.528  10.061
17783SOL     OW55181   5.823  10.942   4.363
17783SOL    HW155182   5.859  11.016   4.315
17783SOL    HW255183   5.876  10.867   4.335
17784SOL     OW55184  13.746  13.190  12.804
17784SOL    HW155185  13.784  13.223  12.886
17784SOL    HW255186  13.680  13.256  12.781
17785SOL     OW55187  14.741  12.372   0.953
17785SOL    HW155188  14.680  12.443   0.974
17785SOL    HW255189  14.765  12.335   1.038
17786SOL     OW55190   9.695   7.014   3.081
17786SOL    HW155191   9.624   7.070   3.049
17786SOL    HW255192   9.743   7.068   3.143
17787SOL     OW55193   1.067   9.803   7.471
17787SOL    HW155194   1.158   9.832   7.466
17787SOL    HW255195   1.073   9.707   7.480
17788SOL     OW55196  14.805   3.361  10.105
17788SOL    HW155197  14.804   3.409  10.189
17788SOL    HW255198  14.774   3.425  10.041
17789SOL     OW55199  11.588   7.351  10.818
17789SOL    HW155200  11.531   7.395  10.755
17789SOL    HW255201  11.580   7.258  10.797
17790SOL     OW55202   2.965   1.540  14.740
17790SOL    HW155203   2.889   1.587  14.773
17790SOL    HW255204   3.037   1.602  14.747
17791SOL     OW55205   7.180  12.709  12.878
17791SOL    HW155206   7.087  12.701  12.857
17791SOL    HW255207   7.181  12.726  12.973
17792SOL     OW55208   7.521   4.449   1.724
17792SOL    HW155209   7.492   4.527   1.771
17792SOL    HW255210   7.465   4.378   1.756
17793SOL     OW55211   9.577   0.665   0.154
17793SOL    HW155212   9.641   0.737   0.151
17793SOL    HW255213   9.601   0.616   0.233
17794SOL     OW55214   5.652   0.410   7.231
17794SOL    HW155215   5.662   0.317   7.251
17794SOL    HW255216   5.672   0.417   7.138
17795SOL     OW55217   8.259   6.591  11.755
17795SOL    HW155218   8.314   6.591  11.833
17795SOL    HW255219   8.274   6.677  11.715
17796SOL     OW55220   5.636   9.323   0.260
17796SOL    HW155221   5.638   9.308   0.355
17796SOL    HW255222   5.543   9.324   0.238
17797SOL     OW55223   5.508   6.701   9.044
17797SOL    HW155224   5.420   6.726   9.014
17797SOL    HW255225   5.567   6.738   8.979
17798SOL     OW55226   9.659   0.046   5.473
17798SOL    HW155227   9.580   0.080   5.432
17798SOL    HW255228   9.630  14.850   5.524
17799SOL     OW55229   7.055   5.512  10.616
17799SOL    HW155230   7.022   5.486  10.530
17799SOL    HW255231   7.073   5.429  10.661
17800SOL     OW55232  10.492   6.405   6.720
17800SOL    HW155233  10.574   6.355   6.720
17800SOL    HW255234  10.518   6.493   6.746
17801SOL     OW55235  12.902   3.599   1.906
17801SOL    HW155236  12.929   3.587   1.997
17801SOL    HW255237  12.872   3.512   1.879
17802SOL     OW55238   8.947   5.480   9.732
17802SOL    HW155239   8.949   5.496   9.638
17802SOL    HW255240   8.977   5.562   9.771
17803SOL     OW55241   8.228  10.776  14.733
17803SOL    HW155242   8.300  10.834  14.708
17803SOL    HW255243   8.259  10.731  14.812
17804SOL     OW55244   5.656   5.723  14.069
17804SOL    HW155245   5.701   5.807  14.058
17804SOL    HW255246   5.654   5.685  13.981
17805SOL     OW55247  14.131   2.869   7.339
17805SOL    HW155248  14.093   2.906   7.259
17805SOL    HW255249  14.223   2.855   7.317
17806SOL     OW55250   3.604   1.725  13.663
17806SOL    HW155251   3.643   1.656  13.609
17806SOL    HW255252   3.630   1.703  13.752
17807SOL     OW55253   4.604  13.265   7.420
17807SOL    HW155254   4.585  13.327   7.491
17807SOL    HW255255   4.623  13.183   7.465
17808SOL     OW55256   2.602  11.232   2.773
17808SOL    HW155257   2.652  11.286   2.833
17808SOL    HW255258   2.513  11.232   2.809
17809SOL     OW55259  12.743  11.352  10.884
17809SOL    HW155260  12.725  11.258  10.878
17809SOL    HW255261  12.825  11.363  10.835
17810SOL     OW55262  13.365  14.636  11.394
17810SOL    HW155263  13.428  14.706  11.411
17810SOL    HW255264  13.413  14.571  11.344
17811SOL     OW55265   5.351   7.248   7.712
17811SOL    HW155266   5.410   7.272   7.641
17811SOL    HW255267   5.283   7.316   7.712
17812SOL     OW55268  10.828  12.064  12.246
17812SOL    HW155269  10.897  11.998  12.254
17812SOL    HW255270  10.752  12.023  12.287
17813SOL     OW55271   3.621   9.371   0.138
17813SOL    HW155272   3.528   9.381   0.159
17813SOL    HW255273   3.656   9.460   0.141
17814SOL     OW55274  11.595   6.749   6.733
17814SOL    HW155275  11.688   6.773   6.730
17814SOL    HW255276  11.549   6.827   6.701
17815SOL     OW55277  14.706  13.479  14.412
17815SOL    HW155278  14.703  13.454  14.504
17815SOL    HW255279  14.772  13.421  14.374
17816SOL     OW55280   1.197   3.259   2.472
17816SOL    HW155281   1.188   3.188   2.536
17816SOL    HW255282   1.186   3.215   2.387
17817SOL     OW55283   6.497  12.582   0.068
17817SOL    HW155284   6.526  12.673   0.072
17817SOL    HW255285   6.405  12.587   0.042
17818SOL     OW55286   1.285   2.427   3.013
17818SOL    HW155287   1.307   2.517   2.987
17818SOL    HW255288   1.322   2.373   2.943
17819SOL     OW55289  13.823   6.658  10.996
17819SOL    HW155290  13.790   6.738  11.037
17819SOL    HW255291  13.835   6.597  11.068
17820SOL     OW55292   8.392   1.769  14.365
17820SOL    HW155293   8.348   1.739  14.445
17820SOL    HW255294   8.345   1.849  14.341
17821SOL     OW55295  10.459  14.255   0.485
17821SOL    HW155296  10.496  14.309   0.555
17821SOL    HW255297  10.462  14.311   0.407
17822SOL     OW55298  13.838   8.663   7.898
17822SOL    HW155299  13.768   8.599   7.890
17822SOL    HW255300  13.799   8.745   7.868
17823SOL     OW55301  10.140   7.269   3.644
17823SOL    HW155302  10.088   7.311   3.712
17823SOL    HW255303  10.216   7.234   3.690
17824SOL     OW55304   7.753   0.873   2.665
17824SOL    HW155305   7.767   0.778   2.665
17824SOL    HW255306   7.818   0.907   2.604
17825SOL     OW55307   4.405  12.524   1.424
17825SOL    HW155308   4.450  12.537   1.340
17825SOL    HW255309   4.362  12.439   1.416
17826SOL     OW55310   9.910   8.075   8.507
17826SOL    HW155311   9.978   8.007   8.509
17826SOL    HW255312   9.890   8.086   8.414
17827SOL     OW55313   1.604  10.448   2.370
17827SOL    HW155314   1.616  10.543   2.370
17827SOL    HW255315   1.580  10.426   2.280
17828SOL     OW55316   7.581   0.743  10.878
17828SOL    HW155317   7.581   0.659  10.924
17828SOL    HW255318   7.489   0.762  10.864
17829SOL     OW55319   2.416  14.075  10.403
17829SOL    HW155320   2.368  14.145  10.359
17829SOL    HW255321   2.404  14.093  10.497
17830SOL     OW55322  11.525  10.186   1.261
17830SOL    HW155323  11.442  10.152   1.227
17830SOL    HW255324  11.541  10.135   1.340
17831SOL     OW55325   7.607  12.226   6.291
17831SOL    HW155326   7.615  12.141   6.333
17831SOL    HW255327   7.529  12.218   6.236
17832SOL     OW55328  13.475  12.125  10.748
17832SOL    HW155329  13.465  12.192  10.679
17832SOL    HW255330  13.554  12.152  10.795
17833SOL     OW55331   4.350   9.125  11.406
17833SOL    HW155332   4.267   9.113  11.361
17833SOL    HW255333   4.390   9.037  11.407
17834SOL     OW55334   7.745   3.532   1.264
17834SOL    HW155335   7.732   3.445   1.225
17834SOL    HW255336   7.716   3.521   1.355
17835SOL     OW55337   8.141   3.061   0.980
17835SOL    HW155338   8.047   3.048   0.993
17835SOL    HW255339   8.161   3.007   0.903
17836SOL     OW55340  13.038   8.955  13.217
17836SOL    HW155341  13.028   8.876  13.271
17836SOL    HW255342  13.106   8.932  13.154
17837SOL     OW55343   7.296   2.239   0.948
17837SOL    HW155344   7.340   2.313   0.906
17837SOL    HW255345   7.333   2.235   1.036
17838SOL     OW55346   2.077   9.289  14.074
17838SOL    HW155347   2.067   9.346  13.998
17838SOL    HW255348   2.159   9.318  14.115
17839SOL     OW55349   0.699  12.134   9.068
17839SOL    HW155350   0.754  12.126   8.990
17839SOL    HW255351   0.678  12.044   9.091
17840SOL     OW55352   5.235  14.729   5.153
17840SOL    HW155353   5.179  14.690   5.220
17840SOL    HW255354   5.225  14.824   5.165
17841SOL     OW55355   8.847   4.283  10.344
17841SOL    HW155356   8.791   4.360  10.334
17841SOL    HW255357   8.802   4.214  10.296
17842SOL     OW55358   3.107   6.729   4.619
17842SOL    HW155359   3.112   6.750   4.526
17842SOL    HW255360   3.114   6.634   4.623
17843SOL     OW55361  14.736   6.078   3.905
17843SOL    HW155362  14.749   6.076   4.000
17843SOL    HW255363  14.816   6.042   3.869
17844SOL     OW55364  12.656  14.545   3.495
17844SOL    HW155365  12.654  14.638   3.472
17844SOL    HW255366  12.720  14.538   3.565
17845SOL     OW55367   0.716  13.677   9.665
17845SOL    HW155368   0.669  13.604   9.704
17845SOL    HW255369   0.700  13.668   9.571
17846SOL     OW55370   1.609   4.047   9.081
17846SOL    HW155371   1.642   4.130   9.115
17846SOL    HW255372   1.551   4.073   9.009
17847SOL     OW55373   6.377   7.031  14.477
17847SOL    HW155374   6.403   6.972  14.406
17847SOL    HW255375   6.294   6.997  14.509
17848SOL     OW55376   6.788   1.459   4.662
17848SOL    HW155377   6.771   1.522   4.592
17848SOL    HW255378   6.853   1.502   4.718
17849SOL     OW55379   8.654   4.352  14.573
17849SOL    HW155380   8.571   4.388  14.604
17849SOL    HW255381   8.681   4.291  14.642
17850SOL     OW55382  12.827  11.147  10.632
17850SOL    HW155383  12.802  11.227  10.585
17850SOL    HW255384  12.760  11.083  10.605
17851SOL     OW55385   4.549   2.584  11.976
17851SOL    HW155386   4.535   2.678  11.971
17851SOL    HW255387   4.640   2.575  12.003
17852SOL     OW55388   9.900   2.546   6.516
17852SOL    HW155389   9.849   2.553   6.435
17852SOL    HW255390   9.834   2.530   6.584
17853SOL     OW55391  11.191   4.651   7.570
17853SOL    HW155392  11.200   4.564   7.609
17853SOL    HW255393  11.138   4.636   7.492
17854SOL     OW55394  14.352   6.695   0.462
17854SOL    HW155395  14.388   6.771   0.417
17854SOL    HW255396  14.407   6.622   0.434
17855SOL     OW55397  12.001   9.385   1.551
17855SOL    HW155398  12.027   9.373   1.642
17855SOL    HW255399  12.035   9.471   1.527
17856SOL     OW55400   2.429   6.865   5.815
17856SOL    HW155401   2.371   6.939   5.795
17856SOL    HW255402   2.480   6.895   5.890
17857SOL     OW55403   6.066  12.366   5.699
17857SOL    HW155404   6.080  12.284   5.745
17857SOL    HW255405   6.028  12.341   5.615
17858SOL     OW55406   3.688   9.616   7.649
17858SOL    HW155407   3.616   9.577   7.699
17858SOL    HW255408   3.726   9.682   7.707
17859SOL     OW55409   5.536   8.294   0.585
17859SOL    HW155410   5.565   8.357   0.520
17859SOL    HW255411   5.605   8.295   0.652
17860SOL     OW55412   1.548  12.942   5.039
17860SOL    HW155413   1.613  12.947   5.109
17860SOL    HW255414   1.563  12.857   4.998
17861SOL     OW55415   9.187   7.653  12.601
17861SOL    HW155416   9.225   7.708  12.533
17861SOL    HW255417   9.255   7.650  12.669
17862SOL     OW55418   1.612   3.758  13.526
17862SOL    HW155419   1.584   3.682  13.475
17862SOL    HW255420   1.589   3.736  13.616
17863SOL     OW55421   3.397  14.119  10.671
17863SOL    HW155422   3.420  14.102  10.762
17863SOL    HW255423   3.308  14.084  10.661
17864SOL     OW55424   6.255  10.282   6.386
17864SOL    HW155425   6.297  10.212   6.435
17864SOL    HW255426   6.319  10.306   6.319
17865SOL     OW55427  14.866   5.292   1.364
17865SOL    HW155428   0.027   5.239   1.432
17865SOL    HW255429   0.031   5.377   1.370
17866SOL     OW55430  12.021   6.508  10.083
17866SOL    HW155431  12.088   6.553  10.032
17866SOL    HW255432  12.055   6.507  10.172
17867SOL     OW55433  10.320  12.202   3.870
17867SOL    HW155434  10.386  12.181   3.803
17867SOL    HW255435  10.236  12.195   3.824
17868SOL     OW55436   0.368  11.567  11.110
17868SOL    HW155437   0.273  11.554  11.112
17868SOL    HW255438   0.384  11.612  11.027
17869SOL     OW55439   0.006  13.022   6.921
17869SOL    HW155440   0.051  13.098   6.959
17869SOL    HW255441  14.798  13.024   6.961
17870SOL     OW55442  14.087   3.516   0.081
17870SOL    HW155443  14.144   3.454   0.034
17870SOL    HW255444  14.006   3.518   0.030
17871SOL     OW55445   5.179  11.022   5.577
17871SOL    HW155446   5.217  11.001   5.662
17871SOL    HW255447   5.148  10.939   5.542
17872SOL     OW55448  11.391   0.812   1.109
17872SOL    HW155449  11.405   0.806   1.203
17872SOL    HW255450  11.378   0.722   1.081
17873SOL     OW55451  11.986   5.737   8.552
17873SOL    HW155452  11.937   5.674   8.604
17873SOL    HW255453  12.064   5.755   8.604
17874SOL     OW55454   7.680   6.799  12.757
17874SOL    HW155455   7.645   6.711  12.740
17874SOL    HW255456   7.701   6.834  12.671
17875SOL     OW55457  14.770  12.026   3.389
17875SOL    HW155458  14.780  11.932   3.403
17875SOL    HW255459  14.828  12.045   3.316
17876SOL     OW55460   2.693  12.932   3.253
17876SOL    HW155461   2.771  12.879   3.236
17876SOL    HW255462   2.711  12.978   3.335
17877SOL     OW55463   1.262  14.520  12.998
17877SOL    HW155464   1.176  14.486  13.022
17877SOL    HW255465   1.288  14.573  13.073
17878SOL     OW55466   9.898   9.487   8.104
17878SOL    HW155467   9.886   9.449   8.016
17878SOL    HW255468   9.815   9.531   8.122
17879SOL     OW55469   3.270  10.927   0.127
17879SOL    HW155470   3.188  10.878   0.121
17879SOL    HW255471   3.338  10.864   0.102
17880SOL     OW55472  14.454   1.339   9.067
17880SOL    HW155473  14.537   1.367   9.030
17880SOL    HW255474  14.475   1.262   9.119
17881SOL     OW55475   4.628  12.104   0.798
17881SOL    HW155476   4.715  12.106   0.838
17881SOL    HW255477   4.624  12.183   0.744
17882SOL     OW55478  10.313  13.103   7.164
17882SOL    HW155479  10.335  13.080   7.254
17882SOL    HW255480  10.283  13.193   7.169
17883SOL     OW55481   3.352   3.852   6.600
17883SOL    HW155482   3.347   3.757   6.603
17883SOL    HW255483   3.399   3.872   6.519
17884SOL     OW55484  11.394   1.415   3.563
17884SOL    HW155485  11.391   1.499   3.519
17884SOL    HW255486  11.486   1.404   3.587
17885SOL     OW55487   6.272   4.310   2.609
17885SOL    HW155488   6.310   4.224   2.592
17885SOL    HW255489   6.191   4.292   2.656
17886SOL     OW55490   8.241   7.562   2.121
17886SOL    HW155491   8.295   7.640   2.129
17886SOL    HW255492   8.284   7.497   2.176
17887SOL     OW55493   9.466  10.310   3.556
17887SOL    HW155494   9.456  10.373   3.485
17887SOL    HW255495   9.489  10.228   3.513
17888SOL     OW55496  10.027   4.223   7.212
17888SOL    HW155497  10.090   4.150   7.212
17888SOL    HW255498  10.081   4.301   7.209
17889SOL     OW55499   6.598  12.431   4.456
17889SOL    HW155500   6.684  12.470   4.474
17889SOL    HW255501   6.563  12.482   4.382
17890SOL     OW55502   7.247   4.290   3.668
17890SOL    HW155503   7.261   4.316   3.759
17890SOL    HW255504   7.196   4.362   3.631
17891SOL     OW55505   6.776   1.014   4.670
17891SOL    HW155506   6.706   1.078   4.655
17891SOL    HW255507   6.816   1.002   4.584
17892SOL     OW55508  11.251  10.377   3.421
17892SOL    HW155509  11.332  10.392   3.372
17892SOL    HW255510  11.185  10.430   3.376
17893SOL     OW55511   7.932   7.498   9.895
17893SOL    HW155512   7.901   7.494   9.985
17893SOL    HW255513   7.993   7.424   9.887
17894SOL     OW55514   3.855   9.353   6.783
17894SOL    HW155515   3.836   9.300   6.859
17894SOL    HW255516   3.772   9.394   6.760
17895SOL     OW55517   8.427   8.967  13.876
17895SOL    HW155518   8.512   8.979  13.834
17895SOL    HW255519   8.390   8.890  13.832
17896SOL     OW55520   9.017   3.460   2.473
17896SOL    HW155521   9.101   3.504   2.488
17896SOL    HW255522   9.019   3.385   2.532
17897SOL     OW55523   9.944   0.527   6.540
17897SOL    HW155524   9.938   0.442   6.584
17897SOL    HW255525  10.036   0.534   6.514
17898SOL     OW55526   2.465   0.657   9.624
17898SOL    HW155527   2.390   0.672   9.682
17898SOL    HW255528   2.429   0.603   9.554
17899SOL     OW55529   3.932   6.915   3.269
17899SOL    HW155530   3.941   7.006   3.241
17899SOL    HW255531   4.018   6.892   3.304
17900SOL     OW55532  13.342   4.992  14.823
17900SOL    HW155533  13.284   5.063  14.795
17900SOL    HW255534  13.375   4.954  14.742
17901SOL     OW55535   5.698   4.157  14.633
17901SOL    HW155536   5.645   4.172  14.554
17901SOL    HW255537   5.639   4.177  14.706
17902SOL     OW55538  13.179   3.850  12.613
17902SOL    HW155539  13.172   3.774  12.670
17902SOL    HW255540  13.129   3.826  12.535
17903SOL     OW55541   2.375  10.134   8.466
17903SOL    HW155542   2.412  10.051   8.436
17903SOL    HW255543   2.363  10.185   8.386
17904SOL     OW55544   9.941   1.167   0.299
17904SOL    HW155545   9.878   1.109   0.256
17904SOL    HW255546  10.010   1.108   0.330
17905SOL     OW55547   3.085   1.404  11.795
17905SOL    HW155548   3.142   1.384  11.869
17905SOL    HW255549   3.077   1.499  11.796
17906SOL     OW55550   6.230   5.413   9.244
17906SOL    HW155551   6.221   5.508   9.236
17906SOL    HW255552   6.195   5.393   9.331
17907SOL     OW55553   6.762   8.101   8.936
17907SOL    HW155554   6.813   8.182   8.932
17907SOL    HW255555   6.671   8.131   8.941
17908SOL     OW55556   5.241  11.636   8.540
17908SOL    HW155557   5.278  11.690   8.610
17908SOL    HW255558   5.146  11.646   8.551
17909SOL     OW55559  12.630   6.144  13.421
17909SOL    HW155560  12.563   6.210  13.439
17909SOL    HW255561  12.600   6.101  13.341
17910SOL     OW55562   7.543  11.867  13.833
17910SOL    HW155563   7.631  11.904  13.827
17910SOL    HW255564   7.487  11.934  13.793
17911SOL     OW55565   4.470   1.366   9.213
17911SOL    HW155566   4.461   1.461   9.222
17911SOL    HW255567   4.409   1.342   9.144
17912SOL     OW55568  13.211  12.888   5.665
17912SOL    HW155569  13.285  12.948   5.669
17912SOL    HW255570  13.241  12.817   5.608
17913SOL     OW55571   5.386   9.811   1.733
17913SOL    HW155572   5.350   9.739   1.784
17913SOL    HW255573   5.461   9.773   1.687
17914SOL     OW55574   4.607  12.348   4.935
17914SOL    HW155575   4.550  12.411   4.890
17914SOL    HW255576   4.577  12.349   5.026
17915SOL     OW55577   5.693   9.704   7.478
17915SOL    HW155578   5.669   9.631   7.535
17915SOL    HW255579   5.679   9.670   7.389
17916SOL     OW55580   1.157   4.719   0.781
17916SOL    HW155581   1.075   4.767   0.792
17916SOL    HW255582   1.193   4.750   0.698
17917SOL     OW55583   2.670  11.326   7.578
17917SOL    HW155584   2.661  11.418   7.602
17917SOL    HW255585   2.754  11.300   7.616
17918SOL     OW55586  10.623  14.359   9.876
17918SOL    HW155587  10.544  14.342   9.928
17918SOL    HW255588  10.595  14.342   9.786
17919SOL     OW55589  11.510   1.136   2.641
17919SOL    HW155590  11.593   1.129   2.687
17919SOL    HW255591  11.515   1.071   2.571
17920SOL     OW55592  14.673   7.483   0.665
17920SOL    HW155593  14.650   7.576   0.666
17920SOL    HW255594  14.769   7.483   0.675
17921SOL     OW55595   3.184  10.236   9.430
17921SOL    HW155596   3.174  10.141   9.425
17921SOL    HW255597   3.105  10.266   9.475
17922SOL     OW55598   8.797   0.665  14.383
17922SOL    HW155599   8.836   0.608  14.317
17922SOL    HW255600   8.771   0.743  14.334
17923SOL     OW55601  13.432   3.483  12.056
17923SOL    HW155602  13.358   3.514  12.108
17923SOL    HW255603  13.504   3.542  12.080
17924SOL     OW55604  13.570   9.589   6.043
17924SOL    HW155605  13.552   9.683   6.036
17924SOL    HW255606  13.662   9.584   6.070
17925SOL     OW55607   7.166   5.368   3.053
17925SOL    HW155608   7.197   5.388   3.141
17925SOL    HW255609   7.236   5.316   3.013
17926SOL     OW55610   0.067  10.862   6.519
17926SOL    HW155611  14.853  10.846   6.536
17926SOL    HW255612   0.105  10.874   6.606
17927SOL     OW55613   7.140   6.587   2.742
17927SOL    HW155614   7.070   6.571   2.806
17927SOL    HW255615   7.140   6.681   2.728
17928SOL     OW55616   4.613  10.061   5.269
17928SOL    HW155617   4.576  10.149   5.272
17928SOL    HW255618   4.701  10.073   5.233
17929SOL     OW55619   6.926   0.236   6.399
17929SOL    HW155620   6.905   0.168   6.335
17929SOL    HW255621   6.866   0.308   6.378
17930SOL     OW55622   3.955  11.698  12.168
17930SOL    HW155623   3.969  11.609  12.198
17930SOL    HW255624   3.956  11.692  12.072
17931SOL     OW55625   4.601   0.253   9.958
17931SOL    HW155626   4.669   0.220   9.899
17931SOL    HW255627   4.645   0.321  10.009
17932SOL     OW55628   9.105  11.946  13.353
17932SOL    HW155629   9.152  11.951  13.437
17932SOL    HW255630   9.161  11.891  13.298
17933SOL     OW55631  12.336   6.615   2.662
17933SOL    HW155632  12.377   6.532   2.637
17933SOL    HW255633  12.406   6.665   2.704
17934SOL     OW55634  10.858  13.041   4.665
17934SOL    HW155635  10.914  13.100   4.715
17934SOL    HW255636  10.775  13.087   4.656
17935SOL     OW55637   9.992   3.693   1.949
17935SOL    HW155638  10.033   3.745   1.880
17935SOL    HW255639   9.926   3.641   1.904
17936SOL     OW55640   7.625  13.285   3.440
17936SOL    HW155641   7.571  13.245   3.372
17936SOL    HW255642   7.715  13.269   3.413
17937SOL     OW55643   4.818   0.533   4.445
17937SOL    HW155644   4.805   0.461   4.384
17937SOL    HW255645   4.758   0.515   4.517
17938SOL     OW55646  13.425   1.951   4.441
17938SOL    HW155647  13.400   2.029   4.490
17938SOL    HW255648  13.519   1.942   4.458
17939SOL     OW55649   5.290   0.770  14.442
17939SOL    HW155650   5.286   0.865  14.454
17939SOL    HW255651   5.361   0.757  14.378
17940SOL     OW55652  14.004   8.837  12.484
17940SOL    HW155653  14.072   8.837  12.416
17940SOL    HW255654  14.004   8.927  12.517
17941SOL     OW55655   6.590   7.810   1.201
17941SOL    HW155656   6.573   7.904   1.195
17941SOL    HW255657   6.601   7.782   1.110
17942SOL     OW55658   9.063   9.403   0.590
17942SOL    HW155659   9.031   9.346   0.520
17942SOL    HW255660   9.085   9.344   0.661
17943SOL     OW55661  10.251   0.638   4.010
17943SOL    HW155662  10.317   0.706   4.028
17943SOL    HW255663  10.288   0.559   4.047
17944SOL     OW55664   6.251  10.637   8.804
17944SOL    HW155665   6.276  10.716   8.757
17944SOL    HW255666   6.177  10.663   8.858
17945SOL     OW55667  13.846   9.460   8.389
17945SOL    HW155668  13.914   9.465   8.457
17945SOL    HW255669  13.779   9.403   8.426
17946SOL     OW55670   4.642   5.333   8.092
17946SOL    HW155671   4.679   5.340   8.004
17946SOL    HW255672   4.638   5.424   8.123
17947SOL     OW55673   2.772  10.775   8.519
17947SOL    HW155674   2.709  10.706   8.498
17947SOL    HW255675   2.796  10.812   8.434
17948SOL     OW55676   9.384   2.091   9.519
17948SOL    HW155677   9.440   2.097   9.442
17948SOL    HW255678   9.382   2.179   9.555
17949SOL     OW55679   7.519   8.823   0.125
17949SOL    HW155680   7.519   8.907   0.171
17949SOL    HW255681   7.448   8.773   0.167
17950SOL     OW55682  11.310   5.869   8.738
17950SOL    HW155683  11.260   5.812   8.680
17950SOL    HW255684  11.250   5.939   8.762
17951SOL     OW55685   0.201   2.472   1.088
17951SOL    HW155686   0.253   2.551   1.075
17951SOL    HW255687   0.112   2.499   1.067
17952SOL     OW55688   7.771   3.355  11.230
17952SOL    HW155689   7.748   3.409  11.306
17952SOL    HW255690   7.818   3.415  11.172
17953SOL     OW55691   4.013   4.363   6.089
17953SOL    HW155692   4.023   4.442   6.142
17953SOL    HW255693   3.930   4.374   6.043
17954SOL     OW55694   7.819   3.809   1.876
17954SOL    HW155695   7.893   3.753   1.851
17954SOL    HW255696   7.853   3.898   1.871
17955SOL     OW55697   3.203   2.226   6.745
17955SOL    HW155698   3.125   2.274   6.719
17955SOL    HW255699   3.276   2.284   6.723
17956SOL     OW55700  14.354  11.458  13.492
17956SOL    HW155701  14.358  11.370  13.528
17956SOL    HW255702  14.276  11.497  13.531
17957SOL     OW55703   5.144   9.538  10.517
17957SOL    HW155704   5.126   9.535  10.424
17957SOL    HW255705   5.058   9.544  10.559
17958SOL     OW55706   5.964  10.774  14.588
17958SOL    HW155707   5.950  10.679  14.588
17958SOL    HW255708   5.972  10.798  14.680
17959SOL     OW55709   3.856   7.638   1.654
17959SOL    HW155710   3.891   7.559   1.612
17959SOL    HW255711   3.933   7.690   1.675
17960SOL     OW55712  14.135   7.216  14.074
17960SOL    HW155713  14.191   7.139  14.069
17960SOL    HW255714  14.184   7.279  14.128
17961SOL     OW55715  10.309   4.690   9.635
17961SOL    HW155716  10.235   4.645   9.676
17961SOL    HW255717  10.385   4.663   9.687
17962SOL     OW55718   1.960   1.752   2.380
17962SOL    HW155719   2.035   1.697   2.402
17962SOL    HW255720   1.989   1.802   2.304
17963SOL     OW55721   8.677   0.701   7.259
17963SOL    HW155722   8.743   0.690   7.191
17963SOL    HW255723   8.606   0.642   7.234
17964SOL     OW55724   8.372  12.299   1.425
17964SOL    HW155725   8.416  12.263   1.503
17964SOL    HW255726   8.440  12.296   1.357
17965SOL     OW55727   0.447   2.382   5.544
17965SOL    HW155728   0.481   2.325   5.475
17965SOL    HW255729   0.360   2.346   5.564
17966SOL     OW55730  14.757   5.704   4.905
17966SOL    HW155731  14.674   5.753   4.911
17966SOL    HW255732  14.731   5.613   4.914
17967SOL     OW55733   9.992   5.781   5.087
17967SOL    HW155734  10.007   5.873   5.065
17967SOL    HW255735  10.041   5.732   5.021
17968SOL     OW55736   5.083  13.962  13.291
17968SOL    HW155737   5.131  13.908  13.353
17968SOL    HW255738   5.129  14.046  13.291
17969SOL     OW55739   5.757   6.916  12.858
17969SOL    HW155740   5.745   6.886  12.768
17969SOL    HW255741   5.697   6.990  12.867
17970SOL     OW55742  14.585   3.319   8.156
17970SOL    HW155743  14.549   3.251   8.214
17970SOL    HW255744  14.602   3.273   8.074
17971SOL     OW55745  11.419   6.296  11.529
17971SOL    HW155746  11.355   6.314  11.598
17971SOL    HW255747  11.419   6.374  11.474
17972SOL     OW55748  11.822   2.963  10.925
17972SOL    HW155749  11.873   3.031  10.970
17972SOL    HW255750  11.869   2.950  10.842
17973SOL     OW55751  13.369  12.187   5.039
17973SOL    HW155752  13.354  12.280   5.055
17973SOL    HW255753  13.299  12.162   4.978
17974SOL     OW55754  14.688   3.120  14.319
17974SOL    HW155755  14.657   3.030  14.332
17974SOL    HW255756  14.762   3.112  14.259
17975SOL     OW55757   1.017   4.026   8.162
17975SOL    HW155758   1.032   4.048   8.070
17975SOL    HW255759   0.926   4.051   8.177
17976SOL     OW55760   6.924  12.683  12.732
17976SOL    HW155761   6.945  12.737  12.656
17976SOL    HW255762   6.906  12.596  12.695
17977SOL     OW55763   4.060  11.925  14.612
17977SOL    HW155764   4.152  11.948  14.599
17977SOL    HW255765   4.027  11.908  14.524
17978SOL     OW55766   4.935  10.835   9.353
17978SOL    HW155767   4.874  10.817   9.281
17978SOL    HW255768   4.999  10.895   9.315
17979SOL     OW55769   1.250   7.903  10.171
17979SOL    HW155770   1.285   7.978  10.219
17979SOL    HW255771   1.239   7.935  10.082
17980SOL     OW55772   6.628   8.962  14.297
17980SOL    HW155773   6.681   8.885  14.318
17980SOL    HW255774   6.608   9.001  14.382
17981SOL     OW55775   0.680  11.017   5.701
17981SOL    HW155776   0.677  10.942   5.761
17981SOL    HW255777   0.621  11.081   5.740
17982SOL     OW55778   0.383   2.871   4.622
17982SOL    HW155779   0.421   2.954   4.652
17982SOL    HW255780   0.314   2.898   4.561
17983SOL     OW55781   1.619  12.530  11.179
17983SOL    HW155782   1.621  12.523  11.083
17983SOL    HW255783   1.544  12.477  11.205
17984SOL     OW55784   6.296   2.296   8.985
17984SOL    HW155785   6.303   2.391   8.973
17984SOL    HW255786   6.308   2.260   8.897
17985SOL     OW55787   9.297   0.009   1.514
17985SOL    HW155788   9.341   0.092   1.495
17985SOL    HW255789   9.333  14.826   1.450
17986SOL     OW55790  14.087   6.701   0.782
17986SOL    HW155791  14.063   6.696   0.690
17986SOL    HW255792  14.154   6.769   0.787
17987SOL     OW55793  11.630   3.168  14.805
17987SOL    HW155794  11.676   3.250  14.823
17987SOL    HW255795  11.698   3.109  14.773
17988SOL     OW55796   5.228  10.425   4.713
17988SOL    HW155797   5.322  10.431   4.729
17988SOL    HW255798   5.187  10.470   4.787
17989SOL     OW55799   6.921   4.206   1.292
17989SOL    HW155800   6.828   4.196   1.309
17989SOL    HW255801   6.947   4.283   1.344
17990SOL     OW55802   0.223   2.904  10.087
17990SOL    HW155803   0.225   2.827  10.144
17990SOL    HW255804   0.176   2.971  10.137
17991SOL     OW55805  14.503  11.285  11.053
17991SOL    HW155806  14.429  11.241  11.095
17991SOL    HW255807  14.467  11.369  11.024
17992SOL     OW55808   6.306   6.162   3.679
17992SOL    HW155809   6.398   6.179   3.659
17992SOL    HW255810   6.273   6.246   3.711
17993SOL     OW55811   6.565  12.497  13.460
17993SOL    HW155812   6.573  12.584  13.499
17993SOL    HW255813   6.573  12.437  13.534
17994SOL     OW55814   2.453  12.781   3.485
17994SOL    HW155815   2.434  12.870   3.513
17994SOL    HW255816   2.548  12.771   3.496
17995SOL     OW55817   0.549  11.055   0.105
17995SOL    HW155818   0.613  11.117   0.070
17995SOL    HW255819   0.541  11.079   0.198
17996SOL     OW55820   6.699   6.207  11.889
17996SOL    HW155821   6.717   6.170  11.803
17996SOL    HW255822   6.744   6.291  11.890
17997SOL     OW55823  14.546  14.424   9.443
17997SOL    HW155824  14.592  14.340   9.446
17997SOL    HW255825  14.480  14.412   9.375
17998SOL     OW55826  10.602  10.492  10.746
17998SOL    HW155827  10.697  10.494  10.732
17998SOL    HW255828  10.569  10.570  10.702
17999SOL     OW55829   5.580   6.411  10.896
17999SOL    HW155830   5.561   6.321  10.871
17999SOL    HW255831   5.667   6.429  10.860
18000SOL     OW55832   2.972  14.224   9.702
18000SOL    HW155833   3.015  14.195   9.782
18000SOL    HW255834   3.041  14.270   9.653
18001SOL     OW55835  14.808  13.176  14.700
18001SOL    HW155836  14.867  13.167  14.625
18001SOL    HW255837  14.766  13.091  14.708
18002SOL     OW55838   0.786  14.543   9.152
18002SOL    HW155839   0.873  14.505   9.163
18002SOL    HW255840   0.799  14.637   9.164
18003SOL     OW55841  11.834   1.892   6.739
18003SOL    HW155842  11.816   1.986   6.741
18003SOL    HW255843  11.757   1.852   6.779
18004SOL     OW55844   7.276   3.923   4.196
18004SOL    HW155845   7.239   4.005   4.164
18004SOL    HW255846   7.199   3.871   4.220
18005SOL     OW55847  11.603  12.893  11.230
18005SOL    HW155848  11.527  12.938  11.193
18005SOL    HW255849  11.577  12.802  11.235
18006SOL     OW55850  14.405  13.245   0.173
18006SOL    HW155851  14.387  13.267   0.082
18006SOL    HW255852  14.451  13.161   0.169
18007SOL     OW55853   3.679   2.610  12.717
18007SOL    HW155854   3.600   2.564  12.746
18007SOL    HW255855   3.751   2.551  12.737
18008SOL     OW55856   5.097  14.571   9.868
18008SOL    HW155857   5.169  14.578   9.805
18008SOL    HW255858   5.124  14.626   9.941
18009SOL     OW55859  10.376  12.479  12.777
18009SOL    HW155860  10.436  12.417  12.818
18009SOL    HW255861  10.417  12.499  12.693
18010SOL     OW55862   5.873   1.430   6.048
18010SOL    HW155863   5.889   1.524   6.056
18010SOL    HW255864   5.787   1.417   6.088
18011SOL     OW55865   3.471   4.263   4.785
18011SOL    HW155866   3.518   4.296   4.862
18011SOL    HW255867   3.406   4.203   4.820
18012SOL     OW55868   5.843  12.436  12.456
18012SOL    HW155869   5.821  12.524  12.486
18012SOL    HW255870   5.778  12.418  12.387
18013SOL     OW55871   9.750  13.104  13.211
18013SOL    HW155872   9.720  13.194  13.215
18013SOL    HW255873   9.846  13.110  13.212
18014SOL     OW55874  14.489  14.569  13.625
18014SOL    HW155875  14.496  14.512  13.701
18014SOL    HW255876  14.414  14.626  13.644
18015SOL     OW55877   9.497   1.675   1.978
18015SOL    HW155878   9.448   1.648   1.900
18015SOL    HW255879   9.530   1.762   1.956
18016SOL     OW55880  13.011   6.615   3.666
18016SOL    HW155881  13.066   6.544   3.699
18016SOL    HW255882  13.057   6.646   3.587
18017SOL     OW55883   9.400   1.468   6.272
18017SOL    HW155884   9.471   1.424   6.225
18017SOL    HW255885   9.424   1.461   6.364
18018SOL     OW55886   6.897   9.338  14.746
18018SOL    HW155887   6.808   9.348  14.712
18018SOL    HW255888   6.939   9.423  14.728
18019SOL     OW55889   3.504  13.212   9.175
18019SOL    HW155890   3.476  13.178   9.260
18019SOL    HW255891   3.560  13.287   9.196
18020SOL     OW55892   0.374   6.593   8.429
18020SOL    HW155893   0.313   6.537   8.381
18020SOL    HW255894   0.426   6.533   8.482
18021SOL     OW55895   6.469   9.900   6.637
18021SOL    HW155896   6.401   9.834   6.625
18021SOL    HW255897   6.439   9.975   6.586
18022SOL     OW55898  13.366  14.091   9.278
18022SOL    HW155899  13.334  14.084   9.367
18022SOL    HW255900  13.453  14.130   9.287
18023SOL     OW55901  10.127  13.815  11.719
18023SOL    HW155902  10.062  13.885  11.720
18023SOL    HW255903  10.085  13.742  11.766
18024SOL     OW55904   1.403  10.346  14.246
18024SOL    HW155905   1.415  10.364  14.339
18024SOL    HW255906   1.308  10.339  14.235
18025SOL     OW55907   0.086  10.311   5.662
18025SOL    HW155908   0.139  10.372   5.714
18025SOL    HW255909   0.138  10.294   5.584
18026SOL     OW55910   2.153  12.912   1.726
18026SOL    HW155911   2.164  13.002   1.756
18026SOL    HW255912   2.160  12.918   1.631
18027SOL     OW55913   4.589  10.743   8.180
18027SOL    HW155914   4.519  10.710   8.123
18027SOL    HW255915   4.573  10.838   8.185
18028SOL     OW55916   4.948   5.855   7.782
18028SOL    HW155917   4.994   5.813   7.854
18028SOL    HW255918   4.942   5.948   7.807
18029SOL     OW55919   1.247  14.283   2.901
18029SOL    HW155920   1.276  14.250   2.815
18029SOL    HW255921   1.223  14.374   2.885
18030SOL     OW55922   1.842   7.291  13.414
18030SOL    HW155923   1.753   7.303  13.381
18030SOL    HW255924   1.870   7.208  13.375
18031SOL     OW55925  11.338  12.573   9.993
18031SOL    HW155926  11.383  12.582  10.077
18031SOL    HW255927  11.260  12.521  10.014
18032SOL     OW55928   1.989   7.093   2.470
18032SOL    HW155929   2.057   7.028   2.456
18032SOL    HW255930   2.019   7.143   2.546
18033SOL     OW55931  13.280  13.339   5.523
18033SOL    HW155932  13.187  13.320   5.521
18033SOL    HW255933  13.308  13.333   5.432
18034SOL     OW55934   9.017  12.719   3.049
18034SOL    HW155935   9.020  12.740   3.143
18034SOL    HW255936   9.094  12.665   3.035
18035SOL     OW55937   1.234   6.332   0.393
18035SOL    HW155938   1.245   6.254   0.339
18035SOL    HW255939   1.277   6.401   0.343
18036SOL     OW55940   2.748  12.533   3.297
18036SOL    HW155941   2.809  12.587   3.246
18036SOL    HW255942   2.792  12.447   3.302
18037SOL     OW55943  11.507   2.015   5.282
18037SOL    HW155944  11.568   2.089   5.271
18037SOL    HW255945  11.510   1.995   5.375
18038SOL     OW55946   6.574   4.540  11.025
18038SOL    HW155947   6.665   4.528  11.053
18038SOL    HW255948   6.543   4.452  11.007
18039SOL     OW55949   7.811   1.655  10.982
18039SOL    HW155950   7.808   1.671  11.076
18039SOL    HW255951   7.748   1.584  10.968
18040SOL     OW55952  14.704   9.836  11.927
18040SOL    HW155953  14.799   9.847  11.918
18040SOL    HW255954  14.685   9.857  12.018
18041SOL     OW55955  13.003  10.865   0.952
18041SOL    HW155956  13.040  10.901   1.032
18041SOL    HW255957  12.932  10.808   0.982
18042SOL     OW55958   6.803   2.632   3.864
18042SOL    HW155959   6.772   2.544   3.840
18042SOL    HW255960   6.771   2.644   3.953
18043SOL     OW55961   2.483  10.508   5.970
18043SOL    HW155962   2.437  10.520   6.053
18043SOL    HW255963   2.537  10.430   5.983
18044SOL     OW55964   6.039   0.913   1.446
18044SOL    HW155965   6.104   0.937   1.513
18044SOL    HW255966   6.016   0.996   1.404
18045SOL     OW55967   3.026   9.903   0.721
18045SOL    HW155968   3.099   9.915   0.783
18045SOL    HW255969   3.061   9.847   0.652
18046SOL     OW55970   5.498  13.199   6.698
18046SOL    HW155971   5.578  13.176   6.745
18046SOL    HW255972   5.456  13.115   6.679
18047SOL     OW55973   6.111   4.574  13.366
18047SOL    HW155974   6.073   4.584  13.454
18047SOL    HW255975   6.076   4.649  13.317
18048SOL     OW55976   3.300   5.866  13.289
18048SOL    HW155977   3.353   5.833  13.361
18048SOL    HW255978   3.315   5.961  13.289
18049SOL     OW55979   8.573   6.575   5.360
18049SOL    HW155980   8.627   6.497   5.374
18049SOL    HW255981   8.633   6.641   5.325
18050SOL     OW55982   9.896  10.066  11.034
18050SOL    HW155983   9.960  10.026  11.093
18050SOL    HW255984   9.847  10.126  11.089
18051SOL     OW55985  13.267  10.024   5.410
18051SOL    HW155986  13.297  10.113   5.431
18051SOL    HW255987  13.195  10.037   5.348
18052SOL     OW55988  14.593   6.676   2.989
18052SOL    HW155989  14.585   6.627   3.071
18052SOL    HW255990  14.547   6.758   3.006
18053SOL     OW55991   4.886  14.486   1.859
18053SOL    HW155992   4.889  14.478   1.763
18053SOL    HW255993   4.922  14.403   1.891
18054SOL     OW55994  14.426   8.726  14.836
18054SOL    HW155995  14.437   8.677   0.038
18054SOL    HW255996  14.512   8.723  14.794
18055SOL     OW55997   8.723   8.820   6.764
18055SOL    HW155998   8.690   8.802   6.677
18055SOL    HW255999   8.740   8.734   6.802
18056SOL     OW56000   3.148   8.363   5.164
18056SOL    HW156001   3.140   8.295   5.098
18056SOL    HW256002   3.238   8.355   5.196
18057SOL     OW56003  10.529   2.952   1.470
18057SOL    HW156004  10.468   3.019   1.439
18057SOL    HW256005  10.589   2.999   1.528
18058SOL     OW56006   1.634   5.349   1.813
18058SOL    HW156007   1.689   5.309   1.745
18058SOL    HW256008   1.689   5.420   1.848
18059SOL     OW56009   2.689   1.802  13.186
18059SOL    HW156010   2.729   1.719  13.160
18059SOL    HW256011   2.597   1.794  13.159
18060SOL     OW56012   1.912   1.688   7.492
18060SOL    HW156013   1.916   1.627   7.566
18060SOL    HW256014   1.869   1.765   7.526
18061SOL     OW56015   2.020   0.056  13.825
18061SOL    HW156016   2.057   0.140  13.850
18061SOL    HW256017   1.965   0.075  13.750
18062SOL     OW56018   1.282   5.720   4.652
18062SOL    HW156019   1.197   5.739   4.614
18062SOL    HW256020   1.316   5.805   4.680
18063SOL     OW56021   4.250  10.326  12.863
18063SOL    HW156022   4.259  10.404  12.916
18063SOL    HW256023   4.205  10.263  12.920
18064SOL     OW56024  12.530   2.624  11.199
18064SOL    HW156025  12.625   2.610  11.190
18064SOL    HW256026  12.522   2.680  11.276
18065SOL     OW56027   8.196  14.818  13.016
18065SOL    HW156028   8.279  14.866  13.017
18065SOL    HW256029   8.217  14.731  13.051
18066SOL     OW56030   7.098   9.110  13.769
18066SOL    HW156031   7.167   9.087  13.706
18066SOL    HW256032   7.118   9.200  13.795
18067SOL     OW56033   9.612  10.594   6.160
18067SOL    HW156034   9.659  10.559   6.235
18067SOL    HW256035   9.529  10.626   6.196
18068SOL     OW56036  10.004   8.323   9.653
18068SOL    HW156037   9.931   8.368   9.696
18068SOL    HW256038   9.970   8.300   9.567
18069SOL     OW56039  14.698   5.107   3.745
18069SOL    HW156040  14.766   5.107   3.812
18069SOL    HW256041  14.617   5.121   3.793
18070SOL     OW56042   6.471  13.760  10.613
18070SOL    HW156043   6.536  13.699  10.649
18070SOL    HW256044   6.509  13.846  10.628
18071SOL     OW56045  11.744   1.742   1.396
18071SOL    HW156046  11.823   1.754   1.343
18071SOL    HW256047  11.744   1.816   1.456
18072SOL     OW56048   4.509  11.827   4.876
18072SOL    HW156049   4.484  11.737   4.855
18072SOL    HW256050   4.580  11.847   4.815
18073SOL     OW56051   2.608  13.148   3.735
18073SOL    HW156052   2.683  13.185   3.784
18073SOL    HW256053   2.591  13.064   3.777
18074SOL     OW56054   5.793   9.980   0.831
18074SOL    HW156055   5.713   9.931   0.814
18074SOL    HW256056   5.863   9.925   0.795
18075SOL     OW56057  12.490  12.343   6.922
18075SOL    HW156058  12.404  12.349   6.880
18075SOL    HW256059  12.499  12.425   6.970
18076SOL     OW56060  11.497   3.060   7.670
18076SOL    HW156061  11.451   3.004   7.733
18076SOL    HW256062  11.435   3.073   7.599
18077SOL     OW56063  14.858   0.209   0.147
18077SOL    HW156064  14.810   0.221   0.064
18077SOL    HW256065   0.067   0.241   0.129
18078SOL     OW56066   8.708   5.120  11.278
18078SOL    HW156067   8.776   5.159  11.223
18078SOL    HW256068   8.712   5.169  11.360
18079SOL     OW56069   3.047   9.086  11.876
18079SOL    HW156070   3.113   9.153  11.859
18079SOL    HW256071   3.083   9.035  11.949
18080SOL     OW56072   8.176  13.605   0.809
18080SOL    HW156073   8.137  13.518   0.806
18080SOL    HW256074   8.137  13.647   0.886
18081SOL     OW56075   1.393  14.454  10.760
18081SOL    HW156076   1.305  14.442  10.794
18081SOL    HW256077   1.414  14.546  10.779
18082SOL     OW56078   7.504   5.162   8.668
18082SOL    HW156079   7.511   5.093   8.602
18082SOL    HW256080   7.535   5.241   8.624
18083SOL     OW56081   6.454  13.188   8.479
18083SOL    HW156082   6.418  13.252   8.540
18083SOL    HW256083   6.537  13.161   8.518
18084SOL     OW56084   8.119  12.053   0.420
18084SOL    HW156085   8.045  12.009   0.378
18084SOL    HW256086   8.196  12.016   0.378
18085SOL     OW56087  12.931   7.716   6.278
18085SOL    HW156088  12.876   7.711   6.357
18085SOL    HW256089  13.012   7.672   6.303
18086SOL     OW56090  10.143   1.539  12.943
18086SOL    HW156091  10.078   1.548  13.013
18086SOL    HW256092  10.209   1.481  12.980
18087SOL     OW56093  11.685   2.274  11.862
18087SOL    HW156094  11.698   2.196  11.809
18087SOL    HW256095  11.707   2.347  11.804
18088SOL     OW56096   4.968  14.783   3.716
18088SOL    HW156097   4.966  14.694   3.679
18088SOL    HW256098   5.007  14.836   3.647
18089SOL     OW56099   2.564   9.830   4.143
18089SOL    HW156100   2.565   9.925   4.158
18089SOL    HW256101   2.477   9.803   4.171
18090SOL     OW56102  11.999   7.838   7.433
18090SOL    HW156103  12.006   7.743   7.436
18090SOL    HW256104  11.945   7.860   7.510
18091SOL     OW56105   9.954   7.047   7.890
18091SOL    HW156106   9.942   7.006   7.975
18091SOL    HW256107  10.042   7.086   7.894
18092SOL     OW56108   5.732   0.664   2.636
18092SOL    HW156109   5.780   0.679   2.718
18092SOL    HW256110   5.645   0.698   2.653
18093SOL     OW56111   7.330  12.993  13.649
18093SOL    HW156112   7.275  13.070  13.637
18093SOL    HW256113   7.269  12.922  13.666
18094SOL     OW56114   5.992  10.145   5.842
18094SOL    HW156115   6.059  10.077   5.836
18094SOL    HW256116   6.029  10.209   5.902
18095SOL     OW56117   8.003  12.724   5.589
18095SOL    HW156118   8.084  12.758   5.627
18095SOL    HW256119   8.027  12.698   5.500
18096SOL     OW56120  11.532   6.656   5.424
18096SOL    HW156121  11.493   6.578   5.465
18096SOL    HW256122  11.459   6.696   5.376
18097SOL     OW56123   9.473   9.098   9.264
18097SOL    HW156124   9.438   9.075   9.350
18097SOL    HW256125   9.445   9.025   9.208
18098SOL     OW56126   1.863   2.471  13.034
18098SOL    HW156127   1.791   2.411  13.016
18098SOL    HW256128   1.938   2.433  12.989
18099SOL     OW56129   0.770   4.887   5.175
18099SOL    HW156130   0.845   4.937   5.144
18099SOL    HW256131   0.790   4.869   5.267
18100SOL     OW56132   5.828   4.499   8.593
18100SOL    HW156133   5.793   4.546   8.517
18100SOL    HW256134   5.751   4.469   8.640
18101SOL     OW56135   0.286   3.714   2.374
18101SOL    HW156136   0.327   3.760   2.447
18101SOL    HW256137   0.356   3.661   2.337
18102SOL     OW56138   6.968  14.620   1.245
18102SOL    HW156139   7.037  14.558   1.268
18102SOL    HW256140   6.927  14.582   1.167
18103SOL     OW56141   7.417   0.576   3.562
18103SOL    HW156142   7.438   0.486   3.538
18103SOL    HW256143   7.399   0.572   3.656
18104SOL     OW56144   4.067   5.705  12.410
18104SOL    HW156145   4.039   5.659  12.331
18104SOL    HW256146   4.120   5.778  12.378
18105SOL     OW56147   0.760  12.785   8.112
18105SOL    HW156148   0.851  12.800   8.086
18105SOL    HW256149   0.708  12.841   8.054
18106SOL     OW56150   8.480   9.279   0.828
18106SOL    HW156151   8.451   9.211   0.888
18106SOL    HW256152   8.538   9.235   0.766
18107SOL     OW56153  14.331   8.668   0.332
18107SOL    HW156154  14.298   8.754   0.305
18107SOL    HW256155  14.423   8.684   0.355
18108SOL     OW56156   0.336   8.531  14.636
18108SOL    HW156157   0.388   8.533  14.716
18108SOL    HW256158   0.391   8.486  14.572
18109SOL     OW56159  12.653   6.260   5.467
18109SOL    HW156160  12.745   6.273   5.446
18109SOL    HW256161  12.606   6.318   5.407
18110SOL     OW56162   8.855   2.013   8.857
18110SOL    HW156163   8.916   2.050   8.921
18110SOL    HW256164   8.795   2.085   8.837
18111SOL     OW56165   6.463   6.208   8.161
18111SOL    HW156166   6.384   6.211   8.215
18111SOL    HW256167   6.475   6.298   8.131
18112SOL     OW56168  13.440   0.930   8.894
18112SOL    HW156169  13.480   0.931   8.808
18112SOL    HW256170  13.488   0.863   8.943
18113SOL     OW56171  10.350   4.575  13.939
18113SOL    HW156172  10.432   4.611  13.904
18113SOL    HW256173  10.313   4.527  13.865
18114SOL     OW56174   0.017  12.564  12.794
18114SOL    HW156175   0.097  12.600  12.832
18114SOL    HW256176   0.043  12.537  12.705
18115SOL     OW56177   9.478  10.323  12.465
18115SOL    HW156178   9.452  10.265  12.537
18115SOL    HW256179   9.421  10.400  12.476
18116SOL     OW56180   3.242   0.436   4.219
18116SOL    HW156181   3.267   0.463   4.307
18116SOL    HW256182   3.210   0.516   4.178
18117SOL     OW56183   8.869   3.407   4.396
18117SOL    HW156184   8.942   3.434   4.452
18117SOL    HW256185   8.827   3.489   4.370
18118SOL     OW56186  12.227   4.971   4.080
18118SOL    HW156187  12.322   4.973   4.063
18118SOL    HW256188  12.205   4.878   4.082
18119SOL     OW56189   7.514   0.930   8.307
18119SOL    HW156190   7.575   0.912   8.236
18119SOL    HW256191   7.433   0.959   8.264
18120SOL     OW56192  10.473  14.115   4.798
18120SOL    HW156193  10.514  14.201   4.798
18120SOL    HW256194  10.389  14.128   4.756
18121SOL     OW56195   0.069   3.707  10.705
18121SOL    HW156196   0.156   3.670  10.720
18121SOL    HW256197   0.059   3.707  10.610
18122SOL     OW56198   9.282  13.696   6.306
18122SOL    HW156199   9.359  13.731   6.351
18122SOL    HW256200   9.317  13.655   6.227
18123SOL     OW56201   3.377   9.549   5.266
18123SOL    HW156202   3.383   9.459   5.296
18123SOL    HW256203   3.451   9.593   5.308
18124SOL     OW56204  11.727   7.720   7.654
18124SOL    HW156205  11.686   7.730   7.568
18124SOL    HW256206  11.675   7.652   7.697
18125SOL     OW56207   9.795   2.893   0.284
18125SOL    HW156208   9.847   2.838   0.225
18125SOL    HW256209   9.811   2.982   0.253
18126SOL     OW56210   7.060   2.933  14.129
18126SOL    HW156211   7.017   2.850  14.151
18126SOL    HW256212   7.054   2.938  14.034
18127SOL     OW56213  12.006   9.819   3.059
18127SOL    HW156214  11.917   9.806   3.093
18127SOL    HW256215  12.056   9.747   3.097
18128SOL     OW56216   0.818  13.310  13.927
18128SOL    HW156217   0.833  13.405  13.925
18128SOL    HW256218   0.812  13.284  13.835
18129SOL     OW56219   9.729   5.293  13.181
18129SOL    HW156220   9.801   5.339  13.137
18129SOL    HW256221   9.708   5.221  13.122
18130SOL     OW56222   5.204  14.761   9.051
18130SOL    HW156223   5.162  14.676   9.037
18130SOL    HW256224   5.202  14.773   9.146
18131SOL     OW56225   1.648  13.210   4.089
18131SOL    HW156226   1.635  13.115   4.098
18131SOL    HW256227   1.738  13.218   4.056
18132SOL     OW56228  10.043  10.553   8.122
18132SOL    HW156229  10.016  10.604   8.045
18132SOL    HW256230  10.043  10.617   8.193
18133SOL     OW56231  13.355  12.964   4.759
18133SOL    HW156232  13.301  12.888   4.784
18133SOL    HW256233  13.435  12.926   4.723
18134SOL     OW56234  12.006  12.380   0.817
18134SOL    HW156235  12.017  12.286   0.808
18134SOL    HW256236  12.085  12.410   0.862
18135SOL     OW56237   7.908   0.460  14.164
18135SOL    HW156238   7.834   0.483  14.221
18135SOL    HW256239   7.881   0.491  14.078
18136SOL     OW56240  14.332  10.658   9.167
18136SOL    HW156241  14.263  10.719   9.193
18136SOL    HW256242  14.293  10.571   9.181
18137SOL     OW56243  14.053   1.716  13.219
18137SOL    HW156244  14.141   1.710  13.182
18137SOL    HW256245  14.067   1.724  13.313
18138SOL     OW56246   9.671   5.677   5.500
18138SOL    HW156247   9.611   5.606   5.476
18138SOL    HW256248   9.679   5.730   5.421
18139SOL     OW56249   0.250   3.327  13.354
18139SOL    HW156250   0.250   3.370  13.269
18139SOL    HW256251   0.339   3.291  13.363
18140SOL     OW56252   2.219  10.174  12.307
18140SOL    HW156253   2.180  10.261  12.302
18140SOL    HW256254   2.205  10.136  12.221
18141SOL     OW56255  10.097   2.503   8.131
18141SOL    HW156256  10.035   2.451   8.181
18141SOL    HW256257  10.108   2.583   8.183
18142SOL     OW56258  12.260   3.016  13.324
18142SOL    HW156259  12.285   3.087  13.382
18142SOL    HW256260  12.268   3.053  13.236
18143SOL     OW56261   6.043   6.599   3.168
18143SOL    HW156262   6.063   6.684   3.130
18143SOL    HW256263   5.988   6.556   3.103
18144SOL     OW56264   5.775   9.617   3.308
18144SOL    HW156265   5.719   9.549   3.345
18144SOL    HW256266   5.863   9.578   3.308
18145SOL     OW56267  12.738   0.225  12.479
18145SOL    HW156268  12.800   0.227  12.552
18145SOL    HW256269  12.755   0.141  12.436
18146SOL     OW56270   8.062   5.910   6.238
18146SOL    HW156271   8.054   5.837   6.177
18146SOL    HW256272   8.096   5.871   6.318
18147SOL     OW56273   7.120   5.880   4.645
18147SOL    HW156274   7.140   5.858   4.554
18147SOL    HW256275   7.116   5.975   4.647
18148SOL     OW56276   9.188  11.815  12.407
18148SOL    HW156277   9.156  11.881  12.346
18148SOL    HW256278   9.275  11.846  12.432
18149SOL     OW56279   5.631   4.730   1.959
18149SOL    HW156280   5.558   4.691   2.007
18149SOL    HW256281   5.640   4.817   1.997
18150SOL     OW56282  12.432  12.746   0.362
18150SOL    HW156283  12.368  12.720   0.429
18150SOL    HW256284  12.504  12.683   0.372
18151SOL     OW56285   1.902  12.276   8.756
18151SOL    HW156286   1.993  12.250   8.752
18151SOL    HW256287   1.894  12.320   8.841
18152SOL     OW56288   7.009   5.219   3.677
18152SOL    HW156289   6.959   5.298   3.655
18152SOL    HW256290   7.051   5.240   3.761
18153SOL     OW56291   5.513  13.126   0.588
18153SOL    HW156292   5.477  13.213   0.605
18153SOL    HW256293   5.607  13.141   0.576
18154SOL     OW56294   4.066  10.542   7.266
18154SOL    HW156295   4.001  10.483   7.227
18154SOL    HW256296   4.058  10.623   7.215
18155SOL     OW56297   2.016  10.619   9.188
18155SOL    HW156298   2.091  10.562   9.206
18155SOL    HW256299   1.964  10.616   9.269
18156SOL     OW56300   1.234   4.372   2.591
18156SOL    HW156301   1.282   4.439   2.542
18156SOL    HW256302   1.179   4.421   2.651
18157SOL     OW56303   1.988  11.512   4.827
18157SOL    HW156304   1.995  11.422   4.793
18157SOL    HW256305   2.022  11.567   4.756
18158SOL     OW56306  12.051   5.826   7.125
18158SOL    HW156307  12.097   5.872   7.055
18158SOL    HW256308  12.039   5.893   7.193
18159SOL     OW56309   1.081   0.661   7.935
18159SOL    HW156310   1.158   0.676   7.880
18159SOL    HW256311   1.051   0.573   7.911
18160SOL     OW56312  14.302   0.834   0.447
18160SOL    HW156313  14.285   0.914   0.398
18160SOL    HW256314  14.314   0.864   0.538
18161SOL     OW56315  14.660   8.037   3.608
18161SOL    HW156316  14.646   7.968   3.673
18161SOL    HW256317  14.573   8.056   3.574
18162SOL     OW56318   5.401   8.287   2.119
18162SOL    HW156319   5.312   8.310   2.091
18162SOL    HW256320   5.444   8.371   2.135
18163SOL     OW56321  12.735   6.293   5.119
18163SOL    HW156322  12.810   6.353   5.120
18163SOL    HW256323  12.658   6.351   5.124
18164SOL     OW56324   6.850   3.755   2.108
18164SOL    HW156325   6.933   3.781   2.147
18164SOL    HW256326   6.784   3.804   2.156
18165SOL     OW56327   8.805   4.035   4.606
18165SOL    HW156328   8.735   3.973   4.625
18165SOL    HW256329   8.786   4.065   4.517
18166SOL     OW56330   2.593   4.144  14.471
18166SOL    HW156331   2.500   4.136  14.493
18166SOL    HW256332   2.593   4.177  14.381
18167SOL     OW56333   8.364  12.577   1.078
18167SOL    HW156334   8.447  12.614   1.108
18167SOL    HW256335   8.384  12.538   0.993
18168SOL     OW56336  10.337  11.107   6.314
18168SOL    HW156337  10.283  11.180   6.284
18168SOL    HW256338  10.398  11.091   6.242
18169SOL     OW56339  12.753   9.329  14.411
18169SOL    HW156340  12.719   9.276  14.339
18169SOL    HW256341  12.836   9.363  14.379
18170SOL     OW56342   1.032   5.526  11.772
18170SOL    HW156343   1.024   5.593  11.840
18170SOL    HW256344   1.049   5.445  11.820
18171SOL     OW56345  12.400  10.634  10.420
18171SOL    HW156346  12.397  10.549  10.376
18171SOL    HW256347  12.351  10.693  10.363
18172SOL     OW56348   0.758   3.987   3.800
18172SOL    HW156349   0.787   3.908   3.847
18172SOL    HW256350   0.795   4.059   3.851
18173SOL     OW56351  10.702  12.042  14.555
18173SOL    HW156352  10.642  12.076  14.489
18173SOL    HW256353  10.789  12.068  14.525
18174SOL     OW56354   6.833   9.497  12.350
18174SOL    HW156355   6.820   9.560  12.279
18174SOL    HW256356   6.880   9.425  12.310
18175SOL     OW56357  10.548   3.080  11.948
18175SOL    HW156358  10.495   3.003  11.928
18175SOL    HW256359  10.516   3.110  12.033
18176SOL     OW56360   4.137  14.029   9.316
18176SOL    HW156361   4.044  14.022   9.292
18176SOL    HW256362   4.138  14.085   9.394
18177SOL     OW56363   5.289   4.390  13.089
18177SOL    HW156364   5.300   4.482  13.112
18177SOL    HW256365   5.369   4.348  13.122
18178SOL     OW56366  14.823   2.305   4.972
18178SOL    HW156367  14.869   2.386   4.949
18178SOL    HW256368  14.746   2.305   4.915
18179SOL     OW56369   1.319   6.353  13.188
18179SOL    HW156370   1.382   6.314  13.126
18179SOL    HW256371   1.374   6.394  13.255
18180SOL     OW56372  13.720   3.329   5.436
18180SOL    HW156373  13.795   3.308   5.492
18180SOL    HW256374  13.647   3.338   5.496
18181SOL     OW56375   5.033   5.298  11.754
18181SOL    HW156376   5.065   5.297  11.844
18181SOL    HW256377   5.112   5.284  11.700
18182SOL     OW56378   4.342   7.969  10.572
18182SOL    HW156379   4.349   8.031  10.500
18182SOL    HW256380   4.432   7.951  10.597
18183SOL     OW56381   4.788   5.106  11.866
18183SOL    HW156382   4.865   5.162  11.877
18183SOL    HW256383   4.722   5.163  11.826
18184SOL     OW56384  13.798  10.910   0.308
18184SOL    HW156385  13.892  10.909   0.293
18184SOL    HW256386  13.774  11.002   0.299
18185SOL     OW56387   2.767   8.526  10.137
18185SOL    HW156388   2.851   8.552  10.177
18185SOL    HW256389   2.792   8.481  10.057
18186SOL     OW56390   2.014   3.214   8.942
18186SOL    HW156391   2.085   3.218   8.879
18186SOL    HW256392   1.969   3.299   8.933
18187SOL     OW56393  12.189   9.887   7.221
18187SOL    HW156394  12.133   9.822   7.177
18187SOL    HW256395  12.266   9.836   7.249
18188SOL     OW56396   5.434   1.365   6.703
18188SOL    HW156397   5.398   1.289   6.750
18188SOL    HW256398   5.415   1.440   6.759
18189SOL     OW56399  12.162   2.984   3.726
18189SOL    HW156400  12.178   2.947   3.639
18189SOL    HW256401  12.094   3.050   3.711
18190SOL     OW56402   7.862   7.840  14.487
18190SOL    HW156403   7.866   7.754  14.445
18190SOL    HW256404   7.795   7.831  14.555
18191SOL     OW56405   4.376  10.680  14.763
18191SOL    HW156406   4.339  10.677  14.851
18191SOL    HW256407   4.458  10.729  14.773
18192SOL     OW56408  13.902   7.639  10.674
18192SOL    HW156409  13.929   7.612  10.762
18192SOL    HW256410  13.850   7.718  10.687
18193SOL     OW56411   2.313   9.884   3.863
18193SOL    HW156412   2.352   9.964   3.897
18193SOL    HW256413   2.367   9.862   3.787
18194SOL     OW56414   5.019   2.983  11.961
18194SOL    HW156415   5.079   3.044  12.004
18194SOL    HW256416   5.028   3.001  11.868
18195SOL     OW56417   9.268   8.995   4.746
18195SOL    HW156418   9.356   8.965   4.727
18195SOL    HW256419   9.245   9.051   4.672
18196SOL     OW56420  11.286   6.498   0.751
18196SOL    HW156421  11.265   6.591   0.746
18196SOL    HW256422  11.361   6.493   0.811
18197SOL     OW56423   9.428   2.824   5.852
18197SOL    HW156424   9.368   2.750   5.847
18197SOL    HW256425   9.435   2.855   5.762
18198SOL     OW56426   6.182   0.328  14.690
18198SOL    HW156427   6.197   0.396  14.624
18198SOL    HW256428   6.098   0.289  14.666
18199SOL     OW56429   6.845   9.681  12.143
18199SOL    HW156430   6.837   9.660  12.050
18199SOL    HW256431   6.844   9.777  12.146
18200SOL     OW56432   3.306  14.364   9.013
18200SOL    HW156433   3.389  14.383   9.057
18200SOL    HW256434   3.288  14.272   9.035
18201SOL     OW56435   8.571  12.597   9.481
18201SOL    HW156436   8.488  12.575   9.438
18201SOL    HW256437   8.576  12.536   9.554
18202SOL     OW56438   0.317   1.952   9.513
18202SOL    HW156439   0.346   2.042   9.530
18202SOL    HW256440   0.290   1.953   9.421
18203SOL     OW56441  12.098   3.358  13.786
18203SOL    HW156442  12.152   3.281  13.768
18203SOL    HW256443  12.028   3.325  13.843
18204SOL     OW56444   7.324   3.422   8.074
18204SOL    HW156445   7.237   3.386   8.091
18204SOL    HW256446   7.377   3.393   8.149
18205SOL     OW56447   6.498  12.643   3.754
18205SOL    HW156448   6.583  12.602   3.767
18205SOL    HW256449   6.458  12.644   3.841
18206SOL     OW56450   6.246   7.784  11.744
18206SOL    HW156451   6.248   7.863  11.691
18206SOL    HW256452   6.321   7.792  11.803
18207SOL     OW56453  13.794   0.959   2.814
18207SOL    HW156454  13.741   0.962   2.734
18207SOL    HW256455  13.824   1.050   2.826
18208SOL     OW56456   6.704   0.602   6.758
18208SOL    HW156457   6.649   0.681   6.760
18208SOL    HW256458   6.781   0.627   6.707
18209SOL     OW56459   9.918  10.646   7.027
18209SOL    HW156460  10.000  10.637   7.076
18209SOL    HW256461   9.911  10.740   7.009
18210SOL     OW56462   9.495  14.645   2.979
18210SOL    HW156463   9.444  14.574   3.018
18210SOL    HW256464   9.529  14.694   3.054
18211SOL     OW56465  14.094   8.753   4.820
18211SOL    HW156466  14.186   8.780   4.824
18211SOL    HW256467  14.050   8.806   4.887
18212SOL     OW56468   5.207   9.255   4.085
18212SOL    HW156469   5.206   9.201   4.164
18212SOL    HW256470   5.219   9.345   4.118
18213SOL     OW56471  12.574   6.430   2.570
18213SOL    HW156472  12.499   6.382   2.535
18213SOL    HW256473  12.614   6.370   2.633
18214SOL     OW56474   2.451   0.366   0.144
18214SOL    HW156475   2.370   0.338   0.101
18214SOL    HW256476   2.478   0.291   0.197
18215SOL     OW56477   4.239  13.704   1.395
18215SOL    HW156478   4.252  13.679   1.303
18215SOL    HW256479   4.327  13.700   1.433
18216SOL     OW56480   7.432  14.234   2.386
18216SOL    HW156481   7.522  14.201   2.393
18216SOL    HW256482   7.379  14.154   2.382
18217SOL     OW56483  10.870  12.088   7.094
18217SOL    HW156484  10.942  12.034   7.059
18217SOL    HW256485  10.806  12.091   7.023
18218SOL     OW56486   0.203  11.931   3.056
18218SOL    HW156487   0.207  11.955   2.963
18218SOL    HW256488   0.157  11.847   3.056
18219SOL     OW56489   3.042   0.992  14.406
18219SOL    HW156490   3.029   0.955  14.493
18219SOL    HW256491   3.118   1.049  14.415
18220SOL     OW56492   1.694  13.608   4.098
18220SOL    HW156493   1.718  13.592   4.007
18220SOL    HW256494   1.735  13.537   4.147
18221SOL     OW56495  11.899  10.872   6.198
18221SOL    HW156496  11.950  10.918   6.264
18221SOL    HW256497  11.834  10.823   6.249
18222SOL     OW56498   1.512   6.519   3.814
18222SOL    HW156499   1.431   6.507   3.765
18222SOL    HW256500   1.580   6.481   3.757
18223SOL     OW56501   2.822   0.813   0.827
18223SOL    HW156502   2.744   0.790   0.777
18223SOL    HW256503   2.873   0.732   0.830
18224SOL     OW56504   4.325   9.422  11.261
18224SOL    HW156505   4.263   9.382  11.200
18224SOL    HW256506   4.410   9.411  11.219
18225SOL     OW56507  12.895  13.609   4.134
18225SOL    HW156508  12.962  13.545   4.160
18225SOL    HW256509  12.848  13.566   4.062
18226SOL     OW56510   9.329  12.992  12.554
18226SOL    HW156511   9.360  12.976  12.644
18226SOL    HW256512   9.409  12.995  12.502
18227SOL     OW56513  12.502  12.900  14.827
18227SOL    HW156514  12.419  12.944  14.811
18227SOL    HW256515  12.496  12.819  14.777
18228SOL     OW56516   7.357  10.916  14.314
18228SOL    HW156517   7.319  10.916  14.226
18228SOL    HW256518   7.346  11.006  14.344
18229SOL     OW56519   4.947   7.810   2.049
18229SOL    HW156520   4.971   7.901   2.028
18229SOL    HW256521   4.973   7.761   1.971
18230SOL     OW56522  13.150   6.997   8.493
18230SOL    HW156523  13.105   6.955   8.567
18230SOL    HW256524  13.083   7.007   8.426
18231SOL     OW56525   1.899   7.859   8.085
18231SOL    HW156526   1.923   7.781   8.035
18231SOL    HW256527   1.839   7.826   8.152
18232SOL     OW56528  10.945   4.318   9.613
18232SOL    HW156529  10.933   4.251   9.680
18232SOL    HW256530  10.965   4.397   9.663
18233SOL     OW56531   6.755   7.093   4.519
18233SOL    HW156532   6.835   7.145   4.527
18233SOL    HW256533   6.736   7.092   4.426
18234SOL     OW56534  14.449   9.342   2.095
18234SOL    HW156535  14.372   9.326   2.149
18234SOL    HW256536  14.505   9.399   2.149
18235SOL     OW56537  13.166   9.176  12.674
18235SOL    HW156538  13.209   9.157  12.758
18235SOL    HW256539  13.188   9.101  12.619
18236SOL     OW56540  12.243  14.411  14.223
18236SOL    HW156541  12.179  14.408  14.294
18236SOL    HW256542  12.202  14.364  14.151
18237SOL     OW56543   8.381  13.638  11.312
18237SOL    HW156544   8.409  13.559  11.267
18237SOL    HW256545   8.285  13.630  11.318
18238SOL     OW56546   6.407   1.572   4.331
18238SOL    HW156547   6.351   1.649   4.321
18238SOL    HW256548   6.441   1.556   4.243
18239SOL     OW56549   5.831   0.766   9.307
18239SOL    HW156550   5.777   0.703   9.259
18239SOL    HW256551   5.858   0.719   9.385
18240SOL     OW56552   4.789  13.982   5.407
18240SOL    HW156553   4.850  14.028   5.464
18240SOL    HW256554   4.832  13.981   5.321
18241SOL     OW56555   5.881  12.523   9.837
18241SOL    HW156556   5.843  12.494   9.920
18241SOL    HW256557   5.805  12.541   9.782
18242SOL     OW56558  11.727   2.813   9.191
18242SOL    HW156559  11.679   2.768   9.260
18242SOL    HW256560  11.661   2.860   9.141
18243SOL     OW56561   2.187   9.314   5.850
18243SOL    HW156562   2.163   9.407   5.855
18243SOL    HW256563   2.182   9.293   5.757
18244SOL     OW56564   8.625   8.423  11.219
18244SOL    HW156565   8.591   8.422  11.129
18244SOL    HW256566   8.582   8.348  11.261
18245SOL     OW56567   0.346   8.729  13.534
18245SOL    HW156568   0.278   8.747  13.599
18245SOL    HW256569   0.381   8.816  13.512
18246SOL     OW56570  12.050  13.932   3.366
18246SOL    HW156571  12.070  14.000   3.301
18246SOL    HW256572  11.971  13.890   3.334
18247SOL     OW56573   5.985  10.292   3.139
18247SOL    HW156574   5.916  10.294   3.205
18247SOL    HW256575   5.959  10.224   3.077
18248SOL     OW56576   3.092   3.018  14.803
18248SOL    HW156577   3.096   2.979  14.716
18248SOL    HW256578   3.146   3.097  14.796
18249SOL     OW56579   1.906   0.427   3.775
18249SOL    HW156580   1.964   0.353   3.790
18249SOL    HW256581   1.836   0.393   3.720
18250SOL     OW56582  13.964   6.019  13.485
18250SOL    HW156583  13.928   6.076  13.417
18250SOL    HW256584  14.045   6.061  13.512
18251SOL     OW56585   4.354  11.906   5.813
18251SOL    HW156586   4.382  11.968   5.879
18251SOL    HW256587   4.430  11.848   5.801
18252SOL     OW56588  12.853  12.274  11.630
18252SOL    HW156589  12.768  12.232  11.645
18252SOL    HW256590  12.871  12.322  11.711
18253SOL     OW56591  11.174   7.805  11.782
18253SOL    HW156592  11.249   7.786  11.725
18253SOL    HW256593  11.137   7.719  11.801
18254SOL     OW56594   6.345   8.416   1.280
18254SOL    HW156595   6.264   8.412   1.331
18254SOL    HW256596   6.414   8.425   1.346
18255SOL     OW56597  13.796   4.746   6.692
18255SOL    HW156598  13.873   4.727   6.639
18255SOL    HW256599  13.789   4.671   6.752
18256SOL     OW56600   2.400   8.684   7.171
18256SOL    HW156601   2.378   8.750   7.105
18256SOL    HW256602   2.375   8.601   7.130
18257SOL     OW56603  14.459  10.141   3.559
18257SOL    HW156604  14.392  10.079   3.589
18257SOL    HW256605  14.535  10.121   3.614
18258SOL     OW56606  10.663   8.858  14.168
18258SOL    HW156607  10.627   8.869  14.080
18258SOL    HW256608  10.651   8.765  14.187
18259SOL     OW56609  14.078  11.539   6.635
18259SOL    HW156610  14.099  11.451   6.603
18259SOL    HW256611  14.004  11.567   6.580
18260SOL     OW56612   4.377  10.543  13.055
18260SOL    HW156613   4.389  10.531  13.149
18260SOL    HW256614   4.461  10.518  13.017
18261SOL     OW56615  14.403  11.612   6.739
18261SOL    HW156616  14.325  11.656   6.774
18261SOL    HW256617  14.396  11.522   6.771
18262SOL     OW56618   2.540  11.239   8.230
18262SOL    HW156619   2.485  11.162   8.219
18262SOL    HW256620   2.553  11.272   8.141
18263SOL     OW56621  12.270   9.935  14.621
18263SOL    HW156622  12.311   9.979  14.547
18263SOL    HW256623  12.289   9.990  14.697
18264SOL     OW56624  10.945   5.538   1.251
18264SOL    HW156625  11.001   5.608   1.219
18264SOL    HW256626  10.971   5.461   1.201
18265SOL     OW56627   5.671   4.757   8.183
18265SOL    HW156628   5.645   4.811   8.108
18265SOL    HW256629   5.592   4.710   8.208
18266SOL     OW56630  13.749  10.325  10.794
18266SOL    HW156631  13.737  10.407  10.746
18266SOL    HW256632  13.844  10.312  10.796
18267SOL     OW56633  14.169  14.658   1.928
18267SOL    HW156634  14.136  14.599   1.995
18267SOL    HW256635  14.225  14.720   1.975
18268SOL     OW56636   5.970   5.989  14.798
18268SOL    HW156637   5.995   5.989  14.705
18268SOL    HW256638   6.054   5.984  14.845
18269SOL     OW56639  13.836  13.651   7.698
18269SOL    HW156640  13.857  13.598   7.774
18269SOL    HW256641  13.809  13.736   7.734
18270SOL     OW56642  12.615   5.412   1.792
18270SOL    HW156643  12.521   5.426   1.804
18270SOL    HW256644  12.656   5.470   1.856
18271SOL     OW56645   2.210   3.221   6.893
18271SOL    HW156646   2.227   3.127   6.899
18271SOL    HW256647   2.297   3.261   6.880
18272SOL     OW56648   7.531   6.540   9.440
18272SOL    HW156649   7.534   6.444   9.440
18272SOL    HW256650   7.459   6.562   9.381
18273SOL     OW56651   0.061   0.837   5.143
18273SOL    HW156652   0.123   0.802   5.207
18273SOL    HW256653   0.043   0.926   5.173
18274SOL     OW56654   4.016   4.982   6.901
18274SOL    HW156655   4.058   4.954   6.982
18274SOL    HW256656   3.929   4.943   6.904
18275SOL     OW56657   1.390   5.203  14.104
18275SOL    HW156658   1.418   5.129  14.050
18275SOL    HW256659   1.345   5.162  14.179
18276SOL     OW56660   0.309  14.427  13.458
18276SOL    HW156661   0.366  14.410  13.533
18276SOL    HW256662   0.286  14.340  13.425
18277SOL     OW56663  11.805   1.805   7.108
18277SOL    HW156664  11.745   1.868   7.068
18277SOL    HW256665  11.757   1.723   7.109
18278SOL     OW56666   0.247  13.962   0.495
18278SOL    HW156667   0.324  14.017   0.486
18278SOL    HW256668   0.204  13.995   0.574
18279SOL     OW56669   0.593  13.404   6.687
18279SOL    HW156670   0.542  13.485   6.685
18279SOL    HW256671   0.628  13.395   6.598
18280SOL     OW56672   3.030   0.725  10.262
18280SOL    HW156673   3.012   0.635  10.287
18280SOL    HW256674   2.978   0.739  10.183
18281SOL     OW56675   1.257  11.585  10.801
18281SOL    HW156676   1.284  11.526  10.871
18281SOL    HW256677   1.200  11.532  10.745
18282SOL     OW56678   1.111  14.622   7.931
18282SOL    HW156679   1.063  14.565   7.871
18282SOL    HW256680   1.050  14.639   8.003
18283SOL     OW56681  11.430   9.287   5.264
18283SOL    HW156682  11.383   9.367   5.241
18283SOL    HW256683  11.369   9.238   5.319
18284SOL     OW56684   5.608   2.090   3.587
18284SOL    HW156685   5.591   2.178   3.554
18284SOL    HW256686   5.675   2.102   3.655
18285SOL     OW56687  10.115   7.627  14.634
18285SOL    HW156688  10.022   7.647  14.648
18285SOL    HW256689  10.116   7.532  14.622
18286SOL     OW56690  10.377   4.157   8.082
18286SOL    HW156691  10.412   4.228   8.135
18286SOL    HW256692  10.283   4.158   8.100
18287SOL     OW56693  13.440   8.372   7.810
18287SOL    HW156694  13.364   8.391   7.754
18287SOL    HW256695  13.444   8.277   7.813
18288SOL     OW56696   6.361  11.715   4.908
18288SOL    HW156697   6.318  11.637   4.873
18288SOL    HW256698   6.408  11.684   4.986
18289SOL     OW56699   1.549  13.244   0.371
18289SOL    HW156700   1.539  13.328   0.326
18289SOL    HW256701   1.579  13.184   0.303
18290SOL     OW56702   4.636   0.507  10.415
18290SOL    HW156703   4.704   0.448  10.384
18290SOL    HW256704   4.648   0.509  10.510
18291SOL     OW56705   7.564  12.717   6.798
18291SOL    HW156706   7.636  12.738   6.738
18291SOL    HW256707   7.506  12.660   6.747
18292SOL     OW56708   5.916   2.834   5.335
18292SOL    HW156709   5.942   2.922   5.360
18292SOL    HW256710   5.995   2.796   5.295
18293SOL     OW56711  12.732   0.427  11.204
18293SOL    HW156712  12.726   0.521  11.223
18293SOL    HW256713  12.659   0.410  11.145
18294SOL     OW56714   9.149   3.571   8.033
18294SOL    HW156715   9.243   3.586   8.043
18294SOL    HW256716   9.134   3.485   8.073
18295SOL     OW56717  14.324   2.513  14.238
18295SOL    HW156718  14.270   2.505  14.317
18295SOL    HW256719  14.269   2.560  14.176
18296SOL     OW56720   9.492  14.412   9.151
18296SOL    HW156721   9.565  14.370   9.105
18296SOL    HW256722   9.445  14.339   9.192
18297SOL     OW56723   3.859  11.396   0.805
18297SOL    HW156724   3.949  11.419   0.830
18297SOL    HW256725   3.811  11.478   0.812
18298SOL     OW56726   9.212  10.958  12.781
18298SOL    HW156727   9.226  10.869  12.813
18298SOL    HW256728   9.126  10.982  12.813
18299SOL     OW56729   7.748  13.966  10.398
18299SOL    HW156730   7.670  13.919  10.425
18299SOL    HW256731   7.763  13.937  10.308
18300SOL     OW56732   5.465   4.301   3.057
18300SOL    HW156733   5.538   4.360   3.078
18300SOL    HW256734   5.418   4.291   3.140
18301SOL     OW56735   9.997   1.314   3.835
18301SOL    HW156736  10.059   1.249   3.802
18301SOL    HW256737   9.920   1.263   3.861
18302SOL     OW56738   2.167   5.567   9.589
18302SOL    HW156739   2.182   5.651   9.546
18302SOL    HW256740   2.242   5.558   9.648
18303SOL     OW56741   0.534   8.551   5.066
18303SOL    HW156742   0.457   8.544   5.123
18303SOL    HW256743   0.572   8.463   5.066
18304SOL     OW56744  14.662   1.164   0.029
18304SOL    HW156745  14.614   1.195  14.831
18304SOL    HW256746  14.641   1.071   0.033
18305SOL     OW56747  10.015   5.688   3.543
18305SOL    HW156748  10.008   5.782   3.559
18305SOL    HW256749  10.059   5.680   3.459
18306SOL     OW56750   7.459   5.363   4.511
18306SOL    HW156751   7.403   5.305   4.564
18306SOL    HW256752   7.406   5.442   4.498
18307SOL     OW56753   3.080   7.617   3.384
18307SOL    HW156754   3.165   7.594   3.420
18307SOL    HW256755   3.085   7.712   3.369
18308SOL     OW56756   1.659   2.287  12.967
18308SOL    HW156757   1.661   2.277  12.872
18308SOL    HW256758   1.619   2.206  12.999
18309SOL     OW56759   3.206   8.898  13.347
18309SOL    HW156760   3.224   8.981  13.303
18309SOL    HW256761   3.112   8.884  13.335
18310SOL     OW56762   0.897  13.081  11.322
18310SOL    HW156763   0.823  13.120  11.368
18310SOL    HW256764   0.972  13.100  11.377
18311SOL     OW56765  13.759   8.515  11.216
18311SOL    HW156766  13.738   8.561  11.134
18311SOL    HW256767  13.787   8.428  11.188
18312SOL     OW56768  14.794  14.755   1.715
18312SOL    HW156769  14.725  14.698   1.750
18312SOL    HW256770  14.755  14.794   1.637
18313SOL     OW56771   8.229   0.414   5.548
18313SOL    HW156772   8.216   0.326   5.514
18313SOL    HW256773   8.140   0.446   5.566
18314SOL     OW56774  11.018   2.179   2.738
18314SOL    HW156775  10.977   2.119   2.675
18314SOL    HW256776  11.071   2.123   2.794
18315SOL     OW56777  12.690   0.402   5.833
18315SOL    HW156778  12.684   0.306   5.833
18315SOL    HW256779  12.716   0.425   5.922
18316SOL     OW56780   6.883   2.523   6.517
18316SOL    HW156781   6.800   2.482   6.496
18316SOL    HW256782   6.907   2.488   6.602
18317SOL     OW56783   5.267  14.766  14.516
18317SOL    HW156784   5.260  14.788  14.423
18317SOL    HW256785   5.260  14.670  14.519
18318SOL     OW56786   2.071  10.528  10.463
18318SOL    HW156787   2.047  10.518  10.555
18318SOL    HW256788   2.061  10.440  10.426
18319SOL     OW56789   6.758   7.395  13.323
18319SOL    HW156790   6.810   7.364  13.248
18319SOL    HW256791   6.800   7.476  13.351
18320SOL     OW56792   9.596   5.682  12.404
18320SOL    HW156793   9.620   5.692  12.312
18320SOL    HW256794   9.536   5.607  12.405
18321SOL     OW56795   0.013   8.820   5.615
18321SOL    HW156796  14.816   8.822   5.558
18321SOL    HW256797   0.058   8.903   5.598
18322SOL     OW56798   0.709   5.508   8.652
18322SOL    HW156799   0.720   5.421   8.690
18322SOL    HW256800   0.777   5.512   8.584
18323SOL     OW56801   6.823   6.192  13.466
18323SOL    HW156802   6.760   6.258  13.436
18323SOL    HW256803   6.860   6.156  13.386
18324SOL     OW56804   9.851   7.433  10.818
18324SOL    HW156805   9.840   7.434  10.723
18324SOL    HW256806   9.772   7.474  10.852
18325SOL     OW56807   3.123   4.848   0.315
18325SOL    HW156808   3.187   4.778   0.327
18325SOL    HW256809   3.156   4.921   0.366
18326SOL     OW56810  11.608  10.364   0.911
18326SOL    HW156811  11.657  10.318   0.980
18326SOL    HW256812  11.564  10.295   0.863
18327SOL     OW56813  13.754   6.919   6.277
18327SOL    HW156814  13.837   6.924   6.324
18327SOL    HW256815  13.766   6.848   6.214
18328SOL     OW56816   8.946   4.302   6.414
18328SOL    HW156817   8.930   4.209   6.402
18328SOL    HW256818   8.967   4.311   6.507
18329SOL     OW56819   0.415  12.486  11.263
18329SOL    HW156820   0.358  12.477  11.340
18329SOL    HW256821   0.457  12.571  11.275
18330SOL     OW56822   7.788   9.030   0.572
18330SOL    HW156823   7.695   9.054   0.574
18330SOL    HW256824   7.830   9.101   0.524
18331SOL     OW56825   1.473  13.705   2.884
18331SOL    HW156826   1.479  13.670   2.795
18331SOL    HW256827   1.563  13.721   2.911
18332SOL     OW56828   8.616  14.435  10.185
18332SOL    HW156829   8.589  14.344  10.171
18332SOL    HW256830   8.585  14.455  10.274
18333SOL     OW56831   4.926  10.020   7.978
18333SOL    HW156832   4.941  10.081   7.905
18333SOL    HW256833   5.013   9.987   7.999
18334SOL     OW56834   2.305   9.937   7.872
18334SOL    HW156835   2.252   9.982   7.939
18334SOL    HW256836   2.255   9.948   7.791
18335SOL     OW56837   6.832   5.911   2.241
18335SOL    HW156838   6.862   5.926   2.331
18335SOL    HW256839   6.870   5.984   2.192
18336SOL     OW56840  11.291   1.808   4.531
18336SOL    HW156841  11.264   1.801   4.623
18336SOL    HW256842  11.375   1.763   4.528
18337SOL     OW56843   9.476  12.622   0.261
18337SOL    HW156844   9.505  12.556   0.323
18337SOL    HW256845   9.474  12.704   0.311
18338SOL     OW56846  13.958   4.500   3.334
18338SOL    HW156847  13.866   4.524   3.325
18338SOL    HW256848  14.005   4.582   3.327
18339SOL     OW56849   4.588  12.668  10.589
18339SOL    HW156850   4.495  12.691  10.591
18339SOL    HW256851   4.605  12.628  10.675
18340SOL     OW56852  10.412   1.343   9.451
18340SOL    HW156853  10.431   1.277   9.518
18340SOL    HW256854  10.322   1.371   9.468
18341SOL     OW56855   0.589   9.905  11.214
18341SOL    HW156856   0.678   9.875  11.196
18341SOL    HW256857   0.558   9.846  11.283
18342SOL     OW56858   2.097   1.267  14.354
18342SOL    HW156859   2.036   1.268  14.428
18342SOL    HW256860   2.066   1.337  14.297
18343SOL     OW56861   7.801   5.095   3.425
18343SOL    HW156862   7.754   5.177   3.410
18343SOL    HW256863   7.752   5.030   3.374
18344SOL     OW56864  13.371  12.529   8.173
18344SOL    HW156865  13.431  12.555   8.244
18344SOL    HW256866  13.350  12.611   8.129
18345SOL     OW56867   1.608   1.754   3.797
18345SOL    HW156868   1.598   1.816   3.869
18345SOL    HW256869   1.530   1.699   3.802
18346SOL     OW56870   3.516   8.650   9.969
18346SOL    HW156871   3.453   8.641  10.041
18346SOL    HW256872   3.541   8.560   9.948
18347SOL     OW56873   1.407   9.540   5.744
18347SOL    HW156874   1.426   9.576   5.657
18347SOL    HW256875   1.312   9.548   5.753
18348SOL     OW56876   6.023   6.148   8.553
18348SOL    HW156877   6.011   6.152   8.648
18348SOL    HW256878   5.938   6.172   8.518
18349SOL     OW56879   5.593   4.552  14.382
18349SOL    HW156880   5.638   4.592  14.457
18349SOL    HW256881   5.591   4.622  14.316
18350SOL     OW56882  12.691   6.901   6.015
18350SOL    HW156883  12.680   6.956   6.093
18350SOL    HW256884  12.601   6.879   5.989
18351SOL     OW56885   8.171   7.543   4.059
18351SOL    HW156886   8.246   7.602   4.067
18351SOL    HW256887   8.096   7.601   4.046
18352SOL     OW56888   4.510  13.909   9.126
18352SOL    HW156889   4.524  13.925   9.219
18352SOL    HW256890   4.572  13.967   9.082
18353SOL     OW56891   7.543  11.043   2.496
18353SOL    HW156892   7.573  11.007   2.413
18353SOL    HW256893   7.487  11.117   2.472
18354SOL     OW56894   0.252   1.448   7.569
18354SOL    HW156895   0.228   1.463   7.477
18354SOL    HW256896   0.182   1.392   7.603
18355SOL     OW56897  10.174  13.715   3.754
18355SOL    HW156898  10.265  13.718   3.782
18355SOL    HW256899  10.154  13.805   3.727
18356SOL     OW56900   4.777   7.086  11.781
18356SOL    HW156901   4.809   6.999  11.803
18356SOL    HW256902   4.806   7.100  11.690
18357SOL     OW56903   7.260   0.510   6.701
18357SOL    HW156904   7.250   0.430   6.648
18357SOL    HW256905   7.181   0.512   6.755
18358SOL     OW56906   6.537  12.243  10.859
18358SOL    HW156907   6.558  12.336  10.856
18358SOL    HW256908   6.521  12.224  10.951
18359SOL     OW56909   3.151  12.046   9.086
18359SOL    HW156910   3.103  11.969   9.116
18359SOL    HW256911   3.189  12.083   9.166
18360SOL     OW56912   9.110  14.527   7.622
18360SOL    HW156913   9.113  14.432   7.611
18360SOL    HW256914   9.149  14.542   7.707
18361SOL     OW56915   7.525  11.078  13.514
18361SOL    HW156916   7.591  11.051  13.577
18361SOL    HW256917   7.441  11.063  13.558
18362SOL     OW56918  12.308  12.007   8.112
18362SOL    HW156919  12.334  11.965   8.031
18362SOL    HW256920  12.214  11.993   8.118
18363SOL     OW56921   5.439   5.326  10.010
18363SOL    HW156922   5.459   5.275   9.931
18363SOL    HW256923   5.429   5.259  10.079
18364SOL     OW56924  13.668   1.123  10.192
18364SOL    HW156925  13.609   1.087  10.258
18364SOL    HW256926  13.725   1.182  10.241
18365SOL     OW56927   4.140  13.469   6.923
18365SOL    HW156928   4.084  13.546   6.934
18365SOL    HW256929   4.176  13.454   7.010
18366SOL     OW56930   1.535  10.092   7.804
18366SOL    HW156931   1.608  10.032   7.790
18366SOL    HW256932   1.562  10.145   7.879
18367SOL     OW56933  10.184   5.015   5.371
18367SOL    HW156934  10.154   5.099   5.406
18367SOL    HW256935  10.110   4.984   5.318
18368SOL     OW56936   7.814   9.376   6.962
18368SOL    HW156937   7.746   9.421   7.012
18368SOL    HW256938   7.872   9.339   7.028
18369SOL     OW56939  10.405   8.753   0.061
18369SOL    HW156940  10.430   8.812   0.132
18369SOL    HW256941  10.422   8.666   0.095
18370SOL     OW56942   7.464   5.936   7.608
18370SOL    HW156943   7.534   5.994   7.579
18370SOL    HW256944   7.414   5.917   7.528
18371SOL     OW56945  12.366   2.135   6.936
18371SOL    HW156946  12.296   2.188   6.897
18371SOL    HW256947  12.439   2.196   6.948
18372SOL     OW56948   3.276  10.714   3.319
18372SOL    HW156949   3.328  10.661   3.259
18372SOL    HW256950   3.189  10.717   3.279
18373SOL     OW56951   5.170   1.867   9.822
18373SOL    HW156952   5.121   1.882   9.903
18373SOL    HW256953   5.249   1.920   9.832
18374SOL     OW56954   2.125   2.787  14.653
18374SOL    HW156955   2.083   2.804  14.569
18374SOL    HW256956   2.110   2.866  14.704
18375SOL     OW56957   7.274   0.736   1.937
18375SOL    HW156958   7.288   0.811   1.879
18375SOL    HW256959   7.246   0.665   1.878
18376SOL     OW56960   2.929   2.234   3.494
18376SOL    HW156961   2.886   2.297   3.436
18376SOL    HW256962   2.945   2.158   3.439
18377SOL     OW56963   3.036   1.520   8.780
18377SOL    HW156964   3.086   1.537   8.700
18377SOL    HW256965   2.973   1.592   8.784
18378SOL     OW56966   3.193  12.240   9.784
18378SOL    HW156967   3.192  12.264   9.691
18378SOL    HW256968   3.133  12.165   9.790
18379SOL     OW56969  10.246   4.103   3.769
18379SOL    HW156970  10.278   4.050   3.842
18379SOL    HW256971  10.321   4.156   3.743
18380SOL     OW56972  13.084   9.596   6.087
18380SOL    HW156973  13.122   9.674   6.126
18380SOL    HW256974  12.990   9.614   6.085
18381SOL     OW56975  10.756   5.637   5.628
18381SOL    HW156976  10.740   5.725   5.595
18381SOL    HW256977  10.684   5.620   5.689
18382SOL     OW56978  13.123  13.062  14.116
18382SOL    HW156979  13.192  13.007  14.155
18382SOL    HW256980  13.147  13.069  14.024
18383SOL     OW56981  14.126   1.499  11.567
18383SOL    HW156982  14.150   1.411  11.538
18383SOL    HW256983  14.163   1.506  11.655
18384SOL     OW56984   7.214   4.040   9.284
18384SOL    HW156985   7.279   4.108   9.269
18384SOL    HW256986   7.210   3.992   9.202
18385SOL     OW56987   3.423   2.383  10.978
18385SOL    HW156988   3.484   2.414  11.045
18385SOL    HW256989   3.336   2.392  11.018
18386SOL     OW56990   8.909  12.465  10.428
18386SOL    HW156991   8.883  12.475  10.337
18386SOL    HW256992   8.896  12.551  10.467
18387SOL     OW56993  13.825   4.207  10.400
18387SOL    HW156994  13.894   4.186  10.463
18387SOL    HW256995  13.766   4.132  10.402
18388SOL     OW56996   2.124  13.208   9.109
18388SOL    HW156997   2.142  13.156   9.031
18388SOL    HW256998   2.190  13.178   9.172
18389SOL     OW56999   6.196   2.818   4.198
18389SOL    HW157000   6.128   2.753   4.180
18389SOL    HW257001   6.159   2.874   4.265
18390SOL     OW57002   8.481   0.552  11.273
18390SOL    HW157003   8.515   0.584  11.357
18390SOL    HW257004   8.457   0.461  11.290
18391SOL     OW57005   1.209   0.925  13.554
18391SOL    HW157006   1.245   1.005  13.516
18391SOL    HW257007   1.184   0.872  13.478
18392SOL     OW57008   9.229   6.239   1.437
18392SOL    HW157009   9.301   6.301   1.452
18392SOL    HW257010   9.210   6.248   1.344
18393SOL     OW57011   4.710  10.140   0.617
18393SOL    HW157012   4.765  10.140   0.538
18393SOL    HW257013   4.621  10.155   0.584
18394SOL     OW57014   6.139   3.454   6.077
18394SOL    HW157015   6.142   3.545   6.107
18394SOL    HW257016   6.218   3.444   6.024
18395SOL     OW57017   2.884  13.024   4.656
18395SOL    HW157018   2.956  13.004   4.597
18395SOL    HW257019   2.920  13.089   4.717
18396SOL     OW57020   6.612   5.022   2.870
18396SOL    HW157021   6.559   4.975   2.806
18396SOL    HW257022   6.702   4.996   2.851
18397SOL     OW57023   2.935  10.001   7.793
18397SOL    HW157024   2.952  10.027   7.703
18397SOL    HW257025   2.992   9.925   7.807
18398SOL     OW57026   4.591  14.620   1.536
18398SOL    HW157027   4.621  14.670   1.460
18398SOL    HW257028   4.566  14.687   1.600
18399SOL     OW57029  14.246  13.287  13.946
18399SOL    HW157030  14.158  13.294  13.981
18399SOL    HW257031  14.297  13.246  14.015
18400SOL     OW57032  11.291  11.653   6.905
18400SOL    HW157033  11.227  11.603   6.854
18400SOL    HW257034  11.268  11.635   6.996
18401SOL     OW57035  13.589  14.185   7.970
18401SOL    HW157036  13.626  14.163   7.884
18401SOL    HW257037  13.531  14.259   7.952
18402SOL     OW57038   3.305   5.747   8.988
18402SOL    HW157039   3.318   5.660   9.026
18402SOL    HW257040   3.210   5.756   8.982
18403SOL     OW57041   6.000   3.596   9.766
18403SOL    HW157042   5.948   3.520   9.743
18403SOL    HW257043   6.083   3.560   9.798
18404SOL     OW57044   6.237  13.988  11.818
18404SOL    HW157045   6.216  14.061  11.760
18404SOL    HW257046   6.271  14.029  11.898
18405SOL     OW57047   8.256   4.753   4.151
18405SOL    HW157048   8.328   4.743   4.213
18405SOL    HW257049   8.242   4.664   4.117
18406SOL     OW57050   4.092   3.498   4.320
18406SOL    HW157051   4.071   3.411   4.354
18406SOL    HW257052   4.043   3.504   4.238
18407SOL     OW57053   6.646  13.740  14.308
18407SOL    HW157054   6.675  13.790  14.383
18407SOL    HW257055   6.662  13.797  14.233
18408SOL     OW57056  11.550   4.319   7.470
18408SOL    HW157057  11.553   4.387   7.538
18408SOL    HW257058  11.544   4.368   7.388
18409SOL     OW57059   7.497   7.613  13.315
18409SOL    HW157060   7.476   7.702  13.343
18409SOL    HW257061   7.539   7.625  13.230
18410SOL     OW57062  12.164  10.236  13.242
18410SOL    HW157063  12.255  10.248  13.216
18410SOL    HW257064  12.119  10.211  13.161
18411SOL     OW57065   9.162   5.116  14.081
18411SOL    HW157066   9.217   5.137  14.006
18411SOL    HW257067   9.174   5.190  14.141
18412SOL     OW57068  14.349  13.286   5.230
18412SOL    HW157069  14.321  13.363   5.279
18412SOL    HW257070  14.412  13.242   5.288
18413SOL     OW57071   1.924   0.191   2.961
18413SOL    HW157072   1.895   0.195   2.870
18413SOL    HW257073   2.019   0.180   2.956
18414SOL     OW57074   7.112   9.672  12.828
18414SOL    HW157075   7.115   9.584  12.789
18414SOL    HW257076   7.024   9.704  12.807
18415SOL     OW57077   3.535   9.146   9.747
18415SOL    HW157078   3.497   9.092   9.816
18415SOL    HW257079   3.588   9.086   9.695
18416SOL     OW57080   5.811   3.500   6.075
18416SOL    HW157081   5.813   3.409   6.048
18416SOL    HW257082   5.901   3.519   6.102
18417SOL     OW57083  13.011   5.055  10.485
18417SOL    HW157084  13.087   5.084  10.434
18417SOL    HW257085  13.002   4.962  10.464
18418SOL     OW57086  13.450   6.555   0.364
18418SOL    HW157087  13.442   6.648   0.345
18418SOL    HW257088  13.393   6.541   0.440
18419SOL     OW57089   9.114  12.377  12.721
18419SOL    HW157090   9.099  12.465  12.687
18419SOL    HW257091   9.084  12.380  12.812
18420SOL     OW57092  10.520  11.787  10.506
18420SOL    HW157093  10.586  11.736  10.460
18420SOL    HW257094  10.443  11.730  10.509
18421SOL     OW57095   6.585   1.795  14.603
18421SOL    HW157096   6.631   1.750  14.533
18421SOL    HW257097   6.533   1.727  14.646
18422SOL     OW57098   8.636  13.703  14.050
18422SOL    HW157099   8.616  13.796  14.040
18422SOL    HW257100   8.630  13.667  13.961
18423SOL     OW57101   1.845  10.152   3.851
18423SOL    HW157102   1.774  10.177   3.792
18423SOL    HW257103   1.802  10.136   3.935
18424SOL     OW57104   4.101   4.792   3.042
18424SOL    HW157105   4.023   4.811   3.094
18424SOL    HW257106   4.069   4.746   2.965
18425SOL     OW57107   6.828  14.409   5.973
18425SOL    HW157108   6.811  14.498   5.941
18425SOL    HW257109   6.823  14.416   6.068
18426SOL     OW57110   5.875   8.607   1.037
18426SOL    HW157111   5.899   8.520   1.067
18426SOL    HW257112   5.814   8.640   1.103
18427SOL     OW57113   6.040  12.435  10.899
18427SOL    HW157114   6.026  12.415  10.992
18427SOL    HW257115   6.135  12.441  10.890
18428SOL     OW57116  11.700   3.911  10.239
18428SOL    HW157117  11.794   3.899  10.252
18428SOL    HW257118  11.686   3.886  10.148
18429SOL     OW57119   5.521   8.854   3.287
18429SOL    HW157120   5.451   8.820   3.343
18429SOL    HW257121   5.500   8.824   3.199
18430SOL     OW57122  13.664   9.166  11.078
18430SOL    HW157123  13.695   9.094  11.132
18430SOL    HW257124  13.643   9.126  10.994
18431SOL     OW57125   8.601  13.601  10.171
18431SOL    HW157126   8.680  13.655  10.172
18431SOL    HW257127   8.548  13.636  10.242
18432SOL     OW57128   5.757   8.272   8.005
18432SOL    HW157129   5.724   8.358   8.030
18432SOL    HW257130   5.843   8.266   8.046
18433SOL     OW57131  14.197   2.604   2.252
18433SOL    HW157132  14.232   2.693   2.261
18433SOL    HW257133  14.119   2.604   2.307
18434SOL     OW57134  13.988  10.867   2.479
18434SOL    HW157135  13.932  10.894   2.406
18434SOL    HW257136  14.070  10.840   2.437
18435SOL     OW57137  10.826   1.684   4.247
18435SOL    HW157138  10.761   1.616   4.263
18435SOL    HW257139  10.775   1.761   4.224
18436SOL     OW57140   2.430   6.680   9.842
18436SOL    HW157141   2.389   6.594   9.854
18436SOL    HW257142   2.490   6.667   9.768
18437SOL     OW57143   6.083   0.353  13.348
18437SOL    HW157144   6.086   0.335  13.254
18437SOL    HW257145   6.002   0.402  13.360
18438SOL     OW57146  11.050   6.750   2.955
18438SOL    HW157147  10.980   6.691   2.980
18438SOL    HW257148  11.090   6.777   3.037
18439SOL     OW57149   8.362  12.757  11.916
18439SOL    HW157150   8.434  12.731  11.973
18439SOL    HW257151   8.371  12.702  11.839
18440SOL     OW57152   2.341   0.807  14.620
18440SOL    HW157153   2.282   0.872  14.658
18440SOL    HW257154   2.409   0.859  14.576
18441SOL     OW57155   2.241   5.769   1.808
18441SOL    HW157156   2.328   5.767   1.769
18441SOL    HW257157   2.225   5.679   1.835
18442SOL     OW57158  10.271  13.789   8.502
18442SOL    HW157159  10.338  13.822   8.441
18442SOL    HW257160  10.254  13.863   8.561
18443SOL     OW57161  13.815   2.385   1.886
18443SOL    HW157162  13.793   2.307   1.937
18443SOL    HW257163  13.823   2.353   1.796
18444SOL     OW57164   7.512   6.568   7.565
18444SOL    HW157165   7.468   6.580   7.650
18444SOL    HW257166   7.475   6.487   7.530
18445SOL     OW57167   7.880  13.678   3.699
18445SOL    HW157168   7.825  13.755   3.688
18445SOL    HW257169   7.824  13.614   3.743
18446SOL     OW57170   1.993   5.816   2.747
18446SOL    HW157171   1.948   5.822   2.662
18446SOL    HW257172   2.050   5.740   2.738
18447SOL     OW57173   1.605  11.591   6.306
18447SOL    HW157174   1.595  11.577   6.212
18447SOL    HW257175   1.522  11.563   6.344
18448SOL     OW57176  13.515   5.618   5.505
18448SOL    HW157177  13.490   5.531   5.476
18448SOL    HW257178  13.483   5.623   5.595
18449SOL     OW57179  12.254   4.787  10.415
18449SOL    HW157180  12.287   4.871  10.445
18449SOL    HW257181  12.164   4.784  10.448
18450SOL     OW57182  14.641   5.671   9.251
18450SOL    HW157183  14.665   5.672   9.344
18450SOL    HW257184  14.629   5.763   9.229
18451SOL     OW57185  14.519   4.790  10.291
18451SOL    HW157186  14.437   4.836  10.275
18451SOL    HW257187  14.512   4.710  10.238
18452SOL     OW57188  10.279   9.583  14.042
18452SOL    HW157189  10.248   9.540  14.121
18452SOL    HW257190  10.303   9.512  13.983
18453SOL     OW57191   0.837  12.080  12.060
18453SOL    HW157192   0.800  12.132  12.131
18453SOL    HW257193   0.910  12.032  12.101
18454SOL     OW57194  13.018   0.750  11.550
18454SOL    HW157195  13.033   0.704  11.467
18454SOL    HW257196  12.926   0.775  11.547
18455SOL     OW57197  12.117   6.738   8.172
18455SOL    HW157198  12.137   6.731   8.079
18455SOL    HW257199  12.039   6.794   8.177
18456SOL     OW57200   7.053   7.400  10.913
18456SOL    HW157201   7.118   7.465  10.886
18456SOL    HW257202   7.039   7.347  10.835
18457SOL     OW57203  14.330   6.386   2.878
18457SOL    HW157204  14.365   6.474   2.867
18457SOL    HW257205  14.304   6.359   2.789
18458SOL     OW57206   0.947   4.041  12.845
18458SOL    HW157207   1.037   4.047  12.878
18458SOL    HW257208   0.898   4.102  12.899
18459SOL     OW57209   1.799  13.556   5.928
18459SOL    HW157210   1.856  13.481   5.941
18459SOL    HW257211   1.771  13.550   5.837
18460SOL     OW57212   0.161  14.202   9.921
18460SOL    HW157213   0.115  14.286   9.929
18460SOL    HW257214   0.215  14.213   9.842
18461SOL     OW57215  14.586  14.125   3.913
18461SOL    HW157216  14.678  14.114   3.887
18461SOL    HW257217  14.548  14.038   3.905
18462SOL     OW57218  14.343   0.762   9.346
18462SOL    HW157219  14.395   0.842   9.341
18462SOL    HW257220  14.301   0.766   9.433
18463SOL     OW57221  13.096   1.767  13.034
18463SOL    HW157222  13.159   1.744  12.965
18463SOL    HW257223  13.134   1.843  13.078
18464SOL     OW57224  11.256  14.207   2.995
18464SOL    HW157225  11.239  14.262   3.071
18464SOL    HW257226  11.252  14.117   3.029
18465SOL     OW57227   0.898   8.621   1.007
18465SOL    HW157228   0.939   8.536   0.992
18465SOL    HW257229   0.818   8.619   0.954
18466SOL     OW57230   7.245   5.096   5.053
18466SOL    HW157231   7.206   5.116   4.968
18466SOL    HW257232   7.279   5.180   5.084
18467SOL     OW57233  11.979   6.488   6.813
18467SOL    HW157234  11.902   6.452   6.769
18467SOL    HW257235  12.030   6.410   6.837
18468SOL     OW57236   7.827   5.462   9.044
18468SOL    HW157237   7.833   5.510   9.126
18468SOL    HW257238   7.814   5.371   9.069
18469SOL     OW57239  10.494  13.392  13.061
18469SOL    HW157240  10.438  13.363  12.989
18469SOL    HW257241  10.549  13.316  13.080
18470SOL     OW57242   5.975   3.064   3.257
18470SOL    HW157243   5.940   3.150   3.281
18470SOL    HW257244   5.980   3.067   3.161
18471SOL     OW57245  10.220   2.413   3.538
18471SOL    HW157246  10.235   2.327   3.499
18471SOL    HW257247  10.198   2.395   3.630
18472SOL     OW57248   9.596   0.969   3.155
18472SOL    HW157249   9.570   0.907   3.087
18472SOL    HW257250   9.665   0.924   3.204
18473SOL     OW57251   9.838   0.056   8.186
18473SOL    HW157252   9.834   0.076   8.093
18473SOL    HW257253   9.773   0.114   8.226
18474SOL     OW57254  11.721  10.436   7.742
18474SOL    HW157255  11.754  10.414   7.655
18474SOL    HW257256  11.648  10.495   7.726
18475SOL     OW57257   4.889  10.125  10.142
18475SOL    HW157258   4.946  10.155  10.213
18475SOL    HW257259   4.916  10.176  10.066
18476SOL     OW57260   9.197   5.422   1.233
18476SOL    HW157261   9.157   5.472   1.162
18476SOL    HW257262   9.284   5.458   1.243
18477SOL     OW57263  14.225   2.531   2.841
18477SOL    HW157264  14.241   2.623   2.820
18477SOL    HW257265  14.288   2.484   2.786
18478SOL     OW57266   0.400  11.898   0.917
18478SOL    HW157267   0.348  11.885   0.996
18478SOL    HW257268   0.336  11.915   0.848
18479SOL     OW57269   7.265   4.341   8.787
18479SOL    HW157270   7.272   4.324   8.881
18479SOL    HW257271   7.232   4.431   8.781
18480SOL     OW57272  14.276   9.520   8.775
18480SOL    HW157273  14.327   9.545   8.852
18480SOL    HW257274  14.186   9.540   8.797
18481SOL     OW57275  12.906   2.273  12.844
18481SOL    HW157276  13.001   2.278  12.855
18481SOL    HW257277  12.894   2.205  12.778
18482SOL     OW57278   7.824   0.128   7.281
18482SOL    HW157279   7.896   0.108   7.340
18482SOL    HW257280   7.782   0.205   7.320
18483SOL     OW57281   2.365  12.638   6.901
18483SOL    HW157282   2.446  12.678   6.868
18483SOL    HW257283   2.342  12.689   6.978
18484SOL     OW57284   1.921  10.517   0.372
18484SOL    HW157285   1.854  10.451   0.357
18484SOL    HW257286   2.002  10.477   0.339
18485SOL     OW57287   9.954  10.893   1.682
18485SOL    HW157288  10.014  10.958   1.719
18485SOL    HW257289   9.907  10.858   1.757
18486SOL     OW57290   2.305  11.821   3.051
18486SOL    HW157291   2.280  11.856   3.137
18486SOL    HW257292   2.241  11.753   3.034
18487SOL     OW57293   7.719   5.216   4.711
18487SOL    HW157294   7.666   5.251   4.783
18487SOL    HW257295   7.774   5.289   4.684
18488SOL     OW57296   0.719  10.777   9.841
18488SOL    HW157297   0.694  10.791   9.749
18488SOL    HW257298   0.724  10.866   9.877
18489SOL     OW57299  11.753   2.476   4.825
18489SOL    HW157300  11.685   2.460   4.759
18489SOL    HW257301  11.780   2.566   4.810
18490SOL     OW57302   7.943   6.662   0.715
18490SOL    HW157303   7.945   6.611   0.796
18490SOL    HW257304   7.909   6.601   0.649
18491SOL     OW57305   7.293  12.666   9.171
18491SOL    HW157306   7.250  12.602   9.229
18491SOL    HW257307   7.373  12.690   9.218
18492SOL     OW57308   6.037  12.078  10.414
18492SOL    HW157309   5.982  12.097  10.490
18492SOL    HW257310   6.103  12.017  10.446
18493SOL     OW57311  13.422  11.214   8.825
18493SOL    HW157312  13.449  11.306   8.820
18493SOL    HW257313  13.493  11.166   8.782
18494SOL     OW57314  10.346   4.169  11.548
18494SOL    HW157315  10.270   4.168  11.606
18494SOL    HW257316  10.360   4.262  11.529
18495SOL     OW57317   2.204  10.975  12.696
18495SOL    HW157318   2.157  10.972  12.780
18495SOL    HW257319   2.277  10.914  12.708
18496SOL     OW57320  12.463   3.249   4.770
18496SOL    HW157321  12.518   3.315   4.727
18496SOL    HW257322  12.519   3.171   4.776
18497SOL     OW57323  10.044   1.417   0.262
18497SOL    HW157324  10.005   1.426   0.175
18497SOL    HW257325  10.006   1.336   0.297
18498SOL     OW57326  10.886   2.957   1.763
18498SOL    HW157327  10.943   3.032   1.746
18498SOL    HW257328  10.935   2.882   1.728
18499SOL     OW57329   1.507   7.840  12.619
18499SOL    HW157330   1.432   7.850  12.678
18499SOL    HW257331   1.483   7.890  12.541
18500SOL     OW57332   3.701   4.369  11.261
18500SOL    HW157333   3.749   4.328  11.333
18500SOL    HW257334   3.631   4.417  11.303
18501SOL     OW57335  11.465  11.843   9.831
18501SOL    HW157336  11.493  11.752   9.819
18501SOL    HW257337  11.538  11.895   9.799
18502SOL     OW57338   0.459  14.083  10.069
18502SOL    HW157339   0.550  14.090  10.039
18502SOL    HW257340   0.408  14.082   9.989
18503SOL     OW57341  13.276  10.964   0.797
18503SOL    HW157342  13.253  10.945   0.707
18503SOL    HW257343  13.210  10.919   0.849
18504SOL     OW57344  11.889   7.242   3.114
18504SOL    HW157345  11.864   7.330   3.086
18504SOL    HW257346  11.877   7.187   3.036
18505SOL     OW57347   4.889   5.093   6.995
18505SOL    HW157348   4.813   5.127   6.949
18505SOL    HW257349   4.880   4.998   6.988
18506SOL     OW57350  10.386  13.440   1.346
18506SOL    HW157351  10.312  13.451   1.405
18506SOL    HW257352  10.351  13.392   1.271
18507SOL     OW57353  12.923   9.913  11.726
18507SOL    HW157354  12.846   9.940  11.677
18507SOL    HW257355  12.965   9.848  11.670
18508SOL     OW57356  14.148  14.130  12.783
18508SOL    HW157357  14.164  14.127  12.877
18508SOL    HW257358  14.220  14.183  12.748
18509SOL     OW57359   3.762   9.856   7.783
18509SOL    HW157360   3.846   9.854   7.737
18509SOL    HW257361   3.780   9.811   7.866
18510SOL     OW57362   0.842   9.576  13.409
18510SOL    HW157363   0.793   9.509  13.457
18510SOL    HW257364   0.810   9.570  13.319
18511SOL     OW57365   9.902   0.162   0.496
18511SOL    HW157366   9.975   0.212   0.460
18511SOL    HW257367   9.944   0.095   0.550
18512SOL     OW57368   4.380   4.381   1.318
18512SOL    HW157369   4.438   4.454   1.339
18512SOL    HW257370   4.412   4.348   1.234
18513SOL     OW57371   8.488   2.464  11.364
18513SOL    HW157372   8.481   2.397  11.296
18513SOL    HW257373   8.459   2.545  11.322
18514SOL     OW57374   6.546   4.907   6.864
18514SOL    HW157375   6.609   4.854   6.814
18514SOL    HW257376   6.583   4.912   6.952
18515SOL     OW57377  13.433  11.510  12.267
18515SOL    HW157378  13.362  11.506  12.203
18515SOL    HW257379  13.496  11.445  12.237
18516SOL     OW57380   5.625  13.179  14.438
18516SOL    HW157381   5.598  13.155  14.526
18516SOL    HW257382   5.629  13.097  14.390
18517SOL     OW57383   2.495   9.303   9.974
18517SOL    HW157384   2.526   9.346   9.895
18517SOL    HW257385   2.478   9.213   9.948
18518SOL     OW57386   7.425   5.391   9.978
18518SOL    HW157387   7.469   5.311   9.949
18518SOL    HW257388   7.449   5.456   9.912
18519SOL     OW57389  10.710  12.815  13.511
18519SOL    HW157390  10.803  12.790  13.508
18519SOL    HW257391  10.663  12.732  13.512
18520SOL     OW57392   1.050   5.496   8.787
18520SOL    HW157393   1.029   5.587   8.810
18520SOL    HW257394   1.146   5.493   8.788
18521SOL     OW57395   3.848   7.390   0.769
18521SOL    HW157396   3.936   7.376   0.734
18521SOL    HW257397   3.861   7.444   0.847
18522SOL     OW57398   7.322  14.650  14.404
18522SOL    HW157399   7.273  14.568  14.400
18522SOL    HW257400   7.411  14.624  14.428
18523SOL     OW57401  11.008  12.934   7.970
18523SOL    HW157402  11.045  12.851   7.938
18523SOL    HW257403  11.006  12.990   7.893
18524SOL     OW57404  14.164   5.921   5.897
18524SOL    HW157405  14.149   6.001   5.947
18524SOL    HW257406  14.111   5.932   5.818
18525SOL     OW57407   9.540   1.163   0.454
18525SOL    HW157408   9.472   1.227   0.432
18525SOL    HW257409   9.615   1.215   0.481
18526SOL     OW57410  14.719   5.720   7.448
18526SOL    HW157411  14.743   5.780   7.519
18526SOL    HW257412  14.682   5.644   7.493
18527SOL     OW57413   3.102   9.166  12.614
18527SOL    HW157414   3.086   9.258  12.595
18527SOL    HW257415   3.185   9.147  12.571
18528SOL     OW57416   0.296  12.603  10.653
18528SOL    HW157417   0.389  12.589  10.638
18528SOL    HW257418   0.268  12.658  10.580
18529SOL     OW57419   4.731  13.078  13.548
18529SOL    HW157420   4.821  13.088  13.580
18529SOL    HW257421   4.740  13.024  13.470
18530SOL     OW57422   4.156   8.569  13.931
18530SOL    HW157423   4.061   8.561  13.934
18530SOL    HW257424   4.185   8.551  14.020
18531SOL     OW57425   7.567   0.541   6.846
18531SOL    HW157426   7.511   0.618   6.837
18531SOL    HW257427   7.644   0.573   6.893
18532SOL     OW57428  11.605   6.550  10.857
18532SOL    HW157429  11.535   6.564  10.921
18532SOL    HW257430  11.682   6.527  10.910
18533SOL     OW57431  12.831   8.134  14.826
18533SOL    HW157432  12.889   8.200  14.791
18533SOL    HW257433  12.803   8.083  14.749
18534SOL     OW57434   1.208   4.249   3.463
18534SOL    HW157435   1.209   4.276   3.371
18534SOL    HW257436   1.255   4.166   3.464
18535SOL     OW57437  12.548   5.702   1.289
18535SOL    HW157438  12.524   5.794   1.301
18535SOL    HW257439  12.643   5.701   1.297
18536SOL     OW57440  13.546   1.854  12.673
18536SOL    HW157441  13.614   1.870  12.607
18536SOL    HW257442  13.568   1.769  12.710
18537SOL     OW57443  12.857   2.352   2.214
18537SOL    HW157444  12.900   2.412   2.273
18537SOL    HW257445  12.766   2.382   2.209
18538SOL     OW57446   6.263   7.796   5.407
18538SOL    HW157447   6.174   7.766   5.427
18538SOL    HW257448   6.291   7.841   5.487
18539SOL     OW57449  14.109   7.759   3.721
18539SOL    HW157450  14.164   7.681   3.716
18539SOL    HW257451  14.159   7.821   3.774
18540SOL     OW57452   0.494   0.612   4.128
18540SOL    HW157453   0.447   0.633   4.208
18540SOL    HW257454   0.557   0.683   4.119
18541SOL     OW57455   2.606   2.372   0.053
18541SOL    HW157456   2.677   2.313   0.030
18541SOL    HW257457   2.527   2.325   0.026
18542SOL     OW57458  10.319   0.096   9.585
18542SOL    HW157459  10.297   0.161   9.652
18542SOL    HW257460  10.400   0.129   9.545
18543SOL     OW57461   6.876  10.205   4.132
18543SOL    HW157462   6.928  10.126   4.116
18543SOL    HW257463   6.941  10.273   4.148
18544SOL     OW57464   7.900   4.047   0.246
18544SOL    HW157465   7.895   4.039   0.341
18544SOL    HW257466   7.819   4.093   0.222
18545SOL     OW57467   6.698   3.829  11.879
18545SOL    HW157468   6.627   3.885  11.850
18545SOL    HW257469   6.655   3.751  11.914
18546SOL     OW57470  10.421   7.153   4.125
18546SOL    HW157471  10.478   7.180   4.053
18546SOL    HW257472  10.337   7.195   4.106
18547SOL     OW57473   3.289  10.958   7.380
18547SOL    HW157474   3.251  10.874   7.406
18547SOL    HW257475   3.361  10.972   7.441
18548SOL     OW57476   1.738  10.285   7.304
18548SOL    HW157477   1.821  10.323   7.277
18548SOL    HW257478   1.755  10.191   7.310
18549SOL     OW57479   6.396  13.477   2.992
18549SOL    HW157480   6.314  13.430   3.005
18549SOL    HW257481   6.463  13.415   3.022
18550SOL     OW57482  13.692  10.905   8.990
18550SOL    HW157483  13.617  10.944   9.034
18550SOL    HW257484  13.669  10.906   8.897
18551SOL     OW57485   4.133   3.629   3.919
18551SOL    HW157486   4.157   3.717   3.892
18551SOL    HW257487   4.179   3.572   3.857
18552SOL     OW57488   7.263  14.056  10.693
18552SOL    HW157489   7.188  13.997  10.695
18552SOL    HW257490   7.300  14.043  10.605
18553SOL     OW57491  12.224  12.007  14.190
18553SOL    HW157492  12.178  12.047  14.265
18553SOL    HW257493  12.314  11.997  14.220
18554SOL     OW57494   6.510   3.952  12.379
18554SOL    HW157495   6.527   3.868  12.420
18554SOL    HW257496   6.415   3.953  12.364
18555SOL     OW57497  14.516  10.756   9.915
18555SOL    HW157498  14.487  10.847   9.911
18555SOL    HW257499  14.480  10.722   9.997
18556SOL     OW57500   5.794   6.124  10.253
18556SOL    HW157501   5.711   6.086  10.281
18556SOL    HW257502   5.771   6.183  10.182
18557SOL     OW57503   0.732   6.459   2.500
18557SOL    HW157504   0.797   6.389   2.492
18557SOL    HW257505   0.783   6.535   2.527
18558SOL     OW57506   5.390  12.454   0.989
18558SOL    HW157507   5.422  12.367   0.964
18558SOL    HW257508   5.416  12.463   1.081
18559SOL     OW57509  13.663  12.673   0.593
18559SOL    HW157510  13.638  12.627   0.673
18559SOL    HW257511  13.587  12.664   0.536
18560SOL     OW57512   3.742  10.789   7.643
18560SOL    HW157513   3.812  10.849   7.667
18560SOL    HW257514   3.785  10.725   7.586
18561SOL     OW57515   5.249   0.436   1.181
18561SOL    HW157516   5.335   0.461   1.149
18561SOL    HW257517   5.226   0.502   1.246
18562SOL     OW57518   6.634   7.399  12.147
18562SOL    HW157519   6.604   7.350  12.224
18562SOL    HW257520   6.620   7.339  12.074
18563SOL     OW57521   1.564   2.495  11.812
18563SOL    HW157522   1.532   2.408  11.789
18563SOL    HW257523   1.491   2.553  11.790
18564SOL     OW57524   5.530  14.643   3.288
18564SOL    HW157525   5.586  14.567   3.302
18564SOL    HW257526   5.548  14.669   3.197
18565SOL     OW57527   4.376   1.166   6.510
18565SOL    HW157528   4.285   1.136   6.506
18565SOL    HW257529   4.379   1.241   6.451
18566SOL     OW57530   5.370   6.004   5.442
18566SOL    HW157531   5.396   5.916   5.467
18566SOL    HW257532   5.314   6.035   5.514
18567SOL     OW57533  14.379  14.123   5.144
18567SOL    HW157534  14.468  14.117   5.111
18567SOL    HW257535  14.324  14.122   5.065
18568SOL     OW57536  13.475   5.771  10.339
18568SOL    HW157537  13.521   5.851  10.313
18568SOL    HW257538  13.407   5.760  10.273
18569SOL     OW57539   7.961  13.023   2.513
18569SOL    HW157540   7.990  12.992   2.427
18569SOL    HW257541   8.041  13.028   2.565
18570SOL     OW57542   4.344   0.803   7.352
18570SOL    HW157543   4.311   0.722   7.390
18570SOL    HW257544   4.406   0.836   7.418
18571SOL     OW57545   5.393  11.707   9.997
18571SOL    HW157546   5.374  11.637  10.060
18571SOL    HW257547   5.316  11.710   9.940
18572SOL     OW57548   9.911  10.077  14.466
18572SOL    HW157549   9.968  10.000  14.462
18572SOL    HW257550   9.969  10.148  14.492
18573SOL     OW57551   8.303  12.716   5.499
18573SOL    HW157552   8.324  12.795   5.548
18573SOL    HW257553   8.310  12.645   5.563
18574SOL     OW57554   6.596   0.010   0.208
18574SOL    HW157555   6.667   0.003   0.272
18574SOL    HW257556   6.641   0.017   0.123
18575SOL     OW57557  14.162  14.240  11.418
18575SOL    HW157558  14.106  14.188  11.360
18575SOL    HW257559  14.244  14.191  11.423
18576SOL     OW57560   1.344  14.225  13.155
18576SOL    HW157561   1.371  14.170  13.228
18576SOL    HW257562   1.305  14.302  13.196
18577SOL     OW57563   2.909  14.779   0.800
18577SOL    HW157564   2.917  14.795   0.894
18577SOL    HW257565   2.947  14.857   0.759
18578SOL     OW57566  13.996   8.519   4.709
18578SOL    HW157567  13.929   8.556   4.652
18578SOL    HW257568  14.037   8.596   4.749
18579SOL     OW57569  14.635  10.870   9.579
18579SOL    HW157570  14.720  10.834   9.556
18579SOL    HW257571  14.575  10.795   9.573
18580SOL     OW57572   9.905  13.549   8.844
18580SOL    HW157573   9.991  13.507   8.838
18580SOL    HW257574   9.876  13.559   8.753
18581SOL     OW57575   9.476   2.665  11.487
18581SOL    HW157576   9.453   2.700  11.401
18581SOL    HW257577   9.525   2.736  11.529
18582SOL     OW57578   7.044   3.708   6.287
18582SOL    HW157579   7.082   3.770   6.225
18582SOL    HW257580   6.960   3.746   6.312
18583SOL     OW57581  14.667   2.467   4.154
18583SOL    HW157582  14.717   2.467   4.072
18583SOL    HW257583  14.700   2.392   4.203
18584SOL     OW57584   8.422  13.065  13.339
18584SOL    HW157585   8.358  13.032  13.403
18584SOL    HW257586   8.379  13.141  13.299
18585SOL     OW57587  10.167   9.107   6.400
18585SOL    HW157588  10.122   9.192   6.400
18585SOL    HW257589  10.116   9.052   6.459
18586SOL     OW57590  12.692  14.551   4.464
18586SOL    HW157591  12.778  14.591   4.478
18586SOL    HW257592  12.629  14.622   4.477
18587SOL     OW57593   1.050  14.804  14.329
18587SOL    HW157594   0.972  14.749  14.321
18587SOL    HW257595   1.069  14.807  14.422
18588SOL     OW57596   0.181   5.525   1.419
18588SOL    HW157597   0.267   5.539   1.459
18588SOL    HW257598   0.199   5.509   1.327
18589SOL     OW57599   9.184   2.098   0.773
18589SOL    HW157600   9.279   2.095   0.772
18589SOL    HW257601   9.159   2.059   0.857
18590SOL     OW57602  11.698   2.721   1.376
18590SOL    HW157603  11.623   2.752   1.427
18590SOL    HW257604  11.663   2.705   1.289
18591SOL     OW57605   5.085  12.073   0.697
18591SOL    HW157606   5.024  12.069   0.771
18591SOL    HW257607   5.147  12.002   0.714
18592SOL     OW57608   3.978   7.464   2.103
18592SOL    HW157609   3.958   7.551   2.067
18592SOL    HW257610   3.970   7.475   2.198
18593SOL     OW57611  13.595  11.032   9.387
18593SOL    HW157612  13.599  10.967   9.316
18593SOL    HW257613  13.512  11.076   9.373
18594SOL     OW57614   1.166   0.716  10.442
18594SOL    HW157615   1.089   0.705  10.387
18594SOL    HW257616   1.147   0.667  10.521
18595SOL     OW57617   4.044   7.421   8.066
18595SOL    HW157618   4.115   7.464   8.114
18595SOL    HW257619   4.088   7.352   8.016
18596SOL     OW57620   4.987  12.848   7.433
18596SOL    HW157621   4.943  12.779   7.482
18596SOL    HW257622   5.076  12.815   7.421
18597SOL     OW57623   9.368  11.287   9.697
18597SOL    HW157624   9.447  11.263   9.745
18597SOL    HW257625   9.376  11.242   9.613
18598SOL     OW57626   5.797   1.238   3.576
18598SOL    HW157627   5.791   1.267   3.485
18598SOL    HW257628   5.748   1.155   3.577
18599SOL     OW57629   7.888   2.965  14.409
18599SOL    HW157630   7.895   3.015  14.328
18599SOL    HW257631   7.887   3.030  14.478
18600SOL     OW57632  10.486   2.734  14.311
18600SOL    HW157633  10.569   2.687  14.300
18600SOL    HW257634  10.505   2.801  14.377
18601SOL     OW57635   3.347   2.063   3.067
18601SOL    HW157636   3.312   2.080   2.980
18601SOL    HW257637   3.429   2.113   3.070
18602SOL     OW57638  12.873   9.970   7.481
18602SOL    HW157639  12.844   9.966   7.390
18602SOL    HW257640  12.951   9.914   7.484
18603SOL     OW57641   0.965  10.699  14.123
18603SOL    HW157642   0.884  10.723  14.078
18603SOL    HW257643   1.034  10.712  14.057
18604SOL     OW57644   0.671  14.043   4.005
18604SOL    HW157645   0.717  13.987   4.067
18604SOL    HW257646   0.734  14.057   3.934
18605SOL     OW57647   1.869  10.901   1.584
18605SOL    HW157648   1.888  10.817   1.541
18605SOL    HW257649   1.885  10.885   1.677
18606SOL     OW57650   2.909   1.068   6.165
18606SOL    HW157651   2.955   1.055   6.082
18606SOL    HW257652   2.869   0.983   6.184
18607SOL     OW57653   5.324   8.648   0.774
18607SOL    HW157654   5.414   8.668   0.799
18607SOL    HW257655   5.312   8.556   0.798
18608SOL     OW57656  12.914   5.790   6.006
18608SOL    HW157657  12.932   5.805   5.913
18608SOL    HW257658  13.001   5.779   6.045
18609SOL     OW57659  10.696   7.238   8.177
18609SOL    HW157660  10.732   7.324   8.155
18609SOL    HW257661  10.603   7.253   8.190
18610SOL     OW57662  14.632  10.700  13.786
18610SOL    HW157663  14.727  10.708  13.788
18610SOL    HW257664  14.613  10.631  13.849
18611SOL     OW57665   9.635   1.540   4.051
18611SOL    HW157666   9.597   1.552   3.964
18611SOL    HW257667   9.592   1.461   4.085
18612SOL     OW57668   5.561   0.371   3.389
18612SOL    HW157669   5.624   0.300   3.397
18612SOL    HW257670   5.604   0.436   3.334
18613SOL     OW57671   3.955   2.791   1.244
18613SOL    HW157672   4.025   2.769   1.184
18613SOL    HW257673   3.875   2.787   1.191
18614SOL     OW57674   5.429   2.394  12.946
18614SOL    HW157675   5.472   2.331  13.003
18614SOL    HW257676   5.356   2.346  12.908
18615SOL     OW57677   9.034  12.794   3.302
18615SOL    HW157678   9.129  12.796   3.312
18615SOL    HW257679   9.008  12.707   3.332
18616SOL     OW57680   2.665   0.216   8.512
18616SOL    HW157681   2.617   0.291   8.478
18616SOL    HW257682   2.597   0.158   8.546
18617SOL     OW57683   2.576   9.650   8.895
18617SOL    HW157684   2.619   9.705   8.830
18617SOL    HW257685   2.604   9.686   8.979
18618SOL     OW57686  10.617   2.500  11.039
18618SOL    HW157687  10.538   2.551  11.024
18618SOL    HW257688  10.689   2.558  11.016
18619SOL     OW57689   9.090  11.376   8.246
18619SOL    HW157690   9.177  11.387   8.207
18619SOL    HW257691   9.091  11.287   8.283
18620SOL     OW57692   0.881   9.431  11.223
18620SOL    HW157693   0.903   9.511  11.176
18620SOL    HW257694   0.786   9.421  11.211
18621SOL     OW57695   9.489   1.274   9.258
18621SOL    HW157696   9.474   1.272   9.164
18621SOL    HW257697   9.402   1.282   9.296
18622SOL     OW57698  13.668  11.946   4.818
18622SOL    HW157699  13.734  11.887   4.854
18622SOL    HW257700  13.633  11.992   4.894
18623SOL     OW57701  13.557  10.197   4.348
18623SOL    HW157702  13.520  10.176   4.434
18623SOL    HW257703  13.543  10.118   4.296
18624SOL     OW57704  14.652   6.181   9.063
18624SOL    HW157705  14.602   6.231   9.128
18624SOL    HW257706  14.693   6.248   9.007
18625SOL     OW57707   5.654   4.444   3.747
18625SOL    HW157708   5.749   4.452   3.733
18625SOL    HW257709   5.620   4.531   3.727
18626SOL     OW57710   1.234   5.267   1.710
18626SOL    HW157711   1.311   5.211   1.722
18626SOL    HW257712   1.220   5.269   1.615
18627SOL     OW57713  14.285   0.808  12.636
18627SOL    HW157714  14.360   0.866  12.623
18627SOL    HW257715  14.241   0.807  12.551
18628SOL     OW57716  13.615  10.834   2.349
18628SOL    HW157717  13.620  10.888   2.270
18628SOL    HW257718  13.524  10.806   2.354
18629SOL     OW57719   0.537   6.184   0.010
18629SOL    HW157720   0.516   6.092   0.030
18629SOL    HW257721   0.558   6.222   0.095
18630SOL     OW57722  13.138   3.996   9.977
18630SOL    HW157723  13.198   4.051   9.927
18630SOL    HW257724  13.187   3.916   9.995
18631SOL     OW57725   3.205   6.719   2.688
18631SOL    HW157726   3.150   6.744   2.763
18631SOL    HW257727   3.233   6.802   2.650
18632SOL     OW57728   1.129   5.396   5.635
18632SOL    HW157729   1.111   5.462   5.568
18632SOL    HW257730   1.114   5.440   5.718
18633SOL     OW57731  12.752   0.028   6.388
18633SOL    HW157732  12.844   0.006   6.403
18633SOL    HW257733  12.709   0.006   6.471
18634SOL     OW57734  10.773   4.009   6.052
18634SOL    HW157735  10.771   4.020   6.147
18634SOL    HW257736  10.836   4.074   6.021
18635SOL     OW57737   1.920   6.558  11.863
18635SOL    HW157738   1.876   6.472  11.863
18635SOL    HW257739   1.930   6.579  11.770
18636SOL     OW57740   6.256  10.829   7.711
18636SOL    HW157741   6.292  10.756   7.762
18636SOL    HW257742   6.196  10.873   7.771
18637SOL     OW57743   2.445   6.494   1.343
18637SOL    HW157744   2.461   6.512   1.250
18637SOL    HW257745   2.499   6.559   1.389
18638SOL     OW57746   5.876   9.540  11.912
18638SOL    HW157747   5.885   9.446  11.927
18638SOL    HW257748   5.783   9.557  11.922
18639SOL     OW57749  11.039   7.874  10.606
18639SOL    HW157750  10.948   7.904  10.615
18639SOL    HW257751  11.076   7.883  10.694
18640SOL     OW57752   9.718   3.634   9.535
18640SOL    HW157753   9.672   3.617   9.617
18640SOL    HW257754   9.811   3.621   9.556
18641SOL     OW57755   4.958  11.112   2.709
18641SOL    HW157756   4.934  11.195   2.751
18641SOL    HW257757   4.973  11.052   2.782
18642SOL     OW57758  10.871   6.142   7.913
18642SOL    HW157759  10.849   6.235   7.918
18642SOL    HW257760  10.796   6.101   7.869
18643SOL     OW57761   9.177   7.066   0.453
18643SOL    HW157762   9.194   7.135   0.388
18643SOL    HW257763   9.120   7.108   0.517
18644SOL     OW57764  10.044  13.016   3.302
18644SOL    HW157765  10.068  13.103   3.272
18644SOL    HW257766  10.059  12.959   3.227
18645SOL     OW57767   2.111   9.068   8.614
18645SOL    HW157768   2.090   9.034   8.701
18645SOL    HW257769   2.050   9.141   8.601
18646SOL     OW57770   0.365   8.984   2.780
18646SOL    HW157771   0.298   8.918   2.765
18646SOL    HW257772   0.335   9.031   2.858
18647SOL     OW57773  12.473   3.945   1.641
18647SOL    HW157774  12.457   4.032   1.605
18647SOL    HW257775  12.485   3.960   1.735
18648SOL     OW57776   9.205  14.849   4.207
18648SOL    HW157777   9.171   0.003   4.124
18648SOL    HW257778   9.201  14.753   4.198
18649SOL     OW57779   8.653   9.268   8.055
18649SOL    HW157780   8.607   9.327   7.995
18649SOL    HW257781   8.659   9.186   8.006
18650SOL     OW57782  11.538   8.870   7.526
18650SOL    HW157783  11.556   8.934   7.595
18650SOL    HW257784  11.575   8.909   7.447
18651SOL     OW57785   3.126   4.422  10.685
18651SOL    HW157786   3.087   4.398  10.769
18651SOL    HW257787   3.052   4.450  10.631
18652SOL     OW57788  11.597   6.727   4.352
18652SOL    HW157789  11.543   6.799   4.319
18652SOL    HW257790  11.557   6.648   4.317
18653SOL     OW57791   3.175   0.395  10.403
18653SOL    HW157792   3.243   0.328  10.395
18653SOL    HW257793   3.222   0.475  10.426
18654SOL     OW57794   8.953   6.971   9.573
18654SOL    HW157795   8.973   7.014   9.656
18654SOL    HW257796   8.858   6.959   9.573
18655SOL     OW57797   2.556   4.037   7.937
18655SOL    HW157798   2.629   4.085   7.977
18655SOL    HW257799   2.478   4.073   7.980
18656SOL     OW57800   4.643   1.766   0.561
18656SOL    HW157801   4.581   1.693   0.555
18656SOL    HW257802   4.728   1.723   0.571
18657SOL     OW57803   1.875   9.268   0.794
18657SOL    HW157804   1.961   9.271   0.836
18657SOL    HW257805   1.891   9.227   0.709
18658SOL     OW57806  14.148  12.940  10.887
18658SOL    HW157807  14.133  13.018  10.940
18658SOL    HW257808  14.185  12.876  10.948
18659SOL     OW57809   0.482  10.531  13.516
18659SOL    HW157810   0.438  10.448  13.536
18659SOL    HW257811   0.575  10.507  13.509
18660SOL     OW57812   1.292   2.321   5.666
18660SOL    HW157813   1.331   2.392   5.615
18660SOL    HW257814   1.240   2.271   5.603
18661SOL     OW57815   4.025   5.250  14.855
18661SOL    HW157816   3.994   5.274   0.063
18661SOL    HW257817   4.019   5.155  14.853
18662SOL     OW57818  12.108   3.407   8.990
18662SOL    HW157819  12.069   3.380   9.074
18662SOL    HW257820  12.166   3.479   9.013
18663SOL     OW57821   5.616   1.057   9.732
18663SOL    HW157822   5.638   1.021   9.647
18663SOL    HW257823   5.687   1.029   9.790
18664SOL     OW57824   0.766  10.774  12.258
18664SOL    HW157825   0.728  10.849  12.213
18664SOL    HW257826   0.692  10.716  12.275
18665SOL     OW57827  11.975  10.668   1.306
18665SOL    HW157828  12.032  10.682   1.230
18665SOL    HW257829  12.002  10.734   1.369
18666SOL     OW57830  10.899  10.855   4.335
18666SOL    HW157831  10.840  10.824   4.403
18666SOL    HW257832  10.850  10.844   4.254
18667SOL     OW57833   6.749   7.748  11.190
18667SOL    HW157834   6.843   7.760  11.204
18667SOL    HW257835   6.739   7.747  11.095
18668SOL     OW57836  10.646  10.193  12.632
18668SOL    HW157837  10.589  10.117  12.632
18668SOL    HW257838  10.702  10.182  12.708
18669SOL     OW57839  13.367   2.074  11.930
18669SOL    HW157840  13.298   2.015  11.901
18669SOL    HW257841  13.418   2.024  11.993
18670SOL     OW57842   3.856   2.660  12.254
18670SOL    HW157843   3.921   2.714  12.299
18670SOL    HW257844   3.791   2.641  12.321
18671SOL     OW57845   5.068   8.904   1.367
18671SOL    HW157846   5.031   8.883   1.281
18671SOL    HW257847   5.021   8.982   1.395
18672SOL     OW57848  11.546   1.181   6.805
18672SOL    HW157849  11.466   1.134   6.826
18672SOL    HW257850  11.579   1.212   6.890
18673SOL     OW57851   1.536  12.245   4.088
18673SOL    HW157852   1.581  12.162   4.107
18673SOL    HW257853   1.509  12.277   4.174
18674SOL     OW57854   3.306   6.834   0.236
18674SOL    HW157855   3.213   6.857   0.240
18674SOL    HW257856   3.306   6.742   0.212
18675SOL     OW57857  10.940   1.130  12.147
18675SOL    HW157858  10.927   1.045  12.190
18675SOL    HW257859  10.851   1.163  12.132
18676SOL     OW57860   6.480   2.360   9.653
18676SOL    HW157861   6.415   2.307   9.606
18676SOL    HW257862   6.472   2.333   9.744
18677SOL     OW57863   9.497  12.843   7.095
18677SOL    HW157864   9.435  12.897   7.144
18677SOL    HW257865   9.517  12.771   7.154
18678SOL     OW57866  12.238   9.496   6.150
18678SOL    HW157867  12.149   9.489   6.185
18678SOL    HW257868  12.289   9.433   6.202
18679SOL     OW57869  12.950   7.598   1.413
18679SOL    HW157870  12.987   7.661   1.352
18679SOL    HW257871  12.952   7.514   1.366
18680SOL     OW57872   7.525   5.255  14.044
18680SOL    HW157873   7.514   5.278  13.952
18680SOL    HW257874   7.447   5.203  14.065
18681SOL     OW57875  10.605   5.796  14.825
18681SOL    HW157876  10.543   5.854  14.869
18681SOL    HW257877  10.679   5.852  14.804
18682SOL     OW57878   7.383   7.942  10.755
18682SOL    HW157879   7.471   7.976  10.740
18682SOL    HW257880   7.366   7.958  10.848
18683SOL     OW57881   3.088   3.299   7.029
18683SOL    HW157882   3.059   3.208   7.016
18683SOL    HW257883   3.182   3.293   7.046
18684SOL     OW57884   3.023  13.944   0.481
18684SOL    HW157885   3.044  13.871   0.421
18684SOL    HW257886   2.936  13.924   0.514
18685SOL     OW57887  11.789  14.702   1.211
18685SOL    HW157888  11.850  14.714   1.138
18685SOL    HW257889  11.710  14.667   1.171
18686SOL     OW57890   7.093   7.562   7.400
18686SOL    HW157891   7.122   7.510   7.325
18686SOL    HW257892   7.001   7.538   7.411
18687SOL     OW57893  13.491   3.633   6.739
18687SOL    HW157894  13.543   3.568   6.691
18687SOL    HW257895  13.544   3.713   6.734
18688SOL     OW57896   1.509  13.784   6.202
18688SOL    HW157897   1.430  13.734   6.182
18688SOL    HW257898   1.560  13.727   6.259
18689SOL     OW57899   3.396  14.274  12.173
18689SOL    HW157900   3.323  14.283  12.112
18689SOL    HW257901   3.358  14.233  12.251
18690SOL     OW57902  11.078  11.629   8.690
18690SOL    HW157903  11.021  11.556   8.666
18690SOL    HW257904  11.060  11.697   8.625
18691SOL     OW57905   0.974   2.873  11.735
18691SOL    HW157906   1.026   2.845  11.810
18691SOL    HW257907   0.895   2.820  11.739
18692SOL     OW57908   8.365   1.811   3.064
18692SOL    HW157909   8.371   1.717   3.051
18692SOL    HW257910   8.322   1.844   2.985
18693SOL     OW57911  14.283  10.041   9.134
18693SOL    HW157912  14.304  10.121   9.085
18693SOL    HW257913  14.268  10.072   9.223
18694SOL     OW57914   1.789   1.824  11.953
18694SOL    HW157915   1.783   1.916  11.926
18694SOL    HW257916   1.878   1.798  11.929
18695SOL     OW57917  14.478   1.584   9.387
18695SOL    HW157918  14.422   1.644   9.436
18695SOL    HW257919  14.424   1.506   9.374
18696SOL     OW57920   5.130   2.521   9.094
18696SOL    HW157921   5.049   2.477   9.119
18696SOL    HW257922   5.143   2.497   9.002
18697SOL     OW57923  11.127  13.171   2.909
18697SOL    HW157924  11.177  13.148   2.831
18697SOL    HW257925  11.193  13.183   2.978
18698SOL     OW57926   7.530  14.739   0.488
18698SOL    HW157927   7.588  14.813   0.507
18698SOL    HW257928   7.455  14.778   0.443
18699SOL     OW57929   2.716  14.774  10.091
18699SOL    HW157930   2.731  14.775   9.997
18699SOL    HW257931   2.679  14.860  10.110
18700SOL     OW57932   1.323  10.799  10.361
18700SOL    HW157933   1.325  10.728  10.296
18700SOL    HW257934   1.364  10.761  10.438
18701SOL     OW57935   6.526   2.840  10.026
18701SOL    HW157936   6.536   2.770   9.962
18701SOL    HW257937   6.452   2.813  10.080
18702SOL     OW57938   2.249   6.399   5.220
18702SOL    HW157939   2.198   6.424   5.142
18702SOL    HW257940   2.262   6.304   5.211
18703SOL     OW57941  11.250   5.118   8.046
18703SOL    HW157942  11.184   5.157   8.103
18703SOL    HW257943  11.309   5.190   8.025
18704SOL     OW57944   9.915  12.196  10.671
18704SOL    HW157945   9.914  12.111  10.716
18704SOL    HW257946  10.004  12.229  10.684
18705SOL     OW57947   9.444  10.637   8.791
18705SOL    HW157948   9.409  10.680   8.870
18705SOL    HW257949   9.524  10.594   8.820
18706SOL     OW57950   8.031  12.599   7.709
18706SOL    HW157951   8.078  12.680   7.729
18706SOL    HW257952   8.074  12.564   7.631
18707SOL     OW57953   2.100  12.864   1.265
18707SOL    HW157954   2.180  12.817   1.287
18707SOL    HW257955   2.112  12.890   1.174
18708SOL     OW57956   3.786   2.835   3.238
18708SOL    HW157957   3.753   2.923   3.258
18708SOL    HW257958   3.775   2.826   3.143
18709SOL     OW57959   4.207   3.338   4.867
18709SOL    HW157960   4.280   3.302   4.918
18709SOL    HW257961   4.216   3.297   4.781
18710SOL     OW57962  11.223   5.845   9.146
18710SOL    HW157963  11.143   5.836   9.095
18710SOL    HW257964  11.288   5.875   9.082
18711SOL     OW57965   3.991   9.547  13.452
18711SOL    HW157966   3.932   9.621  13.453
18711SOL    HW257967   4.033   9.547  13.538
18712SOL     OW57968  12.116   4.972   1.040
18712SOL    HW157969  12.156   5.023   1.111
18712SOL    HW257970  12.127   5.027   0.962
18713SOL     OW57971   5.330   1.691   1.374
18713SOL    HW157972   5.404   1.633   1.358
18713SOL    HW257973   5.299   1.667   1.462
18714SOL     OW57974   8.668   7.542   2.410
18714SOL    HW157975   8.592   7.569   2.462
18714SOL    HW257976   8.739   7.599   2.440
18715SOL     OW57977   7.187  12.919  11.003
18715SOL    HW157978   7.142  12.838  11.025
18715SOL    HW257979   7.182  12.924  10.907
18716SOL     OW57980   5.714   6.554   7.590
18716SOL    HW157981   5.673   6.630   7.548
18716SOL    HW257982   5.733   6.583   7.679
18717SOL     OW57983   3.084   7.591  10.094
18717SOL    HW157984   3.055   7.643  10.169
18717SOL    HW257985   3.172   7.562  10.118
18718SOL     OW57986   6.166   3.263   2.599
18718SOL    HW157987   6.088   3.298   2.642
18718SOL    HW257988   6.139   3.177   2.567
18719SOL     OW57989   0.559  10.553   6.180
18719SOL    HW157990   0.551  10.467   6.222
18719SOL    HW257991   0.638  10.591   6.218
18720SOL     OW57992  13.066   0.012   8.490
18720SOL    HW157993  13.015  14.819   8.455
18720SOL    HW257994  13.073   0.074   8.416
18721SOL     OW57995  14.367   5.723   1.510
18721SOL    HW157996  14.277   5.744   1.535
18721SOL    HW257997  14.419   5.795   1.546
18722SOL     OW57998  10.378   2.171  11.255
18722SOL    HW157999  10.402   2.096  11.200
18722SOL    HW258000  10.308   2.215  11.206
18723SOL     OW58001   4.425  14.226   0.974
18723SOL    HW158002   4.438  14.316   1.001
18723SOL    HW258003   4.413  14.230   0.879
18724SOL     OW58004   1.159  14.633   3.726
18724SOL    HW158005   1.251  14.623   3.699
18724SOL    HW258006   1.148  14.570   3.797
18725SOL     OW58007   9.958  11.464  11.381
18725SOL    HW158008  10.020  11.533  11.403
18725SOL    HW258009   9.918  11.439  11.464
18726SOL     OW58010   2.946  14.091   6.578
18726SOL    HW158011   2.903  14.144   6.645
18726SOL    HW258012   2.951  14.147   6.501
18727SOL     OW58013   9.032   9.947  12.580
18727SOL    HW158014   8.993   9.866  12.546
18727SOL    HW258015   9.090   9.918  12.650
18728SOL     OW58016   6.558  13.401   6.166
18728SOL    HW158017   6.612  13.480   6.164
18728SOL    HW258018   6.617  13.330   6.139
18729SOL     OW58019   8.228  11.564  12.964
18729SOL    HW158020   8.280  11.484  12.977
18729SOL    HW258021   8.175  11.570  13.043
18730SOL     OW58022   1.217   5.112   9.072
18730SOL    HW158023   1.281   5.092   9.140
18730SOL    HW258024   1.177   5.194   9.100
18731SOL     OW58025  10.030   3.815  12.900
18731SOL    HW158026   9.986   3.740  12.941
18731SOL    HW258027   9.961   3.857  12.849
18732SOL     OW58028   7.635   5.047   7.346
18732SOL    HW158029   7.672   5.135   7.355
18732SOL    HW258030   7.625   5.016   7.436
18733SOL     OW58031   2.866   7.668   8.779
18733SOL    HW158032   2.962   7.669   8.777
18733SOL    HW258033   2.840   7.713   8.698
18734SOL     OW58034   0.459   5.656   4.480
18734SOL    HW158035   0.410   5.650   4.562
18734SOL    HW258036   0.423   5.732   4.436
18735SOL     OW58037  13.202  11.301  11.086
18735SOL    HW158038  13.110  11.276  11.080
18735SOL    HW258039  13.245  11.252  11.017
18736SOL     OW58040  10.614   2.418  14.853
18736SOL    HW158041  10.631   2.449  14.764
18736SOL    HW258042  10.701   2.397   0.008
18737SOL     OW58043   8.100  11.881   9.981
18737SOL    HW158044   8.180  11.829   9.975
18737SOL    HW258045   8.128  11.965  10.016
18738SOL     OW58046   2.732   6.137   8.479
18738SOL    HW158047   2.782   6.094   8.410
18738SOL    HW258048   2.798   6.175   8.537
18739SOL     OW58049   0.520  14.820  10.164
18739SOL    HW158050   0.546  14.842  10.074
18739SOL    HW258051   0.549  14.730  10.175
18740SOL     OW58052   2.395   5.960   6.559
18740SOL    HW158053   2.321   5.987   6.504
18740SOL    HW258054   2.402   6.029   6.625
18741SOL     OW58055   0.603   5.162   7.374
18741SOL    HW158056   0.618   5.133   7.464
18741SOL    HW258057   0.650   5.098   7.321
18742SOL     OW58058   3.042  10.411   5.535
18742SOL    HW158059   2.962  10.358   5.547
18742SOL    HW258060   3.104  10.374   5.597
18743SOL     OW58061   1.258  11.421   3.511
18743SOL    HW158062   1.220  11.383   3.590
18743SOL    HW258063   1.271  11.513   3.532
18744SOL     OW58064   1.883   4.408  10.492
18744SOL    HW158065   1.860   4.438  10.404
18744SOL    HW258066   1.813   4.442  10.548
18745SOL     OW58067  14.795   8.585   7.783
18745SOL    HW158068  14.714   8.555   7.741
18745SOL    HW258069  14.780   8.570   7.877
18746SOL     OW58070   4.054   5.980   2.892
18746SOL    HW158071   3.969   5.942   2.870
18746SOL    HW258072   4.052   5.993   2.987
18747SOL     OW58073   0.705   6.735   3.085
18747SOL    HW158074   0.704   6.812   3.142
18747SOL    HW258075   0.798   6.711   3.078
18748SOL     OW58076   6.125  13.240   0.444
18748SOL    HW158077   6.066  13.274   0.511
18748SOL    HW258078   6.111  13.145   0.447
18749SOL     OW58079  10.393  12.694  13.893
18749SOL    HW158080  10.428  12.741  13.969
18749SOL    HW258081  10.308  12.735  13.876
18750SOL     OW58082   3.497  11.003   8.892
18750SOL    HW158083   3.576  11.047   8.860
18750SOL    HW258084   3.428  11.030   8.831
18751SOL     OW58085  10.367  14.335   5.596
18751SOL    HW158086  10.417  14.377   5.666
18751SOL    HW258087  10.433  14.310   5.531
18752SOL     OW58088  12.666   1.851   2.188
18752SOL    HW158089  12.720   1.922   2.223
18752SOL    HW258090  12.587   1.852   2.243
18753SOL     OW58091   3.789  13.787   0.600
18753SOL    HW158092   3.731  13.785   0.676
18753SOL    HW258093   3.796  13.880   0.578
18754SOL     OW58094   6.298  11.120  11.301
18754SOL    HW158095   6.297  11.144  11.208
18754SOL    HW258096   6.261  11.197  11.346
18755SOL     OW58097   4.086   1.625   2.236
18755SOL    HW158098   4.119   1.638   2.325
18755SOL    HW258099   4.024   1.696   2.223
18756SOL     OW58100   2.155   2.914   2.597
18756SOL    HW158101   2.082   2.922   2.535
18756SOL    HW258102   2.223   2.868   2.549
18757SOL     OW58103   0.346  10.665   5.864
18757SOL    HW158104   0.371  10.665   5.771
18757SOL    HW258105   0.266  10.613   5.867
18758SOL     OW58106   1.447   6.183   6.589
18758SOL    HW158107   1.498   6.134   6.525
18758SOL    HW258108   1.467   6.275   6.571
18759SOL     OW58109  10.109  11.757  12.108
18759SOL    HW158110  10.069  11.802  12.183
18759SOL    HW258111  10.094  11.664  12.125
18760SOL     OW58112   5.127  14.048  14.377
18760SOL    HW158113   5.191  14.025  14.309
18760SOL    HW258114   5.107  14.140  14.361
18761SOL     OW58115  13.748   1.827  10.477
18761SOL    HW158116  13.674   1.819  10.417
18761SOL    HW258117  13.825   1.833  10.420
18762SOL     OW58118   1.169   8.139   9.491
18762SOL    HW158119   1.083   8.105   9.465
18762SOL    HW258120   1.155   8.232   9.507
18763SOL     OW58121  13.920  11.472  12.861
18763SOL    HW158122  13.844  11.443  12.912
18763SOL    HW258123  13.988  11.490  12.926
18764SOL     OW58124   0.391  10.036   4.614
18764SOL    HW158125   0.351   9.994   4.691
18764SOL    HW258126   0.482  10.004   4.614
18765SOL     OW58127  12.864   5.439  11.390
18765SOL    HW158128  12.861   5.391  11.308
18765SOL    HW258129  12.937   5.500  11.380
18766SOL     OW58130   6.725   4.504   2.074
18766SOL    HW158131   6.672   4.578   2.102
18766SOL    HW258132   6.815   4.531   2.090
18767SOL     OW58133   5.752  10.576   3.209
18767SOL    HW158134   5.727  10.527   3.287
18767SOL    HW258135   5.735  10.515   3.137
18768SOL     OW58136   5.155  11.648   3.189
18768SOL    HW158137   5.176  11.605   3.272
18768SOL    HW258138   5.213  11.608   3.125
18769SOL     OW58139   6.453  14.338   6.918
18769SOL    HW158140   6.513  14.282   6.870
18769SOL    HW258141   6.369  14.326   6.874
18770SOL     OW58142   1.171  12.886  11.534
18770SOL    HW158143   1.167  12.980  11.517
18770SOL    HW258144   1.093  12.851  11.491
18771SOL     OW58145   8.756  10.880   3.300
18771SOL    HW158146   8.762  10.919   3.213
18771SOL    HW258147   8.742  10.787   3.284
18772SOL     OW58148  10.924   2.184   1.179
18772SOL    HW158149  10.855   2.119   1.191
18772SOL    HW258150  10.878   2.264   1.154
18773SOL     OW58151  13.384  10.044  10.377
18773SOL    HW158152  13.415  10.107  10.441
18773SOL    HW258153  13.294  10.070  10.358
18774SOL     OW58154  13.986  12.569   3.763
18774SOL    HW158155  14.076  12.540   3.776
18774SOL    HW258156  13.994  12.647   3.708
18775SOL     OW58157   1.883  14.613   7.211
18775SOL    HW158158   1.902  14.632   7.303
18775SOL    HW258159   1.949  14.548   7.186
18776SOL     OW58160   3.925   4.424   7.466
18776SOL    HW158161   3.983   4.469   7.405
18776SOL    HW258162   3.961   4.335   7.471
18777SOL     OW58163   2.938   2.333   7.833
18777SOL    HW158164   2.949   2.427   7.816
18777SOL    HW258165   2.844   2.317   7.822
18778SOL     OW58166  10.911   8.114   3.434
18778SOL    HW158167  10.888   8.094   3.344
18778SOL    HW258168  10.909   8.210   3.438
18779SOL     OW58169   1.334   3.144   9.309
18779SOL    HW158170   1.304   3.204   9.378
18779SOL    HW258171   1.337   3.198   9.230
18780SOL     OW58172   0.805  14.351   3.432
18780SOL    HW158173   0.803  14.336   3.337
18780SOL    HW258174   0.897  14.371   3.450
18781SOL     OW58175  10.045  12.156  12.285
18781SOL    HW158176   9.984  12.182  12.215
18781SOL    HW258177  10.003  12.080  12.326
18782SOL     OW58178   5.532   0.548   0.059
18782SOL    HW158179   5.530   0.494  14.859
18782SOL    HW258180   5.493   0.631   0.032
18783SOL     OW58181   3.762   4.807   8.695
18783SOL    HW158182   3.841   4.765   8.661
18783SOL    HW258183   3.788   4.898   8.712
18784SOL     OW58184   5.832   7.867  12.985
18784SOL    HW158185   5.863   7.902  13.068
18784SOL    HW258186   5.767   7.931  12.955
18785SOL     OW58187  14.781   6.327   0.910
18785SOL    HW158188  14.807   6.416   0.884
18785SOL    HW258189  14.850   6.271   0.876
18786SOL     OW58190   3.588   8.012   3.803
18786SOL    HW158191   3.529   7.957   3.855
18786SOL    HW258192   3.568   7.988   3.712
18787SOL     OW58193  11.571   1.941  11.984
18787SOL    HW158194  11.505   1.896  12.037
18787SOL    HW258195  11.532   1.947  11.897
18788SOL     OW58196   4.768   2.874   5.104
18788SOL    HW158197   4.728   2.787   5.108
18788SOL    HW258198   4.830   2.868   5.032
18789SOL     OW58199  11.953   9.192   5.097
18789SOL    HW158200  11.923   9.249   5.167
18789SOL    HW258201  11.979   9.251   5.027
18790SOL     OW58202  13.103   4.944   7.823
18790SOL    HW158203  13.180   4.922   7.769
18790SOL    HW258204  13.120   5.033   7.854
18791SOL     OW58205  14.033   4.845   2.629
18791SOL    HW158206  14.060   4.754   2.644
18791SOL    HW258207  13.995   4.845   2.541
18792SOL     OW58208   2.921   7.651   5.531
18792SOL    HW158209   2.898   7.730   5.580
18792SOL    HW258210   2.963   7.684   5.451
18793SOL     OW58211   6.806  13.180   5.706
18793SOL    HW158212   6.762  13.095   5.701
18793SOL    HW258213   6.874  13.167   5.772
18794SOL     OW58214   0.864   2.260  12.490
18794SOL    HW158215   0.893   2.175  12.522
18794SOL    HW258216   0.834   2.307  12.568
18795SOL     OW58217  12.742   2.956   5.446
18795SOL    HW158218  12.739   2.923   5.356
18795SOL    HW258219  12.830   2.992   5.456
18796SOL     OW58220  11.799   1.818  13.903
18796SOL    HW158221  11.712   1.816  13.863
18796SOL    HW258222  11.851   1.757  13.850
18797SOL     OW58223   8.194  12.844  13.737
18797SOL    HW158224   8.132  12.780  13.772
18797SOL    HW258225   8.277  12.822  13.779
18798SOL     OW58226   1.884  12.085   0.088
18798SOL    HW158227   1.852  12.074   0.177
18798SOL    HW258228   1.933  12.167   0.090
18799SOL     OW58229   5.242  10.442   9.171
18799SOL    HW158230   5.320  10.391   9.193
18799SOL    HW258231   5.272  10.504   9.105
18800SOL     OW58232   1.127  13.938   2.233
18800SOL    HW158233   1.039  13.920   2.267
18800SOL    HW258234   1.137  14.033   2.242
18801SOL     OW58235  11.447   2.610   4.870
18801SOL    HW158236  11.373   2.670   4.876
18801SOL    HW258237  11.407   2.523   4.865
18802SOL     OW58238   8.607  11.342  13.458
18802SOL    HW158239   8.577  11.255  13.485
18802SOL    HW258240   8.554  11.403  13.511
18803SOL     OW58241   3.266   4.069   3.996
18803SOL    HW158242   3.279   4.019   4.077
18803SOL    HW258243   3.352   4.106   3.977
18804SOL     OW58244   8.401   1.582  10.377
18804SOL    HW158245   8.326   1.540  10.420
18804SOL    HW258246   8.427   1.522  10.308
18805SOL     OW58247  13.037   5.059   6.589
18805SOL    HW158248  13.031   5.135   6.532
18805SOL    HW258249  12.988   4.990   6.545
18806SOL     OW58250  14.622  11.979   7.981
18806SOL    HW158251  14.555  11.912   7.997
18806SOL    HW258252  14.702  11.929   7.967
18807SOL     OW58253   4.838  13.086   6.458
18807SOL    HW158254   4.842  13.061   6.366
18807SOL    HW258255   4.775  13.158   6.461
18808SOL     OW58256  11.802  14.074   8.093
18808SOL    HW158257  11.868  14.141   8.110
18808SOL    HW258258  11.852  13.992   8.085
18809SOL     OW58259   1.993   9.338   6.165
18809SOL    HW158260   1.937   9.372   6.095
18809SOL    HW258261   2.034   9.260   6.127
18810SOL     OW58262   3.941   8.912  10.198
18810SOL    HW158263   3.948   8.910  10.293
18810SOL    HW258264   3.853   8.879  10.180
18811SOL     OW58265   4.221  14.425   3.764
18811SOL    HW158266   4.183  14.352   3.715
18811SOL    HW258267   4.170  14.501   3.737
18812SOL     OW58268  14.233   0.229   1.277
18812SOL    HW158269  14.256   0.138   1.294
18812SOL    HW258270  14.236   0.237   1.182
18813SOL     OW58271  10.629  13.876   7.183
18813SOL    HW158272  10.578  13.934   7.126
18813SOL    HW258273  10.585  13.881   7.268
18814SOL     OW58274   4.158  12.306   6.386
18814SOL    HW158275   4.113  12.334   6.466
18814SOL    HW258276   4.181  12.214   6.402
18815SOL     OW58277   3.593  12.342  12.726
18815SOL    HW158278   3.688  12.338  12.712
18815SOL    HW258279   3.559  12.384  12.647
18816SOL     OW58280   6.266   6.452  14.272
18816SOL    HW158281   6.341   6.420  14.221
18816SOL    HW258282   6.195   6.391  14.251
18817SOL     OW58283   1.736   0.613  12.906
18817SOL    HW158284   1.784   0.541  12.948
18817SOL    HW258285   1.800   0.684  12.901
18818SOL     OW58286   4.762  14.574   6.853
18818SOL    HW158287   4.817  14.606   6.924
18818SOL    HW258288   4.677  14.617   6.867
18819SOL     OW58289   1.366   9.228  13.472
18819SOL    HW158290   1.318   9.153  13.438
18819SOL    HW258291   1.335   9.302  13.420
18820SOL     OW58292   6.417  11.152   4.491
18820SOL    HW158293   6.427  11.069   4.444
18820SOL    HW258294   6.475  11.213   4.444
18821SOL     OW58295   5.178  12.479   3.297
18821SOL    HW158296   5.270  12.478   3.323
18821SOL    HW258297   5.152  12.387   3.297
18822SOL     OW58298  12.181   5.738  10.832
18822SOL    HW158299  12.172   5.818  10.781
18822SOL    HW258300  12.222   5.766  10.914
18823SOL     OW58301   8.451   8.965   9.340
18823SOL    HW158302   8.406   9.041   9.303
18823SOL    HW258303   8.428   8.966   9.433
18824SOL     OW58304   6.008  12.644   0.221
18824SOL    HW158305   6.002  12.721   0.163
18824SOL    HW258306   5.963  12.671   0.301
18825SOL     OW58307   3.425   0.685   2.374
18825SOL    HW158308   3.414   0.675   2.468
18825SOL    HW258309   3.518   0.705   2.363
18826SOL     OW58310   0.399   5.403   6.168
18826SOL    HW158311   0.333   5.421   6.235
18826SOL    HW258312   0.369   5.450   6.091
18827SOL     OW58313  10.376   3.076  12.639
18827SOL    HW158314  10.355   3.151  12.583
18827SOL    HW258315  10.298   3.022  12.638
18828SOL     OW58316  11.645   9.484   6.743
18828SOL    HW158317  11.639   9.408   6.800
18828SOL    HW258318  11.595   9.460   6.665
18829SOL     OW58319   8.555   2.711   6.991
18829SOL    HW158320   8.562   2.788   6.935
18829SOL    HW258321   8.588   2.740   7.076
18830SOL     OW58322  14.621   5.150   5.275
18830SOL    HW158323  14.586   5.191   5.196
18830SOL    HW258324  14.543   5.120   5.322
18831SOL     OW58325   5.054  14.406   5.903
18831SOL    HW158326   5.052  14.347   5.978
18831SOL    HW258327   5.033  14.492   5.939
18832SOL     OW58328  14.221   9.385   6.547
18832SOL    HW158329  14.229   9.330   6.469
18832SOL    HW258330  14.134   9.365   6.581
18833SOL     OW58331   1.634   8.975   8.021
18833SOL    HW158332   1.600   9.059   7.992
18833SOL    HW258333   1.632   8.980   8.117
18834SOL     OW58334   1.808   9.588   6.768
18834SOL    HW158335   1.811   9.592   6.672
18834SOL    HW258336   1.744   9.520   6.788
18835SOL     OW58337  11.548  12.668   9.481
18835SOL    HW158338  11.586  12.739   9.429
18835SOL    HW258339  11.610  12.596   9.472
18836SOL     OW58340   7.629   8.146  10.475
18836SOL    HW158341   7.643   8.227  10.425
18836SOL    HW258342   7.693   8.084  10.440
18837SOL     OW58343   1.941   6.402   6.408
18837SOL    HW158344   1.869   6.369   6.353
18837SOL    HW258345   1.900   6.423   6.492
18838SOL     OW58346   8.142   1.582   7.995
18838SOL    HW158347   8.092   1.505   7.970
18838SOL    HW258348   8.228   1.548   8.020
18839SOL     OW58349  13.821   3.781  11.091
18839SOL    HW158350  13.905   3.786  11.136
18839SOL    HW258351  13.825   3.700  11.041
18840SOL     OW58352   6.077   2.227   1.571
18840SOL    HW158353   6.037   2.140   1.569
18840SOL    HW258354   6.067   2.256   1.661
18841SOL     OW58355   9.422  14.074   9.670
18841SOL    HW158356   9.365  14.128   9.725
18841SOL    HW258357   9.363  14.029   9.610
18842SOL     OW58358   2.098   2.774  13.277
18842SOL    HW158359   2.121   2.864  13.302
18842SOL    HW258360   2.093   2.727  13.360
18843SOL     OW58361   6.490   9.245   8.711
18843SOL    HW158362   6.398   9.227   8.732
18843SOL    HW258363   6.537   9.167   8.741
18844SOL     OW58364  11.579  12.249   5.203
18844SOL    HW158365  11.486  12.263   5.221
18844SOL    HW258366  11.619  12.334   5.220
18845SOL     OW58367   6.982   6.909  12.309
18845SOL    HW158368   7.050   6.976  12.321
18845SOL    HW258369   6.904   6.959  12.283
18846SOL     OW58370   2.926   0.207  14.379
18846SOL    HW158371   2.900   0.136  14.320
18846SOL    HW258372   2.966   0.272  14.322
18847SOL     OW58373   1.430   1.085   7.355
18847SOL    HW158374   1.425   1.158   7.293
18847SOL    HW258375   1.518   1.089   7.390
18848SOL     OW58376   8.528   2.236  12.286
18848SOL    HW158377   8.559   2.313  12.333
18848SOL    HW258378   8.563   2.162  12.336
18849SOL     OW58379  13.614   5.425   1.260
18849SOL    HW158380  13.563   5.345   1.277
18849SOL    HW258381  13.551   5.485   1.220
18850SOL     OW58382   2.473   3.176   7.523
18850SOL    HW158383   2.388   3.133   7.510
18850SOL    HW258384   2.524   3.113   7.575
18851SOL     OW58385   0.873  12.270  10.990
18851SOL    HW158386   0.851  12.286  10.898
18851SOL    HW258387   0.828  12.189  11.012
18852SOL     OW58388   6.216   6.354  13.369
18852SOL    HW158389   6.189   6.431  13.318
18852SOL    HW258390   6.139   6.298  13.370
18853SOL     OW58391   9.546  11.451   4.415
18853SOL    HW158392   9.623  11.451   4.473
18853SOL    HW258393   9.492  11.380   4.447
18854SOL     OW58394  13.700  13.967   9.394
18854SOL    HW158395  13.671  13.890   9.444
18854SOL    HW258396  13.759  13.931   9.328
18855SOL     OW58397   5.743   7.503   8.034
18855SOL    HW158398   5.677   7.434   8.039
18855SOL    HW258399   5.706   7.568   7.974
18856SOL     OW58400  11.347   7.107   9.172
18856SOL    HW158401  11.296   7.171   9.123
18856SOL    HW258402  11.282   7.053   9.217
18857SOL     OW58403  11.146  14.041   8.290
18857SOL    HW158404  11.117  14.119   8.243
18857SOL    HW258405  11.066  13.991   8.305
18858SOL     OW58406   6.644   8.865   3.225
18858SOL    HW158407   6.732   8.893   3.201
18858SOL    HW258408   6.647   8.769   3.219
18859SOL     OW58409   6.744   5.126   6.153
18859SOL    HW158410   6.659   5.101   6.117
18859SOL    HW258411   6.806   5.105   6.084
18860SOL     OW58412   6.906   2.085   7.178
18860SOL    HW158413   6.902   1.990   7.164
18860SOL    HW258414   7.000   2.103   7.188
18861SOL     OW58415  11.771   3.459   2.060
18861SOL    HW158416  11.739   3.369   2.068
18861SOL    HW258417  11.691   3.510   2.043
18862SOL     OW58418  10.548   3.551   0.357
18862SOL    HW158419  10.505   3.485   0.411
18862SOL    HW258420  10.572   3.505   0.277
18863SOL     OW58421  10.726   8.163   6.293
18863SOL    HW158422  10.698   8.181   6.383
18863SOL    HW258423  10.695   8.074   6.275
18864SOL     OW58424   3.861  13.791   3.830
18864SOL    HW158425   3.815  13.865   3.791
18864SOL    HW258426   3.919  13.759   3.760
18865SOL     OW58427   8.715   6.126  12.559
18865SOL    HW158428   8.633   6.166  12.589
18865SOL    HW258429   8.782   6.164  12.615
18866SOL     OW58430   3.558   9.364   3.927
18866SOL    HW158431   3.553   9.388   3.835
18866SOL    HW258432   3.485   9.412   3.968
18867SOL     OW58433  13.978   9.067   2.438
18867SOL    HW158434  13.941   9.034   2.520
18867SOL    HW258435  14.048   9.006   2.416
18868SOL     OW58436   2.088  13.325   0.845
18868SOL    HW158437   2.067  13.345   0.937
18868SOL    HW258438   2.098  13.230   0.843
18869SOL     OW58439   7.041  14.311  14.081
18869SOL    HW158440   7.130  14.325  14.112
18869SOL    HW258441   7.025  14.383  14.020
18870SOL     OW58442   7.904   5.250   8.158
18870SOL    HW158443   7.878   5.191   8.087
18870SOL    HW258444   8.000   5.248   8.157
18871SOL     OW58445   1.822   3.572   1.667
18871SOL    HW158446   1.826   3.542   1.576
18871SOL    HW258447   1.768   3.651   1.663
18872SOL     OW58448  13.323   7.182   9.748
18872SOL    HW158449  13.255   7.233   9.704
18872SOL    HW258450  13.308   7.092   9.720
18873SOL     OW58451   7.948   4.417   9.169
18873SOL    HW158452   7.967   4.402   9.076
18873SOL    HW258453   7.927   4.510   9.174
18874SOL     OW58454   0.998   7.185   4.575
18874SOL    HW158455   0.913   7.190   4.531
18874SOL    HW258456   1.043   7.112   4.534
18875SOL     OW58457  13.965   4.075   0.565
18875SOL    HW158458  14.061   4.081   0.564
18875SOL    HW258459  13.938   4.142   0.628
18876SOL     OW58460   8.120   1.371   4.685
18876SOL    HW158461   8.171   1.374   4.766
18876SOL    HW258462   8.091   1.461   4.671
18877SOL     OW58463   6.189  13.236   7.511
18877SOL    HW158464   6.261  13.175   7.525
18877SOL    HW258465   6.231  13.317   7.483
18878SOL     OW58466   7.944  14.219  14.313
18878SOL    HW158467   7.978  14.141  14.268
18878SOL    HW258468   8.022  14.267  14.340
18879SOL     OW58469   6.954  14.856   4.970
18879SOL    HW158470   6.896  14.781   4.986
18879SOL    HW258471   7.017  14.823   4.906
18880SOL     OW58472   8.697   6.093  12.298
18880SOL    HW158473   8.716   6.096  12.392
18880SOL    HW258474   8.779   6.117  12.256
18881SOL     OW58475   3.053   7.311   5.154
18881SOL    HW158476   3.029   7.219   5.149
18881SOL    HW258477   3.131   7.312   5.210
18882SOL     OW58478  10.368  10.674   4.245
18882SOL    HW158479  10.406  10.735   4.182
18882SOL    HW258480  10.276  10.667   4.220
18883SOL     OW58481   7.101   4.460   6.751
18883SOL    HW158482   7.106   4.388   6.814
18883SOL    HW258483   7.157   4.432   6.679
18884SOL     OW58484   2.191  13.236   5.985
18884SOL    HW158485   2.199  13.144   5.960
18884SOL    HW258486   2.250  13.246   6.059
18885SOL     OW58487  14.611  14.356   7.345
18885SOL    HW158488  14.569  14.352   7.259
18885SOL    HW258489  14.705  14.351   7.327
18886SOL     OW58490   0.773   0.022   2.266
18886SOL    HW158491   0.812  14.821   2.302
18886SOL    HW258492   0.798   0.090   2.328
18887SOL     OW58493   5.817   1.750  14.506
18887SOL    HW158494   5.841   1.842  14.501
18887SOL    HW258495   5.779   1.740  14.594
18888SOL     OW58496  14.875   8.146   2.113
18888SOL    HW158497  14.856   8.055   2.090
18888SOL    HW258498   0.068   8.141   2.175
18889SOL     OW58499  11.262   4.751   0.675
18889SOL    HW158500  11.193   4.816   0.687
18889SOL    HW258501  11.342   4.794   0.706
18890SOL     OW58502   8.921   7.067   1.652
18890SOL    HW158503   8.829   7.089   1.635
18890SOL    HW258504   8.955   7.142   1.702
18891SOL     OW58505   5.103   0.105   9.553
18891SOL    HW158506   5.189   0.145   9.566
18891SOL    HW258507   5.068   0.095   9.642
18892SOL     OW58508   6.893  10.201   6.751
18892SOL    HW158509   6.828  10.242   6.694
18892SOL    HW258510   6.844  10.139   6.805
18893SOL     OW58511   7.576   0.171   0.960
18893SOL    HW158512   7.508   0.158   1.027
18893SOL    HW258513   7.527   0.185   0.879
18894SOL     OW58514   1.773   9.961  11.207
18894SOL    HW158515   1.822   9.924  11.280
18894SOL    HW258516   1.683   9.928  11.218
18895SOL     OW58517   4.540   7.608  13.839
18895SOL    HW158518   4.463   7.610  13.782
18895SOL    HW258519   4.570   7.517  13.835
18896SOL     OW58520   1.284  14.715  12.798
18896SOL    HW158521   1.284  14.644  12.862
18896SOL    HW258522   1.268  14.794  12.849
18897SOL     OW58523  11.944   6.637  11.656
18897SOL    HW158524  11.941   6.727  11.623
18897SOL    HW258525  12.035   6.609  11.643
18898SOL     OW58526   5.440   2.142   4.467
18898SOL    HW158527   5.407   2.163   4.379
18898SOL    HW258528   5.488   2.061   4.456
18899SOL     OW58529  12.703  10.976   6.451
18899SOL    HW158530  12.692  10.887   6.419
18899SOL    HW258531  12.732  11.026   6.374
18900SOL     OW58532  14.277   4.352   0.935
18900SOL    HW158533  14.208   4.287   0.919
18900SOL    HW258534  14.269   4.415   0.863
18901SOL     OW58535   3.223   2.435  14.775
18901SOL    HW158536   3.192   2.391  14.854
18901SOL    HW258537   3.237   2.364  14.712
18902SOL     OW58538   9.674  10.051  14.313
18902SOL    HW158539   9.700   9.959  14.305
18902SOL    HW258540   9.756  10.099  14.321
18903SOL     OW58541   2.154   4.026  12.853
18903SOL    HW158542   2.165   3.939  12.814
18903SOL    HW258543   2.239   4.068  12.845
18904SOL     OW58544  14.038   9.657  13.703
18904SOL    HW158545  14.112   9.681  13.648
18904SOL    HW258546  14.000   9.580  13.660
18905SOL     OW58547   2.258   0.080   0.339
18905SOL    HW158548   2.287   0.170   0.325
18905SOL    HW258549   2.294   0.032   0.265
18906SOL     OW58550   1.773   7.086   8.402
18906SOL    HW158551   1.801   7.035   8.325
18906SOL    HW258552   1.796   7.030   8.476
18907SOL     OW58553   6.054   1.924   6.636
18907SOL    HW158554   6.109   1.885   6.569
18907SOL    HW258555   5.965   1.915   6.603
18908SOL     OW58556  14.023   2.960  11.693
18908SOL    HW158557  13.982   2.882  11.655
18908SOL    HW258558  14.070   3.000  11.620
18909SOL     OW58559   8.813   1.152  12.346
18909SOL    HW158560   8.801   1.227  12.404
18909SOL    HW258561   8.738   1.095  12.363
18910SOL     OW58562   5.152   3.619  10.210
18910SOL    HW158563   5.209   3.622  10.287
18910SOL    HW258564   5.204   3.575  10.143
18911SOL     OW58565  13.265  11.096  13.347
18911SOL    HW158566  13.312  11.151  13.410
18911SOL    HW258567  13.315  11.104  13.266
18912SOL     OW58568  10.665   8.412  11.868
18912SOL    HW158569  10.576   8.445  11.854
18912SOL    HW258570  10.654   8.333  11.921
18913SOL     OW58571  14.534   6.067   0.549
18913SOL    HW158572  14.564   6.054   0.459
18913SOL    HW258573  14.458   6.126   0.540
18914SOL     OW58574   4.879   4.746  14.779
18914SOL    HW158575   4.942   4.807  14.743
18914SOL    HW258576   4.917   4.659  14.763
18915SOL     OW58577   8.379  11.325   7.751
18915SOL    HW158578   8.425  11.408   7.757
18915SOL    HW258579   8.362  11.313   7.658
18916SOL     OW58580   8.740  12.443   0.571
18916SOL    HW158581   8.771  12.391   0.645
18916SOL    HW258582   8.754  12.534   0.598
18917SOL     OW58583   3.154   3.248   4.957
18917SOL    HW158584   3.119   3.162   4.936
18917SOL    HW258585   3.165   3.247   5.052
18918SOL     OW58586   6.367  13.725   7.574
18918SOL    HW158587   6.369  13.766   7.660
18918SOL    HW258588   6.276  13.735   7.545
18919SOL     OW58589  14.022  12.002   9.943
18919SOL    HW158590  14.002  12.070  10.008
18919SOL    HW258591  14.117  12.002   9.936
18920SOL     OW58592  11.491  13.732  12.179
18920SOL    HW158593  11.500  13.791  12.253
18920SOL    HW258594  11.399  13.706  12.179
18921SOL     OW58595   8.875   5.737   8.534
18921SOL    HW158596   8.907   5.763   8.448
18921SOL    HW258597   8.790   5.698   8.518
18922SOL     OW58598   8.593  10.295   1.438
18922SOL    HW158599   8.636  10.240   1.371
18922SOL    HW258600   8.575  10.235   1.510
18923SOL     OW58601   0.352  10.130   2.443
18923SOL    HW158602   0.274  10.099   2.488
18923SOL    HW258603   0.329  10.128   2.350
18924SOL     OW58604   6.841  13.313   5.481
18924SOL    HW158605   6.790  13.392   5.497
18924SOL    HW258606   6.842  13.267   5.565
18925SOL     OW58607   6.606  12.641   7.511
18925SOL    HW158608   6.652  12.684   7.439
18925SOL    HW258609   6.593  12.710   7.576
18926SOL     OW58610   9.219  11.023   3.526
18926SOL    HW158611   9.216  11.096   3.465
18926SOL    HW258612   9.137  10.975   3.512
18927SOL     OW58613   9.333   1.886  12.922
18927SOL    HW158614   9.251   1.926  12.893
18927SOL    HW258615   9.344   1.918  13.012
18928SOL     OW58616  10.660  12.603   1.567
18928SOL    HW158617  10.636  12.694   1.553
18928SOL    HW258618  10.577  12.557   1.575
18929SOL     OW58619   7.832  12.223   1.487
18929SOL    HW158620   7.789  12.250   1.568
18929SOL    HW258621   7.916  12.188   1.515
18930SOL     OW58622   2.279  13.156   1.737
18930SOL    HW158623   2.330  13.124   1.663
18930SOL    HW258624   2.272  13.250   1.722
18931SOL     OW58625  14.526   0.352   1.299
18931SOL    HW158626  14.506   0.298   1.376
18931SOL    HW258627  14.464   0.425   1.304
18932SOL     OW58628   2.495  12.801   6.227
18932SOL    HW158629   2.501  12.848   6.310
18932SOL    HW258630   2.432  12.731   6.244
18933SOL     OW58631   6.974   7.421   6.980
18933SOL    HW158632   7.052   7.444   6.930
18933SOL    HW258633   7.000   7.430   7.072
18934SOL     OW58634  10.911   7.176   4.973
18934SOL    HW158635  10.963   7.249   4.939
18934SOL    HW258636  10.820   7.206   4.964
18935SOL     OW58637   8.455   4.666   8.461
18935SOL    HW158638   8.384   4.726   8.439
18935SOL    HW258639   8.517   4.675   8.388
18936SOL     OW58640  12.482   5.880  11.980
18936SOL    HW158641  12.412   5.890  11.916
18936SOL    HW258642  12.473   5.955  12.038
18937SOL     OW58643   1.900   4.392   5.917
18937SOL    HW158644   1.952   4.324   5.875
18937SOL    HW258645   1.812   4.381   5.880
18938SOL     OW58646   7.837  11.678  13.737
18938SOL    HW158647   7.785  11.636  13.805
18938SOL    HW258648   7.791  11.659  13.656
18939SOL     OW58649   2.137  12.141  13.470
18939SOL    HW158650   2.210  12.081  13.488
18939SOL    HW258651   2.168  12.196  13.399
18940SOL     OW58652   3.454   3.246   5.082
18940SOL    HW158653   3.373   3.239   5.032
18940SOL    HW258654   3.442   3.323   5.137
18941SOL     OW58655   5.680  11.185  11.993
18941SOL    HW158656   5.671  11.266  12.044
18941SOL    HW258657   5.769  11.155  12.012
18942SOL     OW58658   6.617   9.699  11.213
18942SOL    HW158659   6.530   9.708  11.177
18942SOL    HW258660   6.658   9.629  11.163
18943SOL     OW58661   3.442  11.927  10.155
18943SOL    HW158662   3.467  12.018  10.138
18943SOL    HW258663   3.374  11.908  10.090
18944SOL     OW58664  14.836  12.526   3.540
18944SOL    HW158665  14.818  12.493   3.628
18944SOL    HW258666   0.029  12.588   3.551
18945SOL     OW58667   4.217   8.633   3.457
18945SOL    HW158668   4.164   8.657   3.381
18945SOL    HW258669   4.198   8.701   3.522
18946SOL     OW58670   4.866   7.953   7.164
18946SOL    HW158671   4.871   7.872   7.114
18946SOL    HW258672   4.907   7.933   7.248
18947SOL     OW58673   9.373   8.121   3.523
18947SOL    HW158674   9.367   8.191   3.457
18947SOL    HW258675   9.398   8.167   3.603
18948SOL     OW58676   0.645   7.487   7.445
18948SOL    HW158677   0.573   7.427   7.426
18948SOL    HW258678   0.634   7.559   7.383
18949SOL     OW58679   0.741   3.480   8.220
18949SOL    HW158680   0.717   3.488   8.128
18949SOL    HW258681   0.785   3.396   8.227
18950SOL     OW58682   4.642   6.010   7.777
18950SOL    HW158683   4.602   6.011   7.865
18950SOL    HW258684   4.667   6.101   7.761
18951SOL     OW58685  10.155  11.875  12.470
18951SOL    HW158686  10.072  11.829  12.482
18951SOL    HW258687  10.220  11.806  12.462
18952SOL     OW58688  11.503   8.152   4.370
18952SOL    HW158689  11.499   8.245   4.393
18952SOL    HW258690  11.593   8.139   4.339
18953SOL     OW58691   8.210  14.837   8.732
18953SOL    HW158692   8.148  14.840   8.804
18953SOL    HW258693   8.163  14.875   8.658
18954SOL     OW58694   0.442   8.975  10.133
18954SOL    HW158695   0.511   8.943  10.075
18954SOL    HW258696   0.482   9.049  10.180
18955SOL     OW58697  13.539  14.693  14.191
18955SOL    HW158698  13.562  14.775  14.235
18955SOL    HW258699  13.555  14.709  14.099
18956SOL     OW58700   9.297  12.824   3.313
18956SOL    HW158701   9.362  12.829   3.383
18956SOL    HW258702   9.347  12.796   3.236
18957SOL     OW58703   2.234   1.847   4.121
18957SOL    HW158704   2.245   1.919   4.059
18957SOL    HW258705   2.140   1.832   4.125
18958SOL     OW58706   0.222   7.239   4.281
18958SOL    HW158707   0.204   7.295   4.357
18958SOL    HW258708   0.317   7.231   4.278
18959SOL     OW58709  13.605   8.246   5.920
18959SOL    HW158710  13.510   8.240   5.918
18959SOL    HW258711  13.624   8.297   5.999
18960SOL     OW58712   0.081   9.989  10.443
18960SOL    HW158713   0.083  10.067  10.498
18960SOL    HW258714   0.014   9.933  10.482
18961SOL     OW58715   1.390   8.477  10.795
18961SOL    HW158716   1.443   8.535  10.850
18961SOL    HW258717   1.386   8.521  10.710
18962SOL     OW58718  13.426   2.495   4.178
18962SOL    HW158719  13.511   2.454   4.161
18962SOL    HW258720  13.424   2.571   4.120
18963SOL     OW58721  13.334   1.965  12.541
18963SOL    HW158722  13.284   2.031  12.590
18963SOL    HW258723  13.417   1.959  12.588
18964SOL     OW58724   1.802  12.365   7.011
18964SOL    HW158725   1.861  12.439   7.024
18964SOL    HW258726   1.854  12.299   6.966
18965SOL     OW58727   0.986   3.481  10.516
18965SOL    HW158728   0.923   3.469  10.587
18965SOL    HW258729   0.963   3.414  10.452
18966SOL     OW58730   5.432   8.336  13.209
18966SOL    HW158731   5.414   8.387  13.288
18966SOL    HW258732   5.523   8.356  13.187
18967SOL     OW58733  12.850  11.447   0.534
18967SOL    HW158734  12.862  11.356   0.508
18967SOL    HW258735  12.785  11.481   0.472
18968SOL     OW58736   9.183   9.264  10.963
18968SOL    HW158737   9.169   9.232  11.052
18968SOL    HW258738   9.179   9.359  10.971
18969SOL     OW58739   0.864  11.610  11.545
18969SOL    HW158740   0.854  11.623  11.451
18969SOL    HW258741   0.813  11.680  11.585
18970SOL     OW58742   6.527   2.017  11.093
18970SOL    HW158743   6.607   1.971  11.117
18970SOL    HW258744   6.531   2.023  10.997
18971SOL     OW58745   3.590   0.890  10.595
18971SOL    HW158746   3.533   0.815  10.580
18971SOL    HW258747   3.553   0.959  10.540
18972SOL     OW58748   1.984  14.490   9.208
18972SOL    HW158749   2.044  14.516   9.138
18972SOL    HW258750   1.990  14.560   9.272
18973SOL     OW58751  12.986   9.361  11.322
18973SOL    HW158752  12.904   9.330  11.362
18973SOL    HW258753  13.053   9.342  11.388
18974SOL     OW58754  11.027   0.831   6.040
18974SOL    HW158755  11.014   0.915   5.997
18974SOL    HW258756  10.964   0.829   6.112
18975SOL     OW58757   1.685   6.403   7.768
18975SOL    HW158758   1.759   6.423   7.710
18975SOL    HW258759   1.714   6.433   7.854
18976SOL     OW58760   0.053   1.181  12.637
18976SOL    HW158761   0.092   1.111  12.585
18976SOL    HW258762  14.868   1.137  12.693
18977SOL     OW58763   5.608   4.553   0.437
18977SOL    HW158764   5.544   4.623   0.422
18977SOL    HW258765   5.562   4.473   0.411
18978SOL     OW58766   5.136   8.512   2.823
18978SOL    HW158767   5.116   8.574   2.893
18978SOL    HW258768   5.166   8.433   2.867
18979SOL     OW58769  11.841   0.933   6.949
18979SOL    HW158770  11.819   0.840   6.943
18979SOL    HW258771  11.820   0.969   6.863
18980SOL     OW58772   6.439  12.628  13.176
18980SOL    HW158773   6.396  12.613  13.260
18980SOL    HW258774   6.531  12.606  13.191
18981SOL     OW58775  10.177   8.897   0.409
18981SOL    HW158776  10.084   8.919   0.420
18981SOL    HW258777  10.195   8.915   0.317
18982SOL     OW58778  13.773   7.295  13.400
18982SOL    HW158779  13.810   7.337  13.478
18982SOL    HW258780  13.844   7.299  13.335
18983SOL     OW58781   8.558   3.587  14.681
18983SOL    HW158782   8.510   3.505  14.681
18983SOL    HW258783   8.567   3.610  14.774
18984SOL     OW58784  12.801  10.789  10.478
18984SOL    HW158785  12.791  10.699  10.446
18984SOL    HW258786  12.819  10.778  10.572
18985SOL     OW58787   4.815   2.266   3.327
18985SOL    HW158788   4.753   2.310   3.385
18985SOL    HW258789   4.882   2.332   3.309
18986SOL     OW58790   0.213  10.076   9.595
18986SOL    HW158791   0.142  10.130   9.560
18986SOL    HW258792   0.176   9.988   9.599
18987SOL     OW58793   2.647  11.673   3.597
18987SOL    HW158794   2.552  11.668   3.584
18987SOL    HW258795   2.682  11.701   3.512
18988SOL     OW58796  11.108   4.529   5.074
18988SOL    HW158797  11.050   4.587   5.024
18988SOL    HW258798  11.138   4.583   5.147
18989SOL     OW58799  14.505  11.073  10.886
18989SOL    HW158800  14.480  10.995  10.936
18989SOL    HW258801  14.525  11.139  10.953
18990SOL     OW58802  10.506   9.900   7.310
18990SOL    HW158803  10.516   9.908   7.215
18990SOL    HW258804  10.419   9.863   7.322
18991SOL     OW58805   3.881  13.850  13.656
18991SOL    HW158806   3.939  13.802  13.715
18991SOL    HW258807   3.925  13.934  13.642
18992SOL     OW58808  10.436  10.372  12.629
18992SOL    HW158809  10.520  10.327  12.632
18992SOL    HW258810  10.378  10.310  12.585
18993SOL     OW58811  13.688  10.845  10.559
18993SOL    HW158812  13.739  10.883  10.487
18993SOL    HW258813  13.661  10.760  10.527
18994SOL     OW58814  12.856   0.539  14.669
18994SOL    HW158815  12.770   0.550  14.628
18994SOL    HW258816  12.913   0.598  14.621
18995SOL     OW58817   4.601   6.386   0.558
18995SOL    HW158818   4.588   6.370   0.652
18995SOL    HW258819   4.683   6.436   0.554
18996SOL     OW58820  14.631  13.990   6.503
18996SOL    HW158821  14.652  14.035   6.585
18996SOL    HW258822  14.673  13.904   6.512
18997SOL     OW58823   0.236   2.529   8.195
18997SOL    HW158824   0.278   2.489   8.272
18997SOL    HW258825   0.187   2.458   8.155
18998SOL     OW58826   2.951   3.647   2.933
18998SOL    HW158827   2.973   3.634   3.025
18998SOL    HW258828   3.033   3.675   2.892
18999SOL     OW58829  11.108  11.956   6.221
18999SOL    HW158830  11.015  11.936   6.212
18999SOL    HW258831  11.123  12.029   6.161
19000SOL     OW58832   5.540  13.686   2.664
19000SOL    HW158833   5.530  13.727   2.578
19000SOL    HW258834   5.531  13.759   2.726
19001SOL     OW58835   9.205   0.061   2.476
19001SOL    HW158836   9.128   0.113   2.500
19001SOL    HW258837   9.180   0.019   2.394
19002SOL     OW58838   5.138   2.703   0.772
19002SOL    HW158839   5.046   2.709   0.798
19002SOL    HW258840   5.160   2.792   0.743
19003SOL     OW58841  11.151   2.577   5.698
19003SOL    HW158842  11.144   2.672   5.682
19003SOL    HW258843  11.186   2.542   5.617
19004SOL     OW58844   3.047  12.378   8.782
19004SOL    HW158845   3.048  12.283   8.773
19004SOL    HW258846   3.106  12.410   8.714
19005SOL     OW58847   9.491   8.527   9.280
19005SOL    HW158848   9.542   8.608   9.271
19005SOL    HW258849   9.417   8.539   9.220
19006SOL     OW58850   0.784   7.031   7.723
19006SOL    HW158851   0.713   6.969   7.704
19006SOL    HW258852   0.753   7.080   7.799
19007SOL     OW58853  14.728  12.517   4.189
19007SOL    HW158854  14.785  12.481   4.256
19007SOL    HW258855  14.732  12.453   4.117
19008SOL     OW58856   5.921   7.091  14.031
19008SOL    HW158857   5.936   7.184  14.013
19008SOL    HW258858   5.846   7.067  13.977
19009SOL     OW58859  12.582  13.041   0.935
19009SOL    HW158860  12.566  13.131   0.905
19009SOL    HW258861  12.611  13.052   1.026
19010SOL     OW58862   2.855   3.440  13.309
19010SOL    HW158863   2.862   3.518  13.364
19010SOL    HW258864   2.835   3.474  13.221
19011SOL     OW58865  12.395   7.161   4.642
19011SOL    HW158866  12.449   7.093   4.604
19011SOL    HW258867  12.404   7.235   4.581
19012SOL     OW58868   0.472  13.638  11.370
19012SOL    HW158869   0.473  13.655  11.276
19012SOL    HW258870   0.550  13.681  11.403
19013SOL     OW58871   7.154  11.681   8.396
19013SOL    HW158872   7.077  11.738   8.392
19013SOL    HW258873   7.118  11.593   8.406
19014SOL     OW58874   3.329  13.847   3.951
19014SOL    HW158875   3.250  13.883   3.910
19014SOL    HW258876   3.339  13.898   4.032
19015SOL     OW58877   0.112   1.097  12.125
19015SOL    HW158878   0.131   1.171  12.183
19015SOL    HW258879   0.180   1.033  12.144
19016SOL     OW58880  12.592   3.005  11.908
19016SOL    HW158881  12.649   2.970  11.976
19016SOL    HW258882  12.511   3.026  11.954
19017SOL     OW58883   1.354   2.625  13.204
19017SOL    HW158884   1.428   2.650  13.148
19017SOL    HW258885   1.278   2.659  13.158
19018SOL     OW58886   8.683  12.300  10.000
19018SOL    HW158887   8.727  12.288  10.084
19018SOL    HW258888   8.619  12.370  10.016
19019SOL     OW58889   3.702  14.293   8.156
19019SOL    HW158890   3.703  14.200   8.179
19019SOL    HW258891   3.787  14.326   8.185
19020SOL     OW58892   1.878  12.130   7.345
19020SOL    HW158893   1.792  12.105   7.378
19020SOL    HW258894   1.900  12.210   7.392
19021SOL     OW58895   2.550   4.161   6.640
19021SOL    HW158896   2.471   4.207   6.611
19021SOL    HW258897   2.542   4.074   6.602
19022SOL     OW58898   6.781   9.417   9.944
19022SOL    HW158899   6.809   9.507   9.929
19022SOL    HW258900   6.779   9.409  10.040
19023SOL     OW58901   7.449   4.374  14.525
19023SOL    HW158902   7.438   4.293  14.576
19023SOL    HW258903   7.430   4.348  14.435
19024SOL     OW58904  12.927   3.735   0.516
19024SOL    HW158905  12.993   3.666   0.529
19024SOL    HW258906  12.976   3.817   0.522
19025SOL     OW58907  10.731  11.715   0.355
19025SOL    HW158908  10.723  11.633   0.404
19025SOL    HW258909  10.641  11.735   0.328
19026SOL     OW58910  13.285   3.203  13.911
19026SOL    HW158911  13.315   3.289  13.940
19026SOL    HW258912  13.353   3.142  13.941
19027SOL     OW58913   9.315  13.675   9.119
19027SOL    HW158914   9.385  13.611   9.129
19027SOL    HW258915   9.248  13.647   9.181
19028SOL     OW58916  13.998   1.361   2.742
19028SOL    HW158917  13.992   1.451   2.708
19028SOL    HW258918  14.077   1.326   2.702
19029SOL     OW58919   5.715   6.306   6.049
19029SOL    HW158920   5.727   6.369   6.120
19029SOL    HW258921   5.621   6.310   6.029
19030SOL     OW58922   2.675   6.744  11.568
19030SOL    HW158923   2.752   6.801  11.569
19030SOL    HW258924   2.630   6.763  11.650
19031SOL     OW58925   1.103   4.104   5.510
19031SOL    HW158926   1.077   4.036   5.447
19031SOL    HW258927   1.175   4.064   5.559
19032SOL     OW58928   3.030   1.781  11.212
19032SOL    HW158929   2.982   1.728  11.148
19032SOL    HW258930   2.985   1.866  11.211
19033SOL     OW58931   1.191  12.116   5.165
19033SOL    HW158932   1.250  12.167   5.221
19033SOL    HW258933   1.243  12.040   5.139
19034SOL     OW58934  13.437  10.514   5.688
19034SOL    HW158935  13.392  10.569   5.624
19034SOL    HW258936  13.373  10.446   5.710
19035SOL     OW58937   8.047  14.587   0.234
19035SOL    HW158938   8.053  14.596   0.139
19035SOL    HW258939   8.021  14.496   0.248
19036SOL     OW58940   6.847   4.744   2.251
19036SOL    HW158941   6.905   4.694   2.308
19036SOL    HW258942   6.898   4.758   2.171
19037SOL     OW58943  14.137  13.126  14.198
19037SOL    HW158944  14.066  13.144  14.137
19037SOL    HW258945  14.109  13.167  14.280
19038SOL     OW58946   9.035  11.898  12.043
19038SOL    HW158947   9.020  11.967  12.107
19038SOL    HW258948   8.970  11.913  11.975
19039SOL     OW58949   3.830   2.194   4.249
19039SOL    HW158950   3.893   2.170   4.182
19039SOL    HW258951   3.879   2.250   4.310
19040SOL     OW58952  12.565  10.425   6.967
19040SOL    HW158953  12.514  10.389   7.040
19040SOL    HW258954  12.568  10.519   6.985
19041SOL     OW58955  12.016   2.599  14.566
19041SOL    HW158956  12.041   2.531  14.504
19041SOL    HW258957  12.096   2.617  14.616
19042SOL     OW58958   6.414   2.726   2.469
19042SOL    HW158959   6.329   2.683   2.483
19042SOL    HW258960   6.402   2.777   2.389
19043SOL     OW58961   9.405   7.476   6.937
19043SOL    HW158962   9.316   7.443   6.944
19043SOL    HW258963   9.460   7.398   6.935
19044SOL     OW58964   5.221   0.768   6.233
19044SOL    HW158965   5.142   0.819   6.217
19044SOL    HW258966   5.286   0.807   6.175
19045SOL     OW58967  14.519   9.967   0.499
19045SOL    HW158968  14.560   9.900   0.444
19045SOL    HW258969  14.521  10.046   0.445
19046SOL     OW58970   0.365   9.236   3.695
19046SOL    HW158971   0.399   9.184   3.769
19046SOL    HW258972   0.326   9.172   3.636
19047SOL     OW58973  11.494  13.273   8.083
19047SOL    HW158974  11.502  13.193   8.032
19047SOL    HW258975  11.461  13.245   8.168
19048SOL     OW58976  14.722   9.155   2.664
19048SOL    HW158977  14.788   9.212   2.704
19048SOL    HW258978  14.672   9.120   2.738
19049SOL     OW58979  10.914  11.317   3.081
19049SOL    HW158980  10.919  11.268   2.999
19049SOL    HW258981  10.877  11.255   3.144
19050SOL     OW58982   5.628   8.251   8.253
19050SOL    HW158983   5.664   8.227   8.167
19050SOL    HW258984   5.668   8.189   8.314
19051SOL     OW58985   5.608   9.375   8.585
19051SOL    HW158986   5.701   9.367   8.563
19051SOL    HW258987   5.605   9.441   8.654
19052SOL     OW58988   4.114   0.203  10.092
19052SOL    HW158989   4.159   0.118  10.098
19052SOL    HW258990   4.184   0.266  10.077
19053SOL     OW58991   5.333   3.926   9.002
19053SOL    HW158992   5.320   3.874   9.081
19053SOL    HW258993   5.310   3.867   8.930
19054SOL     OW58994   1.192   8.104   3.111
19054SOL    HW158995   1.197   8.199   3.103
19054SOL    HW258996   1.268   8.080   3.163
19055SOL     OW58997   5.884  13.305  11.862
19055SOL    HW158998   5.963  13.356  11.847
19055SOL    HW258999   5.910  13.237  11.924
19056SOL     OW59000   1.934   8.463  14.646
19056SOL    HW159001   1.925   8.472  14.551
19056SOL    HW259002   1.844   8.448  14.676
19057SOL     OW59003   7.171   1.714   3.735
19057SOL    HW159004   7.117   1.760   3.670
19057SOL    HW259005   7.216   1.783   3.782
19058SOL     OW59006  14.209   5.319  10.227
19058SOL    HW159007  14.137   5.256  10.226
19058SOL    HW259008  14.233   5.329  10.135
19059SOL     OW59009   4.363   2.206   1.397
19059SOL    HW159010   4.413   2.133   1.433
19059SOL    HW259011   4.346   2.181   1.306
19060SOL     OW59012  14.765  14.699   6.650
19060SOL    HW159013  14.744  14.755   6.724
19060SOL    HW259014  14.683  14.694   6.600
19061SOL     OW59015   6.202  12.333  12.363
19061SOL    HW159016   6.250  12.380  12.431
19061SOL    HW259017   6.162  12.259  12.409
19062SOL     OW59018  13.856  10.227   3.836
19062SOL    HW159019  13.792  10.183   3.780
19062SOL    HW259020  13.814  10.309   3.860
19063SOL     OW59021  11.374  12.302   6.847
19063SOL    HW159022  11.314  12.301   6.921
19063SOL    HW259023  11.318  12.322   6.771
19064SOL     OW59024   6.604   6.104   7.529
19064SOL    HW159025   6.619   6.010   7.522
19064SOL    HW259026   6.672   6.135   7.590
19065SOL     OW59027   9.650   4.312   7.784
19065SOL    HW159028   9.699   4.363   7.719
19065SOL    HW259029   9.562   4.350   7.782
19066SOL     OW59030  11.698   6.930  13.690
19066SOL    HW159031  11.732   6.848  13.724
19066SOL    HW259032  11.715   6.994  13.759
19067SOL     OW59033   5.008   8.552   0.676
19067SOL    HW159034   5.017   8.462   0.646
19067SOL    HW259035   5.079   8.599   0.632
19068SOL     OW59036   6.232   6.535   3.388
19068SOL    HW159037   6.240   6.600   3.317
19068SOL    HW259038   6.139   6.531   3.407
19069SOL     OW59039   1.683  11.814   7.694
19069SOL    HW159040   1.596  11.812   7.655
19069SOL    HW259041   1.734  11.871   7.636
19070SOL     OW59042  11.321   1.090  11.345
19070SOL    HW159043  11.245   1.096  11.402
19070SOL    HW259044  11.394   1.069  11.403
19071SOL     OW59045  14.225   5.325   8.042
19071SOL    HW159046  14.281   5.401   8.024
19071SOL    HW259047  14.160   5.357   8.104
19072SOL     OW59048  11.604   6.095   0.416
19072SOL    HW159049  11.556   6.159   0.468
19072SOL    HW259050  11.551   6.084   0.337
19073SOL     OW59051   7.070  10.081   9.830
19073SOL    HW159052   7.158  10.072   9.864
19073SOL    HW259053   7.055  10.176   9.826
19074SOL     OW59054   2.614   5.755  11.825
19074SOL    HW159055   2.687   5.787  11.877
19074SOL    HW259056   2.563   5.834  11.804
19075SOL     OW59057  14.769  10.081  11.249
19075SOL    HW159058  14.745  10.168  11.216
19075SOL    HW259059  14.802  10.097  11.337
19076SOL     OW59060   8.785  13.486   0.491
19076SOL    HW159061   8.877  13.494   0.465
19076SOL    HW259062   8.787  13.428   0.567
19077SOL     OW59063   8.726   5.634   3.194
19077SOL    HW159064   8.726   5.597   3.106
19077SOL    HW259065   8.683   5.568   3.248
19078SOL     OW59066   1.765  13.240   6.587
19078SOL    HW159067   1.692  13.270   6.642
19078SOL    HW259068   1.724  13.186   6.520
19079SOL     OW59069   5.717   9.084   0.134
19079SOL    HW159070   5.689   8.995   0.154
19079SOL    HW259071   5.678   9.138   0.204
19080SOL     OW59072   2.438   8.120  14.635
19080SOL    HW159073   2.525   8.081  14.626
19080SOL    HW259074   2.455   8.214  14.642
19081SOL     OW59075   2.710   5.164   9.007
19081SOL    HW159076   2.767   5.088   9.022
19081SOL    HW259077   2.726   5.221   9.082
19082SOL     OW59078   5.433   1.808  11.176
19082SOL    HW159079   5.407   1.898  11.199
19082SOL    HW259080   5.469   1.816  11.087
19083SOL     OW59081  12.174   4.067   3.853
19083SOL    HW159082  12.188   4.035   3.942
19083SOL    HW259083  12.257   4.109   3.829
19084SOL     OW59084  12.299   0.343   5.487
19084SOL    HW159085  12.206   0.334   5.468
19084SOL    HW259086  12.304   0.413   5.552
19085SOL     OW59087   0.768  14.721  14.202
19085SOL    HW159088   0.780  14.629  14.224
19085SOL    HW259089   0.679  14.741  14.233
19086SOL     OW59090   5.008   3.781   3.863
19086SOL    HW159091   4.925   3.738   3.843
19086SOL    HW259092   5.075   3.719   3.835
19087SOL     OW59093   6.934   7.606  10.626
19087SOL    HW159094   6.882   7.632  10.702
19087SOL    HW259095   6.871   7.602  10.554
19088SOL     OW59096   5.859  12.617  10.825
19088SOL    HW159097   5.873  12.632  10.732
19088SOL    HW259098   5.906  12.536  10.844
19089SOL     OW59099   0.263   7.534  12.662
19089SOL    HW159100   0.195   7.562  12.601
19089SOL    HW259101   0.233   7.565  12.748
19090SOL     OW59102   9.669   8.939  13.426
19090SOL    HW159103   9.694   8.967  13.514
19090SOL    HW259104   9.667   9.020  13.375
19091SOL     OW59105   8.679   8.820   8.166
19091SOL    HW159106   8.763   8.799   8.126
19091SOL    HW259107   8.680   8.774   8.250
19092SOL     OW59108   8.483   4.858   8.938
19092SOL    HW159109   8.522   4.803   8.871
19092SOL    HW259110   8.550   4.924   8.958
19093SOL     OW59111  13.725   0.268   0.700
19093SOL    HW159112  13.661   0.258   0.630
19093SOL    HW259113  13.809   0.276   0.655
19094SOL     OW59114  10.959   9.879   5.863
19094SOL    HW159115  11.037   9.932   5.849
19094SOL    HW259116  10.901   9.902   5.790
19095SOL     OW59117  13.356   3.176   0.468
19095SOL    HW159118  13.340   3.237   0.539
19095SOL    HW259119  13.393   3.098   0.510
19096SOL     OW59120   1.469   4.772  10.376
19096SOL    HW159121   1.547   4.717  10.382
19096SOL    HW259122   1.502   4.861  10.372
19097SOL     OW59123  11.696   8.339  11.469
19097SOL    HW159124  11.660   8.412  11.518
19097SOL    HW259125  11.765   8.377  11.415
19098SOL     OW59126   1.936   9.334   1.195
19098SOL    HW159127   1.860   9.334   1.253
19098SOL    HW259128   1.908   9.284   1.119
19099SOL     OW59129   4.663   5.222   0.674
19099SOL    HW159130   4.729   5.176   0.726
19099SOL    HW259131   4.700   5.226   0.586
19100SOL     OW59132  14.010   7.905   4.359
19100SOL    HW159133  14.079   7.899   4.293
19100SOL    HW259134  13.929   7.897   4.309
19101SOL     OW59135   5.508   1.326   8.586
19101SOL    HW159136   5.555   1.382   8.524
19101SOL    HW259137   5.576   1.292   8.644
19102SOL     OW59138   2.788   4.814   0.654
19102SOL    HW159139   2.861   4.848   0.602
19102SOL    HW259140   2.809   4.840   0.744
19103SOL     OW59141   0.232  13.003   3.257
19103SOL    HW159142   0.139  12.985   3.272
19103SOL    HW259143   0.254  12.951   3.180
19104SOL     OW59144   0.677   5.082   4.186
19104SOL    HW159145   0.590   5.047   4.165
19104SOL    HW259146   0.662   5.140   4.261
19105SOL     OW59147   1.571  12.069   0.472
19105SOL    HW159148   1.492  12.083   0.523
19105SOL    HW259149   1.585  11.974   0.474
19106SOL     OW59150   1.653   4.438  14.050
19106SOL    HW159151   1.563   4.450  14.083
19106SOL    HW259152   1.654   4.483  13.966
19107SOL     OW59153  12.971   1.664   8.606
19107SOL    HW159154  12.939   1.625   8.525
19107SOL    HW259155  12.965   1.758   8.591
19108SOL     OW59156   2.220   5.506   1.802
19108SOL    HW159157   2.238   5.504   1.896
19108SOL    HW259158   2.241   5.418   1.772
19109SOL     OW59159  11.389   2.320  14.392
19109SOL    HW159160  11.354   2.232  14.378
19109SOL    HW259161  11.475   2.305  14.431
19110SOL     OW59162   4.549   6.438   2.230
19110SOL    HW159163   4.497   6.466   2.155
19110SOL    HW259164   4.636   6.423   2.195
19111SOL     OW59165   3.802  11.136  13.624
19111SOL    HW159166   3.882  11.184  13.603
19111SOL    HW259167   3.746  11.149  13.548
19112SOL     OW59168   1.793  10.396   0.664
19112SOL    HW159169   1.781  10.435   0.577
19112SOL    HW259170   1.882  10.418   0.688
19113SOL     OW59171   0.057   7.494   7.033
19113SOL    HW159172   0.004   7.556   7.083
19113SOL    HW259173   0.015   7.409   7.046
19114SOL     OW59174   5.912   9.112   1.546
19114SOL    HW159175   5.877   9.162   1.620
19114SOL    HW259176   6.000   9.148   1.533
19115SOL     OW59177   6.688   1.664   7.373
19115SOL    HW159178   6.692   1.572   7.347
19115SOL    HW259179   6.771   1.682   7.416
19116SOL     OW59180   8.012   5.301   1.131
19116SOL    HW159181   8.058   5.290   1.215
19116SOL    HW259182   8.071   5.262   1.066
19117SOL     OW59183   0.918   3.338   6.585
19117SOL    HW159184   0.924   3.359   6.492
19117SOL    HW259185   0.895   3.245   6.587
19118SOL     OW59186  10.822  14.656   5.387
19118SOL    HW159187  10.856  14.728   5.441
19118SOL    HW259188  10.806  14.585   5.449
19119SOL     OW59189   7.468   5.204   2.179
19119SOL    HW159190   7.418   5.149   2.240
19119SOL    HW259191   7.441   5.294   2.201
19120SOL     OW59192   3.766   9.914  11.791
19120SOL    HW159193   3.756   9.995  11.840
19120SOL    HW259194   3.783   9.942  11.701
19121SOL     OW59195   1.450   0.563   3.662
19121SOL    HW159196   1.369   0.562   3.612
19121SOL    HW259197   1.498   0.639   3.629
19122SOL     OW59198   1.806   7.554   5.265
19122SOL    HW159199   1.718   7.546   5.302
19122SOL    HW259200   1.838   7.638   5.297
19123SOL     OW59201  12.803   6.131   0.027
19123SOL    HW159202  12.873   6.067   0.045
19123SOL    HW259203  12.850   6.212   0.005
19124SOL     OW59204   7.984   0.998   6.404
19124SOL    HW159205   7.949   1.086   6.419
19124SOL    HW259206   7.912   0.949   6.365
19125SOL     OW59207   4.268  10.911  14.260
19125SOL    HW159208   4.203  10.952  14.203
19125SOL    HW259209   4.270  10.819  14.233
19126SOL     OW59210   8.516   7.754  12.159
19126SOL    HW159211   8.576   7.694  12.204
19126SOL    HW259212   8.538   7.745  12.066
19127SOL     OW59213   0.316  12.179  10.954
19127SOL    HW159214   0.403  12.193  10.993
19127SOL    HW259215   0.264  12.253  10.984
19128SOL     OW59216  13.336   3.001   9.233
19128SOL    HW159217  13.250   2.977   9.267
19128SOL    HW259218  13.327   3.092   9.205
19129SOL     OW59219   0.424   2.611  13.732
19129SOL    HW159220   0.436   2.701  13.700
19129SOL    HW259221   0.332   2.607  13.757
19130SOL     OW59222   0.150   0.873   3.684
19130SOL    HW159223   0.158   0.779   3.703
19130SOL    HW259224   0.234   0.896   3.644
19131SOL     OW59225   5.040   0.960  11.800
19131SOL    HW159226   5.010   1.013  11.726
19131SOL    HW259227   5.083   0.884  11.760
19132SOL     OW59228   9.043   4.829  10.573
19132SOL    HW159229   9.121   4.857  10.525
19132SOL    HW259230   9.066   4.843  10.665
19133SOL     OW59231   8.118   9.332   5.756
19133SOL    HW159232   8.050   9.392   5.727
19133SOL    HW259233   8.074   9.275   5.820
19134SOL     OW59234  12.034  11.738  10.683
19134SOL    HW159235  11.997  11.824  10.706
19134SOL    HW259236  12.048  11.695  10.767
19135SOL     OW59237  13.010   1.916  14.783
19135SOL    HW159238  13.021   1.959  14.869
19135SOL    HW259239  13.045   1.980  14.721
19136SOL     OW59240   3.384  12.689   6.701
19136SOL    HW159241   3.463  12.731   6.736
19136SOL    HW259242   3.365  12.619   6.763
19137SOL     OW59243   6.049  13.456   1.700
19137SOL    HW159244   6.034  13.362   1.705
19137SOL    HW259245   6.144  13.466   1.706
19138SOL     OW59246   2.386   4.908   8.771
19138SOL    HW159247   2.444   4.984   8.777
19138SOL    HW259248   2.350   4.899   8.860
19139SOL     OW59249   4.832   3.699   6.893
19139SOL    HW159250   4.777   3.682   6.817
19139SOL    HW259251   4.881   3.618   6.907
19140SOL     OW59252   5.596  12.027  14.292
19140SOL    HW159253   5.615  12.072  14.375
19140SOL    HW259254   5.534  11.958  14.316
19141SOL     OW59255   4.555  14.024   9.403
19141SOL    HW159256   4.489  13.991   9.463
19141SOL    HW259257   4.635  13.978   9.427
19142SOL     OW59258   8.715   8.907   6.193
19142SOL    HW159259   8.809   8.906   6.177
19142SOL    HW259260   8.680   8.969   6.129
19143SOL     OW59261  10.284  10.194  14.130
19143SOL    HW159262  10.241  10.154  14.054
19143SOL    HW259263  10.376  10.203  14.103
19144SOL     OW59264   6.793   7.958  12.500
19144SOL    HW159265   6.709   7.988  12.535
19144SOL    HW259266   6.850   8.035  12.505
19145SOL     OW59267   3.364   4.675   0.033
19145SOL    HW159268   3.425   4.733  14.868
19145SOL    HW259269   3.392   4.675   0.125
19146SOL     OW59270   8.604   2.979   5.708
19146SOL    HW159271   8.526   2.927   5.727
19146SOL    HW259272   8.574   3.046   5.645
19147SOL     OW59273  10.402  14.812  11.927
19147SOL    HW159274  10.348  14.754  11.874
19147SOL    HW259275  10.440  14.756  11.994
19148SOL     OW59276  13.080   6.064  10.003
19148SOL    HW159277  13.101   6.097   9.915
19148SOL    HW259278  13.006   6.005   9.990
19149SOL     OW59279   0.610  10.989   5.428
19149SOL    HW159280   0.621  11.023   5.517
19149SOL    HW259281   0.530  11.032   5.396
19150SOL     OW59282  10.387  13.156  14.837
19150SOL    HW159283  10.417  13.130  14.750
19150SOL    HW259284  10.447  13.225  14.863
19151SOL     OW59285  11.184   7.402   0.268
19151SOL    HW159286  11.190   7.365   0.357
19151SOL    HW259287  11.254   7.468   0.265
19152SOL     OW59288  11.180  12.694   7.324
19152SOL    HW159289  11.124  12.704   7.400
19152SOL    HW259290  11.156  12.766   7.266
19153SOL     OW59291   6.664   5.174  14.351
19153SOL    HW159292   6.626   5.237  14.412
19153SOL    HW259293   6.747   5.214  14.323
19154SOL     OW59294   8.843  14.458  10.017
19154SOL    HW159295   8.871  14.549  10.032
19154SOL    HW259296   8.767  14.447  10.075
19155SOL     OW59297   3.779  13.669  10.579
19155SOL    HW159298   3.819  13.692  10.495
19155SOL    HW259299   3.750  13.579  10.567
19156SOL     OW59300   9.813  12.181   8.742
19156SOL    HW159301   9.866  12.226   8.808
19156SOL    HW259302   9.751  12.248   8.712
19157SOL     OW59303   1.390  13.307   4.956
19157SOL    HW159304   1.338  13.365   5.012
19157SOL    HW259305   1.386  13.222   5.000
19158SOL     OW59306   5.476   0.909   7.025
19158SOL    HW159307   5.381   0.911   7.013
19158SOL    HW259308   5.496   0.990   7.073
19159SOL     OW59309   1.416   6.407   3.379
19159SOL    HW159310   1.403   6.437   3.289
19159SOL    HW259311   1.499   6.361   3.378
19160SOL     OW59312   7.069  13.191   1.953
19160SOL    HW159313   7.130  13.165   2.022
19160SOL    HW259314   7.052  13.283   1.970
19161SOL     OW59315   1.607   1.108  11.881
19161SOL    HW159316   1.529   1.117  11.936
19161SOL    HW259317   1.576   1.063  11.803
19162SOL     OW59318   5.230   6.830  14.054
19162SOL    HW159319   5.294   6.898  14.075
19162SOL    HW259320   5.204   6.795  14.139
19163SOL     OW59321   0.452   4.072  12.095
19163SOL    HW159322   0.469   4.013  12.169
19163SOL    HW259323   0.413   4.015  12.028
19164SOL     OW59324   8.038   1.151   2.938
19164SOL    HW159325   7.965   1.123   2.994
19164SOL    HW259326   8.091   1.072   2.928
19165SOL     OW59327  11.863   6.830   8.465
19165SOL    HW159328  11.866   6.778   8.384
19165SOL    HW259329  11.771   6.827   8.492
19166SOL     OW59330   6.183   7.477  13.068
19166SOL    HW159331   6.108   7.427  13.102
19166SOL    HW259332   6.202   7.541  13.136
19167SOL     OW59333  14.061   0.806  12.151
19167SOL    HW159334  14.058   0.711  12.147
19167SOL    HW259335  13.969   0.833  12.143
19168SOL     OW59336   4.888   3.700  13.999
19168SOL    HW159337   4.926   3.680  13.913
19168SOL    HW259338   4.861   3.616  14.033
19169SOL     OW59339  14.859   7.091  14.871
19169SOL    HW159340   0.074   7.097  14.856
19169SOL    HW259341  14.821   7.083  14.783
19170SOL     OW59342  12.723   3.814  12.198
19170SOL    HW159343  12.632   3.807  12.170
19170SOL    HW259344  12.769   3.747  12.147
19171SOL     OW59345   5.407  11.837   5.765
19171SOL    HW159346   5.409  11.743   5.782
19171SOL    HW259347   5.339  11.849   5.699
19172SOL     OW59348   7.043   4.054   9.974
19172SOL    HW159349   7.030   3.960   9.963
19172SOL    HW259350   7.133   4.063  10.004
19173SOL     OW59351   5.614   2.658   5.906
19173SOL    HW159352   5.686   2.595   5.910
19173SOL    HW259353   5.536   2.607   5.928
19174SOL     OW59354  12.090  13.630   8.527
19174SOL    HW159355  12.165  13.689   8.536
19174SOL    HW259356  12.080  13.617   8.433
19175SOL     OW59357   6.753   2.728  10.749
19175SOL    HW159358   6.665   2.746  10.782
19175SOL    HW259359   6.778   2.808  10.704
19176SOL     OW59360   7.483  13.753   9.616
19176SOL    HW159361   7.472  13.824   9.553
19176SOL    HW259362   7.548  13.786   9.678
19177SOL     OW59363   8.045   9.311   8.419
19177SOL    HW159364   8.042   9.221   8.450
19177SOL    HW259365   7.983   9.314   8.346
19178SOL     OW59366   2.713   6.863   9.578
19178SOL    HW159367   2.693   6.956   9.581
19178SOL    HW259368   2.747   6.848   9.490
19179SOL     OW59369   9.989  11.689  12.641
19179SOL    HW159370   9.988  11.594  12.644
19179SOL    HW259371   9.909  11.713  12.594
19180SOL     OW59372   2.057   6.115   8.544
19180SOL    HW159373   2.098   6.087   8.463
19180SOL    HW259374   2.040   6.208   8.532
19181SOL     OW59375   4.040   0.277  12.363
19181SOL    HW159376   4.014   0.216  12.295
19181SOL    HW259377   3.958   0.309  12.400
19182SOL     OW59378   5.112   6.280   1.944
19182SOL    HW159379   5.048   6.277   1.873
19182SOL    HW259380   5.154   6.365   1.936
19183SOL     OW59381   7.885  11.801   4.202
19183SOL    HW159382   7.948  11.812   4.131
19183SOL    HW259383   7.925  11.736   4.260
19184SOL     OW59384   2.637  10.509   8.347
19184SOL    HW159385   2.566  10.505   8.412
19184SOL    HW259386   2.612  10.444   8.281
19185SOL     OW59387  13.508   8.531  10.255
19185SOL    HW159388  13.454   8.539  10.176
19185SOL    HW259389  13.596   8.557  10.226
19186SOL     OW59390   8.131   3.250   9.971
19186SOL    HW159391   8.075   3.323   9.946
19186SOL    HW259392   8.183   3.283  10.044
19187SOL     OW59393   9.527  10.219  11.289
19187SOL    HW159394   9.461  10.265  11.237
19187SOL    HW259395   9.510  10.126  11.274
19188SOL     OW59396   9.039   8.447   3.856
19188SOL    HW159397   8.965   8.406   3.811
19188SOL    HW259398   9.064   8.520   3.800
19189SOL     OW59399   2.856   5.021  14.595
19189SOL    HW159400   2.844   4.963  14.520
19189SOL    HW259401   2.787   5.086  14.588
19190SOL     OW59402   8.359   1.655   8.661
19190SOL    HW159403   8.415   1.585   8.630
19190SOL    HW259404   8.411   1.702   8.726
19191SOL     OW59405  11.000   4.585   1.839
19191SOL    HW159406  11.087   4.585   1.880
19191SOL    HW259407  10.986   4.494   1.813
19192SOL     OW59408  13.735   7.720   2.859
19192SOL    HW159409  13.803   7.786   2.874
19192SOL    HW259410  13.654   7.764   2.883
19193SOL     OW59411   1.074  12.343  12.841
19193SOL    HW159412   1.113  12.260  12.869
19193SOL    HW259413   0.986  12.342  12.879
19194SOL     OW59414   9.593   2.076  10.701
19194SOL    HW159415   9.577   1.992  10.658
19194SOL    HW259416   9.512   2.094  10.749
19195SOL     OW59417   9.455  13.252  12.982
19195SOL    HW159418   9.493  13.191  12.918
19195SOL    HW259419   9.375  13.208  13.011
19196SOL     OW59420   2.318   6.202  10.456
19196SOL    HW159421   2.403   6.244  10.445
19196SOL    HW259422   2.328   6.116  10.416
19197SOL     OW59423   3.787  10.935   5.796
19197SOL    HW159424   3.794  10.867   5.729
19197SOL    HW259425   3.693  10.938   5.818
19198SOL     OW59426  10.585   2.679  10.115
19198SOL    HW159427  10.555   2.596  10.153
19198SOL    HW259428  10.514   2.741  10.135
19199SOL     OW59429   6.207   9.489   2.732
19199SOL    HW159430   6.251   9.424   2.677
19199SOL    HW259431   6.114   9.465   2.727
19200SOL     OW59432   3.160  13.315   4.585
19200SOL    HW159433   3.249  13.323   4.618
19200SOL    HW259434   3.113  13.269   4.654
19201SOL     OW59435   0.099  12.204   4.856
19201SOL    HW159436   0.164  12.137   4.837
19201SOL    HW259437   0.149  12.278   4.890
19202SOL     OW59438   3.629   4.458   3.845
19202SOL    HW159439   3.593   4.515   3.778
19202SOL    HW259440   3.718   4.490   3.859
19203SOL     OW59441   6.314   8.545   0.218
19203SOL    HW159442   6.386   8.566   0.158
19203SOL    HW259443   6.357   8.514   0.297
19204SOL     OW59444   5.045  11.392   8.987
19204SOL    HW159445   4.973  11.402   8.925
19204SOL    HW259446   5.004  11.402   9.073
19205SOL     OW59447  11.521   5.974   1.110
19205SOL    HW159448  11.544   5.883   1.093
19205SOL    HW259449  11.426   5.974   1.120
19206SOL     OW59450   6.416   2.607   1.961
19206SOL    HW159451   6.343   2.550   1.985
19206SOL    HW259452   6.418   2.673   2.031
19207SOL     OW59453  11.274   7.861  14.236
19207SOL    HW159454  11.305   7.800  14.303
19207SOL    HW259455  11.321   7.836  14.156
19208SOL     OW59456   6.327  11.250  14.406
19208SOL    HW159457   6.311  11.156  14.409
19208SOL    HW259458   6.359  11.272  14.493
19209SOL     OW59459   7.799   7.901   5.423
19209SOL    HW159460   7.749   7.964   5.372
19209SOL    HW259461   7.750   7.891   5.504
19210SOL     OW59462   3.665   7.309   3.559
19210SOL    HW159463   3.618   7.357   3.628
19210SOL    HW259464   3.645   7.358   3.479
19211SOL     OW59465  14.738  14.849   3.474
19211SOL    HW159466  14.647  14.834   3.449
19211SOL    HW259467  14.767   0.041   3.417
19212SOL     OW59468   1.577   5.932   7.370
19212SOL    HW159469   1.659   5.977   7.349
19212SOL    HW259470   1.546   5.899   7.286
19213SOL     OW59471  13.540   5.875   9.564
19213SOL    HW159472  13.530   5.951   9.507
19213SOL    HW259473  13.615   5.828   9.529
19214SOL     OW59474   6.950   6.903   6.565
19214SOL    HW159475   6.904   6.823   6.592
19214SOL    HW259476   6.928   6.967   6.632
19215SOL     OW59477   3.697   6.398   1.591
19215SOL    HW159478   3.649   6.407   1.674
19215SOL    HW259479   3.641   6.343   1.537
19216SOL     OW59480   9.280   6.870   2.956
19216SOL    HW159481   9.354   6.860   2.897
19216SOL    HW259482   9.203   6.861   2.901
19217SOL     OW59483   7.651   6.276  14.812
19217SOL    HW159484   7.619   6.366  14.817
19217SOL    HW259485   7.720   6.279  14.746
19218SOL     OW59486   4.121   9.208  14.191
19218SOL    HW159487   4.169   9.141  14.239
19218SOL    HW259488   4.029   9.182  14.197
19219SOL     OW59489  10.188   8.638   4.728
19219SOL    HW159490  10.221   8.578   4.662
19219SOL    HW259491  10.180   8.585   4.807
19220SOL     OW59492  14.022  12.440  14.221
19220SOL    HW159493  14.102  12.417  14.175
19220SOL    HW259494  13.959  12.373  14.195
19221SOL     OW59495   5.178  10.356   5.298
19221SOL    HW159496   5.232  10.331   5.224
19221SOL    HW259497   5.088  10.341   5.269
19222SOL     OW59498   4.917   2.772  12.111
19222SOL    HW159499   4.947   2.849  12.063
19222SOL    HW259500   4.953   2.783  12.199
19223SOL     OW59501   1.325   3.099  14.487
19223SOL    HW159502   1.387   3.062  14.424
19223SOL    HW259503   1.244   3.108  14.437
19224SOL     OW59504   9.644   6.476  12.748
19224SOL    HW159505   9.573   6.536  12.772
19224SOL    HW259506   9.724   6.525  12.765
19225SOL     OW59507   3.089  13.659   5.009
19225SOL    HW159508   3.077  13.753   4.995
19225SOL    HW259509   3.183  13.645   5.001
19226SOL     OW59510   7.825   8.377  11.372
19226SOL    HW159511   7.874   8.333  11.442
19226SOL    HW259512   7.758   8.428  11.419
19227SOL     OW59513   0.295  13.622   6.965
19227SOL    HW159514   0.294  13.591   6.874
19227SOL    HW259515   0.326  13.713   6.958
19228SOL     OW59516   8.889   8.293  12.013
19228SOL    HW159517   8.827   8.307  11.941
19228SOL    HW259518   8.876   8.368  12.071
19229SOL     OW59519   4.349   8.003   9.702
19229SOL    HW159520   4.382   7.913   9.690
19229SOL    HW259521   4.258   7.998   9.672
19230SOL     OW59522   4.885   7.256   8.066
19230SOL    HW159523   4.949   7.279   8.133
19230SOL    HW259524   4.938   7.237   7.988
19231SOL     OW59525   4.631   0.154   8.383
19231SOL    HW159526   4.596   0.233   8.424
19231SOL    HW259527   4.610   0.164   8.290
19232SOL     OW59528  10.725   8.005  12.516
19232SOL    HW159529  10.724   7.912  12.539
19232SOL    HW259530  10.800   8.014  12.457
19233SOL     OW59531   9.555  11.153  11.832
19233SOL    HW159532   9.487  11.211  11.801
19233SOL    HW259533   9.619  11.151  11.760
19234SOL     OW59534   9.093  14.759  12.809
19234SOL    HW159535   9.067  14.826  12.745
19234SOL    HW259536   9.086  14.676  12.761
19235SOL     OW59537   8.553   0.428  13.616
19235SOL    HW159538   8.503   0.493  13.665
19235SOL    HW259539   8.555   0.462  13.526
19236SOL     OW59540  12.240  10.671   1.493
19236SOL    HW159541  12.292  10.699   1.417
19236SOL    HW259542  12.179  10.743   1.507
19237SOL     OW59543   5.223  10.029   8.755
19237SOL    HW159544   5.286   9.966   8.790
19237SOL    HW259545   5.197  10.081   8.830
19238SOL     OW59546   9.825  11.137   9.924
19238SOL    HW159547   9.782  11.053   9.913
19238SOL    HW259548   9.789  11.173  10.005
19239SOL     OW59549   9.447   2.723  12.968
19239SOL    HW159550   9.384   2.687  12.906
19239SOL    HW259551   9.492   2.646  13.003
19240SOL     OW59552   8.238   5.443  12.842
19240SOL    HW159553   8.239   5.517  12.903
19240SOL    HW259554   8.273   5.479  12.760
19241SOL     OW59555   9.270   4.635   7.937
19241SOL    HW159556   9.215   4.644   8.015
19241SOL    HW259557   9.358   4.660   7.966
19242SOL     OW59558  13.897  14.453   9.050
19242SOL    HW159559  13.890  14.385   9.117
19242SOL    HW259560  13.883  14.535   9.097
19243SOL     OW59561   0.398   6.685   2.197
19243SOL    HW159562   0.443   6.601   2.182
19243SOL    HW259563   0.399   6.728   2.112
19244SOL     OW59564   1.381   5.030   1.717
19244SOL    HW159565   1.474   5.049   1.703
19244SOL    HW259566   1.371   4.938   1.692
19245SOL     OW59567  12.783   1.090  10.885
19245SOL    HW159568  12.733   1.011  10.906
19245SOL    HW259569  12.782   1.094  10.790
19246SOL     OW59570   2.179  12.758   5.238
19246SOL    HW159571   2.210  12.668   5.249
19246SOL    HW259572   2.255  12.812   5.263
19247SOL     OW59573   4.560  12.077   7.068
19247SOL    HW159574   4.477  12.037   7.091
19247SOL    HW259575   4.597  12.020   7.000
19248SOL     OW59576  10.089  13.841   5.367
19248SOL    HW159577  10.064  13.774   5.430
19248SOL    HW259578  10.034  13.824   5.291
19249SOL     OW59579  12.236  12.600   5.477
19249SOL    HW159580  12.249  12.625   5.568
19249SOL    HW259581  12.155  12.550   5.477
19250SOL     OW59582   5.682   2.884   6.055
19250SOL    HW159583   5.653   2.808   6.004
19250SOL    HW259584   5.777   2.874   6.062
19251SOL     OW59585   3.707  14.732   2.576
19251SOL    HW159586   3.692  14.667   2.508
19251SOL    HW259587   3.684  14.688   2.658
19252SOL     OW59588   1.790   4.623   8.302
19252SOL    HW159589   1.837   4.563   8.244
19252SOL    HW259590   1.793   4.581   8.388
19253SOL     OW59591   4.227  10.383   8.425
19253SOL    HW159592   4.160  10.416   8.366
19253SOL    HW259593   4.232  10.289   8.406
19254SOL     OW59594  11.057   6.232   9.011
19254SOL    HW159595  11.146   6.256   9.034
19254SOL    HW259596  11.056   6.229   8.916
19255SOL     OW59597   8.427  14.392  14.107
19255SOL    HW159598   8.506  14.428  14.067
19255SOL    HW259599   8.373  14.469  14.126
19256SOL     OW59600   8.398   0.458   4.453
19256SOL    HW159601   8.436   0.544   4.437
19256SOL    HW259602   8.473   0.398   4.453
19257SOL     OW59603  14.848  11.944  14.654
19257SOL    HW159604   0.061  11.928  14.633
19257SOL    HW259605  14.846  12.035  14.684
19258SOL     OW59606   4.359  10.167   0.049
19258SOL    HW159607   4.302  10.206   0.116
19258SOL    HW259608   4.412  10.103   0.097
19259SOL     OW59609   2.105  12.666   7.835
19259SOL    HW159610   2.009  12.671   7.827
19259SOL    HW259611   2.120  12.602   7.905
19260SOL     OW59612   5.526   9.146   3.834
19260SOL    HW159613   5.619   9.131   3.819
19260SOL    HW259614   5.523   9.224   3.890
19261SOL     OW59615  11.487   2.344   9.221
19261SOL    HW159616  11.392   2.334   9.227
19261SOL    HW259617  11.514   2.369   9.310
19262SOL     OW59618   6.759  12.393   3.644
19262SOL    HW159619   6.731  12.319   3.697
19262SOL    HW259620   6.759  12.361   3.554
19263SOL     OW59621   8.548   3.489  13.696
19263SOL    HW159622   8.578   3.526  13.613
19263SOL    HW259623   8.467   3.535  13.716
19264SOL     OW59624   4.470   6.725   5.006
19264SOL    HW159625   4.505   6.695   4.922
19264SOL    HW259626   4.479   6.820   5.003
19265SOL     OW59627   4.048   2.747   3.967
19265SOL    HW159628   4.087   2.668   4.003
19265SOL    HW259629   4.122   2.805   3.950
19266SOL     OW59630   7.968   7.624   7.508
19266SOL    HW159631   8.056   7.654   7.532
19266SOL    HW259632   7.915   7.704   7.506
19267SOL     OW59633   3.526  14.697   4.211
19267SOL    HW159634   3.556  14.720   4.122
19267SOL    HW259635   3.504  14.604   4.205
19268SOL     OW59636   6.187  13.785  12.467
19268SOL    HW159637   6.163  13.825  12.383
19268SOL    HW259638   6.106  13.786  12.518
19269SOL     OW59639  14.537   1.645   2.162
19269SOL    HW159640  14.502   1.679   2.080
19269SOL    HW259641  14.617   1.599   2.138
19270SOL     OW59642  11.617   0.263  10.928
19270SOL    HW159643  11.606   0.291  10.837
19270SOL    HW259644  11.711   0.262  10.942
19271SOL     OW59645  10.249   6.158   9.821
19271SOL    HW159646  10.208   6.244   9.825
19271SOL    HW259647  10.242   6.132   9.729
19272SOL     OW59648   9.564  12.864   0.448
19272SOL    HW159649   9.581  12.804   0.520
19272SOL    HW259650   9.506  12.930   0.485
19273SOL     OW59651   5.652   5.291   3.562
19273SOL    HW159652   5.706   5.212   3.556
19273SOL    HW259653   5.712   5.359   3.594
19274SOL     OW59654   2.313   9.971   0.678
19274SOL    HW159655   2.325  10.042   0.615
19274SOL    HW259656   2.400   9.934   0.689
19275SOL     OW59657   0.645   2.598   0.560
19275SOL    HW159658   0.652   2.612   0.466
19275SOL    HW259659   0.594   2.671   0.593
19276SOL     OW59660  11.696  10.263   3.250
19276SOL    HW159661  11.709  10.195   3.316
19276SOL    HW259662  11.784  10.300   3.236
19277SOL     OW59663   5.429   5.976   2.262
19277SOL    HW159664   5.353   5.993   2.207
19277SOL    HW259665   5.460   5.889   2.236
19278SOL     OW59666  10.020   1.882  13.263
19278SOL    HW159667  10.070   1.850  13.338
19278SOL    HW259668  10.069   1.958  13.233
19279SOL     OW59669  14.176   1.992   9.803
19279SOL    HW159670  14.270   1.991   9.783
19279SOL    HW259671  14.162   1.911   9.852
19280SOL     OW59672  14.654  11.946  13.673
19280SOL    HW159673  14.570  11.923  13.713
19280SOL    HW259674  14.653  12.042  13.670
19281SOL     OW59675   3.004  12.403   0.598
19281SOL    HW159676   3.054  12.440   0.525
19281SOL    HW259677   2.978  12.316   0.567
19282SOL     OW59678  13.223   7.982   5.970
19282SOL    HW159679  13.298   7.936   6.008
19282SOL    HW259680  13.157   7.982   6.040
19283SOL     OW59681  10.922   3.633  14.278
19283SOL    HW159682  10.864   3.596  14.344
19283SOL    HW259683  10.988   3.681  14.328
19284SOL     OW59684   7.848  12.648   3.953
19284SOL    HW159685   7.911  12.600   4.006
19284SOL    HW259686   7.774  12.588   3.943
19285SOL     OW59687   4.567   2.133   4.635
19285SOL    HW159688   4.590   2.222   4.660
19285SOL    HW259689   4.473   2.136   4.617
19286SOL     OW59690   9.213  13.166  10.827
19286SOL    HW159691   9.198  13.218  10.906
19286SOL    HW259692   9.217  13.231  10.756
19287SOL     OW59693   7.113   1.359   0.742
19287SOL    HW159694   7.057   1.340   0.817
19287SOL    HW259695   7.116   1.276   0.694
19288SOL     OW59696   7.613   2.853   8.450
19288SOL    HW159697   7.637   2.812   8.368
19288SOL    HW259698   7.686   2.911   8.471
19289SOL     OW59699   6.269   9.065   4.686
19289SOL    HW159700   6.196   9.053   4.746
19289SOL    HW259701   6.261   9.155   4.655
19290SOL     OW59702   8.431  11.121  11.916
19290SOL    HW159703   8.500  11.108  11.852
19290SOL    HW259704   8.477  11.147  11.996
19291SOL     OW59705   9.012   3.459   8.660
19291SOL    HW159706   8.989   3.479   8.750
19291SOL    HW259707   8.953   3.388   8.635
19292SOL     OW59708   4.785   7.491  13.420
19292SOL    HW159709   4.860   7.437  13.446
19292SOL    HW259710   4.775   7.475  13.327
19293SOL     OW59711  11.878   6.189   8.560
19293SOL    HW159712  11.858   6.113   8.506
19293SOL    HW259713  11.806   6.250   8.544
19294SOL     OW59714   8.991   3.870  14.161
19294SOL    HW159715   8.981   3.882  14.256
19294SOL    HW259716   8.973   3.777  14.147
19295SOL     OW59717  10.243  11.011   0.204
19295SOL    HW159718  10.265  10.922   0.176
19295SOL    HW259719  10.268  11.066   0.129
19296SOL     OW59720   3.773  13.293   6.094
19296SOL    HW159721   3.851  13.331   6.135
19296SOL    HW259722   3.736  13.365   6.043
19297SOL     OW59723  10.510   5.132   4.579
19297SOL    HW159724  10.445   5.191   4.541
19297SOL    HW259725  10.520   5.161   4.669
19298SOL     OW59726  14.201   9.909  13.613
19298SOL    HW159727  14.133   9.951  13.560
19298SOL    HW259728  14.156   9.884  13.694
19299SOL     OW59729  12.337   3.724   8.300
19299SOL    HW159730  12.377   3.699   8.217
19299SOL    HW259731  12.411   3.747   8.356
19300SOL     OW59732   7.267   7.776   3.661
19300SOL    HW159733   7.361   7.768   3.649
19300SOL    HW259734   7.247   7.867   3.636
19301SOL     OW59735  11.535  12.680   4.582
19301SOL    HW159736  11.591  12.705   4.655
19301SOL    HW259737  11.478  12.612   4.617
19302SOL     OW59738   6.821   2.759  12.562
19302SOL    HW159739   6.895   2.796  12.609
19302SOL    HW259740   6.792   2.686  12.617
19303SOL     OW59741   4.047   6.364   9.923
19303SOL    HW159742   4.088   6.418   9.855
19303SOL    HW259743   3.958   6.398   9.930
19304SOL     OW59744   3.142  11.569   3.790
19304SOL    HW159745   3.078  11.562   3.719
19304SOL    HW259746   3.094  11.540   3.868
19305SOL     OW59747   1.221   1.873   5.196
19305SOL    HW159748   1.256   1.857   5.284
19305SOL    HW259749   1.129   1.894   5.210
19306SOL     OW59750   5.357  10.208   1.700
19306SOL    HW159751   5.299  10.163   1.637
19306SOL    HW259752   5.443  10.167   1.686
19307SOL     OW59753   9.884   3.425  14.692
19307SOL    HW159754   9.873   3.330  14.689
19307SOL    HW259755   9.975   3.438  14.721
19308SOL     OW59756   5.079   8.618  11.386
19308SOL    HW159757   5.062   8.684  11.318
19308SOL    HW259758   5.171   8.594  11.374
19309SOL     OW59759   9.757  12.873   6.490
19309SOL    HW159760   9.683  12.825   6.452
19309SOL    HW259761   9.814  12.804   6.525
19310SOL     OW59762   5.419  10.935  14.264
19310SOL    HW159763   5.403  11.000  14.333
19310SOL    HW259764   5.471  10.982  14.199
19311SOL     OW59765  12.080  14.573   6.674
19311SOL    HW159766  12.033  14.598   6.753
19311SOL    HW259767  12.137  14.501   6.701
19312SOL     OW59768  13.010   3.545   8.943
19312SOL    HW159769  12.992   3.638   8.931
19312SOL    HW259770  13.104   3.540   8.962
19313SOL     OW59771   6.384   3.664   6.217
19313SOL    HW159772   6.332   3.721   6.160
19313SOL    HW259773   6.475   3.683   6.194
19314SOL     OW59774   6.626   4.675   8.595
19314SOL    HW159775   6.606   4.637   8.680
19314SOL    HW259776   6.570   4.627   8.534
19315SOL     OW59777  14.329  14.607   0.480
19315SOL    HW159778  14.250  14.569   0.519
19315SOL    HW259779  14.366  14.662   0.550
19316SOL     OW59780   0.653   3.216   9.544
19316SOL    HW159781   0.559   3.217   9.560
19316SOL    HW259782   0.688   3.283   9.605
19317SOL     OW59783   6.937   3.864   5.755
19317SOL    HW159784   7.008   3.810   5.720
19317SOL    HW259785   6.873   3.866   5.684
19318SOL     OW59786   7.032   1.749   9.593
19318SOL    HW159787   7.095   1.683   9.623
19318SOL    HW259788   7.085   1.814   9.548
19319SOL     OW59789  10.780  11.746   7.091
19319SOL    HW159790  10.694  11.771   7.124
19319SOL    HW259791  10.787  11.787   7.005
19320SOL     OW59792   4.016   9.602  13.104
19320SOL    HW159793   4.095   9.657  13.109
19320SOL    HW259794   3.958   9.638  13.171
19321SOL     OW59795   7.321  12.099  12.665
19321SOL    HW159796   7.231  12.127  12.681
19321SOL    HW259797   7.353  12.072  12.751
19322SOL     OW59798   6.898  12.017   3.707
19322SOL    HW159799   6.836  11.991   3.638
19322SOL    HW259800   6.857  11.987   3.788
19323SOL     OW59801   2.638   8.056  10.762
19323SOL    HW159802   2.599   7.972  10.739
19323SOL    HW259803   2.732   8.043  10.753
19324SOL     OW59804  14.696   3.836   6.366
19324SOL    HW159805  14.689   3.745   6.336
19324SOL    HW259806  14.753   3.832   6.443
19325SOL     OW59807  14.090  13.461   6.642
19325SOL    HW159808  14.092  13.517   6.564
19325SOL    HW259809  14.124  13.377   6.610
19326SOL     OW59810  12.755  10.037   0.047
19326SOL    HW159811  12.721   9.962  14.877
19326SOL    HW259812  12.848  10.020   0.055
19327SOL     OW59813  13.731   5.646   6.742
19327SOL    HW159814  13.649   5.606   6.772
19327SOL    HW259815  13.764   5.586   6.676
19328SOL     OW59816   1.708  10.095   1.317
19328SOL    HW159817   1.735  10.005   1.301
19328SOL    HW259818   1.668  10.093   1.405
19329SOL     OW59819  13.406   6.221  10.835
19329SOL    HW159820  13.486   6.227  10.783
19329SOL    HW259821  13.355   6.297  10.810
19330SOL     OW59822  10.013   7.363   9.016
19330SOL    HW159823  10.078   7.374   9.085
19330SOL    HW259824   9.946   7.429   9.034
19331SOL     OW59825   7.121   4.286  14.150
19331SOL    HW159826   7.166   4.251  14.073
19331SOL    HW259827   7.134   4.380  14.145
19332SOL     OW59828   3.568   4.269   6.463
19332SOL    HW159829   3.548   4.362   6.478
19332SOL    HW259830   3.661   4.261   6.481
19333SOL     OW59831   0.544   2.859   3.081
19333SOL    HW159832   0.458   2.865   3.123
19333SOL    HW259833   0.604   2.837   3.152
19334SOL     OW59834  10.796   5.135   6.166
19334SOL    HW159835  10.855   5.157   6.094
19334SOL    HW259836  10.743   5.064   6.132
19335SOL     OW59837   7.398   3.179  12.872
19335SOL    HW159838   7.362   3.216  12.952
19335SOL    HW259839   7.442   3.252  12.829
19336SOL     OW59840  14.002  14.256   4.603
19336SOL    HW159841  13.942  14.325   4.574
19336SOL    HW259842  14.089  14.296   4.595
19337SOL     OW59843   4.490   9.104  13.562
19337SOL    HW159844   4.414   9.107  13.620
19337SOL    HW259845   4.484   9.018  13.519
19338SOL     OW59846   8.946  13.851   6.461
19338SOL    HW159847   8.999  13.930   6.452
19338SOL    HW259848   8.881  13.858   6.391
19339SOL     OW59849   3.735   7.180   6.895
19339SOL    HW159850   3.674   7.107   6.898
19339SOL    HW259851   3.731   7.218   6.982
19340SOL     OW59852   9.360   2.266   8.438
19340SOL    HW159853   9.404   2.225   8.512
19340SOL    HW259854   9.270   2.232   8.441
19341SOL     OW59855   3.669  10.553   7.253
19341SOL    HW159856   3.662  10.609   7.176
19341SOL    HW259857   3.675  10.464   7.217
19342SOL     OW59858   2.850   6.744   7.377
19342SOL    HW159859   2.901   6.770   7.301
19342SOL    HW259860   2.796   6.821   7.398
19343SOL     OW59861   9.446  10.487   7.897
19343SOL    HW159862   9.364  10.471   7.849
19343SOL    HW259863   9.506  10.421   7.863
19344SOL     OW59864   2.361  10.183   9.518
19344SOL    HW159865   2.364  10.097   9.475
19344SOL    HW259866   2.401  10.243   9.456
19345SOL     OW59867  10.970   0.846   1.415
19345SOL    HW159868  10.966   0.775   1.351
19345SOL    HW259869  11.008   0.806   1.493
19346SOL     OW59870   9.646   4.957   9.286
19346SOL    HW159871   9.619   5.040   9.325
19346SOL    HW259872   9.721   4.929   9.338
19347SOL     OW59873   1.666   3.568   8.692
19347SOL    HW159874   1.619   3.636   8.741
19347SOL    HW259875   1.604   3.495   8.687
19348SOL     OW59876  11.333  10.837   3.388
19348SOL    HW159877  11.395  10.831   3.316
19348SOL    HW259878  11.345  10.925   3.423
19349SOL     OW59879   7.013  10.611   6.164
19349SOL    HW159880   7.106  10.591   6.179
19349SOL    HW259881   6.969  10.579   6.242
19350SOL     OW59882  14.384  12.299  12.715
19350SOL    HW159883  14.295  12.333  12.716
19350SOL    HW259884  14.382  12.228  12.650
19351SOL     OW59885   7.698   3.889  14.208
19351SOL    HW159886   7.782   3.917  14.244
19351SOL    HW259887   7.640   3.884  14.285
19352SOL     OW59888  11.290   2.999   6.727
19352SOL    HW159889  11.330   2.952   6.654
19352SOL    HW259890  11.231   2.936   6.767
19353SOL     OW59891   9.835   3.268   6.709
19353SOL    HW159892   9.786   3.204   6.656
19353SOL    HW259893   9.924   3.233   6.713
19354SOL     OW59894   9.873  13.381   4.381
19354SOL    HW159895   9.952  13.395   4.328
19354SOL    HW259896   9.900  13.400   4.471
19355SOL     OW59897   5.011  12.510   6.775
19355SOL    HW159898   5.017  12.577   6.843
19355SOL    HW259899   4.922  12.518   6.741
19356SOL     OW59900  12.075   4.593  13.632
19356SOL    HW159901  12.141   4.528  13.655
19356SOL    HW259902  12.055   4.638  13.714
19357SOL     OW59903   1.375   1.805  14.816
19357SOL    HW159904   1.444   1.871  14.822
19357SOL    HW259905   1.362   1.776   0.028
19358SOL     OW59906   3.007   0.222  12.925
19358SOL    HW159907   3.049   0.307  12.909
19358SOL    HW259908   3.078   0.167  12.961
19359SOL     OW59909  11.748  12.487   3.100
19359SOL    HW159910  11.763  12.407   3.051
19359SOL    HW259911  11.681  12.464   3.165
19360SOL     OW59912   7.466   6.043   4.220
19360SOL    HW159913   7.536   6.008   4.165
19360SOL    HW259914   7.511   6.074   4.299
19361SOL     OW59915  12.999  14.770  14.472
19361SOL    HW159916  12.996  14.724  14.388
19361SOL    HW259917  13.044  14.709  14.531
19362SOL     OW59918   1.175   4.176  11.441
19362SOL    HW159919   1.261   4.213  11.419
19362SOL    HW259920   1.183   4.150  11.532
19363SOL     OW59921   0.601   4.972  13.637
19363SOL    HW159922   0.696   4.963  13.642
19363SOL    HW259923   0.585   5.064  13.657
19364SOL     OW59924   0.635   8.076  11.937
19364SOL    HW159925   0.542   8.058  11.945
19364SOL    HW259926   0.678   8.003  11.981
19365SOL     OW59927   5.948   8.817  10.035
19365SOL    HW159928   5.920   8.730  10.063
19365SOL    HW259929   5.875   8.850   9.983
19366SOL     OW59930  12.558   5.549   2.177
19366SOL    HW159931  12.534   5.628   2.129
19366SOL    HW259932  12.476   5.514   2.210
19367SOL     OW59933   6.080   6.625   9.099
19367SOL    HW159934   6.145   6.623   9.169
19367SOL    HW259935   6.127   6.659   9.023
19368SOL     OW59936  11.750  12.633  11.361
19368SOL    HW159937  11.699  12.686  11.421
19368SOL    HW259938  11.793  12.696  11.303
19369SOL     OW59939  10.219  13.202  11.215
19369SOL    HW159940  10.234  13.165  11.302
19369SOL    HW259941  10.124  13.211  11.209
19370SOL     OW59942  14.246   1.393   0.596
19370SOL    HW159943  14.316   1.346   0.551
19370SOL    HW259944  14.242   1.352   0.683
19371SOL     OW59945  12.906   8.388   8.411
19371SOL    HW159946  12.932   8.298   8.432
19371SOL    HW259947  12.988   8.432   8.390
19372SOL     OW59948   2.619   0.718  10.104
19372SOL    HW159949   2.541   0.699  10.157
19372SOL    HW259950   2.585   0.724  10.014
19373SOL     OW59951   9.335   0.888   0.928
19373SOL    HW159952   9.384   0.815   0.965
19373SOL    HW259953   9.249   0.852   0.908
19374SOL     OW59954  14.777  11.680  14.307
19374SOL    HW159955  14.855  11.682  14.362
19374SOL    HW259956  14.764  11.587  14.287
19375SOL     OW59957   4.130   5.315   3.987
19375SOL    HW159958   4.153   5.229   4.022
19375SOL    HW259959   4.200   5.336   3.925
19376SOL     OW59960   8.730   3.364  10.080
19376SOL    HW159961   8.715   3.457  10.060
19376SOL    HW259962   8.760   3.327   9.997
19377SOL     OW59963   3.733  11.498   1.583
19377SOL    HW159964   3.645  11.475   1.612
19377SOL    HW259965   3.772  11.415   1.555
19378SOL     OW59966   0.527   8.987   5.041
19378SOL    HW159967   0.560   8.951   4.959
19378SOL    HW259968   0.441   8.946   5.053
19379SOL     OW59969   8.031  11.302   1.348
19379SOL    HW159970   7.999  11.221   1.388
19379SOL    HW259971   8.017  11.289   1.254
19380SOL     OW59972   7.882  12.817   0.263
19380SOL    HW159973   7.944  12.888   0.280
19380SOL    HW259974   7.937  12.739   0.251
19381SOL     OW59975  10.957   7.721   7.570
19381SOL    HW159976  11.031   7.719   7.509
19381SOL    HW259977  10.978   7.790   7.633
19382SOL     OW59978   4.492   5.402   7.309
19382SOL    HW159979   4.495   5.315   7.268
19382SOL    HW259980   4.573   5.444   7.281
19383SOL     OW59981   1.416   6.414   7.708
19383SOL    HW159982   1.385   6.335   7.753
19383SOL    HW259983   1.510   6.400   7.698
19384SOL     OW59984   0.650   2.618  14.739
19384SOL    HW159985   0.609   2.534  14.719
19384SOL    HW259986   0.744   2.600  14.740
19385SOL     OW59987  11.824   4.031   3.482
19385SOL    HW159988  11.787   3.967   3.422
19385SOL    HW259989  11.858   3.978   3.555
19386SOL     OW59990   1.544   2.034  11.912
19386SOL    HW159991   1.502   2.101  11.966
19386SOL    HW259992   1.637   2.055  11.917
19387SOL     OW59993  12.155   5.067  10.397
19387SOL    HW159994  12.135   5.102  10.310
19387SOL    HW259995  12.183   5.143  10.448
19388SOL     OW59996   1.987   3.187  12.707
19388SOL    HW159997   1.940   3.178  12.624
19388SOL    HW259998   2.078   3.165  12.685
19389SOL     OW59999   4.932  13.554   4.239
19389SOL    HW160000   4.932  13.617   4.311
19389SOL    HW260001   4.899  13.603   4.164
19390SOL     OW60002  10.847   6.460   6.832
19390SOL    HW160003  10.821   6.368   6.834
19390SOL    HW260004  10.922   6.465   6.890
19391SOL     OW60005   0.929   8.386  14.039
19391SOL    HW160006   0.848   8.347  14.007
19391SOL    HW260007   0.999   8.337  13.994
19392SOL     OW60008   9.212   8.067   7.053
19392SOL    HW160009   9.127   8.024   7.040
19392SOL    HW260010   9.276   7.997   7.040
19393SOL     OW60011   6.911   7.711   8.477
19393SOL    HW160012   6.834   7.674   8.519
19393SOL    HW260013   6.881   7.795   8.441
19394SOL     OW60014   0.683   9.547  10.554
19394SOL    HW160015   0.739   9.489  10.503
19394SOL    HW260016   0.643   9.490  10.620
19395SOL     OW60017   2.502   3.652   1.423
19395SOL    HW160018   2.596   3.658   1.436
19395SOL    HW260019   2.475   3.580   1.480
19396SOL     OW60020   6.425   5.572   2.926
19396SOL    HW160021   6.510   5.566   2.883
19396SOL    HW260022   6.440   5.630   3.000
19397SOL     OW60023  11.613  13.241   7.358
19397SOL    HW160024  11.566  13.232   7.275
19397SOL    HW260025  11.673  13.167   7.361
19398SOL     OW60026  13.792   5.348   4.942
19398SOL    HW160027  13.759   5.396   4.866
19398SOL    HW260028  13.760   5.258   4.929
19399SOL     OW60029  12.422   4.547   2.557
19399SOL    HW160030  12.365   4.622   2.541
19399SOL    HW260031  12.510   4.584   2.563
19400SOL     OW60032   5.095  12.979   2.520
19400SOL    HW160033   5.039  12.984   2.443
19400SOL    HW260034   5.184  12.975   2.485
19401SOL     OW60035   3.258  14.155  11.616
19401SOL    HW160036   3.185  14.111  11.660
19401SOL    HW260037   3.320  14.175  11.686
19402SOL     OW60038   3.734  13.313   0.050
19402SOL    HW160039   3.799  13.251   0.015
19402SOL    HW260040   3.785  13.385   0.086
19403SOL     OW60041   8.239  11.292   2.551
19403SOL    HW160042   8.300  11.309   2.622
19403SOL    HW260043   8.269  11.209   2.513
19404SOL     OW60044   8.175   5.960   3.011
19404SOL    HW160045   8.152   6.046   2.976
19404SOL    HW260046   8.267   5.967   3.036
19405SOL     OW60047   9.818   4.489   6.838
19405SOL    HW160048   9.745   4.547   6.862
19405SOL    HW260049   9.812   4.480   6.743
19406SOL     OW60050   2.468   6.936   0.137
19406SOL    HW160051   2.561   6.924   0.117
19406SOL    HW260052   2.449   6.868   0.201
19407SOL     OW60053   6.486   7.741  11.506
19407SOL    HW160054   6.476   7.768  11.415
19407SOL    HW260055   6.402   7.700  11.529
19408SOL     OW60056  11.521   7.282   2.318
19408SOL    HW160057  11.534   7.223   2.244
19408SOL    HW260058  11.451   7.341   2.290
19409SOL     OW60059  14.556  14.522   8.916
19409SOL    HW160060  14.639  14.485   8.947
19409SOL    HW260061  14.582  14.597   8.863
19410SOL     OW60062   4.343   6.864  10.189
19410SOL    HW160063   4.349   6.883  10.283
19410SOL    HW260064   4.388   6.781  10.178
19411SOL     OW60065  13.956   3.658  13.127
19411SOL    HW160066  13.884   3.623  13.073
19411SOL    HW260067  13.912   3.708  13.195
19412SOL     OW60068  13.527   9.244   2.126
19412SOL    HW160069  13.478   9.213   2.202
19412SOL    HW260070  13.602   9.291   2.163
19413SOL     OW60071  10.297  13.855   9.801
19413SOL    HW160072  10.316  13.899   9.718
19413SOL    HW260073  10.213  13.892   9.828
19414SOL     OW60074   0.346   3.866   8.176
19414SOL    HW160075   0.279   3.799   8.184
19414SOL    HW260076   0.429   3.818   8.179
19415SOL     OW60077  11.710   5.742   5.939
19415SOL    HW160078  11.678   5.684   5.870
19415SOL    HW260079  11.631   5.781   5.977
19416SOL     OW60080   6.908   9.703   6.598
19416SOL    HW160081   6.870   9.790   6.604
19416SOL    HW260082   6.911   9.684   6.504
19417SOL     OW60083  13.427   4.097  13.137
19417SOL    HW160084  13.447   4.140  13.054
19417SOL    HW260085  13.332   4.087  13.137
19418SOL     OW60086   8.257   4.111  10.483
19418SOL    HW160087   8.250   4.111  10.579
19418SOL    HW260088   8.166   4.111  10.453
19419SOL     OW60089   3.734   7.635  13.167
19419SOL    HW160090   3.713   7.578  13.242
19419SOL    HW260091   3.669   7.611  13.100
19420SOL     OW60092   4.782   8.745   7.653
19420SOL    HW160093   4.818   8.791   7.729
19420SOL    HW260094   4.831   8.780   7.579
19421SOL     OW60095   8.921   7.124  13.949
19421SOL    HW160096   8.898   7.187  14.017
19421SOL    HW260097   8.838   7.086  13.922
19422SOL     OW60098  11.328   1.287   2.853
19422SOL    HW160099  11.286   1.229   2.917
19422SOL    HW260100  11.413   1.247   2.837
19423SOL     OW60101  13.591   8.801   2.337
19423SOL    HW160102  13.496   8.800   2.332
19423SOL    HW260103  13.611   8.784   2.429
19424SOL     OW60104  11.820   7.636  10.172
19424SOL    HW160105  11.826   7.698  10.245
19424SOL    HW260106  11.741   7.585  10.190
19425SOL     OW60107  10.591   9.572   0.444
19425SOL    HW160108  10.589   9.575   0.348
19425SOL    HW260109  10.659   9.635   0.468
19426SOL     OW60110   3.185  10.438  10.332
19426SOL    HW160111   3.140  10.488  10.265
19426SOL    HW260112   3.217  10.360  10.287
19427SOL     OW60113   3.458   8.255   0.238
19427SOL    HW160114   3.516   8.195   0.285
19427SOL    HW260115   3.371   8.215   0.245
19428SOL     OW60116  13.123  10.147   7.457
19428SOL    HW160117  13.031  10.122   7.447
19428SOL    HW260118  13.120  10.241   7.473
19429SOL     OW60119  10.465  11.009   2.337
19429SOL    HW160120  10.372  11.026   2.320
19429SOL    HW260121  10.496  11.091   2.377
19430SOL     OW60122   9.253   3.904  11.279
19430SOL    HW160123   9.186   3.838  11.297
19430SOL    HW260124   9.225   3.981  11.328
19431SOL     OW60125  14.155   6.981   0.849
19431SOL    HW160126  14.186   7.015   0.765
19431SOL    HW260127  14.188   7.044   0.913
19432SOL     OW60128  13.338  12.419   3.556
19432SOL    HW160129  13.409  12.479   3.535
19432SOL    HW260130  13.365  12.377   3.638
19433SOL     OW60131  14.138   7.531   9.482
19433SOL    HW160132  14.151   7.448   9.530
19433SOL    HW260133  14.153   7.508   9.391
19434SOL     OW60134   4.405  12.195   2.362
19434SOL    HW160135   4.457  12.164   2.436
19434SOL    HW260136   4.431  12.138   2.289
19435SOL     OW60137  13.971  13.970   6.443
19435SOL    HW160138  13.947  14.056   6.407
19435SOL    HW260139  13.891  13.918   6.434
19436SOL     OW60140   3.030  10.030  11.776
19436SOL    HW160141   2.987  10.109  11.744
19436SOL    HW260142   2.992   9.959  11.726
19437SOL     OW60143   3.396   9.673   7.972
19437SOL    HW160144   3.417   9.752   7.922
19437SOL    HW260145   3.346   9.706   8.047
19438SOL     OW60146   4.186   1.303   8.800
19438SOL    HW160147   4.130   1.243   8.751
19438SOL    HW260148   4.252   1.331   8.737
19439SOL     OW60149   2.899  13.501   9.880
19439SOL    HW160150   2.940  13.432   9.933
19439SOL    HW260151   2.864  13.562   9.945
19440SOL     OW60152   6.707   4.486  13.542
19440SOL    HW160153   6.772   4.555  13.528
19440SOL    HW260154   6.666   4.475  13.456
19441SOL     OW60155   1.484  13.141  12.519
19441SOL    HW160156   1.561  13.197  12.531
19441SOL    HW260157   1.412  13.191  12.557
19442SOL     OW60158   1.923   5.647  13.821
19442SOL    HW160159   1.842   5.643  13.873
19442SOL    HW260160   1.991   5.667  13.885
19443SOL     OW60161   1.754   8.431  10.914
19443SOL    HW160162   1.682   8.491  10.933
19443SOL    HW260163   1.833   8.485  10.921
19444SOL     OW60164  11.723   7.992   5.895
19444SOL    HW160165  11.773   7.979   5.814
19444SOL    HW260166  11.783   7.963   5.965
19445SOL     OW60167  14.748   7.261  11.895
19445SOL    HW160168  14.741   7.251  11.990
19445SOL    HW260169  14.658   7.253  11.864
19446SOL     OW60170   3.710  10.123  11.943
19446SOL    HW160171   3.722  10.217  11.955
19446SOL    HW260172   3.627  10.104  11.987
19447SOL     OW60173   8.313   6.979   8.152
19447SOL    HW160174   8.349   6.897   8.119
19447SOL    HW260175   8.340   7.045   8.088
19448SOL     OW60176  11.638  13.031   1.283
19448SOL    HW160177  11.638  12.937   1.301
19448SOL    HW260178  11.728  13.058   1.300
19449SOL     OW60179   2.512   6.545   7.370
19449SOL    HW160180   2.518   6.454   7.399
19449SOL    HW260181   2.553   6.595   7.441
19450SOL     OW60182  12.718   8.581  10.378
19450SOL    HW160183  12.642   8.526  10.392
19450SOL    HW260184  12.771   8.569  10.458
19451SOL     OW60185   3.959   0.558   0.101
19451SOL    HW160186   3.961   0.465   0.077
19451SOL    HW260187   3.885   0.566   0.161
19452SOL     OW60188   5.158   3.274   5.818
19452SOL    HW160189   5.187   3.359   5.849
19452SOL    HW260190   5.237   3.219   5.821
19453SOL     OW60191   0.123   3.680   8.173
19453SOL    HW160192   0.095   3.701   8.084
19453SOL    HW260193   0.081   3.596   8.192
19454SOL     OW60194   8.009   7.643   6.625
19454SOL    HW160195   8.087   7.598   6.657
19454SOL    HW260196   8.040   7.730   6.599
19455SOL     OW60197   7.105   4.833   5.789
19455SOL    HW160198   7.029   4.862   5.839
19455SOL    HW260199   7.180   4.862   5.841
19456SOL     OW60200   6.770  14.788   0.403
19456SOL    HW160201   6.794  14.724   0.336
19456SOL    HW260202   6.749  14.734   0.480
19457SOL     OW60203   6.183  13.324   6.545
19457SOL    HW160204   6.263  13.346   6.498
19457SOL    HW260205   6.163  13.234   6.519
19458SOL     OW60206   0.603   0.039   9.891
19458SOL    HW160207   0.580  14.849   9.828
19458SOL    HW260208   0.559   0.117   9.857
19459SOL     OW60209   2.819   5.665   1.069
19459SOL    HW160210   2.890   5.609   1.101
19459SOL    HW260211   2.858   5.715   0.997
19460SOL     OW60212   4.255   1.521   7.387
19460SOL    HW160213   4.318   1.543   7.455
19460SOL    HW260214   4.170   1.522   7.431
19461SOL     OW60215   4.519   3.717   7.250
19461SOL    HW160216   4.571   3.789   7.216
19461SOL    HW260217   4.443   3.712   7.191
19462SOL     OW60218  13.891  11.373  10.541
19462SOL    HW160219  13.941  11.453  10.560
19462SOL    HW260220  13.799  11.400  10.548
19463SOL     OW60221  11.689   5.932  14.261
19463SOL    HW160222  11.610   5.879  14.267
19463SOL    HW260223  11.755   5.872  14.226
19464SOL     OW60224   1.931  14.751   2.739
19464SOL    HW160225   1.860  14.740   2.803
19464SOL    HW260226   1.916  14.839   2.703
19465SOL     OW60227   8.237   1.102   9.297
19465SOL    HW160228   8.163   1.116   9.356
19465SOL    HW260229   8.293   1.178   9.310
19466SOL     OW60230  12.963   5.936   1.414
19466SOL    HW160231  12.991   6.027   1.422
19466SOL    HW260232  13.009   5.890   1.485
19467SOL     OW60233  10.131   1.632  14.035
19467SOL    HW160234  10.157   1.701  13.975
19467SOL    HW260235  10.093   1.564  13.978
19468SOL     OW60236   8.347   2.045  11.019
19468SOL    HW160237   8.370   2.025  10.928
19468SOL    HW260238   8.377   1.970  11.069
19469SOL     OW60239   3.794  12.028   8.160
19469SOL    HW160240   3.822  11.958   8.218
19469SOL    HW260241   3.802  11.993   8.072
19470SOL     OW60242  12.276   9.231   8.623
19470SOL    HW160243  12.291   9.137   8.632
19470SOL    HW260244  12.194   9.246   8.670
19471SOL     OW60245   1.313   9.752  11.778
19471SOL    HW160246   1.317   9.661  11.807
19471SOL    HW260247   1.274   9.800  11.851
19472SOL     OW60248  13.708   1.477   7.381
19472SOL    HW160249  13.743   1.390   7.366
19472SOL    HW260250  13.637   1.465   7.444
19473SOL     OW60251  12.492  12.650   1.173
19473SOL    HW160252  12.495  12.558   1.147
19473SOL    HW260253  12.492  12.699   1.091
19474SOL     OW60254  14.353   2.604   5.406
19474SOL    HW160255  14.335   2.512   5.389
19474SOL    HW260256  14.403   2.634   5.329
19475SOL     OW60257   8.653   3.024   1.006
19475SOL    HW160258   8.747   3.042   1.004
19475SOL    HW260259   8.617   3.076   0.934
19476SOL     OW60260  13.085  10.241   2.985
19476SOL    HW160261  13.036  10.322   2.983
19476SOL    HW260262  13.029  10.177   2.941
19477SOL     OW60263   8.698   7.772  11.277
19477SOL    HW160264   8.705   7.801  11.186
19477SOL    HW260265   8.604   7.777  11.296
19478SOL     OW60266   1.798  11.773   8.564
19478SOL    HW160267   1.847  11.833   8.621
19478SOL    HW260268   1.825  11.798   8.475
19479SOL     OW60269   4.026   7.012  11.929
19479SOL    HW160270   3.999   6.921  11.923
19479SOL    HW260271   4.045   7.037  11.839
19480SOL     OW60272   3.268   5.931  12.620
19480SOL    HW160273   3.180   5.949  12.653
19480SOL    HW260274   3.304   5.865  12.679
19481SOL     OW60275  13.104   9.176   7.423
19481SOL    HW160276  13.110   9.124   7.343
19481SOL    HW260277  13.015   9.160   7.456
19482SOL     OW60278  12.607  13.925   0.607
19482SOL    HW160279  12.584  13.898   0.518
19482SOL    HW260280  12.538  13.986   0.632
19483SOL     OW60281   3.506  14.759   0.124
19483SOL    HW160282   3.522  14.774   0.031
19483SOL    HW260283   3.447  14.829   0.150
19484SOL     OW60284   0.645   3.518   0.632
19484SOL    HW160285   0.588   3.480   0.700
19484SOL    HW260286   0.681   3.442   0.586
19485SOL     OW60287   3.636   7.828  11.945
19485SOL    HW160288   3.575   7.845  11.873
19485SOL    HW260289   3.720   7.860  11.912
19486SOL     OW60290   8.663  12.251   6.743
19486SOL    HW160291   8.602  12.192   6.788
19486SOL    HW260292   8.633  12.251   6.652
19487SOL     OW60293   4.713   5.855   5.547
19487SOL    HW160294   4.699   5.878   5.455
19487SOL    HW260295   4.805   5.829   5.552
19488SOL     OW60296   6.865   0.592  12.253
19488SOL    HW160297   6.858   0.497  12.261
19488SOL    HW260298   6.821   0.612  12.170
19489SOL     OW60299   7.006  14.706   5.260
19489SOL    HW160300   6.980  14.789   5.300
19489SOL    HW260301   6.945  14.695   5.186
19490SOL     OW60302   9.836   9.240   0.323
19490SOL    HW160303   9.814   9.180   0.395
19490SOL    HW260304   9.817   9.190   0.244
19491SOL     OW60305   7.118   2.205   9.167
19491SOL    HW160306   7.103   2.251   9.084
19491SOL    HW260307   7.031   2.189   9.202
19492SOL     OW60308   3.994   9.179   3.000
19492SOL    HW160309   3.964   9.184   2.909
19492SOL    HW260310   3.960   9.096   3.032
19493SOL     OW60311   9.670  12.078  14.338
19493SOL    HW160312   9.637  12.123  14.415
19493SOL    HW260313   9.757  12.046  14.364
19494SOL     OW60314   8.488   1.081   4.930
19494SOL    HW160315   8.477   1.128   5.013
19494SOL    HW260316   8.400   1.057   4.904
19495SOL     OW60317  12.164   5.075  11.555
19495SOL    HW160318  12.135   4.994  11.512
19495SOL    HW260319  12.259   5.074  11.546
19496SOL     OW60320   2.614   5.014   2.759
19496SOL    HW160321   2.687   5.056   2.806
19496SOL    HW260322   2.549   4.997   2.827
19497SOL     OW60323   5.788   0.391   5.639
19497SOL    HW160324   5.739   0.450   5.696
19497SOL    HW260325   5.853   0.351   5.696
19498SOL     OW60326   7.953   7.272   8.359
19498SOL    HW160327   7.944   7.238   8.448
19498SOL    HW260328   8.047   7.278   8.345
19499SOL     OW60329   3.061   1.115   6.610
19499SOL    HW160330   3.113   1.055   6.557
19499SOL    HW260331   2.992   1.145   6.551
19500SOL     OW60332  12.446   4.364  12.856
19500SOL    HW160333  12.385   4.321  12.916
19500SOL    HW260334  12.518   4.301  12.847
19501SOL     OW60335  14.103   6.707   7.361
19501SOL    HW160336  14.068   6.693   7.273
19501SOL    HW260337  14.041   6.769   7.401
19502SOL     OW60338  13.866  12.989  14.445
19502SOL    HW160339  13.829  13.047  14.512
19502SOL    HW260340  13.939  12.946  14.489
19503SOL     OW60341  11.016  10.642  12.754
19503SOL    HW160342  10.931  10.664  12.792
19503SOL    HW260343  11.009  10.548  12.734
19504SOL     OW60344   6.235  13.369   7.999
19504SOL    HW160345   6.226  13.291   7.944
19504SOL    HW260346   6.190  13.438   7.950
19505SOL     OW60347  13.333   8.649   3.094
19505SOL    HW160348  13.251   8.696   3.112
19505SOL    HW260349  13.308   8.557   3.094
19506SOL     OW60350   9.817   5.966   1.147
19506SOL    HW160351   9.894   6.019   1.165
19506SOL    HW260352   9.807   5.909   1.224
19507SOL     OW60353   1.855  12.069   6.304
19507SOL    HW160354   1.850  12.029   6.391
19507SOL    HW260355   1.784  12.132   6.302
19508SOL     OW60356  13.185   0.220  12.813
19508SOL    HW160357  13.186   0.126  12.834
19508SOL    HW260358  13.184   0.263  12.899
19509SOL     OW60359   2.665   1.682   1.878
19509SOL    HW160360   2.671   1.723   1.791
19509SOL    HW260361   2.677   1.589   1.860
19510SOL     OW60362  13.084  14.679  10.585
19510SOL    HW160363  13.052  14.716  10.667
19510SOL    HW260364  13.076  14.750  10.522
19511SOL     OW60365  10.332   5.766   7.647
19511SOL    HW160366  10.262   5.704   7.664
19511SOL    HW260367  10.390   5.721   7.586
19512SOL     OW60368  13.041   4.648   9.168
19512SOL    HW160369  13.004   4.565   9.138
19512SOL    HW260370  12.992   4.714   9.119
19513SOL     OW60371  14.296  12.526  13.433
19513SOL    HW160372  14.331  12.526  13.344
19513SOL    HW260373  14.214  12.575  13.427
19514SOL     OW60374   4.067   4.104   2.670
19514SOL    HW160375   4.130   4.166   2.633
19514SOL    HW260376   4.086   4.021   2.625
19515SOL     OW60377  12.557  13.030   5.688
19515SOL    HW160378  12.642  12.989   5.703
19515SOL    HW260379  12.565  13.118   5.725
19516SOL     OW60380   3.741   4.472   5.351
19516SOL    HW160381   3.792   4.395   5.376
19516SOL    HW260382   3.736   4.467   5.255
19517SOL     OW60383   4.010   5.032  10.175
19517SOL    HW160384   4.091   5.067  10.213
19517SOL    HW260385   3.949   5.105  10.178
19518SOL     OW60386   3.721   0.464   4.437
19518SOL    HW160387   3.790   0.440   4.376
19518SOL    HW260388   3.650   0.403   4.419
19519SOL     OW60389   3.824  14.763  13.255
19519SOL    HW160390   3.767  14.819  13.308
19519SOL    HW260391   3.909  14.769  13.297
19520SOL     OW60392   5.624   7.059  12.548
19520SOL    HW160393   5.643   7.131  12.487
19520SOL    HW260394   5.528   7.050  12.545
19521SOL     OW60395   3.981   6.872   5.207
19521SOL    HW160396   3.978   6.788   5.252
19521SOL    HW260397   4.001   6.851   5.116
19522SOL     OW60398  12.952   7.297  13.733
19522SOL    HW160399  12.970   7.373  13.678
19522SOL    HW260400  12.856   7.295  13.740
19523SOL     OW60401  13.894   3.367   7.591
19523SOL    HW160402  13.907   3.422   7.668
19523SOL    HW260403  13.828   3.303   7.618
19524SOL     OW60404   8.922  13.095   6.725
19524SOL    HW160405   8.857  13.057   6.785
19524SOL    HW260406   8.880  13.092   6.639
19525SOL     OW60407   0.628  13.431   9.751
19525SOL    HW160408   0.639  13.391   9.837
19525SOL    HW260409   0.604  13.358   9.693
19526SOL     OW60410  12.756   0.128  12.215
19526SOL    HW160411  12.725   0.073  12.144
19526SOL    HW260412  12.842   0.159  12.185
19527SOL     OW60413  13.218   4.381   8.793
19527SOL    HW160414  13.289   4.432   8.754
19527SOL    HW260415  13.194   4.318   8.725
19528SOL     OW60416   8.914  14.800   6.371
19528SOL    HW160417   8.914  14.805   6.467
19528SOL    HW260418   8.837  14.849   6.344
19529SOL     OW60419   0.227   1.889  12.635
19529SOL    HW160420   0.163   1.864  12.700
19529SOL    HW260421   0.311   1.886  12.681
19530SOL     OW60422   5.201   2.547   5.833
19530SOL    HW160423   5.164   2.589   5.910
19530SOL    HW260424   5.277   2.498   5.866
19531SOL     OW60425   4.845  12.336   9.749
19531SOL    HW160426   4.767  12.385   9.777
19531SOL    HW260427   4.912  12.403   9.738
19532SOL     OW60428   6.246   8.354   8.118
19532SOL    HW160429   6.250   8.304   8.037
19532SOL    HW260430   6.332   8.340   8.160
19533SOL     OW60431   6.622   6.840   0.175
19533SOL    HW160432   6.581   6.788   0.105
19533SOL    HW260433   6.589   6.801   0.255
19534SOL     OW60434   4.161   7.807   0.019
19534SOL    HW160435   4.138   7.894   0.051
19534SOL    HW260436   4.250   7.792   0.051
19535SOL     OW60437  14.873   2.867   7.266
19535SOL    HW160438  14.840   2.956   7.271
19535SOL    HW260439   0.021   2.857   7.174
19536SOL     OW60440  12.167   7.093  10.189
19536SOL    HW160441  12.216   7.077  10.269
19536SOL    HW260442  12.186   7.185  10.168
19537SOL     OW60443  13.982   3.420  13.818
19537SOL    HW160444  13.930   3.489  13.779
19537SOL    HW260445  14.048   3.398  13.752
19538SOL     OW60446   3.824  10.279   5.411
19538SOL    HW160447   3.756  10.230   5.365
19538SOL    HW260448   3.838  10.357   5.358
19539SOL     OW60449  14.237   0.906  13.967
19539SOL    HW160450  14.150   0.900  13.927
19539SOL    HW260451  14.294   0.938  13.897
19540SOL     OW60452   4.923  12.367   5.877
19540SOL    HW160453   4.942  12.345   5.786
19540SOL    HW260454   4.999  12.417   5.906
19541SOL     OW60455  11.122   3.037   8.280
19541SOL    HW160456  11.178   2.962   8.303
19541SOL    HW260457  11.137   3.050   8.186
19542SOL     OW60458   2.220  13.057   9.564
19542SOL    HW160459   2.223  12.976   9.616
19542SOL    HW260460   2.198  13.125   9.627
19543SOL     OW60461   2.755   1.106  14.682
19543SOL    HW160462   2.682   1.159  14.714
19543SOL    HW260463   2.832   1.162  14.695
19544SOL     OW60464   0.111   5.109   5.890
19544SOL    HW160465   0.051   5.065   5.830
19544SOL    HW260466   0.070   5.194   5.907
19545SOL     OW60467   3.882  12.493  10.065
19545SOL    HW160468   3.835  12.460   9.988
19545SOL    HW260469   3.973  12.470  10.049
19546SOL     OW60470  10.253   6.594   3.600
19546SOL    HW160471  10.235   6.623   3.511
19546SOL    HW260472  10.305   6.665   3.638
19547SOL     OW60473   4.390   3.634  12.566
19547SOL    HW160474   4.400   3.627  12.471
19547SOL    HW260475   4.316   3.578  12.587
19548SOL     OW60476  10.126   3.305   5.369
19548SOL    HW160477  10.176   3.233   5.332
19548SOL    HW260478  10.172   3.384   5.339
19549SOL     OW60479   4.502  13.429   1.475
19549SOL    HW160480   4.467  13.519   1.475
19549SOL    HW260481   4.495  13.401   1.383
19550SOL     OW60482  13.009   6.836   2.735
19550SOL    HW160483  13.001   6.905   2.801
19550SOL    HW260484  13.103   6.825   2.723
19551SOL     OW60485  14.087   0.587  11.768
19551SOL    HW160486  14.014   0.578  11.707
19551SOL    HW260487  14.092   0.681  11.785
19552SOL     OW60488   3.203   7.205   4.156
19552SOL    HW160489   3.135   7.253   4.203
19552SOL    HW260490   3.158   7.165   4.082
19553SOL     OW60491  14.684   4.388   9.235
19553SOL    HW160492  14.727   4.469   9.265
19553SOL    HW260493  14.687   4.394   9.140
19554SOL     OW60494   5.706  12.258   5.875
19554SOL    HW160495   5.718  12.293   5.786
19554SOL    HW260496   5.706  12.163   5.863
19555SOL     OW60497   3.755  14.645   6.867
19555SOL    HW160498   3.780  14.608   6.952
19555SOL    HW260499   3.661  14.658   6.873
19556SOL     OW60500  13.233   5.088   1.718
19556SOL    HW160501  13.288   5.166   1.718
19556SOL    HW260502  13.216   5.070   1.626
19557SOL     OW60503  14.506   8.211  12.025
19557SOL    HW160504  14.465   8.271  12.088
19557SOL    HW260505  14.547   8.269  11.961
19558SOL     OW60506   5.574   1.752  14.148
19558SOL    HW160507   5.635   1.684  14.179
19558SOL    HW260508   5.555   1.804  14.226
19559SOL     OW60509   8.986   5.316  12.877
19559SOL    HW160510   9.034   5.375  12.935
19559SOL    HW260511   8.991   5.231  12.920
19560SOL     OW60512  14.184  13.301   8.676
19560SOL    HW160513  14.149  13.234   8.617
19560SOL    HW260514  14.175  13.264   8.763
19561SOL     OW60515   6.663   5.236  13.380
19561SOL    HW160516   6.644   5.184  13.458
19561SOL    HW260517   6.579   5.269  13.351
19562SOL     OW60518   0.524  10.939  14.041
19562SOL    HW160519   0.569  10.972  14.119
19562SOL    HW260520   0.517  11.015  13.983
19563SOL     OW60521   7.706  13.848   9.754
19563SOL    HW160522   7.795  13.871   9.730
19563SOL    HW260523   7.683  13.912   9.822
19564SOL     OW60524   4.466  13.639   9.007
19564SOL    HW160525   4.475  13.720   9.058
19564SOL    HW260526   4.533  13.581   9.042
19565SOL     OW60527   3.132   8.126  12.557
19565SOL    HW160528   3.205   8.140  12.496
19565SOL    HW260529   3.136   8.200  12.618
19566SOL     OW60530   6.790  10.535   6.612
19566SOL    HW160531   6.873  10.510   6.571
19566SOL    HW260532   6.810  10.614   6.662
19567SOL     OW60533   2.925   6.740   4.062
19567SOL    HW160534   2.934   6.690   3.981
19567SOL    HW260535   2.864   6.689   4.115
19568SOL     OW60536   1.993   3.947   0.490
19568SOL    HW160537   1.915   4.003   0.491
19568SOL    HW260538   2.067   4.008   0.489
19569SOL     OW60539   7.507  12.309   6.854
19569SOL    HW160540   7.455  12.378   6.813
19569SOL    HW260541   7.469  12.228   6.820
19570SOL     OW60542  12.462   2.498   8.942
19570SOL    HW160543  12.441   2.529   8.854
19570SOL    HW260544  12.500   2.574   8.986
19571SOL     OW60545   1.245   9.696   1.841
19571SOL    HW160546   1.153   9.721   1.844
19571SOL    HW260547   1.290   9.772   1.804
19572SOL     OW60548   0.647   3.004   6.651
19572SOL    HW160549   0.616   2.969   6.734
19572SOL    HW260550   0.677   2.928   6.602
19573SOL     OW60551   2.044   6.593   8.493
19573SOL    HW160552   2.044   6.685   8.468
19573SOL    HW260553   2.132   6.577   8.526
19574SOL     OW60554  11.291   8.336   1.392
19574SOL    HW160555  11.265   8.399   1.459
19574SOL    HW260556  11.347   8.274   1.438
19575SOL     OW60557   8.811   1.674   2.435
19575SOL    HW160558   8.868   1.748   2.455
19575SOL    HW260559   8.872   1.603   2.413
19576SOL     OW60560   4.612  13.841   8.323
19576SOL    HW160561   4.693  13.875   8.284
19576SOL    HW260562   4.567  13.918   8.358
19577SOL     OW60563   8.435  14.640  13.817
19577SOL    HW160564   8.415  14.690  13.896
19577SOL    HW260565   8.525  14.610  13.830
19578SOL     OW60566  12.201   1.075  14.072
19578SOL    HW160567  12.189   1.028  13.990
19578SOL    HW260568  12.244   1.012  14.130
19579SOL     OW60569   5.560   5.954   6.342
19579SOL    HW160570   5.635   5.922   6.292
19579SOL    HW260571   5.511   6.009   6.281
19580SOL     OW60572   0.377   6.688  13.931
19580SOL    HW160573   0.388   6.594  13.948
19580SOL    HW260574   0.465   6.718  13.908
19581SOL     OW60575   5.122   6.757   4.016
19581SOL    HW160576   5.128   6.684   3.954
19581SOL    HW260577   5.152   6.720   4.099
19582SOL     OW60578   5.456   3.192   2.843
19582SOL    HW160579   5.422   3.223   2.927
19582SOL    HW260580   5.496   3.107   2.862
19583SOL     OW60581  11.534   9.580  12.995
19583SOL    HW160582  11.581   9.506  12.957
19583SOL    HW260583  11.503   9.548  13.079
19584SOL     OW60584   8.100  13.159  10.051
19584SOL    HW160585   8.046  13.179   9.975
19584SOL    HW260586   8.056  13.204  10.124
19585SOL     OW60587   1.505   9.922  12.073
19585SOL    HW160588   1.507  10.015  12.049
19585SOL    HW260589   1.583   9.885  12.032
19586SOL     OW60590  11.143   7.765   8.285
19586SOL    HW160591  11.222   7.795   8.240
19586SOL    HW260592  11.165   7.771   8.378
19587SOL     OW60593   0.567   7.281  14.790
19587SOL    HW160594   0.530   7.250  14.873
19587SOL    HW260595   0.610   7.364  14.813
19588SOL     OW60596   1.988   0.147   4.360
19588SOL    HW160597   1.925   0.082   4.330
19588SOL    HW260598   2.021   0.112   4.443
19589SOL     OW60599   6.912   1.931  12.927
19589SOL    HW160600   6.965   1.971  12.858
19589SOL    HW260601   6.828   1.914  12.885
19590SOL     OW60602  13.471   0.588   0.764
19590SOL    HW160603  13.438   0.563   0.850
19590SOL    HW260604  13.521   0.512   0.733
19591SOL     OW60605   7.251   6.518  14.814
19591SOL    HW160606   7.191   6.509  14.740
19591SOL    HW260607   7.315   6.448  14.802
19592SOL     OW60608   5.968   4.725   3.838
19592SOL    HW160609   6.061   4.744   3.833
19592SOL    HW260610   5.926   4.800   3.797
19593SOL     OW60611   2.442   2.743   6.914
19593SOL    HW160612   2.459   2.747   6.820
19593SOL    HW260613   2.383   2.817   6.930
19594SOL     OW60614   5.200   9.096  13.689
19594SOL    HW160615   5.175   9.127  13.602
19594SOL    HW260616   5.183   9.002  13.687
19595SOL     OW60617  10.743   0.892   4.670
19595SOL    HW160618  10.684   0.852   4.606
19595SOL    HW260619  10.685   0.917   4.742
19596SOL     OW60620   1.592   0.189   2.014
19596SOL    HW160621   1.553   0.102   2.000
19596SOL    HW260622   1.587   0.202   2.109
19597SOL     OW60623  10.024   6.794   6.665
19597SOL    HW160624  10.021   6.882   6.629
19597SOL    HW260625  10.115   6.767   6.656
19598SOL     OW60626   6.830   3.657   7.934
19598SOL    HW160627   6.805   3.742   7.897
19598SOL    HW260628   6.759   3.598   7.909
19599SOL     OW60629  12.393  11.618   4.033
19599SOL    HW160630  12.424  11.647   3.947
19599SOL    HW260631  12.297  11.625   4.027
19600SOL     OW60632  14.629   2.696   0.910
19600SOL    HW160633  14.574   2.659   0.841
19600SOL    HW260634  14.567   2.723   0.978
19601SOL     OW60635   0.951  12.043   5.003
19601SOL    HW160636   1.026  12.023   5.061
19601SOL    HW260637   0.987  12.101   4.936
19602SOL     OW60638   7.251  12.667   9.524
19602SOL    HW160639   7.255  12.612   9.445
19602SOL    HW260640   7.178  12.631   9.574
19603SOL     OW60641  13.476  11.437   5.080
19603SOL    HW160642  13.388  11.437   5.042
19603SOL    HW260643  13.523  11.504   5.032
19604SOL     OW60644  11.161   3.077  10.087
19604SOL    HW160645  11.132   3.160  10.124
19604SOL    HW260646  11.257   3.082  10.089
19605SOL     OW60647   8.946  14.079   8.023
19605SOL    HW160648   8.923  14.047   7.936
19605SOL    HW260649   8.996  14.160   8.006
19606SOL     OW60650  13.242  13.590  13.658
19606SOL    HW160651  13.188  13.584  13.580
19606SOL    HW260652  13.298  13.666  13.643
19607SOL     OW60653   8.207   4.977   6.568
19607SOL    HW160654   8.163   5.060   6.585
19607SOL    HW260655   8.291   5.002   6.529
19608SOL     OW60656  13.846  11.272   2.714
19608SOL    HW160657  13.807  11.195   2.673
19608SOL    HW260658  13.909  11.235   2.777
19609SOL     OW60659  11.695   1.770  10.735
19609SOL    HW160660  11.604   1.798  10.735
19609SOL    HW260661  11.719   1.764  10.828
19610SOL     OW60662   8.923   8.889   7.587
19610SOL    HW160663   8.836   8.849   7.594
19610SOL    HW260664   8.943   8.919   7.676
19611SOL     OW60665  10.493   9.645  14.520
19611SOL    HW160666  10.579   9.685  14.510
19611SOL    HW260667  10.498   9.563  14.470
19612SOL     OW60668  11.390  11.366  11.233
19612SOL    HW160669  11.445  11.334  11.306
19612SOL    HW260670  11.451  11.412  11.176
19613SOL     OW60671   9.554   7.957  11.325
19613SOL    HW160672   9.534   7.949  11.418
19613SOL    HW260673   9.619   7.889  11.308
19614SOL     OW60674   7.319   2.302   4.151
19614SOL    HW160675   7.330   2.379   4.095
19614SOL    HW260676   7.361   2.327   4.234
19615SOL     OW60677   3.416  12.948   2.209
19615SOL    HW160678   3.343  12.950   2.147
19615SOL    HW260679   3.374  12.938   2.295
19616SOL     OW60680   7.376   4.242   6.132
19616SOL    HW160681   7.413   4.164   6.089
19616SOL    HW260682   7.358   4.214   6.222
19617SOL     OW60683   4.350  12.816  14.027
19617SOL    HW160684   4.367  12.897  14.075
19617SOL    HW260685   4.340  12.749  14.095
19618SOL     OW60686   1.119   5.532  10.864
19618SOL    HW160687   1.085   5.609  10.819
19618SOL    HW260688   1.212   5.530  10.841
19619SOL     OW60689  13.272   7.427   0.479
19619SOL    HW160690  13.311   7.408   0.564
19619SOL    HW260691  13.307   7.360   0.421
19620SOL     OW60692  14.368  10.627   6.083
19620SOL    HW160693  14.341  10.591   5.999
19620SOL    HW260694  14.353  10.555   6.145
19621SOL     OW60695   8.996   6.812   7.048
19621SOL    HW160696   9.050   6.783   7.121
19621SOL    HW260697   8.911   6.769   7.062
19622SOL     OW60698  12.814  14.141   2.811
19622SOL    HW160699  12.864  14.060   2.819
19622SOL    HW260700  12.780  14.157   2.899
19623SOL     OW60701   1.329   9.946   5.609
19623SOL    HW160702   1.337  10.018   5.672
19623SOL    HW260703   1.235   9.936   5.596
19624SOL     OW60704  11.580  10.980  10.153
19624SOL    HW160705  11.601  11.048  10.217
19624SOL    HW260706  11.657  10.923  10.153
19625SOL     OW60707   2.441   3.753  11.551
19625SOL    HW160708   2.434   3.658  11.558
19625SOL    HW260709   2.381   3.786  11.617
19626SOL     OW60710  13.966  10.666   2.146
19626SOL    HW160711  13.964  10.588   2.090
19626SOL    HW260712  14.038  10.718   2.110
19627SOL     OW60713   3.321   7.579   5.597
19627SOL    HW160714   3.365   7.641   5.655
19627SOL    HW260715   3.384   7.562   5.527
19628SOL     OW60716   3.097   8.288   7.270
19628SOL    HW160717   3.097   8.224   7.198
19628SOL    HW260718   3.005   8.296   7.295
19629SOL     OW60719   8.120   2.571   2.104
19629SOL    HW160720   8.061   2.646   2.094
19629SOL    HW260721   8.061   2.496   2.118
19630SOL     OW60722   7.120   0.397   8.650
19630SOL    HW160723   7.086   0.382   8.738
19630SOL    HW260724   7.209   0.429   8.663
19631SOL     OW60725   9.221   8.173   8.836
19631SOL    HW160726   9.313   8.160   8.814
19631SOL    HW260727   9.186   8.223   8.762
19632SOL     OW60728  11.519   7.781   8.404
19632SOL    HW160729  11.611   7.791   8.381
19632SOL    HW260730  11.477   7.861   8.372
19633SOL     OW60731  14.596   9.107   7.884
19633SOL    HW160732  14.581   9.185   7.937
19633SOL    HW260733  14.515   9.056   7.893
19634SOL     OW60734  12.543   4.952   9.038
19634SOL    HW160735  12.533   4.873   8.985
19634SOL    HW260736  12.499   4.931   9.121
19635SOL     OW60737  11.967   1.080  14.331
19635SOL    HW160738  11.989   1.166  14.295
19635SOL    HW260739  11.872   1.073  14.318
19636SOL     OW60740   1.859  12.779  13.156
19636SOL    HW160741   1.902  12.779  13.071
19636SOL    HW260742   1.910  12.717  13.208
19637SOL     OW60743   0.171   5.069  12.803
19637SOL    HW160744   0.194   4.990  12.854
19637SOL    HW260745   0.235   5.070  12.732
19638SOL     OW60746   0.533   3.819  11.935
19638SOL    HW160747   0.614   3.866  11.951
19638SOL    HW260748   0.555   3.727  11.952
19639SOL     OW60749   6.793   2.303  10.158
19639SOL    HW160750   6.885   2.277  10.151
19639SOL    HW260751   6.792   2.373  10.223
19640SOL     OW60752   6.204   1.628   3.423
19640SOL    HW160753   6.192   1.596   3.333
19640SOL    HW260754   6.203   1.548   3.477
19641SOL     OW60755   4.405   9.450   9.729
19641SOL    HW160756   4.336   9.383   9.728
19641SOL    HW260757   4.364   9.527   9.689
19642SOL     OW60758   6.504   9.839   9.087
19642SOL    HW160759   6.541   9.757   9.119
19642SOL    HW260760   6.483   9.822   8.995
19643SOL     OW60761   0.012  11.749   0.800
19643SOL    HW160762   0.099  11.728   0.767
19643SOL    HW260763  14.877  11.687   0.872
19644SOL     OW60764   9.538   9.732   9.293
19644SOL    HW160765   9.517   9.825   9.289
19644SOL    HW260766   9.457   9.690   9.322
19645SOL     OW60767   4.164  12.118   8.525
19645SOL    HW160768   4.150  12.211   8.507
19645SOL    HW260769   4.259  12.107   8.518
19646SOL     OW60770  11.847   4.663   2.699
19646SOL    HW160771  11.894   4.727   2.751
19646SOL    HW260772  11.785   4.714   2.647
19647SOL     OW60773  14.613   2.321   9.313
19647SOL    HW160774  14.666   2.259   9.263
19647SOL    HW260775  14.608   2.283   9.401
19648SOL     OW60776  13.461  13.709   6.521
19648SOL    HW160777  13.465  13.776   6.589
19648SOL    HW260778  13.461  13.626   6.570
19649SOL     OW60779  11.247   2.629   8.983
19649SOL    HW160780  11.323   2.645   9.038
19649SOL    HW260781  11.215   2.717   8.960
19650SOL     OW60782   3.216  13.971  13.845
19650SOL    HW160783   3.284  14.033  13.874
19650SOL    HW260784   3.190  13.926  13.926
19651SOL     OW60785   7.725   0.805   1.037
19651SOL    HW160786   7.633   0.781   1.046
19651SOL    HW260787   7.732   0.837   0.947
19652SOL     OW60788   0.034   0.644   6.675
19652SOL    HW160789  14.840   0.584   6.660
19652SOL    HW260790   0.100   0.590   6.719
19653SOL     OW60791  12.588   3.811   4.640
19653SOL    HW160792  12.634   3.789   4.559
19653SOL    HW260793  12.502   3.772   4.630
19654SOL     OW60794   7.856  14.207   0.914
19654SOL    HW160795   7.779  14.259   0.936
19654SOL    HW260796   7.929  14.269   0.923
19655SOL     OW60797  13.621  11.806   1.877
19655SOL    HW160798  13.610  11.721   1.834
19655SOL    HW260799  13.534  11.829   1.908
19656SOL     OW60800   2.195  11.782  12.449
19656SOL    HW160801   2.175  11.690  12.429
19656SOL    HW260802   2.179  11.828  12.367
19657SOL     OW60803   8.575   4.109   5.087
19657SOL    HW160804   8.570   4.025   5.134
19657SOL    HW260805   8.528   4.170   5.144
19658SOL     OW60806  10.092  10.331   4.831
19658SOL    HW160807  10.087  10.414   4.879
19658SOL    HW260808  10.019  10.280   4.863
19659SOL     OW60809   3.619   7.863  12.209
19659SOL    HW160810   3.621   7.858  12.114
19659SOL    HW260811   3.664   7.944  12.230
19660SOL     OW60812   9.008  10.657  10.723
19660SOL    HW160813   9.029  10.616  10.639
19660SOL    HW260814   9.051  10.602  10.789
19661SOL     OW60815   0.100   2.217  13.092
19661SOL    HW160816   0.010   2.247  13.106
19661SOL    HW260817   0.129   2.187  13.179
19662SOL     OW60818   8.410  13.230   2.023
19662SOL    HW160819   8.420  13.270   2.109
19662SOL    HW260820   8.381  13.301   1.966
19663SOL     OW60821  10.177  10.164   4.002
19663SOL    HW160822  10.226  10.204   3.931
19663SOL    HW260823  10.204  10.072   4.001
19664SOL     OW60824   4.395  12.029   3.387
19664SOL    HW160825   4.357  11.947   3.418
19664SOL    HW260826   4.490  12.015   3.393
19665SOL     OW60827   4.002   0.785   1.131
19665SOL    HW160828   3.978   0.776   1.223
19665SOL    HW260829   3.981   0.699   1.093
19666SOL     OW60830   9.314  13.098   9.841
19666SOL    HW160831   9.362  13.024   9.880
19666SOL    HW260832   9.287  13.150   9.917
19667SOL     OW60833   1.857   7.772   8.347
19667SOL    HW160834   1.832   7.802   8.434
19667SOL    HW260835   1.915   7.840   8.314
19668SOL     OW60836   7.590   6.190   2.687
19668SOL    HW160837   7.675   6.233   2.698
19668SOL    HW260838   7.529   6.261   2.671
19669SOL     OW60839  13.817   9.766  12.607
19669SOL    HW160840  13.758   9.815  12.664
19669SOL    HW260841  13.760   9.723  12.543
19670SOL     OW60842   5.239  10.002   1.572
19670SOL    HW160843   5.268   9.918   1.609
19670SOL    HW260844   5.167   9.979   1.514
19671SOL     OW60845  10.447  13.751  12.734
19671SOL    HW160846  10.446  13.834  12.687
19671SOL    HW260847  10.512  13.698  12.687
19672SOL     OW60848   5.427   8.440   7.395
19672SOL    HW160849   5.497   8.414   7.335
19672SOL    HW260850   5.430   8.535   7.395
19673SOL     OW60851  13.017   7.190   7.572
19673SOL    HW160852  13.037   7.174   7.480
19673SOL    HW260853  13.103   7.191   7.616
19674SOL     OW60854  14.312   4.883  12.509
19674SOL    HW160855  14.249   4.829  12.462
19674SOL    HW260856  14.368   4.820  12.554
19675SOL     OW60857  14.729   6.002  14.539
19675SOL    HW160858  14.788   5.996  14.614
19675SOL    HW260859  14.776   6.054  14.475
19676SOL     OW60860   9.944  14.854  13.935
19676SOL    HW160861   9.892  14.877  14.012
19676SOL    HW260862   9.932   0.050  13.876
19677SOL     OW60863   2.855  13.262   3.877
19677SOL    HW160864   2.778  13.271   3.934
19677SOL    HW260865   2.892  13.177   3.901
19678SOL     OW60866  11.496   9.148   5.930
19678SOL    HW160867  11.459   9.176   5.847
19678SOL    HW260868  11.429   9.090   5.968
19679SOL     OW60869   9.948   2.558  13.570
19679SOL    HW160870  10.000   2.546  13.491
19679SOL    HW260871   9.880   2.490  13.564
19680SOL     OW60872   4.607   7.186   6.735
19680SOL    HW160873   4.581   7.266   6.688
19680SOL    HW260874   4.570   7.197   6.822
19681SOL     OW60875  12.440   9.966   3.559
19681SOL    HW160876  12.474  10.030   3.621
19681SOL    HW260877  12.447   9.883   3.605
19682SOL     OW60878   1.057   4.704  13.539
19682SOL    HW160879   1.025   4.697  13.628
19682SOL    HW260880   1.047   4.797  13.517
19683SOL     OW60881   6.360   3.058  13.429
19683SOL    HW160882   6.424   3.128  13.421
19683SOL    HW260883   6.287   3.096  13.477
19684SOL     OW60884   9.740   6.047   4.913
19684SOL    HW160885   9.822   5.998   4.918
19684SOL    HW260886   9.697   6.014   4.834
19685SOL     OW60887   5.884   6.868   9.557
19685SOL    HW160888   5.803   6.918   9.545
19685SOL    HW260889   5.916   6.895   9.643
19686SOL     OW60890   4.425  10.903   1.406
19686SOL    HW160891   4.383  10.925   1.489
19686SOL    HW260892   4.518  10.891   1.429
19687SOL     OW60893   4.716   0.662  12.432
19687SOL    HW160894   4.807   0.680  12.410
19687SOL    HW260895   4.722   0.598  12.503
19688SOL     OW60896  13.843  11.709   9.856
19688SOL    HW160897  13.934  11.682   9.871
19688SOL    HW260898  13.793  11.628   9.860
19689SOL     OW60899  14.578   6.363  10.099
19689SOL    HW160900  14.519   6.434  10.121
19689SOL    HW260901  14.528   6.283  10.117
19690SOL     OW60902   5.074   5.125   0.697
19690SOL    HW160903   5.060   5.158   0.608
19690SOL    HW260904   4.987   5.108   0.731
19691SOL     OW60905   7.461   0.441   9.053
19691SOL    HW160906   7.395   0.478   9.113
19691SOL    HW260907   7.528   0.509   9.048
19692SOL     OW60908  10.322   9.907  10.929
19692SOL    HW160909  10.291   9.975  10.870
19692SOL    HW260910  10.388   9.950  10.983
19693SOL     OW60911   7.622   4.751   7.034
19693SOL    HW160912   7.681   4.754   6.959
19693SOL    HW260913   7.604   4.843   7.054
19694SOL     OW60914   9.082   3.795  10.369
19694SOL    HW160915   9.011   3.738  10.341
19694SOL    HW260916   9.068   3.876  10.319
19695SOL     OW60917   2.684   4.650   5.564
19695SOL    HW160918   2.772   4.642   5.603
19695SOL    HW260919   2.700   4.682   5.476
19696SOL     OW60920   4.357   6.594  12.874
19696SOL    HW160921   4.390   6.570  12.788
19696SOL    HW260922   4.321   6.513  12.909
19697SOL     OW60923   4.567   4.740  10.304
19697SOL    HW160924   4.617   4.722  10.383
19697SOL    HW260925   4.602   4.680  10.239
19698SOL     OW60926   5.789   4.979  13.130
19698SOL    HW160927   5.856   4.992  13.197
19698SOL    HW260928   5.780   5.064  13.088
19699SOL     OW60929   3.912  13.851   2.156
19699SOL    HW160930   3.821  13.823   2.164
19699SOL    HW260931   3.958  13.774   2.122
19700SOL     OW60932   7.654   3.764   6.023
19700SOL    HW160933   7.642   3.812   5.940
19700SOL    HW260934   7.720   3.815   6.070
19701SOL     OW60935   1.593   2.131  10.953
19701SOL    HW160936   1.649   2.178  10.890
19701SOL    HW260937   1.542   2.200  10.995
19702SOL     OW60938   0.831   0.082   6.857
19702SOL    HW160939   0.886   0.020   6.808
19702SOL    HW260940   0.893   0.131   6.911
19703SOL     OW60941   4.602  13.403  13.057
19703SOL    HW160942   4.641  13.452  13.129
19703SOL    HW260943   4.523  13.363  13.094
19704SOL     OW60944   7.655   7.601   6.759
19704SOL    HW160945   7.691   7.513   6.774
19704SOL    HW260946   7.604   7.620   6.839
19705SOL     OW60947  11.203   4.307  12.251
19705SOL    HW160948  11.140   4.328  12.320
19705SOL    HW260949  11.149   4.292  12.173
19706SOL     OW60950  12.872  13.212   0.306
19706SOL    HW160951  12.865  13.299   0.267
19706SOL    HW260952  12.840  13.223   0.396
19707SOL     OW60953   3.481   0.569   3.732
19707SOL    HW160954   3.417   0.640   3.731
19707SOL    HW260955   3.516   0.569   3.821
19708SOL     OW60956   9.370  13.349  12.218
19708SOL    HW160957   9.345  13.342  12.310
19708SOL    HW260958   9.293  13.388  12.176
19709SOL     OW60959  13.930   5.978   1.930
19709SOL    HW160960  13.980   5.915   1.981
19709SOL    HW260961  13.863   6.011   1.990
19710SOL     OW60962   4.960  14.762   1.307
19710SOL    HW160963   4.934  14.721   1.390
19710SOL    HW260964   4.928  14.852   1.313
19711SOL     OW60965  11.429   7.539   0.178
19711SOL    HW160966  11.504   7.558   0.234
19711SOL    HW260967  11.467   7.492   0.103
19712SOL     OW60968   6.515  13.183   6.464
19712SOL    HW160969   6.557  13.106   6.424
19712SOL    HW260970   6.495  13.155   6.553
19713SOL     OW60971   8.729   3.870   8.288
19713SOL    HW160972   8.798   3.838   8.347
19713SOL    HW260973   8.650   3.868   8.341
19714SOL     OW60974   9.126   5.204   8.376
19714SOL    HW160975   9.077   5.278   8.412
19714SOL    HW260976   9.173   5.241   8.301
19715SOL     OW60977   1.584  11.338   2.204
19715SOL    HW160978   1.514  11.404   2.200
19715SOL    HW260979   1.593  11.320   2.298
19716SOL     OW60980   7.641   1.444  10.873
19716SOL    HW160981   7.584   1.520  10.878
19716SOL    HW260982   7.587   1.375  10.834
19717SOL     OW60983  10.855   5.602   3.829
19717SOL    HW160984  10.877   5.521   3.874
19717SOL    HW260985  10.762   5.615   3.846
19718SOL     OW60986   7.007  13.381   2.970
19718SOL    HW160987   7.011  13.293   3.009
19718SOL    HW260988   6.914  13.398   2.960
19719SOL     OW60989  14.714   4.880   0.260
19719SOL    HW160990  14.637   4.879   0.317
19719SOL    HW260991  14.730   4.973   0.244
19720SOL     OW60992   1.822   6.925   3.913
19720SOL    HW160993   1.867   6.846   3.939
19720SOL    HW260994   1.872   6.958   3.838
19721SOL     OW60995   7.175   5.379  11.609
19721SOL    HW160996   7.086   5.396  11.579
19721SOL    HW260997   7.183   5.430  11.690
19722SOL     OW60998   2.974   5.668   3.087
19722SOL    HW160999   3.040   5.711   3.032
19722SOL    HW261000   3.022   5.602   3.136
19723SOL     OW61001  12.114  10.098  12.792
19723SOL    HW161002  12.151  10.028  12.738
19723SOL    HW261003  12.040  10.131  12.742
19724SOL     OW61004   0.288   9.678  14.118
19724SOL    HW161005   0.314   9.769  14.106
19724SOL    HW261006   0.304   9.660  14.210
19725SOL     OW61007   4.561   6.405   4.387
19725SOL    HW161008   4.581   6.498   4.397
19725SOL    HW261009   4.620   6.375   4.318
19726SOL     OW61010   2.786   6.233   2.688
19726SOL    HW161011   2.815   6.255   2.600
19726SOL    HW261012   2.719   6.166   2.676
19727SOL     OW61013  11.684  12.485   3.760
19727SOL    HW161014  11.659  12.398   3.732
19727SOL    HW261015  11.775  12.495   3.733
19728SOL     OW61016   4.451  11.987   9.658
19728SOL    HW161017   4.450  12.070   9.705
19728SOL    HW261018   4.358  11.971   9.637
19729SOL     OW61019   6.752  11.931   4.672
19729SOL    HW161020   6.734  11.844   4.637
19729SOL    HW261021   6.781  11.982   4.596
19730SOL     OW61022   2.985   6.863  13.728
19730SOL    HW161023   2.921   6.890  13.662
19730SOL    HW261024   2.932   6.848  13.807
19731SOL     OW61025   2.364  12.787   7.150
19731SOL    HW161026   2.449  12.802   7.192
19731SOL    HW261027   2.324  12.716   7.200
19732SOL     OW61028  14.835   4.732  12.788
19732SOL    HW161029  14.787   4.815  12.792
19732SOL    HW261030   0.040   4.751  12.831
19733SOL     OW61031   0.382   5.504  12.875
19733SOL    HW161032   0.470   5.539  12.883
19733SOL    HW261033   0.330   5.577  12.841
19734SOL     OW61034   2.092   1.006  14.547
19734SOL    HW161035   2.175   1.047  14.524
19734SOL    HW261036   2.027   1.076  14.534
19735SOL     OW61037  14.727   5.007  13.939
19735SOL    HW161038  14.652   5.001  13.880
19735SOL    HW261039  14.693   5.051  14.017
19736SOL     OW61040   3.779   6.364   7.793
19736SOL    HW161041   3.834   6.435   7.761
19736SOL    HW261042   3.804   6.352   7.884
19737SOL     OW61043   1.406   0.280   4.889
19737SOL    HW161044   1.490   0.272   4.933
19737SOL    HW261045   1.342   0.255   4.955
19738SOL     OW61046   7.123   6.712   7.983
19738SOL    HW161047   7.099   6.636   7.930
19738SOL    HW261048   7.077   6.699   8.066
19739SOL     OW61049   5.940   0.390   2.821
19739SOL    HW161050   5.851   0.367   2.792
19739SOL    HW261051   5.945   0.360   2.911
19740SOL     OW61052  12.985  13.252  11.719
19740SOL    HW161053  13.014  13.331  11.765
19740SOL    HW261054  13.063  13.220  11.674
19741SOL     OW61055   8.187   3.121   6.296
19741SOL    HW161056   8.200   3.034   6.260
19741SOL    HW261057   8.254   3.129   6.363
19742SOL     OW61058   0.110  14.113  11.278
19742SOL    HW161059   0.072  14.041  11.328
19742SOL    HW261060   0.152  14.071  11.203
19743SOL     OW61061   1.972  12.894   5.127
19743SOL    HW161062   1.949  12.832   5.057
19743SOL    HW261063   2.039  12.848   5.178
19744SOL     OW61064  12.754   8.228  13.765
19744SOL    HW161065  12.776   8.274  13.846
19744SOL    HW261066  12.838   8.220  13.719
19745SOL     OW61067   0.439  10.728   5.372
19745SOL    HW161068   0.534  10.729   5.363
19745SOL    HW261069   0.414  10.638   5.352
19746SOL     OW61070   5.408   0.821   0.329
19746SOL    HW161071   5.442   0.877   0.259
19746SOL    HW261072   5.330   0.866   0.360
19747SOL     OW61073   3.876   7.536  12.546
19747SOL    HW161074   3.884   7.617  12.495
19747SOL    HW261075   3.885   7.466  12.482
19748SOL     OW61076   2.807  13.262   5.182
19748SOL    HW161077   2.859  13.301   5.112
19748SOL    HW261078   2.718  13.294   5.167
19749SOL     OW61079  10.394   3.799   9.921
19749SOL    HW161080  10.387   3.883   9.966
19749SOL    HW261081  10.485   3.772   9.935
19750SOL     OW61082  13.029   1.820   8.219
19750SOL    HW161083  13.124   1.811   8.214
19750SOL    HW261084  13.003   1.760   8.289
19751SOL     OW61085   5.031   1.117  12.011
19751SOL    HW161086   5.031   1.065  11.930
19751SOL    HW261087   5.117   1.101  12.049
19752SOL     OW61088   1.796   2.213   7.262
19752SOL    HW161089   1.778   2.266   7.339
19752SOL    HW261090   1.732   2.242   7.197
19753SOL     OW61091  14.649  12.599  11.617
19753SOL    HW161092  14.618  12.674  11.667
19753SOL    HW261093  14.573  12.539  11.614
19754SOL     OW61094   6.291   7.969   4.686
19754SOL    HW161095   6.286   7.873   4.681
19754SOL    HW261096   6.358   7.986   4.753
19755SOL     OW61097   8.600   1.686  12.869
19755SOL    HW161098   8.626   1.774  12.839
19755SOL    HW261099   8.558   1.646  12.793
19756SOL     OW61100   8.611   2.532   8.984
19756SOL    HW161101   8.544   2.537   9.051
19756SOL    HW261102   8.630   2.623   8.960
19757SOL     OW61103   6.386   8.605   1.908
19757SOL    HW161104   6.341   8.684   1.879
19757SOL    HW261105   6.323   8.534   1.891
19758SOL     OW61106  10.114  11.049   3.881
19758SOL    HW161107  10.071  11.046   3.796
19758SOL    HW261108  10.054  11.001   3.939
19759SOL     OW61109  10.117   1.992   7.546
19759SOL    HW161110  10.110   1.904   7.584
19759SOL    HW261111  10.175   2.039   7.605
19760SOL     OW61112   1.904  13.584   4.680
19760SOL    HW161113   1.860  13.505   4.709
19760SOL    HW261114   1.993  13.556   4.659
19761SOL     OW61115   2.836   6.303  14.634
19761SOL    HW161116   2.773   6.282  14.703
19761SOL    HW261117   2.814   6.392  14.607
19762SOL     OW61118   8.414  12.970   8.636
19762SOL    HW161119   8.382  12.995   8.723
19762SOL    HW261120   8.349  13.004   8.576
19763SOL     OW61121   9.686   9.870   1.032
19763SOL    HW161122   9.615   9.913   1.078
19763SOL    HW261123   9.665   9.776   1.036
19764SOL     OW61124  10.325   5.323   9.551
19764SOL    HW161125  10.380   5.341   9.475
19764SOL    HW261126  10.298   5.410   9.582
19765SOL     OW61127   3.164  13.328   7.954
19765SOL    HW161128   3.237  13.269   7.935
19765SOL    HW261129   3.204  13.402   8.000
19766SOL     OW61130   3.500   9.841   3.022
19766SOL    HW161131   3.466   9.908   3.080
19766SOL    HW261132   3.433   9.772   3.022
19767SOL     OW61133   5.290   4.943   8.696
19767SOL    HW161134   5.307   4.964   8.788
19767SOL    HW261135   5.358   4.989   8.647
19768SOL     OW61136   5.085   7.143  13.882
19768SOL    HW161137   5.095   7.051  13.906
19768SOL    HW261138   4.991   7.159  13.891
19769SOL     OW61139   0.053   3.750   3.540
19769SOL    HW161140   0.036   3.842   3.522
19769SOL    HW261141   0.146   3.738   3.520
19770SOL     OW61142   7.930  11.957   8.488
19770SOL    HW161143   7.956  11.866   8.475
19770SOL    HW261144   7.838  11.960   8.461
19771SOL     OW61145   8.526  14.772   1.436
19771SOL    HW161146   8.528  14.771   1.531
19771SOL    HW261147   8.618  14.776   1.410
19772SOL     OW61148   5.063  11.494   1.470
19772SOL    HW161149   5.041  11.402   1.482
19772SOL    HW261150   5.010  11.521   1.394
19773SOL     OW61151   3.057  11.011   5.040
19773SOL    HW161152   3.026  10.970   4.959
19773SOL    HW261153   3.022  10.956   5.110
19774SOL     OW61154   3.445   4.385  12.706
19774SOL    HW161155   3.414   4.373  12.796
19774SOL    HW261156   3.466   4.478  12.700
19775SOL     OW61157   4.266   7.854  12.154
19775SOL    HW161158   4.328   7.853  12.227
19775SOL    HW261159   4.319   7.837  12.076
19776SOL     OW61160  13.153   6.303   7.050
19776SOL    HW161161  13.164   6.277   6.959
19776SOL    HW261162  13.065   6.339   7.054
19777SOL     OW61163   2.276  12.384  14.557
19777SOL    HW161164   2.216  12.436  14.611
19777SOL    HW261165   2.223  12.311  14.525
19778SOL     OW61166   7.895   2.176   7.561
19778SOL    HW161167   7.847   2.138   7.488
19778SOL    HW261168   7.872   2.120   7.636
19779SOL     OW61169   5.132  14.327   7.545
19779SOL    HW161170   5.150  14.294   7.633
19779SOL    HW261171   5.044  14.295   7.525
19780SOL     OW61172   4.126   4.554   7.672
19780SOL    HW161173   4.181   4.584   7.600
19780SOL    HW261174   4.037   4.555   7.635
19781SOL     OW61175   5.574  13.036  10.052
19781SOL    HW161176   5.664  13.069  10.049
19781SOL    HW261177   5.583  12.941  10.050
19782SOL     OW61178   3.764  11.098   8.532
19782SOL    HW161179   3.795  11.043   8.604
19782SOL    HW261180   3.689  11.144   8.568
19783SOL     OW61181   8.494   4.353   1.208
19783SOL    HW161182   8.512   4.439   1.169
19783SOL    HW261183   8.413   4.324   1.166
19784SOL     OW61184   4.966  13.698  10.037
19784SOL    HW161185   5.055  13.674  10.063
19784SOL    HW261186   4.925  13.730  10.118
19785SOL     OW61187  12.510   1.117   1.581
19785SOL    HW161188  12.598   1.154   1.573
19785SOL    HW261189  12.499   1.103   1.675
19786SOL     OW61190  12.734  10.627   2.914
19786SOL    HW161191  12.737  10.715   2.952
19786SOL    HW261192  12.767  10.639   2.824
19787SOL     OW61193   0.693   6.312   6.185
19787SOL    HW161194   0.723   6.361   6.262
19787SOL    HW261195   0.661   6.379   6.124
19788SOL     OW61196  13.451   0.618  13.416
19788SOL    HW161197  13.357   0.637  13.415
19788SOL    HW261198  13.460   0.540  13.361
19789SOL     OW61199   5.030   3.353   1.713
19789SOL    HW161200   5.073   3.277   1.673
19789SOL    HW261201   4.979   3.392   1.641
19790SOL     OW61202   5.518  11.121   8.648
19790SOL    HW161203   5.535  11.031   8.675
19790SOL    HW261204   5.605  11.155   8.626
19791SOL     OW61205   4.960  10.215   9.206
19791SOL    HW161206   4.974  10.275   9.280
19791SOL    HW261207   5.015  10.140   9.226
19792SOL     OW61208   9.535   7.876  14.383
19792SOL    HW161209   9.485   7.885  14.302
19792SOL    HW261210   9.522   7.959  14.429
19793SOL     OW61211  13.484   1.899   0.718
19793SOL    HW161212  13.458   1.832   0.782
19793SOL    HW261213  13.534   1.850   0.652
19794SOL     OW61214   1.319   2.256   2.415
19794SOL    HW161215   1.283   2.337   2.450
19794SOL    HW261216   1.327   2.273   2.321
19795SOL     OW61217  13.759   5.707   5.518
19795SOL    HW161218  13.757   5.793   5.561
19795SOL    HW261219  13.670   5.672   5.531
19796SOL     OW61220   1.344   0.629   3.050
19796SOL    HW161221   1.249   0.621   3.041
19796SOL    HW261222   1.379   0.551   3.007
19797SOL     OW61223  13.690  12.086   5.775
19797SOL    HW161224  13.697  12.037   5.694
19797SOL    HW261225  13.632  12.033   5.830
19798SOL     OW61226   2.221   2.722   5.053
19798SOL    HW161227   2.209   2.689   4.964
19798SOL    HW261228   2.315   2.733   5.062
19799SOL     OW61229  11.176   2.824   4.302
19799SOL    HW161230  11.165   2.874   4.221
19799SOL    HW261231  11.176   2.732   4.273
19800SOL     OW61232  12.243   4.403   4.679
19800SOL    HW161233  12.248   4.310   4.700
19800SOL    HW261234  12.307   4.415   4.609
19801SOL     OW61235  10.694   3.613  13.265
19801SOL    HW161236  10.680   3.552  13.337
19801SOL    HW261237  10.759   3.570  13.209
19802SOL     OW61238   3.364   0.162   8.676
19802SOL    HW161239   3.270   0.152   8.658
19802SOL    HW261240   3.407   0.103   8.614
19803SOL     OW61241  11.635   7.998   1.046
19803SOL    HW161242  11.586   8.077   1.023
19803SOL    HW261243  11.629   7.943   0.968
19804SOL     OW61244   9.047   1.451  10.846
19804SOL    HW161245   9.058   1.546  10.848
19804SOL    HW261246   8.953   1.437  10.857
19805SOL     OW61247   3.629   9.225  11.745
19805SOL    HW161248   3.622   9.268  11.830
19805SOL    HW261249   3.615   9.295  11.681
19806SOL     OW61250   4.523  13.369   7.657
19806SOL    HW161251   4.495  13.386   7.747
19806SOL    HW261252   4.513  13.453   7.612
19807SOL     OW61253  13.892   2.585   6.683
19807SOL    HW161254  13.832   2.585   6.609
19807SOL    HW261255  13.946   2.663   6.671
19808SOL     OW61256   9.215   9.127   2.306
19808SOL    HW161257   9.193   9.220   2.298
19808SOL    HW261258   9.265   9.121   2.387
19809SOL     OW61259   2.029   8.701  11.736
19809SOL    HW161260   1.947   8.663  11.704
19809SOL    HW261261   2.072   8.630  11.783
19810SOL     OW61262   9.657  12.563  13.809
19810SOL    HW161263   9.719  12.597  13.745
19810SOL    HW261264   9.571  12.576  13.769
19811SOL     OW61265   4.569   7.519  11.702
19811SOL    HW161266   4.497   7.552  11.756
19811SOL    HW261267   4.593   7.436  11.743
19812SOL     OW61268  10.089   1.177  11.848
19812SOL    HW161269  10.136   1.156  11.928
19812SOL    HW261270  10.035   1.099  11.831
19813SOL     OW61271  10.188  11.191   2.680
19813SOL    HW161272  10.150  11.106   2.702
19813SOL    HW261273  10.281  11.182   2.701
19814SOL     OW61274   2.905   1.331   7.316
19814SOL    HW161275   2.960   1.383   7.375
19814SOL    HW261276   2.875   1.394   7.250
19815SOL     OW61277  14.175  12.655   6.065
19815SOL    HW161278  14.203  12.602   5.990
19815SOL    HW261279  14.210  12.608   6.141
19816SOL     OW61280   2.093   1.819  10.934
19816SOL    HW161281   2.105   1.746  10.995
19816SOL    HW261282   2.120   1.784  10.849
19817SOL     OW61283  12.763   4.683   9.498
19817SOL    HW161284  12.741   4.590   9.502
19817SOL    HW261285  12.711   4.723   9.567
19818SOL     OW61286   9.813   2.114   8.182
19818SOL    HW161287   9.792   2.053   8.253
19818SOL    HW261288   9.906   2.102   8.166
19819SOL     OW61289  13.190  12.869   1.812
19819SOL    HW161290  13.260  12.887   1.875
19819SOL    HW261291  13.215  12.785   1.773
19820SOL     OW61292   9.436   1.926  10.030
19820SOL    HW161293   9.398   1.838  10.036
19820SOL    HW261294   9.528   1.911  10.006
19821SOL     OW61295   5.920   7.211  10.191
19821SOL    HW161296   6.000   7.202  10.139
19821SOL    HW261297   5.926   7.298  10.230
19822SOL     OW61298  11.464  14.037   9.721
19822SOL    HW161299  11.514  14.115   9.745
19822SOL    HW261300  11.454  14.044   9.626
19823SOL     OW61301   6.955   7.846  11.378
19823SOL    HW161302   6.952   7.930  11.334
19823SOL    HW261303   6.868   7.836  11.418
19824SOL     OW61304  12.417   3.953   9.453
19824SOL    HW161305  12.433   3.926   9.543
19824SOL    HW261306  12.404   4.048   9.458
19825SOL     OW61307   1.790   3.920  11.795
19825SOL    HW161308   1.793   3.884  11.707
19825SOL    HW261309   1.785   4.015  11.783
19826SOL     OW61310   0.102   2.544   9.464
19826SOL    HW161311   0.126   2.530   9.373
19826SOL    HW261312   0.022   2.493   9.476
19827SOL     OW61313  14.101   7.324  12.393
19827SOL    HW161314  14.014   7.358  12.375
19827SOL    HW261315  14.161   7.390  12.357
19828SOL     OW61316   1.301   5.586   8.744
19828SOL    HW161317   1.354   5.517   8.705
19828SOL    HW261318   1.333   5.593   8.834
19829SOL     OW61319  13.241   2.238  11.383
19829SOL    HW161320  13.242   2.185  11.303
19829SOL    HW261321  13.250   2.328  11.353
19830SOL     OW61322   4.433  10.429  13.421
19830SOL    HW161323   4.372  10.499  13.397
19830SOL    HW261324   4.391  10.385  13.495
19831SOL     OW61325   6.388   3.009   4.468
19831SOL    HW161326   6.482   3.010   4.487
19831SOL    HW261327   6.347   3.000   4.554
19832SOL     OW61328  13.468  12.752   0.310
19832SOL    HW161329  13.492  12.826   0.366
19832SOL    HW261330  13.545  12.736   0.256
19833SOL     OW61331  14.450   8.890  11.564
19833SOL    HW161332  14.397   8.964  11.536
19833SOL    HW261333  14.535   8.928  11.587
19834SOL     OW61334   4.098   4.244  10.348
19834SOL    HW161335   4.048   4.292  10.414
19834SOL    HW261336   4.129   4.166  10.393
19835SOL     OW61337  11.109   2.131   0.967
19835SOL    HW161338  11.050   2.126   0.891
19835SOL    HW261339  11.050   2.132   1.043
19836SOL     OW61340   4.922   7.597   8.977
19836SOL    HW161341   4.990   7.654   8.942
19836SOL    HW261342   4.868   7.574   8.901
19837SOL     OW61343   7.104   1.654  12.507
19837SOL    HW161344   7.102   1.609  12.592
19837SOL    HW261345   7.171   1.721  12.517
19838SOL     OW61346   3.942  11.676   5.231
19838SOL    HW161347   3.967  11.586   5.211
19838SOL    HW261348   3.933  11.677   5.326
19839SOL     OW61349  13.928  11.197   3.265
19839SOL    HW161350  13.899  11.175   3.177
19839SOL    HW261351  13.931  11.114   3.312
19840SOL     OW61352  12.918   5.436   5.129
19840SOL    HW161353  12.919   5.432   5.225
19840SOL    HW261354  12.995   5.489   5.107
19841SOL     OW61355  12.875  12.805  10.726
19841SOL    HW161356  12.923  12.888  10.719
19841SOL    HW261357  12.788  12.831  10.758
19842SOL     OW61358  14.335   1.564   5.651
19842SOL    HW161359  14.242   1.581   5.663
19842SOL    HW261360  14.378   1.614   5.721
19843SOL     OW61361   3.448   8.700   4.445
19843SOL    HW161362   3.449   8.705   4.541
19843SOL    HW261363   3.413   8.613   4.427
19844SOL     OW61364   9.462   7.325   8.230
19844SOL    HW161365   9.449   7.382   8.306
19844SOL    HW261366   9.455   7.384   8.155
19845SOL     OW61367  14.313   1.075  10.040
19845SOL    HW161368  14.354   0.999  10.081
19845SOL    HW261369  14.384   1.137  10.028
19846SOL     OW61370   4.279  14.143   8.825
19846SOL    HW161371   4.229  14.169   8.902
19846SOL    HW261372   4.217  14.152   8.753
19847SOL     OW61373  12.527   3.209   1.547
19847SOL    HW161374  12.618   3.222   1.520
19847SOL    HW261375  12.478   3.202   1.465
19848SOL     OW61376  14.845   5.132   7.219
19848SOL    HW161377  14.777   5.064   7.219
19848SOL    HW261378  14.819   5.192   7.289
19849SOL     OW61379   1.944  14.396  13.385
19849SOL    HW161380   2.003  14.465  13.416
19849SOL    HW261381   1.913  14.353  13.465
19850SOL     OW61382   6.210  11.678   7.951
19850SOL    HW161383   6.300  11.707   7.942
19850SOL    HW261384   6.158  11.758   7.945
19851SOL     OW61385   1.067   4.944   2.102
19851SOL    HW161386   1.080   5.015   2.165
19851SOL    HW261387   1.077   4.864   2.152
19852SOL     OW61388   2.067   7.254   8.131
19852SOL    HW161389   2.052   7.174   8.081
19852SOL    HW261390   2.147   7.237   8.180
19853SOL     OW61391   9.181  12.657   0.088
19853SOL    HW161392   9.118  12.729   0.081
19853SOL    HW261393   9.206  12.657   0.180
19854SOL     OW61394   9.345   9.255   0.540
19854SOL    HW161395   9.303   9.340   0.528
19854SOL    HW261396   9.404   9.246   0.466
19855SOL     OW61397   6.787  10.179   9.347
19855SOL    HW161398   6.746  10.119   9.408
19855SOL    HW261399   6.836  10.123   9.287
19856SOL     OW61400  10.608  10.659   3.517
19856SOL    HW161401  10.676  10.651   3.450
19856SOL    HW261402  10.619  10.581   3.572
19857SOL     OW61403   6.438   3.161   2.235
19857SOL    HW161404   6.400   3.220   2.301
19857SOL    HW261405   6.486   3.097   2.286
19858SOL     OW61406   6.425   6.704  11.107
19858SOL    HW161407   6.495   6.688  11.043
19858SOL    HW261408   6.426   6.627  11.163
19859SOL     OW61409   2.690   0.435  12.415
19859SOL    HW161410   2.666   0.350  12.377
19859SOL    HW261411   2.775   0.454  12.377
19860SOL     OW61412   6.889   4.420   4.305
19860SOL    HW161413   6.971   4.398   4.262
19860SOL    HW261414   6.877   4.513   4.288
19861SOL     OW61415   8.753  13.146   3.428
19861SOL    HW161416   8.836  13.101   3.441
19861SOL    HW261417   8.698  13.117   3.502
19862SOL     OW61418   5.758   6.729   9.897
19862SOL    HW161419   5.806   6.734   9.980
19862SOL    HW261420   5.816   6.769   9.833
19863SOL     OW61421  12.048   1.675   2.648
19863SOL    HW161422  12.016   1.598   2.601
19863SOL    HW261423  12.134   1.693   2.610
19864SOL     OW61424   7.195   4.057   2.036
19864SOL    HW161425   7.159   4.083   1.952
19864SOL    HW261426   7.169   4.127   2.096
19865SOL     OW61427  10.326  10.847   7.832
19865SOL    HW161428  10.357  10.774   7.885
19865SOL    HW261429  10.238  10.820   7.803
19866SOL     OW61430   7.451  11.615   3.526
19866SOL    HW161431   7.362  11.632   3.496
19866SOL    HW261432   7.445  11.622   3.622
19867SOL     OW61433   6.519   9.265   9.496
19867SOL    HW161434   6.550   9.313   9.573
19867SOL    HW261435   6.556   9.313   9.422
19868SOL     OW61436  11.180   3.930   0.780
19868SOL    HW161437  11.203   3.995   0.847
19868SOL    HW261438  11.085   3.922   0.785
19869SOL     OW61439  10.461  12.091   1.168
19869SOL    HW161440  10.415  12.141   1.100
19869SOL    HW261441  10.391  12.045   1.215
19870SOL     OW61442   2.432   9.025  14.239
19870SOL    HW161443   2.349   8.994  14.275
19870SOL    HW261444   2.456   8.960  14.174
19871SOL     OW61445  10.071   7.428   6.359
19871SOL    HW161446   9.978   7.452   6.367
19871SOL    HW261447  10.097   7.405   6.448
19872SOL     OW61448   7.992   2.807   3.836
19872SOL    HW161449   7.993   2.816   3.931
19872SOL    HW261450   7.932   2.876   3.806
19873SOL     OW61451  11.849   1.581   6.723
19873SOL    HW161452  11.887   1.533   6.796
19873SOL    HW261453  11.858   1.673   6.748
19874SOL     OW61454   0.365   9.392  10.625
19874SOL    HW161455   0.291   9.444  10.655
19874SOL    HW261456   0.431   9.400  10.694
19875SOL     OW61457  11.269   5.426  14.312
19875SOL    HW161458  11.356   5.436  14.349
19875SOL    HW261459  11.275   5.347  14.258
19876SOL     OW61460   9.174   4.536  10.179
19876SOL    HW161461   9.206   4.483  10.252
19876SOL    HW261462   9.250   4.546  10.122
19877SOL     OW61463  10.589   2.503   5.663
19877SOL    HW161464  10.588   2.564   5.737
19877SOL    HW261465  10.625   2.554   5.590
19878SOL     OW61466   3.085   0.199   0.368
19878SOL    HW161467   3.170   0.207   0.324
19878SOL    HW261468   3.072   0.104   0.376
19879SOL     OW61469   0.654   4.287   5.723
19879SOL    HW161470   0.658   4.378   5.753
19879SOL    HW261471   0.745   4.257   5.724
19880SOL     OW61472   0.391  10.963  12.757
19880SOL    HW161473   0.481  10.971  12.790
19880SOL    HW261474   0.344  10.916  12.825
19881SOL     OW61475   0.958  14.165  11.053
19881SOL    HW161476   0.922  14.213  11.128
19881SOL    HW261477   1.021  14.105  11.091
19882SOL     OW61478  10.001   4.250  13.245
19882SOL    HW161479   9.988   4.315  13.175
19882SOL    HW261480  10.033   4.173  13.200
19883SOL     OW61481   9.770   8.482  14.398
19883SOL    HW161482   9.768   8.406  14.339
19883SOL    HW261483   9.757   8.445  14.485
19884SOL     OW61484  11.459   4.973   0.017
19884SOL    HW161485  11.554   4.962   0.019
19884SOL    HW261486  11.445   5.067   0.024
19885SOL     OW61487   4.547  14.092   5.961
19885SOL    HW161488   4.547  14.041   6.042
19885SOL    HW261489   4.595  14.172   5.984
19886SOL     OW61490  14.752   1.979  11.743
19886SOL    HW161491  14.823   1.938  11.793
19886SOL    HW261492  14.797   2.033  11.679
19887SOL     OW61493   5.538   4.684  11.465
19887SOL    HW161494   5.563   4.682  11.557
19887SOL    HW261495   5.610   4.730  11.422
19888SOL     OW61496   0.010   6.585   8.113
19888SOL    HW161497  14.874   6.665   8.164
19888SOL    HW261498  14.834   6.519   8.156
19889SOL     OW61499   0.821  12.604   7.210
19889SOL    HW161500   0.914  12.585   7.209
19889SOL    HW261501   0.780  12.525   7.243
19890SOL     OW61502   3.254   6.109   6.216
19890SOL    HW161503   3.183   6.047   6.232
19890SOL    HW261504   3.332   6.054   6.204
19891SOL     OW61505   9.919   2.754   0.582
19891SOL    HW161506   9.840   2.766   0.529
19891SOL    HW261507   9.990   2.782   0.525
19892SOL     OW61508   1.685   8.623   3.155
19892SOL    HW161509   1.650   8.645   3.241
19892SOL    HW261510   1.759   8.682   3.144
19893SOL     OW61511   9.982   2.087  12.343
19893SOL    HW161512   9.894   2.066  12.374
19893SOL    HW261513  10.039   2.074  12.420
19894SOL     OW61514   3.091   1.593   7.195
19894SOL    HW161515   3.001   1.587   7.164
19894SOL    HW261516   3.133   1.654   7.133
19895SOL     OW61517  10.045  10.045   8.855
19895SOL    HW161518   9.952  10.069   8.853
19895SOL    HW261519  10.057   9.985   8.782
19896SOL     OW61520   6.320  12.699  12.941
19896SOL    HW161521   6.371  12.698  13.022
19896SOL    HW261522   6.323  12.609  12.909
19897SOL     OW61523   3.685   7.887   5.952
19897SOL    HW161524   3.629   7.876   6.028
19897SOL    HW261525   3.650   7.964   5.907
19898SOL     OW61526  12.840  10.043  13.246
19898SOL    HW161527  12.790   9.977  13.293
19898SOL    HW261528  12.865  10.001  13.164
19899SOL     OW61529   4.967   7.671   6.881
19899SOL    HW161530   4.922   7.684   6.964
19899SOL    HW261531   5.044   7.620   6.903
19900SOL     OW61532   7.053   1.682   7.720
19900SOL    HW161533   7.145   1.654   7.724
19900SOL    HW261534   7.057   1.777   7.717
19901SOL     OW61535   6.790   0.292  10.397
19901SOL    HW161536   6.769   0.373  10.445
19901SOL    HW261537   6.835   0.322  10.318
19902SOL     OW61538  10.619   5.293   1.637
19902SOL    HW161539  10.572   5.293   1.721
19902SOL    HW261540  10.708   5.266   1.660
19903SOL     OW61541  13.384   2.789  12.253
19903SOL    HW161542  13.417   2.699  12.259
19903SOL    HW261543  13.319   2.787  12.183
19904SOL     OW61544   5.719   4.775   5.309
19904SOL    HW161545   5.681   4.688   5.320
19904SOL    HW261546   5.761   4.772   5.223
19905SOL     OW61547  13.681   0.430   4.882
19905SOL    HW161548  13.762   0.481   4.890
19905SOL    HW261549  13.683   0.370   4.957
19906SOL     OW61550   4.240   6.063   0.677
19906SOL    HW161551   4.190   6.138   0.709
19906SOL    HW261552   4.256   6.083   0.585
19907SOL     OW61553   8.127   9.150   9.677
19907SOL    HW161554   8.210   9.175   9.638
19907SOL    HW261555   8.148   9.077   9.734
19908SOL     OW61556   8.878  14.865   6.620
19908SOL    HW161557   8.892   0.010   6.711
19908SOL    HW261558   8.788   0.012   6.602
19909SOL     OW61559  12.415   9.783   7.415
19909SOL    HW161560  12.368   9.720   7.469
19909SOL    HW261561  12.423   9.861   7.470
19910SOL     OW61562   9.104  12.464  14.453
19910SOL    HW161563   9.163  12.536  14.472
19910SOL    HW261564   9.087  12.423  14.538
19911SOL     OW61565  13.763   6.738   7.624
19911SOL    HW161566  13.770   6.683   7.702
19911SOL    HW261567  13.719   6.683   7.559
19912SOL     OW61568  10.551   6.534  10.089
19912SOL    HW161569  10.555   6.444  10.056
19912SOL    HW261570  10.542   6.588  10.011
19913SOL     OW61571   6.471  11.158  13.290
19913SOL    HW161572   6.504  11.073  13.317
19913SOL    HW261573   6.433  11.143  13.203
19914SOL     OW61574  13.294  10.721   3.146
19914SOL    HW161575  13.324  10.632   3.165
19914SOL    HW261576  13.361  10.778   3.184
19915SOL     OW61577  14.246   3.352   2.171
19915SOL    HW161578  14.241   3.280   2.108
19915SOL    HW261579  14.205   3.317   2.250
19916SOL     OW61580   9.474   3.607  12.239
19916SOL    HW161581   9.405   3.549  12.272
19916SOL    HW261582   9.440   3.695  12.252
19917SOL     OW61583   1.608   0.012  13.386
19917SOL    HW161584   1.554  14.853  13.316
19917SOL    HW261585   1.570   0.098  13.401
19918SOL     OW61586   5.169   4.736   7.008
19918SOL    HW161587   5.220   4.812   6.979
19918SOL    HW261588   5.220   4.700   7.081
19919SOL     OW61589   5.290   6.612   1.677
19919SOL    HW161590   5.256   6.700   1.663
19919SOL    HW261591   5.377   6.625   1.714
19920SOL     OW61592   9.170  12.889  10.810
19920SOL    HW161593   9.186  12.979  10.838
19920SOL    HW261594   9.197  12.887  10.718
19921SOL     OW61595  11.747   2.485  13.085
19921SOL    HW161596  11.819   2.539  13.117
19921SOL    HW261597  11.762   2.400  13.126
19922SOL     OW61598  14.096  10.229  14.166
19922SOL    HW161599  14.042  10.217  14.089
19922SOL    HW261600  14.101  10.143  14.206
19923SOL     OW61601   5.617   0.323   1.932
19923SOL    HW161602   5.627   0.312   1.837
19923SOL    HW261603   5.524   0.304   1.948
19924SOL     OW61604   8.266   3.963   3.274
19924SOL    HW161605   8.266   4.059   3.271
19924SOL    HW261606   8.197   3.940   3.336
19925SOL     OW61607   9.260   7.431   0.598
19925SOL    HW161608   9.165   7.429   0.586
19925SOL    HW261609   9.284   7.340   0.616
19926SOL     OW61610  12.189   7.602   2.003
19926SOL    HW161611  12.276   7.570   2.029
19926SOL    HW261612  12.129   7.561   2.065
19927SOL     OW61613   2.617   1.350   8.623
19927SOL    HW161614   2.684   1.284   8.642
19927SOL    HW261615   2.665   1.425   8.590
19928SOL     OW61616   6.319  13.921  12.926
19928SOL    HW161617   6.410  13.945  12.945
19928SOL    HW261618   6.268  13.972  12.989
19929SOL     OW61619   4.582  12.409  11.572
19929SOL    HW161620   4.513  12.355  11.609
19929SOL    HW261621   4.634  12.349  11.519
19930SOL     OW61622  11.173   9.477  14.242
19930SOL    HW161623  11.118   9.487  14.320
19930SOL    HW261624  11.253   9.527  14.263
19931SOL     OW61625   7.009  13.361   4.911
19931SOL    HW161626   7.045  13.297   4.973
19931SOL    HW261627   7.082  13.378   4.851
19932SOL     OW61628   2.230   0.476  14.161
19932SOL    HW161629   2.313   0.466  14.208
19932SOL    HW261630   2.186   0.548  14.206
19933SOL     OW61631  14.575   4.302   2.683
19933SOL    HW161632  14.618   4.228   2.726
19933SOL    HW261633  14.548   4.359   2.755
19934SOL     OW61634   3.173   8.999   2.796
19934SOL    HW161635   3.142   8.984   2.707
19934SOL    HW261636   3.227   9.078   2.790
19935SOL     OW61637   6.395  11.517   2.864
19935SOL    HW161638   6.371  11.477   2.780
19935SOL    HW261639   6.407  11.609   2.843
19936SOL     OW61640   0.672   1.151   7.529
19936SOL    HW161641   0.601   1.089   7.511
19936SOL    HW261642   0.727   1.106   7.593
19937SOL     OW61643  14.753   8.720  14.654
19937SOL    HW161644  14.709   8.780  14.594
19937SOL    HW261645  14.843   8.717  14.623
19938SOL     OW61646  12.383  12.846   7.084
19938SOL    HW161647  12.411  12.937   7.073
19938SOL    HW261648  12.290  12.846   7.060
19939SOL     OW61649   0.045  13.049   7.652
19939SOL    HW161650   0.046  13.033   7.558
19939SOL    HW261651   0.081  12.969   7.690
19940SOL     OW61652   8.770  13.459  13.630
19940SOL    HW161653   8.698  13.521  13.642
19940SOL    HW261654   8.736  13.393  13.570
19941SOL     OW61655  13.465   9.905   7.900
19941SOL    HW161656  13.528   9.876   7.966
19941SOL    HW261657  13.442   9.826   7.852
19942SOL     OW61658   6.714   0.282   0.739
19942SOL    HW161659   6.791   0.287   0.796
19942SOL    HW261660   6.745   0.237   0.660
19943SOL     OW61661   7.611   7.288   6.894
19943SOL    HW161662   7.678   7.310   6.959
19943SOL    HW261663   7.640   7.206   6.855
19944SOL     OW61664   1.954  10.557  14.709
19944SOL    HW161665   1.927  10.545  14.800
19944SOL    HW261666   1.922  10.480  14.663
19945SOL     OW61667  11.665   2.525  13.917
19945SOL    HW161668  11.739   2.577  13.887
19945SOL    HW261669  11.701   2.470  13.986
19946SOL     OW61670  14.202   2.153  11.971
19946SOL    HW161671  14.258   2.091  12.017
19946SOL    HW261672  14.215   2.236  12.017
19947SOL     OW61673  11.122   4.962   6.327
19947SOL    HW161674  11.028   4.971   6.346
19947SOL    HW261675  11.125   4.930   6.236
19948SOL     OW61676  13.014   9.361   8.139
19948SOL    HW161677  12.930   9.403   8.117
19948SOL    HW261678  13.080   9.418   8.099
19949SOL     OW61679   9.295   3.126   9.246
19949SOL    HW161680   9.319   3.076   9.325
19949SOL    HW261681   9.373   3.177   9.226
19950SOL     OW61682   8.977   7.493   6.382
19950SOL    HW161683   8.905   7.462   6.437
19950SOL    HW261684   9.008   7.572   6.427
19951SOL     OW61685   1.950  13.399  10.961
19951SOL    HW161686   2.020  13.382  11.024
19951SOL    HW261687   1.993  13.449  10.891
19952SOL     OW61688  11.679   1.440   0.929
19952SOL    HW161689  11.632   1.476   1.004
19952SOL    HW261690  11.624   1.368   0.898
19953SOL     OW61691   0.009  11.332   4.892
19953SOL    HW161692   0.088  11.303   4.938
19953SOL    HW261693   0.042  11.373   4.812
19954SOL     OW61694  14.169   4.596   0.751
19954SOL    HW161695  14.236   4.664   0.744
19954SOL    HW261696  14.086   4.643   0.745
19955SOL     OW61697   7.648  13.183  12.933
19955SOL    HW161698   7.575  13.138  12.890
19955SOL    HW261699   7.710  13.201  12.862
19956SOL     OW61700  13.255  10.520   6.383
19956SOL    HW161701  13.346  10.532   6.411
19956SOL    HW261702  13.226  10.608   6.358
19957SOL     OW61703   0.673  10.470  13.928
19957SOL    HW161704   0.699  10.555  13.963
19957SOL    HW261705   0.592  10.448  13.974
19958SOL     OW61706   0.096   5.187  14.166
19958SOL    HW161707   0.147   5.238  14.103
19958SOL    HW261708   0.160   5.133  14.211
19959SOL     OW61709  12.848   5.823   0.950
19959SOL    HW161710  12.889   5.869   1.024
19959SOL    HW261711  12.754   5.829   0.968
19960SOL     OW61712   4.509   7.009  11.794
19960SOL    HW161713   4.498   7.102  11.773
19960SOL    HW261714   4.602   6.999  11.809
19961SOL     OW61715   8.080   6.533   7.933
19961SOL    HW161716   8.068   6.538   8.028
19961SOL    HW261717   8.009   6.585   7.897
19962SOL     OW61718   7.276   2.138  10.835
19962SOL    HW161719   7.228   2.056  10.826
19962SOL    HW261720   7.311   2.155  10.748
19963SOL     OW61721   2.640   7.092   2.261
19963SOL    HW161722   2.591   7.173   2.249
19963SOL    HW261723   2.721   7.106   2.211
19964SOL     OW61724   1.394  11.090   9.664
19964SOL    HW161725   1.464  11.117   9.604
19964SOL    HW261726   1.330  11.046   9.609
19965SOL     OW61727  13.645   5.783   9.819
19965SOL    HW161728  13.656   5.689   9.802
19965SOL    HW261729  13.608   5.817   9.738
19966SOL     OW61730   8.369   6.645   0.232
19966SOL    HW161731   8.341   6.674   0.145
19966SOL    HW261732   8.383   6.726   0.281
19967SOL     OW61733  13.833   5.850   6.907
19967SOL    HW161734  13.903   5.876   6.848
19967SOL    HW261735  13.781   5.787   6.857
19968SOL     OW61736  12.876  12.742   2.211
19968SOL    HW161737  12.781  12.736   2.198
19968SOL    HW261738  12.890  12.830   2.245
19969SOL     OW61739   7.295  13.026   3.585
19969SOL    HW161740   7.372  12.987   3.545
19969SOL    HW261741   7.286  13.112   3.544
19970SOL     OW61742   2.265   7.154   8.864
19970SOL    HW161743   2.350   7.133   8.902
19970SOL    HW261744   2.263   7.249   8.860
19971SOL     OW61745   4.520  11.720   7.132
19971SOL    HW161746   4.595  11.772   7.162
19971SOL    HW261747   4.458  11.722   7.205
19972SOL     OW61748  10.910   7.523  13.081
19972SOL    HW161749  10.904   7.439  13.034
19972SOL    HW261750  10.881   7.502  13.170
19973SOL     OW61751   3.261   8.662   6.622
19973SOL    HW161752   3.327   8.680   6.555
19973SOL    HW261753   3.307   8.674   6.705
19974SOL     OW61754   5.693   3.698   1.553
19974SOL    HW161755   5.619   3.757   1.538
19974SOL    HW261756   5.759   3.724   1.489
19975SOL     OW61757   1.478   2.575   0.176
19975SOL    HW161758   1.549   2.516   0.204
19975SOL    HW261759   1.399   2.536   0.213
19976SOL     OW61760   2.245  14.273   9.734
19976SOL    HW161761   2.150  14.270   9.745
19976SOL    HW261762   2.273  14.350   9.784
19977SOL     OW61763   8.716  12.068   8.152
19977SOL    HW161764   8.660  12.089   8.077
19977SOL    HW261765   8.799  12.110   8.132
19978SOL     OW61766  11.908  14.322   6.775
19978SOL    HW161767  11.938  14.384   6.709
19978SOL    HW261768  11.851  14.262   6.728
19979SOL     OW61769   2.395  10.187   4.590
19979SOL    HW161770   2.328  10.253   4.605
19979SOL    HW261771   2.394  10.172   4.496
19980SOL     OW61772   4.608   7.629   4.060
19980SOL    HW161773   4.686   7.677   4.088
19980SOL    HW261774   4.548   7.634   4.134
19981SOL     OW61775   3.661   1.416   5.538
19981SOL    HW161776   3.653   1.511   5.540
19981SOL    HW261777   3.650   1.389   5.629
19982SOL     OW61778  14.066  12.349  13.803
19982SOL    HW161779  13.993  12.401  13.835
19982SOL    HW261780  14.141  12.407  13.808
19983SOL     OW61781   4.616  14.051  14.201
19983SOL    HW161782   4.666  14.037  14.281
19983SOL    HW261783   4.547  14.113  14.226
19984SOL     OW61784  13.203  11.696  11.740
19984SOL    HW161785  13.134  11.656  11.687
19984SOL    HW261786  13.256  11.745  11.676
19985SOL     OW61787  13.706  11.493   8.228
19985SOL    HW161788  13.628  11.439   8.215
19985SOL    HW261789  13.779  11.431   8.220
19986SOL     OW61790   3.284  12.519   3.202
19986SOL    HW161791   3.366  12.471   3.213
19986SOL    HW261792   3.230  12.463   3.147
19987SOL     OW61793   2.981   5.040   8.262
19987SOL    HW161794   2.998   5.134   8.259
19987SOL    HW261795   2.992   5.011   8.172
19988SOL     OW61796  14.472   7.079   8.018
19988SOL    HW161797  14.506   7.167   8.036
19988SOL    HW261798  14.549   7.022   8.023
19989SOL     OW61799   4.135  12.626   9.796
19989SOL    HW161800   4.112  12.605   9.705
19989SOL    HW261801   4.117  12.719   9.804
19990SOL     OW61802  13.962   0.562  14.716
19990SOL    HW161803  13.911   0.643  14.723
19990SOL    HW261804  14.043   0.581  14.764
19991SOL     OW61805  10.418   4.380  10.027
19991SOL    HW161806  10.324   4.362  10.024
19991SOL    HW261807  10.430   4.450   9.963
19992SOL     OW61808   8.968   5.537   9.472
19992SOL    HW161809   9.042   5.595   9.490
19992SOL    HW261810   8.898   5.596   9.443
19993SOL     OW61811   9.653   8.828  13.953
19993SOL    HW161812   9.713   8.805  14.024
19993SOL    HW261813   9.567   8.837  13.996
19994SOL     OW61814  11.622  11.649   5.619
19994SOL    HW161815  11.715  11.666   5.634
19994SOL    HW261816  11.609  11.667   5.526
19995SOL     OW61817   8.999   3.622  12.196
19995SOL    HW161818   8.972   3.584  12.112
19995SOL    HW261819   8.978   3.715  12.188
19996SOL     OW61820  13.707   3.138   8.032
19996SOL    HW161821  13.752   3.055   8.050
19996SOL    HW261822  13.640   3.144   8.101
19997SOL     OW61823  10.175  13.797  12.481
19997SOL    HW161824  10.162  13.814  12.574
19997SOL    HW261825  10.261  13.835  12.462
19998SOL     OW61826  10.386   0.394   3.729
19998SOL    HW161827  10.310   0.384   3.786
19998SOL    HW261828  10.365   0.342   3.652
19999SOL     OW61829   8.713   2.933   5.454
19999SOL    HW161830   8.680   2.879   5.527
19999SOL    HW261831   8.665   3.016   5.462
20000SOL     OW61832   7.041   4.462   2.610
20000SOL    HW161833   6.973   4.434   2.672
20000SOL    HW261834   7.109   4.501   2.664
20001SOL     OW61835   9.522   7.014   1.347
20001SOL    HW161836   9.498   6.956   1.275
20001SOL    HW261837   9.528   7.101   1.306
20002SOL     OW61838  12.079   0.517   8.404
20002SOL    HW161839  12.058   0.455   8.474
20002SOL    HW261840  12.155   0.479   8.360
20003SOL     OW61841  12.428   1.445   4.066
20003SOL    HW161842  12.486   1.507   4.022
20003SOL    HW261843  12.440   1.363   4.018
20004SOL     OW61844   9.028   4.466  12.433
20004SOL    HW161845   9.031   4.483  12.527
20004SOL    HW261846   9.010   4.551  12.394
20005SOL     OW61847  12.705   0.448   6.102
20005SOL    HW161848  12.732   0.391   6.175
20005SOL    HW261849  12.740   0.534   6.126
20006SOL     OW61850   9.275   9.771   2.107
20006SOL    HW161851   9.335   9.697   2.116
20006SOL    HW261852   9.294   9.827   2.182
20007SOL     OW61853   9.610   7.330   1.994
20007SOL    HW161854   9.594   7.278   2.073
20007SOL    HW261855   9.642   7.266   1.929
20008SOL     OW61856   8.501   6.731   5.709
20008SOL    HW161857   8.458   6.664   5.657
20008SOL    HW261858   8.433   6.764   5.768
20009SOL     OW61859   9.922  12.939   8.888
20009SOL    HW161860   9.942  12.849   8.913
20009SOL    HW261861   9.944  12.991   8.965
20010SOL     OW61862   2.148   4.752   7.612
20010SOL    HW161863   2.061   4.767   7.651
20010SOL    HW261864   2.209   4.790   7.676
20011SOL     OW61865   4.874   9.928   1.123
20011SOL    HW161866   4.912   9.995   1.066
20011SOL    HW261867   4.867   9.970   1.208
20012SOL     OW61868   8.179  13.608  10.309
20012SOL    HW161869   8.137  13.571  10.386
20012SOL    HW261870   8.171  13.540  10.242
20013SOL     OW61871   3.856   7.999   8.251
20013SOL    HW161872   3.867   8.089   8.221
20013SOL    HW261873   3.816   8.008   8.338
20014SOL     OW61874   0.290   1.291  13.476
20014SOL    HW161875   0.219   1.326  13.530
20014SOL    HW261876   0.367   1.292  13.532
20015SOL     OW61877   7.565   0.931   0.148
20015SOL    HW161878   7.500   0.909   0.081
20015SOL    HW261879   7.593   0.847   0.183
20016SOL     OW61880  14.230   9.492  11.951
20016SOL    HW161881  14.288   9.568  11.954
20016SOL    HW261882  14.239   9.458  11.862
20017SOL     OW61883  13.943   4.593  14.573
20017SOL    HW161884  13.989   4.654  14.630
20017SOL    HW261885  13.866   4.641  14.544
20018SOL     OW61886   4.801   2.852   2.443
20018SOL    HW161887   4.859   2.830   2.516
20018SOL    HW261888   4.848   2.821   2.365
20019SOL     OW61889  11.885   6.362   0.357
20019SOL    HW161890  11.797   6.327   0.345
20019SOL    HW261891  11.937   6.320   0.289
20020SOL     OW61892   8.640   3.844  13.475
20020SOL    HW161893   8.669   3.863  13.386
20020SOL    HW261894   8.549   3.873  13.478
20021SOL     OW61895   1.907   9.952   9.899
20021SOL    HW161896   1.812   9.955   9.909
20021SOL    HW261897   1.941   9.952   9.989
20022SOL     OW61898   9.175  12.718   1.748
20022SOL    HW161899   9.184  12.632   1.707
20022SOL    HW261900   9.212  12.706   1.836
20023SOL     OW61901  14.758   2.474   0.235
20023SOL    HW161902  14.743   2.506   0.324
20023SOL    HW261903  14.837   2.421   0.242
20024SOL     OW61904   3.005   1.054   0.336
20024SOL    HW161905   3.094   1.088   0.332
20024SOL    HW261906   2.991   1.011   0.252
20025SOL     OW61907  12.065  11.552   0.092
20025SOL    HW161908  12.127  11.485   0.121
20025SOL    HW261909  11.982  11.528   0.132
20026SOL     OW61910  10.461   8.226   8.306
20026SOL    HW161911  10.411   8.168   8.364
20026SOL    HW261912  10.546   8.182   8.296
20027SOL     OW61913   2.650  14.628   0.923
20027SOL    HW161914   2.641  14.533   0.930
20027SOL    HW261915   2.741  14.646   0.946
20028SOL     OW61916  13.791   3.641   0.074
20028SOL    HW161917  13.799   3.558   0.026
20028SOL    HW261918  13.699   3.665   0.064
20029SOL     OW61919   9.147   5.287   7.657
20029SOL    HW161920   9.093   5.364   7.641
20029SOL    HW261921   9.117   5.223   7.593
20030SOL     OW61922  10.618   3.991  11.204
20030SOL    HW161923  10.540   3.984  11.150
20030SOL    HW261924  10.586   3.981  11.294
20031SOL     OW61925  12.224   8.597  12.027
20031SOL    HW161926  12.307   8.641  12.011
20031SOL    HW261927  12.231   8.564  12.117
20032SOL     OW61928   7.055   2.086   2.438
20032SOL    HW161929   7.125   2.070   2.375
20032SOL    HW261930   6.975   2.056   2.395
20033SOL     OW61931  12.275   2.334   7.479
20033SOL    HW161932  12.360   2.364   7.512
20033SOL    HW261933  12.294   2.248   7.442
20034SOL     OW61934   2.838   6.409   3.946
20034SOL    HW161935   2.913   6.423   3.888
20034SOL    HW261936   2.803   6.324   3.918
20035SOL     OW61937   5.691  13.166   2.640
20035SOL    HW161938   5.780  13.137   2.660
20035SOL    HW261939   5.645  13.085   2.615
20036SOL     OW61940   4.829   8.419   5.352
20036SOL    HW161941   4.798   8.412   5.262
20036SOL    HW261942   4.785   8.497   5.387
20037SOL     OW61943   5.714  13.564   1.908
20037SOL    HW161944   5.809  13.573   1.910
20037SOL    HW261945   5.694  13.502   1.978
20038SOL     OW61946   4.183   6.524  13.328
20038SOL    HW161947   4.123   6.513  13.402
20038SOL    HW261948   4.219   6.612  13.339
20039SOL     OW61949   3.637   6.155   2.964
20039SOL    HW161950   3.669   6.097   3.033
20039SOL    HW261951   3.542   6.151   2.970
20040SOL     OW61952  13.628  13.024   0.841
20040SOL    HW161953  13.640  13.111   0.880
20040SOL    HW261954  13.540  12.998   0.868
20041SOL     OW61955  13.207  13.932  11.844
20041SOL    HW161956  13.276  13.987  11.879
20041SOL    HW261957  13.243  13.843  11.847
20042SOL     OW61958   7.374   4.641  14.370
20042SOL    HW161959   7.314   4.698  14.418
20042SOL    HW261960   7.393   4.569  14.430
20043SOL     OW61961  11.417   3.603   4.973
20043SOL    HW161962  11.347   3.580   5.034
20043SOL    HW261963  11.486   3.641   5.029
20044SOL     OW61964   2.987   5.509  12.947
20044SOL    HW161965   3.077   5.479  12.955
20044SOL    HW261966   2.944   5.480  13.027
20045SOL     OW61967  14.701  10.564   3.716
20045SOL    HW161968  14.728  10.507   3.644
20045SOL    HW261969  14.782  10.609   3.742
20046SOL     OW61970   7.877   0.906   6.649
20046SOL    HW161971   7.934   0.934   6.721
20046SOL    HW261972   7.930   0.915   6.571
20047SOL     OW61973   9.083   6.223   3.642
20047SOL    HW161974   9.019   6.258   3.580
20047SOL    HW261975   9.071   6.277   3.721
20048SOL     OW61976   4.366   6.123   3.842
20048SOL    HW161977   4.412   6.150   3.922
20048SOL    HW261978   4.437   6.099   3.782
20049SOL     OW61979   1.346   9.463  11.853
20049SOL    HW161980   1.407   9.456  11.780
20049SOL    HW261981   1.261   9.436  11.816
20050SOL     OW61982  13.775   1.647  11.762
20050SOL    HW161983  13.780   1.654  11.667
20050SOL    HW261984  13.727   1.565  11.778
20051SOL     OW61985   1.443   6.859   0.386
20051SOL    HW161986   1.444   6.898   0.298
20051SOL    HW261987   1.351   6.858   0.410
20052SOL     OW61988   9.902   4.051  14.218
20052SOL    HW161989   9.985   4.039  14.265
20052SOL    HW261990   9.896   4.145  14.203
20053SOL     OW61991   2.180   0.141  13.510
20053SOL    HW161992   2.216   0.229  13.523
20053SOL    HW261993   2.124   0.149  13.433
20054SOL     OW61994   1.292   0.151   0.311
20054SOL    HW161995   1.342   0.075   0.342
20054SOL    HW261996   1.229   0.168   0.381
20055SOL     OW61997   0.062  12.535   6.334
20055SOL    HW161998   0.008  12.463   6.300
20055SOL    HW261999   0.137  12.491   6.375
20056SOL     OW62000  12.854   6.410   9.616
20056SOL    HW162001  12.855   6.409   9.520
20056SOL    HW262002  12.941   6.381   9.642
20057SOL     OW62003   1.614   9.664   4.935
20057SOL    HW162004   1.709   9.680   4.942
20057SOL    HW262005   1.579   9.746   4.900
20058SOL     OW62006   4.299   8.965  14.291
20058SOL    HW162007   4.358   9.010  14.231
20058SOL    HW262008   4.358   8.918  14.351
20059SOL     OW62009   2.958  10.102   5.226
20059SOL    HW162010   2.878  10.132   5.183
20059SOL    HW262011   2.928  10.052   5.301
20060SOL     OW62012   1.784   9.984   4.718
20060SOL    HW162013   1.844  10.059   4.726
20060SOL    HW262014   1.826   9.915   4.771
20061SOL     OW62015  11.174  14.767  13.289
20061SOL    HW162016  11.155  14.674  13.284
20061SOL    HW262017  11.152  14.801  13.202
20062SOL     OW62018   7.039  11.578  12.880
20062SOL    HW162019   7.122  11.579  12.927
20062SOL    HW262020   7.063  11.559  12.789
20063SOL     OW62021  12.744   0.336  11.957
20063SOL    HW162022  12.792   0.356  12.037
20063SOL    HW262023  12.656   0.314  11.986
20064SOL     OW62024   2.723   1.964   2.186
20064SOL    HW162025   2.796   1.908   2.159
20064SOL    HW262026   2.750   1.999   2.270
20065SOL     OW62027   1.167   7.406  10.217
20065SOL    HW162028   1.209   7.396  10.303
20065SOL    HW262029   1.162   7.501  10.204
20066SOL     OW62030  12.974  14.227   0.511
20066SOL    HW162031  13.028  14.273   0.576
20066SOL    HW262032  12.928  14.160   0.561
20067SOL     OW62033  11.109  12.482   2.940
20067SOL    HW162034  11.093  12.407   2.997
20067SOL    HW262035  11.130  12.554   3.000
20068SOL     OW62036  11.691   8.925   6.183
20068SOL    HW162037  11.673   8.850   6.126
20068SOL    HW262038  11.629   8.992   6.154
20069SOL     OW62039   9.759   3.627  11.960
20069SOL    HW162040   9.794   3.600  11.875
20069SOL    HW262041   9.680   3.575  11.972
20070SOL     OW62042   9.879   3.356  10.895
20070SOL    HW162043   9.818   3.332  10.825
20070SOL    HW262044   9.861   3.449  10.911
20071SOL     OW62045  13.859   2.026   6.236
20071SOL    HW162046  13.896   1.948   6.277
20071SOL    HW262047  13.828   1.995   6.150
20072SOL     OW62048   5.531   5.311  14.707
20072SOL    HW162049   5.581   5.390  14.727
20072SOL    HW262050   5.441   5.341  14.693
20073SOL     OW62051   7.555   3.448   2.121
20073SOL    HW162052   7.630   3.507   2.119
20073SOL    HW262053   7.503   3.471   2.044
20074SOL     OW62054   0.825  14.212   9.043
20074SOL    HW162055   0.872  14.289   9.076
20074SOL    HW262056   0.784  14.242   8.962
20075SOL     OW62057  14.719  13.159   0.333
20075SOL    HW162058  14.716  13.253   0.348
20075SOL    HW262059  14.641  13.125   0.377
20076SOL     OW62060   7.379   9.302   6.613
20076SOL    HW162061   7.296   9.304   6.566
20076SOL    HW262062   7.408   9.211   6.608
20077SOL     OW62063   1.835   0.318   9.923
20077SOL    HW162064   1.757   0.343   9.874
20077SOL    HW262065   1.802   0.261   9.992
20078SOL     OW62066  11.902   5.444   2.683
20078SOL    HW162067  11.840   5.371   2.676
20078SOL    HW262068  11.859   5.516   2.635
20079SOL     OW62069   0.967  10.852   5.782
20079SOL    HW162070   0.983  10.891   5.696
20079SOL    HW262071   1.037  10.887   5.837
20080SOL     OW62072   5.068   8.994   8.594
20080SOL    HW162073   5.140   9.002   8.532
20080SOL    HW262074   5.110   8.999   8.680
20081SOL     OW62075   6.222   4.833   1.464
20081SOL    HW162076   6.177   4.917   1.457
20081SOL    HW262077   6.217   4.795   1.377
20082SOL     OW62078  12.492   3.333   6.469
20082SOL    HW162079  12.410   3.360   6.511
20082SOL    HW262080  12.473   3.336   6.375
20083SOL     OW62081  14.867  14.195  13.663
20083SOL    HW162082  14.796  14.194  13.728
20083SOL    HW262083  14.876  14.287  13.639
20084SOL     OW62084  12.372  13.481   5.348
20084SOL    HW162085  12.429  13.523   5.412
20084SOL    HW262086  12.316  13.552   5.315
20085SOL     OW62087   8.542   5.448  12.643
20085SOL    HW162088   8.591   5.412  12.569
20085SOL    HW262089   8.589   5.417  12.720
20086SOL     OW62090   3.087   0.229  10.752
20086SOL    HW162091   3.140   0.238  10.831
20086SOL    HW262092   3.117   0.149  10.711
20087SOL     OW62093  11.831   4.480   0.598
20087SOL    HW162094  11.774   4.403   0.607
20087SOL    HW262095  11.909   4.446   0.553
20088SOL     OW62096   1.701   8.381   0.617
20088SOL    HW162097   1.775   8.387   0.677
20088SOL    HW262098   1.734   8.415   0.534
20089SOL     OW62099   0.161   0.561   2.984
20089SOL    HW162100   0.220   0.536   3.055
20089SOL    HW262101   0.192   0.646   2.955
20090SOL     OW62102   1.265  13.884  14.457
20090SOL    HW162103   1.298  13.925  14.537
20090SOL    HW262104   1.177  13.855  14.480
20091SOL     OW62105  14.715   9.504  14.126
20091SOL    HW162106  14.744   9.586  14.085
20091SOL    HW262107  14.627   9.524  14.158
20092SOL     OW62108   0.255   6.389   5.501
20092SOL    HW162109   0.341   6.374   5.461
20092SOL    HW262110   0.194   6.340   5.446
20093SOL     OW62111   0.724  14.693   7.181
20093SOL    HW162112   0.721  14.671   7.274
20093SOL    HW262113   0.748  14.610   7.138
20094SOL     OW62114   0.821  11.044   8.133
20094SOL    HW162115   0.794  10.995   8.210
20094SOL    HW262116   0.778  11.129   8.142
20095SOL     OW62117   8.675  10.104   5.964
20095SOL    HW162118   8.611  10.076   6.029
20095SOL    HW262119   8.639  10.072   5.881
20096SOL     OW62120  12.946   0.175   7.049
20096SOL    HW162121  12.955   0.080   7.044
20096SOL    HW262122  13.029   0.204   7.088
20097SOL     OW62123   6.289   3.289  14.820
20097SOL    HW162124   6.331   3.318   0.021
20097SOL    HW262125   6.223   3.225  14.848
20098SOL     OW62126   1.801  11.578   1.793
20098SOL    HW162127   1.770  11.660   1.830
20098SOL    HW262128   1.892  11.572   1.821
20099SOL     OW62129  14.286   6.282   6.823
20099SOL    HW162130  14.199   6.242   6.825
20099SOL    HW262131  14.318   6.263   6.734
20100SOL     OW62132   2.612   0.072   9.707
20100SOL    HW162133   2.582   0.136   9.771
20100SOL    HW262134   2.650   0.001   9.759
20101SOL     OW62135   4.843   4.342   6.804
20101SOL    HW162136   4.888   4.317   6.884
20101SOL    HW262137   4.906   4.322   6.734
20102SOL     OW62138   7.469   0.686   0.777
20102SOL    HW162139   7.511   0.622   0.834
20102SOL    HW262140   7.420   0.634   0.714
20103SOL     OW62141   3.626  10.916   3.038
20103SOL    HW162142   3.555  10.978   3.022
20103SOL    HW262143   3.600  10.837   2.991
20104SOL     OW62144   2.511   8.199   6.142
20104SOL    HW162145   2.438   8.233   6.090
20104SOL    HW262146   2.492   8.105   6.151
20105SOL     OW62147   1.974  13.967   4.974
20105SOL    HW162148   1.930  14.028   5.034
20105SOL    HW262149   2.061  13.956   5.013
20106SOL     OW62150   7.487  11.530  14.051
20106SOL    HW162151   7.497  11.623  14.073
20106SOL    HW262152   7.486  11.485  14.135
20107SOL     OW62153  12.431   6.846   8.015
20107SOL    HW162154  12.380   6.770   7.985
20107SOL    HW262155  12.448   6.828   8.107
20108SOL     OW62156   0.503  12.886   4.385
20108SOL    HW162157   0.503  12.824   4.457
20108SOL    HW262158   0.534  12.836   4.309
20109SOL     OW62159  10.751   4.303  11.845
20109SOL    HW162160  10.838   4.284  11.808
20109SOL    HW262161  10.708   4.357  11.779
20110SOL     OW62162  14.352   7.776   4.619
20110SOL    HW162163  14.300   7.753   4.696
20110SOL    HW262164  14.393   7.694   4.592
20111SOL     OW62165   6.966   1.342  14.233
20111SOL    HW162166   6.989   1.324  14.142
20111SOL    HW262167   7.037   1.304  14.284
20112SOL     OW62168   1.900   0.732   5.057
20112SOL    HW162169   1.869   0.777   4.979
20112SOL    HW262170   1.948   0.800   5.105
20113SOL     OW62171   1.938   7.834  12.453
20113SOL    HW162172   2.021   7.851  12.497
20113SOL    HW262173   1.872   7.851  12.520
20114SOL     OW62174   6.311   6.692   9.377
20114SOL    HW162175   6.288   6.651   9.460
20114SOL    HW262176   6.243   6.759   9.363
20115SOL     OW62177  13.094   2.527   4.804
20115SOL    HW162178  13.053   2.613   4.793
20115SOL    HW262179  13.032   2.465   4.767
20116SOL     OW62180   1.149   7.789   9.149
20116SOL    HW162181   1.089   7.819   9.217
20116SOL    HW262182   1.236   7.801   9.187
20117SOL     OW62183   5.028  10.915  13.356
20117SOL    HW162184   4.936  10.888  13.357
20117SOL    HW262185   5.033  10.983  13.288
20118SOL     OW62186   7.471   8.629   5.589
20118SOL    HW162187   7.376   8.626   5.587
20118SOL    HW262188   7.499   8.539   5.607
20119SOL     OW62189   4.677  12.059   9.081
20119SOL    HW162190   4.699  12.146   9.114
20119SOL    HW262191   4.592  12.039   9.120
20120SOL     OW62192   1.465   2.170   1.805
20120SOL    HW162193   1.461   2.217   1.888
20120SOL    HW262194   1.374   2.156   1.781
20121SOL     OW62195   1.875   2.034  14.293
20121SOL    HW162196   1.917   2.112  14.331
20121SOL    HW262197   1.948   1.983  14.258
20122SOL     OW62198   4.355   0.839  12.850
20122SOL    HW162199   4.266   0.874  12.849
20122SOL    HW262200   4.368   0.802  12.763
20123SOL     OW62201   4.043  11.966  11.212
20123SOL    HW162202   3.989  11.911  11.155
20123SOL    HW262203   4.020  12.056  11.186
20124SOL     OW62204   1.493   1.262   1.518
20124SOL    HW162205   1.537   1.282   1.601
20124SOL    HW262206   1.535   1.181   1.487
20125SOL     OW62207   9.698  12.274   3.559
20125SOL    HW162208   9.727  12.189   3.527
20125SOL    HW262209   9.635  12.253   3.629
20126SOL     OW62210  11.283  12.351  12.301
20126SOL    HW162211  11.361  12.345  12.246
20126SOL    HW262212  11.229  12.417  12.258
20127SOL     OW62213  14.748   3.899   1.769
20127SOL    HW162214  14.763   3.966   1.837
20127SOL    HW262215  14.836   3.879   1.737
20128SOL     OW62216  13.294   3.289  14.262
20128SOL    HW162217  13.202   3.313  14.272
20128SOL    HW262218  13.291   3.199  14.230
20129SOL     OW62219  13.405   0.038   3.141
20129SOL    HW162220  13.412   0.031   3.046
20129SOL    HW262221  13.351   0.115   3.156
20130SOL     OW62222   9.979  12.196   8.524
20130SOL    HW162223  10.020  12.131   8.581
20130SOL    HW262224   9.890  12.205   8.557
20131SOL     OW62225  12.716   9.418  14.684
20131SOL    HW162226  12.686   9.365  14.610
20131SOL    HW262227  12.811   9.425  14.672
20132SOL     OW62228   5.547  14.261   5.831
20132SOL    HW162229   5.595  14.333   5.790
20132SOL    HW262230   5.584  14.254   5.919
20133SOL     OW62231  14.063   3.813  11.220
20133SOL    HW162232  14.131   3.754  11.253
20133SOL    HW262233  14.082   3.897  11.262
20134SOL     OW62234  13.262  10.719  13.935
20134SOL    HW162235  13.257  10.751  13.845
20134SOL    HW262236  13.188  10.659  13.943
20135SOL     OW62237   7.373  14.425  12.998
20135SOL    HW162238   7.449  14.456  12.950
20135SOL    HW262239   7.398  14.339  13.031
20136SOL     OW62240   3.784   4.760  14.791
20136SOL    HW162241   3.794   4.799  14.878
20136SOL    HW262242   3.692   4.776  14.769
20137SOL     OW62243   1.352   9.765   2.099
20137SOL    HW162244   1.329   9.734   2.011
20137SOL    HW262245   1.280   9.823   2.122
20138SOL     OW62246   2.291  11.141  14.722
20138SOL    HW162247   2.368  11.084  14.725
20138SOL    HW262248   2.233  11.106  14.790
20139SOL     OW62249   9.311   1.671  10.029
20139SOL    HW162250   9.264   1.587  10.027
20139SOL    HW262251   9.319   1.695   9.936
20140SOL     OW62252  14.154  10.849   9.261
20140SOL    HW162253  14.077  10.857   9.204
20140SOL    HW262254  14.156  10.932   9.310
20141SOL     OW62255   2.529   1.103  13.903
20141SOL    HW162256   2.521   1.034  13.969
20141SOL    HW262257   2.584   1.170  13.945
20142SOL     OW62258  11.859   8.765   4.235
20142SOL    HW162259  11.902   8.693   4.281
20142SOL    HW262260  11.768   8.763   4.266
20143SOL     OW62261  13.342   5.285   1.124
20143SOL    HW162262  13.326   5.340   1.047
20143SOL    HW262263  13.415   5.229   1.098
20144SOL     OW62264  14.079   8.401   6.346
20144SOL    HW162265  14.034   8.485   6.348
20144SOL    HW262266  14.096   8.384   6.254
20145SOL     OW62267   6.740   0.436   0.081
20145SOL    HW162268   6.675   0.498   0.116
20145SOL    HW262269   6.766   0.383   0.156
20146SOL     OW62270   4.397  13.031  14.197
20146SOL    HW162271   4.435  12.989  14.274
20146SOL    HW262272   4.469  13.081  14.159
20147SOL     OW62273  11.698   6.720   2.516
20147SOL    HW162274  11.658   6.676   2.440
20147SOL    HW262275  11.671   6.811   2.507
20148SOL     OW62276   7.942  12.987  13.967
20148SOL    HW162277   7.917  12.925  13.898
20148SOL    HW262278   7.881  13.060  13.958
20149SOL     OW62279   8.024   3.498   7.190
20149SOL    HW162280   7.981   3.426   7.236
20149SOL    HW262281   8.067   3.549   7.259
20150SOL     OW62282  11.516  14.768  12.310
20150SOL    HW162283  11.600  14.743  12.348
20150SOL    HW262284  11.539  14.821  12.235
20151SOL     OW62285   5.892   7.566   3.271
20151SOL    HW162286   5.804   7.590   3.298
20151SOL    HW262287   5.896   7.587   3.178
20152SOL     OW62288  11.211  12.628  12.937
20152SOL    HW162289  11.246  12.545  12.904
20152SOL    HW262290  11.249  12.637  13.024
20153SOL     OW62291   1.995  12.608   2.843
20153SOL    HW162292   1.986  12.561   2.760
20153SOL    HW262293   1.906  12.635   2.865
20154SOL     OW62294   8.490   4.171   3.421
20154SOL    HW162295   8.425   4.219   3.471
20154SOL    HW262296   8.477   4.200   3.331
20155SOL     OW62297  14.636   1.231   8.256
20155SOL    HW162298  14.645   1.139   8.283
20155SOL    HW262299  14.596   1.274   8.331
20156SOL     OW62300   4.218  10.992   5.562
20156SOL    HW162301   4.133  11.022   5.528
20156SOL    HW262302   4.252  10.934   5.494
20157SOL     OW62303   7.248  13.380   4.288
20157SOL    HW162304   7.186  13.413   4.353
20157SOL    HW262305   7.194  13.365   4.210
20158SOL     OW62306   4.607  13.318  13.535
20158SOL    HW162307   4.623  13.224  13.535
20158SOL    HW262308   4.512  13.327  13.538
20159SOL     OW62309   0.234   3.122   8.012
20159SOL    HW162310   0.281   3.047   8.050
20159SOL    HW262311   0.159   3.083   7.967
20160SOL     OW62312   6.006   4.569  11.420
20160SOL    HW162313   6.071   4.566  11.490
20160SOL    HW262314   5.923   4.548  11.464
20161SOL     OW62315  12.498   1.756   6.792
20161SOL    HW162316  12.403   1.756   6.779
20161SOL    HW262317  12.511   1.812   6.868
20162SOL     OW62318   2.198   3.625  10.695
20162SOL    HW162319   2.219   3.685  10.623
20162SOL    HW262320   2.248   3.546  10.674
20163SOL     OW62321  11.941   7.765  14.579
20163SOL    HW162322  11.989   7.742  14.500
20163SOL    HW262323  11.971   7.702  14.644
20164SOL     OW62324   4.895   9.193  10.722
20164SOL    HW162325   4.826   9.201  10.656
20164SOL    HW262326   4.955   9.128  10.686
20165SOL     OW62327   8.217  11.444   8.000
20165SOL    HW162328   8.285  11.419   7.937
20165SOL    HW262329   8.172  11.518   7.959
20166SOL     OW62330   0.802   8.972   7.521
20166SOL    HW162331   0.854   8.902   7.561
20166SOL    HW262332   0.757   9.013   7.594
20167SOL     OW62333   2.642   9.208   8.054
20167SOL    HW162334   2.720   9.235   8.005
20167SOL    HW262335   2.580   9.181   7.986
20168SOL     OW62336  12.189   9.554   8.983
20168SOL    HW162337  12.219   9.466   9.006
20168SOL    HW262338  12.167   9.548   8.890
20169SOL     OW62339   8.554   5.554   2.031
20169SOL    HW162340   8.643   5.543   2.065
20169SOL    HW262341   8.533   5.646   2.048
20170SOL     OW62342   5.177  12.572   5.238
20170SOL    HW162343   5.210  12.650   5.282
20170SOL    HW262344   5.082  12.574   5.253
20171SOL     OW62345   3.972   8.253   2.870
20171SOL    HW162346   3.990   8.285   2.959
20171SOL    HW262347   3.980   8.330   2.814
20172SOL     OW62348   6.676   0.832   7.135
20172SOL    HW162349   6.591   0.797   7.110
20172SOL    HW262350   6.716   0.861   7.053
20173SOL     OW62351  10.366   9.695   6.506
20173SOL    HW162352  10.334   9.760   6.443
20173SOL    HW262353  10.329   9.612   6.476
20174SOL     OW62354   1.430  12.228   6.599
20174SOL    HW162355   1.350  12.278   6.582
20174SOL    HW262356   1.399  12.144   6.631
20175SOL     OW62357   1.111   4.810   5.867
20175SOL    HW162358   1.178   4.752   5.831
20175SOL    HW262359   1.102   4.781   5.958
20176SOL     OW62360   8.516   5.323  11.839
20176SOL    HW162361   8.470   5.239  11.839
20176SOL    HW262362   8.513   5.352  11.748
20177SOL     OW62363   2.262   3.324  11.418
20177SOL    HW162364   2.200   3.378  11.368
20177SOL    HW262365   2.207   3.260  11.463
20178SOL     OW62366   3.683   2.579   3.192
20178SOL    HW162367   3.714   2.667   3.211
20178SOL    HW262368   3.698   2.530   3.273
20179SOL     OW62369  10.602   6.945   5.822
20179SOL    HW162370  10.558   6.876   5.773
20179SOL    HW262371  10.576   6.931   5.913
20180SOL     OW62372   2.908  14.205   5.689
20180SOL    HW162373   2.995  14.233   5.660
20180SOL    HW262374   2.889  14.261   5.764
20181SOL     OW62375  11.024  13.450   0.188
20181SOL    HW162376  10.979  13.374   0.226
20181SOL    HW262377  11.102  13.413   0.146
20182SOL     OW62378   6.687   1.558   4.986
20182SOL    HW162379   6.766   1.561   4.932
20182SOL    HW262380   6.670   1.464   4.996
20183SOL     OW62381   7.667  11.549  14.670
20183SOL    HW162382   7.698  11.560  14.580
20183SOL    HW262383   7.686  11.633  14.712
20184SOL     OW62384  14.026   8.040  12.212
20184SOL    HW162385  14.042   7.954  12.252
20184SOL    HW262386  14.042   8.102  12.282
20185SOL     OW62387   9.281  10.825  12.031
20185SOL    HW162388   9.361  10.824  11.979
20185SOL    HW262389   9.311  10.807  12.120
20186SOL     OW62390   1.623  14.345   8.161
20186SOL    HW162391   1.707  14.319   8.123
20186SOL    HW262392   1.562  14.278   8.131
20187SOL     OW62393   4.534  13.557   7.232
20187SOL    HW162394   4.534  13.549   7.327
20187SOL    HW262395   4.614  13.605   7.211
20188SOL     OW62396   5.279   5.251  12.380
20188SOL    HW162397   5.199   5.208  12.411
20188SOL    HW262398   5.250   5.305  12.306
20189SOL     OW62399   2.519   7.388  11.362
20189SOL    HW162400   2.481   7.474  11.381
20189SOL    HW262401   2.444   7.329  11.353
20190SOL     OW62402   8.006   2.937  11.384
20190SOL    HW162403   7.970   2.863  11.434
20190SOL    HW262404   7.940   3.005  11.393
20191SOL     OW62405   4.061   8.027   0.118
20191SOL    HW162406   4.000   8.089   0.078
20191SOL    HW262407   4.061   8.051   0.211
20192SOL     OW62408   9.554  12.648   4.743
20192SOL    HW162409   9.547  12.727   4.797
20192SOL    HW262410   9.504  12.582   4.790
20193SOL     OW62411   7.939   8.813   4.716
20193SOL    HW162412   7.869   8.766   4.762
20193SOL    HW262413   7.893   8.876   4.660
20194SOL     OW62414   5.977  10.934   1.158
20194SOL    HW162415   5.906  10.870   1.158
20194SOL    HW262416   6.022  10.922   1.241
20195SOL     OW62417   9.120   2.245   4.049
20195SOL    HW162418   9.168   2.217   3.971
20195SOL    HW262419   9.093   2.335   4.029
20196SOL     OW62420   6.456  10.599  10.637
20196SOL    HW162421   6.482  10.666  10.573
20196SOL    HW262422   6.377  10.634  10.677
20197SOL     OW62423  10.339   9.119   0.861
20197SOL    HW162424  10.270   9.165   0.909
20197SOL    HW262425  10.409   9.107   0.924
20198SOL     OW62426   7.517  13.066   5.910
20198SOL    HW162427   7.589  13.005   5.927
20198SOL    HW262428   7.438  13.013   5.916
20199SOL     OW62429  14.580   5.245  10.945
20199SOL    HW162430  14.637   5.177  10.982
20199SOL    HW262431  14.640   5.307  10.904
20200SOL     OW62432   3.985   0.888   3.064
20200SOL    HW162433   3.991   0.799   3.028
20200SOL    HW262434   4.029   0.943   2.999
20201SOL     OW62435   6.449   0.022   9.573
20201SOL    HW162436   6.497   0.007   9.654
20201SOL    HW262437   6.462  14.822   9.522
20202SOL     OW62438   4.105  10.824  10.644
20202SOL    HW162439   4.024  10.806  10.691
20202SOL    HW262440   4.094  10.913  10.610
20203SOL     OW62441  10.495  13.644   1.582
20203SOL    HW162442  10.542  13.721   1.613
20203SOL    HW262443  10.492  13.656   1.487
20204SOL     OW62444   6.648   1.837   7.684
20204SOL    HW162445   6.655   1.816   7.777
20204SOL    HW262446   6.732   1.877   7.662
20205SOL     OW62447   0.515  10.680  12.338
20205SOL    HW162448   0.488  10.771  12.334
20205SOL    HW262449   0.433  10.630  12.331
20206SOL     OW62450   5.256   4.339   6.303
20206SOL    HW162451   5.302   4.255   6.295
20206SOL    HW262452   5.289   4.377   6.384
20207SOL     OW62453  13.474  13.433  10.252
20207SOL    HW162454  13.566  13.458  10.263
20207SOL    HW262455  13.426  13.496  10.307
20208SOL     OW62456   4.923  12.150  11.061
20208SOL    HW162457   4.926  12.159  11.156
20208SOL    HW262458   4.830  12.153  11.039
20209SOL     OW62459   3.793   0.869   3.251
20209SOL    HW162460   3.867   0.873   3.191
20209SOL    HW262461   3.769   0.777   3.253
20210SOL     OW62462   4.663   5.471  10.918
20210SOL    HW162463   4.616   5.524  10.853
20210SOL    HW262464   4.755   5.494  10.906
20211SOL     OW62465   0.697  10.252  12.058
20211SOL    HW162466   0.754  10.179  12.082
20211SOL    HW262467   0.721  10.273  11.968
20212SOL     OW62468  11.021  10.181   6.822
20212SOL    HW162469  11.025  10.087   6.840
20212SOL    HW262470  10.997  10.188   6.730
20213SOL     OW62471   8.393  14.150   4.317
20213SOL    HW162472   8.481  14.186   4.312
20213SOL    HW262473   8.371  14.128   4.226
20214SOL     OW62474   4.756  13.757   5.958
20214SOL    HW162475   4.761  13.817   6.032
20214SOL    HW262476   4.734  13.813   5.884
20215SOL     OW62477   3.143   7.401   7.619
20215SOL    HW162478   3.070   7.393   7.679
20215SOL    HW262479   3.129   7.485   7.575
20216SOL     OW62480  11.138   2.991   2.404
20216SOL    HW162481  11.098   3.024   2.485
20216SOL    HW262482  11.095   2.907   2.388
20217SOL     OW62483  11.397   2.761   2.243
20217SOL    HW162484  11.394   2.751   2.338
20217SOL    HW262485  11.389   2.672   2.209
20218SOL     OW62486   2.669   4.859  12.545
20218SOL    HW162487   2.659   4.823  12.633
20218SOL    HW262488   2.637   4.949  12.552
20219SOL     OW62489   6.572   3.592  10.389
20219SOL    HW162490   6.555   3.659  10.322
20219SOL    HW262491   6.552   3.509  10.345
20220SOL     OW62492   6.505  10.260   0.802
20220SOL    HW162493   6.466  10.247   0.716
20220SOL    HW262494   6.594  10.228   0.793
20221SOL     OW62495  11.351  14.040  14.410
20221SOL    HW162496  11.273  14.047  14.354
20221SOL    HW262497  11.318  14.056  14.498
20222SOL     OW62498   6.969   8.464  10.304
20222SOL    HW162499   7.031   8.402  10.265
20222SOL    HW262500   7.005   8.550  10.282
20223SOL     OW62501  12.831  10.953   4.202
20223SOL    HW162502  12.766  10.982   4.139
20223SOL    HW262503  12.808  10.862   4.220
20224SOL     OW62504   6.599   7.346   4.737
20224SOL    HW162505   6.616   7.418   4.797
20224SOL    HW262506   6.604   7.267   4.792
20225SOL     OW62507   1.968  13.673   4.257
20225SOL    HW162508   1.925  13.732   4.195
20225SOL    HW262509   1.900  13.611   4.282
20226SOL     OW62510   6.177  10.361   4.767
20226SOL    HW162511   6.125  10.363   4.687
20226SOL    HW262512   6.222  10.445   4.769
20227SOL     OW62513  13.744   8.579   2.187
20227SOL    HW162514  13.714   8.658   2.143
20227SOL    HW262515  13.839   8.585   2.185
20228SOL     OW62516   2.314   7.526   0.297
20228SOL    HW162517   2.245   7.586   0.322
20228SOL    HW262518   2.338   7.552   0.208
20229SOL     OW62519   9.695   5.924   8.940
20229SOL    HW162520   9.669   5.968   8.859
20229SOL    HW262521   9.612   5.895   8.979
20230SOL     OW62522   3.804   7.235  11.697
20230SOL    HW162523   3.729   7.185  11.667
20230SOL    HW262524   3.814   7.304  11.631
20231SOL     OW62525   2.275   3.935  13.682
20231SOL    HW162526   2.353   3.941  13.628
20231SOL    HW262527   2.202   3.949  13.621
20232SOL     OW62528   4.385   1.972  10.045
20232SOL    HW162529   4.438   2.050  10.027
20232SOL    HW262530   4.433   1.900  10.005
20233SOL     OW62531   7.446   0.867  10.600
20233SOL    HW162532   7.505   0.929  10.557
20233SOL    HW262533   7.474   0.781  10.568
20234SOL     OW62534   6.990   3.702   6.920
20234SOL    HW162535   6.974   3.656   6.838
20234SOL    HW262536   7.074   3.747   6.907
20235SOL     OW62537  11.195   6.867   4.281
20235SOL    HW162538  11.134   6.930   4.319
20235SOL    HW262539  11.229   6.818   4.356
20236SOL     OW62540   5.322   9.370   9.458
20236SOL    HW162541   5.381   9.310   9.504
20236SOL    HW262542   5.234   9.343   9.485
20237SOL     OW62543   9.893   3.871   7.096
20237SOL    HW162544   9.804   3.856   7.129
20237SOL    HW262545   9.881   3.933   7.024
20238SOL     OW62546   9.172   4.009   1.540
20238SOL    HW162547   9.203   4.049   1.621
20238SOL    HW262548   9.081   4.038   1.532
20239SOL     OW62549  14.663   4.740   3.806
20239SOL    HW162550  14.651   4.782   3.891
20239SOL    HW262551  14.599   4.783   3.749
20240SOL     OW62552  14.517  10.027   9.448
20240SOL    HW162553  14.510   9.932   9.456
20240SOL    HW262554  14.541  10.042   9.357
20241SOL     OW62555   6.854  12.111   5.269
20241SOL    HW162556   6.906  12.037   5.240
20241SOL    HW262557   6.918  12.177   5.297
20242SOL     OW62558   1.496   8.702   7.936
20242SOL    HW162559   1.471   8.619   7.976
20242SOL    HW262560   1.575   8.728   7.984
20243SOL     OW62561   8.027  13.936   4.418
20243SOL    HW162562   8.056  13.845   4.427
20243SOL    HW262563   7.970  13.950   4.493
20244SOL     OW62564  10.178  10.851   8.449
20244SOL    HW162565  10.119  10.821   8.379
20244SOL    HW262566  10.266  10.838   8.414
20245SOL     OW62567   3.313  14.097   4.357
20245SOL    HW162568   3.317  14.192   4.352
20245SOL    HW262569   3.224  14.078   4.386
20246SOL     OW62570   2.333   9.875   5.181
20246SOL    HW162571   2.248   9.892   5.223
20246SOL    HW262572   2.383   9.955   5.195
20247SOL     OW62573   2.435  13.278   2.475
20247SOL    HW162574   2.507  13.223   2.507
20247SOL    HW262575   2.461  13.302   2.386
20248SOL     OW62576   0.033   5.445   0.716
20248SOL    HW162577   0.035   5.513   0.782
20248SOL    HW262578  14.823   5.446   0.682
20249SOL     OW62579   8.829   1.051   8.564
20249SOL    HW162580   8.872   0.978   8.607
20249SOL    HW262581   8.766   1.010   8.504
20250SOL     OW62582   7.570   1.088  10.442
20250SOL    HW162583   7.621   1.097  10.362
20250SOL    HW262584   7.604   1.156  10.500
20251SOL     OW62585   6.424   2.307   3.823
20251SOL    HW162586   6.415   2.307   3.918
20251SOL    HW262587   6.440   2.215   3.800
20252SOL     OW62588   2.525  14.531   4.461
20252SOL    HW162589   2.587  14.601   4.479
20252SOL    HW262590   2.531  14.473   4.537
20253SOL     OW62591   3.117   1.900   2.935
20253SOL    HW162592   3.023   1.893   2.918
20253SOL    HW262593   3.133   1.839   3.007
20254SOL     OW62594   5.546  14.154  12.084
20254SOL    HW162595   5.596  14.133  12.163
20254SOL    HW262596   5.479  14.086  12.079
20255SOL     OW62597   1.606  11.662   9.067
20255SOL    HW162598   1.669  11.724   9.105
20255SOL    HW262599   1.658  11.608   9.008
20256SOL     OW62600   2.795  12.532   4.895
20256SOL    HW162601   2.762  12.620   4.876
20256SOL    HW262602   2.732  12.474   4.853
20257SOL     OW62603  10.225   1.442   2.804
20257SOL    HW162604  10.152   1.398   2.846
20257SOL    HW262605  10.189   1.478   2.723
20258SOL     OW62606   7.764  13.403  10.921
20258SOL    HW162607   7.687  13.387  10.866
20258SOL    HW262608   7.728  13.417  11.008
20259SOL     OW62609   0.656   1.609   8.651
20259SOL    HW162610   0.724   1.660   8.606
20259SOL    HW262611   0.595   1.674   8.685
20260SOL     OW62612  11.824  10.168  11.899
20260SOL    HW162613  11.732  10.183  11.919
20260SOL    HW262614  11.858  10.121  11.975
20261SOL     OW62615  10.779  12.947   7.058
20261SOL    HW162616  10.786  12.853   7.075
20261SOL    HW262617  10.694  12.957   7.015
20262SOL     OW62618   7.483  10.201  11.244
20262SOL    HW162619   7.441  10.128  11.198
20262SOL    HW262620   7.428  10.277  11.224
20263SOL     OW62621   4.586  13.358   5.264
20263SOL    HW162622   4.661  13.390   5.314
20263SOL    HW262623   4.565  13.430   5.204
20264SOL     OW62624  12.996   9.996  10.000
20264SOL    HW162625  12.932   9.929  10.025
20264SOL    HW262626  13.015  10.043  10.082
20265SOL     OW62627   5.753  12.230   6.598
20265SOL    HW162628   5.694  12.158   6.624
20265SOL    HW262629   5.819  12.232   6.666
20266SOL     OW62630   1.402   9.294   0.662
20266SOL    HW162631   1.451   9.222   0.622
20266SOL    HW262632   1.321   9.298   0.612
20267SOL     OW62633  10.183  10.270   6.559
20267SOL    HW162634  10.141  10.242   6.478
20267SOL    HW262635  10.201  10.363   6.546
20268SOL     OW62636  10.179   4.688  10.963
20268SOL    HW162637  10.267   4.652  10.975
20268SOL    HW262638  10.121   4.614  10.981
20269SOL     OW62639   1.824  13.694   1.250
20269SOL    HW162640   1.833  13.717   1.343
20269SOL    HW262641   1.787  13.606   1.251
20270SOL     OW62642   8.458   1.724   1.045
20270SOL    HW162643   8.528   1.757   0.988
20270SOL    HW262644   8.387   1.788   1.034
20271SOL     OW62645   5.126  10.935   9.185
20271SOL    HW162646   5.103  10.986   9.108
20271SOL    HW262647   5.211  10.897   9.165
20272SOL     OW62648  11.161   0.029  12.108
20272SOL    HW162649  11.138   0.013  12.016
20272SOL    HW262650  11.247  14.868  12.118
20273SOL     OW62651   1.873   2.528   9.724
20273SOL    HW162652   1.804   2.594   9.712
20273SOL    HW262653   1.893   2.498   9.635
20274SOL     OW62654   4.281  10.387   3.252
20274SOL    HW162655   4.309  10.477   3.232
20274SOL    HW262656   4.318  10.369   3.338
20275SOL     OW62657  11.604   4.529  12.106
20275SOL    HW162658  11.664   4.465  12.144
20275SOL    HW262659  11.537   4.476  12.064
20276SOL     OW62660  13.763  14.374   5.271
20276SOL    HW162661  13.820  14.297   5.280
20276SOL    HW262662  13.693  14.359   5.334
20277SOL     OW62663   6.094   8.265   4.109
20277SOL    HW162664   6.019   8.209   4.088
20277SOL    HW262665   6.171   8.214   4.082
20278SOL     OW62666   3.046   2.213   9.233
20278SOL    HW162667   3.068   2.187   9.143
20278SOL    HW262668   3.022   2.131   9.276
20279SOL     OW62669   4.444   1.786   6.466
20279SOL    HW162670   4.533   1.778   6.499
20279SOL    HW262671   4.448   1.751   6.377
20280SOL     OW62672   9.866   8.226   1.657
20280SOL    HW162673   9.871   8.130   1.663
20280SOL    HW262674   9.806   8.252   1.726
20281SOL     OW62675  13.097   6.383   4.513
20281SOL    HW162676  13.149   6.347   4.585
20281SOL    HW262677  13.161   6.400   4.443
20282SOL     OW62678   7.762   3.392   4.765
20282SOL    HW162679   7.780   3.374   4.673
20282SOL    HW262680   7.679   3.439   4.765
20283SOL     OW62681   3.983  13.518   2.439
20283SOL    HW162682   4.000  13.529   2.533
20283SOL    HW262683   3.931  13.437   2.433
20284SOL     OW62684   6.997  14.724   5.666
20284SOL    HW162685   6.965  14.755   5.581
20284SOL    HW262686   6.999  14.628   5.657
20285SOL     OW62687   7.990   7.144   7.807
20285SOL    HW162688   7.935   7.115   7.735
20285SOL    HW262689   7.929   7.158   7.880
20286SOL     OW62690   2.348   1.193   0.792
20286SOL    HW162691   2.294   1.263   0.756
20286SOL    HW262692   2.329   1.193   0.886
20287SOL     OW62693  14.125  10.543   5.577
20287SOL    HW162694  14.216  10.514   5.576
20287SOL    HW262695  14.085  10.501   5.501
20288SOL     OW62696   9.954   6.890  10.524
20288SOL    HW162697  10.001   6.934  10.453
20288SOL    HW262698   9.873   6.859  10.484
20289SOL     OW62699  12.101   1.124   3.937
20289SOL    HW162700  12.146   1.047   3.971
20289SOL    HW262701  12.127   1.195   3.996
20290SOL     OW62702  10.170  12.773  13.802
20290SOL    HW162703  10.110  12.848  13.801
20290SOL    HW262704  10.178  12.747  13.710
20291SOL     OW62705  14.515   1.026   2.798
20291SOL    HW162706  14.439   0.979   2.833
20291SOL    HW262707  14.479   1.107   2.761
20292SOL     OW62708   5.104  13.913  12.353
20292SOL    HW162709   5.014  13.943  12.361
20292SOL    HW262710   5.116  13.852  12.426
20293SOL     OW62711   9.203   7.869   4.502
20293SOL    HW162712   9.298   7.871   4.499
20293SOL    HW262713   9.179   7.942   4.560
20294SOL     OW62714   9.109   3.157   3.466
20294SOL    HW162715   9.118   3.169   3.560
20294SOL    HW262716   9.180   3.097   3.442
20295SOL     OW62717   2.286  14.029   5.576
20295SOL    HW162718   2.321  13.943   5.599
20295SOL    HW262719   2.299  14.082   5.655
20296SOL     OW62720   3.057  14.697   3.891
20296SOL    HW162721   2.994  14.664   3.827
20296SOL    HW262722   3.011  14.768   3.936
20297SOL     OW62723  14.872   0.660  12.250
20297SOL    HW162724  14.872   0.564  12.254
20297SOL    HW262725  14.779   0.683  12.250
20298SOL     OW62726   8.075  13.888   0.679
20298SOL    HW162727   8.133  13.963   0.669
20298SOL    HW262728   8.134  13.814   0.698
20299SOL     OW62729   8.240   6.298   7.928
20299SOL    HW162730   8.284   6.324   8.009
20299SOL    HW262731   8.168   6.360   7.919
20300SOL     OW62732  12.482  11.614  10.772
20300SOL    HW162733  12.545  11.623  10.844
20300SOL    HW262734  12.471  11.702  10.737
20301SOL     OW62735   4.003  13.472  12.267
20301SOL    HW162736   3.917  13.513  12.270
20301SOL    HW262737   4.061  13.531  12.316
20302SOL     OW62738  11.023   1.115   1.263
20302SOL    HW162739  11.072   1.189   1.300
20302SOL    HW262740  11.023   1.050   1.334
20303SOL     OW62741  14.674   1.319   2.873
20303SOL    HW162742  14.712   1.360   2.795
20303SOL    HW262743  14.581   1.340   2.868
20304SOL     OW62744  11.371   7.007  11.287
20304SOL    HW162745  11.434   6.943  11.320
20304SOL    HW262746  11.421   7.061  11.225
20305SOL     OW62747   1.568  11.069   6.664
20305SOL    HW162748   1.514  11.004   6.709
20305SOL    HW262749   1.605  11.022   6.589
20306SOL     OW62750   9.187  14.541   3.548
20306SOL    HW162751   9.222  14.509   3.631
20306SOL    HW262752   9.238  14.495   3.481
20307SOL     OW62753   9.120   2.090   8.489
20307SOL    HW162754   9.031   2.079   8.457
20307SOL    HW262755   9.118   2.054   8.578
20308SOL     OW62756   2.307   4.652   4.834
20308SOL    HW162757   2.337   4.579   4.889
20308SOL    HW262758   2.369   4.722   4.852
20309SOL     OW62759  14.396   5.744   5.248
20309SOL    HW162760  14.363   5.717   5.333
20309SOL    HW262761  14.475   5.794   5.268
20310SOL     OW62762   3.985   7.555   3.289
20310SOL    HW162763   3.935   7.495   3.344
20310SOL    HW262764   4.060   7.581   3.343
20311SOL     OW62765  13.053  10.594   2.224
20311SOL    HW162766  13.125  10.554   2.273
20311SOL    HW262767  13.084  10.595   2.133
20312SOL     OW62768  10.221   6.187   2.569
20312SOL    HW162769  10.183   6.141   2.644
20312SOL    HW262770  10.265   6.263   2.607
20313SOL     OW62771  14.551   2.406  12.047
20313SOL    HW162772  14.544   2.502  12.040
20313SOL    HW262773  14.518   2.386  12.135
20314SOL     OW62774  10.745   0.194   5.134
20314SOL    HW162775  10.653   0.181   5.154
20314SOL    HW262776  10.787   0.206   5.219
20315SOL     OW62777  13.627  10.996   9.712
20315SOL    HW162778  13.610  11.002   9.618
20315SOL    HW262779  13.722  11.004   9.720
20316SOL     OW62780  11.351   2.047  10.049
20316SOL    HW162781  11.331   2.038  10.142
20316SOL    HW262782  11.365   2.141  10.037
20317SOL     OW62783   0.662  10.373   0.982
20317SOL    HW162784   0.574  10.391   0.950
20317SOL    HW262785   0.676  10.280   0.964
20318SOL     OW62786   2.570   4.013   3.481
20318SOL    HW162787   2.589   3.919   3.488
20318SOL    HW262788   2.654   4.053   3.458
20319SOL     OW62789  11.765   8.567  12.355
20319SOL    HW162790  11.762   8.655  12.318
20319SOL    HW262791  11.685   8.525  12.323
20320SOL     OW62792   4.144   6.942   6.784
20320SOL    HW162793   4.110   6.949   6.695
20320SOL    HW262794   4.148   7.032   6.815
20321SOL     OW62795  13.285   8.903   4.003
20321SOL    HW162796  13.235   8.878   3.925
20321SOL    HW262797  13.364   8.849   3.998
20322SOL     OW62798   9.797  14.695   5.703
20322SOL    HW162799   9.825  14.627   5.642
20322SOL    HW262800   9.878  14.730   5.740
20323SOL     OW62801   7.592  10.144  10.519
20323SOL    HW162802   7.651  10.206  10.561
20323SOL    HW262803   7.519  10.136  10.580
20324SOL     OW62804   0.632   5.142  12.789
20324SOL    HW162805   0.711   5.091  12.771
20324SOL    HW262806   0.660   5.233  12.783
20325SOL     OW62807   1.319   5.967   5.175
20325SOL    HW162808   1.231   5.931   5.162
20325SOL    HW262809   1.305   6.043   5.233
20326SOL     OW62810   4.699   3.939   1.931
20326SOL    HW162811   4.708   3.960   1.839
20326SOL    HW262812   4.619   3.886   1.937
20327SOL     OW62813   8.753   3.795   6.580
20327SOL    HW162814   8.665   3.759   6.594
20327SOL    HW262815   8.803   3.723   6.543
20328SOL     OW62816  12.042  13.727  13.728
20328SOL    HW162817  12.024  13.675  13.806
20328SOL    HW262818  12.109  13.677  13.681
20329SOL     OW62819   4.956  11.486   5.957
20329SOL    HW162820   4.874  11.451   5.921
20329SOL    HW262821   4.966  11.442   6.041
20330SOL     OW62822   3.932   2.724  11.264
20330SOL    HW162823   3.842   2.719  11.232
20330SOL    HW262824   3.971   2.796  11.215
20331SOL     OW62825   4.782  12.582   5.017
20331SOL    HW162826   4.804  12.621   5.102
20331SOL    HW262827   4.732  12.504   5.039
20332SOL     OW62828   1.835   0.606   8.907
20332SOL    HW162829   1.762   0.594   8.846
20332SOL    HW262830   1.835   0.699   8.927
20333SOL     OW62831  12.208   3.525   1.537
20333SOL    HW162832  12.262   3.595   1.501
20333SOL    HW262833  12.139   3.511   1.472
20334SOL     OW62834   0.660   2.799   3.924
20334SOL    HW162835   0.700   2.756   3.999
20334SOL    HW262836   0.733   2.840   3.878
20335SOL     OW62837   2.690  11.035   4.968
20335SOL    HW162838   2.725  10.961   4.919
20335SOL    HW262839   2.650  10.996   5.046
20336SOL     OW62840   9.980   1.623  10.487
20336SOL    HW162841   9.995   1.545  10.433
20336SOL    HW262842  10.061   1.634  10.536
20337SOL     OW62843  14.370  14.591   6.157
20337SOL    HW162844  14.450  14.540   6.159
20337SOL    HW262845  14.300  14.527   6.143
20338SOL     OW62846  12.066  12.958   1.592
20338SOL    HW162847  12.082  12.995   1.678
20338SOL    HW262848  11.981  12.914   1.600
20339SOL     OW62849   8.806   7.294  13.539
20339SOL    HW162850   8.817   7.228  13.471
20339SOL    HW262851   8.737   7.259  13.595
20340SOL     OW62852   1.382  13.693   7.384
20340SOL    HW162853   1.446  13.727   7.322
20340SOL    HW262854   1.353  13.770   7.433
20341SOL     OW62855   2.323  10.732  10.489
20341SOL    HW162856   2.350  10.641  10.477
20341SOL    HW262857   2.376  10.781  10.426
20342SOL     OW62858   9.504   0.892   1.355
20342SOL    HW162859   9.506   0.904   1.260
20342SOL    HW262860   9.580   0.940   1.387
20343SOL     OW62861  14.148  14.058   9.879
20343SOL    HW162862  14.063  14.063   9.923
20343SOL    HW262863  14.136  13.991   9.811
20344SOL     OW62864   1.180   2.158   9.256
20344SOL    HW162865   1.132   2.240   9.249
20344SOL    HW262866   1.117   2.090   9.232
20345SOL     OW62867  13.308   2.075   3.458
20345SOL    HW162868  13.364   2.013   3.506
20345SOL    HW262869  13.234   2.090   3.517
20346SOL     OW62870  11.256   2.992  10.622
20346SOL    HW162871  11.282   3.083  10.639
20346SOL    HW262872  11.218   2.995  10.534
20347SOL     OW62873   1.601  10.484  10.840
20347SOL    HW162874   1.645  10.556  10.885
20347SOL    HW262875   1.514  10.481  10.881
20348SOL     OW62876   4.736   6.974   1.936
20348SOL    HW162877   4.752   6.993   2.028
20348SOL    HW262878   4.667   6.907   1.937
20349SOL     OW62879   6.070   9.114   9.795
20349SOL    HW162880   6.152   9.164   9.799
20349SOL    HW262881   6.037   9.128   9.707
20350SOL     OW62882  11.497   2.420  10.179
20350SOL    HW162883  11.506   2.506  10.137
20350SOL    HW262884  11.481   2.440  10.271
20351SOL     OW62885   9.794   6.840   0.896
20351SOL    HW162886   9.766   6.926   0.927
20351SOL    HW262887   9.733   6.819   0.825
20352SOL     OW62888   3.210   2.250   7.015
20352SOL    HW162889   3.227   2.220   6.926
20352SOL    HW262890   3.171   2.175   7.059
20353SOL     OW62891  13.083   7.795  13.071
20353SOL    HW162892  13.045   7.868  13.023
20353SOL    HW262893  13.177   7.803  13.057
20354SOL     OW62894   4.616   4.250   5.874
20354SOL    HW162895   4.607   4.251   5.779
20354SOL    HW262896   4.710   4.238   5.889
20355SOL     OW62897   1.231   9.841  14.840
20355SOL    HW162898   1.167   9.770  14.832
20355SOL    HW262899   1.183   9.913   0.002
20356SOL     OW62900   8.431  12.919  12.352
20356SOL    HW162901   8.360  12.978  12.377
20356SOL    HW262902   8.387  12.844  12.313
20357SOL     OW62903   3.399   4.131  13.773
20357SOL    HW162904   3.325   4.157  13.828
20357SOL    HW262905   3.390   4.185  13.695
20358SOL     OW62906   1.684   7.887  13.334
20358SOL    HW162907   1.634   7.907  13.413
20358SOL    HW262908   1.766   7.850  13.366
20359SOL     OW62909   3.091   1.626   8.513
20359SOL    HW162910   3.128   1.644   8.426
20359SOL    HW262911   3.133   1.690   8.570
20360SOL     OW62912   1.782  14.105  14.521
20360SOL    HW162913   1.800  14.080  14.430
20360SOL    HW262914   1.701  14.156  14.516
20361SOL     OW62915  14.684   3.493  11.362
20361SOL    HW162916  14.603   3.443  11.374
20361SOL    HW262917  14.658   3.569  11.311
20362SOL     OW62918   4.087   0.639   2.977
20362SOL    HW162919   4.172   0.650   2.935
20362SOL    HW262920   4.028   0.614   2.905
20363SOL     OW62921   2.765  14.704   4.114
20363SOL    HW162922   2.673  14.697   4.087
20363SOL    HW262923   2.775  14.640   4.184
20364SOL     OW62924   0.029  10.741  13.618
20364SOL    HW162925  14.851  10.671  13.586
20364SOL    HW262926   0.112  10.728  13.571
20365SOL     OW62927   7.166  14.814   2.326
20365SOL    HW162928   7.235  14.821   2.392
20365SOL    HW262929   7.104  14.752   2.364
20366SOL     OW62930   5.811  13.595   3.110
20366SOL    HW162931   5.730  13.546   3.096
20366SOL    HW262932   5.841  13.567   3.196
20367SOL     OW62933   3.354   8.608   2.288
20367SOL    HW162934   3.420   8.543   2.264
20367SOL    HW262935   3.400   8.692   2.284
20368SOL     OW62936  14.521   1.670   9.827
20368SOL    HW162937  14.507   1.601   9.762
20368SOL    HW262938  14.433   1.695   9.855
20369SOL     OW62939   2.231   7.334   8.504
20369SOL    HW162940   2.161   7.400   8.515
20369SOL    HW262941   2.194   7.254   8.541
20370SOL     OW62942   0.035   2.166   4.095
20370SOL    HW162943   0.028   2.184   4.001
20370SOL    HW262944   0.060   2.074   4.100
20371SOL     OW62945   1.680   2.191   3.610
20371SOL    HW162946   1.640   2.106   3.594
20371SOL    HW262947   1.701   2.190   3.704
20372SOL     OW62948   2.526  14.150   8.039
20372SOL    HW162949   2.510  14.072   8.091
20372SOL    HW262950   2.621  14.151   8.025
20373SOL     OW62951  10.896  10.154   4.435
20373SOL    HW162952  10.966  10.100   4.400
20373SOL    HW262953  10.846  10.181   4.358
20374SOL     OW62954   1.266  14.034   1.555
20374SOL    HW162955   1.295  14.114   1.599
20374SOL    HW262956   1.193  14.003   1.608
20375SOL     OW62957  13.112  11.639  12.526
20375SOL    HW162958  13.208  11.629  12.525
20375SOL    HW262959  13.093  11.665  12.616
20376SOL     OW62960   8.516   0.769   6.952
20376SOL    HW162961   8.602   0.809   6.965
20376SOL    HW262962   8.505   0.712   7.028
20377SOL     OW62963   8.144  11.741   0.265
20377SOL    HW162964   8.200  11.801   0.315
20377SOL    HW262965   8.191  11.658   0.265
20378SOL     OW62966   8.959   1.648   0.965
20378SOL    HW162967   8.968   1.692   1.049
20378SOL    HW262968   9.038   1.670   0.917
20379SOL     OW62969   9.216  14.718   9.147
20379SOL    HW162970   9.256  14.713   9.060
20379SOL    HW262971   9.123  14.729   9.130
20380SOL     OW62972   5.240   4.746  14.772
20380SOL    HW162973   5.240   4.653  14.747
20380SOL    HW262974   5.245   4.794  14.690
20381SOL     OW62975   2.374   3.515   1.618
20381SOL    HW162976   2.281   3.524   1.597
20381SOL    HW262977   2.381   3.430   1.661
20382SOL     OW62978   0.767   3.203   6.254
20382SOL    HW162979   0.765   3.166   6.166
20382SOL    HW262980   0.751   3.296   6.241
20383SOL     OW62981  14.487   9.735   3.606
20383SOL    HW162982  14.398   9.760   3.581
20383SOL    HW262983  14.476   9.659   3.662
20384SOL     OW62984   3.403   8.488   0.083
20384SOL    HW162985   3.460   8.470   0.009
20384SOL    HW262986   3.404   8.408   0.135
20385SOL     OW62987   8.670   6.169  14.200
20385SOL    HW162988   8.735   6.127  14.256
20385SOL    HW262989   8.619   6.224  14.260
20386SOL     OW62990   0.411   9.417   3.066
20386SOL    HW162991   0.453   9.469   3.135
20386SOL    HW262992   0.449   9.451   2.985
20387SOL     OW62993  10.813   0.535  12.190
20387SOL    HW162994  10.751   0.534  12.263
20387SOL    HW262995  10.795   0.454  12.143
20388SOL     OW62996   9.009  10.820   7.672
20388SOL    HW162997   9.018  10.760   7.746
20388SOL    HW262998   9.078  10.794   7.612
20389SOL     OW62999   9.547  11.495   0.878
20389SOL    HW163000   9.610  11.423   0.879
20389SOL    HW263001   9.490  11.479   0.953
20390SOL     OW63002   1.833   4.886   1.299
20390SOL    HW163003   1.907   4.939   1.327
20390SOL    HW263004   1.871   4.802   1.275
20391SOL     OW63005  14.598  11.914   8.488
20391SOL    HW163006  14.627  11.955   8.407
20391SOL    HW263007  14.521  11.965   8.514
20392SOL     OW63008  13.992   6.477  10.317
20392SOL    HW163009  14.020   6.388  10.337
20392SOL    HW263010  13.954   6.509  10.398
20393SOL     OW63011   8.811   4.664  13.056
20393SOL    HW163012   8.847   4.581  13.089
20393SOL    HW263013   8.728   4.674  13.102
20394SOL     OW63014   5.329   4.075   1.187
20394SOL    HW163015   5.344   4.100   1.278
20394SOL    HW263016   5.397   4.121   1.138
20395SOL     OW63017   9.738   8.712   3.476
20395SOL    HW163018   9.758   8.796   3.515
20395SOL    HW263019   9.642   8.704   3.482
20396SOL     OW63020  13.207   8.309   2.533
20396SOL    HW163021  13.245   8.228   2.498
20396SOL    HW263022  13.173   8.284   2.619
20397SOL     OW63023   8.771  10.680   7.378
20397SOL    HW163024   8.722  10.726   7.446
20397SOL    HW263025   8.713  10.609   7.351
20398SOL     OW63026   4.317   7.289  12.571
20398SOL    HW163027   4.364   7.260  12.493
20398SOL    HW263028   4.244   7.227  12.579
20399SOL     OW63029   2.026  10.093   5.380
20399SOL    HW163030   2.102  10.139   5.345
20399SOL    HW263031   2.056  10.004   5.395
20400SOL     OW63032   2.980   8.330  12.685
20400SOL    HW163033   2.956   8.379  12.764
20400SOL    HW263034   2.932   8.248  12.692
20401SOL     OW63035  12.954   8.225   8.668
20401SOL    HW163036  12.988   8.309   8.637
20401SOL    HW263037  12.936   8.175   8.589
20402SOL     OW63038   5.005   0.383   1.810
20402SOL    HW163039   4.956   0.301   1.805
20402SOL    HW263040   5.020   0.409   1.719
20403SOL     OW63041   1.672   1.629   0.023
20403SOL    HW163042   1.755   1.604  14.863
20403SOL    HW263043   1.606   1.577  14.856
20404SOL     OW63044   4.130   1.993   8.559
20404SOL    HW163045   4.126   2.025   8.649
20404SOL    HW263046   4.059   2.038   8.514
20405SOL     OW63047   8.544   1.574   6.721
20405SOL    HW163048   8.453   1.590   6.699
20405SOL    HW263049   8.552   1.479   6.724
20406SOL     OW63050  14.507  12.772  13.426
20406SOL    HW163051  14.443  12.773  13.498
20406SOL    HW263052  14.580  12.719  13.459
20407SOL     OW63053   9.356  13.487   5.562
20407SOL    HW163054   9.333  13.579   5.579
20407SOL    HW263055   9.403  13.459   5.641
20408SOL     OW63056   6.866   7.431   8.917
20408SOL    HW163057   6.919   7.509   8.901
20408SOL    HW263058   6.846   7.433   9.011
20409SOL     OW63059   1.014   3.846  12.083
20409SOL    HW163060   1.108   3.835  12.069
20409SOL    HW263061   0.997   3.937  12.057
20410SOL     OW63062   8.848  13.745   9.651
20410SOL    HW163063   8.828  13.795   9.572
20410SOL    HW263064   8.929  13.698   9.629
20411SOL     OW63065   6.254  11.006  10.734
20411SOL    HW163066   6.251  11.097  10.705
20411SOL    HW263067   6.295  11.010  10.821
20412SOL     OW63068   2.445   6.151   5.949
20412SOL    HW163069   2.537   6.152   5.975
20412SOL    HW263070   2.421   6.243   5.943
20413SOL     OW63071   5.768   2.215   6.104
20413SOL    HW163072   5.791   2.125   6.081
20413SOL    HW263073   5.827   2.237   6.177
20414SOL     OW63074   2.527  12.830   8.665
20414SOL    HW163075   2.499  12.814   8.574
20414SOL    HW263076   2.593  12.763   8.682
20415SOL     OW63077   8.713  14.008   8.131
20415SOL    HW163078   8.724  13.972   8.218
20415SOL    HW263079   8.799  14.044   8.108
20416SOL     OW63080  13.644   1.454   6.207
20416SOL    HW163081  13.584   1.427   6.138
20416SOL    HW263082  13.636   1.386   6.274
20417SOL     OW63083  11.585   3.250   3.838
20417SOL    HW163084  11.651   3.187   3.807
20417SOL    HW263085  11.502   3.204   3.827
20418SOL     OW63086   7.485  10.241   7.554
20418SOL    HW163087   7.569  10.273   7.521
20418SOL    HW263088   7.483  10.268   7.646
20419SOL     OW63089   4.038  12.585  10.760
20419SOL    HW163090   3.995  12.547  10.684
20419SOL    HW263091   3.992  12.668  10.775
20420SOL     OW63092   8.727   3.040   9.964
20420SOL    HW163093   8.728   3.045  10.060
20420SOL    HW263094   8.725   3.132   9.936
20421SOL     OW63095  10.118   8.709   5.883
20421SOL    HW163096  10.067   8.636   5.847
20421SOL    HW263097  10.088   8.717   5.974
20422SOL     OW63098   4.492  13.155   7.197
20422SOL    HW163099   4.518  13.214   7.268
20422SOL    HW263100   4.418  13.106   7.232
20423SOL     OW63101   3.104   5.216   1.820
20423SOL    HW163102   3.169   5.154   1.786
20423SOL    HW263103   3.140   5.242   1.905
20424SOL     OW63104   2.452   6.580  13.579
20424SOL    HW163105   2.436   6.552  13.489
20424SOL    HW263106   2.381   6.641  13.598
20425SOL     OW63107  14.607  13.790   5.106
20425SOL    HW163108  14.653  13.767   5.187
20425SOL    HW263109  14.540  13.852   5.132
20426SOL     OW63110  13.440  14.597   1.298
20426SOL    HW163111  13.475  14.648   1.371
20426SOL    HW263112  13.395  14.524   1.340
20427SOL     OW63113   2.054   2.756   0.962
20427SOL    HW163114   2.015   2.683   1.010
20427SOL    HW263115   1.980   2.799   0.918
20428SOL     OW63116   3.887   8.963   0.740
20428SOL    HW163117   3.897   8.882   0.690
20428SOL    HW263118   3.976   8.995   0.752
20429SOL     OW63119   5.538  11.189  14.118
20429SOL    HW163120   5.574  11.218  14.201
20429SOL    HW263121   5.560  11.259  14.056
20430SOL     OW63122   8.924   7.270   7.030
20430SOL    HW163123   8.880   7.186   7.041
20430SOL    HW263124   8.908   7.317   7.112
20431SOL     OW63125   6.688   9.269  13.707
20431SOL    HW163126   6.743   9.346  13.694
20431SOL    HW263127   6.601   9.304  13.725
20432SOL     OW63128   3.159  10.445   8.735
20432SOL    HW163129   3.082  10.501   8.739
20432SOL    HW263130   3.178  10.437   8.641
20433SOL     OW63131   6.684   7.180   5.213
20433SOL    HW163132   6.634   7.244   5.162
20433SOL    HW263133   6.667   7.203   5.304
20434SOL     OW63134   2.897  13.444   4.905
20434SOL    HW163135   2.868  13.469   4.817
20434SOL    HW263136   2.981  13.489   4.917
20435SOL     OW63137  12.206   0.969  11.716
20435SOL    HW163138  12.196   0.938  11.626
20435SOL    HW263139  12.200   0.890  11.770
20436SOL     OW63140   3.652  13.424  10.777
20436SOL    HW163141   3.722  13.363  10.802
20436SOL    HW263142   3.637  13.407  10.684
20437SOL     OW63143   5.254   5.659  10.882
20437SOL    HW163144   5.231   5.601  10.810
20437SOL    HW263145   5.283   5.601  10.952
20438SOL     OW63146   5.110  11.345   3.553
20438SOL    HW163147   5.044  11.414   3.564
20438SOL    HW263148   5.059  11.265   3.537
20439SOL     OW63149  14.344   5.741   7.045
20439SOL    HW163150  14.395   5.770   7.121
20439SOL    HW263151  14.339   5.646   7.055
20440SOL     OW63152   9.782   4.175   7.099
20440SOL    HW163153   9.862   4.217   7.132
20440SOL    HW263154   9.762   4.107   7.165
20441SOL     OW63155  11.780   3.357  12.659
20441SOL    HW163156  11.803   3.289  12.596
20441SOL    HW263157  11.849   3.423  12.650
20442SOL     OW63158  10.786   8.538   1.152
20442SOL    HW163159  10.738   8.470   1.200
20442SOL    HW263160  10.722   8.607   1.137
20443SOL     OW63161  13.024   2.196   5.090
20443SOL    HW163162  13.065   2.253   5.155
20443SOL    HW263163  13.082   2.202   5.013
20444SOL     OW63164  10.388   7.343  13.909
20444SOL    HW163165  10.404   7.278  13.978
20444SOL    HW263166  10.463   7.403  13.915
20445SOL     OW63167   6.876   6.082   4.541
20445SOL    HW163168   6.826   6.099   4.621
20445SOL    HW263169   6.965   6.112   4.562
20446SOL     OW63170   8.112   0.791   8.241
20446SOL    HW163171   8.175   0.854   8.275
20446SOL    HW263172   8.026   0.827   8.266
20447SOL     OW63173  11.260  13.506   9.154
20447SOL    HW163174  11.186  13.489   9.211
20447SOL    HW263175  11.332  13.454   9.191
20448SOL     OW63176  10.300   4.512   2.487
20448SOL    HW163177  10.243   4.464   2.546
20448SOL    HW263178  10.280   4.478   2.400
20449SOL     OW63179   3.825   0.933   3.516
20449SOL    HW163180   3.826   0.926   3.421
20449SOL    HW263181   3.791   1.020   3.534
20450SOL     OW63182   4.698   2.364   2.194
20450SOL    HW163183   4.664   2.415   2.120
20450SOL    HW263184   4.672   2.414   2.271
20451SOL     OW63185  11.118   1.305   4.007
20451SOL    HW163186  11.129   1.329   4.099
20451SOL    HW263187  11.196   1.341   3.964
20452SOL     OW63188   6.910  12.179  11.551
20452SOL    HW163189   6.866  12.207  11.632
20452SOL    HW263190   6.846  12.124  11.507
20453SOL     OW63191   9.780  12.680   5.638
20453SOL    HW163192   9.856  12.635   5.604
20453SOL    HW263193   9.747  12.623   5.708
20454SOL     OW63194   6.539   7.451   5.073
20454SOL    HW163195   6.560   7.501   4.994
20454SOL    HW263196   6.478   7.507   5.121
20455SOL     OW63197   9.799  12.467   2.649
20455SOL    HW163198   9.734  12.447   2.581
20455SOL    HW263199   9.845  12.384   2.664
20456SOL     OW63200   0.390   8.910   9.050
20456SOL    HW163201   0.392   9.005   9.062
20456SOL    HW263202   0.382   8.898   8.955
20457SOL     OW63203   3.406  11.272  10.582
20457SOL    HW163204   3.436  11.327  10.509
20457SOL    HW263205   3.321  11.310  10.606
20458SOL     OW63206   7.702   1.295   2.216
20458SOL    HW163207   7.759   1.236   2.166
20458SOL    HW263208   7.750   1.378   2.218
20459SOL     OW63209  12.831  10.899  12.456
20459SOL    HW163210  12.742  10.915  12.425
20459SOL    HW263211  12.859  10.982  12.493
20460SOL     OW63212   5.143  12.733   0.153
20460SOL    HW163213   5.091  12.785   0.092
20460SOL    HW263214   5.134  12.778   0.237
20461SOL     OW63215   6.185   7.157  10.101
20461SOL    HW163216   6.259   7.122  10.151
20461SOL    HW263217   6.224   7.211  10.033
20462SOL     OW63218   4.763  14.465   2.300
20462SOL    HW163219   4.848  14.425   2.281
20462SOL    HW263220   4.700  14.409   2.255
20463SOL     OW63221   9.670   4.727   1.066
20463SOL    HW163222   9.740   4.728   1.000
20463SOL    HW263223   9.612   4.799   1.041
20464SOL     OW63224   6.829   2.464   0.399
20464SOL    HW163225   6.876   2.443   0.479
20464SOL    HW263226   6.886   2.525   0.352
20465SOL     OW63227  11.651   8.841   8.096
20465SOL    HW163228  11.663   8.880   8.182
20465SOL    HW263229  11.723   8.876   8.043
20466SOL     OW63230   8.877   2.899   9.744
20466SOL    HW163231   8.849   2.908   9.835
20466SOL    HW263232   8.961   2.853   9.749
20467SOL     OW63233   7.417   2.658  10.883
20467SOL    HW163234   7.485   2.615  10.934
20467SOL    HW263235   7.365   2.586  10.847
20468SOL     OW63236   4.287  14.635   3.047
20468SOL    HW163237   4.274  14.709   2.988
20468SOL    HW263238   4.356  14.583   3.006
20469SOL     OW63239  12.770   0.872   6.459
20469SOL    HW163240  12.734   0.956   6.488
20469SOL    HW263241  12.706   0.807   6.487
20470SOL     OW63242   8.083  13.591  11.294
20470SOL    HW163243   8.002  13.618  11.251
20470SOL    HW263244   8.072  13.497  11.309
20471SOL     OW63245  12.389   0.789  12.889
20471SOL    HW163246  12.394   0.702  12.928
20471SOL    HW263247  12.464   0.794  12.831
20472SOL     OW63248   0.902   2.929   0.748
20472SOL    HW163249   0.886   3.012   0.793
20472SOL    HW263250   0.844   2.867   0.793
20473SOL     OW63251   6.310   5.060  14.741
20473SOL    HW163252   6.286   5.037  14.831
20473SOL    HW263253   6.401   5.030  14.733
20474SOL     OW63254   4.155   8.235   3.553
20474SOL    HW163255   4.196   8.163   3.504
20474SOL    HW263256   4.098   8.278   3.490
20475SOL     OW63257   9.896   5.595  12.872
20475SOL    HW163258   9.806   5.568  12.889
20475SOL    HW263259   9.913   5.565  12.783
20476SOL     OW63260  10.969   2.836   3.248
20476SOL    HW163261  11.022   2.883   3.183
20476SOL    HW263262  10.963   2.747   3.214
20477SOL     OW63263   5.556   2.339  14.421
20477SOL    HW163264   5.490   2.293  14.370
20477SOL    HW263265   5.568   2.285  14.499
20478SOL     OW63266   1.902   1.127  13.671
20478SOL    HW163267   1.815   1.141  13.708
20478SOL    HW263268   1.948   1.210  13.688
20479SOL     OW63269   9.035   6.087  14.214
20479SOL    HW163270   9.120   6.067  14.255
20479SOL    HW263271   8.971   6.067  14.282
20480SOL     OW63272   0.738  10.701  10.263
20480SOL    HW163273   0.713  10.670  10.350
20480SOL    HW263274   0.685  10.779  10.250
20481SOL     OW63275   6.823  11.203   5.051
20481SOL    HW163276   6.786  11.277   5.003
20481SOL    HW263277   6.917  11.209   5.037
20482SOL     OW63278  10.189   6.764   1.607
20482SOL    HW163279  10.263   6.770   1.547
20482SOL    HW263280  10.216   6.815   1.683
20483SOL     OW63281   1.178   4.964   3.777
20483SOL    HW163282   1.136   4.921   3.703
20483SOL    HW263283   1.255   4.911   3.795
20484SOL     OW63284  12.817   4.398   4.404
20484SOL    HW163285  12.811   4.448   4.322
20484SOL    HW263286  12.851   4.461   4.468
20485SOL     OW63287  13.648   6.876   4.948
20485SOL    HW163288  13.674   6.793   4.989
20485SOL    HW263289  13.604   6.923   5.019
20486SOL     OW63290   8.949   5.304   9.966
20486SOL    HW163291   9.029   5.345   9.998
20486SOL    HW263292   8.928   5.353   9.886
20487SOL     OW63293   2.316   6.216   3.779
20487SOL    HW163294   2.351   6.221   3.868
20487SOL    HW263295   2.390   6.237   3.723
20488SOL     OW63296   9.991  14.180   2.833
20488SOL    HW163297   9.899  14.156   2.834
20488SOL    HW263298  10.013  14.189   2.740
20489SOL     OW63299   3.327  11.523   1.255
20489SOL    HW163300   3.408  11.532   1.305
20489SOL    HW263301   3.295  11.435   1.277
20490SOL     OW63302   0.511   8.197   0.969
20490SOL    HW163303   0.585   8.229   1.022
20490SOL    HW263304   0.506   8.259   0.896
20491SOL     OW63305   7.435   6.474  14.187
20491SOL    HW163306   7.363   6.412  14.176
20491SOL    HW263307   7.512   6.420  14.203
20492SOL     OW63308  13.494   8.005   2.128
20492SOL    HW163309  13.517   8.068   2.197
20492SOL    HW263310  13.541   7.925   2.152
20493SOL     OW63311  11.651   9.507   8.675
20493SOL    HW163312  11.703   9.478   8.600
20493SOL    HW263313  11.607   9.428   8.706
20494SOL     OW63314   6.159  11.830  10.478
20494SOL    HW163315   6.177  11.855  10.568
20494SOL    HW263316   6.237  11.783  10.450
20495SOL     OW63317   6.708  10.174   5.454
20495SOL    HW163318   6.650  10.207   5.386
20495SOL    HW263319   6.777  10.126   5.407
20496SOL     OW63320   5.427   2.750  13.804
20496SOL    HW163321   5.377   2.729  13.883
20496SOL    HW263322   5.366   2.735  13.732
20497SOL     OW63323   7.249   2.241   5.373
20497SOL    HW163324   7.342   2.222   5.367
20497SOL    HW263325   7.228   2.287   5.291
20498SOL     OW63326  10.008   0.220   4.997
20498SOL    HW163327   9.999   0.132   5.033
20498SOL    HW263328  10.102   0.236   4.995
20499SOL     OW63329  10.738  11.193   6.897
20499SOL    HW163330  10.826  11.209   6.863
20499SOL    HW263331  10.697  11.136   6.832
20500SOL     OW63332  14.531   2.982  13.465
20500SOL    HW163333  14.620   2.951  13.480
20500SOL    HW263334  14.541   3.071  13.431
20501SOL     OW63335  10.687  14.862   7.665
20501SOL    HW163336  10.741  14.795   7.622
20501SOL    HW263337  10.750   0.043   7.704
20502SOL     OW63338   3.527  12.265   9.322
20502SOL    HW163339   3.443  12.239   9.285
20502SOL    HW263340   3.557  12.336   9.265
20503SOL     OW63341   9.493  13.693  10.492
20503SOL    HW163342   9.518  13.627  10.427
20503SOL    HW263343   9.463  13.768  10.440
20504SOL     OW63344   3.544  13.521   0.314
20504SOL    HW163345   3.476  13.570   0.267
20504SOL    HW263346   3.567  13.450   0.254
20505SOL     OW63347  12.348   8.924   9.332
20505SOL    HW163348  12.426   8.911   9.279
20505SOL    HW263349  12.376   8.904   9.422
20506SOL     OW63350   3.868  12.773   3.284
20506SOL    HW163351   3.909  12.809   3.205
20506SOL    HW263352   3.775  12.789   3.272
20507SOL     OW63353  11.855  14.162   1.567
20507SOL    HW163354  11.825  14.075   1.543
20507SOL    HW263355  11.837  14.168   1.661
20508SOL     OW63356   7.656  14.695   5.714
20508SOL    HW163357   7.562  14.699   5.733
20508SOL    HW263358   7.670  14.760   5.645
20509SOL     OW63359   5.685   9.468   5.702
20509SOL    HW163360   5.653   9.436   5.618
20509SOL    HW263361   5.617   9.530   5.732
20510SOL     OW63362   0.261   4.855   5.365
20510SOL    HW163363   0.180   4.856   5.315
20510SOL    HW263364   0.300   4.770   5.346
20511SOL     OW63365   1.648   0.951   6.407
20511SOL    HW163366   1.618   0.984   6.323
20511SOL    HW263367   1.645   1.027   6.465
20512SOL     OW63368  11.092  13.628   2.872
20512SOL    HW163369  11.138  13.650   2.792
20512SOL    HW263370  11.048  13.545   2.852
20513SOL     OW63371  14.158   9.325   7.156
20513SOL    HW163372  14.181   9.327   7.249
20513SOL    HW263373  14.174   9.235   7.129
20514SOL     OW63374  14.475   3.965  10.678
20514SOL    HW163375  14.502   4.054  10.653
20514SOL    HW263376  14.521   3.950  10.761
20515SOL     OW63377   8.825  11.363   9.039
20515SOL    HW163378   8.827  11.398   9.128
20515SOL    HW263379   8.872  11.429   8.986
20516SOL     OW63380  10.529  12.407   0.111
20516SOL    HW163381  10.436  12.407   0.132
20516SOL    HW263382  10.535  12.449   0.026
20517SOL     OW63383   9.830  11.413  12.274
20517SOL    HW163384   9.765  11.351  12.305
20517SOL    HW263385   9.833  11.481  12.343
20518SOL     OW63386  12.127   6.214   8.432
20518SOL    HW163387  12.087   6.273   8.368
20518SOL    HW263388  12.061   6.206   8.501
20519SOL     OW63389   3.800   7.245  10.162
20519SOL    HW163390   3.832   7.329  10.195
20519SOL    HW263391   3.807   7.253  10.067
20520SOL     OW63392  13.777  11.356   4.952
20520SOL    HW163393  13.798  11.424   4.888
20520SOL    HW263394  13.681  11.349   4.948
20521SOL     OW63395   2.755   0.183   4.079
20521SOL    HW163396   2.708   0.148   4.004
20521SOL    HW263397   2.805   0.109   4.113
20522SOL     OW63398   5.503   7.312   4.752
20522SOL    HW163399   5.562   7.298   4.826
20522SOL    HW263400   5.505   7.230   4.703
20523SOL     OW63401  13.611   5.543   7.707
20523SOL    HW163402  13.598   5.485   7.632
20523SOL    HW263403  13.525   5.579   7.724
20524SOL     OW63404  11.305   9.424   9.274
20524SOL    HW163405  11.319   9.338   9.313
20524SOL    HW263406  11.392   9.465   9.273
20525SOL     OW63407   3.720   3.136   2.648
20525SOL    HW163408   3.778   3.119   2.722
20525SOL    HW263409   3.771   3.193   2.591
20526SOL     OW63410   7.698   4.451   0.263
20526SOL    HW163411   7.787   4.445   0.297
20526SOL    HW263412   7.643   4.411   0.331
20527SOL     OW63413  11.792   4.416   4.972
20527SOL    HW163414  11.822   4.424   4.881
20527SOL    HW263415  11.745   4.498   4.989
20528SOL     OW63416   7.001  10.880  13.097
20528SOL    HW163417   7.078  10.858  13.045
20528SOL    HW263418   7.015  10.836  13.180
20529SOL     OW63419   1.337   4.399  12.505
20529SOL    HW163420   1.245   4.426  12.501
20529SOL    HW263421   1.387   4.480  12.495
20530SOL     OW63422  11.832  13.141  12.129
20530SOL    HW163423  11.892  13.184  12.067
20530SOL    HW263424  11.850  13.184  12.213
20531SOL     OW63425   2.137   2.361   7.374
20531SOL    HW163426   2.085   2.302   7.429
20531SOL    HW263427   2.080   2.436   7.359
20532SOL     OW63428  11.668   3.884   0.849
20532SOL    HW163429  11.643   3.913   0.762
20532SOL    HW263430  11.760   3.860   0.841
20533SOL     OW63431   5.245   4.585   2.333
20533SOL    HW163432   5.334   4.556   2.352
20533SOL    HW263433   5.198   4.505   2.310
20534SOL     OW63434  12.729   2.662   9.902
20534SOL    HW163435  12.799   2.723   9.877
20534SOL    HW263436  12.652   2.718   9.913
20535SOL     OW63437  13.570   3.499   7.970
20535SOL    HW163438  13.665   3.489   7.975
20535SOL    HW263439  13.556   3.572   7.910
20536SOL     OW63440  13.538   2.583   7.026
20536SOL    HW163441  13.548   2.512   6.963
20536SOL    HW263442  13.568   2.545   7.109
20537SOL     OW63443   7.839  12.130  12.462
20537SOL    HW163444   7.920  12.177  12.485
20537SOL    HW263445   7.772  12.170  12.517
20538SOL     OW63446   0.500   7.039   4.198
20538SOL    HW163447   0.544   7.124   4.196
20538SOL    HW263448   0.525   7.002   4.283
20539SOL     OW63449   6.154   4.750   7.688
20539SOL    HW163450   6.110   4.833   7.669
20539SOL    HW263451   6.181   4.717   7.603
20540SOL     OW63452  14.289  14.543  11.956
20540SOL    HW163453  14.327  14.457  11.935
20540SOL    HW263454  14.216  14.552  11.894
20541SOL     OW63455   5.203   6.713   3.168
20541SOL    HW163456   5.171   6.771   3.237
20541SOL    HW263457   5.123   6.679   3.127
20542SOL     OW63458   3.343   0.737  14.690
20542SOL    HW163459   3.354   0.827  14.658
20542SOL    HW263460   3.345   0.746  14.786
20543SOL     OW63461  14.365   0.301   7.096
20543SOL    HW163462  14.401   0.386   7.122
20543SOL    HW263463  14.328   0.316   7.009
20544SOL     OW63464   9.638  13.465   5.457
20544SOL    HW163465   9.597  13.484   5.372
20544SOL    HW263466   9.565  13.441   5.514
20545SOL     OW63467   4.978  12.083  10.191
20545SOL    HW163468   4.939  12.056  10.108
20545SOL    HW263469   4.986  12.001  10.241
20546SOL     OW63470   0.485  11.188   7.942
20546SOL    HW163471   0.455  11.100   7.965
20546SOL    HW263472   0.546  11.175   7.870
20547SOL     OW63473  10.083  10.216  13.930
20547SOL    HW163474  10.120  10.162  13.860
20547SOL    HW263475  10.053  10.295  13.886
20548SOL     OW63476   0.225   9.264   1.278
20548SOL    HW163477   0.166   9.339   1.279
20548SOL    HW263478   0.308   9.298   1.244
20549SOL     OW63479  14.365   9.920   8.398
20549SOL    HW163480  14.340   9.894   8.486
20549SOL    HW263481  14.294   9.976   8.368
20550SOL     OW63482   7.439  10.684   9.874
20550SOL    HW163483   7.409  10.594   9.890
20550SOL    HW263484   7.445  10.690   9.778
20551SOL     OW63485   8.572  10.868   5.246
20551SOL    HW163486   8.588  10.779   5.216
20551SOL    HW263487   8.502  10.859   5.312
20552SOL     OW63488  13.772   6.677  11.407
20552SOL    HW163489  13.842   6.742  11.418
20552SOL    HW263490  13.734   6.669  11.495
20553SOL     OW63491  10.821   8.120   2.793
20553SOL    HW163492  10.748   8.083   2.843
20553SOL    HW263493  10.897   8.108   2.850
20554SOL     OW63494   6.329  10.196   4.097
20554SOL    HW163495   6.374  10.151   4.168
20554SOL    HW263496   6.238  10.167   4.105
20555SOL     OW63497   3.991   3.473   7.201
20555SOL    HW163498   3.957   3.486   7.113
20555SOL    HW263499   3.965   3.384   7.225
20556SOL     OW63500  14.148  12.242   9.705
20556SOL    HW163501  14.153  12.330   9.740
20556SOL    HW263502  14.187  12.187   9.773
20557SOL     OW63503   6.389   4.126   6.924
20557SOL    HW163504   6.299   4.093   6.928
20557SOL    HW263505   6.443   4.051   6.948
20558SOL     OW63506   4.332  14.117   1.926
20558SOL    HW163507   4.397  14.187   1.927
20558SOL    HW263508   4.289  14.126   1.841
20559SOL     OW63509  12.059   4.025   8.130
20559SOL    HW163510  12.036   3.933   8.115
20559SOL    HW263511  12.126   4.022   8.199
20560SOL     OW63512   7.954  10.232   9.428
20560SOL    HW163513   7.903  10.303   9.467
20560SOL    HW263514   7.891  10.181   9.377
20561SOL     OW63515  10.874   5.216   5.672
20561SOL    HW163516  10.799   5.158   5.661
20561SOL    HW263517  10.851   5.295   5.622
20562SOL     OW63518  13.347   4.704   3.025
20562SOL    HW163519  13.421   4.657   2.986
20562SOL    HW263520  13.306   4.639   3.083
20563SOL     OW63521   9.150   1.647  13.039
20563SOL    HW163522   9.069   1.607  13.007
20563SOL    HW263523   9.130   1.740  13.047
20564SOL     OW63524   5.415   2.331  11.122
20564SOL    HW163525   5.413   2.397  11.192
20564SOL    HW263526   5.466   2.372  11.052
20565SOL     OW63527   3.114  14.872   1.638
20565SOL    HW163528   3.078  14.864   1.726
20565SOL    HW263529   3.064   0.065   1.599
20566SOL     OW63530   0.467  11.530  12.540
20566SOL    HW163531   0.518  11.463  12.585
20566SOL    HW263532   0.491  11.520  12.448
20567SOL     OW63533  10.817  12.556   1.066
20567SOL    HW163534  10.788  12.597   1.148
20567SOL    HW263535  10.885  12.614   1.033
20568SOL     OW63536  12.897   1.751   5.377
20568SOL    HW163537  12.889   1.833   5.427
20568SOL    HW263538  12.814   1.706   5.391
20569SOL     OW63539   0.288  13.375   5.863
20569SOL    HW163540   0.382  13.380   5.847
20569SOL    HW263541   0.274  13.428   5.941
20570SOL     OW63542   6.393   4.497   9.561
20570SOL    HW163543   6.317   4.439   9.565
20570SOL    HW263544   6.422   4.504   9.652
20571SOL     OW63545  10.662   3.570  14.407
20571SOL    HW163546  10.678   3.595  14.498
20571SOL    HW263547  10.648   3.653  14.362
20572SOL     OW63548   0.445   7.352  10.583
20572SOL    HW163549   0.438   7.257  10.592
20572SOL    HW263550   0.387   7.373  10.510
20573SOL     OW63551   8.039  12.649  10.310
20573SOL    HW163552   8.082  12.588  10.251
20573SOL    HW263553   7.946  12.640  10.291
20574SOL     OW63554   4.280   0.648  10.392
20574SOL    HW163555   4.356   0.671  10.338
20574SOL    HW263556   4.288   0.553  10.406
20575SOL     OW63557   8.463   0.145   2.975
20575SOL    HW163558   8.558   0.136   2.985
20575SOL    HW263559   8.426   0.075   3.029
20576SOL     OW63560   3.317   9.681   6.615
20576SOL    HW163561   3.339   9.679   6.708
20576SOL    HW263562   3.229   9.719   6.612
20577SOL     OW63563   5.846   5.957   0.782
20577SOL    HW163564   5.880   5.997   0.702
20577SOL    HW263565   5.786   5.889   0.752
20578SOL     OW63566   2.986  14.321  14.774
20578SOL    HW163567   3.007  14.241  14.822
20578SOL    HW263568   2.916  14.362  14.825
20579SOL     OW63569  10.148  11.309  12.710
20579SOL    HW163570  10.212  11.272  12.648
20579SOL    HW263571  10.200  11.328  12.789
20580SOL     OW63572  14.487  12.064  14.280
20580SOL    HW163573  14.464  12.155  14.297
20580SOL    HW263574  14.439  12.043  14.199
20581SOL     OW63575   4.426   8.922   7.554
20581SOL    HW163576   4.500   8.912   7.494
20581SOL    HW263577   4.382   8.837   7.551
20582SOL     OW63578  11.351  13.886  10.796
20582SOL    HW163579  11.431  13.833  10.799
20582SOL    HW263580  11.326  13.896  10.887
20583SOL     OW63581   3.403   7.719   0.780
20583SOL    HW163582   3.389   7.808   0.812
20583SOL    HW263583   3.322   7.698   0.734
20584SOL     OW63584   2.459  11.173  12.023
20584SOL    HW163585   2.511  11.151  11.946
20584SOL    HW263586   2.523  11.181  12.094
20585SOL     OW63587  14.458  14.582   3.538
20585SOL    HW163588  14.524  14.607   3.473
20585SOL    HW263589  14.378  14.567   3.487
20586SOL     OW63590  12.784   6.252  12.777
20586SOL    HW163591  12.706   6.202  12.753
20586SOL    HW263592  12.844   6.187  12.815
20587SOL     OW63593   9.373   3.917  12.837
20587SOL    HW163594   9.406   3.887  12.752
20587SOL    HW263595   9.279   3.897  12.835
20588SOL     OW63596   6.219   3.775   7.806
20588SOL    HW163597   6.312   3.791   7.792
20588SOL    HW263598   6.196   3.709   7.740
20589SOL     OW63599   2.674   1.113   6.635
20589SOL    HW163600   2.752   1.087   6.586
20589SOL    HW263601   2.673   1.056   6.712
20590SOL     OW63602  10.436  14.854   7.530
20590SOL    HW163603  10.417  14.770   7.488
20590SOL    HW263604  10.508  14.836   7.589
20591SOL     OW63605  13.909   9.542   4.784
20591SOL    HW163606  13.980   9.488   4.750
20591SOL    HW263607  13.924   9.547   4.878
20592SOL     OW63608   3.897  14.344   8.614
20592SOL    HW163609   3.905  14.408   8.685
20592SOL    HW263610   3.986  14.312   8.600
20593SOL     OW63611   4.796   4.314  10.836
20593SOL    HW163612   4.840   4.264  10.904
20593SOL    HW263613   4.794   4.256  10.761
20594SOL     OW63614   7.142   9.091  10.755
20594SOL    HW163615   7.054   9.114  10.723
20594SOL    HW263616   7.193   9.170  10.745
20595SOL     OW63617   5.356   9.667   2.970
20595SOL    HW163618   5.418   9.613   3.018
20595SOL    HW263619   5.405   9.700   2.895
20596SOL     OW63620  12.141  10.546   6.687
20596SOL    HW163621  12.203  10.580   6.623
20596SOL    HW263622  12.060  10.595   6.671
20597SOL     OW63623  11.798   6.208   9.329
20597SOL    HW163624  11.847   6.127   9.319
20597SOL    HW263625  11.859   6.277   9.302
20598SOL     OW63626   4.898   7.147   6.844
20598SOL    HW163627   4.889   7.239   6.866
20598SOL    HW263628   4.990   7.137   6.818
20599SOL     OW63629  13.122  11.001  11.125
20599SOL    HW163630  13.218  11.010  11.131
20599SOL    HW263631  13.107  10.953  11.044
20600SOL     OW63632   1.620   1.050   8.285
20600SOL    HW163633   1.689   1.098   8.239
20600SOL    HW263634   1.618   1.089   8.372
20601SOL     OW63635   3.861  11.398   9.906
20601SOL    HW163636   3.843  11.476   9.958
20601SOL    HW263637   3.926  11.426   9.842
20602SOL     OW63638   3.156   9.267  10.635
20602SOL    HW163639   3.170   9.174  10.613
20602SOL    HW263640   3.203   9.279  10.718
20603SOL     OW63641   4.652  14.369  12.830
20603SOL    HW163642   4.568  14.409  12.850
20603SOL    HW263643   4.659  14.296  12.891
20604SOL     OW63644   2.580   0.930  14.488
20604SOL    HW163645   2.633   0.984  14.547
20604SOL    HW263646   2.532   0.992  14.434
20605SOL     OW63647   7.482   9.057   5.794
20605SOL    HW163648   7.527   8.978   5.822
20605SOL    HW263649   7.391   9.031   5.780
20606SOL     OW63650   4.157   9.763  14.389
20606SOL    HW163651   4.064   9.740  14.389
20606SOL    HW263652   4.168   9.818  14.311
20607SOL     OW63653   8.299  13.750  11.955
20607SOL    HW163654   8.259  13.755  11.868
20607SOL    HW263655   8.297  13.840  11.987
20608SOL     OW63656  12.257   1.334   8.072
20608SOL    HW163657  12.211   1.314   7.991
20608SOL    HW263658  12.269   1.429   8.070
20609SOL     OW63659  13.721  14.708   5.749
20609SOL    HW163660  13.789  14.741   5.690
20609SOL    HW263661  13.749  14.736   5.836
20610SOL     OW63662   8.000   6.752  11.322
20610SOL    HW163663   7.913   6.720  11.299
20610SOL    HW263664   8.029   6.695  11.393
20611SOL     OW63665   7.295   7.932   7.768
20611SOL    HW163666   7.254   7.976   7.693
20611SOL    HW263667   7.328   7.850   7.732
20612SOL     OW63668   6.374   3.355   2.423
20612SOL    HW163669   6.460   3.377   2.459
20612SOL    HW263670   6.324   3.325   2.499
20613SOL     OW63671   7.589   0.273  11.183
20613SOL    HW163672   7.643   0.215  11.236
20613SOL    HW263673   7.558   0.218  11.111
20614SOL     OW63674  13.632  14.016   7.252
20614SOL    HW163675  13.671  13.969   7.326
20614SOL    HW263676  13.693  14.003   7.180
20615SOL     OW63677   9.853   3.763   1.542
20615SOL    HW163678   9.871   3.811   1.462
20615SOL    HW263679   9.937   3.755   1.586
20616SOL     OW63680  12.448   8.877   6.151
20616SOL    HW163681  12.426   8.966   6.121
20616SOL    HW263682  12.395   8.820   6.097
20617SOL     OW63683   8.783  10.274   2.611
20617SOL    HW163684   8.699  10.320   2.615
20617SOL    HW263685   8.838  10.320   2.674
20618SOL     OW63686   6.640   9.500  10.684
20618SOL    HW163687   6.708   9.557  10.720
20618SOL    HW263688   6.563   9.557  10.677
20619SOL     OW63689  13.142   5.062   1.048
20619SOL    HW163690  13.178   5.146   1.079
20619SOL    HW263691  13.134   5.072   0.954
20620SOL     OW63692   0.311   8.985   6.785
20620SOL    HW163693   0.361   9.008   6.863
20620SOL    HW263694   0.357   9.028   6.713
20621SOL     OW63695   9.075   7.021   6.938
20621SOL    HW163696   9.001   7.075   6.962
20621SOL    HW263697   9.047   6.931   6.957
20622SOL     OW63698   1.521   6.230   7.016
20622SOL    HW163699   1.487   6.251   7.103
20622SOL    HW263700   1.616   6.247   7.022
20623SOL     OW63701   9.438   0.911   0.509
20623SOL    HW163702   9.426   0.889   0.417
20623SOL    HW263703   9.413   1.003   0.515
20624SOL     OW63704   2.024   7.066   7.680
20624SOL    HW163705   2.061   6.997   7.736
20624SOL    HW263706   1.967   7.020   7.619
20625SOL     OW63707  12.765  12.371  10.675
20625SOL    HW163708  12.817  12.428  10.732
20625SOL    HW263709  12.676  12.407  10.681
20626SOL     OW63710   8.182  10.071   8.085
20626SOL    HW163711   8.213  10.098   8.172
20626SOL    HW263712   8.224   9.986   8.070
20627SOL     OW63713   2.545  11.075   8.584
20627SOL    HW163714   2.618  11.057   8.525
20627SOL    HW263715   2.581  11.135   8.649
20628SOL     OW63716  14.384   8.516  13.555
20628SOL    HW163717  14.289   8.520  13.570
20628SOL    HW263718  14.406   8.603  13.522
20629SOL     OW63719   0.373   8.749   4.211
20629SOL    HW163720   0.417   8.778   4.131
20629SOL    HW263721   0.445   8.733   4.273
20630SOL     OW63722   8.555   6.734   0.875
20630SOL    HW163723   8.463   6.708   0.871
20630SOL    HW263724   8.586   6.699   0.959
20631SOL     OW63725  14.761   0.876  13.733
20631SOL    HW163726  14.821   0.921  13.793
20631SOL    HW263727  14.683   0.858  13.786
20632SOL     OW63728   9.489  11.447   3.884
20632SOL    HW163729   9.419  11.386   3.862
20632SOL    HW263730   9.447  11.513   3.940
20633SOL     OW63731   6.942  13.156   1.022
20633SOL    HW163732   6.885  13.079   1.027
20633SOL    HW263733   6.934  13.198   1.108
20634SOL     OW63734   8.906  13.033   3.199
20634SOL    HW163735   8.928  12.957   3.252
20634SOL    HW263736   8.849  12.999   3.130
20635SOL     OW63737   6.717   3.556  13.957
20635SOL    HW163738   6.763   3.546  13.873
20635SOL    HW263739   6.782   3.593  14.016
20636SOL     OW63740   7.303   0.238  14.585
20636SOL    HW163741   7.379   0.289  14.613
20636SOL    HW263742   7.238   0.303  14.561
20637SOL     OW63743  14.062  13.713  12.714
20637SOL    HW163744  14.001  13.756  12.774
20637SOL    HW263745  14.056  13.765  12.633
20638SOL     OW63746   3.298   0.135   6.925
20638SOL    HW163747   3.264   0.218   6.958
20638SOL    HW263748   3.309   0.081   7.003
20639SOL     OW63749  12.041   0.277  12.205
20639SOL    HW163750  12.006   0.210  12.147
20639SOL    HW263751  12.133   0.256  12.215
20640SOL     OW63752  12.922   6.510  12.417
20640SOL    HW163753  12.953   6.440  12.475
20640SOL    HW263754  12.891   6.578  12.476
20641SOL     OW63755  14.797   2.444   1.754
20641SOL    HW163756  14.734   2.438   1.826
20641SOL    HW263757  14.755   2.502   1.690
20642SOL     OW63758   5.203  12.339   9.593
20642SOL    HW163759   5.182  12.387   9.513
20642SOL    HW263760   5.296  12.359   9.609
20643SOL     OW63761  14.010   1.001  13.123
20643SOL    HW163762  14.022   1.035  13.034
20643SOL    HW263763  13.975   0.913  13.111
20644SOL     OW63764  11.629   5.436   1.136
20644SOL    HW163765  11.688   5.439   1.212
20644SOL    HW263766  11.678   5.390   1.069
20645SOL     OW63767   9.044  10.715  14.565
20645SOL    HW163768   9.046  10.630  14.520
20645SOL    HW263769   8.979  10.704  14.635
20646SOL     OW63770   9.283  11.797  13.253
20646SOL    HW163771   9.262  11.718  13.203
20646SOL    HW263772   9.378  11.801  13.253
20647SOL     OW63773   0.877  11.770   5.835
20647SOL    HW163774   0.898  11.824   5.911
20647SOL    HW263775   0.813  11.822   5.786
20648SOL     OW63776  10.011   8.879   1.438
20648SOL    HW163777  10.015   8.839   1.351
20648SOL    HW263778  10.088   8.934   1.442
20649SOL     OW63779   7.017   8.768   1.027
20649SOL    HW163780   7.031   8.843   1.083
20649SOL    HW263781   6.931   8.783   0.987
20650SOL     OW63782  10.019   9.897   6.980
20650SOL    HW163783  10.018   9.962   7.051
20650SOL    HW263784  10.042   9.947   6.902
20651SOL     OW63785   2.014  11.412   9.847
20651SOL    HW163786   2.016  11.432   9.941
20651SOL    HW263787   2.046  11.322   9.842
20652SOL     OW63788   4.434  13.134   6.312
20652SOL    HW163789   4.501  13.151   6.378
20652SOL    HW263790   4.481  13.136   6.228
20653SOL     OW63791   6.824   6.252   7.673
20653SOL    HW163792   6.885   6.257   7.599
20653SOL    HW263793   6.880   6.250   7.750
20654SOL     OW63794   2.282   9.321   7.916
20654SOL    HW163795   2.355   9.374   7.885
20654SOL    HW263796   2.315   9.231   7.917
20655SOL     OW63797  13.477   9.095  13.715
20655SOL    HW163798  13.444   9.098  13.625
20655SOL    HW263799  13.406   9.055  13.766
20656SOL     OW63800  13.493  11.791  11.320
20656SOL    HW163801  13.409  11.751  11.296
20656SOL    HW263802  13.479  11.824  11.409
20657SOL     OW63803  13.197   6.621  10.444
20657SOL    HW163804  13.210   6.548  10.383
20657SOL    HW263805  13.145   6.685  10.396
20658SOL     OW63806   8.740  11.558  12.347
20658SOL    HW163807   8.830  11.559  12.380
20658SOL    HW263808   8.745  11.602  12.262
20659SOL     OW63809   3.856   7.942   0.330
20659SOL    HW163810   3.833   7.981   0.245
20659SOL    HW263811   3.940   7.981   0.352
20660SOL     OW63812   7.155  11.621  11.626
20660SOL    HW163813   7.102  11.698  11.645
20660SOL    HW263814   7.173  11.583  11.712
20661SOL     OW63815  11.709  11.252   0.195
20661SOL    HW163816  11.680  11.246   0.104
20661SOL    HW263817  11.628  11.261   0.245
20662SOL     OW63818  12.235  10.545   9.956
20662SOL    HW163819  12.155  10.554  10.008
20662SOL    HW263820  12.226  10.460   9.913
20663SOL     OW63821   5.699   7.110   5.207
20663SOL    HW163822   5.667   7.035   5.256
20663SOL    HW263823   5.631   7.176   5.217
20664SOL     OW63824   0.206   0.281  13.761
20664SOL    HW163825   0.162   0.265  13.678
20664SOL    HW263826   0.279   0.340  13.739
20665SOL     OW63827   4.353   5.510   8.265
20665SOL    HW163828   4.377   5.578   8.202
20665SOL    HW263829   4.287   5.457   8.219
20666SOL     OW63830   0.473   7.198   8.853
20666SOL    HW163831   0.562   7.192   8.888
20666SOL    HW263832   0.454   7.292   8.852
20667SOL     OW63833  11.858   2.856  12.228
20667SOL    HW163834  11.946   2.874  12.263
20667SOL    HW263835  11.828   2.780  12.277
20668SOL     OW63836   0.780  14.285  11.530
20668SOL    HW163837   0.838  14.350  11.570
20668SOL    HW263838   0.771  14.216  11.595
20669SOL     OW63839   3.242  11.444   3.328
20669SOL    HW163840   3.217  11.530   3.362
20669SOL    HW263841   3.336  11.451   3.314
20670SOL     OW63842  14.849  10.080   7.488
20670SOL    HW163843  14.808  10.129   7.560
20670SOL    HW263844  14.833  10.134   7.411
20671SOL     OW63845   1.206  10.522   2.487
20671SOL    HW163846   1.235  10.602   2.444
20671SOL    HW263847   1.284  10.488   2.531
20672SOL     OW63848  10.272  12.918  12.965
20672SOL    HW163849  10.241  12.832  12.995
20672SOL    HW263850  10.313  12.900  12.881
20673SOL     OW63851  14.185   3.566  12.202
20673SOL    HW163852  14.142   3.651  12.196
20673SOL    HW263853  14.279   3.587  12.205
20674SOL     OW63854   8.180  10.633  11.711
20674SOL    HW163855   8.266  10.595  11.730
20674SOL    HW263856   8.199  10.716  11.668
20675SOL     OW63857   4.121  11.267   9.675
20675SOL    HW163858   4.077  11.182   9.669
20675SOL    HW263859   4.054  11.330   9.650
20676SOL     OW63860  10.211   0.028   0.403
20676SOL    HW163861  10.226  14.846   0.332
20676SOL    HW263862  10.298   0.045   0.439
20677SOL     OW63863  14.593  14.344  10.829
20677SOL    HW163864  14.679  14.379  10.854
20677SOL    HW263865  14.536  14.365  10.903
20678SOL     OW63866   0.117   4.661   0.505
20678SOL    HW163867   0.090   4.737   0.453
20678SOL    HW263868   0.133   4.592   0.441
20679SOL     OW63869   5.864   1.934   1.306
20679SOL    HW163870   5.863   1.901   1.216
20679SOL    HW263871   5.806   1.875   1.353
20680SOL     OW63872   2.977  13.362  12.316
20680SOL    HW163873   3.043  13.419  12.355
20680SOL    HW263874   2.989  13.373  12.221
20681SOL     OW63875  12.724  10.171   6.553
20681SOL    HW163876  12.630  10.181   6.571
20681SOL    HW263877  12.763  10.252   6.586
20682SOL     OW63878  10.469  11.052   6.061
20682SOL    HW163879  10.385  11.070   6.020
20682SOL    HW263880  10.523  11.128   6.040
20683SOL     OW63881   9.788   9.307   2.830
20683SOL    HW163882   9.742   9.388   2.851
20683SOL    HW263883   9.802   9.264   2.915
20684SOL     OW63884  10.373  10.521   5.239
20684SOL    HW163885  10.311  10.588   5.211
20684SOL    HW263886  10.414  10.491   5.158
20685SOL     OW63887   1.552   5.204   2.850
20685SOL    HW163888   1.496   5.161   2.786
20685SOL    HW263889   1.579   5.286   2.808
20686SOL     OW63890   8.482   7.065   3.055
20686SOL    HW163891   8.576   7.058   3.071
20686SOL    HW263892   8.443   6.998   3.112
20687SOL     OW63893  14.512   6.484   8.007
20687SOL    HW163894  14.438   6.533   8.042
20687SOL    HW263895  14.557   6.546   7.949
20688SOL     OW63896   5.521   7.931   8.449
20688SOL    HW163897   5.594   7.982   8.415
20688SOL    HW263898   5.509   7.963   8.539
20689SOL     OW63899   0.524  10.245   9.073
20689SOL    HW163900   0.506  10.236   8.979
20689SOL    HW263901   0.591  10.314   9.078
20690SOL     OW63902   2.055   4.950   2.530
20690SOL    HW163903   1.998   4.874   2.514
20690SOL    HW263904   2.144   4.915   2.524
20691SOL     OW63905   8.972   6.792   2.059
20691SOL    HW163906   8.996   6.860   2.122
20691SOL    HW263907   8.921   6.838   1.992
20692SOL     OW63908   8.245   7.163   2.553
20692SOL    HW163909   8.331   7.205   2.554
20692SOL    HW263910   8.261   7.075   2.587
20693SOL     OW63911   1.235   4.218  12.282
20693SOL    HW163912   1.284   4.147  12.323
20693SOL    HW263913   1.151   4.218  12.326
20694SOL     OW63914   9.098   1.195   4.189
20694SOL    HW163915   9.167   1.228   4.132
20694SOL    HW263916   9.117   1.233   4.275
20695SOL     OW63917   5.995   1.108   2.319
20695SOL    HW163918   6.046   1.189   2.318
20695SOL    HW263919   6.059   1.039   2.338
20696SOL     OW63920   5.771   5.133   0.400
20696SOL    HW163921   5.726   5.094   0.475
20696SOL    HW263922   5.711   5.121   0.326
20697SOL     OW63923   0.732   4.286   8.599
20697SOL    HW163924   0.689   4.275   8.684
20697SOL    HW263925   0.745   4.380   8.589
20698SOL     OW63926  12.718   2.853   8.415
20698SOL    HW163927  12.743   2.773   8.461
20698SOL    HW263928  12.704   2.826   8.325
20699SOL     OW63929  14.258   7.374   0.773
20699SOL    HW163930  14.210   7.456   0.772
20699SOL    HW263931  14.237   7.334   0.857
20700SOL     OW63932   4.987  14.098   5.531
20700SOL    HW163933   4.987  14.036   5.603
20700SOL    HW263934   5.073  14.087   5.489
20701SOL     OW63935   7.220   1.046  13.530
20701SOL    HW163936   7.172   0.967  13.551
20701SOL    HW263937   7.280   1.020  13.460
20702SOL     OW63938   7.215   2.166   1.339
20702SOL    HW163939   7.147   2.207   1.286
20702SOL    HW263940   7.293   2.168   1.284
20703SOL     OW63941   5.007   9.122   5.252
20703SOL    HW163942   4.939   9.180   5.288
20703SOL    HW263943   4.959   9.060   5.197
20704SOL     OW63944  10.958   4.095   7.218
20704SOL    HW163945  10.959   4.046   7.136
20704SOL    HW263946  10.909   4.175   7.198
20705SOL     OW63947   1.772   7.399   2.716
20705SOL    HW163948   1.787   7.422   2.807
20705SOL    HW263949   1.699   7.454   2.688
20706SOL     OW63950   6.381  11.825   9.876
20706SOL    HW163951   6.443  11.880   9.925
20706SOL    HW263952   6.297  11.869   9.886
20707SOL     OW63953   1.638   2.263   6.601
20707SOL    HW163954   1.695   2.214   6.660
20707SOL    HW263955   1.551   2.229   6.617
20708SOL     OW63956   8.623   0.888   6.332
20708SOL    HW163957   8.657   0.940   6.258
20708SOL    HW263958   8.653   0.799   6.314
20709SOL     OW63959   4.202  10.373  12.335
20709SOL    HW163960   4.156  10.446  12.377
20709SOL    HW263961   4.288  10.409  12.314
20710SOL     OW63962   6.803  10.277  10.209
20710SOL    HW163963   6.783  10.271  10.116
20710SOL    HW263964   6.783  10.191  10.244
20711SOL     OW63965   0.648   5.247  14.149
20711SOL    HW163966   0.675   5.226  14.238
20711SOL    HW263967   0.715   5.208  14.094
20712SOL     OW63968   7.389   3.236  14.763
20712SOL    HW163969   7.324   3.276  14.705
20712SOL    HW263970   7.406   3.150  14.724
20713SOL     OW63971   3.066  10.955  13.712
20713SOL    HW163972   2.976  10.959  13.744
20713SOL    HW263973   3.096  11.046  13.713
20714SOL     OW63974   2.864  12.691   2.000
20714SOL    HW163975   2.805  12.763   1.979
20714SOL    HW263976   2.922  12.726   2.068
20715SOL     OW63977   1.494   1.642  13.388
20715SOL    HW163978   1.443   1.628  13.468
20715SOL    HW263979   1.573   1.589  13.400
20716SOL     OW63980   6.769   9.950  12.098
20716SOL    HW163981   6.798  10.042  12.096
20716SOL    HW263982   6.687   9.950  12.048
20717SOL     OW63983  12.356  10.212  10.825
20717SOL    HW163984  12.263  10.196  10.840
20717SOL    HW263985  12.358  10.263  10.743
20718SOL     OW63986  13.041   9.619   0.508
20718SOL    HW163987  13.048   9.701   0.460
20718SOL    HW263988  12.958   9.625   0.555
20719SOL     OW63989   8.001  11.051  12.993
20719SOL    HW163990   8.077  11.087  13.039
20719SOL    HW263991   7.991  10.963  13.030
20720SOL     OW63992   1.149   2.810   9.685
20720SOL    HW163993   1.113   2.779   9.602
20720SOL    HW263994   1.144   2.906   9.678
20721SOL     OW63995   9.306   8.330   2.093
20721SOL    HW163996   9.339   8.312   2.182
20721SOL    HW263997   9.343   8.416   2.071
20722SOL     OW63998  12.911   8.009  10.685
20722SOL    HW163999  12.932   8.032  10.594
20722SOL    HW264000  12.833   8.060  10.706
20723SOL     OW64001   2.910  14.147   2.224
20723SOL    HW164002   2.974  14.218   2.224
20723SOL    HW264003   2.826  14.191   2.241
20724SOL     OW64004   5.459  12.157   1.387
20724SOL    HW164005   5.412  12.108   1.454
20724SOL    HW264006   5.446  12.107   1.307
20725SOL     OW64007  10.140   4.858   4.633
20725SOL    HW164008  10.090   4.919   4.579
20725SOL    HW264009  10.231   4.869   4.605
20726SOL     OW64010  11.797   1.116   3.129
20726SOL    HW164011  11.741   1.175   3.179
20726SOL    HW264012  11.882   1.159   3.127
20727SOL     OW64013   5.142   4.929  10.098
20727SOL    HW164014   5.117   5.021  10.104
20727SOL    HW264015   5.071   4.882  10.142
20728SOL     OW64016   8.294  14.485   7.381
20728SOL    HW164017   8.305  14.485   7.286
20728SOL    HW264018   8.328  14.400   7.410
20729SOL     OW64019   8.169   4.189   0.823
20729SOL    HW164020   8.130   4.244   0.755
20729SOL    HW264021   8.164   4.100   0.789
20730SOL     OW64022   2.433  10.335   7.325
20730SOL    HW164023   2.340  10.357   7.324
20730SOL    HW264024   2.460  10.336   7.234
20731SOL     OW64025  14.675   1.983  11.393
20731SOL    HW164026  14.685   2.075  11.419
20731SOL    HW264027  14.580   1.970  11.390
20732SOL     OW64028   7.271   9.806   9.872
20732SOL    HW164029   7.212   9.755   9.928
20732SOL    HW264030   7.288   9.749   9.797
20733SOL     OW64031   1.797   2.715  14.380
20733SOL    HW164032   1.718   2.762  14.355
20733SOL    HW264033   1.869   2.773  14.354
20734SOL     OW64034   1.714  12.907  11.668
20734SOL    HW164035   1.758  12.948  11.742
20734SOL    HW264036   1.703  12.816  11.694
20735SOL     OW64037  13.819   3.651  12.470
20735SOL    HW164038  13.746   3.636  12.530
20735SOL    HW264039  13.894   3.608  12.512
20736SOL     OW64040  12.421   0.059   2.212
20736SOL    HW164041  12.502   0.077   2.164
20736SOL    HW264042  12.446  14.872   2.276
20737SOL     OW64043  11.683  13.605   1.803
20737SOL    HW164044  11.715  13.523   1.841
20737SOL    HW264045  11.601  13.622   1.850
20738SOL     OW64046  13.762   9.553   7.463
20738SOL    HW164047  13.822   9.496   7.414
20738SOL    HW264048  13.812   9.577   7.541
20739SOL     OW64049   5.407  14.306   8.572
20739SOL    HW164050   5.373  14.356   8.646
20739SOL    HW264051   5.491  14.271   8.603
20740SOL     OW64052  14.306   4.501   8.994
20740SOL    HW164053  14.215   4.483   8.970
20740SOL    HW264054  14.303   4.520   9.087
20741SOL     OW64055   3.721   3.279   2.251
20741SOL    HW164056   3.639   3.321   2.275
20741SOL    HW264057   3.732   3.300   2.158
20742SOL     OW64058   9.062   2.462  10.407
20742SOL    HW164059   9.015   2.401  10.465
20742SOL    HW264060   9.147   2.421  10.394
20743SOL     OW64061   4.140  14.861  13.109
20743SOL    HW164062   4.235  14.873  13.101
20743SOL    HW264063   4.107  14.876  13.020
20744SOL     OW64064  11.789  12.553   7.578
20744SOL    HW164065  11.747  12.621   7.526
20744SOL    HW264066  11.725  12.533   7.647
20745SOL     OW64067   0.148  12.392   7.458
20745SOL    HW164068   0.150  12.318   7.397
20745SOL    HW264069   0.240  12.413   7.473
20746SOL     OW64070   3.861  11.574   9.416
20746SOL    HW164071   3.839  11.591   9.325
20746SOL    HW264072   3.919  11.498   9.413
20747SOL     OW64073  14.081   8.867   3.017
20747SOL    HW164074  14.164   8.906   2.991
20747SOL    HW264075  14.040   8.932   3.074
20748SOL     OW64076   2.390   7.302   6.711
20748SOL    HW164077   2.452   7.351   6.764
20748SOL    HW264078   2.445   7.242   6.660
20749SOL     OW64079   8.606   2.697   3.210
20749SOL    HW164080   8.689   2.685   3.256
20749SOL    HW264081   8.561   2.765   3.259
20750SOL     OW64082   7.474   4.523   3.706
20750SOL    HW164083   7.547   4.520   3.768
20750SOL    HW264084   7.398   4.499   3.759
20751SOL     OW64085  10.592  14.446   4.057
20751SOL    HW164086  10.657  14.432   4.127
20751SOL    HW264087  10.643  14.439   3.976
20752SOL     OW64088   3.254   1.132   8.006
20752SOL    HW164089   3.289   1.043   8.012
20752SOL    HW264090   3.211   1.147   8.090
20753SOL     OW64091   4.468   7.108   7.165
20753SOL    HW164092   4.559   7.137   7.164
20753SOL    HW264093   4.470   7.020   7.203
20754SOL     OW64094  14.006   3.837  12.368
20754SOL    HW164095  14.011   3.823  12.273
20754SOL    HW264096  13.944   3.770  12.398
20755SOL     OW64097   6.042   4.978  10.909
20755SOL    HW164098   6.093   4.901  10.884
20755SOL    HW264099   6.073   5.047  10.850
20756SOL     OW64100  12.819   7.391   4.881
20756SOL    HW164101  12.848   7.422   4.966
20756SOL    HW264102  12.775   7.308   4.899
20757SOL     OW64103  13.731  11.166  10.741
20757SOL    HW164104  13.641  11.133  10.749
20757SOL    HW264105  13.723  11.261  10.745
20758SOL     OW64106  12.954   3.522   6.440
20758SOL    HW164107  12.976   3.442   6.394
20758SOL    HW264108  13.034   3.547   6.486
20759SOL     OW64109   9.554   7.443   3.613
20759SOL    HW164110   9.545   7.382   3.687
20759SOL    HW264111   9.572   7.386   3.538
20760SOL     OW64112   4.615   0.481  11.246
20760SOL    HW164113   4.663   0.554  11.208
20760SOL    HW264114   4.675   0.407  11.239
20761SOL     OW64115   8.148  10.682   8.650
20761SOL    HW164116   8.176  10.773   8.653
20761SOL    HW264117   8.180  10.649   8.566
20762SOL     OW64118   1.345   2.527  12.381
20762SOL    HW164119   1.362   2.433  12.394
20762SOL    HW264120   1.348   2.539  12.286
20763SOL     OW64121  12.893   2.700   6.482
20763SOL    HW164122  12.914   2.685   6.574
20763SOL    HW264123  12.812   2.751   6.484
20764SOL     OW64124   4.787  11.884  10.955
20764SOL    HW164125   4.699  11.871  10.989
20764SOL    HW264126   4.844  11.844  11.021
20765SOL     OW64127   8.127   3.731   2.072
20765SOL    HW164128   8.094   3.803   2.124
20765SOL    HW264129   8.221   3.728   2.090
20766SOL     OW64130  11.361  11.525   7.674
20766SOL    HW164131  11.277  11.565   7.650
20766SOL    HW264132  11.338  11.438   7.707
20767SOL     OW64133   1.381   3.498  10.354
20767SOL    HW164134   1.356   3.451  10.275
20767SOL    HW264135   1.412   3.430  10.414
20768SOL     OW64136   8.593  13.321   2.717
20768SOL    HW164137   8.509  13.314   2.672
20768SOL    HW264138   8.571  13.341   2.808
20769SOL     OW64139   2.486  14.596  14.399
20769SOL    HW164140   2.549  14.659  14.436
20769SOL    HW264141   2.496  14.604  14.305
20770SOL     OW64142   7.083   6.719   9.212
20770SOL    HW164143   7.037   6.667   9.277
20770SOL    HW264144   7.013   6.755   9.156
20771SOL     OW64145  12.524  11.551   4.495
20771SOL    HW164146  12.589  11.616   4.522
20771SOL    HW264147  12.577  11.479   4.459
20772SOL     OW64148  11.859   9.199   4.199
20772SOL    HW164149  11.850   9.262   4.128
20772SOL    HW264150  11.771   9.190   4.235
20773SOL     OW64151   9.316   5.762  13.581
20773SOL    HW164152   9.311   5.697  13.651
20773SOL    HW264153   9.406   5.796  13.587
20774SOL     OW64154  13.200   3.977   4.347
20774SOL    HW164155  13.294   3.990   4.362
20774SOL    HW264156  13.175   3.912   4.413
20775SOL     OW64157   9.721  12.446   3.958
20775SOL    HW164158   9.806  12.490   3.958
20775SOL    HW264159   9.725  12.387   4.033
20776SOL     OW64160   0.301   2.790   5.650
20776SOL    HW164161   0.257   2.760   5.730
20776SOL    HW264162   0.373   2.844   5.681
20777SOL     OW64163  12.354  12.893  11.144
20777SOL    HW164164  12.433  12.841  11.134
20777SOL    HW264165  12.343  12.937  11.060
20778SOL     OW64166   4.081   8.011   0.431
20778SOL    HW164167   4.118   8.057   0.506
20778SOL    HW264168   4.124   7.926   0.431
20779SOL     OW64169   4.158  14.543   2.002
20779SOL    HW164170   4.064  14.528   2.011
20779SOL    HW264171   4.183  14.490   1.926
20780SOL     OW64172   4.912  14.689   4.337
20780SOL    HW164173   4.878  14.640   4.411
20780SOL    HW264174   4.961  14.761   4.376
20781SOL     OW64175  11.230   5.208  10.435
20781SOL    HW164176  11.298   5.182  10.497
20781SOL    HW264177  11.150   5.213  10.487
20782SOL     OW64178   7.992  11.030   0.945
20782SOL    HW164179   8.068  10.973   0.930
20782SOL    HW264180   7.967  11.060   0.858
20783SOL     OW64181   3.051   9.496  13.471
20783SOL    HW164182   3.113   9.425  13.485
20783SOL    HW264183   3.105   9.575  13.473
20784SOL     OW64184   4.945  11.243   8.361
20784SOL    HW164185   4.997  11.320   8.340
20784SOL    HW264186   5.009  11.173   8.376
20785SOL     OW64187   7.313  14.300   8.898
20785SOL    HW164188   7.257  14.261   8.966
20785SOL    HW264189   7.383  14.236   8.886
20786SOL     OW64190  11.139   7.379   0.758
20786SOL    HW164191  11.164   7.345   0.672
20786SOL    HW264192  11.222   7.405   0.798
20787SOL     OW64193   6.621  11.378   8.700
20787SOL    HW164194   6.657  11.312   8.760
20787SOL    HW264195   6.533  11.395   8.733
20788SOL     OW64196  11.577  11.961   1.608
20788SOL    HW164197  11.615  12.030   1.554
20788SOL    HW264198  11.651  11.922   1.654
20789SOL     OW64199  14.326  14.111   6.830
20789SOL    HW164200  14.335  14.138   6.738
20789SOL    HW264201  14.270  14.033   6.826
20790SOL     OW64202   0.052   2.774   3.457
20790SOL    HW164203  14.865   2.827   3.412
20790SOL    HW264204   0.005   2.735   3.531
20791SOL     OW64205   4.793   4.556   5.301
20791SOL    HW164206   4.745   4.552   5.383
20791SOL    HW264207   4.726   4.567   5.234
20792SOL     OW64208   7.063  14.382  11.932
20792SOL    HW164209   7.033  14.403  12.020
20792SOL    HW264210   6.989  14.404  11.875
20793SOL     OW64211   2.846   3.886   3.000
20793SOL    HW164212   2.914   3.953   3.000
20793SOL    HW264213   2.886   3.810   2.958
20794SOL     OW64214   3.692   4.103   6.711
20794SOL    HW164215   3.703   4.178   6.771
20794SOL    HW264216   3.602   4.075   6.726
20795SOL     OW64217  13.314  11.082   5.621
20795SOL    HW164218  13.276  11.156   5.669
20795SOL    HW264219  13.242  11.020   5.612
20796SOL     OW64220  10.895  11.871  11.257
20796SOL    HW164221  10.810  11.843  11.292
20796SOL    HW264222  10.937  11.789  11.231
20797SOL     OW64223  14.582   5.685  10.442
20797SOL    HW164224  14.499   5.639  10.455
20797SOL    HW264225  14.649   5.618  10.452
20798SOL     OW64226  11.019   9.411   5.755
20798SOL    HW164227  11.082   9.453   5.813
20798SOL    HW264228  10.938   9.410   5.805
20799SOL     OW64229  13.044  10.033   8.589
20799SOL    HW164230  13.066  10.066   8.676
20799SOL    HW264231  13.085   9.946   8.586
20800SOL     OW64232   7.169   7.869   8.319
20800SOL    HW164233   7.248   7.830   8.356
20800SOL    HW264234   7.127   7.913   8.393
20801SOL     OW64235   8.528   2.394   4.986
20801SOL    HW164236   8.489   2.370   4.901
20801SOL    HW264237   8.616   2.356   4.983
20802SOL     OW64238  12.280  12.466   0.788
20802SOL    HW164239  12.368  12.497   0.766
20802SOL    HW264240  12.235  12.460   0.704
20803SOL     OW64241  10.383   1.165   2.188
20803SOL    HW164242  10.454   1.149   2.125
20803SOL    HW264243  10.407   1.111   2.264
20804SOL     OW64244   0.467   4.765   8.096
20804SOL    HW164245   0.429   4.851   8.078
20804SOL    HW264246   0.549   4.765   8.046
20805SOL     OW64247  10.349   3.977   2.427
20805SOL    HW164248  10.254   3.987   2.423
20805SOL    HW264249  10.363   3.885   2.446
20806SOL     OW64250  11.578   0.821   2.241
20806SOL    HW164251  11.597   0.891   2.179
20806SOL    HW264252  11.579   0.741   2.189
20807SOL     OW64253   5.214  14.118  11.322
20807SOL    HW164254   5.260  14.096  11.402
20807SOL    HW264255   5.200  14.213  11.327
20808SOL     OW64256   9.645   2.714  11.216
20808SOL    HW164257   9.640   2.809  11.214
20808SOL    HW264258   9.703   2.691  11.143
20809SOL     OW64259   5.361  13.952  11.672
20809SOL    HW164260   5.424  14.022  11.652
20809SOL    HW264261   5.415  13.877  11.697
20810SOL     OW64262   6.922   5.029   3.460
20810SOL    HW164263   6.975   5.108   3.462
20810SOL    HW264264   6.961   4.972   3.526
20811SOL     OW64265  11.333   3.450   7.259
20811SOL    HW164266  11.349   3.543   7.274
20811SOL    HW264267  11.393   3.426   7.188
20812SOL     OW64268  12.644   2.314   2.482
20812SOL    HW164269  12.671   2.228   2.450
20812SOL    HW264270  12.673   2.315   2.573
20813SOL     OW64271   6.434  11.472   8.419
20813SOL    HW164272   6.344  11.439   8.415
20813SOL    HW264273   6.482  11.420   8.355
20814SOL     OW64274   5.105   8.504   0.038
20814SOL    HW164275   5.174   8.501   0.105
20814SOL    HW264276   5.146   8.465  14.840
20815SOL     OW64277   9.680   0.335  14.279
20815SOL    HW164278   9.725   0.290  14.351
20815SOL    HW264279   9.746   0.343  14.211
20816SOL     OW64280  13.004   7.060   5.049
20816SOL    HW164281  12.940   7.037   5.117
20816SOL    HW264282  13.045   7.140   5.082
20817SOL     OW64283   7.956   5.096  11.966
20817SOL    HW164284   7.900   5.166  11.998
20817SOL    HW264285   7.895   5.032  11.929
20818SOL     OW64286   1.819  14.876   5.961
20818SOL    HW164287   1.850   0.055   6.031
20818SOL    HW264288   1.832   0.048   5.881
20819SOL     OW64289   7.851   0.342   6.714
20819SOL    HW164290   7.935   0.377   6.746
20819SOL    HW264291   7.842   0.258   6.759
20820SOL     OW64292  14.677   1.174   8.921
20820SOL    HW164293  14.708   1.197   9.009
20820SOL    HW264294  14.624   1.095   8.934
20821SOL     OW64295   5.637  14.817   1.679
20821SOL    HW164296   5.626  14.745   1.617
20821SOL    HW264297   5.593  14.787   1.758
20822SOL     OW64298   8.203   0.062  10.036
20822SOL    HW164299   8.196   0.116  10.115
20822SOL    HW264300   8.287   0.017  10.045
20823SOL     OW64301  10.420   8.387  11.453
20823SOL    HW164302  10.348   8.362  11.512
20823SOL    HW264303  10.407   8.480  11.436
20824SOL     OW64304   0.961   6.577   3.010
20824SOL    HW164305   1.026   6.525   2.962
20824SOL    HW264306   1.000   6.664   3.017
20825SOL     OW64307   0.563   3.032   2.852
20825SOL    HW164308   0.516   2.967   2.904
20825SOL    HW264309   0.554   3.113   2.902
20826SOL     OW64310  11.896   8.822   3.455
20826SOL    HW164311  11.983   8.833   3.492
20826SOL    HW264312  11.839   8.877   3.508
20827SOL     OW64313  10.476  11.791   9.016
20827SOL    HW164314  10.433  11.772   9.100
20827SOL    HW264315  10.423  11.861   8.978
20828SOL     OW64316   4.228   3.092   6.511
20828SOL    HW164317   4.145   3.068   6.471
20828SOL    HW264318   4.294   3.041   6.464
20829SOL     OW64319   5.276   2.082   3.145
20829SOL    HW164320   5.311   2.162   3.106
20829SOL    HW264321   5.226   2.111   3.221
20830SOL     OW64322   6.086   5.947   4.170
20830SOL    HW164323   6.051   5.943   4.260
20830SOL    HW264324   6.045   5.873   4.126
20831SOL     OW64325  10.410   0.100  13.956
20831SOL    HW164326  10.458   0.108  14.039
20831SOL    HW264327  10.348   0.028  13.972
20832SOL     OW64328   4.768   8.509  13.431
20832SOL    HW164329   4.775   8.541  13.341
20832SOL    HW264330   4.675   8.485  13.441
20833SOL     OW64331  12.141  12.280   0.346
20833SOL    HW164332  12.084  12.335   0.292
20833SOL    HW264333  12.083  12.213   0.382
20834SOL     OW64334   7.203  11.720   3.138
20834SOL    HW164335   7.295  11.703   3.119
20834SOL    HW264336   7.193  11.815   3.126
20835SOL     OW64337   2.809   8.403  14.238
20835SOL    HW164338   2.752   8.333  14.205
20835SOL    HW264339   2.749   8.474  14.262
20836SOL     OW64340  11.831   3.021  14.740
20836SOL    HW164341  11.897   3.090  14.732
20836SOL    HW264342  11.863   2.951  14.683
20837SOL     OW64343  11.880   8.631   6.924
20837SOL    HW164344  11.969   8.596   6.921
20837SOL    HW264345  11.834   8.577   6.988
20838SOL     OW64346   8.729   0.493   0.360
20838SOL    HW164347   8.769   0.526   0.440
20838SOL    HW264348   8.803   0.464   0.306
20839SOL     OW64349   0.723   4.990  10.274
20839SOL    HW164350   0.767   5.049  10.335
20839SOL    HW264351   0.751   4.902  10.301
20840SOL     OW64352   4.449   9.562  12.487
20840SOL    HW164353   4.370   9.590  12.441
20840SOL    HW264354   4.503   9.522  12.419
20841SOL     OW64355   1.745  12.164  14.753
20841SOL    HW164356   1.663  12.195  14.791
20841SOL    HW264357   1.803  12.153  14.828
20842SOL     OW64358   1.652  10.609  10.334
20842SOL    HW164359   1.712  10.549  10.289
20842SOL    HW264360   1.704  10.688  10.348
20843SOL     OW64361   0.629   8.859   0.810
20843SOL    HW164362   0.660   8.793   0.748
20843SOL    HW264363   0.555   8.901   0.765
20844SOL     OW64364  12.746  14.587  10.187
20844SOL    HW164365  12.708  14.594  10.100
20844SOL    HW264366  12.821  14.528  10.177
20845SOL     OW64367   0.714  14.309   7.959
20845SOL    HW164368   0.710  14.404   7.948
20845SOL    HW264369   0.807  14.288   7.959
20846SOL     OW64370   7.642   5.296  10.651
20846SOL    HW164371   7.736   5.287  10.638
20846SOL    HW264372   7.630   5.290  10.746
20847SOL     OW64373  10.525   5.024   8.922
20847SOL    HW164374  10.439   5.066   8.922
20847SOL    HW264375  10.508   4.935   8.891
20848SOL     OW64376  13.857   2.679  14.418
20848SOL    HW164377  13.781   2.695  14.361
20848SOL    HW264378  13.826   2.699  14.506
20849SOL     OW64379   8.846   7.294   5.952
20849SOL    HW164380   8.893   7.295   5.869
20849SOL    HW264381   8.910   7.323   6.017
20850SOL     OW64382  13.902   5.332   8.111
20850SOL    HW164383  13.844   5.396   8.069
20850SOL    HW264384  13.958   5.385   8.168
20851SOL     OW64385   3.802  10.181  12.864
20851SOL    HW164386   3.847  10.113  12.915
20851SOL    HW264387   3.716  10.144  12.846
20852SOL     OW64388   8.809  10.801  11.882
20852SOL    HW164389   8.762  10.852  11.949
20852SOL    HW264390   8.758  10.721  11.872
20853SOL     OW64391   1.638   5.007   1.680
20853SOL    HW164392   1.698   5.081   1.668
20853SOL    HW264393   1.694   4.935   1.710
20854SOL     OW64394  10.479   5.226   8.581
20854SOL    HW164395  10.402   5.177   8.610
20854SOL    HW264396  10.463   5.244   8.488
20855SOL     OW64397   4.121  11.760   1.357
20855SOL    HW164398   4.056  11.701   1.320
20855SOL    HW264399   4.078  11.796   1.435
20856SOL     OW64400  12.371   9.324   7.810
20856SOL    HW164401  12.345   9.277   7.731
20856SOL    HW264402  12.296   9.315   7.869
20857SOL     OW64403   6.001   8.726   5.636
20857SOL    HW164404   5.946   8.688   5.705
20857SOL    HW264405   6.085   8.681   5.645
20858SOL     OW64406   5.287   7.553   5.834
20858SOL    HW164407   5.370   7.507   5.826
20858SOL    HW264408   5.310   7.645   5.822
20859SOL     OW64409  13.574  10.083  14.533
20859SOL    HW164410  13.570  10.019  14.603
20859SOL    HW264411  13.551  10.166  14.575
20860SOL     OW64412  12.060   6.572   0.362
20860SOL    HW164413  12.082   6.559   0.270
20860SOL    HW264414  11.993   6.506   0.380
20861SOL     OW64415   5.100  12.692   9.483
20861SOL    HW164416   5.175  12.711   9.426
20861SOL    HW264417   5.138  12.681   9.570
20862SOL     OW64418   2.501   3.627   3.043
20862SOL    HW164419   2.588   3.623   3.084
20862SOL    HW264420   2.471   3.716   3.058
20863SOL     OW64421   1.774   6.580   2.778
20863SOL    HW164422   1.710   6.508   2.774
20863SOL    HW264423   1.858   6.538   2.758
20864SOL     OW64424   9.376  12.063   7.101
20864SOL    HW164425   9.469  12.085   7.109
20864SOL    HW264426   9.374  11.988   7.042
20865SOL     OW64427  13.729   7.312   8.177
20865SOL    HW164428  13.687   7.327   8.261
20865SOL    HW264429  13.662   7.334   8.112
20866SOL     OW64430   6.863  12.789   2.590
20866SOL    HW164431   6.778  12.802   2.548
20866SOL    HW264432   6.919  12.756   2.520
20867SOL     OW64433  10.839   7.277   3.202
20867SOL    HW164434  10.935   7.275   3.212
20867SOL    HW264435  10.824   7.254   3.111
20868SOL     OW64436   0.315   1.526   8.536
20868SOL    HW164437   0.272   1.599   8.492
20868SOL    HW264438   0.326   1.460   8.468
20869SOL     OW64439   7.191   0.304   6.531
20869SOL    HW164440   7.113   0.274   6.485
20869SOL    HW264441   7.264   0.265   6.483
20870SOL     OW64442   9.166  12.972   0.678
20870SOL    HW164443   9.159  12.883   0.712
20870SOL    HW264444   9.088  12.984   0.624
20871SOL     OW64445   1.178   8.676  13.298
20871SOL    HW164446   1.229   8.659  13.378
20871SOL    HW264447   1.237   8.728  13.243
20872SOL     OW64448  10.274   8.193   2.939
20872SOL    HW164449  10.333   8.166   2.869
20872SOL    HW264450  10.329   8.241   3.000
20873SOL     OW64451   1.967  11.387  10.611
20873SOL    HW164452   2.048  11.425  10.644
20873SOL    HW264453   1.996  11.318  10.551
20874SOL     OW64454  11.919  13.814   4.290
20874SOL    HW164455  11.850  13.858   4.341
20874SOL    HW264456  11.991  13.877   4.289
20875SOL     OW64457   9.925   5.120   1.789
20875SOL    HW164458  10.013   5.148   1.763
20875SOL    HW264459   9.878   5.110   1.707
20876SOL     OW64460   6.920  10.363  13.542
20876SOL    HW164461   6.895  10.368  13.450
20876SOL    HW264462   6.947  10.272  13.554
20877SOL     OW64463  14.815   6.177   7.746
20877SOL    HW164464  14.799   6.260   7.791
20877SOL    HW264465  14.830   6.114   7.817
20878SOL     OW64466   7.106  13.112   5.350
20878SOL    HW164467   7.166  13.046   5.315
20878SOL    HW264468   7.089  13.083   5.440
20879SOL     OW64469  10.290   4.139   8.575
20879SOL    HW164470  10.327   4.069   8.630
20879SOL    HW264471  10.222   4.095   8.523
20880SOL     OW64472  13.733   8.551   3.201
20880SOL    HW164473  13.677   8.615   3.245
20880SOL    HW264474  13.750   8.589   3.114
20881SOL     OW64475   1.105  13.533   8.199
20881SOL    HW164476   1.050  13.587   8.256
20881SOL    HW264477   1.177  13.504   8.256
20882SOL     OW64478  10.043   8.084   9.201
20882SOL    HW164479  10.138   8.086   9.210
20882SOL    HW264480  10.025   8.002   9.154
20883SOL     OW64481   5.094   5.792   3.648
20883SOL    HW164482   5.096   5.796   3.743
20883SOL    HW264483   5.004   5.765   3.627
20884SOL     OW64484  11.086   1.533   0.824
20884SOL    HW164485  11.002   1.544   0.778
20884SOL    HW264486  11.107   1.621   0.857
20885SOL     OW64487   8.477  12.677  13.966
20885SOL    HW164488   8.535  12.621  14.017
20885SOL    HW264489   8.483  12.643  13.876
20886SOL     OW64490   8.161   3.658   0.035
20886SOL    HW164491   8.239   3.617   0.071
20886SOL    HW264492   8.155   3.623  14.825
20887SOL     OW64493   3.801   1.942   6.260
20887SOL    HW164494   3.721   1.891   6.243
20887SOL    HW264495   3.849   1.940   6.178
20888SOL     OW64496   3.384  13.641  14.422
20888SOL    HW164497   3.413  13.608  14.507
20888SOL    HW264498   3.358  13.563  14.374
20889SOL     OW64499   7.962   9.758   3.617
20889SOL    HW164500   8.004   9.679   3.652
20889SOL    HW264501   8.031   9.824   3.617
20890SOL     OW64502  11.066   1.761   4.093
20890SOL    HW164503  11.011   1.758   4.171
20890SOL    HW264504  11.015   1.714   4.026
20891SOL     OW64505  10.609  14.877   6.824
20891SOL    HW164506  10.626   0.084   6.862
20891SOL    HW264507  10.684  14.862   6.766
20892SOL     OW64508   2.968   7.269   6.744
20892SOL    HW164509   2.878   7.275   6.712
20892SOL    HW264510   3.004   7.357   6.733
20893SOL     OW64511   2.658  12.722  14.287
20893SOL    HW164512   2.738  12.706  14.337
20893SOL    HW264513   2.626  12.635  14.264
20894SOL     OW64514   0.675  14.379   2.004
20894SOL    HW164515   0.705  14.448   1.944
20894SOL    HW264516   0.702  14.410   2.091
20895SOL     OW64517   0.127   8.942   4.133
20895SOL    HW164518   0.115   9.017   4.192
20895SOL    HW264519   0.074   8.963   4.056
20896SOL     OW64520   9.306  14.134  11.456
20896SOL    HW164521   9.292  14.045  11.422
20896SOL    HW264522   9.284  14.191  11.382
20897SOL     OW64523   5.510   5.040  12.447
20897SOL    HW164524   5.446   5.007  12.385
20897SOL    HW264525   5.528   5.130  12.418
20898SOL     OW64526  14.317  14.345   8.980
20898SOL    HW164527  14.407  14.379   8.980
20898SOL    HW264528  14.285  14.363   8.891
20899SOL     OW64529  11.026   1.430   1.470
20899SOL    HW164530  11.066   1.370   1.532
20899SOL    HW264531  10.969   1.485   1.524
20900SOL     OW64532   5.717   3.327   2.526
20900SOL    HW164533   5.660   3.377   2.468
20900SOL    HW264534   5.657   3.272   2.577
20901SOL     OW64535   6.283   2.525   3.721
20901SOL    HW164536   6.300   2.585   3.795
20901SOL    HW264537   6.340   2.450   3.738
20902SOL     OW64538   0.301  13.816   1.070
20902SOL    HW164539   0.332  13.735   1.109
20902SOL    HW264540   0.376  13.875   1.075
20903SOL     OW64541   3.507   1.878   7.983
20903SOL    HW164542   3.537   1.968   7.970
20903SOL    HW264543   3.581   1.834   8.025
20904SOL     OW64544   7.465   1.564   6.804
20904SOL    HW164545   7.470   1.636   6.741
20904SOL    HW264546   7.512   1.597   6.881
20905SOL     OW64547   3.846  10.941  12.985
20905SOL    HW164548   3.760  10.961  12.949
20905SOL    HW264549   3.884  11.026  13.006
20906SOL     OW64550   4.768  12.964   3.516
20906SOL    HW164551   4.749  13.040   3.572
20906SOL    HW264552   4.683  12.922   3.503
20907SOL     OW64553   7.323   0.253   9.812
20907SOL    HW164554   7.407   0.249   9.767
20907SOL    HW264555   7.300   0.346   9.812
20908SOL     OW64556   2.517  10.737   4.928
20908SOL    HW164557   2.438  10.789   4.940
20908SOL    HW264558   2.485  10.652   4.896
20909SOL     OW64559   5.093  12.273   8.449
20909SOL    HW164560   5.069  12.186   8.418
20909SOL    HW264561   5.065  12.275   8.540
20910SOL     OW64562  11.798   1.984   7.858
20910SOL    HW164563  11.883   2.004   7.818
20910SOL    HW264564  11.768   2.068   7.894
20911SOL     OW64565   5.702  14.026   2.704
20911SOL    HW164566   5.697  13.940   2.746
20911SOL    HW264567   5.767  14.074   2.755
20912SOL     OW64568   4.189  10.352   4.063
20912SOL    HW164569   4.274  10.397   4.065
20912SOL    HW264570   4.211  10.261   4.082
20913SOL     OW64571  11.237  14.338   3.264
20913SOL    HW164572  11.155  14.356   3.309
20913SOL    HW264573  11.265  14.423   3.229
20914SOL     OW64574  11.342  14.076   4.075
20914SOL    HW164575  11.253  14.047   4.095
20914SOL    HW264576  11.353  14.056   3.982
20915SOL     OW64577  12.544  10.663   7.783
20915SOL    HW164578  12.569  10.747   7.822
20915SOL    HW264579  12.576  10.598   7.844
20916SOL     OW64580   3.312   9.657   9.674
20916SOL    HW164581   3.321   9.562   9.676
20916SOL    HW264582   3.228   9.672   9.629
20917SOL     OW64583  10.756   0.488  13.545
20917SOL    HW164584  10.818   0.434  13.594
20917SOL    HW264585  10.678   0.492  13.599
20918SOL     OW64586   0.765  12.027   2.655
20918SOL    HW164587   0.738  11.959   2.592
20918SOL    HW264588   0.856  12.045   2.632
20919SOL     OW64589   3.715   6.314   2.740
20919SOL    HW164590   3.782   6.363   2.787
20919SOL    HW264591   3.672   6.261   2.808
20920SOL     OW64592  12.892   2.115   8.330
20920SOL    HW164593  12.813   2.144   8.375
20920SOL    HW264594  12.887   2.019   8.333
20921SOL     OW64595   5.912   4.226   4.511
20921SOL    HW164596   5.823   4.219   4.477
20921SOL    HW264597   5.953   4.293   4.456
20922SOL     OW64598  11.794   3.671  12.521
20922SOL    HW164599  11.754   3.685  12.607
20922SOL    HW264600  11.877   3.628  12.540
20923SOL     OW64601   0.598   4.749  11.718
20923SOL    HW164602   0.523   4.729  11.661
20923SOL    HW264603   0.664   4.784  11.658
20924SOL     OW64604   3.607   9.791  11.378
20924SOL    HW164605   3.559   9.831  11.449
20924SOL    HW264606   3.543   9.735  11.333
20925SOL     OW64607  11.233   2.977  11.756
20925SOL    HW164608  11.208   2.962  11.847
20925SOL    HW264609  11.296   2.907  11.737
20926SOL     OW64610   2.219  10.399   5.001
20926SOL    HW164611   2.303  10.411   5.046
20926SOL    HW264612   2.155  10.438   5.061
20927SOL     OW64613  14.836   7.368   8.211
20927SOL    HW164614   0.052   7.379   8.219
20927SOL    HW264615  14.826   7.285   8.165
20928SOL     OW64616  14.288   1.060   8.442
20928SOL    HW164617  14.349   1.028   8.375
20928SOL    HW264618  14.284   0.989   8.506
20929SOL     OW64619   2.063   4.076   6.467
20929SOL    HW164620   2.014   4.049   6.389
20929SOL    HW264621   2.039   4.013   6.534
20930SOL     OW64622   5.026   5.221  13.612
20930SOL    HW164623   4.935   5.225  13.640
20930SOL    HW264624   5.021   5.211  13.517
20931SOL     OW64625  13.248  11.182  10.829
20931SOL    HW164626  13.278  11.200  10.740
20931SOL    HW264627  13.191  11.105  10.819
20932SOL     OW64628   6.042  11.487   4.944
20932SOL    HW164629   5.990  11.567   4.944
20932SOL    HW264630   6.104  11.499   5.015
20933SOL     OW64631   3.344   0.756   7.209
20933SOL    HW164632   3.421   0.787   7.256
20933SOL    HW264633   3.353   0.794   7.121
20934SOL     OW64634  13.256   3.629   8.404
20934SOL    HW164635  13.255   3.652   8.311
20934SOL    HW264636  13.171   3.589   8.420
20935SOL     OW64637   3.506  12.887  13.572
20935SOL    HW164638   3.556  12.968  13.567
20935SOL    HW264639   3.506  12.865  13.666
20936SOL     OW64640   7.585  14.597   1.849
20936SOL    HW164641   7.649  14.545   1.801
20936SOL    HW264642   7.558  14.664   1.786
20937SOL     OW64643   2.797   3.263  11.749
20937SOL    HW164644   2.706   3.287  11.763
20937SOL    HW264645   2.845   3.306  11.820
20938SOL     OW64646  13.702   4.103   9.380
20938SOL    HW164647  13.734   4.021   9.342
20938SOL    HW264648  13.610   4.086   9.401
20939SOL     OW64649   4.629   3.636   8.296
20939SOL    HW164650   4.696   3.704   8.306
20939SOL    HW264651   4.679   3.554   8.295
20940SOL     OW64652   9.595   2.987   2.873
20940SOL    HW164653   9.566   3.071   2.909
20940SOL    HW264654   9.575   2.923   2.942
20941SOL     OW64655   0.067   6.265   0.094
20941SOL    HW164656   0.106   6.214   0.165
20941SOL    HW264657   0.124   6.251   0.019
20942SOL     OW64658  11.467   2.357   3.793
20942SOL    HW164659  11.422   2.441   3.788
20942SOL    HW264660  11.400   2.294   3.818
20943SOL     OW64661   9.851   8.429   0.192
20943SOL    HW164662   9.934   8.423   0.145
20943SOL    HW264663   9.872   8.474   0.273
20944SOL     OW64664   2.805  14.294   5.012
20944SOL    HW164665   2.874  14.343   5.057
20944SOL    HW264666   2.846  14.264   4.931
20945SOL     OW64667   2.748   7.097   3.874
20945SOL    HW164668   2.758   7.135   3.962
20945SOL    HW264669   2.737   7.173   3.817
20946SOL     OW64670   2.756   3.910  12.024
20946SOL    HW164671   2.690   3.871  11.968
20946SOL    HW264672   2.710   3.982  12.068
20947SOL     OW64673  10.858   5.896   9.213
20947SOL    HW164674  10.937   5.922   9.260
20947SOL    HW264675  10.830   5.976   9.168
20948SOL     OW64676   8.391   9.284  14.280
20948SOL    HW164677   8.356   9.195  14.280
20948SOL    HW264678   8.319   9.338  14.248
20949SOL     OW64679   0.080   4.027   3.494
20949SOL    HW164680   0.158   3.986   3.457
20949SOL    HW264681   0.050   4.087   3.425
20950SOL     OW64682  10.986  14.167  12.588
20950SOL    HW164683  10.967  14.116  12.667
20950SOL    HW264684  11.082  14.163  12.580
20951SOL     OW64685   1.246   5.681   7.279
20951SOL    HW164686   1.314   5.734   7.236
20951SOL    HW264687   1.207   5.741   7.342
20952SOL     OW64688  13.796   8.414   4.230
20952SOL    HW164689  13.882   8.377   4.211
20952SOL    HW264690  13.799   8.436   4.323
20953SOL     OW64691   1.703  13.387   9.760
20953SOL    HW164692   1.661  13.460   9.716
20953SOL    HW264693   1.637  13.354   9.821
20954SOL     OW64694   5.155  13.386   9.130
20954SOL    HW164695   5.142  13.296   9.101
20954SOL    HW264696   5.247  13.405   9.111
20955SOL     OW64697   1.886  12.046   4.249
20955SOL    HW164698   1.921  12.001   4.325
20955SOL    HW264699   1.960  12.096   4.213
20956SOL     OW64700  14.391   1.022   3.888
20956SOL    HW164701  14.467   1.076   3.867
20956SOL    HW264702  14.357   1.059   3.969
20957SOL     OW64703   7.797  10.864   6.871
20957SOL    HW164704   7.723  10.856   6.812
20957SOL    HW264705   7.772  10.932   6.933
20958SOL     OW64706   0.577  13.729   2.198
20958SOL    HW164707   0.644  13.672   2.160
20958SOL    HW264708   0.595  13.815   2.160
20959SOL     OW64709  12.752  11.938   7.262
20959SOL    HW164710  12.763  11.851   7.300
20959SOL    HW264711  12.688  11.926   7.193
20960SOL     OW64712   1.483   5.365   4.904
20960SOL    HW164713   1.454   5.456   4.897
20960SOL    HW264714   1.486   5.348   4.999
20961SOL     OW64715   0.515  10.223  13.582
20961SOL    HW164716   0.539  10.159  13.514
20961SOL    HW264717   0.547  10.184  13.663
20962SOL     OW64718   9.372   8.849   0.776
20962SOL    HW164719   9.323   8.921   0.735
20962SOL    HW264720   9.399   8.885   0.861
20963SOL     OW64721   9.258   5.375  13.463
20963SOL    HW164722   9.270   5.292  13.510
20963SOL    HW264723   9.347   5.407  13.449
20964SOL     OW64724   6.735   9.146   0.161
20964SOL    HW164725   6.685   9.161   0.081
20964SOL    HW264726   6.676   9.172   0.232
20965SOL     OW64727  11.824   9.924  14.871
20965SOL    HW164728  11.804   9.832  14.853
20965SOL    HW264729  11.909   9.921   0.036
20966SOL     OW64730  10.091   3.600  13.709
20966SOL    HW164731  10.040   3.611  13.790
20966SOL    HW264732  10.047   3.656  13.645
20967SOL     OW64733   3.057   8.544   8.043
20967SOL    HW164734   3.057   8.607   7.971
20967SOL    HW264735   3.104   8.588   8.114
20968SOL     OW64736   0.171   8.759   2.666
20968SOL    HW164737   0.176   8.666   2.645
20968SOL    HW264738   0.235   8.800   2.607
20969SOL     OW64739  13.715  13.822   1.271
20969SOL    HW164740  13.801  13.803   1.234
20969SOL    HW264741  13.728  13.900   1.325
20970SOL     OW64742  13.468   6.816   9.902
20970SOL    HW164743  13.510   6.821   9.816
20970SOL    HW264744  13.509   6.742   9.945
20971SOL     OW64745   6.475   3.494   9.481
20971SOL    HW164746   6.570   3.486   9.486
20971SOL    HW264747   6.442   3.405   9.490
20972SOL     OW64748  12.204  14.681   8.697
20972SOL    HW164749  12.163  14.679   8.784
20972SOL    HW264750  12.187  14.770   8.666
20973SOL     OW64751   9.349   9.345   1.572
20973SOL    HW164752   9.301   9.358   1.491
20973SOL    HW264753   9.325   9.420   1.627
20974SOL     OW64754   8.296  14.435  14.693
20974SOL    HW164755   8.201  14.428  14.705
20974SOL    HW264756   8.313  14.396  14.607
20975SOL     OW64757   0.506   0.837  12.195
20975SOL    HW164758   0.512   0.744  12.215
20975SOL    HW264759   0.418   0.849  12.160
20976SOL     OW64760  12.219   3.398  11.571
20976SOL    HW164761  12.304   3.435  11.593
20976SOL    HW264762  12.238   3.333  11.503
20977SOL     OW64763   5.306  13.708   3.593
20977SOL    HW164764   5.294  13.790   3.641
20977SOL    HW264765   5.313  13.641   3.662
20978SOL     OW64766  13.223   8.662  11.155
20978SOL    HW164767  13.290   8.674  11.088
20978SOL    HW264768  13.170   8.742  11.151
20979SOL     OW64769  13.590  10.791  12.458
20979SOL    HW164770  13.570  10.708  12.501
20979SOL    HW264771  13.682  10.784  12.433
20980SOL     OW64772   5.627  14.061  11.748
20980SOL    HW164773   5.698  14.049  11.686
20980SOL    HW264774   5.659  14.021  11.829
20981SOL     OW64775   1.041  10.443   1.056
20981SOL    HW164776   1.087  10.492   1.124
20981SOL    HW264777   0.951  10.475   1.060
20982SOL     OW64778   8.039   9.833  12.242
20982SOL    HW164779   8.105   9.783  12.289
20982SOL    HW264780   7.957   9.787  12.257
20983SOL     OW64781   0.746   2.580   5.842
20983SOL    HW164782   0.819   2.619   5.794
20983SOL    HW264783   0.726   2.500   5.794
20984SOL     OW64784   5.205  12.345   2.488
20984SOL    HW164785   5.200  12.440   2.488
20984SOL    HW264786   5.207  12.321   2.395
20985SOL     OW64787   7.055   5.625   4.789
20985SOL    HW164788   6.984   5.583   4.740
20985SOL    HW264789   7.082   5.698   4.733
20986SOL     OW64790  12.822   6.074   3.822
20986SOL    HW164791  12.786   6.110   3.741
20986SOL    HW264792  12.788   5.985   3.826
20987SOL     OW64793   4.698   2.063  12.106
20987SOL    HW164794   4.629   2.047  12.041
20987SOL    HW264795   4.672   2.011  12.182
20988SOL     OW64796   1.191   5.652   3.154
20988SOL    HW164797   1.177   5.566   3.114
20988SOL    HW264798   1.237   5.703   3.087
20989SOL     OW64799  14.291   8.648   2.625
20989SOL    HW164800  14.343   8.722   2.659
20989SOL    HW264801  14.309   8.648   2.531
20990SOL     OW64802   2.208   0.926  12.335
20990SOL    HW164803   2.159   0.891  12.410
20990SOL    HW264804   2.296   0.891  12.346
20991SOL     OW64805   7.579  12.713   1.480
20991SOL    HW164806   7.632  12.792   1.471
20991SOL    HW264807   7.632  12.655   1.536
20992SOL     OW64808   2.037   7.897  14.307
20992SOL    HW164809   1.972   7.952  14.263
20992SOL    HW264810   2.119   7.945  14.296
20993SOL     OW64811   6.614   0.419  10.795
20993SOL    HW164812   6.567   0.501  10.786
20993SOL    HW264813   6.556   0.353  10.757
20994SOL     OW64814   9.826  12.675  13.625
20994SOL    HW164815   9.831  12.672  13.529
20994SOL    HW264816   9.880  12.601  13.654
20995SOL     OW64817  10.422   0.385   9.555
20995SOL    HW164818  10.479   0.352   9.485
20995SOL    HW264819  10.335   0.392   9.514
20996SOL     OW64820  12.710   6.237   2.704
20996SOL    HW164821  12.778   6.173   2.685
20996SOL    HW264822  12.724   6.260   2.796
20997SOL     OW64823   5.672   1.477   1.120
20997SOL    HW164824   5.612   1.485   1.195
20997SOL    HW264825   5.715   1.562   1.114
20998SOL     OW64826   2.259  12.775  12.616
20998SOL    HW164827   2.202  12.710  12.656
20998SOL    HW264828   2.333  12.724  12.582
20999SOL     OW64829   2.894   9.951   3.789
20999SOL    HW164830   2.887  10.046   3.796
20999SOL    HW264831   2.807   9.922   3.764
21000SOL     OW64832   7.594  11.628   4.091
21000SOL    HW164833   7.658  11.684   4.135
21000SOL    HW264834   7.627  11.539   4.104
21001SOL     OW64835  11.774   6.645   4.521
21001SOL    HW164836  11.716   6.668   4.448
21001SOL    HW264837  11.715   6.642   4.597
21002SOL     OW64838  12.164   3.074   0.625
21002SOL    HW164839  12.231   3.007   0.635
21002SOL    HW264840  12.210   3.148   0.584
21003SOL     OW64841   0.255   1.180   8.775
21003SOL    HW164842   0.212   1.260   8.744
21003SOL    HW264843   0.183   1.118   8.787
21004SOL     OW64844  12.882   4.710  14.610
21004SOL    HW164845  12.928   4.630  14.587
21004SOL    HW264846  12.789   4.689  14.602
21005SOL     OW64847  10.361   2.798   8.431
21005SOL    HW164848  10.448   2.818   8.398
21005SOL    HW264849  10.375   2.733   8.500
21006SOL     OW64850   8.797  12.764  14.261
21006SOL    HW164851   8.808  12.803  14.174
21006SOL    HW264852   8.795  12.839  14.320
21007SOL     OW64853  11.742  12.336   2.193
21007SOL    HW164854  11.807  12.296   2.249
21007SOL    HW264855  11.682  12.380   2.253
21008SOL     OW64856   1.958  13.963  12.634
21008SOL    HW164857   1.888  14.020  12.666
21008SOL    HW264858   2.009  14.018  12.575
21009SOL     OW64859  14.006  13.914   5.241
21009SOL    HW164860  13.968  13.987   5.290
21009SOL    HW264861  14.099  13.913   5.267
21010SOL     OW64862  13.950   6.281   1.037
21010SOL    HW164863  13.934   6.375   1.029
21010SOL    HW264864  13.901   6.254   1.115
21011SOL     OW64865  13.478  11.932   2.800
21011SOL    HW164866  13.427  12.007   2.767
21011SOL    HW264867  13.462  11.863   2.736
21012SOL     OW64868   0.157  12.328   2.595
21012SOL    HW164869   0.102  12.404   2.618
21012SOL    HW264870   0.245  12.364   2.587
21013SOL     OW64871   7.179   2.160  13.071
21013SOL    HW164872   7.201   2.170  12.978
21013SOL    HW264873   7.143   2.245  13.096
21014SOL     OW64874   8.601   4.604   5.628
21014SOL    HW164875   8.660   4.630   5.698
21014SOL    HW264876   8.600   4.678   5.568
21015SOL     OW64877   1.404   8.357   4.408
21015SOL    HW164878   1.396   8.401   4.493
21015SOL    HW264879   1.314   8.348   4.377
21016SOL     OW64880  10.328  10.964   5.311
21016SOL    HW164881  10.402  11.019   5.286
21016SOL    HW264882  10.363  10.905   5.377
21017SOL     OW64883  14.136   7.146   1.876
21017SOL    HW164884  14.090   7.135   1.792
21017SOL    HW264885  14.121   7.063   1.922
21018SOL     OW64886   3.920   1.390   3.378
21018SOL    HW164887   3.946   1.424   3.464
21018SOL    HW264888   3.972   1.310   3.368
21019SOL     OW64889   6.058   3.457   7.907
21019SOL    HW164890   6.016   3.372   7.917
21019SOL    HW264891   6.130   3.456   7.970
21020SOL     OW64892  12.248   0.844   3.773
21020SOL    HW164893  12.201   0.849   3.856
21020SOL    HW264894  12.179   0.833   3.707
21021SOL     OW64895  13.814   3.526  13.521
21021SOL    HW164896  13.736   3.555  13.475
21021SOL    HW264897  13.807   3.430  13.522
21022SOL     OW64898  13.497  10.110   7.465
21022SOL    HW164899  13.511  10.200   7.494
21022SOL    HW264900  13.461  10.119   7.376
21023SOL     OW64901  11.432   7.437  14.408
21023SOL    HW164902  11.348   7.474  14.381
21023SOL    HW264903  11.447   7.364  14.348
21024SOL     OW64904   1.383   6.880   7.040
21024SOL    HW164905   1.464   6.843   7.077
21024SOL    HW264906   1.408   6.968   7.013
21025SOL     OW64907  10.131   2.754   2.568
21025SOL    HW164908  10.209   2.704   2.545
21025SOL    HW264909  10.061   2.689   2.570
21026SOL     OW64910  14.513   6.850   5.282
21026SOL    HW164911  14.565   6.817   5.209
21026SOL    HW264912  14.578   6.881   5.345
21027SOL     OW64913   5.868   7.492   7.146
21027SOL    HW164914   5.953   7.507   7.189
21027SOL    HW264915   5.886   7.423   7.082
21028SOL     OW64916   5.067   8.774  12.939
21028SOL    HW164917   5.091   8.704  12.880
21028SOL    HW264918   5.134   8.773  13.007
21029SOL     OW64919  12.211   7.402   1.696
21029SOL    HW164920  12.233   7.378   1.606
21029SOL    HW264921  12.116   7.413   1.695
21030SOL     OW64922  10.435   9.407  12.209
21030SOL    HW164923  10.507   9.357  12.170
21030SOL    HW264924  10.460   9.416  12.301
21031SOL     OW64925   5.600   8.042  12.807
21031SOL    HW164926   5.549   8.018  12.729
21031SOL    HW264927   5.601   8.138  12.806
21032SOL     OW64928   4.067   5.705   0.453
21032SOL    HW164929   4.074   5.634   0.518
21032SOL    HW264930   3.991   5.682   0.401
21033SOL     OW64931   4.807   3.514  11.302
21033SOL    HW164932   4.842   3.429  11.275
21033SOL    HW264933   4.722   3.519  11.257
21034SOL     OW64934   8.912   9.057   6.867
21034SOL    HW164935   8.927   9.139   6.914
21034SOL    HW264936   8.819   9.057   6.848
21035SOL     OW64937  10.969  12.279   2.281
21035SOL    HW164938  10.904  12.333   2.327
21035SOL    HW264939  10.957  12.192   2.319
21036SOL     OW64940   1.322  12.074   2.214
21036SOL    HW164941   1.252  12.107   2.271
21036SOL    HW264942   1.392  12.139   2.224
21037SOL     OW64943   7.157   0.307  12.700
21037SOL    HW164944   7.187   0.217  12.686
21037SOL    HW264945   7.081   0.298  12.757
21038SOL     OW64946   1.369   0.300   1.676
21038SOL    HW164947   1.448   0.329   1.722
21038SOL    HW264948   1.379   0.333   1.587
21039SOL     OW64949  13.410   7.306   0.249
21039SOL    HW164950  13.481   7.371   0.258
21039SOL    HW264951  13.455   7.223   0.240
21040SOL     OW64952  13.833   7.499  14.793
21040SOL    HW164953  13.838   7.404  14.803
21040SOL    HW264954  13.858   7.534  14.878
21041SOL     OW64955   2.354   7.305   5.549
21041SOL    HW164956   2.335   7.257   5.469
21041SOL    HW264957   2.407   7.379   5.520
21042SOL     OW64958   0.669   1.432  13.924
21042SOL    HW164959   0.758   1.401  13.907
21042SOL    HW264960   0.633   1.369  13.987
21043SOL     OW64961   7.868  14.118   9.650
21043SOL    HW164962   7.896  14.199   9.692
21043SOL    HW264963   7.948  14.065   9.643
21044SOL     OW64964  12.379   2.008  13.072
21044SOL    HW164965  12.427   1.970  12.999
21044SOL    HW264966  12.440   2.072  13.110
21045SOL     OW64967   6.870   0.034   5.432
21045SOL    HW164968   6.877   0.088   5.511
21045SOL    HW264969   6.937   0.069   5.373
21046SOL     OW64970   7.118   0.468  10.586
21046SOL    HW164971   7.151   0.558  10.588
21046SOL    HW264972   7.194   0.415  10.608
21047SOL     OW64973   3.444   5.321   4.263
21047SOL    HW164974   3.509   5.251   4.275
21047SOL    HW264975   3.392   5.292   4.188
21048SOL     OW64976   2.404   2.398   1.890
21048SOL    HW164977   2.452   2.354   1.820
21048SOL    HW264978   2.426   2.491   1.880
21049SOL     OW64979  12.069   4.377  10.881
21049SOL    HW164980  12.117   4.368  10.799
21049SOL    HW264981  12.079   4.292  10.924
21050SOL     OW64982   9.774   2.433  11.180
21050SOL    HW164983   9.726   2.439  11.262
21050SOL    HW264984   9.713   2.389  11.120
21051SOL     OW64985   3.750   1.419   0.407
21051SOL    HW164986   3.807   1.410   0.331
21051SOL    HW264987   3.764   1.340   0.458
21052SOL     OW64988  13.328   3.914   4.991
21052SOL    HW164989  13.250   3.860   4.993
21052SOL    HW264990  13.329   3.952   4.903
21053SOL     OW64991   5.942  13.157   2.976
21053SOL    HW164992   5.859  13.115   2.954
21053SOL    HW264993   5.933  13.248   2.946
21054SOL     OW64994   4.638   9.644   4.648
21054SOL    HW164995   4.661   9.674   4.736
21054SOL    HW264996   4.653   9.720   4.592
21055SOL     OW64997  14.797  14.831  11.937
21055SOL    HW164998  14.716  14.849  11.888
21055SOL    HW264999  14.780  14.749  11.983
21056SOL     OW65000   2.206   4.258  13.786
21056SOL    HW165001   2.163   4.174  13.802
21056SOL    HW265002   2.244   4.248  13.698
21057SOL     OW65003   4.547   1.336   7.861
21057SOL    HW165004   4.528   1.289   7.942
21057SOL    HW265005   4.527   1.427   7.882
21058SOL     OW65006   4.278   7.618  10.249
21058SOL    HW165007   4.332   7.695  10.267
21058SOL    HW265008   4.200   7.631  10.302
21059SOL     OW65009   2.119   5.263  10.359
21059SOL    HW165010   2.153   5.272  10.270
21059SOL    HW265011   2.077   5.347  10.378
21060SOL     OW65012  11.626   0.545   6.420
21060SOL    HW165013  11.660   0.469   6.466
21060SOL    HW265014  11.594   0.511   6.336
21061SOL     OW65015   8.790   6.721   5.317
21061SOL    HW165016   8.827   6.758   5.398
21061SOL    HW265017   8.857   6.658   5.288
21062SOL     OW65018   7.562  12.219  10.458
21062SOL    HW165019   7.494  12.201  10.522
21062SOL    HW265020   7.622  12.279  10.502
21063SOL     OW65021   4.743   2.492   2.553
21063SOL    HW165022   4.786   2.575   2.575
21063SOL    HW265023   4.652   2.503   2.580
21064SOL     OW65024  11.860   4.313   6.873
21064SOL    HW165025  11.812   4.262   6.939
21064SOL    HW265026  11.794   4.374   6.839
21065SOL     OW65027   1.834  13.584   5.168
21065SOL    HW165028   1.753  13.559   5.213
21065SOL    HW265029   1.850  13.512   5.106
21066SOL     OW65030   4.072   4.000  14.497
21066SOL    HW165031   4.129   3.951  14.438
21066SOL    HW265032   4.093   3.967  14.584
21067SOL     OW65033   7.580   2.545  11.054
21067SOL    HW165034   7.643   2.566  11.123
21067SOL    HW265035   7.520   2.483  11.095
21068SOL     OW65036   2.995   8.287  11.677
21068SOL    HW165037   2.982   8.360  11.737
21068SOL    HW265038   2.912   8.239  11.679
21069SOL     OW65039  14.102  14.085   2.098
21069SOL    HW165040  14.053  14.090   2.180
21069SOL    HW265041  14.183  14.040   2.120
21070SOL     OW65042   4.077   0.080   9.381
21070SOL    HW165043   4.030   0.131   9.315
21070SOL    HW265044   4.046  14.869   9.368
21071SOL     OW65045   9.592  14.835   8.673
21071SOL    HW165046   9.612  14.826   8.766
21071SOL    HW265047   9.676  14.856   8.632
21072SOL     OW65048  13.261   6.522   0.556
21072SOL    HW165049  13.227   6.494   0.641
21072SOL    HW265050  13.263   6.618   0.562
21073SOL     OW65051  13.574  13.230   1.738
21073SOL    HW165052  13.629  13.203   1.664
21073SOL    HW265053  13.589  13.324   1.746
21074SOL     OW65054  14.251  12.959   4.573
21074SOL    HW165055  14.283  13.030   4.628
21074SOL    HW265056  14.214  12.896   4.635
21075SOL     OW65057  11.086   0.490   9.440
21075SOL    HW165058  11.152   0.425   9.465
21075SOL    HW265059  11.042   0.512   9.522
21076SOL     OW65060   5.407   7.395   9.629
21076SOL    HW165061   5.324   7.422   9.667
21076SOL    HW265062   5.413   7.444   9.547
21077SOL     OW65063   9.863  13.508   6.380
21077SOL    HW165064   9.836  13.494   6.290
21077SOL    HW265065   9.786  13.546   6.423
21078SOL     OW65066   5.893   0.169   9.421
21078SOL    HW165067   5.875   0.107   9.351
21078SOL    HW265068   5.878   0.255   9.381
21079SOL     OW65069   1.726  11.779  13.994
21079SOL    HW165070   1.815  11.760  14.022
21079SOL    HW265071   1.736  11.837  13.919
21080SOL     OW65072   2.344   3.439   7.098
21080SOL    HW165073   2.249   3.428   7.097
21080SOL    HW265074   2.363   3.488   7.017
21081SOL     OW65075  14.747   5.442   4.877
21081SOL    HW165076  14.818   5.379   4.891
21081SOL    HW265077  14.733   5.440   4.782
21082SOL     OW65078   3.767  13.485   1.227
21082SOL    HW165079   3.746  13.532   1.146
21082SOL    HW265080   3.837  13.536   1.267
21083SOL     OW65081  11.866   0.147   4.392
21083SOL    HW165082  11.921   0.134   4.315
21083SOL    HW265083  11.903   0.087   4.457
21084SOL     OW65084   5.462  12.220  13.563
21084SOL    HW165085   5.438  12.184  13.649
21084SOL    HW265086   5.475  12.313  13.578
21085SOL     OW65087  12.414  11.947   7.880
21085SOL    HW165088  12.354  12.001   7.829
21085SOL    HW265089  12.474  11.910   7.814
21086SOL     OW65090  10.274   8.601   1.907
21086SOL    HW165091  10.259   8.507   1.905
21086SOL    HW265092  10.351   8.614   1.851
21087SOL     OW65093  11.946  10.663   1.975
21087SOL    HW165094  11.885  10.621   2.036
21087SOL    HW265095  11.890  10.695   1.904
21088SOL     OW65096   0.596   6.234   1.174
21088SOL    HW165097   0.573   6.315   1.219
21088SOL    HW265098   0.541   6.167   1.215
21089SOL     OW65099   1.386  10.814  12.616
21089SOL    HW165100   1.453  10.763  12.661
21089SOL    HW265101   1.352  10.754  12.550
21090SOL     OW65102  11.613   9.544   9.810
21090SOL    HW165103  11.525   9.514   9.786
21090SOL    HW265104  11.664   9.464   9.821
21091SOL     OW65105   8.362  14.134   2.384
21091SOL    HW165106   8.309  14.056   2.402
21091SOL    HW265107   8.388  14.123   2.292
21092SOL     OW65108   7.940   5.638   3.953
21092SOL    HW165109   7.973   5.727   3.968
21092SOL    HW265110   7.844   5.648   3.956
21093SOL     OW65111   7.532   8.235   3.049
21093SOL    HW165112   7.527   8.307   2.986
21093SOL    HW265113   7.613   8.251   3.097
21094SOL     OW65114   0.750   7.958   9.099
21094SOL    HW165115   0.690   7.927   9.031
21094SOL    HW265116   0.693   7.984   9.172
21095SOL     OW65117  14.481   0.978   6.371
21095SOL    HW165118  14.389   0.963   6.350
21095SOL    HW265119  14.494   1.072   6.359
21096SOL     OW65120  13.562  13.172   2.853
21096SOL    HW165121  13.614  13.200   2.778
21096SOL    HW265122  13.475  13.207   2.836
21097SOL     OW65123   4.543   5.245  13.401
21097SOL    HW165124   4.617   5.186  13.414
21097SOL    HW265125   4.582   5.329  13.380
21098SOL     OW65126   8.589  13.310  14.020
21098SOL    HW165127   8.681  13.335  14.010
21098SOL    HW265128   8.561  13.287  13.932
21099SOL     OW65129   6.353  11.776   6.035
21099SOL    HW165130   6.385  11.845   6.092
21099SOL    HW265131   6.263  11.759   6.064
21100SOL     OW65132  12.822  10.355  12.179
21100SOL    HW165133  12.816  10.339  12.274
21100SOL    HW265134  12.741  10.319  12.144
21101SOL     OW65135   7.667   0.000   5.316
21101SOL    HW165136   7.666   0.035   5.405
21101SOL    HW265137   7.619  14.797   5.322
21102SOL     OW65138  10.300   1.361   8.423
21102SOL    HW165139  10.282   1.453   8.446
21102SOL    HW265140  10.215   1.319   8.423
21103SOL     OW65141  12.488  10.299   2.526
21103SOL    HW165142  12.438  10.304   2.445
21103SOL    HW265143  12.565  10.246   2.504
21104SOL     OW65144   5.897   1.524   0.321
21104SOL    HW165145   5.901   1.534   0.416
21104SOL    HW265146   5.916   1.431   0.306
21105SOL     OW65147  10.401  12.020   0.513
21105SOL    HW165148  10.425  12.112   0.504
21105SOL    HW265149  10.440  11.993   0.596
21106SOL     OW65150   2.616   2.958   6.351
21106SOL    HW165151   2.666   3.034   6.320
21106SOL    HW265152   2.683   2.892   6.371
21107SOL     OW65153   5.956  14.683  11.679
21107SOL    HW165154   5.865  14.663  11.656
21107SOL    HW265155   5.983  14.610  11.736
21108SOL     OW65156  11.497   3.516   2.763
21108SOL    HW165157  11.427   3.452   2.773
21108SOL    HW265158  11.452   3.601   2.763
21109SOL     OW65159   8.618  10.818  11.496
21109SOL    HW165160   8.586  10.729  11.508
21109SOL    HW265161   8.712  10.813  11.512
21110SOL     OW65162   9.526  13.540   0.367
21110SOL    HW165163   9.550  13.550   0.275
21110SOL    HW265164   9.547  13.449   0.388
21111SOL     OW65165   3.353   4.366   0.875
21111SOL    HW165166   3.373   4.329   0.961
21111SOL    HW265167   3.430   4.417   0.852
21112SOL     OW65168   7.469  13.118   3.919
21112SOL    HW165169   7.543  13.152   3.969
21112SOL    HW265170   7.500  13.116   3.828
21113SOL     OW65171  11.137   3.350  11.074
21113SOL    HW165172  11.150   3.273  11.130
21113SOL    HW265173  11.093   3.315  10.996
21114SOL     OW65174  10.597  11.105   7.516
21114SOL    HW165175  10.605  11.011   7.532
21114SOL    HW265176  10.558  11.110   7.428
21115SOL     OW65177  11.655   0.932   0.269
21115SOL    HW165178  11.670   0.837   0.271
21115SOL    HW265179  11.742   0.969   0.253
21116SOL     OW65180   5.150  11.137   2.116
21116SOL    HW165181   5.078  11.090   2.074
21116SOL    HW265182   5.108  11.191   2.183
21117SOL     OW65183  14.219   2.928   0.851
21117SOL    HW165184  14.306   2.964   0.830
21117SOL    HW265185  14.164   3.005   0.864
21118SOL     OW65186   5.532   3.277  10.457
21118SOL    HW165187   5.580   3.360  10.458
21118SOL    HW265188   5.486   3.275  10.541
21119SOL     OW65189   8.229   6.175   7.587
21119SOL    HW165190   8.165   6.150   7.653
21119SOL    HW265191   8.178   6.219   7.519
21120SOL     OW65192  14.096   0.231  10.855
21120SOL    HW165193  14.070   0.310  10.808
21120SOL    HW265194  14.041   0.162  10.818
21121SOL     OW65195   0.928  13.589  10.325
21121SOL    HW165196   0.942  13.564  10.416
21121SOL    HW265197   0.900  13.680  10.329
21122SOL     OW65198   8.397  13.163  11.178
21122SOL    HW165199   8.375  13.112  11.256
21122SOL    HW265200   8.314  13.169  11.130
21123SOL     OW65201  10.061   3.008   2.956
21123SOL    HW165202  10.114   2.946   2.905
21123SOL    HW265203   9.977   3.010   2.911
21124SOL     OW65204  10.247  12.201  13.965
21124SOL    HW165205  10.224  12.288  13.933
21124SOL    HW265206  10.191  12.188  14.041
21125SOL     OW65207  11.188   5.829  12.474
21125SOL    HW165208  11.206   5.793  12.388
21125SOL    HW265209  11.097   5.805  12.491
21126SOL     OW65210   6.214  10.715   1.060
21126SOL    HW165211   6.120  10.701   1.072
21126SOL    HW265212   6.225  10.810   1.064
21127SOL     OW65213   0.625   8.579  10.662
21127SOL    HW165214   0.548   8.588  10.717
21127SOL    HW265215   0.674   8.506  10.700
21128SOL     OW65216  11.000   4.692  10.024
21128SOL    HW165217  10.912   4.658  10.036
21128SOL    HW265218  11.043   4.628   9.968
21129SOL     OW65219   6.006   5.015   0.874
21129SOL    HW165220   6.003   5.017   0.970
21129SOL    HW265221   6.060   5.090   0.850
21130SOL     OW65222  10.719  14.638  14.102
21130SOL    HW165223  10.672  14.582  14.163
21130SOL    HW265224  10.795  14.670  14.151
21131SOL     OW65225  13.874   9.946   4.969
21131SOL    HW165226  13.871   9.924   4.876
21131SOL    HW265227  13.954   9.904   5.001
21132SOL     OW65228   4.982   4.271   8.702
21132SOL    HW165229   5.033   4.236   8.775
21132SOL    HW265230   4.917   4.328   8.744
21133SOL     OW65231   5.628   4.139  11.983
21133SOL    HW165232   5.586   4.224  11.999
21133SOL    HW265233   5.652   4.107  12.071
21134SOL     OW65234   0.355  10.844   9.442
21134SOL    HW165235   0.412  10.824   9.367
21134SOL    HW265236   0.321  10.931   9.423
21135SOL     OW65237   0.047  11.915   8.501
21135SOL    HW165238   0.113  11.891   8.566
21135SOL    HW265239  14.851  11.944   8.552
21136SOL     OW65240  14.398   3.027   4.441
21136SOL    HW165241  14.311   3.033   4.480
21136SOL    HW265242  14.401   3.099   4.378
21137SOL     OW65243   5.241  13.718   1.406
21137SOL    HW165244   5.333  13.692   1.397
21137SOL    HW265245   5.244  13.813   1.416
21138SOL     OW65246   2.814   6.213   2.102
21138SOL    HW165247   2.768   6.131   2.082
21138SOL    HW265248   2.825   6.255   2.016
21139SOL     OW65249   8.707   7.404   2.836
21139SOL    HW165250   8.715   7.327   2.893
21139SOL    HW265251   8.770   7.467   2.871
21140SOL     OW65252   6.605   6.960  12.287
21140SOL    HW165253   6.604   7.002  12.201
21140SOL    HW265254   6.576   6.870  12.271
21141SOL     OW65255  12.951  12.753   6.765
21141SOL    HW165256  12.949  12.775   6.858
21141SOL    HW265257  12.883  12.687   6.755
21142SOL     OW65258   4.293   9.369   7.297
21142SOL    HW165259   4.312   9.283   7.335
21142SOL    HW265260   4.201   9.365   7.271
21143SOL     OW65261   7.650  10.536  12.180
21143SOL    HW165262   7.590  10.523  12.106
21143SOL    HW265263   7.644  10.455  12.230
21144SOL     OW65264   1.952   6.066  10.526
21144SOL    HW165265   1.993   6.152  10.522
21144SOL    HW265266   1.858   6.084  10.534
21145SOL     OW65267   9.199   2.629   5.491
21145SOL    HW165268   9.169   2.552   5.443
21145SOL    HW265269   9.226   2.691   5.423
21146SOL     OW65270   8.026   2.583   2.668
21146SOL    HW165271   8.041   2.677   2.654
21146SOL    HW265272   7.931   2.575   2.678
21147SOL     OW65273  12.132   7.123   1.977
21147SOL    HW165274  12.062   7.178   2.012
21147SOL    HW265275  12.088   7.043   1.950
21148SOL     OW65276   0.438  12.500  11.734
21148SOL    HW165277   0.371  12.452  11.784
21148SOL    HW265278   0.520  12.454  11.754
21149SOL     OW65279  14.790  11.026   4.191
21149SOL    HW165280  14.764  11.105   4.144
21149SOL    HW265281  14.807  11.056   4.280
21150SOL     OW65282  13.229  13.814  10.584
21150SOL    HW165283  13.177  13.891  10.605
21150SOL    HW265284  13.314  13.848  10.557
21151SOL     OW65285   3.542   2.049   1.236
21151SOL    HW165286   3.508   2.137   1.224
21151SOL    HW265287   3.518   2.002   1.156
21152SOL     OW65288  12.501   5.802  12.520
21152SOL    HW165289  12.465   5.729  12.469
21152SOL    HW265290  12.441   5.810  12.595
21153SOL     OW65291  13.550   2.339  14.467
21153SOL    HW165292  13.479   2.276  14.455
21153SOL    HW265293  13.534   2.406  14.400
21154SOL     OW65294   2.435  11.986   9.171
21154SOL    HW165295   2.422  11.891   9.171
21154SOL    HW265296   2.531  11.997   9.174
21155SOL     OW65297   7.019  13.164  11.826
21155SOL    HW165298   7.000  13.245  11.875
21155SOL    HW265299   7.013  13.190  11.734
21156SOL     OW65300   5.680   7.625   0.745
21156SOL    HW165301   5.635   7.643   0.828
21156SOL    HW265302   5.642   7.686   0.683
21157SOL     OW65303  14.242   2.758   9.624
21157SOL    HW165304  14.265   2.842   9.583
21157SOL    HW265305  14.325   2.726   9.660
21158SOL     OW65306   4.019  10.372  14.634
21158SOL    HW165307   4.037  10.289  14.679
21158SOL    HW265308   4.094  10.428  14.656
21159SOL     OW65309   9.792   3.627   0.711
21159SOL    HW165310   9.787   3.708   0.660
21159SOL    HW265311   9.704   3.591   0.709
21160SOL     OW65312   1.198   3.772  12.483
21160SOL    HW165313   1.167   3.848  12.435
21160SOL    HW265314   1.290   3.763  12.456
21161SOL     OW65315   9.037   2.830   3.109
21161SOL    HW165316   8.988   2.909   3.082
21161SOL    HW265317   8.970   2.762   3.117
21162SOL     OW65318   4.758   7.705   0.684
21162SOL    HW165319   4.812   7.629   0.708
21162SOL    HW265320   4.769   7.713   0.589
21163SOL     OW65321   7.031   5.058   1.953
21163SOL    HW165322   6.953   5.003   1.949
21163SOL    HW265323   7.001   5.145   1.928
21164SOL     OW65324   4.969   2.666  11.166
21164SOL    HW165325   4.980   2.662  11.261
21164SOL    HW265326   4.956   2.575  11.140
21165SOL     OW65327   6.205   6.344   6.588
21165SOL    HW165328   6.256   6.265   6.567
21165SOL    HW265329   6.176   6.376   6.502
21166SOL     OW65330   6.618  14.379   0.336
21166SOL    HW165331   6.611  14.344   0.425
21166SOL    HW265332   6.709  14.407   0.329
21167SOL     OW65333  14.150  12.119   3.966
21167SOL    HW165334  14.163  12.210   3.993
21167SOL    HW265335  14.168  12.068   4.045
21168SOL     OW65336   6.752   1.908   5.574
21168SOL    HW165337   6.827   1.879   5.523
21168SOL    HW265338   6.756   1.855   5.654
21169SOL     OW65339   4.036  11.312  13.572
21169SOL    HW165340   4.064  11.325  13.663
21169SOL    HW265341   3.989  11.392  13.550
21170SOL     OW65342   6.498   7.898   2.599
21170SOL    HW165343   6.477   7.828   2.536
21170SOL    HW265344   6.418   7.951   2.603
21171SOL     OW65345   5.404   6.225  13.222
21171SOL    HW165346   5.342   6.295  13.205
21171SOL    HW265347   5.351   6.145  13.225
21172SOL     OW65348  10.982   8.692  10.029
21172SOL    HW165349  10.944   8.777  10.050
21172SOL    HW265350  11.047   8.677  10.097
21173SOL     OW65351  13.085   8.323   6.174
21173SOL    HW165352  13.073   8.322   6.079
21173SOL    HW265353  13.052   8.408   6.202
21174SOL     OW65354  10.227   8.490  10.469
21174SOL    HW165355  10.205   8.559  10.532
21174SOL    HW265356  10.218   8.409  10.518
21175SOL     OW65357   2.150  13.322   5.443
21175SOL    HW165358   2.221  13.333   5.507
21175SOL    HW265359   2.070  13.339   5.492
21176SOL     OW65360   3.445  11.563   6.477
21176SOL    HW165361   3.532  11.563   6.516
21176SOL    HW265362   3.437  11.478   6.434
21177SOL     OW65363   8.268   6.097  12.928
21177SOL    HW165364   8.273   6.182  12.972
21177SOL    HW265365   8.202   6.048  12.979
21178SOL     OW65366   9.680   9.002   8.984
21178SOL    HW165367   9.743   8.984   8.915
21178SOL    HW265368   9.722   8.972   9.064
21179SOL     OW65369  13.637  10.536   4.620
21179SOL    HW165370  13.683  10.483   4.555
21179SOL    HW265371  13.671  10.625   4.608
21180SOL     OW65372  12.598  10.671  14.407
21180SOL    HW165373  12.604  10.766  14.394
21180SOL    HW265374  12.545  10.640  14.333
21181SOL     OW65375   8.682   9.711   7.560
21181SOL    HW165376   8.665   9.617   7.564
21181SOL    HW265377   8.616   9.750   7.617
21182SOL     OW65378   7.977  11.317   8.135
21182SOL    HW165379   8.040  11.379   8.100
21182SOL    HW265380   8.025  11.234   8.141
21183SOL     OW65381  12.369   3.090  14.349
21183SOL    HW165382  12.369   3.095  14.444
21183SOL    HW265383  12.387   3.179  14.320
21184SOL     OW65384   7.400   0.103   7.754
21184SOL    HW165385   7.455   0.026   7.740
21184SOL    HW265386   7.384   0.137   7.666
21185SOL     OW65387   4.832  13.999  12.388
21185SOL    HW165388   4.804  13.926  12.444
21185SOL    HW265389   4.757  14.015  12.331
21186SOL     OW65390   0.404  14.700  10.627
21186SOL    HW165391   0.384  14.676  10.537
21186SOL    HW265392   0.321  14.688  10.674
21187SOL     OW65393  13.741  14.343   8.545
21187SOL    HW165394  13.795  14.374   8.618
21187SOL    HW265395  13.651  14.361   8.572
21188SOL     OW65396  12.847   0.398  12.247
21188SOL    HW165397  12.760   0.428  12.270
21188SOL    HW265398  12.873   0.341  12.319
21189SOL     OW65399   7.359  12.258   4.744
21189SOL    HW165400   7.351  12.261   4.839
21189SOL    HW265401   7.305  12.184   4.717
21190SOL     OW65402  11.601   2.779  14.664
21190SOL    HW165403  11.625   2.722  14.737
21190SOL    HW265404  11.685   2.805  14.625
21191SOL     OW65405   9.025  10.380  12.453
21191SOL    HW165406   9.048  10.305  12.398
21191SOL    HW265407   8.992  10.340  12.534
21192SOL     OW65408  13.512   2.166   5.453
21192SOL    HW165409  13.546   2.085   5.415
21192SOL    HW265410  13.506   2.148   5.546
21193SOL     OW65411  14.434   9.249   5.422
21193SOL    HW165412  14.440   9.209   5.509
21193SOL    HW265413  14.353   9.299   5.424
21194SOL     OW65414   1.563  12.476   3.652
21194SOL    HW165415   1.613  12.534   3.595
21194SOL    HW265416   1.488  12.527   3.681
21195SOL     OW65417   7.102  10.528  14.401
21195SOL    HW165418   7.019  10.507  14.444
21195SOL    HW265419   7.135  10.603  14.450
21196SOL     OW65420  12.378   6.049   0.997
21196SOL    HW165421  12.344   6.021   1.082
21196SOL    HW265422  12.369   6.144   0.998
21197SOL     OW65423   1.041   4.210   0.859
21197SOL    HW165424   1.086   4.224   0.942
21197SOL    HW265425   1.074   4.281   0.802
21198SOL     OW65426   2.628   2.949   8.705
21198SOL    HW165427   2.698   2.974   8.764
21198SOL    HW265428   2.614   2.856   8.721
21199SOL     OW65429   3.394   9.072  13.707
21199SOL    HW165430   3.466   9.105  13.654
21199SOL    HW265431   3.373   8.987  13.669
21200SOL     OW65432   0.658  12.001  13.024
21200SOL    HW165433   0.597  11.992  12.950
21200SOL    HW265434   0.626  11.938  13.089
21201SOL     OW65435   5.829   0.978   0.078
21201SOL    HW165436   5.851   1.002   0.168
21201SOL    HW265437   5.899   1.015   0.025
21202SOL     OW65438   8.042   6.899  12.417
21202SOL    HW165439   7.979   6.828  12.419
21202SOL    HW265440   8.039   6.931  12.327
21203SOL     OW65441   7.766   3.794   4.052
21203SOL    HW165442   7.739   3.814   3.962
21203SOL    HW265443   7.690   3.818   4.105
21204SOL     OW65444   6.883  10.216  14.369
21204SOL    HW165445   6.827  10.276  14.319
21204SOL    HW265446   6.917  10.155  14.304
21205SOL     OW65447   4.864   7.442  12.263
21205SOL    HW165448   4.776   7.441  12.299
21205SOL    HW265449   4.903   7.522  12.297
21206SOL     OW65450  11.358   3.367   0.288
21206SOL    HW165451  11.298   3.294   0.273
21206SOL    HW265452  11.375   3.403   0.201
21207SOL     OW65453  10.281   7.921  13.196
21207SOL    HW165454  10.359   7.881  13.158
21207SOL    HW265455  10.251   7.858  13.262
21208SOL     OW65456  14.323  12.126  10.946
21208SOL    HW165457  14.334  12.068  10.870
21208SOL    HW265458  14.343  12.213  10.912
21209SOL     OW65459   4.944   4.865   1.816
21209SOL    HW165460   5.034   4.878   1.787
21209SOL    HW265461   4.948   4.868   1.911
21210SOL     OW65462   5.468   4.019  12.745
21210SOL    HW165463   5.412   3.942  12.743
21210SOL    HW265464   5.429   4.079  12.681
21211SOL     OW65465  10.572   5.517   4.768
21211SOL    HW165466  10.580   5.427   4.801
21211SOL    HW265467  10.631   5.520   4.693
21212SOL     OW65468   2.864   4.093   2.543
21212SOL    HW165469   2.887   4.117   2.453
21212SOL    HW265470   2.771   4.114   2.550
21213SOL     OW65471   4.482  11.614   0.626
21213SOL    HW165472   4.516  11.703   0.634
21213SOL    HW265473   4.433  11.613   0.544
21214SOL     OW65474   9.658  13.016  12.546
21214SOL    HW165475   9.673  12.975  12.461
21214SOL    HW265476   9.743  13.053  12.570
21215SOL     OW65477   2.057   6.473  13.993
21215SOL    HW165478   2.039   6.513  14.078
21215SOL    HW265479   2.007   6.391  13.994
21216SOL     OW65480  12.470   5.158   5.569
21216SOL    HW165481  12.521   5.144   5.489
21216SOL    HW265482  12.517   5.228   5.615
21217SOL     OW65483   3.391   7.976  11.813
21217SOL    HW165484   3.349   8.060  11.829
21217SOL    HW265485   3.331   7.911  11.850
21218SOL     OW65486  10.744   4.614   7.700
21218SOL    HW165487  10.813   4.549   7.695
21218SOL    HW265488  10.767   4.668   7.777
21219SOL     OW65489  12.988   5.424   5.779
21219SOL    HW165490  13.027   5.407   5.865
21219SOL    HW265491  13.048   5.487   5.738
21220SOL     OW65492   2.745   1.324   6.890
21220SOL    HW165493   2.805   1.249   6.893
21220SOL    HW265494   2.658   1.286   6.895
21221SOL     OW65495   0.915   1.992  14.386
21221SOL    HW165496   0.856   1.996  14.311
21221SOL    HW265497   0.884   2.060  14.446
21222SOL     OW65498   5.276  13.580  11.833
21222SOL    HW165499   5.359  13.565  11.879
21222SOL    HW265500   5.209  13.559  11.898
21223SOL     OW65501  12.071   3.325   1.095
21223SOL    HW165502  12.121   3.306   1.016
21223SOL    HW265503  12.011   3.251   1.104
21224SOL     OW65504  14.338   1.659  10.989
21224SOL    HW165505  14.342   1.661  11.084
21224SOL    HW265506  14.247   1.637  10.969
21225SOL     OW65507   3.859   7.189   0.517
21225SOL    HW165508   3.867   7.117   0.580
21225SOL    HW265509   3.808   7.152   0.445
21226SOL     OW65510   1.975   0.878   2.489
21226SOL    HW165511   2.016   0.806   2.537
21226SOL    HW265512   1.898   0.837   2.447
21227SOL     OW65513   9.819   8.602   6.212
21227SOL    HW165514   9.903   8.641   6.188
21227SOL    HW265515   9.839   8.542   6.283
21228SOL     OW65516  12.883   6.086   7.347
21228SOL    HW165517  12.952   6.112   7.409
21228SOL    HW265518  12.931   6.053   7.271
21229SOL     OW65519   0.078   4.449  10.446
21229SOL    HW165520   0.146   4.382  10.446
21229SOL    HW265521   0.126   4.532  10.438
21230SOL     OW65522   2.463   1.689   9.059
21230SOL    HW165523   2.550   1.671   9.023
21230SOL    HW265524   2.455   1.785   9.056
21231SOL     OW65525   1.336  12.295   4.290
21231SOL    HW165526   1.298  12.365   4.342
21231SOL    HW265527   1.261  12.250   4.250
21232SOL     OW65528   0.839   9.443   1.488
21232SOL    HW165529   0.923   9.438   1.442
21232SOL    HW265530   0.815   9.352   1.503
21233SOL     OW65531   9.101   8.160   4.826
21233SOL    HW165532   9.137   8.142   4.913
21233SOL    HW265533   9.043   8.235   4.839
21234SOL     OW65534   4.074  12.319   3.213
21234SOL    HW165535   4.161  12.281   3.198
21234SOL    HW265536   4.024  12.249   3.253
21235SOL     OW65537   8.811   0.942   3.807
21235SOL    HW165538   8.896   0.915   3.841
21235SOL    HW265539   8.779   1.008   3.869
21236SOL     OW65540   1.291   9.609   8.403
21236SOL    HW165541   1.379   9.639   8.424
21236SOL    HW265542   1.244   9.615   8.487
21237SOL     OW65543  14.284   0.007   5.221
21237SOL    HW165544  14.228  14.843   5.286
21237SOL    HW265545  14.266  14.839   5.139
21238SOL     OW65546  14.083  11.496  10.901
21238SOL    HW165547  14.013  11.550  10.938
21238SOL    HW265548  14.150  11.492  10.969
21239SOL     OW65549   4.994   0.859   8.167
21239SOL    HW165550   5.033   0.906   8.240
21239SOL    HW265551   4.971   0.927   8.104
21240SOL     OW65552   6.723  11.634   7.279
21240SOL    HW165553   6.632  11.635   7.247
21240SOL    HW265554   6.716  11.605   7.370
21241SOL     OW65555   1.436  11.127   2.438
21241SOL    HW165556   1.480  11.191   2.493
21241SOL    HW265557   1.374  11.178   2.386
21242SOL     OW65558   6.080  14.645  13.433
21242SOL    HW165559   5.991  14.642  13.397
21242SOL    HW265560   6.133  14.599  13.368
21243SOL     OW65561  10.974   8.998   8.435
21243SOL    HW165562  10.935   9.078   8.401
21243SOL    HW265563  10.907   8.931   8.421
21244SOL     OW65564  11.229   4.447   3.082
21244SOL    HW165565  11.185   4.420   3.163
21244SOL    HW265566  11.285   4.520   3.108
21245SOL     OW65567   0.504   4.811   6.963
21245SOL    HW165568   0.552   4.813   7.046
21245SOL    HW265569   0.571   4.798   6.896
21246SOL     OW65570   4.116  12.330   7.058
21246SOL    HW165571   4.209  12.318   7.077
21246SOL    HW265572   4.073  12.322   7.143
21247SOL     OW65573   2.302   8.820   2.908
21247SOL    HW165574   2.360   8.771   2.849
21247SOL    HW265575   2.356   8.893   2.939
21248SOL     OW65576   0.203   9.522   3.496
21248SOL    HW165577   0.137   9.522   3.566
21248SOL    HW265578   0.171   9.457   3.433
21249SOL     OW65579  13.671   6.583  13.404
21249SOL    HW165580  13.702   6.646  13.469
21249SOL    HW265581  13.599   6.628  13.360
21250SOL     OW65582   0.479   7.447   5.767
21250SOL    HW165583   0.543   7.514   5.792
21250SOL    HW265584   0.524   7.364   5.780
21251SOL     OW65585  10.583  10.569   7.426
21251SOL    HW165586  10.637  10.500   7.388
21251SOL    HW265587  10.582  10.638   7.359
21252SOL     OW65588  10.169  12.979   0.050
21252SOL    HW165589  10.134  12.923  14.859
21252SOL    HW265590  10.245  13.021   0.011
21253SOL     OW65591   1.172   3.960  14.283
21253SOL    HW165592   1.132   3.923  14.205
21253SOL    HW265593   1.159   4.055  14.275
21254SOL     OW65594   6.427  10.060   4.314
21254SOL    HW165595   6.454  10.101   4.396
21254SOL    HW265596   6.344  10.017   4.335
21255SOL     OW65597   4.091   5.131  11.239
21255SOL    HW165598   4.034   5.128  11.315
21255SOL    HW265599   4.173   5.091  11.269
21256SOL     OW65600   4.891   6.959  12.235
21256SOL    HW165601   4.862   7.045  12.269
21256SOL    HW265602   4.986   6.963  12.239
21257SOL     OW65603   2.857   9.006  12.605
21257SOL    HW165604   2.919   9.078  12.595
21257SOL    HW265605   2.780   9.045  12.645
21258SOL     OW65606   9.189   6.394   7.161
21258SOL    HW165607   9.178   6.440   7.244
21258SOL    HW265608   9.264   6.437   7.119
21259SOL     OW65609   4.036  13.651   7.718
21259SOL    HW165610   3.952  13.683   7.752
21259SOL    HW265611   4.051  13.569   7.764
21260SOL     OW65612  13.269   6.972   4.951
21260SOL    HW165613  13.333   7.043   4.951
21260SOL    HW265614  13.185   7.016   4.958
21261SOL     OW65615   3.127   0.827   7.753
21261SOL    HW165616   3.139   0.908   7.704
21261SOL    HW265617   3.111   0.856   7.843
21262SOL     OW65618  14.237   6.094   3.660
21262SOL    HW165619  14.289   6.138   3.593
21262SOL    HW265620  14.276   6.008   3.668
21263SOL     OW65621  11.602   7.386   4.167
21263SOL    HW165622  11.615   7.444   4.242
21263SOL    HW265623  11.507   7.377   4.160
21264SOL     OW65624   1.985   4.834   8.274
21264SOL    HW165625   2.002   4.747   8.239
21264SOL    HW265626   1.894   4.830   8.305
21265SOL     OW65627   1.990   3.322   2.430
21265SOL    HW165628   2.051   3.326   2.504
21265SOL    HW265629   1.910   3.362   2.463
21266SOL     OW65630  11.956   8.958  14.121
21266SOL    HW165631  11.919   9.036  14.161
21266SOL    HW265632  12.021   8.991  14.059
21267SOL     OW65633   5.290   0.726   4.932
21267SOL    HW165634   5.383   0.712   4.952
21267SOL    HW265635   5.290   0.762   4.843
21268SOL     OW65636   4.572   8.136   8.285
21268SOL    HW165637   4.571   8.050   8.243
21268SOL    HW265638   4.587   8.197   8.213
21269SOL     OW65639   7.981   7.566  11.806
21269SOL    HW165640   8.066   7.523  11.817
21269SOL    HW265641   7.950   7.578  11.896
21270SOL     OW65642   3.030   8.252  13.528
21270SOL    HW165643   3.005   8.164  13.557
21270SOL    HW265644   2.999   8.257  13.438
21271SOL     OW65645   1.049   8.763  12.066
21271SOL    HW165646   0.958   8.739  12.047
21271SOL    HW265647   1.053   8.856  12.047
21272SOL     OW65648   8.155   7.828   8.409
21272SOL    HW165649   8.197   7.848   8.326
21272SOL    HW265650   8.080   7.887   8.413
21273SOL     OW65651   8.474   6.821   1.190
21273SOL    HW165652   8.498   6.912   1.173
21273SOL    HW265653   8.383   6.814   1.160
21274SOL     OW65654   9.182   9.282   8.641
21274SOL    HW165655   9.214   9.197   8.610
21274SOL    HW265656   9.183   9.275   8.736
21275SOL     OW65657   7.086   7.408   9.532
21275SOL    HW165658   7.100   7.325   9.486
21275SOL    HW265659   7.028   7.458   9.475
21276SOL     OW65660   1.897   2.762  10.515
21276SOL    HW165661   1.805   2.780  10.497
21276SOL    HW265662   1.921   2.696  10.449
21277SOL     OW65663   2.809  10.618   4.618
21277SOL    HW165664   2.903  10.604   4.617
21277SOL    HW265665   2.790  10.656   4.532
21278SOL     OW65666   7.892  12.797   8.486
21278SOL    HW165667   7.834  12.797   8.410
21278SOL    HW265668   7.942  12.715   8.478
21279SOL     OW65669   4.867   8.605  11.027
21279SOL    HW165670   4.849   8.668  11.096
21279SOL    HW265671   4.799   8.539  11.036
21280SOL     OW65672  12.369  14.622  14.554
21280SOL    HW165673  12.345  14.590  14.641
21280SOL    HW265674  12.302  14.686  14.532
21281SOL     OW65675  14.346  13.030   8.784
21281SOL    HW165676  14.290  13.088   8.836
21281SOL    HW265677  14.417  13.086   8.754
21282SOL     OW65678  11.949   6.101  14.612
21282SOL    HW165679  11.984   6.019  14.645
21282SOL    HW265680  11.988   6.168  14.668
21283SOL     OW65681  11.869   8.113  12.506
21283SOL    HW165682  11.867   8.198  12.463
21283SOL    HW265683  11.961   8.087  12.505
21284SOL     OW65684   2.775   4.203   6.275
21284SOL    HW165685   2.837   4.274   6.289
21284SOL    HW265686   2.745   4.180   6.363
21285SOL     OW65687   5.916   8.585  13.605
21285SOL    HW165688   5.844   8.523  13.620
21285SOL    HW265689   5.958   8.554  13.524
21286SOL     OW65690  13.918   3.034   2.187
21286SOL    HW165691  13.918   3.127   2.164
21286SOL    HW265692  13.909   2.989   2.104
21287SOL     OW65693  14.665   0.908   1.817
21287SOL    HW165694  14.756   0.907   1.785
21287SOL    HW265695  14.672   0.938   1.908
21288SOL     OW65696   7.234   4.359   7.912
21288SOL    HW165697   7.173   4.410   7.860
21288SOL    HW265698   7.304   4.334   7.851
21289SOL     OW65699   3.657   8.538   7.198
21289SOL    HW165700   3.604   8.618   7.199
21289SOL    HW265701   3.600   8.471   7.233
21290SOL     OW65702  11.061  10.544   3.240
21290SOL    HW165703  11.114  10.604   3.187
21290SOL    HW265704  11.033  10.476   3.179
21291SOL     OW65705   1.474  12.714   0.227
21291SOL    HW165706   1.433  12.705   0.141
21291SOL    HW265707   1.562  12.746   0.209
21292SOL     OW65708  11.393   0.241   3.505
21292SOL    HW165709  11.475   0.231   3.553
21292SOL    HW265710  11.409   0.198   3.421
21293SOL     OW65711   5.017   2.881  14.636
21293SOL    HW165712   5.038   2.969  14.605
21293SOL    HW265713   5.019   2.827  14.557
21294SOL     OW65714   4.954  12.037   9.368
21294SOL    HW165715   4.938  12.097   9.441
21294SOL    HW265716   5.042  12.003   9.384
21295SOL     OW65717   6.238  11.911   7.695
21295SOL    HW165718   6.242  11.825   7.653
21295SOL    HW265719   6.164  11.905   7.755
21296SOL     OW65720   1.309  11.491   4.664
21296SOL    HW165721   1.271  11.430   4.602
21296SOL    HW265722   1.339  11.565   4.611
21297SOL     OW65723  14.735   7.396   5.243
21297SOL    HW165724  14.819   7.373   5.282
21297SOL    HW265725  14.754   7.469   5.185
21298SOL     OW65726  14.625  14.101  14.528
21298SOL    HW165727  14.630  14.183  14.577
21298SOL    HW265728  14.634  14.127  14.437
21299SOL     OW65729   7.963   9.297   1.651
21299SOL    HW165730   8.035   9.237   1.672
21299SOL    HW265731   7.913   9.252   1.583
21300SOL     OW65732   6.170  10.501  11.140
21300SOL    HW165733   6.221  10.447  11.080
21300SOL    HW265734   6.226  10.512  11.217
21301SOL     OW65735   5.123   1.380   1.008
21301SOL    HW165736   5.077   1.366   1.091
21301SOL    HW265737   5.054   1.404   0.946
21302SOL     OW65738  10.369   4.174   4.797
21302SOL    HW165739  10.305   4.131   4.740
21302SOL    HW265740  10.322   4.247   4.836
21303SOL     OW65741  13.839   5.917   8.732
21303SOL    HW165742  13.907   5.917   8.665
21303SOL    HW265743  13.880   5.958   8.808
21304SOL     OW65744   3.219   5.162   7.939
21304SOL    HW165745   3.294   5.187   7.885
21304SOL    HW265746   3.143   5.180   7.884
21305SOL     OW65747  10.771   1.343  13.460
21305SOL    HW165748  10.687   1.386  13.444
21305SOL    HW265749  10.749   1.266  13.513
21306SOL     OW65750   0.943   1.885   4.368
21306SOL    HW165751   0.963   1.809   4.423
21306SOL    HW265752   0.862   1.921   4.405
21307SOL     OW65753  14.281   9.351   8.559
21307SOL    HW165754  14.210   9.288   8.573
21307SOL    HW265755  14.268   9.417   8.628
21308SOL     OW65756   0.614   7.186  10.181
21308SOL    HW165757   0.690   7.206  10.127
21308SOL    HW265758   0.560   7.129  10.126
21309SOL     OW65759  14.117   1.868   1.073
21309SOL    HW165760  14.144   1.907   0.990
21309SOL    HW265761  14.194   1.821   1.103
21310SOL     OW65762   5.320   0.494  13.105
21310SOL    HW165763   5.303   0.513  13.197
21310SOL    HW265764   5.384   0.423  13.106
21311SOL     OW65765   5.255   9.949   3.651
21311SOL    HW165766   5.230  10.036   3.682
21311SOL    HW265767   5.312   9.915   3.720
21312SOL     OW65768   8.139   6.531  10.970
21312SOL    HW165769   8.156   6.462  10.906
21312SOL    HW265770   8.100   6.485  11.044
21313SOL     OW65771  13.108   0.821   7.859
21313SOL    HW165772  13.062   0.848   7.779
21313SOL    HW265773  13.200   0.811   7.831
21314SOL     OW65774   6.275   6.845  11.324
21314SOL    HW165775   6.251   6.933  11.294
21314SOL    HW265776   6.337   6.814  11.258
21315SOL     OW65777  12.629   5.329   5.722
21315SOL    HW165778  12.690   5.363   5.788
21315SOL    HW265779  12.588   5.407   5.685
21316SOL     OW65780   2.277   6.491   4.097
21316SOL    HW165781   2.219   6.472   4.171
21316SOL    HW265782   2.328   6.411   4.085
21317SOL     OW65783   8.081   0.789  12.682
21317SOL    HW165784   8.149   0.768  12.746
21317SOL    HW265785   8.104   0.737  12.605
21318SOL     OW65786   6.376   0.757   7.876
21318SOL    HW165787   6.462   0.720   7.894
21318SOL    HW265788   6.340   0.775   7.963
21319SOL     OW65789   9.781   3.345  13.976
21319SOL    HW165790   9.846   3.415  13.982
21319SOL    HW265791   9.716   3.368  14.042
21320SOL     OW65792   1.529   0.030   1.462
21320SOL    HW165793   1.542  14.816   1.445
21320SOL    HW265794   1.492   0.033   1.550
21321SOL     OW65795   4.188   8.957   6.715
21321SOL    HW165796   4.119   8.979   6.778
21321SOL    HW265797   4.140   8.932   6.636
21322SOL     OW65798  12.712   2.174  14.340
21322SOL    HW165799  12.655   2.117  14.287
21322SOL    HW265800  12.652   2.237  14.379
21323SOL     OW65801   4.897   8.841   5.746
21323SOL    HW165802   4.948   8.919   5.768
21323SOL    HW265803   4.885   8.796   5.830
21324SOL     OW65804   4.658   0.639   9.564
21324SOL    HW165805   4.735   0.665   9.614
21324SOL    HW265806   4.692   0.584   9.494
21325SOL     OW65807   1.944   5.306   9.910
21325SOL    HW165808   1.850   5.312   9.926
21325SOL    HW265809   1.955   5.224   9.861
21326SOL     OW65810   3.822   7.847   9.285
21326SOL    HW165811   3.801   7.938   9.305
21326SOL    HW265812   3.916   7.848   9.266
21327SOL     OW65813   4.288   6.851  11.759
21327SOL    HW165814   4.340   6.771  11.759
21327SOL    HW265815   4.352   6.922  11.764
21328SOL     OW65816  13.387  13.728  11.486
21328SOL    HW165817  13.463  13.682  11.521
21328SOL    HW265818  13.329  13.659  11.454
21329SOL     OW65819  10.928   7.864   2.975
21329SOL    HW165820  10.945   7.781   3.018
21329SOL    HW265821  10.948   7.849   2.882
21330SOL     OW65822   2.805   9.618   3.873
21330SOL    HW165823   2.815   9.687   3.807
21330SOL    HW265824   2.827   9.661   3.956
21331SOL     OW65825  11.993   5.513  10.857
21331SOL    HW165826  11.989   5.487  10.949
21331SOL    HW265827  12.051   5.589  10.855
21332SOL     OW65828  10.895   8.476  14.165
21332SOL    HW165829  10.978   8.427  14.164
21332SOL    HW265830  10.921   8.567  14.173
21333SOL     OW65831   4.455   8.672  12.054
21333SOL    HW165832   4.485   8.615  12.125
21333SOL    HW265833   4.411   8.613  11.993
21334SOL     OW65834   4.020   5.235  10.535
21334SOL    HW165835   4.035   5.316  10.486
21334SOL    HW265836   3.937   5.203  10.503
21335SOL     OW65837  12.738   9.192   6.489
21335SOL    HW165838  12.755   9.126   6.556
21335SOL    HW265839  12.819   9.198   6.440
21336SOL     OW65840   1.582  13.343   0.012
21336SOL    HW165841   1.555  13.252   0.022
21336SOL    HW265842   1.551  13.386   0.091
21337SOL     OW65843   9.980   5.902   2.949
21337SOL    HW165844   9.910   5.950   2.906
21337SOL    HW265845  10.006   5.958   3.022
21338SOL     OW65846  14.603  10.425  10.549
21338SOL    HW165847  14.633  10.351  10.497
21338SOL    HW265848  14.672  10.491  10.539
21339SOL     OW65849   3.663  11.519   3.925
21339SOL    HW165850   3.582  11.553   3.889
21339SOL    HW265851   3.637  11.443   3.978
21340SOL     OW65852  12.160  11.109  14.137
21340SOL    HW165853  12.195  11.100  14.049
21340SOL    HW265854  12.078  11.059  14.136
21341SOL     OW65855   8.480   8.567   6.897
21341SOL    HW165856   8.562   8.590   6.853
21341SOL    HW265857   8.479   8.471   6.898
21342SOL     OW65858   5.749   5.181   5.375
21342SOL    HW165859   5.658   5.193   5.401
21342SOL    HW265860   5.758   5.229   5.293
21343SOL     OW65861  13.485   7.416  10.264
21343SOL    HW165862  13.456   7.506  10.249
21343SOL    HW265863  13.428   7.362  10.209
21344SOL     OW65864  14.461   2.640  13.032
21344SOL    HW165865  14.434   2.615  12.944
21344SOL    HW265866  14.486   2.733  13.024
21345SOL     OW65867   6.052   0.610   0.894
21345SOL    HW165868   6.138   0.634   0.926
21345SOL    HW265869   6.027   0.683   0.836
21346SOL     OW65870   4.250   6.750  10.676
21346SOL    HW165871   4.209   6.663  10.671
21346SOL    HW265872   4.320   6.740  10.739
21347SOL     OW65873   5.035   6.137  13.099
21347SOL    HW165874   5.076   6.183  13.172
21347SOL    HW265875   5.077   6.051  13.098
21348SOL     OW65876   9.264  11.794   0.511
21348SOL    HW165877   9.334  11.802   0.575
21348SOL    HW265878   9.295  11.729   0.448
21349SOL     OW65879   7.498  13.986   6.320
21349SOL    HW165880   7.466  14.075   6.309
21349SOL    HW265881   7.471  13.963   6.409
21350SOL     OW65882   4.062   0.241   8.188
21350SOL    HW165883   4.046   0.165   8.243
21350SOL    HW265884   4.076   0.205   8.101
21351SOL     OW65885   2.356   9.233   6.424
21351SOL    HW165886   2.269   9.268   6.405
21351SOL    HW265887   2.365   9.159   6.364
21352SOL     OW65888   5.491   0.027  13.788
21352SOL    HW165889   5.507  14.831  13.846
21352SOL    HW265890   5.476  14.867  13.702
21353SOL     OW65891   8.290  13.834   8.432
21353SOL    HW165892   8.251  13.753   8.401
21353SOL    HW265893   8.383  13.828   8.408
21354SOL     OW65894   3.042   4.365   7.672
21354SOL    HW165895   3.059   4.405   7.587
21354SOL    HW265896   2.957   4.400   7.698
21355SOL     OW65897   2.024   3.519   3.704
21355SOL    HW165898   2.054   3.608   3.684
21355SOL    HW265899   1.952   3.504   3.642
21356SOL     OW65900   2.757  14.573  11.599
21356SOL    HW165901   2.711  14.570  11.516
21356SOL    HW265902   2.828  14.635  11.585
21357SOL     OW65903   9.401  14.241   0.954
21357SOL    HW165904   9.333  14.273   0.896
21357SOL    HW265905   9.371  14.154   0.980
21358SOL     OW65906  13.626  11.548  10.590
21358SOL    HW165907  13.551  11.566  10.648
21358SOL    HW265908  13.681  11.626  10.599
21359SOL     OW65909   7.279  14.133  13.663
21359SOL    HW165910   7.231  14.074  13.721
21359SOL    HW265911   7.258  14.102  13.575
21360SOL     OW65912   7.590  14.751   6.062
21360SOL    HW165913   7.504  14.718   6.086
21360SOL    HW265914   7.636  14.675   6.026
21361SOL     OW65915  12.223   7.528   5.114
21361SOL    HW165916  12.309   7.540   5.155
21361SOL    HW265917  12.220   7.434   5.094
21362SOL     OW65918   1.055   4.696   2.224
21362SOL    HW165919   1.068   4.615   2.173
21362SOL    HW265920   0.960   4.707   2.228
21363SOL     OW65921   7.831   5.954   2.608
21363SOL    HW165922   7.905   5.898   2.582
21363SOL    HW265923   7.823   5.941   2.703
21364SOL     OW65924  10.578  12.989   9.691
21364SOL    HW165925  10.626  13.006   9.609
21364SOL    HW265926  10.532  13.071   9.709
21365SOL     OW65927   2.549   2.160   0.637
21365SOL    HW165928   2.551   2.237   0.694
21365SOL    HW265929   2.606   2.182   0.564
21366SOL     OW65930  10.447   3.043  11.104
21366SOL    HW165931  10.411   3.109  11.163
21366SOL    HW265932  10.473   3.092  11.026
21367SOL     OW65933   2.301  13.949  14.583
21367SOL    HW165934   2.211  13.974  14.602
21367SOL    HW265935   2.306  13.856  14.605
21368SOL     OW65936   0.727   6.950   6.240
21368SOL    HW165937   0.655   6.887   6.225
21368SOL    HW265938   0.701   6.998   6.318
21369SOL     OW65939  13.925   5.966   1.269
21369SOL    HW165940  13.856   5.900   1.275
21369SOL    HW265941  14.004   5.916   1.247
21370SOL     OW65942   5.316  12.685  10.962
21370SOL    HW165943   5.410  12.701  10.952
21370SOL    HW265944   5.274  12.754  10.911
21371SOL     OW65945   0.452   1.667   7.301
21371SOL    HW165946   0.374   1.693   7.350
21371SOL    HW265947   0.490   1.749   7.271
21372SOL     OW65948  12.510  14.515  12.914
21372SOL    HW165949  12.514  14.591  12.972
21372SOL    HW265950  12.486  14.442  12.971
21373SOL     OW65951   7.202   6.676   3.017
21373SOL    HW165952   7.175   6.719   2.936
21373SOL    HW265953   7.127   6.622   3.042
21374SOL     OW65954   1.704   3.262   9.588
21374SOL    HW165955   1.666   3.180   9.619
21374SOL    HW265956   1.709   3.317   9.666
21375SOL     OW65957   1.769  11.991   4.018
21375SOL    HW165958   1.819  12.046   3.957
21375SOL    HW265959   1.812  12.004   4.103
21376SOL     OW65960   1.966   9.919   8.959
21376SOL    HW165961   1.977   9.928   9.054
21376SOL    HW265962   2.052   9.891   8.928
21377SOL     OW65963   5.985  11.325   1.581
21377SOL    HW165964   5.915  11.389   1.595
21377SOL    HW265965   6.060  11.360   1.628
21378SOL     OW65966   5.269  11.911  10.365
21378SOL    HW165967   5.206  11.889  10.433
21378SOL    HW265968   5.327  11.975  10.406
21379SOL     OW65969   3.068  13.483   5.227
21379SOL    HW165970   3.140  13.521   5.279
21379SOL    HW265971   3.064  13.537   5.149
21380SOL     OW65972   7.534  14.005   7.272
21380SOL    HW165973   7.512  14.077   7.213
21380SOL    HW265974   7.629  13.997   7.265
21381SOL     OW65975  13.558   0.850  14.589
21381SOL    HW165976  13.505   0.925  14.616
21381SOL    HW265977  13.628   0.888  14.536
21382SOL     OW65978   6.557  12.999   2.804
21382SOL    HW165979   6.470  12.977   2.771
21382SOL    HW265980   6.614  12.931   2.769
21383SOL     OW65981  11.794   0.064   4.765
21383SOL    HW165982  11.851   0.123   4.716
21383SOL    HW265983  11.854  14.875   4.799
21384SOL     OW65984   8.520   4.101   7.737
21384SOL    HW165985   8.516   4.053   7.820
21384SOL    HW265986   8.605   4.078   7.700
21385SOL     OW65987   1.217  13.034  12.117
21385SOL    HW165988   1.306  13.007  12.093
21385SOL    HW265989   1.222  13.050  12.211
21386SOL     OW65990   5.949  14.853   5.758
21386SOL    HW165991   5.911  14.816   5.838
21386SOL    HW265992   5.914  14.800   5.687
21387SOL     OW65993  10.695  14.686   0.933
21387SOL    HW165994  10.737  14.601   0.916
21387SOL    HW265995  10.602  14.670   0.916
21388SOL     OW65996  13.290  12.395  13.133
21388SOL    HW165997  13.283  12.467  13.071
21388SOL    HW265998  13.206  12.348  13.126
21389SOL     OW65999   5.620   9.093   7.751
21389SOL    HW166000   5.711   9.115   7.734
21389SOL    HW266001   5.573   9.176   7.742
21390SOL     OW66002  14.789   2.635   5.302
21390SOL    HW166003  14.793   2.542   5.325
21390SOL    HW266004  14.859   2.675   5.353
21391SOL     OW66005   1.366   2.256  12.663
21391SOL    HW166006   1.363   2.190  12.732
21391SOL    HW266007   1.459   2.269  12.647
21392SOL     OW66008  13.376  12.480   0.818
21392SOL    HW166009  13.332  12.412   0.869
21392SOL    HW266010  13.346  12.466   0.728
21393SOL     OW66011   9.910  10.032   4.017
21393SOL    HW166012   9.845  10.042   4.087
21393SOL    HW266013   9.980  10.093   4.042
21394SOL     OW66014  10.521  14.760   4.641
21394SOL    HW166015  10.455  14.827   4.655
21394SOL    HW266016  10.558  14.779   4.555
21395SOL     OW66017  11.798   3.811   9.112
21395SOL    HW166018  11.702   3.819   9.113
21395SOL    HW266019  11.815   3.729   9.159
21396SOL     OW66020   6.556   2.418  12.903
21396SOL    HW166021   6.572   2.420  12.998
21396SOL    HW266022   6.558   2.325  12.881
21397SOL     OW66023   2.347   0.283  10.784
21397SOL    HW166024   2.254   0.267  10.804
21397SOL    HW266025   2.352   0.376  10.765
21398SOL     OW66026  14.651   4.946  13.129
21398SOL    HW166027  14.708   4.984  13.062
21398SOL    HW266028  14.655   5.008  13.202
21399SOL     OW66029   4.507   7.478   2.042
21399SOL    HW166030   4.536   7.568   2.031
21399SOL    HW266031   4.412   7.482   2.026
21400SOL     OW66032   0.617   0.968   5.336
21400SOL    HW166033   0.697   0.987   5.287
21400SOL    HW266034   0.600   0.875   5.319
21401SOL     OW66035   3.464  13.293   6.135
21401SOL    HW166036   3.493  13.365   6.079
21401SOL    HW266037   3.482  13.214   6.084
21402SOL     OW66038   7.735   8.135   1.929
21402SOL    HW166039   7.774   8.171   1.849
21402SOL    HW266040   7.701   8.049   1.903
21403SOL     OW66041   9.448   7.614   6.274
21403SOL    HW166042   9.418   7.606   6.365
21403SOL    HW266043   9.505   7.691   6.275
21404SOL     OW66044  13.442   4.313  13.440
21404SOL    HW166045  13.387   4.256  13.495
21404SOL    HW266046  13.432   4.400  13.478
21405SOL     OW66047   1.536   2.888   7.769
21405SOL    HW166048   1.515   2.977   7.796
21405SOL    HW266049   1.455   2.839   7.783
21406SOL     OW66050   7.266   4.905   0.106
21406SOL    HW166051   7.227   4.950   0.181
21406SOL    HW266052   7.301   4.975   0.051
21407SOL     OW66053   1.631   2.057   9.922
21407SOL    HW166054   1.609   2.111   9.998
21407SOL    HW266055   1.546   2.028   9.888
21408SOL     OW66056   5.259   8.332   0.495
21408SOL    HW166057   5.344   8.330   0.538
21408SOL    HW266058   5.201   8.284   0.553
21409SOL     OW66059   7.852  12.581   3.275
21409SOL    HW166060   7.893  12.660   3.311
21409SOL    HW266061   7.772  12.613   3.233
21410SOL     OW66062  14.510   6.441  11.790
21410SOL    HW166063  14.561   6.490  11.726
21410SOL    HW266064  14.566   6.435  11.867
21411SOL     OW66065   8.195   0.051  14.012
21411SOL    HW166066   8.158   0.130  14.050
21411SOL    HW266067   8.164   0.050  13.921
21412SOL     OW66068   7.748   0.804   4.711
21412SOL    HW166069   7.732   0.827   4.802
21412SOL    HW266070   7.768   0.710   4.714
21413SOL     OW66071   3.906   9.652   9.552
21413SOL    HW166072   3.864   9.737   9.544
21413SOL    HW266073   3.833   9.590   9.561
21414SOL     OW66074  11.253   7.757   1.979
21414SOL    HW166075  11.273   7.669   1.946
21414SOL    HW266076  11.170   7.780   1.937
21415SOL     OW66077   9.180   3.128  10.086
21415SOL    HW166078   9.246   3.106  10.152
21415SOL    HW266079   9.215   3.205  10.041
21416SOL     OW66080   7.248   6.544  13.427
21416SOL    HW166081   7.215   6.557  13.338
21416SOL    HW266082   7.172   6.510  13.475
21417SOL     OW66083  11.493  12.685   0.355
21417SOL    HW166084  11.405  12.676   0.319
21417SOL    HW266085  11.512  12.779   0.350
21418SOL     OW66086   6.264  12.440   8.859
21418SOL    HW166087   6.203  12.368   8.844
21418SOL    HW266088   6.347  12.397   8.881
21419SOL     OW66089  11.782   7.286  11.202
21419SOL    HW166090  11.778   7.364  11.147
21419SOL    HW266091  11.742   7.313  11.285
21420SOL     OW66092   8.425   9.261   5.266
21420SOL    HW166093   8.478   9.183   5.248
21420SOL    HW266094   8.365   9.267   5.192
21421SOL     OW66095   5.041   1.840   1.651
21421SOL    HW166096   4.965   1.817   1.705
21421SOL    HW266097   5.115   1.797   1.695
21422SOL     OW66098   8.393   6.452   7.001
21422SOL    HW166099   8.382   6.369   7.048
21422SOL    HW266100   8.330   6.511   7.043
21423SOL     OW66101   1.932   3.011   1.091
21423SOL    HW166102   1.856   2.985   1.143
21423SOL    HW266103   1.916   2.973   1.005
21424SOL     OW66104   1.087   6.261   1.931
21424SOL    HW166105   1.007   6.312   1.917
21424SOL    HW266106   1.146   6.321   1.977
21425SOL     OW66107   2.972  14.344   9.983
21425SOL    HW166108   3.041  14.306   9.929
21425SOL    HW266109   2.996  14.320  10.073
21426SOL     OW66110   6.530  13.316   1.102
21426SOL    HW166111   6.537  13.272   1.017
21426SOL    HW266112   6.585  13.395   1.092
21427SOL     OW66113  12.123   5.687  12.895
21427SOL    HW166114  12.183   5.732  12.836
21427SOL    HW266115  12.136   5.594  12.877
21428SOL     OW66116   3.070   3.607  11.696
21428SOL    HW166117   3.024   3.603  11.612
21428SOL    HW266118   3.131   3.680  11.687
21429SOL     OW66119   1.768   4.295  11.254
21429SOL    HW166120   1.839   4.315  11.195
21429SOL    HW266121   1.722   4.222  11.213
21430SOL     OW66122   1.896  12.920   1.795
21430SOL    HW166123   1.843  12.919   1.715
21430SOL    HW266124   1.986  12.907   1.764
21431SOL     OW66125  10.273   7.393   4.319
21431SOL    HW166126  10.354   7.352   4.350
21431SOL    HW266127  10.227   7.418   4.399
21432SOL     OW66128   0.549   2.855   7.864
21432SOL    HW166129   0.480   2.793   7.838
21432SOL    HW266130   0.518   2.940   7.834
21433SOL     OW66131   4.053   8.135  14.538
21433SOL    HW166132   4.074   8.044  14.555
21433SOL    HW266133   4.137   8.181  14.539
21434SOL     OW66134   2.005   7.080   5.923
21434SOL    HW166135   2.072   7.141   5.892
21434SOL    HW266136   2.032   7.058   6.012
21435SOL     OW66137   2.569   5.737   9.888
21435SOL    HW166138   2.548   5.786   9.968
21435SOL    HW266139   2.586   5.805   9.823
21436SOL     OW66140   1.950  11.812  12.094
21436SOL    HW166141   1.978  11.756  12.022
21436SOL    HW266142   1.936  11.752  12.167
21437SOL     OW66143  10.511   1.124  10.248
21437SOL    HW166144  10.483   1.142  10.158
21437SOL    HW266145  10.509   1.209  10.291
21438SOL     OW66146   9.078  14.170   0.069
21438SOL    HW166147   9.141  14.143   0.003
21438SOL    HW266148   8.994  14.169   0.024
21439SOL     OW66149  10.070  10.927   7.759
21439SOL    HW166150  10.019  10.850   7.737
21439SOL    HW266151  10.017  11.001   7.728
21440SOL     OW66152   8.735   9.830   8.552
21440SOL    HW166153   8.714   9.778   8.474
21440SOL    HW266154   8.652   9.838   8.599
21441SOL     OW66155   3.789   7.616   5.591
21441SOL    HW166156   3.786   7.692   5.534
21441SOL    HW266157   3.862   7.633   5.651
21442SOL     OW66158   6.944   2.875   3.132
21442SOL    HW166159   6.869   2.929   3.155
21442SOL    HW266160   6.929   2.792   3.179
21443SOL     OW66161   4.084   4.936   1.653
21443SOL    HW166162   4.094   4.851   1.696
21443SOL    HW266163   4.106   5.000   1.720
21444SOL     OW66164   0.350   2.902  12.155
21444SOL    HW166165   0.394   2.858  12.082
21444SOL    HW266166   0.414   2.900  12.226
21445SOL     OW66167   8.965  11.269   3.193
21445SOL    HW166168   9.028  11.314   3.137
21445SOL    HW266169   8.881  11.277   3.147
21446SOL     OW66170  12.575   4.483  14.842
21446SOL    HW166171  12.629   4.419   0.009
21446SOL    HW266172  12.486   4.466  14.872
21447SOL     OW66173   2.474   2.629  10.950
21447SOL    HW166174   2.506   2.571  10.880
21447SOL    HW266175   2.378   2.625  10.942
21448SOL     OW66176  13.569   0.932  12.590
21448SOL    HW166177  13.570   1.016  12.635
21448SOL    HW266178  13.499   0.941  12.525
21449SOL     OW66179  12.667  14.615   1.996
21449SOL    HW166180  12.674  14.661   1.912
21449SOL    HW266181  12.717  14.669   2.057
21450SOL     OW66182  13.489   6.827   0.762
21450SOL    HW166183  13.478   6.914   0.801
21450SOL    HW266184  13.412   6.778   0.791
21451SOL     OW66185  13.968   8.851   5.706
21451SOL    HW166186  14.029   8.778   5.716
21451SOL    HW266187  14.002   8.919   5.765
21452SOL     OW66188  14.563   8.339  12.276
21452SOL    HW166189  14.505   8.265  12.296
21452SOL    HW266190  14.507   8.416  12.283
21453SOL     OW66191   1.414   8.590  13.501
21453SOL    HW166192   1.426   8.533  13.425
21453SOL    HW266193   1.447   8.539  13.575
21454SOL     OW66194   8.162  10.768  11.223
21454SOL    HW166195   8.178  10.687  11.174
21454SOL    HW266196   8.067  10.774  11.230
21455SOL     OW66197   2.004  10.262  11.507
21455SOL    HW166198   2.037  10.204  11.439
21455SOL    HW266199   1.928  10.215  11.543
21456SOL     OW66200  12.656  10.742   2.392
21456SOL    HW166201  12.584  10.802   2.410
21456SOL    HW266202  12.688  10.716   2.479
21457SOL     OW66203   3.812   0.303   3.584
21457SOL    HW166204   3.832   0.328   3.674
21457SOL    HW266205   3.883   0.341   3.533
21458SOL     OW66206   4.010   8.364  12.196
21458SOL    HW166207   4.020   8.376  12.102
21458SOL    HW266208   4.098   8.342  12.227
21459SOL     OW66209  12.134   8.305   7.023
21459SOL    HW166210  12.154   8.381   6.968
21459SOL    HW266211  12.088   8.245   6.964
21460SOL     OW66212  13.113   0.573   5.302
21460SOL    HW166213  13.077   0.501   5.249
21460SOL    HW266214  13.061   0.572   5.382
21461SOL     OW66215  10.970   6.833   3.492
21461SOL    HW166216  11.028   6.760   3.513
21461SOL    HW266217  10.944   6.818   3.401
21462SOL     OW66218   4.176  12.853   2.836
21462SOL    HW166219   4.137  12.855   2.923
21462SOL    HW266220   4.162  12.941   2.801
21463SOL     OW66221  11.177   5.565   3.110
21463SOL    HW166222  11.247   5.572   3.175
21463SOL    HW266223  11.136   5.651   3.110
21464SOL     OW66224  11.817   6.860  12.094
21464SOL    HW166225  11.877   6.934  12.101
21464SOL    HW266226  11.864   6.787  12.134
21465SOL     OW66227   6.881   8.276   8.335
21465SOL    HW166228   6.918   8.286   8.423
21465SOL    HW266229   6.790   8.305   8.344
21466SOL     OW66230   5.315  13.718   7.668
21466SOL    HW166231   5.267  13.663   7.606
21466SOL    HW266232   5.389  13.751   7.617
21467SOL     OW66233   6.244   4.118  12.082
21467SOL    HW166234   6.279   4.030  12.067
21467SOL    HW266235   6.240   4.126  12.177
21468SOL     OW66236   1.468   7.698   3.685
21468SOL    HW166237   1.464   7.764   3.754
21468SOL    HW266238   1.394   7.721   3.627
21469SOL     OW66239   5.318   0.605  10.168
21469SOL    HW166240   5.378   0.679  10.160
21469SOL    HW266241   5.312   0.589  10.263
21470SOL     OW66242   7.328   8.713   7.440
21470SOL    HW166243   7.295   8.637   7.488
21470SOL    HW266244   7.252   8.744   7.389
21471SOL     OW66245   3.613   7.429   3.303
21471SOL    HW166246   3.539   7.457   3.248
21471SOL    HW266247   3.652   7.511   3.334
21472SOL     OW66248   3.877   1.360   4.877
21472SOL    HW166249   3.844   1.298   4.941
21472SOL    HW266250   3.819   1.349   4.801
21473SOL     OW66251  10.194  11.391   3.747
21473SOL    HW166252  10.179  11.367   3.838
21473SOL    HW266253  10.277  11.438   3.747
21474SOL     OW66254   6.279   3.825  14.118
21474SOL    HW166255   6.273   3.734  14.088
21474SOL    HW266256   6.368   3.852  14.094
21475SOL     OW66257   9.861   4.392  12.824
21475SOL    HW166258   9.852   4.470  12.880
21475SOL    HW266259   9.795   4.404  12.755
21476SOL     OW66260  13.054   7.812  13.357
21476SOL    HW166261  12.987   7.749  13.382
21476SOL    HW266262  13.046   7.819  13.262
21477SOL     OW66263  13.358  12.300   3.789
21477SOL    HW166264  13.402  12.230   3.836
21477SOL    HW266265  13.267  12.296   3.820
21478SOL     OW66266   4.467  10.782   3.595
21478SOL    HW166267   4.468  10.864   3.545
21478SOL    HW266268   4.542  10.790   3.654
21479SOL     OW66269  11.986   4.794   2.470
21479SOL    HW166270  11.932   4.715   2.479
21479SOL    HW266271  12.037   4.797   2.551
21480SOL     OW66272   7.786   4.075   7.787
21480SOL    HW166273   7.840   4.152   7.808
21480SOL    HW266274   7.805   4.013   7.857
21481SOL     OW66275   2.535  10.717  11.848
21481SOL    HW166276   2.478  10.790  11.824
21481SOL    HW266277   2.569  10.685  11.765
21482SOL     OW66278  11.816   1.647   0.834
21482SOL    HW166279  11.768   1.575   0.875
21482SOL    HW266280  11.798   1.637   0.740
21483SOL     OW66281  10.620   1.297  12.926
21483SOL    HW166282  10.694   1.304  12.986
21483SOL    HW266283  10.620   1.206  12.898
21484SOL     OW66284   0.745   9.439   3.818
21484SOL    HW166285   0.752   9.439   3.723
21484SOL    HW266286   0.722   9.348   3.840
21485SOL     OW66287   4.747   9.569   7.448
21485SOL    HW166288   4.762   9.662   7.465
21485SOL    HW266289   4.652   9.558   7.454
21486SOL     OW66290  14.818   8.763  13.495
21486SOL    HW166291  14.781   8.781  13.409
21486SOL    HW266292  14.791   8.674  13.515
21487SOL     OW66293   5.638  11.842   5.230
21487SOL    HW166294   5.545  11.855   5.216
21487SOL    HW266295   5.677  11.853   5.143
21488SOL     OW66296   0.256   2.637   7.023
21488SOL    HW166297   0.223   2.606   7.107
21488SOL    HW266298   0.178   2.659   6.973
21489SOL     OW66299   5.132  10.525  13.698
21489SOL    HW166300   5.090  10.440  13.685
21489SOL    HW266301   5.217  10.517  13.656
21490SOL     OW66302   9.881   3.768   0.951
21490SOL    HW166303   9.821   3.793   1.021
21490SOL    HW266304   9.831   3.706   0.898
21491SOL     OW66305  12.202   9.547   0.641
21491SOL    HW166306  12.225   9.478   0.579
21491SOL    HW266307  12.161   9.615   0.588
21492SOL     OW66308  12.459   1.188  14.829
21492SOL    HW166309  12.535   1.178  14.772
21492SOL    HW266310  12.384   1.166  14.774
21493SOL     OW66311  12.801  12.328   9.185
21493SOL    HW166312  12.825  12.267   9.255
21493SOL    HW266313  12.883  12.371   9.161
21494SOL     OW66314  10.597  11.246   7.870
21494SOL    HW166315  10.690  11.232   7.847
21494SOL    HW266316  10.589  11.210   7.958
21495SOL     OW66317   0.905   7.544  11.052
21495SOL    HW166318   0.883   7.453  11.033
21495SOL    HW266319   0.822   7.591  11.044
21496SOL     OW66320  11.919   1.063  14.040
21496SOL    HW166321  11.880   1.138  13.995
21496SOL    HW266322  12.012   1.085  14.047
21497SOL     OW66323   6.537   4.198   3.412
21497SOL    HW166324   6.469   4.181   3.347
21497SOL    HW266325   6.516   4.137   3.484
21498SOL     OW66326  13.193   9.812   8.684
21498SOL    HW166327  13.197   9.720   8.659
21498SOL    HW266328  13.156   9.811   8.773
21499SOL     OW66329  13.511   4.085  12.505
21499SOL    HW166330  13.536   4.013  12.563
21499SOL    HW266331  13.569   4.157  12.531
21500SOL     OW66332   6.100   6.646  10.891
21500SOL    HW166333   6.093   6.595  10.811
21500SOL    HW266334   6.080   6.584  10.961
21501SOL     OW66335   4.490   5.264  10.685
21501SOL    HW166336   4.398   5.239  10.691
21501SOL    HW266337   4.534   5.208  10.749
21502SOL     OW66338  13.035   0.934   7.611
21502SOL    HW166339  13.127   0.953   7.591
21502SOL    HW266340  12.986   0.987   7.548
21503SOL     OW66341  11.180   8.948  11.848
21503SOL    HW166342  11.264   8.991  11.863
21503SOL    HW266343  11.115   9.016  11.862
21504SOL     OW66344   9.050   2.509   4.310
21504SOL    HW166345   9.065   2.484   4.401
21504SOL    HW266346   8.966   2.469   4.287
21505SOL     OW66347  13.580   9.039  12.590
21505SOL    HW166348  13.626   9.094  12.654
21505SOL    HW266349  13.630   9.049  12.510
21506SOL     OW66350   1.391   5.926   2.345
21506SOL    HW166351   1.472   5.930   2.396
21506SOL    HW266352   1.349   5.844   2.373
21507SOL     OW66353  11.511   7.742   6.962
21507SOL    HW166354  11.470   7.704   7.040
21507SOL    HW266355  11.594   7.778   6.994
21508SOL     OW66356   6.138   4.247   3.275
21508SOL    HW166357   6.168   4.338   3.272
21508SOL    HW266358   6.218   4.195   3.280
21509SOL     OW66359   3.368   3.045  14.721
21509SOL    HW166360   3.370   3.005  14.634
21509SOL    HW266361   3.363   2.971  14.782
21510SOL     OW66362   2.882   8.219  10.327
21510SOL    HW166363   2.846   8.262  10.248
21510SOL    HW266364   2.941   8.152  10.293
21511SOL     OW66365   9.701  13.066  14.167
21511SOL    HW166366   9.676  13.047  14.258
21511SOL    HW266367   9.754  12.991  14.141
21512SOL     OW66368  14.845   8.990   3.905
21512SOL    HW166369  14.771   9.050   3.896
21512SOL    HW266370  14.820   8.913   3.854
21513SOL     OW66371  11.553   7.267   9.924
21513SOL    HW166372  11.461   7.254   9.899
21513SOL    HW266373  11.582   7.342   9.872
21514SOL     OW66374   7.638   7.136  14.501
21514SOL    HW166375   7.727   7.168  14.517
21514SOL    HW266376   7.649   7.057  14.450
21515SOL     OW66377   0.886   5.846   0.892
21515SOL    HW166378   0.933   5.788   0.833
21515SOL    HW266379   0.884   5.798   0.975
21516SOL     OW66380   0.264  14.840   8.204
21516SOL    HW166381   0.203   0.011   8.258
21516SOL    HW266382   0.217  14.825   8.122
21517SOL     OW66383   6.284   8.174  10.619
21517SOL    HW166384   6.242   8.088  10.618
21517SOL    HW266385   6.244   8.221  10.546
21518SOL     OW66386   3.234  11.727   1.425
21518SOL    HW166387   3.280  11.811   1.418
21518SOL    HW266388   3.262  11.678   1.347
21519SOL     OW66389   4.577   2.897   8.829
21519SOL    HW166390   4.483   2.879   8.831
21519SOL    HW266391   4.618   2.812   8.842
21520SOL     OW66392   3.942   5.812   7.965
21520SOL    HW166393   3.870   5.750   7.971
21520SOL    HW266394   3.904   5.890   7.924
21521SOL     OW66395   1.713   5.144   3.338
21521SOL    HW166396   1.755   5.229   3.338
21521SOL    HW266397   1.643   5.152   3.403
21522SOL     OW66398   8.551   5.594  13.433
21522SOL    HW166399   8.533   5.640  13.352
21522SOL    HW266400   8.520   5.505  13.417
21523SOL     OW66401   4.898  14.553   9.695
21523SOL    HW166402   4.884  14.638   9.654
21523SOL    HW266403   4.968  14.568   9.758
21524SOL     OW66404   6.343  10.212   5.910
21524SOL    HW166405   6.398  10.135   5.895
21524SOL    HW266406   6.312  10.237   5.823
21525SOL     OW66407   6.087  14.268   9.313
21525SOL    HW166408   6.033  14.295   9.387
21525SOL    HW266409   6.109  14.177   9.331
21526SOL     OW66410   8.237   1.288  12.321
21526SOL    HW166411   8.188   1.357  12.366
21526SOL    HW266412   8.314   1.273  12.376
21527SOL     OW66413   1.849  12.413   2.675
21527SOL    HW166414   1.865  12.479   2.608
21527SOL    HW266415   1.762  12.378   2.654
21528SOL     OW66416   5.778   7.608  13.619
21528SOL    HW166417   5.797   7.516  13.600
21528SOL    HW266418   5.838   7.657  13.563
21529SOL     OW66419   3.720   0.640   6.361
21529SOL    HW166420   3.749   0.709   6.421
21529SOL    HW266421   3.784   0.570   6.372
21530SOL     OW66422  14.839  12.427   4.691
21530SOL    HW166423  14.748  12.408   4.716
21530SOL    HW266424   0.012  12.367   4.743
21531SOL     OW66425  12.214  10.992  10.443
21531SOL    HW166426  12.210  11.083  10.413
21531SOL    HW266427  12.300  10.985  10.484
21532SOL     OW66428   3.110   4.296   8.252
21532SOL    HW166429   3.118   4.328   8.163
21532SOL    HW266430   3.169   4.351   8.303
21533SOL     OW66431   1.010  13.699   0.105
21533SOL    HW166432   1.106  13.698   0.107
21533SOL    HW266433   0.984  13.646   0.180
21534SOL     OW66434   2.205   3.728   8.587
21534SOL    HW166435   2.285   3.689   8.621
21534SOL    HW266436   2.156   3.754   8.665
21535SOL     OW66437  10.704  11.630  12.946
21535SOL    HW166438  10.784  11.658  12.903
21535SOL    HW266439  10.664  11.569  12.883
21536SOL     OW66440   6.491  10.157   4.572
21536SOL    HW166441   6.419  10.170   4.633
21536SOL    HW266442   6.565  10.133   4.628
21537SOL     OW66443  12.655   6.919   1.292
21537SOL    HW166444  12.725   6.959   1.241
21537SOL    HW266445  12.595   6.884   1.226
21538SOL     OW66446   3.522   8.196   6.276
21538SOL    HW166447   3.552   8.223   6.189
21538SOL    HW266448   3.432   8.229   6.281
21539SOL     OW66449   8.210   7.667   2.757
21539SOL    HW166450   8.153   7.737   2.725
21539SOL    HW266451   8.250   7.631   2.678
21540SOL     OW66452   7.967   1.293  12.717
21540SOL    HW166453   7.910   1.309  12.792
21540SOL    HW266454   7.916   1.326  12.642
21541SOL     OW66455  10.567   1.551   1.574
21541SOL    HW166456  10.546   1.609   1.647
21541SOL    HW266457  10.527   1.594   1.498
21542SOL     OW66458   4.550  10.770  12.320
21542SOL    HW166459   4.618  10.727  12.372
21542SOL    HW266460   4.590  10.854  12.295
21543SOL     OW66461  10.564  12.247   2.635
21543SOL    HW166462  10.600  12.173   2.586
21543SOL    HW266463  10.471  12.228   2.643
21544SOL     OW66464  14.025  13.511   9.135
21544SOL    HW166465  14.078  13.590   9.131
21544SOL    HW266466  14.089  13.440   9.137
21545SOL     OW66467   4.405   2.583  13.841
21545SOL    HW166468   4.401   2.552  13.750
21545SOL    HW266469   4.470   2.526  13.883
21546SOL     OW66470   1.311  10.559   8.704
21546SOL    HW166471   1.262  10.631   8.664
21546SOL    HW266472   1.333  10.501   8.632
21547SOL     OW66473   3.200   5.165  12.613
21547SOL    HW166474   3.196   5.185  12.706
21547SOL    HW266475   3.292   5.181  12.589
21548SOL     OW66476  12.818  13.083  11.288
21548SOL    HW166477  12.833  13.024  11.362
21548SOL    HW266478  12.831  13.028  11.210
21549SOL     OW66479   9.013   9.697   6.981
21549SOL    HW166480   9.036   9.706   6.889
21549SOL    HW266481   9.091   9.726   7.028
21550SOL     OW66482   7.870  14.026   6.668
21550SOL    HW166483   7.832  13.959   6.612
21550SOL    HW266484   7.836  14.109   6.634
21551SOL     OW66485   5.807  10.998   8.297
21551SOL    HW166486   5.896  11.029   8.285
21551SOL    HW266487   5.777  11.043   8.376
21552SOL     OW66488  12.162   5.564   3.321
21552SOL    HW166489  12.103   5.516   3.378
21552SOL    HW266490  12.243   5.513   3.322
21553SOL     OW66491  11.939  13.611   4.987
21553SOL    HW166492  11.994  13.646   4.917
21553SOL    HW266493  11.908  13.526   4.953
21554SOL     OW66494   1.594  12.344   2.628
21554SOL    HW166495   1.532  12.368   2.559
21554SOL    HW266496   1.561  12.260   2.661
21555SOL     OW66497  14.313   5.812   6.316
21555SOL    HW166498  14.371   5.803   6.240
21555SOL    HW266499  14.261   5.732   6.315
21556SOL     OW66500   9.048   1.592  10.037
21556SOL    HW166501   9.066   1.596   9.943
21556SOL    HW266502   8.953   1.591  10.043
21557SOL     OW66503  12.757   0.021  10.550
21557SOL    HW166504  12.734   0.043  10.641
21557SOL    HW266505  12.706  14.821  10.531
21558SOL     OW66506   7.517   6.271   9.412
21558SOL    HW166507   7.430   6.238   9.433
21558SOL    HW266508   7.560   6.200   9.365
21559SOL     OW66509   7.045   9.598  11.237
21559SOL    HW166510   7.048   9.690  11.212
21559SOL    HW266511   6.974   9.592  11.301
21560SOL     OW66512   2.169  14.672   7.682
21560SOL    HW166513   2.115  14.671   7.761
21560SOL    HW266514   2.252  14.711   7.709
21561SOL     OW66515  10.671  12.896  13.076
21561SOL    HW166516  10.656  12.945  12.995
21561SOL    HW266517  10.649  12.805  13.054
21562SOL     OW66518   6.428   4.596   3.972
21562SOL    HW166519   6.520   4.620   3.963
21562SOL    HW266520   6.382   4.652   3.909
21563SOL     OW66521   8.997  10.995   5.581
21563SOL    HW166522   9.005  10.900   5.571
21563SOL    HW266523   9.014  11.030   5.494
21564SOL     OW66524   0.006  13.704  12.435
21564SOL    HW166525  14.870  13.689  12.342
21564SOL    HW266526  14.798  13.707  12.474
21565SOL     OW66527  11.992   4.949   4.957
21565SOL    HW166528  11.904   4.963   4.992
21565SOL    HW266529  12.047   5.011   5.006
21566SOL     OW66530  10.293   3.409   8.201
21566SOL    HW166531  10.302   3.426   8.107
21566SOL    HW266532  10.375   3.441   8.239
21567SOL     OW66533  12.513   4.185   2.116
21567SOL    HW166534  12.510   4.281   2.108
21567SOL    HW266535  12.423   4.160   2.138
21568SOL     OW66536   4.803   7.019   7.907
21568SOL    HW166537   4.797   7.095   7.965
21568SOL    HW266538   4.891   6.985   7.922
21569SOL     OW66539  12.647   8.778  11.327
21569SOL    HW166540  12.701   8.855  11.311
21569SOL    HW266541  12.705   8.718  11.376
21570SOL     OW66542  10.166   9.721   0.619
21570SOL    HW166543  10.133   9.690   0.703
21570SOL    HW266544  10.113   9.798   0.599
21571SOL     OW66545   0.078   6.309   7.413
21571SOL    HW166546   0.052   6.300   7.322
21571SOL    HW266547   0.128   6.230   7.432
21572SOL     OW66548  14.801  13.688   0.887
21572SOL    HW166549  14.723  13.742   0.875
21572SOL    HW266550  14.874  13.751   0.881
21573SOL     OW66551  10.455   3.031  10.329
21573SOL    HW166552  10.369   3.064  10.356
21573SOL    HW266553  10.435   2.959  10.269
21574SOL     OW66554   9.892  13.285   4.979
21574SOL    HW166555   9.899  13.380   4.971
21574SOL    HW266556   9.918  13.266   5.069
21575SOL     OW66557   7.257   9.826  11.139
21575SOL    HW166558   7.225   9.795  11.055
21575SOL    HW266559   7.181   9.864  11.182
21576SOL     OW66560  12.712   9.043   2.668
21576SOL    HW166561  12.789   8.990   2.652
21576SOL    HW266562  12.744   9.133   2.669
21577SOL     OW66563   8.741  13.264   6.189
21577SOL    HW166564   8.705  13.312   6.263
21577SOL    HW266565   8.670  13.262   6.124
21578SOL     OW66566   5.114   2.347   3.669
21578SOL    HW166567   5.085   2.406   3.600
21578SOL    HW266568   5.118   2.401   3.748
21579SOL     OW66569   7.539   2.575   4.586
21579SOL    HW166570   7.568   2.602   4.673
21579SOL    HW266571   7.606   2.609   4.527
21580SOL     OW66572   3.299   9.381   4.355
21580SOL    HW166573   3.258   9.297   4.373
21580SOL    HW266574   3.363   9.363   4.286
21581SOL     OW66575   3.818  11.123   6.565
21581SOL    HW166576   3.811  11.089   6.475
21581SOL    HW266577   3.727  11.130   6.595
21582SOL     OW66578   5.159   6.059   9.250
21582SOL    HW166579   5.196   6.013   9.174
21582SOL    HW266580   5.118   6.137   9.213
21583SOL     OW66581   1.056   1.083  13.730
21583SOL    HW166582   1.112   1.159  13.745
21583SOL    HW266583   1.112   1.021  13.683
21584SOL     OW66584   1.120   9.053   8.408
21584SOL    HW166585   1.102   9.027   8.499
21584SOL    HW266586   1.192   8.996   8.381
21585SOL     OW66587  13.102   5.490  13.984
21585SOL    HW166588  13.106   5.401  13.948
21585SOL    HW266589  13.015   5.496  14.024
21586SOL     OW66590   3.149  10.879   7.053
21586SOL    HW166591   3.092  10.937   7.104
21586SOL    HW266592   3.186  10.935   6.985
21587SOL     OW66593   2.018   6.706  12.442
21587SOL    HW166594   2.021   6.701  12.347
21587SOL    HW266595   2.079   6.638  12.471
21588SOL     OW66596  11.180   9.801   5.056
21588SOL    HW166597  11.205   9.872   4.996
21588SOL    HW266598  11.085   9.797   5.051
21589SOL     OW66599   4.574   0.717   9.151
21589SOL    HW166600   4.613   0.630   9.163
21589SOL    HW266601   4.644   0.778   9.170
21590SOL     OW66602  14.595  10.519   0.590
21590SOL    HW166603  14.641  10.503   0.507
21590SOL    HW266604  14.569  10.432   0.620
21591SOL     OW66605   1.243   3.769   5.046
21591SOL    HW166606   1.273   3.678   5.051
21591SOL    HW266607   1.321   3.821   5.064
21592SOL     OW66608  11.099  13.579   8.432
21592SOL    HW166609  11.098  13.647   8.499
21592SOL    HW266610  11.135  13.502   8.476
21593SOL     OW66611   3.401  14.757   3.536
21593SOL    HW166612   3.356  14.753   3.621
21593SOL    HW266613   3.445  14.672   3.528
21594SOL     OW66614   0.439   6.272   6.593
21594SOL    HW166615   0.452   6.319   6.511
21594SOL    HW266616   0.401   6.337   6.652
21595SOL     OW66617   6.262  11.716   9.356
21595SOL    HW166618   6.288  11.737   9.267
21595SOL    HW266619   6.239  11.801   9.395
21596SOL     OW66620   0.281   1.365  12.973
21596SOL    HW166621   0.191   1.396  12.987
21596SOL    HW266622   0.277   1.316  12.891
21597SOL     OW66623   2.860   7.825   8.507
21597SOL    HW166624   2.950   7.845   8.480
21597SOL    HW266625   2.829   7.762   8.442
21598SOL     OW66626   6.956  12.193   6.478
21598SOL    HW166627   6.901  12.269   6.463
21598SOL    HW266628   6.968  12.190   6.573
21599SOL     OW66629   9.756   6.002   0.883
21599SOL    HW166630   9.741   5.978   0.974
21599SOL    HW266631   9.764   6.097   0.884
21600SOL     OW66632   7.510   6.284  10.297
21600SOL    HW166633   7.573   6.315  10.361
21600SOL    HW266634   7.425   6.302  10.336
21601SOL     OW66635   1.789  10.152   2.906
21601SOL    HW166636   1.817  10.062   2.889
21601SOL    HW266637   1.730  10.145   2.981
21602SOL     OW66638  10.497   1.952   9.040
21602SOL    HW166639  10.499   1.868   8.993
21602SOL    HW266640  10.586   1.986   9.032
21603SOL     OW66641  12.397   4.300  12.387
21603SOL    HW166642  12.470   4.351  12.352
21603SOL    HW266643  12.368   4.350  12.463
21604SOL     OW66644   8.177   9.922   4.198
21604SOL    HW166645   8.120   9.985   4.153
21604SOL    HW266646   8.182   9.954   4.288
21605SOL     OW66647   6.993   4.475  14.871
21605SOL    HW166648   6.963   4.384  14.873
21605SOL    HW266649   6.920   4.524  14.833
21606SOL     OW66650  12.759  12.499  13.208
21606SOL    HW166651  12.669  12.468  13.221
21606SOL    HW266652  12.751  12.595  13.213
21607SOL     OW66653  12.117  10.306   9.014
21607SOL    HW166654  12.184  10.249   9.051
21607SOL    HW266655  12.035  10.274   9.051
21608SOL     OW66656   8.354  11.047   0.274
21608SOL    HW166657   8.328  10.965   0.316
21608SOL    HW266658   8.347  11.112   0.343
21609SOL     OW66659   6.144  10.736   0.059
21609SOL    HW166660   6.134  10.816   0.007
21609SOL    HW266661   6.107  10.757   0.144
21610SOL     OW66662   9.130   3.771   2.543
21610SOL    HW166663   9.147   3.841   2.480
21610SOL    HW266664   9.055   3.801   2.594
21611SOL     OW66665   4.073   8.944  13.105
21611SOL    HW166666   4.009   8.918  13.172
21611SOL    HW266667   4.154   8.958  13.153
21612SOL     OW66668   3.106   9.525   8.465
21612SOL    HW166669   3.197   9.512   8.439
21612SOL    HW266670   3.109   9.542   8.559
21613SOL     OW66671   1.801   7.133  10.986
21613SOL    HW166672   1.821   7.194  11.056
21613SOL    HW266673   1.709   7.112  10.998
21614SOL     OW66674   3.004   6.386  14.374
21614SOL    HW166675   2.923   6.412  14.418
21614SOL    HW266676   2.994   6.419  14.284
21615SOL     OW66677  10.218   2.655   9.432
21615SOL    HW166678  10.141   2.700   9.397
21615SOL    HW266679  10.220   2.680   9.524
21616SOL     OW66680  11.119  12.729  11.677
21616SOL    HW166681  11.196  12.678  11.702
21616SOL    HW266682  11.048  12.693  11.731
21617SOL     OW66683   8.163   8.244   3.643
21617SOL    HW166684   8.137   8.166   3.593
21617SOL    HW266685   8.085   8.299   3.643
21618SOL     OW66686   8.195   6.740   6.425
21618SOL    HW166687   8.219   6.814   6.480
21618SOL    HW266688   8.103   6.756   6.402
21619SOL     OW66689   7.857  13.092   0.535
21619SOL    HW166690   7.831  13.060   0.621
21619SOL    HW266691   7.824  13.182   0.532
21620SOL     OW66692   5.976   5.670  11.584
21620SOL    HW166693   5.940   5.710  11.504
21620SOL    HW266694   5.960   5.736  11.652
21621SOL     OW66695  12.445   9.625   5.654
21621SOL    HW166696  12.433   9.576   5.573
21621SOL    HW266697  12.485   9.708   5.627
21622SOL     OW66698   7.097  13.799   3.000
21622SOL    HW166699   7.022  13.845   3.039
21622SOL    HW266700   7.058  13.723   2.958
21623SOL     OW66701   9.910   9.082   0.069
21623SOL    HW166702   9.860   9.000   0.063
21623SOL    HW266703   9.964   9.082  14.869
21624SOL     OW66704   4.918   6.547  13.342
21624SOL    HW166705   4.887   6.620  13.288
21624SOL    HW266706   4.932   6.476  13.280
21625SOL     OW66707   9.852   2.991  14.508
21625SOL    HW166708   9.799   2.940  14.448
21625SOL    HW266709   9.929   3.017  14.457
21626SOL     OW66710   9.416  11.682   6.004
21626SOL    HW166711   9.470  11.729   5.940
21626SOL    HW266712   9.392  11.601   5.960
21627SOL     OW66713   7.977   3.098   7.520
21627SOL    HW166714   8.007   3.011   7.492
21627SOL    HW266715   7.949   3.085   7.610
21628SOL     OW66716   1.135   1.548   5.023
21628SOL    HW166717   1.108   1.619   4.964
21628SOL    HW266718   1.124   1.468   4.971
21629SOL     OW66719  10.338   5.297   5.776
21629SOL    HW166720  10.265   5.237   5.761
21629SOL    HW266721  10.395   5.250   5.838
21630SOL     OW66722   9.050   5.558   9.021
21630SOL    HW166723   9.031   5.644   8.984
21630SOL    HW266724   8.976   5.503   8.996
21631SOL     OW66725   5.258   2.520   4.429
21631SOL    HW166726   5.341   2.551   4.465
21631SOL    HW266727   5.260   2.425   4.440
21632SOL     OW66728  11.427  11.994   3.264
21632SOL    HW166729  11.434  12.089   3.268
21632SOL    HW266730  11.517  11.963   3.258
21633SOL     OW66731   9.150  12.609   4.448
21633SOL    HW166732   9.097  12.562   4.513
21633SOL    HW266733   9.160  12.697   4.486
21634SOL     OW66734   2.297   2.000  13.839
21634SOL    HW166735   2.380   1.970  13.878
21634SOL    HW266736   2.264   2.065  13.900
21635SOL     OW66737   8.545   0.146  11.939
21635SOL    HW166738   8.579   0.202  12.009
21635SOL    HW266739   8.476   0.198  11.898
21636SOL     OW66740   8.890   7.607   2.895
21636SOL    HW166741   8.933   7.610   2.981
21636SOL    HW266742   8.954   7.647   2.836
21637SOL     OW66743   6.096  11.195  14.082
21637SOL    HW166744   6.019  11.170  14.030
21637SOL    HW266745   6.117  11.117  14.133
21638SOL     OW66746   5.017   9.215  11.462
21638SOL    HW166747   5.031   9.282  11.529
21638SOL    HW266748   5.043   9.256  11.380
21639SOL     OW66749  10.333   5.880   8.450
21639SOL    HW166750  10.399   5.939   8.413
21639SOL    HW266751  10.264   5.877   8.384
21640SOL     OW66752   1.892   8.302   7.369
21640SOL    HW166753   1.826   8.334   7.307
21640SOL    HW266754   1.890   8.364   7.441
21641SOL     OW66755  13.731  11.557   1.571
21641SOL    HW166756  13.807  11.590   1.522
21641SOL    HW266757  13.749  11.579   1.662
21642SOL     OW66758  12.321  14.660  14.090
21642SOL    HW166759  12.274  14.729  14.137
21642SOL    HW266760  12.299  14.579  14.136
21643SOL     OW66761   9.487   7.219   7.005
21643SOL    HW166762   9.558   7.194   6.946
21643SOL    HW266763   9.518   7.191   7.092
21644SOL     OW66764  14.176   1.011  14.589
21644SOL    HW166765  14.180   1.066  14.667
21644SOL    HW266766  14.096   1.039  14.544
21645SOL     OW66767  11.204   1.343   6.507
21645SOL    HW166768  11.162   1.302   6.582
21645SOL    HW266769  11.147   1.322   6.433
21646SOL     OW66770   5.719   5.036  11.845
21646SOL    HW166771   5.800   5.053  11.797
21646SOL    HW266772   5.660   4.997  11.780
21647SOL     OW66773   4.212   9.922   7.318
21647SOL    HW166774   4.235   9.831   7.299
21647SOL    HW266775   4.291   9.972   7.298
21648SOL     OW66776   2.101   7.827   4.322
21648SOL    HW166777   2.143   7.742   4.306
21648SOL    HW266778   2.171   7.883   4.355
21649SOL     OW66779   1.925  13.917  12.940
21649SOL    HW166780   1.907  13.837  12.890
21649SOL    HW266781   1.979  13.970  12.882
21650SOL     OW66782   9.769  10.782   5.128
21650SOL    HW166783   9.795  10.807   5.039
21650SOL    HW266784   9.845  10.737   5.164
21651SOL     OW66785   1.545  12.788   1.121
21651SOL    HW166786   1.637  12.772   1.099
21651SOL    HW266787   1.502  12.802   1.036
21652SOL     OW66788  11.306  10.800   6.769
21652SOL    HW166789  11.254  10.771   6.844
21652SOL    HW266790  11.391  10.757   6.780
21653SOL     OW66791   2.564   3.774   7.509
21653SOL    HW166792   2.537   3.863   7.530
21653SOL    HW266793   2.561   3.728   7.593
21654SOL     OW66794   0.454   1.924   3.754
21654SOL    HW166795   0.391   1.911   3.825
21654SOL    HW266796   0.438   1.850   3.695
21655SOL     OW66797  11.892   3.620   3.455
21655SOL    HW166798  11.828   3.553   3.482
21655SOL    HW266799  11.946   3.576   3.389
21656SOL     OW66800   5.794   5.028   5.622
21656SOL    HW166801   5.730   5.088   5.582
21656SOL    HW266802   5.748   4.991   5.697
21657SOL     OW66803  12.558   0.800   0.653
21657SOL    HW166804  12.629   0.748   0.689
21657SOL    HW266805  12.555   0.775   0.560
21658SOL     OW66806   2.549  14.116  13.179
21658SOL    HW166807   2.510  14.062  13.247
21658SOL    HW266808   2.575  14.053  13.111
21659SOL     OW66809   0.469   7.112   7.209
21659SOL    HW166810   0.393   7.125   7.152
21659SOL    HW266811   0.544   7.137   7.155
21660SOL     OW66812  11.655   3.096  12.314
21660SOL    HW166813  11.577   3.122  12.363
21660SOL    HW266814  11.626   3.093  12.222
21661SOL     OW66815  10.822   0.048   1.040
21661SOL    HW166816  10.805  14.838   1.011
21661SOL    HW266817  10.878   0.085   0.972
21662SOL     OW66818   2.382   8.922  10.928
21662SOL    HW166819   2.311   8.868  10.894
21662SOL    HW266820   2.391   8.895  11.019
21663SOL     OW66821   5.348   6.696  13.224
21663SOL    HW166822   5.263   6.717  13.261
21663SOL    HW266823   5.367   6.608  13.255
21664SOL     OW66824   3.024  11.518  11.759
21664SOL    HW166825   3.067  11.443  11.802
21664SOL    HW266826   3.085  11.543  11.690
21665SOL     OW66827   3.433  12.895   9.254
21665SOL    HW166828   3.447  12.911   9.161
21665SOL    HW266829   3.521  12.874   9.288
21666SOL     OW66830   2.880   2.928   5.707
21666SOL    HW166831   2.919   2.898   5.625
21666SOL    HW266832   2.804   2.872   5.720
21667SOL     OW66833   7.439   4.694   1.865
21667SOL    HW166834   7.516   4.671   1.917
21667SOL    HW266835   7.414   4.781   1.896
21668SOL     OW66836   9.622  11.889  13.167
21668SOL    HW166837   9.619  11.809  13.115
21668SOL    HW266838   9.611  11.859  13.257
21669SOL     OW66839   3.903   0.037  10.346
21669SOL    HW166840   3.893   0.011  10.255
21669SOL    HW266841   3.914   0.132  10.343
21670SOL     OW66842   9.738   8.252   3.865
21670SOL    HW166843   9.813   8.310   3.850
21670SOL    HW266844   9.715   8.266   3.957
21671SOL     OW66845   1.938  10.930  12.593
21671SOL    HW166846   2.017  10.952  12.545
21671SOL    HW266847   1.950  10.971  12.679
21672SOL     OW66848   8.393   9.353   0.325
21672SOL    HW166849   8.357   9.437   0.297
21672SOL    HW266850   8.363   9.343   0.415
21673SOL     OW66851   3.731   5.936   9.400
21673SOL    HW166852   3.776   5.989   9.466
21673SOL    HW266853   3.661   5.892   9.448
21674SOL     OW66854  11.589   9.496  12.285
21674SOL    HW166855  11.680   9.498  12.315
21674SOL    HW266856  11.555   9.582  12.307
21675SOL     OW66857  14.439   9.819  13.038
21675SOL    HW166858  14.409   9.904  13.008
21675SOL    HW266859  14.463   9.772  12.958
21676SOL     OW66860  13.555   3.510  11.015
21676SOL    HW166861  13.513   3.534  11.098
21676SOL    HW266862  13.564   3.593  10.968
21677SOL     OW66863   0.211  11.922  10.425
21677SOL    HW166864   0.240  11.843  10.470
21677SOL    HW266865   0.150  11.890  10.358
21678SOL     OW66866   3.269   4.282   5.988
21678SOL    HW166867   3.212   4.349   5.950
21678SOL    HW266868   3.219   4.201   5.982
21679SOL     OW66869   8.197   2.163   0.618
21679SOL    HW166870   8.188   2.138   0.710
21679SOL    HW266871   8.274   2.116   0.588
21680SOL     OW66872   7.710  14.123   0.622
21680SOL    HW166873   7.702  14.194   0.687
21680SOL    HW266874   7.753  14.164   0.547
21681SOL     OW66875  10.530   4.208   7.529
21681SOL    HW166876  10.616   4.169   7.511
21681SOL    HW266877  10.469   4.135   7.525
21682SOL     OW66878   8.145   6.787  11.066
21682SOL    HW166879   8.121   6.776  11.157
21682SOL    HW266880   8.139   6.699  11.028
21683SOL     OW66881   9.310   0.524   3.744
21683SOL    HW166882   9.345   0.442   3.709
21683SOL    HW266883   9.215   0.510   3.746
21684SOL     OW66884   7.169   6.201  12.238
21684SOL    HW166885   7.203   6.129  12.186
21684SOL    HW266886   7.231   6.211  12.310
21685SOL     OW66887   5.903   9.326   5.769
21685SOL    HW166888   5.818   9.369   5.761
21685SOL    HW266889   5.949   9.346   5.687
21686SOL     OW66890  14.104   9.118   9.858
21686SOL    HW166891  14.055   9.198   9.836
21686SOL    HW266892  14.158   9.101   9.781
21687SOL     OW66893   7.142  11.632  10.477
21687SOL    HW166894   7.157  11.608  10.385
21687SOL    HW266895   7.140  11.728  10.476
21688SOL     OW66896   9.535   9.459   2.529
21688SOL    HW166897   9.560   9.367   2.527
21688SOL    HW266898   9.609   9.503   2.572
21689SOL     OW66899  12.097   5.120   0.417
21689SOL    HW166900  12.015   5.074   0.434
21689SOL    HW266901  12.093   5.141   0.323
21690SOL     OW66902   0.458  10.300   8.784
21690SOL    HW166903   0.483  10.216   8.745
21690SOL    HW266904   0.365  10.311   8.763
21691SOL     OW66905  14.289   2.030   8.511
21691SOL    HW166906  14.220   2.082   8.553
21691SOL    HW266907  14.325   2.088   8.444
21692SOL     OW66908   1.051   1.772   5.526
21692SOL    HW166909   1.025   1.685   5.557
21692SOL    HW266910   1.026   1.831   5.597
21693SOL     OW66911   4.481   7.202   5.805
21693SOL    HW166912   4.422   7.177   5.734
21693SOL    HW266913   4.486   7.298   5.800
21694SOL     OW66914  14.398  13.461   6.112
21694SOL    HW166915  14.343  13.538   6.129
21694SOL    HW266916  14.335  13.390   6.102
21695SOL     OW66917   8.697   6.137   5.415
21695SOL    HW166918   8.604   6.141   5.436
21695SOL    HW266919   8.727   6.228   5.419
21696SOL     OW66920   8.365   1.517  11.513
21696SOL    HW166921   8.315   1.449  11.557
21696SOL    HW266922   8.333   1.517  11.423
21697SOL     OW66923   6.501   2.131   3.482
21697SOL    HW166924   6.406   2.124   3.495
21697SOL    HW266925   6.518   2.225   3.483
21698SOL     OW66926   0.183   5.285  14.664
21698SOL    HW166927   0.115   5.353  14.666
21698SOL    HW266928   0.175   5.246  14.577
21699SOL     OW66929   6.161   7.891   7.494
21699SOL    HW166930   6.199   7.820   7.546
21699SOL    HW266931   6.125   7.951   7.559
21700SOL     OW66932  13.216   6.147   2.704
21700SOL    HW166933  13.164   6.214   2.660
21700SOL    HW266934  13.304   6.156   2.667
21701SOL     OW66935   4.539   6.558   0.287
21701SOL    HW166936   4.547   6.489   0.353
21701SOL    HW266937   4.455   6.600   0.306
21702SOL     OW66938   3.693  10.417  11.961
21702SOL    HW166939   3.607  10.460  11.968
21702SOL    HW266940   3.756  10.489  11.965
21703SOL     OW66941   3.348   4.332  10.759
21703SOL    HW166942   3.261   4.371  10.753
21703SOL    HW266943   3.366   4.301  10.671
21704SOL     OW66944   0.143   1.135  10.016
21704SOL    HW166945   0.174   1.057  10.062
21704SOL    HW266946   0.178   1.125   9.927
21705SOL     OW66947   7.869  11.452  14.358
21705SOL    HW166948   7.852  11.544  14.380
21705SOL    HW266949   7.920  11.419  14.433
21706SOL     OW66950   9.007  11.858   9.039
21706SOL    HW166951   8.988  11.822   8.952
21706SOL    HW266952   9.101  11.878   9.036
21707SOL     OW66953   0.676   6.000   0.208
21707SOL    HW166954   0.705   5.965   0.124
21707SOL    HW266955   0.744   5.973   0.270
21708SOL     OW66956   3.352   6.981   6.725
21708SOL    HW166957   3.282   7.011   6.783
21708SOL    HW266958   3.308   6.963   6.642
21709SOL     OW66959  10.114   1.923  10.360
21709SOL    HW166960  10.032   1.955  10.398
21709SOL    HW266961  10.152   1.869  10.428
21710SOL     OW66962   2.358   0.999   9.548
21710SOL    HW166963   2.305   1.060   9.497
21710SOL    HW266964   2.325   0.912   9.523
21711SOL     OW66965   4.977   8.255   0.636
21711SOL    HW166966   4.976   8.166   0.600
21711SOL    HW266967   4.888   8.268   0.669
21712SOL     OW66968   9.907   7.251   4.453
21712SOL    HW166969   9.900   7.224   4.361
21712SOL    HW266970   9.993   7.219   4.481
21713SOL     OW66971   9.976   6.689  10.237
21713SOL    HW166972   9.912   6.758  10.255
21713SOL    HW266973  10.055   6.736  10.210
21714SOL     OW66974   8.807  13.097   8.944
21714SOL    HW166975   8.820  13.014   8.991
21714SOL    HW266976   8.727  13.134   8.983
21715SOL     OW66977   5.655   2.975   1.245
21715SOL    HW166978   5.602   2.903   1.280
21715SOL    HW266979   5.745   2.953   1.268
21716SOL     OW66980  14.620   0.995   1.021
21716SOL    HW166981  14.710   1.027   1.030
21716SOL    HW266982  14.605   0.944   1.101
21717SOL     OW66983   4.543  10.786   6.542
21717SOL    HW166984   4.635  10.795   6.567
21717SOL    HW266985   4.544  10.727   6.467
21718SOL     OW66986   1.550   3.770   8.910
21718SOL    HW166987   1.477   3.710   8.923
21718SOL    HW266988   1.592   3.775   8.996
21719SOL     OW66989   0.602  10.797   0.303
21719SOL    HW166990   0.660  10.823   0.375
21719SOL    HW266991   0.526  10.855   0.311
21720SOL     OW66992  10.051   6.739   7.532
21720SOL    HW166993  10.126   6.777   7.577
21720SOL    HW266994  10.082   6.652   7.504
21721SOL     OW66995   8.719   8.635  13.499
21721SOL    HW166996   8.736   8.702  13.433
21721SOL    HW266997   8.624   8.620  13.494
21722SOL     OW66998   7.628   3.519  12.184
21722SOL    HW166999   7.630   3.508  12.089
21722SOL    HW267000   7.685   3.594  12.201
21723SOL     OW67001   7.135   9.605   9.326
21723SOL    HW167002   7.189   9.665   9.377
21723SOL    HW267003   7.045   9.631   9.347
21724SOL     OW67004  13.697   8.829   4.309
21724SOL    HW167005  13.605   8.854   4.316
21724SOL    HW267006  13.740   8.876   4.380
21725SOL     OW67007  13.751  10.607   2.291
21725SOL    HW167008  13.838  10.630   2.259
21725SOL    HW267009  13.704  10.690   2.296
21726SOL     OW67010   6.186   1.849   3.555
21726SOL    HW167011   6.097   1.834   3.586
21726SOL    HW267012   6.211   1.768   3.511
21727SOL     OW67013  12.568   8.156   6.452
21727SOL    HW167014  12.613   8.212   6.389
21727SOL    HW267015  12.626   8.155   6.529
21728SOL     OW67016  13.709   9.216   8.440
21728SOL    HW167017  13.707   9.153   8.512
21728SOL    HW267018  13.765   9.176   8.374
21729SOL     OW67019  11.477  10.541  14.308
21729SOL    HW167020  11.449  10.630  14.326
21729SOL    HW267021  11.454  10.492  14.387
21730SOL     OW67022   5.305  14.186   0.222
21730SOL    HW167023   5.225  14.229   0.254
21730SOL    HW267024   5.304  14.201   0.128
21731SOL     OW67025   8.280   5.432  13.893
21731SOL    HW167026   8.323   5.407  13.812
21731SOL    HW267027   8.346   5.482  13.941
21732SOL     OW67028  11.483   3.529   8.057
21732SOL    HW167029  11.529   3.472   7.996
21732SOL    HW267030  11.463   3.473   8.132
21733SOL     OW67031  14.105   4.942  11.316
21733SOL    HW167032  14.172   4.874  11.307
21733SOL    HW267033  14.037   4.916  11.254
21734SOL     OW67034  14.423   9.131  13.820
21734SOL    HW167035  14.491   9.067  13.838
21734SOL    HW267036  14.410   9.176  13.904
21735SOL     OW67037   7.993   3.855  11.085
21735SOL    HW167038   7.910   3.823  11.048
21735SOL    HW267039   8.014   3.932  11.032
21736SOL     OW67040  10.719   4.090  13.530
21736SOL    HW167041  10.631   4.127  13.530
21736SOL    HW267042  10.713   4.012  13.475
21737SOL     OW67043  11.893  12.544   6.392
21737SOL    HW167044  11.928  12.455   6.396
21737SOL    HW267045  11.897  12.576   6.482
21738SOL     OW67046   4.905  11.002   3.834
21738SOL    HW167047   4.852  10.922   3.834
21738SOL    HW267048   4.966  10.990   3.907
21739SOL     OW67049   9.086   3.582   4.453
21739SOL    HW167050   9.145   3.614   4.522
21739SOL    HW267051   9.104   3.639   4.378
21740SOL     OW67052   0.092   3.590  13.913
21740SOL    HW167053   0.156   3.520  13.900
21740SOL    HW267054   0.010   3.552  13.881
21741SOL     OW67055  13.684   2.806  13.503
21741SOL    HW167056  13.741   2.880  13.522
21741SOL    HW267057  13.615   2.811  13.569
21742SOL     OW67058   7.779   1.003   0.653
21742SOL    HW167059   7.812   1.069   0.715
21742SOL    HW267060   7.698   0.972   0.694
21743SOL     OW67061   8.626  10.124   8.918
21743SOL    HW167062   8.691  10.058   8.942
21743SOL    HW267063   8.542  10.079   8.922
21744SOL     OW67064   5.822   9.390   1.212
21744SOL    HW167065   5.743   9.347   1.246
21744SOL    HW267066   5.849   9.449   1.283
21745SOL     OW67067   7.643   2.872  10.110
21745SOL    HW167068   7.593   2.811  10.165
21745SOL    HW267069   7.577   2.934  10.079
21746SOL     OW67070  12.359   2.151   5.509
21746SOL    HW167071  12.315   2.117   5.431
21746SOL    HW267072  12.327   2.240   5.518
21747SOL     OW67073   0.654   4.208   7.252
21747SOL    HW167074   0.693   4.217   7.339
21747SOL    HW267075   0.560   4.207   7.267
21748SOL     OW67076   1.539  13.226  12.046
21748SOL    HW167077   1.491  13.146  12.027
21748SOL    HW267078   1.606  13.231  11.978
21749SOL     OW67079  12.927   5.291   9.626
21749SOL    HW167080  12.921   5.293   9.530
21749SOL    HW267081  12.837   5.278   9.655
21750SOL     OW67082   8.718   9.465  10.732
21750SOL    HW167083   8.746   9.551  10.702
21750SOL    HW267084   8.800   9.415  10.741
21751SOL     OW67085   5.332   3.465   9.192
21751SOL    HW167086   5.244   3.444   9.160
21751SOL    HW267087   5.386   3.392   9.163
21752SOL     OW67088  13.167   6.831   8.097
21752SOL    HW167089  13.153   6.808   8.189
21752SOL    HW267090  13.209   6.917   8.100
21753SOL     OW67091   7.691   1.908   3.839
21753SOL    HW167092   7.665   2.000   3.835
21753SOL    HW267093   7.617   1.864   3.881
21754SOL     OW67094   5.792  11.392  13.475
21754SOL    HW167095   5.863  11.446  13.439
21754SOL    HW267096   5.755  11.446  13.546
21755SOL     OW67097   1.306   7.546   8.247
21755SOL    HW167098   1.218   7.581   8.240
21755SOL    HW267099   1.321   7.500   8.165
21756SOL     OW67100   5.201   1.394   6.522
21756SOL    HW167101   5.182   1.485   6.547
21756SOL    HW267102   5.286   1.376   6.561
21757SOL     OW67103  11.860  10.210   6.062
21757SOL    HW167104  11.851  10.142   6.129
21757SOL    HW267105  11.939  10.186   6.014
21758SOL     OW67106   3.987  13.228  14.580
21758SOL    HW167107   3.997  13.209  14.487
21758SOL    HW267108   3.952  13.147  14.617
21759SOL     OW67109   3.230  11.199  10.264
21759SOL    HW167110   3.183  11.249  10.197
21759SOL    HW267111   3.312  11.247  10.276
21760SOL     OW67112  14.074  14.716  14.865
21760SOL    HW167113  14.121  14.719   0.069
21760SOL    HW267114  13.984  14.737   0.009
21761SOL     OW67115  14.722   5.760   2.319
21761SOL    HW167116  14.662   5.723   2.253
21761SOL    HW267117  14.742   5.848   2.287
21762SOL     OW67118  12.840   8.992   8.771
21762SOL    HW167119  12.759   8.944   8.784
21762SOL    HW267120  12.815   9.084   8.778
21763SOL     OW67121  12.297   0.761  13.507
21763SOL    HW167122  12.339   0.764  13.593
21763SOL    HW267123  12.258   0.848  13.496
21764SOL     OW67124   5.540   0.459   4.317
21764SOL    HW167125   5.554   0.553   4.328
21764SOL    HW267126   5.474   0.437   4.383
21765SOL     OW67127   1.938  10.338   3.624
21765SOL    HW167128   1.878  10.400   3.665
21765SOL    HW267129   1.931  10.259   3.679
21766SOL     OW67130  11.261   3.405   9.406
21766SOL    HW167131  11.251   3.314   9.434
21766SOL    HW267132  11.289   3.399   9.315
21767SOL     OW67133   4.547   8.923  11.010
21767SOL    HW167134   4.543   8.935  10.915
21767SOL    HW267135   4.520   8.833  11.024
21768SOL     OW67136   3.186  12.503   0.080
21768SOL    HW167137   3.110  12.447   0.063
21768SOL    HW267138   3.256  12.465   0.026
21769SOL     OW67139  11.952   8.779   2.636
21769SOL    HW167140  11.940   8.800   2.728
21769SOL    HW267141  11.966   8.864   2.593
21770SOL     OW67142  10.804   1.992   4.910
21770SOL    HW167143  10.836   2.052   4.843
21770SOL    HW267144  10.795   2.046   4.989
21771SOL     OW67145   5.368   7.872   8.043
21771SOL    HW167146   5.342   7.912   8.126
21771SOL    HW267147   5.451   7.916   8.021
21772SOL     OW67148   3.449  12.446   1.253
21772SOL    HW167149   3.533  12.408   1.227
21772SOL    HW267150   3.462  12.541   1.244
21773SOL     OW67151   4.675  12.702   3.758
21773SOL    HW167152   4.660  12.754   3.837
21773SOL    HW267153   4.765  12.724   3.732
21774SOL     OW67154   8.102   3.718   8.667
21774SOL    HW167155   8.100   3.683   8.756
21774SOL    HW267156   8.115   3.812   8.678
21775SOL     OW67157   1.982   7.215   4.210
21775SOL    HW167158   1.993   7.263   4.292
21775SOL    HW267159   2.024   7.130   4.226
21776SOL     OW67160  10.181  14.123   8.138
21776SOL    HW167161  10.166  14.071   8.218
21776SOL    HW267162  10.128  14.202   8.151
21777SOL     OW67163   9.176   8.952   6.056
21777SOL    HW167164   9.258   8.947   6.105
21777SOL    HW267165   9.111   8.915   6.116
21778SOL     OW67166   3.167   3.860  10.428
21778SOL    HW167167   3.096   3.807  10.390
21778SOL    HW267168   3.123   3.914  10.494
21779SOL     OW67169   0.608   6.665  10.919
21779SOL    HW167170   0.623   6.760  10.921
21779SOL    HW267171   0.514   6.656  10.905
21780SOL     OW67172  11.921  13.091   4.375
21780SOL    HW167173  11.897  13.028   4.306
21780SOL    HW267174  11.878  13.057   4.454
21781SOL     OW67175   5.712  13.426   5.226
21781SOL    HW167176   5.748  13.513   5.242
21781SOL    HW267177   5.631  13.423   5.277
21782SOL     OW67178   8.567  10.517   3.455
21782SOL    HW167179   8.537  10.539   3.543
21782SOL    HW267180   8.566  10.421   3.452
21783SOL     OW67181   1.231  14.765   5.263
21783SOL    HW167182   1.141  14.733   5.262
21783SOL    HW267183   1.224  14.859   5.280
21784SOL     OW67184  12.055  14.440   3.259
21784SOL    HW167185  12.063  14.460   3.166
21784SOL    HW267186  12.063  14.524   3.303
21785SOL     OW67187   6.828   4.731  11.171
21785SOL    HW167188   6.805   4.639  11.188
21785SOL    HW267189   6.870   4.760  11.252
21786SOL     OW67190  10.243   9.366   5.613
21786SOL    HW167191  10.267   9.277   5.585
21786SOL    HW267192  10.222   9.412   5.533
21787SOL     OW67193   9.049   0.182   7.779
21787SOL    HW167194   9.048   0.265   7.731
21787SOL    HW267195   9.075   0.117   7.713
21788SOL     OW67196  10.043   4.179   0.159
21788SOL    HW167197  10.053   4.154   0.067
21788SOL    HW267198  10.132   4.200   0.188
21789SOL     OW67199   3.067  12.154   5.097
21789SOL    HW167200   2.981  12.191   5.078
21789SOL    HW267201   3.116  12.227   5.135
21790SOL     OW67202   6.432   8.818   1.057
21790SOL    HW167203   6.337   8.817   1.045
21790SOL    HW267204   6.467   8.819   0.968
21791SOL     OW67205   2.683  12.871   3.789
21791SOL    HW167206   2.695  12.834   3.701
21791SOL    HW267207   2.772  12.894   3.817
21792SOL     OW67208   7.075   1.516  11.227
21792SOL    HW167209   7.105   1.509  11.318
21792SOL    HW267210   7.150   1.487  11.175
21793SOL     OW67211   8.863   3.577  13.233
21793SOL    HW167212   8.810   3.524  13.173
21793SOL    HW267213   8.928   3.516  13.268
21794SOL     OW67214   1.577   0.775   4.354
21794SOL    HW167215   1.629   0.717   4.409
21794SOL    HW267216   1.573   0.857   4.402
21795SOL     OW67217   2.133   5.802   7.847
21795SOL    HW167218   2.090   5.813   7.763
21795SOL    HW267219   2.192   5.877   7.854
21796SOL     OW67220   1.519  12.356   0.679
21796SOL    HW167221   1.610  12.327   0.680
21796SOL    HW267222   1.469  12.274   0.672
21797SOL     OW67223   5.874   0.770   6.882
21797SOL    HW167224   5.887   0.767   6.787
21797SOL    HW267225   5.797   0.716   6.898
21798SOL     OW67226   2.687   2.592   8.887
21798SOL    HW167227   2.628   2.660   8.919
21798SOL    HW267228   2.680   2.597   8.792
21799SOL     OW67229   1.364  11.476  11.471
21799SOL    HW167230   1.372  11.389  11.433
21799SOL    HW267231   1.407  11.470  11.556
21800SOL     OW67232   0.462  10.932  14.351
21800SOL    HW167233   0.395  10.864  14.350
21800SOL    HW267234   0.423  11.005  14.304
21801SOL     OW67235   0.911   0.464   7.860
21801SOL    HW167236   0.915   0.467   7.764
21801SOL    HW267237   0.824   0.429   7.879
21802SOL     OW67238   9.747   4.259   1.692
21802SOL    HW167239   9.835   4.227   1.670
21802SOL    HW267240   9.696   4.180   1.707
21803SOL     OW67241   2.860   3.314   3.825
21803SOL    HW167242   2.837   3.305   3.917
21803SOL    HW267243   2.791   3.266   3.778
21804SOL     OW67244   0.331   7.811   7.625
21804SOL    HW167245   0.334   7.724   7.663
21804SOL    HW267246   0.320   7.795   7.531
21805SOL     OW67247  13.254  13.146  11.997
21805SOL    HW167248  13.292  13.060  11.977
21805SOL    HW267249  13.277  13.201  11.922
21806SOL     OW67250   1.937  11.509  11.007
21806SOL    HW167251   1.936  11.575  11.077
21806SOL    HW267252   1.845  11.500  10.981
21807SOL     OW67253   6.924   8.457   2.510
21807SOL    HW167254   6.975   8.502   2.442
21807SOL    HW267255   6.945   8.504   2.591
21808SOL     OW67256  14.206   3.338   2.733
21808SOL    HW167257  14.157   3.367   2.810
21808SOL    HW267258  14.140   3.296   2.677
21809SOL     OW67259  13.985   5.842  10.587
21809SOL    HW167260  13.891   5.856  10.584
21809SOL    HW267261  14.010   5.825  10.497
21810SOL     OW67262   4.299   7.052   7.494
21810SOL    HW167263   4.333   6.989   7.431
21810SOL    HW267264   4.349   7.035   7.574
21811SOL     OW67265   5.712   8.282   7.553
21811SOL    HW167266   5.750   8.290   7.466
21811SOL    HW267267   5.745   8.358   7.601
21812SOL     OW67268   2.505   9.353   8.252
21812SOL    HW167269   2.553   9.317   8.178
21812SOL    HW267270   2.517   9.448   8.244
21813SOL     OW67271  14.095   6.712  10.999
21813SOL    HW167272  14.004   6.696  11.025
21813SOL    HW267273  14.091   6.719  10.903
21814SOL     OW67274   9.337   6.976   6.924
21814SOL    HW167275   9.383   7.056   6.951
21814SOL    HW267276   9.244   7.000   6.931
21815SOL     OW67277   0.615   1.456   2.905
21815SOL    HW167278   0.710   1.445   2.906
21815SOL    HW267279   0.593   1.475   2.814
21816SOL     OW67280  12.932   9.237   2.440
21816SOL    HW167281  12.924   9.265   2.531
21816SOL    HW267282  12.844   9.243   2.405
21817SOL     OW67283  13.168   7.060   1.755
21817SOL    HW167284  13.143   7.044   1.845
21817SOL    HW267285  13.136   7.148   1.736
21818SOL     OW67286  11.791   5.665  10.457
21818SOL    HW167287  11.744   5.676  10.375
21818SOL    HW267288  11.853   5.594  10.441
21819SOL     OW67289  10.002  12.864   3.017
21819SOL    HW167290  10.093  12.847   2.991
21819SOL    HW267291   9.951  12.839   2.940
21820SOL     OW67292   7.513   0.321   0.169
21820SOL    HW167293   7.595   0.356   0.202
21820SOL    HW267294   7.538   0.244   0.118
21821SOL     OW67295  10.740   0.248  11.733
21821SOL    HW167296  10.664   0.216  11.684
21821SOL    HW267297  10.787   0.169  11.759
21822SOL     OW67298   5.212   2.108  10.894
21822SOL    HW167299   5.258   2.027  10.872
21822SOL    HW267300   5.240   2.171  10.827
21823SOL     OW67301   5.721  12.092   8.890
21823SOL    HW167302   5.645  12.036   8.874
21823SOL    HW267303   5.790  12.055   8.836
21824SOL     OW67304  13.727   2.099   9.626
21824SOL    HW167305  13.822   2.104   9.632
21824SOL    HW267306  13.707   2.129   9.537
21825SOL     OW67307   5.957   0.912   5.701
21825SOL    HW167308   6.047   0.945   5.711
21825SOL    HW267309   5.943   0.911   5.606
21826SOL     OW67310   3.500   4.314   2.353
21826SOL    HW167311   3.466   4.306   2.442
21826SOL    HW267312   3.577   4.257   2.353
21827SOL     OW67313   2.294   6.924  13.134
21827SOL    HW167314   2.339   7.001  13.099
21827SOL    HW267315   2.252   6.884  13.058
21828SOL     OW67316   9.062   7.717   3.137
21828SOL    HW167317   9.072   7.809   3.115
21828SOL    HW267318   8.996   7.715   3.206
21829SOL     OW67319  13.573   6.372  13.571
21829SOL    HW167320  13.593   6.455  13.527
21829SOL    HW267321  13.637   6.367  13.642
21830SOL     OW67322  14.759   3.362  11.066
21830SOL    HW167323  14.842   3.313  11.063
21830SOL    HW267324  14.784   3.451  11.089
21831SOL     OW67325  13.446   3.531   4.545
21831SOL    HW167326  13.501   3.601   4.509
21831SOL    HW267327  13.501   3.488   4.611
21832SOL     OW67328   6.967   6.687   1.972
21832SOL    HW167329   7.062   6.677   1.977
21832SOL    HW267330   6.946   6.664   1.881
21833SOL     OW67331  13.365   0.877  10.163
21833SOL    HW167332  13.323   0.958  10.191
21833SOL    HW267333  13.297   0.810  10.173
21834SOL     OW67334   0.628  10.301   7.198
21834SOL    HW167335   0.642  10.214   7.162
21834SOL    HW267336   0.716  10.339   7.201
21835SOL     OW67337  11.140  14.651   1.725
21835SOL    HW167338  11.109  14.603   1.802
21835SOL    HW267339  11.230  14.621   1.712
21836SOL     OW67340   2.401  11.608   5.208
21836SOL    HW167341   2.399  11.701   5.185
21836SOL    HW267342   2.317  11.574   5.175
21837SOL     OW67343  13.402   6.016   5.287
21837SOL    HW167344  13.400   5.922   5.269
21837SOL    HW267345  13.351   6.055   5.216
21838SOL     OW67346  14.046   3.713   7.591
21838SOL    HW167347  13.973   3.713   7.652
21838SOL    HW267348  14.007   3.699   7.505
21839SOL     OW67349   5.553   9.172  10.114
21839SOL    HW167350   5.529   9.098  10.059
21839SOL    HW267351   5.551   9.247  10.055
21840SOL     OW67352   8.415  13.897  13.207
21840SOL    HW167353   8.364  13.875  13.285
21840SOL    HW267354   8.381  13.839  13.139
21841SOL     OW67355  11.421   0.707   1.349
21841SOL    HW167356  11.453   0.618   1.340
21841SOL    HW267357  11.367   0.705   1.428
21842SOL     OW67358  14.270   2.296  14.569
21842SOL    HW167359  14.355   2.260  14.595
21842SOL    HW267360  14.208   2.260  14.633
21843SOL     OW67361   0.089   8.901  14.437
21843SOL    HW167362   0.102   8.873  14.527
21843SOL    HW267363   0.144   8.842  14.385
21844SOL     OW67364  12.254  13.749  14.102
21844SOL    HW167365  12.349  13.734  14.104
21844SOL    HW267366  12.240  13.801  14.023
21845SOL     OW67367   7.341  14.110  14.717
21845SOL    HW167368   7.281  14.123  14.643
21845SOL    HW267369   7.314  14.027  14.756
21846SOL     OW67370  10.151   3.810   7.197
21846SOL    HW167371  10.133   3.780   7.286
21846SOL    HW267372  10.065   3.820   7.158
21847SOL     OW67373   3.785   5.144  10.428
21847SOL    HW167374   3.738   5.061  10.422
21847SOL    HW267375   3.788   5.177  10.338
21848SOL     OW67376  10.110   8.529  10.241
21848SOL    HW167377  10.182   8.536  10.178
21848SOL    HW267378  10.153   8.514  10.325
21849SOL     OW67379  14.439   4.833   8.276
21849SOL    HW167380  14.500   4.775   8.322
21849SOL    HW267381  14.452   4.812   8.183
21850SOL     OW67382  10.444   4.289   0.407
21850SOL    HW167383  10.418   4.236   0.483
21850SOL    HW267384  10.527   4.329   0.432
21851SOL     OW67385   6.385  13.569  11.702
21851SOL    HW167386   6.336  13.640  11.743
21851SOL    HW267387   6.477  13.591  11.717
21852SOL     OW67388  13.726   8.570  10.107
21852SOL    HW167389  13.711   8.649  10.056
21852SOL    HW267390  13.774   8.512  10.048
21853SOL     OW67391   9.277   4.016   1.221
21853SOL    HW167392   9.277   4.073   1.298
21853SOL    HW267393   9.366   4.022   1.187
21854SOL     OW67394   6.765  14.147   2.580
21854SOL    HW167395   6.689  14.192   2.543
21854SOL    HW267396   6.840  14.192   2.543
21855SOL     OW67397   1.887  11.590  12.503
21855SOL    HW167398   1.978  11.577  12.528
21855SOL    HW267399   1.840  11.519  12.546
21856SOL     OW67400   6.176   8.382  12.169
21856SOL    HW167401   6.109   8.447  12.146
21856SOL    HW267402   6.129   8.299  12.174
21857SOL     OW67403   8.919   9.303   6.683
21857SOL    HW167404   8.906   9.359   6.760
21857SOL    HW267405   8.995   9.341   6.639
21858SOL     OW67406   4.557   5.839  10.880
21858SOL    HW167407   4.533   5.758  10.835
21858SOL    HW267408   4.474   5.879  10.903
21859SOL     OW67409   6.655   7.828   6.782
21859SOL    HW167410   6.589   7.869   6.838
21859SOL    HW267411   6.609   7.811   6.700
21860SOL     OW67412   9.129   0.795   4.110
21860SOL    HW167413   9.171   0.722   4.155
21860SOL    HW267414   9.102   0.854   4.180
21861SOL     OW67415  10.630   8.997  14.554
21861SOL    HW167416  10.576   8.992  14.633
21861SOL    HW267417  10.703   9.054  14.578
21862SOL     OW67418   6.069   8.938   4.343
21862SOL    HW167419   5.997   8.940   4.281
21862SOL    HW267420   6.148   8.932   4.288
21863SOL     OW67421   2.888  10.037  12.645
21863SOL    HW167422   2.876  10.096  12.720
21863SOL    HW267423   2.849  10.083  12.571
21864SOL     OW67424  12.291   1.593   4.375
21864SOL    HW167425  12.278   1.501   4.400
21864SOL    HW267426  12.383   1.596   4.347
21865SOL     OW67427   2.362   3.685  13.512
21865SOL    HW167428   2.296   3.679  13.443
21865SOL    HW267429   2.349   3.606  13.565
21866SOL     OW67430   2.830   8.973   0.784
21866SOL    HW167431   2.777   9.052   0.776
21866SOL    HW267432   2.825   8.950   0.877
21867SOL     OW67433  12.764   3.224  10.281
21867SOL    HW167434  12.754   3.253  10.190
21867SOL    HW267435  12.815   3.293  10.323
21868SOL     OW67436   4.033   3.182  14.345
21868SOL    HW167437   4.117   3.136  14.352
21868SOL    HW267438   4.034   3.222  14.258
21869SOL     OW67439   4.023  13.805   4.559
21869SOL    HW167440   4.115  13.830   4.571
21869SOL    HW267441   3.983  13.882   4.517
21870SOL     OW67442   3.452   2.103   1.668
21870SOL    HW167443   3.401   2.151   1.601
21870SOL    HW267444   3.396   2.105   1.745
21871SOL     OW67445   6.099   0.453   4.761
21871SOL    HW167446   6.170   0.413   4.712
21871SOL    HW267447   6.025   0.394   4.747
21872SOL     OW67448   4.616  11.659   2.409
21872SOL    HW167449   4.688  11.598   2.429
21872SOL    HW267450   4.652  11.745   2.427
21873SOL     OW67451   4.316   3.375   4.598
21873SOL    HW167452   4.225   3.403   4.594
21873SOL    HW267453   4.341   3.359   4.507
21874SOL     OW67454   7.150   8.458  11.346
21874SOL    HW167455   7.210   8.513  11.396
21874SOL    HW267456   7.111   8.517  11.281
21875SOL     OW67457  13.242   5.644  10.531
21875SOL    HW167458  13.295   5.633  10.610
21875SOL    HW267459  13.290   5.708  10.479
21876SOL     OW67460   5.746  13.494   0.822
21876SOL    HW167461   5.782  13.549   0.753
21876SOL    HW267462   5.811  13.497   0.892
21877SOL     OW67463   7.875   7.088   1.569
21877SOL    HW167464   7.922   7.016   1.526
21877SOL    HW267465   7.942   7.135   1.617
21878SOL     OW67466   9.300   0.669   1.661
21878SOL    HW167467   9.360   0.594   1.671
21878SOL    HW267468   9.218   0.631   1.631
21879SOL     OW67469  13.154  12.522   2.475
21879SOL    HW167470  13.247  12.536   2.494
21879SOL    HW267471  13.110  12.538   2.558
21880SOL     OW67472  14.205   8.533   2.334
21880SOL    HW167473  14.265   8.604   2.354
21880SOL    HW267474  14.162   8.560   2.253
21881SOL     OW67475   1.500   3.239   6.029
21881SOL    HW167476   1.551   3.259   5.951
21881SOL    HW267477   1.565   3.223   6.097
21882SOL     OW67478   9.387   5.280   8.234
21882SOL    HW167479   9.391   5.376   8.232
21882SOL    HW267480   9.464   5.254   8.284
21883SOL     OW67481   0.481  14.562  13.293
21883SOL    HW167482   0.405  14.536  13.345
21883SOL    HW267483   0.556  14.545  13.350
21884SOL     OW67484  11.630   2.122   9.620
21884SOL    HW167485  11.691   2.095   9.551
21884SOL    HW267486  11.630   2.217   9.617
21885SOL     OW67487   3.066   6.758   5.627
21885SOL    HW167488   3.122   6.783   5.700
21885SOL    HW267489   3.085   6.822   5.559
21886SOL     OW67490  10.361   2.511   0.073
21886SOL    HW167491  10.336   2.569   0.001
21886SOL    HW267492  10.428   2.453   0.036
21887SOL     OW67493   1.801   0.077   1.411
21887SOL    HW167494   1.823   0.134   1.337
21887SOL    HW267495   1.713   0.046   1.393
21888SOL     OW67496   0.996   6.287  12.554
21888SOL    HW167497   0.901   6.277  12.568
21888SOL    HW267498   1.007   6.380  12.536
21889SOL     OW67499  13.819   5.846   3.789
21889SOL    HW167500  13.837   5.819   3.699
21889SOL    HW267501  13.761   5.778   3.823
21890SOL     OW67502  14.596   4.498   5.715
21890SOL    HW167503  14.685   4.466   5.728
21890SOL    HW267504  14.552   4.481   5.798
21891SOL     OW67505   7.827   0.727   8.840
21891SOL    HW167506   7.738   0.698   8.818
21891SOL    HW267507   7.884   0.676   8.782
21892SOL     OW67508  10.512   0.374   8.507
21892SOL    HW167509  10.559   0.450   8.540
21892SOL    HW267510  10.524   0.377   8.413
21893SOL     OW67511   0.256  12.356  13.563
21893SOL    HW167512   0.314  12.355  13.486
21893SOL    HW267513   0.203  12.277  13.553
21894SOL     OW67514   3.766   3.306  13.531
21894SOL    HW167515   3.692   3.250  13.555
21894SOL    HW267516   3.835   3.281  13.593
21895SOL     OW67517  13.343  13.791   2.833
21895SOL    HW167518  13.331  13.867   2.776
21895SOL    HW267519  13.298  13.814   2.914
21896SOL     OW67520   8.691  14.550   5.625
21896SOL    HW167521   8.664  14.467   5.664
21896SOL    HW267522   8.767  14.527   5.571
21897SOL     OW67523   2.607   2.962   0.256
21897SOL    HW167524   2.686   2.952   0.309
21897SOL    HW267525   2.578   2.872   0.239
21898SOL     OW67526   7.827   8.498   9.315
21898SOL    HW167527   7.873   8.568   9.270
21898SOL    HW267528   7.734   8.523   9.310
21899SOL     OW67529   8.371   9.336  11.394
21899SOL    HW167530   8.437   9.291  11.341
21899SOL    HW267531   8.337   9.404  11.336
21900SOL     OW67532   5.778   2.625   9.798
21900SOL    HW167533   5.810   2.536   9.816
21900SOL    HW267534   5.691   2.611   9.760
21901SOL     OW67535   3.172   2.412   0.195
21901SOL    HW167536   3.220   2.481   0.241
21901SOL    HW267537   3.083   2.447   0.186
21902SOL     OW67538   8.081   5.921  10.594
21902SOL    HW167539   8.086   6.011  10.562
21902SOL    HW267540   8.117   5.868  10.523
21903SOL     OW67541   8.300   0.850  10.050
21903SOL    HW167542   8.326   0.758  10.044
21903SOL    HW267543   8.217   0.848  10.098
21904SOL     OW67544  13.151   7.242  14.159
21904SOL    HW167545  13.136   7.152  14.189
21904SOL    HW267546  13.091   7.252  14.085
21905SOL     OW67547   3.677   9.742   2.506
21905SOL    HW167548   3.749   9.745   2.569
21905SOL    HW267549   3.701   9.806   2.440
21906SOL     OW67550   1.996  13.117   4.831
21906SOL    HW167551   1.904  13.093   4.821
21906SOL    HW267552   2.006  13.136   4.925
21907SOL     OW67553  12.049   8.210   1.335
21907SOL    HW167554  11.982   8.224   1.401
21907SOL    HW267555  12.022   8.132   1.288
21908SOL     OW67556   5.591  11.372   1.204
21908SOL    HW167557   5.624  11.283   1.202
21908SOL    HW267558   5.496  11.363   1.208
21909SOL     OW67559  10.282   0.941   9.431
21909SOL    HW167560  10.203   0.929   9.482
21909SOL    HW267561  10.256   0.995   9.357
21910SOL     OW67562   4.043   1.315  10.180
21910SOL    HW167563   4.025   1.390  10.237
21910SOL    HW267564   4.118   1.343  10.127
21911SOL     OW67565  10.573  13.031   2.388
21911SOL    HW167566  10.484  13.067   2.380
21911SOL    HW267567  10.610  13.042   2.300
21912SOL     OW67568   7.952  14.104   5.504
21912SOL    HW167569   7.927  14.025   5.550
21912SOL    HW267570   7.873  14.159   5.506
21913SOL     OW67571   4.859   9.016   8.876
21913SOL    HW167572   4.836   8.999   8.785
21913SOL    HW267573   4.954   9.018   8.877
21914SOL     OW67574  10.522   1.950   5.376
21914SOL    HW167575  10.581   2.005   5.429
21914SOL    HW267576  10.449   1.930   5.434
21915SOL     OW67577   0.924   2.881   6.149
21915SOL    HW167578   0.994   2.825   6.182
21915SOL    HW267579   0.967   2.938   6.086
21916SOL     OW67580   6.981   0.979   9.332
21916SOL    HW167581   6.982   0.885   9.350
21916SOL    HW267582   6.901   1.011   9.374
21917SOL     OW67583  14.121   0.077   8.938
21917SOL    HW167584  14.167   0.058   9.020
21917SOL    HW267585  14.035   0.035   8.948
21918SOL     OW67586   5.459   3.665  13.385
21918SOL    HW167587   5.454   3.672  13.481
21918SOL    HW267588   5.524   3.597  13.370
21919SOL     OW67589   2.003   2.451  11.096
21919SOL    HW167590   1.976   2.359  11.094
21919SOL    HW267591   1.922   2.501  11.083
21920SOL     OW67592   7.716   8.506   7.446
21920SOL    HW167593   7.801   8.494   7.488
21920SOL    HW267594   7.674   8.577   7.495
21921SOL     OW67595   1.541  14.096  11.173
21921SOL    HW167596   1.539  14.170  11.234
21921SOL    HW267597   1.542  14.135  11.086
21922SOL     OW67598   2.326  11.112   1.568
21922SOL    HW167599   2.333  11.200   1.531
21922SOL    HW267600   2.335  11.125   1.663
21923SOL     OW67601   8.779  11.340  14.559
21923SOL    HW167602   8.837  11.271  14.528
21923SOL    HW267603   8.837  11.416  14.568
21924SOL     OW67604   6.948   3.645   0.921
21924SOL    HW167605   7.017   3.609   0.866
21924SOL    HW267606   6.965   3.739   0.924
21925SOL     OW67607  13.983  10.974  10.596
21925SOL    HW167608  13.910  11.035  10.608
21925SOL    HW267609  14.056  11.014  10.643
21926SOL     OW67610  13.360   5.275   8.479
21926SOL    HW167611  13.412   5.240   8.406
21926SOL    HW267612  13.281   5.310   8.437
21927SOL     OW67613  10.204  14.739   8.292
21927SOL    HW167614  10.250  14.726   8.209
21927SOL    HW267615  10.259  14.698   8.357
21928SOL     OW67616   0.071  10.145  12.401
21928SOL    HW167617  14.878  10.091  12.433
21928SOL    HW267618   0.147  10.117  12.451
21929SOL     OW67619  10.266   4.423   3.291
21929SOL    HW167620  10.318   4.343   3.289
21929SOL    HW267621  10.181   4.396   3.327
21930SOL     OW67622   1.828   3.905   8.963
21930SOL    HW167623   1.745   3.952   8.958
21930SOL    HW267624   1.804   3.818   8.995
21931SOL     OW67625   3.761  11.125   2.593
21931SOL    HW167626   3.728  11.123   2.503
21931SOL    HW267627   3.728  11.044   2.632
21932SOL     OW67628   9.837   7.589   1.028
21932SOL    HW167629   9.879   7.561   0.946
21932SOL    HW267630   9.833   7.685   1.021
21933SOL     OW67631   1.006   3.591   3.749
21933SOL    HW167632   1.033   3.499   3.763
21933SOL    HW267633   0.950   3.588   3.672
21934SOL     OW67634  13.146   5.303   8.713
21934SOL    HW167635  13.222   5.247   8.726
21934SOL    HW267636  13.162   5.379   8.770
21935SOL     OW67637   5.424   7.308  12.189
21935SOL    HW167638   5.405   7.246  12.119
21935SOL    HW267639   5.337   7.340  12.216
21936SOL     OW67640   2.611   5.953  12.589
21936SOL    HW167641   2.600   5.863  12.621
21936SOL    HW267642   2.658   5.944  12.507
21937SOL     OW67643  10.149  10.015  12.675
21937SOL    HW167644  10.064   9.994  12.637
21937SOL    HW267645  10.176  10.095  12.630
21938SOL     OW67646   4.557  14.258   8.706
21938SOL    HW167647   4.467  14.290   8.697
21938SOL    HW267648   4.611  14.330   8.674
21939SOL     OW67649  10.458  13.727  10.979
21939SOL    HW167650  10.498  13.749  11.063
21939SOL    HW267651  10.460  13.631  10.976
21940SOL     OW67652  13.788   8.216  12.463
21940SOL    HW167653  13.726   8.266  12.408
21940SOL    HW267654  13.732   8.162  12.519
21941SOL     OW67655   4.326   0.003  13.862
21941SOL    HW167656   4.365  14.807  13.819
21941SOL    HW267657   4.399   0.046  13.908
21942SOL     OW67658  10.452  12.568   9.081
21942SOL    HW167659  10.446  12.559   9.176
21942SOL    HW267660  10.436  12.662   9.066
21943SOL     OW67661   9.556   8.136   4.687
21943SOL    HW167662   9.520   8.090   4.763
21943SOL    HW267663   9.480   8.164   4.637
21944SOL     OW67664   0.079   8.502   3.028
21944SOL    HW167665   0.148   8.534   2.970
21944SOL    HW267666   0.079   8.563   3.102
21945SOL     OW67667   9.145   2.887  10.987
21945SOL    HW167668   9.053   2.872  11.006
21945SOL    HW267669   9.152   2.879  10.892
21946SOL     OW67670  10.994  10.303   1.484
21946SOL    HW167671  11.044  10.346   1.554
21946SOL    HW267672  10.993  10.367   1.413
21947SOL     OW67673   0.523  12.827   9.425
21947SOL    HW167674   0.475  12.744   9.422
21947SOL    HW267675   0.603  12.807   9.474
21948SOL     OW67676  12.078   9.666   4.223
21948SOL    HW167677  11.984   9.645   4.225
21948SOL    HW267678  12.114   9.618   4.298
21949SOL     OW67679   1.706   9.546   7.131
21949SOL    HW167680   1.787   9.590   7.105
21949SOL    HW267681   1.693   9.572   7.223
21950SOL     OW67682   4.436  10.717  12.091
21950SOL    HW167683   4.480  10.736  12.174
21950SOL    HW267684   4.507  10.705  12.029
21951SOL     OW67685   0.960   6.681   5.424
21951SOL    HW167686   0.941   6.595   5.386
21951SOL    HW267687   0.961   6.666   5.519
21952SOL     OW67688  13.235   0.034   9.721
21952SOL    HW167689  13.305   0.005   9.663
21952SOL    HW267690  13.188  14.833   9.744
21953SOL     OW67691  11.841   2.781   3.816
21953SOL    HW167692  11.888   2.750   3.738
21953SOL    HW267693  11.839   2.704   3.874
21954SOL     OW67694   2.941   7.283   8.982
21954SOL    HW167695   3.006   7.347   8.956
21954SOL    HW267696   2.954   7.209   8.922
21955SOL     OW67697  11.443   8.661   0.436
21955SOL    HW167698  11.410   8.723   0.502
21955SOL    HW267699  11.463   8.716   0.360
21956SOL     OW67700   0.898   7.584   0.661
21956SOL    HW167701   0.989   7.616   0.661
21956SOL    HW267702   0.902   7.504   0.607
21957SOL     OW67703  10.879   3.907   8.804
21957SOL    HW167704  10.843   3.984   8.848
21957SOL    HW267705  10.869   3.925   8.711
21958SOL     OW67706  10.362  11.098  13.218
21958SOL    HW167707  10.434  11.160  13.226
21958SOL    HW267708  10.312  11.109  13.299
21959SOL     OW67709   6.743   2.908   5.024
21959SOL    HW167710   6.750   3.001   5.004
21959SOL    HW267711   6.731   2.905   5.119
21960SOL     OW67712   1.918   9.431  13.866
21960SOL    HW167713   1.861   9.495  13.909
21960SOL    HW267714   1.860   9.356  13.848
21961SOL     OW67715   3.963   9.848   3.104
21961SOL    HW167716   3.952   9.941   3.088
21961SOL    HW267717   3.919   9.833   3.188
21962SOL     OW67718   0.150   3.316   8.195
21962SOL    HW167719   0.187   3.252   8.134
21962SOL    HW267720   0.105   3.379   8.140
21963SOL     OW67721  12.569   6.001   2.046
21963SOL    HW167722  12.520   6.083   2.039
21963SOL    HW267723  12.640   6.021   2.107
21964SOL     OW67724  13.053   5.630   6.390
21964SOL    HW167725  13.070   5.575   6.466
21964SOL    HW267726  12.959   5.621   6.375
21965SOL     OW67727   4.040   0.989   7.066
21965SOL    HW167728   4.118   1.034   7.097
21965SOL    HW267729   4.006   1.046   6.996
21966SOL     OW67730  11.212   3.071  14.443
21966SOL    HW167731  11.281   3.032  14.498
21966SOL    HW267732  11.237   3.047  14.354
21967SOL     OW67733   8.314   6.656   0.712
21967SOL    HW167734   8.257   6.683   0.640
21967SOL    HW267735   8.391   6.619   0.669
21968SOL     OW67736   3.747  12.127  11.285
21968SOL    HW167737   3.667  12.077  11.271
21968SOL    HW267738   3.747  12.193  11.216
21969SOL     OW67739   0.159  13.593   5.671
21969SOL    HW167740   0.071  13.631   5.670
21969SOL    HW267741   0.157  13.529   5.742
21970SOL     OW67742   5.165   0.713   5.182
21970SOL    HW167743   5.232   0.721   5.114
21970SOL    HW267744   5.085   0.746   5.141
21971SOL     OW67745  12.050   0.299   1.087
21971SOL    HW167746  11.959   0.325   1.105
21971SOL    HW267747  12.054   0.290   0.992
21972SOL     OW67748  13.960   1.549  13.006
21972SOL    HW167749  13.980   1.596  13.087
21972SOL    HW267750  13.947   1.618  12.941
21973SOL     OW67751   5.055  13.219   3.684
21973SOL    HW167752   5.040  13.249   3.773
21973SOL    HW267753   4.967  13.216   3.645
21974SOL     OW67754  10.384   0.633   3.443
21974SOL    HW167755  10.397   0.647   3.349
21974SOL    HW267756  10.437   0.556   3.464
21975SOL     OW67757   6.981   2.288  12.608
21975SOL    HW167758   7.038   2.363  12.590
21975SOL    HW267759   6.893   2.325  12.603
21976SOL     OW67760  13.674   3.401   1.085
21976SOL    HW167761  13.593   3.362   1.052
21976SOL    HW267762  13.694   3.471   1.024
21977SOL     OW67763   1.433   3.416   9.184
21977SOL    HW167764   1.343   3.444   9.203
21977SOL    HW267765   1.475   3.413   9.270
21978SOL     OW67766   8.708  11.719  14.360
21978SOL    HW167767   8.632  11.685  14.407
21978SOL    HW267768   8.748  11.781  14.421
21979SOL     OW67769   5.225  12.967   6.986
21979SOL    HW167770   5.190  13.052   7.014
21979SOL    HW267771   5.148  12.918   6.956
21980SOL     OW67772   8.225   8.709   6.685
21980SOL    HW167773   8.279   8.670   6.617
21980SOL    HW267774   8.136   8.710   6.647
21981SOL     OW67775   0.831  10.515   9.654
21981SOL    HW167776   0.769  10.488   9.721
21981SOL    HW267777   0.805  10.466   9.576
21982SOL     OW67778  12.724   0.144   9.448
21982SOL    HW167779  12.705   0.069   9.391
21982SOL    HW267780  12.762   0.105   9.527
21983SOL     OW67781   1.258   8.094   8.029
21983SOL    HW167782   1.188   8.111   7.965
21983SOL    HW267783   1.230   8.015   8.074
21984SOL     OW67784   2.866   2.375  11.139
21984SOL    HW167785   2.829   2.332  11.216
21984SOL    HW267786   2.821   2.460  11.134
21985SOL     OW67787  11.428   6.402   1.122
21985SOL    HW167788  11.477   6.336   1.073
21985SOL    HW267789  11.458   6.393   1.212
21986SOL     OW67790  14.196   3.798   3.991
21986SOL    HW167791  14.265   3.760   4.046
21986SOL    HW267792  14.187   3.737   3.918
21987SOL     OW67793   0.799  11.098   6.639
21987SOL    HW167794   0.848  11.016   6.634
21987SOL    HW267795   0.717  11.080   6.593
21988SOL     OW67796  12.963  14.077   8.305
21988SOL    HW167797  12.938  14.166   8.330
21988SOL    HW267798  12.900  14.052   8.237
21989SOL     OW67799  13.162  10.951   1.168
21989SOL    HW167800  13.154  11.046   1.171
21989SOL    HW267801  13.256  10.935   1.176
21990SOL     OW67802  10.922   5.793  12.525
21990SOL    HW167803  10.871   5.810  12.446
21990SOL    HW267804  10.863   5.741  12.580
21991SOL     OW67805   7.090   3.628   5.611
21991SOL    HW167806   7.044   3.570   5.550
21991SOL    HW267807   7.115   3.704   5.559
21992SOL     OW67808   0.027   6.459  12.460
21992SOL    HW167809   0.100   6.398  12.446
21992SOL    HW267810  14.844   6.410  12.514
21993SOL     OW67811   3.112   3.596  14.424
21993SOL    HW167812   3.095   3.552  14.508
21993SOL    HW267813   3.037   3.574  14.369
21994SOL     OW67814   1.627   0.557   3.398
21994SOL    HW167815   1.648   0.564   3.491
21994SOL    HW267816   1.677   0.482   3.368
21995SOL     OW67817   3.779   2.470   3.845
21995SOL    HW167818   3.814   2.519   3.771
21995SOL    HW267819   3.740   2.536   3.902
21996SOL     OW67820   7.966   2.798   2.279
21996SOL    HW167821   7.916   2.792   2.360
21996SOL    HW267822   7.908   2.763   2.211
21997SOL     OW67823   5.914  14.203   5.975
21997SOL    HW167824   5.889  14.121   6.017
21997SOL    HW267825   5.972  14.177   5.904
21998SOL     OW67826   3.638  13.745   2.979
21998SOL    HW167827   3.650  13.809   3.050
21998SOL    HW267828   3.550  13.711   2.992
21999SOL     OW67829  11.863  11.455   5.693
21999SOL    HW167830  11.903  11.401   5.760
21999SOL    HW267831  11.854  11.398   5.617
22000SOL     OW67832   4.046  12.677   4.800
22000SOL    HW167833   4.098  12.734   4.856
22000SOL    HW267834   3.968  12.657   4.851
22001SOL     OW67835  10.378   8.977   1.214
22001SOL    HW167836  10.307   9.040   1.217
22001SOL    HW267837  10.450   9.020   1.260
22002SOL     OW67838   0.851   7.708   3.952
22002SOL    HW167839   0.830   7.721   4.045
22002SOL    HW267840   0.922   7.644   3.952
22003SOL     OW67841   7.220   3.319   8.456
22003SOL    HW167842   7.253   3.409   8.457
22003SOL    HW267843   7.203   3.298   8.548
22004SOL     OW67844  11.048   1.408   5.305
22004SOL    HW167845  10.992   1.350   5.357
22004SOL    HW267846  10.997   1.489   5.297
22005SOL     OW67847   7.512  12.086   8.904
22005SOL    HW167848   7.490  12.179   8.899
22005SOL    HW267849   7.544  12.064   8.816
22006SOL     OW67850   8.314   5.976   1.899
22006SOL    HW167851   8.401   5.944   1.918
22006SOL    HW267852   8.304   5.963   1.804
22007SOL     OW67853  14.559   4.778   4.869
22007SOL    HW167854  14.636   4.768   4.925
22007SOL    HW267855  14.490   4.730   4.915
22008SOL     OW67856   5.873   2.451  10.979
22008SOL    HW167857   5.901   2.462  11.070
22008SOL    HW267858   5.835   2.363  10.976
22009SOL     OW67859  13.783  11.281   7.619
22009SOL    HW167860  13.874  11.262   7.596
22009SOL    HW267861  13.774  11.375   7.603
22010SOL     OW67862   9.477   4.632   4.847
22010SOL    HW167863   9.491   4.608   4.756
22010SOL    HW267864   9.382   4.628   4.858
22011SOL     OW67865  12.267  12.694   6.186
22011SOL    HW167866  12.192  12.752   6.199
22011SOL    HW267867  12.325  12.743   6.127
22012SOL     OW67868   0.475  12.260   9.996
22012SOL    HW167869   0.464  12.354  10.010
22012SOL    HW267870   0.570  12.246   9.999
22013SOL     OW67871   1.489   9.396   4.322
22013SOL    HW167872   1.396   9.399   4.302
22013SOL    HW267873   1.522   9.322   4.270
22014SOL     OW67874   4.062  14.424  11.132
22014SOL    HW167875   4.073  14.473  11.051
22014SOL    HW267876   3.997  14.357  11.111
22015SOL     OW67877   4.679   9.196   5.641
22015SOL    HW167878   4.647   9.109   5.664
22015SOL    HW267879   4.696   9.238   5.726
22016SOL     OW67880   6.107   2.887  11.511
22016SOL    HW167881   6.133   2.843  11.592
22016SOL    HW267882   6.109   2.980  11.532
22017SOL     OW67883  12.459   9.159   1.021
22017SOL    HW167884  12.470   9.144   1.115
22017SOL    HW267885  12.429   9.249   1.015
22018SOL     OW67886   9.667   4.165  11.700
22018SOL    HW167887   9.643   4.083  11.657
22018SOL    HW267888   9.606   4.173  11.774
22019SOL     OW67889   7.204   9.317   4.324
22019SOL    HW167890   7.228   9.258   4.396
22019SOL    HW267891   7.168   9.259   4.256
22020SOL     OW67892   5.645   7.983   4.880
22020SOL    HW167893   5.550   7.974   4.884
22020SOL    HW267894   5.660   8.074   4.856
22021SOL     OW67895   4.776   8.131   2.080
22021SOL    HW167896   4.708   8.198   2.078
22021SOL    HW267897   4.779   8.101   2.171
22022SOL     OW67898   1.266   9.221   5.023
22022SOL    HW167899   1.182   9.255   5.054
22022SOL    HW267900   1.330   9.285   5.055
22023SOL     OW67901   4.820   1.676   8.534
22023SOL    HW167902   4.869   1.729   8.472
22023SOL    HW267903   4.794   1.736   8.603
22024SOL     OW67904   1.257   1.328   6.953
22024SOL    HW167905   1.268   1.391   7.024
22024SOL    HW267906   1.339   1.278   6.953
22025SOL     OW67907  11.287   5.383   0.278
22025SOL    HW167908  11.256   5.470   0.252
22025SOL    HW267909  11.320   5.344   0.197
22026SOL     OW67910  10.602  13.082   7.639
22026SOL    HW167911  10.677  13.140   7.626
22026SOL    HW267912  10.640  12.995   7.651
22027SOL     OW67913   1.908   9.709   4.914
22027SOL    HW167914   1.985   9.652   4.922
22027SOL    HW267915   1.887   9.708   4.821
22028SOL     OW67916  14.350   7.466   1.093
22028SOL    HW167917  14.431   7.483   1.045
22028SOL    HW267918  14.343   7.539   1.155
22029SOL     OW67919   0.584   5.426  11.273
22029SOL    HW167920   0.543   5.358  11.325
22029SOL    HW267921   0.525   5.501  11.279
22030SOL     OW67922  10.206   2.086  10.164
22030SOL    HW167923  10.140   2.135  10.115
22030SOL    HW267924  10.156   2.036  10.229
22031SOL     OW67925   0.312   7.207   3.774
22031SOL    HW167926   0.320   7.117   3.745
22031SOL    HW267927   0.360   7.258   3.709
22032SOL     OW67928   9.376   3.849   4.015
22032SOL    HW167929   9.406   3.761   3.992
22032SOL    HW267930   9.355   3.889   3.931
22033SOL     OW67931  14.489   5.165   9.325
22033SOL    HW167932  14.485   5.076   9.290
22033SOL    HW267933  14.564   5.204   9.280
22034SOL     OW67934   2.036  11.538   8.103
22034SOL    HW167935   2.110  11.589   8.135
22034SOL    HW267936   2.076  11.473   8.045
22035SOL     OW67937   1.630  14.634   1.585
22035SOL    HW167938   1.630  14.584   1.667
22035SOL    HW267939   1.545  14.615   1.546
22036SOL     OW67940  10.158  13.308   5.678
22036SOL    HW167941  10.106  13.365   5.621
22036SOL    HW267942  10.109  13.226   5.682
22037SOL     OW67943  10.802   6.382  14.236
22037SOL    HW167944  10.787   6.449  14.303
22037SOL    HW267945  10.793   6.430  14.153
22038SOL     OW67946  13.773   6.947   1.853
22038SOL    HW167947  13.764   7.027   1.904
22038SOL    HW267948  13.830   6.972   1.780
22039SOL     OW67949  14.308   5.356   6.745
22039SOL    HW167950  14.380   5.393   6.797
22039SOL    HW267951  14.281   5.428   6.687
22040SOL     OW67952   6.153  10.366   2.923
22040SOL    HW167953   6.088  10.391   2.989
22040SOL    HW267954   6.227  10.332   2.974
22041SOL     OW67955   1.632  14.482   1.859
22041SOL    HW167956   1.649  14.391   1.882
22041SOL    HW267957   1.718  14.519   1.841
22042SOL     OW67958  13.305  13.972   5.787
22042SOL    HW167959  13.270  13.925   5.863
22042SOL    HW267960  13.383  13.923   5.762
22043SOL     OW67961  14.317   2.249   6.853
22043SOL    HW167962  14.326   2.207   6.938
22043SOL    HW267963  14.404   2.285   6.834
22044SOL     OW67964  10.230   7.386   3.425
22044SOL    HW167965  10.213   7.366   3.517
22044SOL    HW267966  10.189   7.471   3.410
22045SOL     OW67967   9.620   8.909   1.113
22045SOL    HW167968   9.681   8.841   1.141
22045SOL    HW267969   9.650   8.988   1.158
22046SOL     OW67970   0.944   6.398   8.114
22046SOL    HW167971   0.864   6.450   8.103
22046SOL    HW267972   1.015   6.462   8.107
22047SOL     OW67973   2.484  13.859  11.785
22047SOL    HW167974   2.447  13.771  11.786
22047SOL    HW267975   2.421  13.910  11.733
22048SOL     OW67976   1.883   1.741  10.466
22048SOL    HW167977   1.912   1.832  10.474
22048SOL    HW267978   1.821   1.730  10.537
22049SOL     OW67979   3.622   8.950  10.911
22049SOL    HW167980   3.685   8.995  10.966
22049SOL    HW267981   3.559   8.913  10.972
22050SOL     OW67982  10.524  12.701   1.831
22050SOL    HW167983  10.459  12.738   1.772
22050SOL    HW267984  10.586  12.655   1.773
22051SOL     OW67985  12.655   6.488  10.883
22051SOL    HW167986  12.706   6.446  10.813
22051SOL    HW267987  12.565   6.462  10.865
22052SOL     OW67988  13.405  13.389   7.169
22052SOL    HW167989  13.336  13.452   7.148
22052SOL    HW267990  13.378  13.351   7.252
22053SOL     OW67991   0.857   7.597  12.714
22053SOL    HW167992   0.863   7.510  12.754
22053SOL    HW267993   0.836   7.581  12.622
22054SOL     OW67994   0.771  14.509   5.738
22054SOL    HW167995   0.786  14.417   5.716
22054SOL    HW267996   0.683  14.510   5.775
22055SOL     OW67997   2.676   9.160   1.559
22055SOL    HW167998   2.669   9.119   1.473
22055SOL    HW267999   2.769   9.155   1.581
22056SOL     OW68000  11.435   2.480   5.426
22056SOL    HW168001  11.454   2.548   5.490
22056SOL    HW268002  11.436   2.399   5.476
22057SOL     OW68003   1.099   8.907   5.644
22057SOL    HW168004   1.160   8.975   5.673
22057SOL    HW268005   1.152   8.827   5.641
22058SOL     OW68006   0.700  11.267   9.767
22058SOL    HW168007   0.663  11.333   9.826
22058SOL    HW268008   0.780  11.308   9.733
22059SOL     OW68009   7.894   2.838  10.661
22059SOL    HW168010   7.819   2.849  10.719
22059SOL    HW268011   7.858   2.794  10.584
22060SOL     OW68012  10.303  12.265  12.176
22060SOL    HW168013  10.221  12.292  12.218
22060SOL    HW268014  10.344  12.347  12.147
22061SOL     OW68015   8.695   1.970  14.128
22061SOL    HW168016   8.708   1.875  14.122
22061SOL    HW268017   8.783   2.005  14.140
22062SOL     OW68018  14.613   9.540   2.670
22062SOL    HW168019  14.628   9.452   2.635
22062SOL    HW268020  14.701   9.571   2.693
22063SOL     OW68021  10.711   8.855   1.954
22063SOL    HW168022  10.800   8.834   1.924
22063SOL    HW268023  10.719   8.942   1.992
22064SOL     OW68024   7.765   9.433   6.712
22064SOL    HW168025   7.814   9.358   6.679
22064SOL    HW268026   7.761   9.418   6.807
22065SOL     OW68027   7.944  10.027  14.064
22065SOL    HW168028   8.016  10.090  14.059
22065SOL    HW268029   7.984   9.949  14.102
22066SOL     OW68030   6.571   6.717  12.732
22066SOL    HW168031   6.488   6.702  12.777
22066SOL    HW268032   6.625   6.764  12.796
22067SOL     OW68033   0.363   7.820  10.354
22067SOL    HW168034   0.364   7.855  10.443
22067SOL    HW268035   0.329   7.731  10.363
22068SOL     OW68036  14.444   4.067   3.258
22068SOL    HW168037  14.505   4.042   3.188
22068SOL    HW268038  14.472   4.015   3.333
22069SOL     OW68039   3.781   8.464   1.885
22069SOL    HW168040   3.855   8.521   1.868
22069SOL    HW268041   3.742   8.498   1.965
22070SOL     OW68042  13.260  11.087   4.068
22070SOL    HW168043  13.228  11.066   3.981
22070SOL    HW268044  13.182  11.111   4.118
22071SOL     OW68045  10.613   7.545   2.303
22071SOL    HW168046  10.551   7.482   2.265
22071SOL    HW268047  10.655   7.497   2.374
22072SOL     OW68048   1.540   7.307   6.054
22072SOL    HW168049   1.580   7.340   6.134
22072SOL    HW268050   1.487   7.233   6.083
22073SOL     OW68051   5.715  14.152   1.600
22073SOL    HW168052   5.633  14.103   1.609
22073SOL    HW268053   5.782  14.084   1.591
22074SOL     OW68054  11.678   1.669  13.466
22074SOL    HW168055  11.588   1.676  13.436
22074SOL    HW268056  11.728   1.727  13.408
22075SOL     OW68057   9.107   5.488  13.037
22075SOL    HW168058   9.085   5.493  13.130
22075SOL    HW268059   9.200   5.513  13.034
22076SOL     OW68060   0.834  12.669   0.438
22076SOL    HW168061   0.878  12.594   0.480
22076SOL    HW268062   0.881  12.680   0.355
22077SOL     OW68063   5.273   4.633  13.202
22077SOL    HW168064   5.284   4.704  13.138
22077SOL    HW268065   5.331   4.657  13.274
22078SOL     OW68066   5.804   6.860   7.452
22078SOL    HW168067   5.761   6.887   7.370
22078SOL    HW268068   5.738   6.807   7.496
22079SOL     OW68069   6.593  11.737  10.849
22079SOL    HW168070   6.511  11.775  10.818
22079SOL    HW268071   6.577  11.720  10.942
22080SOL     OW68072  13.552   8.908   3.052
22080SOL    HW168073  13.579   8.840   2.991
22080SOL    HW268074  13.535   8.985   2.997
22081SOL     OW68075   3.683  10.833  12.680
22081SOL    HW168076   3.668  10.925  12.703
22081SOL    HW268077   3.708  10.835  12.588
22082SOL     OW68078   2.058   5.905  12.718
22082SOL    HW168079   2.042   5.824  12.670
22082SOL    HW268080   2.133   5.885  12.774
22083SOL     OW68081   7.354   6.839   6.758
22083SOL    HW168082   7.395   6.753   6.754
22083SOL    HW268083   7.323   6.847   6.848
22084SOL     OW68084   3.694  13.816   1.313
22084SOL    HW168085   3.788  13.809   1.298
22084SOL    HW268086   3.668  13.896   1.267
22085SOL     OW68087   5.840   4.134   5.455
22085SOL    HW168088   5.862   4.152   5.547
22085SOL    HW268089   5.799   4.215   5.424
22086SOL     OW68090  14.450  12.341   9.692
22086SOL    HW168091  14.437  12.435   9.694
22086SOL    HW268092  14.462  12.316   9.784
22087SOL     OW68093   3.176  12.500   3.464
22087SOL    HW168094   3.243  12.494   3.395
22087SOL    HW268095   3.158  12.593   3.472
22088SOL     OW68096   3.555   0.563   2.066
22088SOL    HW168097   3.592   0.643   2.104
22088SOL    HW268098   3.473   0.550   2.112
22089SOL     OW68099   6.686   2.552  10.249
22089SOL    HW168100   6.645   2.571  10.333
22089SOL    HW268101   6.703   2.638  10.211
22090SOL     OW68102   4.777  14.321   3.540
22090SOL    HW168103   4.727  14.386   3.491
22090SOL    HW268104   4.824  14.272   3.472
22091SOL     OW68105   7.301   1.462   9.568
22091SOL    HW168106   7.328   1.513   9.492
22091SOL    HW268107   7.249   1.390   9.532
22092SOL     OW68108   9.785   4.740   1.593
22092SOL    HW168109   9.810   4.787   1.514
22092SOL    HW268110   9.694   4.714   1.578
22093SOL     OW68111   1.081  13.229   1.736
22093SOL    HW168112   1.078  13.192   1.825
22093SOL    HW268113   1.063  13.155   1.679
22094SOL     OW68114  12.064   0.083  14.858
22094SOL    HW168115  12.040   0.009   0.035
22094SOL    HW268116  12.159   0.079  14.852
22095SOL     OW68117   2.545   8.287   8.810
22095SOL    HW168118   2.494   8.206   8.811
22095SOL    HW268119   2.513   8.334   8.734
22096SOL     OW68120   0.695  12.561  13.712
22096SOL    HW168121   0.652  12.647  13.716
22096SOL    HW268122   0.702  12.533  13.803
22097SOL     OW68123  10.774   1.171   8.688
22097SOL    HW168124  10.734   1.173   8.775
22097SOL    HW268125  10.808   1.082   8.679
22098SOL     OW68126   2.753   1.751   9.022
22098SOL    HW168127   2.821   1.760   9.088
22098SOL    HW268128   2.745   1.838   8.983
22099SOL     OW68129  12.155   1.682   1.242
22099SOL    HW168130  12.071   1.643   1.219
22099SOL    HW268131  12.220   1.621   1.206
22100SOL     OW68132  12.415  12.206   3.156
22100SOL    HW168133  12.320  12.210   3.163
22100SOL    HW268134  12.446  12.276   3.214
22101SOL     OW68135   0.343  13.429  11.215
22101SOL    HW168136   0.400  13.353  11.201
22101SOL    HW268137   0.391  13.484  11.277
22102SOL     OW68138  13.514   3.990   7.050
22102SOL    HW168139  13.483   4.003   7.140
22102SOL    HW268140  13.490   3.899   7.029
22103SOL     OW68141   4.121  10.828  12.093
22103SOL    HW168142   4.216  10.833  12.103
22103SOL    HW268143   4.091  10.779  12.169
22104SOL     OW68144   5.168   4.578   4.825
22104SOL    HW168145   5.117   4.641   4.774
22104SOL    HW268146   5.105   4.510   4.849
22105SOL     OW68147   1.864   5.320   7.804
22105SOL    HW168148   1.869   5.364   7.719
22105SOL    HW268149   1.883   5.228   7.784
22106SOL     OW68150   6.770   3.354  11.088
22106SOL    HW168151   6.692   3.358  11.033
22106SOL    HW268152   6.839   3.319  11.031
22107SOL     OW68153   4.929  13.347   1.610
22107SOL    HW168154   4.976  13.263   1.602
22107SOL    HW268155   4.985  13.399   1.667
22108SOL     OW68156   3.797  11.972   1.857
22108SOL    HW168157   3.886  11.939   1.872
22108SOL    HW268158   3.800  12.062   1.889
22109SOL     OW68159  10.867   7.759   8.412
22109SOL    HW168160  10.787   7.716   8.381
22109SOL    HW268161  10.926   7.758   8.337
22110SOL     OW68162  12.887   6.996  11.964
22110SOL    HW168163  12.933   7.050  12.029
22110SOL    HW268164  12.948   6.924  11.946
22111SOL     OW68165   3.723   8.705   3.040
22111SOL    HW168166   3.802   8.654   3.057
22111SOL    HW268167   3.685   8.719   3.127
22112SOL     OW68168   3.503   0.658  13.819
22112SOL    HW168169   3.416   0.631  13.788
22112SOL    HW268170   3.485   0.710  13.897
22113SOL     OW68171  10.604   5.863  11.499
22113SOL    HW168172  10.596   5.822  11.413
22113SOL    HW268173  10.570   5.952  11.487
22114SOL     OW68174  11.289   0.426  10.940
22114SOL    HW168175  11.307   0.438  11.034
22114SOL    HW268176  11.367   0.382  10.906
22115SOL     OW68177   7.160   6.488   5.852
22115SOL    HW168178   7.141   6.437   5.773
22115SOL    HW268179   7.221   6.555   5.823
22116SOL     OW68180  14.715   0.057   4.983
22116SOL    HW168181  14.720   0.153   4.983
22116SOL    HW268182  14.656   0.037   4.909
22117SOL     OW68183   0.889   5.841   0.521
22117SOL    HW168184   0.982   5.822   0.514
22117SOL    HW268185   0.882   5.935   0.502
22118SOL     OW68186  12.300   8.042  11.923
22118SOL    HW168187  12.385   8.032  11.881
22118SOL    HW268188  12.303   7.986  12.000
22119SOL     OW68189  11.939   3.069   7.008
22119SOL    HW168190  11.907   3.136   6.948
22119SOL    HW268191  11.874   3.068   7.079
22120SOL     OW68192  14.295   9.922  11.631
22120SOL    HW168193  14.377   9.882  11.660
22120SOL    HW268194  14.317   9.965  11.548
22121SOL     OW68195   5.517   9.628   6.469
22121SOL    HW168196   5.576   9.636   6.394
22121SOL    HW268197   5.539   9.543   6.508
22122SOL     OW68198  13.994  11.231   2.140
22122SOL    HW168199  14.001  11.250   2.234
22122SOL    HW268200  13.987  11.135   2.136
22123SOL     OW68201   2.488   6.141  12.755
22123SOL    HW168202   2.544   6.088  12.698
22123SOL    HW268203   2.539   6.221  12.771
22124SOL     OW68204   7.615   2.432   0.491
22124SOL    HW168205   7.607   2.526   0.475
22124SOL    HW268206   7.550   2.413   0.558
22125SOL     OW68207   2.241  10.571   8.060
22125SOL    HW168208   2.240  10.559   7.965
22125SOL    HW268209   2.191  10.497   8.094
22126SOL     OW68210   7.146   6.153   4.568
22126SOL    HW168211   7.236   6.166   4.599
22126SOL    HW268212   7.128   6.231   4.516
22127SOL     OW68213   2.359   6.877   0.586
22127SOL    HW168214   2.299   6.910   0.519
22127SOL    HW268215   2.446   6.889   0.548
22128SOL     OW68216  13.968   9.089   8.969
22128SOL    HW168217  13.915   9.085   9.049
22128SOL    HW268218  13.921   9.151   8.913
22129SOL     OW68219   2.687  14.690   4.780
22129SOL    HW168220   2.773  14.733   4.784
22129SOL    HW268221   2.667  14.684   4.687
22130SOL     OW68222  14.253  10.203   7.175
22130SOL    HW168223  14.317  10.135   7.196
22130SOL    HW268224  14.276  10.276   7.232
22131SOL     OW68225   8.773   7.940  12.515
22131SOL    HW168226   8.855   7.919  12.560
22131SOL    HW268227   8.720   7.983  12.582
22132SOL     OW68228  13.243   1.968  13.152
22132SOL    HW168229  13.308   2.012  13.097
22132SOL    HW268230  13.293   1.902  13.200
22133SOL     OW68231   9.334  14.449   3.066
22133SOL    HW168232   9.355  14.357   3.051
22133SOL    HW268233   9.259  14.467   3.010
22134SOL     OW68234   8.670   4.884   7.022
22134SOL    HW168235   8.610   4.923   6.958
22134SOL    HW268236   8.658   4.938   7.100
22135SOL     OW68237  10.000  12.681   9.932
22135SOL    HW168238  10.043  12.737   9.867
22135SOL    HW268239  10.027  12.592   9.908
22136SOL     OW68240  13.759   1.940   2.223
22136SOL    HW168241  13.687   1.890   2.261
22136SOL    HW268242  13.830   1.877   2.215
22137SOL     OW68243   5.056  13.594  13.597
22137SOL    HW168244   5.010  13.678  13.603
22137SOL    HW268245   5.001  13.533  13.646
22138SOL     OW68246   0.461   2.967   3.694
22138SOL    HW168247   0.394   2.926   3.640
22138SOL    HW268248   0.459   2.918   3.776
22139SOL     OW68249   5.241  11.974   4.210
22139SOL    HW168250   5.262  11.881   4.222
22139SOL    HW268251   5.147  11.974   4.190
22140SOL     OW68252  14.569  12.103   2.326
22140SOL    HW168253  14.555  12.008   2.320
22140SOL    HW268254  14.498  12.134   2.383
22141SOL     OW68255   2.371   1.188   2.671
22141SOL    HW168256   2.294   1.242   2.685
22141SOL    HW268257   2.403   1.214   2.584
22142SOL     OW68258   1.545   2.756  11.527
22142SOL    HW168259   1.461   2.779  11.568
22142SOL    HW268260   1.606   2.824  11.556
22143SOL     OW68261   5.757   4.667   6.239
22143SOL    HW168262   5.789   4.605   6.304
22143SOL    HW268263   5.811   4.650   6.162
22144SOL     OW68264   6.049   6.659  14.396
22144SOL    HW168265   5.989   6.613  14.454
22144SOL    HW268266   6.085   6.590  14.339
22145SOL     OW68267  13.282   3.914   0.499
22145SOL    HW168268  13.188   3.919   0.481
22145SOL    HW268269  13.288   3.908   0.594
22146SOL     OW68270   5.708   3.330   0.584
22146SOL    HW168271   5.668   3.401   0.633
22146SOL    HW268272   5.638   3.266   0.574
22147SOL     OW68273   3.475   0.928  13.265
22147SOL    HW168274   3.385   0.938  13.234
22147SOL    HW268275   3.483   0.994  13.335
22148SOL     OW68276   6.302   6.602   6.436
22148SOL    HW168277   6.346   6.652   6.506
22148SOL    HW268278   6.215   6.642   6.429
22149SOL     OW68279   2.064   0.755  11.422
22149SOL    HW168280   2.055   0.807  11.502
22149SOL    HW268281   2.067   0.820  11.351
22150SOL     OW68282   7.668  14.117   4.894
22150SOL    HW168283   7.618  14.096   4.815
22150SOL    HW268284   7.701  14.206   4.879
22151SOL     OW68285   0.495  14.345  11.633
22151SOL    HW168286   0.575  14.355  11.581
22151SOL    HW268287   0.429  14.318  11.570
22152SOL     OW68288   1.388   4.496  13.824
22152SOL    HW168289   1.478   4.513  13.852
22152SOL    HW268290   1.393   4.493  13.728
22153SOL     OW68291   4.976   0.727   9.571
22153SOL    HW168292   5.048   0.788   9.558
22153SOL    HW268293   4.974   0.711   9.665
22154SOL     OW68294   7.760  12.930   5.905
22154SOL    HW168295   7.793  12.930   5.816
22154SOL    HW268296   7.773  12.841   5.936
22155SOL     OW68297   7.737  14.681   9.649
22155SOL    HW168298   7.667  14.710   9.709
22155SOL    HW268299   7.778  14.763   9.619
22156SOL     OW68300   1.840   4.620   1.157
22156SOL    HW168301   1.754   4.652   1.129
22156SOL    HW268302   1.845   4.532   1.119
22157SOL     OW68303   1.005  13.527  10.585
22157SOL    HW168304   1.057  13.556  10.660
22157SOL    HW268305   1.002  13.432  10.593
22158SOL     OW68306   8.796  13.479  11.117
22158SOL    HW168307   8.817  13.554  11.173
22158SOL    HW268308   8.858  13.411  11.142
22159SOL     OW68309   1.644   3.518  12.077
22159SOL    HW168310   1.718   3.475  12.035
22159SOL    HW268311   1.645   3.485  12.167
22160SOL     OW68312   9.243   2.037   1.486
22160SOL    HW168313   9.236   2.104   1.418
22160SOL    HW268314   9.251   2.087   1.568
22161SOL     OW68315   4.366  12.613   0.328
22161SOL    HW168316   4.340  12.617   0.420
22161SOL    HW268317   4.285  12.601   0.280
22162SOL     OW68318  12.583   2.182   9.444
22162SOL    HW168319  12.644   2.178   9.371
22162SOL    HW268320  12.502   2.144   9.410
22163SOL     OW68321  10.651  12.247   1.493
22163SOL    HW168322  10.694  12.310   1.435
22163SOL    HW268323  10.714  12.174   1.498
22164SOL     OW68324   5.987  13.162   1.702
22164SOL    HW168325   6.049  13.090   1.690
22164SOL    HW268326   5.920  13.147   1.636
22165SOL     OW68327  12.730  14.581   9.910
22165SOL    HW168328  12.689  14.637   9.844
22165SOL    HW268329  12.824  14.601   9.902
22166SOL     OW68330  14.435   2.786   4.998
22166SOL    HW168331  14.341   2.787   5.018
22166SOL    HW268332  14.456   2.878   4.977
22167SOL     OW68333   1.597  13.598  10.854
22167SOL    HW168334   1.659  13.657  10.897
22167SOL    HW268335   1.540  13.568  10.925
22168SOL     OW68336   3.506   3.420   8.570
22168SOL    HW168337   3.595   3.385   8.577
22168SOL    HW268338   3.480   3.402   8.480
22169SOL     OW68339   2.508   3.289  13.110
22169SOL    HW168340   2.513   3.300  13.205
22169SOL    HW268341   2.564   3.214  13.092
22170SOL     OW68342  11.562  11.787   2.872
22170SOL    HW168343  11.496  11.805   2.939
22170SOL    HW268344  11.527  11.712   2.824
22171SOL     OW68345   3.999   7.173  13.580
22171SOL    HW168346   4.071   7.213  13.628
22171SOL    HW268347   3.961   7.111  13.641
22172SOL     OW68348  14.052   5.941  14.503
22172SOL    HW168349  14.067   5.906  14.416
22172SOL    HW268350  14.118   6.010  14.512
22173SOL     OW68351  12.272   3.518  14.768
22173SOL    HW168352  12.229   3.550  14.847
22173SOL    HW268353  12.331   3.449  14.799
22174SOL     OW68354   7.006  11.905   5.156
22174SOL    HW168355   7.051  11.824   5.134
22174SOL    HW268356   6.952  11.924   5.080
22175SOL     OW68357  13.043   0.449  11.001
22175SOL    HW168358  13.078   0.424  10.915
22175SOL    HW268359  12.986   0.377  11.025
22176SOL     OW68360   0.982  11.363   3.082
22176SOL    HW168361   0.992  11.340   3.174
22176SOL    HW268362   1.006  11.283   3.035
22177SOL     OW68363   9.682  12.676   8.127
22177SOL    HW168364   9.686  12.741   8.057
22177SOL    HW268365   9.666  12.727   8.206
22178SOL     OW68366   5.291   8.114  12.994
22178SOL    HW168367   5.268   8.047  12.931
22178SOL    HW268368   5.289   8.196  12.944
22179SOL     OW68369   2.431  10.232   3.519
22179SOL    HW168370   2.456  10.155   3.467
22179SOL    HW268371   2.423  10.303   3.454
22180SOL     OW68372  11.249   1.531   9.138
22180SOL    HW168373  11.232   1.518   9.231
22180SOL    HW268374  11.255   1.443   9.101
22181SOL     OW68375   4.706  10.442   9.065
22181SOL    HW168376   4.782  10.462   9.119
22181SOL    HW268377   4.648  10.392   9.122
22182SOL     OW68378  12.627  14.128   7.861
22182SOL    HW168379  12.545  14.174   7.875
22182SOL    HW268380  12.682  14.191   7.814
22183SOL     OW68381   3.284  14.106  14.191
22183SOL    HW168382   3.303  14.069  14.105
22183SOL    HW268383   3.322  14.043  14.252
22184SOL     OW68384   6.521   9.282  11.629
22184SOL    HW168385   6.490   9.192  11.625
22184SOL    HW268386   6.609   9.276  11.666
22185SOL     OW68387  11.736   4.629  13.493
22185SOL    HW168388  11.735   4.724  13.482
22185SOL    HW268389  11.741   4.616  13.587
22186SOL     OW68390   3.340   3.468  12.503
22186SOL    HW168391   3.432   3.494  12.500
22186SOL    HW268392   3.309   3.497  12.589
22187SOL     OW68393   5.843   0.963   2.723
22187SOL    HW168394   5.898   0.887   2.743
22187SOL    HW268395   5.782   0.969   2.797
22188SOL     OW68396   6.501  14.335   6.559
22188SOL    HW168397   6.525  14.245   6.536
22188SOL    HW268398   6.550  14.353   6.639
22189SOL     OW68399   2.182   9.977  11.029
22189SOL    HW168400   2.177   9.997  11.123
22189SOL    HW268401   2.094   9.952  11.005
22190SOL     OW68402   1.595   6.314   0.037
22190SOL    HW168403   1.545   6.395   0.030
22190SOL    HW268404   1.686   6.340   0.027
22191SOL     OW68405   6.434  10.350  10.293
22191SOL    HW168406   6.509  10.304  10.331
22191SOL    HW268407   6.360  10.292  10.311
22192SOL     OW68408   0.843  12.171   1.593
22192SOL    HW168409   0.901  12.109   1.637
22192SOL    HW268410   0.873  12.172   1.502
22193SOL     OW68411   8.250   3.364   2.139
22193SOL    HW168412   8.165   3.391   2.103
22193SOL    HW268413   8.314   3.418   2.092
22194SOL     OW68414   5.134  10.262   3.668
22194SOL    HW168415   5.192  10.338   3.669
22194SOL    HW268416   5.125  10.236   3.760
22195SOL     OW68417   3.167  12.893   7.965
22195SOL    HW168418   3.192  12.901   8.057
22195SOL    HW268419   3.245  12.919   7.916
22196SOL     OW68420   6.749   8.110   3.473
22196SOL    HW168421   6.790   8.144   3.552
22196SOL    HW268422   6.823   8.080   3.419
22197SOL     OW68423   1.655   7.576  10.249
22197SOL    HW168424   1.698   7.501  10.288
22197SOL    HW268425   1.671   7.566  10.155
22198SOL     OW68426   4.740  12.456  13.005
22198SOL    HW168427   4.752  12.375  13.055
22198SOL    HW268428   4.658  12.442  12.957
22199SOL     OW68429   1.555   5.131  10.303
22199SOL    HW168430   1.592   5.127  10.215
22199SOL    HW268431   1.614   5.190  10.351
22200SOL     OW68432   0.492   3.227   1.794
22200SOL    HW168433   0.485   3.209   1.888
22200SOL    HW268434   0.424   3.172   1.754
22201SOL     OW68435  11.716  11.817  11.811
22201SOL    HW168436  11.756  11.844  11.728
22201SOL    HW268437  11.624  11.800  11.790
22202SOL     OW68438   7.844   8.917  12.869
22202SOL    HW168439   7.870   8.976  12.798
22202SOL    HW268440   7.765   8.874  12.837
22203SOL     OW68441   2.276  11.751  12.005
22203SOL    HW168442   2.322  11.667  12.015
22203SOL    HW268443   2.207  11.733  11.941
22204SOL     OW68444   2.469   6.057   4.830
22204SOL    HW168445   2.533   6.051   4.759
22204SOL    HW268446   2.509   6.010   4.902
22205SOL     OW68447  13.191   6.154   6.561
22205SOL    HW168448  13.186   6.198   6.476
22205SOL    HW268449  13.170   6.062   6.542
22206SOL     OW68450   8.668   2.756   8.478
22206SOL    HW168451   8.674   2.676   8.530
22206SOL    HW268452   8.685   2.728   8.388
22207SOL     OW68453  14.317   1.723   9.563
22207SOL    HW168454  14.264   1.666   9.619
22207SOL    HW268455  14.253   1.781   9.521
22208SOL     OW68456  13.045   6.897   8.736
22208SOL    HW168457  12.950   6.896   8.732
22208SOL    HW268458  13.065   6.922   8.826
22209SOL     OW68459   7.157   2.634  10.680
22209SOL    HW168460   7.169   2.543  10.709
22209SOL    HW268461   7.080   2.664  10.728
22210SOL     OW68462  14.688   7.975  14.061
22210SOL    HW168463  14.672   8.062  14.097
22210SOL    HW268464  14.606   7.952  14.017
22211SOL     OW68465   9.999  10.318  13.629
22211SOL    HW168466   9.999  10.275  13.543
22211SOL    HW268467  10.075  10.376  13.626
22212SOL     OW68468   1.896  10.334  10.652
22212SOL    HW168469   1.815  10.331  10.601
22212SOL    HW268470   1.868  10.326  10.743
22213SOL     OW68471  11.262   8.753  14.384
22213SOL    HW168472  11.348   8.729  14.419
22213SOL    HW268473  11.221   8.802  14.455
22214SOL     OW68474   3.141   1.320   7.483
22214SOL    HW168475   3.231   1.287   7.489
22214SOL    HW268476   3.102   1.299   7.568
22215SOL     OW68477   6.945  11.619   8.693
22215SOL    HW168478   6.966  11.541   8.745
22215SOL    HW268479   6.991  11.691   8.738
22216SOL     OW68480  14.291   9.094   2.917
22216SOL    HW168481  14.214   9.135   2.877
22216SOL    HW268482  14.303   9.141   3.000
22217SOL     OW68483   8.631   7.219  11.752
22217SOL    HW168484   8.553   7.202  11.699
22217SOL    HW268485   8.619   7.165  11.831
22218SOL     OW68486  13.834   0.860   0.864
22218SOL    HW168487  13.903   0.837   0.926
22218SOL    HW268488  13.821   0.954   0.876
22219SOL     OW68489   2.641   6.304   1.092
22219SOL    HW168490   2.685   6.361   1.029
22219SOL    HW268491   2.548   6.317   1.075
22220SOL     OW68492  11.852   4.984   0.352
22220SOL    HW168493  11.806   5.046   0.408
22220SOL    HW268494  11.812   4.995   0.265
22221SOL     OW68495  14.365   7.415   5.707
22221SOL    HW168496  14.360   7.507   5.731
22221SOL    HW268497  14.346   7.413   5.613
22222SOL     OW68498   5.900   5.471  14.776
22222SOL    HW168499   5.925   5.549  14.727
22222SOL    HW268500   5.910   5.496  14.868
22223SOL     OW68501   8.436   7.303  13.475
22223SOL    HW168502   8.399   7.355  13.546
22223SOL    HW268503   8.443   7.215  13.510
22224SOL     OW68504   6.680   3.439   7.861
22224SOL    HW168505   6.718   3.375   7.800
22224SOL    HW268506   6.585   3.426   7.854
22225SOL     OW68507   7.977   7.220   4.711
22225SOL    HW168508   7.897   7.261   4.679
22225SOL    HW268509   7.980   7.244   4.804
22226SOL     OW68510  11.212   4.270   4.159
22226SOL    HW168511  11.155   4.201   4.194
22226SOL    HW268512  11.285   4.223   4.120
22227SOL     OW68513   6.496  10.711   3.231
22227SOL    HW168514   6.461  10.767   3.162
22227SOL    HW268515   6.532  10.636   3.184
22228SOL     OW68516  11.831  11.739  11.140
22228SOL    HW168517  11.801  11.650  11.159
22228SOL    HW268518  11.764  11.774  11.081
22229SOL     OW68519  12.188   9.543   2.975
22229SOL    HW168520  12.138   9.557   3.055
22229SOL    HW268521  12.220   9.453   2.983
22230SOL     OW68522   7.821   0.202   4.075
22230SOL    HW168523   7.881   0.218   4.002
22230SOL    HW268524   7.734   0.215   4.037
22231SOL     OW68525   1.712  11.896   5.469
22231SOL    HW168526   1.807  11.880   5.471
22231SOL    HW268527   1.685  11.890   5.561
22232SOL     OW68528   2.761   8.253   6.783
22232SOL    HW168529   2.716   8.225   6.863
22232SOL    HW268530   2.836   8.193   6.776
22233SOL     OW68531   5.586  11.409  13.949
22233SOL    HW168532   5.549  11.394  13.862
22233SOL    HW268533   5.644  11.485  13.939
22234SOL     OW68534   5.770   8.543  12.414
22234SOL    HW168535   5.824   8.618  12.391
22234SOL    HW268536   5.740   8.508  12.331
22235SOL     OW68537  13.247   9.647   6.610
22235SOL    HW168538  13.286   9.589   6.676
22235SOL    HW268539  13.164   9.674   6.649
22236SOL     OW68540  14.602   8.101   1.765
22236SOL    HW168541  14.682   8.150   1.781
22236SOL    HW268542  14.560   8.094   1.851
22237SOL     OW68543   3.170   8.921   1.104
22237SOL    HW168544   3.128   8.840   1.078
22237SOL    HW268545   3.263   8.907   1.085
22238SOL     OW68546  10.088   6.845  11.732
22238SOL    HW168547  10.120   6.795  11.657
22238SOL    HW268548  10.009   6.888  11.701
22239SOL     OW68549   3.475   1.902  11.930
22239SOL    HW168550   3.443   1.985  11.966
22239SOL    HW268551   3.407   1.839  11.952
22240SOL     OW68552  10.201   6.439  13.297
22240SOL    HW168553  10.176   6.413  13.386
22240SOL    HW268554  10.165   6.370  13.242
22241SOL     OW68555   6.047  12.365   8.097
22241SOL    HW168556   6.020  12.373   8.006
22241SOL    HW268557   6.143  12.370   8.095
22242SOL     OW68558   6.873   6.929   7.529
22242SOL    HW168559   6.934   6.998   7.558
22242SOL    HW268560   6.793   6.976   7.507
22243SOL     OW68561   7.892   9.077  14.429
22243SOL    HW168562   7.971   9.024  14.438
22243SOL    HW268563   7.887   9.126  14.511
22244SOL     OW68564  13.196  11.122   0.506
22244SOL    HW168565  13.186  11.155   0.416
22244SOL    HW268566  13.143  11.042   0.507
22245SOL     OW68567   8.503   7.943   8.831
22245SOL    HW168568   8.598   7.933   8.828
22245SOL    HW268569   8.471   7.861   8.868
22246SOL     OW68570   9.713  12.459   9.874
22246SOL    HW168571   9.691  12.530   9.814
22246SOL    HW268572   9.714  12.501   9.961
22247SOL     OW68573   8.469   6.190  10.428
22247SOL    HW168574   8.442   6.187  10.336
22247SOL    HW268575   8.564   6.180  10.426
22248SOL     OW68576   5.957  13.954   1.587
22248SOL    HW168577   5.987  14.045   1.577
22248SOL    HW268578   5.987  13.929   1.675
22249SOL     OW68579   3.846   9.842  11.522
22249SOL    HW168580   3.773   9.819  11.464
22249SOL    HW268581   3.876   9.758  11.557
22250SOL     OW68582  11.165  14.848   9.176
22250SOL    HW168583  11.150   0.062   9.192
22250SOL    HW268584  11.247  14.829   9.220
22251SOL     OW68585   2.018  13.943  13.202
22251SOL    HW168586   2.006  13.944  13.107
22251SOL    HW268587   1.952  13.882  13.234
22252SOL     OW68588   8.590   7.655   8.835
22252SOL    HW168589   8.641   7.674   8.757
22252SOL    HW268590   8.522   7.595   8.806
22253SOL     OW68591   2.827   5.356   0.890
22253SOL    HW168592   2.889   5.419   0.854
22253SOL    HW268593   2.880   5.298   0.944
22254SOL     OW68594  11.685  12.367   0.889
22254SOL    HW168595  11.722  12.454   0.877
22254SOL    HW268596  11.757  12.314   0.923
22255SOL     OW68597   8.312   1.667   9.688
22255SOL    HW168598   8.247   1.670   9.759
22255SOL    HW268599   8.380   1.728   9.715
22256SOL     OW68600   0.914  10.465  12.579
22256SOL    HW168601   0.980  10.458  12.511
22256SOL    HW268602   0.832  10.481  12.532
22257SOL     OW68603   9.097   3.780  12.585
22257SOL    HW168604   9.083   3.845  12.516
22257SOL    HW268605   9.078   3.827  12.666
22258SOL     OW68606  10.341   1.376  12.994
22258SOL    HW168607  10.363   1.453  13.046
22258SOL    HW268608  10.424   1.331  12.982
22259SOL     OW68609   5.471   1.960   2.694
22259SOL    HW168610   5.388   2.005   2.706
22259SOL    HW268611   5.449   1.867   2.698
22260SOL     OW68612   7.577   8.347  11.570
22260SOL    HW168613   7.487   8.377  11.582
22260SOL    HW268614   7.577   8.300  11.487
22261SOL     OW68615   3.164  11.517   1.601
22261SOL    HW168616   3.225  11.566   1.546
22261SOL    HW268617   3.219  11.453   1.646
22262SOL     OW68618  10.791   5.427   5.050
22262SOL    HW168619  10.742   5.365   4.997
22262SOL    HW268620  10.725   5.486   5.086
22263SOL     OW68621  13.704  13.429  11.831
22263SOL    HW168622  13.722  13.336  11.847
22263SOL    HW268623  13.791  13.469  11.821
22264SOL     OW68624   4.031  10.683  13.171
22264SOL    HW168625   3.956  10.686  13.231
22264SOL    HW268626   3.995  10.647  13.090
22265SOL     OW68627   7.733  13.231   1.799
22265SOL    HW168628   7.826  13.216   1.817
22265SOL    HW268629   7.708  13.301   1.859
22266SOL     OW68630  11.208   3.749   6.036
22266SOL    HW168631  11.114   3.745   6.056
22266SOL    HW268632  11.244   3.669   6.073
22267SOL     OW68633  14.492   0.997   8.961
22267SOL    HW168634  14.461   0.907   8.972
22267SOL    HW268635  14.415   1.052   8.981
22268SOL     OW68636   7.768   4.690  11.497
22268SOL    HW168637   7.817   4.667  11.418
22268SOL    HW268638   7.788   4.620  11.559
22269SOL     OW68639  12.094   0.651   5.046
22269SOL    HW168640  12.109   0.684   5.134
22269SOL    HW268641  12.171   0.599   5.026
22270SOL     OW68642   8.733   7.128   4.225
22270SOL    HW168643   8.762   7.054   4.172
22270SOL    HW268644   8.810   7.183   4.234
22271SOL     OW68645  12.356   1.315  11.617
22271SOL    HW168646  12.261   1.317  11.604
22271SOL    HW268647  12.391   1.287  11.532
22272SOL     OW68648   5.290  11.563   5.493
22272SOL    HW168649   5.345  11.538   5.419
22272SOL    HW268650   5.225  11.493   5.498
22273SOL     OW68651   0.923  11.885  14.186
22273SOL    HW168652   0.839  11.926  14.163
22273SOL    HW268653   0.966  11.950  14.242
22274SOL     OW68654   8.385  10.674  11.395
22274SOL    HW168655   8.335  10.656  11.315
22274SOL    HW268656   8.356  10.761  11.422
22275SOL     OW68657   7.022   9.047  11.741
22275SOL    HW168658   7.098   9.105  11.745
22275SOL    HW268659   7.029   8.993  11.819
22276SOL     OW68660   8.744   7.988   3.854
22276SOL    HW168661   8.743   7.985   3.758
22276SOL    HW268662   8.803   7.916   3.879
22277SOL     OW68663   3.904  11.541  14.225
22277SOL    HW168664   3.897  11.632  14.196
22277SOL    HW268665   3.857  11.491  14.158
22278SOL     OW68666   4.566   0.536   3.809
22278SOL    HW168667   4.503   0.484   3.859
22278SOL    HW268668   4.595   0.478   3.738
22279SOL     OW68669  12.710   6.285   7.311
22279SOL    HW168670  12.766   6.214   7.342
22279SOL    HW268671  12.684   6.259   7.223
22280SOL     OW68672   5.493   4.202   9.760
22280SOL    HW168673   5.446   4.269   9.810
22280SOL    HW268674   5.475   4.225   9.668
22281SOL     OW68675   3.075   5.401   7.447
22281SOL    HW168676   3.158   5.356   7.436
22281SOL    HW268677   3.026   5.381   7.368
22282SOL     OW68678  14.450   3.900  11.908
22282SOL    HW168679  14.413   3.934  11.990
22282SOL    HW268680  14.472   3.809  11.928
22283SOL     OW68681  12.910  11.397   3.313
22283SOL    HW168682  12.864  11.348   3.381
22283SOL    HW268683  12.873  11.365   3.231
22284SOL     OW68684   7.576  14.325   8.705
22284SOL    HW168685   7.595  14.308   8.798
22284SOL    HW268686   7.519  14.402   8.706
22285SOL     OW68687  11.680  10.233   4.918
22285SOL    HW168688  11.771  10.208   4.934
22285SOL    HW268689  11.685  10.320   4.878
22286SOL     OW68690   4.570  10.249   2.774
22286SOL    HW168691   4.537  10.280   2.858
22286SOL    HW268692   4.527  10.305   2.709
22287SOL     OW68693   5.867   1.094   8.872
22287SOL    HW168694   5.889   1.064   8.784
22287SOL    HW268695   5.838   1.015   8.918
22288SOL     OW68696  12.704   7.136   4.928
22288SOL    HW168697  12.734   7.109   5.015
22288SOL    HW268698  12.716   7.058   4.874
22289SOL     OW68699  14.705   8.900   9.600
22289SOL    HW168700  14.799   8.891   9.616
22289SOL    HW268701  14.699   8.975   9.541
22290SOL     OW68702  10.872   3.824  14.753
22290SOL    HW168703  10.957   3.854  14.784
22290SOL    HW268704  10.810   3.890  14.783
22291SOL     OW68705   3.310  13.779   2.622
22291SOL    HW168706   3.301  13.858   2.569
22291SOL    HW268707   3.391  13.793   2.672
22292SOL     OW68708   0.163   0.991   5.595
22292SOL    HW168709   0.256   0.998   5.574
22292SOL    HW268710   0.161   0.970   5.688
22293SOL     OW68711  13.061  13.183  14.782
22293SOL    HW168712  13.107  13.224  14.856
22293SOL    HW268713  13.127  13.127  14.741
22294SOL     OW68714   4.347  12.350  10.055
22294SOL    HW168715   4.439  12.344  10.082
22294SOL    HW268716   4.304  12.279  10.103
22295SOL     OW68717   6.770  10.165   9.956
22295SOL    HW168718   6.791  10.073   9.972
22295SOL    HW268719   6.697  10.163   9.894
22296SOL     OW68720   2.789  11.105   9.402
22296SOL    HW168721   2.858  11.120   9.337
22296SOL    HW268722   2.808  11.169   9.471
22297SOL     OW68723   2.300   1.507   6.747
22297SOL    HW168724   2.319   1.521   6.654
22297SOL    HW268725   2.206   1.520   6.755
22298SOL     OW68726   6.126  13.152   6.041
22298SOL    HW168727   6.202  13.159   6.098
22298SOL    HW268728   6.157  13.181   5.956
22299SOL     OW68729  11.025  11.320   1.347
22299SOL    HW168730  11.065  11.256   1.405
22299SOL    HW268731  11.012  11.273   1.264
22300SOL     OW68732   5.702   7.639   4.825
22300SOL    HW168733   5.739   7.693   4.895
22300SOL    HW268734   5.647   7.699   4.775
22301SOL     OW68735   2.806   9.467  13.072
22301SOL    HW168736   2.762   9.494  12.991
22301SOL    HW268737   2.738   9.426  13.124
22302SOL     OW68738   5.925   2.933  13.130
22302SOL    HW168739   5.904   3.007  13.187
22302SOL    HW268740   6.016   2.912  13.150
22303SOL     OW68741   5.958   0.465   1.187
22303SOL    HW168742   5.971   0.392   1.246
22303SOL    HW268743   5.871   0.499   1.210
22304SOL     OW68744  13.859  14.401   1.808
22304SOL    HW168745  13.817  14.406   1.894
22304SOL    HW268746  13.896  14.313   1.804
22305SOL     OW68747  11.933   8.029   9.950
22305SOL    HW168748  11.932   7.944   9.906
22305SOL    HW268749  11.841   8.053   9.961
22306SOL     OW68750   9.328   0.544  13.411
22306SOL    HW168751   9.372   0.620  13.373
22306SOL    HW268752   9.286   0.578  13.491
22307SOL     OW68753   1.286  14.278   4.206
22307SOL    HW168754   1.300  14.197   4.157
22307SOL    HW268755   1.199  14.267   4.244
22308SOL     OW68756   3.595   8.432   2.318
22308SOL    HW168757   3.596   8.353   2.373
22308SOL    HW268758   3.648   8.495   2.367
22309SOL     OW68759   0.856   2.928  13.174
22309SOL    HW168760   0.828   3.019  13.163
22309SOL    HW268761   0.918   2.931  13.247
22310SOL     OW68762  10.389  10.127  11.705
22310SOL    HW168763  10.298  10.117  11.678
22310SOL    HW268764  10.393  10.213  11.746
22311SOL     OW68765  12.454   9.601   8.670
22311SOL    HW168766  12.534   9.638   8.708
22311SOL    HW268767  12.391   9.602   8.742
22312SOL     OW68768  12.615   1.075   6.538
22312SOL    HW168769  12.574   1.124   6.609
22312SOL    HW268770  12.542   1.053   6.480
22313SOL     OW68771   3.397   8.948   7.080
22313SOL    HW168772   3.378   8.950   6.986
22313SOL    HW268773   3.484   8.908   7.086
22314SOL     OW68774   0.959   6.443   4.833
22314SOL    HW168775   1.012   6.504   4.781
22314SOL    HW268776   0.990   6.455   4.923
22315SOL     OW68777   9.445   4.209   7.167
22315SOL    HW168778   9.398   4.265   7.104
22315SOL    HW268779   9.518   4.264   7.197
22316SOL     OW68780   3.622   2.755   9.932
22316SOL    HW168781   3.692   2.702   9.893
22316SOL    HW268782   3.576   2.694   9.990
22317SOL     OW68783  13.800  11.615   3.952
22317SOL    HW168784  13.843  11.621   3.866
22317SOL    HW268785  13.868  11.642   4.014
22318SOL     OW68786  10.186   1.948  10.692
22318SOL    HW168787  10.175   2.028  10.641
22318SOL    HW268788  10.160   1.973  10.781
22319SOL     OW68789   0.889   7.104  14.544
22319SOL    HW168790   0.941   7.183  14.555
22319SOL    HW268791   0.798   7.134  14.548
22320SOL     OW68792  10.226   5.427   3.244
22320SOL    HW168793  10.204   5.386   3.161
22320SOL    HW268794  10.152   5.408   3.302
22321SOL     OW68795   7.865   4.771  12.020
22321SOL    HW168796   7.894   4.737  11.935
22321SOL    HW268797   7.817   4.699  12.060
22322SOL     OW68798   3.537   6.658   4.861
22322SOL    HW168799   3.566   6.615   4.941
22322SOL    HW268800   3.442   6.663   4.869
22323SOL     OW68801  10.547   0.491   7.267
22323SOL    HW168802  10.513   0.462   7.182
22323SOL    HW268803  10.508   0.431   7.330
22324SOL     OW68804  10.241   9.690  12.475
22324SOL    HW168805  10.196   9.716  12.555
22324SOL    HW268806  10.329   9.727  12.483
22325SOL     OW68807   3.583   8.904   3.560
22325SOL    HW168808   3.517   8.912   3.630
22325SOL    HW268809   3.666   8.919   3.604
22326SOL     OW68810   6.120   2.175   2.214
22326SOL    HW168811   6.043   2.134   2.173
22326SOL    HW268812   6.105   2.164   2.308
22327SOL     OW68813   4.904  12.463   0.159
22327SOL    HW168814   4.969  12.512   0.210
22327SOL    HW268815   4.853  12.416   0.225
22328SOL     OW68816   3.576  13.580   3.841
22328SOL    HW168817   3.556  13.495   3.802
22328SOL    HW268818   3.598  13.636   3.767
22329SOL     OW68819   1.929  10.643   1.520
22329SOL    HW168820   1.903  10.553   1.503
22329SOL    HW268821   2.004  10.635   1.579
22330SOL     OW68822  11.292   8.977  13.127
22330SOL    HW168823  11.295   9.073  13.117
22330SOL    HW268824  11.368   8.957  13.182
22331SOL     OW68825  10.359   1.424   9.151
22331SOL    HW168826  10.350   1.358   9.082
22331SOL    HW268827  10.372   1.374   9.231
22332SOL     OW68828   6.859   0.505  11.773
22332SOL    HW168829   6.796   0.438  11.745
22332SOL    HW268830   6.910   0.463  11.842
22333SOL     OW68831  10.059   5.508   4.470
22333SOL    HW168832  10.119   5.560   4.417
22333SOL    HW268833  10.022   5.445   4.408
22334SOL     OW68834  14.170   6.536   6.221
22334SOL    HW168835  14.233   6.591   6.174
22334SOL    HW268836  14.213   6.451   6.228
22335SOL     OW68837   3.217   0.926   5.713
22335SOL    HW168838   3.158   0.900   5.642
22335SOL    HW268839   3.241   1.016   5.692
22336SOL     OW68840   8.244  12.975  12.038
22336SOL    HW168841   8.209  13.032  11.969
22336SOL    HW268842   8.290  12.906  11.991
22337SOL     OW68843   2.905   8.130   2.195
22337SOL    HW168844   2.989   8.157   2.160
22337SOL    HW268845   2.854   8.211   2.201
22338SOL     OW68846  13.011   7.202   1.312
22338SOL    HW168847  12.940   7.262   1.289
22338SOL    HW268848  13.091   7.253   1.298
22339SOL     OW68849  12.567   4.169  11.416
22339SOL    HW168850  12.647   4.220  11.405
22339SOL    HW268851  12.558   4.159  11.511
22340SOL     OW68852   8.044   5.712  10.111
22340SOL    HW168853   7.981   5.725  10.040
22340SOL    HW268854   8.016   5.632  10.155
22341SOL     OW68855   6.619   7.187  14.435
22341SOL    HW168856   6.533   7.150  14.456
22341SOL    HW268857   6.631   7.168  14.342
22342SOL     OW68858   8.103   6.238   4.469
22342SOL    HW168859   8.014   6.213   4.495
22342SOL    HW268860   8.139   6.279   4.548
22343SOL     OW68861  13.614   2.311  13.872
22343SOL    HW168862  13.591   2.311  13.965
22343SOL    HW268863  13.699   2.268  13.869
22344SOL     OW68864   8.486  10.879  14.731
22344SOL    HW168865   8.512  10.968  14.711
22344SOL    HW268866   8.566  10.836  14.761
22345SOL     OW68867   1.911   2.679   0.518
22345SOL    HW168868   1.875   2.593   0.541
22345SOL    HW268869   1.836   2.728   0.484
22346SOL     OW68870  12.210   8.863  10.851
22346SOL    HW168871  12.145   8.878  10.782
22346SOL    HW268872  12.268   8.939  10.848
22347SOL     OW68873   0.436  10.681   3.458
22347SOL    HW168874   0.522  10.641   3.445
22347SOL    HW268875   0.442  10.766   3.415
22348SOL     OW68876  14.040  13.356  11.341
22348SOL    HW168877  14.134  13.356  11.325
22348SOL    HW268878  14.020  13.264  11.362
22349SOL     OW68879   0.256   6.723  11.660
22349SOL    HW168880   0.295   6.803  11.626
22349SOL    HW268881   0.268   6.658  11.591
22350SOL     OW68882  14.045   4.453  13.895
22350SOL    HW168883  14.097   4.531  13.873
22350SOL    HW268884  14.017   4.468  13.985
22351SOL     OW68885   5.958   8.571   3.702
22351SOL    HW168886   5.954   8.647   3.644
22351SOL    HW268887   5.871   8.531   3.696
22352SOL     OW68888   6.093   2.489  10.200
22352SOL    HW168889   6.069   2.414  10.255
22352SOL    HW268890   6.182   2.511  10.228
22353SOL     OW68891  11.345   5.061   5.681
22353SOL    HW168892  11.275   5.119   5.650
22353SOL    HW268893  11.418   5.078   5.620
22354SOL     OW68894   1.105  11.077   5.847
22354SOL    HW168895   1.070  11.151   5.798
22354SOL    HW268896   1.054  11.076   5.928
22355SOL     OW68897   6.411  10.528   9.624
22355SOL    HW168898   6.351  10.505   9.553
22355SOL    HW268899   6.449  10.611   9.596
22356SOL     OW68900   1.574   5.482  14.878
22356SOL    HW168901   1.595   5.391   0.019
22356SOL    HW268902   1.607   5.495  14.789
22357SOL     OW68903   0.101   2.103   2.530
22357SOL    HW168904   0.192   2.124   2.552
22357SOL    HW268905   0.050   2.171   2.574
22358SOL     OW68906   6.844   7.133   1.507
22358SOL    HW168907   6.870   7.118   1.598
22358SOL    HW268908   6.756   7.097   1.501
22359SOL     OW68909   9.139   5.837  13.295
22359SOL    HW168910   9.086   5.766  13.332
22359SOL    HW268911   9.102   5.916  13.336
22360SOL     OW68912   8.028   1.835   0.057
22360SOL    HW168913   8.105   1.835  14.879
22360SOL    HW268914   7.954   1.819  14.877
22361SOL     OW68915  11.036  13.453   2.009
22361SOL    HW168916  10.985  13.524   2.047
22361SOL    HW268917  11.051  13.481   1.918
22362SOL     OW68918   4.981   0.565   1.278
22362SOL    HW168919   4.901   0.609   1.307
22362SOL    HW268920   4.951   0.505   1.209
22363SOL     OW68921  11.976   4.348  13.972
22363SOL    HW168922  12.053   4.374  13.922
22363SOL    HW268923  11.928   4.430  13.986
22364SOL     OW68924  12.857   0.365  10.766
22364SOL    HW168925  12.842   0.328  10.679
22364SOL    HW268926  12.952   0.364  10.777
22365SOL     OW68927   8.145  11.271  12.263
22365SOL    HW168928   8.171  11.278  12.355
22365SOL    HW268929   8.224  11.293  12.214
22366SOL     OW68930   1.838   7.939   1.265
22366SOL    HW168931   1.767   8.001   1.246
22366SOL    HW268932   1.916   7.994   1.276
22367SOL     OW68933   7.856   2.363  11.670
22367SOL    HW168934   7.906   2.288  11.638
22367SOL    HW268935   7.814   2.331  11.750
22368SOL     OW68936   2.424  11.360   0.902
22368SOL    HW168937   2.514  11.384   0.926
22368SOL    HW268938   2.412  11.272   0.939
22369SOL     OW68939  10.364   9.523  11.218
22369SOL    HW168940  10.300   9.553  11.283
22369SOL    HW268941  10.326   9.442  11.183
22370SOL     OW68942   8.759  14.426   1.814
22370SOL    HW168943   8.758  14.479   1.894
22370SOL    HW268944   8.764  14.490   1.743
22371SOL     OW68945  14.049  12.894  13.814
22371SOL    HW168946  14.125  12.950  13.800
22371SOL    HW268947  13.982  12.930  13.755
22372SOL     OW68948   9.532   8.079   9.043
22372SOL    HW168949   9.534   8.041   8.955
22372SOL    HW268950   9.559   8.170   9.030
22373SOL     OW68951   6.708   4.938  10.547
22373SOL    HW168952   6.766   4.955  10.622
22373SOL    HW268953   6.720   4.845  10.529
22374SOL     OW68954   9.386   7.827   6.990
22374SOL    HW168955   9.320   7.852   6.926
22374SOL    HW268956   9.393   7.732   6.982
22375SOL     OW68957   8.523  13.087  12.708
22375SOL    HW168958   8.473  13.008  12.727
22375SOL    HW268959   8.469  13.136  12.646
22376SOL     OW68960   9.704   9.809   1.379
22376SOL    HW168961   9.623   9.772   1.344
22376SOL    HW268962   9.719   9.887   1.326
22377SOL     OW68963  13.985  10.369   1.521
22377SOL    HW168964  14.067  10.352   1.568
22377SOL    HW268965  13.989  10.462   1.499
22378SOL     OW68966   1.715   2.886   2.950
22378SOL    HW168967   1.691   2.945   3.022
22378SOL    HW268968   1.664   2.806   2.966
22379SOL     OW68969   0.158   4.836  13.642
22379SOL    HW168970   0.223   4.871  13.581
22379SOL    HW268971   0.126   4.913  13.689
22380SOL     OW68972  10.239   5.444   0.652
22380SOL    HW168973  10.293   5.522   0.669
22380SOL    HW268974  10.279   5.376   0.706
22381SOL     OW68975  12.924  14.848   3.679
22381SOL    HW168976  13.010  14.852   3.721
22381SOL    HW268977  12.886  14.766   3.709
22382SOL     OW68978   6.424  13.757   0.551
22382SOL    HW168979   6.468  13.722   0.627
22382SOL    HW268980   6.372  13.684   0.517
22383SOL     OW68981  14.869  11.267  14.063
22383SOL    HW168982   0.039  11.188  14.041
22383SOL    HW268983  14.834  11.298  13.980
22384SOL     OW68984   0.237  11.643   0.692
22384SOL    HW168985   0.330  11.648   0.675
22384SOL    HW268986   0.197  11.622   0.607
22385SOL     OW68987  10.858   2.895  10.296
22385SOL    HW168988  10.808   2.933  10.369
22385SOL    HW268989  10.855   2.801  10.312
22386SOL     OW68990   8.124   8.321  14.163
22386SOL    HW168991   8.172   8.363  14.234
22386SOL    HW268992   8.191   8.298  14.099
22387SOL     OW68993  12.199  11.726   2.498
22387SOL    HW168994  12.146  11.662   2.451
22387SOL    HW268995  12.181  11.709   2.591
22388SOL     OW68996   5.086   8.689  13.851
22388SOL    HW168997   5.117   8.766  13.804
22388SOL    HW268998   5.166   8.641  13.874
22389SOL     OW68999  13.532  12.797   5.858
22389SOL    HW169000  13.477  12.865   5.897
22389SOL    HW269001  13.500  12.716   5.898
22390SOL     OW69002   8.335   6.843   3.209
22390SOL    HW169003   8.261   6.794   3.172
22390SOL    HW269004   8.305   6.873   3.294
22391SOL     OW69005  13.102  10.668   4.113
22391SOL    HW169006  13.066  10.717   4.039
22391SOL    HW269007  13.179  10.719   4.141
22392SOL     OW69008  10.640  14.797  13.265
22392SOL    HW169009  10.645  14.783  13.359
22392SOL    HW269010  10.570  14.862  13.253
22393SOL     OW69011  14.863  14.355   2.657
22393SOL    HW169012  14.865  14.303   2.576
22393SOL    HW269013   0.076  14.377   2.673
22394SOL     OW69014  12.951   8.864  10.570
22394SOL    HW169015  12.909   8.831  10.490
22394SOL    HW269016  12.880   8.903  10.620
22395SOL     OW69017  14.270  13.202   9.972
22395SOL    HW169018  14.257  13.184  10.065
22395SOL    HW269019  14.319  13.127   9.940
22396SOL     OW69020   1.938   4.026  12.688
22396SOL    HW169021   2.000   4.014  12.760
22396SOL    HW269022   1.855   3.993  12.721
22397SOL     OW69023   0.759   6.859  10.535
22397SOL    HW169024   0.837   6.820  10.572
22397SOL    HW269025   0.786   6.890  10.448
22398SOL     OW69026   5.350   7.219   2.369
22398SOL    HW169027   5.339   7.211   2.464
22398SOL    HW269028   5.349   7.314   2.352
22399SOL     OW69029   8.183  10.137   6.032
22399SOL    HW169030   8.215  10.071   5.970
22399SOL    HW269031   8.094  10.110   6.052
22400SOL     OW69032   8.728   1.994   3.513
22400SOL    HW169033   8.647   1.943   3.510
22400SOL    HW269034   8.757   1.987   3.604
22401SOL     OW69035   4.449   3.174   9.585
22401SOL    HW169036   4.405   3.090   9.603
22401SOL    HW269037   4.450   3.218   9.670
22402SOL     OW69038   2.565  14.559  14.853
22402SOL    HW169039   2.659  14.567  14.868
22402SOL    HW269040   2.538  14.484   0.027
22403SOL     OW69041   6.339  14.600   2.164
22403SOL    HW169042   6.282  14.591   2.240
22403SOL    HW269043   6.299  14.671   2.113
22404SOL     OW69044   6.343   8.960  14.668
22404SOL    HW169045   6.275   8.893  14.670
22404SOL    HW269046   6.307   9.030  14.613
22405SOL     OW69047   1.136  14.360   1.332
22405SOL    HW169048   1.125  14.450   1.362
22405SOL    HW269049   1.138  14.367   1.236
22406SOL     OW69050  11.380  10.413   7.793
22406SOL    HW169051  11.423  10.488   7.751
22406SOL    HW269052  11.288  10.440   7.799
22407SOL     OW69053  10.792  11.552   1.037
22407SOL    HW169054  10.702  11.520   1.037
22407SOL    HW269055  10.802  11.595   1.122
22408SOL     OW69056   9.597   2.731  13.638
22408SOL    HW169057   9.551   2.716  13.555
22408SOL    HW269058   9.673   2.783  13.614
22409SOL     OW69059   1.661   9.668   9.862
22409SOL    HW169060   1.669   9.684   9.768
22409SOL    HW269061   1.750   9.644   9.890
22410SOL     OW69062   8.736  11.143   4.428
22410SOL    HW169063   8.802  11.112   4.366
22410SOL    HW269064   8.701  11.062   4.467
22411SOL     OW69065  11.548   4.843   7.804
22411SOL    HW169066  11.629   4.791   7.802
22411SOL    HW269067  11.520   4.842   7.895
22412SOL     OW69068  13.453   3.018   3.537
22412SOL    HW169069  13.436   3.050   3.625
22412SOL    HW269070  13.449   2.922   3.545
22413SOL     OW69071  13.377  13.284   0.747
22413SOL    HW169072  13.394  13.215   0.811
22413SOL    HW269073  13.323  13.242   0.680
22414SOL     OW69074  11.804  13.394   1.947
22414SOL    HW169075  11.811  13.328   1.878
22414SOL    HW269076  11.776  13.345   2.024
22415SOL     OW69077   9.161   2.653  12.909
22415SOL    HW169078   9.160   2.655  12.813
22415SOL    HW269079   9.090   2.593  12.933
22416SOL     OW69080   0.103   2.836   6.414
22416SOL    HW169081   0.133   2.879   6.334
22416SOL    HW269082   0.028   2.887   6.442
22417SOL     OW69083   7.184   0.067   9.163
22417SOL    HW169084   7.171  14.851   9.162
22417SOL    HW269085   7.211   0.088   9.074
22418SOL     OW69086   4.605   2.350   9.607
22418SOL    HW169087   4.674   2.354   9.673
22418SOL    HW269088   4.584   2.257   9.601
22419SOL     OW69089   9.592   3.512   9.779
22419SOL    HW169090   9.540   3.448   9.730
22419SOL    HW269091   9.641   3.459   9.842
22420SOL     OW69092  14.289   0.929  12.985
22420SOL    HW169093  14.265   0.957  13.073
22420SOL    HW269094  14.263   1.002  12.928
22421SOL     OW69095   9.942   8.736  11.552
22421SOL    HW169096   9.888   8.792  11.607
22421SOL    HW269097   9.940   8.779  11.466
22422SOL     OW69098  11.464  11.295  14.209
22422SOL    HW169099  11.548  11.339  14.212
22422SOL    HW269100  11.477  11.221  14.150
22423SOL     OW69101   0.964   3.391   7.495
22423SOL    HW169102   1.059   3.404   7.497
22423SOL    HW269103   0.947   3.351   7.409
22424SOL     OW69104   0.236   0.655   5.553
22424SOL    HW169105   0.229   0.564   5.581
22424SOL    HW269106   0.260   0.703   5.633
22425SOL     OW69107  11.397  12.599   1.433
22425SOL    HW169108  11.384  12.508   1.462
22425SOL    HW269109  11.417  12.647   1.513
22426SOL     OW69110  14.146  11.521   4.470
22426SOL    HW169111  14.127  11.584   4.400
22426SOL    HW269112  14.080  11.452   4.458
22427SOL     OW69113  12.897  10.576  10.329
22427SOL    HW169114  12.938  10.623  10.256
22427SOL    HW269115  12.965  10.572  10.397
22428SOL     OW69116   6.278   2.917   4.717
22428SOL    HW169117   6.332   2.900   4.795
22428SOL    HW269118   6.189   2.925   4.750
22429SOL     OW69119   4.945   4.590   7.141
22429SOL    HW169120   4.880   4.648   7.103
22429SOL    HW269121   5.029   4.636   7.128
22430SOL     OW69122   7.751   3.434  10.357
22430SOL    HW169123   7.806   3.455  10.432
22430SOL    HW269124   7.737   3.339  10.364
22431SOL     OW69125   9.182   0.764   9.546
22431SOL    HW169126   9.249   0.806   9.491
22431SOL    HW269127   9.231   0.722   9.616
22432SOL     OW69128  11.546  13.013   3.879
22432SOL    HW169129  11.541  13.107   3.892
22432SOL    HW269130  11.455  12.984   3.875
22433SOL     OW69131   0.844  12.770   2.384
22433SOL    HW169132   0.881  12.857   2.373
22433SOL    HW269133   0.798  12.753   2.302
22434SOL     OW69134  12.862   7.348  12.260
22434SOL    HW169135  12.872   7.346  12.164
22434SOL    HW269136  12.948   7.322  12.293
22435SOL     OW69137   3.628   5.355   9.083
22435SOL    HW169138   3.633   5.450   9.068
22435SOL    HW269139   3.568   5.346   9.156
22436SOL     OW69140  10.414  13.347  13.925
22436SOL    HW169141  10.390  13.410  13.992
22436SOL    HW269142  10.384  13.387  13.843
22437SOL     OW69143   2.122   6.388   8.797
22437SOL    HW169144   2.131   6.306   8.846
22437SOL    HW269145   2.038   6.378   8.750
22438SOL     OW69146   7.016   0.813  12.360
22438SOL    HW169147   7.051   0.806  12.449
22438SOL    HW269148   6.966   0.732  12.348
22439SOL     OW69149   9.991  10.214  12.334
22439SOL    HW169150  10.039  10.131  12.336
22439SOL    HW269151   9.906  10.194  12.373
22440SOL     OW69152  10.048  13.517  14.357
22440SOL    HW169153   9.991  13.593  14.346
22440SOL    HW269154  10.027  13.484  14.444
22441SOL     OW69155  13.240   8.470   7.335
22441SOL    HW169156  13.313   8.494   7.278
22441SOL    HW269157  13.164   8.472   7.277
22442SOL     OW69158  10.176  12.060   0.169
22442SOL    HW169159  10.210  12.133   0.221
22442SOL    HW269160  10.185  11.984   0.226
22443SOL     OW69161   6.457   6.728  14.859
22443SOL    HW169162   6.402   6.704  14.784
22443SOL    HW269163   6.431   6.817   0.001
22444SOL     OW69164   0.587   2.606  10.317
22444SOL    HW169165   0.498   2.637  10.336
22444SOL    HW269166   0.576   2.545  10.244
22445SOL     OW69167   7.672  14.791  10.090
22445SOL    HW169168   7.759  14.832  10.087
22445SOL    HW269169   7.678  14.728  10.161
22446SOL     OW69170  13.949  10.727   5.397
22446SOL    HW169171  13.941  10.821   5.382
22446SOL    HW269172  13.875  10.689   5.350
22447SOL     OW69173  14.503   9.743   9.918
22447SOL    HW169174  14.470   9.788   9.840
22447SOL    HW269175  14.429   9.691   9.949
22448SOL     OW69176   3.154  12.179   2.214
22448SOL    HW169177   3.112  12.118   2.275
22448SOL    HW269178   3.127  12.266   2.246
22449SOL     OW69179  12.896  14.748   5.158
22449SOL    HW169180  12.837  14.685   5.199
22449SOL    HW269181  12.962  14.694   5.115
22450SOL     OW69182  13.897   2.966   9.533
22450SOL    HW169183  13.880   2.876   9.561
22450SOL    HW269184  13.858   2.972   9.445
22451SOL     OW69185  12.822   3.678   1.186
22451SOL    HW169186  12.757   3.739   1.221
22451SOL    HW269187  12.906   3.720   1.206
22452SOL     OW69188   2.876  10.875  12.325
22452SOL    HW169189   2.892  10.863  12.231
22452SOL    HW269190   2.781  10.878  12.333
22453SOL     OW69191   6.786   5.713  10.508
22453SOL    HW169192   6.854   5.669  10.457
22453SOL    HW269193   6.736   5.763  10.443
22454SOL     OW69194  14.470   3.019   7.861
22454SOL    HW169195  14.421   2.996   7.782
22454SOL    HW269196  14.442   3.108   7.882
22455SOL     OW69197   2.214  11.313   8.835
22455SOL    HW169198   2.185  11.349   8.751
22455SOL    HW269199   2.132  11.294   8.882
22456SOL     OW69200   2.966   9.442  14.226
22456SOL    HW169201   3.032   9.475  14.164
22456SOL    HW269202   2.890   9.498  14.213
22457SOL     OW69203   8.047  13.826   7.891
22457SOL    HW169204   7.964  13.778   7.884
22457SOL    HW269205   8.031  13.908   7.843
22458SOL     OW69206  11.510  11.777   7.626
22458SOL    HW169207  11.445  11.843   7.648
22458SOL    HW269208  11.460  11.696   7.620
22459SOL     OW69209  12.963   6.306   8.539
22459SOL    HW169210  12.961   6.300   8.635
22459SOL    HW269211  13.024   6.237   8.512
22460SOL     OW69212   7.940  12.794   5.135
22460SOL    HW169213   7.880  12.866   5.155
22460SOL    HW269214   8.012  12.806   5.197
22461SOL     OW69215   2.230   1.432   3.555
22461SOL    HW169216   2.254   1.519   3.524
22461SOL    HW269217   2.251   1.433   3.649
22462SOL     OW69218  11.025   7.466   8.885
22462SOL    HW169219  11.041   7.480   8.792
22462SOL    HW269220  10.976   7.544   8.913
22463SOL     OW69221   6.509   1.864  10.597
22463SOL    HW169222   6.482   1.923  10.527
22463SOL    HW269223   6.554   1.921  10.660
22464SOL     OW69224  10.151  12.892   1.115
22464SOL    HW169225  10.230  12.942   1.096
22464SOL    HW269226  10.180  12.800   1.114
22465SOL     OW69227  12.710  12.106   9.012
22465SOL    HW169228  12.732  12.129   9.102
22465SOL    HW269229  12.691  12.013   9.014
22466SOL     OW69230   4.676  14.091  12.892
22466SOL    HW169231   4.650  14.004  12.921
22466SOL    HW269232   4.758  14.078  12.845
22467SOL     OW69233  11.877   8.218   1.556
22467SOL    HW169234  11.819   8.170   1.497
22467SOL    HW269235  11.838   8.306   1.561
22468SOL     OW69236  14.156   6.896   4.378
22468SOL    HW169237  14.103   6.854   4.310
22468SOL    HW269238  14.187   6.977   4.337
22469SOL     OW69239   1.728   3.879   9.553
22469SOL    HW169240   1.670   3.812   9.516
22469SOL    HW269241   1.714   3.956   9.498
22470SOL     OW69242  14.639   5.586  12.379
22470SOL    HW169243  14.726   5.606  12.413
22470SOL    HW269244  14.613   5.506  12.424
22471SOL     OW69245  11.939   3.658   4.298
22471SOL    HW169246  11.944   3.619   4.211
22471SOL    HW269247  11.880   3.600   4.347
22472SOL     OW69248   7.941   9.843   1.265
22472SOL    HW169249   7.871   9.907   1.277
22472SOL    HW269250   7.933   9.816   1.173
22473SOL     OW69251  14.634   0.759   4.486
22473SOL    HW169252  14.722   0.788   4.461
22473SOL    HW269253  14.583   0.839   4.488
22474SOL     OW69254  14.737   4.851   6.885
22474SOL    HW169255  14.751   4.757   6.871
22474SOL    HW269256  14.683   4.878   6.810
22475SOL     OW69257   6.961   6.835  10.321
22475SOL    HW169258   6.918   6.753  10.343
22475SOL    HW269259   7.033   6.810  10.263
22476SOL     OW69260   5.449   5.993   8.558
22476SOL    HW169261   5.367   6.000   8.510
22476SOL    HW269262   5.516   6.017   8.493
22477SOL     OW69263  13.722   1.372   2.141
22477SOL    HW169264  13.711   1.399   2.050
22477SOL    HW269265  13.816   1.378   2.157
22478SOL     OW69266   5.996   7.664  12.543
22478SOL    HW169267   5.966   7.595  12.602
22478SOL    HW269268   5.917   7.697  12.502
22479SOL     OW69269   3.537   9.041  10.475
22479SOL    HW169270   3.450   9.035  10.514
22479SOL    HW269271   3.594   8.995  10.538
22480SOL     OW69272   5.014  10.941   2.930
22480SOL    HW169273   5.093  10.944   2.983
22480SOL    HW269274   5.021  10.859   2.881
22481SOL     OW69275  11.043   0.001   7.494
22481SOL    HW169276  11.138   0.011   7.484
22481SOL    HW269277  11.011   0.090   7.512
22482SOL     OW69278   7.963  13.175  12.266
22482SOL    HW169279   7.972  13.268  12.242
22482SOL    HW269280   7.944  13.176  12.360
22483SOL     OW69281   0.257   5.006  13.946
22483SOL    HW169282   0.277   4.984  13.854
22483SOL    HW269283   0.171   4.966  13.961
22484SOL     OW69284  12.863   3.757   5.861
22484SOL    HW169285  12.819   3.714   5.787
22484SOL    HW269286  12.794   3.810   5.901
22485SOL     OW69287   1.588   9.816   5.717
22485SOL    HW169288   1.493   9.806   5.712
22485SOL    HW269289   1.614   9.840   5.628
22486SOL     OW69290  11.961  10.404   5.736
22486SOL    HW169291  12.031  10.468   5.748
22486SOL    HW269292  11.981  10.362   5.652
22487SOL     OW69293   0.430   4.060   0.339
22487SOL    HW169294   0.518   4.087   0.314
22487SOL    HW269295   0.417   4.097   0.427
22488SOL     OW69296  13.136   4.192   8.577
22488SOL    HW169297  13.178   4.233   8.502
22488SOL    HW269298  13.103   4.109   8.544
22489SOL     OW69299  11.769   9.582  13.636
22489SOL    HW169300  11.855   9.568  13.675
22489SOL    HW269301  11.782   9.561  13.543
22490SOL     OW69302   6.837   9.002   1.406
22490SOL    HW169303   6.829   8.922   1.458
22490SOL    HW269304   6.749   9.016   1.371
22491SOL     OW69305  14.143   5.106   2.468
22491SOL    HW169306  14.145   5.016   2.500
22491SOL    HW269307  14.210   5.151   2.520
22492SOL     OW69308   6.331   5.557   9.532
22492SOL    HW169309   6.292   5.604   9.458
22492SOL    HW269310   6.351   5.625   9.596
22493SOL     OW69311   0.539   6.292   8.291
22493SOL    HW169312   0.586   6.257   8.215
22493SOL    HW269313   0.483   6.360   8.255
22494SOL     OW69314   9.253  12.564  11.338
22494SOL    HW169315   9.252  12.495  11.404
22494SOL    HW269316   9.202  12.635  11.376
22495SOL     OW69317   2.567   9.928   2.238
22495SOL    HW169318   2.661   9.945   2.232
22495SOL    HW269319   2.561   9.834   2.257
22496SOL     OW69320   4.587   2.430   4.416
22496SOL    HW169321   4.663   2.484   4.436
22496SOL    HW269322   4.516   2.467   4.469
22497SOL     OW69323  13.607   6.654   9.289
22497SOL    HW169324  13.540   6.672   9.223
22497SOL    HW269325  13.668   6.727   9.282
22498SOL     OW69326   5.423   6.798   6.872
22498SOL    HW169327   5.327   6.796   6.864
22498SOL    HW269328   5.454   6.799   6.782
22499SOL     OW69329  14.410  11.165  12.744
22499SOL    HW169330  14.346  11.220  12.789
22499SOL    HW269331  14.445  11.108  12.812
22500SOL     OW69332   3.373   1.325   9.740
22500SOL    HW169333   3.466   1.320   9.718
22500SOL    HW269334   3.371   1.360   9.829
22501SOL     OW69335   3.634   6.363   4.702
22501SOL    HW169336   3.667   6.274   4.690
22501SOL    HW269337   3.595   6.362   4.790
22502SOL     OW69338   3.059   3.376   4.470
22502SOL    HW169339   3.034   3.353   4.560
22502SOL    HW269340   3.139   3.427   4.481
22503SOL     OW69341   6.184   7.717   3.255
22503SOL    HW169342   6.249   7.778   3.222
22503SOL    HW269343   6.152   7.672   3.176
22504SOL     OW69344   5.498  12.528   2.367
22504SOL    HW169345   5.574  12.494   2.413
22504SOL    HW269346   5.459  12.451   2.325
22505SOL     OW69347   7.817   9.496   3.915
22505SOL    HW169348   7.794   9.445   3.992
22505SOL    HW269349   7.778   9.582   3.931
22506SOL     OW69350   9.529  12.132   5.152
22506SOL    HW169351   9.593  12.129   5.224
22506SOL    HW269352   9.577  12.171   5.079
22507SOL     OW69353  11.172   9.095   1.291
22507SOL    HW169354  11.179   9.143   1.208
22507SOL    HW269355  11.176   9.003   1.265
22508SOL     OW69356   2.017   8.214   6.770
22508SOL    HW169357   2.100   8.174   6.743
22508SOL    HW269358   2.020   8.213   6.866
22509SOL     OW69359  11.492  14.570   4.736
22509SOL    HW169360  11.433  14.644   4.725
22509SOL    HW269361  11.477  14.515   4.660
22510SOL     OW69362   1.926  12.952   3.948
22510SOL    HW169363   1.879  13.027   3.985
22510SOL    HW269364   2.010  12.951   3.993
22511SOL     OW69365  12.602   7.368  12.336
22511SOL    HW169366  12.563   7.281  12.327
22511SOL    HW269367  12.693   7.356  12.312
22512SOL     OW69368   4.463   5.891   3.441
22512SOL    HW169369   4.534   5.833   3.417
22512SOL    HW269370   4.458   5.954   3.369
22513SOL     OW69371   7.437  12.585   4.899
22513SOL    HW169372   7.503  12.553   4.962
22513SOL    HW269373   7.381  12.509   4.884
22514SOL     OW69374   2.223   8.401   9.516
22514SOL    HW169375   2.175   8.444   9.587
22514SOL    HW269376   2.315   8.411   9.540
22515SOL     OW69377   0.484   0.526  11.757
22515SOL    HW169378   0.509   0.447  11.709
22515SOL    HW269379   0.524   0.516  11.843
22516SOL     OW69380   7.777   2.214   0.575
22516SOL    HW169381   7.871   2.230   0.567
22516SOL    HW269382   7.737   2.300   0.565
22517SOL     OW69383   0.040  12.393  11.579
22517SOL    HW169384   0.006  12.304  11.587
22517SOL    HW269385   0.024  12.433  11.665
22518SOL     OW69386   4.279   0.406   7.074
22518SOL    HW169387   4.371   0.399   7.099
22518SOL    HW269388   4.257   0.498   7.089
22519SOL     OW69389   4.059   8.743   2.383
22519SOL    HW169390   4.144   8.734   2.341
22519SOL    HW269391   4.078   8.744   2.477
22520SOL     OW69392   2.631   8.624   3.789
22520SOL    HW169393   2.691   8.693   3.765
22520SOL    HW269394   2.684   8.561   3.838
22521SOL     OW69395   9.932   9.610  13.067
22521SOL    HW169396   9.869   9.567  13.124
22521SOL    HW269397   9.989   9.539  13.037
22522SOL     OW69398  12.489   4.020   7.070
22522SOL    HW169399  12.452   3.940   7.107
22522SOL    HW269400  12.450   4.026   6.982
22523SOL     OW69401  11.701   4.597  12.747
22523SOL    HW169402  11.777   4.629  12.795
22523SOL    HW269403  11.723   4.610  12.655
22524SOL     OW69404   6.001   8.718   3.026
22524SOL    HW169405   5.937   8.741   3.093
22524SOL    HW269406   6.063   8.660   3.070
22525SOL     OW69407   0.475   5.920  13.921
22525SOL    HW169408   0.391   5.895  13.881
22525SOL    HW269409   0.535   5.929  13.847
22526SOL     OW69410   2.148  11.472  12.573
22526SOL    HW169411   2.187  11.385  12.579
22526SOL    HW269412   2.205  11.527  12.628
22527SOL     OW69413  12.022   3.754   0.373
22527SOL    HW169414  11.996   3.788   0.287
22527SOL    HW269415  11.961   3.795   0.434
22528SOL     OW69416   9.934   7.359  13.980
22528SOL    HW169417   9.965   7.395  14.062
22528SOL    HW269418   9.939   7.432  13.918
22529SOL     OW69419   0.962   0.336  12.372
22529SOL    HW169420   0.985   0.250  12.337
22529SOL    HW269421   1.033   0.357  12.433
22530SOL     OW69422   8.515   4.526  10.410
22530SOL    HW169423   8.596   4.543  10.459
22530SOL    HW269424   8.542   4.526  10.318
22531SOL     OW69425   5.911   3.091  10.007
22531SOL    HW169426   5.826   3.130   9.988
22531SOL    HW269427   5.895   3.033  10.082
22532SOL     OW69428   5.273   4.736   5.141
22532SOL    HW169429   5.194   4.736   5.087
22532SOL    HW269430   5.333   4.795   5.094
22533SOL     OW69431   2.428  10.891   8.083
22533SOL    HW169432   2.342  10.890   8.041
22533SOL    HW269433   2.489  10.908   8.012
22534SOL     OW69434   4.894   5.255  12.635
22534SOL    HW169435   4.826   5.198  12.600
22534SOL    HW269436   4.848   5.314  12.695
22535SOL     OW69437  10.891   1.996   3.459
22535SOL    HW169438  10.937   1.936   3.518
22535SOL    HW269439  10.956   2.019   3.392
22536SOL     OW69440   3.695   8.622   4.359
22536SOL    HW169441   3.619   8.634   4.417
22536SOL    HW269442   3.736   8.708   4.355
22537SOL     OW69443   7.267  12.250   2.865
22537SOL    HW169444   7.258  12.343   2.885
22537SOL    HW269445   7.223  12.205   2.937
22538SOL     OW69446  10.298   8.533  10.032
22538SOL    HW169447  10.324   8.476   9.959
22538SOL    HW269448  10.381   8.560  10.071
22539SOL     OW69449   8.334   8.159   6.620
22539SOL    HW169450   8.252   8.111   6.625
22539SOL    HW269451   8.396   8.095   6.583
22540SOL     OW69452  14.641  12.632   2.494
22540SOL    HW169453  14.634  12.707   2.435
22540SOL    HW269454  14.595  12.660   2.574
22541SOL     OW69455   9.570   0.140  11.744
22541SOL    HW169456   9.588   0.092  11.664
22541SOL    HW269457   9.631   0.103  11.808
22542SOL     OW69458   4.252  13.103   2.410
22542SOL    HW169459   4.211  13.073   2.491
22542SOL    HW269460   4.274  13.022   2.363
22543SOL     OW69461  14.050  11.749   6.344
22543SOL    HW169462  14.043  11.825   6.402
22543SOL    HW269463  13.983  11.688   6.376
22544SOL     OW69464  12.973   4.686   1.011
22544SOL    HW169465  12.983   4.595   0.984
22544SOL    HW269466  12.892   4.715   0.967
22545SOL     OW69467   7.417   4.644   2.834
22545SOL    HW169468   7.386   4.651   2.744
22545SOL    HW269469   7.500   4.597   2.828
22546SOL     OW69470  13.616  14.713   6.850
22546SOL    HW169471  13.643  14.805   6.840
22546SOL    HW269472  13.697  14.663   6.843
22547SOL     OW69473   8.864   2.925   7.008
22547SOL    HW169474   8.906   2.840   6.995
22547SOL    HW269475   8.783   2.919   6.956
22548SOL     OW69476   3.371   7.811   4.661
22548SOL    HW169477   3.457   7.820   4.701
22548SOL    HW269478   3.368   7.722   4.627
22549SOL     OW69479  13.783   8.293   4.631
22549SOL    HW169480  13.793   8.267   4.722
22549SOL    HW269481  13.697   8.260   4.606
22550SOL     OW69482  12.097   6.085   2.738
22550SOL    HW169483  12.192   6.086   2.750
22550SOL    HW269484  12.069   6.174   2.760
22551SOL     OW69485  11.689   9.302   9.887
22551SOL    HW169486  11.650   9.304   9.975
22551SOL    HW269487  11.672   9.213   9.855
22552SOL     OW69488   6.922   5.216  12.272
22552SOL    HW169489   6.978   5.155  12.223
22552SOL    HW269490   6.981   5.261  12.331
22553SOL     OW69491   5.124  12.258   2.241
22553SOL    HW169492   5.033  12.268   2.267
22553SOL    HW269493   5.143  12.166   2.257
22554SOL     OW69494  11.277   4.651   1.922
22554SOL    HW169495  11.249   4.717   1.984
22554SOL    HW269496  11.347   4.603   1.967
22555SOL     OW69497  10.703   0.834   5.337
22555SOL    HW169498  10.747   0.810   5.255
22555SOL    HW269499  10.726   0.926   5.350
22556SOL     OW69500  12.956   0.331  11.355
22556SOL    HW169501  12.875   0.339  11.306
22556SOL    HW269502  12.982   0.421  11.373
22557SOL     OW69503   8.411   2.909  11.497
22557SOL    HW169504   8.433   2.914  11.590
22557SOL    HW269505   8.406   2.815  11.479
22558SOL     OW69506   5.695   6.017   4.533
22558SOL    HW169507   5.740   6.015   4.617
22558SOL    HW269508   5.666   6.108   4.522
22559SOL     OW69509  14.279   3.035  14.319
22559SOL    HW169510  14.270   3.127  14.293
22559SOL    HW269511  14.201   2.992  14.284
22560SOL     OW69512   2.303   1.286  10.488
22560SOL    HW169513   2.286   1.287  10.582
22560SOL    HW269514   2.315   1.378  10.464
22561SOL     OW69515  11.157   7.424   9.735
22561SOL    HW169516  11.130   7.514   9.714
22561SOL    HW269517  11.105   7.369   9.676
22562SOL     OW69518  12.169   3.722   3.732
22562SOL    HW169519  12.214   3.658   3.676
22562SOL    HW269520  12.092   3.675   3.765
22563SOL     OW69521   8.816   6.031   5.185
22563SOL    HW169522   8.756   5.965   5.151
22563SOL    HW269523   8.778   6.057   5.269
22564SOL     OW69524   6.187   3.170   1.044
22564SOL    HW169525   6.169   3.091   1.097
22564SOL    HW269526   6.166   3.243   1.103
22565SOL     OW69527   1.848   4.637   6.280
22565SOL    HW169528   1.793   4.704   6.321
22565SOL    HW269529   1.843   4.563   6.341
22566SOL     OW69530   3.288   5.313   7.687
22566SOL    HW169531   3.372   5.268   7.693
22566SOL    HW269532   3.273   5.323   7.593
22567SOL     OW69533   3.411   6.762   9.119
22567SOL    HW169534   3.494   6.780   9.075
22567SOL    HW269535   3.347   6.815   9.072
22568SOL     OW69536  13.374   3.639   0.304
22568SOL    HW169537  13.451   3.612   0.355
22568SOL    HW269538  13.405   3.637   0.213
22569SOL     OW69539   7.567   7.368   5.841
22569SOL    HW169540   7.490   7.324   5.806
22569SOL    HW269541   7.574   7.448   5.789
22570SOL     OW69542   3.418   0.848  14.401
22570SOL    HW169543   3.464   0.930  14.382
22570SOL    HW269544   3.487   0.786  14.424
22571SOL     OW69545   2.662   8.263   5.082
22571SOL    HW169546   2.691   8.178   5.115
22571SOL    HW269547   2.617   8.244   5.000
22572SOL     OW69548   0.770  12.991  13.930
22572SOL    HW169549   0.781  13.057  13.998
22572SOL    HW269550   0.683  12.955  13.945
22573SOL     OW69551  11.701   4.669  10.807
22573SOL    HW169552  11.630   4.619  10.767
22573SOL    HW269553  11.660   4.720  10.876
22574SOL     OW69554  12.335   2.906  11.245
22574SOL    HW169555  12.420   2.949  11.236
22574SOL    HW269556  12.295   2.947  11.322
22575SOL     OW69557  10.831   7.308   6.117
22575SOL    HW169558  10.759   7.353   6.072
22575SOL    HW269559  10.908   7.361   6.098
22576SOL     OW69560   3.996   2.787   8.124
22576SOL    HW169561   4.005   2.756   8.033
22576SOL    HW269562   3.904   2.813   8.130
22577SOL     OW69563  14.571   7.979  13.683
22577SOL    HW169564  14.492   7.997  13.631
22577SOL    HW269565  14.544   7.992  13.773
22578SOL     OW69566  13.408   9.153   3.568
22578SOL    HW169567  13.345   9.162   3.640
22578SOL    HW269568  13.492   9.137   3.611
22579SOL     OW69569   2.304  11.858   4.668
22579SOL    HW169570   2.375  11.896   4.616
22579SOL    HW269571   2.337  11.858   4.757
22580SOL     OW69572   8.378  13.591  14.117
22580SOL    HW169573   8.472  13.610  14.118
22580SOL    HW269574   8.337  13.670  14.082
22581SOL     OW69575   5.151   2.121   5.846
22581SOL    HW169576   5.166   2.066   5.768
22581SOL    HW269577   5.067   2.091   5.880
22582SOL     OW69578   7.478   3.629   9.772
22582SOL    HW169579   7.476   3.725   9.767
22582SOL    HW269580   7.387   3.603   9.777
22583SOL     OW69581   8.169  10.511  14.607
22583SOL    HW169582   8.080  10.517  14.643
22583SOL    HW269583   8.213  10.589  14.640
22584SOL     OW69584   8.260  10.409  13.676
22584SOL    HW169585   8.195  10.456  13.623
22584SOL    HW269586   8.322  10.374  13.612
22585SOL     OW69587  10.068   2.438   7.670
22585SOL    HW169588  10.121   2.403   7.741
22585SOL    HW269589   9.981   2.399   7.684
22586SOL     OW69590   0.579   7.005   3.011
22586SOL    HW169591   0.529   7.081   3.038
22586SOL    HW269592   0.517   6.932   3.016
22587SOL     OW69593   0.493  14.482   5.540
22587SOL    HW169594   0.444  14.445   5.467
22587SOL    HW269595   0.577  14.508   5.502
22588SOL     OW69596   3.707   5.703  14.496
22588SOL    HW169597   3.754   5.648  14.433
22588SOL    HW269598   3.709   5.791  14.457
22589SOL     OW69599  13.238  14.509  10.102
22589SOL    HW169600  13.227  14.600  10.075
22589SOL    HW269601  13.331  14.491  10.088
22590SOL     OW69602   7.000   8.743  10.826
22590SOL    HW169603   7.066   8.719  10.762
22590SOL    HW269604   6.948   8.663  10.838
22591SOL     OW69605   2.270   0.310   1.082
22591SOL    HW169606   2.185   0.268   1.069
22591SOL    HW269607   2.249   0.397   1.116
22592SOL     OW69608   0.204   5.171   9.474
22592SOL    HW169609   0.130   5.125   9.435
22592SOL    HW269610   0.188   5.263   9.455
22593SOL     OW69611   4.599   2.136  14.001
22593SOL    HW169612   4.557   2.051  14.015
22593SOL    HW269613   4.570   2.190  14.075
22594SOL     OW69614   4.982   6.835  11.561
22594SOL    HW169615   5.026   6.887  11.628
22594SOL    HW269616   5.050   6.779  11.525
22595SOL     OW69617   1.605  12.318   2.163
22595SOL    HW169618   1.680  12.378   2.163
22595SOL    HW269619   1.583  12.306   2.070
22596SOL     OW69620  12.216  12.785  12.297
22596SOL    HW169621  12.267  12.827  12.228
22596SOL    HW269622  12.130  12.827  12.294
22597SOL     OW69623   4.007   3.183  13.656
22597SOL    HW169624   4.037   3.168  13.566
22597SOL    HW269625   4.023   3.100  13.701
22598SOL     OW69626  10.331   2.791   6.724
22598SOL    HW169627  10.273   2.720   6.697
22598SOL    HW269628  10.387   2.751   6.790
22599SOL     OW69629  12.018   3.433   0.648
22599SOL    HW169630  11.944   3.395   0.601
22599SOL    HW269631  12.003   3.408   0.739
22600SOL     OW69632   4.210   9.975   1.500
22600SOL    HW169633   4.211  10.029   1.579
22600SOL    HW269634   4.121   9.985   1.465
22601SOL     OW69635  10.415  14.192   6.343
22601SOL    HW169636  10.439  14.196   6.251
22601SOL    HW269637  10.348  14.123   6.348
22602SOL     OW69638   5.332  14.095   1.891
22602SOL    HW169639   5.338  14.182   1.929
22602SOL    HW269640   5.422  14.070   1.871
22603SOL     OW69641   5.421  12.162   4.090
22603SOL    HW169642   5.334  12.129   4.113
22603SOL    HW269643   5.403  12.245   4.045
22604SOL     OW69644  10.225   1.231  12.510
22604SOL    HW169645  10.311   1.239  12.550
22604SOL    HW269646  10.242   1.227  12.416
22605SOL     OW69647   3.283   8.209   3.136
22605SOL    HW169648   3.198   8.170   3.156
22605SOL    HW269649   3.322   8.228   3.221
22606SOL     OW69650   7.241  12.302   2.214
22606SOL    HW169651   7.249  12.242   2.287
22606SOL    HW269652   7.331  12.333   2.197
22607SOL     OW69653   4.814   2.933  12.865
22607SOL    HW169654   4.788   2.871  12.797
22607SOL    HW269655   4.760   2.910  12.941
22608SOL     OW69656  10.286   0.222   6.840
22608SOL    HW169657  10.274   0.176   6.923
22608SOL    HW269658  10.197   0.244   6.812
22609SOL     OW69659  11.723  13.907   1.504
22609SOL    HW169660  11.772  13.833   1.541
22609SOL    HW269661  11.680  13.872   1.427
22610SOL     OW69662   9.365  14.225  13.281
22610SOL    HW169663   9.287  14.269  13.247
22610SOL    HW269664   9.331  14.150  13.329
22611SOL     OW69665   0.826  12.320   6.918
22611SOL    HW169666   0.735  12.343   6.936
22611SOL    HW269667   0.821  12.242   6.863
22612SOL     OW69668   2.720   1.364   9.845
22612SOL    HW169669   2.635   1.321   9.857
22612SOL    HW269670   2.765   1.310   9.780
22613SOL     OW69671   9.913  14.221  10.986
22613SOL    HW169672   9.879  14.203  10.899
22613SOL    HW269673   9.980  14.153  11.000
22614SOL     OW69674  11.228  11.106   3.175
22614SOL    HW169675  11.310  11.092   3.127
22614SOL    HW269676  11.162  11.120   3.107
22615SOL     OW69677   4.308   4.263   8.730
22615SOL    HW169678   4.369   4.316   8.679
22615SOL    HW269679   4.292   4.314   8.810
22616SOL     OW69680   7.426   0.684   8.073
22616SOL    HW169681   7.487   0.612   8.056
22616SOL    HW269682   7.481   0.762   8.071
22617SOL     OW69683  10.495  13.578  14.486
22617SOL    HW169684  10.585  13.552  14.506
22617SOL    HW269685  10.459  13.608  14.570
22618SOL     OW69686   2.532   4.979  11.057
22618SOL    HW169687   2.533   4.905  11.117
22618SOL    HW269688   2.609   4.967  11.002
22619SOL     OW69689   9.667  10.753  13.030
22619SOL    HW169690   9.690  10.770  12.938
22619SOL    HW269691   9.633  10.663  13.030
22620SOL     OW69692   3.446   3.725   1.925
22620SOL    HW169693   3.528   3.766   1.951
22620SOL    HW269694   3.419   3.773   1.847
22621SOL     OW69695   0.682  13.972  12.914
22621SOL    HW169696   0.653  14.056  12.878
22621SOL    HW269697   0.608  13.943  12.968
22622SOL     OW69698   8.273  13.204   4.143
22622SOL    HW169699   8.317  13.235   4.222
22622SOL    HW269700   8.195  13.259   4.136
22623SOL     OW69701   1.911   9.017  10.836
22623SOL    HW169702   1.988   9.012  10.893
22623SOL    HW269703   1.944   9.059  10.756
22624SOL     OW69704   8.017  12.077   2.824
22624SOL    HW169705   7.965  12.067   2.744
22624SOL    HW269706   8.080  12.005   2.820
22625SOL     OW69707  14.756  11.511   5.865
22625SOL    HW169708  14.760  11.564   5.945
22625SOL    HW269709  14.821  11.441   5.879
22626SOL     OW69710  13.572   4.099   8.179
22626SOL    HW169711  13.601   4.013   8.210
22626SOL    HW269712  13.492   4.117   8.228
22627SOL     OW69713   7.698  14.604  10.286
22627SOL    HW169714   7.724  14.643  10.370
22627SOL    HW269715   7.605  14.584  10.296
22628SOL     OW69716   7.090  10.591  13.533
22628SOL    HW169717   7.041  10.509  13.527
22628SOL    HW269718   7.129  10.588  13.620
22629SOL     OW69719   2.364   5.487   5.593
22629SOL    HW169720   2.344   5.474   5.685
22629SOL    HW269721   2.320   5.569   5.570
22630SOL     OW69722  11.885   7.139   1.234
22630SOL    HW169723  11.919   7.213   1.185
22630SOL    HW269724  11.936   7.137   1.314
22631SOL     OW69725   7.615   2.481   0.106
22631SOL    HW169726   7.571   2.396   0.112
22631SOL    HW269727   7.586   2.516   0.021
22632SOL     OW69728  10.597   1.805   2.950
22632SOL    HW169729  10.636   1.722   2.978
22632SOL    HW269730  10.580   1.792   2.857
22633SOL     OW69731   4.214   9.459   4.394
22633SOL    HW169732   4.215   9.552   4.372
22633SOL    HW269733   4.282   9.449   4.461
22634SOL     OW69734  10.066   6.955  11.093
22634SOL    HW169735  10.016   6.879  11.061
22634SOL    HW269736   9.999   7.020  11.115
22635SOL     OW69737   3.261   9.922   1.298
22635SOL    HW169738   3.339   9.935   1.244
22635SOL    HW269739   3.256   9.827   1.309
22636SOL     OW69740   8.507  14.147   6.069
22636SOL    HW169741   8.538  14.065   6.030
22636SOL    HW269742   8.412  14.135   6.078
22637SOL     OW69743   6.577   1.231   5.957
22637SOL    HW169744   6.522   1.155   5.975
22637SOL    HW269745   6.657   1.216   6.007
22638SOL     OW69746  10.414   1.343  10.423
22638SOL    HW169747  10.499   1.355  10.464
22638SOL    HW269748  10.351   1.351  10.495
22639SOL     OW69749   1.270  12.314   3.489
22639SOL    HW169750   1.342  12.252   3.499
22639SOL    HW269751   1.259  12.323   3.394
22640SOL     OW69752   8.643   5.048   4.667
22640SOL    HW169753   8.695   5.128   4.677
22640SOL    HW269754   8.632   5.016   4.756
22641SOL     OW69755  12.309   8.673   6.013
22641SOL    HW169756  12.323   8.686   5.919
22641SOL    HW269757  12.317   8.579   6.026
22642SOL     OW69758   1.369   6.807  10.916
22642SOL    HW169759   1.459   6.781  10.896
22642SOL    HW269760   1.350   6.763  10.999
22643SOL     OW69761   6.954   1.005  13.841
22643SOL    HW169762   6.864   0.994  13.812
22643SOL    HW269763   6.987   0.915  13.851
22644SOL     OW69764   4.991   3.850   5.741
22644SOL    HW169765   5.063   3.883   5.688
22644SOL    HW269766   5.010   3.880   5.830
22645SOL     OW69767  12.668   2.624   8.628
22645SOL    HW169768  12.580   2.603   8.660
22645SOL    HW269769  12.708   2.539   8.610
22646SOL     OW69770  10.087   7.067   4.621
22646SOL    HW169771  10.137   7.111   4.689
22646SOL    HW269772   9.996   7.086   4.641
22647SOL     OW69773  13.925   3.787   6.019
22647SOL    HW169774  13.879   3.829   5.946
22647SOL    HW269775  14.010   3.832   6.022
22648SOL     OW69776  13.905   5.934   0.590
22648SOL    HW169777  13.820   5.891   0.596
22648SOL    HW269778  13.920   5.970   0.677
22649SOL     OW69779   7.701   9.932  12.136
22649SOL    HW169780   7.628   9.959  12.192
22649SOL    HW269781   7.723  10.010  12.085
22650SOL     OW69782  12.566   5.810   0.173
22650SOL    HW169783  12.484   5.763   0.162
22650SOL    HW269784  12.634   5.743   0.166
22651SOL     OW69785   1.186  12.293   9.080
22651SOL    HW169786   1.234  12.211   9.092
22651SOL    HW269787   1.137  12.304   9.162
22652SOL     OW69788   7.832   8.605   5.690
22652SOL    HW169789   7.840   8.688   5.737
22652SOL    HW269790   7.753   8.565   5.725
22653SOL     OW69791   8.113   4.609   1.296
22653SOL    HW169792   8.053   4.591   1.223
22653SOL    HW269793   8.143   4.523   1.324
22654SOL     OW69794  12.620  10.081   4.683
22654SOL    HW169795  12.615  10.112   4.773
22654SOL    HW269796  12.633   9.986   4.691
22655SOL     OW69797   1.446   6.697   4.276
22655SOL    HW169798   1.496   6.636   4.330
22655SOL    HW269799   1.480   6.685   4.188
22656SOL     OW69800   9.861  13.090   8.684
22656SOL    HW169801   9.885  13.044   8.765
22656SOL    HW269802   9.817  13.023   8.631
22657SOL     OW69803   8.447  13.765   9.150
22657SOL    HW169804   8.452  13.803   9.238
22657SOL    HW269805   8.454  13.671   9.165
22658SOL     OW69806   1.888   0.189   4.857
22658SOL    HW169807   1.796   0.217   4.848
22658SOL    HW269808   1.938   0.271   4.852
22659SOL     OW69809  12.851   1.659  13.053
22659SOL    HW169810  12.844   1.633  13.145
22659SOL    HW269811  12.940   1.693  13.044
22660SOL     OW69812   3.540   5.806   9.229
22660SOL    HW169813   3.591   5.886   9.240
22660SOL    HW269814   3.449   5.834   9.238
22661SOL     OW69815   7.632   6.174   7.537
22661SOL    HW169816   7.585   6.208   7.461
22661SOL    HW269817   7.659   6.252   7.586
22662SOL     OW69818   1.346   9.015   9.412
22662SOL    HW169819   1.384   8.928   9.423
22662SOL    HW269820   1.252   9.002   9.427
22663SOL     OW69821   1.044   7.314  14.615
22663SOL    HW169822   1.039   7.402  14.653
22663SOL    HW269823   1.132   7.310  14.576
22664SOL     OW69824  14.097   4.383   6.719
22664SOL    HW169825  14.182   4.422   6.738
22664SOL    HW269826  14.105   4.292   6.747
22665SOL     OW69827   7.779   1.694   9.710
22665SOL    HW169828   7.840   1.643   9.763
22665SOL    HW269829   7.731   1.748   9.773
22666SOL     OW69830   7.091   4.668   6.068
22666SOL    HW169831   7.172   4.679   6.118
22666SOL    HW269832   7.100   4.582   6.027
22667SOL     OW69833   9.678   2.437  11.431
22667SOL    HW169834   9.613   2.505  11.450
22667SOL    HW269835   9.662   2.368  11.495
22668SOL     OW69836   7.386   9.711   8.244
22668SOL    HW169837   7.293   9.694   8.226
22668SOL    HW269838   7.406   9.790   8.193
22669SOL     OW69839  12.900   0.073   3.431
22669SOL    HW169840  12.911   0.028   3.515
22669SOL    HW269841  12.983   0.060   3.385
22670SOL     OW69842   1.401   8.352   2.624
22670SOL    HW169843   1.361   8.438   2.635
22670SOL    HW269844   1.389   8.309   2.708
22671SOL     OW69845  13.458   8.268   5.140
22671SOL    HW169846  13.495   8.232   5.059
22671SOL    HW269847  13.529   8.320   5.178
22672SOL     OW69848  14.174   3.076   6.139
22672SOL    HW169849  14.090   3.067   6.185
22672SOL    HW269850  14.160   3.033   6.055
22673SOL     OW69851   9.547   3.288   9.619
22673SOL    HW169852   9.537   3.337   9.537
22673SOL    HW269853   9.561   3.197   9.591
22674SOL     OW69854   9.634   0.556   0.813
22674SOL    HW169855   9.704   0.517   0.760
22674SOL    HW269856   9.578   0.600   0.749
22675SOL     OW69857   2.771  11.038   0.390
22675SOL    HW169858   2.810  10.988   0.461
22675SOL    HW269859   2.749  11.123   0.429
22676SOL     OW69860   5.948  10.716  12.898
22676SOL    HW169861   6.019  10.779  12.885
22676SOL    HW269862   5.880  10.745  12.837
22677SOL     OW69863   7.451   7.372   1.170
22677SOL    HW169864   7.508   7.439   1.132
22677SOL    HW269865   7.496   7.289   1.152
22678SOL     OW69866  13.669   3.936   3.589
22678SOL    HW169867  13.697   3.845   3.582
22678SOL    HW269868  13.716   3.982   3.519
22679SOL     OW69869  12.099   9.479  11.751
22679SOL    HW169870  12.109   9.520  11.665
22679SOL    HW269871  12.005   9.460  11.758
22680SOL     OW69872  11.103   0.705   5.705
22680SOL    HW169873  11.166   0.777   5.709
22680SOL    HW269874  11.020   0.746   5.683
22681SOL     OW69875   4.383  14.659   2.445
22681SOL    HW169876   4.421  14.640   2.359
22681SOL    HW269877   4.422  14.594   2.503
22682SOL     OW69878   7.979  13.446  12.278
22682SOL    HW169879   8.047  13.465  12.342
22682SOL    HW269880   7.984  13.519  12.216
22683SOL     OW69881  10.173  14.170   7.414
22683SOL    HW169882  10.203  14.209   7.496
22683SOL    HW269883  10.121  14.094   7.441
22684SOL     OW69884   1.038   8.349   7.935
22684SOL    HW169885   1.086   8.396   7.867
22684SOL    HW269886   1.091   8.360   8.013
22685SOL     OW69887  13.508   7.987   6.071
22685SOL    HW169888  13.598   8.004   6.100
22685SOL    HW269889  13.460   8.067   6.093
22686SOL     OW69890  12.341   1.120   8.471
22686SOL    HW169891  12.387   1.134   8.388
22686SOL    HW269892  12.257   1.082   8.446
22687SOL     OW69893  12.834   3.615   4.071
22687SOL    HW169894  12.756   3.656   4.107
22687SOL    HW269895  12.868   3.678   4.007
22688SOL     OW69896   8.972   8.259   1.311
22688SOL    HW169897   8.949   8.283   1.401
22688SOL    HW269898   9.067   8.251   1.312
22689SOL     OW69899   3.784   4.088   9.518
22689SOL    HW169900   3.825   4.005   9.543
22689SOL    HW269901   3.753   4.126   9.600
22690SOL     OW69902   7.421   5.711  14.535
22690SOL    HW169903   7.515   5.731  14.540
22690SOL    HW269904   7.389   5.768  14.465
22691SOL     OW69905   6.497   0.164   7.448
22691SOL    HW169906   6.451   0.092   7.490
22691SOL    HW269907   6.574   0.124   7.409
22692SOL     OW69908  13.630   7.233   4.314
22692SOL    HW169909  13.581   7.188   4.245
22692SOL    HW269910  13.607   7.326   4.303
22693SOL     OW69911   5.405  13.452  12.692
22693SOL    HW169912   5.313  13.425  12.696
22693SOL    HW269913   5.442  13.401  12.620
22694SOL     OW69914   5.352  11.762  13.456
22694SOL    HW169915   5.432  11.806  13.485
22694SOL    HW269916   5.306  11.827  13.403
22695SOL     OW69917   0.978  14.317  13.845
22695SOL    HW169918   0.893  14.305  13.888
22695SOL    HW269919   1.037  14.346  13.915
22696SOL     OW69920   5.159   4.346   0.291
22696SOL    HW169921   5.244   4.331   0.332
22696SOL    HW269922   5.132   4.433   0.322
22697SOL     OW69923   0.819   0.450   2.117
22697SOL    HW169924   0.778   0.499   2.188
22697SOL    HW269925   0.845   0.516   2.053
22698SOL     OW69926   0.378   0.888   8.944
22698SOL    HW169927   0.345   0.799   8.954
22698SOL    HW269928   0.299   0.943   8.941
22699SOL     OW69929   3.011   3.943  12.122
22699SOL    HW169930   3.054   3.858  12.119
22699SOL    HW269931   2.922   3.926  12.091
22700SOL     OW69932   5.879   0.675   7.757
22700SOL    HW169933   5.935   0.615   7.707
22700SOL    HW269934   5.822   0.618   7.809
22701SOL     OW69935   7.194   2.416  10.823
22701SOL    HW169936   7.151   2.405  10.908
22701SOL    HW269937   7.222   2.328  10.799
22702SOL     OW69938   1.709   1.552   4.740
22702SOL    HW169939   1.674   1.632   4.700
22702SOL    HW269940   1.796   1.577   4.772
22703SOL     OW69941   3.968   3.025   6.431
22703SOL    HW169942   3.926   3.010   6.346
22703SOL    HW269943   3.917   3.095   6.471
22704SOL     OW69944  11.091  11.890   6.976
22704SOL    HW169945  11.018  11.829   6.964
22704SOL    HW269946  11.116  11.915   6.887
22705SOL     OW69947   7.157   7.800   7.306
22705SOL    HW169948   7.132   7.721   7.354
22705SOL    HW269949   7.181   7.863   7.374
22706SOL     OW69950   3.269   3.863  11.415
22706SOL    HW169951   3.357   3.901  11.420
22706SOL    HW269952   3.247   3.842  11.505
22707SOL     OW69953   5.870  10.629  13.803
22707SOL    HW169954   5.906  10.705  13.849
22707SOL    HW269955   5.892  10.554  13.859
22708SOL     OW69956   6.780   1.678   9.536
22708SOL    HW169957   6.859   1.731   9.544
22708SOL    HW269958   6.749   1.694   9.447
22709SOL     OW69959   8.602   5.563  11.005
22709SOL    HW169960   8.518   5.602  11.029
22709SOL    HW269961   8.666   5.633  11.019
22710SOL     OW69962   2.143   9.284   0.897
22710SOL    HW169963   2.217   9.323   0.851
22710SOL    HW269964   2.121   9.347   0.966
22711SOL     OW69965   2.569  14.841  11.335
22711SOL    HW169966   2.607  14.786  11.267
22711SOL    HW269967   2.611   0.047  11.323
22712SOL     OW69968   8.140   0.086   6.339
22712SOL    HW169969   8.064   0.123   6.295
22712SOL    HW269970   8.196   0.056   6.268
22713SOL     OW69971   6.762   1.955  13.785
22713SOL    HW169972   6.770   2.048  13.764
22713SOL    HW269973   6.669   1.935  13.771
22714SOL     OW69974   0.531   9.784  13.996
22714SOL    HW169975   0.624   9.778  13.973
22714SOL    HW269976   0.488   9.809  13.914
22715SOL     OW69977  12.998  14.276  12.417
22715SOL    HW169978  13.082  14.293  12.375
22715SOL    HW269979  13.019  14.222  12.493
22716SOL     OW69980  14.653   2.239   5.806
22716SOL    HW169981  14.680   2.293   5.732
22716SOL    HW269982  14.722   2.252   5.872
22717SOL     OW69983   9.805   1.240  14.296
22717SOL    HW169984   9.711   1.245  14.310
22717SOL    HW269985   9.843   1.245  14.383
22718SOL     OW69986   9.774   0.548   4.439
22718SOL    HW169987   9.835   0.485   4.476
22718SOL    HW269988   9.795   0.550   4.346
22719SOL     OW69989   1.281  14.338  12.133
22719SOL    HW169990   1.366  14.298  12.113
22719SOL    HW269991   1.269  14.323  12.227
22720SOL     OW69992   1.595   6.666  11.103
22720SOL    HW169993   1.611   6.571  11.107
22720SOL    HW269994   1.570   6.681  11.012
22721SOL     OW69995   8.625  13.037   9.320
22721SOL    HW169996   8.662  12.948   9.318
22721SOL    HW269997   8.680  13.087   9.261
22722SOL     OW69998   8.639   2.852  13.264
22722SOL    HW169999   8.724   2.815  13.242
22722SOL    HW270000   8.576   2.803  13.211
22723SOL     OW70001   5.182   7.446   5.133
22723SOL    HW170002   5.194   7.352   5.150
22723SOL    HW270003   5.185   7.487   5.219
22724SOL     OW70004  12.436  13.368  14.195
22724SOL    HW170005  12.519  13.375  14.241
22724SOL    HW270006  12.456  13.318  14.116
22725SOL     OW70007   3.956   3.726   0.076
22725SOL    HW170008   3.997   3.750  14.871
22725SOL    HW270009   4.001   3.646   0.102
22726SOL     OW70010  11.091  13.209  12.595
22726SOL    HW170011  11.155  13.222  12.666
22726SOL    HW270012  11.056  13.122  12.610
22727SOL     OW70013   9.748   1.117  13.360
22727SOL    HW170014   9.791   1.065  13.292
22727SOL    HW270015   9.788   1.086  13.441
22728SOL     OW70016   4.594   6.276  13.476
22728SOL    HW170017   4.687   6.277  13.496
22728SOL    HW270018   4.580   6.355  13.424
22729SOL     OW70019   3.636   5.715   1.563
22729SOL    HW170020   3.630   5.767   1.643
22729SOL    HW270021   3.545   5.699   1.538
22730SOL     OW70022   0.065  12.598   7.163
22730SOL    HW170023   0.120  12.564   7.092
22730SOL    HW270024   0.074  12.693   7.158
22731SOL     OW70025   1.899   9.649  11.694
22731SOL    HW170026   1.994   9.638  11.690
22731SOL    HW270027   1.871   9.589  11.764
22732SOL     OW70028   5.728   0.046   2.655
22732SOL    HW170029   5.655  14.864   2.654
22732SOL    HW270030   5.752   0.058   2.563
22733SOL     OW70031   7.133   7.236  13.333
22733SOL    HW170032   7.139   7.299  13.262
22733SOL    HW270033   7.194   7.268  13.400
22734SOL     OW70034   9.594   2.494  10.798
22734SOL    HW170035   9.574   2.429  10.865
22734SOL    HW270036   9.639   2.444  10.729
22735SOL     OW70037   6.374  10.240  11.687
22735SOL    HW170038   6.300  10.179  11.687
22735SOL    HW270039   6.334  10.325  11.666
22736SOL     OW70040   2.486   5.477   2.970
22736SOL    HW170041   2.568   5.524   2.983
22736SOL    HW270042   2.458   5.499   2.881
22737SOL     OW70043   3.479  14.710   1.253
22737SOL    HW170044   3.446  14.660   1.178
22737SOL    HW270045   3.562  14.669   1.274
22738SOL     OW70046   9.749   4.674   4.935
22738SOL    HW170047   9.658   4.695   4.955
22738SOL    HW270048   9.763   4.709   4.847
22739SOL     OW70049   3.223  11.616  11.063
22739SOL    HW170050   3.132  11.589  11.054
22739SOL    HW270051   3.253  11.574  11.145
22740SOL     OW70052   3.919   2.750   4.378
22740SOL    HW170053   3.872   2.695   4.316
22740SOL    HW270054   3.866   2.748   4.458
22741SOL     OW70055  10.122  12.540   0.437
22741SOL    HW170056  10.129  12.620   0.384
22741SOL    HW270057  10.168  12.561   0.518
22742SOL     OW70058   7.048   4.776  14.239
22742SOL    HW170059   7.038   4.815  14.152
22742SOL    HW270060   7.109   4.834  14.284
22743SOL     OW70061  13.258   3.633  14.039
22743SOL    HW170062  13.192   3.622  14.108
22743SOL    HW270063  13.312   3.706  14.069
22744SOL     OW70064   3.796  12.345  11.083
22744SOL    HW170065   3.746  12.362  11.003
22744SOL    HW270066   3.770  12.416  11.142
22745SOL     OW70067   9.687  10.364   3.283
22745SOL    HW170068   9.753  10.395   3.345
22745SOL    HW270069   9.642  10.444   3.255
22746SOL     OW70070   2.645  11.900  10.555
22746SOL    HW170071   2.693  11.886  10.474
22746SOL    HW270072   2.560  11.934  10.527
22747SOL     OW70073   8.419  14.321  10.476
22747SOL    HW170074   8.359  14.393  10.496
22747SOL    HW270075   8.475  14.315  10.554
22748SOL     OW70076  13.841   4.342   6.999
22748SOL    HW170077  13.843   4.254   7.038
22748SOL    HW270078  13.920   4.385   7.033
22749SOL     OW70079   6.657   0.238   9.018
22749SOL    HW170080   6.565   0.218   9.038
22749SOL    HW270081   6.676   0.317   9.067
22750SOL     OW70082   0.291   1.958   8.978
22750SOL    HW170083   0.337   1.874   8.973
22750SOL    HW270084   0.334   2.013   8.913
22751SOL     OW70085   9.296   1.669  13.816
22751SOL    HW170086   9.239   1.647  13.743
22751SOL    HW270087   9.271   1.758  13.841
22752SOL     OW70088   3.945  10.736   8.550
22752SOL    HW170089   4.040  10.737   8.557
22752SOL    HW270090   3.928  10.750   8.457
22753SOL     OW70091   1.546   5.944   3.009
22753SOL    HW170092   1.482   6.011   2.986
22753SOL    HW270093   1.576   5.910   2.925
22754SOL     OW70094   8.536  14.503  12.006
22754SOL    HW170095   8.610  14.444  12.022
22754SOL    HW270096   8.477  14.452  11.951
22755SOL     OW70097   1.772   7.072   3.508
22755SOL    HW170098   1.762   7.100   3.599
22755SOL    HW270099   1.683   7.062   3.475
22756SOL     OW70100   8.785   5.972   6.728
22756SOL    HW170101   8.763   5.879   6.723
22756SOL    HW270102   8.803   5.997   6.638
22757SOL     OW70103  10.248  13.248   8.137
22757SOL    HW170104  10.228  13.161   8.103
22757SOL    HW270105  10.193  13.307   8.085
22758SOL     OW70106   5.070   5.620  14.303
22758SOL    HW170107   5.128   5.545  14.296
22758SOL    HW270108   5.115   5.680  14.362
22759SOL     OW70109  10.672   4.484   8.437
22759SOL    HW170110  10.581   4.453   8.430
22759SOL    HW270111  10.688   4.488   8.531
22760SOL     OW70112   1.345  14.432   6.654
22760SOL    HW170113   1.386  14.395   6.576
22760SOL    HW270114   1.290  14.361   6.688
22761SOL     OW70115   9.073   0.077  13.924
22761SOL    HW170116   9.009   0.052  13.857
22761SOL    HW270117   9.068   0.008  13.989
22762SOL     OW70118  13.668  11.026   7.694
22762SOL    HW170119  13.742  11.036   7.634
22762SOL    HW270120  13.651  11.115   7.726
22763SOL     OW70121  13.750   7.412   5.859
22763SOL    HW170122  13.784   7.449   5.778
22763SOL    HW270123  13.827   7.399   5.914
22764SOL     OW70124   9.226   3.423   7.020
22764SOL    HW170125   9.239   3.503   6.969
22764SOL    HW270126   9.247   3.448   7.110
22765SOL     OW70127   4.213   9.687   6.082
22765SOL    HW170128   4.163   9.622   6.033
22765SOL    HW270129   4.272   9.636   6.137
22766SOL     OW70130  13.161  12.614   1.258
22766SOL    HW170131  13.109  12.649   1.186
22766SOL    HW270132  13.225  12.557   1.215
22767SOL     OW70133   3.114   6.999   5.984
22767SOL    HW170134   3.153   7.080   5.951
22767SOL    HW270135   3.127   7.003   6.079
22768SOL     OW70136  12.530   2.932   5.632
22768SOL    HW170137  12.607   2.912   5.579
22768SOL    HW270138  12.560   3.002   5.691
22769SOL     OW70139  10.198  11.045   9.250
22769SOL    HW170140  10.202  11.127   9.300
22769SOL    HW270141  10.232  10.979   9.310
22770SOL     OW70142  14.483  12.515  14.823
22770SOL    HW170143  14.426  12.524  14.746
22770SOL    HW270144  14.425  12.481   0.012
22771SOL     OW70145  13.400  13.847   4.879
22771SOL    HW170146  13.373  13.909   4.811
22771SOL    HW270147  13.358  13.879   4.959
22772SOL     OW70148  13.295  12.669   5.517
22772SOL    HW170149  13.367  12.608   5.537
22772SOL    HW270150  13.217  12.623   5.547
22773SOL     OW70151   8.177   9.855   9.051
22773SOL    HW170152   8.129   9.897   9.123
22773SOL    HW270153   8.181   9.763   9.076
22774SOL     OW70154   7.448   0.966   0.442
22774SOL    HW170155   7.480   0.964   0.352
22774SOL    HW270156   7.476   0.882   0.479
22775SOL     OW70157  13.015   0.205   0.259
22775SOL    HW170158  12.936   0.201   0.314
22775SOL    HW270159  13.027   0.299   0.242
22776SOL     OW70160   8.030   8.647  10.096
22776SOL    HW170161   7.981   8.649  10.014
22776SOL    HW270162   8.024   8.557  10.126
22777SOL     OW70163   7.573   9.917  12.763
22777SOL    HW170164   7.500   9.913  12.701
22777SOL    HW270165   7.640   9.860  12.726
22778SOL     OW70166  12.413  10.003   8.493
22778SOL    HW170167  12.319  10.020   8.488
22778SOL    HW270168  12.434   9.960   8.410
22779SOL     OW70169  13.581   7.950  13.669
22779SOL    HW170170  13.532   7.905  13.738
22779SOL    HW270171  13.535   8.033  13.657
22780SOL     OW70172  13.217   0.724   3.010
22780SOL    HW170173  13.163   0.697   3.085
22780SOL    HW270174  13.286   0.778   3.049
22781SOL     OW70175   3.780   7.208   1.173
22781SOL    HW170176   3.806   7.288   1.218
22781SOL    HW270177   3.768   7.144   1.243
22782SOL     OW70178  13.781   5.926  14.240
22782SOL    HW170179  13.802   6.011  14.279
22782SOL    HW270180  13.749   5.874  14.314
22783SOL     OW70181   9.021  13.209  11.783
22783SOL    HW170182   9.028  13.191  11.689
22783SOL    HW270183   8.955  13.278  11.789
22784SOL     OW70184   0.999   0.526   3.331
22784SOL    HW170185   0.927   0.583   3.358
22784SOL    HW270186   1.074   0.555   3.383
22785SOL     OW70187  14.648   0.504   1.078
22785SOL    HW170188  14.651   0.555   1.159
22785SOL    HW270189  14.703   0.428   1.096
22786SOL     OW70190  13.253  14.012   8.308
22786SOL    HW170191  13.268  14.004   8.213
22786SOL    HW270192  13.165  14.050   8.315
22787SOL     OW70193  11.432  10.784   8.557
22787SOL    HW170194  11.432  10.870   8.598
22787SOL    HW270195  11.340  10.760   8.550
22788SOL     OW70196   3.351  13.885  10.083
22788SOL    HW170197   3.420  13.822  10.105
22788SOL    HW270198   3.352  13.947  10.156
22789SOL     OW70199  11.151  13.088  10.047
22789SOL    HW170200  11.194  13.073  10.131
22789SOL    HW270201  11.152  13.183  10.036
22790SOL     OW70202  11.568   4.676   9.893
22790SOL    HW170203  11.553   4.703   9.984
22790SOL    HW270204  11.653   4.632   9.895
22791SOL     OW70205  12.329   0.934   6.790
22791SOL    HW170206  12.246   0.964   6.830
22791SOL    HW270207  12.311   0.933   6.696
22792SOL     OW70208   6.596  11.387   1.910
22792SOL    HW170209   6.621  11.471   1.872
22792SOL    HW270210   6.602  11.401   2.004
22793SOL     OW70211  13.998   7.272   3.087
22793SOL    HW170212  14.043   7.218   3.022
22793SOL    HW270213  14.023   7.362   3.065
22794SOL     OW70214   1.316  14.554  10.151
22794SOL    HW170215   1.291  14.567  10.059
22794SOL    HW270216   1.243  14.507  10.190
22795SOL     OW70217   0.544  10.983   6.578
22795SOL    HW170218   0.597  10.929   6.520
22795SOL    HW270219   0.478  11.021   6.521
22796SOL     OW70220  13.789   1.577   4.271
22796SOL    HW170221  13.712   1.566   4.327
22796SOL    HW270222  13.796   1.495   4.222
22797SOL     OW70223   1.213  10.647  12.782
22797SOL    HW170224   1.195  10.737  12.754
22797SOL    HW270225   1.238  10.601  12.702
22798SOL     OW70226   4.730   3.221   5.605
22798SOL    HW170227   4.765   3.308   5.626
22798SOL    HW270228   4.663   3.237   5.539
22799SOL     OW70229   7.283  11.678   7.480
22799SOL    HW170230   7.321  11.705   7.564
22799SOL    HW270231   7.241  11.594   7.498
22800SOL     OW70232   5.256  12.955  13.761
22800SOL    HW170233   5.311  13.018  13.808
22800SOL    HW270234   5.311  12.922  13.690
22801SOL     OW70235  12.435   9.741   7.886
22801SOL    HW170236  12.398   9.679   7.950
22801SOL    HW270237  12.527   9.748   7.912
22802SOL     OW70238   7.854   3.593   5.595
22802SOL    HW170239   7.783   3.551   5.643
22802SOL    HW270240   7.882   3.665   5.651
22803SOL     OW70241   0.708   8.357   3.653
22803SOL    HW170242   0.786   8.411   3.640
22803SOL    HW270243   0.742   8.268   3.664
22804SOL     OW70244   9.468   7.135   7.925
22804SOL    HW170245   9.440   7.094   7.843
22804SOL    HW270246   9.427   7.222   7.924
22805SOL     OW70247  10.167   0.638   1.241
22805SOL    HW170248  10.123   0.650   1.325
22805SOL    HW270249  10.122   0.698   1.181
22806SOL     OW70250   2.395   4.684  14.565
22806SOL    HW170251   2.389   4.691  14.661
22806SOL    HW270252   2.347   4.604  14.544
22807SOL     OW70253   1.054  10.529  14.303
22807SOL    HW170254   1.042  10.455  14.243
22807SOL    HW270255   1.030  10.606  14.252
22808SOL     OW70256   2.043   4.073   3.246
22808SOL    HW170257   2.108   4.135   3.213
22808SOL    HW270258   1.961   4.101   3.205
22809SOL     OW70259   4.821   4.160   3.763
22809SOL    HW170260   4.867   4.104   3.702
22809SOL    HW270261   4.886   4.181   3.830
22810SOL     OW70262   0.871  13.298   0.998
22810SOL    HW170263   0.917  13.220   0.966
22810SOL    HW270264   0.786  13.295   0.953
22811SOL     OW70265   0.755   5.830   6.766
22811SOL    HW170266   0.848   5.834   6.746
22811SOL    HW270267   0.749   5.770   6.841
22812SOL     OW70268   4.858   9.567   9.470
22812SOL    HW170269   4.846   9.549   9.377
22812SOL    HW270270   4.790   9.515   9.514
22813SOL     OW70271   1.992  12.291   0.593
22813SOL    HW170272   2.014  12.384   0.600
22813SOL    HW270273   2.077  12.246   0.593
22814SOL     OW70274  13.173   4.042  11.936
22814SOL    HW170275  13.117   3.978  11.893
22814SOL    HW270276  13.144   4.126  11.903
22815SOL     OW70277   0.133   9.555  10.211
22815SOL    HW170278   0.064   9.596  10.159
22815SOL    HW270279   0.134   9.464  10.182
22816SOL     OW70280   3.195  10.644   0.640
22816SOL    HW170281   3.168  10.721   0.691
22816SOL    HW270282   3.228  10.582   0.705
22817SOL     OW70283   0.733   4.563  13.254
22817SOL    HW170284   0.689   4.479  13.242
22817SOL    HW270285   0.814   4.540  13.299
22818SOL     OW70286  12.462   7.388   2.645
22818SOL    HW170287  12.521   7.461   2.660
22818SOL    HW270288  12.516   7.310   2.656
22819SOL     OW70289   2.265   5.268  12.647
22819SOL    HW170290   2.235   5.345  12.695
22819SOL    HW270291   2.265   5.295  12.555
22820SOL     OW70292   7.871   4.972   1.985
22820SOL    HW170293   7.811   5.019   2.043
22820SOL    HW270294   7.817   4.945   1.911
22821SOL     OW70295   4.154   6.169  10.938
22821SOL    HW170296   4.103   6.091  10.961
22821SOL    HW270297   4.241   6.151  10.972
22822SOL     OW70298   1.110   2.093   5.843
22822SOL    HW170299   1.068   2.009   5.825
22822SOL    HW270300   1.037   2.153   5.857
22823SOL     OW70301  10.879   1.066   5.903
22823SOL    HW170302  10.822   1.109   5.968
22823SOL    HW270303  10.832   0.987   5.878
22824SOL     OW70304   3.532   0.674   1.589
22824SOL    HW170305   3.484   0.661   1.507
22824SOL    HW270306   3.530   0.769   1.602
22825SOL     OW70307   5.676   9.615  14.435
22825SOL    HW170308   5.723   9.574  14.507
22825SOL    HW270309   5.740   9.674  14.395
22826SOL     OW70310   2.323   1.931   8.384
22826SOL    HW170311   2.353   1.912   8.295
22826SOL    HW270312   2.327   2.027   8.390
22827SOL     OW70313   4.246   1.336   3.348
22827SOL    HW170314   4.283   1.288   3.421
22827SOL    HW270315   4.191   1.403   3.389
22828SOL     OW70316   8.094  13.936   8.614
22828SOL    HW170317   8.182  13.917   8.580
22828SOL    HW270318   8.088  13.883   8.694
22829SOL     OW70319   6.237   2.920   6.828
22829SOL    HW170320   6.270   3.010   6.829
22829SOL    HW270321   6.315   2.867   6.810
22830SOL     OW70322  10.628   5.058   5.750
22830SOL    HW170323  10.628   5.039   5.844
22830SOL    HW270324  10.599   4.977   5.709
22831SOL     OW70325   2.718  13.212  10.067
22831SOL    HW170326   2.758  13.284  10.115
22831SOL    HW270327   2.743  13.133  10.116
22832SOL     OW70328   3.749  10.085   5.222
22832SOL    HW170329   3.840  10.054   5.220
22832SOL    HW270330   3.724  10.092   5.130
22833SOL     OW70331   7.916  12.739   3.645
22833SOL    HW170332   7.885  12.764   3.732
22833SOL    HW270333   7.862  12.790   3.585
22834SOL     OW70334  14.407   8.426   3.175
22834SOL    HW170335  14.490   8.438   3.129
22834SOL    HW270336  14.379   8.337   3.153
22835SOL     OW70337   0.252   1.682   4.286
22835SOL    HW170338   0.264   1.752   4.351
22835SOL    HW270339   0.341   1.664   4.254
22836SOL     OW70340   0.232   6.229   4.949
22836SOL    HW170341   0.250   6.145   4.990
22836SOL    HW270342   0.218   6.209   4.857
22837SOL     OW70343  10.155  11.235  13.103
22837SOL    HW170344  10.205  11.181  13.165
22837SOL    HW270345  10.218  11.253  13.033
22838SOL     OW70346  10.391  10.316   2.826
22838SOL    HW170347  10.302  10.348   2.811
22838SOL    HW270348  10.442  10.355   2.756
22839SOL     OW70349  14.092  12.812   8.304
22839SOL    HW170350  14.137  12.896   8.310
22839SOL    HW270351  14.147  12.752   8.354
22840SOL     OW70352   4.063   8.636  13.145
22840SOL    HW170353   3.999   8.565  13.133
22840SOL    HW270354   4.092   8.626  13.236
22841SOL     OW70355   0.431  10.331   7.745
22841SOL    HW170356   0.457  10.273   7.673
22841SOL    HW270357   0.509  10.338   7.800
22842SOL     OW70358   1.091   8.957   9.436
22842SOL    HW170359   1.044   8.908   9.503
22842SOL    HW270360   1.052   8.928   9.354
22843SOL     OW70361  12.461  10.891  10.566
22843SOL    HW170362  12.462  10.883  10.661
22843SOL    HW270363  12.438  10.804  10.534
22844SOL     OW70364   3.997   4.006   6.846
22844SOL    HW170365   3.958   4.089   6.873
22844SOL    HW270366   3.958   3.987   6.761
22845SOL     OW70367  10.662   1.380   2.404
22845SOL    HW170368  10.582   1.410   2.362
22845SOL    HW270369  10.715   1.344   2.332
22846SOL     OW70370   4.078   9.350   4.601
22846SOL    HW170371   4.103   9.381   4.515
22846SOL    HW270372   4.062   9.256   4.590
22847SOL     OW70373   9.073  11.870  10.999
22847SOL    HW170374   8.978  11.879  10.995
22847SOL    HW270375   9.088  11.777  11.014
22848SOL     OW70376  10.969  13.483   4.515
22848SOL    HW170377  10.929  13.415   4.570
22848SOL    HW270378  10.905  13.554   4.514
22849SOL     OW70379   8.081  10.769  13.147
22849SOL    HW170380   8.142  10.797  13.078
22849SOL    HW270381   8.124  10.693  13.187
22850SOL     OW70382  10.961   7.511   4.694
22850SOL    HW170383  10.866   7.527   4.692
22850SOL    HW270384  10.997   7.590   4.733
22851SOL     OW70385   6.318   7.727   2.499
22851SOL    HW170386   6.230   7.691   2.494
22851SOL    HW270387   6.367   7.682   2.430
22852SOL     OW70388   6.802   7.281   6.808
22852SOL    HW170389   6.748   7.353   6.777
22852SOL    HW270390   6.863   7.321   6.871
22853SOL     OW70391   8.787   4.127  13.428
22853SOL    HW170392   8.839   4.059  13.385
22853SOL    HW270393   8.730   4.079  13.489
22854SOL     OW70394   8.082   0.510   7.359
22854SOL    HW170395   7.998   0.549   7.380
22854SOL    HW270396   8.129   0.508   7.443
22855SOL     OW70397  12.283   1.148   3.707
22855SOL    HW170398  12.323   1.066   3.734
22855SOL    HW270399  12.201   1.153   3.756
22856SOL     OW70400  12.974   6.134   4.815
22856SOL    HW170401  13.046   6.194   4.833
22856SOL    HW270402  12.968   6.079   4.893
22857SOL     OW70403   2.378  11.078  10.834
22857SOL    HW170404   2.449  11.080  10.769
22857SOL    HW270405   2.394  10.997  10.883
22858SOL     OW70406  11.401   4.400   8.483
22858SOL    HW170407  11.483   4.370   8.444
22858SOL    HW270408  11.427   4.436   8.568
22859SOL     OW70409  11.137   8.255   9.939
22859SOL    HW170410  11.177   8.330   9.895
22859SOL    HW270411  11.181   8.249  10.023
22860SOL     OW70412   7.832  10.980  14.183
22860SOL    HW170413   7.793  10.914  14.126
22860SOL    HW270414   7.883  11.036  14.124
22861SOL     OW70415  11.126  12.097   0.996
22861SOL    HW170416  11.140  12.108   0.902
22861SOL    HW270417  11.076  12.175   1.022
22862SOL     OW70418  11.862  13.127  14.794
22862SOL    HW170419  11.931  13.093  14.736
22862SOL    HW270420  11.818  13.049  14.827
22863SOL     OW70421  13.514   9.361  13.295
22863SOL    HW170422  13.587   9.324  13.344
22863SOL    HW270423  13.549   9.441  13.256
22864SOL     OW70424  13.317   4.235   7.565
22864SOL    HW170425  13.306   4.260   7.473
22864SOL    HW270426  13.248   4.170   7.580
22865SOL     OW70427   2.810   9.693   0.475
22865SOL    HW170428   2.801   9.649   0.560
22865SOL    HW270429   2.720   9.703   0.444
22866SOL     OW70430  13.696   6.691   6.581
22866SOL    HW170431  13.622   6.657   6.530
22866SOL    HW270432  13.771   6.639   6.550
22867SOL     OW70433  10.875   6.157   9.429
22867SOL    HW170434  10.915   6.221   9.489
22867SOL    HW270435  10.949   6.107   9.395
22868SOL     OW70436   6.302   8.512   2.183
22868SOL    HW170437   6.320   8.596   2.226
22868SOL    HW270438   6.318   8.528   2.090
22869SOL     OW70439  11.449   8.276   5.636
22869SOL    HW170440  11.456   8.181   5.629
22869SOL    HW270441  11.536   8.308   5.613
22870SOL     OW70442   3.217   1.540   8.975
22870SOL    HW170443   3.150   1.541   8.906
22870SOL    HW270444   3.175   1.495   9.048
22871SOL     OW70445  14.614  11.973   5.007
22871SOL    HW170446  14.663  11.896   4.978
22871SOL    HW270447  14.624  11.972   5.102
22872SOL     OW70448   0.161  13.844  13.212
22872SOL    HW170449   0.081  13.890  13.187
22872SOL    HW270450   0.132  13.767  13.260
22873SOL     OW70451   1.780   6.786   3.524
22873SOL    HW170452   1.779   6.880   3.510
22873SOL    HW270453   1.705   6.769   3.582
22874SOL     OW70454   0.779  11.352  13.672
22874SOL    HW170455   0.742  11.358  13.584
22874SOL    HW270456   0.710  11.386  13.729
22875SOL     OW70457   4.817  12.597   6.154
22875SOL    HW170458   4.758  12.605   6.229
22875SOL    HW270459   4.759  12.578   6.080
22876SOL     OW70460   0.554   2.560  11.574
22876SOL    HW170461   0.459   2.570  11.577
22876SOL    HW270462   0.569   2.466  11.581
22877SOL     OW70463  10.313   9.907  12.113
22877SOL    HW170464  10.330   9.823  12.071
22877SOL    HW270465  10.297   9.968  12.040
22878SOL     OW70466   9.396   2.359   5.089
22878SOL    HW170467   9.447   2.373   5.169
22878SOL    HW270468   9.442   2.410   5.022
22879SOL     OW70469   6.098   3.057   4.426
22879SOL    HW170470   6.192   3.053   4.439
22879SOL    HW270471   6.076   3.150   4.429
22880SOL     OW70472   0.875   2.887   2.548
22880SOL    HW170473   0.879   2.853   2.459
22880SOL    HW270474   0.781   2.888   2.569
22881SOL     OW70475   1.690   9.332   0.032
22881SOL    HW170476   1.632   9.406   0.050
22881SOL    HW270477   1.687   9.278   0.111
22882SOL     OW70478  12.506   6.910   5.344
22882SOL    HW170479  12.596   6.923   5.372
22882SOL    HW270480  12.513   6.857   5.264
22883SOL     OW70481   2.752   4.689   2.319
22883SOL    HW170482   2.688   4.725   2.258
22883SOL    HW270483   2.759   4.756   2.388
22884SOL     OW70484   7.039   0.823   0.970
22884SOL    HW170485   7.044   0.900   1.027
22884SOL    HW270486   6.949   0.824   0.936
22885SOL     OW70487  14.059   7.280   4.032
22885SOL    HW170488  14.025   7.369   4.030
22885SOL    HW270489  14.150   7.287   4.003
22886SOL     OW70490  10.561   2.605   7.695
22886SOL    HW170491  10.631   2.670   7.707
22886SOL    HW270492  10.517   2.602   7.780
22887SOL     OW70493  12.721   9.404   5.483
22887SOL    HW170494  12.705   9.488   5.440
22887SOL    HW270495  12.634   9.369   5.501
22888SOL     OW70496   4.346   7.593   6.404
22888SOL    HW170497   4.262   7.611   6.363
22888SOL    HW270498   4.404   7.663   6.373
22889SOL     OW70499   5.704  10.572   9.319
22889SOL    HW170500   5.631  10.518   9.349
22889SOL    HW270501   5.735  10.528   9.240
22890SOL     OW70502  11.583   9.486   4.010
22890SOL    HW170503  11.491   9.467   4.027
22890SOL    HW270504  11.581   9.558   3.947
22891SOL     OW70505   0.539   5.824   1.436
22891SOL    HW170506   0.596   5.748   1.444
22891SOL    HW270507   0.452   5.792   1.460
22892SOL     OW70508   1.369   7.175   0.722
22892SOL    HW170509   1.455   7.187   0.762
22892SOL    HW270510   1.357   7.252   0.667
22893SOL     OW70511   1.790  11.929   6.526
22893SOL    HW170512   1.858  11.985   6.564
22893SOL    HW270513   1.733  11.907   6.599
22894SOL     OW70514  13.005   6.667   9.718
22894SOL    HW170515  13.096   6.649   9.696
22894SOL    HW270516  12.955   6.605   9.666
22895SOL     OW70517  14.529  13.899   8.193
22895SOL    HW170518  14.554  13.988   8.169
22895SOL    HW270519  14.600  13.868   8.250
22896SOL     OW70520   8.525   4.757  13.863
22896SOL    HW170521   8.620   4.742  13.863
22896SOL    HW270522   8.489   4.684  13.912
22897SOL     OW70523   5.484   9.869  12.520
22897SOL    HW170524   5.412   9.927  12.546
22897SOL    HW270525   5.460   9.840  12.432
22898SOL     OW70526   0.052  12.156  10.049
22898SOL    HW170527   0.092  12.089  10.103
22898SOL    HW270528   0.061  12.124   9.959
22899SOL     OW70529  13.328   9.164  10.831
22899SOL    HW170530  13.325   9.249  10.874
22899SOL    HW270531  13.333   9.183  10.738
22900SOL     OW70532   6.413   6.454  11.269
22900SOL    HW170533   6.463   6.388  11.220
22900SOL    HW270534   6.321   6.435  11.248
22901SOL     OW70535   2.492  10.515   0.482
22901SOL    HW170536   2.464  10.465   0.558
22901SOL    HW270537   2.530  10.595   0.519
22902SOL     OW70538   7.646   5.848   5.319
22902SOL    HW170539   7.694   5.866   5.238
22902SOL    HW270540   7.560   5.888   5.304
22903SOL     OW70541   4.689  14.420   7.881
22903SOL    HW170542   4.736  14.398   7.962
22903SOL    HW270543   4.597  14.410   7.903
22904SOL     OW70544  13.327  14.353   6.118
22904SOL    HW170545  13.387  14.426   6.135
22904SOL    HW270546  13.336  14.335   6.025
22905SOL     OW70547   2.381  11.817   1.473
22905SOL    HW170548   2.460  11.858   1.437
22905SOL    HW270549   2.329  11.890   1.506
22906SOL     OW70550   8.927  10.338  14.076
22906SOL    HW170551   8.962  10.427  14.077
22906SOL    HW270552   8.952  10.302  14.161
22907SOL     OW70553   7.592   7.370   2.293
22907SOL    HW170554   7.537   7.390   2.369
22907SOL    HW270555   7.553   7.418   2.221
22908SOL     OW70556   2.726   7.513   5.682
22908SOL    HW170557   2.809   7.535   5.640
22908SOL    HW270558   2.718   7.418   5.669
22909SOL     OW70559   6.027   6.367   6.375
22909SOL    HW170560   5.962   6.386   6.442
22909SOL    HW270561   6.054   6.453   6.343
22910SOL     OW70562   7.453   9.617  11.185
22910SOL    HW170563   7.485   9.596  11.097
22910SOL    HW270564   7.388   9.686  11.170
22911SOL     OW70565   3.678   3.749   2.088
22911SOL    HW170566   3.711   3.670   2.047
22911SOL    HW270567   3.698   3.738   2.181
22912SOL     OW70568  10.951  11.047   3.997
22912SOL    HW170569  11.028  11.103   3.997
22912SOL    HW270570  10.985  10.959   4.013
22913SOL     OW70571  12.901   9.753   0.138
22913SOL    HW170572  12.904   9.658   0.151
22913SOL    HW270573  12.909   9.764   0.043
22914SOL     OW70574  11.470   5.564  11.241
22914SOL    HW170575  11.467   5.469  11.243
22914SOL    HW270576  11.427   5.587  11.158
22915SOL     OW70577   2.264   9.114   1.749
22915SOL    HW170578   2.340   9.160   1.782
22915SOL    HW270579   2.232   9.168   1.677
22916SOL     OW70580   5.864   0.654   0.214
22916SOL    HW170581   5.814   0.730   0.246
22916SOL    HW270582   5.818   0.579   0.251
22917SOL     OW70583   1.445   2.514   5.538
22917SOL    HW170584   1.496   2.484   5.463
22917SOL    HW270585   1.510   2.554   5.596
22918SOL     OW70586  11.575  11.627   5.315
22918SOL    HW170587  11.536  11.713   5.297
22918SOL    HW270588  11.668  11.645   5.327
22919SOL     OW70589   0.840   1.455   3.611
22919SOL    HW170590   0.842   1.550   3.617
22919SOL    HW270591   0.922   1.426   3.650
22920SOL     OW70592   2.423  14.663  14.104
22920SOL    HW170593   2.432  14.755  14.131
22920SOL    HW270594   2.333  14.656  14.073
22921SOL     OW70595  10.438   0.542  11.741
22921SOL    HW170596  10.516   0.571  11.788
22921SOL    HW270597  10.410   0.463  11.788
22922SOL     OW70598   4.143  13.833   5.835
22922SOL    HW170599   4.160  13.743   5.805
22922SOL    HW270600   4.089  13.822   5.913
22923SOL     OW70601   9.712   9.080   3.760
22923SOL    HW170602   9.744   9.170   3.747
22923SOL    HW270603   9.695   9.074   3.853
22924SOL     OW70604  13.071   3.388   2.370
22924SOL    HW170605  12.993   3.367   2.319
22924SOL    HW270606  13.069   3.327   2.444
22925SOL     OW70607   2.173   3.515  14.206
22925SOL    HW170608   2.174   3.423  14.177
22925SOL    HW270609   2.129   3.512  14.291
22926SOL     OW70610  12.346  14.190   8.361
22926SOL    HW170611  12.280  14.240   8.410
22926SOL    HW270612  12.306  14.104   8.350
22927SOL     OW70613   5.211   0.029  12.421
22927SOL    HW170614   5.291   0.053  12.376
22927SOL    HW270615   5.170   0.112  12.445
22928SOL     OW70616   0.506  14.535  14.093
22928SOL    HW170617   0.491  14.626  14.068
22928SOL    HW270618   0.514  14.488  14.010
22929SOL     OW70619   1.461  12.442   1.468
22929SOL    HW170620   1.473  12.526   1.424
22929SOL    HW270621   1.411  12.390   1.404
22930SOL     OW70622   4.477   4.429  14.209
22930SOL    HW170623   4.381   4.431  14.202
22930SOL    HW270624   4.508   4.443  14.120
22931SOL     OW70625   6.506  14.623   8.879
22931SOL    HW170626   6.448  14.699   8.879
22931SOL    HW270627   6.594  14.660   8.874
22932SOL     OW70628   7.808  14.105  11.915
22932SOL    HW170629   7.715  14.125  11.924
22932SOL    HW270630   7.814  14.052  11.835
22933SOL     OW70631   8.293   6.582  13.567
22933SOL    HW170632   8.313   6.519  13.636
22933SOL    HW270633   8.378   6.620  13.544
22934SOL     OW70634  11.391   6.169   5.049
22934SOL    HW170635  11.383   6.160   5.144
22934SOL    HW270636  11.405   6.263   5.035
22935SOL     OW70637  11.873   8.757  11.786
22935SOL    HW170638  11.891   8.762  11.880
22935SOL    HW270639  11.851   8.847  11.760
22936SOL     OW70640  11.626   6.709   9.622
22936SOL    HW170641  11.615   6.645   9.693
22936SOL    HW270642  11.696   6.766   9.653
22937SOL     OW70643   7.737   0.126   2.999
22937SOL    HW170644   7.719   0.190   3.068
22937SOL    HW270645   7.808   0.072   3.034
22938SOL     OW70646   8.916   8.542   4.083
22938SOL    HW170647   8.911   8.638   4.083
22938SOL    HW270648   8.970   8.521   4.007
22939SOL     OW70649   0.786   0.844   2.511
22939SOL    HW170650   0.695   0.816   2.521
22939SOL    HW270651   0.827   0.822   2.594
22940SOL     OW70652  12.530   1.089   0.732
22940SOL    HW170653  12.575   1.006   0.719
22940SOL    HW270654  12.551   1.140   0.653
22941SOL     OW70655   0.614  11.983   7.933
22941SOL    HW170656   0.607  11.904   7.987
22941SOL    HW270657   0.705  12.009   7.941
22942SOL     OW70658   4.705  10.226   3.387
22942SOL    HW170659   4.758  10.146   3.395
22942SOL    HW270660   4.688  10.234   3.294
22943SOL     OW70661  12.269   0.436   7.773
22943SOL    HW170662  12.356   0.475   7.775
22943SOL    HW270663  12.210   0.509   7.792
22944SOL     OW70664   7.842  11.579  11.420
22944SOL    HW170665   7.798  11.614  11.343
22944SOL    HW270666   7.775  11.525  11.464
22945SOL     OW70667  12.081   1.998   7.806
22945SOL    HW170668  12.067   1.923   7.749
22945SOL    HW270669  12.166   2.033   7.779
22946SOL     OW70670   9.423   7.080   0.234
22946SOL    HW170671   9.339   7.124   0.216
22946SOL    HW270672   9.468   7.138   0.295
22947SOL     OW70673   2.178   8.227   5.796
22947SOL    HW170674   2.193   8.276   5.877
22947SOL    HW270675   2.088   8.194   5.804
22948SOL     OW70676  11.024   1.449   3.117
22948SOL    HW170677  11.003   1.356   3.109
22948SOL    HW270678  10.987   1.489   3.039
22949SOL     OW70679  10.401   4.695  12.945
22949SOL    HW170680  10.486   4.653  12.960
22949SOL    HW270681  10.417   4.788  12.963
22950SOL     OW70682  10.806  13.433   7.025
22950SOL    HW170683  10.809  13.516   6.978
22950SOL    HW270684  10.889  13.390   7.003
22951SOL     OW70685   0.990  14.326  13.340
22951SOL    HW170686   0.990  14.231  13.346
22951SOL    HW270687   1.052  14.354  13.408
22952SOL     OW70688   4.039   6.751   9.236
22952SOL    HW170689   4.067   6.808   9.165
22952SOL    HW270690   4.100   6.768   9.307
22953SOL     OW70691   7.813   5.829   2.870
22953SOL    HW170692   7.845   5.740   2.884
22953SOL    HW270693   7.833   5.875   2.951
22954SOL     OW70694   8.539  10.965  13.561
22954SOL    HW170695   8.571  10.989  13.649
22954SOL    HW270696   8.517  10.872  13.569
22955SOL     OW70697  12.847  11.448   3.976
22955SOL    HW170698  12.845  11.458   3.881
22955SOL    HW270699  12.819  11.358   3.992
22956SOL     OW70700   7.144   0.042   7.134
22956SOL    HW170701   7.079   0.097   7.179
22956SOL    HW270702   7.130  14.833   7.169
22957SOL     OW70703   9.184   9.216   5.160
22957SOL    HW170704   9.116   9.157   5.192
22957SOL    HW270705   9.213   9.264   5.238
22958SOL     OW70706  11.729   8.546   7.127
22958SOL    HW170707  11.710   8.608   7.196
22958SOL    HW270708  11.791   8.484   7.167
22959SOL     OW70709   5.112   4.222   9.456
22959SOL    HW170710   5.118   4.133   9.420
22959SOL    HW270711   5.018   4.238   9.465
22960SOL     OW70712  10.001   3.672   5.777
22960SOL    HW170713  10.009   3.768   5.773
22960SOL    HW270714   9.918   3.657   5.823
22961SOL     OW70715  13.307   2.024   6.830
22961SOL    HW170716  13.227   2.074   6.850
22961SOL    HW270717  13.279   1.933   6.831
22962SOL     OW70718   8.973   3.588   7.498
22962SOL    HW170719   9.007   3.676   7.482
22962SOL    HW270720   8.908   3.574   7.429
22963SOL     OW70721   2.380   7.126  13.006
22963SOL    HW170722   2.454   7.171  13.047
22963SOL    HW270723   2.374   7.166  12.919
22964SOL     OW70724   5.343   6.146   4.546
22964SOL    HW170725   5.298   6.061   4.545
22964SOL    HW270726   5.430   6.128   4.511
22965SOL     OW70727  11.473   8.835  12.000
22965SOL    HW170728  11.507   8.918  12.034
22965SOL    HW270729  11.423   8.797  12.072
22966SOL     OW70730  12.041   5.976  14.116
22966SOL    HW170731  12.132   5.976  14.086
22966SOL    HW270732  12.047   5.991  14.210
22967SOL     OW70733   1.882   4.332   8.903
22967SOL    HW170734   1.963   4.284   8.917
22967SOL    HW270735   1.862   4.319   8.810
22968SOL     OW70736   1.518   3.647   3.975
22968SOL    HW170737   1.613   3.641   3.984
22968SOL    HW270738   1.501   3.614   3.886
22969SOL     OW70739   7.179  10.816  12.639
22969SOL    HW170740   7.215  10.902  12.661
22969SOL    HW270741   7.225  10.791  12.559
22970SOL     OW70742  11.152   7.133  12.775
22970SOL    HW170743  11.161   7.039  12.790
22970SOL    HW270744  11.066   7.143  12.735
22971SOL     OW70745  13.780   5.256   5.500
22971SOL    HW170746  13.743   5.300   5.424
22971SOL    HW270747  13.769   5.319   5.572
22972SOL     OW70748   9.731   6.153   7.337
22972SOL    HW170749   9.687   6.103   7.406
22972SOL    HW270750   9.795   6.206   7.383
22973SOL     OW70751   3.019   9.270  13.845
22973SOL    HW170752   3.038   9.215  13.769
22973SOL    HW270753   3.053   9.220  13.919
22974SOL     OW70754   1.972   1.074   8.065
22974SOL    HW170755   1.945   1.010   8.131
22974SOL    HW270756   1.913   1.148   8.077
22975SOL     OW70757   6.188  10.571   7.149
22975SOL    HW170758   6.156  10.636   7.086
22975SOL    HW270759   6.168  10.487   7.110
22976SOL     OW70760   7.259   3.305  14.357
22976SOL    HW170761   7.242   3.335  14.446
22976SOL    HW270762   7.241   3.210  14.360
22977SOL     OW70763   6.202   7.288  12.757
22977SOL    HW170764   6.278   7.246  12.717
22977SOL    HW270765   6.206   7.379  12.728
22978SOL     OW70766  10.446   6.479  12.920
22978SOL    HW170767  10.496   6.506  12.997
22978SOL    HW270768  10.509   6.484  12.847
22979SOL     OW70769   4.307   5.396   0.574
22979SOL    HW170770   4.371   5.342   0.527
22979SOL    HW270771   4.358   5.440   0.642
22980SOL     OW70772   1.266  11.611   0.203
22980SOL    HW170773   1.301  11.696   0.228
22980SOL    HW270774   1.256  11.615   0.108
22981SOL     OW70775   6.847  10.367  13.819
22981SOL    HW170776   6.861  10.385  13.726
22981SOL    HW270777   6.930  10.389  13.861
22982SOL     OW70778   9.461   9.900   5.199
22982SOL    HW170779   9.543   9.900   5.150
22982SOL    HW270780   9.401   9.846   5.147
22983SOL     OW70781   0.774   3.295  10.665
22983SOL    HW170782   0.783   3.296  10.760
22983SOL    HW270783   0.684   3.266  10.650
22984SOL     OW70784  14.150   5.836   2.072
22984SOL    HW170785  14.107   5.767   2.122
22984SOL    HW270786  14.224   5.792   2.029
22985SOL     OW70787   0.143  14.548  13.807
22985SOL    HW170788   0.174  14.569  13.895
22985SOL    HW270789   0.186  14.611  13.750
22986SOL     OW70790   2.750   9.706  10.934
22986SOL    HW170791   2.845   9.702  10.922
22986SOL    HW270792   2.721   9.772  10.871
22987SOL     OW70793   8.825   8.185  10.214
22987SOL    HW170794   8.903   8.167  10.163
22987SOL    HW270795   8.829   8.279  10.232
22988SOL     OW70796  10.931   8.188   8.737
22988SOL    HW170797  10.851   8.240   8.723
22988SOL    HW270798  11.002   8.252   8.734
22989SOL     OW70799  14.406   7.872   7.373
22989SOL    HW170800  14.372   7.813   7.440
22989SOL    HW270801  14.362   7.956   7.389
22990SOL     OW70802   4.511   0.053   3.420
22990SOL    HW170803   4.529   0.006   3.501
22990SOL    HW270804   4.438   0.005   3.380
22991SOL     OW70805  10.523  14.808   8.269
22991SOL    HW170806  10.543   0.002   8.329
22991SOL    HW270807  10.574  14.735   8.303
22992SOL     OW70808   2.874   9.404   4.501
22992SOL    HW170809   2.819   9.481   4.485
22992SOL    HW270810   2.859   9.382   4.593
22993SOL     OW70811   9.995   9.249   6.554
22993SOL    HW170812   9.983   9.343   6.538
22993SOL    HW270813  10.034   9.245   6.642
22994SOL     OW70814   3.392   3.269  10.010
22994SOL    HW170815   3.375   3.248  10.102
22994SOL    HW270816   3.481   3.237   9.995
22995SOL     OW70817   0.664  10.800   2.760
22995SOL    HW170818   0.636  10.891   2.769
22995SOL    HW270819   0.673  10.787   2.666
22996SOL     OW70820  11.234   0.335   2.373
22996SOL    HW170821  11.288   0.264   2.339
22996SOL    HW270822  11.285   0.414   2.353
22997SOL     OW70823   0.318   7.210   1.554
22997SOL    HW170824   0.302   7.152   1.629
22997SOL    HW270825   0.318   7.298   1.591
22998SOL     OW70826   1.102   5.768   4.417
22998SOL    HW170827   1.175   5.767   4.354
22998SOL    HW270828   1.081   5.861   4.429
22999SOL     OW70829   3.618   9.338   7.767
22999SOL    HW170830   3.571   9.366   7.688
22999SOL    HW270831   3.674   9.266   7.738
23000SOL     OW70832  10.711  11.191  12.458
23000SOL    HW170833  10.715  11.206  12.364
23000SOL    HW270834  10.635  11.242  12.487
23001SOL     OW70835   8.772   8.571   0.447
23001SOL    HW170836   8.775   8.524   0.531
23001SOL    HW270837   8.680   8.568   0.421
23002SOL     OW70838   2.165   9.365   7.209
23002SOL    HW170839   2.119   9.395   7.131
23002SOL    HW270840   2.255   9.397   7.198
23003SOL     OW70841  14.506  12.494   4.382
23003SOL    HW170842  14.514  12.573   4.435
23003SOL    HW270843  14.570  12.505   4.312
23004SOL     OW70844   0.479   3.576   1.926
23004SOL    HW170845   0.392   3.574   1.886
23004SOL    HW270846   0.534   3.620   1.860
23005SOL     OW70847  12.089   8.319   5.261
23005SOL    HW170848  12.007   8.367   5.248
23005SOL    HW270849  12.068   8.228   5.240
23006SOL     OW70850   4.965   7.196   3.944
23006SOL    HW170851   4.917   7.278   3.951
23006SOL    HW270852   4.929   7.152   3.867
23007SOL     OW70853   6.924  14.051   6.578
23007SOL    HW170854   6.907  13.972   6.630
23007SOL    HW270855   6.978  14.105   6.636
23008SOL     OW70856  13.874   1.132   9.410
23008SOL    HW170857  13.811   1.189   9.454
23008SOL    HW270858  13.821   1.081   9.349
23009SOL     OW70859  12.440  14.050   4.283
23009SOL    HW170860  12.420  14.141   4.306
23009SOL    HW270861  12.536  14.046   4.285
23010SOL     OW70862   2.883   6.710  10.036
23010SOL    HW170863   2.912   6.701   9.945
23010SOL    HW270864   2.788   6.717  10.031
23011SOL     OW70865  13.169  11.170   0.225
23011SOL    HW170866  13.161  11.110   0.150
23011SOL    HW270867  13.079  11.185   0.253
23012SOL     OW70868   4.586   0.247   4.711
23012SOL    HW170869   4.613   0.338   4.698
23012SOL    HW270870   4.491   0.251   4.723
23013SOL     OW70871   7.356   9.842   8.691
23013SOL    HW170872   7.397   9.782   8.630
23013SOL    HW270873   7.417   9.915   8.698
23014SOL     OW70874   2.044   9.162   3.851
23014SOL    HW170875   1.968   9.217   3.829
23014SOL    HW270876   2.084   9.143   3.766
23015SOL     OW70877   9.324   4.178  12.507
23015SOL    HW170878   9.276   4.163  12.589
23015SOL    HW270879   9.354   4.268  12.514
23016SOL     OW70880   2.707  12.611  11.647
23016SOL    HW170881   2.689  12.654  11.730
23016SOL    HW270882   2.797  12.634  11.626
23017SOL     OW70883  13.513  11.166   7.414
23017SOL    HW170884  13.584  11.106   7.435
23017SOL    HW270885  13.556  11.251   7.403
23018SOL     OW70886  12.000  13.374   9.778
23018SOL    HW170887  11.913  13.413   9.775
23018SOL    HW270888  12.056  13.443   9.814
23019SOL     OW70889  12.954   8.981   0.837
23019SOL    HW170890  12.868   9.024   0.829
23019SOL    HW270891  13.009   9.045   0.880
23020SOL     OW70892   1.657  13.577  11.385
23020SOL    HW170893   1.712  13.533  11.450
23020SOL    HW270894   1.600  13.508  11.351
23021SOL     OW70895   2.427  12.093  13.216
23021SOL    HW170896   2.478  12.162  13.257
23021SOL    HW270897   2.345  12.135  13.190
23022SOL     OW70898  11.276   0.369   5.347
23022SOL    HW170899  11.350   0.317   5.380
23022SOL    HW270900  11.209   0.359   5.415
23023SOL     OW70901  11.262  14.253   5.834
23023SOL    HW170902  11.271  14.275   5.926
23023SOL    HW270903  11.264  14.157   5.832
23024SOL     OW70904   2.635   0.304   2.447
23024SOL    HW170905   2.564   0.352   2.404
23024SOL    HW270906   2.681   0.370   2.499
23025SOL     OW70907   7.833  12.276  12.948
23025SOL    HW170908   7.899  12.229  12.897
23025SOL    HW270909   7.762  12.294  12.885
23026SOL     OW70910  13.475   7.487   6.924
23026SOL    HW170911  13.478   7.399   6.962
23026SOL    HW270912  13.567   7.513   6.918
23027SOL     OW70913  11.322   5.138   6.732
23027SOL    HW170914  11.249   5.160   6.673
23027SOL    HW270915  11.400   5.167   6.685
23028SOL     OW70916   0.922   3.978  10.638
23028SOL    HW170917   0.964   3.893  10.623
23028SOL    HW270918   0.933   4.025  10.556
23029SOL     OW70919   9.446   7.729   8.448
23029SOL    HW170920   9.420   7.785   8.521
23029SOL    HW270921   9.421   7.780   8.370
23030SOL     OW70922   9.671   7.501  14.789
23030SOL    HW170923   9.713   7.447  14.856
23030SOL    HW270924   9.612   7.559  14.837
23031SOL     OW70925  12.369   2.993  12.591
23031SOL    HW170926  12.323   2.911  12.571
23031SOL    HW270927  12.300   3.058  12.600
23032SOL     OW70928   3.560  12.698   2.130
23032SOL    HW170929   3.574  12.626   2.192
23032SOL    HW270930   3.502  12.758   2.177
23033SOL     OW70931   1.617  10.605   5.866
23033SOL    HW170932   1.683  10.660   5.823
23033SOL    HW270933   1.590  10.543   5.798
23034SOL     OW70934   0.286  10.006   5.816
23034SOL    HW170935   0.209  10.059   5.837
23034SOL    HW270936   0.361  10.065   5.831
23035SOL     OW70937   1.787   1.559   5.547
23035SOL    HW170938   1.771   1.495   5.617
23035SOL    HW270939   1.707   1.557   5.494
23036SOL     OW70940   6.482  10.026   2.439
23036SOL    HW170941   6.414  10.003   2.376
23036SOL    HW270942   6.521   9.942   2.463
23037SOL     OW70943  14.654  11.767   6.620
23037SOL    HW170944  14.591  11.702   6.589
23037SOL    HW270945  14.604  11.849   6.623
23038SOL     OW70946   7.672   4.862   8.144
23038SOL    HW170947   7.678   4.932   8.209
23038SOL    HW270948   7.728   4.792   8.178
23039SOL     OW70949   5.188   4.677  13.905
23039SOL    HW170950   5.157   4.641  13.822
23039SOL    HW270951   5.109   4.707  13.950
23040SOL     OW70952   1.146  10.925   7.400
23040SOL    HW170953   1.114  10.996   7.344
23040SOL    HW270954   1.203  10.969   7.464
23041SOL     OW70955  14.430   5.236  11.414
23041SOL    HW170956  14.428   5.234  11.318
23041SOL    HW270957  14.435   5.144  11.439
23042SOL     OW70958   4.756   2.877  14.665
23042SOL    HW170959   4.763   2.804  14.726
23042SOL    HW270960   4.846   2.891  14.634
23043SOL     OW70961   8.866   0.789   3.274
23043SOL    HW170962   8.930   0.755   3.211
23043SOL    HW270963   8.880   0.883   3.274
23044SOL     OW70964  12.956   9.802   0.768
23044SOL    HW170965  13.016   9.816   0.694
23044SOL    HW270966  12.908   9.722   0.745
23045SOL     OW70967   2.922   5.140   6.552
23045SOL    HW170968   2.872   5.065   6.585
23045SOL    HW270969   2.859   5.212   6.551
23046SOL     OW70970  14.021   2.928   4.884
23046SOL    HW170971  14.111   2.950   4.859
23046SOL    HW270972  14.030   2.863   4.954
23047SOL     OW70973   0.238   7.825   8.217
23047SOL    HW170974   0.236   7.877   8.137
23047SOL    HW270975   0.329   7.798   8.226
23048SOL     OW70976   5.125   0.227   7.627
23048SOL    HW170977   5.086   0.149   7.666
23048SOL    HW270978   5.050   0.277   7.594
23049SOL     OW70979   3.902   4.599  11.392
23049SOL    HW170980   3.876   4.597  11.299
23049SOL    HW270981   3.996   4.583  11.390
23050SOL     OW70982   0.305  12.682   0.638
23050SOL    HW170983   0.295  12.726   0.553
23050SOL    HW270984   0.245  12.608   0.633
23051SOL     OW70985  12.991   2.468  13.128
23051SOL    HW170986  12.965   2.536  13.066
23051SOL    HW270987  13.021   2.516  13.205
23052SOL     OW70988   0.890  11.830   3.589
23052SOL    HW170989   0.834  11.809   3.514
23052SOL    HW270990   0.946  11.901   3.559
23053SOL     OW70991  14.736   3.163   7.981
23053SOL    HW170992  14.804   3.226   7.960
23053SOL    HW270993  14.782   3.080   7.991
23054SOL     OW70994   3.266   9.686  14.355
23054SOL    HW170995   3.249   9.599  14.319
23054SOL    HW270996   3.360   9.699  14.344
23055SOL     OW70997  11.273  13.712   5.946
23055SOL    HW170998  11.361  13.715   5.909
23055SOL    HW270999  11.217  13.686   5.872
23056SOL     OW71000  13.654   4.742  11.538
23056SOL    HW171001  13.695   4.662  11.506
23056SOL    HW271002  13.728   4.799  11.559
23057SOL     OW71003   2.715  10.154  14.625
23057SOL    HW171004   2.684  10.098  14.555
23057SOL    HW271005   2.694  10.243  14.596
23058SOL     OW71006   3.829   5.777   7.560
23058SOL    HW171007   3.904   5.771   7.619
23058SOL    HW271008   3.817   5.871   7.546
23059SOL     OW71009   0.191   5.393   3.380
23059SOL    HW171010   0.258   5.453   3.414
23059SOL    HW271011   0.136   5.447   3.323
23060SOL     OW71012   9.751   3.541  10.359
23060SOL    HW171013   9.666   3.582  10.348
23060SOL    HW271014   9.748   3.503  10.447
23061SOL     OW71015  13.103  10.486  12.268
23061SOL    HW171016  13.038  10.549  12.297
23061SOL    HW271017  13.055  10.404  12.259
23062SOL     OW71018   6.955   4.166   1.031
23062SOL    HW171019   6.926   4.161   1.122
23062SOL    HW271020   6.875   4.154   0.980
23063SOL     OW71021   5.083   3.557  10.748
23063SOL    HW171022   5.001   3.518  10.778
23063SOL    HW271023   5.121   3.596  10.827
23064SOL     OW71024   1.764   0.290   4.209
23064SOL    HW171025   1.826   0.219   4.228
23064SOL    HW271026   1.744   0.327   4.295
23065SOL     OW71027  10.941   8.746   2.974
23065SOL    HW171028  10.916   8.808   2.906
23065SOL    HW271029  10.894   8.775   3.052
23066SOL     OW71030  13.729  13.332   8.250
23066SOL    HW171031  13.732  13.242   8.219
23066SOL    HW271032  13.816  13.346   8.289
23067SOL     OW71033  14.253   3.185   5.599
23067SOL    HW171034  14.233   3.246   5.527
23067SOL    HW271035  14.280   3.242   5.671
23068SOL     OW71036   7.674   5.697   6.145
23068SOL    HW171037   7.734   5.675   6.073
23068SOL    HW271038   7.615   5.762   6.108
23069SOL     OW71039  14.367  12.462   6.921
23069SOL    HW171040  14.293  12.475   6.980
23069SOL    HW271041  14.439  12.434   6.978
23070SOL     OW71042  12.179   7.501   7.242
23070SOL    HW171043  12.264   7.544   7.246
23070SOL    HW271044  12.142   7.530   7.158
23071SOL     OW71045   5.849   9.854   0.592
23071SOL    HW171046   5.919   9.904   0.633
23071SOL    HW271047   5.770   9.905   0.610
23072SOL     OW71048   6.220   6.096  10.620
23072SOL    HW171049   6.202   6.106  10.526
23072SOL    HW271050   6.304   6.051  10.623
23073SOL     OW71051  14.254   6.578   1.126
23073SOL    HW171052  14.279   6.516   1.195
23073SOL    HW271053  14.206   6.525   1.063
23074SOL     OW71054   9.507   3.079   5.474
23074SOL    HW171055   9.552   3.094   5.391
23074SOL    HW271056   9.423   3.124   5.465
23075SOL     OW71057  13.022   5.442   6.601
23075SOL    HW171058  12.947   5.446   6.660
23075SOL    HW271059  13.004   5.366   6.545
23076SOL     OW71060  10.345   1.072   5.325
23076SOL    HW171061  10.338   0.978   5.340
23076SOL    HW271062  10.321   1.111   5.409
23077SOL     OW71063   4.540   8.883   0.956
23077SOL    HW171064   4.635   8.882   0.949
23077SOL    HW271065   4.523   8.936   1.035
23078SOL     OW71066   1.056   7.114   3.900
23078SOL    HW171067   1.018   7.115   3.812
23078SOL    HW271068   1.110   7.193   3.904
23079SOL     OW71069   0.136  11.524  14.109
23079SOL    HW171070   0.109  11.586  14.042
23079SOL    HW271071   0.069  11.456  14.107
23080SOL     OW71072  11.327   4.098   6.322
23080SOL    HW171073  11.405   4.149   6.303
23080SOL    HW271074  11.273   4.107   6.243
23081SOL     OW71075   3.431  14.808   9.646
23081SOL    HW171076   3.475   0.012   9.627
23081SOL    HW271077   3.371  14.828   9.718
23082SOL     OW71078  11.222   2.290   0.242
23082SOL    HW171079  11.273   2.214   0.271
23082SOL    HW271080  11.160   2.254   0.178
23083SOL     OW71081  13.375   1.813   5.173
23083SOL    HW171082  13.291   1.806   5.218
23083SOL    HW271083  13.353   1.845   5.085
23084SOL     OW71084   9.871   3.425  12.136
23084SOL    HW171085   9.839   3.477  12.062
23084SOL    HW271086   9.799   3.428  12.200
23085SOL     OW71087   7.738   5.336  10.015
23085SOL    HW171088   7.697   5.402   9.959
23085SOL    HW271089   7.824   5.373  10.037
23086SOL     OW71090  13.488   9.319   7.382
23086SOL    HW171091  13.546   9.395   7.382
23086SOL    HW271092  13.477   9.297   7.475
23087SOL     OW71093   7.849  10.873   6.523
23087SOL    HW171094   7.785  10.856   6.453
23087SOL    HW271095   7.865  10.786   6.561
23088SOL     OW71096   1.338   0.277  10.114
23088SOL    HW171097   1.349   0.275  10.209
23088SOL    HW271098   1.293   0.359  10.096
23089SOL     OW71099   8.044   5.886  10.900
23089SOL    HW171100   8.067   5.856  10.812
23089SOL    HW271101   8.033   5.980  10.891
23090SOL     OW71102  11.508   5.355   7.542
23090SOL    HW171103  11.419   5.350   7.507
23090SOL    HW271104  11.547   5.429   7.496
23091SOL     OW71105   5.569   2.151  13.374
23091SOL    HW171106   5.483   2.146  13.416
23091SOL    HW271107   5.592   2.060  13.354
23092SOL     OW71108   9.068  12.087   1.919
23092SOL    HW171109   9.113  12.170   1.937
23092SOL    HW271110   9.084  12.034   1.997
23093SOL     OW71111  11.505  13.327   4.333
23093SOL    HW171112  11.523  13.243   4.290
23093SOL    HW271113  11.559  13.325   4.412
23094SOL     OW71114   1.768  13.810   4.623
23094SOL    HW171115   1.836  13.874   4.645
23094SOL    HW271116   1.806  13.726   4.649
23095SOL     OW71117   4.362   7.421   8.662
23095SOL    HW171118   4.312   7.455   8.737
23095SOL    HW271119   4.390   7.499   8.614
23096SOL     OW71120  11.618  14.648   6.944
23096SOL    HW171121  11.631  14.587   7.016
23096SOL    HW271122  11.591  14.730   6.985
23097SOL     OW71123   6.557   0.612   0.140
23097SOL    HW171124   6.521   0.682   0.193
23097SOL    HW271125   6.485   0.584   0.083
23098SOL     OW71126   2.886  11.095   2.069
23098SOL    HW171127   2.877  11.175   2.121
23098SOL    HW271128   2.865  11.024   2.130
23099SOL     OW71129   7.100   7.633   8.679
23099SOL    HW171130   7.023   7.642   8.623
23099SOL    HW271131   7.174   7.634   8.619
23100SOL     OW71132   8.648   1.452   4.387
23100SOL    HW171133   8.583   1.490   4.327
23100SOL    HW271134   8.658   1.517   4.456
23101SOL     OW71135   1.667   6.063  10.567
23101SOL    HW171136   1.586   6.017  10.589
23101SOL    HW271137   1.654   6.094  10.477
23102SOL     OW71138   3.026   9.836   8.216
23102SOL    HW171139   2.993   9.924   8.196
23102SOL    HW271140   2.948   9.781   8.220
23103SOL     OW71141   5.472   0.641   4.508
23103SOL    HW171142   5.537   0.689   4.455
23103SOL    HW271143   5.456   0.699   4.583
23104SOL     OW71144  13.543   5.039   5.263
23104SOL    HW171145  13.625   5.017   5.308
23104SOL    HW271146  13.479   5.046   5.334
23105SOL     OW71147   6.795   7.971  13.356
23105SOL    HW171148   6.849   8.043  13.324
23105SOL    HW271149   6.821   7.896  13.302
23106SOL     OW71150   4.448   6.672  10.856
23106SOL    HW171151   4.440   6.577  10.849
23106SOL    HW271152   4.531   6.692  10.812
23107SOL     OW71153   2.096   5.599   3.966
23107SOL    HW171154   2.101   5.634   3.878
23107SOL    HW271155   2.007   5.564   3.973
23108SOL     OW71156   7.151  11.927   5.381
23108SOL    HW171157   7.091  11.935   5.307
23108SOL    HW271158   7.145  11.835   5.407
23109SOL     OW71159  10.466   7.892   9.091
23109SOL    HW171160  10.426   7.962   9.039
23109SOL    HW271161  10.488   7.824   9.028
23110SOL     OW71162   4.247   4.216   1.519
23110SOL    HW171163   4.296   4.140   1.550
23110SOL    HW271164   4.291   4.242   1.438
23111SOL     OW71165   6.628  11.619   8.936
23111SOL    HW171166   6.556  11.566   8.969
23111SOL    HW271167   6.701  11.601   8.995
23112SOL     OW71168  12.142   5.972  10.671
23112SOL    HW171169  12.086   6.021  10.731
23112SOL    HW271170  12.126   6.012  10.585
23113SOL     OW71171   0.505   6.416   1.758
23113SOL    HW171172   0.444   6.384   1.825
23113SOL    HW271173   0.450   6.467   1.699
23114SOL     OW71174   3.728   4.228   7.006
23114SOL    HW171175   3.788   4.272   7.066
23114SOL    HW271176   3.704   4.296   6.942
23115SOL     OW71177   4.715   4.908   5.185
23115SOL    HW171178   4.773   4.984   5.178
23115SOL    HW271179   4.723   4.880   5.276
23116SOL     OW71180   5.793  10.296   9.482
23116SOL    HW171181   5.724  10.350   9.521
23116SOL    HW271182   5.864  10.358   9.466
23117SOL     OW71183  10.489   5.903   2.213
23117SOL    HW171184  10.400   5.914   2.246
23117SOL    HW271185  10.508   5.810   2.228
23118SOL     OW71186   8.345  14.770   6.694
23118SOL    HW171187   8.319  14.708   6.626
23118SOL    HW271188   8.382  14.844   6.647
23119SOL     OW71189   7.011  14.392  11.534
23119SOL    HW171190   6.975  14.311  11.497
23119SOL    HW271191   6.963  14.403  11.616
23120SOL     OW71192   9.649   6.268   1.696
23120SOL    HW171193   9.646   6.232   1.607
23120SOL    HW271194   9.735   6.309   1.702
23121SOL     OW71195  14.701   9.421   3.477
23121SOL    HW171196  14.768   9.357   3.452
23121SOL    HW271197  14.705   9.488   3.409
23122SOL     OW71198   9.726   4.464   6.533
23122SOL    HW171199   9.670   4.532   6.497
23122SOL    HW271200   9.814   4.485   6.503
23123SOL     OW71201   6.783  13.861  10.861
23123SOL    HW171202   6.724  13.814  10.802
23123SOL    HW271203   6.767  13.953  10.843
23124SOL     OW71204   1.718   4.029   6.802
23124SOL    HW171205   1.685   4.113   6.769
23124SOL    HW271206   1.729   4.044   6.896
23125SOL     OW71207   2.195   3.413   7.719
23125SOL    HW171208   2.169   3.336   7.769
23125SOL    HW271209   2.115   3.442   7.676
23126SOL     OW71210   5.139   0.320   5.597
23126SOL    HW171211   5.079   0.246   5.584
23126SOL    HW271212   5.083   0.391   5.628
23127SOL     OW71213   7.654  11.639   2.760
23127SOL    HW171214   7.654  11.558   2.710
23127SOL    HW271215   7.719  11.695   2.717
23128SOL     OW71216   8.052   8.612   3.031
23128SOL    HW171217   8.006   8.689   3.062
23128SOL    HW271218   8.127   8.603   3.089
23129SOL     OW71219   0.693  10.117   8.270
23129SOL    HW171220   0.710  10.079   8.184
23129SOL    HW271221   0.778  10.116   8.314
23130SOL     OW71222   4.450   7.934   2.547
23130SOL    HW171223   4.520   7.871   2.527
23130SOL    HW271224   4.419   7.962   2.461
23131SOL     OW71225  12.487   3.835   8.541
23131SOL    HW171226  12.431   3.908   8.567
23131SOL    HW271227  12.426   3.762   8.529
23132SOL     OW71228  12.866   2.576   7.211
23132SOL    HW171229  12.926   2.543   7.278
23132SOL    HW271230  12.911   2.651   7.173
23133SOL     OW71231  10.392   4.889   4.528
23133SOL    HW171232  10.426   4.974   4.557
23133SOL    HW271233  10.470   4.836   4.513
23134SOL     OW71234   9.792   4.351   4.857
23134SOL    HW171235   9.752   4.419   4.911
23134SOL    HW271236   9.719   4.295   4.831
23135SOL     OW71237  10.977   9.931   9.921
23135SOL    HW171238  11.039   9.986   9.968
23135SOL    HW271239  10.896   9.937   9.971
23136SOL     OW71240   1.840   5.940   2.230
23136SOL    HW171241   1.765   5.999   2.242
23136SOL    HW271242   1.914   5.990   2.263
23137SOL     OW71243   5.719  13.536   0.474
23137SOL    HW171244   5.772  13.609   0.508
23137SOL    HW271245   5.707  13.555   0.381
23138SOL     OW71246   6.957   7.943   8.861
23138SOL    HW171247   6.904   8.001   8.916
23138SOL    HW271248   6.901   7.867   8.846
23139SOL     OW71249   9.207   4.833  12.143
23139SOL    HW171250   9.242   4.914  12.181
23139SOL    HW271251   9.112   4.840  12.152
23140SOL     OW71252   9.069  12.964  12.224
23140SOL    HW171253   9.042  13.040  12.173
23140SOL    HW271254   9.022  12.890  12.184
23141SOL     OW71255   6.029   8.158  14.434
23141SOL    HW171256   6.110   8.114  14.406
23141SOL    HW271257   6.036   8.246  14.396
23142SOL     OW71258  11.170  11.290   8.747
23142SOL    HW171259  11.241  11.297   8.683
23142SOL    HW271260  11.096  11.256   8.696
23143SOL     OW71261   6.760  14.546   9.760
23143SOL    HW171262   6.825  14.613   9.739
23143SOL    HW271263   6.732  14.568   9.849
23144SOL     OW71264   4.579  13.059   5.240
23144SOL    HW171265   4.583  13.149   5.206
23144SOL    HW271266   4.488  13.047   5.267
23145SOL     OW71267  13.257   8.677   5.134
23145SOL    HW171268  13.167   8.700   5.155
23145SOL    HW271269  13.299   8.663   5.219
23146SOL     OW71270  13.928   2.621   4.688
23146SOL    HW171271  13.958   2.649   4.602
23146SOL    HW271272  14.009   2.599   4.735
23147SOL     OW71273   1.255  10.114  13.381
23147SOL    HW171274   1.252  10.122  13.285
23147SOL    HW271275   1.341  10.076  13.399
23148SOL     OW71276   2.822  13.011  10.249
23148SOL    HW171277   2.864  12.929  10.274
23148SOL    HW271278   2.755  13.024  10.316
23149SOL     OW71279   6.419   6.954   2.152
23149SOL    HW171280   6.439   6.925   2.241
23149SOL    HW271281   6.492   6.921   2.099
23150SOL     OW71282  14.833   3.382   0.281
23150SOL    HW171283  14.872   3.318   0.222
23150SOL    HW271284   0.025   3.406   0.341
23151SOL     OW71285   9.515  11.935  12.765
23151SOL    HW171286   9.473  12.008  12.810
23151SOL    HW271287   9.442  11.881  12.734
23152SOL     OW71288   8.753   1.464   5.027
23152SOL    HW171289   8.760   1.391   5.088
23152SOL    HW271290   8.843   1.497   5.019
23153SOL     OW71291   7.972   3.500  12.570
23153SOL    HW171292   7.932   3.450  12.499
23153SOL    HW271293   7.983   3.588  12.534
23154SOL     OW71294  11.829   8.948   8.564
23154SOL    HW171295  11.904   8.940   8.622
23154SOL    HW271296  11.777   9.020   8.601
23155SOL     OW71297  10.270  12.137   2.117
23155SOL    HW171298  10.189  12.167   2.075
23155SOL    HW271299  10.324  12.104   2.045
23156SOL     OW71300  12.385   8.137  13.703
23156SOL    HW171301  12.383   8.230  13.679
23156SOL    HW271302  12.349   8.134  13.791
23157SOL     OW71303   5.650   3.853   3.704
23157SOL    HW171304   5.648   3.764   3.739
23157SOL    HW271305   5.633   3.910   3.779
23158SOL     OW71306  11.024   7.788   6.013
23158SOL    HW171307  11.085   7.823   6.078
23158SOL    HW271308  10.939   7.826   6.037
23159SOL     OW71309   0.530   2.430   1.297
23159SOL    HW171310   0.468   2.434   1.370
23159SOL    HW271311   0.552   2.521   1.279
23160SOL     OW71312   2.827  10.930  12.658
23160SOL    HW171313   2.770  10.910  12.732
23160SOL    HW271314   2.774  10.913  12.580
23161SOL     OW71315  10.812   9.938   7.633
23161SOL    HW171316  10.902   9.959   7.658
23161SOL    HW271317  10.772   9.902   7.712
23162SOL     OW71318   6.870   8.111   5.333
23162SOL    HW171319   6.804   8.160   5.382
23162SOL    HW271320   6.822   8.071   5.261
23163SOL     OW71321   9.727   6.670   5.953
23163SOL    HW171322   9.658   6.613   5.918
23163SOL    HW271323   9.797   6.610   5.977
23164SOL     OW71324  13.986  12.076  11.870
23164SOL    HW171325  13.981  12.149  11.932
23164SOL    HW271326  13.987  12.118  11.783
23165SOL     OW71327   9.051   4.647  10.844
23165SOL    HW171328   8.994   4.709  10.890
23165SOL    HW271329   9.023   4.653  10.752
23166SOL     OW71330   8.276   9.048  11.062
23166SOL    HW171331   8.338   8.976  11.050
23166SOL    HW271332   8.330   9.125  11.076
23167SOL     OW71333  14.663   1.932   7.750
23167SOL    HW171334  14.699   1.851   7.715
23167SOL    HW271335  14.603   1.904   7.819
23168SOL     OW71336   4.655   8.420   2.958
23168SOL    HW171337   4.697   8.475   2.892
23168SOL    HW271338   4.686   8.331   2.938
23169SOL     OW71339   5.914  10.790   3.468
23169SOL    HW171340   5.879  10.736   3.397
23169SOL    HW271341   6.007  10.799   3.447
23170SOL     OW71342   1.439   1.365  14.633
23170SOL    HW171343   1.451   1.458  14.615
23170SOL    HW271344   1.345   1.355  14.648
23171SOL     OW71345  11.412  13.616   1.089
23171SOL    HW171346  11.357  13.638   1.014
23171SOL    HW271347  11.496  13.658   1.069
23172SOL     OW71348  13.618  11.638   3.470
23172SOL    HW171349  13.523  11.627   3.468
23172SOL    HW271350  13.646  11.590   3.548
23173SOL     OW71351  13.749   1.164  14.257
23173SOL    HW171352  13.720   1.253  14.237
23173SOL    HW271353  13.668   1.114  14.265
23174SOL     OW71354   9.286   4.397  14.695
23174SOL    HW171355   9.247   4.314  14.724
23174SOL    HW271356   9.302   4.385  14.602
23175SOL     OW71357   1.168  11.888   9.873
23175SOL    HW171358   1.080  11.885   9.910
23175SOL    HW271359   1.191  11.797   9.856
23176SOL     OW71360   7.449   8.513   0.303
23176SOL    HW171361   7.455   8.464   0.221
23176SOL    HW271362   7.373   8.569   0.292
23177SOL     OW71363   6.257   8.385  12.781
23177SOL    HW171364   6.299   8.309  12.822
23177SOL    HW271365   6.176   8.350  12.744
23178SOL     OW71366  11.378   3.373  13.637
23178SOL    HW171367  11.352   3.281  13.637
23178SOL    HW271368  11.330   3.411  13.564
23179SOL     OW71369   0.068   0.191  11.166
23179SOL    HW171370   0.009   0.237  11.106
23179SOL    HW271371   0.130   0.145  11.110
23180SOL     OW71372   0.429  13.732  14.458
23180SOL    HW171373   0.381  13.814  14.463
23180SOL    HW271374   0.463  13.719  14.546
23181SOL     OW71375  13.144   9.516   2.129
23181SOL    HW171376  13.230   9.541   2.095
23181SOL    HW271377  13.161   9.488   2.219
23182SOL     OW71378   6.978   4.774   7.209
23182SOL    HW171379   6.909   4.707   7.211
23182SOL    HW271380   7.008   4.775   7.118
23183SOL     OW71381   1.128  10.838   6.951
23183SOL    HW171382   1.221  10.855   6.959
23183SOL    HW271383   1.088  10.924   6.942
23184SOL     OW71384  11.651   9.584  11.751
23184SOL    HW171385  11.560   9.603  11.729
23184SOL    HW271386  11.658   9.604  11.845
23185SOL     OW71387   7.231   2.747  14.468
23185SOL    HW171388   7.285   2.674  14.440
23185SOL    HW271389   7.156   2.707  14.511
23186SOL     OW71390   5.986   7.251   8.595
23186SOL    HW171391   6.020   7.274   8.508
23186SOL    HW271392   6.049   7.291   8.656
23187SOL     OW71393   7.047   1.340   7.757
23187SOL    HW171394   7.119   1.364   7.815
23187SOL    HW271395   7.036   1.246   7.770
23188SOL     OW71396   9.288   2.726   3.255
23188SOL    HW171397   9.196   2.744   3.234
23188SOL    HW271398   9.286   2.644   3.303
23189SOL     OW71399  12.181   8.280   4.888
23189SOL    HW171400  12.180   8.263   4.794
23189SOL    HW271401  12.271   8.262   4.915
23190SOL     OW71402   9.713   1.531   1.332
23190SOL    HW171403   9.647   1.523   1.401
23190SOL    HW271404   9.696   1.457   1.275
23191SOL     OW71405   8.371   7.129   9.868
23191SOL    HW171406   8.455   7.174   9.881
23191SOL    HW271407   8.346   7.100   9.955
23192SOL     OW71408   2.390  10.622  13.008
23192SOL    HW171409   2.375  10.667  13.092
23192SOL    HW271410   2.305  10.584  12.986
23193SOL     OW71411   7.836   6.252   4.184
23193SOL    HW171412   7.788   6.270   4.264
23193SOL    HW271413   7.805   6.166   4.155
23194SOL     OW71414   1.797  13.446  13.737
23194SOL    HW171415   1.739  13.396  13.794
23194SOL    HW271416   1.750  13.528  13.720
23195SOL     OW71417  13.320   8.362  14.322
23195SOL    HW171418  13.326   8.455  14.298
23195SOL    HW271419  13.237   8.354  14.368
23196SOL     OW71420  10.849   3.121   4.853
23196SOL    HW171421  10.777   3.092   4.797
23196SOL    HW271422  10.806   3.160   4.929
23197SOL     OW71423   0.088   4.334   5.145
23197SOL    HW171424   0.156   4.272   5.118
23197SOL    HW271425   0.111   4.356   5.235
23198SOL     OW71426   8.124   3.541   8.896
23198SOL    HW171427   8.071   3.588   8.960
23198SOL    HW271428   8.092   3.451   8.900
23199SOL     OW71429  11.232   1.163   7.474
23199SOL    HW171430  11.255   1.072   7.492
23199SOL    HW271431  11.136   1.165   7.479
23200SOL     OW71432   1.391   8.684   6.924
23200SOL    HW171433   1.411   8.643   7.008
23200SOL    HW271434   1.458   8.752   6.914
23201SOL     OW71435   8.148   9.251   3.080
23201SOL    HW171436   8.138   9.338   3.119
23201SOL    HW271437   8.236   9.223   3.105
23202SOL     OW71438   1.348   9.396   8.224
23202SOL    HW171439   1.296   9.456   8.277
23202SOL    HW271440   1.374   9.448   8.147
23203SOL     OW71441   1.961   9.080   4.608
23203SOL    HW171442   1.944   9.001   4.660
23203SOL    HW271443   2.039   9.118   4.649
23204SOL     OW71444  14.626   3.744  10.499
23204SOL    HW171445  14.606   3.805  10.570
23204SOL    HW271446  14.600   3.658  10.534
23205SOL     OW71447   9.532  11.187  12.112
23205SOL    HW171448   9.459  11.127  12.127
23205SOL    HW271449   9.557  11.171  12.021
23206SOL     OW71450   2.052   3.250   3.293
23206SOL    HW171451   1.984   3.219   3.234
23206SOL    HW271452   2.064   3.342   3.270
23207SOL     OW71453   5.213  13.210   9.977
23207SOL    HW171454   5.190  13.247  10.062
23207SOL    HW271455   5.165  13.127   9.973
23208SOL     OW71456   8.851   5.733  11.130
23208SOL    HW171457   8.888   5.686  11.055
23208SOL    HW271458   8.847   5.824  11.102
23209SOL     OW71459   6.890  10.729   6.818
23209SOL    HW171460   6.963  10.693   6.869
23209SOL    HW271461   6.932  10.793   6.760
23210SOL     OW71462   7.340   4.597  14.719
23210SOL    HW171463   7.374   4.560  14.801
23210SOL    HW271464   7.352   4.527  14.655
23211SOL     OW71465   7.817   2.517  13.552
23211SOL    HW171466   7.902   2.553  13.527
23211SOL    HW271467   7.825   2.423  13.535
23212SOL     OW71468   1.740   7.183   7.564
23212SOL    HW171469   1.646   7.201   7.562
23212SOL    HW271470   1.756   7.128   7.487
23213SOL     OW71471   9.253  13.354   1.458
23213SOL    HW171472   9.174  13.408   1.452
23213SOL    HW271473   9.323  13.417   1.475
23214SOL     OW71474   7.706  12.777   8.293
23214SOL    HW171475   7.613  12.762   8.309
23214SOL    HW271476   7.708  12.836   8.218
23215SOL     OW71477  10.818   2.005  10.484
23215SOL    HW171478  10.741   2.059  10.496
23215SOL    HW271479  10.816   1.943  10.557
23216SOL     OW71480   6.647   0.174   1.297
23216SOL    HW171481   6.642   0.180   1.393
23216SOL    HW271482   6.556   0.163   1.269
23217SOL     OW71483   9.181  13.397   2.795
23217SOL    HW171484   9.126  13.328   2.757
23217SOL    HW271485   9.265  13.389   2.750
23218SOL     OW71486   2.548  12.918  12.602
23218SOL    HW171487   2.467  12.956  12.568
23218SOL    HW271488   2.616  12.983  12.583
23219SOL     OW71489   7.489   2.195   9.986
23219SOL    HW171490   7.514   2.270   9.931
23219SOL    HW271491   7.399   2.177   9.960
23220SOL     OW71492   0.449   8.461  10.256
23220SOL    HW171493   0.458   8.519  10.181
23220SOL    HW271494   0.535   8.421  10.266
23221SOL     OW71495   0.749   2.516   1.493
23221SOL    HW171496   0.676   2.472   1.450
23221SOL    HW271497   0.827   2.472   1.457
23222SOL     OW71498   5.828  14.753   3.689
23222SOL    HW171499   5.837  14.826   3.750
23222SOL    HW271500   5.914  14.712   3.688
23223SOL     OW71501   2.850   8.929   7.713
23223SOL    HW171502   2.899   9.008   7.738
23223SOL    HW271503   2.846   8.932   7.618
23224SOL     OW71504   8.837  12.226   0.707
23224SOL    HW171505   8.930  12.240   0.726
23224SOL    HW271506   8.836  12.183   0.622
23225SOL     OW71507   6.722   6.322   8.577
23225SOL    HW171508   6.636   6.280   8.572
23225SOL    HW271509   6.716   6.380   8.653
23226SOL     OW71510   8.517   9.517  12.686
23226SOL    HW171511   8.568   9.451  12.640
23226SOL    HW271512   8.453   9.467  12.736
23227SOL     OW71513  12.787   5.023  11.549
23227SOL    HW171514  12.873   5.061  11.568
23227SOL    HW271515  12.735   5.041  11.627
23228SOL     OW71516   9.760   5.162   8.629
23228SOL    HW171517   9.807   5.082   8.606
23228SOL    HW271518   9.715   5.141   8.711
23229SOL     OW71519  12.566   3.096   9.999
23229SOL    HW171520  12.578   3.043  10.078
23229SOL    HW271521  12.654   3.119   9.972
23230SOL     OW71522  11.675   5.591  13.960
23230SOL    HW171523  11.730   5.644  14.018
23230SOL    HW271524  11.585   5.618  13.982
23231SOL     OW71525   3.856   4.240   6.317
23231SOL    HW171526   3.829   4.327   6.289
23231SOL    HW271527   3.830   4.182   6.246
23232SOL     OW71528   9.696   2.881   4.260
23232SOL    HW171529   9.618   2.936   4.272
23232SOL    HW271530   9.748   2.926   4.194
23233SOL     OW71531   7.190  11.418   7.626
23233SOL    HW171532   7.134  11.345   7.654
23233SOL    HW271533   7.274  11.377   7.607
23234SOL     OW71534   9.203  13.141   8.662
23234SOL    HW171535   9.120  13.186   8.646
23234SOL    HW271536   9.236  13.120   8.575
23235SOL     OW71537  10.376   1.908   5.973
23235SOL    HW171538  10.398   1.889   5.881
23235SOL    HW271539  10.460   1.931   6.013
23236SOL     OW71540   6.434  12.987  10.730
23236SOL    HW171541   6.471  12.912  10.685
23236SOL    HW271542   6.446  13.060  10.668
23237SOL     OW71543   7.402   6.375   5.015
23237SOL    HW171544   7.324   6.416   4.978
23237SOL    HW271545   7.474   6.433   4.992
23238SOL     OW71546  10.603   3.375   6.671
23238SOL    HW171547  10.645   3.294   6.698
23238SOL    HW271548  10.670   3.422   6.621
23239SOL     OW71549  12.289   5.275   2.010
23239SOL    HW171550  12.333   5.263   2.094
23239SOL    HW271551  12.245   5.192   1.992
23240SOL     OW71552   6.673   7.332  12.857
23240SOL    HW171553   6.589   7.355  12.898
23240SOL    HW271554   6.680   7.237  12.871
23241SOL     OW71555   6.179   0.410  10.647
23241SOL    HW171556   6.192   0.453  10.732
23241SOL    HW271557   6.265   0.413  10.605
23242SOL     OW71558  14.711   8.240  13.762
23242SOL    HW171559  14.625   8.271  13.733
23242SOL    HW271560  14.729   8.289  13.842
23243SOL     OW71561   3.366   1.600  13.269
23243SOL    HW171562   3.446   1.578  13.222
23243SOL    HW271563   3.387   1.682  13.314
23244SOL     OW71564   0.016   5.659  10.500
23244SOL    HW171565   0.105   5.662  10.535
23244SOL    HW271566  14.839   5.687  10.572
23245SOL     OW71567   3.205   5.893   1.899
23245SOL    HW171568   3.165   5.821   1.948
23245SOL    HW271569   3.193   5.868   1.807
23246SOL     OW71570  11.756   7.026   5.257
23246SOL    HW171571  11.797   7.088   5.196
23246SOL    HW271572  11.701   6.971   5.201
23247SOL     OW71573  13.870   9.593  12.178
23247SOL    HW171574  13.885   9.685  12.200
23247SOL    HW271575  13.958   9.555  12.173
23248SOL     OW71576  11.383  11.948   0.963
23248SOL    HW171577  11.346  11.916   0.880
23248SOL    HW271578  11.471  11.978   0.940
23249SOL     OW71579   6.212  12.090  12.629
23249SOL    HW171580   6.257  12.052  12.704
23249SOL    HW271581   6.175  12.172  12.663
23250SOL     OW71582   5.001  12.631   6.345
23250SOL    HW171583   4.924  12.624   6.289
23250SOL    HW271584   5.069  12.583   6.298
23251SOL     OW71585  11.915  13.912  12.094
23251SOL    HW171586  11.948  13.883  12.180
23251SOL    HW271587  11.994  13.918  12.040
23252SOL     OW71588   1.458  13.715   3.351
23252SOL    HW171589   1.519  13.786   3.331
23252SOL    HW271590   1.428  13.685   3.265
23253SOL     OW71591   1.735   0.975  14.355
23253SOL    HW171592   1.674   0.957  14.427
23253SOL    HW271593   1.792   0.899  14.353
23254SOL     OW71594  10.408   7.439  11.194
23254SOL    HW171595  10.406   7.358  11.144
23254SOL    HW271596  10.489   7.435  11.245
23255SOL     OW71597   7.215   4.780  10.136
23255SOL    HW171598   7.125   4.790  10.104
23255SOL    HW271599   7.246   4.870  10.148
23256SOL     OW71600   0.250   8.861   4.446
23256SOL    HW171601   0.287   8.836   4.361
23256SOL    HW271602   0.229   8.954   4.436
23257SOL     OW71603  12.808   6.397  11.736
23257SOL    HW171604  12.844   6.486  11.729
23257SOL    HW271605  12.852   6.348  11.666
23258SOL     OW71606   1.159  13.490   6.358
23258SOL    HW171607   1.170  13.517   6.449
23258SOL    HW271608   1.160  13.394   6.361
23259SOL     OW71609   7.990   1.458  14.737
23259SOL    HW171610   8.069   1.404  14.729
23259SOL    HW271611   8.022   1.548  14.732
23260SOL     OW71612   0.822  14.454  10.692
23260SOL    HW171613   0.762  14.407  10.634
23260SOL    HW271614   0.909  14.432  10.659
23261SOL     OW71615   6.184   0.939  14.037
23261SOL    HW171616   6.251   1.002  14.064
23261SOL    HW271617   6.161   0.893  14.118
23262SOL     OW71618   5.698  13.709   8.192
23262SOL    HW171619   5.725  13.627   8.151
23262SOL    HW271620   5.767  13.727   8.257
23263SOL     OW71621   9.025   3.680  13.026
23263SOL    HW171622   8.984   3.639  12.951
23263SOL    HW271623   8.967   3.661  13.100
23264SOL     OW71624   1.835   5.062   5.245
23264SOL    HW171625   1.745   5.044   5.272
23264SOL    HW271626   1.855   5.147   5.283
23265SOL     OW71627   5.899   4.679   7.177
23265SOL    HW171628   5.853   4.759   7.202
23265SOL    HW271629   5.921   4.636   7.260
23266SOL     OW71630  10.020   2.417  13.996
23266SOL    HW171631  10.066   2.456  13.922
23266SOL    HW271632   9.966   2.487  14.032
23267SOL     OW71633  10.380   5.371   5.516
23267SOL    HW171634  10.382   5.349   5.609
23267SOL    HW271635  10.465   5.343   5.482
23268SOL     OW71636   5.851   8.047   2.550
23268SOL    HW171637   5.824   8.052   2.641
23268SOL    HW271638   5.785   7.990   2.509
23269SOL     OW71639   7.933   3.796  12.662
23269SOL    HW171640   7.882   3.759  12.590
23269SOL    HW271641   7.980   3.869  12.623
23270SOL     OW71642   1.709   4.026   7.871
23270SOL    HW171643   1.782   4.054   7.927
23270SOL    HW271644   1.662   4.107   7.852
23271SOL     OW71645   5.175  13.473   8.002
23271SOL    HW171646   5.229  13.422   7.941
23271SOL    HW271647   5.213  13.561   7.999
23272SOL     OW71648   0.606  14.131   1.659
23272SOL    HW171649   0.667  14.191   1.702
23272SOL    HW271650   0.525  14.139   1.708
23273SOL     OW71651   2.758   3.175  14.134
23273SOL    HW171652   2.800   3.189  14.049
23273SOL    HW271653   2.687   3.113  14.115
23274SOL     OW71654  10.196   9.808   2.118
23274SOL    HW171655  10.105   9.799   2.146
23274SOL    HW271656  10.191   9.854   2.034
23275SOL     OW71657  11.417   2.973  14.595
23275SOL    HW171658  11.417   3.026  14.675
23275SOL    HW271659  11.468   2.896  14.617
23276SOL     OW71660   6.592  13.477   8.360
23276SOL    HW171661   6.600  13.386   8.332
23276SOL    HW271662   6.586  13.527   8.279
23277SOL     OW71663  10.932   3.915   5.393
23277SOL    HW171664  11.001   3.899   5.329
23277SOL    HW271665  10.883   3.833   5.397
23278SOL     OW71666   4.836  12.487   4.375
23278SOL    HW171667   4.790  12.569   4.362
23278SOL    HW271668   4.916  12.511   4.422
23279SOL     OW71669   9.291   2.415   8.196
23279SOL    HW171670   9.309   2.326   8.226
23279SOL    HW271671   9.376   2.446   8.164
23280SOL     OW71672  12.297  11.878  14.563
23280SOL    HW171673  12.262  11.820  14.496
23280SOL    HW271674  12.287  11.829  14.645
23281SOL     OW71675  13.900   0.189  13.620
23281SOL    HW171676  13.948   0.170  13.539
23281SOL    HW271677  13.961   0.168  13.690
23282SOL     OW71678   3.107   4.371   4.593
23282SOL    HW171679   3.150   4.289   4.567
23282SOL    HW271680   3.067   4.351   4.677
23283SOL     OW71681  12.005   4.446   4.256
23283SOL    HW171682  11.932   4.412   4.307
23283SOL    HW271683  11.991   4.541   4.254
23284SOL     OW71684  13.897   5.080  10.644
23284SOL    HW171685  13.905   5.035  10.728
23284SOL    HW271686  13.872   5.170  10.667
23285SOL     OW71687   2.772   9.179   1.259
23285SOL    HW171688   2.836   9.128   1.309
23285SOL    HW271689   2.739   9.118   1.194
23286SOL     OW71690   7.542   2.819   6.675
23286SOL    HW171691   7.575   2.777   6.596
23286SOL    HW271692   7.599   2.895   6.688
23287SOL     OW71693  11.196   0.291   5.075
23287SOL    HW171694  11.129   0.359   5.080
23287SOL    HW271695  11.258   0.314   5.144
23288SOL     OW71696  12.245   4.409   7.455
23288SOL    HW171697  12.173   4.348   7.472
23288SOL    HW271698  12.203   4.494   7.442
23289SOL     OW71699  14.600   6.203  12.379
23289SOL    HW171700  14.554   6.138  12.432
23289SOL    HW271701  14.533   6.267  12.357
23290SOL     OW71702  12.293   1.627   2.257
23290SOL    HW171703  12.207   1.652   2.222
23290SOL    HW271704  12.333   1.710   2.282
23291SOL     OW71705  10.012   6.541   9.214
23291SOL    HW171706   9.990   6.479   9.145
23291SOL    HW271707  10.106   6.556   9.205
23292SOL     OW71708   4.642  12.048   3.557
23292SOL    HW171709   4.685  12.131   3.538
23292SOL    HW271710   4.681  11.987   3.495
23293SOL     OW71711  12.409  11.623  11.965
23293SOL    HW171712  12.436  11.604  12.055
23293SOL    HW271713  12.412  11.539  11.920
23294SOL     OW71714  12.785   7.350   3.771
23294SOL    HW171715  12.816   7.386   3.688
23294SOL    HW271716  12.818   7.260   3.772
23295SOL     OW71717  13.664   0.334  13.563
23295SOL    HW171718  13.731   0.267  13.572
23295SOL    HW271719  13.650   0.342  13.469
23296SOL     OW71720   7.594   2.978   1.090
23296SOL    HW171721   7.660   3.018   1.147
23296SOL    HW271722   7.605   2.884   1.104
23297SOL     OW71723  14.517  14.284   1.598
23297SOL    HW171724  14.577  14.275   1.672
23297SOL    HW271725  14.574  14.304   1.524
23298SOL     OW71726   6.570   8.984  10.561
23298SOL    HW171727   6.648   8.941  10.596
23298SOL    HW271728   6.581   9.076  10.585
23299SOL     OW71729   9.106   2.736   7.866
23299SOL    HW171730   9.109   2.831   7.872
23299SOL    HW271731   9.134   2.717   7.776
23300SOL     OW71732   0.579   6.594   1.484
23300SOL    HW171733   0.530   6.675   1.470
23300SOL    HW271734   0.598   6.562   1.395
23301SOL     OW71735   0.492   6.481   9.563
23301SOL    HW171736   0.483   6.471   9.658
23301SOL    HW271737   0.527   6.397   9.533
23302SOL     OW71738   6.901   0.162   8.868
23302SOL    HW171739   6.818   0.203   8.890
23302SOL    HW271740   6.896   0.074   8.905
23303SOL     OW71741   4.150   9.379   8.235
23303SOL    HW171742   4.094   9.371   8.158
23303SOL    HW271743   4.192   9.465   8.225
23304SOL     OW71744  10.342  11.309   4.489
23304SOL    HW171745  10.247  11.309   4.477
23304SOL    HW271746  10.356  11.259   4.570
23305SOL     OW71747   1.506  13.887   1.561
23305SOL    HW171748   1.431  13.930   1.603
23305SOL    HW271749   1.492  13.901   1.468
23306SOL     OW71750  10.298   7.921   0.944
23306SOL    HW171751  10.222   7.962   0.901
23306SOL    HW271752  10.261   7.877   1.020
23307SOL     OW71753   8.734   8.976   9.284
23307SOL    HW171754   8.723   9.071   9.283
23307SOL    HW271755   8.649   8.942   9.312
23308SOL     OW71756  12.252   5.473   6.366
23308SOL    HW171757  12.304   5.436   6.437
23308SOL    HW271758  12.309   5.467   6.289
23309SOL     OW71759   8.676   3.781  13.969
23309SOL    HW171760   8.585   3.761  13.948
23309SOL    HW271761   8.722   3.777  13.885
23310SOL     OW71762  11.730  10.840   3.733
23310SOL    HW171763  11.680  10.774   3.685
23310SOL    HW271764  11.785  10.789   3.793
23311SOL     OW71765   1.187   6.272   2.672
23311SOL    HW171766   1.131   6.195   2.680
23311SOL    HW271767   1.273   6.236   2.651
23312SOL     OW71768  10.415  13.036   9.960
23312SOL    HW171769  10.465  13.079  10.030
23312SOL    HW271770  10.383  13.108   9.906
23313SOL     OW71771   6.622  12.181   6.382
23313SOL    HW171772   6.692  12.237   6.349
23313SOL    HW271773   6.667  12.118   6.438
23314SOL     OW71774   4.412  13.434   7.892
23314SOL    HW171775   4.319  13.431   7.915
23314SOL    HW271776   4.456  13.451   7.975
23315SOL     OW71777   5.664   3.123   8.007
23315SOL    HW171778   5.598   3.151   8.071
23315SOL    HW271779   5.747   3.152   8.046
23316SOL     OW71780   9.208   7.253   0.226
23316SOL    HW171781   9.123   7.293   0.244
23316SOL    HW271782   9.215   7.252   0.131
23317SOL     OW71783   9.346  14.457   0.682
23317SOL    HW171784   9.429  14.490   0.647
23317SOL    HW271785   9.280  14.517   0.647
23318SOL     OW71786  12.976   8.827   5.434
23318SOL    HW171787  12.941   8.739   5.418
23318SOL    HW271788  12.925   8.883   5.376
23319SOL     OW71789  10.208   8.227  10.538
23319SOL    HW171790  10.251   8.153  10.581
23319SOL    HW271791  10.134   8.188  10.492
23320SOL     OW71792  11.717   6.323   0.124
23320SOL    HW171793  11.654   6.254   0.101
23320SOL    HW271794  11.728   6.373   0.043
23321SOL     OW71795   0.664   6.992  11.040
23321SOL    HW171796   0.588   7.019  10.988
23321SOL    HW271797   0.651   7.034  11.125
23322SOL     OW71798  12.291   4.896   7.661
23322SOL    HW171799  12.380   4.861   7.670
23322SOL    HW271800  12.301   4.990   7.679
23323SOL     OW71801   6.404  11.781   9.113
23323SOL    HW171802   6.428  11.748   9.027
23323SOL    HW271803   6.366  11.867   9.096
23324SOL     OW71804   6.449  11.946   3.216
23324SOL    HW171805   6.449  12.025   3.271
23324SOL    HW271806   6.522  11.894   3.249
23325SOL     OW71807   6.120   3.729   1.797
23325SOL    HW171808   6.199   3.781   1.781
23325SOL    HW271809   6.102   3.685   1.714
23326SOL     OW71810   5.787  12.794   6.217
23326SOL    HW171811   5.812  12.726   6.154
23326SOL    HW271812   5.745  12.747   6.289
23327SOL     OW71813   3.475   5.269   0.728
23327SOL    HW171814   3.497   5.340   0.788
23327SOL    HW271815   3.550   5.263   0.670
23328SOL     OW71816   5.307   9.023   3.058
23328SOL    HW171817   5.311   8.949   2.998
23328SOL    HW271818   5.244   8.996   3.125
23329SOL     OW71819   5.361   5.651   7.950
23329SOL    HW171820   5.336   5.739   7.975
23329SOL    HW271821   5.313   5.594   8.011
23330SOL     OW71822  10.644  10.474  10.079
23330SOL    HW171823  10.645  10.549  10.020
23330SOL    HW271824  10.736  10.462  10.105
23331SOL     OW71825  10.264   2.169  10.469
23331SOL    HW171826  10.257   2.111  10.394
23331SOL    HW271827  10.344   2.219  10.454
23332SOL     OW71828   3.823   8.102  12.591
23332SOL    HW171829   3.841   8.183  12.543
23332SOL    HW271830   3.729   8.089  12.582
23333SOL     OW71831   4.301  14.455  11.843
23333SOL    HW171832   4.370  14.498  11.792
23333SOL    HW271833   4.224  14.460  11.786
23334SOL     OW71834  12.867   7.324   6.486
23334SOL    HW171835  12.784   7.279   6.473
23334SOL    HW271836  12.930   7.275   6.434
23335SOL     OW71837   8.803   9.590   7.907
23335SOL    HW171838   8.783   9.656   7.841
23335SOL    HW271839   8.719   9.546   7.923
23336SOL     OW71840   9.392   3.368   6.168
23336SOL    HW171841   9.369   3.412   6.087
23336SOL    HW271842   9.379   3.434   6.236
23337SOL     OW71843  12.077  13.453   1.107
23337SOL    HW171844  12.002  13.397   1.123
23337SOL    HW271845  12.099  13.438   1.015
23338SOL     OW71846   3.469   2.766   5.536
23338SOL    HW171847   3.489   2.674   5.553
23338SOL    HW271848   3.523   2.788   5.460
23339SOL     OW71849  11.165   5.227   3.396
23339SOL    HW171850  11.211   5.242   3.314
23339SOL    HW271851  11.072   5.227   3.372
23340SOL     OW71852   6.880   1.785  10.811
23340SOL    HW171853   6.940   1.711  10.808
23340SOL    HW271854   6.937   1.862  10.816
23341SOL     OW71855   8.256  13.568  10.721
23341SOL    HW171856   8.190  13.535  10.660
23341SOL    HW271857   8.227  13.656  10.744
23342SOL     OW71858  10.085   6.828   5.180
23342SOL    HW171859  10.074   6.818   5.085
23342SOL    HW271860  10.168   6.784   5.199
23343SOL     OW71861   1.928  14.622  14.708
23343SOL    HW171862   2.006  14.573  14.681
23343SOL    HW271863   1.933  14.624  14.803
23344SOL     OW71864  10.112   2.804  14.558
23344SOL    HW171865  10.065   2.882  14.530
23344SOL    HW271866  10.140   2.761  14.477
23345SOL     OW71867  11.489   4.534   2.789
23345SOL    HW171868  11.521   4.560   2.702
23345SOL    HW271869  11.502   4.440   2.792
23346SOL     OW71870   5.528  14.733   2.652
23346SOL    HW171871   5.472  14.680   2.595
23346SOL    HW271872   5.548  14.676   2.726
23347SOL     OW71873   3.470  11.489   9.150
23347SOL    HW171874   3.466  11.436   9.230
23347SOL    HW271875   3.429  11.572   9.174
23348SOL     OW71876   6.928  11.091   5.441
23348SOL    HW171877   6.862  11.024   5.459
23348SOL    HW271878   6.913  11.158   5.507
23349SOL     OW71879   4.531   5.006   8.748
23349SOL    HW171880   4.492   5.082   8.791
23349SOL    HW271881   4.566   4.953   8.819
23350SOL     OW71882   8.891   0.142  10.035
23350SOL    HW171883   8.836   0.068  10.059
23350SOL    HW271884   8.946   0.109   9.964
23351SOL     OW71885   5.422  13.761   1.729
23351SOL    HW171886   5.492  13.790   1.788
23351SOL    HW271887   5.463  13.693   1.675
23352SOL     OW71888   1.937   4.537  14.287
23352SOL    HW171889   2.026   4.504  14.279
23352SOL    HW271890   1.912   4.518  14.378
23353SOL     OW71891   7.128   9.542  13.615
23353SOL    HW171892   7.208   9.592  13.629
23353SOL    HW271893   7.137   9.506  13.526
23354SOL     OW71894  10.197   2.872  12.414
23354SOL    HW171895  10.105   2.862  12.439
23354SOL    HW271896  10.194   2.926  12.335
23355SOL     OW71897  11.583  13.307   3.917
23355SOL    HW171898  11.491  13.335   3.917
23355SOL    HW271899  11.622  13.355   3.991
23356SOL     OW71900   2.266  10.969   2.727
23356SOL    HW171901   2.266  11.046   2.670
23356SOL    HW271902   2.337  10.914   2.695
23357SOL     OW71903   1.271   9.603   0.402
23357SOL    HW171904   1.303   9.678   0.451
23357SOL    HW271905   1.251   9.537   0.468
23358SOL     OW71906   0.782  10.610   8.863
23358SOL    HW171907   0.781  10.706   8.861
23358SOL    HW271908   0.859  10.586   8.812
23359SOL     OW71909   8.135  11.839   2.952
23359SOL    HW171910   8.075  11.782   3.000
23359SOL    HW271911   8.142  11.799   2.866
23360SOL     OW71912   6.794   7.835  11.884
23360SOL    HW171913   6.779   7.781  11.962
23360SOL    HW271914   6.751   7.918  11.905
23361SOL     OW71915  14.042   7.912   0.376
23361SOL    HW171916  14.066   7.996   0.415
23361SOL    HW271917  13.992   7.936   0.297
23362SOL     OW71918   2.671   0.145   0.801
23362SOL    HW171919   2.593   0.113   0.846
23362SOL    HW271920   2.700   0.070   0.748
23363SOL     OW71921   8.704   7.153   0.406
23363SOL    HW171922   8.775   7.140   0.343
23363SOL    HW271923   8.649   7.221   0.366
23364SOL     OW71924  11.252  10.780  11.220
23364SOL    HW171925  11.203  10.734  11.287
23364SOL    HW271926  11.344  10.773  11.247
23365SOL     OW71927  11.686   0.228   9.842
23365SOL    HW171928  11.665   0.230   9.935
23365SOL    HW271929  11.601   0.224   9.798
23366SOL     OW71930   5.362  14.831  10.955
23366SOL    HW171931   5.365  14.759  11.018
23366SOL    HW271932   5.451  14.867  10.956
23367SOL     OW71933   2.698   1.809   9.527
23367SOL    HW171934   2.761   1.809   9.599
23367SOL    HW271935   2.644   1.732   9.542
23368SOL     OW71936  10.987   4.952   5.731
23368SOL    HW171937  10.965   5.038   5.696
23368SOL    HW271938  11.078   4.938   5.706
23369SOL     OW71939   9.020  12.515   8.481
23369SOL    HW171940   9.066  12.463   8.414
23369SOL    HW271941   9.089  12.564   8.525
23370SOL     OW71942  14.227  12.939  10.639
23370SOL    HW171943  14.168  12.917  10.711
23370SOL    HW271944  14.245  13.032  10.651
23371SOL     OW71945   1.037   2.220  12.950
23371SOL    HW171946   1.042   2.249  12.859
23371SOL    HW271947   1.114   2.260  12.992
23372SOL     OW71948  13.648   7.259   6.420
23372SOL    HW171949  13.681   7.239   6.508
23372SOL    HW271950  13.602   7.342   6.430
23373SOL     OW71951   6.245  14.691   8.730
23373SOL    HW171952   6.305  14.762   8.755
23373SOL    HW271953   6.213  14.656   8.813
23374SOL     OW71954  11.971   1.570   7.256
23374SOL    HW171955  11.966   1.553   7.162
23374SOL    HW271956  12.064   1.563   7.277
23375SOL     OW71957  11.338   5.002  14.321
23375SOL    HW171958  11.380   5.016  14.406
23375SOL    HW271959  11.250   5.039  14.331
23376SOL     OW71960   4.104   9.152   8.846
23376SOL    HW171961   4.040   9.193   8.904
23376SOL    HW271962   4.189   9.175   8.883
23377SOL     OW71963   7.468   0.485   7.600
23377SOL    HW171964   7.383   0.496   7.642
23377SOL    HW271965   7.530   0.528   7.659
23378SOL     OW71966  11.219   5.445  13.657
23378SOL    HW171967  11.170   5.374  13.615
23378SOL    HW271968  11.247   5.408  13.741
23379SOL     OW71969   3.576   0.688  12.932
23379SOL    HW171970   3.576   0.652  12.844
23379SOL    HW271971   3.493   0.659  12.971
23380SOL     OW71972  13.756   7.193  14.566
23380SOL    HW171973  13.725   7.281  14.543
23380SOL    HW271974  13.699   7.134  14.516
23381SOL     OW71975   0.824   9.512  14.290
23381SOL    HW171976   0.821   9.588  14.348
23381SOL    HW271977   0.758   9.531  14.223
23382SOL     OW71978  13.231   9.085  14.194
23382SOL    HW171979  13.254   9.163  14.143
23382SOL    HW271980  13.309   9.030  14.190
23383SOL     OW71981  13.667   6.597   7.104
23383SOL    HW171982  13.697   6.509   7.127
23383SOL    HW271983  13.640   6.590   7.012
23384SOL     OW71984   1.409   3.101   5.069
23384SOL    HW171985   1.338   3.070   5.013
23384SOL    HW271986   1.391   3.062   5.154
23385SOL     OW71987  13.894   4.525   1.944
23385SOL    HW171988  13.985   4.496   1.940
23385SOL    HW271989  13.849   4.459   1.997
23386SOL     OW71990   7.741  10.211   5.166
23386SOL    HW171991   7.737  10.116   5.174
23386SOL    HW271992   7.701  10.229   5.080
23387SOL     OW71993  12.156   4.425  13.290
23387SOL    HW171994  12.067   4.459  13.296
23387SOL    HW271995  12.209   4.502  13.266
23388SOL     OW71996   9.561  14.126   7.906
23388SOL    HW171997   9.469  14.107   7.885
23388SOL    HW271998   9.579  14.209   7.863
23389SOL     OW71999  13.483   3.960   7.719
23389SOL    HW172000  13.449   3.981   7.632
23389SOL    HW272001  13.422   4.003   7.779
23390SOL     OW72002  10.234  11.863   3.458
23390SOL    HW172003  10.250  11.769   3.464
23390SOL    HW272004  10.277  11.889   3.376
23391SOL     OW72005   0.867   3.681  14.770
23391SOL    HW172006   0.825   3.598  14.794
23391SOL    HW272007   0.961   3.665  14.786
23392SOL     OW72008   3.802   6.001   7.824
23392SOL    HW172009   3.729   5.992   7.885
23392SOL    HW272010   3.761   6.015   7.739
23393SOL     OW72011   8.096   0.467   1.641
23393SOL    HW172012   8.040   0.401   1.600
23393SOL    HW272013   8.038   0.517   1.698
23394SOL     OW72014   9.905   7.690  12.017
23394SOL    HW172015   9.952   7.607  12.009
23394SOL    HW272016   9.819   7.673  11.978
23395SOL     OW72017  13.727   4.276  13.799
23395SOL    HW172018  13.822   4.267  13.791
23395SOL    HW272019  13.693   4.252  13.713
23396SOL     OW72020   5.698   9.100   5.084
23396SOL    HW172021   5.767   9.165   5.069
23396SOL    HW272022   5.736   9.039   5.146
23397SOL     OW72023  10.584   9.753   4.626
23397SOL    HW172024  10.568   9.755   4.532
23397SOL    HW272025  10.657   9.691   4.636
23398SOL     OW72026   2.785  11.359   6.294
23398SOL    HW172027   2.848  11.432   6.294
23398SOL    HW272028   2.812  11.305   6.220
23399SOL     OW72029  14.154  13.105   5.497
23399SOL    HW172030  14.086  13.079   5.560
23399SOL    HW272031  14.166  13.027   5.442
23400SOL     OW72032   8.323   5.827  13.846
23400SOL    HW172033   8.418   5.815  13.834
23400SOL    HW272034   8.313   5.922  13.853
23401SOL     OW72035   3.259  13.986   0.015
23401SOL    HW172036   3.171  14.015  14.871
23401SOL    HW272037   3.306  14.067   0.037
23402SOL     OW72038   2.623   4.210   7.371
23402SOL    HW172039   2.654   4.292   7.332
23402SOL    HW272040   2.667   4.205   7.456
23403SOL     OW72041   4.840   0.627   8.195
23403SOL    HW172042   4.899   0.557   8.224
23403SOL    HW272043   4.898   0.697   8.167
23404SOL     OW72044   9.875   3.902   8.596
23404SOL    HW172045   9.817   3.978   8.603
23404SOL    HW272046   9.825   3.838   8.545
23405SOL     OW72047  11.995   3.759   7.500
23405SOL    HW172048  11.938   3.793   7.569
23405SOL    HW272049  12.029   3.837   7.457
23406SOL     OW72050   1.950  13.328   5.880
23406SOL    HW172051   2.035  13.295   5.907
23406SOL    HW272052   1.904  13.252   5.844
23407SOL     OW72053   2.277  11.954   7.312
23407SOL    HW172054   2.222  11.876   7.303
23407SOL    HW272055   2.325  11.940   7.394
23408SOL     OW72056   8.217   3.356  12.797
23408SOL    HW172057   8.158   3.398  12.734
23408SOL    HW272058   8.200   3.263  12.787
23409SOL     OW72059  13.007   4.941   8.078
23409SOL    HW172060  12.918   4.908   8.089
23409SOL    HW272061  13.033   4.913   7.991
23410SOL     OW72062   3.407   8.569   7.714
23410SOL    HW172063   3.334   8.508   7.708
23410SOL    HW272064   3.396   8.628   7.640
23411SOL     OW72065   5.102  10.933   9.790
23411SOL    HW172066   5.193  10.933   9.759
23411SOL    HW272067   5.099  10.863   9.855
23412SOL     OW72068   1.086   3.302  12.522
23412SOL    HW172069   1.120   3.378  12.569
23412SOL    HW272070   1.016   3.337  12.467
23413SOL     OW72071   0.168  14.033   2.301
23413SOL    HW172072   0.192  13.975   2.229
23413SOL    HW272073   0.236  14.101   2.301
23414SOL     OW72074  12.570   5.119   1.141
23414SOL    HW172075  12.568   5.024   1.142
23414SOL    HW272076  12.663   5.141   1.148
23415SOL     OW72077   1.926   6.509   1.559
23415SOL    HW172078   2.015   6.528   1.530
23415SOL    HW272079   1.926   6.532   1.652
23416SOL     OW72080   3.436   3.218  11.320
23416SOL    HW172081   3.481   3.184  11.243
23416SOL    HW272082   3.494   3.287  11.353
23417SOL     OW72083   7.659   9.758   6.506
23417SOL    HW172084   7.621   9.730   6.423
23417SOL    HW272085   7.735   9.702   6.517
23418SOL     OW72086   6.341  12.009   5.024
23418SOL    HW172087   6.360  11.930   4.973
23418SOL    HW272088   6.273  12.053   4.973
23419SOL     OW72089   5.533   5.051   8.715
23419SOL    HW172090   5.613   5.010   8.746
23419SOL    HW272091   5.545   5.144   8.736
23420SOL     OW72092  14.481  14.117   1.963
23420SOL    HW172093  14.430  14.146   1.888
23420SOL    HW272094  14.442  14.034   1.988
23421SOL     OW72095   7.230  12.301   1.120
23421SOL    HW172096   7.206  12.242   1.049
23421SOL    HW272097   7.301  12.354   1.084
23422SOL     OW72098  10.602   3.798   1.597
23422SOL    HW172099  10.606   3.832   1.687
23422SOL    HW272100  10.541   3.856   1.552
23423SOL     OW72101   3.588   4.552   5.546
23423SOL    HW172102   3.600   4.647   5.546
23423SOL    HW272103   3.638   4.521   5.470
23424SOL     OW72104   8.305   1.987   7.487
23424SOL    HW172105   8.338   1.987   7.397
23424SOL    HW272106   8.230   2.047   7.485
23425SOL     OW72107   2.891   7.751   3.900
23425SOL    HW172108   2.959   7.813   3.926
23425SOL    HW272109   2.814   7.805   3.882
23426SOL     OW72110  12.762  12.497   9.516
23426SOL    HW172111  12.766  12.551   9.594
23426SOL    HW272112  12.791  12.410   9.545
23427SOL     OW72113   7.164  10.161  11.181
23427SOL    HW172114   7.213  10.235  11.216
23427SOL    HW272115   7.189  10.158  11.088
23428SOL     OW72116   7.788  13.044   7.687
23428SOL    HW172117   7.812  13.129   7.649
23428SOL    HW272118   7.792  12.984   7.613
23429SOL     OW72119   1.883   6.327  13.294
23429SOL    HW172120   1.920   6.393  13.236
23429SOL    HW272121   1.958   6.288  13.338
23430SOL     OW72122   6.714  12.904   8.300
23430SOL    HW172123   6.731  12.990   8.262
23430SOL    HW272124   6.790  12.851   8.275
23431SOL     OW72125   3.273   3.702  10.093
23431SOL    HW172126   3.281   3.613  10.126
23431SOL    HW272127   3.348   3.749  10.131
23432SOL     OW72128   4.948  12.523   1.219
23432SOL    HW172129   5.008  12.538   1.147
23432SOL    HW272130   4.953  12.429   1.235
23433SOL     OW72131   1.027   8.791   8.998
23433SOL    HW172132   0.939   8.764   9.023
23433SOL    HW272133   1.063   8.716   8.952
23434SOL     OW72134  10.462   5.490   7.731
23434SOL    HW172135  10.368   5.476   7.725
23434SOL    HW272136  10.480   5.562   7.670
23435SOL     OW72137   5.475  14.221   5.542
23435SOL    HW172138   5.553  14.189   5.588
23435SOL    HW272139   5.420  14.258   5.611
23436SOL     OW72140   1.098  14.617   2.450
23436SOL    HW172141   1.169  14.681   2.460
23436SOL    HW272142   1.121  14.545   2.508
23437SOL     OW72143   2.973  12.240   7.691
23437SOL    HW172144   2.995  12.173   7.626
23437SOL    HW272145   2.927  12.308   7.641
23438SOL     OW72146   6.706  13.221   4.147
23438SOL    HW172147   6.636  13.251   4.205
23438SOL    HW272148   6.703  13.125   4.153
23439SOL     OW72149   1.885   8.476   2.416
23439SOL    HW172150   1.879   8.504   2.324
23439SOL    HW272151   1.972   8.437   2.423
23440SOL     OW72152  14.333   6.078   9.159
23440SOL    HW172153  14.330   5.989   9.193
23440SOL    HW272154  14.412   6.117   9.198
23441SOL     OW72155  11.157   6.273   6.664
23441SOL    HW172156  11.228   6.336   6.674
23441SOL    HW272157  11.154   6.227   6.748
23442SOL     OW72158  10.132   8.461   0.162
23442SOL    HW172159  10.112   8.550   0.189
23442SOL    HW272160  10.197   8.430   0.226
23443SOL     OW72161  11.703   8.597   3.284
23443SOL    HW172162  11.767   8.666   3.300
23443SOL    HW272163  11.686   8.560   3.371
23444SOL     OW72164  11.488   4.857   0.823
23444SOL    HW172165  11.512   4.935   0.874
23444SOL    HW272166  11.525   4.873   0.736
23445SOL     OW72167  13.692   4.540  10.023
23445SOL    HW172168  13.779   4.511  10.050
23445SOL    HW272169  13.707   4.592   9.945
23446SOL     OW72170   3.741  10.427   1.119
23446SOL    HW172171   3.802  10.496   1.094
23446SOL    HW272172   3.783  10.383   1.193
23447SOL     OW72173   1.359   6.569   3.577
23447SOL    HW172174   1.280   6.609   3.540
23447SOL    HW272175   1.394   6.516   3.505
23448SOL     OW72176   6.821   3.385   4.443
23448SOL    HW172177   6.880   3.395   4.518
23448SOL    HW272178   6.790   3.295   4.449
23449SOL     OW72179   9.304   2.645   0.126
23449SOL    HW172180   9.338   2.699   0.197
23449SOL    HW272181   9.328   2.692   0.046
23450SOL     OW72182   7.262   5.546   9.051
23450SOL    HW172183   7.244   5.640   9.054
23450SOL    HW272184   7.186   5.508   9.006
23451SOL     OW72185   9.965  12.891  13.442
23451SOL    HW172186   9.962  12.798  13.418
23451SOL    HW272187  10.055  12.917  13.426
23452SOL     OW72188   4.966   5.579   3.029
23452SOL    HW172189   4.963   5.673   3.011
23452SOL    HW272190   4.911   5.567   3.106
23453SOL     OW72191   3.187  11.271   8.053
23453SOL    HW172192   3.173  11.176   8.062
23453SOL    HW272193   3.126  11.310   8.116
23454SOL     OW72194   2.032   1.538   6.779
23454SOL    HW172195   2.031   1.603   6.849
23454SOL    HW272196   1.968   1.571   6.716
23455SOL     OW72197   9.278   6.418   3.551
23455SOL    HW172198   9.193   6.423   3.595
23455SOL    HW272199   9.267   6.347   3.487
23456SOL     OW72200   6.572   0.541   1.774
23456SOL    HW172201   6.591   0.633   1.790
23456SOL    HW272202   6.599   0.497   1.855
23457SOL     OW72203  13.588  12.604  12.391
23457SOL    HW172204  13.648  12.529  12.387
23457SOL    HW272205  13.611  12.648  12.473
23458SOL     OW72206   3.964  10.328   8.539
23458SOL    HW172207   3.888  10.333   8.482
23458SOL    HW272208   4.030  10.383   8.496
23459SOL     OW72209   6.284   2.678  12.347
23459SOL    HW172210   6.291   2.676  12.251
23459SOL    HW272211   6.313   2.766  12.371
23460SOL     OW72212   1.166   1.940   8.853
23460SOL    HW172213   1.254   1.965   8.879
23460SOL    HW272214   1.173   1.848   8.827
23461SOL     OW72215   1.980   2.089   0.514
23461SOL    HW172216   2.064   2.129   0.493
23461SOL    HW272217   1.982   2.078   0.609
23462SOL     OW72218   3.158   2.083  12.267
23462SOL    HW172219   3.079   2.084  12.321
23462SOL    HW272220   3.216   2.021  12.311
23463SOL     OW72221   5.922   1.677  12.050
23463SOL    HW172222   5.961   1.653  11.966
23463SOL    HW272223   5.846   1.619  12.059
23464SOL     OW72224   1.820   6.063  13.292
23464SOL    HW172225   1.750   6.086  13.353
23464SOL    HW272226   1.829   6.139  13.235
23465SOL     OW72227  11.750   2.838   1.674
23465SOL    HW172228  11.664   2.799   1.690
23465SOL    HW272229  11.769   2.887   1.754
23466SOL     OW72230   2.464   3.756   9.863
23466SOL    HW172231   2.416   3.723   9.787
23466SOL    HW272232   2.534   3.693   9.877
23467SOL     OW72233  11.885   6.156   3.727
23467SOL    HW172234  11.868   6.250   3.722
23467SOL    HW272235  11.935   6.136   3.648
23468SOL     OW72236  12.250   9.294   0.530
23468SOL    HW172237  12.210   9.289   0.616
23468SOL    HW272238  12.247   9.205   0.496
23469SOL     OW72239   6.973  10.733   7.999
23469SOL    HW172240   6.998  10.641   7.992
23469SOL    HW272241   6.881  10.731   8.028
23470SOL     OW72242   2.388   9.175  14.774
23470SOL    HW172243   2.387   9.168  14.678
23470SOL    HW272244   2.479   9.190  14.796
23471SOL     OW72245   6.711   1.347  11.798
23471SOL    HW172246   6.755   1.269  11.764
23471SOL    HW272247   6.632   1.313  11.841
23472SOL     OW72248  13.251   0.421   7.400
23472SOL    HW172249  13.334   0.458   7.430
23472SOL    HW272250  13.239   0.343   7.455
23473SOL     OW72251   4.089   4.587  14.099
23473SOL    HW172252   4.090   4.504  14.148
23473SOL    HW272253   4.182   4.607  14.085
23474SOL     OW72254  11.643  12.300  11.957
23474SOL    HW172255  11.702  12.227  11.940
23474SOL    HW272256  11.664  12.364  11.889
23475SOL     OW72257   8.232  10.330   5.786
23475SOL    HW172258   8.289  10.253   5.786
23475SOL    HW272259   8.145  10.295   5.802
23476SOL     OW72260   2.607  12.951   4.925
23476SOL    HW172261   2.593  13.044   4.904
23476SOL    HW272262   2.677  12.951   4.990
23477SOL     OW72263   2.083  13.375   4.128
23477SOL    HW172264   2.058  13.326   4.207
23477SOL    HW272265   2.138  13.446   4.160
23478SOL     OW72266   7.815   1.792   7.351
23478SOL    HW172267   7.869   1.788   7.430
23478SOL    HW272268   7.775   1.706   7.344
23479SOL     OW72269   7.067   6.399   4.933
23479SOL    HW172270   7.066   6.329   4.998
23479SOL    HW272271   6.997   6.377   4.872
23480SOL     OW72272   8.612   9.925  13.171
23480SOL    HW172273   8.585   9.971  13.092
23480SOL    HW272274   8.648   9.842  13.140
23481SOL     OW72275   0.946   0.312   6.291
23481SOL    HW172276   1.008   0.242   6.271
23481SOL    HW272277   0.998   0.393   6.282
23482SOL     OW72278   6.976   0.724  13.158
23482SOL    HW172279   6.892   0.679  13.145
23482SOL    HW272280   6.953   0.807  13.199
23483SOL     OW72281  13.100   0.886   1.220
23483SOL    HW172282  13.091   0.969   1.174
23483SOL    HW272283  13.070   0.904   1.309
23484SOL     OW72284  14.308   2.644  12.315
23484SOL    HW172285  14.361   2.638  12.395
23484SOL    HW272286  14.333   2.727  12.276
23485SOL     OW72287   0.421   2.561   0.794
23485SOL    HW172288   0.354   2.535   0.731
23485SOL    HW272289   0.373   2.608   0.862
23486SOL     OW72290   7.261   9.066   0.712
23486SOL    HW172291   7.225   9.141   0.759
23486SOL    HW272292   7.214   9.066   0.628
23487SOL     OW72293   7.329  13.778   3.122
23487SOL    HW172294   7.246  13.788   3.075
23487SOL    HW272295   7.304  13.770   3.214
23488SOL     OW72296  13.215  11.287   2.617
23488SOL    HW172297  13.196  11.331   2.534
23488SOL    HW272298  13.292  11.334   2.650
23489SOL     OW72299  12.456   0.684   7.419
23489SOL    HW172300  12.537   0.656   7.460
23489SOL    HW272301  12.477   0.690   7.326
23490SOL     OW72302  13.407   3.525   2.334
23490SOL    HW172303  13.373   3.580   2.405
23490SOL    HW272304  13.497   3.555   2.323
23491SOL     OW72305   6.313   3.031   2.845
23491SOL    HW172306   6.288   3.072   2.763
23491SOL    HW272307   6.258   2.952   2.850
23492SOL     OW72308   7.476   0.461  14.222
23492SOL    HW172309   7.417   0.386  14.218
23492SOL    HW272310   7.419   0.537  14.229
23493SOL     OW72311  14.332   2.384   7.323
23493SOL    HW172312  14.272   2.325   7.277
23493SOL    HW272313  14.398   2.325   7.362
23494SOL     OW72314  10.107  13.350  12.610
23494SOL    HW172315  10.053  13.359  12.689
23494SOL    HW272316  10.186  13.400  12.629
23495SOL     OW72317   2.066   4.762   1.172
23495SOL    HW172318   2.002   4.692   1.171
23495SOL    HW272319   2.151   4.718   1.180
23496SOL     OW72320   9.572  12.335   8.767
23496SOL    HW172321   9.501  12.399   8.761
23496SOL    HW272322   9.550  12.269   8.701
23497SOL     OW72323  14.000   1.883  12.517
23497SOL    HW172324  13.965   1.799  12.488
23497SOL    HW272325  14.095   1.869  12.522
23498SOL     OW72326   4.313   2.700  11.114
23498SOL    HW172327   4.382   2.745  11.064
23498SOL    HW272328   4.351   2.684  11.200
23499SOL     OW72329  11.289   2.930   1.253
23499SOL    HW172330  11.290   3.001   1.189
23499SOL    HW272331  11.284   2.850   1.200
23500SOL     OW72332   3.862   9.073   5.251
23500SOL    HW172333   3.927   9.141   5.270
23500SOL    HW272334   3.903   9.020   5.183
23501SOL     OW72335   1.067  10.272  13.498
23501SOL    HW172336   1.118  10.197  13.469
23501SOL    HW272337   1.124  10.348  13.484
23502SOL     OW72338  12.571  11.859   2.781
23502SOL    HW172339  12.583  11.890   2.870
23502SOL    HW272340  12.594  11.934   2.726
23503SOL     OW72341   9.105   8.363  13.564
23503SOL    HW172342   9.019   8.386  13.529
23503SOL    HW272343   9.088   8.339  13.655
23504SOL     OW72344  11.999   2.589   1.708
23504SOL    HW172345  12.000   2.591   1.804
23504SOL    HW272346  11.907   2.576   1.686
23505SOL     OW72347  13.335   8.652   5.406
23505SOL    HW172348  13.383   8.732   5.426
23505SOL    HW272349  13.344   8.598   5.485
23506SOL     OW72350   0.542   5.481   2.993
23506SOL    HW172351   0.487   5.505   2.918
23506SOL    HW272352   0.627   5.458   2.955
23507SOL     OW72353  10.363   7.888   0.577
23507SOL    HW172354  10.399   7.804   0.607
23507SOL    HW272355  10.416   7.912   0.501
23508SOL     OW72356  12.317  14.181   1.250
23508SOL    HW172357  12.348  14.090   1.251
23508SOL    HW272358  12.257  14.186   1.324
23509SOL     OW72359   0.920   0.203   0.689
23509SOL    HW172360   0.976   0.281   0.683
23509SOL    HW272361   0.837   0.230   0.650
23510SOL     OW72362   4.446  11.396  12.239
23510SOL    HW172363   4.438  11.301  12.244
23510SOL    HW272364   4.498  11.420  12.315
23511SOL     OW72365   4.394  12.698   7.742
23511SOL    HW172366   4.409  12.779   7.791
23511SOL    HW272367   4.341  12.725   7.667
23512SOL     OW72368  13.464   3.993   4.416
23512SOL    HW172369  13.484   4.022   4.327
23512SOL    HW272370  13.517   4.049   4.472
23513SOL     OW72371  11.238  10.620  11.929
23513SOL    HW172372  11.279  10.706  11.922
23513SOL    HW272373  11.146  10.639  11.947
23514SOL     OW72374  11.402  14.416   9.749
23514SOL    HW172375  11.469  14.397   9.683
23514SOL    HW272376  11.444  14.395   9.833
23515SOL     OW72377   5.792   4.751  14.259
23515SOL    HW172378   5.860   4.699  14.216
23515SOL    HW272379   5.817   4.750  14.352
23516SOL     OW72380   1.351   4.864   5.219
23516SOL    HW172381   1.367   4.958   5.211
23516SOL    HW272382   1.268   4.857   5.265
23517SOL     OW72383  10.837   6.860   2.790
23517SOL    HW172384  10.914   6.827   2.837
23517SOL    HW272385  10.787   6.781   2.768
23518SOL     OW72386   3.656   3.837  13.448
23518SOL    HW172387   3.734   3.863  13.497
23518SOL    HW272388   3.663   3.742  13.441
23519SOL     OW72389   7.097   1.841   6.264
23519SOL    HW172390   7.137   1.899   6.199
23519SOL    HW272391   7.096   1.893   6.345
23520SOL     OW72392   7.829   3.605   2.710
23520SOL    HW172393   7.812   3.699   2.722
23520SOL    HW272394   7.896   3.602   2.641
23521SOL     OW72395   8.031   6.964  12.118
23521SOL    HW172396   8.073   6.889  12.076
23521SOL    HW272397   8.094   7.035  12.107
23522SOL     OW72398   3.136   9.422  11.308
23522SOL    HW172399   3.122   9.352  11.371
23522SOL    HW272400   3.050   9.435  11.267
23523SOL     OW72401   4.503  14.296   1.290
23523SOL    HW172402   4.474  14.387   1.289
23523SOL    HW272403   4.599  14.302   1.284
23524SOL     OW72404   0.235   5.078   8.585
23524SOL    HW172405   0.188   5.158   8.611
23524SOL    HW272406   0.205   5.012   8.647
23525SOL     OW72407   6.985   4.580  14.495
23525SOL    HW172408   7.051   4.641  14.464
23525SOL    HW272409   6.918   4.580  14.426
23526SOL     OW72410  12.350   3.368   9.567
23526SOL    HW172411  12.391   3.452   9.544
23526SOL    HW272412  12.256   3.386   9.565
23527SOL     OW72413  12.340  12.030   4.550
23527SOL    HW172414  12.314  11.963   4.486
23527SOL    HW272415  12.283  12.104   4.531
23528SOL     OW72416   6.556   2.590   9.874
23528SOL    HW172417   6.539   2.601   9.780
23528SOL    HW272418   6.518   2.504   9.895
23529SOL     OW72419   7.699  12.403  10.589
23529SOL    HW172420   7.679  12.496  10.589
23529SOL    HW272421   7.716  12.382  10.681
23530SOL     OW72422   3.496   9.350   5.054
23530SOL    HW172423   3.506   9.275   5.113
23530SOL    HW272424   3.539   9.322   4.973
23531SOL     OW72425   9.065   6.178  11.962
23531SOL    HW172426   9.046   6.172  12.055
23531SOL    HW272427   9.151   6.137  11.952
23532SOL     OW72428  13.207   9.183   3.754
23532SOL    HW172429  13.239   9.202   3.842
23532SOL    HW272430  13.128   9.131   3.769
23533SOL     OW72431  11.141   5.704   1.181
23533SOL    HW172432  11.177   5.733   1.097
23533SOL    HW272433  11.100   5.782   1.218
23534SOL     OW72434   2.152  13.031   6.921
23534SOL    HW172435   2.115  13.001   7.003
23534SOL    HW272436   2.124  12.966   6.856
23535SOL     OW72437  11.851   7.305  13.424
23535SOL    HW172438  11.822   7.292  13.334
23535SOL    HW272439  11.806   7.237  13.474
23536SOL     OW72440  14.290   7.527  12.272
23536SOL    HW172441  14.386   7.521  12.271
23536SOL    HW272442  14.263   7.481  12.192
23537SOL     OW72443   9.295   6.294  12.935
23537SOL    HW172444   9.285   6.199  12.929
23537SOL    HW272445   9.289   6.325  12.845
23538SOL     OW72446  11.927   1.397   7.019
23538SOL    HW172447  11.986   1.375   7.090
23538SOL    HW272448  11.865   1.324   7.015
23539SOL     OW72449   8.382   3.627  13.057
23539SOL    HW172450   8.320   3.700  13.056
23539SOL    HW272451   8.440   3.642  12.983
23540SOL     OW72452   4.530   4.170   1.462
23540SOL    HW172453   4.504   4.120   1.385
23540SOL    HW272454   4.587   4.239   1.428
23541SOL     OW72455   5.890  11.372   8.366
23541SOL    HW172456   5.885  11.411   8.278
23541SOL    HW272457   5.900  11.447   8.424
23542SOL     OW72458   7.989  12.496  13.015
23542SOL    HW172459   7.913  12.437  13.015
23542SOL    HW272460   7.958  12.575  13.059
23543SOL     OW72461   8.207   4.253   9.958
23543SOL    HW172462   8.209   4.308  10.036
23543SOL    HW272463   8.114   4.238   9.941
23544SOL     OW72464   0.625   9.000  12.011
23544SOL    HW172465   0.687   9.030  12.077
23544SOL    HW272466   0.603   9.079  11.962
23545SOL     OW72467   5.161   7.881   4.213
23545SOL    HW172468   5.161   7.800   4.263
23545SOL    HW272469   5.223   7.866   4.141
23546SOL     OW72470   7.656   7.924   5.654
23546SOL    HW172471   7.635   7.859   5.720
23546SOL    HW272472   7.676   8.003   5.704
23547SOL     OW72473  10.508   7.552  11.514
23547SOL    HW172474  10.580   7.535  11.454
23547SOL    HW272475  10.463   7.468  11.523
23548SOL     OW72476   3.291  12.284   9.013
23548SOL    HW172477   3.240  12.362   8.993
23548SOL    HW272478   3.226  12.220   9.042
23549SOL     OW72479   1.329   3.113   4.799
23549SOL    HW172480   1.334   3.128   4.705
23549SOL    HW272481   1.283   3.030   4.808
23550SOL     OW72482   3.957  13.083   0.754
23550SOL    HW172483   3.941  13.010   0.815
23550SOL    HW272484   4.009  13.044   0.683
23551SOL     OW72485   2.224   5.890   6.994
23551SOL    HW172486   2.176   5.847   7.065
23551SOL    HW272487   2.155   5.921   6.935
23552SOL     OW72488  11.493   7.792   8.868
23552SOL    HW172489  11.536   7.713   8.835
23552SOL    HW272490  11.400   7.778   8.849
23553SOL     OW72491   4.979   4.311   2.084
23553SOL    HW172492   5.043   4.337   2.150
23553SOL    HW272493   4.954   4.222   2.109
23554SOL     OW72494   7.369   1.520  12.530
23554SOL    HW172495   7.380   1.615  12.535
23554SOL    HW272496   7.446   1.489  12.483
23555SOL     OW72497  12.040   6.029   6.425
23555SOL    HW172498  12.108   6.045   6.491
23555SOL    HW272499  12.083   5.973   6.360
23556SOL     OW72500  13.005  12.327   0.188
23556SOL    HW172501  13.002  12.418   0.216
23556SOL    HW272502  12.922  12.313   0.143
23557SOL     OW72503   7.191   3.901   5.564
23557SOL    HW172504   7.278   3.940   5.563
23557SOL    HW272505   7.134   3.967   5.524
23558SOL     OW72506  14.719   3.837   4.257
23558SOL    HW172507  14.630   3.805   4.276
23558SOL    HW272508  14.718   3.928   4.285
23559SOL     OW72509  12.554   1.131  11.491
23559SOL    HW172510  12.513   1.044  11.490
23559SOL    HW272511  12.647   1.114  11.506
23560SOL     OW72512   3.274   0.365   3.652
23560SOL    HW172513   3.362   0.396   3.630
23560SOL    HW272514   3.252   0.304   3.581
23561SOL     OW72515   8.418   4.466  14.679
23561SOL    HW172516   8.423   4.524  14.604
23561SOL    HW272517   8.334   4.421  14.670
23562SOL     OW72518  14.861   5.599  14.242
23562SOL    HW172519   0.003   5.559  14.158
23562SOL    HW272520   0.062   5.644  14.269
23563SOL     OW72521   6.095  13.587   6.436
23563SOL    HW172522   6.026  13.575   6.371
23563SOL    HW272523   6.131  13.499   6.449
23564SOL     OW72524   3.547   0.981   2.090
23564SOL    HW172525   3.488   0.998   2.017
23564SOL    HW272526   3.528   0.892   2.117
23565SOL     OW72527   5.764   9.114  11.330
23565SOL    HW172528   5.682   9.101  11.377
23565SOL    HW272529   5.818   9.166  11.390
23566SOL     OW72530   0.796   5.685   2.475
23566SOL    HW172531   0.773   5.608   2.528
23566SOL    HW272532   0.712   5.721   2.447
23567SOL     OW72533   1.939   5.934   3.330
23567SOL    HW172534   1.984   6.016   3.348
23567SOL    HW272535   1.858   5.960   3.286
23568SOL     OW72536   6.054  11.003  14.447
23568SOL    HW172537   5.979  11.042  14.402
23568SOL    HW272538   6.018  10.926  14.491
23569SOL     OW72539   9.761  10.945  14.162
23569SOL    HW172540   9.832  11.009  14.171
23569SOL    HW272541   9.695  10.971  14.226
23570SOL     OW72542   4.711   5.440   6.204
23570SOL    HW172543   4.795   5.424   6.246
23570SOL    HW272544   4.648   5.391   6.257
23571SOL     OW72545  10.109   6.490   3.174
23571SOL    HW172546  10.100   6.559   3.108
23571SOL    HW272547  10.194   6.508   3.216
23572SOL     OW72548   1.846   3.640   5.283
23572SOL    HW172549   1.778   3.593   5.235
23572SOL    HW272550   1.900   3.571   5.322
23573SOL     OW72551  10.374   3.810   5.250
23573SOL    HW172552  10.434   3.874   5.212
23573SOL    HW272553  10.293   3.859   5.263
23574SOL     OW72554   5.919   1.795   2.939
23574SOL    HW172555   5.951   1.732   3.004
23574SOL    HW272556   5.907   1.744   2.860
23575SOL     OW72557   2.359  12.157   2.686
23575SOL    HW172558   2.438  12.142   2.739
23575SOL    HW272559   2.374  12.108   2.606
23576SOL     OW72560   4.933  13.768  14.541
23576SOL    HW172561   4.975  13.682  14.543
23576SOL    HW272562   4.951  13.806  14.627
23577SOL     OW72563  13.274   0.267  11.271
23577SOL    HW172564  13.292   0.220  11.190
23577SOL    HW272565  13.191   0.313  11.254
23578SOL     OW72566  12.490   7.099   1.440
23578SOL    HW172567  12.528   7.018   1.409
23578SOL    HW272568  12.524   7.110   1.529
23579SOL     OW72569   4.020  12.589   9.228
23579SOL    HW172570   4.002  12.576   9.321
23579SOL    HW272571   3.966  12.664   9.203
23580SOL     OW72572  10.906   5.675  10.331
23580SOL    HW172573  10.878   5.615  10.262
23580SOL    HW272574  10.982   5.633  10.370
23581SOL     OW72575  11.662  12.781   7.749
23581SOL    HW172576  11.751  12.811   7.728
23581SOL    HW272577  11.606  12.824   7.684
23582SOL     OW72578   6.706   5.897  12.442
23582SOL    HW172579   6.693   5.987  12.473
23582SOL    HW272580   6.709   5.845  12.522
23583SOL     OW72581  14.134  11.221   8.048
23583SOL    HW172582  14.163  11.271   7.971
23583SOL    HW272583  14.065  11.275   8.086
23584SOL     OW72584   4.779   1.909  12.855
23584SOL    HW172585   4.834   1.954  12.919
23584SOL    HW272586   4.827   1.828  12.837
23585SOL     OW72587  13.146  10.889   7.228
23585SOL    HW172588  13.232  10.930   7.241
23585SOL    HW272589  13.159  10.827   7.156
23586SOL     OW72590   2.446   9.293   8.583
23586SOL    HW172591   2.392   9.265   8.509
23586SOL    HW272592   2.436   9.222   8.648
23587SOL     OW72593   0.528   6.742   0.375
23587SOL    HW172594   0.586   6.748   0.451
23587SOL    HW272595   0.565   6.671   0.323
23588SOL     OW72596   4.384   8.312  14.204
23588SOL    HW172597   4.413   8.354  14.123
23588SOL    HW272598   4.465   8.278  14.243
23589SOL     OW72599   3.077   9.493  10.284
23589SOL    HW172600   3.171   9.493  10.266
23589SOL    HW272601   3.065   9.425  10.349
23590SOL     OW72602   8.269   1.679  11.704
23590SOL    HW172603   8.322   1.628  11.642
23590SOL    HW272604   8.214   1.613  11.747
23591SOL     OW72605  12.035   3.209  14.716
23591SOL    HW172606  12.117   3.258  14.713
23591SOL    HW272607  12.062   3.118  14.704
23592SOL     OW72608  12.108   8.288  11.160
23592SOL    HW172609  12.186   8.321  11.206
23592SOL    HW272610  12.142   8.217  11.105
23593SOL     OW72611   4.817   4.412  13.994
23593SOL    HW172612   4.726   4.432  13.974
23593SOL    HW272613   4.865   4.433  13.914
23594SOL     OW72614   4.601   3.440  12.377
23594SOL    HW172615   4.687   3.474  12.402
23594SOL    HW272616   4.564   3.406  12.458
23595SOL     OW72617   4.769   9.655   1.216
23595SOL    HW172618   4.839   9.710   1.181
23595SOL    HW272619   4.693   9.677   1.163
23596SOL     OW72620   4.868   1.356   6.909
23596SOL    HW172621   4.902   1.357   6.820
23596SOL    HW272622   4.773   1.358   6.897
23597SOL     OW72623  14.599  11.067  10.137
23597SOL    HW172624  14.575  11.089  10.046
23597SOL    HW272625  14.541  10.994  10.160
23598SOL     OW72626   1.844  11.705   3.931
23598SOL    HW172627   1.822  11.790   3.967
23598SOL    HW272628   1.760  11.665   3.909
23599SOL     OW72629   8.203   8.909   8.395
23599SOL    HW172630   8.175   8.827   8.355
23599SOL    HW272631   8.295   8.918   8.370
23600SOL     OW72632   9.599  11.001   5.250
23600SOL    HW172633   9.646  10.935   5.199
23600SOL    HW272634   9.527  10.954   5.291
23601SOL     OW72635   4.242  12.586   1.115
23601SOL    HW172636   4.246  12.502   1.069
23601SOL    HW272637   4.171  12.576   1.177
23602SOL     OW72638   6.353   3.714   3.804
23602SOL    HW172639   6.335   3.732   3.712
23602SOL    HW272640   6.440   3.674   3.804
23603SOL     OW72641   6.314  12.732   1.410
23603SOL    HW172642   6.397  12.684   1.402
23603SOL    HW272643   6.253  12.683   1.356
23604SOL     OW72644   9.537   9.414  12.378
23604SOL    HW172645   9.442   9.410  12.368
23604SOL    HW272646   9.551   9.453  12.465
23605SOL     OW72647   4.295   3.320  12.039
23605SOL    HW172648   4.369   3.260  12.040
23605SOL    HW272649   4.268   3.326  12.130
23606SOL     OW72650   1.644  11.598  14.577
23606SOL    HW172651   1.600  11.682  14.583
23606SOL    HW272652   1.679  11.596  14.487
23607SOL     OW72653   4.527   9.439   6.415
23607SOL    HW172654   4.596   9.483   6.465
23607SOL    HW272655   4.454   9.430   6.477
23608SOL     OW72656   7.308   7.336   1.836
23608SOL    HW172657   7.259   7.413   1.807
23608SOL    HW272658   7.362   7.311   1.761
23609SOL     OW72659   9.750   7.587  13.250
23609SOL    HW172660   9.835   7.544  13.245
23609SOL    HW272661   9.704   7.539  13.319
23610SOL     OW72662  14.502   8.429  13.307
23610SOL    HW172663  14.581   8.376  13.319
23610SOL    HW272664  14.489   8.473  13.391
23611SOL     OW72665   2.378  13.188   5.026
23611SOL    HW172666   2.427  13.184   4.944
23611SOL    HW272667   2.338  13.275   5.026
23612SOL     OW72668   5.959   3.023   0.305
23612SOL    HW172669   5.876   3.070   0.307
23612SOL    HW272670   5.966   2.982   0.391
23613SOL     OW72671   9.393   2.528   0.516
23613SOL    HW172672   9.327   2.480   0.466
23613SOL    HW272673   9.385   2.494   0.605
23614SOL     OW72674   4.307  10.550   4.597
23614SOL    HW172675   4.312  10.632   4.547
23614SOL    HW272676   4.348  10.572   4.681
23615SOL     OW72677  10.880   3.300   8.416
23615SOL    HW172678  10.842   3.371   8.467
23615SOL    HW272679  10.858   3.321   8.325
23616SOL     OW72680  13.445  11.204  12.744
23616SOL    HW172681  13.461  11.178  12.835
23616SOL    HW272682  13.391  11.134  12.708
23617SOL     OW72683   3.276   6.612  11.299
23617SOL    HW172684   3.269   6.519  11.278
23617SOL    HW272685   3.326   6.614  11.381
23618SOL     OW72686   1.339   1.591   2.273
23618SOL    HW172687   1.350   1.686   2.268
23618SOL    HW272688   1.425   1.555   2.251
23619SOL     OW72689   9.569  11.258   8.449
23619SOL    HW172690   9.579  11.196   8.377
23619SOL    HW272691   9.506  11.217   8.508
23620SOL     OW72692   0.926   6.932  13.721
23620SOL    HW172693   1.008   6.974  13.745
23620SOL    HW272694   0.950   6.873  13.649
23621SOL     OW72695  11.218  13.796  12.108
23621SOL    HW172696  11.164  13.837  12.040
23621SOL    HW272697  11.165  13.803  12.188
23622SOL     OW72698   6.898   1.038   0.718
23622SOL    HW172699   6.914   1.041   0.623
23622SOL    HW272700   6.890   1.129   0.744
23623SOL     OW72701   2.206   4.368   3.601
23623SOL    HW172702   2.150   4.377   3.524
23623SOL    HW272703   2.283   4.320   3.569
23624SOL     OW72704  14.174  10.235   0.176
23624SOL    HW172705  14.186  10.259   0.084
23624SOL    HW272706  14.125  10.153   0.173
23625SOL     OW72707   5.862  14.299   8.480
23625SOL    HW172708   5.837  14.371   8.423
23625SOL    HW272709   5.779  14.264   8.511
23626SOL     OW72710   0.504   6.252  12.313
23626SOL    HW172711   0.553   6.194  12.255
23626SOL    HW272712   0.533   6.340  12.289
23627SOL     OW72713   5.909  11.980   4.541
23627SOL    HW172714   5.825  11.936   4.551
23627SOL    HW272715   5.972  11.909   4.528
23628SOL     OW72716  13.886   3.519   6.218
23628SOL    HW172717  13.898   3.595   6.274
23628SOL    HW272718  13.956   3.459   6.244
23629SOL     OW72719   8.470   3.847   6.609
23629SOL    HW172720   8.477   3.929   6.561
23629SOL    HW272721   8.398   3.800   6.566
23630SOL     OW72722   0.787   8.967   1.271
23630SOL    HW172723   0.711   8.928   1.228
23630SOL    HW272724   0.751   9.019   1.343
23631SOL     OW72725   2.870   4.887   6.339
23631SOL    HW172726   2.858   4.931   6.423
23631SOL    HW272727   2.950   4.926   6.303
23632SOL     OW72728   3.670   9.909   9.272
23632SOL    HW172729   3.645   9.959   9.350
23632SOL    HW272730   3.641   9.964   9.199
23633SOL     OW72731   4.874   6.282   0.838
23633SOL    HW172732   4.938   6.263   0.907
23633SOL    HW272733   4.922   6.338   0.776
23634SOL     OW72734  10.123   0.462  13.668
23634SOL    HW172735  10.041   0.489  13.709
23634SOL    HW272736  10.141   0.375  13.704
23635SOL     OW72737  12.614  13.477   9.109
23635SOL    HW172738  12.698  13.516   9.136
23635SOL    HW272739  12.587  13.424   9.184
23636SOL     OW72740   8.228   9.820  12.492
23636SOL    HW172741   8.172   9.773  12.554
23636SOL    HW272742   8.284   9.752  12.455
23637SOL     OW72743   4.459   3.087   4.680
23637SOL    HW172744   4.454   3.141   4.601
23637SOL    HW272745   4.368   3.072   4.704
23638SOL     OW72746   6.028  14.514   9.615
23638SOL    HW172747   6.006  14.587   9.672
23638SOL    HW272748   5.968  14.444   9.640
23639SOL     OW72749  12.566   7.489   7.357
23639SOL    HW172750  12.561   7.396   7.377
23639SOL    HW272751  12.654   7.502   7.323
23640SOL     OW72752   2.411   2.771   0.095
23640SOL    HW172753   2.366   2.711   0.036
23640SOL    HW272754   2.457   2.832   0.037
23641SOL     OW72755   9.776   8.905   3.248
23641SOL    HW172756   9.852   8.854   3.220
23641SOL    HW272757   9.734   8.851   3.315
23642SOL     OW72758   2.457   7.865  10.146
23642SOL    HW172759   2.393   7.795  10.134
23642SOL    HW272760   2.535   7.821  10.179
23643SOL     OW72761   2.784  10.249   0.918
23643SOL    HW172762   2.802  10.214   1.005
23643SOL    HW272763   2.772  10.172   0.862
23644SOL     OW72764  12.895   2.088  10.712
23644SOL    HW172765  12.946   2.138  10.777
23644SOL    HW272766  12.844   2.155  10.666
23645SOL     OW72767   2.691   4.639   4.220
23645SOL    HW172768   2.636   4.593   4.157
23645SOL    HW272769   2.642   4.635   4.303
23646SOL     OW72770  10.040   4.292   3.875
23646SOL    HW172771  10.087   4.219   3.836
23646SOL    HW272772  10.071   4.369   3.828
23647SOL     OW72773  14.339   2.827  13.679
23647SOL    HW172774  14.312   2.840  13.770
23647SOL    HW272775  14.391   2.905  13.658
23648SOL     OW72776  14.482   2.604   8.027
23648SOL    HW172777  14.519   2.658   7.958
23648SOL    HW272778  14.476   2.516   7.989
23649SOL     OW72779   3.635   6.772   5.267
23649SOL    HW172780   3.647   6.852   5.319
23649SOL    HW272781   3.646   6.801   5.176
23650SOL     OW72782  14.354   5.061  13.647
23650SOL    HW172783  14.282   5.071  13.710
23650SOL    HW272784  14.367   5.148  13.611
23651SOL     OW72785   3.029  10.798   8.781
23651SOL    HW172786   2.970  10.733   8.745
23651SOL    HW272787   3.083  10.826   8.707
23652SOL     OW72788   6.484   4.942   1.401
23652SOL    HW172789   6.405   4.925   1.452
23652SOL    HW272790   6.532   5.008   1.452
23653SOL     OW72791  10.127  13.015  14.613
23653SOL    HW172792  10.106  12.923  14.624
23653SOL    HW272793  10.186  13.018  14.538
23654SOL     OW72794   6.069   7.926   4.495
23654SOL    HW172795   6.062   7.837   4.529
23654SOL    HW272796   6.160   7.951   4.511
23655SOL     OW72797   3.491  11.335  13.601
23655SOL    HW172798   3.523  11.379  13.523
23655SOL    HW272799   3.411  11.382  13.624
23656SOL     OW72800   3.887   7.742   2.318
23656SOL    HW172801   3.866   7.657   2.356
23656SOL    HW272802   3.893   7.801   2.393
23657SOL     OW72803   0.632   5.354   4.008
23657SOL    HW172804   0.713   5.312   4.037
23657SOL    HW272805   0.634   5.440   4.050
23658SOL     OW72806   6.546   6.282   5.621
23658SOL    HW172807   6.569   6.210   5.562
23658SOL    HW272808   6.580   6.360   5.577
23659SOL     OW72809   7.376  12.556   8.126
23659SOL    HW172810   7.358  12.553   8.220
23659SOL    HW272811   7.459  12.603   8.119
23660SOL     OW72812   8.698   9.375  12.455
23660SOL    HW172813   8.771   9.321  12.485
23660SOL    HW272814   8.693   9.359  12.360
23661SOL     OW72815   0.698   9.721   7.458
23661SOL    HW172816   0.683   9.635   7.499
23661SOL    HW272817   0.634   9.779   7.500
23662SOL     OW72818  10.824  10.521  14.854
23662SOL    HW172819  10.889  10.507   0.044
23662SOL    HW272820  10.761  10.582   0.013
23663SOL     OW72821   3.013  10.900   9.189
23663SOL    HW172822   3.002  10.833   9.256
23663SOL    HW272823   2.926  10.911   9.150
23664SOL     OW72824   0.181   9.745   6.742
23664SOL    HW172825   0.145   9.748   6.654
23664SOL    HW272826   0.138   9.669   6.783
23665SOL     OW72827  14.017  12.121  12.449
23665SOL    HW172828  14.026  12.215  12.462
23665SOL    HW272829  14.053  12.082  12.529
23666SOL     OW72830  12.123   3.853  14.814
23666SOL    HW172831  12.191   3.792  14.844
23666SOL    HW272832  12.045   3.799  14.802
23667SOL     OW72833  11.827   6.695   8.943
23667SOL    HW172834  11.740   6.734   8.947
23667SOL    HW272835  11.844   6.665   9.032
23668SOL     OW72836  10.367   9.069   3.546
23668SOL    HW172837  10.330   9.036   3.464
23668SOL    HW272838  10.317   9.149   3.563
23669SOL     OW72839   2.360   4.950   5.151
23669SOL    HW172840   2.270   4.960   5.182
23669SOL    HW272841   2.371   4.856   5.138
23670SOL     OW72842  10.360  13.541   5.387
23670SOL    HW172843  10.387  13.454   5.417
23670SOL    HW272844  10.315  13.525   5.304
23671SOL     OW72845   4.987   3.439   1.463
23671SOL    HW172846   5.017   3.521   1.424
23671SOL    HW272847   4.896   3.430   1.434
23672SOL     OW72848  12.091  12.729   9.639
23672SOL    HW172849  12.009  12.778   9.641
23672SOL    HW272850  12.147  12.779   9.580
23673SOL     OW72851   9.254  14.788   6.721
23673SOL    HW172852   9.196  14.858   6.753
23673SOL    HW272853   9.224  14.710   6.768
23674SOL     OW72854   6.176   9.865   8.643
23674SOL    HW172855   6.156   9.787   8.592
23674SOL    HW272856   6.112   9.865   8.714
23675SOL     OW72857   2.076   2.758   1.338
23675SOL    HW172858   2.074   2.852   1.319
23675SOL    HW272859   2.089   2.717   1.252
23676SOL     OW72860   8.459   6.505   7.435
23676SOL    HW172861   8.527   6.437   7.430
23676SOL    HW272862   8.459   6.532   7.527
23677SOL     OW72863   9.815   0.675   6.874
23677SOL    HW172864   9.877   0.602   6.864
23677SOL    HW272865   9.843   0.720   6.953
23678SOL     OW72866   5.066   1.630  12.620
23678SOL    HW172867   5.037   1.564  12.557
23678SOL    HW272868   5.145   1.593  12.658
23679SOL     OW72869   9.546   7.166   7.265
23679SOL    HW172870   9.468   7.143   7.315
23679SOL    HW272871   9.598   7.086   7.264
23680SOL     OW72872   8.642   3.329   3.401
23680SOL    HW172873   8.589   3.403   3.373
23680SOL    HW272874   8.684   3.298   3.320
23681SOL     OW72875   0.296   3.670   6.212
23681SOL    HW172876   0.344   3.593   6.180
23681SOL    HW272877   0.287   3.726   6.134
23682SOL     OW72878   4.129   5.142   7.153
23682SOL    HW172879   4.042   5.109   7.172
23682SOL    HW272880   4.186   5.099   7.217
23683SOL     OW72881   4.339   2.818   7.161
23683SOL    HW172882   4.266   2.786   7.214
23683SOL    HW272883   4.299   2.857   7.084
23684SOL     OW72884   3.861   6.594   1.623
23684SOL    HW172885   3.849   6.587   1.717
23684SOL    HW272886   3.815   6.518   1.587
23685SOL     OW72887   9.437   7.958   4.865
23685SOL    HW172888   9.451   7.892   4.797
23685SOL    HW272889   9.357   7.930   4.909
23686SOL     OW72890   6.092   9.966  14.828
23686SOL    HW172891   6.115  10.008  14.745
23686SOL    HW272892   6.069   9.876  14.804
23687SOL     OW72893   2.726   8.349  11.594
23687SOL    HW172894   2.789   8.349  11.522
23687SOL    HW272895   2.649   8.304  11.558
23688SOL     OW72896   5.012  14.220   1.918
23688SOL    HW172897   5.029  14.128   1.899
23688SOL    HW272898   5.066  14.238   1.996
23689SOL     OW72899  12.462   0.452   6.657
23689SOL    HW172900  12.512   0.529   6.629
23689SOL    HW272901  12.497   0.431   6.744
23690SOL     OW72902  12.468  14.802   8.748
23690SOL    HW172903  12.521  14.777   8.823
23690SOL    HW272904  12.470   0.019   8.747
23691SOL     OW72905  10.848  13.507   1.129
23691SOL    HW172906  10.778  13.450   1.160
23691SOL    HW272907  10.925  13.481   1.180
23692SOL     OW72908   9.612   3.272   0.036
23692SOL    HW172909   9.557   3.340   0.075
23692SOL    HW272910   9.568   3.190   0.059
23693SOL     OW72911  10.991   2.653   0.008
23693SOL    HW172912  10.923   2.716  14.863
23693SOL    HW272913  11.066   2.707   0.033
23694SOL     OW72914   7.821   6.829  13.517
23694SOL    HW172915   7.886   6.863  13.578
23694SOL    HW272916   7.844   6.871  13.433
23695SOL     OW72917   9.813  12.818   3.702
23695SOL    HW172918   9.742  12.802   3.764
23695SOL    HW272919   9.787  12.898   3.656
23696SOL     OW72920  12.662   1.134  12.871
23696SOL    HW172921  12.717   1.212  12.874
23696SOL    HW272922  12.573   1.167  12.880
23697SOL     OW72923   5.569  10.531  11.814
23697SOL    HW172924   5.624  10.502  11.887
23697SOL    HW272925   5.496  10.578  11.855
23698SOL     OW72926   7.248  10.866   8.963
23698SOL    HW172927   7.268  10.781   9.002
23698SOL    HW272928   7.257  10.928   9.036
23699SOL     OW72929   1.877   5.060   7.721
23699SOL    HW172930   1.790   5.056   7.682
23699SOL    HW272931   1.911   4.971   7.711
23700SOL     OW72932  11.062   8.433   6.055
23700SOL    HW172933  10.982   8.426   6.107
23700SOL    HW272934  11.039   8.493   5.984
23701SOL     OW72935  11.190   2.186   6.704
23701SOL    HW172936  11.214   2.190   6.611
23701SOL    HW272937  11.135   2.108   6.711
23702SOL     OW72938   0.067   6.058   3.582
23702SOL    HW172939   0.093   6.063   3.490
23702SOL    HW272940   0.015   6.137   3.596
23703SOL     OW72941  11.790   6.609   2.168
23703SOL    HW172942  11.739   6.575   2.241
23703SOL    HW272943  11.869   6.645   2.209
23704SOL     OW72944  11.589   9.811   0.440
23704SOL    HW172945  11.571   9.721   0.467
23704SOL    HW272946  11.506   9.841   0.403
23705SOL     OW72947  13.994   8.179   7.620
23705SOL    HW172948  14.035   8.143   7.699
23705SOL    HW272949  13.912   8.130   7.611
23706SOL     OW72950   7.617   1.297  13.015
23706SOL    HW172951   7.623   1.225  12.952
23706SOL    HW272952   7.524   1.298  13.041
23707SOL     OW72953   0.165   3.375  13.601
23707SOL    HW172954   0.214   3.406  13.525
23707SOL    HW272955   0.184   3.282  13.606
23708SOL     OW72956   9.757  11.848   5.152
23708SOL    HW172957   9.684  11.793   5.125
23708SOL    HW272958   9.796  11.801   5.226
23709SOL     OW72959  13.157   2.389   9.569
23709SOL    HW172960  13.067   2.396   9.538
23709SOL    HW272961  13.179   2.297   9.558
23710SOL     OW72962   2.765  11.649   3.935
23710SOL    HW172963   2.758  11.720   3.871
23710SOL    HW272964   2.718  11.576   3.896
23711SOL     OW72965   3.361   5.837  12.127
23711SOL    HW172966   3.390   5.829  12.218
23711SOL    HW272967   3.300   5.765  12.115
23712SOL     OW72968  12.249   7.822  14.681
23712SOL    HW172969  12.258   7.801  14.588
23712SOL    HW272970  12.177   7.766  14.710
23713SOL     OW72971   8.807  13.365   7.180
23713SOL    HW172972   8.772  13.426   7.245
23713SOL    HW272973   8.890  13.335   7.218
23714SOL     OW72974  10.639   6.099   1.528
23714SOL    HW172975  10.635   6.023   1.470
23714SOL    HW272976  10.720   6.087   1.578
23715SOL     OW72977   8.720   6.976  13.576
23715SOL    HW172978   8.769   6.969  13.494
23715SOL    HW272979   8.687   6.888  13.593
23716SOL     OW72980  12.554   8.488  12.887
23716SOL    HW172981  12.548   8.550  12.959
23716SOL    HW272982  12.622   8.426  12.915
23717SOL     OW72983  12.283   7.792   6.777
23717SOL    HW172984  12.256   7.836   6.696
23717SOL    HW272985  12.285   7.699   6.755
23718SOL     OW72986   1.614  10.310   6.007
23718SOL    HW172987   1.541  10.277   6.059
23718SOL    HW272988   1.574  10.376   5.949
23719SOL     OW72989  10.267   7.833   5.536
23719SOL    HW172990  10.264   7.885   5.456
23719SOL    HW272991  10.180   7.793   5.543
23720SOL     OW72992  12.100  13.340   6.989
23720SOL    HW172993  12.072  13.277   6.922
23720SOL    HW272994  12.049  13.419   6.970
23721SOL     OW72995   8.763   5.175  11.881
23721SOL    HW172996   8.816   5.228  11.942
23721SOL    HW272997   8.693   5.234  11.853
23722SOL     OW72998   5.716  11.418   9.465
23722SOL    HW172999   5.729  11.508   9.496
23722SOL    HW273000   5.766  11.364   9.526
23723SOL     OW73001   6.682  11.549   0.296
23723SOL    HW173002   6.680  11.618   0.362
23723SOL    HW273003   6.667  11.468   0.345
23724SOL     OW73004   7.077  10.242   2.175
23724SOL    HW173005   7.168  10.251   2.148
23724SOL    HW273006   7.060  10.148   2.172
23725SOL     OW73007   7.998  13.568   0.562
23725SOL    HW173008   8.068  13.532   0.617
23725SOL    HW273009   7.987  13.658   0.593
23726SOL     OW73010  12.972   9.191   6.100
23726SOL    HW173011  13.030   9.135   6.050
23726SOL    HW273012  12.884   9.165   6.072
23727SOL     OW73013   7.258   6.079  10.965
23727SOL    HW173014   7.229   5.988  10.969
23727SOL    HW273015   7.198   6.122  10.904
23728SOL     OW73016   4.583  11.079   0.717
23728SOL    HW173017   4.490  11.071   0.698
23728SOL    HW273018   4.589  11.152   0.779
23729SOL     OW73019   4.042   5.799  13.846
23729SOL    HW173020   4.095   5.820  13.923
23729SOL    HW273021   3.974   5.739  13.878
23730SOL     OW73022   6.624   0.943   5.269
23730SOL    HW173023   6.535   0.910   5.260
23730SOL    HW273024   6.615   1.038   5.275
23731SOL     OW73025  12.388   1.347   6.410
23731SOL    HW173026  12.403   1.275   6.349
23731SOL    HW273027  12.363   1.305   6.491
23732SOL     OW73028   2.678   9.007  12.176
23732SOL    HW173029   2.740   9.060  12.126
23732SOL    HW273030   2.683   8.920  12.136
23733SOL     OW73031  11.532  10.615  13.493
23733SOL    HW173032  11.514  10.584  13.405
23733SOL    HW273033  11.626  10.638  13.491
23734SOL     OW73034   1.022   2.429   9.250
23734SOL    HW173035   0.949   2.369   9.264
23734SOL    HW273036   0.986   2.497   9.192
23735SOL     OW73037  10.554   5.604   2.217
23735SOL    HW173038  10.572   5.520   2.174
23735SOL    HW273039  10.550   5.583   2.310
23736SOL     OW73040   2.734   7.232  13.873
23736SOL    HW173041   2.663   7.295  13.888
23736SOL    HW273042   2.813   7.279  13.899
23737SOL     OW73043  11.224   7.588   9.207
23737SOL    HW173044  11.314   7.600   9.176
23737SOL    HW273045  11.210   7.661   9.268
23738SOL     OW73046   8.180  12.161  12.838
23738SOL    HW173047   8.260  12.119  12.807
23738SOL    HW273048   8.205  12.206  12.918
23739SOL     OW73049   8.077   8.059  13.164
23739SOL    HW173050   8.103   8.064  13.256
23739SOL    HW273051   8.057   8.149  13.140
23740SOL     OW73052  14.098  14.498   6.976
23740SOL    HW173053  14.115  14.414   7.017
23740SOL    HW273054  14.088  14.559   7.050
23741SOL     OW73055  11.364  11.353   4.836
23741SOL    HW173056  11.295  11.419   4.834
23741SOL    HW273057  11.327  11.278   4.789
23742SOL     OW73058   9.421  11.345   3.261
23742SOL    HW173059   9.376  11.305   3.187
23742SOL    HW273060   9.491  11.397   3.221
23743SOL     OW73061   2.527   1.059   2.855
23743SOL    HW173062   2.551   0.991   2.793
23743SOL    HW273063   2.503   1.134   2.800
23744SOL     OW73064  11.867  10.520   1.665
23744SOL    HW173065  11.909  10.496   1.748
23744SOL    HW273066  11.847  10.613   1.675
23745SOL     OW73067   1.964   0.478  10.770
23745SOL    HW173068   2.016   0.550  10.805
23745SOL    HW273069   1.993   0.401  10.820
23746SOL     OW73070   0.062  10.763   5.740
23746SOL    HW173071  14.869  10.789   5.684
23746SOL    HW273072   0.139  10.808   5.704
23747SOL     OW73073   9.434   8.073   6.456
23747SOL    HW173074   9.389   8.141   6.406
23747SOL    HW273075   9.513   8.055   6.405
23748SOL     OW73076  12.537  10.442   6.034
23748SOL    HW173077  12.571  10.397   6.111
23748SOL    HW273078  12.488  10.375   5.987
23749SOL     OW73079   8.725   1.005  12.795
23749SOL    HW173080   8.761   1.090  12.820
23749SOL    HW273081   8.790   0.942  12.826
23750SOL     OW73082  11.007  11.602  11.560
23750SOL    HW173083  11.099  11.625  11.545
23750SOL    HW273084  10.986  11.641  11.645
23751SOL     OW73085   1.557  11.666   0.744
23751SOL    HW173086   1.568  11.594   0.683
23751SOL    HW273087   1.525  11.625   0.824
23752SOL     OW73088   7.067   3.715   2.323
23752SOL    HW173089   7.131   3.770   2.369
23752SOL    HW273090   7.120   3.656   2.269
23753SOL     OW73091   3.131   4.217   1.303
23753SOL    HW173092   3.053   4.215   1.358
23753SOL    HW273093   3.100   4.195   1.215
23754SOL     OW73094   5.357  12.406   7.422
23754SOL    HW173095   5.327  12.323   7.384
23754SOL    HW273096   5.316  12.407   7.509
23755SOL     OW73097   8.217   2.733   0.404
23755SOL    HW173098   8.156   2.669   0.441
23755SOL    HW273099   8.179   2.818   0.425
23756SOL     OW73100   6.220  10.401  13.865
23756SOL    HW173101   6.144  10.453  13.889
23756SOL    HW273102   6.208  10.319  13.913
23757SOL     OW73103   8.915  10.586   2.250
23757SOL    HW173104   8.964  10.607   2.329
23757SOL    HW273105   8.982  10.580   2.181
23758SOL     OW73106   2.478  12.101   4.208
23758SOL    HW173107   2.560  12.145   4.189
23758SOL    HW273108   2.480  12.021   4.156
23759SOL     OW73109   8.746  13.625   4.453
23759SOL    HW173110   8.757  13.671   4.537
23759SOL    HW273111   8.820  13.654   4.400
23760SOL     OW73112   6.866   9.638   8.314
23760SOL    HW173113   6.798   9.600   8.370
23760SOL    HW273114   6.833   9.724   8.290
23761SOL     OW73115  14.043   9.442   8.129
23761SOL    HW173116  14.003   9.403   8.207
23761SOL    HW273117  14.107   9.504   8.164
23762SOL     OW73118  13.405   6.662   6.123
23762SOL    HW173119  13.481   6.616   6.087
23762SOL    HW273120  13.332   6.635   6.068
23763SOL     OW73121   2.619  10.916   7.891
23763SOL    HW173122   2.611  10.820   7.885
23763SOL    HW273123   2.595  10.947   7.803
23764SOL     OW73124   9.264   3.340   7.684
23764SOL    HW173125   9.244   3.412   7.744
23764SOL    HW273126   9.318   3.379   7.616
23765SOL     OW73127  13.450   0.214   2.319
23765SOL    HW173128  13.534   0.178   2.289
23765SOL    HW273129  13.420   0.268   2.246
23766SOL     OW73130  10.696  11.026   2.594
23766SOL    HW173131  10.653  11.008   2.678
23766SOL    HW273132  10.692  11.121   2.584
23767SOL     OW73133   5.981   3.455   0.755
23767SOL    HW173134   5.988   3.551   0.754
23767SOL    HW273135   5.935   3.436   0.837
23768SOL     OW73136   8.321   5.070   4.158
23768SOL    HW173137   8.247   5.108   4.206
23768SOL    HW273138   8.350   4.997   4.212
23769SOL     OW73139   6.094   6.232  12.939
23769SOL    HW173140   6.131   6.158  12.988
23769SOL    HW273141   6.162   6.299  12.942
23770SOL     OW73142   1.534   6.292  12.329
23770SOL    HW173143   1.561   6.263  12.242
23770SOL    HW273144   1.560   6.220  12.387
23771SOL     OW73145   1.750   0.549   7.774
23771SOL    HW173146   1.670   0.556   7.722
23771SOL    HW273147   1.757   0.456   7.796
23772SOL     OW73148  11.205  14.086  13.650
23772SOL    HW173149  11.215  14.180  13.664
23772SOL    HW273150  11.208  14.074  13.555
23773SOL     OW73151   0.589  13.924  14.654
23773SOL    HW173152   0.513  13.908  14.709
23773SOL    HW273153   0.664  13.911  14.711
23774SOL     OW73154  11.923  11.145   4.793
23774SOL    HW173155  11.960  11.168   4.708
23774SOL    HW273156  11.831  11.172   4.787
23775SOL     OW73157   7.792  10.632  14.381
23775SOL    HW173158   7.859  10.700  14.393
23775SOL    HW273159   7.717  10.679  14.344
23776SOL     OW73160   2.495   8.725   0.838
23776SOL    HW173161   2.494   8.630   0.825
23776SOL    HW273162   2.486   8.737   0.932
23777SOL     OW73163   0.981   1.178   3.753
23777SOL    HW173164   1.047   1.110   3.738
23777SOL    HW273165   0.913   1.134   3.805
23778SOL     OW73166  12.260   4.666   4.405
23778SOL    HW173167  12.235   4.584   4.447
23778SOL    HW273168  12.207   4.732   4.449
23779SOL     OW73169   9.083   6.352  14.773
23779SOL    HW173170   9.008   6.412  14.778
23779SOL    HW273171   9.064   6.297  14.697
23780SOL     OW73172   2.469  13.114   3.173
23780SOL    HW173173   2.455  13.020   3.185
23780SOL    HW273174   2.543  13.135   3.230
23781SOL     OW73175   6.801   3.062   8.202
23781SOL    HW173176   6.786   2.997   8.133
23781SOL    HW273177   6.894   3.053   8.224
23782SOL     OW73178   3.154   8.555   5.956
23782SOL    HW173179   3.204   8.621   6.005
23782SOL    HW273180   3.156   8.586   5.866
23783SOL     OW73181   7.994  12.904   0.873
23783SOL    HW173182   8.059  12.871   0.935
23783SOL    HW273183   7.966  12.827   0.825
23784SOL     OW73184   0.359   2.599  14.411
23784SOL    HW173185   0.283   2.654  14.392
23784SOL    HW273186   0.333   2.548  14.488
23785SOL     OW73187   7.689   6.944   8.011
23785SOL    HW173188   7.677   7.012   7.945
23785SOL    HW273189   7.766   6.970   8.060
23786SOL     OW73190  13.238   4.607  14.786
23786SOL    HW173191  13.186   4.682  14.813
23786SOL    HW273192  13.229   4.543  14.857
23787SOL     OW73193  11.839  12.573  14.052
23787SOL    HW173194  11.883  12.516  14.115
23787SOL    HW273195  11.806  12.646  14.104
23788SOL     OW73196   1.281   5.499  10.453
23788SOL    HW173197   1.327   5.429  10.500
23788SOL    HW273198   1.269   5.463  10.365
23789SOL     OW73199  11.621   1.115  12.341
23789SOL    HW173200  11.569   1.055  12.394
23789SOL    HW273201  11.638   1.189  12.398
23790SOL     OW73202  10.281   7.588   4.805
23790SOL    HW173203  10.240   7.503   4.822
23790SOL    HW273204  10.209   7.646   4.783
23791SOL     OW73205   2.055   8.822   6.856
23791SOL    HW173206   2.022   8.895   6.802
23791SOL    HW273207   2.011   8.745   6.821
23792SOL     OW73208   7.506   0.015   1.315
23792SOL    HW173209   7.509   0.106   1.287
23792SOL    HW273210   7.429   0.009   1.371
23793SOL     OW73211   2.973  11.154  13.989
23793SOL    HW173212   2.971  11.232  13.933
23793SOL    HW273213   2.882  11.124  13.992
23794SOL     OW73214  14.557   3.766  12.483
23794SOL    HW173215  14.462   3.772  12.473
23794SOL    HW273216  14.570   3.712  12.561
23795SOL     OW73217   2.484  12.041   2.446
23795SOL    HW173218   2.405  11.995   2.417
23795SOL    HW273219   2.553  12.012   2.386
23796SOL     OW73220  12.827   1.833  14.403
23796SOL    HW173221  12.819   1.747  14.362
23796SOL    HW273222  12.920   1.851  14.403
23797SOL     OW73223  14.366  13.957   9.998
23797SOL    HW173224  14.444  14.002   9.965
23797SOL    HW273225  14.300  13.972   9.931
23798SOL     OW73226   1.258  10.066   7.637
23798SOL    HW173227   1.268   9.972   7.625
23798SOL    HW273228   1.318  10.087   7.709
23799SOL     OW73229   0.798   0.665   8.751
23799SOL    HW173230   0.782   0.624   8.666
23799SOL    HW273231   0.744   0.744   8.750
23800SOL     OW73232  11.320   3.094   4.425
23800SOL    HW173233  11.231   3.059   4.429
23800SOL    HW273234  11.315   3.167   4.364
23801SOL     OW73235  13.676   2.634   0.058
23801SOL    HW173236  13.643   2.591   0.137
23801SOL    HW273237  13.647   2.578  14.865
23802SOL     OW73238   6.753   7.808  12.871
23802SOL    HW173239   6.762   7.903  12.866
23802SOL    HW273240   6.672   7.794  12.921
23803SOL     OW73241   2.379   7.726   3.051
23803SOL    HW173242   2.449   7.693   2.994
23803SOL    HW273243   2.299   7.685   3.017
23804SOL     OW73244  10.782   8.852   0.106
23804SOL    HW173245  10.721   8.887   0.171
23804SOL    HW273246  10.815   8.929   0.061
23805SOL     OW73247   1.926  13.973   9.223
23805SOL    HW173248   2.013  13.998   9.256
23805SOL    HW273249   1.918  13.880   9.244
23806SOL     OW73250   7.690   1.006  14.484
23806SOL    HW173251   7.677   1.063  14.560
23806SOL    HW273252   7.603   0.969  14.467
23807SOL     OW73253   1.453  11.554   7.083
23807SOL    HW173254   1.458  11.645   7.054
23807SOL    HW273255   1.510  11.550   7.159
23808SOL     OW73256   8.811   2.731  12.728
23808SOL    HW173257   8.818   2.811  12.781
23808SOL    HW273258   8.872   2.670  12.769
23809SOL     OW73259  13.195  11.253   3.139
23809SOL    HW173260  13.144  11.322   3.097
23809SOL    HW273261  13.184  11.268   3.232
23810SOL     OW73262   9.787  14.263   8.997
23810SOL    HW173263   9.698  14.272   8.965
23810SOL    HW273264   9.838  14.325   8.944
23811SOL     OW73265  13.898   1.494   3.809
23811SOL    HW173266  13.969   1.515   3.870
23811SOL    HW273267  13.834   1.447   3.861
23812SOL     OW73268   2.494   4.271   9.062
23812SOL    HW173269   2.451   4.273   8.976
23812SOL    HW273270   2.474   4.184   9.097
23813SOL     OW73271   3.649   4.521  10.820
23813SOL    HW173272   3.598   4.562  10.750
23813SOL    HW273273   3.735   4.562  10.814
23814SOL     OW73274   8.516   4.349  10.980
23814SOL    HW173275   8.589   4.296  11.011
23814SOL    HW273276   8.558   4.419  10.930
23815SOL     OW73277   7.272   1.786   7.414
23815SOL    HW173278   7.223   1.791   7.332
23815SOL    HW273279   7.320   1.703   7.409
23816SOL     OW73280   2.729  11.914   7.242
23816SOL    HW173281   2.750  11.917   7.149
23816SOL    HW273282   2.651  11.858   7.246
23817SOL     OW73283  11.459  11.111   3.005
23817SOL    HW173284  11.550  11.087   3.026
23817SOL    HW273285  11.441  11.068   2.922
23818SOL     OW73286   2.823   1.172   9.400
23818SOL    HW173287   2.914   1.179   9.429
23818SOL    HW273288   2.828   1.126   9.317
23819SOL     OW73289   4.912  11.478   9.819
23819SOL    HW173290   4.849  11.408   9.838
23819SOL    HW273291   4.991  11.433   9.790
23820SOL     OW73292  10.986   8.902   1.885
23820SOL    HW173293  11.041   8.963   1.934
23820SOL    HW273294  11.026   8.899   1.798
23821SOL     OW73295  12.304   6.799   4.403
23821SOL    HW173296  12.337   6.710   4.415
23821SOL    HW273297  12.211   6.793   4.420
23822SOL     OW73298   3.662   1.971   2.450
23822SOL    HW173299   3.594   1.981   2.516
23822SOL    HW273300   3.681   1.877   2.450
23823SOL     OW73301  14.028  10.548   2.388
23823SOL    HW173302  13.974  10.560   2.310
23823SOL    HW273303  14.105  10.603   2.373
23824SOL     OW73304   0.784   4.329   3.686
23824SOL    HW173305   0.814   4.375   3.608
23824SOL    HW273306   0.791   4.394   3.756
23825SOL     OW73307   3.932   1.240   5.903
23825SOL    HW173308   3.960   1.278   5.986
23825SOL    HW273309   3.958   1.148   5.909
23826SOL     OW73310   3.199   6.898   9.402
23826SOL    HW173311   3.140   6.940   9.340
23826SOL    HW273312   3.218   6.966   9.467
23827SOL     OW73313   5.509   5.199  11.428
23827SOL    HW173314   5.557   5.157  11.357
23827SOL    HW273315   5.515   5.137  11.501
23828SOL     OW73316  12.524  10.991   8.058
23828SOL    HW173317  12.566  10.960   7.978
23828SOL    HW273318  12.509  11.084   8.043
23829SOL     OW73319   8.333   2.663  14.190
23829SOL    HW173320   8.416   2.636  14.150
23829SOL    HW273321   8.266   2.616  14.141
23830SOL     OW73322   6.397  10.514   2.942
23830SOL    HW173323   6.371  10.456   3.013
23830SOL    HW273324   6.491  10.527   2.954
23831SOL     OW73325   1.453  11.790  13.745
23831SOL    HW173326   1.450  11.728  13.673
23831SOL    HW273327   1.544  11.820  13.747
23832SOL     OW73328   1.144   1.938  10.468
23832SOL    HW173329   1.090   2.009  10.503
23832SOL    HW273330   1.138   1.868  10.533
23833SOL     OW73331   8.113   4.320   1.675
23833SOL    HW173332   8.067   4.394   1.714
23833SOL    HW273333   8.142   4.268   1.750
23834SOL     OW73334  13.424  11.143   8.443
23834SOL    HW173335  13.391  11.053   8.444
23834SOL    HW273336  13.353  11.195   8.477
23835SOL     OW73337   8.868   2.988  14.468
23835SOL    HW173338   8.953   3.019  14.439
23835SOL    HW273339   8.812   2.995  14.390
23836SOL     OW73340   4.562   2.877   3.004
23836SOL    HW173341   4.657   2.885   2.998
23836SOL    HW273342   4.543   2.790   2.971
23837SOL     OW73343   1.263  12.873   1.912
23837SOL    HW173344   1.211  12.804   1.952
23837SOL    HW273345   1.214  12.898   1.833
23838SOL     OW73346  14.541   8.471   0.114
23838SOL    HW173347  14.537   8.514   0.199
23838SOL    HW273348  14.453   8.434   0.102
23839SOL     OW73349   8.994   4.882  14.328
23839SOL    HW173350   9.078   4.842  14.307
23839SOL    HW273351   9.007   4.975  14.310
23840SOL     OW73352  13.842  13.325   4.559
23840SOL    HW173353  13.919  13.268   4.557
23840SOL    HW273354  13.768  13.264   4.566
23841SOL     OW73355   7.337  10.983   4.843
23841SOL    HW173356   7.296  10.955   4.761
23841SOL    HW273357   7.294  10.931   4.910
23842SOL     OW73358   5.247   9.404  13.570
23842SOL    HW173359   5.205   9.447  13.644
23842SOL    HW273360   5.203   9.320  13.563
23843SOL     OW73361  10.465   1.688   5.528
23843SOL    HW173362  10.395   1.750   5.508
23843SOL    HW273363  10.421   1.604   5.540
23844SOL     OW73364   6.515  10.854  12.851
23844SOL    HW173365   6.512  10.758  12.852
23844SOL    HW273366   6.606  10.875  12.829
23845SOL     OW73367  11.282   6.939   1.216
23845SOL    HW173368  11.325   7.012   1.262
23845SOL    HW273369  11.238   6.980   1.142
23846SOL     OW73370   0.123   4.562   9.414
23846SOL    HW173371   0.172   4.641   9.435
23846SOL    HW273372   0.186   4.506   9.370
23847SOL     OW73373   0.804  14.803  13.914
23847SOL    HW173374   0.812  14.755  13.996
23847SOL    HW273375   0.888  14.847  13.903
23848SOL     OW73376   5.175  14.281  11.030
23848SOL    HW173377   5.240  14.337  11.074
23848SOL    HW273378   5.205  14.192  11.049
23849SOL     OW73379  10.206   3.660  13.295
23849SOL    HW173380  10.227   3.674  13.387
23849SOL    HW273381  10.121   3.701  13.283
23850SOL     OW73382  13.148   6.279  10.191
23850SOL    HW173383  13.139   6.198  10.141
23850SOL    HW273384  13.218   6.261  10.254
23851SOL     OW73385  11.214  13.830  11.575
23851SOL    HW173386  11.141  13.853  11.518
23851SOL    HW273387  11.292  13.851  11.523
23852SOL     OW73388  10.465   9.760   1.306
23852SOL    HW173389  10.454   9.705   1.384
23852SOL    HW273390  10.557   9.747   1.281
23853SOL     OW73391   0.058   8.541  10.613
23853SOL    HW173392   0.054   8.528  10.707
23853SOL    HW273393   0.151   8.537  10.591
23854SOL     OW73394   7.065  14.767   1.671
23854SOL    HW173395   7.057  14.858   1.644
23854SOL    HW273396   6.975  14.738   1.687
23855SOL     OW73397   0.651   2.852  13.481
23855SOL    HW173398   0.650   2.885  13.391
23855SOL    HW273399   0.626   2.760  13.473
23856SOL     OW73400  11.859  11.638   6.883
23856SOL    HW173401  11.863  11.543   6.877
23856SOL    HW273402  11.810  11.656   6.964
23857SOL     OW73403   9.957   3.268  10.532
23857SOL    HW173404   9.976   3.341  10.473
23857SOL    HW273405   9.887   3.300  10.588
23858SOL     OW73406   9.657   2.809   4.886
23858SOL    HW173407   9.618   2.872   4.825
23858SOL    HW273408   9.737   2.780   4.842
23859SOL     OW73409   1.190   2.532  14.269
23859SOL    HW173410   1.208   2.477  14.192
23859SOL    HW273411   1.196   2.472  14.343
23860SOL     OW73412   0.104  10.816   0.424
23860SOL    HW173413   0.047  10.876   0.377
23860SOL    HW273414   0.192  10.855   0.416
23861SOL     OW73415  12.163   0.583  12.750
23861SOL    HW173416  12.141   0.640  12.676
23861SOL    HW273417  12.234   0.629  12.795
23862SOL     OW73418   8.806   6.113  10.116
23862SOL    HW173419   8.873   6.181  10.113
23862SOL    HW273420   8.833   6.049  10.051
23863SOL     OW73421  13.929  11.234   5.544
23863SOL    HW173422  13.975  11.316   5.523
23863SOL    HW273423  13.901  11.245   5.635
23864SOL     OW73424   3.648   3.147   5.935
23864SOL    HW173425   3.660   3.075   5.873
23864SOL    HW273426   3.720   3.207   5.916
23865SOL     OW73427  11.029   2.149  11.398
23865SOL    HW173428  11.064   2.088  11.463
23865SOL    HW273429  10.936   2.156  11.419
23866SOL     OW73430   1.212   8.365   3.025
23866SOL    HW173431   1.290   8.361   3.081
23866SOL    HW273432   1.186   8.457   3.026
23867SOL     OW73433   3.315   7.748   7.749
23867SOL    HW173434   3.396   7.735   7.700
23867SOL    HW273435   3.252   7.777   7.683
23868SOL     OW73436  10.652   3.715  10.473
23868SOL    HW173437  10.649   3.760  10.388
23868SOL    HW273438  10.707   3.638  10.457
23869SOL     OW73439  14.864   2.859   0.888
23869SOL    HW173440  14.857   2.865   0.984
23869SOL    HW273441  14.783   2.816   0.861
23870SOL     OW73442   7.136   8.461   6.832
23870SOL    HW173443   7.073   8.513   6.881
23870SOL    HW273444   7.203   8.523   6.805
23871SOL     OW73445  13.376   1.397   1.482
23871SOL    HW173446  13.347   1.352   1.561
23871SOL    HW273447  13.297   1.401   1.427
23872SOL     OW73448   4.559  14.558  12.107
23872SOL    HW173449   4.465  14.544  12.115
23872SOL    HW273450   4.592  14.553  12.197
23873SOL     OW73451   1.813   1.965  13.563
23873SOL    HW173452   1.721   1.946  13.542
23873SOL    HW273453   1.858   1.881  13.553
23874SOL     OW73454  12.179  13.529   4.201
23874SOL    HW173455  12.198  13.567   4.286
23874SOL    HW273456  12.084  13.533   4.193
23875SOL     OW73457   5.193   3.819  14.331
23875SOL    HW173458   5.288   3.833  14.331
23875SOL    HW273459   5.158   3.893  14.282
23876SOL     OW73460  11.747   9.958   7.037
23876SOL    HW173461  11.730  10.052   7.036
23876SOL    HW273462  11.660   9.918   7.028
23877SOL     OW73463   3.093   4.586   0.030
23877SOL    HW173464   3.185   4.609   0.044
23877SOL    HW273465   3.068   4.635  14.830
23878SOL     OW73466   9.442  12.387   1.100
23878SOL    HW173467   9.374  12.319   1.090
23878SOL    HW273468   9.443  12.405   1.194
23879SOL     OW73469   0.004  10.262   2.451
23879SOL    HW173470   0.075  10.219   2.499
23879SOL    HW273471   0.031  10.259   2.360
23880SOL     OW73472   3.523   7.079   6.533
23880SOL    HW173473   3.505   7.030   6.613
23880SOL    HW273474   3.615   7.060   6.514
23881SOL     OW73475  12.475  11.213  10.423
23881SOL    HW173476  12.569  11.197  10.415
23881SOL    HW273477  12.443  11.212  10.333
23882SOL     OW73478   2.351   2.299  13.631
23882SOL    HW173479   2.326   2.359  13.560
23882SOL    HW273480   2.290   2.225  13.622
23883SOL     OW73481   4.948   9.522   5.430
23883SOL    HW173482   5.004   9.546   5.357
23883SOL    HW273483   4.991   9.559   5.507
23884SOL     OW73484  11.034   4.541   3.583
23884SOL    HW173485  11.024   4.541   3.487
23884SOL    HW273486  11.102   4.607   3.599
23885SOL     OW73487  12.604   0.846  10.911
23885SOL    HW173488  12.645   0.760  10.902
23885SOL    HW273489  12.558   0.860  10.828
23886SOL     OW73490  11.782  14.027   5.973
23886SOL    HW173491  11.782  13.961   6.043
23886SOL    HW273492  11.862  14.077   5.987
23887SOL     OW73493   6.503  11.045   2.793
23887SOL    HW173494   6.517  11.095   2.713
23887SOL    HW273495   6.421  10.999   2.779
23888SOL     OW73496  13.839  13.124   2.662
23888SOL    HW173497  13.931  13.144   2.679
23888SOL    HW273498  13.820  13.166   2.578
23889SOL     OW73499   9.421   1.959  13.687
23889SOL    HW173500   9.457   1.872  13.667
23889SOL    HW273501   9.356   1.943  13.755
23890SOL     OW73502   2.315  11.891   5.134
23890SOL    HW173503   2.287  11.971   5.179
23890SOL    HW273504   2.238  11.863   5.086
23891SOL     OW73505  12.471  12.586  12.962
23891SOL    HW173506  12.520  12.594  12.880
23891SOL    HW273507  12.382  12.615  12.939
23892SOL     OW73508  10.213   5.709   8.995
23892SOL    HW173509  10.198   5.796   9.034
23892SOL    HW273510  10.150   5.705   8.923
23893SOL     OW73511   3.681   4.881   0.614
23893SOL    HW173512   3.691   4.912   0.704
23893SOL    HW273513   3.755   4.918   0.567
23894SOL     OW73514   6.390  14.461   8.014
23894SOL    HW173515   6.485  14.468   8.010
23894SOL    HW273516   6.366  14.512   8.092
23895SOL     OW73517  11.865   7.395   4.490
23895SOL    HW173518  11.889   7.439   4.409
23895SOL    HW273519  11.880   7.302   4.472
23896SOL     OW73520   3.072   2.449  11.912
23896SOL    HW173521   3.074   2.354  11.918
23896SOL    HW273522   3.063   2.467  11.818
23897SOL     OW73523   3.605   7.815  11.278
23897SOL    HW173524   3.622   7.901  11.316
23897SOL    HW273525   3.657   7.812  11.198
23898SOL     OW73526   3.956   6.283  12.485
23898SOL    HW173527   3.893   6.341  12.527
23898SOL    HW273528   4.041   6.312  12.519
23899SOL     OW73529  12.841   6.801   7.787
23899SOL    HW173530  12.844   6.892   7.816
23899SOL    HW273531  12.788   6.803   7.707
23900SOL     OW73532   6.946   3.168   1.447
23900SOL    HW173533   7.011   3.185   1.378
23900SOL    HW273534   6.914   3.254   1.472
23901SOL     OW73535  13.984  12.771   4.261
23901SOL    HW173536  14.070  12.774   4.302
23901SOL    HW273537  13.963  12.678   4.254
23902SOL     OW73538   4.738  12.937   6.820
23902SOL    HW173539   4.816  12.949   6.766
23902SOL    HW273540   4.761  12.867   6.881
23903SOL     OW73541  11.112  13.229   2.611
23903SOL    HW173542  11.148  13.141   2.603
23903SOL    HW273543  11.040  13.232   2.548
23904SOL     OW73544   5.281   6.725  10.548
23904SOL    HW173545   5.351   6.706  10.486
23904SOL    HW273546   5.306   6.808  10.589
23905SOL     OW73547  10.006   7.314  13.326
23905SOL    HW173548   9.938   7.250  13.348
23905SOL    HW273549  10.029   7.293  13.235
23906SOL     OW73550   6.984  11.529   7.480
23906SOL    HW173551   7.042  11.485   7.543
23906SOL    HW273552   7.027  11.517   7.395
23907SOL     OW73553  10.657   8.789   6.252
23907SOL    HW173554  10.572   8.773   6.211
23907SOL    HW273555  10.670   8.884   6.244
23908SOL     OW73556  11.332   2.863   8.411
23908SOL    HW173557  11.274   2.819   8.474
23908SOL    HW273558  11.412   2.880   8.461
23909SOL     OW73559   1.245   4.047   3.992
23909SOL    HW173560   1.335   4.073   4.013
23909SOL    HW273561   1.240   4.054   3.896
23910SOL     OW73562   1.014   4.043   9.083
23910SOL    HW173563   1.095   4.003   9.050
23910SOL    HW273564   0.958   3.968   9.105
23911SOL     OW73565   5.722   8.226   4.757
23911SOL    HW173566   5.804   8.253   4.799
23911SOL    HW273567   5.751   8.178   4.679
23912SOL     OW73568   8.407  12.491   0.534
23912SOL    HW173569   8.390  12.404   0.497
23912SOL    HW273570   8.463  12.534   0.469
23913SOL     OW73571  10.518   1.975  12.134
23913SOL    HW173572  10.574   1.900  12.114
23913SOL    HW273573  10.464   1.986  12.056
23914SOL     OW73574  13.663   1.729   6.289
23914SOL    HW173575  13.649   1.636   6.277
23914SOL    HW273576  13.605   1.771   6.226
23915SOL     OW73577  10.336  11.493  13.532
23915SOL    HW173578  10.295  11.577  13.551
23915SOL    HW273579  10.411  11.488  13.592
23916SOL     OW73580   6.213   0.208   9.986
23916SOL    HW173581   6.185   0.150   9.915
23916SOL    HW273582   6.153   0.283   9.981
23917SOL     OW73583   8.065   1.227   8.572
23917SOL    HW173584   8.104   1.206   8.657
23917SOL    HW273585   7.985   1.175   8.570
23918SOL     OW73586   6.347   2.518  10.335
23918SOL    HW173587   6.326   2.485  10.423
23918SOL    HW273588   6.391   2.445  10.292
23919SOL     OW73589   2.891  10.323   6.260
23919SOL    HW173590   2.925  10.300   6.347
23919SOL    HW273591   2.899  10.418   6.256
23920SOL     OW73592  10.551   5.377   2.816
23920SOL    HW173593  10.467   5.342   2.846
23920SOL    HW273594  10.537   5.471   2.809
23921SOL     OW73595   5.250   1.366   6.124
23921SOL    HW173596   5.201   1.447   6.139
23921SOL    HW273597   5.328   1.374   6.179
23922SOL     OW73598  10.702   2.406   8.068
23922SOL    HW173599  10.769   2.414   8.137
23922SOL    HW273600  10.620   2.428   8.112
23923SOL     OW73601   8.150  10.529  13.907
23923SOL    HW173602   8.181  10.477  13.833
23923SOL    HW273603   8.178  10.481  13.985
23924SOL     OW73604   0.087   2.095  10.570
23924SOL    HW173605   0.072   2.086  10.664
23924SOL    HW273606   0.023   2.161  10.542
23925SOL     OW73607  11.705  13.259   0.211
23925SOL    HW173608  11.708  13.354   0.198
23925SOL    HW273609  11.791  13.238   0.247
23926SOL     OW73610   0.277   4.116   5.093
23926SOL    HW173611   0.340   4.049   5.120
23926SOL    HW273612   0.197   4.068   5.073
23927SOL     OW73613   7.358   7.111  11.587
23927SOL    HW173614   7.393   7.175  11.648
23927SOL    HW273615   7.418   7.115  11.512
23928SOL     OW73616   5.967  11.348   1.904
23928SOL    HW173617   5.899  11.385   1.959
23928SOL    HW273618   6.025  11.300   1.964
23929SOL     OW73619  13.422   4.706   9.915
23929SOL    HW173620  13.506   4.738   9.882
23929SOL    HW273621  13.437   4.690  10.008
23930SOL     OW73622   3.540   8.011   1.537
23930SOL    HW173623   3.598   8.016   1.462
23930SOL    HW273624   3.570   7.935   1.586
23931SOL     OW73625   8.032   5.696   2.282
23931SOL    HW173626   7.974   5.620   2.290
23931SOL    HW273627   8.072   5.686   2.196
23932SOL     OW73628   9.226  10.532  11.757
23932SOL    HW173629   9.158  10.544  11.824
23932SOL    HW273630   9.222  10.612  11.705
23933SOL     OW73631   4.433  12.865  13.534
23933SOL    HW173632   4.478  12.788  13.498
23933SOL    HW273633   4.497  12.904  13.594
23934SOL     OW73634  11.668  12.869   6.623
23934SOL    HW173635  11.580  12.842   6.649
23934SOL    HW273636  11.654  12.948   6.571
23935SOL     OW73637   3.364   6.934   2.046
23935SOL    HW173638   3.387   6.985   1.968
23935SOL    HW273639   3.437   6.949   2.107
23936SOL     OW73640   1.241   7.166   7.862
23936SOL    HW173641   1.153   7.134   7.842
23936SOL    HW273642   1.286   7.092   7.902
23937SOL     OW73643  12.284  13.238  13.657
23937SOL    HW173644  12.225  13.302  13.696
23937SOL    HW273645  12.366  13.286  13.645
23938SOL     OW73646   3.678   3.763   3.775
23938SOL    HW173647   3.676   3.667   3.765
23938SOL    HW273648   3.753   3.779   3.831
23939SOL     OW73649   0.994   8.858  14.589
23939SOL    HW173650   0.937   8.849  14.512
23939SOL    HW273651   1.082   8.842  14.556
23940SOL     OW73652  12.933   4.919   1.810
23940SOL    HW173653  12.875   4.995   1.811
23940SOL    HW273654  13.014   4.951   1.769
23941SOL     OW73655   2.412   3.033   4.737
23941SOL    HW173656   2.420   3.125   4.763
23941SOL    HW273657   2.472   3.023   4.664
23942SOL     OW73658  11.649   9.345  14.299
23942SOL    HW173659  11.680   9.397  14.373
23942SOL    HW273660  11.610   9.409  14.239
23943SOL     OW73661   7.074  14.108  11.009
23943SOL    HW173662   7.039  14.197  11.013
23943SOL    HW273663   7.039  14.072  10.927
23944SOL     OW73664   8.390   3.604  11.392
23944SOL    HW173665   8.427   3.516  11.393
23944SOL    HW273666   8.298   3.592  11.369
23945SOL     OW73667  12.507   6.833  14.655
23945SOL    HW173668  12.526   6.811  14.747
23945SOL    HW273669  12.419   6.800  14.640
23946SOL     OW73670   4.936   7.888  12.702
23946SOL    HW173671   4.890   7.943  12.766
23946SOL    HW273672   4.866   7.852  12.647
23947SOL     OW73673   4.839   2.275  13.193
23947SOL    HW173674   4.779   2.248  13.123
23947SOL    HW273675   4.783   2.320  13.257
23948SOL     OW73676  14.687  11.990   8.263
23948SOL    HW173677  14.665  11.999   8.170
23948SOL    HW273678  14.737  12.069   8.284
23949SOL     OW73679  14.578   8.700   9.480
23949SOL    HW173680  14.634   8.759   9.531
23949SOL    HW273681  14.599   8.613   9.513
23950SOL     OW73682   1.967  11.231   4.570
23950SOL    HW173683   2.050  11.205   4.531
23950SOL    HW273684   1.983  11.228   4.665
23951SOL     OW73685   5.343  10.928   2.928
23951SOL    HW173686   5.342  10.879   3.010
23951SOL    HW273687   5.420  10.985   2.934
23952SOL     OW73688   9.084   6.931  10.540
23952SOL    HW173689   9.103   7.000  10.604
23952SOL    HW273690   9.164   6.923  10.489
23953SOL     OW73691   4.391   7.291  14.732
23953SOL    HW173692   4.386   7.314  14.825
23953SOL    HW273693   4.411   7.197  14.732
23954SOL     OW73694   0.544   0.202  11.419
23954SOL    HW173695   0.511   0.112  11.425
23954SOL    HW273696   0.513   0.233  11.334
23955SOL     OW73697  10.753   1.226   0.218
23955SOL    HW173698  10.707   1.236   0.134
23955SOL    HW273699  10.744   1.133   0.239
23956SOL     OW73700  10.888   8.611   8.477
23956SOL    HW173701  10.840   8.593   8.396
23956SOL    HW273702  10.855   8.696   8.506
23957SOL     OW73703  13.905   9.590   2.429
23957SOL    HW173704  13.942   9.503   2.438
23957SOL    HW273705  13.862   9.607   2.513
23958SOL     OW73706   3.712  12.761   8.703
23958SOL    HW173707   3.637  12.761   8.643
23958SOL    HW273708   3.673  12.750   8.790
23959SOL     OW73709   4.862  10.724   3.859
23959SOL    HW173710   4.911  10.653   3.902
23959SOL    HW273711   4.837  10.687   3.774
23960SOL     OW73712   9.442   7.979   1.431
23960SOL    HW173713   9.469   7.914   1.496
23960SOL    HW273714   9.461   7.938   1.347
23961SOL     OW73715   7.014  11.784   6.699
23961SOL    HW173716   7.058  11.828   6.771
23961SOL    HW273717   7.048  11.826   6.620
23962SOL     OW73718   0.125   1.457  13.658
23962SOL    HW173719   0.134   1.551  13.646
23962SOL    HW273720   0.098   1.446  13.749
23963SOL     OW73721  13.561   6.325   8.464
23963SOL    HW173722  13.576   6.297   8.554
23963SOL    HW273723  13.579   6.248   8.411
23964SOL     OW73724   3.265   1.489  12.770
23964SOL    HW173725   3.258   1.570  12.821
23964SOL    HW273726   3.303   1.517  12.687
23965SOL     OW73727   1.139  12.517  11.322
23965SOL    HW173728   1.064  12.457  11.322
23965SOL    HW273729   1.102  12.602  11.298
23966SOL     OW73730   5.213  14.840  10.620
23966SOL    HW173731   5.193   0.051  10.595
23966SOL    HW273732   5.193  14.837  10.714
23967SOL     OW73733  12.075  13.512   5.202
23967SOL    HW173734  12.135  13.586   5.197
23967SOL    HW273735  12.023  13.518   5.122
23968SOL     OW73736   3.444   6.210   2.322
23968SOL    HW173737   3.527   6.212   2.370
23968SOL    HW273738   3.398   6.134   2.357
23969SOL     OW73739   7.904   5.020   4.652
23969SOL    HW173740   7.839   5.080   4.687
23969SOL    HW273741   7.970   5.076   4.611
23970SOL     OW73742   9.843   2.154   2.494
23970SOL    HW173743   9.901   2.122   2.424
23970SOL    HW273744   9.886   2.127   2.575
23971SOL     OW73745   9.377   1.782  11.201
23971SOL    HW173746   9.388   1.694  11.165
23971SOL    HW273747   9.452   1.831  11.169
23972SOL     OW73748  13.064   2.568  10.195
23972SOL    HW173749  13.138   2.525  10.238
23972SOL    HW273750  13.036   2.635  10.258
23973SOL     OW73751  11.201   5.253   4.292
23973SOL    HW173752  11.116   5.223   4.325
23973SOL    HW273753  11.265   5.197   4.337
23974SOL     OW73754   3.236   6.992  10.338
23974SOL    HW173755   3.216   6.960  10.250
23974SOL    HW273756   3.209   7.083  10.338
23975SOL     OW73757   3.804  13.739   6.241
23975SOL    HW173758   3.718  13.698   6.254
23975SOL    HW273759   3.800  13.819   6.294
23976SOL     OW73760  14.124  11.569  13.587
23976SOL    HW173761  14.119  11.662  13.567
23976SOL    HW273762  14.108  11.564  13.681
23977SOL     OW73763   4.157  12.783  11.023
23977SOL    HW173764   4.139  12.690  11.035
23977SOL    HW273765   4.109  12.826  11.093
23978SOL     OW73766  13.314   9.030  11.455
23978SOL    HW173767  13.321   9.016  11.361
23978SOL    HW273768  13.279   9.119  11.463
23979SOL     OW73769   1.296  13.206   1.022
23979SOL    HW173770   1.231  13.223   1.090
23979SOL    HW273771   1.263  13.129   0.977
23980SOL     OW73772  10.763   7.358   4.145
23980SOL    HW173773  10.788   7.436   4.194
23980SOL    HW273774  10.669   7.368   4.131
23981SOL     OW73775  10.244  10.390   1.832
23981SOL    HW173776  10.330  10.369   1.869
23981SOL    HW273777  10.188  10.318   1.861
23982SOL     OW73778   7.767   4.055   4.303
23982SOL    HW173779   7.690   4.005   4.279
23982SOL    HW273780   7.813   4.070   4.220
23983SOL     OW73781   4.922   2.399  11.183
23983SOL    HW173782   4.841   2.350  11.199
23983SOL    HW273783   4.983   2.365  11.248
23984SOL     OW73784  13.369   2.907   4.983
23984SOL    HW173785  13.386   2.834   5.042
23984SOL    HW273786  13.324   2.972   5.038
23985SOL     OW73787   7.118   3.981   7.925
23985SOL    HW173788   7.191   4.038   7.948
23985SOL    HW273789   7.048   4.005   7.986
23986SOL     OW73790  11.239   1.967   5.294
23986SOL    HW173791  11.283   1.895   5.249
23986SOL    HW273792  11.307   2.033   5.307
23987SOL     OW73793   0.955  14.598   8.375
23987SOL    HW173794   0.922  14.688   8.387
23987SOL    HW273795   0.892  14.543   8.421
23988SOL     OW73796   9.150   3.000   0.537
23988SOL    HW173797   9.200   2.918   0.537
23988SOL    HW273798   9.174   3.042   0.454
23989SOL     OW73799   6.599   9.411   9.707
23989SOL    HW173800   6.646   9.381   9.785
23989SOL    HW273801   6.638   9.496   9.686
23990SOL     OW73802  12.973   4.633   3.675
23990SOL    HW173803  12.975   4.621   3.580
23990SOL    HW273804  12.882   4.652   3.695
23991SOL     OW73805  10.275   4.091   7.171
23991SOL    HW173806  10.363   4.068   7.140
23991SOL    HW273807  10.236   4.007   7.196
23992SOL     OW73808   9.390   4.125  12.208
23992SOL    HW173809   9.343   4.207  12.193
23992SOL    HW273810   9.401   4.120  12.303
23993SOL     OW73811   1.385   0.870   2.933
23993SOL    HW173812   1.351   0.782   2.946
23993SOL    HW273813   1.351   0.897   2.848
23994SOL     OW73814  14.621   9.900  11.137
23994SOL    HW173815  14.677   9.960  11.185
23994SOL    HW273816  14.535   9.942  11.138
23995SOL     OW73817   6.847   8.669   2.846
23995SOL    HW173818   6.805   8.658   2.932
23995SOL    HW273819   6.804   8.604   2.790
23996SOL     OW73820   6.264  13.364  13.202
23996SOL    HW173821   6.232  13.277  13.180
23996SOL    HW273822   6.322  13.351  13.277
23997SOL     OW73823   6.658   2.830   8.475
23997SOL    HW173824   6.698   2.902   8.426
23997SOL    HW273825   6.566   2.854   8.481
23998SOL     OW73826  14.179   0.176   0.241
23998SOL    HW173827  14.263   0.221   0.245
23998SOL    HW273828  14.171   0.135   0.328
23999SOL     OW73829  13.571   5.759   9.285
23999SOL    HW173830  13.590   5.804   9.202
23999SOL    HW273831  13.501   5.698   9.264
24000SOL     OW73832   5.616   8.112   5.925
24000SOL    HW173833   5.689   8.078   5.976
24000SOL    HW273834   5.627   8.207   5.927
24001SOL     OW73835  13.435   1.390   8.830
24001SOL    HW173836  13.419   1.484   8.822
24001SOL    HW273837  13.404   1.368   8.918
24002SOL     OW73838   7.575  13.774   7.993
24002SOL    HW173839   7.601  13.820   8.072
24002SOL    HW273840   7.657  13.748   7.952
24003SOL     OW73841   5.681   6.709   3.613
24003SOL    HW173842   5.619   6.687   3.682
24003SOL    HW273843   5.628   6.709   3.533
24004SOL     OW73844   5.113   5.313   1.390
24004SOL    HW173845   5.192   5.259   1.386
24004SOL    HW273846   5.127   5.370   1.465
24005SOL     OW73847   1.257   2.880   2.046
24005SOL    HW173848   1.168   2.847   2.056
24005SOL    HW273849   1.311   2.801   2.046
24006SOL     OW73850   6.774   1.381   3.037
24006SOL    HW173851   6.757   1.445   3.106
24006SOL    HW273852   6.792   1.435   2.959
24007SOL     OW73853   2.940   5.248   8.697
24007SOL    HW173854   2.959   5.299   8.775
24007SOL    HW273855   2.875   5.184   8.725
24008SOL     OW73856   5.425   0.051   3.157
24008SOL    HW173857   5.484  14.876   3.105
24008SOL    HW273858   5.359   0.081   3.094
24009SOL     OW73859  10.031   1.718   8.509
24009SOL    HW173860  10.066   1.804   8.488
24009SOL    HW273861   9.977   1.695   8.433
24010SOL     OW73862  10.275  12.305   5.734
24010SOL    HW173863  10.293  12.383   5.787
24010SOL    HW273864  10.254  12.237   5.798
24011SOL     OW73865  13.093  10.091   1.724
24011SOL    HW173866  13.107   9.997   1.714
24011SOL    HW273867  12.998  10.102   1.715
24012SOL     OW73868   9.376   3.332  10.909
24012SOL    HW173869   9.303   3.392  10.923
24012SOL    HW273870   9.376   3.275  10.987
24013SOL     OW73871   4.285  12.723   6.798
24013SOL    HW173872   4.280  12.676   6.881
24013SOL    HW273873   4.324  12.808   6.820
24014SOL     OW73874  13.971   5.596   9.703
24014SOL    HW173875  13.895   5.550   9.739
24014SOL    HW273876  14.040   5.585   9.768
24015SOL     OW73877  13.749   7.744   6.662
24015SOL    HW173878  13.781   7.832   6.647
24015SOL    HW273879  13.654   7.753   6.663
24016SOL     OW73880  13.511   8.180   0.753
24016SOL    HW173881  13.575   8.238   0.794
24016SOL    HW273882  13.453   8.238   0.704
24017SOL     OW73883   8.157   0.157  13.513
24017SOL    HW173884   8.170   0.096  13.440
24017SOL    HW273885   8.239   0.204  13.520
24018SOL     OW73886  11.557   2.445  14.616
24018SOL    HW173887  11.591   2.473  14.531
24018SOL    HW273888  11.629   2.460  14.677
24019SOL     OW73889   5.267   2.952  14.145
24019SOL    HW173890   5.318   2.921  14.219
24019SOL    HW273891   5.288   3.045  14.137
24020SOL     OW73892   9.892   2.463  12.512
24020SOL    HW173893   9.844   2.390  12.552
24020SOL    HW273894   9.873   2.456  12.418
24021SOL     OW73895   2.995  14.229  10.273
24021SOL    HW173896   2.904  14.198  10.268
24021SOL    HW273897   2.989  14.314  10.317
24022SOL     OW73898  13.370   2.893   0.806
24022SOL    HW173899  13.406   2.940   0.731
24022SOL    HW273900  13.434   2.907   0.876
24023SOL     OW73901   2.316  12.552   6.264
24023SOL    HW173902   2.314  12.543   6.359
24023SOL    HW273903   2.224  12.547   6.237
24024SOL     OW73904   7.102  12.148   3.875
24024SOL    HW173905   7.084  12.090   3.801
24024SOL    HW273906   7.196  12.165   3.871
24025SOL     OW73907   7.599  11.987   8.669
24025SOL    HW173908   7.550  12.011   8.590
24025SOL    HW273909   7.558  11.906   8.699
24026SOL     OW73910  13.869  10.590   3.666
24026SOL    HW173911  13.957  10.558   3.686
24026SOL    HW273912  13.811  10.534   3.718
24027SOL     OW73913   9.880  13.642  13.487
24027SOL    HW173914   9.894  13.571  13.549
24027SOL    HW273915   9.873  13.598  13.402
24028SOL     OW73916  13.089   7.035  10.648
24028SOL    HW173917  13.041   7.084  10.581
24028SOL    HW273918  13.123   7.102  10.707
24029SOL     OW73919   2.368   4.860  10.865
24029SOL    HW173920   2.344   4.926  10.930
24029SOL    HW273921   2.463   4.853  10.872
24030SOL     OW73922   7.766   3.178   5.762
24030SOL    HW173923   7.689   3.130   5.792
24030SOL    HW273924   7.822   3.112   5.721
24031SOL     OW73925   6.004  14.017   7.880
24031SOL    HW173926   6.086  13.971   7.899
24031SOL    HW273927   6.001  14.023   7.785
24032SOL     OW73928   1.176   9.830   6.912
24032SOL    HW173929   1.215   9.745   6.895
24032SOL    HW273930   1.143   9.823   7.002
24033SOL     OW73931   9.967  12.949  12.996
24033SOL    HW173932   9.990  12.919  12.908
24033SOL    HW273933  10.050  12.975  13.035
24034SOL     OW73934   1.440  10.776   9.313
24034SOL    HW173935   1.464  10.865   9.286
24034SOL    HW273936   1.489  10.720   9.253
24035SOL     OW73937  14.647   7.982  12.163
24035SOL    HW173938  14.699   7.965  12.085
24035SOL    HW273939  14.588   8.053  12.138
24036SOL     OW73940   1.225   7.867   1.139
24036SOL    HW173941   1.309   7.820   1.144
24036SOL    HW273942   1.198   7.857   1.047
24037SOL     OW73943   2.697   0.172  13.100
24037SOL    HW173944   2.695   0.113  13.024
24037SOL    HW273945   2.750   0.247  13.070
24038SOL     OW73946  14.141   3.468  11.953
24038SOL    HW173947  14.213   3.500  11.899
24038SOL    HW273948  14.162   3.500  12.041
24039SOL     OW73949  13.301  12.173   6.836
24039SOL    HW173950  13.376  12.204   6.887
24039SOL    HW273951  13.224  12.198   6.888
24040SOL     OW73952   1.908  13.935  10.547
24040SOL    HW173953   1.815  13.917  10.538
24040SOL    HW273954   1.911  14.022  10.587
24041SOL     OW73955  14.067   6.504  10.634
24041SOL    HW173956  14.073   6.594  10.667
24041SOL    HW273957  14.140   6.497  10.572
24042SOL     OW73958   0.815   8.280  12.049
24042SOL    HW173959   0.871   8.204  12.064
24042SOL    HW273960   0.729   8.243  12.028
24043SOL     OW73961  14.571  11.561  13.781
24043SOL    HW173962  14.493  11.589  13.733
24043SOL    HW273963  14.559  11.594  13.869
24044SOL     OW73964  13.952   8.915   9.912
24044SOL    HW173965  14.002   8.994   9.893
24044SOL    HW273966  13.985   8.885   9.997
24045SOL     OW73967  13.617   9.023   0.254
24045SOL    HW173968  13.627   8.950   0.316
24045SOL    HW273969  13.580   9.094   0.308
24046SOL     OW73970   4.384   4.000   6.195
24046SOL    HW173971   4.454   4.063   6.177
24046SOL    HW273972   4.304   4.047   6.173
24047SOL     OW73973   8.311   7.007  11.904
24047SOL    HW173974   8.265   7.062  11.842
24047SOL    HW273975   8.258   6.927  11.910
24048SOL     OW73976   5.919   5.231  13.053
24048SOL    HW173977   5.953   5.313  13.088
24048SOL    HW273978   5.983   5.204  12.987
24049SOL     OW73979   0.412   4.186   5.791
24049SOL    HW173980   0.339   4.165   5.733
24049SOL    HW273981   0.482   4.213   5.732
24050SOL     OW73982   1.388   1.554   5.122
24050SOL    HW173983   1.414   1.645   5.110
24050SOL    HW273984   1.300   1.549   5.086
24051SOL     OW73985   8.247   6.248   0.785
24051SOL    HW173986   8.297   6.207   0.855
24051SOL    HW273987   8.248   6.341   0.806
24052SOL     OW73988   0.316  13.848   8.363
24052SOL    HW173989   0.409  13.854   8.344
24052SOL    HW273990   0.298  13.924   8.419
24053SOL     OW73991  12.062   2.760   2.545
24053SOL    HW173992  12.122   2.687   2.529
24053SOL    HW273993  11.988   2.720   2.591
24054SOL     OW73994   5.055  10.581   2.488
24054SOL    HW173995   5.134  10.587   2.541
24054SOL    HW273996   5.028  10.672   2.475
24055SOL     OW73997   9.528   2.399   5.485
24055SOL    HW173998   9.584   2.321   5.477
24055SOL    HW273999   9.569   2.464   5.429
24056SOL     OW74000   2.377   4.945   6.642
24056SOL    HW174001   2.439   4.926   6.712
24056SOL    HW274002   2.352   4.858   6.609
24057SOL     OW74003   7.351  10.334   1.544
24057SOL    HW174004   7.330  10.423   1.515
24057SOL    HW274005   7.309  10.326   1.629
24058SOL     OW74006   7.175   6.748  10.166
24058SOL    HW174007   7.186   6.803  10.088
24058SOL    HW274008   7.232   6.674  10.150
24059SOL     OW74009   1.208   2.462   3.467
24059SOL    HW174010   1.202   2.367   3.471
24059SOL    HW274011   1.152   2.492   3.539
24060SOL     OW74012  10.528   0.636   9.014
24060SOL    HW174013  10.459   0.693   8.982
24060SOL    HW274014  10.493   0.596   9.093
24061SOL     OW74015  10.051   6.428  10.808
24061SOL    HW174016   9.958   6.408  10.802
24061SOL    HW274017  10.065   6.493  10.739
24062SOL     OW74018   3.594  13.121   9.594
24062SOL    HW174019   3.575  13.213   9.612
24062SOL    HW274020   3.561  13.074   9.671
24063SOL     OW74021  11.619   2.249   5.851
24063SOL    HW174022  11.641   2.159   5.871
24063SOL    HW274023  11.696   2.300   5.878
24064SOL     OW74024   3.784   1.113  13.176
24064SOL    HW174025   3.706   1.121  13.230
24064SOL    HW274026   3.799   1.202  13.144
24065SOL     OW74027   9.645  12.794   7.884
24065SOL    HW174028   9.630  12.750   7.801
24065SOL    HW274029   9.587  12.870   7.882
24066SOL     OW74030   8.469   7.045  13.553
24066SOL    HW174031   8.554   7.039  13.598
24066SOL    HW274032   8.476   6.983  13.480
24067SOL     OW74033  10.431   7.808   3.434
24067SOL    HW174034  10.432   7.783   3.527
24067SOL    HW274035  10.404   7.899   3.435
24068SOL     OW74036   5.624  11.226  14.374
24068SOL    HW174037   5.710  11.257  14.403
24068SOL    HW274038   5.564  11.257  14.441
24069SOL     OW74039   8.323   5.655   6.498
24069SOL    HW174040   8.295   5.740   6.532
24069SOL    HW274041   8.410   5.671   6.462
24070SOL     OW74042  11.044   9.158   4.539
24070SOL    HW174043  10.951   9.145   4.558
24070SOL    HW274044  11.057   9.252   4.545
24071SOL     OW74045   0.809   3.239   8.972
24071SOL    HW174046   0.789   3.265   8.882
24071SOL    HW274047   0.760   3.301   9.026
24072SOL     OW74048  10.214   1.355   8.767
24072SOL    HW174049  10.173   1.379   8.684
24072SOL    HW274050  10.240   1.439   8.806
24073SOL     OW74051  12.577   0.708   6.588
24073SOL    HW174052  12.626   0.756   6.655
24073SOL    HW274053  12.493   0.755   6.582
24074SOL     OW74054   9.028   1.254   2.038
24074SOL    HW174055   8.955   1.314   2.058
24074SOL    HW274056   8.986   1.171   2.016
24075SOL     OW74057   3.134   3.372  13.883
24075SOL    HW174058   3.097   3.460  13.875
24075SOL    HW274059   3.201   3.368  13.815
24076SOL     OW74060   5.216   5.065  12.946
24076SOL    HW174061   5.199   5.128  12.875
24076SOL    HW274062   5.129   5.032  12.968
24077SOL     OW74063   3.606   8.256   6.000
24077SOL    HW174064   3.549   8.331   6.017
24077SOL    HW274065   3.548   8.190   5.963
24078SOL     OW74066   1.621  12.952   4.073
24078SOL    HW174067   1.684  12.880   4.067
24078SOL    HW274068   1.547  12.915   4.121
24079SOL     OW74069   8.877   6.846   8.592
24079SOL    HW174070   8.946   6.910   8.576
24079SOL    HW274071   8.881   6.786   8.518
24080SOL     OW74072   3.998  14.276   0.475
24080SOL    HW174073   4.054  14.302   0.402
24080SOL    HW274074   3.981  14.358   0.522
24081SOL     OW74075   6.509  13.946   9.901
24081SOL    HW174076   6.418  13.973   9.911
24081SOL    HW274077   6.550  14.018   9.852
24082SOL     OW74078  12.160  11.477   6.052
24082SOL    HW174079  12.221  11.531   6.002
24082SOL    HW274080  12.117  11.539   6.112
24083SOL     OW74081   1.930   5.892  13.658
24083SOL    HW174082   1.884   5.921  13.579
24083SOL    HW274083   1.915   5.797  13.661
24084SOL     OW74084   4.025   9.468  11.934
24084SOL    HW174085   4.092   9.435  11.873
24084SOL    HW274086   4.054   9.557  11.956
24085SOL     OW74087   7.119   7.158   3.484
24085SOL    HW174088   7.139   7.068   3.511
24085SOL    HW274089   7.130   7.210   3.563
24086SOL     OW74090  12.368   5.947  13.395
24086SOL    HW174091  12.444   5.937  13.337
24086SOL    HW274092  12.307   6.001  13.344
24087SOL     OW74093   0.025   4.853   3.468
24087SOL    HW174094   0.099   4.857   3.407
24087SOL    HW274095  14.828   4.846   3.411
24088SOL     OW74096  10.368  14.839   8.933
24088SOL    HW174097  10.332  14.781   9.000
24088SOL    HW274098  10.331   0.046   8.953
24089SOL     OW74099   8.022   2.540   0.171
24089SOL    HW174100   7.962   2.487   0.223
24089SOL    HW274101   7.996   2.524   0.081
24090SOL     OW74102  10.524  14.458   5.769
24090SOL    HW174103  10.603  14.488   5.724
24090SOL    HW274104  10.543  14.470   5.862
24091SOL     OW74105   1.624  12.899  14.669
24091SOL    HW174106   1.707  12.929  14.704
24091SOL    HW274107   1.576  12.979  14.647
24092SOL     OW74108   4.816  11.226   3.286
24092SOL    HW174109   4.801  11.287   3.358
24092SOL    HW274110   4.729  11.197   3.259
24093SOL     OW74111  10.169   0.423   0.057
24093SOL    HW174112  10.127   0.508   0.052
24093SOL    HW274113  10.260   0.442   0.081
24094SOL     OW74114   6.579  13.383   7.664
24094SOL    HW174115   6.529  13.454   7.704
24094SOL    HW274116   6.651  13.427   7.619
24095SOL     OW74117   7.650   2.821   4.133
24095SOL    HW174118   7.616   2.821   4.044
24095SOL    HW274119   7.644   2.730   4.162
24096SOL     OW74120   8.793   9.268   4.521
24096SOL    HW174121   8.707   9.268   4.479
24096SOL    HW274122   8.827   9.179   4.506
24097SOL     OW74123  10.550   0.147  11.552
24097SOL    HW174124  10.499   0.066  11.552
24097SOL    HW274125  10.486   0.217  11.567
24098SOL     OW74126  11.322   8.432  14.100
24098SOL    HW174127  11.252   8.483  14.060
24098SOL    HW274128  11.325   8.463  14.190
24099SOL     OW74129   3.512  11.202   4.587
24099SOL    HW174130   3.574  11.237   4.524
24099SOL    HW274131   3.427  11.234   4.558
24100SOL     OW74132   3.829  14.773   4.243
24100SOL    HW174133   3.806  14.863   4.265
24100SOL    HW274134   3.762  14.720   4.285
24101SOL     OW74135  14.419   5.223   8.687
24101SOL    HW174136  14.416   5.156   8.618
24101SOL    HW274137  14.377   5.182   8.762
24102SOL     OW74138   3.946   9.713   6.271
24102SOL    HW174139   3.936   9.620   6.251
24102SOL    HW274140   3.864   9.752   6.242
24103SOL     OW74141   7.372  13.028   4.435
24103SOL    HW174142   7.365  13.084   4.512
24103SOL    HW274143   7.420  13.081   4.371
24104SOL     OW74144  10.836   6.539   5.013
24104SOL    HW174145  10.822   6.597   5.088
24104SOL    HW274146  10.774   6.569   4.947
24105SOL     OW74147   1.509   0.310   1.426
24105SOL    HW174148   1.446   0.331   1.357
24105SOL    HW274149   1.517   0.215   1.423
24106SOL     OW74150   6.232   5.200   9.712
24106SOL    HW174151   6.323   5.181   9.687
24106SOL    HW274152   6.238   5.241   9.798
24107SOL     OW74153  11.335   8.500   2.810
24107SOL    HW174154  11.346   8.421   2.757
24107SOL    HW274155  11.358   8.472   2.899
24108SOL     OW74156   5.363   0.867  14.852
24108SOL    HW174157   5.412   0.943   0.005
24108SOL    HW274158   5.306   0.842   0.045
24109SOL     OW74159   9.468  13.221  12.021
24109SOL    HW174160   9.425  13.281  12.082
24109SOL    HW274161   9.447  13.256  11.934
24110SOL     OW74162   8.901   6.513   5.644
24110SOL    HW174163   8.977   6.514   5.703
24110SOL    HW274164   8.828   6.488   5.700
24111SOL     OW74165   0.368   0.130   8.757
24111SOL    HW174166   0.435   0.161   8.695
24111SOL    HW274167   0.290   0.181   8.733
24112SOL     OW74168   9.805   8.304   6.190
24112SOL    HW174169   9.750   8.293   6.268
24112SOL    HW274170   9.804   8.398   6.172
24113SOL     OW74171   2.661  12.424   7.048
24113SOL    HW174172   2.669  12.333   7.020
24113SOL    HW274173   2.581  12.426   7.101
24114SOL     OW74174  11.636   3.060   2.291
24114SOL    HW174175  11.621   3.001   2.217
24114SOL    HW274176  11.557   3.053   2.344
24115SOL     OW74177  11.432  13.217   2.805
24115SOL    HW174178  11.465  13.127   2.795
24115SOL    HW274179  11.510  13.269   2.822
24116SOL     OW74180   7.323  11.807  13.598
24116SOL    HW174181   7.360  11.791  13.511
24116SOL    HW274182   7.378  11.876  13.635
24117SOL     OW74183   5.002   8.329  12.479
24117SOL    HW174184   5.041   8.305  12.563
24117SOL    HW274185   4.970   8.418  12.491
24118SOL     OW74186  12.242   7.271  10.640
24118SOL    HW174187  12.329   7.307  10.622
24118SOL    HW274188  12.182   7.326  10.589
24119SOL     OW74189   6.470   9.199  12.795
24119SOL    HW174190   6.390   9.207  12.743
24119SOL    HW274191   6.449   9.136  12.864
24120SOL     OW74192   1.779   9.417  12.364
24120SOL    HW174193   1.711   9.400  12.430
24120SOL    HW274194   1.768   9.346  12.301
24121SOL     OW74195   3.777  10.039   4.568
24121SOL    HW174196   3.772   9.958   4.518
24121SOL    HW274197   3.815  10.013   4.652
24122SOL     OW74198  12.844   9.650  12.927
24122SOL    HW174199  12.830   9.637  12.833
24122SOL    HW274200  12.840   9.562  12.965
24123SOL     OW74201  11.222  14.174   3.629
24123SOL    HW174202  11.142  14.132   3.596
24123SOL    HW274203  11.281  14.101   3.650
24124SOL     OW74204  11.297   1.159   6.089
24124SOL    HW174205  11.223   1.176   6.147
24124SOL    HW274206  11.356   1.104   6.142
24125SOL     OW74207   5.829   4.692   8.393
24125SOL    HW174208   5.812   4.715   8.301
24125SOL    HW274209   5.781   4.758   8.443
24126SOL     OW74210  11.857  14.663  11.092
24126SOL    HW174211  11.845  14.749  11.052
24126SOL    HW274212  11.852  14.601  11.020
24127SOL     OW74213   2.963  14.582   1.551
24127SOL    HW174214   3.030  14.578   1.619
24127SOL    HW274215   2.884  14.547   1.592
24128SOL     OW74216   1.600  12.617   8.788
24128SOL    HW174217   1.667  12.607   8.720
24128SOL    HW274218   1.563  12.529   8.798
24129SOL     OW74219   9.507   5.092  11.924
24129SOL    HW174220   9.471   5.035  11.856
24129SOL    HW274221   9.431   5.125  11.971
24130SOL     OW74222  10.954   8.963   9.282
24130SOL    HW174223  10.864   8.973   9.314
24130SOL    HW274224  10.944   8.929   9.193
24131SOL     OW74225   4.743   7.010   7.617
24131SOL    HW174226   4.785   7.001   7.702
24131SOL    HW274227   4.796   6.955   7.558
24132SOL     OW74228   1.505  10.253   0.130
24132SOL    HW174229   1.593  10.232   0.101
24132SOL    HW274230   1.504  10.231   0.223
24133SOL     OW74231   3.587   8.729   0.731
24133SOL    HW174232   3.664   8.692   0.774
24133SOL    HW274233   3.617   8.752   0.643
24134SOL     OW74234  13.836   3.543   8.945
24134SOL    HW174235  13.865   3.533   9.036
24134SOL    HW274236  13.850   3.635   8.926
24135SOL     OW74237   0.140   2.890   8.469
24135SOL    HW174238   0.106   2.975   8.499
24135SOL    HW274239   0.085   2.825   8.513
24136SOL     OW74240  14.011   8.179  10.316
24136SOL    HW174241  14.093   8.137  10.290
24136SOL    HW274242  13.962   8.189  10.234
24137SOL     OW74243  13.747   8.605  13.274
24137SOL    HW174244  13.769   8.534  13.334
24137SOL    HW274245  13.816   8.670  13.289
24138SOL     OW74246   0.833  10.563  13.467
24138SOL    HW174247   0.838  10.571  13.562
24138SOL    HW274248   0.832  10.654  13.436
24139SOL     OW74249  14.668   6.652  13.691
24139SOL    HW174250  14.725   6.610  13.755
24139SOL    HW274251  14.598   6.692  13.744
24140SOL     OW74252  12.241   2.856   2.813
24140SOL    HW174253  12.163   2.866   2.759
24140SOL    HW274254  12.210   2.822   2.897
24141SOL     OW74255   3.877   5.457   7.922
24141SOL    HW174256   3.938   5.478   7.851
24141SOL    HW274257   3.816   5.531   7.923
24142SOL     OW74258   8.324  12.331   1.755
24142SOL    HW174259   8.275  12.346   1.837
24142SOL    HW274260   8.322  12.236   1.744
24143SOL     OW74261   7.423   1.786  13.175
24143SOL    HW174262   7.361   1.737  13.120
24143SOL    HW274263   7.422   1.875  13.139
24144SOL     OW74264   5.179   3.528   3.265
24144SOL    HW174265   5.131   3.482   3.334
24144SOL    HW274266   5.114   3.539   3.195
24145SOL     OW74267   3.748  10.858  13.651
24145SOL    HW174268   3.683  10.927  13.644
24145SOL    HW274269   3.832  10.904  13.652
24146SOL     OW74270  14.413   5.058   5.418
24146SOL    HW174271  14.394   5.116   5.491
24146SOL    HW274272  14.436   4.975   5.458
24147SOL     OW74273   6.820   5.126   7.839
24147SOL    HW174274   6.847   5.034   7.844
24147SOL    HW274275   6.896   5.174   7.870
24148SOL     OW74276   7.300   6.074  11.766
24148SOL    HW174277   7.346   6.024  11.698
24148SOL    HW274278   7.363   6.082  11.837
24149SOL     OW74279   0.133   9.806  13.854
24149SOL    HW174280   0.228   9.804  13.843
24149SOL    HW274281   0.099   9.759  13.777
24150SOL     OW74282   6.526   5.500   5.599
24150SOL    HW174283   6.518   5.538   5.512
24150SOL    HW274284   6.581   5.423   5.587
24151SOL     OW74285  13.674   5.392   0.159
24151SOL    HW174286  13.687   5.477   0.201
24151SOL    HW274287  13.736   5.333   0.203
24152SOL     OW74288   4.024   9.788   7.010
24152SOL    HW174289   3.979   9.803   6.927
24152SOL    HW274290   4.052   9.696   7.005
24153SOL     OW74291   5.700   1.488   2.768
24153SOL    HW174292   5.644   1.476   2.845
24153SOL    HW274293   5.664   1.428   2.702
24154SOL     OW74294  13.944   6.924  14.306
24154SOL    HW174295  13.885   6.900  14.377
24154SOL    HW274296  13.899   6.896  14.226
24155SOL     OW74297  12.867   0.120   8.994
24155SOL    HW174298  12.885   0.077   8.910
24155SOL    HW274299  12.949   0.113   9.042
24156SOL     OW74300   7.341  11.218   0.828
24156SOL    HW174301   7.323  11.212   0.921
24156SOL    HW274302   7.319  11.308   0.804
24157SOL     OW74303   7.831   3.336  10.854
24157SOL    HW174304   7.829   3.405  10.787
24157SOL    HW274305   7.918   3.344  10.894
24158SOL     OW74306   7.351  10.123   3.154
24158SOL    HW174307   7.269  10.172   3.141
24158SOL    HW274308   7.401  10.176   3.217
24159SOL     OW74309   4.680  10.311  10.041
24159SOL    HW174310   4.708  10.225  10.009
24159SOL    HW274311   4.647  10.356   9.963
24160SOL     OW74312   2.704   0.671   4.306
24160SOL    HW174313   2.624   0.722   4.300
24160SOL    HW274314   2.683   0.587   4.264
24161SOL     OW74315   2.618   5.749   8.074
24161SOL    HW174316   2.538   5.696   8.081
24161SOL    HW274317   2.687   5.685   8.054
24162SOL     OW74318   1.404  10.406  13.403
24162SOL    HW174319   1.348  10.397  13.480
24162SOL    HW274320   1.363  10.476  13.352
24163SOL     OW74321   2.231   4.262   8.434
24163SOL    HW174322   2.248   4.352   8.462
24163SOL    HW274323   2.279   4.208   8.498
24164SOL     OW74324   7.860   8.759   6.166
24164SOL    HW174325   7.860   8.854   6.151
24164SOL    HW274326   7.910   8.747   6.247
24165SOL     OW74327   3.339   6.933   1.687
24165SOL    HW174328   3.413   6.969   1.639
24165SOL    HW274329   3.266   6.992   1.667
24166SOL     OW74330  11.262   0.648  11.491
24166SOL    HW174331  11.240   0.631  11.583
24166SOL    HW274332  11.354   0.624  11.484
24167SOL     OW74333   6.170  13.934   2.561
24167SOL    HW174334   6.095  13.898   2.609
24167SOL    HW274335   6.149  13.920   2.469
24168SOL     OW74336   7.886   6.544   2.490
24168SOL    HW174337   7.911   6.469   2.543
24168SOL    HW274338   7.917   6.620   2.539
24169SOL     OW74339   0.403   6.697   3.058
24169SOL    HW174340   0.397   6.640   2.981
24169SOL    HW274341   0.497   6.714   3.068
24170SOL     OW74342   7.959  12.497   1.096
24170SOL    HW174343   8.014  12.464   1.025
24170SOL    HW274344   7.957  12.426   1.160
24171SOL     OW74345   8.962   8.387  13.117
24171SOL    HW174346   9.014   8.333  13.057
24171SOL    HW274347   9.015   8.391  13.197
24172SOL     OW74348   0.197  12.323  14.562
24172SOL    HW174349   0.231  12.349  14.648
24172SOL    HW274350   0.141  12.396  14.535
24173SOL     OW74351   4.399   8.682  11.055
24173SOL    HW174352   4.403   8.618  11.127
24173SOL    HW274353   4.310   8.717  11.060
24174SOL     OW74354   5.742  14.413   7.137
24174SOL    HW174355   5.705  14.500   7.118
24174SOL    HW274356   5.837  14.428   7.140
24175SOL     OW74357   7.854   7.307   7.023
24175SOL    HW174358   7.879   7.392   6.987
24175SOL    HW274359   7.905   7.300   7.104
24176SOL     OW74360   1.182  10.989  10.245
24176SOL    HW174361   1.235  10.918  10.281
24176SOL    HW274362   1.193  10.980  10.150
24177SOL     OW74363   5.796   7.320   1.231
24177SOL    HW174364   5.819   7.228   1.218
24177SOL    HW274365   5.794   7.331   1.326
24178SOL     OW74366   6.477   0.193   0.865
24178SOL    HW174367   6.440   0.266   0.913
24178SOL    HW274368   6.525   0.233   0.793
24179SOL     OW74369   3.240  13.224   7.346
24179SOL    HW174370   3.213  13.143   7.303
24179SOL    HW274371   3.177  13.290   7.315
24180SOL     OW74372  14.125   8.602   5.073
24180SOL    HW174373  14.150   8.682   5.120
24180SOL    HW274374  14.187   8.597   5.000
24181SOL     OW74375  10.233  12.211   3.285
24181SOL    HW174376  10.236  12.117   3.304
24181SOL    HW274377  10.318  12.244   3.312
24182SOL     OW74378   1.174  10.193   0.442
24182SOL    HW174379   1.221  10.273   0.417
24182SOL    HW274380   1.243  10.130   0.463
24183SOL     OW74381  13.785   2.810   3.729
24183SOL    HW174382  13.800   2.816   3.635
24183SOL    HW274383  13.841   2.738   3.758
24184SOL     OW74384   9.089   0.039  11.437
24184SOL    HW174385   9.042  14.873  11.507
24184SOL    HW274386   9.035   0.024  11.359
24185SOL     OW74387  10.833   8.753  12.251
24185SOL    HW174388  10.791   8.673  12.282
24185SOL    HW274389  10.906   8.766  12.312
24186SOL     OW74390  13.972  12.398   0.785
24186SOL    HW174391  13.981  12.395   0.880
24186SOL    HW274392  13.947  12.308   0.761
24187SOL     OW74393   8.822   5.341   3.069
24187SOL    HW174394   8.790   5.418   3.022
24187SOL    HW274395   8.900   5.314   3.021
24188SOL     OW74396  14.625  13.022   1.177
24188SOL    HW174397  14.675  13.101   1.156
24188SOL    HW274398  14.553  13.054   1.233
24189SOL     OW74399  14.811   6.331  10.239
24189SOL    HW174400  14.790   6.350  10.330
24189SOL    HW274401  14.726   6.332  10.195
24190SOL     OW74402  11.985   2.374   9.946
24190SOL    HW174403  12.012   2.296   9.995
24190SOL    HW274404  11.977   2.344   9.855
24191SOL     OW74405   1.432  10.371   0.998
24191SOL    HW174406   1.498  10.379   0.929
24191SOL    HW274407   1.395  10.459   1.006
24192SOL     OW74408   6.202   5.342   8.819
24192SOL    HW174409   6.134   5.326   8.884
24192SOL    HW274410   6.159   5.325   8.735
24193SOL     OW74411   3.131   6.268   1.109
24193SOL    HW174412   3.155   6.338   1.170
24193SOL    HW274413   3.182   6.287   1.030
24194SOL     OW74414  10.048   9.308   6.104
24194SOL    HW174415   9.977   9.358   6.144
24194SOL    HW274416  10.006   9.226   6.076
24195SOL     OW74417  13.216   8.146   7.921
24195SOL    HW174418  13.263   8.069   7.952
24195SOL    HW274419  13.125   8.131   7.948
24196SOL     OW74420   1.489   9.210   8.354
24196SOL    HW174421   1.456   9.283   8.301
24196SOL    HW274422   1.574   9.189   8.315
24197SOL     OW74423   5.908   1.281  11.529
24197SOL    HW174424   5.978   1.232  11.486
24197SOL    HW274425   5.884   1.349  11.466
24198SOL     OW74426   9.584   3.124  11.412
24198SOL    HW174427   9.635   3.187  11.465
24198SOL    HW274428   9.603   3.148  11.322
24199SOL     OW74429   3.768  12.672   8.364
24199SOL    HW174430   3.843  12.651   8.308
24199SOL    HW274431   3.788  12.630   8.448
24200SOL     OW74432   1.487  13.268   1.846
24200SOL    HW174433   1.519  13.272   1.936
24200SOL    HW274434   1.511  13.180   1.816
24201SOL     OW74435  13.924   6.140   0.403
24201SOL    HW174436  13.980   6.214   0.427
24201SOL    HW274437  13.949   6.070   0.464
24202SOL     OW74438   3.079  13.928   1.715
24202SOL    HW174439   3.059  13.838   1.692
24202SOL    HW274440   3.039  13.940   1.801
24203SOL     OW74441   0.237   6.159  13.943
24203SOL    HW174442   0.185   6.089  13.982
24203SOL    HW274443   0.195   6.177  13.859
24204SOL     OW74444   4.200  12.781   7.575
24204SOL    HW174445   4.117  12.744   7.545
24204SOL    HW274446   4.176  12.840   7.646
24205SOL     OW74447   9.326   2.637   8.539
24205SOL    HW174448   9.276   2.647   8.620
24205SOL    HW274449   9.259   2.625   8.471
24206SOL     OW74450  11.557  14.288   3.950
24206SOL    HW174451  11.581  14.241   4.030
24206SOL    HW274452  11.627  14.267   3.888
24207SOL     OW74453   9.775   4.821   3.877
24207SOL    HW174454   9.693   4.835   3.829
24207SOL    HW274455   9.770   4.730   3.906
24208SOL     OW74456  14.859   3.905   7.412
24208SOL    HW174457   0.003   3.855   7.491
24208SOL    HW274458  14.789   3.964   7.440
24209SOL     OW74459   7.203   3.684   2.900
24209SOL    HW174460   7.198   3.634   2.819
24209SOL    HW274461   7.290   3.722   2.901
24210SOL     OW74462  14.695   3.512   4.974
24210SOL    HW174463  14.658   3.504   5.062
24210SOL    HW274464  14.622   3.543   4.920
24211SOL     OW74465   1.051   5.905   1.678
24211SOL    HW174466   0.996   5.936   1.751
24211SOL    HW274467   1.108   5.979   1.659
24212SOL     OW74468   1.569   8.274  12.027
24212SOL    HW174469   1.657   8.275  12.066
24212SOL    HW274470   1.576   8.211  11.955
24213SOL     OW74471   5.599  11.806   6.095
24213SOL    HW174472   5.533  11.831   6.159
24213SOL    HW274473   5.603  11.710   6.100
24214SOL     OW74474   7.285  13.537   7.218
24214SOL    HW174475   7.370  13.526   7.175
24214SOL    HW274476   7.296  13.615   7.272
24215SOL     OW74477  12.537   0.191   8.190
24215SOL    HW174478  12.618   0.217   8.234
24215SOL    HW274479  12.553   0.102   8.159
24216SOL     OW74480   5.578   1.578   4.354
24216SOL    HW174481   5.640   1.567   4.427
24216SOL    HW274482   5.494   1.549   4.390
24217SOL     OW74483  11.150   1.648  12.644
24217SOL    HW174484  11.205   1.594  12.587
24217SOL    HW274485  11.072   1.667  12.591
24218SOL     OW74486   1.034   4.714   1.285
24218SOL    HW174487   1.060   4.717   1.193
24218SOL    HW274488   1.111   4.680   1.331
24219SOL     OW74489   3.031   6.919   9.157
24219SOL    HW174490   2.974   6.966   9.218
24219SOL    HW274491   2.972   6.861   9.109
24220SOL     OW74492   3.590  12.459   1.947
24220SOL    HW174493   3.552  12.418   2.025
24220SOL    HW274494   3.619  12.545   1.977
24221SOL     OW74495   5.800   1.278  11.032
24221SOL    HW174496   5.788   1.238  10.946
24221SOL    HW274497   5.759   1.364  11.024
24222SOL     OW74498   4.851   3.715  14.251
24222SOL    HW174499   4.892   3.734  14.167
24222SOL    HW274500   4.864   3.794  14.303
24223SOL     OW74501   3.622   2.550   5.140
24223SOL    HW174502   3.644   2.632   5.184
24223SOL    HW274503   3.611   2.487   5.211
24224SOL     OW74504   8.556   8.518   0.971
24224SOL    HW174505   8.623   8.456   1.001
24224SOL    HW274506   8.597   8.604   0.982
24225SOL     OW74507  13.055   8.204   3.127
24225SOL    HW174508  13.012   8.288   3.109
24225SOL    HW274509  13.046   8.155   3.045
24226SOL     OW74510   0.366   5.836   8.489
24226SOL    HW174511   0.402   5.847   8.401
24226SOL    HW274512   0.429   5.780   8.534
24227SOL     OW74513   4.246   0.973  14.528
24227SOL    HW174514   4.240   1.067  14.544
24227SOL    HW274515   4.339   0.958  14.510
24228SOL     OW74516   5.714   7.415   7.512
24228SOL    HW174517   5.741   7.491   7.564
24228SOL    HW274518   5.783   7.406   7.445
24229SOL     OW74519  14.808   4.790  10.266
24229SOL    HW174520  14.824   4.724  10.199
24229SOL    HW274521  14.713   4.791  10.277
24230SOL     OW74522  11.469   7.372  13.105
24230SOL    HW174523  11.476   7.290  13.055
24230SOL    HW274524  11.476   7.441  13.039
24231SOL     OW74525  10.469   4.592   0.947
24231SOL    HW174526  10.544   4.587   1.007
24231SOL    HW274527  10.504   4.563   0.863
24232SOL     OW74528   3.525   0.130  14.560
24232SOL    HW174529   3.470   0.194  14.605
24232SOL    HW274530   3.475   0.104  14.483
24233SOL     OW74531  11.241   1.415   9.403
24233SOL    HW174532  11.328   1.376   9.409
24233SOL    HW274533  11.224   1.449   9.490
24234SOL     OW74534   7.077  13.693   6.491
24234SOL    HW174535   7.010  13.650   6.543
24234SOL    HW274536   7.130  13.741   6.554
24235SOL     OW74537  12.873   9.181  11.932
24235SOL    HW174538  12.917   9.222  11.857
24235SOL    HW274539  12.864   9.251  11.996
24236SOL     OW74540   9.965  13.108   7.209
24236SOL    HW174541  10.054  13.076   7.197
24236SOL    HW274542   9.911  13.029   7.205
24237SOL     OW74543   0.531   2.294   1.723
24237SOL    HW174544   0.475   2.224   1.757
24237SOL    HW274545   0.566   2.260   1.641
24238SOL     OW74546  14.314   6.748   8.861
24238SOL    HW174547  14.273   6.772   8.778
24238SOL    HW274548  14.359   6.666   8.842
24239SOL     OW74549   9.354   3.751  10.409
24239SOL    HW174550   9.262   3.776  10.405
24239SOL    HW274551   9.356   3.662  10.375
24240SOL     OW74552   0.456  13.814   7.928
24240SOL    HW174553   0.533  13.871   7.942
24240SOL    HW274554   0.442  13.772   8.013
24241SOL     OW74555  11.792  13.062   0.538
24241SOL    HW174556  11.758  13.051   0.627
24241SOL    HW274557  11.723  13.029   0.481
24242SOL     OW74558   2.485   7.446  10.283
24242SOL    HW174559   2.532   7.395  10.349
24242SOL    HW274560   2.419   7.386  10.250
24243SOL     OW74561   1.522  14.584  11.135
24243SOL    HW174562   1.559  14.645  11.199
24243SOL    HW274563   1.458  14.637  11.087
24244SOL     OW74564   6.281   1.450   6.373
24244SOL    HW174565   6.294   1.526   6.430
24244SOL    HW274566   6.252   1.488   6.290
24245SOL     OW74567   2.341   1.110  13.709
24245SOL    HW174568   2.400   1.113  13.784
24245SOL    HW274569   2.254   1.125  13.746
24246SOL     OW74570   8.893  12.111   1.472
24246SOL    HW174571   8.969  12.053   1.477
24246SOL    HW274572   8.858  12.112   1.561
24247SOL     OW74573  10.214   1.735   6.642
24247SOL    HW174574  10.199   1.730   6.548
24247SOL    HW274575  10.219   1.829   6.660
24248SOL     OW74576  11.003   5.230  10.598
24248SOL    HW174577  10.928   5.175  10.573
24248SOL    HW274578  10.987   5.251  10.690
24249SOL     OW74579   3.022   6.438  11.544
24249SOL    HW174580   2.928   6.429  11.554
24249SOL    HW274581   3.038   6.532  11.555
24250SOL     OW74582  10.693   6.554  10.631
24250SOL    HW174583  10.686   6.641  10.593
24250SOL    HW274584  10.648   6.497  10.569
24251SOL     OW74585  14.110  12.255   2.381
24251SOL    HW174586  14.134  12.189   2.315
24251SOL    HW274587  14.030  12.221   2.420
24252SOL     OW74588  11.161  11.265  11.079
24252SOL    HW174589  11.221  11.312  11.137
24252SOL    HW274590  11.174  11.173  11.101
24253SOL     OW74591  13.425   3.973  14.655
24253SOL    HW174592  13.455   3.939  14.739
24253SOL    HW274593  13.502   4.012  14.615
24254SOL     OW74594   0.784   2.190   8.309
24254SOL    HW174595   0.741   2.105   8.319
24254SOL    HW274596   0.874   2.175   8.339
24255SOL     OW74597   0.587   5.961   1.667
24255SOL    HW174598   0.567   5.913   1.586
24255SOL    HW274599   0.626   6.043   1.637
24256SOL     OW74600   0.074   3.189   8.513
24256SOL    HW174601  14.871   3.236   8.504
24256SOL    HW274602   0.125   3.215   8.436
24257SOL     OW74603   9.374   5.609  13.260
24257SOL    HW174604   9.342   5.654  13.338
24257SOL    HW274605   9.438   5.546  13.293
24258SOL     OW74606  11.544   5.838   4.925
24258SOL    HW174607  11.459   5.800   4.902
24258SOL    HW274608  11.541   5.847   5.020
24259SOL     OW74609  10.665   2.769   1.287
24259SOL    HW174610  10.742   2.826   1.284
24259SOL    HW274611  10.614   2.801   1.361
24260SOL     OW74612  11.786   3.262  12.960
24260SOL    HW174613  11.788   3.172  12.992
24260SOL    HW274614  11.849   3.263  12.888
24261SOL     OW74615   6.515  10.226   9.898
24261SOL    HW174616   6.444  10.164   9.880
24261SOL    HW274617   6.557  10.239   9.813
24262SOL     OW74618  11.581   2.151   6.587
24262SOL    HW174619  11.647   2.180   6.650
24262SOL    HW274620  11.545   2.071   6.626
24263SOL     OW74621   8.974   6.694  13.853
24263SOL    HW174622   9.029   6.619  13.829
24263SOL    HW274623   9.021   6.770  13.819
24264SOL     OW74624   0.347  11.020   4.630
24264SOL    HW174625   0.253  11.032   4.635
24264SOL    HW274626   0.358  10.949   4.566
24265SOL     OW74627   6.529   1.316   8.550
24265SOL    HW174628   6.437   1.305   8.526
24265SOL    HW274629   6.544   1.411   8.546
24266SOL     OW74630   7.706   8.018  12.783
24266SOL    HW174631   7.711   7.924  12.802
24266SOL    HW274632   7.639   8.025  12.715
24267SOL     OW74633   2.369  13.315   6.847
24267SOL    HW174634   2.413  13.352   6.923
24267SOL    HW274635   2.440  13.299   6.784
24268SOL     OW74636   5.821   3.442   5.670
24268SOL    HW174637   5.844   3.535   5.666
24268SOL    HW274638   5.725   3.441   5.677
24269SOL     OW74639  11.556   0.878   7.020
24269SOL    HW174640  11.514   0.825   7.087
24269SOL    HW274641  11.642   0.899   7.055
24270SOL     OW74642  10.688  11.593   3.288
24270SOL    HW174643  10.681  11.498   3.296
24270SOL    HW274644  10.774  11.607   3.250
24271SOL     OW74645   8.608   7.035   3.577
24271SOL    HW174646   8.515   7.025   3.598
24271SOL    HW274647   8.654   6.985   3.644
24272SOL     OW74648   9.371   4.454   1.649
24272SOL    HW174649   9.331   4.416   1.570
24272SOL    HW274650   9.332   4.541   1.656
24273SOL     OW74651   5.888  14.767   6.480
24273SOL    HW174652   5.879  14.683   6.434
24273SOL    HW274653   5.982  14.783   6.483
24274SOL     OW74654   5.539  13.739  11.654
24274SOL    HW174655   5.580  13.680  11.591
24274SOL    HW274656   5.558  13.700  11.739
24275SOL     OW74657  13.007  14.122   2.594
24275SOL    HW174658  12.978  14.038   2.627
24275SOL    HW274659  13.071  14.153   2.658
24276SOL     OW74660   8.645   0.074   4.147
24276SOL    HW174661   8.613   0.098   4.234
24276SOL    HW274662   8.594  14.875   4.124
24277SOL     OW74663  14.219   6.308   3.878
24277SOL    HW174664  14.310   6.338   3.867
24277SOL    HW274665  14.194   6.276   3.792
24278SOL     OW74666   9.241  14.093   6.039
24278SOL    HW174667   9.218  14.005   6.008
24278SOL    HW274668   9.225  14.149   5.963
24279SOL     OW74669   6.782  11.764  14.204
24279SOL    HW174670   6.841  11.760  14.129
24279SOL    HW274671   6.737  11.848  14.194
24280SOL     OW74672   8.034  13.964   9.159
24280SOL    HW174673   8.103  13.923   9.105
24280SOL    HW274674   8.011  13.896   9.223
24281SOL     OW74675   7.883  11.339   5.676
24281SOL    HW174676   7.826  11.320   5.601
24281SOL    HW274677   7.944  11.405   5.644
24282SOL     OW74678   5.324   8.315   5.048
24282SOL    HW174679   5.234   8.348   5.045
24282SOL    HW274680   5.342   8.290   4.957
24283SOL     OW74681  11.986  12.002   5.327
24283SOL    HW174682  11.970  11.976   5.236
24283SOL    HW274683  11.903  12.037   5.357
24284SOL     OW74684   6.561   8.779   2.947
24284SOL    HW174685   6.536   8.714   3.013
24284SOL    HW274686   6.609   8.846   2.996
24285SOL     OW74687   3.833   7.973   4.310
24285SOL    HW174688   3.816   8.043   4.374
24285SOL    HW274689   3.747   7.934   4.294
24286SOL     OW74690   4.798   7.791  13.150
24286SOL    HW174691   4.854   7.856  13.108
24286SOL    HW274692   4.713   7.833  13.159
24287SOL     OW74693   4.543  12.658  13.422
24287SOL    HW174694   4.611  12.595  13.401
24287SOL    HW274695   4.461  12.616  13.395
24288SOL     OW74696  10.999   4.339   3.285
24288SOL    HW174697  10.979   4.430   3.308
24288SOL    HW274698  11.040   4.303   3.364
24289SOL     OW74699  11.686   9.077   4.927
24289SOL    HW174700  11.719   8.990   4.907
24289SOL    HW274701  11.762   9.125   4.960
24290SOL     OW74702  13.761  10.802  11.985
24290SOL    HW174703  13.706  10.774  12.057
24290SOL    HW274704  13.736  10.893  11.969
24291SOL     OW74705   7.688  13.515   9.856
24291SOL    HW174706   7.697  13.454   9.783
24291SOL    HW274707   7.718  13.599   9.821
24292SOL     OW74708  13.692   1.171   8.362
24292SOL    HW174709  13.616   1.186   8.419
24292SOL    HW274710  13.705   1.077   8.364
24293SOL     OW74711  13.283   2.991   7.938
24293SOL    HW174712  13.326   2.907   7.925
24293SOL    HW274713  13.331   3.052   7.882
24294SOL     OW74714  13.616  11.363  10.143
24294SOL    HW174715  13.575  11.359  10.229
24294SOL    HW274716  13.555  11.315  10.086
24295SOL     OW74717   3.200  10.313  13.772
24295SOL    HW174718   3.284  10.343  13.739
24295SOL    HW274719   3.216  10.294  13.865
24296SOL     OW74720   1.489   1.879   8.118
24296SOL    HW174721   1.469   1.793   8.079
24296SOL    HW274722   1.457   1.872   8.208
24297SOL     OW74723   6.823   5.718   7.133
24297SOL    HW174724   6.841   5.784   7.067
24297SOL    HW274725   6.891   5.652   7.120
24298SOL     OW74726   9.558   9.628   1.072
24298SOL    HW174727   9.528   9.629   1.162
24298SOL    HW274728   9.625   9.560   1.069
24299SOL     OW74729  12.177   7.878  10.567
24299SOL    HW174730  12.142   7.924  10.644
24299SOL    HW274731  12.256   7.927  10.543
24300SOL     OW74732   2.350   1.165   1.299
24300SOL    HW174733   2.377   1.227   1.367
24300SOL    HW274734   2.301   1.098   1.346
24301SOL     OW74735   5.682  14.305   1.367
24301SOL    HW174736   5.670  14.275   1.457
24301SOL    HW274737   5.593  14.315   1.332
24302SOL     OW74738  13.312   6.684   3.904
24302SOL    HW174739  13.316   6.778   3.885
24302SOL    HW274740  13.322   6.642   3.819
24303SOL     OW74741   8.388   2.901   5.281
24303SOL    HW174742   8.367   2.940   5.196
24303SOL    HW274743   8.411   2.976   5.336
24304SOL     OW74744  10.992   7.011   8.495
24304SOL    HW174745  10.929   6.989   8.427
24304SOL    HW274746  10.953   6.979   8.576
24305SOL     OW74747   9.369   8.397   7.311
24305SOL    HW174748   9.435   8.356   7.366
24305SOL    HW274749   9.419   8.438   7.240
24306SOL     OW74750  12.198   2.253  11.712
24306SOL    HW174751  12.118   2.255  11.659
24306SOL    HW274752  12.168   2.266  11.802
24307SOL     OW74753   6.616   1.098  13.178
24307SOL    HW174754   6.679   1.028  13.157
24307SOL    HW274755   6.668   1.178  13.174
24308SOL     OW74756   6.887  14.794   3.715
24308SOL    HW174757   6.830  14.863   3.680
24308SOL    HW274758   6.863  14.789   3.808
24309SOL     OW74759   0.649   1.971   5.486
24309SOL    HW174760   0.625   1.966   5.578
24309SOL    HW274761   0.611   2.054   5.456
24310SOL     OW74762  11.444   1.271   3.180
24310SOL    HW174763  11.418   1.189   3.139
24310SOL    HW274764  11.363   1.306   3.217
24311SOL     OW74765   3.072   8.046   5.789
24311SOL    HW174766   3.068   8.135   5.824
24311SOL    HW274767   3.137   8.051   5.719
24312SOL     OW74768  13.659   7.744   2.291
24312SOL    HW174769  13.651   7.654   2.323
24312SOL    HW274770  13.626   7.741   2.201
24313SOL     OW74771   3.378   7.253   0.729
24313SOL    HW174772   3.410   7.165   0.749
24313SOL    HW274773   3.452   7.296   0.686
24314SOL     OW74774   1.721   2.906   0.476
24314SOL    HW174775   1.669   2.963   0.532
24314SOL    HW274776   1.741   2.959   0.399
24315SOL     OW74777   3.697   2.199  12.770
24315SOL    HW174778   3.758   2.132  12.741
24315SOL    HW274779   3.622   2.150  12.804
24316SOL     OW74780   3.505   4.026  11.860
24316SOL    HW174781   3.554   4.068  11.930
24316SOL    HW274782   3.425   4.079  11.851
24317SOL     OW74783   7.142   4.801   9.306
24317SOL    HW174784   7.187   4.817   9.389
24317SOL    HW274785   7.110   4.711   9.313
24318SOL     OW74786  12.006   6.689   5.156
24318SOL    HW174787  12.022   6.782   5.171
24318SOL    HW274788  11.917   6.675   5.186
24319SOL     OW74789  13.405   7.061  12.800
24319SOL    HW174790  13.479   7.023  12.847
24319SOL    HW274791  13.371   7.128  12.858
24320SOL     OW74792   5.037   6.274   2.585
24320SOL    HW174793   4.954   6.237   2.555
24320SOL    HW274794   5.058   6.225   2.664
24321SOL     OW74795  13.329   8.279  12.319
24321SOL    HW174796  13.356   8.200  12.274
24321SOL    HW274797  13.387   8.284  12.395
24322SOL     OW74798  12.973   0.560   5.530
24322SOL    HW174799  12.888   0.600   5.548
24322SOL    HW274800  12.966   0.471   5.566
24323SOL     OW74801  11.869  13.108   7.795
24323SOL    HW174802  11.911  13.148   7.719
24323SOL    HW274803  11.915  13.146   7.870
24324SOL     OW74804  13.402   4.406   7.795
24324SOL    HW174805  13.456   4.351   7.851
24324SOL    HW274806  13.383   4.351   7.719
24325SOL     OW74807  14.750   0.568  13.341
24325SOL    HW174808  14.830   0.554  13.290
24325SOL    HW274809  14.778   0.560  13.432
24326SOL     OW74810  14.706  13.608   1.238
24326SOL    HW174811  14.728  13.515   1.242
24326SOL    HW274812  14.786  13.652   1.266
24327SOL     OW74813   2.940  11.745   8.361
24327SOL    HW174814   2.857  11.783   8.389
24327SOL    HW274815   3.006  11.793   8.410
24328SOL     OW74816   2.400  13.586   1.359
24328SOL    HW174817   2.370  13.664   1.405
24328SOL    HW274818   2.495  13.588   1.369
24329SOL     OW74819  13.415   0.707   4.050
24329SOL    HW174820  13.343   0.680   3.993
24329SOL    HW274821  13.487   0.647   4.027
24330SOL     OW74822   0.444   5.922  12.457
24330SOL    HW174823   0.408   5.917  12.368
24330SOL    HW274824   0.374   5.888  12.513
24331SOL     OW74825  14.756  10.398   1.164
24331SOL    HW174826  14.709  10.479   1.148
24331SOL    HW274827  14.804  10.414   1.246
24332SOL     OW74828   6.840   3.023  10.310
24332SOL    HW174829   6.776   3.061  10.371
24332SOL    HW274830   6.919   3.075  10.323
24333SOL     OW74831   6.176   5.593  10.465
24333SOL    HW174832   6.215   5.583  10.552
24333SOL    HW274833   6.160   5.687  10.456
24334SOL     OW74834   1.913  13.264   9.627
24334SOL    HW174835   1.844  13.314   9.670
24334SOL    HW274836   1.918  13.300   9.538
24335SOL     OW74837   5.042   5.068   8.767
24335SOL    HW174838   5.114   5.033   8.713
24335SOL    HW274839   5.017   5.149   8.723
24336SOL     OW74840  14.661   2.748   6.442
24336SOL    HW174841  14.695   2.822   6.493
24336SOL    HW274842  14.721   2.676   6.463
24337SOL     OW74843  13.081  11.124   3.874
24337SOL    HW174844  13.106  11.202   3.825
24337SOL    HW274845  13.089  11.052   3.812
24338SOL     OW74846  11.105   0.080   7.965
24338SOL    HW174847  11.124  14.868   7.989
24338SOL    HW274848  11.139   0.132   8.038
24339SOL     OW74849   0.721   7.161   3.714
24339SOL    HW174850   0.710   7.148   3.808
24339SOL    HW274851   0.757   7.077   3.682
24340SOL     OW74852   8.837  13.808   7.956
24340SOL    HW174853   8.877  13.753   8.024
24340SOL    HW274854   8.771  13.859   8.003
24341SOL     OW74855  14.088   6.814   8.129
24341SOL    HW174856  14.145   6.876   8.175
24341SOL    HW274857  14.035   6.869   8.072
24342SOL     OW74858   8.606   7.261  13.740
24342SOL    HW174859   8.512   7.264  13.758
24342SOL    HW274860   8.635   7.178  13.778
24343SOL     OW74861   4.121   8.002   1.908
24343SOL    HW174862   4.082   8.068   1.851
24343SOL    HW274863   4.073   8.010   1.991
24344SOL     OW74864   9.143  14.597   0.585
24344SOL    HW174865   9.164  14.671   0.528
24344SOL    HW274866   9.056  14.617   0.621
24345SOL     OW74867   7.777  10.581   0.249
24345SOL    HW174868   7.813  10.561   0.162
24345SOL    HW274869   7.781  10.497   0.295
24346SOL     OW74870  12.635   3.361   2.657
24346SOL    HW174871  12.581   3.414   2.715
24346SOL    HW274872  12.671   3.423   2.593
24347SOL     OW74873   2.777   3.606   1.385
24347SOL    HW174874   2.804   3.515   1.380
24347SOL    HW274875   2.845   3.648   1.439
24348SOL     OW74876   7.124  13.976  12.167
24348SOL    HW174877   7.212  13.999  12.138
24348SOL    HW274878   7.136  13.936  12.253
24349SOL     OW74879   0.484   0.567  12.234
24349SOL    HW174880   0.406   0.550  12.288
24349SOL    HW274881   0.552   0.511  12.273
24350SOL     OW74882   6.665   3.274   6.993
24350SOL    HW174883   6.755   3.299   7.014
24350SOL    HW274884   6.642   3.210   7.060
24351SOL     OW74885  10.529  13.632   6.762
24351SOL    HW174886  10.487  13.546   6.765
24351SOL    HW274887  10.549  13.645   6.669
24352SOL     OW74888   2.676   5.946   7.767
24352SOL    HW174889   2.699   5.984   7.682
24352SOL    HW274890   2.753   5.963   7.821
24353SOL     OW74891   3.263   7.049   2.898
24353SOL    HW174892   3.169   7.051   2.882
24353SOL    HW274893   3.299   6.996   2.827
24354SOL     OW74894  11.034   8.389   4.426
24354SOL    HW174895  10.963   8.385   4.490
24354SOL    HW274896  11.097   8.451   4.463
24355SOL     OW74897   3.211   0.995  13.434
24355SOL    HW174898   3.220   1.020  13.342
24355SOL    HW274899   3.223   1.076  13.483
24356SOL     OW74900   2.948   2.609   7.522
24356SOL    HW174901   2.940   2.607   7.617
24356SOL    HW274902   3.033   2.568   7.504
24357SOL     OW74903  10.184  12.563   9.436
24357SOL    HW174904  10.174  12.637   9.497
24357SOL    HW274905  10.202  12.488   9.493
24358SOL     OW74906   0.996  11.731   7.432
24358SOL    HW174907   0.976  11.823   7.448
24358SOL    HW274908   0.971  11.686   7.513
24359SOL     OW74909   1.504  14.218  12.022
24359SOL    HW174910   1.595  14.239  12.002
24359SOL    HW274911   1.463  14.207  11.937
24360SOL     OW74912   3.774   6.740  13.782
24360SOL    HW174913   3.763   6.654  13.822
24360SOL    HW274914   3.710   6.741  13.711
24361SOL     OW74915   8.490   5.905   0.896
24361SOL    HW174916   8.540   5.862   0.827
24361SOL    HW274917   8.546   5.899   0.974
24362SOL     OW74918  10.582   8.003   7.746
24362SOL    HW174919  10.545   8.040   7.666
24362SOL    HW274920  10.624   7.922   7.719
24363SOL     OW74921   7.318  14.399   4.216
24363SOL    HW174922   7.350  14.309   4.211
24363SOL    HW274923   7.240  14.400   4.160
24364SOL     OW74924   8.007   3.683  10.523
24364SOL    HW174925   8.004   3.746  10.595
24364SOL    HW274926   8.093   3.696  10.483
24365SOL     OW74927   5.979   9.661   7.180
24365SOL    HW174928   6.018   9.747   7.161
24365SOL    HW274929   6.032   9.599   7.130
24366SOL     OW74930   5.645   6.922   4.457
24366SOL    HW174931   5.710   6.852   4.450
24366SOL    HW274932   5.596   6.917   4.375
24367SOL     OW74933  10.609  10.430   3.311
24367SOL    HW174934  10.560  10.428   3.393
24367SOL    HW274935  10.679  10.365   3.324
24368SOL     OW74936   1.772   1.907   9.259
24368SOL    HW174937   1.791   2.000   9.276
24368SOL    HW274938   1.841   1.860   9.307
24369SOL     OW74939  11.108  11.537   3.325
24369SOL    HW174940  11.031  11.575   3.283
24369SOL    HW274941  11.108  11.445   3.299
24370SOL     OW74942   5.580   5.936   9.727
24370SOL    HW174943   5.665   5.965   9.761
24370SOL    HW274944   5.590   5.841   9.718
24371SOL     OW74945   4.898  11.038   0.072
24371SOL    HW174946   4.952  11.114   0.050
24371SOL    HW274947   4.906  10.980  14.876
24372SOL     OW74948   9.518   1.525  14.470
24372SOL    HW174949   9.447   1.500  14.529
24372SOL    HW274950   9.521   1.621  14.473
24373SOL     OW74951   6.042   5.826   5.154
24373SOL    HW174952   5.999   5.903   5.192
24373SOL    HW274953   6.110   5.803   5.217
24374SOL     OW74954  13.531   0.361  13.286
24374SOL    HW174955  13.513   0.277  13.328
24374SOL    HW274956  13.491   0.354  13.199
24375SOL     OW74957   9.647   7.636  12.740
24375SOL    HW174958   9.701   7.622  12.662
24375SOL    HW274959   9.710   7.638  12.813
24376SOL     OW74960   9.654   8.524  10.032
24376SOL    HW174961   9.632   8.431  10.032
24376SOL    HW274962   9.653   8.549   9.940
24377SOL     OW74963  14.604   9.462  14.420
24377SOL    HW174964  14.548   9.520  14.369
24377SOL    HW274965  14.677   9.441  14.361
24378SOL     OW74966  10.864   2.578  12.359
24378SOL    HW174967  10.780   2.534  12.371
24378SOL    HW274968  10.852   2.663  12.401
24379SOL     OW74969   4.133   3.523   1.040
24379SOL    HW174970   4.217   3.559   1.011
24379SOL    HW274971   4.079   3.600   1.059
24380SOL     OW74972  12.401   5.224   9.714
24380SOL    HW174973  12.413   5.200   9.623
24380SOL    HW274974  12.341   5.158   9.749
24381SOL     OW74975   1.050   8.823  14.861
24381SOL    HW174976   1.020   8.914  14.863
24381SOL    HW274977   1.055   8.801  14.768
24382SOL     OW74978   4.574   9.540  10.351
24382SOL    HW174979   4.578   9.608  10.285
24382SOL    HW274980   4.646   9.481  10.329
24383SOL     OW74981   6.902   9.142  14.003
24383SOL    HW174982   6.959   9.121  14.077
24383SOL    HW274983   6.949   9.109  13.926
24384SOL     OW74984   6.114   0.482   9.775
24384SOL    HW174985   6.127   0.568   9.815
24384SOL    HW274986   6.075   0.429   9.845
24385SOL     OW74987   2.075   0.039  12.362
24385SOL    HW174988   2.007   0.105  12.371
24385SOL    HW274989   2.029  14.840  12.334
24386SOL     OW74990   1.475  12.540  11.607
24386SOL    HW174991   1.469  12.449  11.577
24386SOL    HW274992   1.441  12.592  11.533
24387SOL     OW74993   3.371   2.860   5.943
24387SOL    HW174994   3.323   2.819   5.870
24387SOL    HW274995   3.341   2.813   6.021
24388SOL     OW74996  11.109   2.485   4.699
24388SOL    HW174997  11.051   2.409   4.685
24388SOL    HW274998  11.153   2.498   4.615
24389SOL     OW74999   2.916  12.125   4.374
24389SOL    HW175000   2.846  12.158   4.318
24389SOL    HW275001   2.993  12.175   4.347
24390SOL     OW75002   1.718  13.194   1.579
24390SOL    HW175003   1.650  13.152   1.631
24390SOL    HW275004   1.741  13.273   1.629
24391SOL     OW75005  14.635  10.586  14.405
24391SOL    HW175006  14.686  10.524  14.457
24391SOL    HW275007  14.664  10.672  14.436
24392SOL     OW75008   4.528   0.483  14.563
24392SOL    HW175009   4.606   0.428  14.559
24392SOL    HW275010   4.461   0.428  14.604
24393SOL     OW75011   0.228  10.892   2.963
24393SOL    HW175012   0.252  10.924   2.876
24393SOL    HW275013   0.217  10.972   3.015
24394SOL     OW75014   6.948   8.037   3.300
24394SOL    HW175015   6.869   7.992   3.271
24394SOL    HW275016   6.996   8.057   3.219
24395SOL     OW75017  14.723   6.452  10.495
24395SOL    HW175018  14.703   6.542  10.522
24395SOL    HW275019  14.793   6.424  10.554
24396SOL     OW75020  13.017   2.073  12.265
24396SOL    HW175021  12.963   2.151  12.278
24396SOL    HW275022  12.956   2.000  12.270
24397SOL     OW75023   7.877   0.763   1.242
24397SOL    HW175024   7.825   0.780   1.163
24397SOL    HW275025   7.964   0.795   1.220
24398SOL     OW75026  13.219  10.562   0.517
24398SOL    HW175027  13.233  10.528   0.429
24398SOL    HW275028  13.210  10.483   0.572
24399SOL     OW75029   4.738   9.284  12.025
24399SOL    HW175030   4.717   9.351  11.960
24399SOL    HW275031   4.748   9.334  12.107
24400SOL     OW75032  11.902   6.942  10.859
24400SOL    HW175033  11.992   6.931  10.828
24400SOL    HW275034  11.904   7.021  10.913
24401SOL     OW75035   6.961   4.101   8.124
24401SOL    HW175036   6.866   4.114   8.121
24401SOL    HW275037   6.972   4.026   8.183
24402SOL     OW75038   5.674   1.265  10.340
24402SOL    HW175039   5.716   1.285  10.424
24402SOL    HW275040   5.738   1.212  10.293
24403SOL     OW75041   8.936   3.898   2.708
24403SOL    HW175042   8.964   3.988   2.719
24403SOL    HW275043   8.871   3.902   2.637
24404SOL     OW75044  14.663  12.336  10.992
24404SOL    HW175045  14.703  12.422  11.003
24404SOL    HW275046  14.725  12.287  10.938
24405SOL     OW75047   7.463  10.408   2.668
24405SOL    HW175048   7.453  10.458   2.587
24405SOL    HW275049   7.557  10.406   2.685
24406SOL     OW75050   0.089  12.641  11.075
24406SOL    HW175051   0.115  12.681  10.993
24406SOL    HW275052  14.873  12.638  11.072
24407SOL     OW75053   1.105  14.705   9.515
24407SOL    HW175054   1.104  14.723   9.609
24407SOL    HW275055   1.174  14.762   9.480
24408SOL     OW75056  13.338   2.104   6.380
24408SOL    HW175057  13.335   2.170   6.311
24408SOL    HW275058  13.247   2.077   6.391
24409SOL     OW75059   9.231   0.057   2.885
24409SOL    HW175060   9.203   0.136   2.837
24409SOL    HW275061   9.289   0.089   2.954
24410SOL     OW75062   6.490  14.076   7.833
24410SOL    HW175063   6.491  14.099   7.740
24410SOL    HW275064   6.412  14.119   7.868
24411SOL     OW75065   3.369  10.883   5.824
24411SOL    HW175066   3.449  10.900   5.873
24411SOL    HW275067   3.371  10.788   5.807
24412SOL     OW75068   5.148  10.109   8.221
24412SOL    HW175069   5.162  10.076   8.310
24412SOL    HW275070   5.143  10.030   8.167
24413SOL     OW75071   0.476   8.273   3.525
24413SOL    HW175072   0.549   8.310   3.574
24413SOL    HW275073   0.413   8.245   3.593
24414SOL     OW75074  11.587   2.879   2.095
24414SOL    HW175075  11.519   2.855   2.158
24414SOL    HW275076  11.610   2.797   2.051
24415SOL     OW75077  12.345   8.393  12.744
24415SOL    HW175078  12.409   8.437  12.800
24415SOL    HW275079  12.281   8.355  12.805
24416SOL     OW75080   3.266   6.576   7.574
24416SOL    HW175081   3.213   6.655   7.560
24416SOL    HW275082   3.288   6.545   7.486
24417SOL     OW75083   7.365   8.171   3.991
24417SOL    HW175084   7.365   8.094   4.048
24417SOL    HW275085   7.417   8.145   3.915
24418SOL     OW75086  14.444   1.747   5.471
24418SOL    HW175087  14.423   1.672   5.525
24418SOL    HW275088  14.501   1.801   5.527
24419SOL     OW75089   0.313   8.934   1.020
24419SOL    HW175090   0.246   8.964   1.081
24419SOL    HW275091   0.331   9.010   0.965
24420SOL     OW75092   6.612   9.441   1.893
24420SOL    HW175093   6.564   9.510   1.846
24420SOL    HW275094   6.686   9.486   1.933
24421SOL     OW75095  10.202   5.187   9.157
24421SOL    HW175096  10.295   5.203   9.172
24421SOL    HW275097  10.162   5.274   9.164
24422SOL     OW75098   0.622  12.857   8.461
24422SOL    HW175099   0.639  12.898   8.376
24422SOL    HW275100   0.532  12.825   8.454
24423SOL     OW75101   3.370   8.772   2.829
24423SOL    HW175102   3.319   8.852   2.814
24423SOL    HW275103   3.309   8.713   2.874
24424SOL     OW75104  10.022   2.023   0.538
24424SOL    HW175105   9.937   2.048   0.573
24424SOL    HW275106  10.066   2.106   0.519
24425SOL     OW75107  10.878  10.673   9.778
24425SOL    HW175108  10.851  10.604   9.718
24425SOL    HW275109  10.953  10.636   9.825
24426SOL     OW75110  13.425   9.154   0.399
24426SOL    HW175111  13.391   9.217   0.336
24426SOL    HW275112  13.385   9.180   0.482
24427SOL     OW75113  12.826  10.388   5.251
24427SOL    HW175114  12.823  10.356   5.341
24427SOL    HW275115  12.896  10.338   5.210
24428SOL     OW75116   6.179  11.345  11.691
24428SOL    HW175117   6.187  11.427  11.740
24428SOL    HW275118   6.095  11.309  11.718
24429SOL     OW75119   6.875   4.904  13.428
24429SOL    HW175120   6.930   4.864  13.361
24429SOL    HW275121   6.789   4.914  13.387
24430SOL     OW75122   5.449   5.273   0.444
24430SOL    HW175123   5.462   5.300   0.353
24430SOL    HW275124   5.504   5.332   0.495
24431SOL     OW75125   1.955   3.404   1.848
24431SOL    HW175126   1.907   3.449   1.778
24431SOL    HW275127   1.941   3.311   1.830
24432SOL     OW75128   4.904  14.859   4.964
24432SOL    HW175129   4.962   0.009   4.893
24432SOL    HW275130   4.899   0.055   5.023
24433SOL     OW75131   7.719   7.223   5.495
24433SOL    HW175132   7.634   7.195   5.530
24433SOL    HW275133   7.779   7.218   5.569
24434SOL     OW75134  10.241  11.952  14.491
24434SOL    HW175135  10.230  12.037  14.533
24434SOL    HW275136  10.217  11.888  14.559
24435SOL     OW75137   0.447   1.711  11.396
24435SOL    HW175138   0.523   1.759  11.429
24435SOL    HW275139   0.424   1.651  11.466
24436SOL     OW75140   6.929   4.801   0.529
24436SOL    HW175141   7.020   4.829   0.536
24436SOL    HW275142   6.932   4.718   0.484
24437SOL     OW75143  11.349   0.002   5.614
24437SOL    HW175144  11.367  14.806   5.672
24437SOL    HW275145  11.342   0.077   5.674
24438SOL     OW75146   7.592   8.875   7.804
24438SOL    HW175147   7.595   8.816   7.729
24438SOL    HW275148   7.507   8.858   7.844
24439SOL     OW75149   8.838   2.827   7.675
24439SOL    HW175150   8.883   2.911   7.685
24439SOL    HW275151   8.815   2.801   7.764
24440SOL     OW75152   9.570   0.438  11.578
24440SOL    HW175153   9.571   0.356  11.628
24440SOL    HW275154   9.612   0.502  11.635
24441SOL     OW75155   9.061   0.988   9.264
24441SOL    HW175156   8.992   0.967   9.202
24441SOL    HW275157   9.090   0.903   9.298
24442SOL     OW75158   2.094   1.624  10.334
24442SOL    HW175159   2.011   1.662  10.364
24442SOL    HW275160   2.076   1.596  10.244
24443SOL     OW75161  10.737   5.312  13.220
24443SOL    HW175162  10.783   5.293  13.138
24443SOL    HW275163  10.645   5.316  13.197
24444SOL     OW75164   2.163  13.875   0.387
24444SOL    HW175165   2.241  13.844   0.432
24444SOL    HW275166   2.193  13.946   0.331
24445SOL     OW75167   9.674   0.369   2.180
24445SOL    HW175168   9.590   0.403   2.150
24445SOL    HW275169   9.724   0.352   2.100
24446SOL     OW75170   7.920  14.026  10.753
24446SOL    HW175171   7.885  13.939  10.774
24446SOL    HW275172   7.989  14.009  10.690
24447SOL     OW75173   2.103   4.703   9.437
24447SOL    HW175174   2.083   4.796   9.437
24447SOL    HW275175   2.194   4.698   9.407
24448SOL     OW75176  11.126  13.942  11.785
24448SOL    HW175177  11.057  13.904  11.839
24448SOL    HW275178  11.173  13.866  11.749
24449SOL     OW75179   5.917  11.516  11.852
24449SOL    HW175180   5.906  11.498  11.945
24449SOL    HW275181   5.870  11.598  11.837
24450SOL     OW75182   5.249  12.740  14.653
24450SOL    HW175183   5.189  12.804  14.691
24450SOL    HW275184   5.211  12.655  14.676
24451SOL     OW75185   6.261  13.154   2.293
24451SOL    HW175186   6.297  13.096   2.225
24451SOL    HW275187   6.297  13.120   2.375
24452SOL     OW75188  12.561  11.930  12.049
24452SOL    HW175189  12.514  11.925  12.132
24452SOL    HW275190  12.652  11.944  12.072
24453SOL     OW75191  11.910   3.758   0.878
24453SOL    HW175192  11.926   3.693   0.947
24453SOL    HW275193  11.994   3.804   0.869
24454SOL     OW75194   3.572   9.170   2.813
24454SOL    HW175195   3.573   9.246   2.872
24454SOL    HW275196   3.538   9.098   2.867
24455SOL     OW75197  14.258   7.444  12.032
24455SOL    HW175198  14.234   7.401  11.950
24455SOL    HW275199  14.206   7.525  12.033
24456SOL     OW75200   0.583   8.353   5.578
24456SOL    HW175201   0.562   8.437   5.535
24456SOL    HW275202   0.614   8.297   5.507
24457SOL     OW75203   6.254   7.938   2.185
24457SOL    HW175204   6.350   7.944   2.181
24457SOL    HW275205   6.231   7.988   2.263
24458SOL     OW75206   8.348   8.106  10.680
24458SOL    HW175207   8.442   8.087  10.679
24458SOL    HW275208   8.307   8.020  10.689
24459SOL     OW75209  13.411   7.845   9.302
24459SOL    HW175210  13.352   7.864   9.228
24459SOL    HW275211  13.498   7.861   9.267
24460SOL     OW75212  14.284   0.839   7.508
24460SOL    HW175213  14.246   0.798   7.586
24460SOL    HW275214  14.250   0.787   7.435
24461SOL     OW75215  13.838  12.381  12.735
24461SOL    HW175216  13.790  12.322  12.793
24461SOL    HW275217  13.875  12.447  12.792
24462SOL     OW75218  14.524  12.009   0.246
24462SOL    HW175219  14.510  12.048   0.160
24462SOL    HW275220  14.536  12.083   0.305
24463SOL     OW75221   1.446   7.711   8.401
24463SOL    HW175222   1.518   7.648   8.405
24463SOL    HW275223   1.377   7.666   8.352
24464SOL     OW75224  13.506   2.235  10.651
24464SOL    HW175225  13.583   2.239  10.708
24464SOL    HW275226  13.476   2.144  10.659
24465SOL     OW75227   2.050  12.187   4.456
24465SOL    HW175228   2.027  12.096   4.436
24465SOL    HW275229   2.035  12.194   4.550
24466SOL     OW75230   2.845   5.247   9.944
24466SOL    HW175231   2.830   5.186  10.016
24466SOL    HW275232   2.776   5.312   9.952
24467SOL     OW75233   0.818  14.041   2.715
24467SOL    HW175234   0.746  14.104   2.715
24467SOL    HW275235   0.890  14.087   2.758
24468SOL     OW75236   5.002  12.167   0.268
24468SOL    HW175237   4.931  12.223   0.301
24468SOL    HW275238   5.082  12.207   0.302
24469SOL     OW75239   9.909   4.388   2.386
24469SOL    HW175240   9.937   4.302   2.418
24469SOL    HW275241   9.946   4.394   2.298
24470SOL     OW75242   2.360   2.910   1.591
24470SOL    HW175243   2.307   2.962   1.652
24470SOL    HW275244   2.446   2.953   1.593
24471SOL     OW75245  11.916   6.527   3.132
24471SOL    HW175246  11.965   6.456   3.091
24471SOL    HW275247  11.825   6.500   3.127
24472SOL     OW75248  13.118   3.106   2.285
24472SOL    HW175249  13.131   3.024   2.332
24472SOL    HW275250  13.204   3.126   2.247
24473SOL     OW75251   1.228   4.852   6.727
24473SOL    HW175252   1.321   4.870   6.739
24473SOL    HW275253   1.212   4.774   6.780
24474SOL     OW75254   2.119   4.784   6.188
24474SOL    HW175255   2.102   4.843   6.261
24474SOL    HW275256   2.036   4.738   6.174
24475SOL     OW75257  11.886   1.238   4.980
24475SOL    HW175258  11.878   1.143   4.988
24475SOL    HW275259  11.825   1.260   4.910
24476SOL     OW75260   3.320   4.980   9.462
24476SOL    HW175261   3.337   4.993   9.556
24476SOL    HW275262   3.225   4.988   9.454
24477SOL     OW75263  13.502   4.140  11.416
24477SOL    HW175264  13.456   4.170  11.494
24477SOL    HW275265  13.594   4.134  11.444
24478SOL     OW75266  10.296   2.413   3.106
24478SOL    HW175267  10.367   2.421   3.170
24478SOL    HW275268  10.228   2.474   3.138
24479SOL     OW75269   6.607   5.813  13.439
24479SOL    HW175270   6.666   5.738  13.437
24479SOL    HW275271   6.632   5.866  13.364
24480SOL     OW75272   2.138   8.751   9.026
24480SOL    HW175273   2.166   8.667   9.063
24480SOL    HW275274   2.206   8.813   9.053
24481SOL     OW75275   7.848  14.553   8.709
24481SOL    HW175276   7.917  14.509   8.758
24481SOL    HW275277   7.775  14.560   8.770
24482SOL     OW75278  14.449   6.778   1.433
24482SOL    HW175279  14.505   6.704   1.408
24482SOL    HW275280  14.510   6.849   1.451
24483SOL     OW75281   8.256   2.972   7.687
24483SOL    HW175282   8.290   2.914   7.756
24483SOL    HW275283   8.315   2.959   7.613
24484SOL     OW75284   3.380   4.958   2.759
24484SOL    HW175285   3.362   4.880   2.707
24484SOL    HW275286   3.473   4.951   2.783
24485SOL     OW75287   6.335  12.577   8.614
24485SOL    HW175288   6.255  12.564   8.564
24485SOL    HW275289   6.319  12.533   8.697
24486SOL     OW75290   3.430   8.489  10.774
24486SOL    HW175291   3.501   8.431  10.749
24486SOL    HW275292   3.468   8.547  10.840
24487SOL     OW75293   2.412   9.069  13.687
24487SOL    HW175294   2.449   8.980  13.686
24487SOL    HW275295   2.324   9.059  13.651
24488SOL     OW75296   7.612   3.628   1.772
24488SOL    HW175297   7.668   3.654   1.699
24488SOL    HW275298   7.666   3.642   1.850
24489SOL     OW75299   4.930   0.043   0.346
24489SOL    HW175300   4.964   0.107   0.283
24489SOL    HW275301   4.851   0.085   0.381
24490SOL     OW75302   4.333   0.411  11.625
24490SOL    HW175303   4.369   0.325  11.603
24490SOL    HW275304   4.239   0.403  11.609
24491SOL     OW75305   7.140  11.403  11.466
24491SOL    HW175306   7.156  11.471  11.531
24491SOL    HW275307   7.228  11.371  11.443
24492SOL     OW75308  14.799   6.373   8.911
24492SOL    HW175309  14.737   6.357   8.840
24492SOL    HW275310  14.866   6.306   8.900
24493SOL     OW75311   2.357   1.031   3.302
24493SOL    HW175312   2.433   0.974   3.313
24493SOL    HW275313   2.383   1.113   3.344
24494SOL     OW75314   5.818  13.319  10.946
24494SOL    HW175315   5.735  13.348  10.909
24494SOL    HW275316   5.828  13.229  10.916
24495SOL     OW75317   6.984   7.436   2.604
24495SOL    HW175318   6.912   7.445   2.541
24495SOL    HW275319   6.978   7.515   2.659
24496SOL     OW75320  13.178   7.625   6.232
24496SOL    HW175321  13.215   7.559   6.174
24496SOL    HW275322  13.242   7.696   6.232
24497SOL     OW75323   3.245   8.306  10.657
24497SOL    HW175324   3.244   8.383  10.714
24497SOL    HW275325   3.160   8.309  10.612
24498SOL     OW75326   8.039   5.690   4.536
24498SOL    HW175327   8.063   5.777   4.566
24498SOL    HW275328   8.061   5.689   4.443
24499SOL     OW75329  11.038   2.470  10.764
24499SOL    HW175330  11.024   2.410  10.691
24499SOL    HW275331  11.059   2.413  10.838
24500SOL     OW75332  13.906  12.366  10.883
24500SOL    HW175333  13.951  12.423  10.946
24500SOL    HW275334  13.977  12.323  10.835
24501SOL     OW75335   5.567   4.295   5.129
24501SOL    HW175336   5.508   4.352   5.080
24501SOL    HW275337   5.556   4.321   5.221
24502SOL     OW75338   0.325   0.858   9.684
24502SOL    HW175339   0.348   0.866   9.592
24502SOL    HW275340   0.408   0.861   9.730
24503SOL     OW75341  12.807   4.798   7.151
24503SOL    HW175342  12.770   4.762   7.070
24503SOL    HW275343  12.875   4.858   7.121
24504SOL     OW75344  14.229   3.260   1.252
24504SOL    HW175345  14.320   3.289   1.263
24504SOL    HW275346  14.179   3.314   1.313
24505SOL     OW75347  11.557   4.800  14.576
24505SOL    HW175348  11.477   4.779  14.623
24505SOL    HW275349  11.578   4.720  14.528
24506SOL     OW75350   9.269   7.017  14.571
24506SOL    HW175351   9.271   6.971  14.655
24506SOL    HW275352   9.335   6.973  14.517
24507SOL     OW75353   1.315   8.367   3.771
24507SOL    HW175354   1.408   8.357   3.790
24507SOL    HW275355   1.296   8.459   3.789
24508SOL     OW75356   0.431   8.805   3.533
24508SOL    HW175357   0.434   8.737   3.466
24508SOL    HW275358   0.406   8.759   3.613
24509SOL     OW75359   0.095   0.041  12.205
24509SOL    HW175360   0.080   0.111  12.141
24509SOL    HW275361   0.185   0.013  12.188
24510SOL     OW75362   7.314   2.999   1.834
24510SOL    HW175363   7.354   3.079   1.869
24510SOL    HW275364   7.245   3.031   1.775
24511SOL     OW75365  13.838   5.126  12.988
24511SOL    HW175366  13.907   5.063  13.006
24511SOL    HW275367  13.877   5.188  12.926
24512SOL     OW75368   7.651   5.080   2.881
24512SOL    HW175369   7.712   5.137   2.834
24512SOL    HW275370   7.668   5.097   2.973
24513SOL     OW75371  12.718   5.470  11.874
24513SOL    HW175372  12.649   5.530  11.900
24513SOL    HW275373  12.751   5.507  11.792
24514SOL     OW75374  14.365   8.330  11.503
24514SOL    HW175375  14.444   8.360  11.548
24514SOL    HW275376  14.322   8.410  11.473
24515SOL     OW75377   6.948  12.946   7.277
24515SOL    HW175378   6.997  12.983   7.350
24515SOL    HW275379   7.012  12.942   7.205
24516SOL     OW75380   1.302  10.621  13.030
24516SOL    HW175381   1.386  10.599  12.990
24516SOL    HW275382   1.240  10.621  12.957
24517SOL     OW75383   8.282  11.963   2.741
24517SOL    HW175384   8.241  11.879   2.720
24517SOL    HW275385   8.278  12.014   2.660
24518SOL     OW75386   3.230  13.815  11.466
24518SOL    HW175387   3.164  13.842  11.530
24518SOL    HW275388   3.268  13.735  11.503
24519SOL     OW75389  11.969   3.797  10.579
24519SOL    HW175390  11.908   3.729  10.608
24519SOL    HW275391  12.037   3.798  10.647
24520SOL     OW75392   6.648   7.120   4.908
24520SOL    HW175393   6.658   7.139   5.001
24520SOL    HW275394   6.736   7.130   4.871
24521SOL     OW75395   9.819   3.168   0.621
24521SOL    HW175396   9.878   3.206   0.556
24521SOL    HW275397   9.873   3.161   0.701
24522SOL     OW75398   2.806   3.524   8.068
24522SOL    HW175399   2.781   3.528   7.975
24522SOL    HW275400   2.896   3.492   8.067
24523SOL     OW75401   9.715   2.093   3.686
24523SOL    HW175402   9.759   2.136   3.613
24523SOL    HW275403   9.633   2.141   3.696
24524SOL     OW75404   2.774   4.720   8.107
24524SOL    HW175405   2.808   4.715   8.197
24524SOL    HW275406   2.778   4.630   8.075
24525SOL     OW75407   8.327  12.252   9.387
24525SOL    HW175408   8.367  12.235   9.472
24525SOL    HW275409   8.254  12.189   9.382
24526SOL     OW75410  10.038   8.104   9.886
24526SOL    HW175411   9.998   8.090   9.800
24526SOL    HW275412  10.132   8.093   9.870
24527SOL     OW75413  13.017   6.348  11.319
24527SOL    HW175414  13.045   6.391  11.239
24527SOL    HW275415  12.972   6.268  11.290
24528SOL     OW75416   9.331   4.306  11.114
24528SOL    HW175417   9.390   4.263  11.176
24528SOL    HW275418   9.369   4.393  11.100
24529SOL     OW75419  14.674  12.315   1.536
24529SOL    HW175420  14.617  12.304   1.460
24529SOL    HW275421  14.702  12.227   1.557
24530SOL     OW75422   7.080   7.876  14.773
24530SOL    HW175423   7.012   7.822  14.815
24530SOL    HW275424   7.133   7.814  14.724
24531SOL     OW75425   1.393   5.578  13.631
24531SOL    HW175426   1.369   5.546  13.544
24531SOL    HW275427   1.387   5.500  13.687
24532SOL     OW75428   4.729   5.111  14.182
24532SOL    HW175429   4.816   5.123  14.145
24532SOL    HW275430   4.706   5.021  14.161
24533SOL     OW75431  10.975   4.069  14.032
24533SOL    HW175432  10.932   4.069  13.947
24533SOL    HW275433  11.032   3.992  14.030
24534SOL     OW75434   3.190   3.950  13.567
24534SOL    HW175435   3.112   3.999  13.542
24534SOL    HW275436   3.187   3.947  13.663
24535SOL     OW75437  12.330   6.110   0.127
24535SOL    HW175438  12.378   6.163   0.064
24535SOL    HW275439  12.375   6.123   0.210
24536SOL     OW75440  14.243   6.242   6.226
24536SOL    HW175441  14.325   6.193   6.221
24536SOL    HW275442  14.187   6.200   6.161
24537SOL     OW75443   7.736   4.478   7.682
24537SOL    HW175444   7.647   4.478   7.718
24537SOL    HW275445   7.735   4.409   7.616
24538SOL     OW75446   4.550  10.082   2.043
24538SOL    HW175447   4.609  10.008   2.053
24538SOL    HW275448   4.544  10.120   2.131
24539SOL     OW75449   0.880   3.613  11.658
24539SOL    HW175450   0.880   3.628  11.753
24539SOL    HW275451   0.796   3.570  11.640
24540SOL     OW75452   3.391   0.517  11.918
24540SOL    HW175453   3.471   0.549  11.961
24540SOL    HW275454   3.356   0.451  11.977
24541SOL     OW75455   8.589   7.432  13.092
24541SOL    HW175456   8.662   7.407  13.035
24541SOL    HW275457   8.600   7.526  13.105
24542SOL     OW75458   1.081   9.443   8.991
24542SOL    HW175459   1.127   9.366   9.024
24542SOL    HW275460   1.024   9.408   8.922
24543SOL     OW75461  11.741   7.645  13.404
24543SOL    HW175462  11.809   7.585  13.436
24543SOL    HW275463  11.679   7.652  13.477
24544SOL     OW75464  11.472   1.100   1.178
24544SOL    HW175465  11.467   1.018   1.128
24544SOL    HW275466  11.429   1.164   1.121
24545SOL     OW75467   2.655   5.479   9.952
24545SOL    HW175468   2.642   5.571   9.932
24545SOL    HW275469   2.570   5.438   9.934
24546SOL     OW75470  12.957   5.099   3.662
24546SOL    HW175471  13.014   5.175   3.649
24546SOL    HW275472  13.014   5.024   3.650
24547SOL     OW75473   7.821   1.884   1.298
24547SOL    HW175474   7.730   1.905   1.317
24547SOL    HW275475   7.856   1.853   1.381
24548SOL     OW75476   9.455   1.687   9.767
24548SOL    HW175477   9.514   1.668   9.840
24548SOL    HW275478   9.507   1.668   9.689
24549SOL     OW75479   5.056   1.171  10.550
24549SOL    HW175480   5.132   1.221  10.520
24549SOL    HW275481   4.981   1.227  10.532
24550SOL     OW75482   7.539   0.466   3.273
24550SOL    HW175483   7.526   0.551   3.230
24550SOL    HW275484   7.464   0.458   3.332
24551SOL     OW75485   9.687   1.764   1.626
24551SOL    HW175486   9.607   1.789   1.578
24551SOL    HW275487   9.758   1.805   1.576
24552SOL     OW75488   5.575   9.197   6.560
24552SOL    HW175489   5.545   9.222   6.472
24552SOL    HW275490   5.652   9.142   6.544
24553SOL     OW75491   3.747   8.801   1.037
24553SOL    HW175492   3.784   8.753   0.963
24553SOL    HW275493   3.738   8.736   1.106
24554SOL     OW75494   8.166  14.697  12.772
24554SOL    HW175495   8.171  14.741  12.857
24554SOL    HW275496   8.072  14.686  12.756
24555SOL     OW75497   0.391   7.762  10.797
24555SOL    HW175498   0.376   7.803  10.712
24555SOL    HW275499   0.351   7.675  10.788
24556SOL     OW75500  10.304   5.220  14.138
24556SOL    HW175501  10.314   5.142  14.084
24556SOL    HW275502  10.287   5.186  14.226
24557SOL     OW75503   4.328   8.863   4.560
24557SOL    HW175504   4.243   8.833   4.592
24557SOL    HW275505   4.373   8.895   4.638
24558SOL     OW75506   0.868   6.411   1.453
24558SOL    HW175507   0.935   6.465   1.494
24558SOL    HW275508   0.870   6.436   1.361
24559SOL     OW75509  11.329  12.580   2.233
24559SOL    HW175510  11.275  12.503   2.251
24559SOL    HW275511  11.326  12.588   2.137
24560SOL     OW75512  14.809   4.363   9.539
24560SOL    HW175513  14.765   4.310   9.473
24560SOL    HW275514  14.865   4.422   9.489
24561SOL     OW75515  13.156   1.456   1.320
24561SOL    HW175516  13.068   1.448   1.357
24561SOL    HW275517  13.140   1.470   1.226
24562SOL     OW75518   9.026   5.581   4.809
24562SOL    HW175519   9.092   5.641   4.842
24562SOL    HW275520   8.943   5.626   4.822
24563SOL     OW75521   9.620  13.258   2.627
24563SOL    HW175522   9.633  13.167   2.600
24563SOL    HW275523   9.671  13.266   2.708
24564SOL     OW75524   6.933   6.778   3.798
24564SOL    HW175525   6.883   6.775   3.880
24564SOL    HW275526   6.897   6.708   3.745
24565SOL     OW75527   7.795   2.942   4.896
24565SOL    HW175528   7.731   2.879   4.928
24565SOL    HW275529   7.764   3.026   4.928
24566SOL     OW75530   7.320   5.131  11.048
24566SOL    HW175531   7.336   5.126  11.143
24566SOL    HW275532   7.302   5.223  11.032
24567SOL     OW75533   9.134   5.615  11.921
24567SOL    HW175534   9.075   5.681  11.957
24567SOL    HW275535   9.150   5.643  11.831
24568SOL     OW75536   3.534   9.295   7.036
24568SOL    HW175537   3.623   9.329   7.050
24568SOL    HW275538   3.483   9.330   7.108
24569SOL     OW75539   6.867  14.782   7.623
24569SOL    HW175540   6.955  14.801   7.655
24569SOL    HW275541   6.818  14.760   7.703
24570SOL     OW75542   9.492  12.604   2.455
24570SOL    HW175543   9.468  12.551   2.531
24570SOL    HW275544   9.543  12.545   2.399
24571SOL     OW75545   9.989  12.813  11.307
24571SOL    HW175546   9.928  12.740  11.313
24571SOL    HW275547  10.075  12.773  11.315
24572SOL     OW75548  12.854  14.099   1.926
24572SOL    HW175549  12.814  14.115   2.011
24572SOL    HW275550  12.795  14.036   1.884
24573SOL     OW75551   2.987   0.921   3.193
24573SOL    HW175552   3.031   0.837   3.206
24573SOL    HW275553   3.007   0.944   3.102
24574SOL     OW75554   8.893  13.022   8.669
24574SOL    HW175555   8.898  13.089   8.601
24574SOL    HW275556   8.887  13.071   8.751
24575SOL     OW75557   7.115   5.726  12.894
24575SOL    HW175558   7.098   5.694  12.983
24575SOL    HW275559   7.184   5.669  12.860
24576SOL     OW75560   8.515   3.475   7.249
24576SOL    HW175561   8.476   3.523   7.176
24576SOL    HW275562   8.478   3.387   7.242
24577SOL     OW75563   9.492   0.994   8.743
24577SOL    HW175564   9.513   0.921   8.684
24577SOL    HW275565   9.575   1.014   8.786
24578SOL     OW75566   7.746   7.836   4.640
24578SOL    HW175567   7.745   7.918   4.591
24578SOL    HW275568   7.658   7.800   4.629
24579SOL     OW75569   8.149   9.875  10.744
24579SOL    HW175570   8.192   9.850  10.663
24579SOL    HW275571   8.075   9.929  10.717
24580SOL     OW75572  11.011   5.053   1.367
24580SOL    HW175573  11.088   5.063   1.311
24580SOL    HW275574  10.939   5.087   1.315
24581SOL     OW75575   1.182  10.391   6.470
24581SOL    HW175576   1.135  10.472   6.448
24581SOL    HW275577   1.272  10.407   6.443
24582SOL     OW75578  14.492  13.153   5.869
24582SOL    HW175579  14.569  13.111   5.905
24582SOL    HW275580  14.451  13.085   5.814
24583SOL     OW75581  10.320  14.660  13.515
24583SOL    HW175582  10.308  14.704  13.599
24583SOL    HW275583  10.278  14.718  13.452
24584SOL     OW75584   6.582   7.318   1.074
24584SOL    HW175585   6.583   7.407   1.039
24584SOL    HW275586   6.673   7.297   1.092
24585SOL     OW75587   3.951   6.196   4.727
24585SOL    HW175588   4.036   6.153   4.736
24585SOL    HW275589   3.963   6.260   4.657
24586SOL     OW75590   2.111  11.784  12.766
24586SOL    HW175591   2.084  11.757  12.854
24586SOL    HW275592   2.037  11.834  12.733
24587SOL     OW75593   6.248   3.364   9.808
24587SOL    HW175594   6.232   3.426   9.737
24587SOL    HW275595   6.215   3.281   9.776
24588SOL     OW75596   9.699   1.079   2.863
24588SOL    HW175597   9.743   1.095   2.946
24588SOL    HW275598   9.744   1.133   2.799
24589SOL     OW75599   0.499  14.281   9.283
24589SOL    HW175600   0.577  14.331   9.308
24589SOL    HW275601   0.531  14.192   9.270
24590SOL     OW75602  13.133   3.880   9.233
24590SOL    HW175603  13.101   3.949   9.291
24590SOL    HW275604  13.056   3.854   9.183
24591SOL     OW75605   6.380  11.677   1.606
24591SOL    HW175606   6.304  11.654   1.553
24591SOL    HW275607   6.356  11.761   1.646
24592SOL     OW75608   5.098   9.634  10.249
24592SOL    HW175609   5.051   9.584  10.183
24592SOL    HW275610   5.181   9.657  10.208
24593SOL     OW75611  10.053   3.033   2.568
24593SOL    HW175612  10.057   2.948   2.611
24593SOL    HW275613  10.072   3.015   2.477
24594SOL     OW75614   3.489  14.874   5.800
24594SOL    HW175615   3.513   0.004   5.707
24594SOL    HW275616   3.394   0.007   5.800
24595SOL     OW75617  11.998  13.653   6.994
24595SOL    HW175618  11.958  13.726   6.946
24595SOL    HW275619  11.924  13.611   7.039
24596SOL     OW75620  13.982   7.396   6.717
24596SOL    HW175621  13.992   7.481   6.674
24596SOL    HW275622  13.923   7.414   6.791
24597SOL     OW75623   4.026   4.582   0.295
24597SOL    HW175624   4.089   4.651   0.313
24597SOL    HW275625   4.056   4.508   0.348
24598SOL     OW75626  12.727   7.099   0.649
24598SOL    HW175627  12.646   7.144   0.673
24598SOL    HW275628  12.791   7.168   0.637
24599SOL     OW75629   7.677  13.483  11.188
24599SOL    HW175630   7.689  13.398  11.231
24599SOL    HW275631   7.587  13.508  11.211
24600SOL     OW75632   7.625   3.590   0.263
24600SOL    HW175633   7.656   3.602   0.173
24600SOL    HW275634   7.666   3.661   0.312
24601SOL     OW75635   0.271  10.091   3.616
24601SOL    HW175636   0.269  10.147   3.539
24601SOL    HW275637   0.355  10.045   3.611
24602SOL     OW75638   8.615  14.360   7.230
24602SOL    HW175639   8.567  14.434   7.193
24602SOL    HW275640   8.707  14.379   7.210
24603SOL     OW75641   5.770   9.857   0.254
24603SOL    HW175642   5.732   9.847   0.341
24603SOL    HW275643   5.699   9.892   0.200
24604SOL     OW75644  13.842  11.765  10.256
24604SOL    HW175645  13.869  11.676  10.234
24604SOL    HW275646  13.909  11.796  10.316
24605SOL     OW75647   4.321   6.726  12.501
24605SOL    HW175648   4.242   6.745  12.552
24605SOL    HW275649   4.385   6.789  12.532
24606SOL     OW75650   0.524   7.741   7.890
24606SOL    HW175651   0.449   7.707   7.841
24606SOL    HW275652   0.599   7.727   7.833
24607SOL     OW75653   1.196   0.635   4.679
24607SOL    HW175654   1.193   0.560   4.620
24607SOL    HW275655   1.241   0.703   4.628
24608SOL     OW75656   2.673   8.825  11.361
24608SOL    HW175657   2.627   8.883  11.421
24608SOL    HW275658   2.676   8.741  11.406
24609SOL     OW75659  10.923   6.253   8.650
24609SOL    HW175660  10.955   6.338   8.619
24609SOL    HW275661  10.852   6.230   8.590
24610SOL     OW75662   3.255   5.973  10.576
24610SOL    HW175663   3.250   6.012  10.663
24610SOL    HW275664   3.200   5.894  10.583
24611SOL     OW75665  14.704  14.342   3.088
24611SOL    HW175666  14.728  14.288   3.013
24611SOL    HW275667  14.667  14.280   3.151
24612SOL     OW75668   7.631   3.135  13.637
24612SOL    HW175669   7.610   3.220  13.676
24612SOL    HW275670   7.554   3.113  13.585
24613SOL     OW75671  10.013   7.426   2.252
24613SOL    HW175672  10.050   7.339   2.238
24613SOL    HW275673   9.919   7.414   2.248
24614SOL     OW75674  11.181   8.943   2.686
24614SOL    HW175675  11.097   8.988   2.696
24614SOL    HW275676  11.192   8.895   2.768
24615SOL     OW75677   2.385   5.912   2.505
24615SOL    HW175678   2.360   5.939   2.417
24615SOL    HW275679   2.341   5.828   2.518
24616SOL     OW75680   4.606  13.793   0.590
24616SOL    HW175681   4.557  13.857   0.641
24616SOL    HW275682   4.561  13.789   0.506
24617SOL     OW75683   6.859   2.336  11.028
24617SOL    HW175684   6.801   2.410  11.047
24617SOL    HW275685   6.890   2.307  11.114
24618SOL     OW75686   2.795   3.394   1.659
24618SOL    HW175687   2.822   3.407   1.568
24618SOL    HW275688   2.876   3.396   1.709
24619SOL     OW75689   8.769   3.451   2.879
24619SOL    HW175690   8.767   3.543   2.851
24619SOL    HW275691   8.787   3.455   2.972
24620SOL     OW75692   3.500  11.237   0.063
24620SOL    HW175693   3.513  11.211   0.154
24620SOL    HW275694   3.405  11.238   0.051
24621SOL     OW75695  12.787   8.671   4.638
24621SOL    HW175696  12.818   8.619   4.712
24621SOL    HW275697  12.696   8.692   4.659
24622SOL     OW75698  13.072   9.456  11.687
24622SOL    HW175699  13.074   9.361  11.676
24622SOL    HW275700  13.091   9.470  11.779
24623SOL     OW75701  10.368  11.686   6.484
24623SOL    HW175702  10.361  11.738   6.564
24623SOL    HW275703  10.369  11.750   6.413
24624SOL     OW75704  14.253   7.205   1.579
24624SOL    HW175705  14.241   7.183   1.487
24624SOL    HW275706  14.327   7.150   1.607
24625SOL     OW75707   7.327  10.249   4.243
24625SOL    HW175708   7.390  10.219   4.309
24625SOL    HW275709   7.359  10.209   4.161
24626SOL     OW75710  14.169   3.943  10.717
24626SOL    HW175711  14.217   3.888  10.779
24626SOL    HW275712  14.187   4.032  10.746
24627SOL     OW75713   7.358   1.962   2.633
24627SOL    HW175714   7.351   1.872   2.601
24627SOL    HW275715   7.280   1.975   2.686
24628SOL     OW75716   2.787   0.438  11.170
24628SOL    HW175717   2.863   0.492  11.192
24628SOL    HW275718   2.821   0.371  11.111
24629SOL     OW75719   3.064   2.341   7.448
24629SOL    HW175720   3.128   2.352   7.378
24629SOL    HW275721   3.110   2.289   7.514
24630SOL     OW75722   9.036   3.426  13.348
24630SOL    HW175723   9.126   3.413  13.378
24630SOL    HW275724   8.983   3.412  13.427
24631SOL     OW75725  14.761  12.072   4.732
24631SOL    HW175726  14.723  12.136   4.672
24631SOL    HW275727  14.821  12.123   4.787
24632SOL     OW75728  12.467  13.536  13.447
24632SOL    HW175729  12.475  13.631  13.438
24632SOL    HW275730  12.461  13.504  13.357
24633SOL     OW75731  12.540   8.297  12.195
24633SOL    HW175732  12.613   8.296  12.132
24633SOL    HW275733  12.463   8.314  12.141
24634SOL     OW75734   2.734   7.340   4.714
24634SOL    HW175735   2.717   7.251   4.682
24634SOL    HW275736   2.798   7.328   4.785
24635SOL     OW75737   0.661   6.769   3.368
24635SOL    HW175738   0.711   6.713   3.309
24635SOL    HW275739   0.597   6.710   3.408
24636SOL     OW75740   4.905  13.618   6.277
24636SOL    HW175741   4.922  13.611   6.371
24636SOL    HW275742   4.866  13.534   6.253
24637SOL     OW75743   6.261  13.434   4.989
24637SOL    HW175744   6.347  13.395   4.972
24637SOL    HW275745   6.205  13.360   5.011
24638SOL     OW75746  11.056  10.744   0.000
24638SOL    HW175747  11.048  10.657   0.038
24638SOL    HW275748  11.038  10.732  14.786
24639SOL     OW75749  13.067   7.924  10.225
24639SOL    HW175750  13.102   7.939  10.136
24639SOL    HW275751  13.106   7.841  10.252
24640SOL     OW75752   8.646   9.073   9.614
24640SOL    HW175753   8.703   9.138   9.656
24640SOL    HW275754   8.691   8.990   9.627
24641SOL     OW75755  11.291  13.894  11.045
24641SOL    HW175756  11.206  13.863  11.077
24641SOL    HW275757  11.355  13.842  11.094
24642SOL     OW75758  10.458   8.432   5.699
24642SOL    HW175759  10.547   8.399   5.697
24642SOL    HW275760  10.443   8.466   5.610
24643SOL     OW75761   0.275   6.249   0.616
24643SOL    HW175762   0.270   6.235   0.522
24643SOL    HW275763   0.348   6.311   0.627
24644SOL     OW75764   4.649   3.156   7.007
24644SOL    HW175765   4.683   3.126   7.091
24644SOL    HW275766   4.703   3.232   6.985
24645SOL     OW75767   0.299   6.483  11.795
24645SOL    HW175768   0.308   6.497  11.889
24645SOL    HW275769   0.262   6.565  11.762
24646SOL     OW75770  14.755   8.739   1.857
24646SOL    HW175771  14.834   8.701   1.897
24646SOL    HW275772  14.787   8.783   1.779
24647SOL     OW75773   1.980   7.031   1.647
24647SOL    HW175774   1.895   7.069   1.625
24647SOL    HW275775   2.036   7.051   1.571
24648SOL     OW75776  10.983  10.539   9.301
24648SOL    HW175777  11.031  10.613   9.266
24648SOL    HW275778  11.030  10.515   9.381
24649SOL     OW75779   3.613   4.830   5.512
24649SOL    HW175780   3.691   4.883   5.493
24649SOL    HW275781   3.548   4.893   5.543
24650SOL     OW75782   5.971   3.041   0.611
24650SOL    HW175783   5.949   3.131   0.585
24650SOL    HW275784   5.887   3.002   0.635
24651SOL     OW75785  10.611   2.347   2.332
24651SOL    HW175786  10.573   2.398   2.260
24651SOL    HW275787  10.586   2.394   2.411
24652SOL     OW75788  12.566  14.110  12.005
24652SOL    HW175789  12.537  14.040  11.946
24652SOL    HW275790  12.503  14.180  11.993
24653SOL     OW75791   7.655  14.704   4.641
24653SOL    HW175792   7.734  14.734   4.687
24653SOL    HW275793   7.685  14.688   4.551
24654SOL     OW75794   8.823   8.071   7.592
24654SOL    HW175795   8.789   7.982   7.579
24654SOL    HW275796   8.791   8.120   7.516
24655SOL     OW75797   0.679   8.647   6.564
24655SOL    HW175798   0.655   8.567   6.612
24655SOL    HW275799   0.651   8.718   6.621
24656SOL     OW75800  14.361   2.490   5.033
24656SOL    HW175801  14.331   2.443   5.111
24656SOL    HW275802  14.408   2.566   5.067
24657SOL     OW75803  14.529   5.884   3.977
24657SOL    HW175804  14.557   5.876   3.886
24657SOL    HW275805  14.609   5.911   4.024
24658SOL     OW75806  13.509  10.923  13.935
24658SOL    HW175807  13.524  10.868  13.857
24658SOL    HW275808  13.473  11.004  13.900
24659SOL     OW75809   9.403   8.375   9.764
24659SOL    HW175810   9.421   8.456   9.717
24659SOL    HW275811   9.384   8.310   9.696
24660SOL     OW75812  13.450  11.853   7.491
24660SOL    HW175813  13.475  11.944   7.476
24660SOL    HW275814  13.500  11.826   7.567
24661SOL     OW75815   0.262  14.312  10.673
24661SOL    HW175816   0.300  14.331  10.759
24661SOL    HW275817   0.334  14.275  10.623
24662SOL     OW75818  12.642  11.892   2.272
24662SOL    HW175819  12.726  11.847   2.279
24662SOL    HW275820  12.578  11.829   2.305
24663SOL     OW75821   7.399   4.529   9.254
24663SOL    HW175822   7.399   4.625   9.257
24663SOL    HW275823   7.404   4.508   9.161
24664SOL     OW75824  10.681  14.022  14.470
24664SOL    HW175825  10.631  14.075  14.408
24664SOL    HW275826  10.617  13.962  14.508
24665SOL     OW75827  14.717   1.965   3.518
24665SOL    HW175828  14.793   2.008   3.478
24665SOL    HW275829  14.642   1.997   3.468
24666SOL     OW75830   4.381   9.816  14.850
24666SOL    HW175831   4.341   9.769  14.776
24666SOL    HW275832   4.456   9.860  14.811
24667SOL     OW75833   8.023  10.589   1.490
24667SOL    HW175834   8.006  10.650   1.418
24667SOL    HW275835   8.109  10.614   1.523
24668SOL     OW75836  11.388   4.386  11.107
24668SOL    HW175837  11.342   4.358  11.187
24668SOL    HW275838  11.370   4.480  11.102
24669SOL     OW75839  11.193   4.096   2.866
24669SOL    HW175840  11.139   4.135   2.935
24669SOL    HW275841  11.146   4.015   2.842
24670SOL     OW75842  13.038   3.698   7.906
24670SOL    HW175843  13.130   3.703   7.882
24670SOL    HW275844  13.030   3.617   7.958
24671SOL     OW75845   3.623   5.036   1.843
24671SOL    HW175846   3.601   5.001   1.757
24671SOL    HW275847   3.605   5.130   1.835
24672SOL     OW75848   9.687   6.204   4.099
24672SOL    HW175849   9.715   6.229   4.187
24672SOL    HW275850   9.725   6.271   4.042
24673SOL     OW75851  10.166   1.290   0.511
24673SOL    HW175852  10.092   1.256   0.561
24673SOL    HW275853  10.212   1.212   0.482
24674SOL     OW75854   4.617  13.164   6.924
24674SOL    HW175855   4.653  13.079   6.900
24674SOL    HW275856   4.585  13.151   7.013
24675SOL     OW75857   5.398  12.651   2.905
24675SOL    HW175858   5.425  12.678   2.992
24675SOL    HW275859   5.388  12.733   2.856
24676SOL     OW75860  12.301  13.155  14.285
24676SOL    HW175861  12.364  13.085  14.302
24676SOL    HW275862  12.355  13.232  14.270
24677SOL     OW75863   6.255  10.716   4.147
24677SOL    HW175864   6.296  10.637   4.114
24677SOL    HW275865   6.293  10.787   4.095
24678SOL     OW75866   2.924   8.974  12.324
24678SOL    HW175867   2.906   8.887  12.289
24678SOL    HW275868   2.885   8.973  12.411
24679SOL     OW75869   5.252   0.993   3.781
24679SOL    HW175870   5.212   0.941   3.711
24679SOL    HW275871   5.177   1.027   3.830
24680SOL     OW75872   1.456   1.147  10.553
24680SOL    HW175873   1.420   1.066  10.588
24680SOL    HW275874   1.508   1.119  10.478
24681SOL     OW75875   0.208   9.952   8.669
24681SOL    HW175876   0.119   9.954   8.704
24681SOL    HW275877   0.212  10.029   8.612
24682SOL     OW75878  10.555   4.356   7.303
24682SOL    HW175879  10.650   4.365   7.307
24682SOL    HW275880  10.532   4.309   7.384
24683SOL     OW75881   7.041  14.661   8.445
24683SOL    HW175882   7.015  14.699   8.361
24683SOL    HW275883   7.018  14.729   8.509
24684SOL     OW75884  12.583   3.737   3.343
24684SOL    HW175885  12.493   3.728   3.373
24684SOL    HW275886  12.613   3.820   3.379
24685SOL     OW75887  12.047  13.001  10.553
24685SOL    HW175888  12.016  12.950  10.478
24685SOL    HW275889  12.004  13.086  10.545
24686SOL     OW75890   5.096   4.995  12.197
24686SOL    HW175891   5.014   4.955  12.170
24686SOL    HW275892   5.071   5.060  12.263
24687SOL     OW75893   8.380  13.140   7.752
24687SOL    HW175894   8.476  13.135   7.756
24687SOL    HW275895   8.355  13.064   7.699
24688SOL     OW75896   1.154  10.435   9.862
24688SOL    HW175897   1.122  10.353   9.900
24688SOL    HW275898   1.075  10.485   9.844
24689SOL     OW75899  12.245  14.195  11.792
24689SOL    HW175900  12.315  14.224  11.850
24689SOL    HW275901  12.164  14.218  11.838
24690SOL     OW75902   3.478   3.230   5.657
24690SOL    HW175903   3.569   3.240   5.629
24690SOL    HW275904   3.468   3.136   5.673
24691SOL     OW75905  14.166  12.380   3.258
24691SOL    HW175906  14.225  12.415   3.324
24691SOL    HW275907  14.166  12.285   3.274
24692SOL     OW75908   7.366   6.699   6.238
24692SOL    HW175909   7.385   6.734   6.325
24692SOL    HW275910   7.277   6.665   6.245
24693SOL     OW75911   3.137  14.251   8.595
24693SOL    HW175912   3.107  14.182   8.653
24693SOL    HW275913   3.076  14.323   8.609
24694SOL     OW75914   2.536   7.462   6.946
24694SOL    HW175915   2.551   7.551   6.915
24694SOL    HW275916   2.517   7.472   7.039
24695SOL     OW75917   3.837   4.800   3.158
24695SOL    HW175918   3.796   4.736   3.215
24695SOL    HW275919   3.766   4.860   3.134
24696SOL     OW75920   1.705   9.013   3.975
24696SOL    HW175921   1.797   8.988   3.965
24696SOL    HW275922   1.666   8.996   3.889
24697SOL     OW75923   5.769   7.904  10.899
24697SOL    HW175924   5.765   7.993  10.866
24697SOL    HW275925   5.862   7.887  10.912
24698SOL     OW75926  13.210  13.937  11.436
24698SOL    HW175927  13.278  13.877  11.465
24698SOL    HW275928  13.170  13.969  11.518
24699SOL     OW75929   8.067   4.925  10.138
24699SOL    HW175930   8.085   4.852  10.197
24699SOL    HW275931   8.013   4.887  10.068
24700SOL     OW75932   4.554   6.449  13.231
24700SOL    HW175933   4.536   6.543  13.225
24700SOL    HW275934   4.471   6.408  13.206
24701SOL     OW75935   7.173   7.612  13.654
24701SOL    HW175936   7.137   7.585  13.738
24701SOL    HW275937   7.252   7.660  13.676
24702SOL     OW75938   2.075  10.015   0.862
24702SOL    HW175939   2.143  10.007   0.929
24702SOL    HW275940   2.123  10.033   0.782
24703SOL     OW75941  13.203   8.983   3.481
24703SOL    HW175942  13.227   8.904   3.530
24703SOL    HW275943  13.213   9.054   3.544
24704SOL     OW75944   4.677  10.658  11.906
24704SOL    HW175945   4.734  10.719  11.954
24704SOL    HW275946   4.697  10.674  11.814
24705SOL     OW75947   1.921   0.320   8.073
24705SOL    HW175948   1.851   0.385   8.079
24705SOL    HW275949   2.000   0.367   8.101
24706SOL     OW75950   6.448   8.529   1.045
24706SOL    HW175951   6.420   8.506   1.134
24706SOL    HW275952   6.460   8.624   1.047
24707SOL     OW75953   4.523   1.749  13.370
24707SOL    HW175954   4.507   1.755  13.464
24707SOL    HW275955   4.450   1.697  13.337
24708SOL     OW75956   2.356   9.080   1.375
24708SOL    HW175957   2.378   9.158   1.324
24708SOL    HW275958   2.438   9.031   1.381
24709SOL     OW75959   7.640   4.819   5.840
24709SOL    HW175960   7.614   4.756   5.907
24709SOL    HW275961   7.730   4.843   5.864
24710SOL     OW75962   9.034   2.813  12.466
24710SOL    HW175963   9.035   2.739  12.405
24710SOL    HW275964   8.942   2.837  12.474
24711SOL     OW75965   1.727  12.885  11.999
24711SOL    HW175966   1.728  12.899  12.094
24711SOL    HW275967   1.819  12.882  11.974
24712SOL     OW75968   3.758  11.987   5.559
24712SOL    HW175969   3.847  11.988   5.592
24712SOL    HW275970   3.712  12.053   5.611
24713SOL     OW75971   9.615   4.861  11.063
24713SOL    HW175972   9.563   4.842  10.986
24713SOL    HW275973   9.696   4.899  11.029
24714SOL     OW75974  12.621   6.782   1.509
24714SOL    HW175975  12.707   6.794   1.550
24714SOL    HW275976  12.633   6.812   1.419
24715SOL     OW75977   4.316   4.112   0.576
24715SOL    HW175978   4.258   4.184   0.553
24715SOL    HW275979   4.358   4.087   0.494
24716SOL     OW75980  13.324   2.280   9.193
24716SOL    HW175981  13.261   2.338   9.235
24716SOL    HW275982  13.401   2.281   9.250
24717SOL     OW75983  11.505   7.569   3.744
24717SOL    HW175984  11.450   7.631   3.792
24717SOL    HW275985  11.510   7.605   3.655
24718SOL     OW75986   8.216  13.042   1.947
24718SOL    HW175987   8.203  12.961   1.997
24718SOL    HW275988   8.293  13.083   1.988
24719SOL     OW75989  12.342   2.744   1.005
24719SOL    HW175990  12.274   2.807   1.029
24719SOL    HW275991  12.424   2.794   1.009
24720SOL     OW75992  11.852   5.174  10.821
24720SOL    HW175993  11.869   5.120  10.898
24720SOL    HW275994  11.854   5.264  10.853
24721SOL     OW75995  11.529   8.567  12.985
24721SOL    HW175996  11.561   8.558  12.896
24721SOL    HW275997  11.438   8.597  12.975
24722SOL     OW75998   7.710  14.649  11.454
24722SOL    HW175999   7.638  14.667  11.393
24722SOL    HW276000   7.731  14.557  11.440
24723SOL     OW76001  10.086  14.834   3.203
24723SOL    HW176002  10.176  14.856   3.226
24723SOL    HW276003  10.082  14.739   3.210
24724SOL     OW76004  13.466  14.545   9.471
24724SOL    HW176005  13.415  14.486   9.526
24724SOL    HW276006  13.550  14.553   9.515
24725SOL     OW76007   8.070   8.964   9.911
24725SOL    HW176008   8.056   8.870   9.915
24725SOL    HW276009   8.038   8.997   9.995
24726SOL     OW76010   2.166   0.896  12.995
24726SOL    HW176011   2.225   0.897  13.070
24726SOL    HW276012   2.184   0.979  12.950
24727SOL     OW76013   1.444  10.880   9.975
24727SOL    HW176014   1.371  10.936   9.950
24727SOL    HW276015   1.480  10.920  10.054
24728SOL     OW76016   9.003   8.237   2.826
24728SOL    HW176017   8.940   8.297   2.785
24728SOL    HW276018   9.048   8.290   2.892
24729SOL     OW76019  10.405   2.227   8.803
24729SOL    HW176020  10.411   2.276   8.886
24729SOL    HW276021  10.496   2.203   8.783
24730SOL     OW76022   7.318   9.227  12.641
24730SOL    HW176023   7.403   9.252  12.675
24730SOL    HW276024   7.290   9.155  12.697
24731SOL     OW76025   1.181  10.592   6.748
24731SOL    HW176026   1.181  10.662   6.814
24731SOL    HW276027   1.256  10.537   6.770
24732SOL     OW76028  14.537   9.699  10.296
24732SOL    HW176029  14.562   9.618  10.250
24732SOL    HW276030  14.583   9.693  10.380
24733SOL     OW76031  11.541   4.505   7.285
24733SOL    HW176032  11.453   4.468   7.282
24733SOL    HW276033  11.529   4.598   7.263
24734SOL     OW76034   0.263   9.226   0.835
24734SOL    HW176035   0.247   9.253   0.744
24734SOL    HW276036   0.193   9.268   0.885
24735SOL     OW76037  14.740   5.638  11.854
24735SOL    HW176038  14.645   5.638  11.842
24735SOL    HW276039  14.775   5.625  11.766
24736SOL     OW76040   9.067   5.008   9.296
24736SOL    HW176041   9.111   4.998   9.211
24736SOL    HW276042   9.063   5.103   9.309
24737SOL     OW76043   0.000   9.820   0.316
24737SOL    HW176044   0.064   9.851   0.380
24737SOL    HW276045   0.048   9.821   0.233
24738SOL     OW76046   2.655   3.680   6.312
24738SOL    HW176047   2.587   3.747   6.318
24738SOL    HW276048   2.728   3.723   6.269
24739SOL     OW76049   5.695   5.087   6.507
24739SOL    HW176050   5.701   5.025   6.579
24739SOL    HW276051   5.645   5.041   6.439
24740SOL     OW76052   4.197  10.897   4.593
24740SOL    HW176053   4.115  10.850   4.581
24740SOL    HW276054   4.234  10.902   4.505
24741SOL     OW76055  11.824   5.015  10.245
24741SOL    HW176056  11.853   5.050  10.329
24741SOL    HW276057  11.845   4.921  10.250
24742SOL     OW76058  13.959   1.585   8.451
24742SOL    HW176059  13.960   1.671   8.494
24742SOL    HW276060  14.034   1.539   8.489
24743SOL     OW76061   3.592   4.559   4.999
24743SOL    HW176062   3.653   4.543   5.071
24743SOL    HW276063   3.643   4.608   4.935
24744SOL     OW76064   1.165   6.507   8.557
24744SOL    HW176065   1.173   6.523   8.651
24744SOL    HW276066   1.180   6.413   8.547
24745SOL     OW76067   2.098  10.078   5.073
24745SOL    HW176068   2.142  10.151   5.117
24745SOL    HW276069   2.166  10.037   5.021
24746SOL     OW76070  10.218   8.701   3.438
24746SOL    HW176071  10.129   8.704   3.471
24746SOL    HW276072  10.226   8.778   3.382
24747SOL     OW76073   8.781   5.348   4.966
24747SOL    HW176074   8.853   5.287   4.950
24747SOL    HW276075   8.821   5.422   5.011
24748SOL     OW76076   6.386  14.843  14.019
24748SOL    HW176077   6.390  14.864  13.926
24748SOL    HW276078   6.327   0.028  14.057
24749SOL     OW76079   3.116   7.065   0.921
24749SOL    HW176080   3.051   7.039   0.987
24749SOL    HW276081   3.188   7.102   0.972
24750SOL     OW76082   8.629   3.208  13.727
24750SOL    HW176083   8.696   3.264  13.690
24750SOL    HW276084   8.548   3.259  13.721
24751SOL     OW76085   5.672  13.763  10.411
24751SOL    HW176086   5.716  13.722  10.337
24751SOL    HW276087   5.589  13.717  10.419
24752SOL     OW76088  14.643   2.841  14.169
24752SOL    HW176089  14.679   2.770  14.223
24752SOL    HW276090  14.700   2.844  14.092
24753SOL     OW76091  14.671  12.224   4.515
24753SOL    HW176092  14.717  12.248   4.435
24753SOL    HW276093  14.618  12.301   4.536
24754SOL     OW76094   7.324   9.337   9.588
24754SOL    HW176095   7.232   9.365   9.582
24754SOL    HW276096   7.363   9.366   9.506
24755SOL     OW76097   9.745   6.947   8.738
24755SOL    HW176098   9.826   6.966   8.690
24755SOL    HW276099   9.751   7.001   8.816
24756SOL     OW76100   3.495   2.079   4.879
24756SOL    HW176101   3.466   1.989   4.864
24756SOL    HW276102   3.582   2.070   4.918
24757SOL     OW76103   2.667   7.312   6.356
24757SOL    HW176104   2.675   7.320   6.261
24757SOL    HW276105   2.622   7.228   6.369
24758SOL     OW76106   2.669   1.308  14.067
24758SOL    HW176107   2.709   1.223  14.083
24758SOL    HW276108   2.735   1.357  14.019
24759SOL     OW76109  11.185  11.613  14.837
24759SOL    HW176110  11.217  11.550   0.022
24759SOL    HW276111  11.196  11.698   0.000
24760SOL     OW76112  11.541   3.088  12.649
24760SOL    HW176113  11.454   3.124  12.665
24760SOL    HW276114  11.526   2.994  12.639
24761SOL     OW76115   4.841   7.168   2.672
24761SOL    HW176116   4.872   7.100   2.732
24761SOL    HW276117   4.747   7.151   2.664
24762SOL     OW76118   6.302   1.800  10.876
24762SOL    HW176119   6.378   1.793  10.818
24762SOL    HW276120   6.289   1.712  10.909
24763SOL     OW76121  10.395   8.064  14.227
24763SOL    HW176122  10.396   8.103  14.139
24763SOL    HW276123  10.345   7.983  14.216
24764SOL     OW76124   2.369   9.202  11.618
24764SOL    HW176125   2.276   9.223  11.632
24764SOL    HW276126   2.414   9.240  11.693
24765SOL     OW76127   0.710   1.333   6.094
24765SOL    HW176128   0.806   1.338   6.096
24765SOL    HW276129   0.683   1.365   6.180
24766SOL     OW76130   1.330   1.210  13.456
24766SOL    HW176131   1.420   1.227  13.429
24766SOL    HW276132   1.282   1.197  13.374
24767SOL     OW76133   2.569   9.104  13.116
24767SOL    HW176134   2.496   9.098  13.054
24767SOL    HW276135   2.563   9.024  13.168
24768SOL     OW76136   4.465   7.567  14.636
24768SOL    HW176137   4.427   7.495  14.686
24768SOL    HW276138   4.491   7.528  14.553
24769SOL     OW76139   0.995   8.686  11.218
24769SOL    HW176140   1.036   8.772  11.210
24769SOL    HW276141   0.959   8.669  11.131
24770SOL     OW76142   6.620  14.150  14.699
24770SOL    HW176143   6.667  14.226  14.664
24770SOL    HW276144   6.606  14.171  14.791
24771SOL     OW76145   4.755   8.714   0.221
24771SOL    HW176146   4.700   8.765   0.281
24771SOL    HW276147   4.789   8.778   0.159
24772SOL     OW76148  11.716   5.771   1.512
24772SOL    HW176149  11.732   5.693   1.564
24772SOL    HW276150  11.627   5.761   1.479
24773SOL     OW76151   2.371   6.563   3.831
24773SOL    HW176152   2.318   6.577   3.909
24773SOL    HW276153   2.390   6.469   3.831
24774SOL     OW76154   6.047   6.078   6.359
24774SOL    HW176155   6.026   6.170   6.344
24774SOL    HW276156   6.139   6.071   6.333
24775SOL     OW76157   2.866   7.479   7.753
24775SOL    HW176158   2.782   7.448   7.719
24775SOL    HW276159   2.850   7.496   7.845
24776SOL     OW76160   1.860   0.319  13.327
24776SOL    HW176161   1.947   0.351  13.303
24776SOL    HW276162   1.861   0.227  13.303
24777SOL     OW76163   7.805  10.066  13.149
24777SOL    HW176164   7.866  10.088  13.219
24777SOL    HW276165   7.800  10.145  13.096
24778SOL     OW76166   1.676   6.727   9.240
24778SOL    HW176167   1.631   6.644   9.258
24778SOL    HW276168   1.634   6.760   9.160
24779SOL     OW76169  10.574   8.602   2.083
24779SOL    HW176170  10.575   8.698   2.078
24779SOL    HW276171  10.547   8.573   1.996
24780SOL     OW76172   7.435  11.521   9.601
24780SOL    HW176173   7.493  11.585   9.560
24780SOL    HW276174   7.462  11.520   9.693
24781SOL     OW76175   1.092   7.968   1.817
24781SOL    HW176176   1.069   7.879   1.792
24781SOL    HW276177   1.173   7.986   1.770
24782SOL     OW76178   0.471  11.807  11.648
24782SOL    HW176179   0.392  11.844  11.687
24782SOL    HW276180   0.455  11.811  11.554
24783SOL     OW76181  13.322   1.735   8.491
24783SOL    HW176182  13.365   1.792   8.427
24783SOL    HW276183  13.278   1.795   8.551
24784SOL     OW76184  13.675   9.905   8.359
24784SOL    HW176185  13.601   9.966   8.362
24784SOL    HW276186  13.638   9.822   8.389
24785SOL     OW76187   3.135   8.282   2.754
24785SOL    HW176188   3.201   8.299   2.821
24785SOL    HW276189   3.141   8.358   2.696
24786SOL     OW76190  13.293   2.832  12.526
24786SOL    HW176191  13.330   2.803  12.442
24786SOL    HW276192  13.331   2.918  12.541
24787SOL     OW76193   8.019   0.712  13.380
24787SOL    HW176194   8.053   0.791  13.422
24787SOL    HW276195   8.090   0.648  13.387
24788SOL     OW76196   6.213   8.917  10.650
24788SOL    HW176197   6.127   8.957  10.638
24788SOL    HW276198   6.250   8.961  10.727
24789SOL     OW76199   7.570  13.954   2.498
24789SOL    HW176200   7.487  13.906   2.496
24789SOL    HW276201   7.634  13.890   2.466
24790SOL     OW76202   8.079   3.130   2.718
24790SOL    HW176203   8.080   3.035   2.706
24790SOL    HW276204   8.170   3.152   2.741
24791SOL     OW76205   6.616   6.264  12.824
24791SOL    HW176206   6.605   6.171  12.804
24791SOL    HW276207   6.691   6.292  12.770
24792SOL     OW76208   6.078   2.428  14.699
24792SOL    HW176209   6.047   2.348  14.658
24792SOL    HW276210   6.131   2.399  14.773
24793SOL     OW76211   7.968   9.087   7.659
24793SOL    HW176212   7.893   9.097   7.718
24793SOL    HW276213   8.012   9.173   7.662
24794SOL     OW76214   2.545   5.681   7.084
24794SOL    HW176215   2.465   5.656   7.130
24794SOL    HW276216   2.516   5.743   7.017
24795SOL     OW76217   7.342   6.195   7.114
24795SOL    HW176218   7.274   6.243   7.067
24795SOL    HW276219   7.425   6.229   7.079
24796SOL     OW76220   5.140   4.312  12.846
24796SOL    HW176221   5.142   4.298  12.941
24796SOL    HW276222   5.233   4.314  12.820
24797SOL     OW76223  14.814   9.616   8.311
24797SOL    HW176224  14.850   9.704   8.304
24797SOL    HW276225  14.734   9.627   8.363
24798SOL     OW76226   2.333   4.585   4.243
24798SOL    HW176227   2.251   4.535   4.241
24798SOL    HW276228   2.387   4.540   4.307
24799SOL     OW76229  11.385   6.405   6.682
24799SOL    HW176230  11.456   6.364   6.732
24799SOL    HW276231  11.429   6.444   6.606
24800SOL     OW76232   0.945   9.519   7.229
24800SOL    HW176233   0.916   9.427   7.226
24800SOL    HW276234   1.040   9.513   7.238
24801SOL     OW76235  13.554   4.722  12.556
24801SOL    HW176236  13.537   4.636  12.593
24801SOL    HW276237  13.490   4.779  12.598
24802SOL     OW76238   7.420  12.130   5.870
24802SOL    HW176239   7.449  12.039   5.871
24802SOL    HW276240   7.497  12.180   5.844
24803SOL     OW76241   4.199   3.760   8.327
24803SOL    HW176242   4.242   3.699   8.387
24803SOL    HW276243   4.139   3.706   8.277
24804SOL     OW76244  11.059  13.828   6.736
24804SOL    HW176245  10.966  13.822   6.756
24804SOL    HW276246  11.103  13.823   6.821
24805SOL     OW76247   8.063   3.141  10.313
24805SOL    HW176248   8.001   3.069  10.307
24805SOL    HW276249   8.149   3.100  10.313
24806SOL     OW76250   4.774   3.211   3.772
24806SOL    HW176251   4.788   3.288   3.717
24806SOL    HW276252   4.814   3.139   3.724
24807SOL     OW76253   8.540  11.649   7.220
24807SOL    HW176254   8.591  11.571   7.243
24807SOL    HW276255   8.537  11.700   7.301
24808SOL     OW76256   5.463  14.012  10.626
24808SOL    HW176257   5.542  14.064  10.637
24808SOL    HW276258   5.392  14.076  10.624
24809SOL     OW76259   6.240   0.998   3.265
24809SOL    HW176260   6.271   1.089   3.263
24809SOL    HW276261   6.154   1.001   3.224
24810SOL     OW76262   6.343   6.951   3.764
24810SOL    HW176263   6.254   6.985   3.768
24810SOL    HW276264   6.349   6.908   3.678
24811SOL     OW76265   7.974   7.766   0.997
24811SOL    HW176266   7.942   7.843   0.950
24811SOL    HW276267   8.066   7.786   1.016
24812SOL     OW76268   6.516   2.909   0.534
24812SOL    HW176269   6.539   2.895   0.442
24812SOL    HW276270   6.595   2.884   0.582
24813SOL     OW76271  13.736   9.609  13.221
24813SOL    HW176272  13.813   9.634  13.169
24813SOL    HW276273  13.663   9.617  13.161
24814SOL     OW76274   8.212   9.611   9.639
24814SOL    HW176275   8.128   9.568   9.623
24814SOL    HW276276   8.243   9.636   9.552
24815SOL     OW76277   3.013   1.075   5.594
24815SOL    HW176278   2.953   1.090   5.521
24815SOL    HW276279   3.005   1.154   5.648
24816SOL     OW76280   1.149  11.353  12.322
24816SOL    HW176281   1.159  11.276  12.377
24816SOL    HW276282   1.237  11.390  12.316
24817SOL     OW76283  13.389   2.718  13.488
24817SOL    HW176284  13.389   2.633  13.532
24817SOL    HW276285  13.460   2.711  13.423
24818SOL     OW76286   9.658   8.247   1.364
24818SOL    HW176287   9.603   8.208   1.432
24818SOL    HW276288   9.618   8.220   1.282
24819SOL     OW76289   5.727   5.768   4.109
24819SOL    HW176290   5.673   5.783   4.186
24819SOL    HW276291   5.741   5.855   4.071
24820SOL     OW76292  13.056   0.258  13.383
24820SOL    HW176293  13.056   0.262  13.287
24820SOL    HW276294  13.119   0.324  13.410
24821SOL     OW76295  10.062  11.114   5.224
24821SOL    HW176296  10.063  11.209   5.233
24821SOL    HW276297  10.145  11.085   5.262
24822SOL     OW76298  13.125  13.563   0.163
24822SOL    HW176299  13.150  13.561   0.255
24822SOL    HW276300  13.100  13.654   0.147
24823SOL     OW76301   2.385   1.632   4.037
24823SOL    HW176302   2.323   1.703   4.051
24823SOL    HW276303   2.349   1.558   4.086
24824SOL     OW76304  14.042  13.634  12.359
24824SOL    HW176305  14.111  13.582  12.400
24824SOL    HW276306  14.038  13.714  12.411
24825SOL     OW76307  11.260  11.080   3.783
24825SOL    HW176308  11.186  11.058   3.726
24825SOL    HW276309  11.248  11.172   3.803
24826SOL     OW76310  12.081  11.886   7.933
24826SOL    HW176311  12.145  11.951   7.903
24826SOL    HW276312  12.077  11.822   7.862
24827SOL     OW76313   0.578   9.739   9.963
24827SOL    HW176314   0.625   9.749  10.046
24827SOL    HW276315   0.502   9.684   9.985
24828SOL     OW76316  12.500   0.056   9.685
24828SOL    HW176317  12.471   0.051   9.776
24828SOL    HW276318  12.425   0.094   9.638
24829SOL     OW76319   8.265   3.611  11.846
24829SOL    HW176320   8.250   3.671  11.773
24829SOL    HW276321   8.319   3.541  11.810
24830SOL     OW76322   7.617   4.804   5.123
24830SOL    HW176323   7.684   4.863   5.088
24830SOL    HW276324   7.660   4.718   5.126
24831SOL     OW76325   4.942   0.835   6.852
24831SOL    HW176326   4.955   0.859   6.944
24831SOL    HW276327   4.996   0.896   6.804
24832SOL     OW76328   8.048  13.668   5.937
24832SOL    HW176329   7.955  13.690   5.941
24832SOL    HW276330   8.083  13.721   5.866
24833SOL     OW76331   2.818   8.474  11.091
24833SOL    HW176332   2.860   8.437  11.014
24833SOL    HW276333   2.738   8.516  11.057
24834SOL     OW76334  14.472   0.758   9.053
24834SOL    HW176335  14.473   0.681   8.997
24834SOL    HW276336  14.477   0.723   9.142
24835SOL     OW76337  10.450  10.117   7.465
24835SOL    HW176338  10.497  10.071   7.395
24835SOL    HW276339  10.517  10.170   7.508
24836SOL     OW76340   2.532  12.591  13.333
24836SOL    HW176341   2.462  12.656  13.334
24836SOL    HW276342   2.570  12.599  13.245
24837SOL     OW76343   2.188   9.917   5.787
24837SOL    HW176344   2.170  10.010   5.795
24837SOL    HW276345   2.267   9.912   5.733
24838SOL     OW76346   8.138   4.880   6.234
24838SOL    HW176347   8.165   4.885   6.142
24838SOL    HW276348   8.097   4.794   6.242
24839SOL     OW76349   1.180   0.598   1.192
24839SOL    HW176350   1.172   0.688   1.224
24839SOL    HW276351   1.273   0.577   1.200
24840SOL     OW76352  10.329   6.816   9.441
24840SOL    HW176353  10.281   6.788   9.518
24840SOL    HW276354  10.263   6.855   9.384
24841SOL     OW76355  12.721  14.803   7.165
24841SOL    HW176356  12.790  14.797   7.099
24841SOL    HW276357  12.752  14.750   7.238
24842SOL     OW76358   4.933  12.532   2.883
24842SOL    HW176359   4.941  12.501   2.793
24842SOL    HW276360   5.020  12.522   2.920
24843SOL     OW76361   7.247  11.797   3.859
24843SOL    HW176362   7.335  11.759   3.855
24843SOL    HW276363   7.252  11.862   3.929
24844SOL     OW76364  13.616  12.547   3.842
24844SOL    HW176365  13.643  12.459   3.868
24844SOL    HW276366  13.691  12.602   3.865
24845SOL     OW76367   7.341   9.557   7.194
24845SOL    HW176368   7.269   9.497   7.215
24845SOL    HW276369   7.368   9.591   7.279
24846SOL     OW76370   2.597   1.415   8.000
24846SOL    HW176371   2.619   1.399   7.909
24846SOL    HW276372   2.544   1.495   7.999
24847SOL     OW76373  13.506  12.310   5.698
24847SOL    HW176374  13.430  12.256   5.682
24847SOL    HW276375  13.566  12.254   5.748
24848SOL     OW76376  11.856   8.098   7.072
24848SOL    HW176377  11.891   8.018   7.110
24848SOL    HW276378  11.858   8.162   7.143
24849SOL     OW76379   4.804  10.265   4.018
24849SOL    HW176380   4.822  10.187   4.070
24849SOL    HW276381   4.793  10.232   3.928
24850SOL     OW76382  14.707   5.737  14.616
24850SOL    HW176383  14.640   5.687  14.570
24850SOL    HW276384  14.694   5.827  14.588
24851SOL     OW76385   5.164   6.860   5.543
24851SOL    HW176386   5.253   6.825   5.546
24851SOL    HW276387   5.138   6.865   5.635
24852SOL     OW76388  13.596   6.229  10.629
24852SOL    HW176389  13.557   6.157  10.578
24852SOL    HW276390  13.674   6.254  10.579
24853SOL     OW76391   9.314   1.448  14.631
24853SOL    HW176392   9.315   1.356  14.656
24853SOL    HW276393   9.221   1.469  14.618
24854SOL     OW76394   6.158   9.004   0.508
24854SOL    HW176395   6.202   9.060   0.572
24854SOL    HW276396   6.155   8.918   0.551
24855SOL     OW76397   2.058   5.823   0.970
24855SOL    HW176398   2.078   5.902   1.021
24855SOL    HW276399   2.085   5.751   1.026
24856SOL     OW76400   0.815  11.260  14.080
24856SOL    HW176401   0.811  11.175  14.122
24856SOL    HW276402   0.906  11.267  14.050
24857SOL     OW76403   8.064   4.093  10.953
24857SOL    HW176404   8.013   4.163  10.912
24857SOL    HW276405   8.094   4.131  11.035
24858SOL     OW76406  13.565   3.699   4.376
24858SOL    HW176407  13.478   3.682   4.341
24858SOL    HW276408  13.571   3.795   4.380
24859SOL     OW76409   9.799  14.541   1.876
24859SOL    HW176410   9.764  14.629   1.860
24859SOL    HW276411   9.885  14.541   1.834
24860SOL     OW76412   7.784   8.146   6.247
24860SOL    HW176413   7.708   8.175   6.196
24860SOL    HW276414   7.847   8.218   6.239
24861SOL     OW76415   0.109   0.858   1.417
24861SOL    HW176416   0.087   0.812   1.336
24861SOL    HW276417   0.200   0.885   1.407
24862SOL     OW76418   2.195   6.022   0.367
24862SOL    HW176419   2.208   6.115   0.353
24862SOL    HW276420   2.163   6.015   0.457
24863SOL     OW76421  11.182   2.667   0.688
24863SOL    HW176422  11.152   2.755   0.663
24863SOL    HW276423  11.149   2.610   0.618
24864SOL     OW76424  13.695  13.091   1.932
24864SOL    HW176425  13.612  13.124   1.896
24864SOL    HW276426  13.761  13.117   1.868
24865SOL     OW76427   3.580   0.509   8.299
24865SOL    HW176428   3.654   0.456   8.269
24865SOL    HW276429   3.559   0.474   8.385
24866SOL     OW76430  12.191  12.927   2.297
24866SOL    HW176431  12.169  13.004   2.350
24866SOL    HW276432  12.112  12.910   2.246
24867SOL     OW76433  10.187   9.302   7.540
24867SOL    HW176434  10.146   9.301   7.626
24867SOL    HW276435  10.183   9.211   7.510
24868SOL     OW76436   7.814  11.730  11.057
24868SOL    HW176437   7.799  11.805  11.115
24868SOL    HW276438   7.864  11.766  10.984
24869SOL     OW76439   4.568   1.465  13.686
24869SOL    HW176440   4.473   1.471  13.679
24869SOL    HW276441   4.599   1.469  13.595
24870SOL     OW76442   3.646   2.155   2.055
24870SOL    HW176443   3.664   2.206   1.976
24870SOL    HW276444   3.670   2.065   2.032
24871SOL     OW76445   5.937  10.355  12.049
24871SOL    HW176446   5.933  10.387  12.140
24871SOL    HW276447   5.930  10.260  12.057
24872SOL     OW76448   1.876  10.675  11.322
24872SOL    HW176449   1.962  10.657  11.359
24872SOL    HW276450   1.884  10.651  11.230
24873SOL     OW76451  13.302   2.315   6.206
24873SOL    HW176452  13.209   2.303   6.221
24873SOL    HW276453  13.312   2.409   6.190
24874SOL     OW76454  12.724   6.402   7.852
24874SOL    HW176455  12.751   6.317   7.818
24874SOL    HW276456  12.663   6.382   7.923
24875SOL     OW76457   2.078   8.723  14.152
24875SOL    HW176458   2.127   8.651  14.112
24875SOL    HW276459   2.027   8.682  14.221
24876SOL     OW76460   5.337   2.066  10.413
24876SOL    HW176461   5.343   2.158  10.387
24876SOL    HW276462   5.244   2.046  10.408
24877SOL     OW76463   5.877  12.680  12.223
24877SOL    HW176464   5.815  12.705  12.292
24877SOL    HW276465   5.838  12.715  12.143
24878SOL     OW76466  13.386   4.562  12.889
24878SOL    HW176467  13.479   4.554  12.868
24878SOL    HW276468  13.345   4.591  12.807
24879SOL     OW76469   7.419  11.234   9.788
24879SOL    HW176470   7.328  11.250   9.764
24879SOL    HW276471   7.454  11.320   9.811
24880SOL     OW76472   5.257   7.988  12.756
24880SOL    HW176473   5.317   7.947  12.694
24880SOL    HW276474   5.176   7.938  12.747
24881SOL     OW76475   3.854   1.761   5.629
24881SOL    HW176476   3.762   1.736   5.620
24881SOL    HW276477   3.893   1.690   5.680
24882SOL     OW76478   6.131  14.350  11.174
24882SOL    HW176479   6.126  14.255  11.185
24882SOL    HW276480   6.225  14.369  11.172
24883SOL     OW76481  13.753   8.546  10.931
24883SOL    HW176482  13.680   8.514  10.878
24883SOL    HW276483  13.749   8.641  10.923
24884SOL     OW76484  12.680   7.160  10.742
24884SOL    HW176485  12.773   7.169  10.765
24884SOL    HW276486  12.634   7.192  10.820
24885SOL     OW76487   1.838   5.740   8.290
24885SOL    HW176488   1.826   5.788   8.208
24885SOL    HW276489   1.893   5.666   8.266
24886SOL     OW76490   7.235   3.181   5.400
24886SOL    HW176491   7.257   3.095   5.437
24886SOL    HW276492   7.168   3.163   5.334
24887SOL     OW76493   0.337   8.559   1.149
24887SOL    HW176494   0.423   8.516   1.155
24887SOL    HW276495   0.311   8.573   1.240
24888SOL     OW76496  14.260   6.831   5.243
24888SOL    HW176497  14.353   6.831   5.265
24888SOL    HW276498  14.258   6.838   5.148
24889SOL     OW76499   9.949  14.748   8.841
24889SOL    HW176500  10.006  14.817   8.874
24889SOL    HW276501   9.910  14.785   8.762
24890SOL     OW76502   1.506   2.474   9.233
24890SOL    HW176503   1.454   2.490   9.155
24890SOL    HW276504   1.455   2.514   9.304
24891SOL     OW76505  10.086   8.967   6.606
24891SOL    HW176506  10.107   8.879   6.638
24891SOL    HW276507  10.005   8.990   6.653
24892SOL     OW76508  14.681   3.603   3.151
24892SOL    HW176509  14.725   3.688   3.154
24892SOL    HW276510  14.629   3.600   3.232
24893SOL     OW76511   2.299  11.356   2.313
24893SOL    HW176512   2.251  11.417   2.256
24893SOL    HW276513   2.340  11.294   2.252
24894SOL     OW76514  11.281   8.976   2.295
24894SOL    HW176515  11.299   8.906   2.233
24894SOL    HW276516  11.300   8.937   2.381
24895SOL     OW76517   4.154   1.414   4.814
24895SOL    HW176518   4.123   1.415   4.724
24895SOL    HW276519   4.082   1.377   4.864
24896SOL     OW76520   9.663   7.053  14.363
24896SOL    HW176521   9.714   6.973  14.376
24896SOL    HW276522   9.672   7.073  14.270
24897SOL     OW76523  10.747  10.775  13.929
24897SOL    HW176524  10.752  10.746  13.838
24897SOL    HW276525  10.820  10.732  13.972
24898SOL     OW76526  13.403   7.080   8.826
24898SOL    HW176527  13.323   7.059   8.874
24898SOL    HW276528  13.474   7.049   8.882
24899SOL     OW76529   3.859   1.758   7.031
24899SOL    HW176530   3.800   1.815   6.983
24899SOL    HW276531   3.854   1.789   7.122
24900SOL     OW76532  11.150  10.267  13.212
24900SOL    HW176533  11.180  10.312  13.291
24900SOL    HW276534  11.076  10.319  13.181
24901SOL     OW76535   9.689   7.731   8.624
24901SOL    HW176536   9.719   7.710   8.536
24901SOL    HW276537   9.612   7.676   8.637
24902SOL     OW76538   9.006   9.234   2.025
24902SOL    HW176539   8.921   9.191   2.039
24902SOL    HW276540   8.999   9.272   1.938
24903SOL     OW76541   9.832   1.790  14.846
24903SOL    HW176542   9.830   1.723   0.035
24903SOL    HW276543   9.858   1.744  14.766
24904SOL     OW76544   6.042   7.977   6.538
24904SOL    HW176545   6.029   7.894   6.494
24904SOL    HW276546   6.059   7.953   6.630
24905SOL     OW76547   6.811   9.556  10.423
24905SOL    HW176548   6.737   9.545  10.483
24905SOL    HW276549   6.888   9.554  10.479
24906SOL     OW76550   2.162   9.058   4.814
24906SOL    HW176551   2.255   9.082   4.820
24906SOL    HW276552   2.116   9.141   4.823
24907SOL     OW76553   6.383   0.934   9.607
24907SOL    HW176554   6.476   0.921   9.625
24907SOL    HW276555   6.358   0.857   9.556
24908SOL     OW76556   3.723   3.421   0.624
24908SOL    HW176557   3.629   3.430   0.606
24908SOL    HW276558   3.728   3.351   0.689
24909SOL     OW76559  13.477   1.441  14.552
24909SOL    HW176560  13.443   1.378  14.489
24909SOL    HW276561  13.498   1.389  14.630
24910SOL     OW76562   6.509   8.636   5.979
24910SOL    HW176563   6.592   8.616   6.022
24910SOL    HW276564   6.492   8.727   6.001
24911SOL     OW76565   9.851   7.807   5.155
24911SOL    HW176566   9.886   7.738   5.098
24911SOL    HW276567   9.811   7.870   5.096
24912SOL     OW76568   5.287   3.893  10.739
24912SOL    HW176569   5.203   3.930  10.766
24912SOL    HW276570   5.341   3.969  10.718
24913SOL     OW76571   2.381  14.168  11.882
24913SOL    HW176572   2.438  14.138  11.812
24913SOL    HW276573   2.397  14.262  11.887
24914SOL     OW76574   6.809  10.924  10.941
24914SOL    HW176575   6.829  10.977  11.019
24914SOL    HW276576   6.751  10.980  10.889
24915SOL     OW76577  12.765   2.505   6.010
24915SOL    HW176578  12.796   2.445   6.077
24915SOL    HW276579  12.754   2.589   6.056
24916SOL     OW76580   2.675   5.952   1.513
24916SOL    HW176581   2.762   5.913   1.521
24916SOL    HW276582   2.639   5.912   1.434
24917SOL     OW76583   9.270   0.482   0.859
24917SOL    HW176584   9.287   0.530   0.778
24917SOL    HW276585   9.232   0.548   0.918
24918SOL     OW76586  11.451  14.383  14.219
24918SOL    HW176587  11.458  14.439  14.296
24918SOL    HW276588  11.522  14.413  14.162
24919SOL     OW76589  10.634   2.688  14.661
24919SOL    HW176590  10.572   2.756  14.633
24919SOL    HW276591  10.688   2.731  14.728
24920SOL     OW76592  11.575   6.955   2.535
24920SOL    HW176593  11.538   6.981   2.619
24920SOL    HW276594  11.499   6.948   2.476
24921SOL     OW76595  12.501   9.954  11.793
24921SOL    HW176596  12.499  10.049  11.793
24921SOL    HW276597  12.588   9.932  11.827
24922SOL     OW76598   9.136  13.142  14.465
24922SOL    HW176599   9.200  13.145  14.536
24922SOL    HW276600   9.052  13.125  14.509
24923SOL     OW76601   6.594  11.828   1.454
24923SOL    HW176602   6.678  11.858   1.489
24923SOL    HW276603   6.596  11.733   1.465
24924SOL     OW76604   5.798   7.132   4.132
24924SOL    HW176605   5.862   7.060   4.139
24924SOL    HW276606   5.818   7.174   4.049
24925SOL     OW76607   4.058   2.495   0.801
24925SOL    HW176608   4.055   2.439   0.879
24925SOL    HW276609   4.149   2.521   0.794
24926SOL     OW76610   1.877   2.281   4.839
24926SOL    HW176611   1.796   2.232   4.855
24926SOL    HW276612   1.923   2.280   4.923
24927SOL     OW76613   8.414  12.537  13.745
24927SOL    HW176614   8.476  12.467  13.725
24927SOL    HW276615   8.426  12.600  13.674
24928SOL     OW76616   2.355   7.368   4.905
24928SOL    HW176617   2.393   7.456   4.906
24928SOL    HW276618   2.337   7.352   4.812
24929SOL     OW76619   3.112  10.584   8.274
24929SOL    HW176620   3.174  10.618   8.339
24929SOL    HW276621   3.159  10.515   8.229
24930SOL     OW76622  12.231   1.142   1.069
24930SOL    HW176623  12.201   1.105   0.986
24930SOL    HW276624  12.208   1.077   1.135
24931SOL     OW76625   4.906   5.695   4.985
24931SOL    HW176626   4.961   5.633   4.936
24931SOL    HW276627   4.952   5.705   5.069
24932SOL     OW76628   7.236   2.063   4.758
24932SOL    HW176629   7.267   1.975   4.782
24932SOL    HW276630   7.145   2.065   4.785
24933SOL     OW76631  13.048   1.423   8.804
24933SOL    HW176632  13.060   1.340   8.757
24933SOL    HW276633  13.042   1.489   8.735
24934SOL     OW76634  13.498   1.249   8.556
24934SOL    HW176635  13.422   1.204   8.522
24934SOL    HW276636  13.467   1.294   8.635
24935SOL     OW76637   0.169   9.003  11.110
24935SOL    HW176638   0.168   8.908  11.113
24935SOL    HW276639   0.079   9.029  11.132
24936SOL     OW76640   4.260   0.400   8.285
24936SOL    HW176641   4.298   0.397   8.197
24936SOL    HW276642   4.182   0.344   8.279
24937SOL     OW76643   8.820  13.841   3.894
24937SOL    HW176644   8.729  13.825   3.920
24937SOL    HW276645   8.822  13.935   3.873
24938SOL     OW76646  12.746   9.200   8.402
24938SOL    HW176647  12.658   9.237   8.392
24938SOL    HW276648  12.736   9.108   8.377
24939SOL     OW76649   0.998  12.057   5.511
24939SOL    HW176650   1.079  12.006   5.519
24939SOL    HW276651   0.938  11.999   5.464
24940SOL     OW76652  12.817   9.037   6.842
24940SOL    HW176653  12.847   8.987   6.918
24940SOL    HW276654  12.864   8.999   6.768
24941SOL     OW76655   1.656   9.646  12.694
24941SOL    HW176656   1.742   9.677  12.665
24941SOL    HW276657   1.629   9.710  12.760
24942SOL     OW76658   0.860   4.804   7.553
24942SOL    HW176659   0.838   4.769   7.639
24942SOL    HW276660   0.865   4.727   7.497
24943SOL     OW76661   7.013   5.951  14.242
24943SOL    HW176662   7.046   5.873  14.286
24943SOL    HW276663   6.922   5.959  14.272
24944SOL     OW76664  11.949  11.423  13.033
24944SOL    HW176665  11.871  11.478  13.018
24944SOL    HW276666  12.023  11.480  13.012
24945SOL     OW76667   8.154   9.591   6.536
24945SOL    HW176668   8.193   9.658   6.592
24945SOL    HW276669   8.226   9.560   6.482
24946SOL     OW76670  11.395   5.586  14.634
24946SOL    HW176671  11.336   5.657  14.661
24946SOL    HW276672  11.352   5.506  14.665
24947SOL     OW76673   3.640   1.954   1.468
24947SOL    HW176674   3.574   1.960   1.537
24947SOL    HW276675   3.592   1.974   1.387
24948SOL     OW76676   5.693  10.748   2.252
24948SOL    HW176677   5.678  10.760   2.346
24948SOL    HW276678   5.786  10.770   2.239
24949SOL     OW76679  13.546   5.864   6.686
24949SOL    HW176680  13.626   5.812   6.690
24949SOL    HW276681  13.577   5.954   6.678
24950SOL     OW76682  11.130   7.768   7.363
24950SOL    HW176683  11.047   7.793   7.323
24950SOL    HW276684  11.173   7.713   7.297
24951SOL     OW76685  11.078  12.438   4.988
24951SOL    HW176686  11.160  12.471   5.025
24951SOL    HW276687  11.041  12.383   5.057
24952SOL     OW76688  11.476  12.312   9.240
24952SOL    HW176689  11.445  12.238   9.188
24952SOL    HW276690  11.536  12.273   9.304
24953SOL     OW76691  11.126   2.435   0.464
24953SOL    HW176692  11.071   2.513   0.451
24953SOL    HW276693  11.168   2.422   0.379
24954SOL     OW76694  10.235  14.328   1.318
24954SOL    HW176695  10.145  14.333   1.286
24954SOL    HW276696  10.234  14.257   1.382
24955SOL     OW76697  10.264  14.602   3.460
24955SOL    HW176698  10.188  14.563   3.416
24955SOL    HW276699  10.339  14.574   3.408
24956SOL     OW76700  13.981   5.671   0.863
24956SOL    HW176701  13.934   5.690   0.945
24956SOL    HW276702  13.998   5.577   0.866
24957SOL     OW76703   1.567   3.030  13.983
24957SOL    HW176704   1.581   2.935  13.977
24957SOL    HW276705   1.625   3.066  13.915
24958SOL     OW76706   3.704   2.231  13.609
24958SOL    HW176707   3.690   2.266  13.696
24958SOL    HW276708   3.775   2.284  13.572
24959SOL     OW76709   1.620   8.127   0.533
24959SOL    HW176710   1.638   8.206   0.584
24959SOL    HW276711   1.679   8.133   0.458
24960SOL     OW76712   2.669  14.819  13.559
24960SOL    HW176713   2.708   0.008  13.503
24960SOL    HW276714   2.732  14.747  13.556
24961SOL     OW76715   4.419   7.369   8.322
24961SOL    HW176716   4.370   7.428   8.265
24961SOL    HW276717   4.439   7.421   8.399
24962SOL     OW76718  12.319   5.061   8.739
24962SOL    HW176719  12.260   5.058   8.664
24962SOL    HW276720  12.268   5.024   8.811
24963SOL     OW76721   7.045   1.998  10.185
24963SOL    HW176722   7.073   1.921  10.135
24963SOL    HW276723   6.999   2.052  10.122
24964SOL     OW76724   5.068   7.308   8.246
24964SOL    HW176725   5.142   7.367   8.256
24964SOL    HW276726   5.074   7.248   8.320
24965SOL     OW76727  10.227  14.001   6.362
24965SOL    HW176728  10.141  14.012   6.321
24965SOL    HW276729  10.208  13.980   6.453
24966SOL     OW76730   1.677  11.378  12.253
24966SOL    HW176731   1.656  11.366  12.161
24966SOL    HW276732   1.737  11.452  12.255
24967SOL     OW76733   9.253   5.364  14.246
24967SOL    HW176734   9.319   5.426  14.213
24967SOL    HW276735   9.256   5.375  14.341
24968SOL     OW76736   2.513   3.761   7.936
24968SOL    HW176737   2.530   3.854   7.923
24968SOL    HW276738   2.567   3.717   7.871
24969SOL     OW76739  13.569  13.988   0.990
24969SOL    HW176740  13.607  13.913   1.036
24969SOL    HW276741  13.488  13.954   0.951
24970SOL     OW76742   8.333   2.603   8.037
24970SOL    HW176743   8.263   2.623   7.974
24970SOL    HW276744   8.391   2.544   7.989
24971SOL     OW76745   0.619   2.338   5.948
24971SOL    HW176746   0.651   2.427   5.963
24971SOL    HW276747   0.548   2.327   6.011
24972SOL     OW76748  12.087  12.672   8.404
24972SOL    HW176749  12.176  12.639   8.419
24972SOL    HW276750  12.062  12.711   8.487
24973SOL     OW76751   8.814  11.947   3.074
24973SOL    HW176752   8.784  11.928   3.163
24973SOL    HW276753   8.791  11.869   3.024
24974SOL     OW76754   6.849   9.386  12.599
24974SOL    HW176755   6.943   9.370  12.596
24974SOL    HW276756   6.829   9.429  12.516
24975SOL     OW76757  10.256   0.807  11.790
24975SOL    HW176758  10.271   0.901  11.776
24975SOL    HW276759  10.233   0.774  11.703
24976SOL     OW76760   0.120  11.489   2.671
24976SOL    HW176761   0.063  11.551   2.625
24976SOL    HW276762   0.067  11.461   2.746
24977SOL     OW76763   8.161  10.677   3.597
24977SOL    HW176764   8.126  10.653   3.683
24977SOL    HW276765   8.103  10.632   3.535
24978SOL     OW76766   3.577   6.685  11.992
24978SOL    HW176767   3.594   6.710  12.083
24978SOL    HW276768   3.532   6.761  11.954
24979SOL     OW76769   5.993  13.099   3.948
24979SOL    HW176770   6.029  13.148   4.022
24979SOL    HW276771   5.902  13.080   3.974
24980SOL     OW76772   9.647   9.093   7.225
24980SOL    HW176773   9.653   8.998   7.224
24980SOL    HW276774   9.626   9.117   7.134
24981SOL     OW76775   3.564  13.373  13.856
24981SOL    HW176776   3.597  13.355  13.768
24981SOL    HW276777   3.604  13.457  13.880
24982SOL     OW76778   7.672  14.033   7.676
24982SOL    HW176779   7.646  14.124   7.688
24982SOL    HW276780   7.720  14.010   7.756
24983SOL     OW76781   4.320   0.936   5.893
24983SOL    HW176782   4.335   0.880   5.817
24983SOL    HW276783   4.380   0.903   5.960
24984SOL     OW76784  14.655   6.764   5.075
24984SOL    HW176785  14.666   6.669   5.071
24984SOL    HW276786  14.652   6.791   4.983
24985SOL     OW76787   6.929   0.450   6.619
24985SOL    HW176788   6.845   0.412   6.644
24985SOL    HW276789   6.994   0.389   6.653
24986SOL     OW76790   5.653   1.636   3.850
24986SOL    HW176791   5.720   1.606   3.789
24986SOL    HW276792   5.581   1.574   3.839
24987SOL     OW76793  14.447   8.679   8.688
24987SOL    HW176794  14.505   8.718   8.754
24987SOL    HW276795  14.396   8.752   8.654
24988SOL     OW76796  10.050   9.346   4.962
24988SOL    HW176797   9.978   9.343   5.024
24988SOL    HW276798  10.026   9.284   4.893
24989SOL     OW76799  11.701   8.198   2.229
24989SOL    HW176800  11.694   8.293   2.233
24989SOL    HW276801  11.736   8.180   2.142
24990SOL     OW76802   8.310   5.046  12.222
24990SOL    HW176803   8.369   5.088  12.160
24990SOL    HW276804   8.229   5.097  12.215
24991SOL     OW76805   4.681  14.588   0.520
24991SOL    HW176806   4.744  14.647   0.561
24991SOL    HW276807   4.650  14.636   0.443
24992SOL     OW76808  11.430   5.704  11.884
24992SOL    HW176809  11.377   5.771  11.926
24992SOL    HW276810  11.367   5.643  11.846
24993SOL     OW76811   5.043   1.868   7.763
24993SOL    HW176812   5.024   1.812   7.839
24993SOL    HW276813   5.072   1.807   7.695
24994SOL     OW76814  11.971   6.673   1.724
24994SOL    HW176815  11.897   6.662   1.784
24994SOL    HW276816  11.935   6.654   1.638
24995SOL     OW76817   1.080   2.223  11.758
24995SOL    HW176818   1.131   2.297  11.724
24995SOL    HW276819   1.052   2.175  11.680
24996SOL     OW76820   3.979  12.971   4.201
24996SOL    HW176821   4.010  12.990   4.289
24996SOL    HW276822   4.044  12.910   4.166
24997SOL     OW76823   8.290   8.474   1.232
24997SOL    HW176824   8.329   8.425   1.159
24997SOL    HW276825   8.365   8.511   1.278
24998SOL     OW76826   2.590   9.879   9.129
24998SOL    HW176827   2.545   9.956   9.163
24998SOL    HW276828   2.680   9.909   9.112
24999SOL     OW76829   5.995  11.772   6.146
24999SOL    HW176830   5.989  11.867   6.135
24999SOL    HW276831   5.941  11.753   6.223
25000SOL     OW76832   6.661  13.949   8.533
25000SOL    HW176833   6.624  13.862   8.521
25000SOL    HW276834   6.623  14.001   8.462
25001SOL     OW76835   3.095  14.383  13.989
25001SOL    HW176836   3.169  14.391  13.929
25001SOL    HW276837   3.029  14.335  13.939
25002SOL     OW76838   0.421  11.200   6.206
25002SOL    HW176839   0.365  11.169   6.277
25002SOL    HW276840   0.468  11.275   6.243
25003SOL     OW76841   2.366   0.168  11.773
25003SOL    HW176842   2.372   0.262  11.786
25003SOL    HW276843   2.408   0.153  11.688
25004SOL     OW76844   5.452  12.371   3.292
25004SOL    HW176845   5.458  12.277   3.309
25004SOL    HW276846   5.478  12.380   3.200
25005SOL     OW76847   3.137  13.186   7.662
25005SOL    HW176848   3.141  13.155   7.753
25005SOL    HW276849   3.222  13.163   7.625
25006SOL     OW76850   1.325  12.923  12.508
25006SOL    HW176851   1.369  13.008  12.504
25006SOL    HW276852   1.233  12.944  12.488
25007SOL     OW76853  10.763   1.305   2.174
25007SOL    HW176854  10.850   1.267   2.168
25007SOL    HW276855  10.750   1.349   2.090
25008SOL     OW76856   9.287   5.772   9.815
25008SOL    HW176857   9.353   5.736   9.756
25008SOL    HW276858   9.325   5.762   9.902
25009SOL     OW76859   2.174  13.370   3.740
25009SOL    HW176860   2.141  13.428   3.809
25009SOL    HW276861   2.096  13.343   3.693
25010SOL     OW76862   9.500   7.468   4.437
25010SOL    HW176863   9.567   7.440   4.500
25010SOL    HW276864   9.536   7.548   4.398
25011SOL     OW76865  11.120   9.374  10.092
25011SOL    HW176866  11.124   9.429  10.171
25011SOL    HW276867  11.027   9.353  10.082
25012SOL     OW76868   8.608  14.638   9.390
25012SOL    HW176869   8.609  14.551   9.351
25012SOL    HW276870   8.597  14.698   9.317
25013SOL     OW76871   5.908   4.012   8.943
25013SOL    HW176872   5.972   4.060   8.995
25013SOL    HW276873   5.931   3.920   8.954
25014SOL     OW76874   0.454   7.506  12.288
25014SOL    HW176875   0.432   7.416  12.313
25014SOL    HW276876   0.396   7.560  12.342
25015SOL     OW76877   7.223  11.576   6.754
25015SOL    HW176878   7.291  11.536   6.699
25015SOL    HW276879   7.164  11.618   6.692
25016SOL     OW76880   9.908   8.507   7.614
25016SOL    HW176881   9.922   8.543   7.702
25016SOL    HW276882   9.921   8.413   7.625
25017SOL     OW76883  10.311   0.491   2.720
25017SOL    HW176884  10.234   0.479   2.665
25017SOL    HW276885  10.275   0.515   2.806
25018SOL     OW76886   6.894   2.420   5.177
25018SOL    HW176887   6.851   2.503   5.155
25018SOL    HW276888   6.876   2.364   5.101
25019SOL     OW76889  11.268   1.649  14.509
25019SOL    HW176890  11.305   1.735  14.489
25019SOL    HW276891  11.194   1.667  14.567
25020SOL     OW76892   8.530   1.721  13.856
25020SOL    HW176893   8.526   1.792  13.793
25020SOL    HW276894   8.499   1.644  13.808
25021SOL     OW76895   4.569   0.521   6.669
25021SOL    HW176896   4.577   0.609   6.633
25021SOL    HW276897   4.526   0.534   6.754
25022SOL     OW76898   0.246  12.012   9.522
25022SOL    HW176899   0.179  11.948   9.546
25022SOL    HW276900   0.285  12.038   9.605
25023SOL     OW76901   0.284   6.506  12.053
25023SOL    HW176902   0.337   6.561  12.110
25023SOL    HW276903   0.203   6.492  12.101
25024SOL     OW76904   4.109   0.623   2.475
25024SOL    HW176905   4.096   0.606   2.382
25024SOL    HW276906   4.153   0.546   2.509
25025SOL     OW76907  12.094   3.520   5.362
25025SOL    HW176908  12.101   3.434   5.404
25025SOL    HW276909  12.007   3.519   5.321
25026SOL     OW76910   1.953   3.471  14.735
25026SOL    HW176911   1.902   3.462  14.654
25026SOL    HW276912   1.914   3.546  14.779
25027SOL     OW76913   4.835  12.621  14.769
25027SOL    HW176914   4.895  12.578  14.829
25027SOL    HW276915   4.885  12.630  14.688
25028SOL     OW76916  10.397   0.003   1.605
25028SOL    HW176917  10.400   0.071   1.537
25028SOL    HW276918  10.328  14.823   1.575
25029SOL     OW76919  14.333   0.653   4.983
25029SOL    HW176920  14.312   0.646   4.889
25029SOL    HW276921  14.356   0.563   5.008
25030SOL     OW76922   9.170   0.989   9.774
25030SOL    HW176923   9.106   0.919   9.781
25030SOL    HW276924   9.170   1.013   9.681
25031SOL     OW76925  11.161  10.534   4.947
25031SOL    HW176926  11.198  10.550   5.034
25031SOL    HW276927  11.227  10.569   4.886
25032SOL     OW76928  12.781  10.521  10.925
25032SOL    HW176929  12.692  10.490  10.936
25032SOL    HW276930  12.776  10.615  10.938
25033SOL     OW76931   3.836  14.677   6.402
25033SOL    HW176932   3.904  14.735   6.436
25033SOL    HW276933   3.884  14.606   6.359
25034SOL     OW76934   5.642  11.625  13.031
25034SOL    HW176935   5.695  11.603  12.955
25034SOL    HW276936   5.697  11.601  13.106
25035SOL     OW76937   9.797   5.680   0.420
25035SOL    HW176938   9.884   5.720   0.423
25035SOL    HW276939   9.790   5.631   0.502
25036SOL     OW76940   1.030   7.578  11.358
25036SOL    HW176941   0.952   7.544  11.314
25036SOL    HW276942   1.103   7.551  11.303
25037SOL     OW76943   8.188  13.428   5.972
25037SOL    HW176944   8.118  13.397   6.029
25037SOL    HW276945   8.160  13.515   5.944
25038SOL     OW76946  10.932   3.933   0.155
25038SOL    HW176947  10.841   3.905   0.166
25038SOL    HW276948  10.967   3.938   0.244
25039SOL     OW76949   0.761   0.495  11.075
25039SOL    HW176950   0.697   0.535  11.134
25039SOL    HW276951   0.840   0.546  11.088
25040SOL     OW76952   6.789  13.348   7.937
25040SOL    HW176953   6.867  13.386   7.898
25040SOL    HW276954   6.721  13.359   7.870
25041SOL     OW76955  14.128   5.888   0.784
25041SOL    HW176956  14.093   5.966   0.825
25041SOL    HW276957  14.067   5.818   0.808
25042SOL     OW76958   7.772   5.532   2.328
25042SOL    HW176959   7.731   5.514   2.244
25042SOL    HW276960   7.719   5.483   2.391
25043SOL     OW76961  12.160   3.680   1.052
25043SOL    HW176962  12.139   3.603   1.104
25043SOL    HW276963  12.220   3.648   0.984
25044SOL     OW76964  11.301  13.542   1.357
25044SOL    HW176965  11.350  13.560   1.277
25044SOL    HW276966  11.364  13.559   1.427
25045SOL     OW76967   3.784   9.725  13.246
25045SOL    HW176968   3.727   9.755  13.176
25045SOL    HW276969   3.754   9.773  13.324
25046SOL     OW76970   8.707   2.959   6.073
25046SOL    HW176971   8.728   3.048   6.047
25046SOL    HW276972   8.656   2.969   6.153
25047SOL     OW76973  14.073   0.054  12.606
25047SOL    HW176974  14.069   0.101  12.523
25047SOL    HW276975  14.105   0.119  12.669
25048SOL     OW76976   5.956   1.020   2.032
25048SOL    HW176977   5.944   0.933   2.070
25048SOL    HW276978   5.942   1.079   2.106
25049SOL     OW76979   5.598   3.344  13.176
25049SOL    HW176980   5.637   3.320  13.092
25049SOL    HW276981   5.504   3.329  13.163
25050SOL     OW76982   6.579   2.462  12.353
25050SOL    HW176983   6.672   2.456  12.332
25050SOL    HW276984   6.558   2.377  12.393
25051SOL     OW76985   6.418  12.066   6.212
25051SOL    HW176986   6.499  12.115   6.226
25051SOL    HW276987   6.432  11.984   6.260
25052SOL     OW76988  11.134   1.540  12.014
25052SOL    HW176989  11.058   1.573  12.061
25052SOL    HW276990  11.117   1.447  12.001
25053SOL     OW76991   4.154   3.025   1.650
25053SOL    HW176992   4.209   3.097   1.680
25053SOL    HW276993   4.142   2.970   1.728
25054SOL     OW76994   1.934   3.432   9.570
25054SOL    HW176995   2.022   3.415   9.536
25054SOL    HW276996   1.882   3.358   9.539
25055SOL     OW76997  13.820   1.992   3.211
25055SOL    HW176998  13.735   2.036   3.215
25055SOL    HW276999  13.814   1.937   3.133
25056SOL     OW77000   0.133   8.231   9.732
25056SOL    HW177001   0.060   8.228   9.670
25056SOL    HW277002   0.123   8.315   9.776
25057SOL     OW77003  14.139   3.056  13.438
25057SOL    HW177004  14.159   3.034  13.346
25057SOL    HW277005  14.079   2.987  13.466
25058SOL     OW77006  10.154   8.897   9.826
25058SOL    HW177007  10.099   8.897   9.748
25058SOL    HW277008  10.140   8.811   9.866
25059SOL     OW77009  12.080  14.322   6.152
25059SOL    HW177010  12.088  14.351   6.242
25059SOL    HW277011  12.154  14.264   6.138
25060SOL     OW77012  10.817  13.986   6.209
25060SOL    HW177013  10.897  14.023   6.171
25060SOL    HW277014  10.830  13.994   6.303
25061SOL     OW77015   6.906   6.544   0.276
25061SOL    HW177016   6.843   6.495   0.328
25061SOL    HW277017   6.894   6.513   0.186
25062SOL     OW77018   1.280  13.643  14.291
25062SOL    HW177019   1.305  13.643  14.198
25062SOL    HW277020   1.231  13.724  14.302
25063SOL     OW77021   9.046   4.626   5.165
25063SOL    HW177022   8.992   4.551   5.189
25063SOL    HW277023   8.984   4.691   5.132
25064SOL     OW77024   1.387   7.771   7.285
25064SOL    HW177025   1.480   7.792   7.271
25064SOL    HW277026   1.365   7.816   7.367
25065SOL     OW77027   0.073   1.506   4.355
25065SOL    HW177028   0.082   1.424   4.307
25065SOL    HW277029   0.140   1.563   4.317
25066SOL     OW77030  14.149   8.640   9.045
25066SOL    HW177031  14.187   8.689   8.971
25066SOL    HW277032  14.119   8.708   9.105
25067SOL     OW77033   9.656  12.895   5.504
25067SOL    HW177034   9.695  12.823   5.553
25067SOL    HW277035   9.561  12.883   5.514
25068SOL     OW77036  10.444  14.439  13.430
25068SOL    HW177037  10.415  14.529  13.447
25068SOL    HW277038  10.535  14.438  13.458
25069SOL     OW77039   9.008   8.243   4.059
25069SOL    HW177040   8.919   8.215   4.036
25069SOL    HW277041   9.024   8.319   4.003
25070SOL     OW77042  13.087  13.164  11.205
25070SOL    HW177043  13.105  13.227  11.135
25070SOL    HW277044  12.991  13.160  11.209
25071SOL     OW77045   6.786  10.077   1.270
25071SOL    HW177046   6.793  10.028   1.188
25071SOL    HW277047   6.703  10.049   1.308
25072SOL     OW77048   1.036   6.543  11.722
25072SOL    HW177049   1.117   6.510  11.683
25072SOL    HW277050   1.012   6.618  11.668
25073SOL     OW77051   3.738  13.878  11.477
25073SOL    HW177052   3.757  13.807  11.416
25073SOL    HW277053   3.716  13.833  11.559
25074SOL     OW77054   9.399   1.135   7.110
25074SOL    HW177055   9.475   1.141   7.052
25074SOL    HW277056   9.427   1.179   7.190
25075SOL     OW77057  12.608   1.946   2.592
25075SOL    HW177058  12.555   1.939   2.671
25075SOL    HW277059  12.694   1.912   2.618
25076SOL     OW77060   2.478   7.014   3.894
25076SOL    HW177061   2.555   7.065   3.870
25076SOL    HW277062   2.510   6.924   3.903
25077SOL     OW77063   1.750   9.805  14.547
25077SOL    HW177064   1.774   9.830  14.636
25077SOL    HW277065   1.813   9.850  14.491
25078SOL     OW77066   9.893   2.547   1.037
25078SOL    HW177067   9.882   2.577   0.946
25078SOL    HW277068   9.969   2.596   1.068
25079SOL     OW77069   6.727   8.703  12.897
25079SOL    HW177070   6.694   8.740  12.979
25079SOL    HW277071   6.810   8.749  12.882
25080SOL     OW77072   9.835   3.293   5.463
25080SOL    HW177073   9.893   3.223   5.431
25080SOL    HW277074   9.894   3.353   5.509
25081SOL     OW77075   4.041   2.526  12.057
25081SOL    HW177076   4.000   2.565  12.134
25081SOL    HW277077   3.968   2.495  12.004
25082SOL     OW77078   3.023   4.234   9.728
25082SOL    HW177079   3.013   4.275   9.814
25082SOL    HW277080   3.116   4.213   9.723
25083SOL     OW77081   3.769  13.070   6.850
25083SOL    HW177082   3.726  13.071   6.936
25083SOL    HW277083   3.780  13.162   6.828
25084SOL     OW77084   8.948   2.917   5.329
25084SOL    HW177085   9.004   2.874   5.394
25084SOL    HW277086   8.862   2.923   5.372
25085SOL     OW77087   9.893   5.756   2.684
25085SOL    HW177088   9.968   5.747   2.743
25085SOL    HW277089   9.918   5.704   2.607
25086SOL     OW77090  13.842   3.194   8.555
25086SOL    HW177091  13.832   3.110   8.600
25086SOL    HW277092  13.769   3.247   8.587
25087SOL     OW77093   4.658  10.421  12.658
25087SOL    HW177094   4.650  10.437  12.752
25087SOL    HW277095   4.568  10.404  12.629
25088SOL     OW77096   7.430   1.549   3.121
25088SOL    HW177097   7.396   1.625   3.074
25088SOL    HW277098   7.487   1.505   3.058
25089SOL     OW77099  10.466  11.702   3.156
25089SOL    HW177100  10.532  11.679   3.221
25089SOL    HW277101  10.421  11.619   3.138
25090SOL     OW77102   7.185   2.200   2.059
25090SOL    HW177103   7.253   2.230   2.120
25090SOL    HW277104   7.231   2.186   1.976
25091SOL     OW77105  14.732  14.102   4.435
25091SOL    HW177106  14.653  14.103   4.380
25091SOL    HW277107  14.802  14.078   4.375
25092SOL     OW77108   7.368  12.908   8.871
25092SOL    HW177109   7.314  12.933   8.946
25092SOL    HW277110   7.437  12.975   8.868
25093SOL     OW77111   9.302  10.707  12.856
25093SOL    HW177112   9.372  10.648  12.827
25093SOL    HW277113   9.227  10.685  12.801
25094SOL     OW77114   5.623   2.623   3.852
25094SOL    HW177115   5.579   2.669   3.781
25094SOL    HW277116   5.602   2.531   3.839
25095SOL     OW77117   2.552  12.402  10.830
25095SOL    HW177118   2.524  12.470  10.769
25095SOL    HW277119   2.646  12.396  10.818
25096SOL     OW77120   6.126   3.048  14.440
25096SOL    HW177121   6.073   2.997  14.380
25096SOL    HW277122   6.146   2.987  14.512
25097SOL     OW77123   1.309   4.351  10.808
25097SOL    HW177124   1.247   4.376  10.739
25097SOL    HW277125   1.307   4.423  10.870
25098SOL     OW77126   2.464   4.315   2.280
25098SOL    HW177127   2.517   4.278   2.210
25098SOL    HW277128   2.374   4.290   2.259
25099SOL     OW77129  10.560   4.535  11.424
25099SOL    HW177130  10.583   4.587  11.347
25099SOL    HW277131  10.640   4.486  11.444
25100SOL     OW77132  11.780   5.876  11.068
25100SOL    HW177133  11.742   5.820  11.136
25100SOL    HW277134  11.858   5.913  11.108
25101SOL     OW77135   5.940   2.801   3.168
25101SOL    HW177136   5.938   2.888   3.208
25101SOL    HW277137   6.014   2.803   3.108
25102SOL     OW77138   4.751   6.939   1.012
25102SOL    HW177139   4.706   6.859   1.040
25102SOL    HW277140   4.841   6.912   0.997
25103SOL     OW77141   2.953   3.945   2.105
25103SOL    HW177142   2.921   3.868   2.060
25103SOL    HW277143   3.048   3.944   2.091
25104SOL     OW77144   1.550   0.682   7.417
25104SOL    HW177145   1.587   0.691   7.329
25104SOL    HW277146   1.473   0.738   7.417
25105SOL     OW77147   6.992  14.286   5.131
25105SOL    HW177148   7.046  14.240   5.068
25105SOL    HW277149   6.904  14.250   5.118
25106SOL     OW77150   8.911   7.340   9.840
25106SOL    HW177151   8.914   7.404   9.911
25106SOL    HW277152   8.837   7.367   9.786
25107SOL     OW77153   7.565   4.142  14.110
25107SOL    HW177154   7.560   4.118  14.018
25107SOL    HW277155   7.547   4.060  14.157
25108SOL     OW77156   9.562   2.774   7.131
25108SOL    HW177157   9.539   2.725   7.210
25108SOL    HW277158   9.635   2.726   7.093
25109SOL     OW77159   6.006   3.570   4.938
25109SOL    HW177160   6.045   3.515   5.005
25109SOL    HW277161   6.016   3.659   4.971
25110SOL     OW77162   4.390   5.191   5.126
25110SOL    HW177163   4.310   5.166   5.174
25110SOL    HW277164   4.437   5.248   5.187
25111SOL     OW77165   6.552  13.201  13.950
25111SOL    HW177166   6.502  13.217  14.030
25111SOL    HW277167   6.530  13.112  13.924
25112SOL     OW77168   3.221   0.244   1.931
25112SOL    HW177169   3.311   0.215   1.919
25112SOL    HW277170   3.180   0.174   1.982
25113SOL     OW77171   8.251   5.309   2.431
25113SOL    HW177172   8.301   5.326   2.352
25113SOL    HW277173   8.269   5.218   2.453
25114SOL     OW77174   8.182   9.402  12.462
25114SOL    HW177175   8.234   9.418  12.383
25114SOL    HW277176   8.213   9.468  12.524
25115SOL     OW77177   2.551  12.409   4.799
25115SOL    HW177178   2.480  12.456   4.754
25115SOL    HW277179   2.551  12.322   4.760
25116SOL     OW77180   8.548  14.702   9.943
25116SOL    HW177181   8.641  14.723   9.938
25116SOL    HW277182   8.527  14.710  10.036
25117SOL     OW77183  14.351   5.034   3.196
25117SOL    HW177184  14.365   4.993   3.281
25117SOL    HW277185  14.293   4.974   3.149
25118SOL     OW77186  11.575   7.746  13.190
25118SOL    HW177187  11.612   7.750  13.277
25118SOL    HW277188  11.480   7.755  13.204
25119SOL     OW77189  12.618  14.811   3.841
25119SOL    HW177190  12.582  14.725   3.822
25119SOL    HW277191  12.712  14.801   3.826
25120SOL     OW77192   5.438  14.431   5.343
25120SOL    HW177193   5.477  14.378   5.413
25120SOL    HW277194   5.480  14.516   5.352
25121SOL     OW77195  10.094   7.803   5.289
25121SOL    HW177196  10.007   7.817   5.251
25121SOL    HW277197  10.081   7.735   5.355
25122SOL     OW77198  12.843   0.486   4.284
25122SOL    HW177199  12.769   0.539   4.256
25122SOL    HW277200  12.888   0.461   4.203
25123SOL     OW77201   8.485  10.589   9.123
25123SOL    HW177202   8.432  10.510   9.113
25123SOL    HW277203   8.568  10.557   9.157
25124SOL     OW77204  12.818  11.595   6.607
25124SOL    HW177205  12.775  11.581   6.692
25124SOL    HW277206  12.838  11.507   6.575
25125SOL     OW77207   2.961   1.141  13.034
25125SOL    HW177208   2.934   1.092  12.957
25125SOL    HW277209   2.982   1.228  13.001
25126SOL     OW77210   3.822   7.449   9.451
25126SOL    HW177211   3.737   7.493   9.451
25126SOL    HW277212   3.885   7.516   9.478
25127SOL     OW77213   5.977   9.894  10.772
25127SOL    HW177214   5.946   9.923  10.687
25127SOL    HW277215   5.913   9.928  10.834
25128SOL     OW77216   4.420   5.657   8.807
25128SOL    HW177217   4.420   5.561   8.809
25128SOL    HW277218   4.497   5.681   8.859
25129SOL     OW77219   9.231   7.070   3.450
25129SOL    HW177220   9.261   7.055   3.361
25129SOL    HW277221   9.136   7.080   3.443
25130SOL     OW77222   2.779  12.321   2.165
25130SOL    HW177223   2.739  12.389   2.110
25130SOL    HW277224   2.866  12.308   2.127
25131SOL     OW77225  11.741   8.975  12.764
25131SOL    HW177226  11.818   8.935  12.723
25131SOL    HW277227  11.741   8.941  12.854
25132SOL     OW77228  14.221  14.296  13.312
25132SOL    HW177229  14.235  14.390  13.305
25132SOL    HW277230  14.295  14.264  13.363
25133SOL     OW77231   8.204  13.149   5.809
25133SOL    HW177232   8.271  13.217   5.800
25133SOL    HW277233   8.121  13.196   5.806
25134SOL     OW77234  13.930   6.623   9.135
25134SOL    HW177235  13.922   6.685   9.062
25134SOL    HW277236  13.914   6.537   9.096
25135SOL     OW77237   6.676   3.202  11.629
25135SOL    HW177238   6.740   3.256  11.674
25135SOL    HW277239   6.718   3.178  11.547
25136SOL     OW77240   5.220   8.891   4.838
25136SOL    HW177241   5.292   8.932   4.887
25136SOL    HW277242   5.203   8.809   4.885
25137SOL     OW77243   0.520   8.388   9.718
25137SOL    HW177244   0.607   8.426   9.716
25137SOL    HW277245   0.462   8.460   9.694
25138SOL     OW77246  10.705   4.767   7.319
25138SOL    HW177247  10.698   4.756   7.224
25138SOL    HW277248  10.656   4.693   7.355
25139SOL     OW77249   2.207  12.621   6.522
25139SOL    HW177250   2.188  12.609   6.615
25139SOL    HW277251   2.229  12.714   6.514
25140SOL     OW77252  14.439  11.469  10.736
25140SOL    HW177253  14.454  11.429  10.651
25140SOL    HW277254  14.344  11.480  10.742
25141SOL     OW77255   9.071  11.717   5.293
25141SOL    HW177256   9.094  11.626   5.278
25141SOL    HW277257   9.095  11.762   5.211
25142SOL     OW77258  12.044   2.655  11.057
25142SOL    HW177259  12.061   2.644  10.964
25142SOL    HW277260  12.053   2.749  11.072
25143SOL     OW77261  11.622  10.987  11.304
25143SOL    HW177262  11.682  10.988  11.378
25143SOL    HW277263  11.674  11.015  11.229
25144SOL     OW77264   0.302  14.170  11.524
25144SOL    HW177265   0.225  14.220  11.550
25144SOL    HW277266   0.271  14.111  11.456
25145SOL     OW77267   7.770   8.561   2.938
25145SOL    HW177268   7.780   8.647   2.895
25145SOL    HW277269   7.858   8.537   2.964
25146SOL     OW77270   3.683   9.371  14.411
25146SOL    HW177271   3.630   9.313  14.356
25146SOL    HW277272   3.697   9.321  14.491
25147SOL     OW77273   5.794   3.775  11.836
25147SOL    HW177274   5.826   3.865  11.843
25147SOL    HW277275   5.840   3.740  11.760
25148SOL     OW77276   4.347  13.289   9.011
25148SOL    HW177277   4.432  13.306   8.970
25148SOL    HW277278   4.317  13.376   9.039
25149SOL     OW77279   2.238  10.236   1.493
25149SOL    HW177280   2.293  10.243   1.416
25149SOL    HW277281   2.210  10.144   1.494
25150SOL     OW77282  13.183  11.930   5.500
25150SOL    HW177283  13.170  12.018   5.464
25150SOL    HW277284  13.146  11.935   5.588
25151SOL     OW77285  11.110   7.910   6.646
25151SOL    HW177286  11.040   7.862   6.601
25151SOL    HW277287  11.097   7.888   6.739
25152SOL     OW77288   5.465   2.386   2.771
25152SOL    HW177289   5.432   2.441   2.701
25152SOL    HW277290   5.526   2.326   2.728
25153SOL     OW77291   6.180   7.649   3.502
25153SOL    HW177292   6.163   7.684   3.414
25153SOL    HW277293   6.229   7.718   3.547
25154SOL     OW77294   6.126  10.211   1.397
25154SOL    HW177295   6.036  10.242   1.410
25154SOL    HW277296   6.116  10.117   1.379
25155SOL     OW77297   6.894   9.061   4.465
25155SOL    HW177298   6.841   9.137   4.490
25155SOL    HW277299   6.857   9.033   4.381
25156SOL     OW77300   8.823   1.591  14.554
25156SOL    HW177301   8.734   1.557  14.553
25156SOL    HW277302   8.836   1.622  14.644
25157SOL     OW77303   3.577  11.472   2.982
25157SOL    HW177304   3.493  11.493   2.943
25157SOL    HW277305   3.638  11.472   2.908
25158SOL     OW77306   1.474   2.467  11.516
25158SOL    HW177307   1.557   2.424  11.531
25158SOL    HW277308   1.495   2.560  11.513
25159SOL     OW77309   3.731   0.206   3.309
25159SOL    HW177310   3.753   0.235   3.398
25159SOL    HW277311   3.717   0.287   3.260
25160SOL     OW77312   5.207   2.129   7.821
25160SOL    HW177313   5.202   2.152   7.728
25160SOL    HW277314   5.189   2.035   7.823
25161SOL     OW77315  14.112  12.534   9.777
25161SOL    HW177316  14.035  12.590   9.770
25161SOL    HW277317  14.183  12.594   9.802
25162SOL     OW77318  11.401  14.416   0.552
25162SOL    HW177319  11.347  14.414   0.631
25162SOL    HW277320  11.356  14.358   0.491
25163SOL     OW77321  14.122  13.270   4.587
25163SOL    HW177322  14.181  13.329   4.540
25163SOL    HW277323  14.166  13.185   4.583
25164SOL     OW77324   3.639  13.744  14.347
25164SOL    HW177325   3.568  13.704  14.396
25164SOL    HW277326   3.716  13.691  14.369
25165SOL     OW77327  11.852   2.509   5.358
25165SOL    HW177328  11.884   2.484   5.445
25165SOL    HW277329  11.872   2.603   5.351
25166SOL     OW77330  13.394  11.748   4.993
25166SOL    HW177331  13.414  11.790   5.076
25166SOL    HW277332  13.321  11.798   4.957
25167SOL     OW77333   2.345   3.764  14.624
25167SOL    HW177334   2.382   3.758  14.536
25167SOL    HW277335   2.335   3.673  14.652
25168SOL     OW77336  14.376   5.945  11.040
25168SOL    HW177337  14.454   5.984  10.999
25168SOL    HW277338  14.345   5.881  10.976
25169SOL     OW77339   6.660   0.208  11.404
25169SOL    HW177340   6.575   0.181  11.439
25169SOL    HW277341   6.642   0.291  11.361
25170SOL     OW77342  12.873   6.835   4.973
25170SOL    HW177343  12.922   6.917   4.982
25170SOL    HW277344  12.820   6.847   4.894
25171SOL     OW77345   1.704   1.644  14.567
25171SOL    HW177346   1.613   1.668  14.549
25171SOL    HW277347   1.756   1.707  14.516
25172SOL     OW77348   8.609   8.186  13.487
25172SOL    HW177349   8.544   8.187  13.417
25172SOL    HW277350   8.688   8.151  13.446
25173SOL     OW77351  11.526  14.476   4.217
25173SOL    HW177352  11.589  14.488   4.146
25173SOL    HW277353  11.441  14.471   4.173
25174SOL     OW77354   3.410  13.057   6.782
25174SOL    HW177355   3.475  12.988   6.774
25174SOL    HW277356   3.346  13.024   6.845
25175SOL     OW77357   6.680   5.133   9.567
25175SOL    HW177358   6.638   5.185   9.499
25175SOL    HW277359   6.740   5.075   9.520
25176SOL     OW77360   8.314   4.210  11.231
25176SOL    HW177361   8.390   4.220  11.288
25176SOL    HW277362   8.348   4.229  11.143
25177SOL     OW77363   4.833  10.134   0.892
25177SOL    HW177364   4.779  10.142   0.813
25177SOL    HW277365   4.877  10.218   0.900
25178SOL     OW77366  11.879   4.967   1.205
25178SOL    HW177367  11.914   5.037   1.260
25178SOL    HW277368  11.932   4.970   1.125
25179SOL     OW77369   4.106  10.929  13.559
25179SOL    HW177370   4.195  10.943  13.525
25179SOL    HW277371   4.051  10.984  13.504
25180SOL     OW77372   7.648  10.262   1.216
25180SOL    HW177373   7.703  10.188   1.242
25180SOL    HW277374   7.559  10.236   1.238
25181SOL     OW77375   1.520  10.563  12.591
25181SOL    HW177376   1.593  10.513  12.628
25181SOL    HW277377   1.461  10.497  12.556
25182SOL     OW77378   6.389   8.421  12.333
25182SOL    HW177379   6.460   8.469  12.288
25182SOL    HW277380   6.325   8.403  12.264
25183SOL     OW77381   1.775   1.453   2.048
25183SOL    HW177382   1.793   1.464   1.955
25183SOL    HW277383   1.857   1.421   2.086
25184SOL     OW77384   8.244   1.303   6.075
25184SOL    HW177385   8.237   1.376   6.137
25184SOL    HW277386   8.225   1.342   5.990
25185SOL     OW77387  10.985   1.980   6.729
25185SOL    HW177388  11.005   1.911   6.792
25185SOL    HW277389  10.927   1.939   6.665
25186SOL     OW77390   7.907   9.554  11.884
25186SOL    HW177391   7.859   9.508  11.816
25186SOL    HW277392   7.842   9.609  11.927
25187SOL     OW77393  14.739   0.137  14.575
25187SOL    HW177394  14.788   0.055  14.573
25187SOL    HW277395  14.649   0.112  14.556
25188SOL     OW77396   6.349   3.724   8.123
25188SOL    HW177397   6.405   3.772   8.063
25188SOL    HW277398   6.351   3.775   8.204
25189SOL     OW77399  12.650  13.553   1.514
25189SOL    HW177400  12.559  13.524   1.512
25189SOL    HW277401  12.701  13.473   1.528
25190SOL     OW77402   2.321   5.262   8.953
25190SOL    HW177403   2.405   5.248   8.910
25190SOL    HW277404   2.310   5.357   8.953
25191SOL     OW77405   9.435   7.736  14.050
25191SOL    HW177406   9.481   7.819  14.056
25191SOL    HW277407   9.358   7.755  13.995
25192SOL     OW77408   9.655   1.972   1.293
25192SOL    HW177409   9.611   2.053   1.266
25192SOL    HW277410   9.586   1.921   1.336
25193SOL     OW77411   7.588   2.651  14.765
25193SOL    HW177412   7.493   2.663  14.761
25193SOL    HW277413   7.623   2.718  14.706
25194SOL     OW77414  12.233   4.936  11.974
25194SOL    HW177415  12.264   4.887  11.897
25194SOL    HW277416  12.168   4.996  11.938
25195SOL     OW77417  13.006   9.096   8.213
25195SOL    HW177418  13.029   9.187   8.192
25195SOL    HW277419  12.947   9.104   8.288
25196SOL     OW77420   7.585  12.187   7.215
25196SOL    HW177421   7.532  12.108   7.214
25196SOL    HW277422   7.539  12.246   7.275
25197SOL     OW77423   6.286   9.018   3.597
25197SOL    HW177424   6.354   9.002   3.531
25197SOL    HW277425   6.328   9.075   3.662
25198SOL     OW77426   3.526  10.009   9.475
25198SOL    HW177427   3.497  10.083   9.421
25198SOL    HW277428   3.455   9.995   9.537
25199SOL     OW77429  10.161  12.968  11.532
25199SOL    HW177430  10.168  13.064  11.529
25199SOL    HW277431  10.071  12.950  11.503
25200SOL     OW77432   5.386   3.839   8.143
25200SOL    HW177433   5.427   3.839   8.230
25200SOL    HW277434   5.395   3.929   8.112
25201SOL     OW77435  14.068   6.136  10.682
25201SOL    HW177436  14.042   6.045  10.695
25201SOL    HW277437  14.149   6.145  10.733
25202SOL     OW77438   4.106   3.280  14.083
25202SOL    HW177439   4.191   3.292  14.124
25202SOL    HW277440   4.116   3.316  13.995
25203SOL     OW77441   5.597   5.170   7.721
25203SOL    HW177442   5.530   5.237   7.708
25203SOL    HW277443   5.647   5.171   7.639
25204SOL     OW77444   6.054   6.145   2.160
25204SOL    HW177445   5.975   6.092   2.168
25204SOL    HW277446   6.028   6.220   2.107
25205SOL     OW77447   4.433   5.575   2.274
25205SOL    HW177448   4.421   5.554   2.181
25205SOL    HW277449   4.517   5.621   2.277
25206SOL     OW77450  13.483   1.497  11.311
25206SOL    HW177451  13.517   1.450  11.235
25206SOL    HW277452  13.520   1.450  11.386
25207SOL     OW77453   3.457  13.026  14.287
25207SOL    HW177454   3.409  12.945  14.296
25207SOL    HW277455   3.474  13.034  14.193
25208SOL     OW77456   1.405   7.124  13.040
25208SOL    HW177457   1.410   7.075  12.958
25208SOL    HW277458   1.496   7.142  13.064
25209SOL     OW77459   8.925   9.929   8.716
25209SOL    HW177460   8.978   9.980   8.655
25209SOL    HW277461   8.857   9.889   8.662
25210SOL     OW77462   8.328   7.388   6.329
25210SOL    HW177463   8.290   7.301   6.339
25210SOL    HW277464   8.338   7.399   6.235
25211SOL     OW77465   2.523   0.741   7.683
25211SOL    HW177466   2.448   0.685   7.699
25211SOL    HW277467   2.567   0.702   7.608
25212SOL     OW77468   6.948   5.126   1.127
25212SOL    HW177469   6.985   5.109   1.214
25212SOL    HW277470   6.909   5.042   1.101
25213SOL     OW77471   0.202  11.839  12.353
25213SOL    HW177472   0.251  11.760  12.375
25213SOL    HW277473   0.254  11.910  12.390
25214SOL     OW77474  10.134  11.304   6.280
25214SOL    HW177475  10.083  11.316   6.199
25214SOL    HW277476  10.076  11.336   6.349
25215SOL     OW77477  10.615   1.437  10.125
25215SOL    HW177478  10.582   1.496  10.057
25215SOL    HW277479  10.710   1.441  10.116
25216SOL     OW77480   4.958   9.610   0.299
25216SOL    HW177481   4.863   9.622   0.297
25216SOL    HW277482   4.990   9.654   0.220
25217SOL     OW77483   3.966   2.174   7.031
25217SOL    HW177484   3.966   2.144   7.121
25217SOL    HW277485   4.028   2.246   7.029
25218SOL     OW77486   9.509  14.866   7.416
25218SOL    HW177487   9.433  14.822   7.379
25218SOL    HW277488   9.496  14.860   7.511
25219SOL     OW77489   6.580   7.514   1.469
25219SOL    HW177490   6.484   7.510   1.465
25219SOL    HW277491   6.601   7.607   1.460
25220SOL     OW77492   4.072   6.327   7.206
25220SOL    HW177493   4.110   6.349   7.291
25220SOL    HW277494   4.014   6.400   7.186
25221SOL     OW77495  12.799   7.380   7.255
25221SOL    HW177496  12.731   7.337   7.204
25221SOL    HW277497  12.862   7.411   7.190
25222SOL     OW77498  14.861   4.794  14.653
25222SOL    HW177499  14.810   4.853  14.708
25222SOL    HW277500   0.062   4.842  14.634
25223SOL     OW77501   5.007   0.830   6.477
25223SOL    HW177502   4.982   0.843   6.386
25223SOL    HW277503   5.023   0.735   6.484
25224SOL     OW77504  13.589   8.383   3.032
25224SOL    HW177505  13.558   8.442   2.964
25224SOL    HW277506  13.648   8.436   3.085
25225SOL     OW77507   9.848   7.478  14.220
25225SOL    HW177508   9.831   7.570  14.239
25225SOL    HW277509   9.769   7.448  14.173
25226SOL     OW77510  11.881   0.323   7.340
25226SOL    HW177511  11.869   0.234   7.373
25226SOL    HW277512  11.902   0.376   7.417
25227SOL     OW77513   6.426   1.441   5.206
25227SOL    HW177514   6.418   1.460   5.112
25227SOL    HW277515   6.438   1.527   5.246
25228SOL     OW77516  13.674   9.347   6.295
25228SOL    HW177517  13.662   9.441   6.308
25228SOL    HW277518  13.589   9.308   6.317
25229SOL     OW77519   2.076   4.766   7.351
25229SOL    HW177520   2.164   4.784   7.316
25229SOL    HW277521   2.091   4.738   7.441
25230SOL     OW77522   9.694   5.220   6.393
25230SOL    HW177523   9.733   5.133   6.406
25230SOL    HW277524   9.767   5.274   6.361
25231SOL     OW77525   6.631  14.180  12.070
25231SOL    HW177526   6.627  14.253  12.132
25231SOL    HW277527   6.707  14.129  12.096
25232SOL     OW77528   2.390   6.638   9.356
25232SOL    HW177529   2.325   6.685   9.304
25232SOL    HW277530   2.412   6.698   9.427
25233SOL     OW77531   0.105  13.596   8.036
25233SOL    HW177532   0.011  13.614   8.038
25233SOL    HW277533   0.135  13.632   7.953
25234SOL     OW77534   9.603   7.439   6.656
25234SOL    HW177535   9.658   7.429   6.733
25234SOL    HW277536   9.600   7.534   6.640
25235SOL     OW77537   7.373   7.058   3.371
25235SOL    HW177538   7.307   7.117   3.407
25235SOL    HW277539   7.324   6.992   3.324
25236SOL     OW77540   8.191   4.893   2.918
25236SOL    HW177541   8.171   4.834   2.845
25236SOL    HW277542   8.231   4.970   2.876
25237SOL     OW77543  11.478  13.025   7.196
25237SOL    HW177544  11.444  12.969   7.266
25237SOL    HW277545  11.541  12.970   7.150
25238SOL     OW77546  11.313   1.303  12.282
25238SOL    HW177547  11.234   1.284  12.333
25238SOL    HW277548  11.313   1.237  12.213
25239SOL     OW77549  12.468   7.004  11.341
25239SOL    HW177550  12.449   7.011  11.435
25239SOL    HW277551  12.501   7.091  11.317
25240SOL     OW77552  11.941   2.207   2.606
25240SOL    HW177553  11.906   2.119   2.590
25240SOL    HW277554  12.013   2.217   2.544
25241SOL     OW77555   3.929   5.854  12.774
25241SOL    HW177556   3.974   5.929  12.814
25241SOL    HW277557   3.887   5.891  12.696
25242SOL     OW77558   2.475  13.887   0.105
25242SOL    HW177559   2.523  13.917   0.028
25242SOL    HW277560   2.409  13.954   0.120
25243SOL     OW77561   0.499  12.117   2.697
25243SOL    HW177562   0.471  12.197   2.743
25243SOL    HW277563   0.588  12.137   2.668
25244SOL     OW77564  14.126   1.301  12.389
25244SOL    HW177565  14.149   1.375  12.444
25244SOL    HW277566  14.098   1.233  12.451
25245SOL     OW77567  13.667   4.462   6.116
25245SOL    HW177568  13.630   4.487   6.031
25245SOL    HW277569  13.600   4.406   6.156
25246SOL     OW77570  12.409  12.818   0.980
25246SOL    HW177571  12.323  12.843   1.014
25246SOL    HW277572  12.444  12.899   0.941
25247SOL     OW77573   7.639   9.440   2.293
25247SOL    HW177574   7.683   9.480   2.369
25247SOL    HW277575   7.659   9.347   2.300
25248SOL     OW77576   2.197   1.534   6.222
25248SOL    HW177577   2.146   1.615   6.210
25248SOL    HW277578   2.168   1.500   6.307
25249SOL     OW77579  12.260   0.033   9.253
25249SOL    HW177580  12.335  14.852   9.251
25249SOL    HW277581  12.264   0.080   9.170
25250SOL     OW77582   7.380   1.832   4.775
25250SOL    HW177583   7.469   1.798   4.765
25250SOL    HW277584   7.325   1.770   4.727
25251SOL     OW77585   6.032  10.073   7.161
25251SOL    HW177586   6.124  10.057   7.183
25251SOL    HW277587   6.006   9.994   7.112
25252SOL     OW77588  12.389   2.065   5.759
25252SOL    HW177589  12.361   2.095   5.673
25252SOL    HW277590  12.311   2.027   5.798
25253SOL     OW77591   6.824   6.970   9.312
25253SOL    HW177592   6.845   6.958   9.220
25253SOL    HW277593   6.730   6.953   9.318
25254SOL     OW77594   3.792   3.376   8.671
25254SOL    HW177595   3.803   3.281   8.672
25254SOL    HW277596   3.836   3.404   8.590
25255SOL     OW77597   1.630   7.939  13.080
25255SOL    HW177598   1.644   7.920  13.173
25255SOL    HW277599   1.549   7.989  13.078
25256SOL     OW77600   0.315   3.160   5.413
25256SOL    HW177601   0.241   3.111   5.377
25256SOL    HW277602   0.382   3.156   5.345
25257SOL     OW77603  12.464  10.214   6.651
25257SOL    HW177604  12.378  10.254   6.665
25257SOL    HW277605  12.500  10.204   6.739
25258SOL     OW77606   9.164  13.345   5.417
25258SOL    HW177607   9.138  13.319   5.506
25258SOL    HW277608   9.231  13.413   5.431
25259SOL     OW77609   1.350  12.047   7.375
25259SOL    HW177610   1.365  12.141   7.385
25259SOL    HW277611   1.274  12.041   7.317
25260SOL     OW77612   5.807   0.486  11.912
25260SOL    HW177613   5.842   0.574  11.925
25260SOL    HW277614   5.863   0.447  11.845
25261SOL     OW77615   6.724   3.818  10.481
25261SOL    HW177616   6.651   3.763  10.452
25261SOL    HW277617   6.699   3.845  10.570
25262SOL     OW77618   0.665  10.431   9.827
25262SOL    HW177619   0.597  10.487   9.864
25262SOL    HW277620   0.686  10.369   9.898
25263SOL     OW77621  12.823  10.230   5.471
25263SOL    HW177622  12.864  10.212   5.556
25263SOL    HW277623  12.815  10.144   5.430
25264SOL     OW77624   9.935  12.620  13.370
25264SOL    HW177625   9.947  12.526  13.373
25264SOL    HW277626   9.931  12.642  13.277
25265SOL     OW77627   5.951  12.573   6.243
25265SOL    HW177628   6.012  12.636   6.282
25265SOL    HW277629   5.864  12.603   6.272
25266SOL     OW77630   5.396   0.152   2.043
25266SOL    HW177631   5.414   0.064   2.010
25266SOL    HW277632   5.303   0.166   2.026
25267SOL     OW77633  12.657  11.065  10.085
25267SOL    HW177634  12.718  11.053  10.158
25267SOL    HW277635  12.615  10.979  10.075
25268SOL     OW77636   9.686  14.489   3.755
25268SOL    HW177637   9.759  14.428   3.741
25268SOL    HW277638   9.643  14.495   3.670
25269SOL     OW77639   0.945   4.975   8.748
25269SOL    HW177640   0.900   4.929   8.819
25269SOL    HW277641   0.969   5.059   8.786
25270SOL     OW77642   7.213   9.349   2.161
25270SOL    HW177643   7.261   9.281   2.207
25270SOL    HW277644   7.121   9.326   2.174
25271SOL     OW77645   1.472  11.687   5.112
25271SOL    HW177646   1.488  11.643   5.029
25271SOL    HW277647   1.434  11.771   5.088
25272SOL     OW77648   1.584  13.964   8.288
25272SOL    HW177649   1.640  13.955   8.210
25272SOL    HW277650   1.624  14.035   8.338
25273SOL     OW77651  10.407  11.543   3.774
25273SOL    HW177652  10.503  11.545   3.771
25273SOL    HW277653  10.380  11.629   3.744
25274SOL     OW77654   5.061   2.271  13.050
25274SOL    HW177655   5.126   2.326  13.094
25274SOL    HW277656   4.988   2.266  13.113
25275SOL     OW77657   4.441   0.443   6.066
25275SOL    HW177658   4.458   0.471   6.156
25275SOL    HW277659   4.353   0.476   6.046
25276SOL     OW77660  10.295  11.127  10.888
25276SOL    HW177661  10.304  11.165  10.975
25276SOL    HW277662  10.236  11.052  10.900
25277SOL     OW77663  10.734   0.474  12.887
25277SOL    HW177664  10.731   0.503  12.796
25277SOL    HW277665  10.802   0.528  12.927
25278SOL     OW77666  14.878  10.382   0.907
25278SOL    HW177667  14.798  10.401   0.957
25278SOL    HW277668   0.062  10.447   0.937
25279SOL     OW77669  11.455   9.401   4.467
25279SOL    HW177670  11.423   9.313   4.444
25279SOL    HW277671  11.548   9.398   4.447
25280SOL     OW77672  11.261  13.124   1.187
25280SOL    HW177673  11.278  13.194   1.124
25280SOL    HW277674  11.284  13.044   1.140
25281SOL     OW77675   2.418   6.133  13.581
25281SOL    HW177676   2.497   6.169  13.621
25281SOL    HW277677   2.351   6.144  13.647
25282SOL     OW77678  14.859  14.041  14.070
25282SOL    HW177679  14.858  13.948  14.045
25282SOL    HW277680   0.061  14.075  14.032
25283SOL     OW77681  14.532  11.842   2.317
25283SOL    HW177682  14.482  11.772   2.276
25283SOL    HW277683  14.539  11.816   2.409
25284SOL     OW77684  11.236  14.690   8.495
25284SOL    HW177685  11.255  14.757   8.560
25284SOL    HW277686  11.320  14.672   8.453
25285SOL     OW77687   3.174   4.607  13.320
25285SOL    HW177688   3.156   4.674  13.253
25285SOL    HW277689   3.257   4.569  13.292
25286SOL     OW77690  14.249  14.216   5.923
25286SOL    HW177691  14.270  14.280   5.991
25286SOL    HW277692  14.163  14.244   5.891
25287SOL     OW77693  12.381  10.151  12.463
25287SOL    HW177694  12.306  10.100  12.496
25287SOL    HW277695  12.352  10.242  12.469
25288SOL     OW77696   0.677   1.024  14.844
25288SOL    HW177697   0.585   1.014  14.817
25288SOL    HW277698   0.703   1.108  14.807
25289SOL     OW77699  12.664   7.451   0.749
25289SOL    HW177700  12.669   7.362   0.784
25289SOL    HW277701  12.575   7.480   0.770
25290SOL     OW77702   2.774   1.988  11.653
25290SOL    HW177703   2.766   2.072  11.699
25290SOL    HW277704   2.723   1.927  11.705
25291SOL     OW77705  12.641   7.412  13.476
25291SOL    HW177706  12.700   7.348  13.436
25291SOL    HW277707  12.622   7.376  13.563
25292SOL     OW77708   3.330   7.173   0.029
25292SOL    HW177709   3.255   7.219  14.871
25292SOL    HW277710   3.387   7.155  14.834
25293SOL     OW77711   8.409   3.005  11.144
25293SOL    HW177712   8.429   2.987  11.052
25293SOL    HW277713   8.319   3.040  11.142
25294SOL     OW77714  12.329  13.521   8.214
25294SOL    HW177715  12.363  13.481   8.294
25294SOL    HW277716  12.394  13.499   8.147
25295SOL     OW77717   4.716   9.155  10.073
25295SOL    HW177718   4.719   9.079  10.132
25295SOL    HW277719   4.694   9.229  10.130
25296SOL     OW77720   4.651  10.244   7.537
25296SOL    HW177721   4.617  10.177   7.596
25296SOL    HW277722   4.685  10.312   7.595
25297SOL     OW77723   1.356   7.939   3.268
25297SOL    HW177724   1.332   7.859   3.220
25297SOL    HW277725   1.446   7.957   3.241
25298SOL     OW77726   6.089  10.352   6.010
25298SOL    HW177727   6.115  10.434   6.054
25298SOL    HW277728   6.172  10.306   5.997
25299SOL     OW77729   9.641   3.182  10.167
25299SOL    HW177730   9.731   3.173  10.199
25299SOL    HW277731   9.589   3.195  10.246
25300SOL     OW77732  10.237   1.454   6.857
25300SOL    HW177733  10.285   1.422   6.781
25300SOL    HW277734  10.165   1.505   6.821
25301SOL     OW77735   9.190   7.539   8.577
25301SOL    HW177736   9.189   7.493   8.493
25301SOL    HW277737   9.147   7.622   8.559
25302SOL     OW77738  10.152   6.087  13.900
25302SOL    HW177739  10.093   6.076  13.825
25302SOL    HW277740  10.239   6.067  13.864
25303SOL     OW77741   6.586   5.283   2.802
25303SOL    HW177742   6.593   5.191   2.825
25303SOL    HW277743   6.495   5.295   2.776
25304SOL     OW77744  10.955   6.000  12.240
25304SOL    HW177745  10.946   6.037  12.328
25304SOL    HW277746  10.930   6.071  12.181
25305SOL     OW77747   9.833  11.402   2.624
25305SOL    HW177748   9.811  11.402   2.531
25305SOL    HW277749   9.784  11.328   2.660
25306SOL     OW77750   8.708  12.500  10.996
25306SOL    HW177751   8.728  12.593  11.008
25306SOL    HW277752   8.763  12.473  10.922
25307SOL     OW77753   9.076  11.500   3.032
25307SOL    HW177754   9.004  11.499   2.969
25307SOL    HW277755   9.070  11.586   3.074
25308SOL     OW77756   6.946   7.004  14.203
25308SOL    HW177757   6.902   6.940  14.259
25308SOL    HW277758   6.921   6.979  14.114
25309SOL     OW77759   5.049   6.187   4.741
25309SOL    HW177760   4.990   6.210   4.813
25309SOL    HW277761   5.137   6.200   4.777
25310SOL     OW77762   8.924   0.198   4.210
25310SOL    HW177763   8.937   0.264   4.141
25310SOL    HW277764   8.876   0.127   4.167
25311SOL     OW77765   0.634   3.073   3.391
25311SOL    HW177766   0.713   3.112   3.355
25311SOL    HW277767   0.654   3.061   3.484
25312SOL     OW77768   9.069  12.293  10.143
25312SOL    HW177769   9.064  12.381  10.106
25312SOL    HW277770   9.162  12.269  10.135
25313SOL     OW77771  13.283   1.659   3.012
25313SOL    HW177772  13.334   1.683   3.089
25313SOL    HW277773  13.225   1.734   2.997
25314SOL     OW77774   2.569   8.948  10.748
25314SOL    HW177775   2.569   9.042  10.727
25314SOL    HW277776   2.493   8.936  10.805
25315SOL     OW77777   4.152  13.468  10.536
25315SOL    HW177778   4.122  13.520  10.462
25315SOL    HW277779   4.247  13.472  10.531
25316SOL     OW77780  11.772  10.783   1.796
25316SOL    HW177781  11.790  10.870   1.759
25316SOL    HW277782  11.677  10.782   1.808
25317SOL     OW77783   8.202   4.763  11.228
25317SOL    HW177784   8.259   4.707  11.175
25317SOL    HW277785   8.262   4.806  11.289
25318SOL     OW77786   8.788  12.554  12.858
25318SOL    HW177787   8.752  12.502  12.786
25318SOL    HW277788   8.731  12.534  12.933
25319SOL     OW77789   3.540   0.139   6.777
25319SOL    HW177790   3.450   0.116   6.800
25319SOL    HW277791   3.575   0.179   6.857
25320SOL     OW77792  10.416   7.075   1.419
25320SOL    HW177793  10.490   7.088   1.479
25320SOL    HW277794  10.403   6.980   1.416
25321SOL     OW77795   1.503  11.409   6.879
25321SOL    HW177796   1.589  11.375   6.903
25321SOL    HW277797   1.479  11.465   6.953
25322SOL     OW77798  14.156   8.864   6.648
25322SOL    HW177799  14.122   8.783   6.686
25322SOL    HW277800  14.250   8.863   6.670
25323SOL     OW77801   3.794   0.044   6.112
25323SOL    HW177802   3.870  14.865   6.108
25323SOL    HW277803   3.824   0.125   6.070
25324SOL     OW77804  10.044   4.361  14.705
25324SOL    HW177805  10.009   4.388  14.789
25324SOL    HW277806  10.065   4.268  14.716
25325SOL     OW77807  14.175  11.081  13.863
25325SOL    HW177808  14.111  11.064  13.932
25325SOL    HW277809  14.165  11.007  13.803
25326SOL     OW77810  12.009   3.495   5.875
25326SOL    HW177811  12.023   3.529   5.787
25326SOL    HW277812  11.918   3.516   5.895
25327SOL     OW77813   9.574  13.097  11.306
25327SOL    HW177814   9.663  13.065  11.292
25327SOL    HW277815   9.556  13.075  11.398
25328SOL     OW77816  12.696  13.444   2.318
25328SOL    HW177817  12.689  13.349   2.327
25328SOL    HW277818  12.676  13.478   2.405
25329SOL     OW77819   4.451  10.695   2.138
25329SOL    HW177820   4.468  10.608   2.173
25329SOL    HW277821   4.534  10.741   2.145
25330SOL     OW77822  13.422  13.554   2.414
25330SOL    HW177823  13.458  13.613   2.480
25330SOL    HW277824  13.497  13.502   2.385
25331SOL     OW77825   6.467  11.073  12.702
25331SOL    HW177826   6.514  10.995  12.730
25331SOL    HW277827   6.421  11.045  12.622
25332SOL     OW77828   9.379   4.783  11.920
25332SOL    HW177829   9.306   4.817  11.972
25332SOL    HW277830   9.401   4.699  11.961
25333SOL     OW77831   6.714  13.332  13.174
25333SOL    HW177832   6.683  13.408  13.224
25333SOL    HW277833   6.701  13.357  13.083
25334SOL     OW77834   3.341   8.635   8.448
25334SOL    HW177835   3.380   8.715   8.486
25334SOL    HW277836   3.264   8.619   8.502
25335SOL     OW77837   5.537   3.275   1.185
25335SOL    HW177838   5.599   3.326   1.132
25335SOL    HW277839   5.589   3.202   1.217
25336SOL     OW77840   0.516  11.440   7.600
25336SOL    HW177841   0.450  11.375   7.577
25336SOL    HW277842   0.552  11.468   7.515
25337SOL     OW77843  11.130  11.256  14.004
25337SOL    HW177844  11.222  11.270  13.984
25337SOL    HW277845  11.102  11.189  13.941
25338SOL     OW77846   1.179   4.240   0.229
25338SOL    HW177847   1.096   4.285   0.210
25338SOL    HW277848   1.153   4.167   0.285
25339SOL     OW77849   1.253   5.751  10.158
25339SOL    HW177850   1.286   5.688  10.094
25339SOL    HW277851   1.176   5.708  10.195
25340SOL     OW77852   0.554   5.908  10.294
25340SOL    HW177853   0.558   5.993  10.251
25340SOL    HW277854   0.645   5.885  10.312
25341SOL     OW77855  11.418   6.603   3.091
25341SOL    HW177856  11.347   6.544   3.064
25341SOL    HW277857  11.377   6.665   3.151
25342SOL     OW77858  10.375   3.812  12.049
25342SOL    HW177859  10.329   3.757  11.984
25342SOL    HW277860  10.311   3.877  12.075
25343SOL     OW77861   4.967  10.950  10.556
25343SOL    HW177862   5.009  10.904  10.484
25343SOL    HW277863   4.930  11.029  10.516
25344SOL     OW77864   5.191   5.727   0.326
25344SOL    HW177865   5.112   5.781   0.328
25344SOL    HW277866   5.175   5.665   0.254
25345SOL     OW77867   7.535  14.297  11.214
25345SOL    HW177868   7.453  14.332  11.179
25345SOL    HW277869   7.593  14.373  11.219
25346SOL     OW77870   8.160  10.605   5.987
25346SOL    HW177871   8.229  10.669   6.006
25346SOL    HW277872   8.079  10.656   5.988
25347SOL     OW77873  13.466   8.240   2.782
25347SOL    HW177874  13.516   8.224   2.862
25347SOL    HW277875  13.418   8.321   2.799
25348SOL     OW77876   0.377   9.721   9.589
25348SOL    HW177877   0.299   9.747   9.540
25348SOL    HW277878   0.365   9.759   9.676
25349SOL     OW77879   5.334   1.167   7.804
25349SOL    HW177880   5.254   1.143   7.850
25349SOL    HW277881   5.383   1.085   7.797
25350SOL     OW77882   6.565   5.487  12.369
25350SOL    HW177883   6.618   5.436  12.430
25350SOL    HW277884   6.507   5.423  12.328
25351SOL     OW77885  13.913  11.587   9.101
25351SOL    HW177886  13.989  11.533   9.078
25351SOL    HW277887  13.868  11.603   9.017
25352SOL     OW77888  12.468   9.159   2.605
25352SOL    HW177889  12.405   9.108   2.554
25352SOL    HW277890  12.536   9.097   2.628
25353SOL     OW77891   3.001   3.261  11.200
25353SOL    HW177892   2.940   3.327  11.232
25353SOL    HW277893   3.009   3.199  11.272
25354SOL     OW77894   3.144   2.059   1.272
25354SOL    HW177895   3.065   2.024   1.232
25354SOL    HW277896   3.180   2.119   1.207
25355SOL     OW77897  10.552   7.651   5.943
25355SOL    HW177898  10.537   7.726   6.000
25355SOL    HW277899  10.469   7.603   5.945
25356SOL     OW77900  12.817   5.375  14.512
25356SOL    HW177901  12.887   5.311  14.495
25356SOL    HW277902  12.765   5.334  14.581
25357SOL     OW77903  14.043  10.075   9.638
25357SOL    HW177904  13.961  10.039   9.605
25357SOL    HW277905  14.017  10.138   9.706
25358SOL     OW77906  12.298   9.860  12.727
25358SOL    HW177907  12.255   9.783  12.689
25358SOL    HW277908  12.325   9.832  12.814
25359SOL     OW77909   1.155  10.246  11.493
25359SOL    HW177910   1.216  10.177  11.468
25359SOL    HW277911   1.204  10.327  11.481
25360SOL     OW77912   2.327  13.601   6.112
25360SOL    HW177913   2.322  13.686   6.156
25360SOL    HW277914   2.248  13.555   6.139
25361SOL     OW77915   6.919   0.742  11.586
25361SOL    HW177916   6.964   0.790  11.656
25361SOL    HW277917   6.886   0.663  11.629
25362SOL     OW77918  10.304  12.804   4.519
25362SOL    HW177919  10.385  12.763   4.549
25362SOL    HW277920  10.294  12.775   4.428
25363SOL     OW77921   3.386   3.992  12.923
25363SOL    HW177922   3.381   4.049  12.847
25363SOL    HW277923   3.395   4.052  12.997
25364SOL     OW77924   8.913   6.204   8.746
25364SOL    HW177925   8.912   6.109   8.731
25364SOL    HW277926   8.855   6.239   8.678
25365SOL     OW77927   7.234  11.231   7.342
25365SOL    HW177928   7.196  11.309   7.302
25365SOL    HW277929   7.160  11.185   7.380
25366SOL     OW77930   8.220   3.944  14.173
25366SOL    HW177931   8.202   3.945  14.080
25366SOL    HW277932   8.302   3.992  14.182
25367SOL     OW77933   2.805   6.163  11.640
25367SOL    HW177934   2.801   6.204  11.726
25367SOL    HW277935   2.726   6.196  11.595
25368SOL     OW77936   5.593   6.534  13.401
25368SOL    HW177937   5.607   6.541  13.307
25368SOL    HW277938   5.640   6.610  13.437
25369SOL     OW77939   7.929   9.053  12.635
25369SOL    HW177940   7.905   9.128  12.581
25369SOL    HW277941   8.011   9.078  12.676
25370SOL     OW77942  13.408  10.387   4.632
25370SOL    HW177943  13.488  10.438   4.628
25370SOL    HW277944  13.415  10.336   4.713
25371SOL     OW77945   5.780  12.652  13.526
25371SOL    HW177946   5.802  12.737  13.488
25371SOL    HW277947   5.831  12.590  13.474
25372SOL     OW77948  11.625   7.234   6.359
25372SOL    HW177949  11.675   7.212   6.280
25372SOL    HW277950  11.547   7.279   6.327
25373SOL     OW77951  10.004   0.186   7.985
25373SOL    HW177952  10.057   0.227   8.054
25373SOL    HW277953   9.941   0.254   7.960
25374SOL     OW77954  10.760  11.011   0.496
25374SOL    HW177955  10.835  10.997   0.554
25374SOL    HW277956  10.729  10.923   0.476
25375SOL     OW77957   7.033   8.394   4.686
25375SOL    HW177958   7.020   8.423   4.777
25375SOL    HW277959   6.954   8.423   4.640
25376SOL     OW77960   9.708   1.748  11.853
25376SOL    HW177961   9.780   1.799  11.891
25376SOL    HW277962   9.752   1.679  11.804
25377SOL     OW77963   8.007   2.270  12.850
25377SOL    HW177964   7.964   2.355  12.848
25377SOL    HW277965   8.096   2.286  12.820
25378SOL     OW77966   4.810  12.423   8.145
25378SOL    HW177967   4.796  12.518   8.136
25378SOL    HW277968   4.765  12.386   8.069
25379SOL     OW77969  11.678  11.415  14.289
25379SOL    HW177970  11.703  11.484  14.227
25379SOL    HW277971  11.758  11.399  14.340
25380SOL     OW77972   9.724   7.325   4.650
25380SOL    HW177973   9.666   7.253   4.677
25380SOL    HW277974   9.782   7.286   4.584
25381SOL     OW77975   5.178   5.773  14.549
25381SOL    HW177976   5.244   5.821  14.600
25381SOL    HW277977   5.133   5.841  14.498
25382SOL     OW77978   7.837   3.479  13.895
25382SOL    HW177979   7.769   3.545  13.885
25382SOL    HW277980   7.885   3.482  13.812
25383SOL     OW77981  14.553  14.855  10.191
25383SOL    HW177982  14.565  14.768  10.154
25383SOL    HW277983  14.545  14.840  10.286
25384SOL     OW77984   7.696   5.750  14.526
25384SOL    HW177985   7.741   5.809  14.466
25384SOL    HW277986   7.765   5.693  14.561
25385SOL     OW77987   3.324   3.077   0.531
25385SOL    HW177988   3.343   3.045   0.619
25385SOL    HW277989   3.244   3.128   0.540
25386SOL     OW77990   2.643  10.787   3.880
25386SOL    HW177991   2.738  10.790   3.876
25386SOL    HW277992   2.620  10.702   3.841
25387SOL     OW77993   1.460   5.694   5.986
25387SOL    HW177994   1.476   5.649   5.904
25387SOL    HW277995   1.366   5.715   5.984
25388SOL     OW77996   4.327  10.622   6.169
25388SOL    HW177997   4.237  10.604   6.195
25388SOL    HW277998   4.375  10.543   6.190
25389SOL     OW77999  12.565   9.497   3.989
25389SOL    HW178000  12.593   9.413   4.025
25389SOL    HW278001  12.482   9.516   4.033
25390SOL     OW78002   1.235   1.953  14.640
25390SOL    HW178003   1.267   1.921  14.725
25390SOL    HW278004   1.160   1.896  14.621
25391SOL     OW78005   4.244   2.835  13.493
25391SOL    HW178006   4.280   2.849  13.405
25391SOL    HW278007   4.169   2.894  13.498
25392SOL     OW78008  11.543  11.123   7.817
25392SOL    HW178009  11.611  11.143   7.882
25392SOL    HW278010  11.589  11.126   7.733
25393SOL     OW78011   4.414   0.928  13.110
25393SOL    HW178012   4.441   0.864  13.175
25393SOL    HW278013   4.409   0.878  13.028
25394SOL     OW78014   8.876  14.100   9.968
25394SOL    HW178015   8.782  14.119   9.962
25394SOL    HW278016   8.887  14.062  10.055
25395SOL     OW78017  11.769  12.984   5.727
25395SOL    HW178018  11.688  12.994   5.776
25395SOL    HW278019  11.829  13.048   5.766
25396SOL     OW78020   7.402   3.644  13.367
25396SOL    HW178021   7.426   3.735  13.384
25396SOL    HW278022   7.461   3.616  13.297
25397SOL     OW78023   7.782  14.033  13.552
25397SOL    HW178024   7.852  14.017  13.616
25397SOL    HW278025   7.733  13.950  13.550
25398SOL     OW78026   5.525   4.390  13.532
25398SOL    HW178027   5.508   4.407  13.440
25398SOL    HW278028   5.451   4.429  13.578
25399SOL     OW78029   2.601   2.135   5.038
25399SOL    HW178030   2.649   2.062   5.075
25399SOL    HW278031   2.527   2.148   5.097
25400SOL     OW78032   9.681   7.870   8.852
25400SOL    HW178033   9.709   7.822   8.774
25400SOL    HW278034   9.644   7.803   8.909
25401SOL     OW78035  13.644   8.048   8.296
25401SOL    HW178036  13.616   8.113   8.360
25401SOL    HW278037  13.736   8.032   8.318
25402SOL     OW78038   7.844   5.547  14.665
25402SOL    HW178039   7.778   5.477  14.668
25402SOL    HW278040   7.928   5.501  14.665
25403SOL     OW78041  10.699  10.096   1.060
25403SOL    HW178042  10.641  10.025   1.033
25403SOL    HW278043  10.669  10.120   1.147
25404SOL     OW78044   2.706   5.009  13.384
25404SOL    HW178045   2.666   5.067  13.449
25404SOL    HW278046   2.780   4.969  13.429
25405SOL     OW78047   6.787  11.680   4.509
25405SOL    HW178048   6.875  11.644   4.496
25405SOL    HW278049   6.748  11.679   4.422
25406SOL     OW78050   2.516  14.140  14.396
25406SOL    HW178051   2.420  14.140  14.396
25406SOL    HW278052   2.540  14.193  14.320
25407SOL     OW78053  10.410   5.521   2.521
25407SOL    HW178054  10.325   5.507   2.562
25407SOL    HW278055  10.465   5.556   2.591
25408SOL     OW78056   0.467  13.461   7.972
25408SOL    HW178057   0.461  13.498   7.884
25408SOL    HW278058   0.421  13.524   8.028
25409SOL     OW78059   3.141   7.399   3.694
25409SOL    HW178060   3.173   7.416   3.782
25409SOL    HW278061   3.053   7.437   3.692
25410SOL     OW78062  11.842   2.405  10.962
25410SOL    HW178063  11.762   2.354  10.975
25410SOL    HW278064  11.897   2.349  10.907
25411SOL     OW78065  12.229   5.422   4.602
25411SOL    HW178066  12.257   5.455   4.517
25411SOL    HW278067  12.227   5.327   4.590
25412SOL     OW78068   8.646   8.753   9.646
25412SOL    HW178069   8.553   8.742   9.626
25412SOL    HW278070   8.648   8.769   9.741
25413SOL     OW78071   9.768   1.858   2.871
25413SOL    HW178072   9.718   1.779   2.888
25413SOL    HW278073   9.791   1.891   2.957
25414SOL     OW78074  11.181  14.444  10.177
25414SOL    HW178075  11.230  14.421  10.256
25414SOL    HW278076  11.244  14.487  10.120
25415SOL     OW78077   0.162   4.476   0.314
25415SOL    HW178078   0.170   4.383   0.336
25415SOL    HW278079   0.121   4.475   0.227
25416SOL     OW78080   8.488   9.021  12.140
25416SOL    HW178081   8.551   9.091  12.156
25416SOL    HW278082   8.519   8.949  12.195
25417SOL     OW78083   8.838   5.987  11.040
25417SOL    HW178084   8.794   6.024  10.963
25417SOL    HW278085   8.834   6.056  11.106
25418SOL     OW78086   6.466   1.346  10.004
25418SOL    HW178087   6.401   1.364  10.071
25418SOL    HW278088   6.473   1.250  10.003
25419SOL     OW78089   0.037   3.606  13.565
25419SOL    HW178090  14.821   3.609  13.575
25419SOL    HW278091   0.062   3.522  13.603
25420SOL     OW78092  11.957   8.230   2.973
25420SOL    HW178093  12.006   8.250   2.893
25420SOL    HW278094  11.899   8.305   2.986
25421SOL     OW78095   9.034   1.306   8.830
25421SOL    HW178096   9.036   1.357   8.910
25421SOL    HW278097   9.103   1.344   8.775
25422SOL     OW78098   7.057  10.306  14.760
25422SOL    HW178099   7.044  10.370  14.830
25422SOL    HW278100   7.148  10.278  14.769
25423SOL     OW78101   2.760   0.024  11.815
25423SOL    HW178102   2.736   0.115  11.802
25423SOL    HW278103   2.809  14.879  11.737
25424SOL     OW78104   3.337   4.624   7.493
25424SOL    HW178105   3.311   4.681   7.420
25424SOL    HW278106   3.372   4.546   7.451
25425SOL     OW78107   3.746   1.377   0.872
25425SOL    HW178108   3.718   1.353   0.784
25425SOL    HW278109   3.841   1.388   0.864
25426SOL     OW78110   1.131  14.106  12.951
25426SOL    HW178111   1.215  14.132  12.990
25426SOL    HW278112   1.134  14.011  12.947
25427SOL     OW78113  11.199  11.960  11.268
25427SOL    HW178114  11.191  11.865  11.263
25427SOL    HW278115  11.123  11.988  11.319
25428SOL     OW78116   4.306   1.887   8.115
25428SOL    HW178117   4.255   1.946   8.170
25428SOL    HW278118   4.246   1.816   8.093
25429SOL     OW78119   4.304  13.430   3.805
25429SOL    HW178120   4.252  13.441   3.725
25429SOL    HW278121   4.277  13.344   3.839
25430SOL     OW78122  14.584  14.821   8.112
25430SOL    HW178123  14.545  14.821   8.025
25430SOL    HW278124  14.631  14.737   8.117
25431SOL     OW78125   7.367   8.653   0.761
25431SOL    HW178126   7.439   8.591   0.753
25431SOL    HW278127   7.398   8.732   0.717
25432SOL     OW78128   4.188   0.904  14.134
25432SOL    HW178129   4.193   0.882  14.227
25432SOL    HW278130   4.132   0.981  14.131
25433SOL     OW78131   9.732   0.606   5.758
25433SOL    HW178132   9.654   0.559   5.726
25433SOL    HW278133   9.725   0.693   5.719
25434SOL     OW78134   8.581   3.891   2.583
25434SOL    HW178135   8.580   3.796   2.574
25434SOL    HW278136   8.649   3.921   2.524
25435SOL     OW78137   2.097  11.780   4.179
25435SOL    HW178138   2.040  11.716   4.137
25435SOL    HW278139   2.142  11.824   4.107
25436SOL     OW78140  12.839   3.278   5.495
25436SOL    HW178141  12.894   3.206   5.464
25436SOL    HW278142  12.899   3.353   5.499
25437SOL     OW78143  10.710   6.455  13.665
25437SOL    HW178144  10.798   6.492  13.669
25437SOL    HW278145  10.722   6.369  13.626
25438SOL     OW78146   0.799   1.252   1.043
25438SOL    HW178147   0.775   1.186   1.108
25438SOL    HW278148   0.838   1.202   0.971
25439SOL     OW78149   3.962  14.448   6.276
25439SOL    HW178150   3.891  14.399   6.318
25439SOL    HW278151   3.973  14.406   6.191
25440SOL     OW78152  13.493   7.588   7.991
25440SOL    HW178153  13.523   7.630   8.072
25440SOL    HW278154  13.531   7.500   7.995
25441SOL     OW78155   5.927   5.810   3.489
25441SOL    HW178156   5.968   5.861   3.419
25441SOL    HW278157   5.865   5.870   3.530
25442SOL     OW78158   2.263  13.480  13.187
25442SOL    HW178159   2.288  13.572  13.189
25442SOL    HW278160   2.304  13.442  13.264
25443SOL     OW78161  10.211   2.376   7.907
25443SOL    HW178162  10.163   2.439   7.961
25443SOL    HW278163  10.233   2.305   7.967
25444SOL     OW78164  10.043   1.626   2.150
25444SOL    HW178165   9.970   1.654   2.094
25444SOL    HW278166  10.000   1.591   2.228
25445SOL     OW78167   7.476   1.968   1.732
25445SOL    HW178168   7.543   1.923   1.681
25445SOL    HW278169   7.433   1.899   1.783
25446SOL     OW78170   4.372   1.656  11.239
25446SOL    HW178171   4.400   1.623  11.324
25446SOL    HW278172   4.403   1.747  11.237
25447SOL     OW78173   5.576   8.385   1.170
25447SOL    HW178174   5.545   8.303   1.209
25447SOL    HW278175   5.504   8.413   1.113
25448SOL     OW78176   0.287   5.968   5.063
25448SOL    HW178177   0.325   5.910   5.129
25448SOL    HW278178   0.219   5.916   5.021
25449SOL     OW78179   3.864  10.909   4.389
25449SOL    HW178180   3.781  10.948   4.415
25449SOL    HW278181   3.842  10.850   4.317
25450SOL     OW78182   5.560   3.823  13.161
25450SOL    HW178183   5.511   3.759  13.213
25450SOL    HW278184   5.652   3.804  13.179
25451SOL     OW78185   7.289  10.187   9.504
25451SOL    HW178186   7.317  10.130   9.576
25451SOL    HW278187   7.242  10.258   9.547
25452SOL     OW78188  11.705  10.219   7.334
25452SOL    HW178189  11.613  10.240   7.319
25452SOL    HW278190  11.754  10.289   7.292
25453SOL     OW78191   6.210   8.464   2.844
25453SOL    HW178192   6.303   8.463   2.866
25453SOL    HW278193   6.166   8.485   2.926
25454SOL     OW78194   4.036   7.339   0.398
25454SOL    HW178195   3.977   7.279   0.443
25454SOL    HW278196   3.985   7.373   0.325
25455SOL     OW78197   1.532   2.039   2.822
25455SOL    HW178198   1.562   1.948   2.823
25455SOL    HW278199   1.525   2.063   2.915
25456SOL     OW78200   6.211  13.914   0.332
25456SOL    HW178201   6.157  13.835   0.320
25456SOL    HW278202   6.183  13.949   0.417
25457SOL     OW78203   0.928   9.061  14.832
25457SOL    HW178204   0.849   9.113  14.850
25457SOL    HW278205   0.961   9.096  14.749
25458SOL     OW78206  10.598   9.041  10.679
25458SOL    HW178207  10.608   9.090  10.761
25458SOL    HW278208  10.683   9.047  10.636
25459SOL     OW78209   8.091   9.554   1.776
25459SOL    HW178210   8.174   9.560   1.727
25459SOL    HW278211   8.025   9.537   1.709
25460SOL     OW78212   0.823   5.769  13.786
25460SOL    HW178213   0.906   5.813  13.770
25460SOL    HW278214   0.761   5.841  13.801
25461SOL     OW78215   3.453  10.632   6.866
25461SOL    HW178216   3.499  10.715   6.857
25461SOL    HW278217   3.522  10.566   6.866
25462SOL     OW78218   7.293   7.489   0.595
25462SOL    HW178219   7.342   7.455   0.670
25462SOL    HW278220   7.326   7.439   0.520
25463SOL     OW78221  13.905   2.920   4.223
25463SOL    HW178222  13.973   2.896   4.160
25463SOL    HW278223  13.851   2.841   4.231
25464SOL     OW78224  13.592   2.769   6.834
25464SOL    HW178225  13.573   2.722   6.753
25464SOL    HW278226  13.581   2.703   6.903
25465SOL     OW78227   6.782   6.522   1.123
25465SOL    HW178228   6.721   6.513   1.196
25465SOL    HW278229   6.835   6.442   1.126
25466SOL     OW78230  10.110   9.275   3.142
25466SOL    HW178231  10.153   9.232   3.068
25466SOL    HW278232  10.017   9.274   3.120
25467SOL     OW78233  11.565   6.036   2.310
25467SOL    HW178234  11.494   6.044   2.246
25467SOL    HW278235  11.607   5.953   2.289
25468SOL     OW78236  10.739   7.933   5.165
25468SOL    HW178237  10.672   7.955   5.230
25468SOL    HW278238  10.784   7.857   5.201
25469SOL     OW78239   5.124  12.579  12.041
25469SOL    HW178240   5.125  12.672  12.064
25469SOL    HW278241   5.194  12.569  11.976
25470SOL     OW78242   4.786   7.741  10.760
25470SOL    HW178243   4.813   7.762  10.850
25470SOL    HW278244   4.725   7.668  10.769
25471SOL     OW78245  13.393   2.537   2.041
25471SOL    HW178246  13.390   2.519   2.135
25471SOL    HW278247  13.323   2.601   2.027
25472SOL     OW78248   6.443   5.709   4.166
25472SOL    HW178249   6.533   5.678   4.166
25472SOL    HW278250   6.409   5.686   4.079
25473SOL     OW78251  14.743   1.788   4.153
25473SOL    HW178252  14.689   1.795   4.075
25473SOL    HW278253  14.705   1.715   4.202
25474SOL     OW78254   5.047   1.886  12.538
25474SOL    HW178255   5.053   1.792  12.555
25474SOL    HW278256   5.114   1.925  12.595
25475SOL     OW78257  14.422   0.356   4.966
25475SOL    HW178258  14.437   0.319   4.879
25475SOL    HW278259  14.509   0.361   5.005
25476SOL     OW78260  13.902   4.324  12.251
25476SOL    HW178261  13.821   4.366  12.221
25476SOL    HW278262  13.891   4.232  12.230
25477SOL     OW78263   9.053  11.971   0.723
25477SOL    HW178264   9.085  12.020   0.648
25477SOL    HW278265   9.115  11.991   0.793
25478SOL     OW78266   9.450   6.956   1.595
25478SOL    HW178267   9.485   6.974   1.507
25478SOL    HW278268   9.390   7.028   1.611
25479SOL     OW78269  14.522  11.780  14.356
25479SOL    HW178270  14.610  11.744  14.354
25479SOL    HW278271  14.531  11.869  14.322
25480SOL     OW78272  14.546  12.501   2.120
25480SOL    HW178273  14.586  12.425   2.162
25480SOL    HW278274  14.457  12.502   2.154
25481SOL     OW78275   7.800   8.138  13.654
25481SOL    HW178276   7.860   8.212  13.665
25481SOL    HW278277   7.725   8.174  13.607
25482SOL     OW78278  14.385   2.306   6.443
25482SOL    HW178279  14.373   2.400   6.424
25482SOL    HW278280  14.480   2.296   6.452
25483SOL     OW78281  11.314   5.068  11.377
25483SOL    HW178282  11.266   5.020  11.310
25483SOL    HW278283  11.274   5.040  11.459
25484SOL     OW78284   2.343   4.849  13.210
25484SOL    HW178285   2.351   4.921  13.147
25484SOL    HW278286   2.359   4.889  13.295
25485SOL     OW78287   9.122  12.838  13.516
25485SOL    HW178288   9.162  12.771  13.571
25485SOL    HW278289   9.078  12.897  13.578
25486SOL     OW78290   4.335  14.676   4.660
25486SOL    HW178291   4.389  14.625   4.720
25486SOL    HW278292   4.343  14.631   4.576
25487SOL     OW78293   0.537   6.258   1.514
25487SOL    HW178294   0.628   6.239   1.538
25487SOL    HW278295   0.520   6.345   1.549
25488SOL     OW78296   9.678   0.000  11.540
25488SOL    HW178297   9.756  14.834  11.510
25488SOL    HW278298   9.610  14.853  11.478
25489SOL     OW78299   1.715  12.315   6.705
25489SOL    HW178300   1.624  12.327   6.677
25489SOL    HW278301   1.710  12.249   6.774
25490SOL     OW78302  11.959   8.640   5.999
25490SOL    HW178303  11.961   8.721   6.051
25490SOL    HW278304  11.999   8.575   6.056
25491SOL     OW78305   0.282   3.451   7.027
25491SOL    HW178306   0.299   3.538   6.990
25491SOL    HW278307   0.327   3.391   6.968
25492SOL     OW78308  11.554   5.849   9.640
25492SOL    HW178309  11.638   5.839   9.685
25492SOL    HW278310  11.564   5.798   9.560
25493SOL     OW78311   2.005   1.879   1.281
25493SOL    HW178312   1.958   1.861   1.362
25493SOL    HW278313   2.056   1.800   1.264
25494SOL     OW78314   6.708   8.339   5.464
25494SOL    HW178315   6.690   8.432   5.454
25494SOL    HW278316   6.669   8.316   5.549
25495SOL     OW78317  11.677  11.834   3.342
25495SOL    HW178318  11.758  11.787   3.363
25495SOL    HW278319  11.611  11.766   3.335
25496SOL     OW78320   0.346  10.222   4.888
25496SOL    HW178321   0.330  10.131   4.864
25496SOL    HW278322   0.373  10.219   4.979
25497SOL     OW78323   0.554  12.334  10.837
25497SOL    HW178324   0.500  12.332  10.916
25497SOL    HW278325   0.583  12.244  10.825
25498SOL     OW78326   6.748   6.514  10.186
25498SOL    HW178327   6.776   6.425  10.165
25498SOL    HW278328   6.792   6.535  10.268
25499SOL     OW78329   3.197   2.176   4.031
25499SOL    HW178330   3.221   2.089   4.000
25499SOL    HW278331   3.225   2.235   3.960
25500SOL     OW78332   3.375   3.081   7.724
25500SOL    HW178333   3.300   3.111   7.674
25500SOL    HW278334   3.451   3.110   7.674
25501SOL     OW78335   8.147   0.090   9.254
25501SOL    HW178336   8.153   0.184   9.269
25501SOL    HW278337   8.139   0.052   9.341
25502SOL     OW78338  14.183   1.804  13.564
25502SOL    HW178339  14.235   1.731  13.529
25502SOL    HW278340  14.244   1.878  13.563
25503SOL     OW78341   5.491   9.619  14.117
25503SOL    HW178342   5.538   9.683  14.170
25503SOL    HW278343   5.556   9.551  14.100
25504SOL     OW78344   8.001   9.004  11.169
25504SOL    HW178345   8.092   9.000  11.140
25504SOL    HW278346   7.960   9.069  11.112
25505SOL     OW78347  12.062   3.283  13.374
25505SOL    HW178348  11.975   3.251  13.398
25505SOL    HW278349  12.074   3.252  13.284
25506SOL     OW78350   2.265   7.167   3.991
25506SOL    HW178351   2.345   7.120   3.969
25506SOL    HW278352   2.248   7.144   4.082
25507SOL     OW78353   9.785   7.226   2.827
25507SOL    HW178354   9.786   7.286   2.901
25507SOL    HW278355   9.715   7.164   2.847
25508SOL     OW78356  14.097   6.678   8.465
25508SOL    HW178357  14.167   6.641   8.412
25508SOL    HW278358  14.142   6.727   8.534
25509SOL     OW78359   6.615   1.419   1.627
25509SOL    HW178360   6.525   1.417   1.659
25509SOL    HW278361   6.664   1.363   1.688
25510SOL     OW78362   5.573  10.074   8.911
25510SOL    HW178363   5.560  10.045   8.821
25510SOL    HW278364   5.544  10.165   8.912
25511SOL     OW78365  11.557   0.954   8.479
25511SOL    HW178366  11.585   0.885   8.418
25511SOL    HW278367  11.631   0.964   8.538
25512SOL     OW78368   9.025  13.887  10.930
25512SOL    HW178369   9.119  13.897  10.943
25512SOL    HW278370   9.011  13.906  10.837
25513SOL     OW78371   7.428   9.490  12.879
25513SOL    HW178372   7.334   9.509  12.878
25513SOL    HW278373   7.456   9.509  12.968
25514SOL     OW78374   6.501   5.019   8.682
25514SOL    HW178375   6.410   5.007   8.653
25514SOL    HW278376   6.495   5.090   8.746
25515SOL     OW78377  11.054  13.851  11.330
25515SOL    HW178378  10.988  13.806  11.277
25515SOL    HW278379  11.090  13.919  11.272
25516SOL     OW78380   7.201   7.287  13.925
25516SOL    HW178381   7.178   7.273  14.017
25516SOL    HW278382   7.296   7.283  13.923
25517SOL     OW78383   4.815   9.527  13.873
25517SOL    HW178384   4.749   9.551  13.938
25517SOL    HW278385   4.899   9.543  13.916
25518SOL     OW78386  10.758  12.385   5.760
25518SOL    HW178387  10.789  12.413   5.845
25518SOL    HW278388  10.666  12.411   5.758
25519SOL     OW78389  10.535  10.653  11.226
25519SOL    HW178390  10.479  10.656  11.149
25519SOL    HW278391  10.477  10.671  11.300
25520SOL     OW78392   1.372  12.756  10.037
25520SOL    HW178393   1.395  12.700   9.963
25520SOL    HW278394   1.293  12.716  10.074
25521SOL     OW78395  14.733   6.369   4.820
25521SOL    HW178396  14.713   6.317   4.742
25521SOL    HW278397  14.664   6.435   4.823
25522SOL     OW78398  13.143  10.888  14.138
25522SOL    HW178399  13.184  10.854  14.059
25522SOL    HW278400  13.057  10.919  14.109
25523SOL     OW78401   2.257   8.028   4.098
25523SOL    HW178402   2.300   8.113   4.093
25523SOL    HW278403   2.164   8.048   4.101
25524SOL     OW78404   6.836   3.281   4.781
25524SOL    HW178405   6.899   3.210   4.795
25524SOL    HW278406   6.767   3.264   4.845
25525SOL     OW78407   5.214   2.763  14.807
25525SOL    HW178408   5.199   2.678  14.847
25525SOL    HW278409   5.136   2.780  14.754
25526SOL     OW78410  11.046   2.074  10.258
25526SOL    HW178411  10.999   2.032  10.330
25526SOL    HW278412  11.120   2.118  10.300
25527SOL     OW78413   0.897  14.590  14.868
25527SOL    HW178414   0.850  14.605   0.071
25527SOL    HW278415   0.952  14.667  14.857
25528SOL     OW78416   3.620  13.877  12.505
25528SOL    HW178417   3.594  13.956  12.552
25528SOL    HW278418   3.695  13.904  12.452
25529SOL     OW78419   0.317   4.490  13.413
25529SOL    HW178420   0.251   4.472  13.346
25529SOL    HW278421   0.332   4.406  13.456
25530SOL     OW78422   3.271  12.451   9.277
25530SOL    HW178423   3.238  12.385   9.217
25530SOL    HW278424   3.249  12.535   9.236
25531SOL     OW78425  12.287   5.356   5.496
25531SOL    HW178426  12.318   5.404   5.573
25531SOL    HW278427  12.349   5.283   5.487
25532SOL     OW78428   3.486   5.423   5.886
25532SOL    HW178429   3.403   5.470   5.880
25532SOL    HW278430   3.549   5.490   5.916
25533SOL     OW78431   1.501   4.433   0.577
25533SOL    HW178432   1.588   4.408   0.608
25533SOL    HW278433   1.480   4.512   0.627
25534SOL     OW78434   2.037  11.722  10.361
25534SOL    HW178435   1.959  11.776  10.350
25534SOL    HW278436   2.003  11.637  10.389
25535SOL     OW78437   4.047   2.476   8.934
25535SOL    HW178438   3.968   2.440   8.892
25535SOL    HW278439   4.013   2.530   9.006
25536SOL     OW78440   8.579  11.479   1.995
25536SOL    HW178441   8.496  11.465   1.950
25536SOL    HW278442   8.629  11.535   1.936
25537SOL     OW78443   6.704  10.488  14.379
25537SOL    HW178444   6.757  10.502  14.457
25537SOL    HW278445   6.722  10.563  14.323
25538SOL     OW78446  11.762   3.480   5.366
25538SOL    HW178447  11.670   3.464   5.344
25538SOL    HW278448  11.804   3.395   5.354
25539SOL     OW78449   7.362   4.129   9.925
25539SOL    HW178450   7.394   4.216   9.901
25539SOL    HW278451   7.375   4.125  10.020
25540SOL     OW78452  13.993   8.150   0.473
25540SOL    HW178453  13.980   8.238   0.439
25540SOL    HW278454  13.911   8.128   0.518
25541SOL     OW78455   8.739   0.867   1.935
25541SOL    HW178456   8.679   0.797   1.911
25541SOL    HW278457   8.791   0.883   1.856
25542SOL     OW78458  14.874   7.928  10.888
25542SOL    HW178459   0.078   7.973  10.876
25542SOL    HW278460  14.870   7.863  10.817
25543SOL     OW78461   0.499   5.488   1.815
25543SOL    HW178462   0.572   5.432   1.841
25543SOL    HW278463   0.494   5.555   1.883
25544SOL     OW78464  13.484  12.589   9.849
25544SOL    HW178465  13.415  12.625   9.904
25544SOL    HW278466  13.473  12.494   9.856
25545SOL     OW78467   6.250  10.964   1.024
25545SOL    HW178468   6.243  11.032   1.091
25545SOL    HW278469   6.249  11.012   0.941
25546SOL     OW78470  10.967   2.248   2.022
25546SOL    HW178471  10.970   2.240   1.927
25546SOL    HW278472  11.058   2.240   2.050
25547SOL     OW78473   7.795   6.858  10.511
25547SOL    HW178474   7.858   6.927  10.487
25547SOL    HW278475   7.842   6.804  10.575
25548SOL     OW78476   6.334   2.834   8.937
25548SOL    HW178477   6.368   2.821   9.026
25548SOL    HW278478   6.402   2.885   8.893
25549SOL     OW78479  14.753  13.379   2.430
25549SOL    HW178480  14.726  13.436   2.359
25549SOL    HW278481  14.749  13.291   2.393
25550SOL     OW78482  14.867   5.618  12.533
25550SOL    HW178483   0.082   5.627  12.542
25550SOL    HW278484  14.837   5.592  12.620
25551SOL     OW78485   0.477   6.582   6.996
25551SOL    HW178486   0.516   6.660   6.957
25551SOL    HW278487   0.550   6.522   7.009
25552SOL     OW78488  12.093  13.109   8.478
25552SOL    HW178489  12.109  13.174   8.410
25552SOL    HW278490  12.178  13.094   8.518
25553SOL     OW78491   6.355   6.936   5.112
25553SOL    HW178492   6.316   6.963   5.195
25553SOL    HW278493   6.399   7.014   5.079
25554SOL     OW78494   8.411  10.380   8.170
25554SOL    HW178495   8.329  10.383   8.218
25554SOL    HW278496   8.460  10.308   8.211
25555SOL     OW78497  14.321  14.383   8.670
25555SOL    HW178498  14.240  14.361   8.623
25555SOL    HW278499  14.364  14.449   8.615
25556SOL     OW78500   7.580  12.381  14.754
25556SOL    HW178501   7.652  12.430  14.795
25556SOL    HW278502   7.511  12.380  14.820
25557SOL     OW78503   1.759   7.150   6.379
25557SOL    HW178504   1.839   7.194   6.406
25557SOL    HW278505   1.776   7.120   6.290
25558SOL     OW78506  14.854   8.838   1.633
25558SOL    HW178507  14.858   8.766   1.571
25558SOL    HW278508  14.850   8.917   1.578
25559SOL     OW78509   5.722  13.358   1.437
25559SOL    HW178510   5.627  13.357   1.451
25559SOL    HW278511   5.750  13.441   1.476
25560SOL     OW78512   3.675  14.303  14.838
25560SOL    HW178513   3.600  14.363  14.837
25560SOL    HW278514   3.726  14.330   0.035
25561SOL     OW78515  11.748   2.694  10.745
25561SOL    HW178516  11.672   2.648  10.782
25561SOL    HW278517  11.761   2.770  10.802
25562SOL     OW78518   9.321   1.347   8.500
25562SOL    HW178519   9.342   1.257   8.476
25562SOL    HW278520   9.358   1.401   8.429
25563SOL     OW78521   3.117   7.189  10.168
25563SOL    HW178522   3.032   7.156  10.199
25563SOL    HW278523   3.113   7.178  10.073
25564SOL     OW78524  11.429   0.036  11.011
25564SOL    HW178525  11.340   0.060  10.985
25564SOL    HW278526  11.481   0.114  10.991
25565SOL     OW78527  12.062   9.567   3.214
25565SOL    HW178528  12.103   9.638   3.263
25565SOL    HW278529  12.058   9.494   3.275
25566SOL     OW78530   8.289   5.322  10.708
25566SOL    HW178531   8.383   5.335  10.723
25566SOL    HW278532   8.265   5.251  10.767
25567SOL     OW78533   3.424   0.437   6.686
25567SOL    HW178534   3.417   0.353   6.640
25567SOL    HW278535   3.471   0.415   6.767
25568SOL     OW78536  13.946   7.759   1.715
25568SOL    HW178537  14.040   7.741   1.704
25568SOL    HW278538  13.918   7.697   1.783
25569SOL     OW78539  10.885   6.465  10.310
25569SOL    HW178540  10.838   6.383  10.294
25569SOL    HW278541  10.911   6.494  10.222
25570SOL     OW78542   1.466  11.215  14.008
25570SOL    HW178543   1.525  11.140  14.001
25570SOL    HW278544   1.398  11.187  14.069
25571SOL     OW78545   2.245   2.627   8.505
25571SOL    HW178546   2.211   2.706   8.463
25571SOL    HW278547   2.171   2.568   8.510
25572SOL     OW78548  11.447  13.775  14.538
25572SOL    HW178549  11.428  13.855  14.490
25572SOL    HW278550  11.377  13.769  14.604
25573SOL     OW78551   2.342  13.795   9.471
25573SOL    HW178552   2.321  13.888   9.473
25573SOL    HW278553   2.290  13.757   9.543
25574SOL     OW78554   1.456   2.309   3.229
25574SOL    HW178555   1.395   2.373   3.195
25574SOL    HW278556   1.510   2.357   3.292
25575SOL     OW78557   1.544   7.500   7.747
25575SOL    HW178558   1.584   7.469   7.666
25575SOL    HW278559   1.600   7.466   7.816
25576SOL     OW78560   7.821  13.927   8.122
25576SOL    HW178561   7.764  13.883   8.185
25576SOL    HW278562   7.908  13.925   8.161
25577SOL     OW78563   0.876   1.206   1.379
25577SOL    HW178564   0.934   1.190   1.454
25577SOL    HW278565   0.933   1.244   1.312
25578SOL     OW78566   5.257   9.817   1.324
25578SOL    HW178567   5.236   9.766   1.245
25578SOL    HW278568   5.174   9.858   1.348
25579SOL     OW78569   2.599   8.461   4.126
25579SOL    HW178570   2.590   8.551   4.156
25579SOL    HW278571   2.664   8.466   4.056
25580SOL     OW78572   7.163   2.434  13.217
25580SOL    HW178573   7.251   2.467  13.233
25580SOL    HW278574   7.123   2.499  13.158
25581SOL     OW78575   7.692  10.691  13.199
25581SOL    HW178576   7.661  10.748  13.269
25581SOL    HW278577   7.670  10.738  13.118
25582SOL     OW78578  12.251   6.477   0.557
25582SOL    HW178579  12.343   6.496   0.542
25582SOL    HW278580  12.205   6.522   0.487
25583SOL     OW78581  11.328  11.459  12.517
25583SOL    HW178582  11.349  11.416  12.600
25583SOL    HW278583  11.232  11.462  12.515
25584SOL     OW78584   6.119   5.686   3.097
25584SOL    HW178585   6.125   5.713   3.005
25584SOL    HW278586   6.045   5.625   3.099
25585SOL     OW78587   6.750   7.368   8.672
25585SOL    HW178588   6.705   7.448   8.643
25585SOL    HW278589   6.763   7.381   8.766
25586SOL     OW78590   1.867   2.848   7.129
25586SOL    HW178591   1.792   2.883   7.082
25586SOL    HW278592   1.876   2.759   7.097
25587SOL     OW78593   3.790   9.368   0.837
25587SOL    HW178594   3.752   9.282   0.822
25587SOL    HW278595   3.853   9.380   0.766
25588SOL     OW78596   0.780   2.163  11.751
25588SOL    HW178597   0.769   2.211  11.668
25588SOL    HW278598   0.845   2.096  11.732
25589SOL     OW78599   9.408   7.669   3.543
25589SOL    HW178600   9.439   7.704   3.459
25589SOL    HW278601   9.462   7.592   3.558
25590SOL     OW78602   4.558   6.380  12.033
25590SOL    HW178603   4.474   6.336  12.044
25590SOL    HW278604   4.558   6.449  12.099
25591SOL     OW78605   0.293   5.738   1.800
25591SOL    HW178606   0.294   5.749   1.895
25591SOL    HW278607   0.205   5.766   1.774
25592SOL     OW78608   2.606  10.788  10.728
25592SOL    HW178609   2.656  10.710  10.701
25592SOL    HW278610   2.648  10.860  10.682
25593SOL     OW78611  10.663   0.430   6.792
25593SOL    HW178612  10.606   0.468   6.724
25593SOL    HW278613  10.700   0.351   6.752
25594SOL     OW78614   3.602   5.938  12.917
25594SOL    HW178615   3.655   5.871  12.961
25594SOL    HW278616   3.662   6.011  12.904
25595SOL     OW78617   0.457  14.757   5.529
25595SOL    HW178618   0.436  14.664   5.532
25595SOL    HW278619   0.389  14.796   5.474
25596SOL     OW78620   5.279   3.258  14.070
25596SOL    HW178621   5.260   3.290  13.982
25596SOL    HW278622   5.217   3.304  14.126
25597SOL     OW78623   2.263   5.410  11.429
25597SOL    HW178624   2.246   5.501  11.454
25597SOL    HW278625   2.355   5.410  11.402
25598SOL     OW78626   1.522  14.529  13.879
25598SOL    HW178627   1.611  14.523  13.845
25598SOL    HW278628   1.521  14.609  13.931
25599SOL     OW78629  11.421   1.404  13.569
25599SOL    HW178630  11.378   1.319  13.560
25599SOL    HW278631  11.355   1.461  13.608
25600SOL     OW78632   4.567  13.515   3.469
25600SOL    HW178633   4.611  13.596   3.443
25600SOL    HW278634   4.606  13.448   3.413
25601SOL     OW78635   6.665   5.927   3.296
25601SOL    HW178636   6.698   6.010   3.263
25601SOL    HW278637   6.743   5.878   3.321
25602SOL     OW78638   4.809  14.820   9.266
25602SOL    HW178639   4.774  14.776   9.188
25602SOL    HW278640   4.867  14.755   9.306
25603SOL     OW78641   4.467   6.923   0.285
25603SOL    HW178642   4.412   6.845   0.284
25603SOL    HW278643   4.417   6.988   0.334
25604SOL     OW78644  11.744   8.902  13.026
25604SOL    HW178645  11.710   8.822  13.066
25604SOL    HW278646  11.817   8.928  13.083
25605SOL     OW78647   0.229   7.535   5.873
25605SOL    HW178648   0.198   7.525   5.963
25605SOL    HW278649   0.315   7.493   5.872
25606SOL     OW78650   9.891   9.545   4.052
25606SOL    HW178651   9.826   9.523   3.986
25606SOL    HW278652   9.967   9.575   4.002
25607SOL     OW78653   6.924  11.523  14.269
25607SOL    HW178654   6.985  11.521  14.195
25607SOL    HW278655   6.881  11.608  14.263
25608SOL     OW78656   5.324   4.016   5.132
25608SOL    HW178657   5.381   3.946   5.165
25608SOL    HW278658   5.319   4.079   5.204
25609SOL     OW78659   6.094   3.957   1.513
25609SOL    HW178660   6.178   3.937   1.555
25609SOL    HW278661   6.054   4.023   1.570
25610SOL     OW78662  14.067   2.521  12.703
25610SOL    HW178663  14.068   2.432  12.739
25610SOL    HW278664  14.049   2.508  12.610
25611SOL     OW78665   9.643   3.530   1.098
25611SOL    HW178666   9.651   3.625   1.106
25611SOL    HW278667   9.726   3.497   1.134
25612SOL     OW78668  14.715   4.601  13.726
25612SOL    HW178669  14.633   4.642  13.755
25612SOL    HW278670  14.784   4.656  13.762
25613SOL     OW78671   1.660   0.784   2.142
25613SOL    HW178672   1.698   0.740   2.067
25613SOL    HW278673   1.735   0.824   2.187
25614SOL     OW78674   3.523   9.586  10.511
25614SOL    HW178675   3.544   9.591  10.418
25614SOL    HW278676   3.608   9.590  10.555
25615SOL     OW78677  12.224   9.188  12.489
25615SOL    HW178678  12.265   9.177  12.404
25615SOL    HW278679  12.284   9.146  12.551
25616SOL     OW78680   1.473  11.490   5.581
25616SOL    HW178681   1.403  11.430   5.607
25616SOL    HW278682   1.515  11.515   5.664
25617SOL     OW78683  12.496  14.117   5.900
25617SOL    HW178684  12.579  14.120   5.947
25617SOL    HW278685  12.482  14.206   5.870
25618SOL     OW78686  13.852   7.991   2.880
25618SOL    HW178687  13.909   8.067   2.866
25618SOL    HW278688  13.782   8.023   2.937
25619SOL     OW78689   5.126  13.031   7.712
25619SOL    HW178690   5.116  12.958   7.650
25619SOL    HW278691   5.093  13.107   7.664
25620SOL     OW78692   5.929   0.092  13.349
25620SOL    HW178693   6.020   0.081  13.321
25620SOL    HW278694   5.888   0.142  13.278
25621SOL     OW78695   7.542   0.028   2.342
25621SOL    HW178696   7.532  14.867   2.255
25621SOL    HW278697   7.616  14.861   2.381
25622SOL     OW78698   4.702   9.648  10.098
25622SOL    HW178699   4.727   9.733  10.136
25622SOL    HW278700   4.785   9.604  10.082
25623SOL     OW78701   5.016   6.293   8.129
25623SOL    HW178702   4.928   6.312   8.095
25623SOL    HW278703   5.062   6.377   8.124
25624SOL     OW78704   5.157   6.825   6.829
25624SOL    HW178705   5.091   6.886   6.797
25624SOL    HW278706   5.107   6.753   6.868
25625SOL     OW78707  11.962   8.846   6.168
25625SOL    HW178708  12.025   8.917   6.155
25625SOL    HW278709  11.877   8.890   6.168
25626SOL     OW78710   5.690  12.190   5.458
25626SOL    HW178711   5.712  12.098   5.472
25626SOL    HW278712   5.622  12.209   5.522
25627SOL     OW78713   0.897   0.479  13.345
25627SOL    HW178714   0.831   0.418  13.310
25627SOL    HW278715   0.850   0.531  13.409
25628SOL     OW78716   2.027  10.351   7.735
25628SOL    HW178717   1.985  10.297   7.668
25628SOL    HW278718   2.006  10.441   7.711
25629SOL     OW78719  13.992   9.957   9.898
25629SOL    HW178720  13.965   9.997   9.980
25629SOL    HW278721  14.040  10.026   9.852
25630SOL     OW78722  12.473  12.248   7.204
25630SOL    HW178723  12.476  12.170   7.259
25630SOL    HW278724  12.489  12.216   7.116
25631SOL     OW78725  13.798   4.197   4.898
25631SOL    HW178726  13.851   4.205   4.818
25631SOL    HW278727  13.758   4.110   4.891
25632SOL     OW78728   7.491   9.353  10.801
25632SOL    HW178729   7.477   9.317  10.714
25632SOL    HW278730   7.403   9.359  10.839
25633SOL     OW78731   7.087   3.323   6.477
25633SOL    HW178732   7.139   3.260   6.427
25633SOL    HW278733   6.996   3.299   6.456
25634SOL     OW78734  13.217  10.782   5.255
25634SOL    HW178735  13.185  10.872   5.242
25634SOL    HW278736  13.312  10.791   5.258
25635SOL     OW78737  10.436   1.301  14.156
25635SOL    HW178738  10.383   1.336  14.227
25635SOL    HW278739  10.376   1.246  14.105
25636SOL     OW78740   5.589   5.558  10.801
25636SOL    HW178741   5.657   5.623  10.815
25636SOL    HW278742   5.625   5.499  10.734
25637SOL     OW78743  11.436   5.567   3.229
25637SOL    HW178744  11.462   5.525   3.147
25637SOL    HW278745  11.444   5.498   3.295
25638SOL     OW78746  14.085   4.157  14.392
25638SOL    HW178747  14.049   4.085  14.444
25638SOL    HW278748  14.091   4.230  14.454
25639SOL     OW78749   8.129   4.426  13.995
25639SOL    HW178750   8.159   4.348  13.948
25639SOL    HW278751   8.150   4.409  14.087
25640SOL     OW78752   6.840   6.480  14.647
25640SOL    HW178753   6.815   6.477  14.555
25640SOL    HW278754   6.781   6.419  14.690
25641SOL     OW78755  11.435  13.919   8.877
25641SOL    HW178756  11.373  13.993   8.873
25641SOL    HW278757  11.462  13.906   8.786
25642SOL     OW78758   9.160  11.243   3.385
25642SOL    HW178759   9.079  11.240   3.335
25642SOL    HW278760   9.189  11.334   3.378
25643SOL     OW78761  10.541   2.805   5.528
25643SOL    HW178762  10.516   2.772   5.615
25643SOL    HW278763  10.609   2.744   5.499
25644SOL     OW78764   8.999   6.184   9.025
25644SOL    HW178765   8.989   6.194   8.931
25644SOL    HW278766   9.051   6.104   9.036
25645SOL     OW78767   1.273   6.095   2.066
25645SOL    HW178768   1.218   6.032   2.111
25645SOL    HW278769   1.214   6.142   2.007
25646SOL     OW78770   0.992  14.152   1.023
25646SOL    HW178771   1.078  14.165   1.063
25646SOL    HW278772   0.931  14.151   1.097
25647SOL     OW78773   9.723   2.812   2.158
25647SOL    HW178774   9.661   2.810   2.085
25647SOL    HW278775   9.668   2.815   2.236
25648SOL     OW78776   5.063  14.858  14.669
25648SOL    HW178777   5.077   0.005  14.760
25648SOL    HW278778   5.148  14.822  14.642
25649SOL     OW78779   8.368   9.119   5.851
25649SOL    HW178780   8.347   9.100   5.943
25649SOL    HW278781   8.427   9.049   5.824
25650SOL     OW78782   3.786   9.055   5.852
25650SOL    HW178783   3.762   9.052   5.759
25650SOL    HW278784   3.788   8.963   5.879
25651SOL     OW78785  12.666   0.911   5.127
25651SOL    HW178786  12.743   0.921   5.071
25651SOL    HW278787  12.624   0.997   5.126
25652SOL     OW78788   3.711  12.180   9.487
25652SOL    HW178789   3.721  12.088   9.462
25652SOL    HW278790   3.634  12.210   9.438
25653SOL     OW78791   7.651   7.490   2.608
25653SOL    HW178792   7.581   7.426   2.615
25653SOL    HW278793   7.731   7.441   2.630
25654SOL     OW78794  12.226   5.536  10.627
25654SOL    HW178795  12.209   5.592  10.702
25654SOL    HW278796  12.186   5.452  10.649
25655SOL     OW78797   5.100   7.615  14.683
25655SOL    HW178798   5.035   7.545  14.682
25655SOL    HW278799   5.151   7.600  14.762
25656SOL     OW78800  10.103  14.622  14.369
25656SOL    HW178801  10.087  14.699  14.314
25656SOL    HW278802  10.189  14.592  14.342
25657SOL     OW78803  13.102  12.852  12.416
25657SOL    HW178804  13.122  12.943  12.394
25657SOL    HW278805  13.058  12.818  12.338
25658SOL     OW78806   0.929   4.011  11.454
25658SOL    HW178807   0.983   4.086  11.429
25658SOL    HW278808   0.989   3.951  11.497
25659SOL     OW78809  12.274   6.930   7.791
25659SOL    HW178810  12.232   6.848   7.765
25659SOL    HW278811  12.339   6.904   7.856
25660SOL     OW78812   4.637  14.408  13.465
25660SOL    HW178813   4.698  14.479  13.488
25660SOL    HW278814   4.677  14.330  13.502
25661SOL     OW78815   9.217  12.010   9.964
25661SOL    HW178816   9.252  12.025  10.052
25661SOL    HW278817   9.285  12.044   9.906
25662SOL     OW78818   1.555   9.668   4.236
25662SOL    HW178819   1.478   9.704   4.279
25662SOL    HW278820   1.556   9.576   4.263
25663SOL     OW78821   9.440  10.550   3.403
25663SOL    HW178822   9.376  10.612   3.440
25663SOL    HW278823   9.487  10.601   3.336
25664SOL     OW78824   4.710   3.082   5.277
25664SOL    HW178825   4.724   3.164   5.231
25664SOL    HW278826   4.751   3.015   5.222
25665SOL     OW78827   1.764  10.848   7.305
25665SOL    HW178828   1.764  10.848   7.210
25665SOL    HW278829   1.702  10.779   7.330
25666SOL     OW78830   5.365   3.629   3.619
25666SOL    HW178831   5.430   3.613   3.687
25666SOL    HW278832   5.410   3.684   3.555
25667SOL     OW78833   6.935  14.020   7.118
25667SOL    HW178834   6.933  13.970   7.037
25667SOL    HW278835   6.877  14.094   7.101
25668SOL     OW78836  14.224   6.728   3.089
25668SOL    HW178837  14.303   6.778   3.066
25668SOL    HW278838  14.159   6.755   3.024
25669SOL     OW78839   8.397   6.187   7.093
25669SOL    HW178840   8.419   6.181   7.000
25669SOL    HW278841   8.469   6.142   7.137
25670SOL     OW78842   8.715  14.703   4.994
25670SOL    HW178843   8.716  14.611   4.967
25670SOL    HW278844   8.733  14.700   5.088
25671SOL     OW78845  12.516   1.572   8.035
25671SOL    HW178846  12.504   1.478   8.019
25671SOL    HW278847  12.443   1.614   7.989
25672SOL     OW78848  14.624   7.329   6.542
25672SOL    HW178849  14.578   7.261   6.493
25672SOL    HW278850  14.568   7.406   6.534
25673SOL     OW78851   7.459   9.020   3.131
25673SOL    HW178852   7.422   8.932   3.132
25673SOL    HW278853   7.487   9.034   3.222
25674SOL     OW78854  11.490  10.182   5.531
25674SOL    HW178855  11.529  10.096   5.514
25674SOL    HW278856  11.541  10.242   5.476
25675SOL     OW78857   9.779   9.000   5.094
25675SOL    HW178858   9.822   9.043   5.020
25675SOL    HW278859   9.844   9.001   5.164
25676SOL     OW78860  14.180   9.903   0.617
25676SOL    HW178861  14.096   9.943   0.642
25676SOL    HW278862  14.178   9.901   0.522
25677SOL     OW78863  10.595  12.650  12.975
25677SOL    HW178864  10.638  12.566  12.959
25677SOL    HW278865  10.556  12.674  12.891
25678SOL     OW78866   5.802  10.121   3.534
25678SOL    HW178867   5.733  10.133   3.600
25678SOL    HW278868   5.806  10.026   3.522
25679SOL     OW78869   4.959   2.116   5.068
25679SOL    HW178870   5.026   2.159   5.013
25679SOL    HW278871   4.998   2.113   5.155
25680SOL     OW78872   9.139   6.988   4.407
25680SOL    HW178873   9.166   6.935   4.482
25680SOL    HW278874   9.197   6.961   4.336
25681SOL     OW78875  11.779   8.573   2.048
25681SOL    HW178876  11.835   8.631   2.099
25681SOL    HW278877  11.719   8.535   2.111
25682SOL     OW78878  12.100   3.113   7.653
25682SOL    HW178879  12.051   3.102   7.735
25682SOL    HW278880  12.119   3.023   7.625
25683SOL     OW78881  12.802   4.042   5.494
25683SOL    HW178882  12.804   4.136   5.475
25683SOL    HW278883  12.841   4.001   5.417
25684SOL     OW78884   3.457  11.586   5.756
25684SOL    HW178885   3.542  11.596   5.714
25684SOL    HW278886   3.477  11.574   5.849
25685SOL     OW78887   0.048  11.967   6.098
25685SOL    HW178888   0.007  11.943   6.015
25685SOL    HW278889   0.134  12.002   6.073
25686SOL     OW78890   8.099   5.812   2.530
25686SOL    HW178891   8.082   5.785   2.440
25686SOL    HW278892   8.189   5.845   2.528
25687SOL     OW78893   7.653   6.675  10.367
25687SOL    HW178894   7.701   6.741  10.416
25687SOL    HW278895   7.695   6.592  10.390
25688SOL     OW78896   8.970   4.028   3.095
25688SOL    HW178897   9.034   3.956   3.092
25688SOL    HW278898   8.900   3.999   3.037
25689SOL     OW78899   9.640   3.833   7.861
25689SOL    HW178900   9.600   3.796   7.782
25689SOL    HW278901   9.565   3.861   7.915
25690SOL     OW78902   9.030  13.617  10.859
25690SOL    HW178903   8.981  13.681  10.910
25690SOL    HW278904   8.982  13.609  10.776
25691SOL     OW78905   5.592  10.861  14.606
25691SOL    HW178906   5.602  10.956  14.617
25691SOL    HW278907   5.617  10.824  14.690
25692SOL     OW78908   8.681   7.537  10.206
25692SOL    HW178909   8.612   7.475  10.184
25692SOL    HW278910   8.636   7.608  10.252
25693SOL     OW78911   8.415   7.126  14.219
25693SOL    HW178912   8.457   7.040  14.208
25693SOL    HW278913   8.482   7.180  14.262
25694SOL     OW78914   4.942  12.096  14.562
25694SOL    HW178915   4.887  12.022  14.538
25694SOL    HW278916   4.899  12.134  14.638
25695SOL     OW78917   9.952   9.583   4.855
25695SOL    HW178918   9.964   9.498   4.897
25695SOL    HW278919  10.016   9.583   4.783
25696SOL     OW78920   4.892  14.215   7.831
25696SOL    HW178921   4.972  14.221   7.779
25696SOL    HW278922   4.854  14.303   7.827
25697SOL     OW78923   9.985   1.041   5.914
25697SOL    HW178924   9.968   1.115   5.856
25697SOL    HW278925   9.927   1.056   5.989
25698SOL     OW78926   7.614   1.274   5.786
25698SOL    HW178927   7.528   1.315   5.774
25698SOL    HW278928   7.595   1.180   5.791
25699SOL     OW78929   2.051   9.449   6.966
25699SOL    HW178930   2.029   9.422   6.877
25699SOL    HW278931   2.020   9.540   6.971
25700SOL     OW78932   5.937   0.263   5.810
25700SOL    HW178933   6.028   0.284   5.831
25700SOL    HW278934   5.941   0.177   5.769
25701SOL     OW78935   4.092   1.595   5.045
25701SOL    HW178936   4.108   1.561   4.957
25701SOL    HW278937   4.137   1.679   5.048
25702SOL     OW78938  10.958   8.452  10.983
25702SOL    HW178939  10.906   8.531  10.966
25702SOL    HW278940  10.927   8.389  10.918
25703SOL     OW78941   7.653   6.679   1.879
25703SOL    HW178942   7.595   6.741   1.923
25703SOL    HW278943   7.598   6.603   1.860
25704SOL     OW78944   4.388   4.906   8.553
25704SOL    HW178945   4.455   4.952   8.604
25704SOL    HW278946   4.306   4.926   8.599
25705SOL     OW78947   4.091   7.827   9.231
25705SOL    HW178948   4.130   7.789   9.152
25705SOL    HW278949   4.165   7.836   9.292
25706SOL     OW78950  14.758   2.486   3.905
25706SOL    HW178951  14.740   2.429   3.830
25706SOL    HW278952  14.709   2.566   3.887
25707SOL     OW78953   2.392   6.911  13.936
25707SOL    HW178954   2.458   6.841  13.937
25707SOL    HW278955   2.426   6.977  13.997
25708SOL     OW78956  14.283  13.120  12.082
25708SOL    HW178957  14.192  13.090  12.076
25708SOL    HW278958  14.303  13.157  11.996
25709SOL     OW78959   3.813   8.120   9.401
25709SOL    HW178960   3.724   8.156   9.402
25709SOL    HW278961   3.868   8.193   9.375
25710SOL     OW78962   4.103  11.176   2.243
25710SOL    HW178963   4.075  11.251   2.295
25710SOL    HW278964   4.038  11.169   2.173
25711SOL     OW78965   5.293   6.888  11.225
25711SOL    HW178966   5.234   6.929  11.288
25711SOL    HW278967   5.376   6.935  11.237
25712SOL     OW78968   4.163   3.499  12.969
25712SOL    HW178969   4.082   3.532  12.931
25712SOL    HW278970   4.147   3.405  12.982
25713SOL     OW78971  14.075   1.746  13.861
25713SOL    HW178972  14.104   1.823  13.909
25713SOL    HW278973  14.135   1.738  13.788
25714SOL     OW78974   2.089  13.118  13.784
25714SOL    HW178975   2.181  13.135  13.768
25714SOL    HW278976   2.087  13.044  13.844
25715SOL     OW78977  13.752  11.638  13.588
25715SOL    HW178978  13.803  11.559  13.568
25715SOL    HW278979  13.739  11.680  13.503
25716SOL     OW78980   4.250  10.663   2.340
25716SOL    HW178981   4.180  10.727   2.339
25716SOL    HW278982   4.304  10.685   2.263
25717SOL     OW78983   2.933  11.832  11.488
25717SOL    HW178984   2.988  11.755  11.497
25717SOL    HW278985   2.859  11.816  11.548
25718SOL     OW78986  12.151   4.713   4.074
25718SOL    HW178987  12.084   4.697   4.140
25718SOL    HW278988  12.107   4.698   3.991
25719SOL     OW78989   8.710   8.412  10.669
25719SOL    HW178990   8.759   8.471  10.612
25719SOL    HW278991   8.669   8.349  10.610
25720SOL     OW78992   3.820   9.395  12.124
25720SOL    HW178993   3.816   9.301  12.106
25720SOL    HW278994   3.868   9.431  12.050
25721SOL     OW78995  10.848   4.284  10.705
25721SOL    HW178996  10.824   4.331  10.784
25721SOL    HW278997  10.861   4.194  10.734
25722SOL     OW78998   8.343   2.366   4.165
25722SOL    HW178999   8.389   2.320   4.095
25722SOL    HW279000   8.357   2.459   4.146
25723SOL     OW79001   4.730   8.169  10.477
25723SOL    HW179002   4.810   8.172  10.424
25723SOL    HW279003   4.730   8.251  10.526
25724SOL     OW79004  14.609   2.407  10.490
25724SOL    HW179005  14.567   2.418  10.575
25724SOL    HW279006  14.546   2.445  10.428
25725SOL     OW79007   5.974   8.457   6.896
25725SOL    HW179008   5.890   8.502   6.888
25725SOL    HW279009   5.952   8.364   6.887
25726SOL     OW79010   7.517   7.220  10.050
25726SOL    HW179011   7.479   7.248   9.967
25726SOL    HW279012   7.490   7.129  10.060
25727SOL     OW79013  12.940   6.367   6.431
25727SOL    HW179014  12.969   6.376   6.522
25727SOL    HW279015  12.915   6.274   6.424
25728SOL     OW79016   4.302  14.637   7.213
25728SOL    HW179017   4.342  14.579   7.149
25728SOL    HW279018   4.208  14.634   7.194
25729SOL     OW79019  10.336  13.208   3.713
25729SOL    HW179020  10.314  13.122   3.678
25729SOL    HW279021  10.290  13.269   3.656
25730SOL     OW79022   2.109   9.715   0.668
25730SOL    HW179023   2.167   9.724   0.744
25730SOL    HW279024   2.168   9.716   0.593
25731SOL     OW79025   0.700   3.230   1.356
25731SOL    HW179026   0.732   3.157   1.303
25731SOL    HW279027   0.759   3.232   1.432
25732SOL     OW79028   3.772  12.499   7.936
25732SOL    HW179029   3.744  12.477   8.025
25732SOL    HW279030   3.801  12.416   7.899
25733SOL     OW79031   1.076   9.701  14.089
25733SOL    HW179032   1.005   9.642  14.115
25733SOL    HW279033   1.142   9.644  14.049
25734SOL     OW79034  10.191   4.745  12.302
25734SOL    HW179035  10.184   4.665  12.355
25734SOL    HW279036  10.271   4.787  12.334
25735SOL     OW79037  10.866  10.056   6.591
25735SOL    HW179038  10.819  10.003   6.654
25735SOL    HW279039  10.908   9.993   6.532
25736SOL     OW79040   6.293   6.587   1.175
25736SOL    HW179041   6.376   6.634   1.167
25736SOL    HW279042   6.226   6.655   1.178
25737SOL     OW79043   4.509  13.386   4.090
25737SOL    HW179044   4.507  13.318   4.158
25737SOL    HW279045   4.418  13.412   4.080
25738SOL     OW79046  12.629   3.268   5.296
25738SOL    HW179047  12.685   3.245   5.222
25738SOL    HW279048  12.688   3.265   5.372
25739SOL     OW79049   0.947   5.361   0.286
25739SOL    HW179050   0.991   5.363   0.371
25739SOL    HW279051   0.923   5.269   0.273
25740SOL     OW79052   8.532   3.742   9.567
25740SOL    HW179053   8.582   3.717   9.489
25740SOL    HW279054   8.595   3.735   9.639
25741SOL     OW79055  12.378   5.725   8.254
25741SOL    HW179056  12.331   5.806   8.237
25741SOL    HW279057  12.335   5.689   8.332
25742SOL     OW79058   7.747   4.139   5.873
25742SOL    HW179059   7.687   4.200   5.829
25742SOL    HW279060   7.700   4.112   5.952
25743SOL     OW79061  12.998   5.010   1.552
25743SOL    HW179062  13.076   5.045   1.509
25743SOL    HW279063  12.925   5.047   1.503
25744SOL     OW79064  10.678   0.307   2.289
25744SOL    HW179065  10.644   0.241   2.349
25744SOL    HW279066  10.619   0.382   2.300
25745SOL     OW79067  10.580  10.445  12.305
25745SOL    HW179068  10.598  10.412  12.393
25745SOL    HW279069  10.657  10.421  12.254
25746SOL     OW79070  11.025   1.692   6.805
25746SOL    HW179071  11.049   1.722   6.893
25746SOL    HW279072  11.096   1.634   6.779
25747SOL     OW79073   8.882   6.587  11.044
25747SOL    HW179074   8.933   6.645  11.101
25747SOL    HW279075   8.911   6.609  10.955
25748SOL     OW79076  11.357  12.594  14.605
25748SOL    HW179077  11.386  12.685  14.592
25748SOL    HW279078  11.270  12.591  14.565
25749SOL     OW79079   4.222   7.072   3.785
25749SOL    HW179080   4.128   7.063   3.768
25749SOL    HW279081   4.229   7.072   3.880
25750SOL     OW79082  13.823  10.477   7.241
25750SOL    HW179083  13.816  10.391   7.200
25750SOL    HW279084  13.911  10.508   7.218
25751SOL     OW79085  10.943   0.163   0.824
25751SOL    HW179086  10.974   0.219   0.753
25751SOL    HW279087  10.960   0.074   0.794
25752SOL     OW79088   3.689  11.598  13.168
25752SOL    HW179089   3.646  11.580  13.084
25752SOL    HW279090   3.782  11.606  13.146
25753SOL     OW79091   8.518   0.643  11.681
25753SOL    HW179092   8.465   0.720  11.663
25753SOL    HW279093   8.606   0.678  11.695
25754SOL     OW79094   9.517   6.322  11.932
25754SOL    HW179095   9.511   6.238  11.977
25754SOL    HW279096   9.485   6.305  11.843
25755SOL     OW79097   1.997   2.246   6.354
25755SOL    HW179098   1.973   2.307   6.424
25755SOL    HW279099   1.916   2.198   6.336
25756SOL     OW79100  10.823   1.616  11.447
25756SOL    HW179101  10.850   1.705  11.426
25756SOL    HW279102  10.760   1.594  11.379
25757SOL     OW79103   9.280  11.212   9.369
25757SOL    HW179104   9.357  11.233   9.316
25757SOL    HW279105   9.271  11.117   9.362
25758SOL     OW79106  10.872   7.465   8.087
25758SOL    HW179107  10.890   7.535   8.150
25758SOL    HW279108  10.799   7.498   8.035
25759SOL     OW79109   2.910  13.597   6.413
25759SOL    HW179110   2.979  13.533   6.433
25759SOL    HW279111   2.869  13.564   6.334
25760SOL     OW79112   3.247   1.775   7.914
25760SOL    HW179113   3.340   1.790   7.926
25760SOL    HW279114   3.235   1.682   7.932
25761SOL     OW79115   6.678   9.331   4.229
25761SOL    HW179116   6.623   9.272   4.281
25761SOL    HW279117   6.684   9.411   4.281
25762SOL     OW79118   8.360  10.857   3.506
25762SOL    HW179119   8.285  10.798   3.500
25762SOL    HW279120   8.325  10.938   3.543
25763SOL     OW79121   4.602  11.387  14.727
25763SOL    HW179122   4.527  11.369  14.784
25763SOL    HW279123   4.576  11.355  14.641
25764SOL     OW79124   7.039  13.748   4.930
25764SOL    HW179125   6.995  13.763   5.014
25764SOL    HW279126   7.045  13.835   4.890
25765SOL     OW79127   3.204   3.548   1.521
25765SOL    HW179128   3.234   3.595   1.443
25765SOL    HW279129   3.282   3.540   1.576
25766SOL     OW79130   2.675   0.682   0.419
25766SOL    HW179131   2.664   0.699   0.326
25766SOL    HW279132   2.742   0.614   0.424
25767SOL     OW79133   3.376  10.984   3.332
25767SOL    HW179134   3.470  10.996   3.349
25767SOL    HW279135   3.360  10.892   3.353
25768SOL     OW79136  14.039   5.001  12.175
25768SOL    HW179137  13.980   5.067  12.211
25768SOL    HW279138  14.067   5.037  12.091
25769SOL     OW79139  11.817  12.530   7.917
25769SOL    HW179140  11.821  12.620   7.951
25769SOL    HW279141  11.752  12.534   7.847
25770SOL     OW79142   1.010   5.647   2.924
25770SOL    HW179143   1.034   5.728   2.971
25770SOL    HW279144   0.920   5.662   2.895
25771SOL     OW79145   1.246   5.518   1.314
25771SOL    HW179146   1.177   5.452   1.326
25771SOL    HW279147   1.259   5.554   1.402
25772SOL     OW79148  13.276  12.305  14.541
25772SOL    HW179149  13.238  12.392  14.548
25772SOL    HW279150  13.225  12.251  14.601
25773SOL     OW79151   5.573  12.081  11.700
25773SOL    HW179152   5.613  12.076  11.613
25773SOL    HW279153   5.552  12.174  11.710
25774SOL     OW79154  10.803  10.629  13.416
25774SOL    HW179155  10.887  10.670  13.395
25774SOL    HW279156  10.743  10.665  13.351
25775SOL     OW79157   0.213  11.642   7.915
25775SOL    HW179158   0.220  11.575   7.983
25775SOL    HW279159   0.304  11.666   7.897
25776SOL     OW79160  13.615   3.576  12.657
25776SOL    HW179161  13.549   3.624  12.608
25776SOL    HW279162  13.582   3.574  12.747
25777SOL     OW79163  14.539   9.667   6.989
25777SOL    HW179164  14.519   9.587   6.941
25777SOL    HW279165  14.475   9.669   7.060
25778SOL     OW79166  10.884  13.927   8.292
25778SOL    HW179167  10.850  13.924   8.382
25778SOL    HW279168  10.826  13.987   8.246
25779SOL     OW79169   5.153   4.762   3.445
25779SOL    HW179170   5.089   4.808   3.499
25779SOL    HW279171   5.181   4.688   3.500
25780SOL     OW79172  10.136  10.997   6.510
25780SOL    HW179173  10.211  10.984   6.451
25780SOL    HW279174  10.170  11.053   6.580
25781SOL     OW79175  10.676   9.875   6.735
25781SOL    HW179176  10.582   9.862   6.734
25781SOL    HW279177  10.710   9.800   6.785
25782SOL     OW79178  14.326   0.314  14.823
25782SOL    HW179179  14.238   0.289  14.850
25782SOL    HW279180  14.381   0.296   0.020
25783SOL     OW79181  10.267  12.314   9.584
25783SOL    HW179182  10.279  12.296   9.490
25783SOL    HW279183  10.246  12.229   9.622
25784SOL     OW79184   2.231   0.255   9.199
25784SOL    HW179185   2.294   0.293   9.138
25784SOL    HW279186   2.157   0.229   9.144
25785SOL     OW79187   2.064   4.701   8.641
25785SOL    HW179188   2.001   4.655   8.585
25785SOL    HW279189   2.125   4.742   8.580
25786SOL     OW79190   7.879   1.950  11.164
25786SOL    HW179191   7.941   2.014  11.129
25786SOL    HW279192   7.934   1.878  11.193
25787SOL     OW79193  14.388  12.094   3.190
25787SOL    HW179194  14.422  12.043   3.116
25787SOL    HW279195  14.301  12.122   3.162
25788SOL     OW79196   7.024  13.890  11.925
25788SOL    HW179197   7.085  13.930  11.863
25788SOL    HW279198   7.046  13.931  12.009
25789SOL     OW79199  14.347   5.831  14.200
25789SOL    HW179200  14.412   5.865  14.262
25789SOL    HW279201  14.395   5.766  14.149
25790SOL     OW79202   3.861  13.283   9.054
25790SOL    HW179203   3.820  13.199   9.076
25790SOL    HW279204   3.935  13.259   8.999
25791SOL     OW79205   2.924   6.945  12.652
25791SOL    HW179206   2.924   6.947  12.556
25791SOL    HW279207   3.013   6.968  12.677
25792SOL     OW79208   2.486   0.349   1.354
25792SOL    HW179209   2.549   0.370   1.286
25792SOL    HW279210   2.511   0.262   1.386
25793SOL     OW79211   8.794  10.740  12.712
25793SOL    HW179212   8.726  10.796  12.674
25793SOL    HW279213   8.860  10.801  12.744
25794SOL     OW79214   9.948   6.785   0.661
25794SOL    HW179215   9.965   6.763   0.753
25794SOL    HW279216  10.027   6.831   0.632
25795SOL     OW79217   4.375  14.388  11.502
25795SOL    HW179218   4.409  14.436  11.426
25795SOL    HW279219   4.324  14.453  11.550
25796SOL     OW79220   2.127   2.251   0.342
25796SOL    HW179221   2.048   2.290   0.303
25796SOL    HW279222   2.194   2.318   0.332
25797SOL     OW79223   9.258  13.901   9.547
25797SOL    HW179224   9.190  13.834   9.550
25797SOL    HW279225   9.293  13.898   9.458
25798SOL     OW79226   4.227   6.456   3.609
25798SOL    HW179227   4.227   6.445   3.704
25798SOL    HW279228   4.318   6.445   3.583
25799SOL     OW79229   1.402   7.867  12.147
25799SOL    HW179230   1.470   7.833  12.089
25799SOL    HW279231   1.363   7.790  12.187
25800SOL     OW79232   8.789  13.631  14.529
25800SOL    HW179233   8.726  13.632  14.457
25800SOL    HW279234   8.735  13.617  14.607
25801SOL     OW79235   8.198   4.438  10.151
25801SOL    HW179236   8.141   4.497  10.101
25801SOL    HW279237   8.205   4.479  10.238
25802SOL     OW79238  13.139  13.102   5.387
25802SOL    HW179239  13.175  13.057   5.463
25802SOL    HW279240  13.161  13.046   5.312
25803SOL     OW79241  11.274   6.645  13.936
25803SOL    HW179242  11.320   6.720  13.899
25803SOL    HW279243  11.276   6.659  14.030
25804SOL     OW79244  10.134  13.919   4.776
25804SOL    HW179245  10.135  14.013   4.760
25804SOL    HW279246  10.081  13.909   4.855
25805SOL     OW79247  11.306  11.447   0.181
25805SOL    HW179248  11.361  11.503   0.236
25805SOL    HW279249  11.217  11.480   0.195
25806SOL     OW79250   2.173  12.539   3.704
25806SOL    HW179251   2.171  12.462   3.761
25806SOL    HW279252   2.257  12.581   3.722
25807SOL     OW79253  10.499   9.541   7.505
25807SOL    HW179254  10.405   9.529   7.498
25807SOL    HW279255  10.520   9.523   7.596
25808SOL     OW79256  11.992   4.558   6.029
25808SOL    HW179257  11.903   4.537   6.058
25808SOL    HW279258  12.048   4.509   6.089
25809SOL     OW79259   0.205   3.746   5.717
25809SOL    HW179260   0.121   3.787   5.697
25809SOL    HW279261   0.224   3.773   5.807
25810SOL     OW79262   8.418  13.704   3.421
25810SOL    HW179263   8.417  13.618   3.461
25810SOL    HW279264   8.330  13.738   3.433
25811SOL     OW79265   7.057   1.249  13.998
25811SOL    HW179266   7.018   1.168  13.966
25811SOL    HW279267   7.150   1.240  13.980
25812SOL     OW79268   6.348   7.054  12.663
25812SOL    HW179269   6.268   7.030  12.710
25812SOL    HW279270   6.367   6.979  12.607
25813SOL     OW79271   4.806   1.431   9.876
25813SOL    HW179272   4.896   1.457   9.862
25813SOL    HW279273   4.793   1.355   9.819
25814SOL     OW79274   5.920   1.355   7.572
25814SOL    HW179275   5.850   1.292   7.587
25814SOL    HW279276   5.903   1.389   7.484
25815SOL     OW79277   8.972   6.611   9.378
25815SOL    HW179278   8.933   6.575   9.299
25815SOL    HW279279   8.985   6.535   9.435
25816SOL     OW79280   5.693   9.049  12.489
25816SOL    HW179281   5.635   9.080  12.419
25816SOL    HW279282   5.642   9.059  12.569
25817SOL     OW79283  10.333  10.892  11.659
25817SOL    HW179284  10.258  10.835  11.642
25817SOL    HW279285  10.409  10.837  11.640
25818SOL     OW79286   1.492   4.805   7.104
25818SOL    HW179287   1.585   4.824   7.100
25818SOL    HW279288   1.481   4.753   7.183
25819SOL     OW79289  14.526   9.482  12.099
25819SOL    HW179290  14.509   9.575  12.089
25819SOL    HW279291  14.621   9.476  12.114
25820SOL     OW79292   2.202   7.548   4.292
25820SOL    HW179293   2.250   7.498   4.358
25820SOL    HW279294   2.205   7.493   4.213
25821SOL     OW79295   8.602   3.476   4.648
25821SOL    HW179296   8.688   3.519   4.653
25821SOL    HW279297   8.623   3.385   4.626
25822SOL     OW79298   1.646   9.006   0.010
25822SOL    HW179299   1.582   8.937  14.871
25822SOL    HW279300   1.648   9.058  14.809
25823SOL     OW79301   6.357   7.235   5.032
25823SOL    HW179302   6.377   7.328   5.022
25823SOL    HW279303   6.296   7.215   4.962
25824SOL     OW79304   9.690  10.650   8.351
25824SOL    HW179305   9.671  10.630   8.259
25824SOL    HW279306   9.650  10.579   8.400
25825SOL     OW79307   5.525   0.602  12.920
25825SOL    HW179308   5.519   0.679  12.864
25825SOL    HW279309   5.448   0.607  12.976
25826SOL     OW79310   7.908  14.484  10.138
25826SOL    HW179311   7.874  14.478  10.049
25826SOL    HW279312   7.843  14.536  10.185
25827SOL     OW79313  14.015  10.695  11.787
25827SOL    HW179314  14.051  10.624  11.735
25827SOL    HW279315  14.025  10.773  11.732
25828SOL     OW79316   5.634  12.679   5.584
25828SOL    HW179317   5.555  12.634   5.556
25828SOL    HW279318   5.665  12.628   5.659
25829SOL     OW79319   2.780   5.692  11.590
25829SOL    HW179320   2.852   5.752  11.608
25829SOL    HW279321   2.708   5.724  11.645
25830SOL     OW79322   1.605   3.066  13.245
25830SOL    HW179323   1.645   2.987  13.206
25830SOL    HW279324   1.567   3.036  13.327
25831SOL     OW79325   4.607   9.533   3.094
25831SOL    HW179326   4.701   9.514   3.095
25831SOL    HW279327   4.566   9.448   3.113
25832SOL     OW79328  13.798   4.151  13.277
25832SOL    HW179329  13.732   4.128  13.211
25832SOL    HW279330  13.855   4.214  13.232
25833SOL     OW79331   7.868  10.550   8.090
25833SOL    HW179332   7.832  10.622   8.142
25833SOL    HW279333   7.796  10.487   8.084
25834SOL     OW79334   6.146   4.000   6.846
25834SOL    HW179335   6.107   4.050   6.774
25834SOL    HW279336   6.077   3.995   6.912
25835SOL     OW79337  11.878   3.122   1.244
25835SOL    HW179338  11.802   3.124   1.302
25835SOL    HW279339  11.949   3.091   1.299
25836SOL     OW79340   6.403   7.189  11.068
25836SOL    HW179341   6.482   7.136  11.054
25836SOL    HW279342   6.436   7.278  11.081
25837SOL     OW79343  11.707   2.266   4.988
25837SOL    HW179344  11.709   2.346   4.936
25837SOL    HW279345  11.682   2.296   5.076
25838SOL     OW79346   5.363   0.091  14.175
25838SOL    HW179347   5.347  14.877  14.187
25838SOL    HW279348   5.277   0.128  14.156
25839SOL     OW79349   2.190  12.479   7.230
25839SOL    HW179350   2.229  12.545   7.286
25839SOL    HW279351   2.221  12.395   7.264
25840SOL     OW79352   1.450  11.217   4.538
25840SOL    HW179353   1.357  11.238   4.546
25840SOL    HW279354   1.484  11.223   4.627
25841SOL     OW79355  10.880   3.091   9.609
25841SOL    HW179356  10.900   3.120   9.698
25841SOL    HW279357  10.858   2.998   9.618
25842SOL     OW79358  13.223  11.389   6.278
25842SOL    HW179359  13.214  11.449   6.204
25842SOL    HW279360  13.138  11.347   6.285
25843SOL     OW79361  10.241   7.474  10.935
25843SOL    HW179362  10.200   7.388  10.944
25843SOL    HW279363  10.299   7.481  11.012
25844SOL     OW79364   2.139  14.585  13.039
25844SOL    HW179365   2.153  14.496  13.069
25844SOL    HW279366   2.227  14.622  13.030
25845SOL     OW79367   8.669  10.279   3.402
25845SOL    HW179368   8.727  10.237   3.466
25845SOL    HW279369   8.660  10.215   3.332
25846SOL     OW79370   8.748  14.546   0.113
25846SOL    HW179371   8.831  14.582   0.081
25846SOL    HW279372   8.689  14.551   0.038
25847SOL     OW79373   0.876   9.073   2.840
25847SOL    HW179374   0.838   9.160   2.848
25847SOL    HW279375   0.817   9.016   2.889
25848SOL     OW79376   1.246  11.420  11.858
25848SOL    HW179377   1.180  11.478  11.820
25848SOL    HW279378   1.197  11.368  11.923
25849SOL     OW79379  11.528   1.251   1.990
25849SOL    HW179380  11.448   1.267   1.940
25849SOL    HW279381  11.506   1.281   2.079
25850SOL     OW79382   9.574  11.108   1.446
25850SOL    HW179383   9.533  11.186   1.410
25850SOL    HW279384   9.599  11.056   1.370
25851SOL     OW79385   4.576  10.785   8.478
25851SOL    HW179386   4.503  10.723   8.471
25851SOL    HW279387   4.623  10.776   8.396
25852SOL     OW79388   6.566   7.575   0.997
25852SOL    HW179389   6.536   7.616   0.916
25852SOL    HW279390   6.661   7.576   0.992
25853SOL     OW79391   0.352   6.870   2.398
25853SOL    HW179392   0.385   6.822   2.322
25853SOL    HW279393   0.429   6.885   2.453
25854SOL     OW79394  12.292   1.901   6.198
25854SOL    HW179395  12.202   1.906   6.228
25854SOL    HW279396  12.296   1.821   6.146
25855SOL     OW79397   6.520   7.854   3.018
25855SOL    HW179398   6.557   7.886   2.936
25855SOL    HW279399   6.586   7.877   3.084
25856SOL     OW79400   0.696  13.280   3.701
25856SOL    HW179401   0.693  13.240   3.615
25856SOL    HW279402   0.756  13.226   3.751
25857SOL     OW79403  11.495   0.124   8.542
25857SOL    HW179404  11.583   0.138   8.578
25857SOL    HW279405  11.442   0.097   8.617
25858SOL     OW79406   9.642  13.581   9.071
25858SOL    HW179407   9.648  13.545   8.983
25858SOL    HW279408   9.688  13.518   9.126
25859SOL     OW79409   0.632   2.512   5.241
25859SOL    HW179410   0.705   2.485   5.297
25859SOL    HW279411   0.567   2.549   5.301
25860SOL     OW79412   6.552  13.962   1.327
25860SOL    HW179413   6.532  13.966   1.420
25860SOL    HW279414   6.562  13.868   1.308
25861SOL     OW79415   5.572  13.136   8.459
25861SOL    HW179416   5.646  13.171   8.508
25861SOL    HW279417   5.495  13.167   8.507
25862SOL     OW79418   5.965   0.519   5.437
25862SOL    HW179419   5.954   0.426   5.417
25862SOL    HW279420   5.890   0.539   5.494
25863SOL     OW79421  13.444   1.743   6.962
25863SOL    HW179422  13.362   1.740   6.914
25863SOL    HW279423  13.419   1.761   7.053
25864SOL     OW79424   1.017  13.823   4.560
25864SOL    HW179425   0.996  13.803   4.652
25864SOL    HW279426   1.096  13.772   4.542
25865SOL     OW79427  11.991   6.464   4.592
25865SOL    HW179428  11.922   6.529   4.581
25865SOL    HW279429  12.009   6.434   4.502
25866SOL     OW79430   7.799  13.617  12.606
25866SOL    HW179431   7.787  13.621  12.701
25866SOL    HW279432   7.840  13.700  12.584
25867SOL     OW79433   1.480  12.273   6.169
25867SOL    HW179434   1.536  12.233   6.235
25867SOL    HW279435   1.540  12.321   6.112
25868SOL     OW79436  12.017  13.833  13.037
25868SOL    HW179437  12.055  13.903  12.985
25868SOL    HW279438  12.043  13.854  13.127
25869SOL     OW79439   8.416   9.341   9.891
25869SOL    HW179440   8.459   9.416   9.849
25869SOL    HW279441   8.402   9.279   9.819
25870SOL     OW79442   6.370   1.030   4.493
25870SOL    HW179443   6.340   1.117   4.466
25870SOL    HW279444   6.324   1.013   4.575
25871SOL     OW79445  13.900   1.415   4.573
25871SOL    HW179446  13.938   1.330   4.594
25871SOL    HW279447  13.810   1.396   4.548
25872SOL     OW79448  13.336   3.103  13.666
25872SOL    HW179449  13.329   3.122  13.760
25872SOL    HW279450  13.312   3.185  13.623
25873SOL     OW79451   8.874   9.427   8.922
25873SOL    HW179452   8.928   9.492   8.876
25873SOL    HW279453   8.800   9.477   8.956
25874SOL     OW79454  11.588  14.604  12.071
25874SOL    HW179455  11.559  14.694  12.060
25874SOL    HW279456  11.519  14.562  12.123
25875SOL     OW79457   0.770   8.486   9.679
25875SOL    HW179458   0.756   8.424   9.607
25875SOL    HW279459   0.790   8.569   9.636
25876SOL     OW79460   3.789   1.973   1.158
25876SOL    HW179461   3.864   2.016   1.199
25876SOL    HW279462   3.713   2.021   1.190
25877SOL     OW79463   4.244   2.088  10.365
25877SOL    HW179464   4.269   2.180  10.352
25877SOL    HW279465   4.325   2.046  10.392
25878SOL     OW79466   7.403  13.991   6.576
25878SOL    HW179467   7.334  13.940   6.618
25878SOL    HW279468   7.465  14.011   6.646
25879SOL     OW79469  10.950   9.989   6.132
25879SOL    HW179470  10.946   9.961   6.040
25879SOL    HW279471  10.860   9.983   6.163
25880SOL     OW79472   1.081   3.230  13.575
25880SOL    HW179473   1.164   3.260  13.538
25880SOL    HW279474   1.102   3.146  13.614
25881SOL     OW79475  14.731   1.912   0.165
25881SOL    HW179476  14.786   1.876   0.234
25881SOL    HW279477  14.647   1.927   0.208
25882SOL     OW79478  13.689  10.685   6.838
25882SOL    HW179479  13.601  10.691   6.802
25882SOL    HW279480  13.680  10.631   6.916
25883SOL     OW79481  14.725   8.700   6.990
25883SOL    HW179482  14.647   8.752   7.012
25883SOL    HW279483  14.798   8.762   6.996
25884SOL     OW79484  14.475  14.264  12.234
25884SOL    HW179485  14.408  14.332  12.237
25884SOL    HW279486  14.557  14.309  12.256
25885SOL     OW79487   7.578  13.154   3.205
25885SOL    HW179488   7.503  13.179   3.151
25885SOL    HW279489   7.572  13.059   3.213
25886SOL     OW79490  11.989  12.707   8.704
25886SOL    HW179491  11.915  12.712   8.644
25886SOL    HW279492  11.990  12.616   8.734
25887SOL     OW79493   6.271   4.107   2.853
25887SOL    HW179494   6.240   4.027   2.897
25887SOL    HW279495   6.292   4.078   2.764
25888SOL     OW79496   8.923   2.675  11.483
25888SOL    HW179497   8.906   2.768  11.471
25888SOL    HW279498   8.862   2.631  11.424
25889SOL     OW79499   5.831   5.096   4.236
25889SOL    HW179500   5.836   5.189   4.212
25889SOL    HW279501   5.922   5.067   4.239
25890SOL     OW79502  14.759   8.108   5.981
25890SOL    HW179503  14.765   8.202   5.996
25890SOL    HW279504  14.843   8.086   5.939
25891SOL     OW79505   6.967   4.798   7.914
25891SOL    HW179506   6.909   4.804   7.990
25891SOL    HW279507   6.920   4.741   7.853
25892SOL     OW79508  12.830   0.671   1.525
25892SOL    HW179509  12.751   0.669   1.470
25892SOL    HW279510  12.800   0.709   1.608
25893SOL     OW79511   9.068   4.467   2.614
25893SOL    HW179512   9.098   4.474   2.705
25893SOL    HW279513   9.146   4.440   2.565
25894SOL     OW79514  14.815  11.727   8.340
25894SOL    HW179515  14.761  11.802   8.313
25894SOL    HW279516   0.004  11.766   8.395
25895SOL     OW79517  14.196  10.054  12.585
25895SOL    HW179518  14.168  10.048  12.676
25895SOL    HW279519  14.203  10.148  12.568
25896SOL     OW79520   0.930   0.057  11.691
25896SOL    HW179521   0.970   0.073  11.606
25896SOL    HW279522   0.837   0.043  11.671
25897SOL     OW79523   7.580   6.604   0.413
25897SOL    HW179524   7.589   6.512   0.439
25897SOL    HW279525   7.573   6.652   0.495
25898SOL     OW79526   8.673   7.680  13.070
25898SOL    HW179527   8.612   7.749  13.042
25898SOL    HW279528   8.742   7.681  13.004
25899SOL     OW79529   1.947   9.265   2.992
25899SOL    HW179530   1.864   9.306   2.967
25899SOL    HW279531   1.924   9.211   3.068
25900SOL     OW79532   8.664  12.518  14.119
25900SOL    HW179533   8.752  12.491  14.144
25900SOL    HW279534   8.623  12.548  14.200
25901SOL     OW79535   7.097   9.738  11.633
25901SOL    HW179536   7.042   9.772  11.562
25901SOL    HW279537   7.180   9.717  11.591
25902SOL     OW79538   0.767   4.926  11.575
25902SOL    HW179539   0.742   4.894  11.488
25902SOL    HW279540   0.784   5.020  11.562
25903SOL     OW79541   4.368  14.843   5.472
25903SOL    HW179542   4.460  14.836   5.496
25903SOL    HW279543   4.343  14.754   5.446
25904SOL     OW79544  13.952   4.384   2.650
25904SOL    HW179545  14.000   4.449   2.702
25904SOL    HW279546  13.908   4.435   2.582
25905SOL     OW79547   6.163  14.578   7.080
25905SOL    HW179548   6.252  14.612   7.081
25905SOL    HW279549   6.108  14.655   7.068
25906SOL     OW79550  12.016   5.447  13.895
25906SOL    HW179551  11.986   5.498  13.820
25906SOL    HW279552  11.946   5.455  13.960
25907SOL     OW79553  10.651   8.870   1.521
25907SOL    HW179554  10.642   8.847   1.614
25907SOL    HW279555  10.743   8.892   1.511
25908SOL     OW79556   3.904   4.617  13.282
25908SOL    HW179557   3.924   4.632  13.374
25908SOL    HW279558   3.931   4.697  13.238
25909SOL     OW79559   6.027  11.309   1.299
25909SOL    HW179560   6.104  11.257   1.278
25909SOL    HW279561   6.026  11.315   1.394
25910SOL     OW79562   1.167   1.349  10.422
25910SOL    HW179563   1.175   1.265  10.467
25910SOL    HW279564   1.154   1.413  10.492
25911SOL     OW79565  10.874   5.215   1.735
25911SOL    HW179566  10.967   5.234   1.720
25911SOL    HW279567  10.870   5.177   1.822
25912SOL     OW79568   8.650   3.110   3.189
25912SOL    HW179569   8.583   3.045   3.169
25912SOL    HW279570   8.728   3.059   3.210
25913SOL     OW79571  10.348  12.820   0.699
25913SOL    HW179572  10.393  12.778   0.626
25913SOL    HW279573  10.375  12.912   0.694
25914SOL     OW79574   0.197  13.373  13.065
25914SOL    HW179575   0.149  13.319  13.002
25914SOL    HW279576   0.229  13.310  13.130
25915SOL     OW79577   3.776   8.241  11.277
25915SOL    HW179578   3.787   8.169  11.216
25915SOL    HW279579   3.846   8.230  11.341
25916SOL     OW79580   1.253  10.713   8.334
25916SOL    HW179581   1.292  10.638   8.289
25916SOL    HW279582   1.323  10.746   8.390
25917SOL     OW79583  12.962   6.178   1.663
25917SOL    HW179584  13.016   6.177   1.584
25917SOL    HW279585  12.982   6.262   1.705
25918SOL     OW79586   1.640   2.930  14.281
25918SOL    HW179587   1.601   2.863  14.225
25918SOL    HW279588   1.722   2.953  14.237
25919SOL     OW79589   7.855  12.766  12.827
25919SOL    HW179590   7.808  12.829  12.880
25919SOL    HW279591   7.788  12.706  12.795
25920SOL     OW79592   4.390   3.553   8.404
25920SOL    HW179593   4.459   3.599   8.356
25920SOL    HW279594   4.424   3.544   8.493
25921SOL     OW79595   8.804   9.709  14.042
25921SOL    HW179596   8.894   9.713  14.007
25921SOL    HW279597   8.803   9.630  14.096
25922SOL     OW79598   8.658  10.643   6.306
25922SOL    HW179599   8.687  10.560   6.268
25922SOL    HW279600   8.686  10.710   6.243
25923SOL     OW79601   3.749   8.862  14.185
25923SOL    HW179602   3.691   8.908  14.124
25923SOL    HW279603   3.768   8.779  14.142
25924SOL     OW79604   7.192   5.439  12.987
25924SOL    HW179605   7.280   5.411  13.012
25924SOL    HW279606   7.137   5.412  13.060
25925SOL     OW79607   2.137  13.898   1.965
25925SOL    HW179608   2.228  13.885   1.990
25925SOL    HW279609   2.098  13.943   2.040
25926SOL     OW79610   9.905   0.059   7.564
25926SOL    HW179611   9.869   0.019   7.643
25926SOL    HW279612   9.996   0.030   7.561
25927SOL     OW79613   9.601   8.522  12.354
25927SOL    HW179614   9.507   8.532  12.366
25927SOL    HW279615   9.635   8.611  12.349
25928SOL     OW79616  13.669   9.224   5.920
25928SOL    HW179617  13.603   9.277   5.965
25928SOL    HW279618  13.750   9.275   5.930
25929SOL     OW79619   9.694   9.743   6.763
25929SOL    HW179620   9.600   9.728   6.760
25929SOL    HW279621   9.710   9.810   6.697
25930SOL     OW79622   8.206   1.456  12.707
25930SOL    HW179623   8.123   1.410  12.705
25930SOL    HW279624   8.188   1.536  12.756
25931SOL     OW79625   7.324   7.639   8.915
25931SOL    HW179626   7.286   7.717   8.874
25931SOL    HW279627   7.414   7.664   8.934
25932SOL     OW79628  14.810   6.397   1.697
25932SOL    HW179629   0.012   6.372   1.740
25932SOL    HW279630  14.779   6.317   1.655
25933SOL     OW79631  13.984   6.857  11.762
25933SOL    HW179632  13.987   6.810  11.845
25933SOL    HW279633  13.920   6.809  11.709
25934SOL     OW79634  10.402   7.444   7.587
25934SOL    HW179635  10.478   7.447   7.529
25934SOL    HW279636  10.357   7.528   7.572
25935SOL     OW79637   1.727  12.262   2.915
25935SOL    HW179638   1.637  12.294   2.921
25935SOL    HW279639   1.764  12.310   2.841
25936SOL     OW79640  14.058   1.625   4.876
25936SOL    HW179641  14.082   1.549   4.824
25936SOL    HW279642  14.137   1.679   4.878
25937SOL     OW79643   5.935   0.301   3.088
25937SOL    HW179644   5.985   0.265   3.161
25937SOL    HW279645   5.939   0.396   3.101
25938SOL     OW79646   5.915   1.114   5.004
25938SOL    HW179647   5.832   1.135   4.961
25938SOL    HW279648   5.899   1.130   5.096
25939SOL     OW79649   7.427   0.287  13.861
25939SOL    HW179650   7.479   0.361  13.894
25939SOL    HW279651   7.353   0.282  13.921
25940SOL     OW79652   3.558   2.177   2.295
25940SOL    HW179653   3.582   2.112   2.361
25940SOL    HW279654   3.615   2.157   2.220
25941SOL     OW79655   6.379   2.594   0.602
25941SOL    HW179656   6.383   2.598   0.697
25941SOL    HW279657   6.469   2.608   0.573
25942SOL     OW79658   3.067  12.409   5.831
25942SOL    HW179659   3.036  12.368   5.750
25942SOL    HW279660   3.129  12.476   5.802
25943SOL     OW79661   4.039  14.743  10.520
25943SOL    HW179662   3.959  14.713  10.563
25943SOL    HW279663   4.010  14.781  10.438
25944SOL     OW79664   5.155   6.614  11.526
25944SOL    HW179665   5.229   6.651  11.575
25944SOL    HW279666   5.157   6.520  11.547
25945SOL     OW79667   6.479   6.708  12.270
25945SOL    HW179668   6.521   6.643  12.215
25945SOL    HW279669   6.408   6.745  12.216
25946SOL     OW79670   8.425   4.263   1.458
25946SOL    HW179671   8.456   4.308   1.379
25946SOL    HW279672   8.446   4.171   1.444
25947SOL     OW79673   7.175   5.977   6.279
25947SOL    HW179674   7.139   5.981   6.191
25947SOL    HW279675   7.127   6.043   6.328
25948SOL     OW79676  11.322   9.126   9.392
25948SOL    HW179677  11.364   9.051   9.350
25948SOL    HW279678  11.359   9.128   9.480
25949SOL     OW79679   3.263   5.402   6.192
25949SOL    HW179680   3.310   5.465   6.247
25949SOL    HW279681   3.235   5.453   6.116
25950SOL     OW79682  11.317   0.890  14.391
25950SOL    HW179683  11.340   0.979  14.363
25950SOL    HW279684  11.335   0.889  14.485
25951SOL     OW79685  11.057  10.009  13.234
25951SOL    HW179686  11.083  10.097  13.205
25951SOL    HW279687  11.008  10.024  13.315
25952SOL     OW79688   4.767   6.050   6.029
25952SOL    HW179689   4.798   6.139   6.014
25952SOL    HW279690   4.732   6.022   5.944
25953SOL     OW79691  11.081  14.391  14.585
25953SOL    HW179692  11.101  14.373  14.494
25953SOL    HW279693  11.147  14.342  14.635
25954SOL     OW79694   2.865   9.501  14.672
25954SOL    HW179695   2.806   9.485  14.599
25954SOL    HW279696   2.931   9.561  14.636
25955SOL     OW79697  10.991   6.703  14.822
25955SOL    HW179698  10.967   6.788  14.784
25955SOL    HW279699  11.017   6.725   0.033
25956SOL     OW79700   1.118   1.001   7.457
25956SOL    HW179701   1.181   0.958   7.398
25956SOL    HW279702   1.045   1.025   7.400
25957SOL     OW79703   4.902   1.521  11.876
25957SOL    HW179704   4.889   1.454  11.808
25957SOL    HW279705   4.832   1.505  11.939
25958SOL     OW79706  11.787  14.603  14.616
25958SOL    HW179707  11.776  14.596  14.521
25958SOL    HW279708  11.868  14.652  14.627
25959SOL     OW79709  13.845  14.177  11.722
25959SOL    HW179710  13.856  14.272  11.713
25959SOL    HW279711  13.934  14.143  11.724
25960SOL     OW79712   7.036   5.296   8.444
25960SOL    HW179713   7.120   5.301   8.490
25960SOL    HW279714   6.971   5.316   8.511
25961SOL     OW79715  13.885   1.708   9.699
25961SOL    HW179716  13.936   1.653   9.639
25961SOL    HW279717  13.832   1.763   9.642
25962SOL     OW79718  12.361   4.939  12.453
25962SOL    HW179719  12.317   4.919  12.371
25962SOL    HW279720  12.297   4.916  12.521
25963SOL     OW79721   8.942   4.342   5.534
25963SOL    HW179722   8.856   4.316   5.500
25963SOL    HW279723   8.941   4.438   5.533
25964SOL     OW79724   0.923  12.806   7.567
25964SOL    HW179725   0.910  12.870   7.638
25964SOL    HW279726   0.969  12.734   7.609
25965SOL     OW79727   2.160   6.312   8.333
25965SOL    HW179728   2.118   6.344   8.253
25965SOL    HW279729   2.172   6.218   8.319
25966SOL     OW79730   9.260  13.645   0.822
25966SOL    HW179731   9.239  13.609   0.908
25966SOL    HW279732   9.225  13.581   0.760
25967SOL     OW79733   2.636   9.838   1.813
25967SOL    HW179734   2.681   9.911   1.854
25967SOL    HW279735   2.651   9.764   1.872
25968SOL     OW79736   4.819  14.037   8.767
25968SOL    HW179737   4.870  13.993   8.835
25968SOL    HW279738   4.730  14.041   8.803
25969SOL     OW79739  13.732   0.366   3.368
25969SOL    HW179740  13.745   0.402   3.281
25969SOL    HW279741  13.790   0.417   3.424
25970SOL     OW79742   1.761   9.573   2.130
25970SOL    HW179743   1.845   9.606   2.162
25970SOL    HW279744   1.783   9.490   2.088
25971SOL     OW79745   2.046   5.688  12.554
25971SOL    HW179746   1.985   5.614  12.551
25971SOL    HW279747   2.063   5.707  12.462
25972SOL     OW79748   9.061   9.759  10.784
25972SOL    HW179749   9.008   9.804  10.850
25972SOL    HW279750   8.997   9.720  10.725
25973SOL     OW79751   9.229  10.106  13.112
25973SOL    HW179752   9.299  10.152  13.157
25973SOL    HW279753   9.273  10.040  13.059
25974SOL     OW79754   2.108   1.456   8.323
25974SOL    HW179755   2.196   1.496   8.324
25974SOL    HW279756   2.110   1.395   8.250
25975SOL     OW79757   7.726   1.301   0.575
25975SOL    HW179758   7.808   1.333   0.539
25975SOL    HW279759   7.750   1.252   0.654
25976SOL     OW79760   8.633  13.000   5.555
25976SOL    HW179761   8.711  13.045   5.521
25976SOL    HW279762   8.561  13.031   5.500
25977SOL     OW79763   5.782   6.178  11.633
25977SOL    HW179764   5.802   6.268  11.608
25977SOL    HW279765   5.702   6.157  11.584
25978SOL     OW79766   0.908   1.701   6.377
25978SOL    HW179767   0.881   1.736   6.462
25978SOL    HW279768   0.950   1.618   6.397
25979SOL     OW79769   4.033   8.683  10.658
25979SOL    HW179770   4.029   8.634  10.740
25979SOL    HW279771   4.075   8.624  10.596
25980SOL     OW79772   9.058   3.085   9.619
25980SOL    HW179773   8.979   3.037   9.645
25980SOL    HW279774   9.130   3.039   9.662
25981SOL     OW79775   3.236   0.547   6.895
25981SOL    HW179776   3.297   0.621   6.904
25981SOL    HW279777   3.241   0.524   6.803
25982SOL     OW79778  11.896   4.289  14.604
25982SOL    HW179779  11.892   4.222  14.672
25982SOL    HW279780  11.808   4.288  14.564
25983SOL     OW79781   6.514  10.662   4.303
25983SOL    HW179782   6.537  10.581   4.347
25983SOL    HW279783   6.558  10.656   4.218
25984SOL     OW79784   6.384   4.790  13.028
25984SOL    HW179785   6.317   4.743  12.978
25984SOL    HW279786   6.335   4.835  13.097
25985SOL     OW79787   9.417  14.459   5.526
25985SOL    HW179788   9.445  14.389   5.585
25985SOL    HW279789   9.366  14.518   5.582
25986SOL     OW79790  13.957  14.379   3.347
25986SOL    HW179791  13.972  14.430   3.427
25986SOL    HW279792  13.864  14.391   3.329
25987SOL     OW79793   6.462   1.471   1.989
25987SOL    HW179794   6.514   1.527   1.931
25987SOL    HW279795   6.452   1.389   1.941
25988SOL     OW79796  12.160  13.808   7.713
25988SOL    HW179797  12.116  13.817   7.628
25988SOL    HW279798  12.095  13.764   7.768
25989SOL     OW79799   6.695  14.435   9.223
25989SOL    HW179800   6.764  14.388   9.177
25989SOL    HW279801   6.614  14.411   9.178
25990SOL     OW79802  10.441   2.578   8.193
25990SOL    HW179803  10.397   2.542   8.271
25990SOL    HW279804  10.464   2.667   8.217
25991SOL     OW79805   9.153   1.400   2.997
25991SOL    HW179806   9.237   1.365   2.966
25991SOL    HW279807   9.173   1.438   3.083
25992SOL     OW79808   4.997   9.822  12.991
25992SOL    HW179809   5.014   9.754  13.056
25992SOL    HW279810   4.902   9.834  12.994
25993SOL     OW79811   6.790   1.027  12.613
25993SOL    HW179812   6.818   1.084  12.686
25993SOL    HW279813   6.706   0.992  12.641
25994SOL     OW79814   1.254   6.027  12.383
25994SOL    HW179815   1.204   6.069  12.453
25994SOL    HW279816   1.229   6.073  12.304
25995SOL     OW79817   2.338  14.740   3.577
25995SOL    HW179818   2.287  14.687   3.638
25995SOL    HW279819   2.338  14.828   3.616
25996SOL     OW79820   1.087   0.751   8.974
25996SOL    HW179821   1.048   0.669   8.944
25996SOL    HW279822   1.175   0.751   8.938
25997SOL     OW79823   7.280   8.047   2.654
25997SOL    HW179824   7.203   7.991   2.643
25997SOL    HW279825   7.250   8.134   2.630
25998SOL     OW79826   1.266  12.991   5.500
25998SOL    HW179827   1.241  12.902   5.523
25998SOL    HW279828   1.223  13.007   5.416
25999SOL     OW79829   4.993   0.354   9.482
25999SOL    HW179830   5.030   0.268   9.500
25999SOL    HW279831   5.050   0.415   9.529
26000SOL     OW79832  10.597  12.996  13.728
26000SOL    HW179833  10.502  12.984  13.734
26000SOL    HW279834  10.624  12.938  13.657
26001SOL     OW79835  10.663   6.145  13.432
26001SOL    HW179836  10.756   6.166  13.421
26001SOL    HW279837  10.631   6.129  13.343
26002SOL     OW79838   4.655   6.399   1.200
26002SOL    HW179839   4.737   6.448   1.194
26002SOL    HW279840   4.681   6.314   1.238
26003SOL     OW79841   0.055   7.140   6.232
26003SOL    HW179842   0.042   7.208   6.298
26003SOL    HW279843   0.021   7.061   6.273
26004SOL     OW79844  13.011  12.459  12.333
26004SOL    HW179845  13.077  12.494  12.393
26004SOL    HW279846  12.969  12.537  12.296
26005SOL     OW79847   3.488   6.139   9.899
26005SOL    HW179848   3.525   6.212   9.948
26005SOL    HW279849   3.544   6.131   9.822
26006SOL     OW79850   8.148   3.834   0.310
26006SOL    HW179851   8.179   3.866   0.225
26006SOL    HW279852   8.192   3.891   0.374
26007SOL     OW79853  14.851   7.545   3.078
26007SOL    HW179854  14.852   7.636   3.109
26007SOL    HW279855  14.877   7.493   3.155
26008SOL     OW79856   9.320   4.918  10.519
26008SOL    HW179857   9.413   4.895  10.515
26008SOL    HW279858   9.306   4.975  10.443
26009SOL     OW79859   4.938  10.647   5.597
26009SOL    HW179860   4.933  10.617   5.688
26009SOL    HW279861   4.896  10.578   5.546
26010SOL     OW79862  14.594  11.048   7.992
26010SOL    HW179863  14.591  11.120   8.055
26010SOL    HW279864  14.660  10.988   8.027
26011SOL     OW79865  14.142  12.915   2.209
26011SOL    HW179866  14.113  12.977   2.276
26011SOL    HW279867  14.092  12.939   2.131
26012SOL     OW79868   1.332  12.355  14.737
26012SOL    HW179869   1.372  12.332  14.653
26012SOL    HW279870   1.405  12.355  14.799
26013SOL     OW79871   1.155   7.602  12.746
26013SOL    HW179872   1.144   7.570  12.835
26013SOL    HW279873   1.067   7.621  12.716
26014SOL     OW79874  13.748   2.970  11.062
26014SOL    HW179875  13.710   2.890  11.025
26014SOL    HW279876  13.774   3.021  10.986
26015SOL     OW79877  11.619   3.342  10.270
26015SOL    HW179878  11.609   3.339  10.366
26015SOL    HW279879  11.572   3.265  10.239
26016SOL     OW79880  13.476   6.996   6.037
26016SOL    HW179881  13.390   6.988   5.996
26016SOL    HW279882  13.507   7.083   6.010
26017SOL     OW79883  10.718  12.387   6.927
26017SOL    HW179884  10.626  12.407   6.910
26017SOL    HW279885  10.758  12.473   6.942
26018SOL     OW79886   4.940   4.453  12.715
26018SOL    HW179887   5.003   4.494  12.656
26018SOL    HW279888   4.992   4.391  12.766
26019SOL     OW79889  11.467   9.057   5.135
26019SOL    HW179890  11.464   9.148   5.164
26019SOL    HW279891  11.541   9.053   5.075
26020SOL     OW79892  11.522   4.083  10.720
26020SOL    HW179893  11.509   4.046  10.808
26020SOL    HW279894  11.566   4.014  10.672
26021SOL     OW79895   7.565  14.299  10.448
26021SOL    HW179896   7.523  14.368  10.396
26021SOL    HW279897   7.493  14.242  10.475
26022SOL     OW79898   0.266   3.719   4.082
26022SOL    HW179899   0.180   3.704   4.121
26022SOL    HW279900   0.293   3.633   4.049
26023SOL     OW79901   1.107   2.042   0.141
26023SOL    HW179902   1.060   1.964   0.110
26023SOL    HW279903   1.184   2.046   0.085
26024SOL     OW79904   4.236   1.504   5.656
26024SOL    HW179905   4.241   1.585   5.604
26024SOL    HW279906   4.153   1.464   5.631
26025SOL     OW79907   7.848   9.184   3.436
26025SOL    HW179908   7.909   9.184   3.362
26025SOL    HW279909   7.796   9.264   3.425
26026SOL     OW79910   2.469   3.401  12.400
26026SOL    HW179911   2.406   3.379  12.469
26026SOL    HW279912   2.428   3.473  12.352
26027SOL     OW79913  14.316   6.406  13.399
26027SOL    HW179914  14.287   6.372  13.314
26027SOL    HW279915  14.347   6.495  13.380
26028SOL     OW79916   5.483  14.852   5.129
26028SOL    HW179917   5.405  14.797   5.129
26028SOL    HW279918   5.474   0.028   5.051
26029SOL     OW79919   9.402   2.444   4.786
26029SOL    HW179920   9.413   2.401   4.701
26029SOL    HW279921   9.309   2.435   4.805
26030SOL     OW79922   0.278   9.517   2.646
26030SOL    HW179923   0.219   9.470   2.706
26030SOL    HW279924   0.363   9.474   2.658
26031SOL     OW79925   1.442   1.178  14.260
26031SOL    HW179926   1.356   1.182  14.302
26031SOL    HW279927   1.471   1.269  14.256
26032SOL     OW79928   4.685  12.897  12.316
26032SOL    HW179929   4.715  12.860  12.399
26032SOL    HW279930   4.627  12.829  12.280
26033SOL     OW79931  12.735   0.305   7.094
26033SOL    HW179932  12.692   0.239   7.149
26033SOL    HW279933  12.819   0.266   7.070
26034SOL     OW79934  12.579   6.466  14.107
26034SOL    HW179935  12.610   6.394  14.052
26034SOL    HW279936  12.600   6.438  14.196
26035SOL     OW79937   8.685   6.362   6.223
26035SOL    HW179938   8.615   6.303   6.251
26035SOL    HW279939   8.689   6.429   6.290
26036SOL     OW79940   7.009   0.792   9.637
26036SOL    HW179941   6.980   0.732   9.705
26036SOL    HW279942   6.960   0.873   9.654
26037SOL     OW79943   9.919  13.605   9.613
26037SOL    HW179944   9.901  13.686   9.662
26037SOL    HW279945   9.946  13.635   9.527
26038SOL     OW79946  12.017   4.431   3.990
26038SOL    HW179947  12.041   4.450   4.080
26038SOL    HW279948  12.019   4.516   3.946
26039SOL     OW79949  13.364  14.508   0.173
26039SOL    HW179950  13.428  14.443   0.203
26039SOL    HW279951  13.418  14.576   0.132
26040SOL     OW79952   4.152   1.923   2.056
26040SOL    HW179953   4.178   2.005   2.098
26040SOL    HW279954   4.069   1.900   2.098
26041SOL     OW79955   7.228  12.875  11.611
26041SOL    HW179956   7.258  12.963  11.588
26041SOL    HW279957   7.177  12.888  11.691
26042SOL     OW79958   1.352   7.011   5.031
26042SOL    HW179959   1.416   6.946   5.061
26042SOL    HW279960   1.307   7.038   5.111
26043SOL     OW79961  13.978   6.984  13.314
26043SOL    HW179962  13.973   7.065  13.365
26043SOL    HW279963  14.063   6.987  13.271
26044SOL     OW79964  12.442   6.331   7.322
26044SOL    HW179965  12.535   6.333   7.300
26044SOL    HW279966  12.421   6.238   7.330
26045SOL     OW79967   7.922   8.677   5.398
26045SOL    HW179968   7.951   8.760   5.360
26045SOL    HW279969   7.866   8.702   5.471
26046SOL     OW79970   4.833  11.724   0.682
26046SOL    HW179971   4.902  11.694   0.622
26046SOL    HW279972   4.802  11.644   0.725
26047SOL     OW79973   0.426   8.322   8.579
26047SOL    HW179974   0.500   8.283   8.531
26047SOL    HW279975   0.465   8.355   8.660
26048SOL     OW79976  10.756   8.210   5.493
26048SOL    HW179977  10.714   8.204   5.579
26048SOL    HW279978  10.733   8.127   5.450
26049SOL     OW79979   0.957  13.058   0.858
26049SOL    HW179980   0.878  13.016   0.890
26049SOL    HW279981   0.960  13.035   0.765
26050SOL     OW79982  11.974  12.911  12.297
26050SOL    HW179983  11.954  12.957  12.215
26050SOL    HW279984  11.891  12.874  12.325
26051SOL     OW79985   4.038   1.346   1.180
26051SOL    HW179986   4.038   1.325   1.274
26051SOL    HW279987   3.984   1.278   1.140
26052SOL     OW79988   0.711   6.567  14.734
26052SOL    HW179989   0.634   6.511  14.743
26052SOL    HW279990   0.693   6.621  14.657
26053SOL     OW79991  13.363   1.073   1.166
26053SOL    HW179992  13.371   1.156   1.213
26053SOL    HW279993  13.270   1.067   1.145
26054SOL     OW79994   9.205  10.328   1.022
26054SOL    HW179995   9.299  10.314   1.030
26054SOL    HW279996   9.185  10.396   1.087
26055SOL     OW79997   2.494   6.194   0.721
26055SOL    HW179998   2.433   6.120   0.722
26055SOL    HW279999   2.580   6.155   0.738
26056SOL     OW80000   6.282  13.452  14.400
26056SOL    HW180001   6.219  13.403  14.346
26056SOL    HW280002   6.358  13.464  14.343
26057SOL     OW80003   1.963  12.173   9.325
26057SOL    HW180004   2.038  12.115   9.337
26057SOL    HW280005   1.916  12.170   9.408
26058SOL     OW80006   0.350  13.682   5.249
26058SOL    HW180007   0.313  13.759   5.205
26058SOL    HW280008   0.432  13.713   5.286
26059SOL     OW80009   5.433  11.149   7.390
26059SOL    HW180010   5.401  11.192   7.310
26059SOL    HW280011   5.353  11.120   7.434
26060SOL     OW80012   4.031  13.266  11.044
26060SOL    HW180013   3.972  13.217  11.101
26060SOL    HW280014   4.000  13.357  11.049
26061SOL     OW80015   4.792  10.929   4.444
26061SOL    HW180016   4.734  10.869   4.396
26061SOL    HW280017   4.733  10.980   4.499
26062SOL     OW80018  12.156  14.158  13.632
26062SOL    HW180019  12.237  14.109  13.645
26062SOL    HW280020  12.127  14.132  13.544
26063SOL     OW80021   2.252  13.546  12.189
26063SOL    HW180022   2.346  13.550  12.205
26063SOL    HW280023   2.213  13.594  12.263
26064SOL     OW80024   7.731   7.076   1.997
26064SOL    HW180025   7.710   7.053   1.906
26064SOL    HW280026   7.826   7.064   2.003
26065SOL     OW80027   8.542   4.746  10.063
26065SOL    HW180028   8.537   4.663  10.111
26065SOL    HW280029   8.619   4.790  10.100
26066SOL     OW80030   9.364  10.315   0.012
26066SOL    HW180031   9.360  10.230  14.846
26066SOL    HW280032   9.367  10.379  14.820
26067SOL     OW80033   3.814   5.917   0.300
26067SOL    HW180034   3.722   5.922   0.323
26067SOL    HW280035   3.830   5.823   0.285
26068SOL     OW80036   1.610   7.481   8.788
26068SOL    HW180037   1.641   7.395   8.761
26068SOL    HW280038   1.572   7.468   8.875
26069SOL     OW80039  12.975   9.891   9.215
26069SOL    HW180040  12.924   9.811   9.201
26069SOL    HW280041  12.943   9.951   9.148
26070SOL     OW80042  11.238   8.942  11.336
26070SOL    HW180043  11.201   8.854  11.350
26070SOL    HW280044  11.306   8.928  11.270
26071SOL     OW80045   0.346   5.046  11.123
26071SOL    HW180046   0.279   5.032  11.056
26071SOL    HW280047   0.374   5.137  11.111
26072SOL     OW80048   0.259  12.953   0.120
26072SOL    HW180049   0.232  12.865   0.147
26072SOL    HW280050   0.228  13.010   0.190
26073SOL     OW80051   9.570  14.673   2.091
26073SOL    HW180052   9.649  14.619   2.096
26073SOL    HW280053   9.502  14.612   2.063
26074SOL     OW80054   4.107   6.673   9.996
26074SOL    HW180055   4.130   6.753   9.949
26074SOL    HW280056   4.058   6.704  10.072
26075SOL     OW80057   6.775  14.307   1.445
26075SOL    HW180058   6.860  14.276   1.413
26075SOL    HW280059   6.714  14.284   1.376
26076SOL     OW80060   7.305  10.051  11.850
26076SOL    HW180061   7.378  10.111  11.865
26076SOL    HW280062   7.346   9.966  11.832
26077SOL     OW80063   7.149  14.814   4.797
26077SOL    HW180064   7.201  14.856   4.729
26077SOL    HW280065   7.213  14.789   4.865
26078SOL     OW80066  13.652   3.396  11.699
26078SOL    HW180067  13.717   3.432  11.760
26078SOL    HW280068  13.584   3.463  11.695
26079SOL     OW80069   4.758  12.243   4.225
26079SOL    HW180070   4.781  12.331   4.255
26079SOL    HW280071   4.753  12.250   4.130
26080SOL     OW80072  11.898  10.323   7.544
26080SOL    HW180073  11.835  10.251   7.539
26080SOL    HW280074  11.958  10.298   7.614
26081SOL     OW80075   0.266   6.347  12.401
26081SOL    HW180076   0.272   6.436  12.365
26081SOL    HW280077   0.324   6.295  12.345
26082SOL     OW80078   4.969   3.912   2.707
26082SOL    HW180079   4.901   3.873   2.652
26082SOL    HW280080   5.049   3.907   2.654
26083SOL     OW80081   4.125  12.221   6.812
26083SOL    HW180082   4.134  12.139   6.860
26083SOL    HW280083   4.121  12.288   6.880
26084SOL     OW80084  11.079   6.439   6.359
26084SOL    HW180085  11.038   6.524   6.344
26084SOL    HW280086  11.173   6.457   6.357
26085SOL     OW80087   3.622   5.358  10.050
26085SOL    HW180088   3.550   5.380   9.990
26085SOL    HW280089   3.609   5.417  10.125
26086SOL     OW80090   7.166   7.498   6.786
26086SOL    HW180091   7.141   7.459   6.702
26086SOL    HW280092   7.241   7.554   6.764
26087SOL     OW80093  13.539  12.329   3.330
26087SOL    HW180094  13.496  12.414   3.332
26087SOL    HW280095  13.495  12.281   3.261
26088SOL     OW80096   7.332  11.814   6.877
26088SOL    HW180097   7.392  11.794   6.950
26088SOL    HW280098   7.331  11.735   6.824
26089SOL     OW80099  13.574   2.337   6.203
26089SOL    HW180100  13.619   2.267   6.250
26089SOL    HW280101  13.481   2.315   6.210
26090SOL     OW80102  14.080   2.452   4.335
26090SOL    HW180103  13.988   2.478   4.339
26090SOL    HW280104  14.101   2.425   4.425
26091SOL     OW80105   9.314  11.289   4.501
26091SOL    HW180106   9.231  11.335   4.515
26091SOL    HW280107   9.316  11.222   4.569
26092SOL     OW80108   1.527   9.621   6.014
26092SOL    HW180109   1.500   9.630   5.922
26092SOL    HW280110   1.530   9.711   6.047
26093SOL     OW80111   9.764   7.009   4.602
26093SOL    HW180112   9.808   6.933   4.565
26093SOL    HW280113   9.772   6.998   4.697
26094SOL     OW80114  10.488   9.338  11.899
26094SOL    HW180115  10.531   9.289  11.969
26094SOL    HW280116  10.509   9.290  11.819
26095SOL     OW80117   9.650   3.735   6.783
26095SOL    HW180118   9.734   3.693   6.801
26095SOL    HW280119   9.669   3.828   6.782
26096SOL     OW80120   7.736   4.897   1.779
26096SOL    HW180121   7.656   4.930   1.737
26096SOL    HW280122   7.795   4.880   1.706
26097SOL     OW80123  14.077   2.080   6.789
26097SOL    HW180124  14.090   2.174   6.777
26097SOL    HW280125  14.100   2.042   6.704
26098SOL     OW80126  13.404   1.422   4.837
26098SOL    HW180127  13.406   1.430   4.932
26098SOL    HW280128  13.482   1.469   4.807
26099SOL     OW80129   5.297   6.678   2.573
26099SOL    HW180130   5.320   6.614   2.641
26099SOL    HW280131   5.380   6.698   2.530
26100SOL     OW80132   2.223  12.954   2.074
26100SOL    HW180133   2.256  12.979   2.160
26100SOL    HW280134   2.189  13.036   2.037
26101SOL     OW80135   2.538  13.513  13.678
26101SOL    HW180136   2.482  13.476  13.747
26101SOL    HW280137   2.555  13.602  13.708
26102SOL     OW80138  12.397  12.797  12.501
26102SOL    HW180139  12.328  12.787  12.435
26102SOL    HW280140  12.353  12.840  12.574
26103SOL     OW80141   6.366   9.227  14.501
26103SOL    HW180142   6.382   9.312  14.459
26103SOL    HW280143   6.367   9.246  14.594
26104SOL     OW80144  14.602   4.389  12.161
26104SOL    HW180145  14.544   4.464  12.151
26104SOL    HW280146  14.686   4.427  12.188
26105SOL     OW80147  13.762   1.511   9.236
26105SOL    HW180148  13.717   1.560   9.167
26105SOL    HW280149  13.706   1.520   9.313
26106SOL     OW80150  13.330   3.948   8.384
26106SOL    HW180151  13.282   3.895   8.320
26106SOL    HW280152  13.391   3.888   8.425
26107SOL     OW80153  11.805   4.519   7.378
26107SOL    HW180154  11.846   4.471   7.305
26107SOL    HW280155  11.711   4.512   7.361
26108SOL     OW80156   4.192   0.684   8.291
26108SOL    HW180157   4.147   0.603   8.267
26108SOL    HW280158   4.284   0.659   8.300
26109SOL     OW80159   6.020   5.427   1.858
26109SOL    HW180160   6.024   5.460   1.948
26109SOL    HW280161   6.010   5.333   1.867
26110SOL     OW80162   7.648  10.582   8.769
26110SOL    HW180163   7.596  10.553   8.694
26110SOL    HW280164   7.738  10.586   8.735
26111SOL     OW80165   4.917  12.434   5.564
26111SOL    HW180166   4.869  12.393   5.492
26111SOL    HW280167   4.866  12.512   5.586
26112SOL     OW80168  11.468  13.126   8.324
26112SOL    HW180169  11.535  13.059   8.340
26112SOL    HW280170  11.428  13.140   8.410
26113SOL     OW80171  13.148  10.327   0.650
26113SOL    HW180172  13.136  10.249   0.597
26113SOL    HW280173  13.142  10.296   0.740
26114SOL     OW80174  11.443   5.130   5.131
26114SOL    HW180175  11.399   5.183   5.064
26114SOL    HW280176  11.502   5.192   5.175
26115SOL     OW80177   5.027   9.702   2.284
26115SOL    HW180178   5.010   9.649   2.362
26115SOL    HW280179   5.011   9.792   2.312
26116SOL     OW80180  12.861   3.231  11.908
26116SOL    HW180181  12.896   3.263  11.825
26116SOL    HW280182  12.873   3.137  11.905
26117SOL     OW80183   5.111   4.808   3.789
26117SOL    HW180184   5.087   4.720   3.761
26117SOL    HW280185   5.069   4.866   3.726
26118SOL     OW80186  13.273   3.521   8.985
26118SOL    HW180187  13.292   3.588   9.050
26118SOL    HW280188  13.346   3.459   8.993
26119SOL     OW80189  11.111  14.224   7.901
26119SOL    HW180190  11.155  14.309   7.912
26119SOL    HW280191  11.167  14.163   7.949
26120SOL     OW80192  10.201  10.278   2.522
26120SOL    HW180193  10.293  10.250   2.524
26120SOL    HW280194  10.201  10.354   2.464
26121SOL     OW80195   2.353   2.715  14.527
26121SOL    HW180196   2.416   2.787  14.521
26121SOL    HW280197   2.282   2.751  14.582
26122SOL     OW80198  13.306   9.237   7.928
26122SOL    HW180199  13.277   9.328   7.923
26122SOL    HW280200  13.234   9.186   7.891
26123SOL     OW80201   5.845   3.415   3.267
26123SOL    HW180202   5.927   3.438   3.223
26123SOL    HW280203   5.855   3.450   3.356
26124SOL     OW80204  14.765   9.033  12.295
26124SOL    HW180205  14.835   8.967  12.293
26124SOL    HW280206  14.811   9.116  12.307
26125SOL     OW80207   4.759   2.491   7.142
26125SOL    HW180208   4.821   2.423   7.164
26125SOL    HW280209   4.794   2.531   7.062
26126SOL     OW80210   2.966   1.851  10.862
26126SOL    HW180211   2.926   1.793  10.927
26126SOL    HW280212   2.946   1.811  10.778
26127SOL     OW80213   0.336  13.970   5.095
26127SOL    HW180214   0.286  13.896   5.062
26127SOL    HW280215   0.308  13.980   5.186
26128SOL     OW80216  11.685   0.701   3.757
26128SOL    HW180217  11.700   0.691   3.663
26128SOL    HW280218  11.715   0.790   3.777
26129SOL     OW80219   4.445  12.901   5.695
26129SOL    HW180220   4.389  12.831   5.728
26129SOL    HW280221   4.514  12.856   5.648
26130SOL     OW80222   0.832   5.679   1.804
26130SOL    HW180223   0.919   5.667   1.767
26130SOL    HW280224   0.800   5.590   1.820
26131SOL     OW80225   9.602  10.323   1.828
26131SOL    HW180226   9.533  10.379   1.864
26131SOL    HW280227   9.557  10.269   1.763
26132SOL     OW80228   9.969   4.285   6.366
26132SOL    HW180229   9.980   4.254   6.456
26132SOL    HW280230   9.900   4.230   6.329
26133SOL     OW80231   5.844   1.622   3.370
26133SOL    HW180232   5.788   1.560   3.416
26133SOL    HW280233   5.849   1.698   3.428
26134SOL     OW80234   8.509   2.192  12.026
26134SOL    HW180235   8.527   2.212  12.118
26134SOL    HW280236   8.566   2.118  12.007
26135SOL     OW80237   2.026  13.395  13.614
26135SOL    HW180238   1.947  13.419  13.662
26135SOL    HW280239   2.056  13.314  13.654
26136SOL     OW80240  14.405   6.573  11.546
26136SOL    HW180241  14.365   6.653  11.513
26136SOL    HW280242  14.344   6.541  11.612
26137SOL     OW80243   7.710  10.407   7.475
26137SOL    HW180244   7.751  10.350   7.411
26137SOL    HW280245   7.779  10.424   7.540
26138SOL     OW80246   5.403  14.322   4.123
26138SOL    HW180247   5.359  14.406   4.112
26138SOL    HW280248   5.488  14.334   4.080
26139SOL     OW80249   5.405  12.461   9.955
26139SOL    HW180250   5.444  12.379   9.987
26139SOL    HW280251   5.332  12.477  10.014
26140SOL     OW80252   0.098   5.905  13.142
26140SOL    HW180253   0.139   5.911  13.056
26140SOL    HW280254   0.022   5.848  13.128
26141SOL     OW80255   6.381   3.609   9.975
26141SOL    HW180256   6.362   3.615   9.881
26141SOL    HW280257   6.296   3.622  10.018
26142SOL     OW80258   5.131   9.332  10.146
26142SOL    HW180259   5.172   9.258  10.101
26142SOL    HW280260   5.203   9.374  10.194
26143SOL     OW80261   0.474   3.528  14.031
26143SOL    HW180262   0.419   3.467  13.984
26143SOL    HW280263   0.469   3.609  13.981
26144SOL     OW80264  13.300   7.108  14.835
26144SOL    HW180265  13.236   7.170  14.872
26144SOL    HW280266  13.350   7.160  14.773
26145SOL     OW80267  11.711  10.130   1.092
26145SOL    HW180268  11.629  10.145   1.140
26145SOL    HW280269  11.689  10.063   1.027
26146SOL     OW80270   0.104   4.120   9.040
26146SOL    HW180271   0.047   4.136   8.965
26146SOL    HW280272   0.178   4.071   9.004
26147SOL     OW80273   4.428   2.580  14.777
26147SOL    HW180274   4.355   2.639  14.798
26147SOL    HW280275   4.402   2.537  14.696
26148SOL     OW80276  13.079   6.408   4.895
26148SOL    HW180277  13.161   6.456   4.903
26148SOL    HW280278  13.035   6.422   4.979
26149SOL     OW80279   6.093   1.891   9.653
26149SOL    HW180280   6.101   1.811   9.602
26149SOL    HW280281   6.177   1.934   9.643
26150SOL     OW80282   6.320   5.650   1.586
26150SOL    HW180283   6.263   5.579   1.559
26150SOL    HW280284   6.280   5.684   1.666
26151SOL     OW80285   0.374   9.299  11.659
26151SOL    HW180286   0.295   9.295  11.712
26151SOL    HW280287   0.342   9.294  11.569
26152SOL     OW80288   2.482   7.002  10.287
26152SOL    HW180289   2.443   7.044  10.364
26152SOL    HW280290   2.457   7.058  10.213
26153SOL     OW80291   4.317  11.138   1.262
26153SOL    HW180292   4.343  11.097   1.179
26153SOL    HW280293   4.342  11.076   1.329
26154SOL     OW80294   7.772   2.280  13.839
26154SOL    HW180295   7.864   2.298  13.861
26154SOL    HW280296   7.776   2.206  13.779
26155SOL     OW80297   0.777   3.199  13.230
26155SOL    HW180298   0.808   3.289  13.226
26155SOL    HW280299   0.777   3.177  13.323
26156SOL     OW80300  12.527   0.062   0.610
26156SOL    HW180301  12.608   0.101   0.642
26156SOL    HW280302  12.547  14.848   0.602
26157SOL     OW80303  13.825   8.215  14.826
26157SOL    HW180304  13.835   8.122  14.805
26157SOL    HW280305  13.756   8.246  14.766
26158SOL     OW80306   9.034   8.968   2.176
26158SOL    HW180307   9.108   9.014   2.215
26158SOL    HW280308   8.958   9.022   2.198
26159SOL     OW80309   4.446  12.085   8.530
26159SOL    HW180310   4.471  12.077   8.622
26159SOL    HW280311   4.518  12.133   8.489
26160SOL     OW80312  14.251   0.348  10.519
26160SOL    HW180313  14.163   0.320  10.493
26160SOL    HW280314  14.304   0.269  10.512
26161SOL     OW80315   1.500  13.708  12.223
26161SOL    HW180316   1.577  13.763  12.214
26161SOL    HW280317   1.526  13.624  12.184
26162SOL     OW80318   7.737   4.665   8.916
26162SOL    HW180319   7.803   4.643   8.982
26162SOL    HW280320   7.782   4.724   8.856
26163SOL     OW80321  14.387  11.841  14.812
26163SOL    HW180322  14.388  11.926  14.855
26163SOL    HW280323  14.459  11.846  14.748
26164SOL     OW80324  11.677  10.540   4.832
26164SOL    HW180325  11.627  10.572   4.906
26164SOL    HW280326  11.766  10.571   4.848
26165SOL     OW80327   2.956   0.893  14.177
26165SOL    HW180328   2.992   0.929  14.259
26165SOL    HW280329   3.033   0.866  14.127
26166SOL     OW80330   0.559   1.438   8.959
26166SOL    HW180331   0.529   1.457   8.870
26166SOL    HW280332   0.512   1.358   8.983
26167SOL     OW80333   6.355  14.700  11.747
26167SOL    HW180334   6.398  14.779  11.781
26167SOL    HW280335   6.338  14.647  11.825
26168SOL     OW80336   3.503  14.800   3.935
26168SOL    HW180337   3.411  14.827   3.935
26168SOL    HW280338   3.545  14.859   3.872
26169SOL     OW80339   9.298   1.199  14.749
26169SOL    HW180340   9.206   1.198  14.724
26169SOL    HW280341   9.329   1.110  14.730
26170SOL     OW80342   9.365   3.296  13.879
26170SOL    HW180343   9.410   3.288  13.796
26170SOL    HW280344   9.276   3.322  13.856
26171SOL     OW80345   0.537   6.940   8.144
26171SOL    HW180346   0.530   7.034   8.161
26171SOL    HW280347   0.627   6.927   8.117
26172SOL     OW80348   3.539  13.922   0.563
26172SOL    HW180349   3.558  13.895   0.473
26172SOL    HW280350   3.444  13.936   0.564
26173SOL     OW80351   6.251   6.442   0.245
26173SOL    HW180352   6.218   6.390   0.172
26173SOL    HW280353   6.192   6.421   0.317
26174SOL     OW80354   2.963   1.555   9.894
26174SOL    HW180355   2.891   1.503   9.930
26174SOL    HW280356   2.976   1.521   9.806
26175SOL     OW80357   0.869  12.122   9.326
26175SOL    HW180358   0.881  12.030   9.301
26175SOL    HW280359   0.779  12.142   9.301
26176SOL     OW80360   6.177  13.791   5.288
26176SOL    HW180361   6.098  13.846   5.295
26176SOL    HW280362   6.147  13.712   5.243
26177SOL     OW80363   9.556   3.671   7.410
26177SOL    HW180364   9.535   3.697   7.320
26177SOL    HW280365   9.650   3.685   7.418
26178SOL     OW80366   1.855  13.862  13.604
26178SOL    HW180367   1.809  13.779  13.614
26178SOL    HW280368   1.803  13.910  13.539
26179SOL     OW80369  11.994   5.172   9.607
26179SOL    HW180370  12.066   5.197   9.549
26179SOL    HW280371  11.925   5.142   9.548
26180SOL     OW80372   7.111  14.860  14.088
26180SOL    HW180373   7.184  14.831  14.142
26180SOL    HW280374   7.037  14.864  14.149
26181SOL     OW80375   9.126  12.773   9.260
26181SOL    HW180376   9.099  12.862   9.238
26181SOL    HW280377   9.044  12.723   9.263
26182SOL     OW80378   2.195   1.588   5.472
26182SOL    HW180379   2.278   1.634   5.484
26182SOL    HW280380   2.160   1.577   5.561
26183SOL     OW80381   8.859  12.763   6.309
26183SOL    HW180382   8.934  12.765   6.251
26183SOL    HW280383   8.789  12.807   6.260
26184SOL     OW80384   0.998   1.503   5.581
26184SOL    HW180385   1.088   1.534   5.591
26184SOL    HW280386   0.991   1.430   5.643
26185SOL     OW80387   0.419  14.255   1.989
26185SOL    HW180388   0.357  14.251   1.917
26185SOL    HW280389   0.481  14.324   1.963
26186SOL     OW80390  12.382  13.265   8.936
26186SOL    HW180391  12.416  13.178   8.961
26186SOL    HW280392  12.460  13.313   8.909
26187SOL     OW80393   7.086  12.135   4.813
26187SOL    HW180394   7.042  12.122   4.729
26187SOL    HW280395   7.061  12.224   4.839
26188SOL     OW80396  14.487   6.258   4.151
26188SOL    HW180397  14.515   6.250   4.059
26188SOL    HW280398  14.392   6.262   4.147
26189SOL     OW80399   2.372  12.351   7.027
26189SOL    HW180400   2.410  12.386   6.947
26189SOL    HW280401   2.287  12.396   7.035
26190SOL     OW80402  13.317  10.307   9.766
26190SOL    HW180403  13.262  10.313   9.843
26190SOL    HW280404  13.314  10.394   9.727
26191SOL     OW80405   2.420   1.576   4.641
26191SOL    HW180406   2.468   1.627   4.575
26191SOL    HW280407   2.420   1.487   4.606
26192SOL     OW80408  10.871   4.992   6.434
26192SOL    HW180409  10.844   5.083   6.424
26192SOL    HW280410  10.790   4.942   6.425
26193SOL     OW80411   7.156   1.166   6.301
26193SOL    HW180412   7.121   1.093   6.353
26193SOL    HW280413   7.250   1.163   6.315
26194SOL     OW80414  14.710   0.337   4.973
26194SOL    HW180415  14.772   0.376   5.035
26194SOL    HW280416  14.716   0.393   4.895
26195SOL     OW80417   5.081   6.233   9.860
26195SOL    HW180418   5.032   6.201   9.785
26195SOL    HW280419   5.015   6.267   9.920
26196SOL     OW80420  12.027   9.108   0.249
26196SOL    HW180421  11.996   9.058   0.173
26196SOL    HW280422  11.973   9.188   0.248
26197SOL     OW80423   2.002  11.951   3.096
26197SOL    HW180424   2.050  12.000   3.162
26197SOL    HW280425   1.911  11.981   3.105
26198SOL     OW80426   2.387   6.533  13.915
26198SOL    HW180427   2.342   6.453  13.942
26198SOL    HW280428   2.317   6.596  13.899
26199SOL     OW80429   4.191  12.318  13.678
26199SOL    HW180430   4.275  12.359  13.661
26199SOL    HW280431   4.210  12.248  13.740
26200SOL     OW80432   4.165   8.357  12.875
26200SOL    HW180433   4.086   8.386  12.830
26200SOL    HW280434   4.161   8.397  12.961
26201SOL     OW80435  14.733   3.839   6.097
26201SOL    HW180436  14.673   3.913   6.087
26201SOL    HW280437  14.730   3.819   6.190
26202SOL     OW80438  12.141  14.515  12.969
26202SOL    HW180439  12.079  14.585  12.992
26202SOL    HW280440  12.085  14.446  12.933
26203SOL     OW80441   2.846   1.104  11.562
26203SOL    HW180442   2.858   1.169  11.493
26203SOL    HW280443   2.841   1.156  11.643
26204SOL     OW80444  11.647  14.423   1.797
26204SOL    HW180445  11.709  14.457   1.862
26204SOL    HW280446  11.677  14.333   1.780
26205SOL     OW80447   8.917   8.759   0.609
26205SOL    HW180448   8.888   8.703   0.536
26205SOL    HW280449   8.973   8.825   0.568
26206SOL     OW80450  13.574   6.354   9.334
26206SOL    HW180451  13.590   6.267   9.296
26206SOL    HW280452  13.634   6.411   9.287
26207SOL     OW80453   3.347   5.445   8.618
26207SOL    HW180454   3.272   5.440   8.558
26207SOL    HW280455   3.411   5.384   8.581
26208SOL     OW80456   1.253   7.144  12.411
26208SOL    HW180457   1.338   7.169  12.447
26208SOL    HW280458   1.240   7.053  12.439
26209SOL     OW80459  14.336  13.557   0.352
26209SOL    HW180460  14.316  13.563   0.258
26209SOL    HW280461  14.422  13.597   0.360
26210SOL     OW80462  14.157   0.505   5.636
26210SOL    HW180463  14.202   0.423   5.655
26210SOL    HW280464  14.131   0.538   5.722
26211SOL     OW80465  11.517  14.447   5.256
26211SOL    HW180466  11.570  14.503   5.313
26211SOL    HW280467  11.430  14.446   5.297
26212SOL     OW80468   9.346  11.469   8.164
26212SOL    HW180469   9.358  11.508   8.250
26212SOL    HW280470   9.414  11.401   8.159
26213SOL     OW80471  11.122   1.814   0.884
26213SOL    HW180472  11.188   1.872   0.847
26213SOL    HW280473  11.041   1.866   0.886
26214SOL     OW80474   7.849   6.956   5.528
26214SOL    HW180475   7.878   7.046   5.513
26214SOL    HW280476   7.811   6.958   5.616
26215SOL     OW80477   7.594  11.961  10.098
26215SOL    HW180478   7.687  11.973  10.115
26215SOL    HW280479   7.561  11.914  10.175
26216SOL     OW80480   5.847   7.758   6.810
26216SOL    HW180481   5.856   7.822   6.880
26216SOL    HW280482   5.783   7.797   6.750
26217SOL     OW80483  10.544   5.476   4.034
26217SOL    HW180484  10.466   5.480   4.089
26217SOL    HW280485  10.532   5.397   3.981
26218SOL     OW80486   6.909   5.081  10.340
26218SOL    HW180487   6.868   5.000  10.369
26218SOL    HW280488   6.897   5.142  10.413
26219SOL     OW80489  12.631  12.763   1.938
26219SOL    HW180490  12.577  12.828   1.892
26219SOL    HW280491  12.705  12.748   1.879
26220SOL     OW80492   5.813  14.492   3.832
26220SOL    HW180493   5.772  14.428   3.773
26220SOL    HW280494   5.882  14.532   3.780
26221SOL     OW80495  10.761   2.284   5.692
26221SOL    HW180496  10.697   2.348   5.661
26221SOL    HW280497  10.794   2.321   5.774
26222SOL     OW80498  11.662  11.097  11.773
26222SOL    HW180499  11.716  11.175  11.762
26222SOL    HW280500  11.676  11.047  11.692
26223SOL     OW80501  11.684   9.872   6.680
26223SOL    HW180502  11.622   9.843   6.746
26223SOL    HW280503  11.701   9.794   6.627
26224SOL     OW80504   1.704  11.051   2.354
26224SOL    HW180505   1.656  11.053   2.271
26224SOL    HW280506   1.635  11.046   2.421
26225SOL     OW80507  11.457   5.067  12.608
26225SOL    HW180508  11.440   5.114  12.526
26225SOL    HW280509  11.395   5.105  12.670
26226SOL     OW80510   3.096   2.951   0.384
26226SOL    HW180511   3.061   2.993   0.306
26226SOL    HW280512   3.097   3.021   0.450
26227SOL     OW80513   8.118   5.931   4.559
26227SOL    HW180514   8.058   5.986   4.608
26227SOL    HW280515   8.202   5.939   4.605
26228SOL     OW80516  10.177   0.828   1.812
26228SOL    HW180517  10.164   0.832   1.717
26228SOL    HW280518  10.108   0.769   1.843
26229SOL     OW80519   7.195  13.396  14.373
26229SOL    HW180520   7.260  13.427  14.309
26229SOL    HW280521   7.162  13.314  14.335
26230SOL     OW80522   4.505   2.995  11.353
26230SOL    HW180523   4.544   3.075  11.390
26230SOL    HW280524   4.411   3.003  11.373
26231SOL     OW80525   8.425  12.564  11.062
26231SOL    HW180526   8.502  12.523  11.102
26231SOL    HW280527   8.456  12.593  10.976
26232SOL     OW80528   5.302   9.459  11.430
26232SOL    HW180529   5.292   9.365  11.414
26232SOL    HW280530   5.380   9.484  11.381
26233SOL     OW80531  10.926   8.859   9.049
26233SOL    HW180532  10.918   8.935   8.991
26233SOL    HW280533  10.933   8.784   8.991
26234SOL     OW80534   3.830   6.503   9.005
26234SOL    HW180535   3.761   6.466   9.060
26234SOL    HW280536   3.906   6.446   9.020
26235SOL     OW80537  12.457   1.617  14.302
26235SOL    HW180538  12.429   1.613  14.210
26235SOL    HW280539  12.377   1.635  14.351
26236SOL     OW80540   2.467  12.972   4.522
26236SOL    HW180541   2.521  13.045   4.551
26236SOL    HW280542   2.398  13.013   4.469
26237SOL     OW80543   6.753   1.822   1.393
26237SOL    HW180544   6.749   1.842   1.486
26237SOL    HW280545   6.687   1.754   1.380
26238SOL     OW80546   1.357  10.068   4.469
26238SOL    HW180547   1.346  10.161   4.491
26238SOL    HW280548   1.450  10.060   4.448
26239SOL     OW80549   7.244   6.411  10.335
26239SOL    HW180550   7.179   6.367  10.390
26239SOL    HW280551   7.202   6.421  10.250
26240SOL     OW80552  12.450   0.060   5.107
26240SOL    HW180553  12.420  14.866   5.160
26240SOL    HW280554  12.511   0.021   5.045
26241SOL     OW80555   0.688   7.537   0.029
26241SOL    HW180556   0.714   7.624  14.878
26241SOL    HW280557   0.735   7.524   0.111
26242SOL     OW80558   8.633   7.912   8.368
26242SOL    HW180559   8.551   7.957   8.388
26242SOL    HW280560   8.688   7.979   8.326
26243SOL     OW80561   8.359   8.240  14.057
26243SOL    HW180562   8.324   8.152  14.069
26243SOL    HW280563   8.447   8.237  14.096
26244SOL     OW80564  10.021   6.798  13.968
26244SOL    HW180565   9.949   6.734  13.966
26244SOL    HW280566  10.018   6.834  14.057
26245SOL     OW80567  11.814   4.402   2.541
26245SOL    HW180568  11.844   4.455   2.615
26245SOL    HW280569  11.858   4.317   2.554
26246SOL     OW80570  14.676   9.340   0.091
26246SOL    HW180571  14.765   9.343   0.126
26246SOL    HW280572  14.688   9.315  14.878
26247SOL     OW80573   5.535   9.919   4.433
26247SOL    HW180574   5.619   9.873   4.432
26247SOL    HW280575   5.491   9.886   4.511
26248SOL     OW80576   1.344   2.835   7.503
26248SOL    HW180577   1.401   2.907   7.477
26248SOL    HW280578   1.373   2.813   7.592
26249SOL     OW80579   6.486   5.868  10.059
26249SOL    HW180580   6.404   5.819  10.047
26249SOL    HW280581   6.554   5.801  10.062
26250SOL     OW80582   0.103   3.639   4.744
26250SOL    HW180583   0.128   3.576   4.677
26250SOL    HW280584   0.184   3.686   4.764
26251SOL     OW80585  11.589   6.826   9.137
26251SOL    HW180586  11.579   6.796   9.228
26251SOL    HW280587  11.569   6.919   9.140
26252SOL     OW80588   3.621   7.359   0.640
26252SOL    HW180589   3.701   7.376   0.690
26252SOL    HW280590   3.635   7.272   0.603
26253SOL     OW80591   8.509   8.445   9.021
26253SOL    HW180592   8.458   8.365   9.007
26253SOL    HW280593   8.549   8.462   8.936
26254SOL     OW80594  11.044   8.234   9.537
26254SOL    HW180595  11.012   8.325   9.540
26254SOL    HW280596  11.119   8.237   9.479
26255SOL     OW80597   2.568   6.820   7.038
26255SOL    HW180598   2.564   6.814   6.942
26255SOL    HW280599   2.593   6.911   7.055
26256SOL     OW80600   9.350   0.230   7.672
26256SOL    HW180601   9.315   0.263   7.755
26256SOL    HW280602   9.415   0.165   7.699
26257SOL     OW80603   2.564   4.950   0.965
26257SOL    HW180604   2.568   4.937   1.060
26257SOL    HW280605   2.483   4.907   0.938
26258SOL     OW80606  13.284   2.723   9.121
26258SOL    HW180607  13.258   2.744   9.032
26258SOL    HW280608  13.301   2.808   9.162
26259SOL     OW80609  11.057  13.038  10.420
26259SOL    HW180610  11.055  12.959  10.473
26259SOL    HW280611  11.095  13.105  10.477
26260SOL     OW80612   9.102   1.983   0.988
26260SOL    HW180613   9.122   1.898   1.029
26260SOL    HW280614   9.036   2.022   1.045
26261SOL     OW80615   7.775   0.541   3.548
26261SOL    HW180616   7.700   0.564   3.492
26261SOL    HW280617   7.808   0.459   3.511
26262SOL     OW80618  12.566   3.694  14.016
26262SOL    HW180619  12.653   3.717  14.050
26262SOL    HW280620  12.537   3.773  13.971
26263SOL     OW80621   9.633  14.825   1.100
26263SOL    HW180622   9.687  14.810   1.023
26263SOL    HW280623   9.643   0.040   1.118
26264SOL     OW80624  13.970  14.071   3.305
26264SOL    HW180625  14.051  14.121   3.293
26264SOL    HW280626  13.999  13.981   3.316
26265SOL     OW80627   1.165   1.027  14.247
26265SOL    HW180628   1.179   0.935  14.269
26265SOL    HW280629   1.086   1.052  14.296
26266SOL     OW80630   5.544   7.045   1.532
26266SOL    HW180631   5.639   7.029   1.532
26266SOL    HW280632   5.516   7.020   1.620
26267SOL     OW80633   8.050  14.665   1.246
26267SOL    HW180634   8.052  14.583   1.297
26267SOL    HW280635   8.007  14.641   1.164
26268SOL     OW80636   0.589  12.741   0.293
26268SOL    HW180637   0.665  12.699   0.334
26268SOL    HW280638   0.599  12.834   0.312
26269SOL     OW80639  13.581   4.949   2.065
26269SOL    HW180640  13.628   4.883   2.115
26269SOL    HW280641  13.564   4.908   1.980
26270SOL     OW80642  10.657   0.361  11.271
26270SOL    HW180643  10.729   0.423  11.274
26270SOL    HW280644  10.608   0.376  11.352
26271SOL     OW80645   8.735   7.563  12.009
26271SOL    HW180646   8.739   7.467  12.007
26271SOL    HW280647   8.825   7.590  12.024
26272SOL     OW80648  14.615  11.174   1.286
26272SOL    HW180649  14.678  11.123   1.234
26272SOL    HW280650  14.544  11.112   1.304
26273SOL     OW80651   3.641   4.919   7.361
26273SOL    HW180652   3.597   4.885   7.440
26273SOL    HW280653   3.701   4.849   7.336
26274SOL     OW80654   5.375  12.960   6.667
26274SOL    HW180655   5.408  12.917   6.588
26274SOL    HW280656   5.392  12.897   6.737
26275SOL     OW80657   5.354  14.530  10.894
26275SOL    HW180658   5.408  14.454  10.873
26275SOL    HW280659   5.399  14.571  10.968
26276SOL     OW80660   8.862   0.756   1.029
26276SOL    HW180661   8.788   0.702   1.055
26276SOL    HW280662   8.913   0.768   1.110
26277SOL     OW80663   7.937  14.075   6.331
26277SOL    HW180664   7.892  13.992   6.312
26277SOL    HW280665   7.902  14.136   6.266
26278SOL     OW80666   5.617  13.461  12.980
26278SOL    HW180667   5.558  13.386  12.992
26278SOL    HW280668   5.566  13.523  12.928
26279SOL     OW80669   9.701   2.849   6.772
26279SOL    HW180670   9.669   2.857   6.862
26279SOL    HW280671   9.668   2.927   6.727
26280SOL     OW80672   3.791   8.521   6.044
26280SOL    HW180673   3.765   8.464   5.971
26280SOL    HW280674   3.794   8.463   6.120
26281SOL     OW80675   7.269   7.023   0.445
26281SOL    HW180676   7.362   7.005   0.432
26281SOL    HW280677   7.239   6.955   0.505
26282SOL     OW80678   5.831   6.313   9.163
26282SOL    HW180679   5.736   6.318   9.159
26282SOL    HW280680   5.861   6.355   9.082
26283SOL     OW80681   4.039  12.193   3.825
26283SOL    HW180682   4.077  12.227   3.744
26283SOL    HW280683   3.949  12.168   3.801
26284SOL     OW80684   0.372   9.849   9.826
26284SOL    HW180685   0.440   9.803   9.876
26284SOL    HW280686   0.297   9.853   9.885
26285SOL     OW80687  12.948   8.112   1.222
26285SOL    HW180688  12.911   8.191   1.182
26285SOL    HW280689  13.041   8.117   1.203
26286SOL     OW80690  10.037  14.651  11.875
26286SOL    HW180691  10.077  14.660  11.962
26286SOL    HW280692  10.055  14.733  11.831
26287SOL     OW80693  10.339   2.062  12.614
26287SOL    HW180694  10.245   2.081  12.612
26287SOL    HW280695  10.347   1.990  12.676
26288SOL     OW80696   5.871  14.420   2.658
26288SOL    HW180697   5.932  14.430   2.731
26288SOL    HW280698   5.913  14.357   2.599
26289SOL     OW80699   5.477   6.824   4.202
26289SOL    HW180700   5.545   6.764   4.234
26289SOL    HW280701   5.477   6.812   4.107
26290SOL     OW80702   5.030   6.759   8.303
26290SOL    HW180703   5.033   6.687   8.366
26290SOL    HW280704   5.068   6.833   8.350
26291SOL     OW80705  10.081  12.524   9.191
26291SOL    HW180706  10.126  12.533   9.275
26291SOL    HW280707  10.052  12.433   9.190
26292SOL     OW80708  10.170   9.744  12.724
26292SOL    HW180709  10.078   9.720  12.735
26292SOL    HW280710  10.171   9.839  12.728
26293SOL     OW80711   7.936  10.919  11.885
26293SOL    HW180712   7.914  10.850  11.948
26293SOL    HW280713   7.951  10.997  11.938
26294SOL     OW80714  10.032   0.398   9.787
26294SOL    HW180715   9.967   0.443   9.734
26294SOL    HW280716  10.044   0.314   9.743
26295SOL     OW80717   5.051   2.560   0.054
26295SOL    HW180718   5.058   2.471   0.020
26295SOL    HW280719   4.966   2.591   0.023
26296SOL     OW80720   6.146   1.795  13.312
26296SOL    HW180721   6.200   1.749  13.247
26296SOL    HW280722   6.167   1.887  13.300
26297SOL     OW80723   6.008   2.875   6.681
26297SOL    HW180724   6.102   2.855   6.687
26297SOL    HW280725   6.002   2.967   6.706
26298SOL     OW80726  12.447   2.481   4.870
26298SOL    HW180727  12.495   2.466   4.951
26298SOL    HW280728  12.373   2.421   4.874
26299SOL     OW80729  11.095   2.041  11.999
26299SOL    HW180730  11.025   1.979  12.021
26299SOL    HW280731  11.123   2.077  12.083
26300SOL     OW80732   2.732  11.761  13.860
26300SOL    HW180733   2.685  11.791  13.782
26300SOL    HW280734   2.824  11.774  13.838
26301SOL     OW80735  12.985  13.488   3.043
26301SOL    HW180736  13.061  13.543   3.064
26301SOL    HW280737  12.998  13.408   3.095
26302SOL     OW80738   4.946   5.877  12.146
26302SOL    HW180739   4.948   5.884  12.051
26302SOL    HW280740   4.949   5.782  12.163
26303SOL     OW80741  14.417   3.571  11.893
26303SOL    HW180742  14.500   3.523  11.887
26303SOL    HW280743  14.425   3.622  11.973
26304SOL     OW80744   5.192   1.707   2.765
26304SOL    HW180745   5.150   1.624   2.788
26304SOL    HW280746   5.280   1.683   2.737
26305SOL     OW80747  14.051   7.539   1.136
26305SOL    HW180748  14.063   7.583   1.220
26305SOL    HW280749  14.128   7.482   1.128
26306SOL     OW80750  13.747   5.722   2.833
26306SOL    HW180751  13.809   5.690   2.899
26306SOL    HW280752  13.667   5.672   2.850
26307SOL     OW80753   6.634   3.018   1.836
26307SOL    HW180754   6.561   3.061   1.882
26307SOL    HW280755   6.592   2.951   1.783
26308SOL     OW80756   4.442  13.341   5.496
26308SOL    HW180757   4.455  13.360   5.403
26308SOL    HW280758   4.527  13.313   5.528
26309SOL     OW80759   7.841  10.893   6.192
26309SOL    HW180760   7.788  10.973   6.190
26309SOL    HW280761   7.796  10.833   6.132
26310SOL     OW80762   5.401   5.145   9.228
26310SOL    HW180763   5.362   5.151   9.140
26310SOL    HW280764   5.493   5.168   9.214
26311SOL     OW80765  14.333   7.578   7.944
26311SOL    HW180766  14.300   7.549   7.859
26311SOL    HW280767  14.262   7.558   8.005
26312SOL     OW80768   3.399   0.137  10.639
26312SOL    HW180769   3.476   0.107  10.591
26312SOL    HW280770   3.359   0.202  10.580
26313SOL     OW80771   1.292   4.648   2.610
26313SOL    HW180772   1.245   4.730   2.595
26313SOL    HW280773   1.347   4.666   2.686
26314SOL     OW80774   7.033  11.670   3.753
26314SOL    HW180775   7.113  11.708   3.790
26314SOL    HW280776   7.022  11.588   3.802
26315SOL     OW80777  12.826   5.712   1.304
26315SOL    HW180778  12.846   5.633   1.355
26315SOL    HW280779  12.888   5.778   1.336
26316SOL     OW80780   3.179   1.278   0.045
26316SOL    HW180781   3.182   1.256   0.138
26316SOL    HW280782   3.108   1.342   0.038
26317SOL     OW80783   1.521   9.138   5.335
26317SOL    HW180784   1.519   9.103   5.246
26317SOL    HW280785   1.461   9.213   5.333
26318SOL     OW80786   6.845   5.590   2.586
26318SOL    HW180787   6.800   5.589   2.670
26318SOL    HW280788   6.895   5.672   2.586
26319SOL     OW80789   8.150  13.878   1.500
26319SOL    HW180790   8.117  13.907   1.415
26319SOL    HW280791   8.185  13.790   1.485
26320SOL     OW80792   4.097  10.626  12.340
26320SOL    HW180793   4.002  10.638  12.344
26320SOL    HW280794   4.124  10.621  12.432
26321SOL     OW80795   2.621  14.635   5.287
26321SOL    HW180796   2.582  14.562   5.334
26321SOL    HW280797   2.638  14.602   5.199
26322SOL     OW80798   9.489  11.420   1.975
26322SOL    HW180799   9.430  11.455   1.908
26322SOL    HW280800   9.511  11.496   2.029
26323SOL     OW80801   3.887  12.553   0.951
26323SOL    HW180802   3.907  12.646   0.957
26323SOL    HW280803   3.905  12.530   0.860
26324SOL     OW80804   1.291   1.553   5.571
26324SOL    HW180805   1.307   1.488   5.503
26324SOL    HW280806   1.326   1.514   5.651
26325SOL     OW80807   0.673   9.749  12.644
26325SOL    HW180808   0.592   9.703  12.665
26325SOL    HW280809   0.648   9.842  12.642
26326SOL     OW80810   2.207  11.864   6.632
26326SOL    HW180811   2.206  11.952   6.671
26326SOL    HW280812   2.279  11.819   6.677
26327SOL     OW80813   5.933   4.529  14.730
26327SOL    HW180814   5.994   4.544  14.802
26327SOL    HW280815   5.961   4.446  14.691
26328SOL     OW80816   5.045   2.702  10.734
26328SOL    HW180817   5.093   2.679  10.813
26328SOL    HW280818   5.112   2.735  10.674
26329SOL     OW80819   9.489   8.757   7.360
26329SOL    HW180820   9.432   8.821   7.319
26329SOL    HW280821   9.466   8.674   7.317
26330SOL     OW80822   4.274   3.364   9.334
26330SOL    HW180823   4.217   3.308   9.387
26330SOL    HW280824   4.356   3.368   9.384
26331SOL     OW80825  10.910   4.785  10.959
26331SOL    HW180826  10.820   4.761  10.980
26331SOL    HW280827  10.904   4.875  10.927
26332SOL     OW80828  13.093   6.242   0.168
26332SOL    HW180829  13.033   6.270   0.099
26332SOL    HW280830  13.114   6.151   0.146
26333SOL     OW80831   1.608   1.226   9.982
26333SOL    HW180832   1.671   1.237  10.053
26333SOL    HW280833   1.623   1.137   9.950
26334SOL     OW80834   6.526   3.807   1.627
26334SOL    HW180835   6.568   3.764   1.701
26334SOL    HW280836   6.469   3.740   1.589
26335SOL     OW80837  12.849   2.621   1.251
26335SOL    HW180838  12.926   2.609   1.305
26335SOL    HW280839  12.857   2.710   1.217
26336SOL     OW80840  12.838  11.145  14.137
26336SOL    HW180841  12.747  11.174  14.148
26336SOL    HW280842  12.889  11.205  14.191
26337SOL     OW80843   5.498   6.128   0.152
26337SOL    HW180844   5.420   6.154   0.102
26337SOL    HW280845   5.556   6.091   0.086
26338SOL     OW80846   4.567  12.936   6.604
26338SOL    HW180847   4.615  12.947   6.686
26338SOL    HW280848   4.632  12.954   6.536
26339SOL     OW80849  13.372   0.094   6.525
26339SOL    HW180850  13.346   0.022   6.583
26339SOL    HW280851  13.378   0.170   6.582
26340SOL     OW80852   8.266   3.343  14.421
26340SOL    HW180853   8.357   3.314  14.418
26340SOL    HW280854   8.233   3.310  14.504
26341SOL     OW80855   2.504  12.536  12.018
26341SOL    HW180856   2.458  12.567  12.096
26341SOL    HW280857   2.540  12.615  11.978
26342SOL     OW80858  10.309   5.820   5.460
26342SOL    HW180859  10.214   5.827   5.465
26342SOL    HW280860  10.326   5.730   5.433
26343SOL     OW80861   7.885   2.769  12.909
26343SOL    HW180862   7.844   2.827  12.973
26343SOL    HW280863   7.885   2.820  12.828
26344SOL     OW80864  12.788   5.994  14.374
26344SOL    HW180865  12.828   6.025  14.455
26344SOL    HW280866  12.849   5.928  14.340
26345SOL     OW80867   9.932   3.187   7.017
26345SOL    HW180868  10.000   3.162   7.080
26345SOL    HW280869   9.959   3.146   6.935
26346SOL     OW80870   0.532   2.185   5.362
26346SOL    HW180871   0.496   2.176   5.274
26346SOL    HW280872   0.623   2.212   5.348
26347SOL     OW80873   9.486   4.372   5.455
26347SOL    HW180874   9.502   4.290   5.408
26347SOL    HW280875   9.391   4.380   5.458
26348SOL     OW80876   5.925   6.517  11.346
26348SOL    HW180877   5.839   6.548  11.374
26348SOL    HW280878   5.987   6.575  11.388
26349SOL     OW80879   6.191   6.603   9.961
26349SOL    HW180880   6.203   6.620  10.054
26349SOL    HW280881   6.127   6.532   9.957
26350SOL     OW80882   3.313  14.796  13.125
26350SOL    HW180883   3.375  14.733  13.088
26350SOL    HW280884   3.235  14.745  13.145
26351SOL     OW80885   3.544   6.159  14.756
26351SOL    HW180886   3.513   6.239  14.714
26351SOL    HW280887   3.639   6.165  14.753
26352SOL     OW80888  10.372   7.535   8.212
26352SOL    HW180889  10.304   7.550   8.277
26352SOL    HW280890  10.421   7.460   8.244
26353SOL     OW80891  12.302  13.138   9.572
26353SOL    HW180892  12.333  13.047   9.574
26353SOL    HW280893  12.286  13.155   9.479
26354SOL     OW80894   1.228   8.648   5.698
26354SOL    HW180895   1.214   8.607   5.783
26354SOL    HW280896   1.324   8.657   5.692
26355SOL     OW80897  12.065   1.493  12.597
26355SOL    HW180898  11.985   1.440  12.598
26355SOL    HW280899  12.042   1.572  12.550
26356SOL     OW80900  12.464   5.940   6.905
26356SOL    HW180901  12.442   5.958   6.814
26356SOL    HW280902  12.503   5.853   6.904
26357SOL     OW80903  10.190   7.409   5.398
26357SOL    HW180904  10.150   7.346   5.458
26357SOL    HW280905  10.127   7.480   5.393
26358SOL     OW80906  11.447  12.848  14.608
26358SOL    HW180907  11.383  12.920  14.609
26358SOL    HW280908  11.527  12.886  14.645
26359SOL     OW80909  10.890   2.493  11.292
26359SOL    HW180910  10.815   2.452  11.249
26359SOL    HW280911  10.903   2.575  11.245
26360SOL     OW80912  13.578   9.040  10.859
26360SOL    HW180913  13.498   8.988  10.857
26360SOL    HW280914  13.574   9.094  10.780
26361SOL     OW80915   8.005   0.860   0.574
26361SOL    HW180916   7.952   0.937   0.594
26361SOL    HW280917   7.997   0.849   0.479
26362SOL     OW80918  11.701   4.309   9.982
26362SOL    HW180919  11.750   4.390   9.970
26362SOL    HW280920  11.753   4.259  10.045
26363SOL     OW80921   7.503   3.305   5.167
26363SOL    HW180922   7.489   3.216   5.201
26363SOL    HW280923   7.575   3.340   5.218
26364SOL     OW80924   1.843   5.297   5.399
26364SOL    HW180925   1.806   5.366   5.453
26364SOL    HW280926   1.846   5.220   5.456
26365SOL     OW80927  12.024   8.068  12.946
26365SOL    HW180928  11.989   7.979  12.955
26365SOL    HW280929  11.949   8.125  12.965
26366SOL     OW80930   4.737   1.949  11.176
26366SOL    HW180931   4.811   1.894  11.202
26366SOL    HW280932   4.754   1.971  11.084
26367SOL     OW80933  10.801   1.981  11.139
26367SOL    HW180934  10.777   1.893  11.109
26367SOL    HW280935  10.749   1.995  11.218
26368SOL     OW80936  14.758   4.159  11.458
26368SOL    HW180937  14.758   4.142  11.364
26368SOL    HW280938  14.746   4.254  11.465
26369SOL     OW80939   5.332   0.265   6.681
26369SOL    HW180940   5.249   0.221   6.699
26369SOL    HW280941   5.334   0.275   6.586
26370SOL     OW80942   0.907  14.593  10.073
26370SOL    HW180943   0.820  14.605  10.110
26370SOL    HW280944   0.935  14.681  10.046
26371SOL     OW80945   9.921   2.576   2.561
26371SOL    HW180946   9.838   2.611   2.594
26371SOL    HW280947   9.946   2.510   2.627
26372SOL     OW80948  12.168   7.843   4.905
26372SOL    HW180949  12.112   7.781   4.952
26372SOL    HW280950  12.235   7.869   4.968
26373SOL     OW80951  11.578  11.670   0.979
26373SOL    HW180952  11.614  11.759   0.976
26373SOL    HW280953  11.508  11.670   0.915
26374SOL     OW80954   7.418   9.659   9.679
26374SOL    HW180955   7.396   9.624   9.592
26374SOL    HW280956   7.460   9.586   9.724
26375SOL     OW80957   1.074  11.530   8.069
26375SOL    HW180958   0.980  11.542   8.082
26375SOL    HW280959   1.088  11.436   8.080
26376SOL     OW80960  13.048   5.984   0.032
26376SOL    HW180961  13.059   6.032  14.829
26376SOL    HW280962  13.045   5.892   0.006
26377SOL     OW80963   8.495   3.289   8.995
26377SOL    HW180964   8.549   3.331   8.929
26377SOL    HW280965   8.556   3.241   9.050
26378SOL     OW80966   8.529  14.241   9.494
26378SOL    HW180967   8.480  14.160   9.511
26378SOL    HW280968   8.612  14.228   9.540
26379SOL     OW80969   1.289   7.193   4.688
26379SOL    HW180970   1.376   7.229   4.704
26379SOL    HW280971   1.231   7.269   4.691
26380SOL     OW80972   8.862   0.263  11.706
26380SOL    HW180973   8.862   0.191  11.768
26380SOL    HW280974   8.950   0.300  11.713
26381SOL     OW80975  10.755  12.713   4.484
26381SOL    HW180976  10.752  12.779   4.415
26381SOL    HW280977  10.834  12.735   4.535
26382SOL     OW80978   2.734  10.663  12.456
26382SOL    HW180979   2.691  10.746  12.479
26382SOL    HW280980   2.827  10.687  12.448
26383SOL     OW80981   0.387  12.113   9.748
26383SOL    HW180982   0.444  12.163   9.690
26383SOL    HW280983   0.378  12.167   9.826
26384SOL     OW80984  12.309   1.511   2.808
26384SOL    HW180985  12.390   1.458   2.810
26384SOL    HW280986  12.276   1.502   2.719
26385SOL     OW80987   5.911  13.349   7.603
26385SOL    HW180988   5.883  13.274   7.655
26385SOL    HW280989   5.999  13.325   7.572
26386SOL     OW80990   3.637   0.528  10.397
26386SOL    HW180991   3.659   0.617  10.370
26386SOL    HW280992   3.668   0.473  10.326
26387SOL     OW80993   7.823   0.151  11.616
26387SOL    HW180994   7.815   0.059  11.641
26387SOL    HW280995   7.758   0.163  11.547
26388SOL     OW80996   8.887   2.747  11.997
26388SOL    HW180997   8.917   2.837  11.980
26388SOL    HW280998   8.843   2.752  12.081
26389SOL     OW80999  12.261   5.703   0.400
26389SOL    HW181000  12.264   5.622   0.351
26389SOL    HW281001  12.347   5.711   0.440
26390SOL     OW81002  13.174   4.368  13.000
26390SOL    HW181003  13.177   4.343  13.092
26390SOL    HW281004  13.266   4.378  12.974
26391SOL     OW81005  12.432  10.879   2.429
26391SOL    HW181006  12.404  10.970   2.439
26391SOL    HW281007  12.414  10.858   2.338
26392SOL     OW81008  11.764   8.225   4.236
26392SOL    HW181009  11.813   8.240   4.318
26392SOL    HW281010  11.824   8.253   4.167
26393SOL     OW81011   1.985   8.113   3.753
26393SOL    HW181012   1.901   8.089   3.791
26393SOL    HW281013   1.963   8.164   3.676
26394SOL     OW81014   9.369   9.874   3.806
26394SOL    HW181015   9.343   9.857   3.715
26394SOL    HW281016   9.427   9.950   3.800
26395SOL     OW81017   7.776   1.946  14.449
26395SOL    HW181018   7.705   1.957  14.512
26395SOL    HW281019   7.806   2.035  14.431
26396SOL     OW81020   1.017  13.284   3.246
26396SOL    HW181021   0.971  13.310   3.326
26396SOL    HW281022   1.017  13.188   3.249
26397SOL     OW81023   4.466   1.167   0.582
26397SOL    HW181024   4.542   1.121   0.616
26397SOL    HW281025   4.402   1.099   0.563
26398SOL     OW81026   5.193   4.770   1.224
26398SOL    HW181027   5.153   4.718   1.155
26398SOL    HW281028   5.281   4.788   1.192
26399SOL     OW81029   7.058   3.303   3.254
26399SOL    HW181030   7.011   3.235   3.302
26399SOL    HW281031   7.065   3.270   3.165
26400SOL     OW81032   2.007  10.683   6.627
26400SOL    HW181033   1.932  10.692   6.568
26400SOL    HW281034   1.985  10.610   6.684
26401SOL     OW81035  11.896  14.466  14.016
26401SOL    HW181036  11.929  14.553  13.996
26401SOL    HW281037  11.975  14.415  14.035
26402SOL     OW81038   0.127   4.392   5.749
26402SOL    HW181039   0.124   4.405   5.844
26402SOL    HW281040   0.129   4.480   5.713
26403SOL     OW81041  13.661   0.332   0.226
26403SOL    HW181042  13.707   0.358   0.146
26403SOL    HW281043  13.570   0.319   0.198
26404SOL     OW81044   0.830  11.571   7.628
26404SOL    HW181045   0.788  11.639   7.679
26404SOL    HW281046   0.765  11.545   7.563
26405SOL     OW81047   3.670   7.586  14.608
26405SOL    HW181048   3.693   7.670  14.647
26405SOL    HW281049   3.683   7.523  14.679
26406SOL     OW81050   2.866   8.206   2.847
26406SOL    HW181051   2.804   8.220   2.775
26406SOL    HW281052   2.951   8.230   2.811
26407SOL     OW81053   8.848   5.916   0.409
26407SOL    HW181054   8.921   5.933   0.349
26407SOL    HW281055   8.833   5.999   0.453
26408SOL     OW81056   7.963   1.570  13.116
26408SOL    HW181057   8.008   1.590  13.199
26408SOL    HW281058   7.892   1.511  13.141
26409SOL     OW81059   3.487  13.840   8.855
26409SOL    HW181060   3.566  13.819   8.806
26409SOL    HW281061   3.462  13.927   8.824
26410SOL     OW81062  12.322   8.786   0.550
26410SOL    HW181063  12.400   8.823   0.509
26410SOL    HW281064  12.290   8.722   0.487
26411SOL     OW81065   5.422   5.132   3.476
26411SOL    HW181066   5.503   5.182   3.469
26411SOL    HW281067   5.353   5.195   3.455
26412SOL     OW81068  10.717   9.592  10.163
26412SOL    HW181069  10.677   9.660  10.110
26412SOL    HW281070  10.655   9.579  10.236
26413SOL     OW81071   2.170  14.126  12.213
26413SOL    HW181072   2.259  14.128  12.248
26413SOL    HW281073   2.162  14.039  12.174
26414SOL     OW81074   0.739   8.225  11.749
26414SOL    HW181075   0.651   8.249  11.720
26414SOL    HW281076   0.726   8.161  11.819
26415SOL     OW81077   3.571   2.431   5.761
26415SOL    HW181078   3.644   2.493   5.762
26415SOL    HW281079   3.608   2.351   5.724
26416SOL     OW81080  12.313  11.700  11.676
26416SOL    HW181081  12.242  11.635  11.674
26416SOL    HW281082  12.331  11.712  11.769
26417SOL     OW81083  12.062   3.196  12.382
26417SOL    HW181084  12.072   3.101  12.380
26417SOL    HW281085  11.980   3.211  12.334
26418SOL     OW81086  13.198   8.683   1.165
26418SOL    HW181087  13.119   8.734   1.148
26418SOL    HW281088  13.268   8.731   1.121
26419SOL     OW81089   9.105  13.594   9.295
26419SOL    HW181090   9.017  13.613   9.263
26419SOL    HW281091   9.127  13.509   9.256
26420SOL     OW81092   9.076   1.279   2.558
26420SOL    HW181093   9.136   1.220   2.603
26420SOL    HW281094   9.065   1.353   2.619
26421SOL     OW81095   1.246   4.434   8.309
26421SOL    HW181096   1.204   4.514   8.340
26421SOL    HW281097   1.178   4.389   8.259
26422SOL     OW81098   8.247   6.417  10.479
26422SOL    HW181099   8.229   6.505  10.444
26422SOL    HW281100   8.341   6.405  10.465
26423SOL     OW81101   7.467   4.346  13.826
26423SOL    HW181102   7.397   4.300  13.871
26423SOL    HW281103   7.424   4.386  13.750
26424SOL     OW81104   7.726  13.107   4.712
26424SOL    HW181105   7.807  13.106   4.661
26424SOL    HW281106   7.694  13.017   4.709
26425SOL     OW81107   1.410  10.208   8.987
26425SOL    HW181108   1.326  10.227   8.945
26425SOL    HW281109   1.398  10.121   9.026
26426SOL     OW81110  13.185   4.159   9.526
26426SOL    HW181111  13.236   4.221   9.577
26426SOL    HW281112  13.137   4.213   9.463
26427SOL     OW81113   8.470  13.502  13.286
26427SOL    HW181114   8.391  13.557  13.289
26427SOL    HW281115   8.464  13.448  13.365
26428SOL     OW81116   3.184  12.073   6.504
26428SOL    HW181117   3.136  12.145   6.463
26428SOL    HW281118   3.188  12.006   6.436
26429SOL     OW81119   0.553  12.683   4.189
26429SOL    HW181120   0.587  12.758   4.140
26429SOL    HW281121   0.505  12.632   4.124
26430SOL     OW81122  14.086   9.202   2.800
26430SOL    HW181123  14.000   9.168   2.822
26430SOL    HW281124  14.070   9.292   2.771
26431SOL     OW81125  12.692   2.444   1.117
26431SOL    HW181126  12.743   2.500   1.176
26431SOL    HW281127  12.604   2.444   1.156
26432SOL     OW81128   4.203   6.964  13.759
26432SOL    HW181129   4.129   6.943  13.702
26432SOL    HW281130   4.167   7.028  13.820
26433SOL     OW81131  10.994   3.472   9.427
26433SOL    HW181132  11.087   3.448   9.425
26433SOL    HW281133  10.994   3.567   9.434
26434SOL     OW81134   8.441   1.531  11.999
26434SOL    HW181135   8.462   1.543  12.091
26434SOL    HW281136   8.357   1.576  11.987
26435SOL     OW81137  11.553   9.905   2.312
26435SOL    HW181138  11.641   9.880   2.339
26435SOL    HW281139  11.495   9.865   2.377
26436SOL     OW81140   9.455  13.589   2.393
26436SOL    HW181141   9.445  13.627   2.481
26436SOL    HW281142   9.391  13.637   2.340
26437SOL     OW81143   8.343   6.129   6.122
26437SOL    HW181144   8.249   6.146   6.121
26437SOL    HW281145   8.350   6.034   6.129
26438SOL     OW81146   7.978   9.734   0.529
26438SOL    HW181147   8.060   9.724   0.481
26438SOL    HW281148   8.000   9.790   0.603
26439SOL     OW81149   6.601  10.590   4.035
26439SOL    HW181150   6.694  10.592   4.015
26439SOL    HW281151   6.561  10.650   3.972
26440SOL     OW81152   5.905  11.136   5.438
26440SOL    HW181153   5.811  11.151   5.426
26440SOL    HW281154   5.928  11.076   5.367
26441SOL     OW81155   7.344  14.130   4.163
26441SOL    HW181156   7.297  14.116   4.081
26441SOL    HW281157   7.331  14.049   4.212
26442SOL     OW81158   4.447  14.194   3.590
26442SOL    HW181159   4.365  14.156   3.621
26442SOL    HW281160   4.515  14.135   3.623
26443SOL     OW81161   6.952   3.538  11.924
26443SOL    HW181162   6.857   3.534  11.931
26443SOL    HW281163   6.971   3.626  11.893
26444SOL     OW81164   3.291  14.024   2.116
26444SOL    HW181165   3.333  13.982   2.041
26444SOL    HW281166   3.240  14.095   2.077
26445SOL     OW81167   5.903   4.110  10.857
26445SOL    HW181168   5.842   4.120  10.784
26445SOL    HW281169   5.958   4.188  10.853
26446SOL     OW81170   0.698   3.321   5.647
26446SOL    HW181171   0.613   3.354   5.616
26446SOL    HW281172   0.742   3.398   5.684
26447SOL     OW81173  12.311  14.163   3.580
26447SOL    HW181174  12.312  14.256   3.558
26447SOL    HW281175  12.225  14.132   3.551
26448SOL     OW81176  10.051  10.279   6.310
26448SOL    HW181177  10.092  10.300   6.226
26448SOL    HW281178   9.977  10.340   6.316
26449SOL     OW81179   7.346   9.171  13.072
26449SOL    HW181180   7.428   9.128  13.048
26449SOL    HW281181   7.371   9.261  13.093
26450SOL     OW81182  14.368  13.655   7.230
26450SOL    HW181183  14.323  13.573   7.250
26450SOL    HW281184  14.387  13.695   7.315
26451SOL     OW81185   0.252   4.950  10.425
26451SOL    HW181186   0.204   4.983  10.349
26451SOL    HW281187   0.344   4.953  10.398
26452SOL     OW81188   4.636  11.856   4.033
26452SOL    HW181189   4.718  11.905   4.045
26452SOL    HW281190   4.595  11.896   3.956
26453SOL     OW81191   1.050  10.191   7.161
26453SOL    HW181192   0.998  10.133   7.216
26453SOL    HW281193   1.063  10.142   7.080
26454SOL     OW81194  10.401   6.934  14.322
26454SOL    HW181195  10.311   6.964  14.311
26454SOL    HW281196  10.435   6.988  14.394
26455SOL     OW81197   1.705   2.946   0.210
26455SOL    HW181198   1.651   3.011   0.254
26455SOL    HW281199   1.643   2.882   0.175
26456SOL     OW81200   1.354   0.456   6.734
26456SOL    HW181201   1.288   0.400   6.775
26456SOL    HW281202   1.322   0.546   6.748
26457SOL     OW81203   6.405   3.357   0.160
26457SOL    HW181204   6.419   3.388   0.250
26457SOL    HW281205   6.458   3.415   0.106
26458SOL     OW81206   2.741   4.900  11.940
26458SOL    HW181207   2.654   4.909  11.902
26458SOL    HW281208   2.769   4.989  11.959
26459SOL     OW81209  12.208  11.517  10.295
26459SOL    HW181210  12.243  11.574  10.364
26459SOL    HW281211  12.157  11.575  10.239
26460SOL     OW81212   5.426   6.936  10.923
26460SOL    HW181213   5.331   6.927  10.937
26460SOL    HW281214   5.462   6.952  11.010
26461SOL     OW81215   7.358   2.560   4.047
26461SOL    HW181216   7.378   2.639   4.097
26461SOL    HW281217   7.272   2.577   4.010
26462SOL     OW81218  11.969  11.797  14.433
26462SOL    HW181219  11.908  11.776  14.363
26462SOL    HW281220  11.921  11.778  14.513
26463SOL     OW81221   5.384   5.255   7.925
26463SOL    HW181222   5.299   5.215   7.943
26463SOL    HW281223   5.362   5.340   7.888
26464SOL     OW81224   3.425   7.860  12.697
26464SOL    HW181225   3.357   7.878  12.762
26464SOL    HW281226   3.384   7.800  12.635
26465SOL     OW81227   3.822   3.500  13.923
26465SOL    HW181228   3.838   3.549  14.004
26465SOL    HW281229   3.734   3.464  13.934
26466SOL     OW81230  10.413   6.940  10.363
26466SOL    HW181231  10.398   7.024  10.321
26466SOL    HW281232  10.364   6.877  10.311
26467SOL     OW81233   3.503  10.084  13.594
26467SOL    HW181234   3.483  10.143  13.522
26467SOL    HW281235   3.501  10.139  13.672
26468SOL     OW81236   1.610   3.659  13.795
26468SOL    HW181237   1.583   3.578  13.752
26468SOL    HW281238   1.669   3.631  13.865
26469SOL     OW81239  12.654   5.155   0.692
26469SOL    HW181240  12.706   5.229   0.662
26469SOL    HW281241  12.640   5.172   0.786
26470SOL     OW81242   0.905  12.461  13.560
26470SOL    HW181243   0.831  12.522  13.566
26470SOL    HW281244   0.933  12.448  13.651
26471SOL     OW81245   8.927  13.649  11.266
26471SOL    HW181246   9.005  13.689  11.305
26471SOL    HW281247   8.876  13.723  11.233
26472SOL     OW81248  11.466   9.958  11.672
26472SOL    HW181249  11.500  10.047  11.679
26472SOL    HW281250  11.532   9.910  11.622
26473SOL     OW81251   7.561   9.643   1.784
26473SOL    HW181252   7.593   9.620   1.871
26473SOL    HW281253   7.531   9.733   1.792
26474SOL     OW81254   8.780  14.730   9.595
26474SOL    HW181255   8.730  14.657   9.558
26474SOL    HW281256   8.722  14.806   9.588
26475SOL     OW81257   2.097   6.706   5.056
26475SOL    HW181258   2.028   6.759   5.017
26475SOL    HW281259   2.050   6.634   5.099
26476SOL     OW81260   3.994   5.132   3.677
26476SOL    HW181261   3.992   5.036   3.673
26476SOL    HW281262   3.915   5.156   3.725
26477SOL     OW81263  13.137  14.262   9.955
26477SOL    HW181264  13.044  14.273   9.937
26477SOL    HW281265  13.164  14.345   9.995
26478SOL     OW81266   3.844   3.960   0.860
26478SOL    HW181267   3.819   4.013   0.784
26478SOL    HW281268   3.852   4.022   0.932
26479SOL     OW81269  11.446   2.847  12.264
26479SOL    HW181270  11.500   2.896  12.201
26479SOL    HW281271  11.421   2.768  12.216
26480SOL     OW81272   5.856   4.454   8.943
26480SOL    HW181273   5.765   4.472   8.966
26480SOL    HW281274   5.860   4.465   8.848
26481SOL     OW81275   4.424   6.845   4.619
26481SOL    HW181276   4.492   6.913   4.616
26481SOL    HW281277   4.342   6.894   4.626
26482SOL     OW81278   2.288   9.953  11.599
26482SOL    HW181279   2.343   9.943  11.677
26482SOL    HW281280   2.285   9.866  11.560
26483SOL     OW81281  10.982  10.274   3.993
26483SOL    HW181282  10.901  10.226   4.012
26483SOL    HW281283  11.007  10.312   4.077
26484SOL     OW81284   0.445  11.702   5.632
26484SOL    HW181285   0.455  11.610   5.658
26484SOL    HW281286   0.386  11.699   5.556
26485SOL     OW81287  10.220   2.980   5.416
26485SOL    HW181288  10.260   2.927   5.485
26485SOL    HW281289  10.294   3.017   5.369
26486SOL     OW81290  12.283   4.229  13.032
26486SOL    HW181291  12.314   4.271  13.112
26486SOL    HW281292  12.202   4.186  13.058
26487SOL     OW81293  14.247   5.051  13.026
26487SOL    HW181294  14.201   5.002  12.959
26487SOL    HW281295  14.258   4.989  13.099
26488SOL     OW81296   4.374  12.657  14.419
26488SOL    HW181297   4.316  12.600  14.369
26488SOL    HW281298   4.441  12.599  14.455
26489SOL     OW81299   4.094   1.188   7.389
26489SOL    HW181300   4.185   1.158   7.387
26489SOL    HW281301   4.051   1.130   7.452
26490SOL     OW81302   5.553   4.101  12.988
26490SOL    HW181303   5.533   4.022  13.039
26490SOL    HW281304   5.522   4.081  12.900
26491SOL     OW81305   7.281   1.362   8.558
26491SOL    HW181306   7.308   1.381   8.648
26491SOL    HW281307   7.186   1.358   8.561
26492SOL     OW81308   6.838  12.558   4.534
26492SOL    HW181309   6.922  12.541   4.492
26492SOL    HW281310   6.860  12.609   4.611
26493SOL     OW81311   4.222  10.110   6.709
26493SOL    HW181312   4.218  10.017   6.735
26493SOL    HW281313   4.131  10.138   6.709
26494SOL     OW81314  12.288   3.128   3.984
26494SOL    HW181315  12.346   3.097   4.053
26494SOL    HW281316  12.314   3.078   3.906
26495SOL     OW81317   2.330   4.986   7.123
26495SOL    HW181318   2.332   4.995   7.218
26495SOL    HW281319   2.372   4.901   7.106
26496SOL     OW81320  14.457   9.347   5.105
26496SOL    HW181321  14.458   9.414   5.037
26496SOL    HW281322  14.492   9.390   5.182
26497SOL     OW81323   3.697   1.619   6.739
26497SOL    HW181324   3.622   1.677   6.752
26497SOL    HW281325   3.761   1.674   6.693
26498SOL     OW81326   3.003   4.653  10.031
26498SOL    HW181327   2.909   4.669  10.035
26498SOL    HW281328   3.037   4.723   9.975
26499SOL     OW81329   1.636   8.528  13.909
26499SOL    HW181330   1.561   8.510  13.965
26499SOL    HW281331   1.631   8.622  13.890
26500SOL     OW81332   8.601  12.284   6.433
26500SOL    HW181333   8.528  12.224   6.417
26500SOL    HW281334   8.560  12.363   6.467
26501SOL     OW81335  13.968   4.089   2.704
26501SOL    HW181336  14.050   4.080   2.751
26501SOL    HW281337  13.967   4.180   2.674
26502SOL     OW81338   6.551  12.054   0.446
26502SOL    HW181339   6.468  12.066   0.399
26502SOL    HW281340   6.584  12.143   0.458
26503SOL     OW81341  13.092   4.986  11.168
26503SOL    HW181342  13.013   5.040  11.160
26503SOL    HW281343  13.117   4.993  11.260
26504SOL     OW81344   0.589   4.418  14.052
26504SOL    HW181345   0.624   4.346  14.104
26504SOL    HW281346   0.574   4.489  14.115
26505SOL     OW81347   4.533   5.767   2.518
26505SOL    HW181348   4.574   5.730   2.440
26505SOL    HW281349   4.562   5.711   2.590
26506SOL     OW81350   3.007   2.854  10.865
26506SOL    HW181351   3.044   2.842  10.777
26506SOL    HW281352   2.949   2.930  10.857
26507SOL     OW81353  12.855  14.472   0.790
26507SOL    HW181354  12.927  14.452   0.849
26507SOL    HW281355  12.814  14.387   0.773
26508SOL     OW81356   5.323   7.819  10.854
26508SOL    HW181357   5.362   7.843  10.937
26508SOL    HW281358   5.307   7.903  10.809
26509SOL     OW81359  13.911  13.486  13.670
26509SOL    HW181360  13.834  13.469  13.726
26509SOL    HW281361  13.874  13.525  13.591
26510SOL     OW81362  13.210  11.962  14.421
26510SOL    HW181363  13.218  11.871  14.450
26510SOL    HW281364  13.163  12.005  14.493
26511SOL     OW81365   1.760   1.796  13.881
26511SOL    HW181366   1.749   1.796  13.786
26511SOL    HW281367   1.689   1.851  13.914
26512SOL     OW81368   5.406  10.590  13.637
26512SOL    HW181369   5.383  10.669  13.587
26512SOL    HW281370   5.473  10.618  13.698
26513SOL     OW81371   7.070   0.665   9.118
26513SOL    HW181372   7.148   0.636   9.166
26513SOL    HW281373   7.001   0.668   9.185
26514SOL     OW81374  10.868   2.620  10.914
26514SOL    HW181375  10.875   2.687  10.847
26514SOL    HW281376  10.932   2.553  10.888
26515SOL     OW81377   4.851   5.749   4.654
26515SOL    HW181378   4.906   5.822   4.626
26515SOL    HW281379   4.856   5.751   4.750
26516SOL     OW81380   7.131   8.233   6.671
26516SOL    HW181381   7.181   8.241   6.590
26516SOL    HW281382   7.132   8.320   6.709
26517SOL     OW81383   0.023  13.477   6.051
26517SOL    HW181384  14.817  13.442   6.079
26517SOL    HW281385   0.087  13.418   6.091
26518SOL     OW81386   3.728   7.499   1.901
26518SOL    HW181387   3.771   7.584   1.917
26518SOL    HW281388   3.779   7.437   1.953
26519SOL     OW81389   0.048  13.687   6.670
26519SOL    HW181390   0.128  13.635   6.677
26519SOL    HW281391   0.079  13.772   6.637
26520SOL     OW81392  14.587   8.492   8.524
26520SOL    HW181393  14.671   8.515   8.562
26520SOL    HW281394  14.525   8.554   8.563
26521SOL     OW81395   8.519   1.788   3.520
26521SOL    HW181396   8.430   1.794   3.486
26521SOL    HW281397   8.562   1.724   3.464
26522SOL     OW81398  14.655   1.139   3.819
26522SOL    HW181399  14.736   1.157   3.865
26522SOL    HW281400  14.681   1.087   3.743
26523SOL     OW81401  10.368   9.456   3.487
26523SOL    HW181402  10.463   9.470   3.490
26523SOL    HW281403  10.336   9.491   3.570
26524SOL     OW81404   8.598  10.471   7.340
26524SOL    HW181405   8.563  10.452   7.253
26524SOL    HW281406   8.534  10.433   7.400
26525SOL     OW81407   0.304   8.840   5.489
26525SOL    HW181408   0.306   8.827   5.584
26525SOL    HW281409   0.354   8.920   5.475
26526SOL     OW81410  11.514   8.611   7.602
26526SOL    HW181411  11.530   8.698   7.567
26526SOL    HW281412  11.459   8.626   7.679
26527SOL     OW81413   4.623   5.572  12.323
26527SOL    HW181414   4.706   5.541  12.286
26527SOL    HW281415   4.644   5.592  12.414
26528SOL     OW81416   4.541   3.779   8.853
26528SOL    HW181417   4.594   3.753   8.928
26528SOL    HW281418   4.479   3.843   8.888
26529SOL     OW81419   6.030   1.392   2.616
26529SOL    HW181420   6.035   1.374   2.710
26529SOL    HW281421   6.011   1.307   2.577
26530SOL     OW81422   5.557   5.530   0.844
26530SOL    HW181423   5.488   5.594   0.825
26530SOL    HW281424   5.615   5.576   0.905
26531SOL     OW81425   8.373  12.442   8.126
26531SOL    HW181426   8.309  12.382   8.088
26531SOL    HW281427   8.373  12.420   8.220
26532SOL     OW81428   9.904   4.248  11.780
26532SOL    HW181429   9.887   4.267  11.872
26532SOL    HW281430   9.824   4.205  11.749
26533SOL     OW81431  14.484   6.863  10.724
26533SOL    HW181432  14.450   6.942  10.766
26533SOL    HW281433  14.465   6.793  10.786
26534SOL     OW81434  10.735  14.408  13.412
26534SOL    HW181435  10.781  14.449  13.338
26534SOL    HW281436  10.775  14.446  13.490
26535SOL     OW81437   7.894  13.527   8.075
26535SOL    HW181438   7.899  13.576   8.157
26535SOL    HW281439   7.985  13.508   8.053
26536SOL     OW81440   9.077   0.177   5.332
26536SOL    HW181441   9.062   0.096   5.283
26536SOL    HW281442   9.155   0.214   5.291
26537SOL     OW81443   6.471   8.981   3.391
26537SOL    HW181444   6.519   8.931   3.325
26537SOL    HW281445   6.456   9.067   3.351
26538SOL     OW81446   7.353   1.186   1.987
26538SOL    HW181447   7.399   1.121   2.040
26538SOL    HW281448   7.305   1.135   1.922
26539SOL     OW81449   5.801   6.143   1.904
26539SOL    HW181450   5.802   6.112   1.813
26539SOL    HW281451   5.839   6.231   1.899
26540SOL     OW81452   9.164   7.237  14.844
26540SOL    HW181453   9.120   7.170  14.792
26540SOL    HW281454   9.175   7.310  14.783
26541SOL     OW81455   9.645  13.974   7.705
26541SOL    HW181456   9.664  13.882   7.723
26541SOL    HW281457   9.639  14.015   7.791
26542SOL     OW81458  11.864   9.518   9.531
26542SOL    HW181459  11.791   9.575   9.558
26542SOL    HW281460  11.921   9.515   9.608
26543SOL     OW81461   9.011  10.946   8.266
26543SOL    HW181462   8.943  11.012   8.256
26543SOL    HW281463   8.997  10.886   8.192
26544SOL     OW81464   2.906   9.772   7.576
26544SOL    HW181465   2.839   9.779   7.644
26544SOL    HW281466   2.863   9.806   7.497
26545SOL     OW81467  13.959   2.869  10.503
26545SOL    HW181468  13.939   2.934  10.435
26545SOL    HW281469  14.041   2.829  10.474
26546SOL     OW81470   0.716   5.873  13.430
26546SOL    HW181471   0.795   5.828  13.460
26546SOL    HW281472   0.666   5.805  13.385
26547SOL     OW81473   4.503   7.474  12.710
26547SOL    HW181474   4.487   7.564  12.738
26547SOL    HW281475   4.415   7.436  12.699
26548SOL     OW81476  13.505   8.226   1.958
26548SOL    HW181477  13.596   8.229   1.929
26548SOL    HW281478  13.498   8.144   2.008
26549SOL     OW81479   3.722   0.271   7.807
26549SOL    HW181480   3.693   0.245   7.895
26549SOL    HW281481   3.678   0.354   7.790
26550SOL     OW81482   4.218  10.958   9.617
26550SOL    HW181483   4.127  10.978   9.593
26550SOL    HW281484   4.268  10.971   9.537
26551SOL     OW81485   1.755  14.723   2.538
26551SOL    HW181486   1.692  14.794   2.548
26551SOL    HW281487   1.809  14.728   2.617
26552SOL     OW81488  13.524  10.875   0.893
26552SOL    HW181489  13.513  10.867   0.987
26552SOL    HW281490  13.451  10.930   0.864
26553SOL     OW81491  11.251   3.509  10.526
26553SOL    HW181492  11.333   3.541  10.562
26553SOL    HW281493  11.252   3.535  10.434
26554SOL     OW81494  11.546  11.828   0.104
26554SOL    HW181495  11.555  11.794   0.194
26554SOL    HW281496  11.557  11.750   0.049
26555SOL     OW81497  12.505  12.892   4.662
26555SOL    HW181498  12.556  12.845   4.596
26555SOL    HW281499  12.544  12.980   4.664
26556SOL     OW81500   3.135   6.425  10.714
26556SOL    HW181501   3.141   6.385  10.628
26556SOL    HW281502   3.088   6.508  10.699
26557SOL     OW81503  11.724   3.957  10.586
26557SOL    HW181504  11.760   4.043  10.605
26557SOL    HW281505  11.793   3.912  10.538
26558SOL     OW81506   6.510   4.911  11.204
26558SOL    HW181507   6.595   4.937  11.169
26558SOL    HW281508   6.447   4.967  11.160
26559SOL     OW81509   4.111  13.067   5.004
26559SOL    HW181510   4.069  13.041   5.087
26559SOL    HW281511   4.112  12.987   4.952
26560SOL     OW81512  11.359   6.539   9.238
26560SOL    HW181513  11.427   6.604   9.255
26560SOL    HW281514  11.400   6.478   9.175
26561SOL     OW81515   9.978   6.640  12.679
26561SOL    HW181516  10.028   6.564  12.706
26561SOL    HW281517   9.937   6.614  12.596
26562SOL     OW81518   8.991   9.845   6.579
26562SOL    HW181519   8.962   9.935   6.561
26562SOL    HW281520   9.055   9.826   6.511
26563SOL     OW81521   1.234  11.263   2.167
26563SOL    HW181522   1.224  11.252   2.072
26563SOL    HW281523   1.228  11.358   2.180
26564SOL     OW81524  12.725   0.012   1.487
26564SOL    HW181525  12.798   0.042   1.432
26564SOL    HW281526  12.652   0.068   1.462
26565SOL     OW81527   6.472   2.156   5.620
26565SOL    HW181528   6.498   2.247   5.636
26565SOL    HW281529   6.553   2.112   5.593
26566SOL     OW81530   9.379  12.721   8.049
26566SOL    HW181531   9.356  12.634   8.015
26566SOL    HW281532   9.474  12.726   8.041
26567SOL     OW81533   9.990   2.879   0.806
26567SOL    HW181534   9.954   2.857   0.720
26567SOL    HW281535  10.075   2.835   0.808
26568SOL     OW81536   8.477   5.051  14.277
26568SOL    HW181537   8.423   5.121  14.313
26568SOL    HW281538   8.432   4.971  14.303
26569SOL     OW81539   8.472  12.044   6.464
26569SOL    HW181540   8.523  12.042   6.545
26569SOL    HW281541   8.513  11.978   6.408
26570SOL     OW81542   7.911   6.234  11.963
26570SOL    HW181543   7.999   6.270  11.975
26570SOL    HW281544   7.878   6.275  11.883
26571SOL     OW81545   2.727   7.809   7.049
26571SOL    HW181546   2.725   7.717   7.072
26571SOL    HW281547   2.724   7.810   6.953
26572SOL     OW81548  10.019   2.264   1.313
26572SOL    HW181549   9.929   2.235   1.302
26572SOL    HW281550  10.013   2.357   1.333
26573SOL     OW81551   5.354   1.070   0.728
26573SOL    HW181552   5.346   1.162   0.705
26573SOL    HW281553   5.317   1.064   0.816
26574SOL     OW81554  10.241   8.287   6.149
26574SOL    HW181555  10.212   8.196   6.153
26574SOL    HW281556  10.300   8.290   6.074
26575SOL     OW81557  10.498   4.838   9.978
26575SOL    HW181558  10.558   4.887  10.035
26575SOL    HW281559  10.412   4.877   9.996
26576SOL     OW81560  11.795   5.192   2.141
26576SOL    HW181561  11.813   5.119   2.081
26576SOL    HW281562  11.791   5.151   2.227
26577SOL     OW81563   0.653   7.789   3.195
26577SOL    HW181564   0.577   7.838   3.228
26577SOL    HW281565   0.710   7.857   3.158
26578SOL     OW81566  11.925   8.000   3.273
26578SOL    HW181567  11.930   8.072   3.336
26578SOL    HW281568  11.843   8.017   3.226
26579SOL     OW81569   3.699   1.573   1.065
26579SOL    HW181570   3.674   1.610   0.980
26579SOL    HW281571   3.730   1.484   1.044
26580SOL     OW81572   1.087   9.232  10.127
26580SOL    HW181573   1.124   9.318  10.108
26580SOL    HW281574   1.068   9.234  10.221
26581SOL     OW81575   1.523  11.196   1.437
26581SOL    HW181576   1.606  11.243   1.425
26581SOL    HW281577   1.481  11.198   1.351
26582SOL     OW81578   4.054  13.089   8.523
26582SOL    HW181579   4.038  13.025   8.593
26582SOL    HW281580   4.137  13.130   8.545
26583SOL     OW81581  12.486   4.953   1.720
26583SOL    HW181582  12.554   4.898   1.679
26583SOL    HW281583  12.535   5.025   1.760
26584SOL     OW81584   8.134   4.583   6.227
26584SOL    HW181585   8.227   4.603   6.215
26584SOL    HW281586   8.133   4.490   6.251
26585SOL     OW81587  11.398  12.815   0.724
26585SOL    HW181588  11.401  12.870   0.645
26585SOL    HW281589  11.328  12.752   0.707
26586SOL     OW81590   4.224  14.124  13.306
26586SOL    HW181591   4.224  14.218  13.293
26586SOL    HW281592   4.282  14.090  13.238
26587SOL     OW81593  12.290   1.792   3.391
26587SOL    HW181594  12.368   1.846   3.383
26587SOL    HW281595  12.218   1.855   3.400
26588SOL     OW81596  10.959   3.556  11.059
26588SOL    HW181597  11.036   3.501  11.076
26588SOL    HW281598  10.911   3.510  10.990
26589SOL     OW81599   4.909   5.842   0.320
26589SOL    HW181600   4.911   5.878   0.409
26589SOL    HW281601   4.901   5.919   0.264
26590SOL     OW81602  10.939   5.292   3.047
26590SOL    HW181603  10.974   5.259   3.130
26590SOL    HW281604  11.016   5.321   2.998
26591SOL     OW81605   8.051   4.405   5.375
26591SOL    HW181606   7.973   4.351   5.366
26591SOL    HW281607   8.018   4.495   5.380
26592SOL     OW81608   7.311  14.546   8.404
26592SOL    HW181609   7.289  14.472   8.347
26592SOL    HW281610   7.226  14.576   8.437
26593SOL     OW81611   6.050  12.064  14.515
26593SOL    HW181612   6.097  12.052  14.433
26593SOL    HW281613   5.992  11.987  14.521
26594SOL     OW81614  10.808  13.731  11.232
26594SOL    HW181615  10.837  13.666  11.168
26594SOL    HW281616  10.720  13.702  11.257
26595SOL     OW81617   5.881   1.417   7.280
26595SOL    HW181618   5.925   1.338   7.248
26595SOL    HW281619   5.807   1.429   7.219
26596SOL     OW81620   4.753   0.773  13.075
26596SOL    HW181621   4.838   0.730  13.085
26596SOL    HW281622   4.746   0.790  12.981
26597SOL     OW81623   3.660  14.024   5.263
26597SOL    HW181624   3.640  14.107   5.221
26597SOL    HW281625   3.752  14.032   5.288
26598SOL     OW81626   1.101  10.067  14.005
26598SOL    HW181627   1.182  10.029  14.039
26598SOL    HW281628   1.113  10.070  13.910
26599SOL     OW81629   4.561   1.312   0.337
26599SOL    HW181630   4.545   1.251   0.409
26599SOL    HW281631   4.556   1.257   0.259
26600SOL     OW81632  13.434   9.662  13.998
26600SOL    HW181633  13.475   9.590  14.045
26600SOL    HW281634  13.345   9.665  14.032
26601SOL     OW81635   5.741  10.249   0.819
26601SOL    HW181636   5.743  10.253   0.723
26601SOL    HW281637   5.728  10.156   0.838
26602SOL     OW81638   5.213   6.095   2.120
26602SOL    HW181639   5.162   6.151   2.061
26602SOL    HW281640   5.264   6.156   2.173
26603SOL     OW81641   5.682   4.643  10.540
26603SOL    HW181642   5.772   4.662  10.567
26603SOL    HW281643   5.636   4.726  10.553
26604SOL     OW81644   0.679   9.269  12.553
26604SOL    HW181645   0.718   9.274  12.640
26604SOL    HW281646   0.750   9.289  12.493
26605SOL     OW81647  10.115   0.575   9.958
26605SOL    HW181648  10.126   0.546  10.049
26605SOL    HW281649  10.091   0.496   9.910
26606SOL     OW81650   9.699   9.923   0.494
26606SOL    HW181651   9.629   9.925   0.560
26606SOL    HW281652   9.665   9.865   0.425
26607SOL     OW81653   9.063  10.924   7.249
26607SOL    HW181654   9.151  10.917   7.286
26607SOL    HW281655   9.078  10.937   7.155
26608SOL     OW81656   9.369   2.091   5.268
26608SOL    HW181657   9.426   2.137   5.206
26608SOL    HW281658   9.315   2.160   5.308
26609SOL     OW81659   8.337   2.011  13.702
26609SOL    HW181660   8.409   1.951  13.680
26609SOL    HW281661   8.308   1.984  13.789
26610SOL     OW81662  12.872   5.233   4.735
26610SOL    HW181663  12.833   5.248   4.822
26610SOL    HW281664  12.930   5.308   4.722
26611SOL     OW81665   3.830   7.372   5.902
26611SOL    HW181666   3.868   7.357   5.988
26611SOL    HW281667   3.815   7.467   5.899
26612SOL     OW81668  14.530  13.863  10.190
26612SOL    HW181669  14.464  13.904  10.134
26612SOL    HW281670  14.566  13.792  10.137
26613SOL     OW81671  13.079  14.297  13.521
26613SOL    HW181672  13.160  14.297  13.572
26613SOL    HW281673  13.077  14.211  13.479
26614SOL     OW81674   3.884   2.331  14.804
26614SOL    HW181675   3.939   2.378  14.866
26614SOL    HW281676   3.920   2.243  14.800
26615SOL     OW81677   1.153   6.873   5.365
26615SOL    HW181678   1.102   6.936   5.314
26615SOL    HW281679   1.101   6.793   5.362
26616SOL     OW81680  14.463   0.091  14.475
26616SOL    HW181681  14.427   0.027  14.536
26616SOL    HW281682  14.435   0.176  14.510
26617SOL     OW81683  10.629   4.198  11.526
26617SOL    HW181684  10.550   4.171  11.571
26617SOL    HW281685  10.617   4.169  11.436
26618SOL     OW81686   3.925   7.487  10.569
26618SOL    HW181687   3.847   7.472  10.514
26618SOL    HW281688   3.938   7.404  10.615
26619SOL     OW81689   2.784  11.895   4.434
26619SOL    HW181690   2.837  11.851   4.501
26619SOL    HW281691   2.832  11.975   4.414
26620SOL     OW81692  12.031   9.966   6.439
26620SOL    HW181693  12.074   9.982   6.523
26620SOL    HW281694  11.948  10.012   6.445
26621SOL     OW81695   8.268   7.394   1.840
26621SOL    HW181696   8.363   7.384   1.837
26621SOL    HW281697   8.252   7.456   1.912
26622SOL     OW81698   9.339  14.637   7.810
26622SOL    HW181699   9.366  14.680   7.891
26622SOL    HW281700   9.392  14.557   7.806
26623SOL     OW81701  12.274   0.602   5.837
26623SOL    HW181702  12.283   0.576   5.929
26623SOL    HW281703  12.282   0.697   5.838
26624SOL     OW81704   4.434  12.511   4.776
26624SOL    HW181705   4.376  12.546   4.709
26624SOL    HW281706   4.521  12.542   4.751
26625SOL     OW81707   4.602  10.112   8.119
26625SOL    HW181708   4.694  10.132   8.136
26625SOL    HW281709   4.561  10.108   8.205
26626SOL     OW81710  12.209   5.181  10.724
26626SOL    HW181711  12.246   5.209  10.808
26626SOL    HW281712  12.131   5.236  10.713
26627SOL     OW81713   6.047   3.839   0.430
26627SOL    HW181714   5.956   3.825   0.405
26627SOL    HW281715   6.045   3.845   0.526
26628SOL     OW81716   0.931   7.015  11.513
26628SOL    HW181717   0.854   6.991  11.563
26628SOL    HW281718   0.897   7.044  11.428
26629SOL     OW81719   5.106   0.997   6.684
26629SOL    HW181720   5.097   0.924   6.622
26629SOL    HW281721   5.195   1.029   6.670
26630SOL     OW81722   2.714  12.591   2.675
26630SOL    HW181723   2.788  12.651   2.668
26630SOL    HW281724   2.746  12.518   2.728
26631SOL     OW81725   2.890   3.367   0.380
26631SOL    HW181726   2.937   3.432   0.327
26631SOL    HW281727   2.815   3.415   0.416
26632SOL     OW81728  14.813   9.052   1.485
26632SOL    HW181729  14.770   9.109   1.549
26632SOL    HW281730  14.829   9.109   1.410
26633SOL     OW81731   9.729   5.092   8.141
26633SOL    HW181732   9.652   5.116   8.192
26633SOL    HW281733   9.772   5.024   8.192
26634SOL     OW81734  12.064   4.030   0.137
26634SOL    HW181735  12.097   3.998   0.053
26634SOL    HW281736  12.138   4.018   0.197
26635SOL     OW81737  10.448  13.990  12.558
26635SOL    HW181738  10.398  14.070  12.577
26635SOL    HW281739  10.538  14.021  12.547
26636SOL     OW81740  14.546   1.755  10.854
26636SOL    HW181741  14.607   1.691  10.890
26636SOL    HW281742  14.461   1.730  10.890
26637SOL     OW81743   0.809   1.117   2.039
26637SOL    HW181744   0.831   1.093   1.949
26637SOL    HW281745   0.839   1.207   2.047
26638SOL     OW81746  12.626   2.374   9.852
26638SOL    HW181747  12.631   2.369   9.947
26638SOL    HW281748  12.569   2.449   9.835
26639SOL     OW81749  13.924   6.590   8.186
26639SOL    HW181750  13.943   6.683   8.201
26639SOL    HW281751  13.965   6.571   8.101
26640SOL     OW81752  13.493  13.968  12.920
26640SOL    HW181753  13.401  13.969  12.946
26640SOL    HW281754  13.540  13.950  13.001
26641SOL     OW81755   1.414   6.758  14.052
26641SOL    HW181756   1.389   6.730  14.140
26641SOL    HW281757   1.470   6.687  14.020
26642SOL     OW81758   3.844   3.732   6.112
26642SOL    HW181759   3.923   3.782   6.092
26642SOL    HW281760   3.788   3.741   6.034
26643SOL     OW81761   7.722   1.470  10.564
26643SOL    HW181762   7.746   1.539  10.626
26643SOL    HW281763   7.801   1.457  10.512
26644SOL     OW81764   4.794   5.456   0.048
26644SOL    HW181765   4.764   5.513  14.856
26644SOL    HW281766   4.806   5.515   0.122
26645SOL     OW81767   9.385  10.706  14.475
26645SOL    HW181768   9.463  10.653  14.490
26645SOL    HW281769   9.328  10.652  14.421
26646SOL     OW81770  14.205   6.219   7.384
26646SOL    HW181771  14.195   6.124   7.373
26646SOL    HW281772  14.275   6.229   7.449
26647SOL     OW81773   9.902  14.688  11.620
26647SOL    HW181774   9.971  14.726  11.565
26647SOL    HW281775   9.949  14.650  11.695
26648SOL     OW81776   5.966  11.251  12.707
26648SOL    HW181777   6.056  11.276  12.729
26648SOL    HW281778   5.942  11.311  12.636
26649SOL     OW81779  14.554  11.169   8.239
26649SOL    HW181780  14.619  11.177   8.309
26649SOL    HW281781  14.497  11.097   8.268
26650SOL     OW81782   9.494   3.254  13.633
26650SOL    HW181783   9.582   3.290  13.633
26650SOL    HW281784   9.503   3.166  13.597
26651SOL     OW81785   1.715   2.289   8.902
26651SOL    HW181786   1.802   2.252   8.887
26651SOL    HW281787   1.714   2.368   8.848
26652SOL     OW81788   7.208   3.551   9.721
26652SOL    HW181789   7.156   3.630   9.706
26652SOL    HW281790   7.214   3.509   9.635
26653SOL     OW81791   2.842  10.991   8.817
26653SOL    HW181792   2.761  10.945   8.795
26653SOL    HW281793   2.908  10.923   8.820
26654SOL     OW81794   2.931   9.296   3.085
26654SOL    HW181795   2.926   9.317   2.992
26654SOL    HW281796   2.957   9.204   3.087
26655SOL     OW81797   4.289   6.702   9.699
26655SOL    HW181798   4.279   6.790   9.734
26655SOL    HW281799   4.346   6.658   9.762
26656SOL     OW81800   0.192   0.184   9.153
26656SOL    HW181801   0.264   0.228   9.198
26656SOL    HW281802   0.134   0.155   9.224
26657SOL     OW81803   0.087   2.197   7.135
26657SOL    HW181804   0.097   2.121   7.193
26657SOL    HW281805   0.062   2.159   7.050
26658SOL     OW81806  13.204   1.617   9.233
26658SOL    HW181807  13.190   1.555   9.162
26658SOL    HW281808  13.124   1.670   9.235
26659SOL     OW81809  11.054   0.408   3.734
26659SOL    HW181810  11.017   0.446   3.813
26659SOL    HW281811  11.066   0.316   3.755
26660SOL     OW81812   8.027   7.322   9.499
26660SOL    HW181813   7.959   7.341   9.434
26660SOL    HW281814   8.089   7.394   9.492
26661SOL     OW81815   6.581   0.289   4.343
26661SOL    HW181816   6.562   0.364   4.400
26661SOL    HW281817   6.632   0.326   4.271
26662SOL     OW81818   5.797   3.510  14.045
26662SOL    HW181819   5.789   3.427  14.092
26662SOL    HW281820   5.706   3.539  14.033
26663SOL     OW81821   1.374   1.818   3.035
26663SOL    HW181822   1.372   1.749   3.101
26663SOL    HW281823   1.397   1.897   3.083
26664SOL     OW81824  10.896   6.147   3.415
26664SOL    HW181825  10.938   6.228   3.386
26664SOL    HW281826  10.965   6.101   3.464
26665SOL     OW81827   1.891   5.781  13.320
26665SOL    HW181828   1.819   5.730  13.283
26665SOL    HW281829   1.866   5.872  13.308
26666SOL     OW81830   2.014   0.234   3.949
26666SOL    HW181831   1.952   0.172   3.987
26666SOL    HW281832   2.076   0.251   4.020
26667SOL     OW81833   7.723   6.028   7.034
26667SOL    HW181834   7.782   6.011   6.961
26667SOL    HW281835   7.667   5.951   7.038
26668SOL     OW81836  13.824   5.532   8.442
26668SOL    HW181837  13.768   5.517   8.365
26668SOL    HW281838  13.851   5.444   8.469
26669SOL     OW81839   1.938   5.219   8.630
26669SOL    HW181840   1.969   5.179   8.711
26669SOL    HW281841   1.955   5.154   8.562
26670SOL     OW81842  10.325   8.648   0.740
26670SOL    HW181843  10.303   8.694   0.821
26670SOL    HW281844  10.241   8.619   0.705
26671SOL     OW81845   8.710   3.281  12.559
26671SOL    HW181846   8.794   3.247  12.528
26671SOL    HW281847   8.716   3.376  12.546
26672SOL     OW81848  11.680  13.632   5.664
26672SOL    HW181849  11.756  13.589   5.703
26672SOL    HW281850  11.654  13.574   5.592
26673SOL     OW81851  12.827   6.851   3.257
26673SOL    HW181852  12.815   6.779   3.319
26673SOL    HW281853  12.909   6.893   3.284
26674SOL     OW81854   9.862  14.295  14.266
26674SOL    HW181855   9.881  14.288  14.172
26674SOL    HW281856   9.795  14.364  14.271
26675SOL     OW81857   8.756   8.641   0.090
26675SOL    HW181858   8.687   8.700   0.059
26675SOL    HW281859   8.712   8.582   0.151
26676SOL     OW81860   5.074   6.559   3.830
26676SOL    HW181861   4.998   6.535   3.883
26676SOL    HW281862   5.117   6.476   3.810
26677SOL     OW81863   8.466   0.930  11.105
26677SOL    HW181864   8.558   0.908  11.120
26677SOL    HW281865   8.443   0.881  11.026
26678SOL     OW81866   4.340   4.551   1.609
26678SOL    HW181867   4.311   4.488   1.543
26678SOL    HW281868   4.418   4.512   1.647
26679SOL     OW81869   2.676  13.269   7.233
26679SOL    HW181870   2.656  13.180   7.263
26679SOL    HW281871   2.645  13.325   7.304
26680SOL     OW81872   2.274   0.070   2.229
26680SOL    HW181873   2.349   0.013   2.220
26680SOL    HW281874   2.224   0.059   2.148
26681SOL     OW81875   9.838   0.589   8.092
26681SOL    HW181876   9.855   0.517   8.031
26681SOL    HW281877   9.854   0.668   8.041
26682SOL     OW81878   5.944  12.029  14.158
26682SOL    HW181879   5.898  11.947  14.145
26682SOL    HW281880   5.991  12.044  14.076
26683SOL     OW81881   5.868  13.655   9.069
26683SOL    HW181882   5.838  13.605   9.145
26683SOL    HW281883   5.963  13.645   9.071
26684SOL     OW81884  10.190   7.391   4.057
26684SOL    HW181885  10.232   7.473   4.030
26684SOL    HW281886  10.207   7.385   4.151
26685SOL     OW81887   0.341   1.792   6.648
26685SOL    HW181888   0.274   1.768   6.583
26685SOL    HW281889   0.403   1.847   6.600
26686SOL     OW81890   2.973   2.465   6.750
26686SOL    HW181891   2.935   2.390   6.796
26686SOL    HW281892   2.999   2.525   6.819
26687SOL     OW81893   3.020  11.616   1.288
26687SOL    HW181894   3.078  11.670   1.341
26687SOL    HW281895   3.035  11.645   1.198
26688SOL     OW81896  11.656  13.607  13.885
26688SOL    HW181897  11.715  13.614  13.810
26688SOL    HW281898  11.620  13.518  13.879
26689SOL     OW81899   2.970   9.024   3.170
26689SOL    HW181900   2.922   8.968   3.109
26689SOL    HW281901   3.035   8.967   3.210
26690SOL     OW81902   7.889   6.713   0.000
26690SOL    HW181903   7.884   6.644   0.067
26690SOL    HW281904   7.797   6.732  14.859
26691SOL     OW81905  13.849   0.023   8.576
26691SOL    HW181906  13.801   0.048   8.655
26691SOL    HW281907  13.810   0.076   8.506
26692SOL     OW81908   0.869   5.134   7.940
26692SOL    HW181909   0.933   5.160   8.006
26692SOL    HW281910   0.840   5.047   7.967
26693SOL     OW81911  11.874  13.812   6.492
26693SOL    HW181912  11.929  13.866   6.548
26693SOL    HW281913  11.936  13.759   6.441
26694SOL     OW81914   8.902   7.345  12.052
26694SOL    HW181915   8.872   7.262  12.089
26694SOL    HW281916   8.983   7.323  12.006
26695SOL     OW81917   1.283   6.266   3.718
26695SOL    HW181918   1.226   6.236   3.790
26695SOL    HW281919   1.246   6.350   3.692
26696SOL     OW81920   5.743   6.720   3.315
26696SOL    HW181921   5.677   6.651   3.314
26696SOL    HW281922   5.692   6.801   3.304
26697SOL     OW81923   6.510  11.348   3.816
26697SOL    HW181924   6.551  11.275   3.769
26697SOL    HW281925   6.422  11.316   3.837
26698SOL     OW81926   1.860  14.197   9.393
26698SOL    HW181927   1.796  14.268   9.395
26698SOL    HW281928   1.865  14.172   9.301
26699SOL     OW81929   7.366   6.532   6.804
26699SOL    HW181930   7.412   6.459   6.844
26699SOL    HW281931   7.352   6.505   6.713
26700SOL     OW81932  10.613   6.155   2.305
26700SOL    HW181933  10.563   6.102   2.242
26700SOL    HW281934  10.603   6.108   2.388
26701SOL     OW81935  11.575   4.790   2.620
26701SOL    HW181936  11.564   4.711   2.566
26701SOL    HW281937  11.519   4.855   2.579
26702SOL     OW81938  14.115   9.057   5.849
26702SOL    HW181939  14.182   9.018   5.905
26702SOL    HW281940  14.123   9.151   5.865
26703SOL     OW81941  14.071   3.544  12.836
26703SOL    HW181942  13.988   3.513  12.870
26703SOL    HW281943  14.079   3.500  12.751
26704SOL     OW81944  14.736   9.043  11.917
26704SOL    HW181945  14.805   9.098  11.880
26704SOL    HW281946  14.764   9.026  12.007
26705SOL     OW81947   4.126  14.815   2.086
26705SOL    HW181948   4.126  14.727   2.049
26705SOL    HW281949   4.037  14.827   2.119
26706SOL     OW81950   3.927   5.832   3.620
26706SOL    HW181951   3.978   5.813   3.698
26706SOL    HW281952   3.908   5.925   3.626
26707SOL     OW81953   6.843  12.719   3.632
26707SOL    HW181954   6.885  12.789   3.583
26707SOL    HW281955   6.795  12.668   3.566
26708SOL     OW81956  13.543   7.634   1.351
26708SOL    HW181957  13.614   7.695   1.368
26708SOL    HW281958  13.474   7.658   1.412
26709SOL     OW81959   8.559   9.222   4.785
26709SOL    HW181960   8.531   9.266   4.705
26709SOL    HW281961   8.560   9.290   4.852
26710SOL     OW81962   1.736   2.325   2.648
26710SOL    HW181963   1.647   2.359   2.656
26710SOL    HW281964   1.763   2.306   2.738
26711SOL     OW81965  10.364   5.835   3.725
26711SOL    HW181966  10.304   5.908   3.739
26711SOL    HW281967  10.438   5.873   3.678
26712SOL     OW81968   3.142  10.281  14.636
26712SOL    HW181969   3.051  10.292  14.662
26712SOL    HW281970   3.181  10.368  14.646
26713SOL     OW81971   0.692   0.102   2.786
26713SOL    HW181972   0.711   0.008   2.780
26713SOL    HW281973   0.601   0.110   2.758
26714SOL     OW81974   0.315   3.448  14.810
26714SOL    HW181975   0.303   3.402  14.727
26714SOL    HW281976   0.231   3.491  14.826
26715SOL     OW81977   6.517   2.228  14.488
26715SOL    HW181978   6.452   2.173  14.532
26715SOL    HW281979   6.594   2.225  14.545
26716SOL     OW81980   5.277  14.386  11.419
26716SOL    HW181981   5.296  14.402  11.511
26716SOL    HW281982   5.354  14.338  11.387
26717SOL     OW81983  12.266   1.146   0.592
26717SOL    HW181984  12.219   1.071   0.556
26717SOL    HW281985  12.351   1.112   0.617
26718SOL     OW81986   1.872   5.163   0.881
26718SOL    HW181987   1.805   5.229   0.870
26718SOL    HW281988   1.827   5.089   0.924
26719SOL     OW81989   8.035  12.543   6.683
26719SOL    HW181990   8.062  12.524   6.772
26719SOL    HW281991   7.941  12.526   6.682
26720SOL     OW81992   2.542   0.694   6.094
26720SOL    HW181993   2.507   0.634   6.028
26720SOL    HW281994   2.621   0.651   6.126
26721SOL     OW81995   7.539   6.397   0.186
26721SOL    HW181996   7.557   6.483   0.148
26721SOL    HW281997   7.568   6.334   0.119
26722SOL     OW81998  13.268   1.039   5.781
26722SOL    HW181999  13.311   0.958   5.754
26722SOL    HW282000  13.211   1.062   5.708
26723SOL     OW82001  10.880  13.850   3.237
26723SOL    HW182002  10.870  13.755   3.241
26723SOL    HW282003  10.837  13.882   3.317
26724SOL     OW82004   5.827  14.172   2.906
26724SOL    HW182005   5.913  14.140   2.932
26724SOL    HW282006   5.809  14.244   2.966
26725SOL     OW82007  12.785  11.878   1.209
26725SOL    HW182008  12.871  11.843   1.230
26725SOL    HW282009  12.778  11.870   1.113
26726SOL     OW82010   9.152   3.914   0.564
26726SOL    HW182011   9.163   3.822   0.587
26726SOL    HW282012   9.142   3.914   0.469
26727SOL     OW82013   7.817   2.586   3.256
26727SOL    HW182014   7.841   2.571   3.347
26727SOL    HW282015   7.898   2.614   3.213
26728SOL     OW82016  11.336   2.386   2.693
26728SOL    HW182017  11.362   2.476   2.712
26728SOL    HW282018  11.257   2.395   2.639
26729SOL     OW82019   5.180   0.240  10.570
26729SOL    HW182020   5.190   0.277  10.482
26729SOL    HW282021   5.124   0.302  10.616
26730SOL     OW82022   7.001   6.649  11.280
26730SOL    HW182023   7.050   6.580  11.325
26730SOL    HW282024   7.025   6.729  11.326
26731SOL     OW82025   5.394   0.691   1.307
26731SOL    HW182026   5.433   0.730   1.386
26731SOL    HW282027   5.435   0.739   1.235
26732SOL     OW82028  11.195   6.235   7.226
26732SOL    HW182029  11.264   6.299   7.211
26732SOL    HW282030  11.228   6.181   7.298
26733SOL     OW82031  11.240   8.628   7.193
26733SOL    HW182032  11.276   8.590   7.273
26733SOL    HW282033  11.308   8.613   7.127
26734SOL     OW82034  11.170  13.216  14.509
26734SOL    HW182035  11.087  13.203  14.555
26734SOL    HW282036  11.237  13.213  14.577
26735SOL     OW82037   6.053   0.209  10.479
26735SOL    HW182038   6.141   0.181  10.457
26735SOL    HW282039   6.064   0.293  10.524
26736SOL     OW82040  12.643  10.858   8.866
26736SOL    HW182041  12.626  10.946   8.899
26736SOL    HW282042  12.614  10.861   8.775
26737SOL     OW82043   8.325  14.542  10.604
26737SOL    HW182044   8.279  14.535  10.687
26737SOL    HW282045   8.384  14.617  10.615
26738SOL     OW82046  11.377   6.066   2.076
26738SOL    HW182047  11.301   6.085   2.131
26738SOL    HW282048  11.340   6.055   1.988
26739SOL     OW82049   2.861   4.949   7.521
26739SOL    HW182050   2.801   4.962   7.595
26739SOL    HW282051   2.867   5.035   7.480
26740SOL     OW82052  12.817  12.951  11.011
26740SOL    HW182053  12.863  13.004  10.945
26740SOL    HW282054  12.886  12.906  11.059
26741SOL     OW82055  10.709   3.209   4.340
26741SOL    HW182056  10.735   3.124   4.374
26741SOL    HW282057  10.713   3.199   4.245
26742SOL     OW82058   4.343   6.678   5.816
26742SOL    HW182059   4.284   6.620   5.768
26742SOL    HW282060   4.290   6.712   5.888
26743SOL     OW82061   9.822   0.480  12.914
26743SOL    HW182062   9.728   0.473  12.894
26743SOL    HW282063   9.857   0.393  12.893
26744SOL     OW82064   3.537  11.477   3.545
26744SOL    HW182065   3.526  11.468   3.450
26744SOL    HW282066   3.627  11.449   3.561
26745SOL     OW82067   4.585   7.393  10.287
26745SOL    HW182068   4.631   7.334  10.346
26745SOL    HW282069   4.654   7.452  10.254
26746SOL     OW82070  12.290   7.451   2.895
26746SOL    HW182071  12.356   7.411   2.952
26746SOL    HW282072  12.249   7.377   2.851
26747SOL     OW82073   3.795   5.830   2.544
26747SOL    HW182074   3.714   5.880   2.536
26747SOL    HW282075   3.766   5.740   2.559
26748SOL     OW82076  13.041  12.380   4.521
26748SOL    HW182077  13.122  12.420   4.489
26748SOL    HW282078  12.972  12.424   4.472
26749SOL     OW82079  12.090   2.745   0.039
26749SOL    HW182080  12.010   2.714   0.081
26749SOL    HW282081  12.156   2.681   0.062
26750SOL     OW82082   7.021   7.176  11.770
26750SOL    HW182083   6.946   7.232  11.754
26750SOL    HW282084   7.083   7.197  11.700
26751SOL     OW82085   5.061  11.932  10.722
26751SOL    HW182086   5.003  11.982  10.664
26751SOL    HW282087   5.092  11.996  10.786
26752SOL     OW82088   8.698   7.650   6.576
26752SOL    HW182089   8.659   7.621   6.493
26752SOL    HW282090   8.678   7.744   6.579
26753SOL     OW82091   9.365   8.505  10.033
26753SOL    HW182092   9.458   8.523  10.044
26753SOL    HW282093   9.356   8.480   9.941
26754SOL     OW82094   5.005  14.826   2.872
26754SOL    HW182095   5.031  14.761   2.807
26754SOL    HW282096   5.087  14.865   2.902
26755SOL     OW82097   3.261   8.222  14.733
26755SOL    HW182098   3.227   8.198  14.819
26755SOL    HW282099   3.193   8.277  14.694
26756SOL     OW82100   5.249   2.554   6.369
26756SOL    HW182101   5.269   2.555   6.275
26756SOL    HW282102   5.212   2.640   6.386
26757SOL     OW82103   9.492  10.605  11.126
26757SOL    HW182104   9.445  10.631  11.205
26757SOL    HW282105   9.577  10.572  11.158
26758SOL     OW82106  13.743  11.625  12.198
26758SOL    HW182107  13.781  11.546  12.239
26758SOL    HW282108  13.729  11.600  12.107
26759SOL     OW82109   2.537  10.691  14.577
26759SOL    HW182110   2.612  10.675  14.633
26759SOL    HW282111   2.574  10.723  14.494
26760SOL     OW82112  14.592   2.674   9.718
26760SOL    HW182113  14.519   2.729   9.747
26760SOL    HW282114  14.666   2.703   9.771
26761SOL     OW82115   8.800   9.331  11.596
26761SOL    HW182116   8.715   9.289  11.580
26761SOL    HW282117   8.781   9.396  11.665
26762SOL     OW82118   1.427   0.712  11.241
26762SOL    HW182119   1.496   0.778  11.236
26762SOL    HW282120   1.399   0.714  11.333
26763SOL     OW82121   6.231   8.159  13.151
26763SOL    HW182122   6.248   8.155  13.057
26763SOL    HW282123   6.276   8.082  13.186
26764SOL     OW82124   8.061  14.312   5.713
26764SOL    HW182125   8.008  14.392   5.713
26764SOL    HW282126   8.028  14.262   5.638
26765SOL     OW82127  11.820  13.588   8.270
26765SOL    HW182128  11.870  13.636   8.203
26765SOL    HW282129  11.733  13.628   8.268
26766SOL     OW82130   3.773   4.328   5.819
26766SOL    HW182131   3.793   4.420   5.798
26766SOL    HW282132   3.853   4.280   5.794
26767SOL     OW82133  12.011   9.033  14.425
26767SOL    HW182134  11.997   9.114  14.474
26767SOL    HW282135  12.087   9.051  14.369
26768SOL     OW82136   7.053   2.465  12.842
26768SOL    HW182137   7.033   2.507  12.759
26768SOL    HW282138   6.987   2.500  12.903
26769SOL     OW82139   8.487   2.954   4.293
26769SOL    HW182140   8.484   3.010   4.215
26769SOL    HW282141   8.580   2.940   4.309
26770SOL     OW82142   9.747   2.807  10.248
26770SOL    HW182143   9.763   2.889  10.199
26770SOL    HW282144   9.768   2.829  10.338
26771SOL     OW82145  11.291   7.758  13.556
26771SOL    HW182146  11.230   7.829  13.576
26771SOL    HW282147  11.288   7.749  13.461
26772SOL     OW82148  12.293   9.316   0.837
26772SOL    HW182149  12.369   9.278   0.793
26772SOL    HW282150  12.330   9.383   0.895
26773SOL     OW82151  11.293  14.544  13.837
26773SOL    HW182152  11.321  14.465  13.884
26773SOL    HW282153  11.204  14.560  13.868
26774SOL     OW82154  10.184   1.907   3.788
26774SOL    HW182155  10.107   1.954   3.821
26774SOL    HW282156  10.156   1.869   3.705
26775SOL     OW82157  13.225  10.273   3.491
26775SOL    HW182158  13.174  10.229   3.423
26775SOL    HW282159  13.164  10.285   3.563
26776SOL     OW82160   8.102  14.374   0.904
26776SOL    HW182161   8.182  14.366   0.851
26776SOL    HW282162   8.034  14.400   0.842
26777SOL     OW82163   1.808  11.658   2.141
26777SOL    HW182164   1.877  11.680   2.204
26777SOL    HW282165   1.783  11.742   2.102
26778SOL     OW82166   7.865  14.297  12.831
26778SOL    HW182167   7.919  14.360  12.877
26778SOL    HW282168   7.822  14.348  12.762
26779SOL     OW82169  11.259   8.100   6.015
26779SOL    HW182170  11.258   8.157   6.091
26779SOL    HW282171  11.331   8.039   6.031
26780SOL     OW82172   0.052   7.380  12.870
26780SOL    HW182173  14.875   7.457  12.866
26780SOL    HW282174   0.021   7.323  12.799
26781SOL     OW82175   4.550  12.187  12.281
26781SOL    HW182176   4.482  12.230  12.332
26781SOL    HW282177   4.507  12.162  12.199
26782SOL     OW82178   4.368   0.936   4.357
26782SOL    HW182179   4.431   0.923   4.286
26782SOL    HW282180   4.422   0.942   4.436
26783SOL     OW82181  11.324   7.527   6.804
26783SOL    HW182182  11.389   7.553   6.870
26783SOL    HW282183  11.328   7.596   6.738
26784SOL     OW82184   2.695   6.132   6.078
26784SOL    HW182185   2.766   6.137   6.142
26784SOL    HW282186   2.700   6.043   6.044
26785SOL     OW82187   3.201  11.195   0.066
26785SOL    HW182188   3.109  11.210   0.087
26785SOL    HW282189   3.227  11.123   0.123
26786SOL     OW82190   0.715   9.760  13.656
26786SOL    HW182191   0.714   9.794  13.746
26786SOL    HW282192   0.684   9.833  13.603
26787SOL     OW82193  11.372  12.020   3.771
26787SOL    HW182194  11.288  12.054   3.739
26787SOL    HW282195  11.376  11.930   3.738
26788SOL     OW82196   3.547   8.000   9.042
26788SOL    HW182197   3.616   7.986   9.107
26788SOL    HW282198   3.590   8.049   8.972
26789SOL     OW82199  10.855  13.668  12.468
26789SOL    HW182200  10.877  13.577  12.450
26789SOL    HW282201  10.759  13.671  12.465
26790SOL     OW82202  11.571   9.106  13.085
26790SOL    HW182203  11.534   9.079  13.169
26790SOL    HW282204  11.623   9.030  13.056
26791SOL     OW82205  13.000   4.568   0.654
26791SOL    HW182206  12.929   4.604   0.600
26791SOL    HW282207  13.048   4.645   0.685
26792SOL     OW82208   6.801  10.859   3.946
26792SOL    HW182209   6.846  10.777   3.927
26792SOL    HW282210   6.861  10.906   4.004
26793SOL     OW82211   0.932  13.196   8.988
26793SOL    HW182212   0.950  13.281   9.029
26793SOL    HW282213   0.954  13.208   8.896
26794SOL     OW82214  11.842   3.953  11.189
26794SOL    HW182215  11.825   4.042  11.160
26794SOL    HW282216  11.823   3.899  11.112
26795SOL     OW82217  12.732   3.687  14.369
26795SOL    HW182218  12.681   3.643  14.437
26795SOL    HW282219  12.677   3.760  14.340
26796SOL     OW82220  11.976   0.839   3.660
26796SOL    HW182221  12.004   0.823   3.570
26796SOL    HW282222  11.884   0.865   3.653
26797SOL     OW82223   6.984   3.937   1.594
26797SOL    HW182224   7.064   3.946   1.541
26797SOL    HW282225   6.914   3.936   1.529
26798SOL     OW82226   6.163   8.510  14.636
26798SOL    HW182227   6.079   8.515  14.683
26798SOL    HW282228   6.176   8.417  14.620
26799SOL     OW82229   5.141   1.301   5.856
26799SOL    HW182230   5.105   1.273   5.940
26799SOL    HW282231   5.235   1.310   5.872
26800SOL     OW82232   7.359   1.180   0.076
26800SOL    HW182233   7.266   1.188   0.098
26800SOL    HW282234   7.377   1.086   0.082
26801SOL     OW82235  10.605   9.095   4.024
26801SOL    HW182236  10.670   9.082   4.094
26801SOL    HW282237  10.557   9.173   4.051
26802SOL     OW82238  13.328   8.119   9.903
26802SOL    HW182239  13.237   8.139   9.881
26802SOL    HW282240  13.353   8.187   9.966
26803SOL     OW82241   0.809   6.794   9.392
26803SOL    HW182242   0.866   6.750   9.328
26803SOL    HW282243   0.867   6.818   9.464
26804SOL     OW82244   7.384   0.518   8.788
26804SOL    HW182245   7.476   0.534   8.769
26804SOL    HW282246   7.384   0.476   8.873
26805SOL     OW82247   4.609   7.511   2.332
26805SOL    HW182248   4.514   7.511   2.327
26805SOL    HW282249   4.637   7.574   2.266
26806SOL     OW82250   0.060   9.512   9.899
26806SOL    HW182251   0.070   9.534   9.806
26806SOL    HW282252  14.845   9.501   9.912
26807SOL     OW82253   3.849   0.603   0.478
26807SOL    HW182254   3.834   0.518   0.438
26807SOL    HW282255   3.764   0.628   0.516
26808SOL     OW82256   3.827   4.348  10.176
26808SOL    HW182257   3.882   4.289  10.125
26808SOL    HW282258   3.781   4.289  10.237
26809SOL     OW82259  12.026   3.217  14.231
26809SOL    HW182260  12.063   3.277  14.295
26809SOL    HW282261  12.077   3.136  14.241
26810SOL     OW82262   4.414  11.285   3.990
26810SOL    HW182263   4.503  11.270   4.022
26810SOL    HW282264   4.416  11.252   3.900
26811SOL     OW82265   4.808   9.697  11.509
26811SOL    HW182266   4.719   9.663  11.504
26811SOL    HW282267   4.817   9.753  11.431
26812SOL     OW82268  14.168  14.650   8.857
26812SOL    HW182269  14.152  14.700   8.778
26812SOL    HW282270  14.261  14.630   8.855
26813SOL     OW82271  11.582  10.279  10.122
26813SOL    HW182272  11.547  10.322  10.200
26813SOL    HW282273  11.564  10.186  10.136
26814SOL     OW82274   5.620  14.267   4.392
26814SOL    HW182275   5.551  14.263   4.326
26814SOL    HW282276   5.575  14.253   4.475
26815SOL     OW82277   9.580  12.213  14.558
26815SOL    HW182278   9.591  12.185  14.649
26815SOL    HW282279   9.486  12.208  14.542
26816SOL     OW82280   5.666   9.459   9.743
26816SOL    HW182281   5.713   9.503   9.672
26816SOL    HW282282   5.574   9.477   9.725
26817SOL     OW82283  13.996  10.609   4.030
26817SOL    HW182284  13.941  10.688   4.026
26817SOL    HW282285  14.053  10.617   3.954
26818SOL     OW82286   0.971   9.264  14.647
26818SOL    HW182287   0.958   9.267  14.553
26818SOL    HW282288   0.923   9.339  14.681
26819SOL     OW82289   6.880   2.020  13.188
26819SOL    HW182290   6.951   2.009  13.251
26819SOL    HW282291   6.918   1.995  13.104
26820SOL     OW82292  14.391  12.433   6.139
26820SOL    HW182293  14.327  12.366   6.163
26820SOL    HW282294  14.457  12.430   6.208
26821SOL     OW82295   3.964   9.318   8.020
26821SOL    HW182296   3.982   9.227   8.043
26821SOL    HW282297   4.012   9.333   7.939
26822SOL     OW82298  14.292   0.611   5.403
26822SOL    HW182299  14.269   0.704   5.395
26822SOL    HW282300  14.253   0.584   5.486
26823SOL     OW82301   2.086  14.106  12.469
26823SOL    HW182302   2.107  14.116  12.376
26823SOL    HW282303   2.061  14.194  12.497
26824SOL     OW82304  10.820  12.124   7.906
26824SOL    HW182305  10.802  12.140   7.999
26824SOL    HW282306  10.747  12.165   7.860
26825SOL     OW82307   2.308   4.202  14.068
26825SOL    HW182308   2.285   4.110  14.058
26825SOL    HW282309   2.301   4.239  13.980
26826SOL     OW82310   1.504  10.135   1.593
26826SOL    HW182311   1.459  10.200   1.539
26826SOL    HW282312   1.448  10.058   1.590
26827SOL     OW82313  14.322  10.857   5.848
26827SOL    HW182314  14.227  10.845   5.841
26827SOL    HW282315  14.335  10.892   5.936
26828SOL     OW82316  14.111   7.620   1.388
26828SOL    HW182317  14.138   7.712   1.394
26828SOL    HW282318  14.182   7.572   1.430
26829SOL     OW82319   7.519  14.683   5.071
26829SOL    HW182320   7.489  14.773   5.057
26829SOL    HW282321   7.465  14.631   5.012
26830SOL     OW82322   3.622   7.455   0.230
26830SOL    HW182323   3.571   7.375   0.239
26830SOL    HW282324   3.581   7.517   0.291
26831SOL     OW82325   6.937  12.735  10.287
26831SOL    HW182326   6.921  12.759  10.378
26831SOL    HW282327   6.879  12.661  10.271
26832SOL     OW82328   3.265   1.957  12.674
26832SOL    HW182329   3.197   2.005  12.628
26832SOL    HW282330   3.282   1.881  12.619
26833SOL     OW82331   5.966  13.458   0.095
26833SOL    HW182332   6.020  13.442   0.018
26833SOL    HW282333   5.949  13.370   0.130
26834SOL     OW82334   1.629   2.758   9.432
26834SOL    HW182335   1.569   2.684   9.425
26834SOL    HW282336   1.624   2.801   9.346
26835SOL     OW82337   1.586   7.334   0.417
26835SOL    HW182338   1.604   7.349   0.510
26835SOL    HW282339   1.491   7.320   0.413
26836SOL     OW82340   3.899   1.421  12.867
26836SOL    HW182341   3.945   1.345  12.831
26836SOL    HW282342   3.959   1.494  12.856
26837SOL     OW82343  13.829   2.403   6.882
26837SOL    HW182344  13.814   2.455   6.803
26837SOL    HW282345  13.911   2.437   6.918
26838SOL     OW82346   1.674   6.886   4.310
26838SOL    HW182347   1.598   6.847   4.266
26838SOL    HW282348   1.674   6.977   4.280
26839SOL     OW82349   8.187   3.117   1.701
26839SOL    HW182350   8.199   3.120   1.795
26839SOL    HW282351   8.273   3.138   1.664
26840SOL     OW82352   9.219  10.194   9.236
26840SOL    HW182353   9.169  10.211   9.316
26840SOL    HW282354   9.152  10.187   9.167
26841SOL     OW82355   5.508  10.885  10.264
26841SOL    HW182356   5.530  10.952  10.329
26841SOL    HW282357   5.555  10.910  10.185
26842SOL     OW82358  13.641  13.810  12.653
26842SOL    HW182359  13.686  13.780  12.574
26842SOL    HW282360  13.709  13.856  12.703
26843SOL     OW82361   6.237   1.996   1.756
26843SOL    HW182362   6.176   2.018   1.685
26843SOL    HW282363   6.281   2.078   1.777
26844SOL     OW82364  12.079  10.812   5.139
26844SOL    HW182365  12.081  10.716   5.129
26844SOL    HW282366  12.009  10.840   5.080
26845SOL     OW82367   1.219   0.546   8.626
26845SOL    HW182368   1.235   0.562   8.719
26845SOL    HW282369   1.306   0.550   8.587
26846SOL     OW82370  13.663   2.795  12.791
26846SOL    HW182371  13.596   2.728  12.777
26846SOL    HW282372  13.655   2.818  12.884
26847SOL     OW82373   7.099   9.620   8.155
26847SOL    HW182374   7.008   9.646   8.168
26847SOL    HW282375   7.095   9.546   8.095
26848SOL     OW82376   2.994   2.343   5.475
26848SOL    HW182377   3.017   2.432   5.502
26848SOL    HW282378   3.060   2.287   5.516
26849SOL     OW82379  13.384  14.716  12.594
26849SOL    HW182380  13.453  14.782  12.589
26849SOL    HW282381  13.425  14.637  12.558
26850SOL     OW82382   4.405   9.032  12.610
26850SOL    HW182383   4.451   9.114  12.591
26850SOL    HW282384   4.322   9.040  12.562
26851SOL     OW82385   0.793   2.535   5.011
26851SOL    HW182386   0.733   2.557   5.082
26851SOL    HW282387   0.741   2.484   4.949
26852SOL     OW82388   6.960  12.195   6.793
26852SOL    HW182389   7.008  12.137   6.851
26852SOL    HW282390   6.947  12.275   6.844
26853SOL     OW82391   8.273  11.032   4.207
26853SOL    HW182392   8.281  10.945   4.247
26853SOL    HW282393   8.361  11.051   4.173
26854SOL     OW82394   1.661  13.903   2.771
26854SOL    HW182395   1.680  13.851   2.693
26854SOL    HW282396   1.734  13.965   2.778
26855SOL     OW82397   4.617   6.726   1.972
26855SOL    HW182398   4.547   6.687   2.025
26855SOL    HW282399   4.691   6.667   1.984
26856SOL     OW82400  10.170   6.024  13.054
26856SOL    HW182401  10.109   5.973  13.000
26856SOL    HW282402  10.213   5.960  13.109
26857SOL     OW82403  14.826   0.163  14.192
26857SOL    HW182404  14.834   0.257  14.180
26857SOL    HW282405  14.732   0.146  14.190
26858SOL     OW82406  12.098  14.361   2.629
26858SOL    HW182407  12.124  14.439   2.580
26858SOL    HW282408  12.150  14.366   2.710
26859SOL     OW82409  11.209   0.733   1.853
26859SOL    HW182410  11.240   0.823   1.839
26859SOL    HW282411  11.129   0.726   1.802
26860SOL     OW82412  13.041   3.624   3.604
26860SOL    HW182413  12.977   3.657   3.541
26860SOL    HW282414  13.101   3.572   3.551
26861SOL     OW82415  14.816   7.688  14.763
26861SOL    HW182416   0.005   7.666  14.826
26861SOL    HW282417  14.740   7.638  14.792
26862SOL     OW82418  11.843   3.202   1.777
26862SOL    HW182419  11.801   3.169   1.697
26862SOL    HW282420  11.851   3.296   1.763
26863SOL     OW82421   4.246  13.601   1.139
26863SOL    HW182422   4.267  13.577   1.048
26863SOL    HW282423   4.171  13.546   1.162
26864SOL     OW82424  11.734   4.748   3.928
26864SOL    HW182425  11.670   4.685   3.960
26864SOL    HW282426  11.694   4.833   3.947
26865SOL     OW82427  14.455   6.758  13.795
26865SOL    HW182428  14.484   6.849  13.790
26865SOL    HW282429  14.380   6.753  13.736
26866SOL     OW82430   5.818   3.753  14.298
26866SOL    HW182431   5.755   3.784  14.233
26866SOL    HW282432   5.899   3.738  14.248
26867SOL     OW82433  11.794   7.498   3.023
26867SOL    HW182434  11.870   7.556   3.021
26867SOL    HW282435  11.719   7.557   3.030
26868SOL     OW82436   6.815   0.794   0.811
26868SOL    HW182437   6.845   0.882   0.787
26868SOL    HW282438   6.795   0.752   0.728
26869SOL     OW82439   4.190  13.264   7.393
26869SOL    HW182440   4.219  13.270   7.302
26869SOL    HW282441   4.221  13.344   7.434
26870SOL     OW82442  11.379   3.498   4.343
26870SOL    HW182443  11.392   3.537   4.430
26870SOL    HW282444  11.449   3.534   4.289
26871SOL     OW82445   9.054   2.401   2.281
26871SOL    HW182446   9.077   2.476   2.226
26871SOL    HW282447   9.119   2.334   2.259
26872SOL     OW82448   7.031   6.179   5.139
26872SOL    HW182449   6.938   6.200   5.144
26872SOL    HW282450   7.056   6.157   5.229
26873SOL     OW82451  12.385  10.250  10.032
26873SOL    HW182452  12.430  10.172  10.065
26873SOL    HW282453  12.332  10.217   9.959
26874SOL     OW82454   8.608  14.250   2.139
26874SOL    HW182455   8.658  14.243   2.058
26874SOL    HW282456   8.520  14.219   2.116
26875SOL     OW82457  11.424  11.877   1.370
26875SOL    HW182458  11.343  11.826   1.373
26875SOL    HW282459  11.478  11.840   1.439
26876SOL     OW82460  12.552   7.818   6.221
26876SOL    HW182461  12.462   7.848   6.209
26876SOL    HW282462  12.570   7.834   6.314
26877SOL     OW82463   3.364   7.550   2.845
26877SOL    HW182464   3.314   7.599   2.780
26877SOL    HW282465   3.434   7.609   2.873
26878SOL     OW82466   2.716  12.188  14.809
26878SOL    HW182467   2.630  12.204  14.770
26878SOL    HW282468   2.775  12.176  14.734
26879SOL     OW82469  11.326   2.252  12.943
26879SOL    HW182470  11.236   2.222  12.927
26879SOL    HW282471  11.364   2.186  13.000
26880SOL     OW82472   9.907   0.867   7.680
26880SOL    HW182473   9.850   0.944   7.681
26880SOL    HW282474   9.916   0.843   7.772
26881SOL     OW82475   1.293  14.238  12.386
26881SOL    HW182476   1.209  14.192  12.379
26881SOL    HW282477   1.321  14.223  12.476
26882SOL     OW82478   5.925   5.151  13.349
26882SOL    HW182479   5.978   5.219  13.308
26882SOL    HW282480   5.893   5.191  13.430
26883SOL     OW82481  13.639   4.957   4.207
26883SOL    HW182482  13.553   4.915   4.214
26883SOL    HW282483  13.685   4.905   4.142
26884SOL     OW82484  13.898   9.414   7.283
26884SOL    HW182485  13.930   9.337   7.329
26884SOL    HW282486  13.926   9.402   7.193
26885SOL     OW82487   8.899   4.812  11.386
26885SOL    HW182488   8.825   4.823  11.446
26885SOL    HW282489   8.875   4.737  11.332
26886SOL     OW82490   2.549  10.467   4.412
26886SOL    HW182491   2.591  10.495   4.493
26886SOL    HW282492   2.480  10.532   4.397
26887SOL     OW82493  12.272  10.498   1.726
26887SOL    HW182494  12.264  10.570   1.663
26887SOL    HW282495  12.259  10.419   1.675
26888SOL     OW82496   0.344   2.151   6.580
26888SOL    HW182497   0.364   2.241   6.553
26888SOL    HW282498   0.377   2.145   6.669
26889SOL     OW82499  13.283   4.062   6.195
26889SOL    HW182500  13.341   3.992   6.225
26889SOL    HW282501  13.207   4.016   6.160
26890SOL     OW82502   6.203   3.574  13.578
26890SOL    HW182503   6.225   3.658  13.619
26890SOL    HW282504   6.153   3.528  13.645
26891SOL     OW82505  13.211   2.878   9.739
26891SOL    HW182506  13.242   2.803   9.790
26891SOL    HW282507  13.223   2.853   9.648
26892SOL     OW82508  12.023  12.039  12.112
26892SOL    HW182509  12.074  12.103  12.063
26892SOL    HW282510  12.047  12.055  12.203
26893SOL     OW82511   6.670   2.714   2.208
26893SOL    HW182512   6.672   2.792   2.152
26893SOL    HW282513   6.577   2.698   2.223
26894SOL     OW82514   9.627   2.282   0.394
26894SOL    HW182515   9.541   2.282   0.351
26894SOL    HW282516   9.653   2.190   0.397
26895SOL     OW82517   6.830   1.681   5.767
26895SOL    HW182518   6.911   1.685   5.818
26895SOL    HW282519   6.811   1.588   5.759
26896SOL     OW82520   3.277  13.114   5.769
26896SOL    HW182521   3.220  13.179   5.729
26896SOL    HW282522   3.217  13.050   5.809
26897SOL     OW82523   6.034   8.002   7.947
26897SOL    HW182524   5.975   7.936   7.984
26897SOL    HW282525   5.994   8.086   7.971
26898SOL     OW82526   6.893  12.092  12.557
26898SOL    HW182527   6.843  12.126  12.484
26898SOL    HW282528   6.829  12.080  12.627
26899SOL     OW82529   4.090   6.100   0.985
26899SOL    HW182530   4.051   6.114   0.899
26899SOL    HW282531   4.020   6.121   1.047
26900SOL     OW82532   5.311  11.221   3.709
26900SOL    HW182533   5.263  11.149   3.750
26900SOL    HW282534   5.243  11.279   3.674
26901SOL     OW82535  12.288  11.614   1.627
26901SOL    HW182536  12.311  11.662   1.707
26901SOL    HW282537  12.316  11.671   1.556
26902SOL     OW82538   5.838   6.606   4.009
26902SOL    HW182539   5.899   6.638   3.943
26902SOL    HW282540   5.894   6.567   4.076
26903SOL     OW82541   4.133  12.682   0.192
26903SOL    HW182542   4.087  12.750   0.242
26903SOL    HW282543   4.085  12.677   0.109
26904SOL     OW82544  14.146   3.948  11.947
26904SOL    HW182545  14.223   3.909  11.906
26904SOL    HW282546  14.132   4.030  11.900
26905SOL     OW82547  12.978  14.413  10.583
26905SOL    HW182548  13.017  14.498  10.602
26905SOL    HW282549  13.050  14.351  10.594
26906SOL     OW82550  13.947   2.052  12.177
26906SOL    HW182551  13.971   2.047  12.269
26906SOL    HW282552  14.011   1.996  12.133
26907SOL     OW82553   0.069  14.370  10.472
26907SOL    HW182554   0.120  14.330  10.542
26907SOL    HW282555   0.114  14.345  10.392
26908SOL     OW82556   7.704   0.907  13.363
26908SOL    HW182557   7.793   0.893  13.331
26908SOL    HW282558   7.693   1.002  13.363
26909SOL     OW82559   1.805  14.837   8.810
26909SOL    HW182560   1.864  14.843   8.734
26909SOL    HW282561   1.753   0.039   8.806
26910SOL     OW82562  10.210  10.260  10.084
26910SOL    HW182563  10.262  10.264  10.165
26910SOL    HW282564  10.262  10.205  10.025
26911SOL     OW82565  12.098   3.772  10.814
26911SOL    HW182566  12.008   3.739  10.818
26911SOL    HW282567  12.151   3.701  10.851
26912SOL     OW82568   4.128   1.391   0.652
26912SOL    HW182569   4.091   1.392   0.740
26912SOL    HW282570   4.107   1.304   0.618
26913SOL     OW82571   4.307  13.465  12.556
26913SOL    HW182572   4.240  13.396  12.553
26913SOL    HW282573   4.282  13.526  12.487
26914SOL     OW82574   3.857   4.512  11.109
26914SOL    HW182575   3.792   4.581  11.095
26914SOL    HW282576   3.814   4.451  11.169
26915SOL     OW82577  11.793   2.920   0.667
26915SOL    HW182578  11.806   2.857   0.739
26915SOL    HW282579  11.716   2.970   0.692
26916SOL     OW82580   3.358   4.816   0.808
26916SOL    HW182581   3.272   4.843   0.840
26916SOL    HW282582   3.401   4.777   0.884
26917SOL     OW82583   4.801  10.642   5.049
26917SOL    HW182584   4.855  10.698   5.104
26917SOL    HW282585   4.725  10.695   5.027
26918SOL     OW82586   6.049   5.874  13.935
26918SOL    HW182587   6.142   5.855  13.932
26918SOL    HW282588   6.041   5.962  13.897
26919SOL     OW82589  14.257   2.127   0.911
26919SOL    HW182590  14.316   2.095   0.979
26919SOL    HW282591  14.179   2.156   0.958
26920SOL     OW82592   5.594   3.620   6.260
26920SOL    HW182593   5.573   3.706   6.224
26920SOL    HW282594   5.657   3.583   6.198
26921SOL     OW82595  12.173   0.947   2.378
26921SOL    HW182596  12.183   1.007   2.452
26921SOL    HW282597  12.238   0.878   2.395
26922SOL     OW82598   4.171   0.192   9.620
26922SOL    HW182599   4.256   0.228   9.593
26922SOL    HW282600   4.127   0.171   9.537
26923SOL     OW82601  11.177   3.265   6.007
26923SOL    HW182602  11.102   3.222   5.965
26923SOL    HW282603  11.253   3.225   5.965
26924SOL     OW82604   8.284   4.358   0.999
26924SOL    HW182605   8.267   4.312   0.917
26924SOL    HW282606   8.241   4.443   0.989
26925SOL     OW82607   6.173   1.706  13.587
26925SOL    HW182608   6.223   1.625  13.577
26925SOL    HW282609   6.160   1.738  13.497
26926SOL     OW82610   1.926  13.409   1.739
26926SOL    HW182611   2.002  13.423   1.684
26926SOL    HW282612   1.953  13.342   1.802
26927SOL     OW82613  13.356   1.932   2.260
26927SOL    HW182614  13.393   1.998   2.319
26927SOL    HW282615  13.421   1.861   2.260
26928SOL     OW82616   9.501   1.508  13.738
26928SOL    HW182617   9.536   1.457  13.811
26928SOL    HW282618   9.419   1.545  13.773
26929SOL     OW82619   6.408  12.551  13.745
26929SOL    HW182620   6.372  12.602  13.673
26929SOL    HW282621   6.354  12.576  13.821
26930SOL     OW82622   8.922  10.494   6.768
26930SOL    HW182623   8.928  10.548   6.690
26930SOL    HW282624   8.828  10.489   6.787
26931SOL     OW82625  10.738   2.175   9.182
26931SOL    HW182626  10.823   2.167   9.226
26931SOL    HW282627  10.746   2.121   9.104
26932SOL     OW82628  10.877  14.035   6.518
26932SOL    HW182629  10.967  14.002   6.520
26932SOL    HW282630  10.832  13.989   6.589
26933SOL     OW82631  13.401  11.413  14.779
26933SOL    HW182632  13.316  11.448  14.803
26933SOL    HW282633  13.435  11.374  14.859
26934SOL     OW82634  13.598   3.881  14.254
26934SOL    HW182635  13.603   3.816  14.184
26934SOL    HW282636  13.602   3.830  14.335
26935SOL     OW82637  10.503   9.736  12.385
26935SOL    HW182638  10.584   9.700  12.348
26935SOL    HW282639  10.495   9.822  12.346
26936SOL     OW82640  12.025   3.088  12.066
26936SOL    HW182641  12.050   3.121  12.152
26936SOL    HW282642  11.974   3.158  12.026
26937SOL     OW82643   5.880   4.176  14.184
26937SOL    HW182644   5.969   4.208  14.200
26937SOL    HW282645   5.855   4.134  14.266
26938SOL     OW82646   4.166  14.166  11.771
26938SOL    HW182647   4.228  14.216  11.825
26938SOL    HW282648   4.178  14.200  11.683
26939SOL     OW82649  14.426   4.336  12.432
26939SOL    HW182650  14.389   4.412  12.387
26939SOL    HW282651  14.452   4.276  12.362
26940SOL     OW82652   4.487   5.897  12.682
26940SOL    HW182653   4.563   5.954  12.670
26940SOL    HW282654   4.430   5.918  12.608
26941SOL     OW82655   8.288   5.280   0.447
26941SOL    HW182656   8.200   5.270   0.483
26941SOL    HW282657   8.333   5.338   0.509
26942SOL     OW82658   8.075  12.972   0.464
26942SOL    HW182659   8.004  13.012   0.514
26942SOL    HW282660   8.094  12.890   0.511
26943SOL     OW82661  11.939  13.584  12.937
26943SOL    HW182662  11.961  13.665  12.982
26943SOL    HW282663  11.853  13.600  12.899
26944SOL     OW82664   0.968   8.994   4.424
26944SOL    HW182665   1.047   8.941   4.436
26944SOL    HW282666   0.979   9.067   4.485
26945SOL     OW82667   9.851  12.924   8.046
26945SOL    HW182668   9.895  12.851   8.002
26945SOL    HW282669   9.762  12.924   8.010
26946SOL     OW82670   5.909   6.919   2.123
26946SOL    HW182671   5.949   6.943   2.207
26946SOL    HW282672   5.815   6.917   2.141
26947SOL     OW82673  12.926   4.172   0.395
26947SOL    HW182674  12.896   4.184   0.305
26947SOL    HW282675  12.907   4.255   0.438
26948SOL     OW82676   4.920   4.060   0.918
26948SOL    HW182677   4.930   4.149   0.951
26948SOL    HW282678   4.889   4.009   0.993
26949SOL     OW82679   8.993   9.467   2.677
26949SOL    HW182680   9.014   9.527   2.606
26949SOL    HW282681   8.993   9.380   2.637
26950SOL     OW82682   3.326   4.274   7.680
26950SOL    HW182683   3.239   4.300   7.711
26950SOL    HW282684   3.380   4.352   7.693
26951SOL     OW82685  12.277  10.814  10.237
26951SOL    HW182686  12.283  10.817  10.141
26951SOL    HW282687  12.300  10.902  10.265
26952SOL     OW82688   1.557   5.406  14.123
26952SOL    HW182689   1.511   5.466  14.182
26952SOL    HW282690   1.491   5.342  14.096
26953SOL     OW82691  13.816  12.598   1.294
26953SOL    HW182692  13.874  12.663   1.255
26953SOL    HW282693  13.821  12.523   1.235
26954SOL     OW82694   7.183   2.026   5.570
26954SOL    HW182695   7.263   1.976   5.584
26954SOL    HW282696   7.209   2.098   5.513
26955SOL     OW82697   6.170  12.685   2.145
26955SOL    HW182698   6.205  12.719   2.227
26955SOL    HW282699   6.244  12.684   2.085
26956SOL     OW82700   1.817   4.313   9.721
26956SOL    HW182701   1.737   4.265   9.698
26956SOL    HW282702   1.826   4.380   9.653
26957SOL     OW82703  12.757   8.560  10.654
26957SOL    HW182704  12.694   8.499  10.691
26957SOL    HW282705  12.736   8.645  10.694
26958SOL     OW82706   7.465  13.210   1.898
26958SOL    HW182707   7.484  13.120   1.874
26958SOL    HW282708   7.434  13.251   1.817
26959SOL     OW82709  12.841   8.547   5.379
26959SOL    HW182710  12.750   8.532   5.356
26959SOL    HW282711  12.884   8.462   5.366
26960SOL     OW82712   9.600   8.903  10.584
26960SOL    HW182713   9.668   8.911  10.518
26960SOL    HW282714   9.613   8.815  10.621
26961SOL     OW82715   6.731   5.799   5.515
26961SOL    HW182716   6.710   5.711   5.486
26961SOL    HW282717   6.815   5.819   5.472
26962SOL     OW82718  11.394  14.777   2.933
26962SOL    HW182719  11.300  14.766   2.919
26962SOL    HW282720  11.415  14.859   2.887
26963SOL     OW82721   0.804  11.826   9.274
26963SOL    HW182722   0.752  11.828   9.355
26963SOL    HW282723   0.740  11.820   9.204
26964SOL     OW82724   0.227   1.878   8.625
26964SOL    HW182725   0.153   1.937   8.611
26964SOL    HW282726   0.206   1.799   8.575
26965SOL     OW82727   3.016   4.161  14.460
26965SOL    HW182728   2.932   4.206  14.470
26965SOL    HW282729   2.994   4.068  14.463
26966SOL     OW82730   1.489   6.878  14.467
26966SOL    HW182731   1.435   6.937  14.519
26966SOL    HW282732   1.549   6.936  14.419
26967SOL     OW82733   1.445  10.280   1.884
26967SOL    HW182734   1.388  10.335   1.829
26967SOL    HW282735   1.384  10.237   1.945
26968SOL     OW82736   0.817   5.323  12.333
26968SOL    HW182737   0.848   5.242  12.375
26968SOL    HW282738   0.723   5.308  12.319
26969SOL     OW82739   0.300  13.215   7.798
26969SOL    HW182740   0.312  13.236   7.705
26969SOL    HW282741   0.223  13.159   7.800
26970SOL     OW82742   8.292   1.737  14.644
26970SOL    HW182743   8.209   1.713  14.602
26970SOL    HW282744   8.276   1.727  14.738
26971SOL     OW82745  14.070   1.182  10.102
26971SOL    HW182746  14.109   1.209  10.185
26971SOL    HW282747  14.138   1.130  10.059
26972SOL     OW82748   0.181   9.901  11.489
26972SOL    HW182749   0.208   9.937  11.404
26972SOL    HW282750   0.259   9.856  11.521
26973SOL     OW82751   9.054  10.105  10.903
26973SOL    HW182752   9.147  10.083  10.898
26973SOL    HW282753   9.017  10.037  10.960
26974SOL     OW82754   4.025   2.195  12.570
26974SOL    HW182755   3.960   2.136  12.609
26974SOL    HW282756   4.048   2.154  12.487
26975SOL     OW82757  10.160  10.152   9.482
26975SOL    HW182758  10.247  10.163   9.442
26975SOL    HW282759  10.158  10.060   9.509
26976SOL     OW82760   5.032  13.423   7.749
26976SOL    HW182761   5.033  13.518   7.758
26976SOL    HW282762   5.056  13.390   7.836
26977SOL     OW82763   8.736   2.492   8.081
26977SOL    HW182764   8.767   2.528   8.164
26977SOL    HW282765   8.685   2.415   8.107
26978SOL     OW82766   8.755  13.787   5.313
26978SOL    HW182767   8.697  13.863   5.323
26978SOL    HW282768   8.819  13.815   5.248
26979SOL     OW82769  12.477   4.166  14.541
26979SOL    HW182770  12.492   4.256  14.513
26979SOL    HW282771  12.554   4.119  14.508
26980SOL     OW82772  14.337  11.858   9.121
26980SOL    HW182773  14.257  11.830   9.076
26980SOL    HW282774  14.306  11.902   9.200
26981SOL     OW82775  10.105  10.069   6.798
26981SOL    HW182776  10.176  10.079   6.862
26981SOL    HW282777  10.104  10.152   6.750
26982SOL     OW82778   8.024   5.180   6.636
26982SOL    HW182779   8.007   5.263   6.681
26982SOL    HW282780   7.969   5.116   6.681
26983SOL     OW82781  10.958  11.236  12.758
26983SOL    HW182782  11.025  11.195  12.813
26983SOL    HW282783  10.921  11.164  12.708
26984SOL     OW82784   3.515   2.638   8.276
26984SOL    HW182785   3.467   2.692   8.339
26984SOL    HW282786   3.454   2.624   8.204
26985SOL     OW82787  12.434   0.072   6.821
26985SOL    HW182788  12.372   0.038   6.756
26985SOL    HW282789  12.403   0.160   6.841
26986SOL     OW82790   3.277  13.226  13.683
26986SOL    HW182791   3.306  13.316  13.670
26986SOL    HW282792   3.310  13.179  13.606
26987SOL     OW82793  12.054  11.459  12.223
26987SOL    HW182794  11.962  11.455  12.250
26987SOL    HW282795  12.054  11.524  12.152
26988SOL     OW82796  13.318   6.935   3.055
26988SOL    HW182797  13.370   6.949   3.134
26988SOL    HW282798  13.234   6.977   3.074
26989SOL     OW82799   7.970   5.113   0.153
26989SOL    HW182800   7.916   5.187   0.181
26989SOL    HW282801   7.917   5.068   0.087
26990SOL     OW82802   8.823  13.967   0.348
26990SOL    HW182803   8.815  13.910   0.424
26990SOL    HW282804   8.798  14.054   0.380
26991SOL     OW82805  10.562   0.774   2.804
26991SOL    HW182806  10.483   0.798   2.852
26991SOL    HW282807  10.530   0.740   2.721
26992SOL     OW82808   0.108   2.308   4.547
26992SOL    HW182809   0.056   2.230   4.529
26992SOL    HW282810   0.104   2.319   4.642
26993SOL     OW82811   3.821   7.860  10.600
26993SOL    HW182812   3.802   7.949  10.627
26993SOL    HW282813   3.917   7.854  10.602
26994SOL     OW82814   1.355   2.945   8.696
26994SOL    HW182815   1.388   2.947   8.606
26994SOL    HW282816   1.426   2.906   8.747
26995SOL     OW82817  12.309   5.182   4.465
26995SOL    HW182818  12.308   5.195   4.370
26995SOL    HW282819  12.328   5.089   4.476
26996SOL     OW82820   7.131   0.595   4.865
26996SOL    HW182821   7.066   0.527   4.845
26996SOL    HW282822   7.211   0.545   4.885
26997SOL     OW82823   9.308   5.031   6.829
26997SOL    HW182824   9.309   5.033   6.734
26997SOL    HW282825   9.216   5.011   6.851
26998SOL     OW82826  14.043   8.200   3.162
26998SOL    HW182827  13.962   8.192   3.213
26998SOL    HW282828  14.014   8.227   3.075
26999SOL     OW82829   8.130  13.588   1.351
26999SOL    HW182830   8.155  13.662   1.295
26999SOL    HW282831   8.124  13.514   1.290
27000SOL     OW82832   1.258   4.981   1.124
27000SOL    HW182833   1.231   4.894   1.095
27000SOL    HW282834   1.261   5.034   1.044
27001SOL     OW82835   8.256   4.269   8.283
27001SOL    HW182836   8.239   4.360   8.261
27001SOL    HW282837   8.221   4.258   8.371
27002SOL     OW82838   9.901   5.162  12.407
27002SOL    HW182839   9.857   5.247  12.401
27002SOL    HW282840   9.831   5.098  12.397
27003SOL     OW82841  11.940  10.369  11.759
27003SOL    HW182842  11.864  10.380  11.701
27003SOL    HW282843  11.926  10.285  11.801
27004SOL     OW82844  12.208   2.010   2.787
27004SOL    HW182845  12.184   2.088   2.837
27004SOL    HW282846  12.130   1.954   2.793
27005SOL     OW82847  10.394  11.138   9.054
27005SOL    HW182848  10.372  11.149   8.962
27005SOL    HW282849  10.354  11.054   9.078
27006SOL     OW82850   4.826   0.407  10.051
27006SOL    HW182851   4.861   0.425   9.964
27006SOL    HW282852   4.898   0.367  10.098
27007SOL     OW82853   0.619   2.840   0.024
27007SOL    HW182854   0.537   2.844   0.073
27007SOL    HW282855   0.605   2.772  14.837
27008SOL     OW82856   4.008   6.859  10.812
27008SOL    HW182857   4.076   6.872  10.746
27008SOL    HW282858   3.953   6.789  10.777
27009SOL     OW82859   4.867   9.813  13.498
27009SOL    HW182860   4.859   9.725  13.535
27009SOL    HW282861   4.777   9.845  13.491
27010SOL     OW82862   9.040  12.737   7.248
27010SOL    HW182863   9.015  12.659   7.199
27010SOL    HW282864   9.087  12.791   7.184
27011SOL     OW82865   6.389   5.790   0.497
27011SOL    HW182866   6.381   5.729   0.424
27011SOL    HW282867   6.432   5.739   0.566
27012SOL     OW82868   2.474   2.027   4.087
27012SOL    HW182869   2.512   2.099   4.137
27012SOL    HW282870   2.491   1.949   4.140
27013SOL     OW82871  13.690  12.194   4.268
27013SOL    HW182872  13.728  12.118   4.224
27013SOL    HW282873  13.760  12.259   4.267
27014SOL     OW82874  10.727   4.943   1.089
27014SOL    HW182875  10.704   4.923   1.180
27014SOL    HW282876  10.797   4.881   1.069
27015SOL     OW82877   3.702   2.927  11.782
27015SOL    HW182878   3.614   2.964  11.786
27015SOL    HW282879   3.706   2.867  11.856
27016SOL     OW82880  13.779   6.327   7.129
27016SOL    HW182881  13.857   6.302   7.080
27016SOL    HW282882  13.769   6.258   7.195
27017SOL     OW82883   4.894   3.031  13.194
27017SOL    HW182884   4.882   3.115  13.148
27017SOL    HW282885   4.805   2.998  13.207
27018SOL     OW82886   0.802   9.537   6.117
27018SOL    HW182887   0.724   9.531   6.172
27018SOL    HW282888   0.773   9.587   6.040
27019SOL     OW82889  14.026   3.423  11.251
27019SOL    HW182890  13.969   3.472  11.310
27019SOL    HW282891  14.020   3.469  11.167
27020SOL     OW82892   6.587  12.206   8.349
27020SOL    HW182893   6.500  12.176   8.320
27020SOL    HW282894   6.568  12.278   8.409
27021SOL     OW82895   1.400   2.291   4.620
27021SOL    HW182896   1.308   2.265   4.615
27021SOL    HW282897   1.409   2.328   4.708
27022SOL     OW82898   2.728   0.133   7.926
27022SOL    HW182899   2.793   0.089   7.981
27022SOL    HW282900   2.679   0.189   7.987
27023SOL     OW82901   2.146   6.837  12.918
27023SOL    HW182902   2.069   6.797  12.959
27023SOL    HW282903   2.123   6.846  12.826
27024SOL     OW82904  12.754   9.013   5.336
27024SOL    HW182905  12.777   9.041   5.247
27024SOL    HW282906  12.667   9.050   5.350
27025SOL     OW82907  14.394   9.751   9.396
27025SOL    HW182908  14.331   9.721   9.330
27025SOL    HW282909  14.477   9.712   9.370
27026SOL     OW82910   1.423   2.011   8.949
27026SOL    HW182911   1.511   1.973   8.950
27026SOL    HW282912   1.417   2.061   9.030
27027SOL     OW82913   5.207   9.694  13.640
27027SOL    HW182914   5.296   9.659  13.630
27027SOL    HW282915   5.218   9.772  13.694
27028SOL     OW82916   0.307  12.499   8.614
27028SOL    HW182917   0.267  12.417   8.642
27028SOL    HW282918   0.390  12.472   8.573
27029SOL     OW82919   6.371   2.901   1.665
27029SOL    HW182920   6.433   2.856   1.608
27029SOL    HW282921   6.375   2.992   1.637
27030SOL     OW82922   5.347   3.420  14.734
27030SOL    HW182923   5.421   3.475  14.759
27030SOL    HW282924   5.349   3.419  14.638
27031SOL     OW82925  14.526  10.599  12.486
27031SOL    HW182926  14.539  10.578  12.393
27031SOL    HW282927  14.593  10.665  12.505
27032SOL     OW82928   2.523   8.436   5.722
27032SOL    HW182929   2.465   8.365   5.749
27032SOL    HW282930   2.491   8.464   5.637
27033SOL     OW82931  10.561  13.265   3.846
27033SOL    HW182932  10.488  13.223   3.801
27033SOL    HW282933  10.589  13.200   3.912
27034SOL     OW82934  11.142   3.582   8.338
27034SOL    HW182935  11.230   3.612   8.363
27034SOL    HW282936  11.146   3.487   8.348
27035SOL     OW82937   1.090   3.619   0.816
27035SOL    HW182938   1.006   3.664   0.806
27035SOL    HW282939   1.066   3.529   0.840
27036SOL     OW82940   0.723  10.856   6.413
27036SOL    HW182941   0.782  10.850   6.488
27036SOL    HW282942   0.745  10.941   6.373
27037SOL     OW82943   1.825   2.090   6.023
27037SOL    HW182944   1.815   2.090   6.119
27037SOL    HW282945   1.740   2.060   5.991
27038SOL     OW82946   2.025   0.514   6.374
27038SOL    HW182947   2.099   0.524   6.315
27038SOL    HW282948   1.949   0.508   6.316
27039SOL     OW82949  11.884   8.967  13.266
27039SOL    HW182950  11.974   8.981  13.235
27039SOL    HW282951  11.886   8.992  13.358
27040SOL     OW82952   6.392   2.660  14.483
27040SOL    HW182953   6.397   2.734  14.543
27040SOL    HW282954   6.302   2.663  14.449
27041SOL     OW82955   4.129  14.211   3.585
27041SOL    HW182956   4.064  14.163   3.637
27041SOL    HW282957   4.154  14.149   3.516
27042SOL     OW82958  14.179   9.586   4.279
27042SOL    HW182959  14.223   9.510   4.316
27042SOL    HW282960  14.090   9.582   4.315
27043SOL     OW82961   6.624   9.109  10.017
27043SOL    HW182962   6.531   9.088  10.003
27043SOL    HW282963   6.623   9.194  10.061
27044SOL     OW82964   3.493  13.877   7.020
27044SOL    HW182965   3.433  13.929   7.072
27044SOL    HW282966   3.505  13.928   6.939
27045SOL     OW82967  12.514  12.083   4.942
27045SOL    HW182968  12.575  12.112   5.011
27045SOL    HW282969  12.560  12.012   4.897
27046SOL     OW82970   4.242   5.227   1.205
27046SOL    HW182971   4.173   5.292   1.194
27046SOL    HW282972   4.307   5.249   1.139
27047SOL     OW82973   6.558   4.047  12.891
27047SOL    HW182974   6.560   4.141  12.873
27047SOL    HW282975   6.580   4.006  12.807
27048SOL     OW82976  12.027   8.431   1.981
27048SOL    HW182977  11.946   8.474   2.008
27048SOL    HW282978  12.013   8.410   1.888
27049SOL     OW82979   7.586  10.503  10.924
27049SOL    HW182980   7.604  10.409  10.928
27049SOL    HW282981   7.504  10.509  10.874
27050SOL     OW82982  12.357   5.633   2.384
27050SOL    HW182983  12.424   5.580   2.427
27050SOL    HW282984  12.275   5.587   2.401
27051SOL     OW82985  12.405   3.479  13.999
27051SOL    HW182986  12.359   3.511  13.921
27051SOL    HW282987  12.482   3.534  14.007
27052SOL     OW82988   9.667   5.393   5.295
27052SOL    HW182989   9.626   5.443   5.365
27052SOL    HW282990   9.738   5.450   5.264
27053SOL     OW82991  10.856   0.441  14.308
27053SOL    HW182992  10.947   0.417  14.326
27053SOL    HW282993  10.860   0.494  14.229
27054SOL     OW82994   1.429   4.480   4.272
27054SOL    HW182995   1.404   4.398   4.315
27054SOL    HW282996   1.366   4.544   4.306
27055SOL     OW82997  10.009   8.744   1.199
27055SOL    HW182998  10.055   8.778   1.123
27055SOL    HW282999   9.922   8.721   1.166
27056SOL     OW83000  14.567   7.737   1.774
27056SOL    HW183001  14.490   7.774   1.817
27056SOL    HW283002  14.579   7.790   1.695
27057SOL     OW83003   6.185  12.361   9.158
27057SOL    HW183004   6.229  12.446   9.165
27057SOL    HW283005   6.164  12.353   9.066
27058SOL     OW83006  14.172   2.896  14.770
27058SOL    HW183007  14.186   2.808  14.804
27058SOL    HW283008  14.117   2.884  14.692
27059SOL     OW83009   0.279   4.615   7.006
27059SOL    HW183010   0.232   4.695   7.026
27059SOL    HW283011   0.358   4.644   6.959
27060SOL     OW83012   8.577   6.823  14.071
27060SOL    HW183013   8.660   6.841  14.115
27060SOL    HW283014   8.517   6.799  14.141
27061SOL     OW83015   9.854  10.368   1.716
27061SOL    HW183016   9.782  10.358   1.778
27061SOL    HW283017   9.877  10.461   1.720
27062SOL     OW83018  12.301   1.913   9.676
27062SOL    HW183019  12.392   1.895   9.700
27062SOL    HW283020  12.250   1.890   9.753
27063SOL     OW83021   4.509  11.618   2.945
27063SOL    HW183022   4.509  11.662   2.860
27063SOL    HW283023   4.539  11.529   2.926
27064SOL     OW83024   8.391   4.735  11.692
27064SOL    HW183025   8.444   4.776  11.760
27064SOL    HW283026   8.375   4.646  11.724
27065SOL     OW83027   6.762  12.704   5.880
27065SOL    HW183028   6.839  12.647   5.869
27065SOL    HW283029   6.688  12.646   5.865
27066SOL     OW83030  10.663  14.655   3.592
27066SOL    HW183031  10.641  14.645   3.499
27066SOL    HW283032  10.751  14.694   3.591
27067SOL     OW83033   4.697   8.005  12.841
27067SOL    HW183034   4.682   8.082  12.785
27067SOL    HW283035   4.639   8.019  12.916
27068SOL     OW83036   0.352   8.005  11.912
27068SOL    HW183037   0.262   8.019  11.941
27068SOL    HW283038   0.363   7.910  11.913
27069SOL     OW83039   6.260  13.680   8.312
27069SOL    HW183040   6.205  13.719   8.380
27069SOL    HW283041   6.236  13.587   8.313
27070SOL     OW83042   5.832   0.436   9.341
27070SOL    HW183043   5.737   0.427   9.343
27070SOL    HW283044   5.857   0.454   9.432
27071SOL     OW83045   2.427   3.383   5.843
27071SOL    HW183046   2.402   3.459   5.791
27071SOL    HW283047   2.467   3.323   5.781
27072SOL     OW83048   7.322   4.731  13.288
27072SOL    HW183049   7.305   4.637  13.288
27072SOL    HW283050   7.413   4.739  13.316
27073SOL     OW83051   0.487  11.619  14.266
27073SOL    HW183052   0.423  11.549  14.277
27073SOL    HW283053   0.553  11.583  14.208
27074SOL     OW83054   9.784  11.460   1.859
27074SOL    HW183055   9.694  11.449   1.892
27074SOL    HW283056   9.833  11.492   1.934
27075SOL     OW83057  10.241   8.745  11.666
27075SOL    HW183058  10.153   8.741  11.627
27075SOL    HW283059  10.227   8.720  11.757
27076SOL     OW83060   5.716  12.505   5.305
27076SOL    HW183061   5.671  12.577   5.261
27076SOL    HW283062   5.804  12.538   5.323
27077SOL     OW83063   7.965   0.279   7.470
27077SOL    HW183064   7.933   0.332   7.397
27077SOL    HW283065   8.052   0.250   7.442
27078SOL     OW83066   5.002   0.384  11.887
27078SOL    HW183067   5.026   0.399  11.979
27078SOL    HW283068   4.906   0.391  11.887
27079SOL     OW83069  10.977  10.511   6.490
27079SOL    HW183070  11.065  10.511   6.528
27079SOL    HW283071  10.966  10.422   6.456
27080SOL     OW83072   3.145  11.426  10.465
27080SOL    HW183073   3.097  11.363  10.519
27080SOL    HW283074   3.128  11.511  10.506
27081SOL     OW83075  10.969  12.639   4.104
27081SOL    HW183076  11.051  12.625   4.056
27081SOL    HW283077  10.934  12.551   4.119
27082SOL     OW83078   2.521   1.211   9.687
27082SOL    HW183079   2.536   1.264   9.608
27082SOL    HW283080   2.428   1.188   9.683
27083SOL     OW83081   9.023   2.971   8.515
27083SOL    HW183082   8.975   3.020   8.449
27083SOL    HW283083   8.975   2.889   8.525
27084SOL     OW83084  11.569  10.686   9.928
27084SOL    HW183085  11.568  10.723   9.840
27084SOL    HW283086  11.637  10.619   9.925
27085SOL     OW83087   3.030  10.514   5.893
27085SOL    HW183088   2.938  10.504   5.869
27085SOL    HW283089   3.053  10.432   5.937
27086SOL     OW83090   6.310   9.165  11.310
27086SOL    HW183091   6.342   9.248  11.345
27086SOL    HW283092   6.221   9.184  11.279
27087SOL     OW83093   2.107   8.501   9.742
27087SOL    HW183094   2.122   8.586   9.784
27087SOL    HW283095   2.015   8.482   9.758
27088SOL     OW83096   1.504   4.715  14.427
27088SOL    HW183097   1.468   4.759  14.505
27088SOL    HW283098   1.432   4.716  14.364
27089SOL     OW83099   6.335   2.142   7.652
27089SOL    HW183100   6.246   2.175   7.661
27089SOL    HW283101   6.364   2.176   7.567
27090SOL     OW83102   4.358   0.528  12.999
27090SOL    HW183103   4.366   0.471  13.076
27090SOL    HW283104   4.285   0.586  13.020
27091SOL     OW83105  12.233   8.219   0.664
27091SOL    HW183106  12.164   8.169   0.620
27091SOL    HW283107  12.297   8.238   0.596
27092SOL     OW83108   8.683   3.294  10.974
27092SOL    HW183109   8.637   3.354  11.033
27092SOL    HW283110   8.776   3.307  10.994
27093SOL     OW83111   3.166  12.209  12.190
27093SOL    HW183112   3.208  12.227  12.106
27093SOL    HW283113   3.086  12.162  12.166
27094SOL     OW83114   8.457   0.053   9.351
27094SOL    HW183115   8.447  14.852   9.403
27094SOL    HW283116   8.415   0.120   9.404
27095SOL     OW83117  12.544   8.621   3.114
27095SOL    HW183118  12.464   8.579   3.144
27095SOL    HW283119  12.608   8.549   3.108
27096SOL     OW83120   6.912   7.064   1.748
27096SOL    HW183121   6.867   6.981   1.765
27096SOL    HW283122   7.003   7.047   1.772
27097SOL     OW83123   8.324  12.898   2.424
27097SOL    HW183124   8.309  12.836   2.495
27097SOL    HW283125   8.403  12.866   2.380
27098SOL     OW83126   1.939   1.528   1.112
27098SOL    HW183127   1.873   1.580   1.156
27098SOL    HW283128   1.890   1.458   1.068
27099SOL     OW83129  12.050   0.147   1.843
27099SOL    HW183130  11.972   0.135   1.789
27099SOL    HW283131  12.083   0.058   1.856
27100SOL     OW83132   5.840  13.107  10.761
27100SOL    HW183133   5.768  13.048  10.738
27100SOL    HW283134   5.914  13.074  10.711
27101SOL     OW83135   2.792   1.726   2.501
27101SOL    HW183136   2.853   1.790   2.540
27101SOL    HW283137   2.719   1.779   2.471
27102SOL     OW83138   0.721  14.015  10.001
27102SOL    HW183139   0.782  13.985  10.069
27102SOL    HW283140   0.773  14.015   9.921
27103SOL     OW83141   4.694   3.215   6.126
27103SOL    HW183142   4.599   3.221   6.137
27103SOL    HW283143   4.728   3.295   6.168
27104SOL     OW83144  10.446  11.515  12.424
27104SOL    HW183145  10.528  11.552  12.391
27104SOL    HW283146  10.378  11.565  12.380
27105SOL     OW83147   7.737  11.028  12.889
27105SOL    HW183148   7.788  11.108  12.873
27105SOL    HW283149   7.796  10.971  12.937
27106SOL     OW83150  13.346   5.653  14.060
27106SOL    HW183151  13.426   5.625  14.014
27106SOL    HW283152  13.283   5.584  14.042
27107SOL     OW83153   5.559  14.655  14.646
27107SOL    HW183154   5.554  14.747  14.621
27107SOL    HW283155   5.498  14.646  14.719
27108SOL     OW83156   7.208   3.749  10.250
27108SOL    HW183157   7.123   3.766  10.291
27108SOL    HW283158   7.269   3.806  10.295
27109SOL     OW83159   1.608   4.950   7.720
27109SOL    HW183160   1.606   4.949   7.624
27109SOL    HW283161   1.603   4.858   7.745
27110SOL     OW83162   3.941   1.132   0.389
27110SOL    HW183163   4.018   1.088   0.352
27110SOL    HW283164   3.881   1.143   0.315
27111SOL     OW83165  10.481   1.317  12.644
27111SOL    HW183166  10.548   1.379  12.674
27111SOL    HW283167  10.481   1.249  12.711
27112SOL     OW83168   9.001   2.364   6.310
27112SOL    HW183169   9.019   2.448   6.353
27112SOL    HW283170   8.933   2.324   6.364
27113SOL     OW83171  12.135   0.800   8.701
27113SOL    HW183172  12.059   0.742   8.711
27113SOL    HW283173  12.209   0.741   8.686
27114SOL     OW83174  14.352  13.141  11.770
27114SOL    HW183175  14.289  13.072  11.751
27114SOL    HW283176  14.405  13.148  11.691
27115SOL     OW83177  10.347   5.135  12.377
27115SOL    HW183178  10.404   5.177  12.313
27115SOL    HW283179  10.366   5.041  12.369
27116SOL     OW83180   2.112   7.000   6.163
27116SOL    HW183181   2.076   6.970   6.247
27116SOL    HW283182   2.156   6.924   6.126
27117SOL     OW83183   4.163   7.464   6.987
27117SOL    HW183184   4.222   7.423   7.050
27117SOL    HW283185   4.113   7.527   7.039
27118SOL     OW83186   8.996   0.910  11.554
27118SOL    HW183187   8.924   0.972  11.554
27118SOL    HW283188   9.046   0.930  11.633
27119SOL     OW83189  11.936  14.133  13.428
27119SOL    HW183190  11.941  14.058  13.368
27119SOL    HW283191  11.911  14.207  13.372
27120SOL     OW83192   1.250   9.139  14.360
27120SOL    HW183193   1.257   9.119  14.454
27120SOL    HW283194   1.330   9.187  14.340
27121SOL     OW83195   4.315  11.176   0.580
27121SOL    HW183196   4.227  11.207   0.560
27121SOL    HW283197   4.371  11.217   0.514
27122SOL     OW83198  12.563  13.650   4.094
27122SOL    HW183199  12.513  13.727   4.067
27122SOL    HW283200  12.567  13.595   4.015
27123SOL     OW83201  11.597   9.500   8.111
27123SOL    HW183202  11.683   9.493   8.071
27123SOL    HW283203  11.542   9.540   8.044
27124SOL     OW83204   1.848   0.065  13.579
27124SOL    HW183205   1.765   0.037  13.539
27124SOL    HW283206   1.914   0.009  13.539
27125SOL     OW83207   9.202   4.255   5.512
27125SOL    HW183208   9.122   4.308   5.505
27125SOL    HW283209   9.172   4.165   5.496
27126SOL     OW83210   2.788  13.033   2.891
27126SOL    HW183211   2.698  13.023   2.922
27126SOL    HW283212   2.779  13.053   2.798
27127SOL     OW83213   9.740  12.853   2.268
27127SOL    HW183214   9.793  12.907   2.327
27127SOL    HW283215   9.778  12.765   2.276
27128SOL     OW83216   9.905  14.174   5.577
27128SOL    HW183217   9.896  14.193   5.671
27128SOL    HW283218   9.973  14.234   5.547
27129SOL     OW83219  13.487   2.574   6.649
27129SOL    HW183220  13.428   2.548   6.579
27129SOL    HW283221  13.545   2.499   6.662
27130SOL     OW83222   4.735   2.813   7.278
27130SOL    HW183223   4.733   2.762   7.197
27130SOL    HW283224   4.828   2.824   7.298
27131SOL     OW83225   0.580  13.559   1.146
27131SOL    HW183226   0.557  13.634   1.200
27131SOL    HW283227   0.630  13.502   1.203
27132SOL     OW83228   0.979  12.439   3.045
27132SOL    HW183229   0.995  12.427   3.139
27132SOL    HW283230   0.903  12.385   3.026
27133SOL     OW83231   7.864  14.861  14.057
27133SOL    HW183232   7.861   0.042  14.131
27133SOL    HW283233   7.885  14.776  14.096
27134SOL     OW83234   3.983   2.167   1.225
27134SOL    HW183235   3.968   2.248   1.273
27134SOL    HW283236   3.986   2.193   1.133
27135SOL     OW83237  12.890   0.394   9.828
27135SOL    HW183238  12.923   0.408   9.739
27135SOL    HW283239  12.944   0.451   9.882
27136SOL     OW83240   5.805   1.908  11.334
27136SOL    HW183241   5.729   1.898  11.392
27136SOL    HW283242   5.806   2.002  11.313
27137SOL     OW83243   7.957   3.408   0.045
27137SOL    HW183244   8.038   3.424   0.094
27137SOL    HW283245   7.902   3.358   0.105
27138SOL     OW83246  12.550  10.281  13.530
27138SOL    HW183247  12.546  10.229  13.610
27138SOL    HW283248  12.635  10.259  13.492
27139SOL     OW83249  12.342   4.142   9.808
27139SOL    HW183250  12.374   4.082   9.875
27139SOL    HW283251  12.251   4.160   9.833
27140SOL     OW83252   5.281   0.447  12.646
27140SOL    HW183253   5.334   0.524  12.627
27140SOL    HW283254   5.246   0.462  12.734
27141SOL     OW83255   8.799   0.506   4.838
27141SOL    HW183256   8.792   0.445   4.911
27141SOL    HW283257   8.841   0.456   4.769
27142SOL     OW83258   5.549   3.854   5.500
27142SOL    HW183259   5.569   3.925   5.562
27142SOL    HW283260   5.464   3.822   5.527
27143SOL     OW83261   7.422  11.038   5.820
27143SOL    HW183262   7.387  11.043   5.909
27143SOL    HW283263   7.380  11.111   5.774
27144SOL     OW83264  13.587   4.612   2.961
27144SOL    HW183265  13.664   4.634   3.013
27144SOL    HW283266  13.601   4.655   2.877
27145SOL     OW83267  14.336   3.551   6.105
27145SOL    HW183268  14.251   3.534   6.065
27145SOL    HW283269  14.399   3.538   6.034
27146SOL     OW83270  13.422  10.245   6.552
27146SOL    HW183271  13.426  10.308   6.480
27146SOL    HW283272  13.466  10.167   6.517
27147SOL     OW83273   6.709  10.283   5.897
27147SOL    HW183274   6.765  10.350   5.935
27147SOL    HW283275   6.653  10.255   5.970
27148SOL     OW83276  10.768   1.911   2.063
27148SOL    HW183277  10.732   1.999   2.064
27148SOL    HW283278  10.693   1.854   2.082
27149SOL     OW83279   1.295   3.101   2.177
27149SOL    HW183280   1.387   3.103   2.203
27149SOL    HW283281   1.283   3.014   2.138
27150SOL     OW83282   2.002   1.171  13.088
27150SOL    HW183283   2.053   1.207  13.016
27150SOL    HW283284   1.916   1.154  13.051
27151SOL     OW83285  13.317   4.653  10.999
27151SOL    HW183286  13.231   4.695  10.992
27151SOL    HW283287  13.358   4.694  11.075
27152SOL     OW83288  10.259   6.954  11.276
27152SOL    HW183289  10.208   6.936  11.196
27152SOL    HW283290  10.213   7.028  11.316
27153SOL     OW83291   2.454   4.906  10.424
27153SOL    HW183292   2.489   4.894  10.512
27153SOL    HW283293   2.378   4.848  10.420
27154SOL     OW83294   1.037   1.857   1.836
27154SOL    HW183295   0.951   1.896   1.825
27154SOL    HW283296   1.064   1.881   1.925
27155SOL     OW83297   6.464  13.651  14.039
27155SOL    HW183298   6.549  13.627  14.003
27155SOL    HW283299   6.458  13.601  14.121
27156SOL     OW83300  13.704   0.629  10.378
27156SOL    HW183301  13.621   0.600  10.416
27156SOL    HW283302  13.679   0.701  10.320
27157SOL     OW83303  11.509  13.549  11.382
27157SOL    HW183304  11.525  13.455  11.379
27157SOL    HW283305  11.420  13.557  11.418
27158SOL     OW83306   6.617  14.006   4.309
27158SOL    HW183307   6.689  13.981   4.250
27158SOL    HW283308   6.539  13.969   4.268
27159SOL     OW83309  11.696   3.472   0.165
27159SOL    HW183310  11.761   3.426   0.113
27159SOL    HW283311  11.654   3.404   0.218
27160SOL     OW83312  14.370   2.887  12.239
27160SOL    HW183313  14.302   2.941  12.200
27160SOL    HW283314  14.427   2.949  12.284
27161SOL     OW83315  10.863   5.195   9.630
27161SOL    HW183316  10.908   5.122   9.587
27161SOL    HW283317  10.831   5.249   9.558
27162SOL     OW83318   2.043  11.845   7.793
27162SOL    HW183319   2.125  11.797   7.786
27162SOL    HW283320   2.004  11.838   7.706
27163SOL     OW83321  14.781  13.029  12.996
27163SOL    HW183322  14.718  13.083  13.043
27163SOL    HW283323  14.738  13.010  12.912
27164SOL     OW83324   3.241  12.617   5.023
27164SOL    HW183325   3.222  12.673   4.947
27164SOL    HW283326   3.335  12.599   5.017
27165SOL     OW83327   0.717   9.210   5.679
27165SOL    HW183328   0.728   9.209   5.584
27165SOL    HW283329   0.799   9.247   5.712
27166SOL     OW83330   7.383   0.825   2.833
27166SOL    HW183331   7.397   0.811   2.739
27166SOL    HW283332   7.316   0.893   2.837
27167SOL     OW83333   5.448  12.891   8.678
27167SOL    HW183334   5.368  12.844   8.703
27167SOL    HW283335   5.430  12.925   8.591
27168SOL     OW83336   7.088  12.869  10.697
27168SOL    HW183337   7.006  12.827  10.723
27168SOL    HW283338   7.149  12.796  10.685
27169SOL     OW83339   5.823   8.905   2.706
27169SOL    HW183340   5.752   8.849   2.738
27169SOL    HW283341   5.894   8.845   2.685
27170SOL     OW83342  11.820   3.163  13.609
27170SOL    HW183343  11.790   3.251  13.628
27170SOL    HW283344  11.762   3.106  13.660
27171SOL     OW83345   1.744   4.457  14.812
27171SOL    HW183346   1.747   4.489   0.023
27171SOL    HW283347   1.655   4.422  14.802
27172SOL     OW83348   2.029   2.513  14.499
27172SOL    HW183349   2.086   2.590  14.494
27172SOL    HW283350   2.086   2.440  14.476
27173SOL     OW83351   7.248   7.092   3.888
27173SOL    HW183352   7.302   7.170   3.901
27173SOL    HW283353   7.169   7.125   3.844
27174SOL     OW83354   3.279  11.609   8.730
27174SOL    HW183355   3.228  11.577   8.655
27174SOL    HW283356   3.221  11.594   8.805
27175SOL     OW83357   2.420   2.890  12.550
27175SOL    HW183358   2.508   2.928  12.551
27175SOL    HW283359   2.413   2.844  12.634
27176SOL     OW83360  11.816   3.326   0.513
27176SOL    HW183361  11.767   3.320   0.431
27176SOL    HW283362  11.860   3.242   0.521
27177SOL     OW83363   9.111  14.193   3.116
27177SOL    HW183364   9.162  14.112   3.108
27177SOL    HW283365   9.111  14.212   3.210
27178SOL     OW83366   8.832   6.986  10.448
27178SOL    HW183367   8.832   6.982  10.352
27178SOL    HW283368   8.924   6.992  10.472
27179SOL     OW83369   2.719   4.026   6.849
27179SOL    HW183370   2.768   3.986   6.921
27179SOL    HW283371   2.657   4.085   6.892
27180SOL     OW83372   4.224   1.786  10.627
27180SOL    HW183373   4.135   1.758  10.606
27180SOL    HW283374   4.270   1.705  10.648
27181SOL     OW83375  14.714   3.398  13.598
27181SOL    HW183376  14.741   3.402  13.690
27181SOL    HW283377  14.639   3.338  13.597
27182SOL     OW83378  13.912  12.806   8.519
27182SOL    HW183379  13.964  12.815   8.439
27182SOL    HW283380  13.941  12.723   8.557
27183SOL     OW83381   6.058  12.904   5.754
27183SOL    HW183382   6.011  12.934   5.676
27183SOL    HW283383   6.113  12.832   5.722
27184SOL     OW83384  11.113   0.265   2.916
27184SOL    HW183385  11.095   0.359   2.921
27184SOL    HW283386  11.141   0.251   2.826
27185SOL     OW83387   6.421  12.520   3.143
27185SOL    HW183388   6.382  12.485   3.063
27185SOL    HW283389   6.373  12.602   3.159
27186SOL     OW83390   4.470   5.717   4.193
27186SOL    HW183391   4.545   5.747   4.142
27186SOL    HW283392   4.431   5.797   4.229
27187SOL     OW83393   5.187   3.523  13.564
27187SOL    HW183394   5.281   3.506  13.553
27187SOL    HW283395   5.148   3.500  13.479
27188SOL     OW83396   5.743   1.286   9.912
27188SOL    HW183397   5.648   1.301   9.915
27188SOL    HW283398   5.777   1.363   9.866
27189SOL     OW83399   8.658  11.990   4.903
27189SOL    HW183400   8.628  12.039   4.980
27189SOL    HW283401   8.622  11.902   4.915
27190SOL     OW83402   6.619   1.198   4.304
27190SOL    HW183403   6.658   1.128   4.356
27190SOL    HW283404   6.525   1.193   4.324
27191SOL     OW83405  13.125  11.927  10.933
27191SOL    HW183406  13.114  11.859  10.866
27191SOL    HW283407  13.046  11.980  10.926
27192SOL     OW83408   7.345   8.630   6.770
27192SOL    HW183409   7.382   8.656   6.685
27192SOL    HW283410   7.312   8.711   6.807
27193SOL     OW83411  11.120  11.230  11.505
27193SOL    HW183412  11.199  11.253  11.554
27193SOL    HW283413  11.151  11.176  11.432
27194SOL     OW83414   7.279   3.818   2.448
27194SOL    HW183415   7.318   3.750   2.503
27194SOL    HW283416   7.268   3.893   2.506
27195SOL     OW83417   0.875  11.871  12.920
27195SOL    HW183418   0.903  11.786  12.954
27195SOL    HW283419   0.804  11.898  12.980
27196SOL     OW83420  10.804  11.089   9.830
27196SOL    HW183421  10.721  11.136   9.833
27196SOL    HW283422  10.860  11.142   9.772
27197SOL     OW83423   6.063  12.976  10.603
27197SOL    HW183424   6.049  13.007  10.513
27197SOL    HW283425   6.155  12.996  10.620
27198SOL     OW83426  10.856   1.884   9.917
27198SOL    HW183427  10.899   1.909   9.835
27198SOL    HW283428  10.839   1.967   9.962
27199SOL     OW83429   7.845   5.384  13.446
27199SOL    HW183430   7.769   5.326  13.445
27199SOL    HW283431   7.828   5.446  13.517
27200SOL     OW83432  11.598  13.111   7.891
27200SOL    HW183433  11.524  13.062   7.855
27200SOL    HW283434  11.669  13.098   7.828
27201SOL     OW83435   9.022   2.116  12.251
27201SOL    HW183436   8.995   2.151  12.336
27201SOL    HW283437   8.954   2.146  12.191
27202SOL     OW83438  14.147   7.158   2.668
27202SOL    HW183439  14.196   7.171   2.587
27202SOL    HW283440  14.057   7.142   2.640
27203SOL     OW83441  11.840   5.354   5.252
27203SOL    HW183442  11.853   5.415   5.325
27203SOL    HW283443  11.892   5.391   5.181
27204SOL     OW83444   3.161   5.806  11.792
27204SOL    HW183445   3.190   5.893  11.819
27204SOL    HW283446   3.076   5.821  11.751
27205SOL     OW83447   8.259  10.900   7.050
27205SOL    HW183448   8.239  10.806   7.054
27205SOL    HW283449   8.178  10.940   7.019
27206SOL     OW83450   5.284   5.045  11.858
27206SOL    HW183451   5.369   5.088  11.854
27206SOL    HW283452   5.297   4.962  11.812
27207SOL     OW83453   0.603  11.300   4.406
27207SOL    HW183454   0.566  11.341   4.328
27207SOL    HW283455   0.659  11.230   4.372
27208SOL     OW83456   0.217   1.929   0.504
27208SOL    HW183457   0.284   1.970   0.558
27208SOL    HW283458   0.250   1.938   0.414
27209SOL     OW83459   7.757  13.979   2.948
27209SOL    HW183460   7.786  13.949   3.034
27209SOL    HW283461   7.664  13.956   2.945
27210SOL     OW83462  14.080   5.372   8.902
27210SOL    HW183463  14.047   5.283   8.890
27210SOL    HW283464  14.115   5.396   8.816
27211SOL     OW83465   0.553   8.059   4.453
27211SOL    HW183466   0.552   8.142   4.501
27211SOL    HW283467   0.464   8.050   4.419
27212SOL     OW83468  11.944   5.593   8.920
27212SOL    HW183469  11.860   5.604   8.964
27212SOL    HW283470  11.961   5.499   8.923
27213SOL     OW83471   1.053   8.562   0.327
27213SOL    HW183472   1.039   8.582   0.235
27213SOL    HW283473   1.077   8.646   0.366
27214SOL     OW83474  10.213   2.032  13.657
27214SOL    HW183475  10.292   2.084  13.673
27214SOL    HW283476  10.141   2.094  13.669
27215SOL     OW83477  12.529   9.406   3.139
27215SOL    HW183478  12.542   9.410   3.044
27215SOL    HW283479  12.616   9.384   3.174
27216SOL     OW83480   9.703   6.572  10.038
27216SOL    HW183481   9.696   6.494   9.983
27216SOL    HW283482   9.744   6.541  10.118
27217SOL     OW83483  10.871   7.808  12.863
27217SOL    HW183484  10.933   7.746  12.903
27217SOL    HW283485  10.829   7.850  12.938
27218SOL     OW83486   4.524  12.499   5.726
27218SOL    HW183487   4.451  12.550   5.760
27218SOL    HW283488   4.540  12.535   5.638
27219SOL     OW83489   1.101   2.043  10.733
27219SOL    HW183490   1.196   2.055  10.731
27219SOL    HW283491   1.069   2.114  10.789
27220SOL     OW83492   5.969  11.047   3.566
27220SOL    HW183493   6.054  11.070   3.528
27220SOL    HW283494   5.950  10.959   3.532
27221SOL     OW83495   7.981   0.224  11.366
27221SOL    HW183496   8.011   0.171  11.440
27221SOL    HW283497   7.916   0.284  11.405
27222SOL     OW83498  12.507  11.766   5.433
27222SOL    HW183499  12.434  11.707   5.414
27222SOL    HW283500  12.583  11.709   5.443
27223SOL     OW83501   3.480   8.210   7.025
27223SOL    HW183502   3.460   8.139   7.087
27223SOL    HW283503   3.409   8.272   7.037
27224SOL     OW83504  11.627   9.735   5.474
27224SOL    HW183505  11.688   9.808   5.463
27224SOL    HW283506  11.543   9.768   5.441
27225SOL     OW83507   2.845  11.650   5.986
27225SOL    HW183508   2.800  11.565   5.988
27225SOL    HW283509   2.817  11.690   5.904
27226SOL     OW83510   5.681   7.421   3.833
27226SOL    HW183511   5.719   7.505   3.809
27226SOL    HW283512   5.682   7.420   3.929
27227SOL     OW83513  13.616   6.955   8.316
27227SOL    HW183514  13.691   6.897   8.331
27227SOL    HW283515  13.539   6.900   8.332
27228SOL     OW83516   3.058  12.624   7.315
27228SOL    HW183517   3.117  12.568   7.265
27228SOL    HW283518   2.971  12.605   7.281
27229SOL     OW83519   2.731  12.991  12.971
27229SOL    HW183520   2.698  12.980  13.060
27229SOL    HW283521   2.658  13.028  12.922
27230SOL     OW83522   0.881  11.611   4.728
27230SOL    HW183523   0.833  11.613   4.810
27230SOL    HW283524   0.851  11.532   4.684
27231SOL     OW83525  11.523   7.310   9.298
27231SOL    HW183526  11.468   7.238   9.267
27231SOL    HW283527  11.485   7.334   9.382
27232SOL     OW83528  14.012   8.302  12.713
27232SOL    HW183529  13.931   8.274  12.755
27232SOL    HW283530  14.071   8.227  12.723
27233SOL     OW83531  14.231   0.036   0.462
27233SOL    HW183532  14.265   0.079   0.541
27233SOL    HW283533  14.154  14.866   0.492
27234SOL     OW83534  11.187   5.704  13.534
27234SOL    HW183535  11.204   5.637  13.601
27234SOL    HW283536  11.224   5.668  13.454
27235SOL     OW83537  13.846  12.600  11.492
27235SOL    HW183538  13.788  12.524  11.495
27235SOL    HW283539  13.788  12.675  11.509
27236SOL     OW83540   4.966   2.055   6.056
27236SOL    HW183541   5.027   2.098   6.116
27236SOL    HW283542   4.939   1.976   6.102
27237SOL     OW83543  10.452   9.716  11.936
27237SOL    HW183544  10.479   9.700  11.845
27237SOL    HW283545  10.401   9.639  11.960
27238SOL     OW83546   3.806   0.331   8.339
27238SOL    HW183547   3.799   0.270   8.413
27238SOL    HW283548   3.898   0.325   8.312
27239SOL     OW83549   3.701  14.403   5.005
27239SOL    HW183550   3.708  14.414   4.910
27239SOL    HW283551   3.627  14.343   5.017
27240SOL     OW83552   6.218   7.215   0.601
27240SOL    HW183553   6.244   7.262   0.522
27240SOL    HW283554   6.232   7.278   0.672
27241SOL     OW83555   4.114  13.054   4.571
27241SOL    HW183556   4.103  12.960   4.557
27241SOL    HW283557   4.029  13.092   4.546
27242SOL     OW83558   8.095  13.956  12.249
27242SOL    HW183559   8.068  13.932  12.161
27242SOL    HW283560   8.146  14.037  12.238
27243SOL     OW83561   2.885   7.850   5.707
27243SOL    HW183562   2.824   7.860   5.780
27243SOL    HW283563   2.950   7.919   5.720
27244SOL     OW83564   7.963   7.965  11.258
27244SOL    HW183565   7.907   7.966  11.335
27244SOL    HW283566   7.904   7.940  11.186
27245SOL     OW83567  13.694   3.241   5.124
27245SOL    HW183568  13.762   3.200   5.070
27245SOL    HW283569  13.739   3.267   5.204
27246SOL     OW83570   2.757   2.206  11.828
27246SOL    HW183571   2.697   2.273  11.796
27246SOL    HW283572   2.737   2.198  11.921
27247SOL     OW83573  13.459   2.089   1.780
27247SOL    HW183574  13.419   2.128   1.858
27247SOL    HW283575  13.415   2.133   1.706
27248SOL     OW83576   0.033  13.801   6.366
27248SOL    HW183577  14.825  13.788   6.328
27248SOL    HW283578   0.093  13.796   6.292
27249SOL     OW83579   4.198  10.684   2.613
27249SOL    HW183580   4.155  10.607   2.651
27249SOL    HW283581   4.217  10.660   2.523
27250SOL     OW83582   1.718  12.396   5.988
27250SOL    HW183583   1.699  12.468   6.048
27250SOL    HW283584   1.813  12.390   5.987
27251SOL     OW83585   0.789   5.513   6.667
27251SOL    HW183586   0.836   5.569   6.728
27251SOL    HW283587   0.750   5.573   6.603
27252SOL     OW83588  14.040   4.005   1.913
27252SOL    HW183589  14.131   4.023   1.936
27252SOL    HW283590  14.005   4.090   1.886
27253SOL     OW83591  14.646   5.777   6.973
27253SOL    HW183592  14.609   5.756   7.058
27253SOL    HW283593  14.740   5.763   6.984
27254SOL     OW83594   2.609  13.831   1.477
27254SOL    HW183595   2.601  13.744   1.437
27254SOL    HW283596   2.698  13.859   1.456
27255SOL     OW83597   7.507  11.633  14.325
27255SOL    HW183598   7.503  11.688  14.247
27255SOL    HW283599   7.583  11.665  14.373
27256SOL     OW83600   3.401   7.940   7.948
27256SOL    HW183601   3.381   7.858   7.904
27256SOL    HW283602   3.364   8.008   7.891
27257SOL     OW83603   4.627   0.987   9.775
27257SOL    HW183604   4.605   0.952   9.862
27257SOL    HW283605   4.564   0.947   9.716
27258SOL     OW83606   5.241   1.008  10.363
27258SOL    HW183607   5.291   0.929  10.384
27258SOL    HW283608   5.173   1.012  10.430
27259SOL     OW83609  11.858   4.796   8.757
27259SOL    HW183610  11.894   4.763   8.674
27259SOL    HW283611  11.764   4.782   8.749
27260SOL     OW83612  12.805  10.313   3.286
27260SOL    HW183613  12.774  10.274   3.367
27260SOL    HW283614  12.885  10.359   3.309
27261SOL     OW83615   9.567  11.906   7.753
27261SOL    HW183616   9.485  11.879   7.712
27261SOL    HW283617   9.622  11.934   7.681
27262SOL     OW83618  14.756  14.285  12.672
27262SOL    HW183619  14.778  14.309  12.582
27262SOL    HW283620  14.820  14.218  12.695
27263SOL     OW83621  14.836  11.997   6.350
27263SOL    HW183622  14.777  11.922   6.356
27263SOL    HW283623  14.879  11.986   6.265
27264SOL     OW83624  12.756   1.206   8.033
27264SOL    HW183625  12.796   1.188   8.118
27264SOL    HW283626  12.736   1.120   7.996
27265SOL     OW83627   3.324   3.592   6.956
27265SOL    HW183628   3.369   3.521   7.003
27265SOL    HW283629   3.359   3.587   6.867
27266SOL     OW83630   7.588  13.364   4.706
27266SOL    HW183631   7.595  13.269   4.720
27266SOL    HW283632   7.609  13.402   4.791
27267SOL     OW83633   2.085   2.913   4.445
27267SOL    HW183634   2.091   2.982   4.379
27267SOL    HW283635   2.009   2.861   4.418
27268SOL     OW83636   8.474  10.161   2.087
27268SOL    HW183637   8.537  10.212   2.035
27268SOL    HW283638   8.406  10.224   2.110
27269SOL     OW83639  13.408   0.091  10.158
27269SOL    HW183640  13.473   0.155  10.188
27269SOL    HW283641  13.434   0.009  10.199
27270SOL     OW83642   1.508   9.904  13.286
27270SOL    HW183643   1.583   9.846  13.272
27270SOL    HW283644   1.434   9.845  13.300
27271SOL     OW83645   3.468   6.352   1.435
27271SOL    HW183646   3.394   6.323   1.488
27271SOL    HW283647   3.457   6.308   1.351
27272SOL     OW83648   0.574   5.324  10.502
27272SOL    HW183649   0.635   5.258  10.471
27272SOL    HW283650   0.582   5.396  10.439
27273SOL     OW83651   8.753   2.402  10.426
27273SOL    HW183652   8.772   2.317  10.467
27273SOL    HW283653   8.678   2.436  10.474
27274SOL     OW83654   9.466   7.367  14.322
27274SOL    HW183655   9.395   7.311  14.288
27274SOL    HW283656   9.488   7.328  14.406
27275SOL     OW83657   9.042   3.470   5.518
27275SOL    HW183658   9.100   3.473   5.442
27275SOL    HW283659   8.996   3.387   5.510
27276SOL     OW83660  13.978  14.801  12.966
27276SOL    HW183661  13.961  14.856  13.042
27276SOL    HW283662  14.071  14.816  12.946
27277SOL     OW83663   0.475   4.579   9.222
27277SOL    HW183664   0.412   4.627   9.275
27277SOL    HW283665   0.465   4.615   9.134
27278SOL     OW83666   2.625   1.344   9.440
27278SOL    HW183667   2.624   1.411   9.372
27278SOL    HW283668   2.695   1.284   9.413
27279SOL     OW83669   3.493  14.564   3.770
27279SOL    HW183670   3.532  14.642   3.810
27279SOL    HW283671   3.567  14.504   3.757
27280SOL     OW83672  10.151   2.122  13.944
27280SOL    HW183673  10.169   2.052  14.007
27280SOL    HW283674  10.171   2.203  13.991
27281SOL     OW83675   1.786  11.765   7.298
27281SOL    HW183676   1.729  11.715   7.356
27281SOL    HW283677   1.745  11.851   7.291
27282SOL     OW83678   2.771   9.411   6.189
27282SOL    HW183679   2.759   9.323   6.151
27282SOL    HW283680   2.853   9.442   6.151
27283SOL     OW83681   6.353  14.442  14.116
27283SOL    HW183682   6.308  14.515  14.073
27283SOL    HW283683   6.328  14.451  14.208
27284SOL     OW83684  12.026   5.352  10.610
27284SOL    HW183685  12.007   5.394  10.526
27284SOL    HW283686  11.988   5.411  10.675
27285SOL     OW83687   0.580   0.901   5.022
27285SOL    HW183688   0.593   0.852   5.103
27285SOL    HW283689   0.545   0.986   5.049
27286SOL     OW83690  10.924  11.625  12.765
27286SOL    HW183691  11.010  11.657  12.792
27286SOL    HW283692  10.911  11.662  12.677
27287SOL     OW83693   1.784  10.415   0.043
27287SOL    HW183694   1.819  10.336   0.002
27287SOL    HW283695   1.766  10.389   0.134
27288SOL     OW83696   9.210   5.561   9.255
27288SOL    HW183697   9.130   5.549   9.205
27288SOL    HW283698   9.249   5.641   9.219
27289SOL     OW83699   0.881   9.362  10.874
27289SOL    HW183700   0.954   9.401  10.923
27289SOL    HW283701   0.865   9.279  10.919
27290SOL     OW83702  11.772  11.931  10.207
27290SOL    HW183703  11.772  12.011  10.155
27290SOL    HW283704  11.693  11.937  10.261
27291SOL     OW83705   7.769   5.593   5.733
27291SOL    HW183706   7.787   5.637   5.816
27291SOL    HW283707   7.770   5.664   5.668
27292SOL     OW83708  14.232  11.827   8.649
27292SOL    HW183709  14.173  11.826   8.725
27292SOL    HW283710  14.276  11.743   8.652
27293SOL     OW83711   1.005   7.256   9.794
27293SOL    HW183712   0.943   7.241   9.722
27293SOL    HW283713   1.036   7.169   9.816
27294SOL     OW83714  11.932   2.975  13.155
27294SOL    HW183715  11.837   2.966  13.146
27294SOL    HW283716  11.949   2.966  13.248
27295SOL     OW83717  13.760  10.248   7.769
27295SOL    HW183718  13.680  10.237   7.820
27295SOL    HW283719  13.756  10.180   7.702
27296SOL     OW83720  11.358   5.406  13.899
27296SOL    HW183721  11.369   5.455  13.980
27296SOL    HW283722  11.442   5.414  13.854
27297SOL     OW83723  12.245  12.110   2.106
27297SOL    HW183724  12.319  12.116   2.167
27297SOL    HW283725  12.168  12.127   2.161
27298SOL     OW83726   7.798  10.624  10.272
27298SOL    HW183727   7.728  10.652  10.213
27298SOL    HW283728   7.869  10.596  10.214
27299SOL     OW83729   5.235  10.588   3.858
27299SOL    HW183730   5.166  10.541   3.905
27299SOL    HW283731   5.223  10.564   3.766
27300SOL     OW83732   1.058   6.160  13.503
27300SOL    HW183733   1.035   6.070  13.479
27300SOL    HW283734   1.141   6.152  13.551
27301SOL     OW83735   4.128  10.855  13.007
27301SOL    HW183736   4.039  10.876  12.980
27301SOL    HW283737   4.118  10.814  13.093
27302SOL     OW83738   9.296   9.865   3.557
27302SOL    HW183739   9.341   9.855   3.473
27302SOL    HW283740   9.273   9.958   3.561
27303SOL     OW83741   6.574  12.816   3.133
27303SOL    HW183742   6.607  12.749   3.073
27303SOL    HW283743   6.536  12.882   3.076
27304SOL     OW83744   7.341   3.206   2.697
27304SOL    HW183745   7.404   3.181   2.630
27304SOL    HW283746   7.380   3.174   2.779
27305SOL     OW83747  14.151  12.702  12.299
27305SOL    HW183748  14.195  12.617  12.307
27305SOL    HW283749  14.221  12.763  12.277
27306SOL     OW83750   3.632   8.632  12.510
27306SOL    HW183751   3.582   8.552  12.525
27306SOL    HW283752   3.568   8.703  12.522
27307SOL     OW83753   2.344   8.824  10.462
27307SOL    HW183754   2.392   8.768  10.522
27307SOL    HW283755   2.366   8.913  10.488
27308SOL     OW83756   2.859  10.696   1.019
27308SOL    HW183757   2.876  10.789   1.002
27308SOL    HW283758   2.944  10.654   1.006
27309SOL     OW83759   0.823  14.401   1.521
27309SOL    HW183760   0.776  14.380   1.602
27309SOL    HW283761   0.870  14.321   1.499
27310SOL     OW83762   3.385  12.331   9.922
27310SOL    HW183763   3.308  12.293   9.879
27310SOL    HW283764   3.449  12.343   9.851
27311SOL     OW83765   9.004   6.316  10.082
27311SOL    HW183766   9.023   6.354  10.168
27311SOL    HW283767   9.090   6.286  10.050
27312SOL     OW83768   0.359  10.919   0.352
27312SOL    HW183769   0.359  11.014   0.358
27312SOL    HW283770   0.412  10.890   0.426
27313SOL     OW83771   2.668   0.907  11.535
27313SOL    HW183772   2.732   0.977  11.527
27313SOL    HW283773   2.624   0.904  11.450
27314SOL     OW83774   4.185  11.063   5.216
27314SOL    HW183775   4.097  11.040   5.245
27314SOL    HW283776   4.191  11.026   5.128
27315SOL     OW83777   1.053   4.858  11.237
27315SOL    HW183778   1.055   4.764  11.221
27315SOL    HW283779   1.110   4.871  11.313
27316SOL     OW83780   4.554   9.561   6.800
27316SOL    HW183781   4.617   9.557   6.728
27316SOL    HW283782   4.600   9.607   6.870
27317SOL     OW83783   4.061   8.695   3.241
27317SOL    HW183784   4.097   8.782   3.225
27317SOL    HW283785   4.046   8.659   3.153
27318SOL     OW83786   4.129  14.612   8.082
27318SOL    HW183787   4.099  14.653   8.002
27318SOL    HW283788   4.150  14.685   8.140
27319SOL     OW83789  12.418   4.932  12.181
27319SOL    HW183790  12.359   4.940  12.106
27319SOL    HW283791  12.465   5.015  12.185
27320SOL     OW83792   8.207   5.094  13.470
27320SOL    HW183793   8.173   5.183  13.467
27320SOL    HW283794   8.200   5.068  13.562
27321SOL     OW83795   4.165   4.333  12.793
27321SOL    HW183796   4.190   4.251  12.837
27321SOL    HW283797   4.207   4.328  12.707
27322SOL     OW83798  12.074   2.997   0.176
27322SOL    HW183799  12.072   2.956   0.262
27322SOL    HW283800  12.055   2.926   0.115
27323SOL     OW83801  10.115   2.436   4.310
27323SOL    HW183802  10.076   2.349   4.307
27323SOL    HW283803  10.175   2.438   4.236
27324SOL     OW83804   7.629  12.896   5.073
27324SOL    HW183805   7.642  12.843   5.152
27324SOL    HW283806   7.592  12.836   5.009
27325SOL     OW83807   0.585   1.018  10.386
27325SOL    HW183808   0.680   1.021  10.393
27325SOL    HW283809   0.569   0.990  10.295
27326SOL     OW83810   1.910   1.862   8.696
27326SOL    HW183811   1.947   1.884   8.611
27326SOL    HW283812   1.845   1.930   8.712
27327SOL     OW83813   0.065   3.889  12.458
27327SOL    HW183814   0.050   3.859  12.368
27327SOL    HW283815  14.877   3.955  12.473
27328SOL     OW83816   2.253  11.014   5.646
27328SOL    HW183817   2.173  11.051   5.609
27328SOL    HW283818   2.302  11.090   5.678
27329SOL     OW83819  14.759   1.472   8.424
27329SOL    HW183820  14.694   1.403   8.440
27329SOL    HW283821  14.765   1.477   8.329
27330SOL     OW83822   4.963  11.123  12.878
27330SOL    HW183823   4.893  11.118  12.813
27330SOL    HW283824   5.040  11.150  12.829
27331SOL     OW83825  13.669   5.017   6.344
27331SOL    HW183826  13.703   5.105   6.328
27331SOL    HW283827  13.693   4.998   6.435
27332SOL     OW83828   0.169  14.382   8.089
27332SOL    HW183829   0.165  14.456   8.028
27332SOL    HW283830   0.205  14.310   8.037
27333SOL     OW83831   3.138  12.383  13.548
27333SOL    HW183832   3.224  12.362  13.585
27333SOL    HW283833   3.134  12.330  13.468
27334SOL     OW83834   2.674  10.058  13.747
27334SOL    HW183835   2.625  10.140  13.740
27334SOL    HW283836   2.737  10.073  13.817
27335SOL     OW83837  11.732   6.736   5.646
27335SOL    HW183838  11.826   6.747   5.633
27335SOL    HW283839  11.695   6.740   5.558
27336SOL     OW83840   4.753  14.796   4.159
27336SOL    HW183841   4.826  14.762   4.212
27336SOL    HW283842   4.681  14.807   4.221
27337SOL     OW83843   5.302  14.665   5.667
27337SOL    HW183844   5.275  14.738   5.611
27337SOL    HW283845   5.269  14.587   5.623
27338SOL     OW83846  12.273   9.287   2.985
27338SOL    HW183847  12.369   9.285   2.993
27338SOL    HW283848  12.245   9.199   3.012
27339SOL     OW83849   2.747   1.298  13.170
27339SOL    HW183850   2.788   1.214  13.190
27339SOL    HW283851   2.725   1.293  13.077
27340SOL     OW83852   2.614   4.323  10.573
27340SOL    HW183853   2.614   4.302  10.479
27340SOL    HW283854   2.594   4.241  10.616
27341SOL     OW83855   6.740   4.667  12.114
27341SOL    HW183856   6.832   4.693  12.114
27341SOL    HW283857   6.728   4.618  12.195
27342SOL     OW83858   3.656   0.377   1.897
27342SOL    HW183859   3.623   0.443   1.957
27342SOL    HW283860   3.699   0.427   1.828
27343SOL     OW83861  12.418   1.095   9.334
27343SOL    HW183862  12.464   1.020   9.372
27343SOL    HW283863  12.326   1.081   9.357
27344SOL     OW83864   7.104  14.266   7.554
27344SOL    HW183865   7.094  14.220   7.637
27344SOL    HW283866   7.049  14.217   7.493
27345SOL     OW83867  12.392   2.748  14.174
27345SOL    HW183868  12.475   2.734  14.127
27345SOL    HW283869  12.390   2.678  14.239
27346SOL     OW83870  13.517   8.798  13.505
27346SOL    HW183871  13.501   8.839  13.420
27346SOL    HW283872  13.612   8.797  13.514
27347SOL     OW83873  12.574  12.315   9.790
27347SOL    HW183874  12.500  12.342   9.844
27347SOL    HW283875  12.613  12.396   9.758
27348SOL     OW83876  13.101  12.976   0.789
27348SOL    HW183877  13.137  12.971   0.878
27348SOL    HW283878  13.156  12.917   0.738
27349SOL     OW83879  12.426   5.020   5.115
27349SOL    HW183880  12.379   5.094   5.153
27349SOL    HW283881  12.486   5.059   5.051
27350SOL     OW83882   7.768  11.045   7.670
27350SOL    HW183883   7.744  10.971   7.613
27350SOL    HW283884   7.834  11.009   7.730
27351SOL     OW83885   3.632  12.686  14.204
27351SOL    HW183886   3.597  12.598  14.212
27351SOL    HW283887   3.568  12.733  14.152
27352SOL     OW83888  12.019   3.472   1.333
27352SOL    HW183889  12.021   3.403   1.267
27352SOL    HW283890  11.929   3.504   1.332
27353SOL     OW83891   1.711  10.978   4.755
27353SOL    HW183892   1.671  11.065   4.748
27353SOL    HW283893   1.790  10.992   4.807
27354SOL     OW83894   6.175   4.723  12.863
27354SOL    HW183895   6.107   4.790  12.868
27354SOL    HW283896   6.145   4.655  12.923
27355SOL     OW83897  10.967   7.240   8.647
27355SOL    HW183898  10.964   7.331   8.616
27355SOL    HW283899  10.993   7.189   8.571
27356SOL     OW83900   1.569   9.590  14.257
27356SOL    HW183901   1.545   9.679  14.281
27356SOL    HW283902   1.642   9.569  14.315
27357SOL     OW83903   2.245   6.295  14.545
27357SOL    HW183904   2.328   6.256  14.517
27357SOL    HW283905   2.179   6.254  14.489
27358SOL     OW83906   2.993   1.070   9.182
27358SOL    HW183907   3.062   1.005   9.182
27358SOL    HW283908   3.038   1.153   9.195
27359SOL     OW83909  14.864  14.433   9.993
27359SOL    HW183910  14.867  14.471  10.080
27359SOL    HW283911  14.788  14.375   9.994
27360SOL     OW83912   3.101  12.433  13.082
27360SOL    HW183913   3.081  12.339  13.086
27360SOL    HW283914   3.057  12.470  13.159
27361SOL     OW83915   6.997   5.606  10.924
27361SOL    HW183916   6.936   5.533  10.931
27361SOL    HW283917   6.950   5.673  10.874
27362SOL     OW83918   6.924   5.599   9.186
27362SOL    HW183919   6.949   5.584   9.094
27362SOL    HW283920   6.831   5.622   9.182
27363SOL     OW83921   0.574   5.680   4.857
27363SOL    HW183922   0.598   5.638   4.774
27363SOL    HW283923   0.527   5.760   4.832
27364SOL     OW83924   5.847   5.313   5.969
27364SOL    HW183925   5.901   5.270   6.035
27364SOL    HW283926   5.859   5.406   5.985
27365SOL     OW83927   6.210  11.083   3.459
27365SOL    HW183928   6.242  11.086   3.368
27365SOL    HW283929   6.284  11.048   3.509
27366SOL     OW83930   7.405   8.671   2.852
27366SOL    HW183931   7.339   8.740   2.859
27366SOL    HW283932   7.409   8.633   2.940
27367SOL     OW83933   3.247   8.312   8.282
27367SOL    HW183934   3.293   8.331   8.199
27367SOL    HW283935   3.239   8.397   8.324
27368SOL     OW83936   9.559   4.041  13.439
27368SOL    HW183937   9.562   3.947  13.421
27368SOL    HW283938   9.497   4.049  13.512
27369SOL     OW83939   2.937  12.282   6.473
27369SOL    HW183940   2.868  12.348   6.478
27369SOL    HW283941   2.917  12.234   6.392
27370SOL     OW83942   1.906   2.265  14.517
27370SOL    HW183943   1.934   2.356  14.522
27370SOL    HW283944   1.860   2.249  14.599
27371SOL     OW83945  11.325  13.899   6.651
27371SOL    HW183946  11.287  13.987   6.647
27371SOL    HW283947  11.249  13.841   6.658
27372SOL     OW83948   5.288  13.710   5.587
27372SOL    HW183949   5.373  13.738   5.552
27372SOL    HW283950   5.302  13.705   5.681
27373SOL     OW83951   6.254   8.170   7.923
27373SOL    HW183952   6.317   8.113   7.879
27373SOL    HW283953   6.173   8.118   7.925
27374SOL     OW83954   6.142  14.554   4.707
27374SOL    HW183955   6.217  14.495   4.718
27374SOL    HW283956   6.065  14.496   4.712
27375SOL     OW83957   5.049  11.881  11.109
27375SOL    HW183958   5.122  11.884  11.046
27375SOL    HW283959   4.994  11.955  11.086
27376SOL     OW83960  10.996  12.933   3.649
27376SOL    HW183961  10.919  12.921   3.704
27376SOL    HW283962  10.998  12.854   3.594
27377SOL     OW83963   7.622   6.918   1.249
27377SOL    HW183964   7.625   6.853   1.319
27377SOL    HW283965   7.638   7.002   1.292
27378SOL     OW83966   3.789  14.456   9.994
27378SOL    HW183967   3.728  14.486   9.927
27378SOL    HW283968   3.754  14.491  10.076
27379SOL     OW83969   4.317  10.697   5.540
27379SOL    HW183970   4.380  10.740   5.598
27379SOL    HW283971   4.320  10.605   5.565
27380SOL     OW83972   7.209   2.297   8.567
27380SOL    HW183973   7.215   2.356   8.642
27380SOL    HW283974   7.188   2.355   8.493
27381SOL     OW83975   2.605   0.768   1.421
27381SOL    HW183976   2.591   0.808   1.335
27381SOL    HW283977   2.663   0.693   1.403
27382SOL     OW83978   8.189  14.025   5.858
27382SOL    HW183979   8.187  14.101   5.799
27382SOL    HW283980   8.200  14.062   5.945
27383SOL     OW83981   9.297   0.695   8.010
27383SOL    HW183982   9.239   0.697   7.935
27383SOL    HW283983   9.265   0.765   8.067
27384SOL     OW83984   4.303   2.012  13.705
27384SOL    HW183985   4.279   1.932  13.751
27384SOL    HW283986   4.224   2.038  13.658
27385SOL     OW83987   6.313   9.576   1.851
27385SOL    HW183988   6.302   9.508   1.918
27385SOL    HW283989   6.278   9.536   1.771
27386SOL     OW83990   6.667   8.362   8.007
27386SOL    HW183991   6.615   8.286   8.035
27386SOL    HW283992   6.631   8.435   8.057
27387SOL     OW83993   7.751   8.288   0.314
27387SOL    HW183994   7.833   8.337   0.320
27387SOL    HW283995   7.685   8.345   0.353
27388SOL     OW83996  13.286   9.613   3.824
27388SOL    HW183997  13.360   9.553   3.826
27388SOL    HW283998  13.315   9.690   3.873
27389SOL     OW83999   4.276   3.777  13.278
27389SOL    HW184000   4.336   3.846  13.307
27389SOL    HW284001   4.273   3.785  13.183
27390SOL     OW84002   2.104   0.525   0.264
27390SOL    HW184003   2.164   0.543   0.192
27390SOL    HW284004   2.065   0.611   0.285
27391SOL     OW84005   0.789  11.811   7.758
27391SOL    HW184006   0.699  11.844   7.749
27391SOL    HW284007   0.844  11.883   7.727
27392SOL     OW84008  11.620   0.700  13.919
27392SOL    HW184009  11.567   0.712  13.998
27392SOL    HW284010  11.705   0.739  13.941
27393SOL     OW84011   8.376  11.769   8.099
27393SOL    HW184012   8.464  11.731   8.097
27393SOL    HW284013   8.327  11.721   8.032
27394SOL     OW84014   6.649   2.155  13.163
27394SOL    HW184015   6.666   2.247  13.182
27394SOL    HW284016   6.734   2.112  13.169
27395SOL     OW84017   9.274   5.106  14.709
27395SOL    HW184018   9.294   5.196  14.735
27395SOL    HW284019   9.204   5.079  14.768
27396SOL     OW84020   7.604   0.825  14.210
27396SOL    HW184021   7.582   0.811  14.302
27396SOL    HW284022   7.525   0.863  14.172
27397SOL     OW84023   7.941  13.634   9.776
27397SOL    HW184024   7.999  13.562   9.801
27397SOL    HW284025   7.903  13.606   9.693
27398SOL     OW84026   2.919   1.448  12.659
27398SOL    HW184027   3.011   1.475  12.665
27398SOL    HW284028   2.885   1.496  12.584
27399SOL     OW84029  12.106   1.594   9.974
27399SOL    HW184030  12.061   1.516   9.942
27399SOL    HW284031  12.171   1.614   9.906
27400SOL     OW84032  12.786  13.434   7.803
27400SOL    HW184033  12.803  13.369   7.871
27400SOL    HW284034  12.783  13.517   7.850
27401SOL     OW84035   1.782  11.455   9.651
27401SOL    HW184036   1.847  11.485   9.587
27401SOL    HW284037   1.834  11.426   9.725
27402SOL     OW84038   3.570   7.671   7.678
27402SOL    HW184039   3.631   7.705   7.743
27402SOL    HW284040   3.607   7.696   7.594
27403SOL     OW84041  13.141  11.955   0.182
27403SOL    HW184042  13.061  11.967   0.131
27403SOL    HW284043  13.146  11.861   0.198
27404SOL     OW84044  14.519   1.124   4.278
27404SOL    HW184045  14.586   1.180   4.317
27404SOL    HW284046  14.466   1.183   4.224
27405SOL     OW84047   7.390   0.303   3.476
27405SOL    HW184048   7.297   0.298   3.455
27405SOL    HW284049   7.402   0.237   3.544
27406SOL     OW84050  13.124  10.793   2.565
27406SOL    HW184051  13.171  10.736   2.504
27406SOL    HW284052  13.168  10.878   2.556
27407SOL     OW84053   5.116   5.210   7.697
27407SOL    HW184054   5.025   5.218   7.668
27407SOL    HW284055   5.114   5.144   7.766
27408SOL     OW84056   9.655   0.107   0.410
27408SOL    HW184057   9.623   0.073   0.493
27408SOL    HW284058   9.739   0.146   0.430
27409SOL     OW84059   8.666   9.326  12.154
27409SOL    HW184060   8.604   9.383  12.202
27409SOL    HW284061   8.717   9.387  12.101
27410SOL     OW84062  11.820  13.615  10.683
27410SOL    HW184063  11.845  13.557  10.755
27410SOL    HW284064  11.900  13.625  10.631
27411SOL     OW84065   1.443  13.947   9.088
27411SOL    HW184066   1.473  14.030   9.125
27411SOL    HW284067   1.416  13.969   8.998
27412SOL     OW84068   1.672   9.014   1.555
27412SOL    HW184069   1.617   8.979   1.625
27412SOL    HW284070   1.760   8.983   1.576
27413SOL     OW84071  12.350  14.804  11.214
27413SOL    HW184072  12.369  14.792  11.307
27413SOL    HW284073  12.315  14.720  11.186
27414SOL     OW84074  13.861   1.905  10.006
27414SOL    HW184075  13.819   1.978   9.961
27414SOL    HW284076  13.790   1.845  10.026
27415SOL     OW84077   9.932   0.832   4.206
27415SOL    HW184078   9.860   0.819   4.267
27415SOL    HW284079   9.926   0.758   4.145
27416SOL     OW84080   3.557   3.439   7.119
27416SOL    HW184081   3.544   3.470   7.208
27416SOL    HW284082   3.643   3.472   7.094
27417SOL     OW84083   5.718   1.321  13.060
27417SOL    HW184084   5.781   1.386  13.090
27417SOL    HW284085   5.667   1.299  13.137
27418SOL     OW84086   5.105   0.806  11.548
27418SOL    HW184087   5.026   0.764  11.582
27418SOL    HW284088   5.177   0.760  11.590
27419SOL     OW84089   8.627   7.431  10.624
27419SOL    HW184090   8.699   7.489  10.596
27419SOL    HW284091   8.667   7.344  10.626
27420SOL     OW84092  13.102   5.067   9.503
27420SOL    HW184093  13.164   5.080   9.574
27420SOL    HW284094  13.018   5.098   9.538
27421SOL     OW84095  11.074  12.028   0.412
27421SOL    HW184096  11.125  11.948   0.402
27421SOL    HW284097  11.103  12.085   0.341
27422SOL     OW84098  11.091   4.381  13.283
27422SOL    HW184099  11.152   4.313  13.255
27422SOL    HW284100  11.020   4.333  13.326
27423SOL     OW84101   5.030   6.836  13.613
27423SOL    HW184102   5.028   6.831  13.708
27423SOL    HW284103   5.118   6.806  13.589
27424SOL     OW84104   2.347   1.898   3.796
27424SOL    HW184105   2.292   1.954   3.850
27424SOL    HW284106   2.354   1.944   3.712
27425SOL     OW84107   7.677   6.163   1.272
27425SOL    HW184108   7.729   6.160   1.352
27425SOL    HW284109   7.736   6.135   1.203
27426SOL     OW84110   6.573   9.992   7.314
27426SOL    HW184111   6.524  10.042   7.378
27426SOL    HW284112   6.517   9.990   7.236
27427SOL     OW84113  10.799   2.847  14.804
27427SOL    HW184114  10.871   2.906  14.781
27427SOL    HW284115  10.739   2.902  14.855
27428SOL     OW84116   4.306   6.952   9.810
27428SOL    HW184117   4.211   6.965   9.807
27428SOL    HW284118   4.339   7.021   9.867
27429SOL     OW84119   2.407   6.841   7.352
27429SOL    HW184120   2.435   6.758   7.312
27429SOL    HW284121   2.354   6.884   7.285
27430SOL     OW84122  11.437   2.042  13.132
27430SOL    HW184123  11.528   2.023  13.153
27430SOL    HW284124  11.390   2.025  13.214
27431SOL     OW84125  13.109   9.620  13.088
27431SOL    HW184126  13.123   9.701  13.038
27431SOL    HW284127  13.024   9.589  13.059
27432SOL     OW84128   9.122  10.493   9.577
27432SOL    HW184129   9.102  10.441   9.654
27432SOL    HW284130   9.079  10.577   9.591
27433SOL     OW84131   1.942   7.717   9.070
27433SOL    HW184132   1.986   7.654   9.014
27433SOL    HW284133   1.874   7.755   9.015
27434SOL     OW84134   0.407   9.587  10.079
27434SOL    HW184135   0.461   9.550  10.149
27434SOL    HW284136   0.317   9.576  10.109
27435SOL     OW84137  14.830   2.339  10.105
27435SOL    HW184138  14.739   2.316  10.121
27435SOL    HW284139  14.834   2.357  10.011
27436SOL     OW84140   0.236   3.219   6.461
27436SOL    HW184141   0.310   3.173   6.500
27436SOL    HW284142   0.232   3.186   6.371
27437SOL     OW84143  12.432   0.100   4.095
27437SOL    HW184144  12.421   0.190   4.066
27437SOL    HW284145  12.522   0.078   4.072
27438SOL     OW84146   2.118   7.657   9.432
27438SOL    HW184147   2.171   7.623   9.504
27438SOL    HW284148   2.104   7.749   9.453
27439SOL     OW84149   6.903  10.136  11.089
27439SOL    HW184150   6.984  10.144  11.140
27439SOL    HW284151   6.835  10.171  11.147
27440SOL     OW84152   7.157   5.348   4.505
27440SOL    HW184153   7.072   5.380   4.532
27440SOL    HW284154   7.196   5.420   4.456
27441SOL     OW84155   3.449  13.397  12.426
27441SOL    HW184156   3.544  13.403  12.416
27441SOL    HW284157   3.429  13.306  12.406
27442SOL     OW84158   7.834   3.372  12.355
27442SOL    HW184159   7.746   3.384  12.320
27442SOL    HW284160   7.861   3.285  12.326
27443SOL     OW84161   9.748   2.122   9.727
27443SOL    HW184162   9.814   2.102   9.660
27443SOL    HW284163   9.780   2.078   9.805
27444SOL     OW84164   2.025  10.476   1.842
27444SOL    HW184165   2.082  10.400   1.855
27444SOL    HW284166   2.071  10.529   1.778
27445SOL     OW84167  14.423   0.734   2.414
27445SOL    HW184168  14.409   0.640   2.421
27445SOL    HW284169  14.411   0.766   2.503
27446SOL     OW84170  12.456  11.543   8.905
27446SOL    HW184171  12.498  11.517   8.987
27446SOL    HW284172  12.523  11.594   8.858
27447SOL     OW84173  13.634   8.467  12.586
27447SOL    HW184174  13.672   8.490  12.501
27447SOL    HW284175  13.572   8.537  12.604
27448SOL     OW84176  10.847  12.866   2.449
27448SOL    HW184177  10.903  12.877   2.372
27448SOL    HW284178  10.764  12.834   2.414
27449SOL     OW84179   4.350   6.114   5.812
27449SOL    HW184180   4.310   6.194   5.844
27449SOL    HW284181   4.402   6.082   5.885
27450SOL     OW84182  10.276   8.676   8.892
27450SOL    HW184183  10.282   8.629   8.809
27450SOL    HW284184  10.264   8.768   8.868
27451SOL     OW84185  13.588  13.661  11.183
27451SOL    HW184186  13.600  13.635  11.274
27451SOL    HW284187  13.641  13.599  11.133
27452SOL     OW84188   8.660  10.122   8.549
27452SOL    HW184189   8.712  10.174   8.610
27452SOL    HW284190   8.714  10.046   8.529
27453SOL     OW84191   5.539   4.579  13.809
27453SOL    HW184192   5.590   4.584  13.889
27453SOL    HW284193   5.450   4.556  13.838
27454SOL     OW84194   1.457   2.441  14.173
27454SOL    HW184195   1.434   2.348  14.168
27454SOL    HW284196   1.550   2.441  14.195
27455SOL     OW84197  10.475   8.497   9.519
27455SOL    HW184198  10.480   8.579   9.470
27455SOL    HW284199  10.399   8.508   9.576
27456SOL     OW84200   6.338  13.130   4.795
27456SOL    HW184201   6.372  13.056   4.845
27456SOL    HW284202   6.360  13.109   4.704
27457SOL     OW84203   8.419   6.768  12.981
27457SOL    HW184204   8.514   6.777  12.968
27457SOL    HW284205   8.386   6.745  12.894
27458SOL     OW84206   3.304   6.196   7.358
27458SOL    HW184207   3.393   6.174   7.332
27458SOL    HW284208   3.250   6.125   7.324
27459SOL     OW84209  12.296   8.368   0.906
27459SOL    HW184210  12.272   8.444   0.854
27459SOL    HW284211  12.275   8.293   0.851
27460SOL     OW84212  11.009   6.644  13.038
27460SOL    HW184213  10.982   6.582  13.106
27460SOL    HW284214  11.060   6.710  13.084
27461SOL     OW84215  14.235  10.076  10.711
27461SOL    HW184216  14.252  10.032  10.628
27461SOL    HW284217  14.181  10.014  10.760
27462SOL     OW84218  14.093   6.479   3.094
27462SOL    HW184219  14.116   6.562   3.052
27462SOL    HW284220  14.110   6.412   3.027
27463SOL     OW84221   5.786   7.450   5.204
27463SOL    HW184222   5.869   7.498   5.203
27463SOL    HW284223   5.726   7.508   5.251
27464SOL     OW84224   9.229   9.440   0.022
27464SOL    HW184225   9.156   9.502   0.028
27464SOL    HW284226   9.198   9.372  14.842
27465SOL     OW84227   7.634   2.271   2.980
27465SOL    HW184228   7.729   2.274   2.992
27465SOL    HW284229   7.598   2.277   3.069
27466SOL     OW84230   3.771  13.638  10.910
27466SOL    HW184231   3.698  13.690  10.875
27466SOL    HW284232   3.767  13.556  10.860
27467SOL     OW84233   4.045  10.845   1.635
27467SOL    HW184234   4.023  10.792   1.711
27467SOL    HW284235   4.032  10.786   1.560
27468SOL     OW84236   4.442   9.529  10.819
27468SOL    HW184237   4.420   9.573  10.738
27468SOL    HW284238   4.358   9.499  10.854
27469SOL     OW84239  11.005   0.261   1.156
27469SOL    HW184240  10.952   0.182   1.165
27469SOL    HW284241  11.096   0.229   1.156
27470SOL     OW84242   6.711   4.750   6.719
27470SOL    HW184243   6.793   4.799   6.721
27470SOL    HW284244   6.689   4.745   6.626
27471SOL     OW84245   3.859   5.819   1.929
27471SOL    HW184246   3.853   5.723   1.920
27471SOL    HW284247   3.944   5.841   1.890
27472SOL     OW84248   2.258   3.614   7.487
27472SOL    HW184249   2.289   3.550   7.551
27472SOL    HW284250   2.218   3.683   7.540
27473SOL     OW84251  14.580   7.362   1.563
27473SOL    HW184252  14.660   7.367   1.615
27473SOL    HW284253  14.541   7.278   1.586
27474SOL     OW84254  10.699  12.273  12.129
27474SOL    HW184255  10.744  12.192  12.151
27474SOL    HW284256  10.769  12.334  12.105
27475SOL     OW84257   0.655  10.262   1.634
27475SOL    HW184258   0.645  10.202   1.708
27475SOL    HW284259   0.735  10.310   1.653
27476SOL     OW84260   3.362   3.306  12.983
27476SOL    HW184261   3.432   3.274  12.927
27476SOL    HW284262   3.405   3.335  13.063
27477SOL     OW84263   9.488   4.729  11.468
27477SOL    HW184264   9.563   4.724  11.528
27477SOL    HW284265   9.523   4.771  11.390
27478SOL     OW84266  13.966  13.827   3.819
27478SOL    HW184267  14.006  13.740   3.823
27478SOL    HW284268  13.964  13.848   3.726
27479SOL     OW84269  13.560  11.240   6.950
27479SOL    HW184270  13.465  11.231   6.965
27479SOL    HW284271  13.577  11.185   6.873
27480SOL     OW84272   8.039   0.212   3.121
27480SOL    HW184273   7.964   0.263   3.152
27480SOL    HW284274   8.068   0.259   3.042
27481SOL     OW84275   9.350   5.931   8.722
27481SOL    HW184276   9.428   5.979   8.751
27481SOL    HW284277   9.314   5.984   8.651
27482SOL     OW84278   1.699   3.244   0.824
27482SOL    HW184279   1.699   3.241   0.919
27482SOL    HW284280   1.791   3.248   0.799
27483SOL     OW84281   1.275  11.023   1.396
27483SOL    HW184282   1.266  11.111   1.360
27483SOL    HW284283   1.220  11.022   1.473
27484SOL     OW84284  12.547   9.108   0.146
27484SOL    HW184285  12.500   9.145   0.071
27484SOL    HW284286  12.583   9.025   0.114
27485SOL     OW84287  12.890   4.520   4.878
27485SOL    HW184288  12.882   4.595   4.937
27485SOL    HW284289  12.925   4.450   4.933
27486SOL     OW84290  13.421   3.940  13.457
27486SOL    HW184291  13.339   3.989  13.456
27486SOL    HW284292  13.479   3.991  13.513
27487SOL     OW84293   2.120   1.762   6.983
27487SOL    HW184294   2.159   1.837   7.027
27487SOL    HW284295   2.132   1.779   6.890
27488SOL     OW84296  10.254   0.615  12.018
27488SOL    HW184297  10.311   0.663  12.078
27488SOL    HW284298  10.262   0.662  11.935
27489SOL     OW84299  12.610   7.555   2.943
27489SOL    HW184300  12.563   7.473   2.925
27489SOL    HW284301  12.584   7.579   3.031
27490SOL     OW84302   1.266  13.160   8.635
27490SOL    HW184303   1.260  13.166   8.540
27490SOL    HW284304   1.290  13.249   8.663
27491SOL     OW84305  12.400   3.518   9.815
27491SOL    HW184306  12.407   3.450   9.882
27491SOL    HW284307  12.353   3.475   9.742
27492SOL     OW84308  14.405  10.759   2.029
27492SOL    HW184309  14.420  10.707   1.950
27492SOL    HW284310  14.483  10.743   2.083
27493SOL     OW84311  12.262   6.040   5.434
27493SOL    HW184312  12.273   6.080   5.521
27493SOL    HW284313  12.168   6.040   5.420
27494SOL     OW84314   6.949   9.289  12.208
27494SOL    HW184315   6.973   9.205  12.245
27494SOL    HW284316   6.869   9.272  12.158
27495SOL     OW84317  14.228  13.186   9.608
27495SOL    HW184318  14.306  13.167   9.660
27495SOL    HW284319  14.236  13.132   9.530
27496SOL     OW84320   0.791  10.665   1.952
27496SOL    HW184321   0.885  10.682   1.958
27496SOL    HW284322   0.751  10.749   1.976
27497SOL     OW84323  12.660  11.691   8.791
27497SOL    HW184324  12.694  11.723   8.875
27497SOL    HW284325  12.660  11.768   8.734
27498SOL     OW84326   8.750   4.709   0.005
27498SOL    HW184327   8.736   4.721  14.790
27498SOL    HW284328   8.676   4.753   0.046
27499SOL     OW84329   6.611  14.681  12.044
27499SOL    HW184330   6.591  14.599  11.999
27499SOL    HW284331   6.707  14.682  12.049
27500SOL     OW84332   9.737   7.777   0.175
27500SOL    HW184333   9.684   7.856   0.168
27500SOL    HW284334   9.827   7.809   0.187
27501SOL     OW84335   4.729   6.472  11.069
27501SOL    HW184336   4.789   6.518  11.010
27501SOL    HW284337   4.667   6.540  11.096
27502SOL     OW84338   4.556  13.859   2.277
27502SOL    HW184339   4.465  13.853   2.247
27502SOL    HW284340   4.549  13.896   2.365
27503SOL     OW84341   3.968   6.739  13.594
27503SOL    HW184342   3.930   6.765  13.510
27503SOL    HW284343   3.910   6.777  13.659
27504SOL     OW84344   2.448  10.560  11.306
27504SOL    HW184345   2.403  10.641  11.328
27504SOL    HW284346   2.448  10.510  11.388
27505SOL     OW84347   4.842   7.739   1.538
27505SOL    HW184348   4.860   7.695   1.622
27505SOL    HW284349   4.909   7.806   1.531
27506SOL     OW84350  12.403   8.438   9.029
27506SOL    HW184351  12.419   8.356   8.983
27506SOL    HW284352  12.394   8.503   8.959
27507SOL     OW84353   6.588   3.440  12.492
27507SOL    HW184354   6.515   3.444  12.430
27507SOL    HW284355   6.581   3.352  12.531
27508SOL     OW84356  10.166  14.805   4.929
27508SOL    HW184357  10.226  14.825   5.000
27508SOL    HW284358  10.079  14.804   4.970
27509SOL     OW84359   9.584   3.247   7.638
27509SOL    HW184360   9.565   3.293   7.556
27509SOL    HW284361   9.604   3.157   7.611
27510SOL     OW84362  13.187  11.552  12.098
27510SOL    HW184363  13.165  11.501  12.021
27510SOL    HW284364  13.153  11.640  12.080
27511SOL     OW84365  11.043   8.851   6.055
27511SOL    HW184366  11.031   8.770   6.005
27511SOL    HW284367  10.968   8.906   6.029
27512SOL     OW84368   5.682   0.448   0.233
27512SOL    HW184369   5.684   0.353   0.218
27512SOL    HW284370   5.616   0.480   0.172
27513SOL     OW84371   6.634   1.326  13.928
27513SOL    HW184372   6.633   1.273  13.848
27513SOL    HW284373   6.551   1.305  13.971
27514SOL     OW84374   8.481   9.741  14.270
27514SOL    HW184375   8.422   9.708  14.202
27514SOL    HW284376   8.560   9.767  14.222
27515SOL     OW84377  13.165  14.694   8.826
27515SOL    HW184378  13.208  14.706   8.742
27515SOL    HW284379  13.236  14.699   8.890
27516SOL     OW84380   1.804   6.524   6.611
27516SOL    HW184381   1.713   6.536   6.639
27516SOL    HW284382   1.853   6.590   6.660
27517SOL     OW84383   5.388  13.300   9.434
27517SOL    HW184384   5.296  13.315   9.458
27517SOL    HW284385   5.426  13.256   9.510
27518SOL     OW84386  10.878   2.372   4.979
27518SOL    HW184387  10.834   2.314   5.041
27518SOL    HW284388  10.890   2.454   5.026
27519SOL     OW84389   3.863   2.978   4.185
27519SOL    HW184390   3.771   2.967   4.212
27519SOL    HW284391   3.905   2.895   4.209
27520SOL     OW84392   6.503   6.185   0.203
27520SOL    HW184393   6.492   6.259   0.263
27520SOL    HW284394   6.502   6.226   0.116
27521SOL     OW84395   8.517   7.601  10.824
27521SOL    HW184396   8.539   7.558  10.906
27521SOL    HW284397   8.515   7.531  10.759
27522SOL     OW84398   2.848   4.540   6.818
27522SOL    HW184399   2.764   4.495   6.811
27522SOL    HW284400   2.880   4.519   6.906
27523SOL     OW84401   2.163   8.915  14.314
27523SOL    HW184402   2.193   8.872  14.394
27523SOL    HW284403   2.119   8.846  14.264
27524SOL     OW84404  13.283   9.379  12.202
27524SOL    HW184405  13.365   9.335  12.180
27524SOL    HW284406  13.221   9.307  12.215
27525SOL     OW84407  10.189  12.282  14.661
27525SOL    HW184408  10.230  12.210  14.709
27525SOL    HW284409  10.125  12.318  14.722
27526SOL     OW84410  13.053   2.736  13.038
27526SOL    HW184411  13.016   2.732  12.949
27526SOL    HW284412  13.104   2.817  13.038
27527SOL     OW84413   4.556   4.115  12.484
27527SOL    HW184414   4.578   4.034  12.438
27527SOL    HW284415   4.609   4.112  12.564
27528SOL     OW84416  11.272  14.338   3.890
27528SOL    HW184417  11.357  14.314   3.927
27528SOL    HW284418  11.264  14.285   3.811
27529SOL     OW84419  11.665   5.991   6.359
27529SOL    HW184420  11.700   5.950   6.280
27529SOL    HW284421  11.663   5.920   6.424
27530SOL     OW84422  11.445   5.057   3.625
27530SOL    HW184423  11.531   5.020   3.603
27530SOL    HW284424  11.466   5.141   3.666
27531SOL     OW84425  13.071   8.935   5.668
27531SOL    HW184426  13.058   8.910   5.576
27531SOL    HW284427  13.142   8.999   5.665
27532SOL     OW84428   9.738   6.271   8.952
27532SOL    HW184429   9.652   6.232   8.936
27532SOL    HW284430   9.778   6.214   9.018
27533SOL     OW84431  14.469  10.323   3.956
27533SOL    HW184432  14.518  10.404   3.947
27533SOL    HW284433  14.520  10.271   4.018
27534SOL     OW84434  14.758   4.710   4.194
27534SOL    HW184435  14.743   4.638   4.134
27534SOL    HW284436  14.784   4.668   4.276
27535SOL     OW84437  10.799   9.241   3.530
27535SOL    HW184438  10.780   9.290   3.450
27535SOL    HW284439  10.737   9.168   3.529
27536SOL     OW84440   1.949  10.141  13.402
27536SOL    HW184441   1.958  10.120  13.309
27536SOL    HW284442   1.977  10.061  13.447
27537SOL     OW84443  10.735   4.225   3.048
27537SOL    HW184444  10.719   4.234   2.954
27537SOL    HW284445  10.659   4.264   3.090
27538SOL     OW84446  10.949   6.116   2.491
27538SOL    HW184447  11.044   6.103   2.485
27538SOL    HW284448  10.930   6.182   2.423
27539SOL     OW84449  11.547  11.593  13.890
27539SOL    HW184450  11.454  11.598  13.908
27539SOL    HW284451  11.568  11.675  13.846
27540SOL     OW84452   4.840   2.661   1.722
27540SOL    HW184453   4.869   2.575   1.753
27540SOL    HW284454   4.904   2.722   1.757
27541SOL     OW84455   9.601  12.666   0.023
27541SOL    HW184456   9.653  12.735   0.064
27541SOL    HW284457   9.568  12.614   0.097
27542SOL     OW84458   0.799  11.858   8.852
27542SOL    HW184459   0.848  11.902   8.783
27542SOL    HW284460   0.862  11.847   8.923
27543SOL     OW84461   5.499  12.287  10.148
27543SOL    HW184462   5.419  12.244  10.177
27543SOL    HW284463   5.566  12.258  10.211
27544SOL     OW84464   5.202   2.857   5.406
27544SOL    HW184465   5.175   2.808   5.484
27544SOL    HW284466   5.289   2.823   5.385
27545SOL     OW84467   8.209  14.578   8.916
27545SOL    HW184468   8.273  14.621   8.973
27545SOL    HW284469   8.260  14.549   8.840
27546SOL     OW84470   2.844   8.783   8.053
27546SOL    HW184471   2.765   8.730   8.054
27546SOL    HW284472   2.864   8.793   7.960
27547SOL     OW84473   4.003   8.478   5.492
27547SOL    HW184474   4.073   8.517   5.544
27547SOL    HW284475   4.047   8.438   5.417
27548SOL     OW84476   0.246  10.765  10.962
27548SOL    HW184477   0.271  10.837  10.904
27548SOL    HW284478   0.323  10.708  10.963
27549SOL     OW84479  10.797  14.455   2.229
27549SOL    HW184480  10.743  14.522   2.186
27549SOL    HW284481  10.884  14.465   2.189
27550SOL     OW84482   0.868   4.234   5.038
27550SOL    HW184483   0.888   4.168   4.970
27550SOL    HW284484   0.910   4.314   5.007
27551SOL     OW84485   8.632  13.587   0.292
27551SOL    HW184486   8.674  13.668   0.263
27551SOL    HW284487   8.691  13.552   0.359
27552SOL     OW84488   6.689  10.713   5.976
27552SOL    HW184489   6.674  10.704   6.070
27552SOL    HW284490   6.757  10.648   5.956
27553SOL     OW84491   2.512   9.280  12.119
27553SOL    HW184492   2.597   9.312  12.150
27553SOL    HW284493   2.491   9.207  12.177
27554SOL     OW84494   7.499   3.817   8.710
27554SOL    HW184495   7.477   3.910   8.700
27554SOL    HW284496   7.570   3.803   8.648
27555SOL     OW84497   1.615   8.825  13.872
27555SOL    HW184498   1.568   8.896  13.829
27555SOL    HW284499   1.682   8.869  13.925
27556SOL     OW84500   0.163   2.925   3.902
27556SOL    HW184501   0.146   2.921   3.996
27556SOL    HW284502   0.258   2.936   3.894
27557SOL     OW84503   3.124  13.110   2.213
27557SOL    HW184504   3.165  13.157   2.140
27557SOL    HW284505   3.181  13.127   2.288
27558SOL     OW84506   2.128   8.427   2.961
27558SOL    HW184507   2.060   8.448   2.897
27558SOL    HW284508   2.206   8.472   2.929
27559SOL     OW84509   1.136   5.344  11.986
27559SOL    HW184510   1.170   5.262  11.952
27559SOL    HW284511   1.194   5.367  12.058
27560SOL     OW84512  12.496  12.461   3.716
27560SOL    HW184513  12.450  12.466   3.799
27560SOL    HW284514  12.450  12.394   3.666
27561SOL     OW84515  11.151  12.700   7.856
27561SOL    HW184516  11.108  12.629   7.808
27561SOL    HW284517  11.207  12.656   7.920
27562SOL     OW84518   0.248   0.520   7.740
27562SOL    HW184519   0.182   0.458   7.771
27562SOL    HW284520   0.208   0.560   7.662
27563SOL     OW84521  12.083   7.028  13.752
27563SOL    HW184522  12.041   7.110  13.728
27563SOL    HW284523  12.019   6.982  13.806
27564SOL     OW84524  12.666  13.312  10.692
27564SOL    HW184525  12.586  13.304  10.641
27564SOL    HW284526  12.734  13.331  10.627
27565SOL     OW84527   1.472  12.636  11.879
27565SOL    HW184528   1.436  12.717  11.842
27565SOL    HW284529   1.490  12.581  11.803
27566SOL     OW84530  11.970   5.377  12.021
27566SOL    HW184531  11.975   5.472  12.010
27566SOL    HW284532  12.056   5.352  12.053
27567SOL     OW84533   5.014   2.635   4.973
27567SOL    HW184534   5.048   2.579   4.903
27567SOL    HW284535   5.009   2.722   4.933
27568SOL     OW84536  10.419   9.395   1.863
27568SOL    HW184537  10.398   9.486   1.886
27568SOL    HW284538  10.460   9.360   1.942
27569SOL     OW84539   5.900   7.910  11.170
27569SOL    HW184540   5.847   7.987  11.189
27569SOL    HW284541   5.980   7.922  11.222
27570SOL     OW84542  14.817   1.801  10.454
27570SOL    HW184543  14.808   1.864  10.382
27570SOL    HW284544  14.866   1.848  10.521
27571SOL     OW84545   8.071   2.118  12.201
27571SOL    HW184546   8.123   2.195  12.174
27571SOL    HW284547   8.077   2.118  12.296
27572SOL     OW84548  13.128   5.790   2.443
27572SOL    HW184549  13.079   5.794   2.525
27572SOL    HW284550  13.060   5.787   2.375
27573SOL     OW84551   8.365  13.793   6.469
27573SOL    HW184552   8.316  13.874   6.453
27573SOL    HW284553   8.455  13.823   6.483
27574SOL     OW84554   1.803   7.210  10.577
27574SOL    HW184555   1.857   7.193  10.654
27574SOL    HW284556   1.717   7.231  10.612
27575SOL     OW84557   7.784   3.079   9.852
27575SOL    HW184558   7.721   3.136   9.896
27575SOL    HW284559   7.730   3.018   9.801
27576SOL     OW84560   1.055   9.442   6.039
27576SOL    HW184561   0.967   9.465   6.067
27576SOL    HW284562   1.112   9.482   6.105
27577SOL     OW84563   6.210  11.759  14.067
27577SOL    HW184564   6.276  11.730  14.130
27577SOL    HW284565   6.156  11.821  14.116
27578SOL     OW84566   8.437  11.272  11.582
27578SOL    HW184567   8.446  11.226  11.499
27578SOL    HW284568   8.343  11.291  11.589
27579SOL     OW84569   8.701   0.336  14.858
27579SOL    HW184570   8.773   0.290   0.022
27579SOL    HW284571   8.730   0.428  14.856
27580SOL     OW84572   6.828   0.611  10.737
27580SOL    HW184573   6.765   0.539  10.737
27580SOL    HW284574   6.871   0.606  10.822
27581SOL     OW84575  12.269  10.753  12.168
27581SOL    HW184576  12.216  10.741  12.090
27581SOL    HW284577  12.341  10.691  12.158
27582SOL     OW84578  14.719   2.210  12.669
27582SOL    HW184579  14.642   2.195  12.725
27582SOL    HW284580  14.791   2.224  12.731
27583SOL     OW84581  14.089   1.659   0.386
27583SOL    HW184582  14.056   1.636   0.298
27583SOL    HW284583  14.016   1.638   0.444
27584SOL     OW84584  10.992   7.066  10.539
27584SOL    HW184585  10.922   7.129  10.522
27584SOL    HW284586  11.052   7.112  10.597
27585SOL     OW84587   1.167  10.466   9.506
27585SOL    HW184588   1.260  10.480   9.490
27585SOL    HW284589   1.136  10.548   9.544
27586SOL     OW84590   9.356  12.437  10.540
27586SOL    HW184591   9.391  12.370  10.598
27586SOL    HW284592   9.273  12.401  10.509
27587SOL     OW84593  12.426   3.477   1.711
27587SOL    HW184594  12.475   3.407   1.668
27587SOL    HW284595  12.356   3.498   1.649
27588SOL     OW84596   9.507   4.936   6.999
27588SOL    HW184597   9.573   5.005   6.994
27588SOL    HW284598   9.443   4.958   6.931
27589SOL     OW84599   9.681  13.523   9.690
27589SOL    HW184600   9.638  13.457   9.636
27589SOL    HW284601   9.750  13.559   9.634
27590SOL     OW84602  11.135   5.744   0.873
27590SOL    HW184603  11.185   5.694   0.809
27590SOL    HW284604  11.176   5.830   0.874
27591SOL     OW84605   4.157   5.963   1.891
27591SOL    HW184606   4.121   6.035   1.839
27591SOL    HW284607   4.160   5.997   1.980
27592SOL     OW84608  13.613  13.115   5.289
27592SOL    HW184609  13.586  13.200   5.253
27592SOL    HW284610  13.671  13.137   5.361
27593SOL     OW84611  10.826   8.109  14.089
27593SOL    HW184612  10.898   8.047  14.093
27593SOL    HW284613  10.858   8.181  14.034
27594SOL     OW84614  10.894   2.742  14.118
27594SOL    HW184615  10.888   2.800  14.194
27594SOL    HW284616  10.850   2.791  14.048
27595SOL     OW84617  11.820   8.417  11.954
27595SOL    HW184618  11.765   8.340  11.969
27595SOL    HW284619  11.907   8.382  11.939
27596SOL     OW84620  14.709   2.291  13.103
27596SOL    HW184621  14.701   2.384  13.081
27596SOL    HW284622  14.651   2.279  13.178
27597SOL     OW84623   8.713  13.912  11.341
27597SOL    HW184624   8.703  13.879  11.252
27597SOL    HW284625   8.743  14.002  11.331
27598SOL     OW84626   9.666  11.398   5.419
27598SOL    HW184627   9.594  11.400   5.356
27598SOL    HW284628   9.692  11.490   5.429
27599SOL     OW84629   1.609   8.126   1.220
27599SOL    HW184630   1.630   8.187   1.290
27599SOL    HW284631   1.514   8.115   1.225
27600SOL     OW84632   3.751   1.596  11.430
27600SOL    HW184633   3.743   1.546  11.349
27600SOL    HW284634   3.753   1.530  11.499
27601SOL     OW84635   0.121   7.389   9.630
27601SOL    HW184636   0.167   7.373   9.548
27601SOL    HW284637   0.060   7.460   9.610
27602SOL     OW84638   4.702   2.734   1.277
27602SOL    HW184639   4.704   2.787   1.356
27602SOL    HW284640   4.610   2.713   1.264
27603SOL     OW84641   9.110   0.955   8.164
27603SOL    HW184642   9.022   0.947   8.129
27603SOL    HW284643   9.110   0.899   8.243
27604SOL     OW84644   3.802  10.797  13.281
27604SOL    HW184645   3.765  10.771  13.196
27604SOL    HW284646   3.747  10.870  13.309
27605SOL     OW84647  12.903   6.542   6.028
27605SOL    HW184648  12.837   6.539   6.097
27605SOL    HW284649  12.975   6.592   6.066
27606SOL     OW84650   3.075   6.693  13.073
27606SOL    HW184651   3.152   6.750  13.071
27606SOL    HW284652   3.021   6.723  13.000
27607SOL     OW84653   4.318  13.223  11.214
27607SOL    HW184654   4.342  13.230  11.122
27607SOL    HW284655   4.223  13.241  11.215
27608SOL     OW84656  10.232   9.248   5.224
27608SOL    HW184657  10.191   9.327   5.261
27608SOL    HW284658  10.177   9.226   5.148
27609SOL     OW84659   0.056  11.718  13.413
27609SOL    HW184660   0.030  11.644  13.359
27609SOL    HW284661   0.096  11.677  13.491
27610SOL     OW84662   5.736  13.964   3.435
27610SOL    HW184663   5.647  13.990   3.459
27610SOL    HW284664   5.792  14.016   3.493
27611SOL     OW84665  10.126   3.416   4.711
27611SOL    HW184666  10.176   3.497   4.725
27611SOL    HW284667  10.116   3.410   4.616
27612SOL     OW84668  13.519  13.516   0.972
27612SOL    HW184669  13.428  13.488   0.971
27612SOL    HW284670  13.520  13.594   1.028
27613SOL     OW84671   7.531   1.805  10.711
27613SOL    HW184672   7.461   1.778  10.652
27613SOL    HW284673   7.574   1.878  10.666
27614SOL     OW84674   0.438  13.802   1.709
27614SOL    HW184675   0.380  13.727   1.698
27614SOL    HW284676   0.526  13.766   1.699
27615SOL     OW84677   0.023  11.160   9.960
27615SOL    HW184678   0.115  11.157   9.989
27615SOL    HW284679   0.012  11.080   9.909
27616SOL     OW84680   9.407   1.372  10.610
27616SOL    HW184681   9.381   1.337  10.695
27616SOL    HW284682   9.361   1.318  10.546
27617SOL     OW84683  11.254  10.475  11.171
27617SOL    HW184684  11.274  10.398  11.223
27617SOL    HW284685  11.241  10.545  11.235
27618SOL     OW84686   1.109  11.861  12.700
27618SOL    HW184687   1.027  11.847  12.652
27618SOL    HW284688   1.081  11.899  12.784
27619SOL     OW84689   6.745   7.900   0.635
27619SOL    HW184690   6.819   7.857   0.677
27619SOL    HW284691   6.674   7.896   0.700
27620SOL     OW84692   3.715  10.500   6.485
27620SOL    HW184693   3.736  10.407   6.474
27620SOL    HW284694   3.786  10.545   6.439
27621SOL     OW84695  13.381   1.168   9.805
27621SOL    HW184696  13.344   1.243   9.851
27621SOL    HW284697  13.412   1.204   9.721
27622SOL     OW84698   3.167   6.554   6.493
27622SOL    HW184699   3.108   6.539   6.419
27622SOL    HW284700   3.110   6.590   6.562
27623SOL     OW84701   8.372   6.379  12.987
27623SOL    HW184702   8.365   6.413  12.898
27623SOL    HW284703   8.316   6.438  13.039
27624SOL     OW84704  11.248  14.695   1.081
27624SOL    HW184705  11.250  14.614   1.133
27624SOL    HW284706  11.324  14.688   1.024
27625SOL     OW84707   4.992  11.260   1.845
27625SOL    HW184708   5.087  11.265   1.831
27625SOL    HW284709   4.966  11.175   1.810
27626SOL     OW84710  12.758  14.228   0.917
27626SOL    HW184711  12.798  14.231   1.004
27626SOL    HW284712  12.672  14.188   0.931
27627SOL     OW84713  12.549   1.906   3.501
27627SOL    HW184714  12.540   1.943   3.589
27627SOL    HW284715  12.498   1.825   3.504
27628SOL     OW84716  13.727  13.291   7.782
27628SOL    HW184717  13.688  13.317   7.699
27628SOL    HW284718  13.655  13.294   7.844
27629SOL     OW84719   3.922   1.365   8.110
27629SOL    HW184720   3.896   1.352   8.019
27629SOL    HW284721   3.879   1.294   8.157
27630SOL     OW84722  14.581   4.256   8.756
27630SOL    HW184723  14.517   4.213   8.700
27630SOL    HW284724  14.656   4.197   8.757
27631SOL     OW84725   9.719  11.931   9.511
27631SOL    HW184726   9.648  11.881   9.551
27631SOL    HW284727   9.675  11.986   9.446
27632SOL     OW84728   8.594  10.782  13.175
27632SOL    HW184729   8.623  10.707  13.227
27632SOL    HW284730   8.675  10.827  13.150
27633SOL     OW84731  14.201   4.818  14.514
27633SOL    HW184732  14.184   4.791  14.604
27633SOL    HW284733  14.290   4.787  14.496
27634SOL     OW84734   6.110   9.613   9.337
27634SOL    HW184735   6.059   9.674   9.284
27634SOL    HW284736   6.058   9.533   9.339
27635SOL     OW84737   0.202   6.583   9.521
27635SOL    HW184738   0.258   6.518   9.563
27635SOL    HW284739   0.214   6.662   9.574
27636SOL     OW84740   3.877   6.761   8.918
27636SOL    HW184741   3.885   6.676   8.961
27636SOL    HW284742   3.964   6.801   8.928
27637SOL     OW84743   8.008  13.397   3.004
27637SOL    HW184744   8.091  13.440   3.019
27637SOL    HW284745   7.943  13.452   3.048
27638SOL     OW84746  13.164   4.651  11.743
27638SOL    HW184747  13.183   4.562  11.714
27638SOL    HW284748  13.108   4.640  11.820
27639SOL     OW84749   1.325   6.256  10.965
27639SOL    HW184750   1.406   6.212  10.941
27639SOL    HW284751   1.262   6.231  10.897
27640SOL     OW84752  11.571  14.431  13.389
27640SOL    HW184753  11.623  14.508  13.412
27640SOL    HW284754  11.506  14.426  13.459
27641SOL     OW84755  12.028   3.048   3.508
27641SOL    HW184756  12.117   3.063   3.475
27641SOL    HW284757  11.976   3.117   3.468
27642SOL     OW84758  13.551   1.900   9.977
27642SOL    HW184759  13.571   1.992   9.963
27642SOL    HW284760  13.456   1.895   9.965
27643SOL     OW84761   6.148  13.627   8.840
27643SOL    HW184762   6.241  13.632   8.818
27643SOL    HW284763   6.131  13.533   8.846
27644SOL     OW84764  11.865  10.808  14.046
27644SOL    HW184765  11.917  10.743  13.999
27644SOL    HW284766  11.816  10.757  14.111
27645SOL     OW84767   7.114   0.707   5.119
27645SOL    HW184768   7.124   0.667   5.032
27645SOL    HW284769   7.029   0.751   5.115
27646SOL     OW84770   3.888   4.408   6.676
27646SOL    HW184771   3.818   4.446   6.729
27646SOL    HW284772   3.928   4.343   6.733
27647SOL     OW84773  11.146   6.763   0.490
27647SOL    HW184774  11.189   6.802   0.566
27647SOL    HW284775  11.057   6.742   0.520
27648SOL     OW84776   4.326  13.478  13.331
27648SOL    HW184777   4.310  13.452  13.422
27648SOL    HW284778   4.283  13.563  13.322
27649SOL     OW84779   0.393  14.339  14.400
27649SOL    HW184780   0.414  14.294  14.318
27649SOL    HW284781   0.347  14.419  14.371
27650SOL     OW84782   7.920   5.913  13.668
27650SOL    HW184783   7.986   5.855  13.630
27650SOL    HW284784   7.911   5.883  13.758
27651SOL     OW84785  12.951   6.390  13.197
27651SOL    HW184786  13.003   6.458  13.240
27651SOL    HW284787  13.012   6.350  13.135
27652SOL     OW84788   8.856  14.748   7.686
27652SOL    HW184789   8.835  14.836   7.653
27652SOL    HW284790   8.787  14.729   7.748
27653SOL     OW84791   7.382   8.573   9.129
27653SOL    HW184792   7.341   8.488   9.112
27653SOL    HW284793   7.425   8.595   9.046
27654SOL     OW84794  12.779   4.053   2.180
27654SOL    HW184795  12.700   4.102   2.203
27654SOL    HW284796  12.752   3.995   2.109
27655SOL     OW84797  11.141  13.555   4.970
27655SOL    HW184798  11.167  13.486   5.030
27655SOL    HW284799  11.108  13.625   5.026
27656SOL     OW84800   2.003   4.239   8.564
27656SOL    HW184801   2.069   4.242   8.495
27656SOL    HW284802   2.053   4.232   8.645
27657SOL     OW84803   9.544   5.446   6.498
27657SOL    HW184804   9.560   5.487   6.583
27657SOL    HW284805   9.603   5.371   6.496
27658SOL     OW84806   1.622   9.799   2.025
27658SOL    HW184807   1.541   9.770   2.066
27658SOL    HW284808   1.688   9.738   2.058
27659SOL     OW84809  12.556  12.919  13.855
27659SOL    HW184810  12.503  12.946  13.780
27659SOL    HW284811  12.633  12.878  13.816
27660SOL     OW84812   7.715   2.734  10.861
27660SOL    HW184813   7.637   2.709  10.911
27660SOL    HW284814   7.775   2.769  10.927
27661SOL     OW84815  14.103  11.570   1.853
27661SOL    HW184816  14.154  11.489   1.858
27661SOL    HW284817  14.156  11.630   1.801
27662SOL     OW84818  12.733   2.121  12.112
27662SOL    HW184819  12.652   2.097  12.157
27662SOL    HW284820  12.710   2.198  12.060
27663SOL     OW84821   2.022   3.141   0.475
27663SOL    HW184822   2.004   3.067   0.532
27663SOL    HW284823   1.963   3.210   0.505
27664SOL     OW84824   9.775  11.455   7.321
27664SOL    HW184825   9.764  11.495   7.235
27664SOL    HW284826   9.868  11.465   7.341
27665SOL     OW84827   4.563   8.328   0.072
27665SOL    HW184828   4.652   8.359   0.052
27665SOL    HW284829   4.507   8.375   0.011
27666SOL     OW84830  10.862  11.052  12.058
27666SOL    HW184831  10.769  11.030  12.060
27666SOL    HW284832  10.897  11.002  11.984
27667SOL     OW84833   8.231   1.866   0.950
27667SOL    HW184834   8.217   1.854   0.857
27667SOL    HW284835   8.164   1.813   0.992
27668SOL     OW84836   7.512   1.640   0.388
27668SOL    HW184837   7.458   1.561   0.397
27668SOL    HW284838   7.582   1.629   0.452
27669SOL     OW84839  14.680   1.890  14.776
27669SOL    HW184840  14.694   1.870  14.868
27669SOL    HW284841  14.638   1.811  14.740
27670SOL     OW84842   3.572   9.730  11.861
27670SOL    HW184843   3.541   9.694  11.778
27670SOL    HW284844   3.630   9.802  11.836
27671SOL     OW84845  11.036   6.023   5.787
27671SOL    HW184846  10.965   6.035   5.851
27671SOL    HW284847  11.092   6.100   5.799
27672SOL     OW84848   9.226   7.516   2.916
27672SOL    HW184849   9.148   7.466   2.939
27672SOL    HW284850   9.243   7.571   2.993
27673SOL     OW84851   7.829  11.164  11.558
27673SOL    HW184852   7.739  11.134  11.549
27673SOL    HW284853   7.877  11.086  11.586
27674SOL     OW84854   1.447  11.410   7.975
27674SOL    HW184855   1.534  11.438   7.946
27674SOL    HW284856   1.457  11.315   7.989
27675SOL     OW84857   8.045  13.185   9.769
27675SOL    HW184858   8.005  13.101   9.793
27675SOL    HW284859   8.082  13.170   9.682
27676SOL     OW84860   0.008   4.458   9.790
27676SOL    HW184861   0.033   4.389   9.852
27676SOL    HW284862  14.870   4.412   9.708
27677SOL     OW84863   9.531   6.152   0.446
27677SOL    HW184864   9.441   6.165   0.415
27677SOL    HW284865   9.580   6.127   0.367
27678SOL     OW84866   5.314   5.158   9.557
27678SOL    HW184867   5.309   5.156   9.653
27678SOL    HW284868   5.340   5.069   9.533
27679SOL     OW84869  10.898   7.120   0.277
27679SOL    HW184870  10.827   7.067   0.241
27679SOL    HW284871  10.976   7.091   0.229
27680SOL     OW84872   1.313  11.027   4.954
27680SOL    HW184873   1.342  11.035   5.045
27680SOL    HW284874   1.301  11.117   4.925
27681SOL     OW84875  12.944   4.965  14.480
27681SOL    HW184876  12.885   4.900  14.518
27681SOL    HW284877  13.013   4.977  14.545
27682SOL     OW84878  13.528  13.208   4.214
27682SOL    HW184879  13.466  13.185   4.283
27682SOL    HW284880  13.614  13.201   4.257
27683SOL     OW84881  14.687   9.201   4.404
27683SOL    HW184882  14.659   9.166   4.489
27683SOL    HW284883  14.698   9.295   4.419
27684SOL     OW84884   9.662   0.361  10.353
27684SOL    HW184885   9.631   0.312  10.276
27684SOL    HW284886   9.741   0.314  10.380
27685SOL     OW84887   8.437   0.843   1.265
27685SOL    HW184888   8.350   0.883   1.261
27685SOL    HW284889   8.440   0.800   1.350
27686SOL     OW84890   9.389   5.854  11.218
27686SOL    HW184891   9.384   5.922  11.287
27686SOL    HW284892   9.481   5.827  11.218
27687SOL     OW84893   4.834  11.136  10.232
27687SOL    HW184894   4.788  11.199  10.176
27687SOL    HW284895   4.778  11.127  10.310
27688SOL     OW84896   0.899   6.072   0.344
27688SOL    HW184897   0.977   6.027   0.313
27688SOL    HW284898   0.932   6.151   0.387
27689SOL     OW84899   7.323   9.702  10.566
27689SOL    HW184900   7.390   9.642  10.534
27689SOL    HW284901   7.314   9.768  10.497
27690SOL     OW84902  11.310   8.090  11.241
27690SOL    HW184903  11.260   8.126  11.315
27690SOL    HW284904  11.258   8.111  11.164
27691SOL     OW84905   6.682   7.957  11.334
27691SOL    HW184906   6.722   8.016  11.270
27691SOL    HW284907   6.691   7.870  11.295
27692SOL     OW84908  13.803   6.138  10.331
27692SOL    HW184909  13.893   6.148  10.362
27692SOL    HW284910  13.785   6.220  10.285
27693SOL     OW84911   2.837   6.395  10.535
27693SOL    HW184912   2.864   6.306  10.558
27693SOL    HW284913   2.870   6.408  10.446
27694SOL     OW84914   6.862  11.582   6.568
27694SOL    HW184915   6.908  11.614   6.645
27694SOL    HW284916   6.910  11.504   6.541
27695SOL     OW84917   4.139  14.349   8.040
27695SOL    HW184918   4.113  14.440   8.051
27695SOL    HW284919   4.107  14.324   7.954
27696SOL     OW84920   1.102   1.316   4.855
27696SOL    HW184921   1.122   1.228   4.887
27696SOL    HW284922   1.019   1.306   4.808
27697SOL     OW84923   6.687   6.486   6.518
27697SOL    HW184924   6.689   6.395   6.488
27697SOL    HW284925   6.626   6.487   6.591
27698SOL     OW84926   0.495   8.319   4.534
27698SOL    HW184927   0.555   8.367   4.477
27698SOL    HW284928   0.411   8.364   4.523
27699SOL     OW84929   5.727   1.507  13.548
27699SOL    HW184930   5.741   1.575  13.614
27699SOL    HW284931   5.691   1.433  13.596
27700SOL     OW84932  12.708   0.610   0.265
27700SOL    HW184933  12.619   0.621   0.299
27700SOL    HW284934  12.746   0.698   0.269
27701SOL     OW84935   6.589  10.689   4.993
27701SOL    HW184936   6.548  10.604   4.977
27701SOL    HW284937   6.517  10.745   5.022
27702SOL     OW84938   0.058   2.126   6.271
27702SOL    HW184939   0.152   2.144   6.282
27702SOL    HW284940   0.026   2.111   6.360
27703SOL     OW84941   3.921  10.521   9.917
27703SOL    HW184942   3.932  10.548   9.826
27703SOL    HW284943   4.004  10.543   9.959
27704SOL     OW84944  11.688  12.964   8.696
27704SOL    HW184945  11.736  13.046   8.687
27704SOL    HW284946  11.679  12.951   8.790
27705SOL     OW84947   1.727   1.912   7.278
27705SOL    HW184948   1.742   1.902   7.372
27705SOL    HW284949   1.768   1.996   7.257
27706SOL     OW84950  11.909   1.890   6.476
27706SOL    HW184951  11.833   1.917   6.425
27706SOL    HW284952  11.876   1.883   6.566
27707SOL     OW84953   2.081   9.692   3.156
27707SOL    HW184954   2.083   9.781   3.191
27707SOL    HW284955   2.046   9.638   3.227
27708SOL     OW84956  13.511  12.929   7.260
27708SOL    HW184957  13.423  12.966   7.259
27708SOL    HW284958  13.496  12.834   7.261
27709SOL     OW84959  10.858   1.408   7.943
27709SOL    HW184960  10.888   1.402   7.852
27709SOL    HW284961  10.764   1.421   7.937
27710SOL     OW84962  10.364   9.426   6.431
27710SOL    HW184963  10.342   9.333   6.439
27710SOL    HW284964  10.401   9.434   6.343
27711SOL     OW84965   6.955  12.313   1.206
27711SOL    HW184966   7.046  12.284   1.211
27711SOL    HW284967   6.903  12.232   1.207
27712SOL     OW84968  10.332   9.070   8.542
27712SOL    HW184969  10.338   8.982   8.577
27712SOL    HW284970  10.325   9.058   8.447
27713SOL     OW84971  14.577   1.982   8.556
27713SOL    HW184972  14.497   2.032   8.570
27713SOL    HW284973  14.549   1.891   8.558
27714SOL     OW84974   8.642   6.728  13.670
27714SOL    HW184975   8.693   6.653  13.701
27714SOL    HW284976   8.562   6.725  13.722
27715SOL     OW84977  12.977  13.241   2.407
27715SOL    HW184978  12.941  13.270   2.323
27715SOL    HW284979  12.954  13.148   2.411
27716SOL     OW84980   8.140   6.731   2.091
27716SOL    HW184981   8.091   6.660   2.132
27716SOL    HW284982   8.119   6.725   1.998
27717SOL     OW84983   8.387  14.641   2.275
27717SOL    HW184984   8.348  14.584   2.341
27717SOL    HW284985   8.313  14.672   2.224
27718SOL     OW84986  13.945   4.875   9.752
27718SOL    HW184987  13.995   4.954   9.768
27718SOL    HW284988  13.903   4.889   9.667
27719SOL     OW84989  13.213   4.003  10.596
27719SOL    HW184990  13.274   3.943  10.553
27719SOL    HW284991  13.231   3.994  10.689
27720SOL     OW84992   1.643   4.390   5.206
27720SOL    HW184993   1.710   4.365   5.142
27720SOL    HW284994   1.562   4.354   5.170
27721SOL     OW84995   1.026   3.109  14.397
27721SOL    HW184996   0.973   3.097  14.318
27721SOL    HW284997   0.977   3.172  14.450
27722SOL     OW84998   8.831  13.871  14.208
27722SOL    HW184999   8.765  13.804  14.190
27722SOL    HW285000   8.834  13.876  14.304
27723SOL     OW85001   0.595   7.409   6.728
27723SOL    HW185002   0.565   7.488   6.774
27723SOL    HW285003   0.609   7.438   6.638
27724SOL     OW85004   8.512   3.733   6.097
27724SOL    HW185005   8.467   3.674   6.037
27724SOL    HW285006   8.531   3.679   6.174
27725SOL     OW85007   5.192   1.241   8.216
27725SOL    HW185008   5.177   1.240   8.122
27725SOL    HW285009   5.280   1.203   8.227
27726SOL     OW85010   7.781  10.487   1.329
27726SOL    HW185011   7.793  10.557   1.266
27726SOL    HW285012   7.737  10.418   1.279
27727SOL     OW85013   3.724   0.457   5.014
27727SOL    HW185014   3.633   0.436   4.993
27727SOL    HW285015   3.747   0.526   4.952
27728SOL     OW85016  10.457   2.307   5.472
27728SOL    HW185017  10.487   2.375   5.533
27728SOL    HW285018  10.410   2.245   5.528
27729SOL     OW85019   4.764   7.462   9.456
27729SOL    HW185020   4.830   7.496   9.395
27729SOL    HW285021   4.797   7.376   9.481
27730SOL     OW85022  13.076   5.497   2.807
27730SOL    HW185023  13.126   5.481   2.727
27730SOL    HW285024  13.099   5.586   2.833
27731SOL     OW85025   2.692   1.078   1.908
27731SOL    HW185026   2.743   1.152   1.941
27731SOL    HW285027   2.759   1.015   1.879
27732SOL     OW85028  12.495   4.125  13.628
27732SOL    HW185029  12.539   4.046  13.594
27732SOL    HW285030  12.532   4.136  13.716
27733SOL     OW85031   0.160  13.759   5.065
27733SOL    HW185032   0.125  13.750   4.976
27733SOL    HW285033   0.132  13.679   5.110
27734SOL     OW85034   2.960   0.598   7.058
27734SOL    HW185035   2.961   0.505   7.083
27734SOL    HW285036   2.987   0.644   7.138
27735SOL     OW85037  12.741   3.942  10.916
27735SOL    HW185038  12.734   3.985  11.001
27735SOL    HW285039  12.652   3.939  10.883
27736SOL     OW85040   3.847   4.498   3.045
27736SOL    HW185041   3.873   4.467   3.132
27736SOL    HW285042   3.844   4.593   3.054
27737SOL     OW85043   2.805   9.732   5.923
27737SOL    HW185044   2.753   9.718   5.844
27737SOL    HW285045   2.846   9.647   5.940
27738SOL     OW85046   1.047   1.128   2.778
27738SOL    HW185047   1.049   1.190   2.850
27738SOL    HW285048   0.954   1.116   2.759
27739SOL     OW85049  12.549   8.888  14.867
27739SOL    HW185050  12.571   8.838  14.789
27739SOL    HW285051  12.456   8.910  14.856
27740SOL     OW85052  12.739   2.420   3.672
27740SOL    HW185053  12.729   2.352   3.606
27740SOL    HW285054  12.689   2.389   3.747
27741SOL     OW85055   5.035   5.891   1.120
27741SOL    HW185056   5.066   5.972   1.163
27741SOL    HW285057   4.970   5.856   1.180
27742SOL     OW85058   5.785   4.643  13.485
27742SOL    HW185059   5.808   4.552  13.466
27742SOL    HW285060   5.697   4.652  13.449
27743SOL     OW85061  10.920   5.133   0.267
27743SOL    HW185062  11.000   5.086   0.291
27743SOL    HW285063  10.851   5.067   0.268
27744SOL     OW85064   4.061   7.083  11.204
27744SOL    HW185065   4.050   7.039  11.119
27744SOL    HW285066   3.997   7.042  11.261
27745SOL     OW85067   9.804   3.135   1.048
27745SOL    HW185068   9.782   3.156   1.139
27745SOL    HW285069   9.722   3.100   1.012
27746SOL     OW85070   3.749   9.324  13.718
27746SOL    HW185071   3.688   9.323  13.644
27746SOL    HW285072   3.801   9.245  13.707
27747SOL     OW85073   8.157  12.600   5.913
27747SOL    HW185074   8.185  12.647   5.992
27747SOL    HW285075   8.097  12.533   5.945
27748SOL     OW85076   2.875  13.417   7.061
27748SOL    HW185077   2.841  13.360   7.130
27748SOL    HW285078   2.906  13.357   6.993
27749SOL     OW85079   9.543  12.485  14.499
27749SOL    HW185080   9.458  12.441  14.504
27749SOL    HW285081   9.606  12.413  14.506
27750SOL     OW85082   8.831   8.770  11.367
27750SOL    HW185083   8.739   8.774  11.340
27750SOL    HW285084   8.880   8.797  11.289
27751SOL     OW85085  13.394  10.328   6.833
27751SOL    HW185086  13.375  10.245   6.877
27751SOL    HW285087  13.399  10.306   6.740
27752SOL     OW85088  13.982  12.701   2.997
27752SOL    HW185089  13.983  12.738   3.085
27752SOL    HW285090  13.938  12.767   2.943
27753SOL     OW85091   5.638   5.656  10.153
27753SOL    HW185092   5.642   5.631  10.245
27753SOL    HW285093   5.549   5.633  10.126
27754SOL     OW85094  12.941  12.684   9.937
27754SOL    HW185095  12.936  12.612  10.000
27754SOL    HW285096  12.938  12.763   9.991
27755SOL     OW85097   0.319   8.287   0.326
27755SOL    HW185098   0.379   8.299   0.253
27755SOL    HW285099   0.235   8.319   0.294
27756SOL     OW85100   1.432   3.697   5.794
27756SOL    HW185101   1.338   3.681   5.788
27756SOL    HW285102   1.466   3.673   5.707
27757SOL     OW85103   8.962  10.598   4.213
27757SOL    HW185104   8.969  10.514   4.167
27757SOL    HW285105   8.870  10.605   4.237
27758SOL     OW85106   6.102  10.746   2.915
27758SOL    HW185107   6.091  10.669   2.972
27758SOL    HW285108   6.163  10.716   2.847
27759SOL     OW85109  11.786  11.164  13.368
27759SOL    HW185110  11.862  11.186  13.314
27759SOL    HW285111  11.817  11.096  13.427
27760SOL     OW85112   7.481  14.313   0.653
27760SOL    HW185113   7.488  14.269   0.568
27760SOL    HW285114   7.463  14.405   0.631
27761SOL     OW85115  11.930  10.442   2.343
27761SOL    HW185116  11.914  10.408   2.431
27761SOL    HW285117  12.026  10.444   2.336
27762SOL     OW85118  13.313  12.472   4.522
27762SOL    HW185119  13.373  12.465   4.596
27762SOL    HW285120  13.361  12.434   4.448
27763SOL     OW85121   1.484  13.621  12.864
27763SOL    HW185122   1.542  13.695  12.845
27763SOL    HW285123   1.502  13.599  12.955
27764SOL     OW85124   5.741  12.700  12.485
27764SOL    HW185125   5.797  12.732  12.555
27764SOL    HW285126   5.653  12.730  12.509
27765SOL     OW85127   0.977   8.945  12.345
27765SOL    HW185128   1.050   8.953  12.408
27765SOL    HW285129   0.990   8.859  12.305
27766SOL     OW85130   4.447   1.098  10.315
27766SOL    HW185131   4.530   1.068  10.351
27766SOL    HW285132   4.400   1.134  10.391
27767SOL     OW85133  10.845   0.055   7.867
27767SOL    HW185134  10.940   0.044   7.874
27767SOL    HW285135  10.811   0.019   7.949
27768SOL     OW85136   2.175   9.327   3.326
27768SOL    HW185137   2.260   9.371   3.339
27768SOL    HW285138   2.197   9.234   3.320
27769SOL     OW85139   2.251   6.946   7.157
27769SOL    HW185140   2.176   6.940   7.098
27769SOL    HW285141   2.236   7.027   7.207
27770SOL     OW85142   1.403   3.165   6.368
27770SOL    HW185143   1.428   3.082   6.327
27770SOL    HW285144   1.338   3.139   6.434
27771SOL     OW85145   1.035  12.472   1.099
27771SOL    HW185146   1.109  12.482   1.159
27771SOL    HW285147   1.073  12.481   1.012
27772SOL     OW85148   0.065   6.974   5.597
27772SOL    HW185149   0.068   7.062   5.561
27772SOL    HW285150   0.078   6.985   5.691
27773SOL     OW85151   8.940  13.746   4.320
27773SOL    HW185152   8.994  13.719   4.245
27773SOL    HW285153   8.994  13.810   4.366
27774SOL     OW85154  10.017  10.394   8.893
27774SOL    HW185155  10.052  10.313   8.855
27774SOL    HW285156  10.050  10.463   8.835
27775SOL     OW85157   1.991   9.111   1.379
27775SOL    HW185158   2.003   9.179   1.312
27775SOL    HW285159   1.941   9.043   1.336
27776SOL     OW85160  13.995   3.205   2.561
27776SOL    HW185161  13.903   3.187   2.543
27776SOL    HW285162  14.035   3.214   2.474
27777SOL     OW85163  14.039  13.854   3.548
27777SOL    HW185164  14.115  13.808   3.582
27777SOL    HW285165  14.039  13.836   3.454
27778SOL     OW85166   8.948   7.901  13.893
27778SOL    HW185167   8.944   7.932  13.802
27778SOL    HW285168   8.863   7.859  13.908
27779SOL     OW85169   2.366  12.198  12.940
27779SOL    HW185170   2.431  12.132  12.918
27779SOL    HW285171   2.416  12.279  12.949
27780SOL     OW85172  11.867   4.151   7.762
27780SOL    HW185173  11.868   4.135   7.856
27780SOL    HW285174  11.880   4.065   7.722
27781SOL     OW85175   6.802   1.054   4.087
27781SOL    HW185176   6.751   1.114   4.141
27781SOL    HW285177   6.872   1.109   4.050
27782SOL     OW85178   9.324   0.161   4.456
27782SOL    HW185179   9.301   0.076   4.418
27782SOL    HW285180   9.241   0.195   4.489
27783SOL     OW85181   9.200   8.095   0.513
27783SOL    HW185182   9.219   8.121   0.423
27783SOL    HW285183   9.106   8.112   0.524
27784SOL     OW85184   7.840  10.246   8.168
27784SOL    HW185185   7.763  10.223   8.116
27784SOL    HW285186   7.912  10.248   8.106
27785SOL     OW85187  14.514  13.342   9.605
27785SOL    HW185188  14.504  13.431   9.639
27785SOL    HW285189  14.560  13.353   9.522
27786SOL     OW85190   8.177   3.110   6.921
27786SOL    HW185191   8.156   3.202   6.939
27786SOL    HW285192   8.227   3.081   6.997
27787SOL     OW85193   7.412  13.640   8.796
27787SOL    HW185194   7.385  13.727   8.765
27787SOL    HW285195   7.383  13.636   8.887
27788SOL     OW85196   4.684   6.577  14.375
27788SOL    HW185197   4.696   6.649  14.436
27788SOL    HW285198   4.636   6.615  14.301
27789SOL     OW85199   6.414   8.413   0.461
27789SOL    HW185200   6.429   8.328   0.418
27789SOL    HW285201   6.488   8.423   0.521
27790SOL     OW85202   0.895   5.776   8.564
27790SOL    HW185203   0.976   5.825   8.556
27790SOL    HW285204   0.826   5.843   8.570
27791SOL     OW85205   8.635   8.809  10.801
27791SOL    HW185206   8.562   8.774  10.851
27791SOL    HW285207   8.713   8.768  10.839
27792SOL     OW85208  12.433   1.685   0.343
27792SOL    HW185209  12.451   1.733   0.262
27792SOL    HW285210  12.337   1.688   0.351
27793SOL     OW85211   8.591   4.454   4.432
27793SOL    HW185212   8.657   4.500   4.484
27793SOL    HW285213   8.642   4.402   4.369
27794SOL     OW85214   6.214  11.518   5.512
27794SOL    HW185215   6.128  11.524   5.471
27794SOL    HW285216   6.226  11.424   5.529
27795SOL     OW85217  11.327   1.521   4.206
27795SOL    HW185218  11.234   1.501   4.221
27795SOL    HW285219  11.344   1.490   4.117
27796SOL     OW85220   9.716   9.567  11.855
27796SOL    HW185221   9.675   9.653  11.853
27796SOL    HW285222   9.685   9.527  11.935
27797SOL     OW85223  12.386   2.829   2.398
27797SOL    HW185224  12.321   2.802   2.334
27797SOL    HW285225  12.420   2.747   2.434
27798SOL     OW85226   8.799  10.328   7.920
27798SOL    HW185227   8.776  10.380   7.843
27798SOL    HW285228   8.879  10.368   7.954
27799SOL     OW85229   3.366   1.293   2.819
27799SOL    HW185230   3.323   1.235   2.881
27799SOL    HW285231   3.460   1.282   2.838
27800SOL     OW85232   6.969   8.812   0.652
27800SOL    HW185233   6.960   8.883   0.716
27800SOL    HW285234   7.026   8.848   0.584
27801SOL     OW85235   6.275   6.012   7.056
27801SOL    HW185236   6.205   6.072   7.033
27801SOL    HW285237   6.247   5.928   7.021
27802SOL     OW85238  12.322   6.284  10.189
27802SOL    HW185239  12.318   6.219  10.120
27802SOL    HW285240  12.397   6.258  10.242
27803SOL     OW85241   1.267  10.289   3.775
27803SOL    HW185242   1.330  10.254   3.838
27803SOL    HW285243   1.320  10.316   3.700
27804SOL     OW85244   9.205   7.590   8.256
27804SOL    HW185245   9.147   7.648   8.305
27804SOL    HW285246   9.269   7.648   8.215
27805SOL     OW85247  12.841   7.227  11.123
27805SOL    HW185248  12.929   7.261  11.136
27805SOL    HW285249  12.853   7.136  11.096
27806SOL     OW85250   1.375   1.622   3.876
27806SOL    HW185251   1.388   1.564   3.952
27806SOL    HW285252   1.363   1.561   3.802
27807SOL     OW85253  11.926   0.937   4.351
27807SOL    HW185254  11.945   0.856   4.303
27807SOL    HW285255  11.844   0.969   4.312
27808SOL     OW85256  11.518  11.699  12.895
27808SOL    HW185257  11.517  11.790  12.925
27808SOL    HW285258  11.494  11.705  12.802
27809SOL     OW85259   5.044  13.386   3.456
27809SOL    HW185260   5.091  13.352   3.532
27809SOL    HW285261   5.086  13.345   3.381
27810SOL     OW85262  10.116   2.430   8.942
27810SOL    HW185263  10.210   2.434   8.958
27810SOL    HW285264  10.107   2.373   8.865
27811SOL     OW85265  10.401   2.812   6.328
27811SOL    HW185266  10.407   2.730   6.280
27811SOL    HW285267  10.490   2.848   6.325
27812SOL     OW85268  14.328   3.274  12.901
27812SOL    HW185269  14.352   3.241  12.987
27812SOL    HW285270  14.233   3.286  12.904
27813SOL     OW85271   6.285   5.079   1.806
27813SOL    HW185272   6.200   5.053   1.843
27813SOL    HW285273   6.347   5.071   1.878
27814SOL     OW85274   8.244   8.348  13.734
27814SOL    HW185275   8.195   8.273  13.767
27814SOL    HW285276   8.268   8.399  13.812
27815SOL     OW85277  11.672   7.605   8.778
27815SOL    HW185278  11.757   7.646   8.792
27815SOL    HW285279  11.691   7.512   8.768
27816SOL     OW85280   0.768   3.115  11.087
27816SOL    HW185281   0.770   3.101  11.181
27816SOL    HW285282   0.814   3.039  11.051
27817SOL     OW85283   7.947   3.159   0.714
27817SOL    HW185284   7.896   3.164   0.633
27817SOL    HW285285   7.960   3.065   0.727
27818SOL     OW85286   2.353   7.752   3.803
27818SOL    HW185287   2.438   7.712   3.819
27818SOL    HW285288   2.348   7.763   3.708
27819SOL     OW85289  10.448   0.134  12.197
27819SOL    HW185290  10.387   0.081  12.249
27819SOL    HW285291  10.409   0.136  12.109
27820SOL     OW85292  13.778  10.368   6.402
27820SOL    HW185293  13.715  10.435   6.429
27820SOL    HW285294  13.856  10.386   6.456
27821SOL     OW85295  12.093   5.856  13.101
27821SOL    HW185296  12.112   5.790  13.034
27821SOL    HW285297  11.999   5.871  13.095
27822SOL     OW85298   3.575   9.883  14.016
27822SOL    HW185299   3.557   9.803  13.967
27822SOL    HW285300   3.579   9.952  13.950
27823SOL     OW85301  13.869  12.868   7.251
27823SOL    HW185302  13.932  12.845   7.320
27823SOL    HW285303  13.859  12.963   7.258
27824SOL     OW85304  13.752  14.461  10.413
27824SOL    HW185305  13.658  14.461  10.432
27824SOL    HW285306  13.792  14.425  10.492
27825SOL     OW85307  13.863  13.397  12.375
27825SOL    HW185308  13.907  13.317  12.404
27825SOL    HW285309  13.918  13.468  12.409
27826SOL     OW85310  13.590   9.852   9.775
27826SOL    HW185311  13.639   9.816   9.849
27826SOL    HW285312  13.498   9.834   9.796
27827SOL     OW85313   1.370   2.018   4.540
27827SOL    HW185314   1.349   1.952   4.606
27827SOL    HW285315   1.402   2.093   4.590
27828SOL     OW85316   5.020   7.415  10.990
27828SOL    HW185317   5.113   7.431  11.003
27828SOL    HW285318   4.998   7.462  10.910
27829SOL     OW85319  10.568  10.182  13.952
27829SOL    HW185320  10.625  10.220  14.019
27829SOL    HW285321  10.551  10.254  13.890
27830SOL     OW85322  13.220  10.528   2.863
27830SOL    HW185323  13.305  10.570   2.873
27830SOL    HW285324  13.204  10.484   2.946
27831SOL     OW85325   0.682   4.343   0.112
27831SOL    HW185326   0.650   4.424   0.153
27831SOL    HW285327   0.618   4.325   0.043
27832SOL     OW85328   4.759   2.974   7.924
27832SOL    HW185329   4.767   3.022   7.842
27832SOL    HW285330   4.734   2.885   7.899
27833SOL     OW85331   8.004   8.411   5.382
27833SOL    HW185332   8.033   8.426   5.292
27833SOL    HW285333   7.978   8.497   5.413
27834SOL     OW85334  11.536   4.114   9.222
27834SOL    HW185335  11.595   4.150   9.288
27834SOL    HW285336  11.558   4.160   9.141
27835SOL     OW85337   8.624   1.647  11.357
27835SOL    HW185338   8.627   1.553  11.376
27835SOL    HW285339   8.657   1.689  11.436
27836SOL     OW85340   3.715   6.096   8.429
27836SOL    HW185341   3.711   6.190   8.413
27836SOL    HW285342   3.795   6.083   8.481
27837SOL     OW85343   0.832   1.157   4.950
27837SOL    HW185344   0.868   1.068   4.946
27837SOL    HW285345   0.821   1.182   4.858
27838SOL     OW85346   9.241   7.517   9.282
27838SOL    HW185347   9.149   7.525   9.305
27838SOL    HW285348   9.288   7.552   9.358
27839SOL     OW85349   8.180   6.435  11.240
27839SOL    HW185350   8.216   6.352  11.210
27839SOL    HW285351   8.209   6.444  11.331
27840SOL     OW85352   9.227   7.362  11.971
27840SOL    HW185353   9.225   7.346  12.065
27840SOL    HW285354   9.228   7.458  11.962
27841SOL     OW85355   8.122   9.628  10.883
27841SOL    HW185356   8.133   9.714  10.844
27841SOL    HW285357   8.094   9.646  10.973
27842SOL     OW85358   3.201   5.019   5.563
27842SOL    HW185359   3.280   5.020   5.617
27842SOL    HW285360   3.178   5.111   5.552
27843SOL     OW85361   9.477  10.492   4.673
27843SOL    HW185362   9.405  10.442   4.633
27843SOL    HW285363   9.440  10.522   4.757
27844SOL     OW85364   4.710  14.310   4.201
27844SOL    HW185365   4.730  14.237   4.260
27844SOL    HW285366   4.718  14.272   4.113
27845SOL     OW85367   0.077  12.272   7.847
27845SOL    HW185368   0.096  12.297   7.938
27845SOL    HW285369   0.094  12.177   7.845
27846SOL     OW85370   7.193   2.712  11.613
27846SOL    HW185371   7.272   2.695  11.664
27846SOL    HW285372   7.198   2.651  11.539
27847SOL     OW85373   1.221  10.574  14.708
27847SOL    HW185374   1.131  10.566  14.739
27847SOL    HW285375   1.268  10.506  14.756
27848SOL     OW85376   2.314   5.118   3.382
27848SOL    HW185377   2.407   5.110   3.358
27848SOL    HW285378   2.295   5.211   3.371
27849SOL     OW85379  13.903   5.257  10.224
27849SOL    HW185380  13.949   5.189  10.176
27849SOL    HW285381  13.909   5.334  10.168
27850SOL     OW85382   0.653   1.312   2.513
27850SOL    HW185383   0.695   1.252   2.575
27850SOL    HW285384   0.624   1.386   2.566
27851SOL     OW85385   4.263  10.408   7.677
27851SOL    HW185386   4.279  10.401   7.583
27851SOL    HW285387   4.272  10.501   7.696
27852SOL     OW85388  14.669   6.907   5.504
27852SOL    HW185389  14.749   6.913   5.556
27852SOL    HW285390  14.604   6.870   5.564
27853SOL     OW85391   4.552   1.171  13.058
27853SOL    HW185392   4.560   1.215  13.143
27853SOL    HW285393   4.513   1.087  13.079
27854SOL     OW85394   7.708  12.713   8.702
27854SOL    HW185395   7.763  12.741   8.630
27854SOL    HW285396   7.651  12.646   8.664
27855SOL     OW85397   3.784   5.349  13.533
27855SOL    HW185398   3.739   5.414  13.587
27855SOL    HW285399   3.718   5.320  13.471
27856SOL     OW85400  11.703  12.481  12.811
27856SOL    HW185401  11.745  12.567  12.811
27856SOL    HW285402  11.746  12.433  12.881
27857SOL     OW85403   3.479  11.371  11.315
27857SOL    HW185404   3.398  11.368  11.263
27857SOL    HW285405   3.529  11.296  11.284
27858SOL     OW85406   5.018   7.343   2.455
27858SOL    HW185407   5.059   7.257   2.465
27858SOL    HW285408   5.007   7.353   2.360
27859SOL     OW85409   2.916   6.810  14.481
27859SOL    HW185410   2.866   6.863  14.544
27859SOL    HW285411   3.000   6.855  14.474
27860SOL     OW85412   1.516  13.764   8.629
27860SOL    HW185413   1.497  13.832   8.564
27860SOL    HW285414   1.435  13.756   8.680
27861SOL     OW85415   7.206   8.827   2.740
27861SOL    HW185416   7.255   8.856   2.663
27861SOL    HW285417   7.115   8.846   2.718
27862SOL     OW85418   6.750   3.176   0.340
27862SOL    HW185419   6.790   3.260   0.318
27862SOL    HW285420   6.770   3.164   0.433
27863SOL     OW85421   9.975   0.922  10.841
27863SOL    HW185422  10.049   0.953  10.894
27863SOL    HW285423   9.969   0.986  10.770
27864SOL     OW85424   7.406   6.915  10.313
27864SOL    HW185425   7.355   6.836  10.328
27864SOL    HW285426   7.454   6.929  10.394
27865SOL     OW85427   6.800  11.479   6.954
27865SOL    HW185428   6.765  11.562   6.921
27865SOL    HW285429   6.865  11.505   7.019
27866SOL     OW85430   5.455   7.843  11.079
27866SOL    HW185431   5.489   7.921  11.123
27866SOL    HW285432   5.532   7.800  11.042
27867SOL     OW85433   9.905  12.525   7.128
27867SOL    HW185434   9.924  12.436   7.099
27867SOL    HW285435   9.869  12.514   7.216
27868SOL     OW85436   2.473   7.207   7.323
27868SOL    HW185437   2.541   7.244   7.380
27868SOL    HW285438   2.412   7.164   7.382
27869SOL     OW85439   6.591   4.692  12.719
27869SOL    HW185440   6.674   4.740  12.714
27869SOL    HW285441   6.596   4.645  12.802
27870SOL     OW85442  13.803   5.475  12.804
27870SOL    HW185443  13.831   5.553  12.755
27870SOL    HW285444  13.780   5.508  12.891
27871SOL     OW85445   4.025  11.595   9.807
27871SOL    HW185446   3.981  11.674   9.837
27871SOL    HW285447   4.116  11.605   9.835
27872SOL     OW85448  11.232  13.342   6.729
27872SOL    HW185449  11.245  13.397   6.652
27872SOL    HW285450  11.143  13.308   6.720
27873SOL     OW85451  10.042   8.859   7.336
27873SOL    HW185452  10.081   8.878   7.251
27873SOL    HW285453   9.969   8.801   7.316
27874SOL     OW85454   9.446   3.838   0.895
27874SOL    HW185455   9.480   3.901   0.831
27874SOL    HW285456   9.508   3.841   0.967
27875SOL     OW85457   2.065  13.398   2.866
27875SOL    HW185458   2.054  13.475   2.921
27875SOL    HW285459   2.126  13.342   2.914
27876SOL     OW85460   8.007   3.693   8.109
27876SOL    HW185461   8.099   3.717   8.097
27876SOL    HW285462   7.959   3.775   8.098
27877SOL     OW85463   7.528   6.986   3.606
27877SOL    HW185464   7.597   6.943   3.555
27877SOL    HW285465   7.466   7.017   3.541
27878SOL     OW85466   9.561  14.343  13.655
27878SOL    HW185467   9.558  14.311  13.565
27878SOL    HW285468   9.650  14.377  13.666
27879SOL     OW85469  10.453  12.357   7.889
27879SOL    HW185470  10.407  12.408   7.956
27879SOL    HW285471  10.475  12.275   7.932
27880SOL     OW85472   3.574   5.575   8.753
27880SOL    HW185473   3.489   5.543   8.724
27880SOL    HW285474   3.571   5.570   8.849
27881SOL     OW85475   3.921  12.848   1.982
27881SOL    HW185476   3.978  12.816   2.053
27881SOL    HW285477   3.840  12.873   2.027
27882SOL     OW85478   2.052  12.561   0.629
27882SOL    HW185479   2.135  12.519   0.607
27882SOL    HW285480   2.034  12.533   0.719
27883SOL     OW85481   4.225   1.468   7.126
27883SOL    HW185482   4.228   1.478   7.221
27883SOL    HW285483   4.220   1.557   7.092
27884SOL     OW85484   9.938   0.067   9.889
27884SOL    HW185485   9.911   0.113   9.968
27884SOL    HW285486  10.019   0.022   9.915
27885SOL     OW85487   8.376  10.318   9.218
27885SOL    HW185488   8.305  10.342   9.159
27885SOL    HW285489   8.333  10.307   9.303
27886SOL     OW85490   4.157   9.711   6.458
27886SOL    HW185491   4.185   9.620   6.449
27886SOL    HW285492   4.108   9.729   6.378
27887SOL     OW85493   3.700   2.265   9.556
27887SOL    HW185494   3.608   2.263   9.582
27887SOL    HW285495   3.721   2.358   9.549
27888SOL     OW85496   1.625  11.804   0.429
27888SOL    HW185497   1.720  11.795   0.422
27888SOL    HW285498   1.595  11.718   0.457
27889SOL     OW85499  12.467   4.714   7.789
27889SOL    HW185500  12.387   4.693   7.838
27889SOL    HW285501  12.532   4.734   7.857
27890SOL     OW85502  12.940   0.456   0.254
27890SOL    HW185503  12.863   0.514   0.259
27890SOL    HW285504  13.010   0.513   0.221
27891SOL     OW85505   9.116   4.485   9.183
27891SOL    HW185506   9.027   4.448   9.187
27891SOL    HW285507   9.145   4.487   9.274
27892SOL     OW85508  14.079  14.214  13.601
27892SOL    HW185509  14.053  14.299  13.638
27892SOL    HW285510  14.172  14.206  13.623
27893SOL     OW85511  13.332  10.276   5.510
27893SOL    HW185512  13.305  10.270   5.602
27893SOL    HW285513  13.428  10.269   5.513
27894SOL     OW85514  11.920   1.530  11.101
27894SOL    HW185515  11.901   1.600  11.163
27894SOL    HW285516  11.844   1.472  11.106
27895SOL     OW85517  13.627  10.230   5.461
27895SOL    HW185518  13.635  10.317   5.500
27895SOL    HW285519  13.654  10.243   5.370
27896SOL     OW85520   9.067   5.956   1.236
27896SOL    HW185521   9.129   5.890   1.265
27896SOL    HW285522   9.080   5.961   1.141
27897SOL     OW85523   1.968  12.677   2.507
27897SOL    HW185524   1.980  12.661   2.414
27897SOL    HW285525   1.996  12.767   2.520
27898SOL     OW85526   3.800  10.260   6.811
27898SOL    HW185527   3.813  10.172   6.778
27898SOL    HW285528   3.722  10.254   6.867
27899SOL     OW85529   4.901   4.267  11.374
27899SOL    HW185530   4.972   4.329  11.358
27899SOL    HW285531   4.930   4.215  11.449
27900SOL     OW85532  10.664  14.646   2.080
27900SOL    HW185533  10.576  14.663   2.114
27900SOL    HW285534  10.650  14.591   2.003
27901SOL     OW85535  12.973   6.811  14.780
27901SOL    HW185536  12.905   6.868  14.814
27901SOL    HW285537  12.937   6.723  14.788
27902SOL     OW85538   9.496   2.686   1.527
27902SOL    HW185539   9.474   2.777   1.547
27902SOL    HW285540   9.592   2.686   1.520
27903SOL     OW85541  11.434  13.918   6.346
27903SOL    HW185542  11.427  13.996   6.401
27903SOL    HW285543  11.496  13.862   6.391
27904SOL     OW85544  10.286  14.649   9.136
27904SOL    HW185545  10.307  14.674   9.226
27904SOL    HW285546  10.191  14.637   9.135
27905SOL     OW85547   4.129  11.352   6.356
27905SOL    HW185548   4.198  11.289   6.375
27905SOL    HW285549   4.093  11.325   6.272
27906SOL     OW85550   2.720   6.485   0.887
27906SOL    HW185551   2.750   6.572   0.913
27906SOL    HW285552   2.639   6.502   0.839
27907SOL     OW85553   5.593  10.537   4.387
27907SOL    HW185554   5.670  10.588   4.361
27907SOL    HW285555   5.598  10.533   4.482
27908SOL     OW85556   1.857   3.089   3.147
27908SOL    HW185557   1.807   3.152   3.095
27908SOL    HW285558   1.798   3.063   3.217
27909SOL     OW85559  11.861   3.140   2.444
27909SOL    HW185560  11.785   3.137   2.386
27909SOL    HW285561  11.927   3.085   2.402
27910SOL     OW85562   9.517   9.106   3.405
27910SOL    HW185563   9.519   9.198   3.379
27910SOL    HW285564   9.576   9.101   3.480
27911SOL     OW85565   5.462   1.521   0.406
27911SOL    HW185566   5.424   1.433   0.398
27911SOL    HW285567   5.512   1.518   0.488
27912SOL     OW85568   1.928   3.670   9.452
27912SOL    HW185569   1.922   3.576   9.472
27912SOL    HW285570   1.887   3.712   9.528
27913SOL     OW85571   8.701  11.093   7.340
27913SOL    HW185572   8.632  11.026   7.349
27913SOL    HW285573   8.767  11.068   7.404
27914SOL     OW85574  13.124   3.144   2.948
27914SOL    HW185575  13.110   3.228   2.903
27914SOL    HW285576  13.201   3.160   3.003
27915SOL     OW85577  11.926   7.884   6.056
27915SOL    HW185578  11.949   7.971   6.089
27915SOL    HW285579  11.986   7.824   6.101
27916SOL     OW85580   5.762  14.027   2.407
27916SOL    HW185581   5.749  14.014   2.501
27916SOL    HW285582   5.825  13.960   2.382
27917SOL     OW85583   1.250   3.818   7.553
27917SOL    HW185584   1.164   3.798   7.515
27917SOL    HW285585   1.240   3.795   7.646
27918SOL     OW85586   7.307  11.738   1.637
27918SOL    HW185587   7.236  11.675   1.628
27918SOL    HW285588   7.361  11.704   1.708
27919SOL     OW85589  12.063  13.635   6.683
27919SOL    HW185590  12.113  13.666   6.758
27919SOL    HW285591  12.116  13.659   6.607
27920SOL     OW85592  13.566   0.123   6.979
27920SOL    HW185593  13.475   0.103   7.000
27920SOL    HW285594  13.616   0.093   7.055
27921SOL     OW85595  11.362   6.652   8.263
27921SOL    HW185596  11.319   6.568   8.248
27921SOL    HW285597  11.312   6.714   8.209
27922SOL     OW85598  11.231   0.925   7.260
27922SOL    HW185599  11.199   0.995   7.203
27922SOL    HW285600  11.227   0.846   7.206
27923SOL     OW85601   8.728   7.172  14.757
27923SOL    HW185602   8.646   7.164  14.806
27923SOL    HW285603   8.713   7.245  14.697
27924SOL     OW85604   7.556  14.657  11.706
27924SOL    HW185605   7.506  14.576  11.721
27924SOL    HW285606   7.610  14.638  11.629
27925SOL     OW85607   9.595   7.023   2.235
27925SOL    HW185608   9.553   7.105   2.260
27925SOL    HW285609   9.541   6.989   2.164
27926SOL     OW85610  12.683   3.453  11.836
27926SOL    HW185611  12.732   3.479  11.757
27926SOL    HW285612  12.719   3.368  11.859
27927SOL     OW85613   8.078   1.333   9.618
27927SOL    HW185614   8.101   1.422   9.591
27927SOL    HW285615   8.048   1.343   9.708
27928SOL     OW85616   9.198   6.480   5.779
27928SOL    HW185617   9.204   6.422   5.855
27928SOL    HW285618   9.238   6.431   5.708
27929SOL     OW85619   0.094  13.709   3.425
27929SOL    HW185620   0.159  13.666   3.481
27929SOL    HW285621   0.020  13.649   3.424
27930SOL     OW85622  13.486   9.337   7.710
27930SOL    HW185623  13.443   9.376   7.786
27930SOL    HW285624  13.426   9.269   7.681
27931SOL     OW85625   5.652  14.444   1.686
27931SOL    HW185626   5.667  14.475   1.775
27931SOL    HW285627   5.704  14.364   1.679
27932SOL     OW85628   6.330  10.028  14.266
27932SOL    HW185629   6.420  10.011  14.237
27932SOL    HW285630   6.282  10.047  14.185
27933SOL     OW85631  14.517  13.513   7.048
27933SOL    HW185632  14.451  13.459   7.005
27933SOL    HW285633  14.466  13.584   7.089
27934SOL     OW85634   3.793  13.818  12.806
27934SOL    HW185635   3.702  13.831  12.833
27934SOL    HW285636   3.844  13.835  12.885
27935SOL     OW85637  12.431   2.315  10.117
27935SOL    HW185638  12.416   2.276  10.030
27935SOL    HW285639  12.394   2.403  10.110
27936SOL     OW85640   3.670   3.974   7.135
27936SOL    HW185641   3.591   3.938   7.093
27936SOL    HW285642   3.687   4.055   7.087
27937SOL     OW85643   5.790  12.184  10.611
27937SOL    HW185644   5.738  12.257  10.645
27937SOL    HW285645   5.808  12.129  10.687
27938SOL     OW85646  13.056   8.679   0.790
27938SOL    HW185647  12.990   8.630   0.741
27938SOL    HW285648  13.020   8.767   0.797
27939SOL     OW85649   6.587  11.431   2.184
27939SOL    HW185650   6.610  11.499   2.247
27939SOL    HW285651   6.636  11.354   2.212
27940SOL     OW85652   8.916   5.593   6.264
27940SOL    HW185653   8.898   5.629   6.177
27940SOL    HW285654   8.845   5.530   6.279
27941SOL     OW85655   2.768   6.073   0.760
27941SOL    HW185656   2.771   6.044   0.851
27941SOL    HW285657   2.828   6.147   0.757
27942SOL     OW85658   9.129  14.341   0.805
27942SOL    HW185659   9.209  14.388   0.781
27942SOL    HW285660   9.118  14.359   0.898
27943SOL     OW85661  11.162  10.292   8.213
27943SOL    HW185662  11.143  10.371   8.163
27943SOL    HW285663  11.133  10.311   8.302
27944SOL     OW85664  10.406   0.826  10.947
27944SOL    HW185665  10.459   0.804  11.023
27944SOL    HW285666  10.360   0.745  10.925
27945SOL     OW85667  10.384   2.740   1.578
27945SOL    HW185668  10.423   2.813   1.531
27945SOL    HW285669  10.456   2.702   1.628
27946SOL     OW85670   1.473  13.438  11.239
27946SOL    HW185671   1.435  13.462  11.155
27946SOL    HW285672   1.474  13.342  11.238
27947SOL     OW85673   8.782  11.589   0.914
27947SOL    HW185674   8.793  11.494   0.919
27947SOL    HW285675   8.847  11.618   0.849
27948SOL     OW85676  13.373   4.933   5.904
27948SOL    HW185677  13.404   4.843   5.901
27948SOL    HW285678  13.384   4.960   5.995
27949SOL     OW85679  11.332  12.535   4.689
27949SOL    HW185680  11.287  12.619   4.702
27949SOL    HW285681  11.266  12.469   4.709
27950SOL     OW85682   8.427  13.360   5.325
27950SOL    HW185683   8.489  13.426   5.294
27950SOL    HW285684   8.362  13.353   5.255
27951SOL     OW85685  10.893  14.022  13.711
27951SOL    HW185686  10.840  14.099  13.691
27951SOL    HW285687  10.963  14.023  13.646
27952SOL     OW85688   0.030   2.259  14.445
27952SOL    HW185689   0.027   2.311  14.525
27952SOL    HW285690   0.085   2.184  14.467
27953SOL     OW85691   9.515  11.857   6.197
27953SOL    HW185692   9.562  11.790   6.245
27953SOL    HW285693   9.464  11.809   6.131
27954SOL     OW85694   6.982   8.163  13.278
27954SOL    HW185695   6.978   8.240  13.334
27954SOL    HW285696   7.074   8.157  13.252
27955SOL     OW85697   4.000  10.750  10.255
27955SOL    HW185698   3.990  10.787  10.167
27955SOL    HW285699   3.914  10.713  10.275
27956SOL     OW85700   2.098  13.228   2.107
27956SOL    HW185701   2.137  13.302   2.062
27956SOL    HW285702   2.153  13.215   2.185
27957SOL     OW85703   8.040  13.998   1.237
27957SOL    HW185704   7.967  14.033   1.287
27957SOL    HW285705   8.002  13.974   1.152
27958SOL     OW85706   0.909   9.037  10.771
27958SOL    HW185707   0.867   8.952  10.772
27958SOL    HW285708   0.891   9.074  10.857
27959SOL     OW85709   5.651   0.933  12.592
27959SOL    HW185710   5.607   1.001  12.541
27959SOL    HW285711   5.743   0.940  12.566
27960SOL     OW85712   1.917  10.265  12.725
27960SOL    HW185713   1.832  10.290  12.760
27960SOL    HW285714   1.897  10.205  12.653
27961SOL     OW85715   0.583   1.381   1.927
27961SOL    HW185716   0.543   1.468   1.934
27961SOL    HW285717   0.676   1.396   1.941
27962SOL     OW85718   0.576  10.180  11.599
27962SOL    HW185719   0.578  10.263  11.647
27962SOL    HW285720   0.565  10.206  11.507
27963SOL     OW85721  14.690   5.306   9.765
27963SOL    HW185722  14.719   5.396   9.774
27963SOL    HW285723  14.676   5.294   9.671
27964SOL     OW85724   2.448   0.036   1.458
27964SOL    HW185725   2.470  14.874   1.374
27964SOL    HW285726   2.472  14.849   1.524
27965SOL     OW85727   6.571   3.461   8.455
27965SOL    HW185728   6.622   3.533   8.493
27965SOL    HW285729   6.612   3.445   8.370
27966SOL     OW85730  11.216   7.447  10.802
27966SOL    HW185731  11.299   7.494  10.805
27966SOL    HW285732  11.152   7.513  10.776
27967SOL     OW85733   5.122   3.640   6.572
27967SOL    HW185734   5.188   3.689   6.523
27967SOL    HW285735   5.075   3.707   6.622
27968SOL     OW85736  12.301  12.509   7.507
27968SOL    HW185737  12.257  12.455   7.572
27968SOL    HW285738  12.277  12.599   7.531
27969SOL     OW85739   8.965   4.916   6.305
27969SOL    HW185740   8.938   4.899   6.395
27969SOL    HW285741   8.975   4.828   6.267
27970SOL     OW85742   5.980   1.194  10.798
27970SOL    HW185743   5.973   1.289  10.811
27970SOL    HW285744   6.052   1.184  10.736
27971SOL     OW85745  13.037   9.366   0.427
27971SOL    HW185746  13.000   9.376   0.339
27971SOL    HW285747  13.035   9.454   0.464
27972SOL     OW85748   4.850   3.089   4.473
27972SOL    HW185749   4.796   3.120   4.545
27972SOL    HW285750   4.917   3.035   4.515
27973SOL     OW85751  11.661   4.435  11.188
27973SOL    HW185752  11.681   4.515  11.139
27973SOL    HW285753  11.573   4.411  11.160
27974SOL     OW85754  11.805   0.562   1.762
27974SOL    HW185755  11.818   0.656   1.779
27974SOL    HW285756  11.801   0.522   1.848
27975SOL     OW85757  10.227  11.751   7.230
27975SOL    HW185758  10.248  11.662   7.260
27975SOL    HW285759  10.214  11.801   7.310
27976SOL     OW85760  14.136   6.447   9.556
27976SOL    HW185761  14.121   6.504   9.632
27976SOL    HW285762  14.084   6.486   9.486
27977SOL     OW85763  12.181  10.021   6.671
27977SOL    HW185764  12.145   9.986   6.752
27977SOL    HW285765  12.208  10.110   6.693
27978SOL     OW85766   1.317   9.961   0.506
27978SOL    HW185767   1.250   9.991   0.568
27978SOL    HW285768   1.363   9.891   0.553
27979SOL     OW85769   2.980   0.458  12.356
27979SOL    HW185770   3.070   0.438  12.381
27979SOL    HW285771   2.981   0.458  12.260
27980SOL     OW85772   6.446   3.829  14.434
27980SOL    HW185773   6.399   3.883  14.370
27980SOL    HW285774   6.386   3.824  14.509
27981SOL     OW85775   6.699   1.797  12.815
27981SOL    HW185776   6.693   1.716  12.865
27981SOL    HW285777   6.609   1.829  12.811
27982SOL     OW85778   5.333   8.848   1.110
27982SOL    HW185779   5.396   8.874   1.042
27982SOL    HW285780   5.358   8.899   1.187
27983SOL     OW85781   5.243   9.270   8.128
27983SOL    HW185782   5.250   9.348   8.074
27983SOL    HW285783   5.254   9.197   8.067
27984SOL     OW85784  13.708   9.610   2.967
27984SOL    HW185785  13.711   9.637   3.058
27984SOL    HW285786  13.615   9.592   2.951
27985SOL     OW85787   9.611   1.689   8.589
27985SOL    HW185788   9.651   1.773   8.615
27985SOL    HW285789   9.675   1.623   8.616
27986SOL     OW85790  14.265   9.726  11.003
27986SOL    HW185791  14.232   9.805  11.046
27986SOL    HW285792  14.307   9.676  11.073
27987SOL     OW85793  12.061   5.832   4.979
27987SOL    HW185794  12.111   5.910   4.957
27987SOL    HW285795  12.014   5.809   4.899
27988SOL     OW85796   1.419   7.074   8.608
27988SOL    HW185797   1.387   7.139   8.669
27988SOL    HW285798   1.423   6.993   8.659
27989SOL     OW85799   7.612   8.732   7.573
27989SOL    HW185800   7.537   8.730   7.513
27989SOL    HW285801   7.679   8.781   7.525
27990SOL     OW85802  13.532   4.555   3.941
27990SOL    HW185803  13.591   4.480   3.933
27990SOL    HW285804  13.493   4.564   3.854
27991SOL     OW85805   3.664   0.820   6.921
27991SOL    HW185806   3.746   0.772   6.927
27991SOL    HW285807   3.652   0.859   7.008
27992SOL     OW85808   2.282   2.711   9.637
27992SOL    HW185809   2.372   2.733   9.613
27992SOL    HW285810   2.270   2.751   9.723
27993SOL     OW85811   6.770  11.263   0.873
27993SOL    HW185812   6.832  11.249   0.945
27993SOL    HW285813   6.714  11.186   0.873
27994SOL     OW85814  12.138  13.301   9.051
27994SOL    HW185815  12.220  13.304   9.002
27994SOL    HW285816  12.075  13.265   8.988
27995SOL     OW85817   5.714  11.920  10.468
27995SOL    HW185818   5.634  11.876  10.497
27995SOL    HW285819   5.715  12.002  10.517
27996SOL     OW85820   5.653   0.529  10.091
27996SOL    HW185821   5.603   0.609  10.110
27996SOL    HW285822   5.740   0.560  10.068
27997SOL     OW85823   1.316  10.323   4.543
27997SOL    HW185824   1.242  10.384   4.539
27997SOL    HW285825   1.316  10.292   4.633
27998SOL     OW85826   3.563   8.806   2.337
27998SOL    HW185827   3.545   8.900   2.346
27998SOL    HW285828   3.530   8.768   2.418
27999SOL     OW85829   0.394  14.685   0.920
27999SOL    HW185830   0.469  14.712   0.865
27999SOL    HW285831   0.434  14.648   0.998
28000SOL     OW85832   6.178   3.276   6.973
28000SOL    HW185833   6.222   3.270   7.058
28000SOL    HW285834   6.226   3.215   6.918
28001SOL     OW85835   6.375   5.211   0.566
28001SOL    HW185836   6.456   5.259   0.546
28001SOL    HW285837   6.382   5.129   0.518
28002SOL     OW85838   2.800  13.870   5.852
28002SOL    HW185839   2.779  13.805   5.785
28002SOL    HW285840   2.738  13.942   5.835
28003SOL     OW85841   6.804   7.242  11.282
28003SOL    HW185842   6.780   7.311  11.220
28003SOL    HW285843   6.851   7.288  11.351
28004SOL     OW85844   4.389  12.502  12.077
28004SOL    HW185845   4.400  12.407  12.071
28004SOL    HW285846   4.435  12.536  12.001
28005SOL     OW85847   1.980   3.919   6.677
28005SOL    HW185848   1.885   3.913   6.662
28005SOL    HW285849   1.990   3.981   6.748
28006SOL     OW85850   8.427  13.490   3.752
28006SOL    HW185851   8.502  13.436   3.776
28006SOL    HW285852   8.401  13.458   3.665
28007SOL     OW85853   2.463  12.298   6.763
28007SOL    HW185854   2.496  12.208   6.768
28007SOL    HW285855   2.385  12.292   6.707
28008SOL     OW85856   7.855  14.121  11.347
28008SOL    HW185857   7.865  14.153  11.258
28008SOL    HW285858   7.910  14.179  11.400
28009SOL     OW85859   6.303   5.088  11.118
28009SOL    HW185860   6.216   5.127  11.115
28009SOL    HW285861   6.345   5.118  11.037
28010SOL     OW85862  13.356  14.055   7.288
28010SOL    HW185863  13.334  14.146   7.266
28010SOL    HW285864  13.439  14.039   7.243
28011SOL     OW85865   1.504   7.700   1.616
28011SOL    HW185866   1.516   7.773   1.555
28011SOL    HW285867   1.585   7.697   1.667
28012SOL     OW85868   2.538   1.439  13.690
28012SOL    HW185869   2.591   1.362  13.669
28012SOL    HW285870   2.471   1.407  13.750
28013SOL     OW85871   7.659   0.524   8.731
28013SOL    HW185872   7.684   0.433   8.750
28013SOL    HW285873   7.703   0.545   8.649
28014SOL     OW85874   0.240   5.966  13.502
28014SOL    HW185875   0.285   5.939  13.422
28014SOL    HW285876   0.148   5.943  13.486
28015SOL     OW85877   7.547  11.258   8.472
28015SOL    HW185878   7.560  11.290   8.383
28015SOL    HW285879   7.468  11.204   8.467
28016SOL     OW85880  13.179  11.704   9.966
28016SOL    HW185881  13.221  11.662  10.041
28016SOL    HW285882  13.249  11.718   9.903
28017SOL     OW85883   7.503  14.567   4.318
28017SOL    HW185884   7.442  14.533   4.252
28017SOL    HW285885   7.446  14.605   4.385
28018SOL     OW85886   9.330   0.516   0.376
28018SOL    HW185887   9.289   0.525   0.290
28018SOL    HW285888   9.397   0.449   0.364
28019SOL     OW85889   4.164  14.873  13.621
28019SOL    HW185890   4.253  14.872  13.656
28019SOL    HW285891   4.168   0.056  13.548
28020SOL     OW85892  10.704  10.650   5.483
28020SOL    HW185893  10.744  10.623   5.401
28020SOL    HW285894  10.727  10.581   5.545
28021SOL     OW85895   5.227   4.500   8.411
28021SOL    HW185896   5.156   4.457   8.364
28021SOL    HW285897   5.188   4.580   8.446
28022SOL     OW85898   8.263   3.151   7.912
28022SOL    HW185899   8.267   3.203   7.832
28022SOL    HW285900   8.274   3.060   7.883
28023SOL     OW85901   2.290  10.624   1.082
28023SOL    HW185902   2.299  10.575   1.000
28023SOL    HW285903   2.262  10.711   1.055
28024SOL     OW85904   8.873   0.368   2.255
28024SOL    HW185905   8.867   0.289   2.309
28024SOL    HW285906   8.813   0.353   2.182
28025SOL     OW85907   3.016   9.245   5.772
28025SOL    HW185908   2.954   9.174   5.758
28025SOL    HW285909   3.097   9.201   5.796
28026SOL     OW85910   4.255   8.802  14.781
28026SOL    HW185911   4.170   8.843  14.796
28026SOL    HW285912   4.256   8.725  14.838
28027SOL     OW85913   8.295   2.369   6.022
28027SOL    HW185914   8.317   2.317   5.944
28027SOL    HW285915   8.240   2.311   6.075
28028SOL     OW85916   2.374   5.576   3.973
28028SOL    HW185917   2.279   5.575   3.984
28028SOL    HW285918   2.406   5.511   4.035
28029SOL     OW85919   4.785   5.793   5.884
28029SOL    HW185920   4.749   5.747   5.808
28029SOL    HW285921   4.736   5.758   5.959
28030SOL     OW85922   1.534   2.617   1.160
28030SOL    HW185923   1.526   2.602   1.066
28030SOL    HW285924   1.481   2.694   1.177
28031SOL     OW85925  13.949   9.666  13.054
28031SOL    HW185926  13.951   9.746  13.001
28031SOL    HW285927  14.032   9.623  13.035
28032SOL     OW85928   5.390   3.199   9.098
28032SOL    HW185929   5.400   3.193   9.193
28032SOL    HW285930   5.380   3.109   9.069
28033SOL     OW85931   9.477   0.360   5.570
28033SOL    HW185932   9.399   0.410   5.548
28033SOL    HW285933   9.533   0.369   5.492
28034SOL     OW85934   0.146   7.709  12.854
28034SOL    HW185935   0.076   7.758  12.809
28034SOL    HW285936   0.113   7.697  12.943
28035SOL     OW85937   3.846  10.674   6.303
28035SOL    HW185938   3.928  10.717   6.280
28035SOL    HW285939   3.833  10.608   6.235
28036SOL     OW85940  14.676  13.687   7.569
28036SOL    HW185941  14.736  13.733   7.627
28036SOL    HW285942  14.679  13.736   7.487
28037SOL     OW85943   2.127   8.278  12.582
28037SOL    HW185944   2.142   8.296  12.675
28037SOL    HW285945   2.164   8.353  12.537
28038SOL     OW85946   6.620  13.562  13.274
28038SOL    HW185947   6.661  13.648  13.288
28038SOL    HW285948   6.552  13.556  13.340
28039SOL     OW85949   6.438   1.164   1.486
28039SOL    HW185950   6.384   1.170   1.407
28039SOL    HW285951   6.486   1.247   1.488
28040SOL     OW85952   1.134   3.004   7.949
28040SOL    HW185953   1.051   2.956   7.942
28040SOL    HW285954   1.121   3.081   7.894
28041SOL     OW85955   1.127   2.836   2.400
28041SOL    HW185956   1.141   2.896   2.473
28041SOL    HW285957   1.215   2.807   2.374
28042SOL     OW85958   0.022   6.832   2.968
28042SOL    HW185959   0.009   6.739   2.989
28042SOL    HW285960  14.824   6.876   3.003
28043SOL     OW85961  13.337   7.469   5.781
28043SOL    HW185962  13.283   7.404   5.827
28043SOL    HW285963  13.278   7.542   5.764
28044SOL     OW85964  12.968   0.510   7.290
28044SOL    HW185965  12.902   0.555   7.238
28044SOL    HW285966  13.025   0.467   7.226
28045SOL     OW85967   4.965   6.213  11.762
28045SOL    HW185968   5.000   6.264  11.690
28045SOL    HW285969   4.877   6.187  11.733
28046SOL     OW85970   7.736  14.213  13.074
28046SOL    HW185971   7.760  14.222  12.982
28046SOL    HW285972   7.797  14.270  13.120
28047SOL     OW85973   3.201  14.499   1.705
28047SOL    HW185974   3.275  14.552   1.675
28047SOL    HW285975   3.193  14.522   1.798
28048SOL     OW85976   4.030  11.315   6.882
28048SOL    HW185977   4.113  11.311   6.834
28048SOL    HW285978   4.056  11.340   6.971
28049SOL     OW85979  10.550   6.411   0.092
28049SOL    HW185980  10.613   6.397   0.021
28049SOL    HW285981  10.527   6.504   0.085
28050SOL     OW85982  11.429  14.352   1.969
28050SOL    HW185983  11.478  14.303   2.035
28050SOL    HW285984  11.495  14.380   1.906
28051SOL     OW85985  10.962   8.053   9.969
28051SOL    HW185986  11.040   8.019   9.926
28051SOL    HW285987  10.967   8.148   9.955
28052SOL     OW85988  12.837   6.901   6.684
28052SOL    HW185989  12.886   6.824   6.655
28052SOL    HW285990  12.903   6.959   6.723
28053SOL     OW85991   6.284  12.854   9.349
28053SOL    HW185992   6.360  12.910   9.329
28053SOL    HW285993   6.223  12.870   9.276
28054SOL     OW85994  11.095  12.750   9.903
28054SOL    HW185995  11.149  12.724   9.828
28054SOL    HW285996  11.019  12.692   9.899
28055SOL     OW85997   5.295  13.922   7.252
28055SOL    HW185998   5.336  13.986   7.310
28055SOL    HW285999   5.362  13.854   7.241
28056SOL     OW86000   0.539   7.199   1.259
28056SOL    HW186001   0.575   7.111   1.251
28056SOL    HW286002   0.614   7.254   1.280
28057SOL     OW86003  12.294   0.970   7.801
28057SOL    HW186004  12.320   0.880   7.815
28057SOL    HW286005  12.342   1.020   7.867
28058SOL     OW86006  12.270  10.794   0.820
28058SOL    HW186007  12.183  10.804   0.780
28058SOL    HW286008  12.310  10.880   0.811
28059SOL     OW86009   3.804   7.194   1.565
28059SOL    HW186010   3.869   7.177   1.633
28059SOL    HW286011   3.792   7.110   1.521
28060SOL     OW86012   4.119   2.029   8.977
28060SOL    HW186013   4.189   1.964   8.975
28060SOL    HW286014   4.044   1.984   8.939
28061SOL     OW86015  13.937   9.338   6.379
28061SOL    HW186016  13.843   9.330   6.365
28061SOL    HW286017  13.948   9.337   6.474
28062SOL     OW86018   0.419   2.144   0.289
28062SOL    HW186019   0.511   2.161   0.269
28062SOL    HW286020   0.408   2.174   0.380
28063SOL     OW86021  12.216   1.474   6.768
28063SOL    HW186022  12.216   1.379   6.757
28063SOL    HW286023  12.250   1.508   6.685
28064SOL     OW86024  14.818  10.660  11.299
28064SOL    HW186025   0.029  10.665  11.267
28064SOL    HW286026  14.819  10.709  11.381
28065SOL     OW86027  12.711  13.887   6.547
28065SOL    HW186028  12.681  13.796   6.538
28065SOL    HW286029  12.633  13.934   6.576
28066SOL     OW86030   8.569   9.790   2.376
28066SOL    HW186031   8.584   9.856   2.444
28066SOL    HW286032   8.603   9.831   2.296
28067SOL     OW86033  12.165  12.017   7.009
28067SOL    HW186034  12.084  12.037   6.963
28067SOL    HW286035  12.225  11.987   6.940
28068SOL     OW86036   5.648   1.755   6.949
28068SOL    HW186037   5.595   1.828   6.918
28068SOL    HW286038   5.738   1.789   6.948
28069SOL     OW86039   7.032  11.790   7.675
28069SOL    HW186040   7.096  11.718   7.668
28069SOL    HW286041   7.014  11.797   7.769
28070SOL     OW86042  10.624  10.288   0.860
28070SOL    HW186043  10.621  10.239   0.942
28070SOL    HW286044  10.707  10.263   0.820
28071SOL     OW86045   2.756  13.977   2.991
28071SOL    HW186046   2.838  13.988   2.942
28071SOL    HW286047   2.706  14.056   2.973
28072SOL     OW86048   1.137   7.756  13.949
28072SOL    HW186049   1.223   7.782  13.983
28072SOL    HW286050   1.153   7.733  13.858
28073SOL     OW86051   1.638  11.028  10.155
28073SOL    HW186052   1.679  10.977  10.225
28073SOL    HW286053   1.569  11.079  10.199
28074SOL     OW86054  10.490  14.055   1.811
28074SOL    HW186055  10.431  14.130   1.823
28074SOL    HW286056  10.498  14.018   1.899
28075SOL     OW86057   3.411   0.658   8.618
28075SOL    HW186058   3.375   0.658   8.530
28075SOL    HW286059   3.338   0.632   8.674
28076SOL     OW86060   6.192  13.065   6.438
28076SOL    HW186061   6.126  13.016   6.389
28076SOL    HW286062   6.239  12.999   6.488
28077SOL     OW86063   2.573  13.659   5.426
28077SOL    HW186064   2.620  13.670   5.343
28077SOL    HW286065   2.631  13.605   5.480
28078SOL     OW86066   9.621   5.503  14.233
28078SOL    HW186067   9.678   5.550  14.295
28078SOL    HW286068   9.532   5.530  14.257
28079SOL     OW86069  12.972   3.378   4.204
28079SOL    HW186070  12.923   3.460   4.193
28079SOL    HW286071  13.037   3.398   4.271
28080SOL     OW86072   2.751   0.185  10.604
28080SOL    HW186073   2.724   0.268  10.564
28080SOL    HW286074   2.840   0.202  10.635
28081SOL     OW86075  12.734  10.192   4.248
28081SOL    HW186076  12.681  10.151   4.317
28081SOL    HW286077  12.788  10.121   4.213
28082SOL     OW86078  13.299   8.457  13.347
28082SOL    HW186079  13.205   8.444  13.333
28082SOL    HW286080  13.305   8.540  13.396
28083SOL     OW86081   0.857   8.770   0.182
28083SOL    HW186082   0.780   8.780   0.126
28083SOL    HW286083   0.930   8.764   0.120
28084SOL     OW86084   2.419  10.972  14.337
28084SOL    HW186085   2.486  11.032  14.370
28084SOL    HW286086   2.336  11.015  14.357
28085SOL     OW86087  14.384   7.815   6.061
28085SOL    HW186088  14.369   7.752   5.991
28085SOL    HW286089  14.473   7.848   6.045
28086SOL     OW86090   1.669  14.785  13.815
28086SOL    HW186091   1.630  14.787  13.902
28086SOL    HW286092   1.718  14.868  13.808
28087SOL     OW86093   1.573  11.369   0.757
28087SOL    HW186094   1.553  11.347   0.666
28087SOL    HW286095   1.663  11.339   0.770
28088SOL     OW86096   2.412  14.317   7.876
28088SOL    HW186097   2.464  14.393   7.900
28088SOL    HW286098   2.454  14.244   7.922
28089SOL     OW86099   5.153   0.658   7.807
28089SOL    HW186100   5.205   0.637   7.729
28089SOL    HW286101   5.174   0.588   7.869
28090SOL     OW86102   4.070  12.781   4.460
28090SOL    HW186103   3.976  12.782   4.479
28090SOL    HW286104   4.076  12.752   4.369
28091SOL     OW86105   7.118   3.563   6.058
28091SOL    HW186106   7.198   3.615   6.056
28091SOL    HW286107   7.076   3.587   6.141
28092SOL     OW86108   5.493   4.355   2.270
28092SOL    HW186109   5.523   4.266   2.250
28092SOL    HW286110   5.559   4.390   2.330
28093SOL     OW86111   0.179   0.308  12.095
28093SOL    HW186112   0.134   0.337  12.016
28093SOL    HW286113   0.264   0.277  12.065
28094SOL     OW86114  14.282   8.802  13.014
28094SOL    HW186115  14.354   8.855  12.980
28094SOL    HW286116  14.214   8.809  12.948
28095SOL     OW86117   6.726  14.814   2.901
28095SOL    HW186118   6.690   0.013   2.945
28095SOL    HW286119   6.811  14.801   2.942
28096SOL     OW86120  12.663   5.224  11.355
28096SOL    HW186121  12.695   5.149  11.405
28096SOL    HW286122  12.687   5.300  11.407
28097SOL     OW86123  12.017   0.620  12.501
28097SOL    HW186124  11.926   0.643  12.517
28097SOL    HW286125  12.020   0.525  12.511
28098SOL     OW86126   7.665   2.915  13.934
28098SOL    HW186127   7.655   2.990  13.993
28098SOL    HW286128   7.587   2.918  13.878
28099SOL     OW86129  14.809  11.691   2.658
28099SOL    HW186130  14.728  11.701   2.607
28099SOL    HW286131  14.857  11.772   2.643
28100SOL     OW86132  13.205   5.751   8.982
28100SOL    HW186133  13.247   5.836   8.993
28100SOL    HW286134  13.112   5.771   8.973
28101SOL     OW86135   8.671   7.807  13.818
28101SOL    HW186136   8.670   7.901  13.802
28101SOL    HW286137   8.683   7.768  13.731
28102SOL     OW86138   7.939   5.852   3.597
28102SOL    HW186139   7.987   5.894   3.669
28102SOL    HW286140   7.920   5.764   3.629
28103SOL     OW86141   0.536  12.730  11.627
28103SOL    HW186142   0.493  12.797  11.680
28103SOL    HW286143   0.503  12.647  11.662
28104SOL     OW86144   5.098   0.725   4.303
28104SOL    HW186145   5.060   0.671   4.234
28104SOL    HW286146   5.030   0.788   4.325
28105SOL     OW86147   2.521   2.697   7.418
28105SOL    HW186148   2.511   2.604   7.397
28105SOL    HW286149   2.464   2.711   7.493
28106SOL     OW86150   0.294   4.379   7.894
28106SOL    HW186151   0.265   4.289   7.911
28106SOL    HW286152   0.339   4.405   7.975
28107SOL     OW86153   6.750   9.588   4.374
28107SOL    HW186154   6.691   9.663   4.375
28107SOL    HW286155   6.755   9.560   4.465
28108SOL     OW86156   2.068   7.805   6.500
28108SOL    HW186157   2.000   7.868   6.524
28108SOL    HW286158   2.044   7.725   6.548
28109SOL     OW86159   9.891  12.814   0.604
28109SOL    HW186160   9.957  12.853   0.663
28109SOL    HW286161   9.942  12.757   0.547
28110SOL     OW86162   7.742   1.862  13.544
28110SOL    HW186163   7.664   1.862  13.489
28110SOL    HW286164   7.744   1.774  13.582
28111SOL     OW86165   5.899   6.416   3.014
28111SOL    HW186166   5.805   6.430   3.022
28111SOL    HW286167   5.917   6.420   2.920
28112SOL     OW86168   9.448   4.892  13.020
28112SOL    HW186169   9.370   4.925  13.065
28112SOL    HW286170   9.494   4.841  13.086
28113SOL     OW86171   0.813   3.844  10.140
28113SOL    HW186172   0.903   3.869  10.161
28113SOL    HW286173   0.815   3.821  10.047
28114SOL     OW86174   0.507   9.071   2.146
28114SOL    HW186175   0.436   9.077   2.081
28114SOL    HW286176   0.525   9.161   2.170
28115SOL     OW86177   4.217   0.378  12.184
28115SOL    HW186178   4.245   0.366  12.274
28115SOL    HW286179   4.124   0.352  12.184
28116SOL     OW86180  13.625   1.250   6.552
28116SOL    HW186181  13.673   1.285   6.627
28116SOL    HW286182  13.549   1.207   6.592
28117SOL     OW86183   8.779   0.766  11.702
28117SOL    HW186184   8.860   0.740  11.745
28117SOL    HW286185   8.756   0.849  11.742
28118SOL     OW86186   3.600   6.353   8.060
28118SOL    HW186187   3.538   6.307   8.004
28118SOL    HW286188   3.677   6.296   8.061
28119SOL     OW86189   1.848   3.039   1.541
28119SOL    HW186190   1.778   3.085   1.495
28119SOL    HW286191   1.929   3.077   1.506
28120SOL     OW86192   2.380   1.080   3.748
28120SOL    HW186193   2.437   1.156   3.738
28120SOL    HW286194   2.386   1.035   3.663
28121SOL     OW86195   8.129   1.037   5.506
28121SOL    HW186196   8.136   1.036   5.602
28121SOL    HW286197   8.043   1.073   5.488
28122SOL     OW86198  12.656   8.841   2.928
28122SOL    HW186199  12.638   8.840   2.834
28122SOL    HW286200  12.616   8.922   2.959
28123SOL     OW86201   6.876  12.559  10.885
28123SOL    HW186202   6.877  12.648  10.919
28123SOL    HW286203   6.806  12.515  10.932
28124SOL     OW86204   5.016   7.304  10.331
28124SOL    HW186205   5.061   7.219  10.324
28124SOL    HW286206   4.963   7.296  10.410
28125SOL     OW86207  10.040  12.020   5.156
28125SOL    HW186208   9.973  11.955   5.137
28125SOL    HW286209  10.075  11.995   5.242
28126SOL     OW86210   7.858   8.637  13.977
28126SOL    HW186211   7.937   8.630  13.923
28126SOL    HW286212   7.821   8.549  13.975
28127SOL     OW86213  14.609   8.529   4.212
28127SOL    HW186214  14.586   8.464   4.278
28127SOL    HW286215  14.649   8.601   4.261
28128SOL     OW86216  10.804   4.159  10.202
28128SOL    HW186217  10.861   4.181  10.128
28128SOL    HW286218  10.765   4.243  10.228
28129SOL     OW86219   8.204   0.260   1.780
28129SOL    HW186220   8.164   0.345   1.760
28129SOL    HW286221   8.153   0.226   1.854
28130SOL     OW86222   7.432   1.552   4.110
28130SOL    HW186223   7.459   1.492   4.040
28130SOL    HW286224   7.412   1.634   4.065
28131SOL     OW86225  12.057  12.234  10.368
28131SOL    HW186226  12.015  12.241  10.454
28131SOL    HW286227  11.998  12.280  10.309
28132SOL     OW86228  10.593   4.169  12.745
28132SOL    HW186229  10.520   4.189  12.686
28132SOL    HW286230  10.609   4.250  12.792
28133SOL     OW86231   1.825   5.370  11.257
28133SOL    HW186232   1.754   5.433  11.270
28133SOL    HW286233   1.819   5.346  11.165
28134SOL     OW86234  13.017  14.249   1.406
28134SOL    HW186235  12.972  14.194   1.470
28134SOL    HW286236  13.084  14.192   1.368
28135SOL     OW86237   0.498   6.450   0.614
28135SOL    HW186238   0.552   6.467   0.691
28135SOL    HW286239   0.544   6.382   0.566
28136SOL     OW86240  13.326   0.475   8.808
28136SOL    HW186241  13.266   0.540   8.843
28136SOL    HW286242  13.394   0.466   8.875
28137SOL     OW86243   5.718  13.811   8.882
28137SOL    HW186244   5.686  13.731   8.840
28137SOL    HW286245   5.768  13.781   8.957
28138SOL     OW86246  14.527   5.441   7.347
28138SOL    HW186247  14.570   5.404   7.424
28138SOL    HW286248  14.599   5.477   7.295
28139SOL     OW86249  13.484  10.318  13.344
28139SOL    HW186250  13.475  10.405  13.305
28139SOL    HW286251  13.452  10.329  13.434
28140SOL     OW86252   5.627  11.593   6.695
28140SOL    HW186253   5.599  11.513   6.740
28140SOL    HW286254   5.710  11.616   6.737
28141SOL     OW86255   5.114  14.644  10.852
28141SOL    HW186256   5.202  14.607  10.849
28141SOL    HW286257   5.091  14.643  10.945
28142SOL     OW86258   9.283   4.055   8.302
28142SOL    HW186259   9.347   4.057   8.373
28142SOL    HW286260   9.293   3.969   8.262
28143SOL     OW86261   9.001   3.546   9.256
28143SOL    HW186262   8.997   3.454   9.280
28143SOL    HW286263   9.090   3.573   9.279
28144SOL     OW86264   4.246   5.778   4.705
28144SOL    HW186265   4.175   5.722   4.673
28144SOL    HW286266   4.325   5.741   4.666
28145SOL     OW86267  11.038   6.717   5.704
28145SOL    HW186268  11.128   6.745   5.691
28145SOL    HW286269  10.998   6.786   5.757
28146SOL     OW86270  10.098   1.701   0.064
28146SOL    HW186271  10.034   1.736   0.001
28146SOL    HW286272  10.161   1.653   0.010
28147SOL     OW86273   7.387   7.990   8.106
28147SOL    HW186274   7.327   7.985   8.180
28147SOL    HW286275   7.443   8.065   8.126
28148SOL     OW86276   3.323   9.369  10.827
28148SOL    HW186277   3.264   9.383  10.901
28148SOL    HW286278   3.384   9.442  10.830
28149SOL     OW86279   8.482  11.003   8.691
28149SOL    HW186280   8.556  10.942   8.691
28149SOL    HW286281   8.457  11.009   8.784
28150SOL     OW86282   5.160   4.742  11.017
28150SOL    HW186283   5.128   4.659  10.982
28150SOL    HW286284   5.082   4.797  11.023
28151SOL     OW86285   7.163   5.218   9.908
28151SOL    HW186286   7.087   5.203   9.964
28151SOL    HW286287   7.132   5.280   9.842
28152SOL     OW86288   4.535  10.572   2.865
28152SOL    HW186289   4.504  10.542   2.951
28152SOL    HW286290   4.534  10.668   2.871
28153SOL     OW86291   7.372   0.882   2.564
28153SOL    HW186292   7.377   0.976   2.582
28153SOL    HW286293   7.309   0.875   2.492
28154SOL     OW86294   6.747   3.036  11.122
28154SOL    HW186295   6.826   3.088  11.139
28154SOL    HW286296   6.763   2.953  11.167
28155SOL     OW86297   4.817   2.996  13.720
28155SOL    HW186298   4.886   3.060  13.740
28155SOL    HW286299   4.740   3.049  13.701
28156SOL     OW86300  11.256   2.743   7.511
28156SOL    HW186301  11.331   2.757   7.569
28156SOL    HW286302  11.208   2.826   7.512
28157SOL     OW86303  10.980   5.490   5.271
28157SOL    HW186304  11.049   5.430   5.298
28157SOL    HW286305  10.950   5.456   5.187
28158SOL     OW86306   7.268  12.544  10.181
28158SOL    HW186307   7.215  12.600  10.238
28158SOL    HW286308   7.355  12.584  10.183
28159SOL     OW86309  11.895  12.653   9.074
28159SOL    HW186310  11.866  12.579   9.127
28159SOL    HW286311  11.882  12.729   9.131
28160SOL     OW86312   0.872  13.325   1.307
28160SOL    HW186313   0.869  13.331   1.212
28160SOL    HW286314   0.843  13.410   1.338
28161SOL     OW86315   0.913  12.550  10.953
28161SOL    HW186316   0.844  12.532  10.890
28161SOL    HW286317   0.983  12.489  10.930
28162SOL     OW86318   0.313  11.352   3.905
28162SOL    HW186319   0.366  11.389   3.834
28162SOL    HW286320   0.282  11.268   3.871
28163SOL     OW86321  14.804  14.536   9.349
28163SOL    HW186322  14.793  14.453   9.395
28163SOL    HW286323   0.009  14.528   9.305
28164SOL     OW86324   5.654  10.145  12.520
28164SOL    HW186325   5.616  10.132  12.607
28164SOL    HW286326   5.578  10.147  12.462
28165SOL     OW86327   4.856  14.170  14.537
28165SOL    HW186328   4.908  14.245  14.508
28165SOL    HW286329   4.766  14.198  14.526
28166SOL     OW86330   0.347   4.941  11.391
28166SOL    HW186331   0.345   4.943  11.295
28166SOL    HW286332   0.428   4.896  11.413
28167SOL     OW86333  12.192   3.404   6.898
28167SOL    HW186334  12.222   3.390   6.987
28167SOL    HW286335  12.096   3.397   6.904
28168SOL     OW86336  14.617   7.610  11.673
28168SOL    HW186337  14.659   7.694  11.690
28168SOL    HW286338  14.582   7.582  11.757
28169SOL     OW86339   6.242   3.457   8.096
28169SOL    HW186340   6.286   3.537   8.125
28169SOL    HW286341   6.239   3.401   8.174
28170SOL     OW86342   3.432  11.579   3.778
28170SOL    HW186343   3.441  11.558   3.685
28170SOL    HW286344   3.337  11.579   3.793
28171SOL     OW86345  11.248  11.423   5.268
28171SOL    HW186346  11.198  11.494   5.308
28171SOL    HW286347  11.316  11.467   5.218
28172SOL     OW86348   4.694   4.254   3.475
28172SOL    HW186349   4.659   4.326   3.422
28172SOL    HW286350   4.789   4.271   3.479
28173SOL     OW86351  13.031  10.959   8.010
28173SOL    HW186352  12.967  11.023   8.041
28173SOL    HW286353  12.999  10.933   7.924
28174SOL     OW86354  12.868   4.281   5.690
28174SOL    HW186355  12.864   4.290   5.594
28174SOL    HW286356  12.863   4.370   5.723
28175SOL     OW86357   0.593  11.605   0.480
28175SOL    HW186358   0.654  11.650   0.538
28175SOL    HW286359   0.644  11.586   0.402
28176SOL     OW86360   8.506  10.711   0.341
28176SOL    HW186361   8.581  10.656   0.320
28176SOL    HW286362   8.540  10.774   0.405
28177SOL     OW86363  10.189   7.509   7.158
28177SOL    HW186364  10.163   7.601   7.160
28177SOL    HW286365  10.123   7.466   7.102
28178SOL     OW86366   3.182   9.704  14.773
28178SOL    HW186367   3.109   9.714  14.713
28178SOL    HW286368   3.201   9.794  14.802
28179SOL     OW86369  12.457   6.285  12.854
28179SOL    HW186370  12.451   6.194  12.882
28179SOL    HW286371  12.490   6.332  12.931
28180SOL     OW86372   8.517   3.632   7.509
28180SOL    HW186373   8.456   3.587   7.568
28180SOL    HW286374   8.545   3.565   7.447
28181SOL     OW86375   2.130   3.506  13.624
28181SOL    HW186376   2.049   3.557  13.620
28181SOL    HW286377   2.157   3.511  13.716
28182SOL     OW86378   5.530   4.999   4.438
28182SOL    HW186379   5.618   4.981   4.403
28182SOL    HW286380   5.488   5.051   4.370
28183SOL     OW86381  14.791   3.913  13.710
28183SOL    HW186382  14.738   3.993  13.701
28183SOL    HW286383  14.729   3.842  13.695
28184SOL     OW86384   9.534  11.082  14.506
28184SOL    HW186385   9.606  11.092  14.569
28184SOL    HW286386   9.475  11.155  14.524
28185SOL     OW86387  14.259   9.272  12.970
28185SOL    HW186388  14.344   9.273  12.927
28185SOL    HW286389  14.221   9.358  12.949
28186SOL     OW86390  10.198   0.841  14.110
28186SOL    HW186391  10.162   0.888  14.186
28186SOL    HW286392  10.287   0.818  14.136
28187SOL     OW86393  13.600  11.501  14.626
28187SOL    HW186394  13.636  11.553  14.698
28187SOL    HW286395  13.535  11.445  14.667
28188SOL     OW86396   7.313  14.537   4.901
28188SOL    HW186397   7.256  14.589   4.958
28188SOL    HW286398   7.252  14.487   4.846
28189SOL     OW86399   5.643   5.637  11.612
28189SOL    HW186400   5.627   5.553  11.570
28189SOL    HW286401   5.737   5.636  11.633
28190SOL     OW86402  11.134   8.889   7.120
28190SOL    HW186403  11.221   8.854   7.137
28190SOL    HW286404  11.086   8.872   7.201
28191SOL     OW86405   3.677   1.351   5.798
28191SOL    HW186406   3.610   1.291   5.829
28191SOL    HW286407   3.759   1.315   5.833
28192SOL     OW86408  13.026  14.549  14.249
28192SOL    HW186409  13.120  14.558  14.265
28192SOL    HW286410  13.006  14.460  14.277
28193SOL     OW86411  14.226   9.728   4.741
28193SOL    HW186412  14.227   9.765   4.829
28193SOL    HW286413  14.240   9.802   4.683
28194SOL     OW86414  10.353  12.091   5.555
28194SOL    HW186415  10.381  12.021   5.613
28194SOL    HW286416  10.314  12.157   5.612
28195SOL     OW86417  10.296   9.373  10.362
28195SOL    HW186418  10.219   9.422  10.388
28195SOL    HW286419  10.277   9.345  10.272
28196SOL     OW86420   4.328   0.750   5.484
28196SOL    HW186421   4.240   0.759   5.520
28196SOL    HW286422   4.324   0.794   5.399
28197SOL     OW86423   2.628   1.570   7.497
28197SOL    HW186424   2.588   1.537   7.416
28197SOL    HW286425   2.589   1.657   7.509
28198SOL     OW86426   2.232  14.015   6.296
28198SOL    HW186427   2.144  14.017   6.332
28198SOL    HW286428   2.219  14.005   6.201
28199SOL     OW86429  10.288   1.839   4.671
28199SOL    HW186430  10.343   1.764   4.648
28199SOL    HW286431  10.347   1.898   4.718
28200SOL     OW86432   9.732   7.899   7.942
28200SOL    HW186433   9.768   7.815   7.912
28200SOL    HW286434   9.673   7.926   7.871
28201SOL     OW86435   2.166   7.390   2.381
28201SOL    HW186436   2.072   7.399   2.392
28201SOL    HW286437   2.177   7.306   2.336
28202SOL     OW86438  10.348   7.653   6.608
28202SOL    HW186439  10.417   7.667   6.543
28202SOL    HW286440  10.293   7.731   6.603
28203SOL     OW86441  10.508   3.796   8.876
28203SOL    HW186442  10.499   3.873   8.932
28203SOL    HW286443  10.518   3.723   8.938
28204SOL     OW86444   4.998  12.925  12.937
28204SOL    HW186445   4.981  12.991  12.870
28204SOL    HW286446   5.080  12.953  12.978
28205SOL     OW86447   2.350   6.771  10.403
28205SOL    HW186448   2.380   6.838  10.341
28205SOL    HW286449   2.404   6.695  10.384
28206SOL     OW86450   9.620   0.262  10.982
28206SOL    HW186451   9.530   0.257  11.014
28206SOL    HW286452   9.613   0.313  10.901
28207SOL     OW86453   6.078   1.244   8.184
28207SOL    HW186454   6.067   1.310   8.115
28207SOL    HW286455   6.084   1.161   8.137
28208SOL     OW86456   2.694  14.157   1.625
28208SOL    HW186457   2.610  14.145   1.668
28208SOL    HW286458   2.717  14.071   1.590
28209SOL     OW86459  10.720  12.730   2.035
28209SOL    HW186460  10.636  12.700   2.001
28209SOL    HW286461  10.734  12.816   1.995
28210SOL     OW86462   5.141  11.480  12.460
28210SOL    HW186463   5.145  11.566  12.503
28210SOL    HW286464   5.219  11.477  12.405
28211SOL     OW86465   0.974  10.574   6.588
28211SOL    HW186466   0.920  10.500   6.615
28211SOL    HW286467   1.045  10.577   6.653
28212SOL     OW86468   5.193   0.982   7.561
28212SOL    HW186469   5.284   1.009   7.548
28212SOL    HW286470   5.193   0.942   7.648
28213SOL     OW86471   0.533   5.387   9.612
28213SOL    HW186472   0.600   5.433   9.662
28213SOL    HW286473   0.521   5.440   9.533
28214SOL     OW86474  10.998   1.133   6.518
28214SOL    HW186475  10.905   1.142   6.496
28214SOL    HW286476  11.043   1.140   6.433
28215SOL     OW86477   4.373   3.827   0.705
28215SOL    HW186478   4.282   3.798   0.717
28215SOL    HW286479   4.396   3.798   0.617
28216SOL     OW86480  12.614   1.159   7.704
28216SOL    HW186481  12.684   1.211   7.665
28216SOL    HW286482  12.568   1.220   7.761
28217SOL     OW86483   4.204  14.307   0.246
28217SOL    HW186484   4.292  14.288   0.215
28217SOL    HW286485   4.192  14.401   0.232
28218SOL     OW86486  10.158   4.978  10.724
28218SOL    HW186487  10.074   5.015  10.695
28218SOL    HW286488  10.151   4.884  10.705
28219SOL     OW86489  12.168   5.001  10.957
28219SOL    HW186490  12.188   4.979  10.866
28219SOL    HW286491  12.186   5.094  10.964
28220SOL     OW86492  13.983   6.064   8.201
28220SOL    HW186493  14.008   6.087   8.111
28220SOL    HW286494  14.060   6.019   8.235
28221SOL     OW86495  12.273  10.822   9.899
28221SOL    HW186496  12.288  10.729   9.915
28221SOL    HW286497  12.279  10.831   9.804
28222SOL     OW86498   3.780   1.247   6.572
28222SOL    HW186499   3.794   1.176   6.634
28222SOL    HW286500   3.708   1.216   6.516
28223SOL     OW86501   2.715  12.685   3.526
28223SOL    HW186502   2.716  12.635   3.444
28223SOL    HW286503   2.754  12.625   3.590
28224SOL     OW86504   5.598   0.695   1.844
28224SOL    HW186505   5.543   0.645   1.784
28224SOL    HW286506   5.681   0.707   1.797
28225SOL     OW86507   9.413   9.960   2.913
28225SOL    HW186508   9.470  10.020   2.865
28225SOL    HW286509   9.391   9.891   2.851
28226SOL     OW86510   3.928   3.675  10.134
28226SOL    HW186511   3.855   3.673  10.072
28226SOL    HW286512   3.981   3.598  10.113
28227SOL     OW86513   3.675   4.695   6.367
28227SOL    HW186514   3.601   4.751   6.343
28227SOL    HW286515   3.748   4.756   6.377
28228SOL     OW86516   3.258  14.447   9.619
28228SOL    HW186517   3.274  14.356   9.643
28228SOL    HW286518   3.322  14.465   9.549
28229SOL     OW86519   0.621   8.812   8.786
28229SOL    HW186520   0.639   8.848   8.699
28229SOL    HW286521   0.626   8.717   8.774
28230SOL     OW86522  11.796   4.332  13.096
28230SOL    HW186523  11.799   4.268  13.168
28230SOL    HW286524  11.819   4.282  13.018
28231SOL     OW86525   5.322   7.164   3.137
28231SOL    HW186526   5.260   7.184   3.207
28231SOL    HW286527   5.281   7.092   3.089
28232SOL     OW86528   0.328  13.923  12.621
28232SOL    HW186529   0.311  13.847  12.565
28232SOL    HW286530   0.288  13.900  12.705
28233SOL     OW86531   5.337   4.675   7.228
28233SOL    HW186532   5.375   4.589   7.208
28233SOL    HW286533   5.295   4.663   7.313
28234SOL     OW86534  10.783   7.785   3.516
28234SOL    HW186535  10.723   7.732   3.569
28234SOL    HW286536  10.820   7.848   3.578
28235SOL     OW86537   6.744   4.402   1.119
28235SOL    HW186538   6.718   4.365   1.203
28235SOL    HW286539   6.701   4.346   1.054
28236SOL     OW86540  12.213   5.950   2.492
28236SOL    HW186541  12.205   5.876   2.553
28236SOL    HW286542  12.307   5.958   2.477
28237SOL     OW86543  14.290  14.215  14.203
28237SOL    HW186544  14.228  14.203  14.131
28237SOL    HW286545  14.373  14.183  14.168
28238SOL     OW86546  11.556  13.140   5.299
28238SOL    HW186547  11.485  13.081   5.273
28238SOL    HW286548  11.632  13.109   5.250
28239SOL     OW86549   5.215   7.193  11.795
28239SOL    HW186550   5.273   7.165  11.866
28239SOL    HW286551   5.164   7.116  11.773
28240SOL     OW86552   6.387   3.987  10.513
28240SOL    HW186553   6.363   4.041  10.438
28240SOL    HW286554   6.418   3.904  10.475
28241SOL     OW86555   2.363  11.548   0.430
28241SOL    HW186556   2.285  11.590   0.392
28241SOL    HW286557   2.396  11.612   0.494
28242SOL     OW86558   2.450   0.308   3.958
28242SOL    HW186559   2.505   0.260   4.020
28242SOL    HW286560   2.397   0.240   3.916
28243SOL     OW86561   1.935   9.514  13.025
28243SOL    HW186562   1.914   9.519  13.119
28243SOL    HW286563   1.850   9.509  12.982
28244SOL     OW86564  10.210  13.336   3.962
28244SOL    HW186565  10.267  13.411   3.950
28244SOL    HW286566  10.179  13.315   3.873
28245SOL     OW86567   7.435   2.793   2.847
28245SOL    HW186568   7.402   2.838   2.770
28245SOL    HW286569   7.498   2.729   2.812
28246SOL     OW86570   5.154  11.345   0.446
28246SOL    HW186571   5.079  11.339   0.505
28246SOL    HW286572   5.200  11.261   0.457
28247SOL     OW86573  10.540   3.273  12.714
28247SOL    HW186574  10.581   3.281  12.800
28247SOL    HW286575  10.467   3.212  12.729
28248SOL     OW86576  10.744  12.039   1.172
28248SOL    HW186577  10.778  12.120   1.209
28248SOL    HW286578  10.649  12.050   1.176
28249SOL     OW86579   3.916  13.936   0.185
28249SOL    HW186580   3.985  13.932   0.251
28249SOL    HW286581   3.853  13.869   0.212
28250SOL     OW86582   2.491   0.734  10.749
28250SOL    HW186583   2.497   0.689  10.833
28250SOL    HW286584   2.512   0.825  10.769
28251SOL     OW86585  10.458  13.725   2.846
28251SOL    HW186586  10.548  13.713   2.818
28251SOL    HW286587  10.464  13.748   2.939
28252SOL     OW86588   7.861  13.108   2.771
28252SOL    HW186589   7.900  13.194   2.775
28252SOL    HW286590   7.879  13.077   2.683
28253SOL     OW86591   8.819   0.655   9.119
28253SOL    HW186592   8.739   0.611   9.148
28253SOL    HW286593   8.889   0.614   9.169
28254SOL     OW86594   1.248   6.892  12.489
28254SOL    HW186595   1.293   6.808  12.493
28254SOL    HW286596   1.164   6.876  12.532
28255SOL     OW86597   5.306   4.294   7.611
28255SOL    HW186598   5.386   4.332   7.574
28255SOL    HW286599   5.338   4.225   7.670
28256SOL     OW86600   4.573   8.789  12.559
28256SOL    HW186601   4.606   8.858  12.501
28256SOL    HW286602   4.503   8.831  12.609
28257SOL     OW86603   5.031   0.409   7.976
28257SOL    HW186604   5.121   0.410   7.943
28257SOL    HW286605   5.040   0.399   8.071
28258SOL     OW86606   0.686   3.075   4.911
28258SOL    HW186607   0.675   3.020   4.989
28258SOL    HW286608   0.772   3.050   4.877
28259SOL     OW86609  10.943   1.852  11.386
28259SOL    HW186610  10.868   1.910  11.372
28259SOL    HW286611  10.997   1.899  11.450
28260SOL     OW86612   6.419   8.769  10.469
28260SOL    HW186613   6.505   8.803  10.493
28260SOL    HW286614   6.358   8.838  10.495
28261SOL     OW86615  14.845  11.213   7.015
28261SOL    HW186616  14.827  11.226   7.108
28261SOL    HW286617  14.814  11.125   6.997
28262SOL     OW86618   0.997   4.392   7.195
28262SOL    HW186619   1.072   4.343   7.162
28262SOL    HW286620   0.924   4.367   7.138
28263SOL     OW86621  13.013   4.080  13.338
28263SOL    HW186622  13.002   4.083  13.243
28263SOL    HW286623  13.065   4.002  13.354
28264SOL     OW86624   8.352   4.547  10.736
28264SOL    HW186625   8.440   4.578  10.719
28264SOL    HW286626   8.353   4.456  10.707
28265SOL     OW86627   2.441  13.284  11.618
28265SOL    HW186628   2.417  13.202  11.662
28265SOL    HW286629   2.486  13.334  11.685
28266SOL     OW86630   0.952   1.314   0.815
28266SOL    HW186631   1.009   1.279   0.883
28266SOL    HW286632   0.977   1.406   0.808
28267SOL     OW86633   0.212   7.585  11.164
28267SOL    HW186634   0.290   7.630  11.131
28267SOL    HW286635   0.158   7.655  11.200
28268SOL     OW86636   7.610   9.363   7.851
28268SOL    HW186637   7.595   9.441   7.797
28268SOL    HW286638   7.529   9.351   7.899
28269SOL     OW86639   1.690   5.147  11.669
28269SOL    HW186640   1.641   5.216  11.711
28269SOL    HW286641   1.773   5.188  11.643
28270SOL     OW86642   3.391   0.714   0.792
28270SOL    HW186643   3.315   0.670   0.754
28270SOL    HW286644   3.367   0.807   0.790
28271SOL     OW86645  10.884   4.995   2.518
28271SOL    HW186646  10.941   4.974   2.592
28271SOL    HW286647  10.807   4.939   2.531
28272SOL     OW86648   0.914  12.141   3.624
28272SOL    HW186649   0.822  12.157   3.603
28272SOL    HW286650   0.926  12.181   3.710
28273SOL     OW86651   0.892  13.836   4.873
28273SOL    HW186652   0.848  13.921   4.877
28273SOL    HW286653   0.863  13.789   4.951
28274SOL     OW86654   4.539   3.371   4.797
28274SOL    HW186655   4.478   3.368   4.724
28274SOL    HW286656   4.498   3.316   4.865
28275SOL     OW86657   8.051   2.166  11.540
28275SOL    HW186658   8.087   2.100  11.481
28275SOL    HW286659   8.121   2.230  11.550
28276SOL     OW86660   6.893   6.213   4.000
28276SOL    HW186661   6.834   6.138   4.006
28276SOL    HW286662   6.956   6.200   4.071
28277SOL     OW86663   2.272   3.293   9.906
28277SOL    HW186664   2.351   3.283   9.959
28277SOL    HW286665   2.202   3.256   9.960
28278SOL     OW86666  11.812   2.086  11.051
28278SOL    HW186667  11.740   2.122  10.999
28278SOL    HW286668  11.790   2.108  11.141
28279SOL     OW86669   6.351  10.014   2.767
28279SOL    HW186670   6.365   9.947   2.834
28279SOL    HW286671   6.406  10.088   2.795
28280SOL     OW86672  13.047   5.670  10.157
28280SOL    HW186673  12.955   5.656  10.180
28280SOL    HW286674  13.093   5.596  10.198
28281SOL     OW86675  14.482   4.722   9.523
28281SOL    HW186676  14.506   4.631   9.502
28281SOL    HW286677  14.517   4.773   9.450
28282SOL     OW86678  13.503  13.931   3.345
28282SOL    HW186679  13.576  13.970   3.393
28282SOL    HW286680  13.525  13.838   3.338
28283SOL     OW86681   5.360  11.689   0.734
28283SOL    HW186682   5.313  11.607   0.719
28283SOL    HW286683   5.452  11.662   0.742
28284SOL     OW86684   1.426   4.189  11.392
28284SOL    HW186685   1.419   4.147  11.306
28284SOL    HW286686   1.506   4.153  11.430
28285SOL     OW86687   0.179   4.236   3.812
28285SOL    HW186688   0.256   4.282   3.847
28285SOL    HW286689   0.183   4.252   3.718
28286SOL     OW86690  11.284   0.203   0.632
28286SOL    HW186691  11.207   0.252   0.605
28286SOL    HW286692  11.350   0.270   0.650
28287SOL     OW86693   0.606  10.010   5.212
28287SOL    HW186694   0.567   9.952   5.277
28287SOL    HW286695   0.693   9.974   5.196
28288SOL     OW86696   3.827   0.733   9.884
28288SOL    HW186697   3.743   0.767   9.851
28288SOL    HW286698   3.880   0.722   9.805
28289SOL     OW86699   0.168   6.232   5.249
28289SOL    HW186700   0.261   6.207   5.243
28289SOL    HW286701   0.122   6.148   5.254
28290SOL     OW86702  11.778   2.084   4.781
28290SOL    HW186703  11.798   2.157   4.840
28290SOL    HW286704  11.862   2.044   4.762
28291SOL     OW86705   2.106  12.185  13.772
28291SOL    HW186706   2.177  12.138  13.818
28291SOL    HW286707   2.138  12.196  13.683
28292SOL     OW86708   3.837  12.342  11.470
28292SOL    HW186709   3.809  12.264  11.422
28292SOL    HW286710   3.925  12.320  11.502
28293SOL     OW86711   0.910   5.935  13.048
28293SOL    HW186712   0.888   6.003  13.111
28293SOL    HW286713   0.956   5.868  13.100
28294SOL     OW86714   8.275  10.829   4.811
28294SOL    HW186715   8.297  10.780   4.733
28294SOL    HW286716   8.191  10.870   4.791
28295SOL     OW86717   7.852   5.799   4.279
28295SOL    HW186718   7.828   5.841   4.361
28295SOL    HW286719   7.817   5.710   4.286
28296SOL     OW86720  14.633  14.513   4.652
28296SOL    HW186721  14.673  14.531   4.737
28296SOL    HW286722  14.685  14.565   4.590
28297SOL     OW86723   5.618  14.528   4.681
28297SOL    HW186724   5.587  14.442   4.711
28297SOL    HW286725   5.575  14.540   4.597
28298SOL     OW86726   5.118   4.104   4.440
28298SOL    HW186727   5.099   4.038   4.507
28298SOL    HW286728   5.051   4.090   4.373
28299SOL     OW86729   5.080  14.118   7.190
28299SOL    HW186730   5.116  14.039   7.230
28299SOL    HW286731   5.119  14.120   7.103
28300SOL     OW86732   8.455  12.619   5.122
28300SOL    HW186733   8.464  12.525   5.109
28300SOL    HW286734   8.453  12.655   5.033
28301SOL     OW86735   6.603   4.238   1.637
28301SOL    HW186736   6.631   4.165   1.693
28301SOL    HW286737   6.513   4.255   1.663
28302SOL     OW86738   8.322   8.049   5.085
28302SOL    HW186739   8.407   8.008   5.065
28302SOL    HW286740   8.345   8.137   5.115
28303SOL     OW86741   2.204   1.288   5.524
28303SOL    HW186742   2.197   1.384   5.516
28303SOL    HW286743   2.248   1.274   5.608
28304SOL     OW86744   0.355   8.906  12.085
28304SOL    HW186745   0.352   8.956  12.167
28304SOL    HW286746   0.441   8.927  12.048
28305SOL     OW86747  14.726   6.321   1.174
28305SOL    HW186748  14.780   6.328   1.095
28305SOL    HW286749  14.736   6.230   1.201
28306SOL     OW86750   7.330   9.399   1.329
28306SOL    HW186751   7.336   9.489   1.299
28306SOL    HW286752   7.238   9.374   1.312
28307SOL     OW86753   3.430  10.495   7.998
28307SOL    HW186754   3.514  10.534   7.974
28307SOL    HW286755   3.366  10.541   7.943
28308SOL     OW86756   7.313   1.188  13.878
28308SOL    HW186757   7.296   1.096  13.861
28308SOL    HW286758   7.372   1.189  13.954
28309SOL     OW86759  14.287   8.612  11.312
28309SOL    HW186760  14.274   8.623  11.218
28309SOL    HW286761  14.373   8.649  11.330
28310SOL     OW86762   3.627   7.652  13.995
28310SOL    HW186763   3.689   7.714  13.956
28310SOL    HW286764   3.643   7.569  13.950
28311SOL     OW86765  14.228   6.993  12.930
28311SOL    HW186766  14.175   6.958  12.858
28311SOL    HW286767  14.310   7.021  12.889
28312SOL     OW86768  12.385   7.439  11.964
28312SOL    HW186769  12.313   7.465  11.905
28312SOL    HW286770  12.464   7.471  11.920
28313SOL     OW86771  10.096   0.022   0.646
28313SOL    HW186772  10.140   0.023   0.561
28313SOL    HW286773  10.058  14.813   0.652
28314SOL     OW86774  10.513   4.347   3.988
28314SOL    HW186775  10.448   4.298   4.037
28314SOL    HW286776  10.591   4.291   3.987
28315SOL     OW86777   3.903   4.023   9.104
28315SOL    HW186778   3.834   4.062   9.050
28315SOL    HW286779   3.884   3.929   9.102
28316SOL     OW86780   9.672   8.861  11.490
28316SOL    HW186781   9.678   8.788  11.552
28316SOL    HW286782   9.586   8.851  11.450
28317SOL     OW86783   8.531   9.327   7.366
28317SOL    HW186784   8.472   9.251   7.368
28317SOL    HW286785   8.472   9.402   7.378
28318SOL     OW86786  12.343  11.646   1.964
28318SOL    HW186787  12.287  11.713   2.002
28318SOL    HW286788  12.283  11.577   1.936
28319SOL     OW86789   8.958  12.205   8.154
28319SOL    HW186790   8.974  12.195   8.248
28319SOL    HW286791   9.039  12.175   8.113
28320SOL     OW86792   5.507   8.937  11.717
28320SOL    HW186793   5.590   8.896  11.741
28320SOL    HW286794   5.458   8.941  11.799
28321SOL     OW86795   7.126   5.643  12.439
28321SOL    HW186796   7.059   5.653  12.372
28321SOL    HW286797   7.121   5.724  12.490
28322SOL     OW86798   3.792   2.578  10.305
28322SOL    HW186799   3.785   2.482  10.306
28322SOL    HW286800   3.882   2.596  10.334
28323SOL     OW86801   8.225  13.127  13.918
28323SOL    HW186802   8.162  13.098  13.853
28323SOL    HW286803   8.278  13.050  13.937
28324SOL     OW86804   1.206  14.599  11.079
28324SOL    HW186805   1.177  14.610  10.989
28324SOL    HW286806   1.144  14.649  11.132
28325SOL     OW86807   9.745   0.750   3.671
28325SOL    HW186808   9.817   0.809   3.650
28325SOL    HW286809   9.742   0.689   3.597
28326SOL     OW86810  11.094  14.482   0.060
28326SOL    HW186811  11.006  14.506   0.030
28326SOL    HW286812  11.147  14.559   0.043
28327SOL     OW86813   4.851   0.233  13.873
28327SOL    HW186814   4.857   0.150  13.920
28327SOL    HW286815   4.879   0.299  13.938
28328SOL     OW86816   8.877  14.453   5.438
28328SOL    HW186817   8.845  14.398   5.367
28328SOL    HW286818   8.972  14.444   5.435
28329SOL     OW86819   0.645   4.411   4.772
28329SOL    HW186820   0.592   4.410   4.851
28329SOL    HW286821   0.705   4.337   4.782
28330SOL     OW86822   9.013   7.192   0.645
28330SOL    HW186823   9.046   7.184   0.734
28330SOL    HW286824   8.918   7.194   0.655
28331SOL     OW86825   9.765  10.636   6.617
28331SOL    HW186826   9.842  10.688   6.641
28331SOL    HW286827   9.693  10.698   6.619
28332SOL     OW86828   3.790   1.354   6.945
28332SOL    HW186829   3.812   1.376   7.035
28332SOL    HW286830   3.695   1.344   6.945
28333SOL     OW86831   6.971   4.706   5.292
28333SOL    HW186832   7.007   4.766   5.226
28333SOL    HW286833   7.043   4.693   5.353
28334SOL     OW86834   1.532   0.899  13.328
28334SOL    HW186835   1.539   0.878  13.421
28334SOL    HW286836   1.586   0.833  13.284
28335SOL     OW86837   6.631  12.138   5.008
28335SOL    HW186838   6.538  12.142   4.988
28335SOL    HW286839   6.672  12.198   4.945
28336SOL     OW86840   0.538   7.641   0.355
28336SOL    HW186841   0.512   7.630   0.446
28336SOL    HW286842   0.605   7.573   0.341
28337SOL     OW86843  11.759  14.178   3.776
28337SOL    HW186844  11.793  14.136   3.698
28337SOL    HW286845  11.837  14.211   3.821
28338SOL     OW86846   8.539   7.253   7.764
28338SOL    HW186847   8.597   7.259   7.688
28338SOL    HW286848   8.452   7.240   7.726
28339SOL     OW86849  12.582  13.308  13.940
28339SOL    HW186850  12.550  13.326  13.852
28339SOL    HW286851  12.639  13.382  13.960
28340SOL     OW86852   9.471   2.044  12.239
28340SOL    HW186853   9.528   2.103  12.289
28340SOL    HW286854   9.452   2.092  12.158
28341SOL     OW86855  12.995   9.004   4.868
28341SOL    HW186856  13.047   8.942   4.817
28341SOL    HW286857  13.044   9.086   4.864
28342SOL     OW86858   7.873   4.572   9.486
28342SOL    HW186859   7.814   4.566   9.410
28342SOL    HW286860   7.890   4.481   9.510
28343SOL     OW86861   9.412   6.691  10.141
28343SOL    HW186862   9.369   6.665  10.060
28343SOL    HW286863   9.492   6.735  10.112
28344SOL     OW86864   5.374  13.670   8.936
28344SOL    HW186865   5.400  13.606   9.003
28344SOL    HW286866   5.304  13.721   8.977
28345SOL     OW86867   9.003   0.147   5.712
28345SOL    HW186868   9.002   0.239   5.686
28345SOL    HW286869   9.096   0.127   5.725
28346SOL     OW86870  12.512  10.841  12.684
28346SOL    HW186871  12.482  10.771  12.742
28346SOL    HW286872  12.534  10.795  12.602
28347SOL     OW86873   2.106   1.004   0.238
28347SOL    HW186874   2.040   0.934   0.233
28347SOL    HW286875   2.088   1.058   0.161
28348SOL     OW86876   1.341   9.882   1.534
28348SOL    HW186877   1.411   9.827   1.500
28348SOL    HW286878   1.294   9.913   1.456
28349SOL     OW86879   5.929   4.829  13.356
28349SOL    HW186880   5.915   4.903  13.414
28349SOL    HW286881   5.858   4.768  13.375
28350SOL     OW86882   5.769   6.300   4.258
28350SOL    HW186883   5.713   6.262   4.190
28350SOL    HW286884   5.814   6.372   4.215
28351SOL     OW86885   2.333  13.052   7.678
28351SOL    HW186886   2.328  13.107   7.757
28351SOL    HW286887   2.321  13.113   7.606
28352SOL     OW86888   5.832   4.250  11.282
28352SOL    HW186889   5.850   4.235  11.375
28352SOL    HW286890   5.843   4.164  11.241
28353SOL     OW86891   3.961   8.887  13.352
28353SOL    HW186892   3.981   8.794  13.363
28353SOL    HW286893   3.886   8.903  13.410
28354SOL     OW86894  11.752   0.342  12.958
28354SOL    HW186895  11.699   0.410  12.916
28354SOL    HW286896  11.829   0.333  12.901
28355SOL     OW86897   2.422   1.308   5.278
28355SOL    HW186898   2.336   1.311   5.318
28355SOL    HW286899   2.411   1.356   5.195
28356SOL     OW86900   9.657   0.122   3.090
28356SOL    HW186901   9.668   0.034   3.125
28356SOL    HW286902   9.640   0.177   3.166
28357SOL     OW86903   3.352   2.502   5.069
28357SOL    HW186904   3.357   2.451   4.988
28357SOL    HW286905   3.443   2.521   5.092
28358SOL     OW86906  14.404   7.396   3.119
28358SOL    HW186907  14.424   7.324   3.178
28358SOL    HW286908  14.429   7.475   3.168
28359SOL     OW86909   4.484   8.271   6.754
28359SOL    HW186910   4.458   8.184   6.725
28359SOL    HW286911   4.441   8.282   6.839
28360SOL     OW86912   1.782  12.412   1.836
28360SOL    HW186913   1.770  12.507   1.828
28360SOL    HW286914   1.834  12.388   1.760
28361SOL     OW86915  12.488   4.703  10.577
28361SOL    HW186916  12.402   4.683  10.614
28361SOL    HW286917  12.476   4.695  10.482
28362SOL     OW86918   0.565  14.195  14.828
28362SOL    HW186919   0.584  14.109  14.866
28362SOL    HW286920   0.509  14.176  14.753
28363SOL     OW86921  13.242   3.319   4.814
28363SOL    HW186922  13.219   3.333   4.722
28363SOL    HW286923  13.337   3.321   4.815
28364SOL     OW86924   7.045   6.997   6.311
28364SOL    HW186925   7.074   7.087   6.326
28364SOL    HW286926   6.986   6.979   6.384
28365SOL     OW86927   3.315   8.239   9.790
28365SOL    HW186928   3.407   8.218   9.774
28365SOL    HW286929   3.290   8.292   9.714
28366SOL     OW86930   1.751  10.883   0.457
28366SOL    HW186931   1.732  10.911   0.546
28366SOL    HW286932   1.803  10.955   0.420
28367SOL     OW86933   1.992  14.684   5.345
28367SOL    HW186934   2.034  14.765   5.315
28367SOL    HW286935   1.944  14.709   5.423
28368SOL     OW86936   5.587   0.021  10.030
28368SOL    HW186937   5.498   0.042  10.056
28368SOL    HW286938   5.596  14.806  10.048
28369SOL     OW86939   6.316  11.808   1.163
28369SOL    HW186940   6.363  11.837   1.084
28369SOL    HW286941   6.381  11.815   1.233
28370SOL     OW86942   1.734   3.655   7.946
28370SOL    HW186943   1.829   3.642   7.938
28370SOL    HW286944   1.714   3.725   7.885
28371SOL     OW86945   8.100   5.138   7.361
28371SOL    HW186946   8.125   5.063   7.414
28371SOL    HW286947   8.054   5.100   7.286
28372SOL     OW86948  11.924   4.699   4.901
28372SOL    HW186949  11.973   4.777   4.927
28372SOL    HW286950  11.969   4.667   4.823
28373SOL     OW86951   3.866   4.155  13.528
28373SOL    HW186952   3.899   4.072  13.564
28373SOL    HW286953   3.927   4.221  13.560
28374SOL     OW86954   7.119   8.152  14.717
28374SOL    HW186955   7.104   8.057  14.719
28374SOL    HW286956   7.211   8.162  14.741
28375SOL     OW86957   9.048  13.973  11.976
28375SOL    HW186958   9.032  13.999  11.885
28375SOL    HW286959   9.039  14.054  12.026
28376SOL     OW86960  10.928   1.626   8.418
28376SOL    HW186961  10.951   1.669   8.500
28376SOL    HW286962  10.877   1.690   8.370
28377SOL     OW86963   9.621   9.549  14.280
28377SOL    HW186964   9.637   9.560  14.186
28377SOL    HW286965   9.529   9.572  14.292
28378SOL     OW86966  14.565  11.547  13.114
28378SOL    HW186967  14.535  11.633  13.141
28378SOL    HW286968  14.534  11.538  13.024
28379SOL     OW86969   0.614   8.404   6.920
28379SOL    HW186970   0.617   8.446   7.006
28379SOL    HW286971   0.627   8.476   6.858
28380SOL     OW86972  13.540   1.471   6.919
28380SOL    HW186973  13.490   1.546   6.950
28380SOL    HW286974  13.521   1.402   6.983
28381SOL     OW86975   6.926  11.499  12.277
28381SOL    HW186976   7.003  11.529  12.326
28381SOL    HW286977   6.941  11.530  12.188
28382SOL     OW86978   9.627   6.650   1.157
28382SOL    HW186979   9.631   6.705   1.235
28382SOL    HW286980   9.598   6.709   1.087
28383SOL     OW86981  14.688  13.733  10.016
28383SOL    HW186982  14.708  13.653   9.966
28383SOL    HW286983  14.772  13.760  10.052
28384SOL     OW86984  14.085   6.245   2.181
28384SOL    HW186985  14.011   6.295   2.146
28384SOL    HW286986  14.157   6.309   2.186
28385SOL     OW86987  10.894  11.446  12.346
28385SOL    HW186988  10.811  11.480  12.378
28385SOL    HW286989  10.873  11.402  12.264
28386SOL     OW86990   9.299   3.888   5.989
28386SOL    HW186991   9.306   3.982   5.977
28386SOL    HW286992   9.211   3.866   5.959
28387SOL     OW86993   9.347  12.982  12.908
28387SOL    HW186994   9.379  12.894  12.887
28387SOL    HW286995   9.343  12.983  13.004
28388SOL     OW86996   7.433   3.357   7.147
28388SOL    HW186997   7.457   3.430   7.090
28388SOL    HW286998   7.515   3.335   7.192
28389SOL     OW86999   2.630  10.755   0.541
28389SOL    HW187000   2.710  10.712   0.572
28389SOL    HW287001   2.638  10.846   0.573
28390SOL     OW87002  11.126  11.482   4.846
28390SOL    HW187003  11.094  11.561   4.890
28390SOL    HW287004  11.115  11.413   4.911
28391SOL     OW87005  13.207   8.284  12.669
28391SOL    HW187006  13.213   8.345  12.743
28391SOL    HW287007  13.120   8.299  12.632
28392SOL     OW87008  10.254   8.543   6.197
28392SOL    HW187009  10.250   8.453   6.165
28392SOL    HW287010  10.288   8.535   6.287
28393SOL     OW87011   0.300  12.705   2.556
28393SOL    HW187012   0.338  12.619   2.543
28393SOL    HW287013   0.370  12.766   2.531
28394SOL     OW87014   9.935   4.564  13.341
28394SOL    HW187015   9.842   4.541  13.339
28394SOL    HW287016   9.974   4.501  13.403
28395SOL     OW87017  14.695   7.299  12.719
28395SOL    HW187018  14.752   7.222  12.724
28395SOL    HW287019  14.662   7.310  12.808
28396SOL     OW87020   2.128   0.893   7.460
28396SOL    HW187021   2.069   0.828   7.499
28396SOL    HW287022   2.148   0.858   7.373
28397SOL     OW87023   0.727   4.398   7.083
28397SOL    HW187024   0.742   4.341   7.008
28397SOL    HW287025   0.677   4.345   7.145
28398SOL     OW87026  11.182  12.815   9.113
28398SOL    HW187027  11.120  12.797   9.183
28398SOL    HW287028  11.245  12.744   9.117
28399SOL     OW87029   4.073  13.694  13.469
28399SOL    HW187030   4.008  13.763  13.486
28399SOL    HW287031   4.021  13.615  13.454
28400SOL     OW87032   4.426  10.079   0.750
28400SOL    HW187033   4.331  10.065   0.755
28400SOL    HW287034   4.457  10.009   0.692
28401SOL     OW87035  14.156   6.634   7.609
28401SOL    HW187036  14.070   6.602   7.637
28401SOL    HW287037  14.147   6.649   7.515
28402SOL     OW87038   5.574  13.570   6.756
28402SOL    HW187039   5.495  13.573   6.811
28402SOL    HW287040   5.628  13.502   6.796
28403SOL     OW87041   4.422  13.410   0.435
28403SOL    HW187042   4.366  13.332   0.430
28403SOL    HW287043   4.487  13.388   0.501
28404SOL     OW87044   1.490   4.821   6.840
28404SOL    HW187045   1.544   4.900   6.838
28404SOL    HW287046   1.472   4.807   6.933
28405SOL     OW87047  12.147  11.206   6.118
28405SOL    HW187048  12.083  11.190   6.187
28405SOL    HW287049  12.138  11.299   6.098
28406SOL     OW87050   6.331   8.067  14.383
28406SOL    HW187051   6.418   8.102  14.403
28406SOL    HW287052   6.307   8.108  14.300
28407SOL     OW87053  10.963   3.428  10.780
28407SOL    HW187054  11.044   3.377  10.772
28407SOL    HW287055  10.926   3.429  10.692
28408SOL     OW87056  13.381  11.269   0.682
28408SOL    HW187057  13.368  11.197   0.620
28408SOL    HW287058  13.309  11.262   0.743
28409SOL     OW87059   5.981  10.802  12.442
28409SOL    HW187060   6.034  10.862  12.495
28409SOL    HW287061   5.891  10.831  12.456
28410SOL     OW87062   9.296   9.499   8.478
28410SOL    HW187063   9.371   9.531   8.527
28410SOL    HW287064   9.268   9.420   8.525
28411SOL     OW87065   3.639   2.891   6.667
28411SOL    HW187066   3.548   2.922   6.676
28411SOL    HW287067   3.647   2.867   6.575
28412SOL     OW87068  10.738   9.733  14.561
28412SOL    HW187069  10.804   9.675  14.600
28412SOL    HW287070  10.771   9.821  14.578
28413SOL     OW87071   8.497  12.028   1.366
28413SOL    HW187072   8.523  12.079   1.442
28413SOL    HW287073   8.564  12.046   1.300
28414SOL     OW87074  11.846   2.969  11.247
28414SOL    HW187075  11.903   2.909  11.198
28414SOL    HW287076  11.792   3.011  11.181
28415SOL     OW87077  10.788   2.274  11.463
28415SOL    HW187078  10.747   2.273  11.376
28415SOL    HW287079  10.826   2.361  11.470
28416SOL     OW87080   0.861  11.620   3.182
28416SOL    HW187081   0.786  11.618   3.242
28416SOL    HW287082   0.873  11.529   3.155
28417SOL     OW87083   1.814   8.326   4.509
28417SOL    HW187084   1.806   8.273   4.589
28417SOL    HW287085   1.767   8.277   4.442
28418SOL     OW87086  11.227  13.983   2.684
28418SOL    HW187087  11.214  13.941   2.599
28418SOL    HW287088  11.173  14.062   2.680
28419SOL     OW87089   0.508   9.345   1.555
28419SOL    HW187090   0.558   9.272   1.594
28419SOL    HW287091   0.418   9.330   1.582
28420SOL     OW87092   4.249  13.823  11.749
28420SOL    HW187093   4.164  13.849  11.715
28420SOL    HW287094   4.231  13.788  11.836
28421SOL     OW87095   0.956   6.309   2.476
28421SOL    HW187096   1.019   6.379   2.491
28421SOL    HW287097   0.995   6.256   2.406
28422SOL     OW87098   1.291   3.862   7.268
28422SOL    HW187099   1.327   3.790   7.320
28422SOL    HW287100   1.366   3.897   7.220
28423SOL     OW87101   9.185  13.209  13.024
28423SOL    HW187102   9.124  13.150  13.068
28423SOL    HW287103   9.177  13.186  12.931
28424SOL     OW87104   4.949   8.009  13.074
28424SOL    HW187105   5.035   8.038  13.104
28424SOL    HW287106   4.888   8.073  13.111
28425SOL     OW87107  13.897   4.773  11.661
28425SOL    HW187108  13.877   4.738  11.748
28425SOL    HW287109  13.918   4.865  11.676
28426SOL     OW87110  13.873   6.013  11.444
28426SOL    HW187111  13.909   5.953  11.378
28426SOL    HW287112  13.858   6.095  11.397
28427SOL     OW87113  11.123   6.062  13.489
28427SOL    HW187114  11.121   5.990  13.426
28427SOL    HW287115  11.186   6.124  13.453
28428SOL     OW87116   9.841   2.564   6.081
28428SOL    HW187117   9.876   2.641   6.037
28428SOL    HW287118   9.899   2.493   6.054
28429SOL     OW87119  12.688   9.950  12.344
28429SOL    HW187120  12.682   9.942  12.439
28429SOL    HW287121  12.741   9.874  12.317
28430SOL     OW87122  11.049  13.865  13.978
28430SOL    HW187123  11.023  13.781  13.939
28430SOL    HW287124  10.966  13.912  13.989
28431SOL     OW87125   7.619   8.300   1.529
28431SOL    HW187126   7.586   8.389   1.513
28431SOL    HW287127   7.683   8.286   1.459
28432SOL     OW87128   3.105   2.510   5.670
28432SOL    HW187129   3.175   2.480   5.728
28432SOL    HW287130   3.024   2.491   5.718
28433SOL     OW87131  10.834   4.201  14.427
28433SOL    HW187132  10.899   4.213  14.358
28433SOL    HW287133  10.884   4.207  14.509
28434SOL     OW87134  10.668   4.630  11.845
28434SOL    HW187135  10.752   4.644  11.801
28434SOL    HW287136  10.693   4.605  11.935
28435SOL     OW87137   3.808   5.348   3.078
28435SOL    HW187138   3.845   5.416   3.135
28435SOL    HW287139   3.884   5.308   3.036
28436SOL     OW87140   1.910   2.597   1.119
28436SOL    HW187141   1.853   2.647   1.176
28436SOL    HW287142   1.965   2.546   1.178
28437SOL     OW87143  13.700   0.032   1.731
28437SOL    HW187144  13.627   0.011   1.789
28437SOL    HW287145  13.769  14.848   1.754
28438SOL     OW87146  14.156   9.514   0.160
28438SOL    HW187147  14.245   9.538   0.133
28438SOL    HW287148  14.149   9.549   0.249
28439SOL     OW87149  13.437   6.944   2.809
28439SOL    HW187150  13.405   6.944   2.899
28439SOL    HW287151  13.521   6.991   2.813
28440SOL     OW87152   6.730   0.581  12.032
28440SOL    HW187153   6.773   0.634  11.965
28440SOL    HW287154   6.730   0.492  11.998
28441SOL     OW87155  14.393   2.103   7.079
28441SOL    HW187156  14.484   2.133   7.079
28441SOL    HW287157  14.393   2.028   7.137
28442SOL     OW87158  11.547   9.914   4.363
28442SOL    HW187159  11.471   9.947   4.412
28442SOL    HW287160  11.510   9.883   4.280
28443SOL     OW87161   0.747  14.159   0.205
28443SOL    HW187162   0.785  14.219   0.141
28443SOL    HW287163   0.747  14.074   0.162
28444SOL     OW87164   0.467   9.935   2.577
28444SOL    HW187165   0.436  10.009   2.524
28444SOL    HW287166   0.425   9.858   2.538
28445SOL     OW87167   3.640  12.035  14.705
28445SOL    HW187168   3.709  11.970  14.694
28445SOL    HW287169   3.673  12.093  14.774
28446SOL     OW87170  14.634   8.660  14.198
28446SOL    HW187171  14.681   8.714  14.134
28446SOL    HW287172  14.553   8.635  14.153
28447SOL     OW87173   1.308  12.221  11.854
28447SOL    HW187174   1.394  12.221  11.811
28447SOL    HW287175   1.282  12.313  11.854
28448SOL     OW87176  10.707   4.661   0.758
28448SOL    HW187177  10.796   4.694   0.753
28448SOL    HW287178  10.672   4.699   0.839
28449SOL     OW87179   2.763   4.910   0.179
28449SOL    HW187180   2.846   4.921   0.131
28449SOL    HW287181   2.743   4.998   0.212
28450SOL     OW87182   4.689   2.440   0.895
28450SOL    HW187183   4.771   2.397   0.872
28450SOL    HW287184   4.663   2.400   0.978
28451SOL     OW87185  13.480   2.749   3.569
28451SOL    HW187186  13.424   2.706   3.503
28451SOL    HW287187  13.554   2.689   3.580
28452SOL     OW87188  11.383  13.795   7.402
28452SOL    HW187189  11.462  13.822   7.450
28452SOL    HW287190  11.348  13.721   7.453
28453SOL     OW87191  10.903  12.138   5.533
28453SOL    HW187192  10.919  12.072   5.601
28453SOL    HW287193  10.810  12.158   5.541
28454SOL     OW87194   0.191   4.719   6.673
28454SOL    HW187195   0.276   4.762   6.665
28454SOL    HW287196   0.189   4.686   6.763
28455SOL     OW87197   8.393   7.721  10.140
28455SOL    HW187198   8.462   7.748  10.080
28455SOL    HW287199   8.399   7.625  10.141
28456SOL     OW87200   1.208  11.463  13.432
28456SOL    HW187201   1.177  11.421  13.513
28456SOL    HW287202   1.136  11.520  13.406
28457SOL     OW87203   0.730  10.411   3.988
28457SOL    HW187204   0.687  10.449   3.911
28457SOL    HW287205   0.670  10.343   4.019
28458SOL     OW87206  12.449  11.059   7.170
28458SOL    HW187207  12.420  11.025   7.085
28458SOL    HW287208  12.368  11.076   7.218
28459SOL     OW87209   9.636  10.887  12.179
28459SOL    HW187210   9.578  10.942  12.232
28459SOL    HW287211   9.596  10.886  12.093
28460SOL     OW87212   0.213   9.037  13.952
28460SOL    HW187213   0.140   9.060  14.008
28460SOL    HW287214   0.239   8.949  13.981
28461SOL     OW87215   1.373   7.434  12.796
28461SOL    HW187216   1.283   7.436  12.763
28461SOL    HW287217   1.378   7.508  12.857
28462SOL     OW87218  13.809  12.350  14.685
28462SOL    HW187219  13.743  12.285  14.711
28462SOL    HW287220  13.817  12.339  14.591
28463SOL     OW87221   2.666   4.994   7.729
28463SOL    HW187222   2.746   4.993   7.782
28463SOL    HW287223   2.596   4.974   7.791
28464SOL     OW87224   4.645   1.538   8.794
28464SOL    HW187225   4.643   1.581   8.879
28464SOL    HW287226   4.736   1.545   8.766
28465SOL     OW87227   2.501   3.957  10.340
28465SOL    HW187228   2.464   3.943  10.253
28465SOL    HW287229   2.433   4.003  10.388
28466SOL     OW87230   3.857   3.038   2.303
28466SOL    HW187231   3.900   3.082   2.377
28466SOL    HW287232   3.801   3.106   2.265
28467SOL     OW87233  12.092   8.047   3.842
28467SOL    HW187234  12.041   7.989   3.898
28467SOL    HW287235  12.161   7.991   3.805
28468SOL     OW87236   0.868   0.346   7.164
28468SOL    HW187237   0.930   0.411   7.131
28468SOL    HW287238   0.898   0.328   7.253
28469SOL     OW87239  11.523  13.681  14.851
28469SOL    HW187240  11.601  13.640  14.811
28469SOL    HW287241  11.532  13.661   0.066
28470SOL     OW87242  11.715   1.586   9.230
28470SOL    HW187243  11.656   1.659   9.245
28470SOL    HW287244  11.765   1.610   9.152
28471SOL     OW87245   4.892   5.827   7.521
28471SOL    HW187246   4.935   5.889   7.462
28471SOL    HW287247   4.929   5.847   7.607
28472SOL     OW87248  10.782   6.729   9.670
28472SOL    HW187249  10.711   6.774   9.624
28472SOL    HW287250  10.789   6.644   9.627
28473SOL     OW87251   4.684   4.244  13.602
28473SOL    HW187252   4.666   4.182  13.673
28473SOL    HW287253   4.606   4.301  13.600
28474SOL     OW87254  13.275  10.557   9.648
28474SOL    HW187255  13.314  10.635   9.686
28474SOL    HW287256  13.185  10.582   9.628
28475SOL     OW87257   3.723   9.193   1.628
28475SOL    HW187258   3.807   9.229   1.657
28475SOL    HW287259   3.701   9.242   1.549
28476SOL     OW87260   9.155  12.128  11.082
28476SOL    HW187261   9.157  12.045  11.035
28476SOL    HW287262   9.231  12.124  11.141
28477SOL     OW87263  10.527   1.752   1.815
28477SOL    HW187264  10.433   1.752   1.833
28477SOL    HW287265  10.564   1.696   1.882
28478SOL     OW87266   0.295   7.328   0.738
28478SOL    HW187267   0.299   7.243   0.782
28478SOL    HW287268   0.366   7.325   0.673
28479SOL     OW87269   4.669   0.297   3.334
28479SOL    HW187270   4.601   0.232   3.348
28479SOL    HW287271   4.737   0.251   3.286
28480SOL     OW87272   5.229   2.288   9.669
28480SOL    HW187273   5.275   2.236   9.604
28480SOL    HW287274   5.152   2.236   9.692
28481SOL     OW87275   8.006   4.878   0.926
28481SOL    HW187276   8.045   4.893   0.840
28481SOL    HW287277   7.917   4.847   0.907
28482SOL     OW87278   6.425   1.920   0.286
28482SOL    HW187279   6.334   1.943   0.307
28482SOL    HW287280   6.458   1.876   0.364
28483SOL     OW87281  14.861  13.992   8.628
28483SOL    HW187282   0.057  14.047   8.650
28483SOL    HW287283  14.827  14.029   8.547
28484SOL     OW87284  14.442   0.561   1.734
28484SOL    HW187285  14.366   0.577   1.789
28484SOL    HW287286  14.517   0.569   1.793
28485SOL     OW87287  12.632  12.579   0.546
28485SOL    HW187288  12.725  12.557   0.550
28485SOL    HW287289  12.622  12.655   0.603
28486SOL     OW87290  10.342   4.412  14.715
28486SOL    HW187291  10.311   4.464  14.790
28486SOL    HW287292  10.262   4.388  14.668
28487SOL     OW87293  12.716  10.438   5.713
28487SOL    HW187294  12.635  10.452   5.763
28487SOL    HW287295  12.699  10.478   5.628
28488SOL     OW87296  13.005  12.021  14.622
28488SOL    HW187297  12.944  11.990  14.556
28488SOL    HW287298  12.993  11.962  14.696
28489SOL     OW87299   0.820  13.389  11.612
28489SOL    HW187300   0.783  13.448  11.678
28489SOL    HW287301   0.914  13.405  11.616
28490SOL     OW87302  11.337   7.809  11.106
28490SOL    HW187303  11.378   7.752  11.171
28490SOL    HW287304  11.255   7.836  11.146
28491SOL     OW87305  12.333  12.035   6.325
28491SOL    HW187306  12.334  12.086   6.244
28491SOL    HW287307  12.424  12.007   6.337
28492SOL     OW87308   0.992  10.032  12.372
28492SOL    HW187309   1.046  10.053  12.449
28492SOL    HW287310   0.957   9.945  12.390
28493SOL     OW87311   7.794   9.154  13.136
28493SOL    HW187312   7.752   9.079  13.177
28493SOL    HW287313   7.835   9.202  13.208
28494SOL     OW87314   3.815  11.983   1.584
28494SOL    HW187315   3.910  11.987   1.573
28494SOL    HW287316   3.799  12.019   1.671
28495SOL     OW87317   0.568   7.167   5.563
28495SOL    HW187318   0.577   7.110   5.487
28495SOL    HW287319   0.475   7.166   5.584
28496SOL     OW87320  13.179   5.273   5.629
28496SOL    HW187321  13.124   5.322   5.689
28496SOL    HW287322  13.175   5.182   5.660
28497SOL     OW87323   0.969  14.786   6.083
28497SOL    HW187324   0.983  14.855   6.017
28497SOL    HW287325   1.033  14.719   6.062
28498SOL     OW87326   1.647   7.045  10.237
28498SOL    HW187327   1.606   7.130  10.258
28498SOL    HW287328   1.628   6.991  10.313
28499SOL     OW87329   1.035  13.996  14.093
28499SOL    HW187330   1.032  14.049  14.172
28499SOL    HW287331   1.088  14.046  14.032
28500SOL     OW87332   9.924   6.305   4.609
28500SOL    HW187333   9.996   6.264   4.561
28500SOL    HW287334   9.889   6.370   4.548
28501SOL     OW87335   7.380   3.070  10.985
28501SOL    HW187336   7.430   3.043  11.062
28501SOL    HW287337   7.438   3.131  10.939
28502SOL     OW87338   1.084  11.691  12.387
28502SOL    HW187339   1.176  11.702  12.410
28502SOL    HW287340   1.045  11.649  12.464
28503SOL     OW87341   0.118   8.363   0.160
28503SOL    HW187342   0.043   8.345   0.103
28503SOL    HW287343   0.159   8.440   0.122
28504SOL     OW87344  13.558   5.919   3.993
28504SOL    HW187345  13.477   5.969   4.008
28504SOL    HW287346  13.616   5.980   3.948
28505SOL     OW87347  13.305   7.145  13.684
28505SOL    HW187348  13.247   7.099  13.624
28505SOL    HW287349  13.311   7.087  13.760
28506SOL     OW87350   4.706   5.911  14.243
28506SOL    HW187351   4.683   5.966  14.318
28506SOL    HW287352   4.675   5.824  14.266
28507SOL     OW87353   0.698   0.736   3.996
28507SOL    HW187354   0.709   0.812   4.053
28507SOL    HW287355   0.775   0.682   4.012
28508SOL     OW87356   0.647   5.565  10.320
28508SOL    HW187357   0.622   5.636  10.380
28508SOL    HW287358   0.694   5.610  10.250
28509SOL     OW87359   1.449  10.380   4.980
28509SOL    HW187360   1.382  10.319   4.950
28509SOL    HW287361   1.531  10.346   4.945
28510SOL     OW87362   6.769  11.384   7.615
28510SOL    HW187363   6.835  11.430   7.563
28510SOL    HW287364   6.693  11.441   7.613
28511SOL     OW87365   7.612  12.652   2.869
28511SOL    HW187366   7.662  12.570   2.873
28511SOL    HW287367   7.662  12.707   2.809
28512SOL     OW87368   4.539   2.524   8.883
28512SOL    HW187369   4.506   2.508   8.971
28512SOL    HW287370   4.612   2.584   8.894
28513SOL     OW87371   8.968   0.770  11.974
28513SOL    HW187372   8.955   0.810  12.060
28513SOL    HW287373   9.005   0.684  11.992
28514SOL     OW87374  12.889   8.077  11.829
28514SOL    HW187375  12.912   8.158  11.782
28514SOL    HW287376  12.849   8.021  11.762
28515SOL     OW87377   1.481   6.462  14.546
28515SOL    HW187378   1.543   6.531  14.572
28515SOL    HW287379   1.403   6.510  14.516
28516SOL     OW87380   6.523   4.021  11.745
28516SOL    HW187381   6.588   4.061  11.686
28516SOL    HW287382   6.484   4.096  11.790
28517SOL     OW87383  13.617   0.297   2.903
28517SOL    HW187384  13.531   0.323   2.936
28517SOL    HW287385  13.602   0.275   2.811
28518SOL     OW87386  10.137   2.038   5.980
28518SOL    HW187387  10.221   1.996   5.999
28518SOL    HW287388  10.130   2.109   6.043
28519SOL     OW87389   1.541   2.232  11.230
28519SOL    HW187390   1.608   2.232  11.298
28519SOL    HW287391   1.478   2.166  11.258
28520SOL     OW87392  12.525  12.887   2.394
28520SOL    HW187393  12.486  12.878   2.307
28520SOL    HW287394  12.532  12.797   2.427
28521SOL     OW87395  12.655  14.288   4.548
28521SOL    HW187396  12.675  14.377   4.518
28521SOL    HW287397  12.571  14.268   4.507
28522SOL     OW87398   9.002   8.995  10.799
28522SOL    HW187399   9.091   8.987  10.833
28522SOL    HW287400   9.010   9.056  10.726
28523SOL     OW87401  13.590   4.685  12.094
28523SOL    HW187402  13.615   4.594  12.108
28523SOL    HW287403  13.603   4.700  12.001
28524SOL     OW87404  11.612   2.929   2.649
28524SOL    HW187405  11.661   2.896   2.724
28524SOL    HW287406  11.524   2.945   2.683
28525SOL     OW87407  12.780   0.219  14.326
28525SOL    HW187408  12.820   0.142  14.285
28525SOL    HW287409  12.845   0.288  14.318
28526SOL     OW87410  13.229  12.264  13.536
28526SOL    HW187411  13.193  12.305  13.615
28526SOL    HW287412  13.320  12.292  13.534
28527SOL     OW87413   9.477   4.509   3.253
28527SOL    HW187414   9.539   4.484   3.321
28527SOL    HW287415   9.430   4.584   3.290
28528SOL     OW87416  11.915   2.339   5.571
28528SOL    HW187417  11.893   2.309   5.659
28528SOL    HW287418  11.890   2.267   5.514
28529SOL     OW87419  13.097  12.661   0.982
28529SOL    HW187420  13.019  12.606   0.984
28529SOL    HW287421  13.136  12.645   0.896
28530SOL     OW87422  12.344   3.976   3.384
28530SOL    HW187423  12.312   3.888   3.363
28530SOL    HW287424  12.352   3.976   3.479
28531SOL     OW87425   1.817   9.028   6.310
28531SOL    HW187426   1.851   9.004   6.224
28531SOL    HW287427   1.799   8.944   6.353
28532SOL     OW87428   9.165   7.381  13.446
28532SOL    HW187429   9.227   7.339  13.386
28532SOL    HW287430   9.157   7.319  13.519
28533SOL     OW87431   7.361   1.434   3.450
28533SOL    HW187432   7.395   1.387   3.374
28533SOL    HW287433   7.298   1.496   3.413
28534SOL     OW87434  13.719  10.870   8.260
28534SOL    HW187435  13.625  10.856   8.255
28534SOL    HW287436  13.755  10.787   8.290
28535SOL     OW87437   0.276  12.701   5.821
28535SOL    HW187438   0.328  12.667   5.748
28535SOL    HW287439   0.340  12.721   5.889
28536SOL     OW87440   2.680   7.574   4.127
28536SOL    HW187441   2.772   7.573   4.152
28536SOL    HW287442   2.635   7.609   4.204
28537SOL     OW87443  12.406   9.617   2.828
28537SOL    HW187444  12.320   9.603   2.866
28537SOL    HW287445  12.458   9.656   2.899
28538SOL     OW87446   6.347   6.967   9.242
28538SOL    HW187447   6.364   6.895   9.303
28538SOL    HW287448   6.343   6.926   9.156
28539SOL     OW87449  14.816  12.742   9.859
28539SOL    HW187450  14.873  12.665   9.863
28539SOL    HW287451  14.775  12.746   9.945
28540SOL     OW87452   3.653   2.286   3.323
28540SOL    HW187453   3.701   2.262   3.402
28540SOL    HW287454   3.561   2.281   3.348
28541SOL     OW87455  12.165   8.368   2.215
28541SOL    HW187456  12.227   8.308   2.172
28541SOL    HW287457  12.114   8.404   2.143
28542SOL     OW87458   7.531  14.243   2.064
28542SOL    HW187459   7.436  14.231   2.067
28542SOL    HW287460   7.567  14.167   2.109
28543SOL     OW87461   9.593  10.912   4.638
28543SOL    HW187462   9.541  10.852   4.692
28543SOL    HW287463   9.681  10.872   4.638
28544SOL     OW87464  14.225   6.313   7.685
28544SOL    HW187465  14.157   6.380   7.675
28544SOL    HW287466  14.177   6.230   7.690
28545SOL     OW87467   6.203  12.689  13.523
28545SOL    HW187468   6.145  12.716  13.594
28545SOL    HW287469   6.147  12.635  13.466
28546SOL     OW87470  13.085   2.572   0.248
28546SOL    HW187471  13.057   2.586   0.338
28546SOL    HW287472  13.030   2.631   0.196
28547SOL     OW87473   5.809   8.960  11.584
28547SOL    HW187474   5.739   9.005  11.537
28547SOL    HW287475   5.881   9.023  11.586
28548SOL     OW87476  13.291   2.927   4.728
28548SOL    HW187477  13.360   2.864   4.709
28548SOL    HW287478  13.302   2.948   4.821
28549SOL     OW87479   5.758  13.281  11.422
28549SOL    HW187480   5.734  13.318  11.507
28549SOL    HW287481   5.687  13.306  11.364
28550SOL     OW87482  13.209   7.084   2.221
28550SOL    HW187483  13.278   7.036   2.175
28550SOL    HW287484  13.184   7.027   2.294
28551SOL     OW87485   2.463  13.343   6.516
28551SOL    HW187486   2.372  13.313   6.516
28551SOL    HW287487   2.457  13.438   6.515
28552SOL     OW87488  14.649   3.776  14.243
28552SOL    HW187489  14.626   3.686  14.267
28552SOL    HW287490  14.657   3.773  14.148
28553SOL     OW87491   1.998  11.121   7.211
28553SOL    HW187492   1.967  11.044   7.163
28553SOL    HW287493   2.090  11.102   7.228
28554SOL     OW87494  10.668  10.679   8.856
28554SOL    HW187495  10.594  10.687   8.796
28554SOL    HW287496  10.632  10.703   8.942
28555SOL     OW87497  13.241  13.176   9.279
28555SOL    HW187498  13.258  13.109   9.214
28555SOL    HW287499  13.324  13.186   9.326
28556SOL     OW87500   7.482   3.840   1.340
28556SOL    HW187501   7.453   3.904   1.275
28556SOL    HW287502   7.576   3.855   1.348
28557SOL     OW87503   4.152   0.639   4.621
28557SOL    HW187504   4.179   0.553   4.588
28557SOL    HW287505   4.057   0.635   4.623
28558SOL     OW87506  12.137   7.211  11.213
28558SOL    HW187507  12.168   7.134  11.165
28558SOL    HW287508  12.062   7.242  11.162
28559SOL     OW87509   5.431   2.095  14.560
28559SOL    HW187510   5.354   2.124  14.609
28559SOL    HW287511   5.505   2.136  14.605
28560SOL     OW87512  11.904   5.929   2.561
28560SOL    HW187513  11.880   6.022   2.569
28560SOL    HW287514  11.987   5.922   2.607
28561SOL     OW87515  11.024   5.719   1.515
28561SOL    HW187516  10.968   5.656   1.561
28561SOL    HW287517  11.095   5.665   1.480
28562SOL     OW87518  10.407  11.127   1.059
28562SOL    HW187519  10.333  11.161   1.007
28562SOL    HW287520  10.375  11.044   1.094
28563SOL     OW87521  13.559  13.279  14.437
28563SOL    HW187522  13.560  13.370  14.405
28563SOL    HW287523  13.507  13.283  14.517
28564SOL     OW87524  14.505   9.465   4.195
28564SOL    HW187525  14.585   9.482   4.245
28564SOL    HW287526  14.497   9.541   4.137
28565SOL     OW87527   5.310   0.970  10.931
28565SOL    HW187528   5.309   0.895  10.990
28565SOL    HW287529   5.218   0.985  10.909
28566SOL     OW87530  13.427  11.282   0.154
28566SOL    HW187531  13.353  11.226   0.175
28566SOL    HW287532  13.410  11.364   0.201
28567SOL     OW87533   4.138   8.985  12.501
28567SOL    HW187534   4.088   8.991  12.419
28567SOL    HW287535   4.072   8.985  12.570
28568SOL     OW87536   7.036  11.315  13.296
28568SOL    HW187537   6.966  11.280  13.351
28568SOL    HW287538   7.117  11.283  13.338
28569SOL     OW87539   8.207  13.634   7.486
28569SOL    HW187540   8.201  13.634   7.581
28569SOL    HW287541   8.212  13.727   7.462
28570SOL     OW87542  12.246  11.330   4.631
28570SOL    HW187543  12.245  11.415   4.588
28570SOL    HW287544  12.163  11.290   4.605
28571SOL     OW87545   6.381   6.877   9.959
28571SOL    HW187546   6.315   6.846   9.897
28571SOL    HW287547   6.358   6.835  10.042
28572SOL     OW87548   5.795   8.039   1.288
28572SOL    HW187549   5.736   8.053   1.362
28572SOL    HW287550   5.871   8.094   1.307
28573SOL     OW87551   3.732  12.270   6.836
28573SOL    HW187552   3.663  12.205   6.842
28573SOL    HW287553   3.745  12.283   6.742
28574SOL     OW87554   3.117   7.660   7.490
28574SOL    HW187555   3.200   7.676   7.444
28574SOL    HW287556   3.066   7.741   7.476
28575SOL     OW87557   7.173   4.561  13.502
28575SOL    HW187558   7.265   4.581  13.522
28575SOL    HW287559   7.175   4.524  13.414
28576SOL     OW87560   2.978   7.030   2.975
28576SOL    HW187561   3.025   7.071   3.047
28576SOL    HW287562   2.895   7.076   2.971
28577SOL     OW87563   5.013   5.421   9.855
28577SOL    HW187564   5.032   5.346   9.911
28577SOL    HW287565   4.966   5.482   9.911
28578SOL     OW87566   1.974   4.331   0.443
28578SOL    HW187567   2.028   4.254   0.423
28578SOL    HW287568   1.887   4.308   0.412
28579SOL     OW87569   0.526   4.678  13.424
28579SOL    HW187570   0.463   4.606  13.423
28579SOL    HW287571   0.610   4.637  13.400
28580SOL     OW87572   6.995   6.098   4.244
28580SOL    HW187573   6.951   6.021   4.209
28580SOL    HW287574   6.953   6.113   4.329
28581SOL     OW87575   9.217   1.703   4.083
28581SOL    HW187576   9.249   1.648   4.155
28581SOL    HW287577   9.136   1.659   4.054
28582SOL     OW87578   9.742  12.176   7.715
28582SOL    HW187579   9.727  12.258   7.762
28582SOL    HW287580   9.752  12.111   7.784
28583SOL     OW87581  11.840   8.048   8.692
28583SOL    HW187582  11.864   8.126   8.741
28583SOL    HW287583  11.758   8.018   8.731
28584SOL     OW87584  13.170   7.840   7.564
28584SOL    HW187585  13.144   7.930   7.584
28584SOL    HW287586  13.242   7.822   7.624
28585SOL     OW87587   7.964  10.937  11.618
28585SOL    HW187588   7.913  10.863  11.585
28585SOL    HW287589   7.961  10.928  11.713
28586SOL     OW87590   7.617   5.426   9.736
28586SOL    HW187591   7.663   5.493   9.787
28586SOL    HW287592   7.684   5.359   9.721
28587SOL     OW87593   0.104  13.960   8.166
28587SOL    HW187594   0.165  14.002   8.227
28587SOL    HW287595   0.058  13.895   8.220
28588SOL     OW87596   6.279  10.330  10.973
28588SOL    HW187597   6.229  10.315  10.893
28588SOL    HW287598   6.352  10.269  10.968
28589SOL     OW87599   1.921   2.070  14.829
28589SOL    HW187600   1.948   2.038   0.036
28589SOL    HW287601   1.982   2.028  14.768
28590SOL     OW87602   1.868  13.626   7.086
28590SOL    HW187603   1.837  13.688   7.152
28590SOL    HW287604   1.872  13.676   7.005
28591SOL     OW87605  13.227   5.836   7.870
28591SOL    HW187606  13.212   5.788   7.952
28591SOL    HW287607  13.269   5.918   7.897
28592SOL     OW87608   2.581   9.004   5.633
28592SOL    HW187609   2.639   9.013   5.557
28592SOL    HW287610   2.579   9.091   5.672
28593SOL     OW87611   3.476  13.121  13.972
28593SOL    HW187612   3.528  13.183  13.921
28593SOL    HW287613   3.390  13.162  13.980
28594SOL     OW87614   1.822   5.112   4.956
28594SOL    HW187615   1.817   5.065   5.039
28594SOL    HW287616   1.824   5.044   4.889
28595SOL     OW87617  12.232   1.541  13.762
28595SOL    HW187618  12.240   1.635  13.777
28595SOL    HW287619  12.168   1.511  13.827
28596SOL     OW87620  11.189   5.567   5.867
28596SOL    HW187621  11.123   5.540   5.931
28596SOL    HW287622  11.141   5.615   5.801
28597SOL     OW87623   4.435   6.503   1.710
28597SOL    HW187624   4.469   6.430   1.658
28597SOL    HW287625   4.396   6.462   1.787
28598SOL     OW87626   3.191   1.382  10.536
28598SOL    HW187627   3.135   1.318  10.493
28598SOL    HW287628   3.269   1.387  10.480
28599SOL     OW87629   7.352  14.141   9.793
28599SOL    HW187630   7.265  14.101   9.782
28599SOL    HW287631   7.355  14.165   9.886
28600SOL     OW87632  12.865   0.041   5.365
28600SOL    HW187633  12.874  14.865   5.287
28600SOL    HW287634  12.873   0.130   5.332
28601SOL     OW87635   5.928  10.171   8.604
28601SOL    HW187636   5.971  10.169   8.690
28601SOL    HW287637   5.899  10.081   8.590
28602SOL     OW87638   2.551  13.757   7.641
28602SOL    HW187639   2.599  13.777   7.561
28602SOL    HW287640   2.603  13.688   7.683
28603SOL     OW87641   2.799   8.923  13.068
28603SOL    HW187642   2.829   9.006  13.030
28603SOL    HW287643   2.759   8.876  12.994
28604SOL     OW87644  13.399  14.687   8.975
28604SOL    HW187645  13.382  14.622   9.043
28604SOL    HW287646  13.456  14.643   8.912
28605SOL     OW87647   5.130   8.848  13.619
28605SOL    HW187648   5.066   8.844  13.549
28605SOL    HW287649   5.203   8.794  13.588
28606SOL     OW87650   8.089   8.359   4.557
28606SOL    HW187651   8.037   8.439   4.550
28606SOL    HW287652   8.140   8.357   4.475
28607SOL     OW87653   4.408  10.630   3.203
28607SOL    HW187654   4.388  10.716   3.166
28607SOL    HW287655   4.490  10.643   3.251
28608SOL     OW87656   1.229  13.097   8.329
28608SOL    HW187657   1.134  13.096   8.328
28608SOL    HW287658   1.255  13.032   8.264
28609SOL     OW87659   4.513   1.601   4.695
28609SOL    HW187660   4.449   1.558   4.751
28609SOL    HW287661   4.570   1.648   4.756
28610SOL     OW87662  12.113   0.975   0.468
28610SOL    HW187663  12.133   0.883   0.488
28610SOL    HW287664  12.038   0.971   0.409
28611SOL     OW87665   7.998   7.928   3.831
28611SOL    HW187666   8.038   7.986   3.896
28611SOL    HW287667   8.069   7.909   3.770
28612SOL     OW87668  11.631  12.025   5.354
28612SOL    HW187669  11.652  12.086   5.283
28612SOL    HW287670  11.565  11.967   5.318
28613SOL     OW87671   5.946   0.611  10.135
28613SOL    HW187672   5.919   0.634  10.224
28613SOL    HW287673   5.960   0.696  10.092
28614SOL     OW87674   6.001   8.879   8.832
28614SOL    HW187675   6.045   8.842   8.755
28614SOL    HW287676   6.064   8.867   8.903
28615SOL     OW87677   1.982  13.922   0.020
28615SOL    HW187678   2.021  13.848   0.066
28615SOL    HW287679   1.972  13.989   0.087
28616SOL     OW87680   2.330  14.477   5.088
28616SOL    HW187681   2.424  14.486   5.070
28616SOL    HW287682   2.318  14.384   5.106
28617SOL     OW87683   1.146   9.124   2.773
28617SOL    HW187684   1.170   9.166   2.856
28617SOL    HW287685   1.054   9.099   2.785
28618SOL     OW87686  11.019  10.343  11.759
28618SOL    HW187687  10.989  10.303  11.677
28618SOL    HW287688  11.094  10.396  11.734
28619SOL     OW87689  13.549   3.023  14.668
28619SOL    HW187690  13.494   2.964  14.720
28619SOL    HW287691  13.636   3.015  14.706
28620SOL     OW87692   5.769  10.924   1.457
28620SOL    HW187693   5.858  10.891   1.469
28620SOL    HW287694   5.712  10.856   1.492
28621SOL     OW87695   2.047   1.496   3.264
28621SOL    HW187696   2.082   1.452   3.341
28621SOL    HW287697   1.954   1.510   3.284
28622SOL     OW87698   4.671  13.245  11.700
28622SOL    HW187699   4.584  13.271  11.669
28622SOL    HW287700   4.655  13.163  11.747
28623SOL     OW87701   5.874   8.924   5.493
28623SOL    HW187702   5.831   8.862   5.435
28623SOL    HW287703   5.927   8.870   5.552
28624SOL     OW87704   0.833  10.022   6.144
28624SOL    HW187705   0.914   9.971   6.138
28624SOL    HW287706   0.843  10.071   6.226
28625SOL     OW87707  12.047   0.284   5.472
28625SOL    HW187708  12.066   0.287   5.566
28625SOL    HW287709  11.969   0.338   5.461
28626SOL     OW87710   5.876   9.015   4.163
28626SOL    HW187711   5.786   8.982   4.168
28626SOL    HW287712   5.903   8.999   4.072
28627SOL     OW87713   4.255   0.040  14.245
28627SOL    HW187714   4.269  14.825  14.248
28627SOL    HW287715   4.165   0.050  14.214
28628SOL     OW87716   2.022   4.426  13.901
28628SOL    HW187717   2.068   4.386  13.828
28628SOL    HW287718   2.004   4.354  13.961
28629SOL     OW87719   5.690  12.582   4.788
28629SOL    HW187720   5.679  12.557   4.696
28629SOL    HW287721   5.680  12.677   4.788
28630SOL     OW87722   9.468  14.197   2.949
28630SOL    HW187723   9.439  14.114   2.985
28630SOL    HW287724   9.486  14.178   2.856
28631SOL     OW87725   0.675   9.769   9.119
28631SOL    HW187726   0.691   9.676   9.137
28631SOL    HW287727   0.741   9.815   9.171
28632SOL     OW87728  14.201   3.421   7.017
28632SOL    HW187729  14.279   3.389   6.972
28632SOL    HW287730  14.235   3.466   7.094
28633SOL     OW87731   6.746  14.098   2.085
28633SOL    HW187732   6.804  14.045   2.140
28633SOL    HW287733   6.744  14.052   2.001
28634SOL     OW87734  13.651   1.882  10.920
28634SOL    HW187735  13.605   1.834  10.989
28634SOL    HW287736  13.615   1.971  10.924
28635SOL     OW87737   4.434   7.631   8.509
28635SOL    HW187738   4.500   7.698   8.528
28635SOL    HW287739   4.381   7.668   8.439
28636SOL     OW87740   0.104   1.131  13.856
28636SOL    HW187741   0.161   1.208  13.861
28636SOL    HW287742   0.115   1.098  13.768
28637SOL     OW87743   9.367  12.557  12.995
28637SOL    HW187744   9.347  12.476  12.947
28637SOL    HW287745   9.285  12.581  13.037
28638SOL     OW87746   6.455   1.702   8.296
28638SOL    HW187747   6.390   1.765   8.329
28638SOL    HW287748   6.414   1.664   8.219
28639SOL     OW87749   9.294  11.082  10.691
28639SOL    HW187750   9.361  11.147  10.668
28639SOL    HW287751   9.235  11.128  10.751
28640SOL     OW87752   7.388   4.520   5.563
28640SOL    HW187753   7.355   4.507   5.652
28640SOL    HW287754   7.442   4.443   5.545
28641SOL     OW87755   4.683   6.788   4.221
28641SOL    HW187756   4.768   6.819   4.251
28641SOL    HW287757   4.644   6.862   4.176
28642SOL     OW87758  10.663  10.025   3.700
28642SOL    HW187759  10.637  10.038   3.609
28642SOL    HW287760  10.607  10.085   3.749
28643SOL     OW87761   9.133   5.909  12.667
28643SOL    HW187762   9.146   5.846  12.737
28643SOL    HW287763   9.155   5.994  12.707
28644SOL     OW87764   5.541  14.306  14.095
28644SOL    HW187765   5.521  14.269  14.009
28644SOL    HW287766   5.636  14.294  14.105
28645SOL     OW87767   0.455   4.091   2.384
28645SOL    HW187768   0.454   4.005   2.427
28645SOL    HW287769   0.472   4.153   2.455
28646SOL     OW87770   8.244   0.785  12.245
28646SOL    HW187771   8.315   0.761  12.305
28646SOL    HW287772   8.209   0.866  12.282
28647SOL     OW87773   1.502   7.325   8.996
28647SOL    HW187774   1.586   7.331   9.041
28647SOL    HW287775   1.441   7.295   9.063
28648SOL     OW87776   0.019   5.167   4.739
28648SOL    HW187777  14.817   5.117   4.734
28648SOL    HW287778   0.066   5.143   4.659
28649SOL     OW87779  12.588  11.825   4.817
28649SOL    HW187780  12.637  11.825   4.735
28649SOL    HW287781  12.617  11.746   4.862
28650SOL     OW87782  10.923  12.983   0.492
28650SOL    HW187783  10.843  13.034   0.502
28650SOL    HW287784  10.961  13.012   0.409
28651SOL     OW87785   2.734   4.988  13.785
28651SOL    HW187786   2.682   5.015  13.710
28651SOL    HW287787   2.777   5.068  13.816
28652SOL     OW87788   1.185  12.011   6.518
28652SOL    HW187789   1.098  11.991   6.553
28652SOL    HW287790   1.171  12.088   6.462
28653SOL     OW87791   1.613   5.780   5.510
28653SOL    HW187792   1.586   5.768   5.419
28653SOL    HW287793   1.680   5.848   5.506
28654SOL     OW87794   5.858   6.308   5.388
28654SOL    HW187795   5.811   6.239   5.434
28654SOL    HW287796   5.902   6.358   5.457
28655SOL     OW87797   7.819   5.938   3.899
28655SOL    HW187798   7.749   5.947   3.834
28655SOL    HW287799   7.894   5.983   3.860
28656SOL     OW87800   3.728   2.472   8.247
28656SOL    HW187801   3.642   2.514   8.238
28656SOL    HW287802   3.786   2.542   8.276
28657SOL     OW87803   9.486   6.148   5.340
28657SOL    HW187804   9.557   6.212   5.347
28657SOL    HW287805   9.493   6.116   5.250
28658SOL     OW87806   1.723  10.449  14.424
28658SOL    HW187807   1.629  10.440  14.437
28658SOL    HW287808   1.755  10.360  14.414
28659SOL     OW87809   6.610   1.209   5.291
28659SOL    HW187810   6.540   1.274   5.292
28659SOL    HW287811   6.656   1.223   5.374
28660SOL     OW87812   3.594   6.762   4.209
28660SOL    HW187813   3.552   6.832   4.159
28660SOL    HW287814   3.584   6.684   4.155
28661SOL     OW87815   6.048   0.184  11.208
28661SOL    HW187816   5.979   0.149  11.152
28661SOL    HW287817   6.021   0.162  11.297
28662SOL     OW87818  13.198  12.409   5.301
28662SOL    HW187819  13.283  12.451   5.289
28662SOL    HW287820  13.152  12.422   5.218
28663SOL     OW87821   1.252   4.559   8.915
28663SOL    HW187822   1.224   4.645   8.946
28663SOL    HW287823   1.192   4.498   8.958
28664SOL     OW87824   7.856  13.594   1.668
28664SOL    HW187825   7.939  13.580   1.714
28664SOL    HW287826   7.867  13.679   1.624
28665SOL     OW87827   9.114   9.008  11.955
28665SOL    HW187828   9.147   8.946  12.021
28665SOL    HW287829   9.179   9.078  11.954
28666SOL     OW87830   7.826   3.108   1.191
28666SOL    HW187831   7.856   3.060   1.268
28666SOL    HW287832   7.880   3.074   1.120
28667SOL     OW87833   5.364   6.153   7.378
28667SOL    HW187834   5.450   6.146   7.418
28667SOL    HW287835   5.339   6.063   7.359
28668SOL     OW87836   0.262   6.737   5.251
28668SOL    HW187837   0.310   6.683   5.188
28668SOL    HW287838   0.170   6.726   5.226
28669SOL     OW87839   0.071   2.088   9.967
28669SOL    HW187840   0.145   2.127  10.013
28669SOL    HW287841   0.108   2.009   9.926
28670SOL     OW87842   9.204  11.400  11.487
28670SOL    HW187843   9.216  11.330  11.552
28670SOL    HW287844   9.157  11.359  11.415
28671SOL     OW87845   5.890   4.021  14.421
28671SOL    HW187846   5.834   3.944  14.408
28671SOL    HW287847   5.853   4.065  14.498
28672SOL     OW87848   1.091   2.400   2.529
28672SOL    HW187849   1.116   2.334   2.594
28672SOL    HW287850   1.011   2.440   2.564
28673SOL     OW87851   0.159   1.103   3.168
28673SOL    HW187852   0.250   1.083   3.148
28673SOL    HW287853   0.131   1.162   3.098
28674SOL     OW87854   7.874   7.323  11.684
28674SOL    HW187855   7.911   7.279  11.608
28674SOL    HW287856   7.940   7.386  11.711
28675SOL     OW87857   5.538   5.236  14.291
28675SOL    HW187858   5.616   5.241  14.236
28675SOL    HW287859   5.543   5.151  14.334
28676SOL     OW87860   6.560  11.103  11.833
28676SOL    HW187861   6.538  11.179  11.888
28676SOL    HW287862   6.534  11.130  11.745
28677SOL     OW87863   7.231  12.786   3.679
28677SOL    HW187864   7.265  12.865   3.637
28677SOL    HW287865   7.249  12.716   3.616
28678SOL     OW87866   6.359   3.191   3.222
28678SOL    HW187867   6.331   3.208   3.312
28678SOL    HW287868   6.378   3.098   3.220
28679SOL     OW87869  13.763  13.176   9.378
28679SOL    HW187870  13.698  13.241   9.351
28679SOL    HW287871  13.794  13.206   9.463
28680SOL     OW87872   7.024   6.564   8.184
28680SOL    HW187873   6.953   6.584   8.245
28680SOL    HW287874   6.979   6.529   8.107
28681SOL     OW87875  10.688   5.405   3.157
28681SOL    HW187876  10.650   5.328   3.199
28681SOL    HW287877  10.771   5.374   3.121
28682SOL     OW87878   2.109  10.850   2.263
28682SOL    HW187879   2.122  10.920   2.326
28682SOL    HW287880   2.195  10.809   2.254
28683SOL     OW87881  11.648  11.222  11.155
28683SOL    HW187882  11.731  11.226  11.106
28683SOL    HW287883  11.581  11.243  11.089
28684SOL     OW87884  13.484   6.326   5.071
28684SOL    HW187885  13.549   6.306   5.003
28684SOL    HW287886  13.469   6.420   5.062
28685SOL     OW87887   5.121   9.244   0.637
28685SOL    HW187888   5.072   9.182   0.583
28685SOL    HW287889   5.077   9.328   0.623
28686SOL     OW87890   1.715  11.150   7.781
28686SOL    HW187891   1.693  11.063   7.750
28686SOL    HW287892   1.724  11.203   7.702
28687SOL     OW87893  13.349   3.767   8.104
28687SOL    HW187894  13.352   3.723   8.018
28687SOL    HW287895  13.374   3.857   8.085
28688SOL     OW87896   6.270   9.708  14.572
28688SOL    HW187897   6.281   9.792  14.528
28688SOL    HW287898   6.184   9.712  14.612
28689SOL     OW87899   1.231   5.105  11.875
28689SOL    HW187900   1.175   5.028  11.880
28689SOL    HW287901   1.319   5.072  11.890
28690SOL     OW87902   3.908   6.113   3.539
28690SOL    HW187903   3.982   6.142   3.592
28690SOL    HW287904   3.874   6.193   3.500
28691SOL     OW87905   9.161   1.939  13.819
28691SOL    HW187906   9.148   1.969  13.908
28691SOL    HW287907   9.072   1.924  13.786
28692SOL     OW87908   7.469  10.622   7.957
28692SOL    HW187909   7.406  10.666   8.014
28692SOL    HW287910   7.529  10.578   8.018
28693SOL     OW87911  14.779  13.822   3.721
28693SOL    HW187912  14.735  13.821   3.636
28693SOL    HW287913  14.871  13.805   3.700
28694SOL     OW87914   7.231  10.855   9.883
28694SOL    HW187915   7.200  10.938   9.919
28694SOL    HW287916   7.322  10.849   9.910
28695SOL     OW87917  14.227   4.100   5.841
28695SOL    HW187918  14.296   4.162   5.818
28695SOL    HW287919  14.241   4.025   5.783
28696SOL     OW87920   0.496   5.128   6.221
28696SOL    HW187921   0.534   5.163   6.141
28696SOL    HW287922   0.422   5.186   6.240
28697SOL     OW87923   2.747   0.026   8.710
28697SOL    HW187924   2.761  14.814   8.735
28697SOL    HW287925   2.661   0.048   8.745
28698SOL     OW87926  11.280   7.643   1.247
28698SOL    HW187927  11.247   7.569   1.299
28698SOL    HW287928  11.239   7.632   1.162
28699SOL     OW87929  14.330  11.895   7.821
28699SOL    HW187930  14.242  11.869   7.794
28699SOL    HW287931  14.316  11.958   7.892
28700SOL     OW87932   3.511   3.601   8.798
28700SOL    HW187933   3.496   3.550   8.719
28700SOL    HW287934   3.516   3.536   8.868
28701SOL     OW87935  12.686  11.395  14.517
28701SOL    HW187936  12.671  11.443  14.437
28701SOL    HW287937  12.602  11.395  14.563
28702SOL     OW87938  12.628  12.903   7.644
28702SOL    HW187939  12.583  12.947   7.572
28702SOL    HW287940  12.669  12.827   7.603
28703SOL     OW87941   9.647  13.345   3.576
28703SOL    HW187942   9.587  13.280   3.539
28703SOL    HW287943   9.698  13.295   3.640
28704SOL     OW87944   7.357   5.929   4.849
28704SOL    HW187945   7.263   5.938   4.834
28704SOL    HW287946   7.366   5.847   4.899
28705SOL     OW87947   1.880   0.456   2.340
28705SOL    HW187948   1.963   0.502   2.330
28705SOL    HW287949   1.813   0.524   2.332
28706SOL     OW87950   5.637   5.550  14.750
28706SOL    HW187951   5.625   5.635  14.706
28706SOL    HW287952   5.727   5.526  14.730
28707SOL     OW87953   7.045  10.346  11.476
28707SOL    HW187954   7.068  10.273  11.419
28707SOL    HW287955   7.009  10.412  11.416
28708SOL     OW87956   7.062   9.770   0.281
28708SOL    HW187957   7.092   9.829   0.350
28708SOL    HW287958   7.129   9.700   0.279
28709SOL     OW87959   0.282  11.239   6.681
28709SOL    HW187960   0.261  11.265   6.591
28709SOL    HW287961   0.205  11.190   6.710
28710SOL     OW87962  10.935   5.987   7.328
28710SOL    HW187963  10.846   5.954   7.325
28710SOL    HW287964  10.975   5.959   7.246
28711SOL     OW87965   0.753   5.827  12.304
28711SOL    HW187966   0.704   5.815  12.223
28711SOL    HW287967   0.686   5.852  12.368
28712SOL     OW87968   8.510   1.290   1.455
28712SOL    HW187969   8.601   1.272   1.434
28712SOL    HW287970   8.514   1.355   1.525
28713SOL     OW87971   4.703   2.454   7.930
28713SOL    HW187972   4.723   2.366   7.961
28713SOL    HW287973   4.686   2.444   7.837
28714SOL     OW87974   4.603   9.496  14.415
28714SOL    HW187975   4.680   9.439  14.409
28714SOL    HW287976   4.529   9.435  14.408
28715SOL     OW87977   6.909   9.581  14.481
28715SOL    HW187978   6.836   9.520  14.467
28715SOL    HW287979   6.883   9.661  14.437
28716SOL     OW87980  12.934  10.615  11.295
28716SOL    HW187981  12.941  10.519  11.293
28716SOL    HW287982  12.977  10.643  11.214
28717SOL     OW87983  12.213   4.670   0.475
28717SOL    HW187984  12.172   4.594   0.517
28717SOL    HW287985  12.155   4.692   0.403
28718SOL     OW87986   0.213   2.714  13.035
28718SOL    HW187987   0.217   2.753  12.948
28718SOL    HW287988   0.275   2.641  13.032
28719SOL     OW87989   9.872   7.086   1.394
28719SOL    HW187990   9.784   7.122   1.399
28719SOL    HW287991   9.924   7.140   1.454
28720SOL     OW87992   1.444   7.151   4.012
28720SOL    HW187993   1.476   7.066   3.982
28720SOL    HW287994   1.413   7.195   3.933
28721SOL     OW87995   1.913  10.435  14.043
28721SOL    HW187996   1.873  10.431  13.956
28721SOL    HW287997   2.007  10.423  14.027
28722SOL     OW87998   7.402   7.845  14.708
28722SOL    HW187999   7.394   7.921  14.766
28722SOL    HW288000   7.494   7.821  14.714
28723SOL     OW88001   2.652   0.442   4.156
28723SOL    HW188002   2.691   0.356   4.142
28723SOL    HW288003   2.563   0.424   4.185
28724SOL     OW88004   4.106  13.207   8.933
28724SOL    HW188005   4.198  13.227   8.950
28724SOL    HW288006   4.104  13.111   8.923
28725SOL     OW88007  14.561   0.684   5.716
28725SOL    HW188008  14.619   0.625   5.668
28725SOL    HW288009  14.617   0.727   5.780
28726SOL     OW88010   7.349  11.008  12.724
28726SOL    HW188011   7.283  11.075  12.740
28726SOL    HW288012   7.430  11.057  12.708
28727SOL     OW88013   9.254   2.302   7.129
28727SOL    HW188014   9.191   2.301   7.057
28727SOL    HW288015   9.325   2.246   7.099
28728SOL     OW88016  12.992  10.015  13.707
28728SOL    HW188017  12.995   9.947  13.639
28728SOL    HW288018  12.942   9.975  13.778
28729SOL     OW88019   8.684   3.192  10.461
28729SOL    HW188020   8.596   3.154  10.459
28729SOL    HW288021   8.728   3.148  10.534
28730SOL     OW88022  11.091  11.622   9.728
28730SOL    HW188023  11.111  11.713   9.748
28730SOL    HW288024  11.083  11.580   9.813
28731SOL     OW88025   1.692  12.570   9.839
28731SOL    HW188026   1.695  12.646   9.781
28731SOL    HW288027   1.599  12.553   9.851
28732SOL     OW88028   3.831  12.435   5.783
28732SOL    HW188029   3.833  12.399   5.694
28732SOL    HW288030   3.798  12.364   5.838
28733SOL     OW88031   0.538  13.991   5.605
28733SOL    HW188032   0.503  13.934   5.537
28733SOL    HW288033   0.554  14.074   5.560
28734SOL     OW88034   6.676  14.570   3.476
28734SOL    HW188035   6.737  14.612   3.415
28734SOL    HW288036   6.714  14.483   3.490
28735SOL     OW88037  14.316  12.673  14.370
28735SOL    HW188038  14.367  12.686  14.290
28735SOL    HW288039  14.226  12.690  14.345
28736SOL     OW88040  13.538  14.302   0.302
28736SOL    HW188041  13.593  14.325   0.377
28736SOL    HW288042  13.481  14.233   0.334
28737SOL     OW88043   8.446   6.153   5.501
28737SOL    HW188044   8.364   6.115   5.469
28737SOL    HW288045   8.434   6.157   5.596
28738SOL     OW88046  13.904  13.961  13.903
28738SOL    HW188047  13.861  13.877  13.918
28738SOL    HW288048  13.961  13.973  13.979
28739SOL     OW88049   1.332   7.608   6.780
28739SOL    HW188050   1.245   7.579   6.808
28739SOL    HW288051   1.359   7.672   6.846
28740SOL     OW88052  10.937   0.024  11.200
28740SOL    HW188053  11.008  14.859  11.245
28740SOL    HW288054  10.864   0.023  11.262
28741SOL     OW88055   1.134  11.811  11.876
28741SOL    HW188056   1.064  11.871  11.902
28741SOL    HW288057   1.090  11.731  11.850
28742SOL     OW88058  12.661  11.859   8.573
28742SOL    HW188059  12.663  11.787   8.510
28742SOL    HW288060  12.602  11.924   8.534
28743SOL     OW88061  12.736  10.112   3.489
28743SOL    HW188062  12.682  10.080   3.562
28743SOL    HW288063  12.739  10.037   3.428
28744SOL     OW88064   5.455   7.003  14.833
28744SOL    HW188065   5.373   6.993   0.001
28744SOL    HW288066   5.429   7.039  14.748
28745SOL     OW88067   3.950  14.684  13.850
28745SOL    HW188068   4.045  14.691  13.836
28745SOL    HW288069   3.921  14.620  13.785
28746SOL     OW88070   0.215  13.115   2.167
28746SOL    HW188071   0.247  13.204   2.177
28746SOL    HW288072   0.230  13.093   2.075
28747SOL     OW88073   7.566  14.310   9.767
28747SOL    HW188074   7.503  14.238   9.769
28747SOL    HW288075   7.531  14.371   9.703
28748SOL     OW88076  14.874   6.019   1.567
28748SOL    HW188077   0.033   6.037   1.481
28748SOL    HW288078  14.805   6.085   1.577
28749SOL     OW88079  14.465  11.805  11.605
28749SOL    HW188080  14.523  11.729  11.597
28749SOL    HW288081  14.379  11.770  11.582
28750SOL     OW88082   9.051  14.590   1.907
28750SOL    HW188083   9.133  14.634   1.931
28750SOL    HW288084   9.018  14.642   1.834
28751SOL     OW88085   8.936   7.518  13.530
28751SOL    HW188086   9.019   7.493  13.488
28751SOL    HW288087   8.883   7.438  13.526
28752SOL     OW88088   9.768   7.176  12.868
28752SOL    HW188089   9.815   7.245  12.913
28752SOL    HW288090   9.806   7.095  12.902
28753SOL     OW88091   3.319  13.282   7.011
28753SOL    HW188092   3.226  13.261   7.018
28753SOL    HW288093   3.321  13.367   6.967
28754SOL     OW88094   3.953  13.135  13.758
28754SOL    HW188095   3.948  13.229  13.776
28754SOL    HW288096   4.030  13.105  13.807
28755SOL     OW88097   6.835  14.491   0.470
28755SOL    HW188098   6.897  14.427   0.505
28755SOL    HW288099   6.810  14.544   0.545
28756SOL     OW88100   0.852   5.387  10.549
28756SOL    HW188101   0.926   5.443  10.524
28756SOL    HW288102   0.808   5.366  10.467
28757SOL     OW88103   7.848   2.596   7.914
28757SOL    HW188104   7.771   2.644   7.944
28757SOL    HW288105   7.821   2.504   7.914
28758SOL     OW88106  14.210   7.799   4.068
28758SOL    HW188107  14.246   7.841   3.990
28758SOL    HW288108  14.219   7.864   4.137
28759SOL     OW88109  14.757   9.491   0.497
28759SOL    HW188110  14.837   9.457   0.457
28759SOL    HW288111  14.695   9.419   0.492
28760SOL     OW88112   7.066   8.053  13.570
28760SOL    HW188113   7.084   8.029  13.479
28760SOL    HW288114   6.978   8.090  13.569
28761SOL     OW88115   4.856  10.096   6.915
28761SOL    HW188116   4.894  10.138   6.838
28761SOL    HW288117   4.899  10.138   6.989
28762SOL     OW88118  12.111   5.128  14.583
28762SOL    HW188119  12.189   5.181  14.599
28762SOL    HW288120  12.142   5.037  14.589
28763SOL     OW88121  10.038   4.686   6.915
28763SOL    HW188122   9.972   4.617   6.925
28763SOL    HW288123   9.990   4.767   6.930
28764SOL     OW88124   9.296   6.637   4.519
28764SOL    HW188125   9.251   6.721   4.516
28764SOL    HW288126   9.305   6.611   4.428
28765SOL     OW88127   9.943  13.852  12.061
28765SOL    HW188128   9.879  13.912  12.101
28765SOL    HW288129   9.949  13.780  12.123
28766SOL     OW88130   0.236  12.919  14.168
28766SOL    HW188131   0.288  12.907  14.247
28766SOL    HW288132   0.164  12.976  14.194
28767SOL     OW88133  10.536   4.886   3.233
28767SOL    HW188134  10.534   4.843   3.148
28767SOL    HW288135  10.613   4.850   3.277
28768SOL     OW88136   3.948   2.577   2.947
28768SOL    HW188137   3.862   2.536   2.946
28768SOL    HW288138   3.963   2.604   2.856
28769SOL     OW88139   9.295   6.427  12.369
28769SOL    HW188140   9.335   6.342  12.351
28769SOL    HW288141   9.242   6.445  12.291
28770SOL     OW88142  12.351   5.505   1.869
28770SOL    HW188143  12.334   5.439   1.937
28770SOL    HW288144  12.356   5.588   1.917
28771SOL     OW88145   8.569   6.110   6.379
28771SOL    HW188146   8.569   6.063   6.296
28771SOL    HW288147   8.659   6.103   6.411
28772SOL     OW88148  12.268   8.415   7.246
28772SOL    HW188149  12.236   8.352   7.182
28772SOL    HW288150  12.231   8.386   7.329
28773SOL     OW88151   3.823   0.739   1.328
28773SOL    HW188152   3.728   0.736   1.338
28773SOL    HW288153   3.843   0.669   1.265
28774SOL     OW88154   0.091   0.243   8.639
28774SOL    HW188155   0.080   0.335   8.617
28774SOL    HW288156   0.094   0.241   8.735
28775SOL     OW88157   4.908  11.040   5.725
28775SOL    HW188158   4.990  11.076   5.692
28775SOL    HW288159   4.934  10.982   5.797
28776SOL     OW88160   4.037   9.909   4.754
28776SOL    HW188161   4.057   9.948   4.839
28776SOL    HW288162   4.007   9.821   4.774
28777SOL     OW88163   9.656   3.527   5.862
28777SOL    HW188164   9.596   3.600   5.851
28777SOL    HW288165   9.603   3.459   5.904
28778SOL     OW88166  12.465  13.416  11.713
28778SOL    HW188167  12.443  13.330  11.678
28778SOL    HW288168  12.546  13.402  11.763
28779SOL     OW88169   8.341   4.120  12.269
28779SOL    HW188170   8.275   4.169  12.317
28779SOL    HW288171   8.314   4.124  12.177
28780SOL     OW88172   7.054   5.941   4.962
28780SOL    HW188173   6.984   5.918   4.901
28780SOL    HW288174   7.030   6.027   4.996
28781SOL     OW88175  13.477   1.684   1.342
28781SOL    HW188176  13.487   1.597   1.380
28781SOL    HW288177  13.403   1.722   1.388
28782SOL     OW88178   0.327   3.619   6.573
28782SOL    HW188179   0.380   3.628   6.652
28782SOL    HW288180   0.308   3.709   6.545
28783SOL     OW88181   5.017   4.912   2.337
28783SOL    HW188182   4.975   4.970   2.399
28783SOL    HW288183   5.107   4.945   2.330
28784SOL     OW88184   0.643  14.563   8.915
28784SOL    HW188185   0.676  14.553   9.004
28784SOL    HW288186   0.718  14.545   8.859
28785SOL     OW88187   9.586   3.501  14.636
28785SOL    HW188188   9.553   3.418  14.671
28785SOL    HW288189   9.511   3.561  14.642
28786SOL     OW88190   3.786   1.195  11.979
28786SOL    HW188191   3.867   1.170  12.024
28786SOL    HW288192   3.728   1.225  12.049
28787SOL     OW88193   3.133   7.720   0.592
28787SOL    HW188194   3.111   7.781   0.662
28787SOL    HW288195   3.083   7.750   0.517
28788SOL     OW88196   8.588   8.392  10.937
28788SOL    HW188197   8.649   8.396  10.864
28788SOL    HW288198   8.510   8.436  10.906
28789SOL     OW88199   6.807  11.747   2.552
28789SOL    HW188200   6.872  11.688   2.515
28789SOL    HW288201   6.849  11.783   2.630
28790SOL     OW88202   0.245   0.443   6.390
28790SOL    HW188203   0.335   0.474   6.390
28790SOL    HW288204   0.219   0.444   6.298
28791SOL     OW88205  13.350   9.755   4.990
28791SOL    HW188206  13.431   9.705   5.001
28791SOL    HW288207  13.379   9.845   4.975
28792SOL     OW88208   6.558   9.221   0.372
28792SOL    HW188209   6.474   9.220   0.417
28792SOL    HW288210   6.584   9.313   0.371
28793SOL     OW88211   3.720  13.757   7.513
28793SOL    HW188212   3.711  13.669   7.476
28793SOL    HW288213   3.795  13.795   7.468
28794SOL     OW88214   5.737   2.003   3.801
28794SOL    HW188215   5.767   2.090   3.826
28794SOL    HW288216   5.650   1.995   3.841
28795SOL     OW88217   4.760   9.264   7.788
28795SOL    HW188218   4.691   9.199   7.772
28795SOL    HW288219   4.812   9.226   7.859
28796SOL     OW88220   0.520   6.997  12.408
28796SOL    HW188221   0.517   7.054  12.331
28796SOL    HW288222   0.475   7.047  12.476
28797SOL     OW88223   7.537   5.607  11.294
28797SOL    HW188224   7.471   5.575  11.355
28797SOL    HW288225   7.608   5.542  11.299
28798SOL     OW88226   0.006  12.330  13.908
28798SOL    HW188227   0.051  12.245  13.908
28798SOL    HW288228  14.799  12.311  13.871
28799SOL     OW88229   1.084   3.048  12.280
28799SOL    HW188230   1.056   3.126  12.328
28799SOL    HW288231   1.081   2.977  12.345
28800SOL     OW88232   2.304  13.971   9.880
28800SOL    HW188233   2.396  13.955   9.859
28800SOL    HW288234   2.294  14.066   9.871
28801SOL     OW88235   9.001   8.260   5.146
28801SOL    HW188236   8.968   8.313   5.073
28801SOL    HW288237   8.970   8.305   5.225
28802SOL     OW88238  11.715   3.466   3.892
28802SOL    HW188239  11.743   3.448   3.981
28802SOL    HW288240  11.674   3.385   3.862
28803SOL     OW88241  13.441  11.981   3.385
28803SOL    HW188242  13.506  12.051   3.389
28803SOL    HW288243  13.357  12.025   3.396
28804SOL     OW88244   0.864   8.071  10.893
28804SOL    HW188245   0.881   8.016  10.969
28804SOL    HW288246   0.950   8.107  10.870
28805SOL     OW88247  10.775  13.968   7.917
28805SOL    HW188248  10.686  13.949   7.888
28805SOL    HW288249  10.828  13.969   7.837
28806SOL     OW88250   3.993  11.154   8.407
28806SOL    HW188251   4.039  11.115   8.482
28806SOL    HW288252   3.902  11.161   8.437
28807SOL     OW88253   6.019  13.588   2.194
28807SOL    HW188254   5.982  13.605   2.108
28807SOL    HW288255   6.060  13.502   2.186
28808SOL     OW88256   8.148   5.708  12.698
28808SOL    HW188257   8.069   5.762  12.703
28808SOL    HW288258   8.209   5.750  12.758
28809SOL     OW88259  10.172   6.086   5.551
28809SOL    HW188260  10.116   6.144   5.602
28809SOL    HW288261  10.113   6.046   5.487
28810SOL     OW88262   0.400   6.738  13.637
28810SOL    HW188263   0.318   6.701  13.668
28810SOL    HW288264   0.467   6.675  13.665
28811SOL     OW88265   0.565  13.353   5.566
28811SOL    HW188266   0.536  13.281   5.511
28811SOL    HW288267   0.655  13.331   5.589
28812SOL     OW88268   2.032   2.139   7.515
28812SOL    HW188269   1.999   2.223   7.546
28812SOL    HW288270   2.104   2.118   7.574
28813SOL     OW88271  10.368  12.691   5.301
28813SOL    HW188272  10.367  12.628   5.373
28813SOL    HW288273  10.380  12.636   5.223
28814SOL     OW88274   6.963  12.037  12.051
28814SOL    HW188275   7.009  12.061  12.132
28814SOL    HW288276   6.985  12.107  11.990
28815SOL     OW88277   5.408   6.938   8.241
28815SOL    HW188278   5.367   7.014   8.200
28815SOL    HW288279   5.501   6.960   8.244
28816SOL     OW88280   4.794  11.457  12.784
28816SOL    HW188281   4.771  11.531  12.727
28816SOL    HW288282   4.720  11.397  12.776
28817SOL     OW88283   8.577   3.870   5.168
28817SOL    HW188284   8.615   3.832   5.089
28817SOL    HW288285   8.534   3.795   5.211
28818SOL     OW88286  14.710   0.736   3.134
28818SOL    HW188287  14.626   0.720   3.176
28818SOL    HW288288  14.761   0.783   3.199
28819SOL     OW88289   7.807  14.648   5.451
28819SOL    HW188290   7.838  14.587   5.384
28819SOL    HW288291   7.713  14.657   5.434
28820SOL     OW88292   7.975   2.390   5.638
28820SOL    HW188293   7.896   2.343   5.611
28820SOL    HW288294   8.045   2.354   5.583
28821SOL     OW88295  14.148  13.822  14.629
28821SOL    HW188296  14.074  13.878  14.654
28821SOL    HW288297  14.224  13.865  14.667
28822SOL     OW88298   2.334   2.431   3.258
28822SOL    HW188299   2.372   2.515   3.230
28822SOL    HW288300   2.244   2.452   3.281
28823SOL     OW88301  11.532  14.346   7.337
28823SOL    HW188302  11.476  14.410   7.380
28823SOL    HW288303  11.607  14.337   7.395
28824SOL     OW88304   1.736   2.909   1.898
28824SOL    HW188305   1.777   2.892   1.983
28824SOL    HW288306   1.765   2.836   1.842
28825SOL     OW88307   0.232  11.290  14.718
28825SOL    HW188308   0.232  11.250  14.805
28825SOL    HW288309   0.222  11.216  14.657
28826SOL     OW88310  13.720   6.785   0.580
28826SOL    HW188311  13.733   6.695   0.610
28826SOL    HW288312  13.630   6.805   0.603
28827SOL     OW88313   7.017   5.966  11.777
28827SOL    HW188314   6.979   6.014  11.850
28827SOL    HW288315   7.112   5.971  11.791
28828SOL     OW88316   7.866   7.735  12.365
28828SOL    HW188317   7.784   7.783  12.355
28828SOL    HW288318   7.852   7.653  12.319
28829SOL     OW88319   3.605   2.165  13.134
28829SOL    HW188320   3.543   2.168  13.206
28829SOL    HW288321   3.562   2.112  13.067
28830SOL     OW88322   2.386   0.328   4.292
28830SOL    HW188323   2.354   0.392   4.356
28830SOL    HW288324   2.405   0.251   4.345
28831SOL     OW88325   7.249   5.784  10.926
28831SOL    HW188326   7.192   5.728  10.979
28831SOL    HW288327   7.333   5.737  10.926
28832SOL     OW88328  11.832  14.326  13.236
28832SOL    HW188329  11.778  14.382  13.291
28832SOL    HW288330  11.839  14.373  13.153
28833SOL     OW88331   4.177   7.056   3.427
28833SOL    HW188332   4.230   6.983   3.458
28833SOL    HW288333   4.224   7.090   3.351
28834SOL     OW88334   3.045  13.669   0.328
28834SOL    HW188335   3.119  13.610   0.339
28834SOL    HW288336   3.055  13.703   0.239
28835SOL     OW88337   0.452  14.809   7.240
28835SOL    HW188338   0.439   0.017   7.277
28835SOL    HW288339   0.545  14.805   7.218
28836SOL     OW88340  13.396   1.584  10.702
28836SOL    HW188341  13.326   1.646  10.683
28836SOL    HW288342  13.411   1.592  10.796
28837SOL     OW88343   3.046   0.569   1.100
28837SOL    HW188344   3.034   0.474   1.094
28837SOL    HW288345   3.067   0.585   1.191
28838SOL     OW88346  12.774   2.008  13.780
28838SOL    HW188347  12.839   2.063  13.824
28838SOL    HW288348  12.806   1.998  13.691
28839SOL     OW88349   7.588   4.524   7.236
28839SOL    HW188350   7.653   4.581   7.195
28839SOL    HW288351   7.553   4.575   7.309
28840SOL     OW88352   6.190  12.614   7.847
28840SOL    HW188353   6.167  12.521   7.845
28840SOL    HW288354   6.239  12.625   7.928
28841SOL     OW88355   9.477  14.773   1.739
28841SOL    HW188356   9.422  14.828   1.683
28841SOL    HW288357   9.463  14.685   1.706
28842SOL     OW88358  10.616   4.569  12.187
28842SOL    HW188359  10.534   4.558  12.140
28842SOL    HW288360  10.597   4.634  12.255
28843SOL     OW88361   7.288   6.016  14.776
28843SOL    HW188362   7.317   5.990  14.864
28843SOL    HW288363   7.322   6.105  14.766
28844SOL     OW88364   3.643   0.318  13.386
28844SOL    HW188365   3.697   0.357  13.318
28844SOL    HW288366   3.556   0.358  13.374
28845SOL     OW88367   3.147  12.772   6.584
28845SOL    HW188368   3.233  12.755   6.621
28845SOL    HW288369   3.087  12.719   6.637
28846SOL     OW88370   6.093  14.571   8.928
28846SOL    HW188371   6.062  14.635   8.991
28846SOL    HW288372   6.087  14.487   8.974
28847SOL     OW88373   4.314  14.567   3.394
28847SOL    HW188374   4.360  14.526   3.467
28847SOL    HW288375   4.365  14.646   3.376
28848SOL     OW88376   8.205   8.243   5.340
28848SOL    HW188377   8.154   8.174   5.382
28848SOL    HW288378   8.153   8.323   5.351
28849SOL     OW88379   3.286   2.847   7.844
28849SOL    HW188380   3.323   2.923   7.799
28849SOL    HW288381   3.191   2.857   7.834
28850SOL     OW88382  10.790   4.187   3.452
28850SOL    HW188383  10.818   4.241   3.377
28850SOL    HW288384  10.864   4.128   3.466
28851SOL     OW88385  10.729  10.398   1.397
28851SOL    HW188386  10.726  10.478   1.344
28851SOL    HW288387  10.670  10.417   1.471
28852SOL     OW88388   4.650   4.090   9.881
28852SOL    HW188389   4.610   4.066   9.797
28852SOL    HW288390   4.619   4.179   9.897
28853SOL     OW88391  10.841  11.993   6.157
28853SOL    HW188392  10.779  12.028   6.221
28853SOL    HW288393  10.818  12.036   6.075
28854SOL     OW88394  12.982   4.773   2.737
28854SOL    HW188395  12.970   4.802   2.646
28854SOL    HW288396  12.894   4.748   2.766
28855SOL     OW88397   3.403   5.630   6.319
28855SOL    HW188398   3.393   5.690   6.245
28855SOL    HW288399   3.495   5.639   6.344
28856SOL     OW88400   0.872   0.783  10.179
28856SOL    HW188401   0.857   0.754  10.269
28856SOL    HW288402   0.868   0.702  10.128
28857SOL     OW88403  10.795   5.627  13.035
28857SOL    HW188404  10.741   5.617  13.113
28857SOL    HW288405  10.884   5.639  13.068
28858SOL     OW88406   3.266  13.988  12.047
28858SOL    HW188407   3.280  13.960  12.137
28858SOL    HW288408   3.223  14.073  12.054
28859SOL     OW88409  10.712   6.577   7.085
28859SOL    HW188410  10.685   6.575   6.994
28859SOL    HW288411  10.806   6.598   7.082
28860SOL     OW88412  10.291  11.172   3.611
28860SOL    HW188413  10.318  11.102   3.671
28860SOL    HW288414  10.271  11.246   3.668
28861SOL     OW88415  12.489   9.160   5.529
28861SOL    HW188416  12.467   9.102   5.456
28861SOL    HW288417  12.405   9.199   5.555
28862SOL     OW88418   9.251   9.322   5.408
28862SOL    HW188419   9.326   9.267   5.431
28862SOL    HW288420   9.235   9.375   5.486
28863SOL     OW88421   3.687  12.424   8.206
28863SOL    HW188422   3.605  12.384   8.236
28863SOL    HW288423   3.695  12.503   8.260
28864SOL     OW88424   1.653   0.447  14.445
28864SOL    HW188425   1.662   0.497  14.363
28864SOL    HW288426   1.562   0.462  14.472
28865SOL     OW88427   2.495   6.820   6.380
28865SOL    HW188428   2.581   6.783   6.363
28865SOL    HW288429   2.464   6.774   6.458
28866SOL     OW88430   9.857   4.297   3.653
28866SOL    HW188431   9.765   4.274   3.661
28866SOL    HW288432   9.891   4.295   3.742
28867SOL     OW88433   1.880   3.860   2.392
28867SOL    HW188434   1.911   3.937   2.344
28867SOL    HW288435   1.861   3.796   2.324
28868SOL     OW88436  10.830  14.099   2.772
28868SOL    HW188437  10.913  14.135   2.802
28868SOL    HW288438  10.855  14.024   2.718
28869SOL     OW88439   1.743   8.084   2.181
28869SOL    HW188440   1.818   8.084   2.241
28869SOL    HW288441   1.752   8.003   2.132
28870SOL     OW88442   8.915   3.061   2.055
28870SOL    HW188443   8.932   2.972   2.024
28870SOL    HW288444   8.865   3.049   2.136
28871SOL     OW88445  11.870  12.940  13.083
28871SOL    HW188446  11.849  13.033  13.091
28871SOL    HW288447  11.897  12.913  13.171
28872SOL     OW88448   1.589   3.652   7.309
28872SOL    HW188449   1.660   3.693   7.260
28872SOL    HW288450   1.528   3.622   7.243
28873SOL     OW88451   9.874  12.590   8.807
28873SOL    HW188452   9.804  12.655   8.810
28873SOL    HW288453   9.860  12.536   8.885
28874SOL     OW88454   5.892   7.199   8.147
28874SOL    HW188455   5.901   7.221   8.055
28874SOL    HW288456   5.798   7.209   8.165
28875SOL     OW88457   8.334   7.554   8.179
28875SOL    HW188458   8.385   7.497   8.121
28875SOL    HW288459   8.375   7.640   8.170
28876SOL     OW88460   3.107   3.754   4.527
28876SOL    HW188461   3.187   3.749   4.475
28876SOL    HW288462   3.122   3.827   4.588
28877SOL     OW88463   3.027   4.654  13.545
28877SOL    HW188464   3.084   4.648  13.467
28877SOL    HW288465   3.056   4.583  13.601
28878SOL     OW88466   5.930   1.985   7.739
28878SOL    HW188467   5.865   1.996   7.669
28878SOL    HW288468   6.014   1.980   7.693
28879SOL     OW88469  12.087   7.622  14.765
28879SOL    HW188470  12.029   7.591  14.834
28879SOL    HW288471  12.163   7.564  14.770
28880SOL     OW88472  12.273   7.953   1.617
28880SOL    HW188473  12.294   8.041   1.586
28880SOL    HW288474  12.342   7.933   1.681
28881SOL     OW88475  12.800  11.288  12.077
28881SOL    HW188476  12.822  11.340  12.154
28881SOL    HW288477  12.885  11.261  12.041
28882SOL     OW88478   5.075   9.328   7.782
28882SOL    HW188479   5.031   9.296   7.703
28882SOL    HW288480   5.023   9.292   7.855
28883SOL     OW88481   8.493   4.484  12.268
28883SOL    HW188482   8.549   4.471  12.345
28883SOL    HW288483   8.550   4.526  12.204
28884SOL     OW88484  13.975   1.124   1.164
28884SOL    HW188485  13.910   1.154   1.101
28884SOL    HW288486  13.997   1.036   1.136
28885SOL     OW88487   0.759   1.521  10.757
28885SOL    HW188488   0.823   1.451  10.745
28885SOL    HW288489   0.676   1.482  10.728
28886SOL     OW88490   4.279   5.961  14.459
28886SOL    HW188491   4.325   6.016  14.395
28886SOL    HW288492   4.281   6.012  14.540
28887SOL     OW88493  12.250   3.552   3.541
28887SOL    HW188494  12.233   3.478   3.482
28887SOL    HW288495  12.305   3.515   3.610
28888SOL     OW88496   7.052   2.911  11.896
28888SOL    HW188497   7.053   2.841  11.831
28888SOL    HW288498   6.992   2.976  11.861
28889SOL     OW88499   5.118   1.332   1.854
28889SOL    HW188500   5.115   1.359   1.946
28889SOL    HW288501   5.179   1.259   1.852
28890SOL     OW88502   3.328  12.891   3.636
28890SOL    HW188503   3.254  12.832   3.621
28890SOL    HW288504   3.330  12.904   3.730
28891SOL     OW88505   2.994   1.183   1.339
28891SOL    HW188506   3.008   1.130   1.260
28891SOL    HW288507   2.929   1.249   1.311
28892SOL     OW88508   2.146   2.763   1.924
28892SOL    HW188509   2.230   2.779   1.881
28892SOL    HW288510   2.081   2.801   1.866
28893SOL     OW88511  12.207   7.912  13.266
28893SOL    HW188512  12.287   7.858  13.270
28893SOL    HW288513  12.144   7.857  13.220
28894SOL     OW88514   0.427  14.388   6.862
28894SOL    HW188515   0.351  14.379   6.804
28894SOL    HW288516   0.475  14.463   6.828
28895SOL     OW88517  10.650   5.519   3.579
28895SOL    HW188518  10.586   5.464   3.533
28895SOL    HW288519  10.614   5.530   3.667
28896SOL     OW88520  12.124   9.338   4.036
28896SOL    HW188521  12.036   9.326   4.072
28896SOL    HW288522  12.164   9.403   4.093
28897SOL     OW88523   8.174  11.323  11.458
28897SOL    HW188524   8.120  11.363  11.526
28897SOL    HW288525   8.114  11.267  11.409
28898SOL     OW88526   6.721   2.573   4.129
28898SOL    HW188527   6.669   2.653   4.141
28898SOL    HW288528   6.700   2.520   4.206
28899SOL     OW88529  13.993   3.248  14.679
28899SOL    HW188530  14.060   3.199  14.632
28899SOL    HW288531  13.998   3.337  14.644
28900SOL     OW88532   3.240   2.696   0.708
28900SOL    HW188533   3.236   2.603   0.685
28900SOL    HW288534   3.183   2.739   0.644
28901SOL     OW88535  10.434   9.751  13.674
28901SOL    HW188536  10.481   9.757  13.757
28901SOL    HW288537  10.502   9.754  13.607
28902SOL     OW88538   7.637   6.991  12.192
28902SOL    HW188539   7.585   7.031  12.123
28902SOL    HW288540   7.712   7.050  12.203
28903SOL     OW88541   6.414   0.852  14.538
28903SOL    HW188542   6.342   0.799  14.573
28903SOL    HW288543   6.462   0.881  14.616
28904SOL     OW88544   4.223  10.461   0.012
28904SOL    HW188545   4.242  10.513   0.089
28904SOL    HW288546   4.300  10.405   0.001
28905SOL     OW88547   1.515   0.386   9.371
28905SOL    HW188548   1.494   0.384   9.464
28905SOL    HW288549   1.436   0.351   9.328
28906SOL     OW88550   4.791   5.197   9.879
28906SOL    HW188551   4.778   5.182   9.973
28906SOL    HW288552   4.717   5.252   9.853
28907SOL     OW88553   2.120  10.324   0.346
28907SOL    HW188554   2.202  10.348   0.304
28907SOL    HW288555   2.127  10.230   0.360
28908SOL     OW88556   6.450   5.257   8.870
28908SOL    HW188557   6.368   5.302   8.849
28908SOL    HW288558   6.423   5.168   8.894
28909SOL     OW88559   9.519   9.058  14.156
28909SOL    HW188560   9.469   8.977  14.146
28909SOL    HW288561   9.462   9.116  14.207
28910SOL     OW88562   0.643  10.243   6.092
28910SOL    HW188563   0.656  10.314   6.155
28910SOL    HW288564   0.701  10.173   6.123
28911SOL     OW88565  13.618   7.594   8.767
28911SOL    HW188566  13.549   7.612   8.703
28911SOL    HW288567  13.581   7.528   8.825
28912SOL     OW88568  12.196  11.334  14.642
28912SOL    HW188569  12.153  11.254  14.610
28912SOL    HW288570  12.126  11.386  14.679
28913SOL     OW88571   9.645  10.067  10.719
28913SOL    HW188572   9.627  10.041  10.809
28913SOL    HW288573   9.579  10.133  10.699
28914SOL     OW88574  14.730   2.557  13.080
28914SOL    HW188575  14.792   2.625  13.107
28914SOL    HW288576  14.645   2.589  13.108
28915SOL     OW88577  11.205   5.947   4.119
28915SOL    HW188578  11.120   5.921   4.085
28915SOL    HW288579  11.242   5.866   4.154
28916SOL     OW88580  13.758  12.908   4.350
28916SOL    HW188581  13.774  13.002   4.363
28916SOL    HW288582  13.843  12.874   4.320
28917SOL     OW88583   5.252   1.952   8.117
28917SOL    HW188584   5.205   1.887   8.170
28917SOL    HW288585   5.274   1.905   8.036
28918SOL     OW88586   5.745  11.770  10.989
28918SOL    HW188587   5.750  11.865  10.998
28918SOL    HW288588   5.821  11.736  11.035
28919SOL     OW88589  10.749   1.118  13.632
28919SOL    HW188590  10.761   1.036  13.585
28919SOL    HW288591  10.756   1.095  13.724
28920SOL     OW88592  14.750   9.161   7.685
28920SOL    HW188593  14.687   9.126   7.749
28920SOL    HW288594  14.830   9.174   7.734
28921SOL     OW88595   2.629  12.724   2.935
28921SOL    HW188596   2.613  12.637   2.897
28921SOL    HW288597   2.583  12.722   3.019
28922SOL     OW88598  12.710   2.842   7.009
28922SOL    HW188599  12.694   2.917   6.952
28922SOL    HW288600  12.804   2.829   7.007
28923SOL     OW88601  11.534  14.421   2.337
28923SOL    HW188602  11.574  14.475   2.405
28923SOL    HW288603  11.466  14.476   2.299
28924SOL     OW88604  12.100   9.133   0.902
28924SOL    HW188605  12.185   9.166   0.929
28924SOL    HW288606  12.119   9.072   0.830
28925SOL     OW88607  12.968   4.548  13.175
28925SOL    HW188608  12.943   4.639  13.160
28925SOL    HW288609  13.057   4.541  13.142
28926SOL     OW88610   0.448   6.116  14.341
28926SOL    HW188611   0.398   6.180  14.291
28926SOL    HW288612   0.459   6.042  14.281
28927SOL     OW88613   5.508  10.515   4.755
28927SOL    HW188614   5.517  10.557   4.841
28927SOL    HW288615   5.595  10.521   4.716
28928SOL     OW88616   2.256   5.286  11.746
28928SOL    HW188617   2.209   5.307  11.827
28928SOL    HW288618   2.342   5.326  11.758
28929SOL     OW88619   7.583  11.851   3.428
28929SOL    HW188620   7.541  11.770   3.456
28929SOL    HW288621   7.521  11.920   3.455
28930SOL     OW88622  14.482  14.170   8.750
28930SOL    HW188623  14.456  14.220   8.673
28930SOL    HW288624  14.551  14.222   8.791
28931SOL     OW88625  12.846   1.412  14.760
28931SOL    HW188626  12.870   1.502  14.739
28931SOL    HW288627  12.832   1.411  14.855
28932SOL     OW88628  13.672   0.095   7.551
28932SOL    HW188629  13.717   0.015   7.524
28932SOL    HW288630  13.586   0.066   7.580
28933SOL     OW88631  13.421   3.859   2.272
28933SOL    HW188632  13.501   3.828   2.315
28933SOL    HW288633  13.388   3.927   2.330
28934SOL     OW88634  10.769   7.373   1.085
28934SOL    HW188635  10.808   7.424   1.155
28934SOL    HW288636  10.843   7.332   1.040
28935SOL     OW88637   9.420  10.501   1.901
28935SOL    HW188638   9.369  10.486   1.821
28935SOL    HW288639   9.371  10.567   1.949
28936SOL     OW88640   9.029   5.793   5.708
28936SOL    HW188641   9.092   5.766   5.774
28936SOL    HW288642   9.049   5.885   5.692
28937SOL     OW88643   4.897   6.141   4.995
28937SOL    HW188644   4.888   6.224   5.042
28937SOL    HW288645   4.834   6.147   4.923
28938SOL     OW88646  14.257  13.158   0.661
28938SOL    HW188647  14.254  13.221   0.589
28938SOL    HW288648  14.175  13.109   0.654
28939SOL     OW88649   5.692  14.431  14.576
28939SOL    HW188650   5.729  14.482  14.504
28939SOL    HW288651   5.652  14.496  14.634
28940SOL     OW88652   7.476  13.399  14.010
28940SOL    HW188653   7.516  13.317  14.042
28940SOL    HW288654   7.459  13.449  14.089
28941SOL     OW88655   9.648  11.667   4.248
28941SOL    HW188656   9.597  11.608   4.303
28941SOL    HW288657   9.656  11.747   4.301
28942SOL     OW88658  13.460   0.490   4.764
28942SOL    HW188659  13.514   0.444   4.828
28942SOL    HW288660  13.371   0.457   4.780
28943SOL     OW88661  11.493   5.426   2.985
28943SOL    HW188662  11.538   5.469   2.912
28943SOL    HW288663  11.526   5.336   2.983
28944SOL     OW88664   4.993  12.722   1.420
28944SOL    HW188665   4.916  12.774   1.443
28944SOL    HW288666   4.961  12.663   1.351
28945SOL     OW88667  10.479   9.627   8.069
28945SOL    HW188668  10.477   9.711   8.023
28945SOL    HW288669  10.459   9.562   8.002
28946SOL     OW88670   4.853  10.029  13.126
28946SOL    HW188671   4.928  10.080  13.158
28946SOL    HW288672   4.808  10.002  13.206
28947SOL     OW88673   6.404  11.560   9.842
28947SOL    HW188674   6.420  11.547   9.748
28947SOL    HW288675   6.386  11.654   9.851
28948SOL     OW88676   1.194   9.870   0.925
28948SOL    HW188677   1.251   9.940   0.957
28948SOL    HW288678   1.161   9.828   1.004
28949SOL     OW88679  14.738  12.878   8.428
28949SOL    HW188680  14.790  12.907   8.503
28949SOL    HW288681  14.796  12.819   8.380
28950SOL     OW88682   2.381   6.677  12.920
28950SOL    HW188683   2.419   6.702  12.836
28950SOL    HW288684   2.300   6.726  12.926
28951SOL     OW88685  14.049   2.882   2.396
28951SOL    HW188686  14.020   2.935   2.322
28951SOL    HW288687  14.142   2.869   2.382
28952SOL     OW88688   1.688   7.225   9.720
28952SOL    HW188689   1.672   7.190   9.807
28952SOL    HW288690   1.604   7.265   9.695
28953SOL     OW88691   7.291   8.246   4.632
28953SOL    HW188692   7.212   8.296   4.654
28953SOL    HW288693   7.360   8.287   4.684
28954SOL     OW88694   5.507   8.981   8.643
28954SOL    HW188695   5.543   8.896   8.621
28954SOL    HW288696   5.432   8.992   8.584
28955SOL     OW88697   5.457   7.582   4.664
28955SOL    HW188698   5.506   7.618   4.591
28955SOL    HW288699   5.484   7.490   4.669
28956SOL     OW88700   5.358  10.634   7.032
28956SOL    HW188701   5.357  10.680   7.116
28956SOL    HW288702   5.429  10.675   6.983
28957SOL     OW88703  10.950  10.898   3.230
28957SOL    HW188704  10.948  10.925   3.138
28957SOL    HW288705  11.037  10.859   3.242
28958SOL     OW88706   1.153  10.918   6.638
28958SOL    HW188707   1.220  10.962   6.586
28958SOL    HW288708   1.191  10.912   6.726
28959SOL     OW88709  12.195   3.399  14.347
28959SOL    HW188710  12.286   3.395  14.317
28959SOL    HW288711  12.191   3.477  14.403
28960SOL     OW88712   1.321   8.260   5.185
28960SOL    HW188713   1.332   8.182   5.239
28960SOL    HW288714   1.361   8.236   5.101
28961SOL     OW88715  10.951   8.049   1.521
28961SOL    HW188716  11.019   8.048   1.454
28961SOL    HW288717  10.916   7.960   1.520
28962SOL     OW88718   2.250  10.525   7.783
28962SOL    HW188719   2.173  10.473   7.806
28962SOL    HW288720   2.303  10.465   7.730
28963SOL     OW88721   4.695   8.636  12.760
28963SOL    HW188722   4.765   8.588  12.715
28963SOL    HW288723   4.644   8.676  12.690
28964SOL     OW88724   3.512   6.335   4.943
28964SOL    HW188725   3.513   6.379   5.028
28964SOL    HW288726   3.420   6.315   4.928
28965SOL     OW88727   7.952  12.194   1.919
28965SOL    HW188728   7.900  12.131   1.970
28965SOL    HW288729   7.961  12.152   1.833
28966SOL     OW88730   6.375   2.625  12.855
28966SOL    HW188731   6.442   2.558  12.868
28966SOL    HW288732   6.312   2.584  12.796
28967SOL     OW88733   1.326  13.937  12.244
28967SOL    HW188734   1.389  13.866  12.230
28967SOL    HW288735   1.335  13.959  12.337
28968SOL     OW88736  13.072  13.162  12.688
28968SOL    HW188737  13.109  13.162  12.600
28968SOL    HW288738  12.983  13.196  12.676
28969SOL     OW88739   2.542   0.395  10.537
28969SOL    HW188740   2.544   0.421  10.629
28969SOL    HW288741   2.449   0.390  10.515
28970SOL     OW88742  12.395  11.891   1.544
28970SOL    HW188743  12.438  11.937   1.617
28970SOL    HW288744  12.465  11.877   1.481
28971SOL     OW88745   8.598  10.656   6.590
28971SOL    HW188746   8.553  10.713   6.528
28971SOL    HW288747   8.605  10.572   6.545
28972SOL     OW88748   3.329   2.798   1.949
28972SOL    HW188749   3.263   2.730   1.949
28972SOL    HW288750   3.296   2.864   2.011
28973SOL     OW88751   5.030   9.572   7.561
28973SOL    HW188752   5.047   9.534   7.647
28973SOL    HW288753   4.950   9.528   7.531
28974SOL     OW88754  13.090  10.854  10.363
28974SOL    HW188755  13.125  10.886  10.446
28974SOL    HW288756  12.995  10.867  10.370
28975SOL     OW88757   5.566   4.979  12.728
28975SOL    HW188758   5.573   5.018  12.640
28975SOL    HW288759   5.533   5.050  12.783
28976SOL     OW88760   7.024   6.676   1.382
28976SOL    HW188761   7.105   6.712   1.419
28976SOL    HW288762   7.054   6.623   1.307
28977SOL     OW88763  10.649  10.871   3.147
28977SOL    HW188764  10.709  10.898   3.216
28977SOL    HW288765  10.562  10.875   3.187
28978SOL     OW88766   6.140   2.225  11.180
28978SOL    HW188767   6.151   2.305  11.129
28978SOL    HW288768   6.167   2.249  11.269
28979SOL     OW88769  13.056  13.476   1.481
28979SOL    HW188770  13.029  13.530   1.407
28979SOL    HW288771  12.979  13.423   1.502
28980SOL     OW88772   6.214   5.021  13.884
28980SOL    HW188773   6.219   4.940  13.933
28980SOL    HW288774   6.203   4.994  13.793
28981SOL     OW88775   0.306   0.502   8.647
28981SOL    HW188776   0.227   0.529   8.694
28981SOL    HW288777   0.377   0.514   8.711
28982SOL     OW88778   6.719  12.542  10.077
28982SOL    HW188779   6.715  12.522  10.171
28982SOL    HW288780   6.749  12.633  10.073
28983SOL     OW88781  14.396  12.970   3.742
28983SOL    HW188782  14.426  12.883   3.768
28983SOL    HW288783  14.410  13.024   3.820
28984SOL     OW88784   8.775   8.373   2.798
28984SOL    HW188785   8.770   8.398   2.706
28984SOL    HW288786   8.728   8.442   2.844
28985SOL     OW88787  10.305  14.161  13.157
28985SOL    HW188788  10.233  14.222  13.174
28985SOL    HW288789  10.316  14.164  13.062
28986SOL     OW88790  13.859  12.806   5.506
28986SOL    HW188791  13.775  12.839   5.540
28986SOL    HW288792  13.856  12.827   5.412
28987SOL     OW88793  14.033  13.217   9.318
28987SOL    HW188794  14.057  13.131   9.283
28987SOL    HW288795  13.942  13.207   9.347
28988SOL     OW88796  13.743  14.336  11.460
28988SOL    HW188797  13.801  14.275  11.506
28988SOL    HW288798  13.784  14.349  11.374
28989SOL     OW88799  13.833   8.263   2.403
28989SOL    HW188800  13.912   8.222   2.438
28989SOL    HW288801  13.761   8.216   2.444
28990SOL     OW88802   7.640   7.656   8.759
28990SOL    HW188803   7.731   7.628   8.756
28990SOL    HW288804   7.599   7.614   8.684
28991SOL     OW88805   1.379  13.511  11.624
28991SOL    HW188806   1.331  13.594  11.631
28991SOL    HW288807   1.471  13.535  11.637
28992SOL     OW88808  10.578  13.048   9.422
28992SOL    HW188809  10.549  12.958   9.436
28992SOL    HW288810  10.496  13.098   9.413
28993SOL     OW88811  14.079   9.717  11.636
28993SOL    HW188812  14.029   9.773  11.576
28993SOL    HW288813  14.138   9.777  11.681
28994SOL     OW88814   0.191  12.189   7.290
28994SOL    HW188815   0.254  12.178   7.218
28994SOL    HW288816   0.166  12.100   7.313
28995SOL     OW88817   4.207  13.317  14.446
28995SOL    HW188818   4.149  13.322  14.522
28995SOL    HW288819   4.149  13.328  14.370
28996SOL     OW88820   2.747   0.129  11.237
28996SOL    HW188821   2.730   0.206  11.183
28996SOL    HW288822   2.779   0.063  11.175
28997SOL     OW88823   9.466   6.062   1.246
28997SOL    HW188824   9.390   6.005   1.235
28997SOL    HW288825   9.478   6.102   1.159
28998SOL     OW88826  14.176   4.793  13.516
28998SOL    HW188827  14.116   4.761  13.583
28998SOL    HW288828  14.141   4.879  13.492
28999SOL     OW88829   4.408   2.538   9.529
28999SOL    HW188830   4.480   2.482   9.557
28999SOL    HW288831   4.450   2.612   9.485
29000SOL     OW88832   6.221   5.122   6.493
29000SOL    HW188833   6.283   5.092   6.560
29000SOL    HW288834   6.135   5.114   6.535
29001SOL     OW88835  11.171   9.758   2.363
29001SOL    HW188836  11.233   9.697   2.403
29001SOL    HW288837  11.189   9.752   2.269
29002SOL     OW88838   9.492   2.753   0.284
29002SOL    HW188839   9.551   2.688   0.246
29002SOL    HW288840   9.542   2.835   0.281
29003SOL     OW88841   4.641   5.149   5.438
29003SOL    HW188842   4.664   5.057   5.443
29003SOL    HW288843   4.721   5.192   5.406
29004SOL     OW88844   7.202   8.258   9.448
29004SOL    HW188845   7.136   8.199   9.487
29004SOL    HW288846   7.258   8.200   9.396
29005SOL     OW88847  13.086   6.975   4.087
29005SOL    HW188848  13.047   7.034   4.151
29005SOL    HW288849  13.069   6.887   4.122
29006SOL     OW88850   4.927   8.032  11.692
29006SOL    HW188851   5.011   8.073  11.675
29006SOL    HW288852   4.948   7.955  11.745
29007SOL     OW88853   2.072  14.257   4.588
29007SOL    HW188854   2.075  14.262   4.684
29007SOL    HW288855   2.008  14.188   4.570
29008SOL     OW88856   7.971   3.715   7.673
29008SOL    HW188857   7.930   3.754   7.596
29008SOL    HW288858   7.900   3.669   7.718
29009SOL     OW88859   0.272   6.336   7.967
29009SOL    HW188860   0.291   6.324   7.873
29009SOL    HW288861   0.185   6.376   7.969
29010SOL     OW88862  11.412  13.919   9.457
29010SOL    HW188863  11.406  13.964   9.373
29010SOL    HW288864  11.501  13.885   9.461
29011SOL     OW88865  10.838  10.153   0.686
29011SOL    HW188866  10.834  10.137   0.592
29011SOL    HW288867  10.836  10.065   0.725
29012SOL     OW88868  12.737  10.840   5.660
29012SOL    HW188869  12.663  10.826   5.600
29012SOL    HW288870  12.797  10.769   5.640
29013SOL     OW88871   0.583   8.314   4.787
29013SOL    HW188872   0.520   8.318   4.715
29013SOL    HW288873   0.651   8.253   4.755
29014SOL     OW88874   4.193  13.118  13.414
29014SOL    HW188875   4.198  13.161  13.329
29014SOL    HW288876   4.279  13.134  13.454
29015SOL     OW88877  14.518   0.056  13.382
29015SOL    HW188878  14.565   0.036  13.463
29015SOL    HW288879  14.550   0.142  13.355
29016SOL     OW88880   5.890   5.180  13.925
29016SOL    HW188881   5.921   5.089  13.928
29016SOL    HW288882   5.794   5.173  13.931
29017SOL     OW88883   0.506  14.728   4.701
29017SOL    HW188884   0.410  14.729   4.703
29017SOL    HW288885   0.532  14.808   4.747
29018SOL     OW88886   7.289   7.630   2.618
29018SOL    HW188887   7.278   7.722   2.596
29018SOL    HW288888   7.204   7.603   2.653
29019SOL     OW88889  13.314   8.468   8.021
29019SOL    HW188890  13.330   8.389   8.071
29019SOL    HW288891  13.342   8.446   7.932
29020SOL     OW88892  13.294   9.069   4.627
29020SOL    HW188893  13.289   8.993   4.685
29020SOL    HW288894  13.385   9.072   4.598
29021SOL     OW88895  11.293   8.283  14.745
29021SOL    HW188896  11.200   8.278  14.722
29021SOL    HW288897  11.300   8.237  14.829
29022SOL     OW88898   9.898   2.747   7.923
29022SOL    HW188899   9.880   2.654   7.906
29022SOL    HW288900   9.876   2.791   7.840
29023SOL     OW88901  13.103  14.313  11.869
29023SOL    HW188902  13.100  14.407  11.885
29023SOL    HW288903  13.017  14.281  11.896
29024SOL     OW88904  13.083  12.256  14.139
29024SOL    HW188905  13.094  12.208  14.057
29024SOL    HW288906  13.157  12.227  14.193
29025SOL     OW88907   4.395  10.065   4.409
29025SOL    HW188908   4.450  10.090   4.335
29025SOL    HW288909   4.386  10.146   4.460
29026SOL     OW88910   7.407  13.883   7.616
29026SOL    HW188911   7.440  13.800   7.582
29026SOL    HW288912   7.485  13.937   7.629
29027SOL     OW88913   1.487   2.947   3.748
29027SOL    HW188914   1.480   2.943   3.652
29027SOL    HW288915   1.531   3.030   3.765
29028SOL     OW88916  12.876   0.072   9.655
29028SOL    HW188917  12.844   0.077   9.745
29028SOL    HW288918  12.931   0.150   9.645
29029SOL     OW88919  12.428   3.709   6.071
29029SOL    HW188920  12.475   3.783   6.033
29029SOL    HW288921  12.426   3.727   6.165
29030SOL     OW88922   8.873   9.624   9.771
29030SOL    HW188923   8.912   9.573   9.700
29030SOL    HW288924   8.779   9.626   9.751
29031SOL     OW88925   5.477  10.382   5.490
29031SOL    HW188926   5.387  10.372   5.520
29031SOL    HW288927   5.530  10.347   5.561
29032SOL     OW88928   9.306   3.179   1.246
29032SOL    HW188929   9.250   3.231   1.305
29032SOL    HW288930   9.255   3.101   1.227
29033SOL     OW88931   4.147   0.387  10.820
29033SOL    HW188932   4.104   0.309  10.785
29033SOL    HW288933   4.077   0.437  10.862
29034SOL     OW88934   2.780   1.685  11.497
29034SOL    HW188935   2.772   1.759  11.437
29034SOL    HW288936   2.799   1.610  11.440
29035SOL     OW88937  11.779  13.735  14.083
29035SOL    HW188938  11.725  13.671  14.037
29035SOL    HW288939  11.744  13.820  14.055
29036SOL     OW88940  11.948  12.170   0.535
29036SOL    HW188941  11.876  12.187   0.596
29036SOL    HW288942  12.018  12.136   0.590
29037SOL     OW88943   2.763   2.264   5.662
29037SOL    HW188944   2.789   2.340   5.715
29037SOL    HW288945   2.691   2.296   5.608
29038SOL     OW88946   7.054   4.452  10.637
29038SOL    HW188947   6.983   4.441  10.700
29038SOL    HW288948   7.086   4.542  10.652
29039SOL     OW88949   4.334   6.105  12.368
29039SOL    HW188950   4.326   6.118  12.463
29039SOL    HW288951   4.246   6.083  12.339
29040SOL     OW88952  12.322   5.134  13.670
29040SOL    HW188953  12.382   5.151  13.742
29040SOL    HW288954  12.378   5.112  13.596
29041SOL     OW88955  12.050  14.562   9.618
29041SOL    HW188956  11.976  14.562   9.679
29041SOL    HW288957  12.074  14.469   9.610
29042SOL     OW88958   0.668   9.370   7.481
29042SOL    HW188959   0.603   9.363   7.551
29042SOL    HW288960   0.618   9.356   7.401
29043SOL     OW88961  10.116   3.042  14.378
29043SOL    HW188962  10.208   3.068  14.379
29043SOL    HW288963  10.098   3.022  14.286
29044SOL     OW88964  14.344   2.380   0.094
29044SOL    HW188965  14.434   2.389   0.061
29044SOL    HW288966  14.337   2.446   0.163
29045SOL     OW88967   1.791   2.674  11.346
29045SOL    HW188968   1.698   2.657  11.365
29045SOL    HW288969   1.796   2.768  11.333
29046SOL     OW88970   0.384   4.344   0.884
29046SOL    HW188971   0.419   4.266   0.927
29046SOL    HW288972   0.327   4.309   0.815
29047SOL     OW88973   6.762   6.716   1.354
29047SOL    HW188974   6.854   6.713   1.379
29047SOL    HW288975   6.764   6.730   1.259
29048SOL     OW88976   1.814   2.544  11.925
29048SOL    HW188977   1.728   2.527  11.886
29048SOL    HW288978   1.803   2.520  12.017
29049SOL     OW88979   9.200   1.750  14.619
29049SOL    HW188980   9.133   1.726  14.684
29049SOL    HW288981   9.277   1.771  14.671
29050SOL     OW88982   2.358  13.964   9.155
29050SOL    HW188983   2.431  13.906   9.175
29050SOL    HW288984   2.349  13.958   9.060
29051SOL     OW88985   0.325   3.640  10.805
29051SOL    HW188986   0.414   3.611  10.824
29051SOL    HW288987   0.273   3.607  10.878
29052SOL     OW88988   1.396   9.463   1.753
29052SOL    HW188989   1.348   9.532   1.797
29052SOL    HW288990   1.330   9.415   1.703
29053SOL     OW88991   3.830  14.124   5.050
29053SOL    HW188992   3.887  14.192   5.015
29053SOL    HW288993   3.747  14.135   5.002
29054SOL     OW88994   0.300   1.827   3.967
29054SOL    HW188995   0.393   1.835   3.992
29054SOL    HW288996   0.254   1.882   4.031
29055SOL     OW88997  12.867   4.814  13.198
29055SOL    HW188998  12.778   4.778  13.201
29055SOL    HW288999  12.856   4.904  13.169
29056SOL     OW89000   9.592   1.037  11.714
29056SOL    HW189001   9.566   1.053  11.805
29056SOL    HW289002   9.547   1.105  11.664
29057SOL     OW89003  12.318   3.347   7.136
29057SOL    HW189004  12.393   3.307   7.181
29057SOL    HW289005  12.245   3.287   7.154
29058SOL     OW89006   2.281   8.058   9.257
29058SOL    HW189007   2.298   8.045   9.164
29058SOL    HW289008   2.319   8.144   9.276
29059SOL     OW89009  12.478   2.736   6.052
29059SOL    HW189010  12.430   2.800   5.999
29059SOL    HW289011  12.480   2.657   5.999
29060SOL     OW89012   9.099   8.203  12.974
29060SOL    HW189013   9.044   8.131  12.944
29060SOL    HW289014   9.188   8.168  12.971
29061SOL     OW89015   8.434  13.300  10.882
29061SOL    HW189016   8.474  13.214  10.867
29061SOL    HW289017   8.508  13.357  10.904
29062SOL     OW89018  14.423  13.334  10.725
29062SOL    HW189019  14.421  13.314  10.819
29062SOL    HW289020  14.516  13.344  10.705
29063SOL     OW89021  13.188   7.429   1.216
29063SOL    HW189022  13.201   7.522   1.233
29063SOL    HW289023  13.151   7.425   1.128
29064SOL     OW89024   1.634   1.311   7.229
29064SOL    HW189025   1.662   1.308   7.320
29064SOL    HW289026   1.716   1.312   7.179
29065SOL     OW89027  11.296   7.279   1.944
29065SOL    HW189028  11.329   7.255   1.858
29065SOL    HW289029  11.254   7.364   1.931
29066SOL     OW89030   1.405  14.354   2.446
29066SOL    HW189031   1.398  14.401   2.363
29066SOL    HW289032   1.409  14.423   2.512
29067SOL     OW89033   6.941   2.871   7.044
29067SOL    HW189034   6.986   2.903   6.966
29067SOL    HW289035   6.850   2.895   7.031
29068SOL     OW89036  13.389   1.635  14.714
29068SOL    HW189037  13.298   1.663  14.724
29068SOL    HW289038  13.384   1.563  14.651
29069SOL     OW89039   2.028   3.582  10.891
29069SOL    HW189040   1.997   3.497  10.862
29069SOL    HW289041   2.083   3.613  10.819
29070SOL     OW89042   2.677   3.469  10.814
29070SOL    HW189043   2.676   3.562  10.791
29070SOL    HW289044   2.764   3.439  10.790
29071SOL     OW89045   6.198   6.480   2.931
29071SOL    HW189046   6.203   6.518   3.019
29071SOL    HW289047   6.191   6.386   2.947
29072SOL     OW89048   3.669   7.040  12.117
29072SOL    HW189049   3.713   7.105  12.063
29072SOL    HW289050   3.666   7.079  12.204
29073SOL     OW89051   2.538   9.879   5.990
29073SOL    HW189052   2.574   9.956   5.947
29073SOL    HW289053   2.563   9.889   6.082
29074SOL     OW89054   9.374  11.134   6.751
29074SOL    HW189055   9.349  11.065   6.689
29074SOL    HW289056   9.421  11.089   6.820
29075SOL     OW89057  13.945   2.335   0.777
29075SOL    HW189058  13.986   2.278   0.712
29075SOL    HW289059  13.974   2.302   0.861
29076SOL     OW89060  10.056   7.174  11.373
29076SOL    HW189061  10.050   7.193  11.467
29076SOL    HW289062   9.969   7.141  11.350
29077SOL     OW89063   3.983  10.469   4.501
29077SOL    HW189064   4.078  10.480   4.506
29077SOL    HW289065   3.970  10.414   4.424
29078SOL     OW89066  13.229   2.784   6.494
29078SOL    HW189067  13.171   2.846   6.449
29078SOL    HW289068  13.207   2.792   6.586
29079SOL     OW89069   9.662   5.628  12.140
29079SOL    HW189070   9.724   5.672  12.081
29079SOL    HW289071   9.669   5.536  12.117
29080SOL     OW89072   2.916   4.206  10.557
29080SOL    HW189073   2.951   4.126  10.596
29080SOL    HW289074   2.844   4.231  10.615
29081SOL     OW89075   8.808   7.141   5.312
29081SOL    HW189076   8.870   7.148   5.385
29081SOL    HW289077   8.860   7.106   5.240
29082SOL     OW89078   1.781  13.372  11.504
29082SOL    HW189079   1.767  13.300  11.443
29082SOL    HW289080   1.870  13.359  11.537
29083SOL     OW89081  14.279   7.832  13.528
29083SOL    HW189082  14.269   7.823  13.433
29083SOL    HW289083  14.260   7.925  13.545
29084SOL     OW89084   5.638  13.740  12.183
29084SOL    HW189085   5.622  13.817  12.238
29084SOL    HW289086   5.581  13.672  12.220
29085SOL     OW89087  11.640  13.755   9.466
29085SOL    HW189088  11.570  13.690   9.470
29085SOL    HW289089  11.681  13.742   9.381
29086SOL     OW89090   6.584   9.914  12.966
29086SOL    HW189091   6.527   9.966  13.023
29086SOL    HW289092   6.606   9.837  13.018
29087SOL     OW89093   0.586   4.663   6.296
29087SOL    HW189094   0.577   4.571   6.272
29087SOL    HW289095   0.512   4.706   6.253
29088SOL     OW89096   7.522   8.383   8.476
29088SOL    HW189097   7.513   8.475   8.503
29088SOL    HW289098   7.521   8.334   8.559
29089SOL     OW89099  12.354   5.376   8.767
29089SOL    HW189100  12.319   5.334   8.845
29089SOL    HW289101  12.401   5.307   8.720
29090SOL     OW89102   1.049   0.035  13.924
29090SOL    HW189103   1.052   0.047  14.019
29090SOL    HW289104   1.107   0.103  13.890
29091SOL     OW89105  11.423   8.509   6.997
29091SOL    HW189106  11.516   8.514   7.021
29091SOL    HW289107  11.417   8.559   6.915
29092SOL     OW89108   6.656   7.603  10.063
29092SOL    HW189109   6.606   7.661  10.120
29092SOL    HW289110   6.746   7.610  10.094
29093SOL     OW89111  14.688  11.622  14.635
29093SOL    HW189112  14.762  11.666  14.676
29093SOL    HW289113  14.633  11.693  14.602
29094SOL     OW89114  12.347   7.237  11.536
29094SOL    HW189115  12.413   7.306  11.533
29094SOL    HW289116  12.387   7.168  11.590
29095SOL     OW89117   6.288   2.782   0.191
29095SOL    HW189118   6.258   2.839   0.262
29095SOL    HW289119   6.217   2.719   0.179
29096SOL     OW89120   1.148   2.181   4.969
29096SOL    HW189121   1.117   2.255   5.020
29096SOL    HW289122   1.089   2.109   4.991
29097SOL     OW89123  10.638   0.870   3.797
29097SOL    HW189124  10.652   0.922   3.718
29097SOL    HW289125  10.599   0.788   3.766
29098SOL     OW89126   1.117   5.106  14.562
29098SOL    HW189127   1.128   5.044  14.489
29098SOL    HW289128   1.199   5.100  14.611
29099SOL     OW89129   2.812   2.734  11.830
29099SOL    HW189130   2.816   2.828  11.844
29099SOL    HW289131   2.868   2.697  11.899
29100SOL     OW89132   5.768   8.753   8.947
29100SOL    HW189133   5.792   8.699   9.023
29100SOL    HW289134   5.852   8.786   8.915
29101SOL     OW89135   9.522   9.926   8.744
29101SOL    HW189136   9.468   9.847   8.739
29101SOL    HW289137   9.477   9.981   8.808
29102SOL     OW89138  10.400   2.256  14.079
29102SOL    HW189139  10.334   2.280  14.145
29102SOL    HW289140  10.432   2.340  14.047
29103SOL     OW89141   2.752   0.503   6.419
29103SOL    HW189142   2.704   0.582   6.442
29103SOL    HW289143   2.775   0.464   6.503
29104SOL     OW89144   7.474   1.741   1.221
29104SOL    HW189145   7.474   1.685   1.298
29104SOL    HW289146   7.509   1.686   1.151
29105SOL     OW89147   8.551   3.066  13.068
29105SOL    HW189148   8.514   2.988  13.110
29105SOL    HW289149   8.529   3.056  12.975
29106SOL     OW89150   6.766   3.916  12.634
29106SOL    HW189151   6.686   3.866  12.617
29106SOL    HW289152   6.741   4.007  12.617
29107SOL     OW89153  10.823   7.997   8.936
29107SOL    HW189154  10.834   8.066   9.002
29107SOL    HW289155  10.851   8.037   8.854
29108SOL     OW89156  12.849   1.159   0.743
29108SOL    HW189157  12.771   1.175   0.796
29108SOL    HW289158  12.856   1.236   0.686
29109SOL     OW89159   8.598   3.779   1.058
29109SOL    HW189160   8.608   3.874   1.063
29109SOL    HW289161   8.532   3.765   0.990
29110SOL     OW89162   3.797   8.820   2.203
29110SOL    HW189163   3.859   8.782   2.266
29110SOL    HW289164   3.722   8.845   2.256
29111SOL     OW89165   5.490   5.344   8.736
29111SOL    HW189166   5.416   5.400   8.713
29111SOL    HW289167   5.472   5.316   8.825
29112SOL     OW89168   3.840  13.224   1.039
29112SOL    HW189169   3.761  13.256   0.995
29112SOL    HW289170   3.810  13.147   1.089
29113SOL     OW89171   8.930   1.139  12.082
29113SOL    HW189172   8.924   1.048  12.054
29113SOL    HW289173   8.868   1.146  12.155
29114SOL     OW89174   3.722   3.914   8.028
29114SOL    HW189175   3.677   3.875   7.953
29114SOL    HW289176   3.813   3.920   8.001
29115SOL     OW89177  12.501   4.853  11.821
29115SOL    HW189178  12.410   4.823  11.821
29115SOL    HW289179  12.549   4.781  11.780
29116SOL     OW89180  13.349  10.326  14.181
29116SOL    HW189181  13.420  10.375  14.139
29116SOL    HW289182  13.281  10.391  14.197
29117SOL     OW89183   8.385   7.631   3.803
29117SOL    HW189184   8.463   7.652   3.752
29117SOL    HW289185   8.409   7.655   3.893
29118SOL     OW89186   2.448   2.411   0.940
29118SOL    HW189187   2.507   2.438   0.870
29118SOL    HW289188   2.361   2.433   0.907
29119SOL     OW89189  10.463   8.080  12.571
29119SOL    HW189190  10.453   8.173  12.551
29119SOL    HW289191  10.557   8.064  12.561
29120SOL     OW89192   4.711  13.165   6.124
29120SOL    HW189193   4.760  13.235   6.167
29120SOL    HW289194   4.741  13.084   6.166
29121SOL     OW89195   2.104   2.295   5.549
29121SOL    HW189196   2.111   2.208   5.511
29121SOL    HW289197   2.091   2.353   5.474
29122SOL     OW89198   9.187  14.290  10.361
29122SOL    HW189199   9.206  14.320  10.450
29122SOL    HW289200   9.103  14.329  10.339
29123SOL     OW89201   6.712  10.245  12.377
29123SOL    HW189202   6.645  10.219  12.439
29123SOL    HW289203   6.795  10.219  12.418
29124SOL     OW89204   4.709   9.445  11.264
29124SOL    HW189205   4.654   9.367  11.260
29124SOL    HW289206   4.715   9.465  11.357
29125SOL     OW89207  11.589   5.781   1.911
29125SOL    HW189208  11.606   5.812   2.000
29125SOL    HW289209  11.650   5.708   1.899
29126SOL     OW89210   7.614  10.875  12.526
29126SOL    HW189211   7.665  10.825  12.462
29126SOL    HW289212   7.650  10.849  12.611
29127SOL     OW89213   7.108   6.127  13.573
29127SOL    HW189214   7.151   6.069  13.510
29127SOL    HW289215   7.047   6.179  13.521
29128SOL     OW89216   3.402   6.067  11.220
29128SOL    HW189217   3.309   6.065  11.197
29128SOL    HW289218   3.438   5.987  11.183
29129SOL     OW89219   3.194  14.451   3.692
29129SOL    HW189220   3.169  14.542   3.674
29129SOL    HW289221   3.256  14.430   3.622
29130SOL     OW89222   8.780   6.672   5.031
29130SOL    HW189223   8.714   6.736   5.058
29130SOL    HW289224   8.754   6.591   5.075
29131SOL     OW89225  10.988  10.394   1.851
29131SOL    HW189226  11.053  10.452   1.893
29131SOL    HW289227  10.946  10.449   1.785
29132SOL     OW89228  11.162  11.308   9.008
29132SOL    HW189229  11.194  11.314   8.917
29132SOL    HW289230  11.131  11.397   9.027
29133SOL     OW89231   0.770   5.989   1.348
29133SOL    HW189232   0.689   5.948   1.380
29133SOL    HW289233   0.790   6.056   1.413
29134SOL     OW89234   7.690   0.377  12.994
29134SOL    HW189235   7.751   0.313  12.959
29134SOL    HW289236   7.677   0.351  13.085
29135SOL     OW89237   1.419   8.777   7.604
29135SOL    HW189238   1.398   8.836   7.676
29135SOL    HW289239   1.440   8.694   7.647
29136SOL     OW89240   3.172   7.118   1.595
29136SOL    HW189241   3.089   7.163   1.606
29136SOL    HW289242   3.223   7.175   1.538
29137SOL     OW89243   0.226  10.740   9.662
29137SOL    HW189244   0.268  10.772   9.582
29137SOL    HW289245   0.294  10.747   9.729
29138SOL     OW89246  11.787   0.284   3.568
29138SOL    HW189247  11.741   0.201   3.582
29138SOL    HW289248  11.878   0.264   3.587
29139SOL     OW89249   5.762  14.750  13.324
29139SOL    HW189250   5.833  14.812  13.342
29139SOL    HW289251   5.803  14.682  13.271
29140SOL     OW89252   4.943   1.779  14.853
29140SOL    HW189253   4.973   1.869  14.841
29140SOL    HW289254   4.853   1.779  14.820
29141SOL     OW89255   0.865  12.044   9.577
29141SOL    HW189256   0.786  11.990   9.568
29141SOL    HW289257   0.860  12.105   9.503
29142SOL     OW89258   3.778  13.216   1.411
29142SOL    HW189259   3.814  13.253   1.492
29142SOL    HW289260   3.714  13.281   1.382
29143SOL     OW89261   9.137   8.281   9.428
29143SOL    HW189262   9.118   8.266   9.336
29143SOL    HW289263   9.085   8.358   9.452
29144SOL     OW89264  12.339  14.547  13.814
29144SOL    HW189265  12.320  14.605  13.888
29144SOL    HW289266  12.256  14.502  13.796
29145SOL     OW89267   7.238   4.183  13.923
29145SOL    HW189268   7.172   4.151  13.862
29145SOL    HW289269   7.294   4.107  13.940
29146SOL     OW89270   3.579   6.649  13.618
29146SOL    HW189271   3.531   6.715  13.568
29146SOL    HW289272   3.567   6.568  13.568
29147SOL     OW89273   2.471   5.267   6.190
29147SOL    HW189274   2.567   5.268   6.198
29147SOL    HW289275   2.442   5.333   6.253
29148SOL     OW89276  12.995   3.542  13.617
29148SOL    HW189277  12.910   3.514  13.650
29148SOL    HW289278  13.044   3.568  13.695
29149SOL     OW89279  11.727  12.848  14.793
29149SOL    HW189280  11.804  12.845  14.849
29149SOL    HW289281  11.754  12.807  14.711
29150SOL     OW89282  11.270   8.986   5.973
29150SOL    HW189283  11.265   8.976   5.878
29150SOL    HW289284  11.196   8.936   6.007
29151SOL     OW89285  12.188   0.090   7.429
29151SOL    HW189286  12.221   0.139   7.354
29151SOL    HW289287  12.095   0.076   7.409
29152SOL     OW89288  10.397   0.509   9.239
29152SOL    HW189289  10.480   0.490   9.283
29152SOL    HW289290  10.330   0.469   9.295
29153SOL     OW89291   8.239   3.255   7.659
29153SOL    HW189292   8.236   3.161   7.639
29153SOL    HW289293   8.191   3.296   7.587
29154SOL     OW89294  14.484  11.422   7.808
29154SOL    HW189295  14.528  11.471   7.739
29154SOL    HW289296  14.538  11.436   7.886
29155SOL     OW89297   3.193   6.002  14.789
29155SOL    HW189298   3.158   6.089  14.771
29155SOL    HW289299   3.124   5.942  14.760
29156SOL     OW89300  11.799  11.463   1.766
29156SOL    HW189301  11.740  11.408   1.714
29156SOL    HW289302  11.867  11.402   1.796
29157SOL     OW89303   2.973   7.849   2.271
29157SOL    HW189304   3.027   7.891   2.205
29157SOL    HW289305   2.885   7.886   2.257
29158SOL     OW89306  13.265  12.176   1.454
29158SOL    HW189307  13.343  12.227   1.477
29158SOL    HW289308  13.215  12.168   1.535
29159SOL     OW89309   9.530  13.265  14.115
29159SOL    HW189310   9.571  13.182  14.140
29159SOL    HW289311   9.602  13.318  14.081
29160SOL     OW89312   8.522  13.193   3.735
29160SOL    HW189313   8.487  13.150   3.813
29160SOL    HW289314   8.475  13.153   3.662
29161SOL     OW89315  12.533   5.827   9.242
29161SOL    HW189316  12.490   5.850   9.324
29161SOL    HW289317  12.521   5.905   9.186
29162SOL     OW89318  13.124  10.816   7.517
29162SOL    HW189319  13.196  10.752   7.512
29162SOL    HW289320  13.140  10.875   7.443
29163SOL     OW89321   3.405  10.665   1.262
29163SOL    HW189322   3.357  10.583   1.277
29163SOL    HW289323   3.385  10.688   1.171
29164SOL     OW89324   5.932  10.520   2.365
29164SOL    HW189325   6.024  10.546   2.375
29164SOL    HW289326   5.886  10.602   2.347
29165SOL     OW89327  13.275   7.708   5.360
29165SOL    HW189328  13.352   7.727   5.307
29165SOL    HW289329  13.303   7.724   5.450
29166SOL     OW89330   4.545   1.390   1.402
29166SOL    HW189331   4.500   1.466   1.366
29166SOL    HW289332   4.477   1.324   1.412
29167SOL     OW89333  14.282  14.758  12.552
29167SOL    HW189334  14.216  14.828  12.549
29167SOL    HW289335  14.309  14.748  12.460
29168SOL     OW89336  11.471  13.794  11.229
29168SOL    HW189337  11.516  13.865  11.274
29168SOL    HW289338  11.482  13.718  11.286
29169SOL     OW89339   1.232  10.950   4.020
29169SOL    HW189340   1.171  10.876   4.013
29169SOL    HW289341   1.294  10.923   4.089
29170SOL     OW89342  10.310  13.506   9.511
29170SOL    HW189343  10.332  13.577   9.451
29170SOL    HW289344  10.352  13.529   9.593
29171SOL     OW89345   7.617   0.542  11.134
29171SOL    HW189346   7.614   0.448  11.153
29171SOL    HW289347   7.630   0.584  11.219
29172SOL     OW89348   0.236  12.695   8.168
29172SOL    HW189349   0.328  12.674   8.153
29172SOL    HW289350   0.230  12.789   8.153
29173SOL     OW89351   2.905   6.303   4.356
29173SOL    HW189352   2.896   6.325   4.263
29173SOL    HW289353   2.860   6.219   4.366
29174SOL     OW89354   7.381  14.296  10.813
29174SOL    HW189355   7.339  14.212  10.794
29174SOL    HW289356   7.374  14.345  10.731
29175SOL     OW89357   1.178   6.197  12.727
29175SOL    HW189358   1.110   6.237  12.672
29175SOL    HW289359   1.158   6.227  12.816
29176SOL     OW89360  13.066   9.448  14.297
29176SOL    HW189361  13.066   9.482  14.207
29176SOL    HW289362  13.066   9.353  14.286
29177SOL     OW89363   7.623   7.559   3.747
29177SOL    HW189364   7.718   7.556   3.739
29177SOL    HW289365   7.596   7.629   3.688
29178SOL     OW89366   7.768  13.862  11.400
29178SOL    HW189367   7.806  13.805  11.332
29178SOL    HW289368   7.803  13.949  11.380
29179SOL     OW89369  10.885   5.830   8.577
29179SOL    HW189370  10.871   5.781   8.658
29179SOL    HW289371  10.827   5.906   8.586
29180SOL     OW89372   3.454   9.714   0.877
29180SOL    HW189373   3.451   9.733   0.783
29180SOL    HW289374   3.541   9.678   0.892
29181SOL     OW89375   1.557   4.217   2.942
29181SOL    HW189376   1.495   4.228   2.869
29181SOL    HW289377   1.533   4.287   3.003
29182SOL     OW89378  12.557   3.226   3.192
29182SOL    HW189379  12.577   3.319   3.184
29182SOL    HW289380  12.557   3.193   3.102
29183SOL     OW89381   4.188  14.839  14.576
29183SOL    HW189382   4.271  14.868  14.614
29183SOL    HW289383   4.189  14.744  14.585
29184SOL     OW89384   5.386  11.389   4.416
29184SOL    HW189385   5.402  11.296   4.399
29184SOL    HW289386   5.471  11.422   4.444
29185SOL     OW89387   2.168   5.093  12.207
29185SOL    HW189388   2.102   5.042  12.161
29185SOL    HW289389   2.239   5.104  12.145
29186SOL     OW89390   4.373  10.987  11.109
29186SOL    HW189391   4.388  11.025  11.023
29186SOL    HW289392   4.455  11.001  11.156
29187SOL     OW89393   3.503  14.286   9.934
29187SOL    HW189394   3.520  14.374   9.969
29187SOL    HW289395   3.583  14.263   9.887
29188SOL     OW89396   8.855   1.852  11.957
29188SOL    HW189397   8.926   1.842  11.893
29188SOL    HW289398   8.787   1.793  11.925
29189SOL     OW89399   7.374  12.690   3.142
29189SOL    HW189400   7.342  12.676   3.053
29189SOL    HW289401   7.298  12.722   3.191
29190SOL     OW89402  11.988   0.168  14.309
29190SOL    HW189403  11.941   0.213  14.379
29190SOL    HW289404  12.076   0.206  14.312
29191SOL     OW89405   9.557   5.442   6.032
29191SOL    HW189406   9.493   5.371   6.043
29191SOL    HW289407   9.637   5.397   6.007
29192SOL     OW89408   8.190   8.127  11.714
29192SOL    HW189409   8.243   8.073  11.772
29192SOL    HW289410   8.103   8.126  11.754
29193SOL     OW89411  10.087   4.991  10.323
29193SOL    HW189412  10.180   4.976  10.339
29193SOL    HW289413  10.059   5.047  10.396
29194SOL     OW89414   4.339   0.754  13.966
29194SOL    HW189415   4.385   0.694  14.025
29194SOL    HW289416   4.265   0.786  14.018
29195SOL     OW89417   1.999   9.210  12.849
29195SOL    HW189418   1.983   9.203  12.944
29195SOL    HW289419   2.082   9.259  12.843
29196SOL     OW89420   0.799   6.457   1.121
29196SOL    HW189421   0.791   6.460   1.026
29196SOL    HW289422   0.776   6.366   1.144
29197SOL     OW89423   6.848   2.546   2.079
29197SOL    HW189424   6.939   2.558   2.104
29197SOL    HW289425   6.799   2.604   2.137
29198SOL     OW89426   5.026  12.440   2.004
29198SOL    HW189427   5.036  12.503   2.076
29198SOL    HW289428   5.096  12.377   2.017
29199SOL     OW89429   0.797   5.398   9.345
29199SOL    HW189430   0.873   5.341   9.341
29199SOL    HW289431   0.795   5.430   9.435
29200SOL     OW89432  14.080   4.164  13.929
29200SOL    HW189433  14.091   4.245  13.880
29200SOL    HW289434  14.150   4.165  13.994
29201SOL     OW89435   6.649   6.037   4.270
29201SOL    HW189436   6.656   6.018   4.177
29201SOL    HW289437   6.691   6.122   4.281
29202SOL     OW89438  13.895   3.727   2.217
29202SOL    HW189439  13.926   3.715   2.127
29202SOL    HW289440  13.966   3.774   2.261
29203SOL     OW89441   7.064  12.677  14.383
29203SOL    HW189442   7.156  12.649  14.376
29203SOL    HW289443   7.015  12.604  14.345
29204SOL     OW89444  10.546   9.341   6.162
29204SOL    HW189445  10.578   9.332   6.072
29204SOL    HW289446  10.456   9.372   6.152
29205SOL     OW89447  11.060   8.102  12.553
29205SOL    HW189448  11.014   8.160  12.492
29205SOL    HW289449  11.150   8.101  12.521
29206SOL     OW89450   3.521   2.962  12.175
29206SOL    HW189451   3.544   2.971  12.267
29206SOL    HW289452   3.553   3.042  12.134
29207SOL     OW89453  11.845  10.779   7.950
29207SOL    HW189454  11.751  10.765   7.961
29207SOL    HW289455  11.876  10.700   7.904
29208SOL     OW89456   3.218  11.011   3.714
29208SOL    HW189457   3.246  11.066   3.641
29208SOL    HW289458   3.184  10.932   3.673
29209SOL     OW89459   4.641  13.138  12.740
29209SOL    HW189460   4.594  13.159  12.659
29209SOL    HW289461   4.665  13.224  12.776
29210SOL     OW89462  12.701   4.169   6.268
29210SOL    HW189463  12.735   4.233   6.205
29210SOL    HW289464  12.779   4.141   6.317
29211SOL     OW89465   6.479   0.442   7.052
29211SOL    HW189466   6.448   0.505   6.986
29211SOL    HW289467   6.452   0.480   7.136
29212SOL     OW89468   5.737   8.374   3.741
29212SOL    HW189469   5.703   8.355   3.654
29212SOL    HW289470   5.661   8.367   3.799
29213SOL     OW89471   7.098  13.377   5.439
29213SOL    HW189472   7.009  13.388   5.473
29213SOL    HW289473   7.098  13.291   5.397
29214SOL     OW89474  10.251  14.566   4.284
29214SOL    HW189475  10.339  14.545   4.251
29214SOL    HW289476  10.258  14.553   4.379
29215SOL     OW89477   5.726   0.628   1.563
29215SOL    HW189478   5.798   0.644   1.503
29215SOL    HW289479   5.688   0.545   1.535
29216SOL     OW89480   2.222   0.578  11.545
29216SOL    HW189481   2.172   0.625  11.479
29216SOL    HW289482   2.158   0.524  11.591
29217SOL     OW89483   2.890   0.269   0.208
29217SOL    HW189484   2.967   0.258   0.264
29217SOL    HW289485   2.872   0.363   0.209
29218SOL     OW89486   9.988   0.224   9.089
29218SOL    HW189487   9.985   0.160   9.160
29218SOL    HW289488  10.080   0.229   9.065
29219SOL     OW89489   5.516  12.456   9.247
29219SOL    HW189490   5.535  12.414   9.163
29219SOL    HW289491   5.586  12.428   9.305
29220SOL     OW89492  12.808   9.872  10.476
29220SOL    HW189493  12.838   9.958  10.505
29220SOL    HW289494  12.714   9.883  10.460
29221SOL     OW89495  10.457   5.964   1.336
29221SOL    HW189496  10.527   5.925   1.283
29221SOL    HW289497  10.397   6.001   1.271
29222SOL     OW89498   1.984  13.909   2.907
29222SOL    HW189499   1.914  13.854   2.941
29222SOL    HW289500   1.946  13.950   2.829
29223SOL     OW89501   7.516   6.715   8.020
29223SOL    HW189502   7.521   6.699   8.115
29223SOL    HW289503   7.567   6.795   8.006
29224SOL     OW89504  12.683  12.977   0.336
29224SOL    HW189505  12.687  13.028   0.417
29224SOL    HW289506  12.594  12.989   0.304
29225SOL     OW89507   6.975   0.451   0.780
29225SOL    HW189508   7.048   0.506   0.808
29225SOL    HW289509   7.005   0.410   0.699
29226SOL     OW89510   2.052   7.067   0.686
29226SOL    HW189511   2.079   7.029   0.769
29226SOL    HW289512   1.957   7.075   0.692
29227SOL     OW89513   6.449   5.675   9.747
29227SOL    HW189514   6.492   5.589   9.744
29227SOL    HW289515   6.512   5.731   9.793
29228SOL     OW89516  12.284   1.661   1.840
29228SOL    HW189517  12.346   1.717   1.887
29228SOL    HW289518  12.339   1.602   1.788
29229SOL     OW89519   4.149   2.900  11.149
29229SOL    HW189520   4.208   2.952  11.203
29229SOL    HW289521   4.180   2.810  11.158
29230SOL     OW89522  10.407  10.574   4.570
29230SOL    HW189523  10.371  10.610   4.488
29230SOL    HW289524  10.448  10.492   4.544
29231SOL     OW89525   1.816   7.646  12.762
29231SOL    HW189526   1.767   7.657  12.843
29231SOL    HW289527   1.827   7.734  12.728
29232SOL     OW89528  11.407   7.347   6.129
29232SOL    HW189529  11.494   7.378   6.105
29232SOL    HW289530  11.348   7.394   6.069
29233SOL     OW89531  14.148   5.374  11.653
29233SOL    HW189532  14.180   5.434  11.586
29233SOL    HW289533  14.152   5.287  11.612
29234SOL     OW89534  13.964   7.852   9.719
29234SOL    HW189535  13.920   7.768   9.709
29234SOL    HW289536  13.903   7.906   9.770
29235SOL     OW89537   9.260   7.023  13.446
29235SOL    HW189538   9.192   7.059  13.501
29235SOL    HW289539   9.297   7.099  13.400
29236SOL     OW89540   0.773  10.912  10.804
29236SOL    HW189541   0.732  10.950  10.726
29236SOL    HW289542   0.756  10.975  10.874
29237SOL     OW89543   4.141   0.808   7.803
29237SOL    HW189544   4.192   0.808   7.884
29237SOL    HW289545   4.163   0.891   7.761
29238SOL     OW89546  10.836   4.547   8.201
29238SOL    HW189547  10.820   4.454   8.183
29238SOL    HW289548  10.750   4.587   8.205
29239SOL     OW89549  12.350   0.392   8.558
29239SOL    HW189550  12.441   0.363   8.564
29239SOL    HW289551  12.337   0.409   8.465
29240SOL     OW89552   6.558   1.206   0.621
29240SOL    HW189553   6.464   1.204   0.603
29240SOL    HW289554   6.595   1.254   0.548
29241SOL     OW89555  11.376   3.478   1.078
29241SOL    HW189556  11.291   3.434   1.087
29241SOL    HW289557  11.363   3.539   1.006
29242SOL     OW89558   1.713   1.717   7.933
29242SOL    HW189559   1.642   1.654   7.944
29242SOL    HW289560   1.763   1.683   7.859
29243SOL     OW89561   3.768   8.267   8.188
29243SOL    HW189562   3.809   8.222   8.114
29243SOL    HW289563   3.768   8.359   8.163
29244SOL     OW89564   4.840   7.039   5.330
29244SOL    HW189565   4.858   6.948   5.353
29244SOL    HW289566   4.914   7.065   5.276
29245SOL     OW89567   7.218  10.388   9.732
29245SOL    HW189568   7.144  10.392   9.793
29245SOL    HW289569   7.225  10.478   9.699
29246SOL     OW89570  13.254  10.471   2.392
29246SOL    HW189571  13.306  10.405   2.346
29246SOL    HW289572  13.233  10.431   2.476
29247SOL     OW89573  12.657   6.771  12.910
29247SOL    HW189574  12.737   6.739  12.950
29247SOL    HW289575  12.623   6.697  12.859
29248SOL     OW89576   5.673  12.869   7.997
29248SOL    HW189577   5.761  12.891   7.967
29248SOL    HW289578   5.686  12.807   8.068
29249SOL     OW89579   2.481  14.485  11.333
29249SOL    HW189580   2.508  14.421  11.399
29249SOL    HW289581   2.385  14.485  11.337
29250SOL     OW89582   0.089   5.467   7.725
29250SOL    HW189583   0.074   5.467   7.820
29250SOL    HW289584   0.164   5.526   7.713
29251SOL     OW89585   6.203   3.904   0.706
29251SOL    HW189586   6.273   3.855   0.662
29251SOL    HW289587   6.232   3.995   0.701
29252SOL     OW89588   7.664  13.341   7.950
29252SOL    HW189589   7.653  13.345   7.855
29252SOL    HW289590   7.737  13.401   7.967
29253SOL     OW89591  13.657   6.075   0.436
29253SOL    HW189592  13.743   6.111   0.415
29253SOL    HW289593  13.610   6.075   0.353
29254SOL     OW89594  10.140   5.482   7.938
29254SOL    HW189595  10.151   5.401   7.988
29254SOL    HW289596  10.109   5.546   8.002
29255SOL     OW89597  12.699   4.020   0.420
29255SOL    HW189598  12.636   4.054   0.356
29255SOL    HW289599  12.766   4.088   0.425
29256SOL     OW89600   7.293   9.583  11.469
29256SOL    HW189601   7.349   9.519  11.425
29256SOL    HW289602   7.207   9.540  11.473
29257SOL     OW89603  10.942   9.872  10.881
29257SOL    HW189604  10.948   9.960  10.920
29257SOL    HW289605  10.848   9.857  10.871
29258SOL     OW89606  11.166   5.729   1.767
29258SOL    HW189607  11.111   5.777   1.829
29258SOL    HW289608  11.113   5.726   1.687
29259SOL     OW89609  13.419   3.246  12.334
29259SOL    HW189610  13.449   3.155  12.331
29259SOL    HW289611  13.350   3.250  12.268
29260SOL     OW89612   2.530   8.377   8.164
29260SOL    HW189613   2.614   8.340   8.191
29260SOL    HW289614   2.472   8.361   8.238
29261SOL     OW89615   5.575  12.493   0.486
29261SOL    HW189616   5.573  12.476   0.392
29261SOL    HW289617   5.610  12.412   0.524
29262SOL     OW89618  13.744  11.983   7.597
29262SOL    HW189619  13.808  11.995   7.527
29262SOL    HW289620  13.710  11.895   7.585
29263SOL     OW89621   9.697  11.462  10.070
29263SOL    HW189622   9.612  11.486  10.033
29263SOL    HW289623   9.760  11.518  10.025
29264SOL     OW89624  11.366   7.350   4.779
29264SOL    HW189625  11.367   7.415   4.709
29264SOL    HW289626  11.442   7.293   4.760
29265SOL     OW89627   3.499   2.366   6.117
29265SOL    HW189628   3.500   2.319   6.033
29265SOL    HW289629   3.566   2.322   6.170
29266SOL     OW89630   8.202   3.677   0.657
29266SOL    HW189631   8.242   3.701   0.574
29266SOL    HW289632   8.173   3.587   0.645
29267SOL     OW89633  13.609  11.749   7.704
29267SOL    HW189634  13.591  11.733   7.797
29267SOL    HW289635  13.637  11.664   7.670
29268SOL     OW89636  10.857   2.148  10.837
29268SOL    HW189637  10.841   2.111  10.923
29268SOL    HW289638  10.795   2.221  10.830
29269SOL     OW89639   8.564   4.279   0.042
29269SOL    HW189640   8.501   4.347   0.020
29269SOL    HW289641   8.588   4.297   0.133
29270SOL     OW89642   8.781  11.237   3.748
29270SOL    HW189643   8.802  11.238   3.655
29270SOL    HW289644   8.831  11.309   3.785
29271SOL     OW89645   2.650  12.534   2.043
29271SOL    HW189646   2.732  12.577   2.021
29271SOL    HW289647   2.605  12.595   2.101
29272SOL     OW89648  13.339  13.875   1.383
29272SOL    HW189649  13.299  13.911   1.462
29272SOL    HW289650  13.366  13.786   1.409
29273SOL     OW89651   3.576  12.347   8.984
29273SOL    HW189652   3.583  12.416   9.049
29273SOL    HW289653   3.486  12.316   8.991
29274SOL     OW89654  14.288   3.069   0.542
29274SOL    HW189655  14.358   3.011   0.572
29274SOL    HW289656  14.318   3.101   0.457
29275SOL     OW89657   4.195   1.761   6.570
29275SOL    HW189658   4.287   1.749   6.545
29275SOL    HW289659   4.146   1.712   6.504
29276SOL     OW89660   7.724  13.634   3.026
29276SOL    HW189661   7.755  13.672   3.108
29276SOL    HW289662   7.727  13.539   3.040
29277SOL     OW89663   4.295   0.126  12.886
29277SOL    HW189664   4.345   0.131  12.967
29277SOL    HW289665   4.325   0.201  12.835
29278SOL     OW89666   8.853   2.601   9.673
29278SOL    HW189667   8.774   2.653   9.661
29278SOL    HW289668   8.923   2.665   9.683
29279SOL     OW89669  14.171   0.057   0.788
29279SOL    HW189670  14.156   0.141   0.833
29279SOL    HW289671  14.103  14.878   0.822
29280SOL     OW89672  10.757   7.600   4.273
29280SOL    HW189673  10.808   7.676   4.301
29280SOL    HW289674  10.671   7.612   4.313
29281SOL     OW89675   4.604   8.207  12.649
29281SOL    HW189676   4.623   8.164  12.566
29281SOL    HW289677   4.508   8.205  12.655
29282SOL     OW89678   5.229   9.671  14.531
29282SOL    HW189679   5.318   9.705  14.523
29282SOL    HW289680   5.220   9.609  14.459
29283SOL     OW89681   3.635   8.241   6.537
29283SOL    HW189682   3.618   8.268   6.447
29283SOL    HW289683   3.702   8.301   6.568
29284SOL     OW89684   2.558   5.897  14.212
29284SOL    HW189685   2.617   5.946  14.269
29284SOL    HW289686   2.543   5.955  14.138
29285SOL     OW89687   8.266   0.710   5.421
29285SOL    HW189688   8.188   0.697   5.366
29285SOL    HW289689   8.244   0.669   5.504
29286SOL     OW89690  11.447  11.095  14.719
29286SOL    HW189691  11.444  11.152  14.642
29286SOL    HW289692  11.356  11.090  14.748
29287SOL     OW89693   4.449  10.742  10.868
29287SOL    HW189694   4.431  10.698  10.785
29287SOL    HW289695   4.465  10.833  10.843
29288SOL     OW89696   7.851   1.496   4.102
29288SOL    HW189697   7.844   1.563   4.171
29288SOL    HW289698   7.913   1.433   4.136
29289SOL     OW89699  13.710   8.030  14.270
29289SOL    HW189700  13.779   8.042  14.205
29289SOL    HW289701  13.654   8.107  14.259
29290SOL     OW89702  11.477   8.039  13.262
29290SOL    HW189703  11.523   8.118  13.292
29290SOL    HW289704  11.533   8.004  13.193
29291SOL     OW89705   5.830   7.011   1.463
29291SOL    HW189706   5.809   7.104   1.465
29291SOL    HW289707   5.925   7.008   1.458
29292SOL     OW89708  10.627  14.512   8.283
29292SOL    HW189709  10.709  14.487   8.325
29292SOL    HW289710  10.569  14.437   8.297
29293SOL     OW89711   9.563   9.582  11.457
29293SOL    HW189712   9.569   9.512  11.521
29293SOL    HW289713   9.532   9.539  11.377
29294SOL     OW89714   2.821   4.485   5.942
29294SOL    HW189715   2.799   4.462   5.851
29294SOL    HW289716   2.736   4.491   5.986
29295SOL     OW89717  14.347  11.205   9.152
29295SOL    HW189718  14.271  11.156   9.182
29295SOL    HW289719  14.406  11.206   9.227
29296SOL     OW89720   0.116   1.640   0.384
29296SOL    HW189721   0.065   1.720   0.380
29296SOL    HW289722   0.190   1.661   0.441
29297SOL     OW89723   6.123   6.665  12.497
29297SOL    HW189724   6.121   6.637  12.405
29297SOL    HW289725   6.111   6.584  12.547
29298SOL     OW89726   0.937   4.855   1.511
29298SOL    HW189727   1.018   4.906   1.517
29298SOL    HW289728   0.940   4.818   1.422
29299SOL     OW89729  13.529   7.439  14.859
29299SOL    HW189730  13.529   7.371  14.792
29299SOL    HW289731  13.437   7.449   0.004
29300SOL     OW89732  13.703  11.547   7.548
29300SOL    HW189733  13.633  11.513   7.494
29300SOL    HW289734  13.745  11.614   7.493
29301SOL     OW89735  13.441   9.376  12.862
29301SOL    HW189736  13.450   9.407  12.772
29301SOL    HW289737  13.348   9.382  12.881
29302SOL     OW89738   7.369  14.686   5.784
29302SOL    HW189739   7.343  14.621   5.849
29302SOL    HW289740   7.331  14.654   5.702
29303SOL     OW89741  11.094   7.337   4.535
29303SOL    HW189742  11.052   7.385   4.606
29303SOL    HW289743  11.111   7.403   4.468
29304SOL     OW89744   2.471   6.338   6.752
29304SOL    HW189745   2.428   6.261   6.789
29304SOL    HW289746   2.485   6.395   6.828
29305SOL     OW89747   7.870  14.717  12.810
29305SOL    HW189748   7.871  14.713  12.905
29305SOL    HW289749   7.838  14.806  12.790
29306SOL     OW89750   6.902   3.263   6.164
29306SOL    HW189751   6.825   3.259   6.107
29306SOL    HW289752   6.974   3.233   6.109
29307SOL     OW89753   5.810   1.616   8.678
29307SOL    HW189754   5.790   1.557   8.606
29307SOL    HW289755   5.790   1.566   8.757
29308SOL     OW89756  10.173   2.414  12.452
29308SOL    HW189757  10.094   2.416  12.506
29308SOL    HW289758  10.155   2.476  12.381
29309SOL     OW89759   1.946   5.197   0.459
29309SOL    HW189760   1.938   5.165   0.370
29309SOL    HW289761   1.882   5.268   0.465
29310SOL     OW89762   3.849  11.040   6.292
29310SOL    HW189763   3.928  10.991   6.268
29310SOL    HW289764   3.867  11.130   6.266
29311SOL     OW89765   9.759   2.660  10.965
29311SOL    HW189766   9.708   2.651  10.884
29311SOL    HW289767   9.793   2.572  10.982
29312SOL     OW89768   2.636   7.893   4.516
29312SOL    HW189769   2.632   7.829   4.587
29312SOL    HW289770   2.725   7.886   4.483
29313SOL     OW89771  10.679   3.904   4.827
29313SOL    HW189772  10.598   3.857   4.810
29313SOL    HW289773  10.747   3.837   4.827
29314SOL     OW89774   0.247   0.091  10.077
29314SOL    HW189775   0.158   0.058  10.065
29314SOL    HW289776   0.286   0.031  10.140
29315SOL     OW89777   2.342  12.221  10.918
29315SOL    HW189778   2.421  12.267  10.889
29315SOL    HW289779   2.302  12.189  10.837
29316SOL     OW89780  12.193  12.501  12.186
29316SOL    HW189781  12.221  12.575  12.132
29316SOL    HW289782  12.100  12.516  12.202
29317SOL     OW89783   6.139  13.591   9.158
29317SOL    HW189784   6.205  13.646   9.115
29317SOL    HW289785   6.152  13.504   9.121
29318SOL     OW89786   1.128   0.967   3.671
29318SOL    HW189787   1.080   0.885   3.670
29318SOL    HW289788   1.147   0.985   3.579
29319SOL     OW89789  10.919  12.770  14.606
29319SOL    HW189790  10.853  12.723  14.555
29319SOL    HW289791  10.888  12.764  14.696
29320SOL     OW89792   6.080   3.524   0.123
29320SOL    HW189793   6.136   3.525   0.046
29320SOL    HW289794   6.015   3.593   0.107
29321SOL     OW89795  12.291   6.411  11.153
29321SOL    HW189796  12.313   6.456  11.072
29321SOL    HW289797  12.199   6.386  11.142
29322SOL     OW89798  11.596   5.818   0.588
29322SOL    HW189799  11.678   5.869   0.585
29322SOL    HW289800  11.603   5.758   0.514
29323SOL     OW89801  12.000   6.454  13.922
29323SOL    HW189802  12.074   6.398  13.900
29323SOL    HW289803  12.036   6.543  13.920
29324SOL     OW89804  13.822   2.182   5.320
29324SOL    HW189805  13.792   2.110   5.265
29324SOL    HW289806  13.776   2.259   5.286
29325SOL     OW89807   5.533   3.994   4.603
29325SOL    HW189808   5.527   3.933   4.677
29325SOL    HW289809   5.590   3.949   4.540
29326SOL     OW89810  10.034   5.275   1.072
29326SOL    HW189811  10.113   5.244   1.028
29326SOL    HW289812   9.986   5.322   1.004
29327SOL     OW89813   0.348   1.565   8.812
29327SOL    HW189814   0.261   1.541   8.844
29327SOL    HW289815   0.340   1.561   8.717
29328SOL     OW89816   1.606   6.429  12.900
29328SOL    HW189817   1.551   6.506  12.893
29328SOL    HW289818   1.674   6.442  12.834
29329SOL     OW89819   3.166  14.197   7.056
29329SOL    HW189820   3.156  14.126   6.992
29329SOL    HW289821   3.257  14.188   7.087
29330SOL     OW89822  11.310   5.204   1.592
29330SOL    HW189823  11.390   5.227   1.544
29330SOL    HW289824  11.260   5.150   1.530
29331SOL     OW89825  11.251   6.217   4.121
29331SOL    HW189826  11.251   6.122   4.108
29331SOL    HW289827  11.282   6.228   4.211
29332SOL     OW89828   4.357  10.483  11.231
29332SOL    HW189829   4.412  10.555  11.198
29332SOL    HW289830   4.411  10.405  11.218
29333SOL     OW89831  14.580   1.870  13.923
29333SOL    HW189832  14.657   1.839  13.972
29333SOL    HW289833  14.507   1.820  13.959
29334SOL     OW89834   8.332   3.919  12.544
29334SOL    HW189835   8.419   3.959  12.539
29334SOL    HW289836   8.323   3.871  12.461
29335SOL     OW89837   8.036   2.365   6.487
29335SOL    HW189838   8.057   2.309   6.413
29335SOL    HW289839   7.947   2.397   6.470
29336SOL     OW89840   8.157   1.588   3.354
29336SOL    HW189841   8.167   1.530   3.278
29336SOL    HW289842   8.063   1.592   3.370
29337SOL     OW89843  14.383   9.968   2.827
29337SOL    HW189844  14.399   9.988   2.919
29337SOL    HW289845  14.468   9.982   2.785
29338SOL     OW89846   1.605   6.086  12.505
29338SOL    HW189847   1.558   6.050  12.581
29338SOL    HW289848   1.694   6.052  12.515
29339SOL     OW89849   0.838  13.217  14.471
29339SOL    HW189850   0.747  13.245  14.485
29339SOL    HW289851   0.874  13.283  14.412
29340SOL     OW89852   4.327   0.155   9.292
29340SOL    HW189853   4.247   0.106   9.306
29340SOL    HW289854   4.390   0.117   9.354
29341SOL     OW89855   6.564   0.281  14.807
29341SOL    HW189856   6.639   0.321  14.851
29341SOL    HW289857   6.491   0.340  14.827
29342SOL     OW89858   5.563  11.640   8.535
29342SOL    HW189859   5.633  11.604   8.590
29342SOL    HW289860   5.500  11.569   8.526
29343SOL     OW89861  10.719  10.368   5.513
29343SOL    HW189862  10.671  10.286   5.527
29343SOL    HW289863  10.806  10.351   5.550
29344SOL     OW89864  10.515   7.319   4.625
29344SOL    HW189865  10.549   7.407   4.644
29344SOL    HW289866  10.593   7.268   4.604
29345SOL     OW89867   6.372  14.109  10.324
29345SOL    HW189868   6.342  14.140  10.410
29345SOL    HW289869   6.466  14.131  10.324
29346SOL     OW89870   5.107   8.039   3.878
29346SOL    HW189871   5.027   8.011   3.924
29346SOL    HW289872   5.178   8.002   3.929
29347SOL     OW89873   2.578   6.689  10.107
29347SOL    HW189874   2.601   6.597  10.093
29347SOL    HW289875   2.502   6.704  10.051
29348SOL     OW89876   4.516  14.275   3.332
29348SOL    HW189877   4.436  14.315   3.297
29348SOL    HW289878   4.503  14.274   3.427
29349SOL     OW89879  13.798   3.510   9.553
29349SOL    HW189880  13.863   3.462   9.502
29349SOL    HW289881  13.771   3.449   9.622
29350SOL     OW89882   4.611  12.353   0.720
29350SOL    HW189883   4.630  12.447   0.708
29350SOL    HW289884   4.519  12.344   0.699
29351SOL     OW89885   9.869   4.878  13.865
29351SOL    HW189886   9.881   4.968  13.894
29351SOL    HW289887   9.954   4.836  13.882
29352SOL     OW89888  11.048   4.224  12.033
29352SOL    HW189889  11.025   4.132  12.045
29352SOL    HW289890  10.999   4.251  11.955
29353SOL     OW89891   3.803  10.964   4.697
29353SOL    HW189892   3.741  11.013   4.643
29353SOL    HW289893   3.844  10.902   4.637
29354SOL     OW89894   7.904   5.305   1.997
29354SOL    HW189895   7.981   5.277   2.047
29354SOL    HW289896   7.830   5.265   2.043
29355SOL     OW89897  10.842   2.044   1.612
29355SOL    HW189898  10.855   1.959   1.570
29355SOL    HW289899  10.766   2.032   1.669
29356SOL     OW89900  13.363   9.462   6.796
29356SOL    HW189901  13.292   9.398   6.792
29356SOL    HW289902  13.359   9.497   6.885
29357SOL     OW89903   5.487  13.802   0.859
29357SOL    HW189904   5.496  13.748   0.780
29357SOL    HW289905   5.568  13.789   0.907
29358SOL     OW89906   7.851   8.230   1.369
29358SOL    HW189907   7.867   8.193   1.282
29358SOL    HW289908   7.936   8.265   1.396
29359SOL     OW89909  10.017   5.554   1.276
29359SOL    HW189910   9.936   5.516   1.311
29359SOL    HW289911   9.988   5.609   1.203
29360SOL     OW89912  13.075   6.046   3.613
29360SOL    HW189913  13.108   6.051   3.703
29360SOL    HW289914  12.980   6.049   3.622
29361SOL     OW89915  11.503   5.369   8.960
29361SOL    HW189916  11.415   5.340   8.983
29361SOL    HW289917  11.520   5.331   8.873
29362SOL     OW89918   6.010   1.379  13.691
29362SOL    HW189919   5.953   1.349  13.762
29362SOL    HW289920   5.994   1.473  13.685
29363SOL     OW89921   1.435   5.991  11.211
29363SOL    HW189922   1.404   5.988  11.120
29363SOL    HW289923   1.460   6.082  11.225
29364SOL     OW89924  12.964  12.864   8.232
29364SOL    HW189925  12.983  12.847   8.325
29364SOL    HW289926  12.885  12.813   8.214
29365SOL     OW89927   4.540  11.162  11.975
29365SOL    HW189928   4.573  11.247  12.003
29365SOL    HW289929   4.465  11.183  11.919
29366SOL     OW89930   7.315   3.285   4.771
29366SOL    HW189931   7.242   3.336   4.805
29366SOL    HW289932   7.320   3.309   4.679
29367SOL     OW89933   0.049   3.604   3.770
29367SOL    HW189934   0.051   3.662   3.694
29367SOL    HW289935   0.141   3.595   3.796
29368SOL     OW89936   4.400   9.835   5.862
29368SOL    HW189937   4.341   9.786   5.805
29368SOL    HW289938   4.443   9.769   5.915
29369SOL     OW89939   0.934   1.500   9.150
29369SOL    HW189940   0.883   1.539   9.080
29369SOL    HW289941   1.025   1.501   9.118
29370SOL     OW89942   7.923   9.240  13.726
29370SOL    HW189943   7.857   9.175  13.750
29370SOL    HW289944   7.888   9.323  13.759
29371SOL     OW89945   6.551   9.794   2.579
29371SOL    HW189946   6.627   9.741   2.601
29371SOL    HW289947   6.487   9.776   2.647
29372SOL     OW89948   6.830   8.094   8.619
29372SOL    HW189949   6.790   8.086   8.706
29372SOL    HW289950   6.871   8.180   8.618
29373SOL     OW89951   9.699   7.194   9.373
29373SOL    HW189952   9.630   7.164   9.314
29373SOL    HW289953   9.653   7.244   9.440
29374SOL     OW89954   1.867   3.513   8.983
29374SOL    HW189955   1.889   3.499   9.075
29374SOL    HW289956   1.773   3.498   8.978
29375SOL     OW89957  13.495  13.456   6.119
29375SOL    HW189958  13.573  13.475   6.066
29375SOL    HW289959  13.422  13.489   6.067
29376SOL     OW89960   4.411   3.294   1.070
29376SOL    HW189961   4.424   3.386   1.047
29376SOL    HW289962   4.385   3.251   0.989
29377SOL     OW89963  13.896   3.828   8.501
29377SOL    HW189964  13.841   3.872   8.566
29377SOL    HW289965  13.976   3.879   8.499
29378SOL     OW89966  13.784   0.963   3.946
29378SOL    HW189967  13.772   0.973   3.851
29378SOL    HW289968  13.720   1.022   3.985
29379SOL     OW89969   6.814  12.425   4.203
29379SOL    HW189970   6.724  12.450   4.185
29379SOL    HW289971   6.844  12.382   4.122
29380SOL     OW89972   5.398   7.519  11.828
29380SOL    HW189973   5.492   7.536  11.821
29380SOL    HW289974   5.380   7.457  11.757
29381SOL     OW89975   7.277   4.211   0.339
29381SOL    HW189976   7.222   4.277   0.298
29381SOL    HW289977   7.223   4.132   0.342
29382SOL     OW89978   9.437  13.680  14.066
29382SOL    HW189979   9.489  13.739  14.121
29382SOL    HW289980   9.405  13.613  14.126
29383SOL     OW89981   4.808  13.190  13.079
29383SOL    HW189982   4.744  13.121  13.061
29383SOL    HW289983   4.767  13.270  13.046
29384SOL     OW89984  11.899   0.878   1.194
29384SOL    HW189985  11.833   0.841   1.252
29384SOL    HW289986  11.968   0.812   1.191
29385SOL     OW89987   3.428   6.241   0.521
29385SOL    HW189988   3.392   6.157   0.549
29385SOL    HW289989   3.494   6.220   0.456
29386SOL     OW89990   8.731   2.058   0.847
29386SOL    HW189991   8.756   2.099   0.930
29386SOL    HW289992   8.768   1.970   0.851
29387SOL     OW89993  11.220   0.557  13.347
29387SOL    HW189994  11.267   0.634  13.378
29387SOL    HW289995  11.274   0.483  13.373
29388SOL     OW89996   0.933   5.499   7.211
29388SOL    HW189997   0.840   5.516   7.203
29388SOL    HW289998   0.940   5.404   7.215
29389SOL     OW89999  11.943   1.572  10.812
29389SOL    HW190000  11.903   1.604  10.893
29389SOL    HW290001  12.037   1.582  10.825
29390SOL     OW90002  13.602   0.840   4.271
29390SOL    HW190003  13.576   0.748   4.275
29390SOL    HW290004  13.533   0.882   4.220
29391SOL     OW90005   9.169  12.328   2.543
29391SOL    HW190006   9.109  12.385   2.592
29391SOL    HW290007   9.119  12.248   2.528
29392SOL     OW90008   2.051   2.835   6.893
29392SOL    HW190009   2.134   2.878   6.914
29392SOL    HW290010   1.988   2.872   6.956
29393SOL     OW90011   4.071   2.119  13.545
29393SOL    HW190012   4.075   2.139  13.452
29393SOL    HW290013   4.051   2.202  13.588
29394SOL     OW90014   9.806   6.636  13.962
29394SOL    HW190015   9.810   6.589  14.045
29394SOL    HW290016   9.756   6.715  13.983
29395SOL     OW90017   1.395   0.206   7.977
29395SOL    HW190018   1.322   0.268   7.983
29395SOL    HW290019   1.401   0.185   7.884
29396SOL     OW90020   5.888   7.353   9.811
29396SOL    HW190021   5.939   7.405   9.874
29396SOL    HW290022   5.911   7.390   9.725
29397SOL     OW90023   4.420   1.938  14.001
29397SOL    HW190024   4.370   1.865  14.037
29397SOL    HW290025   4.488   1.897  13.949
29398SOL     OW90026  11.071   5.986   0.540
29398SOL    HW190027  11.113   5.911   0.497
29398SOL    HW290028  11.099   5.980   0.631
29399SOL     OW90029  10.401   5.535   9.925
29399SOL    HW190030  10.364   5.607   9.975
29399SOL    HW290031  10.496   5.550   9.929
29400SOL     OW90032   5.171   5.456  12.195
29400SOL    HW190033   5.134   5.462  12.283
29400SOL    HW290034   5.217   5.540  12.183
29401SOL     OW90035   3.604  14.614   9.774
29401SOL    HW190036   3.686  14.622   9.726
29401SOL    HW290037   3.539  14.660   9.720
29402SOL     OW90038   5.512   6.572   6.952
29402SOL    HW190039   5.440   6.532   7.002
29402SOL    HW290040   5.484   6.662   6.937
29403SOL     OW90041   9.574  11.201   5.905
29403SOL    HW190042   9.624  11.168   5.979
29403SOL    HW290043   9.486  11.165   5.918
29404SOL     OW90044  14.068   0.368   2.953
29404SOL    HW190045  13.989   0.315   2.959
29404SOL    HW290046  14.134   0.308   2.918
29405SOL     OW90047   1.471   8.938  11.138
29405SOL    HW190048   1.545   8.919  11.081
29405SOL    HW290049   1.478   9.032  11.155
29406SOL     OW90050   5.541   9.059   1.490
29406SOL    HW190051   5.484   9.079   1.416
29406SOL    HW290052   5.493   8.992   1.539
29407SOL     OW90053   8.660   5.076  12.782
29407SOL    HW190054   8.687   5.041  12.867
29407SOL    HW290055   8.582   5.025  12.759
29408SOL     OW90056   8.773   3.597   6.153
29408SOL    HW190057   8.836   3.565   6.088
29408SOL    HW290058   8.727   3.669   6.109
29409SOL     OW90059  13.440   4.389   1.972
29409SOL    HW190060  13.376   4.360   2.037
29409SOL    HW290061  13.469   4.308   1.929
29410SOL     OW90062   4.874  10.852  11.962
29410SOL    HW190063   4.877  10.855  11.867
29410SOL    HW290064   4.837  10.936  11.988
29411SOL     OW90065   3.760  14.114  12.936
29411SOL    HW190066   3.706  14.084  13.008
29411SOL    HW290067   3.848  14.084  12.958
29412SOL     OW90068   2.953   1.168  12.712
29412SOL    HW190069   2.923   1.258  12.702
29412SOL    HW290070   2.940   1.128  12.626
29413SOL     OW90071  14.419   0.465   4.035
29413SOL    HW190072  14.420   0.508   3.949
29413SOL    HW290073  14.354   0.395   4.026
29414SOL     OW90074   7.682  14.238   6.109
29414SOL    HW190075   7.604  14.208   6.155
29414SOL    HW290076   7.668  14.332   6.096
29415SOL     OW90077  11.649  13.375   4.612
29415SOL    HW190078  11.575  13.403   4.666
29415SOL    HW290079  11.637  13.280   4.602
29416SOL     OW90080  10.531   4.283   2.851
29416SOL    HW190081  10.484   4.229   2.915
29416SOL    HW290082  10.470   4.290   2.777
29417SOL     OW90083  11.572   0.053  12.997
29417SOL    HW190084  11.496  14.875  13.013
29417SOL    HW290085  11.585   0.048  12.902
29418SOL     OW90086   9.098  13.239  13.802
29418SOL    HW190087   9.147  13.246  13.884
29418SOL    HW290088   9.144  13.298  13.742
29419SOL     OW90089   2.729  11.867   6.698
29419SOL    HW190090   2.817  11.856   6.662
29419SOL    HW290091   2.676  11.891   6.622
29420SOL     OW90092   9.250   4.412   5.239
29420SOL    HW190093   9.175   4.434   5.184
29420SOL    HW290094   9.248   4.316   5.245
29421SOL     OW90095  13.274   4.334  10.688
29421SOL    HW190096  13.320   4.413  10.715
29421SOL    HW290097  13.293   4.325  10.595
29422SOL     OW90098   0.325   2.350   9.507
29422SOL    HW190099   0.240   2.365   9.549
29422SOL    HW290100   0.369   2.287   9.564
29423SOL     OW90101   8.444   8.629   2.586
29423SOL    HW190102   8.449   8.664   2.498
29423SOL    HW290103   8.419   8.703   2.641
29424SOL     OW90104  11.614   9.896  10.912
29424SOL    HW190105  11.624   9.824  10.849
29424SOL    HW290106  11.591   9.972  10.858
29425SOL     OW90107  13.350  12.562  13.672
29425SOL    HW190108  13.296  12.590  13.598
29425SOL    HW290109  13.301  12.589  13.749
29426SOL     OW90110   9.066   2.258  13.866
29426SOL    HW190111   9.129   2.323  13.897
29426SOL    HW290112   9.062   2.271  13.772
29427SOL     OW90113   5.465   6.999   3.406
29427SOL    HW190114   5.501   7.003   3.317
29427SOL    HW290115   5.450   6.906   3.421
29428SOL     OW90116   5.858  10.691  11.865
29428SOL    HW190117   5.902  10.610  11.843
29428SOL    HW290118   5.901  10.722  11.944
29429SOL     OW90119  13.215  11.761  11.253
29429SOL    HW190120  13.242  11.846  11.220
29429SOL    HW290121  13.130  11.777  11.295
29430SOL     OW90122   5.176  14.863  13.489
29430SOL    HW190123   5.184   0.079  13.497
29430SOL    HW290124   5.088  14.848  13.457
29431SOL     OW90125   2.673   0.988   4.570
29431SOL    HW190126   2.762   1.011   4.596
29431SOL    HW290127   2.641   0.934   4.643
29432SOL     OW90128   5.777   5.165   8.321
29432SOL    HW190129   5.718   5.239   8.333
29432SOL    HW290130   5.736   5.094   8.369
29433SOL     OW90131   4.210   1.217  14.668
29433SOL    HW190132   4.287   1.274  14.660
29433SOL    HW290133   4.218   1.177  14.754
29434SOL     OW90134  13.960  10.922  12.592
29434SOL    HW190135  14.052  10.944  12.580
29434SOL    HW290136  13.935  10.874  12.513
29435SOL     OW90137  11.394   7.147   5.006
29435SOL    HW190138  11.328   7.112   4.946
29435SOL    HW290139  11.381   7.241   5.003
29436SOL     OW90140   9.606   8.304   6.397
29436SOL    HW190141   9.564   8.375   6.348
29436SOL    HW290142   9.549   8.291   6.473
29437SOL     OW90143   8.521   7.815   6.988
29437SOL    HW190144   8.469   7.811   6.908
29437SOL    HW290145   8.484   7.888   7.038
29438SOL     OW90146  10.467  12.263   9.088
29438SOL    HW190147  10.441  12.241   9.178
29438SOL    HW290148  10.461  12.359   9.084
29439SOL     OW90149   5.303  10.727   5.158
29439SOL    HW190150   5.235  10.795   5.162
29439SOL    HW290151   5.385  10.775   5.166
29440SOL     OW90152  10.308  14.123  12.881
29440SOL    HW190153  10.340  14.205  12.843
29440SOL    HW290154  10.237  14.097  12.823
29441SOL     OW90155   2.409  14.544   1.913
29441SOL    HW190156   2.384  14.474   1.852
29441SOL    HW290157   2.344  14.613   1.898
29442SOL     OW90158  12.977   9.629  11.912
29442SOL    HW190159  12.914   9.557  11.924
29442SOL    HW290160  13.062   9.589  11.929
29443SOL     OW90161   6.093   9.794   1.211
29443SOL    HW190162   6.142   9.742   1.147
29443SOL    HW290163   6.125   9.764   1.296
29444SOL     OW90164   5.375  14.350   8.284
29444SOL    HW190165   5.405  14.358   8.375
29444SOL    HW290166   5.418  14.271   8.252
29445SOL     OW90167   9.970   5.226   5.234
29445SOL    HW190168  10.042   5.250   5.292
29445SOL    HW290169   9.966   5.298   5.170
29446SOL     OW90170  11.951   4.351  11.617
29446SOL    HW190171  12.029   4.298  11.607
29446SOL    HW290172  11.890   4.297  11.667
29447SOL     OW90173  11.267   9.007  10.100
29447SOL    HW190174  11.360   8.981  10.095
29447SOL    HW290175  11.219   8.924  10.095
29448SOL     OW90176   2.976   4.970   4.003
29448SOL    HW190177   3.016   4.983   4.089
29448SOL    HW290178   2.923   4.891   4.013
29449SOL     OW90179   6.755   3.385   9.985
29449SOL    HW190180   6.753   3.439  10.063
29449SOL    HW290181   6.664   3.363   9.967
29450SOL     OW90182  10.937  12.972   0.089
29450SOL    HW190183  10.972  13.042   0.144
29450SOL    HW290184  10.862  12.938   0.138
29451SOL     OW90185   3.389   7.289   1.143
29451SOL    HW190186   3.378   7.198   1.114
29451SOL    HW290187   3.409   7.337   1.062
29452SOL     OW90188   1.918   4.411  13.074
29452SOL    HW190189   1.826   4.412  13.098
29452SOL    HW290190   1.963   4.453  13.148
29453SOL     OW90191   1.120  13.373  11.480
29453SOL    HW190192   1.141  13.309  11.413
29453SOL    HW290193   1.205  13.413  11.503
29454SOL     OW90194   0.673   0.811  14.404
29454SOL    HW190195   0.640   0.832  14.491
29454SOL    HW290196   0.595   0.789  14.354
29455SOL     OW90197   6.911   7.671   3.074
29455SOL    HW190198   6.993   7.641   3.113
29455SOL    HW290199   6.854   7.594   3.074
29456SOL     OW90200  11.933   1.437   5.177
29456SOL    HW190201  11.993   1.394   5.238
29456SOL    HW290202  11.927   1.377   5.104
29457SOL     OW90203   0.057   6.039   6.389
29457SOL    HW190204   0.033   5.969   6.449
29457SOL    HW290205   0.153   6.045   6.396
29458SOL     OW90206  12.161   7.422  14.270
29458SOL    HW190207  12.117   7.507  14.268
29458SOL    HW290208  12.118   7.374  14.341
29459SOL     OW90209   7.869   5.044   4.313
29459SOL    HW190210   7.789   5.049   4.365
29459SOL    HW290211   7.922   4.977   4.355
29460SOL     OW90212   0.062   9.269   3.393
29460SOL    HW190213   0.031   9.226   3.473
29460SOL    HW290214   0.110   9.202   3.346
29461SOL     OW90215   9.747   3.238  14.377
29461SOL    HW190216   9.780   3.328  14.374
29461SOL    HW290217   9.800   3.192  14.312
29462SOL     OW90218   5.924  13.940  10.143
29462SOL    HW190219   5.876  13.873  10.093
29462SOL    HW290220   5.996  13.891  10.184
29463SOL     OW90221   2.334  12.214   6.515
29463SOL    HW190222   2.254  12.265   6.522
29463SOL    HW290223   2.321  12.157   6.439
29464SOL     OW90224  11.077  11.870  10.162
29464SOL    HW190225  11.022  11.804  10.204
29464SOL    HW290226  11.135  11.821  10.105
29465SOL     OW90227  13.442   6.472  13.217
29465SOL    HW190228  13.465   6.514  13.134
29465SOL    HW290229  13.513   6.411  13.234
29466SOL     OW90230  10.868  13.235   9.741
29466SOL    HW190231  10.791  13.237   9.684
29466SOL    HW290232  10.835  13.265   9.826
29467SOL     OW90233  12.966  14.318  14.338
29467SOL    HW190234  12.900  14.249  14.348
29467SOL    HW290235  13.017  14.314  14.419
29468SOL     OW90236   8.820   1.062   3.347
29468SOL    HW190237   8.735   1.107   3.346
29468SOL    HW290238   8.863   1.096   3.426
29469SOL     OW90239  13.796   3.891   9.234
29469SOL    HW190240  13.856   3.828   9.275
29469SOL    HW290241  13.709   3.860   9.258
29470SOL     OW90242   9.800   7.635  11.612
29470SOL    HW190243   9.770   7.591  11.692
29470SOL    HW290244   9.805   7.727  11.636
29471SOL     OW90245   8.618   2.308   1.192
29471SOL    HW190246   8.558   2.278   1.123
29471SOL    HW290247   8.690   2.349   1.145
29472SOL     OW90248  14.520   4.675  11.046
29472SOL    HW190249  14.606   4.667  11.005
29472SOL    HW290250  14.530   4.633  11.132
29473SOL     OW90251  11.337   6.510  11.038
29473SOL    HW190252  11.280   6.486  10.964
29473SOL    HW290253  11.330   6.605  11.044
29474SOL     OW90254   2.465   5.069   9.785
29474SOL    HW190255   2.492   4.979   9.801
29474SOL    HW290256   2.449   5.073   9.691
29475SOL     OW90257   0.438   0.820  12.707
29475SOL    HW190258   0.520   0.831  12.658
29475SOL    HW290259   0.455   0.746  12.765
29476SOL     OW90260   2.451   3.682  13.143
29476SOL    HW190261   2.540   3.703  13.170
29476SOL    HW290262   2.456   3.594  13.108
29477SOL     OW90263   3.640  12.090   6.615
29477SOL    HW190264   3.689  12.107   6.534
29477SOL    HW290265   3.580  12.019   6.592
29478SOL     OW90266  11.793   7.447   5.207
29478SOL    HW190267  11.712   7.410   5.243
29478SOL    HW290268  11.846   7.371   5.184
29479SOL     OW90269   5.469  14.636   0.041
29479SOL    HW190270   5.458  14.731   0.042
29479SOL    HW290271   5.564  14.624   0.045
29480SOL     OW90272  13.857   7.431   8.416
29480SOL    HW190273  13.761   7.429   8.416
29480SOL    HW290274  13.882   7.356   8.470
29481SOL     OW90275   7.464   8.639  11.652
29481SOL    HW190276   7.495   8.651  11.742
29481SOL    HW290277   7.440   8.546  11.647
29482SOL     OW90278  11.557  14.074   1.056
29482SOL    HW190279  11.582  14.023   1.133
29482SOL    HW290280  11.636  14.077   1.003
29483SOL     OW90281  11.754  10.048   6.466
29483SOL    HW190282  11.727  10.015   6.381
29483SOL    HW290283  11.700  10.000   6.529
29484SOL     OW90284   1.424  13.281   3.954
29484SOL    HW190285   1.513  13.268   3.987
29484SOL    HW290286   1.408  13.375   3.966
29485SOL     OW90287   8.552   9.872   1.347
29485SOL    HW190288   8.464   9.877   1.385
29485SOL    HW290289   8.607   9.923   1.406
29486SOL     OW90290   5.723  13.383   4.264
29486SOL    HW190291   5.699  13.291   4.255
29486SOL    HW290292   5.747  13.393   4.356
29487SOL     OW90293  13.834  13.942   0.037
29487SOL    HW190294  13.925  13.934   0.068
29487SOL    HW290295  13.794  13.858   0.060
29488SOL     OW90296  13.698   7.635   1.617
29488SOL    HW190297  13.786   7.673   1.613
29488SOL    HW290298  13.713   7.541   1.611
29489SOL     OW90299   6.756  11.741  10.631
29489SOL    HW190300   6.695  11.803  10.592
29489SOL    HW290301   6.729  11.735  10.723
29490SOL     OW90302   6.805  10.256   1.624
29490SOL    HW190303   6.839  10.169   1.606
29490SOL    HW290304   6.846  10.281   1.707
29491SOL     OW90305   8.733   5.323  12.497
29491SOL    HW190306   8.789   5.366  12.433
29491SOL    HW290307   8.771   5.346  12.582
29492SOL     OW90308  13.606   2.177   4.908
29492SOL    HW190309  13.609   2.097   4.856
29492SOL    HW290310  13.627   2.247   4.846
29493SOL     OW90311  10.256   1.673   1.819
29493SOL    HW190312  10.210   1.737   1.873
29493SOL    HW290313  10.192   1.643   1.756
29494SOL     OW90314   1.360   4.868  13.843
29494SOL    HW190315   1.424   4.862  13.772
29494SOL    HW290316   1.411   4.849  13.922
29495SOL     OW90317   0.119  13.864   0.823
29495SOL    HW190318   0.107  13.956   0.797
29495SOL    HW290319   0.172  13.868   0.903
29496SOL     OW90320   3.743  10.951  10.054
29496SOL    HW190321   3.802  10.886  10.016
29496SOL    HW290322   3.791  11.034  10.046
29497SOL     OW90323   9.948   2.720  12.455
29497SOL    HW190324   9.920   2.629  12.465
29497SOL    HW290325   9.963   2.731  12.361
29498SOL     OW90326   4.970   7.291  13.410
29498SOL    HW190327   5.043   7.266  13.467
29498SOL    HW290328   4.902   7.226  13.428
29499SOL     OW90329   6.033   6.628   6.276
29499SOL    HW190330   5.949   6.673   6.284
29499SOL    HW290331   6.067   6.657   6.191
29500SOL     OW90332   1.349   3.138   9.838
29500SOL    HW190333   1.368   3.229   9.862
29500SOL    HW290334   1.360   3.089   9.920
29501SOL     OW90335   1.018   9.647  14.773
29501SOL    HW190336   0.945   9.708  14.780
29501SOL    HW290337   0.986   9.577  14.716
29502SOL     OW90338   9.596   5.773   7.800
29502SOL    HW190339   9.531   5.843   7.811
29502SOL    HW290340   9.552   5.694   7.832
29503SOL     OW90341   2.973  13.430   7.804
29503SOL    HW190342   3.035  13.382   7.860
29503SOL    HW290343   3.022  13.506   7.774
29504SOL     OW90344   5.264  11.219  14.318
29504SOL    HW190345   5.310  11.297  14.350
29504SOL    HW290346   5.238  11.242  14.229
29505SOL     OW90347   1.795   1.557  10.697
29505SOL    HW190348   1.735   1.506  10.751
29505SOL    HW290349   1.776   1.648  10.719
29506SOL     OW90350  10.663  11.838   9.479
29506SOL    HW190351  10.619  11.784   9.412
29506SOL    HW290352  10.741  11.788   9.503
29507SOL     OW90353  10.626   7.053   2.749
29507SOL    HW190354  10.683   6.977   2.755
29507SOL    HW290355  10.538   7.018   2.762
29508SOL     OW90356   3.620  10.520   4.628
29508SOL    HW190357   3.591  10.442   4.675
29508SOL    HW290358   3.552  10.586   4.645
29509SOL     OW90359   8.004   9.940   9.258
29509SOL    HW190360   7.976   9.864   9.310
29509SOL    HW290361   7.923   9.986   9.237
29510SOL     OW90362   2.591  10.676   2.610
29510SOL    HW190363   2.496  10.674   2.606
29510SOL    HW290364   2.613  10.636   2.694
29511SOL     OW90365  13.293  12.389  11.997
29511SOL    HW190366  13.356  12.326  11.963
29511SOL    HW290367  13.337  12.429  12.072
29512SOL     OW90368   0.082   4.535  11.708
29512SOL    HW190369   0.165   4.574  11.736
29512SOL    HW290370   0.028   4.534  11.787
29513SOL     OW90371  12.158  12.129   6.525
29513SOL    HW190372  12.209  12.102   6.448
29513SOL    HW290373  12.082  12.175   6.489
29514SOL     OW90374   2.667   6.143   7.116
29514SOL    HW190375   2.703   6.220   7.160
29514SOL    HW290376   2.683   6.159   7.023
29515SOL     OW90377  14.661   7.446   6.898
29515SOL    HW190378  14.629   7.356   6.896
29515SOL    HW290379  14.625   7.482   6.979
29516SOL     OW90380   9.308  11.797   7.666
29516SOL    HW190381   9.280  11.827   7.753
29516SOL    HW290382   9.345  11.710   7.682
29517SOL     OW90383   2.670   7.830   2.358
29517SOL    HW190384   2.576   7.840   2.346
29517SOL    HW290385   2.680   7.749   2.407
29518SOL     OW90386   1.764  13.927   7.683
29518SOL    HW190387   1.814  14.005   7.707
29518SOL    HW290388   1.673  13.956   7.685
29519SOL     OW90389  10.012  10.399   4.494
29519SOL    HW190390   9.929  10.351   4.484
29519SOL    HW290391   9.997  10.483   4.451
29520SOL     OW90392  13.137   2.703   5.521
29520SOL    HW190393  13.075   2.677   5.590
29520SOL    HW290394  13.129   2.636   5.454
29521SOL     OW90395   8.429   4.375  11.604
29521SOL    HW190396   8.338   4.347  11.607
29521SOL    HW290397   8.446   4.412  11.691
29522SOL     OW90398  14.194   6.990   5.791
29522SOL    HW190399  14.163   6.914   5.840
29522SOL    HW290400  14.273   7.018   5.837
29523SOL     OW90401   5.915   4.004   6.971
29523SOL    HW190402   5.951   4.042   7.051
29523SOL    HW290403   5.857   3.934   7.001
29524SOL     OW90404  11.410  14.844   7.011
29524SOL    HW190405  11.372   0.015   6.939
29524SOL    HW290406  11.361  14.874   7.088
29525SOL     OW90407   8.073   6.388  11.740
29525SOL    HW190408   8.077   6.388  11.644
29525SOL    HW290409   8.116   6.470  11.765
29526SOL     OW90410   0.408  13.661  14.876
29526SOL    HW190411   0.433  13.708   0.076
29526SOL    HW290412   0.325  13.701  14.849
29527SOL     OW90413   1.696   2.568   9.989
29527SOL    HW190414   1.706   2.584   9.895
29527SOL    HW290415   1.602   2.578  10.004
29528SOL     OW90416   8.245   6.438  12.341
29528SOL    HW190417   8.177   6.488  12.296
29528SOL    HW290418   8.201   6.399  12.416
29529SOL     OW90419  13.901   2.050   7.638
29529SOL    HW190420  13.944   2.096   7.711
29529SOL    HW290421  13.827   2.005   7.679
29530SOL     OW90422   2.688  14.551   1.597
29530SOL    HW190423   2.659  14.626   1.545
29530SOL    HW290424   2.649  14.475   1.553
29531SOL     OW90425   7.569  13.488   7.188
29531SOL    HW190426   7.615  13.537   7.256
29531SOL    HW290427   7.635  13.474   7.120
29532SOL     OW90428  10.109   2.730   1.124
29532SOL    HW190429  10.076   2.818   1.141
29532SOL    HW290430  10.177   2.741   1.057
29533SOL     OW90431   7.534   5.277   3.972
29533SOL    HW190432   7.536   5.183   3.955
29533SOL    HW290433   7.624   5.306   3.952
29534SOL     OW90434   3.121  11.026   1.392
29534SOL    HW190435   3.115  11.026   1.488
29534SOL    HW290436   3.197  10.971   1.373
29535SOL     OW90437   8.772  12.858  11.889
29535SOL    HW190438   8.844  12.795  11.884
29535SOL    HW290439   8.739  12.865  11.799
29536SOL     OW90440   6.591   0.885   4.423
29536SOL    HW190441   6.512   0.928   4.456
29536SOL    HW290442   6.624   0.835   4.497
29537SOL     OW90443   7.009  14.257   0.505
29537SOL    HW190444   7.033  14.263   0.598
29537SOL    HW290445   6.946  14.185   0.501
29538SOL     OW90446  10.783   0.919  14.173
29538SOL    HW190447  10.876   0.941  14.181
29538SOL    HW290448  10.741   1.001  14.149
29539SOL     OW90449   2.567  14.767   1.269
29539SOL    HW190450   2.608  14.682   1.254
29539SOL    HW290451   2.625  14.830   1.227
29540SOL     OW90452  14.483   6.071   7.453
29540SOL    HW190453  14.473   6.071   7.548
29540SOL    HW290454  14.577   6.070   7.438
29541SOL     OW90455   7.876   2.771   6.740
29541SOL    HW190456   7.861   2.731   6.655
29541SOL    HW290457   7.971   2.776   6.748
29542SOL     OW90458  12.901   6.640   0.194
29542SOL    HW190459  12.950   6.596   0.263
29542SOL    HW290460  12.877   6.724   0.232
29543SOL     OW90461   8.212   2.201   8.558
29543SOL    HW190462   8.274   2.131   8.539
29543SOL    HW290463   8.165   2.214   8.476
29544SOL     OW90464   0.313   4.824  10.845
29544SOL    HW190465   0.402   4.825  10.882
29544SOL    HW290466   0.314   4.751  10.783
29545SOL     OW90467   4.390   5.537   2.007
29545SOL    HW190468   4.353   5.593   1.940
29545SOL    HW290469   4.395   5.450   1.966
29546SOL     OW90470   0.709  14.003   6.880
29546SOL    HW190471   0.745  13.914   6.884
29546SOL    HW290472   0.673  14.010   6.792
29547SOL     OW90473   0.649  13.562   9.370
29547SOL    HW190474   0.570  13.616   9.375
29547SOL    HW290475   0.703  13.605   9.304
29548SOL     OW90476   2.825  13.998   5.520
29548SOL    HW190477   2.833  14.072   5.581
29548SOL    HW290478   2.730  13.987   5.509
29549SOL     OW90479   7.214   6.340  11.138
29549SOL    HW190480   7.203   6.250  11.110
29549SOL    HW290481   7.270   6.380  11.072
29550SOL     OW90482   4.935  12.779   0.977
29550SOL    HW190483   5.010  12.720   0.972
29550SOL    HW290484   4.860  12.721   0.991
29551SOL     OW90485   3.526  12.352   4.076
29551SOL    HW190486   3.461  12.292   4.040
29551SOL    HW290487   3.568  12.303   4.146
29552SOL     OW90488   0.630   9.500   2.033
29552SOL    HW190489   0.578   9.579   2.044
29552SOL    HW290490   0.664   9.506   1.944
29553SOL     OW90491   8.055  10.907   7.540
29553SOL    HW190492   8.112  10.855   7.596
29553SOL    HW290493   7.970  10.864   7.547
29554SOL     OW90494  14.294   7.370  12.872
29554SOL    HW190495  14.272   7.410  12.956
29554SOL    HW290496  14.384   7.338  12.884
29555SOL     OW90497   1.165   4.282   7.660
29555SOL    HW190498   1.168   4.212   7.596
29555SOL    HW290499   1.075   4.283   7.692
29556SOL     OW90500  12.478   3.492  13.481
29556SOL    HW190501  12.496   3.546  13.558
29556SOL    HW290502  12.438   3.412  13.517
29557SOL     OW90503  11.114   2.463  12.339
29557SOL    HW190504  11.025   2.494  12.354
29557SOL    HW290505  11.146   2.439  12.426
29558SOL     OW90506   2.546   0.499  11.219
29558SOL    HW190507   2.539   0.523  11.311
29558SOL    HW290508   2.634   0.463  11.210
29559SOL     OW90509   2.530   5.692   3.319
29559SOL    HW190510   2.590   5.766   3.310
29559SOL    HW290511   2.587   5.615   3.326
29560SOL     OW90512   1.535  14.315   5.695
29560SOL    HW190513   1.588  14.239   5.718
29560SOL    HW290514   1.532  14.368   5.775
29561SOL     OW90515   1.454   2.997   1.876
29561SOL    HW190516   1.521   2.932   1.897
29561SOL    HW290517   1.380   2.973   1.932
29562SOL     OW90518   1.347   4.691  12.756
29562SOL    HW190519   1.272   4.634  12.740
29562SOL    HW290520   1.329   4.732  12.840
29563SOL     OW90521   2.817   2.717  11.539
29563SOL    HW190522   2.726   2.699  11.516
29563SOL    HW290523   2.816   2.727  11.635
29564SOL     OW90524  14.727   1.787   3.263
29564SOL    HW190525  14.770   1.708   3.295
29564SOL    HW290526  14.782   1.859   3.294
29565SOL     OW90527  12.661  12.040   7.995
29565SOL    HW190528  12.688  12.131   7.984
29565SOL    HW290529  12.573  12.036   7.957
29566SOL     OW90530   4.760   8.977   4.272
29566SOL    HW190531   4.704   8.916   4.319
29566SOL    HW290532   4.713   9.061   4.276
29567SOL     OW90533  14.587   1.182  14.443
29567SOL    HW190534  14.597   1.089  14.467
29567SOL    HW290535  14.634   1.191  14.360
29568SOL     OW90536   3.641   4.183   3.157
29568SOL    HW190537   3.696   4.143   3.089
29568SOL    HW290538   3.703   4.204   3.228
29569SOL     OW90539  11.026   6.720  13.889
29569SOL    HW190540  11.005   6.812  13.905
29569SOL    HW290541  11.121   6.716  13.899
29570SOL     OW90542   8.081   9.805   1.540
29570SOL    HW190543   8.016   9.845   1.482
29570SOL    HW290544   8.065   9.846   1.625
29571SOL     OW90545   9.940   8.954   6.846
29571SOL    HW190546   9.957   8.860   6.838
29571SOL    HW290547  10.008   8.985   6.906
29572SOL     OW90548   2.536   6.918   9.216
29572SOL    HW190549   2.567   6.831   9.190
29572SOL    HW290550   2.460   6.934   9.160
29573SOL     OW90551   1.889   2.930   2.533
29573SOL    HW190552   1.892   2.996   2.464
29573SOL    HW290553   1.868   2.979   2.613
29574SOL     OW90554   9.038   6.164   1.612
29574SOL    HW190555   9.083   6.169   1.527
29574SOL    HW290556   9.108   6.141   1.674
29575SOL     OW90557   1.962  11.513   4.131
29575SOL    HW190558   1.903  11.541   4.061
29575SOL    HW290559   1.908  11.512   4.210
29576SOL     OW90560   9.820  10.546  14.788
29576SOL    HW190561   9.780  10.490  14.855
29576SOL    HW290562   9.789  10.634  14.811
29577SOL     OW90563  11.650   2.511   0.888
29577SOL    HW190564  11.616   2.467   0.966
29577SOL    HW290565  11.622   2.456   0.815
29578SOL     OW90566   2.986  12.448   9.920
29578SOL    HW190567   3.064  12.476   9.968
29578SOL    HW290568   3.018  12.380   9.861
29579SOL     OW90569   9.439  13.860   6.871
29579SOL    HW190570   9.369  13.830   6.813
29579SOL    HW290571   9.496  13.914   6.815
29580SOL     OW90572   3.461   2.776   1.562
29580SOL    HW190573   3.502   2.740   1.641
29580SOL    HW290574   3.534   2.809   1.510
29581SOL     OW90575  10.177   0.950  11.063
29581SOL    HW190576  10.178   0.907  11.149
29581SOL    HW290577  10.252   0.914  11.017
29582SOL     OW90578  12.971   2.500   5.092
29582SOL    HW190579  13.012   2.447   5.160
29582SOL    HW290580  13.032   2.497   5.018
29583SOL     OW90581   5.578   6.287   5.690
29583SOL    HW190582   5.594   6.252   5.603
29583SOL    HW290583   5.564   6.210   5.745
29584SOL     OW90584  13.753  13.917  14.613
29584SOL    HW190585  13.827  13.970  14.643
29584SOL    HW290586  13.677  13.973  14.626
29585SOL     OW90587   3.203   7.479  14.501
29585SOL    HW190588   3.181   7.567  14.532
29585SOL    HW290589   3.266   7.494  14.431
29586SOL     OW90590   3.254  14.703   9.471
29586SOL    HW190591   3.289  14.642   9.406
29586SOL    HW290592   3.324  14.711   9.536
29587SOL     OW90593  13.914   1.377  10.773
29587SOL    HW190594  13.959   1.461  10.767
29587SOL    HW290595  13.827   1.394  10.738
29588SOL     OW90596   2.594  13.464   9.618
29588SOL    HW190597   2.642  13.399   9.670
29588SOL    HW290598   2.539  13.509   9.682
29589SOL     OW90599  12.428   6.479   5.491
29589SOL    HW190600  12.493   6.539   5.454
29589SOL    HW290601  12.357   6.479   5.427
29590SOL     OW90602   0.499  10.194   8.452
29590SOL    HW190603   0.566  10.160   8.392
29590SOL    HW290604   0.489  10.126   8.519
29591SOL     OW90605   5.031   8.778  12.146
29591SOL    HW190606   4.948   8.810  12.110
29591SOL    HW290607   5.023   8.683  12.144
29592SOL     OW90608   9.471   9.495   2.940
29592SOL    HW190609   9.407   9.560   2.969
29592SOL    HW290610   9.425   9.411   2.947
29593SOL     OW90611  11.133   8.666  13.195
29593SOL    HW190612  11.199   8.703  13.137
29593SOL    HW290613  11.115   8.580  13.159
29594SOL     OW90614  14.859  10.145  12.983
29594SOL    HW190615  14.810  10.080  13.034
29594SOL    HW290616   0.056  10.166  13.037
29595SOL     OW90617   7.337  10.833   8.445
29595SOL    HW190618   7.274  10.905   8.453
29595SOL    HW290619   7.351  10.803   8.535
29596SOL     OW90620  13.415   1.544   5.086
29596SOL    HW190621  13.396   1.477   5.152
29596SOL    HW290622  13.428   1.624   5.136
29597SOL     OW90623  11.358   4.824  11.879
29597SOL    HW190624  11.453   4.818  11.874
29597SOL    HW290625  11.342   4.877  11.957
29598SOL     OW90626  10.168   4.644   9.949
29598SOL    HW190627  10.260   4.651   9.922
29598SOL    HW290628  10.154   4.550   9.963
29599SOL     OW90629  14.582   0.234  10.277
29599SOL    HW190630  14.677   0.219  10.273
29599SOL    HW290631  14.544   0.166  10.222
29600SOL     OW90632   4.041  10.363   6.481
29600SOL    HW190633   4.063  10.405   6.564
29600SOL    HW290634   3.977  10.296   6.504
29601SOL     OW90635   3.184  11.375  14.497
29601SOL    HW190636   3.188  11.292  14.544
29601SOL    HW290637   3.130  11.432  14.552
29602SOL     OW90638  11.462   4.725  12.754
29602SOL    HW190639  11.525   4.654  12.769
29602SOL    HW290640  11.489   4.763  12.671
29603SOL     OW90641  11.204  14.673   5.077
29603SOL    HW190642  11.153  14.752   5.097
29603SOL    HW290643  11.193  14.661   4.983
29604SOL     OW90644   5.931  13.106   4.637
29604SOL    HW190645   6.021  13.080   4.618
29604SOL    HW290646   5.877  13.050   4.581
29605SOL     OW90647  13.540   4.845   1.535
29605SOL    HW190648  13.458   4.825   1.489
29605SOL    HW290649  13.578   4.917   1.486
29606SOL     OW90650   5.593   8.642   0.665
29606SOL    HW190651   5.677   8.625   0.623
29606SOL    HW290652   5.531   8.652   0.593
29607SOL     OW90653   0.088  10.003  12.144
29607SOL    HW190654   0.100  10.085  12.192
29607SOL    HW290655   0.035   9.949  12.202
29608SOL     OW90656  14.723   2.113   7.547
29608SOL    HW190657  14.773   2.185   7.586
29608SOL    HW290658  14.697   2.059   7.621
29609SOL     OW90659  14.483   2.425   9.930
29609SOL    HW190660  14.521   2.354   9.981
29609SOL    HW290661  14.477   2.390   9.841
29610SOL     OW90662  13.996   1.997   7.357
29610SOL    HW190663  13.962   2.008   7.445
29610SOL    HW290664  14.042   1.913   7.360
29611SOL     OW90665   3.779   8.657   5.516
29611SOL    HW190666   3.844   8.588   5.528
29611SOL    HW290667   3.774   8.669   5.421
29612SOL     OW90668   7.935   4.481   7.035
29612SOL    HW190669   8.015   4.429   7.035
29612SOL    HW290670   7.937   4.528   7.118
29613SOL     OW90671   4.559   9.894  11.598
29613SOL    HW190672   4.607   9.958  11.546
29613SOL    HW290673   4.625   9.827  11.619
29614SOL     OW90674  13.523   4.773   8.393
29614SOL    HW190675  13.462   4.844   8.411
29614SOL    HW290676  13.508   4.751   8.301
29615SOL     OW90677   8.567   6.410   9.249
29615SOL    HW190678   8.538   6.449   9.166
29615SOL    HW290679   8.551   6.478   9.315
29616SOL     OW90680   3.484   3.818   5.419
29616SOL    HW190681   3.498   3.912   5.430
29616SOL    HW290682   3.447   3.789   5.502
29617SOL     OW90683   8.641   5.278   0.044
29617SOL    HW190684   8.602   5.336  14.857
29617SOL    HW290685   8.596   5.194   0.030
29618SOL     OW90686  13.794  13.629   6.855
29618SOL    HW190687  13.701  13.652   6.848
29618SOL    HW290688  13.825  13.627   6.765
29619SOL     OW90689   5.945  11.501  10.833
29619SOL    HW190690   5.929  11.443  10.908
29619SOL    HW290691   6.041  11.507  10.828
29620SOL     OW90692   4.395   7.954   5.091
29620SOL    HW190693   4.402   8.011   5.015
29620SOL    HW290694   4.465   7.890   5.081
29621SOL     OW90695   5.497   3.344   6.051
29621SOL    HW190696   5.575   3.295   6.076
29621SOL    HW290697   5.451   3.360   6.133
29622SOL     OW90698   9.258  10.428   9.955
29622SOL    HW190699   9.287  10.341   9.981
29622SOL    HW290700   9.230  10.469  10.037
29623SOL     OW90701   9.321   3.014  13.244
29623SOL    HW190702   9.257   2.953  13.207
29623SOL    HW290703   9.289   3.030  13.333
29624SOL     OW90704  14.147   6.382  11.269
29624SOL    HW190705  14.227   6.393  11.219
29624SOL    HW290706  14.152   6.294  11.305
29625SOL     OW90707  14.210   8.719   1.350
29625SOL    HW190708  14.205   8.721   1.445
29625SOL    HW290709  14.283   8.661   1.331
29626SOL     OW90710  13.096   5.691   7.116
29626SOL    HW190711  13.170   5.670   7.174
29626SOL    HW290712  13.074   5.781   7.137
29627SOL     OW90713  14.731   2.365   5.262
29627SOL    HW190714  14.766   2.357   5.173
29627SOL    HW290715  14.653   2.310   5.262
29628SOL     OW90716  10.689   2.591  14.232
29628SOL    HW190717  10.732   2.508  14.251
29628SOL    HW290718  10.760   2.650  14.208
29629SOL     OW90719   0.265   0.145   5.337
29629SOL    HW190720   0.292   0.142   5.245
29629SOL    HW290721   0.178   0.106   5.338
29630SOL     OW90722   1.499   4.307   0.026
29630SOL    HW190723   1.502   4.215   0.001
29630SOL    HW290724   1.492   4.305   0.122
29631SOL     OW90725   4.522   4.532   8.437
29631SOL    HW190726   4.474   4.599   8.487
29631SOL    HW290727   4.545   4.466   8.502
29632SOL     OW90728   2.907   9.696  10.374
29632SOL    HW190729   2.839   9.723  10.312
29632SOL    HW290730   2.948   9.621  10.333
29633SOL     OW90731   2.902   6.783   8.884
29633SOL    HW190732   2.950   6.714   8.838
29633SOL    HW290733   2.810   6.756   8.879
29634SOL     OW90734   8.291   6.520   9.850
29634SOL    HW190735   8.254   6.593   9.800
29634SOL    HW290736   8.289   6.447   9.788
29635SOL     OW90737  11.207  10.167   1.626
29635SOL    HW190738  11.229  10.253   1.589
29635SOL    HW290739  11.252  10.105   1.570
29636SOL     OW90740   3.337   9.952  10.255
29636SOL    HW190741   3.333   9.890  10.327
29636SOL    HW290742   3.348  10.037  10.298
29637SOL     OW90743   8.902   9.487  12.096
29637SOL    HW190744   8.960   9.411  12.103
29637SOL    HW290745   8.954   9.560  12.130
29638SOL     OW90746   5.293  10.222   1.963
29638SOL    HW190747   5.316  10.234   1.871
29638SOL    HW290748   5.324  10.134   1.985
29639SOL     OW90749   2.322  10.751  14.755
29639SOL    HW190750   2.242  10.793  14.722
29639SOL    HW290751   2.377  10.740  14.677
29640SOL     OW90752  11.094   1.860   7.314
29640SOL    HW190753  11.161   1.792   7.315
29640SOL    HW290754  11.040   1.842   7.391
29641SOL     OW90755  14.099   8.983   0.400
29641SOL    HW190756  14.037   8.931   0.348
29641SOL    HW290757  14.053   9.065   0.417
29642SOL     OW90758   3.650  14.534   4.749
29642SOL    HW190759   3.707  14.567   4.679
29642SOL    HW290760   3.608  14.457   4.712
29643SOL     OW90761  14.137   7.107   9.064
29643SOL    HW190762  14.135   7.202   9.060
29643SOL    HW290763  14.052   7.083   9.101
29644SOL     OW90764  13.975   0.807   2.412
29644SOL    HW190765  13.883   0.833   2.425
29644SOL    HW290766  13.992   0.827   2.320
29645SOL     OW90767  14.877   4.427  11.477
29645SOL    HW190768   0.019   4.465  11.562
29645SOL    HW290769   0.057   4.472  11.416
29646SOL     OW90770  14.638   3.863   7.749
29646SOL    HW190771  14.711   3.863   7.811
29646SOL    HW290772  14.678   3.843   7.664
29647SOL     OW90773   6.999  14.539  11.304
29647SOL    HW190774   7.028  14.501  11.387
29647SOL    HW290775   6.922  14.590  11.327
29648SOL     OW90776   3.994  10.605  13.929
29648SOL    HW190777   4.031  10.665  13.864
29648SOL    HW290778   3.903  10.593  13.901
29649SOL     OW90779   8.131  11.739  14.103
29649SOL    HW190780   8.176  11.735  14.187
29649SOL    HW290781   8.098  11.651  14.088
29650SOL     OW90782   1.145   1.375  14.696
29650SOL    HW190783   1.163   1.329  14.779
29650SOL    HW290784   1.071   1.327  14.659
29651SOL     OW90785   7.846   0.524  11.666
29651SOL    HW190786   7.923   0.469  11.650
29651SOL    HW290787   7.875   0.613  11.643
29652SOL     OW90788  14.828   7.312   2.753
29652SOL    HW190789  14.859   7.398   2.724
29652SOL    HW290790  14.786   7.330   2.837
29653SOL     OW90791   8.295   2.179   3.243
29653SOL    HW190792   8.359   2.248   3.262
29653SOL    HW290793   8.328   2.137   3.164
29654SOL     OW90794   4.278  12.683   2.400
29654SOL    HW190795   4.310  12.714   2.485
29654SOL    HW290796   4.251  12.593   2.416
29655SOL     OW90797   4.162  12.707   1.800
29655SOL    HW190798   4.146  12.650   1.875
29655SOL    HW290799   4.082  12.702   1.749
29656SOL     OW90800   8.226   3.124  14.214
29656SOL    HW190801   8.243   3.186  14.285
29656SOL    HW290802   8.277   3.047  14.238
29657SOL     OW90803   4.311   9.554  12.153
29657SOL    HW190804   4.231   9.537  12.202
29657SOL    HW290805   4.313   9.487  12.084
29658SOL     OW90806   6.255   5.856   9.707
29658SOL    HW190807   6.323   5.905   9.661
29658SOL    HW290808   6.302   5.785   9.751
29659SOL     OW90809   3.755  12.146  13.166
29659SOL    HW190810   3.689  12.175  13.229
29659SOL    HW290811   3.769  12.221  13.108
29660SOL     OW90812   6.173   4.223   3.673
29660SOL    HW190813   6.099   4.177   3.632
29660SOL    HW290814   6.248   4.167   3.655
29661SOL     OW90815   8.403   1.556   2.580
29661SOL    HW190816   8.485   1.513   2.606
29661SOL    HW290817   8.432   1.635   2.534
29662SOL     OW90818   3.454   7.065   1.403
29662SOL    HW190819   3.365   7.035   1.420
29662SOL    HW290820   3.499   6.989   1.366
29663SOL     OW90821   2.247   8.210   8.125
29663SOL    HW190822   2.245   8.212   8.029
29663SOL    HW290823   2.195   8.133   8.149
29664SOL     OW90824   8.744   1.975   6.879
29664SOL    HW190825   8.770   2.012   6.963
29664SOL    HW290826   8.686   1.902   6.901
29665SOL     OW90827  12.550  12.248   8.369
29665SOL    HW190828  12.486  12.283   8.307
29665SOL    HW290829  12.557  12.315   8.437
29666SOL     OW90830   8.251  11.768  12.448
29666SOL    HW190831   8.283  11.851  12.412
29666SOL    HW290832   8.156  11.773  12.439
29667SOL     OW90833   7.119   0.495  11.985
29667SOL    HW190834   7.149   0.416  11.940
29667SOL    HW290835   7.160   0.491  12.071
29668SOL     OW90836   5.824  11.346   0.309
29668SOL    HW190837   5.836  11.420   0.248
29668SOL    HW290838   5.862  11.377   0.391
29669SOL     OW90839   5.621  11.691   1.839
29669SOL    HW190840   5.710  11.694   1.805
29669SOL    HW290841   5.630  11.657   1.928
29670SOL     OW90842   7.251   7.639   9.939
29670SOL    HW190843   7.181   7.703   9.956
29670SOL    HW290844   7.288   7.621  10.025
29671SOL     OW90845   5.157   4.306  12.468
29671SOL    HW190846   5.064   4.285  12.474
29671SOL    HW290847   5.163   4.398  12.494
29672SOL     OW90848   9.568  12.382  10.784
29672SOL    HW190849   9.495  12.428  10.824
29672SOL    HW290850   9.609  12.446  10.725
29673SOL     OW90851   7.578  13.530  12.052
29673SOL    HW190852   7.619  13.544  12.138
29673SOL    HW290853   7.609  13.443  12.025
29674SOL     OW90854  10.891   2.797  10.711
29674SOL    HW190855  10.886   2.886  10.678
29674SOL    HW290856  10.810   2.755  10.680
29675SOL     OW90857  13.889  13.281  10.660
29675SOL    HW190858  13.878  13.247  10.571
29675SOL    HW290859  13.971  13.243  10.690
29676SOL     OW90860   6.407   8.106   8.351
29676SOL    HW190861   6.465   8.069   8.418
29676SOL    HW290862   6.346   8.036   8.330
29677SOL     OW90863  14.853   3.036   2.314
29677SOL    HW190864  14.815   3.119   2.285
29677SOL    HW290865   0.016   3.001   2.236
29678SOL     OW90866   3.682  12.893  12.610
29678SOL    HW190867   3.679  12.868  12.703
29678SOL    HW290868   3.746  12.964  12.607
29679SOL     OW90869   8.429  13.235  13.653
29679SOL    HW190870   8.457  13.144  13.666
29679SOL    HW290871   8.460  13.258  13.566
29680SOL     OW90872  13.380  13.838  14.635
29680SOL    HW190873  13.413  13.752  14.610
29680SOL    HW290874  13.398  13.845  14.728
29681SOL     OW90875  14.820  14.784  14.721
29681SOL    HW190876  14.733  14.815  14.744
29681SOL    HW290877  14.863  14.769  14.805
29682SOL     OW90878   4.944   7.669   1.142
29682SOL    HW190879   4.982   7.753   1.114
29682SOL    HW290880   5.014   7.605   1.126
29683SOL     OW90881   2.219   9.377  14.492
29683SOL    HW190882   2.134   9.419  14.491
29683SOL    HW290883   2.219   9.323  14.571
29684SOL     OW90884   0.795   6.257   2.240
29684SOL    HW190885   0.875   6.206   2.251
29684SOL    HW290886   0.731   6.195   2.204
29685SOL     OW90887   3.719   8.823   7.569
29685SOL    HW190888   3.772   8.746   7.549
29685SOL    HW290889   3.725   8.877   7.491
29686SOL     OW90890   9.858  12.868   5.256
29686SOL    HW190891   9.899  12.793   5.212
29686SOL    HW290892   9.800  12.828   5.321
29687SOL     OW90893   9.369  13.986  14.018
29687SOL    HW190894   9.317  13.993  13.938
29687SOL    HW290895   9.460  13.983  13.988
29688SOL     OW90896   4.570  14.026   4.463
29688SOL    HW190897   4.554  14.114   4.496
29688SOL    HW290898   4.550  13.968   4.536
29689SOL     OW90899   6.465   5.414   9.897
29689SOL    HW190900   6.526   5.343   9.876
29689SOL    HW290901   6.385   5.370   9.925
29690SOL     OW90902   9.365   4.296   3.113
29690SOL    HW190903   9.280   4.261   3.141
29690SOL    HW290904   9.383   4.366   3.175
29691SOL     OW90905   7.695   1.748   7.946
29691SOL    HW190906   7.601   1.768   7.940
29691SOL    HW290907   7.724   1.794   8.024
29692SOL     OW90908   8.569   0.766  13.352
29692SOL    HW190909   8.517   0.789  13.429
29692SOL    HW290910   8.589   0.850  13.311
29693SOL     OW90911   8.541  13.438  10.464
29693SOL    HW190912   8.460  13.386  10.459
29693SOL    HW290913   8.540  13.474  10.553
29694SOL     OW90914   2.412   7.857  13.394
29694SOL    HW190915   2.473   7.835  13.324
29694SOL    HW290916   2.455   7.825  13.474
29695SOL     OW90917   1.582   7.126  13.381
29695SOL    HW190918   1.527   7.049  13.364
29695SOL    HW290919   1.526   7.201  13.361
29696SOL     OW90920  12.283   5.913   9.740
29696SOL    HW190921  12.212   5.959   9.696
29696SOL    HW290922  12.333   5.872   9.669
29697SOL     OW90923  13.176   1.784   5.411
29697SOL    HW190924  13.085   1.757   5.403
29697SOL    HW290925  13.195   1.776   5.505
29698SOL     OW90926   6.093  10.102   6.255
29698SOL    HW190927   6.018  10.153   6.284
29698SOL    HW290928   6.170  10.153   6.282
29699SOL     OW90929   6.215  13.550   0.374
29699SOL    HW190930   6.191  13.458   0.365
29699SOL    HW290931   6.154  13.597   0.317
29700SOL     OW90932   2.264  11.056   0.388
29700SOL    HW190933   2.247  10.994   0.317
29700SOL    HW290934   2.288  11.001   0.462
29701SOL     OW90935   6.153   1.802   2.788
29701SOL    HW190936   6.076   1.748   2.772
29701SOL    HW290937   6.225   1.740   2.796
29702SOL     OW90938  13.787   2.120   0.377
29702SOL    HW190939  13.799   2.053   0.309
29702SOL    HW290940  13.699   2.102   0.411
29703SOL     OW90941   6.930  14.795  14.452
29703SOL    HW190942   6.978  14.871  14.484
29703SOL    HW290943   6.892  14.824  14.369
29704SOL     OW90944   6.757   0.166  12.573
29704SOL    HW190945   6.818   0.214  12.516
29704SOL    HW290946   6.798   0.170  12.660
29705SOL     OW90947   1.544   1.910  13.477
29705SOL    HW190948   1.510   1.826  13.446
29705SOL    HW290949   1.479   1.941  13.540
29706SOL     OW90950  11.199   3.806   8.944
29706SOL    HW190951  11.133   3.844   8.886
29706SOL    HW290952  11.150   3.782   9.023
29707SOL     OW90953   6.044   3.815   5.048
29707SOL    HW190954   6.028   3.909   5.060
29707SOL    HW290955   6.047   3.780   5.137
29708SOL     OW90956   0.722   6.574  14.036
29708SOL    HW190957   0.641   6.624  14.048
29708SOL    HW290958   0.788   6.625  14.082
29709SOL     OW90959  14.285   8.149   6.293
29709SOL    HW190960  14.225   8.202   6.239
29709SOL    HW290961  14.372   8.185   6.274
29710SOL     OW90962  10.205   2.423  11.428
29710SOL    HW190963  10.160   2.373  11.360
29710SOL    HW290964  10.233   2.356  11.491
29711SOL     OW90965  12.271   4.615   1.661
29711SOL    HW190966  12.269   4.532   1.613
29711SOL    HW290967  12.244   4.592   1.750
29712SOL     OW90968   6.305  14.357  14.714
29712SOL    HW190969   6.305  14.280  14.770
29712SOL    HW290970   6.221  14.355  14.669
29713SOL     OW90971   1.238   9.117  14.636
29713SOL    HW190972   1.158   9.167  14.619
29713SOL    HW290973   1.255   9.132  14.729
29714SOL     OW90974   2.343   5.218   6.597
29714SOL    HW190975   2.345   5.123   6.587
29714SOL    HW290976   2.348   5.232   6.692
29715SOL     OW90977   0.179   2.256   1.275
29715SOL    HW190978   0.104   2.214   1.234
29715SOL    HW290979   0.190   2.338   1.226
29716SOL     OW90980   1.316  11.790  13.969
29716SOL    HW190981   1.392  11.794  13.910
29716SOL    HW290982   1.250  11.741  13.919
29717SOL     OW90983   0.637   3.144  10.156
29717SOL    HW190984   0.664   3.156  10.065
29717SOL    HW290985   0.556   3.195  10.164
29718SOL     OW90986  11.937   3.120   4.667
29718SOL    HW190987  11.941   3.116   4.763
29718SOL    HW290988  11.936   3.214   4.647
29719SOL     OW90989  10.847   3.246  11.127
29719SOL    HW190990  10.875   3.201  11.048
29719SOL    HW290991  10.923   3.241  11.185
29720SOL     OW90992   3.846   3.740  11.105
29720SOL    HW190993   3.935   3.710  11.090
29720SOL    HW290994   3.808   3.673  11.162
29721SOL     OW90995   3.728   6.894   1.941
29721SOL    HW190996   3.765   6.806   1.950
29721SOL    HW290997   3.665   6.901   2.013
29722SOL     OW90998   9.646   0.625  13.419
29722SOL    HW190999   9.738   0.600  13.409
29722SOL    HW291000   9.626   0.677  13.342
29723SOL     OW91001   1.006   9.714  11.950
29723SOL    HW191002   0.938   9.765  11.906
29723SOL    HW291003   1.066   9.779  11.985
29724SOL     OW91004   2.564  10.403   0.890
29724SOL    HW191005   2.551  10.488   0.933
29724SOL    HW291006   2.656  10.381   0.907
29725SOL     OW91007   9.016  12.868  14.027
29725SOL    HW191008   9.008  12.782  13.986
29725SOL    HW291009   9.042  12.849  14.117
29726SOL     OW91010  13.512  11.802  10.126
29726SOL    HW191011  13.587  11.825  10.070
29726SOL    HW291012  13.444  11.865  10.101
29727SOL     OW91013   5.910   1.676   2.374
29727SOL    HW191014   5.996   1.649   2.407
29727SOL    HW291015   5.882   1.745   2.434
29728SOL     OW91016   0.903   1.517  13.260
29728SOL    HW191017   0.888   1.486  13.170
29728SOL    HW291018   0.882   1.441  13.315
29729SOL     OW91019   0.823  10.256  14.181
29729SOL    HW191020   0.779  10.333  14.217
29729SOL    HW291021   0.758  10.186  14.188
29730SOL     OW91022   9.413   1.594   5.726
29730SOL    HW191023   9.338   1.583   5.668
29730SOL    HW291024   9.453   1.676   5.698
29731SOL     OW91025   3.800   8.121   9.088
29731SOL    HW191026   3.846   8.195   9.127
29731SOL    HW291027   3.865   8.077   9.035
29732SOL     OW91028  13.354   3.252   9.142
29732SOL    HW191029  13.448   3.267   9.153
29732SOL    HW291030  13.313   3.316   9.200
29733SOL     OW91031  10.074   0.985   2.904
29733SOL    HW191032   9.995   0.993   2.850
29733SOL    HW291033  10.057   0.909   2.960
29734SOL     OW91034   5.517  10.528   2.595
29734SOL    HW191035   5.549  10.616   2.612
29734SOL    HW291036   5.430  10.526   2.634
29735SOL     OW91037   8.584   8.238   7.088
29735SOL    HW191038   8.526   8.286   7.147
29735SOL    HW291039   8.661   8.293   7.081
29736SOL     OW91040   2.732   7.586   5.333
29736SOL    HW191041   2.661   7.537   5.377
29736SOL    HW291042   2.789   7.613   5.405
29737SOL     OW91043  10.266   2.778  13.245
29737SOL    HW191044  10.303   2.801  13.330
29737SOL    HW291045  10.195   2.717  13.266
29738SOL     OW91046  11.159  10.738   4.549
29738SOL    HW191047  11.120  10.811   4.597
29738SOL    HW291048  11.191  10.777   4.467
29739SOL     OW91049   7.720   2.147   2.720
29739SOL    HW191050   7.736   2.214   2.654
29739SOL    HW291051   7.662   2.188   2.784
29740SOL     OW91052   2.017  10.827  14.791
29740SOL    HW191053   2.029  10.745  14.742
29740SOL    HW291054   1.949  10.807  14.855
29741SOL     OW91055   5.179  14.284   7.824
29741SOL    HW191056   5.263  14.241   7.838
29741SOL    HW291057   5.185  14.365   7.874
29742SOL     OW91058   8.473  12.599  14.345
29742SOL    HW191059   8.511  12.685  14.325
29742SOL    HW291060   8.485  12.590  14.440
29743SOL     OW91061   1.520   6.380   7.307
29743SOL    HW191062   1.457   6.430   7.254
29743SOL    HW291063   1.472   6.360   7.388
29744SOL     OW91064   3.883   3.626   0.533
29744SOL    HW191065   3.943   3.647   0.604
29744SOL    HW291066   3.839   3.546   0.562
29745SOL     OW91067  12.518  13.551  10.771
29745SOL    HW191068  12.604  13.518  10.746
29745SOL    HW291069  12.513  13.537  10.865
29746SOL     OW91070   5.791   1.825   5.394
29746SOL    HW191071   5.697   1.819   5.381
29746SOL    HW291072   5.824   1.738   5.371
29747SOL     OW91073   1.966   2.878  11.619
29747SOL    HW191074   1.948   2.850  11.709
29747SOL    HW291075   2.046   2.832  11.594
29748SOL     OW91076  11.949   6.046   7.802
29748SOL    HW191077  11.949   5.951   7.792
29748SOL    HW291078  12.016   6.076   7.740
29749SOL     OW91079  12.794   9.872   9.789
29749SOL    HW191080  12.862   9.934   9.762
29749SOL    HW291081  12.712   9.919   9.774
29750SOL     OW91082   2.678   8.109   9.838
29750SOL    HW191083   2.586   8.108   9.809
29750SOL    HW291084   2.714   8.027   9.805
29751SOL     OW91085   1.928   9.702   4.623
29751SOL    HW191086   1.892   9.761   4.558
29751SOL    HW291087   2.023   9.707   4.611
29752SOL     OW91088   2.729  13.882   4.446
29752SOL    HW191089   2.675  13.806   4.423
29752SOL    HW291090   2.724  13.939   4.369
29753SOL     OW91091   2.229   0.394  12.407
29753SOL    HW191092   2.159   0.368  12.346
29753SOL    HW291093   2.186   0.402  12.492
29754SOL     OW91094   7.642  14.028   2.166
29754SOL    HW191095   7.629  14.055   2.257
29754SOL    HW291096   7.709  13.961   2.170
29755SOL     OW91097   2.034  11.493   0.507
29755SOL    HW191098   2.093  11.420   0.525
29755SOL    HW291099   2.064  11.528   0.423
29756SOL     OW91100   4.835  12.431  11.741
29756SOL    HW191101   4.759  12.460  11.691
29756SOL    HW291102   4.910  12.460  11.688
29757SOL     OW91103  12.010  13.708   0.042
29757SOL    HW191104  12.021  13.800   0.020
29757SOL    HW291105  12.099  13.673   0.042
29758SOL     OW91106  10.168  13.106   8.441
29758SOL    HW191107  10.076  13.090   8.422
29758SOL    HW291108  10.199  13.158   8.367
29759SOL     OW91109   8.273   9.032   0.378
29759SOL    HW191110   8.362   8.996   0.381
29759SOL    HW291111   8.251   9.048   0.470
29760SOL     OW91112   5.377   3.842   2.589
29760SOL    HW191113   5.438   3.771   2.610
29760SOL    HW291114   5.433   3.916   2.566
29761SOL     OW91115   7.155   7.142  14.579
29761SOL    HW191116   7.232   7.165  14.527
29761SOL    HW291117   7.126   7.058  14.545
29762SOL     OW91118  11.706   6.284   4.217
29762SOL    HW191119  11.760   6.259   4.142
29762SOL    HW291120  11.672   6.200   4.250
29763SOL     OW91121  14.242  11.531   0.676
29763SOL    HW191122  14.217  11.605   0.730
29763SOL    HW291123  14.202  11.455   0.719
29764SOL     OW91124   4.965   4.028   3.575
29764SOL    HW191125   5.029   4.071   3.518
29764SOL    HW291126   4.985   3.934   3.567
29765SOL     OW91127   6.818   1.899  12.570
29765SOL    HW191128   6.819   1.807  12.544
29765SOL    HW291129   6.753   1.904  12.639
29766SOL     OW91130   5.692  11.637   7.384
29766SOL    HW191131   5.604  11.634   7.422
29766SOL    HW291132   5.725  11.547   7.391
29767SOL     OW91133   8.527  12.376   3.562
29767SOL    HW191134   8.576  12.352   3.641
29767SOL    HW291135   8.592  12.378   3.492
29768SOL     OW91136   5.027  10.282  13.627
29768SOL    HW191137   5.060  10.221  13.561
29768SOL    HW291138   4.942  10.311  13.594
29769SOL     OW91139  11.066   7.937  12.177
29769SOL    HW191140  10.971   7.930  12.186
29769SOL    HW291141  11.094   7.848  12.155
29770SOL     OW91142   1.323   8.289  10.494
29770SOL    HW191143   1.356   8.378  10.494
29770SOL    HW291144   1.228   8.299  10.502
29771SOL     OW91145   8.210   6.535  13.164
29771SOL    HW191146   8.227   6.468  13.230
29771SOL    HW291147   8.175   6.609  13.213
29772SOL     OW91148  11.104  12.103   0.128
29772SOL    HW191149  11.040  12.046   0.085
29772SOL    HW291150  11.152  12.144   0.056
29773SOL     OW91151   3.525   8.370  14.725
29773SOL    HW191152   3.455   8.312  14.753
29773SOL    HW291153   3.499   8.397  14.637
29774SOL     OW91154  12.027   3.754   8.124
29774SOL    HW191155  12.098   3.711   8.172
29774SOL    HW291156  12.013   3.699   8.047
29775SOL     OW91157   5.434  11.293  11.581
29775SOL    HW191158   5.469  11.221  11.634
29775SOL    HW291159   5.465  11.275  11.492
29776SOL     OW91160  12.142   8.643   7.197
29776SOL    HW191161  12.187   8.563   7.224
29776SOL    HW291162  12.132   8.635   7.102
29777SOL     OW91163  12.920   5.119   5.484
29777SOL    HW191164  12.968   5.037   5.468
29777SOL    HW291165  12.943   5.143   5.573
29778SOL     OW91166   6.720   6.992   8.249
29778SOL    HW191167   6.740   7.009   8.157
29778SOL    HW291168   6.739   7.074   8.294
29779SOL     OW91169   9.359   1.330  14.286
29779SOL    HW191170   9.372   1.261  14.221
29779SOL    HW291171   9.391   1.291  14.368
29780SOL     OW91172   9.521   2.464   5.815
29780SOL    HW191173   9.546   2.427   5.730
29780SOL    HW291174   9.565   2.409   5.879
29781SOL     OW91175  13.075   5.792  12.877
29781SOL    HW191176  13.113   5.822  12.795
29781SOL    HW291177  13.126   5.715  12.901
29782SOL     OW91178  11.415  12.451   9.772
29782SOL    HW191179  11.380  12.491   9.852
29782SOL    HW291180  11.343  12.458   9.709
29783SOL     OW91181  12.457   9.245  14.783
29783SOL    HW191182  12.473   9.212  14.694
29783SOL    HW291183  12.543   9.275  14.813
29784SOL     OW91184  12.630  10.865  13.997
29784SOL    HW191185  12.656  10.787  13.949
29784SOL    HW291186  12.541  10.846  14.028
29785SOL     OW91187   2.969   8.055  13.289
29785SOL    HW191188   2.940   8.041  13.380
29785SOL    HW291189   3.063   8.070  13.296
29786SOL     OW91190  10.058   3.451   0.038
29786SOL    HW191191   9.984   3.504   0.065
29786SOL    HW291192  10.082   3.402   0.117
29787SOL     OW91193  11.956   2.168   4.387
29787SOL    HW191194  11.918   2.239   4.438
29787SOL    HW291195  11.929   2.186   4.297
29788SOL     OW91196   9.649   9.786   7.506
29788SOL    HW191197   9.679   9.822   7.422
29788SOL    HW291198   9.707   9.825   7.571
29789SOL     OW91199  14.287  11.028  14.734
29789SOL    HW191200  14.267  11.105  14.682
29789SOL    HW291201  14.354  10.981  14.684
29790SOL     OW91202  10.800  10.266  14.098
29790SOL    HW191203  10.851  10.315  14.163
29790SOL    HW291204  10.856  10.264  14.021
29791SOL     OW91205  13.816   5.817   2.359
29791SOL    HW191206  13.754   5.776   2.420
29791SOL    HW291207  13.825   5.907   2.390
29792SOL     OW91208   9.960  14.094  12.494
29792SOL    HW191209   9.881  14.144  12.474
29792SOL    HW291210   9.957  14.019  12.435
29793SOL     OW91211   2.440   9.406   0.148
29793SOL    HW191212   2.514   9.416   0.088
29793SOL    HW291213   2.385   9.340   0.106
29794SOL     OW91214   6.593   4.223  12.340
29794SOL    HW191215   6.549   4.139  12.331
29794SOL    HW291216   6.564   4.274  12.263
29795SOL     OW91217  11.000   6.536   3.883
29795SOL    HW191218  10.911   6.552   3.913
29795SOL    HW291219  11.050   6.612   3.914
29796SOL     OW91220   8.962   3.177   2.539
29796SOL    HW191221   9.018   3.148   2.611
29796SOL    HW291222   8.881   3.204   2.582
29797SOL     OW91223   9.696   5.875   9.464
29797SOL    HW191224   9.762   5.806   9.456
29797SOL    HW291225   9.696   5.918   9.378
29798SOL     OW91226  13.892   8.958  10.594
29798SOL    HW191227  13.963   8.942  10.531
29798SOL    HW291228  13.857   9.043  10.569
29799SOL     OW91229   9.600   0.680   5.435
29799SOL    HW191230   9.625   0.737   5.362
29799SOL    HW291231   9.620   0.592   5.404
29800SOL     OW91232   7.852  13.684  11.181
29800SOL    HW191233   7.787  13.616  11.196
29800SOL    HW291234   7.804  13.756  11.141
29801SOL     OW91235   4.114   3.279   8.458
29801SOL    HW191236   4.059   3.202   8.471
29801SOL    HW291237   4.053   3.349   8.438
29802SOL     OW91238   6.140   3.109   9.756
29802SOL    HW191239   6.112   3.049   9.686
29802SOL    HW291240   6.096   3.075   9.835
29803SOL     OW91241   7.983  14.242   2.397
29803SOL    HW191242   7.995  14.255   2.492
29803SOL    HW291243   7.982  14.331   2.361
29804SOL     OW91244  14.514  14.001  13.183
29804SOL    HW191245  14.608  14.020  13.184
29804SOL    HW291246  14.486  14.017  13.273
29805SOL     OW91247   4.457  10.687  12.789
29805SOL    HW191248   4.509  10.611  12.816
29805SOL    HW291249   4.369  10.651  12.776
29806SOL     OW91250   8.627   6.810   6.263
29806SOL    HW191251   8.627   6.863   6.342
29806SOL    HW291252   8.587   6.727   6.289
29807SOL     OW91253  13.542   5.352  13.628
29807SOL    HW191254  13.573   5.266  13.598
29807SOL    HW291255  13.618   5.409  13.624
29808SOL     OW91256   2.925   0.559  13.989
29808SOL    HW191257   2.946   0.626  13.923
29808SOL    HW291258   2.924   0.477  13.941
29809SOL     OW91259  13.104   3.345   1.805
29809SOL    HW191260  13.012   3.332   1.828
29809SOL    HW291261  13.150   3.273   1.848
29810SOL     OW91262   9.921   4.474   0.050
29810SOL    HW191263   9.838   4.432   0.076
29810SOL    HW291264   9.939   4.537   0.119
29811SOL     OW91265   9.663   2.092  13.726
29811SOL    HW191266   9.580   2.049  13.705
29811SOL    HW291267   9.717   2.022  13.763
29812SOL     OW91268  12.634  11.625  13.217
29812SOL    HW191269  12.655  11.716  13.236
29812SOL    HW291270  12.628  11.622  13.121
29813SOL     OW91271   1.487   3.109   6.725
29813SOL    HW191272   1.415   3.058   6.686
29813SOL    HW291273   1.543   3.130   6.651
29814SOL     OW91274  12.846   5.654   4.093
29814SOL    HW191275  12.936   5.627   4.111
29814SOL    HW291276  12.841   5.744   4.124
29815SOL     OW91277   4.535   5.397   9.352
29815SOL    HW191278   4.621   5.419   9.319
29815SOL    HW291279   4.520   5.307   9.323
29816SOL     OW91280   7.562   3.603   7.249
29816SOL    HW191281   7.554   3.507   7.254
29816SOL    HW291282   7.549   3.632   7.339
29817SOL     OW91283   9.299   8.609   9.107
29817SOL    HW191284   9.333   8.695   9.082
29817SOL    HW291285   9.341   8.548   9.046
29818SOL     OW91286   5.726   1.271   9.535
29818SOL    HW191287   5.685   1.347   9.494
29818SOL    HW291288   5.686   1.267   9.622
29819SOL     OW91289   3.542  11.652   8.168
29819SOL    HW191290   3.539  11.660   8.073
29819SOL    HW291291   3.557  11.559   8.184
29820SOL     OW91292  10.963   6.165   6.461
29820SOL    HW191293  10.968   6.141   6.553
29820SOL    HW291294  11.014   6.246   6.454
29821SOL     OW91295  10.760  11.215   5.415
29821SOL    HW191296  10.751  11.165   5.334
29821SOL    HW291297  10.812  11.158   5.472
29822SOL     OW91298   5.040   7.402   0.471
29822SOL    HW191299   5.040   7.307   0.485
29822SOL    HW291300   4.955   7.421   0.431
29823SOL     OW91301   4.767   9.490   0.014
29823SOL    HW191302   4.706   9.463  14.824
29823SOL    HW291303   4.808   9.569  14.860
29824SOL     OW91304   2.042   8.267   1.888
29824SOL    HW191305   2.056   8.268   1.983
29824SOL    HW291306   2.082   8.185   1.859
29825SOL     OW91307   9.690   6.221  12.261
29825SOL    HW191308   9.719   6.238  12.351
29825SOL    HW291309   9.595   6.222  12.265
29826SOL     OW91310   3.485  12.716   6.427
29826SOL    HW191311   3.528  12.801   6.438
29826SOL    HW291312   3.436  12.703   6.509
29827SOL     OW91313   9.036   3.172   7.342
29827SOL    HW191314   9.088   3.126   7.276
29827SOL    HW291315   8.948   3.176   7.305
29828SOL     OW91316  14.275   9.755   1.258
29828SOL    HW191317  14.278   9.824   1.324
29828SOL    HW291318  14.283   9.801   1.174
29829SOL     OW91319  13.014   6.190  10.926
29829SOL    HW191320  13.080   6.127  10.897
29829SOL    HW291321  13.039   6.272  10.883
29830SOL     OW91322  13.808   4.902  11.170
29830SOL    HW191323  13.775   4.969  11.231
29830SOL    HW291324  13.729   4.860  11.136
29831SOL     OW91325   8.635   5.672  10.574
29831SOL    HW191326   8.649   5.740  10.508
29831SOL    HW291327   8.719   5.627  10.580
29832SOL     OW91328   8.961   8.667   5.124
29832SOL    HW191329   9.005   8.650   5.041
29832SOL    HW291330   8.960   8.763   5.132
29833SOL     OW91331   7.687   3.179   3.200
29833SOL    HW191332   7.668   3.265   3.163
29833SOL    HW291333   7.602   3.148   3.231
29834SOL     OW91334  11.084  11.554  10.177
29834SOL    HW191335  11.153  11.606  10.134
29834SOL    HW291336  11.095  11.466  10.142
29835SOL     OW91337   0.092   6.844  11.236
29835SOL    HW191338   0.092   6.896  11.317
29835SOL    HW291339   0.081   6.754  11.266
29836SOL     OW91340   9.780  10.655   3.999
29836SOL    HW191341   9.856  10.694   4.042
29836SOL    HW291342   9.719  10.637   4.071
29837SOL     OW91343   3.398   3.858   8.813
29837SOL    HW191344   3.335   3.831   8.880
29837SOL    HW291345   3.447   3.778   8.793
29838SOL     OW91346   3.755   7.933   3.000
29838SOL    HW191347   3.661   7.943   2.989
29838SOL    HW291348   3.764   7.869   3.071
29839SOL     OW91349   7.913   8.847   2.409
29839SOL    HW191350   7.956   8.922   2.448
29839SOL    HW291351   7.855   8.885   2.343
29840SOL     OW91352  13.323   4.761   3.350
29840SOL    HW191353  13.313   4.773   3.445
29840SOL    HW291354  13.418   4.763   3.336
29841SOL     OW91355   8.490   2.272  11.160
29841SOL    HW191356   8.525   2.324  11.088
29841SOL    HW291357   8.447   2.198  11.119
29842SOL     OW91358  10.562   8.487   6.186
29842SOL    HW191359  10.657   8.499   6.182
29842SOL    HW291360  10.526   8.574   6.164
29843SOL     OW91361   3.102   7.127  12.173
29843SOL    HW191362   3.104   7.219  12.146
29843SOL    HW291363   3.154   7.124  12.253
29844SOL     OW91364  11.476   9.677  12.027
29844SOL    HW191365  11.517   9.618  12.091
29844SOL    HW291366  11.386   9.686  12.057
29845SOL     OW91367   5.756   0.687   7.210
29845SOL    HW191368   5.690   0.735   7.161
29845SOL    HW291369   5.709   0.612   7.247
29846SOL     OW91370   0.916   2.242   5.555
29846SOL    HW191371   0.830   2.278   5.579
29846SOL    HW291372   0.910   2.149   5.576
29847SOL     OW91373   5.537  13.038  14.716
29847SOL    HW191374   5.607  13.089  14.756
29847SOL    HW291375   5.551  12.949  14.748
29848SOL     OW91376   7.581   0.495  13.965
29848SOL    HW191377   7.673   0.492  13.938
29848SOL    HW291378   7.584   0.486  14.060
29849SOL     OW91379  12.420   9.345  11.154
29849SOL    HW191380  12.336   9.313  11.187
29849SOL    HW291381  12.398   9.394  11.075
29850SOL     OW91382   5.205   4.968  14.577
29850SOL    HW191383   5.226   5.044  14.631
29850SOL    HW291384   5.109   4.963  14.580
29851SOL     OW91385   7.078  10.507   0.055
29851SOL    HW191386   7.043  10.584   0.101
29851SOL    HW291387   7.164  10.535   0.025
29852SOL     OW91388   9.106   6.311   6.263
29852SOL    HW191389   9.034   6.320   6.326
29852SOL    HW291390   9.109   6.396   6.219
29853SOL     OW91391  12.037   2.233   9.093
29853SOL    HW191392  11.954   2.263   9.130
29853SOL    HW291393  12.019   2.144   9.061
29854SOL     OW91394  13.316  13.250   2.357
29854SOL    HW191395  13.348  13.191   2.426
29854SOL    HW291396  13.282  13.325   2.405
29855SOL     OW91397   9.641  13.832   7.442
29855SOL    HW191398   9.644  13.875   7.527
29855SOL    HW291399   9.561  13.781   7.444
29856SOL     OW91400   5.415   7.164   1.125
29856SOL    HW191401   5.392   7.109   1.051
29856SOL    HW291402   5.470   7.109   1.180
29857SOL     OW91403   9.994  12.152   4.082
29857SOL    HW191404  10.011  12.129   3.990
29857SOL    HW291405  10.076  12.133   4.127
29858SOL     OW91406  10.963   3.908   9.647
29858SOL    HW191407  11.006   3.977   9.697
29858SOL    HW291408  10.873   3.938   9.636
29859SOL     OW91409   2.770   4.447   7.974
29859SOL    HW191410   2.756   4.354   7.995
29859SOL    HW291411   2.775   4.449   7.878
29860SOL     OW91412   0.145   6.060  12.337
29860SOL    HW191413   0.198   6.117  12.393
29860SOL    HW291414   0.206   6.030  12.269
29861SOL     OW91415   3.839   3.256   9.437
29861SOL    HW191416   3.864   3.325   9.498
29861SOL    HW291417   3.743   3.259   9.435
29862SOL     OW91418   0.780   8.626   7.143
29862SOL    HW191419   0.795   8.662   7.231
29862SOL    HW291420   0.802   8.533   7.151
29863SOL     OW91421   4.831  10.458   0.569
29863SOL    HW191422   4.791  10.449   0.655
29863SOL    HW291423   4.922  10.430   0.582
29864SOL     OW91424   7.100   8.257  11.519
29864SOL    HW191425   7.095   8.325  11.452
29864SOL    HW291426   7.125   8.178  11.471
29865SOL     OW91427   0.144  11.384  13.339
29865SOL    HW191428   0.054  11.413  13.325
29865SOL    HW291429   0.140  11.289  13.331
29866SOL     OW91430   5.272  10.089   4.836
29866SOL    HW191431   5.276  10.126   4.748
29866SOL    HW291432   5.282   9.994   4.822
29867SOL     OW91433   2.972   9.274  10.431
29867SOL    HW191434   3.025   9.257  10.509
29867SOL    HW291435   2.968   9.189  10.386
29868SOL     OW91436   0.063   5.960   0.442
29868SOL    HW191437   0.148   5.921   0.464
29868SOL    HW291438   0.017   5.969   0.525
29869SOL     OW91439   6.327  12.711  10.491
29869SOL    HW191440   6.351  12.803  10.480
29869SOL    HW291441   6.245  12.702  10.442
29870SOL     OW91442   1.354   1.096  13.893
29870SOL    HW191443   1.297   1.154  13.944
29870SOL    HW291444   1.325   1.008  13.916
29871SOL     OW91445   1.882   7.413   2.407
29871SOL    HW191446   1.845   7.397   2.494
29871SOL    HW291447   1.811   7.391   2.347
29872SOL     OW91448  11.223   8.135   8.201
29872SOL    HW191449  11.256   8.214   8.157
29872SOL    HW291450  11.299   8.102   8.249
29873SOL     OW91451   7.497   3.787   7.454
29873SOL    HW191452   7.573   3.845   7.447
29873SOL    HW291453   7.500   3.754   7.543
29874SOL     OW91454  10.594  12.714  11.877
29874SOL    HW191455  10.590  12.656  11.801
29874SOL    HW291456  10.625  12.798  11.841
29875SOL     OW91457   3.014   1.882   8.759
29875SOL    HW191458   3.100   1.864   8.720
29875SOL    HW291459   2.951   1.857   8.691
29876SOL     OW91460   0.625  13.940   9.467
29876SOL    HW191461   0.635  13.906   9.378
29876SOL    HW291462   0.701  13.996   9.481
29877SOL     OW91463   5.019  11.212   4.571
29877SOL    HW191464   4.977  11.145   4.624
29877SOL    HW291465   5.036  11.284   4.632
29878SOL     OW91466   0.576  14.555   1.077
29878SOL    HW191467   0.623  14.519   1.152
29878SOL    HW291468   0.522  14.482   1.046
29879SOL     OW91469  13.565   0.701   9.275
29879SOL    HW191470  13.525   0.660   9.351
29879SOL    HW291471  13.659   0.696   9.291
29880SOL     OW91472   3.312   9.242  11.488
29880SOL    HW191473   3.220   9.214  11.491
29880SOL    HW291474   3.330   9.253  11.395
29881SOL     OW91475   3.670  12.703   0.297
29881SOL    HW191476   3.658  12.757   0.374
29881SOL    HW291477   3.717  12.625   0.329
29882SOL     OW91478   1.800   4.484   4.799
29882SOL    HW191479   1.778   4.443   4.715
29882SOL    HW291480   1.814   4.410   4.859
29883SOL     OW91481  11.372   1.774  14.207
29883SOL    HW191482  11.363   1.828  14.286
29883SOL    HW291483  11.390   1.837  14.137
29884SOL     OW91484  14.029  12.381   3.997
29884SOL    HW191485  13.975  12.347   3.926
29884SOL    HW291486  14.099  12.429   3.953
29885SOL     OW91487   8.263  14.178  12.194
29885SOL    HW191488   8.291  14.128  12.118
29885SOL    HW291489   8.246  14.266  12.161
29886SOL     OW91490   1.084   6.871   1.857
29886SOL    HW191491   1.127   6.802   1.807
29886SOL    HW291492   0.990   6.852   1.850
29887SOL     OW91493   5.246   5.414   5.537
29887SOL    HW191494   5.193   5.463   5.475
29887SOL    HW291495   5.334   5.451   5.527
29888SOL     OW91496   3.589  14.551  11.526
29888SOL    HW191497   3.667  14.501  11.502
29888SOL    HW291498   3.516  14.491  11.508
29889SOL     OW91499   5.968   9.646   3.007
29889SOL    HW191500   6.057   9.611   3.009
29889SOL    HW291501   5.972   9.727   3.058
29890SOL     OW91502   1.154   3.451   4.853
29890SOL    HW191503   1.202   3.407   4.782
29890SOL    HW291504   1.070   3.473   4.814
29891SOL     OW91505   8.065   6.807   3.134
29891SOL    HW191506   8.005   6.777   3.202
29891SOL    HW291507   8.077   6.732   3.076
29892SOL     OW91508  12.974   6.972   9.627
29892SOL    HW191509  12.950   6.883   9.604
29892SOL    HW291510  13.054   6.963   9.679
29893SOL     OW91511   4.404   1.396   6.374
29893SOL    HW191512   4.321   1.433   6.402
29893SOL    HW291513   4.382   1.341   6.299
29894SOL     OW91514   8.952  10.779  12.455
29894SOL    HW191515   8.857  10.792  12.459
29894SOL    HW291516   8.966  10.731  12.373
29895SOL     OW91517  14.453   4.454  12.996
29895SOL    HW191518  14.486   4.534  12.955
29895SOL    HW291519  14.490   4.383  12.943
29896SOL     OW91520   3.952   1.405   6.719
29896SOL    HW191521   3.904   1.414   6.801
29896SOL    HW291522   3.888   1.372   6.656
29897SOL     OW91523   7.578  13.953   6.815
29897SOL    HW191524   7.614  13.923   6.732
29897SOL    HW291525   7.542  13.874   6.855
29898SOL     OW91526   6.248   5.466   7.227
29898SOL    HW191527   6.336   5.496   7.249
29898SOL    HW291528   6.190   5.530   7.267
29899SOL     OW91529   5.011  14.508  10.312
29899SOL    HW191530   5.001  14.432  10.369
29899SOL    HW291531   5.082  14.558  10.352
29900SOL     OW91532   8.987   3.733   5.560
29900SOL    HW191533   9.003   3.641   5.538
29900SOL    HW291534   8.938   3.767   5.485
29901SOL     OW91535  13.646   0.554   4.329
29901SOL    HW191536  13.727   0.606   4.323
29901SOL    HW291537  13.642   0.508   4.245
29902SOL     OW91538  11.027   9.906  14.406
29902SOL    HW191539  10.952   9.950  14.367
29902SOL    HW291540  11.014   9.813  14.385
29903SOL     OW91541  10.030   2.611   3.997
29903SOL    HW191542  10.067   2.552   4.063
29903SOL    HW291543   9.943   2.577   3.980
29904SOL     OW91544   6.613   6.130   2.221
29904SOL    HW191545   6.612   6.035   2.211
29904SOL    HW291546   6.676   6.145   2.292
29905SOL     OW91547  12.176   8.603   2.944
29905SOL    HW191548  12.193   8.634   2.855
29905SOL    HW291549  12.244   8.538   2.960
29906SOL     OW91550  11.616  14.749   2.140
29906SOL    HW191551  11.635  14.842   2.124
29906SOL    HW291552  11.582  14.747   2.230
29907SOL     OW91553   8.059  12.311  11.185
29907SOL    HW191554   8.032  12.223  11.212
29907SOL    HW291555   8.150  12.317  11.212
29908SOL     OW91556   6.054   9.080   4.894
29908SOL    HW191557   6.095   9.150   4.944
29908SOL    HW291558   6.069   9.001   4.946
29909SOL     OW91559   6.029   9.651   4.119
29909SOL    HW191560   6.033   9.630   4.026
29909SOL    HW291561   6.119   9.675   4.142
29910SOL     OW91562  13.694   2.567  13.867
29910SOL    HW191563  13.678   2.475  13.847
29910SOL    HW291564  13.773   2.566  13.921
29911SOL     OW91565   4.930  10.059  14.714
29911SOL    HW191566   4.871   9.999  14.760
29911SOL    HW291567   5.009  10.007  14.697
29912SOL     OW91568  11.038  11.194   6.315
29912SOL    HW191569  10.977  11.146   6.371
29912SOL    HW291570  11.017  11.286   6.330
29913SOL     OW91571   1.279   9.390   3.691
29913SOL    HW191572   1.272   9.379   3.785
29913SOL    HW291573   1.194   9.361   3.657
29914SOL     OW91574   9.851   9.207   2.376
29914SOL    HW191575   9.920   9.222   2.311
29914SOL    HW291576   9.826   9.116   2.363
29915SOL     OW91577   1.859   6.074   8.783
29915SOL    HW191578   1.803   6.000   8.757
29915SOL    HW291579   1.907   6.096   8.703
29916SOL     OW91580   3.864   3.427   4.561
29916SOL    HW191581   3.793   3.409   4.499
29916SOL    HW291582   3.929   3.358   4.543
29917SOL     OW91583   0.676  11.932  13.730
29917SOL    HW191584   0.741  11.999  13.754
29917SOL    HW291585   0.609  11.981  13.683
29918SOL     OW91586  10.998   6.586   6.603
29918SOL    HW191587  11.069   6.526   6.580
29918SOL    HW291588  10.946   6.539   6.668
29919SOL     OW91589   6.064   5.392  11.604
29919SOL    HW191590   6.046   5.486  11.614
29919SOL    HW291591   6.155   5.389  11.573
29920SOL     OW91592  14.302   7.499   0.106
29920SOL    HW191593  14.245   7.500   0.029
29920SOL    HW291594  14.265   7.565   0.165
29921SOL     OW91595   8.501   5.384   8.626
29921SOL    HW191596   8.459   5.439   8.693
29921SOL    HW291597   8.435   5.319   8.603
29922SOL     OW91598  12.042   0.004  12.760
29922SOL    HW191599  11.972   0.067  12.777
29922SOL    HW291600  12.001  14.814  12.708
29923SOL     OW91601   4.180  11.034  10.115
29923SOL    HW191602   4.264  11.025  10.159
29923SOL    HW291603   4.203  11.056  10.024
29924SOL     OW91604  11.053   6.846   7.419
29924SOL    HW191605  11.002   6.851   7.499
29924SOL    HW291606  11.143   6.829   7.449
29925SOL     OW91607  11.355   8.165  14.025
29925SOL    HW191608  11.362   8.121  14.109
29925SOL    HW291609  11.371   8.258  14.044
29926SOL     OW91610   2.618  10.769   4.444
29926SOL    HW191611   2.591  10.816   4.365
29926SOL    HW291612   2.560  10.802   4.513
29927SOL     OW91613   6.274  14.823   1.964
29927SOL    HW191614   6.290   0.005   1.891
29927SOL    HW291615   6.225  14.875   2.027
29928SOL     OW91616  14.390   1.572  14.351
29928SOL    HW191617  14.379   1.477  14.357
29928SOL    HW291618  14.318   1.609  14.401
29929SOL     OW91619   3.506  12.574   4.916
29929SOL    HW191620   3.497  12.481   4.896
29929SOL    HW291621   3.519  12.616   4.831
29930SOL     OW91622   2.092   2.479  14.169
29930SOL    HW191623   2.127   2.442  14.250
29930SOL    HW291624   2.009   2.434  14.155
29931SOL     OW91625   1.578  14.094  13.655
29931SOL    HW191626   1.586  14.186  13.630
29931SOL    HW291627   1.484  14.080  13.668
29932SOL     OW91628   8.020  13.008   8.196
29932SOL    HW191629   8.027  13.056   8.114
29932SOL    HW291630   7.944  13.047   8.240
29933SOL     OW91631   7.123   1.755   1.472
29933SOL    HW191632   7.044   1.702   1.475
29933SOL    HW291633   7.190   1.701   1.515
29934SOL     OW91634   9.321   1.434  12.890
29934SOL    HW191635   9.304   1.524  12.918
29934SOL    HW291636   9.393   1.441  12.828
29935SOL     OW91637   6.588   5.586   6.240
29935SOL    HW191638   6.507   5.543   6.265
29935SOL    HW291639   6.655   5.546   6.296
29936SOL     OW91640   4.271   5.698   1.449
29936SOL    HW191641   4.358   5.672   1.479
29936SOL    HW291642   4.249   5.633   1.381
29937SOL     OW91643   9.693   9.284   4.341
29937SOL    HW191644   9.763   9.223   4.365
29937SOL    HW291645   9.729   9.370   4.363
29938SOL     OW91646   1.475   3.852   5.411
29938SOL    HW191647   1.547   3.853   5.347
29938SOL    HW291648   1.515   3.819   5.491
29939SOL     OW91649  14.193   7.241   0.254
29939SOL    HW191650  14.204   7.288   0.171
29939SOL    HW291651  14.259   7.171   0.250
29940SOL     OW91652  11.290   4.508   4.063
29940SOL    HW191653  11.235   4.586   4.062
29940SOL    HW291654  11.240   4.443   4.112
29941SOL     OW91655   1.003  11.825  13.886
29941SOL    HW191656   0.946  11.750  13.875
29941SOL    HW291657   0.985  11.858  13.974
29942SOL     OW91658  11.085  14.395  11.692
29942SOL    HW191659  11.054  14.319  11.643
29942SOL    HW291660  11.180  14.385  11.694
29943SOL     OW91661   5.101   6.651   7.156
29943SOL    HW191662   5.049   6.651   7.237
29943SOL    HW291663   5.186   6.687   7.182
29944SOL     OW91664   1.176  13.351   5.206
29944SOL    HW191665   1.139  13.370   5.292
29944SOL    HW291666   1.222  13.268   5.218
29945SOL     OW91667   6.936  10.903   2.999
29945SOL    HW191668   6.891  10.986   3.016
29945SOL    HW291669   6.968  10.875   3.085
29946SOL     OW91670   8.277   7.238   5.197
29946SOL    HW191671   8.261   7.276   5.284
29946SOL    HW291672   8.358   7.280   5.167
29947SOL     OW91673  14.696   0.333   4.380
29947SOL    HW191674  14.754   0.307   4.452
29947SOL    HW291675  14.648   0.409   4.413
29948SOL     OW91676   8.416  10.637   6.778
29948SOL    HW191677   8.344  10.683   6.736
29948SOL    HW291678   8.489  10.643   6.716
29949SOL     OW91679   0.067   1.045   6.013
29949SOL    HW191680   0.093   1.097   6.090
29949SOL    HW291681   0.128   0.971   6.013
29950SOL     OW91682   0.335   0.721  10.403
29950SOL    HW191683   0.402   0.694  10.339
29950SOL    HW291684   0.366   0.684  10.486
29951SOL     OW91685  11.892   4.124  12.352
29951SOL    HW191686  11.979   4.118  12.393
29951SOL    HW291687  11.862   4.212  12.374
29952SOL     OW91688   5.275  14.054  12.703
29952SOL    HW191689   5.245  14.136  12.743
29952SOL    HW291690   5.214  13.988  12.737
29953SOL     OW91691  12.582   3.727   1.591
29953SOL    HW191692  12.522   3.661   1.625
29953SOL    HW291693  12.535   3.810   1.601
29954SOL     OW91694   0.445   5.223   8.566
29954SOL    HW191695   0.461   5.272   8.486
29954SOL    HW291696   0.370   5.167   8.547
29955SOL     OW91697   7.171   3.393   7.140
29955SOL    HW191698   7.172   3.488   7.151
29955SOL    HW291699   7.264   3.368   7.142
29956SOL     OW91700  13.723   5.860  13.999
29956SOL    HW191701  13.744   5.890  14.087
29956SOL    HW291702  13.729   5.939  13.944
29957SOL     OW91703   7.819   6.765   4.817
29957SOL    HW191704   7.854   6.832   4.875
29957SOL    HW291705   7.861   6.783   4.733
29958SOL     OW91706   5.752   4.417   5.434
29958SOL    HW191707   5.718   4.451   5.517
29958SOL    HW291708   5.707   4.469   5.367
29959SOL     OW91709   8.025   4.906   0.376
29959SOL    HW191710   8.084   4.972   0.339
29959SOL    HW291711   7.938   4.933   0.347
29960SOL     OW91712   1.046   3.259   3.087
29960SOL    HW191713   1.123   3.216   3.127
29960SOL    HW291714   1.069   3.352   3.086
29961SOL     OW91715   5.484  12.188   4.971
29961SOL    HW191716   5.529  12.215   5.050
29961SOL    HW291717   5.476  12.093   4.980
29962SOL     OW91718   6.574  12.798  11.637
29962SOL    HW191719   6.572  12.826  11.728
29962SOL    HW291720   6.663  12.816  11.608
29963SOL     OW91721   7.715  11.669   8.055
29963SOL    HW191722   7.667  11.641   8.133
29963SOL    HW291723   7.754  11.753   8.079
29964SOL     OW91724  10.464   6.115   3.321
29964SOL    HW191725  10.541   6.070   3.357
29964SOL    HW291726  10.438   6.177   3.389
29965SOL     OW91727   9.690   5.770  10.504
29965SOL    HW191728   9.707   5.691  10.453
29965SOL    HW291729   9.769   5.782  10.557
29966SOL     OW91730  11.362   2.607   1.435
29966SOL    HW191731  11.273   2.576   1.418
29966SOL    HW291732  11.380   2.577   1.524
29967SOL     OW91733  13.251   0.331   5.544
29967SOL    HW191734  13.201   0.318   5.625
29967SOL    HW291735  13.308   0.405   5.563
29968SOL     OW91736   2.436   3.695   8.249
29968SOL    HW191737   2.444   3.667   8.158
29968SOL    HW291738   2.522   3.677   8.287
29969SOL     OW91739   7.513   5.050  12.819
29969SOL    HW191740   7.523   5.145  12.828
29969SOL    HW291741   7.587   5.013  12.868
29970SOL     OW91742   6.787   1.370  13.241
29970SOL    HW191743   6.838   1.434  13.192
29970SOL    HW291744   6.778   1.409  13.328
29971SOL     OW91745   6.892  14.061  13.766
29971SOL    HW191746   6.977  14.066  13.810
29971SOL    HW291747   6.829  14.085  13.834
29972SOL     OW91748  11.891  11.847  11.569
29972SOL    HW191749  11.878  11.797  11.489
29972SOL    HW291750  11.904  11.937  11.540
29973SOL     OW91751  11.801   4.748   4.503
29973SOL    HW191752  11.770   4.701   4.580
29973SOL    HW291753  11.741   4.722   4.433
29974SOL     OW91754  13.526   8.839  12.135
29974SOL    HW191755  13.580   8.821  12.058
29974SOL    HW291756  13.590   8.852  12.206
29975SOL     OW91757  12.049   7.939   1.782
29975SOL    HW191758  12.117   7.954   1.716
29975SOL    HW291759  12.018   7.850   1.765
29976SOL     OW91760   2.375  11.423   1.485
29976SOL    HW191761   2.317  11.497   1.468
29976SOL    HW291762   2.436  11.456   1.552
29977SOL     OW91763   9.325   9.096   6.867
29977SOL    HW191764   9.298   9.187   6.882
29977SOL    HW291765   9.272   9.045   6.928
29978SOL     OW91766   0.210   5.817   3.051
29978SOL    HW191767   0.160   5.880   3.103
29978SOL    HW291768   0.176   5.828   2.962
29979SOL     OW91769   9.807   7.491   6.403
29979SOL    HW191770   9.788   7.504   6.310
29979SOL    HW291771   9.740   7.429   6.432
29980SOL     OW91772   6.825  10.918   1.768
29980SOL    HW191773   6.825  10.878   1.681
29980SOL    HW291774   6.864  11.004   1.755
29981SOL     OW91775   9.223   2.360  10.908
29981SOL    HW191776   9.270   2.320  10.835
29981SOL    HW291777   9.280   2.346  10.984
29982SOL     OW91778   8.568  12.200   7.901
29982SOL    HW191779   8.517  12.143   7.959
29982SOL    HW291780   8.504  12.229   7.836
29983SOL     OW91781   8.413   7.782  11.193
29983SOL    HW191782   8.413   7.723  11.118
29983SOL    HW291783   8.322   7.811  11.201
29984SOL     OW91784   0.623   9.395  11.227
29984SOL    HW191785   0.597   9.407  11.319
29984SOL    HW291786   0.564   9.453  11.178
29985SOL     OW91787   5.954   8.597  11.416
29985SOL    HW191788   6.025   8.658  11.401
29985SOL    HW291789   5.997   8.516  11.443
29986SOL     OW91790   9.572   8.610   7.593
29986SOL    HW191791   9.550   8.620   7.501
29986SOL    HW291792   9.651   8.662   7.605
29987SOL     OW91793  12.730   4.291   3.469
29987SOL    HW191794  12.664   4.314   3.534
29987SOL    HW291795  12.716   4.353   3.397
29988SOL     OW91796  11.780   6.407  13.703
29988SOL    HW191797  11.802   6.314  13.711
29988SOL    HW291798  11.847   6.452  13.755
29989SOL     OW91799   1.409  11.096   2.907
29989SOL    HW191800   1.399  11.026   2.844
29989SOL    HW291801   1.501  11.094   2.932
29990SOL     OW91802   9.258  14.504  14.818
29990SOL    HW191803   9.176  14.548  14.837
29990SOL    HW291804   9.235  14.435  14.756
29991SOL     OW91805   7.058   9.795   1.483
29991SOL    HW191806   7.062   9.836   1.397
29991SOL    HW291807   7.145   9.757   1.495
29992SOL     OW91808   3.398   5.253   6.763
29992SOL    HW191809   3.470   5.298   6.806
29992SOL    HW291810   3.434   5.225   6.679
29993SOL     OW91811   0.869   4.817  14.538
29993SOL    HW191812   0.796   4.775  14.582
29993SOL    HW291813   0.847   4.814  14.445
29994SOL     OW91814   3.553   3.727   2.935
29994SOL    HW191815   3.603   3.753   3.013
29994SOL    HW291816   3.569   3.632   2.928
29995SOL     OW91817   7.730   4.823   6.712
29995SOL    HW191818   7.642   4.859   6.722
29995SOL    HW291819   7.726   4.773   6.630
29996SOL     OW91820   6.074  12.861   4.201
29996SOL    HW191821   6.157  12.850   4.249
29996SOL    HW291822   6.087  12.810   4.120
29997SOL     OW91823  14.781   9.876   6.456
29997SOL    HW191824  14.706   9.847   6.508
29997SOL    HW291825  14.841   9.801   6.457
29998SOL     OW91826   8.489   5.843   4.358
29998SOL    HW191827   8.433   5.765   4.350
29998SOL    HW291828   8.435   5.915   4.325
29999SOL     OW91829   4.346   9.106  10.968
29999SOL    HW191830   4.411   9.048  11.009
29999SOL    HW291831   4.376   9.114  10.877
30000SOL     OW91832  14.663  13.051   5.540
30000SOL    HW191833  14.576  13.077   5.508
30000SOL    HW291834  14.714  13.131   5.536
30001SOL     OW91835  13.386   1.561  10.972
30001SOL    HW191836  13.446   1.489  10.992
30001SOL    HW291837  13.416   1.633  11.027
30002SOL     OW91838   1.480   8.628   0.809
30002SOL    HW191839   1.556   8.585   0.848
30002SOL    HW291840   1.411   8.618   0.874
30003SOL     OW91841  11.136   0.806  12.014
30003SOL    HW191842  11.066   0.830  12.075
30003SOL    HW291843  11.139   0.711  12.018
30004SOL     OW91844   2.839  10.462  12.797
30004SOL    HW191845   2.754  10.500  12.820
30004SOL    HW291846   2.897  10.489  12.869
30005SOL     OW91847   4.537   6.730  14.178
30005SOL    HW191848   4.560   6.680  14.100
30005SOL    HW291849   4.575   6.816  14.164
30006SOL     OW91850   3.465   4.628   4.303
30006SOL    HW191851   3.471   4.675   4.220
30006SOL    HW291852   3.422   4.545   4.281
30007SOL     OW91853  10.307   9.477   5.007
30007SOL    HW191854  10.364   9.401   4.994
30007SOL    HW291855  10.226   9.454   4.962
30008SOL     OW91856   5.660   3.399   7.006
30008SOL    HW191857   5.717   3.360   7.072
30008SOL    HW291858   5.627   3.479   7.047
30009SOL     OW91859  13.130   1.239  13.756
30009SOL    HW191860  13.125   1.306  13.824
30009SOL    HW291861  13.040   1.209  13.744
30010SOL     OW91862   6.837  14.378   6.718
30010SOL    HW191863   6.784  14.456   6.740
30010SOL    HW291864   6.865  14.344   6.803
30011SOL     OW91865   0.576   3.970   7.458
30011SOL    HW191866   0.532   3.935   7.536
30011SOL    HW291867   0.669   3.960   7.477
30012SOL     OW91868   4.369  13.414   8.740
30012SOL    HW191869   4.397  13.486   8.683
30012SOL    HW291870   4.305  13.454   8.799
30013SOL     OW91871   9.997  11.496   2.342
30013SOL    HW191872  10.059  11.442   2.392
30013SOL    HW291873   9.916  11.444   2.342
30014SOL     OW91874   8.203   6.608   7.119
30014SOL    HW191875   8.184   6.666   7.045
30014SOL    HW291876   8.174   6.657   7.196
30015SOL     OW91877  13.368  10.861   1.645
30015SOL    HW191878  13.298  10.852   1.709
30015SOL    HW291879  13.427  10.788   1.664
30016SOL     OW91880  11.825   8.307   2.531
30016SOL    HW191881  11.789   8.271   2.450
30016SOL    HW291882  11.919   8.290   2.525
30017SOL     OW91883   7.299  12.265   3.342
30017SOL    HW191884   7.229  12.329   3.327
30017SOL    HW291885   7.362  12.282   3.272
30018SOL     OW91886   0.835   8.377  13.351
30018SOL    HW191887   0.902   8.311  13.333
30018SOL    HW291888   0.775   8.333  13.412
30019SOL     OW91889   9.997   4.986   4.850
30019SOL    HW191890  10.041   4.955   4.771
30019SOL    HW291891   9.907   5.002   4.822
30020SOL     OW91892   6.196  12.750  14.644
30020SOL    HW191893   6.109  12.739  14.604
30020SOL    HW291894   6.236  12.663  14.638
30021SOL     OW91895   6.487  13.502  14.678
30021SOL    HW191896   6.462  13.546  14.596
30021SOL    HW291897   6.421  13.433  14.689
30022SOL     OW91898   3.497   8.937  11.378
30022SOL    HW191899   3.492   9.031  11.363
30022SOL    HW291900   3.407   8.911  11.398
30023SOL     OW91901   0.598  12.749  11.016
30023SOL    HW191902   0.636  12.812  11.078
30023SOL    HW291903   0.659  12.675  11.017
30024SOL     OW91904   8.174  11.762   6.054
30024SOL    HW191905   8.212  11.790   5.971
30024SOL    HW291906   8.080  11.762   6.039
30025SOL     OW91907   2.306   6.668   5.489
30025SOL    HW191908   2.216   6.636   5.491
30025SOL    HW291909   2.360   6.589   5.485
30026SOL     OW91910   3.478   9.671   5.030
30026SOL    HW191911   3.408   9.733   5.014
30026SOL    HW291912   3.438   9.602   5.084
30027SOL     OW91913  12.256  13.929  10.667
30027SOL    HW191914  12.195  13.858  10.649
30027SOL    HW291915  12.313  13.896  10.736
30028SOL     OW91916   7.037  14.340   8.525
30028SOL    HW191917   6.979  14.264   8.517
30028SOL    HW291918   6.987  14.413   8.489
30029SOL     OW91919   0.844   6.783   2.354
30029SOL    HW191920   0.877   6.863   2.394
30029SOL    HW291921   0.921   6.727   2.341
30030SOL     OW91922   3.715   6.035   7.553
30030SOL    HW191923   3.659   6.097   7.599
30030SOL    HW291924   3.793   6.085   7.530
30031SOL     OW91925   0.978  13.840   0.791
30031SOL    HW191926   0.951  13.760   0.745
30031SOL    HW291927   0.899  13.893   0.792
30032SOL     OW91928   7.486   0.181   8.199
30032SOL    HW191929   7.463   0.273   8.186
30032SOL    HW291930   7.497   0.173   8.294
30033SOL     OW91931   8.897   3.171   3.885
30033SOL    HW191932   8.935   3.092   3.924
30033SOL    HW291933   8.817   3.140   3.842
30034SOL     OW91934   1.206   6.250   3.120
30034SOL    HW191935   1.126   6.274   3.074
30034SOL    HW291936   1.200   6.155   3.133
30035SOL     OW91937   4.561   3.919   5.533
30035SOL    HW191938   4.592   3.871   5.609
30035SOL    HW291939   4.472   3.947   5.555
30036SOL     OW91940   4.948   3.132   5.016
30036SOL    HW191941   5.007   3.094   5.082
30036SOL    HW291942   4.911   3.209   5.059
30037SOL     OW91943  12.134   6.645  12.533
30037SOL    HW191944  12.124   6.740  12.545
30037SOL    HW291945  12.124   6.609  12.620
30038SOL     OW91946   7.057   9.783   9.615
30038SOL    HW191947   7.090   9.693   9.621
30038SOL    HW291948   6.990   9.788   9.683
30039SOL     OW91949   0.842   2.168  14.704
30039SOL    HW191950   0.803   2.255  14.716
30039SOL    HW291951   0.936   2.184  14.698
30040SOL     OW91952   6.412   8.328  11.397
30040SOL    HW191953   6.493   8.372  11.426
30040SOL    HW291954   6.425   8.236  11.421
30041SOL     OW91955   7.402  13.040   9.698
30041SOL    HW191956   7.403  12.996   9.783
30041SOL    HW291957   7.402  13.133   9.719
30042SOL     OW91958   2.058   9.656   6.103
30042SOL    HW191959   2.105   9.591   6.156
30042SOL    HW291960   2.126   9.714   6.070
30043SOL     OW91961  14.259   1.508  10.684
30043SOL    HW191962  14.178   1.560  10.681
30043SOL    HW291963  14.329   1.573  10.673
30044SOL     OW91964   7.639   3.431  11.882
30044SOL    HW191965   7.682   3.349  11.861
30044SOL    HW291966   7.692   3.498  11.838
30045SOL     OW91967  10.546   1.719   8.178
30045SOL    HW191968  10.491   1.719   8.256
30045SOL    HW291969  10.534   1.632   8.140
30046SOL     OW91970   0.237  12.958  13.781
30046SOL    HW191971   0.272  12.869  13.790
30046SOL    HW291972   0.308  13.015  13.813
30047SOL     OW91973   8.245   5.181   7.661
30047SOL    HW191974   8.270   5.189   7.569
30047SOL    HW291975   8.293   5.104   7.692
30048SOL     OW91976   6.072   5.326   7.508
30048SOL    HW191977   6.091   5.407   7.460
30048SOL    HW291978   6.118   5.338   7.592
30049SOL     OW91979  12.633   5.775   2.670
30049SOL    HW191980  12.697   5.717   2.712
30049SOL    HW291981  12.617   5.844   2.734
30050SOL     OW91982  14.150   2.679  14.089
30050SOL    HW191983  14.140   2.704  13.997
30050SOL    HW291984  14.214   2.741  14.123
30051SOL     OW91985   4.737   4.097   0.524
30051SOL    HW191986   4.703   4.041   0.455
30051SOL    HW291987   4.823   4.124   0.493
30052SOL     OW91988   9.804  12.826  14.071
30052SOL    HW191989   9.770  12.869  13.993
30052SOL    HW291990   9.740  12.758  14.092
30053SOL     OW91991   5.727   0.859  11.784
30053SOL    HW191992   5.702   0.900  11.868
30053SOL    HW291993   5.644   0.847  11.739
30054SOL     OW91994   2.154   2.433   9.851
30054SOL    HW191995   2.066   2.407   9.824
30054SOL    HW291996   2.140   2.509   9.908
30055SOL     OW91997  13.897   7.204   7.923
30055SOL    HW191998  13.902   7.221   8.017
30055SOL    HW291999  13.971   7.253   7.886
30056SOL     OW92000  10.410  10.878   8.278
30056SOL    HW192001  10.342  10.933   8.238
30056SOL    HW292002  10.456  10.841   8.203
30057SOL     OW92003   5.933  14.831   0.020
30057SOL    HW192004   6.024  14.850  14.876
30057SOL    HW292005   5.919  14.876   0.103
30058SOL     OW92006   8.761   3.013  10.257
30058SOL    HW192007   8.668   3.001  10.274
30058SOL    HW292008   8.804   2.990  10.340
30059SOL     OW92009   1.117   2.913  12.509
30059SOL    HW192010   1.208   2.885  12.519
30059SOL    HW292011   1.075   2.886  12.590
30060SOL     OW92012  10.706   8.781  10.352
30060SOL    HW192013  10.703   8.704  10.294
30060SOL    HW292014  10.616   8.789  10.384
30061SOL     OW92015   2.604   6.984   5.446
30061SOL    HW192016   2.600   6.890   5.463
30061SOL    HW292017   2.516   7.006   5.413
30062SOL     OW92018   2.626   6.626   5.785
30062SOL    HW192019   2.659   6.648   5.698
30062SOL    HW292020   2.581   6.705   5.814
30063SOL     OW92021   5.293   7.580   6.595
30063SOL    HW192022   5.350   7.534   6.533
30063SOL    HW292023   5.226   7.621   6.540
30064SOL     OW92024   2.773   6.507  12.679
30064SOL    HW192025   2.741   6.541  12.595
30064SOL    HW292026   2.863   6.538  12.685
30065SOL     OW92027  11.503  14.372  10.030
30065SOL    HW192028  11.569  14.387  10.098
30065SOL    HW292029  11.467  14.286  10.050
30066SOL     OW92030  13.310   5.421  14.665
30066SOL    HW192031  13.229   5.387  14.703
30066SOL    HW292032  13.370   5.429  14.739
30067SOL     OW92033   5.731  14.053   9.043
30067SOL    HW192034   5.656  14.010   9.086
30067SOL    HW292035   5.710  14.050   8.950
30068SOL     OW92036   7.230   5.778   1.544
30068SOL    HW192037   7.283   5.854   1.519
30068SOL    HW292038   7.168   5.813   1.607
30069SOL     OW92039   4.015  14.666  10.216
30069SOL    HW192040   4.072  14.731  10.174
30069SOL    HW292041   4.074  14.594  10.238
30070SOL     OW92042  14.434   9.010   1.109
30070SOL    HW192043  14.357   8.977   1.154
30070SOL    HW292044  14.443   9.100   1.141
30071SOL     OW92045  12.058   4.191   4.163
30071SOL    HW192046  12.149   4.167   4.146
30071SOL    HW292047  12.061   4.284   4.184
30072SOL     OW92048   5.146  13.051   5.812
30072SOL    HW192049   5.218  13.037   5.750
30072SOL    HW292050   5.110  13.136   5.787
30073SOL     OW92051   7.195  14.748   0.760
30073SOL    HW192052   7.152  14.819   0.712
30073SOL    HW292053   7.124  14.708   0.811
30074SOL     OW92054   2.069   2.426  10.791
30074SOL    HW192055   2.004   2.493  10.812
30074SOL    HW292056   2.018   2.349  10.768
30075SOL     OW92057   3.119   7.119   8.612
30075SOL    HW192058   3.097   7.209   8.638
30075SOL    HW292059   3.109   7.119   8.517
30076SOL     OW92060   3.301   9.186   0.410
30076SOL    HW192061   3.223   9.206   0.460
30076SOL    HW292062   3.355   9.134   0.470
30077SOL     OW92063   2.073   7.311  11.562
30077SOL    HW192064   2.133   7.295  11.635
30077SOL    HW292065   2.103   7.253  11.493
30078SOL     OW92066   4.628  12.832   7.949
30078SOL    HW192067   4.664  12.920   7.955
30078SOL    HW292068   4.635  12.810   7.856
30079SOL     OW92069   8.816  12.694   3.577
30079SOL    HW192070   8.892  12.691   3.634
30079SOL    HW292071   8.831  12.625   3.513
30080SOL     OW92072  13.299   1.865   9.866
30080SOL    HW192073  13.320   1.865   9.772
30080SOL    HW292074  13.274   1.775   9.884
30081SOL     OW92075   6.073   9.715  14.759
30081SOL    HW192076   6.051   9.725  14.851
30081SOL    HW292077   6.060   9.622  14.740
30082SOL     OW92078   9.577  10.611  14.023
30082SOL    HW192079   9.612  10.665  13.952
30082SOL    HW292080   9.648  10.551  14.045
30083SOL     OW92081  11.683   3.302   2.865
30083SOL    HW192082  11.641   3.281   2.782
30083SOL    HW292083  11.674   3.397   2.873
30084SOL     OW92084  11.348  13.138   8.577
30084SOL    HW192085  11.397  13.162   8.656
30084SOL    HW292086  11.293  13.065   8.605
30085SOL     OW92087  14.224   6.274   8.373
30085SOL    HW192088  14.262   6.362   8.376
30085SOL    HW292089  14.191   6.265   8.283
30086SOL     OW92090   8.503   5.342  14.662
30086SOL    HW192091   8.419   5.348  14.706
30086SOL    HW292092   8.509   5.252  14.632
30087SOL     OW92093  13.373   8.619   8.588
30087SOL    HW192094  13.297   8.564   8.609
30087SOL    HW292095  13.432   8.607   8.663
30088SOL     OW92096   4.090   3.271   5.337
30088SOL    HW192097   4.008   3.221   5.337
30088SOL    HW292098   4.085   3.324   5.416
30089SOL     OW92099  14.816   6.962   4.325
30089SOL    HW192100   0.030   6.968   4.349
30089SOL    HW292101  14.771   7.007   4.396
30090SOL     OW92102  12.670   7.869   4.697
30090SOL    HW192103  12.673   7.827   4.783
30090SOL    HW292104  12.713   7.954   4.711
30091SOL     OW92105  13.234   6.736  12.457
30091SOL    HW192106  13.157   6.720  12.510
30091SOL    HW292107  13.298   6.773  12.519
30092SOL     OW92108  10.715   0.677   0.687
30092SOL    HW192109  10.792   0.650   0.736
30092SOL    HW292110  10.702   0.609   0.622
30093SOL     OW92111   4.301   9.285   9.008
30093SOL    HW192112   4.347   9.213   9.051
30093SOL    HW292113   4.240   9.319   9.074
30094SOL     OW92114   0.441   5.919   5.874
30094SOL    HW192115   0.523   5.906   5.922
30094SOL    HW292116   0.409   6.004   5.903
30095SOL     OW92117   5.526   2.508  10.953
30095SOL    HW192118   5.583   2.583  10.976
30095SOL    HW292119   5.554   2.484  10.865
30096SOL     OW92120   0.499   6.512   4.763
30096SOL    HW192121   0.405   6.512   4.749
30096SOL    HW292122   0.537   6.533   4.678
30097SOL     OW92123  12.476   8.524   3.886
30097SOL    HW192124  12.466   8.601   3.941
30097SOL    HW292125  12.405   8.531   3.822
30098SOL     OW92126   3.310   1.670   3.301
30098SOL    HW192127   3.352   1.637   3.222
30098SOL    HW292128   3.353   1.754   3.318
30099SOL     OW92129   9.661   5.709   0.966
30099SOL    HW192130   9.682   5.689   1.058
30099SOL    HW292131   9.570   5.736   0.968
30100SOL     OW92132  14.571  14.141   4.210
30100SOL    HW192133  14.504  14.185   4.262
30100SOL    HW292134  14.566  14.182   4.124
30101SOL     OW92135   6.024   8.437   0.761
30101SOL    HW192136   6.064   8.369   0.708
30101SOL    HW292137   6.007   8.395   0.845
30102SOL     OW92138  11.693   7.983  10.882
30102SOL    HW192139  11.625   8.008  10.945
30102SOL    HW292140  11.663   7.900  10.846
30103SOL     OW92141   9.823  11.297  12.027
30103SOL    HW192142   9.824  11.339  12.113
30103SOL    HW292143   9.850  11.366  11.966
30104SOL     OW92144  13.939  10.080   3.228
30104SOL    HW192145  13.917   9.987   3.229
30104SOL    HW292146  14.034  10.082   3.243
30105SOL     OW92147   7.604   6.936   8.427
30105SOL    HW192148   7.540   6.958   8.494
30105SOL    HW292149   7.682   6.988   8.450
30106SOL     OW92150   3.177   2.112  11.160
30106SOL    HW192151   3.091   2.071  11.170
30106SOL    HW292152   3.200   2.096  11.068
30107SOL     OW92153   7.938  11.746   0.098
30107SOL    HW192154   7.886  11.683   0.147
30107SOL    HW292155   8.013  11.764   0.155
30108SOL     OW92156   1.100   1.836   7.713
30108SOL    HW192157   1.187   1.798   7.730
30108SOL    HW292158   1.043   1.793   7.777
30109SOL     OW92159  11.430  10.971   2.773
30109SOL    HW192160  11.513  10.925   2.786
30109SOL    HW292161  11.446  11.031   2.700
30110SOL     OW92162   2.810  10.703   1.811
30110SOL    HW192163   2.746  10.636   1.786
30110SOL    HW292164   2.891  10.676   1.769
30111SOL     OW92165   1.412   9.096   6.766
30111SOL    HW192166   1.354   9.117   6.693
30111SOL    HW292167   1.357   9.045   6.826
30112SOL     OW92168  14.673   1.873  12.527
30112SOL    HW192169  14.607   1.931  12.489
30112SOL    HW292170  14.751   1.887  12.473
30113SOL     OW92171  14.333   1.934  11.168
30113SOL    HW192172  14.339   1.854  11.220
30113SOL    HW292173  14.292   1.998  11.226
30114SOL     OW92174  11.483   0.382   4.745
30114SOL    HW192175  11.558   0.364   4.802
30114SOL    HW292176  11.448   0.465   4.778
30115SOL     OW92177   2.663   6.542   1.936
30115SOL    HW192178   2.625   6.455   1.935
30115SOL    HW292179   2.688   6.557   2.027
30116SOL     OW92180   2.339  12.529   8.648
30116SOL    HW192181   2.431  12.553   8.633
30116SOL    HW292182   2.319  12.562   8.736
30117SOL     OW92183   0.800   4.568   5.456
30117SOL    HW192184   0.723   4.523   5.490
30117SOL    HW292185   0.870   4.543   5.516
30118SOL     OW92186   0.855   9.530  12.335
30118SOL    HW192187   0.943   9.543  12.298
30118SOL    HW292188   0.868   9.533  12.429
30119SOL     OW92189  12.810   4.278  11.325
30119SOL    HW192190  12.902   4.300  11.313
30119SOL    HW292191  12.763   4.356  11.298
30120SOL     OW92192  10.382   5.373  11.992
30120SOL    HW192193  10.296   5.402  12.024
30120SOL    HW292194  10.377   5.385  11.897
30121SOL     OW92195  11.781   6.382   5.128
30121SOL    HW192196  11.776   6.337   5.212
30121SOL    HW292197  11.720   6.335   5.071
30122SOL     OW92198   3.021   7.750  14.050
30122SOL    HW192199   3.093   7.693  14.023
30122SOL    HW292200   3.044   7.777  14.139
30123SOL     OW92201   3.075   0.774   4.447
30123SOL    HW192202   3.154   0.811   4.487
30123SOL    HW292203   3.107   0.732   4.367
30124SOL     OW92204   1.351  13.216   2.815
30124SOL    HW192205   1.314  13.286   2.762
30124SOL    HW292206   1.426  13.256   2.859
30125SOL     OW92207   8.473   9.368  10.702
30125SOL    HW192208   8.407   9.410  10.647
30125SOL    HW292209   8.551   9.423  10.693
30126SOL     OW92210   3.122   8.275   9.310
30126SOL    HW192211   3.032   8.307   9.314
30126SOL    HW292212   3.120   8.204   9.247
30127SOL     OW92213  12.432   3.912   3.634
30127SOL    HW192214  12.517   3.881   3.663
30127SOL    HW292215  12.370   3.880   3.700
30128SOL     OW92216   9.685  11.369   9.209
30128SOL    HW192217   9.779  11.389   9.208
30128SOL    HW292218   9.655  11.401   9.293
30129SOL     OW92219  11.779   3.786   5.429
30129SOL    HW192220  11.843   3.825   5.489
30129SOL    HW292221  11.819   3.702   5.404
30130SOL     OW92222   0.250   6.296  14.254
30130SOL    HW192223   0.217   6.305  14.164
30130SOL    HW292224   0.248   6.385  14.290
30131SOL     OW92225   0.743   3.428   3.552
30131SOL    HW192226   0.701   3.424   3.638
30131SOL    HW292227   0.802   3.353   3.550
30132SOL     OW92228   5.954   6.490   7.497
30132SOL    HW192229   5.861   6.502   7.520
30132SOL    HW292230   5.956   6.405   7.454
30133SOL     OW92231   9.191   3.252  14.664
30133SOL    HW192232   9.109   3.207  14.681
30133SOL    HW292233   9.165   3.332  14.617
30134SOL     OW92234   5.216   2.738  14.003
30134SOL    HW192235   5.122   2.736  13.989
30134SOL    HW292236   5.231   2.817  14.056
30135SOL     OW92237  14.211  12.533   5.800
30135SOL    HW192238  14.154  12.595   5.755
30135SOL    HW292239  14.278  12.511   5.735
30136SOL     OW92240   3.143   5.337   0.253
30136SOL    HW192241   3.106   5.282   0.184
30136SOL    HW292242   3.218   5.380   0.212
30137SOL     OW92243   8.618   7.032   7.913
30137SOL    HW192244   8.561   7.095   7.869
30137SOL    HW292245   8.558   6.966   7.948
30138SOL     OW92246  13.606   6.945   1.340
30138SOL    HW192247  13.580   7.025   1.385
30138SOL    HW292248  13.691   6.922   1.377
30139SOL     OW92249   0.637   2.518   2.785
30139SOL    HW192250   0.637   2.489   2.877
30139SOL    HW292251   0.582   2.596   2.785
30140SOL     OW92252   1.275   3.585   2.823
30140SOL    HW192253   1.339   3.628   2.766
30140SOL    HW292254   1.299   3.612   2.911
30141SOL     OW92255   4.134   2.290   3.625
30141SOL    HW192256   4.081   2.367   3.606
30141SOL    HW292257   4.086   2.246   3.695
30142SOL     OW92258  11.649  14.737   1.683
30142SOL    HW192259  11.660  14.645   1.660
30142SOL    HW292260  11.573  14.738   1.741
30143SOL     OW92261   9.883   5.991  10.246
30143SOL    HW192262   9.975   5.984  10.220
30143SOL    HW292263   9.886   6.001  10.341
30144SOL     OW92264  11.047   7.608  10.667
30144SOL    HW192265  10.968   7.572  10.626
30144SOL    HW292266  11.045   7.701  10.642
30145SOL     OW92267   1.570   1.131   6.626
30145SOL    HW192268   1.635   1.145   6.695
30145SOL    HW292269   1.497   1.187   6.651
30146SOL     OW92270   4.695  13.790   5.557
30146SOL    HW192271   4.698  13.862   5.494
30146SOL    HW292272   4.720  13.829   5.640
30147SOL     OW92273   2.860   3.137  14.832
30147SOL    HW192274   2.926   3.069  14.818
30147SOL    HW292275   2.889   3.210  14.778
30148SOL     OW92276  11.541   2.094  14.624
30148SOL    HW192277  11.483   2.166  14.651
30148SOL    HW292278  11.619   2.138  14.592
30149SOL     OW92279  11.870   8.867  14.634
30149SOL    HW192280  11.775   8.883  14.639
30149SOL    HW292281  11.897   8.906  14.551
30150SOL     OW92282   9.168   5.581   3.584
30150SOL    HW192283   9.199   5.493   3.606
30150SOL    HW292284   9.136   5.573   3.494
30151SOL     OW92285   2.334   3.533  11.130
30151SOL    HW192286   2.262   3.583  11.168
30151SOL    HW292287   2.294   3.449  11.107
30152SOL     OW92288   8.549   2.661   9.722
30152SOL    HW192289   8.557   2.751   9.753
30152SOL    HW292290   8.455   2.647   9.714
30153SOL     OW92291  11.063   0.052   5.838
30153SOL    HW192292  11.002   0.020   5.904
30153SOL    HW292293  11.106  14.853   5.805
30154SOL     OW92294   1.765   2.472   3.784
30154SOL    HW192295   1.750   2.567   3.788
30154SOL    HW292296   1.850   2.463   3.741
30155SOL     OW92297   0.402   2.567   7.815
30155SOL    HW192298   0.308   2.586   7.814
30155SOL    HW292299   0.407   2.472   7.824
30156SOL     OW92300   0.803   3.252   5.388
30156SOL    HW192301   0.852   3.170   5.395
30156SOL    HW292302   0.771   3.269   5.477
30157SOL     OW92303   8.205   9.465  14.191
30157SOL    HW192304   8.149   9.462  14.269
30157SOL    HW292305   8.178   9.545  14.146
30158SOL     OW92306   9.077   6.858  12.678
30158SOL    HW192307   9.077   6.861  12.773
30158SOL    HW292308   9.074   6.950  12.651
30159SOL     OW92309  11.994   4.050   8.558
30159SOL    HW192310  11.974   4.043   8.652
30159SOL    HW292311  11.927   4.108   8.523
30160SOL     OW92312  12.780  13.829  12.062
30160SOL    HW192313  12.864  13.864  12.093
30160SOL    HW292314  12.715  13.893  12.093
30161SOL     OW92315  12.260  12.147   0.900
30161SOL    HW192316  12.342  12.098   0.896
30161SOL    HW292317  12.237  12.148   0.993
30162SOL     OW92318  14.700   6.473   4.224
30162SOL    HW192319  14.769   6.434   4.170
30162SOL    HW292320  14.627   6.412   4.219
30163SOL     OW92321   0.835   7.122   9.281
30163SOL    HW192322   0.914   7.144   9.231
30163SOL    HW292323   0.796   7.049   9.232
30164SOL     OW92324  12.357  11.055   1.560
30164SOL    HW192325  12.311  11.136   1.542
30164SOL    HW292326  12.365  11.012   1.475
30165SOL     OW92327  13.840   1.582   5.808
30165SOL    HW192328  13.815   1.569   5.900
30165SOL    HW292329  13.787   1.657   5.779
30166SOL     OW92330   7.634   5.606   5.048
30166SOL    HW192331   7.618   5.561   5.130
30166SOL    HW292332   7.671   5.691   5.073
30167SOL     OW92333   0.137  12.442   8.154
30167SOL    HW192334   0.169  12.530   8.131
30167SOL    HW292335   0.053  12.435   8.109
30168SOL     OW92336   9.862   2.233   6.869
30168SOL    HW192337   9.940   2.186   6.899
30168SOL    HW292338   9.862   2.314   6.919
30169SOL     OW92339  13.383   8.277   1.693
30169SOL    HW192340  13.306   8.331   1.713
30169SOL    HW292341  13.441   8.288   1.768
30170SOL     OW92342   4.718   9.261   8.330
30170SOL    HW192343   4.680   9.329   8.386
30170SOL    HW292344   4.798   9.235   8.375
30171SOL     OW92345   9.819  11.103  13.354
30171SOL    HW192346   9.744  11.087  13.297
30171SOL    HW292347   9.781  11.110  13.442
30172SOL     OW92348  14.395   0.917  10.829
30172SOL    HW192349  14.415   0.943  10.740
30172SOL    HW292350  14.301   0.896  10.828
30173SOL     OW92351   0.360  11.957   8.159
30173SOL    HW192352   0.302  11.966   8.234
30173SOL    HW292353   0.381  12.047   8.134
30174SOL     OW92354  13.832  13.339  13.090
30174SOL    HW192355  13.787  13.298  13.163
30174SOL    HW292356  13.815  13.432  13.101
30175SOL     OW92357   0.398  10.917   3.325
30175SOL    HW192358   0.423  10.999   3.283
30175SOL    HW292359   0.326  10.941   3.383
30176SOL     OW92360   6.146   3.248   1.365
30176SOL    HW192361   6.165   3.156   1.383
30176SOL    HW292362   6.127   3.286   1.450
30177SOL     OW92363   7.315   5.481  14.399
30177SOL    HW192364   7.365   5.542  14.454
30177SOL    HW292365   7.351   5.493  14.311
30178SOL     OW92366   6.718   3.622   4.346
30178SOL    HW192367   6.628   3.602   4.321
30178SOL    HW292368   6.751   3.542   4.386
30179SOL     OW92369  13.073   1.960   9.615
30179SOL    HW192370  13.101   1.871   9.598
30179SOL    HW292371  12.981   1.952   9.642
30180SOL     OW92372   8.378  13.360   4.913
30180SOL    HW192373   8.342  13.321   4.992
30180SOL    HW292374   8.471  13.339   4.916
30181SOL     OW92375   2.105   4.761  11.565
30181SOL    HW192376   2.166   4.692  11.592
30181SOL    HW292377   2.131   4.781  11.475
30182SOL     OW92378   4.709   7.511  11.214
30182SOL    HW192379   4.739   7.602  11.223
30182SOL    HW292380   4.707   7.496  11.119
30183SOL     OW92381   9.584   0.500   6.282
30183SOL    HW192382   9.598   0.536   6.194
30183SOL    HW292383   9.490   0.488   6.288
30184SOL     OW92384   9.237  12.713   6.484
30184SOL    HW192385   9.255  12.623   6.512
30184SOL    HW292386   9.186  12.751   6.555
30185SOL     OW92387   9.126   6.849  14.128
30185SOL    HW192388   9.163   6.920  14.181
30185SOL    HW292389   9.198   6.785  14.121
30186SOL     OW92390  14.469   2.510  11.658
30186SOL    HW192391  14.387   2.496  11.611
30186SOL    HW292392  14.483   2.427  11.705
30187SOL     OW92393   8.494  10.695  13.674
30187SOL    HW192394   8.494  10.744  13.757
30187SOL    HW292395   8.407  10.710  13.637
30188SOL     OW92396   2.155   3.054   4.167
30188SOL    HW192397   2.156   3.135   4.218
30188SOL    HW292398   2.244   3.020   4.175
30189SOL     OW92399   5.266   1.340   2.887
30189SOL    HW192400   5.276   1.414   2.947
30189SOL    HW292401   5.191   1.364   2.832
30190SOL     OW92402  13.748   3.111   1.465
30190SOL    HW192403  13.806   3.151   1.529
30190SOL    HW292404  13.662   3.114   1.506
30191SOL     OW92405   9.179   9.235   9.487
30191SOL    HW192406   9.172   9.321   9.446
30191SOL    HW292407   9.139   9.175   9.425
30192SOL     OW92408   4.175   3.275   6.704
30192SOL    HW192409   4.249   3.285   6.764
30192SOL    HW292410   4.205   3.208   6.642
30193SOL     OW92411  13.325   2.615  11.577
30193SOL    HW192412  13.416   2.617  11.606
30193SOL    HW292413  13.283   2.552  11.636
30194SOL     OW92414   8.380   9.132   7.745
30194SOL    HW192415   8.470   9.118   7.716
30194SOL    HW292416   8.330   9.062   7.703
30195SOL     OW92417   7.361  11.016   0.151
30195SOL    HW192418   7.403  10.942   0.196
30195SOL    HW292419   7.430  11.081   0.141
30196SOL     OW92420   2.506   3.413   3.963
30196SOL    HW192421   2.556   3.351   4.016
30196SOL    HW292422   2.417   3.379   3.963
30197SOL     OW92423   7.611  12.535   5.880
30197SOL    HW192424   7.528  12.583   5.879
30197SOL    HW292425   7.586  12.444   5.867
30198SOL     OW92426   8.917   4.644   2.470
30198SOL    HW192427   8.968   4.583   2.523
30198SOL    HW292428   8.980   4.713   2.446
30199SOL     OW92429   4.048  13.366   9.958
30199SOL    HW192430   3.976  13.381   9.897
30199SOL    HW292431   4.127  13.380   9.905
30200SOL     OW92432  13.848   1.981   4.007
30200SOL    HW192433  13.801   1.919   4.063
30200SOL    HW292434  13.924   1.933   3.977
30201SOL     OW92435   3.447   8.455   6.089
30201SOL    HW192436   3.380   8.435   6.154
30201SOL    HW292437   3.482   8.540   6.114
30202SOL     OW92438   0.123   6.703   4.293
30202SOL    HW192439   0.174   6.777   4.260
30202SOL    HW292440   0.181   6.660   4.356
30203SOL     OW92441  12.258   7.600   5.538
30203SOL    HW192442  12.310   7.523   5.514
30203SOL    HW292443  12.170   7.564   5.555
30204SOL     OW92444   8.747   0.707   8.453
30204SOL    HW192445   8.791   0.730   8.535
30204SOL    HW292446   8.691   0.782   8.433
30205SOL     OW92447  10.550   9.990   0.160
30205SOL    HW192448  10.624  10.041   0.192
30205SOL    HW292449  10.472  10.034   0.195
30206SOL     OW92450   7.354   8.164  12.810
30206SOL    HW192451   7.285   8.180  12.746
30206SOL    HW292452   7.434   8.198  12.769
30207SOL     OW92453   3.811  14.635  10.678
30207SOL    HW192454   3.763  14.590  10.609
30207SOL    HW292455   3.802  14.579  10.755
30208SOL     OW92456   5.086   7.200   2.873
30208SOL    HW192457   5.136   7.270   2.830
30208SOL    HW292458   5.092   7.220   2.966
30209SOL     OW92459  13.172   0.955   8.839
30209SOL    HW192460  13.141   0.890   8.776
30209SOL    HW292461  13.268   0.950   8.832
30210SOL     OW92462  12.729   2.246   2.739
30210SOL    HW192463  12.782   2.191   2.681
30210SOL    HW292464  12.683   2.185   2.796
30211SOL     OW92465   2.841   8.462   9.877
30211SOL    HW192466   2.899   8.402   9.830
30211SOL    HW292467   2.847   8.544   9.827
30212SOL     OW92468   7.475   2.121  13.532
30212SOL    HW192469   7.411   2.114  13.603
30212SOL    HW292470   7.481   2.032  13.497
30213SOL     OW92471   5.544  10.219   4.722
30213SOL    HW192472   5.539  10.314   4.734
30213SOL    HW292473   5.485  10.200   4.649
30214SOL     OW92474   7.115   2.861  10.399
30214SOL    HW192475   7.024   2.841  10.422
30214SOL    HW292476   7.123   2.955  10.415
30215SOL     OW92477   5.456   3.637  13.659
30215SOL    HW192478   5.548   3.610  13.663
30215SOL    HW292479   5.440   3.680  13.743
30216SOL     OW92480   7.083  13.386  12.954
30216SOL    HW192481   7.060  13.478  12.961
30216SOL    HW292482   7.049  13.360  12.868
30217SOL     OW92483  10.724   8.624   5.788
30217SOL    HW192484  10.744   8.619   5.694
30217SOL    HW292485  10.691   8.537   5.810
30218SOL     OW92486  11.986   2.047  14.102
30218SOL    HW192487  12.040   2.125  14.088
30218SOL    HW292488  11.938   2.035  14.020
30219SOL     OW92489   8.298  14.447   3.431
30219SOL    HW192490   8.208  14.478   3.425
30219SOL    HW292491   8.298  14.389   3.507
30220SOL     OW92492  12.698   6.331  13.088
30220SOL    HW192493  12.717   6.380  13.009
30220SOL    HW292494  12.782   6.324  13.133
30221SOL     OW92495   9.704   9.574   3.826
30221SOL    HW192496   9.741   9.496   3.785
30221SOL    HW292497   9.715   9.642   3.759
30222SOL     OW92498   4.604  10.248  13.302
30222SOL    HW192499   4.539  10.310  13.333
30222SOL    HW292500   4.555  10.189  13.244
30223SOL     OW92501   5.192   7.287  13.624
30223SOL    HW192502   5.165   7.221  13.689
30223SOL    HW292503   5.222   7.361  13.677
30224SOL     OW92504   2.036   8.394   6.541
30224SOL    HW192505   2.107   8.444   6.580
30224SOL    HW292506   1.999   8.344   6.614
30225SOL     OW92507   0.691   3.600   8.826
30225SOL    HW192508   0.764   3.539   8.837
30225SOL    HW292509   0.733   3.683   8.805
30226SOL     OW92510   3.032  10.140   0.568
30226SOL    HW192511   3.019  10.085   0.491
30226SOL    HW292512   3.034  10.079   0.642
30227SOL     OW92513   4.718  10.187   6.309
30227SOL    HW192514   4.750  10.190   6.399
30227SOL    HW292515   4.689  10.277   6.292
30228SOL     OW92516  10.131   9.442   2.725
30228SOL    HW192517  10.121   9.372   2.789
30228SOL    HW292518  10.226   9.449   2.711
30229SOL     OW92519   9.380   4.710   2.867
30229SOL    HW192520   9.300   4.673   2.903
30229SOL    HW292521   9.353   4.754   2.786
30230SOL     OW92522  12.772  11.814  14.504
30230SOL    HW192523  12.709  11.782  14.439
30230SOL    HW292524  12.803  11.735  14.549
30231SOL     OW92525   8.207  12.087  10.384
30231SOL    HW192526   8.300  12.108  10.381
30231SOL    HW292527   8.202  12.010  10.442
30232SOL     OW92528  13.136   4.727   5.307
30232SOL    HW192529  13.114   4.818   5.289
30232SOL    HW292530  13.229   4.729   5.330
30233SOL     OW92531   8.344   7.342   5.928
30233SOL    HW192532   8.318   7.408   5.991
30233SOL    HW292533   8.439   7.352   5.919
30234SOL     OW92534  11.246   7.131  12.395
30234SOL    HW192535  11.280   7.144  12.307
30234SOL    HW292536  11.285   7.202  12.447
30235SOL     OW92537   2.980   3.058   6.932
30235SOL    HW192538   2.893   3.098   6.937
30235SOL    HW292539   2.963   2.964   6.940
30236SOL     OW92540   2.710   2.267   0.435
30236SOL    HW192541   2.793   2.274   0.387
30236SOL    HW292542   2.643   2.269   0.368
30237SOL     OW92543   9.168   6.151  10.792
30237SOL    HW192544   9.143   6.153  10.884
30237SOL    HW292545   9.106   6.211  10.749
30238SOL     OW92546   0.820  13.181  12.117
30238SOL    HW192547   0.744  13.141  12.159
30238SOL    HW292548   0.821  13.271  12.149
30239SOL     OW92549  12.512  12.724   8.361
30239SOL    HW192550  12.589  12.746   8.413
30239SOL    HW292551  12.509  12.793   8.294
30240SOL     OW92552   5.679  13.338  11.695
30240SOL    HW192553   5.614  13.269  11.687
30240SOL    HW292554   5.738  13.308  11.764
30241SOL     OW92555  14.110   5.928   3.899
30241SOL    HW192556  14.017   5.926   3.877
30241SOL    HW292557  14.132   6.021   3.904
30242SOL     OW92558  14.295  12.713   9.874
30242SOL    HW192559  14.381  12.672   9.873
30242SOL    HW292560  14.273  12.722   9.966
30243SOL     OW92561   0.292  13.332  11.473
30243SOL    HW192562   0.269  13.240  11.458
30243SOL    HW292563   0.260  13.378  11.396
30244SOL     OW92564  13.499   4.715   8.787
30244SOL    HW192565  13.504   4.699   8.881
30244SOL    HW292566  13.491   4.628   8.748
30245SOL     OW92567   0.617  14.840  13.270
30245SOL    HW192568   0.606  14.748  13.249
30245SOL    HW292569   0.542  14.861  13.325
30246SOL     OW92570   7.535   4.855   3.233
30246SOL    HW192571   7.623   4.871   3.200
30246SOL    HW292572   7.507   4.774   3.191
30247SOL     OW92573   2.959  14.645   8.217
30247SOL    HW192574   3.007  14.654   8.299
30247SOL    HW292575   2.983  14.559   8.184
30248SOL     OW92576  11.336   1.862  11.132
30248SOL    HW192577  11.320   1.953  11.109
30248SOL    HW292578  11.414   1.864  11.187
30249SOL     OW92579   0.808   4.785   3.416
30249SOL    HW192580   0.739   4.731   3.377
30249SOL    HW292581   0.774   4.874   3.413
30250SOL     OW92582   3.582  12.364  12.095
30250SOL    HW192583   3.611  12.380  12.185
30250SOL    HW292584   3.662  12.349  12.045
30251SOL     OW92585   1.897   0.242   9.544
30251SOL    HW192586   1.967   0.187   9.510
30251SOL    HW292587   1.818   0.189   9.535
30252SOL     OW92588   7.296   4.161   8.381
30252SOL    HW192589   7.375   4.179   8.331
30252SOL    HW292590   7.246   4.242   8.377
30253SOL     OW92591  11.264   6.998  14.696
30253SOL    HW192592  11.173   6.998  14.668
30253SOL    HW292593  11.295   6.909  14.679
30254SOL     OW92594  13.036  10.784  10.955
30254SOL    HW192595  13.088  10.778  10.876
30254SOL    HW292596  13.078  10.723  11.016
30255SOL     OW92597   3.102   2.819   6.201
30255SOL    HW192598   3.114   2.769   6.121
30255SOL    HW292599   3.117   2.910   6.176
30256SOL     OW92600  10.365  11.920  13.205
30256SOL    HW192601  10.289  11.868  13.232
30256SOL    HW292602  10.436  11.889  13.261
30257SOL     OW92603  11.738   6.167  14.465
30257SOL    HW192604  11.827   6.152  14.497
30257SOL    HW292605  11.711   6.082  14.429
30258SOL     OW92606  12.273   2.128   8.697
30258SOL    HW192607  12.261   2.143   8.603
30258SOL    HW292608  12.186   2.139   8.735
30259SOL     OW92609  10.551   0.859   6.563
30259SOL    HW192610  10.550   0.806   6.642
30259SOL    HW292611  10.546   0.950   6.594
30260SOL     OW92612   2.367   7.116   5.732
30260SOL    HW192613   2.431   7.163   5.785
30260SOL    HW292614   2.347   7.175   5.659
30261SOL     OW92615  13.403   5.101   5.019
30261SOL    HW192616  13.423   5.112   5.112
30261SOL    HW292617  13.352   5.020   5.016
30262SOL     OW92618   3.109   5.844   4.541
30262SOL    HW192619   3.093   5.815   4.631
30262SOL    HW292620   3.197   5.811   4.521
30263SOL     OW92621   9.746   2.055  12.459
30263SOL    HW192622   9.696   2.077  12.538
30263SOL    HW292623   9.731   1.961  12.448
30264SOL     OW92624   0.244  10.392   0.089
30264SOL    HW192625   0.331  10.430   0.093
30264SOL    HW292626   0.186  10.467   0.072
30265SOL     OW92627  14.617   7.550  14.517
30265SOL    HW192628  14.609   7.490  14.442
30265SOL    HW292629  14.664   7.626  14.482
30266SOL     OW92630   8.287   8.486  12.937
30266SOL    HW192631   8.324   8.407  12.977
30266SOL    HW292632   8.237   8.454  12.862
30267SOL     OW92633   3.448   7.438   3.706
30267SOL    HW192634   3.434   7.510   3.644
30267SOL    HW292635   3.440   7.479   3.792
30268SOL     OW92636  11.000   7.586  14.018
30268SOL    HW192637  10.958   7.625  13.942
30268SOL    HW292638  11.081   7.547  13.984
30269SOL     OW92639   2.578  11.487   5.009
30269SOL    HW192640   2.512  11.512   4.945
30269SOL    HW292641   2.548  11.527   5.091
30270SOL     OW92642   4.107   6.748   7.763
30270SOL    HW192643   4.143   6.747   7.674
30270SOL    HW292644   4.111   6.840   7.789
30271SOL     OW92645   7.348   3.939  11.183
30271SOL    HW192646   7.372   3.885  11.258
30271SOL    HW292647   7.252   3.937  11.182
30272SOL     OW92648   4.640   2.109   5.300
30272SOL    HW192649   4.667   2.159   5.377
30272SOL    HW292650   4.641   2.018   5.330
30273SOL     OW92651  12.720   1.274  14.022
30273SOL    HW192652  12.690   1.240  14.107
30273SOL    HW292653  12.640   1.290  13.973
30274SOL     OW92654   5.211  10.569   7.646
30274SOL    HW192655   5.285  10.599   7.699
30274SOL    HW292656   5.194  10.642   7.586
30275SOL     OW92657   0.641  13.612   4.088
30275SOL    HW192658   0.555  13.600   4.048
30275SOL    HW292659   0.635  13.564   4.171
30276SOL     OW92660  10.502  13.815   7.850
30276SOL    HW192661  10.469  13.729   7.875
30276SOL    HW292662  10.471  13.874   7.919
30277SOL     OW92663  13.106   1.342  12.852
30277SOL    HW192664  13.155   1.387  12.921
30277SOL    HW292665  13.134   1.385  12.771
30278SOL     OW92666  10.263   1.003   8.341
30278SOL    HW192667  10.347   0.958   8.344
30278SOL    HW292668  10.244   1.011   8.247
30279SOL     OW92669   7.423  12.085  13.714
30279SOL    HW192670   7.462  12.132  13.640
30279SOL    HW292671   7.328  12.096  13.701
30280SOL     OW92672   7.901  14.125   1.506
30280SOL    HW192673   7.854  14.171   1.436
30280SOL    HW292674   7.900  14.187   1.580
30281SOL     OW92675   7.687   9.906  10.308
30281SOL    HW192676   7.693  10.001  10.323
30281SOL    HW292677   7.746   9.891  10.234
30282SOL     OW92678  13.361  11.913   6.337
30282SOL    HW192679  13.390  11.957   6.257
30282SOL    HW292680  13.265  11.916   6.333
30283SOL     OW92681   0.713  10.484  12.391
30283SOL    HW192682   0.638  10.541  12.408
30283SOL    HW292683   0.675  10.404  12.356
30284SOL     OW92684   2.567   8.389   0.283
30284SOL    HW192685   2.616   8.310   0.306
30284SOL    HW292686   2.603   8.416   0.198
30285SOL     OW92687   3.707   4.568   8.308
30285SOL    HW192688   3.800   4.579   8.327
30285SOL    HW292689   3.671   4.526   8.387
30286SOL     OW92690   3.079   0.019  11.925
30286SOL    HW192691   3.024  14.821  11.913
30286SOL    HW292692   3.019   0.093  11.919
30287SOL     OW92693   9.816   5.451   2.940
30287SOL    HW192694   9.768   5.389   2.995
30287SOL    HW292695   9.832   5.526   2.998
30288SOL     OW92696   3.618   1.960   4.491
30288SOL    HW192697   3.535   1.937   4.532
30288SOL    HW292698   3.617   1.914   4.407
30289SOL     OW92699  11.411   6.239   1.419
30289SOL    HW192700  11.399   6.144   1.424
30289SOL    HW292701  11.404   6.268   1.510
30290SOL     OW92702   7.590   4.362  12.381
30290SOL    HW192703   7.541   4.385  12.460
30290SOL    HW292704   7.680   4.387  12.400
30291SOL     OW92705  10.678  13.058   6.449
30291SOL    HW192706  10.619  13.101   6.511
30291SOL    HW292707  10.726  12.994   6.502
30292SOL     OW92708   3.229   8.178   2.259
30292SOL    HW192709   3.297   8.245   2.264
30292SOL    HW292710   3.276   8.098   2.234
30293SOL     OW92711  12.588   3.875   5.879
30293SOL    HW192712  12.624   3.963   5.893
30293SOL    HW292713  12.568   3.872   5.786
30294SOL     OW92714  11.231   3.558   7.645
30294SOL    HW192715  11.208   3.651   7.647
30294SOL    HW292716  11.151   3.514   7.614
30295SOL     OW92717   6.910  10.331   1.183
30295SOL    HW192718   6.894  10.415   1.227
30295SOL    HW292719   6.875  10.265   1.242
30296SOL     OW92720   2.623   2.778  10.012
30296SOL    HW192721   2.566   2.716  10.057
30296SOL    HW292722   2.668   2.726   9.945
30297SOL     OW92723   1.831   3.899  10.030
30297SOL    HW192724   1.828   3.864   9.941
30297SOL    HW292725   1.923   3.894  10.055
30298SOL     OW92726   6.059   7.885  10.943
30298SOL    HW192727   6.040   7.858  11.033
30298SOL    HW292728   6.147   7.851  10.926
30299SOL     OW92729   9.005   5.575   7.651
30299SOL    HW192730   8.984   5.664   7.680
30299SOL    HW292731   9.047   5.586   7.566
30300SOL     OW92732   9.602  14.214   4.030
30300SOL    HW192733   9.686  14.183   3.996
30300SOL    HW292734   9.600  14.183   4.121
30301SOL     OW92735   6.284   0.981   4.731
30301SOL    HW192736   6.229   0.938   4.796
30301SOL    HW292737   6.355   1.021   4.782
30302SOL     OW92738   5.340  10.821  13.516
30302SOL    HW192739   5.249  10.846  13.496
30302SOL    HW292740   5.393  10.879  13.462
30303SOL     OW92741   5.813   4.309   1.313
30303SOL    HW192742   5.897   4.304   1.359
30303SOL    HW292743   5.831   4.275   1.226
30304SOL     OW92744   6.460   2.572   0.095
30304SOL    HW192745   6.388   2.618   0.138
30304SOL    HW292746   6.447   2.480   0.119
30305SOL     OW92747  11.717  10.269   2.876
30305SOL    HW192748  11.753  10.196   2.925
30305SOL    HW292749  11.730  10.345   2.932
30306SOL     OW92750  13.747   0.498  12.539
30306SOL    HW192751  13.797   0.469  12.616
30306SOL    HW292752  13.744   0.420  12.483
30307SOL     OW92753   5.407  11.958   0.770
30307SOL    HW192754   5.360  11.875   0.783
30307SOL    HW292755   5.472  11.939   0.703
30308SOL     OW92756   7.677   7.187   9.601
30308SOL    HW192757   7.583   7.192   9.587
30308SOL    HW292758   7.707   7.278   9.596
30309SOL     OW92759  11.915   7.157  11.002
30309SOL    HW192760  11.875   7.204  11.075
30309SOL    HW292761  11.961   7.225  10.952
30310SOL     OW92762   1.812   7.869  11.349
30310SOL    HW192763   1.794   7.782  11.314
30310SOL    HW292764   1.805   7.859  11.444
30311SOL     OW92765   6.641  10.937   5.801
30311SOL    HW192766   6.638  10.886   5.882
30311SOL    HW292767   6.707  11.005   5.817
30312SOL     OW92768   0.008   7.218  11.008
30312SOL    HW192769   0.026   7.302  11.050
30312SOL    HW292770  14.856   7.241  10.920
30313SOL     OW92771   6.653   9.111   5.948
30313SOL    HW192772   6.638   9.052   6.022
30313SOL    HW292773   6.625   9.061   5.872
30314SOL     OW92774   9.290  10.348   1.638
30314SOL    HW192775   9.290  10.252   1.636
30314SOL    HW292776   9.237  10.374   1.563
30315SOL     OW92777   9.022   7.937   5.352
30315SOL    HW192778   8.989   7.852   5.323
30315SOL    HW292779   9.086   7.916   5.421
30316SOL     OW92780  12.757   9.964   7.247
30316SOL    HW192781  12.789   9.970   7.157
30316SOL    HW292782  12.661   9.968   7.238
30317SOL     OW92783   3.548   7.917   9.905
30317SOL    HW192784   3.515   7.854   9.969
30317SOL    HW292785   3.575   7.992   9.957
30318SOL     OW92786  11.887   1.565  12.925
30318SOL    HW192787  11.960   1.504  12.912
30318SOL    HW292788  11.813   1.521  12.884
30319SOL     OW92789   3.778   9.140   7.631
30319SOL    HW192790   3.797   9.059   7.583
30319SOL    HW292791   3.833   9.206   7.588
30320SOL     OW92792  10.258  12.532   0.690
30320SOL    HW192793  10.242  12.440   0.668
30320SOL    HW292794  10.352  12.537   0.707
30321SOL     OW92795   3.582   2.870   6.374
30321SOL    HW192796   3.563   2.932   6.304
30321SOL    HW292797   3.498   2.829   6.393
30322SOL     OW92798   8.741   3.432  13.019
30322SOL    HW192799   8.735   3.371  12.946
30322SOL    HW292800   8.687   3.506  12.993
30323SOL     OW92801   4.976   3.225   6.931
30323SOL    HW192802   4.934   3.155   6.982
30323SOL    HW292803   5.051   3.252   6.983
30324SOL     OW92804  12.317  12.264  10.211
30324SOL    HW192805  12.310  12.352  10.172
30324SOL    HW292806  12.253  12.264  10.282
30325SOL     OW92807  11.895   2.748   7.622
30325SOL    HW192808  11.880   2.696   7.543
30325SOL    HW292809  11.925   2.833   7.589
30326SOL     OW92810  10.073   5.969  11.432
30326SOL    HW192811  10.107   6.058  11.419
30326SOL    HW292812  10.014   5.977  11.507
30327SOL     OW92813   8.395  11.317  12.695
30327SOL    HW192814   8.418  11.265  12.771
30327SOL    HW292815   8.429  11.404  12.714
30328SOL     OW92816   2.727  13.208  11.940
30328SOL    HW192817   2.741  13.128  11.890
30328SOL    HW292818   2.677  13.265  11.881
30329SOL     OW92819  11.721   2.203   8.316
30329SOL    HW192820  11.649   2.141   8.328
30329SOL    HW292821  11.679   2.288   8.310
30330SOL     OW92822  11.163   9.394   6.340
30330SOL    HW192823  11.196   9.459   6.278
30330SOL    HW292824  11.177   9.310   6.296
30331SOL     OW92825   6.547   9.802   0.448
30331SOL    HW192826   6.579   9.840   0.366
30331SOL    HW292827   6.454   9.823   0.449
30332SOL     OW92828   5.254   8.187  12.322
30332SOL    HW192829   5.161   8.184  12.344
30332SOL    HW292830   5.273   8.101  12.284
30333SOL     OW92831  11.377  12.561  12.554
30333SOL    HW192832  11.453  12.572  12.496
30333SOL    HW292833  11.377  12.468  12.577
30334SOL     OW92834  11.489   8.732   8.628
30334SOL    HW192835  11.510   8.726   8.722
30334SOL    HW292836  11.574   8.733   8.585
30335SOL     OW92837  14.489   5.452   1.874
30335SOL    HW192838  14.510   5.532   1.921
30335SOL    HW292839  14.550   5.450   1.800
30336SOL     OW92840   9.021   3.637   9.702
30336SOL    HW192841   9.030   3.595   9.787
30336SOL    HW292842   9.040   3.567   9.638
30337SOL     OW92843  11.559   6.431  10.212
30337SOL    HW192844  11.645   6.471  10.216
30337SOL    HW292845  11.525   6.454  10.125
30338SOL     OW92846  13.385   4.817   4.091
30338SOL    HW192847  13.292   4.811   4.114
30338SOL    HW292848  13.416   4.727   4.090
30339SOL     OW92849  10.690   5.338  10.114
30339SOL    HW192850  10.732   5.424  10.119
30339SOL    HW292851  10.680   5.322  10.020
30340SOL     OW92852   9.558  11.843   0.614
30340SOL    HW192853   9.542  11.750   0.628
30340SOL    HW292854   9.579  11.850   0.521
30341SOL     OW92855   1.039  12.062   2.509
30341SOL    HW192856   1.120  12.101   2.542
30341SOL    HW292857   1.002  12.130   2.452
30342SOL     OW92858  12.633   7.603   2.676
30342SOL    HW192859  12.642   7.612   2.771
30342SOL    HW292860  12.676   7.681   2.641
30343SOL     OW92861   3.186   3.900   4.728
30343SOL    HW192862   3.130   3.842   4.779
30343SOL    HW292863   3.225   3.958   4.793
30344SOL     OW92864  12.167   4.171  11.609
30344SOL    HW192865  12.101   4.107  11.635
30344SOL    HW292866  12.193   4.143  11.521
30345SOL     OW92867  11.413   3.877   3.924
30345SOL    HW192868  11.451   3.963   3.943
30345SOL    HW292869  11.487   3.816   3.931
30346SOL     OW92870  12.791  10.944   6.910
30346SOL    HW192871  12.708  10.976   6.875
30346SOL    HW292872  12.857  10.977   6.850
30347SOL     OW92873   3.299   3.103   6.501
30347SOL    HW192874   3.226   3.129   6.557
30347SOL    HW292875   3.268   3.024   6.456
30348SOL     OW92876  14.041   6.943  13.700
30348SOL    HW192877  14.002   6.996  13.631
30348SOL    HW292878  14.119   6.905  13.659
30349SOL     OW92879  14.548   5.927   9.408
30349SOL    HW192880  14.579   5.935   9.498
30349SOL    HW292881  14.473   5.868   9.413
30350SOL     OW92882  14.313  14.537   5.860
30350SOL    HW192883  14.364  14.564   5.783
30350SOL    HW292884  14.364  14.568   5.934
30351SOL     OW92885   1.360  11.333   6.378
30351SOL    HW192886   1.311  11.415   6.375
30351SOL    HW292887   1.416  11.341   6.456
30352SOL     OW92888   7.295  12.475   0.360
30352SOL    HW192889   7.265  12.412   0.295
30352SOL    HW292890   7.374  12.513   0.321
30353SOL     OW92891   8.084   8.380  14.539
30353SOL    HW192892   8.101   8.391  14.633
30353SOL    HW292893   7.989   8.372  14.533
30354SOL     OW92894   1.566   7.031   5.947
30354SOL    HW192895   1.616   7.094   5.895
30354SOL    HW292896   1.475   7.046   5.921
30355SOL     OW92897   5.469   2.128   0.934
30355SOL    HW192898   5.463   2.117   0.839
30355SOL    HW292899   5.391   2.084   0.968
30356SOL     OW92900   2.971   0.271  11.861
30356SOL    HW192901   2.974   0.346  11.802
30356SOL    HW292902   2.893   0.286  11.915
30357SOL     OW92903   1.182   3.586  13.196
30357SOL    HW192904   1.254   3.648  13.204
30357SOL    HW292905   1.204   3.516  13.258
30358SOL     OW92906  13.475   2.417   5.684
30358SOL    HW192907  13.530   2.370   5.747
30358SOL    HW292908  13.386   2.408   5.719
30359SOL     OW92909  10.296   6.724   1.974
30359SOL    HW192910  10.274   6.810   1.940
30359SOL    HW292911  10.231   6.707   2.042
30360SOL     OW92912   7.137   8.327  10.907
30360SOL    HW192913   7.088   8.245  10.918
30360SOL    HW292914   7.071   8.391  10.880
30361SOL     OW92915   6.053  11.230   9.275
30361SOL    HW192916   6.054  11.307   9.333
30361SOL    HW292917   6.056  11.266   9.187
30362SOL     OW92918   5.919  12.166   0.897
30362SOL    HW192919   5.868  12.089   0.920
30362SOL    HW292920   6.006  12.149   0.935
30363SOL     OW92921   3.592  10.126   0.045
30363SOL    HW192922   3.686  10.131   0.033
30363SOL    HW292923   3.557  10.108  14.837
30364SOL     OW92924   7.746   9.807   3.306
30364SOL    HW192925   7.662   9.852   3.299
30364SOL    HW292926   7.765   9.777   3.218
30365SOL     OW92927   2.710   0.108   1.194
30365SOL    HW192928   2.732   0.201   1.199
30365SOL    HW292929   2.647   0.102   1.122
30366SOL     OW92930  12.552   4.418   2.927
30366SOL    HW192931  12.635   4.371   2.934
30366SOL    HW292932  12.486   4.349   2.920
30367SOL     OW92933   7.934   8.559   4.559
30367SOL    HW192934   7.882   8.577   4.638
30367SOL    HW292935   7.916   8.634   4.501
30368SOL     OW92936   9.141   3.699   2.853
30368SOL    HW192937   9.128   3.731   2.942
30368SOL    HW292938   9.139   3.777   2.798
30369SOL     OW92939   6.180   0.457  12.064
30369SOL    HW192940   6.265   0.478  12.103
30369SOL    HW292941   6.151   0.539  12.024
30370SOL     OW92942   3.871   3.383   1.821
30370SOL    HW192943   3.875   3.288   1.832
30370SOL    HW292944   3.839   3.396   1.733
30371SOL     OW92945  12.242   3.132  13.684
30371SOL    HW192946  12.165   3.085  13.718
30371SOL    HW292947  12.311   3.066  13.682
30372SOL     OW92948   5.233   2.265  12.805
30372SOL    HW192949   5.175   2.272  12.881
30372SOL    HW292950   5.239   2.171  12.788
30373SOL     OW92951  12.690  12.221   1.992
30373SOL    HW192952  12.728  12.249   2.076
30373SOL    HW292953  12.666  12.302   1.948
30374SOL     OW92954   7.165   2.123   3.818
30374SOL    HW192955   7.130   2.154   3.901
30374SOL    HW292956   7.145   2.193   3.755
30375SOL     OW92957   1.687  11.525   7.921
30375SOL    HW192958   1.733  11.528   7.837
30375SOL    HW292959   1.753  11.550   7.986
30376SOL     OW92960  11.985  11.072  11.647
30376SOL    HW192961  12.078  11.051  11.651
30376SOL    HW292962  11.964  11.108  11.733
30377SOL     OW92963   0.924  10.741   2.373
30377SOL    HW192964   0.928  10.646   2.381
30377SOL    HW292965   0.964  10.760   2.289
30378SOL     OW92966  11.391   7.210  12.694
30378SOL    HW192967  11.299   7.207  12.721
30378SOL    HW292968  11.395   7.279  12.629
30379SOL     OW92969  13.941  14.543   1.604
30379SOL    HW192970  13.900  14.495   1.532
30379SOL    HW292971  13.918  14.492   1.682
30380SOL     OW92972   4.945   7.214   5.762
30380SOL    HW192973   5.037   7.201   5.786
30380SOL    HW292974   4.922   7.138   5.710
30381SOL     OW92975   6.740   5.690   7.409
30381SOL    HW192976   6.748   5.686   7.314
30381SOL    HW292977   6.825   5.722   7.439
30382SOL     OW92978   3.078   8.863   5.613
30382SOL    HW192979   3.016   8.813   5.665
30382SOL    HW292980   3.030   8.884   5.533
30383SOL     OW92981   6.948  13.484  10.851
30383SOL    HW192982   7.015  13.505  10.785
30383SOL    HW292983   6.982  13.522  10.932
30384SOL     OW92984   2.119   5.560   2.784
30384SOL    HW192985   2.051   5.494   2.800
30384SOL    HW292986   2.175   5.556   2.861
30385SOL     OW92987   3.841   2.222   3.887
30385SOL    HW192988   3.912   2.231   3.951
30385SOL    HW292989   3.809   2.312   3.874
30386SOL     OW92990   4.782  13.413   7.001
30386SOL    HW192991   4.717  13.395   7.069
30386SOL    HW292992   4.790  13.509   7.001
30387SOL     OW92993   6.975  13.934  12.445
30387SOL    HW192994   6.994  13.978  12.528
30387SOL    HW292995   6.986  13.841  12.463
30388SOL     OW92996  13.079   7.734  11.519
30388SOL    HW192997  13.029   7.662  11.557
30388SOL    HW292998  13.028   7.761  11.443
30389SOL     OW92999   1.796   6.667   1.166
30389SOL    HW193000   1.828   6.611   1.096
30389SOL    HW293001   1.722   6.619   1.203
30390SOL     OW93002   5.931   4.786   8.880
30390SOL    HW193003   5.894   4.874   8.867
30390SOL    HW293004   5.880   4.749   8.952
30391SOL     OW93005   6.602  12.320   1.098
30391SOL    HW193006   6.669  12.252   1.108
30391SOL    HW293007   6.653  12.401   1.092
30392SOL     OW93008   1.989   9.579  14.429
30392SOL    HW193009   1.971   9.588  14.336
30392SOL    HW293010   1.903   9.568  14.470
30393SOL     OW93011  12.493  14.206   8.825
30393SOL    HW193012  12.497  14.248   8.911
30393SOL    HW293013  12.487  14.278   8.763
30394SOL     OW93014   9.191   2.059   1.795
30394SOL    HW193015   9.280   2.035   1.771
30394SOL    HW293016   9.178   2.145   1.756
30395SOL     OW93017   4.107   7.142   5.878
30395SOL    HW193018   4.072   7.054   5.865
30395SOL    HW293019   4.118   7.177   5.789
30396SOL     OW93020   2.733  12.915  12.327
30396SOL    HW193021   2.760  12.854  12.396
30396SOL    HW293022   2.643  12.889  12.307
30397SOL     OW93023   5.174  11.136   4.822
30397SOL    HW193024   5.208  11.109   4.737
30397SOL    HW293025   5.243  11.112   4.884
30398SOL     OW93026  14.767  11.197   8.752
30398SOL    HW193027  14.788  11.111   8.714
30398SOL    HW293028  14.804  11.194   8.840
30399SOL     OW93029   6.860  10.590   4.013
30399SOL    HW193030   6.945  10.616   4.048
30399SOL    HW293031   6.881  10.539   3.934
30400SOL     OW93032  11.691   5.223   9.142
30400SOL    HW193033  11.689   5.231   9.047
30400SOL    HW293034  11.607   5.257   9.172
30401SOL     OW93035  12.961  10.898   7.721
30401SOL    HW193036  12.932  10.982   7.686
30401SOL    HW293037  13.031  10.870   7.662
30402SOL     OW93038  14.834   9.602   9.180
30402SOL    HW193039   0.010   9.529   9.209
30402SOL    HW293040  14.838   9.598   9.084
30403SOL     OW93041   9.923   7.816   6.010
30403SOL    HW193042   9.992   7.846   5.952
30403SOL    HW293043   9.870   7.757   5.957
30404SOL     OW93044   6.831  10.440   6.317
30404SOL    HW193045   6.888  10.398   6.381
30404SOL    HW293046   6.789  10.367   6.271
30405SOL     OW93047   0.331  10.940   1.591
30405SOL    HW193048   0.425  10.933   1.575
30405SOL    HW293049   0.311  10.867   1.649
30406SOL     OW93050   6.117   1.121   1.669
30406SOL    HW193051   6.172   1.078   1.734
30406SOL    HW293052   6.032   1.078   1.676
30407SOL     OW93053   5.008  12.726   8.454
30407SOL    HW193054   5.011  12.658   8.387
30407SOL    HW293055   4.986  12.806   8.406
30408SOL     OW93056   1.475   6.832  12.189
30408SOL    HW193057   1.491   6.739  12.170
30408SOL    HW293058   1.397   6.853  12.138
30409SOL     OW93059  13.464   7.729   6.770
30409SOL    HW193060  13.439   7.648   6.812
30409SOL    HW293061  13.411   7.797   6.812
30410SOL     OW93062   6.961  11.790  11.913
30410SOL    HW193063   6.974  11.871  11.962
30410SOL    HW293064   6.872  11.763  11.932
30411SOL     OW93065   7.817   3.849   2.217
30411SOL    HW193066   7.906   3.883   2.222
30411SOL    HW293067   7.775   3.903   2.150
30412SOL     OW93068   8.616  12.451   1.759
30412SOL    HW193069   8.673  12.378   1.785
30412SOL    HW293070   8.528  12.415   1.762
30413SOL     OW93071  12.509   4.436  14.551
30413SOL    HW193072  12.557   4.499  14.497
30413SOL    HW293073  12.528   4.462  14.641
30414SOL     OW93074   7.637  14.765   1.553
30414SOL    HW193075   7.730  14.764   1.535
30414SOL    HW293076   7.598  14.808   1.477
30415SOL     OW93077   4.567   9.704  13.554
30415SOL    HW193078   4.618   9.630  13.588
30415SOL    HW293079   4.488   9.664  13.517
30416SOL     OW93080  14.273   6.496  10.460
30416SOL    HW193081  14.301   6.579  10.421
30416SOL    HW293082  14.291   6.431  10.392
30417SOL     OW93083   4.256   8.178   8.895
30417SOL    HW193084   4.344   8.141   8.902
30417SOL    HW293085   4.270   8.273   8.891
30418SOL     OW93086   9.549   4.089   1.758
30418SOL    HW193087   9.556   4.086   1.854
30418SOL    HW293088   9.512   4.004   1.734
30419SOL     OW93089   8.083  12.298   4.738
30419SOL    HW193090   8.170  12.274   4.706
30419SOL    HW293091   8.063  12.380   4.695
30420SOL     OW93092  11.187   1.151  10.670
30420SOL    HW193093  11.219   1.200  10.593
30420SOL    HW293094  11.267   1.127  10.717
30421SOL     OW93095   8.189   3.546   2.926
30421SOL    HW193096   8.163   3.490   2.853
30421SOL    HW293097   8.110   3.556   2.979
30422SOL     OW93098  13.824  11.160   1.308
30422SOL    HW193099  13.821  11.085   1.368
30422SOL    HW293100  13.902  11.146   1.255
30423SOL     OW93101  14.448  10.035   6.954
30423SOL    HW193102  14.477  10.126   6.940
30423SOL    HW293103  14.446  10.025   7.049
30424SOL     OW93104   1.972  11.056   0.648
30424SOL    HW193105   2.050  11.057   0.703
30424SOL    HW293106   1.899  11.040   0.708
30425SOL     OW93107   7.428  13.492  12.444
30425SOL    HW193108   7.518  13.495  12.412
30425SOL    HW293109   7.374  13.488  12.365
30426SOL     OW93110  10.882  11.121  13.628
30426SOL    HW193111  10.954  11.167  13.586
30426SOL    HW293112  10.840  11.071  13.557
30427SOL     OW93113   7.234   6.668   1.994
30427SOL    HW193114   7.295   6.718   1.941
30427SOL    HW293115   7.289   6.628   2.062
30428SOL     OW93116  14.196  12.251  10.001
30428SOL    HW193117  14.288  12.229   9.986
30428SOL    HW293118  14.163  12.184  10.060
30429SOL     OW93119  12.329   4.144   7.285
30429SOL    HW193120  12.363   4.124   7.198
30429SOL    HW293121  12.407   4.167   7.336
30430SOL     OW93122   3.588   1.772  12.536
30430SOL    HW193123   3.651   1.717  12.489
30430SOL    HW293124   3.576   1.848  12.478
30431SOL     OW93125   4.646   4.103   7.877
30431SOL    HW193126   4.731   4.092   7.920
30431SOL    HW293127   4.593   4.031   7.912
30432SOL     OW93128   1.719  12.762   9.310
30432SOL    HW193129   1.807  12.785   9.280
30432SOL    HW293130   1.726  12.671   9.338
30433SOL     OW93131   2.031   8.819   6.256
30433SOL    HW193132   2.093   8.757   6.294
30433SOL    HW293133   2.060   8.829   6.166
30434SOL     OW93134  10.487   1.970   7.486
30434SOL    HW193135  10.445   2.032   7.546
30434SOL    HW293136  10.566   2.015   7.457
30435SOL     OW93137   9.687   2.711   8.657
30435SOL    HW193138   9.605   2.752   8.686
30435SOL    HW293139   9.731   2.779   8.606
30436SOL     OW93140  10.735   1.292  13.928
30436SOL    HW193141  10.816   1.309  13.879
30436SOL    HW293142  10.725   1.369  13.983
30437SOL     OW93143   4.705   4.672   0.583
30437SOL    HW193144   4.791   4.638   0.555
30437SOL    HW293145   4.644   4.600   0.564
30438SOL     OW93146   8.124   4.648  13.845
30438SOL    HW193147   8.120   4.578  13.910
30438SOL    HW293148   8.217   4.656  13.825
30439SOL     OW93149   6.138  14.186   4.988
30439SOL    HW193150   6.047  14.177   5.016
30439SOL    HW293151   6.158  14.103   4.946
30440SOL     OW93152  11.034   4.397   9.129
30440SOL    HW193153  11.058   4.338   9.200
30440SOL    HW293154  10.973   4.459   9.169
30441SOL     OW93155  14.671   1.013   3.052
30441SOL    HW193156  14.617   1.051   2.983
30441SOL    HW293157  14.692   0.925   3.021
30442SOL     OW93158  14.726   8.866   2.872
30442SOL    HW193159  14.734   8.778   2.834
30442SOL    HW293160  14.662   8.910   2.816
30443SOL     OW93161   9.868   1.876   4.988
30443SOL    HW193162   9.804   1.831   4.933
30443SOL    HW293163   9.949   1.827   4.977
30444SOL     OW93164   8.876   9.774   5.759
30444SOL    HW193165   8.860   9.810   5.846
30444SOL    HW293166   8.808   9.707   5.748
30445SOL     OW93167   8.882   9.443   5.901
30445SOL    HW193168   8.936   9.493   5.963
30445SOL    HW293169   8.804   9.421   5.951
30446SOL     OW93170   7.060  11.851   0.033
30446SOL    HW193171   7.013  11.768   0.032
30446SOL    HW293172   7.025  11.897   0.110
30447SOL     OW93173  10.657   3.863  13.375
30447SOL    HW193174  10.630   3.825  13.459
30447SOL    HW293175  10.681   3.788  13.321
30448SOL     OW93176   4.134   1.848   7.613
30448SOL    HW193177   4.068   1.911   7.640
30448SOL    HW293178   4.113   1.768   7.662
30449SOL     OW93179  10.023  11.348   3.532
30449SOL    HW193180  10.086  11.375   3.599
30449SOL    HW293181  10.008  11.255   3.550
30450SOL     OW93182   8.337   5.493   7.136
30450SOL    HW193183   8.250   5.510   7.171
30450SOL    HW293184   8.387   5.458   7.209
30451SOL     OW93185   0.872   0.521  10.080
30451SOL    HW193186   0.784   0.493  10.057
30451SOL    HW293187   0.904   0.567  10.002
30452SOL     OW93188   9.539  13.478   7.324
30452SOL    HW193189   9.612  13.485   7.263
30452SOL    HW293190   9.462  13.498   7.271
30453SOL     OW93191   1.968  10.709   5.758
30453SOL    HW193192   2.034  10.711   5.688
30453SOL    HW293193   2.003  10.647   5.821
30454SOL     OW93194   6.485   8.188   8.102
30454SOL    HW193195   6.415   8.166   8.041
30454SOL    HW293196   6.449   8.167   8.188
30455SOL     OW93197   9.161  13.268   6.961
30455SOL    HW193198   9.105  13.289   6.887
30455SOL    HW293199   9.102  13.229   7.026
30456SOL     OW93200  12.266   6.037  14.685
30456SOL    HW193201  12.320   6.090  14.744
30456SOL    HW293202  12.329   5.981  14.639
30457SOL     OW93203  12.861  12.383   3.114
30457SOL    HW193204  12.886  12.346   3.198
30457SOL    HW293205  12.837  12.474   3.133
30458SOL     OW93206   4.046  11.006  14.121
30458SOL    HW193207   4.026  11.031  14.031
30458SOL    HW293208   3.984  10.935  14.139
30459SOL     OW93209   1.119   4.003   4.347
30459SOL    HW193210   1.212   3.996   4.369
30459SOL    HW293211   1.112   4.085   4.299
30460SOL     OW93212   6.727  11.773   9.387
30460SOL    HW193213   6.722  11.678   9.371
30460SOL    HW293214   6.697  11.783   9.478
30461SOL     OW93215  11.983   1.875   1.663
30461SOL    HW193216  11.960   1.962   1.632
30461SOL    HW293217  12.071   1.860   1.629
30462SOL     OW93218   0.218   1.454  14.638
30462SOL    HW193219   0.231   1.531  14.694
30462SOL    HW293220   0.192   1.385  14.699
30463SOL     OW93221  12.737  13.076  11.807
30463SOL    HW193222  12.667  13.109  11.864
30463SOL    HW293223  12.802  13.146  11.807
30464SOL     OW93224   4.601  12.403   1.211
30464SOL    HW193225   4.631  12.404   1.302
30464SOL    HW293226   4.665  12.458   1.164
30465SOL     OW93227  13.702   9.971   9.314
30465SOL    HW193228  13.636   9.913   9.352
30465SOL    HW293229  13.778   9.961   9.370
30466SOL     OW93230   1.819  14.811   5.513
30466SOL    HW193231   1.738  14.760   5.525
30466SOL    HW293232   1.826  14.864   5.592
30467SOL     OW93233  11.643   9.581  14.755
30467SOL    HW193234  11.678   9.573  14.844
30467SOL    HW293235  11.601   9.667  14.753
30468SOL     OW93236   0.350  14.164   7.563
30468SOL    HW193237   0.392  14.175   7.649
30468SOL    HW293238   0.369  14.074   7.539
30469SOL     OW93239   8.238   9.712   9.889
30469SOL    HW193240   8.214   9.688   9.800
30469SOL    HW293241   8.241   9.808   9.888
30470SOL     OW93242   2.266  13.684  14.552
30470SOL    HW193243   2.334  13.620  14.531
30470SOL    HW293244   2.221  13.647  14.629
30471SOL     OW93245   9.062  14.775   5.291
30471SOL    HW193246   9.034  14.789   5.381
30471SOL    HW293247   9.013  14.697   5.262
30472SOL     OW93248   0.227   4.181   0.216
30472SOL    HW193249   0.305   4.126   0.222
30472SOL    HW293250   0.166   4.143   0.280
30473SOL     OW93251   8.125   4.262   8.633
30473SOL    HW193252   8.059   4.300   8.575
30473SOL    HW293253   8.202   4.318   8.622
30474SOL     OW93254  12.358   9.014  11.198
30474SOL    HW193255  12.428   9.064  11.240
30474SOL    HW293256  12.380   9.016  11.105
30475SOL     OW93257   2.433   4.737  12.292
30475SOL    HW193258   2.506   4.760  12.234
30475SOL    HW293259   2.474   4.686  12.362
30476SOL     OW93260  13.262   0.916  11.002
30476SOL    HW193261  13.356   0.933  11.005
30476SOL    HW293262  13.222   1.002  10.991
30477SOL     OW93263   7.896   1.874   3.006
30477SOL    HW193264   7.801   1.865   2.997
30477SOL    HW293265   7.907   1.939   3.076
30478SOL     OW93266   6.982   5.435   7.615
30478SOL    HW193267   6.987   5.343   7.589
30478SOL    HW293268   6.940   5.434   7.701
30479SOL     OW93269   8.787  13.030  13.547
30479SOL    HW193270   8.802  12.949  13.499
30479SOL    HW293271   8.863  13.037  13.606
30480SOL     OW93272   6.021   5.509  13.501
30480SOL    HW193273   5.950   5.448  13.520
30480SOL    HW293274   6.005   5.584  13.558
30481SOL     OW93275  11.092   0.818  14.743
30481SOL    HW193276  11.185   0.833  14.726
30481SOL    HW293277  11.074   0.869  14.822
30482SOL     OW93278   1.747  14.283  13.234
30482SOL    HW193279   1.823  14.334  13.261
30482SOL    HW293280   1.733  14.221  13.306
30483SOL     OW93281   9.726  13.356  10.487
30483SOL    HW193282   9.774  13.335  10.407
30483SOL    HW293283   9.793  13.374  10.552
30484SOL     OW93284  14.737   6.825  11.072
30484SOL    HW193285  14.719   6.868  10.989
30484SOL    HW293286  14.830   6.802  11.067
30485SOL     OW93287   1.361   4.998   4.095
30485SOL    HW193288   1.322   4.914   4.071
30485SOL    HW293289   1.337   5.010   4.187
30486SOL     OW93290   2.154   8.796  14.871
30486SOL    HW193291   2.245   8.814   0.015
30486SOL    HW293292   2.103   8.838   0.060
30487SOL     OW93293   1.168  13.773   9.405
30487SOL    HW193294   1.107  13.842   9.381
30487SOL    HW293295   1.254  13.807   9.381
30488SOL     OW93296   1.985   9.021   4.280
30488SOL    HW193297   1.918   9.053   4.340
30488SOL    HW293298   2.067   9.053   4.316
30489SOL     OW93299   3.506  13.046   7.063
30489SOL    HW193300   3.471  12.963   7.030
30489SOL    HW293301   3.430  13.104   7.067
30490SOL     OW93302   5.651   6.028   8.366
30490SOL    HW193303   5.700   5.947   8.352
30490SOL    HW293304   5.664   6.078   8.285
30491SOL     OW93305   0.386  10.964   8.036
30491SOL    HW193306   0.346  10.993   8.119
30491SOL    HW293307   0.340  10.884   8.015
30492SOL     OW93308  11.970  12.522   5.815
30492SOL    HW193309  11.955  12.548   5.724
30492SOL    HW293310  12.023  12.443   5.809
30493SOL     OW93311   8.999   8.818   4.072
30493SOL    HW193312   9.046   8.830   3.989
30493SOL    HW293313   9.066   8.829   4.139
30494SOL     OW93314  12.733   2.512  12.882
30494SOL    HW193315  12.783   2.577  12.831
30494SOL    HW293316  12.765   2.428  12.850
30495SOL     OW93317  10.360   1.110  11.660
30495SOL    HW193318  10.371   1.202  11.633
30495SOL    HW293319  10.266   1.103  11.681
30496SOL     OW93320   2.286  10.175  14.796
30496SOL    HW193321   2.310  10.256  14.842
30496SOL    HW293322   2.323  10.105  14.850
30497SOL     OW93323  13.168   1.267   1.927
30497SOL    HW193324  13.246   1.322   1.923
30497SOL    HW293325  13.174   1.221   2.011
30498SOL     OW93326   2.478   7.956   8.961
30498SOL    HW193327   2.448   7.865   8.962
30498SOL    HW293328   2.442   7.991   8.879
30499SOL     OW93329  13.514  14.365  13.253
30499SOL    HW193330  13.566  14.357  13.173
30499SOL    HW293331  13.431  14.322  13.231
30500SOL     OW93332  13.575   4.642  14.250
30500SOL    HW193333  13.512   4.710  14.226
30500SOL    HW293334  13.610   4.611  14.166
30501SOL     OW93335   7.645   5.962   3.622
30501SOL    HW193336   7.586   5.922   3.687
30501SOL    HW293337   7.611   5.931   3.538
30502SOL     OW93338   4.408  11.575  10.874
30502SOL    HW193339   4.471  11.504  10.873
30502SOL    HW293340   4.426  11.624  10.793
30503SOL     OW93341   8.298  14.549   2.958
30503SOL    HW193342   8.286  14.512   2.870
30503SOL    HW293343   8.366  14.495   2.997
30504SOL     OW93344   9.642   5.033   3.338
30504SOL    HW193345   9.579   5.002   3.273
30504SOL    HW293346   9.716   4.973   3.329
30505SOL     OW93347  13.702   0.944   8.570
30505SOL    HW193348  13.609   0.944   8.595
30505SOL    HW293349  13.749   0.948   8.654
30506SOL     OW93350   5.875  11.890   8.323
30506SOL    HW193351   5.790  11.896   8.366
30506SOL    HW293352   5.857  11.910   8.231
30507SOL     OW93353   9.876  14.803   2.485
30507SOL    HW193354   9.883   0.018   2.467
30507SOL    HW293355   9.835  14.798   2.572
30508SOL     OW93356   7.466  13.701  13.346
30508SOL    HW193357   7.461  13.730  13.255
30508SOL    HW293358   7.407  13.759  13.394
30509SOL     OW93359   8.542   8.256   6.372
30509SOL    HW193360   8.518   8.167   6.349
30509SOL    HW293361   8.498   8.311   6.307
30510SOL     OW93362   7.198   4.588  14.132
30510SOL    HW193363   7.280   4.584  14.181
30510SOL    HW293364   7.143   4.649  14.181
30511SOL     OW93365  12.257   4.938   0.207
30511SOL    HW193366  12.191   4.896   0.261
30511SOL    HW293367  12.208   4.998   0.151
30512SOL     OW93368  13.781  10.254   3.524
30512SOL    HW193369  13.775  10.336   3.574
30512SOL    HW293370  13.728  10.192   3.574
30513SOL     OW93371   2.919  12.758   5.640
30513SOL    HW193372   2.969  12.696   5.694
30513SOL    HW293373   2.964  12.759   5.556
30514SOL     OW93374   2.949  10.024   8.592
30514SOL    HW193375   2.959   9.930   8.606
30514SOL    HW293376   3.035  10.061   8.612
30515SOL     OW93377   2.116   0.046   5.810
30515SOL    HW193378   2.125   0.051   5.715
30515SOL    HW293379   2.088  14.836   5.827
30516SOL     OW93380   9.834   6.762  13.689
30516SOL    HW193381   9.829   6.767  13.785
30516SOL    HW293382   9.743   6.759  13.660
30517SOL     OW93383   6.658   9.610  13.584
30517SOL    HW193384   6.643   9.639  13.494
30517SOL    HW293385   6.633   9.685  13.638
30518SOL     OW93386   3.813   4.093  14.466
30518SOL    HW193387   3.905   4.084  14.491
30518SOL    HW293388   3.768   4.119  14.546
30519SOL     OW93389   9.507   4.378  13.714
30519SOL    HW193390   9.603   4.387  13.714
30519SOL    HW293391   9.491   4.298  13.765
30520SOL     OW93392  11.951   4.349   1.507
30520SOL    HW193393  11.922   4.347   1.598
30520SOL    HW293394  11.918   4.268   1.469
30521SOL     OW93395  13.632   4.722   0.211
30521SOL    HW193396  13.684   4.655   0.168
30521SOL    HW293397  13.551   4.678   0.237
30522SOL     OW93398   8.611   4.680   0.412
30522SOL    HW193399   8.531   4.664   0.462
30522SOL    HW293400   8.682   4.673   0.477
30523SOL     OW93401   2.765  14.453   9.443
30523SOL    HW193402   2.723  14.527   9.400
30523SOL    HW293403   2.857  14.478   9.451
30524SOL     OW93404   2.879  13.612  14.842
30524SOL    HW193405   2.798  13.631   0.009
30524SOL    HW293406   2.892  13.518  14.855
30525SOL     OW93407  12.550  14.101  13.433
30525SOL    HW193408  12.623  14.067  13.485
30525SOL    HW293409  12.557  14.196  13.442
30526SOL     OW93410  14.776   5.205  12.600
30526SOL    HW193411  14.843   5.223  12.533
30526SOL    HW293412  14.693   5.211  12.553
30527SOL     OW93413   4.366   4.606   7.539
30527SOL    HW193414   4.404   4.573   7.620
30527SOL    HW293415   4.441   4.619   7.480
30528SOL     OW93416  11.305  11.155  10.520
30528SOL    HW193417  11.233  11.209  10.487
30528SOL    HW293418  11.262  11.087  10.572
30529SOL     OW93419   7.834  11.491   6.783
30529SOL    HW193420   7.862  11.579   6.806
30529SOL    HW293421   7.826  11.492   6.688
30530SOL     OW93422   3.517  13.811  14.103
30530SOL    HW193423   3.427  13.817  14.134
30530SOL    HW293424   3.569  13.800  14.183
30531SOL     OW93425  10.513   3.257   7.115
30531SOL    HW193426  10.526   3.240   7.022
30531SOL    HW293427  10.447   3.327   7.118
30532SOL     OW93428   2.024  12.831  14.632
30532SOL    HW193429   1.983  12.835  14.546
30532SOL    HW293430   1.951  12.824  14.694
30533SOL     OW93431  14.708  13.412   0.426
30533SOL    HW193432  14.771  13.448   0.488
30533SOL    HW293433  14.642  13.370   0.482
30534SOL     OW93434   2.268  13.849   2.866
30534SOL    HW193435   2.180  13.820   2.892
30534SOL    HW293436   2.253  13.902   2.788
30535SOL     OW93437   5.857   3.707  10.610
30535SOL    HW193438   5.845   3.801  10.628
30535SOL    HW293439   5.932   3.704  10.551
30536SOL     OW93440  11.673   7.817  11.432
30536SOL    HW193441  11.603   7.770  11.386
30536SOL    HW293442  11.674   7.904  11.392
30537SOL     OW93443  14.549   4.272  10.868
30537SOL    HW193444  14.467   4.308  10.902
30537SOL    HW293445  14.529   4.247  10.778
30538SOL     OW93446   4.077  12.580   4.226
30538SOL    HW193447   4.162  12.546   4.252
30538SOL    HW293448   4.015  12.511   4.250
30539SOL     OW93449   6.881   0.657   3.401
30539SOL    HW193450   6.969   0.638   3.433
30539SOL    HW293451   6.894   0.682   3.309
30540SOL     OW93452   5.244  14.585   2.152
30540SOL    HW193453   5.236  14.662   2.095
30540SOL    HW293454   5.329  14.596   2.196
30541SOL     OW93455  12.791  10.694  13.855
30541SOL    HW193456  12.869  10.650  13.889
30541SOL    HW293457  12.810  10.710  13.763
30542SOL     OW93458  12.315   5.310  14.704
30542SOL    HW193459  12.281   5.397  14.728
30542SOL    HW293460  12.384   5.329  14.641
30543SOL     OW93461   5.801   6.587  14.853
30543SOL    HW193462   5.883   6.573   0.022
30543SOL    HW293463   5.803   6.680  14.830
30544SOL     OW93464   3.515   1.316   6.992
30544SOL    HW193465   3.487   1.252   7.058
30544SOL    HW293466   3.436   1.368   6.975
30545SOL     OW93467   2.995   0.323   1.049
30545SOL    HW193468   2.989   0.245   1.103
30545SOL    HW293469   2.948   0.300   0.968
30546SOL     OW93470   4.345   5.328  10.446
30546SOL    HW193471   4.411   5.302  10.510
30546SOL    HW293472   4.274   5.266  10.458
30547SOL     OW93473   4.305   4.972   6.281
30547SOL    HW193474   4.396   4.943   6.274
30547SOL    HW293475   4.286   4.970   6.375
30548SOL     OW93476  12.586   1.768  13.096
30548SOL    HW193477  12.666   1.738  13.054
30548SOL    HW293478  12.616   1.809  13.178
30549SOL     OW93479   3.601   0.148   0.366
30549SOL    HW193480   3.681   0.098   0.382
30549SOL    HW293481   3.630   0.239   0.364
30550SOL     OW93482   1.725   7.373   9.378
30550SOL    HW193483   1.705   7.413   9.462
30550SOL    HW293484   1.755   7.285   9.399
30551SOL     OW93485   7.304  10.797  14.832
30551SOL    HW193486   7.333  10.883  14.864
30551SOL    HW293487   7.357  10.735   0.003
30552SOL     OW93488   2.968   1.927  14.526
30552SOL    HW193489   2.935   1.931  14.436
30552SOL    HW293490   2.914   1.860  14.568
30553SOL     OW93491  11.056   9.010   3.765
30553SOL    HW193492  11.081   8.964   3.845
30553SOL    HW293493  11.018   8.942   3.709
30554SOL     OW93494  14.767  10.511  13.554
30554SOL    HW193495  14.742  10.436  13.500
30554SOL    HW293496  14.685  10.552  13.579
30555SOL     OW93497   1.479   9.918   3.220
30555SOL    HW193498   1.477   9.851   3.288
30555SOL    HW293499   1.414   9.890   3.156
30556SOL     OW93500   0.735   3.490   6.205
30556SOL    HW193501   0.651   3.485   6.251
30556SOL    HW293502   0.716   3.539   6.125
30557SOL     OW93503   2.308   6.836   5.244
30557SOL    HW193504   2.334   6.794   5.326
30557SOL    HW293505   2.246   6.776   5.204
30558SOL     OW93506  12.104   5.185   2.921
30558SOL    HW193507  12.049   5.249   2.965
30558SOL    HW293508  12.193   5.213   2.940
30559SOL     OW93509  12.368  10.292  13.887
30559SOL    HW193510  12.390  10.202  13.910
30559SOL    HW293511  12.274  10.299  13.905
30560SOL     OW93512  13.636  14.520  14.802
30560SOL    HW193513  13.644  14.586  14.733
30560SOL    HW293514  13.645  14.436  14.757
30561SOL     OW93515  13.280   1.997   9.168
30561SOL    HW193516  13.321   2.012   9.083
30561SOL    HW293517  13.300   2.076   9.218
30562SOL     OW93518   9.913  13.882   3.547
30562SOL    HW193519   9.943  13.841   3.466
30562SOL    HW293520   9.991  13.923   3.584
30563SOL     OW93521   4.123   2.353   3.037
30563SOL    HW193522   4.076   2.309   3.108
30563SOL    HW293523   4.059   2.412   2.999
30564SOL     OW93524  13.671   1.531   5.021
30564SOL    HW193525  13.583   1.508   5.053
30564SOL    HW293526  13.658   1.552   4.929
30565SOL     OW93527   8.357   5.851   6.168
30565SOL    HW193528   8.285   5.793   6.146
30565SOL    HW293529   8.384   5.823   6.256
30566SOL     OW93530   2.161   6.975   5.557
30566SOL    HW193531   2.224   7.009   5.621
30566SOL    HW293532   2.215   6.937   5.488
30567SOL     OW93533   6.162   0.358   4.493
30567SOL    HW193534   6.181   0.380   4.402
30567SOL    HW293535   6.138   0.265   4.491
30568SOL     OW93536   5.797  10.488   6.184
30568SOL    HW193537   5.781  10.395   6.167
30568SOL    HW293538   5.848  10.518   6.109
30569SOL     OW93539   2.163   4.326   1.148
30569SOL    HW193540   2.253   4.355   1.130
30569SOL    HW293541   2.109   4.382   1.093
30570SOL     OW93542   0.428   5.938   4.817
30570SOL    HW193543   0.415   5.954   4.910
30570SOL    HW293544   0.515   5.974   4.798
30571SOL     OW93545   9.372   5.006  12.549
30571SOL    HW193546   9.461   5.010  12.585
30571SOL    HW293547   9.331   5.088  12.577
30572SOL     OW93548   8.501   1.393   9.131
30572SOL    HW193549   8.523   1.478   9.095
30572SOL    HW293550   8.556   1.331   9.083
30573SOL     OW93551   8.883   5.940   1.617
30573SOL    HW193552   8.921   6.028   1.616
30573SOL    HW293553   8.934   5.893   1.684
30574SOL     OW93554   4.975   9.800  11.700
30574SOL    HW193555   5.043   9.842  11.647
30574SOL    HW293556   4.918   9.758  11.636
30575SOL     OW93557  11.565  13.452   2.502
30575SOL    HW193558  11.480  13.435   2.542
30575SOL    HW293559  11.618  13.377   2.527
30576SOL     OW93560  14.152  10.818   2.029
30576SOL    HW193561  14.246  10.819   2.008
30576SOL    HW293562  14.111  10.865   1.956
30577SOL     OW93563   5.041  11.008  11.387
30577SOL    HW193564   5.048  11.040  11.297
30577SOL    HW293565   5.055  11.086  11.441
30578SOL     OW93566   3.046   5.704  13.264
30578SOL    HW193567   3.090   5.763  13.203
30578SOL    HW293568   3.112   5.639  13.287
30579SOL     OW93569   1.967   6.703   5.596
30579SOL    HW193570   1.912   6.773   5.562
30579SOL    HW293571   2.005   6.662   5.518
30580SOL     OW93572   2.716  11.665   0.974
30580SOL    HW193573   2.691  11.573   0.971
30580SOL    HW293574   2.811  11.665   0.969
30581SOL     OW93575   7.850   5.981  12.059
30581SOL    HW193576   7.862   6.072  12.032
30581SOL    HW293577   7.897   5.975  12.142
30582SOL     OW93578   8.842   5.947   2.590
30582SOL    HW193579   8.811   5.997   2.515
30582SOL    HW293580   8.824   6.003   2.665
30583SOL     OW93581   5.372   3.903   6.773
30583SOL    HW193582   5.349   3.992   6.801
30583SOL    HW293583   5.289   3.855   6.775
30584SOL     OW93584   6.132   4.504   2.451
30584SOL    HW193585   6.202   4.509   2.385
30584SOL    HW293586   6.172   4.458   2.525
30585SOL     OW93587   0.600   1.979  10.097
30585SOL    HW193588   0.632   2.012  10.181
30585SOL    HW293589   0.606   1.884  10.105
30586SOL     OW93590   0.661   4.600   9.466
30586SOL    HW193591   0.745   4.566   9.434
30586SOL    HW293592   0.605   4.602   9.388
30587SOL     OW93593   5.817   4.436   5.854
30587SOL    HW193594   5.902   4.430   5.809
30587SOL    HW293595   5.821   4.518   5.902
30588SOL     OW93596   9.704  11.465   6.002
30588SOL    HW193597   9.774  11.427   5.948
30588SOL    HW293598   9.647  11.509   5.939
30589SOL     OW93599   7.527   6.471  12.007
30589SOL    HW193600   7.448   6.416  12.008
30589SOL    HW293601   7.509   6.537  11.940
30590SOL     OW93602  10.699  13.422   3.315
30590SOL    HW193603  10.675  13.383   3.231
30590SOL    HW293604  10.616  13.441   3.358
30591SOL     OW93605  11.663   6.669   3.981
30591SOL    HW193606  11.734   6.677   4.043
30591SOL    HW293607  11.648   6.758   3.949
30592SOL     OW93608  10.912   5.376   3.590
30592SOL    HW193609  10.844   5.318   3.625
30592SOL    HW293610  10.867   5.458   3.571
30593SOL     OW93611   6.193  11.241   5.568
30593SOL    HW193612   6.234  11.239   5.654
30593SOL    HW293613   6.132  11.168   5.568
30594SOL     OW93614  10.983  12.395   1.483
30594SOL    HW193615  10.933  12.386   1.565
30594SOL    HW293616  11.032  12.476   1.493
30595SOL     OW93617  12.372   6.353   3.961
30595SOL    HW193618  12.367   6.369   4.055
30595SOL    HW293619  12.401   6.436   3.924
30596SOL     OW93620   0.691   2.777   0.869
30596SOL    HW193621   0.627   2.720   0.825
30596SOL    HW293622   0.676   2.761   0.963
30597SOL     OW93623   4.747  14.351   8.403
30597SOL    HW193624   4.759  14.259   8.425
30597SOL    HW293625   4.725  14.394   8.486
30598SOL     OW93626  12.952   7.140  10.217
30598SOL    HW193627  12.889   7.068  10.225
30598SOL    HW293628  13.020   7.105  10.159
30599SOL     OW93629   5.572   1.004   7.859
30599SOL    HW193630   5.578   0.949   7.781
30599SOL    HW293631   5.592   0.945   7.932
30600SOL     OW93632   7.684   3.186   4.960
30600SOL    HW193633   7.710   3.249   4.893
30600SOL    HW293634   7.657   3.240   5.034
30601SOL     OW93635  11.850   0.028  11.496
30601SOL    HW193636  11.893  14.832  11.454
30601SOL    HW293637  11.921   0.089  11.515
30602SOL     OW93638  11.925   3.083   0.514
30602SOL    HW193639  11.878   3.021   0.570
30602SOL    HW293640  12.018   3.060   0.525
30603SOL     OW93641   6.339   5.885   1.421
30603SOL    HW193642   6.315   5.800   1.458
30603SOL    HW293643   6.433   5.878   1.404
30604SOL     OW93644   3.121  12.735  13.657
30604SOL    HW193645   3.077  12.796  13.598
30604SOL    HW293646   3.060  12.662  13.667
30605SOL     OW93647  11.725   9.009   8.326
30605SOL    HW193648  11.738   9.102   8.307
30605SOL    HW293649  11.774   8.994   8.406
30606SOL     OW93650  11.864  13.155  10.113
30606SOL    HW193651  11.878  13.084  10.050
30606SOL    HW293652  11.949  13.198  10.121
30607SOL     OW93653   8.007   3.028   9.145
30607SOL    HW193654   7.926   3.079   9.139
30607SOL    HW293655   8.066   3.082   9.198
30608SOL     OW93656   9.008   8.053   7.803
30608SOL    HW193657   8.948   8.051   7.729
30608SOL    HW293658   8.966   8.000   7.870
30609SOL     OW93659   1.545   4.206  14.254
30609SOL    HW193660   1.532   4.185  14.162
30609SOL    HW293661   1.480   4.274  14.273
30610SOL     OW93662  10.100   5.306   1.339
30610SOL    HW193663  10.067   5.289   1.250
30610SOL    HW293664  10.110   5.401   1.342
30611SOL     OW93665  14.526  14.574   3.125
30611SOL    HW193666  14.461  14.520   3.082
30611SOL    HW293667  14.603  14.517   3.134
30612SOL     OW93668   5.311   4.802  13.005
30612SOL    HW193669   5.280   4.886  12.969
30612SOL    HW293670   5.402   4.796  12.976
30613SOL     OW93671   0.154  12.935   3.735
30613SOL    HW193672   0.244  12.947   3.704
30613SOL    HW293673   0.140  13.008   3.795
30614SOL     OW93674   9.504  14.636   3.389
30614SOL    HW193675   9.578  14.580   3.412
30614SOL    HW293676   9.432  14.575   3.373
30615SOL     OW93677   3.137  13.360  10.301
30615SOL    HW193678   3.133  13.355  10.397
30615SOL    HW293679   3.220  13.318  10.278
30616SOL     OW93680   4.473   4.230   4.521
30616SOL    HW193681   4.567   4.242   4.508
30616SOL    HW293682   4.438   4.218   4.432
30617SOL     OW93683  13.109   7.539   2.881
30617SOL    HW193684  13.060   7.466   2.842
30617SOL    HW293685  13.197   7.505   2.891
30618SOL     OW93686  11.513  10.716   3.574
30618SOL    HW193687  11.459  10.763   3.511
30618SOL    HW293688  11.458  10.711   3.653
30619SOL     OW93689   4.373   1.750   7.807
30619SOL    HW193690   4.393   1.843   7.818
30619SOL    HW293691   4.277   1.746   7.805
30620SOL     OW93692   7.689   1.202  13.682
30620SOL    HW193693   7.604   1.242  13.664
30620SOL    HW293694   7.735   1.204  13.599
30621SOL     OW93695  10.385   0.853   2.010
30621SOL    HW193696  10.370   0.825   2.101
30621SOL    HW293697  10.325   0.799   1.959
30622SOL     OW93698   5.722   2.442   4.538
30622SOL    HW193699   5.736   2.348   4.548
30622SOL    HW293700   5.676   2.468   4.618
30623SOL     OW93701   6.616   2.556  11.791
30623SOL    HW193702   6.624   2.578  11.884
30623SOL    HW293703   6.661   2.472  11.783
30624SOL     OW93704   7.839   8.533   3.617
30624SOL    HW193705   7.860   8.480   3.540
30624SOL    HW293706   7.881   8.487   3.690
30625SOL     OW93707   4.359   5.968  13.091
30625SOL    HW193708   4.408   6.017  13.157
30625SOL    HW293709   4.267   5.984  13.113
30626SOL     OW93710  12.210  14.376  13.192
30626SOL    HW193711  12.178  14.419  13.271
30626SOL    HW293712  12.193  14.439  13.122
30627SOL     OW93713   0.545   4.968   0.206
30627SOL    HW193714   0.471   4.944   0.151
30627SOL    HW293715   0.554   4.896   0.269
30628SOL     OW93716   8.243   1.527   1.543
30628SOL    HW193717   8.234   1.455   1.481
30628SOL    HW293718   8.235   1.606   1.489
30629SOL     OW93719  11.952   4.304  13.598
30629SOL    HW193720  12.047   4.310  13.594
30629SOL    HW293721  11.922   4.395  13.598
30630SOL     OW93722   9.031   1.644  11.818
30630SOL    HW193723   9.021   1.550  11.803
30630SOL    HW293724   9.119   1.654  11.853
30631SOL     OW93725  11.950   2.898   8.362
30631SOL    HW193726  11.989   2.984   8.349
30631SOL    HW293727  11.894   2.907   8.439
30632SOL     OW93728   4.477  14.711  10.456
30632SOL    HW193729   4.568  14.693  10.434
30632SOL    HW293730   4.426  14.661  10.392
30633SOL     OW93731  11.283   3.049  11.010
30633SOL    HW193732  11.363   3.013  10.971
30633SOL    HW293733  11.218   2.979  11.001
30634SOL     OW93734   0.555  12.906  14.683
30634SOL    HW193735   0.489  12.974  14.675
30634SOL    HW293736   0.629  12.936  14.631
30635SOL     OW93737   6.627  13.210   3.221
30635SOL    HW193738   6.606  13.299   3.248
30635SOL    HW293739   6.608  13.209   3.127
30636SOL     OW93740   4.961  10.476  14.573
30636SOL    HW193741   4.888  10.492  14.634
30636SOL    HW293742   5.039  10.503  14.622
30637SOL     OW93743   6.884  14.780   9.658
30637SOL    HW193744   6.860  14.853   9.716
30637SOL    HW293745   6.976  14.796   9.637
30638SOL     OW93746  10.974   5.966   3.780
30638SOL    HW193747  11.044   5.910   3.814
30638SOL    HW293748  11.013   6.054   3.778
30639SOL     OW93749   0.475  14.440  10.875
30639SOL    HW193750   0.551  14.404  10.920
30639SOL    HW293751   0.509  14.514  10.824
30640SOL     OW93752  12.671   0.583   1.870
30640SOL    HW193753  12.593   0.581   1.815
30640SOL    HW293754  12.720   0.660   1.838
30641SOL     OW93755   6.367  11.364   9.270
30641SOL    HW193756   6.273  11.372   9.250
30641SOL    HW293757   6.369  11.327   9.359
30642SOL     OW93758   4.989  10.640  12.425
30642SOL    HW193759   4.943  10.719  12.454
30642SOL    HW293760   5.070  10.672  12.386
30643SOL     OW93761   1.803   0.579   9.277
30643SOL    HW193762   1.808   0.570   9.372
30643SOL    HW293763   1.729   0.637   9.262
30644SOL     OW93764   2.552   0.018  12.426
30644SOL    HW193765   2.572   0.077  12.354
30644SOL    HW293766   2.581   0.065  12.505
30645SOL     OW93767  13.876  14.048   4.498
30645SOL    HW193768  13.929  14.113   4.546
30645SOL    HW293769  13.825  14.004   4.566
30646SOL     OW93770   6.478   2.440   3.185
30646SOL    HW193771   6.442   2.353   3.167
30646SOL    HW293772   6.510   2.470   3.100
30647SOL     OW93773  13.626  10.463   2.097
30647SOL    HW193774  13.684  10.532   2.128
30647SOL    HW293775  13.685  10.399   2.056
30648SOL     OW93776   3.644   4.678   2.740
30648SOL    HW193777   3.663   4.669   2.647
30648SOL    HW293778   3.554   4.647   2.750
30649SOL     OW93779   3.047   4.403  12.851
30649SOL    HW193780   3.138   4.432  12.842
30649SOL    HW293781   2.996   4.482  12.834
30650SOL     OW93782   6.221   3.277   2.978
30650SOL    HW193783   6.276   3.305   2.904
30650SOL    HW293784   6.274   3.214   3.026
30651SOL     OW93785   7.277   4.490   3.907
30651SOL    HW193786   7.207   4.456   3.963
30651SOL    HW293787   7.322   4.554   3.962
30652SOL     OW93788   1.829   5.159   4.513
30652SOL    HW193789   1.789   5.142   4.428
30652SOL    HW293790   1.792   5.092   4.570
30653SOL     OW93791   5.252  12.544   7.809
30653SOL    HW193792   5.166  12.579   7.832
30653SOL    HW293793   5.234  12.471   7.750
30654SOL     OW93794   6.376  10.583   2.436
30654SOL    HW193795   6.398  10.532   2.358
30654SOL    HW293796   6.460  10.595   2.481
30655SOL     OW93797   0.495   4.043   3.054
30655SOL    HW193798   0.544   4.027   3.135
30655SOL    HW293799   0.405   4.055   3.082
30656SOL     OW93800   5.864   4.294  10.226
30656SOL    HW193801   5.790   4.270  10.282
30656SOL    HW293802   5.873   4.388  10.236
30657SOL     OW93803   7.094   4.971  11.772
30657SOL    HW193804   7.064   4.936  11.688
30657SOL    HW293805   7.015   5.002  11.815
30658SOL     OW93806   5.717   9.980   6.272
30658SOL    HW193807   5.775   9.963   6.346
30658SOL    HW293808   5.637  10.014   6.312
30659SOL     OW93809  12.297   8.763  12.910
30659SOL    HW193810  12.356   8.735  12.980
30659SOL    HW293811  12.350   8.760  12.830
30660SOL     OW93812  10.990   8.378   6.495
30660SOL    HW193813  11.002   8.303   6.553
30660SOL    HW293814  11.045   8.447   6.533
30661SOL     OW93815   8.102  12.455  10.694
30661SOL    HW193816   8.196  12.437  10.693
30661SOL    HW293817   8.064  12.384  10.641
30662SOL     OW93818  10.210  10.785   5.560
30662SOL    HW193819  10.306  10.790   5.553
30662SOL    HW293820  10.180  10.773   5.470
30663SOL     OW93821  12.517  11.770  10.090
30663SOL    HW193822  12.476  11.856  10.093
30663SOL    HW293823  12.531  11.747  10.182
30664SOL     OW93824   5.317  13.095   7.484
30664SOL    HW193825   5.281  13.125   7.401
30664SOL    HW293826   5.306  13.000   7.482
30665SOL     OW93827   3.810  12.246   3.477
30665SOL    HW193828   3.739  12.307   3.495
30665SOL    HW293829   3.888  12.301   3.469
30666SOL     OW93830   5.218   2.328   6.726
30666SOL    HW193831   5.124   2.311   6.726
30666SOL    HW293832   5.248   2.296   6.641
30667SOL     OW93833   3.412   8.269   1.066
30667SOL    HW193834   3.382   8.337   1.126
30667SOL    HW293835   3.382   8.298   0.980
30668SOL     OW93836   5.999   9.661   1.948
30668SOL    HW193837   6.059   9.676   2.021
30668SOL    HW293838   5.967   9.572   1.961
30669SOL     OW93839   0.139   2.448   5.327
30669SOL    HW193840   0.152   2.505   5.251
30669SOL    HW293841   0.157   2.505   5.402
30670SOL     OW93842  13.386   5.618  11.902
30670SOL    HW193843  13.472   5.659  11.911
30670SOL    HW293844  13.383   5.586  11.812
30671SOL     OW93845   4.388  12.813  12.696
30671SOL    HW193846   4.374  12.907  12.680
30671SOL    HW293847   4.403  12.776  12.609
30672SOL     OW93848   4.520   9.271   2.086
30672SOL    HW193849   4.553   9.354   2.120
30672SOL    HW293850   4.476   9.230   2.160
30673SOL     OW93851   8.785  10.671   5.816
30673SOL    HW193852   8.742  10.586   5.814
30673SOL    HW293853   8.839  10.673   5.737
30674SOL     OW93854   4.360  10.929  13.213
30674SOL    HW193855   4.291  10.991  13.192
30674SOL    HW293856   4.381  10.946  13.305
30675SOL     OW93857   7.096   9.973   4.145
30675SOL    HW193858   7.169   9.961   4.083
30675SOL    HW293859   7.110   9.906   4.211
30676SOL     OW93860  12.275   3.522   2.523
30676SOL    HW193861  12.190   3.562   2.503
30676SOL    HW293862  12.255   3.431   2.542
30677SOL     OW93863   4.538   3.954   5.118
30677SOL    HW193864   4.614   3.906   5.085
30677SOL    HW293865   4.464   3.919   5.068
30678SOL     OW93866   8.454  11.213  12.210
30678SOL    HW193867   8.466  11.289  12.268
30678SOL    HW293868   8.529  11.216  12.151
30679SOL     OW93869   5.441  12.909   3.546
30679SOL    HW193870   5.393  12.841   3.499
30679SOL    HW293871   5.423  12.989   3.498
30680SOL     OW93872   6.511   4.598  11.950
30680SOL    HW193873   6.585   4.644  11.988
30680SOL    HW293874   6.549   4.517  11.914
30681SOL     OW93875   2.075   1.663  11.697
30681SOL    HW193876   2.046   1.576  11.727
30681SOL    HW293877   2.022   1.680  11.619
30682SOL     OW93878  10.847   6.569  11.879
30682SOL    HW193879  10.847   6.614  11.964
30682SOL    HW293880  10.926   6.515  11.882
30683SOL     OW93881  14.665   5.593   0.771
30683SOL    HW193882  14.598   5.656   0.745
30683SOL    HW293883  14.621   5.539   0.837
30684SOL     OW93884   5.203  13.605  10.184
30684SOL    HW193885   5.283  13.613  10.236
30684SOL    HW293886   5.181  13.512  10.186
30685SOL     OW93887  12.927   8.047  11.455
30685SOL    HW193888  13.023   8.053  11.453
30685SOL    HW293889  12.905   7.996  11.377
30686SOL     OW93890   8.100   1.037   9.065
30686SOL    HW193891   8.152   1.078   9.134
30686SOL    HW293892   8.010   1.043   9.096
30687SOL     OW93893   5.775  12.886   4.513
30687SOL    HW193894   5.715  12.959   4.503
30687SOL    HW293895   5.742  12.818   4.455
30688SOL     OW93896   6.824   3.455  10.436
30688SOL    HW193897   6.879   3.522  10.477
30688SOL    HW293898   6.752   3.505  10.396
30689SOL     OW93899  10.967   4.392   6.529
30689SOL    HW193900  10.960   4.377   6.435
30689SOL    HW293901  11.055   4.365   6.552
30690SOL     OW93902   2.583  12.498   1.174
30690SOL    HW193903   2.627  12.413   1.171
30690SOL    HW293904   2.633  12.553   1.113
30691SOL     OW93905   3.552  13.149  13.114
30691SOL    HW193906   3.547  13.054  13.126
30691SOL    HW293907   3.526  13.185  13.199
30692SOL     OW93908  10.169   2.319  13.496
30692SOL    HW193909  10.126   2.287  13.576
30692SOL    HW293910  10.245   2.367  13.527
30693SOL     OW93911   0.578   9.965   6.056
30693SOL    HW193912   0.590  10.030   5.987
30693SOL    HW293913   0.665   9.957   6.096
30694SOL     OW93914  10.994   5.073   4.052
30694SOL    HW193915  11.032   5.066   4.140
30694SOL    HW293916  10.900   5.059   4.065
30695SOL     OW93917   9.689   4.083  12.110
30695SOL    HW193918   9.702   4.125  12.195
30695SOL    HW293919   9.707   3.991  12.125
30696SOL     OW93920   0.946   8.155   1.293
30696SOL    HW193921   0.939   8.066   1.327
30696SOL    HW293922   0.987   8.144   1.207
30697SOL     OW93923   7.243   7.100   0.200
30697SOL    HW193924   7.253   7.067   0.289
30697SOL    HW293925   7.188   7.178   0.209
30698SOL     OW93926  13.012   3.085   7.926
30698SOL    HW193927  12.954   3.014   7.898
30698SOL    HW293928  13.100   3.049   7.917
30699SOL     OW93929   0.516   1.574  13.731
30699SOL    HW193930   0.558   1.516  13.794
30699SOL    HW293931   0.588   1.613  13.683
30700SOL     OW93932   7.491  10.147   6.817
30700SOL    HW193933   7.532  10.066   6.847
30700SOL    HW293934   7.543  10.216   6.858
30701SOL     OW93935   5.660   7.748  14.820
30701SOL    HW193936   5.669   7.829  14.769
30701SOL    HW293937   5.748   7.730  14.851
30702SOL     OW93938  13.035   2.789  12.470
30702SOL    HW193939  13.130   2.778  12.477
30702SOL    HW293940  13.011   2.847  12.542
30703SOL     OW93941   6.721   4.629  13.152
30703SOL    HW193942   6.786   4.679  13.104
30703SOL    HW293943   6.769   4.554  13.187
30704SOL     OW93944  12.038  14.154   3.117
30704SOL    HW193945  12.089  14.091   3.065
30704SOL    HW293946  11.972  14.188   3.056
30705SOL     OW93947  13.867  13.688  14.146
30705SOL    HW193948  13.933  13.758  14.141
30705SOL    HW293949  13.907  13.615  14.098
30706SOL     OW93950   2.547  11.911   4.018
30706SOL    HW193951   2.608  11.907   3.945
30706SOL    HW293952   2.579  11.846   4.081
30707SOL     OW93953   0.590  12.672   2.822
30707SOL    HW193954   0.615  12.675   2.730
30707SOL    HW293955   0.598  12.763   2.852
30708SOL     OW93956   4.153  11.586   9.539
30708SOL    HW193957   4.217  11.542   9.594
30708SOL    HW293958   4.078  11.602   9.598
30709SOL     OW93959   5.016   1.462  13.573
30709SOL    HW193960   5.001   1.512  13.494
30709SOL    HW293961   5.085   1.510  13.620
30710SOL     OW93962   1.345   6.114  13.545
30710SOL    HW193963   1.392   6.098  13.627
30710SOL    HW293964   1.314   6.204  13.552
30711SOL     OW93965   9.086  11.177   6.527
30711SOL    HW193966   9.011  11.129   6.563
30711SOL    HW293967   9.047  11.237   6.464
30712SOL     OW93968  11.166   0.074  14.824
30712SOL    HW193969  11.252   0.058  14.784
30712SOL    HW293970  11.158   0.170  14.825
30713SOL     OW93971  12.847   5.597  12.332
30713SOL    HW193972  12.912   5.668  12.332
30713SOL    HW293973  12.899   5.517  12.340
30714SOL     OW93974  13.295  12.682  11.158
30714SOL    HW193975  13.223  12.619  11.148
30714SOL    HW293976  13.307  12.718  11.070
30715SOL     OW93977  10.989   4.160  13.044
30715SOL    HW193978  11.065   4.103  13.055
30715SOL    HW293979  10.918   4.100  13.022
30716SOL     OW93980  10.720   0.615  13.297
30716SOL    HW193981  10.811   0.644  13.298
30716SOL    HW293982  10.708   0.572  13.382
30717SOL     OW93983   5.652   2.663  11.815
30717SOL    HW193984   5.727   2.641  11.870
30717SOL    HW293985   5.690   2.701  11.736
30718SOL     OW93986  11.720  11.861   4.391
30718SOL    HW193987  11.731  11.777   4.436
30718SOL    HW293988  11.671  11.915   4.452
30719SOL     OW93989   1.945   5.217   0.168
30719SOL    HW193990   1.916   5.152   0.105
30719SOL    HW293991   2.035   5.237   0.142
30720SOL     OW93992   2.406   2.352  10.184
30720SOL    HW193993   2.345   2.279  10.185
30720SOL    HW293994   2.472   2.329  10.250
30721SOL     OW93995  11.822   1.385  12.628
30721SOL    HW193996  11.815   1.309  12.571
30721SOL    HW293997  11.762   1.367  12.700
30722SOL     OW93998  13.808  11.366   0.317
30722SOL    HW193999  13.745  11.392   0.250
30722SOL    HW294000  13.806  11.437   0.382
30723SOL     OW94001   7.575   3.860  13.369
30723SOL    HW194002   7.547   3.931  13.428
30723SOL    HW294003   7.664   3.841  13.396
30724SOL     OW94004  13.802   6.054   3.977
30724SOL    HW194005  13.815   5.998   3.900
30724SOL    HW294006  13.817   5.996   4.052
30725SOL     OW94007   4.480   4.966   9.512
30725SOL    HW194008   4.502   4.874   9.504
30725SOL    HW294009   4.386   4.971   9.494
30726SOL     OW94010   0.314   2.508  10.643
30726SOL    HW194011   0.258   2.584  10.659
30726SOL    HW294012   0.385   2.541  10.589
30727SOL     OW94013   0.858   9.606   8.777
30727SOL    HW194014   0.881   9.584   8.687
30727SOL    HW294015   0.764   9.590   8.783
30728SOL     OW94016   2.021   6.290   6.978
30728SOL    HW194017   2.008   6.243   6.895
30728SOL    HW294018   2.106   6.260   7.009
30729SOL     OW94019  14.708  11.947   4.320
30729SOL    HW194020  14.648  12.022   4.310
30729SOL    HW294021  14.756  11.944   4.238
30730SOL     OW94022   3.752   9.936  10.733
30730SOL    HW194023   3.835   9.981  10.719
30730SOL    HW294024   3.776   9.852  10.773
30731SOL     OW94025   9.388   4.937   1.223
30731SOL    HW194026   9.380   4.974   1.135
30731SOL    HW294027   9.340   4.855   1.220
30732SOL     OW94028   9.061  11.317   4.779
30732SOL    HW194029   8.988  11.294   4.837
30732SOL    HW294030   9.019  11.335   4.695
30733SOL     OW94031  13.674  14.746   9.881
30733SOL    HW194032  13.700  14.776   9.968
30733SOL    HW294033  13.617  14.816   9.848
30734SOL     OW94034   3.199   1.601  10.695
30734SOL    HW194035   3.221   1.570  10.783
30734SOL    HW294036   3.187   1.521  10.644
30735SOL     OW94037   4.211   4.946  14.019
30735SOL    HW194038   4.184   5.036  14.038
30735SOL    HW294039   4.209   4.902  14.104
30736SOL     OW94040   3.845   5.021   4.683
30736SOL    HW194041   3.895   4.959   4.736
30736SOL    HW294042   3.832   5.096   4.741
30737SOL     OW94043   7.276   4.497   0.860
30737SOL    HW194044   7.212   4.494   0.932
30737SOL    HW294045   7.349   4.548   0.895
30738SOL     OW94046   1.766   8.833   7.828
30738SOL    HW194047   1.735   8.871   7.910
30738SOL    HW294048   1.853   8.798   7.849
30739SOL     OW94049   7.583   0.179  11.945
30739SOL    HW194050   7.615   0.094  11.915
30739SOL    HW294051   7.597   0.238  11.870
30740SOL     OW94052  12.660   2.897  13.758
30740SOL    HW194053  12.624   2.937  13.838
30740SOL    HW294054  12.755   2.905  13.768
30741SOL     OW94055   7.498   4.613   0.968
30741SOL    HW194056   7.569   4.550   0.949
30741SOL    HW294057   7.509   4.633   1.061
30742SOL     OW94058   2.743  11.354  11.339
30742SOL    HW194059   2.652  11.345  11.369
30742SOL    HW294060   2.757  11.279  11.282
30743SOL     OW94061  10.530  11.946   0.728
30743SOL    HW194062  10.491  11.894   0.798
30743SOL    HW294063  10.597  11.889   0.690
30744SOL     OW94064   1.924   7.810   0.036
30744SOL    HW194065   1.843   7.788   0.082
30744SOL    HW294066   1.921   7.905   0.026
30745SOL     OW94067   4.395   1.407   0.723
30745SOL    HW194068   4.303   1.390   0.701
30745SOL    HW294069   4.442   1.331   0.690
30746SOL     OW94070   2.173   3.784  12.733
30746SOL    HW194071   2.131   3.727  12.668
30746SOL    HW294072   2.259   3.745  12.747
30747SOL     OW94073  13.942   5.351   1.549
30747SOL    HW194074  13.915   5.326   1.637
30747SOL    HW294075  13.940   5.270   1.499
30748SOL     OW94076   9.699   7.414   7.224
30748SOL    HW194077   9.674   7.322   7.232
30748SOL    HW294078   9.776   7.412   7.167
30749SOL     OW94079  12.500   4.684   0.397
30749SOL    HW194080  12.514   4.766   0.349
30749SOL    HW294081  12.417   4.697   0.444
30750SOL     OW94082  12.303  14.723  10.470
30750SOL    HW194083  12.316  14.816  10.452
30750SOL    HW294084  12.311  14.680  10.385
30751SOL     OW94085   2.616  11.890   1.354
30751SOL    HW194086   2.678  11.898   1.282
30751SOL    HW294087   2.669  11.860   1.428
30752SOL     OW94088   9.427  14.446   8.619
30752SOL    HW194089   9.416  14.352   8.606
30752SOL    HW294090   9.445  14.455   8.713
30753SOL     OW94091  10.972  14.779   0.776
30753SOL    HW194092  11.067  14.786   0.770
30753SOL    HW294093  10.947  14.720   0.705
30754SOL     OW94094  11.103   9.951   3.007
30754SOL    HW194095  11.126   9.968   2.916
30754SOL    HW294096  11.092  10.038   3.046
30755SOL     OW94097  10.963   1.432  11.613
30755SOL    HW194098  10.919   1.516  11.603
30755SOL    HW294099  10.972   1.399  11.523
30756SOL     OW94100  11.150  14.286   6.469
30756SOL    HW194101  11.172  14.256   6.557
30756SOL    HW294102  11.134  14.206   6.419
30757SOL     OW94103  10.726   7.814   4.610
30757SOL    HW194104  10.786   7.787   4.541
30757SOL    HW294105  10.783   7.839   4.683
30758SOL     OW94106  13.122   5.000   5.270
30758SOL    HW194107  13.042   5.029   5.226
30758SOL    HW294108  13.175   5.079   5.279
30759SOL     OW94109   1.018   0.856   9.492
30759SOL    HW194110   1.105   0.885   9.519
30759SOL    HW294111   1.010   0.886   9.401
30760SOL     OW94112   1.795   0.850  13.646
30760SOL    HW194113   1.822   0.937  13.616
30760SOL    HW294114   1.863   0.791  13.612
30761SOL     OW94115   9.516  11.693   8.003
30761SOL    HW194116   9.508  11.696   8.098
30761SOL    HW294117   9.469  11.771   7.972
30762SOL     OW94118   2.196   7.314  13.518
30762SOL    HW194119   2.285   7.285  13.536
30762SOL    HW294120   2.171   7.265  13.440
30763SOL     OW94121   0.595  12.955   7.167
30763SOL    HW194122   0.643  12.889   7.216
30763SOL    HW294123   0.521  12.908   7.129
30764SOL     OW94124   5.674  14.548   3.570
30764SOL    HW194125   5.588  14.559   3.611
30764SOL    HW294126   5.730  14.612   3.614
30765SOL     OW94127  10.746   3.741  11.336
30765SOL    HW194128  10.672   3.686  11.312
30765SOL    HW294129  10.742   3.815  11.275
30766SOL     OW94130   2.941   0.771   0.538
30766SOL    HW194131   2.885   0.817   0.475
30766SOL    HW294132   2.918   0.808   0.623
30767SOL     OW94133   8.843   9.159   2.905
30767SOL    HW194134   8.751   9.132   2.901
30767SOL    HW294135   8.840   9.248   2.940
30768SOL     OW94136  13.550   8.264  10.341
30768SOL    HW194137  13.509   8.348  10.320
30768SOL    HW294138  13.640   8.273  10.308
30769SOL     OW94139  11.023   6.747  10.195
30769SOL    HW194140  11.107   6.701  10.197
30769SOL    HW294141  11.006   6.770  10.287
30770SOL     OW94142   4.132   6.634   8.211
30770SOL    HW194143   4.187   6.638   8.133
30770SOL    HW294144   4.054   6.685   8.189
30771SOL     OW94145  10.305   6.789  10.957
30771SOL    HW194146  10.296   6.877  10.919
30771SOL    HW294147  10.392   6.790  10.997
30772SOL     OW94148   5.728   8.283  10.098
30772SOL    HW194149   5.686   8.295  10.013
30772SOL    HW294150   5.776   8.364  10.114
30773SOL     OW94151   4.171   4.192  13.589
30773SOL    HW194152   4.121   4.273  13.581
30773SOL    HW294153   4.260   4.216  13.561
30774SOL     OW94154   1.484  11.402  11.705
30774SOL    HW194155   1.509  11.311  11.688
30774SOL    HW294156   1.395  11.395  11.741
30775SOL     OW94157   4.613  10.840   2.913
30775SOL    HW194158   4.687  10.870   2.965
30775SOL    HW294159   4.599  10.910   2.849
30776SOL     OW94160   6.992   7.827  10.957
30776SOL    HW194161   6.899   7.807  10.948
30776SOL    HW294162   7.019   7.858  10.870
30777SOL     OW94163  11.485   9.578   4.671
30777SOL    HW194164  11.520   9.532   4.747
30777SOL    HW294165  11.459   9.508   4.611
30778SOL     OW94166  10.215   8.983   3.354
30778SOL    HW194167  10.257   8.982   3.268
30778SOL    HW294168  10.130   9.024   3.339
30779SOL     OW94169   8.083   5.639   5.771
30779SOL    HW194170   8.010   5.631   5.710
30779SOL    HW294171   8.105   5.733   5.770
30780SOL     OW94172   1.624  10.241   3.718
30780SOL    HW194173   1.638  10.294   3.639
30780SOL    HW294174   1.575  10.165   3.687
30781SOL     OW94175   2.545   0.581   5.597
30781SOL    HW194176   2.610   0.512   5.591
30781SOL    HW294177   2.508   0.588   5.509
30782SOL     OW94178   7.648   6.903   5.351
30782SOL    HW194179   7.706   6.918   5.425
30782SOL    HW294180   7.690   6.946   5.277
30783SOL     OW94181   4.420  13.714   5.369
30783SOL    HW194182   4.478  13.673   5.305
30783SOL    HW294183   4.445  13.806   5.369
30784SOL     OW94184   7.937   5.236   8.679
30784SOL    HW194185   7.946   5.283   8.596
30784SOL    HW294186   8.026   5.231   8.714
30785SOL     OW94187  14.745   4.101   7.585
30785SOL    HW194188  14.661   4.098   7.631
30785SOL    HW294189  14.757   4.193   7.563
30786SOL     OW94190  12.536  11.694  10.362
30786SOL    HW194191  12.460  11.718  10.415
30786SOL    HW294192  12.607  11.684  10.425
30787SOL     OW94193   5.060   7.989   4.605
30787SOL    HW194194   5.051   7.955   4.516
30787SOL    HW294195   5.090   7.913   4.656
30788SOL     OW94196   3.122  13.650   9.075
30788SOL    HW194197   3.112  13.599   8.995
30788SOL    HW294198   3.188  13.716   9.053
30789SOL     OW94199   2.491   3.568   2.506
30789SOL    HW194200   2.527   3.630   2.569
30789SOL    HW294201   2.445   3.504   2.560
30790SOL     OW94202   7.081  10.969   1.090
30790SOL    HW194203   7.066  11.060   1.064
30790SOL    HW294204   7.131  10.976   1.171
30791SOL     OW94205   3.763   0.257   6.619
30791SOL    HW194206   3.685   0.264   6.674
30791SOL    HW294207   3.741   0.189   6.554
30792SOL     OW94208   7.347   8.265   1.221
30792SOL    HW194209   7.303   8.246   1.305
30792SOL    HW294210   7.329   8.188   1.167
30793SOL     OW94211   8.109   9.864  14.218
30793SOL    HW194212   8.146   9.822  14.141
30793SOL    HW294213   8.164   9.941  14.232
30794SOL     OW94214   3.958  10.431   2.043
30794SOL    HW194215   3.969  10.356   2.102
30794SOL    HW294216   3.956  10.506   2.102
30795SOL     OW94217   5.555   0.325  13.594
30795SOL    HW194218   5.594   0.395  13.541
30795SOL    HW294219   5.517   0.265  13.529
30796SOL     OW94220   4.335   3.685   7.039
30796SOL    HW194221   4.246   3.721   7.033
30796SOL    HW294222   4.380   3.720   6.962
30797SOL     OW94223   4.278  10.388   7.374
30797SOL    HW194224   4.214  10.445   7.332
30797SOL    HW294225   4.301  10.323   7.307
30798SOL     OW94226   8.324  10.254   6.882
30798SOL    HW194227   8.351  10.228   6.793
30798SOL    HW294228   8.263  10.186   6.910
30799SOL     OW94229   0.456  10.648  14.157
30799SOL    HW194230   0.415  10.665  14.242
30799SOL    HW294231   0.517  10.721  14.145
30800SOL     OW94232   7.452  14.708  12.097
30800SOL    HW194233   7.462  14.743  12.186
30800SOL    HW294234   7.504  14.766  12.042
30801SOL     OW94235   8.324  12.931   5.632
30801SOL    HW194236   8.274  12.944   5.712
30801SOL    HW294237   8.360  13.018   5.612
30802SOL     OW94238   5.412   2.080   1.624
30802SOL    HW194239   5.332   2.130   1.641
30802SOL    HW294240   5.408   2.008   1.687
30803SOL     OW94241   0.470  14.523   7.820
30803SOL    HW194242   0.552  14.477   7.800
30803SOL    HW294243   0.496  14.598   7.872
30804SOL     OW94244  14.090   1.886  10.759
30804SOL    HW194245  14.172   1.936  10.768
30804SOL    HW294246  14.071   1.854  10.848
30805SOL     OW94247   8.896   0.701  13.704
30805SOL    HW194248   8.850   0.668  13.627
30805SOL    HW294249   8.987   0.714  13.674
30806SOL     OW94250   2.085  13.483   7.825
30806SOL    HW194251   2.044  13.397   7.836
30806SOL    HW294252   2.018  13.546   7.853
30807SOL     OW94253   9.083   9.535  10.984
30807SOL    HW194254   9.084   9.613  10.929
30807SOL    HW294255   8.991   9.519  11.001
30808SOL     OW94256  12.398   1.131  10.268
30808SOL    HW194257  12.346   1.052  10.280
30808SOL    HW294258  12.486   1.107  10.297
30809SOL     OW94259   8.898   7.136   0.221
30809SOL    HW194260   8.912   7.214   0.169
30809SOL    HW294261   8.943   7.066   0.173
30810SOL     OW94262   6.584   5.538   2.276
30810SOL    HW194263   6.583   5.505   2.186
30810SOL    HW294264   6.674   5.523   2.305
30811SOL     OW94265   0.778   1.523  13.588
30811SOL    HW194266   0.858   1.552  13.631
30811SOL    HW294267   0.768   1.582  13.514
30812SOL     OW94268   3.447   7.480  11.044
30812SOL    HW194269   3.521   7.423  11.022
30812SOL    HW294270   3.373   7.421  11.054
30813SOL     OW94271   2.078  10.225   3.951
30813SOL    HW194272   2.156  10.216   3.896
30813SOL    HW294273   2.006  10.199   3.894
30814SOL     OW94274  10.750   4.212   0.374
30814SOL    HW194275  10.739   4.136   0.432
30814SOL    HW294276  10.837   4.246   0.397
30815SOL     OW94277  12.450   7.910   1.842
30815SOL    HW194278  12.446   7.882   1.933
30815SOL    HW294279  12.520   7.857   1.804
30816SOL     OW94280  14.076  10.481   1.100
30816SOL    HW194281  14.097  10.542   1.029
30816SOL    HW294282  14.160  10.468   1.145
30817SOL     OW94283   8.735   0.736  14.642
30817SOL    HW194284   8.756   0.705  14.554
30817SOL    HW294285   8.640   0.746  14.642
30818SOL     OW94286   0.078   4.564   6.482
30818SOL    HW194287   0.158   4.573   6.431
30818SOL    HW294288   0.098   4.606   6.565
30819SOL     OW94289  13.327   3.534   6.471
30819SOL    HW194290  13.403   3.490   6.509
30819SOL    HW294291  13.349   3.627   6.473
30820SOL     OW94292  14.826   6.104   2.468
30820SOL    HW194293  14.753   6.063   2.422
30820SOL    HW294294  14.860   6.168   2.406
30821SOL     OW94295  13.076   1.713   9.520
30821SOL    HW194296  13.057   1.621   9.534
30821SOL    HW294297  13.024   1.738   9.444
30822SOL     OW94298  14.224  10.712   0.678
30822SOL    HW194299  14.312  10.737   0.650
30822SOL    HW294300  14.170  10.790   0.661
30823SOL     OW94301   4.101   5.233   9.828
30823SOL    HW194302   4.165   5.167   9.856
30823SOL    HW294303   4.070   5.272   9.910
30824SOL     OW94304   7.849  11.944   0.653
30824SOL    HW194305   7.830  11.874   0.591
30824SOL    HW294306   7.773  11.946   0.711
30825SOL     OW94307   3.467  11.665   7.576
30825SOL    HW194308   3.459  11.733   7.642
30825SOL    HW294309   3.424  11.701   7.498
30826SOL     OW94310  14.589  10.171   9.685
30826SOL    HW194311  14.630  10.110   9.746
30826SOL    HW294312  14.572  10.118   9.606
30827SOL     OW94313   2.996   5.447  13.972
30827SOL    HW194314   2.946   5.418  14.048
30827SOL    HW294315   3.033   5.531  13.997
30828SOL     OW94316   7.257   0.263   7.299
30828SOL    HW194317   7.273   0.228   7.211
30828SOL    HW294318   7.242   0.356   7.285
30829SOL     OW94319   5.448   6.372   8.625
30829SOL    HW194320   5.368   6.370   8.677
30829SOL    HW294321   5.487   6.458   8.644
30830SOL     OW94322  10.621   2.979   2.887
30830SOL    HW194323  10.632   3.070   2.915
30830SOL    HW294324  10.542   2.949   2.934
30831SOL     OW94325   4.222   2.963   6.892
30831SOL    HW194326   4.248   2.928   6.807
30831SOL    HW294327   4.268   3.047   6.898
30832SOL     OW94328  13.358   7.610  14.232
30832SOL    HW194329  13.442   7.622  14.186
30832SOL    HW294330  13.361   7.520  14.264
30833SOL     OW94331  11.787   1.813  11.001
30833SOL    HW194332  11.801   1.907  10.994
30833SOL    HW294333  11.764   1.799  11.093
30834SOL     OW94334   9.861   9.255   8.789
30834SOL    HW194335   9.777   9.273   8.831
30834SOL    HW294336   9.910   9.337   8.795
30835SOL     OW94337   1.910  14.121   4.380
30835SOL    HW194338   1.904  14.038   4.333
30835SOL    HW294339   1.819  14.147   4.394
30836SOL     OW94340   8.524   5.054   8.139
30836SOL    HW194341   8.568   5.058   8.054
30836SOL    HW294342   8.536   5.142   8.176
30837SOL     OW94343  10.065   5.114   3.464
30837SOL    HW194344  10.153   5.088   3.435
30837SOL    HW294345  10.037   5.044   3.523
30838SOL     OW94346  13.821  11.643  13.916
30838SOL    HW194347  13.808  11.570  13.856
30838SOL    HW294348  13.786  11.719  13.870
30839SOL     OW94349   8.206   3.039   6.660
30839SOL    HW194350   8.175   2.949   6.651
30839SOL    HW294351   8.173   3.068   6.745
30840SOL     OW94352   6.490   3.988   7.293
30840SOL    HW194353   6.483   4.080   7.267
30840SOL    HW294354   6.401   3.962   7.315
30841SOL     OW94355   7.815   7.709   1.197
30841SOL    HW194356   7.778   7.788   1.235
30841SOL    HW294357   7.861   7.740   1.119
30842SOL     OW94358   9.924   9.962   1.818
30842SOL    HW194359   9.926  10.057   1.825
30842SOL    HW294360   9.831   9.940   1.814
30843SOL     OW94361   1.337   8.365  14.435
30843SOL    HW194362   1.344   8.397  14.525
30843SOL    HW294363   1.378   8.433  14.382
30844SOL     OW94364   4.914   3.869   7.093
30844SOL    HW194365   4.904   3.832   7.180
30844SOL    HW294366   4.879   3.801   7.034
30845SOL     OW94367   1.511   8.919   2.224
30845SOL    HW194368   1.536   8.993   2.168
30845SOL    HW294369   1.487   8.960   2.307
30846SOL     OW94370   8.999  13.751   4.998
30846SOL    HW194371   9.030  13.707   5.077
30846SOL    HW294372   8.904  13.759   5.011
30847SOL     OW94373  12.966  13.262   9.668
30847SOL    HW194374  12.876  13.227   9.667
30847SOL    HW294375  12.973  13.308   9.752
30848SOL     OW94376   1.164   6.133  13.788
30848SOL    HW194377   1.136   6.225  13.783
30848SOL    HW294378   1.236   6.134  13.851
30849SOL     OW94379  11.930   1.913   2.668
30849SOL    HW194380  11.938   1.820   2.649
30849SOL    HW294381  11.836   1.931   2.664
30850SOL     OW94382  11.801  12.171  10.069
30850SOL    HW194383  11.726  12.223  10.040
30850SOL    HW294384  11.832  12.128   9.989
30851SOL     OW94385  14.849  14.530   1.351
30851SOL    HW194386  14.871  14.570   1.435
30851SOL    HW294387  14.854  14.436   1.367
30852SOL     OW94388   1.750   8.465   5.037
30852SOL    HW194389   1.676   8.420   4.996
30852SOL    HW294390   1.810   8.483   4.965
30853SOL     OW94391   3.012  10.818  13.491
30853SOL    HW194392   2.994  10.732  13.528
30853SOL    HW294393   3.042  10.871  13.564
30854SOL     OW94394   4.539  10.949  10.068
30854SOL    HW194395   4.496  11.023  10.112
30854SOL    HW294396   4.575  10.988   9.988
30855SOL     OW94397   5.315   8.756   4.086
30855SOL    HW194398   5.327   8.767   4.180
30855SOL    HW294399   5.337   8.841   4.049
30856SOL     OW94400   0.405  14.861   2.012
30856SOL    HW194401   0.376   0.017   2.096
30856SOL    HW294402   0.500  14.853   2.021
30857SOL     OW94403  12.403   9.862   8.953
30857SOL    HW194404  12.430   9.941   8.906
30857SOL    HW294405  12.309   9.874   8.967
30858SOL     OW94406  11.277   3.892   9.567
30858SOL    HW194407  11.293   3.800   9.589
30858SOL    HW294408  11.182   3.903   9.576
30859SOL     OW94409   8.117  10.590   3.847
30859SOL    HW194410   8.175  10.653   3.891
30859SOL    HW294411   8.143  10.505   3.882
30860SOL     OW94412   3.245   6.727  12.585
30860SOL    HW194413   3.220   6.751  12.495
30860SOL    HW294414   3.170   6.677  12.617
30861SOL     OW94415   5.142  14.711  12.136
30861SOL    HW194416   5.162  14.626  12.096
30861SOL    HW294417   5.046  14.716  12.135
30862SOL     OW94418  14.089  11.734   5.431
30862SOL    HW194419  14.172  11.708   5.392
30862SOL    HW294420  14.113  11.786   5.508
30863SOL     OW94421   6.107  11.846   6.582
30863SOL    HW194422   6.028  11.858   6.635
30863SOL    HW294423   6.124  11.933   6.544
30864SOL     OW94424  11.420  11.274  10.840
30864SOL    HW194425  11.502  11.233  10.816
30864SOL    HW294426  11.367  11.203  10.877
30865SOL     OW94427   4.812   2.756   3.273
30865SOL    HW194428   4.873   2.756   3.199
30865SOL    HW294429   4.760   2.677   3.261
30866SOL     OW94430  12.437  12.318  12.416
30866SOL    HW194431  12.525  12.355  12.415
30866SOL    HW294432  12.402  12.335  12.329
30867SOL     OW94433   6.239  14.229   8.339
30867SOL    HW194434   6.286  14.184   8.269
30867SOL    HW294435   6.177  14.164   8.371
30868SOL     OW94436   2.141  10.528  10.004
30868SOL    HW194437   2.138  10.432  10.001
30868SOL    HW294438   2.049  10.554   9.991
30869SOL     OW94439   9.071  10.169  11.395
30869SOL    HW194440   9.072  10.246  11.452
30869SOL    HW294441   8.980  10.142  11.393
30870SOL     OW94442  14.297   2.648   1.165
30870SOL    HW194443  14.213   2.688   1.186
30870SOL    HW294444  14.308   2.663   1.072
30871SOL     OW94445   3.936   2.268  11.649
30871SOL    HW194446   3.923   2.330  11.577
30871SOL    HW294447   3.893   2.188  11.619
30872SOL     OW94448  12.584  13.888   0.206
30872SOL    HW194449  12.525  13.814   0.191
30872SOL    HW294450  12.538  13.964   0.170
30873SOL     OW94451   9.863   5.486  12.591
30873SOL    HW194452   9.804   5.435  12.535
30873SOL    HW294453   9.881   5.565  12.540
30874SOL     OW94454   6.510   4.538   8.400
30874SOL    HW194455   6.520   4.443   8.399
30874SOL    HW294456   6.536   4.566   8.313
30875SOL     OW94457   9.274  13.799  12.072
30875SOL    HW194458   9.199  13.847  12.039
30875SOL    HW294459   9.291  13.732  12.006
30876SOL     OW94460   4.534   9.213   4.336
30876SOL    HW194461   4.456   9.230   4.388
30876SOL    HW294462   4.604   9.261   4.382
30877SOL     OW94463   3.855   9.138   4.221
30877SOL    HW194464   3.776   9.186   4.244
30877SOL    HW294465   3.926   9.201   4.235
30878SOL     OW94466  11.550  13.097   4.199
30878SOL    HW194467  11.502  13.022   4.234
30878SOL    HW294468  11.497  13.127   4.125
30879SOL     OW94469   2.806   2.042   4.186
30879SOL    HW194470   2.880   1.988   4.214
30879SOL    HW294471   2.779   2.005   4.102
30880SOL     OW94472   4.836  13.340  13.394
30880SOL    HW194473   4.774  13.326  13.466
30880SOL    HW294474   4.785  13.386  13.328
30881SOL     OW94475   2.984   6.424   8.929
30881SOL    HW194476   3.015   6.438   8.840
30881SOL    HW294477   2.889   6.432   8.923
30882SOL     OW94478   2.138  10.344   7.357
30882SOL    HW194479   2.098  10.257   7.362
30882SOL    HW294480   2.079  10.401   7.406
30883SOL     OW94481  14.149   1.508   7.327
30883SOL    HW194482  14.132   1.534   7.236
30883SOL    HW294483  14.089   1.435   7.342
30884SOL     OW94484   3.956  13.856   9.550
30884SOL    HW194485   4.009  13.799   9.494
30884SOL    HW294486   3.953  13.811   9.634
30885SOL     OW94487   1.899   7.300   1.731
30885SOL    HW194488   1.925   7.231   1.669
30885SOL    HW294489   1.806   7.285   1.746
30886SOL     OW94490   6.364  14.118  12.020
30886SOL    HW194491   6.455  14.105  11.994
30886SOL    HW294492   6.368  14.184  12.090
30887SOL     OW94493  12.477   9.697  13.865
30887SOL    HW194494  12.452   9.754  13.792
30887SOL    HW294495  12.461   9.608  13.833
30888SOL     OW94496   1.954   3.708   9.191
30888SOL    HW194497   1.932   3.720   9.284
30888SOL    HW294498   1.952   3.797   9.155
30889SOL     OW94499  14.477  12.606  11.205
30889SOL    HW194500  14.425  12.532  11.234
30889SOL    HW294501  14.445  12.680  11.257
30890SOL     OW94502   4.358   3.969  10.879
30890SOL    HW194503   4.267   3.944  10.893
30890SOL    HW294504   4.404   3.938  10.957
30891SOL     OW94505  13.126  12.127   7.407
30891SOL    HW194506  13.085  12.163   7.486
30891SOL    HW294507  13.218  12.117   7.431
30892SOL     OW94508   7.503   3.653   2.561
30892SOL    HW194509   7.585   3.654   2.512
30892SOL    HW294510   7.531   3.660   2.653
30893SOL     OW94511   4.772   0.722  11.203
30893SOL    HW194512   4.776   0.754  11.112
30893SOL    HW294513   4.761   0.801  11.255
30894SOL     OW94514   1.451  10.441  14.517
30894SOL    HW194515   1.369  10.490  14.521
30894SOL    HW294516   1.457  10.396  14.601
30895SOL     OW94517  13.759  14.669   9.163
30895SOL    HW194518  13.668  14.639   9.165
30895SOL    HW294519  13.785  14.670   9.255
30896SOL     OW94520  12.076   6.392   5.784
30896SOL    HW194521  12.071   6.326   5.714
30896SOL    HW294522  12.117   6.468   5.742
30897SOL     OW94523  12.243  11.105   2.416
30897SOL    HW194524  12.178  11.088   2.348
30897SOL    HW294525  12.211  11.183   2.461
30898SOL     OW94526  13.295   6.354   8.376
30898SOL    HW194527  13.345   6.354   8.294
30898SOL    HW294528  13.361   6.357   8.445
30899SOL     OW94529   6.190  11.739  13.398
30899SOL    HW194530   6.142  11.661  13.428
30899SOL    HW294531   6.214  11.719  13.308
30900SOL     OW94532   7.700  10.335   8.415
30900SOL    HW194533   7.752  10.308   8.339
30900SOL    HW294534   7.654  10.255   8.442
30901SOL     OW94535   5.715  13.022   9.064
30901SOL    HW194536   5.774  12.974   9.006
30901SOL    HW294537   5.645  13.052   9.008
30902SOL     OW94538   9.654  13.799   5.463
30902SOL    HW194539   9.626  13.778   5.374
30902SOL    HW294540   9.704  13.880   5.453
30903SOL     OW94541   0.626   0.705   5.216
30903SOL    HW194542   0.571   0.640   5.260
30903SOL    HW294543   0.696   0.653   5.175
30904SOL     OW94544   1.062   9.609   4.434
30904SOL    HW194545   1.003   9.574   4.366
30904SOL    HW294546   1.007   9.669   4.484
30905SOL     OW94547   0.519   3.855   1.252
30905SOL    HW194548   0.565   3.927   1.296
30905SOL    HW294549   0.524   3.782   1.314
30906SOL     OW94550   1.932  11.183  14.592
30906SOL    HW194551   1.971  11.265  14.562
30906SOL    HW294552   1.860  11.167  14.532
30907SOL     OW94553   3.663   8.940  11.715
30907SOL    HW194554   3.674   9.035  11.710
30907SOL    HW294555   3.608   8.919  11.640
30908SOL     OW94556   9.077  12.064  12.281
30908SOL    HW194557   9.098  12.114  12.360
30908SOL    HW294558   9.047  12.130  12.219
30909SOL     OW94559  10.101   2.083   6.253
30909SOL    HW194560  10.172   2.051   6.309
30909SOL    HW294561  10.071   2.164   6.296
30910SOL     OW94562  11.895   6.763  11.075
30910SOL    HW194563  11.887   6.783  10.982
30910SOL    HW294564  11.984   6.790  11.098
30911SOL     OW94565   2.729   9.038  14.091
30911SOL    HW194566   2.673   8.962  14.110
30911SOL    HW294567   2.686   9.080  14.016
30912SOL     OW94568   2.212  10.506   8.853
30912SOL    HW194569   2.157  10.433   8.880
30912SOL    HW294570   2.157  10.583   8.866
30913SOL     OW94571   6.726   8.474   0.908
30913SOL    HW194572   6.776   8.515   0.979
30913SOL    HW294573   6.637   8.464   0.944
30914SOL     OW94574   1.203  13.909   0.629
30914SOL    HW194575   1.250  13.990   0.651
30914SOL    HW294576   1.135  13.902   0.696
30915SOL     OW94577  12.738   0.251   6.712
30915SOL    HW194578  12.647   0.277   6.730
30915SOL    HW294579  12.778   0.330   6.674
30916SOL     OW94580  14.224   5.516   5.982
30916SOL    HW194581  14.200   5.510   5.889
30916SOL    HW294582  14.161   5.578   6.018
30917SOL     OW94583  13.571   9.850   2.554
30917SOL    HW194584  13.634   9.890   2.615
30917SOL    HW294585  13.572   9.908   2.478
30918SOL     OW94586   2.549   4.742   5.787
30918SOL    HW194587   2.603   4.722   5.863
30918SOL    HW294588   2.590   4.695   5.714
30919SOL     OW94589   0.498   5.609  14.821
30919SOL    HW194590   0.518   5.662   0.020
30919SOL    HW294591   0.577   5.558  14.806
30920SOL     OW94592   9.841   8.273  11.063
30920SOL    HW194593   9.867   8.195  11.113
30920SOL    HW294594   9.886   8.345  11.106
30921SOL     OW94595   1.119   0.152   6.005
30921SOL    HW194596   1.119   0.246   5.987
30921SOL    HW294597   1.096   0.111   5.921
30922SOL     OW94598  11.554  10.149   2.198
30922SOL    HW194599  11.644  10.167   2.226
30922SOL    HW294600  11.526  10.076   2.254
30923SOL     OW94601   5.078  13.275   5.641
30923SOL    HW194602   5.118  13.315   5.564
30923SOL    HW294603   5.054  13.349   5.696
30924SOL     OW94604  14.223   9.567   2.016
30924SOL    HW194605  14.214   9.472   2.026
30924SOL    HW294606  14.255   9.597   2.101
30925SOL     OW94607  11.000   3.078   2.169
30925SOL    HW194608  11.038   3.094   2.255
30925SOL    HW294609  10.999   3.164   2.127
30926SOL     OW94610  13.675  14.610   9.647
30926SOL    HW194611  13.670  14.662   9.727
30926SOL    HW294612  13.696  14.522   9.678
30927SOL     OW94613   8.778   3.322  13.493
30927SOL    HW194614   8.717   3.391  13.467
30927SOL    HW294615   8.778   3.261  13.420
30928SOL     OW94616   4.261  10.255   8.104
30928SOL    HW194617   4.177  10.243   8.059
30928SOL    HW294618   4.321  10.196   8.059
30929SOL     OW94619   8.046  12.175  13.259
30929SOL    HW194620   8.011  12.247  13.312
30929SOL    HW294621   8.079  12.112  13.324
30930SOL     OW94622   9.982   2.333   9.526
30930SOL    HW194623   9.896   2.307   9.493
30930SOL    HW294624  10.044   2.287   9.471
30931SOL     OW94625   8.988  13.097  10.643
30931SOL    HW194626   8.982  13.045  10.563
30931SOL    HW294627   9.078  13.086  10.673
30932SOL     OW94628  14.141   6.759  10.733
30932SOL    HW194629  14.113   6.837  10.685
30932SOL    HW294630  14.234   6.749  10.710
30933SOL     OW94631   7.505  11.565  13.702
30933SOL    HW194632   7.567  11.598  13.637
30933SOL    HW294633   7.460  11.643  13.734
30934SOL     OW94634   4.219   2.820  14.848
30934SOL    HW194635   4.199   2.821   0.063
30934SOL    HW294636   4.148   2.869  14.808
30935SOL     OW94637   7.153   4.372   0.163
30935SOL    HW194638   7.121   4.304   0.105
30935SOL    HW294639   7.118   4.454   0.126
30936SOL     OW94640   9.183   3.915   0.956
30936SOL    HW194641   9.169   3.942   1.047
30936SOL    HW294642   9.273   3.881   0.955
30937SOL     OW94643  14.762   7.789  13.757
30937SOL    HW194644  14.839   7.838  13.727
30937SOL    HW294645  14.688   7.838  13.722
30938SOL     OW94646   5.756  10.057   9.600
30938SOL    HW194647   5.831  10.004   9.573
30938SOL    HW294648   5.776  10.145   9.568
30939SOL     OW94649   1.914  12.917   2.075
30939SOL    HW194650   1.948  12.990   2.126
30939SOL    HW294651   1.885  12.956   1.993
30940SOL     OW94652   4.947   4.038   2.086
30940SOL    HW194653   4.990   3.980   2.149
30940SOL    HW294654   4.929   3.983   2.010
30941SOL     OW94655   9.594  10.579   4.461
30941SOL    HW194656   9.549  10.555   4.542
30941SOL    HW294657   9.536  10.547   4.392
30942SOL     OW94658  12.793   3.887   6.770
30942SOL    HW194659  12.796   3.858   6.679
30942SOL    HW294660  12.746   3.818   6.816
30943SOL     OW94661   0.749   4.909   5.759
30943SOL    HW194662   0.833   4.904   5.803
30943SOL    HW294663   0.747   4.995   5.718
30944SOL     OW94664  10.931   2.406  13.079
30944SOL    HW194665  11.000   2.423  13.015
30944SOL    HW294666  10.866   2.355  13.030
30945SOL     OW94667   4.654   5.314  14.630
30945SOL    HW194668   4.640   5.404  14.659
30945SOL    HW294669   4.699   5.322  14.546
30946SOL     OW94670   1.112   8.107   5.498
30946SOL    HW194671   1.030   8.082   5.540
30946SOL    HW294672   1.104   8.202   5.485
30947SOL     OW94673  11.870  11.058  14.407
30947SOL    HW194674  11.906  11.147  14.419
30947SOL    HW294675  11.804  11.049  14.475
30948SOL     OW94676   9.960   1.476   2.399
30948SOL    HW194677   9.872   1.507   2.418
30948SOL    HW294678   9.967   1.393   2.446
30949SOL     OW94679   7.851  12.879  13.747
30949SOL    HW194680   7.759  12.860  13.763
30949SOL    HW294681   7.851  12.928  13.665
30950SOL     OW94682   0.093   4.931   0.126
30950SOL    HW194683   0.028   4.903   0.062
30950SOL    HW294684   0.045   4.939   0.208
30951SOL     OW94685  13.254  12.314  10.379
30951SOL    HW194686  13.195  12.331  10.453
30951SOL    HW294687  13.305  12.237  10.406
30952SOL     OW94688   2.831   8.948   7.452
30952SOL    HW194689   2.783   8.990   7.381
30952SOL    HW294690   2.824   8.855   7.434
30953SOL     OW94691   7.819   0.925  10.060
30953SOL    HW194692   7.727   0.936  10.035
30953SOL    HW294693   7.824   0.837  10.096
30954SOL     OW94694  14.582  10.808   6.010
30954SOL    HW194695  14.515  10.751   6.047
30954SOL    HW294696  14.613  10.761   5.932
30955SOL     OW94697  12.855   2.313  14.527
30955SOL    HW194698  12.834   2.251  14.457
30955SOL    HW294699  12.818   2.274  14.606
30956SOL     OW94700  14.165  14.250   7.038
30956SOL    HW194701  14.226  14.194   6.989
30956SOL    HW294702  14.136  14.195   7.110
30957SOL     OW94703   1.238   7.557   2.106
30957SOL    HW194704   1.186   7.488   2.148
30957SOL    HW294705   1.206   7.560   2.016
30958SOL     OW94706   0.311   3.135  14.033
30958SOL    HW194707   0.406   3.147  14.028
30958SOL    HW294708   0.299   3.041  14.045
30959SOL     OW94709   8.219  14.702   3.877
30959SOL    HW194710   8.300  14.651   3.884
30959SOL    HW294711   8.151  14.636   3.861
30960SOL     OW94712   1.827   8.477  14.090
30960SOL    HW194713   1.776   8.495  14.012
30960SOL    HW294714   1.910   8.442  14.057
30961SOL     OW94715   8.499   6.450  14.006
30961SOL    HW194716   8.533   6.479  14.091
30961SOL    HW294717   8.512   6.356  14.005
30962SOL     OW94718   6.524  14.219   7.229
30962SOL    HW194719   6.485  14.132   7.218
30962SOL    HW294720   6.451  14.279   7.215
30963SOL     OW94721   0.050  13.439  13.454
30963SOL    HW194722   0.058  13.350  13.419
30963SOL    HW294723  14.859  13.433  13.519
30964SOL     OW94724  14.377   3.665   0.284
30964SOL    HW194725  14.328   3.590   0.318
30964SOL    HW294726  14.353   3.737   0.342
30965SOL     OW94727   7.453  14.082  11.463
30965SOL    HW194728   7.395  14.064  11.389
30965SOL    HW294729   7.534  14.115  11.423
30966SOL     OW94730   7.230   5.192   8.799
30966SOL    HW194731   7.298   5.127   8.782
30966SOL    HW294732   7.256   5.268   8.747
30967SOL     OW94733   0.441   7.131  13.448
30967SOL    HW194734   0.378   7.167  13.510
30967SOL    HW294735   0.431   7.185  13.369
30968SOL     OW94736   1.263   4.927   8.409
30968SOL    HW194737   1.335   4.865   8.418
30968SOL    HW294738   1.275   4.988   8.483
30969SOL     OW94739   1.302   5.685   7.998
30969SOL    HW194740   1.300   5.610   7.938
30969SOL    HW294741   1.314   5.647   8.084
30970SOL     OW94742  11.028   8.439   0.262
30970SOL    HW194743  11.122   8.456   0.275
30970SOL    HW294744  10.999   8.510   0.205
30971SOL     OW94745  13.803   2.004   6.884
30971SOL    HW194746  13.798   2.074   6.950
30971SOL    HW294747  13.896   2.000   6.860
30972SOL     OW94748   8.766  11.000  13.382
30972SOL    HW194749   8.699  10.972  13.444
30972SOL    HW294750   8.808  10.920  13.352
30973SOL     OW94751  10.576  12.734  14.820
30973SOL    HW194752  10.532  12.798  14.764
30973SOL    HW294753  10.611  12.785   0.014
30974SOL     OW94754  11.769   0.617  11.815
30974SOL    HW194755  11.858   0.587  11.830
30974SOL    HW294756  11.776   0.711  11.805
30975SOL     OW94757  11.094  11.550   6.786
30975SOL    HW194758  11.108  11.610   6.712
30975SOL    HW294759  11.117  11.464   6.751
30976SOL     OW94760  13.156   7.185  13.222
30976SOL    HW194761  13.146   7.090  13.232
30976SOL    HW294762  13.146   7.219  13.311
30977SOL     OW94763   5.164  12.239   3.911
30977SOL    HW194764   5.100  12.167   3.913
30977SOL    HW294765   5.129  12.304   3.973
30978SOL     OW94766  12.089   6.458   3.984
30978SOL    HW194767  12.023   6.390   3.976
30978SOL    HW294768  12.172   6.410   3.988
30979SOL     OW94769   6.092   3.608   4.302
30979SOL    HW194770   6.131   3.689   4.335
30979SOL    HW294771   6.141   3.589   4.222
30980SOL     OW94772   1.698   4.887  12.529
30980SOL    HW194773   1.791   4.872  12.515
30980SOL    HW294774   1.661   4.888  12.441
30981SOL     OW94775   4.163  12.801   4.078
30981SOL    HW194776   4.194  12.770   3.992
30981SOL    HW294777   4.191  12.733   4.139
30982SOL     OW94778   3.919   2.012   7.661
30982SOL    HW194779   3.892   2.094   7.702
30982SOL    HW294780   3.840   1.982   7.616
30983SOL     OW94781   7.297   7.019   4.401
30983SOL    HW194782   7.248   7.057   4.474
30983SOL    HW294783   7.354   6.954   4.441
30984SOL     OW94784   6.033   4.367  12.180
30984SOL    HW194785   6.116   4.324  12.160
30984SOL    HW294786   6.039   4.453  12.138
30985SOL     OW94787   4.433  11.072  10.858
30985SOL    HW194788   4.527  11.088  10.869
30985SOL    HW294789   4.416  11.088  10.766
30986SOL     OW94790   7.683   8.631   5.955
30986SOL    HW194791   7.761   8.664   6.001
30986SOL    HW294792   7.658   8.553   6.004
30987SOL     OW94793   0.479  10.022   7.947
30987SOL    HW194794   0.537   9.950   7.921
30987SOL    HW294795   0.537  10.088   7.984
30988SOL     OW94796  13.660   4.107  14.527
30988SOL    HW194797  13.722   4.178  14.543
30988SOL    HW294798  13.624   4.125  14.441
30989SOL     OW94799   5.475   3.192   1.994
30989SOL    HW194800   5.551   3.208   2.048
30989SOL    HW294801   5.508   3.141   1.920
30990SOL     OW94802  12.624   0.226   1.330
30990SOL    HW194803  12.581   0.302   1.292
30990SOL    HW294804  12.682   0.262   1.398
30991SOL     OW94805   9.651   4.484  14.724
30991SOL    HW194806   9.611   4.526  14.648
30991SOL    HW294807   9.579   4.474  14.786
30992SOL     OW94808  10.778  12.018  13.213
30992SOL    HW194809  10.737  12.094  13.255
30992SOL    HW294810  10.762  12.032  13.119
30993SOL     OW94811   6.533  12.261  11.530
30993SOL    HW194812   6.597  12.191  11.542
30993SOL    HW294813   6.534  12.308  11.613
30994SOL     OW94814  14.763   2.291  11.768
30994SOL    HW194815  14.683   2.245  11.796
30994SOL    HW294816  14.807   2.228  11.711
30995SOL     OW94817   9.287  11.006   7.414
30995SOL    HW194818   9.318  10.916   7.427
30995SOL    HW294819   9.316  11.053   7.493
30996SOL     OW94820   5.698  11.670  12.004
30996SOL    HW194821   5.775  11.727  12.011
30996SOL    HW294822   5.633  11.722  11.957
30997SOL     OW94823   1.334  12.714   8.648
30997SOL    HW194824   1.240  12.698   8.651
30997SOL    HW294825   1.352  12.766   8.726
30998SOL     OW94826   7.638   5.977   2.169
30998SOL    HW194827   7.717   5.924   2.156
30998SOL    HW294828   7.618   6.012   2.082
30999SOL     OW94829   2.429   6.988  11.561
30999SOL    HW194830   2.514   7.025  11.537
30999SOL    HW294831   2.444   6.947  11.646
31000SOL     OW94832   9.065   2.469   8.042
31000SOL    HW194833   9.118   2.533   7.994
31000SOL    HW294834   9.121   2.441   8.114
31001SOL     OW94835   8.168  10.065   7.250
31001SOL    HW194836   8.166  10.105   7.337
31001SOL    HW294837   8.186   9.973   7.266
31002SOL     OW94838  14.783   2.969   3.809
31002SOL    HW194839  14.788   3.032   3.881
31002SOL    HW294840  14.858   2.911   3.823
31003SOL     OW94841  11.707  10.471   7.205
31003SOL    HW194842  11.620  10.507   7.225
31003SOL    HW294843  11.706  10.457   7.110
31004SOL     OW94844  13.217   0.670  10.291
31004SOL    HW194845  13.160   0.695  10.363
31004SOL    HW294846  13.222   0.575  10.296
31005SOL     OW94847   1.000   4.744   4.607
31005SOL    HW194848   0.975   4.663   4.653
31005SOL    HW294849   1.082   4.722   4.564
31006SOL     OW94850   8.024   6.135  11.573
31006SOL    HW194851   7.974   6.054  11.563
31006SOL    HW294852   7.978   6.184  11.640
31007SOL     OW94853  11.787   0.133   1.590
31007SOL    HW194854  11.706   0.086   1.607
31007SOL    HW294855  11.808   0.114   1.499
31008SOL     OW94856   8.586   8.135  11.031
31008SOL    HW194857   8.591   8.227  11.004
31008SOL    HW294858   8.529   8.136  11.108
31009SOL     OW94859  11.767   1.366  14.570
31009SOL    HW194860  11.789   1.375  14.477
31009SOL    HW294861  11.747   1.455  14.599
31010SOL     OW94862  10.486   0.339  10.679
31010SOL    HW194863  10.557   0.293  10.724
31010SOL    HW294864  10.406   0.307  10.721
31011SOL     OW94865   4.979   9.239   2.335
31011SOL    HW194866   5.023   9.234   2.250
31011SOL    HW294867   5.029   9.181   2.392
31012SOL     OW94868   5.422  14.302  11.732
31012SOL    HW194869   5.411  14.211  11.759
31012SOL    HW294870   5.417  14.352  11.813
31013SOL     OW94871   4.865   1.759  11.749
31013SOL    HW194872   4.921   1.687  11.777
31013SOL    HW294873   4.876   1.826  11.817
31014SOL     OW94874  12.178  13.262  11.659
31014SOL    HW194875  12.114  13.213  11.607
31014SOL    HW294876  12.229  13.312  11.595
31015SOL     OW94877  12.626  10.499   4.882
31015SOL    HW194878  12.625  10.498   4.787
31015SOL    HW294879  12.656  10.411   4.906
31016SOL     OW94880   2.785   1.210   5.802
31016SOL    HW194881   2.873   1.187   5.832
31016SOL    HW294882   2.781   1.305   5.810
31017SOL     OW94883   7.557   4.649   4.315
31017SOL    HW194884   7.506   4.724   4.347
31017SOL    HW294885   7.560   4.588   4.389
31018SOL     OW94886   6.577   6.608  12.500
31018SOL    HW194887   6.568   6.648  12.586
31018SOL    HW294888   6.516   6.657  12.445
31019SOL     OW94889   5.481   0.599   7.707
31019SOL    HW194890   5.551   0.550   7.662
31019SOL    HW294891   5.494   0.580   7.800
31020SOL     OW94892   7.800   0.573  13.378
31020SOL    HW194893   7.877   0.630  13.374
31020SOL    HW294894   7.813   0.521  13.456
31021SOL     OW94895   6.854   3.216  14.000
31021SOL    HW194896   6.794   3.276  13.956
31021SOL    HW294897   6.809   3.131  13.998
31022SOL     OW94898   6.209   0.225  11.539
31022SOL    HW194899   6.172   0.158  11.597
31022SOL    HW294900   6.186   0.308  11.581
31023SOL     OW94901   1.842   2.760   5.168
31023SOL    HW194902   1.850   2.769   5.073
31023SOL    HW294903   1.931   2.745   5.198
31024SOL     OW94904   4.775  10.698   3.599
31024SOL    HW194905   4.758  10.625   3.539
31024SOL    HW294906   4.789  10.773   3.541
31025SOL     OW94907   4.377   5.379   8.787
31025SOL    HW194908   4.350   5.346   8.701
31025SOL    HW294909   4.470   5.355   8.794
31026SOL     OW94910   7.378   6.074   2.934
31026SOL    HW194911   7.398   6.005   2.870
31026SOL    HW294912   7.334   6.142   2.883
31027SOL     OW94913  10.617   3.684  12.792
31027SOL    HW194914  10.535   3.634  12.793
31027SOL    HW294915  10.605   3.751  12.859
31028SOL     OW94916   8.166  12.495   0.837
31028SOL    HW194917   8.252  12.526   0.810
31028SOL    HW294918   8.180  12.403   0.860
31029SOL     OW94919  14.256  14.166   3.368
31029SOL    HW194920  14.289  14.214   3.444
31029SOL    HW294921  14.272  14.224   3.294
31030SOL     OW94922  13.232   4.240   0.444
31030SOL    HW194923  13.238   4.180   0.369
31030SOL    HW294924  13.160   4.299   0.421
31031SOL     OW94925   5.023   4.474  13.456
31031SOL    HW194926   5.015   4.504  13.366
31031SOL    HW294927   4.965   4.398  13.462
31032SOL     OW94928   0.314   4.034   8.720
31032SOL    HW194929   0.241   4.096   8.717
31032SOL    HW294930   0.293   3.976   8.794
31033SOL     OW94931   3.311   5.563   2.191
31033SOL    HW194932   3.256   5.616   2.247
31033SOL    HW294933   3.394   5.555   2.238
31034SOL     OW94934  11.907   2.576   8.606
31034SOL    HW194935  11.823   2.543   8.638
31034SOL    HW294936  11.893   2.588   8.512
31035SOL     OW94937  14.870  14.037   3.527
31035SOL    HW194938  14.816  13.958   3.527
31035SOL    HW294939  14.828  14.093   3.461
31036SOL     OW94940   8.907   5.335   4.359
31036SOL    HW194941   8.876   5.382   4.282
31036SOL    HW294942   8.891   5.394   4.432
31037SOL     OW94943  13.770   6.946   3.185
31037SOL    HW194944  13.825   6.895   3.126
31037SOL    HW294945  13.809   6.931   3.272
31038SOL     OW94946   8.341   4.215  13.637
31038SOL    HW194947   8.407   4.274  13.601
31038SOL    HW294948   8.259   4.245  13.598
31039SOL     OW94949  12.216  10.280   0.443
31039SOL    HW194950  12.120  10.275   0.434
31039SOL    HW294951  12.247  10.288   0.353
31040SOL     OW94952  10.446  14.254   7.702
31040SOL    HW194953  10.466  14.223   7.791
31040SOL    HW294954  10.495  14.336   7.694
31041SOL     OW94955  12.190  13.632   9.286
31041SOL    HW194956  12.116  13.691   9.270
31041SOL    HW294957  12.158  13.571   9.352
31042SOL     OW94958   4.407   3.711  12.006
31042SOL    HW194959   4.334   3.709  12.068
31042SOL    HW294960   4.486   3.708  12.061
31043SOL     OW94961   3.072   4.093   6.048
31043SOL    HW194962   3.106   4.134   6.127
31043SOL    HW294963   3.016   4.022   6.079
31044SOL     OW94964  11.600  10.151   8.168
31044SOL    HW194965  11.569  10.061   8.178
31044SOL    HW294966  11.608  10.163   8.073
31045SOL     OW94967  12.061   6.904  13.085
31045SOL    HW194968  12.070   6.936  13.175
31045SOL    HW294969  12.112   6.966  13.032
31046SOL     OW94970   3.690  10.457  13.482
31046SOL    HW194971   3.756  10.513  13.521
31046SOL    HW294972   3.709  10.459  13.388
31047SOL     OW94973  14.641   8.300  14.663
31047SOL    HW194974  14.562   8.256  14.694
31047SOL    HW294975  14.688   8.326  14.742
31048SOL     OW94976   7.952  13.290   7.015
31048SOL    HW194977   7.994  13.332   6.940
31048SOL    HW294978   8.024  13.258   7.068
31049SOL     OW94979   8.318  13.969  14.824
31049SOL    HW194980   8.226  13.992  14.836
31049SOL    HW294981   8.358  13.985   0.030
31050SOL     OW94982   9.330   2.012  10.265
31050SOL    HW194983   9.393   1.981  10.201
31050SOL    HW294984   9.268   2.064  10.214
31051SOL     OW94985  13.459   7.402   3.741
31051SOL    HW194986  13.404   7.448   3.804
31051SOL    HW294987  13.425   7.428   3.656
31052SOL     OW94988  10.409   1.899   9.293
31052SOL    HW194989  10.376   1.817   9.257
31052SOL    HW294990  10.465   1.935   9.224
31053SOL     OW94991   1.256   9.934   4.741
31053SOL    HW194992   1.169   9.972   4.751
31053SOL    HW294993   1.292   9.976   4.663
31054SOL     OW94994   3.921   8.890   9.593
31054SOL    HW194995   3.840   8.910   9.641
31054SOL    HW294996   3.932   8.796   9.603
31055SOL     OW94997  14.273  11.667   6.057
31055SOL    HW194998  14.186  11.647   6.021
31055SOL    HW294999  14.265  11.755   6.092
31056SOL     OW95000   5.087  10.690   3.095
31056SOL    HW195001   5.024  10.649   3.037
31056SOL    HW295002   5.172  10.666   3.058
31057SOL     OW95003  12.162  14.077   6.854
31057SOL    HW195004  12.109  14.037   6.923
31057SOL    HW295005  12.226  14.009   6.831
31058SOL     OW95006   9.873   0.227   2.908
31058SOL    HW195007   9.854   0.208   2.816
31058SOL    HW295008   9.799   0.189   2.955
31059SOL     OW95009   0.192   1.281   0.032
31059SOL    HW195010   0.222   1.365   0.067
31059SOL    HW295011   0.127   1.251   0.096
31060SOL     OW95012   1.752  11.737   2.716
31060SOL    HW195013   1.737  11.767   2.806
31060SOL    HW295014   1.665  11.715   2.684
31061SOL     OW95015  12.974   9.893   8.871
31061SOL    HW195016  12.900   9.950   8.892
31061SOL    HW295017  13.046   9.925   8.926
31062SOL     OW95018   3.275  11.964  12.293
31062SOL    HW195019   3.218  12.041  12.301
31062SOL    HW295020   3.343  11.991  12.232
31063SOL     OW95021  11.355   2.986   2.726
31063SOL    HW195022  11.323   2.956   2.811
31063SOL    HW295023  11.281   3.034   2.688
31064SOL     OW95024   8.665  14.179   1.316
31064SOL    HW195025   8.650  14.238   1.390
31064SOL    HW295026   8.755  14.198   1.288
31065SOL     OW95027   0.479   9.154   8.142
31065SOL    HW195028   0.574   9.158   8.152
31065SOL    HW295029   0.452   9.246   8.139
31066SOL     OW95030   8.588  10.066   0.117
31066SOL    HW195031   8.545   9.985   0.145
31066SOL    HW295032   8.673  10.039   0.084
31067SOL     OW95033   3.433   4.026   6.779
31067SOL    HW195034   3.414   3.975   6.858
31067SOL    HW295035   3.429   3.963   6.707
31068SOL     OW95036   3.900  14.055   3.731
31068SOL    HW195037   3.852  14.103   3.800
31068SOL    HW295038   3.845  14.063   3.654
31069SOL     OW95039  12.097   3.900   1.620
31069SOL    HW195040  12.149   3.978   1.599
31069SOL    HW295041  12.114   3.884   1.712
31070SOL     OW95042   1.256  10.570   1.685
31070SOL    HW195043   1.276  10.656   1.722
31070SOL    HW295044   1.342  10.530   1.670
31071SOL     OW95045  13.570   0.223   1.913
31071SOL    HW195046  13.522   0.164   1.971
31071SOL    HW295047  13.659   0.225   1.949
31072SOL     OW95048   9.280   9.271   2.951
31072SOL    HW195049   9.269   9.221   2.871
31072SOL    HW295050   9.337   9.218   3.006
31073SOL     OW95051   3.908  12.681   8.940
31073SOL    HW195052   3.814  12.690   8.959
31073SOL    HW295053   3.913  12.607   8.880
31074SOL     OW95054  10.904   0.263  13.403
31074SOL    HW195055  10.904   0.210  13.483
31074SOL    HW295056  10.863   0.345  13.428
31075SOL     OW95057  14.594  12.045   0.829
31075SOL    HW195058  14.513  12.078   0.867
31075SOL    HW295059  14.575  11.953   0.807
31076SOL     OW95060   1.489   4.674   0.763
31076SOL    HW195061   1.504   4.706   0.674
31076SOL    HW295062   1.498   4.752   0.818
31077SOL     OW95063   0.756   6.561   1.715
31077SOL    HW195064   0.802   6.520   1.642
31077SOL    HW295065   0.666   6.571   1.685
31078SOL     OW95066   7.868  12.615  14.038
31078SOL    HW195067   7.947  12.586  13.994
31078SOL    HW295068   7.887  12.705  14.065
31079SOL     OW95069  14.281  12.348   8.632
31079SOL    HW195070  14.362  12.333   8.583
31079SOL    HW295071  14.310  12.370   8.720
31080SOL     OW95072   5.405   7.685  10.085
31080SOL    HW195073   5.398   7.778  10.063
31080SOL    HW295074   5.471   7.652  10.024
31081SOL     OW95075  10.549   8.735  10.050
31081SOL    HW195076  10.617   8.702   9.991
31081SOL    HW295077  10.558   8.830  10.045
31082SOL     OW95078   3.261   8.662   5.656
31082SOL    HW195079   3.218   8.728   5.602
31082SOL    HW295080   3.331   8.628   5.600
31083SOL     OW95081   1.078   9.121   3.917
31083SOL    HW195082   1.171   9.110   3.940
31083SOL    HW295083   1.031   9.100   3.997
31084SOL     OW95084   2.981   1.368   5.658
31084SOL    HW195085   2.898   1.412   5.636
31084SOL    HW295086   3.038   1.388   5.584
31085SOL     OW95087   0.269  12.643   4.824
31085SOL    HW195088   0.241  12.730   4.853
31085SOL    HW295089   0.199  12.614   4.766
31086SOL     OW95090   7.203  12.522   5.117
31086SOL    HW195091   7.153  12.481   5.046
31086SOL    HW295092   7.136  12.559   5.174
31087SOL     OW95093   4.872   7.064   6.477
31087SOL    HW195094   4.881   7.151   6.439
31087SOL    HW295095   4.856   7.006   6.403
31088SOL     OW95096   5.226  14.238   6.375
31088SOL    HW195097   5.308  14.214   6.417
31088SOL    HW295098   5.165  14.251   6.447
31089SOL     OW95099   0.310   4.398   2.710
31089SOL    HW195100   0.294   4.483   2.751
31089SOL    HW295101   0.225   4.354   2.710
31090SOL     OW95102   0.442  14.835  14.820
31090SOL    HW195103   0.420  14.843   0.033
31090SOL    HW295104   0.366  14.791  14.781
31091SOL     OW95105   3.703   5.569  11.394
31091SOL    HW195106   3.705   5.655  11.353
31091SOL    HW295107   3.778   5.568  11.453
31092SOL     OW95108   7.274   4.226  14.364
31092SOL    HW195109   7.242   4.282  14.436
31092SOL    HW295110   7.212   4.242  14.293
31093SOL     OW95111  10.778  14.499   5.661
31093SOL    HW195112  10.861  14.451   5.653
31093SOL    HW295113  10.790  14.555   5.738
31094SOL     OW95114  13.199   7.051  14.476
31094SOL    HW195115  13.220   6.995  14.551
31094SOL    HW295116  13.194   7.139  14.512
31095SOL     OW95117   3.085  10.310  10.582
31095SOL    HW195118   3.112  10.330  10.492
31095SOL    HW295119   3.162  10.268  10.621
31096SOL     OW95120   9.930   9.222  14.246
31096SOL    HW195121   9.997   9.177  14.195
31096SOL    HW295122   9.866   9.153  14.266
31097SOL     OW95123   4.358   9.299   3.985
31097SOL    HW195124   4.376   9.383   4.028
31097SOL    HW295125   4.285   9.262   4.036
31098SOL     OW95126   7.356  14.834  10.689
31098SOL    HW195127   7.278  14.853  10.741
31098SOL    HW295128   7.333  14.863  10.600
31099SOL     OW95129   2.642   3.817   1.098
31099SOL    HW195130   2.596   3.898   1.075
31099SOL    HW295131   2.698   3.841   1.172
31100SOL     OW95132   2.614   8.506  12.321
31100SOL    HW195133   2.622   8.600  12.339
31100SOL    HW295134   2.663   8.464  12.391
31101SOL     OW95135  10.593   7.140   2.239
31101SOL    HW195136  10.649   7.130   2.316
31101SOL    HW295137  10.530   7.208   2.265
31102SOL     OW95138   1.814   0.880   1.260
31102SOL    HW195139   1.764   0.922   1.330
31102SOL    HW295140   1.783   0.923   1.180
31103SOL     OW95141  13.663   0.498   2.180
31103SOL    HW195142  13.572   0.471   2.191
31103SOL    HW295143  13.713   0.417   2.191
31104SOL     OW95144   6.549   2.308  10.567
31104SOL    HW195145   6.462   2.278  10.541
31104SOL    HW295146   6.558   2.394  10.525
31105SOL     OW95147  14.363  12.174   5.824
31105SOL    HW195148  14.290  12.218   5.867
31105SOL    HW295149  14.436  12.183   5.886
31106SOL     OW95150  14.762   2.350  13.763
31106SOL    HW195151  14.762   2.290  13.838
31106SOL    HW295152  14.740   2.294  13.688
31107SOL     OW95153   7.760   2.899  12.701
31107SOL    HW195154   7.776   2.992  12.683
31107SOL    HW295155   7.665   2.892  12.707
31108SOL     OW95156   7.462   8.386  10.349
31108SOL    HW195157   7.465   8.360  10.257
31108SOL    HW295158   7.517   8.464  10.353
31109SOL     OW95159   1.963   2.582   5.954
31109SOL    HW195160   2.032   2.645   5.936
31109SOL    HW295161   1.953   2.584   6.049
31110SOL     OW95162  10.689  12.892   4.243
31110SOL    HW195163  10.732  12.913   4.160
31110SOL    HW295164  10.607  12.942   4.240
31111SOL     OW95165   4.108  12.526   5.560
31111SOL    HW195166   4.093  12.444   5.513
31111SOL    HW295167   4.031  12.580   5.540
31112SOL     OW95168   6.935  13.139   6.649
31112SOL    HW195169   6.872  13.211   6.644
31112SOL    HW295170   6.888  13.069   6.694
31113SOL     OW95171  11.057  12.229  11.085
31113SOL    HW195172  11.035  12.305  11.138
31113SOL    HW295173  11.132  12.257  11.032
31114SOL     OW95174   8.268  14.437   6.580
31114SOL    HW195175   8.196  14.465   6.523
31114SOL    HW295176   8.224  14.397   6.656
31115SOL     OW95177   1.674  14.422  12.617
31115SOL    HW195178   1.654  14.503  12.571
31115SOL    HW295179   1.680  14.447  12.709
31116SOL     OW95180   9.679  12.545  12.889
31116SOL    HW195181   9.661  12.453  12.910
31116SOL    HW295182   9.674  12.590  12.973
31117SOL     OW95183  11.320  11.687   7.899
31117SOL    HW195184  11.366  11.605   7.883
31117SOL    HW295185  11.251  11.689   7.832
31118SOL     OW95186   5.662   0.291  12.037
31118SOL    HW195187   5.701   0.371  12.003
31118SOL    HW295188   5.652   0.307  12.131
31119SOL     OW95189   5.101   4.261   2.871
31119SOL    HW195190   5.171   4.205   2.838
31119SOL    HW295191   5.130   4.286   2.959
31120SOL     OW95192   4.754   5.465   5.234
31120SOL    HW195193   4.840   5.501   5.255
31120SOL    HW295194   4.762   5.439   5.142
31121SOL     OW95195   4.435  13.729  14.561
31121SOL    HW195196   4.409  13.739  14.470
31121SOL    HW295197   4.468  13.639  14.567
31122SOL     OW95198  12.734   0.713  10.625
31122SOL    HW195199  12.803   0.779  10.624
31122SOL    HW295200  12.741   0.673  10.712
31123SOL     OW95201  13.019  14.777   5.755
31123SOL    HW195202  13.058  14.690   5.765
31123SOL    HW295203  12.934  14.760   5.713
31124SOL     OW95204   4.488  11.525   2.653
31124SOL    HW195205   4.540  11.599   2.685
31124SOL    HW295206   4.442  11.559   2.576
31125SOL     OW95207  11.250   1.870   6.928
31125SOL    HW195208  11.225   1.960   6.948
31125SOL    HW295209  11.264   1.829   7.013
31126SOL     OW95210   4.632   8.300   4.034
31126SOL    HW195211   4.552   8.276   4.081
31126SOL    HW295212   4.604   8.308   3.943
31127SOL     OW95213   2.512   7.262   4.318
31127SOL    HW195214   2.588   7.287   4.266
31127SOL    HW295215   2.513   7.166   4.317
31128SOL     OW95216  13.694   9.664   5.720
31128SOL    HW195217  13.619   9.672   5.660
31128SOL    HW295218  13.658   9.619   5.796
31129SOL     OW95219   8.446   5.581   8.825
31129SOL    HW195220   8.519   5.569   8.887
31129SOL    HW295221   8.438   5.676   8.815
31130SOL     OW95222   1.196  12.878   6.908
31130SOL    HW195223   1.158  12.966   6.915
31130SOL    HW295224   1.273  12.881   6.965
31131SOL     OW95225  11.984   5.135   7.063
31131SOL    HW195226  12.050   5.094   7.119
31131SOL    HW295227  11.900   5.107   7.100
31132SOL     OW95228   2.451  14.633  12.393
31132SOL    HW195229   2.477  14.725  12.403
31132SOL    HW295230   2.474  14.611  12.303
31133SOL     OW95231  12.683   3.426   9.333
31133SOL    HW195232  12.768   3.434   9.377
31133SOL    HW295233  12.678   3.333   9.308
31134SOL     OW95234  11.144   3.298   8.343
31134SOL    HW195235  11.179   3.212   8.323
31134SOL    HW295236  11.054   3.281   8.371
31135SOL     OW95237   5.471  11.334   1.570
31135SOL    HW195238   5.540  11.298   1.626
31135SOL    HW295239   5.480  11.287   1.488
31136SOL     OW95240   1.218  12.427   9.513
31136SOL    HW195241   1.306  12.444   9.478
31136SOL    HW295242   1.228  12.348   9.566
31137SOL     OW95243  10.188   9.783   1.414
31137SOL    HW195244  10.253   9.829   1.361
31137SOL    HW295245  10.112   9.776   1.356
31138SOL     OW95246   6.396  10.461   3.675
31138SOL    HW195247   6.482  10.420   3.669
31138SOL    HW295248   6.338  10.390   3.703
31139SOL     OW95249  13.616   9.727   1.373
31139SOL    HW195250  13.605   9.778   1.454
31139SOL    HW295251  13.665   9.784   1.315
31140SOL     OW95252  12.056   8.455   8.419
31140SOL    HW195253  12.105   8.386   8.463
31140SOL    HW295254  11.964   8.431   8.432
31141SOL     OW95255   8.558   2.016  12.425
31141SOL    HW195256   8.620   1.952  12.392
31141SOL    HW295257   8.474   1.971  12.424
31142SOL     OW95258   1.045   6.721  12.134
31142SOL    HW195259   1.023   6.795  12.190
31142SOL    HW295260   1.049   6.758  12.046
31143SOL     OW95261   3.155   0.693   3.214
31143SOL    HW195262   3.113   0.660   3.293
31143SOL    HW295263   3.236   0.642   3.207
31144SOL     OW95264   6.576   2.724   6.530
31144SOL    HW195265   6.634   2.725   6.454
31144SOL    HW295266   6.600   2.803   6.580
31145SOL     OW95267   3.244   4.604  12.304
31145SOL    HW195268   3.287   4.543  12.364
31145SOL    HW295269   3.172   4.641  12.355
31146SOL     OW95270   8.693   2.322   3.070
31146SOL    HW195271   8.748   2.255   3.111
31146SOL    HW295272   8.614   2.325   3.124
31147SOL     OW95273  13.565   0.430  13.025
31147SOL    HW195274  13.513   0.484  12.966
31147SOL    HW295275  13.616   0.373  12.967
31148SOL     OW95276   1.091   6.471  11.240
31148SOL    HW195277   1.039   6.509  11.311
31148SOL    HW295278   1.180   6.466  11.275
31149SOL     OW95279   3.032   3.744   4.134
31149SOL    HW195280   3.080   3.722   4.055
31149SOL    HW295281   2.945   3.707   4.120
31150SOL     OW95282  13.922   0.482  12.746
31150SOL    HW195283  13.967   0.559  12.779
31150SOL    HW295284  13.991   0.419  12.726
31151SOL     OW95285   3.503  11.697  10.279
31151SOL    HW195286   3.485  11.778  10.232
31151SOL    HW295287   3.449  11.702  10.358
31152SOL     OW95288  13.477   0.837   1.392
31152SOL    HW195289  13.410   0.788   1.345
31152SOL    HW295290  13.457   0.929   1.373
31153SOL     OW95291  10.988   1.179   2.136
31153SOL    HW195292  11.072   1.138   2.160
31153SOL    HW295293  10.937   1.109   2.097
31154SOL     OW95294  12.683  10.416  14.478
31154SOL    HW195295  12.691  10.503  14.439
31154SOL    HW295296  12.606  10.378  14.435
31155SOL     OW95297   4.967   0.613   3.656
31155SOL    HW195298   5.026   0.590   3.728
31155SOL    HW295299   4.899   0.546   3.659
31156SOL     OW95300  11.647  14.135  10.332
31156SOL    HW195301  11.632  14.078  10.408
31156SOL    HW295302  11.741  14.130  10.317
31157SOL     OW95303   1.565   5.797   5.248
31157SOL    HW195304   1.629   5.799   5.176
31157SOL    HW295305   1.532   5.887   5.253
31158SOL     OW95306   6.059   7.418   3.968
31158SOL    HW195307   6.032   7.384   3.883
31158SOL    HW295308   6.154   7.404   3.970
31159SOL     OW95309   6.423   2.720   5.967
31159SOL    HW195310   6.510   2.711   5.927
31159SOL    HW295311   6.442   2.750   6.056
31160SOL     OW95312   9.662   6.158   7.994
31160SOL    HW195313   9.694   6.240   8.031
31160SOL    HW295314   9.678   6.093   8.063
31161SOL     OW95315   7.947   3.513   9.378
31161SOL    HW195316   7.943   3.446   9.447
31161SOL    HW295317   7.905   3.589   9.416
31162SOL     OW95318  14.646   7.958  10.678
31162SOL    HW195319  14.611   7.871  10.658
31162SOL    HW295320  14.735   7.942  10.710
31163SOL     OW95321   3.905   1.042  13.821
31163SOL    HW195322   3.869   1.015  13.736
31163SOL    HW295323   3.847   1.000  13.885
31164SOL     OW95324   7.968  14.783   7.008
31164SOL    HW195325   8.000  14.695   7.026
31164SOL    HW295326   7.872  14.774   7.006
31165SOL     OW95327  14.296   4.642   4.741
31165SOL    HW195328  14.367   4.583   4.765
31165SOL    HW295329  14.237   4.642   4.816
31166SOL     OW95330   3.645   4.045  10.712
31166SOL    HW195331   3.646   4.129  10.759
31166SOL    HW295332   3.682   3.982  10.774
31167SOL     OW95333   4.568   9.395   3.437
31167SOL    HW195334   4.580   9.490   3.432
31167SOL    HW295335   4.474   9.382   3.420
31168SOL     OW95336   3.763  10.613  10.308
31168SOL    HW195337   3.719  10.561  10.375
31168SOL    HW295338   3.699  10.679  10.282
31169SOL     OW95339   3.247   4.533   9.828
31169SOL    HW195340   3.212   4.518   9.740
31169SOL    HW295341   3.183   4.492   9.887
31170SOL     OW95342   9.416   4.123   3.601
31170SOL    HW195343   9.326   4.114   3.631
31170SOL    HW295344   9.414   4.097   3.509
31171SOL     OW95345   9.783   7.421  14.485
31171SOL    HW195346   9.793   7.456  14.396
31171SOL    HW295347   9.720   7.480  14.527
31172SOL     OW95348  12.103   6.056   3.850
31172SOL    HW195349  12.073   5.970   3.879
31172SOL    HW295350  12.031   6.091   3.798
31173SOL     OW95351  14.523   7.401  10.755
31173SOL    HW195352  14.480   7.396  10.841
31173SOL    HW295353  14.452   7.425  10.695
31174SOL     OW95354  11.588   1.373   2.298
31174SOL    HW195355  11.659   1.309   2.302
31174SOL    HW295356  11.545   1.366   2.383
31175SOL     OW95357   9.407   5.490   4.753
31175SOL    HW195358   9.455   5.548   4.695
31175SOL    HW295359   9.462   5.482   4.830
31176SOL     OW95360  12.998  11.808  10.722
31176SOL    HW195361  12.949  11.852  10.653
31176SOL    HW295362  12.932  11.765  10.776
31177SOL     OW95363   6.799   2.565   8.456
31177SOL    HW195364   6.743   2.641   8.474
31177SOL    HW295365   6.811   2.523   8.542
31178SOL     OW95366   5.647  10.736  10.820
31178SOL    HW195367   5.689  10.781  10.894
31178SOL    HW295368   5.580  10.797  10.791
31179SOL     OW95369   9.755   2.222  10.004
31179SOL    HW195370   9.769   2.313   9.979
31179SOL    HW295371   9.670   2.200   9.967
31180SOL     OW95372   3.409  10.154   2.262
31180SOL    HW195373   3.399  10.059   2.257
31180SOL    HW295374   3.390  10.184   2.173
31181SOL     OW95375  11.269   3.359   5.462
31181SOL    HW195376  11.192   3.367   5.519
31181SOL    HW295377  11.295   3.268   5.469
31182SOL     OW95378   6.459   4.926   4.005
31182SOL    HW195379   6.493   4.865   4.070
31182SOL    HW295380   6.533   4.944   3.947
31183SOL     OW95381   6.640   1.211   3.326
31183SOL    HW195382   6.709   1.276   3.316
31183SOL    HW295383   6.684   1.127   3.313
31184SOL     OW95384  10.034   1.511   4.026
31184SOL    HW195385  10.018   1.449   4.097
31184SOL    HW295386  10.011   1.462   3.946
31185SOL     OW95387   8.741   2.517   7.302
31185SOL    HW195388   8.661   2.522   7.251
31185SOL    HW295389   8.730   2.439   7.356
31186SOL     OW95390  11.914   5.952   4.091
31186SOL    HW195391  11.967   5.895   4.147
31186SOL    HW295392  11.825   5.915   4.097
31187SOL     OW95393   6.568   7.921   5.438
31187SOL    HW195394   6.519   7.990   5.394
31187SOL    HW295395   6.639   7.967   5.483
31188SOL     OW95396  12.120  14.650   1.671
31188SOL    HW195397  12.190  14.585   1.668
31188SOL    HW295398  12.094  14.661   1.579
31189SOL     OW95399  11.206   4.608  10.531
31189SOL    HW195400  11.151   4.649  10.465
31189SOL    HW295401  11.223   4.520  10.498
31190SOL     OW95402   7.452   4.931   5.645
31190SOL    HW195403   7.368   4.907   5.686
31190SOL    HW295404   7.517   4.916   5.714
31191SOL     OW95405   4.216   3.978   4.643
31191SOL    HW195406   4.161   3.901   4.657
31191SOL    HW295407   4.177   4.023   4.568
31192SOL     OW95408  12.747   7.829   4.954
31192SOL    HW195409  12.716   7.888   5.022
31192SOL    HW295410  12.744   7.742   4.993
31193SOL     OW95411  12.642   2.588   0.168
31193SOL    HW195412  12.671   2.662   0.222
31193SOL    HW295413  12.689   2.513   0.203
31194SOL     OW95414   9.819   5.440   8.338
31194SOL    HW195415   9.835   5.356   8.382
31194SOL    HW295416   9.888   5.445   8.271
31195SOL     OW95417  10.530   6.818   5.447
31195SOL    HW195418  10.502   6.786   5.533
31195SOL    HW295419  10.625   6.815   5.450
31196SOL     OW95420  14.776  14.610   8.185
31196SOL    HW195421  14.770  14.551   8.260
31196SOL    HW295422  14.742  14.560   8.111
31197SOL     OW95423   9.529  10.782   6.563
31197SOL    HW195424   9.468  10.841   6.607
31197SOL    HW295425   9.478  10.703   6.545
31198SOL     OW95426   3.373  11.556   5.075
31198SOL    HW195427   3.333  11.470   5.092
31198SOL    HW295428   3.334  11.583   4.992
31199SOL     OW95429  14.360   8.806  10.693
31199SOL    HW195430  14.318   8.889  10.718
31199SOL    HW295431  14.375   8.815  10.599
31200SOL     OW95432   6.602  11.514   9.370
31200SOL    HW195433   6.541  11.487   9.301
31200SOL    HW295434   6.688  11.487   9.337
31201SOL     OW95435  10.668   9.345   0.949
31201SOL    HW195436  10.703   9.347   1.039
31201SOL    HW295437  10.728   9.399   0.899
31202SOL     OW95438   2.797   3.089   4.958
31202SOL    HW195439   2.741   3.080   4.881
31202SOL    HW295440   2.835   3.177   4.949
31203SOL     OW95441   2.786   7.630  10.943
31203SOL    HW195442   2.718   7.632  10.875
31203SOL    HW295443   2.743   7.666  11.021
31204SOL     OW95444   8.290  10.104  11.317
31204SOL    HW195445   8.254  10.024  11.278
31204SOL    HW295446   8.222  10.134  11.377
31205SOL     OW95447  11.753  14.039   5.244
31205SOL    HW195448  11.770  13.973   5.178
31205SOL    HW295449  11.779  13.997   5.327
31206SOL     OW95450  14.265  10.162  11.805
31206SOL    HW195451  14.266  10.074  11.767
31206SOL    HW295452  14.343  10.165  11.861
31207SOL     OW95453  10.400   9.316  10.628
31207SOL    HW195454  10.368   9.331  10.539
31207SOL    HW295455  10.469   9.251  10.619
31208SOL     OW95456  11.161  12.065   8.718
31208SOL    HW195457  11.095  12.118   8.673
31208SOL    HW295458  11.156  11.979   8.675
31209SOL     OW95459   7.897   2.709   1.600
31209SOL    HW195460   7.975   2.760   1.619
31209SOL    HW295461   7.870   2.673   1.685
31210SOL     OW95462   7.091  10.523   8.394
31210SOL    HW195463   7.008  10.476   8.393
31210SOL    HW295464   7.067  10.615   8.378
31211SOL     OW95465   3.972   5.941   6.870
31211SOL    HW195466   4.018   6.021   6.895
31211SOL    HW295467   3.974   5.886   6.949
31212SOL     OW95468   5.519   8.325  14.659
31212SOL    HW195469   5.556   8.370  14.583
31212SOL    HW295470   5.588   8.330  14.726
31213SOL     OW95471   6.861   0.664   2.103
31213SOL    HW195472   6.931   0.706   2.154
31213SOL    HW295473   6.853   0.717   2.024
31214SOL     OW95474   8.589   6.103   3.652
31214SOL    HW195475   8.524   6.033   3.647
31214SOL    HW295476   8.599   6.133   3.561
31215SOL     OW95477  13.255   3.509  13.792
31215SOL    HW195478  13.263   3.548  13.880
31215SOL    HW295479  13.311   3.564  13.737
31216SOL     OW95480   6.584   3.528   0.354
31216SOL    HW195481   6.667   3.553   0.313
31216SOL    HW295482   6.522   3.596   0.327
31217SOL     OW95483  14.715   5.117   8.181
31217SOL    HW195484  14.692   5.077   8.265
31217SOL    HW295485  14.782   5.181   8.203
31218SOL     OW95486   4.510   6.204   6.569
31218SOL    HW195487   4.445   6.273   6.556
31218SOL    HW295488   4.516   6.161   6.483
31219SOL     OW95489   6.265   3.903   7.436
31219SOL    HW195490   6.200   3.880   7.502
31219SOL    HW295491   6.298   3.820   7.404
31220SOL     OW95492  14.226  14.680  11.557
31220SOL    HW195493  14.154  14.720  11.606
31220SOL    HW295494  14.305  14.718  11.595
31221SOL     OW95495  12.872   3.392  14.314
31221SOL    HW195496  12.855   3.479  14.351
31221SOL    HW295497  12.899   3.339  14.389
31222SOL     OW95498   7.021   7.829  14.370
31222SOL    HW195499   7.074   7.800  14.445
31222SOL    HW295500   7.069   7.903  14.334
31223SOL     OW95501  11.111   4.421   4.434
31223SOL    HW195502  11.127   4.332   4.402
31223SOL    HW295503  11.198   4.455   4.455
31224SOL     OW95504  10.955   7.231   1.514
31224SOL    HW195505  10.970   7.172   1.440
31224SOL    HW295506  11.001   7.190   1.587
31225SOL     OW95507   4.307   2.886  13.214
31225SOL    HW195508   4.386   2.923  13.175
31225SOL    HW295509   4.285   2.811  13.158
31226SOL     OW95510   8.513   0.717   1.531
31226SOL    HW195511   8.563   0.798   1.544
31226SOL    HW295512   8.465   0.705   1.613
31227SOL     OW95513   8.737  12.940   3.635
31227SOL    HW195514   8.771  12.865   3.587
31227SOL    HW295515   8.663  12.906   3.685
31228SOL     OW95516   7.788  12.926   2.987
31228SOL    HW195517   7.699  12.896   2.970
31228SOL    HW295518   7.829  12.929   2.900
31229SOL     OW95519   9.080  10.638  12.676
31229SOL    HW195520   9.013  10.668  12.614
31229SOL    HW295521   9.036  10.570  12.728
31230SOL     OW95522  13.141   0.002  11.406
31230SOL    HW195523  13.185   0.078  11.442
31230SOL    HW295524  13.185  14.806  11.445
31231SOL     OW95525   3.632  10.858  11.983
31231SOL    HW195526   3.624  10.954  11.987
31231SOL    HW295527   3.722  10.843  11.952
31232SOL     OW95528   4.541  12.074  13.823
31232SOL    HW195529   4.519  12.144  13.885
31232SOL    HW295530   4.521  12.111  13.737
31233SOL     OW95531   2.167  10.390   6.720
31233SOL    HW195532   2.240  10.425   6.770
31233SOL    HW295533   2.142  10.310   6.766
31234SOL     OW95534  12.697  11.846   3.784
31234SOL    HW195535  12.611  11.884   3.769
31234SOL    HW295536  12.748  11.871   3.708
31235SOL     OW95537   3.502   4.542  11.292
31235SOL    HW195538   3.494   4.636  11.310
31235SOL    HW295539   3.471   4.533  11.202
31236SOL     OW95540   0.998  12.876   2.062
31236SOL    HW195541   0.985  12.895   2.155
31236SOL    HW295542   1.033  12.786   2.061
31237SOL     OW95543   7.965   5.115   2.977
31237SOL    HW195544   8.016   5.187   2.940
31237SOL    HW295545   7.977   5.123   3.072
31238SOL     OW95546   0.036  11.544   6.120
31238SOL    HW195547  14.867  11.482   6.175
31238SOL    HW295548   0.094  11.590   6.182
31239SOL     OW95549   9.113   2.501   4.604
31239SOL    HW195550   9.149   2.417   4.632
31239SOL    HW295551   9.111   2.555   4.683
31240SOL     OW95552   6.792   0.765   7.555
31240SOL    HW195553   6.754   0.683   7.586
31240SOL    HW295554   6.792   0.758   7.460
31241SOL     OW95555  10.020   1.349   8.523
31241SOL    HW195556   9.969   1.374   8.599
31241SOL    HW295557   9.960   1.296   8.470
31242SOL     OW95558   5.573   1.897  14.404
31242SOL    HW195559   5.492   1.917  14.450
31242SOL    HW295560   5.604   1.816  14.444
31243SOL     OW95561  10.522   7.883   7.478
31243SOL    HW195562  10.583   7.888   7.405
31243SOL    HW295563  10.554   7.810   7.531
31244SOL     OW95564   7.559   3.927   4.501
31244SOL    HW195565   7.618   3.866   4.545
31244SOL    HW295566   7.529   3.879   4.423
31245SOL     OW95567   4.279   6.027  14.877
31245SOL    HW195568   4.203   5.972   0.016
31245SOL    HW295569   4.315   6.047   0.085
31246SOL     OW95570   1.867  14.657   8.238
31246SOL    HW195571   1.889  14.626   8.326
31246SOL    HW295572   1.939  14.715   8.213
31247SOL     OW95573  10.499   1.148  13.375
31247SOL    HW195574  10.522   1.238  13.349
31247SOL    HW295575  10.431   1.160  13.441
31248SOL     OW95576  13.428   4.660   5.919
31248SOL    HW195577  13.518   4.651   5.889
31248SOL    HW295578  13.400   4.570   5.939
31249SOL     OW95579   6.577   5.123   3.332
31249SOL    HW195580   6.593   5.164   3.417
31249SOL    HW295581   6.510   5.056   3.350
31250SOL     OW95582   6.297   1.815   0.698
31250SOL    HW195583   6.370   1.847   0.750
31250SOL    HW295584   6.275   1.730   0.736
31251SOL     OW95585   5.762  13.205   6.773
31251SOL    HW195586   5.815  13.126   6.783
31251SOL    HW295587   5.782  13.257   6.851
31252SOL     OW95588   6.276   4.131   9.973
31252SOL    HW195589   6.201   4.101  10.024
31252SOL    HW295590   6.252   4.112   9.882
31253SOL     OW95591  14.406   8.120  14.704
31253SOL    HW195592  14.332   8.059  14.703
31253SOL    HW295593  14.476   8.071  14.748
31254SOL     OW95594   5.582   6.683   6.299
31254SOL    HW195595   5.630   6.611   6.258
31254SOL    HW295596   5.499   6.686   6.252
31255SOL     OW95597   8.441   8.620   5.076
31255SOL    HW195598   8.461   8.629   5.170
31255SOL    HW295599   8.515   8.661   5.032
31256SOL     OW95600  13.397  12.994  12.684
31256SOL    HW195601  13.419  12.946  12.605
31256SOL    HW295602  13.361  13.076  12.653
31257SOL     OW95603   5.518   7.524   8.699
31257SOL    HW195604   5.519   7.590   8.629
31257SOL    HW295605   5.575   7.454   8.666
31258SOL     OW95606   9.090   1.273   1.231
31258SOL    HW195607   9.064   1.304   1.317
31258SOL    HW295608   9.043   1.329   1.169
31259SOL     OW95609   7.370  14.600   3.138
31259SOL    HW195610   7.404  14.684   3.107
31259SOL    HW295611   7.321  14.623   3.218
31260SOL     OW95612   5.796  13.761   7.211
31260SOL    HW195613   5.825  13.808   7.132
31260SOL    HW295614   5.786  13.830   7.277
31261SOL     OW95615   5.310  12.905   1.056
31261SOL    HW195616   5.397  12.937   1.081
31261SOL    HW295617   5.325  12.857   0.975
31262SOL     OW95618   1.658   8.088  10.324
31262SOL    HW195619   1.750   8.068  10.339
31262SOL    HW295620   1.621   8.094  10.412
31263SOL     OW95621   6.419  14.224   6.112
31263SOL    HW195622   6.399  14.161   6.181
31263SOL    HW295623   6.338  14.273   6.099
31264SOL     OW95624   3.844   4.619  12.497
31264SOL    HW195625   3.867   4.712  12.492
31264SOL    HW295626   3.821   4.596  12.407
31265SOL     OW95627   4.780   7.168   9.542
31265SOL    HW195628   4.795   7.133   9.454
31265SOL    HW295629   4.708   7.116   9.577
31266SOL     OW95630   5.235   3.444   8.091
31266SOL    HW195631   5.180   3.464   8.167
31266SOL    HW295632   5.234   3.349   8.085
31267SOL     OW95633   9.292   9.046   8.583
31267SOL    HW195634   9.231   8.999   8.526
31267SOL    HW295635   9.350   8.978   8.618
31268SOL     OW95636   3.073   9.720   9.474
31268SOL    HW195637   3.046   9.644   9.423
31268SOL    HW295638   3.014   9.721   9.550
31269SOL     OW95639   4.433   2.330   5.379
31269SOL    HW195640   4.525   2.347   5.401
31269SOL    HW295641   4.394   2.416   5.371
31270SOL     OW95642   3.629  14.271   3.113
31270SOL    HW195643   3.622  14.347   3.055
31270SOL    HW295644   3.709  14.227   3.085
31271SOL     OW95645  14.753   2.864   6.171
31271SOL    HW195646  14.725   2.798   6.235
31271SOL    HW295647  14.672   2.910   6.149
31272SOL     OW95648  14.046   4.793   4.091
31272SOL    HW195649  14.117   4.835   4.043
31272SOL    HW295650  14.046   4.835   4.177
31273SOL     OW95651   4.255   0.844   6.900
31273SOL    HW195652   4.203   0.841   6.820
31273SOL    HW295653   4.293   0.932   6.901
31274SOL     OW95654   7.137  11.557   9.542
31274SOL    HW195655   7.073  11.488   9.524
31274SOL    HW295656   7.218  11.511   9.563
31275SOL     OW95657  12.909   6.721  12.198
31275SOL    HW195658  12.906   6.674  12.281
31275SOL    HW295659  12.826   6.699  12.155
31276SOL     OW95660   6.593   5.798   0.128
31276SOL    HW195661   6.642   5.869   0.170
31276SOL    HW295662   6.535   5.766   0.197
31277SOL     OW95663  11.795   7.885   1.957
31277SOL    HW195664  11.791   7.981   1.953
31277SOL    HW295665  11.771   7.857   1.869
31278SOL     OW95666   6.927   7.028   9.680
31278SOL    HW195667   6.897   7.096   9.620
31278SOL    HW295668   6.853   7.013   9.739
31279SOL     OW95669   5.519   0.851   5.373
31279SOL    HW195670   5.515   0.929   5.318
31279SOL    HW295671   5.465   0.873   5.449
31280SOL     OW95672   1.209  10.642   0.391
31280SOL    HW195673   1.174  10.689   0.315
31280SOL    HW295674   1.268  10.704   0.433
31281SOL     OW95675   1.300   4.219   9.224
31281SOL    HW195676   1.351   4.300   9.221
31281SOL    HW295677   1.358   4.155   9.265
31282SOL     OW95678  10.121   7.596   1.861
31282SOL    HW195679  10.028   7.601   1.883
31282SOL    HW295680  10.162   7.553   1.936
31283SOL     OW95681   0.996   9.320   5.128
31283SOL    HW195682   0.982   9.395   5.070
31283SOL    HW295683   0.908   9.283   5.139
31284SOL     OW95684  11.209  11.688   2.696
31284SOL    HW195685  11.152  11.627   2.649
31284SOL    HW295686  11.232  11.755   2.632
31285SOL     OW95687   9.803   9.780   3.302
31285SOL    HW195688   9.766   9.855   3.256
31285SOL    HW295689   9.854   9.734   3.236
31286SOL     OW95690  12.189  12.620   4.583
31286SOL    HW195691  12.219  12.694   4.636
31286SOL    HW295692  12.228  12.543   4.624
31287SOL     OW95693   1.089  10.430  10.286
31287SOL    HW195694   1.160  10.383  10.242
31287SOL    HW295695   1.134  10.498  10.337
31288SOL     OW95696  11.872  12.816  14.566
31288SOL    HW195697  11.922  12.738  14.546
31288SOL    HW295698  11.804  12.819  14.498
31289SOL     OW95699   9.224  11.102   8.299
31289SOL    HW195700   9.157  11.054   8.251
31289SOL    HW295701   9.306  11.060   8.273
31290SOL     OW95702  13.375   6.206   6.303
31290SOL    HW195703  13.430   6.229   6.378
31290SOL    HW295704  13.431   6.216   6.227
31291SOL     OW95705   2.384  13.430   2.683
31291SOL    HW195706   2.377  13.375   2.605
31291SOL    HW295707   2.297  13.468   2.693
31292SOL     OW95708  12.819  12.771  14.478
31292SOL    HW195709  12.753  12.785  14.410
31292SOL    HW295710  12.846  12.679  14.467
31293SOL     OW95711   6.094  11.938  12.976
31293SOL    HW195712   6.168  11.957  12.919
31293SOL    HW295713   6.126  11.869  13.034
31294SOL     OW95714   5.649   9.842   3.399
31294SOL    HW195715   5.703   9.802   3.331
31294SOL    HW295716   5.694   9.823   3.481
31295SOL     OW95717   1.026   5.980   7.093
31295SOL    HW195718   1.051   6.066   7.126
31295SOL    HW295719   0.954   5.997   7.034
31296SOL     OW95720   7.850   7.633  12.040
31296SOL    HW195721   7.758   7.639  12.014
31296SOL    HW295722   7.850   7.573  12.114
31297SOL     OW95723   1.595  12.571   6.175
31297SOL    HW195724   1.670  12.585   6.233
31297SOL    HW295725   1.521  12.558   6.235
31298SOL     OW95726   5.258  12.113  11.624
31298SOL    HW195727   5.351  12.123  11.643
31298SOL    HW295728   5.239  12.021  11.645
31299SOL     OW95729   6.683   4.662   3.899
31299SOL    HW195730   6.696   4.745   3.945
31299SOL    HW295731   6.715   4.678   3.811
31300SOL     OW95732   3.245  11.108  13.150
31300SOL    HW195733   3.184  11.056  13.201
31300SOL    HW295734   3.218  11.094  13.059
31301SOL     OW95735  12.413   9.618  12.416
31301SOL    HW195736  12.392   9.670  12.493
31301SOL    HW295737  12.343   9.637  12.354
31302SOL     OW95738  10.388   3.244   2.320
31302SOL    HW195739  10.444   3.184   2.271
31302SOL    HW295740  10.301   3.231   2.283
31303SOL     OW95741  11.238   1.666   1.551
31303SOL    HW195742  11.253   1.627   1.637
31303SOL    HW295743  11.193   1.599   1.501
31304SOL     OW95744   5.069   6.555   5.367
31304SOL    HW195745   5.081   6.485   5.430
31304SOL    HW295746   5.153   6.561   5.322
31305SOL     OW95747   5.755   2.919  12.582
31305SOL    HW195748   5.766   2.926  12.487
31305SOL    HW295749   5.829   2.866  12.611
31306SOL     OW95750  13.661   3.692  13.737
31306SOL    HW195751  13.640   3.607  13.775
31306SOL    HW295752  13.736   3.675  13.680
31307SOL     OW95753   5.092  11.654   5.150
31307SOL    HW195754   5.099  11.747   5.130
31307SOL    HW295755   5.120  11.610   5.069
31308SOL     OW95756   8.352  11.865   0.405
31308SOL    HW195757   8.404  11.928   0.455
31308SOL    HW295758   8.379  11.779   0.439
31309SOL     OW95759   5.188   9.192   2.118
31309SOL    HW195760   5.245   9.150   2.182
31309SOL    HW295761   5.150   9.119   2.069
31310SOL     OW95762  13.733   8.508   7.633
31310SOL    HW195763  13.811   8.560   7.617
31310SOL    HW295764  13.753   8.458   7.712
31311SOL     OW95765   5.836  14.336   5.368
31311SOL    HW195766   5.876  14.401   5.311
31311SOL    HW295767   5.742  14.354   5.363
31312SOL     OW95768   1.029  12.700   3.627
31312SOL    HW195769   1.101  12.742   3.580
31312SOL    HW295770   1.031  12.739   3.715
31313SOL     OW95771   0.731   4.822   9.894
31313SOL    HW195772   0.703   4.909   9.867
31313SOL    HW295773   0.818   4.811   9.854
31314SOL     OW95774  10.754   7.581  11.766
31314SOL    HW195775  10.725   7.493  11.740
31314SOL    HW295776  10.683   7.614  11.820
31315SOL     OW95777   1.007   4.894  11.961
31315SOL    HW195778   1.024   4.876  12.054
31315SOL    HW295779   0.912   4.891  11.953
31316SOL     OW95780  12.480  13.891   3.375
31316SOL    HW195781  12.494  13.808   3.421
31316SOL    HW295782  12.535  13.953   3.422
31317SOL     OW95783   7.866   0.049  12.072
31317SOL    HW195784   7.797   0.063  12.007
31317SOL    HW295785   7.825  14.874  12.139
31318SOL     OW95786   8.310   2.315   0.351
31318SOL    HW195787   8.340   2.321   0.441
31318SOL    HW295788   8.307   2.405   0.320
31319SOL     OW95789   7.136   5.455   6.942
31319SOL    HW195790   7.231   5.460   6.930
31319SOL    HW295791   7.101   5.516   6.877
31320SOL     OW95792   5.664   9.694   5.454
31320SOL    HW195793   5.635   9.660   5.370
31320SOL    HW295794   5.584   9.721   5.499
31321SOL     OW95795   4.186  13.198   3.874
31321SOL    HW195796   4.248  13.126   3.859
31321SOL    HW295797   4.107  13.155   3.907
31322SOL     OW95798   3.009   2.026   5.731
31322SOL    HW195799   3.068   2.088   5.774
31322SOL    HW295800   3.017   1.945   5.781
31323SOL     OW95801   4.226   5.589  11.255
31323SOL    HW195802   4.297   5.592  11.191
31323SOL    HW295803   4.267   5.558  11.336
31324SOL     OW95804  14.046   5.497   4.370
31324SOL    HW195805  14.121   5.484   4.311
31324SOL    HW295806  14.080   5.550   4.442
31325SOL     OW95807   8.261  12.550   3.634
31325SOL    HW195808   8.334  12.489   3.633
31325SOL    HW295809   8.213  12.528   3.714
31326SOL     OW95810   2.158   2.117   0.888
31326SOL    HW195811   2.075   2.080   0.858
31326SOL    HW295812   2.158   2.103   0.983
31327SOL     OW95813  12.697   5.105  10.780
31327SOL    HW195814  12.677   5.011  10.778
31327SOL    HW295815  12.626   5.145  10.729
31328SOL     OW95816   7.481   2.862   2.034
31328SOL    HW195817   7.470   2.906   2.118
31328SOL    HW295818   7.436   2.918   1.971
31329SOL     OW95819   7.822   5.707   6.401
31329SOL    HW195820   7.779   5.706   6.315
31329SOL    HW295821   7.910   5.674   6.384
31330SOL     OW95822   0.398  13.911   2.643
31330SOL    HW195823   0.422  13.851   2.573
31330SOL    HW295824   0.307  13.936   2.623
31331SOL     OW95825   7.889   2.744   2.883
31331SOL    HW195826   7.850   2.680   2.824
31331SOL    HW295827   7.825   2.815   2.889
31332SOL     OW95828  14.875   0.528   0.115
31332SOL    HW195829   0.048   0.496   0.042
31332SOL    HW295830   0.060   0.546   0.185
31333SOL     OW95831   2.800   6.212  12.156
31333SOL    HW195832   2.709   6.197  12.132
31333SOL    HW295833   2.816   6.151  12.229
31334SOL     OW95834   1.530  11.768   4.530
31334SOL    HW195835   1.462  11.718   4.485
31334SOL    HW295836   1.485  11.848   4.560
31335SOL     OW95837   9.592  13.792   5.205
31335SOL    HW195838   9.571  13.715   5.152
31335SOL    HW295839   9.518  13.852   5.191
31336SOL     OW95840   2.742   9.748   2.803
31336SOL    HW195841   2.670   9.812   2.800
31336SOL    HW295842   2.748   9.715   2.713
31337SOL     OW95843   9.045   1.739   7.461
31337SOL    HW195844   8.956   1.763   7.434
31337SOL    HW295845   9.091   1.822   7.468
31338SOL     OW95846   6.009   4.139   1.700
31338SOL    HW195847   6.025   4.112   1.791
31338SOL    HW295848   5.920   4.175   1.702
31339SOL     OW95849  13.574   0.733  11.348
31339SOL    HW195850  13.554   0.658  11.292
31339SOL    HW295851  13.665   0.721  11.374
31340SOL     OW95852  12.714   3.549   5.315
31340SOL    HW195853  12.640   3.601   5.283
31340SOL    HW295854  12.708   3.467   5.266
31341SOL     OW95855   3.027  10.048   1.097
31341SOL    HW195856   2.952   9.992   1.077
31341SOL    HW295857   3.092   9.988   1.135
31342SOL     OW95858   6.369   7.124   8.140
31342SOL    HW195859   6.358   7.207   8.186
31342SOL    HW295860   6.300   7.123   8.074
31343SOL     OW95861  12.402   8.031   2.960
31343SOL    HW195862  12.309   8.042   2.978
31343SOL    HW295863  12.415   7.936   2.960
31344SOL     OW95864   8.030  13.078  14.370
31344SOL    HW195865   7.984  13.142  14.316
31344SOL    HW295866   8.022  12.995  14.323
31345SOL     OW95867  11.085  13.166  11.421
31345SOL    HW195868  11.071  13.203  11.508
31345SOL    HW295869  11.012  13.106  11.408
31346SOL     OW95870   5.582  14.574   6.247
31346SOL    HW195871   5.491  14.549   6.260
31346SOL    HW295872   5.584  14.668   6.263
31347SOL     OW95873  12.823  11.762   9.824
31347SOL    HW195874  12.873  11.837   9.854
31347SOL    HW295875  12.868  11.733   9.745
31348SOL     OW95876  10.593  12.527   8.857
31348SOL    HW195877  10.547  12.516   8.941
31348SOL    HW295878  10.525  12.515   8.791
31349SOL     OW95879   8.512  14.594   7.137
31349SOL    HW195880   8.454  14.607   7.062
31349SOL    HW295881   8.492  14.667   7.196
31350SOL     OW95882   2.884   1.966  13.308
31350SOL    HW195883   2.922   1.999  13.227
31350SOL    HW295884   2.830   1.891  13.280
31351SOL     OW95885   4.142   1.467  12.644
31351SOL    HW195886   4.209   1.520  12.686
31351SOL    HW295887   4.120   1.515  12.564
31352SOL     OW95888  11.014   0.715   1.661
31352SOL    HW195889  10.953   0.775   1.703
31352SOL    HW295890  10.963   0.637   1.643
31353SOL     OW95891   8.437   8.343   3.279
31353SOL    HW195892   8.528   8.369   3.263
31353SOL    HW295893   8.432   8.254   3.245
31354SOL     OW95894   6.953   3.661  11.408
31354SOL    HW195895   6.917   3.595  11.468
31354SOL    HW295896   7.038   3.683  11.446
31355SOL     OW95897   2.193   3.465   4.979
31355SOL    HW195898   2.223   3.528   4.913
31355SOL    HW295899   2.108   3.436   4.947
31356SOL     OW95900   3.290   0.987   0.080
31356SOL    HW195901   3.376   0.954   0.103
31356SOL    HW295902   3.305   1.040   0.001
31357SOL     OW95903  13.441   7.946  14.045
31357SOL    HW195904  13.427   8.011  13.977
31357SOL    HW295905  13.427   7.993  14.127
31358SOL     OW95906  12.662  11.003   2.554
31358SOL    HW195907  12.596  10.974   2.490
31358SOL    HW295908  12.743  11.007   2.504
31359SOL     OW95909   1.097   9.364   8.336
31359SOL    HW195910   1.180   9.324   8.364
31359SOL    HW295911   1.100   9.360   8.240
31360SOL     OW95912   9.772   6.606   2.307
31360SOL    HW195913   9.765   6.609   2.212
31360SOL    HW295914   9.839   6.541   2.325
31361SOL     OW95915   1.889   0.403   9.095
31361SOL    HW195916   1.911   0.455   9.018
31361SOL    HW295917   1.856   0.466   9.159
31362SOL     OW95918  10.498  12.696   0.511
31362SOL    HW195919  10.534  12.628   0.455
31362SOL    HW295920  10.464  12.762   0.451
31363SOL     OW95921  13.493  13.885   4.420
31363SOL    HW195922  13.448  13.814   4.375
31363SOL    HW295923  13.558  13.917   4.357
31364SOL     OW95924   8.750   9.587   8.390
31364SOL    HW195925   8.840   9.586   8.424
31364SOL    HW295926   8.699   9.544   8.458
31365SOL     OW95927   6.950  14.012   7.726
31365SOL    HW195928   6.977  13.959   7.800
31365SOL    HW295929   7.024  14.007   7.665
31366SOL     OW95930   9.768  10.204  11.677
31366SOL    HW195931   9.674  10.209  11.693
31366SOL    HW295932   9.785  10.111  11.665
31367SOL     OW95933   0.969   8.376   5.769
31367SOL    HW195934   0.949   8.447   5.708
31367SOL    HW295935   1.039   8.411   5.825
31368SOL     OW95936   7.265  13.136  11.540
31368SOL    HW195937   7.259  13.169  11.450
31368SOL    HW295938   7.270  13.214  11.595
31369SOL     OW95939  10.835  12.287   8.434
31369SOL    HW195940  10.890  12.302   8.511
31369SOL    HW295941  10.847  12.364   8.380
31370SOL     OW95942  11.858  14.602  14.329
31370SOL    HW195943  11.915  14.610  14.253
31370SOL    HW295944  11.798  14.677  14.321
31371SOL     OW95945  10.751   9.474   8.854
31371SOL    HW195946  10.792   9.433   8.778
31371SOL    HW295947  10.820   9.529   8.892
31372SOL     OW95948   2.326  11.433  12.847
31372SOL    HW195949   2.254  11.371  12.862
31372SOL    HW295950   2.305  11.508  12.904
31373SOL     OW95951   1.317  10.339  10.680
31373SOL    HW195952   1.278  10.413  10.633
31373SOL    HW295953   1.322  10.368  10.771
31374SOL     OW95954   2.033   2.175  11.763
31374SOL    HW195955   2.105   2.175  11.825
31374SOL    HW295956   2.023   2.267  11.738
31375SOL     OW95957   7.073   4.990   6.291
31375SOL    HW195958   7.104   4.953   6.374
31375SOL    HW295959   6.994   5.038   6.315
31376SOL     OW95960   0.153  10.394   6.773
31376SOL    HW195961   0.228  10.448   6.746
31376SOL    HW295962   0.130  10.345   6.694
31377SOL     OW95963   7.351   0.331   5.659
31377SOL    HW195964   7.278   0.291   5.613
31377SOL    HW295965   7.341   0.425   5.644
31378SOL     OW95966   5.305   6.382   7.571
31378SOL    HW195967   5.325   6.445   7.502
31378SOL    HW295968   5.212   6.362   7.560
31379SOL     OW95969   2.875   7.040   6.540
31379SOL    HW195970   2.829   7.100   6.599
31379SOL    HW295971   2.862   7.078   6.453
31380SOL     OW95972  10.523   2.264  12.664
31380SOL    HW195973  10.477   2.323  12.724
31380SOL    HW295974  10.457   2.199  12.639
31381SOL     OW95975  12.031  12.784  12.762
31381SOL    HW195976  12.047  12.876  12.783
31381SOL    HW295977  11.940  12.769  12.786
31382SOL     OW95978  12.587   5.884  14.012
31382SOL    HW195979  12.561   5.792  14.015
31382SOL    HW295980  12.523   5.926  13.954
31383SOL     OW95981   5.660  11.638   2.099
31383SOL    HW195982   5.659  11.722   2.146
31383SOL    HW295983   5.581  11.593   2.131
31384SOL     OW95984   2.973  11.711   0.917
31384SOL    HW195985   3.029  11.781   0.881
31384SOL    HW295986   3.034  11.655   0.965
31385SOL     OW95987   9.588   9.581  13.949
31385SOL    HW195988   9.532   9.515  13.989
31385SOL    HW295989   9.657   9.531  13.905
31386SOL     OW95990  12.839   2.792   6.105
31386SOL    HW195991  12.934   2.791   6.119
31386SOL    HW295992  12.803   2.746   6.181
31387SOL     OW95993   2.691   6.575  12.419
31387SOL    HW195994   2.730   6.510  12.361
31387SOL    HW295995   2.597   6.557  12.416
31388SOL     OW95996  12.865   8.029   6.366
31388SOL    HW195997  12.957   8.026   6.395
31388SOL    HW295998  12.814   8.023   6.446
31389SOL     OW95999   6.920   6.417   7.438
31389SOL    HW196000   6.935   6.511   7.424
31389SOL    HW296001   6.965   6.375   7.365
31390SOL     OW96002   7.573   9.103   5.173
31390SOL    HW196003   7.602   9.075   5.086
31390SOL    HW296004   7.520   9.181   5.157
31391SOL     OW96005   2.295  12.942  12.893
31391SOL    HW196006   2.258  12.998  12.825
31391SOL    HW296007   2.340  12.872  12.845
31392SOL     OW96008  10.851  10.051   9.168
31392SOL    HW196009  10.855  10.042   9.073
31392SOL    HW296010  10.781   9.991   9.194
31393SOL     OW96011  12.354   1.927   4.689
31393SOL    HW196012  12.301   1.973   4.623
31393SOL    HW296013  12.424   1.989   4.710
31394SOL     OW96014  10.565   1.265   5.821
31394SOL    HW196015  10.607   1.296   5.741
31394SOL    HW296016  10.598   1.324   5.890
31395SOL     OW96017  11.384   5.258   2.749
31395SOL    HW196018  11.330   5.215   2.815
31395SOL    HW296019  11.339   5.241   2.666
31396SOL     OW96020  14.271   1.541   4.675
31396SOL    HW196021  14.277   1.465   4.733
31396SOL    HW296022  14.362   1.559   4.649
31397SOL     OW96023   0.448   7.641   0.634
31397SOL    HW196024   0.538   7.625   0.663
31397SOL    HW296025   0.395   7.581   0.686
31398SOL     OW96026  12.752   4.324   5.443
31398SOL    HW196027  12.673   4.377   5.452
31398SOL    HW296028  12.742   4.280   5.359
31399SOL     OW96029   2.652   1.075   2.256
31399SOL    HW196030   2.632   1.154   2.206
31399SOL    HW296031   2.684   1.107   2.340
31400SOL     OW96032  13.514  12.359   6.034
31400SOL    HW196033  13.470  12.415   5.971
31400SOL    HW296034  13.467  12.373   6.116
31401SOL     OW96035   1.802  11.231   4.996
31401SOL    HW196036   1.795  11.152   5.048
31401SOL    HW296037   1.835  11.298   5.056
31402SOL     OW96038  11.545   5.506   6.206
31402SOL    HW196039  11.628   5.462   6.191
31402SOL    HW296040  11.508   5.519   6.118
31403SOL     OW96041   9.463   1.719   8.857
31403SOL    HW196042   9.531   1.681   8.802
31403SOL    HW296043   9.509   1.780   8.914
31404SOL     OW96044   1.195   8.628  14.280
31404SOL    HW196045   1.268   8.685  14.255
31404SOL    HW296046   1.120   8.688  14.286
31405SOL     OW96047   6.388   5.847   1.046
31405SOL    HW196048   6.349   5.789   0.981
31405SOL    HW296049   6.408   5.790   1.121
31406SOL     OW96050  11.978   3.428   8.766
31406SOL    HW196051  12.032   3.408   8.843
31406SOL    HW296052  11.978   3.347   8.715
31407SOL     OW96053  10.027   6.655   5.836
31407SOL    HW196054  10.000   6.581   5.891
31407SOL    HW296055  10.069   6.716   5.897
31408SOL     OW96056   4.589   3.368  12.681
31408SOL    HW196057   4.634   3.286  12.702
31408SOL    HW296058   4.538   3.388  12.760
31409SOL     OW96059   0.685   7.715  10.246
31409SOL    HW196060   0.769   7.707  10.202
31409SOL    HW296061   0.644   7.629  10.235
31410SOL     OW96062   6.527   7.178   9.515
31410SOL    HW196063   6.567   7.245   9.460
31410SOL    HW296064   6.433   7.192   9.507
31411SOL     OW96065   7.196   4.577   8.926
31411SOL    HW196066   7.127   4.609   8.867
31411SOL    HW296067   7.150   4.529   8.994
31412SOL     OW96068   1.732  11.443  12.682
31412SOL    HW196069   1.728  11.373  12.617
31412SOL    HW296070   1.641  11.463  12.702
31413SOL     OW96071   1.557   2.085   5.583
31413SOL    HW196072   1.508   2.080   5.501
31413SOL    HW296073   1.562   2.178   5.604
31414SOL     OW96074   6.603  11.182   9.952
31414SOL    HW196075   6.600  11.171   9.857
31414SOL    HW296076   6.593  11.277   9.965
31415SOL     OW96077  13.492   0.936   4.518
31415SOL    HW196078  13.546   0.923   4.440
31415SOL    HW296079  13.429   0.864   4.517
31416SOL     OW96080   7.103  12.577   8.083
31416SOL    HW196081   7.182  12.609   8.127
31416SOL    HW296082   7.132  12.555   7.994
31417SOL     OW96083  11.414  13.143  14.644
31417SOL    HW196084  11.449  13.192  14.719
31417SOL    HW296085  11.484  13.145  14.579
31418SOL     OW96086  11.077   8.279   0.879
31418SOL    HW196087  10.990   8.268   0.842
31418SOL    HW296088  11.062   8.291   0.973
31419SOL     OW96089   8.056   3.420   7.912
31419SOL    HW196090   8.044   3.505   7.869
31419SOL    HW296091   8.121   3.376   7.858
31420SOL     OW96092   6.337   2.290   5.125
31420SOL    HW196093   6.281   2.358   5.162
31420SOL    HW296094   6.353   2.230   5.198
31421SOL     OW96095   5.371  12.525   3.974
31421SOL    HW196096   5.323  12.523   3.891
31421SOL    HW296097   5.305  12.554   4.038
31422SOL     OW96098  12.585  10.378  14.064
31422SOL    HW196099  12.652  10.434  14.025
31422SOL    HW296100  12.519  10.370  13.995
31423SOL     OW96101   2.402   3.865  14.060
31423SOL    HW196102   2.343   3.884  14.134
31423SOL    HW296103   2.345   3.825  13.994
31424SOL     OW96104   4.469   0.403   9.280
31424SOL    HW196105   4.559   0.387   9.311
31424SOL    HW296106   4.435   0.316   9.261
31425SOL     OW96107   9.047  11.866   4.881
31425SOL    HW196108   9.052  11.774   4.858
31425SOL    HW296109   8.975  11.900   4.826
31426SOL     OW96110   0.167   9.807  12.763
31426SOL    HW196111   0.201   9.727  12.803
31426SOL    HW296112   0.088   9.828  12.813
31427SOL     OW96113  13.713  10.575   7.677
31427SOL    HW196114  13.654  10.646   7.703
31427SOL    HW296115  13.706  10.572   7.582
31428SOL     OW96116   1.118   5.452   4.937
31428SOL    HW196117   1.095   5.360   4.950
31428SOL    HW296118   1.214   5.454   4.944
31429SOL     OW96119   6.606   9.278   3.295
31429SOL    HW196120   6.631   9.253   3.384
31429SOL    HW296121   6.685   9.316   3.257
31430SOL     OW96122   1.914  13.772   8.362
31430SOL    HW196123   1.865  13.690   8.355
31430SOL    HW296124   1.883  13.811   8.443
31431SOL     OW96125   8.261  13.655  13.387
31431SOL    HW196126   8.194  13.720  13.369
31431SOL    HW296127   8.248  13.632  13.479
31432SOL     OW96128  13.307  11.032   2.637
31432SOL    HW196129  13.266  11.069   2.560
31432SOL    HW296130  13.277  11.088   2.709
31433SOL     OW96131   2.794  10.609  10.997
31433SOL    HW196132   2.765  10.529  10.953
31433SOL    HW296133   2.715  10.661  11.006
31434SOL     OW96134   3.323   7.985   7.480
31434SOL    HW196135   3.257   8.055   7.479
31434SOL    HW296136   3.392   8.018   7.537
31435SOL     OW96137  12.133   4.092   5.104
31435SOL    HW196138  12.180   4.025   5.055
31435SOL    HW296139  12.201   4.149   5.139
31436SOL     OW96140   1.419   2.837  10.595
31436SOL    HW196141   1.359   2.769  10.568
31436SOL    HW296142   1.381   2.872  10.676
31437SOL     OW96143   3.917  14.327   1.326
31437SOL    HW196144   3.871  14.383   1.264
31437SOL    HW296145   3.989  14.289   1.275
31438SOL     OW96146  12.028  14.077   0.195
31438SOL    HW196147  12.108  14.120   0.227
31438SOL    HW296148  11.979  14.148   0.153
31439SOL     OW96149  11.417   1.562   6.389
31439SOL    HW196150  11.449   1.583   6.478
31439SOL    HW296151  11.497   1.540   6.341
31440SOL     OW96152  13.875   2.861   8.383
31440SOL    HW196153  13.879   2.797   8.312
31440SOL    HW296154  13.894   2.945   8.341
31441SOL     OW96155   7.296   0.090  11.218
31441SOL    HW196156   7.358   0.083  11.145
31441SOL    HW296157   7.213   0.057  11.182
31442SOL     OW96158   5.588   8.855   1.005
31442SOL    HW196159   5.645   8.848   1.081
31442SOL    HW296160   5.592   8.768   0.964
31443SOL     OW96161   9.683   7.325  13.882
31443SOL    HW196162   9.773   7.336  13.912
31443SOL    HW296163   9.638   7.403  13.912
31444SOL     OW96164   9.591   5.020  10.191
31444SOL    HW196165   9.619   4.959  10.122
31444SOL    HW296166   9.620   5.106  10.161
31445SOL     OW96167  13.230  13.891   3.048
31445SOL    HW196168  13.224  13.895   3.144
31445SOL    HW296169  13.200  13.977   3.019
31446SOL     OW96170  11.836   9.559   3.347
31446SOL    HW196171  11.906   9.597   3.295
31446SOL    HW296172  11.766   9.540   3.284
31447SOL     OW96173   1.670   0.150   8.053
31447SOL    HW196174   1.722   0.183   8.126
31447SOL    HW296175   1.608   0.220   8.034
31448SOL     OW96176   4.473  12.895   3.458
31448SOL    HW196177   4.426  12.953   3.398
31448SOL    HW296178   4.484  12.948   3.537
31449SOL     OW96179  10.788   3.684   5.488
31449SOL    HW196180  10.767   3.604   5.439
31449SOL    HW296181  10.784   3.657   5.580
31450SOL     OW96182  13.028   7.303   3.039
31450SOL    HW196183  12.944   7.330   3.002
31450SOL    HW296184  13.083   7.382   3.034
31451SOL     OW96185   5.457   3.949   1.955
31451SOL    HW196186   5.507   3.951   1.873
31451SOL    HW296187   5.407   3.867   1.950
31452SOL     OW96188   2.937  13.352   4.447
31452SOL    HW196189   2.923  13.444   4.469
31452SOL    HW296190   3.016  13.328   4.495
31453SOL     OW96191   5.194   2.800   8.009
31453SOL    HW196192   5.156   2.879   7.971
31453SOL    HW296193   5.286   2.821   8.023
31454SOL     OW96194  13.160   0.385   4.958
31454SOL    HW196195  13.193   0.422   5.040
31454SOL    HW296196  13.066   0.404   4.959
31455SOL     OW96197   1.112   7.143  14.104
31455SOL    HW196198   1.047   7.076  14.080
31455SOL    HW296199   1.060   7.215  14.140
31456SOL     OW96200  10.835   5.888   4.343
31456SOL    HW196201  10.894   5.822   4.306
31456SOL    HW296202  10.853   5.967   4.291
31457SOL     OW96203   9.062   7.800  14.580
31457SOL    HW196204   9.110   7.790  14.498
31457SOL    HW296205   9.050   7.895  14.589
31458SOL     OW96206   1.946   9.599  11.318
31458SOL    HW196207   2.016   9.541  11.347
31458SOL    HW296208   1.865   9.552  11.338
31459SOL     OW96209  10.105  10.594  10.450
31459SOL    HW196210  10.107  10.680  10.492
31459SOL    HW296211  10.096  10.532  10.523
31460SOL     OW96212  13.261   0.748   6.269
31460SOL    HW196213  13.251   0.661   6.232
31460SOL    HW296214  13.181   0.795   6.243
31461SOL     OW96215  14.339  13.070  14.457
31461SOL    HW196216  14.427  13.063  14.496
31461SOL    HW296217  14.298  12.985  14.476
31462SOL     OW96218  10.293   6.181  12.659
31462SOL    HW196219  10.282   6.101  12.710
31462SOL    HW296220  10.283   6.154  12.568
31463SOL     OW96221  10.863   6.903   2.354
31463SOL    HW196222  10.821   6.965   2.414
31463SOL    HW296223  10.793   6.845   2.326
31464SOL     OW96224   4.265  13.968  14.067
31464SOL    HW196225   4.340  13.916  14.037
31464SOL    HW296226   4.189  13.928  14.024
31465SOL     OW96227  10.684   1.969  14.573
31465SOL    HW196228  10.683   1.995  14.665
31465SOL    HW296229  10.756   1.907  14.567
31466SOL     OW96230   5.482   7.811   0.149
31466SOL    HW196231   5.567   7.800   0.192
31466SOL    HW296232   5.501   7.806   0.055
31467SOL     OW96233   4.306   5.186   6.576
31467SOL    HW196234   4.243   5.237   6.523
31467SOL    HW296235   4.254   5.114   6.611
31468SOL     OW96236  10.003   0.362   2.151
31468SOL    HW196237   9.932   0.376   2.088
31468SOL    HW296238  10.060   0.438   2.140
31469SOL     OW96239   9.221   8.185   0.247
31469SOL    HW196240   9.165   8.109   0.231
31469SOL    HW296241   9.192   8.250   0.183
31470SOL     OW96242  13.467  11.926   5.894
31470SOL    HW196243  13.518  11.846   5.893
31470SOL    HW296244  13.410  11.919   5.817
31471SOL     OW96245   5.641  11.919   2.188
31471SOL    HW196246   5.718  11.932   2.132
31471SOL    HW296247   5.567  11.937   2.131
31472SOL     OW96248   4.362   7.032   2.813
31472SOL    HW196249   4.288   7.086   2.785
31472SOL    HW296250   4.439   7.076   2.777
31473SOL     OW96251   7.666   9.215  11.475
31473SOL    HW196252   7.745   9.205  11.422
31473SOL    HW296253   7.611   9.276  11.426
31474SOL     OW96254  11.360   7.203   4.095
31474SOL    HW196255  11.313   7.132   4.051
31474SOL    HW296256  11.300   7.278   4.089
31475SOL     OW96257   2.398   2.249   7.786
31475SOL    HW196258   2.493   2.235   7.789
31475SOL    HW296259   2.385   2.329   7.838
31476SOL     OW96260   0.625  14.119  13.224
31476SOL    HW196261   0.697  14.172  13.190
31476SOL    HW296262   0.558  14.124  13.157
31477SOL     OW96263   8.458  12.788   5.982
31477SOL    HW196264   8.381  12.846   5.985
31477SOL    HW296265   8.439  12.719   6.045
31478SOL     OW96266   3.436  10.098   3.417
31478SOL    HW196267   3.381  10.172   3.441
31478SOL    HW296268   3.482  10.075   3.498
31479SOL     OW96269  13.585   7.372   1.269
31479SOL    HW196270  13.559   7.457   1.304
31479SOL    HW296271  13.680   7.378   1.257
31480SOL     OW96272   3.103  12.791  10.109
31480SOL    HW196273   3.032  12.758  10.164
31480SOL    HW296274   3.164  12.718  10.102
31481SOL     OW96275   9.418   5.837   7.290
31481SOL    HW196276   9.488   5.772   7.283
31481SOL    HW296277   9.418   5.882   7.206
31482SOL     OW96278   3.633  14.473  12.007
31482SOL    HW196279   3.613  14.524  11.928
31482SOL    HW296280   3.654  14.386  11.975
31483SOL     OW96281   7.433   2.357   4.414
31483SOL    HW196282   7.443   2.439   4.463
31483SOL    HW296283   7.522   2.338   4.382
31484SOL     OW96284   2.043   9.564   5.843
31484SOL    HW196285   2.061   9.601   5.929
31484SOL    HW296286   1.968   9.614   5.811
31485SOL     OW96287   2.095  13.291   7.481
31485SOL    HW196288   2.138  13.305   7.396
31485SOL    HW296289   2.166  13.263   7.539
31486SOL     OW96290  13.589   4.807   4.595
31486SOL    HW196291  13.537   4.871   4.644
31486SOL    HW296292  13.528   4.771   4.531
31487SOL     OW96293   8.878  11.373  12.971
31487SOL    HW196294   8.798  11.325  12.949
31487SOL    HW296295   8.918  11.322  13.041
31488SOL     OW96296   0.566   7.251   9.743
31488SOL    HW196297   0.611   7.168   9.727
31488SOL    HW296298   0.636   7.316   9.748
31489SOL     OW96299  13.746   1.423  12.405
31489SOL    HW196300  13.738   1.328  12.400
31489SOL    HW296301  13.765   1.440  12.498
31490SOL     OW96302   7.788  11.342  13.850
31490SOL    HW196303   7.793  11.371  13.941
31490SOL    HW296304   7.697  11.313  13.839
31491SOL     OW96305   6.533  14.759  12.279
31491SOL    HW196306   6.558  14.731  12.191
31491SOL    HW296307   6.616  14.780  12.322
31492SOL     OW96308   8.563  11.846   4.273
31492SOL    HW196309   8.483  11.811   4.232
31492SOL    HW296310   8.600  11.905   4.207
31493SOL     OW96311   3.021  11.901   9.322
31493SOL    HW196312   2.995  11.852   9.245
31493SOL    HW296313   2.959  11.974   9.326
31494SOL     OW96314   0.878   6.144  10.637
31494SOL    HW196315   0.916   6.232  10.634
31494SOL    HW296316   0.852   6.126  10.547
31495SOL     OW96317  11.320   0.398  12.236
31495SOL    HW196318  11.247   0.342  12.262
31495SOL    HW296319  11.301   0.483  12.276
31496SOL     OW96320   7.829  13.322   2.272
31496SOL    HW196321   7.784  13.404   2.292
31496SOL    HW296322   7.776  13.254   2.314
31497SOL     OW96323   2.264   4.942  12.438
31497SOL    HW196324   2.242   4.984  12.355
31497SOL    HW296325   2.334   4.880  12.416
31498SOL     OW96326   8.406   0.886  11.683
31498SOL    HW196327   8.312   0.904  11.671
31498SOL    HW296328   8.419   0.894  11.778
31499SOL     OW96329   6.937  10.700  14.008
31499SOL    HW196330   6.847  10.709  13.975
31499SOL    HW296331   6.992  10.729  13.935
31500SOL     OW96332  10.184   8.953   0.725
31500SOL    HW196333  10.241   9.021   0.761
31500SOL    HW296334  10.230   8.922   0.647
31501SOL     OW96335   8.956  13.506   7.738
31501SOL    HW196336   8.862  13.496   7.726
31501SOL    HW296337   8.987  13.417   7.759
31502SOL     OW96338   0.334   9.886   8.301
31502SOL    HW196339   0.316   9.957   8.238
31502SOL    HW296340   0.342   9.808   8.247
31503SOL     OW96341   2.728   4.238  12.980
31503SOL    HW196342   2.725   4.331  12.955
31503SOL    HW296343   2.714   4.239  13.074
31504SOL     OW96344   1.318   8.686  12.009
31504SOL    HW196345   1.311   8.639  11.926
31504SOL    HW296346   1.228   8.703  12.034
31505SOL     OW96347   9.255  11.842  11.204
31505SOL    HW196348   9.212  11.866  11.122
31505SOL    HW296349   9.192  11.785  11.249
31506SOL     OW96350   0.537   0.487   8.134
31506SOL    HW196351   0.624   0.517   8.161
31506SOL    HW296352   0.489   0.477   8.217
31507SOL     OW96353  14.053   2.507  13.762
31507SOL    HW196354  14.116   2.435  13.764
31507SOL    HW296355  14.070   2.551  13.679
31508SOL     OW96356   7.984   7.590  10.909
31508SOL    HW196357   8.042   7.573  10.834
31508SOL    HW296358   7.965   7.684  10.903
31509SOL     OW96359   5.371   3.019  12.670
31509SOL    HW196360   5.400   2.938  12.628
31509SOL    HW296361   5.357   2.995  12.762
31510SOL     OW96362   8.607   9.236  14.649
31510SOL    HW196363   8.662   9.299  14.695
31510SOL    HW296364   8.615   9.261  14.557
31511SOL     OW96365   5.590  12.168   3.164
31511SOL    HW196366   5.570  12.076   3.183
31511SOL    HW296367   5.600  12.170   3.068
31512SOL     OW96368   5.309  13.387   6.667
31512SOL    HW196369   5.395  13.347   6.679
31512SOL    HW296370   5.248  13.313   6.662
31513SOL     OW96371   0.302  13.178   3.055
31513SOL    HW196372   0.240  13.251   3.042
31513SOL    HW296373   0.263  13.126   3.125
31514SOL     OW96374   7.038   0.025   2.704
31514SOL    HW196375   6.960   0.034   2.650
31514SOL    HW296376   7.028   0.093   2.771
31515SOL     OW96377   8.361  12.213   4.660
31515SOL    HW196378   8.395  12.169   4.737
31515SOL    HW296379   8.383  12.155   4.587
31516SOL     OW96380   5.958   5.807   2.007
31516SOL    HW196381   5.969   5.898   1.979
31516SOL    HW296382   5.884   5.809   2.067
31517SOL     OW96383  11.799   8.541   9.756
31517SOL    HW196384  11.728   8.479   9.773
31517SOL    HW296385  11.785   8.568   9.665
31518SOL     OW96386   3.195   5.379   3.589
31518SOL    HW196387   3.213   5.375   3.683
31518SOL    HW296388   3.263   5.437   3.555
31519SOL     OW96389   4.601   8.075   9.825
31519SOL    HW196390   4.594   8.124   9.907
31519SOL    HW296391   4.510   8.054   9.802
31520SOL     OW96392   2.377   3.060  10.220
31520SOL    HW196393   2.383   3.110  10.139
31520SOL    HW296394   2.466   3.026  10.233
31521SOL     OW96395   5.934  12.880  11.095
31521SOL    HW196396   5.980  12.851  11.016
31521SOL    HW296397   5.848  12.908  11.063
31522SOL     OW96398  14.858  10.558   8.836
31522SOL    HW196399  14.832  10.649   8.851
31522SOL    HW296400  14.807  10.531   8.760
31523SOL     OW96401  10.973  12.657  12.062
31523SOL    HW196402  10.970  12.749  12.039
31523SOL    HW296403  10.974  12.655  12.158
31524SOL     OW96404  14.185  12.945  13.033
31524SOL    HW196405  14.197  13.031  12.994
31524SOL    HW296406  14.131  12.960  13.110
31525SOL     OW96407  13.164   5.727   6.165
31525SOL    HW196408  13.142   5.664   6.234
31525SOL    HW296409  13.207   5.799   6.211
31526SOL     OW96410   1.215  14.265   7.225
31526SOL    HW196411   1.134  14.219   7.204
31526SOL    HW296412   1.243  14.303   7.142
31527SOL     OW96413   3.448   9.816   9.059
31527SOL    HW196414   3.473   9.797   8.968
31527SOL    HW296415   3.502   9.892   9.082
31528SOL     OW96416   3.507  12.876  13.144
31528SOL    HW196417   3.420  12.854  13.112
31528SOL    HW296418   3.541  12.794  13.180
31529SOL     OW96419   4.715   8.418   1.168
31529SOL    HW196420   4.722   8.503   1.211
31529SOL    HW296421   4.628   8.386   1.191
31530SOL     OW96422  11.465  11.868   5.238
31530SOL    HW196423  11.465  11.866   5.142
31530SOL    HW296424  11.387  11.918   5.261
31531SOL     OW96425  12.815   4.243   4.125
31531SOL    HW196426  12.878   4.202   4.185
31531SOL    HW296427  12.740   4.265   4.180
31532SOL     OW96428   4.501   0.820   8.053
31532SOL    HW196429   4.551   0.798   8.132
31532SOL    HW296430   4.529   0.754   7.989
31533SOL     OW96431  13.769   7.762  10.112
31533SOL    HW196432  13.774   7.779  10.206
31533SOL    HW296433  13.852   7.796  10.078
31534SOL     OW96434   0.701   8.899  14.610
31534SOL    HW196435   0.663   8.814  14.589
31534SOL    HW296436   0.763   8.880  14.681
31535SOL     OW96437  11.835   5.673   9.316
31535SOL    HW196438  11.856   5.629   9.398
31535SOL    HW296439  11.832   5.602   9.251
31536SOL     OW96440   3.712   6.812  13.136
31536SOL    HW196441   3.635   6.869  13.136
31536SOL    HW296442   3.676   6.724  13.151
31537SOL     OW96443   6.661  13.071  13.129
31537SOL    HW196444   6.739  13.036  13.085
31537SOL    HW296445   6.680  13.164  13.141
31538SOL     OW96446   0.276  11.077  10.031
31538SOL    HW196447   0.353  11.111   9.987
31538SOL    HW296448   0.298  10.986  10.053
31539SOL     OW96449   4.423   0.469   3.087
31539SOL    HW196450   4.442   0.465   2.993
31539SOL    HW296451   4.491   0.525   3.123
31540SOL     OW96452   3.945   6.531  14.310
31540SOL    HW196453   4.010   6.470  14.347
31540SOL    HW296454   3.995   6.610  14.291
31541SOL     OW96455   0.024  11.439  11.837
31541SOL    HW196456  14.867  11.499  11.902
31541SOL    HW296457   0.013  11.353  11.875
31542SOL     OW96458   9.725   3.497   3.258
31542SOL    HW196459   9.786   3.438   3.213
31542SOL    HW296460   9.776   3.531   3.332
31543SOL     OW96461   2.019   4.225  11.464
31543SOL    HW196462   1.942   4.206  11.410
31543SOL    HW296463   2.084   4.257  11.402
31544SOL     OW96464   6.834  14.852   0.790
31544SOL    HW196465   6.778   0.018   0.853
31544SOL    HW296466   6.923  14.869   0.821
31545SOL     OW96467  13.371   3.139   7.146
31545SOL    HW196468  13.386   3.220   7.097
31545SOL    HW296469  13.417   3.072   7.095
31546SOL     OW96470  13.061   7.758   8.298
31546SOL    HW196471  12.976   7.719   8.279
31546SOL    HW296472  13.043   7.823   8.367
31547SOL     OW96473  12.413  13.411   2.412
31547SOL    HW196474  12.467  13.475   2.459
31547SOL    HW296475  12.464  13.330   2.416
31548SOL     OW96476  10.058  12.570   4.938
31548SOL    HW196477  10.109  12.528   5.007
31548SOL    HW296478  10.104  12.549   4.857
31549SOL     OW96479   5.071   5.716  13.832
31549SOL    HW196480   5.134   5.645  13.818
31549SOL    HW296481   5.103   5.762  13.910
31550SOL     OW96482   5.768   3.480   8.957
31550SOL    HW196483   5.705   3.471   8.884
31550SOL    HW296484   5.718   3.526   9.025
31551SOL     OW96485   2.336  13.066   3.796
31551SOL    HW196486   2.338  13.058   3.700
31551SOL    HW296487   2.308  13.156   3.812
31552SOL     OW96488   8.538   2.471  13.479
31552SOL    HW196489   8.493   2.551  13.451
31552SOL    HW296490   8.489   2.442  13.556
31553SOL     OW96491   7.607   6.145   4.437
31553SOL    HW196492   7.541   6.164   4.503
31553SOL    HW296493   7.674   6.095   4.484
31554SOL     OW96494   4.880   2.347   6.901
31554SOL    HW196495   4.961   2.392   6.921
31554SOL    HW296496   4.868   2.357   6.807
31555SOL     OW96497  12.557   2.748  10.944
31555SOL    HW196498  12.513   2.757  11.029
31555SOL    HW296499  12.510   2.809  10.887
31556SOL     OW96500   8.720   6.758   7.135
31556SOL    HW196501   8.727   6.777   7.229
31556SOL    HW296502   8.734   6.663   7.129
31557SOL     OW96503   6.145   9.887   6.114
31557SOL    HW196504   6.178   9.810   6.160
31557SOL    HW296505   6.136   9.954   6.181
31558SOL     OW96506   7.022   1.728  10.424
31558SOL    HW196507   6.951   1.685  10.472
31558SOL    HW296508   7.009   1.821  10.439
31559SOL     OW96509  10.434   5.372   6.794
31559SOL    HW196510  10.376   5.408   6.727
31559SOL    HW296511  10.481   5.301   6.748
31560SOL     OW96512  12.746   6.341  14.411
31560SOL    HW196513  12.803   6.417  14.425
31560SOL    HW296514  12.806   6.266  14.408
31561SOL     OW96515   0.085  11.524   0.102
31561SOL    HW196516   0.015  11.589   0.092
31561SOL    HW296517   0.058  11.451   0.046
31562SOL     OW96518  10.273  13.331  12.845
31562SOL    HW196519  10.259  13.423  12.820
31562SOL    HW296520  10.189  13.302  12.879
31563SOL     OW96521   7.672   0.336  13.690
31563SOL    HW196522   7.726   0.272  13.737
31563SOL    HW296523   7.691   0.420  13.733
31564SOL     OW96524  12.970   2.315   4.414
31564SOL    HW196525  13.021   2.255   4.469
31564SOL    HW296526  13.028   2.389   4.399
31565SOL     OW96527   9.575  12.254   9.640
31565SOL    HW196528   9.582  12.230   9.732
31565SOL    HW296529   9.663  12.279   9.615
31566SOL     OW96530  10.892   6.842   9.298
31566SOL    HW196531  10.926   6.857   9.386
31566SOL    HW296532  10.865   6.928   9.268
31567SOL     OW96533   2.535  10.754   4.106
31567SOL    HW196534   2.572  10.751   4.017
31567SOL    HW296535   2.449  10.795   4.095
31568SOL     OW96536   7.661  12.374   8.674
31568SOL    HW196537   7.595  12.384   8.606
31568SOL    HW296538   7.736  12.336   8.629
31569SOL     OW96539  14.080  12.601  11.706
31569SOL    HW196540  14.066  12.513  11.740
31569SOL    HW296541  14.034  12.602  11.622
31570SOL     OW96542  14.489   3.973  11.423
31570SOL    HW196543  14.584   3.989  11.425
31570SOL    HW296544  14.468   3.970  11.329
31571SOL     OW96545  11.811   5.034   7.733
31571SOL    HW196546  11.783   4.942   7.735
31571SOL    HW296547  11.784   5.065   7.647
31572SOL     OW96548  12.643   1.711   2.748
31572SOL    HW196549  12.557   1.741   2.779
31572SOL    HW296550  12.630   1.692   2.655
31573SOL     OW96551  14.405   7.674   1.270
31573SOL    HW196552  14.478   7.647   1.327
31573SOL    HW296553  14.376   7.758   1.306
31574SOL     OW96554   0.356   8.323  13.073
31574SOL    HW196555   0.425   8.348  13.135
31574SOL    HW296556   0.346   8.228  13.085
31575SOL     OW96557  13.201   2.709   7.883
31575SOL    HW196558  13.115   2.724   7.844
31575SOL    HW296559  13.259   2.699   7.808
31576SOL     OW96560   6.061   0.520   3.937
31576SOL    HW196561   6.009   0.529   4.016
31576SOL    HW296562   5.999   0.494   3.869
31577SOL     OW96563  13.666  10.845   5.156
31577SOL    HW196564  13.650  10.776   5.220
31577SOL    HW296565  13.580  10.863   5.119
31578SOL     OW96566  14.412   0.047  12.737
31578SOL    HW196567  14.387  14.879  12.658
31578SOL    HW296568  14.499   0.015  12.759
31579SOL     OW96569   7.666  11.095  14.388
31579SOL    HW196570   7.598  11.134  14.334
31579SOL    HW296571   7.720  11.045  14.326
31580SOL     OW96572   8.795   6.758  10.614
31580SOL    HW196573   8.700   6.758  10.626
31580SOL    HW296574   8.812   6.837  10.564
31581SOL     OW96575   4.841   4.846   9.970
31581SOL    HW196576   4.935   4.863   9.963
31581SOL    HW296577   4.808   4.918  10.025
31582SOL     OW96578   3.807   6.585   1.328
31582SOL    HW196579   3.728   6.590   1.382
31582SOL    HW296580   3.774   6.571   1.239
31583SOL     OW96581  14.104  14.267  10.577
31583SOL    HW196582  14.171  14.257  10.644
31583SOL    HW296583  14.109  14.187  10.525
31584SOL     OW96584   7.058   9.639   6.860
31584SOL    HW196585   7.048   9.666   6.951
31584SOL    HW296586   6.991   9.572   6.847
31585SOL     OW96587   0.096   7.276   0.303
31585SOL    HW196588   0.107   7.188   0.341
31585SOL    HW296589   0.181   7.296   0.265
31586SOL     OW96590   1.684   3.645   2.408
31586SOL    HW196591   1.725   3.709   2.466
31586SOL    HW296592   1.708   3.560   2.446
31587SOL     OW96593   8.409   8.021   7.087
31587SOL    HW196594   8.363   8.030   7.170
31587SOL    HW296595   8.470   8.094   7.085
31588SOL     OW96596  10.203  14.795   3.900
31588SOL    HW196597  10.293  14.793   3.868
31588SOL    HW296598  10.152  14.752   3.830
31589SOL     OW96599  14.350   5.486  12.185
31589SOL    HW196600  14.433   5.466  12.142
31589SOL    HW296601  14.285   5.488  12.114
31590SOL     OW96602  13.248   3.290   6.775
31590SOL    HW196603  13.247   3.223   6.707
31590SOL    HW296604  13.329   3.275   6.824
31591SOL     OW96605   5.387   4.434  11.493
31591SOL    HW196606   5.443   4.505  11.460
31591SOL    HW296607   5.423   4.414  11.579
31592SOL     OW96608  12.370  11.338   5.461
31592SOL    HW196609  12.441  11.395   5.491
31592SOL    HW296610  12.402  11.249   5.477
31593SOL     OW96611   1.050  13.529   4.283
31593SOL    HW196612   1.022  13.448   4.326
31593SOL    HW296613   0.983  13.593   4.307
31594SOL     OW96614  14.695  11.190   0.803
31594SOL    HW196615  14.617  11.192   0.857
31594SOL    HW296616  14.760  11.144   0.856
31595SOL     OW96617   3.275   1.126   3.010
31595SOL    HW196618   3.185   1.109   2.983
31595SOL    HW296619   3.267   1.167   3.096
31596SOL     OW96620  13.689   1.046   7.056
31596SOL    HW196621  13.774   1.038   7.100
31596SOL    HW296622  13.689   0.976   6.991
31597SOL     OW96623   1.886   7.604   2.966
31597SOL    HW196624   1.871   7.509   2.965
31597SOL    HW296625   1.818   7.639   3.023
31598SOL     OW96626   8.650  14.785   5.751
31598SOL    HW196627   8.641  14.696   5.717
31598SOL    HW296628   8.572  14.830   5.720
31599SOL     OW96629   0.563  11.180  13.147
31599SOL    HW196630   0.624  11.252  13.132
31599SOL    HW296631   0.518  11.202  13.228
31600SOL     OW96632  12.500   8.146  10.094
31600SOL    HW196633  12.446   8.080  10.052
31600SOL    HW296634  12.440   8.195  10.150
31601SOL     OW96635   2.410   4.725   6.981
31601SOL    HW196636   2.397   4.649   7.037
31601SOL    HW296637   2.493   4.708   6.936
31602SOL     OW96638  11.204   4.085   6.557
31602SOL    HW196639  11.201   4.172   6.598
31602SOL    HW296640  11.255   4.098   6.477
31603SOL     OW96641   3.793   7.792  10.340
31603SOL    HW196642   3.788   7.820  10.431
31603SOL    HW296643   3.839   7.863  10.295
31604SOL     OW96644   5.414   9.297   7.239
31604SOL    HW196645   5.375   9.319   7.154
31604SOL    HW296646   5.466   9.374   7.262
31605SOL     OW96647   1.932  13.399   3.436
31605SOL    HW196648   1.893  13.436   3.357
31605SOL    HW296649   2.014  13.360   3.406
31606SOL     OW96650   2.388  12.080   9.579
31606SOL    HW196651   2.296  12.081   9.605
31606SOL    HW296652   2.404  11.989   9.551
31607SOL     OW96653   5.435   6.422  12.825
31607SOL    HW196654   5.424   6.505  12.870
31607SOL    HW296655   5.501   6.375  12.877
31608SOL     OW96656  10.284  11.063   0.484
31608SOL    HW196657  10.273  11.045   0.390
31608SOL    HW296658  10.256  10.982   0.527
31609SOL     OW96659   9.370   8.319  11.977
31609SOL    HW196660   9.307   8.339  11.908
31609SOL    HW296661   9.320   8.325  12.058
31610SOL     OW96662   0.993  12.996   3.212
31610SOL    HW196663   0.927  12.931   3.188
31610SOL    HW296664   1.067  12.979   3.153
31611SOL     OW96665  11.901  14.201   9.153
31611SOL    HW196666  11.885  14.295   9.149
31611SOL    HW296667  11.994  14.192   9.130
31612SOL     OW96668   3.643   6.304   7.380
31612SOL    HW196669   3.672   6.395   7.374
31612SOL    HW296670   3.617   6.293   7.472
31613SOL     OW96671   0.696   8.622   0.660
31613SOL    HW196672   0.787   8.602   0.683
31613SOL    HW296673   0.644   8.555   0.705
31614SOL     OW96674  13.111   8.291   1.510
31614SOL    HW196675  13.149   8.365   1.463
31614SOL    HW296676  13.182   8.228   1.519
31615SOL     OW96677   5.340   7.781   7.727
31615SOL    HW196678   5.399   7.843   7.684
31615SOL    HW296679   5.325   7.818   7.814
31616SOL     OW96680  13.073   0.401  12.468
31616SOL    HW196681  13.101   0.460  12.538
31616SOL    HW296682  13.075   0.455  12.389
31617SOL     OW96683   5.617   7.062   7.292
31617SOL    HW196684   5.699   7.046   7.244
31617SOL    HW296685   5.569   7.124   7.237
31618SOL     OW96686  10.696   0.472   0.493
31618SOL    HW196687  10.775   0.454   0.443
31618SOL    HW296688  10.632   0.500   0.427
31619SOL     OW96689   4.665  14.089   0.930
31619SOL    HW196690   4.706  14.174   0.913
31619SOL    HW296691   4.577  14.110   0.959
31620SOL     OW96692  11.107  11.094  13.781
31620SOL    HW196693  11.158  11.107  13.701
31620SOL    HW296694  11.018  11.079  13.751
31621SOL     OW96695   3.456  12.636   2.476
31621SOL    HW196696   3.512  12.711   2.496
31621SOL    HW296697   3.412  12.616   2.558
31622SOL     OW96698   3.641   5.966  14.587
31622SOL    HW196699   3.732   5.969  14.615
31622SOL    HW296700   3.593   6.016  14.654
31623SOL     OW96701   7.584   4.686  13.354
31623SOL    HW196702   7.668   4.728  13.370
31623SOL    HW296703   7.589   4.654  13.264
31624SOL     OW96704   4.293  11.095   7.618
31624SOL    HW196705   4.241  11.058   7.547
31624SOL    HW296706   4.293  11.027   7.685
31625SOL     OW96707   4.147  14.548  13.513
31625SOL    HW196708   4.144  14.615  13.444
31625SOL    HW296709   4.214  14.579  13.574
31626SOL     OW96710  13.384  12.600   0.530
31626SOL    HW196711  13.349  12.514   0.509
31626SOL    HW296712  13.405  12.640   0.446
31627SOL     OW96713  11.922   8.240   9.604
31627SOL    HW196714  11.981   8.296   9.655
31627SOL    HW296715  11.835   8.262   9.636
31628SOL     OW96716   7.752   9.249   8.634
31628SOL    HW196717   7.728   9.314   8.568
31628SOL    HW296718   7.755   9.166   8.586
31629SOL     OW96719   5.689   3.920  14.099
31629SOL    HW196720   5.705   4.014  14.109
31629SOL    HW296721   5.668   3.909  14.007
31630SOL     OW96722   2.693   7.666  11.217
31630SOL    HW196723   2.766   7.728  11.213
31630SOL    HW296724   2.668   7.665  11.309
31631SOL     OW96725   3.835   9.315   3.500
31631SOL    HW196726   3.776   9.294   3.428
31631SOL    HW296727   3.779   9.313   3.578
31632SOL     OW96728   8.108  10.703  10.425
31632SOL    HW196729   8.175  10.750  10.474
31632SOL    HW296730   8.089  10.761  10.351
31633SOL     OW96731   4.008  14.496   4.802
31633SOL    HW196732   4.005  14.515   4.708
31633SOL    HW296733   3.954  14.564   4.842
31634SOL     OW96734   6.996   8.452   3.223
31634SOL    HW196735   7.085   8.486   3.225
31634SOL    HW296736   6.987   8.402   3.304
31635SOL     OW96737  11.727   7.869   7.909
31635SOL    HW196738  11.704   7.846   7.819
31635SOL    HW296739  11.762   7.789   7.946
31636SOL     OW96740  13.394  13.068   5.559
31636SOL    HW196741  13.403  13.163   5.552
31636SOL    HW296742  13.409  13.035   5.470
31637SOL     OW96743  10.226  11.749  13.606
31637SOL    HW196744  10.287  11.822  13.598
31637SOL    HW296745  10.140  11.787  13.588
31638SOL     OW96746  10.137  13.347   7.898
31638SOL    HW196747  10.071  13.278   7.899
31638SOL    HW296748  10.145  13.372   7.806
31639SOL     OW96749   6.767  10.860   2.677
31639SOL    HW196750   6.757  10.937   2.621
31639SOL    HW296751   6.753  10.892   2.766
31640SOL     OW96752  10.828   3.394  12.134
31640SOL    HW196753  10.873   3.465  12.088
31640SOL    HW296754  10.769   3.437  12.194
31641SOL     OW96755   0.651   4.262  12.125
31641SOL    HW196756   0.655   4.233  12.216
31641SOL    HW296757   0.587   4.204  12.084
31642SOL     OW96758  12.114  13.938  11.924
31642SOL    HW196759  12.179  13.869  11.910
31642SOL    HW296760  12.108  13.983  11.839
31643SOL     OW96761  14.041   6.548   2.811
31643SOL    HW196762  14.075   6.638   2.821
31643SOL    HW296763  14.091   6.512   2.737
31644SOL     OW96764   8.762  14.364  12.075
31644SOL    HW196765   8.851  14.327  12.078
31644SOL    HW296766   8.705  14.289  12.090
31645SOL     OW96767   7.555  14.239   7.118
31645SOL    HW196768   7.601  14.266   7.039
31645SOL    HW296769   7.558  14.315   7.175
31646SOL     OW96770  12.988  13.901   2.773
31646SOL    HW196771  12.957  13.829   2.718
31646SOL    HW296772  12.974  13.871   2.863
31647SOL     OW96773   2.192   0.513   6.988
31647SOL    HW196774   2.273   0.527   7.038
31647SOL    HW296775   2.216   0.450   6.920
31648SOL     OW96776   3.786   7.607  14.213
31648SOL    HW196777   3.751   7.664  14.145
31648SOL    HW296778   3.763   7.518  14.184
31649SOL     OW96779   2.226   7.962   6.300
31649SOL    HW196780   2.182   7.881   6.327
31649SOL    HW296781   2.158   8.029   6.305
31650SOL     OW96782   5.776   7.146   2.338
31650SOL    HW196783   5.870   7.146   2.318
31650SOL    HW296784   5.764   7.225   2.391
31651SOL     OW96785  11.098   4.987  14.065
31651SOL    HW196786  11.156   5.049  14.021
31651SOL    HW296787  11.149   4.906  14.070
31652SOL     OW96788   5.285   8.598   6.194
31652SOL    HW196789   5.378   8.574   6.201
31652SOL    HW296790   5.249   8.537   6.129
31653SOL     OW96791   1.682   0.699  13.218
31653SOL    HW196792   1.676   0.690  13.123
31653SOL    HW296793   1.776   0.703  13.235
31654SOL     OW96794  14.643   5.650   2.554
31654SOL    HW196795  14.553   5.673   2.577
31654SOL    HW296796  14.667   5.712   2.484
31655SOL     OW96797   7.276   2.867   4.778
31655SOL    HW196798   7.331   2.940   4.805
31655SOL    HW296799   7.316   2.790   4.818
31656SOL     OW96800   3.144  12.566   1.270
31656SOL    HW196801   3.138  12.558   1.175
31656SOL    HW296802   3.126  12.479   1.304
31657SOL     OW96803   3.976  13.110   1.919
31657SOL    HW196804   3.989  13.018   1.940
31657SOL    HW296805   4.061  13.141   1.890
31658SOL     OW96806  11.433   6.945   7.124
31658SOL    HW196807  11.468   6.887   7.056
31658SOL    HW296808  11.376   7.006   7.077
31659SOL     OW96809   1.146   1.909  14.271
31659SOL    HW196810   1.067   1.941  14.315
31659SOL    HW296811   1.118   1.893  14.180
31660SOL     OW96812   4.891   3.050  10.298
31660SOL    HW196813   4.891   3.130  10.350
31660SOL    HW296814   4.803   3.046  10.259
31661SOL     OW96815  13.581   1.139   2.073
31661SOL    HW196816  13.625   1.218   2.102
31661SOL    HW296817  13.559   1.156   1.981
31662SOL     OW96818   1.940   5.297   9.279
31662SOL    HW196819   1.936   5.376   9.225
31662SOL    HW296820   1.947   5.226   9.215
31663SOL     OW96821  11.628  11.358  11.405
31663SOL    HW196822  11.637  11.288  11.340
31663SOL    HW296823  11.714  11.362  11.448
31664SOL     OW96824  10.341   8.552  13.590
31664SOL    HW196825  10.351   8.587  13.679
31664SOL    HW296826  10.331   8.629  13.535
31665SOL     OW96827  10.955  13.692   6.511
31665SOL    HW196828  10.926  13.762   6.569
31665SOL    HW296829  11.018  13.641   6.563
31666SOL     OW96830   9.119   9.134  13.628
31666SOL    HW196831   9.210   9.120  13.601
31666SOL    HW296832   9.092   9.051  13.666
31667SOL     OW96833   8.196   7.235   0.048
31667SOL    HW196834   8.140   7.252   0.124
31667SOL    HW296835   8.265   7.177   0.082
31668SOL     OW96836  12.047  14.301   9.536
31668SOL    HW196837  12.091  14.249   9.604
31668SOL    HW296838  11.961  14.259   9.527
31669SOL     OW96839   3.222   2.876   9.418
31669SOL    HW196840   3.199   2.951   9.363
31669SOL    HW296841   3.201   2.905   9.507
31670SOL     OW96842   9.562   2.044  11.529
31670SOL    HW196843   9.477   2.027  11.568
31670SOL    HW296844   9.608   1.960  11.533
31671SOL     OW96845  12.243   3.217   7.937
31671SOL    HW196846  12.218   3.226   7.845
31671SOL    HW296847  12.247   3.122   7.951
31672SOL     OW96848  14.392   6.779   6.483
31672SOL    HW196849  14.333   6.768   6.558
31672SOL    HW296850  14.360   6.717   6.418
31673SOL     OW96851   7.227   8.616   0.997
31673SOL    HW196852   7.281   8.653   0.927
31673SOL    HW296853   7.142   8.660   0.988
31674SOL     OW96854  14.814   7.689  14.304
31674SOL    HW196855   0.026   7.691  14.332
31674SOL    HW296856  14.781   7.777  14.322
31675SOL     OW96857  10.772   0.113   5.457
31675SOL    HW196858  10.844   0.066   5.499
31675SOL    HW296859  10.702   0.049   5.448
31676SOL     OW96860  13.229   3.557  11.642
31676SOL    HW196861  13.272   3.638  11.616
31676SOL    HW296862  13.294   3.510  11.694
31677SOL     OW96863  10.113   1.713   7.564
31677SOL    HW196864  10.049   1.702   7.493
31677SOL    HW296865  10.197   1.713   7.520
31678SOL     OW96866  12.426  14.473   7.123
31678SOL    HW196867  12.355  14.411   7.108
31678SOL    HW296868  12.468  14.482   7.038
31679SOL     OW96869   1.480   1.089   2.431
31679SOL    HW196870   1.523   1.157   2.379
31679SOL    HW296871   1.467   1.016   2.371
31680SOL     OW96872   8.103  13.534   1.766
31680SOL    HW196873   8.177  13.590   1.742
31680SOL    HW296874   8.131  13.492   1.848
31681SOL     OW96875  10.893  10.239   3.630
31681SOL    HW196876  10.878  10.145   3.629
31681SOL    HW296877  10.973  10.250   3.683
31682SOL     OW96878  12.545   1.708  14.703
31682SOL    HW196879  12.634   1.740  14.687
31682SOL    HW296880  12.545   1.620  14.666
31683SOL     OW96881  11.935   0.436  13.980
31683SOL    HW196882  11.965   0.456  14.069
31683SOL    HW296883  12.014   0.409  13.934
31684SOL     OW96884  12.549   9.322  10.518
31684SOL    HW196885  12.507   9.356  10.439
31684SOL    HW296886  12.594   9.243  10.489
31685SOL     OW96887   4.949   3.710   8.545
31685SOL    HW196888   4.921   3.619   8.555
31685SOL    HW296889   4.871   3.756   8.513
31686SOL     OW96890   5.882   2.931   1.873
31686SOL    HW196891   5.946   2.886   1.818
31686SOL    HW296892   5.827   2.861   1.908
31687SOL     OW96893  11.195   8.847   9.333
31687SOL    HW196894  11.220   8.863   9.242
31687SOL    HW296895  11.112   8.893   9.342
31688SOL     OW96896   6.899   0.007  10.859
31688SOL    HW196897   6.857   0.078  10.908
31688SOL    HW296898   6.918   0.045  10.773
31689SOL     OW96899   7.107   1.002   9.090
31689SOL    HW196900   7.103   0.906   9.089
31689SOL    HW296901   7.047   1.028   9.160
31690SOL     OW96902   2.514   6.366   2.245
31690SOL    HW196903   2.444   6.326   2.194
31690SOL    HW296904   2.481   6.368   2.335
31691SOL     OW96905   2.632  14.259   1.282
31691SOL    HW196906   2.717  14.278   1.322
31691SOL    HW296907   2.635  14.166   1.261
31692SOL     OW96908   0.899  14.191   1.270
31692SOL    HW196909   0.979  14.237   1.293
31692SOL    HW296910   0.870  14.150   1.352
31693SOL     OW96911   0.718   2.664  12.153
31693SOL    HW196912   0.686   2.751  12.131
31693SOL    HW296913   0.647   2.604  12.129
31694SOL     OW96914  10.162   3.797  14.875
31694SOL    HW196915  10.196   3.744   0.068
31694SOL    HW296916  10.165   3.738  14.799
31695SOL     OW96917  13.797   5.468   4.041
31695SOL    HW196918  13.779   5.480   4.134
31695SOL    HW296919  13.768   5.378   4.023
31696SOL     OW96920   0.056   0.503   5.117
31696SOL    HW196921   0.110   0.426   5.097
31696SOL    HW296922   0.117   0.577   5.111
31697SOL     OW96923  14.837   4.753   5.923
31697SOL    HW196924  14.760   4.809   5.927
31697SOL    HW296925   0.021   4.793   5.983
31698SOL     OW96926   4.523   0.200   8.140
31698SOL    HW196927   4.466   0.265   8.097
31698SOL    HW296928   4.536   0.133   8.073
31699SOL     OW96929   1.087   9.533   7.607
31699SOL    HW196930   1.100   9.546   7.701
31699SOL    HW296931   1.052   9.444   7.600
31700SOL     OW96932   2.437  13.707   5.845
31700SOL    HW196933   2.417  13.710   5.939
31700SOL    HW296934   2.525  13.670   5.841
31701SOL     OW96935   4.820   8.836   0.872
31701SOL    HW196936   4.876   8.859   0.798
31701SOL    HW296937   4.873   8.776   0.924
31702SOL     OW96938   5.591   3.883   0.095
31702SOL    HW196939   5.641   3.875   0.013
31702SOL    HW296940   5.609   3.972   0.126
31703SOL     OW96941   2.378   1.560  14.819
31703SOL    HW196942   2.328   1.620  14.875
31703SOL    HW296943   2.408   1.491  14.879
31704SOL     OW96944   0.671   5.515  13.804
31704SOL    HW196945   0.691   5.494  13.895
31704SOL    HW296946   0.739   5.576  13.778
31705SOL     OW96947   8.636   3.337   7.756
31705SOL    HW196948   8.724   3.368   7.735
31705SOL    HW296949   8.581   3.368   7.685
31706SOL     OW96950   7.342   7.176   7.338
31706SOL    HW196951   7.436   7.158   7.341
31706SOL    HW296952   7.328   7.245   7.403
31707SOL     OW96953  14.279   0.618   6.272
31707SOL    HW196954  14.343   0.642   6.340
31707SOL    HW296955  14.216   0.562   6.317
31708SOL     OW96956   7.082   0.277   5.526
31708SOL    HW196957   7.114   0.218   5.458
31708SOL    HW296958   7.014   0.329   5.483
31709SOL     OW96959  14.543  12.632   5.956
31709SOL    HW196960  14.484  12.573   6.002
31709SOL    HW296961  14.562  12.701   6.019
31710SOL     OW96962  10.398   8.307   3.138
31710SOL    HW196963  10.490   8.330   3.148
31710SOL    HW296964  10.353   8.356   3.207
31711SOL     OW96965   5.071  11.647   4.454
31711SOL    HW196966   4.986  11.687   4.471
31711SOL    HW296967   5.053  11.554   4.446
31712SOL     OW96968   2.298   3.162   0.376
31712SOL    HW196969   2.286   3.191   0.285
31712SOL    HW296970   2.209   3.146   0.408
31713SOL     OW96971  12.595  10.084   9.187
31713SOL    HW196972  12.656  10.096   9.260
31713SOL    HW296973  12.526  10.029   9.223
31714SOL     OW96974   5.303  14.249   0.919
31714SOL    HW196975   5.320  14.236   0.826
31714SOL    HW296976   5.362  14.320   0.944
31715SOL     OW96977  13.657   6.567   2.895
31715SOL    HW196978  13.585   6.560   2.958
31715SOL    HW296979  13.724   6.619   2.940
31716SOL     OW96980  12.445   0.723  13.727
31716SOL    HW196981  12.527   0.726  13.678
31716SOL    HW296982  12.420   0.631  13.725
31717SOL     OW96983   6.554   8.142  14.539
31717SOL    HW196984   6.558   8.195  14.618
31717SOL    HW296985   6.640   8.101  14.532
31718SOL     OW96986  14.210   5.014  12.723
31718SOL    HW196987  14.223   4.930  12.680
31718SOL    HW296988  14.136   5.054  12.676
31719SOL     OW96989   0.303   0.782   2.430
31719SOL    HW196990   0.348   0.723   2.370
31719SOL    HW296991   0.211   0.776   2.406
31720SOL     OW96992   5.669  11.326   2.761
31720SOL    HW196993   5.731  11.281   2.705
31720SOL    HW296994   5.718  11.399   2.798
31721SOL     OW96995  10.097  13.467  10.905
31721SOL    HW196996  10.165  13.401  10.911
31721SOL    HW296997  10.116  13.514  10.824
31722SOL     OW96998   4.739  11.953   2.276
31722SOL    HW196999   4.649  11.962   2.243
31722SOL    HW297000   4.783  11.901   2.209
31723SOL     OW97001  14.031  13.775   2.447
31723SOL    HW197002  13.959  13.713   2.436
31723SOL    HW297003  13.991  13.852   2.487
31724SOL     OW97004   0.825   5.181   5.349
31724SOL    HW197005   0.844   5.151   5.260
31724SOL    HW297006   0.806   5.275   5.339
31725SOL     OW97007   4.331   3.420  10.101
31725SOL    HW197008   4.266   3.485  10.128
31725SOL    HW297009   4.415   3.467  10.107
31726SOL     OW97010   7.187   0.620   5.915
31726SOL    HW197011   7.095   0.613   5.886
31726SOL    HW297012   7.237   0.579   5.844
31727SOL     OW97013  12.486   9.907   8.260
31727SOL    HW197014  12.452   9.954   8.183
31727SOL    HW297015  12.494   9.816   8.230
31728SOL     OW97016   5.469   4.118   5.884
31728SOL    HW197017   5.524   4.107   5.962
31728SOL    HW297018   5.417   4.196   5.903
31729SOL     OW97019   2.045   7.015   8.009
31729SOL    HW197020   2.097   6.960   7.951
31729SOL    HW297021   1.954   6.987   7.994
31730SOL     OW97022   5.190   3.186  12.041
31730SOL    HW197023   5.241   3.248  12.093
31730SOL    HW297024   5.252   3.152  11.977
31731SOL     OW97025   4.273   4.673  13.728
31731SOL    HW197026   4.291   4.715  13.643
31731SOL    HW297027   4.184   4.700  13.749
31732SOL     OW97028  11.611   0.387  11.858
31732SOL    HW197029  11.634   0.328  11.930
31732SOL    HW297030  11.682   0.452  11.857
31733SOL     OW97031   3.940  13.545   2.739
31733SOL    HW197032   3.881  13.536   2.814
31733SOL    HW297033   4.001  13.615   2.766
31734SOL     OW97034   9.648   4.816  12.857
31734SOL    HW197035   9.639   4.869  12.778
31734SOL    HW297036   9.570   4.836  12.908
31735SOL     OW97037   1.245   7.790   3.517
31735SOL    HW197038   1.175   7.725   3.528
31735SOL    HW297039   1.222   7.836   3.436
31736SOL     OW97040   9.040   7.887  12.679
31736SOL    HW197041   9.054   7.868  12.772
31736SOL    HW297042   9.050   7.802  12.636
31737SOL     OW97043   6.548  12.662  14.451
31737SOL    HW197044   6.637  12.628  14.456
31737SOL    HW297045   6.553  12.750  14.490
31738SOL     OW97046  12.364   1.142   4.934
31738SOL    HW197047  12.438   1.095   4.896
31738SOL    HW297048  12.301   1.149   4.863
31739SOL     OW97049   2.150  14.547  11.288
31739SOL    HW197050   2.093  14.512  11.356
31739SOL    HW297051   2.102  14.531  11.206
31740SOL     OW97052   5.956   6.472   9.996
31740SOL    HW197053   5.952   6.488  10.090
31740SOL    HW297054   5.868   6.443   9.972
31741SOL     OW97055   0.435   0.084   2.741
31741SOL    HW197056   0.380   0.142   2.794
31741SOL    HW297057   0.402  14.875   2.758
31742SOL     OW97058  12.636   0.432  13.359
31742SOL    HW197059  12.541   0.441  13.370
31742SOL    HW297060  12.653   0.339  13.376
31743SOL     OW97061  13.069   0.860   8.117
31743SOL    HW197062  13.104   0.944   8.146
31743SOL    HW297063  13.080   0.860   8.022
31744SOL     OW97064  12.663   6.457   8.823
31744SOL    HW197065  12.631   6.367   8.817
31744SOL    HW297066  12.680   6.483   8.732
31745SOL     OW97067  13.326  13.165   0.216
31745SOL    HW197068  13.347  13.189   0.306
31745SOL    HW297069  13.246  13.213   0.196
31746SOL     OW97070  12.455   1.996  10.116
31746SOL    HW197071  12.518   2.068  10.112
31746SOL    HW297072  12.447   1.976  10.209
31747SOL     OW97073   6.099   2.844   1.704
31747SOL    HW197074   6.185   2.869   1.670
31747SOL    HW297075   6.097   2.749   1.700
31748SOL     OW97076   4.964  14.100   4.326
31748SOL    HW197077   4.997  14.053   4.249
31748SOL    HW297078   5.000  14.188   4.317
31749SOL     OW97079   0.709   0.453  12.734
31749SOL    HW197080   0.618   0.427  12.744
31749SOL    HW297081   0.755   0.373  12.709
31750SOL     OW97082  14.562   3.374   0.352
31750SOL    HW197083  14.654   3.362   0.329
31750SOL    HW297084  14.564   3.408   0.442
31751SOL     OW97085   0.867   3.293   6.998
31751SOL    HW197086   0.886   3.377   6.957
31751SOL    HW297087   0.911   3.297   7.083
31752SOL     OW97088  10.712   2.686   8.586
31752SOL    HW197089  10.781   2.752   8.589
31752SOL    HW297090  10.651   2.717   8.519
31753SOL     OW97091   2.274   9.630   8.166
31753SOL    HW197092   2.358   9.667   8.139
31753SOL    HW297093   2.228   9.702   8.209
31754SOL     OW97094  13.744   2.343   3.858
31754SOL    HW197095  13.829   2.304   3.878
31754SOL    HW297096  13.697   2.275   3.811
31755SOL     OW97097  12.705   1.758   7.064
31755SOL    HW197098  12.739   1.765   7.153
31755SOL    HW297099  12.634   1.823   7.060
31756SOL     OW97100   5.845   9.904  13.297
31756SOL    HW197101   5.792   9.963  13.351
31756SOL    HW297102   5.833   9.818  13.337
31757SOL     OW97103   9.062  10.211   3.427
31757SOL    HW197104   9.118  10.138   3.454
31757SOL    HW297105   8.978  10.170   3.406
31758SOL     OW97106   3.846   9.612   9.197
31758SOL    HW197107   3.809   9.524   9.188
31758SOL    HW297108   3.780   9.661   9.246
31759SOL     OW97109   2.342   3.598  11.907
31759SOL    HW197110   2.300   3.588  11.822
31759SOL    HW297111   2.271   3.590  11.970
31760SOL     OW97112  11.625  14.869  13.569
31760SOL    HW197113  11.625  14.823  13.653
31760SOL    HW297114  11.539  14.850  13.531
31761SOL     OW97115   1.287  12.257   0.919
31761SOL    HW197116   1.329  12.212   0.846
31761SOL    HW297117   1.238  12.328   0.878
31762SOL     OW97118  11.913  10.991  13.596
31762SOL    HW197119  11.961  10.910  13.576
31762SOL    HW297120  11.842  10.962  13.654
31763SOL     OW97121   4.257   3.389   8.228
31763SOL    HW197122   4.215   3.324   8.284
31763SOL    HW297123   4.317   3.436   8.286
31764SOL     OW97124   3.620  11.864   1.472
31764SOL    HW197125   3.693  11.914   1.509
31764SOL    HW297126   3.542  11.911   1.501
31765SOL     OW97127   6.266  11.553  10.830
31765SOL    HW197128   6.268  11.581  10.921
31765SOL    HW297129   6.297  11.629  10.780
31766SOL     OW97130  13.854   6.809  12.599
31766SOL    HW197131  13.802   6.737  12.562
31766SOL    HW297132  13.839   6.882  12.539
31767SOL     OW97133   4.267   4.914   2.402
31767SOL    HW197134   4.227   4.924   2.488
31767SOL    HW297135   4.305   4.999   2.382
31768SOL     OW97136   1.829  13.217   9.118
31768SOL    HW197137   1.800  13.148   9.059
31768SOL    HW297138   1.923  13.224   9.103
31769SOL     OW97139   2.485   5.893  13.955
31769SOL    HW197140   2.474   5.862  13.866
31769SOL    HW297141   2.481   5.814  14.009
31770SOL     OW97142   5.201   3.583   3.861
31770SOL    HW197143   5.237   3.524   3.928
31770SOL    HW297144   5.254   3.567   3.783
31771SOL     OW97145   5.453   6.305  14.616
31771SOL    HW197146   5.363   6.274  14.606
31771SOL    HW297147   5.473   6.293  14.709
31772SOL     OW97148   4.759   9.920  10.844
31772SOL    HW197149   4.822   9.888  10.908
31772SOL    HW297150   4.673   9.900  10.882
31773SOL     OW97151   1.126   1.502  12.979
31773SOL    HW197152   1.137   1.409  12.998
31773SOL    HW297153   1.214   1.535  12.964
31774SOL     OW97154   1.348   2.851   9.048
31774SOL    HW197155   1.327   2.944   9.041
31774SOL    HW297156   1.416   2.837   8.982
31775SOL     OW97157   2.581  12.067   8.397
31775SOL    HW197158   2.501  12.016   8.383
31775SOL    HW297159   2.580  12.134   8.329
31776SOL     OW97160  13.397  14.218   1.117
31776SOL    HW197161  13.453  14.168   1.058
31776SOL    HW297162  13.355  14.283   1.061
31777SOL     OW97163   4.035   0.534  10.282
31777SOL    HW197164   3.998   0.517  10.195
31777SOL    HW297165   4.100   0.603  10.267
31778SOL     OW97166  12.990   0.075   4.742
31778SOL    HW197167  12.917   0.136   4.753
31778SOL    HW297168  13.041   0.082   4.822
31779SOL     OW97169  14.663  13.160   5.264
31779SOL    HW197170  14.600  13.102   5.306
31779SOL    HW297171  14.660  13.136   5.171
31780SOL     OW97172   0.482   0.454   8.430
31780SOL    HW197173   0.526   0.537   8.415
31780SOL    HW297174   0.428   0.468   8.507
31781SOL     OW97175   0.921  13.616  11.754
31781SOL    HW197176   0.949  13.616  11.663
31781SOL    HW297177   0.980  13.555  11.798
31782SOL     OW97178   1.481   0.521   5.491
31782SOL    HW197179   1.439   0.602   5.519
31782SOL    HW297180   1.554   0.550   5.436
31783SOL     OW97181   6.393   1.025   8.142
31783SOL    HW197182   6.476   0.981   8.162
31783SOL    HW297183   6.404   1.113   8.176
31784SOL     OW97184  14.002   2.738   1.681
31784SOL    HW197185  13.976   2.709   1.768
31784SOL    HW297186  13.926   2.720   1.625
31785SOL     OW97187  14.551  14.831  14.758
31785SOL    HW197188  14.490  14.762  14.731
31785SOL    HW297189  14.530  14.847  14.850
31786SOL     OW97190  11.223   6.418   0.011
31786SOL    HW197191  11.212   6.478   0.085
31786SOL    HW297192  11.311   6.437  14.857
31787SOL     OW97193   5.485   3.220   3.102
31787SOL    HW197194   5.396   3.255   3.109
31787SOL    HW297195   5.474   3.125   3.100
31788SOL     OW97196   0.762   9.177   5.166
31788SOL    HW197197   0.667   9.170   5.167
31788SOL    HW297198   0.792   9.091   5.138
31789SOL     OW97199  10.944   2.529   1.953
31789SOL    HW197200  10.946   2.435   1.933
31789SOL    HW297201  10.851   2.551   1.957
31790SOL     OW97202   8.512  13.345   2.967
31790SOL    HW197203   8.577  13.380   3.028
31790SOL    HW297204   8.474  13.270   3.013
31791SOL     OW97205   4.217  11.604  12.370
31791SOL    HW197206   4.173  11.673  12.320
31791SOL    HW297207   4.252  11.546  12.303
31792SOL     OW97208   2.056   8.754   2.800
31792SOL    HW197209   2.139   8.778   2.841
31792SOL    HW297210   2.021   8.837   2.767
31793SOL     OW97211   0.500   1.976   8.274
31793SOL    HW197212   0.457   1.891   8.280
31793SOL    HW297213   0.429   2.038   8.260
31794SOL     OW97214   2.260  12.258   3.242
31794SOL    HW197215   2.352  12.277   3.262
31794SOL    HW297216   2.256  12.162   3.239
31795SOL     OW97217   0.489  10.558  11.298
31795SOL    HW197218   0.520  10.644  11.326
31795SOL    HW297219   0.566  10.516  11.260
31796SOL     OW97220   7.482   5.903  10.273
31796SOL    HW197221   7.472   5.828  10.214
31796SOL    HW297222   7.515   5.973  10.218
31797SOL     OW97223   6.410  13.557  13.056
31797SOL    HW197224   6.340  13.504  13.095
31797SOL    HW297225   6.473  13.570  13.128
31798SOL     OW97226   5.792  11.073   4.854
31798SOL    HW197227   5.839  10.996   4.887
31798SOL    HW297228   5.813  11.142   4.917
31799SOL     OW97229   7.873   2.827   2.543
31799SOL    HW197230   7.805   2.862   2.485
31799SOL    HW297231   7.887   2.896   2.607
31800SOL     OW97232   4.634  10.290  10.299
31800SOL    HW197233   4.657  10.311  10.208
31800SOL    HW297234   4.706  10.235  10.329
31801SOL     OW97235   7.621   6.510   2.579
31801SOL    HW197236   7.615   6.582   2.642
31801SOL    HW297237   7.706   6.523   2.537
31802SOL     OW97238  11.478  10.430   3.231
31802SOL    HW197239  11.498  10.464   3.144
31802SOL    HW297240  11.550  10.370   3.251
31803SOL     OW97241   2.457   8.103   7.566
31803SOL    HW197242   2.501   8.178   7.606
31803SOL    HW297243   2.382   8.141   7.521
31804SOL     OW97244   9.235   7.968   2.453
31804SOL    HW197245   9.187   8.020   2.388
31804SOL    HW297246   9.168   7.923   2.503
31805SOL     OW97247   2.818   4.933   9.123
31805SOL    HW197248   2.730   4.918   9.158
31805SOL    HW297249   2.863   4.849   9.134
31806SOL     OW97250   8.273   7.506   1.545
31806SOL    HW197251   8.266   7.482   1.638
31806SOL    HW297252   8.233   7.593   1.540
31807SOL     OW97253   2.803  11.882   1.146
31807SOL    HW197254   2.798  11.809   1.085
31807SOL    HW297255   2.896  11.903   1.150
31808SOL     OW97256  13.597   1.917  11.628
31808SOL    HW197257  13.521   1.975  11.616
31808SOL    HW297258  13.560   1.829  11.624
31809SOL     OW97259   4.558  14.874   6.604
31809SOL    HW197260   4.513   0.080   6.601
31809SOL    HW297261   4.649   0.017   6.622
31810SOL     OW97262  10.545   3.239   8.494
31810SOL    HW197263  10.472   3.183   8.467
31810SOL    HW297264  10.616   3.178   8.515
31811SOL     OW97265   4.014   1.938  13.985
31811SOL    HW197266   3.974   1.989  14.055
31811SOL    HW297267   3.969   1.968  13.906
31812SOL     OW97268  13.880   3.424  14.372
31812SOL    HW197269  13.888   3.503  14.426
31812SOL    HW297270  13.896   3.455  14.283
31813SOL     OW97271   8.525   0.475   5.458
31813SOL    HW197272   8.434   0.477   5.427
31813SOL    HW297273   8.521   0.511   5.547
31814SOL     OW97274   2.512   8.168  10.397
31814SOL    HW197275   2.528   8.185  10.304
31814SOL    HW297276   2.461   8.244  10.427
31815SOL     OW97277   5.199   3.241   9.509
31815SOL    HW197278   5.126   3.179   9.511
31815SOL    HW297279   5.182   3.300   9.582
31816SOL     OW97280   7.706  14.857   6.664
31816SOL    HW197281   7.655   0.036   6.608
31816SOL    HW297282   7.797  14.876   6.641
31817SOL     OW97283   3.408   0.410  13.983
31817SOL    HW197284   3.331   0.449  13.942
31817SOL    HW297285   3.435   0.473  14.049
31818SOL     OW97286   8.161  12.332   1.988
31818SOL    HW197287   8.076  12.294   1.970
31818SOL    HW297288   8.174  12.319   2.082
31819SOL     OW97289   9.600   9.099  14.823
31819SOL    HW197290   9.637   9.088  14.736
31819SOL    HW297291   9.626   9.187  14.850
31820SOL     OW97292  11.188   2.940   9.516
31820SOL    HW197293  11.185   2.947   9.612
31820SOL    HW297294  11.282   2.933   9.496
31821SOL     OW97295  10.505   0.864   8.003
31821SOL    HW197296  10.433   0.804   8.024
31821SOL    HW297297  10.510   0.862   7.908
31822SOL     OW97298   5.214   2.966   9.251
31822SOL    HW197299   5.146   3.002   9.193
31822SOL    HW297300   5.256   3.043   9.290
31823SOL     OW97301   9.943   0.208   2.353
31823SOL    HW197302   9.972   0.255   2.275
31823SOL    HW297303   9.860   0.250   2.376
31824SOL     OW97304   5.503   7.244   7.475
31824SOL    HW197305   5.536   7.332   7.457
31824SOL    HW297306   5.551   7.187   7.414
31825SOL     OW97307   9.029  13.213   2.680
31825SOL    HW197308   8.959  13.156   2.712
31825SOL    HW297309   9.004  13.234   2.590
31826SOL     OW97310  13.757  11.899  13.811
31826SOL    HW197311  13.703  11.978  13.817
31826SOL    HW297312  13.751  11.872  13.719
31827SOL     OW97313   7.810  14.441   8.459
31827SOL    HW197314   7.816  14.518   8.516
31827SOL    HW297315   7.801  14.367   8.519
31828SOL     OW97316   5.686  11.430   5.081
31828SOL    HW197317   5.746  11.357   5.097
31828SOL    HW297318   5.687  11.442   4.986
31829SOL     OW97319   5.835   4.571  10.301
31829SOL    HW197320   5.805   4.572  10.392
31829SOL    HW297321   5.754   4.578  10.250
31830SOL     OW97322   7.544   7.607  13.027
31830SOL    HW197323   7.458   7.570  13.007
31830SOL    HW297324   7.605   7.535  13.011
31831SOL     OW97325   3.820  11.302  14.076
31831SOL    HW197326   3.835  11.364  14.005
31831SOL    HW297327   3.838  11.216  14.037
31832SOL     OW97328   9.523   2.320   9.712
31832SOL    HW197329   9.599   2.277   9.674
31832SOL    HW297330   9.497   2.262   9.784
31833SOL     OW97331  12.686  12.452   7.209
31833SOL    HW197332  12.641  12.525   7.250
31833SOL    HW297333  12.626  12.378   7.217
31834SOL     OW97334   7.114  10.647  10.018
31834SOL    HW197335   7.150  10.717   9.963
31834SOL    HW297336   7.020  10.653  10.006
31835SOL     OW97337  12.166  13.268   8.273
31835SOL    HW197338  12.123  13.262   8.188
31835SOL    HW297339  12.210  13.353   8.272
31836SOL     OW97340  11.151   2.638  10.535
31836SOL    HW197341  11.196   2.715  10.571
31836SOL    HW297342  11.097   2.606  10.607
31837SOL     OW97343   5.335  13.408   4.914
31837SOL    HW197344   5.295  13.416   4.827
31837SOL    HW297345   5.326  13.496   4.951
31838SOL     OW97346   0.991   9.539   5.548
31838SOL    HW197347   0.990   9.444   5.534
31838SOL    HW297348   0.902   9.558   5.580
31839SOL     OW97349   3.205   2.378  11.191
31839SOL    HW197350   3.193   2.284  11.178
31839SOL    HW297351   3.127   2.418  11.152
31840SOL     OW97352   4.359   4.960   7.870
31840SOL    HW197353   4.319   4.907   7.802
31840SOL    HW297354   4.324   5.048   7.856
31841SOL     OW97355   0.892   9.076   0.848
31841SOL    HW197356   0.880   8.999   0.903
31841SOL    HW297357   0.814   9.129   0.864
31842SOL     OW97358  12.577   8.631  11.630
31842SOL    HW197359  12.659   8.650  11.584
31842SOL    HW297360  12.603   8.624  11.722
31843SOL     OW97361  12.014  12.295   2.033
31843SOL    HW197362  12.027  12.261   2.122
31843SOL    HW297363  11.971  12.224   1.986
31844SOL     OW97364  13.360  14.154  11.929
31844SOL    HW197365  13.305  14.228  11.902
31844SOL    HW297366  13.449  14.180  11.906
31845SOL     OW97367  12.727   0.743   6.080
31845SOL    HW197368  12.674   0.728   6.158
31845SOL    HW297369  12.663   0.745   6.008
31846SOL     OW97370   7.544   7.969   3.109
31846SOL    HW197371   7.609   7.980   3.040
31846SOL    HW297372   7.509   8.057   3.123
31847SOL     OW97373   1.241   6.664  14.639
31847SOL    HW197374   1.305   6.707  14.696
31847SOL    HW297375   1.162   6.716  14.648
31848SOL     OW97376  13.174  12.641   3.885
31848SOL    HW197377  13.226  12.582   3.830
31848SOL    HW297378  13.089  12.645   3.842
31849SOL     OW97379  10.107  11.431   0.279
31849SOL    HW197380  10.070  11.344   0.270
31849SOL    HW297381  10.148  11.432   0.366
31850SOL     OW97382   6.061   2.077   7.994
31850SOL    HW197383   6.132   2.013   7.986
31850SOL    HW297384   6.014   2.071   7.911
31851SOL     OW97385  11.453   5.826   8.959
31851SOL    HW197386  11.536   5.850   8.917
31851SOL    HW297387  11.389   5.830   8.888
31852SOL     OW97388   7.779   9.230  10.803
31852SOL    HW197389   7.828   9.306  10.772
31852SOL    HW297390   7.690   9.244  10.772
31853SOL     OW97391  11.313   9.968   8.732
31853SOL    HW197392  11.339   9.886   8.773
31853SOL    HW297393  11.395  10.016   8.719
31854SOL     OW97394   8.252   3.293   5.588
31854SOL    HW197395   8.167   3.312   5.627
31854SOL    HW297396   8.297   3.239   5.653
31855SOL     OW97397   1.330   5.960   4.726
31855SOL    HW197398   1.426   5.960   4.724
31855SOL    HW297399   1.307   6.018   4.799
31856SOL     OW97400   9.840   9.031   6.149
31856SOL    HW197401   9.790   9.112   6.162
31856SOL    HW297402   9.790   8.965   6.197
31857SOL     OW97403   2.446   1.228  12.881
31857SOL    HW197404   2.521   1.266  12.835
31857SOL    HW297405   2.485   1.169  12.945
31858SOL     OW97406  10.734  13.194   6.758
31858SOL    HW197407  10.649  13.219   6.722
31858SOL    HW297408  10.716  13.177   6.851
31859SOL     OW97409  12.341  11.258  11.588
31859SOL    HW197410  12.408  11.211  11.539
31859SOL    HW297411  12.301  11.192  11.644
31860SOL     OW97412   8.790  10.330  10.021
31860SOL    HW197413   8.711  10.306  10.070
31860SOL    HW297414   8.853  10.356  10.088
31861SOL     OW97415  14.866   3.774   4.948
31861SOL    HW197416  14.782   3.740   4.980
31861SOL    HW297417   0.001   3.727   4.865
31862SOL     OW97418  12.481   7.543   4.801
31862SOL    HW197419  12.407   7.486   4.786
31862SOL    HW297420  12.480   7.604   4.727
31863SOL     OW97421   2.513   8.870   9.180
31863SOL    HW197422   2.439   8.891   9.123
31863SOL    HW297423   2.577   8.938   9.162
31864SOL     OW97424   9.313   5.917   3.917
31864SOL    HW197425   9.297   5.989   3.978
31864SOL    HW297426   9.368   5.955   3.848
31865SOL     OW97427   8.573  14.674   3.302
31865SOL    HW197428   8.505  14.706   3.243
31865SOL    HW297429   8.529  14.664   3.387
31866SOL     OW97430   0.157   4.260   7.216
31866SOL    HW197431   0.234   4.220   7.255
31866SOL    HW297432   0.119   4.313   7.286
31867SOL     OW97433   4.084  13.283  12.492
31867SOL    HW197434   4.058  13.374  12.505
31867SOL    HW297435   4.079  13.270  12.398
31868SOL     OW97436  13.251  11.409   5.814
31868SOL    HW197437  13.313  11.402   5.742
31868SOL    HW297438  13.189  11.337   5.801
31869SOL     OW97439   8.260   9.801  10.491
31869SOL    HW197440   8.204   9.767  10.420
31869SOL    HW297441   8.336   9.837  10.445
31870SOL     OW97442   1.323   6.779  11.542
31870SOL    HW197443   1.381   6.813  11.610
31870SOL    HW297444   1.323   6.684  11.556
31871SOL     OW97445  13.159   6.734   7.848
31871SOL    HW197446  13.073   6.691   7.855
31871SOL    HW297447  13.176   6.767   7.937
31872SOL     OW97448   2.463  10.768   8.539
31872SOL    HW197449   2.461  10.863   8.539
31872SOL    HW297450   2.388  10.742   8.486
31873SOL     OW97451   1.870  10.232   5.090
31873SOL    HW197452   1.805  10.196   5.151
31873SOL    HW297453   1.948  10.177   5.103
31874SOL     OW97454  10.720   7.388   0.792
31874SOL    HW197455  10.691   7.355   0.877
31874SOL    HW297456  10.799   7.438   0.812
31875SOL     OW97457   4.982   6.927   3.198
31875SOL    HW197458   4.975   6.877   3.279
31875SOL    HW297459   4.933   6.876   3.134
31876SOL     OW97460  11.894  10.481   6.085
31876SOL    HW197461  11.862  10.393   6.067
31876SOL    HW297462  11.990  10.474   6.082
31877SOL     OW97463   2.962   7.192   0.675
31877SOL    HW197464   2.955   7.284   0.649
31877SOL    HW297465   3.027   7.193   0.746
31878SOL     OW97466   2.182  12.405   0.300
31878SOL    HW197467   2.271  12.441   0.296
31878SOL    HW297468   2.126  12.481   0.316
31879SOL     OW97469   5.668   6.937   0.226
31879SOL    HW197470   5.656   6.889   0.308
31879SOL    HW297471   5.578   6.955   0.197
31880SOL     OW97472   9.752   5.541   1.389
31880SOL    HW197473   9.693   5.505   1.324
31880SOL    HW297474   9.748   5.480   1.463
31881SOL     OW97475   3.061   7.145   3.207
31881SOL    HW197476   3.023   7.232   3.210
31881SOL    HW297477   3.102   7.134   3.293
31882SOL     OW97478  11.818   3.794  10.896
31882SOL    HW197479  11.801   3.761  10.985
31882SOL    HW297480  11.827   3.715  10.843
31883SOL     OW97481  12.424   1.215   3.087
31883SOL    HW197482  12.406   1.309   3.082
31883SOL    HW297483  12.499   1.208   3.147
31884SOL     OW97484   1.578   3.345  13.203
31884SOL    HW197485   1.603   3.357  13.111
31884SOL    HW297486   1.587   3.251  13.218
31885SOL     OW97487   8.533  10.219   7.466
31885SOL    HW197488   8.622  10.252   7.453
31885SOL    HW297489   8.543  10.124   7.467
31886SOL     OW97490  14.863  11.870  12.567
31886SOL    HW197491   0.004  11.776  12.560
31886SOL    HW297492   0.058  11.914  12.526
31887SOL     OW97493   5.110  14.329   1.507
31887SOL    HW197494   5.201  14.328   1.538
31887SOL    HW297495   5.072  14.249   1.543
31888SOL     OW97496   8.700   5.838   6.230
31888SOL    HW197497   8.793   5.835   6.207
31888SOL    HW297498   8.661   5.896   6.164
31889SOL     OW97499  11.049  12.021  11.721
31889SOL    HW197500  11.105  12.049  11.649
31889SOL    HW297501  10.964  12.061  11.703
31890SOL     OW97502   8.164   3.154   9.608
31890SOL    HW197503   8.130   3.129   9.694
31890SOL    HW297504   8.086   3.167   9.554
31891SOL     OW97505  14.542   3.499  10.605
31891SOL    HW197506  14.495   3.435  10.551
31891SOL    HW297507  14.596   3.446  10.664
31892SOL     OW97508   4.752   0.120   8.795
31892SOL    HW197509   4.816   0.111   8.724
31892SOL    HW297510   4.746   0.032   8.832
31893SOL     OW97511  11.548   3.253   7.385
31893SOL    HW197512  11.516   3.334   7.426
31893SOL    HW297513  11.627   3.230   7.434
31894SOL     OW97514   5.294  10.858   3.937
31894SOL    HW197515   5.268  10.767   3.929
31894SOL    HW297516   5.386  10.859   3.910
31895SOL     OW97517  10.795  13.146   5.747
31895SOL    HW197518  10.716  13.101   5.779
31895SOL    HW297519  10.867  13.093   5.782
31896SOL     OW97520   5.176   9.112  14.790
31896SOL    HW197521   5.093   9.158  14.802
31896SOL    HW297522   5.182   9.098  14.695
31897SOL     OW97523   5.349   2.637   3.582
31897SOL    HW197524   5.359   2.542   3.584
31897SOL    HW297525   5.409   2.666   3.513
31898SOL     OW97526  12.311   5.362   5.921
31898SOL    HW197527  12.316   5.267   5.910
31898SOL    HW297528  12.218   5.382   5.907
31899SOL     OW97529   2.534   4.904   7.942
31899SOL    HW197530   2.585   4.834   7.983
31899SOL    HW297531   2.484   4.943   8.013
31900SOL     OW97532   2.525   5.024   0.014
31900SOL    HW197533   2.527   4.930   0.031
31900SOL    HW297534   2.476   5.060   0.088
31901SOL     OW97535   7.910   6.527  13.847
31901SOL    HW197536   7.977   6.589  13.819
31901SOL    HW297537   7.847   6.525  13.776
31902SOL     OW97538  14.434   4.064  10.350
31902SOL    HW197539  14.428   4.131  10.282
31902SOL    HW297540  14.403   4.108  10.429
31903SOL     OW97541   8.675  13.795   8.895
31903SOL    HW197542   8.640  13.714   8.932
31903SOL    HW297543   8.701  13.847   8.972
31904SOL     OW97544  12.961  14.196   4.367
31904SOL    HW197545  13.037  14.246   4.339
31904SOL    HW297546  12.967  14.195   4.463
31905SOL     OW97547   3.427   8.405   8.096
31905SOL    HW197548   3.463   8.488   8.067
31905SOL    HW297549   3.501   8.344   8.094
31906SOL     OW97550   2.320   4.563  10.174
31906SOL    HW197551   2.397   4.605  10.212
31906SOL    HW297552   2.350   4.528  10.090
31907SOL     OW97553  11.956   5.676  12.082
31907SOL    HW197554  11.868   5.643  12.102
31907SOL    HW297555  11.973   5.741  12.151
31908SOL     OW97556  14.496   7.073   5.114
31908SOL    HW197557  14.448   7.030   5.043
31908SOL    HW297558  14.479   7.018   5.190
31909SOL     OW97559  12.958   0.898   0.846
31909SOL    HW197560  12.892   0.880   0.912
31909SOL    HW297561  12.964   0.994   0.844
31910SOL     OW97562   9.998  13.738   8.568
31910SOL    HW197563   9.932  13.671   8.552
31910SOL    HW297564  10.077  13.704   8.527
31911SOL     OW97565  11.274   3.649   5.751
31911SOL    HW197566  11.296   3.556   5.753
31911SOL    HW297567  11.234   3.665   5.837
31912SOL     OW97568   1.125   0.787  10.810
31912SOL    HW197569   1.044   0.836  10.825
31912SOL    HW297570   1.107   0.700  10.845
31913SOL     OW97571   4.527   7.792   6.312
31913SOL    HW197572   4.527   7.775   6.217
31913SOL    HW297573   4.610   7.835   6.328
31914SOL     OW97574  11.360   7.002   9.792
31914SOL    HW197575  11.446   7.004   9.833
31914SOL    HW297576  11.301   7.037   9.859
31915SOL     OW97577   0.197   1.200   7.788
31915SOL    HW197578   0.110   1.197   7.748
31915SOL    HW297579   0.256   1.167   7.719
31916SOL     OW97580   9.234  13.537   7.749
31916SOL    HW197581   9.138  13.536   7.751
31916SOL    HW297582   9.256  13.628   7.731
31917SOL     OW97583   5.047   2.153  12.119
31917SOL    HW197584   5.091   2.103  12.187
31917SOL    HW297585   5.117   2.203  12.076
31918SOL     OW97586   8.861  10.048   9.585
31918SOL    HW197587   8.839  10.141   9.590
31918SOL    HW297588   8.857  10.028   9.491
31919SOL     OW97589  12.633   5.352  12.472
31919SOL    HW197590  12.715   5.391  12.441
31919SOL    HW297591  12.565   5.415  12.446
31920SOL     OW97592   1.660  10.991  14.011
31920SOL    HW197593   1.755  11.005  14.011
31920SOL    HW297594   1.651  10.896  14.003
31921SOL     OW97595   7.260   5.379   0.145
31921SOL    HW197596   7.186   5.319   0.149
31921SOL    HW297597   7.225   5.463   0.176
31922SOL     OW97598   6.143   9.834   1.505
31922SOL    HW197599   6.121   9.758   1.559
31922SOL    HW297600   6.071   9.895   1.518
31923SOL     OW97601   9.132   2.336   6.076
31923SOL    HW197602   9.213   2.384   6.094
31923SOL    HW297603   9.075   2.355   6.151
31924SOL     OW97604   2.835  13.895   3.509
31924SOL    HW197605   2.910  13.867   3.457
31924SOL    HW297606   2.761  13.890   3.449
31925SOL     OW97607  10.837   9.161   6.421
31925SOL    HW197608  10.815   9.254   6.425
31925SOL    HW297609  10.927   9.156   6.454
31926SOL     OW97610   6.413   3.454   7.837
31926SOL    HW197611   6.352   3.433   7.908
31926SOL    HW297612   6.372   3.419   7.759
31927SOL     OW97613   1.870   8.636   9.019
31927SOL    HW197614   1.954   8.665   8.982
31927SOL    HW297615   1.828   8.588   8.947
31928SOL     OW97616   7.663   2.374   6.940
31928SOL    HW197617   7.607   2.442   6.903
31928SOL    HW297618   7.608   2.332   7.006
31929SOL     OW97619   4.648  12.463   5.374
31929SOL    HW197620   4.690  12.379   5.390
31929SOL    HW297621   4.558  12.452   5.405
31930SOL     OW97622  11.649   3.648   3.632
31930SOL    HW197623  11.556   3.627   3.628
31930SOL    HW297624  11.653   3.743   3.621
31931SOL     OW97625   5.989   0.635   5.780
31931SOL    HW197626   6.006   0.675   5.866
31931SOL    HW297627   5.967   0.708   5.724
31932SOL     OW97628  11.559   9.925  12.085
31932SOL    HW197629  11.527  10.006  12.043
31932SOL    HW297630  11.510   9.855  12.042
31933SOL     OW97631   6.561  12.366  10.493
31933SOL    HW197632   6.553  12.273  10.514
31933SOL    HW297633   6.514  12.376  10.410
31934SOL     OW97634  11.487   4.145  13.891
31934SOL    HW197635  11.556   4.186  13.944
31934SOL    HW297636  11.409   4.198  13.907
31935SOL     OW97637  14.092   3.721   0.349
31935SOL    HW197638  14.109   3.806   0.308
31935SOL    HW297639  14.099   3.658   0.278
31936SOL     OW97640   0.675  13.730   8.671
31936SOL    HW197641   0.725  13.719   8.751
31936SOL    HW297642   0.585  13.705   8.694
31937SOL     OW97643   6.458   2.310   0.106
31937SOL    HW197644   6.484   2.244   0.042
31937SOL    HW297645   6.530   2.309   0.170
31938SOL     OW97646   3.715  14.062   1.875
31938SOL    HW197647   3.696  13.990   1.936
31938SOL    HW297648   3.808  14.052   1.855
31939SOL     OW97649   3.342   2.963   4.881
31939SOL    HW197650   3.254   2.999   4.888
31939SOL    HW297651   3.343   2.889   4.941
31940SOL     OW97652   3.722   8.066   7.578
31940SOL    HW197653   3.774   8.060   7.659
31940SOL    HW297654   3.768   8.009   7.516
31941SOL     OW97655  10.317   9.560   2.411
31941SOL    HW197656  10.340   9.649   2.383
31941SOL    HW297657  10.247   9.533   2.352
31942SOL     OW97658   4.042   2.819   6.598
31942SOL    HW197659   4.135   2.838   6.589
31942SOL    HW297660   3.998   2.900   6.571
31943SOL     OW97661   6.505   7.678  13.571
31943SOL    HW197662   6.492   7.664  13.665
31943SOL    HW297663   6.428   7.639  13.530
31944SOL     OW97664   2.274  12.374  12.351
31944SOL    HW197665   2.194  12.424  12.368
31944SOL    HW297666   2.283  12.374  12.256
31945SOL     OW97667   8.961   5.957   3.965
31945SOL    HW197668   9.001   5.928   4.047
31945SOL    HW297669   8.948   5.876   3.916
31946SOL     OW97670   6.867   7.860   4.194
31946SOL    HW197671   6.800   7.918   4.232
31946SOL    HW297672   6.945   7.915   4.187
31947SOL     OW97673   2.368   8.810   8.069
31947SOL    HW197674   2.352   8.838   8.159
31947SOL    HW297675   2.335   8.882   8.016
31948SOL     OW97676   6.921   5.047   9.427
31948SOL    HW197677   6.918   5.054   9.332
31948SOL    HW297678   6.982   5.115   9.455
31949SOL     OW97679   2.072   0.704   4.811
31949SOL    HW197680   1.987   0.747   4.816
31949SOL    HW297681   2.052   0.610   4.811
31950SOL     OW97682   6.376   5.144   7.185
31950SOL    HW197683   6.362   5.153   7.279
31950SOL    HW297684   6.451   5.200   7.166
31951SOL     OW97685   5.626   5.330   9.191
31951SOL    HW197686   5.692   5.305   9.256
31951SOL    HW297687   5.628   5.426   9.191
31952SOL     OW97688   9.882  10.804   5.774
31952SOL    HW197689   9.788  10.816   5.760
31952SOL    HW297690   9.887  10.754   5.856
31953SOL     OW97691  13.661  14.619   8.603
31953SOL    HW197692  13.650  14.713   8.617
31953SOL    HW297693  13.658  14.609   8.508
31954SOL     OW97694   8.712  12.686   9.944
31954SOL    HW197695   8.748  12.668   9.857
31954SOL    HW297696   8.632  12.634   9.949
31955SOL     OW97697   0.645   6.059   2.147
31955SOL    HW197698   0.628   5.987   2.086
31955SOL    HW297699   0.561   6.078   2.187
31956SOL     OW97700   3.012  13.908  10.206
31956SOL    HW197701   3.085  13.851  10.183
31956SOL    HW297702   3.048  13.996  10.203
31957SOL     OW97703   8.891  10.722  13.368
31957SOL    HW197704   8.854  10.673  13.441
31957SOL    HW297705   8.927  10.655  13.310
31958SOL     OW97706  14.490   6.321   8.807
31958SOL    HW197707  14.429   6.393   8.791
31958SOL    HW297708  14.506   6.283   8.720
31959SOL     OW97709   2.838   0.815   6.386
31959SOL    HW197710   2.813   0.767   6.308
31959SOL    HW297711   2.756   0.846   6.423
31960SOL     OW97712   7.666   3.645   0.639
31960SOL    HW197713   7.649   3.715   0.575
31960SOL    HW297714   7.694   3.691   0.718
31961SOL     OW97715   6.186   6.037  13.080
31961SOL    HW197716   6.228   6.056  13.163
31961SOL    HW297717   6.094   6.019  13.102
31962SOL     OW97718   8.091   8.000   1.423
31962SOL    HW197719   8.017   8.040   1.377
31962SOL    HW297720   8.072   8.014   1.516
31963SOL     OW97721  13.661   2.064   9.308
31963SOL    HW197722  13.714   2.128   9.260
31963SOL    HW297723  13.606   2.023   9.242
31964SOL     OW97724  13.246  10.937  11.604
31964SOL    HW197725  13.329  10.959  11.561
31964SOL    HW297726  13.216  10.859  11.558
31965SOL     OW97727  12.326   9.513   7.508
31965SOL    HW197728  12.285   9.571   7.573
31965SOL    HW297729  12.356   9.438   7.557
31966SOL     OW97730  11.427   1.865   7.913
31966SOL    HW197731  11.397   1.883   8.002
31966SOL    HW297732  11.409   1.772   7.900
31967SOL     OW97733   8.762   4.882  10.167
31967SOL    HW197734   8.772   4.939  10.244
31967SOL    HW297735   8.849   4.883  10.126
31968SOL     OW97736   2.502   6.176   3.154
31968SOL    HW197737   2.489   6.138   3.242
31968SOL    HW297738   2.422   6.153   3.107
31969SOL     OW97739  13.624   7.252   2.393
31969SOL    HW197740  13.594   7.322   2.335
31969SOL    HW297741  13.706   7.285   2.430
31970SOL     OW97742  10.188   2.458   5.383
31970SOL    HW197743  10.187   2.379   5.329
31970SOL    HW297744  10.104   2.500   5.366
31971SOL     OW97745   0.248   9.979   7.780
31971SOL    HW197746   0.313  10.012   7.841
31971SOL    HW297747   0.188  10.053   7.766
31972SOL     OW97748   4.720   5.164   3.437
31972SOL    HW197749   4.689   5.245   3.397
31972SOL    HW297750   4.734   5.105   3.363
31973SOL     OW97751   5.057  13.013   0.063
31973SOL    HW197752   5.152  13.021   0.072
31973SOL    HW297753   5.021  13.041   0.147
31974SOL     OW97754   4.099  10.795   0.031
31974SOL    HW197755   4.061  10.807  14.823
31974SOL    HW297756   4.085  10.702   0.051
31975SOL     OW97757   2.794  14.305   6.226
31975SOL    HW197758   2.782  14.261   6.310
31975SOL    HW297759   2.720  14.276   6.172
31976SOL     OW97760   7.977  11.396  13.633
31976SOL    HW197761   7.992  11.302  13.641
31976SOL    HW297762   7.912  11.416  13.701
31977SOL     OW97763  10.323   0.268   7.713
31977SOL    HW197764  10.322   0.348   7.765
31977SOL    HW297765  10.246   0.220   7.741
31978SOL     OW97766  10.385   6.482   4.190
31978SOL    HW197767  10.433   6.490   4.108
31978SOL    HW297768  10.427   6.410   4.236
31979SOL     OW97769  10.660  13.197   4.120
31979SOL    HW197770  10.602  13.270   4.099
31979SOL    HW297771  10.697  13.220   4.205
31980SOL     OW97772  13.247   8.317   3.915
31980SOL    HW197773  13.302   8.281   3.985
31980SOL    HW297774  13.158   8.287   3.937
31981SOL     OW97775   4.005  10.053   0.565
31981SOL    HW197776   3.996   9.992   0.492
31981SOL    HW297777   4.075  10.113   0.539
31982SOL     OW97778   8.320  10.335   1.432
31982SOL    HW197779   8.415  10.330   1.415
31982SOL    HW297780   8.310  10.413   1.488
31983SOL     OW97781  13.630  13.299   6.904
31983SOL    HW197782  13.610  13.377   6.852
31983SOL    HW297783  13.554  13.243   6.893
31984SOL     OW97784   3.007   7.443   9.548
31984SOL    HW197785   2.988   7.481   9.463
31984SOL    HW297786   2.925   7.450   9.596
31985SOL     OW97787  13.964   7.495   4.319
31985SOL    HW197788  13.884   7.535   4.285
31985SOL    HW297789  14.030   7.512   4.252
31986SOL     OW97790   9.477  14.465   1.929
31986SOL    HW197791   9.515  14.377   1.926
31986SOL    HW297792   9.455  14.484   1.837
31987SOL     OW97793  12.819   1.033   4.893
31987SOL    HW197794  12.749   1.092   4.865
31987SOL    HW297795  12.887   1.043   4.826
31988SOL     OW97796   4.443  10.841  11.417
31988SOL    HW197797   4.392  10.770  11.457
31988SOL    HW297798   4.398  10.921  11.445
31989SOL     OW97799   0.732  11.156   2.510
31989SOL    HW197800   0.691  11.171   2.425
31989SOL    HW297801   0.802  11.093   2.492
31990SOL     OW97802   2.811  12.945   7.027
31990SOL    HW197803   2.887  12.898   6.992
31990SOL    HW297804   2.801  13.020   6.968
31991SOL     OW97805   6.616   0.107  14.468
31991SOL    HW197806   6.592   0.068  14.385
31991SOL    HW297807   6.615   0.201  14.451
31992SOL     OW97808  13.584  14.034   9.043
31992SOL    HW197809  13.672  14.008   9.069
31992SOL    HW297810  13.579  14.127   9.064
31993SOL     OW97811   7.122   1.771  13.274
31993SOL    HW197812   7.144   1.860  13.301
31993SOL    HW297813   7.178   1.716  13.329
31994SOL     OW97814  12.147  11.453   4.242
31994SOL    HW197815  12.145  11.368   4.196
31994SOL    HW297816  12.159  11.517   4.172
31995SOL     OW97817   8.051   3.135   3.684
31995SOL    HW197818   7.992   3.173   3.620
31995SOL    HW297819   8.021   3.169   3.768
31996SOL     OW97820   0.397  11.506   8.956
31996SOL    HW197821   0.367  11.561   8.883
31996SOL    HW297822   0.322  11.452   8.978
31997SOL     OW97823  12.094   8.313   2.748
31997SOL    HW197824  12.077   8.318   2.654
31997SOL    HW297825  12.137   8.396   2.769
31998SOL     OW97826   1.668   1.474   4.332
31998SOL    HW197827   1.754   1.496   4.369
31998SOL    HW297828   1.675   1.380   4.311
31999SOL     OW97829  11.711   8.721   9.971
31999SOL    HW197830  11.755   8.663   9.909
31999SOL    HW297831  11.775   8.735  10.040
32000SOL     OW97832  10.051   1.185  13.486
32000SOL    HW197833  10.119   1.129  13.449
32000SOL    HW297834  10.085   1.274  13.477
32001SOL     OW97835   7.254   8.568  12.675
32001SOL    HW197836   7.301   8.504  12.622
32001SOL    HW297837   7.231   8.520  12.755
32002SOL     OW97838   3.115   6.788   0.595
32002SOL    HW197839   3.198   6.763   0.635
32002SOL    HW297840   3.136   6.863   0.540
32003SOL     OW97841   1.971   3.432  13.146
32003SOL    HW197842   1.910   3.494  13.187
32003SOL    HW297843   1.927   3.407  13.064
32004SOL     OW97844  10.959   1.692   0.468
32004SOL    HW197845  10.907   1.677   0.547
32004SOL    HW297846  10.916   1.639   0.400
32005SOL     OW97847   3.069   9.251   2.476
32005SOL    HW197848   3.121   9.323   2.512
32005SOL    HW297849   3.021   9.290   2.403
32006SOL     OW97850   4.683   9.436   9.664
32006SOL    HW197851   4.714   9.365   9.719
32006SOL    HW297852   4.589   9.441   9.682
32007SOL     OW97853  14.790   4.221   4.226
32007SOL    HW197854  14.853   4.166   4.180
32007SOL    HW297855  14.751   4.163   4.292
32008SOL     OW97856  10.860   4.708   1.652
32008SOL    HW197857  10.868   4.802   1.631
32008SOL    HW297858  10.934   4.690   1.709
32009SOL     OW97859   0.480   2.749   2.712
32009SOL    HW197860   0.519   2.820   2.661
32009SOL    HW297861   0.394   2.735   2.674
32010SOL     OW97862  11.224   6.490  11.390
32010SOL    HW197863  11.157   6.479  11.457
32010SOL    HW297864  11.211   6.579  11.357
32011SOL     OW97865   1.893  12.837  10.154
32011SOL    HW197866   1.855  12.916  10.116
32011SOL    HW297867   1.830  12.768  10.134
32012SOL     OW97868   7.280   4.033   3.554
32012SOL    HW197869   7.240   3.981   3.623
32012SOL    HW297870   7.268   4.123   3.580
32013SOL     OW97871   9.159   0.665   4.955
32013SOL    HW197872   9.102   0.709   4.893
32013SOL    HW297873   9.189   0.586   4.908
32014SOL     OW97874   1.614  12.592   5.439
32014SOL    HW197875   1.617  12.577   5.534
32014SOL    HW297876   1.704  12.579   5.410
32015SOL     OW97877   4.777  14.833   6.334
32015SOL    HW197878   4.698   0.000   6.305
32015SOL    HW297879   4.784  14.853   6.427
32016SOL     OW97880  13.816  13.146   7.330
32016SOL    HW197881  13.767  13.208   7.277
32016SOL    HW297882  13.886  13.198   7.369
32017SOL     OW97883  10.941   7.563   0.810
32017SOL    HW197884  11.003   7.627   0.845
32017SOL    HW297885  10.990   7.518   0.741
32018SOL     OW97886   8.600   1.502  14.137
32018SOL    HW197887   8.516   1.468  14.168
32018SOL    HW297888   8.627   1.565  14.205
32019SOL     OW97889   9.117   0.516   7.572
32019SOL    HW197890   9.160   0.600   7.557
32019SOL    HW297891   9.177   0.451   7.535
32020SOL     OW97892   6.348   5.484   7.978
32020SOL    HW197893   6.277   5.504   7.917
32020SOL    HW297894   6.369   5.568   8.019
32021SOL     OW97895   3.505   2.459   3.776
32021SOL    HW197896   3.510   2.515   3.854
32021SOL    HW297897   3.578   2.399   3.785
32022SOL     OW97898  14.420   4.248  13.470
32022SOL    HW197899  14.428   4.296  13.552
32022SOL    HW297900  14.423   4.316  13.403
32023SOL     OW97901  13.435  14.661   1.021
32023SOL    HW197902  13.451  14.639   1.113
32023SOL    HW297903  13.387  14.743   1.023
32024SOL     OW97904   5.119   7.953   7.595
32024SOL    HW197905   5.155   8.038   7.621
32024SOL    HW297906   5.146   7.894   7.666
32025SOL     OW97907   4.306   5.698   0.046
32025SOL    HW197908   4.372   5.695   0.115
32025SOL    HW297909   4.354   5.722  14.846
32026SOL     OW97910  11.716   8.988   7.827
32026SOL    HW197911  11.769   8.957   7.754
32026SOL    HW297912  11.775   8.985   7.903
32027SOL     OW97913   2.069   5.166  13.019
32027SOL    HW197914   2.014   5.088  13.018
32027SOL    HW297915   2.135   5.149  12.951
32028SOL     OW97916  12.903  13.772   2.988
32028SOL    HW197917  12.815  13.771   2.950
32028SOL    HW297918  12.913  13.686   3.029
32029SOL     OW97919  12.638  14.331   9.905
32029SOL    HW197920  12.595  14.343   9.820
32029SOL    HW297921  12.691  14.410   9.917
32030SOL     OW97922   2.738   5.508   7.724
32030SOL    HW197923   2.700   5.420   7.725
32030SOL    HW297924   2.740   5.534   7.816
32031SOL     OW97925   2.839   6.168   5.126
32031SOL    HW197926   2.753   6.193   5.091
32031SOL    HW297927   2.830   6.176   5.221
32032SOL     OW97928  10.892   4.559   4.605
32032SOL    HW197929  10.945   4.624   4.652
32032SOL    HW297930  10.945   4.538   4.528
32033SOL     OW97931   2.967  10.103   1.711
32033SOL    HW197932   3.030  10.048   1.665
32033SOL    HW297933   3.020  10.158   1.769
32034SOL     OW97934   9.722   7.108   8.345
32034SOL    HW197935   9.747   7.057   8.422
32034SOL    HW297936   9.686   7.189   8.381
32035SOL     OW97937   1.764  10.789  13.656
32035SOL    HW197938   1.758  10.834  13.572
32035SOL    HW297939   1.759  10.696  13.633
32036SOL     OW97940   0.308   7.546  10.397
32036SOL    HW197941   0.229   7.534  10.345
32036SOL    HW297942   0.380   7.525  10.337
32037SOL     OW97943   0.064  11.096   6.746
32037SOL    HW197944   0.009  11.154   6.798
32037SOL    HW297945   0.082  11.021   6.803
32038SOL     OW97946   6.516  14.756   3.585
32038SOL    HW197947   6.582  14.814   3.624
32038SOL    HW297948   6.567  14.696   3.530
32039SOL     OW97949   8.610   2.265   9.246
32039SOL    HW197950   8.624   2.171   9.250
32039SOL    HW297951   8.587   2.290   9.336
32040SOL     OW97952  12.182   4.453  10.002
32040SOL    HW197953  12.183   4.505   9.922
32040SOL    HW297954  12.262   4.401   9.998
32041SOL     OW97955   5.611   7.973   7.957
32041SOL    HW197956   5.659   8.043   7.912
32041SOL    HW297957   5.672   7.942   8.024
32042SOL     OW97958   8.181   2.848   9.427
32042SOL    HW197959   8.238   2.771   9.423
32042SOL    HW297960   8.194   2.893   9.344
32043SOL     OW97961   8.443  11.410   5.960
32043SOL    HW197962   8.373  11.383   5.900
32043SOL    HW297963   8.441  11.345   6.030
32044SOL     OW97964  14.455   2.189   8.817
32044SOL    HW197965  14.370   2.207   8.777
32044SOL    HW297966  14.451   2.096   8.840
32045SOL     OW97967   8.880   9.822  10.975
32045SOL    HW197968   8.807   9.780  10.928
32045SOL    HW297969   8.873   9.787  11.064
32046SOL     OW97970  11.676   8.711   9.276
32046SOL    HW197971  11.633   8.632   9.244
32046SOL    HW297972  11.766   8.704   9.246
32047SOL     OW97973  14.201  11.019   7.277
32047SOL    HW197974  14.262  10.946   7.289
32047SOL    HW297975  14.219  11.050   7.188
32048SOL     OW97976   3.528   9.750   5.766
32048SOL    HW197977   3.557   9.693   5.837
32048SOL    HW297978   3.522   9.837   5.806
32049SOL     OW97979   7.798  11.446  12.275
32049SOL    HW197980   7.848  11.441  12.194
32049SOL    HW297981   7.750  11.364  12.280
32050SOL     OW97982   5.144   6.130  10.570
32050SOL    HW197983   5.133   6.093  10.657
32050SOL    HW297984   5.179   6.218  10.585
32051SOL     OW97985  13.297   4.298   3.963
32051SOL    HW197986  13.365   4.280   3.899
32051SOL    HW297987  13.325   4.379   4.005
32052SOL     OW97988   7.895  12.257   4.458
32052SOL    HW197989   7.968  12.317   4.475
32052SOL    HW297990   7.826  12.285   4.517
32053SOL     OW97991   9.928   0.116   5.518
32053SOL    HW197992   9.836   0.091   5.514
32053SOL    HW297993   9.941   0.144   5.609
32054SOL     OW97994   5.183   7.412   0.137
32054SOL    HW197995   5.178   7.326   0.096
32054SOL    HW297996   5.235   7.465   0.076
32055SOL     OW97997   4.555   7.348   6.065
32055SOL    HW197998   4.503   7.334   5.986
32055SOL    HW297999   4.505   7.307   6.135
32056SOL     OW98000   8.800   9.682   0.646
32056SOL    HW198001   8.837   9.644   0.726
32056SOL    HW298002   8.825   9.774   0.649
32057SOL     OW98003  12.227   3.040  10.659
32057SOL    HW198004  12.243   3.048  10.753
32057SOL    HW298005  12.134   3.020  10.652
32058SOL     OW98006  13.266  13.628   7.113
32058SOL    HW198007  13.175  13.607   7.130
32058SOL    HW298008  13.291  13.689   7.182
32059SOL     OW98009   2.815  13.233  13.140
32059SOL    HW198010   2.758  13.156  13.143
32059SOL    HW298011   2.871  13.219  13.063
32060SOL     OW98012  13.696  11.024  10.019
32060SOL    HW198013  13.642  11.035   9.940
32060SOL    HW298014  13.635  11.035  10.092
32061SOL     OW98015  12.688   6.375   4.260
32061SOL    HW198016  12.763   6.402   4.313
32061SOL    HW298017  12.665   6.453   4.209
32062SOL     OW98018   6.248  14.065  10.093
32062SOL    HW198019   6.193  13.992  10.123
32062SOL    HW298020   6.308  14.080  10.166
32063SOL     OW98021   6.299   8.519  10.441
32063SOL    HW198022   6.361   8.592  10.451
32063SOL    HW298023   6.213   8.560  10.450
32064SOL     OW98024   1.157   5.001   7.128
32064SOL    HW198025   1.063   5.007   7.145
32064SOL    HW298026   1.195   4.973   7.212
32065SOL     OW98027  10.608   7.486   0.302
32065SOL    HW198028  10.540   7.542   0.264
32065SOL    HW298029  10.589   7.487   0.396
32066SOL     OW98030  13.573   8.589   8.238
32066SOL    HW198031  13.569   8.496   8.215
32066SOL    HW298032  13.493   8.626   8.200
32067SOL     OW98033  13.658  11.038   3.925
32067SOL    HW198034  13.677  11.121   3.882
32067SOL    HW298035  13.613  11.062   4.006
32068SOL     OW98036  13.284   2.767  10.931
32068SOL    HW198037  13.314   2.856  10.949
32068SOL    HW298038  13.225   2.776  10.856
32069SOL     OW98039  11.504   5.834   7.303
32069SOL    HW198040  11.528   5.887   7.380
32069SOL    HW298041  11.583   5.833   7.250
32070SOL     OW98042  10.200  14.695   1.575
32070SOL    HW198043  10.213  14.606   1.609
32070SOL    HW298044  10.151  14.682   1.494
32071SOL     OW98045  13.671   6.191   7.689
32071SOL    HW198046  13.683   6.173   7.596
32071SOL    HW298047  13.692   6.108   7.733
32072SOL     OW98048   1.608   6.370   2.315
32072SOL    HW198049   1.668   6.414   2.376
32072SOL    HW298050   1.534   6.430   2.306
32073SOL     OW98051   4.821   2.548   5.536
32073SOL    HW198052   4.889   2.546   5.468
32073SOL    HW298053   4.840   2.627   5.586
32074SOL     OW98054   8.569  11.538   4.666
32074SOL    HW198055   8.478  11.514   4.649
32074SOL    HW298056   8.594  11.488   4.743
32075SOL     OW98057  14.676  11.469   0.714
32075SOL    HW198058  14.595  11.419   0.707
32075SOL    HW298059  14.717  11.438   0.795
32076SOL     OW98060   2.462   6.451   5.380
32076SOL    HW198061   2.383   6.433   5.330
32076SOL    HW298062   2.509   6.515   5.327
32077SOL     OW98063   9.076  11.575   4.833
32077SOL    HW198064   9.087  11.485   4.803
32077SOL    HW298065   9.147  11.623   4.791
32078SOL     OW98066   5.778  14.504   2.397
32078SOL    HW198067   5.767  14.419   2.354
32078SOL    HW298068   5.814  14.483   2.483
32079SOL     OW98069   9.245   2.206   3.812
32079SOL    HW198070   9.339   2.215   3.798
32079SOL    HW298071   9.205   2.257   3.741
32080SOL     OW98072   0.997  10.708   8.353
32080SOL    HW198073   0.984  10.618   8.322
32080SOL    HW298074   1.092  10.720   8.352
32081SOL     OW98075  13.278  14.798  10.880
32081SOL    HW198076  13.214  14.741  10.837
32081SOL    HW298077  13.314  14.851  10.809
32082SOL     OW98078   4.336   2.175   4.247
32082SOL    HW198079   4.378   2.236   4.186
32082SOL    HW298080   4.406   2.113   4.270
32083SOL     OW98081   5.319   9.952  13.508
32083SOL    HW198082   5.345   9.908  13.428
32083SOL    HW298083   5.318  10.045  13.486
32084SOL     OW98084   2.996   4.765   5.164
32084SOL    HW198085   3.080   4.727   5.139
32084SOL    HW298086   2.939   4.689   5.179
32085SOL     OW98087   1.391   8.662  12.851
32085SOL    HW198088   1.315   8.644  12.907
32085SOL    HW298089   1.460   8.605  12.886
32086SOL     OW98090   2.247   5.935   8.635
32086SOL    HW198091   2.198   5.863   8.596
32086SOL    HW298092   2.188   6.011   8.629
32087SOL     OW98093  14.799  13.594  13.068
32087SOL    HW198094  14.870  13.604  13.005
32087SOL    HW298095  14.757  13.511  13.045
32088SOL     OW98096  12.463   6.767   8.697
32088SOL    HW198097  12.551   6.731   8.689
32088SOL    HW298098  12.474   6.861   8.683
32089SOL     OW98099   3.932   6.823   9.613
32089SOL    HW198100   3.934   6.859   9.702
32089SOL    HW298101   3.840   6.800   9.600
32090SOL     OW98102   8.587   0.695   7.960
32090SOL    HW198103   8.596   0.693   8.055
32090SOL    HW298104   8.677   0.702   7.927
32091SOL     OW98105   6.383   8.656   7.174
32091SOL    HW198106   6.472   8.687   7.188
32091SOL    HW298107   6.363   8.604   7.252
32092SOL     OW98108  11.190   5.968   2.307
32092SOL    HW198109  11.178   5.892   2.364
32092SOL    HW298110  11.213   6.039   2.366
32093SOL     OW98111   6.655   2.038  10.108
32093SOL    HW198112   6.699   1.990  10.039
32093SOL    HW298113   6.701   2.122  10.112
32094SOL     OW98114   8.320  13.338   9.511
32094SOL    HW198115   8.352  13.327   9.601
32094SOL    HW298116   8.397  13.328   9.456
32095SOL     OW98117  13.779   8.002   6.188
32095SOL    HW198118  13.835   7.925   6.188
32095SOL    HW298119  13.720   7.990   6.262
32096SOL     OW98120  12.397  13.314   5.668
32096SOL    HW198121  12.474  13.322   5.611
32096SOL    HW298122  12.325  13.293   5.609
32097SOL     OW98123  13.393  10.789   2.741
32097SOL    HW198124  13.370  10.871   2.697
32097SOL    HW298125  13.456  10.747   2.682
32098SOL     OW98126  11.743  14.515  12.758
32098SOL    HW198127  11.709  14.426  12.764
32098SOL    HW298128  11.724  14.543  12.668
32099SOL     OW98129   2.691   2.784   1.796
32099SOL    HW198130   2.776   2.747   1.820
32099SOL    HW298131   2.685   2.865   1.845
32100SOL     OW98132   1.641   7.047  12.433
32100SOL    HW198133   1.667   6.955  12.421
32100SOL    HW298134   1.620   7.078  12.345
32101SOL     OW98135  10.231   4.857  11.759
32101SOL    HW198136  10.232   4.888  11.849
32101SOL    HW298137  10.285   4.778  11.760
32102SOL     OW98138  14.856   6.819  11.582
32102SOL    HW198139   0.027   6.857  11.653
32102SOL    HW298140  14.856   6.725  11.599
32103SOL     OW98141   3.569   7.347   8.820
32103SOL    HW198142   3.563   7.425   8.875
32103SOL    HW298143   3.490   7.350   8.766
32104SOL     OW98144  10.436   7.073   6.202
32104SOL    HW198145  10.480   7.095   6.284
32104SOL    HW298146  10.417   7.158   6.161
32105SOL     OW98147   4.818  10.546  10.140
32105SOL    HW198148   4.772  10.462  10.148
32105SOL    HW298149   4.909  10.522  10.124
32106SOL     OW98150   3.582   5.096  10.861
32106SOL    HW198151   3.540   5.024  10.813
32106SOL    HW298152   3.673   5.095  10.831
32107SOL     OW98153  13.912   6.101   8.963
32107SOL    HW198154  13.999   6.060   8.960
32107SOL    HW298155  13.927   6.191   8.935
32108SOL     OW98156   8.670   5.734   9.636
32108SOL    HW198157   8.747   5.771   9.678
32108SOL    HW298158   8.656   5.650   9.680
32109SOL     OW98159   2.825  10.998   3.985
32109SOL    HW198160   2.909  10.957   4.005
32109SOL    HW298161   2.819  10.995   3.890
32110SOL     OW98162   6.063  12.935   1.974
32110SOL    HW198163   6.125  12.997   1.935
32110SOL    HW298164   6.119  12.865   2.008
32111SOL     OW98165   2.255   0.637   0.078
32111SOL    HW198166   2.348   0.656   0.063
32111SOL    HW298167   2.209   0.706   0.030
32112SOL     OW98168   5.519   3.905  10.182
32112SOL    HW198169   5.507   3.826  10.130
32112SOL    HW298170   5.569   3.964  10.125
32113SOL     OW98171   9.455   7.797   1.639
32113SOL    HW198172   9.494   7.713   1.664
32113SOL    HW298173   9.499   7.862   1.695
32114SOL     OW98174   6.014  11.269   6.562
32114SOL    HW198175   5.992  11.200   6.499
32114SOL    HW298176   6.056  11.222   6.635
32115SOL     OW98177  10.789   0.091   4.702
32115SOL    HW198178  10.704   0.099   4.659
32115SOL    HW298179  10.814   0.180   4.724
32116SOL     OW98180   2.492   0.802  12.395
32116SOL    HW198181   2.474   0.722  12.444
32116SOL    HW298182   2.496   0.774  12.303
32117SOL     OW98183   3.899   9.226  12.672
32117SOL    HW198184   3.965   9.199  12.736
32117SOL    HW298185   3.851   9.296  12.716
32118SOL     OW98186   8.765   8.888  14.386
32118SOL    HW198187   8.674   8.895  14.415
32118SOL    HW298188   8.765   8.812  14.328
32119SOL     OW98189  14.060   9.389  14.258
32119SOL    HW198190  14.053   9.339  14.176
32119SOL    HW298191  14.086   9.324  14.323
32120SOL     OW98192   5.959   4.273  14.665
32120SOL    HW198193   6.010   4.196  14.692
32120SOL    HW298194   5.868   4.242  14.663
32121SOL     OW98195  13.114   9.080   2.289
32121SOL    HW198196  13.053   9.018   2.248
32121SOL    HW298197  13.061   9.126   2.354
32122SOL     OW98198   9.396   0.480   8.166
32122SOL    HW198199   9.405   0.483   8.261
32122SOL    HW298200   9.366   0.567   8.141
32123SOL     OW98201   2.583   8.320   9.683
32123SOL    HW198202   2.523   8.330   9.757
32123SOL    HW298203   2.663   8.285   9.722
32124SOL     OW98204   2.552   5.341  11.306
32124SOL    HW198205   2.595   5.260  11.334
32124SOL    HW298206   2.503   5.315  11.228
32125SOL     OW98207   4.212   3.475   3.605
32125SOL    HW198208   4.204   3.565   3.573
32125SOL    HW298209   4.291   3.441   3.562
32126SOL     OW98210   1.357   0.705  10.170
32126SOL    HW198211   1.411   0.654  10.230
32126SOL    HW298212   1.343   0.788  10.214
32127SOL     OW98213   0.570  13.741   1.340
32127SOL    HW198214   0.594  13.828   1.370
32127SOL    HW298215   0.490  13.720   1.387
32128SOL     OW98216   3.396   5.177  14.233
32128SOL    HW198217   3.423   5.234  14.305
32128SOL    HW298218   3.378   5.093  14.275
32129SOL     OW98219   2.492   6.352   2.534
32129SOL    HW198220   2.572   6.380   2.489
32129SOL    HW298221   2.461   6.430   2.580
32130SOL     OW98222   1.523   6.769  13.553
32130SOL    HW198223   1.522   6.857  13.591
32130SOL    HW298224   1.523   6.784  13.459
32131SOL     OW98225   4.472   5.917   8.753
32131SOL    HW198226   4.563   5.892   8.739
32131SOL    HW298227   4.423   5.836   8.746
32132SOL     OW98228  11.859  11.435   7.151
32132SOL    HW198229  11.913  11.511   7.173
32132SOL    HW298230  11.786  11.439   7.213
32133SOL     OW98231   1.587  10.728   2.676
32133SOL    HW198232   1.613  10.678   2.599
32133SOL    HW298233   1.525  10.672   2.722
32134SOL     OW98234  11.656  13.082   3.076
32134SOL    HW198235  11.694  13.153   3.025
32134SOL    HW298236  11.694  13.091   3.163
32135SOL     OW98237   7.578  11.378   3.442
32135SOL    HW198238   7.558  11.469   3.461
32135SOL    HW298239   7.545  11.364   3.353
32136SOL     OW98240  12.098   3.671   9.522
32136SOL    HW198241  12.178   3.707   9.485
32136SOL    HW298242  12.084   3.723   9.602
32137SOL     OW98243  11.427  11.159  14.439
32137SOL    HW198244  11.439  11.220  14.366
32137SOL    HW298245  11.362  11.096  14.406
32138SOL     OW98246   9.597   9.259   5.939
32138SOL    HW198247   9.655   9.244   6.014
32138SOL    HW298248   9.558   9.345   5.955
32139SOL     OW98249  12.161   1.035   8.872
32139SOL    HW198250  12.187   0.975   8.802
32139SOL    HW298251  12.155   0.979   8.950
32140SOL     OW98252  13.108   0.215   4.523
32140SOL    HW198253  13.078   0.145   4.582
32140SOL    HW298254  13.115   0.292   4.579
32141SOL     OW98255  13.588   6.134   9.185
32141SOL    HW198256  13.618   6.053   9.144
32141SOL    HW298257  13.630   6.203   9.132
32142SOL     OW98258   7.773   0.288   1.630
32142SOL    HW198259   7.810   0.279   1.542
32142SOL    HW298260   7.698   0.347   1.619
32143SOL     OW98261   5.186   8.205   8.121
32143SOL    HW198262   5.183   8.295   8.090
32143SOL    HW298263   5.269   8.171   8.085
32144SOL     OW98264   6.108   5.440   6.818
32144SOL    HW198265   6.053   5.518   6.808
32144SOL    HW298266   6.102   5.419   6.911
32145SOL     OW98267   9.125   7.114  10.730
32145SOL    HW198268   9.062   7.185  10.717
32145SOL    HW298269   9.207   7.158  10.752
32146SOL     OW98270   7.521  14.607   8.764
32146SOL    HW198271   7.431  14.620   8.732
32146SOL    HW298272   7.515  14.621   8.858
32147SOL     OW98273  13.691   8.878   7.869
32147SOL    HW198274  13.716   8.968   7.850
32147SOL    HW298275  13.598   8.882   7.891
32148SOL     OW98276   7.460   0.832   6.789
32148SOL    HW198277   7.539   0.875   6.820
32148SOL    HW298278   7.474   0.820   6.695
32149SOL     OW98279   1.953  11.707  14.138
32149SOL    HW198280   2.021  11.661  14.188
32149SOL    HW298281   1.991  11.793  14.120
32150SOL     OW98282   4.435   3.797  14.866
32150SOL    HW198283   4.448   3.703  14.869
32150SOL    HW298284   4.498   3.828  14.800
32151SOL     OW98285   3.846  10.141   0.008
32151SOL    HW198286   3.875  10.089  14.812
32151SOL    HW298287   3.922  10.195   0.031
32152SOL     OW98288   9.549  13.867  14.214
32152SOL    HW198289   9.587  13.925  14.280
32152SOL    HW298290   9.518  13.925  14.145
32153SOL     OW98291  11.738   1.015   6.703
32153SOL    HW198292  11.749   1.011   6.608
32153SOL    HW298293  11.664   1.075   6.716
32154SOL     OW98294   7.984   4.541  14.606
32154SOL    HW198295   7.982   4.590  14.688
32154SOL    HW298296   7.953   4.453  14.631
32155SOL     OW98297  11.648   1.614  11.211
32155SOL    HW198298  11.591   1.602  11.135
32155SOL    HW298299  11.596   1.583  11.285
32156SOL     OW98300   9.646   6.291   4.882
32156SOL    HW198301   9.567   6.293   4.936
32156SOL    HW298302   9.682   6.204   4.895
32157SOL     OW98303   0.960   4.000   3.587
32157SOL    HW198304   0.909   4.077   3.562
32157SOL    HW298305   0.909   3.960   3.657
32158SOL     OW98306   2.882  14.622  10.569
32158SOL    HW198307   2.826  14.693  10.539
32158SOL    HW298308   2.970  14.660  10.570
32159SOL     OW98309   1.634  13.186   9.356
32159SOL    HW198310   1.625  13.104   9.404
32159SOL    HW298311   1.661  13.160   9.269
32160SOL     OW98312   7.580  13.468  13.731
32160SOL    HW198313   7.671  13.443  13.715
32160SOL    HW298314   7.577  13.494  13.823
32161SOL     OW98315   4.091  10.018   1.059
32161SOL    HW198316   4.091   9.925   1.079
32161SOL    HW298317   4.054  10.060   1.137
32162SOL     OW98318   1.608   0.150  12.697
32162SOL    HW198319   1.568   0.072  12.733
32162SOL    HW298320   1.541   0.218  12.707
32163SOL     OW98321  11.397  10.206  13.151
32163SOL    HW198322  11.404  10.117  13.185
32163SOL    HW298323  11.304  10.228  13.161
32164SOL     OW98324   8.422   0.110  10.427
32164SOL    HW198325   8.405   0.203  10.410
32164SOL    HW298326   8.481   0.083  10.356
32165SOL     OW98327   6.282   2.855  11.728
32165SOL    HW198328   6.277   2.761  11.745
32165SOL    HW298329   6.375   2.874  11.721
32166SOL     OW98330   3.260   8.610  11.904
32166SOL    HW198331   3.213   8.614  11.988
32166SOL    HW298332   3.352   8.608  11.929
32167SOL     OW98333  11.894   8.039   3.559
32167SOL    HW198334  11.882   8.110   3.622
32167SOL    HW298335  11.806   8.021   3.526
32168SOL     OW98336   0.326   3.294   4.764
32168SOL    HW198337   0.358   3.373   4.720
32168SOL    HW298338   0.252   3.265   4.710
32169SOL     OW98339   5.497  13.206   5.013
32169SOL    HW198340   5.430  13.146   5.045
32169SOL    HW298341   5.449  13.284   4.986
32170SOL     OW98342  13.695   4.664   6.312
32170SOL    HW198343  13.615   4.715   6.325
32170SOL    HW298344  13.671   4.598   6.248
32171SOL     OW98345  11.153   5.114  13.720
32171SOL    HW198346  11.128   5.022  13.711
32171SOL    HW298347  11.215   5.115  13.793
32172SOL     OW98348   2.065   1.779   0.028
32172SOL    HW198349   2.083   1.854   0.086
32172SOL    HW298350   2.090   1.810  14.820
32173SOL     OW98351   3.821  11.649   9.172
32173SOL    HW198352   3.784  11.642   9.084
32173SOL    HW298353   3.910  11.682   9.157
32174SOL     OW98354   4.665  10.980  12.239
32174SOL    HW198355   4.650  11.032  12.160
32174SOL    HW298356   4.739  11.022  12.282
32175SOL     OW98357   0.754   6.036   3.061
32175SOL    HW198358   0.718   6.006   3.144
32175SOL    HW298359   0.688   6.014   2.996
32176SOL     OW98360   9.094  13.653   5.234
32176SOL    HW198361   9.157  13.593   5.194
32176SOL    HW298362   9.111  13.646   5.328
32177SOL     OW98363   7.641   3.410  13.580
32177SOL    HW198364   7.734   3.423  13.599
32177SOL    HW298365   7.600   3.494  13.599
32178SOL     OW98366   0.639   5.836   3.278
32178SOL    HW198367   0.563   5.780   3.265
32178SOL    HW298368   0.713   5.775   3.284
32179SOL     OW98369   2.644  14.718   0.658
32179SOL    HW198370   2.738  14.733   0.670
32179SOL    HW298371   2.616  14.678   0.741
32180SOL     OW98372  13.880  12.348   7.506
32180SOL    HW198373  13.882  12.413   7.436
32180SOL    HW298374  13.967  12.355   7.547
32181SOL     OW98375  14.703   0.264   1.625
32181SOL    HW198376  14.614   0.267   1.589
32181SOL    HW298377  14.690   0.253   1.719
32182SOL     OW98378   4.139   2.547  13.953
32182SOL    HW198379   4.223   2.593  13.939
32182SOL    HW298380   4.073   2.614  13.936
32183SOL     OW98381   7.325   4.890  10.528
32183SOL    HW198382   7.397   4.953  10.520
32183SOL    HW298383   7.255   4.940  10.571
32184SOL     OW98384  11.168   4.088  12.543
32184SOL    HW198385  11.192   4.137  12.621
32184SOL    HW298386  11.123   4.151  12.487
32185SOL     OW98387   8.998   4.150   4.747
32185SOL    HW198388   9.066   4.178   4.685
32185SOL    HW298389   8.928   4.116   4.692
32186SOL     OW98390  11.260  13.093   9.503
32186SOL    HW198391  11.285  13.064   9.591
32186SOL    HW298392  11.331  13.062   9.447
32187SOL     OW98393   8.809   2.430  13.557
32187SOL    HW198394   8.828   2.471  13.642
32187SOL    HW298395   8.721   2.460  13.535
32188SOL     OW98396   1.522  10.055   2.059
32188SOL    HW198397   1.544   9.963   2.044
32188SOL    HW298398   1.606  10.097   2.077
32189SOL     OW98399   0.036   3.286  14.034
32189SOL    HW198400   0.011   3.211  14.087
32189SOL    HW298401   0.114   3.321  14.077
32190SOL     OW98402   8.382   2.983  11.779
32190SOL    HW198403   8.388   3.078  11.779
32190SOL    HW298404   8.397   2.958  11.871
32191SOL     OW98405  12.300   4.083  13.844
32191SOL    HW198406  12.354   4.126  13.778
32191SOL    HW298407  12.210   4.093  13.811
32192SOL     OW98408   4.790   3.606   3.862
32192SOL    HW198409   4.704   3.613   3.821
32192SOL    HW298410   4.775   3.550   3.938
32193SOL     OW98411  12.246   9.423   5.873
32193SOL    HW198412  12.207   9.444   5.958
32193SOL    HW298413  12.340   9.418   5.890
32194SOL     OW98414  14.303  11.382   6.142
32194SOL    HW198415  14.386  11.359   6.101
32194SOL    HW298416  14.299  11.477   6.138
32195SOL     OW98417  14.316   9.999   3.838
32195SOL    HW198418  14.227  10.002   3.804
32195SOL    HW298419  14.310  10.035   3.926
32196SOL     OW98420   4.547  11.616   0.057
32196SOL    HW198421   4.551  11.556  14.862
32196SOL    HW298422   4.491  11.688   0.028
32197SOL     OW98423   1.054   8.907  12.731
32197SOL    HW198424   1.059   8.963  12.653
32197SOL    HW298425   1.120   8.944  12.790
32198SOL     OW98426   8.669   2.001   9.481
32198SOL    HW198427   8.665   1.939   9.409
32198SOL    HW298428   8.758   2.036   9.477
32199SOL     OW98429  12.662   5.247   3.405
32199SOL    HW198430  12.685   5.155   3.397
32199SOL    HW298431  12.682   5.285   3.320
32200SOL     OW98432   1.497   4.045   9.333
32200SOL    HW198433   1.529   3.989   9.263
32200SOL    HW298434   1.575   4.089   9.367
32201SOL     OW98435   9.005  13.564  14.350
32201SOL    HW198436   8.951  13.553  14.272
32201SOL    HW298437   8.950  13.613  14.411
32202SOL     OW98438   0.758  11.300   0.519
32202SOL    HW198439   0.678  11.334   0.559
32202SOL    HW298440   0.786  11.229   0.577
32203SOL     OW98441   7.346   8.269  12.033
32203SOL    HW198442   7.296   8.225  11.964
32203SOL    HW298443   7.353   8.204  12.103
32204SOL     OW98444   1.930   6.615   8.246
32204SOL    HW198445   1.960   6.592   8.334
32204SOL    HW298446   1.981   6.559   8.188
32205SOL     OW98447  10.421   1.921   6.421
32205SOL    HW198448  10.483   1.994   6.430
32205SOL    HW298449  10.344   1.949   6.471
32206SOL     OW98450   6.210   5.904  11.349
32206SOL    HW198451   6.246   5.891  11.261
32206SOL    HW298452   6.238   5.827  11.398
32207SOL     OW98453   8.662   5.669   1.470
32207SOL    HW198454   8.722   5.743   1.482
32207SOL    HW298455   8.704   5.616   1.402
32208SOL     OW98456  14.655  14.319   0.467
32208SOL    HW198457  14.613  14.401   0.443
32208SOL    HW298458  14.659  14.320   0.563
32209SOL     OW98459   3.155  12.242   7.889
32209SOL    HW198460   3.081  12.247   7.829
32209SOL    HW298461   3.210  12.171   7.854
32210SOL     OW98462   8.808   2.382   9.111
32210SOL    HW198463   8.744   2.420   9.052
32210SOL    HW298464   8.757   2.327   9.171
32211SOL     OW98465   6.642  10.847  11.943
32211SOL    HW198466   6.616  10.933  11.910
32211SOL    HW298467   6.564  10.793  11.933
32212SOL     OW98468   6.254  11.480  13.972
32212SOL    HW198469   6.265  11.575  13.980
32212SOL    HW298470   6.294  11.444  14.051
32213SOL     OW98471  13.855   1.283  11.084
32213SOL    HW198472  13.806   1.230  11.147
32213SOL    HW298473  13.866   1.225  11.008
32214SOL     OW98474   8.758   1.483   0.452
32214SOL    HW198475   8.748   1.499   0.545
32214SOL    HW298476   8.763   1.387   0.444
32215SOL     OW98477   8.627   3.160  12.001
32215SOL    HW198478   8.679   3.119  11.932
32215SOL    HW298479   8.586   3.235  11.958
32216SOL     OW98480   9.043   1.411  14.689
32216SOL    HW198481   9.048   1.484  14.750
32216SOL    HW298482   8.950   1.399  14.673
32217SOL     OW98483  13.996  11.294   2.432
32217SOL    HW198484  13.942  11.216   2.418
32217SOL    HW298485  13.996  11.306   2.527
32218SOL     OW98486  13.371  13.882   9.690
32218SOL    HW198487  13.291  13.859   9.643
32218SOL    HW298488  13.359  13.974   9.713
32219SOL     OW98489   7.056   4.741  10.749
32219SOL    HW198490   6.989   4.745  10.818
32219SOL    HW298491   7.087   4.831  10.740
32220SOL     OW98492  13.169   2.011  11.205
32220SOL    HW198493  13.099   2.017  11.270
32220SOL    HW298494  13.153   2.084  11.145
32221SOL     OW98495   5.322   9.872   6.793
32221SOL    HW198496   5.384   9.800   6.794
32221SOL    HW298497   5.376   9.950   6.779
32222SOL     OW98498   3.061  10.697   6.294
32222SOL    HW198499   3.039  10.779   6.338
32222SOL    HW298500   3.085  10.638   6.365
32223SOL     OW98501   9.068   7.838   0.689
32223SOL    HW198502   9.062   7.850   0.594
32223SOL    HW298503   9.162   7.839   0.708
32224SOL     OW98504   6.786   4.102  11.650
32224SOL    HW198505   6.790   4.034  11.583
32224SOL    HW298506   6.878   4.122  11.669
32225SOL     OW98507   2.941   0.155  12.153
32225SOL    HW198508   2.994   0.227  12.119
32225SOL    HW298509   2.981   0.077  12.116
32226SOL     OW98510  11.735   1.271   5.830
32226SOL    HW198511  11.731   1.317   5.746
32226SOL    HW298512  11.827   1.272   5.854
32227SOL     OW98513   9.289   6.754   2.162
32227SOL    HW198514   9.213   6.807   2.187
32227SOL    HW298515   9.341   6.811   2.106
32228SOL     OW98516   4.346  13.061   3.299
32228SOL    HW198517   4.349  13.157   3.297
32228SOL    HW298518   4.398  13.034   3.224
32229SOL     OW98519   3.085   3.763   3.464
32229SOL    HW198520   3.064   3.724   3.549
32229SOL    HW298521   3.180   3.776   3.466
32230SOL     OW98522  13.528   8.820  10.103
32230SOL    HW198523  13.458   8.763  10.134
32230SOL    HW298524  13.569   8.855  10.182
32231SOL     OW98525   9.046  10.675   6.141
32231SOL    HW198526   8.962  10.722   6.143
32231SOL    HW298527   9.110  10.741   6.116
32232SOL     OW98528   0.592   6.907  13.522
32232SOL    HW198529   0.550   6.979  13.476
32232SOL    HW298530   0.523   6.840  13.529
32233SOL     OW98531   3.322   4.632  11.565
32233SOL    HW198532   3.393   4.568  11.558
32233SOL    HW298533   3.257   4.603  11.501
32234SOL     OW98534   9.934   8.963   0.342
32234SOL    HW198535   9.863   8.912   0.383
32234SOL    HW298536   9.897   8.992   0.258
32235SOL     OW98537   0.255   7.569   3.047
32235SOL    HW198538   0.163   7.544   3.055
32235SOL    HW298539   0.299   7.489   3.020
32236SOL     OW98540  13.573   1.811  10.285
32236SOL    HW198541  13.490   1.763  10.284
32236SOL    HW298542  13.572   1.861  10.203
32237SOL     OW98543   8.178   9.213  14.552
32237SOL    HW198544   8.215   9.151  14.490
32237SOL    HW298545   8.160   9.292  14.500
32238SOL     OW98546  10.320   8.108   0.313
32238SOL    HW198547  10.386   8.039   0.319
32238SOL    HW298548  10.308   8.138   0.404
32239SOL     OW98549   9.461   1.691  12.515
32239SOL    HW198550   9.448   1.680  12.421
32239SOL    HW298551   9.509   1.613  12.541
32240SOL     OW98552   9.751  10.554  11.227
32240SOL    HW198553   9.747  10.614  11.302
32240SOL    HW298554   9.813  10.595  11.167
32241SOL     OW98555   0.202   3.744   5.141
32241SOL    HW198556   0.144   3.743   5.065
32241SOL    HW298557   0.276   3.798   5.113
32242SOL     OW98558  13.079  12.382   1.723
32242SOL    HW198559  12.990  12.350   1.739
32242SOL    HW298560  13.073  12.428   1.639
32243SOL     OW98561   7.430   1.138  11.428
32243SOL    HW198562   7.499   1.203  11.432
32243SOL    HW298563   7.351   1.184  11.456
32244SOL     OW98564   1.784   3.795   3.582
32244SOL    HW198565   1.741   3.879   3.566
32244SOL    HW298566   1.774   3.781   3.677
32245SOL     OW98567   5.946   5.806  11.353
32245SOL    HW198568   5.945   5.777  11.261
32245SOL    HW298569   6.032   5.846  11.364
32246SOL     OW98570  13.185   7.859   9.954
32246SOL    HW198571  13.222   7.771   9.948
32246SOL    HW298572  13.258   7.917   9.929
32247SOL     OW98573   9.711   0.055  12.353
32247SOL    HW198574   9.626   0.077  12.391
32247SOL    HW298575   9.771   0.120  12.389
32248SOL     OW98576  13.887  14.122  12.455
32248SOL    HW198577  13.871  14.150  12.545
32248SOL    HW298578  13.973  14.157  12.434
32249SOL     OW98579  10.509   8.329   1.089
32249SOL    HW198580  10.469   8.413   1.110
32249SOL    HW298581  10.535   8.337   0.997
32250SOL     OW98582   1.919  12.493   1.604
32250SOL    HW198583   1.986  12.525   1.665
32250SOL    HW298584   1.939  12.400   1.594
32251SOL     OW98585   7.851   1.498   5.043
32251SOL    HW198586   7.884   1.409   5.039
32251SOL    HW298587   7.898   1.544   4.973
32252SOL     OW98588  12.702   2.685   2.900
32252SOL    HW198589  12.767   2.663   2.833
32252SOL    HW298590  12.639   2.742   2.856
32253SOL     OW98591  12.586   3.610   7.673
32253SOL    HW198592  12.508   3.662   7.690
32253SOL    HW298593  12.658   3.660   7.711
32254SOL     OW98594   3.604   3.145  10.836
32254SOL    HW198595   3.580   3.061  10.797
32254SOL    HW298596   3.617   3.203  10.761
32255SOL     OW98597   4.845   8.705   6.002
32255SOL    HW198598   4.852   8.610   6.013
32255SOL    HW298599   4.927   8.739   6.038
32256SOL     OW98600   2.021   4.123   2.864
32256SOL    HW198601   2.023   4.028   2.852
32256SOL    HW298602   2.097   4.155   2.816
32257SOL     OW98603   1.236  13.904   2.867
32257SOL    HW198604   1.314  13.849   2.877
32257SOL    HW298605   1.215  13.899   2.774
32258SOL     OW98606   4.316   5.984  10.508
32258SOL    HW198607   4.402   6.022  10.526
32258SOL    HW298608   4.254   6.053  10.530
32259SOL     OW98609   8.727   2.388   2.330
32259SOL    HW198610   8.821   2.384   2.317
32259SOL    HW298611   8.710   2.477   2.360
32260SOL     OW98612  12.725   6.612   8.222
32260SOL    HW198613  12.763   6.625   8.135
32260SOL    HW298614  12.744   6.520   8.243
32261SOL     OW98615   9.781  12.991   3.440
32261SOL    HW198616   9.863  13.038   3.450
32261SOL    HW298617   9.792  12.941   3.360
32262SOL     OW98618   0.026  13.785  13.975
32262SOL    HW198619  14.873  13.706  14.017
32262SOL    HW298620   0.013  13.770  13.881
32263SOL     OW98621   2.832  11.331   7.263
32263SOL    HW198622   2.842  11.393   7.335
32263SOL    HW298623   2.750  11.285   7.282
32264SOL     OW98624   3.094  10.892   8.528
32264SOL    HW198625   3.065  10.977   8.496
32264SOL    HW298626   3.035  10.829   8.485
32265SOL     OW98627   5.408   1.971  12.249
32265SOL    HW198628   5.341   2.027  12.289
32265SOL    HW298629   5.452   1.930  12.324
32266SOL     OW98630   2.703   7.001   4.914
32266SOL    HW198631   2.718   7.042   4.828
32266SOL    HW298632   2.706   7.074   4.976
32267SOL     OW98633  11.290  10.097   6.817
32267SOL    HW198634  11.210  10.143   6.840
32267SOL    HW298635  11.300  10.030   6.885
32268SOL     OW98636   1.221   4.709   1.054
32268SOL    HW198637   1.257   4.622   1.068
32268SOL    HW298638   1.215   4.717   0.958
32269SOL     OW98639   3.725   2.307  14.226
32269SOL    HW198640   3.771   2.362  14.289
32269SOL    HW298641   3.658   2.261  14.278
32270SOL     OW98642   0.337   1.245   2.715
32270SOL    HW198643   0.243   1.257   2.729
32270SOL    HW298644   0.367   1.329   2.681
32271SOL     OW98645   8.954   9.330  10.764
32271SOL    HW198646   8.975   9.256  10.708
32271SOL    HW298647   9.021   9.328  10.832
32272SOL     OW98648  12.164   4.318   8.162
32272SOL    HW198649  12.160   4.413   8.149
32272SOL    HW298650  12.244   4.305   8.213
32273SOL     OW98651  11.992   3.867  11.847
32273SOL    HW198652  11.972   3.911  11.764
32273SOL    HW298653  11.985   3.935  11.913
32274SOL     OW98654   8.985  12.981   6.046
32274SOL    HW198655   8.988  12.913   5.979
32274SOL    HW298656   8.961  13.061   5.999
32275SOL     OW98657   3.074  14.375   2.892
32275SOL    HW198658   3.127  14.389   2.971
32275SOL    HW298659   3.076  14.459   2.846
32276SOL     OW98660   0.313  10.599   6.648
32276SOL    HW198661   0.329  10.689   6.677
32276SOL    HW298662   0.240  10.606   6.587
32277SOL     OW98663   7.976   0.450   0.425
32277SOL    HW198664   8.046   0.405   0.471
32277SOL    HW298665   8.021   0.505   0.361
32278SOL     OW98666   1.269   6.921   0.753
32278SOL    HW198667   1.237   6.900   0.841
32278SOL    HW298668   1.308   7.008   0.763
32279SOL     OW98669   5.866   0.668   1.798
32279SOL    HW198670   5.886   0.630   1.712
32279SOL    HW298671   5.856   0.592   1.856
32280SOL     OW98672  12.058   9.530  11.488
32280SOL    HW198673  12.045   9.436  11.473
32280SOL    HW298674  12.042   9.570  11.403
32281SOL     OW98675   5.155   2.303  11.295
32281SOL    HW198676   5.126   2.227  11.246
32281SOL    HW298677   5.205   2.355  11.232
32282SOL     OW98678   4.465   5.724   0.695
32282SOL    HW198679   4.410   5.650   0.671
32282SOL    HW298680   4.461   5.727   0.791
32283SOL     OW98681   2.049  13.753  10.449
32283SOL    HW198682   1.993  13.822  10.485
32283SOL    HW298683   2.037  13.759  10.354
32284SOL     OW98684   6.217   7.355  11.389
32284SOL    HW198685   6.303   7.325  11.359
32284SOL    HW298686   6.179   7.399  11.313
32285SOL     OW98687   7.480   6.593   2.959
32285SOL    HW198688   7.500   6.531   3.029
32285SOL    HW298689   7.386   6.609   2.967
32286SOL     OW98690   5.963   4.403   4.745
32286SOL    HW198691   5.938   4.358   4.664
32286SOL    HW298692   5.888   4.392   4.803
32287SOL     OW98693   2.013   5.523  14.164
32287SOL    HW198694   1.930   5.485  14.194
32287SOL    HW298695   2.081   5.470  14.208
32288SOL     OW98696   9.411   9.770   0.181
32288SOL    HW198697   9.319   9.784   0.203
32288SOL    HW298698   9.432   9.836   0.115
32289SOL     OW98699   6.588   9.328   6.849
32289SOL    HW198700   6.541   9.376   6.780
32289SOL    HW298701   6.591   9.237   6.817
32290SOL     OW98702   7.830   5.887  11.271
32290SOL    HW198703   7.833   5.821  11.201
32290SOL    HW298704   7.921   5.897  11.298
32291SOL     OW98705  13.760   1.588  14.101
32291SOL    HW198706  13.773   1.683  14.101
32291SOL    HW298707  13.821   1.555  14.035
32292SOL     OW98708  12.340   1.452  12.626
32292SOL    HW198709  12.380   1.534  12.656
32292SOL    HW298710  12.246   1.467  12.632
32293SOL     OW98711   0.754   1.834  13.027
32293SOL    HW198712   0.660   1.850  13.015
32293SOL    HW298713   0.773   1.870  13.114
32294SOL     OW98714   3.012   7.395   7.010
32294SOL    HW198715   3.054   7.410   6.925
32294SOL    HW298716   2.924   7.365   6.988
32295SOL     OW98717   4.120  12.121   4.250
32295SOL    HW198718   4.200  12.071   4.235
32295SOL    HW298719   4.049  12.060   4.231
32296SOL     OW98720   3.489   1.246   2.396
32296SOL    HW198721   3.410   1.194   2.386
32296SOL    HW298722   3.559   1.191   2.361
32297SOL     OW98723  12.506  10.508   9.392
32297SOL    HW198724  12.486  10.587   9.342
32297SOL    HW298725  12.568  10.460   9.338
32298SOL     OW98726  14.051  10.075   5.895
32298SOL    HW198727  13.991  10.021   5.946
32298SOL    HW298728  13.995  10.124   5.835
32299SOL     OW98729   7.095   9.691   8.709
32299SOL    HW198730   7.049   9.770   8.681
32299SOL    HW298731   7.076   9.626   8.642
32300SOL     OW98732   6.671  13.698   6.447
32300SOL    HW198733   6.714  13.616   6.424
32300SOL    HW298734   6.583  13.672   6.475
32301SOL     OW98735  12.759   0.820   3.937
32301SOL    HW198736  12.834   0.784   3.891
32301SOL    HW298737  12.736   0.899   3.888
32302SOL     OW98738   4.161  14.852   8.627
32302SOL    HW198739   4.247   0.012   8.639
32302SOL    HW298740   4.111   0.003   8.703
32303SOL     OW98741   5.818   8.229   3.973
32303SOL    HW198742   5.807   8.280   4.053
32303SOL    HW298743   5.820   8.294   3.903
32304SOL     OW98744   4.707   0.785   7.756
32304SOL    HW198745   4.697   0.702   7.802
32304SOL    HW298746   4.622   0.800   7.715
32305SOL     OW98747   5.319   4.182   5.340
32305SOL    HW198748   5.405   4.185   5.383
32305SOL    HW298749   5.259   4.150   5.408
32306SOL     OW98750  10.161  11.779   4.580
32306SOL    HW198751  10.235  11.725   4.556
32306SOL    HW298752  10.189  11.869   4.561
32307SOL     OW98753  12.812   1.212   6.409
32307SOL    HW198754  12.767   1.253   6.335
32307SOL    HW298755  12.741   1.182   6.466
32308SOL     OW98756   4.130   9.230   9.279
32308SOL    HW198757   4.170   9.272   9.355
32308SOL    HW298758   4.098   9.146   9.312
32309SOL     OW98759   5.780  12.452   1.501
32309SOL    HW198760   5.864  12.498   1.499
32309SOL    HW298761   5.727  12.502   1.563
32310SOL     OW98762  13.015   4.476   0.394
32310SOL    HW198763  13.064   4.524   0.462
32310SOL    HW298764  12.928   4.515   0.395
32311SOL     OW98765  11.921   7.731   8.783
32311SOL    HW198766  11.987   7.681   8.831
32311SOL    HW298767  11.917   7.816   8.826
32312SOL     OW98768  12.322  11.214   9.180
32312SOL    HW198769  12.350  11.261   9.259
32312SOL    HW298770  12.308  11.282   9.114
32313SOL     OW98771   9.980  13.584  11.168
32313SOL    HW198772   9.898  13.535  11.175
32313SOL    HW298773  10.007  13.573  11.077
32314SOL     OW98774  11.055   9.593  13.449
32314SOL    HW198775  11.040   9.515  13.394
32314SOL    HW298776  11.025   9.567  13.536
32315SOL     OW98777  11.367   7.888   4.700
32315SOL    HW198778  11.320   7.833   4.638
32315SOL    HW298779  11.309   7.896   4.776
32316SOL     OW98780  14.861   8.003   7.351
32316SOL    HW198781  14.839   8.094   7.371
32316SOL    HW298782  14.794   7.951   7.394
32317SOL     OW98783  11.962   8.290   9.335
32317SOL    HW198784  11.999   8.377   9.355
32317SOL    HW298785  11.934   8.256   9.420
32318SOL     OW98786   6.206  11.658  11.467
32318SOL    HW198787   6.239  11.650  11.556
32318SOL    HW298788   6.212  11.752  11.447
32319SOL     OW98789   7.106  11.989   9.749
32319SOL    HW198790   7.175  12.015   9.687
32319SOL    HW298791   7.070  11.908   9.712
32320SOL     OW98792   1.389   2.660  14.755
32320SOL    HW198793   1.344   2.739  14.723
32320SOL    HW298794   1.479   2.688  14.769
32321SOL     OW98795   0.920  12.086  13.134
32321SOL    HW198796   0.853  12.060  13.071
32321SOL    HW298797   0.935  12.179  13.117
32322SOL     OW98798   3.142  11.676  12.305
32322SOL    HW198799   3.093  11.632  12.375
32322SOL    HW298800   3.133  11.769  12.323
32323SOL     OW98801  10.849  12.382   8.919
32323SOL    HW198802  10.767  12.431   8.907
32323SOL    HW298803  10.822  12.298   8.956
32324SOL     OW98804   3.081   8.821   4.501
32324SOL    HW198805   3.121   8.824   4.414
32324SOL    HW298806   2.991   8.793   4.485
32325SOL     OW98807   6.255  12.969   5.384
32325SOL    HW198808   6.344  12.969   5.417
32325SOL    HW298809   6.231  12.877   5.376
32326SOL     OW98810   4.486  11.239  10.625
32326SOL    HW198811   4.563  11.293  10.608
32326SOL    HW298812   4.490  11.169  10.560
32327SOL     OW98813  14.227   8.925   3.733
32327SOL    HW198814  14.185   8.940   3.648
32327SOL    HW298815  14.321   8.931   3.715
32328SOL     OW98816  14.418   4.259  14.485
32328SOL    HW198817  14.433   4.207  14.406
32328SOL    HW298818  14.329   4.292  14.476
32329SOL     OW98819  14.583  10.069   5.434
32329SOL    HW198820  14.593   9.984   5.477
32329SOL    HW298821  14.630  10.130   5.492
32330SOL     OW98822   5.433   3.162   6.595
32330SOL    HW198823   5.367   3.198   6.535
32330SOL    HW298824   5.467   3.239   6.642
32331SOL     OW98825  12.403   1.263  13.987
32331SOL    HW198826  12.339   1.192  13.989
32331SOL    HW298827  12.394   1.301  13.900
32332SOL     OW98828  13.014   6.624   9.333
32332SOL    HW198829  12.981   6.538   9.309
32332SOL    HW298830  12.939   6.683   9.322
32333SOL     OW98831   5.381   5.354   7.665
32333SOL    HW198832   5.291   5.324   7.657
32333SOL    HW298833   5.381   5.443   7.633
32334SOL     OW98834   1.009  10.808  11.176
32334SOL    HW198835   0.946  10.783  11.108
32334SOL    HW298836   1.031  10.726  11.220
32335SOL     OW98837  10.578  10.102   0.516
32335SOL    HW198838  10.486  10.112   0.493
32335SOL    HW298839  10.608  10.191   0.535
32336SOL     OW98840   9.025   7.389   3.966
32336SOL    HW198841   9.116   7.418   3.963
32336SOL    HW298842   8.978   7.464   4.002
32337SOL     OW98843   9.831   3.165   6.306
32337SOL    HW198844   9.834   3.076   6.270
32337SOL    HW298845   9.738   3.187   6.307
32338SOL     OW98846   9.318   5.543   8.944
32338SOL    HW198847   9.324   5.561   8.850
32338SOL    HW298848   9.224   5.540   8.962
32339SOL     OW98849  11.253   8.408   3.966
32339SOL    HW198850  11.229   8.348   3.895
32339SOL    HW298851  11.233   8.361   4.046
32340SOL     OW98852   7.470   7.906  13.463
32340SOL    HW198853   7.503   7.927  13.375
32340SOL    HW298854   7.546   7.874  13.510
32341SOL     OW98855   2.115   9.310  11.132
32341SOL    HW198856   2.040   9.288  11.187
32341SOL    HW298857   2.142   9.226  11.093
32342SOL     OW98858   8.777   1.347   5.793
32342SOL    HW198859   8.773   1.252   5.793
32342SOL    HW298860   8.865   1.369   5.823
32343SOL     OW98861   1.671   3.719   9.138
32343SOL    HW198862   1.628   3.715   9.223
32343SOL    HW298863   1.755   3.674   9.151
32344SOL     OW98864   3.985  14.658  11.805
32344SOL    HW198865   3.932  14.678  11.882
32344SOL    HW298866   4.003  14.743  11.765
32345SOL     OW98867   2.955   1.321   7.718
32345SOL    HW198868   2.913   1.366   7.645
32345SOL    HW298869   2.884   1.273   7.761
32346SOL     OW98870   0.607   2.357   0.781
32346SOL    HW198871   0.642   2.385   0.696
32346SOL    HW298872   0.539   2.422   0.801
32347SOL     OW98873   7.713  14.066   8.648
32347SOL    HW198874   7.664  14.012   8.710
32347SOL    HW298875   7.648  14.127   8.614
32348SOL     OW98876   2.346   5.387   0.431
32348SOL    HW198877   2.439   5.405   0.449
32348SOL    HW298878   2.342   5.291   0.425
32349SOL     OW98879   4.773   9.308   8.934
32349SOL    HW198880   4.790   9.214   8.930
32349SOL    HW298881   4.858   9.348   8.916
32350SOL     OW98882   0.766   6.602  11.209
32350SOL    HW198883   0.723   6.674  11.254
32350SOL    HW298884   0.841   6.579  11.263
32351SOL     OW98885  10.043  10.071   2.622
32351SOL    HW198886  10.098  10.145   2.594
32351SOL    HW298887  10.093  10.029   2.692
32352SOL     OW98888  13.892   7.823   3.887
32352SOL    HW198889  13.963   7.780   3.840
32352SOL    HW298890  13.815   7.808   3.831
32353SOL     OW98891   1.243  14.444   6.233
32353SOL    HW198892   1.211  14.359   6.264
32353SOL    HW298893   1.222  14.445   6.140
32354SOL     OW98894  12.621  11.854  14.072
32354SOL    HW198895  12.713  11.868  14.093
32354SOL    HW298896  12.622  11.789  14.002
32355SOL     OW98897   0.554   0.277  11.681
32355SOL    HW198898   0.553   0.255  11.588
32355SOL    HW298899   0.647   0.287  11.702
32356SOL     OW98900   7.765   4.268   6.800
32356SOL    HW198901   7.714   4.348   6.807
32356SOL    HW298902   7.704   4.199   6.828
32357SOL     OW98903  11.555   8.980   1.350
32357SOL    HW198904  11.601   9.002   1.269
32357SOL    HW298905  11.545   8.884   1.346
32358SOL     OW98906  11.072   2.366  14.822
32358SOL    HW198907  11.031   2.447  14.852
32358SOL    HW298908  11.118   2.390  14.741
32359SOL     OW98909  13.346   7.952   4.194
32359SOL    HW198910  13.303   7.941   4.279
32359SOL    HW298911  13.434   7.918   4.208
32360SOL     OW98912  10.358  13.920  14.268
32360SOL    HW198913  10.340  13.942  14.176
32360SOL    HW298914  10.345  13.825  14.271
32361SOL     OW98915   9.220   8.111   3.933
32361SOL    HW198916   9.139   8.144   3.971
32361SOL    HW298917   9.192   8.055   3.861
32362SOL     OW98918   2.662   5.440   7.147
32362SOL    HW198919   2.637   5.528   7.120
32362SOL    HW298920   2.644   5.385   7.070
32363SOL     OW98921   3.599   8.831   9.298
32363SOL    HW198922   3.630   8.741   9.289
32363SOL    HW298923   3.559   8.834   9.385
32364SOL     OW98924   8.652  13.270  13.454
32364SOL    HW198925   8.693  13.187  13.481
32364SOL    HW298926   8.634  13.258  13.360
32365SOL     OW98927  11.046   1.340   4.645
32365SOL    HW198928  11.005   1.254   4.658
32365SOL    HW298929  10.975   1.396   4.615
32366SOL     OW98930   3.035   3.068  12.610
32366SOL    HW198931   3.001   3.154  12.636
32366SOL    HW298932   3.052   3.077  12.516
32367SOL     OW98933   1.848   7.731   3.654
32367SOL    HW198934   1.782   7.801   3.656
32367SOL    HW298935   1.930   7.776   3.634
32368SOL     OW98936   5.698   8.131   2.208
32368SOL    HW198937   5.612   8.166   2.184
32368SOL    HW298938   5.746   8.207   2.242
32369SOL     OW98939   6.260   3.076  11.363
32369SOL    HW198940   6.169   3.094  11.337
32369SOL    HW298941   6.264   2.981  11.370
32370SOL     OW98942   7.220  14.757  11.774
32370SOL    HW198943   7.304  14.801  11.763
32370SOL    HW298944   7.169  14.781  11.697
32371SOL     OW98945   8.209   3.425  13.062
32371SOL    HW198946   8.216   3.409  12.968
32371SOL    HW298947   8.268   3.498  13.079
32372SOL     OW98948   3.118  13.242   8.651
32372SOL    HW198949   3.131  13.237   8.556
32372SOL    HW298950   3.031  13.204   8.665
32373SOL     OW98951  13.754   9.610   8.195
32373SOL    HW198952  13.816   9.553   8.241
32373SOL    HW298953  13.687   9.630   8.260
32374SOL     OW98954  11.874   7.206   8.290
32374SOL    HW198955  11.828   7.279   8.332
32374SOL    HW298956  11.910   7.155   8.364
32375SOL     OW98957  14.211   4.091   3.926
32375SOL    HW198958  14.224   4.089   3.831
32375SOL    HW298959  14.251   4.010   3.957
32376SOL     OW98960  10.872   1.955   6.060
32376SOL    HW198961  10.956   1.998   6.075
32376SOL    HW298962  10.889   1.863   6.075
32377SOL     OW98963   5.448   4.239  10.138
32377SOL    HW198964   5.543   4.234  10.150
32377SOL    HW298965   5.417   4.150  10.154
32378SOL     OW98966   7.135   1.102   4.008
32378SOL    HW198967   7.223   1.123   3.975
32378SOL    HW298968   7.151   1.064   4.095
32379SOL     OW98969  12.555   4.081   2.661
32379SOL    HW198970  12.552   3.994   2.700
32379SOL    HW298971  12.509   4.072   2.578
32380SOL     OW98972   3.328   6.875  11.251
32380SOL    HW198973   3.292   6.791  11.280
32380SOL    HW298974   3.422   6.865  11.259
32381SOL     OW98975   8.617  10.478  11.339
32381SOL    HW198976   8.580  10.561  11.310
32381SOL    HW298977   8.692  10.463  11.282
32382SOL     OW98978   5.701   8.186  13.341
32382SOL    HW198979   5.701   8.164  13.434
32382SOL    HW298980   5.732   8.106  13.298
32383SOL     OW98981   4.586   3.227   0.625
32383SOL    HW198982   4.589   3.323   0.619
32383SOL    HW298983   4.651   3.196   0.562
32384SOL     OW98984  11.554   0.366   0.512
32384SOL    HW198985  11.562   0.361   0.608
32384SOL    HW298986  11.615   0.436   0.488
32385SOL     OW98987   9.671  14.790  11.171
32385SOL    HW198988   9.605  14.798  11.240
32385SOL    HW298989   9.619  14.775  11.091
32386SOL     OW98990   6.895   0.161   6.693
32386SOL    HW198991   6.930   0.074   6.673
32386SOL    HW298992   6.867   0.195   6.608
32387SOL     OW98993  12.376   0.190   4.535
32387SOL    HW198994  12.443   0.143   4.486
32387SOL    HW298995  12.297   0.180   4.483
32388SOL     OW98996   4.321   0.371   1.425
32388SOL    HW198997   4.389   0.437   1.411
32388SOL    HW298998   4.343   0.331   1.509
32389SOL     OW98999   3.161   4.844   5.843
32389SOL    HW199000   3.103   4.847   5.767
32389SOL    HW299001   3.128   4.772   5.897
32390SOL     OW99002   6.777   9.881  12.373
32390SOL    HW199003   6.803   9.897  12.283
32390SOL    HW299004   6.850   9.832  12.411
32391SOL     OW99005   1.683  11.824   1.888
32391SOL    HW199006   1.588  11.811   1.878
32391SOL    HW299007   1.696  11.916   1.866
32392SOL     OW99008   2.851   8.969   2.253
32392SOL    HW199009   2.835   9.005   2.340
32392SOL    HW299010   2.786   9.012   2.197
32393SOL     OW99011   2.770   2.248  13.268
32393SOL    HW199012   2.809   2.163  13.288
32393SOL    HW299013   2.680   2.228  13.245
32394SOL     OW99014  14.823   9.744  14.744
32394SOL    HW199015   0.002   9.784  14.809
32394SOL    HW299016  14.811   9.813  14.678
32395SOL     OW99017   4.193  13.607  11.945
32395SOL    HW199018   4.252  13.621  12.019
32395SOL    HW299019   4.115  13.659  11.966
32396SOL     OW99020   6.443  11.026  14.620
32396SOL    HW199021   6.505  11.061  14.556
32396SOL    HW299022   6.481  10.943  14.647
32397SOL     OW99023   2.906  10.139   4.878
32397SOL    HW199024   2.994  10.144   4.914
32397SOL    HW299025   2.911  10.185   4.794
32398SOL     OW99026  10.515   7.377   6.073
32398SOL    HW199027  10.426   7.381   6.109
32398SOL    HW299028  10.506   7.332   5.990
32399SOL     OW99029  13.575  12.029   9.884
32399SOL    HW199030  13.656  12.055   9.928
32399SOL    HW299031  13.511  12.025   9.955
32400SOL     OW99032   5.246  12.624  11.202
32400SOL    HW199033   5.280  12.632  11.113
32400SOL    HW299034   5.175  12.689  11.207
32401SOL     OW99035   8.175   3.667  13.359
32401SOL    HW199036   8.236   3.617  13.304
32401SOL    HW299037   8.198   3.643  13.449
32402SOL     OW99038   1.518   4.469   4.939
32402SOL    HW199039   1.598   4.488   4.891
32402SOL    HW299040   1.450   4.521   4.895
32403SOL     OW99041  11.361  10.311  11.496
32403SOL    HW199042  11.395  10.249  11.560
32403SOL    HW299043  11.275  10.336  11.530
32404SOL     OW99044  12.717   0.731   8.114
32404SOL    HW199045  12.664   0.755   8.038
32404SOL    HW299046  12.798   0.697   8.077
32405SOL     OW99047   3.293   3.619  11.052
32405SOL    HW199048   3.375   3.571  11.050
32405SOL    HW299049   3.268   3.620  11.145
32406SOL     OW99050   8.870   6.520   7.113
32406SOL    HW199051   8.965   6.511   7.126
32406SOL    HW299052   8.845   6.443   7.063
32407SOL     OW99053   6.491   2.306   7.056
32407SOL    HW199054   6.537   2.349   6.985
32407SOL    HW299055   6.548   2.233   7.081
32408SOL     OW99056  11.211   0.544  14.008
32408SOL    HW199057  11.280   0.529  13.943
32408SOL    HW299058  11.165   0.460  14.013
32409SOL     OW99059   6.910   0.878  10.593
32409SOL    HW199060   6.841   0.902  10.656
32409SOL    HW299061   6.914   0.783  10.596
32410SOL     OW99062   8.391   7.814   2.132
32410SOL    HW199063   8.356   7.888   2.083
32410SOL    HW299064   8.367   7.832   2.223
32411SOL     OW99065   5.217  14.354   3.669
32411SOL    HW199066   5.208  14.278   3.726
32411SOL    HW299067   5.201  14.320   3.581
32412SOL     OW99068   9.336  14.550  13.563
32412SOL    HW199069   9.403  14.594  13.511
32412SOL    HW299070   9.295  14.621  13.613
32413SOL     OW99071  10.801   1.018   9.400
32413SOL    HW199072  10.726   1.044   9.346
32413SOL    HW299073  10.859   1.094   9.397
32414SOL     OW99074   0.555   7.744   9.235
32414SOL    HW199075   0.500   7.765   9.311
32414SOL    HW299076   0.496   7.749   9.160
32415SOL     OW99077   0.595   5.090   5.094
32415SOL    HW199078   0.653   5.027   5.137
32415SOL    HW299079   0.508   5.065   5.123
32416SOL     OW99080   9.505  12.684  12.375
32416SOL    HW199081   9.584  12.738  12.384
32416SOL    HW299082   9.476  12.700  12.285
32417SOL     OW99083   7.822  11.472   7.393
32417SOL    HW199084   7.836  11.486   7.487
32417SOL    HW299085   7.728  11.483   7.380
32418SOL     OW99086   5.175   9.668  11.833
32418SOL    HW199087   5.227   9.624  11.766
32418SOL    HW299088   5.101   9.706  11.785
32419SOL     OW99089   9.698  14.577   5.073
32419SOL    HW199090   9.674  14.506   5.014
32419SOL    HW299091   9.615  14.622   5.091
32420SOL     OW99092   1.747   8.067   7.501
32420SOL    HW199093   1.658   8.078   7.467
32420SOL    HW299094   1.802   8.110   7.436
32421SOL     OW99095   1.807  13.288  13.395
32421SOL    HW199096   1.860  13.338  13.457
32421SOL    HW299097   1.764  13.221  13.448
32422SOL     OW99098   9.675   2.681   1.897
32422SOL    HW199099   9.744   2.616   1.902
32422SOL    HW299100   9.694   2.731   1.817
32423SOL     OW99101   3.458   8.695   2.574
32423SOL    HW199102   3.437   8.601   2.574
32423SOL    HW299103   3.433   8.725   2.661
32424SOL     OW99104   9.389   7.041  12.506
32424SOL    HW199105   9.449   6.974  12.537
32424SOL    HW299106   9.438   7.123  12.514
32425SOL     OW99107  12.765   1.055   7.102
32425SOL    HW199108  12.749   0.969   7.064
32425SOL    HW299109  12.710   1.057   7.181
32426SOL     OW99110  10.223   2.719   0.668
32426SOL    HW199111  10.159   2.697   0.600
32426SOL    HW299112  10.264   2.800   0.637
32427SOL     OW99113   1.633   8.358   3.076
32427SOL    HW199114   1.684   8.333   3.000
32427SOL    HW299115   1.653   8.450   3.091
32428SOL     OW99116   5.526  13.628  11.935
32428SOL    HW199117   5.579  13.687  11.989
32428SOL    HW299118   5.561  13.541  11.955
32429SOL     OW99119   7.846  14.813   3.623
32429SOL    HW199120   7.808  14.726   3.636
32429SOL    HW299121   7.787  14.872   3.669
32430SOL     OW99122   6.087   4.106   0.261
32430SOL    HW199123   6.092   4.034   0.323
32430SOL    HW299124   6.025   4.167   0.300
32431SOL     OW99125   0.381   5.089   5.736
32431SOL    HW199126   0.384   5.122   5.826
32431SOL    HW299127   0.291   5.106   5.708
32432SOL     OW99128   2.984   5.396   3.378
32432SOL    HW199129   3.069   5.422   3.343
32432SOL    HW299130   3.003   5.356   3.463
32433SOL     OW99131   4.340  14.573   5.438
32433SOL    HW199132   4.375  14.581   5.349
32433SOL    HW299133   4.306  14.483   5.442
32434SOL     OW99134   4.645   3.009   4.851
32434SOL    HW199135   4.716   3.073   4.852
32434SOL    HW299136   4.577   3.048   4.796
32435SOL     OW99137   7.851  11.317   7.004
32435SOL    HW199138   7.919  11.361   7.055
32435SOL    HW299139   7.841  11.369   6.925
32436SOL     OW99140   8.666   1.932  13.201
32436SOL    HW199141   8.682   1.838  13.202
32436SOL    HW299142   8.575   1.941  13.231
32437SOL     OW99143   7.117   9.146  13.201
32437SOL    HW199144   7.197   9.158  13.149
32437SOL    HW299145   7.099   9.052  13.197
32438SOL     OW99146   5.966  14.757   7.063
32438SOL    HW199147   5.962  14.739   7.157
32438SOL    HW299148   5.918  14.839   7.052
32439SOL     OW99149   2.407  14.444   2.455
32439SOL    HW199150   2.392  14.539   2.455
32439SOL    HW299151   2.393  14.417   2.545
32440SOL     OW99152   6.968  10.772  14.528
32440SOL    HW199153   7.058  10.803  14.537
32440SOL    HW299154   6.952  10.771  14.434
32441SOL     OW99155   5.603   7.528   3.482
32441SOL    HW199156   5.516   7.503   3.452
32441SOL    HW299157   5.625   7.606   3.430
32442SOL     OW99158   1.002   1.079   0.064
32442SOL    HW199159   1.009   1.056  14.850
32442SOL    HW299160   1.010   0.995   0.110
32443SOL     OW99161   5.823   4.220  12.630
32443SOL    HW199162   5.766   4.146  12.609
32443SOL    HW299163   5.801   4.287  12.565
32444SOL     OW99164   5.270   2.180  11.894
32444SOL    HW199165   5.329   2.216  11.827
32444SOL    HW299166   5.284   2.236  11.970
32445SOL     OW99167   2.584  14.452   3.864
32445SOL    HW199168   2.525  14.513   3.908
32445SOL    HW299169   2.529  14.406   3.801
32446SOL     OW99170   7.875   7.603   4.760
32446SOL    HW199171   7.840   7.687   4.731
32446SOL    HW299172   7.884   7.552   4.680
32447SOL     OW99173   4.530   3.239   0.046
32447SOL    HW199174   4.549   3.259  14.834
32447SOL    HW299175   4.580   3.160   0.064
32448SOL     OW99176   2.272   7.418   9.139
32448SOL    HW199177   2.197   7.467   9.104
32448SOL    HW299178   2.237   7.371   9.215
32449SOL     OW99179   1.352  14.651  11.748
32449SOL    HW199180   1.318  14.591  11.681
32449SOL    HW299181   1.401  14.717  11.698
32450SOL     OW99182  12.238  11.396   9.915
32450SOL    HW199183  12.230  11.310   9.872
32450SOL    HW299184  12.322  11.431   9.884
32451SOL     OW99185  13.706   6.732   2.643
32451SOL    HW199186  13.623   6.706   2.601
32451SOL    HW299187  13.703   6.691   2.729
32452SOL     OW99188   2.258  12.853  11.178
32452SOL    HW199189   2.249  12.942  11.145
32452SOL    HW299190   2.190  12.803  11.134
32453SOL     OW99191   9.967   6.426  13.818
32453SOL    HW199192  10.056   6.438  13.851
32453SOL    HW299193   9.913   6.480  13.877
32454SOL     OW99194   9.508   0.422  10.800
32454SOL    HW199195   9.487   0.475  10.876
32454SOL    HW299196   9.504   0.483  10.726
32455SOL     OW99197   4.215  12.379   3.993
32455SOL    HW199198   4.165  12.299   3.979
32455SOL    HW299199   4.249  12.402   3.907
32456SOL     OW99200   1.610   4.452   8.662
32456SOL    HW199201   1.515   4.460   8.652
32456SOL    HW299202   1.627   4.358   8.652
32457SOL     OW99203  13.551   3.978  13.739
32457SOL    HW199204  13.569   3.890  13.708
32457SOL    HW299205  13.616   4.033  13.694
32458SOL     OW99206   7.885  11.067   1.447
32458SOL    HW199207   7.860  11.055   1.356
32458SOL    HW299208   7.805  11.098   1.490
32459SOL     OW99209  10.580   4.745  10.455
32459SOL    HW199210  10.577   4.833  10.419
32459SOL    HW299211  10.672   4.719  10.449
32460SOL     OW99212  10.146   3.051  12.842
32460SOL    HW199213  10.212   3.010  12.898
32460SOL    HW299214  10.091   2.979  12.812
32461SOL     OW99215  14.775   0.653  13.593
32461SOL    HW199216  14.761   0.747  13.609
32461SOL    HW299217  14.728   0.609  13.664
32462SOL     OW99218   4.487   5.097  12.763
32462SOL    HW199219   4.415   5.105  12.700
32462SOL    HW299220   4.444   5.103  12.849
32463SOL     OW99221  11.946   1.822  12.954
32463SOL    HW199222  11.954   1.727  12.944
32463SOL    HW299223  11.867   1.845  12.906
32464SOL     OW99224  14.724   9.844   7.110
32464SOL    HW199225  14.662   9.800   7.052
32464SOL    HW299226  14.704   9.810   7.197
32465SOL     OW99227   6.665   1.903  13.390
32465SOL    HW199228   6.745   1.898  13.443
32465SOL    HW299229   6.695   1.935  13.305
32466SOL     OW99230   5.401  10.866  11.428
32466SOL    HW199231   5.469  10.824  11.480
32466SOL    HW299232   5.322  10.861  11.483
32467SOL     OW99233  13.602   8.035   3.317
32467SOL    HW199234  13.545   8.002   3.387
32467SOL    HW299235  13.651   8.106   3.358
32468SOL     OW99236   7.393   1.282  14.694
32468SOL    HW199237   7.392   1.377  14.697
32468SOL    HW299238   7.355   1.255  14.778
32469SOL     OW99239  11.304   7.446   5.368
32469SOL    HW199240  11.303   7.541   5.359
32469SOL    HW299241  11.247   7.414   5.299
32470SOL     OW99242  14.072   8.472  12.357
32470SOL    HW199243  14.009   8.502  12.423
32470SOL    HW299244  14.077   8.377  12.371
32471SOL     OW99245   0.030  10.601  13.924
32471SOL    HW199246   0.083  10.681  13.924
32471SOL    HW299247   0.068  10.548  13.853
32472SOL     OW99248   5.827  12.077  12.636
32472SOL    HW199249   5.779  12.154  12.666
32472SOL    HW299250   5.759  12.016  12.605
32473SOL     OW99251   7.942  12.239  10.158
32473SOL    HW199252   7.945  12.274  10.069
32473SOL    HW299253   7.910  12.312  10.211
32474SOL     OW99254   7.172  13.761   4.356
32474SOL    HW199255   7.079  13.744   4.344
32474SOL    HW299256   7.176  13.831   4.421
32475SOL     OW99257   0.401   2.462   7.260
32475SOL    HW199258   0.376   2.388   7.204
32475SOL    HW299259   0.484   2.435   7.300
32476SOL     OW99260   5.268  14.453   6.840
32476SOL    HW199261   5.183  14.472   6.801
32476SOL    HW299262   5.330  14.504   6.788
32477SOL     OW99263  13.851  12.260   5.631
32477SOL    HW199264  13.911  12.303   5.691
32477SOL    HW299265  13.803  12.197   5.685
32478SOL     OW99266   5.325  11.132   6.549
32478SOL    HW199267   5.403  11.175   6.514
32478SOL    HW299268   5.283  11.092   6.472
32479SOL     OW99269   3.462   8.576   3.301
32479SOL    HW199270   3.449   8.659   3.347
32479SOL    HW299271   3.470   8.511   3.372
32480SOL     OW99272  12.317   0.502   1.397
32480SOL    HW199273  12.343   0.413   1.372
32480SOL    HW299274  12.224   0.507   1.374
32481SOL     OW99275  12.967   9.395   8.454
32481SOL    HW199276  12.952   9.387   8.360
32481SOL    HW299277  12.879   9.392   8.492
32482SOL     OW99278   8.030   7.073   7.544
32482SOL    HW199279   8.014   7.167   7.543
32482SOL    HW299280   8.092   7.058   7.472
32483SOL     OW99281  10.920   1.482  10.111
32483SOL    HW199282  10.975   1.425  10.057
32483SOL    HW299283  10.979   1.517  10.177
32484SOL     OW99284  10.161   9.832   9.459
32484SOL    HW199285  10.233   9.818   9.520
32484SOL    HW299286  10.177   9.771   9.387
32485SOL     OW99287   7.620   6.842   9.281
32485SOL    HW199288   7.566   6.910   9.322
32485SOL    HW299289   7.568   6.762   9.288
32486SOL     OW99290   1.507   4.561   1.715
32486SOL    HW199291   1.542   4.526   1.634
32486SOL    HW299292   1.477   4.485   1.764
32487SOL     OW99293   1.556   4.341   9.661
32487SOL    HW199294   1.469   4.305   9.677
32487SOL    HW299295   1.545   4.396   9.583
32488SOL     OW99296  10.736   4.280   9.404
32488SOL    HW199297  10.721   4.373   9.385
32488SOL    HW299298  10.808   4.280   9.466
32489SOL     OW99299   0.158   8.160   9.238
32489SOL    HW199300   0.157   8.106   9.160
32489SOL    HW299301   0.248   8.156   9.270
32490SOL     OW99302   0.929   2.259  12.006
32490SOL    HW199303   0.982   2.238  11.929
32490SOL    HW299304   0.875   2.333  11.977
32491SOL     OW99305  10.777   9.675   6.880
32491SOL    HW199306  10.824   9.618   6.819
32491SOL    HW299307  10.788   9.634   6.966
32492SOL     OW99308   8.651   1.992   2.898
32492SOL    HW199309   8.634   1.903   2.865
32492SOL    HW299310   8.661   1.980   2.992
32493SOL     OW99311  10.930  11.028   8.163
32493SOL    HW199312  10.874  11.022   8.240
32493SOL    HW299313  11.018  11.042   8.198
32494SOL     OW99314   5.274   8.264   5.739
32494SOL    HW199315   5.229   8.306   5.666
32494SOL    HW299316   5.301   8.336   5.796
32495SOL     OW99317  14.358  12.736   6.274
32495SOL    HW199318  14.427  12.751   6.211
32495SOL    HW299319  14.400  12.689   6.346
32496SOL     OW99320   8.607   5.960   5.846
32496SOL    HW199321   8.648   5.880   5.815
32496SOL    HW299322   8.518   5.956   5.811
32497SOL     OW99323   9.057   2.391   7.440
32497SOL    HW199324   9.026   2.320   7.385
32497SOL    HW299325   9.032   2.471   7.394
32498SOL     OW99326   5.858   1.136  10.089
32498SOL    HW199327   5.939   1.187  10.088
32498SOL    HW299328   5.808   1.168  10.015
32499SOL     OW99329  14.194   3.346   9.804
32499SOL    HW199330  14.144   3.297   9.869
32499SOL    HW299331  14.146   3.428   9.794
32500SOL     OW99332  10.044   8.684  12.950
32500SOL    HW199333   9.955   8.710  12.972
32500SOL    HW299334  10.060   8.723  12.864
32501SOL     OW99335   2.208  13.863   4.041
32501SOL    HW199336   2.120  13.873   4.005
32501SOL    HW299337   2.203  13.905   4.127
32502SOL     OW99338  13.195   5.239   7.491
32502SOL    HW199339  13.202   5.309   7.426
32502SOL    HW299340  13.114   5.258   7.538
32503SOL     OW99341   4.052   1.678  14.074
32503SOL    HW199342   4.057   1.772  14.058
32503SOL    HW299343   3.993   1.669  14.149
32504SOL     OW99344   0.755   0.543   0.993
32504SOL    HW199345   0.764   0.471   1.056
32504SOL    HW299346   0.682   0.516   0.937
32505SOL     OW99347   1.222  12.166   4.523
32505SOL    HW199348   1.254  12.235   4.465
32505SOL    HW299349   1.176  12.212   4.593
32506SOL     OW99350  10.889   6.687   0.937
32506SOL    HW199351  10.798   6.717   0.933
32506SOL    HW299352  10.890   6.607   0.884
32507SOL     OW99353   5.569   1.322   0.187
32507SOL    HW199354   5.564   1.329   0.282
32507SOL    HW299355   5.483   1.350   0.156
32508SOL     OW99356  12.234   4.029   0.374
32508SOL    HW199357  12.179   3.959   0.409
32508SOL    HW299358  12.255   4.083   0.450
32509SOL     OW99359   4.339   1.562  10.672
32509SOL    HW199360   4.342   1.536  10.765
32509SOL    HW299361   4.414   1.517  10.632
32510SOL     OW99362  13.913   3.879  12.701
32510SOL    HW199363  13.854   3.886  12.776
32510SOL    HW299364  13.997   3.854  12.738
32511SOL     OW99365  13.143   9.485   4.979
32511SOL    HW199366  13.236   9.503   4.995
32511SOL    HW299367  13.099   9.516   5.058
32512SOL     OW99368   6.456   6.260   6.954
32512SOL    HW199369   6.412   6.344   6.965
32512SOL    HW299370   6.412   6.201   7.016
32513SOL     OW99371  11.198   9.746   1.527
32513SOL    HW199372  11.190   9.675   1.463
32513SOL    HW299373  11.108   9.768   1.550
32514SOL     OW99374  14.483   2.572  12.512
32514SOL    HW199375  14.472   2.502  12.576
32514SOL    HW299376  14.564   2.615  12.538
32515SOL     OW99377   0.505   8.825   7.107
32515SOL    HW199378   0.546   8.785   7.184
32515SOL    HW299379   0.565   8.895   7.082
32516SOL     OW99380  13.470  13.839   0.588
32516SOL    HW199381  13.506  13.799   0.509
32516SOL    HW299382  13.508  13.927   0.590
32517SOL     OW99383   0.446  12.727   7.467
32517SOL    HW199384   0.508  12.674   7.417
32517SOL    HW299385   0.458  12.700   7.558
32518SOL     OW99386  10.722   5.429  12.858
32518SOL    HW199387  10.741   5.509  12.908
32518SOL    HW299388  10.751   5.358  12.915
32519SOL     OW99389   9.028   4.191   2.803
32519SOL    HW199390   9.080   4.267   2.831
32519SOL    HW299391   9.090   4.118   2.807
32520SOL     OW99392   3.979   0.834   1.951
32520SOL    HW199393   3.953   0.742   1.941
32520SOL    HW299394   4.020   0.838   2.037
32521SOL     OW99395   7.255  13.797   6.690
32521SOL    HW199396   7.224  13.813   6.779
32521SOL    HW299397   7.299  13.712   6.695
32522SOL     OW99398  13.968  12.362  10.270
32522SOL    HW199399  13.880  12.377  10.236
32522SOL    HW299400  14.024  12.368  10.192
32523SOL     OW99401   1.764   9.738  10.251
32523SOL    HW199402   1.701   9.667  10.261
32523SOL    HW299403   1.715   9.818  10.271
32524SOL     OW99404   4.147   5.996   7.561
32524SOL    HW199405   4.087   6.045   7.618
32524SOL    HW299406   4.222   5.976   7.616
32525SOL     OW99407   6.132   8.033   6.190
32525SOL    HW199408   6.075   7.979   6.245
32525SOL    HW299409   6.105   8.013   6.101
32526SOL     OW99410   4.806   1.491  13.127
32526SOL    HW199411   4.764   1.575  13.145
32526SOL    HW299412   4.894   1.501  13.161
32527SOL     OW99413   4.475  10.713  11.126
32527SOL    HW199414   4.427  10.791  11.153
32527SOL    HW299415   4.473  10.715  11.031
32528SOL     OW99416  11.631   7.487   5.726
32528SOL    HW199417  11.665   7.557   5.782
32528SOL    HW299418  11.550   7.460   5.769
32529SOL     OW99419   9.449  11.156  10.192
32529SOL    HW199420   9.544  11.166  10.181
32529SOL    HW299421   9.413  11.182  10.107
32530SOL     OW99422  11.424  11.185   6.007
32530SOL    HW199423  11.335  11.215   6.026
32530SOL    HW299424  11.459  11.249   5.945
32531SOL     OW99425   7.162   7.311  11.555
32531SOL    HW199426   7.209   7.385  11.517
32531SOL    HW299427   7.219   7.236  11.539
32532SOL     OW99428  11.021  11.164  10.747
32532SOL    HW199429  11.032  11.242  10.801
32532SOL    HW299430  11.002  11.199  10.659
32533SOL     OW99431   2.139  14.702   1.340
32533SOL    HW199432   2.167  14.771   1.280
32533SOL    HW299433   2.053  14.730   1.371
32534SOL     OW99434  13.629   0.154  10.864
32534SOL    HW199435  13.611   0.086  10.799
32534SOL    HW299436  13.715   0.188  10.840
32535SOL     OW99437   0.440   1.360   0.610
32535SOL    HW199438   0.442   1.401   0.524
32535SOL    HW299439   0.529   1.328   0.625
32536SOL     OW99440   5.732  13.037  12.974
32536SOL    HW199441   5.748  12.975  13.045
32536SOL    HW299442   5.773  12.996  12.897
32537SOL     OW99443   9.019   1.586   7.112
32537SOL    HW199444   9.090   1.621   7.058
32537SOL    HW299445   9.061   1.523   7.169
32538SOL     OW99446   1.164  11.646  13.730
32538SOL    HW199447   1.115  11.707  13.785
32538SOL    HW299448   1.139  11.669  13.640
32539SOL     OW99449   7.355   2.132  14.237
32539SOL    HW199450   7.440   2.135  14.193
32539SOL    HW299451   7.292   2.158  14.170
32540SOL     OW99452   2.068  10.207   2.976
32540SOL    HW199453   2.050  10.283   2.920
32540SOL    HW299454   1.989  10.154   2.971
32541SOL     OW99455  13.209   5.545  12.906
32541SOL    HW199456  13.220   5.475  12.842
32541SOL    HW299457  13.249   5.511  12.986
32542SOL     OW99458   1.638  13.789   1.076
32542SOL    HW199459   1.712  13.806   1.134
32542SOL    HW299460   1.638  13.695   1.063
32543SOL     OW99461   7.170   0.593   3.446
32543SOL    HW199462   7.252   0.576   3.491
32543SOL    HW299463   7.178   0.546   3.363
32544SOL     OW99464  12.490   6.814   1.822
32544SOL    HW199465  12.508   6.908   1.816
32544SOL    HW299466  12.425   6.798   1.753
32545SOL     OW99467   5.924   8.838   6.669
32545SOL    HW199468   5.916   8.765   6.607
32545SOL    HW299469   5.991   8.894   6.630
32546SOL     OW99470   5.925  12.469   4.886
32546SOL    HW199471   5.901  12.383   4.921
32546SOL    HW299472   5.847  12.499   4.840
32547SOL     OW99473   4.429  10.432   2.229
32547SOL    HW199474   4.492  10.362   2.246
32547SOL    HW299475   4.420  10.477   2.314
32548SOL     OW99476   4.141   3.927  12.748
32548SOL    HW199477   4.069   3.877  12.787
32548SOL    HW299478   4.097   4.002  12.706
32549SOL     OW99479   0.102   5.291   2.253
32549SOL    HW199480   0.101   5.383   2.282
32549SOL    HW299481   0.011   5.263   2.261
32550SOL     OW99482   1.500  12.263  11.520
32550SOL    HW199483   1.586  12.275  11.482
32550SOL    HW299484   1.447  12.225  11.450
32551SOL     OW99485   6.513  13.257   8.132
32551SOL    HW199486   6.470  13.308   8.064
32551SOL    HW299487   6.448  13.191   8.156
32552SOL     OW99488   3.424   5.897   6.219
32552SOL    HW199489   3.473   5.941   6.149
32552SOL    HW299490   3.489   5.881   6.288
32553SOL     OW99491   9.972   5.259   8.140
32553SOL    HW199492   9.889   5.214   8.124
32553SOL    HW299493  10.037   5.205   8.096
32554SOL     OW99494   0.734   2.037   6.834
32554SOL    HW199495   0.744   2.072   6.746
32554SOL    HW299496   0.726   2.114   6.890
32555SOL     OW99497   4.088  10.016   4.290
32555SOL    HW199498   4.112   9.968   4.369
32555SOL    HW299499   4.171  10.053   4.259
32556SOL     OW99500   0.796  10.164   3.572
32556SOL    HW199501   0.718  10.129   3.529
32556SOL    HW299502   0.868  10.136   3.517
32557SOL     OW99503  10.892   6.856   7.911
32557SOL    HW199504  10.841   6.921   7.960
32557SOL    HW299505  10.953   6.820   7.975
32558SOL     OW99506   8.523   6.942   1.761
32558SOL    HW199507   8.485   6.860   1.729
32558SOL    HW299508   8.448   6.999   1.778
32559SOL     OW99509   8.242   4.179   2.268
32559SOL    HW199510   8.330   4.158   2.299
32559SOL    HW299511   8.232   4.272   2.288
32560SOL     OW99512   2.100   9.032  13.895
32560SOL    HW199513   2.170   8.969  13.914
32560SOL    HW299514   2.074   9.066  13.980
32561SOL     OW99515   3.621   9.667   6.569
32561SOL    HW199516   3.532   9.697   6.586
32561SOL    HW299517   3.629   9.587   6.621
32562SOL     OW99518  12.673   0.149   5.575
32562SOL    HW199519  12.656   0.063   5.615
32562SOL    HW299520  12.710   0.128   5.490
32563SOL     OW99521   7.872  10.669   7.840
32563SOL    HW199522   7.876  10.619   7.921
32563SOL    HW299523   7.874  10.603   7.771
32564SOL     OW99524   8.284  12.406  14.772
32564SOL    HW199525   8.243  12.321  14.785
32564SOL    HW299526   8.336  12.420  14.851
32565SOL     OW99527   7.291   4.454   3.245
32565SOL    HW199528   7.225   4.471   3.312
32565SOL    HW299529   7.344   4.383   3.281
32566SOL     OW99530   3.752   4.414   1.940
32566SOL    HW199531   3.675   4.423   1.996
32566SOL    HW299532   3.818   4.375   1.998
32567SOL     OW99533   2.444   7.283  11.956
32567SOL    HW199534   2.438   7.262  12.049
32567SOL    HW299535   2.522   7.236  11.925
32568SOL     OW99536   4.028  14.274   7.794
32568SOL    HW199537   3.964  14.298   7.727
32568SOL    HW299538   4.050  14.183   7.774
32569SOL     OW99539   0.870   6.080   6.907
32569SOL    HW199540   0.792   6.123   6.940
32569SOL    HW299541   0.837   6.012   6.849
32570SOL     OW99542  14.095  13.451   5.904
32570SOL    HW199543  14.161  13.500   5.855
32570SOL    HW299544  14.145  13.396   5.964
32571SOL     OW99545   4.029   2.821  14.493
32571SOL    HW199546   3.981   2.857  14.567
32571SOL    HW299547   4.082   2.894  14.460
32572SOL     OW99548  10.411   2.267   9.555
32572SOL    HW199549  10.398   2.270   9.650
32572SOL    HW299550  10.503   2.289   9.543
32573SOL     OW99551  10.857   5.934   9.934
32573SOL    HW199552  10.950   5.919   9.953
32573SOL    HW299553  10.855   5.955   9.841
32574SOL     OW99554   2.226  12.499  11.192
32574SOL    HW199555   2.134  12.498  11.217
32574SOL    HW299556   2.251  12.407  11.188
32575SOL     OW99557   2.080  11.164   9.763
32575SOL    HW199558   2.034  11.090   9.724
32575SOL    HW299559   2.172  11.139   9.763
32576SOL     OW99560   5.488   4.563   2.480
32576SOL    HW199561   5.549   4.490   2.492
32576SOL    HW299562   5.454   4.580   2.568
32577SOL     OW99563   6.873  12.892  14.352
32577SOL    HW199564   6.920  12.813  14.378
32577SOL    HW299565   6.805  12.861  14.292
32578SOL     OW99566   0.718  11.033   9.930
32578SOL    HW199567   0.668  11.073  10.001
32578SOL    HW299568   0.712  11.096   9.858
32579SOL     OW99569   2.399   0.664  10.291
32579SOL    HW199570   2.358   0.577  10.287
32579SOL    HW299571   2.344   0.714  10.351
32580SOL     OW99572   5.441   8.300  12.472
32580SOL    HW199573   5.376   8.366  12.450
32580SOL    HW299574   5.407   8.219  12.434
32581SOL     OW99575  13.929   6.593  13.942
32581SOL    HW199576  13.885   6.654  14.001
32581SOL    HW299577  13.997   6.646  13.900
32582SOL     OW99578   5.678  12.259  13.216
32582SOL    HW199579   5.606  12.201  13.193
32582SOL    HW299580   5.751  12.201  13.238
32583SOL     OW99581  14.843   6.042  11.135
32583SOL    HW199582  14.829   5.986  11.211
32583SOL    HW299583   0.030   6.105  11.164
32584SOL     OW99584   1.597   5.260  12.078
32584SOL    HW199585   1.582   5.169  12.104
32584SOL    HW299586   1.625   5.254  11.987
32585SOL     OW99587   5.591   0.373   9.336
32585SOL    HW199588   5.510   0.323   9.324
32585SOL    HW299589   5.569   0.461   9.304
32586SOL     OW99590   6.840   4.167   5.024
32586SOL    HW199591   6.748   4.152   5.045
32586SOL    HW299592   6.839   4.242   4.964
32587SOL     OW99593  13.829   1.699   2.781
32587SOL    HW199594  13.846   1.662   2.694
32587SOL    HW299595  13.822   1.623   2.839
32588SOL     OW99596   9.567   3.587   9.091
32588SOL    HW199597   9.573   3.634   9.008
32588SOL    HW299598   9.621   3.639   9.151
32589SOL     OW99599   4.309  13.728   3.982
32589SOL    HW199600   4.245  13.659   4.000
32589SOL    HW299601   4.260  13.794   3.934
32590SOL     OW99602   9.988  10.811   4.956
32590SOL    HW199603   9.982  10.788   4.863
32590SOL    HW299604  10.004  10.905   4.956
32591SOL     OW99605   1.572  11.763  12.247
32591SOL    HW199606   1.594  11.851  12.217
32591SOL    HW299607   1.491  11.741  12.201
32592SOL     OW99608   2.401   7.554   2.390
32592SOL    HW199609   2.322   7.501   2.379
32592SOL    HW299610   2.420   7.586   2.302
32593SOL     OW99611  12.712  10.580   5.454
32593SOL    HW199612  12.644  10.633   5.412
32593SOL    HW299613  12.771  10.557   5.382
32594SOL     OW99614   6.734   0.921  10.078
32594SOL    HW199615   6.765   0.844  10.030
32594SOL    HW299616   6.743   0.898  10.170
32595SOL     OW99617   6.702  11.365  12.743
32595SOL    HW199618   6.663  11.443  12.704
32595SOL    HW299619   6.665  11.292  12.693
32596SOL     OW99620   5.523   9.680   0.076
32596SOL    HW199621   5.569   9.764   0.084
32596SOL    HW299622   5.463   9.677   0.150
32597SOL     OW99623   2.755  11.450   3.394
32597SOL    HW199624   2.660  11.466   3.387
32597SOL    HW299625   2.789  11.478   3.309
32598SOL     OW99626   6.627   6.389   7.436
32598SOL    HW199627   6.595   6.308   7.476
32598SOL    HW299628   6.721   6.375   7.425
32599SOL     OW99629   9.123   9.384  11.242
32599SOL    HW199630   9.089   9.417  11.324
32599SOL    HW299631   9.098   9.449  11.177
32600SOL     OW99632   3.143   1.354   5.414
32600SOL    HW199633   3.128   1.261   5.428
32600SOL    HW299634   3.111   1.372   5.326
32601SOL     OW99635   5.301  14.220  10.288
32601SOL    HW199636   5.297  14.296  10.231
32601SOL    HW299637   5.259  14.150  10.239
32602SOL     OW99638   1.177  12.608   4.972
32602SOL    HW199639   1.188  12.651   4.887
32602SOL    HW299640   1.090  12.568   4.967
32603SOL     OW99641   6.697   8.183  14.128
32603SOL    HW199642   6.673   8.097  14.095
32603SOL    HW299643   6.792   8.189  14.113
32604SOL     OW99644  14.414  13.478   8.737
32604SOL    HW199645  14.362  13.402   8.710
32604SOL    HW299646  14.503  13.458   8.708
32605SOL     OW99647  10.355   8.921   2.793
32605SOL    HW199648  10.352   9.012   2.763
32605SOL    HW299649  10.422   8.880   2.738
32606SOL     OW99650  10.640   1.422   7.384
32606SOL    HW199651  10.609   1.332   7.397
32606SOL    HW299652  10.570   1.463   7.332
32607SOL     OW99653  14.544   7.421   8.354
32607SOL    HW199654  14.636   7.419   8.327
32607SOL    HW299655  14.543   7.481   8.429
32608SOL     OW99656  14.234   9.507   7.554
32608SOL    HW199657  14.249   9.448   7.479
32608SOL    HW299658  14.202   9.449   7.623
32609SOL     OW99659   5.377   4.486   0.788
32609SOL    HW199660   5.449   4.427   0.812
32609SOL    HW299661   5.416   4.574   0.791
32610SOL     OW99662   5.828   3.924  10.364
32610SOL    HW199663   5.907   3.971  10.389
32610SOL    HW299664   5.782   3.983  10.304
32611SOL     OW99665  10.539   3.153   1.888
32611SOL    HW199666  10.527   3.066   1.926
32611SOL    HW299667  10.451   3.190   1.881
32612SOL     OW99668   7.535   3.064   5.286
32612SOL    HW199669   7.622   3.100   5.300
32612SOL    HW299670   7.517   3.011   5.364
32613SOL     OW99671   0.548   1.951  12.548
32613SOL    HW199672   0.527   2.044  12.539
32613SOL    HW299673   0.533   1.933  12.641
32614SOL     OW99674   8.907   1.733   1.595
32614SOL    HW199675   8.854   1.666   1.550
32614SOL    HW299676   8.850   1.764   1.666
32615SOL     OW99677   9.966   3.230  11.795
32615SOL    HW199678   9.981   3.141  11.766
32615SOL    HW299679   9.986   3.228  11.889
32616SOL     OW99680  10.244   5.226  12.613
32616SOL    HW199681  10.267   5.177  12.534
32616SOL    HW299682  10.328   5.245  12.655
32617SOL     OW99683   8.767   3.679  10.640
32617SOL    HW199684   8.855   3.665  10.606
32617SOL    HW299685   8.709   3.644  10.573
32618SOL     OW99686   8.078   3.062   2.199
32618SOL    HW199687   8.055   2.969   2.208
32618SOL    HW299688   8.059   3.100   2.284
32619SOL     OW99689   4.584   9.477   8.041
32619SOL    HW199690   4.558   9.387   8.022
32619SOL    HW299691   4.555   9.527   7.965
32620SOL     OW99692   4.137   2.559   8.305
32620SOL    HW199693   4.199   2.588   8.372
32620SOL    HW299694   4.072   2.630   8.302
32621SOL     OW99695   6.631  12.883   1.380
32621SOL    HW199696   6.708  12.939   1.372
32621SOL    HW299697   6.559  12.936   1.346
32622SOL     OW99698  14.879   3.684   1.436
32622SOL    HW199699  14.789   3.709   1.459
32622SOL    HW299700   0.010   3.596   1.472
32623SOL     OW99701   7.535  11.712   7.041
32623SOL    HW199702   7.531  11.617   7.036
32623SOL    HW299703   7.593  11.737   6.969
32624SOL     OW99704   5.625   3.661  11.517
32624SOL    HW199705   5.549   3.612  11.483
32624SOL    HW299706   5.588   3.744  11.547
32625SOL     OW99707   5.212  10.763  14.194
32625SOL    HW199708   5.148  10.779  14.263
32625SOL    HW299709   5.288  10.815  14.219
32626SOL     OW99710  13.238   6.763   9.229
32626SOL    HW199711  13.279   6.788   9.311
32626SOL    HW299712  13.156   6.721   9.254
32627SOL     OW99713   2.107   7.365  13.217
32627SOL    HW199714   2.043   7.343  13.150
32627SOL    HW299715   2.162   7.287  13.226
32628SOL     OW99716   5.576  12.068   9.510
32628SOL    HW199717   5.588  11.982   9.551
32628SOL    HW299718   5.575  12.050   9.416
32629SOL     OW99719  13.228  12.925   0.261
32629SOL    HW199720  13.269  13.011   0.263
32629SOL    HW299721  13.299  12.864   0.242
32630SOL     OW99722  11.753   5.042   9.968
32630SOL    HW199723  11.658   5.035   9.978
32630SOL    HW299724  11.786   5.044  10.058
32631SOL     OW99725   2.422   2.303   2.135
32631SOL    HW199726   2.423   2.325   2.042
32631SOL    HW299727   2.437   2.386   2.180
32632SOL     OW99728   5.287   2.903   0.229
32632SOL    HW199729   5.257   2.812   0.230
32632SOL    HW299730   5.217   2.951   0.186
32633SOL     OW99731   7.722   7.863   4.134
32633SOL    HW199732   7.681   7.949   4.147
32633SOL    HW299733   7.692   7.835   4.048
32634SOL     OW99734   8.927   7.939   5.707
32634SOL    HW199735   8.992   7.896   5.652
32634SOL    HW299736   8.942   7.903   5.795
32635SOL     OW99737   5.169  10.163   3.423
32635SOL    HW199738   5.132  10.205   3.501
32635SOL    HW299739   5.263  10.161   3.440
32636SOL     OW99740  13.275   4.600  12.074
32636SOL    HW199741  13.260   4.546  12.151
32636SOL    HW299742  13.325   4.675  12.107
32637SOL     OW99743  10.654   0.855  11.168
32637SOL    HW199744  10.706   0.798  11.112
32637SOL    HW299745  10.704   0.937  11.174
32638SOL     OW99746  12.221   8.728   3.190
32638SOL    HW199747  12.209   8.723   3.095
32638SOL    HW299748  12.279   8.803   3.203
32639SOL     OW99749   6.810   5.399  14.346
32639SOL    HW199750   6.879   5.353  14.299
32639SOL    HW299751   6.825   5.375  14.438
32640SOL     OW99752   7.150   2.614  11.338
32640SOL    HW199753   7.227   2.662  11.309
32640SOL    HW299754   7.093   2.609  11.262
32641SOL     OW99755   5.758   2.142  11.194
32641SOL    HW199756   5.664   2.135  11.211
32641SOL    HW299757   5.765   2.146  11.098
32642SOL     OW99758   3.409   2.277   9.645
32642SOL    HW199759   3.335   2.330   9.615
32642SOL    HW299760   3.375   2.229   9.720
32643SOL     OW99761   8.484   9.063   6.371
32643SOL    HW199762   8.570   9.098   6.393
32643SOL    HW299763   8.422   9.120   6.418
32644SOL     OW99764   5.898   4.811  12.878
32644SOL    HW199765   5.901   4.716  12.886
32644SOL    HW299766   5.888   4.843  12.968
32645SOL     OW99767   2.421  14.160   6.450
32645SOL    HW199768   2.425  14.111   6.532
32645SOL    HW299769   2.359  14.112   6.396
32646SOL     OW99770  13.688  11.096  12.913
32646SOL    HW199771  13.634  11.036  12.963
32646SOL    HW299772  13.680  11.066  12.822
32647SOL     OW99773  10.190   2.499   0.293
32647SOL    HW199774  10.247   2.519   0.218
32647SOL    HW299775  10.249   2.499   0.368
32648SOL     OW99776  12.109   0.913   9.142
32648SOL    HW199777  12.126   0.943   9.231
32648SOL    HW299778  12.171   0.842   9.128
32649SOL     OW99779   4.145   8.143   9.188
32649SOL    HW199780   4.112   8.064   9.146
32649SOL    HW299781   4.228   8.116   9.228
32650SOL     OW99782   1.067   7.945  14.125
32650SOL    HW199783   1.069   7.895  14.044
32650SOL    HW299784   1.022   8.027  14.102
32651SOL     OW99785   5.877   3.407   4.620
32651SOL    HW199786   5.947   3.374   4.563
32651SOL    HW299787   5.883   3.503   4.613
32652SOL     OW99788   3.768   3.871   4.344
32652SOL    HW199789   3.856   3.837   4.362
32652SOL    HW299790   3.709   3.803   4.374
32653SOL     OW99791   1.063   9.131   4.785
32653SOL    HW199792   1.125   9.165   4.849
32653SOL    HW299793   1.064   9.036   4.799
32654SOL     OW99794  13.692   3.988   2.761
32654SOL    HW199795  13.690   3.947   2.848
32654SOL    HW299796  13.738   4.071   2.775
32655SOL     OW99797   9.147   5.356   8.782
32655SOL    HW199798   9.156   5.424   8.715
32655SOL    HW299799   9.067   5.380   8.829
32656SOL     OW99800  13.349  10.198   3.041
32656SOL    HW199801  13.254  10.202   3.029
32656SOL    HW299802  13.379  10.138   2.972
32657SOL     OW99803   7.378  13.536   0.228
32657SOL    HW199804   7.359  13.511   0.138
32657SOL    HW299805   7.467  13.572   0.225
32658SOL     OW99806   0.071   3.499  11.256
32658SOL    HW199807   0.001   3.495  11.320
32658SOL    HW299808   0.140   3.444  11.292
32659SOL     OW99809   6.812   3.685  14.667
32659SOL    HW199810   6.880   3.619  14.683
32659SOL    HW299811   6.783   3.668  14.577
32660SOL     OW99812   1.830  14.717   9.636
32660SOL    HW199813   1.768  14.665   9.687
32660SOL    HW299814   1.870  14.776   9.699
32661SOL     OW99815   2.709   3.990  10.045
32661SOL    HW199816   2.614   3.990  10.047
32661SOL    HW299817   2.735   3.914  10.097
32662SOL     OW99818   6.679   1.922   2.833
32662SOL    HW199819   6.656   1.830   2.822
32662SOL    HW299820   6.635   1.948   2.914
32663SOL     OW99821   3.303  14.519  13.849
32663SOL    HW199822   3.339  14.604  13.874
32663SOL    HW299823   3.342  14.500  13.764
32664SOL     OW99824   4.885  11.669   3.897
32664SOL    HW199825   4.931  11.617   3.963
32664SOL    HW299826   4.795  11.635   3.899
32665SOL     OW99827   4.805   9.568  13.608
32665SOL    HW199828   4.797   9.561  13.703
32665SOL    HW299829   4.863   9.497  13.583
32666SOL     OW99830   4.728  10.071  12.719
32666SOL    HW199831   4.724  10.009  12.646
32666SOL    HW299832   4.780  10.144  12.686
32667SOL     OW99833   4.865  14.112   4.596
32667SOL    HW199834   4.784  14.150   4.559
32667SOL    HW299835   4.914  14.083   4.519
32668SOL     OW99836  14.190   1.824   0.090
32668SOL    HW199837  14.261   1.787   0.143
32668SOL    HW299838  14.234   1.870   0.019
32669SOL     OW99839   1.421   7.821   6.439
32669SOL    HW199840   1.349   7.786   6.493
32669SOL    HW299841   1.377   7.862   6.365
32670SOL     OW99842  11.602   5.319   7.787
32670SOL    HW199843  11.553   5.320   7.705
32670SOL    HW299844  11.538   5.347   7.853
32671SOL     OW99845   0.707   7.863   2.511
32671SOL    HW199846   0.686   7.918   2.436
32671SOL    HW299847   0.623   7.827   2.539
32672SOL     OW99848  14.868   9.537   1.565
32672SOL    HW199849   0.034   9.487   1.497
32672SOL    HW299850  14.850   9.622   1.525
32673SOL     OW99851   8.825   7.604  10.541
32673SOL    HW199852   8.903   7.568  10.500
32673SOL    HW299853   8.825   7.696  10.518
32674SOL     OW99854   6.913  14.270  14.434
32674SOL    HW199855   6.868  14.299  14.355
32674SOL    HW299856   6.858  14.300  14.506
32675SOL     OW99857  13.241   8.535   4.893
32675SOL    HW199858  13.160   8.561   4.849
32675SOL    HW299859  13.245   8.592   4.970
32676SOL     OW99860  14.834   3.084   4.735
32676SOL    HW199861  14.755   3.097   4.683
32676SOL    HW299862  14.846   3.166   4.782
32677SOL     OW99863   3.087   7.899   1.651
32677SOL    HW199864   3.148   7.934   1.587
32677SOL    HW299865   3.104   7.805   1.652
32678SOL     OW99866   9.222  14.013  10.545
32678SOL    HW199867   9.181  14.005  10.459
32678SOL    HW299868   9.258  13.926  10.563
32679SOL     OW99869   6.338   6.740  10.185
32679SOL    HW199870   6.297   6.759  10.269
32679SOL    HW299871   6.417   6.691  10.207
32680SOL     OW99872  12.377   3.715   9.983
32680SOL    HW199873  12.362   3.649   9.916
32680SOL    HW299874  12.336   3.679  10.062
32681SOL     OW99875   9.605  10.949  11.132
32681SOL    HW199876   9.519  10.948  11.091
32681SOL    HW299877   9.667  10.957  11.059
32682SOL     OW99878  12.877   6.672   5.220
32682SOL    HW199879  12.934   6.603   5.186
32682SOL    HW299880  12.877   6.738   5.151
32683SOL     OW99881   7.887   4.569   2.190
32683SOL    HW199882   7.848   4.498   2.242
32683SOL    HW299883   7.930   4.524   2.117
32684SOL     OW99884   8.435  13.068   3.962
32684SOL    HW199885   8.383  13.135   4.008
32684SOL    HW299886   8.519  13.067   4.008
32685SOL     OW99887   3.672   1.850  11.428
32685SOL    HW199888   3.700   1.760  11.440
32685SOL    HW299889   3.596   1.845  11.369
32686SOL     OW99890   8.206   7.125  12.550
32686SOL    HW199891   8.228   7.179  12.474
32686SOL    HW299892   8.140   7.064  12.518
32687SOL     OW99893  10.157   9.494   5.386
32687SOL    HW199894  10.069   9.515   5.416
32687SOL    HW299895  10.182   9.568   5.330
32688SOL     OW99896   1.397  13.113   2.537
32688SOL    HW199897   1.308  13.123   2.504
32688SOL    HW299898   1.392  13.134   2.630
32689SOL     OW99899   0.421   3.309  10.201
32689SOL    HW199900   0.350   3.358  10.159
32689SOL    HW299901   0.455   3.370  10.267
32690SOL     OW99902   7.496  14.361  13.769
32690SOL    HW199903   7.505  14.267  13.781
32690SOL    HW299904   7.415  14.371  13.719
32691SOL     OW99905   8.810   4.398   7.856
32691SOL    HW199906   8.735   4.364   7.904
32691SOL    HW299907   8.882   4.397   7.920
32692SOL     OW99908   2.695   1.020   1.453
32692SOL    HW199909   2.640   0.945   1.474
32692SOL    HW299910   2.784   0.985   1.447
32693SOL     OW99911  12.021   0.113  13.315
32693SOL    HW199912  12.069   0.148  13.240
32693SOL    HW299913  11.929   0.132  13.296
32694SOL     OW99914  11.989   7.547   5.590
32694SOL    HW199915  11.989   7.498   5.508
32694SOL    HW299916  11.903   7.530   5.628
32695SOL     OW99917   9.241  12.801   0.386
32695SOL    HW199918   9.283  12.886   0.390
32695SOL    HW299919   9.249  12.766   0.475
32696SOL     OW99920   8.374   1.256   7.577
32696SOL    HW199921   8.423   1.183   7.541
32696SOL    HW299922   8.393   1.329   7.518
32697SOL     OW99923   7.746   7.558  14.154
32697SOL    HW199924   7.736   7.556  14.249
32697SOL    HW299925   7.677   7.618  14.124
32698SOL     OW99926  13.291   6.520  14.497
32698SOL    HW199927  13.239   6.596  14.522
32698SOL    HW299928  13.284   6.461  14.572
32699SOL     OW99929  12.607   1.859   9.700
32699SOL    HW199930  12.621   1.951   9.679
32699SOL    HW299931  12.649   1.811   9.628
32700SOL     OW99932   5.824   3.268  12.328
32700SOL    HW199933   5.823   3.196  12.264
32700SOL    HW299934   5.812   3.347  12.275
32701SOL     OW99935   6.686  14.718  14.786
32701SOL    HW199936   6.692  14.811  14.765
32701SOL    HW299937   6.774  14.685  14.774
32702SOL     OW99938  11.739   9.479   5.802
32702SOL    HW199939  11.754   9.508   5.892
32702SOL    HW299940  11.815   9.510   5.753
32703SOL     OW99941  14.208   0.971   6.305
32703SOL    HW199942  14.124   0.937   6.336
32703SOL    HW299943  14.192   1.064   6.289
32704SOL     OW99944  13.451   9.081  14.569
32704SOL    HW199945  13.367   9.124  14.583
32704SOL    HW299946  13.493   9.082  14.655
32705SOL     OW99947  10.951   4.744  14.709
32705SOL    HW199948  10.963   4.812  14.776
32705SOL    HW299949  10.937   4.664  14.759
32706SOL     OW99950  10.586  10.593  12.971
32706SOL    HW199951  10.608  10.670  12.918
32706SOL    HW299952  10.505  10.560  12.932
32707SOL     OW99953  14.602  12.312   8.876
32707SOL    HW199954  14.517  12.285   8.911
32707SOL    HW299955  14.652  12.336   8.954
32708SOL     OW99956   4.604  14.340   5.607
32708SOL    HW199957   4.696  14.329   5.628
32708SOL    HW299958   4.599  14.328   5.512
32709SOL     OW99959  14.329  13.750   2.612
32709SOL    HW199960  14.300  13.694   2.684
32709SOL    HW299961  14.255  13.753   2.552
32710SOL     OW99962   6.940  13.788  14.108
32710SOL    HW199963   7.025  13.824  14.082
32710SOL    HW299964   6.961  13.704  14.148
32711SOL     OW99965   9.335  14.675   2.308
32711SOL    HW199966   9.410  14.702   2.254
32711SOL    HW299967   9.358  14.704   2.396
32712SOL     OW99968  13.506   3.637   9.964
32712SOL    HW199969  13.569   3.635  10.037
32712SOL    HW299970  13.546   3.583   9.896
32713SOL     OW99971   1.054   0.135  14.174
32713SOL    HW199972   0.982   0.186  14.211
32713SOL    HW299973   1.061   0.057  14.230
32714SOL     OW99974   0.405   5.716   2.668
32714SOL    HW199975   0.325   5.766   2.683
32714SOL    HW299976   0.389   5.632   2.711
32715SOL     OW99977  11.672  10.183   9.156
32715SOL    HW199978  11.764  10.193   9.181
32715SOL    HW299979  11.644  10.101   9.197
32716SOL     OW99980  12.943  11.997  13.551
32716SOL    HW199981  12.990  12.007  13.469
32716SOL    HW299982  12.956  11.905  13.575
32717SOL     OW99983   2.985   7.618   1.428
32717SOL    HW199984   3.028   7.635   1.511
32717SOL    HW299985   2.994   7.700   1.379
32718SOL     OW99986  13.713   4.232   2.143
32718SOL    HW199987  13.663   4.202   2.067
32718SOL    HW299988  13.734   4.151   2.190
32719SOL     OW99989  11.969   7.647  13.861
32719SOL    HW199990  12.049   7.670  13.908
32719SOL    HW299991  11.922   7.730  13.853
32720SOL     OW99992   0.573   5.683   9.131
32720SOL    HW199993   0.614   5.629   9.064
32720SOL    HW299994   0.586   5.773   9.102
32721SOL     OW99995  10.121  14.632   2.402
32721SOL    HW199996  10.107  14.603   2.493
32721SOL    HW299997  10.104  14.726   2.404
32722SOL     OW99998   8.000  13.209   6.686
32722SOL    HW199999   7.938  13.281   6.676
32722SOL    HW2    0   8.086  13.251   6.687
32723SOL     OW    1   8.450   1.539   6.397
32723SOL    HW1    2   8.496   1.458   6.418
32723SOL    HW2    3   8.503   1.579   6.328
32724SOL     OW    4   5.804   7.394   9.413
32724SOL    HW1    5   5.881   7.365   9.365
32724SOL    HW2    6   5.748   7.316   9.416
32725SOL     OW    7  12.474   0.966   8.641
32725SOL    HW1    8  12.503   1.046   8.685
32725SOL    HW2    9  12.425   0.997   8.565
32726SOL     OW   10   7.449  11.114   7.193
32726SOL    HW1   11   7.395  11.151   7.263
32726SOL    HW2   12   7.529  11.087   7.237
32727SOL     OW   13   4.695   2.153  14.855
32727SOL    HW1   14   4.636   2.187   0.043
32727SOL    HW2   15   4.717   2.065   0.005
32728SOL     OW   16   3.937   0.828  11.292
32728SOL    HW1   17   3.867   0.763  11.288
32728SOL    HW2   18   3.891   0.912  11.299
32729SOL     OW   19   9.733  11.281   0.868
32729SOL    HW1   20   9.752  11.216   0.936
32729SOL    HW2   21   9.712  11.228   0.791
32730SOL     OW   22   4.861   3.817  12.599
32730SOL    HW1   23   4.938   3.865  12.629
32730SOL    HW2   24   4.896   3.749  12.540
32731SOL     OW   25   8.189   9.468  13.883
32731SOL    HW1   26   8.097   9.456  13.861
32731SOL    HW2   27   8.235   9.408  13.824
32732SOL     OW   28  13.678   5.428   9.538
32732SOL    HW1   29  13.588   5.439   9.570
32732SOL    HW2   30  13.668   5.411   9.444
32733SOL     OW   31   2.724   4.058   9.473
32733SOL    HW1   32   2.791   4.126   9.463
32733SOL    HW2   33   2.722   4.040   9.566
32734SOL     OW   34   8.358  11.344   7.472
32734SOL    HW1   35   8.373  11.335   7.378
32734SOL    HW2   36   8.266  11.369   7.479
32735SOL     OW   37   9.954   2.330   6.031
32735SOL    HW1   38  10.005   2.323   5.951
32735SOL    HW2   39   9.903   2.249   6.035
32736SOL     OW   40   8.538  14.611   5.301
32736SOL    HW1   41   8.628  14.638   5.282
32736SOL    HW2   42   8.483  14.665   5.244
32737SOL     OW   43  11.735   9.961   6.200
32737SOL    HW1   44  11.818   9.915   6.184
32737SOL    HW2   45  11.668   9.902   6.164
32738SOL     OW   46   3.380   1.498  14.287
32738SOL    HW1   47   3.326   1.419  14.286
32738SOL    HW2   48   3.352   1.547  14.210
32739SOL     OW   49   2.877  12.151   0.544
32739SOL    HW1   50   2.859  12.079   0.483
32739SOL    HW2   51   2.839  12.123   0.627
32740SOL     OW   52   4.457  14.210   9.796
32740SOL    HW1   53   4.440  14.303   9.777
32740SOL    HW2   54   4.552  14.204   9.803
32741SOL     OW   55  11.727   4.268  13.961
32741SOL    HW1   56  11.819   4.248  13.944
32741SOL    HW2   57  11.727   4.361  13.984
32742SOL     OW   58   4.427   2.898   9.905
32742SOL    HW1   59   4.514   2.929   9.880
32742SOL    HW2   60   4.434   2.803   9.905
32743SOL     OW   61   7.493   2.521   1.521
32743SOL    HW1   62   7.404   2.486   1.521
32743SOL    HW2   63   7.527   2.500   1.608
32744SOL     OW   64   0.393   1.430   0.897
32744SOL    HW1   65   0.303   1.461   0.891
32744SOL    HW2   66   0.421   1.419   0.806
32745SOL     OW   67   3.598   0.834   2.811
32745SOL    HW1   68   3.578   0.873   2.896
32745SOL    HW2   69   3.635   0.907   2.760
32746SOL     OW   70   6.771   4.197  11.315
32746SOL    HW1   71   6.835   4.138  11.275
32746SOL    HW2   72   6.775   4.178  11.408
32747SOL     OW   73   5.439   5.020   5.842
32747SOL    HW1   74   5.392   4.996   5.922
32747SOL    HW2   75   5.400   5.104   5.816
32748SOL     OW   76   3.210   5.704   8.548
32748SOL    HW1   77   3.298   5.688   8.512
32748SOL    HW2   78   3.202   5.642   8.621
32749SOL     OW   79   9.008  13.594   7.253
32749SOL    HW1   80   9.083  13.652   7.258
32749SOL    HW2   81   8.953  13.631   7.184
32750SOL     OW   82   1.025  13.865   6.685
32750SOL    HW1   83   0.946  13.823   6.649
32750SOL    HW2   84   1.084  13.792   6.704
32751SOL     OW   85   8.374   5.440   5.343
32751SOL    HW1   86   8.414   5.502   5.405
32751SOL    HW2   87   8.369   5.358   5.391
32752SOL     OW   88   7.251   7.402   7.142
32752SOL    HW1   89   7.269   7.316   7.180
32752SOL    HW2   90   7.277   7.394   7.050
32753SOL     OW   91   1.242   5.892   6.929
32753SOL    HW1   92   1.255   5.978   6.890
32753SOL    HW2   93   1.170   5.904   6.991
32754SOL     OW   94   8.336   6.887   5.212
32754SOL    HW1   95   8.421   6.884   5.255
32754SOL    HW2   96   8.316   6.796   5.191
32755SOL     OW   97   4.959   2.657  14.103
32755SOL    HW1   98   4.865   2.672  14.102
32755SOL    HW2   99   4.969   2.566  14.077
32756SOL     OW  100   3.246   6.270   7.030
32756SOL    HW1  101   3.311   6.261   7.100
32756SOL    HW2  102   3.283   6.223   6.956
32757SOL     OW  103  10.348   5.626   4.683
32757SOL    HW1  104  10.283   5.616   4.753
32757SOL    HW2  105  10.424   5.576   4.713
32758SOL     OW  106   9.876   2.491   2.298
32758SOL    HW1  107   9.817   2.421   2.325
32758SOL    HW2  108   9.894   2.540   2.379
32759SOL     OW  109   5.715   7.286   8.681
32759SOL    HW1  110   5.801   7.313   8.650
32759SOL    HW2  111   5.733   7.214   8.742
32760SOL     OW  112  10.397   3.578   1.153
32760SOL    HW1  113  10.483   3.592   1.113
32760SOL    HW2  114  10.335   3.590   1.082
32761SOL     OW  115   2.544   9.343   4.636
32761SOL    HW1  116   2.480   9.373   4.699
32761SOL    HW2  117   2.613   9.302   4.688
32762SOL     OW  118   9.325   8.852   2.282
32762SOL    HW1  119   9.309   8.932   2.232
32762SOL    HW2  120   9.420   8.852   2.298
32763SOL     OW  121  11.173   6.755   4.044
32763SOL    HW1  122  11.255   6.721   4.009
32763SOL    HW2  123  11.195   6.788   4.130
32764SOL     OW  124   9.934   3.826  12.447
32764SOL    HW1  125   9.948   3.801  12.356
32764SOL    HW2  126   9.976   3.911  12.455
32765SOL     OW  127   6.705   7.490  12.496
32765SOL    HW1  128   6.663   7.564  12.541
32765SOL    HW2  129   6.638   7.458  12.436
32766SOL     OW  130   5.965   9.476  13.554
32766SOL    HW1  131   5.956   9.485  13.649
32766SOL    HW2  132   5.905   9.406  13.531
32767SOL     OW  133  12.477   3.519  11.403
32767SOL    HW1  134  12.470   3.425  11.387
32767SOL    HW2  135  12.475   3.527  11.499
32768SOL     OW  136   6.270  11.388   2.652
32768SOL    HW1  137   6.346  11.330   2.644
32768SOL    HW2  138   6.195  11.328   2.660
32769SOL     OW  139   7.606   8.197   1.171
32769SOL    HW1  140   7.669   8.269   1.183
32769SOL    HW2  141   7.521   8.237   1.186
32770SOL     OW  142   3.936  13.529  12.565
32770SOL    HW1  143   3.960  13.523  12.657
32770SOL    HW2  144   3.918  13.622  12.550
32771SOL     OW  145   1.536   1.374   9.162
32771SOL    HW1  146   1.529   1.294   9.214
32771SOL    HW2  147   1.552   1.443   9.227
32772SOL     OW  148   4.264  10.060   2.058
32772SOL    HW1  149   4.355  10.035   2.042
32772SOL    HW2  150   4.260  10.075   2.152
32773SOL     OW  151   1.808   5.399  11.880
32773SOL    HW1  152   1.717   5.422  11.896
32773SOL    HW2  153   1.830   5.441  11.797
32774SOL     OW  154   3.068  13.693   5.872
32774SOL    HW1  155   2.983  13.648   5.871
32774SOL    HW2  156   3.055  13.771   5.818
32775SOL     OW  157   3.968   0.471   3.170
32775SOL    HW1  158   3.998   0.382   3.152
32775SOL    HW2  159   4.004   0.524   3.099
32776SOL     OW  160   5.543   0.012   5.569
32776SOL    HW1  161   5.578   0.095   5.537
32776SOL    HW2  162   5.448   0.026   5.573
32777SOL     OW  163  13.706   8.376   3.909
32777SOL    HW1  164  13.798   8.378   3.879
32777SOL    HW2  165  13.712   8.367   4.004
32778SOL     OW  166  14.744   4.751   1.620
32778SOL    HW1  167  14.785   4.683   1.567
32778SOL    HW2  168  14.728   4.709   1.704
32779SOL     OW  169  10.657   7.077   9.365
32779SOL    HW1  170  10.634   7.134   9.439
32779SOL    HW2  171  10.653   7.134   9.289
32780SOL     OW  172  12.890  12.337   1.239
32780SOL    HW1  173  12.878  12.256   1.189
32780SOL    HW2  174  12.885  12.407   1.174
32781SOL     OW  175   5.397   9.286   8.442
32781SOL    HW1  176   5.480   9.277   8.488
32781SOL    HW2  177   5.419   9.328   8.359
32782SOL     OW  178   5.399   4.921   8.075
32782SOL    HW1  179   5.313   4.962   8.087
32782SOL    HW2  180   5.379   4.831   8.049
32783SOL     OW  181  13.250   0.208  12.361
32783SOL    HW1  182  13.226   0.116  12.365
32783SOL    HW2  183  13.178   0.254  12.405
32784SOL     OW  184   7.303   9.939   8.996
32784SOL    HW1  185   7.249  10.014   9.023
32784SOL    HW2  186   7.342   9.907   9.078
32785SOL     OW  187  11.959   9.257   1.320
32785SOL    HW1  188  11.926   9.334   1.273
32785SOL    HW2  189  11.975   9.289   1.409
32786SOL     OW  190  13.776   2.245  14.577
32786SOL    HW1  191  13.700   2.290  14.541
32786SOL    HW2  192  13.779   2.161  14.531
32787SOL     OW  193   5.246   5.557  11.749
32787SOL    HW1  194   5.155   5.587  11.759
32787SOL    HW2  195   5.260   5.556  11.654
32788SOL     OW  196  14.066  10.370  11.777
32788SOL    HW1  197  14.149  10.323  11.785
32788SOL    HW2  198  14.071  10.413  11.692
32789SOL     OW  199   2.230   3.202   8.746
32789SOL    HW1  200   2.185   3.232   8.666
32789SOL    HW2  201   2.323   3.200   8.721
32790SOL     OW  202   5.268   4.949   2.825
32790SOL    HW1  203   5.186   4.900   2.819
32790SOL    HW2  204   5.303   4.925   2.911
32791SOL     OW  205   3.923  13.689  13.899
32791SOL    HW1  206   3.945  13.620  13.837
32791SOL    HW2  207   3.859  13.650  13.958
32792SOL     OW  208   9.771  10.096   8.923
32792SOL    HW1  209   9.712  10.170   8.933
32792SOL    HW2  210   9.717  10.019   8.944
32793SOL     OW  211  10.851  13.556  14.010
32793SOL    HW1  212  10.769  13.590  13.973
32793SOL    HW2  213  10.828  13.470  14.044
32794SOL     OW  214   9.157  12.452   0.540
32794SOL    HW1  215   9.216  12.524   0.561
32794SOL    HW2  216   9.142  12.408   0.623
32795SOL     OW  217  10.211   2.594  12.232
32795SOL    HW1  218  10.299   2.620  12.206
32795SOL    HW2  219  10.156   2.670  12.211
32796SOL     OW  220   0.194   3.426  10.076
32796SOL    HW1  221   0.179   3.519  10.058
32796SOL    HW2  222   0.108   3.386  10.061
32797SOL     OW  223   8.926   8.649   3.283
32797SOL    HW1  224   8.860   8.702   3.327
32797SOL    HW2  225   8.933   8.687   3.196
32798SOL     OW  226   2.002  14.713   6.070
32798SOL    HW1  227   1.933  14.777   6.055
32798SOL    HW2  228   2.021  14.676   5.984
32799SOL     OW  229   0.320   3.581   8.687
32799SOL    HW1  230   0.408   3.611   8.708
32799SOL    HW2  231   0.324   3.555   8.595
32800SOL     OW  232   5.820   4.479   0.591
32800SOL    HW1  233   5.776   4.562   0.571
32800SOL    HW2  234   5.787   4.417   0.526
32801SOL     OW  235   2.436   2.942   0.524
32801SOL    HW1  236   2.499   3.001   0.566
32801SOL    HW2  237   2.390   2.998   0.461
32802SOL     OW  238   7.677   1.595   3.237
32802SOL    HW1  239   7.613   1.524   3.235
32802SOL    HW2  240   7.626   1.674   3.219
32803SOL     OW  241   7.817  11.162   8.832
32803SOL    HW1  242   7.834  11.237   8.775
32803SOL    HW2  243   7.802  11.089   8.772
32804SOL     OW  244  12.699   7.500   6.301
32804SOL    HW1  245  12.742   7.433   6.353
32804SOL    HW2  246  12.646   7.451   6.238
32805SOL     OW  247   4.362  14.597   1.003
32805SOL    HW1  248   4.329  14.681   1.035
32805SOL    HW2  249   4.447  14.587   1.046
32806SOL     OW  250  11.364   9.313  11.186
32806SOL    HW1  251  11.422   9.373  11.140
32806SOL    HW2  252  11.311   9.369  11.242
32807SOL     OW  253   7.580   0.663  14.788
32807SOL    HW1  254   7.583   0.671   0.004
32807SOL    HW2  255   7.537   0.744  14.759
32808SOL     OW  256   6.527   9.425   2.346
32808SOL    HW1  257   6.576   9.469   2.276
32808SOL    HW2  258   6.449   9.479   2.358
32809SOL     OW  259   3.000   1.990   9.013
32809SOL    HW1  260   3.046   1.941   8.944
32809SOL    HW2  261   2.925   2.029   8.969
32810SOL     OW  262  12.762   8.103  14.054
32810SOL    HW1  263  12.850   8.074  14.076
32810SOL    HW2  264  12.717   8.023  14.025
32811SOL     OW  265  10.194  11.439   7.056
32811SOL    HW1  266  10.139  11.409   7.128
32811SOL    HW2  267  10.252  11.365   7.037
32812SOL     OW  268   5.127   4.289  10.751
32812SOL    HW1  269   5.207   4.247  10.719
32812SOL    HW2  270   5.070   4.294  10.674
32813SOL     OW  271  12.991   4.412  12.808
32813SOL    HW1  272  13.029   4.330  12.775
32813SOL    HW2  273  13.034   4.425  12.892
32814SOL     OW  274   1.209   3.540   5.204
32814SOL    HW1  275   1.180   3.495   5.283
32814SOL    HW2  276   1.172   3.491   5.131
32815SOL     OW  277  13.706   4.145   0.146
32815SOL    HW1  278  13.701   4.169   0.239
32815SOL    HW2  279  13.734   4.054   0.146
32816SOL     OW  280   1.532   1.066   3.077
32816SOL    HW1  281   1.613   1.026   3.108
32816SOL    HW2  282   1.482   0.992   3.040
32817SOL     OW  283  13.272   4.485   4.751
32817SOL    HW1  284  13.279   4.457   4.842
32817SOL    HW2  285  13.293   4.579   4.753
32818SOL     OW  286  10.476  12.059  13.987
32818SOL    HW1  287  10.410  12.127  13.999
32818SOL    HW2  288  10.469  12.035  13.894
32819SOL     OW  289  14.237   1.776   8.429
32819SOL    HW1  290  14.294   1.839   8.475
32819SOL    HW2  291  14.169   1.755   8.492
32820SOL     OW  292  12.398   4.202   3.761
32820SOL    HW1  293  12.493   4.216   3.767
32820SOL    HW2  294  12.381   4.202   3.667
32821SOL     OW  295  12.377   0.400   4.048
32821SOL    HW1  296  12.289   0.365   4.052
32821SOL    HW2  297  12.369   0.490   4.081
32822SOL     OW  298   6.008  12.104  12.432
32822SOL    HW1  299   5.938  12.112  12.497
32822SOL    HW2  300   6.086  12.079  12.482
32823SOL     OW  301   9.152   9.408   1.048
32823SOL    HW1  302   9.087   9.365   1.104
32823SOL    HW2  303   9.165   9.346   0.976
32824SOL     OW  304   2.841  10.041   6.653
32824SOL    HW1  305   2.818   9.955   6.688
32824SOL    HW2  306   2.775  10.100   6.689
32825SOL     OW  307  13.680  10.972   2.106
32825SOL    HW1  308  13.693  10.921   2.026
32825SOL    HW2  309  13.633  11.050   2.079
32826SOL     OW  310   9.235   0.905   7.096
32826SOL    HW1  311   9.308   0.966   7.103
32826SOL    HW2  312   9.274   0.822   7.069
32827SOL     OW  313  10.900  13.473  11.405
32827SOL    HW1  314  10.813  13.504  11.431
32827SOL    HW2  315  10.910  13.389  11.450
32828SOL     OW  316  12.513   1.324   7.909
32828SOL    HW1  317  12.590   1.308   7.964
32828SOL    HW2  318  12.448   1.261   7.940
32829SOL     OW  319  10.317  13.334   5.979
32829SOL    HW1  320  10.365  13.413   6.005
32829SOL    HW2  321  10.369  13.298   5.907
32830SOL     OW  322   0.246  13.436  10.340
32830SOL    HW1  323   0.151  13.428  10.329
32830SOL    HW2  324   0.279  13.450  10.252
32831SOL     OW  325   5.643   1.012   2.996
32831SOL    HW1  326   5.550   1.030   2.984
32831SOL    HW2  327   5.649   0.917   3.001
32832SOL     OW  328  10.940  11.685  12.217
32832SOL    HW1  329  10.915  11.601  12.254
32832SOL    HW2  330  10.859  11.720  12.180
32833SOL     OW  331  10.154  11.077   1.807
32833SOL    HW1  332  10.220  11.127   1.758
32833SOL    HW2  333  10.205  11.029   1.872
32834SOL     OW  334   6.825   1.533   9.030
32834SOL    HW1  335   6.766   1.535   8.954
32834SOL    HW2  336   6.888   1.603   9.012
32835SOL     OW  337  12.159  14.832   1.220
32835SOL    HW1  338  12.231  14.775   1.194
32835SOL    HW2  339  12.122  14.790   1.298
32836SOL     OW  340   9.028   0.047   4.431
32836SOL    HW1  341   8.992   0.103   4.362
32836SOL    HW2  342   9.100  14.879   4.389
32837SOL     OW  343   9.218  14.411   6.190
32837SOL    HW1  344   9.225  14.484   6.129
32837SOL    HW2  345   9.289  14.352   6.166
32838SOL     OW  346  13.367  10.719   2.348
32838SOL    HW1  347  13.340  10.633   2.380
32838SOL    HW2  348  13.345  10.718   2.255
32839SOL     OW  349   8.701   4.133  12.691
32839SOL    HW1  350   8.649   4.188  12.632
32839SOL    HW2  351   8.672   4.044  12.672
32840SOL     OW  352   2.617   0.823   2.384
32840SOL    HW1  353   2.663   0.905   2.367
32840SOL    HW2  354   2.640   0.767   2.309
32841SOL     OW  355   6.036   5.650   6.426
32841SOL    HW1  356   5.942   5.656   6.407
32841SOL    HW2  357   6.057   5.558   6.411
32842SOL     OW  358   2.841   4.700   7.395
32842SOL    HW1  359   2.934   4.678   7.404
32842SOL    HW2  360   2.834   4.788   7.433
32843SOL     OW  361   5.700   4.289   6.658
32843SOL    HW1  362   5.662   4.215   6.706
32843SOL    HW2  363   5.667   4.366   6.704
32844SOL     OW  364  12.098   5.911   9.125
32844SOL    HW1  365  12.022   5.966   9.102
32844SOL    HW2  366  12.156   5.970   9.173
32845SOL     OW  367  13.855  14.254   4.875
32845SOL    HW1  368  13.804  14.332   4.894
32845SOL    HW2  369  13.946  14.280   4.892
32846SOL     OW  370  13.995  12.500   2.453
32846SOL    HW1  371  13.966  12.476   2.542
32846SOL    HW2  372  14.037  12.421   2.420
32847SOL     OW  373  10.823   9.505   9.929
32847SOL    HW1  374  10.780   9.529  10.012
32847SOL    HW2  375  10.864   9.421   9.948
32848SOL     OW  376  13.903  12.966  12.104
32848SOL    HW1  377  13.818  13.008  12.104
32848SOL    HW2  378  13.959  13.024  12.156
32849SOL     OW  379   0.508   9.171   8.804
32849SOL    HW1  380   0.460   9.091   8.783
32849SOL    HW2  381   0.492   9.184   8.898
32850SOL     OW  382   4.535   8.788   9.091
32850SOL    HW1  383   4.464   8.846   9.118
32850SOL    HW2  384   4.518   8.706   9.139
32851SOL     OW  385   7.321   3.894  12.513
32851SOL    HW1  386   7.263   3.921  12.584
32851SOL    HW2  387   7.358   3.976  12.480
32852SOL     OW  388   7.094  12.324   8.404
32852SOL    HW1  389   7.068  12.248   8.354
32852SOL    HW2  390   7.014  12.377   8.412
32853SOL     OW  391  11.471   3.555  14.649
32853SOL    HW1  392  11.548   3.569  14.594
32853SOL    HW2  393  11.403   3.528  14.588
32854SOL     OW  394   9.353   5.770   5.544
32854SOL    HW1  395   9.410   5.705   5.502
32854SOL    HW2  396   9.371   5.761   5.637
32855SOL     OW  397   4.652   3.485   5.729
32855SOL    HW1  398   4.623   3.450   5.814
32855SOL    HW2  399   4.586   3.454   5.667
32856SOL     OW  400   8.175  13.327  10.980
32856SOL    HW1  401   8.133  13.413  10.973
32856SOL    HW2  402   8.252  13.334  10.924
32857SOL     OW  403   5.384  13.300   4.376
32857SOL    HW1  404   5.399  13.211   4.408
32857SOL    HW2  405   5.449  13.312   4.307
32858SOL     OW  406   7.776   7.347  13.936
32858SOL    HW1  407   7.763   7.417  14.000
32858SOL    HW2  408   7.864   7.361  13.902
32859SOL     OW  409  10.402  12.896   5.044
32859SOL    HW1  410  10.356  12.976   5.018
32859SOL    HW2  411  10.471  12.886   4.978
32860SOL     OW  412  12.451  10.330   3.525
32860SOL    HW1  413  12.455  10.426   3.515
32860SOL    HW2  414  12.485  10.314   3.613
32861SOL     OW  415  10.207  14.357   4.993
32861SOL    HW1  416  10.244  14.365   5.081
32861SOL    HW2  417  10.232  14.438   4.949
32862SOL     OW  418  12.641   0.872   9.863
32862SOL    HW1  419  12.704   0.886   9.934
32862SOL    HW2  420  12.637   0.957   9.818
32863SOL     OW  421  13.686   7.132  10.222
32863SOL    HW1  422  13.766   7.151  10.271
32863SOL    HW2  423  13.714   7.070  10.154
32864SOL     OW  424   4.139   8.846   3.629
32864SOL    HW1  425   4.187   8.928   3.629
32864SOL    HW2  426   4.154   8.810   3.716
32865SOL     OW  427  10.941   8.008   4.150
32865SOL    HW1  428  11.000   8.082   4.169
32865SOL    HW2  429  10.858   8.033   4.189
32866SOL     OW  430   1.783   4.408   3.314
32866SOL    HW1  431   1.761   4.381   3.225
32866SOL    HW2  432   1.699   4.409   3.360
32867SOL     OW  433  11.111   8.778   3.596
32867SOL    HW1  434  11.109   8.815   3.507
32867SOL    HW2  435  11.182   8.825   3.640
32868SOL     OW  436   9.126  14.832   8.853
32868SOL    HW1  437   9.133  14.745   8.813
32868SOL    HW2  438   9.033  14.854   8.845
32869SOL     OW  439   5.942   3.334   7.111
32869SOL    HW1  440   6.025   3.307   7.072
32869SOL    HW2  441   5.967   3.384   7.188
32870SOL     OW  442  13.830  14.019   1.667
32870SOL    HW1  443  13.822  13.931   1.703
32870SOL    HW2  444  13.863  14.072   1.740
32871SOL     OW  445  13.884   1.758   3.717
32871SOL    HW1  446  13.938   1.786   3.791
32871SOL    HW2  447  13.856   1.669   3.740
32872SOL     OW  448  13.485   0.889   5.513
32872SOL    HW1  449  13.537   0.969   5.520
32872SOL    HW2  450  13.518   0.845   5.434
32873SOL     OW  451   0.052   1.307  10.711
32873SOL    HW1  452   0.020   1.397  10.705
32873SOL    HW2  453  14.859   1.253  10.678
32874SOL     OW  454  11.608   2.365   4.589
32874SOL    HW1  455  11.550   2.315   4.646
32874SOL    HW2  456  11.565   2.366   4.504
32875SOL     OW  457   8.146   1.919  12.016
32875SOL    HW1  458   8.116   1.959  11.934
32875SOL    HW2  459   8.140   1.989  12.081
32876SOL     OW  460   8.763   5.784   4.357
32876SOL    HW1  461   8.745   5.778   4.263
32876SOL    HW2  462   8.679   5.807   4.397
32877SOL     OW  463  13.652   2.059  14.202
32877SOL    HW1  464  13.626   2.149  14.180
32877SOL    HW2  465  13.744   2.067  14.228
32878SOL     OW  466   9.366  14.492   4.405
32878SOL    HW1  467   9.452  14.509   4.368
32878SOL    HW2  468   9.379  14.419   4.465
32879SOL     OW  469  12.704   8.684  12.180
32879SOL    HW1  470  12.736   8.602  12.218
32879SOL    HW2  471  12.782   8.736  12.163
32880SOL     OW  472   7.351   4.965  13.503
32880SOL    HW1  473   7.287   4.920  13.448
32880SOL    HW2  474   7.376   5.043  13.454
32881SOL     OW  475   9.394   5.140  11.288
32881SOL    HW1  476   9.364   5.065  11.237
32881SOL    HW2  477   9.479   5.113  11.323
32882SOL     OW  478   3.907  10.091  14.149
32882SOL    HW1  479   3.840  10.142  14.193
32882SOL    HW2  480   3.980  10.089  14.212
32883SOL     OW  481   0.620  13.037  10.172
32883SOL    HW1  482   0.636  12.987  10.252
32883SOL    HW2  483   0.704  13.077  10.151
32884SOL     OW  484   9.910   5.034  12.907
32884SOL    HW1  485  10.000   5.016  12.933
32884SOL    HW2  486   9.917   5.112  12.851
32885SOL     OW  487  12.674   3.833   4.128
32885SOL    HW1  488  12.765   3.863   4.135
32885SOL    HW2  489  12.631   3.900   4.075
32886SOL     OW  490   5.991  13.759   2.672
32886SOL    HW1  491   6.015  13.666   2.666
32886SOL    HW2  492   5.935  13.764   2.750
32887SOL     OW  493   1.705   5.041   0.060
32887SOL    HW1  494   1.648   4.967   0.040
32887SOL    HW2  495   1.755   5.055  14.858
32888SOL     OW  496   9.488   5.793   9.070
32888SOL    HW1  497   9.400   5.810   9.105
32888SOL    HW2  498   9.495   5.698   9.071
32889SOL     OW  499   4.548   1.986   1.459
32889SOL    HW1  500   4.566   1.897   1.427
32889SOL    HW2  501   4.621   2.038   1.427
32890SOL     OW  502  12.454   7.778   0.775
32890SOL    HW1  503  12.532   7.798   0.723
32890SOL    HW2  504  12.444   7.853   0.834
32891SOL     OW  505   9.321   3.091   0.355
32891SOL    HW1  506   9.347   3.155   0.288
32891SOL    HW2  507   9.396   3.088   0.414
32892SOL     OW  508   3.776   5.675  10.975
32892SOL    HW1  509   3.721   5.616  10.924
32892SOL    HW2  510   3.724   5.696  11.052
32893SOL     OW  511   3.475   7.110  10.847
32893SOL    HW1  512   3.415   7.119  10.921
32893SOL    HW2  513   3.542   7.049  10.878
32894SOL     OW  514   0.186   0.705   7.216
32894SOL    HW1  515   0.184   0.778   7.278
32894SOL    HW2  516   0.176   0.747   7.130
32895SOL     OW  517  11.461   0.632   4.895
32895SOL    HW1  518  11.540   0.669   4.936
32895SOL    HW2  519  11.397   0.630   4.966
32896SOL     OW  520  13.457  10.459  10.316
32896SOL    HW1  521  13.374  10.506  10.309
32896SOL    HW2  522  13.483  10.442  10.225
32897SOL     OW  523   4.638   9.090   2.657
32897SOL    HW1  524   4.604   9.139   2.732
32897SOL    HW2  525   4.604   9.136   2.580
32898SOL     OW  526  13.455   6.706   3.349
32898SOL    HW1  527  13.469   6.795   3.317
32898SOL    HW2  528  13.482   6.650   3.276
32899SOL     OW  529   9.712   7.512  13.521
32899SOL    HW1  530   9.660   7.551  13.591
32899SOL    HW2  531   9.668   7.429  13.502
32900SOL     OW  532   2.073   0.912   5.169
32900SOL    HW1  533   2.108   0.975   5.232
32900SOL    HW2  534   2.053   0.964   5.091
32901SOL     OW  535   3.156   7.836   4.357
32901SOL    HW1  536   3.181   7.874   4.273
32901SOL    HW2  537   3.164   7.908   4.419
32902SOL     OW  538   0.009  12.480   9.852
32902SOL    HW1  539  14.863  12.400   9.807
32902SOL    HW2  540   0.052  12.451   9.932
32903SOL     OW  541   4.999   5.228   2.032
32903SOL    HW1  542   4.958   5.144   2.052
32903SOL    HW2  543   5.009   5.229   1.937
32904SOL     OW  544   9.164   5.955   5.392
32904SOL    HW1  545   9.216   5.888   5.435
32904SOL    HW2  546   9.080   5.913   5.375
32905SOL     OW  547  12.351   3.260   6.740
32905SOL    HW1  548  12.301   3.312   6.803
32905SOL    HW2  549  12.442   3.272   6.765
32906SOL     OW  550   2.262  12.603   2.145
32906SOL    HW1  551   2.278  12.547   2.221
32906SOL    HW2  552   2.180  12.648   2.165
32907SOL     OW  553   5.683   2.557  14.515
32907SOL    HW1  554   5.676   2.472  14.472
32907SOL    HW2  555   5.620   2.553  14.587
32908SOL     OW  556  11.947   0.908   5.783
32908SOL    HW1  557  12.033   0.873   5.805
32908SOL    HW2  558  11.952   0.927   5.689
32909SOL     OW  559   2.542   7.283   9.753
32909SOL    HW1  560   2.575   7.236   9.676
32909SOL    HW2  561   2.452   7.252   9.764
32910SOL     OW  562   5.114   4.758   7.478
32910SOL    HW1  563   5.109   4.695   7.549
32910SOL    HW2  564   5.199   4.802   7.490
32911SOL     OW  565   5.909   9.873   2.204
32911SOL    HW1  566   5.971   9.825   2.259
32911SOL    HW2  567   5.838   9.897   2.264
32912SOL     OW  568   1.870   8.932   0.834
32912SOL    HW1  569   1.801   8.944   0.769
32912SOL    HW2  570   1.944   8.896   0.785
32913SOL     OW  571  13.814   0.549   8.994
32913SOL    HW1  572  13.867   0.527   9.071
32913SOL    HW2  573  13.761   0.470   8.980
32914SOL     OW  574  11.720  10.510   0.419
32914SOL    HW1  575  11.662  10.585   0.431
32914SOL    HW2  576  11.716  10.463   0.502
32915SOL     OW  577  10.260  12.567  13.243
32915SOL    HW1  578  10.252  12.604  13.155
32915SOL    HW2  579  10.182  12.511  13.252
32916SOL     OW  580  11.151  13.649   2.268
32916SOL    HW1  581  11.072  13.631   2.218
32916SOL    HW2  582  11.211  13.577   2.246
32917SOL     OW  583   1.371  12.404   4.760
32917SOL    HW1  584   1.335  12.491   4.739
32917SOL    HW2  585   1.464  12.413   4.743
32918SOL     OW  586  12.946   7.030   0.866
32918SOL    HW1  587  12.895   7.066   0.794
32918SOL    HW2  588  13.037   7.053   0.846
32919SOL     OW  589   6.539   3.864   9.235
32919SOL    HW1  590   6.477   3.928   9.270
32919SOL    HW2  591   6.598   3.846   9.308
32920SOL     OW  592   2.970  11.964   2.296
32920SOL    HW1  593   2.973  11.879   2.254
32920SOL    HW2  594   2.897  12.010   2.254
32921SOL     OW  595  10.799   7.713  11.502
32921SOL    HW1  596  10.880   7.760  11.522
32921SOL    HW2  597  10.786   7.655  11.577
32922SOL     OW  598  11.229   3.749   1.205
32922SOL    HW1  599  11.284   3.825   1.221
32922SOL    HW2  600  11.235   3.733   1.111
32923SOL     OW  601   3.300   3.261   8.726
32923SOL    HW1  602   3.264   3.178   8.694
32923SOL    HW2  603   3.347   3.298   8.652
32924SOL     OW  604  10.983  14.056   3.120
32924SOL    HW1  605  11.060  14.025   3.072
32924SOL    HW2  606  10.937  13.976   3.146
32925SOL     OW  607   4.392  10.722  10.047
32925SOL    HW1  608   4.323  10.758  10.102
32925SOL    HW2  609   4.471  10.768  10.075
32926SOL     OW  610  11.452   9.857   1.161
32926SOL    HW1  611  11.361   9.844   1.188
32926SOL    HW2  612  11.504   9.813   1.228
32927SOL     OW  613  11.688  14.085   5.677
32927SOL    HW1  614  11.630  14.143   5.727
32927SOL    HW2  615  11.722  14.024   5.743
32928SOL     OW  616  11.811  12.811   9.334
32928SOL    HW1  617  11.785  12.800   9.426
32928SOL    HW2  618  11.825  12.905   9.324
32929SOL     OW  619   3.903   4.035  13.257
32929SOL    HW1  620   3.915   3.948  13.295
32929SOL    HW2  621   3.897   4.093  13.332
32930SOL     OW  622   2.067   1.877  11.911
32930SOL    HW1  623   2.113   1.794  11.915
32930SOL    HW2  624   2.036   1.883  11.821
32931SOL     OW  625  10.744   7.565   3.932
32931SOL    HW1  626  10.725   7.490   3.987
32931SOL    HW2  627  10.685   7.634   3.964
32932SOL     OW  628  14.681  10.378   9.882
32932SOL    HW1  629  14.764  10.384   9.835
32932SOL    HW2  630  14.626  10.323   9.827
32933SOL     OW  631   4.706   6.160  10.756
32933SOL    HW1  632   4.775   6.227  10.753
32933SOL    HW2  633   4.670   6.168  10.844
32934SOL     OW  634   4.156   7.184   9.705
32934SOL    HW1  635   4.238   7.141   9.682
32934SOL    HW2  636   4.096   7.162   9.633
32935SOL     OW  637   4.531   9.691   7.076
32935SOL    HW1  638   4.622   9.720   7.075
32935SOL    HW2  639   4.530   9.618   7.138
32936SOL     OW  640   4.355  12.921  13.102
32936SOL    HW1  641   4.376  12.828  13.101
32936SOL    HW2  642   4.281  12.930  13.043
32937SOL     OW  643  14.723  11.508  11.312
32937SOL    HW1  644  14.762  11.445  11.373
32937SOL    HW2  645  14.776  11.587  11.321
32938SOL     OW  646  11.196   7.094   2.166
32938SOL    HW1  647  11.218   7.143   2.087
32938SOL    HW2  648  11.105   7.119   2.184
32939SOL     OW  649   9.707  10.483  14.350
32939SOL    HW1  650   9.797  10.477  14.382
32939SOL    HW2  651   9.714  10.474  14.255
32940SOL     OW  652  12.512   4.403   0.432
32940SOL    HW1  653  12.468   4.488   0.430
32940SOL    HW2  654  12.563   4.401   0.350
32941SOL     OW  655  14.090  12.232   8.259
32941SOL    HW1  656  13.995  12.225   8.262
32941SOL    HW2  657  14.107  12.306   8.201
32942SOL     OW  658   7.491   2.961  12.704
32942SOL    HW1  659   7.439   3.025  12.754
32942SOL    HW2  660   7.428   2.920  12.645
32943SOL     OW  661  12.632  12.553   0.901
32943SOL    HW1  662  12.544  12.543   0.937
32943SOL    HW2  663  12.631  12.640   0.860
32944SOL     OW  664   5.341   8.714   7.538
32944SOL    HW1  665   5.266   8.699   7.480
32944SOL    HW2  666   5.311   8.685   7.624
32945SOL     OW  667  13.420   6.694   7.744
32945SOL    HW1  668  13.446   6.781   7.774
32945SOL    HW2  669  13.327   6.688   7.766
32946SOL     OW  670  12.422  10.536   5.324
32946SOL    HW1  671  12.461  10.623   5.330
32946SOL    HW2  672  12.436  10.509   5.233
32947SOL     OW  673   0.801   3.671   2.725
32947SOL    HW1  674   0.772   3.593   2.678
32947SOL    HW2  675   0.878   3.642   2.774
32948SOL     OW  676   6.517   6.270   3.132
32948SOL    HW1  677   6.437   6.312   3.163
32948SOL    HW2  678   6.487   6.203   3.070
32949SOL     OW  679   7.785  10.068   7.000
32949SOL    HW1  680   7.738  10.040   7.079
32949SOL    HW2  681   7.802  10.161   7.013
32950SOL     OW  682   2.806   9.732  10.070
32950SOL    HW1  683   2.724   9.740  10.021
32950SOL    HW2  684   2.800   9.646  10.113
32951SOL     OW  685   7.821   9.871  10.576
32951SOL    HW1  686   7.899   9.902  10.529
32951SOL    HW2  687   7.748   9.892  10.518
32952SOL     OW  688   6.072   9.914   8.318
32952SOL    HW1  689   6.001   9.859   8.350
32952SOL    HW2  690   6.066   9.907   8.222
32953SOL     OW  691   5.289   9.160  11.378
32953SOL    HW1  692   5.213   9.124  11.424
32953SOL    HW2  693   5.284   9.122  11.290
32954SOL     OW  694  10.686  14.683   6.294
32954SOL    HW1  695  10.738  14.652   6.220
32954SOL    HW2  696  10.624  14.612   6.312
32955SOL     OW  697  14.808   5.241   5.718
32955SOL    HW1  698  14.810   5.208   5.628
32955SOL    HW2  699  14.823   5.335   5.709
32956SOL     OW  700   7.807  12.469  10.288
32956SOL    HW1  701   7.797  12.442  10.379
32956SOL    HW2  702   7.720  12.458  10.250
32957SOL     OW  703   8.644   4.007   1.933
32957SOL    HW1  704   8.609   4.056   2.007
32957SOL    HW2  705   8.707   4.067   1.892
32958SOL     OW  706   8.376  14.006   4.831
32958SOL    HW1  707   8.449  13.977   4.776
32958SOL    HW2  708   8.325  14.064   4.775
32959SOL     OW  709   3.811  12.455  14.124
32959SOL    HW1  710   3.782  12.546  14.119
32959SOL    HW2  711   3.749  12.414  14.184
32960SOL     OW  712   5.806   0.707   3.612
32960SOL    HW1  713   5.718   0.744   3.612
32960SOL    HW2  714   5.863   0.783   3.597
32961SOL     OW  715   1.830   4.264  14.315
32961SOL    HW1  716   1.740   4.237  14.296
32961SOL    HW2  717   1.831   4.358  14.299
32962SOL     OW  718   2.052  13.483  14.011
32962SOL    HW1  719   2.048  13.546  14.082
32962SOL    HW2  720   2.030  13.534  13.932
32963SOL     OW  721   8.434   6.049   3.090
32963SOL    HW1  722   8.521   6.015   3.113
32963SOL    HW2  723   8.448   6.143   3.077
32964SOL     OW  724   1.350   5.050  14.677
32964SOL    HW1  725   1.429   5.102  14.662
32964SOL    HW2  726   1.382   4.961  14.695
32965SOL     OW  727  11.085  10.482   0.134
32965SOL    HW1  728  11.161  10.515   0.086
32965SOL    HW2  729  11.107  10.496   0.226
32966SOL     OW  730   8.513   2.962   2.763
32966SOL    HW1  731   8.481   2.886   2.810
32966SOL    HW2  732   8.566   3.009   2.827
32967SOL     OW  733  10.107   3.846   3.615
32967SOL    HW1  734  10.072   3.920   3.566
32967SOL    HW2  735  10.170   3.886   3.676
32968SOL     OW  736  12.441   4.277   3.256
32968SOL    HW1  737  12.372   4.211   3.256
32968SOL    HW2  738  12.515   4.234   3.212
32969SOL     OW  739   4.714  14.029   9.645
32969SOL    HW1  740   4.706  13.935   9.666
32969SOL    HW2  741   4.718  14.072   9.730
32970SOL     OW  742   5.594   2.334   0.682
32970SOL    HW1  743   5.558   2.400   0.741
32970SOL    HW2  744   5.526   2.267   0.676
32971SOL     OW  745   8.172   2.485   2.944
32971SOL    HW1  746   8.245   2.423   2.943
32971SOL    HW2  747   8.112   2.452   2.878
32972SOL     OW  748   0.634   4.319  13.237
32972SOL    HW1  749   0.666   4.285  13.321
32972SOL    HW2  750   0.565   4.258  13.211
32973SOL     OW  751   7.244   0.628   2.997
32973SOL    HW1  752   7.329   0.665   2.974
32973SOL    HW2  753   7.181   0.697   2.977
32974SOL     OW  754   0.205   6.217  11.815
32974SOL    HW1  755   0.115   6.235  11.785
32974SOL    HW2  756   0.245   6.304  11.823
32975SOL     OW  757   4.914  14.116   3.394
32975SOL    HW1  758   4.947  14.033   3.359
32975SOL    HW2  759   4.984  14.179   3.376
32976SOL     OW  760  13.152   0.474   0.819
32976SOL    HW1  761  13.224   0.418   0.788
32976SOL    HW2  762  13.154   0.549   0.760
32977SOL     OW  763   6.371   6.118   4.378
32977SOL    HW1  764   6.357   6.081   4.291
32977SOL    HW2  765   6.450   6.172   4.369
32978SOL     OW  766   6.861   6.387  11.645
32978SOL    HW1  767   6.851   6.438  11.565
32978SOL    HW2  768   6.844   6.449  11.716
32979SOL     OW  769  13.220   8.192   9.597
32979SOL    HW1  770  13.176   8.193   9.682
32979SOL    HW2  771  13.241   8.099   9.582
32980SOL     OW  772   2.150  12.807   0.136
32980SOL    HW1  773   2.196  12.859   0.071
32980SOL    HW2  774   2.155  12.859   0.216
32981SOL     OW  775   5.285   4.463   4.303
32981SOL    HW1  776   5.334   4.416   4.371
32981SOL    HW2  777   5.234   4.529   4.352
32982SOL     OW  778   2.835   1.209   0.575
32982SOL    HW1  779   2.758   1.250   0.614
32982SOL    HW2  780   2.804   1.124   0.543
32983SOL     OW  781   8.563  12.770   2.789
32983SOL    HW1  782   8.631  12.794   2.852
32983SOL    HW2  783   8.543  12.679   2.809
32984SOL     OW  784   9.478   3.550   3.173
32984SOL    HW1  785   9.447   3.464   3.143
32984SOL    HW2  786   9.571   3.537   3.190
32985SOL     OW  787  11.183   2.730   1.108
32985SOL    HW1  788  11.238   2.668   1.059
32985SOL    HW2  789  11.139   2.677   1.174
32986SOL     OW  790  12.879  11.219   1.388
32986SOL    HW1  791  12.798  11.168   1.382
32986SOL    HW2  792  12.857  11.293   1.445
32987SOL     OW  793  10.104   9.784   9.106
32987SOL    HW1  794  10.157   9.755   9.032
32987SOL    HW2  795  10.123   9.878   9.113
32988SOL     OW  796   0.055   3.891  10.975
32988SOL    HW1  797  14.840   3.908  10.977
32988SOL    HW2  798   0.062   3.795  10.974
32989SOL     OW  799  13.891   8.755  14.029
32989SOL    HW1  800  13.946   8.757  14.107
32989SOL    HW2  801  13.882   8.661  14.009
32990SOL     OW  802  11.784   9.168  14.145
32990SOL    HW1  803  11.751   9.240  14.199
32990SOL    HW2  804  11.706   9.119  14.120
32991SOL     OW  805  13.033  11.223   6.968
32991SOL    HW1  806  12.995  11.168   6.901
32991SOL    HW2  807  13.039  11.310   6.928
32992SOL     OW  808   9.014  13.362  12.381
32992SOL    HW1  809   8.950  13.308  12.427
32992SOL    HW2  810   9.082  13.379  12.446
32993SOL     OW  811  14.043   2.456   1.347
32993SOL    HW1  812  14.080   2.532   1.302
32993SOL    HW2  813  13.953   2.451   1.316
32994SOL     OW  814   4.213  13.855   6.715
32994SOL    HW1  815   4.133  13.861   6.662
32994SOL    HW2  816   4.189  13.896   6.798
32995SOL     OW  817  14.688   5.178   1.203
32995SOL    HW1  818  14.755   5.236   1.240
32995SOL    HW2  819  14.699   5.096   1.250
32996SOL     OW  820   9.596   7.731   8.143
32996SOL    HW1  821   9.639   7.790   8.082
32996SOL    HW2  822   9.514   7.776   8.166
32997SOL     OW  823   6.881  10.000   1.524
32997SOL    HW1  824   6.938   9.923   1.516
32997SOL    HW2  825   6.859  10.022   1.434
32998SOL     OW  826   7.090   5.919  10.759
32998SOL    HW1  827   7.008   5.871  10.760
32998SOL    HW2  828   7.153   5.860  10.799
32999SOL     OW  829   9.033   8.554   9.247
32999SOL    HW1  830   8.966   8.619   9.224
32999SOL    HW2  831   9.098   8.560   9.178
33000SOL     OW  832   6.383  13.455   2.115
33000SOL    HW1  833   6.391  13.520   2.185
33000SOL    HW2  834   6.474  13.432   2.094
33001SOL     OW  835   7.869  13.799   5.578
33001SOL    HW1  836   7.898  13.783   5.489
33001SOL    HW2  837   7.848  13.713   5.613
33002SOL     OW  838   1.671  11.638   8.201
33002SOL    HW1  839   1.665  11.659   8.108
33002SOL    HW2  840   1.685  11.543   8.203
33003SOL     OW  841   2.383   9.160   3.647
33003SOL    HW1  842   2.432   9.180   3.568
33003SOL    HW2  843   2.341   9.243   3.672
33004SOL     OW  844   7.980   3.671   3.081
33004SOL    HW1  845   8.027   3.752   3.061
33004SOL    HW2  846   7.926   3.692   3.157
33005SOL     OW  847  10.729   5.456  14.576
33005SOL    HW1  848  10.749   5.363  14.570
33005SOL    HW2  849  10.719   5.484  14.485
33006SOL     OW  850  12.899   0.333   8.524
33006SOL    HW1  851  12.992   0.341   8.500
33006SOL    HW2  852  12.853   0.327   8.441
33007SOL     OW  853   2.095   0.637   2.362
33007SOL    HW1  854   2.184   0.664   2.341
33007SOL    HW2  855   2.039   0.688   2.303
33008SOL     OW  856   3.497   5.807   7.785
33008SOL    HW1  857   3.494   5.833   7.877
33008SOL    HW2  858   3.470   5.715   7.786
33009SOL     OW  859  14.440   7.341   7.629
33009SOL    HW1  860  14.366   7.382   7.583
33009SOL    HW2  861  14.506   7.328   7.561
33010SOL     OW  862   3.434  14.365  10.532
33010SOL    HW1  863   3.461  14.325  10.449
33010SOL    HW2  864   3.433  14.292  10.594
33011SOL     OW  865   9.703  11.716  10.773
33011SOL    HW1  866   9.750  11.734  10.692
33011SOL    HW2  867   9.642  11.789  10.783
33012SOL     OW  868   4.931   5.489  10.937
33012SOL    HW1  869   5.004   5.523  10.988
33012SOL    HW2  870   4.971   5.450  10.859
33013SOL     OW  871   0.139   8.038   3.046
33013SOL    HW1  872   0.075   8.073   2.984
33013SOL    HW2  873   0.211   8.101   3.043
33014SOL     OW  874   4.356   7.475  11.104
33014SOL    HW1  875   4.348   7.515  11.018
33014SOL    HW2  876   4.298   7.527  11.160
33015SOL     OW  877  11.145   6.380  13.974
33015SOL    HW1  878  11.178   6.463  13.939
33015SOL    HW2  879  11.075   6.355  13.914
33016SOL     OW  880   2.187   9.379   3.606
33016SOL    HW1  881   2.179   9.393   3.511
33016SOL    HW2  882   2.122   9.439   3.643
33017SOL     OW  883   5.757   6.017   3.613
33017SOL    HW1  884   5.829   6.017   3.675
33017SOL    HW2  885   5.680   5.996   3.665
33018SOL     OW  886   9.636   3.679  11.185
33018SOL    HW1  887   9.694   3.742  11.142
33018SOL    HW2  888   9.566   3.664  11.122
33019SOL     OW  889   2.423  11.132   4.928
33019SOL    HW1  890   2.512  11.135   4.963
33019SOL    HW2  891   2.397  11.223   4.920
33020SOL     OW  892   1.429   8.506  14.096
33020SOL    HW1  893   1.342   8.471  14.114
33020SOL    HW2  894   1.482   8.480  14.172
33021SOL     OW  895   9.509   7.732   4.292
33021SOL    HW1  896   9.492   7.826   4.302
33021SOL    HW2  897   9.599   7.728   4.258
33022SOL     OW  898   2.414   5.965   1.165
33022SOL    HW1  899   2.397   6.059   1.158
33022SOL    HW2  900   2.342   5.931   1.219
33023SOL     OW  901   1.101   9.273   1.885
33023SOL    HW1  902   1.186   9.228   1.886
33023SOL    HW2  903   1.081   9.290   1.977
33024SOL     OW  904   0.805   5.070   6.579
33024SOL    HW1  905   0.889   5.025   6.579
33024SOL    HW2  906   0.828   5.162   6.564
33025SOL     OW  907  13.933  14.233  12.182
33025SOL    HW1  908  13.860  14.173  12.197
33025SOL    HW2  909  14.011  14.177  12.185
33026SOL     OW  910   5.562   0.937   4.170
33026SOL    HW1  911   5.471   0.956   4.192
33026SOL    HW2  912   5.604   1.023   4.168
33027SOL     OW  913  12.539   1.507   7.520
33027SOL    HW1  914  12.537   1.590   7.473
33027SOL    HW2  915  12.526   1.531   7.612
33028SOL     OW  916   3.322   1.703   2.557
33028SOL    HW1  917   3.392   1.642   2.579
33028SOL    HW2  918   3.242   1.651   2.563
33029SOL     OW  919   0.399   9.476   4.757
33029SOL    HW1  920   0.376   9.384   4.774
33029SOL    HW2  921   0.465   9.472   4.688
33030SOL     OW  922   8.030   6.500   8.204
33030SOL    HW1  923   8.105   6.530   8.255
33030SOL    HW2  924   7.955   6.547   8.242
33031SOL     OW  925  11.446   2.091   2.452
33031SOL    HW1  926  11.424   2.038   2.375
33031SOL    HW2  927  11.369   2.084   2.509
33032SOL     OW  928  14.807   9.815   1.468
33032SOL    HW1  929   0.015   9.853   1.456
33032SOL    HW2  930  14.770   9.811   1.380
33033SOL     OW  931  14.083   3.788   1.082
33033SOL    HW1  932  14.021   3.817   1.148
33033SOL    HW2  933  14.168   3.792   1.125
33034SOL     OW  934   0.513  13.008   2.256
33034SOL    HW1  935   0.551  13.095   2.248
33034SOL    HW2  936   0.551  12.958   2.185
33035SOL     OW  937   9.771  14.648   8.489
33035SOL    HW1  938   9.779  14.717   8.555
33035SOL    HW2  939   9.682  14.615   8.500
33036SOL     OW  940  13.243  14.846   5.386
33036SOL    HW1  941  13.191   0.022   5.445
33036SOL    HW2  942  13.273   0.027   5.318
33037SOL     OW  943  11.089   8.019  14.071
33037SOL    HW1  944  11.144   7.988  14.142
33037SOL    HW2  945  11.128   7.982  13.992
33038SOL     OW  946  12.773   8.343  11.409
33038SOL    HW1  947  12.808   8.370  11.494
33038SOL    HW2  948  12.716   8.414  11.383
33039SOL     OW  949   1.017  13.282   4.678
33039SOL    HW1  950   0.983  13.217   4.740
33039SOL    HW2  951   0.995  13.366   4.717
33040SOL     OW  952   4.881   2.514   7.635
33040SOL    HW1  953   4.945   2.464   7.686
33040SOL    HW2  954   4.913   2.604   7.638
33041SOL     OW  955   5.498   9.181   9.555
33041SOL    HW1  956   5.479   9.090   9.535
33041SOL    HW2  957   5.580   9.179   9.604
33042SOL     OW  958   5.670   4.728   4.652
33042SOL    HW1  959   5.631   4.735   4.739
33042SOL    HW2  960   5.747   4.785   4.657
33043SOL     OW  961   4.210   9.888   8.031
33043SOL    HW1  962   4.252   9.897   7.946
33043SOL    HW2  963   4.122   9.923   8.018
33044SOL     OW  964   5.531   9.594   3.791
33044SOL    HW1  965   5.624   9.615   3.806
33044SOL    HW2  966   5.517   9.612   3.698
33045SOL     OW  967   5.391   0.806   8.035
33045SOL    HW1  968   5.382   0.885   8.088
33045SOL    HW2  969   5.322   0.748   8.067
33046SOL     OW  970   4.769   9.597   8.711
33046SOL    HW1  971   4.787   9.531   8.778
33046SOL    HW2  972   4.834   9.665   8.727
33047SOL     OW  973   9.206   6.466   8.504
33047SOL    HW1  974   9.160   6.411   8.568
33047SOL    HW2  975   9.215   6.551   8.549
33048SOL     OW  976   4.795  13.737  14.838
33048SOL    HW1  977   4.821  13.712   0.048
33048SOL    HW2  978   4.700  13.741  14.841
33049SOL     OW  979   7.898  11.939   9.275
33049SOL    HW1  980   7.854  11.953   9.191
33049SOL    HW2  981   7.914  11.845   9.279
33050SOL     OW  982   1.085  13.276  13.071
33050SOL    HW1  983   1.085  13.371  13.087
33050SOL    HW2  984   1.120  13.238  13.152
33051SOL     OW  985   8.389   4.437   5.619
33051SOL    HW1  986   8.453   4.507   5.635
33051SOL    HW2  987   8.360   4.452   5.529
33052SOL     OW  988   6.780   2.348   2.303
33052SOL    HW1  989   6.703   2.395   2.336
33052SOL    HW2  990   6.790   2.378   2.213
33053SOL     OW  991   5.690   6.050  10.724
33053SOL    HW1  992   5.746   6.128  10.729
33053SOL    HW2  993   5.726   5.999  10.652
33054SOL     OW  994  11.710  12.021   9.298
33054SOL    HW1  995  11.667  12.092   9.347
33054SOL    HW2  996  11.784  11.995   9.353
33055SOL     OW  997   2.734   0.400   3.173
33055SOL    HW1  998   2.703   0.468   3.233
33055SOL    HW2  999   2.759   0.448   3.094
33056SOL     OW 1000   9.455   0.448   3.404
33056SOL    HW1 1001   9.365   0.458   3.376
33056SOL    HW2 1002   9.449   0.401   3.488
33057SOL     OW 1003  11.254   7.093  10.316
33057SOL    HW1 1004  11.319   7.153  10.352
33057SOL    HW2 1005  11.184   7.092  10.381
33058SOL     OW 1006   2.964   1.162  11.275
33058SOL    HW1 1007   2.879   1.118  11.281
33058SOL    HW2 1008   2.978   1.174  11.181
33059SOL     OW 1009   3.006  13.183   3.012
33059SOL    HW1 1010   3.033  13.260   2.963
33059SOL    HW2 1011   2.933  13.146   2.962
33060SOL     OW 1012   7.764   9.182   0.119
33060SOL    HW1 1013   7.836   9.240   0.142
33060SOL    HW2 1014   7.688   9.240   0.110
33061SOL     OW 1015  11.807  11.893   6.080
33061SOL    HW1 1016  11.758  11.882   6.162
33061SOL    HW2 1017  11.853  11.809   6.069
33062SOL     OW 1018   7.599   4.905   0.527
33062SOL    HW1 1019   7.580   4.811   0.528
33062SOL    HW2 1020   7.552   4.939   0.604
33063SOL     OW 1021   1.523   7.395   5.130
33063SOL    HW1 1022   1.502   7.483   5.162
33063SOL    HW2 1023   1.550   7.347   5.209
33064SOL     OW 1024   2.420   9.440   3.393
33064SOL    HW1 1025   2.508   9.404   3.381
33064SOL    HW2 1026   2.424   9.487   3.477
33065SOL     OW 1027   4.339  10.056  13.800
33065SOL    HW1 1028   4.303  10.007  13.726
33065SOL    HW2 1029   4.275  10.043  13.870
33066SOL     OW 1030  12.559   7.397  10.580
33066SOL    HW1 1031  12.650   7.371  10.594
33066SOL    HW2 1032  12.550   7.402  10.484
33067SOL     OW 1033   3.415   3.586   7.409
33067SOL    HW1 1034   3.371   3.551   7.486
33067SOL    HW2 1035   3.348   3.637   7.364
33068SOL     OW 1036  11.245   3.284   4.258
33068SOL    HW1 1037  11.272   3.372   4.283
33068SOL    HW2 1038  11.191   3.297   4.180
33069SOL     OW 1039  10.539   7.427  13.215
33069SOL    HW1 1040  10.630   7.437  13.243
33069SOL    HW2 1041  10.488   7.462  13.287
33070SOL     OW 1042  12.656  14.822   2.807
33070SOL    HW1 1043  12.614   0.026   2.828
33070SOL    HW2 1044  12.609  14.757   2.859
33071SOL     OW 1045   6.684   1.002   8.028
33071SOL    HW1 1046   6.687   1.093   8.059
33071SOL    HW2 1047   6.655   1.009   7.937
33072SOL     OW 1048  10.238   6.347   6.211
33072SOL    HW1 1049  10.283   6.275   6.168
33072SOL    HW2 1050  10.272   6.348   6.301
33073SOL     OW 1051   9.616  11.686   9.338
33073SOL    HW1 1052   9.544  11.718   9.391
33073SOL    HW2 1053   9.676  11.645   9.400
33074SOL     OW 1054  12.700   5.819   7.155
33074SOL    HW1 1055  12.757   5.742   7.149
33074SOL    HW2 1056  12.630   5.802   7.092
33075SOL     OW 1057  14.063   7.848   6.405
33075SOL    HW1 1058  14.031   7.934   6.433
33075SOL    HW2 1059  14.150   7.865   6.369
33076SOL     OW 1060  10.012  10.789   4.138
33076SOL    HW1 1061  10.048  10.822   4.221
33076SOL    HW2 1062   9.958  10.861   4.105
33077SOL     OW 1063   8.702  11.440   7.587
33077SOL    HW1 1064   8.606  11.445   7.590
33077SOL    HW2 1065   8.721  11.415   7.496
33078SOL     OW 1066  14.010  10.085   0.805
33078SOL    HW1 1067  13.987  10.167   0.761
33078SOL    HW2 1068  14.091  10.104   0.851
33079SOL     OW 1069  11.526  11.313   3.746
33079SOL    HW1 1070  11.454  11.286   3.803
33079SOL    HW2 1071  11.598  11.254   3.768
33080SOL     OW 1072   5.328   5.889   5.965
33080SOL    HW1 1073   5.357   5.815   6.019
33080SOL    HW2 1074   5.238   5.867   5.940
33081SOL     OW 1075  14.250  11.800   7.331
33081SOL    HW1 1076  14.282  11.747   7.405
33081SOL    HW2 1077  14.187  11.743   7.286
33082SOL     OW 1078  13.764   8.455  13.041
33082SOL    HW1 1079  13.762   8.521  13.109
33082SOL    HW2 1080  13.676   8.418  13.040
33083SOL     OW 1081  13.195   1.633  11.992
33083SOL    HW1 1082  13.118   1.615  12.047
33083SOL    HW2 1083  13.240   1.704  12.037
33084SOL     OW 1084   4.541   6.522   5.771
33084SOL    HW1 1085   4.602   6.592   5.793
33084SOL    HW2 1086   4.455   6.558   5.789
33085SOL     OW 1087   3.976   5.612   2.846
33085SOL    HW1 1088   4.036   5.538   2.836
33085SOL    HW2 1089   3.977   5.655   2.760
33086SOL     OW 1090   9.895  13.892   2.612
33086SOL    HW1 1091   9.862  13.815   2.565
33086SOL    HW2 1092   9.987  13.899   2.585
33087SOL     OW 1093  10.044  14.868   1.740
33087SOL    HW1 1094  10.001  14.815   1.807
33087SOL    HW2 1095  10.092  14.805   1.686
33088SOL     OW 1096   9.501  13.107   6.367
33088SOL    HW1 1097   9.593  13.093   6.346
33088SOL    HW2 1098   9.501  13.171   6.437
33089SOL     OW 1099  10.028  12.990   5.451
33089SOL    HW1 1100   9.963  12.959   5.388
33089SOL    HW2 1101  10.111  12.981   5.405
33090SOL     OW 1102  11.605   8.396   9.474
33090SOL    HW1 1103  11.603   8.385   9.569
33090SOL    HW2 1104  11.635   8.486   9.461
33091SOL     OW 1105   1.775  10.217  13.623
33091SOL    HW1 1106   1.842  10.211  13.555
33091SOL    HW2 1107   1.692  10.227  13.575
33092SOL     OW 1108   3.930   4.775  12.218
33092SOL    HW1 1109   3.864   4.826  12.264
33092SOL    HW2 1110   3.888   4.690  12.204
33093SOL     OW 1111   6.908   7.773   0.986
33093SOL    HW1 1112   6.900   7.866   0.963
33093SOL    HW2 1113   6.888   7.726   0.905
33094SOL     OW 1114   6.449  11.090   4.957
33094SOL    HW1 1115   6.460  11.183   4.979
33094SOL    HW2 1116   6.492  11.080   4.872
33095SOL     OW 1117  12.729   9.021   4.495
33095SOL    HW1 1118  12.671   8.944   4.499
33095SOL    HW2 1119  12.817   8.985   4.508
33096SOL     OW 1120   8.860   0.235   9.309
33096SOL    HW1 1121   8.839   0.204   9.397
33096SOL    HW2 1122   8.897   0.158   9.266
33097SOL     OW 1123   9.073   4.374   4.924
33097SOL    HW1 1124   9.057   4.279   4.930
33097SOL    HW2 1125   8.993   4.414   4.956
33098SOL     OW 1126  12.053  12.554  12.533
33098SOL    HW1 1127  12.107  12.578  12.458
33098SOL    HW2 1128  12.035  12.638  12.577
33099SOL     OW 1129   1.648   2.248  12.200
33099SOL    HW1 1130   1.580   2.246  12.133
33099SOL    HW2 1131   1.710   2.180  12.175
33100SOL     OW 1132   8.753   0.195   9.560
33100SOL    HW1 1133   8.823   0.130   9.560
33100SOL    HW2 1134   8.680   0.152   9.605
33101SOL     OW 1135  14.393   6.999   8.966
33101SOL    HW1 1136  14.362   6.927   8.912
33101SOL    HW2 1137  14.314   7.033   9.008
33102SOL     OW 1138  11.613  13.766   4.645
33102SOL    HW1 1139  11.654  13.851   4.659
33102SOL    HW2 1140  11.583  13.740   4.732
33103SOL     OW 1141   2.910   2.227   6.889
33103SOL    HW1 1142   2.949   2.249   6.973
33103SOL    HW2 1143   2.829   2.279   6.885
33104SOL     OW 1144  12.138   3.255   2.279
33104SOL    HW1 1145  12.148   3.163   2.254
33104SOL    HW2 1146  12.115   3.252   2.372
33105SOL     OW 1147   5.776   9.731   3.855
33105SOL    HW1 1148   5.762   9.751   3.948
33105SOL    HW2 1149   5.866   9.699   3.851
33106SOL     OW 1150   3.235  14.732   4.344
33106SOL    HW1 1151   3.140  14.744   4.350
33106SOL    HW2 1152   3.249  14.703   4.254
33107SOL     OW 1153   3.904   0.913   4.853
33107SOL    HW1 1154   3.856   0.894   4.933
33107SOL    HW2 1155   3.860   0.990   4.816
33108SOL     OW 1156   1.140   6.908   8.537
33108SOL    HW1 1157   1.085   6.985   8.526
33108SOL    HW2 1158   1.201   6.911   8.463
33109SOL     OW 1159  11.243   1.296   1.966
33109SOL    HW1 1160  11.221   1.343   2.046
33109SOL    HW2 1161  11.164   1.245   1.945
33110SOL     OW 1162   3.123   8.682   0.989
33110SOL    HW1 1163   3.099   8.590   0.997
33110SOL    HW2 1164   3.189   8.683   0.919
33111SOL     OW 1165   5.410   3.478   6.915
33111SOL    HW1 1166   5.475   3.428   6.963
33111SOL    HW2 1167   5.407   3.563   6.960
33112SOL     OW 1168   8.436  13.565   6.188
33112SOL    HW1 1169   8.380  13.519   6.127
33112SOL    HW2 1170   8.382  13.577   6.267
33113SOL     OW 1171   8.665   3.819  12.991
33113SOL    HW1 1172   8.603   3.887  12.963
33113SOL    HW2 1173   8.651   3.747  12.930
33114SOL     OW 1174  10.175   9.489   4.337
33114SOL    HW1 1175  10.146   9.412   4.289
33114SOL    HW2 1176  10.161   9.562   4.277
33115SOL     OW 1177   1.303   6.008   3.235
33115SOL    HW1 1178   1.316   6.084   3.292
33115SOL    HW2 1179   1.386   5.960   3.239
33116SOL     OW 1180   7.051   1.627   1.175
33116SOL    HW1 1181   7.064   1.644   1.269
33116SOL    HW2 1182   7.020   1.536   1.171
33117SOL     OW 1183   1.768  12.840  10.413
33117SOL    HW1 1184   1.834  12.814  10.349
33117SOL    HW2 1185   1.705  12.892  10.363
33118SOL     OW 1186   9.482   7.833   2.078
33118SOL    HW1 1187   9.553   7.896   2.067
33118SOL    HW2 1188   9.459   7.837   2.171
33119SOL     OW 1189   1.431   0.569   4.774
33119SOL    HW1 1190   1.342   0.583   4.743
33119SOL    HW2 1191   1.427   0.489   4.827
33120SOL     OW 1192   6.683   7.367   7.617
33120SOL    HW1 1193   6.683   7.273   7.632
33120SOL    HW2 1194   6.591   7.393   7.627
33121SOL     OW 1195   0.697   0.833   3.704
33121SOL    HW1 1196   0.606   0.859   3.690
33121SOL    HW2 1197   0.714   0.856   3.796
33122SOL     OW 1198  12.222  13.311   6.570
33122SOL    HW1 1199  12.171  13.353   6.640
33122SOL    HW2 1200  12.272  13.243   6.614
33123SOL     OW 1201   2.119  14.609   1.034
33123SOL    HW1 1202   2.205  14.591   1.073
33123SOL    HW2 1203   2.133  14.595   0.940
33124SOL     OW 1204  14.113   3.791  11.579
33124SOL    HW1 1205  14.209   3.790  11.575
33124SOL    HW2 1206  14.090   3.711  11.626
33125SOL     OW 1207  13.421   0.314  12.713
33125SOL    HW1 1208  13.398   0.403  12.686
33125SOL    HW2 1209  13.337   0.272  12.733
33126SOL     OW 1210   5.606   1.947   3.157
33126SOL    HW1 1211   5.560   1.871   3.193
33126SOL    HW2 1212   5.697   1.936   3.185
33127SOL     OW 1213  13.105   1.437   6.598
33127SOL    HW1 1214  13.103   1.513   6.539
33127SOL    HW2 1215  13.173   1.380   6.560
33128SOL     OW 1216  13.037  10.663   3.479
33128SOL    HW1 1217  13.039  10.626   3.391
33128SOL    HW2 1218  12.957  10.628   3.518
33129SOL     OW 1219   3.038   9.640  14.524
33129SOL    HW1 1220   2.993   9.722  14.506
33129SOL    HW2 1221   3.120   9.647  14.474
33130SOL     OW 1222   0.371   4.228   9.934
33130SOL    HW1 1223   0.299   4.186   9.983
33130SOL    HW2 1224   0.398   4.301   9.990
33131SOL     OW 1225   8.127   4.336   2.752
33131SOL    HW1 1226   8.122   4.289   2.835
33131SOL    HW2 1227   8.205   4.300   2.709
33132SOL     OW 1228   3.046  13.879   4.231
33132SOL    HW1 1229   2.988  13.891   4.306
33132SOL    HW2 1230   3.083  13.966   4.216
33133SOL     OW 1231  11.348   4.412  11.400
33133SOL    HW1 1232  11.357   4.506  11.421
33133SOL    HW2 1233  11.362   4.368  11.484
33134SOL     OW 1234   0.851   5.698   6.984
33134SOL    HW1 1235   0.913   5.635   7.020
33134SOL    HW2 1236   0.832   5.757   7.057
33135SOL     OW 1237  11.753  12.397  11.718
33135SOL    HW1 1238  11.751  12.492  11.729
33135SOL    HW2 1239  11.736  12.383  11.624
33136SOL     OW 1240   1.070   2.224  14.263
33136SOL    HW1 1241   1.033   2.141  14.294
33136SOL    HW2 1242   1.098   2.270  14.342
33137SOL     OW 1243  12.978   8.877   7.018
33137SOL    HW1 1244  13.070   8.862   6.999
33137SOL    HW2 1245  12.975   8.898   7.112
33138SOL     OW 1246   3.537  10.459   1.759
33138SOL    HW1 1247   3.600  10.443   1.689
33138SOL    HW2 1248   3.513  10.372   1.790
33139SOL     OW 1249   1.595  13.436   7.103
33139SOL    HW1 1250   1.674  13.486   7.082
33139SOL    HW2 1251   1.583  13.449   7.197
33140SOL     OW 1252  14.197  10.303   7.756
33140SOL    HW1 1253  14.109  10.341   7.761
33140SOL    HW2 1254  14.184  10.210   7.775
33141SOL     OW 1255   1.629  12.193   1.526
33141SOL    HW1 1256   1.683  12.170   1.451
33141SOL    HW2 1257   1.576  12.267   1.497
33142SOL     OW 1258   4.163   4.127  13.203
33142SOL    HW1 1259   4.183   4.139  13.110
33142SOL    HW2 1260   4.079   4.082  13.204
33143SOL     OW 1261   8.368  11.492  13.900
33143SOL    HW1 1262   8.290  11.545  13.921
33143SOL    HW2 1263   8.415  11.485  13.983
33144SOL     OW 1264   6.342  13.169   0.024
33144SOL    HW1 1265   6.294  13.086   0.030
33144SOL    HW2 1266   6.317  13.205  14.818
33145SOL     OW 1267  10.649  10.136   1.323
33145SOL    HW1 1268  10.714  10.080   1.366
33145SOL    HW2 1269  10.681  10.225   1.338
33146SOL     OW 1270   0.872   5.106   4.018
33146SOL    HW1 1271   0.833   5.073   3.936
33146SOL    HW2 1272   0.801   5.101   4.081
33147SOL     OW 1273   4.482   2.422  10.226
33147SOL    HW1 1274   4.477   2.504  10.177
33147SOL    HW2 1275   4.433   2.439  10.306
33148SOL     OW 1276  14.023   8.047   1.852
33148SOL    HW1 1277  14.022   7.964   1.806
33148SOL    HW2 1278  14.085   8.101   1.803
33149SOL     OW 1279   3.394   8.676   3.697
33149SOL    HW1 1280   3.347   8.759   3.698
33149SOL    HW2 1281   3.446   8.677   3.778
33150SOL     OW 1282   1.216   1.136   1.292
33150SOL    HW1 1283   1.223   1.221   1.335
33150SOL    HW2 1284   1.266   1.145   1.211
33151SOL     OW 1285   1.976  11.358   8.959
33151SOL    HW1 1286   2.009  11.447   8.945
33151SOL    HW2 1287   1.893  11.356   8.913
33152SOL     OW 1288   9.756   5.755  11.771
33152SOL    HW1 1289   9.820   5.716  11.713
33152SOL    HW2 1290   9.694   5.685  11.790
33153SOL     OW 1291   5.446   1.072  11.763
33153SOL    HW1 1292   5.444   0.983  11.727
33153SOL    HW2 1293   5.498   1.122  11.701
33154SOL     OW 1294   7.995   5.963   8.465
33154SOL    HW1 1295   8.015   5.958   8.372
33154SOL    HW2 1296   7.900   5.948   8.470
33155SOL     OW 1297   3.112  12.183  13.375
33155SOL    HW1 1298   3.163  12.195  13.295
33155SOL    HW2 1299   3.121  12.090  13.396
33156SOL     OW 1300   1.873  13.929   4.169
33156SOL    HW1 1301   1.890  13.948   4.077
33156SOL    HW2 1302   1.782  13.901   4.171
33157SOL     OW 1303  11.637  13.965  11.338
33157SOL    HW1 1304  11.695  13.899  11.377
33157SOL    HW2 1305  11.695  14.037  11.314
33158SOL     OW 1306   3.856   5.817   8.708
33158SOL    HW1 1307   3.821   5.769   8.633
33158SOL    HW2 1308   3.878   5.748   8.771
33159SOL     OW 1309  14.716   6.025   9.612
33159SOL    HW1 1310  14.781   5.959   9.634
33159SOL    HW2 1311  14.703   6.075   9.693
33160SOL     OW 1312  12.624   7.975   5.875
33160SOL    HW1 1313  12.669   7.896   5.844
33160SOL    HW2 1314  12.650   8.043   5.813
33161SOL     OW 1315   5.709  10.547   1.687
33161SOL    HW1 1316   5.640  10.509   1.741
33161SOL    HW2 1317   5.774  10.477   1.678
33162SOL     OW 1318   9.388   0.234   6.625
33162SOL    HW1 1319   9.412   0.152   6.670
33162SOL    HW2 1320   9.294   0.226   6.610
33163SOL     OW 1321   7.800  13.688   7.885
33163SOL    HW1 1322   7.820  13.626   7.955
33163SOL    HW2 1323   7.786  13.633   7.808
33164SOL     OW 1324   3.047   6.504   2.669
33164SOL    HW1 1325   2.983   6.536   2.604
33164SOL    HW2 1326   3.106   6.578   2.682
33165SOL     OW 1327  12.742   6.727   1.879
33165SOL    HW1 1328  12.745   6.633   1.858
33165SOL    HW2 1329  12.657   6.756   1.846
33166SOL     OW 1330   0.319  12.691   1.996
33166SOL    HW1 1331   0.224  12.678   1.985
33166SOL    HW2 1332   0.357  12.645   1.921
33167SOL     OW 1333   6.586  14.489   0.897
33167SOL    HW1 1334   6.649  14.418   0.899
33167SOL    HW2 1335   6.508  14.451   0.857
33168SOL     OW 1336  13.188   5.105   9.041
33168SOL    HW1 1337  13.219   5.073   8.957
33168SOL    HW2 1338  13.110   5.156   9.020
33169SOL     OW 1339  11.944   5.023   2.332
33169SOL    HW1 1340  11.881   5.071   2.386
33169SOL    HW2 1341  11.973   4.951   2.387
33170SOL     OW 1342  13.542   9.610  10.908
33170SOL    HW1 1343  13.578   9.691  10.943
33170SOL    HW2 1344  13.448   9.615  10.924
33171SOL     OW 1345   0.905  10.144   0.832
33171SOL    HW1 1346   0.926  10.126   0.924
33171SOL    HW2 1347   0.812  10.125   0.824
33172SOL     OW 1348  10.319   4.166   0.202
33172SOL    HW1 1349  10.371   4.186   0.125
33172SOL    HW2 1350  10.369   4.200   0.275
33173SOL     OW 1351   6.768  10.095  13.915
33173SOL    HW1 1352   6.723  10.162  13.865
33173SOL    HW2 1353   6.850  10.137  13.943
33174SOL     OW 1354   3.714   2.041  13.888
33174SOL    HW1 1355   3.744   1.987  13.815
33174SOL    HW2 1356   3.762   2.123  13.879
33175SOL     OW 1357   6.985   1.259  13.029
33175SOL    HW1 1358   6.931   1.197  13.078
33175SOL    HW2 1359   7.075   1.228  13.043
33176SOL     OW 1360   4.631  10.446   7.952
33176SOL    HW1 1361   4.688  10.403   8.015
33176SOL    HW2 1362   4.556  10.475   8.004
33177SOL     OW 1363   5.096   8.440  10.986
33177SOL    HW1 1364   5.029   8.502  11.018
33177SOL    HW2 1365   5.179   8.487  10.999
33178SOL     OW 1366   3.117   8.786   1.884
33178SOL    HW1 1367   3.188   8.851   1.888
33178SOL    HW2 1368   3.134   8.727   1.957
33179SOL     OW 1369  10.159  10.955   3.493
33179SOL    HW1 1370  10.200  11.037   3.521
33179SOL    HW2 1371  10.073  10.981   3.459
33180SOL     OW 1372   8.178   0.369   0.574
33180SOL    HW1 1373   8.270   0.344   0.563
33180SOL    HW2 1374   8.135   0.287   0.598
33181SOL     OW 1375  13.441   5.513   2.550
33181SOL    HW1 1376  13.391   5.432   2.540
33181SOL    HW2 1377  13.517   5.489   2.603
33182SOL     OW 1378  13.196   1.412  11.597
33182SOL    HW1 1379  13.221   1.450  11.681
33182SOL    HW2 1380  13.145   1.334  11.620
33183SOL     OW 1381  10.815   0.071   6.375
33183SOL    HW1 1382  10.783   0.135   6.311
33183SOL    HW2 1383  10.740   0.014   6.391
33184SOL     OW 1384   6.221   3.835   0.227
33184SOL    HW1 1385   6.159   3.836   0.300
33184SOL    HW2 1386   6.293   3.780   0.258
33185SOL     OW 1387   8.260   8.514   9.438
33185SOL    HW1 1388   8.201   8.462   9.493
33185SOL    HW2 1389   8.345   8.508   9.483
33186SOL     OW 1390   4.508  13.833  14.057
33186SOL    HW1 1391   4.546  13.857  13.972
33186SOL    HW2 1392   4.543  13.898  14.118
33187SOL     OW 1393   4.279   7.255  11.690
33187SOL    HW1 1394   4.228   7.257  11.771
33187SOL    HW2 1395   4.263   7.341  11.650
33188SOL     OW 1396  11.052   4.346   0.451
33188SOL    HW1 1397  11.069   4.296   0.531
33188SOL    HW2 1398  11.037   4.436   0.481
33189SOL     OW 1399   1.592   0.777  14.040
33189SOL    HW1 1400   1.620   0.758  13.951
33189SOL    HW2 1401   1.642   0.855  14.065
33190SOL     OW 1402   3.693   3.928   9.926
33190SOL    HW1 1403   3.777   3.903   9.887
33190SOL    HW2 1404   3.665   4.004   9.875
33191SOL     OW 1405   5.122   7.001   5.980
33191SOL    HW1 1406   5.159   7.051   5.908
33191SOL    HW2 1407   5.167   7.033   6.058
33192SOL     OW 1408   2.430   5.906   5.406
33192SOL    HW1 1409   2.440   5.828   5.351
33192SOL    HW2 1410   2.441   5.873   5.495
33193SOL     OW 1411   6.683   8.510  12.688
33193SOL    HW1 1412   6.684   8.576  12.757
33193SOL    HW2 1413   6.593   8.510  12.655
33194SOL     OW 1414   4.260   4.876   4.061
33194SOL    HW1 1415   4.355   4.861   4.065
33194SOL    HW2 1416   4.223   4.789   4.043
33195SOL     OW 1417  13.542   1.188  10.920
33195SOL    HW1 1418  13.608   1.187  10.850
33195SOL    HW2 1419  13.559   1.109  10.970
33196SOL     OW 1420  12.071   7.727   8.004
33196SOL    HW1 1421  12.140   7.779   7.963
33196SOL    HW2 1422  12.107   7.704   8.090
33197SOL     OW 1423   9.425  13.530  10.702
33197SOL    HW1 1424   9.509  13.500  10.736
33197SOL    HW2 1425   9.448  13.580  10.623
33198SOL     OW 1426   9.901   3.127  13.031
33198SOL    HW1 1427   9.956   3.120  12.953
33198SOL    HW2 1428   9.942   3.068  13.095
33199SOL     OW 1429  12.350   0.184   0.440
33199SOL    HW1 1430  12.421   0.159   0.498
33199SOL    HW2 1431  12.316   0.101   0.407
33200SOL     OW 1432   8.199   9.698  14.001
33200SOL    HW1 1433   8.269   9.749  13.961
33200SOL    HW2 1434   8.197   9.616  13.952
33201SOL     OW 1435   3.193  12.825   3.239
33201SOL    HW1 1436   3.257  12.757   3.218
33201SOL    HW2 1437   3.191  12.881   3.161
33202SOL     OW 1438   2.795   8.364   5.737
33202SOL    HW1 1439   2.705   8.389   5.716
33202SOL    HW2 1440   2.786   8.298   5.806
33203SOL     OW 1441   4.657   5.880   0.555
33203SOL    HW1 1442   4.604   5.831   0.618
33203SOL    HW2 1443   4.724   5.818   0.527
33204SOL     OW 1444   2.947   3.802   0.088
33204SOL    HW1 1445   2.933   3.897   0.084
33204SOL    HW2 1446   2.859   3.765   0.080
33205SOL     OW 1447   8.632   3.731   1.972
33205SOL    HW1 1448   8.698   3.697   2.033
33205SOL    HW2 1449   8.674   3.807   1.930
33206SOL     OW 1450   5.776  12.101  10.124
33206SOL    HW1 1451   5.754  12.009  10.139
33206SOL    HW2 1452   5.857  12.097  10.073
33207SOL     OW 1453  14.214  13.594  11.662
33207SOL    HW1 1454  14.271  13.550  11.599
33207SOL    HW2 1455  14.197  13.680  11.624
33208SOL     OW 1456   7.689   4.634  12.993
33208SOL    HW1 1457   7.650   4.662  12.911
33208SOL    HW2 1458   7.714   4.715  13.037
33209SOL     OW 1459   4.527  10.326   5.313
33209SOL    HW1 1460   4.555  10.367   5.231
33209SOL    HW2 1461   4.505  10.400   5.370
33210SOL     OW 1462   5.671   2.672  13.863
33210SOL    HW1 1463   5.582   2.689  13.834
33210SOL    HW2 1464   5.724   2.682  13.784
33211SOL     OW 1465  10.222   7.945   7.590
33211SOL    HW1 1466  10.307   7.957   7.547
33211SOL    HW2 1467  10.178   8.029   7.579
33212SOL     OW 1468   7.406   4.088  11.863
33212SOL    HW1 1469   7.494   4.058  11.843
33212SOL    HW2 1470   7.392   4.164  11.806
33213SOL     OW 1471   7.171   1.162   6.039
33213SOL    HW1 1472   7.231   1.093   6.012
33213SOL    HW2 1473   7.183   1.169   6.133
33214SOL     OW 1474   8.277   6.556   3.438
33214SOL    HW1 1475   8.221   6.514   3.373
33214SOL    HW2 1476   8.227   6.634   3.465
33215SOL     OW 1477   8.844   1.070   5.814
33215SOL    HW1 1478   8.826   0.998   5.874
33215SOL    HW2 1479   8.939   1.067   5.800
33216SOL     OW 1480   6.191   7.697   4.623
33216SOL    HW1 1481   6.210   7.631   4.556
33216SOL    HW2 1482   6.127   7.655   4.680
33217SOL     OW 1483  12.388   5.500   1.427
33217SOL    HW1 1484  12.431   5.427   1.382
33217SOL    HW2 1485  12.440   5.577   1.402
33218SOL     OW 1486  14.800   2.355   7.686
33218SOL    HW1 1487   0.003   2.374   7.730
33218SOL    HW2 1488  14.739   2.421   7.717
33219SOL     OW 1489   3.657   1.864   2.147
33219SOL    HW1 1490   3.597   1.852   2.220
33219SOL    HW2 1491   3.633   1.796   2.084
33220SOL     OW 1492  13.329   5.513  10.114
33220SOL    HW1 1493  13.403   5.456  10.134
33220SOL    HW2 1494  13.366   5.583  10.060
33221SOL     OW 1495  10.857  10.813   4.732
33221SOL    HW1 1496  10.876  10.720   4.748
33221SOL    HW2 1497  10.930  10.844   4.679
33222SOL     OW 1498   5.487   5.975   9.102
33222SOL    HW1 1499   5.540   5.920   9.045
33222SOL    HW2 1500   5.419   6.010   9.044
33223SOL     OW 1501   4.343   4.368   1.008
33223SOL    HW1 1502   4.283   4.315   0.955
33223SOL    HW2 1503   4.352   4.450   0.959
33224SOL     OW 1504  12.730   2.790  14.124
33224SOL    HW1 1505  12.720   2.723  14.192
33224SOL    HW2 1506  12.682   2.866  14.159
33225SOL     OW 1507   2.321   6.983   2.741
33225SOL    HW1 1508   2.302   6.894   2.770
33225SOL    HW2 1509   2.358   7.026   2.819
33226SOL     OW 1510   6.662   5.284   5.505
33226SOL    HW1 1511   6.640   5.202   5.461
33226SOL    HW2 1512   6.757   5.292   5.496
33227SOL     OW 1513  13.195   7.691   1.306
33227SOL    HW1 1514  13.248   7.711   1.383
33227SOL    HW2 1515  13.210   7.765   1.247
33228SOL     OW 1516   2.462   2.795  11.255
33228SOL    HW1 1517   2.464   2.750  11.170
33228SOL    HW2 1518   2.544   2.844  11.258
33229SOL     OW 1519  12.479   7.569   6.437
33229SOL    HW1 1520  12.438   7.653   6.455
33229SOL    HW2 1521  12.550   7.589   6.376
33230SOL     OW 1522   2.003   8.607   1.527
33230SOL    HW1 1523   1.932   8.586   1.466
33230SOL    HW2 1524   2.054   8.674   1.483
33231SOL     OW 1525   6.092   1.347   1.340
33231SOL    HW1 1526   6.131   1.344   1.253
33231SOL    HW2 1527   6.025   1.416   1.333
33232SOL     OW 1528  13.592   6.854  12.901
33232SOL    HW1 1529  13.688   6.860  12.898
33232SOL    HW2 1530  13.571   6.852  12.994
33233SOL     OW 1531  11.347   7.205  12.147
33233SOL    HW1 1532  11.442   7.195  12.141
33233SOL    HW2 1533  11.312   7.134  12.093
33234SOL     OW 1534  12.763   2.406   8.483
33234SOL    HW1 1535  12.782   2.440   8.396
33234SOL    HW2 1536  12.675   2.370   8.476
33235SOL     OW 1537   2.114   7.089   8.611
33235SOL    HW1 1538   2.051   7.158   8.629
33235SOL    HW2 1539   2.166   7.082   8.691
33236SOL     OW 1540  13.534   2.132   3.261
33236SOL    HW1 1541  13.585   2.121   3.341
33236SOL    HW2 1542  13.447   2.158   3.291
33237SOL     OW 1543   2.577   7.924   4.111
33237SOL    HW1 1544   2.504   7.961   4.160
33237SOL    HW2 1545   2.548   7.836   4.087
33238SOL     OW 1546  13.802  14.041   7.035
33238SOL    HW1 1547  13.794  14.101   6.961
33238SOL    HW2 1548  13.891  14.006   7.028
33239SOL     OW 1549   3.245   6.225   4.844
33239SOL    HW1 1550   3.260   6.196   4.754
33239SOL    HW2 1551   3.193   6.305   4.835
33240SOL     OW 1552   7.690   5.235   1.630
33240SOL    HW1 1553   7.643   5.213   1.710
33240SOL    HW2 1554   7.780   5.209   1.647
33241SOL     OW 1555   1.210   4.141   1.897
33241SOL    HW1 1556   1.208   4.189   1.980
33241SOL    HW2 1557   1.255   4.059   1.917
33242SOL     OW 1558   4.036   2.716  10.423
33242SOL    HW1 1559   4.128   2.739  10.418
33242SOL    HW2 1560   4.034   2.629  10.463
33243SOL     OW 1561   4.188   2.587   8.735
33243SOL    HW1 1562   4.144   2.547   8.810
33243SOL    HW2 1563   4.132   2.661   8.710
33244SOL     OW 1564  10.831   6.443   4.531
33244SOL    HW1 1565  10.925   6.425   4.534
33244SOL    HW2 1566  10.799   6.420   4.619
33245SOL     OW 1567   2.547   7.339   8.719
33245SOL    HW1 1568   2.544   7.430   8.688
33245SOL    HW2 1569   2.535   7.345   8.814
33246SOL     OW 1570   5.810   9.815   3.600
33246SOL    HW1 1571   5.896   9.783   3.575
33246SOL    HW2 1572   5.799   9.785   3.691
33247SOL     OW 1573  12.398  10.000   1.292
33247SOL    HW1 1574  12.341   9.925   1.275
33247SOL    HW2 1575  12.338  10.073   1.308
33248SOL     OW 1576   8.543   1.176   7.973
33248SOL    HW1 1577   8.561   1.264   7.940
33248SOL    HW2 1578   8.554   1.119   7.896
33249SOL     OW 1579  14.505  13.270  11.952
33249SOL    HW1 1580  14.472  13.360  11.949
33249SOL    HW2 1581  14.456  13.225  11.884
33250SOL     OW 1582   6.128   9.067  11.471
33250SOL    HW1 1583   6.213   9.108  11.454
33250SOL    HW2 1584   6.149   8.991  11.526
33251SOL     OW 1585   8.932  14.090  13.606
33251SOL    HW1 1586   8.948  14.057  13.694
33251SOL    HW2 1587   8.897  14.015  13.558
33252SOL     OW 1588  13.257   7.042  12.474
33252SOL    HW1 1589  13.345   7.067  12.504
33252SOL    HW2 1590  13.212   7.014  12.553
33253SOL     OW 1591   3.876   7.550  10.966
33253SOL    HW1 1592   3.822   7.478  10.933
33253SOL    HW2 1593   3.928   7.512  11.037
33254SOL     OW 1594  13.785  11.108   8.030
33254SOL    HW1 1595  13.711  11.068   8.075
33254SOL    HW2 1596  13.816  11.041   7.969
33255SOL     OW 1597  13.560   4.734   7.196
33255SOL    HW1 1598  13.494   4.705   7.133
33255SOL    HW2 1599  13.643   4.706   7.158
33256SOL     OW 1600  10.870   6.863  11.394
33256SOL    HW1 1601  10.803   6.794  11.395
33256SOL    HW2 1602  10.819   6.945  11.393
33257SOL     OW 1603  13.201   1.363   0.896
33257SOL    HW1 1604  13.207   1.308   0.974
33257SOL    HW2 1605  13.117   1.407   0.904
33258SOL     OW 1606   1.110  13.684  12.437
33258SOL    HW1 1607   1.200  13.714  12.446
33258SOL    HW2 1608   1.060  13.736  12.500
33259SOL     OW 1609   1.592   7.044   4.538
33259SOL    HW1 1610   1.587   6.959   4.494
33259SOL    HW2 1611   1.503   7.060   4.569
33260SOL     OW 1612   7.211  12.777   5.707
33260SOL    HW1 1613   7.268  12.772   5.631
33260SOL    HW2 1614   7.269  12.803   5.779
33261SOL     OW 1615   2.884  14.192   4.042
33261SOL    HW1 1616   2.885  14.288   4.042
33261SOL    HW2 1617   2.905  14.168   3.951
33262SOL     OW 1618   0.212  13.520   4.125
33262SOL    HW1 1619   0.226  13.516   4.030
33262SOL    HW2 1620   0.134  13.575   4.135
33263SOL     OW 1621   9.249   9.032   0.638
33263SOL    HW1 1622   9.279   9.112   0.594
33263SOL    HW2 1623   9.212   8.979   0.567
33264SOL     OW 1624   4.454   2.162  11.414
33264SOL    HW1 1625   4.379   2.218  11.395
33264SOL    HW2 1626   4.482   2.188  11.501
33265SOL     OW 1627  11.077   0.891  10.928
33265SOL    HW1 1628  11.118   0.967  10.970
33265SOL    HW2 1629  11.048   0.836  11.001
33266SOL     OW 1630  14.558   9.887   3.878
33266SOL    HW1 1631  14.609   9.930   3.810
33266SOL    HW2 1632  14.467   9.911   3.859
33267SOL     OW 1633  14.573  11.521   1.015
33267SOL    HW1 1634  14.571  11.599   1.071
33267SOL    HW2 1635  14.659  11.483   1.030
33268SOL     OW 1636  13.659  12.103  14.370
33268SOL    HW1 1637  13.716  12.040  14.414
33268SOL    HW2 1638  13.704  12.187  14.379
33269SOL     OW 1639   5.177  13.326  10.242
33269SOL    HW1 1640   5.122  13.329  10.320
33269SOL    HW2 1641   5.259  13.288  10.273
33270SOL     OW 1642  12.219  11.411   8.974
33270SOL    HW1 1643  12.204  11.493   9.022
33270SOL    HW2 1644  12.292  11.432   8.915
33271SOL     OW 1645   4.858  11.995   1.990
33271SOL    HW1 1646   4.866  12.081   1.951
33271SOL    HW2 1647   4.947  11.959   1.987
33272SOL     OW 1648   4.545   2.096   8.729
33272SOL    HW1 1649   4.487   2.149   8.783
33272SOL    HW2 1650   4.554   2.145   8.648
33273SOL     OW 1651   3.333  10.589   1.545
33273SOL    HW1 1652   3.403  10.547   1.595
33273SOL    HW2 1653   3.271  10.519   1.526
33274SOL     OW 1654   7.557   8.017  12.569
33274SOL    HW1 1655   7.464   8.013  12.547
33274SOL    HW2 1656   7.601   7.976  12.495
33275SOL     OW 1657   5.396  11.815  14.326
33275SOL    HW1 1658   5.371  11.793  14.415
33275SOL    HW2 1659   5.363  11.742  14.273
33276SOL     OW 1660  13.771  14.203  10.270
33276SOL    HW1 1661  13.678  14.216  10.252
33276SOL    HW2 1662  13.804  14.291  10.289
33277SOL     OW 1663   8.526  13.763   0.877
33277SOL    HW1 1664   8.525  13.747   0.971
33277SOL    HW2 1665   8.505  13.856   0.868
33278SOL     OW 1666  14.757   8.790   3.570
33278SOL    HW1 1667  14.686   8.841   3.531
33278SOL    HW2 1668  14.810   8.762   3.495
33279SOL     OW 1669  11.808   4.177   7.460
33279SOL    HW1 1670  11.791   4.134   7.543
33279SOL    HW2 1671  11.733   4.235   7.446
33280SOL     OW 1672   9.919   8.798  10.671
33280SOL    HW1 1673   9.840   8.757  10.637
33280SOL    HW2 1674   9.924   8.883  10.627
33281SOL     OW 1675   6.866  11.712  14.655
33281SOL    HW1 1676   6.908  11.666  14.728
33281SOL    HW2 1677   6.775  11.683  14.658
33282SOL     OW 1678   4.858   0.154  10.991
33282SOL    HW1 1679   4.796   0.081  10.990
33282SOL    HW2 1680   4.943   0.114  10.975
33283SOL     OW 1681   1.662   0.823   2.841
33283SOL    HW1 1682   1.638   0.841   2.751
33283SOL    HW2 1683   1.584   0.843   2.892
33284SOL     OW 1684   1.022   1.778  14.575
33284SOL    HW1 1685   0.961   1.852  14.566
33284SOL    HW2 1686   0.996   1.735  14.657
33285SOL     OW 1687   2.839  13.899   5.093
33285SOL    HW1 1688   2.767  13.850   5.133
33285SOL    HW2 1689   2.868  13.959   5.162
33286SOL     OW 1690   3.244   8.309   1.444
33286SOL    HW1 1691   3.337   8.315   1.466
33286SOL    HW2 1692   3.232   8.368   1.370
33287SOL     OW 1693   5.092   0.499   4.468
33287SOL    HW1 1694   5.137   0.567   4.418
33287SOL    HW2 1695   5.002   0.529   4.475
33288SOL     OW 1696  12.976   1.423   1.070
33288SOL    HW1 1697  12.984   1.475   0.990
33288SOL    HW2 1698  12.885   1.433   1.096
33289SOL     OW 1699   7.133   7.902   6.304
33289SOL    HW1 1700   7.214   7.911   6.355
33289SOL    HW2 1701   7.154   7.943   6.220
33290SOL     OW 1702   3.615   0.521  12.479
33290SOL    HW1 1703   3.704   0.519  12.444
33290SOL    HW2 1704   3.559   0.511  12.402
33291SOL     OW 1705  10.517   3.007   4.051
33291SOL    HW1 1706  10.464   3.071   4.100
33291SOL    HW2 1707  10.602   3.050   4.041
33292SOL     OW 1708   1.836  12.618  10.926
33292SOL    HW1 1709   1.774  12.555  10.889
33292SOL    HW2 1710   1.784  12.697  10.941
33293SOL     OW 1711   3.141   5.475  13.734
33293SOL    HW1 1712   3.087   5.452  13.809
33293SOL    HW2 1713   3.086   5.455  13.658
33294SOL     OW 1714   7.285   5.077  10.146
33294SOL    HW1 1715   7.262   5.112  10.060
33294SOL    HW2 1716   7.215   5.109  10.204
33295SOL     OW 1717  13.771   4.056  11.481
33295SOL    HW1 1718  13.704   4.001  11.440
33295SOL    HW2 1719  13.854   4.017  11.454
33296SOL     OW 1720   5.959  12.010   7.483
33296SOL    HW1 1721   6.031  11.948   7.497
33296SOL    HW2 1722   5.882  11.967   7.521
33297SOL     OW 1723   1.845  11.076   0.278
33297SOL    HW1 1724   1.843  11.014   0.206
33297SOL    HW2 1725   1.768  11.132   0.264
33298SOL     OW 1726   8.630   3.645   9.314
33298SOL    HW1 1727   8.620   3.554   9.341
33298SOL    HW2 1728   8.601   3.646   9.223
33299SOL     OW 1729  11.326  14.571  10.451
33299SOL    HW1 1730  11.334  14.475  10.456
33299SOL    HW2 1731  11.383  14.595  10.378
33300SOL     OW 1732   6.640   3.970   7.537
33300SOL    HW1 1733   6.574   3.950   7.471
33300SOL    HW2 1734   6.715   4.003   7.488
33301SOL     OW 1735   4.782   3.763  11.453
33301SOL    HW1 1736   4.801   3.674  11.425
33301SOL    HW2 1737   4.686   3.769  11.450
33302SOL     OW 1738   0.079   7.764   2.262
33302SOL    HW1 1739   0.109   7.824   2.331
33302SOL    HW2 1740   0.111   7.678   2.290
33303SOL     OW 1741  13.220  14.109   8.830
33303SOL    HW1 1742  13.132  14.078   8.809
33303SOL    HW2 1743  13.210  14.156   8.913
33304SOL     OW 1744   3.299   0.947   4.533
33304SOL    HW1 1745   3.384   0.985   4.512
33304SOL    HW2 1746   3.308   0.913   4.622
33305SOL     OW 1747  14.875   4.515   6.784
33305SOL    HW1 1748   0.006   4.431   6.740
33305SOL    HW2 1749  14.831   4.570   6.721
33306SOL     OW 1750  14.079   6.759   0.513
33306SOL    HW1 1751  14.165   6.717   0.510
33306SOL    HW2 1752  14.096   6.851   0.491
33307SOL     OW 1753   2.835   3.933   6.179
33307SOL    HW1 1754   2.769   3.937   6.110
33307SOL    HW2 1755   2.851   4.024   6.203
33308SOL     OW 1756   1.520   8.626   3.954
33308SOL    HW1 1757   1.582   8.699   3.951
33308SOL    HW2 1758   1.525   8.593   4.044
33309SOL     OW 1759  11.387  11.111  12.640
33309SOL    HW1 1760  11.343  11.143  12.562
33309SOL    HW2 1761  11.387  11.185  12.700
33310SOL     OW 1762   9.301   5.273   6.961
33310SOL    HW1 1763   9.340   5.264   7.048
33310SOL    HW2 1764   9.325   5.192   6.916
33311SOL     OW 1765  10.257   5.103   8.832
33311SOL    HW1 1766  10.176   5.099   8.884
33311SOL    HW2 1767  10.230   5.075   8.744
33312SOL     OW 1768   0.599   4.298   2.997
33312SOL    HW1 1769   0.597   4.269   3.089
33312SOL    HW2 1770   0.556   4.227   2.949
33313SOL     OW 1771   6.070  10.345   1.166
33313SOL    HW1 1772   6.164  10.363   1.167
33313SOL    HW2 1773   6.054  10.301   1.249
33314SOL     OW 1774   5.747   9.836   4.109
33314SOL    HW1 1775   5.765   9.930   4.118
33314SOL    HW2 1776   5.784   9.797   4.189
33315SOL     OW 1777   7.440  14.370  14.831
33315SOL    HW1 1778   7.416  14.443  14.774
33315SOL    HW2 1779   7.363  14.313  14.830
33316SOL     OW 1780   0.187   7.087  13.294
33316SOL    HW1 1781   0.271   7.125  13.267
33316SOL    HW2 1782   0.151   7.151  13.355
33317SOL     OW 1783   0.503   3.820  13.351
33317SOL    HW1 1784   0.459   3.736  13.339
33317SOL    HW2 1785   0.527   3.821  13.444
33318SOL     OW 1786   4.722  10.393   8.814
33318SOL    HW1 1787   4.809  10.431   8.808
33318SOL    HW2 1788   4.693  10.412   8.903
33319SOL     OW 1789   4.421   9.736   8.860
33319SOL    HW1 1790   4.476   9.814   8.853
33319SOL    HW2 1791   4.477   9.665   8.828
33320SOL     OW 1792   5.913   1.380  11.784
33320SOL    HW1 1793   5.990   1.435  11.798
33320SOL    HW2 1794   5.917   1.356  11.692
33321SOL     OW 1795  10.758  11.236   0.324
33321SOL    HW1 1796  10.846  11.234   0.287
33321SOL    HW2 1797  10.757  11.166   0.389
33322SOL     OW 1798   7.009  13.097   3.031
33322SOL    HW1 1799   6.974  13.016   3.067
33322SOL    HW2 1800   7.033  13.075   2.941
33323SOL     OW 1801  13.444   8.794  14.671
33323SOL    HW1 1802  13.434   8.864  14.607
33323SOL    HW2 1803  13.501   8.831  14.738
33324SOL     OW 1804   9.675   0.329   8.550
33324SOL    HW1 1805   9.703   0.248   8.592
33324SOL    HW2 1806   9.749   0.355   8.495
33325SOL     OW 1807  13.820  10.475   4.186
33325SOL    HW1 1808  13.801  10.398   4.133
33325SOL    HW2 1809  13.902  10.509   4.152
33326SOL     OW 1810   4.812   0.796   4.377
33326SOL    HW1 1811   4.809   0.703   4.400
33326SOL    HW2 1812   4.734   0.810   4.323
33327SOL     OW 1813   1.273   1.139  11.796
33327SOL    HW1 1814   1.315   1.112  11.877
33327SOL    HW2 1815   1.201   1.196  11.825
33328SOL     OW 1816  12.899  13.105   7.737
33328SOL    HW1 1817  12.915  13.083   7.828
33328SOL    HW2 1818  12.804  13.114   7.730
33329SOL     OW 1819   8.612   5.989   4.627
33329SOL    HW1 1820   8.610   6.072   4.676
33329SOL    HW2 1821   8.655   6.011   4.545
33330SOL     OW 1822   8.585   3.991  10.853
33330SOL    HW1 1823   8.676   3.982  10.823
33330SOL    HW2 1824   8.541   3.913  10.818
33331SOL     OW 1825   1.358   1.232   0.770
33331SOL    HW1 1826   1.405   1.309   0.802
33331SOL    HW2 1827   1.305   1.265   0.697
33332SOL     OW 1828  11.728   0.976   6.138
33332SOL    HW1 1829  11.649   1.006   6.093
33332SOL    HW2 1830  11.713   0.882   6.151
33333SOL     OW 1831   3.158  10.100   8.996
33333SOL    HW1 1832   3.213  10.177   8.982
33333SOL    HW2 1833   3.154  10.091   9.092
33334SOL     OW 1834   0.688   3.393  12.524
33334SOL    HW1 1835   0.653   3.476  12.554
33334SOL    HW2 1836   0.712   3.346  12.604
33335SOL     OW 1837  10.833  11.680   6.338
33335SOL    HW1 1838  10.759  11.664   6.396
33335SOL    HW2 1839  10.792  11.701   6.253
33336SOL     OW 1840  11.245  11.488   1.629
33336SOL    HW1 1841  11.247  11.393   1.644
33336SOL    HW2 1842  11.315  11.522   1.684
33337SOL     OW 1843  12.498   7.213   5.081
33337SOL    HW1 1844  12.557   7.224   5.007
33337SOL    HW2 1845  12.556   7.200   5.156
33338SOL     OW 1846  11.204   5.899  12.066
33338SOL    HW1 1847  11.173   5.923  11.979
33338SOL    HW2 1848  11.151   5.952  12.126
33339SOL     OW 1849   0.121   9.975   3.869
33339SOL    HW1 1850   0.170   9.969   3.787
33339SOL    HW2 1851   0.116   9.885   3.901
33340SOL     OW 1852  11.957  11.288   8.985
33340SOL    HW1 1853  12.040  11.335   8.977
33340SOL    HW2 1854  11.930  11.301   9.076
33341SOL     OW 1855  14.835   6.732   7.202
33341SOL    HW1 1856  14.821   6.660   7.265
33341SOL    HW2 1857   0.007   6.692   7.132
33342SOL     OW 1858  13.693   7.339   9.182
33342SOL    HW1 1859  13.768   7.392   9.210
33342SOL    HW2 1860  13.686   7.271   9.249
33343SOL     OW 1861   3.465   4.190  13.137
33343SOL    HW1 1862   3.455   4.133  13.213
33343SOL    HW2 1863   3.555   4.222  13.142
33344SOL     OW 1864  12.248   4.263  14.695
33344SOL    HW1 1865  12.315   4.232  14.635
33344SOL    HW2 1866  12.188   4.314  14.641
33345SOL     OW 1867  11.913   6.908   1.352
33345SOL    HW1 1868  11.982   6.950   1.403
33345SOL    HW2 1869  11.906   6.961   1.272
33346SOL     OW 1870   6.060   3.609  14.314
33346SOL    HW1 1871   5.983   3.571  14.356
33346SOL    HW2 1872   6.134   3.576  14.365
33347SOL     OW 1873   3.172  13.578  13.883
33347SOL    HW1 1874   3.112  13.507  13.906
33347SOL    HW2 1875   3.239  13.535  13.829
33348SOL     OW 1876  10.115   2.112  13.161
33348SOL    HW1 1877  10.167   2.132  13.084
33348SOL    HW2 1878  10.070   2.194  13.182
33349SOL     OW 1879   4.298   5.739  10.999
33349SOL    HW1 1880   4.365   5.735  11.068
33349SOL    HW2 1881   4.267   5.649  10.989
33350SOL     OW 1882   4.646   6.398  11.759
33350SOL    HW1 1883   4.684   6.486  11.758
33350SOL    HW2 1884   4.629   6.380  11.852
33351SOL     OW 1885   1.964   8.620  10.937
33351SOL    HW1 1886   1.951   8.621  11.032
33351SOL    HW2 1887   2.052   8.656  10.925
33352SOL     OW 1888   7.373   6.564   7.204
33352SOL    HW1 1889   7.318   6.569   7.283
33352SOL    HW2 1890   7.310   6.567   7.132
33353SOL     OW 1891   5.380   4.135  10.621
33353SOL    HW1 1892   5.434   4.089  10.557
33353SOL    HW2 1893   5.431   4.129  10.703
33354SOL     OW 1894  10.473   7.590   4.317
33354SOL    HW1 1895  10.462   7.568   4.410
33354SOL    HW2 1896  10.425   7.672   4.306
33355SOL     OW 1897   4.595   3.830   6.212
33355SOL    HW1 1898   4.536   3.903   6.232
33355SOL    HW2 1899   4.581   3.768   6.284
33356SOL     OW 1900   2.503   6.410   3.277
33356SOL    HW1 1901   2.492   6.328   3.231
33356SOL    HW2 1902   2.421   6.422   3.325
33357SOL     OW 1903   1.332   0.978   7.019
33357SOL    HW1 1904   1.378   1.062   7.017
33357SOL    HW2 1905   1.241   1.001   7.039
33358SOL     OW 1906  13.221  12.775   3.400
33358SOL    HW1 1907  13.165  12.850   3.421
33358SOL    HW2 1908  13.278  12.807   3.330
33359SOL     OW 1909   9.903   9.863  10.812
33359SOL    HW1 1910   9.861   9.916  10.744
33359SOL    HW2 1911   9.930   9.927  10.878
33360SOL     OW 1912   4.088   9.291   6.316
33360SOL    HW1 1913   4.047   9.340   6.388
33360SOL    HW2 1914   4.080   9.349   6.240
33361SOL     OW 1915   1.379  10.016  14.034
33361SOL    HW1 1916   1.388  10.021  13.939
33361SOL    HW2 1917   1.465  10.041  14.068
33362SOL     OW 1918   9.252   5.101   0.153
33362SOL    HW1 1919   9.178   5.095   0.093
33362SOL    HW2 1920   9.214   5.132   0.235
33363SOL     OW 1921  14.540   2.468  12.763
33363SOL    HW1 1922  14.626   2.508  12.775
33363SOL    HW2 1923  14.478   2.538  12.782
33364SOL     OW 1924   3.609   2.364   1.592
33364SOL    HW1 1925   3.563   2.291   1.633
33364SOL    HW2 1926   3.700   2.353   1.620
33365SOL     OW 1927   7.067   6.321   3.508
33365SOL    HW1 1928   7.066   6.345   3.601
33365SOL    HW2 1929   6.996   6.257   3.500
33366SOL     OW 1930   2.522  12.488   1.793
33366SOL    HW1 1931   2.579  12.481   1.869
33366SOL    HW2 1932   2.546  12.571   1.752
33367SOL     OW 1933  11.989   4.688  14.256
33367SOL    HW1 1934  11.965   4.768  14.303
33367SOL    HW2 1935  11.986   4.619  14.322
33368SOL     OW 1936   0.208   2.800   0.765
33368SOL    HW1 1937   0.122   2.807   0.806
33368SOL    HW2 1938   0.265   2.856   0.818
33369SOL     OW 1939   7.157  11.425  14.716
33369SOL    HW1 1940   7.128  11.334  14.715
33369SOL    HW2 1941   7.118  11.464  14.637
33370SOL     OW 1942   3.570   0.730   8.119
33370SOL    HW1 1943   3.539   0.668   8.185
33370SOL    HW2 1944   3.586   0.676   8.041
33371SOL     OW 1945  11.977   3.019   4.197
33371SOL    HW1 1946  12.069   2.993   4.208
33371SOL    HW2 1947  11.977   3.073   4.118
33372SOL     OW 1948   0.167   6.902   9.348
33372SOL    HW1 1949   0.177   6.845   9.272
33372SOL    HW2 1950   0.100   6.965   9.323
33373SOL     OW 1951   4.325  11.997  11.928
33373SOL    HW1 1952   4.378  11.935  11.878
33373SOL    HW2 1953   4.235  11.969  11.914
33374SOL     OW 1954   7.674   7.985   6.511
33374SOL    HW1 1955   7.698   8.045   6.582
33374SOL    HW2 1956   7.758   7.961   6.471
33375SOL     OW 1957   3.349   2.022  11.427
33375SOL    HW1 1958   3.322   2.097  11.481
33375SOL    HW2 1959   3.370   2.060  11.342
33376SOL     OW 1960  13.739  11.650   5.159
33376SOL    HW1 1961  13.674  11.719   5.174
33376SOL    HW2 1962  13.793  11.683   5.088
33377SOL     OW 1963   1.990  10.658  12.678
33377SOL    HW1 1964   2.028  10.744  12.665
33377SOL    HW2 1965   1.983  10.622  12.589
33378SOL     OW 1966   6.175   1.714   1.604
33378SOL    HW1 1967   6.141   1.630   1.636
33378SOL    HW2 1968   6.257   1.726   1.651
33379SOL     OW 1969   5.626   7.933   2.401
33379SOL    HW1 1970   5.542   7.907   2.363
33379SOL    HW2 1971   5.648   8.014   2.356
33380SOL     OW 1972   4.527   1.445   3.477
33380SOL    HW1 1973   4.544   1.433   3.570
33380SOL    HW2 1974   4.581   1.379   3.434
33381SOL     OW 1975   7.139  12.047   6.932
33381SOL    HW1 1976   7.224  12.030   6.891
33381SOL    HW2 1977   7.158  12.110   7.001
33382SOL     OW 1978   3.603   0.570  12.073
33382SOL    HW1 1979   3.638   0.499  12.127
33382SOL    HW2 1980   3.668   0.640  12.080
33383SOL     OW 1981   9.386   3.219  13.082
33383SOL    HW1 1982   9.352   3.144  13.132
33383SOL    HW2 1983   9.332   3.293  13.111
33384SOL     OW 1984   3.008  14.148   0.112
33384SOL    HW1 1985   3.027  14.164   0.204
33384SOL    HW2 1986   2.947  14.074   0.113
33385SOL     OW 1987   4.465   3.021  10.168
33385SOL    HW1 1988   4.468   2.962  10.093
33385SOL    HW2 1989   4.382   3.068  10.158
33386SOL     OW 1990   2.311  14.227  14.665
33386SOL    HW1 1991   2.348  14.140  14.652
33386SOL    HW2 1992   2.383  14.287  14.647
33387SOL     OW 1993   6.839   6.785   2.487
33387SOL    HW1 1994   6.853   6.778   2.392
33387SOL    HW2 1995   6.881   6.868   2.510
33388SOL     OW 1996  10.627   9.718   3.465
33388SOL    HW1 1997  10.568   9.725   3.390
33388SOL    HW2 1998  10.663   9.806   3.475
33389SOL     OW 1999  13.077  12.479   1.464
33389SOL    HW1 2000  13.124  12.525   1.395
33389SOL    HW2 2001  13.057  12.393   1.427
33390SOL     OW 2002   8.025   1.807   1.092
33390SOL    HW1 2003   7.952   1.806   1.030
33390SOL    HW2 2004   7.984   1.823   1.177
33391SOL     OW 2005  13.336  12.814   2.476
33391SOL    HW1 2006  13.345  12.744   2.541
33391SOL    HW2 2007  13.345  12.770   2.392
33392SOL     OW 2008   9.847  10.857   7.362
33392SOL    HW1 2009   9.773  10.912   7.386
33392SOL    HW2 2010   9.899  10.912   7.302
33393SOL     OW 2011  10.768  12.239   0.430
33393SOL    HW1 2012  10.783  12.151   0.464
33393SOL    HW2 2013  10.732  12.287   0.505
33394SOL     OW 2014   2.446   9.538  14.626
33394SOL    HW1 2015   2.457   9.465  14.687
33394SOL    HW2 2016   2.352   9.539  14.606
33395SOL     OW 2017   9.802   0.434   9.116
33395SOL    HW1 2018   9.872   0.368   9.118
33395SOL    HW2 2019   9.774   0.441   9.207
33396SOL     OW 2020  13.868   2.422   7.596
33396SOL    HW1 2021  13.891   2.374   7.517
33396SOL    HW2 2022  13.842   2.509   7.564
33397SOL     OW 2023  12.275   2.948   3.462
33397SOL    HW1 2024  12.238   2.933   3.375
33397SOL    HW2 2025  12.370   2.944   3.449
33398SOL     OW 2026   6.793  12.004  14.656
33398SOL    HW1 2027   6.789  12.039  14.745
33398SOL    HW2 2028   6.822  11.913  14.668
33399SOL     OW 2029   3.481   7.192   9.578
33399SOL    HW1 2030   3.504   7.189   9.485
33399SOL    HW2 2031   3.387   7.173   9.580
33400SOL     OW 2032   1.008   1.294  10.213
33400SOL    HW1 2033   1.051   1.216  10.179
33400SOL    HW2 2034   1.067   1.327  10.281
33401SOL     OW 2035   2.357  13.688   0.284
33401SOL    HW1 2036   2.410  13.753   0.238
33401SOL    HW2 2037   2.280  13.677   0.229
33402SOL     OW 2038   8.168  10.836  12.579
33402SOL    HW1 2039   8.233  10.898  12.545
33402SOL    HW2 2040   8.084  10.879  12.565
33403SOL     OW 2041   1.427  11.201  13.739
33403SOL    HW1 2042   1.430  11.227  13.831
33403SOL    HW2 2043   1.351  11.144  13.732
33404SOL     OW 2044   4.771  13.229   3.606
33404SOL    HW1 2045   4.764  13.279   3.525
33404SOL    HW2 2046   4.702  13.264   3.663
33405SOL     OW 2047   1.732  12.395   1.264
33405SOL    HW1 2048   1.796  12.325   1.277
33405SOL    HW2 2049   1.679  12.366   1.190
33406SOL     OW 2050   8.629   5.727   0.408
33406SOL    HW1 2051   8.631   5.729   0.312
33406SOL    HW2 2052   8.687   5.798   0.434
33407SOL     OW 2053   5.882   9.617   8.982
33407SOL    HW1 2054   5.863   9.674   9.057
33407SOL    HW2 2055   5.869   9.528   9.016
33408SOL     OW 2056  12.239   4.245   1.082
33408SOL    HW1 2057  12.259   4.179   1.150
33408SOL    HW2 2058  12.283   4.324   1.113
33409SOL     OW 2059   8.258  10.905   7.361
33409SOL    HW1 2060   8.237  10.947   7.278
33409SOL    HW2 2061   8.174  10.897   7.406
33410SOL     OW 2062   0.860  14.293   3.176
33410SOL    HW1 2063   0.866  14.199   3.192
33410SOL    HW2 2064   0.781  14.303   3.123
33411SOL     OW 2065   0.236   5.859   4.636
33411SOL    HW1 2066   0.243   5.773   4.676
33411SOL    HW2 2067   0.292   5.916   4.689
33412SOL     OW 2068  13.300  14.601  14.249
33412SOL    HW1 2069  13.331  14.543  14.317
33412SOL    HW2 2070  13.379  14.639  14.211
33413SOL     OW 2071   0.612  10.683  10.708
33413SOL    HW1 2072   0.677  10.614  10.698
33413SOL    HW2 2073   0.664  10.762  10.729
33414SOL     OW 2074   8.973  11.471   9.881
33414SOL    HW1 2075   8.962  11.556   9.925
33414SOL    HW2 2076   9.002  11.493   9.793
33415SOL     OW 2077  12.487   4.498   5.485
33415SOL    HW1 2078  12.421   4.446   5.531
33415SOL    HW2 2079  12.465   4.589   5.504
33416SOL     OW 2080   7.939   9.725   8.676
33416SOL    HW1 2081   7.971   9.660   8.739
33416SOL    HW2 2082   7.996   9.714   8.600
33417SOL     OW 2083   6.132   1.195  11.423
33417SOL    HW1 2084   6.097   1.168  11.338
33417SOL    HW2 2085   6.212   1.144  11.433
33418SOL     OW 2086   4.693  12.885   8.944
33418SOL    HW1 2087   4.598  12.893   8.949
33418SOL    HW2 2088   4.718  12.848   9.029
33419SOL     OW 2089   3.783  14.660   5.746
33419SOL    HW1 2090   3.785  14.729   5.812
33419SOL    HW2 2091   3.727  14.592   5.784
33420SOL     OW 2092   4.351  14.585   8.267
33420SOL    HW1 2093   4.327  14.588   8.174
33420SOL    HW2 2094   4.387  14.497   8.280
33421SOL     OW 2095   2.546  11.730   5.792
33421SOL    HW1 2096   2.603  11.656   5.771
33421SOL    HW2 2097   2.597  11.782   5.854
33422SOL     OW 2098   2.955   3.195   9.185
33422SOL    HW1 2099   3.044   3.161   9.178
33422SOL    HW2 2100   2.918   3.150   9.261
33423SOL     OW 2101  11.478  13.967   0.019
33423SOL    HW1 2102  11.425  13.890  14.876
33423SOL    HW2 2103  11.568  13.937   0.009
33424SOL     OW 2104   6.882   9.657   9.904
33424SOL    HW1 2105   6.973   9.646   9.929
33424SOL    HW2 2106   6.878   9.745   9.865
33425SOL     OW 2107   8.679   8.023   0.416
33425SOL    HW1 2108   8.619   8.051   0.485
33425SOL    HW2 2109   8.674   7.927   0.418
33426SOL     OW 2110   6.763  13.229   1.529
33426SOL    HW1 2111   6.816  13.155   1.557
33426SOL    HW2 2112   6.711  13.252   1.606
33427SOL     OW 2113  13.915   3.523   9.217
33427SOL    HW1 2114  13.892   3.442   9.264
33427SOL    HW2 2115  13.909   3.592   9.283
33428SOL     OW 2116  14.445   5.623   1.270
33428SOL    HW1 2117  14.429   5.531   1.290
33428SOL    HW2 2118  14.412   5.671   1.347
33429SOL     OW 2119  12.353  12.339   0.144
33429SOL    HW1 2120  12.387  12.423   0.113
33429SOL    HW2 2121  12.308  12.360   0.226
33430SOL     OW 2122  11.683   2.577   2.556
33430SOL    HW1 2123  11.620   2.513   2.523
33430SOL    HW2 2124  11.680   2.648   2.492
33431SOL     OW 2125   2.847   2.795   8.514
33431SOL    HW1 2126   2.790   2.720   8.530
33431SOL    HW2 2127   2.844   2.846   8.595
33432SOL     OW 2128   9.112   7.922  11.161
33432SOL    HW1 2129   9.152   7.933  11.076
33432SOL    HW2 2130   9.144   7.996  11.213
33433SOL     OW 2131   4.008   5.479   0.583
33433SOL    HW1 2132   3.938   5.414   0.588
33433SOL    HW2 2133   4.081   5.440   0.631
33434SOL     OW 2134   0.153   4.417   1.581
33434SOL    HW1 2135   0.199   4.336   1.602
33434SOL    HW2 2136   0.223   4.481   1.564
33435SOL     OW 2137   4.209   7.878  13.326
33435SOL    HW1 2138   4.262   7.953  13.299
33435SOL    HW2 2139   4.210   7.882  13.422
33436SOL     OW 2140   8.207  11.855   4.444
33436SOL    HW1 2141   8.282  11.904   4.479
33436SOL    HW2 2142   8.134  11.881   4.500
33437SOL     OW 2143   8.457  11.943  11.800
33437SOL    HW1 2144   8.393  11.879  11.768
33437SOL    HW2 2145   8.541  11.898  11.793
33438SOL     OW 2146   2.737   7.328   3.719
33438SOL    HW1 2147   2.773   7.276   3.647
33438SOL    HW2 2148   2.713   7.412   3.680
33439SOL     OW 2149   3.232   2.703   7.453
33439SOL    HW1 2150   3.199   2.692   7.364
33439SOL    HW2 2151   3.199   2.789   7.480
33440SOL     OW 2152   7.894  14.316   9.183
33440SOL    HW1 2153   7.943  14.311   9.265
33440SOL    HW2 2154   7.850  14.231   9.176
33441SOL     OW 2155   1.241   2.677   9.245
33441SOL    HW1 2156   1.235   2.602   9.185
33441SOL    HW2 2157   1.249   2.753   9.187
33442SOL     OW 2158   0.892  10.231  11.419
33442SOL    HW1 2159   0.913  10.189  11.335
33442SOL    HW2 2160   0.976  10.237  11.464
33443SOL     OW 2161  10.160  14.846   7.560
33443SOL    HW1 2162  10.155  14.878   7.650
33443SOL    HW2 2163  10.251  14.862   7.533
33444SOL     OW 2164   7.613   8.094   0.168
33444SOL    HW1 2165   7.526   8.132   0.156
33444SOL    HW2 2166   7.663   8.163   0.210
33445SOL     OW 2167   5.670  13.969   0.557
33445SOL    HW1 2168   5.575  13.975   0.564
33445SOL    HW2 2169   5.687  13.963   0.463
33446SOL     OW 2170  13.958   1.126  11.707
33446SOL    HW1 2171  13.993   1.065  11.773
33446SOL    HW2 2172  13.899   1.183  11.756
33447SOL     OW 2173   2.046   2.963   9.921
33447SOL    HW1 2174   2.055   3.046   9.967
33447SOL    HW2 2175   2.135   2.938   9.898
33448SOL     OW 2176   0.893  13.849   2.547
33448SOL    HW1 2177   0.843  13.784   2.597
33448SOL    HW2 2178   0.872  13.933   2.589
33449SOL     OW 2179  13.664   9.962   6.247
33449SOL    HW1 2180  13.575   9.997   6.255
33449SOL    HW2 2181  13.717  10.038   6.223
33450SOL     OW 2182   5.653   3.990   3.112
33450SOL    HW1 2183   5.558   3.993   3.128
33450SOL    HW2 2184   5.689   4.059   3.168
33451SOL     OW 2185   7.620  13.549   0.743
33451SOL    HW1 2186   7.536  13.549   0.788
33451SOL    HW2 2187   7.684  13.564   0.812
33452SOL     OW 2188  13.513  14.587  12.870
33452SOL    HW1 2189  13.586  14.541  12.828
33452SOL    HW2 2190  13.470  14.520  12.924
33453SOL     OW 2191   3.413  11.153  11.825
33453SOL    HW1 2192   3.417  11.204  11.744
33453SOL    HW2 2193   3.400  11.219  11.893
33454SOL     OW 2194   7.183   2.510   5.475
33454SOL    HW1 2195   7.256   2.508   5.414
33454SOL    HW2 2196   7.181   2.423   5.514
33455SOL     OW 2197  13.695   3.958   3.054
33455SOL    HW1 2198  13.651   4.043   3.046
33455SOL    HW2 2199  13.675   3.930   3.143
33456SOL     OW 2200  12.945   9.632  11.262
33456SOL    HW1 2201  13.006   9.587  11.203
33456SOL    HW2 2202  12.942   9.578  11.340
33457SOL     OW 2203   3.498   1.148  13.415
33457SOL    HW1 2204   3.451   1.226  13.384
33457SOL    HW2 2205   3.547   1.179  13.492
33458SOL     OW 2206   6.967   5.710   7.551
33458SOL    HW1 2207   7.020   5.739   7.625
33458SOL    HW2 2208   6.991   5.618   7.538
33459SOL     OW 2209   7.702   0.909  13.003
33459SOL    HW1 2210   7.765   0.954  13.059
33459SOL    HW2 2211   7.753   0.879  12.927
33460SOL     OW 2212   4.951  10.582  11.183
33460SOL    HW1 2213   4.872  10.630  11.206
33460SOL    HW2 2214   4.984  10.625  11.104
33461SOL     OW 2215   0.471  11.491   1.571
33461SOL    HW1 2216   0.438  11.406   1.599
33461SOL    HW2 2217   0.392  11.544   1.556
33462SOL     OW 2218   3.748   6.365  14.630
33462SOL    HW1 2219   3.664   6.365  14.585
33462SOL    HW2 2220   3.807   6.317  14.572
33463SOL     OW 2221   7.731  11.477  11.789
33463SOL    HW1 2222   7.808  11.421  11.794
33463SOL    HW2 2223   7.667  11.436  11.848
33464SOL     OW 2224  11.513   2.950   5.704
33464SOL    HW1 2225  11.572   2.934   5.778
33464SOL    HW2 2226  11.569   2.990   5.637
33465SOL     OW 2227   7.321   5.034   3.286
33465SOL    HW1 2228   7.249   5.038   3.223
33465SOL    HW2 2229   7.371   4.957   3.260
33466SOL     OW 2230   9.327   5.144   4.762
33466SOL    HW1 2231   9.265   5.191   4.707
33466SOL    HW2 2232   9.331   5.194   4.843
33467SOL     OW 2233   5.411  14.697   8.466
33467SOL    HW1 2234   5.350  14.632   8.501
33467SOL    HW2 2235   5.482  14.644   8.428
33468SOL     OW 2236   9.746   0.236  14.839
33468SOL    HW1 2237   9.759   0.294   0.034
33468SOL    HW2 2238   9.775   0.150  14.870
33469SOL     OW 2239   3.635  10.498  14.383
33469SOL    HW1 2240   3.557  10.451  14.413
33469SOL    HW2 2241   3.696  10.493  14.457
33470SOL     OW 2242   8.797  10.859   7.086
33470SOL    HW1 2243   8.836  10.880   7.172
33470SOL    HW2 2244   8.715  10.815   7.108
33471SOL     OW 2245   9.611  13.436   5.755
33471SOL    HW1 2246   9.596  13.347   5.721
33471SOL    HW2 2247   9.698  13.459   5.722
33472SOL     OW 2248   1.802   0.132  10.148
33472SOL    HW1 2249   1.884   0.139  10.197
33472SOL    HW2 2250   1.733   0.135  10.214
33473SOL     OW 2251   2.427   0.576   6.581
33473SOL    HW1 2252   2.470   0.501   6.621
33473SOL    HW2 2253   2.369   0.610   6.649
33474SOL     OW 2254   0.017   9.781   8.008
33474SOL    HW1 2255   0.004   9.802   8.100
33474SOL    HW2 2256   0.112   9.782   7.996
33475SOL     OW 2257  11.165   7.784   4.218
33475SOL    HW1 2258  11.155   7.746   4.131
33475SOL    HW2 2259  11.231   7.852   4.207
33476SOL     OW 2260   8.335   1.950   6.573
33476SOL    HW1 2261   8.343   1.952   6.668
33476SOL    HW2 2262   8.403   2.010   6.542
33477SOL     OW 2263  11.188   0.804  12.973
33477SOL    HW1 2264  11.227   0.858  13.041
33477SOL    HW2 2265  11.197   0.714  13.005
33478SOL     OW 2266  11.472   5.267  10.113
33478SOL    HW1 2267  11.536   5.294  10.048
33478SOL    HW2 2268  11.470   5.171  10.107
33479SOL     OW 2269  11.745  10.016  13.397
33479SOL    HW1 2270  11.697  10.095  13.375
33479SOL    HW2 2271  11.771   9.979  13.313
33480SOL     OW 2272  10.714   7.772   7.910
33480SOL    HW1 2273  10.674   7.846   7.956
33480SOL    HW2 2274  10.805   7.800   7.896
33481SOL     OW 2275   3.676  13.693  11.704
33481SOL    HW1 2276   3.594  13.648  11.725
33481SOL    HW2 2277   3.743  13.625  11.711
33482SOL     OW 2278  10.928   7.984   9.506
33482SOL    HW1 2279  10.892   8.013   9.590
33482SOL    HW2 2280  10.996   8.049   9.486
33483SOL     OW 2281  11.116  10.129  14.527
33483SOL    HW1 2282  11.066  10.056  14.490
33483SOL    HW2 2283  11.182  10.149  14.461
33484SOL     OW 2284   5.915   2.612   2.087
33484SOL    HW1 2285   5.970   2.615   2.009
33484SOL    HW2 2286   5.867   2.695   2.087
33485SOL     OW 2287  12.175   2.140  13.655
33485SOL    HW1 2288  12.145   2.052  13.678
33485SOL    HW2 2289  12.096   2.194  13.657
33486SOL     OW 2290   0.403   6.443   6.359
33486SOL    HW1 2291   0.360   6.423   6.275
33486SOL    HW2 2292   0.361   6.523   6.388
33487SOL     OW 2293  14.066  11.665   4.271
33487SOL    HW1 2294  14.036  11.750   4.304
33487SOL    HW2 2295  14.041  11.665   4.179
33488SOL     OW 2296  11.597   9.023  12.515
33488SOL    HW1 2297  11.627   8.941  12.478
33488SOL    HW2 2298  11.621   9.019  12.607
33489SOL     OW 2299   6.255  11.568  12.507
33489SOL    HW1 2300   6.212  11.533  12.430
33489SOL    HW2 2301   6.291  11.491  12.551
33490SOL     OW 2302   6.838  12.791   9.998
33490SOL    HW1 2303   6.906  12.745   9.949
33490SOL    HW2 2304   6.881  12.816  10.080
33491SOL     OW 2305   9.743  14.788   1.765
33491SOL    HW1 2306   9.648  14.781   1.752
33491SOL    HW2 2307   9.779  14.794   1.677
33492SOL     OW 2308   9.652  11.252  12.370
33492SOL    HW1 2309   9.643  11.211  12.284
33492SOL    HW2 2310   9.586  11.209  12.424
33493SOL     OW 2311  10.827   2.588   2.625
33493SOL    HW1 2312  10.835   2.680   2.649
33493SOL    HW2 2313  10.823   2.541   2.708
33494SOL     OW 2314  14.159   1.550   1.458
33494SOL    HW1 2315  14.133   1.635   1.422
33494SOL    HW2 2316  14.243   1.531   1.417
33495SOL     OW 2317   2.560   7.639   4.361
33495SOL    HW1 2318   2.509   7.593   4.427
33495SOL    HW2 2319   2.605   7.708   4.409
33496SOL     OW 2320  11.506   9.698   6.874
33496SOL    HW1 2321  11.474   9.669   6.960
33496SOL    HW2 2322  11.566   9.628   6.847
33497SOL     OW 2323   9.561   6.852  12.559
33497SOL    HW1 2324   9.656   6.855  12.555
33497SOL    HW2 2325   9.536   6.787  12.493
33498SOL     OW 2326  14.386   0.747   6.516
33498SOL    HW1 2327  14.300   0.782   6.539
33498SOL    HW2 2328  14.435   0.821   6.481
33499SOL     OW 2329   4.154   5.003   2.161
33499SOL    HW1 2330   4.163   4.938   2.231
33499SOL    HW2 2331   4.244   5.033   2.145
33500SOL     OW 2332   0.468  11.147   1.074
33500SOL    HW1 2333   0.509  11.221   1.030
33500SOL    HW2 2334   0.540  11.085   1.089
33501SOL     OW 2335   3.255   7.297  11.082
33501SOL    HW1 2336   3.280   7.206  11.066
33501SOL    HW2 2337   3.164   7.291  11.111
33502SOL     OW 2338   7.464  11.145   2.790
33502SOL    HW1 2339   7.497  11.186   2.871
33502SOL    HW2 2340   7.527  11.171   2.723
33503SOL     OW 2341  13.696   6.555   6.092
33503SOL    HW1 2342  13.716   6.641   6.054
33503SOL    HW2 2343  13.781   6.518   6.115
33504SOL     OW 2344   0.610   3.390   3.189
33504SOL    HW1 2345   0.646   3.309   3.227
33504SOL    HW2 2346   0.529   3.363   3.146
33505SOL     OW 2347   8.785   7.184  10.669
33505SOL    HW1 2348   8.784   7.121  10.597
33505SOL    HW2 2349   8.731   7.144  10.737
33506SOL     OW 2350   3.354  12.374  12.314
33506SOL    HW1 2351   3.344  12.431  12.237
33506SOL    HW2 2352   3.302  12.296  12.293
33507SOL     OW 2353   5.983  14.405  13.662
33507SOL    HW1 2354   6.002  14.466  13.591
33507SOL    HW2 2355   6.056  14.416  13.724
33508SOL     OW 2356   8.136   2.875  11.708
33508SOL    HW1 2357   8.175   2.806  11.655
33508SOL    HW2 2358   8.204   2.943  11.712
33509SOL     OW 2359   8.132   1.901   3.762
33509SOL    HW1 2360   8.189   1.959   3.711
33509SOL    HW2 2361   8.045   1.916   3.725
33510SOL     OW 2362   7.862   2.097  14.097
33510SOL    HW1 2363   7.888   2.176  14.050
33510SOL    HW2 2364   7.909   2.026  14.054
33511SOL     OW 2365  13.816   0.325   6.502
33511SOL    HW1 2366  13.888   0.379   6.466
33511SOL    HW2 2367  13.746   0.388   6.518
33512SOL     OW 2368   3.593   1.183  12.159
33512SOL    HW1 2369   3.542   1.118  12.110
33512SOL    HW2 2370   3.533   1.215  12.226
33513SOL     OW 2371   0.530  12.113  12.771
33513SOL    HW1 2372   0.454  12.164  12.798
33513SOL    HW2 2373   0.604  12.152  12.818
33514SOL     OW 2374   5.859   1.432   4.968
33514SOL    HW1 2375   5.892   1.494   5.034
33514SOL    HW2 2376   5.795   1.379   5.016
33515SOL     OW 2377   2.728   5.664  14.191
33515SOL    HW1 2378   2.762   5.676  14.102
33515SOL    HW2 2379   2.645   5.711  14.192
33516SOL     OW 2380   2.060   4.221   5.758
33516SOL    HW1 2381   2.073   4.284   5.686
33516SOL    HW2 2382   2.136   4.234   5.815
33517SOL     OW 2383   1.344   4.224   0.635
33517SOL    HW1 2384   1.393   4.299   0.601
33517SOL    HW2 2385   1.272   4.263   0.684
33518SOL     OW 2386   2.154   0.615   0.811
33518SOL    HW1 2387   2.198   0.533   0.789
33518SOL    HW2 2388   2.165   0.624   0.905
33519SOL     OW 2389   0.971  13.801  14.304
33519SOL    HW1 2390   0.969  13.860  14.229
33519SOL    HW2 2391   0.889  13.818  14.351
33520SOL     OW 2392   4.335   2.683   8.449
33520SOL    HW1 2393   4.340   2.779   8.448
33520SOL    HW2 2394   4.390   2.657   8.523
33521SOL     OW 2395  12.206  11.013   1.782
33521SOL    HW1 2396  12.180  11.104   1.767
33521SOL    HW2 2397  12.279  10.998   1.722
33522SOL     OW 2398   2.760   6.079   9.178
33522SOL    HW1 2399   2.738   6.033   9.097
33522SOL    HW2 2400   2.853   6.062   9.191
33523SOL     OW 2401  14.478   8.209   9.199
33523SOL    HW1 2402  14.496   8.213   9.105
33523SOL    HW2 2403  14.479   8.115   9.220
33524SOL     OW 2404   7.707   8.084   8.153
33524SOL    HW1 2405   7.787   8.086   8.101
33524SOL    HW2 2406   7.651   8.151   8.114
33525SOL     OW 2407  10.740  14.450  11.139
33525SOL    HW1 2408  10.746  14.502  11.058
33525SOL    HW2 2409  10.646  14.442  11.155
33526SOL     OW 2410   8.114   7.808   8.840
33526SOL    HW1 2411   8.097   7.890   8.794
33526SOL    HW2 2412   8.057   7.744   8.798
33527SOL     OW 2413  13.732   3.295   9.723
33527SOL    HW1 2414  13.780   3.255   9.795
33527SOL    HW2 2415  13.713   3.221   9.664
33528SOL     OW 2416  12.083   0.984   7.138
33528SOL    HW1 2417  12.016   0.948   7.080
33528SOL    HW2 2418  12.058   1.076   7.149
33529SOL     OW 2419   6.428  13.709   9.801
33529SOL    HW1 2420   6.500  13.649   9.782
33529SOL    HW2 2421   6.471  13.791   9.823
33530SOL     OW 2422   6.310   8.794  14.241
33530SOL    HW1 2423   6.224   8.835  14.247
33530SOL    HW2 2424   6.370   8.867  14.225
33531SOL     OW 2425   9.902   4.921   7.546
33531SOL    HW1 2426   9.987   4.944   7.582
33531SOL    HW2 2427   9.906   4.826   7.535
33532SOL     OW 2428   6.025  12.761   4.600
33532SOL    HW1 2429   6.066  12.816   4.533
33532SOL    HW2 2430   5.931  12.771   4.584
33533SOL     OW 2431   6.168   8.692  10.954
33533SOL    HW1 2432   6.234   8.677  10.886
33533SOL    HW2 2433   6.150   8.786  10.949
33534SOL     OW 2434  10.986  11.753  14.403
33534SOL    HW1 2435  11.021  11.665  14.406
33534SOL    HW2 2436  11.060  11.809  14.380
33535SOL     OW 2437   1.958  10.480   5.102
33535SOL    HW1 2438   1.931  10.389   5.089
33535SOL    HW2 2439   1.876  10.528   5.112
33536SOL     OW 2440   5.085   9.642  12.594
33536SOL    HW1 2441   5.059   9.564  12.642
33536SOL    HW2 2442   5.003   9.680  12.563
33537SOL     OW 2443  11.395  13.382   5.935
33537SOL    HW1 2444  11.473  13.369   5.989
33537SOL    HW2 2445  11.327  13.412   5.997
33538SOL     OW 2446   9.730   9.139   8.245
33538SOL    HW1 2447   9.733   9.214   8.304
33538SOL    HW2 2448   9.673   9.166   8.174
33539SOL     OW 2449  10.533   8.393   1.726
33539SOL    HW1 2450  10.442   8.365   1.726
33539SOL    HW2 2451  10.548   8.427   1.638
33540SOL     OW 2452   4.362   7.184  13.047
33540SOL    HW1 2453   4.286   7.128  13.026
33540SOL    HW2 2454   4.391   7.153  13.132
33541SOL     OW 2455   8.530  10.131   1.695
33541SOL    HW1 2456   8.605  10.104   1.750
33541SOL    HW2 2457   8.454  10.095   1.740
33542SOL     OW 2458   9.983   4.067   1.711
33542SOL    HW1 2459  10.012   4.083   1.621
33542SOL    HW2 2460  10.046   4.115   1.766
33543SOL     OW 2461   1.603   7.683   2.748
33543SOL    HW1 2462   1.551   7.711   2.824
33543SOL    HW2 2463   1.669   7.751   2.737
33544SOL     OW 2464   4.711   8.648   9.374
33544SOL    HW1 2465   4.777   8.621   9.311
33544SOL    HW2 2466   4.731   8.597   9.453
33545SOL     OW 2467   1.576  14.626   4.605
33545SOL    HW1 2468   1.531  14.710   4.599
33545SOL    HW2 2469   1.520  14.573   4.662
33546SOL     OW 2470  10.346   2.469   9.306
33546SOL    HW1 2471  10.434   2.467   9.344
33546SOL    HW2 2472  10.299   2.536   9.356
33547SOL     OW 2473   8.977  10.087   9.965
33547SOL    HW1 2474   8.932  10.028   9.905
33547SOL    HW2 2475   8.908  10.146   9.997
33548SOL     OW 2476  13.737   3.254   4.670
33548SOL    HW1 2477  13.802   3.292   4.611
33548SOL    HW2 2478  13.700   3.181   4.622
33549SOL     OW 2479  13.969  14.314  14.263
33549SOL    HW1 2480  13.934  14.395  14.298
33549SOL    HW2 2481  14.023  14.341  14.188
33550SOL     OW 2482   6.281   8.825   4.544
33550SOL    HW1 2483   6.200   8.831   4.493
33550SOL    HW2 2484   6.285   8.907   4.593
33551SOL     OW 2485   7.518   2.269   5.814
33551SOL    HW1 2486   7.526   2.241   5.906
33551SOL    HW2 2487   7.542   2.362   5.816
33552SOL     OW 2488  11.379   9.113  14.659
33552SOL    HW1 2489  11.319   9.075  14.723
33552SOL    HW2 2490  11.417   9.189  14.704
33553SOL     OW 2491   4.617   1.759   0.878
33553SOL    HW1 2492   4.538   1.708   0.892
33553SOL    HW2 2493   4.599   1.809   0.798
33554SOL     OW 2494  10.668   1.483  12.740
33554SOL    HW1 2495  10.656   1.420  12.811
33554SOL    HW2 2496  10.694   1.564  12.784
33555SOL     OW 2497  10.542   9.862   8.518
33555SOL    HW1 2498  10.512   9.941   8.562
33555SOL    HW2 2499  10.468   9.802   8.523
33556SOL     OW 2500   3.603  10.716  11.578
33556SOL    HW1 2501   3.540  10.708  11.506
33556SOL    HW2 2502   3.651  10.633  11.576
33557SOL     OW 2503  13.077   0.038   2.377
33557SOL    HW1 2504  13.061  14.873   2.460
33557SOL    HW2 2505  13.075   0.131   2.398
33558SOL     OW 2506   9.212   6.845  10.816
33558SOL    HW1 2507   9.295   6.828  10.772
33558SOL    HW2 2508   9.176   6.922  10.772
33559SOL     OW 2509  14.519   6.087   8.581
33559SOL    HW1 2510  14.529   6.088   8.486
33559SOL    HW2 2511  14.608   6.074   8.615
33560SOL     OW 2512   8.791  11.114   8.311
33560SOL    HW1 2513   8.740  11.034   8.325
33560SOL    HW2 2514   8.750  11.155   8.235
33561SOL     OW 2515   2.061  13.673   5.307
33561SOL    HW1 2516   2.035  13.681   5.399
33561SOL    HW2 2517   1.982  13.643   5.263
33562SOL     OW 2518   4.162  11.681  10.917
33562SOL    HW1 2519   4.192  11.772  10.917
33562SOL    HW2 2520   4.243  11.630  10.910
33563SOL     OW 2521  14.812  10.133   5.138
33563SOL    HW1 2522   0.008  10.173   5.181
33563SOL    HW2 2523  14.776  10.202   5.083
33564SOL     OW 2524   2.040   7.874   5.186
33564SOL    HW1 2525   2.102   7.911   5.249
33564SOL    HW2 2526   1.973   7.832   5.240
33565SOL     OW 2527  13.690  13.016  14.022
33565SOL    HW1 2528  13.649  12.930  14.031
33565SOL    HW2 2529  13.678  13.058  14.107
33566SOL     OW 2530   7.537  11.418   5.281
33566SOL    HW1 2531   7.486  11.372   5.348
33566SOL    HW2 2532   7.628  11.400   5.305
33567SOL     OW 2533   2.862  14.057  13.298
33567SOL    HW1 2534   2.773  14.078  13.270
33567SOL    HW2 2535   2.877  14.113  13.374
33568SOL     OW 2536   7.642   6.087  10.143
33568SOL    HW1 2537   7.722   6.054  10.183
33568SOL    HW2 2538   7.625   6.170  10.188
33569SOL     OW 2539   5.274   1.165   4.875
33569SOL    HW1 2540   5.334   1.103   4.918
33569SOL    HW2 2541   5.311   1.177   4.788
33570SOL     OW 2542   2.466   6.054  14.723
33570SOL    HW1 2543   2.532   6.122  14.738
33570SOL    HW2 2544   2.463   6.006  14.806
33571SOL     OW 2545   5.253   6.425   1.027
33571SOL    HW1 2546   5.197   6.450   0.953
33571SOL    HW2 2547   5.313   6.499   1.038
33572SOL     OW 2548   1.190  10.080   7.987
33572SOL    HW1 2549   1.170  10.157   7.935
33572SOL    HW2 2550   1.261  10.036   7.940
33573SOL     OW 2551   5.797  14.408   8.229
33573SOL    HW1 2552   5.879  14.453   8.210
33573SOL    HW2 2553   5.799  14.330   8.172
33574SOL     OW 2554  12.920   5.627   7.345
33574SOL    HW1 2555  12.885   5.715   7.329
33574SOL    HW2 2556  12.847   5.569   7.327
33575SOL     OW 2557   0.365   2.136  10.148
33575SOL    HW1 2558   0.436   2.085  10.111
33575SOL    HW2 2559   0.386   2.144  10.241
33576SOL     OW 2560  13.811   0.866  11.158
33576SOL    HW1 2561  13.764   0.797  11.111
33576SOL    HW2 2562  13.844   0.823  11.237
33577SOL     OW 2563   4.899   2.478  12.901
33577SOL    HW1 2564   4.949   2.396  12.898
33577SOL    HW2 2565   4.893   2.505  12.810
33578SOL     OW 2566   7.980   9.643  13.766
33578SOL    HW1 2567   8.014   9.645  13.856
33578SOL    HW2 2568   7.941   9.729  13.753
33579SOL     OW 2569   9.421   6.722   1.469
33579SOL    HW1 2570   9.419   6.788   1.538
33579SOL    HW2 2571   9.348   6.745   1.411
33580SOL     OW 2572   0.566   7.005   5.340
33580SOL    HW1 2573   0.651   6.961   5.332
33580SOL    HW2 2574   0.548   7.039   5.253
33581SOL     OW 2575  12.478   2.082   6.289
33581SOL    HW1 2576  12.407   2.026   6.258
33581SOL    HW2 2577  12.434   2.158   6.327
33582SOL     OW 2578  13.305   7.818   0.696
33582SOL    HW1 2579  13.396   7.847   0.688
33582SOL    HW2 2580  13.271   7.870   0.769
33583SOL     OW 2581   3.792   7.511   7.930
33583SOL    HW1 2582   3.870   7.470   7.967
33583SOL    HW2 2583   3.724   7.443   7.937
33584SOL     OW 2584  11.770   4.575   6.201
33584SOL    HW1 2585  11.719   4.529   6.267
33584SOL    HW2 2586  11.832   4.629   6.251
33585SOL     OW 2587  13.689  13.867   8.788
33585SOL    HW1 2588  13.757  13.934   8.797
33585SOL    HW2 2589  13.608  13.911   8.813
33586SOL     OW 2590   6.717  13.225   0.308
33586SOL    HW1 2591   6.661  13.301   0.298
33586SOL    HW2 2592   6.800  13.260   0.340
33587SOL     OW 2593   5.441  12.706   6.819
33587SOL    HW1 2594   5.365  12.659   6.785
33587SOL    HW2 2595   5.505  12.637   6.837
33588SOL     OW 2596   3.288   5.770   4.197
33588SOL    HW1 2597   3.221   5.704   4.212
33588SOL    HW2 2598   3.245   5.853   4.219
33589SOL     OW 2599  12.373   1.135   7.514
33589SOL    HW1 2600  12.446   1.131   7.576
33589SOL    HW2 2601  12.337   1.047   7.514
33590SOL     OW 2602   6.757   0.244   3.863
33590SOL    HW1 2603   6.673   0.285   3.842
33590SOL    HW2 2604   6.796   0.221   3.779
33591SOL     OW 2605  10.280  11.347   8.223
33591SOL    HW1 2606  10.198  11.315   8.263
33591SOL    HW2 2607  10.347  11.327   8.287
33592SOL     OW 2608  13.370   0.599   5.338
33592SOL    HW1 2609  13.407   0.680   5.304
33592SOL    HW2 2610  13.275   0.610   5.330
33593SOL     OW 2611  12.553   1.532   6.980
33593SOL    HW1 2612  12.614   1.575   7.040
33593SOL    HW2 2613  12.523   1.603   6.922
33594SOL     OW 2614   7.791   2.203  12.660
33594SOL    HW1 2615   7.847   2.203  12.737
33594SOL    HW2 2616   7.711   2.158  12.689
33595SOL     OW 2617   0.641   5.396   5.327
33595SOL    HW1 2618   0.649   5.467   5.390
33595SOL    HW2 2619   0.558   5.415   5.281
33596SOL     OW 2620   8.500   5.728   3.790
33596SOL    HW1 2621   8.459   5.645   3.767
33596SOL    HW2 2622   8.529   5.716   3.881
33597SOL     OW 2623   0.426   5.365   7.633
33597SOL    HW1 2624   0.428   5.384   7.727
33597SOL    HW2 2625   0.409   5.450   7.592
33598SOL     OW 2626  11.372   0.982   5.801
33598SOL    HW1 2627  11.462   0.970   5.773
33598SOL    HW2 2628  11.342   1.060   5.754
33599SOL     OW 2629  12.551   0.850   4.629
33599SOL    HW1 2630  12.506   0.826   4.548
33599SOL    HW2 2631  12.483   0.842   4.697
33600SOL     OW 2632  12.158  13.437   7.266
33600SOL    HW1 2633  12.090  13.504   7.275
33600SOL    HW2 2634  12.144  13.401   7.178
33601SOL     OW 2635  10.615  14.416   8.624
33601SOL    HW1 2636  10.703  14.450   8.605
33601SOL    HW2 2637  10.590  14.459   8.706
33602SOL     OW 2638   9.704   6.554   5.315
33602SOL    HW1 2639   9.653   6.612   5.258
33602SOL    HW2 2640   9.741   6.612   5.381
33603SOL     OW 2641  11.073   2.391   2.587
33603SOL    HW1 2642  11.048   2.377   2.495
33603SOL    HW2 2643  11.060   2.305   2.628
33604SOL     OW 2644  10.381   7.744  12.113
33604SOL    HW1 2645  10.341   7.825  12.079
33604SOL    HW2 2646  10.404   7.765  12.203
33605SOL     OW 2647   8.773  11.917  10.189
33605SOL    HW1 2648   8.686  11.940  10.157
33605SOL    HW2 2649   8.833  11.947  10.121
33606SOL     OW 2650  14.480   5.395   2.359
33606SOL    HW1 2651  14.417   5.420   2.427
33606SOL    HW2 2652  14.470   5.461   2.291
33607SOL     OW 2653   3.878   3.179  12.317
33607SOL    HW1 2654   3.875   3.093  12.274
33607SOL    HW2 2655   3.793   3.218  12.298
33608SOL     OW 2656  13.716   0.656   3.746
33608SOL    HW1 2657  13.673   0.698   3.672
33608SOL    HW2 2658  13.809   0.674   3.733
33609SOL     OW 2659  11.130   3.813   6.623
33609SOL    HW1 2660  11.141   3.799   6.717
33609SOL    HW2 2661  11.181   3.892   6.604
33610SOL     OW 2662   5.271  10.017   6.209
33610SOL    HW1 2663   5.278   9.927   6.239
33610SOL    HW2 2664   5.326  10.020   6.130
33611SOL     OW 2665   5.746   7.898   3.094
33611SOL    HW1 2666   5.820   7.959   3.097
33611SOL    HW2 2667   5.754   7.855   3.009
33612SOL     OW 2668   9.132   5.255   9.386
33612SOL    HW1 2669   9.069   5.327   9.392
33612SOL    HW2 2670   9.216   5.298   9.373
33613SOL     OW 2671   2.885  14.142   2.503
33613SOL    HW1 2672   2.928  14.064   2.538
33613SOL    HW2 2673   2.884  14.129   2.408
33614SOL     OW 2674  13.270   9.324  14.025
33614SOL    HW1 2675  13.194   9.380  14.006
33614SOL    HW2 2676  13.326   9.378  14.080
33615SOL     OW 2677  12.189   6.264  13.495
33615SOL    HW1 2678  12.167   6.212  13.418
33615SOL    HW2 2679  12.207   6.199  13.563
33616SOL     OW 2680   4.175   2.997   1.373
33616SOL    HW1 2681   4.168   3.030   1.462
33616SOL    HW2 2682   4.100   2.939   1.363
33617SOL     OW 2683  11.962   5.721   5.835
33617SOL    HW1 2684  11.999   5.642   5.875
33617SOL    HW2 2685  11.870   5.719   5.860
33618SOL     OW 2686   7.620   5.270   6.611
33618SOL    HW1 2687   7.539   5.233   6.645
33618SOL    HW2 2688   7.654   5.322   6.684
33619SOL     OW 2689  14.640   2.737   3.911
33619SOL    HW1 2690  14.646   2.825   3.875
33619SOL    HW2 2691  14.590   2.747   3.992
33620SOL     OW 2692  12.828   7.757  10.365
33620SOL    HW1 2693  12.811   7.820  10.294
33620SOL    HW2 2694  12.923   7.759  10.377
33621SOL     OW 2695  13.750   9.101  12.818
33621SOL    HW1 2696  13.825   9.046  12.840
33621SOL    HW2 2697  13.785   9.169  12.761
33622SOL     OW 2698   2.091  13.481  10.397
33622SOL    HW1 2699   2.010  13.454  10.355
33622SOL    HW2 2700   2.080  13.574  10.413
33623SOL     OW 2701   7.448  12.795   7.158
33623SOL    HW1 2702   7.479  12.705   7.151
33623SOL    HW2 2703   7.501  12.833   7.228
33624SOL     OW 2704  13.419  14.554   6.501
33624SOL    HW1 2705  13.512  14.562   6.478
33624SOL    HW2 2706  13.384  14.490   6.440
33625SOL     OW 2707  10.584   9.379   4.376
33625SOL    HW1 2708  10.662   9.328   4.354
33625SOL    HW2 2709  10.606   9.425   4.457
33626SOL     OW 2710  10.630   6.058   7.792
33626SOL    HW1 2711  10.660   6.020   7.709
33626SOL    HW2 2712  10.536   6.070   7.780
33627SOL     OW 2713   8.003  14.723  10.568
33627SOL    HW1 2714   7.908  14.739  10.568
33627SOL    HW2 2715   8.013  14.637  10.528
33628SOL     OW 2716   6.473  12.941  12.080
33628SOL    HW1 2717   6.513  12.979  12.159
33628SOL    HW2 2718   6.428  13.014  12.038
33629SOL     OW 2719   4.423  13.601  12.099
33629SOL    HW1 2720   4.456  13.511  12.094
33629SOL    HW2 2721   4.442  13.629  12.188
33630SOL     OW 2722   3.231   9.048   7.267
33630SOL    HW1 2723   3.282   9.008   7.196
33630SOL    HW2 2724   3.296   9.067   7.335
33631SOL     OW 2725  13.167   4.520   2.001
33631SOL    HW1 2726  13.157   4.441   2.053
33631SOL    HW2 2727  13.134   4.591   2.057
33632SOL     OW 2728  13.169   9.227   8.471
33632SOL    HW1 2729  13.118   9.308   8.469
33632SOL    HW2 2730  13.211   9.223   8.385
33633SOL     OW 2731   5.052   5.125  12.437
33633SOL    HW1 2732   4.996   5.171  12.500
33633SOL    HW2 2733   5.085   5.050  12.486
33634SOL     OW 2734   2.714  13.262   7.647
33634SOL    HW1 2735   2.690  13.170   7.639
33634SOL    HW2 2736   2.672  13.291   7.728
33635SOL     OW 2737  14.038  13.319   8.214
33635SOL    HW1 2738  14.023  13.414   8.206
33635SOL    HW2 2739  14.127  13.306   8.184
33636SOL     OW 2740   3.140   0.727  12.029
33636SOL    HW1 2741   3.061   0.763  11.988
33636SOL    HW2 2742   3.190   0.691  11.956
33637SOL     OW 2743  10.274  13.347   0.879
33637SOL    HW1 2744  10.363  13.315   0.894
33637SOL    HW2 2745  10.250  13.314   0.793
33638SOL     OW 2746  12.973  10.334  11.249
33638SOL    HW1 2747  12.978  10.276  11.173
33638SOL    HW2 2748  13.064  10.352  11.272
33639SOL     OW 2749   3.839  14.545   2.010
33639SOL    HW1 2750   3.788  14.464   2.017
33639SOL    HW2 2751   3.803  14.590   1.934
33640SOL     OW 2752   9.153   7.280   2.179
33640SOL    HW1 2753   9.140   7.209   2.242
33640SOL    HW2 2754   9.080   7.340   2.195
33641SOL     OW 2755  11.156   0.765   2.596
33641SOL    HW1 2756  11.222   0.830   2.623
33641SOL    HW2 2757  11.072   0.805   2.620
33642SOL     OW 2758   5.412   2.184   8.744
33642SOL    HW1 2759   5.428   2.100   8.702
33642SOL    HW2 2760   5.498   2.213   8.775
33643SOL     OW 2761   6.596   7.994   0.919
33643SOL    HW1 2762   6.646   8.074   0.901
33643SOL    HW2 2763   6.564   8.005   1.008
33644SOL     OW 2764   6.073  10.974  14.863
33644SOL    HW1 2765   6.160  11.012  14.875
33644SOL    HW2 2766   6.026  11.037  14.809
33645SOL     OW 2767  13.712   9.644   1.018
33645SOL    HW1 2768  13.725   9.722   1.072
33645SOL    HW2 2769  13.758   9.662   0.937
33646SOL     OW 2770   7.895   5.428  10.727
33646SOL    HW1 2771   7.845   5.509  10.713
33646SOL    HW2 2772   7.977   5.457  10.767
33647SOL     OW 2773   2.116  12.926   2.554
33647SOL    HW1 2774   2.146  12.900   2.642
33647SOL    HW2 2775   2.082  13.014   2.566
33648SOL     OW 2776  10.841   4.336   7.183
33648SOL    HW1 2777  10.821   4.391   7.107
33648SOL    HW2 2778  10.881   4.396   7.246
33649SOL     OW 2779   7.922  14.070   4.152
33649SOL    HW1 2780   7.913  14.010   4.226
33649SOL    HW2 2781   7.928  14.012   4.076
33650SOL     OW 2782   6.003  11.727   2.115
33650SOL    HW1 2783   6.007  11.636   2.088
33650SOL    HW2 2784   5.962  11.725   2.202
33651SOL     OW 2785   3.342   3.228   3.277
33651SOL    HW1 2786   3.282   3.186   3.338
33651SOL    HW2 2787   3.291   3.238   3.196
33652SOL     OW 2788   7.768   0.850   4.149
33652SOL    HW1 2789   7.842   0.859   4.089
33652SOL    HW2 2790   7.726   0.936   4.147
33653SOL     OW 2791   8.748   0.096  10.604
33653SOL    HW1 2792   8.663   0.136  10.622
33653SOL    HW2 2793   8.803   0.121  10.679
33654SOL     OW 2794   3.142   6.804   8.320
33654SOL    HW1 2795   3.213   6.845   8.370
33654SOL    HW2 2796   3.155   6.710   8.332
33655SOL     OW 2797  11.609   8.272  13.386
33655SOL    HW1 2798  11.659   8.353  13.399
33655SOL    HW2 2799  11.518   8.298  13.401
33656SOL     OW 2800   0.659   7.762   3.498
33656SOL    HW1 2801   0.595   7.772   3.427
33656SOL    HW2 2802   0.741   7.740   3.453
33657SOL     OW 2803   4.926  14.315  12.275
33657SOL    HW1 2804   4.884  14.323  12.190
33657SOL    HW2 2805   5.013  14.279  12.255
33658SOL     OW 2806   3.682   7.623   8.580
33658SOL    HW1 2807   3.649   7.710   8.560
33658SOL    HW2 2808   3.645   7.567   8.512
33659SOL     OW 2809  14.698  10.772   2.494
33659SOL    HW1 2810  14.619  10.729   2.527
33659SOL    HW2 2811  14.702  10.855   2.543
33660SOL     OW 2812   7.941   1.299   5.722
33660SOL    HW1 2813   7.883   1.332   5.791
33660SOL    HW2 2814   7.885   1.244   5.668
33661SOL     OW 2815   2.197   6.837   7.841
33661SOL    HW1 2816   2.263   6.861   7.907
33661SOL    HW2 2817   2.243   6.844   7.758
33662SOL     OW 2818  10.451   1.608   2.656
33662SOL    HW1 2819  10.430   1.592   2.748
33662SOL    HW2 2820  10.367   1.604   2.611
33663SOL     OW 2821   9.052   4.080  10.250
33663SOL    HW1 2822   9.034   4.120  10.164
33663SOL    HW2 2823   8.993   4.126  10.310
33664SOL     OW 2824   0.617   9.377  10.770
33664SOL    HW1 2825   0.705   9.386  10.808
33664SOL    HW2 2826   0.590   9.288  10.793
33665SOL     OW 2827   8.245  12.379  11.459
33665SOL    HW1 2828   8.257  12.462  11.413
33665SOL    HW2 2829   8.187  12.400  11.532
33666SOL     OW 2830   0.696   3.281  12.771
33666SOL    HW1 2831   0.770   3.269  12.830
33666SOL    HW2 2832   0.648   3.355  12.807
33667SOL     OW 2833  12.254  12.780   2.002
33667SOL    HW1 2834  12.285  12.866   2.032
33667SOL    HW2 2835  12.259  12.785   1.907
33668SOL     OW 2836   1.879   6.216   4.133
33668SOL    HW1 2837   1.829   6.281   4.084
33668SOL    HW2 2838   1.824   6.194   4.208
33669SOL     OW 2839   8.193   1.420  10.793
33669SOL    HW1 2840   8.147   1.502  10.774
33669SOL    HW2 2841   8.146   1.384  10.868
33670SOL     OW 2842  12.656   6.207   8.060
33670SOL    HW1 2843  12.749   6.209   8.084
33670SOL    HW2 2844  12.642   6.119   8.026
33671SOL     OW 2845  12.454   1.196   6.725
33671SOL    HW1 2846  12.416   1.113   6.755
33671SOL    HW2 2847  12.466   1.247   6.804
33672SOL     OW 2848  10.133   9.801   6.011
33672SOL    HW1 2849  10.179   9.783   6.093
33672SOL    HW2 2850  10.157   9.891   5.990
33673SOL     OW 2851   1.144   4.744  14.552
33673SOL    HW1 2852   1.169   4.793  14.631
33673SOL    HW2 2853   1.048   4.747  14.552
33674SOL     OW 2854   8.754   6.728   0.080
33674SOL    HW1 2855   8.817   6.690   0.018
33674SOL    HW2 2856   8.671   6.686   0.059
33675SOL     OW 2857  12.963   9.892  13.056
33675SOL    HW1 2858  12.930   9.819  13.005
33675SOL    HW2 2859  13.008   9.948  12.993
33676SOL     OW 2860  14.704   3.669   5.892
33676SOL    HW1 2861  14.745   3.730   5.831
33676SOL    HW2 2862  14.706   3.714   5.976
33677SOL     OW 2863   4.030   1.625   6.393
33677SOL    HW1 2864   4.021   1.531   6.411
33677SOL    HW2 2865   3.966   1.667   6.451
33678SOL     OW 2866   6.001  12.876   6.628
33678SOL    HW1 2867   5.926  12.817   6.638
33678SOL    HW2 2868   5.983  12.923   6.546
33679SOL     OW 2869   4.655   1.178   2.363
33679SOL    HW1 2870   4.722   1.219   2.309
33679SOL    HW2 2871   4.625   1.247   2.422
33680SOL     OW 2872  13.252   8.432  10.445
33680SOL    HW1 2873  13.323   8.492  10.420
33680SOL    HW2 2874  13.180   8.490  10.471
33681SOL     OW 2875   6.977   8.016  12.213
33681SOL    HW1 2876   7.072   8.025  12.219
33681SOL    HW2 2877   6.943   8.098  12.248
33682SOL     OW 2878   7.429  12.641   8.929
33682SOL    HW1 2879   7.377  12.623   9.008
33682SOL    HW2 2880   7.393  12.724   8.896
33683SOL     OW 2881   1.331  13.412   8.979
33683SOL    HW1 2882   1.394  13.482   8.996
33683SOL    HW2 2883   1.277  13.408   9.059
33684SOL     OW 2884   8.144   1.911  13.152
33684SOL    HW1 2885   8.199   1.834  13.166
33684SOL    HW2 2886   8.076   1.904  13.219
33685SOL     OW 2887  11.623   4.381   7.749
33685SOL    HW1 2888  11.581   4.325   7.814
33685SOL    HW2 2889  11.717   4.360   7.757
33686SOL     OW 2890  11.680   4.024   0.217
33686SOL    HW1 2891  11.603   3.969   0.198
33686SOL    HW2 2892  11.647   4.091   0.276
33687SOL     OW 2893   3.030   9.470  11.692
33687SOL    HW1 2894   2.983   9.551  11.709
33687SOL    HW2 2895   3.119   9.486  11.723
33688SOL     OW 2896  13.773   8.318   0.890
33688SOL    HW1 2897  13.739   8.343   0.803
33688SOL    HW2 2898  13.852   8.371   0.901
33689SOL     OW 2899   6.158  13.366  12.478
33689SOL    HW1 2900   6.204  13.443  12.510
33689SOL    HW2 2901   6.137  13.387  12.387
33690SOL     OW 2902  13.632  13.003   3.946
33690SOL    HW1 2903  13.588  12.986   4.029
33690SOL    HW2 2904  13.561  13.007   3.882
33691SOL     OW 2905   4.583   6.371   1.521
33691SOL    HW1 2906   4.540   6.435   1.464
33691SOL    HW2 2907   4.675   6.396   1.521
33692SOL     OW 2908  13.909   3.945  13.886
33692SOL    HW1 2909  13.867   3.945  13.800
33692SOL    HW2 2910  13.956   4.029  13.890
33693SOL     OW 2911  10.011   6.372   8.045
33693SOL    HW1 2912  10.086   6.386   8.102
33693SOL    HW2 2913  10.007   6.277   8.033
33694SOL     OW 2914   9.369   8.112  12.996
33694SOL    HW1 2915   9.451   8.090  12.954
33694SOL    HW2 2916   9.355   8.043  13.060
33695SOL     OW 2917   2.691   2.642  14.461
33695SOL    HW1 2918   2.624   2.666  14.397
33695SOL    HW2 2919   2.732   2.564  14.425
33696SOL     OW 2920  11.581   0.514  10.737
33696SOL    HW1 2921  11.546   0.554  10.817
33696SOL    HW2 2922  11.672   0.494  10.758
33697SOL     OW 2923  13.201   4.701   1.800
33697SOL    HW1 2924  13.292   4.690   1.775
33697SOL    HW2 2925  13.173   4.613   1.828
33698SOL     OW 2926   8.714   9.686  13.069
33698SOL    HW1 2927   8.780   9.637  13.019
33698SOL    HW2 2928   8.640   9.627  13.075
33699SOL     OW 2929  12.844  11.969  12.164
33699SOL    HW1 2930  12.914  11.916  12.202
33699SOL    HW2 2931  12.886  12.054  12.146
33700SOL     OW 2932   2.488   5.153   0.552
33700SOL    HW1 2933   2.566   5.135   0.605
33700SOL    HW2 2934   2.415   5.141   0.612
33701SOL     OW 2935  11.898   9.951  13.182
33701SOL    HW1 2936  11.944  10.024  13.141
33701SOL    HW2 2937  11.942   9.873  13.148
33702SOL     OW 2938   0.550   5.938   9.763
33702SOL    HW1 2939   0.482   5.935   9.696
33702SOL    HW2 2940   0.524   6.011   9.820
33703SOL     OW 2941  12.171  14.462   4.561
33703SOL    HW1 2942  12.172  14.529   4.493
33703SOL    HW2 2943  12.182  14.510   4.643
33704SOL     OW 2944   1.608   7.770   4.722
33704SOL    HW1 2945   1.555   7.706   4.770
33704SOL    HW2 2946   1.545   7.814   4.664
33705SOL     OW 2947  13.463   5.886   5.944
33705SOL    HW1 2948  13.498   5.910   6.030
33705SOL    HW2 2949  13.522   5.818   5.912
33706SOL     OW 2950   3.267   2.799  12.937
33706SOL    HW1 2951   3.194   2.744  12.966
33706SOL    HW2 2952   3.331   2.794  13.008
33707SOL     OW 2953   7.652   7.897  12.354
33707SOL    HW1 2954   7.594   7.837  12.308
33707SOL    HW2 2955   7.698   7.944  12.284
33708SOL     OW 2956   9.714  14.020  11.106
33708SOL    HW1 2957   9.758  13.936  11.119
33708SOL    HW2 2958   9.783  14.085  11.118
33709SOL     OW 2959  10.175   3.894  11.648
33709SOL    HW1 2960  10.175   3.981  11.688
33709SOL    HW2 2961  10.083   3.879  11.625
33710SOL     OW 2962   1.863   7.772   5.399
33710SOL    HW1 2963   1.888   7.703   5.461
33710SOL    HW2 2964   1.802   7.827   5.447
33711SOL     OW 2965   4.977   2.253   6.628
33711SOL    HW1 2966   4.997   2.217   6.542
33711SOL    HW2 2967   4.881   2.264   6.628
33712SOL     OW 2968  11.695  12.424   8.215
33712SOL    HW1 2969  11.679  12.354   8.151
33712SOL    HW2 2970  11.786  12.451   8.198
33713SOL     OW 2971   8.233  14.072  10.396
33713SOL    HW1 2972   8.175  13.999  10.373
33713SOL    HW2 2973   8.186  14.149  10.365
33714SOL     OW 2974   5.582   2.915   3.975
33714SOL    HW1 2975   5.590   2.819   3.972
33714SOL    HW2 2976   5.663   2.946   3.935
33715SOL     OW 2977   6.715   7.624  14.032
33715SOL    HW1 2978   6.793   7.670  14.063
33715SOL    HW2 2979   6.733   7.531  14.050
33716SOL     OW 2980   7.578   5.084   7.713
33716SOL    HW1 2981   7.594   5.134   7.793
33716SOL    HW2 2982   7.578   5.150   7.643
33717SOL     OW 2983   9.258  12.128  13.211
33717SOL    HW1 2984   9.200  12.081  13.271
33717SOL    HW2 2985   9.330  12.158  13.266
33718SOL     OW 2986   8.510   6.567   2.104
33718SOL    HW1 2987   8.575   6.497   2.109
33718SOL    HW2 2988   8.432   6.524   2.069
33719SOL     OW 2989  14.133  11.674   9.898
33719SOL    HW1 2990  14.121  11.615   9.973
33719SOL    HW2 2991  14.172  11.619   9.830
33720SOL     OW 2992  13.126   5.610   5.632
33720SOL    HW1 2993  13.135   5.706   5.635
33720SOL    HW2 2994  13.049   5.595   5.577
33721SOL     OW 2995   8.720  10.354   2.011
33721SOL    HW1 2996   8.682  10.424   1.958
33721SOL    HW2 2997   8.815  10.366   2.002
33722SOL     OW 2998  12.834   2.024   7.418
33722SOL    HW1 2999  12.784   2.086   7.366
33722SOL    HW2 3000  12.911   2.005   7.365
33723SOL     OW 3001   7.242   0.537   4.553
33723SOL    HW1 3002   7.327   0.573   4.527
33723SOL    HW2 3003   7.201   0.510   4.471
33724SOL     OW 3004   3.674  14.343   3.751
33724SOL    HW1 3005   3.765  14.364   3.728
33724SOL    HW2 3006   3.641  14.292   3.677
33725SOL     OW 3007   7.786   3.777   7.033
33725SOL    HW1 3008   7.711   3.767   7.091
33725SOL    HW2 3009   7.819   3.688   7.019
33726SOL     OW 3010  13.738  10.627   3.141
33726SOL    HW1 3011  13.775  10.539   3.135
33726SOL    HW2 3012  13.701  10.632   3.229
33727SOL     OW 3013   6.631   5.052   1.637
33727SOL    HW1 3014   6.551   5.102   1.616
33727SOL    HW2 3015   6.603   4.992   1.706
33728SOL     OW 3016   7.251   5.626   2.687
33728SOL    HW1 3017   7.307   5.642   2.611
33728SOL    HW2 3018   7.234   5.532   2.685
33729SOL     OW 3019   3.157   7.501   5.820
33729SOL    HW1 3020   3.178   7.537   5.733
33729SOL    HW2 3021   3.195   7.564   5.881
33730SOL     OW 3022   8.886   8.035   9.131
33730SOL    HW1 3023   8.863   7.991   9.049
33730SOL    HW2 3024   8.832   8.114   9.131
33731SOL     OW 3025   6.267   5.972   0.693
33731SOL    HW1 3026   6.308   5.919   0.624
33731SOL    HW2 3027   6.340   6.001   0.748
33732SOL     OW 3028   8.103   9.003   0.965
33732SOL    HW1 3029   8.094   8.982   1.058
33732SOL    HW2 3030   8.043   8.943   0.920
33733SOL     OW 3031   2.498   8.674  14.615
33733SOL    HW1 3032   2.417   8.658  14.567
33733SOL    HW2 3033   2.470   8.703  14.702
33734SOL     OW 3034  10.755   9.555   4.537
33734SOL    HW1 3035  10.816   9.547   4.610
33734SOL    HW2 3036  10.810   9.552   4.459
33735SOL     OW 3037   4.413   8.006   6.783
33735SOL    HW1 3038   4.499   7.989   6.819
33735SOL    HW2 3039   4.405   7.946   6.709
33736SOL     OW 3040   2.735  13.043  11.467
33736SOL    HW1 3041   2.673  13.112  11.446
33736SOL    HW2 3042   2.681  12.970  11.499
33737SOL     OW 3043   7.918   1.256   6.478
33737SOL    HW1 3044   7.994   1.282   6.529
33737SOL    HW2 3045   7.885   1.338   6.442
33738SOL     OW 3046  12.840   7.213  14.138
33738SOL    HW1 3047  12.799   7.287  14.094
33738SOL    HW2 3048  12.906   7.181  14.077
33739SOL     OW 3049  11.770   3.940  12.685
33739SOL    HW1 3050  11.737   4.028  12.667
33739SOL    HW2 3051  11.699   3.881  12.659
33740SOL     OW 3052  10.981   6.746   8.140
33740SOL    HW1 3053  11.051   6.685   8.164
33740SOL    HW2 3054  10.911   6.728   8.203
33741SOL     OW 3055   7.927   3.465  13.634
33741SOL    HW1 3056   7.996   3.401  13.651
33741SOL    HW2 3057   7.930   3.478  13.539
33742SOL     OW 3058   5.534  12.360  11.701
33742SOL    HW1 3059   5.592  12.387  11.630
33742SOL    HW2 3060   5.531  12.435  11.761
33743SOL     OW 3061   7.673  13.740   3.307
33743SOL    HW1 3062   7.647  13.671   3.369
33743SOL    HW2 3063   7.607  13.809   3.319
33744SOL     OW 3064  12.017   9.985   1.756
33744SOL    HW1 3065  12.075  10.060   1.767
33744SOL    HW2 3066  11.962   9.985   1.834
33745SOL     OW 3067  10.734  10.917   2.332
33745SOL    HW1 3068  10.653  10.957   2.299
33745SOL    HW2 3069  10.737  10.943   2.424
33746SOL     OW 3070  12.144   0.529  13.673
33746SOL    HW1 3071  12.178   0.576  13.597
33746SOL    HW2 3072  12.220   0.485  13.711
33747SOL     OW 3073   1.243   6.508   9.655
33747SOL    HW1 3074   1.270   6.469   9.739
33747SOL    HW2 3075   1.219   6.433   9.601
33748SOL     OW 3076   0.704   4.647   7.027
33748SOL    HW1 3077   0.631   4.611   6.977
33748SOL    HW2 3078   0.735   4.574   7.080
33749SOL     OW 3079  14.838  10.863  14.455
33749SOL    HW1 3080  14.773  10.915  14.503
33749SOL    HW2 3081  14.802  10.856  14.367
33750SOL     OW 3082   7.516   2.444   2.270
33750SOL    HW1 3083   7.431   2.401   2.282
33750SOL    HW2 3084   7.578   2.389   2.317
33751SOL     OW 3085   6.765  10.922  12.714
33751SOL    HW1 3086   6.744  10.966  12.632
33751SOL    HW2 3087   6.809  10.988  12.767
33752SOL     OW 3088  10.680  11.134   8.677
33752SOL    HW1 3089  10.651  11.181   8.755
33752SOL    HW2 3090  10.600  11.096   8.641
33753SOL     OW 3091   5.075   8.300   2.517
33753SOL    HW1 3092   4.985   8.293   2.550
33753SOL    HW2 3093   5.129   8.287   2.595
33754SOL     OW 3094   9.759   9.543   1.446
33754SOL    HW1 3095   9.819   9.558   1.518
33754SOL    HW2 3096   9.744   9.629   1.408
33755SOL     OW 3097   0.564   4.097   7.800
33755SOL    HW1 3098   0.513   4.133   7.873
33755SOL    HW2 3099   0.643   4.061   7.841
33756SOL     OW 3100   0.347   2.223  10.796
33756SOL    HW1 3101   0.326   2.277  10.720
33756SOL    HW2 3102   0.311   2.271  10.871
33757SOL     OW 3103   1.348   2.013  13.150
33757SOL    HW1 3104   1.275   2.068  13.179
33757SOL    HW2 3105   1.326   1.925  13.182
33758SOL     OW 3106   5.418  10.546   2.230
33758SOL    HW1 3107   5.449  10.570   2.317
33758SOL    HW2 3108   5.491  10.499   2.190
33759SOL     OW 3109  11.526   1.958   8.369
33759SOL    HW1 3110  11.532   1.887   8.433
33759SOL    HW2 3111  11.480   2.028   8.416
33760SOL     OW 3112   5.529  14.807   0.444
33760SOL    HW1 3113   5.544  14.714   0.460
33760SOL    HW2 3114   5.550  14.849   0.528
33761SOL     OW 3115   4.811   8.352  12.836
33761SOL    HW1 3116   4.718   8.328  12.841
33761SOL    HW2 3117   4.844   8.303  12.761
33762SOL     OW 3118  11.116  14.083   9.906
33762SOL    HW1 3119  11.059  14.054   9.834
33762SOL    HW2 3120  11.118  14.178   9.898
33763SOL     OW 3121   4.731   2.048   9.301
33763SOL    HW1 3122   4.812   2.041   9.352
33763SOL    HW2 3123   4.726   2.141   9.276
33764SOL     OW 3124   1.029   6.534  13.949
33764SOL    HW1 3125   0.941   6.567  13.967
33764SOL    HW2 3126   1.085   6.611  13.954
33765SOL     OW 3127   9.744  12.718  11.913
33765SOL    HW1 3128   9.651  12.736  11.925
33765SOL    HW2 3129   9.786  12.762  11.986
33766SOL     OW 3130   8.625   6.938  14.384
33766SOL    HW1 3131   8.585   6.997  14.448
33766SOL    HW2 3132   8.689   6.992  14.338
33767SOL     OW 3133  11.466  13.774   4.177
33767SOL    HW1 3134  11.552  13.807   4.153
33767SOL    HW2 3135  11.454  13.803   4.267
33768SOL     OW 3136   3.755   3.853   3.122
33768SOL    HW1 3137   3.775   3.927   3.180
33768SOL    HW2 3138   3.839   3.826   3.088
33769SOL     OW 3139   8.716   9.485   6.434
33769SOL    HW1 3140   8.625   9.459   6.419
33769SOL    HW2 3141   8.721   9.498   6.529
33770SOL     OW 3142   3.321  13.689   9.371
33770SOL    HW1 3143   3.277  13.651   9.295
33770SOL    HW2 3144   3.305  13.626   9.442
33771SOL     OW 3145  13.181   4.441   3.748
33771SOL    HW1 3146  13.165   4.426   3.841
33771SOL    HW2 3147  13.097   4.473   3.715
33772SOL     OW 3148  14.310   2.157  13.070
33772SOL    HW1 3149  14.376   2.090  13.053
33772SOL    HW2 3150  14.236   2.109  13.105
33773SOL     OW 3151   3.751  14.043   9.588
33773SOL    HW1 3152   3.708  14.006   9.665
33773SOL    HW2 3153   3.826  13.986   9.573
33774SOL     OW 3154   5.524  14.375   5.070
33774SOL    HW1 3155   5.480  14.442   5.016
33774SOL    HW2 3156   5.482  14.383   5.156
33775SOL     OW 3157   5.032   3.666  13.761
33775SOL    HW1 3158   5.068   3.618  13.687
33775SOL    HW2 3159   5.001   3.749  13.723
33776SOL     OW 3160  13.122   3.068   0.621
33776SOL    HW1 3161  13.090   3.094   0.534
33776SOL    HW2 3162  13.170   3.145   0.652
33777SOL     OW 3163   2.952   5.497   0.635
33777SOL    HW1 3164   2.993   5.529   0.555
33777SOL    HW2 3165   2.881   5.440   0.604
33778SOL     OW 3166  12.319  14.178   6.148
33778SOL    HW1 3167  12.338  14.119   6.074
33778SOL    HW2 3168  12.348  14.129   6.225
33779SOL     OW 3169   6.728   1.100   8.573
33779SOL    HW1 3170   6.651   1.156   8.568
33779SOL    HW2 3171   6.799   1.153   8.538
33780SOL     OW 3172  12.261  14.254  12.436
33780SOL    HW1 3173  12.287  14.210  12.355
33780SOL    HW2 3174  12.323  14.223  12.502
33781SOL     OW 3175  14.468   7.530  13.925
33781SOL    HW1 3176  14.549   7.574  13.949
33781SOL    HW2 3177  14.490   7.437  13.926
33782SOL     OW 3178  11.215   5.925   9.877
33782SOL    HW1 3179  11.265   5.874   9.942
33782SOL    HW2 3180  11.272   5.999   9.856
33783SOL     OW 3181  10.374   6.000   5.265
33783SOL    HW1 3182  10.451   6.017   5.319
33783SOL    HW2 3183  10.343   5.914   5.294
33784SOL     OW 3184   9.039   9.355  13.446
33784SOL    HW1 3185   9.120   9.384  13.404
33784SOL    HW2 3186   9.067   9.308  13.524
33785SOL     OW 3187   8.855   6.750  14.166
33785SOL    HW1 3188   8.860   6.696  14.086
33785SOL    HW2 3189   8.929   6.810  14.160
33786SOL     OW 3190   1.298   1.179   3.173
33786SOL    HW1 3191   1.292   1.162   3.266
33786SOL    HW2 3192   1.378   1.134   3.145
33787SOL     OW 3193  14.703  13.564   8.923
33787SOL    HW1 3194  14.732  13.560   9.014
33787SOL    HW2 3195  14.694  13.472   8.896
33788SOL     OW 3196   2.777  12.639   0.228
33788SOL    HW1 3197   2.736  12.562   0.267
33788SOL    HW2 3198   2.749  12.638   0.137
33789SOL     OW 3199   4.369   3.926  10.253
33789SOL    HW1 3200   4.432   3.995  10.275
33789SOL    HW2 3201   4.395   3.898  10.165
33790SOL     OW 3202   4.725   6.750  12.324
33790SOL    HW1 3203   4.785   6.809  12.278
33790SOL    HW2 3204   4.774   6.669  12.335
33791SOL     OW 3205  12.769   9.897  11.009
33791SOL    HW1 3206  12.810   9.811  11.020
33791SOL    HW2 3207  12.706   9.904  11.080
33792SOL     OW 3208   9.242   4.378  12.235
33792SOL    HW1 3209   9.323   4.421  12.264
33792SOL    HW2 3210   9.179   4.398  12.304
33793SOL     OW 3211  14.063  13.401   2.152
33793SOL    HW1 3212  14.007  13.444   2.217
33793SOL    HW2 3213  14.009  13.398   2.073
33794SOL     OW 3214   8.373   2.549  10.219
33794SOL    HW1 3215   8.466   2.573  10.221
33794SOL    HW2 3216   8.359   2.500  10.300
33795SOL     OW 3217   6.642   6.902   6.325
33795SOL    HW1 3218   6.561   6.909   6.375
33795SOL    HW2 3219   6.676   6.992   6.322
33796SOL     OW 3220   1.399  10.584   9.506
33796SOL    HW1 3221   1.409  10.645   9.433
33796SOL    HW2 3222   1.398  10.641   9.584
33797SOL     OW 3223  13.275   4.219   0.980
33797SOL    HW1 3224  13.327   4.300   0.973
33797SOL    HW2 3225  13.261   4.209   1.074
33798SOL     OW 3226   1.777   7.467   0.242
33798SOL    HW1 3227   1.699   7.432   0.286
33798SOL    HW2 3228   1.747   7.548   0.202
33799SOL     OW 3229   1.155   7.179   6.317
33799SOL    HW1 3230   1.222   7.178   6.250
33799SOL    HW2 3231   1.153   7.270   6.347
33800SOL     OW 3232   9.389  12.113  12.920
33800SOL    HW1 3233   9.357  12.124  13.010
33800SOL    HW2 3234   9.392  12.202  12.885
33801SOL     OW 3235  12.639   8.566  12.596
33801SOL    HW1 3236  12.694   8.533  12.667
33801SOL    HW2 3237  12.588   8.490  12.569
33802SOL     OW 3238  12.574   8.351  10.481
33802SOL    HW1 3239  12.482   8.376  10.476
33802SOL    HW2 3240  12.599   8.366  10.572
33803SOL     OW 3241   2.476   5.958   7.962
33803SOL    HW1 3242   2.551   5.957   7.903
33803SOL    HW2 3243   2.503   5.905   8.036
33804SOL     OW 3244   4.748  13.563  13.215
33804SOL    HW1 3245   4.712  13.614  13.287
33804SOL    HW2 3246   4.833  13.604  13.198
33805SOL     OW 3247  10.397  11.591  10.197
33805SOL    HW1 3248  10.394  11.652  10.124
33805SOL    HW2 3249  10.454  11.520  10.167
33806SOL     OW 3250   3.770   9.215   0.444
33806SOL    HW1 3251   3.762   9.211   0.349
33806SOL    HW2 3252   3.863   9.229   0.460
33807SOL     OW 3253   8.522   3.304   5.339
33807SOL    HW1 3254   8.582   3.363   5.386
33807SOL    HW2 3255   8.488   3.357   5.267
33808SOL     OW 3256  13.268   1.215   4.378
33808SOL    HW1 3257  13.231   1.294   4.337
33808SOL    HW2 3258  13.321   1.248   4.451
33809SOL     OW 3259  11.337  12.537  13.452
33809SOL    HW1 3260  11.254  12.511  13.493
33809SOL    HW2 3261  11.340  12.632  13.463
33810SOL     OW 3262  11.136  12.668  14.485
33810SOL    HW1 3263  11.071  12.698  14.549
33810SOL    HW2 3264  11.115  12.718  14.405
33811SOL     OW 3265   4.463   0.868  11.674
33811SOL    HW1 3266   4.543   0.920  11.673
33811SOL    HW2 3267   4.398   0.924  11.632
33812SOL     OW 3268   2.315  13.055   1.418
33812SOL    HW1 3269   2.262  12.984   1.381
33812SOL    HW2 3270   2.393  13.058   1.363
33813SOL     OW 3271   1.999   7.772  11.159
33813SOL    HW1 3272   2.077   7.826  11.146
33813SOL    HW2 3273   1.970   7.794  11.248
33814SOL     OW 3274  14.786   2.644   2.462
33814SOL    HW1 3275  14.823   2.667   2.547
33814SOL    HW2 3276  14.863   2.623   2.408
33815SOL     OW 3277  11.532   0.715  11.244
33815SOL    HW1 3278  11.554   0.738  11.334
33815SOL    HW2 3279  11.523   0.799  11.199
33816SOL     OW 3280   1.864   3.748   2.141
33816SOL    HW1 3281   1.801   3.706   2.083
33816SOL    HW2 3282   1.936   3.773   2.084
33817SOL     OW 3283   6.391   9.679   0.716
33817SOL    HW1 3284   6.465   9.729   0.751
33817SOL    HW2 3285   6.345   9.739   0.659
33818SOL     OW 3286   0.664   8.263   5.044
33818SOL    HW1 3287   0.628   8.277   4.956
33818SOL    HW2 3288   0.758   8.272   5.032
33819SOL     OW 3289  11.001   5.443   6.615
33819SOL    HW1 3290  10.953   5.520   6.583
33819SOL    HW2 3291  10.932   5.382   6.642
33820SOL     OW 3292   2.315   1.415   7.023
33820SOL    HW1 3293   2.266   1.447   7.099
33820SOL    HW2 3294   2.250   1.409   6.954
33821SOL     OW 3295   1.376   8.494   2.033
33821SOL    HW1 3296   1.372   8.428   2.102
33821SOL    HW2 3297   1.430   8.454   1.964
33822SOL     OW 3298   8.533  11.048   4.101
33822SOL    HW1 3299   8.528  11.076   4.010
33822SOL    HW2 3300   8.599  10.979   4.102
33823SOL     OW 3301   5.585   8.361  12.227
33823SOL    HW1 3302   5.574   8.279  12.179
33823SOL    HW2 3303   5.528   8.351  12.304
33824SOL     OW 3304   6.684  13.128  11.534
33824SOL    HW1 3305   6.744  13.059  11.563
33824SOL    HW2 3306   6.672  13.183  11.611
33825SOL     OW 3307   0.145   7.409   6.121
33825SOL    HW1 3308   0.113   7.376   6.206
33825SOL    HW2 3309   0.092   7.362   6.056
33826SOL     OW 3310  12.999   7.990  13.577
33826SOL    HW1 3311  12.945   7.983  13.499
33826SOL    HW2 3312  13.049   7.909  13.580
33827SOL     OW 3313   8.657   9.189  10.600
33827SOL    HW1 3314   8.579   9.243  10.616
33827SOL    HW2 3315   8.687   9.162  10.687
33828SOL     OW 3316  14.753   1.506  13.355
33828SOL    HW1 3317  14.822   1.444  13.331
33828SOL    HW2 3318  14.775   1.533  13.445
33829SOL     OW 3319  14.091   9.075  10.133
33829SOL    HW1 3320  14.097   9.071  10.037
33829SOL    HW2 3321  14.155   9.141  10.159
33830SOL     OW 3322   9.472   2.969   1.851
33830SOL    HW1 3323   9.509   2.993   1.766
33830SOL    HW2 3324   9.541   2.990   1.914
33831SOL     OW 3325   6.988   5.689   3.645
33831SOL    HW1 3326   6.982   5.681   3.550
33831SOL    HW2 3327   6.924   5.627   3.679
33832SOL     OW 3328   2.165  10.805   9.392
33832SOL    HW1 3329   2.223  10.737   9.358
33832SOL    HW2 3330   2.224  10.873   9.424
33833SOL     OW 3331   3.624   7.650   9.381
33833SOL    HW1 3332   3.583   7.707   9.446
33833SOL    HW2 3333   3.685   7.707   9.334
33834SOL     OW 3334   2.335   7.955   7.315
33834SOL    HW1 3335   2.380   7.965   7.231
33834SOL    HW2 3336   2.302   7.865   7.315
33835SOL     OW 3337   4.222   2.387   4.917
33835SOL    HW1 3338   4.207   2.366   5.009
33835SOL    HW2 3339   4.177   2.318   4.868
33836SOL     OW 3340  11.700   5.816  14.560
33836SOL    HW1 3341  11.631   5.860  14.610
33836SOL    HW2 3342  11.689   5.847  14.471
33837SOL     OW 3343  11.795   4.142   9.806
33837SOL    HW1 3344  11.755   4.211   9.859
33837SOL    HW2 3345  11.742   4.139   9.726
33838SOL     OW 3346   4.990  11.803  10.255
33838SOL    HW1 3347   4.968  11.792  10.348
33838SOL    HW2 3348   5.073  11.758  10.244
33839SOL     OW 3349  14.590   5.018   7.947
33839SOL    HW1 3350  14.611   5.081   8.016
33839SOL    HW2 3351  14.599   5.068   7.866
33840SOL     OW 3352  10.999   2.947   1.044
33840SOL    HW1 3353  10.966   2.907   0.963
33840SOL    HW2 3354  11.071   2.890   1.071
33841SOL     OW 3355  10.893   4.005  11.168
33841SOL    HW1 3356  10.907   3.943  11.096
33841SOL    HW2 3357  10.806   4.042  11.150
33842SOL     OW 3358   0.165   4.469   8.432
33842SOL    HW1 3359   0.088   4.479   8.376
33842SOL    HW2 3360   0.230   4.528   8.394
33843SOL     OW 3361  13.461   8.859   3.682
33843SOL    HW1 3362  13.486   8.806   3.758
33843SOL    HW2 3363  13.366   8.861   3.685
33844SOL     OW 3364   2.112   2.993   5.058
33844SOL    HW1 3365   2.084   2.903   5.069
33844SOL    HW2 3366   2.132   3.001   4.965
33845SOL     OW 3367   4.369   8.506   3.870
33845SOL    HW1 3368   4.430   8.439   3.837
33845SOL    HW2 3369   4.296   8.455   3.905
33846SOL     OW 3370   0.560  10.897   1.397
33846SOL    HW1 3371   0.579  10.895   1.491
33846SOL    HW2 3372   0.639  10.863   1.356
33847SOL     OW 3373  10.424   4.537   8.925
33847SOL    HW1 3374  10.418   4.480   8.848
33847SOL    HW2 3375  10.467   4.616   8.893
33848SOL     OW 3376   4.840  14.351   8.138
33848SOL    HW1 3377   4.913  14.301   8.174
33848SOL    HW2 3378   4.787  14.375   8.215
33849SOL     OW 3379   2.904  12.694   4.552
33849SOL    HW1 3380   2.854  12.750   4.612
33849SOL    HW2 3381   2.848  12.684   4.475
33850SOL     OW 3382   4.396  11.355   9.542
33850SOL    HW1 3383   4.311  11.325   9.575
33850SOL    HW2 3384   4.430  11.410   9.613
33851SOL     OW 3385   5.251   6.990   8.779
33851SOL    HW1 3386   5.337   7.016   8.812
33851SOL    HW2 3387   5.193   7.062   8.802
33852SOL     OW 3388   6.425   9.315   7.297
33852SOL    HW1 3389   6.415   9.403   7.333
33852SOL    HW2 3390   6.404   9.257   7.370
33853SOL     OW 3391   4.597  11.354   2.907
33853SOL    HW1 3392   4.524  11.315   2.955
33853SOL    HW2 3393   4.598  11.307   2.823
33854SOL     OW 3394   5.878  10.168   1.861
33854SOL    HW1 3395   5.841  10.158   1.949
33854SOL    HW2 3396   5.968  10.198   1.877
33855SOL     OW 3397   7.064   1.616   5.246
33855SOL    HW1 3398   7.098   1.661   5.168
33855SOL    HW2 3399   6.996   1.558   5.212
33856SOL     OW 3400   0.169  11.389   3.063
33856SOL    HW1 3401   0.093  11.401   3.120
33856SOL    HW2 3402   0.143  11.319   3.003
33857SOL     OW 3403   1.281  12.925   8.798
33857SOL    HW1 3404   1.288  12.988   8.869
33857SOL    HW2 3405   1.278  12.979   8.719
33858SOL     OW 3406   1.468   7.638   9.971
33858SOL    HW1 3407   1.550   7.590   9.974
33858SOL    HW2 3408   1.492   7.729   9.985
33859SOL     OW 3409   3.596   9.418   6.757
33859SOL    HW1 3410   3.563   9.330   6.735
33859SOL    HW2 3411   3.538   9.448   6.827
33860SOL     OW 3412   8.953  14.104   1.559
33860SOL    HW1 3413   8.939  14.199   1.561
33860SOL    HW2 3414   8.881  14.071   1.504
33861SOL     OW 3415   9.250   6.694   9.409
33861SOL    HW1 3416   9.158   6.672   9.393
33861SOL    HW2 3417   9.247   6.761   9.477
33862SOL     OW 3418   2.820   7.580  14.037
33862SOL    HW1 3419   2.789   7.604  14.125
33862SOL    HW2 3420   2.890   7.643  14.018
33863SOL     OW 3421   2.628  10.497   6.614
33863SOL    HW1 3422   2.655  10.588   6.601
33863SOL    HW2 3423   2.589  10.471   6.531
33864SOL     OW 3424   8.947   6.905   3.238
33864SOL    HW1 3425   8.889   6.846   3.285
33864SOL    HW2 3426   9.021   6.850   3.211
33865SOL     OW 3427  13.724   8.077   9.579
33865SOL    HW1 3428  13.733   8.165   9.541
33865SOL    HW2 3429  13.790   8.025   9.533
33866SOL     OW 3430   7.251   2.830   6.671
33866SOL    HW1 3431   7.341   2.814   6.645
33866SOL    HW2 3432   7.227   2.754   6.725
33867SOL     OW 3433   6.349   1.915  12.562
33867SOL    HW1 3434   6.402   1.921  12.482
33867SOL    HW2 3435   6.275   1.973  12.546
33868SOL     OW 3436  14.828   1.376   4.001
33868SOL    HW1 3437  14.866   1.464   3.991
33868SOL    HW2 3438  14.737   1.392   4.025
33869SOL     OW 3439   3.973   6.639   3.870
33869SOL    HW1 3440   3.918   6.625   3.947
33869SOL    HW2 3441   3.910   6.654   3.799
33870SOL     OW 3442   2.295  13.578   8.890
33870SOL    HW1 3443   2.333  13.497   8.857
33870SOL    HW2 3444   2.255  13.555   8.974
33871SOL     OW 3445   9.440  14.142  11.037
33871SOL    HW1 3446   9.533  14.123  11.052
33871SOL    HW2 3447   9.400  14.057  11.020
33872SOL     OW 3448   0.996   8.696   8.577
33872SOL    HW1 3449   0.999   8.726   8.486
33872SOL    HW2 3450   1.038   8.766   8.627
33873SOL     OW 3451  13.283   6.606  11.708
33873SOL    HW1 3452  13.258   6.678  11.765
33873SOL    HW2 3453  13.378   6.598  11.719
33874SOL     OW 3454   2.436   6.174   5.436
33874SOL    HW1 3455   2.450   6.080   5.422
33874SOL    HW2 3456   2.387   6.203   5.359
33875SOL     OW 3457  11.189   8.397  12.080
33875SOL    HW1 3458  11.260   8.391  12.016
33875SOL    HW2 3459  11.138   8.473  12.051
33876SOL     OW 3460   5.269   6.500  11.140
33876SOL    HW1 3461   5.333   6.431  11.159
33876SOL    HW2 3462   5.261   6.500  11.045
33877SOL     OW 3463   0.834   4.499   6.245
33877SOL    HW1 3464   0.748   4.534   6.218
33877SOL    HW2 3465   0.879   4.479   6.163
33878SOL     OW 3466   6.249   7.608  10.271
33878SOL    HW1 3467   6.239   7.523  10.314
33878SOL    HW2 3468   6.202   7.669  10.327
33879SOL     OW 3469   9.345   2.335   7.718
33879SOL    HW1 3470   9.260   2.295   7.735
33879SOL    HW2 3471   9.331   2.429   7.733
33880SOL     OW 3472   2.659  13.918  12.363
33880SOL    HW1 3473   2.718  13.912  12.438
33880SOL    HW2 3474   2.582  13.867  12.388
33881SOL     OW 3475   3.468  12.091   1.818
33881SOL    HW1 3476   3.399  12.110   1.881
33881SOL    HW2 3477   3.549  12.119   1.861
33882SOL     OW 3478  10.976  13.629  10.611
33882SOL    HW1 3479  10.983  13.551  10.666
33882SOL    HW2 3480  10.888  13.663  10.629
33883SOL     OW 3481   8.490   7.860  13.516
33883SOL    HW1 3482   8.436   7.915  13.572
33883SOL    HW2 3483   8.488   7.903  13.431
33884SOL     OW 3484   3.560   0.280   5.789
33884SOL    HW1 3485   3.535   0.201   5.836
33884SOL    HW2 3486   3.654   0.270   5.772
33885SOL     OW 3487  13.374  13.372  13.803
33885SOL    HW1 3488  13.336  13.301  13.751
33885SOL    HW2 3489  13.350  13.452  13.756
33886SOL     OW 3490   1.045   4.443  11.468
33886SOL    HW1 3491   0.950   4.439  11.458
33886SOL    HW2 3492   1.077   4.363  11.425
33887SOL     OW 3493   6.925  13.510  12.264
33887SOL    HW1 3494   6.885  13.579  12.318
33887SOL    HW2 3495   6.850  13.463  12.226
33888SOL     OW 3496   8.902   8.659   9.653
33888SOL    HW1 3497   8.895   8.605   9.732
33888SOL    HW2 3498   8.815   8.697   9.642
33889SOL     OW 3499   2.009  10.711  13.742
33889SOL    HW1 3500   1.986  10.621  13.766
33889SOL    HW2 3501   1.928  10.747  13.706
33890SOL     OW 3502   3.872   3.338   2.967
33890SOL    HW1 3503   3.833   3.403   2.908
33890SOL    HW2 3504   3.963   3.366   2.978
33891SOL     OW 3505  14.833   6.331   3.514
33891SOL    HW1 3506  14.746   6.293   3.497
33891SOL    HW2 3507  14.829   6.359   3.606
33892SOL     OW 3508   1.935   8.214   8.366
33892SOL    HW1 3509   1.871   8.194   8.298
33892SOL    HW2 3510   1.936   8.309   8.372
33893SOL     OW 3511   5.706   9.545   6.227
33893SOL    HW1 3512   5.673   9.635   6.216
33893SOL    HW2 3513   5.727   9.517   6.138
33894SOL     OW 3514   0.230  13.073  11.408
33894SOL    HW1 3515   0.183  13.001  11.451
33894SOL    HW2 3516   0.322  13.057  11.429
33895SOL     OW 3517   5.549   6.526   3.286
33895SOL    HW1 3518   5.599   6.445   3.291
33895SOL    HW2 3519   5.458   6.498   3.271
33896SOL     OW 3520  10.750   2.707   4.806
33896SOL    HW1 3521  10.708   2.666   4.882
33896SOL    HW2 3522  10.843   2.695   4.821
33897SOL     OW 3523  11.958   8.010  11.509
33897SOL    HW1 3524  11.980   8.073  11.577
33897SOL    HW2 3525  11.883   7.962  11.544
33898SOL     OW 3526  14.437   9.182   4.103
33898SOL    HW1 3527  14.350   9.195   4.065
33898SOL    HW2 3528  14.465   9.270   4.129
33899SOL     OW 3529   3.394   8.662   6.879
33899SOL    HW1 3530   3.346   8.744   6.893
33899SOL    HW2 3531   3.483   8.681   6.907
33900SOL     OW 3532   8.527   4.012   1.401
33900SOL    HW1 3533   8.577   3.975   1.473
33900SOL    HW2 3534   8.472   3.940   1.369
33901SOL     OW 3535  11.199   5.751   4.821
33901SOL    HW1 3536  11.187   5.751   4.727
33901SOL    HW2 3537  11.180   5.840   4.848
33902SOL     OW 3538  11.089   5.169   8.274
33902SOL    HW1 3539  11.099   5.247   8.328
33902SOL    HW2 3540  11.005   5.180   8.230
33903SOL     OW 3541   4.770   2.601   4.519
33903SOL    HW1 3542   4.861   2.602   4.547
33903SOL    HW2 3543   4.727   2.666   4.573
33904SOL     OW 3544   0.402   2.264   6.087
33904SOL    HW1 3545   0.389   2.205   6.162
33904SOL    HW2 3546   0.355   2.223   6.015
33905SOL     OW 3547   8.737   2.103   3.248
33905SOL    HW1 3548   8.709   2.023   3.202
33905SOL    HW2 3549   8.737   2.078   3.340
33906SOL     OW 3550   3.474   8.029   3.026
33906SOL    HW1 3551   3.399   7.970   3.019
33906SOL    HW2 3552   3.437   8.111   3.058
33907SOL     OW 3553  14.257   3.449   3.540
33907SOL    HW1 3554  14.282   3.374   3.594
33907SOL    HW2 3555  14.337   3.503   3.535
33908SOL     OW 3556  11.238  13.026  13.765
33908SOL    HW1 3557  11.275  13.015  13.853
33908SOL    HW2 3558  11.189  12.945  13.750
33909SOL     OW 3559   0.803   5.299   8.312
33909SOL    HW1 3560   0.828   5.346   8.392
33909SOL    HW2 3561   0.764   5.217   8.344
33910SOL     OW 3562   8.501  12.273   2.010
33910SOL    HW1 3563   8.512  12.181   1.987
33910SOL    HW2 3564   8.406  12.287   2.011
33911SOL     OW 3565   9.665  14.618   7.227
33911SOL    HW1 3566   9.717  14.560   7.282
33911SOL    HW2 3567   9.724  14.691   7.207
33912SOL     OW 3568   4.605  14.764  14.081
33912SOL    HW1 3569   4.563  14.837  14.036
33912SOL    HW2 3570   4.559  14.686  14.050
33913SOL     OW 3571   9.205   8.752  10.871
33913SOL    HW1 3572   9.220   8.841  10.839
33913SOL    HW2 3573   9.203   8.760  10.966
33914SOL     OW 3574  14.480   8.603  12.774
33914SOL    HW1 3575  14.488   8.613  12.679
33914SOL    HW2 3576  14.401   8.549  12.786
33915SOL     OW 3577   3.050   6.245   8.474
33915SOL    HW1 3578   3.056   6.172   8.536
33915SOL    HW2 3579   3.053   6.324   8.529
33916SOL     OW 3580   2.376   6.434  10.099
33916SOL    HW1 3581   2.324   6.393  10.031
33916SOL    HW2 3582   2.312   6.464  10.163
33917SOL     OW 3583  13.011  14.427   1.004
33917SOL    HW1 3584  13.043  14.512   1.033
33917SOL    HW2 3585  12.970  14.388   1.081
33918SOL     OW 3586  11.595  14.604   6.292
33918SOL    HW1 3587  11.664  14.551   6.253
33918SOL    HW2 3588  11.621  14.616   6.383
33919SOL     OW 3589  11.170   6.147   6.894
33919SOL    HW1 3590  11.258   6.115   6.917
33919SOL    HW2 3591  11.142   6.195   6.972
33920SOL     OW 3592   4.188  12.095   7.994
33920SOL    HW1 3593   4.105  12.077   7.949
33920SOL    HW2 3594   4.169  12.083   8.087
33921SOL     OW 3595   5.586   8.559  11.792
33921SOL    HW1 3596   5.509   8.532  11.743
33921SOL    HW2 3597   5.631   8.620  11.735
33922SOL     OW 3598   0.897   8.099  13.961
33922SOL    HW1 3599   0.838   8.027  13.986
33922SOL    HW2 3600   0.852   8.142  13.889
33923SOL     OW 3601   5.493  13.838  11.335
33923SOL    HW1 3602   5.543  13.852  11.415
33923SOL    HW2 3603   5.512  13.914  11.281
33924SOL     OW 3604  13.619   3.474   6.103
33924SOL    HW1 3605  13.708   3.485   6.137
33924SOL    HW2 3606  13.593   3.386   6.132
33925SOL     OW 3607   4.677  13.447   5.742
33925SOL    HW1 3608   4.706  13.417   5.829
33925SOL    HW2 3609   4.581  13.446   5.748
33926SOL     OW 3610   3.729   5.373   7.602
33926SOL    HW1 3611   3.711   5.371   7.508
33926SOL    HW2 3612   3.768   5.459   7.616
33927SOL     OW 3613  14.095   6.908   1.487
33927SOL    HW1 3614  14.126   6.913   1.397
33927SOL    HW2 3615  14.108   6.816   1.512
33928SOL     OW 3616  12.796  14.061   7.520
33928SOL    HW1 3617  12.741  14.016   7.584
33928SOL    HW2 3618  12.757  14.039   7.435
33929SOL     OW 3619   8.046   1.412  13.569
33929SOL    HW1 3620   8.133   1.405  13.530
33929SOL    HW2 3621   8.059   1.394  13.662
33930SOL     OW 3622  10.475   7.471  10.138
33930SOL    HW1 3623  10.399   7.528  10.147
33930SOL    HW2 3624  10.453   7.392  10.188
33931SOL     OW 3625   4.950   1.846   3.527
33931SOL    HW1 3626   4.904   1.766   3.555
33931SOL    HW2 3627   4.977   1.888   3.608
33932SOL     OW 3628   7.830   4.166  14.478
33932SOL    HW1 3629   7.862   4.178  14.389
33932SOL    HW2 3630   7.868   4.238  14.528
33933SOL     OW 3631   5.339   8.561   3.912
33933SOL    HW1 3632   5.398   8.608   3.853
33933SOL    HW2 3633   5.317   8.625   3.980
33934SOL     OW 3634   7.930   1.827   6.901
33934SOL    HW1 3635   7.980   1.781   6.833
33934SOL    HW2 3636   7.975   1.806   6.983
33935SOL     OW 3637   0.670   3.622   3.377
33935SOL    HW1 3638   0.709   3.560   3.439
33935SOL    HW2 3639   0.615   3.569   3.320
33936SOL     OW 3640  12.007   4.711   1.244
33936SOL    HW1 3641  11.994   4.772   1.171
33936SOL    HW2 3642  11.995   4.624   1.205
33937SOL     OW 3643   8.855   1.879  14.530
33937SOL    HW1 3644   8.871   1.793  14.569
33937SOL    HW2 3645   8.827   1.933  14.603
33938SOL     OW 3646   6.583  10.988   0.161
33938SOL    HW1 3647   6.629  11.005   0.243
33938SOL    HW2 3648   6.647  11.012   0.093
33939SOL     OW 3649   1.561   2.057   7.639
33939SOL    HW1 3650   1.485   2.115   7.629
33939SOL    HW2 3651   1.596   2.077   7.725
33940SOL     OW 3652   7.792  14.381   2.968
33940SOL    HW1 3653   7.733  14.400   3.040
33940SOL    HW2 3654   7.849  14.312   3.001
33941SOL     OW 3655   6.234   8.593  12.928
33941SOL    HW1 3656   6.206   8.665  12.872
33941SOL    HW2 3657   6.262   8.524  12.867
33942SOL     OW 3658   1.209  14.237   9.041
33942SOL    HW1 3659   1.234  14.239   8.949
33942SOL    HW2 3660   1.290  14.259   9.088
33943SOL     OW 3661   6.759  10.709   9.750
33943SOL    HW1 3662   6.794  10.798   9.757
33943SOL    HW2 3663   6.749  10.680   9.841
33944SOL     OW 3664  10.682  13.351   8.385
33944SOL    HW1 3665  10.698  13.369   8.477
33944SOL    HW2 3666  10.587  13.354   8.376
33945SOL     OW 3667   4.680   1.507  12.108
33945SOL    HW1 3668   4.626   1.446  12.160
33945SOL    HW2 3669   4.741   1.544  12.171
33946SOL     OW 3670  11.194   8.245   3.290
33946SOL    HW1 3671  11.101   8.267   3.294
33946SOL    HW2 3672  11.237   8.319   3.333
33947SOL     OW 3673   2.740   5.138   2.134
33947SOL    HW1 3674   2.798   5.066   2.107
33947SOL    HW2 3675   2.799   5.210   2.155
33948SOL     OW 3676  10.360  10.831  14.079
33948SOL    HW1 3677  10.427  10.896  14.101
33948SOL    HW2 3678  10.286  10.854  14.135
33949SOL     OW 3679   6.660   1.722   1.018
33949SOL    HW1 3680   6.731   1.750   1.076
33949SOL    HW2 3681   6.698   1.651   0.966
33950SOL     OW 3682   9.893   9.060   2.741
33950SOL    HW1 3683   9.966   9.065   2.679
33950SOL    HW2 3684   9.855   9.148   2.740
33951SOL     OW 3685   3.881  13.264  12.892
33951SOL    HW1 3686   3.966  13.303  12.871
33951SOL    HW2 3687   3.891  13.230  12.981
33952SOL     OW 3688   9.721   6.205   2.609
33952SOL    HW1 3689   9.745   6.139   2.673
33952SOL    HW2 3690   9.802   6.222   2.560
33953SOL     OW 3691   3.995  11.684   6.672
33953SOL    HW1 3692   3.908  11.713   6.646
33953SOL    HW2 3693   3.993  11.589   6.661
33954SOL     OW 3694   4.666   5.456   7.827
33954SOL    HW1 3695   4.604   5.390   7.794
33954SOL    HW2 3696   4.611   5.532   7.846
33955SOL     OW 3697   2.140  10.807   0.775
33955SOL    HW1 3698   2.232  10.790   0.755
33955SOL    HW2 3699   2.092  10.766   0.703
33956SOL     OW 3700  13.656   2.413   5.264
33956SOL    HW1 3701  13.590   2.441   5.327
33956SOL    HW2 3702  13.730   2.473   5.279
33957SOL     OW 3703   3.777   1.455   2.747
33957SOL    HW1 3704   3.838   1.518   2.708
33957SOL    HW2 3705   3.806   1.370   2.713
33958SOL     OW 3706   1.869  14.213  14.810
33958SOL    HW1 3707   1.809  14.140  14.794
33958SOL    HW2 3708   1.817  14.291  14.790
33959SOL     OW 3709   6.250   9.328   4.583
33959SOL    HW1 3710   6.231   9.357   4.494
33959SOL    HW2 3711   6.227   9.402   4.639
33960SOL     OW 3712   9.101  14.331   2.001
33960SOL    HW1 3713   9.182  14.351   2.046
33960SOL    HW2 3714   9.063  14.416   1.980
33961SOL     OW 3715   1.382   5.508  13.356
33961SOL    HW1 3716   1.332   5.427  13.346
33961SOL    HW2 3717   1.339   5.571  13.298
33962SOL     OW 3718  11.456  10.277  12.648
33962SOL    HW1 3719  11.454  10.326  12.730
33962SOL    HW2 3720  11.535  10.307  12.603
33963SOL     OW 3721   5.380  11.862   6.950
33963SOL    HW1 3722   5.407  11.947   6.984
33963SOL    HW2 3723   5.458  11.807   6.957
33964SOL     OW 3724   5.627   7.012   6.891
33964SOL    HW1 3725   5.547   6.965   6.911
33964SOL    HW2 3726   5.599   7.101   6.873
33965SOL     OW 3727   1.541   8.965  10.666
33965SOL    HW1 3728   1.634   8.977  10.647
33965SOL    HW2 3729   1.506   9.054  10.672
33966SOL     OW 3730  13.091  13.522   4.713
33966SOL    HW1 3731  13.048  13.518   4.627
33966SOL    HW2 3732  13.091  13.615   4.735
33967SOL     OW 3733   7.197   7.121  12.716
33967SOL    HW1 3734   7.158   7.057  12.656
33967SOL    HW2 3735   7.253   7.175  12.661
33968SOL     OW 3736  12.870   6.122   4.132
33968SOL    HW1 3737  12.777   6.143   4.131
33968SOL    HW2 3738  12.913   6.206   4.118
33969SOL     OW 3739   9.959  14.007  10.206
33969SOL    HW1 3740   9.958  14.102  10.195
33969SOL    HW2 3741   9.911  13.992  10.288
33970SOL     OW 3742   5.035   8.701   4.077
33970SOL    HW1 3743   5.117   8.675   4.035
33970SOL    HW2 3744   4.969   8.693   4.007
33971SOL     OW 3745   9.229   6.614  14.756
33971SOL    HW1 3746   9.207   6.595  14.847
33971SOL    HW2 3747   9.236   6.528  14.714
33972SOL     OW 3748  13.289   9.556   1.090
33972SOL    HW1 3749  13.371   9.509   1.075
33972SOL    HW2 3750  13.261   9.528   1.177
33973SOL     OW 3751  12.363  13.897   1.319
33973SOL    HW1 3752  12.440  13.951   1.335
33973SOL    HW2 3753  12.395  13.826   1.262
33974SOL     OW 3754   7.841   0.216   4.918
33974SOL    HW1 3755   7.900   0.142   4.929
33974SOL    HW2 3756   7.848   0.238   4.825
33975SOL     OW 3757  11.737   5.785   8.248
33975SOL    HW1 3758  11.682   5.722   8.202
33975SOL    HW2 3759  11.823   5.743   8.252
33976SOL     OW 3760   0.810   8.151   4.675
33976SOL    HW1 3761   0.876   8.084   4.659
33976SOL    HW2 3762   0.853   8.233   4.649
33977SOL     OW 3763   0.039  14.814   2.305
33977SOL    HW1 3764  14.874  14.804   2.221
33977SOL    HW2 3765   0.000   0.014   2.343
33978SOL     OW 3766  14.445  10.820  10.189
33978SOL    HW1 3767  14.383  10.874  10.239
33978SOL    HW2 3768  14.410  10.731  10.195
33979SOL     OW 3769  12.697   8.753   9.726
33979SOL    HW1 3770  12.737   8.666   9.726
33979SOL    HW2 3771  12.654   8.760   9.811
33980SOL     OW 3772   4.292  12.663   5.715
33980SOL    HW1 3773   4.265  12.660   5.807
33980SOL    HW2 3774   4.225  12.613   5.669
33981SOL     OW 3775  11.115   0.984   8.138
33981SOL    HW1 3776  11.200   1.023   8.115
33981SOL    HW2 3777  11.052   1.056   8.128
33982SOL     OW 3778   4.613   4.487   3.343
33982SOL    HW1 3779   4.535   4.500   3.288
33982SOL    HW2 3780   4.629   4.573   3.383
33983SOL     OW 3781   5.999  11.814   0.422
33983SOL    HW1 3782   6.041  11.824   0.508
33983SOL    HW2 3783   5.970  11.902   0.399
33984SOL     OW 3784   0.099   6.579   7.532
33984SOL    HW1 3785   0.011   6.613   7.548
33984SOL    HW2 3786   0.084   6.494   7.489
33985SOL     OW 3787   1.680   6.560   4.606
33985SOL    HW1 3788   1.600   6.603   4.635
33985SOL    HW2 3789   1.686   6.480   4.659
33986SOL     OW 3790   3.917  12.253   8.229
33986SOL    HW1 3791   3.874  12.168   8.221
33986SOL    HW2 3792   3.852  12.316   8.199
33987SOL     OW 3793   4.668   1.065  12.652
33987SOL    HW1 3794   4.688   0.996  12.715
33987SOL    HW2 3795   4.683   1.025  12.566
33988SOL     OW 3796  12.338   5.656   7.998
33988SOL    HW1 3797  12.256   5.614   7.973
33988SOL    HW2 3798  12.338   5.655   8.094
33989SOL     OW 3799   3.272  13.332  11.706
33989SOL    HW1 3800   3.232  13.337  11.619
33989SOL    HW2 3801   3.362  13.304  11.689
33990SOL     OW 3802   9.757  12.080  13.709
33990SOL    HW1 3803   9.823  12.126  13.658
33990SOL    HW2 3804   9.678  12.133  13.701
33991SOL     OW 3805   3.154  10.555  13.172
33991SOL    HW1 3806   3.070  10.593  13.147
33991SOL    HW2 3807   3.189  10.615  13.238
33992SOL     OW 3808  10.437   1.926  11.145
33992SOL    HW1 3809  10.358   1.871  11.149
33992SOL    HW2 3810  10.457   1.934  11.052
33993SOL     OW 3811   2.511  10.672  12.138
33993SOL    HW1 3812   2.438  10.627  12.097
33993SOL    HW2 3813   2.579  10.675  12.071
33994SOL     OW 3814   9.422   0.856   2.921
33994SOL    HW1 3815   9.360   0.923   2.947
33994SOL    HW2 3816   9.397   0.779   2.971
33995SOL     OW 3817  10.714  14.016  11.003
33995SOL    HW1 3818  10.622  14.025  11.030
33995SOL    HW2 3819  10.724  14.079  10.932
33996SOL     OW 3820   6.334   2.327  14.305
33996SOL    HW1 3821   6.379   2.278  14.237
33996SOL    HW2 3822   6.397   2.334  14.376
33997SOL     OW 3823   6.030   5.418  13.236
33997SOL    HW1 3824   6.049   5.459  13.320
33997SOL    HW2 3825   6.084   5.467  13.173
33998SOL     OW 3826   1.179  13.215  11.281
33998SOL    HW1 3827   1.213  13.199  11.193
33998SOL    HW2 3828   1.246  13.180  11.339
33999SOL     OW 3829   1.926  12.409   9.735
33999SOL    HW1 3830   1.886  12.347   9.674
33999SOL    HW2 3831   1.852  12.452   9.778
34000SOL     OW 3832  11.830   5.756   1.195
34000SOL    HW1 3833  11.744   5.748   1.237
34000SOL    HW2 3834  11.878   5.817   1.251
34001SOL     OW 3835   4.669   0.683  11.459
34001SOL    HW1 3836   4.657   0.623  11.385
34001SOL    HW2 3837   4.597   0.663  11.518
34002SOL     OW 3838   3.473   8.229   7.571
34002SOL    HW1 3839   3.558   8.186   7.562
34002SOL    HW2 3840   3.471   8.259   7.662
34003SOL     OW 3841  10.809  13.442  14.748
34003SOL    HW1 3842  10.818  13.520  14.693
34003SOL    HW2 3843  10.760  13.473  14.825
34004SOL     OW 3844   8.341   8.622  12.289
34004SOL    HW1 3845   8.263   8.646  12.241
34004SOL    HW2 3846   8.344   8.683  12.363
34005SOL     OW 3847   5.446   8.031  14.715
34005SOL    HW1 3848   5.511   7.964  14.692
34005SOL    HW2 3849   5.473   8.108  14.665
34006SOL     OW 3850   8.047   2.022   8.404
34006SOL    HW1 3851   7.981   1.966   8.364
34006SOL    HW2 3852   8.126   1.967   8.410
34007SOL     OW 3853  10.670   2.321  13.443
34007SOL    HW1 3854  10.690   2.293  13.354
34007SOL    HW2 3855  10.746   2.293  13.494
34008SOL     OW 3856  10.229   4.926  10.013
34008SOL    HW1 3857  10.162   4.867   9.977
34008SOL    HW2 3858  10.183   5.008  10.029
34009SOL     OW 3859  11.011   8.357   5.183
34009SOL    HW1 3860  11.096   8.345   5.139
34009SOL    HW2 3861  11.027   8.331   5.274
34010SOL     OW 3862  14.857   9.369   2.926
34010SOL    HW1 3863   0.066   9.348   2.894
34010SOL    HW2 3864  14.832   9.448   2.878
34011SOL     OW 3865   0.513   4.706   7.650
34011SOL    HW1 3866   0.551   4.681   7.566
34011SOL    HW2 3867   0.447   4.639   7.668
34012SOL     OW 3868  14.407   7.215   4.582
34012SOL    HW1 3869  14.374   7.303   4.600
34012SOL    HW2 3870  14.340   7.175   4.527
34013SOL     OW 3871  14.439  12.424   9.348
34013SOL    HW1 3872  14.362  12.415   9.405
34013SOL    HW2 3873  14.440  12.343   9.298
34014SOL     OW 3874   5.164   9.141  11.108
34014SOL    HW1 3875   5.122   9.227  11.106
34014SOL    HW2 3876   5.101   9.083  11.064
34015SOL     OW 3877   9.447   4.065   8.583
34015SOL    HW1 3878   9.425   4.156   8.563
34015SOL    HW2 3879   9.393   4.043   8.659
34016SOL     OW 3880   6.758  13.235   7.314
34016SOL    HW1 3881   6.775  13.144   7.338
34016SOL    HW2 3882   6.844  13.275   7.307
34017SOL     OW 3883  11.851   4.777   3.141
34017SOL    HW1 3884  11.832   4.710   3.076
34017SOL    HW2 3885  11.930   4.821   3.108
34018SOL     OW 3886   5.090   3.462  13.313
34018SOL    HW1 3887   5.068   3.370  13.331
34018SOL    HW2 3888   5.006   3.503  13.291
34019SOL     OW 3889   6.295  10.368   1.519
34019SOL    HW1 3890   6.379  10.332   1.490
34019SOL    HW2 3891   6.230  10.308   1.482
34020SOL     OW 3892  12.642   3.385  10.534
34020SOL    HW1 3893  12.635   3.456  10.598
34020SOL    HW2 3894  12.638   3.305  10.586
34021SOL     OW 3895  14.560   0.124  14.218
34021SOL    HW1 3896  14.512   0.048  14.184
34021SOL    HW2 3897  14.534   0.129  14.310
34022SOL     OW 3898  10.297   8.971  10.582
34022SOL    HW1 3899  10.378   8.961  10.532
34022SOL    HW2 3900  10.230   8.927  10.529
34023SOL     OW 3901   3.643   5.022   9.774
34023SOL    HW1 3902   3.733   5.002   9.799
34023SOL    HW2 3903   3.607   4.938   9.745
34024SOL     OW 3904   7.310   6.193   8.797
34024SOL    HW1 3905   7.364   6.265   8.830
34024SOL    HW2 3906   7.273   6.226   8.715
34025SOL     OW 3907   2.098   4.512   2.550
34025SOL    HW1 3908   2.186   4.477   2.542
34025SOL    HW2 3909   2.086   4.567   2.472
34026SOL     OW 3910   1.006   8.602   6.156
34026SOL    HW1 3911   1.018   8.677   6.214
34026SOL    HW2 3912   0.984   8.641   6.071
34027SOL     OW 3913   0.237  13.486   8.990
34027SOL    HW1 3914   0.174  13.429   9.035
34027SOL    HW2 3915   0.229  13.462   8.898
34028SOL     OW 3916   1.378  10.792   2.490
34028SOL    HW1 3917   1.374  10.827   2.579
34028SOL    HW2 3918   1.352  10.865   2.434
34029SOL     OW 3919  11.788   5.272  14.829
34029SOL    HW1 3920  11.723   5.336  14.803
34029SOL    HW2 3921  11.838   5.315   0.020
34030SOL     OW 3922   2.845   3.250   4.357
34030SOL    HW1 3923   2.911   3.305   4.399
34030SOL    HW2 3924   2.879   3.161   4.366
34031SOL     OW 3925   0.980  13.372   0.681
34031SOL    HW1 3926   1.017  13.300   0.733
34031SOL    HW2 3927   1.033  13.374   0.602
34032SOL     OW 3928  14.318   9.007   2.325
34032SOL    HW1 3929  14.290   9.051   2.405
34032SOL    HW2 3930  14.372   9.072   2.280
34033SOL     OW 3931   3.752   2.776  12.492
34033SOL    HW1 3932   3.715   2.717  12.557
34033SOL    HW2 3933   3.676   2.813  12.446
34034SOL     OW 3934   7.620  12.310  11.716
34034SOL    HW1 3935   7.540  12.319  11.664
34034SOL    HW2 3936   7.607  12.230  11.767
34035SOL     OW 3937   1.144  12.623  10.143
34035SOL    HW1 3938   1.064  12.675  10.139
34035SOL    HW2 3939   1.117  12.535  10.117
34036SOL     OW 3940   6.324   5.086   2.508
34036SOL    HW1 3941   6.400   5.038   2.542
34036SOL    HW2 3942   6.315   5.056   2.418
34037SOL     OW 3943  11.006   7.707   3.387
34037SOL    HW1 3944  10.940   7.745   3.444
34037SOL    HW2 3945  11.086   7.757   3.406
34038SOL     OW 3946  10.248  14.714   0.233
34038SOL    HW1 3947  10.213  14.743   0.149
34038SOL    HW2 3948  10.245  14.619   0.230
34039SOL     OW 3949   2.924   2.820   1.082
34039SOL    HW1 3950   2.978   2.780   1.014
34039SOL    HW2 3951   2.902   2.907   1.048
34040SOL     OW 3952   2.577   7.115   9.473
34040SOL    HW1 3953   2.620   7.189   9.429
34040SOL    HW2 3954   2.564   7.051   9.403
34041SOL     OW 3955   6.324   4.548   7.034
34041SOL    HW1 3956   6.237   4.583   7.017
34041SOL    HW2 3957   6.369   4.556   6.950
34042SOL     OW 3958   1.072  11.948   4.028
34042SOL    HW1 3959   0.980  11.934   4.005
34042SOL    HW2 3960   1.087  11.892   4.104
34043SOL     OW 3961   9.850   2.999   2.788
34043SOL    HW1 3962   9.759   3.008   2.817
34043SOL    HW2 3963   9.844   2.975   2.696
34044SOL     OW 3964  13.963   9.872   8.418
34044SOL    HW1 3965  13.868   9.882   8.403
34044SOL    HW2 3966  13.985   9.942   8.479
34045SOL     OW 3967  13.638   7.161  11.039
34045SOL    HW1 3968  13.545   7.137  11.032
34045SOL    HW2 3969  13.675   7.138  10.954
34046SOL     OW 3970   8.573   5.016  14.850
34046SOL    HW1 3971   8.553   4.932  14.810
34046SOL    HW2 3972   8.601   4.995   0.060
34047SOL     OW 3973   5.596   3.583  14.746
34047SOL    HW1 3974   5.667   3.598  14.683
34047SOL    HW2 3975   5.616   3.497  14.785
34048SOL     OW 3976  12.062  11.251   3.694
34048SOL    HW1 3977  12.095  11.282   3.609
34048SOL    HW2 3978  12.138  11.209   3.735
34049SOL     OW 3979   5.503  11.426   0.174
34049SOL    HW1 3980   5.547  11.506   0.202
34049SOL    HW2 3981   5.563  11.356   0.198
34050SOL     OW 3982   0.428   6.101   8.064
34050SOL    HW1 3983   0.457   6.081   7.975
34050SOL    HW2 3984   0.361   6.168   8.053
34051SOL     OW 3985  12.898   4.565  12.268
34051SOL    HW1 3986  12.838   4.639  12.257
34051SOL    HW2 3987  12.841   4.491  12.291
34052SOL     OW 3988   2.282   2.625   7.114
34052SOL    HW1 3989   2.334   2.628   7.034
34052SOL    HW2 3990   2.235   2.541   7.108
34053SOL     OW 3991   4.733   8.757   4.607
34053SOL    HW1 3992   4.661   8.797   4.557
34053SOL    HW2 3993   4.792   8.722   4.540
34054SOL     OW 3994   1.496   8.691   2.336
34054SOL    HW1 3995   1.525   8.630   2.268
34054SOL    HW2 3996   1.517   8.777   2.301
34055SOL     OW 3997   0.583  10.991   0.750
34055SOL    HW1 3998   0.633  10.941   0.815
34055SOL    HW2 3999   0.634  11.071   0.737
34056SOL     OW 4000   8.363  14.223   7.415
34056SOL    HW1 4001   8.452  14.256   7.421
34056SOL    HW2 4002   8.340  14.199   7.505
34057SOL     OW 4003   5.835   6.469  10.684
34057SOL    HW1 4004   5.913   6.444  10.734
34057SOL    HW2 4005   5.847   6.429  10.598
34058SOL     OW 4006   2.835  13.488   5.437
34058SOL    HW1 4007   2.906  13.445   5.390
34058SOL    HW2 4008   2.776  13.417   5.463
34059SOL     OW 4009   7.639   0.996   5.798
34059SOL    HW1 4010   7.611   0.906   5.818
34059SOL    HW2 4011   7.730   1.000   5.827
34060SOL     OW 4012   3.181   9.404  14.611
34060SOL    HW1 4013   3.135   9.488  14.603
34060SOL    HW2 4014   3.178   9.384  14.704
34061SOL     OW 4015   0.107   8.059   5.349
34061SOL    HW1 4016   0.025   8.107   5.360
34061SOL    HW2 4017   0.147   8.059   5.436
34062SOL     OW 4018   1.486   9.443   5.035
34062SOL    HW1 4019   1.515   9.458   5.125
34062SOL    HW2 4020   1.519   9.518   4.986
34063SOL     OW 4021  13.669  10.522  13.655
34063SOL    HW1 4022  13.678  10.608  13.697
34063SOL    HW2 4023  13.755  10.505  13.618
34064SOL     OW 4024   0.566   5.753   8.658
34064SOL    HW1 4025   0.523   5.759   8.743
34064SOL    HW2 4026   0.613   5.670   8.660
34065SOL     OW 4027   8.096  12.505   9.687
34065SOL    HW1 4028   8.110  12.435   9.623
34065SOL    HW2 4029   8.174  12.559   9.680
34066SOL     OW 4030   0.766   4.584   7.752
34066SOL    HW1 4031   0.748   4.585   7.846
34066SOL    HW2 4032   0.861   4.597   7.746
34067SOL     OW 4033   1.089  10.686   1.947
34067SOL    HW1 4034   1.134  10.710   2.027
34067SOL    HW2 4035   1.153  10.701   1.877
34068SOL     OW 4036   7.483   1.363   0.225
34068SOL    HW1 4037   7.417   1.405   0.281
34068SOL    HW2 4038   7.435   1.299   0.174
34069SOL     OW 4039  10.029   8.200  12.207
34069SOL    HW1 4040   9.969   8.137  12.167
34069SOL    HW2 4041   9.972   8.260  12.256
34070SOL     OW 4042   1.464   5.115  13.434
34070SOL    HW1 4043   1.550   5.142  13.464
34070SOL    HW2 4044   1.481   5.065  13.354
34071SOL     OW 4045  13.272   4.159   1.583
34071SOL    HW1 4046  13.277   4.067   1.556
34071SOL    HW2 4047  13.300   4.158   1.675
34072SOL     OW 4048   8.624  14.421   8.039
34072SOL    HW1 4049   8.557  14.485   8.059
34072SOL    HW2 4050   8.641  14.376   8.122
34073SOL     OW 4051   4.642   5.810   4.948
34073SOL    HW1 4052   4.655   5.834   5.040
34073SOL    HW2 4053   4.683   5.724   4.940
34074SOL     OW 4054   1.701  10.055   8.701
34074SOL    HW1 4055   1.770  10.102   8.747
34074SOL    HW2 4056   1.746   9.984   8.655
34075SOL     OW 4057  10.770   3.110   4.066
34075SOL    HW1 4058  10.786   3.195   4.024
34075SOL    HW2 4059  10.857   3.070   4.072
34076SOL     OW 4060  11.171   7.976   9.762
34076SOL    HW1 4061  11.236   7.986   9.831
34076SOL    HW2 4062  11.172   8.060   9.716
34077SOL     OW 4063   6.804   3.268  13.735
34077SOL    HW1 4064   6.826   3.361  13.737
34077SOL    HW2 4065   6.779   3.251  13.645
34078SOL     OW 4066   9.674   4.450  11.726
34078SOL    HW1 4067   9.731   4.427  11.799
34078SOL    HW2 4068   9.656   4.368  11.681
34079SOL     OW 4069   8.427   2.885   3.295
34079SOL    HW1 4070   8.380   2.874   3.377
34079SOL    HW2 4071   8.364   2.928   3.237
34080SOL     OW 4072   5.773   3.103   9.627
34080SOL    HW1 4073   5.848   3.051   9.601
34080SOL    HW2 4074   5.719   3.043   9.679
34081SOL     OW 4075   3.545   6.142  11.635
34081SOL    HW1 4076   3.502   6.098  11.562
34081SOL    HW2 4077   3.534   6.235  11.616
34082SOL     OW 4078  13.651  11.062   8.725
34082SOL    HW1 4079  13.731  11.010   8.717
34082SOL    HW2 4080  13.680  11.152   8.709
34083SOL     OW 4081   8.517   4.860   0.807
34083SOL    HW1 4082   8.605   4.897   0.796
34083SOL    HW2 4083   8.459   4.937   0.807
34084SOL     OW 4084  11.874   0.760   0.227
34084SOL    HW1 4085  11.951   0.703   0.227
34084SOL    HW2 4086  11.907   0.844   0.196
34085SOL     OW 4087  14.513   7.757   3.461
34085SOL    HW1 4088  14.547   7.779   3.547
34085SOL    HW2 4089  14.545   7.668   3.444
34086SOL     OW 4090  13.638  11.434   2.820
34086SOL    HW1 4091  13.709  11.375   2.795
34086SOL    HW2 4092  13.590  11.386   2.887
34087SOL     OW 4093  10.857   6.184   7.527
34087SOL    HW1 4094  10.767   6.162   7.549
34087SOL    HW2 4095  10.877   6.131   7.450
34088SOL     OW 4096  12.182   6.983   0.646
34088SOL    HW1 4097  12.198   6.975   0.740
34088SOL    HW2 4098  12.191   7.076   0.627
34089SOL     OW 4099   3.284  12.558  12.122
34089SOL    HW1 4100   3.275  12.653  12.136
34089SOL    HW2 4101   3.292  12.548  12.027
34090SOL     OW 4102   4.949   9.658   8.009
34090SOL    HW1 4103   4.893   9.680   7.935
34090SOL    HW2 4104   4.921   9.570   8.035
34091SOL     OW 4105   4.270   1.020   7.712
34091SOL    HW1 4106   4.317   1.021   7.796
34091SOL    HW2 4107   4.274   1.110   7.682
34092SOL     OW 4108   1.394   6.034  12.095
34092SOL    HW1 4109   1.365   6.119  12.063
34092SOL    HW2 4110   1.425   5.988  12.016
34093SOL     OW 4111   3.530   5.281  13.073
34093SOL    HW1 4112   3.509   5.190  13.091
34093SOL    HW2 4113   3.500   5.296  12.983
34094SOL     OW 4114  13.342  14.230   5.870
34094SOL    HW1 4115  13.290  14.295   5.822
34094SOL    HW2 4116  13.325  14.147   5.825
34095SOL     OW 4117   4.601  14.500   0.255
34095SOL    HW1 4118   4.593  14.595   0.264
34095SOL    HW2 4119   4.648  14.488   0.173
34096SOL     OW 4120  14.008  13.936   1.323
34096SOL    HW1 4121  14.021  13.974   1.235
34096SOL    HW2 4122  13.933  13.983   1.358
34097SOL     OW 4123   9.013   6.553  14.275
34097SOL    HW1 4124   8.966   6.633  14.252
34097SOL    HW2 4125   9.077   6.582  14.340
34098SOL     OW 4126   3.006   3.736   1.508
34098SOL    HW1 4127   2.999   3.782   1.593
34098SOL    HW2 4128   3.092   3.696   1.509
34099SOL     OW 4129  14.866   7.259  12.388
34099SOL    HW1 4130   0.079   7.238  12.373
34099SOL    HW2 4131  14.825   7.177  12.415
34100SOL     OW 4132   0.147   0.157   3.996
34100SOL    HW1 4133   0.132   0.218   3.923
34100SOL    HW2 4134   0.189   0.081   3.955
34101SOL     OW 4135   9.200  14.759   1.232
34101SOL    HW1 4136   9.239  14.846   1.229
34101SOL    HW2 4137   9.106  14.775   1.243
34102SOL     OW 4138  12.595   3.651   2.126
34102SOL    HW1 4139  12.574   3.569   2.082
34102SOL    HW2 4140  12.549   3.646   2.210
34103SOL     OW 4141   8.861   7.935  14.794
34103SOL    HW1 4142   8.793   7.943  14.727
34103SOL    HW2 4143   8.845   7.851  14.836
34104SOL     OW 4144  10.972   4.973   3.450
34104SOL    HW1 4145  11.046   4.980   3.509
34104SOL    HW2 4146  10.944   5.063   3.435
34105SOL     OW 4147   6.182  13.345   6.823
34105SOL    HW1 4148   6.198  13.336   6.729
34105SOL    HW2 4149   6.129  13.269   6.846
34106SOL     OW 4150   8.259   3.151   4.479
34106SOL    HW1 4151   8.343   3.158   4.523
34106SOL    HW2 4152   8.257   3.225   4.418
34107SOL     OW 4153  11.949   4.779   9.887
34107SOL    HW1 4154  12.030   4.793   9.837
34107SOL    HW2 4155  11.973   4.798   9.978
34108SOL     OW 4156   6.624  14.634  13.286
34108SOL    HW1 4157   6.572  14.712  13.303
34108SOL    HW2 4158   6.650  14.602  13.372
34109SOL     OW 4159  13.831  14.579   6.544
34109SOL    HW1 4160  13.885  14.549   6.617
34109SOL    HW2 4161  13.867  14.665   6.522
34110SOL     OW 4162   9.781   5.350   0.709
34110SOL    HW1 4163   9.727   5.271   0.710
34110SOL    HW2 4164   9.736   5.411   0.767
34111SOL     OW 4165   3.735  13.052   9.118
34111SOL    HW1 4166   3.714  13.024   9.029
34111SOL    HW2 4167   3.652  13.087   9.152
34112SOL     OW 4168  12.960   3.172   7.446
34112SOL    HW1 4169  12.978   3.092   7.495
34112SOL    HW2 4170  12.864   3.176   7.441
34113SOL     OW 4171  14.465  10.600   1.496
34113SOL    HW1 4172  14.531  10.667   1.514
34113SOL    HW2 4173  14.512  10.534   1.445
34114SOL     OW 4174  10.667   3.933   8.585
34114SOL    HW1 4175  10.636   3.857   8.535
34114SOL    HW2 4176  10.619   3.929   8.667
34115SOL     OW 4177   0.423   0.997   5.519
34115SOL    HW1 4178   0.460   0.984   5.606
34115SOL    HW2 4179   0.498   0.989   5.460
34116SOL     OW 4180   6.448  14.698   7.738
34116SOL    HW1 4181   6.391  14.641   7.791
34116SOL    HW2 4182   6.479  14.641   7.667
34117SOL     OW 4183  14.775   7.945   9.882
34117SOL    HW1 4184  14.861   7.976   9.909
34117SOL    HW2 4185  14.714   7.992   9.938
34118SOL     OW 4186   4.674   1.045   0.290
34118SOL    HW1 4187   4.585   1.017   0.308
34118SOL    HW2 4188   4.690   1.016   0.200
34119SOL     OW 4189   5.133  13.462   1.837
34119SOL    HW1 4190   5.083  13.536   1.872
34119SOL    HW2 4191   5.153  13.487   1.747
34120SOL     OW 4192   0.705   1.905   6.192
34120SOL    HW1 4193   0.741   1.818   6.205
34120SOL    HW2 4194   0.760   1.963   6.245
34121SOL     OW 4195  13.930   2.017   3.617
34121SOL    HW1 4196  13.915   1.924   3.634
34121SOL    HW2 4197  14.015   2.035   3.656
34122SOL     OW 4198   1.217   1.578  10.118
34122SOL    HW1 4199   1.136   1.577  10.067
34122SOL    HW2 4200   1.278   1.525  10.066
34123SOL     OW 4201  11.792   4.093  10.891
34123SOL    HW1 4202  11.746   4.116  10.972
34123SOL    HW2 4203  11.786   3.998  10.886
34124SOL     OW 4204   7.909  11.376   5.024
34124SOL    HW1 4205   7.972  11.305   5.027
34124SOL    HW2 4206   7.838  11.344   4.968
34125SOL     OW 4207   5.694  13.433   3.570
34125SOL    HW1 4208   5.753  13.480   3.628
34125SOL    HW2 4209   5.734  13.347   3.560
34126SOL     OW 4210  14.106   3.641   5.729
34126SOL    HW1 4211  14.115   3.736   5.724
34126SOL    HW2 4212  14.195   3.608   5.721
34127SOL     OW 4213   6.072   7.739   6.418
34127SOL    HW1 4214   6.158   7.751   6.379
34127SOL    HW2 4215   6.079   7.657   6.467
34128SOL     OW 4216   2.121   7.823   2.244
34128SOL    HW1 4217   2.070   7.762   2.190
34128SOL    HW2 4218   2.117   7.786   2.332
34129SOL     OW 4219   3.202   0.828   2.564
34129SOL    HW1 4220   3.173   0.846   2.474
34129SOL    HW2 4221   3.251   0.906   2.589
34130SOL     OW 4222   9.509  14.338   4.592
34130SOL    HW1 4223   9.518  14.274   4.662
34130SOL    HW2 4224   9.585  14.396   4.602
34131SOL     OW 4225  13.092  14.584   4.223
34131SOL    HW1 4226  13.131  14.498   4.208
34131SOL    HW2 4227  13.063  14.581   4.314
34132SOL     OW 4228  13.129   7.489   8.881
34132SOL    HW1 4229  13.096   7.400   8.866
34132SOL    HW2 4230  13.111   7.535   8.799
34133SOL     OW 4231  14.747  13.235   1.516
34133SOL    HW1 4232  14.763  13.219   1.609
34133SOL    HW2 4233  14.717  13.325   1.512
34134SOL     OW 4234  13.575  14.257   4.555
34134SOL    HW1 4235  13.669  14.247   4.569
34134SOL    HW2 4236  13.537  14.177   4.591
34135SOL     OW 4237  11.218   3.550   5.181
34135SOL    HW1 4238  11.202   3.539   5.275
34135SOL    HW2 4239  11.133   3.576   5.146
34136SOL     OW 4240   8.548  12.131  13.523
34136SOL    HW1 4241   8.602  12.135  13.444
34136SOL    HW2 4242   8.552  12.040  13.551
34137SOL     OW 4243   0.535  13.973   1.115
34137SOL    HW1 4244   0.545  14.000   1.206
34137SOL    HW2 4245   0.623  13.946   1.089
34138SOL     OW 4246   1.899  13.229   3.985
34138SOL    HW1 4247   1.893  13.252   3.893
34138SOL    HW2 4248   1.960  13.293   4.022
34139SOL     OW 4249   4.245  12.565  10.396
34139SOL    HW1 4250   4.200  12.499  10.448
34139SOL    HW2 4251   4.180  12.591  10.330
34140SOL     OW 4252   6.598   9.884   0.193
34140SOL    HW1 4253   6.516   9.930   0.181
34140SOL    HW2 4254   6.590   9.806   0.139
34141SOL     OW 4255  13.129  10.175  14.083
34141SOL    HW1 4256  13.177  10.151  14.004
34141SOL    HW2 4257  13.193  10.221  14.137
34142SOL     OW 4258  11.052  10.391   0.449
34142SOL    HW1 4259  11.054  10.468   0.506
34142SOL    HW2 4260  11.119  10.333   0.485
34143SOL     OW 4261   8.709  10.268   9.389
34143SOL    HW1 4262   8.749  10.289   9.474
34143SOL    HW2 4263   8.621  10.239   9.411
34144SOL     OW 4264  10.520   4.644   1.393
34144SOL    HW1 4265  10.569   4.715   1.350
34144SOL    HW2 4266  10.435   4.643   1.348
34145SOL     OW 4267   6.160   3.300   9.527
34145SOL    HW1 4268   6.134   3.229   9.586
34145SOL    HW2 4269   6.080   3.318   9.476
34146SOL     OW 4270   7.710   9.802  10.837
34146SOL    HW1 4271   7.658   9.874  10.802
34146SOL    HW2 4272   7.762   9.771  10.763
34147SOL     OW 4273   2.517   8.124  10.112
34147SOL    HW1 4274   2.502   8.030  10.113
34147SOL    HW2 4275   2.594   8.136  10.057
34148SOL     OW 4276   7.772   1.130   4.395
34148SOL    HW1 4277   7.724   1.067   4.449
34148SOL    HW2 4278   7.858   1.137   4.438
34149SOL     OW 4279   2.732   3.175  11.475
34149SOL    HW1 4280   2.752   3.185  11.568
34149SOL    HW2 4281   2.640   3.199  11.468
34150SOL     OW 4282   9.746   7.107   6.471
34150SOL    HW1 4283   9.676   7.088   6.533
34150SOL    HW2 4284   9.820   7.136   6.525
34151SOL     OW 4285   6.147  14.162  10.691
34151SOL    HW1 4286   6.144  14.252  10.722
34151SOL    HW2 4287   6.222  14.123  10.737
34152SOL     OW 4288  10.182   3.572   2.875
34152SOL    HW1 4289  10.111   3.518   2.912
34152SOL    HW2 4290  10.191   3.541   2.785
34153SOL     OW 4291   9.618  14.215   1.941
34153SOL    HW1 4292   9.606  14.198   1.847
34153SOL    HW2 4293   9.557  14.155   1.985
34154SOL     OW 4294   0.982  11.885   1.369
34154SOL    HW1 4295   0.987  11.980   1.380
34154SOL    HW2 4296   1.026  11.850   1.447
34155SOL     OW 4297   2.663   8.966   2.734
34155SOL    HW1 4298   2.705   8.971   2.820
34155SOL    HW2 4299   2.591   9.029   2.738
34156SOL     OW 4300  12.339   4.364   8.394
34156SOL    HW1 4301  12.388   4.433   8.441
34156SOL    HW2 4302  12.406   4.314   8.348
34157SOL     OW 4303   8.539  11.987  11.393
34157SOL    HW1 4304   8.477  12.010  11.463
34157SOL    HW2 4305   8.618  11.960  11.440
34158SOL     OW 4306   3.762   4.049   0.325
34158SOL    HW1 4307   3.710   4.061   0.246
34158SOL    HW2 4308   3.804   3.964   0.314
34159SOL     OW 4309   7.730   2.666  11.289
34159SOL    HW1 4310   7.778   2.714  11.221
34159SOL    HW2 4311   7.792   2.656  11.360
34160SOL     OW 4312  11.329  13.098  14.015
34160SOL    HW1 4313  11.395  13.136  14.073
34160SOL    HW2 4314  11.246  13.124  14.054
34161SOL     OW 4315  11.614   2.241   1.035
34161SOL    HW1 4316  11.573   2.158   1.011
34161SOL    HW2 4317  11.568   2.268   1.114
34162SOL     OW 4318   0.195   6.172   2.941
34162SOL    HW1 4319   0.278   6.212   2.965
34162SOL    HW2 4320   0.144   6.243   2.903
34163SOL     OW 4321   5.933   0.524   9.576
34163SOL    HW1 4322   5.914   0.616   9.596
34163SOL    HW2 4323   6.004   0.500   9.634
34164SOL     OW 4324   7.111   6.313   0.122
34164SOL    HW1 4325   7.156   6.347   0.045
34164SOL    HW2 4326   7.173   6.323   0.193
34165SOL     OW 4327   4.446   6.094   0.915
34165SOL    HW1 4328   4.532   6.084   0.874
34165SOL    HW2 4329   4.387   6.041   0.861
34166SOL     OW 4330  11.614   7.002   6.509
34166SOL    HW1 4331  11.621   7.095   6.488
34166SOL    HW2 4332  11.520   6.987   6.522
34167SOL     OW 4333   8.955   1.904   5.458
34167SOL    HW1 4334   8.949   1.823   5.407
34167SOL    HW2 4335   8.968   1.874   5.549
34168SOL     OW 4336   0.232   3.218  12.321
34168SOL    HW1 4337   0.149   3.191  12.362
34168SOL    HW2 4338   0.221   3.200  12.228
34169SOL     OW 4339  10.743   3.660  13.816
34169SOL    HW1 4340  10.768   3.721  13.886
34169SOL    HW2 4341  10.737   3.575  13.859
34170SOL     OW 4342   6.779   9.943  11.374
34170SOL    HW1 4343   6.735   9.884  11.436
34170SOL    HW2 4344   6.709   9.973  11.316
34171SOL     OW 4345  10.233  10.261   5.289
34171SOL    HW1 4346  10.262  10.263   5.381
34171SOL    HW2 4347  10.267  10.342   5.252
34172SOL     OW 4348   8.599   6.433   7.799
34172SOL    HW1 4349   8.537   6.360   7.798
34172SOL    HW2 4350   8.685   6.392   7.785
34173SOL     OW 4351   2.811   3.329   6.012
34173SOL    HW1 4352   2.835   3.311   5.921
34173SOL    HW2 4353   2.874   3.395   6.040
34174SOL     OW 4354   9.871  11.061  12.161
34174SOL    HW1 4355   9.853  11.139  12.108
34174SOL    HW2 4356   9.796  11.004  12.146
34175SOL     OW 4357   9.623  14.021   0.212
34175SOL    HW1 4358   9.650  14.058   0.295
34175SOL    HW2 4359   9.538  14.062   0.194
34176SOL     OW 4360   6.692  12.509   6.988
34176SOL    HW1 4361   6.626  12.579   6.998
34176SOL    HW2 4362   6.641  12.432   6.962
34177SOL     OW 4363  13.596   1.381  14.182
34177SOL    HW1 4364  13.660   1.450  14.168
34177SOL    HW2 4365  13.588   1.338  14.097
34178SOL     OW 4366  11.390   5.214  14.173
34178SOL    HW1 4367  11.462   5.265  14.209
34178SOL    HW2 4368  11.384   5.138  14.230
34179SOL     OW 4369   5.086   2.178  12.585
34179SOL    HW1 4370   5.004   2.135  12.608
34179SOL    HW2 4371   5.126   2.200  12.669
34180SOL     OW 4372   7.882   0.213  12.894
34180SOL    HW1 4373   7.934   0.150  12.944
34180SOL    HW2 4374   7.941   0.287  12.880
34181SOL     OW 4375   2.706   8.728   6.292
34181SOL    HW1 4376   2.660   8.646   6.309
34181SOL    HW2 4377   2.788   8.720   6.342
34182SOL     OW 4378   7.479   5.980  13.869
34182SOL    HW1 4379   7.504   6.071  13.886
34182SOL    HW2 4380   7.395   5.986  13.825
34183SOL     OW 4381   7.486   2.478   2.624
34183SOL    HW1 4382   7.455   2.549   2.568
34183SOL    HW2 4383   7.416   2.413   2.621
34184SOL     OW 4384   1.357  10.545   3.498
34184SOL    HW1 4385   1.392  10.584   3.418
34184SOL    HW2 4386   1.312  10.617   3.542
34185SOL     OW 4387  12.969   8.349   5.229
34185SOL    HW1 4388  12.927   8.275   5.185
34185SOL    HW2 4389  13.048   8.366   5.177
34186SOL     OW 4390   3.992  11.403   2.339
34186SOL    HW1 4391   3.943  11.485   2.329
34186SOL    HW2 4392   4.083  11.428   2.324
34187SOL     OW 4393   9.905   2.340   4.622
34187SOL    HW1 4394   9.935   2.421   4.582
34187SOL    HW2 4395   9.970   2.320   4.689
34188SOL     OW 4396  14.518   3.255   3.200
34188SOL    HW1 4397  14.564   3.314   3.260
34188SOL    HW2 4398  14.427   3.283   3.205
34189SOL     OW 4399  13.064   0.810   0.436
34189SOL    HW1 4400  13.126   0.745   0.403
34189SOL    HW2 4401  13.109   0.853   0.508
34190SOL     OW 4402  13.612   6.385   4.523
34190SOL    HW1 4403  13.571   6.300   4.541
34190SOL    HW2 4404  13.539   6.445   4.509
34191SOL     OW 4405  12.695   3.052  14.869
34191SOL    HW1 4406  12.711   3.070  14.776
34191SOL    HW2 4407  12.775   3.010   0.020
34192SOL     OW 4408   6.313   9.021   2.975
34192SOL    HW1 4409   6.290   8.967   2.899
34192SOL    HW2 4410   6.316   8.961   3.049
34193SOL     OW 4411   0.712  11.034  14.251
34193SOL    HW1 4412   0.647  11.004  14.315
34193SOL    HW2 4413   0.767  11.095  14.300
34194SOL     OW 4414   9.185  11.421  13.898
34194SOL    HW1 4415   9.256  11.390  13.954
34194SOL    HW2 4416   9.225  11.489  13.844
34195SOL     OW 4417   9.851  10.988   4.017
34195SOL    HW1 4418   9.827  11.052   3.951
34195SOL    HW2 4419   9.776  10.984   4.076
34196SOL     OW 4420  14.523   5.258   3.975
34196SOL    HW1 4421  14.510   5.351   3.994
34196SOL    HW2 4422  14.563   5.223   4.055
34197SOL     OW 4423  13.489  13.227   7.922
34197SOL    HW1 4424  13.439  13.267   7.851
34197SOL    HW2 4425  13.488  13.133   7.901
34198SOL     OW 4426   4.337  12.549   9.347
34198SOL    HW1 4427   4.408  12.497   9.384
34198SOL    HW2 4428   4.381  12.624   9.307
34199SOL     OW 4429   5.461   6.740   3.449
34199SOL    HW1 4430   5.474   6.662   3.396
34199SOL    HW2 4431   5.380   6.724   3.497
34200SOL     OW 4432   7.505   7.227  13.902
34200SOL    HW1 4433   7.575   7.275  13.946
34200SOL    HW2 4434   7.529   7.135  13.914
34201SOL     OW 4435   4.050   9.066   6.935
34201SOL    HW1 4436   3.957   9.070   6.915
34201SOL    HW2 4437   4.060   8.990   6.992
34202SOL     OW 4438  11.251   2.165  10.414
34202SOL    HW1 4439  11.345   2.163  10.395
34202SOL    HW2 4440  11.216   2.232  10.355
34203SOL     OW 4441   1.803  13.798   5.521
34203SOL    HW1 4442   1.717  13.820   5.556
34203SOL    HW2 4443   1.865  13.845   5.576
34204SOL     OW 4444   0.072   4.152   7.915
34204SOL    HW1 4445   0.094   4.126   7.825
34204SOL    HW2 4446   0.025   4.077   7.951
34205SOL     OW 4447   0.863   2.668   0.138
34205SOL    HW1 4448   0.887   2.756   0.169
34205SOL    HW2 4449   0.868   2.675   0.043
34206SOL     OW 4450   0.560   8.714   1.344
34206SOL    HW1 4451   0.577   8.750   1.257
34206SOL    HW2 4452   0.643   8.675   1.370
34207SOL     OW 4453   3.707  12.830  11.673
34207SOL    HW1 4454   3.718  12.739  11.646
34207SOL    HW2 4455   3.641  12.827  11.743
34208SOL     OW 4456   6.265  11.812  11.001
34208SOL    HW1 4457   6.239  11.894  11.043
34208SOL    HW2 4458   6.356  11.799  11.026
34209SOL     OW 4459   7.628   1.926   4.475
34209SOL    HW1 4460   7.576   2.006   4.479
34209SOL    HW2 4461   7.588   1.868   4.539
34210SOL     OW 4462  10.579   4.211   9.885
34210SOL    HW1 4463  10.522   4.286   9.900
34210SOL    HW2 4464  10.667   4.248   9.885
34211SOL     OW 4465  12.039   0.870   6.128
34211SOL    HW1 4466  11.957   0.883   6.081
34211SOL    HW2 4467  12.076   0.958   6.137
34212SOL     OW 4468   1.423   8.455   4.673
34212SOL    HW1 4469   1.378   8.449   4.758
34212SOL    HW2 4470   1.492   8.519   4.688
34213SOL     OW 4471   8.895   2.972   2.338
34213SOL    HW1 4472   8.835   2.986   2.411
34213SOL    HW2 4473   8.982   2.969   2.378
34214SOL     OW 4474  10.338  12.789   1.592
34214SOL    HW1 4475  10.359  12.695   1.594
34214SOL    HW2 4476  10.343  12.813   1.500
34215SOL     OW 4477   5.583   2.770   1.729
34215SOL    HW1 4478   5.614   2.773   1.639
34215SOL    HW2 4479   5.550   2.680   1.740
34216SOL     OW 4480  12.248  13.290   4.075
34216SOL    HW1 4481  12.319  13.232   4.103
34216SOL    HW2 4482  12.236  13.350   4.148
34217SOL     OW 4483  11.985  11.987   2.651
34217SOL    HW1 4484  11.992  12.080   2.631
34217SOL    HW2 4485  12.072  11.963   2.685
34218SOL     OW 4486   0.523  11.894  13.993
34218SOL    HW1 4487   0.592  11.881  13.928
34218SOL    HW2 4488   0.451  11.838  13.963
34219SOL     OW 4489  10.982   3.849   4.595
34219SOL    HW1 4490  11.068   3.824   4.560
34219SOL    HW2 4491  10.987   3.944   4.605
34220SOL     OW 4492   0.479   1.386   7.717
34220SOL    HW1 4493   0.524   1.305   7.740
34220SOL    HW2 4494   0.398   1.358   7.675
34221SOL     OW 4495   3.608   7.031   2.192
34221SOL    HW1 4496   3.649   7.115   2.169
34221SOL    HW2 4497   3.648   7.007   2.275
34222SOL     OW 4498   4.554   8.186  10.070
34222SOL    HW1 4499   4.571   8.141  10.152
34222SOL    HW2 4500   4.578   8.278  10.087
34223SOL     OW 4501   4.207   2.285  10.055
34223SOL    HW1 4502   4.292   2.240  10.049
34223SOL    HW2 4503   4.202   2.315  10.145
34224SOL     OW 4504   6.060   5.810   5.893
34224SOL    HW1 4505   6.150   5.788   5.868
34224SOL    HW2 4506   6.040   5.889   5.842
34225SOL     OW 4507   2.179  13.710   0.995
34225SOL    HW1 4508   2.229  13.634   1.026
34225SOL    HW2 4509   2.101  13.672   0.955
34226SOL     OW 4510   8.255   6.016   3.304
34226SOL    HW1 4511   8.332   6.016   3.247
34226SOL    HW2 4512   8.216   6.103   3.291
34227SOL     OW 4513   4.038   8.564  10.888
34227SOL    HW1 4514   4.059   8.642  10.939
34227SOL    HW2 4515   4.100   8.498  10.920
34228SOL     OW 4516   8.598  13.859  12.081
34228SOL    HW1 4517   8.650  13.820  12.010
34228SOL    HW2 4518   8.559  13.784  12.125
34229SOL     OW 4519   6.394   1.644   2.860
34229SOL    HW1 4520   6.487   1.664   2.846
34229SOL    HW2 4521   6.394   1.557   2.899
34230SOL     OW 4522   6.547   9.120   4.782
34230SOL    HW1 4523   6.478   9.112   4.715
34230SOL    HW2 4524   6.499   9.131   4.864
34231SOL     OW 4525   6.182   5.078   7.946
34231SOL    HW1 4526   6.207   5.122   8.027
34231SOL    HW2 4527   6.161   4.989   7.973
34232SOL     OW 4528  14.552  11.233   4.299
34232SOL    HW1 4529  14.519  11.264   4.215
34232SOL    HW2 4530  14.489  11.168   4.328
34233SOL     OW 4531   4.900   7.349   5.103
34233SOL    HW1 4532   4.934   7.260   5.110
34233SOL    HW2 4533   4.978   7.405   5.109
34234SOL     OW 4534  12.359   7.128  14.818
34234SOL    HW1 4535  12.296   7.085  14.876
34234SOL    HW2 4536  12.305   7.179  14.758
34235SOL     OW 4537   4.439  13.675   3.680
34235SOL    HW1 4538   4.403  13.634   3.759
34235SOL    HW2 4539   4.468  13.601   3.626
34236SOL     OW 4540  11.574  12.037  13.611
34236SOL    HW1 4541  11.495  12.003  13.653
34236SOL    HW2 4542  11.562  12.132  13.609
34237SOL     OW 4543   9.739   8.316   5.837
34237SOL    HW1 4544   9.685   8.394   5.843
34237SOL    HW2 4545   9.679   8.243   5.851
34238SOL     OW 4546  11.441   1.060   4.072
34238SOL    HW1 4547  11.417   1.104   4.154
34238SOL    HW2 4548  11.357   1.030   4.036
34239SOL     OW 4549   0.207   0.155   1.682
34239SOL    HW1 4550   0.204   0.132   1.775
34239SOL    HW2 4551   0.190   0.249   1.680
34240SOL     OW 4552  14.808  14.116  10.498
34240SOL    HW1 4553   0.010  14.166  10.490
34240SOL    HW2 4554  14.775  14.109  10.409
34241SOL     OW 4555   6.523  12.342   6.578
34241SOL    HW1 4556   6.543  12.318   6.487
34241SOL    HW2 4557   6.538  12.261   6.627
34242SOL     OW 4558  13.216   1.887  10.161
34242SOL    HW1 4559  13.122   1.905  10.171
34242SOL    HW2 4560  13.236   1.917  10.072
34243SOL     OW 4561   8.355   2.883  13.582
34243SOL    HW1 4562   8.290   2.932  13.633
34243SOL    HW2 4563   8.420   2.949  13.556
34244SOL     OW 4564  13.583  11.505   7.004
34244SOL    HW1 4565  13.571  11.413   6.981
34244SOL    HW2 4566  13.502  11.548   6.977
34245SOL     OW 4567   0.941   1.165   6.200
34245SOL    HW1 4568   0.947   1.174   6.295
34245SOL    HW2 4569   0.867   1.106   6.187
34246SOL     OW 4570   4.093  14.452  11.673
34246SOL    HW1 4571   4.040  14.427  11.598
34246SOL    HW2 4572   4.038  14.513  11.722
34247SOL     OW 4573   3.889   4.241  11.980
34247SOL    HW1 4574   3.959   4.189  11.941
34247SOL    HW2 4575   3.890   4.216  12.073
34248SOL     OW 4576   4.964   4.920  11.059
34248SOL    HW1 4577   4.931   4.999  11.101
34248SOL    HW2 4578   4.886   4.867  11.042
34249SOL     OW 4579   1.034  12.937   0.607
34249SOL    HW1 4580   0.979  12.861   0.588
34249SOL    HW2 4581   1.047  12.979   0.521
34250SOL     OW 4582   5.293  12.064   8.588
34250SOL    HW1 4583   5.263  12.078   8.677
34250SOL    HW2 4584   5.245  12.128   8.535
34251SOL     OW 4585   7.028   5.254  11.213
34251SOL    HW1 4586   7.053   5.288  11.299
34251SOL    HW2 4587   7.081   5.305  11.151
34252SOL     OW 4588  10.630   7.899  10.262
34252SOL    HW1 4589  10.599   7.875  10.175
34252SOL    HW2 4590  10.721   7.927  10.247
34253SOL     OW 4591   8.738   4.414   8.405
34253SOL    HW1 4592   8.824   4.451   8.387
34253SOL    HW2 4593   8.683   4.446   8.334
34254SOL     OW 4594   4.320   5.160   0.745
34254SOL    HW1 4595   4.370   5.237   0.771
34254SOL    HW2 4596   4.230   5.191   0.737
34255SOL     OW 4597   2.754   8.007   5.045
34255SOL    HW1 4598   2.701   7.941   5.090
34255SOL    HW2 4599   2.833   8.015   5.098
34256SOL     OW 4600   9.585   7.137  10.164
34256SOL    HW1 4601   9.612   7.054  10.125
34256SOL    HW2 4602   9.579   7.197  10.090
34257SOL     OW 4603  10.653   6.528   3.509
34257SOL    HW1 4604  10.563   6.526   3.476
34257SOL    HW2 4605  10.651   6.473   3.587
34258SOL     OW 4606  12.422   5.470   6.144
34258SOL    HW1 4607  12.393   5.441   6.057
34258SOL    HW2 4608  12.503   5.518   6.127
34259SOL     OW 4609   7.998   6.905   0.855
34259SOL    HW1 4610   7.972   6.831   0.800
34259SOL    HW2 4611   8.047   6.962   0.797
34260SOL     OW 4612   8.948   7.699  11.137
34260SOL    HW1 4613   8.872   7.745  11.172
34260SOL    HW2 4614   9.022   7.758  11.152
34261SOL     OW 4615   7.205   3.438   5.808
34261SOL    HW1 4616   7.179   3.481   5.889
34261SOL    HW2 4617   7.146   3.475   5.741
34262SOL     OW 4618   6.172  10.031   2.549
34262SOL    HW1 4619   6.233  10.018   2.477
34262SOL    HW2 4620   6.227  10.064   2.621
34263SOL     OW 4621   5.749   8.332   5.268
34263SOL    HW1 4622   5.656   8.329   5.245
34263SOL    HW2 4623   5.785   8.250   5.236
34264SOL     OW 4624  11.273   1.754  11.618
34264SOL    HW1 4625  11.236   1.722  11.536
34264SOL    HW2 4626  11.223   1.709  11.686
34265SOL     OW 4627   1.993   3.516   1.034
34265SOL    HW1 4628   2.065   3.535   1.094
34265SOL    HW2 4629   1.948   3.600   1.024
34266SOL     OW 4630   7.854   6.477   0.519
34266SOL    HW1 4631   7.908   6.423   0.461
34266SOL    HW2 4632   7.768   6.434   0.519
34267SOL     OW 4633   4.639   8.005   6.901
34267SOL    HW1 4634   4.687   8.048   6.829
34267SOL    HW2 4635   4.665   8.053   6.979
34268SOL     OW 4636   0.762   4.530   9.714
34268SOL    HW1 4637   0.723   4.539   9.626
34268SOL    HW2 4638   0.706   4.466   9.758
34269SOL     OW 4639   7.655   2.674   9.384
34269SOL    HW1 4640   7.738   2.665   9.431
34269SOL    HW2 4641   7.590   2.637   9.443
34270SOL     OW 4642  11.685   4.962   1.549
34270SOL    HW1 4643  11.645   4.944   1.464
34270SOL    HW2 4644  11.760   4.903   1.553
34271SOL     OW 4645   0.708   9.619   5.505
34271SOL    HW1 4646   0.680   9.558   5.574
34271SOL    HW2 4647   0.684   9.576   5.424
34272SOL     OW 4648  10.671   4.722  11.258
34272SOL    HW1 4649  10.662   4.807  11.214
34272SOL    HW2 4650  10.763   4.717  11.281
34273SOL     OW 4651  10.976   7.875   9.137
34273SOL    HW1 4652  10.947   7.917   9.055
34273SOL    HW2 4653  10.900   7.881   9.195
34274SOL     OW 4654   0.893   1.548   4.528
34274SOL    HW1 4655   0.966   1.610   4.528
34274SOL    HW2 4656   0.934   1.464   4.550
34275SOL     OW 4657   1.569  11.384  14.737
34275SOL    HW1 4658   1.613  11.456  14.693
34275SOL    HW2 4659   1.639  11.337  14.782
34276SOL     OW 4660   3.811   0.154   1.540
34276SOL    HW1 4661   3.778   0.086   1.598
34276SOL    HW2 4662   3.747   0.159   1.469
34277SOL     OW 4663   5.247  12.042  10.120
34277SOL    HW1 4664   5.256  11.968  10.179
34277SOL    HW2 4665   5.182  12.098  10.161
34278SOL     OW 4666   2.342  13.776   6.412
34278SOL    HW1 4667   2.308  13.810   6.495
34278SOL    HW2 4668   2.316  13.842   6.347
34279SOL     OW 4669   3.168   1.999   6.121
34279SOL    HW1 4670   3.123   2.034   6.043
34279SOL    HW2 4671   3.207   2.076   6.162
34280SOL     OW 4672  10.208  14.665   9.705
34280SOL    HW1 4673  10.292  14.625   9.727
34280SOL    HW2 4674  10.181  14.710   9.785
34281SOL     OW 4675   6.451   8.059  11.445
34281SOL    HW1 4676   6.539   8.038  11.412
34281SOL    HW2 4677   6.412   7.975  11.466
34282SOL     OW 4678   0.160   2.752  12.758
34282SOL    HW1 4679   0.163   2.810  12.682
34282SOL    HW2 4680   0.179   2.665  12.722
34283SOL     OW 4681   7.057   7.937  11.807
34283SOL    HW1 4682   7.112   7.868  11.844
34283SOL    HW2 4683   6.969   7.899  11.806
34284SOL     OW 4684  12.246   1.578   1.521
34284SOL    HW1 4685  12.244   1.671   1.543
34284SOL    HW2 4686  12.157   1.558   1.491
34285SOL     OW 4687   3.851  10.220   0.711
34285SOL    HW1 4688   3.909  10.167   0.656
34285SOL    HW2 4689   3.905  10.248   0.784
34286SOL     OW 4690   5.076   3.426   9.108
34286SOL    HW1 4691   4.982   3.430   9.127
34286SOL    HW2 4692   5.085   3.351   9.050
34287SOL     OW 4693   8.645   7.772   0.443
34287SOL    HW1 4694   8.622   7.746   0.532
34287SOL    HW2 4695   8.561   7.781   0.398
34288SOL     OW 4696   6.174   3.113   2.146
34288SOL    HW1 4697   6.266   3.122   2.120
34288SOL    HW2 4698   6.130   3.081   2.067
34289SOL     OW 4699  11.842   7.643   4.879
34289SOL    HW1 4700  11.862   7.669   4.789
34289SOL    HW2 4701  11.876   7.554   4.886
34290SOL     OW 4702   3.849   6.085   2.354
34290SOL    HW1 4703   3.798   6.040   2.288
34290SOL    HW2 4704   3.934   6.040   2.354
34291SOL     OW 4705  13.745  14.716  10.325
34291SOL    HW1 4706  13.819  14.741  10.271
34291SOL    HW2 4707  13.764  14.626  10.353
34292SOL     OW 4708   0.387  13.484   4.471
34292SOL    HW1 4709   0.378  13.425   4.545
34292SOL    HW2 4710   0.327  13.556   4.489
34293SOL     OW 4711   2.052   9.853   5.563
34293SOL    HW1 4712   2.092   9.868   5.648
34293SOL    HW2 4713   1.958   9.866   5.578
34294SOL     OW 4714   4.963  13.225  14.453
34294SOL    HW1 4715   5.009  13.152  14.411
34294SOL    HW2 4716   4.875  13.192  14.470
34295SOL     OW 4717   1.812   9.816  13.314
34295SOL    HW1 4718   1.897   9.819  13.358
34295SOL    HW2 4719   1.826   9.862  13.231
34296SOL     OW 4720   4.164   2.843   1.858
34296SOL    HW1 4721   4.119   2.800   1.930
34296SOL    HW2 4722   4.174   2.774   1.792
34297SOL     OW 4723   8.421   1.125   9.539
34297SOL    HW1 4724   8.333   1.108   9.574
34297SOL    HW2 4725   8.407   1.189   9.470
34298SOL     OW 4726   3.093   6.449   8.667
34298SOL    HW1 4727   3.077   6.532   8.624
34298SOL    HW2 4728   3.180   6.460   8.708
34299SOL     OW 4729   4.312   6.655   1.096
34299SOL    HW1 4730   4.324   6.629   1.188
34299SOL    HW2 4731   4.394   6.699   1.073
34300SOL     OW 4732  14.080   6.146   6.020
34300SOL    HW1 4733  14.052   6.187   5.938
34300SOL    HW2 4734  13.999   6.131   6.069
34301SOL     OW 4735   7.618   8.890   8.978
34301SOL    HW1 4736   7.678   8.848   8.917
34301SOL    HW2 4737   7.633   8.984   8.966
34302SOL     OW 4738   0.392  12.376  12.225
34302SOL    HW1 4739   0.396  12.305  12.289
34302SOL    HW2 4740   0.404  12.456  12.276
34303SOL     OW 4741   5.606   1.302   2.588
34303SOL    HW1 4742   5.670   1.237   2.559
34303SOL    HW2 4743   5.521   1.259   2.577
34304SOL     OW 4744   4.412   5.058   1.728
34304SOL    HW1 4745   4.505   5.077   1.718
34304SOL    HW2 4746   4.404   4.966   1.700
34305SOL     OW 4747   8.104   0.643  11.266
34305SOL    HW1 4748   8.124   0.639  11.360
34305SOL    HW2 4749   8.134   0.559  11.231
34306SOL     OW 4750   8.968   9.168   5.556
34306SOL    HW1 4751   9.038   9.128   5.608
34306SOL    HW2 4752   8.997   9.159   5.465
34307SOL     OW 4753   6.010   6.330   3.316
34307SOL    HW1 4754   5.977   6.404   3.367
34307SOL    HW2 4755   5.992   6.354   3.225
34308SOL     OW 4756   3.140  13.509  14.675
34308SOL    HW1 4757   3.072  13.445  14.653
34308SOL    HW2 4758   3.173  13.481  14.760
34309SOL     OW 4759  11.560   1.018   3.704
34309SOL    HW1 4760  11.602   1.091   3.750
34309SOL    HW2 4761  11.466   1.033   3.713
34310SOL     OW 4762  12.368   0.160  11.108
34310SOL    HW1 4763  12.281   0.200  11.103
34310SOL    HW2 4764  12.353   0.076  11.150
34311SOL     OW 4765  12.816  14.536  13.733
34311SOL    HW1 4766  12.855  14.461  13.778
34311SOL    HW2 4767  12.883  14.604  13.739
34312SOL     OW 4768   9.102  13.849   8.385
34312SOL    HW1 4769   9.038  13.903   8.431
34312SOL    HW2 4770   9.127  13.782   8.449
34313SOL     OW 4771  14.137   9.646  12.289
34313SOL    HW1 4772  14.103   9.698  12.216
34313SOL    HW2 4773  14.134   9.705  12.364
34314SOL     OW 4774   1.302   4.818   8.147
34314SOL    HW1 4775   1.293   4.893   8.207
34314SOL    HW2 4776   1.330   4.857   8.064
34315SOL     OW 4777   8.389   1.315   4.171
34315SOL    HW1 4778   8.371   1.221   4.181
34315SOL    HW2 4779   8.402   1.327   4.077
34316SOL     OW 4780   9.471   8.103  14.510
34316SOL    HW1 4781   9.384   8.141  14.524
34316SOL    HW2 4782   9.519   8.123  14.590
34317SOL     OW 4783   3.271  14.103   5.049
34317SOL    HW1 4784   3.316  14.036   5.101
34317SOL    HW2 4785   3.235  14.164   5.114
34318SOL     OW 4786  12.904   1.846  11.539
34318SOL    HW1 4787  12.973   1.908  11.558
34318SOL    HW2 4788  12.946   1.760  11.544
34319SOL     OW 4789   8.572   8.901  10.512
34319SOL    HW1 4790   8.484   8.896  10.549
34319SOL    HW2 4791   8.610   8.979  10.551
34320SOL     OW 4792   0.840   9.983   1.558
34320SOL    HW1 4793   0.825   9.905   1.504
34320SOL    HW2 4794   0.758  10.032   1.553
34321SOL     OW 4795   0.142   9.323   0.439
34321SOL    HW1 4796   0.202   9.385   0.479
34321SOL    HW2 4797   0.198   9.265   0.388
34322SOL     OW 4798   9.639  13.664   6.912
34322SOL    HW1 4799   9.559  13.714   6.895
34322SOL    HW2 4800   9.702  13.698   6.849
34323SOL     OW 4801   0.895   1.983  11.999
34323SOL    HW1 4802   0.910   2.077  12.001
34323SOL    HW2 4803   0.977   1.944  12.030
34324SOL     OW 4804   2.291   8.842  13.108
34324SOL    HW1 4805   2.240   8.898  13.167
34324SOL    HW2 4806   2.382   8.855  13.135
34325SOL     OW 4807   4.628   0.268   4.993
34325SOL    HW1 4808   4.635   0.236   4.903
34325SOL    HW2 4809   4.706   0.233   5.037
34326SOL     OW 4810   6.749   5.646   8.632
34326SOL    HW1 4811   6.686   5.588   8.675
34326SOL    HW2 4812   6.698   5.687   8.562
34327SOL     OW 4813   0.074   7.280  13.466
34327SOL    HW1 4814   0.104   7.286  13.556
34327SOL    HW2 4815  14.863   7.312  13.468
34328SOL     OW 4816  12.435   2.014  12.109
34328SOL    HW1 4817  12.485   2.010  12.027
34328SOL    HW2 4818  12.345   2.027  12.081
34329SOL     OW 4819  10.590  10.746   9.109
34329SOL    HW1 4820  10.584  10.838   9.136
34329SOL    HW2 4821  10.628  10.701   9.184
34330SOL     OW 4822   1.197   4.183   5.020
34330SOL    HW1 4823   1.150   4.264   4.997
34330SOL    HW2 4824   1.235   4.154   4.937
34331SOL     OW 4825   2.920   6.036   8.852
34331SOL    HW1 4826   2.901   6.013   8.761
34331SOL    HW2 4827   2.834   6.037   8.894
34332SOL     OW 4828   1.673   6.398   4.831
34332SOL    HW1 4829   1.577   6.398   4.823
34332SOL    HW2 4830   1.689   6.374   4.922
34333SOL     OW 4831   1.398   7.521   6.521
34333SOL    HW1 4832   1.399   7.548   6.613
34333SOL    HW2 4833   1.480   7.471   6.510
34334SOL     OW 4834   2.756  10.020   0.772
34334SOL    HW1 4835   2.840   9.978   0.755
34334SOL    HW2 4836   2.697   9.949   0.797
34335SOL     OW 4837   2.476   0.206  13.454
34335SOL    HW1 4838   2.450   0.281  13.508
34335SOL    HW2 4839   2.472   0.132  13.514
34336SOL     OW 4840  10.357   5.399  14.794
34336SOL    HW1 4841  10.315   5.394   0.001
34336SOL    HW2 4842  10.437   5.448  14.809
34337SOL     OW 4843   3.150  10.244   0.977
34337SOL    HW1 4844   3.239  10.219   1.000
34337SOL    HW2 4845   3.097  10.166   0.995
34338SOL     OW 4846  11.533  10.435   2.224
34338SOL    HW1 4847  11.505  10.354   2.181
34338SOL    HW2 4848  11.542  10.411   2.316
34339SOL     OW 4849   5.107   0.355   7.182
34339SOL    HW1 4850   5.169   0.322   7.247
34339SOL    HW2 4851   5.136   0.316   7.099
34340SOL     OW 4852   7.492  11.342  14.282
34340SOL    HW1 4853   7.432  11.278  14.323
34340SOL    HW2 4854   7.510  11.405  14.352
34341SOL     OW 4855   7.538   1.697  11.231
34341SOL    HW1 4856   7.515   1.604  11.221
34341SOL    HW2 4857   7.494   1.741  11.158
34342SOL     OW 4858  13.447  12.926   5.336
34342SOL    HW1 4859  13.505  12.995   5.303
34342SOL    HW2 4860  13.503  12.848   5.340
34343SOL     OW 4861  12.497  14.565   8.947
34343SOL    HW1 4862  12.569  14.617   8.911
34343SOL    HW2 4863  12.458  14.521   8.871
34344SOL     OW 4864   2.477  12.189  11.857
34344SOL    HW1 4865   2.467  12.155  11.768
34344SOL    HW2 4866   2.491  12.283  11.845
34345SOL     OW 4867   8.271   7.745  14.515
34345SOL    HW1 4868   8.244   7.660  14.551
34345SOL    HW2 4869   8.191   7.779  14.474
34346SOL     OW 4870   0.372  12.600  14.745
34346SOL    HW1 4871   0.381  12.643  14.660
34346SOL    HW2 4872   0.458  12.612  14.787
34347SOL     OW 4873   9.478  14.739  12.682
34347SOL    HW1 4874   9.534  14.661  12.680
34347SOL    HW2 4875   9.430  14.736  12.599
34348SOL     OW 4876   3.988  14.053  14.415
34348SOL    HW1 4877   4.046  14.123  14.446
34348SOL    HW2 4878   3.925  14.043  14.486
34349SOL     OW 4879  13.994  12.072   4.827
34349SOL    HW1 4880  13.955  12.124   4.897
34349SOL    HW2 4881  13.919  12.041   4.776
34350SOL     OW 4882   1.419   3.631   7.106
34350SOL    HW1 4883   1.431   3.709   7.051
34350SOL    HW2 4884   1.325   3.627   7.122
34351SOL     OW 4885   5.555  14.276   6.443
34351SOL    HW1 4886   5.502  14.250   6.518
34351SOL    HW2 4887   5.597  14.357   6.471
34352SOL     OW 4888   0.202   6.083  12.067
34352SOL    HW1 4889   0.263   6.144  12.026
34352SOL    HW2 4890   0.122   6.091  12.015
34353SOL     OW 4891  11.644  12.698  12.116
34353SOL    HW1 4892  11.720  12.743  12.079
34353SOL    HW2 4893  11.570  12.732  12.066
34354SOL     OW 4894   2.992   6.188  10.180
34354SOL    HW1 4895   3.011   6.105  10.224
34354SOL    HW2 4896   2.952   6.162  10.097
34355SOL     OW 4897   9.411  13.727   2.920
34355SOL    HW1 4898   9.354  13.799   2.893
34355SOL    HW2 4899   9.498  13.766   2.926
34356SOL     OW 4900  11.552   3.875  12.949
34356SOL    HW1 4901  11.555   3.953  12.893
34356SOL    HW2 4902  11.603   3.898  13.026
34357SOL     OW 4903  12.374   6.880   4.931
34357SOL    HW1 4904  12.299   6.836   4.891
34357SOL    HW2 4905  12.383   6.961   4.881
34358SOL     OW 4906   7.069   2.692  11.091
34358SOL    HW1 4907   7.105   2.770  11.049
34358SOL    HW2 4908   7.039   2.637  11.019
34359SOL     OW 4909  11.471   0.316  10.462
34359SOL    HW1 4910  11.550   0.360  10.431
34359SOL    HW2 4911  11.415   0.309  10.384
34360SOL     OW 4912  11.085   7.517   4.338
34360SOL    HW1 4913  11.009   7.556   4.294
34360SOL    HW2 4914  11.137   7.591   4.366
34361SOL     OW 4915   1.009   6.632  13.469
34361SOL    HW1 4916   1.055   6.558  13.430
34361SOL    HW2 4917   0.948   6.662  13.402
34362SOL     OW 4918   0.600   1.659  12.827
34362SOL    HW1 4919   0.566   1.611  12.903
34362SOL    HW2 4920   0.688   1.685  12.853
34363SOL     OW 4921   6.571   2.336   1.103
34363SOL    HW1 4922   6.557   2.382   1.020
34363SOL    HW2 4923   6.512   2.379   1.165
34364SOL     OW 4924   1.742   1.205   4.403
34364SOL    HW1 4925   1.793   1.190   4.483
34364SOL    HW2 4926   1.774   1.140   4.341
34365SOL     OW 4927   4.739   1.361  10.180
34365SOL    HW1 4928   4.679   1.429  10.211
34365SOL    HW2 4929   4.736   1.368  10.085
34366SOL     OW 4930   5.092   6.435   1.625
34366SOL    HW1 4931   5.169   6.491   1.638
34366SOL    HW2 4932   5.128   6.351   1.596
34367SOL     OW 4933  14.699  11.080   2.312
34367SOL    HW1 4934  14.698  11.112   2.222
34367SOL    HW2 4935  14.784  11.036   2.321
34368SOL     OW 4936   0.970   5.209   3.443
34368SOL    HW1 4937   1.026   5.247   3.375
34368SOL    HW2 4938   1.013   5.233   3.525
34369SOL     OW 4939   7.494   1.238   8.367
34369SOL    HW1 4940   7.505   1.331   8.346
34369SOL    HW2 4941   7.421   1.237   8.429
34370SOL     OW 4942   4.406   9.968   7.087
34370SOL    HW1 4943   4.418   9.892   7.144
34370SOL    HW2 4944   4.474   9.959   7.020
34371SOL     OW 4945   2.763   6.290   2.407
34371SOL    HW1 4946   2.703   6.284   2.333
34371SOL    HW2 4947   2.844   6.248   2.375
34372SOL     OW 4948   1.343   0.170   7.711
34372SOL    HW1 4949   1.310   0.080   7.721
34372SOL    HW2 4950   1.319   0.194   7.622
34373SOL     OW 4951  11.112   2.206   4.334
34373SOL    HW1 4952  11.134   2.174   4.422
34373SOL    HW2 4953  11.086   2.127   4.286
34374SOL     OW 4954   4.317  14.358   9.403
34374SOL    HW1 4955   4.354  14.311   9.328
34374SOL    HW2 4956   4.379  14.342   9.474
34375SOL     OW 4957   5.275   0.299   3.613
34375SOL    HW1 4958   5.233   0.226   3.657
34375SOL    HW2 4959   5.302   0.265   3.528
34376SOL     OW 4960   5.026  12.812  13.463
34376SOL    HW1 4961   5.040  12.804  13.557
34376SOL    HW2 4962   4.947  12.867  13.455
34377SOL     OW 4963  13.051   8.980  11.352
34377SOL    HW1 4964  12.999   9.002  11.429
34377SOL    HW2 4965  13.128   8.936  11.386
34378SOL     OW 4966   8.454   3.018  14.754
34378SOL    HW1 4967   8.548   3.021  14.740
34378SOL    HW2 4968   8.443   2.960  14.830
34379SOL     OW 4969   2.867   4.942   5.568
34379SOL    HW1 4970   2.783   4.965   5.527
34379SOL    HW2 4971   2.912   5.026   5.578
34380SOL     OW 4972   3.716  13.740   9.424
34380SOL    HW1 4973   3.664  13.774   9.497
34380SOL    HW2 4974   3.790  13.695   9.465
34381SOL     OW 4975  10.621   7.110  13.392
34381SOL    HW1 4976  10.631   7.082  13.483
34381SOL    HW2 4977  10.528   7.098  13.374
34382SOL     OW 4978   8.196  11.857   6.344
34382SOL    HW1 4979   8.243  11.821   6.269
34382SOL    HW2 4980   8.252  11.929   6.375
34383SOL     OW 4981   1.855   3.592  13.579
34383SOL    HW1 4982   1.858   3.670  13.524
34383SOL    HW2 4983   1.762   3.572  13.588
34384SOL     OW 4984   4.580   9.657   1.003
34384SOL    HW1 4985   4.502   9.619   0.963
34384SOL    HW2 4986   4.575   9.750   0.982
34385SOL     OW 4987   8.928   0.867   9.894
34385SOL    HW1 4988   8.918   0.890   9.987
34385SOL    HW2 4989   8.927   0.771   9.894
34386SOL     OW 4990  14.422   5.916  12.490
34386SOL    HW1 4991  14.460   5.862  12.559
34386SOL    HW2 4992  14.375   5.985  12.536
34387SOL     OW 4993   4.547   4.697   9.527
34387SOL    HW1 4994   4.632   4.668   9.560
34387SOL    HW2 4995   4.483   4.660   9.588
34388SOL     OW 4996  13.639   4.378   3.630
34388SOL    HW1 4997  13.666   4.333   3.710
34388SOL    HW2 4998  13.631   4.308   3.565
34389SOL     OW 4999   3.951   0.127   9.150
34389SOL    HW1 5000   3.964   0.165   9.063
34389SOL    HW2 5001   3.921   0.038   9.132
34390SOL     OW 5002  13.565  12.722  11.541
34390SOL    HW1 5003  13.574  12.669  11.461
34390SOL    HW2 5004  13.561  12.658  11.612
34391SOL     OW 5005   4.676   0.100   2.743
34391SOL    HW1 5006   4.643   0.117   2.655
34391SOL    HW2 5007   4.598   0.100   2.799
34392SOL     OW 5008  12.274   8.935   1.219
34392SOL    HW1 5009  12.246   8.870   1.284
34392SOL    HW2 5010  12.272   8.888   1.136
34393SOL     OW 5011  12.990   6.512   3.010
34393SOL    HW1 5012  13.041   6.457   3.069
34393SOL    HW2 5013  13.014   6.602   3.034
34394SOL     OW 5014   4.247   0.350   0.200
34394SOL    HW1 5015   4.270   0.375   0.290
34394SOL    HW2 5016   4.152   0.364   0.196
34395SOL     OW 5017  13.817   0.279  10.683
34395SOL    HW1 5018  13.880   0.351  10.677
34395SOL    HW2 5019  13.866   0.202  10.657
34396SOL     OW 5020   7.428   4.526   1.479
34396SOL    HW1 5021   7.480   4.513   1.558
34396SOL    HW2 5022   7.455   4.611   1.445
34397SOL     OW 5023  10.145   1.401   9.979
34397SOL    HW1 5024  10.222   1.406  10.037
34397SOL    HW2 5025  10.120   1.309   9.980
34398SOL     OW 5026   3.872  11.213   7.377
34398SOL    HW1 5027   3.954  11.174   7.409
34398SOL    HW2 5028   3.899  11.294   7.335
34399SOL     OW 5029   6.919   6.340  12.163
34399SOL    HW1 5030   6.997   6.312  12.210
34399SOL    HW2 5031   6.849   6.335  12.228
34400SOL     OW 5032   9.645  12.713   0.641
34400SOL    HW1 5033   9.732  12.743   0.611
34400SOL    HW2 5034   9.660  12.677   0.728
34401SOL     OW 5035  10.538  12.137   2.993
34401SOL    HW1 5036  10.475  12.121   3.063
34401SOL    HW2 5037  10.489  12.189   2.929
34402SOL     OW 5038  11.716  11.623   1.976
34402SOL    HW1 5039  11.736  11.560   1.907
34402SOL    HW2 5040  11.638  11.668   1.945
34403SOL     OW 5041  13.017   2.562   5.792
34403SOL    HW1 5042  13.017   2.656   5.808
34403SOL    HW2 5043  12.936   2.531   5.833
34404SOL     OW 5044  11.193   5.337   7.747
34404SOL    HW1 5045  11.251   5.412   7.742
34404SOL    HW2 5046  11.107   5.375   7.769
34405SOL     OW 5047   3.115   5.642   9.489
34405SOL    HW1 5048   3.181   5.691   9.539
34405SOL    HW2 5049   3.106   5.690   9.407
34406SOL     OW 5050   0.793   6.753  12.446
34406SOL    HW1 5051   0.701   6.769  12.424
34406SOL    HW2 5052   0.834   6.839  12.440
34407SOL     OW 5053  14.005   5.074   8.910
34407SOL    HW1 5054  14.045   4.988   8.925
34407SOL    HW2 5055  13.920   5.054   8.871
34408SOL     OW 5056   9.107   1.512   2.105
34408SOL    HW1 5057   9.114   1.422   2.074
34408SOL    HW2 5058   9.074   1.561   2.030
34409SOL     OW 5059  14.580  13.833  11.888
34409SOL    HW1 5060  14.492  13.800  11.906
34409SOL    HW2 5061  14.597  13.808  11.797
34410SOL     OW 5062  13.135  12.896  14.657
34410SOL    HW1 5063  13.099  12.967  14.604
34410SOL    HW2 5064  13.106  12.816  14.613
34411SOL     OW 5065  14.462   5.756   0.613
34411SOL    HW1 5066  14.447   5.822   0.546
34411SOL    HW2 5067  14.463   5.804   0.695
34412SOL     OW 5068  14.351  13.657   3.996
34412SOL    HW1 5069  14.358  13.724   4.065
34412SOL    HW2 5070  14.389  13.699   3.919
34413SOL     OW 5071   4.122   6.450   4.905
34413SOL    HW1 5072   4.169   6.382   4.855
34413SOL    HW2 5073   4.154   6.532   4.869
34414SOL     OW 5074  14.400   8.922   9.468
34414SOL    HW1 5075  14.404   8.927   9.372
34414SOL    HW2 5076  14.475   8.868   9.492
34415SOL     OW 5077   8.064   2.616   4.418
34415SOL    HW1 5078   7.970   2.625   4.401
34415SOL    HW2 5079   8.089   2.536   4.370
34416SOL     OW 5080   2.930   3.725  10.435
34416SOL    HW1 5081   2.883   3.724  10.519
34416SOL    HW2 5082   2.868   3.764  10.373
34417SOL     OW 5083  10.884  14.614  11.426
34417SOL    HW1 5084  10.967  14.607  11.472
34417SOL    HW2 5085  10.906  14.603  11.333
34418SOL     OW 5086   4.126   9.728   1.939
34418SOL    HW1 5087   4.140   9.774   2.021
34418SOL    HW2 5088   4.056   9.776   1.895
34419SOL     OW 5089   3.929   9.024   6.254
34419SOL    HW1 5090   4.009   8.972   6.248
34419SOL    HW2 5091   3.958   9.114   6.247
34420SOL     OW 5092   4.447   8.889   2.099
34420SOL    HW1 5093   4.404   8.828   2.039
34420SOL    HW2 5094   4.434   8.975   2.060
34421SOL     OW 5095  10.207   2.481  14.681
34421SOL    HW1 5096  10.241   2.569  14.664
34421SOL    HW2 5097  10.153   2.492  14.760
34422SOL     OW 5098   8.541  11.538   6.621
34422SOL    HW1 5099   8.543  11.460   6.675
34422SOL    HW2 5100   8.607  11.596   6.660
34423SOL     OW 5101   7.880  12.945   9.807
34423SOL    HW1 5102   7.786  12.962   9.809
34423SOL    HW2 5103   7.889  12.867   9.752
34424SOL     OW 5104  13.322   7.432   2.722
34424SOL    HW1 5105  13.302   7.501   2.659
34424SOL    HW2 5106  13.313   7.350   2.672
34425SOL     OW 5107   2.659   9.529  12.216
34425SOL    HW1 5108   2.607   9.516  12.296
34425SOL    HW2 5109   2.731   9.586  12.244
34426SOL     OW 5110   8.376   7.523   4.820
34426SOL    HW1 5111   8.307   7.531   4.755
34426SOL    HW2 5112   8.331   7.496   4.900
34427SOL     OW 5113   1.103   6.395  13.731
34427SOL    HW1 5114   1.079   6.440  13.812
34427SOL    HW2 5115   1.026   6.404  13.675
34428SOL     OW 5116  10.639   2.706  10.609
34428SOL    HW1 5117  10.672   2.626  10.569
34428SOL    HW2 5118  10.544   2.700  10.600
34429SOL     OW 5119   0.205   8.098  10.786
34429SOL    HW1 5120   0.187   8.138  10.870
34429SOL    HW2 5121   0.274   8.151  10.747
34430SOL     OW 5122  11.912   5.767  11.648
34430SOL    HW1 5123  11.884   5.827  11.717
34430SOL    HW2 5124  11.922   5.683  11.691
34431SOL     OW 5125   7.744   5.268  12.028
34431SOL    HW1 5126   7.703   5.196  11.980
34431SOL    HW2 5127   7.711   5.260  12.118
34432SOL     OW 5128  11.696  11.167   3.343
34432SOL    HW1 5129  11.756  11.240   3.328
34432SOL    HW2 5130  11.721  11.132   3.429
34433SOL     OW 5131   1.316   2.170   4.135
34433SOL    HW1 5132   1.244   2.167   4.198
34433SOL    HW2 5133   1.274   2.156   4.050
34434SOL     OW 5134   1.240   9.735  13.813
34434SOL    HW1 5135   1.159   9.719  13.764
34434SOL    HW2 5136   1.309   9.722  13.748
34435SOL     OW 5137   2.599   4.566   7.628
34435SOL    HW1 5138   2.604   4.653   7.588
34435SOL    HW2 5139   2.595   4.506   7.553
34436SOL     OW 5140   2.567  13.206   8.929
34436SOL    HW1 5141   2.501  13.160   8.981
34436SOL    HW2 5142   2.604  13.139   8.873
34437SOL     OW 5143   6.441  12.087   4.214
34437SOL    HW1 5144   6.486  12.140   4.280
34437SOL    HW2 5145   6.363  12.054   4.258
34438SOL     OW 5146  10.919   5.738  11.377
34438SOL    HW1 5147  10.861   5.764  11.305
34438SOL    HW2 5148  10.991   5.693  11.333
34439SOL     OW 5149   1.410   2.967   0.414
34439SOL    HW1 5150   1.465   3.045   0.417
34439SOL    HW2 5151   1.381   2.961   0.323
34440SOL     OW 5152   4.349   1.318   5.092
34440SOL    HW1 5153   4.372   1.404   5.127
34440SOL    HW2 5154   4.257   1.306   5.115
34441SOL     OW 5155   3.897   5.004   5.834
34441SOL    HW1 5156   3.856   5.055   5.904
34441SOL    HW2 5157   3.834   5.006   5.763
34442SOL     OW 5158   7.386   7.448   4.757
34442SOL    HW1 5159   7.462   7.471   4.704
34442SOL    HW2 5160   7.311   7.483   4.708
34443SOL     OW 5161   6.601   4.905   9.788
34443SOL    HW1 5162   6.600   4.884   9.882
34443SOL    HW2 5163   6.536   4.847   9.750
34444SOL     OW 5164   8.315  10.735   5.280
34444SOL    HW1 5165   8.250  10.753   5.347
34444SOL    HW2 5166   8.267  10.743   5.197
34445SOL     OW 5167   5.288  12.701   9.668
34445SOL    HW1 5168   5.353  12.645   9.626
34445SOL    HW2 5169   5.327  12.788   9.667
34446SOL     OW 5170   3.408  10.528   5.026
34446SOL    HW1 5171   3.363  10.587   4.966
34446SOL    HW2 5172   3.439  10.456   4.971
34447SOL     OW 5173   8.134   0.386  13.157
34447SOL    HW1 5174   8.060   0.338  13.193
34447SOL    HW2 5175   8.191   0.403  13.232
34448SOL     OW 5176  11.500   4.744   1.076
34448SOL    HW1 5177  11.435   4.776   1.014
34448SOL    HW2 5178  11.449   4.696   1.142
34449SOL     OW 5179   5.126   7.162   5.019
34449SOL    HW1 5180   5.111   7.118   4.936
34449SOL    HW2 5181   5.189   7.107   5.065
34450SOL     OW 5182  10.759  14.175   7.172
34450SOL    HW1 5183  10.728  14.151   7.259
34450SOL    HW2 5184  10.830  14.113   7.153
34451SOL     OW 5185  11.662  14.475   7.134
34451SOL    HW1 5186  11.727  14.408   7.114
34451SOL    HW2 5187  11.620  14.445   7.214
34452SOL     OW 5188   0.950   8.945  11.746
34452SOL    HW1 5189   0.931   9.010  11.678
34452SOL    HW2 5190   0.889   8.966  11.816
34453SOL     OW 5191   6.015   3.718   5.297
34453SOL    HW1 5192   6.036   3.643   5.352
34453SOL    HW2 5193   5.951   3.768   5.348
34454SOL     OW 5194   0.119  12.102  14.413
34454SOL    HW1 5195   0.155  12.171  14.469
34454SOL    HW2 5196   0.031  12.087  14.448
34455SOL     OW 5197   1.373   8.941   6.090
34455SOL    HW1 5198   1.347   8.859   6.132
34455SOL    HW2 5199   1.320   9.008   6.134
34456SOL     OW 5200  14.573   3.461   9.242
34456SOL    HW1 5201  14.622   3.543   9.241
34456SOL    HW2 5202  14.551   3.445   9.151
34457SOL     OW 5203  10.310   6.844   2.977
34457SOL    HW1 5204  10.378   6.868   3.039
34457SOL    HW2 5205  10.350   6.859   2.891
34458SOL     OW 5206   6.681  10.793   8.154
34458SOL    HW1 5207   6.635  10.718   8.191
34458SOL    HW2 5208   6.637  10.809   8.070
34459SOL     OW 5209   3.760  13.927   5.836
34459SOL    HW1 5210   3.839  13.907   5.886
34459SOL    HW2 5211   3.738  13.844   5.793
34460SOL     OW 5212   1.772  11.213  13.063
34460SOL    HW1 5213   1.862  11.226  13.091
34460SOL    HW2 5214   1.719  11.248  13.134
34461SOL     OW 5215  12.374   8.422   1.948
34461SOL    HW1 5216  12.421   8.353   1.901
34461SOL    HW2 5217  12.299   8.377   1.987
34462SOL     OW 5218   7.497   7.304   9.423
34462SOL    HW1 5219   7.436   7.378   9.419
34462SOL    HW2 5220   7.580   7.339   9.392
34463SOL     OW 5221  12.396  12.326  13.613
34463SOL    HW1 5222  12.446  12.306  13.692
34463SOL    HW2 5223  12.349  12.246  13.593
34464SOL     OW 5224  14.742   2.212   8.718
34464SOL    HW1 5225  14.800   2.238   8.789
34464SOL    HW2 5226  14.664   2.177   8.761
34465SOL     OW 5227  11.265  14.669   8.939
34465SOL    HW1 5228  11.185  14.618   8.951
34465SOL    HW2 5229  11.239  14.760   8.956
34466SOL     OW 5230   0.229   8.744  11.132
34466SOL    HW1 5231   0.248   8.686  11.206
34466SOL    HW2 5232   0.312   8.754  11.087
34467SOL     OW 5233   2.336   7.313   4.528
34467SOL    HW1 5234   2.417   7.309   4.477
34467SOL    HW2 5235   2.328   7.226   4.567
34468SOL     OW 5236  10.875   3.783  14.064
34468SOL    HW1 5237  10.956   3.776  14.014
34468SOL    HW2 5238  10.897   3.744  14.149
34469SOL     OW 5239   2.089   7.744  11.713
34469SOL    HW1 5240   2.012   7.729  11.659
34469SOL    HW2 5241   2.065   7.710  11.799
34470SOL     OW 5242   5.955   5.116   6.581
34470SOL    HW1 5243   5.872   5.116   6.534
34470SOL    HW2 5244   5.934   5.085   6.669
34471SOL     OW 5245   4.733   0.316   4.291
34471SOL    HW1 5246   4.741   0.301   4.196
34471SOL    HW2 5247   4.774   0.239   4.330
34472SOL     OW 5248   0.855  14.341   5.160
34472SOL    HW1 5249   0.943  14.377   5.150
34472SOL    HW2 5250   0.869  14.250   5.188
34473SOL     OW 5251  11.533   0.945   8.887
34473SOL    HW1 5252  11.578   0.882   8.831
34473SOL    HW2 5253  11.477   0.891   8.943
34474SOL     OW 5254   0.969  10.309  10.959
34474SOL    HW1 5255   1.037  10.243  10.951
34474SOL    HW2 5256   0.904  10.286  10.892
34475SOL     OW 5257   8.662   5.356   7.001
34475SOL    HW1 5258   8.577   5.325   7.031
34475SOL    HW2 5259   8.643   5.420   6.933
34476SOL     OW 5260   6.577  12.145   0.849
34476SOL    HW1 5261   6.666  12.119   0.874
34476SOL    HW2 5262   6.568  12.235   0.881
34477SOL     OW 5263   6.357   2.247   4.074
34477SOL    HW1 5264   6.422   2.229   4.143
34477SOL    HW2 5265   6.279   2.274   4.122
34478SOL     OW 5266  14.774  11.105   5.175
34478SOL    HW1 5267  14.736  11.088   5.261
34478SOL    HW2 5268  14.807  11.194   5.180
34479SOL     OW 5269   8.499  11.772   9.713
34479SOL    HW1 5270   8.568  11.745   9.652
34479SOL    HW2 5271   8.516  11.722   9.793
34480SOL     OW 5272  10.965  13.069   7.756
34480SOL    HW1 5273  10.909  13.132   7.801
34480SOL    HW2 5274  11.028  13.123   7.708
34481SOL     OW 5275   2.783   0.810  13.569
34481SOL    HW1 5276   2.778   0.728  13.520
34481SOL    HW2 5277   2.694   0.824  13.601
34482SOL     OW 5278   9.366   3.215   7.158
34482SOL    HW1 5279   9.345   3.256   7.242
34482SOL    HW2 5280   9.336   3.277   7.092
34483SOL     OW 5281   3.933   7.729   1.009
34483SOL    HW1 5282   3.853   7.694   0.970
34483SOL    HW2 5283   3.910   7.818   1.035
34484SOL     OW 5284   8.446  14.478   5.529
34484SOL    HW1 5285   8.516  14.543   5.520
34484SOL    HW2 5286   8.368  14.520   5.493
34485SOL     OW 5287   9.219   4.196   7.761
34485SOL    HW1 5288   9.191   4.134   7.694
34485SOL    HW2 5289   9.142   4.208   7.817
34486SOL     OW 5290  14.124   0.580   2.371
34486SOL    HW1 5291  14.096   0.510   2.429
34486SOL    HW2 5292  14.082   0.659   2.406
34487SOL     OW 5293  12.596   0.961   9.096
34487SOL    HW1 5294  12.573   0.985   9.185
34487SOL    HW2 5295  12.629   1.042   9.057
34488SOL     OW 5296   2.546   7.970  13.664
34488SOL    HW1 5297   2.589   7.967  13.749
34488SOL    HW2 5298   2.462   7.926  13.678
34489SOL     OW 5299   1.817   5.383   8.855
34489SOL    HW1 5300   1.900   5.344   8.827
34489SOL    HW2 5301   1.751   5.318   8.831
34490SOL     OW 5302   5.016  10.229   9.668
34490SOL    HW1 5303   5.058  10.143   9.665
34490SOL    HW2 5304   5.089  10.292   9.670
34491SOL     OW 5305   8.475   9.902   4.357
34491SOL    HW1 5306   8.452   9.842   4.286
34491SOL    HW2 5307   8.391   9.929   4.394
34492SOL     OW 5308  10.690   7.765   0.445
34492SOL    HW1 5309  10.730   7.817   0.514
34492SOL    HW2 5310  10.697   7.675   0.476
34493SOL     OW 5311  11.099  11.861   8.559
34493SOL    HW1 5312  11.141  11.822   8.483
34493SOL    HW2 5313  11.044  11.931   8.524
34494SOL     OW 5314   3.245   2.799   5.116
34494SOL    HW1 5315   3.162   2.751   5.117
34494SOL    HW2 5316   3.259   2.824   5.208
34495SOL     OW 5317   1.166  12.669  13.347
34495SOL    HW1 5318   1.177  12.593  13.404
34495SOL    HW2 5319   1.254  12.689  13.316
34496SOL     OW 5320   7.531  10.349  11.461
34496SOL    HW1 5321   7.471  10.329  11.533
34496SOL    HW2 5322   7.505  10.290  11.390
34497SOL     OW 5323   6.156   1.584   5.251
34497SOL    HW1 5324   6.063   1.592   5.230
34497SOL    HW2 5325   6.191   1.530   5.180
34498SOL     OW 5326   8.209   9.380  10.085
34498SOL    HW1 5327   8.262   9.374  10.006
34498SOL    HW2 5328   8.269   9.412  10.153
34499SOL     OW 5329   3.762   0.174  11.149
34499SOL    HW1 5330   3.755   0.218  11.064
34499SOL    HW2 5331   3.771   0.081  11.127
34500SOL     OW 5332  14.663  14.104   2.558
34500SOL    HW1 5333  14.655  14.060   2.643
34500SOL    HW2 5334  14.611  14.184   2.567
34501SOL     OW 5335   4.940   1.970  13.052
34501SOL    HW1 5336   4.940   1.941  13.143
34501SOL    HW2 5337   4.989   2.052  13.053
34502SOL     OW 5338   1.860  12.253  13.244
34502SOL    HW1 5339   1.829  12.269  13.155
34502SOL    HW2 5340   1.927  12.185  13.234
34503SOL     OW 5341   3.086   1.430   3.888
34503SOL    HW1 5342   3.043   1.348   3.910
34503SOL    HW2 5343   3.073   1.439   3.793
34504SOL     OW 5344   1.965  13.990   9.558
34504SOL    HW1 5345   1.967  14.081   9.528
34504SOL    HW2 5346   2.025  13.988   9.633
34505SOL     OW 5347   4.850  14.251   5.759
34505SOL    HW1 5348   4.944  14.241   5.775
34505SOL    HW2 5349   4.829  14.183   5.695
34506SOL     OW 5350  14.792   9.479   7.921
34506SOL    HW1 5351  14.791   9.573   7.902
34506SOL    HW2 5352  14.719   9.465   7.980
34507SOL     OW 5353   2.804  12.023   5.680
34507SOL    HW1 5354   2.723  12.039   5.728
34507SOL    HW2 5355   2.856  12.103   5.692
34508SOL     OW 5356   7.287   2.310   2.305
34508SOL    HW1 5357   7.309   2.265   2.387
34508SOL    HW2 5358   7.208   2.359   2.327
34509SOL     OW 5359   9.654  12.612   6.820
34509SOL    HW1 5360   9.589  12.660   6.872
34509SOL    HW2 5361   9.614  12.604   6.734
34510SOL     OW 5362  13.375   2.006   7.862
34510SOL    HW1 5363  13.454   2.042   7.902
34510SOL    HW2 5364  13.358   2.064   7.787
34511SOL     OW 5365  14.436   4.607   1.937
34511SOL    HW1 5366  14.384   4.678   1.974
34511SOL    HW2 5367  14.524   4.644   1.929
34512SOL     OW 5368  10.005   2.308   9.227
34512SOL    HW1 5369  10.085   2.284   9.272
34512SOL    HW2 5370  10.034   2.337   9.140
34513SOL     OW 5371   2.258   2.564  13.130
34513SOL    HW1 5372   2.321   2.634  13.116
34513SOL    HW2 5373   2.184   2.607  13.173
34514SOL     OW 5374  14.636   8.612  12.301
34514SOL    HW1 5375  14.627   8.528  12.257
34514SOL    HW2 5376  14.605   8.676  12.237
34515SOL     OW 5377  14.770   0.955   0.554
34515SOL    HW1 5378  14.710   0.912   0.615
34515SOL    HW2 5379  14.849   0.972   0.605
34516SOL     OW 5380   6.730   5.389   1.351
34516SOL    HW1 5381   6.643   5.399   1.389
34516SOL    HW2 5382   6.789   5.424   1.417
34517SOL     OW 5383  11.671   1.389  12.856
34517SOL    HW1 5384  11.585   1.428  12.871
34517SOL    HW2 5385  11.688   1.336  12.934
34518SOL     OW 5386   9.704   1.583   0.089
34518SOL    HW1 5387   9.692   1.567   0.182
34518SOL    HW2 5388   9.621   1.556   0.049
34519SOL     OW 5389  14.135   3.178   0.261
34519SOL    HW1 5390  14.169   3.137   0.181
34519SOL    HW2 5391  14.064   3.121   0.289
34520SOL     OW 5392  11.895  12.105  11.407
34520SOL    HW1 5393  11.967  12.069  11.354
34520SOL    HW2 5394  11.832  12.136  11.342
34521SOL     OW 5395   5.664  12.048  11.269
34521SOL    HW1 5396   5.604  11.988  11.313
34521SOL    HW2 5397   5.706  12.095  11.341
34522SOL     OW 5398  13.094   8.963   8.839
34522SOL    HW1 5399  13.150   8.960   8.762
34522SOL    HW2 5400  13.005   8.969   8.805
34523SOL     OW 5401   3.557   7.448   8.403
34523SOL    HW1 5402   3.487   7.393   8.369
34523SOL    HW2 5403   3.635   7.391   8.401
34524SOL     OW 5404   1.973  14.130   0.343
34524SOL    HW1 5405   2.044  14.161   0.399
34524SOL    HW2 5406   1.897  14.123   0.400
34525SOL     OW 5407   3.090   5.142   0.069
34525SOL    HW1 5408   3.034   5.159  14.872
34525SOL    HW2 5409   3.075   5.049   0.089
34526SOL     OW 5410   7.440  13.872   3.411
34526SOL    HW1 5411   7.364  13.829   3.451
34526SOL    HW2 5412   7.420  13.965   3.414
34527SOL     OW 5413   7.200   7.996   5.362
34527SOL    HW1 5414   7.160   7.977   5.277
34527SOL    HW2 5415   7.138   7.962   5.426
34528SOL     OW 5416   8.339   3.193  10.594
34528SOL    HW1 5417   8.266   3.137  10.623
34528SOL    HW2 5418   8.389   3.139  10.533
34529SOL     OW 5419  14.081   0.605   4.236
34529SOL    HW1 5420  14.048   0.546   4.303
34529SOL    HW2 5421  14.012   0.671   4.226
34530SOL     OW 5422   5.722   0.042   2.365
34530SOL    HW1 5423   5.627   0.057   2.360
34530SOL    HW2 5424   5.737  14.846   2.308
34531SOL     OW 5425   7.634  14.741  14.231
34531SOL    HW1 5426   7.687  14.757  14.153
34531SOL    HW2 5427   7.646  14.648  14.250
34532SOL     OW 5428   5.493  13.881   6.166
34532SOL    HW1 5429   5.528  13.938   6.098
34532SOL    HW2 5430   5.542  13.800   6.157
34533SOL     OW 5431   6.246   5.740  11.587
34533SOL    HW1 5432   6.265   5.798  11.661
34533SOL    HW2 5433   6.152   5.724  11.594
34534SOL     OW 5434  11.102  13.229  14.102
34534SOL    HW1 5435  11.062  13.248  14.017
34534SOL    HW2 5436  11.030  13.193  14.155
34535SOL     OW 5437   9.112   1.089  14.279
34535SOL    HW1 5438   9.108   1.136  14.362
34535SOL    HW2 5439   9.201   1.103  14.247
34536SOL     OW 5440   0.126   7.735   0.303
34536SOL    HW1 5441   0.102   7.649   0.339
34536SOL    HW2 5442   0.112   7.796   0.375
34537SOL     OW 5443   8.170   2.170  13.333
34537SOL    HW1 5444   8.179   2.264  13.319
34537SOL    HW2 5445   8.076   2.154  13.335
34538SOL     OW 5446  13.957   8.979   9.554
34538SOL    HW1 5447  14.049   8.952   9.558
34538SOL    HW2 5448  13.958   9.059   9.501
34539SOL     OW 5449  13.494   3.695   5.317
34539SOL    HW1 5450  13.546   3.644   5.380
34539SOL    HW2 5451  13.405   3.695   5.353
34540SOL     OW 5452  10.922  12.969   2.680
34540SOL    HW1 5453  11.016  12.985   2.667
34540SOL    HW2 5454  10.892  12.937   2.595
34541SOL     OW 5455   4.522   0.164  10.198
34541SOL    HW1 5456   4.487   0.230  10.258
34541SOL    HW2 5457   4.528   0.208  10.114
34542SOL     OW 5458  13.881   4.047  10.971
34542SOL    HW1 5459  13.854   3.975  11.028
34542SOL    HW2 5460  13.931   4.105  11.028
34543SOL     OW 5461  10.187  14.309   2.527
34543SOL    HW1 5462  10.115  14.250   2.548
34543SOL    HW2 5463  10.157  14.395   2.557
34544SOL     OW 5464  12.623   2.994   1.282
34544SOL    HW1 5465  12.717   2.979   1.297
34544SOL    HW2 5466  12.617   3.088   1.265
34545SOL     OW 5467   2.183  13.248  11.929
34545SOL    HW1 5468   2.210  13.174  11.875
34545SOL    HW2 5469   2.220  13.231  12.015
34546SOL     OW 5470  12.953   5.289  11.634
34546SOL    HW1 5471  12.975   5.361  11.692
34546SOL    HW2 5472  12.955   5.328  11.546
34547SOL     OW 5473   2.616   7.819   5.231
34547SOL    HW1 5474   2.538   7.777   5.193
34547SOL    HW2 5475   2.667   7.747   5.267
34548SOL     OW 5476  14.119   1.453   6.712
34548SOL    HW1 5477  14.107   1.384   6.778
34548SOL    HW2 5478  14.068   1.527   6.744
34549SOL     OW 5479   9.703  10.924   0.388
34549SOL    HW1 5480   9.698  10.881   0.473
34549SOL    HW2 5481   9.673  11.014   0.404
34550SOL     OW 5482   5.054   2.607   4.574
34550SOL    HW1 5483   5.120   2.568   4.517
34550SOL    HW2 5484   5.065   2.562   4.658
34551SOL     OW 5485  12.370  11.854   9.043
34551SOL    HW1 5486  12.464  11.839   9.044
34551SOL    HW2 5487  12.333  11.772   9.011
34552SOL     OW 5488   6.121   6.644   2.726
34552SOL    HW1 5489   6.079   6.601   2.800
34552SOL    HW2 5490   6.193   6.586   2.702
34553SOL     OW 5491  12.065   4.488   0.089
34553SOL    HW1 5492  12.045   4.401   0.124
34553SOL    HW2 5493  12.052   4.547   0.163
34554SOL     OW 5494   5.295  12.121   1.718
34554SOL    HW1 5495   5.247  12.048   1.679
34554SOL    HW2 5496   5.387  12.094   1.712
34555SOL     OW 5497   1.493   9.287   5.811
34555SOL    HW1 5498   1.446   9.277   5.894
34555SOL    HW2 5499   1.457   9.367   5.773
34556SOL     OW 5500   0.869   2.329   6.280
34556SOL    HW1 5501   0.780   2.326   6.316
34556SOL    HW2 5502   0.870   2.408   6.226
34557SOL     OW 5503   2.609   0.744  10.517
34557SOL    HW1 5504   2.565   0.673  10.471
34557SOL    HW2 5505   2.580   0.735  10.608
34558SOL     OW 5506   0.004   2.328  11.230
34558SOL    HW1 5507   0.039   2.416  11.215
34558SOL    HW2 5508   0.081   2.275  11.252
34559SOL     OW 5509   8.888  12.858   0.019
34559SOL    HW1 5510   8.913  12.842   0.110
34559SOL    HW2 5511   8.934  12.938  14.873
34560SOL     OW 5512   6.269   3.968   8.905
34560SOL    HW1 5513   6.210   3.946   8.833
34560SOL    HW2 5514   6.217   4.022   8.964
34561SOL     OW 5515   3.561  10.426   8.829
34561SOL    HW1 5516   3.556  10.518   8.857
34561SOL    HW2 5517   3.651  10.416   8.797
34562SOL     OW 5518   6.801   9.359   1.197
34562SOL    HW1 5519   6.763   9.329   1.279
34562SOL    HW2 5520   6.730   9.408   1.154
34563SOL     OW 5521  11.030  11.237  10.479
34563SOL    HW1 5522  11.008  11.181  10.404
34563SOL    HW2 5523  11.016  11.327  10.447
34564SOL     OW 5524   0.062  10.625   7.156
34564SOL    HW1 5525  14.866  10.586   7.111
34564SOL    HW2 5526   0.088  10.558   7.220
34565SOL     OW 5527   4.650  11.033   9.814
34565SOL    HW1 5528   4.726  10.987   9.776
34565SOL    HW2 5529   4.589  11.041   9.741
34566SOL     OW 5530   8.154   5.366   0.169
34566SOL    HW1 5531   8.075   5.313   0.166
34566SOL    HW2 5532   8.134   5.436   0.230
34567SOL     OW 5533   8.127   4.980  13.177
34567SOL    HW1 5534   8.169   5.001  13.261
34567SOL    HW2 5535   8.122   5.063  13.130
34568SOL     OW 5536  10.240   6.069   8.608
34568SOL    HW1 5537  10.265   5.984   8.572
34568SOL    HW2 5538  10.299   6.082   8.682
34569SOL     OW 5539  11.416   6.412  10.449
34569SOL    HW1 5540  11.461   6.384  10.369
34569SOL    HW2 5541  11.480   6.468  10.493
34570SOL     OW 5542   4.942  12.238   1.847
34570SOL    HW1 5543   4.930  12.326   1.883
34570SOL    HW2 5544   4.999  12.251   1.771
34571SOL     OW 5545  11.922   2.242   7.533
34571SOL    HW1 5546  11.945   2.309   7.598
34571SOL    HW2 5547  11.842   2.202   7.567
34572SOL     OW 5548   9.291  13.786  10.296
34572SOL    HW1 5549   9.273  13.729  10.221
34572SOL    HW2 5550   9.242  13.866  10.279
34573SOL     OW 5551   2.223  10.917  13.025
34573SOL    HW1 5552   2.237  10.855  13.097
34573SOL    HW2 5553   2.128  10.917  13.011
34574SOL     OW 5554   0.858   1.898   3.814
34574SOL    HW1 5555   0.879   1.828   3.752
34574SOL    HW2 5556   0.879   1.862   3.900
34575SOL     OW 5557   9.997  12.229   2.089
34575SOL    HW1 5558   9.933  12.200   2.153
34575SOL    HW2 5559  10.011  12.153   2.032
34576SOL     OW 5560   5.675   4.017   6.751
34576SOL    HW1 5561   5.769   3.999   6.757
34576SOL    HW2 5562   5.637   3.972   6.826
34577SOL     OW 5563  14.558   7.114   9.588
34577SOL    HW1 5564  14.499   7.120   9.512
34577SOL    HW2 5565  14.499   7.101   9.663
34578SOL     OW 5566   8.537   2.715   4.683
34578SOL    HW1 5567   8.575   2.655   4.619
34578SOL    HW2 5568   8.579   2.691   4.766
34579SOL     OW 5569  14.112   9.403  12.168
34579SOL    HW1 5570  14.139   9.431  12.080
34579SOL    HW2 5571  14.158   9.463  12.227
34580SOL     OW 5572  11.810   3.791   4.564
34580SOL    HW1 5573  11.719   3.819   4.561
34580SOL    HW2 5574  11.821   3.751   4.650
34581SOL     OW 5575   6.240   4.126   1.061
34581SOL    HW1 5576   6.209   4.036   1.051
34581SOL    HW2 5577   6.180   4.165   1.124
34582SOL     OW 5578  11.622   3.405  13.545
34582SOL    HW1 5579  11.533   3.384  13.574
34582SOL    HW2 5580  11.640   3.491  13.584
34583SOL     OW 5581  10.740   0.188   9.127
34583SOL    HW1 5582  10.829   0.222   9.119
34583SOL    HW2 5583  10.750   0.093   9.123
34584SOL     OW 5584   8.923   5.236   0.113
34584SOL    HW1 5585   8.856   5.295   0.077
34584SOL    HW2 5586   8.989   5.296   0.149
34585SOL     OW 5587   8.093  11.629  11.791
34585SOL    HW1 5588   8.132  11.609  11.876
34585SOL    HW2 5589   8.058  11.546  11.761
34586SOL     OW 5590   9.266  12.376   7.528
34586SOL    HW1 5591   9.231  12.412   7.446
34586SOL    HW2 5592   9.306  12.293   7.502
34587SOL     OW 5593   9.382   7.680  12.791
34587SOL    HW1 5594   9.475   7.661  12.778
34587SOL    HW2 5595   9.377   7.775  12.798
34588SOL     OW 5596  13.562   3.900   5.164
34588SOL    HW1 5597  13.494   3.901   5.097
34588SOL    HW2 5598  13.538   3.829   5.223
34589SOL     OW 5599   7.796   7.442  14.694
34589SOL    HW1 5600   7.833   7.359  14.726
34589SOL    HW2 5601   7.735   7.469  14.762
34590SOL     OW 5602   8.035   7.479  12.858
34590SOL    HW1 5603   8.062   7.388  12.851
34590SOL    HW2 5604   8.020   7.493  12.951
34591SOL     OW 5605  10.992  11.004   2.025
34591SOL    HW1 5606  10.904  11.003   1.988
34591SOL    HW2 5607  11.046  10.959   1.960
34592SOL     OW 5608   6.302   9.881  13.382
34592SOL    HW1 5609   6.222   9.932  13.384
34592SOL    HW2 5610   6.302   9.831  13.463
34593SOL     OW 5611   8.496   2.228  10.543
34593SOL    HW1 5612   8.445   2.179  10.607
34593SOL    HW2 5613   8.575   2.176  10.531
34594SOL     OW 5614  10.887  13.937   7.079
34594SOL    HW1 5615  10.840  13.887   7.012
34594SOL    HW2 5616  10.867  13.892   7.161
34595SOL     OW 5617   0.128   4.218   8.193
34595SOL    HW1 5618   0.098   4.194   8.105
34595SOL    HW2 5619   0.108   4.311   8.201
34596SOL     OW 5620  10.505   8.935  12.448
34596SOL    HW1 5621  10.504   8.845  12.482
34596SOL    HW2 5622  10.472   8.988  12.521
34597SOL     OW 5623   3.342  13.874   0.255
34597SOL    HW1 5624   3.290  13.902   0.179
34597SOL    HW2 5625   3.345  13.779   0.248
34598SOL     OW 5626   2.971   8.422   6.118
34598SOL    HW1 5627   3.037   8.480   6.079
34598SOL    HW2 5628   2.888   8.464   6.097
34599SOL     OW 5629  12.874  11.059   7.170
34599SOL    HW1 5630  12.839  10.998   7.104
34599SOL    HW2 5631  12.929  11.119   7.120
34600SOL     OW 5632   8.426   3.399  11.754
34600SOL    HW1 5633   8.499   3.452  11.787
34600SOL    HW2 5634   8.463   3.351  11.680
34601SOL     OW 5635  14.161   1.897  11.543
34601SOL    HW1 5636  14.100   1.892  11.469
34601SOL    HW2 5637  14.111   1.942  11.611
34602SOL     OW 5638   7.352   8.404   8.710
34602SOL    HW1 5639   7.394   8.481   8.672
34602SOL    HW2 5640   7.308   8.361   8.637
34603SOL     OW 5641   7.693   1.773   2.204
34603SOL    HW1 5642   7.715   1.740   2.292
34603SOL    HW2 5643   7.640   1.704   2.166
34604SOL     OW 5644   7.028   4.648   1.603
34604SOL    HW1 5645   6.976   4.715   1.558
34604SOL    HW2 5646   6.978   4.567   1.592
34605SOL     OW 5647   5.016   1.524   4.080
34605SOL    HW1 5648   4.991   1.517   3.987
34605SOL    HW2 5649   5.095   1.471   4.088
34606SOL     OW 5650  14.773  12.760   6.408
34606SOL    HW1 5651  14.800  12.779   6.498
34606SOL    HW2 5652  14.825  12.684   6.383
34607SOL     OW 5653  14.161   5.000  11.610
34607SOL    HW1 5654  14.138   4.985  11.518
34607SOL    HW2 5655  14.083   5.039  11.648
34608SOL     OW 5656  12.144   1.672   0.393
34608SOL    HW1 5657  12.128   1.644   0.483
34608SOL    HW2 5658  12.060   1.659   0.349
34609SOL     OW 5659  13.709   5.537  14.458
34609SOL    HW1 5660  13.724   5.467  14.521
34609SOL    HW2 5661  13.766   5.608  14.487
34610SOL     OW 5662   6.792   9.882   1.053
34610SOL    HW1 5663   6.805   9.927   0.969
34610SOL    HW2 5664   6.825   9.794   1.039
34611SOL     OW 5665   4.078   7.662  14.005
34611SOL    HW1 5666   4.079   7.570  13.980
34611SOL    HW2 5667   4.052   7.708  13.926
34612SOL     OW 5668  12.861   1.526   7.372
34612SOL    HW1 5669  12.907   1.509   7.290
34612SOL    HW2 5670  12.811   1.606   7.356
34613SOL     OW 5671   7.127   8.970   9.214
34613SOL    HW1 5672   7.075   9.006   9.286
34613SOL    HW2 5673   7.167   9.046   9.172
34614SOL     OW 5674   0.474  12.057  10.395
34614SOL    HW1 5675   0.478  12.145  10.359
34614SOL    HW2 5676   0.383  12.047  10.424
34615SOL     OW 5677   1.442   4.769  14.687
34615SOL    HW1 5678   1.434   4.674  14.693
34615SOL    HW2 5679   1.494   4.794  14.763
34616SOL     OW 5680  11.038  10.220   3.125
34616SOL    HW1 5681  10.973  10.217   3.195
34616SOL    HW2 5682  10.988  10.243   3.046
34617SOL     OW 5683  11.264  14.091  14.658
34617SOL    HW1 5684  11.176  14.120  14.682
34617SOL    HW2 5685  11.300  14.053  14.738
34618SOL     OW 5686  10.198  10.544  11.252
34618SOL    HW1 5687  10.195  10.601  11.175
34618SOL    HW2 5688  10.208  10.604  11.326
34619SOL     OW 5689   1.175  14.678  13.957
34619SOL    HW1 5690   1.226  14.685  13.876
34619SOL    HW2 5691   1.107  14.744  13.949
34620SOL     OW 5692   6.715   3.441  13.006
34620SOL    HW1 5693   6.623   3.431  12.984
34620SOL    HW2 5694   6.728   3.384  13.082
34621SOL     OW 5695  10.310   3.152   2.599
34621SOL    HW1 5696  10.219   3.124   2.600
34621SOL    HW2 5697  10.322   3.191   2.512
34622SOL     OW 5698   7.694  13.831  10.161
34622SOL    HW1 5699   7.776  13.790  10.131
34622SOL    HW2 5700   7.665  13.883  10.087
34623SOL     OW 5701   0.397  12.537  14.170
34623SOL    HW1 5702   0.487  12.568  14.186
34623SOL    HW2 5703   0.385  12.463  14.229
34624SOL     OW 5704   0.589   5.429   6.842
34624SOL    HW1 5705   0.542   5.512   6.840
34624SOL    HW2 5706   0.638   5.427   6.760
34625SOL     OW 5707  12.724  12.769   1.673
34625SOL    HW1 5708  12.786  12.738   1.606
34625SOL    HW2 5709  12.641  12.777   1.626
34626SOL     OW 5710  12.941   2.276   3.967
34626SOL    HW1 5711  12.981   2.336   3.904
34626SOL    HW2 5712  13.005   2.268   4.037
34627SOL     OW 5713   5.777   7.281   1.490
34627SOL    HW1 5714   5.850   7.332   1.526
34627SOL    HW2 5715   5.702   7.305   1.545
34628SOL     OW 5716   2.295   3.568   0.463
34628SOL    HW1 5717   2.349   3.500   0.504
34628SOL    HW2 5718   2.349   3.602   0.392
34629SOL     OW 5719  11.132   2.875  11.270
34629SOL    HW1 5720  11.204   2.811  11.272
34629SOL    HW2 5721  11.057   2.825  11.239
34630SOL     OW 5722  14.160  11.501   0.174
34630SOL    HW1 5723  14.112  11.421   0.195
34630SOL    HW2 5724  14.220  11.476   0.104
34631SOL     OW 5725  11.681   7.811   0.139
34631SOL    HW1 5726  11.771   7.842   0.123
34631SOL    HW2 5727  11.632   7.841   0.063
34632SOL     OW 5728   7.440   4.857   9.842
34632SOL    HW1 5729   7.453   4.949   9.819
34632SOL    HW2 5730   7.451   4.854   9.937
34633SOL     OW 5731   1.394   4.059   6.781
34633SOL    HW1 5732   1.366   4.080   6.870
34633SOL    HW2 5733   1.474   4.008   6.793
34634SOL     OW 5734   5.838  11.608  12.841
34634SOL    HW1 5735   5.933  11.598  12.835
34634SOL    HW2 5736   5.823  11.703  12.831
34635SOL     OW 5737   5.857  14.144   8.799
34635SOL    HW1 5738   5.900  14.172   8.718
34635SOL    HW2 5739   5.907  14.067   8.827
34636SOL     OW 5740  11.116  10.812   4.045
34636SOL    HW1 5741  11.180  10.744   4.067
34636SOL    HW2 5742  11.063  10.821   4.124
34637SOL     OW 5743   1.729   6.040  11.184
34637SOL    HW1 5744   1.686   5.984  11.249
34637SOL    HW2 5745   1.789   6.093  11.235
34638SOL     OW 5746  12.154   2.151   4.719
34638SOL    HW1 5747  12.125   2.101   4.643
34638SOL    HW2 5748  12.099   2.121   4.791
34639SOL     OW 5749  12.365   6.169  14.070
34639SOL    HW1 5750  12.319   6.208  14.144
34639SOL    HW2 5751  12.454   6.155  14.101
34640SOL     OW 5752  13.947   4.314  10.119
34640SOL    HW1 5753  13.899   4.232  10.128
34640SOL    HW2 5754  13.945   4.354  10.206
34641SOL     OW 5755   0.976   3.472   9.111
34641SOL    HW1 5756   0.883   3.456   9.124
34641SOL    HW2 5757   1.009   3.392   9.070
34642SOL     OW 5758   1.121   7.442   4.277
34642SOL    HW1 5759   1.041   7.391   4.269
34642SOL    HW2 5760   1.191   7.378   4.261
34643SOL     OW 5761  13.422   9.977   4.731
34643SOL    HW1 5762  13.337   9.963   4.689
34643SOL    HW2 5763  13.473  10.026   4.667
34644SOL     OW 5764   6.445  13.980  12.274
34644SOL    HW1 5765   6.530  13.961  12.312
34644SOL    HW2 5766   6.440  13.923  12.197
34645SOL     OW 5767  13.379   2.932   6.128
34645SOL    HW1 5768  13.427   2.938   6.211
34645SOL    HW2 5769  13.436   2.882   6.070
34646SOL     OW 5770   3.040   4.801   4.840
34646SOL    HW1 5771   3.099   4.759   4.778
34646SOL    HW2 5772   2.958   4.811   4.793
34647SOL     OW 5773   9.999   3.975   3.192
34647SOL    HW1 5774   9.940   3.915   3.148
34647SOL    HW2 5775   9.975   4.062   3.160
34648SOL     OW 5776  10.250   3.997   0.996
34648SOL    HW1 5777  10.179   4.028   1.052
34648SOL    HW2 5778  10.326   4.050   1.022
34649SOL     OW 5779   8.026   2.604   9.050
34649SOL    HW1 5780   7.997   2.664   9.118
34649SOL    HW2 5781   8.038   2.520   9.096
34650SOL     OW 5782   9.043  13.960   9.185
34650SOL    HW1 5783   9.017  13.899   9.116
34650SOL    HW2 5784   8.977  13.948   9.253
34651SOL     OW 5785  14.857   3.094  14.759
34651SOL    HW1 5786   0.054   3.076  14.814
34651SOL    HW2 5787   0.012   3.094  14.670
34652SOL     OW 5788   6.513   8.125   4.447
34652SOL    HW1 5789   6.529   8.217   4.467
34652SOL    HW2 5790   6.436   8.102   4.499
34653SOL     OW 5791   9.383   3.340   2.118
34653SOL    HW1 5792   9.289   3.352   2.104
34653SOL    HW2 5793   9.402   3.255   2.078
34654SOL     OW 5794  13.916   2.074   2.408
34654SOL    HW1 5795  13.963   2.031   2.479
34654SOL    HW2 5796  13.854   2.009   2.376
34655SOL     OW 5797  12.413  13.335  10.576
34655SOL    HW1 5798  12.369  13.390  10.641
34655SOL    HW2 5799  12.344  13.311  10.515
34656SOL     OW 5800   6.183   8.193  11.601
34656SOL    HW1 5801   6.172   8.287  11.614
34656SOL    HW2 5802   6.105   8.155  11.642
34657SOL     OW 5803  13.221   6.970   7.721
34657SOL    HW1 5804  13.170   6.934   7.649
34657SOL    HW2 5805  13.210   6.907   7.792
34658SOL     OW 5806  11.011  12.651   5.348
34658SOL    HW1 5807  11.042  12.566   5.315
34658SOL    HW2 5808  10.917  12.649   5.334
34659SOL     OW 5809   4.069   2.182   4.124
34659SOL    HW1 5810   4.140   2.153   4.181
34659SOL    HW2 5811   4.080   2.131   4.044
34660SOL     OW 5812  10.159  12.031   2.657
34660SOL    HW1 5813  10.253  12.022   2.643
34660SOL    HW2 5814  10.147  12.124   2.679
34661SOL     OW 5815   0.455   8.667   7.884
34661SOL    HW1 5816   0.405   8.606   7.939
34661SOL    HW2 5817   0.391   8.704   7.824
34662SOL     OW 5818   9.806  10.663  12.414
34662SOL    HW1 5819   9.866  10.615  12.471
34662SOL    HW2 5820   9.852  10.669  12.330
34663SOL     OW 5821   3.370  14.548   5.778
34663SOL    HW1 5822   3.370  14.633   5.735
34663SOL    HW2 5823   3.289  14.547   5.829
34664SOL     OW 5824   9.878   6.033   6.614
34664SOL    HW1 5825   9.796   5.986   6.597
34664SOL    HW2 5826   9.888   6.030   6.710
34665SOL     OW 5827   4.839  14.091   7.519
34665SOL    HW1 5828   4.765  14.139   7.556
34665SOL    HW2 5829   4.851  14.129   7.432
34666SOL     OW 5830   3.881  10.819   6.827
34666SOL    HW1 5831   3.879  10.915   6.821
34666SOL    HW2 5832   3.889  10.789   6.737
34667SOL     OW 5833  12.632  11.260   7.624
34667SOL    HW1 5834  12.632  11.176   7.579
34667SOL    HW2 5835  12.565  11.311   7.579
34668SOL     OW 5836   4.616   8.043   3.737
34668SOL    HW1 5837   4.652   8.087   3.660
34668SOL    HW2 5838   4.692   8.029   3.794
34669SOL     OW 5839  11.487   2.579  13.712
34669SOL    HW1 5840  11.486   2.674  13.727
34669SOL    HW2 5841  11.528   2.543  13.790
34670SOL     OW 5842  12.842  12.929  13.385
34670SOL    HW1 5843  12.785  12.935  13.309
34670SOL    HW2 5844  12.887  12.845  13.375
34671SOL     OW 5845  11.705   2.441   3.915
34671SOL    HW1 5846  11.678   2.445   4.006
34671SOL    HW2 5847  11.626   2.413   3.868
34672SOL     OW 5848   6.900  11.526  10.221
34672SOL    HW1 5849   6.867  11.531  10.132
34672SOL    HW2 5850   6.832  11.479  10.270
34673SOL     OW 5851  11.222  14.187   1.342
34673SOL    HW1 5852  11.295  14.145   1.296
34673SOL    HW2 5853  11.253  14.196   1.432
34674SOL     OW 5854   7.885   5.334   7.177
34674SOL    HW1 5855   7.946   5.288   7.236
34674SOL    HW2 5856   7.852   5.266   7.119
34675SOL     OW 5857  14.108   2.923   4.068
34675SOL    HW1 5858  14.154   2.844   4.097
34675SOL    HW2 5859  14.178   2.987   4.054
34676SOL     OW 5860   3.501   2.731   8.959
34676SOL    HW1 5861   3.473   2.710   9.048
34676SOL    HW2 5862   3.427   2.704   8.904
34677SOL     OW 5863   4.504   1.222   2.683
34677SOL    HW1 5864   4.433   1.178   2.636
34677SOL    HW2 5865   4.537   1.156   2.744
34678SOL     OW 5866   9.243   7.187   9.372
34678SOL    HW1 5867   9.186   7.248   9.325
34678SOL    HW2 5868   9.221   7.201   9.464
34679SOL     OW 5869  12.887  10.051   2.875
34679SOL    HW1 5870  12.847  10.065   2.790
34679SOL    HW2 5871  12.886   9.956   2.886
34680SOL     OW 5872  12.579  10.091  10.165
34680SOL    HW1 5873  12.617  10.170  10.126
34680SOL    HW2 5874  12.577  10.027  10.093
34681SOL     OW 5875   8.769  10.846   4.042
34681SOL    HW1 5876   8.828  10.776   4.016
34681SOL    HW2 5877   8.811  10.926   4.011
34682SOL     OW 5878  14.846  11.904   2.333
34682SOL    HW1 5879  14.752  11.919   2.334
34682SOL    HW2 5880   0.005  11.986   2.362
34683SOL     OW 5881  10.507  11.147   5.191
34683SOL    HW1 5882  10.603  11.144   5.186
34683SOL    HW2 5883  10.478  11.101   5.112
34684SOL     OW 5884  13.763  12.999   7.804
34684SOL    HW1 5885  13.672  12.994   7.774
34684SOL    HW2 5886  13.769  13.085   7.846
34685SOL     OW 5887   2.676   6.855  12.402
34685SOL    HW1 5888   2.766   6.883  12.414
34685SOL    HW2 5889   2.679   6.759  12.410
34686SOL     OW 5890   8.150   8.443  13.495
34686SOL    HW1 5891   8.062   8.471  13.520
34686SOL    HW2 5892   8.183   8.395  13.571
34687SOL     OW 5893   2.552   0.893  14.067
34687SOL    HW1 5894   2.564   0.816  14.013
34687SOL    HW2 5895   2.516   0.859  14.150
34688SOL     OW 5896  13.593   1.586   4.755
34688SOL    HW1 5897  13.532   1.620   4.690
34688SOL    HW2 5898  13.678   1.584   4.710
34689SOL     OW 5899   1.049   0.633   6.808
34689SOL    HW1 5900   0.995   0.560   6.778
34689SOL    HW2 5901   1.074   0.679   6.728
34690SOL     OW 5902  10.345  13.405   3.430
34690SOL    HW1 5903  10.271  13.465   3.446
34690SOL    HW2 5904  10.381  13.434   3.346
34691SOL     OW 5905   7.547  13.017   9.962
34691SOL    HW1 5906   7.478  13.083   9.969
34691SOL    HW2 5907   7.617  13.050  10.019
34692SOL     OW 5908   1.863   7.435  13.759
34692SOL    HW1 5909   1.871   7.378  13.682
34692SOL    HW2 5910   1.817   7.512  13.727
34693SOL     OW 5911   5.885   8.599   0.604
34693SOL    HW1 5912   5.908   8.539   0.675
34693SOL    HW2 5913   5.873   8.542   0.528
34694SOL     OW 5914   2.842  12.151  13.350
34694SOL    HW1 5915   2.860  12.117  13.262
34694SOL    HW2 5916   2.928  12.165  13.389
34695SOL     OW 5917   6.247   1.187   6.301
34695SOL    HW1 5918   6.343   1.185   6.295
34695SOL    HW2 5919   6.226   1.277   6.323
34696SOL     OW 5920   5.057   1.635   6.917
34696SOL    HW1 5921   5.073   1.585   6.997
34696SOL    HW2 5922   5.017   1.716   6.948
34697SOL     OW 5923   8.924  10.721   5.541
34697SOL    HW1 5924   8.929  10.629   5.569
34697SOL    HW2 5925   8.881  10.717   5.455
34698SOL     OW 5926   1.818   3.532   3.479
34698SOL    HW1 5927   1.802   3.624   3.500
34698SOL    HW2 5928   1.831   3.531   3.384
34699SOL     OW 5929   4.249   1.134  12.265
34699SOL    HW1 5930   4.209   1.164  12.347
34699SOL    HW2 5931   4.325   1.190  12.254
34700SOL     OW 5932   4.945   8.304  13.982
34700SOL    HW1 5933   4.975   8.243  13.914
34700SOL    HW2 5934   5.023   8.356  14.004
34701SOL     OW 5935   4.740   5.813   3.416
34701SOL    HW1 5936   4.738   5.907   3.398
34701SOL    HW2 5937   4.782   5.805   3.502
34702SOL     OW 5938   0.869   7.626  12.103
34702SOL    HW1 5939   0.935   7.657  12.166
34702SOL    HW2 5940   0.854   7.701  12.046
34703SOL     OW 5941  10.258   5.090   3.827
34703SOL    HW1 5942  10.206   5.029   3.774
34703SOL    HW2 5943  10.193   5.142   3.874
34704SOL     OW 5944   9.768  10.062  12.775
34704SOL    HW1 5945   9.820  10.142  12.763
34704SOL    HW2 5946   9.807   9.999  12.714
34705SOL     OW 5947   7.919   5.206   7.658
34705SOL    HW1 5948   7.867   5.139   7.612
34705SOL    HW2 5949   7.989   5.228   7.596
34706SOL     OW 5950   3.608   9.842  13.423
34706SOL    HW1 5951   3.586   9.893  13.501
34706SOL    HW2 5952   3.593   9.751  13.449
34707SOL     OW 5953   7.628   9.442   1.235
34707SOL    HW1 5954   7.591   9.464   1.150
34707SOL    HW2 5955   7.604   9.351   1.250
34708SOL     OW 5956   9.767  14.766   1.395
34708SOL    HW1 5957   9.760  14.754   1.301
34708SOL    HW2 5958   9.730  14.853   1.411
34709SOL     OW 5959   6.818  12.690   9.639
34709SOL    HW1 5960   6.807  12.606   9.682
34709SOL    HW2 5961   6.766  12.684   9.559
34710SOL     OW 5962   0.914   8.909  13.730
34710SOL    HW1 5963   0.854   8.851  13.777
34710SOL    HW2 5964   0.867   8.933  13.651
34711SOL     OW 5965   9.447   8.494   8.917
34711SOL    HW1 5966   9.440   8.509   8.822
34711SOL    HW2 5967   9.521   8.434   8.926
34712SOL     OW 5968  13.198  13.371  11.550
34712SOL    HW1 5969  13.154  13.392  11.468
34712SOL    HW2 5970  13.252  13.295  11.529
34713SOL     OW 5971   8.343   2.618  12.633
34713SOL    HW1 5972   8.264   2.643  12.585
34713SOL    HW2 5973   8.310   2.583  12.716
34714SOL     OW 5974   3.613   8.870   5.403
34714SOL    HW1 5975   3.665   8.903   5.477
34714SOL    HW2 5976   3.673   8.815   5.353
34715SOL     OW 5977   1.879   9.892   2.891
34715SOL    HW1 5978   1.875   9.818   2.830
34715SOL    HW2 5979   1.935   9.861   2.962
34716SOL     OW 5980   4.921  11.027   1.736
34716SOL    HW1 5981   4.861  10.962   1.701
34716SOL    HW2 5982   4.989  10.977   1.781
34717SOL     OW 5983   7.754  14.400   4.298
34717SOL    HW1 5984   7.749  14.341   4.374
34717SOL    HW2 5985   7.689  14.468   4.317
34718SOL     OW 5986   1.082   8.731  12.941
34718SOL    HW1 5987   1.032   8.655  12.912
34718SOL    HW2 5988   1.063   8.799  12.876
34719SOL     OW 5989   4.092   7.761   0.709
34719SOL    HW1 5990   4.045   7.718   0.637
34719SOL    HW2 5991   4.028   7.821   0.747
34720SOL     OW 5992   0.813   8.736   4.873
34720SOL    HW1 5993   0.900   8.698   4.878
34720SOL    HW2 5994   0.762   8.673   4.822
34721SOL     OW 5995  13.334   2.436   7.906
34721SOL    HW1 5996  13.375   2.499   7.846
34721SOL    HW2 5997  13.408   2.390   7.946
34722SOL     OW 5998  11.694   2.752   8.895
34722SOL    HW1 5999  11.680   2.839   8.932
34722SOL    HW2 6000  11.763   2.714   8.950
34723SOL     OW 6001   6.360  14.350   4.816
34723SOL    HW1 6002   6.455  14.363   4.820
34723SOL    HW2 6003   6.339  14.307   4.899
34724SOL     OW 6004   6.948   6.807   5.146
34724SOL    HW1 6005   6.891   6.732   5.129
34724SOL    HW2 6006   7.034   6.781   5.113
34725SOL     OW 6007   8.945   7.941  11.422
34725SOL    HW1 6008   9.020   7.902  11.375
34725SOL    HW2 6009   8.907   7.867  11.470
34726SOL     OW 6010   1.530   1.321   2.959
34726SOL    HW1 6011   1.555   1.238   2.997
34726SOL    HW2 6012   1.528   1.305   2.864
34727SOL     OW 6013  13.827   4.754   9.436
34727SOL    HW1 6014  13.896   4.820   9.436
34727SOL    HW2 6015  13.747   4.804   9.452
34728SOL     OW 6016   1.784   9.247   7.173
34728SOL    HW1 6017   1.803   9.319   7.113
34728SOL    HW2 6018   1.807   9.281   7.260
34729SOL     OW 6019   3.654   5.331   2.411
34729SOL    HW1 6020   3.609   5.362   2.332
34729SOL    HW2 6021   3.594   5.266   2.448
34730SOL     OW 6022   2.903   2.297   3.952
34730SOL    HW1 6023   2.907   2.202   3.950
34730SOL    HW2 6024   2.839   2.320   3.885
34731SOL     OW 6025   9.434   6.083   5.596
34731SOL    HW1 6026   9.344   6.048   5.593
34731SOL    HW2 6027   9.462   6.084   5.504
34732SOL     OW 6028   1.836   7.135  14.837
34732SOL    HW1 6029   1.893   7.173   0.025
34732SOL    HW2 6030   1.896   7.097  14.773
34733SOL     OW 6031  14.543  12.026  10.588
34733SOL    HW1 6032  14.546  12.053  10.496
34733SOL    HW2 6033  14.624  11.976  10.601
34734SOL     OW 6034  14.455   0.327   2.737
34734SOL    HW1 6035  14.383   0.294   2.790
34734SOL    HW2 6036  14.502   0.248   2.709
34735SOL     OW 6037  12.419  11.058   2.775
34735SOL    HW1 6038  12.442  11.052   2.868
34735SOL    HW2 6039  12.489  11.010   2.730
34736SOL     OW 6040   7.183   6.768  12.814
34736SOL    HW1 6041   7.262   6.727  12.849
34736SOL    HW2 6042   7.116   6.752  12.881
34737SOL     OW 6043   4.980   9.243   8.451
34737SOL    HW1 6044   5.059   9.297   8.449
34737SOL    HW2 6045   4.998   9.178   8.519
34738SOL     OW 6046   3.399  12.833   0.379
34738SOL    HW1 6047   3.367  12.746   0.402
34738SOL    HW2 6048   3.330  12.892   0.409
34739SOL     OW 6049   4.158   0.627   1.424
34739SOL    HW1 6050   4.147   0.539   1.388
34739SOL    HW2 6051   4.252   0.642   1.424
34740SOL     OW 6052   3.834   8.859   4.346
34740SOL    HW1 6053   3.797   8.941   4.378
34740SOL    HW2 6054   3.925   8.880   4.323
34741SOL     OW 6055  14.113   0.290  10.065
34741SOL    HW1 6056  14.175   0.219  10.050
34741SOL    HW2 6057  14.037   0.268  10.010
34742SOL     OW 6058  10.107   7.987  13.620
34742SOL    HW1 6059  10.033   7.964  13.564
34742SOL    HW2 6060  10.184   7.967  13.567
34743SOL     OW 6061   6.328  10.698   5.616
34743SOL    HW1 6062   6.245  10.696   5.665
34743SOL    HW2 6063   6.361  10.787   5.630
34744SOL     OW 6064  14.824   4.544  12.229
34744SOL    HW1 6065  14.863   4.631  12.235
34744SOL    HW2 6066  14.838   4.505  12.316
34745SOL     OW 6067  12.417   7.902  11.670
34745SOL    HW1 6068  12.440   7.995  11.674
34745SOL    HW2 6069  12.335   7.899  11.621
34746SOL     OW 6070  10.376   4.749   9.239
34746SOL    HW1 6071  10.309   4.803   9.196
34746SOL    HW2 6072  10.327   4.675   9.276
34747SOL     OW 6073   5.895   9.943  13.938
34747SOL    HW1 6074   5.882   9.973  14.028
34747SOL    HW2 6075   5.817   9.971  13.891
34748SOL     OW 6076   2.586  11.600   4.417
34748SOL    HW1 6077   2.626  11.672   4.369
34748SOL    HW2 6078   2.658  11.541   4.437
34749SOL     OW 6079   9.891   0.821   0.586
34749SOL    HW1 6080   9.896   0.735   0.543
34749SOL    HW2 6081   9.889   0.801   0.680
34750SOL     OW 6082   7.323   1.782   2.991
34750SOL    HW1 6083   7.356   1.867   3.019
34750SOL    HW2 6084   7.256   1.802   2.925
34751SOL     OW 6085   2.566   7.485  11.815
34751SOL    HW1 6086   2.653   7.462  11.847
34751SOL    HW2 6087   2.507   7.421  11.855
34752SOL     OW 6088   6.106   2.946  12.718
34752SOL    HW1 6089   6.039   2.877  12.719
34752SOL    HW2 6090   6.172   2.914  12.656
34753SOL     OW 6091   6.418   8.212   2.251
34753SOL    HW1 6092   6.499   8.162   2.266
34753SOL    HW2 6093   6.444   8.286   2.197
34754SOL     OW 6094   5.519  13.169  12.921
34754SOL    HW1 6095   5.513  13.146  12.828
34754SOL    HW2 6096   5.603  13.133  12.949
34755SOL     OW 6097  12.478  10.318   4.628
34755SOL    HW1 6098  12.512  10.229   4.627
34755SOL    HW2 6099  12.424  10.324   4.549
34756SOL     OW 6100   5.625  13.369  10.244
34756SOL    HW1 6101   5.668  13.454  10.241
34756SOL    HW2 6102   5.663  13.320  10.171
34757SOL     OW 6103  12.049   6.103   3.519
34757SOL    HW1 6104  12.109   6.033   3.545
34757SOL    HW2 6105  12.051   6.104   3.424
34758SOL     OW 6106   7.288  13.853  10.885
34758SOL    HW1 6107   7.333  13.854  10.970
34758SOL    HW2 6108   7.290  13.944  10.856
34759SOL     OW 6109   5.919  10.192   5.029
34759SOL    HW1 6110   5.993  10.132   5.022
34759SOL    HW2 6111   5.891  10.186   5.120
34760SOL     OW 6112   3.980  13.035   0.132
34760SOL    HW1 6113   4.049  13.092   0.097
34760SOL    HW2 6114   3.913  13.035   0.064
34761SOL     OW 6115   5.170  12.704   2.501
34761SOL    HW1 6116   5.149  12.794   2.478
34761SOL    HW2 6117   5.246  12.710   2.558
34762SOL     OW 6118   1.802  12.269  12.991
34762SOL    HW1 6119   1.803  12.188  12.940
34762SOL    HW2 6120   1.713  12.302  12.981
34763SOL     OW 6121   3.406  11.788   0.430
34763SOL    HW1 6122   3.447  11.758   0.348
34763SOL    HW2 6123   3.361  11.869   0.406
34764SOL     OW 6124   7.647   5.232  12.271
34764SOL    HW1 6125   7.608   5.272  12.349
34764SOL    HW2 6126   7.692   5.155  12.304
34765SOL     OW 6127   3.045   2.067   2.117
34765SOL    HW1 6128   3.037   1.974   2.096
34765SOL    HW2 6129   3.138   2.086   2.107
34766SOL     OW 6130   8.435  12.454   4.594
34766SOL    HW1 6131   8.439  12.360   4.613
34766SOL    HW2 6132   8.344  12.470   4.569
34767SOL     OW 6133   7.959   7.511   8.888
34767SOL    HW1 6134   8.002   7.562   8.957
34767SOL    HW2 6135   7.908   7.445   8.935
34768SOL     OW 6136  11.223   3.685   4.095
34768SOL    HW1 6137  11.140   3.643   4.116
34768SOL    HW2 6138  11.219   3.702   4.001
34769SOL     OW 6139   9.225   5.507   5.871
34769SOL    HW1 6140   9.243   5.578   5.933
34769SOL    HW2 6141   9.276   5.433   5.904
34770SOL     OW 6142  14.081   6.840   2.888
34770SOL    HW1 6143  14.101   6.926   2.926
34770SOL    HW2 6144  14.086   6.854   2.793
34771SOL     OW 6145  10.663   3.279   9.460
34771SOL    HW1 6146  10.686   3.203   9.514
34771SOL    HW2 6147  10.596   3.325   9.512
34772SOL     OW 6148  13.275   4.873   7.635
34772SOL    HW1 6149  13.302   4.781   7.637
34772SOL    HW2 6150  13.348   4.918   7.591
34773SOL     OW 6151  13.118   5.882  13.589
34773SOL    HW1 6152  13.118   5.812  13.654
34773SOL    HW2 6153  13.040   5.933  13.607
34774SOL     OW 6154   8.253   9.831   7.893
34774SOL    HW1 6155   8.209   9.768   7.950
34774SOL    HW2 6156   8.184   9.864   7.836
34775SOL     OW 6157   1.855  14.422   6.165
34775SOL    HW1 6158   1.879  14.494   6.107
34775SOL    HW2 6159   1.780  14.380   6.123
34776SOL     OW 6160   6.211   6.534   7.490
34776SOL    HW1 6161   6.235   6.525   7.582
34776SOL    HW2 6162   6.115   6.527   7.489
34777SOL     OW 6163   3.317  14.835   2.060
34777SOL    HW1 6164   3.302  14.805   1.971
34777SOL    HW2 6165   3.387  14.778   2.093
34778SOL     OW 6166   8.229   7.380   3.807
34778SOL    HW1 6167   8.256   7.464   3.770
34778SOL    HW2 6168   8.202   7.400   3.896
34779SOL     OW 6169  10.282   9.425   9.255
34779SOL    HW1 6170  10.311   9.429   9.346
34779SOL    HW2 6171  10.362   9.435   9.204
34780SOL     OW 6172   2.888   0.935   8.366
34780SOL    HW1 6173   2.872   0.971   8.279
34780SOL    HW2 6174   2.949   0.997   8.407
34781SOL     OW 6175   4.421  13.071  11.494
34781SOL    HW1 6176   4.412  13.145  11.554
34781SOL    HW2 6177   4.516  13.054  11.492
34782SOL     OW 6178  10.109   0.199   2.601
34782SOL    HW1 6179  10.067   0.247   2.529
34782SOL    HW2 6180  10.037   0.151   2.642
34783SOL     OW 6181  12.102   7.888   1.030
34783SOL    HW1 6182  12.141   7.927   1.109
34783SOL    HW2 6183  12.038   7.952   1.000
34784SOL     OW 6184  14.491   8.835  13.781
34784SOL    HW1 6185  14.480   8.840  13.686
34784SOL    HW2 6186  14.402   8.844  13.816
34785SOL     OW 6187   8.249   6.499   8.876
34785SOL    HW1 6188   8.239   6.568   8.941
34785SOL    HW2 6189   8.188   6.430   8.904
34786SOL     OW 6190   6.677  11.935   8.372
34786SOL    HW1 6191   6.632  12.019   8.363
34786SOL    HW2 6192   6.657  11.906   8.461
34787SOL     OW 6193   4.978   3.080   5.468
34787SOL    HW1 6194   4.884   3.099   5.473
34787SOL    HW2 6195   4.998   3.036   5.551
34788SOL     OW 6196   9.652   4.711   9.390
34788SOL    HW1 6197   9.713   4.713   9.316
34788SOL    HW2 6198   9.611   4.797   9.391
34789SOL     OW 6199   3.441   0.389   8.814
34789SOL    HW1 6200   3.386   0.465   8.834
34789SOL    HW2 6201   3.385   0.332   8.760
34790SOL     OW 6202   3.161  11.386   6.482
34790SOL    HW1 6203   3.092  11.377   6.548
34790SOL    HW2 6204   3.171  11.297   6.446
34791SOL     OW 6205   8.760  13.168   0.440
34791SOL    HW1 6206   8.722  13.228   0.504
34791SOL    HW2 6207   8.788  13.225   0.368
34792SOL     OW 6208   8.342   1.275  12.057
34792SOL    HW1 6209   8.312   1.277  12.148
34792SOL    HW2 6210   8.367   1.365  12.038
34793SOL     OW 6211  10.113   8.477   4.975
34793SOL    HW1 6212  10.201   8.444   4.993
34793SOL    HW2 6213  10.067   8.403   4.934
34794SOL     OW 6214   6.545   7.210   8.680
34794SOL    HW1 6215   6.625   7.257   8.658
34794SOL    HW2 6216   6.484   7.231   8.610
34795SOL     OW 6217  12.596   4.601   0.733
34795SOL    HW1 6218  12.570   4.650   0.655
34795SOL    HW2 6219  12.675   4.646   0.764
34796SOL     OW 6220  11.112   8.704   2.098
34796SOL    HW1 6221  11.175   8.743   2.036
34796SOL    HW2 6222  11.038   8.678   2.043
34797SOL     OW 6223   6.809   3.739   2.411
34797SOL    HW1 6224   6.736   3.708   2.358
34797SOL    HW2 6225   6.887   3.712   2.363
34798SOL     OW 6226   2.742   3.820  10.279
34798SOL    HW1 6227   2.704   3.733  10.262
34798SOL    HW2 6228   2.666   3.875  10.300
34799SOL     OW 6229  14.318  14.132  13.797
34799SOL    HW1 6230  14.305  14.044  13.759
34799SOL    HW2 6231  14.373  14.117  13.874
34800SOL     OW 6232  10.945   7.069   9.076
34800SOL    HW1 6233  10.973   6.986   9.037
34800SOL    HW2 6234  11.019   7.128   9.061
34801SOL     OW 6235   2.184   7.570   2.920
34801SOL    HW1 6236   2.186   7.555   2.825
34801SOL    HW2 6237   2.092   7.588   2.939
34802SOL     OW 6238   1.728   1.377  11.712
34802SOL    HW1 6239   1.812   1.408  11.747
34802SOL    HW2 6240   1.681   1.344  11.789
34803SOL     OW 6241   2.403   5.352  14.839
34803SOL    HW1 6242   2.444   5.438  14.839
34803SOL    HW2 6243   2.324   5.362   0.015
34804SOL     OW 6244   5.624  10.261   8.227
34804SOL    HW1 6245   5.537  10.254   8.189
34804SOL    HW2 6246   5.609  10.275   8.321
34805SOL     OW 6247   6.901  13.560  14.579
34805SOL    HW1 6248   6.871  13.469  14.577
34805SOL    HW2 6249   6.843  13.603  14.642
34806SOL     OW 6250   6.195  14.522  13.798
34806SOL    HW1 6251   6.253  14.536  13.723
34806SOL    HW2 6252   6.198  14.605  13.846
34807SOL     OW 6253   5.308   6.972   0.933
34807SOL    HW1 6254   5.306   6.882   0.966
34807SOL    HW2 6255   5.338   6.965   0.843
34808SOL     OW 6256  11.830  12.819   4.157
34808SOL    HW1 6257  11.888  12.754   4.195
34808SOL    HW2 6258  11.742  12.795   4.187
34809SOL     OW 6259  10.826   7.731   2.225
34809SOL    HW1 6260  10.783   7.673   2.287
34809SOL    HW2 6261  10.759   7.796   2.201
34810SOL     OW 6262   0.142   1.304   4.175
34810SOL    HW1 6263   0.218   1.309   4.116
34810SOL    HW2 6264   0.066   1.313   4.117
34811SOL     OW 6265   5.408  13.258   3.100
34811SOL    HW1 6266   5.433  13.237   3.190
34811SOL    HW2 6267   5.313  13.264   3.102
34812SOL     OW 6268   0.527  12.053   7.058
34812SOL    HW1 6269   0.431  12.050   7.067
34812SOL    HW2 6270   0.551  12.136   7.100
34813SOL     OW 6271   9.394   2.511   9.921
34813SOL    HW1 6272   9.401   2.421   9.889
34813SOL    HW2 6273   9.468   2.556   9.883
34814SOL     OW 6274   5.722  11.889   1.247
34814SOL    HW1 6275   5.795  11.840   1.284
34814SOL    HW2 6276   5.644  11.848   1.286
34815SOL     OW 6277   0.839   0.377  11.749
34815SOL    HW1 6278   0.879   0.397  11.834
34815SOL    HW2 6279   0.870   0.447  11.691
34816SOL     OW 6280   6.299   1.582   1.379
34816SOL    HW1 6281   6.265   1.643   1.313
34816SOL    HW2 6282   6.249   1.602   1.458
34817SOL     OW 6283   7.620   3.403   7.531
34817SOL    HW1 6284   7.667   3.372   7.608
34817SOL    HW2 6285   7.570   3.478   7.562
34818SOL     OW 6286   7.136   6.413   9.056
34818SOL    HW1 6287   7.098   6.422   8.968
34818SOL    HW2 6288   7.229   6.434   9.043
34819SOL     OW 6289   1.333   0.235   9.220
34819SOL    HW1 6290   1.324   0.188   9.137
34819SOL    HW2 6291   1.354   0.167   9.284
34820SOL     OW 6292   1.575   0.086   6.935
34820SOL    HW1 6293   1.557   0.093   7.029
34820SOL    HW2 6294   1.635   0.158   6.917
34821SOL     OW 6295   1.317   6.171  10.696
34821SOL    HW1 6296   1.343   6.253  10.654
34821SOL    HW2 6297   1.225   6.183  10.718
34822SOL     OW 6298   5.837   3.857   5.882
34822SOL    HW1 6299   5.830   3.941   5.927
34822SOL    HW2 6300   5.762   3.806   5.915
34823SOL     OW 6301  14.646  11.934   5.844
34823SOL    HW1 6302  14.554  11.917   5.866
34823SOL    HW2 6303  14.659  12.026   5.865
34824SOL     OW 6304  11.445   2.882   1.448
34824SOL    HW1 6305  11.409   2.801   1.483
34824SOL    HW2 6306  11.388   2.904   1.374
34825SOL     OW 6307  13.602   4.608  13.938
34825SOL    HW1 6308  13.517   4.604  13.893
34825SOL    HW2 6309  13.628   4.516  13.946
34826SOL     OW 6310   7.323   3.584   8.455
34826SOL    HW1 6311   7.229   3.599   8.452
34826SOL    HW2 6312   7.362   3.669   8.436
34827SOL     OW 6313   4.938   0.914  14.365
34827SOL    HW1 6314   4.859   0.957  14.395
34827SOL    HW2 6315   4.962   0.960  14.284
34828SOL     OW 6316   8.191  12.129   8.576
34828SOL    HW1 6317   8.189  12.090   8.489
34828SOL    HW2 6318   8.267  12.089   8.619
34829SOL     OW 6319   6.337  10.985   5.391
34829SOL    HW1 6320   6.410  10.946   5.343
34829SOL    HW2 6321   6.370  10.996   5.480
34830SOL     OW 6322   5.445   8.132   6.442
34830SOL    HW1 6323   5.488   8.051   6.414
34830SOL    HW2 6324   5.354   8.108   6.453
34831SOL     OW 6325  11.834  13.317   2.260
34831SOL    HW1 6326  11.804  13.401   2.295
34831SOL    HW2 6327  11.755  13.262   2.257
34832SOL     OW 6328   5.079   6.217   0.996
34832SOL    HW1 6329   5.124   6.299   1.012
34832SOL    HW2 6330   5.019   6.207   1.070
34833SOL     OW 6331  14.782   9.933   7.825
34833SOL    HW1 6332  14.832   9.910   7.746
34833SOL    HW2 6333  14.819   9.878   7.893
34834SOL     OW 6334   4.289  12.407   3.728
34834SOL    HW1 6335   4.346  12.373   3.659
34834SOL    HW2 6336   4.202  12.409   3.688
34835SOL     OW 6337   5.272  12.150  11.263
34835SOL    HW1 6338   5.265  12.211  11.337
34835SOL    HW2 6339   5.197  12.170  11.207
34836SOL     OW 6340   2.808  14.503   4.298
34836SOL    HW1 6341   2.862  14.429   4.322
34836SOL    HW2 6342   2.727  14.464   4.264
34837SOL     OW 6343  12.544   9.167   4.892
34837SOL    HW1 6344  12.550   9.182   4.987
34837SOL    HW2 6345  12.634   9.154   4.865
34838SOL     OW 6346  12.969   1.102   9.796
34838SOL    HW1 6347  13.020   1.179   9.772
34838SOL    HW2 6348  12.943   1.117   9.887
34839SOL     OW 6349  12.465  11.676   2.386
34839SOL    HW1 6350  12.530  11.687   2.455
34839SOL    HW2 6351  12.382  11.702   2.427
34840SOL     OW 6352   1.075  11.109  13.521
34840SOL    HW1 6353   1.096  11.058  13.599
34840SOL    HW2 6354   1.094  11.199  13.546
34841SOL     OW 6355   7.208   1.876  11.210
34841SOL    HW1 6356   7.201   1.829  11.127
34841SOL    HW2 6357   7.219   1.968  11.184
34842SOL     OW 6358   7.000  13.773   5.203
34842SOL    HW1 6359   7.036  13.687   5.179
34842SOL    HW2 6360   7.053  13.801   5.277
34843SOL     OW 6361   1.406   0.625   9.057
34843SOL    HW1 6362   1.366   0.703   9.019
34843SOL    HW2 6363   1.405   0.560   8.987
34844SOL     OW 6364  14.252   1.041   9.743
34844SOL    HW1 6365  14.273   1.096   9.818
34844SOL    HW2 6366  14.292   0.956   9.762
34845SOL     OW 6367  13.967   4.799   3.671
34845SOL    HW1 6368  13.901   4.745   3.627
34845SOL    HW2 6369  13.943   4.889   3.650
34846SOL     OW 6370  13.588   0.243   0.488
34846SOL    HW1 6371  13.589   0.284   0.402
34846SOL    HW2 6372  13.527   0.171   0.480
34847SOL     OW 6373   7.849   2.828  11.095
34847SOL    HW1 6374   7.840   2.919  11.123
34847SOL    HW2 6375   7.939   2.804  11.118
34848SOL     OW 6376  11.649  14.312   2.131
34848SOL    HW1 6377  11.704  14.378   2.089
34848SOL    HW2 6378  11.604  14.359   2.201
34849SOL     OW 6379  11.765   6.051  12.105
34849SOL    HW1 6380  11.671   6.065  12.111
34849SOL    HW2 6381  11.804   6.133  12.135
34850SOL     OW 6382   1.455  11.659  13.511
34850SOL    HW1 6383   1.549  11.642  13.522
34850SOL    HW2 6384   1.421  11.578  13.472
34851SOL     OW 6385  13.235   2.327   6.696
34851SOL    HW1 6386  13.265   2.381   6.768
34851SOL    HW2 6387  13.274   2.367   6.618
34852SOL     OW 6388  11.654   9.275   3.141
34852SOL    HW1 6389  11.747   9.292   3.157
34852SOL    HW2 6390  11.609   9.336   3.199
34853SOL     OW 6391   7.263   6.092   2.093
34853SOL    HW1 6392   7.176   6.096   2.133
34853SOL    HW2 6393   7.311   6.165   2.131
34854SOL     OW 6394   1.528   4.490   4.588
34854SOL    HW1 6395   1.533   4.578   4.549
34854SOL    HW2 6396   1.612   4.450   4.567
34855SOL     OW 6397   9.307   1.640  10.891
34855SOL    HW1 6398   9.250   1.715  10.873
34855SOL    HW2 6399   9.261   1.591  10.958
34856SOL     OW 6400  13.607   4.147   1.870
34856SOL    HW1 6401  13.682   4.205   1.855
34856SOL    HW2 6402  13.645   4.062   1.889
34857SOL     OW 6403   5.349   2.474   9.812
34857SOL    HW1 6404   5.429   2.473   9.761
34857SOL    HW2 6405   5.290   2.414   9.766
34858SOL     OW 6406   0.108  14.443   8.729
34858SOL    HW1 6407   0.120  14.498   8.652
34858SOL    HW2 6408   0.108  14.504   8.802
34859SOL     OW 6409   1.879   7.903   5.813
34859SOL    HW1 6410   1.890   7.824   5.759
34859SOL    HW2 6411   1.907   7.876   5.900
34860SOL     OW 6412  12.073   5.822   7.722
34860SOL    HW1 6413  12.097   5.731   7.739
34860SOL    HW2 6414  12.140   5.853   7.662
34861SOL     OW 6415  11.067   3.254  12.189
34861SOL    HW1 6416  10.983   3.299  12.175
34861SOL    HW2 6417  11.060   3.217  12.277
34862SOL     OW 6418   9.795   4.163   0.559
34862SOL    HW1 6419   9.811   4.213   0.639
34862SOL    HW2 6420   9.714   4.199   0.524
34863SOL     OW 6421   9.759   2.375   7.149
34863SOL    HW1 6422   9.729   2.285   7.158
34863SOL    HW2 6423   9.753   2.411   7.238
34864SOL     OW 6424  12.152   8.010   2.736
34864SOL    HW1 6425  12.163   8.005   2.641
34864SOL    HW2 6426  12.145   8.103   2.755
34865SOL     OW 6427   4.957   6.532   9.290
34865SOL    HW1 6428   4.881   6.487   9.252
34865SOL    HW2 6429   5.022   6.463   9.302
34866SOL     OW 6430  11.407   3.525  11.606
34866SOL    HW1 6431  11.392   3.593  11.672
34866SOL    HW2 6432  11.338   3.461  11.622
34867SOL     OW 6433   3.722   4.991  11.825
34867SOL    HW1 6434   3.640   4.974  11.779
34867SOL    HW2 6435   3.767   4.907  11.828
34868SOL     OW 6436   3.254   4.966   1.738
34868SOL    HW1 6437   3.220   4.906   1.805
34868SOL    HW2 6438   3.327   4.919   1.699
34869SOL     OW 6439  12.030   6.991   5.324
34869SOL    HW1 6440  12.054   6.973   5.415
34869SOL    HW2 6441  11.941   6.957   5.315
34870SOL     OW 6442  12.124   2.529   3.579
34870SOL    HW1 6443  12.066   2.498   3.649
34870SOL    HW2 6444  12.089   2.615   3.556
34871SOL     OW 6445   4.715   0.480  11.789
34871SOL    HW1 6446   4.690   0.388  11.789
34871SOL    HW2 6447   4.637   0.526  11.759
34872SOL     OW 6448   1.126   2.826  11.950
34872SOL    HW1 6449   1.196   2.881  11.984
34872SOL    HW2 6450   1.097   2.775  12.025
34873SOL     OW 6451   4.342  12.372   2.157
34873SOL    HW1 6452   4.354  12.329   2.242
34873SOL    HW2 6453   4.254  12.411   2.163
34874SOL     OW 6454  10.284   0.843   6.954
34874SOL    HW1 6455  10.336   0.877   7.027
34874SOL    HW2 6456  10.286   0.912   6.888
34875SOL     OW 6457   3.837   6.207   6.241
34875SOL    HW1 6458   3.930   6.187   6.229
34875SOL    HW2 6459   3.803   6.211   6.151
34876SOL     OW 6460   0.619  10.117  14.493
34876SOL    HW1 6461   0.526  10.097  14.479
34876SOL    HW2 6462   0.658  10.109  14.406
34877SOL     OW 6463   9.582  12.770   4.487
34877SOL    HW1 6464   9.558  12.717   4.564
34877SOL    HW2 6465   9.524  12.847   4.492
34878SOL     OW 6466   8.068   2.296   5.266
34878SOL    HW1 6467   8.044   2.385   5.293
34878SOL    HW2 6468   8.157   2.304   5.232
34879SOL     OW 6469  14.866  12.146   5.625
34879SOL    HW1 6470  14.858  12.069   5.569
34879SOL    HW2 6471  14.776  12.174   5.640
34880SOL     OW 6472   7.798   5.430   6.007
34880SOL    HW1 6473   7.779   5.468   6.093
34880SOL    HW2 6474   7.724   5.373   5.989
34881SOL     OW 6475   0.201   3.917   5.401
34881SOL    HW1 6476   0.129   3.858   5.379
34881SOL    HW2 6477   0.271   3.860   5.431
34882SOL     OW 6478  12.385   5.951   9.450
34882SOL    HW1 6479  12.336   5.995   9.380
34882SOL    HW2 6480  12.418   6.022   9.505
34883SOL     OW 6481  11.701   6.265   9.993
34883SOL    HW1 6482  11.723   6.182   9.951
34883SOL    HW2 6483  11.761   6.271  10.067
34884SOL     OW 6484   2.608   1.171  10.184
34884SOL    HW1 6485   2.553   1.146  10.110
34884SOL    HW2 6486   2.611   1.092  10.239
34885SOL     OW 6487  14.350   6.684   6.084
34885SOL    HW1 6488  14.399   6.638   6.016
34885SOL    HW2 6489  14.371   6.777   6.071
34886SOL     OW 6490  11.114  10.583   0.633
34886SOL    HW1 6491  11.105  10.641   0.709
34886SOL    HW2 6492  11.160  10.506   0.668
34887SOL     OW 6493   6.284  13.006   1.428
34887SOL    HW1 6494   6.364  13.054   1.406
34887SOL    HW2 6495   6.307  12.914   1.416
34888SOL     OW 6496  12.457  11.435   1.373
34888SOL    HW1 6497  12.505  11.517   1.367
34888SOL    HW2 6498  12.499  11.388   1.445
34889SOL     OW 6499  11.268  14.320  12.529
34889SOL    HW1 6500  11.357  14.317  12.493
34889SOL    HW2 6501  11.248  14.414  12.535
34890SOL     OW 6502   6.215   7.384   9.930
34890SOL    HW1 6503   6.307   7.383   9.902
34890SOL    HW2 6504   6.195   7.477   9.942
34891SOL     OW 6505  13.737  12.764   5.054
34891SOL    HW1 6506  13.750  12.670   5.047
34891SOL    HW2 6507  13.814  12.802   5.012
34892SOL     OW 6508   3.678   9.548   0.470
34892SOL    HW1 6509   3.771   9.535   0.489
34892SOL    HW2 6510   3.676   9.584   0.381
34893SOL     OW 6511  11.863   3.260  11.930
34893SOL    HW1 6512  11.780   3.305  11.916
34893SOL    HW2 6513  11.926   3.310  11.876
34894SOL     OW 6514  14.717   7.322   4.666
34894SOL    HW1 6515  14.756   7.405   4.693
34894SOL    HW2 6516  14.684   7.284   4.748
34895SOL     OW 6517   0.343   6.302   7.706
34895SOL    HW1 6518   0.413   6.365   7.687
34895SOL    HW2 6519   0.306   6.280   7.620
34896SOL     OW 6520   0.834   7.372   1.311
34896SOL    HW1 6521   0.866   7.434   1.245
34896SOL    HW2 6522   0.911   7.326   1.341
34897SOL     OW 6523  11.793   5.181   7.957
34897SOL    HW1 6524  11.752   5.260   7.924
34897SOL    HW2 6525  11.780   5.116   7.888
34898SOL     OW 6526   3.164  11.698  11.361
34898SOL    HW1 6527   3.107  11.622  11.358
34898SOL    HW2 6528   3.128  11.758  11.296
34899SOL     OW 6529   7.261   7.114  13.710
34899SOL    HW1 6530   7.269   7.178  13.782
34899SOL    HW2 6531   7.268   7.167  13.631
34900SOL     OW 6532   4.008  10.455   8.299
34900SOL    HW1 6533   4.008  10.444   8.204
34900SOL    HW2 6534   3.932  10.511   8.316
34901SOL     OW 6535   0.551   4.722   4.079
34901SOL    HW1 6536   0.539   4.698   4.171
34901SOL    HW2 6537   0.537   4.816   4.077
34902SOL     OW 6538   4.562  13.783   3.130
34902SOL    HW1 6539   4.512  13.864   3.143
34902SOL    HW2 6540   4.506  13.728   3.075
34903SOL     OW 6541   9.050  13.694   8.161
34903SOL    HW1 6542   9.144  13.690   8.143
34903SOL    HW2 6543   9.042  13.754   8.235
34904SOL     OW 6544   8.767  14.468   4.853
34904SOL    HW1 6545   8.783  14.374   4.846
34904SOL    HW2 6546   8.853  14.505   4.875
34905SOL     OW 6547  12.206   7.319  14.620
34905SOL    HW1 6548  12.118   7.284  14.606
34905SOL    HW2 6549  12.259   7.283  14.550
34906SOL     OW 6550   5.572   0.820   1.131
34906SOL    HW1 6551   5.544   0.871   1.054
34906SOL    HW2 6552   5.666   0.834   1.136
34907SOL     OW 6553  12.759   9.104  13.704
34907SOL    HW1 6554  12.711   9.026  13.676
34907SOL    HW2 6555  12.847   9.071  13.723
34908SOL     OW 6556   5.568  10.298  11.619
34908SOL    HW1 6557   5.581  10.360  11.691
34908SOL    HW2 6558   5.597  10.345  11.541
34909SOL     OW 6559  14.542   3.366   0.048
34909SOL    HW1 6560  14.452   3.381   0.019
34909SOL    HW2 6561  14.536   3.356   0.143
34910SOL     OW 6562   8.558   9.126  12.684
34910SOL    HW1 6563   8.544   9.159  12.595
34910SOL    HW2 6564   8.550   9.031  12.676
34911SOL     OW 6565   1.110   9.582  12.226
34911SOL    HW1 6566   1.170   9.512  12.200
34911SOL    HW2 6567   1.083   9.623  12.144
34912SOL     OW 6568   3.134   4.018  10.652
34912SOL    HW1 6569   3.160   4.019  10.744
34912SOL    HW2 6570   3.204   4.066  10.607
34913SOL     OW 6571   4.942  11.376   6.552
34913SOL    HW1 6572   4.862  11.323   6.555
34913SOL    HW2 6573   5.003  11.324   6.499
34914SOL     OW 6574   0.313  10.941   0.696
34914SOL    HW1 6575   0.283  11.029   0.674
34914SOL    HW2 6576   0.408  10.948   0.701
34915SOL     OW 6577  10.685   8.355   5.814
34915SOL    HW1 6578  10.781   8.349   5.809
34915SOL    HW2 6579  10.655   8.266   5.797
34916SOL     OW 6580   4.918   1.747   0.269
34916SOL    HW1 6581   4.966   1.697   0.203
34916SOL    HW2 6582   4.868   1.681   0.318
34917SOL     OW 6583  10.250  12.219  11.256
34917SOL    HW1 6584  10.162  12.201  11.290
34917SOL    HW2 6585  10.235  12.268  11.175
34918SOL     OW 6586   4.655   0.550   3.205
34918SOL    HW1 6587   4.609   0.474   3.241
34918SOL    HW2 6588   4.744   0.543   3.238
34919SOL     OW 6589   6.263   2.964   6.446
34919SOL    HW1 6590   6.270   2.936   6.354
34919SOL    HW2 6591   6.249   2.883   6.495
34920SOL     OW 6592   9.035   5.111   9.784
34920SOL    HW1 6593   9.050   5.205   9.781
34920SOL    HW2 6594   9.072   5.078   9.702
34921SOL     OW 6595   5.947  10.436   2.026
34921SOL    HW1 6596   5.872  10.391   2.064
34921SOL    HW2 6597   5.928  10.529   2.039
34922SOL     OW 6598  14.174   4.345  13.565
34922SOL    HW1 6599  14.125   4.370  13.487
34922SOL    HW2 6600  14.244   4.288  13.532
34923SOL     OW 6601   6.462   9.728   4.148
34923SOL    HW1 6602   6.396   9.699   4.210
34923SOL    HW2 6603   6.531   9.767   4.202
34924SOL     OW 6604  14.190   6.392   2.605
34924SOL    HW1 6605  14.175   6.315   2.661
34924SOL    HW2 6606  14.237   6.357   2.530
34925SOL     OW 6607   2.846   2.018  13.765
34925SOL    HW1 6608   2.933   2.027  13.726
34925SOL    HW2 6609   2.832   2.101  13.812
34926SOL     OW 6610   9.838   3.576   7.789
34926SOL    HW1 6611   9.756   3.527   7.797
34926SOL    HW2 6612   9.810   3.668   7.788
34927SOL     OW 6613   4.601   6.446  10.368
34927SOL    HW1 6614   4.656   6.523  10.381
34927SOL    HW2 6615   4.577   6.418  10.456
34928SOL     OW 6616   5.607   6.804   0.450
34928SOL    HW1 6617   5.593   6.883   0.502
34928SOL    HW2 6618   5.656   6.746   0.509
34929SOL     OW 6619   6.015   7.622   5.202
34929SOL    HW1 6620   6.082   7.554   5.215
34929SOL    HW2 6621   6.063   7.696   5.166
34930SOL     OW 6622   7.523   1.645   3.565
34930SOL    HW1 6623   7.443   1.691   3.591
34930SOL    HW2 6624   7.491   1.565   3.523
34931SOL     OW 6625   4.993   2.452   9.587
34931SOL    HW1 6626   5.076   2.407   9.575
34931SOL    HW2 6627   5.013   2.544   9.570
34932SOL     OW 6628   1.562   8.526   0.035
34932SOL    HW1 6629   1.601   8.580   0.103
34932SOL    HW2 6630   1.482   8.491   0.075
34933SOL     OW 6631   5.287   8.808  10.940
34933SOL    HW1 6632   5.274   8.901  10.921
34933SOL    HW2 6633   5.224   8.763  10.884
34934SOL     OW 6634  11.528   6.152   9.261
34934SOL    HW1 6635  11.565   6.063   9.265
34934SOL    HW2 6636  11.596   6.207   9.300
34935SOL     OW 6637  11.908   4.846   7.209
34935SOL    HW1 6638  11.947   4.803   7.285
34935SOL    HW2 6639  11.813   4.839   7.223
34936SOL     OW 6640   9.747   8.599  13.595
34936SOL    HW1 6641   9.804   8.523  13.608
34936SOL    HW2 6642   9.690   8.600  13.671
34937SOL     OW 6643   7.235   5.918  11.222
34937SOL    HW1 6644   7.330   5.919  11.229
34937SOL    HW2 6645   7.215   5.840  11.169
34938SOL     OW 6646  13.551   8.538  10.517
34938SOL    HW1 6647  13.609   8.610  10.540
34938SOL    HW2 6648  13.536   8.548  10.423
34939SOL     OW 6649   3.208   6.936   1.352
34939SOL    HW1 6650   3.181   6.851   1.388
34939SOL    HW2 6651   3.153   7.000   1.398
34940SOL     OW 6652   0.799   7.856   5.477
34940SOL    HW1 6653   0.807   7.946   5.510
34940SOL    HW2 6654   0.848   7.803   5.540
34941SOL     OW 6655  12.325  11.562   5.311
34941SOL    HW1 6656  12.329  11.475   5.352
34941SOL    HW2 6657  12.336  11.545   5.217
34942SOL     OW 6658   4.561   3.481   7.561
34942SOL    HW1 6659   4.493   3.487   7.627
34942SOL    HW2 6660   4.528   3.416   7.498
34943SOL     OW 6661  13.308   3.282  10.638
34943SOL    HW1 6662  13.306   3.229  10.718
34943SOL    HW2 6663  13.291   3.219  10.567
34944SOL     OW 6664   7.119  14.077  13.911
34944SOL    HW1 6665   7.134  14.163  13.950
34944SOL    HW2 6666   7.162  14.015  13.971
34945SOL     OW 6667   8.886   0.704   3.529
34945SOL    HW1 6668   8.889   0.707   3.433
34945SOL    HW2 6669   8.801   0.742   3.551
34946SOL     OW 6670   9.104   2.789   1.521
34946SOL    HW1 6671   9.075   2.829   1.603
34946SOL    HW2 6672   9.180   2.841   1.494
34947SOL     OW 6673   4.270  13.509   7.446
34947SOL    HW1 6674   4.339  13.537   7.505
34947SOL    HW2 6675   4.231  13.590   7.414
34948SOL     OW 6676   8.715   4.358  10.647
34948SOL    HW1 6677   8.779   4.353  10.718
34948SOL    HW2 6678   8.744   4.432  10.593
34949SOL     OW 6679  10.262  11.933  10.110
34949SOL    HW1 6680  10.268  11.942  10.015
34949SOL    HW2 6681  10.345  11.969  10.142
34950SOL     OW 6682  13.901   2.901   7.502
34950SOL    HW1 6683  13.886   2.986   7.461
34950SOL    HW2 6684  13.986   2.874   7.470
34951SOL     OW 6685   3.649   4.617  10.358
34951SOL    HW1 6686   3.670   4.709  10.377
34951SOL    HW2 6687   3.677   4.605  10.267
34952SOL     OW 6688   0.347   7.550   3.602
34952SOL    HW1 6689   0.406   7.608   3.651
34952SOL    HW2 6690   0.389   7.464   3.606
34953SOL     OW 6691   5.582  10.100  13.544
34953SOL    HW1 6692   5.554  10.013  13.571
34953SOL    HW2 6693   5.527  10.159  13.596
34954SOL     OW 6694   7.512   6.653   8.316
34954SOL    HW1 6695   7.503   6.723   8.380
34954SOL    HW2 6696   7.601   6.619   8.328
34955SOL     OW 6697  11.350  10.570   5.426
34955SOL    HW1 6698  11.293  10.577   5.503
34955SOL    HW2 6699  11.438  10.572   5.462
34956SOL     OW 6700  13.115   7.619   5.670
34956SOL    HW1 6701  13.202   7.654   5.650
34956SOL    HW2 6702  13.076   7.684   5.729
34957SOL     OW 6703   5.586   8.798  11.376
34957SOL    HW1 6704   5.569   8.891  11.389
34957SOL    HW2 6705   5.556   8.780  11.287
34958SOL     OW 6706   6.755  10.939   8.370
34958SOL    HW1 6707   6.732  11.029   8.347
34958SOL    HW2 6708   6.731  10.888   8.293
34959SOL     OW 6709   2.861  12.563  12.951
34959SOL    HW1 6710   2.866  12.635  12.888
34959SOL    HW2 6711   2.888  12.486  12.901
34960SOL     OW 6712   6.387   2.204   3.107
34960SOL    HW1 6713   6.368   2.122   3.153
34960SOL    HW2 6714   6.414   2.176   3.019
34961SOL     OW 6715   7.399   0.020   4.630
34961SOL    HW1 6716   7.405   0.073   4.550
34961SOL    HW2 6717   7.471  14.836   4.623
34962SOL     OW 6718   8.209   9.359   0.564
34962SOL    HW1 6719   8.122   9.319   0.560
34962SOL    HW2 6720   8.215   9.395   0.653
34963SOL     OW 6721   6.898   1.384  10.158
34963SOL    HW1 6722   6.815   1.346  10.130
34963SOL    HW2 6723   6.919   1.339  10.240
34964SOL     OW 6724   9.182   1.306  14.067
34964SOL    HW1 6725   9.200   1.212  14.063
34964SOL    HW2 6726   9.221   1.335  14.149
34965SOL     OW 6727   5.021  10.328   8.706
34965SOL    HW1 6728   4.974  10.327   8.622
34965SOL    HW2 6729   4.992  10.247   8.750
34966SOL     OW 6730  11.500  14.842   7.672
34966SOL    HW1 6731  11.593  14.829   7.692
34966SOL    HW2 6732  11.466   0.016   7.743
34967SOL     OW 6733   4.761  13.512  12.247
34967SOL    HW1 6734   4.760  13.490  12.154
34967SOL    HW2 6735   4.702  13.587  12.255
34968SOL     OW 6736   4.097  10.801  13.775
34968SOL    HW1 6737   4.100  10.851  13.693
34968SOL    HW2 6738   4.168  10.837  13.827
34969SOL     OW 6739   9.539   8.194   1.125
34969SOL    HW1 6740   9.493   8.264   1.078
34969SOL    HW2 6741   9.619   8.180   1.075
34970SOL     OW 6742  11.743  10.622  14.196
34970SOL    HW1 6743  11.750  10.535  14.236
34970SOL    HW2 6744  11.650  10.644  14.203
34971SOL     OW 6745  12.540   1.480  12.372
34971SOL    HW1 6746  12.529   1.465  12.466
34971SOL    HW2 6747  12.471   1.542  12.350
34972SOL     OW 6748   4.454  11.772   3.175
34972SOL    HW1 6749   4.451  11.708   3.103
34972SOL    HW2 6750   4.385  11.743   3.235
34973SOL     OW 6751   8.579  11.940   7.062
34973SOL    HW1 6752   8.536  11.934   6.976
34973SOL    HW2 6753   8.510  11.919   7.125
34974SOL     OW 6754   0.570   0.265   3.178
34974SOL    HW1 6755   0.549   0.179   3.212
34974SOL    HW2 6756   0.514   0.325   3.226
34975SOL     OW 6757   1.723   9.440  12.868
34975SOL    HW1 6758   1.688   9.518  12.824
34975SOL    HW2 6759   1.731   9.375  12.799
34976SOL     OW 6760   9.136  13.782   7.862
34976SOL    HW1 6761   9.052  13.792   7.907
34976SOL    HW2 6762   9.127  13.836   7.784
34977SOL     OW 6763  12.115   2.281  14.057
34977SOL    HW1 6764  12.167   2.331  14.121
34977SOL    HW2 6765  12.176   2.263  13.986
34978SOL     OW 6766  13.147  10.117   8.844
34978SOL    HW1 6767  13.128  10.199   8.889
34978SOL    HW2 6768  13.242  10.105   8.855
34979SOL     OW 6769  11.010  13.989   3.878
34979SOL    HW1 6770  10.965  14.071   3.895
34979SOL    HW2 6771  11.069  14.007   3.805
34980SOL     OW 6772   5.103   2.868   8.701
34980SOL    HW1 6773   5.099   2.949   8.650
34980SOL    HW2 6774   5.179   2.822   8.666
34981SOL     OW 6775   2.183   3.976   0.770
34981SOL    HW1 6776   2.091   4.002   0.769
34981SOL    HW2 6777   2.182   3.881   0.766
34982SOL     OW 6778  11.778   8.213  10.742
34982SOL    HW1 6779  11.851   8.210  10.804
34982SOL    HW2 6780  11.740   8.125  10.745
34983SOL     OW 6781   9.607   7.968   8.520
34983SOL    HW1 6782   9.630   7.877   8.539
34983SOL    HW2 6783   9.690   8.015   8.523
34984SOL     OW 6784   6.541  10.189  10.510
34984SOL    HW1 6785   6.570  10.124  10.446
34984SOL    HW2 6786   6.620  10.214  10.557
34985SOL     OW 6787   1.687   4.429  11.468
34985SOL    HW1 6788   1.646   4.384  11.542
34985SOL    HW2 6789   1.703   4.359  11.404
34986SOL     OW 6790  13.702   4.033   6.830
34986SOL    HW1 6791  13.643   3.996   6.897
34986SOL    HW2 6792  13.657   4.112   6.800
34987SOL     OW 6793  13.601   1.221   3.352
34987SOL    HW1 6794  13.682   1.212   3.403
34987SOL    HW2 6795  13.550   1.144   3.376
34988SOL     OW 6796   1.524   3.117  12.478
34988SOL    HW1 6797   1.544   3.041  12.423
34988SOL    HW2 6798   1.473   3.175  12.422
34989SOL     OW 6799   1.775   9.687   5.309
34989SOL    HW1 6800   1.800   9.760   5.252
34989SOL    HW2 6801   1.764   9.726   5.395
34990SOL     OW 6802  11.389  11.388   3.520
34990SOL    HW1 6803  11.438  11.356   3.596
34990SOL    HW2 6804  11.318  11.325   3.509
34991SOL     OW 6805   4.498   7.754   7.650
34991SOL    HW1 6806   4.594   7.755   7.661
34991SOL    HW2 6807   4.467   7.698   7.721
34992SOL     OW 6808   8.131   1.926   3.273
34992SOL    HW1 6809   8.186   1.851   3.252
34992SOL    HW2 6810   8.194   1.996   3.292
34993SOL     OW 6811   6.332  13.208   7.139
34993SOL    HW1 6812   6.281  13.128   7.146
34993SOL    HW2 6813   6.414  13.181   7.099
34994SOL     OW 6814   4.279   4.668   7.916
34994SOL    HW1 6815   4.361   4.620   7.927
34994SOL    HW2 6816   4.218   4.603   7.880
34995SOL     OW 6817   9.662   1.238   3.478
34995SOL    HW1 6818   9.665   1.306   3.545
34995SOL    HW2 6819   9.619   1.163   3.520
34996SOL     OW 6820   0.340   4.226   1.653
34996SOL    HW1 6821   0.390   4.293   1.607
34996SOL    HW2 6822   0.398   4.199   1.725
34997SOL     OW 6823   5.088   1.455   8.378
34997SOL    HW1 6824   5.110   1.377   8.325
34997SOL    HW2 6825   5.173   1.490   8.404
34998SOL     OW 6826   4.752   4.718   1.715
34998SOL    HW1 6827   4.748   4.806   1.676
34998SOL    HW2 6828   4.816   4.727   1.786
34999SOL     OW 6829   0.462   4.386   9.706
34999SOL    HW1 6830   0.477   4.479   9.724
34999SOL    HW2 6831   0.445   4.348   9.792
35000SOL     OW 6832  13.584   8.703   9.865
35000SOL    HW1 6833  13.564   8.749   9.946
35000SOL    HW2 6834  13.654   8.753   9.825
35001SOL     OW 6835   3.688   5.886   4.883
35001SOL    HW1 6836   3.746   5.961   4.901
35001SOL    HW2 6837   3.625   5.886   4.955
35002SOL     OW 6838   6.036  12.883  12.564
35002SOL    HW1 6839   6.096  12.813  12.590
35002SOL    HW2 6840   6.070  12.914  12.480
35003SOL     OW 6841  11.636   8.407   4.579
35003SOL    HW1 6842  11.619   8.341   4.646
35003SOL    HW2 6843  11.552   8.449   4.564
35004SOL     OW 6844   6.681   8.375  10.903
35004SOL    HW1 6845   6.626   8.338  10.834
35004SOL    HW2 6846   6.620   8.394  10.975
35005SOL     OW 6847   8.190   8.107  12.556
35005SOL    HW1 6848   8.256   8.130  12.490
35005SOL    HW2 6849   8.179   8.012  12.546
35006SOL     OW 6850   4.424   4.125   2.224
35006SOL    HW1 6851   4.513   4.119   2.189
35006SOL    HW2 6852   4.402   4.217   2.216
35007SOL     OW 6853  13.920  14.344   8.776
35007SOL    HW1 6854  13.999  14.342   8.722
35007SOL    HW2 6855  13.941  14.403   8.848
35008SOL     OW 6856  13.508   7.873   1.532
35008SOL    HW1 6857  13.498   7.879   1.627
35008SOL    HW2 6858  13.602   7.878   1.517
35009SOL     OW 6859  13.251   5.014   1.424
35009SOL    HW1 6860  13.329   5.056   1.390
35009SOL    HW2 6861  13.257   4.924   1.392
35010SOL     OW 6862   6.840  14.520   2.978
35010SOL    HW1 6863   6.894  14.458   2.928
35010SOL    HW2 6864   6.890  14.602   2.976
35011SOL     OW 6865  14.636   1.714   8.100
35011SOL    HW1 6866  14.689   1.643   8.137
35011SOL    HW2 6867  14.547   1.694   8.128
35012SOL     OW 6868   2.394   8.235   1.038
35012SOL    HW1 6869   2.372   8.314   1.088
35012SOL    HW2 6870   2.326   8.230   0.971
35013SOL     OW 6871   1.693   0.078   9.473
35013SOL    HW1 6872   1.668   0.077   9.380
35013SOL    HW2 6873   1.727  14.870   9.490
35014SOL     OW 6874   2.208  10.800   2.921
35014SOL    HW1 6875   2.271  10.805   2.993
35014SOL    HW2 6876   2.235  10.868   2.860
35015SOL     OW 6877   8.565   7.350   8.901
35015SOL    HW1 6878   8.622   7.419   8.933
35015SOL    HW2 6879   8.477   7.380   8.922
35016SOL     OW 6880   1.584  13.597  10.038
35016SOL    HW1 6881   1.543  13.660   9.978
35016SOL    HW2 6882   1.510  13.551  10.077
35017SOL     OW 6883  14.802  14.710   7.403
35017SOL    HW1 6884  14.860  14.781   7.431
35017SOL    HW2 6885  14.855  14.660   7.341
35018SOL     OW 6886   3.084   9.996  13.187
35018SOL    HW1 6887   3.145   9.958  13.124
35018SOL    HW2 6888   3.137  10.010  13.266
35019SOL     OW 6889   8.479  14.793  12.718
35019SOL    HW1 6890   8.484  14.829  12.806
35019SOL    HW2 6891   8.553  14.733  12.712
35020SOL     OW 6892   2.885   3.513   7.765
35020SOL    HW1 6893   2.934   3.519   7.683
35020SOL    HW2 6894   2.846   3.426   7.764
35021SOL     OW 6895  13.027   5.728   0.122
35021SOL    HW1 6896  12.992   5.767   0.202
35021SOL    HW2 6897  13.120   5.716   0.140
35022SOL     OW 6898   8.757   7.044   5.895
35022SOL    HW1 6899   8.753   7.137   5.920
35022SOL    HW2 6900   8.744   7.044   5.800
35023SOL     OW 6901   4.522   2.419   7.728
35023SOL    HW1 6902   4.540   2.343   7.674
35023SOL    HW2 6903   4.434   2.446   7.704
35024SOL     OW 6904  10.921   6.927  14.701
35024SOL    HW1 6905  10.870   6.902  14.624
35024SOL    HW2 6906  10.892   7.016  14.721
35025SOL     OW 6907   8.948   5.311  11.051
35025SOL    HW1 6908   8.898   5.324  11.132
35025SOL    HW2 6909   8.952   5.398  11.012
35026SOL     OW 6910   7.480   7.461  11.025
35026SOL    HW1 6911   7.547   7.463  11.094
35026SOL    HW2 6912   7.454   7.370  11.018
35027SOL     OW 6913   9.874   3.664   4.819
35027SOL    HW1 6914   9.892   3.610   4.896
35027SOL    HW2 6915   9.802   3.721   4.847
35028SOL     OW 6916   2.685  10.455   1.400
35028SOL    HW1 6917   2.730  10.469   1.316
35028SOL    HW2 6918   2.603  10.504   1.391
35029SOL     OW 6919   3.285   2.943   9.004
35029SOL    HW1 6920   3.302   2.852   8.981
35029SOL    HW2 6921   3.324   2.993   8.932
35030SOL     OW 6922  11.713   2.020  13.269
35030SOL    HW1 6923  11.763   2.065  13.201
35030SOL    HW2 6924  11.774   1.957  13.307
35031SOL     OW 6925   7.263  14.795   2.074
35031SOL    HW1 6926   7.208  14.800   2.152
35031SOL    HW2 6927   7.315  14.716   2.086
35032SOL     OW 6928   3.557   3.019  12.447
35032SOL    HW1 6929   3.468   3.053  12.446
35032SOL    HW2 6930   3.602   3.072  12.513
35033SOL     OW 6931  10.474  10.047   2.724
35033SOL    HW1 6932  10.437  10.041   2.636
35033SOL    HW2 6933  10.401  10.075   2.779
35034SOL     OW 6934   1.415  10.764   6.057
35034SOL    HW1 6935   1.486  10.711   6.022
35034SOL    HW2 6936   1.439  10.779   6.149
35035SOL     OW 6937   1.936   3.450   7.988
35035SOL    HW1 6938   1.969   3.399   7.914
35035SOL    HW2 6939   1.911   3.384   8.053
35036SOL     OW 6940   1.164   0.574  11.012
35036SOL    HW1 6941   1.175   0.631  11.087
35036SOL    HW2 6942   1.243   0.520  11.010
35037SOL     OW 6943  14.108  11.585  13.887
35037SOL    HW1 6944  14.020  11.603  13.922
35037SOL    HW2 6945  14.110  11.490  13.877
35038SOL     OW 6946  11.579   4.584   8.127
35038SOL    HW1 6947  11.487   4.571   8.107
35038SOL    HW2 6948  11.580   4.658   8.188
35039SOL     OW 6949   7.493   8.310  10.088
35039SOL    HW1 6950   7.498   8.390  10.035
35039SOL    HW2 6951   7.562   8.254  10.055
35040SOL     OW 6952   0.473   8.520   2.346
35040SOL    HW1 6953   0.434   8.434   2.328
35040SOL    HW2 6954   0.406   8.583   2.317
35041SOL     OW 6955  13.443   2.572   1.129
35041SOL    HW1 6956  13.478   2.497   1.081
35041SOL    HW2 6957  13.520   2.621   1.156
35042SOL     OW 6958  10.076  11.486  12.149
35042SOL    HW1 6959   9.991  11.466  12.188
35042SOL    HW2 6960  10.136  11.420  12.184
35043SOL     OW 6961  12.890   0.081  13.500
35043SOL    HW1 6962  12.826   0.142  13.536
35043SOL    HW2 6963  12.950   0.135  13.449
35044SOL     OW 6964   0.513   2.760   2.375
35044SOL    HW1 6965   0.443   2.764   2.309
35044SOL    HW2 6966   0.525   2.851   2.402
35045SOL     OW 6967  13.970  12.868   0.010
35045SOL    HW1 6968  13.925  12.821  14.820
35045SOL    HW2 6969  13.984  12.956  14.854
35046SOL     OW 6970   3.702   4.990   7.716
35046SOL    HW1 6971   3.700   4.901   7.751
35046SOL    HW2 6972   3.795   5.010   7.707
35047SOL     OW 6973  11.489   6.098   6.660
35047SOL    HW1 6974  11.409   6.082   6.611
35047SOL    HW2 6975  11.553   6.038   6.621
35048SOL     OW 6976   8.544   5.311   5.724
35048SOL    HW1 6977   8.508   5.396   5.750
35048SOL    HW2 6978   8.639   5.322   5.729
35049SOL     OW 6979   2.192  10.890   9.057
35049SOL    HW1 6980   2.237  10.960   9.011
35049SOL    HW2 6981   2.262  10.841   9.101
35050SOL     OW 6982  12.181  14.753  10.061
35050SOL    HW1 6983  12.180  14.705   9.978
35050SOL    HW2 6984  12.096  14.734  10.101
35051SOL     OW 6985   0.960  11.814   2.990
35051SOL    HW1 6986   0.924  11.901   2.973
35051SOL    HW2 6987   0.884  11.761   3.014
35052SOL     OW 6988   3.352  11.238  12.679
35052SOL    HW1 6989   3.343  11.223  12.585
35052SOL    HW2 6990   3.319  11.158  12.720
35053SOL     OW 6991   5.006   8.021  10.053
35053SOL    HW1 6992   4.958   7.938  10.048
35053SOL    HW2 6993   5.074   8.005  10.118
35054SOL     OW 6994   2.714  13.477  12.348
35054SOL    HW1 6995   2.808  13.459  12.356
35054SOL    HW2 6996   2.684  13.416  12.281
35055SOL     OW 6997   4.832   1.369   3.167
35055SOL    HW1 6998   4.818   1.384   3.260
35055SOL    HW2 6999   4.785   1.440   3.124
35056SOL     OW 7000   8.578  10.519  14.612
35056SOL    HW1 7001   8.533  10.593  14.572
35056SOL    HW2 7002   8.513  10.480  14.670
35057SOL     OW 7003   5.108  13.838   4.588
35057SOL    HW1 7004   5.162  13.787   4.528
35057SOL    HW2 7005   5.018  13.821   4.559
35058SOL     OW 7006  11.059   6.157   7.728
35058SOL    HW1 7007  11.014   6.162   7.812
35058SOL    HW2 7008  10.990   6.169   7.663
35059SOL     OW 7009  14.212  11.386   0.442
35059SOL    HW1 7010  14.213  11.440   0.521
35059SOL    HW2 7011  14.212  11.448   0.370
35060SOL     OW 7012   0.251   1.381   9.395
35060SOL    HW1 7013   0.308   1.329   9.339
35060SOL    HW2 7014   0.297   1.388   9.478
35061SOL     OW 7015  13.895   6.153  14.325
35061SOL    HW1 7016  13.828   6.217  14.348
35061SOL    HW2 7017  13.977   6.202  14.328
35062SOL     OW 7018   3.870   3.219  10.116
35062SOL    HW1 7019   3.824   3.138  10.092
35062SOL    HW2 7020   3.888   3.209  10.210
35063SOL     OW 7021   1.118   7.399   4.686
35063SOL    HW1 7022   1.087   7.310   4.670
35063SOL    HW2 7023   1.043   7.444   4.726
35064SOL     OW 7024   1.956   7.320   5.293
35064SOL    HW1 7025   1.907   7.402   5.295
35064SOL    HW2 7026   2.032   7.338   5.239
35065SOL     OW 7027  11.399  13.383  12.544
35065SOL    HW1 7028  11.362  13.377  12.632
35065SOL    HW2 7029  11.461  13.310  12.539
35066SOL     OW 7030  11.078   6.045   8.741
35066SOL    HW1 7031  11.038   6.121   8.699
35066SOL    HW2 7032  11.004   6.000   8.783
35067SOL     OW 7033   4.361   8.568  11.292
35067SOL    HW1 7034   4.305   8.491  11.282
35067SOL    HW2 7035   4.442   8.534  11.332
35068SOL     OW 7036   8.383   8.938   3.623
35068SOL    HW1 7037   8.431   8.942   3.705
35068SOL    HW2 7038   8.367   9.029   3.599
35069SOL     OW 7039   5.225   7.399   7.946
35069SOL    HW1 7040   5.230   7.442   7.860
35069SOL    HW2 7041   5.160   7.448   7.995
35070SOL     OW 7042  11.232   1.068   5.567
35070SOL    HW1 7043  11.153   1.088   5.616
35070SOL    HW2 7044  11.226   0.974   5.548
35071SOL     OW 7045   8.786   6.147   3.877
35071SOL    HW1 7046   8.855   6.081   3.889
35071SOL    HW2 7047   8.751   6.129   3.790
35072SOL     OW 7048   8.355   4.006   1.908
35072SOL    HW1 7049   8.448   4.028   1.905
35072SOL    HW2 7050   8.341   3.972   1.996
35073SOL     OW 7051   4.100  14.776   1.708
35073SOL    HW1 7052   4.161  14.702   1.717
35073SOL    HW2 7053   4.013  14.735   1.707
35074SOL     OW 7054   2.947  11.294  13.511
35074SOL    HW1 7055   2.975  11.283  13.421
35074SOL    HW2 7056   2.851  11.295  13.507
35075SOL     OW 7057  12.797   7.459   4.215
35075SOL    HW1 7058  12.759   7.400   4.150
35075SOL    HW2 7059  12.777   7.418   4.299
35076SOL     OW 7060  13.348  13.558   9.277
35076SOL    HW1 7061  13.401  13.514   9.210
35076SOL    HW2 7062  13.392  13.642   9.290
35077SOL     OW 7063   5.594   3.040   1.816
35077SOL    HW1 7064   5.561   2.957   1.783
35077SOL    HW2 7065   5.688   3.023   1.831
35078SOL     OW 7066  11.172  14.724   8.100
35078SOL    HW1 7067  11.199  14.782   8.172
35078SOL    HW2 7068  11.252  14.681   8.073
35079SOL     OW 7069   0.221  11.892   8.703
35079SOL    HW1 7070   0.172  11.880   8.784
35079SOL    HW2 7071   0.304  11.932   8.730
35080SOL     OW 7072  12.080   8.566   8.746
35080SOL    HW1 7073  12.124   8.489   8.712
35080SOL    HW2 7074  12.151   8.622   8.779
35081SOL     OW 7075  12.177   6.726   3.350
35081SOL    HW1 7076  12.099   6.720   3.404
35081SOL    HW2 7077  12.175   6.648   3.295
35082SOL     OW 7078  10.881  11.381   3.753
35082SOL    HW1 7079  10.960  11.416   3.712
35082SOL    HW2 7080  10.864  11.299   3.706
35083SOL     OW 7081   1.904  12.005  13.651
35083SOL    HW1 7082   1.969  12.073  13.665
35083SOL    HW2 7083   1.936  11.930  13.703
35084SOL     OW 7084  13.906   2.225   5.862
35084SOL    HW1 7085  13.947   2.216   5.949
35084SOL    HW2 7086  13.977   2.255   5.805
35085SOL     OW 7087   2.073  14.030   3.706
35085SOL    HW1 7088   1.985  14.006   3.676
35085SOL    HW2 7089   2.131  13.966   3.664
35086SOL     OW 7090   2.238   7.448   2.648
35086SOL    HW1 7091   2.177   7.381   2.678
35086SOL    HW2 7092   2.240   7.438   2.552
35087SOL     OW 7093   5.783   5.058   9.175
35087SOL    HW1 7094   5.770   5.142   9.129
35087SOL    HW2 7095   5.874   5.062   9.205
35088SOL     OW 7096  14.321   6.248   6.557
35088SOL    HW1 7097  14.318   6.262   6.463
35088SOL    HW2 7098  14.372   6.168   6.569
35089SOL     OW 7099   9.398   9.037  13.850
35089SOL    HW1 7100   9.420   9.075  13.765
35089SOL    HW2 7101   9.331   9.095  13.885
35090SOL     OW 7102   2.356   4.354  12.163
35090SOL    HW1 7103   2.291   4.284  12.165
35090SOL    HW2 7104   2.346   4.394  12.077
35091SOL     OW 7105   9.832  10.183   2.015
35091SOL    HW1 7106   9.765  10.136   1.965
35091SOL    HW2 7107   9.791  10.199   2.100
35092SOL     OW 7108  11.264   3.612  10.270
35092SOL    HW1 7109  11.270   3.596  10.176
35092SOL    HW2 7110  11.350   3.649  10.293
35093SOL     OW 7111   5.548   3.998   1.705
35093SOL    HW1 7112   5.494   4.067   1.667
35093SOL    HW2 7113   5.541   3.925   1.643
35094SOL     OW 7114  10.504   5.397  12.662
35094SOL    HW1 7115  10.553   5.352  12.594
35094SOL    HW2 7116  10.539   5.363  12.745
35095SOL     OW 7117   2.807   1.568  13.197
35095SOL    HW1 7118   2.794   1.474  13.186
35095SOL    HW2 7119   2.898   1.577  13.224
35096SOL     OW 7120  13.450  14.832  14.509
35096SOL    HW1 7121  13.418   0.002  14.433
35096SOL    HW2 7122  13.404  14.872  14.583
35097SOL     OW 7123   2.691   2.076   1.909
35097SOL    HW1 7124   2.729   2.073   1.997
35097SOL    HW2 7125   2.736   2.006   1.862
35098SOL     OW 7126   8.455  10.734  10.243
35098SOL    HW1 7127   8.494  10.646  10.246
35098SOL    HW2 7128   8.407  10.735  10.160
35099SOL     OW 7129   0.195   5.458   9.121
35099SOL    HW1 7130   0.163   5.394   9.058
35099SOL    HW2 7131   0.138   5.533   9.112
35100SOL     OW 7132   9.966   8.174   3.989
35100SOL    HW1 7133  10.040   8.123   3.957
35100SOL    HW2 7134   9.894   8.112   3.993
35101SOL     OW 7135  12.634   3.995   3.389
35101SOL    HW1 7136  12.635   4.074   3.335
35101SOL    HW2 7137  12.542   3.984   3.412
35102SOL     OW 7138   8.455   3.044   7.423
35102SOL    HW1 7139   8.423   2.980   7.360
35102SOL    HW2 7140   8.510   2.994   7.483
35103SOL     OW 7141   0.148   0.092  11.405
35103SOL    HW1 7142   0.091   0.016  11.398
35103SOL    HW2 7143   0.102   0.161  11.358
35104SOL     OW 7144   3.332   5.683   5.528
35104SOL    HW1 7145   3.400   5.643   5.474
35104SOL    HW2 7146   3.263   5.705   5.466
35105SOL     OW 7147  13.155  13.147   4.845
35105SOL    HW1 7148  13.219  13.075   4.847
35105SOL    HW2 7149  13.150  13.172   4.753
35106SOL     OW 7150   7.658  13.908  12.959
35106SOL    HW1 7151   7.705  13.826  12.942
35106SOL    HW2 7152   7.725  13.975  12.958
35107SOL     OW 7153   3.599   4.200   5.655
35107SOL    HW1 7154   3.537   4.179   5.724
35107SOL    HW2 7155   3.665   4.256   5.697
35108SOL     OW 7156   1.159   5.165   4.983
35108SOL    HW1 7157   1.216   5.170   4.907
35108SOL    HW2 7158   1.215   5.132   5.054
35109SOL     OW 7159   1.971  12.562   2.257
35109SOL    HW1 7160   1.972  12.497   2.188
35109SOL    HW2 7161   1.883  12.558   2.293
35110SOL     OW 7162  10.609   6.837   4.945
35110SOL    HW1 7163  10.665   6.839   4.867
35110SOL    HW2 7164  10.668   6.863   5.016
35111SOL     OW 7165  11.556   3.539   4.594
35111SOL    HW1 7166  11.631   3.560   4.540
35111SOL    HW2 7167  11.593   3.505   4.676
35112SOL     OW 7168  13.255   0.982   7.248
35112SOL    HW1 7169  13.223   0.997   7.159
35112SOL    HW2 7170  13.285   0.892   7.248
35113SOL     OW 7171  11.714   5.598   0.808
35113SOL    HW1 7172  11.692   5.673   0.752
35113SOL    HW2 7173  11.776   5.633   0.872
35114SOL     OW 7174  12.389   7.397  12.936
35114SOL    HW1 7175  12.419   7.465  12.875
35114SOL    HW2 7176  12.453   7.327  12.926
35115SOL     OW 7177   5.476   3.763   1.176
35115SOL    HW1 7178   5.400   3.790   1.124
35115SOL    HW2 7179   5.551   3.785   1.122
35116SOL     OW 7180   9.907   3.128  14.183
35116SOL    HW1 7181   9.861   3.098  14.104
35116SOL    HW2 7182   9.982   3.177  14.149
35117SOL     OW 7183   7.903   9.102  13.975
35117SOL    HW1 7184   7.983   9.152  13.991
35117SOL    HW2 7185   7.844   9.127  14.047
35118SOL     OW 7186   9.384   3.980   0.363
35118SOL    HW1 7187   9.437   3.937   0.296
35118SOL    HW2 7188   9.317   4.028   0.315
35119SOL     OW 7189   0.386   8.630   0.165
35119SOL    HW1 7190   0.451   8.607   0.231
35119SOL    HW2 7191   0.411   8.577   0.089
35120SOL     OW 7192  12.696  14.319   0.509
35120SOL    HW1 7193  12.791  14.306   0.510
35120SOL    HW2 7194  12.676  14.336   0.417
35121SOL     OW 7195   8.039   2.188   6.256
35121SOL    HW1 7196   8.110   2.132   6.225
35121SOL    HW2 7197   7.977   2.190   6.184
35122SOL     OW 7198   7.561   5.822   4.651
35122SOL    HW1 7199   7.590   5.734   4.676
35122SOL    HW2 7200   7.495   5.845   4.717
35123SOL     OW 7201  13.082   7.239  12.391
35123SOL    HW1 7202  13.162   7.200  12.428
35123SOL    HW2 7203  13.014   7.174  12.409
35124SOL     OW 7204   6.149  13.819   8.493
35124SOL    HW1 7205   6.098  13.763   8.552
35124SOL    HW2 7206   6.101  13.902   8.493
35125SOL     OW 7207   7.009   7.245   7.994
35125SOL    HW1 7208   7.092   7.253   8.042
35125SOL    HW2 7209   6.987   7.152   8.000
35126SOL     OW 7210   2.460   3.576   8.803
35126SOL    HW1 7211   2.434   3.639   8.870
35126SOL    HW2 7212   2.554   3.565   8.815
35127SOL     OW 7213   9.130  13.622   2.650
35127SOL    HW1 7214   9.141  13.550   2.712
35127SOL    HW2 7215   9.074  13.685   2.695
35128SOL     OW 7216   1.606  12.726  14.123
35128SOL    HW1 7217   1.531  12.720  14.182
35128SOL    HW2 7218   1.572  12.697  14.038
35129SOL     OW 7219   4.250  12.053  12.577
35129SOL    HW1 7220   4.313  11.982  12.568
35129SOL    HW2 7221   4.282  12.122  12.518
35130SOL     OW 7222  10.671   8.101  14.310
35130SOL    HW1 7223  10.580   8.095  14.281
35130SOL    HW2 7224  10.721   8.107  14.229
35131SOL     OW 7225   5.272   5.517   3.701
35131SOL    HW1 7226   5.206   5.538   3.767
35131SOL    HW2 7227   5.346   5.482   3.751
35132SOL     OW 7228   3.468   6.604   7.775
35132SOL    HW1 7229   3.523   6.657   7.719
35132SOL    HW2 7230   3.425   6.542   7.716
35133SOL     OW 7231  11.796   6.697   0.506
35133SOL    HW1 7232  11.851   6.767   0.473
35133SOL    HW2 7233  11.760   6.655   0.427
35134SOL     OW 7234  10.066   6.896   5.952
35134SOL    HW1 7235  10.147   6.883   6.000
35134SOL    HW2 7236  10.002   6.921   6.018
35135SOL     OW 7237  12.861   3.183   1.601
35135SOL    HW1 7238  12.855   3.201   1.695
35135SOL    HW2 7239  12.852   3.269   1.560
35136SOL     OW 7240   3.401   5.788   3.581
35136SOL    HW1 7241   3.449   5.845   3.641
35136SOL    HW2 7242   3.380   5.844   3.506
35137SOL     OW 7243  12.113   9.726   0.436
35137SOL    HW1 7244  12.170   9.802   0.423
35137SOL    HW2 7245  12.027   9.763   0.450
35138SOL     OW 7246  10.287   9.305  13.301
35138SOL    HW1 7247  10.293   9.295  13.396
35138SOL    HW2 7248  10.250   9.223  13.270
35139SOL     OW 7249   2.710  14.595  12.890
35139SOL    HW1 7250   2.669  14.510  12.873
35139SOL    HW2 7251   2.777  14.603  12.821
35140SOL     OW 7252   3.335   2.964  13.555
35140SOL    HW1 7253   3.392   3.040  13.565
35140SOL    HW2 7254   3.300   2.948  13.642
35141SOL     OW 7255   6.024   9.278   9.542
35141SOL    HW1 7256   5.995   9.305   9.455
35141SOL    HW2 7257   6.103   9.330   9.558
35142SOL     OW 7258   0.671   9.876   2.716
35142SOL    HW1 7259   0.738   9.942   2.696
35142SOL    HW2 7260   0.590   9.912   2.681
35143SOL     OW 7261  13.250   2.543  10.618
35143SOL    HW1 7262  13.249   2.629  10.660
35143SOL    HW2 7263  13.277   2.483  10.688
35144SOL     OW 7264   4.490   2.502   1.221
35144SOL    HW1 7265   4.428   2.431   1.211
35144SOL    HW2 7266   4.458   2.551   1.297
35145SOL     OW 7267  10.105  14.831  13.394
35145SOL    HW1 7268  10.029   0.008  13.413
35145SOL    HW2 7269  10.179  14.876  13.435
35146SOL     OW 7270   6.440   5.724   8.018
35146SOL    HW1 7271   6.466   5.813   8.042
35146SOL    HW2 7272   6.467   5.715   7.926
35147SOL     OW 7273   1.082   9.914   9.137
35147SOL    HW1 7274   1.059  10.007   9.134
35147SOL    HW2 7275   1.072   9.883   9.047
35148SOL     OW 7276   1.453   8.279   6.846
35148SOL    HW1 7277   1.473   8.341   6.775
35148SOL    HW2 7278   1.358   8.270   6.843
35149SOL     OW 7279   4.727   0.992   2.747
35149SOL    HW1 7280   4.718   1.061   2.813
35149SOL    HW2 7281   4.763   0.918   2.794
35150SOL     OW 7282   6.331   1.333  12.260
35150SOL    HW1 7283   6.355   1.242  12.245
35150SOL    HW2 7284   6.411   1.375  12.291
35151SOL     OW 7285   7.300   3.522   7.831
35151SOL    HW1 7286   7.324   3.472   7.908
35151SOL    HW2 7287   7.222   3.571   7.857
35152SOL     OW 7288  14.183   9.060   7.119
35152SOL    HW1 7289  14.216   9.003   7.188
35152SOL    HW2 7290  14.101   9.019   7.091
35153SOL     OW 7291   0.495   2.899  10.870
35153SOL    HW1 7292   0.457   2.813  10.886
35153SOL    HW2 7293   0.574   2.882  10.818
35154SOL     OW 7294  12.876   0.817   6.960
35154SOL    HW1 7295  12.946   0.849   7.018
35154SOL    HW2 7296  12.856   0.729   6.993
35155SOL     OW 7297   2.371  11.013   0.674
35155SOL    HW1 7298   2.401  10.929   0.709
35155SOL    HW2 7299   2.313  11.048   0.741
35156SOL     OW 7300  13.933  11.159   0.410
35156SOL    HW1 7301  13.869  11.222   0.379
35156SOL    HW2 7302  14.018  11.202   0.398
35157SOL     OW 7303   0.972  13.956   7.320
35157SOL    HW1 7304   1.046  13.950   7.380
35157SOL    HW2 7305   0.958  13.867   7.289
35158SOL     OW 7306   6.308   4.696  11.812
35158SOL    HW1 7307   6.280   4.762  11.875
35158SOL    HW2 7308   6.393   4.667  11.844
35159SOL     OW 7309   0.093   1.605   2.837
35159SOL    HW1 7310   0.159   1.560   2.891
35159SOL    HW2 7311   0.027   1.635   2.900
35160SOL     OW 7312   3.291   8.726   0.796
35160SOL    HW1 7313   3.292   8.798   0.733
35160SOL    HW2 7314   3.382   8.714   0.821
35161SOL     OW 7315   8.595   9.752   4.686
35161SOL    HW1 7316   8.569   9.835   4.726
35161SOL    HW2 7317   8.601   9.690   4.758
35162SOL     OW 7318  10.768  14.632   5.879
35162SOL    HW1 7319  10.714  14.596   5.949
35162SOL    HW2 7320  10.812  14.708   5.918
35163SOL     OW 7321   0.945   2.158  10.068
35163SOL    HW1 7322   1.007   2.129  10.135
35163SOL    HW2 7323   0.982   2.239  10.034
35164SOL     OW 7324   0.110   2.089   7.943
35164SOL    HW1 7325   0.115   2.005   7.989
35164SOL    HW2 7326   0.024   2.125   7.968
35165SOL     OW 7327  14.847   9.665   4.109
35165SOL    HW1 7328  14.785   9.712   4.165
35165SOL    HW2 7329   0.039   9.641   4.167
35166SOL     OW 7330   9.220  12.989   4.846
35166SOL    HW1 7331   9.278  13.044   4.898
35166SOL    HW2 7332   9.136  13.036   4.845
35167SOL     OW 7333  10.170   8.012   3.586
35167SOL    HW1 7334  10.162   7.965   3.669
35167SOL    HW2 7335  10.254   8.058   3.592
35168SOL     OW 7336   8.863   8.743  13.718
35168SOL    HW1 7337   8.810   8.700  13.650
35168SOL    HW2 7338   8.943   8.769  13.672
35169SOL     OW 7339   3.674   5.399   3.543
35169SOL    HW1 7340   3.767   5.417   3.552
35169SOL    HW2 7341   3.632   5.450   3.612
35170SOL     OW 7342  14.838  13.430   2.678
35170SOL    HW1 7343  14.809  13.387   2.597
35170SOL    HW2 7344  14.757  13.446   2.727
35171SOL     OW 7345  10.025  11.356   2.915
35171SOL    HW1 7346  10.011  11.270   2.875
35171SOL    HW2 7347  10.027  11.417   2.841
35172SOL     OW 7348   1.549   0.321  12.043
35172SOL    HW1 7349   1.562   0.226  12.041
35172SOL    HW2 7350   1.455   0.333  12.058
35173SOL     OW 7351   8.015  14.230   1.830
35173SOL    HW1 7352   8.052  14.212   1.916
35173SOL    HW2 7353   7.945  14.165   1.819
35174SOL     OW 7354   0.560  12.103   0.250
35174SOL    HW1 7355   0.516  12.174   0.203
35174SOL    HW2 7356   0.491  12.062   0.302
35175SOL     OW 7357   4.361   2.083   0.564
35175SOL    HW1 7358   4.344   2.160   0.509
35175SOL    HW2 7359   4.410   2.024   0.507
35176SOL     OW 7360  14.833  12.690  11.398
35176SOL    HW1 7361  14.834  12.601  11.362
35176SOL    HW2 7362  14.839  12.677  11.493
35177SOL     OW 7363  13.667   0.375   1.147
35177SOL    HW1 7364  13.693   0.398   1.058
35177SOL    HW2 7365  13.572   0.366   1.142
35178SOL     OW 7366   5.520  11.960   1.699
35178SOL    HW1 7367   5.613  11.940   1.693
35178SOL    HW2 7368   5.477  11.875   1.701
35179SOL     OW 7369   5.276  14.707  13.316
35179SOL    HW1 7370   5.226  14.766  13.372
35179SOL    HW2 7371   5.238  14.718  13.229
35180SOL     OW 7372  12.875   9.745   4.821
35180SOL    HW1 7373  12.904   9.770   4.908
35180SOL    HW2 7374  12.895   9.652   4.814
35181SOL     OW 7375  14.620   0.978   6.603
35181SOL    HW1 7376  14.619   1.068   6.636
35181SOL    HW2 7377  14.568   0.982   6.522
35182SOL     OW 7378   3.448  13.546   6.509
35182SOL    HW1 7379   3.418  13.462   6.543
35182SOL    HW2 7380   3.402  13.611   6.561
35183SOL     OW 7381   3.025   6.800   7.177
35183SOL    HW1 7382   3.042   6.706   7.178
35183SOL    HW2 7383   3.062   6.830   7.095
35184SOL     OW 7384   8.970   1.298   9.119
35184SOL    HW1 7385   9.042   1.238   9.100
35184SOL    HW2 7386   8.928   1.261   9.196
35185SOL     OW 7387   7.206   6.764   8.450
35185SOL    HW1 7388   7.166   6.805   8.373
35185SOL    HW2 7389   7.162   6.679   8.457
35186SOL     OW 7390   7.573   4.224   2.848
35186SOL    HW1 7391   7.557   4.275   2.927
35186SOL    HW2 7392   7.495   4.239   2.794
35187SOL     OW 7393  10.706   1.959   8.424
35187SOL    HW1 7394  10.719   2.051   8.399
35187SOL    HW2 7395  10.755   1.910   8.359
35188SOL     OW 7396   9.124   1.947   2.048
35188SOL    HW1 7397   9.185   1.878   2.073
35188SOL    HW2 7398   9.149   1.971   1.959
35189SOL     OW 7399   0.493   2.800   1.430
35189SOL    HW1 7400   0.494   2.894   1.412
35189SOL    HW2 7401   0.414   2.769   1.386
35190SOL     OW 7402   3.302   4.051   0.907
35190SOL    HW1 7403   3.353   4.120   0.950
35190SOL    HW2 7404   3.367   4.000   0.859
35191SOL     OW 7405  14.649   5.935   9.168
35191SOL    HW1 7406  14.644   6.018   9.121
35191SOL    HW2 7407  14.596   5.948   9.246
35192SOL     OW 7408   6.726  14.030   5.289
35192SOL    HW1 7409   6.636  14.017   5.258
35192SOL    HW2 7410   6.773  13.952   5.259
35193SOL     OW 7411   6.229   4.056   5.779
35193SOL    HW1 7412   6.198   3.973   5.814
35193SOL    HW2 7413   6.269   4.101   5.854
35194SOL     OW 7414   9.298   3.162  11.486
35194SOL    HW1 7415   9.385   3.174  11.448
35194SOL    HW2 7416   9.268   3.077  11.453
35195SOL     OW 7417  10.273   6.799  10.562
35195SOL    HW1 7418  10.206   6.859  10.595
35195SOL    HW2 7419  10.323   6.851  10.499
35196SOL     OW 7420  11.077   0.651   1.037
35196SOL    HW1 7421  11.038   0.611   1.115
35196SOL    HW2 7422  11.059   0.745   1.047
35197SOL     OW 7423   3.395   0.661   2.669
35197SOL    HW1 7424   3.436   0.723   2.731
35197SOL    HW2 7425   3.310   0.701   2.649
35198SOL     OW 7426   0.266  11.444   8.108
35198SOL    HW1 7427   0.216  11.370   8.142
35198SOL    HW2 7428   0.347  11.443   8.158
35199SOL     OW 7429   5.237   3.318   3.047
35199SOL    HW1 7430   5.254   3.407   3.016
35199SOL    HW2 7431   5.147   3.321   3.080
35200SOL     OW 7432   0.424  12.394   7.500
35200SOL    HW1 7433   0.515  12.374   7.522
35200SOL    HW2 7434   0.398  12.460   7.564
35201SOL     OW 7435  12.118   6.920   1.665
35201SOL    HW1 7436  12.081   6.844   1.711
35201SOL    HW2 7437  12.205   6.892   1.638
35202SOL     OW 7438  14.751   5.007   8.937
35202SOL    HW1 7439  14.764   4.928   8.989
35202SOL    HW2 7440  14.742   4.976   8.847
35203SOL     OW 7441   7.548   0.676   0.210
35203SOL    HW1 7442   7.524   0.676   0.302
35203SOL    HW2 7443   7.643   0.676   0.209
35204SOL     OW 7444   3.359  11.689  10.542
35204SOL    HW1 7445   3.386  11.637  10.618
35204SOL    HW2 7446   3.412  11.769  10.549
35205SOL     OW 7447   2.162   3.027   1.241
35205SOL    HW1 7448   2.178   3.118   1.263
35205SOL    HW2 7449   2.101   3.029   1.168
35206SOL     OW 7450   7.439   3.040   8.580
35206SOL    HW1 7451   7.405   3.112   8.526
35206SOL    HW2 7452   7.492   2.988   8.520
35207SOL     OW 7453  14.761   2.994   4.172
35207SOL    HW1 7454  14.736   3.078   4.132
35207SOL    HW2 7455  14.737   3.003   4.264
35208SOL     OW 7456   6.408   3.699   7.342
35208SOL    HW1 7457   6.486   3.753   7.352
35208SOL    HW2 7458   6.440   3.615   7.307
35209SOL     OW 7459  10.252   4.464   1.011
35209SOL    HW1 7460  10.289   4.432   1.093
35209SOL    HW2 7461  10.319   4.523   0.976
35210SOL     OW 7462  14.502   9.679  12.793
35210SOL    HW1 7463  14.585   9.725  12.780
35210SOL    HW2 7464  14.471   9.660  12.705
35211SOL     OW 7465   8.763   0.168   2.906
35211SOL    HW1 7466   8.734   0.206   2.824
35211SOL    HW2 7467   8.799   0.083   2.882
35212SOL     OW 7468  14.029   9.652   3.474
35212SOL    HW1 7469  13.975   9.669   3.550
35212SOL    HW2 7470  14.112   9.696   3.493
35213SOL     OW 7471   2.698  11.265  12.896
35213SOL    HW1 7472   2.768  11.231  12.840
35213SOL    HW2 7473   2.724  11.240  12.984
35214SOL     OW 7474  10.089  12.342  11.049
35214SOL    HW1 7475  10.068  12.249  11.052
35214SOL    HW2 7476  10.023  12.380  10.991
35215SOL     OW 7477   1.264   6.812   6.539
35215SOL    HW1 7478   1.339   6.840   6.487
35215SOL    HW2 7479   1.220   6.748   6.484
35216SOL     OW 7480  14.436  11.131   4.645
35216SOL    HW1 7481  14.428  11.224   4.628
35216SOL    HW2 7482  14.433  11.090   4.558
35217SOL     OW 7483  10.944  10.821   5.032
35217SOL    HW1 7484  10.915  10.776   4.953
35217SOL    HW2 7485  11.008  10.885   5.001
35218SOL     OW 7486   5.704  11.176   7.315
35218SOL    HW1 7487   5.712  11.130   7.231
35218SOL    HW2 7488   5.612  11.166   7.339
35219SOL     OW 7489  10.115  12.816   9.534
35219SOL    HW1 7490  10.142  12.820   9.626
35219SOL    HW2 7491  10.115  12.907   9.506
35220SOL     OW 7492   8.467   3.343   0.571
35220SOL    HW1 7493   8.460   3.249   0.587
35220SOL    HW2 7494   8.379   3.377   0.587
35221SOL     OW 7495  11.065   5.910   5.526
35221SOL    HW1 7496  11.056   5.958   5.608
35221SOL    HW2 7497  11.113   5.969   5.468
35222SOL     OW 7498   4.907  14.708   5.467
35222SOL    HW1 7499   4.881  14.645   5.534
35222SOL    HW2 7500   4.894  14.661   5.384
35223SOL     OW 7501  11.626   7.869  14.765
35223SOL    HW1 7502  11.660   7.857  14.676
35223SOL    HW2 7503  11.568   7.945  14.758
35224SOL     OW 7504   3.424   3.842  13.697
35224SOL    HW1 7505   3.385   3.929  13.686
35224SOL    HW2 7506   3.494   3.854  13.760
35225SOL     OW 7507   7.394  14.061   6.011
35225SOL    HW1 7508   7.452  14.033   6.081
35225SOL    HW2 7509   7.306  14.034   6.039
35226SOL     OW 7510  11.581  11.109  13.667
35226SOL    HW1 7511  11.545  11.164  13.597
35226SOL    HW2 7512  11.633  11.170  13.720
35227SOL     OW 7513  11.411  13.242  10.550
35227SOL    HW1 7514  11.482  13.295  10.586
35227SOL    HW2 7515  11.456  13.168  10.508
35228SOL     OW 7516   0.815   3.551   2.263
35228SOL    HW1 7517   0.908   3.568   2.246
35228SOL    HW2 7518   0.793   3.478   2.204
35229SOL     OW 7519   6.463  12.203   3.015
35229SOL    HW1 7520   6.490  12.112   3.005
35229SOL    HW2 7521   6.374  12.199   3.048
35230SOL     OW 7522  14.505   5.965   4.311
35230SOL    HW1 7523  14.432   6.027   4.321
35230SOL    HW2 7524  14.540   5.955   4.399
35231SOL     OW 7525   0.322   6.981   7.794
35231SOL    HW1 7526   0.309   7.063   7.841
35231SOL    HW2 7527   0.408   6.990   7.752
35232SOL     OW 7528   0.828  14.320  11.260
35232SOL    HW1 7529   0.826  14.298  11.353
35232SOL    HW2 7530   0.850  14.414  11.258
35233SOL     OW 7531   0.250   1.902   2.039
35233SOL    HW1 7532   0.247   1.969   2.107
35233SOL    HW2 7533   0.273   1.950   1.959
35234SOL     OW 7534  10.706   9.986   6.210
35234SOL    HW1 7535  10.627   9.956   6.165
35234SOL    HW2 7536  10.698   9.952   6.299
35235SOL     OW 7537   4.521   7.846  13.138
35235SOL    HW1 7538   4.485   7.784  13.075
35235SOL    HW2 7539   4.495   7.932  13.105
35236SOL     OW 7540   0.833  13.359   1.818
35236SOL    HW1 7541   0.789  13.290   1.768
35236SOL    HW2 7542   0.926  13.337   1.813
35237SOL     OW 7543   6.481  14.492   1.778
35237SOL    HW1 7544   6.452  14.515   1.691
35237SOL    HW2 7545   6.564  14.445   1.765
35238SOL     OW 7546   5.783  10.124   6.967
35238SOL    HW1 7547   5.707  10.071   6.993
35238SOL    HW2 7548   5.778  10.202   7.021
35239SOL     OW 7549   7.436  12.321   7.435
35239SOL    HW1 7550   7.343  12.343   7.431
35239SOL    HW2 7551   7.445  12.273   7.517
35240SOL     OW 7552  11.109   3.265  12.887
35240SOL    HW1 7553  11.031   3.209  12.889
35240SOL    HW2 7554  11.115   3.302  12.975
35241SOL     OW 7555  11.814   1.549   1.759
35241SOL    HW1 7556  11.800   1.487   1.830
35241SOL    HW2 7557  11.895   1.594   1.781
35242SOL     OW 7558   5.381  12.870  13.077
35242SOL    HW1 7559   5.466  12.840  13.109
35242SOL    HW2 7560   5.351  12.933  13.142
35243SOL     OW 7561   4.089  11.604   8.868
35243SOL    HW1 7562   4.143  11.671   8.826
35243SOL    HW2 7563   4.086  11.532   8.805
35244SOL     OW 7564   8.312   7.982   9.214
35244SOL    HW1 7565   8.287   8.074   9.210
35244SOL    HW2 7566   8.241   7.936   9.169
35245SOL     OW 7567   5.166   8.582  13.139
35245SOL    HW1 7568   5.144   8.565  13.231
35245SOL    HW2 7569   5.247   8.633  13.143
35246SOL     OW 7570  14.801  12.064   1.582
35246SOL    HW1 7571  14.819  12.095   1.671
35246SOL    HW2 7572   0.008  12.055   1.542
35247SOL     OW 7573  10.239  12.719   5.932
35247SOL    HW1 7574  10.317  12.701   5.985
35247SOL    HW2 7575  10.168  12.724   5.995
35248SOL     OW 7576   7.811   1.429   2.884
35248SOL    HW1 7577   7.852   1.398   2.804
35248SOL    HW2 7578   7.881   1.478   2.929
35249SOL     OW 7579   8.545   4.806   2.593
35249SOL    HW1 7580   8.463   4.799   2.544
35249SOL    HW2 7581   8.598   4.732   2.563
35250SOL     OW 7582  10.134   6.583   1.251
35250SOL    HW1 7583  10.191   6.542   1.316
35250SOL    HW2 7584  10.158   6.676   1.255
35251SOL     OW 7585  11.901   3.921   8.808
35251SOL    HW1 7586  11.881   3.865   8.883
35251SOL    HW2 7587  11.846   3.888   8.738
35252SOL     OW 7588   4.736   1.850   7.888
35252SOL    HW1 7589   4.729   1.929   7.835
35252SOL    HW2 7590   4.662   1.855   7.948
35253SOL     OW 7591   8.193   8.926   6.967
35253SOL    HW1 7592   8.138   8.937   7.045
35253SOL    HW2 7593   8.171   9.002   6.912
35254SOL     OW 7594  11.429   0.228   1.892
35254SOL    HW1 7595  11.362   0.296   1.884
35254SOL    HW2 7596  11.393   0.153   1.844
35255SOL     OW 7597  10.883   2.766  11.173
35255SOL    HW1 7598  10.895   2.756  11.079
35255SOL    HW2 7599  10.817   2.835  11.181
35256SOL     OW 7600  12.112  12.085   4.821
35256SOL    HW1 7601  12.168  12.008   4.811
35256SOL    HW2 7602  12.135  12.120   4.907
35257SOL     OW 7603  11.645   8.538  14.198
35257SOL    HW1 7604  11.680   8.528  14.109
35257SOL    HW2 7605  11.633   8.448  14.229
35258SOL     OW 7606   9.359   2.052   0.113
35258SOL    HW1 7607   9.278   2.019   0.152
35258SOL    HW2 7608   9.426   2.038   0.180
35259SOL     OW 7609   9.691  12.068   2.875
35259SOL    HW1 7610   9.641  11.991   2.848
35259SOL    HW2 7611   9.627  12.121   2.923
35260SOL     OW 7612   8.124   4.730   6.600
35260SOL    HW1 7613   8.165   4.814   6.580
35260SOL    HW2 7614   8.126   4.725   6.696
35261SOL     OW 7615   7.248   6.177   7.520
35261SOL    HW1 7616   7.187   6.118   7.476
35261SOL    HW2 7617   7.192   6.240   7.565
35262SOL     OW 7618   7.648  14.244  11.630
35262SOL    HW1 7619   7.673  14.194  11.552
35262SOL    HW2 7620   7.626  14.177  11.695
35263SOL     OW 7621   0.085   1.329   8.499
35263SOL    HW1 7622   0.057   1.326   8.590
35263SOL    HW2 7623   0.020   1.384   8.456
35264SOL     OW 7624  10.749  14.748   4.292
35264SOL    HW1 7625  10.688  14.709   4.355
35264SOL    HW2 7626  10.758  14.681   4.223
35265SOL     OW 7627   1.746   6.200   9.198
35265SOL    HW1 7628   1.823   6.155   9.163
35265SOL    HW2 7629   1.673   6.165   9.147
35266SOL     OW 7630  13.882   4.267  14.850
35266SOL    HW1 7631  13.934   4.325   0.027
35266SOL    HW2 7632  13.810   4.237   0.027
35267SOL     OW 7633   0.836   1.722   8.483
35267SOL    HW1 7634   0.788   1.804   8.468
35267SOL    HW2 7635   0.850   1.687   8.395
35268SOL     OW 7636  11.433   0.323  13.046
35268SOL    HW1 7637  11.490   0.364  13.112
35268SOL    HW2 7638  11.486   0.251  13.011
35269SOL     OW 7639   6.030   1.548   3.751
35269SOL    HW1 7640   6.049   1.640   3.730
35269SOL    HW2 7641   6.115   1.512   3.777
35270SOL     OW 7642   9.795   2.215   0.593
35270SOL    HW1 7643   9.755   2.259   0.518
35270SOL    HW2 7644   9.723   2.208   0.657
35271SOL     OW 7645   5.534   5.095   0.881
35271SOL    HW1 7646   5.442   5.122   0.880
35271SOL    HW2 7647   5.535   5.018   0.938
35272SOL     OW 7648   3.188   3.070   6.185
35272SOL    HW1 7649   3.143   3.135   6.240
35272SOL    HW2 7650   3.229   3.122   6.115
35273SOL     OW 7651   2.581   4.543   6.088
35273SOL    HW1 7652   2.601   4.636   6.101
35273SOL    HW2 7653   2.583   4.507   6.177
35274SOL     OW 7654   5.736  10.661   0.617
35274SOL    HW1 7655   5.675  10.733   0.605
35274SOL    HW2 7656   5.803  10.695   0.677
35275SOL     OW 7657  14.735  12.718  12.421
35275SOL    HW1 7658  14.756  12.805  12.457
35275SOL    HW2 7659  14.788  12.712  12.341
35276SOL     OW 7660   3.567  10.635   0.794
35276SOL    HW1 7661   3.619  10.587   0.730
35276SOL    HW2 7662   3.555  10.722   0.755
35277SOL     OW 7663   9.485   0.755   4.662
35277SOL    HW1 7664   9.393   0.745   4.683
35277SOL    HW2 7665   9.525   0.791   4.741
35278SOL     OW 7666   9.136   0.599   3.429
35278SOL    HW1 7667   9.069   0.615   3.495
35278SOL    HW2 7668   9.122   0.508   3.403
35279SOL     OW 7669  11.858   6.153  10.229
35279SOL    HW1 7670  11.848   6.207  10.308
35279SOL    HW2 7671  11.860   6.063  10.262
35280SOL     OW 7672   2.945   4.038  13.473
35280SOL    HW1 7673   2.872   4.003  13.524
35280SOL    HW2 7674   2.926   4.010  13.383
35281SOL     OW 7675   3.386   7.013   5.082
35281SOL    HW1 7676   3.412   7.044   5.169
35281SOL    HW2 7677   3.382   7.091   5.028
35282SOL     OW 7678   5.348   6.120  11.763
35282SOL    HW1 7679   5.322   6.032  11.736
35282SOL    HW2 7680   5.290   6.141  11.836
35283SOL     OW 7681  11.568  11.103   5.208
35283SOL    HW1 7682  11.519  11.121   5.127
35283SOL    HW2 7683  11.543  11.014   5.231
35284SOL     OW 7684  12.756   1.868   5.064
35284SOL    HW1 7685  12.744   1.795   5.003
35284SOL    HW2 7686  12.723   1.835   5.148
35285SOL     OW 7687   2.339   4.093   8.152
35285SOL    HW1 7688   2.357   4.016   8.206
35285SOL    HW2 7689   2.385   4.165   8.197
35286SOL     OW 7690   7.022   9.517   2.416
35286SOL    HW1 7691   7.088   9.585   2.404
35286SOL    HW2 7692   7.017   9.504   2.510
35287SOL     OW 7693  11.961   1.231  10.664
35287SOL    HW1 7694  12.023   1.251  10.734
35287SOL    HW2 7695  11.967   1.307  10.605
35288SOL     OW 7696   9.638  12.791   2.612
35288SOL    HW1 7697   9.630  12.727   2.541
35288SOL    HW2 7698   9.551  12.827   2.623
35289SOL     OW 7699  12.294   4.413  12.611
35289SOL    HW1 7700  12.361   4.416  12.679
35289SOL    HW2 7701  12.251   4.329  12.623
35290SOL     OW 7702   3.376   5.029   9.737
35290SOL    HW1 7703   3.455   5.079   9.758
35290SOL    HW2 7704   3.376   4.956   9.799
35291SOL     OW 7705   1.635   6.023   4.948
35291SOL    HW1 7706   1.543   6.044   4.932
35291SOL    HW2 7707   1.681   6.057   4.871
35292SOL     OW 7708   4.441   9.815  12.109
35292SOL    HW1 7709   4.376   9.746  12.120
35292SOL    HW2 7710   4.392   9.897  12.118
35293SOL     OW 7711  10.663   7.153  13.075
35293SOL    HW1 7712  10.585   7.185  13.029
35293SOL    HW2 7713  10.650   7.181  13.166
35294SOL     OW 7714   8.377  14.032  11.984
35294SOL    HW1 7715   8.400  14.020  11.892
35294SOL    HW2 7716   8.434  13.972  12.032
35295SOL     OW 7717  10.777  14.149  11.878
35295SOL    HW1 7718  10.731  14.065  11.871
35295SOL    HW2 7719  10.785  14.180  11.788
35296SOL     OW 7720  14.119   8.775   3.292
35296SOL    HW1 7721  14.086   8.780   3.202
35296SOL    HW2 7722  14.167   8.692   3.296
35297SOL     OW 7723  10.857   7.876  11.023
35297SOL    HW1 7724  10.842   7.808  11.089
35297SOL    HW2 7725  10.770   7.913  11.005
35298SOL     OW 7726   3.088  13.948   3.875
35298SOL    HW1 7727   3.040  14.015   3.826
35298SOL    HW2 7728   3.024  13.879   3.891
35299SOL     OW 7729   5.245   5.313   7.295
35299SOL    HW1 7730   5.217   5.371   7.366
35299SOL    HW2 7731   5.165   5.267   7.269
35300SOL     OW 7732  10.598   5.465  14.316
35300SOL    HW1 7733  10.609   5.542  14.260
35300SOL    HW2 7734  10.664   5.403  14.285
35301SOL     OW 7735   9.611   6.129   3.517
35301SOL    HW1 7736   9.673   6.069   3.475
35301SOL    HW2 7737   9.628   6.214   3.476
35302SOL     OW 7738   5.411   9.003   0.490
35302SOL    HW1 7739   5.382   9.026   0.578
35302SOL    HW2 7740   5.410   8.907   0.489
35303SOL     OW 7741   8.780   3.321   6.794
35303SOL    HW1 7742   8.759   3.228   6.799
35303SOL    HW2 7743   8.871   3.323   6.765
35304SOL     OW 7744   6.487   6.782   4.574
35304SOL    HW1 7745   6.425   6.796   4.503
35304SOL    HW2 7746   6.468   6.851   4.638
35305SOL     OW 7747   3.788   9.563  11.716
35305SOL    HW1 7748   3.847   9.546  11.790
35305SOL    HW2 7749   3.846   9.565  11.640
35306SOL     OW 7750  14.001  14.336   5.873
35306SOL    HW1 7751  13.917  14.381   5.879
35306SOL    HW2 7752  14.046  14.378   5.800
35307SOL     OW 7753   3.613  11.061   1.429
35307SOL    HW1 7754   3.627  11.054   1.334
35307SOL    HW2 7755   3.660  11.140   1.454
35308SOL     OW 7756   9.015  12.566   5.935
35308SOL    HW1 7757   8.950  12.496   5.931
35308SOL    HW2 7758   9.046  12.565   6.026
35309SOL     OW 7759   8.426  11.334   9.641
35309SOL    HW1 7760   8.431  11.367   9.551
35309SOL    HW2 7761   8.391  11.246   9.632
35310SOL     OW 7762   0.569   5.306   1.040
35310SOL    HW1 7763   0.661   5.326   1.023
35310SOL    HW2 7764   0.533   5.281   0.955
35311SOL     OW 7765   4.883  11.336   5.286
35311SOL    HW1 7766   4.902  11.420   5.329
35311SOL    HW2 7767   4.820  11.357   5.218
35312SOL     OW 7768   1.251   5.838  11.808
35312SOL    HW1 7769   1.257   5.765  11.869
35312SOL    HW2 7770   1.158   5.846  11.789
35313SOL     OW 7771  13.603   0.475  14.716
35313SOL    HW1 7772  13.676   0.445  14.769
35313SOL    HW2 7773  13.583   0.402  14.657
35314SOL     OW 7774   4.908   9.495  10.003
35314SOL    HW1 7775   4.985   9.444  10.025
35314SOL    HW2 7776   4.864   9.444   9.935
35315SOL     OW 7777   7.831  12.029  14.842
35315SOL    HW1 7778   7.875  12.081  14.775
35315SOL    HW2 7779   7.776  12.091   0.010
35316SOL     OW 7780  13.364  14.303   8.699
35316SOL    HW1 7781  13.395  14.270   8.615
35316SOL    HW2 7782  13.296  14.241   8.726
35317SOL     OW 7783  14.857   0.790   6.465
35317SOL    HW1 7784  14.794   0.855   6.496
35317SOL    HW2 7785  14.877   0.738   6.543
35318SOL     OW 7786   1.629  12.994  13.522
35318SOL    HW1 7787   1.583  13.078  13.522
35318SOL    HW2 7788   1.708  13.011  13.573
35319SOL     OW 7789   9.743   9.765  14.433
35319SOL    HW1 7790   9.828   9.790  14.396
35319SOL    HW2 7791   9.721   9.683  14.389
35320SOL     OW 7792  10.754   0.793   4.044
35320SOL    HW1 7793  10.822   0.747   3.995
35320SOL    HW2 7794  10.686   0.813   3.980
35321SOL     OW 7795   4.588   5.101   7.604
35321SOL    HW1 7796   4.609   5.082   7.696
35321SOL    HW2 7797   4.494   5.088   7.597
35322SOL     OW 7798   8.756  11.872   3.328
35322SOL    HW1 7799   8.819  11.861   3.400
35322SOL    HW2 7800   8.679  11.824   3.357
35323SOL     OW 7801  13.982   7.960   8.501
35323SOL    HW1 7802  13.983   8.005   8.417
35323SOL    HW2 7803  14.041   8.010   8.556
35324SOL     OW 7804  13.486   0.969   3.393
35324SOL    HW1 7805  13.540   0.891   3.408
35324SOL    HW2 7806  13.399   0.934   3.377
35325SOL     OW 7807   8.504  12.858   3.794
35325SOL    HW1 7808   8.420  12.814   3.781
35325SOL    HW2 7809   8.481  12.940   3.838
35326SOL     OW 7810  11.849   4.218  13.328
35326SOL    HW1 7811  11.864   4.250  13.417
35326SOL    HW2 7812  11.935   4.193  13.296
35327SOL     OW 7813   5.122   4.879   0.950
35327SOL    HW1 7814   5.048   4.828   0.916
35327SOL    HW2 7815   5.191   4.868   0.883
35328SOL     OW 7816   1.824   0.447  14.706
35328SOL    HW1 7817   1.866   0.362  14.714
35328SOL    HW2 7818   1.778   0.444  14.622
35329SOL     OW 7819  14.148   6.863  12.675
35329SOL    HW1 7820  14.132   6.778  12.714
35329SOL    HW2 7821  14.155   6.846  12.581
35330SOL     OW 7822  14.855   3.531   7.449
35330SOL    HW1 7823   0.031   3.564   7.378
35330SOL    HW2 7824  14.876   3.588   7.524
35331SOL     OW 7825   4.976   2.468   8.456
35331SOL    HW1 7826   4.989   2.549   8.504
35331SOL    HW2 7827   5.063   2.442   8.427
35332SOL     OW 7828   1.022   0.168  13.510
35332SOL    HW1 7829   0.963   0.094  13.524
35332SOL    HW2 7830   0.989   0.211  13.431
35333SOL     OW 7831   0.229   3.819   6.415
35333SOL    HW1 7832   0.257   3.908   6.393
35333SOL    HW2 7833   0.250   3.768   6.338
35334SOL     OW 7834   8.308  10.082  14.651
35334SOL    HW1 7835   8.333  10.019  14.584
35334SOL    HW2 7836   8.217  10.103  14.631
35335SOL     OW 7837  11.883  12.555   1.599
35335SOL    HW1 7838  11.977  12.536   1.609
35335SOL    HW2 7839  11.846  12.542   1.686
35336SOL     OW 7840   2.364   2.004   3.537
35336SOL    HW1 7841   2.391   2.044   3.454
35336SOL    HW2 7842   2.269   1.991   3.527
35337SOL     OW 7843   7.415  13.475   0.974
35337SOL    HW1 7844   7.383  13.388   0.948
35337SOL    HW2 7845   7.466  13.458   1.053
35338SOL     OW 7846  14.457   6.648  10.868
35338SOL    HW1 7847  14.529   6.629  10.928
35338SOL    HW2 7848  14.390   6.584  10.891
35339SOL     OW 7849  10.926   0.346   0.346
35339SOL    HW1 7850  10.967   0.402   0.280
35339SOL    HW2 7851  10.879   0.281   0.296
35340SOL     OW 7852   2.515   5.570  11.470
35340SOL    HW1 7853   2.527   5.496  11.410
35340SOL    HW2 7854   2.557   5.643  11.425
35341SOL     OW 7855   1.283   2.554   0.718
35341SOL    HW1 7856   1.351   2.570   0.653
35341SOL    HW2 7857   1.273   2.459   0.719
35342SOL     OW 7858   0.013   6.741  10.353
35342SOL    HW1 7859  14.860   6.828  10.330
35342SOL    HW2 7860  14.870   6.686  10.277
35343SOL     OW 7861   8.344   8.714   9.642
35343SOL    HW1 7862   8.274   8.712   9.577
35343SOL    HW2 7863   8.330   8.636   9.695
35344SOL     OW 7864  12.729   1.608   0.349
35344SOL    HW1 7865  12.648   1.581   0.392
35344SOL    HW2 7866  12.780   1.651   0.418
35345SOL     OW 7867   5.794   5.271  12.068
35345SOL    HW1 7868   5.757   5.358  12.081
35345SOL    HW2 7869   5.853   5.282  11.993
35346SOL     OW 7870  11.689  13.431  14.770
35346SOL    HW1 7871  11.681  13.416  14.676
35346SOL    HW2 7872  11.779  13.462  14.782
35347SOL     OW 7873  13.951  10.290  10.095
35347SOL    HW1 7874  13.935  10.307  10.002
35347SOL    HW2 7875  13.864  10.296  10.135
35348SOL     OW 7876   8.456  12.027   4.452
35348SOL    HW1 7877   8.497  12.096   4.400
35348SOL    HW2 7878   8.460  11.950   4.396
35349SOL     OW 7879  12.845   6.032   4.518
35349SOL    HW1 7880  12.793   6.070   4.447
35349SOL    HW2 7881  12.787   6.035   4.594
35350SOL     OW 7882  13.286   6.536   1.363
35350SOL    HW1 7883  13.208   6.566   1.410
35350SOL    HW2 7884  13.252   6.506   1.279
35351SOL     OW 7885   0.481   1.144   8.580
35351SOL    HW1 7886   0.410   1.133   8.643
35351SOL    HW2 7887   0.547   1.196   8.626
35352SOL     OW 7888   4.434   4.717  10.923
35352SOL    HW1 7889   4.342   4.733  10.946
35352SOL    HW2 7890   4.451   4.775  10.849
35353SOL     OW 7891   7.764   3.915  11.488
35353SOL    HW1 7892   7.692   3.900  11.549
35353SOL    HW2 7893   7.753   3.848  11.421
35354SOL     OW 7894  11.659   0.159   2.658
35354SOL    HW1 7895  11.617   0.239   2.693
35354SOL    HW2 7896  11.748   0.162   2.692
35355SOL     OW 7897   5.672   3.785   9.732
35355SOL    HW1 7898   5.683   3.741   9.647
35355SOL    HW2 7899   5.732   3.859   9.728
35356SOL     OW 7900   7.772   3.649   7.908
35356SOL    HW1 7901   7.690   3.692   7.932
35356SOL    HW2 7902   7.795   3.597   7.985
35357SOL     OW 7903   2.559  14.154   6.024
35357SOL    HW1 7904   2.547  14.077   6.080
35357SOL    HW2 7905   2.522  14.227   6.074
35358SOL     OW 7906   4.759   5.731  13.749
35358SOL    HW1 7907   4.755   5.778  13.831
35358SOL    HW2 7908   4.852   5.706  13.740
35359SOL     OW 7909  14.859  10.096   7.072
35359SOL    HW1 7910  14.791  10.029   7.075
35359SOL    HW2 7911   0.025  10.081   6.990
35360SOL     OW 7912   4.804  14.830   7.423
35360SOL    HW1 7913   4.739  14.789   7.480
35360SOL    HW2 7914   4.755   0.017   7.374
35361SOL     OW 7915   6.181  14.512   3.943
35361SOL    HW1 7916   6.147  14.461   4.017
35361SOL    HW2 7917   6.266  14.544   3.973
35362SOL     OW 7918   1.071   4.023   0.360
35362SOL    HW1 7919   1.095   3.943   0.406
35362SOL    HW2 7920   0.975   4.021   0.356
35363SOL     OW 7921   7.006  12.618   5.782
35363SOL    HW1 7922   7.040  12.561   5.850
35363SOL    HW2 7923   7.081  12.675   5.760
35364SOL     OW 7924  14.629   0.609  14.645
35364SOL    HW1 7925  14.654   0.519  14.664
35364SOL    HW2 7926  14.568   0.601  14.571
35365SOL     OW 7927   3.633   0.863  12.392
35365SOL    HW1 7928   3.550   0.862  12.344
35365SOL    HW2 7929   3.700   0.849  12.326
35366SOL     OW 7930   3.893  10.836   9.255
35366SOL    HW1 7931   3.950  10.895   9.205
35366SOL    HW2 7932   3.858  10.776   9.190
35367SOL     OW 7933   4.116  11.130  10.679
35367SOL    HW1 7934   4.130  11.218  10.714
35367SOL    HW2 7935   4.038  11.139  10.625
35368SOL     OW 7936   9.492   9.069  11.820
35368SOL    HW1 7937   9.451   9.114  11.746
35368SOL    HW2 7938   9.584   9.060  11.795
35369SOL     OW 7939   7.847   2.901   4.632
35369SOL    HW1 7940   7.831   2.903   4.726
35369SOL    HW2 7941   7.942   2.915   4.624
35370SOL     OW 7942   0.484  10.705  13.752
35370SOL    HW1 7943   0.543  10.661  13.812
35370SOL    HW2 7944   0.465  10.640  13.684
35371SOL     OW 7945   7.108  11.734   2.176
35371SOL    HW1 7946   7.182  11.794   2.167
35371SOL    HW2 7947   7.119  11.696   2.264
35372SOL     OW 7948  12.963   1.376   6.939
35372SOL    HW1 7949  12.912   1.297   6.922
35372SOL    HW2 7950  13.053   1.351   6.920
35373SOL     OW 7951  10.911  11.309   7.998
35373SOL    HW1 7952  10.963  11.299   8.077
35373SOL    HW2 7953  10.960  11.262   7.931
35374SOL     OW 7954   1.940   6.917   1.879
35374SOL    HW1 7955   1.964   6.964   1.799
35374SOL    HW2 7956   1.991   6.961   1.948
35375SOL     OW 7957   7.187   1.758   0.412
35375SOL    HW1 7958   7.212   1.809   0.489
35375SOL    HW2 7959   7.110   1.709   0.440
35376SOL     OW 7960  10.020   1.803  10.107
35376SOL    HW1 7961   9.943   1.855  10.130
35376SOL    HW2 7962  10.089   1.834  10.166
35377SOL     OW 7963   4.794   3.663  10.829
35377SOL    HW1 7964   4.699   3.678  10.831
35377SOL    HW2 7965   4.803   3.569  10.841
35378SOL     OW 7966  12.403  14.635  12.302
35378SOL    HW1 7967  12.355  14.581  12.365
35378SOL    HW2 7968  12.400  14.724  12.338
35379SOL     OW 7969  12.541  10.087   3.066
35379SOL    HW1 7970  12.515  10.123   3.152
35379SOL    HW2 7971  12.608  10.148   3.035
35380SOL     OW 7972  13.183  13.338   1.663
35380SOL    HW1 7973  13.122  13.266   1.678
35380SOL    HW2 7974  13.144  13.388   1.590
35381SOL     OW 7975  14.628   9.936   6.751
35381SOL    HW1 7976  14.572   9.891   6.688
35381SOL    HW2 7977  14.568   9.964   6.820
35382SOL     OW 7978   5.206  13.587   1.174
35382SOL    HW1 7979   5.205  13.662   1.113
35382SOL    HW2 7980   5.195  13.626   1.260
35383SOL     OW 7981   9.759   1.801  13.270
35383SOL    HW1 7982   9.845   1.843  13.273
35383SOL    HW2 7983   9.737   1.796  13.177
35384SOL     OW 7984   4.891   2.439  12.445
35384SOL    HW1 7985   4.968   2.407  12.492
35384SOL    HW2 7986   4.877   2.375  12.375
35385SOL     OW 7987   9.742   4.488   7.600
35385SOL    HW1 7988   9.821   4.541   7.601
35385SOL    HW2 7989   9.754   4.429   7.527
35386SOL     OW 7990  10.983  11.848  13.493
35386SOL    HW1 7991  10.915  11.910  13.519
35386SOL    HW2 7992  10.946  11.762  13.512
35387SOL     OW 7993   7.744  13.898   3.668
35387SOL    HW1 7994   7.676  13.917   3.732
35387SOL    HW2 7995   7.773  13.984   3.637
35388SOL     OW 7996  11.716   0.166   8.963
35388SOL    HW1 7997  11.796   0.211   8.991
35388SOL    HW2 7998  11.711   0.090   9.021
35389SOL     OW 7999   5.353   0.212   3.361
35389SOL    HW1 8000   5.373   0.139   3.302
35389SOL    HW2 8001   5.428   0.270   3.353
35390SOL     OW 8002   6.350   1.032   7.838
35390SOL    HW1 8003   6.352   0.939   7.858
35390SOL    HW2 8004   6.312   1.073   7.916
35391SOL     OW 8005   5.782  11.312  10.125
35391SOL    HW1 8006   5.843  11.386  10.116
35391SOL    HW2 8007   5.835  11.236  10.103
35392SOL     OW 8008   3.359   1.285  11.649
35392SOL    HW1 8009   3.453   1.276  11.663
35392SOL    HW2 8010   3.336   1.367  11.693
35393SOL     OW 8011   8.189   5.998   1.395
35393SOL    HW1 8012   8.217   5.961   1.312
35393SOL    HW2 8013   8.228   6.085   1.397
35394SOL     OW 8014   3.622   7.522  12.574
35394SOL    HW1 8015   3.718   7.526  12.577
35394SOL    HW2 8016   3.602   7.516  12.480
35395SOL     OW 8017  11.914   8.312   4.545
35395SOL    HW1 8018  11.870   8.228   4.532
35395SOL    HW2 8019  11.843   8.377   4.543
35396SOL     OW 8020   8.564   5.488   3.356
35396SOL    HW1 8021   8.497   5.484   3.288
35396SOL    HW2 8022   8.563   5.401   3.396
35397SOL     OW 8023   7.720   0.977  10.936
35397SOL    HW1 8024   7.672   0.908  10.890
35397SOL    HW2 8025   7.677   0.983  11.021
35398SOL     OW 8026  14.126  13.535   6.233
35398SOL    HW1 8027  14.136  13.608   6.293
35398SOL    HW2 8028  14.044  13.493   6.260
35399SOL     OW 8029   7.510   7.096   2.522
35399SOL    HW1 8030   7.513   7.192   2.528
35399SOL    HW2 8031   7.541   7.077   2.434
35400SOL     OW 8032   4.479   5.256   9.737
35400SOL    HW1 8033   4.437   5.235   9.654
35400SOL    HW2 8034   4.503   5.349   9.729
35401SOL     OW 8035  11.869   2.694   2.763
35401SOL    HW1 8036  11.811   2.721   2.835
35401SOL    HW2 8037  11.810   2.651   2.701
35402SOL     OW 8038  10.330  10.344   1.379
35402SOL    HW1 8039  10.264  10.407   1.351
35402SOL    HW2 8040  10.345  10.365   1.471
35403SOL     OW 8041  13.132   7.285   3.976
35403SOL    HW1 8042  13.091   7.263   3.892
35403SOL    HW2 8043  13.080   7.238   4.041
35404SOL     OW 8044  14.820  13.681  13.323
35404SOL    HW1 8045  14.792  13.656  13.235
35404SOL    HW2 8046  14.827  13.598  13.371
35405SOL     OW 8047  12.319   0.454   8.298
35405SOL    HW1 8048  12.399   0.501   8.319
35405SOL    HW2 8049  12.347   0.387   8.234
35406SOL     OW 8050  14.425  12.970   2.144
35406SOL    HW1 8051  14.400  12.939   2.057
35406SOL    HW2 8052  14.342  12.994   2.185
35407SOL     OW 8053   7.386  12.339   0.057
35407SOL    HW1 8054   7.449  12.267   0.048
35407SOL    HW2 8055   7.307  12.296   0.090
35408SOL     OW 8056   1.694   3.222  13.812
35408SOL    HW1 8057   1.764   3.235  13.748
35408SOL    HW2 8058   1.688   3.306  13.858
35409SOL     OW 8059   7.729  14.465   2.321
35409SOL    HW1 8060   7.705  14.382   2.363
35409SOL    HW2 8061   7.702  14.532   2.384
35410SOL     OW 8062   8.435   2.750   6.455
35410SOL    HW1 8063   8.517   2.701   6.446
35410SOL    HW2 8064   8.370   2.684   6.480
35411SOL     OW 8065   0.680  12.387   7.555
35411SOL    HW1 8066   0.688  12.482   7.561
35411SOL    HW2 8067   0.703  12.355   7.643
35412SOL     OW 8068   5.062  13.519   0.342
35412SOL    HW1 8069   5.098  13.592   0.393
35412SOL    HW2 8070   5.101  13.529   0.255
35413SOL     OW 8071   7.710   6.366  12.432
35413SOL    HW1 8072   7.695   6.381  12.339
35413SOL    HW2 8073   7.778   6.299  12.435
35414SOL     OW 8074   6.855   7.186   0.929
35414SOL    HW1 8075   6.871   7.141   0.846
35414SOL    HW2 8076   6.942   7.196   0.968
35415SOL     OW 8077   7.522   6.333   4.225
35415SOL    HW1 8078   7.566   6.273   4.284
35415SOL    HW2 8079   7.435   6.294   4.212
35416SOL     OW 8080   7.897   6.563  13.391
35416SOL    HW1 8081   7.973   6.611  13.360
35416SOL    HW2 8082   7.862   6.617  13.462
35417SOL     OW 8083   5.766   1.380   2.119
35417SOL    HW1 8084   5.727   1.440   2.056
35417SOL    HW2 8085   5.693   1.325   2.148
35418SOL     OW 8086   3.110   5.349   2.377
35418SOL    HW1 8087   3.139   5.404   2.449
35418SOL    HW2 8088   3.189   5.304   2.347
35419SOL     OW 8089   2.912   4.496   1.442
35419SOL    HW1 8090   2.862   4.569   1.478
35419SOL    HW2 8091   2.945   4.528   1.358
35420SOL     OW 8092   8.613   6.032   6.087
35420SOL    HW1 8093   8.603   5.984   6.005
35420SOL    HW2 8094   8.538   6.091   6.089
35421SOL     OW 8095   6.478   9.774   7.602
35421SOL    HW1 8096   6.417   9.741   7.668
35421SOL    HW2 8097   6.471   9.869   7.608
35422SOL     OW 8098   8.145  13.302   3.298
35422SOL    HW1 8099   8.194  13.225   3.269
35422SOL    HW2 8100   8.157  13.366   3.228
35423SOL     OW 8101   4.060   0.912   5.269
35423SOL    HW1 8102   4.071   0.961   5.351
35423SOL    HW2 8103   4.131   0.943   5.213
35424SOL     OW 8104  13.944   3.841   2.637
35424SOL    HW1 8105  14.032   3.821   2.669
35424SOL    HW2 8106  13.936   3.936   2.645
35425SOL     OW 8107   3.893  14.755  14.586
35425SOL    HW1 8108   3.903  14.751  14.681
35425SOL    HW2 8109   3.968  14.805  14.555
35426SOL     OW 8110  10.704   0.374   4.034
35426SOL    HW1 8111  10.777   0.312   4.022
35426SOL    HW2 8112  10.662   0.378   3.949
35427SOL     OW 8113   4.647   9.224   0.262
35427SOL    HW1 8114   4.693   9.307   0.276
35427SOL    HW2 8115   4.569   9.231   0.317
35428SOL     OW 8116   4.973   3.638   6.040
35428SOL    HW1 8117   4.906   3.706   6.037
35428SOL    HW2 8118   5.010   3.645   6.128
35429SOL     OW 8119   7.255   4.257  13.447
35429SOL    HW1 8120   7.289   4.334  13.400
35429SOL    HW2 8121   7.185   4.224  13.391
35430SOL     OW 8122   2.777  13.661  14.582
35430SOL    HW1 8123   2.840  13.691  14.648
35430SOL    HW2 8124   2.784  13.726  14.512
35431SOL     OW 8125  12.222   1.793   8.377
35431SOL    HW1 8126  12.128   1.801   8.397
35431SOL    HW2 8127  12.245   1.706   8.409
35432SOL     OW 8128   9.022  14.700   9.451
35432SOL    HW1 8129   8.969  14.742   9.519
35432SOL    HW2 8130   8.970  14.708   9.371
35433SOL     OW 8131   8.645   5.786   1.090
35433SOL    HW1 8132   8.662   5.809   1.182
35433SOL    HW2 8133   8.631   5.691   1.092
35434SOL     OW 8134  10.708   1.699  13.122
35434SOL    HW1 8135  10.718   1.794  13.130
35434SOL    HW2 8136  10.648   1.687  13.048
35435SOL     OW 8137   5.997  13.222   9.686
35435SOL    HW1 8138   5.984  13.194   9.595
35435SOL    HW2 8139   6.079  13.181   9.712
35436SOL     OW 8140   9.653   5.245   4.624
35436SOL    HW1 8141   9.561   5.258   4.644
35436SOL    HW2 8142   9.669   5.302   4.549
35437SOL     OW 8143   4.333   1.672   1.977
35437SOL    HW1 8144   4.288   1.590   1.958
35437SOL    HW2 8145   4.280   1.713   2.046
35438SOL     OW 8146   1.564   6.793   8.576
35438SOL    HW1 8147   1.654   6.821   8.593
35438SOL    HW2 8148   1.547   6.820   8.486
35439SOL     OW 8149   4.533   8.802   0.386
35439SOL    HW1 8150   4.595   8.806   0.458
35439SOL    HW2 8151   4.459   8.856   0.415
35440SOL     OW 8152   9.355   8.239   5.676
35440SOL    HW1 8153   9.392   8.327   5.670
35440SOL    HW2 8154   9.298   8.232   5.599
35441SOL     OW 8155  11.888   0.500   0.582
35441SOL    HW1 8156  11.922   0.452   0.507
35441SOL    HW2 8157  11.877   0.590   0.551
35442SOL     OW 8158   5.721   7.987  14.688
35442SOL    HW1 8159   5.703   7.986  14.594
35442SOL    HW2 8160   5.774   8.065  14.702
35443SOL     OW 8161  10.535   2.329   7.643
35443SOL    HW1 8162  10.544   2.423   7.654
35443SOL    HW2 8163  10.580   2.291   7.719
35444SOL     OW 8164   0.080   8.583   8.769
35444SOL    HW1 8165   0.160   8.572   8.820
35444SOL    HW2 8166   0.016   8.527   8.812
35445SOL     OW 8167   5.502   8.319   2.834
35445SOL    HW1 8168   5.515   8.394   2.892
35445SOL    HW2 8169   5.545   8.246   2.878
35446SOL     OW 8170  14.431   5.166   3.519
35446SOL    HW1 8171  14.391   5.252   3.527
35446SOL    HW2 8172  14.358   5.105   3.532
35447SOL     OW 8173   6.281   0.380   2.011
35447SOL    HW1 8174   6.196   0.391   2.054
35447SOL    HW2 8175   6.342   0.433   2.063
35448SOL     OW 8176  11.483   2.255   5.601
35448SOL    HW1 8177  11.438   2.181   5.642
35448SOL    HW2 8178  11.562   2.268   5.654
35449SOL     OW 8179  12.577   6.881   0.245
35449SOL    HW1 8180  12.592   6.815   0.312
35449SOL    HW2 8181  12.633   6.955   0.271
35450SOL     OW 8182   1.610   8.333  12.518
35450SOL    HW1 8183   1.577   8.420  12.496
35450SOL    HW2 8184   1.543   8.273  12.484
35451SOL     OW 8185   3.111  10.605   2.793
35451SOL    HW1 8186   3.100  10.682   2.849
35451SOL    HW2 8187   3.063  10.536   2.839
35452SOL     OW 8188  10.580   3.458   8.344
35452SOL    HW1 8189  10.568   3.386   8.406
35452SOL    HW2 8190  10.645   3.425   8.282
35453SOL     OW 8191   1.505  12.534  10.333
35453SOL    HW1 8192   1.535  12.610  10.285
35453SOL    HW2 8193   1.438  12.494  10.277
35454SOL     OW 8194   7.427   6.394  10.650
35454SOL    HW1 8195   7.356   6.331  10.648
35454SOL    HW2 8196   7.387   6.477  10.624
35455SOL     OW 8197   9.360  11.859   2.076
35455SOL    HW1 8198   9.429  11.852   2.010
35455SOL    HW2 8199   9.279  11.840   2.028
35456SOL     OW 8200  10.704   9.318  10.439
35456SOL    HW1 8201  10.635   9.259  10.408
35456SOL    HW2 8202  10.755   9.264  10.499
35457SOL     OW 8203   5.827   7.312   2.866
35457SOL    HW1 8204   5.811   7.363   2.946
35457SOL    HW2 8205   5.916   7.334   2.840
35458SOL     OW 8206   8.889  14.596  10.909
35458SOL    HW1 8207   8.891  14.543  10.989
35458SOL    HW2 8208   8.869  14.533  10.839
35459SOL     OW 8209   1.789   9.327   1.999
35459SOL    HW1 8210   1.869   9.281   1.971
35459SOL    HW2 8211   1.718   9.267   1.975
35460SOL     OW 8212   3.016  12.578   1.768
35460SOL    HW1 8213   2.986  12.644   1.831
35460SOL    HW2 8214   3.057  12.629   1.698
35461SOL     OW 8215  10.211  10.764   1.600
35461SOL    HW1 8216  10.253  10.782   1.516
35461SOL    HW2 8217  10.130  10.814   1.598
35462SOL     OW 8218   8.825   7.404   1.407
35462SOL    HW1 8219   8.761   7.404   1.478
35462SOL    HW2 8220   8.862   7.492   1.408
35463SOL     OW 8221   7.668  12.917   0.421
35463SOL    HW1 8222   7.697  12.856   0.353
35463SOL    HW2 8223   7.749  12.957   0.453
35464SOL     OW 8224   8.503  12.557  12.333
35464SOL    HW1 8225   8.570  12.523  12.273
35464SOL    HW2 8226   8.423  12.558  12.281
35465SOL     OW 8227  10.981   7.816   1.901
35465SOL    HW1 8228  10.923   7.868   1.845
35465SOL    HW2 8229  10.928   7.742   1.930
35466SOL     OW 8230   8.687  14.874  13.113
35466SOL    HW1 8231   8.682  14.789  13.070
35466SOL    HW2 8232   8.780   0.016  13.114
35467SOL     OW 8233  12.075   8.648  12.826
35467SOL    HW1 8234  12.155   8.674  12.871
35467SOL    HW2 8235  12.025   8.600  12.892
35468SOL     OW 8236  12.853   9.971   5.387
35468SOL    HW1 8237  12.918   9.915   5.428
35468SOL    HW2 8238  12.794   9.911   5.342
35469SOL     OW 8239   2.990   8.794  14.862
35469SOL    HW1 8240   3.033   8.774  14.779
35469SOL    HW2 8241   2.977   8.889  14.860
35470SOL     OW 8242   4.012   4.930  10.585
35470SOL    HW1 8243   4.063   4.978  10.520
35470SOL    HW2 8244   3.964   4.997  10.634
35471SOL     OW 8245  10.899  10.571   8.645
35471SOL    HW1 8246  10.875  10.540   8.732
35471SOL    HW2 8247  10.950  10.650   8.660
35472SOL     OW 8248   8.953   7.081   3.530
35472SOL    HW1 8249   8.970   7.124   3.614
35472SOL    HW2 8250   8.912   7.149   3.476
35473SOL     OW 8251   0.351   6.532   5.078
35473SOL    HW1 8252   0.261   6.510   5.055
35473SOL    HW2 8253   0.400   6.451   5.064
35474SOL     OW 8254   2.671   4.314   1.252
35474SOL    HW1 8255   2.746   4.355   1.209
35474SOL    HW2 8256   2.689   4.220   1.246
35475SOL     OW 8257   7.942  12.667  11.474
35475SOL    HW1 8258   7.965  12.599  11.538
35475SOL    HW2 8259   8.019  12.723  11.469
35476SOL     OW 8260   1.066  12.149   0.607
35476SOL    HW1 8261   1.038  12.230   0.564
35476SOL    HW2 8262   0.986  12.113   0.644
35477SOL     OW 8263  10.631  13.755  12.299
35477SOL    HW1 8264  10.570  13.749  12.226
35477SOL    HW2 8265  10.717  13.767  12.258
35478SOL     OW 8266   3.203   6.061   8.651
35478SOL    HW1 8267   3.270   6.126   8.669
35478SOL    HW2 8268   3.250   5.977   8.654
35479SOL     OW 8269   3.479   5.195  12.523
35479SOL    HW1 8270   3.546   5.229  12.464
35479SOL    HW2 8271   3.434   5.128  12.471
35480SOL     OW 8272   3.722   1.947  10.711
35480SOL    HW1 8273   3.645   1.998  10.739
35480SOL    HW2 8274   3.738   1.886  10.783
35481SOL     OW 8275   7.504   5.915  12.929
35481SOL    HW1 8276   7.469   5.867  12.855
35481SOL    HW2 8277   7.552   5.989  12.890
35482SOL     OW 8278   0.530   7.306   4.272
35482SOL    HW1 8279   0.499   7.306   4.363
35482SOL    HW2 8280   0.600   7.371   4.271
35483SOL     OW 8281   2.932  12.071  12.130
35483SOL    HW1 8282   2.845  12.107  12.145
35483SOL    HW2 8283   2.916  11.985  12.091
35484SOL     OW 8284   7.244  12.044   2.338
35484SOL    HW1 8285   7.242  12.032   2.243
35484SOL    HW2 8286   7.221  11.958   2.373
35485SOL     OW 8287   2.438   7.328  14.381
35485SOL    HW1 8288   2.416   7.420  14.396
35485SOL    HW2 8289   2.506   7.330  14.314
35486SOL     OW 8290   7.455   1.658   5.993
35486SOL    HW1 8291   7.444   1.594   5.922
35486SOL    HW2 8292   7.372   1.654   6.041
35487SOL     OW 8293   5.052   8.139   9.209
35487SOL    HW1 8294   5.094   8.082   9.274
35487SOL    HW2 8295   5.123   8.194   9.176
35488SOL     OW 8296   8.739   4.412   2.319
35488SOL    HW1 8297   8.669   4.445   2.376
35488SOL    HW2 8298   8.810   4.474   2.330
35489SOL     OW 8299  14.812   9.792  10.122
35489SOL    HW1 8300  14.779   9.865  10.174
35489SOL    HW2 8301  14.738   9.765  10.068
35490SOL     OW 8302   6.050   0.765  11.537
35490SOL    HW1 8303   5.980   0.782  11.474
35490SOL    HW2 8304   6.046   0.840  11.596
35491SOL     OW 8305  11.304   9.641  10.774
35491SOL    HW1 8306  11.368   9.571  10.772
35491SOL    HW2 8307  11.284   9.658  10.682
35492SOL     OW 8308  11.584   0.034  10.435
35492SOL    HW1 8309  11.634   0.114  10.423
35492SOL    HW2 8310  11.494   0.058  10.413
35493SOL     OW 8311  10.296  11.038  13.752
35493SOL    HW1 8312  10.321  10.993  13.833
35493SOL    HW2 8313  10.287  10.968  13.688
35494SOL     OW 8314  13.629  13.581   8.268
35494SOL    HW1 8315  13.664  13.493   8.280
35494SOL    HW2 8316  13.669  13.632   8.338
35495SOL     OW 8317   8.839  14.700   3.609
35495SOL    HW1 8318   8.747  14.724   3.621
35495SOL    HW2 8319   8.836  14.618   3.559
35496SOL     OW 8320  11.586   4.547   2.508
35496SOL    HW1 8321  11.666   4.494   2.501
35496SOL    HW2 8322  11.541   4.533   2.424
35497SOL     OW 8323   5.896   4.997   1.531
35497SOL    HW1 8324   5.902   4.920   1.587
35497SOL    HW2 8325   5.806   5.029   1.545
35498SOL     OW 8326  13.851  10.780  12.373
35498SOL    HW1 8327  13.916  10.775  12.303
35498SOL    HW2 8328  13.852  10.693  12.413
35499SOL     OW 8329  14.478   5.891   9.784
35499SOL    HW1 8330  14.523   5.968   9.820
35499SOL    HW2 8331  14.431   5.925   9.707
35500SOL     OW 8332   6.630   4.009   9.777
35500SOL    HW1 8333   6.632   4.026   9.872
35500SOL    HW2 8334   6.722   4.004   9.751
35501SOL     OW 8335   5.068  13.681   1.987
35501SOL    HW1 8336   5.098  13.763   2.025
35501SOL    HW2 8337   5.102  13.614   2.047
35502SOL     OW 8338  10.893   2.507  13.567
35502SOL    HW1 8339  10.919   2.566  13.497
35502SOL    HW2 8340  10.875   2.564  13.642
35503SOL     OW 8341  13.680   3.683  14.631
35503SOL    HW1 8342  13.756   3.683  14.572
35503SOL    HW2 8343  13.635   3.601  14.612
35504SOL     OW 8344  11.731  14.542   5.774
35504SOL    HW1 8345  11.783  14.553   5.695
35504SOL    HW2 8346  11.640  14.544   5.743
35505SOL     OW 8347   5.694  11.265  12.527
35505SOL    HW1 8348   5.623  11.285  12.588
35505SOL    HW2 8349   5.749  11.344  12.528
35506SOL     OW 8350   3.798  12.488   4.931
35506SOL    HW1 8351   3.704  12.470   4.919
35506SOL    HW2 8352   3.840  12.403   4.924
35507SOL     OW 8353  14.049  13.110  12.273
35507SOL    HW1 8354  14.057  13.197  12.311
35507SOL    HW2 8355  14.035  13.051  12.347
35508SOL     OW 8356   9.380   8.642  11.760
35508SOL    HW1 8357   9.315   8.696  11.716
35508SOL    HW2 8358   9.343   8.625  11.847
35509SOL     OW 8359   1.638   2.384   3.422
35509SOL    HW1 8360   1.626   2.310   3.481
35509SOL    HW2 8361   1.696   2.444   3.469
35510SOL     OW 8362   3.065   5.108   3.133
35510SOL    HW1 8363   3.142   5.161   3.153
35510SOL    HW2 8364   3.026   5.090   3.218
35511SOL     OW 8365  10.609  13.599   5.269
35511SOL    HW1 8366  10.666  13.546   5.324
35511SOL    HW2 8367  10.521  13.582   5.302
35512SOL     OW 8368   5.299   2.338  12.153
35512SOL    HW1 8369   5.392   2.317  12.160
35512SOL    HW2 8370   5.273   2.361  12.243
35513SOL     OW 8371  10.015   6.087   0.709
35513SOL    HW1 8372   9.959   6.155   0.747
35513SOL    HW2 8373   9.960   6.044   0.644
35514SOL     OW 8374  10.003  14.470   8.814
35514SOL    HW1 8375  10.064  14.493   8.885
35514SOL    HW2 8376  10.016  14.538   8.749
35515SOL     OW 8377   3.539   6.833  14.644
35515SOL    HW1 8378   3.518   6.753  14.596
35515SOL    HW2 8379   3.510   6.816  14.733
35516SOL     OW 8380   6.178   9.009  11.925
35516SOL    HW1 8381   6.162   9.093  11.969
35516SOL    HW2 8382   6.270   9.012  11.899
35517SOL     OW 8383   6.129   8.548   4.458
35517SOL    HW1 8384   6.132   8.453   4.462
35517SOL    HW2 8385   6.191   8.571   4.388
35518SOL     OW 8386  11.169   5.110  12.480
35518SOL    HW1 8387  11.106   5.113  12.408
35518SOL    HW2 8388  11.225   5.186  12.466
35519SOL     OW 8389   1.946   6.012  11.585
35519SOL    HW1 8390   1.920   6.080  11.523
35519SOL    HW2 8391   2.035   6.035  11.612
35520SOL     OW 8392   5.531  11.177   6.353
35520SOL    HW1 8393   5.502  11.221   6.273
35520SOL    HW2 8394   5.568  11.094   6.322
35521SOL     OW 8395   5.332   0.749  10.444
35521SOL    HW1 8396   5.321   0.659  10.476
35521SOL    HW2 8397   5.421   0.772  10.469
35522SOL     OW 8398  12.710   2.059  11.168
35522SOL    HW1 8399  12.705   2.045  11.074
35522SOL    HW2 8400  12.783   2.120  11.180
35523SOL     OW 8401   6.260   1.264   4.423
35523SOL    HW1 8402   6.321   1.312   4.367
35523SOL    HW2 8403   6.175   1.273   4.379
35524SOL     OW 8404   5.856   9.378   7.069
35524SOL    HW1 8405   5.938   9.331   7.082
35524SOL    HW2 8406   5.821   9.341   6.988
35525SOL     OW 8407   4.390  12.229   1.131
35525SOL    HW1 8408   4.429  12.310   1.098
35525SOL    HW2 8409   4.352  12.255   1.215
35526SOL     OW 8410   0.161   4.306   8.706
35526SOL    HW1 8411   0.181   4.369   8.636
35526SOL    HW2 8412   0.237   4.310   8.764
35527SOL     OW 8413   0.119   2.346   0.008
35527SOL    HW1 8414   0.194   2.378  14.838
35527SOL    HW2 8415   0.102   2.414   0.073
35528SOL     OW 8416   9.825   1.273   8.125
35528SOL    HW1 8417   9.817   1.365   8.149
35528SOL    HW2 8418   9.745   1.255   8.075
35529SOL     OW 8419   3.346  10.562   1.964
35529SOL    HW1 8420   3.408  10.538   1.895
35529SOL    HW2 8421   3.369  10.652   1.987
35530SOL     OW 8422   7.171  11.374   5.078
35530SOL    HW1 8423   7.152  11.365   5.171
35530SOL    HW2 8424   7.255  11.328   5.066
35531SOL     OW 8425  12.764   0.833  11.607
35531SOL    HW1 8426  12.788   0.823  11.699
35531SOL    HW2 8427  12.676   0.797  11.601
35532SOL     OW 8428  10.187   1.155  12.974
35532SOL    HW1 8429  10.226   1.242  12.970
35532SOL    HW2 8430  10.246   1.104  13.029
35533SOL     OW 8431   0.699   9.839   8.311
35533SOL    HW1 8432   0.762   9.839   8.383
35533SOL    HW2 8433   0.667   9.929   8.307
35534SOL     OW 8434  13.911   1.791   4.355
35534SOL    HW1 8435  13.980   1.738   4.396
35534SOL    HW2 8436  13.860   1.728   4.303
35535SOL     OW 8437   4.265   8.292   1.475
35535SOL    HW1 8438   4.226   8.286   1.388
35535SOL    HW2 8439   4.284   8.202   1.499
35536SOL     OW 8440   8.851   4.777  10.992
35536SOL    HW1 8441   8.797   4.848  11.027
35536SOL    HW2 8442   8.864   4.718  11.066
35537SOL     OW 8443   5.504   0.234   9.861
35537SOL    HW1 8444   5.593   0.211   9.887
35537SOL    HW2 8445   5.470   0.285   9.934
35538SOL     OW 8446  12.774   1.759  10.607
35538SOL    HW1 8447  12.842   1.752  10.675
35538SOL    HW2 8448  12.707   1.814  10.647
35539SOL     OW 8449   4.440   2.800   3.367
35539SOL    HW1 8450   4.422   2.853   3.445
35539SOL    HW2 8451   4.407   2.713   3.389
35540SOL     OW 8452   8.525   8.992  14.524
35540SOL    HW1 8453   8.561   9.058  14.584
35540SOL    HW2 8454   8.445   8.962  14.567
35541SOL     OW 8455   1.764   1.654   1.767
35541SOL    HW1 8456   1.757   1.582   1.705
35541SOL    HW2 8457   1.712   1.725   1.728
35542SOL     OW 8458   6.644   3.864  11.228
35542SOL    HW1 8459   6.603   3.916  11.158
35542SOL    HW2 8460   6.695   3.797  11.182
35543SOL     OW 8461   2.859  14.676  12.550
35543SOL    HW1 8462   2.904  14.741  12.604
35543SOL    HW2 8463   2.916  14.664  12.474
35544SOL     OW 8464  13.063   9.616  12.669
35544SOL    HW1 8465  13.107   9.683  12.721
35544SOL    HW2 8466  13.065   9.538  12.724
35545SOL     OW 8467   2.008   0.967   6.467
35545SOL    HW1 8468   1.928   0.922   6.495
35545SOL    HW2 8469   2.060   0.975   6.547
35546SOL     OW 8470   1.731   1.198   6.857
35546SOL    HW1 8471   1.821   1.165   6.860
35546SOL    HW2 8472   1.739   1.291   6.838
35547SOL     OW 8473   0.577  13.171   2.993
35547SOL    HW1 8474   0.484  13.187   2.980
35547SOL    HW2 8475   0.600  13.221   3.071
35548SOL     OW 8476   9.594   8.978   8.611
35548SOL    HW1 8477   9.546   8.919   8.552
35548SOL    HW2 8478   9.684   8.976   8.577
35549SOL     OW 8479   0.129   3.251   0.113
35549SOL    HW1 8480   0.180   3.213   0.041
35549SOL    HW2 8481   0.108   3.339   0.083
35550SOL     OW 8482   4.392   2.885  14.608
35550SOL    HW1 8483   4.482   2.915  14.619
35550SOL    HW2 8484   4.366   2.852  14.694
35551SOL     OW 8485  10.706   3.842   4.099
35551SOL    HW1 8486  10.654   3.830   4.179
35551SOL    HW2 8487  10.668   3.920   4.058
35552SOL     OW 8488  13.972   3.497   0.464
35552SOL    HW1 8489  13.942   3.445   0.390
35552SOL    HW2 8490  13.977   3.586   0.430
35553SOL     OW 8491   9.458  11.026   9.522
35553SOL    HW1 8492   9.540  11.050   9.566
35553SOL    HW2 8493   9.398  11.005   9.594
35554SOL     OW 8494  13.045  11.976   2.357
35554SOL    HW1 8495  13.030  12.059   2.403
35554SOL    HW2 8496  13.058  11.912   2.426
35555SOL     OW 8497   6.918   0.212  12.806
35555SOL    HW1 8498   6.955   0.146  12.863
35555SOL    HW2 8499   6.874   0.273  12.865
35556SOL     OW 8500   6.470   4.334   5.441
35556SOL    HW1 8501   6.401   4.268   5.453
35556SOL    HW2 8502   6.444   4.381   5.361
35557SOL     OW 8503   4.484   0.186   4.100
35557SOL    HW1 8504   4.403   0.231   4.124
35557SOL    HW2 8505   4.481   0.103   4.148
35558SOL     OW 8506   4.288   4.812  14.838
35558SOL    HW1 8507   4.219   4.753  14.809
35558SOL    HW2 8508   4.370   4.766  14.819
35559SOL     OW 8509  11.188   0.693   2.120
35559SOL    HW1 8510  11.128   0.620   2.131
35559SOL    HW2 8511  11.190   0.709   2.025
35560SOL     OW 8512   8.203   1.341   2.600
35560SOL    HW1 8513   8.255   1.403   2.549
35560SOL    HW2 8514   8.266   1.297   2.657
35561SOL     OW 8515   0.624  14.534   3.203
35561SOL    HW1 8516   0.667  14.571   3.281
35561SOL    HW2 8517   0.592  14.610   3.155
35562SOL     OW 8518   4.597   6.751   2.794
35562SOL    HW1 8519   4.596   6.746   2.699
35562SOL    HW2 8520   4.516   6.708   2.821
35563SOL     OW 8521   6.871  14.096  12.166
35563SOL    HW1 8522   6.876  14.191  12.151
35563SOL    HW2 8523   6.961  14.065  12.154
35564SOL     OW 8524   5.490   0.697  11.075
35564SOL    HW1 8525   5.419   0.647  11.035
35564SOL    HW2 8526   5.473   0.691  11.169
35565SOL     OW 8527   6.738  12.181   8.113
35565SOL    HW1 8528   6.667  12.226   8.159
35565SOL    HW2 8529   6.804  12.248   8.099
35566SOL     OW 8530   8.639  14.346  11.284
35566SOL    HW1 8531   8.562  14.396  11.257
35566SOL    HW2 8532   8.666  14.386  11.367
35567SOL     OW 8533   9.951  12.390  14.485
35567SOL    HW1 8534   9.903  12.327  14.539
35567SOL    HW2 8535  10.038  12.352  14.475
35568SOL     OW 8536  14.735  10.562   4.601
35568SOL    HW1 8537  14.787  10.486   4.629
35568SOL    HW2 8538  14.656  10.559   4.655
35569SOL     OW 8539  11.417   0.592   5.180
35569SOL    HW1 8540  11.511   0.573   5.178
35569SOL    HW2 8541  11.388   0.559   5.265
35570SOL     OW 8542   9.652  13.453   7.875
35570SOL    HW1 8543   9.622  13.411   7.794
35570SOL    HW2 8544   9.653  13.382   7.939
35571SOL     OW 8545   1.751  12.545   9.444
35571SOL    HW1 8546   1.729  12.464   9.490
35571SOL    HW2 8547   1.734  12.614   9.507
35572SOL     OW 8548  12.759  11.641   5.465
35572SOL    HW1 8549  12.807  11.662   5.545
35572SOL    HW2 8550  12.813  11.676   5.395
35573SOL     OW 8551   0.057  10.301  10.533
35573SOL    HW1 8552   0.010  10.265  10.608
35573SOL    HW2 8553  14.867  10.336  10.476
35574SOL     OW 8554  10.658   8.167   7.955
35574SOL    HW1 8555  10.628   8.112   7.883
35574SOL    HW2 8556  10.583   8.222   7.976
35575SOL     OW 8557   8.302   4.898  10.623
35575SOL    HW1 8558   8.370   4.957  10.590
35575SOL    HW2 8559   8.349   4.835  10.678
35576SOL     OW 8560   3.359  11.703  12.628
35576SOL    HW1 8561   3.413  11.779  12.607
35576SOL    HW2 8562   3.284  11.738  12.676
35577SOL     OW 8563   0.729  10.705   5.169
35577SOL    HW1 8564   0.816  10.720   5.131
35577SOL    HW2 8565   0.738  10.731   5.260
35578SOL     OW 8566   2.727   5.700   5.089
35578SOL    HW1 8567   2.665   5.656   5.031
35578SOL    HW2 8568   2.672   5.744   5.154
35579SOL     OW 8569   0.015   9.517  12.896
35579SOL    HW1 8570   0.066   9.437  12.911
35579SOL    HW2 8571  14.819   9.509  12.956
35580SOL     OW 8572   0.800   2.925   2.086
35580SOL    HW1 8573   0.839   2.868   2.019
35580SOL    HW2 8574   0.814   2.879   2.168
35581SOL     OW 8575  14.101  10.858   5.603
35581SOL    HW1 8576  14.094  10.771   5.565
35581SOL    HW2 8577  14.087  10.844   5.697
35582SOL     OW 8578   1.909   8.560  10.343
35582SOL    HW1 8579   1.840   8.510  10.386
35582SOL    HW2 8580   1.875   8.649  10.338
35583SOL     OW 8581   7.703   7.032  11.526
35583SOL    HW1 8582   7.676   7.123  11.537
35583SOL    HW2 8583   7.643   6.997  11.459
35584SOL     OW 8584   9.235   7.512  12.929
35584SOL    HW1 8585   9.217   7.455  12.855
35584SOL    HW2 8586   9.274   7.591  12.891
35585SOL     OW 8587   5.295   9.709   2.187
35585SOL    HW1 8588   5.205   9.707   2.218
35585SOL    HW2 8589   5.348   9.692   2.264
35586SOL     OW 8590   0.336  13.321   4.265
35586SOL    HW1 8591   0.368  13.381   4.332
35586SOL    HW2 8592   0.279  13.375   4.209
35587SOL     OW 8593   5.570   5.474  11.332
35587SOL    HW1 8594   5.482   5.507  11.351
35587SOL    HW2 8595   5.568   5.383  11.359
35588SOL     OW 8596   4.382   6.871  11.309
35588SOL    HW1 8597   4.379   6.956  11.352
35588SOL    HW2 8598   4.465   6.871  11.262
35589SOL     OW 8599   6.977  14.507   3.719
35589SOL    HW1 8600   6.940  14.595   3.730
35589SOL    HW2 8601   6.910  14.459   3.670
35590SOL     OW 8602   9.541   2.704   7.555
35590SOL    HW1 8603   9.634   2.713   7.538
35590SOL    HW2 8604   9.500   2.708   7.468
35591SOL     OW 8605  13.821   0.869  14.508
35591SOL    HW1 8606  13.874   0.800  14.467
35591SOL    HW2 8607  13.816   0.843  14.600
35592SOL     OW 8608   8.474   3.606  10.201
35592SOL    HW1 8609   8.431   3.692  10.193
35592SOL    HW2 8610   8.543   3.608  10.135
35593SOL     OW 8611   0.867  10.390   6.798
35593SOL    HW1 8612   0.920  10.332   6.853
35593SOL    HW2 8613   0.805  10.332   6.754
35594SOL     OW 8614   3.611   3.581   7.921
35594SOL    HW1 8615   3.597   3.521   7.847
35594SOL    HW2 8616   3.535   3.639   7.919
35595SOL     OW 8617   3.417  13.413   5.096
35595SOL    HW1 8618   3.409  13.467   5.017
35595SOL    HW2 8619   3.427  13.476   5.167
35596SOL     OW 8620   0.373   5.327  10.943
35596SOL    HW1 8621   0.408   5.370  10.865
35596SOL    HW2 8622   0.285   5.362  10.953
35597SOL     OW 8623   3.818   6.515   7.142
35597SOL    HW1 8624   3.802   6.596   7.093
35597SOL    HW2 8625   3.779   6.531   7.228
35598SOL     OW 8626  13.633   4.203   3.385
35598SOL    HW1 8627  13.562   4.168   3.439
35598SOL    HW2 8628  13.697   4.132   3.379
35599SOL     OW 8629   3.595   5.712  10.053
35599SOL    HW1 8630   3.671   5.742  10.004
35599SOL    HW2 8631   3.527   5.701   9.988
35600SOL     OW 8632  10.964   1.959   5.554
35600SOL    HW1 8633  11.053   1.947   5.586
35600SOL    HW2 8634  10.941   1.876   5.512
35601SOL     OW 8635   6.233   5.839   8.604
35601SOL    HW1 8636   6.270   5.857   8.518
35601SOL    HW2 8637   6.245   5.920   8.653
35602SOL     OW 8638  11.088   0.688  10.443
35602SOL    HW1 8639  11.181   0.696  10.422
35602SOL    HW2 8640  11.067   0.770  10.489
35603SOL     OW 8641   0.547  10.585  12.037
35603SOL    HW1 8642   0.609  10.518  12.065
35603SOL    HW2 8643   0.598  10.666  12.037
35604SOL     OW 8644   1.086   5.304  11.307
35604SOL    HW1 8645   1.007   5.273  11.263
35604SOL    HW2 8646   1.062   5.310  11.399
35605SOL     OW 8647  12.771  11.643   7.776
35605SOL    HW1 8648  12.803  11.603   7.695
35605SOL    HW2 8649  12.836  11.711   7.796
35606SOL     OW 8650   3.004  14.133  14.235
35606SOL    HW1 8651   3.094  14.148  14.206
35606SOL    HW2 8652   3.006  14.151  14.329
35607SOL     OW 8653  13.555   6.689  10.430
35607SOL    HW1 8654  13.476   6.721  10.387
35607SOL    HW2 8655  13.523   6.647  10.510
35608SOL     OW 8656   0.839  11.649   1.003
35608SOL    HW1 8657   0.790  11.696   1.071
35608SOL    HW2 8658   0.872  11.719   0.945
35609SOL     OW 8659  11.075  12.342   9.761
35609SOL    HW1 8660  11.008  12.406   9.738
35609SOL    HW2 8661  11.097  12.362   9.852
35610SOL     OW 8662  14.369   5.017   4.797
35610SOL    HW1 8663  14.330   5.103   4.814
35610SOL    HW2 8664  14.377   4.977   4.884
35611SOL     OW 8665   9.460   2.848   9.049
35611SOL    HW1 8666   9.424   2.924   9.004
35611SOL    HW2 8667   9.393   2.780   9.038
35612SOL     OW 8668   3.490   7.453   1.768
35612SOL    HW1 8669   3.511   7.397   1.692
35612SOL    HW2 8670   3.574   7.490   1.794
35613SOL     OW 8671   4.372   6.245   0.457
35613SOL    HW1 8672   4.421   6.311   0.507
35613SOL    HW2 8673   4.434   6.174   0.444
35614SOL     OW 8674  10.782  12.215   4.532
35614SOL    HW1 8675  10.734  12.270   4.471
35614SOL    HW2 8676  10.734  12.222   4.614
35615SOL     OW 8677  10.777   1.810  10.690
35615SOL    HW1 8678  10.682   1.818  10.698
35615SOL    HW2 8679  10.805   1.782  10.778
35616SOL     OW 8680   4.772  12.235   5.428
35616SOL    HW1 8681   4.797  12.251   5.337
35616SOL    HW2 8682   4.732  12.148   5.427
35617SOL     OW 8683   9.415  11.097   2.689
35617SOL    HW1 8684   9.329  11.118   2.652
35617SOL    HW2 8685   9.433  11.007   2.660
35618SOL     OW 8686   8.800  12.187  14.635
35618SOL    HW1 8687   8.789  12.269  14.683
35618SOL    HW2 8688   8.758  12.203  14.550
35619SOL     OW 8689  12.318  12.077   0.118
35619SOL    HW1 8690  12.223  12.072   0.106
35619SOL    HW2 8691  12.333  12.165   0.153
35620SOL     OW 8692   0.250   6.849   3.237
35620SOL    HW1 8693   0.297   6.912   3.182
35620SOL    HW2 8694   0.262   6.765   3.193
35621SOL     OW 8695   2.191  12.244  14.114
35621SOL    HW1 8696   2.262  12.259  14.052
35621SOL    HW2 8697   2.153  12.160  14.088
35622SOL     OW 8698  13.198  10.466   8.497
35622SOL    HW1 8699  13.196  10.552   8.456
35622SOL    HW2 8700  13.241  10.409   8.433
35623SOL     OW 8701   2.256   5.914   8.985
35623SOL    HW1 8702   2.161   5.919   8.994
35623SOL    HW2 8703   2.287   6.001   9.012
35624SOL     OW 8704   9.133   3.738   7.327
35624SOL    HW1 8705   9.060   3.772   7.274
35624SOL    HW2 8706   9.182   3.816   7.353
35625SOL     OW 8707   4.926   5.490   5.705
35625SOL    HW1 8708   4.999   5.535   5.662
35625SOL    HW2 8709   4.853   5.551   5.697
35626SOL     OW 8710  10.557   1.765  14.246
35626SOL    HW1 8711  10.559   1.823  14.170
35626SOL    HW2 8712  10.465   1.741  14.255
35627SOL     OW 8713   7.546   8.589   9.350
35627SOL    HW1 8714   7.514   8.517   9.404
35627SOL    HW2 8715   7.489   8.589   9.273
35628SOL     OW 8716   1.767  11.314   7.561
35628SOL    HW1 8717   1.757  11.401   7.600
35628SOL    HW2 8718   1.723  11.320   7.476
35629SOL     OW 8719  11.461   5.957   2.836
35629SOL    HW1 8720  11.554   5.965   2.816
35629SOL    HW2 8721  11.457   5.903   2.914
35630SOL     OW 8722   5.891  11.748   1.840
35630SOL    HW1 8723   5.891  11.814   1.771
35630SOL    HW2 8724   5.868  11.796   1.919
35631SOL     OW 8725   9.707   0.685  11.703
35631SOL    HW1 8726   9.623   0.728  11.718
35631SOL    HW2 8727   9.753   0.692  11.787
35632SOL     OW 8728   8.018  12.588   1.880
35632SOL    HW1 8729   8.051  12.596   1.791
35632SOL    HW2 8730   8.069  12.516   1.918
35633SOL     OW 8731  14.383   0.786  11.900
35633SOL    HW1 8732  14.431   0.716  11.944
35633SOL    HW2 8733  14.410   0.780  11.808
35634SOL     OW 8734  11.253   5.312   8.470
35634SOL    HW1 8735  11.331   5.262   8.447
35634SOL    HW2 8736  11.252   5.385   8.408
35635SOL     OW 8737   4.253   8.081   8.057
35635SOL    HW1 8738   4.265   8.155   8.115
35635SOL    HW2 8739   4.214   8.013   8.113
35636SOL     OW 8740  13.222   2.272   8.925
35636SOL    HW1 8741  13.263   2.267   9.011
35636SOL    HW2 8742  13.146   2.215   8.931
35637SOL     OW 8743  13.248  13.915   7.544
35637SOL    HW1 8744  13.183  13.847   7.525
35637SOL    HW2 8745  13.242  13.975   7.469
35638SOL     OW 8746   6.306   4.754   5.940
35638SOL    HW1 8747   6.363   4.778   6.013
35638SOL    HW2 8748   6.219   4.783   5.967
35639SOL     OW 8749   7.488   0.875   8.562
35639SOL    HW1 8750   7.528   0.790   8.579
35639SOL    HW2 8751   7.506   0.892   8.470
35640SOL     OW 8752  14.644  11.346  12.784
35640SOL    HW1 8753  14.560  11.374  12.819
35640SOL    HW2 8754  14.655  11.257  12.817
35641SOL     OW 8755   3.056   5.289  11.995
35641SOL    HW1 8756   3.046   5.345  11.918
35641SOL    HW2 8757   3.150   5.270  11.998
35642SOL     OW 8758   5.805   6.202   4.969
35642SOL    HW1 8759   5.790   6.153   4.889
35642SOL    HW2 8760   5.740   6.168   5.031
35643SOL     OW 8761  10.271   2.923   5.733
35643SOL    HW1 8762  10.210   2.973   5.787
35643SOL    HW2 8763  10.331   2.990   5.697
35644SOL     OW 8764   0.718   0.093   5.364
35644SOL    HW1 8765   0.656   0.024   5.342
35644SOL    HW2 8766   0.777   0.097   5.289
35645SOL     OW 8767  10.073  11.364   1.603
35645SOL    HW1 8768  10.117  11.297   1.551
35645SOL    HW2 8769  10.022  11.414   1.539
35646SOL     OW 8770   8.497  11.871  12.843
35646SOL    HW1 8771   8.520  11.942  12.783
35646SOL    HW2 8772   8.544  11.794  12.808
35647SOL     OW 8773  10.027   9.858  10.139
35647SOL    HW1 8774  10.014   9.943  10.181
35647SOL    HW2 8775  10.058   9.879  10.051
35648SOL     OW 8776   9.365  14.769   0.527
35648SOL    HW1 8777   9.412  14.706   0.472
35648SOL    HW2 8778   9.413  14.768   0.611
35649SOL     OW 8779   3.633   1.576  11.139
35649SOL    HW1 8780   3.642   1.504  11.201
35649SOL    HW2 8781   3.556   1.624  11.168
35650SOL     OW 8782   6.235   6.895   4.671
35650SOL    HW1 8783   6.260   6.912   4.762
35650SOL    HW2 8784   6.215   6.981   4.635
35651SOL     OW 8785   4.813  12.445  13.816
35651SOL    HW1 8786   4.761  12.522  13.838
35651SOL    HW2 8787   4.882  12.443  13.883
35652SOL     OW 8788   4.551   6.512   8.655
35652SOL    HW1 8789   4.519   6.552   8.736
35652SOL    HW2 8790   4.642   6.542   8.648
35653SOL     OW 8791  14.256   6.168   5.665
35653SOL    HW1 8792  14.329   6.179   5.726
35653SOL    HW2 8793  14.182   6.212   5.707
35654SOL     OW 8794   7.129   4.872   5.143
35654SOL    HW1 8795   7.086   4.854   5.059
35654SOL    HW2 8796   7.160   4.962   5.135
35655SOL     OW 8797   1.476   4.299   7.465
35655SOL    HW1 8798   1.456   4.358   7.538
35655SOL    HW2 8799   1.446   4.213   7.495
35656SOL     OW 8800   9.284  10.735   3.499
35656SOL    HW1 8801   9.314  10.725   3.590
35656SOL    HW2 8802   9.294  10.828   3.481
35657SOL     OW 8803   3.446   1.777   0.076
35657SOL    HW1 8804   3.361   1.782   0.120
35657SOL    HW2 8805   3.509   1.809   0.140
35658SOL     OW 8806  10.715  12.658  14.454
35658SOL    HW1 8807  10.622  12.638  14.453
35658SOL    HW2 8808  10.740  12.662  14.362
35659SOL     OW 8809   7.895   0.729   2.960
35659SOL    HW1 8810   7.860   0.799   3.014
35659SOL    HW2 8811   7.818   0.680   2.932
35660SOL     OW 8812   9.474   5.484  10.426
35660SOL    HW1 8813   9.473   5.556  10.489
35660SOL    HW2 8814   9.382   5.458  10.419
35661SOL     OW 8815   8.242   1.284   1.971
35661SOL    HW1 8816   8.256   1.233   1.891
35661SOL    HW2 8817   8.204   1.366   1.941
35662SOL     OW 8818  11.099   9.787  11.270
35662SOL    HW1 8819  11.117   9.757  11.181
35662SOL    HW2 8820  11.032   9.855  11.259
35663SOL     OW 8821  14.611   9.422   9.899
35663SOL    HW1 8822  14.623   9.477   9.822
35663SOL    HW2 8823  14.667   9.346   9.883
35664SOL     OW 8824   7.000  11.121  14.421
35664SOL    HW1 8825   6.941  11.140  14.348
35664SOL    HW2 8826   7.010  11.026  14.421
35665SOL     OW 8827   3.477   2.019   8.220
35665SOL    HW1 8828   3.443   2.096   8.175
35665SOL    HW2 8829   3.436   1.945   8.174
35666SOL     OW 8830   0.486   7.275   3.574
35666SOL    HW1 8831   0.487   7.206   3.508
35666SOL    HW2 8832   0.569   7.265   3.620
35667SOL     OW 8833   5.090   9.853   7.596
35667SOL    HW1 8834   5.067   9.771   7.552
35667SOL    HW2 8835   5.014   9.910   7.583
35668SOL     OW 8836   6.750   4.079  13.642
35668SOL    HW1 8837   6.675   4.100  13.585
35668SOL    HW2 8838   6.740   4.138  13.717
35669SOL     OW 8839  11.221   4.638   4.769
35669SOL    HW1 8840  11.276   4.617   4.693
35669SOL    HW2 8841  11.202   4.553   4.809
35670SOL     OW 8842   8.348   1.079  10.250
35670SOL    HW1 8843   8.307   1.013  10.194
35670SOL    HW2 8844   8.442   1.067  10.235
35671SOL     OW 8845   1.229  14.550   8.378
35671SOL    HW1 8846   1.231  14.477   8.316
35671SOL    HW2 8847   1.137  14.572   8.386
35672SOL     OW 8848  13.858   3.864  13.334
35672SOL    HW1 8849  13.870   3.956  13.308
35672SOL    HW2 8850  13.771   3.842  13.301
35673SOL     OW 8851   0.054  12.403  13.281
35673SOL    HW1 8852   0.146  12.411  13.255
35673SOL    HW2 8853   0.011  12.365  13.205
35674SOL     OW 8854   2.785   6.308   1.360
35674SOL    HW1 8855   2.798   6.402   1.373
35674SOL    HW2 8856   2.747   6.300   1.273
35675SOL     OW 8857   7.326  13.473  11.364
35675SOL    HW1 8858   7.247  13.506  11.322
35675SOL    HW2 8859   7.360  13.407  11.303
35676SOL     OW 8860   9.597  11.835   2.617
35676SOL    HW1 8861   9.611  11.777   2.543
35676SOL    HW2 8862   9.507  11.864   2.609
35677SOL     OW 8863   9.164   7.907   6.810
35677SOL    HW1 8864   9.168   7.982   6.749
35677SOL    HW2 8865   9.100   7.848   6.770
35678SOL     OW 8866   6.144  10.177   1.745
35678SOL    HW1 8867   6.191  10.174   1.662
35678SOL    HW2 8868   6.197  10.126   1.806
35679SOL     OW 8869   2.941   1.354   2.779
35679SOL    HW1 8870   2.891   1.312   2.850
35679SOL    HW2 8871   2.874   1.397   2.726
35680SOL     OW 8872  10.249   5.553  10.988
35680SOL    HW1 8873  10.245   5.631  11.043
35680SOL    HW2 8874  10.264   5.481  11.049
35681SOL     OW 8875  12.386  11.717   3.637
35681SOL    HW1 8876  12.293  11.737   3.624
35681SOL    HW2 8877  12.429  11.803   3.634
35682SOL     OW 8878   6.351   1.235  14.825
35682SOL    HW1 8879   6.378   1.287  14.748
35682SOL    HW2 8880   6.405   1.156  14.820
35683SOL     OW 8881   0.383   0.799  11.787
35683SOL    HW1 8882   0.406   0.708  11.769
35683SOL    HW2 8883   0.298   0.795  11.831
35684SOL     OW 8884  11.556   7.845   6.670
35684SOL    HW1 8885  11.569   7.817   6.761
35684SOL    HW2 8886  11.588   7.935   6.668
35685SOL     OW 8887   4.482   5.233   1.050
35685SOL    HW1 8888   4.508   5.141   1.053
35685SOL    HW2 8889   4.564   5.281   1.059
35686SOL     OW 8890  12.815  11.393  10.500
35686SOL    HW1 8891  12.823  11.482  10.536
35686SOL    HW2 8892  12.782  11.406  10.411
35687SOL     OW 8893   8.775   8.152  11.322
35687SOL    HW1 8894   8.809   8.234  11.358
35687SOL    HW2 8895   8.826   8.084  11.366
35688SOL     OW 8896  13.239   3.196   1.519
35688SOL    HW1 8897  13.197   3.123   1.564
35688SOL    HW2 8898  13.271   3.159   1.437
35689SOL     OW 8899   8.486   9.592   1.363
35689SOL    HW1 8900   8.398   9.600   1.400
35689SOL    HW2 8901   8.543   9.637   1.425
35690SOL     OW 8902   0.280   4.537   1.054
35690SOL    HW1 8903   0.328   4.480   0.994
35690SOL    HW2 8904   0.188   4.511   1.045
35691SOL     OW 8905   8.353  13.679   1.694
35691SOL    HW1 8906   8.439  13.721   1.695
35691SOL    HW2 8907   8.368  13.594   1.652
35692SOL     OW 8908  14.524   7.612   6.649
35692SOL    HW1 8909  14.455   7.557   6.685
35692SOL    HW2 8910  14.599   7.598   6.707
35693SOL     OW 8911  10.656  14.807  12.327
35693SOL    HW1 8912  10.564  14.828  12.308
35693SOL    HW2 8913  10.699  14.810  12.242
35694SOL     OW 8914  13.023   8.333  14.739
35694SOL    HW1 8915  13.076   8.365  14.811
35694SOL    HW2 8916  13.080   8.340  14.662
35695SOL     OW 8917  10.097   3.721   4.637
35695SOL    HW1 8918  10.089   3.745   4.730
35695SOL    HW2 8919  10.051   3.637   4.631
35696SOL     OW 8920   4.254  11.925  13.581
35696SOL    HW1 8921   4.249  11.839  13.622
35696SOL    HW2 8922   4.236  11.986  13.653
35697SOL     OW 8923   8.322   5.068   3.387
35697SOL    HW1 8924   8.358   5.006   3.324
35697SOL    HW2 8925   8.231   5.040   3.399
35698SOL     OW 8926   1.457   6.804  14.841
35698SOL    HW1 8927   1.390   6.872  14.848
35698SOL    HW2 8928   1.536   6.844  14.877
35699SOL     OW 8929   9.579   7.573   5.153
35699SOL    HW1 8930   9.658   7.625   5.138
35699SOL    HW2 8931   9.529   7.623   5.217
35700SOL     OW 8932   6.840   1.106   7.664
35700SOL    HW1 8933   6.809   1.063   7.743
35700SOL    HW2 8934   6.808   1.050   7.593
35701SOL     OW 8935   0.929   2.900  10.969
35701SOL    HW1 8936   0.902   2.811  10.947
35701SOL    HW2 8937   1.001   2.890  11.030
35702SOL     OW 8938   0.523   5.124  10.791
35702SOL    HW1 8939   0.588   5.187  10.762
35702SOL    HW2 8940   0.458   5.177  10.838
35703SOL     OW 8941   1.912   2.071   0.791
35703SOL    HW1 8942   1.858   2.137   0.748
35703SOL    HW2 8943   1.851   2.021   0.845
35704SOL     OW 8944  10.106  13.541   1.357
35704SOL    HW1 8945  10.038  13.593   1.399
35704SOL    HW2 8946  10.143  13.599   1.290
35705SOL     OW 8947   3.323   9.016   0.158
35705SOL    HW1 8948   3.247   8.966   0.187
35705SOL    HW2 8949   3.348   9.068   0.234
35706SOL     OW 8950   3.615  12.748   4.721
35706SOL    HW1 8951   3.537  12.795   4.690
35706SOL    HW2 8952   3.672  12.817   4.754
35707SOL     OW 8953  11.366   8.280   1.907
35707SOL    HW1 8954  11.348   8.228   1.985
35707SOL    HW2 8955  11.280   8.296   1.868
35708SOL     OW 8956  10.140   3.157  13.836
35708SOL    HW1 8957  10.124   3.095  13.765
35708SOL    HW2 8958  10.179   3.233  13.792
35709SOL     OW 8959  14.646   0.028   5.461
35709SOL    HW1 8960  14.677   0.118   5.449
35709SOL    HW2 8961  14.606   0.005   5.377
35710SOL     OW 8962  13.123   7.187   8.702
35710SOL    HW1 8963  13.113   7.147   8.616
35710SOL    HW2 8964  13.198   7.142   8.741
35711SOL     OW 8965   3.941  11.137   9.890
35711SOL    HW1 8966   3.920  11.225   9.921
35711SOL    HW2 8967   3.925  11.140   9.796
35712SOL     OW 8968   8.755   8.472   6.298
35712SOL    HW1 8969   8.762   8.505   6.208
35712SOL    HW2 8970   8.755   8.550   6.352
35713SOL     OW 8971  12.766   4.969   4.013
35713SOL    HW1 8972  12.834   4.925   3.963
35713SOL    HW2 8973  12.795   4.963   4.104
35714SOL     OW 8974   9.660   5.298   9.539
35714SOL    HW1 8975   9.565   5.310   9.529
35714SOL    HW2 8976   9.694   5.295   9.450
35715SOL     OW 8977  12.266   9.723  11.053
35715SOL    HW1 8978  12.189   9.732  10.998
35715SOL    HW2 8979  12.296   9.633  11.038
35716SOL     OW 8980   3.410  12.789   2.857
35716SOL    HW1 8981   3.439  12.698   2.859
35716SOL    HW2 8982   3.325  12.786   2.814
35717SOL     OW 8983  10.484  13.850   8.294
35717SOL    HW1 8984  10.460  13.938   8.265
35717SOL    HW2 8985  10.546  13.819   8.227
35718SOL     OW 8986  10.245   4.721   4.055
35718SOL    HW1 8987  10.327   4.671   4.063
35718SOL    HW2 8988  10.243   4.776   4.133
35719SOL     OW 8989   2.011  11.318  13.663
35719SOL    HW1 8990   1.946  11.324  13.733
35719SOL    HW2 8991   2.062  11.240  13.685
35720SOL     OW 8992   9.831  11.840  13.584
35720SOL    HW1 8993   9.803  11.905  13.649
35720SOL    HW2 8994   9.813  11.882  13.500
35721SOL     OW 8995  14.540   6.996   2.055
35721SOL    HW1 8996  14.476   6.930   2.030
35721SOL    HW2 8997  14.606   6.948   2.105
35722SOL     OW 8998  10.424  11.688   0.263
35722SOL    HW1 8999  10.423  11.695   0.167
35722SOL    HW2 9000  10.349  11.740   0.292
35723SOL     OW 9001  12.269   1.530   9.302
35723SOL    HW1 9002  12.279   1.467   9.373
35723SOL    HW2 9003  12.352   1.523   9.253
35724SOL     OW 9004  14.860  11.371  12.334
35724SOL    HW1 9005  14.853  11.362  12.429
35724SOL    HW2 9006  14.770  11.378  12.303
35725SOL     OW 9007  12.430   9.371  13.915
35725SOL    HW1 9008  12.446   9.277  13.903
35725SOL    HW2 9009  12.506   9.413  13.873
35726SOL     OW 9010   6.159   2.589   2.537
35726SOL    HW1 9011   6.152   2.645   2.614
35726SOL    HW2 9012   6.194   2.507   2.569
35727SOL     OW 9013   6.844  13.916   4.110
35727SOL    HW1 9014   6.779  13.861   4.065
35727SOL    HW2 9015   6.902  13.854   4.153
35728SOL     OW 9016  11.495   4.183   4.699
35728SOL    HW1 9017  11.521   4.261   4.749
35728SOL    HW2 9018  11.418   4.149   4.745
35729SOL     OW 9019   2.895  12.056   1.886
35729SOL    HW1 9020   2.940  12.086   1.807
35729SOL    HW2 9021   2.804  12.083   1.873
35730SOL     OW 9022  12.117   8.510  12.560
35730SOL    HW1 9023  12.177   8.455  12.610
35730SOL    HW2 9024  12.072   8.563  12.626
35731SOL     OW 9025   4.319   4.299  11.853
35731SOL    HW1 9026   4.386   4.240  11.818
35731SOL    HW2 9027   4.248   4.241  11.882
35732SOL     OW 9028  14.399  10.909  11.081
35732SOL    HW1 9029  14.466  10.843  11.101
35732SOL    HW2 9030  14.329  10.861  11.037
35733SOL     OW 9031  12.614   0.278   2.649
35733SOL    HW1 9032  12.589   0.243   2.734
35733SOL    HW2 9033  12.531   0.290   2.602
35734SOL     OW 9034   3.587   7.943   8.576
35734SOL    HW1 9035   3.536   7.941   8.495
35734SOL    HW2 9036   3.672   7.978   8.549
35735SOL     OW 9037   8.021  11.658   8.980
35735SOL    HW1 9038   7.961  11.584   8.966
35735SOL    HW2 9039   8.045  11.652   9.072
35736SOL     OW 9040  14.513   4.221  10.614
35736SOL    HW1 9041  14.600   4.206  10.575
35736SOL    HW2 9042  14.481   4.300  10.572
35737SOL     OW 9043   6.241   2.441   1.719
35737SOL    HW1 9044   6.307   2.507   1.699
35737SOL    HW2 9045   6.292   2.363   1.743
35738SOL     OW 9046  11.123   4.879   7.705
35738SOL    HW1 9047  11.032   4.882   7.679
35738SOL    HW2 9048  11.153   4.793   7.676
35739SOL     OW 9049   0.293  13.896   3.457
35739SOL    HW1 9050   0.208  13.862   3.431
35739SOL    HW2 9051   0.277  13.988   3.477
35740SOL     OW 9052   9.623   2.856  11.643
35740SOL    HW1 9053   9.583   2.809  11.716
35740SOL    HW2 9054   9.628   2.947  11.672
35741SOL     OW 9055   3.728   6.313   3.427
35741SOL    HW1 9056   3.693   6.226   3.408
35741SOL    HW2 9057   3.650   6.369   3.433
35742SOL     OW 9058   3.314   2.055   1.887
35742SOL    HW1 9059   3.232   2.103   1.870
35742SOL    HW2 9060   3.335   2.077   1.978
35743SOL     OW 9061   8.427   2.500   8.506
35743SOL    HW1 9062   8.421   2.566   8.436
35743SOL    HW2 9063   8.349   2.516   8.560
35744SOL     OW 9064  11.586  13.696   7.037
35744SOL    HW1 9065  11.511  13.664   7.087
35744SOL    HW2 9066  11.552  13.771   6.989
35745SOL     OW 9067   9.157   0.150   8.366
35745SOL    HW1 9068   9.216   0.113   8.431
35745SOL    HW2 9069   9.071   0.150   8.409
35746SOL     OW 9070   0.654   2.991   8.497
35746SOL    HW1 9071   0.632   2.946   8.578
35746SOL    HW2 9072   0.615   3.078   8.507
35747SOL     OW 9073   3.891   1.055   9.719
35747SOL    HW1 9074   3.879   1.064   9.813
35747SOL    HW2 9075   3.978   1.090   9.702
35748SOL     OW 9076   6.815  14.808  12.381
35748SOL    HW1 9077   6.822  14.878  12.445
35748SOL    HW2 9078   6.868  14.737  12.417
35749SOL     OW 9079  11.413   5.067   9.200
35749SOL    HW1 9080  11.356   5.138   9.230
35749SOL    HW2 9081  11.397   5.062   9.105
35750SOL     OW 9082   3.253  11.705  14.845
35750SOL    HW1 9083   3.254  11.783   0.021
35750SOL    HW2 9084   3.263  11.632   0.028
35751SOL     OW 9085   3.569   9.605  12.816
35751SOL    HW1 9086   3.609   9.633  12.734
35751SOL    HW2 9087   3.480   9.581  12.793
35752SOL     OW 9088   2.737   7.496   1.501
35752SOL    HW1 9089   2.801   7.537   1.442
35752SOL    HW2 9090   2.785   7.484   1.583
35753SOL     OW 9091   4.983   1.380  12.656
35753SOL    HW1 9092   4.890   1.357  12.655
35753SOL    HW2 9093   5.027   1.302  12.691
35754SOL     OW 9094  14.494   8.054   7.630
35754SOL    HW1 9095  14.499   8.144   7.596
35754SOL    HW2 9096  14.400   8.038   7.642
35755SOL     OW 9097   8.752   1.176   1.364
35755SOL    HW1 9098   8.740   1.120   1.287
35755SOL    HW2 9099   8.825   1.233   1.341
35756SOL     OW 9100  13.372   0.494   2.966
35756SOL    HW1 9101  13.435   0.517   3.034
35756SOL    HW2 9102  13.323   0.575   2.951
35757SOL     OW 9103  10.314  11.917   2.342
35757SOL    HW1 9104  10.265  11.977   2.286
35757SOL    HW2 9105  10.376  11.875   2.282
35758SOL     OW 9106  14.039  14.611   7.431
35758SOL    HW1 9107  13.955  14.621   7.476
35758SOL    HW2 9108  14.100  14.666   7.480
35759SOL     OW 9109  10.288   9.123   5.475
35759SOL    HW1 9110  10.254   9.121   5.386
35759SOL    HW2 9111  10.382   9.138   5.465
35760SOL     OW 9112   3.741   0.192   4.197
35760SOL    HW1 9113   3.655   0.164   4.227
35760SOL    HW2 9114   3.723   0.259   4.131
35761SOL     OW 9115  13.247   0.569   8.080
35761SOL    HW1 9116  13.273   0.479   8.058
35761SOL    HW2 9117  13.153   0.562   8.100
35762SOL     OW 9118   9.855   6.856  14.411
35762SOL    HW1 9119   9.819   6.767  14.411
35762SOL    HW2 9120   9.885   6.871  14.501
35763SOL     OW 9121  12.467   9.747   4.272
35763SOL    HW1 9122  12.554   9.717   4.300
35763SOL    HW2 9123  12.438   9.805   4.343
35764SOL     OW 9124   8.606   4.876   2.859
35764SOL    HW1 9125   8.569   4.861   2.772
35764SOL    HW2 9126   8.699   4.854   2.849
35765SOL     OW 9127   7.925  12.222   5.871
35765SOL    HW1 9128   8.009  12.180   5.855
35765SOL    HW2 9129   7.946  12.302   5.919
35766SOL     OW 9130   0.179   0.305  12.553
35766SOL    HW1 9131   0.219   0.367  12.614
35766SOL    HW2 9132   0.227   0.223  12.567
35767SOL     OW 9133  11.202  13.768   6.231
35767SOL    HW1 9134  11.280  13.803   6.275
35767SOL    HW2 9135  11.229  13.753   6.141
35768SOL     OW 9136  13.160   6.755   4.446
35768SOL    HW1 9137  13.150   6.778   4.354
35768SOL    HW2 9138  13.237   6.698   4.449
35769SOL     OW 9139   0.916   5.113  12.465
35769SOL    HW1 9140   0.862   5.034  12.474
35769SOL    HW2 9141   1.003   5.081  12.444
35770SOL     OW 9142   7.568   1.394   3.912
35770SOL    HW1 9143   7.659   1.397   3.942
35770SOL    HW2 9144   7.571   1.346   3.830
35771SOL     OW 9145   0.134   0.613   1.882
35771SOL    HW1 9146   0.225   0.601   1.854
35771SOL    HW2 9147   0.132   0.700   1.923
35772SOL     OW 9148   1.683   9.543  11.360
35772SOL    HW1 9149   1.647   9.512  11.278
35772SOL    HW2 9150   1.672   9.638  11.358
35773SOL     OW 9151   1.645   1.769  11.502
35773SOL    HW1 9152   1.592   1.774  11.581
35773SOL    HW2 9153   1.601   1.702  11.448
35774SOL     OW 9154   5.749  14.089  13.878
35774SOL    HW1 9155   5.667  14.117  13.836
35774SOL    HW2 9156   5.732  14.000  13.908
35775SOL     OW 9157   4.618  10.854   2.416
35775SOL    HW1 9158   4.702  10.885   2.450
35775SOL    HW2 9159   4.613  10.889   2.328
35776SOL     OW 9160  14.655  13.908   7.229
35776SOL    HW1 9161  14.632  13.981   7.172
35776SOL    HW2 9162  14.573  13.885   7.274
35777SOL     OW 9163   1.218   2.185   8.248
35777SOL    HW1 9164   1.270   2.184   8.168
35777SOL    HW2 9165   1.272   2.140   8.312
35778SOL     OW 9166  13.507   6.850   1.852
35778SOL    HW1 9167  13.603   6.854   1.852
35778SOL    HW2 9168  13.482   6.882   1.765
35779SOL     OW 9169   3.166   5.501   2.583
35779SOL    HW1 9170   3.190   5.442   2.654
35779SOL    HW2 9171   3.086   5.543   2.613
35780SOL     OW 9172   8.531   1.003  14.865
35780SOL    HW1 9173   8.523   1.035   0.076
35780SOL    HW2 9174   8.613   1.040  14.833
35781SOL     OW 9175   5.609   1.477  10.959
35781SOL    HW1 9176   5.635   1.555  11.007
35781SOL    HW2 9177   5.517   1.491  10.937
35782SOL     OW 9178   6.987   8.242  14.486
35782SOL    HW1 9179   6.913   8.184  14.502
35782SOL    HW2 9180   7.041   8.235  14.564
35783SOL     OW 9181   7.926   8.317  10.637
35783SOL    HW1 9182   8.020   8.310  10.620
35783SOL    HW2 9183   7.920   8.337  10.730
35784SOL     OW 9184   0.127  14.772  10.337
35784SOL    HW1 9185   0.210  14.725  10.344
35784SOL    HW2 9186   0.129  14.835  10.409
35785SOL     OW 9187   8.264  12.702  10.057
35785SOL    HW1 9188   8.289  12.778  10.004
35785SOL    HW2 9189   8.175  12.720  10.085
35786SOL     OW 9190   0.756   3.780  11.435
35786SOL    HW1 9191   0.805   3.856  11.466
35786SOL    HW2 9192   0.784   3.709  11.492
35787SOL     OW 9193   0.396   3.018   2.358
35787SOL    HW1 9194   0.380   2.952   2.291
35787SOL    HW2 9195   0.388   3.101   2.313
35788SOL     OW 9196   5.565  12.676   8.432
35788SOL    HW1 9197   5.533  12.765   8.420
35788SOL    HW2 9198   5.500  12.633   8.487
35789SOL     OW 9199  11.412  11.218   1.944
35789SOL    HW1 9200  11.423  11.305   1.982
35789SOL    HW2 9201  11.389  11.161   2.018
35790SOL     OW 9202  14.327   2.321   9.023
35790SOL    HW1 9203  14.347   2.261   8.951
35790SOL    HW2 9204  14.337   2.268   9.102
35791SOL     OW 9205  13.800   8.972  11.242
35791SOL    HW1 9206  13.746   8.895  11.226
35791SOL    HW2 9207  13.769   9.006  11.326
35792SOL     OW 9208  14.052   2.030   3.370
35792SOL    HW1 9209  13.980   2.050   3.311
35792SOL    HW2 9210  14.011   2.018   3.455
35793SOL     OW 9211  13.926  11.461   5.194
35793SOL    HW1 9212  13.897  11.402   5.123
35793SOL    HW2 9213  13.859  11.529   5.197
35794SOL     OW 9214   2.473   2.464   8.505
35794SOL    HW1 9215   2.419   2.470   8.583
35794SOL    HW2 9216   2.424   2.512   8.438
35795SOL     OW 9217   7.638   1.170  14.711
35795SOL    HW1 9218   7.552   1.211  14.719
35795SOL    HW2 9219   7.697   1.229  14.758
35796SOL     OW 9220   7.571  13.076   1.627
35796SOL    HW1 9221   7.630  13.021   1.574
35796SOL    HW2 9222   7.629  13.134   1.675
35797SOL     OW 9223   2.203   2.304   2.928
35797SOL    HW1 9224   2.177   2.223   2.973
35797SOL    HW2 9225   2.275   2.338   2.980
35798SOL     OW 9226  12.204  12.717   2.701
35798SOL    HW1 9227  12.235  12.802   2.668
35798SOL    HW2 9228  12.109  12.722   2.694
35799SOL     OW 9229   2.719   4.067   1.248
35799SOL    HW1 9230   2.808   4.039   1.273
35799SOL    HW2 9231   2.662   4.015   1.305
35800SOL     OW 9232  11.543   0.030   0.626
35800SOL    HW1 9233  11.465   0.084   0.612
35800SOL    HW2 9234  11.569   0.050   0.716
35801SOL     OW 9235   2.817   3.282   5.209
35801SOL    HW1 9236   2.908   3.310   5.194
35801SOL    HW2 9237   2.765   3.349   5.164
35802SOL     OW 9238  12.789  10.262  13.394
35802SOL    HW1 9239  12.876  10.300  13.410
35802SOL    HW2 9240  12.805  10.193  13.329
35803SOL     OW 9241   4.674  14.212   3.121
35803SOL    HW1 9242   4.644  14.252   3.203
35803SOL    HW2 9243   4.740  14.272   3.088
35804SOL     OW 9244   4.027  12.558  11.786
35804SOL    HW1 9245   4.076  12.605  11.854
35804SOL    HW2 9246   4.089  12.551  11.713
35805SOL     OW 9247   8.790   5.127   5.934
35805SOL    HW1 9248   8.787   5.091   6.023
35805SOL    HW2 9249   8.768   5.219   5.945
35806SOL     OW 9250   4.499  13.266  12.544
35806SOL    HW1 9251   4.438  13.338  12.549
35806SOL    HW2 9252   4.467  13.211  12.473
35807SOL     OW 9253   1.939   4.436  12.794
35807SOL    HW1 9254   1.941   4.438  12.890
35807SOL    HW2 9255   1.989   4.357  12.771
35808SOL     OW 9256  12.550   6.535   1.582
35808SOL    HW1 9257  12.458   6.551   1.561
35808SOL    HW2 9258  12.592   6.621   1.572
35809SOL     OW 9259   4.998  12.052   3.076
35809SOL    HW1 9260   5.057  12.082   3.006
35809SOL    HW2 9261   5.046  11.983   3.121
35810SOL     OW 9262   9.431  10.952   3.667
35810SOL    HW1 9263   9.359  10.995   3.620
35810SOL    HW2 9264   9.430  10.993   3.754
35811SOL     OW 9265  11.556   7.665  13.640
35811SOL    HW1 9266  11.577   7.758  13.650
35811SOL    HW2 9267  11.461   7.663  13.624
35812SOL     OW 9268  11.195   8.399  14.387
35812SOL    HW1 9269  11.155   8.350  14.315
35812SOL    HW2 9270  11.122   8.445  14.428
35813SOL     OW 9271   0.710   7.899  10.489
35813SOL    HW1 9272   0.698   7.848  10.570
35813SOL    HW2 9273   0.718   7.832  10.421
35814SOL     OW 9274   3.166   4.094  12.413
35814SOL    HW1 9275   3.106   4.019  12.409
35814SOL    HW2 9276   3.251   4.058  12.387
35815SOL     OW 9277  13.974   1.053   9.739
35815SOL    HW1 9278  13.918   1.127   9.762
35815SOL    HW2 9279  14.057   1.070   9.784
35816SOL     OW 9280  10.631   4.276   6.226
35816SOL    HW1 9281  10.677   4.194   6.243
35816SOL    HW2 9282  10.544   4.250   6.195
35817SOL     OW 9283   9.161   2.583   0.898
35817SOL    HW1 9284   9.117   2.532   0.967
35817SOL    HW2 9285   9.205   2.654   0.945
35818SOL     OW 9286   8.393   9.785   6.173
35818SOL    HW1 9287   8.400   9.738   6.090
35818SOL    HW2 9288   8.412   9.876   6.150
35819SOL     OW 9289   2.220   1.826   6.732
35819SOL    HW1 9290   2.142   1.824   6.676
35819SOL    HW2 9291   2.288   1.784   6.679
35820SOL     OW 9292  13.931  10.731   4.632
35820SOL    HW1 9293  13.851  10.742   4.581
35820SOL    HW2 9294  14.001  10.759   4.572
35821SOL     OW 9295   4.669   3.587   6.681
35821SOL    HW1 9296   4.626   3.638   6.613
35821SOL    HW2 9297   4.613   3.510   6.693
35822SOL     OW 9298  11.773   7.756  10.413
35822SOL    HW1 9299  11.822   7.706  10.479
35822SOL    HW2 9300  11.692   7.781  10.458
35823SOL     OW 9301  13.773  10.790   0.053
35823SOL    HW1 9302  13.803  10.705   0.085
35823SOL    HW2 9303  13.783  10.849   0.128
35824SOL     OW 9304  13.539  12.751   8.793
35824SOL    HW1 9305  13.551  12.756   8.698
35824SOL    HW2 9306  13.508  12.838   8.818
35825SOL     OW 9307  10.078   5.642   6.946
35825SOL    HW1 9308  10.164   5.683   6.935
35825SOL    HW2 9309  10.059   5.601   6.861
35826SOL     OW 9310   0.775   1.064   3.916
35826SOL    HW1 9311   0.769   1.156   3.938
35826SOL    HW2 9312   0.780   1.019   4.000
35827SOL     OW 9313   7.722   6.834   6.184
35827SOL    HW1 9314   7.656   6.896   6.217
35827SOL    HW2 9315   7.673   6.778   6.124
35828SOL     OW 9316   0.677  11.216   1.456
35828SOL    HW1 9317   0.651  11.307   1.440
35828SOL    HW2 9318   0.595  11.171   1.477
35829SOL     OW 9319   1.192   1.326  12.735
35829SOL    HW1 9320   1.175   1.315  12.828
35829SOL    HW2 9321   1.225   1.415  12.726
35830SOL     OW 9322   7.955   6.523   7.656
35830SOL    HW1 9323   7.996   6.486   7.578
35830SOL    HW2 9324   8.002   6.605   7.671
35831SOL     OW 9325   2.605  11.449   0.062
35831SOL    HW1 9326   2.608  11.374   0.121
35831SOL    HW2 9327   2.696  11.463   0.036
35832SOL     OW 9328   6.774  13.164  14.333
35832SOL    HW1 9329   6.775  13.070  14.316
35832SOL    HW2 9330   6.769  13.172  14.428
35833SOL     OW 9331   9.461  12.625  14.220
35833SOL    HW1 9332   9.541  12.622  14.167
35833SOL    HW2 9333   9.471  12.554  14.283
35834SOL     OW 9334  12.495  12.937  11.477
35834SOL    HW1 9335  12.437  12.865  11.500
35834SOL    HW2 9336  12.583  12.905  11.497
35835SOL     OW 9337   6.326  14.594  12.302
35835SOL    HW1 9338   6.394  14.660  12.289
35835SOL    HW2 9339   6.373  14.510  12.295
35836SOL     OW 9340   8.003   6.914   9.871
35836SOL    HW1 9341   8.008   7.003   9.906
35836SOL    HW2 9342   7.985   6.859   9.948
35837SOL     OW 9343  14.596  13.124   6.577
35837SOL    HW1 9344  14.618  13.167   6.495
35837SOL    HW2 9345  14.521  13.069   6.555
35838SOL     OW 9346   1.564  14.375   7.837
35838SOL    HW1 9347   1.537  14.454   7.884
35838SOL    HW2 9348   1.611  14.323   7.902
35839SOL     OW 9349   2.944  13.053   8.941
35839SOL    HW1 9350   2.935  13.009   8.856
35839SOL    HW2 9351   2.857  13.089   8.959
35840SOL     OW 9352   8.593   2.793  13.739
35840SOL    HW1 9353   8.676   2.842  13.743
35840SOL    HW2 9354   8.550   2.826  13.659
35841SOL     OW 9355  13.752   2.122  10.503
35841SOL    HW1 9356  13.843   2.093  10.506
35841SOL    HW2 9357  13.701   2.041  10.503
35842SOL     OW 9358   7.886   5.615   3.679
35842SOL    HW1 9359   7.901   5.609   3.774
35842SOL    HW2 9360   7.900   5.527   3.647
35843SOL     OW 9361   0.473   5.871   8.244
35843SOL    HW1 9362   0.551   5.866   8.188
35843SOL    HW2 9363   0.420   5.939   8.204
35844SOL     OW 9364   0.792   1.023   4.192
35844SOL    HW1 9365   0.862   0.976   4.237
35844SOL    HW2 9366   0.761   1.087   4.257
35845SOL     OW 9367   2.154   9.445   1.776
35845SOL    HW1 9368   2.191   9.441   1.688
35845SOL    HW2 9369   2.159   9.355   1.809
35846SOL     OW 9370   8.932   8.151  10.732
35846SOL    HW1 9371   8.900   8.169  10.820
35846SOL    HW2 9372   9.014   8.200  10.725
35847SOL     OW 9373   6.569  14.437  11.918
35847SOL    HW1 9374   6.510  14.431  11.843
35847SOL    HW2 9375   6.585  14.347  11.945
35848SOL     OW 9376   7.417  14.709   7.369
35848SOL    HW1 9377   7.505  14.712   7.332
35848SOL    HW2 9378   7.406  14.794   7.412
35849SOL     OW 9379   0.659  12.920   4.029
35849SOL    HW1 9380   0.649  13.014   4.043
35849SOL    HW2 9381   0.612  12.901   3.949
35850SOL     OW 9382   3.320  10.613   8.461
35850SOL    HW1 9383   3.340  10.541   8.522
35850SOL    HW2 9384   3.321  10.691   8.517
35851SOL     OW 9385   5.428  12.267  14.624
35851SOL    HW1 9386   5.373  12.201  14.582
35851SOL    HW2 9387   5.516  12.229  14.625
35852SOL     OW 9388  11.273   2.360   3.428
35852SOL    HW1 9389  11.270   2.283   3.485
35852SOL    HW2 9390  11.190   2.405   3.444
35853SOL     OW 9391  13.936   6.417  12.968
35853SOL    HW1 9392  13.904   6.327  12.953
35853SOL    HW2 9393  13.885   6.448  13.043
35854SOL     OW 9394   1.735   0.511  11.425
35854SOL    HW1 9395   1.674   0.437  11.428
35854SOL    HW2 9396   1.680   0.589  11.428
35855SOL     OW 9397  10.003  10.133  10.225
35855SOL    HW1 9398  10.030  10.206  10.170
35855SOL    HW2 9399   9.927  10.166  10.273
35856SOL     OW 9400   9.209  10.632   3.036
35856SOL    HW1 9401   9.253  10.699   2.983
35856SOL    HW2 9402   9.118  10.661   3.040
35857SOL     OW 9403   6.827   6.060   2.712
35857SOL    HW1 9404   6.868   5.974   2.712
35857SOL    HW2 9405   6.878   6.111   2.775
35858SOL     OW 9406  10.056  14.400  12.140
35858SOL    HW1 9407   9.975  14.368  12.100
35858SOL    HW2 9408  10.115  14.326  12.136
35859SOL     OW 9409   6.524   6.297   1.059
35859SOL    HW1 9410   6.552   6.388   1.071
35859SOL    HW2 9411   6.524   6.261   1.148
35860SOL     OW 9412   0.671   1.045  12.277
35860SOL    HW1 9413   0.617   0.971  12.248
35860SOL    HW2 9414   0.628   1.076  12.357
35861SOL     OW 9415   1.298   2.495   9.034
35861SOL    HW1 9416   1.259   2.425   8.981
35861SOL    HW2 9417   1.303   2.569   8.974
35862SOL     OW 9418  14.617   0.994  10.112
35862SOL    HW1 9419  14.634   1.038  10.195
35862SOL    HW2 9420  14.645   0.903  10.127
35863SOL     OW 9421   9.263   2.251   4.288
35863SOL    HW1 9422   9.222   2.243   4.202
35863SOL    HW2 9423   9.241   2.340   4.317
35864SOL     OW 9424   2.693  14.425  10.528
35864SOL    HW1 9425   2.629  14.488  10.559
35864SOL    HW2 9426   2.778  14.461  10.555
35865SOL     OW 9427  10.260   8.446   4.514
35865SOL    HW1 9428  10.287   8.465   4.425
35865SOL    HW2 9429  10.240   8.353   4.514
35866SOL     OW 9430  12.610   2.801   4.633
35866SOL    HW1 9431  12.546   2.773   4.699
35866SOL    HW2 9432  12.640   2.886   4.664
35867SOL     OW 9433   2.272   3.622   6.913
35867SOL    HW1 9434   2.190   3.631   6.864
35867SOL    HW2 9435   2.311   3.710   6.910
35868SOL     OW 9436   7.514   4.934   2.406
35868SOL    HW1 9437   7.444   4.951   2.342
35868SOL    HW2 9438   7.571   4.871   2.361
35869SOL     OW 9439   3.075   7.094   8.317
35869SOL    HW1 9440   3.082   7.132   8.230
35869SOL    HW2 9441   3.074   6.999   8.303
35870SOL     OW 9442   5.031   4.388   5.888
35870SOL    HW1 9443   5.104   4.396   5.951
35870SOL    HW2 9444   5.054   4.448   5.817
35871SOL     OW 9445   6.381   2.955  14.870
35871SOL    HW1 9446   6.326   2.904   0.050
35871SOL    HW2 9447   6.448   2.995   0.047
35872SOL     OW 9448  14.307   9.236  13.258
35872SOL    HW1 9449  14.332   9.324  13.285
35872SOL    HW2 9450  14.273   9.247  13.169
35873SOL     OW 9451  13.500   0.458   1.817
35873SOL    HW1 9452  13.568   0.480   1.753
35873SOL    HW2 9453  13.530   0.376   1.856
35874SOL     OW 9454  10.705   1.764   5.274
35874SOL    HW1 9455  10.758   1.842   5.255
35874SOL    HW2 9456  10.627   1.798   5.316
35875SOL     OW 9457  12.742   1.855  12.502
35875SOL    HW1 9458  12.696   1.818  12.427
35875SOL    HW2 9459  12.679   1.850  12.574
35876SOL     OW 9460   9.553   6.544  13.832
35876SOL    HW1 9461   9.550   6.620  13.775
35876SOL    HW2 9462   9.628   6.559  13.889
35877SOL     OW 9463   1.829  11.563  10.483
35877SOL    HW1 9464   1.780  11.614  10.547
35877SOL    HW2 9465   1.888  11.509  10.535
35878SOL     OW 9466  12.515  13.645  11.564
35878SOL    HW1 9467  12.513  13.575  11.629
35878SOL    HW2 9468  12.589  13.624  11.507
35879SOL     OW 9469   7.703   9.391  11.720
35879SOL    HW1 9470   7.644   9.466  11.728
35879SOL    HW2 9471   7.657   9.330  11.663
35880SOL     OW 9472   2.058  10.667  13.380
35880SOL    HW1 9473   1.969  10.695  13.401
35880SOL    HW2 9474   2.051  10.572  13.369
35881SOL     OW 9475   4.182   7.768   0.347
35881SOL    HW1 9476   4.166   7.748   0.255
35881SOL    HW2 9477   4.269   7.731   0.365
35882SOL     OW 9478  13.688   7.166   4.042
35882SOL    HW1 9479  13.758   7.124   4.091
35882SOL    HW2 9480  13.727   7.247   4.007
35883SOL     OW 9481   8.578   8.217   5.283
35883SOL    HW1 9482   8.635   8.161   5.231
35883SOL    HW2 9483   8.529   8.267   5.218
35884SOL     OW 9484   8.050  14.304   3.784
35884SOL    HW1 9485   8.004  14.387   3.768
35884SOL    HW2 9486   7.983  14.237   3.777
35885SOL     OW 9487   2.335   1.400  11.070
35885SOL    HW1 9488   2.412   1.443  11.035
35885SOL    HW2 9489   2.369   1.327  11.122
35886SOL     OW 9490  11.386  14.106  11.386
35886SOL    HW1 9491  11.357  14.074  11.472
35886SOL    HW2 9492  11.475  14.071  11.376
35887SOL     OW 9493   8.617   4.700   4.828
35887SOL    HW1 9494   8.572   4.619   4.854
35887SOL    HW2 9495   8.558   4.770   4.854
35888SOL     OW 9496  10.055  13.494   7.289
35888SOL    HW1 9497  10.074  13.493   7.382
35888SOL    HW2 9498  10.021  13.582   7.272
35889SOL     OW 9499   7.186  13.090   8.383
35889SOL    HW1 9500   7.232  13.008   8.367
35889SOL    HW2 9501   7.157  13.083   8.474
35890SOL     OW 9502   5.384   0.909   3.151
35890SOL    HW1 9503   5.399   0.819   3.124
35890SOL    HW2 9504   5.303   0.935   3.105
35891SOL     OW 9505   4.150   0.797   5.706
35891SOL    HW1 9506   4.103   0.717   5.729
35891SOL    HW2 9507   4.091   0.868   5.730
35892SOL     OW 9508   0.837   4.804  13.179
35892SOL    HW1 9509   0.792   4.721  13.193
35892SOL    HW2 9510   0.814   4.829  13.089
35893SOL     OW 9511   8.922   2.299   8.606
35893SOL    HW1 9512   8.878   2.219   8.576
35893SOL    HW2 9513   8.900   2.306   8.699
35894SOL     OW 9514   1.770  12.810  12.594
35894SOL    HW1 9515   1.712  12.803  12.670
35894SOL    HW2 9516   1.855  12.778  12.625
35895SOL     OW 9517   3.613  10.092   6.583
35895SOL    HW1 9518   3.606  10.067   6.676
35895SOL    HW2 9519   3.568  10.176   6.577
35896SOL     OW 9520  14.446   2.270   2.383
35896SOL    HW1 9521  14.513   2.335   2.404
35896SOL    HW2 9522  14.491   2.206   2.327
35897SOL     OW 9523  14.670  12.322   8.015
35897SOL    HW1 9524  14.625  12.356   7.937
35897SOL    HW2 9525  14.701  12.235   7.988
35898SOL     OW 9526   8.840  13.375  13.905
35898SOL    HW1 9527   8.803  13.430  13.837
35898SOL    HW2 9528   8.906  13.321  13.860
35899SOL     OW 9529   7.982   3.411   7.545
35899SOL    HW1 9530   7.963   3.324   7.509
35899SOL    HW2 9531   7.922   3.419   7.619
35900SOL     OW 9532  12.811   3.803   2.837
35900SOL    HW1 9533  12.904   3.809   2.861
35900SOL    HW2 9534  12.765   3.840   2.912
35901SOL     OW 9535   2.504  14.751   1.670
35901SOL    HW1 9536   2.514  14.656   1.667
35901SOL    HW2 9537   2.462  14.768   1.755
35902SOL     OW 9538  10.603   7.501  13.995
35902SOL    HW1 9539  10.649   7.418  13.984
35902SOL    HW2 9540  10.645   7.561  13.934
35903SOL     OW 9541   3.497   9.050   3.327
35903SOL    HW1 9542   3.469   9.139   3.349
35903SOL    HW2 9543   3.504   9.006   3.411
35904SOL     OW 9544   7.301   4.674   4.917
35904SOL    HW1 9545   7.368   4.655   4.851
35904SOL    HW2 9546   7.228   4.617   4.894
35905SOL     OW 9547  13.497   9.376   4.263
35905SOL    HW1 9548  13.469   9.294   4.221
35905SOL    HW2 9549  13.592   9.374   4.259
35906SOL     OW 9550  10.832  14.036   5.138
35906SOL    HW1 9551  10.828  14.131   5.131
35906SOL    HW2 9552  10.848  14.006   5.048
35907SOL     OW 9553  10.370  13.958   6.770
35907SOL    HW1 9554  10.300  13.958   6.705
35907SOL    HW2 9555  10.351  13.881   6.825
35908SOL     OW 9556  13.140   0.636   3.258
35908SOL    HW1 9557  13.100   0.569   3.314
35908SOL    HW2 9558  13.194   0.687   3.318
35909SOL     OW 9559   7.505  14.575  10.604
35909SOL    HW1 9560   7.529  14.509  10.669
35909SOL    HW2 9561   7.472  14.649  10.655
35910SOL     OW 9562  13.378   1.545   5.370
35910SOL    HW1 9563  13.427   1.563   5.451
35910SOL    HW2 9564  13.292   1.585   5.386
35911SOL     OW 9565   2.314   1.465  12.935
35911SOL    HW1 9566   2.352   1.381  12.910
35911SOL    HW2 9567   2.311   1.463  13.031
35912SOL     OW 9568  14.424   9.626   5.063
35912SOL    HW1 9569  14.478   9.671   4.998
35912SOL    HW2 9570  14.465   9.645   5.147
35913SOL     OW 9571   2.991  13.974   6.029
35913SOL    HW1 9572   2.944  13.937   5.954
35913SOL    HW2 9573   3.000  14.067   6.008
35914SOL     OW 9574   6.829   3.826   6.410
35914SOL    HW1 9575   6.907   3.866   6.448
35914SOL    HW2 9576   6.819   3.870   6.325
35915SOL     OW 9577  13.144  11.228   8.305
35915SOL    HW1 9578  13.133  11.322   8.291
35915SOL    HW2 9579  13.179  11.195   8.222
35916SOL     OW 9580   7.197   8.201  10.631
35916SOL    HW1 9581   7.130   8.268  10.614
35916SOL    HW2 9582   7.277   8.251  10.649
35917SOL     OW 9583   7.319   3.876   5.838
35917SOL    HW1 9584   7.249   3.884   5.773
35917SOL    HW2 9585   7.357   3.790   5.821
35918SOL     OW 9586   2.646   0.197   0.296
35918SOL    HW1 9587   2.664   0.129   0.361
35918SOL    HW2 9588   2.729   0.209   0.250
35919SOL     OW 9589  11.936   7.399   1.767
35919SOL    HW1 9590  11.844   7.410   1.743
35919SOL    HW2 9591  11.954   7.306   1.753
35920SOL     OW 9592   1.647   7.656  12.996
35920SOL    HW1 9593   1.552   7.661  12.980
35920SOL    HW2 9594   1.668   7.740  13.036
35921SOL     OW 9595   8.126   7.745   3.198
35921SOL    HW1 9596   8.040   7.761   3.158
35921SOL    HW2 9597   8.130   7.650   3.210
35922SOL     OW 9598   7.779  10.113   0.938
35922SOL    HW1 9599   7.840  10.059   0.889
35922SOL    HW2 9600   7.833  10.156   1.004
35923SOL     OW 9601   5.103   2.219   9.230
35923SOL    HW1 9602   5.119   2.198   9.138
35923SOL    HW2 9603   5.188   2.208   9.273
35924SOL     OW 9604   2.631   7.665  12.199
35924SOL    HW1 9605   2.545   7.668  12.158
35924SOL    HW2 9606   2.678   7.739  12.162
35925SOL     OW 9607   4.365   5.473  12.400
35925SOL    HW1 9608   4.450   5.510  12.379
35925SOL    HW2 9609   4.303   5.524  12.347
35926SOL     OW 9610   4.144   4.954   6.649
35926SOL    HW1 9611   4.066   4.946   6.594
35926SOL    HW2 9612   4.110   4.954   6.739
35927SOL     OW 9613   9.860  11.711  13.017
35927SOL    HW1 9614   9.779  11.681  13.059
35927SOL    HW2 9615   9.895  11.634  12.974
35928SOL     OW 9616  12.633   7.185   2.721
35928SOL    HW1 9617  12.670   7.100   2.744
35928SOL    HW2 9618  12.643   7.189   2.625
35929SOL     OW 9619   6.822   6.332   9.388
35929SOL    HW1 9620   6.798   6.423   9.399
35929SOL    HW2 9621   6.753   6.295   9.332
35930SOL     OW 9622  10.729   8.574   1.720
35930SOL    HW1 9623  10.702   8.493   1.763
35930SOL    HW2 9624  10.652   8.630   1.725
35931SOL     OW 9625   8.578  14.839   3.866
35931SOL    HW1 9626   8.501   0.015   3.878
35931SOL    HW2 9627   8.545  14.749   3.873
35932SOL     OW 9628   2.728  12.248   2.422
35932SOL    HW1 9629   2.634  12.264   2.417
35932SOL    HW2 9630   2.762  12.276   2.337
35933SOL     OW 9631   7.472   5.533  12.057
35933SOL    HW1 9632   7.535   5.565  11.992
35933SOL    HW2 9633   7.398   5.593  12.049
35934SOL     OW 9634   4.842   8.997   9.698
35934SOL    HW1 9635   4.865   8.910   9.665
35934SOL    HW2 9636   4.765   9.023   9.647
35935SOL     OW 9637   9.925   4.687   4.157
35935SOL    HW1 9638   9.905   4.730   4.240
35935SOL    HW2 9639   9.984   4.747   4.112
35936SOL     OW 9640   3.687   9.243  10.373
35936SOL    HW1 9641   3.648   9.254  10.287
35936SOL    HW2 9642   3.644   9.165  10.409
35937SOL     OW 9643   6.887  10.445   7.865
35937SOL    HW1 9644   6.958  10.468   7.925
35937SOL    HW2 9645   6.918  10.367   7.819
35938SOL     OW 9646   9.245   7.313   7.854
35938SOL    HW1 9647   9.227   7.345   7.943
35938SOL    HW2 9648   9.181   7.359   7.799
35939SOL     OW 9649  10.093  13.887   3.332
35939SOL    HW1 9650  10.033  13.881   3.258
35939SOL    HW2 9651  10.139  13.970   3.320
35940SOL     OW 9652   0.475   5.142   7.046
35940SOL    HW1 9653   0.485   5.181   7.133
35940SOL    HW2 9654   0.387   5.168   7.018
35941SOL     OW 9655   6.239   8.663  12.327
35941SOL    HW1 9656   6.196   8.669  12.241
35941SOL    HW2 9657   6.246   8.569  12.344
35942SOL     OW 9658   4.096  13.987   0.880
35942SOL    HW1 9659   4.152  13.969   0.955
35942SOL    HW2 9660   4.152  13.973   0.804
35943SOL     OW 9661   2.558   7.308   0.056
35943SOL    HW1 9662   2.525   7.266   0.134
35943SOL    HW2 9663   2.521   7.396   0.058
35944SOL     OW 9664  11.498   4.951   0.319
35944SOL    HW1 9665  11.557   5.008   0.270
35944SOL    HW2 9666  11.440   4.913   0.253
35945SOL     OW 9667   6.568  10.720   3.509
35945SOL    HW1 9668   6.489  10.736   3.560
35945SOL    HW2 9669   6.538  10.682   3.427
35946SOL     OW 9670   8.648   5.077  12.391
35946SOL    HW1 9671   8.676   5.166  12.409
35946SOL    HW2 9672   8.573   5.062  12.449
35947SOL     OW 9673   1.524  10.478   1.647
35947SOL    HW1 9674   1.593  10.411   1.652
35947SOL    HW2 9675   1.536  10.518   1.561
35948SOL     OW 9676   2.739   9.476   6.457
35948SOL    HW1 9677   2.743   9.434   6.371
35948SOL    HW2 9678   2.816   9.444   6.503
35949SOL     OW 9679   8.047  12.694   2.362
35949SOL    HW1 9680   8.113  12.764   2.364
35949SOL    HW2 9681   8.081  12.628   2.422
35950SOL     OW 9682   0.289   8.215   1.786
35950SOL    HW1 9683   0.343   8.294   1.792
35950SOL    HW2 9684   0.322   8.169   1.708
35951SOL     OW 9685   7.531   0.268   2.475
35951SOL    HW1 9686   7.616   0.268   2.519
35951SOL    HW2 9687   7.533   0.191   2.419
35952SOL     OW 9688   1.654   8.913  10.924
35952SOL    HW1 9689   1.597   8.940  10.852
35952SOL    HW2 9690   1.739   8.951  10.903
35953SOL     OW 9691   3.278   3.725   8.550
35953SOL    HW1 9692   3.188   3.713   8.578
35953SOL    HW2 9693   3.322   3.764   8.625
35954SOL     OW 9694   9.879   8.919   2.336
35954SOL    HW1 9695   9.966   8.911   2.375
35954SOL    HW2 9696   9.835   8.837   2.357
35955SOL     OW 9697  12.022   1.164  11.694
35955SOL    HW1 9698  12.111   1.137  11.717
35955SOL    HW2 9699  11.997   1.225  11.763
35956SOL     OW 9700   6.081  12.680   8.295
35956SOL    HW1 9701   6.170  12.705   8.273
35956SOL    HW2 9702   6.041  12.657   8.211
35957SOL     OW 9703   3.903   9.693  14.412
35957SOL    HW1 9704   3.893   9.598  14.413
35957SOL    HW2 9705   3.849   9.723  14.486
35958SOL     OW 9706   9.821   3.824   2.511
35958SOL    HW1 9707   9.732   3.798   2.484
35958SOL    HW2 9708   9.807   3.904   2.563
35959SOL     OW 9709   0.956   2.617   6.493
35959SOL    HW1 9710   0.902   2.550   6.534
35959SOL    HW2 9711   0.913   2.635   6.409
35960SOL     OW 9712   5.984  12.837   0.001
35960SOL    HW1 9713   5.902  12.871   0.037
35960SOL    HW2 9714   5.967  12.829  14.786
35961SOL     OW 9715   5.603   5.410   4.309
35961SOL    HW1 9716   5.693   5.392   4.283
35961SOL    HW2 9717   5.551   5.391   4.231
35962SOL     OW 9718   1.390   8.938   8.421
35962SOL    HW1 9719   1.412   9.025   8.454
35962SOL    HW2 9720   1.432   8.878   8.481
35963SOL     OW 9721   0.029  12.006   7.437
35963SOL    HW1 9722   0.022  12.009   7.533
35963SOL    HW2 9723  14.862  11.926   7.412
35964SOL     OW 9724  11.487  14.140   1.387
35964SOL    HW1 9725  11.571  14.183   1.397
35964SOL    HW2 9726  11.446  14.146   1.473
35965SOL     OW 9727  10.297   3.414  13.015
35965SOL    HW1 9728  10.259   3.408  12.927
35965SOL    HW2 9729  10.296   3.507  13.035
35966SOL     OW 9730   3.939   0.561   1.882
35966SOL    HW1 9731   3.891   0.579   1.801
35966SOL    HW2 9732   3.958   0.467   1.877
35967SOL     OW 9733   8.173   3.683   9.226
35967SOL    HW1 9734   8.206   3.706   9.313
35967SOL    HW2 9735   8.193   3.590   9.217
35968SOL     OW 9736   2.840   8.763   1.007
35968SOL    HW1 9737   2.789   8.684   1.026
35968SOL    HW2 9738   2.927   8.731   0.986
35969SOL     OW 9739   3.110   7.162   3.841
35969SOL    HW1 9740   3.194   7.131   3.809
35969SOL    HW2 9741   3.098   7.247   3.799
35970SOL     OW 9742   1.788  12.175  14.315
35970SOL    HW1 9743   1.816  12.158  14.224
35970SOL    HW2 9744   1.758  12.089  14.346
35971SOL     OW 9745   1.957   7.362  11.232
35971SOL    HW1 9746   1.984   7.270  11.242
35971SOL    HW2 9747   2.029   7.413  11.267
35972SOL     OW 9748   6.509  12.613   1.699
35972SOL    HW1 9749   6.543  12.539   1.647
35972SOL    HW2 9750   6.570  12.684   1.682
35973SOL     OW 9751  12.712   9.131   0.864
35973SOL    HW1 9752  12.616   9.135   0.872
35973SOL    HW2 9753  12.737   9.222   0.845
35974SOL     OW 9754   2.501  13.390  12.585
35974SOL    HW1 9755   2.406  13.397  12.593
35974SOL    HW2 9756   2.535  13.452  12.649
35975SOL     OW 9757   5.230  13.981   2.593
35975SOL    HW1 9758   5.250  13.998   2.685
35975SOL    HW2 9759   5.153  13.925   2.595
35976SOL     OW 9760   6.188   7.024  14.244
35976SOL    HW1 9761   6.141   6.951  14.285
35976SOL    HW2 9762   6.216   6.990  14.159
35977SOL     OW 9763  13.050  14.653  12.083
35977SOL    HW1 9764  12.979  14.636  12.144
35977SOL    HW2 9765  13.017  14.722  12.026
35978SOL     OW 9766   7.958   4.614   1.910
35978SOL    HW1 9767   7.920   4.553   1.847
35978SOL    HW2 9768   8.032   4.567   1.947
35979SOL     OW 9769   0.628   6.849   2.499
35979SOL    HW1 9770   0.651   6.934   2.536
35979SOL    HW2 9771   0.698   6.830   2.437
35980SOL     OW 9772   5.453  13.635  13.846
35980SOL    HW1 9773   5.403  13.590  13.913
35980SOL    HW2 9774   5.411  13.610  13.763
35981SOL     OW 9775   6.204   6.530   5.662
35981SOL    HW1 9776   6.268   6.476   5.708
35981SOL    HW2 9777   6.247   6.614   5.651
35982SOL     OW 9778   2.000   1.067   2.663
35982SOL    HW1 9779   1.969   1.000   2.602
35982SOL    HW2 9780   2.095   1.057   2.664
35983SOL     OW 9781  13.647   9.911   2.143
35983SOL    HW1 9782  13.562   9.912   2.098
35983SOL    HW2 9783  13.630   9.953   2.227
35984SOL     OW 9784   3.930   6.962   3.678
35984SOL    HW1 9785   3.859   6.957   3.613
35984SOL    HW2 9786   3.991   6.894   3.652
35985SOL     OW 9787   8.403   1.261   5.162
35985SOL    HW1 9788   8.495   1.237   5.165
35985SOL    HW2 9789   8.361   1.204   5.227
35986SOL     OW 9790  10.804  10.189   9.554
35986SOL    HW1 9791  10.858  10.110   9.556
35986SOL    HW2 9792  10.816  10.224   9.466
35987SOL     OW 9793   3.832   8.470   9.902
35987SOL    HW1 9794   3.821   8.512   9.817
35987SOL    HW2 9795   3.758   8.409   9.908
35988SOL     OW 9796   6.030   4.321   0.917
35988SOL    HW1 9797   6.070   4.331   0.831
35988SOL    HW2 9798   6.033   4.409   0.955
35989SOL     OW 9799  11.831  12.767   3.149
35989SOL    HW1 9800  11.909  12.780   3.095
35989SOL    HW2 9801  11.798  12.681   3.123
35990SOL     OW 9802  14.491   1.045   1.613
35990SOL    HW1 9803  14.542   0.987   1.669
35990SOL    HW2 9804  14.464   1.116   1.671
35991SOL     OW 9805  12.983   0.672  10.434
35991SOL    HW1 9806  12.946   0.735  10.496
35991SOL    HW2 9807  12.936   0.688  10.353
35992SOL     OW 9808   0.382  10.362   6.270
35992SOL    HW1 9809   0.297  10.356   6.313
35992SOL    HW2 9810   0.361  10.390   6.180
35993SOL     OW 9811  10.160   3.088   3.186
35993SOL    HW1 9812  10.150   3.183   3.186
35993SOL    HW2 9813  10.128   3.060   3.100
35994SOL     OW 9814   2.574   3.197   2.323
35994SOL    HW1 9815   2.578   3.222   2.231
35994SOL    HW2 9816   2.629   3.262   2.368
35995SOL     OW 9817   1.467   6.525  11.462
35995SOL    HW1 9818   1.511   6.440  11.459
35995SOL    HW2 9819   1.537   6.588  11.446
35996SOL     OW 9820   7.188   9.267  11.733
35996SOL    HW1 9821   7.200   9.247  11.640
35996SOL    HW2 9822   7.262   9.224  11.777
35997SOL     OW 9823   6.270  14.217  13.924
35997SOL    HW1 9824   6.226  14.296  13.956
35997SOL    HW2 9825   6.291  14.168  14.004
35998SOL     OW 9826  11.665   3.222   0.306
35998SOL    HW1 9827  11.575   3.203   0.281
35998SOL    HW2 9828  11.687   3.155   0.370
35999SOL     OW 9829   8.717   9.877   1.631
35999SOL    HW1 9830   8.771   9.940   1.584
35999SOL    HW2 9831   8.709   9.913   1.719
36000SOL     OW 9832  10.520  13.036  10.988
36000SOL    HW1 9833  10.440  13.037  11.041
36000SOL    HW2 9834  10.488  13.046  10.898
36001SOL     OW 9835   4.911  13.187   7.201
36001SOL    HW1 9836   4.934  13.237   7.123
36001SOL    HW2 9837   4.873  13.251   7.261
36002SOL     OW 9838   2.824  12.734  12.566
36002SOL    HW1 9839   2.739  12.700  12.541
36002SOL    HW2 9840   2.813  12.765  12.656
36003SOL     OW 9841  10.478  11.283   2.479
36003SOL    HW1 9842  10.391  11.317   2.459
36003SOL    HW2 9843  10.487  11.294   2.574
36004SOL     OW 9844   3.892   5.531  13.845
36004SOL    HW1 9845   3.944   5.458  13.810
36004SOL    HW2 9846   3.823   5.488  13.896
36005SOL     OW 9847   6.369  12.537   2.423
36005SOL    HW1 9848   6.387  12.608   2.362
36005SOL    HW2 9849   6.275  12.522   2.416
36006SOL     OW 9850   3.239   1.176   1.406
36006SOL    HW1 9851   3.269   1.267   1.399
36006SOL    HW2 9852   3.146   1.180   1.383
36007SOL     OW 9853   8.292   3.565   7.706
36007SOL    HW1 9854   8.353   3.569   7.780
36007SOL    HW2 9855   8.215   3.612   7.736
36008SOL     OW 9856   3.266   9.609  11.046
36008SOL    HW1 9857   3.225   9.551  11.110
36008SOL    HW2 9858   3.281   9.690  11.094
36009SOL     OW 9859  10.598  11.240   6.261
36009SOL    HW1 9860  10.642  11.275   6.184
36009SOL    HW2 9861  10.509  11.272   6.255
36010SOL     OW 9862  13.129  14.139   1.909
36010SOL    HW1 9863  13.034  14.133   1.914
36010SOL    HW2 9864  13.156  14.064   1.856
36011SOL     OW 9865  11.505   9.214   8.914
36011SOL    HW1 9866  11.523   9.307   8.922
36011SOL    HW2 9867  11.525   9.177   9.000
36012SOL     OW 9868  12.594   2.199   4.110
36012SOL    HW1 9869  12.512   2.239   4.139
36012SOL    HW2 9870  12.657   2.221   4.179
36013SOL     OW 9871   0.552  12.362   6.817
36013SOL    HW1 9872   0.589  12.430   6.760
36013SOL    HW2 9873   0.485  12.320   6.764
36014SOL     OW 9874   7.787   3.481  11.474
36014SOL    HW1 9875   7.858   3.512  11.531
36014SOL    HW2 9876   7.740   3.418  11.527
36015SOL     OW 9877  10.394   0.569   0.746
36015SOL    HW1 9878  10.438   0.564   0.831
36015SOL    HW2 9879  10.460   0.605   0.687
36016SOL     OW 9880  11.256  11.697   7.192
36016SOL    HW1 9881  11.166  11.706   7.223
36016SOL    HW2 9882  11.305  11.762   7.242
36017SOL     OW 9883  13.685   4.845   8.671
36017SOL    HW1 9884  13.608   4.806   8.713
36017SOL    HW2 9885  13.693   4.931   8.713
36018SOL     OW 9886  10.328   6.024  11.170
36018SOL    HW1 9887  10.250   6.056  11.216
36018SOL    HW2 9888  10.349   6.094  11.108
36019SOL     OW 9889   5.997  12.763   6.896
36019SOL    HW1 9890   6.022  12.797   6.810
36019SOL    HW2 9891   5.962  12.839   6.942
36020SOL     OW 9892   0.388   7.054   9.125
36020SOL    HW1 9893   0.372   7.097   9.209
36020SOL    HW2 9894   0.400   7.125   9.063
36021SOL     OW 9895  13.671   9.374  14.031
36021SOL    HW1 9896  13.733   9.437  13.996
36021SOL    HW2 9897  13.667   9.394  14.125
36022SOL     OW 9898   1.001  11.278  13.037
36022SOL    HW1 9899   1.088  11.262  13.000
36022SOL    HW2 9900   0.989  11.207  13.100
36023SOL     OW 9901  10.019   7.595   5.479
36023SOL    HW1 9902  10.021   7.553   5.565
36023SOL    HW2 9903   9.927   7.617   5.465
36024SOL     OW 9904  13.229  12.404  10.711
36024SOL    HW1 9905  13.271  12.366  10.788
36024SOL    HW2 9906  13.135  12.400  10.731
36025SOL     OW 9907  10.980   0.971  14.486
36025SOL    HW1 9908  10.888   0.947  14.499
36025SOL    HW2 9909  11.029   0.902  14.531
36026SOL     OW 9910   1.834   2.297   0.415
36026SOL    HW1 9911   1.832   2.372   0.475
36026SOL    HW2 9912   1.891   2.234   0.458
36027SOL     OW 9913   0.212   6.177   8.352
36027SOL    HW1 9914   0.232   6.128   8.432
36027SOL    HW2 9915   0.298   6.198   8.314
36028SOL     OW 9916   7.164  13.977   7.545
36028SOL    HW1 9917   7.199  14.000   7.459
36028SOL    HW2 9918   7.238  13.938   7.591
36029SOL     OW 9919   9.137   0.011   4.969
36029SOL    HW1 9920   9.149   0.037   4.878
36029SOL    HW2 9921   9.225   0.017   5.007
36030SOL     OW 9922   7.432   5.523   6.872
36030SOL    HW1 9923   7.445   5.556   6.961
36030SOL    HW2 9924   7.453   5.598   6.816
36031SOL     OW 9925  11.219   0.921   9.904
36031SOL    HW1 9926  11.277   0.974   9.958
36031SOL    HW2 9927  11.257   0.924   9.816
36032SOL     OW 9928  12.920   1.947  10.137
36032SOL    HW1 9929  12.961   1.992  10.063
36032SOL    HW2 9930  12.850   2.007  10.165
36033SOL     OW 9931   5.294  12.929   2.328
36033SOL    HW1 9932   5.372  12.974   2.297
36033SOL    HW2 9933   5.297  12.844   2.285
36034SOL     OW 9934   7.079  12.590   1.132
36034SOL    HW1 9935   7.173  12.577   1.129
36034SOL    HW2 9936   7.042  12.510   1.096
36035SOL     OW 9937   8.684   4.497   0.785
36035SOL    HW1 9938   8.760   4.553   0.774
36035SOL    HW2 9939   8.715   4.409   0.762
36036SOL     OW 9940  10.210  12.246  10.289
36036SOL    HW1 9941  10.298  12.263  10.254
36036SOL    HW2 9942  10.169  12.333  10.294
36037SOL     OW 9943   8.101   8.609   6.975
36037SOL    HW1 9944   8.070   8.580   7.061
36037SOL    HW2 9945   8.024   8.603   6.918
36038SOL     OW 9946   3.614  11.481  14.823
36038SOL    HW1 9947   3.698  11.442  14.799
36038SOL    HW2 9948   3.558  11.406  14.846
36039SOL     OW 9949   2.148   2.793   5.934
36039SOL    HW1 9950   2.212   2.722   5.927
36039SOL    HW2 9951   2.194   2.871   5.904
36040SOL     OW 9952   7.173   8.612   2.036
36040SOL    HW1 9953   7.140   8.541   1.980
36040SOL    HW2 9954   7.152   8.692   1.987
36041SOL     OW 9955   0.629   9.519   1.343
36041SOL    HW1 9956   0.569   9.492   1.413
36041SOL    HW2 9957   0.716   9.504   1.380
36042SOL     OW 9958  11.406  11.974   0.562
36042SOL    HW1 9959  11.495  11.939   0.563
36042SOL    HW2 9960  11.411  12.051   0.505
36043SOL     OW 9961   9.178   8.822   0.125
36043SOL    HW1 9962   9.139   8.909   0.128
36043SOL    HW2 9963   9.112   8.764   0.162
36044SOL     OW 9964   5.299   1.088   6.101
36044SOL    HW1 9965   5.295   1.182   6.083
36044SOL    HW2 9966   5.256   1.078   6.186
36045SOL     OW 9967   6.073  10.774   3.867
36045SOL    HW1 9968   6.141  10.790   3.802
36045SOL    HW2 9969   6.120  10.746   3.945
36046SOL     OW 9970   9.751   1.154   3.913
36046SOL    HW1 9971   9.790   1.074   3.878
36046SOL    HW2 9972   9.660   1.153   3.881
36047SOL     OW 9973   2.156   4.964   4.556
36047SOL    HW1 9974   2.183   4.874   4.575
36047SOL    HW2 9975   2.123   4.997   4.639
36048SOL     OW 9976   3.282   9.606   1.685
36048SOL    HW1 9977   3.360   9.567   1.645
36048SOL    HW2 9978   3.209   9.570   1.635
36049SOL     OW 9979  13.997   1.284   2.290
36049SOL    HW1 9980  13.981   1.259   2.381
36049SOL    HW2 9981  14.006   1.201   2.244
36050SOL     OW 9982   9.592   4.941  10.483
36050SOL    HW1 9983   9.613   4.931  10.390
36050SOL    HW2 9984   9.605   5.034  10.501
36051SOL     OW 9985   7.667  10.722   6.368
36051SOL    HW1 9986   7.579  10.703   6.399
36051SOL    HW2 9987   7.655  10.756   6.280
36052SOL     OW 9988  10.164  10.417  11.955
36052SOL    HW1 9989  10.088  10.359  11.952
36052SOL    HW2 9990  10.213  10.390  12.032
36053SOL     OW 9991   8.208   0.644   1.401
36053SOL    HW1 9992   8.241   0.626   1.313
36053SOL    HW2 9993   8.255   0.582   1.458
36054SOL     OW 9994   7.135   3.983   0.206
36054SOL    HW1 9995   7.104   3.904   0.162
36054SOL    HW2 9996   7.058   4.040   0.210
36055SOL     OW 9997   1.096   2.186  14.582
36055SOL    HW1 9998   1.124   2.095  14.577
36055SOL    HW2 9999   1.177   2.237  14.590
36056SOL     OW10000  13.630   7.612   1.056
36056SOL    HW110001  13.634   7.546   1.125
36056SOL    HW210002  13.696   7.677   1.080
36057SOL     OW10003   3.207   9.808  13.976
36057SOL    HW110004   3.255   9.849  13.904
36057SOL    HW210005   3.230   9.715  13.971
36058SOL     OW10006   5.222  12.703  11.645
36058SOL    HW110007   5.248  12.642  11.714
36058SOL    HW210008   5.127  12.693  11.639
36059SOL     OW10009  14.705   9.806   4.283
36059SOL    HW110010  14.642   9.762   4.340
36059SOL    HW210011  14.731   9.884   4.332
36060SOL     OW10012   3.364   3.935   1.191
36060SOL    HW110013   3.347   3.929   1.097
36060SOL    HW210014   3.460   3.941   1.198
36061SOL     OW10015  13.134  11.388   7.202
36061SOL    HW110016  13.157  11.481   7.202
36061SOL    HW210017  13.144  11.362   7.110
36062SOL     OW10018   5.676   4.251   4.351
36062SOL    HW110019   5.588   4.218   4.333
36062SOL    HW210020   5.662   4.332   4.400
36063SOL     OW10021   1.649   6.485   1.601
36063SOL    HW110022   1.627   6.394   1.621
36063SOL    HW210023   1.744   6.483   1.585
36064SOL     OW10024  13.197  13.759   6.530
36064SOL    HW110025  13.289  13.744   6.509
36064SOL    HW210026  13.187  13.726   6.619
36065SOL     OW10027  10.164  14.520  12.482
36065SOL    HW110028  10.108  14.542  12.407
36065SOL    HW210029  10.120  14.446  12.523
36066SOL     OW10030   5.285   9.884   2.451
36066SOL    HW110031   5.294   9.940   2.374
36066SOL    HW210032   5.353   9.818   2.441
36067SOL     OW10033   3.132   0.291   5.539
36067SOL    HW110034   3.197   0.220   5.536
36067SOL    HW210035   3.116   0.312   5.447
36068SOL     OW10036   5.647   5.994  10.992
36068SOL    HW110037   5.699   5.919  11.022
36068SOL    HW210038   5.671   6.005  10.901
36069SOL     OW10039  10.309   4.176  13.646
36069SOL    HW110040  10.272   4.113  13.585
36069SOL    HW210041  10.246   4.180  13.718
36070SOL     OW10042   6.203   6.082   1.077
36070SOL    HW110043   6.250   6.003   1.052
36070SOL    HW210044   6.111   6.055   1.083
36071SOL     OW10045   7.984  11.882  12.998
36071SOL    HW110046   8.045  11.846  12.933
36071SOL    HW210047   8.022  11.858  13.082
36072SOL     OW10048   9.031   9.941   2.435
36072SOL    HW110049   9.002  10.033   2.438
36072SOL    HW210050   9.114   9.944   2.387
36073SOL     OW10051   6.008  14.668   4.365
36073SOL    HW110052   6.003  14.710   4.279
36073SOL    HW210053   5.966  14.583   4.352
36074SOL     OW10054   8.035   6.828   2.544
36074SOL    HW110055   8.105   6.820   2.479
36074SOL    HW210056   7.976   6.894   2.508
36075SOL     OW10057  13.670   5.322  12.059
36075SOL    HW110058  13.684   5.267  12.137
36075SOL    HW210059  13.579   5.352  12.067
36076SOL     OW10060   7.310   8.264   0.825
36076SOL    HW110061   7.246   8.304   0.766
36076SOL    HW210062   7.394   8.304   0.800
36077SOL     OW10063   9.427   2.103   7.058
36077SOL    HW110064   9.481   2.100   6.980
36077SOL    HW210065   9.484   2.072   7.128
36078SOL     OW10066  10.928   7.329   7.431
36078SOL    HW110067  10.894   7.244   7.403
36078SOL    HW210068  10.981   7.309   7.508
36079SOL     OW10069   8.083   2.464   4.968
36079SOL    HW110070   8.061   2.521   4.894
36079SOL    HW210071   8.100   2.524   5.040
36080SOL     OW10072   0.745   5.727   3.907
36080SOL    HW110073   0.692   5.796   3.869
36080SOL    HW210074   0.795   5.769   3.976
36081SOL     OW10075  10.165   0.734   3.618
36081SOL    HW110076  10.106   0.671   3.660
36081SOL    HW210077  10.232   0.680   3.577
36082SOL     OW10078   6.323  14.854   0.248
36082SOL    HW110079   6.417  14.872   0.250
36082SOL    HW210080   6.299  14.843   0.340
36083SOL     OW10081  11.881   2.372   4.560
36083SOL    HW110082  11.911   2.394   4.648
36083SOL    HW210083  11.786   2.361   4.569
36084SOL     OW10084  10.219   9.094   9.217
36084SOL    HW110085  10.277   9.063   9.147
36084SOL    HW210086  10.217   9.189   9.205
36085SOL     OW10087   6.895   3.515  13.773
36085SOL    HW110088   6.913   3.603  13.740
36085SOL    HW210089   6.979   3.469  13.765
36086SOL     OW10090  13.412   8.623  12.927
36086SOL    HW110091  13.471   8.690  12.892
36086SOL    HW210092  13.437   8.615  13.019
36087SOL     OW10093  11.967   1.574   5.706
36087SOL    HW110094  11.923   1.643   5.658
36087SOL    HW210095  12.045   1.616   5.743
36088SOL     OW10096   2.962   4.353   2.176
36088SOL    HW110097   3.037   4.347   2.236
36088SOL    HW210098   2.915   4.270   2.189
36089SOL     OW10099   9.374   4.970   1.885
36089SOL    HW110100   9.378   4.875   1.901
36089SOL    HW210101   9.303   5.000   1.941
36090SOL     OW10102  10.262   6.272   3.913
36090SOL    HW110103  10.259   6.217   3.991
36090SOL    HW210104  10.325   6.340   3.934
36091SOL     OW10105   1.265   2.990   6.609
36091SOL    HW110106   1.252   2.900   6.582
36091SOL    HW210107   1.184   3.014   6.655
36092SOL     OW10108  12.271   4.489  12.034
36092SOL    HW110109  12.258   4.402  12.072
36092SOL    HW210110  12.252   4.478  11.941
36093SOL     OW10111   8.916  14.414  10.297
36093SOL    HW110112   8.960  14.492  10.263
36093SOL    HW210113   8.864  14.382  10.223
36094SOL     OW10114   4.946   5.091   3.915
36094SOL    HW110115   4.917   5.081   3.825
36094SOL    HW210116   4.957   5.002   3.947
36095SOL     OW10117  12.522   3.690  11.166
36095SOL    HW110118  12.511   3.649  11.252
36095SOL    HW210119  12.450   3.655  11.113
36096SOL     OW10120  12.640   0.470  14.392
36096SOL    HW110121  12.652   0.375  14.387
36096SOL    HW210122  12.639   0.490  14.485
36097SOL     OW10123   6.644   6.620   9.018
36097SOL    HW110124   6.559   6.654   8.989
36097SOL    HW210125   6.632   6.600   9.111
36098SOL     OW10126   6.436   5.297   0.122
36098SOL    HW110127   6.474   5.252   0.197
36098SOL    HW210128   6.341   5.297   0.139
36099SOL     OW10129   5.938   3.737   5.662
36099SOL    HW110130   5.895   3.787   5.593
36099SOL    HW210131   5.909   3.779   5.744
36100SOL     OW10132   9.367   6.998   7.696
36100SOL    HW110133   9.332   7.070   7.644
36100SOL    HW210134   9.290   6.956   7.734
36101SOL     OW10135  10.900  13.604   2.540
36101SOL    HW110136  10.875  13.603   2.632
36101SOL    HW210137  10.996  13.606   2.541
36102SOL     OW10138   3.265  12.563   3.759
36102SOL    HW110139   3.319  12.497   3.715
36102SOL    HW210140   3.208  12.596   3.690
36103SOL     OW10141  12.389   8.164   7.090
36103SOL    HW110142  12.367   8.104   7.162
36103SOL    HW210143  12.304   8.191   7.055
36104SOL     OW10144  14.864   0.126  10.303
36104SOL    HW110145   0.035   0.049  10.276
36104SOL    HW210146  14.843   0.110  10.395
36105SOL     OW10147   8.232   6.485   9.382
36105SOL    HW110148   8.190   6.487   9.468
36105SOL    HW210149   8.313   6.536   9.395
36106SOL     OW10150   6.590   1.668  13.247
36106SOL    HW110151   6.684   1.651  13.259
36106SOL    HW210152   6.571   1.739  13.308
36107SOL     OW10153   3.828  11.619  11.921
36107SOL    HW110154   3.739  11.611  11.958
36107SOL    HW210155   3.830  11.555  11.850
36108SOL     OW10156   9.994  12.982   9.206
36108SOL    HW110157  10.082  13.003   9.238
36108SOL    HW210158   9.996  12.888   9.191
36109SOL     OW10159   1.397   4.801   0.306
36109SOL    HW110160   1.341   4.875   0.333
36109SOL    HW210161   1.336   4.728   0.294
36110SOL     OW10162   4.667   4.328   8.110
36110SOL    HW110163   4.681   4.313   8.017
36110SOL    HW210164   4.729   4.270   8.154
36111SOL     OW10165  11.747   4.256  10.400
36111SOL    HW110166  11.683   4.186  10.387
36111SOL    HW210167  11.783   4.240  10.488
36112SOL     OW10168   8.416  10.564   6.396
36112SOL    HW110169   8.505  10.587   6.369
36112SOL    HW210170   8.361  10.632   6.358
36113SOL     OW10171   0.340   4.907   0.028
36113SOL    HW110172   0.342   4.818  14.873
36113SOL    HW210173   0.253   4.917   0.066
36114SOL     OW10174   8.433   0.537   8.754
36114SOL    HW110175   8.419   0.473   8.823
36114SOL    HW210176   8.514   0.509   8.712
36115SOL     OW10177  12.212   2.510   0.156
36115SOL    HW110178  12.164   2.490   0.236
36115SOL    HW210179  12.215   2.427   0.108
36116SOL     OW10180   6.154   7.690  13.238
36116SOL    HW110181   6.090   7.758  13.260
36116SOL    HW210182   6.173   7.706  13.146
36117SOL     OW10183   7.086   3.088   5.150
36117SOL    HW110184   7.133   3.145   5.088
36117SOL    HW210185   7.088   3.002   5.108
36118SOL     OW10186  14.509   1.318   0.525
36118SOL    HW110187  14.587   1.270   0.553
36118SOL    HW210188  14.543   1.387   0.467
36119SOL     OW10189   4.554   8.762  11.578
36119SOL    HW110190   4.637   8.719  11.559
36119SOL    HW210191   4.556   8.778  11.672
36120SOL     OW10192   0.349   0.056   4.822
36120SOL    HW110193   0.305  14.858   4.786
36120SOL    HW210194   0.381   0.103   4.745
36121SOL     OW10195   7.131  11.665   5.061
36121SOL    HW110196   7.122  11.683   4.968
36121SOL    HW210197   7.164  11.575   5.065
36122SOL     OW10198   5.203  11.378   5.002
36122SOL    HW110199   5.265  11.332   4.945
36122SOL    HW210200   5.138  11.415   4.942
36123SOL     OW10201   4.556   8.723   3.734
36123SOL    HW110202   4.541   8.629   3.746
36123SOL    HW210203   4.485   8.765   3.781
36124SOL     OW10204   8.033  12.284  10.462
36124SOL    HW110205   8.107  12.234  10.429
36124SOL    HW210206   8.028  12.360  10.403
36125SOL     OW10207   0.480   3.527   9.365
36125SOL    HW110208   0.464   3.614   9.402
36125SOL    HW210209   0.420   3.469   9.412
36126SOL     OW10210   4.786  11.577   8.142
36126SOL    HW110211   4.802  11.620   8.226
36126SOL    HW210212   4.757  11.489   8.165
36127SOL     OW10213   7.565   7.976  14.054
36127SOL    HW110214   7.537   8.035  13.985
36127SOL    HW210215   7.535   8.017  14.135
36128SOL     OW10216   4.725   0.888   6.034
36128SOL    HW110217   4.686   0.917   6.116
36128SOL    HW210218   4.715   0.962   5.975
36129SOL     OW10219  10.409   0.184   3.407
36129SOL    HW110220  10.325   0.153   3.440
36129SOL    HW210221  10.431   0.123   3.336
36130SOL     OW10222   2.507   5.234   3.967
36130SOL    HW110223   2.549   5.149   3.982
36130SOL    HW210224   2.422   5.226   4.011
36131SOL     OW10225   3.807  13.020   7.830
36131SOL    HW110226   3.879  13.083   7.829
36131SOL    HW210227   3.761  13.038   7.913
36132SOL     OW10228   1.535  12.517   8.480
36132SOL    HW110229   1.490  12.436   8.454
36132SOL    HW210230   1.470  12.565   8.531
36133SOL     OW10231   8.250   6.525   8.363
36133SOL    HW110232   8.240   6.483   8.448
36133SOL    HW210233   8.258   6.618   8.383
36134SOL     OW10234  11.534  13.598  14.337
36134SOL    HW110235  11.503  13.672  14.389
36134SOL    HW210236  11.455  13.564  14.295
36135SOL     OW10237   3.237  11.358  11.186
36135SOL    HW110238   3.174  11.295  11.222
36135SOL    HW210239   3.231  11.347  11.091
36136SOL     OW10240   7.376   3.100  10.242
36136SOL    HW110241   7.357   3.010  10.270
36136SOL    HW210242   7.348   3.102  10.150
36137SOL     OW10243   0.377   6.486   6.753
36137SOL    HW110244   0.373   6.466   6.847
36137SOL    HW210245   0.380   6.581   6.749
36138SOL     OW10246  12.667   0.752   9.581
36138SOL    HW110247  12.682   0.788   9.668
36138SOL    HW210248  12.742   0.695   9.565
36139SOL     OW10249   4.298   9.075   3.646
36139SOL    HW110250   4.303   9.157   3.695
36139SOL    HW210251   4.372   9.024   3.678
36140SOL     OW10252  13.342   6.711   6.789
36140SOL    HW110253  13.432   6.699   6.819
36140SOL    HW210254  13.345   6.689   6.696
36141SOL     OW10255  13.367   0.745   5.740
36141SOL    HW110256  13.385   0.784   5.654
36141SOL    HW210257  13.451   0.712   5.770
36142SOL     OW10258   1.990   0.042   8.132
36142SOL    HW110259   2.068   0.052   8.188
36142SOL    HW210260   1.969   0.131   8.105
36143SOL     OW10261   8.029   5.304   4.653
36143SOL    HW110262   7.971   5.379   4.637
36143SOL    HW210263   8.084   5.300   4.575
36144SOL     OW10264   3.591   8.454   3.107
36144SOL    HW110265   3.526   8.498   3.163
36144SOL    HW210266   3.643   8.526   3.072
36145SOL     OW10267   0.363  11.115  12.523
36145SOL    HW110268   0.372  11.062  12.602
36145SOL    HW210269   0.310  11.061  12.464
36146SOL     OW10270   3.840   7.333   4.216
36146SOL    HW110271   3.910   7.310   4.276
36146SOL    HW210272   3.870   7.412   4.172
36147SOL     OW10273   3.033  12.603  12.439
36147SOL    HW110274   2.951  12.644  12.469
36147SOL    HW210275   3.058  12.654  12.362
36148SOL     OW10276   8.345   3.005   9.005
36148SOL    HW110277   8.434   3.035   8.987
36148SOL    HW210278   8.335   3.017   9.099
36149SOL     OW10279  12.933   3.616   6.137
36149SOL    HW110280  12.873   3.609   6.063
36149SOL    HW210281  12.877   3.635   6.212
36150SOL     OW10282  11.716  14.424   3.638
36150SOL    HW110283  11.744  14.428   3.547
36150SOL    HW210284  11.656  14.350   3.643
36151SOL     OW10285   2.627   9.126  13.854
36151SOL    HW110286   2.654   9.200  13.800
36151SOL    HW210287   2.548   9.093  13.812
36152SOL     OW10288  13.189   1.234   7.327
36152SOL    HW110289  13.199   1.144   7.294
36152SOL    HW210290  13.171   1.223   7.421
36153SOL     OW10291   8.603   5.025  13.453
36153SOL    HW110292   8.541   5.047  13.383
36153SOL    HW210293   8.551   4.974  13.515
36154SOL     OW10294   5.780  13.307   9.819
36154SOL    HW110295   5.772  13.257   9.900
36154SOL    HW210296   5.849  13.262   9.770
36155SOL     OW10297  12.958   1.531   7.865
36155SOL    HW110298  12.905   1.500   7.938
36155SOL    HW210299  12.949   1.627   7.868
36156SOL     OW10300  13.417  11.489  11.778
36156SOL    HW110301  13.341  11.520  11.828
36156SOL    HW210302  13.402  11.521  11.689
36157SOL     OW10303   8.870   4.893   9.824
36157SOL    HW110304   8.936   4.960   9.805
36157SOL    HW210305   8.808   4.901   9.751
36158SOL     OW10306   7.299  12.888   5.945
36158SOL    HW110307   7.223  12.932   5.982
36158SOL    HW210308   7.304  12.805   5.991
36159SOL     OW10309  10.162   5.364  11.617
36159SOL    HW110310  10.131   5.401  11.699
36159SOL    HW210311  10.142   5.270  11.623
36160SOL     OW10312   3.436  14.191   0.081
36160SOL    HW110313   3.479  14.129   0.140
36160SOL    HW210314   3.507  14.249   0.051
36161SOL     OW10315   8.913  13.132   5.516
36161SOL    HW110316   8.951  13.153   5.601
36161SOL    HW210317   8.972  13.066   5.479
36162SOL     OW10318  10.275   2.430   4.062
36162SOL    HW110319  10.291   2.427   3.968
36162SOL    HW210320  10.292   2.521   4.086
36163SOL     OW10321  13.899   0.756   8.793
36163SOL    HW110322  13.868   0.695   8.861
36163SOL    HW210323  13.847   0.835   8.807
36164SOL     OW10324   2.211   9.485   8.713
36164SOL    HW110325   2.289   9.467   8.660
36164SOL    HW210326   2.232   9.448   8.799
36165SOL     OW10327   0.478  14.151  10.610
36165SOL    HW110328   0.519  14.146  10.696
36165SOL    HW210329   0.445  14.063  10.594
36166SOL     OW10330   4.053   9.510  10.127
36166SOL    HW110331   4.002   9.463  10.061
36166SOL    HW210332   4.137   9.529  10.085
36167SOL     OW10333   0.608  14.796   9.624
36167SOL    HW110334   0.603  14.706   9.594
36167SOL    HW210335   0.579  14.848   9.548
36168SOL     OW10336  11.945  11.061   8.858
36168SOL    HW110337  12.003  11.011   8.915
36168SOL    HW210338  11.950  11.151   8.891
36169SOL     OW10339  14.484   1.205  14.705
36169SOL    HW110340  14.482   1.126  14.651
36169SOL    HW210341  14.405   1.253  14.682
36170SOL     OW10342  11.630  12.138   0.088
36170SOL    HW110343  11.645  12.104   0.176
36170SOL    HW210344  11.554  12.195   0.097
36171SOL     OW10345   8.608  12.805  12.919
36171SOL    HW110346   8.635  12.897  12.910
36171SOL    HW210347   8.691  12.757  12.929
36172SOL     OW10348   4.700   2.833  10.355
36172SOL    HW110349   4.702   2.928  10.338
36172SOL    HW210350   4.769   2.820  10.420
36173SOL     OW10351   4.279   6.780   1.940
36173SOL    HW110352   4.326   6.863   1.936
36173SOL    HW210353   4.222   6.780   1.863
36174SOL     OW10354   6.766   7.572   7.131
36174SOL    HW110355   6.814   7.653   7.152
36174SOL    HW210356   6.822   7.527   7.068
36175SOL     OW10357   7.843   4.942   4.969
36175SOL    HW110358   7.922   4.967   4.922
36175SOL    HW210359   7.825   5.016   5.027
36176SOL     OW10360   3.518   8.263   3.734
36176SOL    HW110361   3.525   8.172   3.762
36176SOL    HW210362   3.596   8.305   3.770
36177SOL     OW10363   2.042   8.795  11.390
36177SOL    HW110364   2.097   8.821  11.464
36177SOL    HW210365   1.953   8.815  11.419
36178SOL     OW10366   7.072   8.441  11.757
36178SOL    HW110367   6.998   8.491  11.722
36178SOL    HW210368   7.047   8.349  11.743
36179SOL     OW10369  11.861  10.904   0.071
36179SOL    HW110370  11.908  10.821   0.069
36179SOL    HW210371  11.769  10.879   0.083
36180SOL     OW10372  13.387   8.319   3.199
36180SOL    HW110373  13.341   8.270   3.131
36180SOL    HW210374  13.444   8.379   3.152
36181SOL     OW10375   5.324  12.995   5.075
36181SOL    HW110376   5.341  12.943   5.153
36181SOL    HW210377   5.247  12.954   5.035
36182SOL     OW10378   3.804   0.922   5.122
36182SOL    HW110379   3.747   0.859   5.166
36182SOL    HW210380   3.890   0.911   5.163
36183SOL     OW10381  10.738   7.872  13.105
36183SOL    HW110382  10.784   7.831  13.179
36183SOL    HW210383  10.646   7.872  13.132
36184SOL     OW10384  12.997   8.437  12.533
36184SOL    HW110385  12.965   8.473  12.616
36184SOL    HW210386  12.926   8.452  12.471
36185SOL     OW10387   6.528  10.187  10.955
36185SOL    HW110388   6.571  10.271  10.944
36185SOL    HW210389   6.577  10.127  10.899
36186SOL     OW10390   3.199  14.868   0.897
36186SOL    HW110391   3.277  14.821   0.866
36186SOL    HW210392   3.194  14.846   0.990
36187SOL     OW10393   0.217   4.142   3.162
36187SOL    HW110394   0.140   4.102   3.203
36187SOL    HW210395   0.210   4.235   3.183
36188SOL     OW10396   9.100   7.780   0.971
36188SOL    HW110397   9.096   7.800   0.878
36188SOL    HW210398   9.188   7.806   0.998
36189SOL     OW10399  12.122   5.387   1.233
36189SOL    HW110400  12.130   5.301   1.274
36189SOL    HW210401  12.210   5.407   1.203
36190SOL     OW10402  13.510  13.810  10.816
36190SOL    HW110403  13.514  13.717  10.841
36190SOL    HW210404  13.439  13.845  10.870
36191SOL     OW10405   3.271   2.609   6.059
36191SOL    HW110406   3.283   2.588   5.966
36191SOL    HW210407   3.316   2.539   6.105
36192SOL     OW10408   0.959   8.105  11.581
36192SOL    HW110409   1.044   8.147  11.595
36192SOL    HW210410   0.897   8.159  11.629
36193SOL     OW10411   8.206   4.242   3.021
36193SOL    HW110412   8.300   4.227   3.010
36193SOL    HW210413   8.197   4.273   3.111
36194SOL     OW10414   8.933   5.264   6.938
36194SOL    HW110415   8.892   5.343   6.901
36194SOL    HW210416   8.920   5.273   7.032
36195SOL     OW10417   3.638  10.268   8.043
36195SOL    HW110418   3.675  10.294   8.128
36195SOL    HW210419   3.562  10.324   8.032
36196SOL     OW10420   4.096  10.289  10.020
36196SOL    HW110421   4.153  10.363  10.042
36196SOL    HW210422   4.081  10.298   9.926
36197SOL     OW10423   5.143  12.908   2.778
36197SOL    HW110424   5.110  12.934   2.692
36197SOL    HW210425   5.235  12.933   2.777
36198SOL     OW10426   0.987   0.862   4.355
36198SOL    HW110427   1.072   0.852   4.314
36198SOL    HW210428   0.953   0.773   4.364
36199SOL     OW10429   3.791   1.410   8.943
36199SOL    HW110430   3.793   1.393   9.037
36199SOL    HW210431   3.873   1.457   8.925
36200SOL     OW10432   0.164  11.193  11.648
36200SOL    HW110433   0.259  11.186  11.653
36200SOL    HW210434   0.132  11.114  11.692
36201SOL     OW10435  10.725  12.136   8.743
36201SOL    HW110436  10.731  12.139   8.839
36201SOL    HW210437  10.800  12.187   8.713
36202SOL     OW10438   5.192  12.428   5.714
36202SOL    HW110439   5.214  12.375   5.791
36202SOL    HW210440   5.117  12.384   5.675
36203SOL     OW10441   9.713   1.251  12.995
36203SOL    HW110442   9.691   1.339  13.026
36203SOL    HW210443   9.757   1.265  12.912
36204SOL     OW10444   9.659   0.826   7.032
36204SOL    HW110445   9.663   0.826   6.937
36204SOL    HW210446   9.677   0.735   7.056
36205SOL     OW10447   8.082  11.777   4.000
36205SOL    HW110448   8.032  11.706   3.959
36205SOL    HW210449   8.117  11.826   3.926
36206SOL     OW10450   3.774   8.102   6.918
36206SOL    HW110451   3.856   8.054   6.925
36206SOL    HW210452   3.709   8.036   6.894
36207SOL     OW10453   4.312   2.110   5.476
36207SOL    HW110454   4.371   2.179   5.443
36207SOL    HW210455   4.239   2.111   5.415
36208SOL     OW10456   5.676  11.385   4.515
36208SOL    HW110457   5.721  11.312   4.558
36208SOL    HW210458   5.743  11.451   4.502
36209SOL     OW10459   4.167   4.588   9.447
36209SOL    HW110460   4.182   4.682   9.451
36209SOL    HW210461   4.189   4.555   9.534
36210SOL     OW10462   2.346   0.967   3.039
36210SOL    HW110463   2.377   0.972   3.129
36210SOL    HW210464   2.416   1.006   2.987
36211SOL     OW10465   3.348   9.272   1.365
36211SOL    HW110466   3.387   9.192   1.331
36211SOL    HW210467   3.313   9.317   1.288
36212SOL     OW10468   5.005   3.642   1.258
36212SOL    HW110469   5.070   3.584   1.217
36212SOL    HW210470   5.056   3.703   1.311
36213SOL     OW10471   9.461   5.557   2.687
36213SOL    HW110472   9.556   5.544   2.693
36213SOL    HW210473   9.436   5.517   2.604
36214SOL     OW10474   7.180  12.417   7.445
36214SOL    HW110475   7.149  12.497   7.402
36214SOL    HW210476   7.101  12.380   7.486
36215SOL     OW10477  10.606   1.353  11.913
36215SOL    HW110478  10.544   1.354  11.986
36215SOL    HW210479  10.608   1.262  11.884
36216SOL     OW10480   0.956   5.895   3.543
36216SOL    HW110481   1.012   5.885   3.620
36216SOL    HW210482   0.924   5.806   3.525
36217SOL     OW10483  10.144   5.058  11.582
36217SOL    HW110484  10.166   5.038  11.491
36217SOL    HW210485  10.178   4.984  11.632
36218SOL     OW10486   4.016   3.368  11.973
36218SOL    HW110487   4.103   3.346  12.006
36218SOL    HW210488   3.974   3.284  11.956
36219SOL     OW10489   1.145   0.493  13.475
36219SOL    HW110490   1.061   0.496  13.430
36219SOL    HW210491   1.135   0.421  13.538
36220SOL     OW10492   1.605   3.320   6.844
36220SOL    HW110493   1.571   3.247   6.792
36220SOL    HW210494   1.601   3.395   6.786
36221SOL     OW10495   8.313  11.277   4.781
36221SOL    HW110496   8.300  11.232   4.697
36221SOL    HW210497   8.381  11.226   4.825
36222SOL     OW10498   4.635   8.111   7.224
36222SOL    HW110499   4.724   8.083   7.203
36222SOL    HW210500   4.646   8.181   7.288
36223SOL     OW10501  13.677   6.527   0.213
36223SOL    HW110502  13.739   6.491   0.277
36223SOL    HW210503  13.598   6.544   0.264
36224SOL     OW10504   5.573  12.958   1.162
36224SOL    HW110505   5.590  12.936   1.070
36224SOL    HW210506   5.657  12.943   1.206
36225SOL     OW10507   0.762   3.832   4.907
36225SOL    HW110508   0.771   3.749   4.954
36225SOL    HW210509   0.827   3.890   4.946
36226SOL     OW10510   0.191  14.026   6.154
36226SOL    HW110511   0.120  14.081   6.120
36226SOL    HW210512   0.195  13.952   6.094
36227SOL     OW10513   8.002   2.395   9.357
36227SOL    HW110514   8.069   2.354   9.413
36227SOL    HW210515   8.012   2.351   9.273
36228SOL     OW10516   7.299  13.409  13.137
36228SOL    HW110517   7.242  13.447  13.204
36228SOL    HW210518   7.241  13.386  13.065
36229SOL     OW10519  12.125   0.464   7.196
36229SOL    HW110520  12.082   0.380   7.210
36229SOL    HW210521  12.179   0.477   7.274
36230SOL     OW10522  10.701  13.560   7.597
36230SOL    HW110523  10.737  13.647   7.611
36230SOL    HW210524  10.634  13.572   7.530
36231SOL     OW10525   1.857  12.475   0.000
36231SOL    HW110526   1.903  12.407   0.050
36231SOL    HW210527   1.766  12.446  14.876
36232SOL     OW10528   6.370   5.494   6.399
36232SOL    HW110529   6.308   5.428   6.368
36232SOL    HW210530   6.418   5.449   6.469
36233SOL     OW10531   2.705   2.758   3.911
36233SOL    HW110532   2.784   2.740   3.862
36233SOL    HW210533   2.635   2.712   3.864
36234SOL     OW10534   3.497   1.893   6.328
36234SOL    HW110535   3.520   1.957   6.395
36234SOL    HW210536   3.519   1.808   6.368
36235SOL     OW10537  12.325  10.940  12.926
36235SOL    HW110538  12.411  10.955  12.964
36235SOL    HW210539  12.302  10.851  12.953
36236SOL     OW10540  14.091  14.500  13.018
36236SOL    HW110541  14.181  14.475  12.999
36236SOL    HW210542  14.097  14.555  13.096
36237SOL     OW10543  11.807   0.851   8.219
36237SOL    HW110544  11.828   0.818   8.306
36237SOL    HW210545  11.865   0.804   8.160
36238SOL     OW10546   0.126   1.143   4.390
36238SOL    HW110547   0.214   1.104   4.393
36238SOL    HW210548   0.133   1.212   4.324
36239SOL     OW10549  10.796   4.907   3.119
36239SOL    HW110550  10.725   4.850   3.089
36239SOL    HW210551  10.759   4.995   3.115
36240SOL     OW10552  12.584  10.857  13.613
36240SOL    HW110553  12.510  10.914  13.592
36240SOL    HW210554  12.658  10.896  13.566
36241SOL     OW10555   2.881   8.006   1.823
36241SOL    HW110556   2.951   7.957   1.778
36241SOL    HW210557   2.838   8.054   1.753
36242SOL     OW10558  13.215   7.086   0.271
36242SOL    HW110559  13.287   7.139   0.235
36242SOL    HW210560  13.221   7.002   0.226
36243SOL     OW10561   1.721   0.121   7.619
36243SOL    HW110562   1.642   0.168   7.591
36243SOL    HW210563   1.705   0.031   7.592
36244SOL     OW10564  13.295   3.636   7.718
36244SOL    HW110565  13.228   3.659   7.654
36244SOL    HW210566  13.302   3.541   7.712
36245SOL     OW10567  10.459   8.154  14.677
36245SOL    HW110568  10.374   8.182  14.710
36245SOL    HW210569  10.462   8.186  14.587
36246SOL     OW10570  12.191   1.966   6.638
36246SOL    HW110571  12.098   1.945   6.644
36246SOL    HW210572  12.230   1.930   6.718
36247SOL     OW10573   1.470  13.810  11.210
36247SOL    HW110574   1.552  13.778  11.172
36247SOL    HW210575   1.456  13.894  11.167
36248SOL     OW10576  13.230   0.877   2.498
36248SOL    HW110577  13.261   0.808   2.557
36248SOL    HW210578  13.291   0.950   2.513
36249SOL     OW10579   7.708  14.748   6.913
36249SOL    HW110580   7.629  14.694   6.902
36249SOL    HW210581   7.717  14.793   6.829
36250SOL     OW10582  13.288  11.940  11.907
36250SOL    HW110583  13.208  11.956  11.856
36250SOL    HW210584  13.320  11.856  11.876
36251SOL     OW10585   9.851  13.883   4.733
36251SOL    HW110586   9.894  13.882   4.648
36251SOL    HW210587   9.804  13.800   4.737
36252SOL     OW10588   4.033   8.580   6.519
36252SOL    HW110589   4.121   8.596   6.552
36252SOL    HW210590   3.976   8.615   6.587
36253SOL     OW10591  13.809   0.499  12.022
36253SOL    HW110592  13.764   0.584  12.022
36253SOL    HW210593  13.738   0.434  12.026
36254SOL     OW10594   2.307   1.409  13.841
36254SOL    HW110595   2.237   1.352  13.808
36254SOL    HW210596   2.269   1.452  13.917
36255SOL     OW10597  10.275  13.278   1.150
36255SOL    HW110598  10.207  13.241   1.208
36255SOL    HW210599  10.231  13.289   1.066
36256SOL     OW10600  14.245   9.186   9.059
36256SOL    HW110601  14.290   9.170   8.975
36256SOL    HW210602  14.162   9.138   9.051
36257SOL     OW10603  10.020   3.209  12.066
36257SOL    HW110604   9.955   3.274  12.094
36257SOL    HW210605  10.062   3.180  12.147
36258SOL     OW10606  10.092  11.671   7.797
36258SOL    HW110607  10.019  11.616   7.825
36258SOL    HW210608  10.051  11.748   7.758
36259SOL     OW10609  14.076   8.493  11.692
36259SOL    HW110610  13.990   8.531  11.713
36259SOL    HW210611  14.058   8.435  11.618
36260SOL     OW10612   6.537  13.442   6.788
36260SOL    HW110613   6.503  13.520   6.743
36260SOL    HW210614   6.529  13.462   6.881
36261SOL     OW10615   3.152  14.438   3.162
36261SOL    HW110616   3.183  14.480   3.242
36261SOL    HW210617   3.057  14.431   3.173
36262SOL     OW10618   0.842  14.814  13.438
36262SOL    HW110619   0.754  14.824  13.402
36262SOL    HW210620   0.898  14.800  13.361
36263SOL     OW10621   3.687   0.687   4.847
36263SOL    HW110622   3.652   0.748   4.912
36263SOL    HW210623   3.614   0.669   4.789
36264SOL     OW10624  14.865   0.890   0.319
36264SOL    HW110625  14.826   0.809   0.284
36264SOL    HW210626  14.818   0.905   0.402
36265SOL     OW10627   1.597  14.547   7.448
36265SOL    HW110628   1.545  14.554   7.528
36265SOL    HW210629   1.683  14.581   7.474
36266SOL     OW10630   9.120  14.294   4.440
36266SOL    HW110631   9.060  14.288   4.366
36266SOL    HW210632   9.202  14.327   4.402
36267SOL     OW10633   7.806  12.342   5.244
36267SOL    HW110634   7.851  12.267   5.207
36267SOL    HW210635   7.778  12.393   5.168
36268SOL     OW10636   4.513   8.134   8.956
36268SOL    HW110637   4.604   8.162   8.967
36268SOL    HW210638   4.481   8.121   9.046
36269SOL     OW10639   8.740   7.324   1.135
36269SOL    HW110640   8.673   7.375   1.090
36269SOL    HW210641   8.786   7.387   1.190
36270SOL     OW10642   5.616   5.788  14.597
36270SOL    HW110643   5.658   5.749  14.520
36270SOL    HW210644   5.624   5.883  14.583
36271SOL     OW10645   0.806   9.322   0.318
36271SOL    HW110646   0.862   9.278   0.254
36271SOL    HW210647   0.865   9.375   0.371
36272SOL     OW10648   5.250   8.487   8.044
36272SOL    HW110649   5.322   8.505   8.104
36272SOL    HW210650   5.280   8.520   7.959
36273SOL     OW10651   1.940   8.496   0.436
36273SOL    HW110652   1.963   8.404   0.447
36273SOL    HW210653   2.013   8.534   0.387
36274SOL     OW10654   2.508  12.291   0.551
36274SOL    HW110655   2.578  12.339   0.506
36274SOL    HW210656   2.535  12.290   0.643
36275SOL     OW10657   8.912  14.033  13.905
36275SOL    HW110658   8.850  13.960  13.911
36275SOL    HW210659   8.995  13.996  13.935
36276SOL     OW10660  14.705  13.489  13.746
36276SOL    HW110661  14.775  13.450  13.798
36276SOL    HW210662  14.644  13.524  13.811
36277SOL     OW10663  13.492   3.996   6.580
36277SOL    HW110664  13.582   4.007   6.550
36277SOL    HW210665  13.488   4.046   6.662
36278SOL     OW10666  11.753   0.270  12.577
36278SOL    HW110667  11.840   0.306  12.556
36278SOL    HW210668  11.713   0.253  12.491
36279SOL     OW10669   3.814  11.884  11.084
36279SOL    HW110670   3.764  11.804  11.097
36279SOL    HW210671   3.768  11.931  11.015
36280SOL     OW10672  10.009  10.255   5.701
36280SOL    HW110673  10.059  10.310   5.641
36280SOL    HW210674   9.935  10.309   5.727
36281SOL     OW10675   4.845   1.554  11.557
36281SOL    HW110676   4.803   1.479  11.600
36281SOL    HW210677   4.838   1.626  11.619
36282SOL     OW10678   0.348   5.340   6.894
36282SOL    HW110679   0.315   5.368   6.809
36282SOL    HW210680   0.442   5.351   6.889
36283SOL     OW10681   8.962   1.591  12.677
36283SOL    HW110682   8.973   1.496  12.686
36283SOL    HW210683   9.035   1.619  12.622
36284SOL     OW10684   8.569   1.964  12.876
36284SOL    HW110685   8.655   1.993  12.845
36284SOL    HW210686   8.574   1.972  12.972
36285SOL     OW10687   0.380   1.398  14.417
36285SOL    HW110688   0.322   1.380  14.491
36285SOL    HW210689   0.358   1.487  14.390
36286SOL     OW10690   9.590  12.387   6.099
36286SOL    HW110691   9.600  12.293   6.112
36286SOL    HW210692   9.556  12.419   6.183
36287SOL     OW10693  14.619   8.675   0.304
36287SOL    HW110694  14.687   8.714   0.249
36287SOL    HW210695  14.652   8.682   0.393
36288SOL     OW10696   9.694  10.564   8.878
36288SOL    HW110697   9.761  10.581   8.944
36288SOL    HW210698   9.679  10.470   8.882
36289SOL     OW10699  12.859  13.475   4.872
36289SOL    HW110700  12.784  13.498   4.818
36289SOL    HW210701  12.934  13.487   4.815
36290SOL     OW10702   1.302  12.468   8.214
36290SOL    HW110703   1.323  12.375   8.211
36290SOL    HW210704   1.230  12.479   8.152
36291SOL     OW10705   1.985  10.754   7.967
36291SOL    HW110706   2.009  10.665   7.991
36291SOL    HW210707   1.915  10.777   8.029
36292SOL     OW10708  14.570  13.709  11.651
36292SOL    HW110709  14.650  13.704  11.598
36292SOL    HW210710  14.499  13.702  11.588
36293SOL     OW10711   1.978   0.406  12.963
36293SOL    HW110712   1.956   0.347  12.891
36293SOL    HW210713   2.004   0.348  13.035
36294SOL     OW10714   6.606   5.470   0.941
36294SOL    HW110715   6.603   5.447   0.848
36294SOL    HW210716   6.678   5.418   0.976
36295SOL     OW10717   1.568  10.584  12.965
36295SOL    HW110718   1.638  10.616  12.907
36295SOL    HW210719   1.601  10.500  12.997
36296SOL     OW10720   6.243   2.125  10.445
36296SOL    HW110721   6.320   2.101  10.393
36296SOL    HW210722   6.179   2.154  10.380
36297SOL     OW10723   1.282  11.309   2.650
36297SOL    HW110724   1.242  11.223   2.634
36297SOL    HW210725   1.223  11.371   2.607
36298SOL     OW10726  12.086   0.232  10.472
36298SOL    HW110727  12.172   0.192  10.466
36298SOL    HW210728  12.025   0.159  10.482
36299SOL     OW10729   9.186   7.296   2.519
36299SOL    HW110730   9.094   7.272   2.526
36299SOL    HW210731   9.231   7.213   2.505
36300SOL     OW10732   3.878   5.303   1.484
36300SOL    HW110733   3.822   5.225   1.491
36300SOL    HW210734   3.954   5.283   1.539
36301SOL     OW10735   4.205   0.573   5.989
36301SOL    HW110736   4.114   0.603   5.992
36301SOL    HW210737   4.205   0.504   5.922
36302SOL     OW10738  13.243   2.309  13.440
36302SOL    HW110739  13.324   2.276  13.401
36302SOL    HW210740  13.271   2.360  13.516
36303SOL     OW10741   5.263   5.627   9.459
36303SOL    HW110742   5.188   5.593   9.507
36303SOL    HW210743   5.227   5.661   9.377
36304SOL     OW10744   2.134   7.389   5.113
36304SOL    HW110745   2.159   7.478   5.137
36304SOL    HW210746   2.138   7.388   5.017
36305SOL     OW10747   4.671   2.796  13.586
36305SOL    HW110748   4.732   2.856  13.628
36305SOL    HW210749   4.588   2.810  13.633
36306SOL     OW10750  10.826   8.304   6.968
36306SOL    HW110751  10.886   8.379   6.967
36306SOL    HW210752  10.753   8.331   6.912
36307SOL     OW10753   2.416   9.907  12.628
36307SOL    HW110754   2.421   9.984  12.684
36307SOL    HW210755   2.445   9.937  12.542
36308SOL     OW10756   3.470   4.481   9.961
36308SOL    HW110757   3.465   4.399  10.010
36308SOL    HW210758   3.381   4.494   9.926
36309SOL     OW10759  14.773   9.127   5.866
36309SOL    HW110760  14.807   9.141   5.777
36309SOL    HW210761  14.801   9.038   5.888
36310SOL     OW10762  10.965   5.397  10.824
36310SOL    HW110763  10.939   5.468  10.766
36310SOL    HW210764  11.057   5.416  10.846
36311SOL     OW10765  13.883   3.216   2.972
36311SOL    HW110766  13.837   3.261   2.901
36311SOL    HW210767  13.865   3.123   2.956
36312SOL     OW10768   8.101   3.435   3.805
36312SOL    HW110769   8.073   3.512   3.755
36312SOL    HW210770   8.021   3.405   3.848
36313SOL     OW10771  11.563   5.117   4.656
36313SOL    HW110772  11.593   5.082   4.740
36313SOL    HW210773  11.567   5.212   4.668
36314SOL     OW10774   0.130   9.173   8.923
36314SOL    HW110775   0.091   9.245   8.873
36314SOL    HW210776   0.187   9.216   8.987
36315SOL     OW10777   2.390   3.604   9.351
36315SOL    HW110778   2.358   3.678   9.299
36315SOL    HW210779   2.360   3.527   9.304
36316SOL     OW10780   9.793  12.521  12.223
36316SOL    HW110781   9.784  12.452  12.290
36316SOL    HW210782   9.734  12.494  12.153
36317SOL     OW10783  12.233  13.917  13.873
36317SOL    HW110784  12.230  13.918  13.778
36317SOL    HW210785  12.141  13.917  13.900
36318SOL     OW10786  13.847   2.909   8.000
36318SOL    HW110787  13.854   2.828   8.051
36318SOL    HW210788  13.878   2.885   7.913
36319SOL     OW10789   7.552   5.238   9.229
36319SOL    HW110790   7.469   5.238   9.181
36319SOL    HW210791   7.551   5.319   9.279
36320SOL     OW10792   7.426   7.953   9.590
36320SOL    HW110793   7.457   7.998   9.669
36320SOL    HW210794   7.501   7.902   9.561
36321SOL     OW10795   8.513  13.891  14.637
36321SOL    HW110796   8.442  13.895  14.701
36321SOL    HW210797   8.497  13.809  14.589
36322SOL     OW10798  12.565   8.595  13.731
36322SOL    HW110799  12.528   8.520  13.683
36322SOL    HW210800  12.567   8.567  13.822
36323SOL     OW10801   4.927   1.678   0.649
36323SOL    HW110802   4.981   1.757   0.655
36323SOL    HW210803   4.959   1.621   0.719
36324SOL     OW10804   9.592   7.758   3.358
36324SOL    HW110805   9.629   7.820   3.421
36324SOL    HW210806   9.664   7.738   3.298
36325SOL     OW10807   8.226   5.953   6.483
36325SOL    HW110808   8.261   5.954   6.572
36325SOL    HW210809   8.240   6.042   6.450
36326SOL     OW10810  12.290   5.460   0.271
36326SOL    HW110811  12.362   5.483   0.213
36326SOL    HW210812  12.232   5.407   0.216
36327SOL     OW10813   7.257   6.458   7.686
36327SOL    HW110814   7.303   6.524   7.737
36327SOL    HW210815   7.245   6.385   7.746
36328SOL     OW10816   7.165  10.014  12.082
36328SOL    HW110817   7.126   9.947  12.026
36328SOL    HW210818   7.209  10.073  12.021
36329SOL     OW10819   0.779   0.829   5.866
36329SOL    HW110820   0.862   0.824   5.818
36329SOL    HW210821   0.802   0.869   5.950
36330SOL     OW10822   0.105   7.096   8.544
36330SOL    HW110823   0.136   7.186   8.551
36330SOL    HW210824   0.185   7.043   8.541
36331SOL     OW10825  10.453   4.942   7.658
36331SOL    HW110826  10.450   5.029   7.617
36331SOL    HW210827  10.437   4.881   7.586
36332SOL     OW10828  13.580   6.842   4.655
36332SOL    HW110829  13.645   6.876   4.716
36332SOL    HW210830  13.625   6.840   4.570
36333SOL     OW10831  12.802   0.311   1.554
36333SOL    HW110832  12.864   0.363   1.605
36333SOL    HW210833  12.857   0.256   1.497
36334SOL     OW10834  10.424  12.018   4.936
36334SOL    HW110835  10.342  12.062   4.960
36334SOL    HW210836  10.484  12.089   4.913
36335SOL     OW10837   3.985  14.755   9.094
36335SOL    HW110838   3.953  14.682   9.041
36335SOL    HW210839   4.042  14.714   9.159
36336SOL     OW10840  12.407   0.483   4.612
36336SOL    HW110841  12.431   0.523   4.529
36336SOL    HW210842  12.426   0.390   4.601
36337SOL     OW10843   2.221  14.250   6.841
36337SOL    HW110844   2.228  14.176   6.902
36337SOL    HW210845   2.227  14.328   6.897
36338SOL     OW10846   0.407  11.224   1.540
36338SOL    HW110847   0.400  11.248   1.448
36338SOL    HW210848   0.332  11.166   1.556
36339SOL     OW10849   9.802   8.686   8.558
36339SOL    HW110850   9.743   8.745   8.511
36339SOL    HW210851   9.770   8.598   8.539
36340SOL     OW10852   8.608   7.481   6.367
36340SOL    HW110853   8.636   7.496   6.277
36340SOL    HW210854   8.532   7.423   6.359
36341SOL     OW10855  10.129   9.239   0.219
36341SOL    HW110856  10.080   9.184   0.279
36341SOL    HW210857  10.064   9.298   0.181
36342SOL     OW10858  11.864  13.579   3.827
36342SOL    HW110859  11.933  13.645   3.818
36342SOL    HW210860  11.833  13.589   3.917
36343SOL     OW10861   6.546   9.934  12.526
36343SOL    HW110862   6.604   9.907  12.455
36343SOL    HW210863   6.587  10.013  12.562
36344SOL     OW10864   6.472   2.672   6.238
36344SOL    HW110865   6.562   2.697   6.258
36344SOL    HW210866   6.480   2.583   6.202
36345SOL     OW10867   9.355   4.358   6.316
36345SOL    HW110868   9.283   4.420   6.307
36345SOL    HW210869   9.406   4.391   6.390
36346SOL     OW10870   1.925   1.725  13.483
36346SOL    HW110871   1.972   1.669  13.422
36346SOL    HW210872   1.950   1.693  13.570
36347SOL     OW10873   5.922  14.520  11.225
36347SOL    HW110874   5.987  14.555  11.285
36347SOL    HW210875   5.966  14.446  11.183
36348SOL     OW10876   5.254  12.273   0.060
36348SOL    HW110877   5.258  12.190   0.013
36348SOL    HW210878   5.247  12.248   0.152
36349SOL     OW10879  12.571   5.179   6.707
36349SOL    HW110880  12.575   5.101   6.763
36349SOL    HW210881  12.656   5.221   6.717
36350SOL     OW10882   9.585   4.084   3.841
36350SOL    HW110883   9.519   4.081   3.771
36350SOL    HW210884   9.626   3.997   3.838
36351SOL     OW10885   3.330  13.228  10.163
36351SOL    HW110886   3.287  13.143  10.167
36351SOL    HW210887   3.394  13.225  10.234
36352SOL     OW10888   5.217   5.669   1.130
36352SOL    HW110889   5.163   5.748   1.133
36352SOL    HW210890   5.253   5.661   1.218
36353SOL     OW10891   6.734  11.083   2.984
36353SOL    HW110892   6.707  11.142   3.054
36353SOL    HW210893   6.725  11.135   2.904
36354SOL     OW10894   0.861   7.745   4.248
36354SOL    HW110895   0.957   7.749   4.241
36354SOL    HW210896   0.843   7.765   4.340
36355SOL     OW10897  10.731   0.650   2.418
36355SOL    HW110898  10.774   0.640   2.333
36355SOL    HW210899  10.735   0.744   2.436
36356SOL     OW10900  14.708   0.629   1.348
36356SOL    HW110901  14.638   0.569   1.375
36356SOL    HW210902  14.697   0.706   1.403
36357SOL     OW10903   7.025  12.566  10.007
36357SOL    HW110904   7.106  12.522  10.036
36357SOL    HW210905   6.963  12.495   9.994
36358SOL     OW10906   3.066   5.126  10.657
36358SOL    HW110907   3.137   5.070  10.687
36358SOL    HW210908   2.997   5.065  10.630
36359SOL     OW10909   1.488  10.564   0.200
36359SOL    HW110910   1.559  10.614   0.238
36359SOL    HW210911   1.505  10.565   0.106
36360SOL     OW10912  10.585   0.236   6.221
36360SOL    HW110913  10.539   0.310   6.260
36360SOL    HW210914  10.518   0.189   6.171
36361SOL     OW10915   4.898  10.049   8.529
36361SOL    HW110916   4.894  10.003   8.613
36361SOL    HW210917   4.986  10.031   8.496
36362SOL     OW10918   6.899   8.051  13.018
36362SOL    HW110919   6.968   8.046  12.952
36362SOL    HW210920   6.924   8.125  13.073
36363SOL     OW10921   5.036   6.298   7.316
36363SOL    HW110922   5.095   6.259   7.251
36363SOL    HW210923   5.063   6.258   7.399
36364SOL     OW10924  12.193  10.470   4.988
36364SOL    HW110925  12.216  10.420   4.909
36364SOL    HW210926  12.263  10.535   4.996
36365SOL     OW10927  12.168   6.294   0.777
36365SOL    HW110928  12.079   6.269   0.803
36365SOL    HW210929  12.155   6.362   0.711
36366SOL     OW10930   0.701  12.031  14.750
36366SOL    HW110931   0.753  11.964  14.705
36366SOL    HW210932   0.642  11.982  14.807
36367SOL     OW10933   8.493   1.504   1.629
36367SOL    HW110934   8.406   1.522   1.592
36367SOL    HW210935   8.483   1.522   1.722
36368SOL     OW10936   7.588   9.761   2.170
36368SOL    HW110937   7.544   9.846   2.172
36368SOL    HW210938   7.520   9.697   2.190
36369SOL     OW10939   2.996  13.498   3.447
36369SOL    HW110940   2.996  13.486   3.542
36369SOL    HW210941   2.909  13.469   3.419
36370SOL     OW10942   3.467   0.471   5.582
36370SOL    HW110943   3.396   0.525   5.618
36370SOL    HW210944   3.496   0.417   5.655
36371SOL     OW10945  12.278  13.567   0.021
36371SOL    HW110946  12.304  13.579  14.809
36371SOL    HW210947  12.277  13.472   0.033
36372SOL     OW10948  11.734   4.861   9.736
36372SOL    HW110949  11.704   4.922   9.804
36372SOL    HW210950  11.807   4.814   9.777
36373SOL     OW10951   2.264   3.145   3.419
36373SOL    HW110952   2.337   3.125   3.360
36373SOL    HW210953   2.194   3.175   3.361
36374SOL     OW10954   3.712   6.039   1.919
36374SOL    HW110955   3.638   6.031   1.980
36374SOL    HW210956   3.767   5.963   1.938
36375SOL     OW10957  14.224   3.035  14.008
36375SOL    HW110958  14.270   2.963  14.052
36375SOL    HW210959  14.172   2.992  13.939
36376SOL     OW10960   2.088   6.853   1.313
36376SOL    HW110961   2.094   6.941   1.348
36376SOL    HW210962   2.075   6.865   1.219
36377SOL     OW10963   2.003  10.566   5.376
36377SOL    HW110964   2.006  10.543   5.284
36377SOL    HW210965   1.915  10.541   5.404
36378SOL     OW10966   6.025   5.694   9.811
36378SOL    HW110967   5.977   5.613   9.794
36378SOL    HW210968   6.100   5.690   9.751
36379SOL     OW10969   3.183   0.551   8.778
36379SOL    HW110970   3.158   0.499   8.701
36379SOL    HW210971   3.106   0.606   8.795
36380SOL     OW10972  10.879  12.916  12.055
36380SOL    HW110973  10.883  12.962  11.971
36380SOL    HW210974  10.900  12.984  12.120
36381SOL     OW10975   0.999  13.496  12.301
36381SOL    HW110976   1.055  13.503  12.224
36381SOL    HW210977   1.034  13.560  12.362
36382SOL     OW10978   2.826   9.834  11.916
36382SOL    HW110979   2.770   9.909  11.895
36382SOL    HW210980   2.830   9.833  12.012
36383SOL     OW10981   4.335   9.592  11.791
36383SOL    HW110982   4.271   9.657  11.764
36383SOL    HW210983   4.343   9.533  11.716
36384SOL     OW10984   5.860   7.944  12.692
36384SOL    HW110985   5.774   7.974  12.723
36384SOL    HW210986   5.843   7.859  12.652
36385SOL     OW10987  12.139  12.088  11.226
36385SOL    HW110988  12.228  12.074  11.260
36385SOL    HW210989  12.121  12.009  11.175
36386SOL     OW10990   7.892   9.057   9.584
36386SOL    HW110991   7.970   9.079   9.635
36386SOL    HW210992   7.923   9.054   9.493
36387SOL     OW10993   2.216   5.825   4.466
36387SOL    HW110994   2.217   5.901   4.525
36387SOL    HW210995   2.123   5.812   4.446
36388SOL     OW10996   0.055   0.508   4.703
36388SOL    HW110997   0.130   0.566   4.717
36388SOL    HW210998   0.087   0.421   4.724
36389SOL     OW10999   2.393   4.484   8.536
36389SOL    HW111000   2.472   4.455   8.582
36389SOL    HW211001   2.426   4.539   8.465
36390SOL     OW11002   7.936   5.510  10.282
36390SOL    HW111003   8.004   5.527  10.347
36390SOL    HW211004   7.866   5.467  10.332
36391SOL     OW11005   0.823   3.701   0.797
36391SOL    HW111006   0.772   3.687   0.718
36391SOL    HW211007   0.758   3.721   0.864
36392SOL     OW11008   4.902   5.448   8.660
36392SOL    HW111009   4.897   5.514   8.591
36392SOL    HW211010   4.943   5.372   8.618
36393SOL     OW11011  10.661   5.359   0.298
36393SOL    HW111012  10.755   5.376   0.302
36393SOL    HW211013  10.621   5.442   0.322
36394SOL     OW11014   7.619   0.441  11.811
36394SOL    HW111015   7.688   0.493  11.770
36394SOL    HW211016   7.593   0.491  11.888
36395SOL     OW11017   2.078   1.209   8.781
36395SOL    HW111018   1.989   1.242   8.780
36395SOL    HW211019   2.094   1.187   8.873
36396SOL     OW11020   8.957   2.243   1.301
36396SOL    HW111021   8.920   2.331   1.310
36396SOL    HW211022   8.965   2.210   1.391
36397SOL     OW11023   0.307   0.262  11.825
36397SOL    HW111024   0.399   0.258  11.798
36397SOL    HW211025   0.267   0.185  11.784
36398SOL     OW11026   2.283   6.825  13.619
36398SOL    HW111027   2.332   6.905  13.635
36398SOL    HW211028   2.256   6.795  13.706
36399SOL     OW11029  14.871   7.291   5.622
36399SOL    HW111030  14.778   7.279   5.640
36399SOL    HW211031  14.875   7.304   5.527
36400SOL     OW11032  12.536   3.687  10.489
36400SOL    HW111033  12.542   3.782  10.488
36400SOL    HW211034  12.621   3.657  10.456
36401SOL     OW11035   8.350  14.073   8.766
36401SOL    HW111036   8.295  14.121   8.828
36401SOL    HW211037   8.327  14.110   8.680
36402SOL     OW11038   8.941   7.678   4.585
36402SOL    HW111039   8.937   7.623   4.663
36402SOL    HW211040   8.964   7.764   4.617
36403SOL     OW11041  12.535   3.324   8.273
36403SOL    HW111042  12.443   3.349   8.265
36403SOL    HW211043  12.564   3.307   8.183
36404SOL     OW11044   4.787   7.227   6.004
36404SOL    HW111045   4.706   7.273   6.025
36404SOL    HW211046   4.802   7.246   5.911
36405SOL     OW11047  10.617   9.658  12.712
36405SOL    HW111048  10.552   9.709  12.663
36405SOL    HW211049  10.699   9.671  12.663
36406SOL     OW11050   1.040   6.591   0.281
36406SOL    HW111051   1.128   6.600   0.245
36406SOL    HW211052   0.986   6.567   0.207
36407SOL     OW11053   8.235   7.834  13.742
36407SOL    HW111054   8.315   7.886  13.742
36407SOL    HW211055   8.200   7.843  13.654
36408SOL     OW11056   4.274   2.149   2.171
36408SOL    HW111057   4.249   2.165   2.262
36408SOL    HW211058   4.369   2.158   2.170
36409SOL     OW11059   3.269  14.768   7.874
36409SOL    HW111060   3.243  14.681   7.902
36409SOL    HW211061   3.206  14.827   7.916
36410SOL     OW11062   7.457   9.414   4.816
36410SOL    HW111063   7.523   9.426   4.748
36410SOL    HW211064   7.474   9.485   4.879
36411SOL     OW11065  11.437  12.161   1.147
36411SOL    HW111066  11.520  12.117   1.165
36411SOL    HW211067  11.446  12.247   1.187
36412SOL     OW11068   5.617   9.433   0.609
36412SOL    HW111069   5.634   9.347   0.572
36412SOL    HW211070   5.695   9.454   0.660
36413SOL     OW11071   1.939  14.689  12.629
36413SOL    HW111072   1.951  14.733  12.714
36413SOL    HW211073   2.027  14.684  12.592
36414SOL     OW11074   3.747  10.541   8.337
36414SOL    HW111075   3.698  10.459   8.339
36414SOL    HW211076   3.710  10.590   8.264
36415SOL     OW11077   8.955  11.590   2.095
36415SOL    HW111078   8.966  11.498   2.071
36415SOL    HW211079   8.908  11.589   2.178
36416SOL     OW11080   9.652   3.841   1.094
36416SOL    HW111081   9.614   3.808   1.176
36416SOL    HW211082   9.644   3.936   1.100
36417SOL     OW11083   7.337   6.533   2.267
36417SOL    HW111084   7.335   6.545   2.362
36417SOL    HW211085   7.374   6.615   2.233
36418SOL     OW11086  13.167  11.877   8.625
36418SOL    HW111087  13.131  11.867   8.536
36418SOL    HW211088  13.247  11.928   8.612
36419SOL     OW11089   6.186  11.515   9.984
36419SOL    HW111090   6.267  11.532   9.936
36419SOL    HW211091   6.155  11.431   9.950
36420SOL     OW11092   5.698  11.217   1.676
36420SOL    HW111093   5.735  11.275   1.742
36420SOL    HW211094   5.768  11.207   1.611
36421SOL     OW11095   1.581   4.813  10.046
36421SOL    HW111096   1.575   4.855   9.960
36421SOL    HW211097   1.501   4.761  10.052
36422SOL     OW11098   4.250  11.692   2.541
36422SOL    HW111099   4.250  11.769   2.484
36422SOL    HW211100   4.235  11.727   2.629
36423SOL     OW11101  10.098   5.824   1.891
36423SOL    HW111102  10.144   5.899   1.927
36423SOL    HW211103  10.156   5.791   1.822
36424SOL     OW11104   7.707   1.687   8.797
36424SOL    HW111105   7.765   1.692   8.873
36424SOL    HW211106   7.764   1.700   8.722
36425SOL     OW11107  13.407   8.463   5.600
36425SOL    HW111108  13.494   8.425   5.591
36425SOL    HW211109  13.382   8.446   5.691
36426SOL     OW11110  14.701   0.312   9.409
36426SOL    HW111111  14.727   0.350   9.493
36426SOL    HW211112  14.609   0.287   9.422
36427SOL     OW11113   1.198   5.807   5.989
36427SOL    HW111114   1.249   5.859   5.926
36427SOL    HW211115   1.185   5.866   6.063
36428SOL     OW11116   3.824   6.521  13.990
36428SOL    HW111117   3.842   6.444  13.937
36428SOL    HW211118   3.845   6.494  14.080
36429SOL     OW11119   1.728   4.465   7.103
36429SOL    HW111120   1.801   4.526   7.093
36429SOL    HW211121   1.649   4.519   7.092
36430SOL     OW11122  14.103   7.037   8.809
36430SOL    HW111123  14.100   7.025   8.904
36430SOL    HW211124  14.123   7.130   8.797
36431SOL     OW11125   1.618  10.345  10.596
36431SOL    HW111126   1.624  10.387  10.681
36431SOL    HW211127   1.526  10.324  10.586
36432SOL     OW11128   4.110   6.895  13.234
36432SOL    HW111129   4.125   6.842  13.156
36432SOL    HW211130   4.168   6.857  13.300
36433SOL     OW11131  14.413   1.809   4.592
36433SOL    HW111132  14.338   1.859   4.625
36433SOL    HW211133  14.461   1.782   4.670
36434SOL     OW11134   5.282   9.024   8.410
36434SOL    HW111135   5.344   8.999   8.342
36434SOL    HW211136   5.301   9.116   8.427
36435SOL     OW11137   5.091   1.661  13.067
36435SOL    HW111138   5.036   1.725  13.022
36435SOL    HW211139   5.118   1.600  12.998
36436SOL     OW11140   3.534  13.560   2.479
36436SOL    HW111141   3.470  13.564   2.550
36436SOL    HW211142   3.528  13.470   2.447
36437SOL     OW11143  14.794  10.170  10.805
36437SOL    HW111144  14.857  10.112  10.848
36437SOL    HW211145  14.730  10.111  10.766
36438SOL     OW11146  13.314   3.095  14.528
36438SOL    HW111147  13.333   3.119  14.438
36438SOL    HW211148  13.399   3.075  14.566
36439SOL     OW11149  11.200   5.780  13.901
36439SOL    HW111150  11.166   5.856  13.854
36439SOL    HW211151  11.123   5.726  13.917
36440SOL     OW11152   7.128   8.977   0.474
36440SOL    HW111153   7.182   8.969   0.395
36440SOL    HW211154   7.039   8.987   0.441
36441SOL     OW11155   7.106   1.159   8.306
36441SOL    HW111156   7.130   1.136   8.395
36441SOL    HW211157   7.011   1.154   8.304
36442SOL     OW11158  11.731  11.204   8.447
36442SOL    HW111159  11.675  11.280   8.430
36442SOL    HW211160  11.801  11.237   8.502
36443SOL     OW11161  11.438   4.418   0.324
36443SOL    HW111162  11.405   4.498   0.283
36443SOL    HW211163  11.429   4.352   0.256
36444SOL     OW11164   6.376   5.538   2.431
36444SOL    HW111165   6.450   5.539   2.370
36444SOL    HW211166   6.326   5.460   2.408
36445SOL     OW11167   5.182   3.702   8.023
36445SOL    HW111168   5.258   3.738   8.070
36445SOL    HW211169   5.182   3.609   8.045
36446SOL     OW11170  14.184   6.132  11.321
36446SOL    HW111171  14.208   6.072  11.392
36446SOL    HW211172  14.190   6.079  11.241
36447SOL     OW11173  10.887   9.283  10.692
36447SOL    HW111174  10.938   9.205  10.673
36447SOL    HW211175  10.845   9.264  10.776
36448SOL     OW11176   4.716  10.531  12.416
36448SOL    HW111177   4.799  10.579  12.416
36448SOL    HW211178   4.717  10.480  12.497
36449SOL     OW11179  14.287   8.046   2.014
36449SOL    HW111180  14.291   8.010   2.103
36449SOL    HW211181  14.207   8.099   2.014
36450SOL     OW11182   7.105  10.190   3.051
36450SOL    HW111183   7.026  10.226   3.091
36450SOL    HW211184   7.110  10.232   2.965
36451SOL     OW11185   2.487  11.350  11.376
36451SOL    HW111186   2.416  11.376  11.434
36451SOL    HW211187   2.459  11.266  11.339
36452SOL     OW11188   2.551   9.743   0.362
36452SOL    HW111189   2.546   9.838   0.364
36452SOL    HW211190   2.584   9.723   0.274
36453SOL     OW11191   4.485   7.002   5.093
36453SOL    HW111192   4.449   6.981   5.179
36453SOL    HW211193   4.520   7.091   5.103
36454SOL     OW11194   8.021  12.555   8.560
36454SOL    HW111195   8.105  12.513   8.575
36454SOL    HW211196   7.980  12.559   8.646
36455SOL     OW11197  11.569   1.567  12.545
36455SOL    HW111198  11.619   1.548  12.625
36455SOL    HW211199  11.543   1.481  12.512
36456SOL     OW11200  14.225   1.494   8.018
36456SOL    HW111201  14.190   1.568   8.068
36456SOL    HW211202  14.278   1.534   7.950
36457SOL     OW11203   4.130   4.111  11.917
36457SOL    HW111204   4.147   4.067  12.000
36457SOL    HW211205   4.122   4.040  11.853
36458SOL     OW11206   3.762   7.930   5.703
36458SOL    HW111207   3.772   7.892   5.790
36458SOL    HW211208   3.765   8.024   5.717
36459SOL     OW11209  14.438   7.295   9.218
36459SOL    HW111210  14.407   7.288   9.308
36459SOL    HW211211  14.514   7.237   9.214
36460SOL     OW11212   2.435   2.416   4.243
36460SOL    HW111213   2.509   2.356   4.244
36460SOL    HW211214   2.358   2.360   4.251
36461SOL     OW11215   8.143  12.855  11.546
36461SOL    HW111216   8.238  12.855  11.530
36461SOL    HW211217   8.108  12.916  11.481
36462SOL     OW11218   0.988  14.853  10.010
36462SOL    HW111219   0.932   0.052  10.002
36462SOL    HW211220   1.073   0.002   9.978
36463SOL     OW11221   4.773   6.487  12.695
36463SOL    HW111222   4.852   6.433  12.691
36463SOL    HW211223   4.708   6.440  12.642
36464SOL     OW11224  11.175  12.450  12.073
36464SOL    HW111225  11.254  12.449  12.019
36464SOL    HW211226  11.137  12.536  12.059
36465SOL     OW11227  13.402   0.329  10.806
36465SOL    HW111228  13.418   0.352  10.715
36465SOL    HW211229  13.454   0.250  10.820
36466SOL     OW11230  13.636   0.812  10.180
36466SOL    HW111231  13.543   0.832  10.189
36466SOL    HW211232  13.675   0.894  10.147
36467SOL     OW11233  10.684   5.439  13.836
36467SOL    HW111234  10.687   5.361  13.780
36467SOL    HW211235  10.591   5.452  13.854
36468SOL     OW11236  11.416   5.655  14.022
36468SOL    HW111237  11.390   5.670  14.113
36468SOL    HW211238  11.344   5.691  13.971
36469SOL     OW11239   3.997  12.413   1.391
36469SOL    HW111240   3.921  12.376   1.345
36469SOL    HW211241   4.006  12.501   1.355
36470SOL     OW11242  10.981   7.289  11.517
36470SOL    HW111243  10.977   7.359  11.451
36470SOL    HW211244  10.998   7.210  11.467
36471SOL     OW11245   5.114   3.810   2.049
36471SOL    HW111246   5.200   3.775   2.026
36471SOL    HW211247   5.064   3.734   2.078
36472SOL     OW11248   2.965   6.158   6.818
36472SOL    HW111249   3.009   6.140   6.901
36472SOL    HW211250   3.031   6.203   6.765
36473SOL     OW11251  14.062   9.163   5.442
36473SOL    HW111252  14.129   9.095   5.446
36473SOL    HW211253  14.100   9.237   5.490
36474SOL     OW11254   3.923   3.136   2.020
36474SOL    HW111255   3.887   3.064   2.073
36474SOL    HW211256   4.018   3.129   2.031
36475SOL     OW11257   2.436   6.287   4.040
36475SOL    HW111258   2.456   6.266   4.131
36475SOL    HW211259   2.517   6.266   3.993
36476SOL     OW11260   1.445   3.153   3.076
36476SOL    HW111261   1.382   3.090   3.039
36476SOL    HW211262   1.419   3.237   3.039
36477SOL     OW11263  11.372   9.506   7.933
36477SOL    HW111264  11.277   9.504   7.945
36477SOL    HW211265  11.385   9.487   7.841
36478SOL     OW11266   6.885   4.273   2.819
36478SOL    HW111267   6.911   4.286   2.911
36478SOL    HW211268   6.792   4.293   2.818
36479SOL     OW11269   0.324  11.075   2.288
36479SOL    HW111270   0.321  11.134   2.213
36479SOL    HW211271   0.240  11.030   2.288
36480SOL     OW11272  10.331  10.561   9.289
36480SOL    HW111273  10.330  10.468   9.269
36480SOL    HW211274  10.240  10.582   9.311
36481SOL     OW11275   8.375   8.375   1.587
36481SOL    HW111276   8.392   8.309   1.519
36481SOL    HW211277   8.454   8.373   1.642
36482SOL     OW11278   2.487   6.538   0.741
36482SOL    HW111279   2.519   6.547   0.651
36482SOL    HW211280   2.405   6.489   0.732
36483SOL     OW11281   5.563   9.487  12.201
36483SOL    HW111282   5.605   9.428  12.138
36483SOL    HW211283   5.473   9.454  12.209
36484SOL     OW11284   5.689  10.221  11.935
36484SOL    HW111285   5.646  10.268  12.007
36484SOL    HW211286   5.754  10.165  11.978
36485SOL     OW11287  13.744   7.559   4.182
36485SOL    HW111288  13.651   7.553   4.206
36485SOL    HW211289  13.749   7.518   4.096
36486SOL     OW11290   8.684   3.794   5.536
36486SOL    HW111291   8.720   3.865   5.483
36486SOL    HW211292   8.708   3.817   5.626
36487SOL     OW11293  10.100   9.057   2.064
36487SOL    HW111294  10.184   9.102   2.056
36487SOL    HW211295  10.122   8.965   2.079
36488SOL     OW11296   6.497  14.117   7.579
36488SOL    HW111297   6.425  14.165   7.538
36488SOL    HW211298   6.576  14.147   7.532
36489SOL     OW11299  14.293   6.957   9.267
36489SOL    HW111300  14.321   6.888   9.207
36489SOL    HW211301  14.213   6.992   9.228
36490SOL     OW11302   0.718   4.612  10.590
36490SOL    HW111303   0.714   4.693  10.641
36490SOL    HW211304   0.784   4.629  10.523
36491SOL     OW11305  10.948   2.585   4.080
36491SOL    HW111306  10.936   2.494   4.106
36491SOL    HW211307  11.042   2.594   4.065
36492SOL     OW11308  13.019   2.089  11.521
36492SOL    HW111309  13.082   2.159  11.507
36492SOL    HW211310  12.934   2.132  11.518
36493SOL     OW11311   1.982  12.449  12.481
36493SOL    HW111312   1.925  12.470  12.407
36493SOL    HW211313   1.949  12.365  12.513
36494SOL     OW11314   8.446   7.116  12.774
36494SOL    HW111315   8.400   7.118  12.689
36494SOL    HW211316   8.533   7.152  12.755
36495SOL     OW11317   2.491   8.161   3.789
36495SOL    HW111318   2.413   8.131   3.742
36495SOL    HW211319   2.521   8.237   3.738
36496SOL     OW11320   9.508   0.590  11.009
36496SOL    HW111321   9.458   0.613  11.087
36496SOL    HW211322   9.599   0.605  11.034
36497SOL     OW11323   0.021   5.749   9.994
36497SOL    HW111324   0.058   5.680   9.938
36497SOL    HW211325   0.013   5.709  10.080
36498SOL     OW11326   1.427   9.022   2.445
36498SOL    HW111327   1.439   9.030   2.539
36498SOL    HW211328   1.333   9.004   2.434
36499SOL     OW11329  13.832  14.488   4.578
36499SOL    HW111330  13.770  14.557   4.601
36499SOL    HW211331  13.918  14.525   4.599
36500SOL     OW11332   3.351   9.386   4.688
36500SOL    HW111333   3.323   9.427   4.606
36500SOL    HW211334   3.325   9.294   4.679
36501SOL     OW11335   9.942   7.397  12.942
36501SOL    HW111336   9.915   7.483  12.974
36501SOL    HW211337   9.990   7.415  12.862
36502SOL     OW11338  14.841  12.594   5.873
36502SOL    HW111339   0.039  12.554   5.914
36502SOL    HW211340  14.781  12.611   5.946
36503SOL     OW11341  10.150  10.789  13.039
36503SOL    HW111342  10.145  10.701  13.001
36503SOL    HW211343  10.142  10.847  12.964
36504SOL     OW11344  11.545   7.594  12.976
36504SOL    HW111345  11.519   7.642  12.897
36504SOL    HW211346  11.543   7.659  13.046
36505SOL     OW11347   3.527   5.818  11.575
36505SOL    HW111348   3.466   5.755  11.612
36505SOL    HW211349   3.471   5.887  11.540
36506SOL     OW11350   1.030   9.811  13.618
36506SOL    HW111351   0.957   9.760  13.652
36506SOL    HW211352   1.022   9.803  13.523
36507SOL     OW11353   7.109  14.188   2.897
36507SOL    HW111354   7.170  14.116   2.879
36507SOL    HW211355   7.023  14.154   2.872
36508SOL     OW11356   0.329   2.311   4.759
36508SOL    HW111357   0.417   2.314   4.795
36508SOL    HW211358   0.281   2.251   4.817
36509SOL     OW11359   2.019  10.000  11.634
36509SOL    HW111360   1.998   9.983  11.542
36509SOL    HW211361   2.110   9.972  11.643
36510SOL     OW11362   5.586   2.488   4.758
36510SOL    HW111363   5.523   2.417   4.748
36510SOL    HW211364   5.537   2.559   4.799
36511SOL     OW11365  12.357   9.419   0.235
36511SOL    HW111366  12.291   9.437   0.168
36511SOL    HW211367  12.360   9.323   0.240
36512SOL     OW11368   7.469  12.126  11.902
36512SOL    HW111369   7.543  12.066  11.910
36512SOL    HW211370   7.409  12.082  11.842
36513SOL     OW11371   4.344   6.517   2.526
36513SOL    HW111372   4.360   6.424   2.544
36513SOL    HW211373   4.257   6.519   2.487
36514SOL     OW11374  13.116   9.014  14.687
36514SOL    HW111375  13.026   9.044  14.698
36514SOL    HW211376  13.158   9.034  14.770
36515SOL     OW11377   7.672   8.034   8.584
36515SOL    HW111378   7.762   8.002   8.586
36515SOL    HW211379   7.636   7.996   8.504
36516SOL     OW11380   5.721   2.613   4.135
36516SOL    HW111381   5.812   2.638   4.153
36516SOL    HW211382   5.721   2.588   4.042
36517SOL     OW11383  14.080   4.537  12.644
36517SOL    HW111384  14.037   4.595  12.582
36517SOL    HW211385  14.154   4.587  12.677
36518SOL     OW11386  12.199  12.616  13.723
36518SOL    HW111387  12.155  12.542  13.765
36518SOL    HW211388  12.134  12.687  13.727
36519SOL     OW11389   2.730  14.002  13.727
36519SOL    HW111390   2.650  14.025  13.774
36519SOL    HW211391   2.704  13.931  13.668
36520SOL     OW11392   8.028   0.943   6.877
36520SOL    HW111393   7.989   0.927   6.963
36520SOL    HW211394   8.099   0.880   6.871
36521SOL     OW11395   7.021  14.060   9.748
36521SOL    HW111396   7.055  14.001   9.681
36521SOL    HW211397   6.978  14.130   9.699
36522SOL     OW11398   1.520   1.843   0.819
36522SOL    HW111399   1.481   1.921   0.857
36522SOL    HW211400   1.475   1.770   0.862
36523SOL     OW11401   5.040   7.750   0.598
36523SOL    HW111402   5.030   7.688   0.670
36523SOL    HW211403   4.981   7.719   0.530
36524SOL     OW11404  11.030   7.581   1.626
36524SOL    HW111405  10.948   7.536   1.648
36524SOL    HW211406  11.003   7.656   1.572
36525SOL     OW11407  10.830   4.785   1.948
36525SOL    HW111408  10.753   4.745   1.908
36525SOL    HW211409  10.900   4.720   1.935
36526SOL     OW11410   5.673  12.770   3.610
36526SOL    HW111411   5.618  12.847   3.598
36526SOL    HW211412   5.617  12.696   3.584
36527SOL     OW11413  14.718   9.160  13.824
36527SOL    HW111414  14.708   9.145  13.730
36527SOL    HW211415  14.811   9.146  13.840
36528SOL     OW11416   0.049  14.251   1.235
36528SOL    HW111417  14.847  14.219   1.196
36528SOL    HW211418   0.031  14.254   1.329
36529SOL     OW11419   0.511   2.102  11.897
36529SOL    HW111420   0.498   2.007  11.892
36529SOL    HW211421   0.605   2.114  11.885
36530SOL     OW11422   2.614   0.273   2.123
36530SOL    HW111423   2.595   0.292   2.031
36530SOL    HW211424   2.610   0.178   2.129
36531SOL     OW11425   0.703   1.264   0.674
36531SOL    HW111426   0.693   1.179   0.630
36531SOL    HW211427   0.793   1.265   0.706
36532SOL     OW11428   3.146  14.377  11.189
36532SOL    HW111429   3.106  14.464  11.181
36532SOL    HW211430   3.238  14.395  11.205
36533SOL     OW11431  12.414   7.633   7.190
36533SOL    HW111432  12.452   7.706   7.141
36533SOL    HW211433  12.486   7.600   7.244
36534SOL     OW11434   8.067   2.290   9.056
36534SOL    HW111435   8.146   2.260   9.101
36534SOL    HW211436   8.035   2.213   9.010
36535SOL     OW11437  12.580   9.864  14.796
36535SOL    HW111438  12.525   9.792  14.830
36535SOL    HW211439  12.635   9.822  14.730
36536SOL     OW11440  10.120   7.029  14.545
36536SOL    HW111441  10.143   6.943  14.579
36536SOL    HW211442  10.140   7.090  14.616
36537SOL     OW11443   5.602   8.097   3.224
36537SOL    HW111444   5.658   8.024   3.195
36537SOL    HW211445   5.538   8.056   3.281
36538SOL     OW11446  12.556  10.065   4.409
36538SOL    HW111447  12.472  10.033   4.375
36538SOL    HW211448  12.548  10.055   4.504
36539SOL     OW11449   4.729   6.898   2.981
36539SOL    HW111450   4.683   6.834   2.927
36539SOL    HW211451   4.804   6.926   2.928
36540SOL     OW11452   5.436   7.547  11.035
36540SOL    HW111453   5.489   7.606  11.088
36540SOL    HW211454   5.463   7.566  10.945
36541SOL     OW11455   2.788   1.814   5.877
36541SOL    HW111456   2.783   1.838   5.970
36541SOL    HW211457   2.878   1.782   5.866
36542SOL     OW11458  12.603  13.709   1.857
36542SOL    HW111459  12.578  13.714   1.765
36542SOL    HW211460  12.600  13.800   1.887
36543SOL     OW11461   1.947  10.301   4.518
36543SOL    HW111462   2.011  10.252   4.468
36543SOL    HW211463   1.968  10.282   4.610
36544SOL     OW11464   5.810  12.229   8.529
36544SOL    HW111465   5.719  12.200   8.521
36544SOL    HW211466   5.805  12.324   8.540
36545SOL     OW11467   9.533   6.883   0.014
36545SOL    HW111468   9.492   6.966   0.039
36545SOL    HW211469   9.473   6.845  14.829
36546SOL     OW11470   1.989   0.419  11.288
36546SOL    HW111471   1.982   0.440  11.195
36546SOL    HW211472   1.923   0.474  11.330
36547SOL     OW11473  14.054   4.866   2.348
36547SOL    HW111474  14.098   4.789   2.311
36547SOL    HW211475  14.016   4.910   2.272
36548SOL     OW11476  11.578   5.492   3.871
36548SOL    HW111477  11.569   5.468   3.963
36548SOL    HW211478  11.535   5.578   3.864
36549SOL     OW11479   0.521  11.881  10.119
36549SOL    HW111480   0.605  11.848  10.087
36549SOL    HW211481   0.530  11.880  10.215
36550SOL     OW11482  10.964   0.946   4.099
36550SOL    HW111483  10.889   0.890   4.119
36550SOL    HW211484  10.932   1.005   4.031
36551SOL     OW11485   5.129   4.396  11.397
36551SOL    HW111486   5.207   4.345  11.418
36551SOL    HW211487   5.163   4.480  11.366
36552SOL     OW11488   7.127   5.913   0.541
36552SOL    HW111489   7.153   5.823   0.521
36552SOL    HW211490   7.135   5.959   0.457
36553SOL     OW11491  10.592   2.657   1.727
36553SOL    HW111492  10.589   2.565   1.701
36553SOL    HW211493  10.599   2.655   1.822
36554SOL     OW11494   1.530   5.955  13.724
36554SOL    HW111495   1.449   5.912  13.750
36554SOL    HW211496   1.567   5.898  13.656
36555SOL     OW11497  13.310   3.916   9.658
36555SOL    HW111498  13.216   3.902   9.646
36555SOL    HW211499  13.351   3.833   9.635
36556SOL     OW11500   8.776   3.894   5.759
36556SOL    HW111501   8.830   3.956   5.710
36556SOL    HW211502   8.738   3.946   5.829
36557SOL     OW11503   3.824  11.794   6.927
36557SOL    HW111504   3.734  11.818   6.946
36557SOL    HW211505   3.825  11.698   6.930
36558SOL     OW11506  11.728   1.097  14.607
36558SOL    HW111507  11.752   1.190  14.612
36558SOL    HW211508  11.712   1.081  14.514
36559SOL     OW11509   2.541   0.414  12.017
36559SOL    HW111510   2.475   0.450  12.077
36559SOL    HW211511   2.521   0.321  12.013
36560SOL     OW11512  11.079   6.755   1.672
36560SOL    HW111513  11.070   6.784   1.762
36560SOL    HW211514  11.130   6.674   1.677
36561SOL     OW11515  14.574  13.920   6.166
36561SOL    HW111516  14.573  13.857   6.237
36561SOL    HW211517  14.483  13.951   6.160
36562SOL     OW11518   5.696   3.499  10.453
36562SOL    HW111519   5.769   3.510  10.392
36562SOL    HW211520   5.737   3.495  10.540
36563SOL     OW11521  13.652  10.435   3.821
36563SOL    HW111522  13.593  10.500   3.783
36563SOL    HW211523  13.602  10.398   3.894
36564SOL     OW11524   9.341  14.134  14.519
36564SOL    HW111525   9.422  14.128  14.468
36564SOL    HW211526   9.334  14.227  14.542
36565SOL     OW11527   0.541  14.729  11.986
36565SOL    HW111528   0.558  14.655  12.045
36565SOL    HW211529   0.604  14.717  11.915
36566SOL     OW11530   7.929   3.724   5.372
36566SOL    HW111531   7.881   3.666   5.430
36566SOL    HW211532   7.946   3.803   5.424
36567SOL     OW11533  14.505   0.657   5.207
36567SOL    HW111534  14.436   0.647   5.272
36567SOL    HW211535  14.463   0.699   5.132
36568SOL     OW11536   4.172  11.704   3.852
36568SOL    HW111537   4.078  11.698   3.868
36568SOL    HW211538   4.210  11.635   3.907
36569SOL     OW11539   8.220   7.080   2.166
36569SOL    HW111540   8.158   7.136   2.212
36569SOL    HW211541   8.280   7.049   2.234
36570SOL     OW11542   1.082   9.542   3.354
36570SOL    HW111543   1.065   9.615   3.414
36570SOL    HW211544   1.061   9.464   3.405
36571SOL     OW11545   2.668   2.038   8.936
36571SOL    HW111546   2.703   2.121   8.904
36571SOL    HW211547   2.574   2.044   8.921
36572SOL     OW11548  11.656  11.935   9.002
36572SOL    HW111549  11.623  11.862   8.951
36572SOL    HW211550  11.666  11.900   9.091
36573SOL     OW11551   9.506   3.004  13.535
36573SOL    HW111552   9.528   2.957  13.615
36573SOL    HW211553   9.414   2.984  13.520
36574SOL     OW11554   5.722   0.123   3.042
36574SOL    HW111555   5.708   0.121   3.136
36574SOL    HW211556   5.765   0.208   3.027
36575SOL     OW11557   4.611   9.463   8.540
36575SOL    HW111558   4.666   9.513   8.600
36575SOL    HW211559   4.533   9.516   8.529
36576SOL     OW11560   3.454   0.991   7.550
36576SOL    HW111561   3.495   0.910   7.580
36576SOL    HW211562   3.364   0.966   7.529
36577SOL     OW11563   3.990  13.945  13.956
36577SOL    HW111564   3.937  13.952  14.035
36577SOL    HW211565   3.996  13.851  13.939
36578SOL     OW11566  13.203  14.371   7.855
36578SOL    HW111567  13.235  14.294   7.807
36578SOL    HW211568  13.252  14.369   7.938
36579SOL     OW11569   2.667  14.347  12.829
36579SOL    HW111570   2.724  14.271  12.819
36579SOL    HW211571   2.623  14.354  12.744
36580SOL     OW11572  10.932  12.147  14.496
36580SOL    HW111573  10.992  12.077  14.472
36580SOL    HW211574  10.970  12.185  14.576
36581SOL     OW11575   6.156  10.957   9.015
36581SOL    HW111576   6.244  10.943   8.978
36581SOL    HW211577   6.112  10.873   9.004
36582SOL     OW11578  12.604   6.163  10.085
36582SOL    HW111579  12.599   6.257  10.066
36582SOL    HW211580  12.539   6.123  10.027
36583SOL     OW11581  11.285  13.536  11.893
36583SOL    HW111582  11.244  13.520  11.808
36583SOL    HW211583  11.262  13.459  11.945
36584SOL     OW11584   5.818  14.561  14.374
36584SOL    HW111585   5.832  14.530  14.285
36584SOL    HW211586   5.903  14.597  14.400
36585SOL     OW11587  12.002  13.862   0.890
36585SOL    HW111588  11.923  13.914   0.900
36585SOL    HW211589  11.993  13.792   0.955
36586SOL     OW11590  11.492  13.255   9.636
36586SOL    HW111591  11.543  13.212   9.704
36586SOL    HW211592  11.406  13.268   9.675
36587SOL     OW11593  12.537   4.485   6.895
36587SOL    HW111594  12.536   4.436   6.813
36587SOL    HW211595  12.473   4.441   6.950
36588SOL     OW11596   8.798   8.600   1.513
36588SOL    HW111597   8.772   8.640   1.596
36588SOL    HW211598   8.763   8.511   1.517
36589SOL     OW11599  12.704  10.191   2.396
36589SOL    HW111600  12.633  10.150   2.346
36589SOL    HW211601  12.768  10.217   2.330
36590SOL     OW11602   1.334   0.413   8.228
36590SOL    HW111603   1.400   0.405   8.298
36590SOL    HW211604   1.376   0.375   8.151
36591SOL     OW11605   5.148   2.264   4.501
36591SOL    HW111606   5.067   2.290   4.546
36591SOL    HW211607   5.160   2.172   4.525
36592SOL     OW11608   5.190  14.585  12.360
36592SOL    HW111609   5.112  14.530  12.353
36592SOL    HW211610   5.188  14.639  12.281
36593SOL     OW11611   3.669   7.727   0.800
36593SOL    HW111612   3.712   7.731   0.715
36593SOL    HW211613   3.575   7.732   0.779
36594SOL     OW11614   6.239  11.468   6.565
36594SOL    HW111615   6.266  11.400   6.503
36594SOL    HW211616   6.268  11.436   6.650
36595SOL     OW11617   3.043   0.001  12.409
36595SOL    HW111618   2.987   0.042  12.476
36595SOL    HW211619   3.068   0.073  12.352
36596SOL     OW11620   9.074  14.728   1.608
36596SOL    HW111621   9.160  14.749   1.572
36596SOL    HW211622   9.051  14.643   1.569
36597SOL     OW11623   2.450  13.493  14.458
36597SOL    HW111624   2.485  13.412  14.497
36597SOL    HW211625   2.393  13.462  14.387
36598SOL     OW11626   7.298   7.493  12.960
36598SOL    HW111627   7.316   7.401  12.940
36598SOL    HW211628   7.217   7.490  13.012
36599SOL     OW11629  14.202   3.382  10.249
36599SOL    HW111630  14.266   3.313  10.233
36599SOL    HW211631  14.225   3.451  10.186
36600SOL     OW11632  14.850   9.426  13.474
36600SOL    HW111633  14.803   9.344  13.461
36600SOL    HW211634   0.050   9.417  13.422
36601SOL     OW11635   7.228   4.891  11.033
36601SOL    HW111636   7.146   4.910  10.986
36601SOL    HW211637   7.272   4.976  11.038
36602SOL     OW11638   7.647   1.909   2.587
36602SOL    HW111639   7.677   1.987   2.633
36602SOL    HW211640   7.552   1.912   2.593
36603SOL     OW11641   8.599   8.845   0.020
36603SOL    HW111642   8.523   8.790   0.039
36603SOL    HW211643   8.562   8.926  14.864
36604SOL     OW11644  11.803   8.213  14.857
36604SOL    HW111645  11.815   8.151  14.785
36604SOL    HW211646  11.727   8.180   0.026
36605SOL     OW11647  14.855  11.779   7.973
36605SOL    HW111648  14.821  11.692   7.995
36605SOL    HW211649   0.064  11.762   7.939
36606SOL     OW11650   8.964  14.213   8.372
36606SOL    HW111651   9.024  14.244   8.305
36606SOL    HW211652   9.010  14.141   8.415
36607SOL     OW11653   2.789   0.556  14.228
36607SOL    HW111654   2.829   0.543  14.143
36607SOL    HW211655   2.801   0.473  14.274
36608SOL     OW11656   7.804   5.358   3.903
36608SOL    HW111657   7.772   5.444   3.929
36608SOL    HW211658   7.875   5.339   3.964
36609SOL     OW11659   5.405   0.500   6.119
36609SOL    HW111660   5.451   0.456   6.049
36609SOL    HW211661   5.396   0.591   6.089
36610SOL     OW11662   4.686   8.648   1.276
36610SOL    HW111663   4.596   8.680   1.275
36610SOL    HW211664   4.739   8.724   1.251
36611SOL     OW11665  14.822   0.323   5.959
36611SOL    HW111666  14.866   0.404   5.984
36611SOL    HW211667  14.788   0.340   5.872
36612SOL     OW11668   7.700   6.438   3.520
36612SOL    HW111669   7.765   6.473   3.581
36612SOL    HW211670   7.693   6.345   3.543
36613SOL     OW11671  14.074  10.238  13.612
36613SOL    HW111672  13.993  10.262  13.658
36613SOL    HW211673  14.142  10.246  13.679
36614SOL     OW11674   4.666   7.639   3.109
36614SOL    HW111675   4.581   7.642   3.066
36614SOL    HW211676   4.663   7.560   3.164
36615SOL     OW11677   9.966   6.062   3.171
36615SOL    HW111678   9.942   6.141   3.219
36615SOL    HW211679  10.048   6.033   3.212
36616SOL     OW11680   1.826   3.267   1.076
36616SOL    HW111681   1.870   3.187   1.104
36616SOL    HW211682   1.897   3.326   1.052
36617SOL     OW11683   0.233   8.390   4.741
36617SOL    HW111684   0.287   8.444   4.799
36617SOL    HW211685   0.191   8.452   4.682
36618SOL     OW11686   4.921  12.477   9.451
36618SOL    HW111687   4.908  12.513   9.364
36618SOL    HW211688   4.998  12.523   9.485
36619SOL     OW11689  10.153   4.695  10.704
36619SOL    HW111690  10.167   4.709  10.797
36619SOL    HW211691  10.129   4.603  10.696
36620SOL     OW11692   5.536   2.880  10.532
36620SOL    HW111693   5.616   2.934  10.531
36620SOL    HW211694   5.520   2.859  10.440
36621SOL     OW11695  14.621  14.478  10.565
36621SOL    HW111696  14.560  14.505  10.634
36621SOL    HW211697  14.667  14.403  10.602
36622SOL     OW11698  10.202   7.614   0.332
36622SOL    HW111699  10.134   7.655   0.280
36622SOL    HW211700  10.275   7.602   0.271
36623SOL     OW11701   9.779   8.547   3.702
36623SOL    HW111702   9.752   8.591   3.622
36623SOL    HW211703   9.698   8.542   3.754
36624SOL     OW11704  11.297  13.345   4.528
36624SOL    HW111705  11.209  13.367   4.498
36624SOL    HW211706  11.348  13.334   4.448
36625SOL     OW11707   7.660   0.598  11.441
36625SOL    HW111708   7.700   0.560  11.520
36625SOL    HW211709   7.731   0.649  11.401
36626SOL     OW11710   1.395  12.625  13.583
36626SOL    HW111711   1.312  12.585  13.556
36626SOL    HW211712   1.459  12.554  13.578
36627SOL     OW11713   6.163   2.158   9.263
36627SOL    HW111714   6.152   2.249   9.235
36627SOL    HW211715   6.257   2.143   9.259
36628SOL     OW11716  13.076   3.836  12.133
36628SOL    HW111717  13.159   3.881  12.152
36628SOL    HW211718  13.012   3.907  12.122
36629SOL     OW11719   9.052   8.692   6.402
36629SOL    HW111720   9.122   8.744   6.441
36629SOL    HW211721   9.092   8.653   6.324
36630SOL     OW11722   6.083   8.241  10.177
36630SOL    HW111723   6.085   8.279  10.089
36630SOL    HW211724   6.100   8.148  10.163
36631SOL     OW11725  14.788   7.718   8.000
36631SOL    HW111726  14.832   7.672   8.071
36631SOL    HW211727  14.695   7.712   8.021
36632SOL     OW11728  14.168   4.832   7.168
36632SOL    HW111729  14.072   4.838   7.167
36632SOL    HW211730  14.197   4.895   7.101
36633SOL     OW11731  10.151  10.523   3.602
36633SOL    HW111732  10.115  10.601   3.559
36633SOL    HW211733  10.078  10.461   3.602
36634SOL     OW11734  10.875   6.471  12.770
36634SOL    HW111735  10.904   6.544  12.825
36634SOL    HW211736  10.948   6.408  12.775
36635SOL     OW11737  13.337   7.374   5.003
36635SOL    HW111738  13.266   7.417   4.955
36635SOL    HW211739  13.330   7.408   5.092
36636SOL     OW11740  11.795  12.372  10.606
36636SOL    HW111741  11.874  12.354  10.658
36636SOL    HW211742  11.815  12.454  10.560
36637SOL     OW11743   7.148   8.145   2.295
36637SOL    HW111744   7.236   8.110   2.310
36637SOL    HW211745   7.093   8.067   2.284
36638SOL     OW11746  14.539   6.893   9.366
36638SOL    HW111747  14.548   6.809   9.412
36638SOL    HW211748  14.445   6.901   9.349
36639SOL     OW11749   5.148   2.832   3.517
36639SOL    HW111750   5.187   2.757   3.561
36639SOL    HW211751   5.222   2.884   3.488
36640SOL     OW11752  13.786   5.234  13.878
36640SOL    HW111753  13.816   5.300  13.941
36640SOL    HW211754  13.771   5.156  13.931
36641SOL     OW11755   7.658   5.326   7.602
36641SOL    HW111756   7.655   5.415   7.639
36641SOL    HW211757   7.747   5.296   7.619
36642SOL     OW11758  12.967   3.896   4.117
36642SOL    HW111759  12.991   3.986   4.095
36642SOL    HW211760  12.978   3.890   4.212
36643SOL     OW11761  10.555   0.092   7.097
36643SOL    HW111762  10.470   0.115   7.134
36643SOL    HW211763  10.551  14.877   7.082
36644SOL     OW11764  14.667  13.376  10.599
36644SOL    HW111765  14.756  13.346  10.583
36644SOL    HW211766  14.618  13.351  10.520
36645SOL     OW11767  12.010   8.452  13.023
36645SOL    HW111768  11.922   8.430  12.993
36645SOL    HW211769  11.996   8.506  13.101
36646SOL     OW11770  12.781  10.974  13.472
36646SOL    HW111771  12.862  11.012  13.439
36646SOL    HW211772  12.712  11.033  13.440
36647SOL     OW11773   7.226   8.727   0.021
36647SOL    HW111774   7.253   8.705   0.110
36647SOL    HW211775   7.139   8.765   0.030
36648SOL     OW11776   3.778   6.613  12.786
36648SOL    HW111777   3.715   6.613  12.858
36648SOL    HW211778   3.742   6.675  12.723
36649SOL     OW11779   8.627  10.373   6.545
36649SOL    HW111780   8.638  10.363   6.640
36649SOL    HW211781   8.716  10.388   6.512
36650SOL     OW11782   0.142   0.950   0.653
36650SOL    HW111783   0.169   0.866   0.690
36650SOL    HW211784   0.198   1.015   0.696
36651SOL     OW11785   7.722   8.268   5.851
36651SOL    HW111786   7.695   8.304   5.935
36651SOL    HW211787   7.815   8.290   5.844
36652SOL     OW11788   0.120   8.845   6.658
36652SOL    HW111789   0.187   8.904   6.693
36652SOL    HW211790   0.118   8.772   6.720
36653SOL     OW11791   0.691  13.324   7.310
36653SOL    HW111792   0.661  13.299   7.397
36653SOL    HW211793   0.614  13.312   7.254
36654SOL     OW11794   6.881   1.521   5.519
36654SOL    HW111795   6.823   1.559   5.453
36654SOL    HW211796   6.917   1.596   5.565
36655SOL     OW11797   9.475  10.405   2.754
36655SOL    HW111798   9.458  10.392   2.848
36655SOL    HW211799   9.409  10.350   2.711
36656SOL     OW11800   4.028   7.203  12.539
36656SOL    HW111801   3.973   7.124  12.535
36656SOL    HW211802   4.019   7.243  12.453
36657SOL     OW11803   7.713   8.068   9.986
36657SOL    HW111804   7.731   7.986  10.033
36657SOL    HW211805   7.777   8.069   9.915
36658SOL     OW11806   4.267   7.947  13.583
36658SOL    HW111807   4.313   8.028  13.606
36658SOL    HW211808   4.335   7.880  13.584
36659SOL     OW11809   1.168  12.223  13.290
36659SOL    HW111810   1.207  12.304  13.255
36659SOL    HW211811   1.202  12.218  13.379
36660SOL     OW11812   1.304  12.549   2.264
36660SOL    HW111813   1.218  12.570   2.302
36660SOL    HW211814   1.333  12.631   2.224
36661SOL     OW11815   2.837   6.371  13.823
36661SOL    HW111816   2.861   6.417  13.742
36661SOL    HW211817   2.741   6.374  13.825
36662SOL     OW11818  13.009  12.293   6.310
36662SOL    HW111819  12.996  12.295   6.404
36662SOL    HW211820  13.093  12.249   6.298
36663SOL     OW11821   9.114   0.420   9.569
36663SOL    HW111822   9.176   0.376   9.628
36663SOL    HW211823   9.161   0.426   9.486
36664SOL     OW11824  12.822   2.652   5.272
36664SOL    HW111825  12.892   2.611   5.222
36664SOL    HW211826  12.814   2.740   5.233
36665SOL     OW11827  12.729   9.837   0.364
36665SOL    HW111828  12.761   9.806   0.278
36665SOL    HW211829  12.693   9.759   0.405
36666SOL     OW11830  13.614   3.533  13.359
36666SOL    HW111831  13.583   3.621  13.335
36666SOL    HW211832  13.539   3.476  13.341
36667SOL     OW11833   9.361   8.404   5.970
36667SOL    HW111834   9.401   8.448   5.895
36667SOL    HW211835   9.391   8.313   5.964
36668SOL     OW11836   6.049   2.914   7.840
36668SOL    HW111837   6.124   2.962   7.806
36668SOL    HW211838   6.084   2.859   7.909
36669SOL     OW11839   6.194  10.502   4.485
36669SOL    HW111840   6.173  10.416   4.449
36669SOL    HW211841   6.279  10.523   4.448
36670SOL     OW11842   7.154   9.243  11.448
36670SOL    HW111843   7.088   9.303  11.483
36670SOL    HW211844   7.192   9.291  11.374
36671SOL     OW11845   9.885  10.859  14.435
36671SOL    HW111846   9.852  10.862  14.345
36671SOL    HW211847   9.960  10.799  14.432
36672SOL     OW11848   1.687   4.059  11.118
36672SOL    HW111849   1.591   4.056  11.115
36672SOL    HW211850   1.711   4.132  11.062
36673SOL     OW11851   6.881   9.434  13.974
36673SOL    HW111852   6.900   9.349  14.013
36673SOL    HW211853   6.955   9.451  13.916
36674SOL     OW11854   1.465   3.753   1.055
36674SOL    HW111855   1.385   3.777   1.102
36674SOL    HW211856   1.435   3.703   0.980
36675SOL     OW11857  11.993  12.181  10.963
36675SOL    HW111858  11.911  12.149  11.001
36675SOL    HW211859  12.060  12.161  11.029
36676SOL     OW11860   7.922  10.542   8.956
36676SOL    HW111861   7.936  10.628   8.916
36676SOL    HW211862   7.897  10.486   8.883
36677SOL     OW11863   4.255  14.776  10.069
36677SOL    HW111864   4.334  14.794  10.019
36677SOL    HW211865   4.185  14.776  10.004
36678SOL     OW11866   2.468   8.679   0.292
36678SOL    HW111867   2.513   8.598   0.268
36678SOL    HW211868   2.436   8.663   0.381
36679SOL     OW11869   3.956   4.050   7.261
36679SOL    HW111870   3.922   3.990   7.195
36679SOL    HW211871   3.887   4.115   7.272
36680SOL     OW11872  12.055   4.332   5.802
36680SOL    HW111873  12.006   4.386   5.863
36680SOL    HW211874  11.997   4.259   5.782
36681SOL     OW11875   0.138   1.474   5.989
36681SOL    HW111876   0.087   1.471   6.070
36681SOL    HW211877   0.103   1.403   5.935
36682SOL     OW11878   1.220  13.904   6.372
36682SOL    HW111879   1.233  13.826   6.318
36682SOL    HW211880   1.301  13.912   6.423
36683SOL     OW11881   1.209   7.345   9.614
36683SOL    HW111882   1.186   7.426   9.569
36683SOL    HW211883   1.133   7.325   9.668
36684SOL     OW11884   4.182   5.093   4.179
36684SOL    HW111885   4.260   5.142   4.203
36684SOL    HW211886   4.213   5.024   4.120
36685SOL     OW11887   4.541   8.524  14.726
36685SOL    HW111888   4.448   8.505  14.723
36685SOL    HW211889   4.582   8.455  14.674
36686SOL     OW11890   6.326  10.811   0.430
36686SOL    HW111891   6.374  10.768   0.360
36686SOL    HW211892   6.277  10.741   0.473
36687SOL     OW11893   2.314   4.059  10.530
36687SOL    HW111894   2.257   4.136  10.531
36687SOL    HW211895   2.382   4.078  10.595
36688SOL     OW11896   9.697   0.391  14.581
36688SOL    HW111897   9.645   0.450  14.636
36688SOL    HW211898   9.700   0.309  14.632
36689SOL     OW11899   2.865  10.921   2.621
36689SOL    HW111900   2.843  10.910   2.713
36689SOL    HW211901   2.790  10.967   2.583
36690SOL     OW11902   6.931   2.734   9.815
36690SOL    HW111903   6.884   2.763   9.737
36690SOL    HW211904   6.873   2.669   9.855
36691SOL     OW11905   0.998   5.708   9.712
36691SOL    HW111906   0.957   5.783   9.756
36691SOL    HW211907   1.087   5.738   9.692
36692SOL     OW11908  12.889   8.887   4.109
36692SOL    HW111909  12.814   8.836   4.078
36692SOL    HW211910  12.899   8.957   4.044
36693SOL     OW11911   2.221   4.178   2.240
36693SOL    HW111912   2.154   4.144   2.299
36693SOL    HW211913   2.175   4.190   2.156
36694SOL     OW11914   6.819   4.766   9.364
36694SOL    HW111915   6.727   4.783   9.387
36694SOL    HW211916   6.853   4.852   9.338
36695SOL     OW11917   6.236   4.904   3.373
36695SOL    HW111918   6.253   4.990   3.411
36695SOL    HW211919   6.211   4.849   3.447
36696SOL     OW11920   9.367   8.474   4.606
36696SOL    HW111921   9.389   8.488   4.698
36696SOL    HW211922   9.286   8.523   4.593
36697SOL     OW11923   4.604   7.006   8.318
36697SOL    HW111924   4.692   7.024   8.353
36697SOL    HW211925   4.547   7.007   8.395
36698SOL     OW11926   3.912   6.685  10.410
36698SOL    HW111927   3.831   6.736  10.403
36698SOL    HW211928   3.968   6.720  10.341
36699SOL     OW11929   2.001   5.486  10.427
36699SOL    HW111930   1.962   5.478  10.514
36699SOL    HW211931   1.962   5.566  10.391
36700SOL     OW11932   7.743   7.855  11.041
36700SOL    HW111933   7.787   7.916  10.982
36700SOL    HW211934   7.690   7.910  11.099
36701SOL     OW11935   8.666   9.142   4.267
36701SOL    HW111936   8.641   9.051   4.281
36701SOL    HW211937   8.606   9.192   4.322
36702SOL     OW11938   4.567   2.354   4.872
36702SOL    HW111939   4.663   2.358   4.878
36702SOL    HW211940   4.539   2.317   4.956
36703SOL     OW11941   9.854   7.379  12.026
36703SOL    HW111942   9.863   7.288  11.997
36703SOL    HW211943   9.938   7.419  12.007
36704SOL     OW11944  10.673   5.938   3.402
36704SOL    HW111945  10.717   5.890   3.473
36704SOL    HW211946  10.733   6.009   3.381
36705SOL     OW11947   5.034   5.943  11.889
36705SOL    HW111948   5.087   5.880  11.840
36705SOL    HW211949   5.009   6.009  11.824
36706SOL     OW11950   9.089   3.056  10.484
36706SOL    HW111951   9.165   3.061  10.426
36706SOL    HW211952   9.114   3.110  10.559
36707SOL     OW11953   3.227   0.200  14.249
36707SOL    HW111954   3.193   0.284  14.281
36707SOL    HW211955   3.292   0.175  14.315
36708SOL     OW11956   5.859  10.069   2.639
36708SOL    HW111957   5.941  10.061   2.591
36708SOL    HW211958   5.880  10.124   2.714
36709SOL     OW11959   2.806   1.985  14.249
36709SOL    HW111960   2.732   2.002  14.307
36709SOL    HW211961   2.771   1.926  14.183
36710SOL     OW11962  10.090   3.304   4.448
36710SOL    HW111963  10.000   3.330   4.435
36710SOL    HW211964  10.137   3.337   4.372
36711SOL     OW11965   6.849   8.846   2.010
36711SOL    HW111966   6.929   8.858   1.960
36711SOL    HW211967   6.783   8.896   1.961
36712SOL     OW11968   0.709  10.184   6.712
36712SOL    HW111969   0.614  10.188   6.711
36712SOL    HW211970   0.729  10.091   6.696
36713SOL     OW11971   9.359  14.381   2.548
36713SOL    HW111972   9.266  14.401   2.539
36713SOL    HW211973   9.392  14.449   2.607
36714SOL     OW11974   8.642   7.085  10.865
36714SOL    HW111975   8.612   7.115  10.951
36714SOL    HW211976   8.680   6.999  10.882
36715SOL     OW11977  10.117   9.681  11.355
36715SOL    HW111978  10.187   9.704  11.415
36715SOL    HW211979  10.090   9.593  11.381
36716SOL     OW11980   9.206   9.234   4.531
36716SOL    HW111981   9.288   9.274   4.560
36716SOL    HW211982   9.145   9.308   4.521
36717SOL     OW11983   9.833   3.658   7.436
36717SOL    HW111984   9.869   3.612   7.360
36717SOL    HW211985   9.876   3.618   7.511
36718SOL     OW11986   2.557  13.884   4.824
36718SOL    HW111987   2.542  13.846   4.910
36718SOL    HW211988   2.513  13.825   4.763
36719SOL     OW11989   2.281   6.252  13.909
36719SOL    HW111990   2.244   6.253  13.997
36719SOL    HW211991   2.211   6.218  13.854
36720SOL     OW11992  10.847   2.277   3.903
36720SOL    HW111993  10.919   2.218   3.925
36720SOL    HW211994  10.833   2.329   3.982
36721SOL     OW11995   5.288   4.821  11.689
36721SOL    HW111996   5.347   4.753  11.723
36721SOL    HW211997   5.211   4.773  11.658
36722SOL     OW11998  10.795   9.349   5.517
36722SOL    HW111999  10.818   9.423   5.573
36722SOL    HW212000  10.827   9.272   5.565
36723SOL     OW12001   6.642   6.192  13.676
36723SOL    HW112002   6.729   6.167  13.644
36723SOL    HW212003   6.590   6.201  13.596
36724SOL     OW12004   4.913  12.587   8.695
36724SOL    HW112005   4.847  12.542   8.644
36724SOL    HW212006   4.952  12.650   8.633
36725SOL     OW12007   8.279   3.555  13.771
36725SOL    HW112008   8.250   3.637  13.732
36725SOL    HW212009   8.258   3.563  13.864
36726SOL     OW12010  12.876  11.941   2.807
36726SOL    HW112011  12.836  11.993   2.737
36726SOL    HW212012  12.814  11.871   2.825
36727SOL     OW12013   2.166   1.741   9.616
36727SOL    HW112014   2.203   1.822   9.580
36727SOL    HW212015   2.071   1.753   9.610
36728SOL     OW12016   2.801  10.152   2.754
36728SOL    HW112017   2.706  10.164   2.752
36728SOL    HW212018   2.832  10.192   2.673
36729SOL     OW12019   3.303   6.865  11.844
36729SOL    HW112020   3.386   6.910  11.861
36729SOL    HW212021   3.256   6.923  11.784
36730SOL     OW12022   2.377   7.806   6.807
36730SOL    HW112023   2.463   7.767   6.789
36730SOL    HW212024   2.336   7.812   6.721
36731SOL     OW12025   5.306   2.644   4.798
36731SOL    HW112026   5.312   2.726   4.749
36731SOL    HW212027   5.346   2.665   4.883
36732SOL     OW12028   3.602   2.320  11.439
36732SOL    HW112029   3.613   2.410  11.471
36732SOL    HW212030   3.602   2.266  11.518
36733SOL     OW12031   5.047   0.925  13.837
36733SOL    HW112032   5.027   0.875  13.758
36733SOL    HW212033   5.142   0.914  13.849
36734SOL     OW12034  12.731   2.679   4.229
36734SOL    HW112035  12.680   2.606   4.195
36734SOL    HW212036  12.792   2.700   4.159
36735SOL     OW12037  12.559   7.447   0.048
36735SOL    HW112038  12.629   7.383   0.034
36735SOL    HW212039  12.596   7.530   0.019
36736SOL     OW12040   6.394   8.573   3.378
36736SOL    HW112041   6.399   8.609   3.466
36736SOL    HW212042   6.397   8.478   3.391
36737SOL     OW12043  12.191  11.290   0.092
36737SOL    HW112044  12.184  11.270   0.185
36737SOL    HW212045  12.128  11.231   0.050
36738SOL     OW12046   8.252   5.999   4.331
36738SOL    HW112047   8.224   5.957   4.413
36738SOL    HW212048   8.234   6.092   4.344
36739SOL     OW12049   0.007  10.760   2.085
36739SOL    HW112050  14.803  10.750   2.131
36739SOL    HW212051   0.010  10.685   2.025
36740SOL     OW12052   6.123   6.970   2.626
36740SOL    HW112053   6.041   6.995   2.670
36740SOL    HW212054   6.136   6.878   2.650
36741SOL     OW12055   9.852   3.508  11.707
36741SOL    HW112056   9.827   3.427  11.662
36741SOL    HW212057   9.945   3.518  11.689
36742SOL     OW12058  13.473  11.249  11.518
36742SOL    HW112059  13.454  11.160  11.487
36742SOL    HW212060  13.411  11.305  11.469
36743SOL     OW12061   3.140   5.065  13.753
36743SOL    HW112062   3.170   5.066  13.844
36743SOL    HW212063   3.208   5.018  13.705
36744SOL     OW12064   5.936   2.948   9.326
36744SOL    HW112065   5.959   2.970   9.236
36744SOL    HW212066   5.849   2.908   9.319
36745SOL     OW12067   4.366   5.754   6.249
36745SOL    HW112068   4.390   5.675   6.297
36745SOL    HW212069   4.328   5.812   6.315
36746SOL     OW12070   9.591  13.067   2.427
36746SOL    HW112071   9.500  13.042   2.440
36746SOL    HW212072   9.630  12.993   2.380
36747SOL     OW12073   5.175  10.600  14.677
36747SOL    HW112074   5.149  10.684  14.716
36747SOL    HW212075   5.221  10.555  14.748
36748SOL     OW12076   0.355   5.541  10.384
36748SOL    HW112077   0.308   5.464  10.351
36748SOL    HW212078   0.447   5.523  10.362
36749SOL     OW12079  12.918  11.697   5.240
36749SOL    HW112080  12.990  11.639   5.262
36749SOL    HW212081  12.915  11.697   5.145
36750SOL     OW12082   7.518  13.913  10.527
36750SOL    HW112083   7.464  13.962  10.466
36750SOL    HW212084   7.561  13.980  10.581
36751SOL     OW12085   8.018   0.521   7.046
36751SOL    HW112086   8.032   0.501   7.139
36751SOL    HW212087   8.090   0.478   7.001
36752SOL     OW12088   7.562   4.489   4.520
36752SOL    HW112089   7.650   4.522   4.506
36752SOL    HW212090   7.544   4.505   4.613
36753SOL     OW12091   2.246   5.352   5.323
36753SOL    HW112092   2.222   5.273   5.371
36753SOL    HW212093   2.316   5.324   5.264
36754SOL     OW12094   6.563  10.644   7.545
36754SOL    HW112095   6.599  10.724   7.582
36754SOL    HW212096   6.485  10.626   7.598
36755SOL     OW12097   3.093  14.418   8.867
36755SOL    HW112098   3.180  14.396   8.901
36755SOL    HW212099   3.032  14.378   8.930
36756SOL     OW12100  13.859   7.922   5.064
36756SOL    HW112101  13.827   7.833   5.050
36756SOL    HW212102  13.949   7.910   5.097
36757SOL     OW12103   5.580  10.906   3.464
36757SOL    HW112104   5.621  10.930   3.547
36757SOL    HW212105   5.626  10.958   3.399
36758SOL     OW12106   8.119  11.702   6.940
36758SOL    HW112107   8.053  11.742   6.884
36758SOL    HW212108   8.189  11.767   6.945
36759SOL     OW12109  13.601  10.826   2.947
36759SOL    HW112110  13.567  10.792   2.864
36759SOL    HW212111  13.644  10.750   2.988
36760SOL     OW12112   3.676   7.426   6.393
36760SOL    HW112113   3.764   7.404   6.425
36760SOL    HW212114   3.618   7.392   6.461
36761SOL     OW12115   8.508   1.347   0.704
36761SOL    HW112116   8.477   1.347   0.795
36761SOL    HW212117   8.470   1.268   0.666
36762SOL     OW12118   6.359   1.579   8.970
36762SOL    HW112119   6.399   1.539   8.893
36762SOL    HW212120   6.266   1.584   8.949
36763SOL     OW12121  14.714   8.059   5.626
36763SOL    HW112122  14.744   8.015   5.706
36763SOL    HW212123  14.734   8.151   5.640
36764SOL     OW12124   5.415   9.846  11.473
36764SOL    HW112125   5.441   9.883  11.557
36764SOL    HW212126   5.426   9.918  11.411
36765SOL     OW12127  11.398   4.211   2.985
36765SOL    HW112128  11.338   4.283   3.005
36765SOL    HW212129  11.343   4.145   2.943
36766SOL     OW12130   1.541  13.762   7.936
36766SOL    HW112131   1.483  13.706   7.987
36766SOL    HW212132   1.628  13.744   7.969
36767SOL     OW12133   7.110  13.629   1.828
36767SOL    HW112134   7.067  13.661   1.749
36767SOL    HW212135   7.185  13.578   1.796
36768SOL     OW12136   5.222   2.033   6.775
36768SOL    HW112137   5.232   1.995   6.687
36768SOL    HW212138   5.254   2.122   6.766
36769SOL     OW12139  12.425   6.491   0.813
36769SOL    HW112140  12.370   6.569   0.822
36769SOL    HW212141  12.423   6.450   0.899
36770SOL     OW12142   3.246   2.772   8.653
36770SOL    HW112143   3.332   2.729   8.656
36770SOL    HW212144   3.185   2.702   8.631
36771SOL     OW12145   2.462  13.353   5.835
36771SOL    HW112146   2.497  13.268   5.861
36771SOL    HW212147   2.399  13.375   5.903
36772SOL     OW12148   7.138   2.559   9.721
36772SOL    HW112149   7.068   2.613   9.756
36772SOL    HW212150   7.219   2.598   9.755
36773SOL     OW12151   5.030   8.966   5.952
36773SOL    HW112152   4.976   9.017   6.012
36773SOL    HW212153   5.114   8.958   5.997
36774SOL     OW12154   1.448  13.917  10.244
36774SOL    HW112155   1.391  13.860  10.296
36774SOL    HW212156   1.531  13.869  10.238
36775SOL     OW12157  11.119  12.674   1.416
36775SOL    HW112158  11.071  12.737   1.363
36775SOL    HW212159  11.209  12.708   1.417
36776SOL     OW12160   5.759   3.871  14.760
36776SOL    HW112161   5.795   3.948  14.716
36776SOL    HW212162   5.777   3.799  14.700
36777SOL     OW12163   8.894   2.964  13.376
36777SOL    HW112164   8.819   2.994  13.325
36777SOL    HW212165   8.910   2.876  13.344
36778SOL     OW12166   6.844   4.837   3.261
36778SOL    HW112167   6.862   4.898   3.332
36778SOL    HW212168   6.850   4.889   3.182
36779SOL     OW12169   6.296  14.242   5.743
36779SOL    HW112170   6.275  14.276   5.829
36779SOL    HW212171   6.310  14.320   5.689
36780SOL     OW12172  10.644  14.513  11.528
36780SOL    HW112173  10.723  14.563  11.506
36780SOL    HW212174  10.660  14.426  11.493
36781SOL     OW12175   4.968   3.288   3.083
36781SOL    HW112176   4.961   3.247   2.997
36781SOL    HW212177   4.890   3.342   3.090
36782SOL     OW12178  12.836   5.256  10.576
36782SOL    HW112179  12.908   5.195  10.557
36782SOL    HW212180  12.805   5.230  10.663
36783SOL     OW12181   1.945   3.807   0.964
36783SOL    HW112182   1.921   3.897   0.944
36783SOL    HW212183   2.013   3.815   1.031
36784SOL     OW12184   7.759  10.979  14.840
36784SOL    HW112185   7.791  11.007   0.047
36784SOL    HW212186   7.679  10.931  14.860
36785SOL     OW12187  10.215  11.326   9.098
36785SOL    HW112188  10.251  11.292   9.179
36785SOL    HW212189  10.291  11.341   9.042
36786SOL     OW12190   3.032   4.958   7.238
36786SOL    HW112191   3.070   5.046   7.234
36786SOL    HW212192   2.942   4.973   7.265
36787SOL     OW12193   7.838   7.021   6.460
36787SOL    HW112194   7.894   7.098   6.461
36787SOL    HW212195   7.866   6.970   6.536
36788SOL     OW12196   3.003   8.454   4.571
36788SOL    HW112197   3.004   8.498   4.486
36788SOL    HW212198   2.910   8.452   4.596
36789SOL     OW12199  14.017   7.426   3.804
36789SOL    HW112200  14.098   7.477   3.805
36789SOL    HW212201  14.029   7.363   3.733
36790SOL     OW12202   6.417   4.754   0.690
36790SOL    HW112203   6.325   4.777   0.675
36790SOL    HW212204   6.463   4.838   0.688
36791SOL     OW12205   5.277   6.013   3.877
36791SOL    HW112206   5.279   5.925   3.915
36791SOL    HW212207   5.196   6.017   3.828
36792SOL     OW12208   3.054   4.835  13.166
36792SOL    HW112209   2.959   4.838  13.155
36792SOL    HW212210   3.089   4.863  13.081
36793SOL     OW12211  11.623   9.753  12.577
36793SOL    HW112212  11.636   9.833  12.629
36793SOL    HW212213  11.594   9.785  12.492
36794SOL     OW12214   5.304  13.741  14.662
36794SOL    HW112215   5.263  13.801  14.725
36794SOL    HW212216   5.381  13.788  14.631
36795SOL     OW12217   5.883   7.882   9.966
36795SOL    HW112218   5.929   7.949   9.915
36795SOL    HW212219   5.882   7.805   9.910
36796SOL     OW12220   4.578  14.245   4.615
36796SOL    HW112221   4.492  14.283   4.633
36796SOL    HW212222   4.632  14.271   4.690
36797SOL     OW12223   1.591   2.141   4.174
36797SOL    HW112224   1.503   2.134   4.137
36797SOL    HW212225   1.581   2.202   4.247
36798SOL     OW12226  10.065  11.506  11.878
36798SOL    HW112227  10.126  11.574  11.848
36798SOL    HW212228  10.096  11.483  11.965
36799SOL     OW12229   3.680  14.343   5.364
36799SOL    HW112230   3.645  14.428   5.392
36799SOL    HW212231   3.767  14.338   5.405
36800SOL     OW12232   8.622   2.155   1.697
36800SOL    HW112233   8.701   2.160   1.643
36800SOL    HW212234   8.645   2.203   1.777
36801SOL     OW12235  13.291   1.010   7.536
36801SOL    HW112236  13.305   1.008   7.441
36801SOL    HW212237  13.279   1.102   7.557
36802SOL     OW12238   3.556   6.398   5.565
36802SOL    HW112239   3.639   6.383   5.518
36802SOL    HW212240   3.557   6.491   5.586
36803SOL     OW12241  14.657  12.547  14.468
36803SOL    HW112242  14.680  12.484  14.536
36803SOL    HW212243  14.708  12.519  14.392
36804SOL     OW12244  11.516   8.890   1.791
36804SOL    HW112245  11.444   8.887   1.728
36804SOL    HW212246  11.596   8.884   1.738
36805SOL     OW12247   4.384   5.950   2.223
36805SOL    HW112248   4.308   5.990   2.181
36805SOL    HW212249   4.348   5.883   2.280
36806SOL     OW12250   8.330   5.663  14.835
36806SOL    HW112251   8.333   5.577  14.878
36806SOL    HW212252   8.257   5.656  14.774
36807SOL     OW12253   8.293  13.968   5.085
36807SOL    HW112254   8.216  14.025   5.086
36807SOL    HW212255   8.320  13.967   4.993
36808SOL     OW12256  13.294  13.253  12.839
36808SOL    HW112257  13.355  13.310  12.792
36808SOL    HW212258  13.221  13.241  12.779
36809SOL     OW12259   4.571  11.023   8.230
36809SOL    HW112260   4.665  11.006   8.230
36809SOL    HW212261   4.551  11.051   8.319
36810SOL     OW12262   5.101  11.498  14.527
36810SOL    HW112263   5.018  11.538  14.552
36810SOL    HW212264   5.080  11.405  14.516
36811SOL     OW12265  14.253   7.059   3.738
36811SOL    HW112266  14.315   7.025   3.674
36811SOL    HW212267  14.196   7.117   3.687
36812SOL     OW12268   8.495   3.604   1.738
36812SOL    HW112269   8.575   3.563   1.703
36812SOL    HW212270   8.528   3.678   1.789
36813SOL     OW12271  10.469   8.315  10.454
36813SOL    HW112272  10.479   8.406  10.480
36813SOL    HW212273  10.384   8.289  10.492
36814SOL     OW12274   7.962   3.486  14.511
36814SOL    HW112275   7.881   3.498  14.559
36814SOL    HW212276   8.031   3.508  14.573
36815SOL     OW12277   5.932   2.894   0.088
36815SOL    HW112278   5.874   2.822   0.112
36815SOL    HW212279   5.960   2.932   0.171
36816SOL     OW12280   4.793   9.303  13.161
36816SOL    HW112281   4.849   9.229  13.182
36816SOL    HW212282   4.811   9.367  13.230
36817SOL     OW12283   5.918  10.531   4.319
36817SOL    HW112284   5.936  10.504   4.409
36817SOL    HW212285   5.972  10.609   4.307
36818SOL     OW12286   6.553  14.429   5.664
36818SOL    HW112287   6.612  14.403   5.734
36818SOL    HW212288   6.561  14.359   5.599
36819SOL     OW12289  10.777  12.986   5.025
36819SOL    HW112290  10.743  12.941   5.103
36819SOL    HW212291  10.710  12.971   4.958
36820SOL     OW12292   0.053   2.591   6.487
36820SOL    HW112293   0.059   2.534   6.410
36820SOL    HW212294   0.048   2.680   6.450
36821SOL     OW12295   2.194  13.905  10.816
36821SOL    HW112296   2.200  13.830  10.757
36821SOL    HW212297   2.221  13.979  10.762
36822SOL     OW12298   1.034  11.754   3.327
36822SOL    HW112299   0.960  11.728   3.271
36822SOL    HW212300   1.083  11.817   3.275
36823SOL     OW12301  11.804   6.918   9.629
36823SOL    HW112302  11.877   6.968   9.667
36823SOL    HW212303  11.728   6.974   9.640
36824SOL     OW12304   4.323  14.140   8.075
36824SOL    HW112305   4.267  14.201   8.027
36824SOL    HW212306   4.378  14.100   8.008
36825SOL     OW12307   0.210  12.745  10.863
36825SOL    HW112308   0.225  12.685  10.790
36825SOL    HW212309   0.281  12.809  10.856
36826SOL     OW12310   8.037  12.576   0.242
36826SOL    HW112311   7.984  12.515   0.294
36826SOL    HW212312   8.062  12.526   0.165
36827SOL     OW12313   7.110   8.344  13.784
36827SOL    HW112314   7.017   8.344  13.805
36827SOL    HW212315   7.146   8.418  13.833
36828SOL     OW12316   7.721   9.883   9.492
36828SOL    HW112317   7.688   9.891   9.582
36828SOL    HW212318   7.654   9.925   9.438
36829SOL     OW12319  10.775   6.908   4.250
36829SOL    HW112320  10.776   6.840   4.317
36829SOL    HW212321  10.826   6.871   4.177
36830SOL     OW12322  12.197  11.168   6.907
36830SOL    HW112323  12.207  11.213   6.823
36830SOL    HW212324  12.278  11.116   6.915
36831SOL     OW12325   7.457  12.993   0.569
36831SOL    HW112326   7.532  12.968   0.515
36831SOL    HW212327   7.412  12.911   0.587
36832SOL     OW12328  11.476  13.671   9.018
36832SOL    HW112329  11.393  13.642   9.057
36832SOL    HW212330  11.455  13.755   8.977
36833SOL     OW12331  14.123   3.164  10.409
36833SOL    HW112332  14.213   3.142  10.434
36833SOL    HW212333  14.133   3.233  10.344
36834SOL     OW12334   8.975  11.650   7.933
36834SOL    HW112335   9.065  11.617   7.924
36834SOL    HW212336   8.920  11.576   7.910
36835SOL     OW12337   0.781  11.176   0.792
36835SOL    HW112338   0.801  11.269   0.802
36835SOL    HW212339   0.857  11.131   0.829
36836SOL     OW12340  10.471   0.389   1.483
36836SOL    HW112341  10.550   0.352   1.522
36836SOL    HW212342  10.416   0.313   1.462
36837SOL     OW12343   4.758   9.968   3.575
36837SOL    HW112344   4.756   9.920   3.658
36837SOL    HW212345   4.720  10.053   3.595
36838SOL     OW12346   4.169   5.729   8.909
36838SOL    HW112347   4.248   5.713   8.858
36838SOL    HW212348   4.196   5.791   8.976
36839SOL     OW12349  11.964   3.296   6.027
36839SOL    HW112350  11.874   3.269   6.009
36839SOL    HW212351  11.981   3.365   5.964
36840SOL     OW12352   2.815   7.268   1.049
36840SOL    HW112353   2.741   7.243   0.993
36840SOL    HW212354   2.838   7.356   1.020
36841SOL     OW12355   4.103  10.828   0.350
36841SOL    HW112356   4.114  10.857   0.260
36841SOL    HW212357   4.047  10.894   0.390
36842SOL     OW12358   2.350  13.140  13.749
36842SOL    HW112359   2.381  13.054  13.775
36842SOL    HW212360   2.384  13.200  13.816
36843SOL     OW12361   3.547  10.155   9.919
36843SOL    HW112362   3.595  10.226   9.961
36843SOL    HW212363   3.615  10.090   9.897
36844SOL     OW12364  10.571   6.916   3.724
36844SOL    HW112365  10.574   6.988   3.787
36844SOL    HW212366  10.596   6.839   3.775
36845SOL     OW12367  11.494   1.664   6.796
36845SOL    HW112368  11.530   1.593   6.743
36845SOL    HW212369  11.401   1.643   6.803
36846SOL     OW12370  11.558  14.412   3.209
36846SOL    HW112371  11.498  14.355   3.162
36846SOL    HW212372  11.564  14.491   3.155
36847SOL     OW12373   9.830   1.416   7.432
36847SOL    HW112374   9.910   1.367   7.451
36847SOL    HW212375   9.819   1.406   7.337
36848SOL     OW12376  11.775  13.808  11.112
36848SOL    HW112377  11.828  13.847  11.182
36848SOL    HW212378  11.685  13.821  11.141
36849SOL     OW12379   0.016   7.210   7.810
36849SOL    HW112380   0.092   7.256   7.845
36849SOL    HW212381  14.828   7.278   7.800
36850SOL     OW12382   7.786   3.625   0.052
36850SOL    HW112383   7.840   3.551   0.079
36850SOL    HW212384   7.840   3.702   0.068
36851SOL     OW12385  11.667   3.799  12.118
36851SOL    HW112386  11.734   3.798  12.186
36851SOL    HW212387  11.700   3.738  12.051
36852SOL     OW12388   4.404  11.443  13.736
36852SOL    HW112389   4.476  11.482  13.686
36852SOL    HW212390   4.378  11.367  13.684
36853SOL     OW12391   2.965  13.283  13.378
36853SOL    HW112392   3.014  13.355  13.337
36853SOL    HW212393   2.915  13.245  13.307
36854SOL     OW12394  11.393   4.055   7.297
36854SOL    HW112395  11.331   4.014   7.237
36854SOL    HW212396  11.479   4.042   7.256
36855SOL     OW12397   0.465   6.787  10.179
36855SOL    HW112398   0.438   6.758  10.266
36855SOL    HW212399   0.437   6.878  10.174
36856SOL     OW12400   6.588   5.618   0.623
36856SOL    HW112401   6.632   5.534   0.619
36856SOL    HW212402   6.497   5.597   0.644
36857SOL     OW12403   6.456  11.215   9.043
36857SOL    HW112404   6.418  11.263   9.116
36857SOL    HW212405   6.549  11.236   9.046
36858SOL     OW12406   7.712   5.129  11.270
36858SOL    HW112407   7.801   5.126  11.236
36858SOL    HW212408   7.706   5.055  11.330
36859SOL     OW12409   7.655   3.769   5.010
36859SOL    HW112410   7.672   3.863   5.003
36859SOL    HW212411   7.625   3.744   4.922
36860SOL     OW12412   1.393  11.413   5.193
36860SOL    HW112413   1.370  11.498   5.231
36860SOL    HW212414   1.414  11.433   5.102
36861SOL     OW12415  12.318  10.814   4.747
36861SOL    HW112416  12.233  10.851   4.766
36861SOL    HW212417  12.333  10.750   4.817
36862SOL     OW12418   8.238  10.383   0.108
36862SOL    HW112419   8.238  10.341   0.194
36862SOL    HW212420   8.267  10.472   0.124
36863SOL     OW12421  10.748  10.051   7.181
36863SOL    HW112422  10.768   9.967   7.223
36863SOL    HW212423  10.830  10.099   7.184
36864SOL     OW12424   5.223  10.840  14.862
36864SOL    HW112425   5.302  10.892  14.849
36864SOL    HW212426   5.222  10.820   0.076
36865SOL     OW12427   5.512   3.040  11.090
36865SOL    HW112428   5.511   2.955  11.133
36865SOL    HW212429   5.431   3.083  11.119
36866SOL     OW12430   5.081   3.538   1.941
36866SOL    HW112431   5.166   3.496   1.956
36866SOL    HW212432   5.044   3.492   1.866
36867SOL     OW12433   2.935   0.136   7.445
36867SOL    HW112434   2.986   0.139   7.527
36867SOL    HW212435   2.897   0.048   7.444
36868SOL     OW12436   6.062   4.679   6.708
36868SOL    HW112437   6.155   4.691   6.690
36868SOL    HW212438   6.058   4.667   6.803
36869SOL     OW12439   7.186   0.532   9.808
36869SOL    HW112440   7.262   0.544   9.751
36869SOL    HW212441   7.114   0.510   9.749
36870SOL     OW12442   2.247  11.697   2.392
36870SOL    HW112443   2.236  11.741   2.476
36870SOL    HW212444   2.211  11.610   2.406
36871SOL     OW12445   6.438  12.556  10.672
36871SOL    HW112446   6.394  12.609  10.606
36871SOL    HW212447   6.482  12.487  10.623
36872SOL     OW12448  12.176  10.692  12.575
36872SOL    HW112449  12.256  10.673  12.623
36872SOL    HW212450  12.112  10.713  12.643
36873SOL     OW12451   2.755   1.218   2.967
36873SOL    HW112452   2.715   1.138   2.934
36873SOL    HW212453   2.733   1.220   3.060
36874SOL     OW12454   5.370   4.110  11.237
36874SOL    HW112455   5.306   4.171  11.274
36874SOL    HW212456   5.335   4.089  11.150
36875SOL     OW12457   3.005   4.115   9.029
36875SOL    HW112458   2.923   4.156   9.055
36875SOL    HW212459   2.979   4.034   8.985
36876SOL     OW12460   7.789   4.769  13.723
36876SOL    HW112461   7.838   4.789  13.643
36876SOL    HW212462   7.843   4.803  13.794
36877SOL     OW12463   5.368   1.489   0.975
36877SOL    HW112464   5.286   1.440   0.982
36877SOL    HW212465   5.430   1.441   1.029
36878SOL     OW12466   3.605  12.627  12.563
36878SOL    HW112467   3.511  12.628  12.584
36878SOL    HW212468   3.628  12.720  12.553
36879SOL     OW12469   9.516   4.196   1.410
36879SOL    HW112470   9.593   4.237   1.447
36879SOL    HW212471   9.447   4.261   1.419
36880SOL     OW12472   2.691  12.977   4.270
36880SOL    HW112473   2.675  12.958   4.363
36880SOL    HW212474   2.786  12.984   4.263
36881SOL     OW12475  13.838  10.973  10.916
36881SOL    HW112476  13.826  11.060  10.878
36881SOL    HW212477  13.775  10.918  10.869
36882SOL     OW12478   7.398   4.870   5.261
36882SOL    HW112479   7.319   4.864   5.207
36882SOL    HW212480   7.469   4.846   5.201
36883SOL     OW12481   5.897   8.889  11.238
36883SOL    HW112482   5.850   8.969  11.260
36883SOL    HW212483   5.828   8.828  11.212
36884SOL     OW12484   4.362   7.074   3.230
36884SOL    HW112485   4.410   6.999   3.264
36884SOL    HW212486   4.415   7.106   3.157
36885SOL     OW12487   1.403  11.209  10.172
36885SOL    HW112488   1.350  11.242  10.245
36885SOL    HW212489   1.345  11.215  10.096
36886SOL     OW12490   1.293   5.813  14.362
36886SOL    HW112491   1.316   5.815  14.455
36886SOL    HW212492   1.203   5.781  14.360
36887SOL     OW12493   3.482   6.369  14.579
36887SOL    HW112494   3.492   6.460  14.550
36887SOL    HW212495   3.407   6.336  14.529
36888SOL     OW12496   1.041   8.558  10.707
36888SOL    HW112497   1.064   8.474  10.666
36888SOL    HW212498   1.091   8.623  10.657
36889SOL     OW12499   7.833   6.676  13.062
36889SOL    HW112500   7.880   6.725  13.130
36889SOL    HW212501   7.902   6.648  13.002
36890SOL     OW12502   3.578   2.296  10.507
36890SOL    HW112503   3.563   2.320  10.598
36890SOL    HW212504   3.506   2.235  10.487
36891SOL     OW12505   6.968  13.651  12.500
36891SOL    HW112506   6.906  13.579  12.509
36891SOL    HW212507   7.025  13.644  12.576
36892SOL     OW12508   4.340  11.320  11.800
36892SOL    HW112509   4.281  11.394  11.817
36892SOL    HW212510   4.388  11.344  11.721
36893SOL     OW12511   9.727   8.667   4.746
36893SOL    HW112512   9.781   8.682   4.824
36893SOL    HW212513   9.776   8.603   4.694
36894SOL     OW12514  12.737  10.249   3.013
36894SOL    HW112515  12.778  10.268   3.097
36894SOL    HW212516  12.806  10.208   2.961
36895SOL     OW12517  11.125   9.538  10.327
36895SOL    HW112518  11.067   9.508  10.396
36895SOL    HW212519  11.079   9.612  10.287
36896SOL     OW12520   5.133   3.143  12.574
36896SOL    HW112521   5.208   3.093  12.607
36896SOL    HW212522   5.075   3.153  12.649
36897SOL     OW12523  12.656   4.798  10.814
36897SOL    HW112524  12.618   4.759  10.735
36897SOL    HW212525  12.744   4.760  10.819
36898SOL     OW12526   7.259  13.851   1.562
36898SOL    HW112527   7.317  13.884   1.493
36898SOL    HW212528   7.250  13.925   1.623
36899SOL     OW12529   9.554   4.711   2.310
36899SOL    HW112530   9.620   4.667   2.364
36899SOL    HW212531   9.575   4.685   2.220
36900SOL     OW12532   8.754  14.018   9.046
36900SOL    HW112533   8.807  14.092   9.077
36900SOL    HW212534   8.668  14.056   9.027
36901SOL     OW12535  11.185   1.090  12.667
36901SOL    HW112536  11.198   1.041  12.585
36901SOL    HW212537  11.107   1.051  12.705
36902SOL     OW12538  10.087   4.020  13.768
36902SOL    HW112539  10.007   4.049  13.813
36902SOL    HW212540  10.059   4.001  13.678
36903SOL     OW12541   4.380   9.216   0.113
36903SOL    HW112542   4.465   9.260   0.122
36903SOL    HW212543   4.401   9.133   0.071
36904SOL     OW12544   8.853  10.853  13.055
36904SOL    HW112545   8.905  10.896  12.987
36904SOL    HW212546   8.909  10.781  13.085
36905SOL     OW12547  10.296   4.498  11.585
36905SOL    HW112548  10.335   4.557  11.650
36905SOL    HW212549  10.365   4.484  11.520
36906SOL     OW12550  10.114   2.930  13.647
36906SOL    HW112551  10.038   2.887  13.607
36906SOL    HW212552  10.152   2.864  13.705
36907SOL     OW12553   3.721   1.967  10.431
36907SOL    HW112554   3.812   1.978  10.405
36907SOL    HW212555   3.722   1.970  10.526
36908SOL     OW12556  13.166   5.082   0.776
36908SOL    HW112557  13.125   5.163   0.744
36908SOL    HW212558  13.225   5.055   0.705
36909SOL     OW12559   0.329   8.200   3.005
36909SOL    HW112560   0.387   8.152   2.946
36909SOL    HW212561   0.387   8.245   3.065
36910SOL     OW12562  13.188   7.408   3.304
36910SOL    HW112563  13.251   7.375   3.240
36910SOL    HW212564  13.220   7.496   3.326
36911SOL     OW12565   1.819   6.058   6.641
36911SOL    HW112566   1.851   5.971   6.616
36911SOL    HW212567   1.742   6.072   6.585
36912SOL     OW12568   9.944   0.665  13.077
36912SOL    HW112569  10.012   0.598  13.072
36912SOL    HW212570   9.881   0.640  13.009
36913SOL     OW12571  10.149  11.461  10.980
36913SOL    HW112572  10.100  11.379  10.976
36913SOL    HW212573  10.163  11.485  10.888
36914SOL     OW12574  11.357   9.059  12.383
36914SOL    HW112575  11.414   9.026  12.314
36914SOL    HW212576  11.393   9.020  12.463
36915SOL     OW12577   3.281  12.114   7.652
36915SOL    HW112578   3.359  12.169   7.652
36915SOL    HW212579   3.263  12.099   7.559
36916SOL     OW12580  13.679  11.389   1.182
36916SOL    HW112581  13.764  11.355   1.212
36916SOL    HW212582  13.702  11.456   1.118
36917SOL     OW12583  13.957  11.975  11.151
36917SOL    HW112584  14.042  11.933  11.140
36917SOL    HW212585  13.900  11.930  11.089
36918SOL     OW12586   1.938  12.414   7.359
36918SOL    HW112587   2.015  12.434   7.305
36918SOL    HW212588   1.954  12.461   7.440
36919SOL     OW12589   6.462   1.000   3.706
36919SOL    HW112590   6.480   0.907   3.712
36919SOL    HW212591   6.443   1.028   3.795
36920SOL     OW12592  12.588  12.985  12.208
36920SOL    HW112593  12.681  13.003  12.193
36920SOL    HW212594  12.543  13.036  12.141
36921SOL     OW12595   3.886  10.844   3.072
36921SOL    HW112596   3.799  10.885   3.066
36921SOL    HW212597   3.939  10.907   3.121
36922SOL     OW12598   6.135   0.124   6.543
36922SOL    HW112599   6.137   0.041   6.590
36922SOL    HW212600   6.128   0.098   6.451
36923SOL     OW12601  10.851   4.504  14.010
36923SOL    HW112602  10.761   4.488  14.037
36923SOL    HW212603  10.861   4.600  14.015
36924SOL     OW12604  14.497   3.099   0.174
36924SOL    HW112605  14.550   3.084   0.253
36924SOL    HW212606  14.561   3.098   0.102
36925SOL     OW12607  10.427   1.890   5.111
36925SOL    HW112608  10.349   1.945   5.112
36925SOL    HW212609  10.472   1.910   5.193
36926SOL     OW12610  10.299   5.030   1.252
36926SOL    HW112611  10.224   5.006   1.307
36926SOL    HW212612  10.345   4.948   1.237
36927SOL     OW12613  11.419   9.833  13.150
36927SOL    HW112614  11.461   9.749  13.171
36927SOL    HW212615  11.333   9.828  13.191
36928SOL     OW12616  14.418  12.983   2.516
36928SOL    HW112617  14.423  13.077   2.496
36928SOL    HW212618  14.493  12.945   2.470
36929SOL     OW12619   5.438   9.065  14.688
36929SOL    HW112620   5.387   9.072  14.607
36929SOL    HW212621   5.412   9.142  14.739
36930SOL     OW12622   8.911   1.488   4.250
36930SOL    HW112623   8.977   1.513   4.314
36930SOL    HW212624   8.840   1.450   4.302
36931SOL     OW12625  11.064   0.663   3.223
36931SOL    HW112626  11.126   0.698   3.287
36931SOL    HW212627  10.984   0.715   3.236
36932SOL     OW12628   6.259  14.855   5.055
36932SOL    HW112629   6.236   0.050   4.999
36932SOL    HW212630   6.294   0.016   5.135
36933SOL     OW12631  12.538   2.513  14.095
36933SOL    HW112632  12.575   2.437  14.051
36933SOL    HW212633  12.446   2.491  14.108
36934SOL     OW12634   4.836   6.653  14.029
36934SOL    HW112635   4.907   6.589  14.020
36934SOL    HW212636   4.832   6.671  14.123
36935SOL     OW12637  13.604  10.552   8.634
36935SOL    HW112638  13.586  10.552   8.540
36935SOL    HW212639  13.555  10.478   8.668
36936SOL     OW12640  13.777   9.575  10.479
36936SOL    HW112641  13.718   9.547  10.408
36936SOL    HW212642  13.730   9.551  10.559
36937SOL     OW12643   7.789   8.277   7.780
36937SOL    HW112644   7.721   8.335   7.815
36937SOL    HW212645   7.744   8.223   7.715
36938SOL     OW12646   0.193  12.683   0.152
36938SOL    HW112647   0.129  12.687   0.081
36938SOL    HW212648   0.174  12.600   0.196
36939SOL     OW12649   8.916   2.251   8.092
36939SOL    HW112650   8.941   2.344   8.088
36939SOL    HW212651   8.858   2.245   8.168
36940SOL     OW12652  14.811   2.499   6.218
36940SOL    HW112653  14.851   2.549   6.147
36940SOL    HW212654  14.735   2.457   6.179
36941SOL     OW12655   5.895   4.797   9.802
36941SOL    HW112656   5.834   4.771   9.870
36941SOL    HW212657   5.911   4.717   9.752
36942SOL     OW12658   8.187   6.255   5.114
36942SOL    HW112659   8.262   6.283   5.062
36942SOL    HW212660   8.111   6.276   5.059
36943SOL     OW12661   8.815   1.996   7.980
36943SOL    HW112662   8.775   2.042   7.906
36943SOL    HW212663   8.858   2.066   8.030
36944SOL     OW12664  13.535  11.433   4.241
36944SOL    HW112665  13.563  11.341   4.240
36944SOL    HW212666  13.574  11.468   4.322
36945SOL     OW12667   0.715   5.811   7.573
36945SOL    HW112668   0.669   5.819   7.489
36945SOL    HW212669   0.790   5.755   7.553
36946SOL     OW12670  12.691  14.613   8.261
36946SOL    HW112671  12.646  14.547   8.209
36946SOL    HW212672  12.628  14.639   8.328
36947SOL     OW12673   4.755   3.925  13.967
36947SOL    HW112674   4.691   3.889  13.905
36947SOL    HW212675   4.805   3.849  13.997
36948SOL     OW12676   4.472  12.558   8.180
36948SOL    HW112677   4.518  12.638   8.204
36948SOL    HW212678   4.464  12.562   8.085
36949SOL     OW12679   7.216   2.691   9.042
36949SOL    HW112680   7.293   2.727   9.086
36949SOL    HW212681   7.239   2.693   8.949
36950SOL     OW12682   7.110  12.392  10.928
36950SOL    HW112683   7.045  12.453  10.963
36950SOL    HW212684   7.193  12.439  10.935
36951SOL     OW12685   6.055   5.216   0.013
36951SOL    HW112686   6.039   5.134  14.846
36951SOL    HW212687   5.987   5.275  14.861
36952SOL     OW12688   8.289   0.294  14.807
36952SOL    HW112689   8.350   0.298  14.734
36952SOL    HW212690   8.344   0.302   0.006
36953SOL     OW12691   0.317   6.011   6.127
36953SOL    HW112692   0.379   6.067   6.174
36953SOL    HW212693   0.344   5.921   6.148
36954SOL     OW12694  10.782  12.728  11.525
36954SOL    HW112695  10.703  12.781  11.513
36954SOL    HW212696  10.797  12.729  11.619
36955SOL     OW12697  14.878   0.880  14.625
36955SOL    HW112698  14.855   0.896  14.533
36955SOL    HW212699  14.802   0.836  14.661
36956SOL     OW12700   4.064   0.366  14.710
36956SOL    HW112701   4.061   0.307  14.635
36956SOL    HW212702   3.973   0.377  14.736
36957SOL     OW12703   9.986   4.144   2.508
36957SOL    HW112704   9.977   4.061   2.460
36957SOL    HW212705   9.962   4.122   2.598
36958SOL     OW12706   7.261   9.088  11.157
36958SOL    HW112707   7.291   9.175  11.180
36958SOL    HW212708   7.199   9.065  11.226
36959SOL     OW12709  10.198   9.726  10.681
36959SOL    HW112710  10.149   9.805  10.657
36959SOL    HW212711  10.220   9.738  10.773
36960SOL     OW12712   7.432   5.725  10.496
36960SOL    HW112713   7.453   5.781  10.421
36960SOL    HW212714   7.336   5.726  10.500
36961SOL     OW12715   1.720   3.876  14.257
36961SOL    HW112716   1.639   3.899  14.304
36961SOL    HW212717   1.695   3.878  14.165
36962SOL     OW12718   5.875  13.234   8.932
36962SOL    HW112719   5.891  13.156   8.879
36962SOL    HW212720   5.960  13.253   8.972
36963SOL     OW12721   3.540   2.550  10.105
36963SOL    HW112722   3.597   2.548  10.182
36963SOL    HW212723   3.525   2.458  10.084
36964SOL     OW12724   4.802  14.633  13.552
36964SOL    HW112725   4.730  14.690  13.578
36964SOL    HW212726   4.879  14.668  13.597
36965SOL     OW12727  13.063  13.744   5.700
36965SOL    HW112728  13.057  13.742   5.796
36965SOL    HW212729  13.101  13.830   5.681
36966SOL     OW12730   7.275  13.483  12.191
36966SOL    HW112731   7.246  13.539  12.119
36966SOL    HW212732   7.304  13.402  12.149
36967SOL     OW12733   6.452   3.679   4.208
36967SOL    HW112734   6.519   3.713   4.149
36967SOL    HW212735   6.388   3.750   4.215
36968SOL     OW12736  10.154   1.827   8.054
36968SOL    HW112737  10.110   1.760   8.106
36968SOL    HW212738  10.116   1.818   7.967
36969SOL     OW12739  11.132  13.770   4.769
36969SOL    HW112740  11.125  13.693   4.826
36969SOL    HW212741  11.050  13.818   4.783
36970SOL     OW12742  13.767   9.439  11.039
36970SOL    HW112743  13.746   9.346  11.053
36970SOL    HW212744  13.684   9.478  11.013
36971SOL     OW12745   8.922   4.994  14.046
36971SOL    HW112746   8.880   5.073  14.078
36971SOL    HW212747   9.015   5.017  14.039
36972SOL     OW12748   9.424   8.827   5.339
36972SOL    HW112749   9.350   8.810   5.396
36972SOL    HW212750   9.449   8.917   5.359
36973SOL     OW12751   6.972   2.950  12.161
36973SOL    HW112752   7.001   2.912  12.078
36973SOL    HW212753   6.878   2.965  12.149
36974SOL     OW12754  13.450  11.663   1.682
36974SOL    HW112755  13.435  11.744   1.633
36974SOL    HW212756  13.530  11.627   1.643
36975SOL     OW12757   2.545   4.678  14.025
36975SOL    HW112758   2.548   4.675  13.929
36975SOL    HW212759   2.453   4.665  14.046
36976SOL     OW12760   7.726   6.141   3.044
36976SOL    HW112761   7.731   6.151   2.949
36976SOL    HW212762   7.770   6.058   3.063
36977SOL     OW12763   0.704   6.527   8.070
36977SOL    HW112764   0.671   6.606   8.027
36977SOL    HW212765   0.625   6.477   8.093
36978SOL     OW12766   1.405   5.312  13.603
36978SOL    HW112767   1.345   5.252  13.647
36978SOL    HW212768   1.424   5.270  13.520
36979SOL     OW12769  13.812   7.832   7.931
36979SOL    HW112770  13.852   7.919   7.931
36979SOL    HW212771  13.777   7.822   8.019
36980SOL     OW12772   8.285   2.240   9.781
36980SOL    HW112773   8.273   2.166   9.721
36980SOL    HW212774   8.228   2.219   9.856
36981SOL     OW12775  11.058   9.017  11.574
36981SOL    HW112776  11.033   8.957  11.644
36981SOL    HW212777  11.090   8.961  11.504
36982SOL     OW12778  14.720   8.022  12.606
36982SOL    HW112779  14.632   7.984  12.609
36982SOL    HW212780  14.716   8.087  12.535
36983SOL     OW12781   1.889   7.854   4.142
36983SOL    HW112782   1.843   7.803   4.209
36983SOL    HW212783   1.964   7.892   4.187
36984SOL     OW12784   7.553  10.438  13.685
36984SOL    HW112785   7.565  10.344  13.698
36984SOL    HW212786   7.502  10.444  13.604
36985SOL     OW12787  13.514   7.599  11.599
36985SOL    HW112788  13.514   7.543  11.677
36985SOL    HW212789  13.422   7.621  11.585
36986SOL     OW12790   4.841   4.350   3.191
36986SOL    HW112791   4.817   4.258   3.179
36986SOL    HW212792   4.759   4.394   3.208
36987SOL     OW12793  11.104   0.010   9.997
36987SOL    HW112794  11.091   0.029  10.090
36987SOL    HW212795  11.162  14.813   9.997
36988SOL     OW12796   2.029   7.446  10.523
36988SOL    HW112797   2.115   7.486  10.513
36988SOL    HW212798   2.033   7.398  10.606
36989SOL     OW12799   0.465  12.818  10.789
36989SOL    HW112800   0.529  12.820  10.861
36989SOL    HW212801   0.505  12.762  10.723
36990SOL     OW12802  13.167   3.612   5.015
36990SOL    HW112803  13.183   3.587   4.923
36990SOL    HW212804  13.228   3.558   5.065
36991SOL     OW12805  13.952   5.965   7.379
36991SOL    HW112806  14.035   5.931   7.412
36991SOL    HW212807  13.940   5.922   7.294
36992SOL     OW12808   8.234   6.885   5.738
36992SOL    HW112809   8.244   6.930   5.654
36992SOL    HW212810   8.247   6.954   5.803
36993SOL     OW12811  12.420   6.362   9.782
36993SOL    HW112812  12.502   6.410   9.794
36993SOL    HW212813  12.444   6.286   9.729
36994SOL     OW12814   1.368   3.662   1.467
36994SOL    HW112815   1.361   3.651   1.562
36994SOL    HW212816   1.388   3.755   1.455
36995SOL     OW12817  12.107   6.687   6.700
36995SOL    HW112818  12.069   6.607   6.737
36995SOL    HW212819  12.088   6.754   6.765
36996SOL     OW12820   9.988  10.359   3.219
36996SOL    HW112821   9.938  10.385   3.142
36996SOL    HW212822  10.045  10.434   3.237
36997SOL     OW12823   3.063   1.384   6.952
36997SOL    HW112824   3.016   1.302   6.938
36997SOL    HW212825   2.997   1.443   6.988
36998SOL     OW12826  12.740   0.575  11.799
36998SOL    HW112827  12.763   0.487  11.830
36998SOL    HW212828  12.709   0.562  11.709
36999SOL     OW12829   4.189  12.170   9.406
36999SOL    HW112830   4.105  12.215   9.406
36999SOL    HW212831   4.254  12.240   9.412
37000SOL     OW12832   8.319  12.528   9.370
37000SOL    HW112833   8.316  12.432   9.361
37000SOL    HW212834   8.227  12.555   9.370
37001SOL     OW12835  13.364  13.796   3.604
37001SOL    HW112836  13.387  13.883   3.569
37001SOL    HW212837  13.303  13.815   3.675
37002SOL     OW12838   2.561   5.709   0.589
37002SOL    HW112839   2.559   5.615   0.575
37002SOL    HW212840   2.509   5.745   0.518
37003SOL     OW12841  13.064   5.092  12.718
37003SOL    HW112842  13.091   5.032  12.787
37003SOL    HW212843  13.048   5.175  12.763
37004SOL     OW12844  13.506   9.916  13.691
37004SOL    HW112845  13.538   9.990  13.640
37004SOL    HW212846  13.539   9.838  13.645
37005SOL     OW12847   6.655   8.588   5.326
37005SOL    HW112848   6.647   8.682   5.311
37005SOL    HW212849   6.692   8.553   5.245
37006SOL     OW12850  11.983   9.034   2.881
37006SOL    HW112851  11.990   8.939   2.886
37006SOL    HW212852  12.030   9.066   2.958
37007SOL     OW12853  13.229  11.941   9.768
37007SOL    HW112854  13.298  11.876   9.757
37007SOL    HW212855  13.223  11.983   9.682
37008SOL     OW12856  10.240   7.053   6.809
37008SOL    HW112857  10.267   6.968   6.844
37008SOL    HW212858  10.162   7.034   6.757
37009SOL     OW12859   0.041   3.090   5.625
37009SOL    HW112860  14.849   3.105   5.687
37009SOL    HW212861   0.109   3.152   5.651
37010SOL     OW12862   9.796  13.631   5.653
37010SOL    HW112863   9.884  13.655   5.623
37010SOL    HW212864   9.737  13.685   5.599
37011SOL     OW12865  12.682  11.394   4.767
37011SOL    HW112866  12.755  11.414   4.708
37011SOL    HW212867  12.621  11.344   4.714
37012SOL     OW12868   8.978   8.541   6.611
37012SOL    HW112869   9.038   8.594   6.665
37012SOL    HW212870   8.971   8.589   6.529
37013SOL     OW12871   0.965  14.491  12.729
37013SOL    HW112872   0.940  14.548  12.802
37013SOL    HW212873   0.978  14.405  12.769
37014SOL     OW12874   5.802   4.006  11.105
37014SOL    HW112875   5.816   4.037  11.015
37014SOL    HW212876   5.869   3.938  11.116
37015SOL     OW12877  14.134  10.967   0.568
37015SOL    HW112878  14.067  11.015   0.519
37015SOL    HW212879  14.216  10.988   0.524
37016SOL     OW12880  13.548   1.297  12.915
37016SOL    HW112881  13.596   1.331  12.991
37016SOL    HW212882  13.459   1.286  12.946
37017SOL     OW12883   6.695   3.785   0.675
37017SOL    HW112884   6.753   3.798   0.600
37017SOL    HW212885   6.712   3.860   0.732
37018SOL     OW12886   2.524  14.578  12.132
37018SOL    HW112887   2.582  14.508  12.102
37018SOL    HW212888   2.535  14.647  12.067
37019SOL     OW12889  13.298  13.952   2.623
37019SOL    HW112890  13.359  13.922   2.555
37019SOL    HW212891  13.217  13.970   2.576
37020SOL     OW12892   6.523   2.441   7.733
37020SOL    HW112893   6.545   2.350   7.709
37020SOL    HW212894   6.559   2.451   7.821
37021SOL     OW12895  10.828   5.410   5.480
37021SOL    HW112896  10.810   5.485   5.537
37021SOL    HW212897  10.876   5.447   5.406
37022SOL     OW12898   1.042   4.556   7.861
37022SOL    HW112899   1.039   4.585   7.952
37022SOL    HW212900   1.027   4.462   7.865
37023SOL     OW12901   5.981  12.584   5.176
37023SOL    HW112902   6.015  12.568   5.088
37023SOL    HW212903   5.989  12.500   5.221
37024SOL     OW12904  10.845  13.940   0.830
37024SOL    HW112905  10.789  13.907   0.760
37024SOL    HW212906  10.851  13.866   0.892
37025SOL     OW12907   4.188   8.894  13.877
37025SOL    HW112908   4.231   8.856  13.954
37025SOL    HW212909   4.095   8.883  13.894
37026SOL     OW12910   3.685   8.131  12.222
37026SOL    HW112911   3.630   8.182  12.282
37026SOL    HW212912   3.773   8.136  12.260
37027SOL     OW12913   6.830   9.623  11.417
37027SOL    HW112914   6.789   9.672  11.488
37027SOL    HW212915   6.778   9.645  11.339
37028SOL     OW12916   4.287   4.219  12.543
37028SOL    HW112917   4.378   4.190  12.538
37028SOL    HW212918   4.237   4.145  12.510
37029SOL     OW12919   0.137   0.785  13.493
37029SOL    HW112920   0.067   0.752  13.549
37029SOL    HW212921   0.187   0.707  13.468
37030SOL     OW12922   7.166  12.953  12.169
37030SOL    HW112923   7.117  13.016  12.223
37030SOL    HW212924   7.194  12.886  12.231
37031SOL     OW12925   3.918  10.861   7.270
37031SOL    HW112926   3.839  10.894   7.226
37031SOL    HW212927   3.968  10.817   7.200
37032SOL     OW12928  12.992  13.526  11.781
37032SOL    HW112929  12.987  13.504  11.688
37032SOL    HW212930  12.948  13.610  11.788
37033SOL     OW12931   6.441  10.448  14.450
37033SOL    HW112932   6.429  10.467  14.543
37033SOL    HW212933   6.535  10.456  14.437
37034SOL     OW12934   6.037   9.643   1.663
37034SOL    HW112935   6.013   9.669   1.752
37034SOL    HW212936   6.092   9.565   1.675
37035SOL     OW12937   0.959   8.657   3.841
37035SOL    HW112938   1.054   8.646   3.833
37035SOL    HW212939   0.941   8.641   3.934
37036SOL     OW12940   2.461   7.530   6.092
37036SOL    HW112941   2.372   7.517   6.126
37036SOL    HW212942   2.449   7.539   5.997
37037SOL     OW12943   6.135   7.470   3.105
37037SOL    HW112944   6.172   7.382   3.108
37037SOL    HW212945   6.069   7.471   3.175
37038SOL     OW12946   4.915   8.370   8.395
37038SOL    HW112947   4.830   8.332   8.416
37038SOL    HW212948   4.896   8.429   8.322
37039SOL     OW12949   8.812   3.015   7.246
37039SOL    HW112950   8.897   2.984   7.277
37039SOL    HW212951   8.817   3.007   7.151
37040SOL     OW12952  12.868   9.762   2.512
37040SOL    HW112953  12.876   9.857   2.506
37040SOL    HW212954  12.814   9.748   2.590
37041SOL     OW12955  12.989   9.166   1.700
37041SOL    HW112956  12.989   9.083   1.653
37041SOL    HW212957  12.911   9.162   1.755
37042SOL     OW12958   1.687   0.728  11.590
37042SOL    HW112959   1.745   0.794  11.553
37042SOL    HW212960   1.736   0.691  11.663
37043SOL     OW12961   0.203   7.439   8.386
37043SOL    HW112962   0.296   7.458   8.393
37043SOL    HW212963   0.165   7.471   8.468
37044SOL     OW12964  14.790   0.911   6.824
37044SOL    HW112965  14.855   0.896   6.755
37044SOL    HW212966  14.764   1.003   6.812
37045SOL     OW12967   3.048  11.224   1.888
37045SOL    HW112968   3.006  11.151   1.932
37045SOL    HW212969   2.975  11.281   1.861
37046SOL     OW12970   7.941   4.380   8.382
37046SOL    HW112971   7.893   4.442   8.438
37046SOL    HW212972   8.009   4.433   8.340
37047SOL     OW12973  12.302   3.856   1.184
37047SOL    HW112974  12.226   3.813   1.146
37047SOL    HW212975  12.365   3.862   1.112
37048SOL     OW12976   5.237   7.076   6.251
37048SOL    HW112977   5.248   7.157   6.201
37048SOL    HW212978   5.194   7.103   6.332
37049SOL     OW12979  13.502   3.448   9.775
37049SOL    HW112980  13.595   3.424   9.774
37049SOL    HW212981  13.459   3.378   9.726
37050SOL     OW12982  13.077  13.194   6.826
37050SOL    HW112983  13.078  13.121   6.765
37050SOL    HW212984  13.002  13.247   6.799
37051SOL     OW12985  14.429  11.565   2.059
37051SOL    HW112986  14.437  11.474   2.028
37051SOL    HW212987  14.364  11.561   2.129
37052SOL     OW12988  10.425   3.319   0.440
37052SOL    HW112989  10.362   3.303   0.511
37052SOL    HW212990  10.479   3.240   0.437
37053SOL     OW12991   8.043   6.998  14.274
37053SOL    HW112992   8.098   6.966  14.203
37053SOL    HW212993   7.971   7.045  14.230
37054SOL     OW12994   3.418  11.236  11.567
37054SOL    HW112995   3.463  11.306  11.520
37054SOL    HW212996   3.432  11.158  11.513
37055SOL     OW12997   0.217  10.917  12.368
37055SOL    HW112998   0.135  10.964  12.378
37055SOL    HW212999   0.222  10.896  12.274
37056SOL     OW13000   5.501   3.997  12.419
37056SOL    HW113001   5.451   3.916  12.411
37056SOL    HW213002   5.455   4.048  12.485
37057SOL     OW13003   9.887  11.663   6.998
37057SOL    HW113004   9.886  11.723   6.924
37057SOL    HW213005   9.977  11.663   7.029
37058SOL     OW13006  11.340   6.549   5.649
37058SOL    HW113007  11.373   6.547   5.739
37058SOL    HW213008  11.313   6.640   5.636
37059SOL     OW13009  11.866  13.450   0.822
37059SOL    HW113010  11.871  13.490   0.735
37059SOL    HW213011  11.785  13.400   0.821
37060SOL     OW13012   7.236  12.974   0.369
37060SOL    HW113013   7.320  13.008   0.337
37060SOL    HW213014   7.222  13.019   0.452
37061SOL     OW13015  11.292   8.225  10.250
37061SOL    HW113016  11.215   8.236  10.304
37061SOL    HW213017  11.327   8.139  10.274
37062SOL     OW13018   0.403  13.107   3.424
37062SOL    HW113019   0.334  13.055   3.383
37062SOL    HW213020   0.421  13.177   3.362
37063SOL     OW13021   2.261   7.134   1.815
37063SOL    HW113022   2.340   7.081   1.807
37063SOL    HW213023   2.214   7.096   1.889
37064SOL     OW13024   0.938   8.042  10.165
37064SOL    HW113025   0.991   7.975  10.208
37064SOL    HW213026   0.888   8.081  10.237
37065SOL     OW13027  13.940  11.621   8.084
37065SOL    HW113028  13.887  11.663   8.152
37065SOL    HW213029  13.961  11.534   8.120
37066SOL     OW13030   1.754   0.719   6.329
37066SOL    HW113031   1.752   0.726   6.233
37066SOL    HW213032   1.717   0.802   6.359
37067SOL     OW13033   2.905  11.209   6.778
37067SOL    HW113034   2.878  11.202   6.687
37067SOL    HW213035   2.898  11.302   6.799
37068SOL     OW13036   2.793   2.381   1.878
37068SOL    HW113037   2.772   2.398   1.786
37068SOL    HW213038   2.743   2.303   1.901
37069SOL     OW13039   2.923   1.563   4.803
37069SOL    HW113040   2.899   1.606   4.721
37069SOL    HW213041   2.876   1.480   4.801
37070SOL     OW13042   6.555  13.321  13.686
37070SOL    HW113043   6.549  13.251  13.751
37070SOL    HW213044   6.519  13.398  13.730
37071SOL     OW13045  13.803  11.198   9.020
37071SOL    HW113046  13.807  11.103   9.008
37071SOL    HW213047  13.791  11.234   8.933
37072SOL     OW13048  11.188   9.442  12.879
37072SOL    HW113049  11.195   9.535  12.859
37072SOL    HW213050  11.195   9.398  12.795
37073SOL     OW13051   9.588  13.375   9.477
37073SOL    HW113052   9.671  13.327   9.469
37073SOL    HW213053   9.530  13.315   9.523
37074SOL     OW13054  14.484  10.410   2.398
37074SOL    HW113055  14.406  10.418   2.453
37074SOL    HW213056  14.558  10.424   2.457
37075SOL     OW13057  13.851   9.280  14.736
37075SOL    HW113058  13.773   9.324  14.701
37075SOL    HW213059  13.829   9.263  14.828
37076SOL     OW13060  12.668  11.704   2.560
37076SOL    HW113061  12.642  11.770   2.625
37076SOL    HW213062  12.762  11.716   2.550
37077SOL     OW13063   4.214   4.491   9.905
37077SOL    HW113064   4.212   4.452   9.993
37077SOL    HW213065   4.184   4.421   9.847
37078SOL     OW13066  12.070   9.050   8.219
37078SOL    HW113067  12.028   9.132   8.193
37078SOL    HW213068  12.160   9.058   8.190
37079SOL     OW13069  13.059   2.652   9.377
37079SOL    HW113070  13.085   2.567   9.411
37079SOL    HW213071  13.079   2.647   9.283
37080SOL     OW13072   2.014  14.736   7.918
37080SOL    HW113073   1.944  14.789   7.881
37080SOL    HW213074   2.040  14.782   7.998
37081SOL     OW13075  10.722   0.575   4.471
37081SOL    HW113076  10.696   0.580   4.380
37081SOL    HW213077  10.658   0.629   4.518
37082SOL     OW13078   4.286  14.519  12.104
37082SOL    HW113079   4.213  14.465  12.134
37082SOL    HW213080   4.284  14.513  12.009
37083SOL     OW13081   2.271   8.478  14.552
37083SOL    HW113082   2.320   8.423  14.613
37083SOL    HW213083   2.179   8.456  14.569
37084SOL     OW13084   5.527   4.900  10.639
37084SOL    HW113085   5.472   4.850  10.700
37084SOL    HW213086   5.606   4.920  10.689
37085SOL     OW13087   9.286   4.426   0.811
37085SOL    HW113088   9.337   4.485   0.866
37085SOL    HW213089   9.327   4.431   0.725
37086SOL     OW13090  13.433   2.268   7.232
37086SOL    HW113091  13.508   2.323   7.212
37086SOL    HW213092  13.438   2.196   7.170
37087SOL     OW13093   7.267   7.909   1.430
37087SOL    HW113094   7.308   7.852   1.495
37087SOL    HW213095   7.224   7.977   1.481
37088SOL     OW13096   4.866  14.396   0.497
37088SOL    HW113097   4.821  14.343   0.432
37088SOL    HW213098   4.802  14.462   0.523
37089SOL     OW13099  12.160   0.110   8.147
37089SOL    HW113100  12.096   0.180   8.156
37089SOL    HW213101  12.203   0.127   8.063
37090SOL     OW13102  10.252   0.344   6.010
37090SOL    HW113103  10.344   0.367   5.997
37090SOL    HW213104  10.226   0.392   6.089
37091SOL     OW13105  12.078  13.223   5.145
37091SOL    HW113106  12.124  13.170   5.210
37091SOL    HW213107  12.099  13.313   5.169
37092SOL     OW13108   4.598  13.572   0.771
37092SOL    HW113109   4.609  13.646   0.712
37092SOL    HW213110   4.667  13.511   0.745
37093SOL     OW13111  10.946   3.218   2.867
37093SOL    HW113112  10.880   3.234   2.800
37093SOL    HW213113  10.980   3.305   2.889
37094SOL     OW13114  11.479   0.345   0.796
37094SOL    HW113115  11.556   0.394   0.823
37094SOL    HW213116  11.405   0.401   0.819
37095SOL     OW13117   5.018   4.885  14.270
37095SOL    HW113118   4.951   4.829  14.231
37095SOL    HW213119   5.091   4.825  14.288
37096SOL     OW13120  13.463  13.299  12.268
37096SOL    HW113121  13.511  13.375  12.300
37096SOL    HW213122  13.427  13.327  12.184
37097SOL     OW13123   7.233  14.129  12.881
37097SOL    HW113124   7.313  14.106  12.928
37097SOL    HW213125   7.259  14.201  12.823
37098SOL     OW13126  13.015   8.486  10.713
37098SOL    HW113127  12.931   8.507  10.672
37098SOL    HW213128  13.061   8.570  10.717
37099SOL     OW13129   1.449   1.874   7.471
37099SOL    HW113130   1.495   1.913   7.545
37099SOL    HW213131   1.448   1.942   7.404
37100SOL     OW13132  12.495   3.239   0.688
37100SOL    HW113133  12.524   3.148   0.687
37100SOL    HW213134  12.541   3.278   0.763
37101SOL     OW13135   4.429   2.287  11.975
37101SOL    HW113136   4.352   2.309  12.026
37101SOL    HW213137   4.472   2.371  11.958
37102SOL     OW13138   7.266  12.353  13.542
37102SOL    HW113139   7.352  12.315  13.522
37102SOL    HW213140   7.237  12.392  13.459
37103SOL     OW13141   1.208  12.589   4.103
37103SOL    HW113142   1.204  12.496   4.083
37103SOL    HW213143   1.272  12.624   4.041
37104SOL     OW13144  10.326   2.731   4.131
37104SOL    HW113145  10.410   2.755   4.170
37104SOL    HW213146  10.264   2.793   4.169
37105SOL     OW13147   2.720  13.549   7.758
37105SOL    HW113148   2.802  13.500   7.764
37105SOL    HW213149   2.664  13.512   7.826
37106SOL     OW13150   8.626  10.033  12.436
37106SOL    HW113151   8.616   9.960  12.498
37106SOL    HW213152   8.692  10.001  12.374
37107SOL     OW13153   8.216   0.604   0.268
37107SOL    HW113154   8.234   0.596   0.175
37107SOL    HW213155   8.302   0.600   0.310
37108SOL     OW13156   1.399   7.585   0.440
37108SOL    HW113157   1.377   7.676   0.462
37108SOL    HW213158   1.350   7.533   0.503
37109SOL     OW13159   4.484   7.388   9.453
37109SOL    HW113160   4.564   7.440   9.443
37109SOL    HW213161   4.489   7.354   9.542
37110SOL     OW13162   8.856  12.694   0.695
37110SOL    HW113163   8.885  12.709   0.605
37110SOL    HW213164   8.931  12.718   0.749
37111SOL     OW13165   3.358   9.675  11.634
37111SOL    HW113166   3.336   9.658  11.542
37111SOL    HW213167   3.373   9.770  11.637
37112SOL     OW13168   2.746   7.264  13.019
37112SOL    HW113169   2.737   7.182  12.971
37112SOL    HW213170   2.664   7.271  13.069
37113SOL     OW13171   3.228   1.109   5.203
37113SOL    HW113172   3.212   1.184   5.145
37113SOL    HW213173   3.143   1.092   5.243
37114SOL     OW13174   9.780  11.904   8.760
37114SOL    HW113175   9.780  11.996   8.733
37114SOL    HW213176   9.873  11.881   8.766
37115SOL     OW13177  14.433   7.465   4.241
37115SOL    HW113178  14.489   7.505   4.307
37115SOL    HW213179  14.482   7.388   4.211
37116SOL     OW13180  10.084   4.308  12.982
37116SOL    HW113181  10.026   4.293  12.907
37116SOL    HW213182  10.111   4.399  12.974
37117SOL     OW13183   9.755  13.014  13.548
37117SOL    HW113184   9.830  12.970  13.508
37117SOL    HW213185   9.681  12.954  13.534
37118SOL     OW13186  13.901  12.126   7.309
37118SOL    HW113187  13.903  12.213   7.348
37118SOL    HW213188  13.952  12.072   7.369
37119SOL     OW13189   6.797   9.131  10.280
37119SOL    HW113190   6.810   9.053  10.225
37119SOL    HW213191   6.702   9.135  10.292
37120SOL     OW13192   7.424   5.636   2.422
37120SOL    HW113193   7.380   5.632   2.337
37120SOL    HW213194   7.499   5.695   2.407
37121SOL     OW13195  13.190  14.588  11.853
37121SOL    HW113196  13.152  14.608  11.938
37121SOL    HW213197  13.248  14.662  11.835
37122SOL     OW13198   0.016   3.100  10.075
37122SOL    HW113199   0.002   3.193  10.088
37122SOL    HW213200   0.064   3.094   9.992
37123SOL     OW13201   7.209   8.688  13.750
37123SOL    HW113202   7.282   8.738  13.789
37123SOL    HW213203   7.192   8.618  13.812
37124SOL     OW13204   2.089  14.176   8.899
37124SOL    HW113205   2.083  14.081   8.897
37124SOL    HW213206   1.998  14.206   8.897
37125SOL     OW13207   7.961  14.708   9.899
37125SOL    HW113208   7.951  14.721   9.993
37125SOL    HW213209   7.897  14.640   9.877
37126SOL     OW13210   9.200   9.804   6.412
37126SOL    HW113211   9.291   9.781   6.433
37126SOL    HW213212   9.200   9.816   6.317
37127SOL     OW13213  14.594   1.677  10.435
37127SOL    HW113214  14.669   1.736  10.442
37127SOL    HW213215  14.632   1.595  10.404
37128SOL     OW13216   5.883  10.996   9.353
37128SOL    HW113217   5.945  10.941   9.401
37128SOL    HW213218   5.937  11.064   9.312
37129SOL     OW13219   2.346  14.722   4.741
37129SOL    HW113220   2.422  14.709   4.797
37129SOL    HW213221   2.334  14.817   4.739
37130SOL     OW13222   6.844  11.037   2.442
37130SOL    HW113223   6.867  10.952   2.404
37130SOL    HW213224   6.928  11.081   2.454
37131SOL     OW13225   9.015  12.944  13.046
37131SOL    HW113226   8.963  13.024  13.040
37131SOL    HW213227   9.049  12.931  12.957
37132SOL     OW13228  13.367   1.079  13.211
37132SOL    HW113229  13.307   1.079  13.286
37132SOL    HW213230  13.440   1.024  13.240
37133SOL     OW13231   1.897   9.671   2.734
37133SOL    HW113232   1.847   9.647   2.656
37133SOL    HW213233   1.965   9.604   2.741
37134SOL     OW13234  10.644   6.721   9.164
37134SOL    HW113235  10.714   6.725   9.229
37134SOL    HW213236  10.688   6.694   9.083
37135SOL     OW13237   7.193  13.832  10.070
37135SOL    HW113238   7.230  13.814   9.984
37135SOL    HW213239   7.150  13.917  10.061
37136SOL     OW13240  12.565   3.393   1.928
37136SOL    HW113241  12.520   3.420   1.848
37136SOL    HW213242  12.513   3.320   1.962
37137SOL     OW13243  11.203  13.283  12.049
37137SOL    HW113244  11.243  13.255  12.131
37137SOL    HW213245  11.130  13.339  12.076
37138SOL     OW13246  14.169  14.292  12.469
37138SOL    HW113247  14.216  14.364  12.427
37138SOL    HW213248  14.235  14.245  12.519
37139SOL     OW13249  12.526   6.791   9.357
37139SOL    HW113250  12.513   6.720   9.419
37139SOL    HW213251  12.484   6.867   9.397
37140SOL     OW13252   7.571  12.571  11.373
37140SOL    HW113253   7.626  12.648  11.360
37140SOL    HW213254   7.543  12.577  11.464
37141SOL     OW13255  13.641   5.580   6.262
37141SOL    HW113256  13.661   5.530   6.183
37141SOL    HW213257  13.555   5.548   6.289
37142SOL     OW13258   8.926   1.374  13.106
37142SOL    HW113259   8.881   1.447  13.064
37142SOL    HW213260   8.859   1.307  13.117
37143SOL     OW13261  10.180   4.948  11.275
37143SOL    HW113262  10.247   4.884  11.303
37143SOL    HW213263  10.172   4.934  11.180
37144SOL     OW13264  13.635   8.897   1.415
37144SOL    HW113265  13.555   8.944   1.390
37144SOL    HW213266  13.672   8.949   1.486
37145SOL     OW13267  10.432   5.534  12.243
37145SOL    HW113268  10.504   5.586  12.279
37145SOL    HW213269  10.475   5.463  12.196
37146SOL     OW13270  10.336   1.276  13.554
37146SOL    HW113271  10.281   1.354  13.563
37146SOL    HW213272  10.406   1.289  13.618
37147SOL     OW13273  11.326   5.833   7.723
37147SOL    HW113274  11.293   5.862   7.638
37147SOL    HW213275  11.305   5.905   7.782
37148SOL     OW13276   3.631   6.401   0.591
37148SOL    HW113277   3.549   6.355   0.609
37148SOL    HW213278   3.606   6.477   0.538
37149SOL     OW13279   9.283   9.774   7.140
37149SOL    HW113280   9.321   9.841   7.197
37149SOL    HW213281   9.356   9.715   7.120
37150SOL     OW13282  12.455   7.662  13.072
37150SOL    HW113283  12.400   7.657  13.150
37150SOL    HW213284  12.415   7.600  13.011
37151SOL     OW13285   4.463   9.271   3.069
37151SOL    HW113286   4.476   9.214   3.144
37151SOL    HW213287   4.371   9.297   3.075
37152SOL     OW13288  13.563   5.170   6.994
37152SOL    HW113289  13.585   5.246   7.047
37152SOL    HW213290  13.483   5.196   6.948
37153SOL     OW13291  14.135   7.358  11.510
37153SOL    HW113292  14.202   7.397  11.454
37153SOL    HW213293  14.141   7.264  11.492
37154SOL     OW13294  11.807   4.999  14.149
37154SOL    HW113295  11.856   5.045  14.081
37154SOL    HW213296  11.827   5.047  14.230
37155SOL     OW13297   4.357   5.571   5.159
37155SOL    HW113298   4.373   5.573   5.065
37155SOL    HW213299   4.414   5.501   5.192
37156SOL     OW13300   9.769   7.676   8.380
37156SOL    HW113301   9.687   7.684   8.332
37156SOL    HW213302   9.835   7.715   8.323
37157SOL     OW13303   2.817   9.271  11.676
37157SOL    HW113304   2.844   9.193  11.626
37157SOL    HW213305   2.899   9.312  11.702
37158SOL     OW13306   7.073   1.672   6.785
37158SOL    HW113307   7.105   1.652   6.697
37158SOL    HW213308   7.005   1.606   6.801
37159SOL     OW13309   8.846   1.578   6.671
37159SOL    HW113310   8.755   1.597   6.696
37159SOL    HW213311   8.896   1.654   6.701
37160SOL     OW13312  14.398   7.235   1.986
37160SOL    HW113313  14.425   7.151   2.023
37160SOL    HW213314  14.311   7.219   1.949
37161SOL     OW13315  11.610   0.453  12.723
37161SOL    HW113316  11.655   0.535  12.704
37161SOL    HW213317  11.657   0.387  12.671
37162SOL     OW13318   4.835   4.397  12.114
37162SOL    HW113319   4.766   4.332  12.101
37162SOL    HW213320   4.834   4.414  12.209
37163SOL     OW13321   5.877   1.299   1.654
37163SOL    HW113322   5.968   1.269   1.655
37163SOL    HW213323   5.825   1.219   1.668
37164SOL     OW13324   1.229   7.461   6.131
37164SOL    HW113325   1.171   7.463   6.207
37164SOL    HW213326   1.181   7.505   6.062
37165SOL     OW13327  12.018   4.337  11.344
37165SOL    HW113328  11.955   4.330  11.416
37165SOL    HW213329  12.045   4.429  11.344
37166SOL     OW13330   5.326   2.169   4.216
37166SOL    HW113331   5.243   2.124   4.199
37166SOL    HW213332   5.339   2.225   4.139
37167SOL     OW13333   4.106   4.889   5.920
37167SOL    HW113334   4.176   4.941   5.881
37167SOL    HW213335   4.026   4.936   5.897
37168SOL     OW13336  13.254   2.806   0.379
37168SOL    HW113337  13.336   2.853   0.373
37168SOL    HW213338  13.236   2.801   0.473
37169SOL     OW13339   7.178   3.618  14.067
37169SOL    HW113340   7.156   3.648  13.979
37169SOL    HW213341   7.156   3.525  14.067
37170SOL     OW13342  10.523   0.909   8.324
37170SOL    HW113343  10.540   0.924   8.231
37170SOL    HW213344  10.574   0.975   8.369
37171SOL     OW13345   7.213  11.228   2.631
37171SOL    HW113346   7.272  11.196   2.698
37171SOL    HW213347   7.146  11.276   2.679
37172SOL     OW13348   5.473   5.690   2.432
37172SOL    HW113349   5.434   5.766   2.388
37172SOL    HW213350   5.442   5.615   2.380
37173SOL     OW13351   6.315   9.818   1.985
37173SOL    HW113352   6.324   9.737   1.936
37173SOL    HW213353   6.343   9.886   1.924
37174SOL     OW13354   9.183   5.896   3.450
37174SOL    HW113355   9.124   5.847   3.392
37174SOL    HW213356   9.147   5.883   3.537
37175SOL     OW13357   7.560   8.390   0.761
37175SOL    HW113358   7.631   8.350   0.811
37175SOL    HW213359   7.592   8.391   0.671
37176SOL     OW13360  12.913  12.164   5.184
37176SOL    HW113361  12.858  12.087   5.172
37176SOL    HW213362  12.944  12.186   5.096
37177SOL     OW13363   3.707   0.597   2.951
37177SOL    HW113364   3.716   0.592   3.047
37177SOL    HW213365   3.648   0.670   2.936
37178SOL     OW13366  12.781   3.226   5.083
37178SOL    HW113367  12.743   3.298   5.033
37178SOL    HW213368  12.875   3.232   5.065
37179SOL     OW13369   3.477   5.187  11.253
37179SOL    HW113370   3.500   5.094  11.250
37179SOL    HW213371   3.382   5.188  11.243
37180SOL     OW13372  12.671   4.625  14.453
37180SOL    HW113373  12.661   4.596  14.363
37180SOL    HW213374  12.661   4.721  14.449
37181SOL     OW13375   6.068   9.068  11.108
37181SOL    HW113376   6.004   9.013  11.153
37181SOL    HW213377   6.029   9.156  11.108
37182SOL     OW13378  10.361   0.742  12.238
37182SOL    HW113379  10.381   0.692  12.318
37182SOL    HW213380  10.430   0.808  12.233
37183SOL     OW13381   9.769  11.505  13.789
37183SOL    HW113382   9.717  11.442  13.738
37183SOL    HW213383   9.857  11.498  13.751
37184SOL     OW13384  11.891   8.059  13.522
37184SOL    HW113385  11.981   8.038  13.547
37184SOL    HW213386  11.870   8.138  13.572
37185SOL     OW13387   6.975  12.174   7.567
37185SOL    HW113388   6.998  12.140   7.481
37185SOL    HW213389   6.888  12.140   7.584
37186SOL     OW13390   4.725   8.586   8.919
37186SOL    HW113391   4.662   8.650   8.952
37186SOL    HW213392   4.673   8.528   8.863
37187SOL     OW13393  14.020   7.508  13.440
37187SOL    HW113394  14.021   7.435  13.378
37187SOL    HW213395  14.110   7.512  13.472
37188SOL     OW13396   5.359   1.726  13.383
37188SOL    HW113397   5.451   1.749  13.368
37188SOL    HW213398   5.361   1.635  13.411
37189SOL     OW13399   3.922  11.438   7.987
37189SOL    HW113400   3.934  11.412   8.079
37189SOL    HW213401   3.861  11.373   7.952
37190SOL     OW13402   1.499   7.273   8.362
37190SOL    HW113403   1.472   7.214   8.431
37190SOL    HW213404   1.470   7.231   8.281
37191SOL     OW13405   4.750   1.438   6.574
37191SOL    HW113406   4.664   1.428   6.616
37191SOL    HW213407   4.747   1.526   6.535
37192SOL     OW13408   8.392  12.798   3.436
37192SOL    HW113409   8.365  12.717   3.480
37192SOL    HW213410   8.403  12.773   3.345
37193SOL     OW13411   8.034   6.366   8.991
37193SOL    HW113412   8.011   6.357   9.084
37193SOL    HW213413   7.951   6.352   8.945
37194SOL     OW13414  14.872   9.031  14.099
37194SOL    HW113415  14.812   8.978  14.046
37194SOL    HW213416  14.835   9.028  14.187
37195SOL     OW13417  10.376   8.502  11.903
37195SOL    HW113418  10.344   8.577  11.951
37195SOL    HW213419  10.331   8.427  11.942
37196SOL     OW13420   0.304   6.323  14.567
37196SOL    HW113421   0.260   6.282  14.642
37196SOL    HW213422   0.294   6.260  14.496
37197SOL     OW13423   1.515  10.214   7.547
37197SOL    HW113424   1.475  10.180   7.467
37197SOL    HW213425   1.551  10.137   7.591
37198SOL     OW13426   3.354   1.373   0.712
37198SOL    HW113427   3.368   1.309   0.643
37198SOL    HW213428   3.262   1.363   0.737
37199SOL     OW13429  12.211  11.854  13.690
37199SOL    HW113430  12.266  11.901  13.753
37199SOL    HW213431  12.273  11.808  13.634
37200SOL     OW13432   7.517  13.133   5.362
37200SOL    HW113433   7.428  13.107   5.337
37200SOL    HW213434   7.535  13.210   5.309
37201SOL     OW13435   7.675  11.871  11.270
37201SOL    HW113436   7.638  11.783  11.279
37201SOL    HW213437   7.653  11.898  11.181
37202SOL     OW13438   3.719  11.389  12.448
37202SOL    HW113439   3.707  11.446  12.372
37202SOL    HW213440   3.665  11.429  12.517
37203SOL     OW13441  10.971  12.858   1.274
37203SOL    HW113442  10.888  12.856   1.227
37203SOL    HW213443  11.000  12.949   1.267
37204SOL     OW13444   9.017   6.165   8.075
37204SOL    HW113445   9.040   6.255   8.051
37204SOL    HW213446   9.094   6.113   8.051
37205SOL     OW13447  10.224   3.226   3.847
37205SOL    HW113448  10.224   3.131   3.851
37205SOL    HW213449  10.212   3.246   3.754
37206SOL     OW13450  13.712  10.304  13.172
37206SOL    HW113451  13.674  10.255  13.099
37206SOL    HW213452  13.659  10.278  13.248
37207SOL     OW13453   2.127   7.669   2.464
37207SOL    HW113454   2.222   7.680   2.469
37207SOL    HW213455   2.107   7.609   2.536
37208SOL     OW13456   5.393  10.070   3.002
37208SOL    HW113457   5.343  10.007   3.054
37208SOL    HW213458   5.485  10.046   3.017
37209SOL     OW13459   9.948  10.254   3.676
37209SOL    HW113460   9.915  10.296   3.756
37209SOL    HW213461   9.885  10.185   3.658
37210SOL     OW13462   0.553   1.534   8.081
37210SOL    HW113463   0.481   1.471   8.086
37210SOL    HW213464   0.622   1.487   8.034
37211SOL     OW13465  11.897   0.450   4.270
37211SOL    HW113466  11.880   0.443   4.364
37211SOL    HW213467  11.811   0.441   4.229
37212SOL     OW13468   4.245   6.038   8.834
37212SOL    HW113469   4.333   6.019   8.803
37212SOL    HW213470   4.258   6.089   8.914
37213SOL     OW13471   8.247  12.654  12.209
37213SOL    HW113472   8.166  12.606  12.189
37213SOL    HW213473   8.275  12.689  12.125
37214SOL     OW13474  11.747   5.588   2.295
37214SOL    HW113475  11.688   5.515   2.314
37214SOL    HW213476  11.817   5.548   2.242
37215SOL     OW13477   2.606   5.871  12.194
37215SOL    HW113478   2.699   5.877  12.169
37215SOL    HW213479   2.561   5.931  12.135
37216SOL     OW13480   7.471   9.538   6.772
37216SOL    HW113481   7.553   9.552   6.725
37216SOL    HW213482   7.448   9.446   6.753
37217SOL     OW13483   4.274   7.385   3.373
37217SOL    HW113484   4.347   7.335   3.409
37217SOL    HW213485   4.279   7.470   3.417
37218SOL     OW13486   3.334  10.006   3.177
37218SOL    HW113487   3.364  10.063   3.247
37218SOL    HW213488   3.294  10.065   3.113
37219SOL     OW13489   9.068   1.774   6.313
37219SOL    HW113490   9.121   1.764   6.234
37219SOL    HW213491   9.073   1.689   6.356
37220SOL     OW13492   3.524   3.358   2.004
37220SOL    HW113493   3.444   3.409   1.990
37220SOL    HW213494   3.507   3.274   1.961
37221SOL     OW13495   1.968   7.605   2.153
37221SOL    HW113496   1.877   7.631   2.168
37221SOL    HW213497   1.991   7.553   2.230
37222SOL     OW13498   1.446   5.814   4.974
37222SOL    HW113499   1.409   5.850   5.054
37222SOL    HW213500   1.536   5.848   4.971
37223SOL     OW13501   1.086   3.744  10.561
37223SOL    HW113502   1.060   3.652  10.546
37223SOL    HW213503   1.169   3.753  10.515
37224SOL     OW13504   1.510  14.044   6.385
37224SOL    HW113505   1.511  14.032   6.290
37224SOL    HW213506   1.568  14.118   6.401
37225SOL     OW13507  14.264   1.377  14.621
37225SOL    HW113508  14.221   1.325  14.689
37225SOL    HW213509  14.220   1.351  14.540
37226SOL     OW13510  14.374   9.332   9.256
37226SOL    HW113511  14.340   9.266   9.197
37226SOL    HW213512  14.367   9.414   9.207
37227SOL     OW13513  11.735   0.152  11.970
37227SOL    HW113514  11.733   0.111  11.883
37227SOL    HW213515  11.828   0.164  11.989
37228SOL     OW13516   1.460   0.603   1.100
37228SOL    HW113517   1.457   0.507   1.104
37228SOL    HW213518   1.553   0.623   1.095
37229SOL     OW13519   5.584   4.099   2.851
37229SOL    HW113520   5.659   4.041   2.835
37229SOL    HW213521   5.585   4.113   2.946
37230SOL     OW13522   2.639   5.406   4.169
37230SOL    HW113523   2.598   5.413   4.255
37230SOL    HW213524   2.575   5.359   4.116
37231SOL     OW13525   7.291   8.818  11.124
37231SOL    HW113526   7.264   8.910  11.134
37231SOL    HW213527   7.361   8.806  11.188
37232SOL     OW13528   2.669   6.223   8.757
37232SOL    HW113529   2.652   6.207   8.665
37232SOL    HW213530   2.596   6.182   8.803
37233SOL     OW13531   0.359  14.314  12.886
37233SOL    HW113532   0.315  14.389  12.928
37233SOL    HW213533   0.306  14.295  12.809
37234SOL     OW13534  14.418   9.607  13.258
37234SOL    HW113535  14.424   9.697  13.224
37234SOL    HW213536  14.460   9.611  13.344
37235SOL     OW13537   0.860   5.662   0.046
37235SOL    HW113538   0.834   5.586  14.874
37235SOL    HW213539   0.833   5.737  14.872
37236SOL     OW13540  11.309   7.213   3.543
37236SOL    HW113541  11.273   7.288   3.496
37236SOL    HW213542  11.343   7.251   3.624
37237SOL     OW13543   3.329   2.753   2.572
37237SOL    HW113544   3.341   2.816   2.643
37237SOL    HW213545   3.265   2.794   2.513
37238SOL     OW13546  11.615  12.091  10.564
37238SOL    HW113547  11.635  12.182  10.588
37238SOL    HW213548  11.565  12.058  10.638
37239SOL     OW13549   3.942   8.451  14.286
37239SOL    HW113550   3.982   8.397  14.218
37239SOL    HW213551   3.887   8.390  14.335
37240SOL     OW13552   3.951   1.644   1.906
37240SOL    HW113553   3.950   1.599   1.991
37240SOL    HW213554   3.997   1.726   1.923
37241SOL     OW13555   0.108   8.750   7.438
37241SOL    HW113556   0.030   8.698   7.415
37241SOL    HW213557   0.109   8.750   7.533
37242SOL     OW13558   9.231   9.020   8.125
37242SOL    HW113559   9.244   9.092   8.186
37242SOL    HW213560   9.207   9.063   8.043
37243SOL     OW13561   1.625   2.733  14.866
37243SOL    HW113562   1.682   2.668  14.825
37243SOL    HW213563   1.592   2.690   0.066
37244SOL     OW13564  11.877   6.617   3.383
37244SOL    HW113565  11.896   6.601   3.290
37244SOL    HW213566  11.813   6.549   3.406
37245SOL     OW13567  12.309   5.325   2.289
37245SOL    HW113568  12.221   5.361   2.299
37245SOL    HW213569  12.360   5.364   2.360
37246SOL     OW13570  11.173   6.016   0.796
37246SOL    HW113571  11.179   6.110   0.814
37246SOL    HW213572  11.262   5.990   0.773
37247SOL     OW13573   0.697   9.387  12.162
37247SOL    HW113574   0.750   9.435  12.226
37247SOL    HW213575   0.611   9.428  12.167
37248SOL     OW13576   1.007   9.295   8.686
37248SOL    HW113577   0.912   9.298   8.688
37248SOL    HW213578   1.032   9.375   8.639
37249SOL     OW13579   3.096   9.742   3.330
37249SOL    HW113580   3.136   9.662   3.298
37249SOL    HW213581   3.168   9.791   3.369
37250SOL     OW13582  13.185   3.126   4.369
37250SOL    HW113583  13.127   3.066   4.323
37250SOL    HW213584  13.265   3.076   4.383
37251SOL     OW13585  11.945  14.794   2.726
37251SOL    HW113586  11.977   0.001   2.700
37251SOL    HW213587  11.954  14.740   2.648
37252SOL     OW13588  13.484   4.307   5.492
37252SOL    HW113589  13.430   4.245   5.442
37252SOL    HW213590  13.432   4.325   5.571
37253SOL     OW13591   5.938  11.680   5.737
37253SOL    HW113592   5.906  11.636   5.816
37253SOL    HW213593   5.860  11.691   5.682
37254SOL     OW13594   8.443  10.943   6.814
37254SOL    HW113595   8.366  10.949   6.871
37254SOL    HW213596   8.470  10.851   6.821
37255SOL     OW13597   5.990  13.096  12.034
37255SOL    HW113598   6.056  13.035  12.069
37255SOL    HW213599   5.914  13.041  12.016
37256SOL     OW13600  12.246  11.703   1.321
37256SOL    HW113601  12.226  11.687   1.229
37256SOL    HW213602  12.336  11.735   1.322
37257SOL     OW13603   5.826  13.550   2.567
37257SOL    HW113604   5.760  13.532   2.633
37257SOL    HW213605   5.850  13.465   2.532
37258SOL     OW13606   2.034   4.466  12.326
37258SOL    HW113607   2.066   4.459  12.416
37258SOL    HW213608   2.041   4.377  12.291
37259SOL     OW13609  13.728  11.695  13.290
37259SOL    HW113610  13.663  11.636  13.251
37259SOL    HW213611  13.718  11.776  13.241
37260SOL     OW13612   1.316   2.847   5.194
37260SOL    HW113613   1.370   2.773   5.169
37260SOL    HW213614   1.339   2.865   5.285
37261SOL     OW13615   3.411   6.561   8.100
37261SOL    HW113616   3.485   6.501   8.089
37261SOL    HW213617   3.374   6.569   8.012
37262SOL     OW13618   6.715   1.329   7.583
37262SOL    HW113619   6.643   1.287   7.631
37262SOL    HW213620   6.792   1.277   7.605
37263SOL     OW13621   3.573   2.952  14.183
37263SOL    HW113622   3.505   2.894  14.149
37263SOL    HW213623   3.627   2.895  14.238
37264SOL     OW13624  14.748   8.356   8.174
37264SOL    HW113625  14.778   8.395   8.257
37264SOL    HW213626  14.802   8.398   8.107
37265SOL     OW13627  12.614  14.652  13.540
37265SOL    HW113628  12.692  14.608  13.574
37265SOL    HW213629  12.639  14.680  13.452
37266SOL     OW13630  10.463   7.270   5.589
37266SOL    HW113631  10.466   7.364   5.568
37266SOL    HW213632  10.449   7.227   5.505
37267SOL     OW13633   2.163   0.323   4.850
37267SOL    HW113634   2.221   0.397   4.868
37267SOL    HW213635   2.103   0.354   4.783
37268SOL     OW13636   6.308   3.613  13.922
37268SOL    HW113637   6.380   3.553  13.901
37268SOL    HW213638   6.241   3.557  13.960
37269SOL     OW13639   3.377   7.657   3.505
37269SOL    HW113640   3.457   7.651   3.454
37269SOL    HW213641   3.362   7.751   3.515
37270SOL     OW13642   4.593   9.689   2.289
37270SOL    HW113643   4.592   9.754   2.359
37270SOL    HW213644   4.603   9.740   2.209
37271SOL     OW13645   8.955   9.662   3.727
37271SOL    HW113646   8.882   9.720   3.708
37271SOL    HW213647   8.919   9.574   3.721
37272SOL     OW13648   2.815  14.111   8.769
37272SOL    HW113649   2.903  14.076   8.783
37272SOL    HW213650   2.775  14.109   8.856
37273SOL     OW13651   9.374   5.151   9.726
37273SOL    HW113652   9.313   5.116   9.661
37273SOL    HW213653   9.409   5.074   9.771
37274SOL     OW13654  10.072  10.194   8.517
37274SOL    HW113655   9.983  10.175   8.547
37274SOL    HW213656  10.089  10.129   8.449
37275SOL     OW13657   6.671  12.860   1.707
37275SOL    HW113658   6.735  12.798   1.742
37275SOL    HW213659   6.676  12.848   1.612
37276SOL     OW13660  12.149   2.916   3.227
37276SOL    HW113661  12.222   2.879   3.179
37276SOL    HW213662  12.076   2.856   3.211
37277SOL     OW13663   2.315  14.762   4.268
37277SOL    HW113664   2.231  14.734   4.233
37277SOL    HW213665   2.330  14.704   4.343
37278SOL     OW13666  12.331   4.822   6.451
37278SOL    HW113667  12.243   4.820   6.489
37278SOL    HW213668  12.352   4.915   6.443
37279SOL     OW13669   8.189  14.468  12.051
37279SOL    HW113670   8.277  14.506  12.051
37279SOL    HW213671   8.133  14.538  12.086
37280SOL     OW13672   3.574   7.979  13.787
37280SOL    HW113673   3.515   7.991  13.861
37280SOL    HW213674   3.623   7.900  13.808
37281SOL     OW13675  11.117   4.199   5.410
37281SOL    HW113676  11.043   4.196   5.350
37281SOL    HW213677  11.193   4.179   5.355
37282SOL     OW13678  10.743   7.143  12.451
37282SOL    HW113679  10.652   7.128  12.474
37282SOL    HW213680  10.739   7.200  12.374
37283SOL     OW13681   0.585   6.720  11.442
37283SOL    HW113682   0.558   6.779  11.512
37283SOL    HW213683   0.513   6.722  11.379
37284SOL     OW13684  10.544   0.522  13.116
37284SOL    HW113685  10.598   0.572  13.178
37284SOL    HW213686  10.599   0.515  13.038
37285SOL     OW13687   0.565   7.172  12.187
37285SOL    HW113688   0.645   7.127  12.162
37285SOL    HW213689   0.536   7.216  12.107
37286SOL     OW13690  11.808   8.474   9.153
37286SOL    HW113691  11.823   8.418   9.229
37286SOL    HW213692  11.895   8.487   9.115
37287SOL     OW13693   5.784   7.116   8.868
37287SOL    HW113694   5.833   7.035   8.854
37287SOL    HW213695   5.784   7.128   8.963
37288SOL     OW13696   1.275   3.813   9.299
37288SOL    HW113697   1.214   3.870   9.345
37288SOL    HW213698   1.297   3.862   9.219
37289SOL     OW13699   7.420   2.225   2.537
37289SOL    HW113700   7.515   2.231   2.543
37289SOL    HW213701   7.400   2.132   2.547
37290SOL     OW13702   9.114   2.290   6.600
37290SOL    HW113703   9.094   2.250   6.515
37290SOL    HW213704   9.108   2.384   6.584
37291SOL     OW13705  10.735  14.099   4.691
37291SOL    HW113706  10.666  14.048   4.734
37291SOL    HW213707  10.808  14.099   4.753
37292SOL     OW13708   9.910   9.668   9.235
37292SOL    HW113709   9.988   9.723   9.220
37292SOL    HW213710   9.897   9.672   9.330
37293SOL     OW13711  14.347   8.979   7.950
37293SOL    HW113712  14.299   8.911   7.903
37293SOL    HW213713  14.288   9.006   8.020
37294SOL     OW13714   6.422   1.595   9.391
37294SOL    HW113715   6.399   1.650   9.466
37294SOL    HW213716   6.450   1.656   9.324
37295SOL     OW13717   5.236   8.190   4.547
37295SOL    HW113718   5.278   8.227   4.625
37295SOL    HW213719   5.179   8.121   4.581
37296SOL     OW13720   2.391   7.710   9.616
37296SOL    HW113721   2.392   7.794   9.662
37296SOL    HW213722   2.408   7.646   9.685
37297SOL     OW13723   9.702   2.899   6.398
37297SOL    HW113724   9.655   2.844   6.335
37297SOL    HW213725   9.793   2.871   6.391
37298SOL     OW13726   4.996   7.215  13.168
37298SOL    HW113727   4.913   7.236  13.125
37298SOL    HW213728   4.988   7.252  13.256
37299SOL     OW13729   8.460   5.187  10.487
37299SOL    HW113730   8.549   5.219  10.470
37299SOL    HW213731   8.433   5.146  10.404
37300SOL     OW13732   8.061   4.847  12.228
37300SOL    HW113733   7.993   4.838  12.161
37300SOL    HW213734   8.137   4.879  12.180
37301SOL     OW13735   8.807   9.931  12.855
37301SOL    HW113736   8.849  10.010  12.888
37301SOL    HW213737   8.867   9.860  12.880
37302SOL     OW13738  10.542  11.479  11.560
37302SOL    HW113739  10.564  11.510  11.472
37302SOL    HW213740  10.582  11.392  11.565
37303SOL     OW13741   2.603   6.296  10.387
37303SOL    HW113742   2.614   6.243  10.308
37303SOL    HW213743   2.693   6.318  10.414
37304SOL     OW13744   8.970  10.799   6.510
37304SOL    HW113745   8.902  10.854   6.472
37304SOL    HW213746   8.936  10.775   6.596
37305SOL     OW13747   7.959   4.270  12.200
37305SOL    HW113748   7.883   4.325  12.216
37305SOL    HW213749   7.967   4.266  12.105
37306SOL     OW13750  10.348  13.775   9.289
37306SOL    HW113751  10.440  13.753   9.271
37306SOL    HW213752  10.299  13.733   9.218
37307SOL     OW13753   4.718  14.258   9.514
37307SOL    HW113754   4.731  14.217   9.428
37307SOL    HW213755   4.721  14.185   9.576
37308SOL     OW13756   9.834   7.529  10.559
37308SOL    HW113757   9.826   7.624  10.555
37308SOL    HW213758   9.864   7.504  10.472
37309SOL     OW13759  14.756   3.903   5.187
37309SOL    HW113760  14.761   3.959   5.264
37309SOL    HW213761  14.808   3.950   5.121
37310SOL     OW13762   7.607   6.037   8.321
37310SOL    HW113763   7.639   6.120   8.287
37310SOL    HW213764   7.562   6.060   8.402
37311SOL     OW13765  14.785  13.035   2.804
37311SOL    HW113766  14.710  13.004   2.854
37311SOL    HW213767  14.854  12.971   2.821
37312SOL     OW13768   8.517  13.030  10.813
37312SOL    HW113769   8.458  12.991  10.748
37312SOL    HW213770   8.599  12.983  10.802
37313SOL     OW13771  10.090  11.890   9.065
37313SOL    HW113772  10.112  11.955   8.998
37313SOL    HW213773   9.997  11.872   9.051
37314SOL     OW13774   5.625  12.998  14.025
37314SOL    HW113775   5.713  12.965  14.046
37314SOL    HW213776   5.628  13.016  13.931
37315SOL     OW13777  11.710   7.694   6.149
37315SOL    HW113778  11.774   7.765   6.148
37315SOL    HW213779  11.682   7.687   6.240
37316SOL     OW13780  12.754   8.122   5.129
37316SOL    HW113781  12.718   8.117   5.217
37316SOL    HW213782  12.819   8.052   5.126
37317SOL     OW13783   1.526   4.409   3.153
37317SOL    HW113784   1.510   4.467   3.227
37317SOL    HW213785   1.589   4.457   3.098
37318SOL     OW13786   2.765   3.598   5.388
37318SOL    HW113787   2.835   3.568   5.446
37318SOL    HW213788   2.685   3.592   5.441
37319SOL     OW13789  11.161   8.507   3.668
37319SOL    HW113790  11.253   8.493   3.690
37319SOL    HW213791  11.154   8.600   3.649
37320SOL     OW13792   1.584   7.668   9.439
37320SOL    HW113793   1.628   7.630   9.363
37320SOL    HW213794   1.608   7.611   9.512
37321SOL     OW13795   2.153  11.988   9.383
37321SOL    HW113796   2.163  11.914   9.443
37321SOL    HW213797   2.242  12.007   9.353
37322SOL     OW13798  10.528  11.368   9.560
37322SOL    HW113799  10.545  11.277   9.534
37322SOL    HW213800  10.614  11.402   9.585
37323SOL     OW13801   6.394   2.296   1.466
37323SOL    HW113802   6.309   2.283   1.507
37323SOL    HW213803   6.375   2.338   1.382
37324SOL     OW13804   9.783  10.242   4.523
37324SOL    HW113805   9.773  10.288   4.606
37324SOL    HW213806   9.694  10.233   4.489
37325SOL     OW13807   4.766   9.854   7.126
37325SOL    HW113808   4.856   9.825   7.145
37325SOL    HW213809   4.723   9.856   7.211
37326SOL     OW13810  14.004  12.133  14.312
37326SOL    HW113811  13.946  12.182  14.254
37326SOL    HW213812  13.945  12.079  14.365
37327SOL     OW13813   0.770   4.798   3.028
37327SOL    HW113814   0.809   4.760   2.949
37327SOL    HW213815   0.819   4.880   3.040
37328SOL     OW13816   2.964   4.201   0.556
37328SOL    HW113817   2.968   4.256   0.478
37328SOL    HW213818   3.054   4.171   0.569
37329SOL     OW13819  12.757  12.394   2.240
37329SOL    HW113820  12.851  12.396   2.258
37329SOL    HW213821  12.735  12.485   2.219
37330SOL     OW13822   9.423   5.732   4.090
37330SOL    HW113823   9.398   5.800   4.029
37330SOL    HW213824   9.407   5.650   4.043
37331SOL     OW13825  10.878  11.581  13.586
37331SOL    HW113826  10.823  11.505  13.566
37331SOL    HW213827  10.906  11.566  13.677
37332SOL     OW13828  10.257   3.718   0.683
37332SOL    HW113829  10.225   3.644   0.631
37332SOL    HW213830  10.212   3.794   0.646
37333SOL     OW13831   0.121   0.225   9.701
37333SOL    HW113832   0.055   0.275   9.654
37333SOL    HW213833   0.148   0.156   9.640
37334SOL     OW13834   7.306  13.411  10.023
37334SOL    HW113835   7.372  13.480  10.008
37334SOL    HW213836   7.234  13.436   9.965
37335SOL     OW13837   0.262   1.815   0.935
37335SOL    HW113838   0.247   1.722   0.918
37335SOL    HW213839   0.203   1.861   0.876
37336SOL     OW13840   8.469   6.691   2.688
37336SOL    HW113841   8.484   6.781   2.657
37336SOL    HW213842   8.437   6.702   2.777
37337SOL     OW13843   4.662  11.175  13.457
37337SOL    HW113844   4.692  11.092  13.493
37337SOL    HW213845   4.646  11.230  13.533
37338SOL     OW13846   1.443   9.643  10.761
37338SOL    HW113847   1.442   9.558  10.717
37338SOL    HW213848   1.527   9.647  10.805
37339SOL     OW13849  13.552   9.861   8.854
37339SOL    HW113850  13.538   9.780   8.904
37339SOL    HW213851  13.625   9.841   8.796
37340SOL     OW13852  13.248   3.654  10.945
37340SOL    HW113853  13.224   3.710  11.018
37340SOL    HW213854  13.339   3.677  10.926
37341SOL     OW13855   2.293  11.611   6.714
37341SOL    HW113856   2.375  11.590   6.668
37341SOL    HW213857   2.225  11.575   6.658
37342SOL     OW13858   0.478   2.658   5.488
37342SOL    HW113859   0.488   2.570   5.526
37342SOL    HW213860   0.400   2.693   5.530
37343SOL     OW13861   8.677   7.540   6.116
37343SOL    HW113862   8.770   7.551   6.096
37343SOL    HW213863   8.641   7.498   6.038
37344SOL     OW13864  13.457   8.900   4.827
37344SOL    HW113865  13.468   8.987   4.865
37344SOL    HW213866  13.506   8.842   4.886
37345SOL     OW13867   5.076  10.500   8.362
37345SOL    HW113868   5.097  10.561   8.433
37345SOL    HW213869   5.017  10.436   8.401
37346SOL     OW13870   1.140   3.151  10.849
37346SOL    HW113871   1.115   3.159  10.941
37346SOL    HW213872   1.153   3.242  10.821
37347SOL     OW13873   0.639  11.383   7.074
37347SOL    HW113874   0.603  11.320   7.012
37347SOL    HW213875   0.734  11.370   7.070
37348SOL     OW13876   7.458   7.027   9.424
37348SOL    HW113877   7.474   7.122   9.426
37348SOL    HW213878   7.385   7.017   9.363
37349SOL     OW13879   9.805   7.211   8.090
37349SOL    HW113880   9.743   7.208   8.163
37349SOL    HW213881   9.787   7.132   8.040
37350SOL     OW13882  14.024   8.590   2.124
37350SOL    HW113883  14.040   8.685   2.127
37350SOL    HW213884  14.047   8.565   2.034
37351SOL     OW13885   1.283   4.243   9.673
37351SOL    HW113886   1.249   4.288   9.751
37351SOL    HW213887   1.208   4.236   9.615
37352SOL     OW13888  12.199   5.689   8.960
37352SOL    HW113889  12.121   5.639   8.935
37352SOL    HW213890  12.164   5.768   9.001
37353SOL     OW13891   3.844  13.291   2.363
37353SOL    HW113892   3.774  13.234   2.393
37353SOL    HW213893   3.866  13.257   2.276
37354SOL     OW13894   5.541   3.085  10.257
37354SOL    HW113895   5.474   3.018  10.247
37354SOL    HW213896   5.504   3.145  10.322
37355SOL     OW13897   9.292   8.276   6.799
37355SOL    HW113898   9.292   8.233   6.885
37355SOL    HW213899   9.234   8.222   6.745
37356SOL     OW13900   8.275   7.567   7.131
37356SOL    HW113901   8.216   7.642   7.145
37356SOL    HW213902   8.281   7.526   7.217
37357SOL     OW13903  10.501   3.549   2.075
37357SOL    HW113904  10.538   3.465   2.103
37357SOL    HW213905  10.424   3.560   2.131
37358SOL     OW13906   2.789   7.564  14.316
37358SOL    HW113907   2.701   7.599  14.301
37358SOL    HW213908   2.778   7.469  14.307
37359SOL     OW13909   3.432  11.778   3.069
37359SOL    HW113910   3.512  11.824   3.044
37359SOL    HW213911   3.435  11.774   3.164
37360SOL     OW13912   0.322  10.728   3.146
37360SOL    HW113913   0.340  10.800   3.205
37360SOL    HW213914   0.283  10.769   3.069
37361SOL     OW13915   2.465   0.341   1.794
37361SOL    HW113916   2.398   0.366   1.731
37361SOL    HW213917   2.444   0.250   1.817
37362SOL     OW13918   8.758  10.904   8.987
37362SOL    HW113919   8.755  10.964   8.913
37362SOL    HW213920   8.851  10.886   9.001
37363SOL     OW13921   4.737  13.076   1.055
37363SOL    HW113922   4.725  13.130   1.132
37363SOL    HW213923   4.650  13.068   1.016
37364SOL     OW13924  11.462   1.533  11.402
37364SOL    HW113925  11.376   1.521  11.363
37364SOL    HW213926  11.484   1.447  11.438
37365SOL     OW13927  10.179   9.362   0.675
37365SOL    HW113928  10.147   9.308   0.748
37365SOL    HW213929  10.260   9.320   0.647
37366SOL     OW13930  14.826   5.574  12.795
37366SOL    HW113931  14.832   5.602  12.886
37366SOL    HW213932   0.000   5.494  12.791
37367SOL     OW13933   9.246   3.322   8.647
37367SOL    HW113934   9.184   3.395   8.646
37367SOL    HW213935   9.324   3.356   8.604
37368SOL     OW13936  14.084  10.638  14.062
37368SOL    HW113937  14.043  10.698  14.124
37368SOL    HW213938  14.169  10.678  14.042
37369SOL     OW13939   4.283   8.245  12.149
37369SOL    HW113940   4.336   8.207  12.080
37369SOL    HW213941   4.345   8.297  12.201
37370SOL     OW13942   1.586   8.366  13.394
37370SOL    HW113943   1.572   8.316  13.314
37370SOL    HW213944   1.519   8.334  13.454
37371SOL     OW13945  14.738  12.985  11.637
37371SOL    HW113946  14.807  13.048  11.655
37371SOL    HW213947  14.775  12.901  11.664
37372SOL     OW13948  11.209   7.488  13.199
37372SOL    HW113949  11.300   7.475  13.171
37372SOL    HW213950  11.201   7.583  13.207
37373SOL     OW13951   3.654   1.891   0.217
37373SOL    HW113952   3.737   1.847   0.231
37373SOL    HW213953   3.638   1.938   0.299
37374SOL     OW13954  14.341   1.867  11.759
37374SOL    HW113955  14.296   1.799  11.810
37374SOL    HW213956  14.288   1.876  11.680
37375SOL     OW13957   7.328  13.808   0.634
37375SOL    HW113958   7.325  13.903   0.633
37375SOL    HW213959   7.412  13.786   0.595
37376SOL     OW13960   6.171   9.408   1.317
37376SOL    HW113961   6.189   9.351   1.242
37376SOL    HW213962   6.085   9.446   1.298
37377SOL     OW13963   1.965   7.281   4.497
37377SOL    HW113964   1.975   7.192   4.532
37377SOL    HW213965   2.007   7.337   4.562
37378SOL     OW13966  12.916  11.574   1.067
37378SOL    HW113967  12.834  11.559   1.019
37378SOL    HW213968  12.972  11.500   1.042
37379SOL     OW13969   3.880  10.969  11.486
37379SOL    HW113970   3.938  10.911  11.534
37379SOL    HW213971   3.848  10.916  11.413
37380SOL     OW13972   0.376  13.275  12.065
37380SOL    HW113973   0.353  13.317  11.982
37380SOL    HW213974   0.296  13.229  12.091
37381SOL     OW13975   4.256   3.380   6.402
37381SOL    HW113976   4.181   3.432   6.430
37381SOL    HW213977   4.265   3.313   6.470
37382SOL     OW13978  13.721   9.341   2.921
37382SOL    HW113979  13.733   9.311   3.011
37382SOL    HW213980  13.757   9.430   2.920
37383SOL     OW13981   6.219   3.551  14.754
37383SOL    HW113982   6.288   3.560  14.688
37383SOL    HW213983   6.202   3.457  14.759
37384SOL     OW13984  10.583   3.077   0.472
37384SOL    HW113985  10.593   3.009   0.405
37384SOL    HW213986  10.673   3.101   0.496
37385SOL     OW13987  10.027   6.740  11.992
37385SOL    HW113988  10.090   6.670  12.009
37385SOL    HW213989  10.057   6.780  11.911
37386SOL     OW13990   3.147   4.858   0.968
37386SOL    HW113991   3.052   4.861   0.958
37386SOL    HW213992   3.163   4.883   1.059
37387SOL     OW13993   5.092  10.188  12.196
37387SOL    HW113994   5.014  10.221  12.152
37387SOL    HW213995   5.119  10.259  12.254
37388SOL     OW13996   7.110  11.322   9.139
37388SOL    HW113997   7.090  11.300   9.049
37388SOL    HW213998   7.126  11.416   9.138
37389SOL     OW13999   8.321  11.965  10.683
37389SOL    HW114000   8.303  11.911  10.760
37389SOL    HW214001   8.321  11.904  10.610
37390SOL     OW14002   2.163   2.524   4.293
37390SOL    HW114003   2.120   2.594   4.243
37390SOL    HW214004   2.256   2.535   4.275
37391SOL     OW14005  11.668   7.875   3.827
37391SOL    HW114006  11.640   7.964   3.847
37391SOL    HW214007  11.625   7.821   3.893
37392SOL     OW14008  11.691   0.856   4.684
37392SOL    HW114009  11.634   0.894   4.751
37392SOL    HW214010  11.763   0.818   4.733
37393SOL     OW14011   2.119   0.903   3.375
37393SOL    HW114012   2.064   0.950   3.438
37393SOL    HW214013   2.193   0.961   3.359
37394SOL     OW14014   8.625  13.616   9.447
37394SOL    HW114015   8.652  13.526   9.465
37394SOL    HW214016   8.599  13.651   9.532
37395SOL     OW14017   4.925   6.715   6.941
37395SOL    HW114018   4.988   6.702   7.012
37395SOL    HW214019   4.873   6.790   6.968
37396SOL     OW14020  11.623  14.191   0.273
37396SOL    HW114021  11.528  14.203   0.273
37396SOL    HW214022  11.658  14.269   0.229
37397SOL     OW14023   6.337  10.635   0.224
37397SOL    HW114024   6.283  10.558   0.242
37397SOL    HW214025   6.284  10.688   0.165
37398SOL     OW14026   3.575   0.099   1.416
37398SOL    HW114027   3.513   0.063   1.480
37398SOL    HW214028   3.564   0.045   1.338
37399SOL     OW14029  14.313   9.547  12.597
37399SOL    HW114030  14.320   9.523  12.505
37399SOL    HW214031  14.237   9.605  12.601
37400SOL     OW14032   5.802   8.755   7.709
37400SOL    HW114033   5.787   8.775   7.801
37400SOL    HW214034   5.801   8.840   7.664
37401SOL     OW14035   3.736   0.387   9.767
37401SOL    HW114036   3.749   0.312   9.709
37401SOL    HW214037   3.824   0.413   9.793
37402SOL     OW14038   3.115  11.648  12.958
37402SOL    HW114039   3.079  11.650  13.046
37402SOL    HW214040   3.080  11.568  12.919
37403SOL     OW14041  10.740   8.238   0.563
37403SOL    HW114042  10.707   8.229   0.474
37403SOL    HW214043  10.823   8.284   0.554
37404SOL     OW14044   5.671  11.328   4.223
37404SOL    HW114045   5.632  11.407   4.188
37404SOL    HW214046   5.662  11.337   4.318
37405SOL     OW14047   6.124  13.401  12.876
37405SOL    HW114048   6.102  13.398  12.969
37405SOL    HW214049   6.186  13.474  12.868
37406SOL     OW14050   1.868  14.874   0.927
37406SOL    HW114051   1.784  14.875   0.880
37406SOL    HW214052   1.847  14.836   1.012
37407SOL     OW14053   4.445  10.169  14.240
37407SOL    HW114054   4.487  10.111  14.176
37407SOL    HW214055   4.515  10.192  14.301
37408SOL     OW14056  14.413   6.626   1.661
37408SOL    HW114057  14.386   6.684   1.590
37408SOL    HW214058  14.344   6.635   1.727
37409SOL     OW14059   9.516   6.984   8.143
37409SOL    HW114060   9.547   7.048   8.206
37409SOL    HW214061   9.495   7.036   8.065
37410SOL     OW14062   3.236  12.077   3.621
37410SOL    HW114063   3.259  12.012   3.688
37410SOL    HW214064   3.319  12.099   3.580
37411SOL     OW14065   8.394   4.963   5.567
37411SOL    HW114066   8.463   4.904   5.537
37411SOL    HW214067   8.315   4.908   5.568
37412SOL     OW14068  12.760   2.893   9.617
37412SOL    HW114069  12.827   2.901   9.685
37412SOL    HW214070  12.685   2.855   9.661
37413SOL     OW14071  10.394  12.181  13.242
37413SOL    HW114072  10.336  12.226  13.180
37413SOL    HW214073  10.372  12.088  13.232
37414SOL     OW14074   0.968   7.751   2.571
37414SOL    HW114075   1.035   7.797   2.520
37414SOL    HW214076   0.885   7.791   2.544
37415SOL     OW14077  13.835   5.405   3.047
37415SOL    HW114078  13.874   5.492   3.033
37415SOL    HW214079  13.740   5.421   3.046
37416SOL     OW14080  10.920   3.442   7.223
37416SOL    HW114081  10.860   3.406   7.289
37416SOL    HW214082  10.900   3.394   7.143
37417SOL     OW14083  14.462   8.181   4.590
37417SOL    HW114084  14.480   8.197   4.682
37417SOL    HW214085  14.368   8.162   4.586
37418SOL     OW14086   0.025   1.596  12.054
37418SOL    HW114087  14.832   1.544  12.019
37418SOL    HW214088  14.878   1.618  12.143
37419SOL     OW14089   0.413   5.062  12.652
37419SOL    HW114090   0.491   5.108  12.685
37419SOL    HW214091   0.375   5.123  12.589
37420SOL     OW14092   0.104   5.766   3.494
37420SOL    HW114093   0.144   5.764   3.407
37420SOL    HW214094   0.094   5.859   3.514
37421SOL     OW14095   6.145   2.531   0.853
37421SOL    HW114096   6.076   2.582   0.811
37421SOL    HW214097   6.097   2.462   0.900
37422SOL     OW14098   7.760   6.456   8.613
37422SOL    HW114099   7.677   6.411   8.601
37422SOL    HW214100   7.801   6.413   8.688
37423SOL     OW14101   4.708   6.083   4.037
37423SOL    HW114102   4.764   6.140   4.090
37423SOL    HW214103   4.753   6.078   3.953
37424SOL     OW14104   6.775   8.584   6.060
37424SOL    HW114105   6.809   8.542   6.139
37424SOL    HW214106   6.817   8.669   6.057
37425SOL     OW14107   8.033   8.410   5.115
37425SOL    HW114108   8.079   8.389   5.034
37425SOL    HW214109   7.999   8.499   5.101
37426SOL     OW14110   0.859  13.866  12.322
37426SOL    HW114111   0.833  13.807  12.394
37426SOL    HW214112   0.776  13.900  12.289
37427SOL     OW14113   7.584  14.698   2.128
37427SOL    HW114114   7.604  14.608   2.156
37427SOL    HW214115   7.583  14.693   2.032
37428SOL     OW14116   3.441   4.740   4.041
37428SOL    HW114117   3.389   4.673   3.996
37428SOL    HW214118   3.421   4.821   3.994
37429SOL     OW14119   3.808   4.318   0.296
37429SOL    HW114120   3.724   4.365   0.296
37429SOL    HW214121   3.783   4.225   0.298
37430SOL     OW14122   4.321  14.495   8.994
37430SOL    HW114123   4.416  14.481   8.992
37430SOL    HW214124   4.310  14.584   8.960
37431SOL     OW14125   4.601  14.716   7.542
37431SOL    HW114126   4.590  14.633   7.494
37431SOL    HW214127   4.610  14.689   7.634
37432SOL     OW14128   3.089  12.481  14.194
37432SOL    HW114129   3.160  12.419  14.176
37432SOL    HW214130   3.090  12.540  14.119
37433SOL     OW14131   1.864   2.014   4.964
37433SOL    HW114132   1.788   2.071   4.977
37433SOL    HW214133   1.836   1.930   5.002
37434SOL     OW14134   6.487  13.639   0.770
37434SOL    HW114135   6.458  13.704   0.834
37434SOL    HW214136   6.424  13.567   0.779
37435SOL     OW14137  11.370   0.697   4.213
37435SOL    HW114138  11.447   0.719   4.162
37435SOL    HW214139  11.384   0.741   4.297
37436SOL     OW14140  14.652  13.060  13.656
37436SOL    HW114141  14.688  12.979  13.693
37436SOL    HW214142  14.655  13.123  13.728
37437SOL     OW14143  12.621   7.103  14.723
37437SOL    HW114144  12.602   7.063  14.638
37437SOL    HW214145  12.541   7.091  14.774
37438SOL     OW14146  14.051  10.056   5.295
37438SOL    HW114147  14.035   9.962   5.286
37438SOL    HW214148  13.966  10.097   5.279
37439SOL     OW14149   4.538   7.891   8.507
37439SOL    HW114150   4.572   7.971   8.548
37439SOL    HW214151   4.569   7.896   8.417
37440SOL     OW14152   3.536   3.132   7.514
37440SOL    HW114153   3.627   3.157   7.528
37440SOL    HW214154   3.538   3.037   7.507
37441SOL     OW14155  12.638   3.705   6.871
37441SOL    HW114156  12.668   3.630   6.819
37441SOL    HW214157  12.587   3.666   6.942
37442SOL     OW14158   1.611   8.321   9.896
37442SOL    HW114159   1.535   8.346   9.844
37442SOL    HW214160   1.574   8.271   9.970
37443SOL     OW14161   7.961   2.811   7.743
37443SOL    HW114162   8.045   2.807   7.788
37443SOL    HW214163   7.910   2.739   7.780
37444SOL     OW14164   5.398   5.934   8.816
37444SOL    HW114165   5.401   5.839   8.816
37444SOL    HW214166   5.424   5.960   8.728
37445SOL     OW14167  10.187   8.996  12.980
37445SOL    HW114168  10.159   8.915  12.937
37445SOL    HW214169  10.224   8.967  13.063
37446SOL     OW14170   8.881   7.400   8.237
37446SOL    HW114171   8.889   7.377   8.330
37446SOL    HW214172   8.966   7.378   8.200
37447SOL     OW14173  11.718   1.496   5.342
37447SOL    HW114174  11.693   1.588   5.336
37447SOL    HW214175  11.785   1.485   5.275
37448SOL     OW14176   6.916   8.153  10.962
37448SOL    HW114177   6.854   8.226  10.972
37448SOL    HW214178   6.930   8.121  11.051
37449SOL     OW14179   7.281  11.678  13.910
37449SOL    HW114180   7.331  11.609  13.952
37449SOL    HW214181   7.202  11.635  13.878
37450SOL     OW14182  11.432  10.270   8.988
37450SOL    HW114183  11.498  10.302   8.927
37450SOL    HW214184  11.475  10.197   9.033
37451SOL     OW14185  13.627   4.855  12.314
37451SOL    HW114186  13.580   4.803  12.249
37451SOL    HW214187  13.586   4.831  12.398
37452SOL     OW14188  13.342  10.075   2.222
37452SOL    HW114189  13.399  10.117   2.286
37452SOL    HW214190  13.253  10.102   2.247
37453SOL     OW14191  12.001  13.001  10.809
37453SOL    HW114192  12.033  13.021  10.721
37453SOL    HW214193  11.954  12.918  10.798
37454SOL     OW14194   3.274  10.332   3.579
37454SOL    HW114195   3.208  10.395   3.608
37454SOL    HW214196   3.309  10.296   3.661
37455SOL     OW14197  13.390   4.380   4.272
37455SOL    HW114198  13.334   4.452   4.243
37455SOL    HW214199  13.419   4.406   4.360
37456SOL     OW14200  10.571   2.075   1.438
37456SOL    HW114201  10.611   2.158   1.409
37456SOL    HW214202  10.588   2.072   1.532
37457SOL     OW14203   1.035   5.054   0.725
37457SOL    HW114204   0.979   4.976   0.722
37457SOL    HW214205   0.975   5.127   0.711
37458SOL     OW14206   4.422  10.384  10.491
37458SOL    HW114207   4.496  10.397  10.550
37458SOL    HW214208   4.461  10.384  10.403
37459SOL     OW14209   9.395  13.549   9.636
37459SOL    HW114210   9.475  13.591   9.666
37459SOL    HW214211   9.392  13.466   9.683
37460SOL     OW14212   8.449   3.348   6.891
37460SOL    HW114213   8.513   3.292   6.933
37460SOL    HW214214   8.374   3.349   6.951
37461SOL     OW14215  11.823  13.712   3.307
37461SOL    HW114216  11.808  13.676   3.395
37461SOL    HW214217  11.752  13.675   3.254
37462SOL     OW14218  11.406  10.633   0.764
37462SOL    HW114219  11.488  10.661   0.803
37462SOL    HW214220  11.388  10.698   0.696
37463SOL     OW14221   3.854  10.618  12.763
37463SOL    HW114222   3.768  10.651  12.735
37463SOL    HW214223   3.903  10.696  12.786
37464SOL     OW14224   5.348   4.657   0.157
37464SOL    HW114225   5.292   4.637   0.231
37464SOL    HW214226   5.288   4.665   0.082
37465SOL     OW14227   8.303   2.442   1.132
37465SOL    HW114228   8.217   2.410   1.103
37465SOL    HW214229   8.310   2.529   1.093
37466SOL     OW14230   6.202  14.010  14.274
37466SOL    HW114231   6.280  14.039  14.320
37466SOL    HW214232   6.233  13.986  14.187
37467SOL     OW14233   2.983  10.362  14.045
37467SOL    HW114234   3.042  10.436  14.030
37467SOL    HW214235   2.895  10.397  14.035
37468SOL     OW14236   5.545   4.555   5.283
37468SOL    HW114237   5.453   4.569   5.304
37468SOL    HW214238   5.550   4.571   5.188
37469SOL     OW14239   2.181  11.548  12.286
37469SOL    HW114240   2.147  11.500  12.361
37469SOL    HW214241   2.131  11.515  12.212
37470SOL     OW14242  12.304   4.373   4.993
37470SOL    HW114243  12.246   4.338   4.925
37470SOL    HW214244  12.270   4.338   5.075
37471SOL     OW14245  13.507  10.698   0.547
37471SOL    HW114246  13.554  10.623   0.583
37471SOL    HW214247  13.419  10.664   0.530
37472SOL     OW14248   3.370   3.300   6.791
37472SOL    HW114249   3.385   3.292   6.885
37472SOL    HW214250   3.300   3.238   6.772
37473SOL     OW14251  12.264   6.995   6.615
37473SOL    HW114252  12.206   6.941   6.669
37473SOL    HW214253  12.325   7.034   6.676
37474SOL     OW14254   7.936  14.412  13.361
37474SOL    HW114255   7.846  14.445  13.361
37474SOL    HW214256   7.990  14.491  13.357
37475SOL     OW14257   2.697   8.656  11.586
37475SOL    HW114258   2.717   8.564  11.600
37475SOL    HW214259   2.657   8.684  11.669
37476SOL     OW14260  11.904   3.546  11.038
37476SOL    HW114261  11.965   3.595  11.094
37476SOL    HW214262  11.861   3.485  11.097
37477SOL     OW14263  12.766   5.528   9.779
37477SOL    HW114264  12.714   5.452   9.753
37477SOL    HW214265  12.842   5.490   9.823
37478SOL     OW14266  12.823   8.015   3.435
37478SOL    HW114267  12.763   8.086   3.415
37478SOL    HW214268  12.811   7.952   3.364
37479SOL     OW14269   6.268  10.500   7.496
37479SOL    HW114270   6.201  10.477   7.560
37479SOL    HW214271   6.250  10.443   7.421
37480SOL     OW14272   7.431   0.124   7.479
37480SOL    HW114273   7.356   0.159   7.431
37480SOL    HW214274   7.496   0.194   7.475
37481SOL     OW14275  12.904  13.905   5.145
37481SOL    HW114276  12.884  13.813   5.129
37481SOL    HW214277  12.987  13.920   5.101
37482SOL     OW14278   0.730   6.453   7.401
37482SOL    HW114279   0.673   6.522   7.368
37482SOL    HW214280   0.768   6.414   7.322
37483SOL     OW14281   4.802   4.167   8.283
37483SOL    HW114282   4.873   4.164   8.348
37483SOL    HW214283   4.722   4.166   8.336
37484SOL     OW14284   6.296   9.944   7.133
37484SOL    HW114285   6.351   9.967   7.058
37484SOL    HW214286   6.263   9.856   7.113
37485SOL     OW14287  12.338   0.449  13.006
37485SOL    HW114288  12.272   0.483  13.067
37485SOL    HW214289  12.399   0.400  13.062
37486SOL     OW14290  12.658   4.811  12.149
37486SOL    HW114291  12.627   4.752  12.080
37486SOL    HW214292  12.582   4.867  12.168
37487SOL     OW14293   2.672   1.721   5.599
37487SOL    HW114294   2.695   1.629   5.607
37487SOL    HW214295   2.639   1.745   5.686
37488SOL     OW14296  12.470   5.601  14.062
37488SOL    HW114297  12.404   5.600  13.992
37488SOL    HW214298  12.478   5.509  14.088
37489SOL     OW14299   4.234   3.965   8.512
37489SOL    HW114300   4.213   3.913   8.434
37489SOL    HW214301   4.206   4.054   8.490
37490SOL     OW14302   7.171   6.481   0.909
37490SOL    HW114303   7.240   6.416   0.911
37490SOL    HW214304   7.142   6.482   0.818
37491SOL     OW14305   0.632  12.355  12.073
37491SOL    HW114306   0.680  12.283  12.115
37491SOL    HW214307   0.541  12.343  12.100
37492SOL     OW14308   3.012  11.630   6.735
37492SOL    HW114309   2.986  11.706   6.682
37492SOL    HW214310   2.971  11.645   6.820
37493SOL     OW14311   4.494   3.463   9.464
37493SOL    HW114312   4.568   3.482   9.522
37493SOL    HW214313   4.426   3.524   9.493
37494SOL     OW14314   2.246   6.623   4.448
37494SOL    HW114315   2.335   6.597   4.474
37494SOL    HW214316   2.190   6.555   4.486
37495SOL     OW14317   9.962   2.806  14.049
37495SOL    HW114318   9.880   2.828  14.004
37495SOL    HW214319  10.006   2.890  14.059
37496SOL     OW14320   0.066   6.843  11.841
37496SOL    HW114321   0.102   6.841  11.930
37496SOL    HW214322   0.120   6.781  11.793
37497SOL     OW14323   1.253   4.745  10.231
37497SOL    HW114324   1.328   4.760  10.288
37497SOL    HW214325   1.179   4.785  10.277
37498SOL     OW14326   2.924   1.397   1.166
37498SOL    HW114327   3.014   1.413   1.136
37498SOL    HW214328   2.870   1.447   1.105
37499SOL     OW14329   5.172  11.990   2.211
37499SOL    HW114330   5.158  11.985   2.116
37499SOL    HW214331   5.250  11.936   2.227
37500SOL     OW14332   8.685  14.028   2.594
37500SOL    HW114333   8.734  13.970   2.536
37500SOL    HW214334   8.593  14.009   2.576
37501SOL     OW14335   5.213   4.504  14.685
37501SOL    HW114336   5.208   4.421  14.732
37501SOL    HW214337   5.247   4.481  14.598
37502SOL     OW14338  13.085   1.448   5.487
37502SOL    HW114339  13.085   1.477   5.396
37502SOL    HW214340  13.165   1.396   5.496
37503SOL     OW14341   2.287   0.500   8.821
37503SOL    HW114342   2.246   0.571   8.871
37503SOL    HW214343   2.353   0.543   8.767
37504SOL     OW14344   6.621   5.791  11.340
37504SOL    HW114345   6.610   5.786  11.435
37504SOL    HW214346   6.712   5.764  11.326
37505SOL     OW14347   1.227   0.961  11.579
37505SOL    HW114348   1.163   0.893  11.595
37505SOL    HW214349   1.217   1.022  11.652
37506SOL     OW14350   1.541   7.147   1.048
37506SOL    HW114351   1.546   7.055   1.073
37506SOL    HW214352   1.459   7.178   1.087
37507SOL     OW14353  14.742  13.283   8.864
37507SOL    HW114354  14.676  13.221   8.832
37507SOL    HW214355  14.755  13.260   8.956
37508SOL     OW14356  11.601   7.705  10.838
37508SOL    HW114357  11.611   7.650  10.760
37508SOL    HW214358  11.506   7.717  10.846
37509SOL     OW14359  11.699  14.129   6.901
37509SOL    HW114360  11.765  14.183   6.945
37509SOL    HW214361  11.664  14.073   6.971
37510SOL     OW14362  14.276   0.352  13.477
37510SOL    HW114363  14.230   0.431  13.506
37510SOL    HW214364  14.368   0.377  13.480
37511SOL     OW14365   0.321   7.487   5.533
37511SOL    HW114366   0.346   7.485   5.625
37511SOL    HW214367   0.269   7.567   5.524
37512SOL     OW14368  13.128   9.011   5.140
37512SOL    HW114369  13.043   9.018   5.183
37512SOL    HW214370  13.109   9.012   5.047
37513SOL     OW14371  10.814   0.787   8.596
37513SOL    HW114372  10.866   0.865   8.581
37513SOL    HW214373  10.732   0.819   8.634
37514SOL     OW14374   7.577  10.697   9.013
37514SOL    HW114375   7.489  10.673   9.041
37514SOL    HW214376   7.587  10.654   8.928
37515SOL     OW14377   9.256   9.519   1.772
37515SOL    HW114378   9.198   9.490   1.843
37515SOL    HW214379   9.343   9.522   1.812
37516SOL     OW14380   1.189  14.072  12.034
37516SOL    HW114381   1.223  14.162  12.039
37516SOL    HW214382   1.214  14.033  12.118
37517SOL     OW14383  11.732   0.183   6.298
37517SOL    HW114384  11.752   0.244   6.226
37517SOL    HW214385  11.750   0.233   6.377
37518SOL     OW14386   8.144   8.129   8.409
37518SOL    HW114387   8.074   8.130   8.473
37518SOL    HW214388   8.108   8.174   8.332
37519SOL     OW14389  14.441  14.191  13.471
37519SOL    HW114390  14.507  14.253  13.500
37519SOL    HW214391  14.468  14.107  13.510
37520SOL     OW14392   8.001   3.066   5.693
37520SOL    HW114393   8.062   3.117   5.747
37520SOL    HW214394   8.057   3.025   5.627
37521SOL     OW14395   0.554   0.993   2.128
37521SOL    HW114396   0.526   1.045   2.203
37521SOL    HW214397   0.621   1.046   2.085
37522SOL     OW14398  13.552   6.379  12.849
37522SOL    HW114399  13.640   6.374  12.812
37522SOL    HW214400  13.553   6.315  12.920
37523SOL     OW14401   7.706   9.070   6.356
37523SOL    HW114402   7.643   9.112   6.414
37523SOL    HW214403   7.767   9.025   6.415
37524SOL     OW14404   9.733   1.360   7.151
37524SOL    HW114405   9.755   1.270   7.128
37524SOL    HW214406   9.787   1.413   7.093
37525SOL     OW14407   4.954   8.005   0.545
37525SOL    HW114408   4.994   7.925   0.579
37525SOL    HW214409   4.925   7.981   0.457
37526SOL     OW14410   6.800  14.766   6.455
37526SOL    HW114411   6.756  14.684   6.436
37526SOL    HW214412   6.750  14.832   6.406
37527SOL     OW14413  12.478   1.106   2.670
37527SOL    HW114414  12.467   1.173   2.737
37527SOL    HW214415  12.570   1.079   2.677
37528SOL     OW14416   3.514   6.633  12.975
37528SOL    HW114417   3.441   6.576  13.001
37528SOL    HW214418   3.483   6.676  12.895
37529SOL     OW14419   1.667   2.181   7.872
37529SOL    HW114420   1.671   2.266   7.915
37529SOL    HW214421   1.756   2.148   7.875
37530SOL     OW14422  10.151  10.928   8.693
37530SOL    HW114423  10.111  10.848   8.727
37530SOL    HW214424  10.171  10.908   8.601
37531SOL     OW14425  11.183   1.484   2.179
37531SOL    HW114426  11.148   1.520   2.260
37531SOL    HW214427  11.108   1.476   2.120
37532SOL     OW14428   9.019   2.718   3.541
37532SOL    HW114429   9.001   2.635   3.585
37532SOL    HW214430   9.111   2.736   3.560
37533SOL     OW14431  13.324   8.485   4.497
37533SOL    HW114432  13.274   8.440   4.428
37533SOL    HW214433  13.340   8.572   4.461
37534SOL     OW14434   0.691   5.965   2.656
37534SOL    HW114435   0.653   6.041   2.613
37534SOL    HW214436   0.626   5.896   2.645
37535SOL     OW14437   6.412  11.605   5.813
37535SOL    HW114438   6.420  11.663   5.889
37535SOL    HW214439   6.491  11.623   5.761
37536SOL     OW14440   9.813   4.834   4.398
37536SOL    HW114441   9.755   4.872   4.464
37536SOL    HW214442   9.814   4.898   4.327
37537SOL     OW14443   1.167  12.147   1.540
37537SOL    HW114444   1.114  12.180   1.468
37537SOL    HW214445   1.214  12.224   1.573
37538SOL     OW14446   0.824   9.152   9.078
37538SOL    HW114447   0.894   9.181   9.137
37538SOL    HW214448   0.769   9.230   9.066
37539SOL     OW14449  11.041  13.338  13.123
37539SOL    HW114450  11.041  13.337  13.219
37539SOL    HW214451  11.057  13.429  13.100
37540SOL     OW14452  10.207   9.177   1.227
37540SOL    HW114453  10.192   9.210   1.315
37540SOL    HW214454  10.285   9.224   1.196
37541SOL     OW14455  12.464   0.053   3.146
37541SOL    HW114456  12.397   0.018   3.088
37541SOL    HW214457  12.515  14.856   3.173
37542SOL     OW14458   5.147   2.124   1.628
37542SOL    HW114459   5.127   2.042   1.582
37542SOL    HW214460   5.129   2.104   1.720
37543SOL     OW14461   0.245  12.198  14.091
37543SOL    HW114462   0.212  12.256  14.022
37543SOL    HW214463   0.289  12.257  14.152
37544SOL     OW14464  12.411   5.226   9.226
37544SOL    HW114465  12.470   5.251   9.154
37544SOL    HW214466  12.355   5.158   9.188
37545SOL     OW14467   3.643   6.193  12.287
37545SOL    HW114468   3.599   6.155  12.363
37545SOL    HW214469   3.590   6.164  12.213
37546SOL     OW14470   9.524   4.059   9.443
37546SOL    HW114471   9.474   4.133   9.475
37546SOL    HW214472   9.579   4.094   9.372
37547SOL     OW14473   7.304   1.706  10.550
37547SOL    HW114474   7.241   1.653  10.501
37547SOL    HW214475   7.375   1.723  10.488
37548SOL     OW14476  11.737  12.352   4.586
37548SOL    HW114477  11.824  12.315   4.600
37548SOL    HW214478  11.707  12.313   4.504
37549SOL     OW14479  14.765  14.847  10.602
37549SOL    HW114480  14.861  14.844  10.603
37549SOL    HW214481  14.742   0.015  10.682
37550SOL     OW14482   6.821   9.237  11.716
37550SOL    HW114483   6.899   9.195  11.680
37550SOL    HW214484   6.854   9.316  11.759
37551SOL     OW14485   8.244   4.558   3.383
37551SOL    HW114486   8.223   4.637   3.432
37551SOL    HW214487   8.206   4.573   3.296
37552SOL     OW14488   1.280   7.184  12.127
37552SOL    HW114489   1.332   7.264  12.125
37552SOL    HW214490   1.270   7.164  12.220
37553SOL     OW14491  11.558   9.019   3.235
37553SOL    HW114492  11.545   8.956   3.164
37553SOL    HW214493  11.560   9.104   3.192
37554SOL     OW14494   7.704   1.241   9.381
37554SOL    HW114495   7.727   1.304   9.449
37554SOL    HW214496   7.613   1.219   9.398
37555SOL     OW14497   4.661  10.173   8.603
37555SOL    HW114498   4.686  10.226   8.679
37555SOL    HW214499   4.743  10.130   8.577
37556SOL     OW14500  14.783  11.625  12.036
37556SOL    HW114501  14.792  11.713  12.071
37556SOL    HW214502  14.727  11.580  12.099
37557SOL     OW14503   8.252  14.859  12.588
37557SOL    HW114504   8.345  14.867  12.609
37557SOL    HW214505   8.226  14.776  12.629
37558SOL     OW14506   4.037  10.434   5.197
37558SOL    HW114507   3.999  10.360   5.150
37558SOL    HW214508   4.115  10.398   5.240
37559SOL     OW14509   7.958   4.018   3.819
37559SOL    HW114510   8.022   3.947   3.821
37559SOL    HW214511   7.945   4.036   3.726
37560SOL     OW14512   6.393   7.329   0.392
37560SOL    HW114513   6.425   7.239   0.400
37560SOL    HW214514   6.378   7.340   0.298
37561SOL     OW14515   7.014   5.453   3.873
37561SOL    HW114516   7.012   5.420   3.962
37561SOL    HW214517   6.928   5.493   3.860
37562SOL     OW14518  13.401   4.833   3.616
37562SOL    HW114519  13.375   4.744   3.639
37562SOL    HW214520  13.476   4.851   3.673
37563SOL     OW14521   5.572   6.092  13.599
37563SOL    HW114522   5.625   6.138  13.534
37563SOL    HW214523   5.631   6.081  13.674
37564SOL     OW14524   2.103  12.210   6.157
37564SOL    HW114525   2.038  12.156   6.203
37564SOL    HW214526   2.187  12.166   6.175
37565SOL     OW14527   9.949  12.675   2.612
37565SOL    HW114528   9.888  12.602   2.602
37565SOL    HW214529   9.923  12.717   2.694
37566SOL     OW14530   0.761  14.387  13.040
37566SOL    HW114531   0.714  14.330  12.978
37566SOL    HW214532   0.709  14.466  13.044
37567SOL     OW14533  10.619   1.077  11.808
37567SOL    HW114534  10.546   1.060  11.749
37567SOL    HW214535  10.674   1.139  11.760
37568SOL     OW14536   4.313   3.590  10.872
37568SOL    HW114537   4.370   3.649  10.823
37568SOL    HW214538   4.367   3.512  10.888
37569SOL     OW14539  13.097   3.784   2.665
37569SOL    HW114540  13.124   3.793   2.757
37569SOL    HW214541  13.053   3.867   2.645
37570SOL     OW14542  10.307   9.036   3.828
37570SOL    HW114543  10.345   8.993   3.752
37570SOL    HW214544  10.364   9.112   3.845
37571SOL     OW14545   0.547   5.665   2.033
37571SOL    HW114546   0.581   5.715   1.959
37571SOL    HW214547   0.562   5.721   2.109
37572SOL     OW14548   3.076   1.727  11.479
37572SOL    HW114549   3.068   1.744  11.385
37572SOL    HW214550   2.990   1.692  11.504
37573SOL     OW14551   3.238  11.338   2.887
37573SOL    HW114552   3.182  11.321   2.812
37573SOL    HW214553   3.263  11.430   2.879
37574SOL     OW14554   5.968   1.362   8.858
37574SOL    HW114555   5.979   1.268   8.865
37574SOL    HW214556   5.873   1.376   8.857
37575SOL     OW14557   3.509   0.037   8.184
37575SOL    HW114558   3.429  14.864   8.190
37575SOL    HW214559   3.551   0.007   8.103
37576SOL     OW14560  14.193  10.697   5.257
37576SOL    HW114561  14.172  10.630   5.193
37576SOL    HW214562  14.111  10.714   5.303
37577SOL     OW14563   8.804  11.470   7.837
37577SOL    HW114564   8.805  11.378   7.861
37577SOL    HW214565   8.759  11.473   7.753
37578SOL     OW14566   4.577  11.272   7.742
37578SOL    HW114567   4.554  11.193   7.792
37578SOL    HW214568   4.502  11.286   7.684
37579SOL     OW14569   9.028  11.205   9.757
37579SOL    HW114570   8.969  11.145   9.803
37579SOL    HW214571   9.024  11.286   9.808
37580SOL     OW14572  13.399   5.993   9.773
37580SOL    HW114573  13.306   6.001   9.749
37580SOL    HW214574  13.442   5.966   9.692
37581SOL     OW14575   8.000   2.955  13.548
37581SOL    HW114576   7.988   2.993  13.635
37581SOL    HW214577   8.069   3.009  13.508
37582SOL     OW14578   7.471  14.854   2.995
37582SOL    HW114579   7.564  14.870   3.007
37582SOL    HW214580   7.466  14.769   2.952
37583SOL     OW14581   7.426   3.252  14.142
37583SOL    HW114582   7.450   3.163  14.116
37583SOL    HW214583   7.409   3.246  14.236
37584SOL     OW14584   9.945   7.695   2.838
37584SOL    HW114585   9.942   7.787   2.864
37584SOL    HW214586   9.855   7.664   2.850
37585SOL     OW14587   0.331   1.784  13.767
37585SOL    HW114588   0.259   1.777  13.705
37585SOL    HW214589   0.407   1.752  13.718
37586SOL     OW14590  12.938   2.736   4.793
37586SOL    HW114591  12.928   2.758   4.701
37586SOL    HW214592  12.930   2.819   4.839
37587SOL     OW14593   8.828   8.965  12.746
37587SOL    HW114594   8.742   8.936  12.718
37587SOL    HW214595   8.883   8.887  12.742
37588SOL     OW14596   0.398   0.807  14.297
37588SOL    HW114597   0.372   0.899  14.284
37588SOL    HW214598   0.428   0.778  14.211
37589SOL     OW14599   7.314  13.400  13.810
37589SOL    HW114600   7.369  13.437  13.740
37589SOL    HW214601   7.376  13.377  13.879
37590SOL     OW14602  13.607   1.511  10.171
37590SOL    HW114603  13.677   1.575  10.160
37590SOL    HW214604  13.530   1.563  10.195
37591SOL     OW14605   9.827  10.413   5.826
37591SOL    HW114606   9.736  10.398   5.851
37591SOL    HW214607   9.857  10.484   5.884
37592SOL     OW14608   5.218  10.553  14.019
37592SOL    HW114609   5.208  10.624  14.083
37592SOL    HW214610   5.158  10.577  13.948
37593SOL     OW14611   1.394  10.448   6.910
37593SOL    HW114612   1.313  10.429   6.958
37593SOL    HW214613   1.427  10.528   6.950
37594SOL     OW14614   8.387   8.011   6.340
37594SOL    HW114615   8.366   8.038   6.251
37594SOL    HW214616   8.413   7.920   6.333
37595SOL     OW14617  14.173   5.325  12.985
37595SOL    HW114618  14.209   5.238  12.999
37595SOL    HW214619  14.242   5.384  13.015
37596SOL     OW14620   2.653   6.264  14.826
37596SOL    HW114621   2.587   6.329  14.849
37596SOL    HW214622   2.719   6.272   0.016
37597SOL     OW14623   5.987   9.995  13.075
37597SOL    HW114624   6.035   9.922  13.036
37597SOL    HW214625   5.953   9.959  13.157
37598SOL     OW14626   9.002   6.316   2.917
37598SOL    HW114627   9.051   6.303   2.836
37598SOL    HW214628   9.069   6.330   2.984
37599SOL     OW14629  14.137  12.823   1.460
37599SOL    HW114630  14.119  12.730   1.476
37599SOL    HW214631  14.215  12.823   1.405
37600SOL     OW14632   9.142   8.934   6.964
37600SOL    HW114633   9.054   8.966   6.945
37600SOL    HW214634   9.133   8.838   6.963
37601SOL     OW14635   8.350  12.706  10.350
37601SOL    HW114636   8.274  12.728  10.404
37601SOL    HW214637   8.313  12.675  10.267
37602SOL     OW14638   1.965  13.005  11.801
37602SOL    HW114639   2.029  12.964  11.743
37602SOL    HW214640   2.018  13.057  11.862
37603SOL     OW14641  12.563   5.997  13.210
37603SOL    HW114642  12.627   5.979  13.141
37603SOL    HW214643  12.488   6.035  13.164
37604SOL     OW14644  12.911  12.547  10.845
37604SOL    HW114645  12.836  12.570  10.900
37604SOL    HW214646  12.932  12.627  10.798
37605SOL     OW14647   5.953  14.754   3.256
37605SOL    HW114648   6.016  14.686   3.280
37605SOL    HW214649   5.909  14.776   3.337
37606SOL     OW14650   9.068  13.831  12.455
37606SOL    HW114651   9.108  13.909  12.418
37606SOL    HW214652   9.105  13.759  12.404
37607SOL     OW14653   5.292  14.471   2.940
37607SOL    HW114654   5.302  14.435   2.851
37607SOL    HW214655   5.296  14.566   2.928
37608SOL     OW14656  13.776  13.437   7.528
37608SOL    HW114657  13.681  13.444   7.530
37608SOL    HW214658  13.807  13.497   7.596
37609SOL     OW14659   3.263  10.824   3.926
37609SOL    HW114660   3.259  10.903   3.872
37609SOL    HW214661   3.232  10.852   4.012
37610SOL     OW14662   5.017   6.564  10.546
37610SOL    HW114663   5.020   6.558  10.641
37610SOL    HW214664   5.076   6.636  10.524
37611SOL     OW14665   8.881   7.713   0.101
37611SOL    HW114666   8.844   7.665   0.026
37611SOL    HW214667   8.840   7.673   0.177
37612SOL     OW14668  12.319   7.590  12.202
37612SOL    HW114669  12.224   7.587  12.213
37612SOL    HW214670  12.339   7.515  12.145
37613SOL     OW14671   4.689   3.914   2.391
37613SOL    HW114672   4.668   3.846   2.326
37613SOL    HW214673   4.620   3.979   2.381
37614SOL     OW14674  10.386   6.122   7.704
37614SOL    HW114675  10.327   6.182   7.750
37614SOL    HW214676  10.342   6.104   7.621
37615SOL     OW14677  13.858   0.744   4.301
37615SOL    HW114678  13.780   0.794   4.275
37615SOL    HW214679  13.853   0.740   4.396
37616SOL     OW14680  10.338  12.136  10.936
37616SOL    HW114681  10.303  12.067  10.992
37616SOL    HW214682  10.431  12.138  10.954
37617SOL     OW14683  11.614   5.292  12.262
37617SOL    HW114684  11.690   5.338  12.299
37617SOL    HW214685  11.589   5.343  12.186
37618SOL     OW14686   2.495  11.699   9.277
37618SOL    HW114687   2.560  11.629   9.267
37618SOL    HW214688   2.541  11.767   9.326
37619SOL     OW14689   2.865  11.241  14.666
37619SOL    HW114690   2.781  11.244  14.712
37619SOL    HW214691   2.866  11.156  14.622
37620SOL     OW14692   1.769   6.866   7.931
37620SOL    HW114693   1.688   6.816   7.936
37620SOL    HW214694   1.803   6.847   7.843
37621SOL     OW14695  14.144   4.283   1.204
37621SOL    HW114696  14.067   4.226   1.195
37621SOL    HW214697  14.184   4.283   1.117
37622SOL     OW14698  10.186   3.360  12.784
37622SOL    HW114699  10.101   3.369  12.742
37622SOL    HW214700  10.195   3.266  12.800
37623SOL     OW14701   7.484   8.855  13.042
37623SOL    HW114702   7.540   8.780  13.061
37623SOL    HW214703   7.412   8.848  13.106
37624SOL     OW14704   6.069  10.927   5.336
37624SOL    HW114705   6.151  10.971   5.360
37624SOL    HW214706   6.097  10.844   5.296
37625SOL     OW14707   2.293   5.968   2.261
37625SOL    HW114708   2.261   5.937   2.177
37625SOL    HW214709   2.221   6.020   2.297
37626SOL     OW14710   2.279   3.277   4.046
37626SOL    HW114711   2.258   3.194   4.003
37626SOL    HW214712   2.198   3.328   4.040
37627SOL     OW14713  14.256  10.122   9.425
37627SOL    HW114714  14.197  10.120   9.501
37627SOL    HW214715  14.333  10.074   9.454
37628SOL     OW14716  13.937   6.862   5.889
37628SOL    HW114717  13.956   6.944   5.934
37628SOL    HW214718  13.843   6.848   5.906
37629SOL     OW14719  14.593   5.495  13.531
37629SOL    HW114720  14.664   5.555  13.553
37629SOL    HW214721  14.575   5.512  13.438
37630SOL     OW14722   6.198   1.632   0.304
37630SOL    HW114723   6.191   1.625   0.399
37630SOL    HW214724   6.290   1.618   0.284
37631SOL     OW14725   4.323  13.012   1.284
37631SOL    HW114726   4.258  13.071   1.322
37631SOL    HW214727   4.348  12.954   1.356
37632SOL     OW14728   6.441  13.340   2.675
37632SOL    HW114729   6.390  13.362   2.597
37632SOL    HW214730   6.375  13.318   2.741
37633SOL     OW14731  11.343  13.028   6.042
37633SOL    HW114732  11.273  13.092   6.049
37633SOL    HW214733  11.332  12.972   6.119
37634SOL     OW14734  10.094   0.370   4.300
37634SOL    HW114735  10.059   0.290   4.258
37634SOL    HW214736  10.041   0.380   4.379
37635SOL     OW14737   8.416   4.763  12.937
37635SOL    HW114738   8.334   4.749  12.984
37635SOL    HW214739   8.398   4.835  12.877
37636SOL     OW14740   6.761   8.727  14.353
37636SOL    HW114741   6.771   8.633  14.368
37636SOL    HW214742   6.821   8.747  14.281
37637SOL     OW14743  13.161   8.603   2.047
37637SOL    HW114744  13.106   8.680   2.034
37637SOL    HW214745  13.122   8.557   2.121
37638SOL     OW14746  11.022  10.925   0.212
37638SOL    HW114747  11.043  10.870   0.136
37638SOL    HW214748  11.057  10.876   0.286
37639SOL     OW14749   4.104  14.412   9.548
37639SOL    HW114750   4.087  14.320   9.528
37639SOL    HW214751   4.177  14.436   9.491
37640SOL     OW14752   7.924   1.137   5.255
37640SOL    HW114753   7.996   1.092   5.210
37640SOL    HW214754   7.855   1.071   5.262
37641SOL     OW14755  12.065  12.943   0.564
37641SOL    HW114756  11.977  12.968   0.536
37641SOL    HW214757  12.121  13.013   0.530
37642SOL     OW14758   8.319   4.943   9.131
37642SOL    HW114759   8.383   4.897   9.076
37642SOL    HW214760   8.353   5.032   9.138
37643SOL     OW14761  10.500   8.473  10.786
37643SOL    HW114762  10.436   8.412  10.823
37643SOL    HW214763  10.476   8.558  10.822
37644SOL     OW14764  12.722  12.991  13.134
37644SOL    HW114765  12.798  13.007  13.078
37644SOL    HW214766  12.648  12.983  13.075
37645SOL     OW14767   4.418   4.191   4.265
37645SOL    HW114768   4.389   4.103   4.243
37645SOL    HW214769   4.492   4.207   4.206
37646SOL     OW14770   2.975   9.624   1.141
37646SOL    HW114771   3.030   9.559   1.096
37646SOL    HW214772   2.907   9.572   1.184
37647SOL     OW14773  10.448  10.119   9.479
37647SOL    HW114774  10.505  10.098   9.553
37647SOL    HW214775  10.482  10.201   9.445
37648SOL     OW14776   2.149   1.542   4.577
37648SOL    HW114777   2.240   1.526   4.601
37648SOL    HW214778   2.142   1.638   4.573
37649SOL     OW14779   7.711  14.040   9.445
37649SOL    HW114780   7.755  14.070   9.365
37649SOL    HW214781   7.772  14.062   9.515
37650SOL     OW14782  12.774  12.263   5.899
37650SOL    HW114783  12.766  12.271   5.994
37650SOL    HW214784  12.829  12.336   5.873
37651SOL     OW14785  14.027   5.683   8.358
37651SOL    HW114786  14.055   5.756   8.414
37651SOL    HW214787  13.941   5.658   8.393
37652SOL     OW14788   0.851   3.660   8.563
37652SOL    HW114789   0.876   3.715   8.637
37652SOL    HW214790   0.886   3.706   8.486
37653SOL     OW14791  13.064   5.730   4.408
37653SOL    HW114792  13.060   5.811   4.356
37653SOL    HW214793  12.983   5.732   4.460
37654SOL     OW14794   1.998   3.966   7.474
37654SOL    HW114795   1.917   3.941   7.517
37654SOL    HW214796   2.061   3.899   7.501
37655SOL     OW14797  13.899   4.461   6.295
37655SOL    HW114798  13.869   4.533   6.350
37655SOL    HW214799  13.825   4.440   6.239
37656SOL     OW14800   5.885   5.256   4.664
37656SOL    HW114801   5.805   5.204   4.655
37656SOL    HW214802   5.953   5.200   4.627
37657SOL     OW14803  13.418   1.731   2.725
37657SOL    HW114804  13.356   1.671   2.683
37657SOL    HW214805  13.386   1.740   2.815
37658SOL     OW14806   2.226   8.483   1.084
37658SOL    HW114807   2.173   8.423   1.032
37658SOL    HW214808   2.166   8.555   1.106
37659SOL     OW14809   9.734   5.890  12.993
37659SOL    HW114810   9.679   5.873  12.916
37659SOL    HW214811   9.717   5.816  13.051
37660SOL     OW14812   2.757   3.048  12.067
37660SOL    HW114813   2.805   2.999  12.134
37660SOL    HW214814   2.795   3.020  11.984
37661SOL     OW14815   2.261   8.371  10.886
37661SOL    HW114816   2.214   8.294  10.853
37661SOL    HW214817   2.202   8.410  10.950
37662SOL     OW14818   6.069   7.652   7.297
37662SOL    HW114819   6.007   7.711   7.255
37662SOL    HW214820   6.133   7.711   7.338
37663SOL     OW14821   6.323   8.661  11.156
37663SOL    HW114822   6.269   8.676  11.079
37663SOL    HW214823   6.403   8.709  11.139
37664SOL     OW14824   9.556  12.920   7.430
37664SOL    HW114825   9.579  12.997   7.379
37664SOL    HW214826   9.461  12.916   7.427
37665SOL     OW14827  14.365  11.628   5.345
37665SOL    HW114828  14.429  11.571   5.388
37665SOL    HW214829  14.364  11.598   5.254
37666SOL     OW14830   4.434  13.076   0.117
37666SOL    HW114831   4.504  13.029   0.161
37666SOL    HW214832   4.479  13.140   0.061
37667SOL     OW14833   1.529  13.486   0.251
37667SOL    HW114834   1.579  13.538   0.315
37667SOL    HW214835   1.446  13.533   0.243
37668SOL     OW14836   9.468   8.552  14.271
37668SOL    HW114837   9.483   8.499  14.193
37668SOL    HW214838   9.551   8.550  14.318
37669SOL     OW14839   0.495  11.523  11.631
37669SOL    HW114840   0.405  11.497  11.649
37669SOL    HW214841   0.492  11.619  11.624
37670SOL     OW14842   3.635  12.510   1.637
37670SOL    HW114843   3.694  12.570   1.591
37670SOL    HW214844   3.638  12.538   1.728
37671SOL     OW14845   2.342   0.733   9.943
37671SOL    HW114846   2.285   0.676   9.996
37671SOL    HW214847   2.299   0.737   9.858
37672SOL     OW14848   1.318   9.218   7.036
37672SOL    HW114849   1.372   9.148   7.074
37672SOL    HW214850   1.381   9.287   7.012
37673SOL     OW14851   9.797  11.582   6.688
37673SOL    HW114852   9.825  11.674   6.684
37673SOL    HW214853   9.878  11.533   6.696
37674SOL     OW14854  10.850  10.882  10.574
37674SOL    HW114855  10.910  10.845  10.639
37674SOL    HW214856  10.897  10.957  10.537
37675SOL     OW14857   8.447  11.860   6.799
37675SOL    HW114858   8.474  11.775   6.833
37675SOL    HW214859   8.492  11.866   6.714
37676SOL     OW14860   4.402   1.055   7.946
37676SOL    HW114861   4.404   1.116   8.020
37676SOL    HW214862   4.457   0.981   7.974
37677SOL     OW14863   3.281   1.859   7.303
37677SOL    HW114864   3.217   1.846   7.373
37677SOL    HW214865   3.326   1.774   7.296
37678SOL     OW14866   6.651   9.419   4.912
37678SOL    HW114867   6.573   9.426   4.967
37678SOL    HW214868   6.682   9.329   4.926
37679SOL     OW14869   9.262  14.058   9.019
37679SOL    HW114870   9.183  14.056   9.073
37679SOL    HW214871   9.333  14.037   9.080
37680SOL     OW14872   7.681   3.994   3.335
37680SOL    HW114873   7.689   4.047   3.257
37680SOL    HW214874   7.724   4.045   3.404
37681SOL     OW14875  10.995  13.610   0.413
37681SOL    HW114876  10.999  13.618   0.318
37681SOL    HW214877  10.946  13.529   0.429
37682SOL     OW14878   1.847   8.646   6.823
37682SOL    HW114879   1.810   8.559   6.840
37682SOL    HW214880   1.779   8.707   6.851
37683SOL     OW14881   7.314  11.271  10.049
37683SOL    HW114882   7.379  11.321  10.098
37683SOL    HW214883   7.356  11.253   9.965
37684SOL     OW14884   6.767   9.285   3.521
37684SOL    HW114885   6.769   9.237   3.603
37684SOL    HW214886   6.854   9.271   3.483
37685SOL     OW14887   4.925   1.907   4.351
37685SOL    HW114888   4.861   1.881   4.284
37685SOL    HW214889   4.892   1.990   4.384
37686SOL     OW14890   5.898  10.142   7.738
37686SOL    HW114891   5.928  10.059   7.703
37686SOL    HW214892   5.934  10.145   7.827
37687SOL     OW14893  11.908   4.738   6.660
37687SOL    HW114894  11.890   4.796   6.735
37687SOL    HW214895  11.822   4.702   6.636
37688SOL     OW14896   7.279   5.748   8.597
37688SOL    HW114897   7.370   5.769   8.615
37688SOL    HW214898   7.262   5.668   8.647
37689SOL     OW14899  14.601  10.143   8.610
37689SOL    HW114900  14.532  10.182   8.556
37689SOL    HW214901  14.683  10.171   8.569
37690SOL     OW14902   9.765   4.939   9.540
37690SOL    HW114903   9.837   4.975   9.592
37690SOL    HW214904   9.701   4.910   9.606
37691SOL     OW14905   2.069   3.798  14.559
37691SOL    HW114906   2.105   3.854  14.490
37691SOL    HW214907   2.146   3.753  14.595
37692SOL     OW14908  12.242  14.382   6.710
37692SOL    HW114909  12.334  14.390   6.685
37692SOL    HW214910  12.241  14.310   6.774
37693SOL     OW14911   8.283   7.082   5.912
37693SOL    HW114912   8.289   7.047   6.001
37693SOL    HW214913   8.309   7.174   5.921
37694SOL     OW14914   4.057   5.107   4.979
37694SOL    HW114915   4.113   5.164   5.032
37694SOL    HW214916   3.982   5.088   5.036
37695SOL     OW14917   3.743  10.455   0.646
37695SOL    HW114918   3.827  10.502   0.639
37695SOL    HW214919   3.767  10.369   0.681
37696SOL     OW14920   5.470   6.457   4.262
37696SOL    HW114921   5.402   6.462   4.329
37696SOL    HW214922   5.531   6.527   4.285
37697SOL     OW14923   7.790   0.938   0.389
37697SOL    HW114924   7.775   0.943   0.483
37697SOL    HW214925   7.780   1.027   0.357
37698SOL     OW14926   6.320   6.798   2.850
37698SOL    HW114927   6.283   6.883   2.871
37698SOL    HW214928   6.249   6.750   2.808
37699SOL     OW14929   3.736   0.572   7.759
37699SOL    HW114930   3.821   0.608   7.734
37699SOL    HW214931   3.747   0.547   7.851
37700SOL     OW14932   8.382   2.585   9.462
37700SOL    HW114933   8.420   2.672   9.464
37700SOL    HW214934   8.362   2.564   9.553
37701SOL     OW14935  12.129   1.607   3.531
37701SOL    HW114936  12.101   1.564   3.450
37701SOL    HW214937  12.193   1.673   3.502
37702SOL     OW14938  12.270   2.298   1.474
37702SOL    HW114939  12.273   2.373   1.414
37702SOL    HW214940  12.205   2.322   1.539
37703SOL     OW14941   1.238  13.005   4.775
37703SOL    HW114942   1.290  13.040   4.703
37703SOL    HW214943   1.210  12.919   4.744
37704SOL     OW14944  11.616   0.736  11.509
37704SOL    HW114945  11.706   0.709  11.494
37704SOL    HW214946  11.595   0.704  11.597
37705SOL     OW14947   2.735   9.596  11.780
37705SOL    HW114948   2.735   9.635  11.692
37705SOL    HW214949   2.781   9.660  11.835
37706SOL     OW14950   7.723  12.847   4.435
37706SOL    HW114951   7.811  12.871   4.461
37706SOL    HW214952   7.675  12.838   4.517
37707SOL     OW14953  12.870   1.739   4.337
37707SOL    HW114954  12.888   1.813   4.394
37707SOL    HW214955  12.803   1.771   4.276
37708SOL     OW14956   8.877   5.818   4.783
37708SOL    HW114957   8.891   5.908   4.754
37708SOL    HW214958   8.812   5.783   4.722
37709SOL     OW14959  12.882   3.930   3.452
37709SOL    HW114960  12.799   3.976   3.455
37709SOL    HW214961  12.863   3.847   3.408
37710SOL     OW14962  14.281   7.409  13.159
37710SOL    HW114963  14.217   7.356  13.207
37710SOL    HW214964  14.366   7.371  13.183
37711SOL     OW14965  12.358  12.710  11.523
37711SOL    HW114966  12.305  12.663  11.587
37711SOL    HW214967  12.432  12.652  11.506
37712SOL     OW14968   3.471   5.534   4.412
37712SOL    HW114969   3.524   5.502   4.485
37712SOL    HW214970   3.464   5.460   4.352
37713SOL     OW14971   4.525   1.254   8.123
37713SOL    HW114972   4.587   1.181   8.127
37713SOL    HW214973   4.549   1.309   8.197
37714SOL     OW14974   6.244   4.998   0.134
37714SOL    HW114975   6.195   5.076   0.158
37714SOL    HW214976   6.198   4.926   0.177
37715SOL     OW14977  12.806   2.896  12.596
37715SOL    HW114978  12.766   2.846  12.525
37715SOL    HW214979  12.732   2.930  12.647
37716SOL     OW14980   9.371   9.174   4.968
37716SOL    HW114981   9.330   9.168   4.881
37716SOL    HW214982   9.298   9.178   5.029
37717SOL     OW14983   9.718   4.617  10.713
37717SOL    HW114984   9.665   4.559  10.658
37717SOL    HW214985   9.654   4.674  10.756
37718SOL     OW14986   1.733   1.841  10.679
37718SOL    HW114987   1.641   1.868  10.670
37718SOL    HW214988   1.770   1.905  10.740
37719SOL     OW14989   3.205   7.811   1.044
37719SOL    HW114990   3.161   7.796   0.960
37719SOL    HW214991   3.291   7.847   1.020
37720SOL     OW14992   4.499   9.026  10.714
37720SOL    HW114993   4.565   9.089  10.682
37720SOL    HW214994   4.428   9.032  10.650
37721SOL     OW14995   1.774   8.568  11.671
37721SOL    HW114996   1.688   8.552  11.709
37721SOL    HW214997   1.817   8.482  11.672
37722SOL     OW14998   8.478   7.479   7.410
37722SOL    HW114999   8.395   7.431   7.408
37722SOL    HW215000   8.541   7.421   7.368
37723SOL     OW15001   2.558   6.528  13.305
37723SOL    HW115002   2.489   6.500  13.246
37723SOL    HW215003   2.615   6.451  13.313
37724SOL     OW15004   0.221   7.069  10.732
37724SOL    HW115005   0.186   7.152  10.698
37724SOL    HW215006   0.159   7.003  10.702
37725SOL     OW15007   3.826   4.546  14.579
37725SOL    HW115008   3.911   4.587  14.562
37725SOL    HW215009   3.772   4.618  14.612
37726SOL     OW15010   8.528  12.962   9.735
37726SOL    HW115011   8.562  12.875   9.712
37726SOL    HW215012   8.607  13.016   9.744
37727SOL     OW15013   9.868   4.900   0.145
37727SOL    HW115014   9.787   4.947   0.165
37727SOL    HW215015   9.932   4.968   0.125
37728SOL     OW15016   0.293  10.918   1.294
37728SOL    HW115017   0.279  10.825   1.309
37728SOL    HW215018   0.387  10.930   1.303
37729SOL     OW15019   3.159   5.041   4.229
37729SOL    HW115020   3.237   5.075   4.185
37729SOL    HW215021   3.191   4.970   4.283
37730SOL     OW15022  12.364   8.045   0.833
37730SOL    HW115023  12.316   8.100   0.771
37730SOL    HW215024  12.456   8.068   0.818
37731SOL     OW15025  14.708   9.951  13.097
37731SOL    HW115026  14.649   9.978  13.167
37731SOL    HW215027  14.772   9.895  13.141
37732SOL     OW15028   5.664   1.386   7.112
37732SOL    HW115029   5.712   1.424   7.039
37732SOL    HW215030   5.591   1.447   7.127
37733SOL     OW15031  14.277   0.803   3.754
37733SOL    HW115032  14.268   0.759   3.838
37733SOL    HW215033  14.326   0.883   3.774
37734SOL     OW15034  12.594  12.409  11.928
37734SOL    HW115035  12.569  12.356  11.852
37734SOL    HW215036  12.567  12.357  12.004
37735SOL     OW15037  13.869   2.168  11.285
37735SOL    HW115038  13.833   2.247  11.246
37735SOL    HW215039  13.901   2.196  11.371
37736SOL     OW15040   6.947  12.774   8.242
37736SOL    HW115041   6.993  12.846   8.199
37736SOL    HW215042   6.975  12.696   8.195
37737SOL     OW15043   1.287   7.300   0.507
37737SOL    HW115044   1.305   7.301   0.413
37737SOL    HW215045   1.247   7.214   0.522
37738SOL     OW15046   1.606   6.821   8.972
37738SOL    HW115047   1.542   6.890   8.990
37738SOL    HW215048   1.681   6.866   8.934
37739SOL     OW15049   1.438   6.439   1.307
37739SOL    HW115050   1.499   6.512   1.305
37739SOL    HW215051   1.374   6.459   1.239
37740SOL     OW15052   6.121   0.074   6.273
37740SOL    HW115053   6.196   0.069   6.213
37740SOL    HW215054   6.060   0.007   6.241
37741SOL     OW15055  10.576   2.936   7.749
37741SOL    HW115056  10.633   3.007   7.718
37741SOL    HW215057  10.636   2.867   7.776
37742SOL     OW15058   4.826   0.445  11.034
37742SOL    HW115059   4.869   0.468  11.116
37742SOL    HW215060   4.871   0.366  11.004
37743SOL     OW15061  11.513   3.217  11.050
37743SOL    HW115062  11.445   3.229  11.117
37743SOL    HW215063  11.492   3.132  11.011
37744SOL     OW15064  13.551   0.360   9.806
37744SOL    HW115065  13.532   0.395   9.719
37744SOL    HW215066  13.517   0.426   9.866
37745SOL     OW15067   7.416   5.187  13.397
37745SOL    HW115068   7.423   5.208  13.304
37745SOL    HW215069   7.507   5.178  13.426
37746SOL     OW15070   5.981   8.345   4.792
37746SOL    HW115071   5.985   8.441   4.788
37746SOL    HW215072   6.030   8.316   4.715
37747SOL     OW15073   0.929   3.335  14.536
37747SOL    HW115074   0.929   3.409  14.475
37747SOL    HW215075   0.898   3.372  14.619
37748SOL     OW15076   0.506  11.669   9.622
37748SOL    HW115077   0.595  11.636   9.632
37748SOL    HW215078   0.483  11.702   9.709
37749SOL     OW15079   2.511   7.383  10.577
37749SOL    HW115080   2.586   7.332  10.608
37749SOL    HW215081   2.439   7.359  10.636
37750SOL     OW15082  10.380  11.010   9.861
37750SOL    HW115083  10.409  10.974   9.944
37750SOL    HW215084  10.410  10.948   9.795
37751SOL     OW15085   8.414  14.791   5.630
37751SOL    HW115086   8.365  14.712   5.654
37751SOL    HW215087   8.366  14.826   5.555
37752SOL     OW15088  10.779   8.374   9.678
37752SOL    HW115089  10.848   8.400   9.617
37752SOL    HW215090  10.751   8.456   9.719
37753SOL     OW15091   2.842   8.938  13.782
37753SOL    HW115092   2.766   8.996  13.777
37753SOL    HW215093   2.828   8.873  13.714
37754SOL     OW15094  11.586   2.503   4.254
37754SOL    HW115095  11.566   2.414   4.284
37754SOL    HW215096  11.681   2.509   4.260
37755SOL     OW15097   6.949  11.151   1.413
37755SOL    HW115098   6.856  11.133   1.406
37755SOL    HW215099   6.991  11.064   1.411
37756SOL     OW15100   8.306   4.771   7.899
37756SOL    HW115101   8.293   4.866   7.899
37756SOL    HW215102   8.360   4.754   7.822
37757SOL     OW15103   7.842   3.244   3.467
37757SOL    HW115104   7.763   3.246   3.521
37757SOL    HW215105   7.869   3.335   3.461
37758SOL     OW15106  12.802   0.267   4.696
37758SOL    HW115107  12.802   0.331   4.625
37758SOL    HW215108  12.710   0.261   4.723
37759SOL     OW15109   6.216   6.231   2.996
37759SOL    HW115110   6.170   6.176   2.933
37759SOL    HW215111   6.222   6.177   3.075
37760SOL     OW15112   2.477  14.417  14.597
37760SOL    HW115113   2.518  14.465  14.669
37760SOL    HW215114   2.477  14.479  14.524
37761SOL     OW15115  12.481   4.373  11.009
37761SOL    HW115116  12.398   4.370  11.055
37761SOL    HW215117  12.545   4.398  11.075
37762SOL     OW15118   6.662   5.264   0.487
37762SOL    HW115119   6.736   5.323   0.503
37762SOL    HW215120   6.677   5.231   0.398
37763SOL     OW15121   9.760   6.235   9.661
37763SOL    HW115122   9.679   6.254   9.613
37763SOL    HW215123   9.825   6.294   9.622
37764SOL     OW15124  14.555   4.886   1.467
37764SOL    HW115125  14.562   4.957   1.531
37764SOL    HW215126  14.593   4.811   1.511
37765SOL     OW15127   6.350   2.754   2.177
37765SOL    HW115128   6.286   2.693   2.215
37765SOL    HW215129   6.297   2.829   2.149
37766SOL     OW15130   2.913  13.766   3.994
37766SOL    HW115131   2.965  13.787   4.072
37766SOL    HW215132   2.894  13.673   4.003
37767SOL     OW15133   6.023  13.121   6.841
37767SOL    HW115134   6.002  13.086   6.927
37767SOL    HW215135   6.089  13.062   6.806
37768SOL     OW15136   2.499  10.548   9.908
37768SOL    HW115137   2.420  10.537   9.856
37768SOL    HW215138   2.556  10.476   9.880
37769SOL     OW15139  14.190   4.159   9.076
37769SOL    HW115140  14.113   4.102   9.085
37769SOL    HW215141  14.166   4.219   9.005
37770SOL     OW15142   3.020   7.832   6.140
37770SOL    HW115143   3.102   7.865   6.101
37770SOL    HW215144   3.009   7.884   6.219
37771SOL     OW15145   3.534  12.728  11.371
37771SOL    HW115146   3.449  12.714  11.330
37771SOL    HW215147   3.556  12.644  11.412
37772SOL     OW15148  14.869   1.438  13.951
37772SOL    HW115149  14.797   1.481  13.996
37772SOL    HW215150   0.017   1.368  14.011
37773SOL     OW15151   9.277  12.280   6.144
37773SOL    HW115152   9.359  12.232   6.157
37773SOL    HW215153   9.240  12.289   6.232
37774SOL     OW15154  12.786   4.266  12.257
37774SOL    HW115155  12.835   4.209  12.197
37774SOL    HW215156  12.834   4.261  12.339
37775SOL     OW15157   7.280   6.171   9.429
37775SOL    HW115158   7.279   6.076   9.421
37775SOL    HW215159   7.198   6.199   9.387
37776SOL     OW15160   3.760   6.618   7.986
37776SOL    HW115161   3.809   6.594   7.907
37776SOL    HW215162   3.685   6.559   7.987
37777SOL     OW15163  10.031   2.518   3.166
37777SOL    HW115164   9.938   2.531   3.187
37777SOL    HW215165  10.077   2.537   3.247
37778SOL     OW15166   8.768   9.385   5.309
37778SOL    HW115167   8.676   9.411   5.320
37778SOL    HW215168   8.816   9.446   5.365
37779SOL     OW15169   6.167  11.694   7.573
37779SOL    HW115170   6.209  11.613   7.602
37779SOL    HW215171   6.122  11.671   7.493
37780SOL     OW15172  12.873   4.673   8.376
37780SOL    HW115173  12.855   4.607   8.309
37780SOL    HW215174  12.922   4.626   8.444
37781SOL     OW15175   6.135   3.766  13.112
37781SOL    HW115176   6.106   3.675  13.109
37781SOL    HW215177   6.194   3.775  13.037
37782SOL     OW15178   9.662   7.917  14.665
37782SOL    HW115179   9.589   7.859  14.643
37782SOL    HW215180   9.622   7.990  14.711
37783SOL     OW15181  11.352   9.704  12.461
37783SOL    HW115182  11.301   9.785  12.470
37783SOL    HW215183  11.388   9.690  12.549
37784SOL     OW15184   1.076  12.698   0.193
37784SOL    HW115185   1.080  12.617   0.142
37784SOL    HW215186   1.078  12.768   0.127
37785SOL     OW15187   2.630   5.099  13.147
37785SOL    HW115188   2.539   5.119  13.170
37785SOL    HW215189   2.671   5.072  13.230
37786SOL     OW15190   4.698   1.474   5.368
37786SOL    HW115191   4.653   1.535   5.310
37786SOL    HW215192   4.645   1.395   5.367
37787SOL     OW15193   5.053  10.872  14.385
37787SOL    HW115194   5.085  10.920  14.462
37787SOL    HW215195   4.983  10.927  14.350
37788SOL     OW15196   9.700   7.261   5.963
37788SOL    HW115197   9.711   7.180   6.014
37788SOL    HW215198   9.643   7.236   5.890
37789SOL     OW15199  13.167   2.690   4.545
37789SOL    HW115200  13.182   2.691   4.640
37789SOL    HW215201  13.077   2.720   4.534
37790SOL     OW15202   6.693   4.909  14.340
37790SOL    HW115203   6.701   5.004  14.351
37790SOL    HW215204   6.676   4.897  14.246
37791SOL     OW15205  10.156  10.290  11.005
37791SOL    HW115206  10.235  10.247  10.970
37791SOL    HW215207  10.169  10.290  11.100
37792SOL     OW15208   9.511   4.956   5.911
37792SOL    HW115209   9.538   4.989   5.997
37792SOL    HW215210   9.484   4.866   5.927
37793SOL     OW15211   0.292  13.848  14.069
37793SOL    HW115212   0.299  13.921  14.007
37793SOL    HW215213   0.231  13.787  14.026
37794SOL     OW15214   5.619  11.615   0.740
37794SOL    HW115215   5.671  11.667   0.802
37794SOL    HW215216   5.668  11.619   0.658
37795SOL     OW15217   5.601   3.283  11.381
37795SOL    HW115218   5.685   3.284  11.427
37795SOL    HW215219   5.622   3.250  11.293
37796SOL     OW15220   7.248  10.271   7.944
37796SOL    HW115221   7.258  10.211   8.018
37796SOL    HW215222   7.193  10.223   7.882
37797SOL     OW15223   1.397  12.625   2.645
37797SOL    HW115224   1.390  12.532   2.622
37797SOL    HW215225   1.487  12.648   2.622
37798SOL     OW15226   2.643   3.450   2.341
37798SOL    HW115227   2.596   3.499   2.409
37798SOL    HW215228   2.735   3.456   2.367
37799SOL     OW15229   2.743   6.026  10.857
37799SOL    HW115230   2.744   6.121  10.841
37799SOL    HW215231   2.760   5.988  10.771
37800SOL     OW15232  13.045  11.158   4.204
37800SOL    HW115233  12.994  11.229   4.165
37800SOL    HW215234  12.985  11.084   4.205
37801SOL     OW15235   6.262   7.327  13.458
37801SOL    HW115236   6.327   7.260  13.480
37801SOL    HW215237   6.261   7.384  13.535
37802SOL     OW15238  12.002  10.572  10.112
37802SOL    HW115239  11.978  10.571  10.204
37802SOL    HW215240  11.925  10.541  10.066
37803SOL     OW15241   1.906   4.370   2.696
37803SOL    HW115242   1.947   4.288   2.725
37803SOL    HW215243   1.974   4.414   2.646
37804SOL     OW15244   4.833   0.123   1.273
37804SOL    HW115245   4.738   0.133   1.277
37804SOL    HW215246   4.863   0.192   1.214
37805SOL     OW15247  11.522   2.726   1.740
37805SOL    HW115248  11.515   2.636   1.710
37805SOL    HW215249  11.431   2.756   1.746
37806SOL     OW15250   8.763   1.343   2.026
37806SOL    HW115251   8.730   1.353   2.115
37806SOL    HW215252   8.700   1.284   1.984
37807SOL     OW15253   6.382   8.936   2.144
37807SOL    HW115254   6.311   8.980   2.191
37807SOL    HW215255   6.373   8.965   2.053
37808SOL     OW15256  13.578   4.538  10.965
37808SOL    HW115257  13.574   4.567  10.873
37808SOL    HW215258  13.499   4.576  11.005
37809SOL     OW15259   9.916   9.385   7.596
37809SOL    HW115260   9.857   9.379   7.521
37809SOL    HW215261   9.944   9.295   7.613
37810SOL     OW15262  10.543   9.163   8.721
37810SOL    HW115263  10.569   9.090   8.777
37810SOL    HW215264  10.488   9.123   8.654
37811SOL     OW15265   3.110   9.899   5.118
37811SOL    HW115266   3.042   9.836   5.094
37811SOL    HW215267   3.063   9.976   5.149
37812SOL     OW15268   7.205   8.473   0.638
37812SOL    HW115269   7.113   8.500   0.648
37812SOL    HW215270   7.255   8.548   0.671
37813SOL     OW15271  11.609   4.618   8.475
37813SOL    HW115272  11.602   4.551   8.406
37813SOL    HW215273  11.704   4.628   8.488
37814SOL     OW15274   8.791   4.730   3.105
37814SOL    HW115275   8.842   4.801   3.067
37814SOL    HW215276   8.824   4.722   3.194
37815SOL     OW15277  10.317   1.686  14.243
37815SOL    HW115278  10.244   1.702  14.302
37815SOL    HW215279  10.276   1.671  14.158
37816SOL     OW15280  14.482  11.370  12.511
37816SOL    HW115281  14.460  11.463  12.513
37816SOL    HW215282  14.513  11.350  12.600
37817SOL     OW15283   8.130  11.983   9.402
37817SOL    HW115284   8.182  11.903   9.398
37817SOL    HW215285   8.040  11.953   9.397
37818SOL     OW15286   0.816   3.044  11.338
37818SOL    HW115287   0.889   3.001  11.383
37818SOL    HW215288   0.738   3.015  11.386
37819SOL     OW15289   6.703   9.736   5.843
37819SOL    HW115290   6.631   9.691   5.799
37819SOL    HW215291   6.676   9.742   5.934
37820SOL     OW15292   6.115   0.743   9.309
37820SOL    HW115293   6.082   0.680   9.245
37820SOL    HW215294   6.126   0.824   9.259
37821SOL     OW15295  14.690  13.101   1.908
37821SOL    HW115296  14.613  13.152   1.932
37821SOL    HW215297  14.733  13.153   1.841
37822SOL     OW15298   5.319   0.643  14.706
37822SOL    HW115299   5.349   0.710  14.769
37822SOL    HW215300   5.326   0.686  14.621
37823SOL     OW15301  10.492   2.466   2.524
37823SOL    HW115302  10.433   2.529   2.567
37823SOL    HW215303  10.522   2.409   2.596
37824SOL     OW15304  10.391   9.073  12.684
37824SOL    HW115305  10.365   9.023  12.761
37824SOL    HW215306  10.431   9.153  12.719
37825SOL     OW15307   7.393   0.592   9.650
37825SOL    HW115308   7.358   0.679   9.626
37825SOL    HW215309   7.419   0.553   9.566
37826SOL     OW15310  14.195   7.060  10.427
37826SOL    HW115311  14.142   7.025  10.498
37826SOL    HW215312  14.208   7.152  10.450
37827SOL     OW15313  10.665  10.000   4.720
37827SOL    HW115314  10.627   9.912   4.722
37827SOL    HW215315  10.590  10.059   4.732
37828SOL     OW15316  13.210   7.827   1.584
37828SOL    HW115317  13.266   7.898   1.554
37828SOL    HW215318  13.158   7.865   1.655
37829SOL     OW15319   8.850   9.255   0.869
37829SOL    HW115320   8.827   9.348   0.870
37829SOL    HW215321   8.771   9.209   0.897
37830SOL     OW15322  13.678  12.882   7.054
37830SOL    HW115323  13.753  12.853   7.106
37830SOL    HW215324  13.622  12.928   7.117
37831SOL     OW15325   8.372   5.828   8.826
37831SOL    HW115326   8.323   5.857   8.903
37831SOL    HW215327   8.318   5.855   8.752
37832SOL     OW15328  11.116   2.876   9.249
37832SOL    HW115329  11.131   2.891   9.343
37832SOL    HW215330  11.199   2.896   9.207
37833SOL     OW15331   9.993   4.175   9.819
37833SOL    HW115332  10.015   4.171   9.726
37833SOL    HW215333  10.033   4.097   9.856
37834SOL     OW15334   4.066  11.758   3.117
37834SOL    HW115335   4.000  11.706   3.163
37834SOL    HW215336   4.140  11.699   3.108
37835SOL     OW15337   1.299   7.937   7.080
37835SOL    HW115338   1.323   7.870   7.144
37835SOL    HW215339   1.221   7.902   7.037
37836SOL     OW15340   4.893   4.367   9.885
37836SOL    HW115341   4.927   4.378   9.796
37836SOL    HW215342   4.938   4.289   9.917
37837SOL     OW15343  12.914   3.577   9.424
37837SOL    HW115344  12.895   3.566   9.517
37837SOL    HW215345  12.998   3.534   9.411
37838SOL     OW15346   4.975   4.718  11.329
37838SOL    HW115347   5.049   4.704  11.270
37838SOL    HW215348   5.012   4.710  11.416
37839SOL     OW15349   5.344   3.314   4.472
37839SOL    HW115350   5.352   3.231   4.424
37839SOL    HW215351   5.416   3.368   4.437
37840SOL     OW15352   0.119   8.746   5.292
37840SOL    HW115353   0.087   8.665   5.332
37840SOL    HW215354   0.188   8.777   5.352
37841SOL     OW15355  14.090   1.037   8.650
37841SOL    HW115356  14.019   1.076   8.599
37841SOL    HW215357  14.170   1.062   8.602
37842SOL     OW15358   0.381  14.231   0.484
37842SOL    HW115359   0.399  14.290   0.558
37842SOL    HW215360   0.303  14.269   0.443
37843SOL     OW15361   1.350   7.248   3.646
37843SOL    HW115362   1.430   7.292   3.618
37843SOL    HW215363   1.315   7.304   3.715
37844SOL     OW15364  10.278  12.327   2.659
37844SOL    HW115365  10.236  12.401   2.614
37844SOL    HW215366  10.302  12.362   2.745
37845SOL     OW15367   0.752   2.342   8.890
37845SOL    HW115368   0.809   2.355   8.815
37845SOL    HW215369   0.768   2.252   8.918
37846SOL     OW15370   4.427   8.268   0.882
37846SOL    HW115371   4.418   8.324   0.959
37846SOL    HW215372   4.495   8.205   0.905
37847SOL     OW15373   0.295   6.563   1.669
37847SOL    HW115374   0.245   6.609   1.603
37847SOL    HW215375   0.230   6.513   1.719
37848SOL     OW15376   3.344  13.331   8.209
37848SOL    HW115377   3.326  13.412   8.162
37848SOL    HW215378   3.428  13.301   8.173
37849SOL     OW15379   7.446   3.145   2.942
37849SOL    HW115380   7.372   3.097   2.978
37849SOL    HW215381   7.523   3.099   2.973
37850SOL     OW15382   4.550  13.196   1.258
37850SOL    HW115383   4.595  13.201   1.343
37850SOL    HW215384   4.480  13.132   1.272
37851SOL     OW15385   7.342  13.940   2.716
37851SOL    HW115386   7.248  13.953   2.701
37851SOL    HW215387   7.363  13.862   2.665
37852SOL     OW15388  10.243   2.354  11.109
37852SOL    HW115389  10.294   2.434  11.108
37852SOL    HW215390  10.152   2.383  11.107
37853SOL     OW15391   1.678   5.739   2.011
37853SOL    HW115392   1.743   5.805   1.988
37853SOL    HW215393   1.603   5.789   2.043
37854SOL     OW15394  13.468   4.709   2.310
37854SOL    HW115395  13.413   4.680   2.238
37854SOL    HW215396  13.547   4.655   2.304
37855SOL     OW15397   4.273   5.911   4.938
37855SOL    HW115398   4.368   5.910   4.952
37855SOL    HW215399   4.258   5.850   4.866
37856SOL     OW15400  12.640   3.674   0.645
37856SOL    HW115401  12.584   3.693   0.570
37856SOL    HW215402  12.712   3.737   0.637
37857SOL     OW15403   3.885  10.646   1.125
37857SOL    HW115404   3.978  10.652   1.102
37857SOL    HW215405   3.844  10.718   1.078
37858SOL     OW15406   1.445  14.268  12.912
37858SOL    HW115407   1.470  14.211  12.985
37858SOL    HW215408   1.390  14.335  12.952
37859SOL     OW15409   4.626   3.132   8.092
37859SOL    HW115410   4.643   3.206   8.035
37859SOL    HW215411   4.666   3.057   8.047
37860SOL     OW15412   6.901  11.666   4.803
37860SOL    HW115413   6.974  11.729   4.802
37860SOL    HW215414   6.834  11.707   4.857
37861SOL     OW15415   5.222  13.545   6.158
37861SOL    HW115416   5.168  13.490   6.101
37861SOL    HW215417   5.182  13.632   6.153
37862SOL     OW15418  14.430   9.919   2.456
37862SOL    HW115419  14.366   9.983   2.487
37862SOL    HW215420  14.408   9.908   2.363
37863SOL     OW15421  11.717  12.856   3.473
37863SOL    HW115422  11.809  12.834   3.463
37863SOL    HW215423  11.685  12.796   3.540
37864SOL     OW15424   4.678   8.602  12.376
37864SOL    HW115425   4.618   8.659  12.424
37864SOL    HW215426   4.687   8.642  12.290
37865SOL     OW15427   5.667   5.395   6.211
37865SOL    HW115428   5.671   5.485   6.178
37865SOL    HW215429   5.733   5.348   6.160
37866SOL     OW15430  14.058   2.217   1.080
37866SOL    HW115431  14.117   2.190   1.150
37866SOL    HW215432  13.976   2.238   1.124
37867SOL     OW15433   9.213   7.461  14.679
37867SOL    HW115434   9.297   7.418  14.694
37867SOL    HW215435   9.235   7.553  14.663
37868SOL     OW15436   6.334  12.846   6.545
37868SOL    HW115437   6.395  12.797   6.490
37868SOL    HW215438   6.262  12.785   6.562
37869SOL     OW15439   1.651   6.723   2.560
37869SOL    HW115440   1.707   6.721   2.639
37869SOL    HW215441   1.665   6.811   2.525
37870SOL     OW15442   6.078   2.376   6.666
37870SOL    HW115443   6.148   2.420   6.616
37870SOL    HW215444   6.121   2.349   6.747
37871SOL     OW15445   6.440   0.793   7.031
37871SOL    HW115446   6.380   0.850   6.982
37871SOL    HW215447   6.384   0.721   7.062
37872SOL     OW15448   7.485   6.189   1.856
37872SOL    HW115449   7.551   6.120   1.860
37872SOL    HW215450   7.476   6.218   1.947
37873SOL     OW15451   5.096  12.868   8.029
37873SOL    HW115452   5.167  12.884   7.967
37873SOL    HW215453   5.045  12.797   7.989
37874SOL     OW15454   0.118   1.110  14.476
37874SOL    HW115455   0.203   1.102  14.519
37874SOL    HW215456   0.060   1.145  14.544
37875SOL     OW15457   2.588   1.713   0.675
37875SOL    HW115458   2.506   1.695   0.628
37875SOL    HW215459   2.561   1.766   0.750
37876SOL     OW15460   0.077   4.201   4.760
37876SOL    HW115461   0.030   4.127   4.723
37876SOL    HW215462   0.009   4.259   4.795
37877SOL     OW15463  14.378   1.811   6.850
37877SOL    HW115464  14.346   1.775   6.768
37877SOL    HW215465  14.432   1.886   6.824
37878SOL     OW15466   0.900  11.538  10.584
37878SOL    HW115467   0.890  11.513  10.676
37878SOL    HW215468   0.977  11.490  10.554
37879SOL     OW15469   7.411   3.722  14.572
37879SOL    HW115470   7.416   3.653  14.506
37879SOL    HW215471   7.389   3.801  14.523
37880SOL     OW15472   7.243   9.139   3.576
37880SOL    HW115473   7.196   9.108   3.654
37880SOL    HW215474   7.183   9.200   3.534
37881SOL     OW15475   3.397  12.123  14.794
37881SOL    HW115476   3.361  12.197  14.746
37881SOL    HW215477   3.481  12.105  14.752
37882SOL     OW15478   2.841  11.550   7.049
37882SOL    HW115479   2.774  11.485   7.069
37882SOL    HW215480   2.924  11.508   7.073
37883SOL     OW15481   1.117   7.707  11.055
37883SOL    HW115482   1.036   7.657  11.052
37883SOL    HW215483   1.089   7.796  11.079
37884SOL     OW15484   2.073   5.078   7.117
37884SOL    HW115485   2.047   5.134   7.044
37884SOL    HW215486   2.163   5.053   7.098
37885SOL     OW15487   1.425   9.711   2.534
37885SOL    HW115488   1.490   9.766   2.576
37885SOL    HW215489   1.465   9.624   2.530
37886SOL     OW15490   0.445   2.608  10.892
37886SOL    HW115491   0.529   2.563  10.881
37886SOL    HW215492   0.383   2.554  10.843
37887SOL     OW15493  11.307   4.410   1.379
37887SOL    HW115494  11.296   4.318   1.355
37887SOL    HW215495  11.229   4.431   1.431
37888SOL     OW15496  12.184   3.225   0.863
37888SOL    HW115497  12.097   3.191   0.845
37888SOL    HW215498  12.236   3.198   0.787
37889SOL     OW15499   2.412  13.672   0.824
37889SOL    HW115500   2.353  13.648   0.753
37889SOL    HW215501   2.484  13.610   0.818
37890SOL     OW15502   3.063   3.200   0.593
37890SOL    HW115503   3.068   3.230   0.684
37890SOL    HW215504   3.022   3.273   0.546
37891SOL     OW15505   6.889   0.011   1.228
37891SOL    HW115506   6.796   0.027   1.244
37891SOL    HW215507   6.899  14.795   1.238
37892SOL     OW15508   2.918  10.442   3.547
37892SOL    HW115509   2.916  10.530   3.509
37892SOL    HW215510   2.855  10.445   3.619
37893SOL     OW15511  14.164   1.499   8.611
37893SOL    HW115512  14.176   1.459   8.698
37893SOL    HW215513  14.224   1.573   8.611
37894SOL     OW15514   1.266   3.017   3.881
37894SOL    HW115515   1.337   2.994   3.821
37894SOL    HW215516   1.191   2.966   3.850
37895SOL     OW15517  11.243   7.239   9.941
37895SOL    HW115518  11.226   7.322   9.897
37895SOL    HW215519  11.156   7.207   9.966
37896SOL     OW15520   6.904   2.678   1.597
37896SOL    HW115521   6.993   2.646   1.588
37896SOL    HW215522   6.913   2.763   1.640
37897SOL     OW15523   8.654   2.139   0.163
37897SOL    HW115524   8.600   2.084   0.106
37897SOL    HW215525   8.700   2.198   0.103
37898SOL     OW15526  11.742   7.520  14.431
37898SOL    HW115527  11.686   7.475  14.368
37898SOL    HW215528  11.689   7.527  14.510
37899SOL     OW15529  13.342   5.264   6.340
37899SOL    HW115530  13.374   5.348   6.375
37899SOL    HW215531  13.408   5.239   6.276
37900SOL     OW15532   9.255  11.859  13.998
37900SOL    HW115533   9.328  11.797  14.006
37900SOL    HW215534   9.228  11.853  13.906
37901SOL     OW15535  11.670   0.200   6.787
37901SOL    HW115536  11.592   0.238   6.828
37901SOL    HW215537  11.740   0.217   6.851
37902SOL     OW15538   1.140   6.608   6.363
37902SOL    HW115539   1.101   6.627   6.448
37902SOL    HW215540   1.066   6.611   6.302
37903SOL     OW15541   8.029   3.287   8.916
37903SOL    HW115542   8.019   3.286   9.012
37903SOL    HW215543   8.085   3.212   8.897
37904SOL     OW15544   0.935   0.643  12.451
37904SOL    HW115545   0.910   0.562  12.407
37904SOL    HW215546   0.853   0.677  12.488
37905SOL     OW15547   9.288   2.802   5.282
37905SOL    HW115548   9.281   2.888   5.241
37905SOL    HW215549   9.324   2.746   5.213
37906SOL     OW15550   6.447   2.143   9.298
37906SOL    HW115551   6.438   2.054   9.334
37906SOL    HW215552   6.541   2.156   9.290
37907SOL     OW15553   9.127   1.290  11.625
37907SOL    HW115554   9.180   1.258  11.698
37907SOL    HW215555   9.057   1.340  11.665
37908SOL     OW15556  11.447  12.917   2.144
37908SOL    HW115557  11.397  12.874   2.214
37908SOL    HW215558  11.521  12.958   2.190
37909SOL     OW15559  13.648   8.351   5.578
37909SOL    HW115560  13.709   8.332   5.649
37909SOL    HW215561  13.677   8.436   5.544
37910SOL     OW15562   5.990   4.811   4.560
37910SOL    HW115563   5.967   4.762   4.481
37910SOL    HW215564   6.028   4.746   4.619
37911SOL     OW15565   0.872   2.865   9.012
37911SOL    HW115566   0.886   2.772   9.028
37911SOL    HW215567   0.941   2.889   8.950
37912SOL     OW15568   8.115   7.078   3.174
37912SOL    HW115569   8.110   6.985   3.153
37912SOL    HW215570   8.038   7.117   3.132
37913SOL     OW15571   3.499   5.168   3.743
37913SOL    HW115572   3.526   5.254   3.777
37913SOL    HW215573   3.476   5.185   3.652
37914SOL     OW15574   0.815  14.723   4.545
37914SOL    HW115575   0.736  14.725   4.597
37914SOL    HW215576   0.788  14.685   4.461
37915SOL     OW15577   2.217  12.236   8.654
37915SOL    HW115578   2.227  12.327   8.682
37915SOL    HW215579   2.283  12.188   8.704
37916SOL     OW15580  12.278   5.229   8.306
37916SOL    HW115581  12.329   5.149   8.322
37916SOL    HW215582  12.279   5.239   8.211
37917SOL     OW15583  10.671  11.146  11.834
37917SOL    HW115584  10.674  11.240  11.850
37917SOL    HW215585  10.698  11.136  11.743
37918SOL     OW15586  13.917   8.539  12.840
37918SOL    HW115587  13.854   8.500  12.901
37918SOL    HW215588  13.958   8.464  12.797
37919SOL     OW15589  11.738   5.622   2.983
37919SOL    HW115590  11.811   5.610   2.922
37919SOL    HW215591  11.779   5.631   3.068
37920SOL     OW15592  13.402   0.744   1.902
37920SOL    HW115593  13.431   0.816   1.846
37920SOL    HW215594  13.438   0.666   1.860
37921SOL     OW15595  11.393   9.235   5.684
37921SOL    HW115596  11.471   9.251   5.631
37921SOL    HW215597  11.326   9.291   5.645
37922SOL     OW15598   8.213  14.442   1.151
37922SOL    HW115599   8.173  14.395   1.078
37922SOL    HW215600   8.152  14.430   1.224
37923SOL     OW15601   1.050   0.635  14.561
37923SOL    HW115602   1.098   0.706  14.603
37923SOL    HW215603   1.092   0.555  14.592
37924SOL     OW15604   3.324  10.190   7.024
37924SOL    HW115605   3.347  10.115   6.971
37924SOL    HW215606   3.232  10.179   7.044
37925SOL     OW15607   9.677   1.757   9.174
37925SOL    HW115608   9.750   1.767   9.235
37925SOL    HW215609   9.600   1.783   9.224
37926SOL     OW15610   3.334  10.714  13.014
37926SOL    HW115611   3.343  10.621  13.035
37926SOL    HW215612   3.365  10.721  12.924
37927SOL     OW15613   1.362   7.229   0.246
37927SOL    HW115614   1.390   7.260   0.160
37927SOL    HW215615   1.368   7.134   0.240
37928SOL     OW15616   2.070  14.481  11.912
37928SOL    HW115617   2.068  14.387  11.932
37928SOL    HW215618   1.989  14.515  11.951
37929SOL     OW15619  14.865   4.755   7.616
37929SOL    HW115620  14.802   4.720   7.680
37929SOL    HW215621  14.811   4.804   7.554
37930SOL     OW15622   9.061  14.505   5.194
37930SOL    HW115623   9.138  14.456   5.225
37930SOL    HW215624   9.049  14.477   5.103
37931SOL     OW15625   6.110  10.384   7.989
37931SOL    HW115626   6.123  10.429   7.905
37931SOL    HW215627   6.100  10.292   7.965
37932SOL     OW15628  14.364   1.118   6.738
37932SOL    HW115629  14.399   1.184   6.798
37932SOL    HW215630  14.313   1.169   6.674
37933SOL     OW15631  12.459  12.904   8.146
37933SOL    HW115632  12.441  12.998   8.138
37933SOL    HW215633  12.524  12.886   8.078
37934SOL     OW15634   5.933   8.982  12.610
37934SOL    HW115635   5.856   9.000  12.555
37934SOL    HW215636   5.919   9.033  12.689
37935SOL     OW15637  13.217   1.085  13.467
37935SOL    HW115638  13.158   1.140  13.518
37935SOL    HW215639  13.261   1.030  13.532
37936SOL     OW15640  10.270   3.053  12.185
37936SOL    HW115641  10.363   3.067  12.203
37936SOL    HW215642  10.269   2.999  12.106
37937SOL     OW15643   7.452   4.941   7.998
37937SOL    HW115644   7.419   4.868   7.946
37937SOL    HW215645   7.530   4.906   8.041
37938SOL     OW15646   4.910   4.106   1.340
37938SOL    HW115647   4.914   4.140   1.430
37938SOL    HW215648   4.964   4.026   1.342
37939SOL     OW15649   4.779  12.555   3.357
37939SOL    HW115650   4.828  12.601   3.290
37939SOL    HW215651   4.830  12.568   3.437
37940SOL     OW15652   9.151   7.695   7.123
37940SOL    HW115653   9.132   7.723   7.034
37940SOL    HW215654   9.081   7.633   7.144
37941SOL     OW15655   9.160   3.681   4.207
37941SOL    HW115656   9.152   3.695   4.113
37941SOL    HW215657   9.243   3.634   4.217
37942SOL     OW15658   0.413   7.600   4.922
37942SOL    HW115659   0.395   7.690   4.895
37942SOL    HW215660   0.430   7.606   5.017
37943SOL     OW15661   1.435   6.045   1.814
37943SOL    HW115662   1.365   6.058   1.879
37943SOL    HW215663   1.391   6.006   1.739
37944SOL     OW15664   2.951   0.986   2.105
37944SOL    HW115665   2.893   0.962   2.033
37944SOL    HW215666   2.997   1.064   2.075
37945SOL     OW15667  10.627   8.539  12.334
37945SOL    HW115668  10.654   8.471  12.273
37945SOL    HW215669  10.552   8.581  12.291
37946SOL     OW15670  12.295   6.918   0.199
37946SOL    HW115671  12.292   6.822   0.203
37946SOL    HW215672  12.383   6.940   0.231
37947SOL     OW15673  14.333  13.346  14.407
37947SOL    HW115674  14.324  13.363  14.500
37947SOL    HW215675  14.330  13.251  14.399
37948SOL     OW15676   3.307   1.969   3.313
37948SOL    HW115677   3.333   2.008   3.230
37948SOL    HW215678   3.212   1.972   3.313
37949SOL     OW15679   0.318   3.815   0.273
37949SOL    HW115680   0.386   3.758   0.310
37949SOL    HW215681   0.344   3.903   0.299
37950SOL     OW15682   3.625   7.843   8.043
37950SOL    HW115683   3.597   7.751   8.047
37950SOL    HW215684   3.546   7.891   8.017
37951SOL     OW15685   3.806   9.566  11.212
37951SOL    HW115686   3.812   9.659  11.193
37951SOL    HW215687   3.713   9.549  11.224
37952SOL     OW15688  11.478  12.792   0.060
37952SOL    HW115689  11.471  12.699   0.041
37952SOL    HW215690  11.551  12.822   0.007
37953SOL     OW15691   9.114   7.734  10.559
37953SOL    HW115692   9.135   7.806  10.500
37953SOL    HW215693   9.179   7.741  10.629
37954SOL     OW15694   6.372   1.337   1.741
37954SOL    HW115695   6.282   1.358   1.715
37954SOL    HW215696   6.381   1.243   1.722
37955SOL     OW15697   1.874   2.990  13.867
37955SOL    HW115698   1.934   2.947  13.806
37955SOL    HW215699   1.886   3.084  13.851
37956SOL     OW15700  11.209   5.026   5.278
37956SOL    HW115701  11.212   4.947   5.224
37956SOL    HW215702  11.283   5.079   5.248
37957SOL     OW15703   4.508  12.706  12.467
37957SOL    HW115704   4.550  12.660  12.394
37957SOL    HW215705   4.446  12.642  12.502
37958SOL     OW15706   5.820   4.017   7.783
37958SOL    HW115707   5.877   4.074   7.835
37958SOL    HW215708   5.732   4.035   7.814
37959SOL     OW15709  10.702   6.951   8.501
37959SOL    HW115710  10.643   6.891   8.545
37959SOL    HW215711  10.683   7.037   8.539
37960SOL     OW15712   5.116   6.657  10.810
37960SOL    HW115713   5.125   6.745  10.773
37960SOL    HW215714   5.203   6.638  10.846
37961SOL     OW15715   8.209   9.456  13.067
37961SOL    HW115716   8.246   9.541  13.092
37961SOL    HW215717   8.114   9.468  13.075
37962SOL     OW15718   2.264   7.828  11.139
37962SOL    HW115719   2.279   7.866  11.053
37962SOL    HW215720   2.313   7.746  11.137
37963SOL     OW15721   0.840  11.199   2.802
37963SOL    HW115722   0.878  11.116   2.772
37963SOL    HW215723   0.807  11.241   2.723
37964SOL     OW15724  13.726  14.731   0.432
37964SOL    HW115725  13.655  14.794   0.429
37964SOL    HW215726  13.724  14.689   0.345
37965SOL     OW15727   1.825   1.078   5.985
37965SOL    HW115728   1.844   1.172   5.988
37965SOL    HW215729   1.906   1.039   5.952
37966SOL     OW15730   2.652   8.156   4.696
37966SOL    HW115731   2.747   8.148   4.694
37966SOL    HW215732   2.623   8.133   4.607
37967SOL     OW15733  12.286   3.694   4.074
37967SOL    HW115734  12.213   3.653   4.028
37967SOL    HW215735  12.362   3.674   4.019
37968SOL     OW15736   1.137   4.162   7.425
37968SOL    HW115737   1.171   4.169   7.336
37968SOL    HW215738   1.100   4.074   7.430
37969SOL     OW15739   6.281  12.379  11.153
37969SOL    HW115740   6.292  12.440  11.080
37969SOL    HW215741   6.291  12.433  11.232
37970SOL     OW15742   1.881  10.857   1.851
37970SOL    HW115743   1.888  10.878   1.944
37970SOL    HW215744   1.806  10.798   1.845
37971SOL     OW15745  13.742   2.876   0.662
37971SOL    HW115746  13.799   2.910   0.593
37971SOL    HW215747  13.782   2.793   0.688
37972SOL     OW15748   5.491  10.490   2.941
37972SOL    HW115749   5.436  10.441   2.880
37972SOL    HW215750   5.580  10.475   2.910
37973SOL     OW15751  12.374  12.271   6.622
37973SOL    HW115752  12.361  12.222   6.541
37973SOL    HW215753  12.469  12.283   6.629
37974SOL     OW15754   5.090  14.236   5.147
37974SOL    HW115755   5.110  14.213   5.056
37974SOL    HW215756   4.995  14.228   5.154
37975SOL     OW15757  10.374   4.493  10.660
37975SOL    HW115758  10.288   4.467  10.628
37975SOL    HW215759  10.423   4.410  10.667
37976SOL     OW15760   4.216  11.784   6.820
37976SOL    HW115761   4.139  11.755   6.772
37976SOL    HW215762   4.186  11.857   6.874
37977SOL     OW15763   2.726   3.552   0.487
37977SOL    HW115764   2.652   3.546   0.547
37977SOL    HW215765   2.700   3.619   0.423
37978SOL     OW15766   0.848   4.369   3.298
37978SOL    HW115767   0.879   4.292   3.250
37978SOL    HW215768   0.753   4.368   3.287
37979SOL     OW15769   3.431  11.939  10.430
37979SOL    HW115770   3.441  11.937  10.335
37979SOL    HW215771   3.507  11.988  10.462
37980SOL     OW15772   5.347  11.006   7.136
37980SOL    HW115773   5.373  10.914   7.143
37980SOL    HW215774   5.369  11.031   7.046
37981SOL     OW15775  11.955   7.346  14.453
37981SOL    HW115776  11.889   7.414  14.466
37981SOL    HW215777  11.919   7.269  14.497
37982SOL     OW15778  10.535   3.586  11.273
37982SOL    HW115779  10.443   3.592  11.245
37982SOL    HW215780  10.580   3.550  11.197
37983SOL     OW15781   6.784   1.205   1.750
37983SOL    HW115782   6.809   1.128   1.801
37983SOL    HW215783   6.826   1.192   1.664
37984SOL     OW15784  12.725   6.775   4.404
37984SOL    HW115785  12.785   6.770   4.330
37984SOL    HW215786  12.759   6.711   4.467
37985SOL     OW15787   6.539   3.834   2.012
37985SOL    HW115788   6.524   3.818   2.105
37985SOL    HW215789   6.527   3.748   1.971
37986SOL     OW15790   4.317   8.419  10.200
37986SOL    HW115791   4.376   8.460  10.137
37986SOL    HW215792   4.273   8.349  10.152
37987SOL     OW15793  10.560   2.585  13.412
37987SOL    HW115794  10.579   2.491  13.424
37987SOL    HW215795  10.556   2.597  13.317
37988SOL     OW15796   8.214  13.317   8.783
37988SOL    HW115797   8.128  13.342   8.751
37988SOL    HW215798   8.207  13.223   8.801
37989SOL     OW15799   9.056   0.737  13.087
37989SOL    HW115800   9.034   0.698  13.172
37989SOL    HW215801   9.036   0.830  13.098
37990SOL     OW15802   4.821   8.142   4.545
37990SOL    HW115803   4.878   8.126   4.620
37990SOL    HW215804   4.847   8.076   4.481
37991SOL     OW15805  12.893   1.863   2.854
37991SOL    HW115806  12.851   1.786   2.815
37991SOL    HW215807  12.822   1.924   2.870
37992SOL     OW15808   5.830   7.002  10.866
37992SOL    HW115809   5.808   6.913  10.895
37992SOL    HW215810   5.767   7.021  10.797
37993SOL     OW15811   7.732   4.600  10.782
37993SOL    HW115812   7.816   4.646  10.782
37993SOL    HW215813   7.739   4.537  10.710
37994SOL     OW15814   3.680   5.905   3.201
37994SOL    HW115815   3.683   5.818   3.242
37994SOL    HW215816   3.618   5.896   3.129
37995SOL     OW15817   7.767   2.019  11.411
37995SOL    HW115818   7.817   1.990  11.334
37995SOL    HW215819   7.831   2.066  11.464
37996SOL     OW15820   4.290  10.376  14.162
37996SOL    HW115821   4.356  10.309  14.178
37996SOL    HW215822   4.227  10.364  14.234
37997SOL     OW15823   8.731   6.953   4.640
37997SOL    HW115824   8.815   6.920   4.606
37997SOL    HW215825   8.687   6.989   4.563
37998SOL     OW15826   1.674   5.001   9.337
37998SOL    HW115827   1.726   4.970   9.263
37998SOL    HW215828   1.731   5.062   9.383
37999SOL     OW15829   4.497   1.499   8.303
37999SOL    HW115830   4.587   1.496   8.271
37999SOL    HW215831   4.493   1.577   8.358
38000SOL     OW15832   3.485   5.138   1.470
38000SOL    HW115833   3.571   5.098   1.462
38000SOL    HW215834   3.426   5.066   1.492
38001SOL     OW15835  13.018   7.371   2.458
38001SOL    HW115836  13.004   7.422   2.378
38001SOL    HW215837  13.107   7.390   2.484
38002SOL     OW15838   0.182  11.020   6.022
38002SOL    HW115839   0.204  10.992   5.933
38002SOL    HW215840   0.219  11.108   6.030
38003SOL     OW15841   8.235   1.132  11.174
38003SOL    HW115842   8.235   1.152  11.267
38003SOL    HW215843   8.217   1.038  11.170
38004SOL     OW15844   4.854   7.702   7.665
38004SOL    HW115845   4.833   7.794   7.678
38004SOL    HW215846   4.888   7.698   7.575
38005SOL     OW15847   5.615  13.836   1.905
38005SOL    HW115848   5.705  13.869   1.909
38005SOL    HW215849   5.623  13.742   1.915
38006SOL     OW15850   1.512   2.626   4.006
38006SOL    HW115851   1.436   2.643   4.061
38006SOL    HW215852   1.502   2.536   3.977
38007SOL     OW15853   7.812   6.663   9.871
38007SOL    HW115854   7.751   6.701   9.934
38007SOL    HW215855   7.767   6.669   9.787
38008SOL     OW15856  14.127   8.599   0.123
38008SOL    HW115857  14.063   8.552   0.175
38008SOL    HW215858  14.206   8.601   0.177
38009SOL     OW15859   4.318   7.436   8.985
38009SOL    HW115860   4.335   7.514   8.933
38009SOL    HW215861   4.260   7.466   9.055
38010SOL     OW15862   8.174  13.602   6.342
38010SOL    HW115863   8.225  13.671   6.384
38010SOL    HW215864   8.084  13.618   6.369
38011SOL     OW15865   0.794   7.929  13.689
38011SOL    HW115866   0.727   7.929  13.621
38011SOL    HW215867   0.769   7.856  13.747
38012SOL     OW15868   8.689   9.303   2.065
38012SOL    HW115869   8.615   9.352   2.101
38012SOL    HW215870   8.747   9.369   2.029
38013SOL     OW15871  11.913   5.251   9.876
38013SOL    HW115872  11.871   5.166   9.890
38013SOL    HW215873  11.955   5.243   9.790
38014SOL     OW15874  10.795   3.402   5.894
38014SOL    HW115875  10.718   3.359   5.856
38014SOL    HW215876  10.858   3.330   5.907
38015SOL     OW15877   5.960   7.214   7.348
38015SOL    HW115878   6.003   7.266   7.279
38015SOL    HW215879   5.930   7.135   7.303
38016SOL     OW15880   6.864  14.196  13.515
38016SOL    HW115881   6.860  14.167  13.606
38016SOL    HW215882   6.957  14.188  13.492
38017SOL     OW15883   2.403   0.460   4.787
38017SOL    HW115884   2.475   0.497   4.736
38017SOL    HW215885   2.413   0.497   4.874
38018SOL     OW15886  11.505   4.209   1.737
38018SOL    HW115887  11.532   4.280   1.679
38018SOL    HW215888  11.417   4.185   1.707
38019SOL     OW15889   4.259   3.915   1.664
38019SOL    HW115890   4.168   3.889   1.648
38019SOL    HW215891   4.256   3.959   1.749
38020SOL     OW15892   2.538  13.413  12.911
38020SOL    HW115893   2.463  13.472  12.916
38020SOL    HW215894   2.507  13.331  12.949
38021SOL     OW15895   3.092   2.375   3.176
38021SOL    HW115896   3.168   2.411   3.129
38021SOL    HW215897   3.130   2.327   3.250
38022SOL     OW15898  13.681  10.024   0.225
38022SOL    HW115899  13.607  10.027   0.165
38022SOL    HW215900  13.643  10.005   0.311
38023SOL     OW15901   8.457  13.923   1.505
38023SOL    HW115902   8.369  13.885   1.510
38023SOL    HW215903   8.461  13.964   1.419
38024SOL     OW15904   9.340  10.818   2.553
38024SOL    HW115905   9.254  10.855   2.575
38024SOL    HW215906   9.335  10.803   2.458
38025SOL     OW15907  14.574   2.288   6.741
38025SOL    HW115908  14.608   2.277   6.653
38025SOL    HW215909  14.597   2.378   6.764
38026SOL     OW15910   2.451  12.601  10.689
38026SOL    HW115911   2.396  12.586  10.613
38026SOL    HW215912   2.440  12.694  10.709
38027SOL     OW15913   9.518  14.806   9.676
38027SOL    HW115914   9.466  14.849   9.608
38027SOL    HW215915   9.535  14.875   9.740
38028SOL     OW15916   1.902  10.562   7.399
38028SOL    HW115917   1.820  10.554   7.448
38028SOL    HW215918   1.923  10.655   7.402
38029SOL     OW15919  10.840   9.582   7.121
38029SOL    HW115920  10.832   9.593   7.216
38029SOL    HW215921  10.889   9.500   7.110
38030SOL     OW15922  12.794   6.811   7.265
38030SOL    HW115923  12.813   6.720   7.289
38030SOL    HW215924  12.872   6.840   7.217
38031SOL     OW15925  11.318   7.868   0.614
38031SOL    HW115926  11.413   7.857   0.619
38031SOL    HW215927  11.284   7.779   0.622
38032SOL     OW15928   4.318   8.830   6.408
38032SOL    HW115929   4.372   8.879   6.469
38032SOL    HW215930   4.356   8.742   6.409
38033SOL     OW15931  11.057  12.350   7.340
38033SOL    HW115932  11.053  12.404   7.261
38033SOL    HW215933  11.141  12.305   7.336
38034SOL     OW15934   8.528   6.563   8.029
38034SOL    HW115935   8.544   6.536   7.939
38034SOL    HW215936   8.464   6.500   8.062
38035SOL     OW15937   7.263   7.417   4.394
38035SOL    HW115938   7.325   7.491   4.388
38035SOL    HW215939   7.201   7.432   4.323
38036SOL     OW15940  10.646   5.127  13.535
38036SOL    HW115941  10.631   5.161  13.624
38036SOL    HW215942  10.658   5.206  13.482
38037SOL     OW15943  10.929  13.038   9.917
38037SOL    HW115944  10.914  13.106   9.851
38037SOL    HW215945  11.011  13.063   9.959
38038SOL     OW15946   4.692   2.634  14.174
38038SOL    HW115947   4.656   2.605  14.257
38038SOL    HW215948   4.645   2.584  14.108
38039SOL     OW15949  11.677   9.552  10.176
38039SOL    HW115950  11.608   9.499  10.136
38039SOL    HW215951  11.752   9.542  10.118
38040SOL     OW15952   8.614   3.089   3.821
38040SOL    HW115953   8.613   3.048   3.734
38040SOL    HW215954   8.560   3.167   3.811
38041SOL     OW15955   1.433   4.637   8.434
38041SOL    HW115956   1.528   4.639   8.420
38041SOL    HW215957   1.397   4.606   8.351
38042SOL     OW15958   2.082   0.716   7.720
38042SOL    HW115959   2.040   0.771   7.787
38042SOL    HW215960   2.166   0.759   7.704
38043SOL     OW15961   6.458   5.665  10.329
38043SOL    HW115962   6.375   5.698  10.295
38043SOL    HW215963   6.498   5.620  10.254
38044SOL     OW15964   7.009   0.836  10.224
38044SOL    HW115965   7.057   0.917  10.238
38044SOL    HW215966   7.075   0.767  10.233
38045SOL     OW15967   3.417  12.177   1.066
38045SOL    HW115968   3.360  12.249   1.039
38045SOL    HW215969   3.495  12.221   1.101
38046SOL     OW15970   4.094  14.000  11.175
38046SOL    HW115971   4.014  14.027  11.131
38046SOL    HW215972   4.063  13.959  11.256
38047SOL     OW15973   5.409   8.033   2.243
38047SOL    HW115974   5.385   8.102   2.182
38047SOL    HW215975   5.358   7.957   2.215
38048SOL     OW15976   7.560  14.025   5.802
38048SOL    HW115977   7.498  14.060   5.867
38048SOL    HW215978   7.519  13.944   5.771
38049SOL     OW15979  12.058  12.017   7.556
38049SOL    HW115980  12.003  12.086   7.521
38049SOL    HW215981  12.090  11.970   7.479
38050SOL     OW15982  11.573  11.893  11.025
38050SOL    HW115983  11.597  11.919  11.114
38050SOL    HW215984  11.477  11.901  11.023
38051SOL     OW15985   8.871   0.048   6.904
38051SOL    HW115986   8.806  14.864   6.932
38051SOL    HW215987   8.843   0.131   6.945
38052SOL     OW15988   4.979  13.001   3.902
38052SOL    HW115989   4.911  13.034   3.961
38052SOL    HW215990   5.061  13.027   3.942
38053SOL     OW15991   1.647   3.179   6.523
38053SOL    HW115992   1.742   3.181   6.507
38053SOL    HW215993   1.609   3.216   6.443
38054SOL     OW15994   1.778  11.275   8.780
38054SOL    HW115995   1.717  11.347   8.801
38054SOL    HW215996   1.773  11.267   8.685
38055SOL     OW15997   8.820  12.168   1.735
38055SOL    HW115998   8.850  12.259   1.745
38055SOL    HW215999   8.867  12.120   1.803
38056SOL     OW16000   7.410   2.080   2.999
38056SOL    HW116001   7.471   2.151   2.976
38056SOL    HW216002   7.396   2.090   3.093
38057SOL     OW16003  11.993   4.867   0.016
38057SOL    HW116004  12.036   4.786  14.866
38057SOL    HW216005  12.029   4.935  14.838
38058SOL     OW16006   6.916   3.440   7.684
38058SOL    HW116007   6.990   3.384   7.660
38058SOL    HW216008   6.945   3.485   7.764
38059SOL     OW16009   6.574   7.482  11.354
38059SOL    HW116010   6.564   7.478  11.449
38059SOL    HW216011   6.596   7.573  11.336
38060SOL     OW16012   9.942   5.616  12.216
38060SOL    HW116013   9.859   5.573  12.236
38060SOL    HW216014   9.919   5.688  12.158
38061SOL     OW16015   5.696   7.056  10.184
38061SOL    HW116016   5.691   7.068  10.089
38061SOL    HW216017   5.768   7.114  10.211
38062SOL     OW16018   2.274  12.234   4.744
38062SOL    HW116019   2.180  12.214   4.744
38062SOL    HW216020   2.296  12.241   4.651
38063SOL     OW16021  13.872   9.801  11.194
38063SOL    HW116022  13.849   9.721  11.241
38063SOL    HW216023  13.802   9.812  11.129
38064SOL     OW16024  12.220   7.740  14.362
38064SOL    HW116025  12.146   7.721  14.305
38064SOL    HW216026  12.230   7.835  14.356
38065SOL     OW16027   4.341   8.085   3.421
38065SOL    HW116028   4.380   8.020   3.479
38065SOL    HW216029   4.375   8.063   3.334
38066SOL     OW16030  14.449  11.382  13.988
38066SOL    HW116031  14.379  11.445  13.971
38066SOL    HW216032  14.463  11.387  14.083
38067SOL     OW16033   5.218  14.637   1.583
38067SOL    HW116034   5.210  14.580   1.507
38067SOL    HW216035   5.213  14.578   1.658
38068SOL     OW16036   1.719   4.074   3.146
38068SOL    HW116037   1.687   4.134   3.079
38068SOL    HW216038   1.650   4.073   3.212
38069SOL     OW16039   0.265   9.040   5.887
38069SOL    HW116040   0.305   8.964   5.844
38069SOL    HW216041   0.211   9.080   5.818
38070SOL     OW16042   6.145   2.159  12.135
38070SOL    HW116043   6.062   2.127  12.170
38070SOL    HW216044   6.182   2.083  12.089
38071SOL     OW16045   9.999  14.549   9.180
38071SOL    HW116046   9.920  14.546   9.125
38071SOL    HW216047   9.969  14.589   9.262
38072SOL     OW16048   6.953   4.971   3.874
38072SOL    HW116049   7.041   4.957   3.911
38072SOL    HW216050   6.967   5.034   3.804
38073SOL     OW16051  10.400   7.667   0.175
38073SOL    HW116052  10.371   7.687   0.086
38073SOL    HW216053  10.406   7.753   0.218
38074SOL     OW16054   6.945   5.053   7.174
38074SOL    HW116055   6.975   5.103   7.250
38074SOL    HW216056   6.938   4.963   7.206
38075SOL     OW16057  10.060  14.034  11.183
38075SOL    HW116058   9.985  13.977  11.195
38075SOL    HW216059  10.086  14.059  11.272
38076SOL     OW16060   7.687   8.773  10.517
38076SOL    HW116061   7.758   8.788  10.454
38076SOL    HW216062   7.719   8.812  10.598
38077SOL     OW16063  11.912   4.709  12.866
38077SOL    HW116064  11.894   4.687  12.957
38077SOL    HW216065  11.998   4.670  12.849
38078SOL     OW16066   9.340   8.156   4.332
38078SOL    HW116067   9.290   8.236   4.318
38078SOL    HW216068   9.338   8.141   4.427
38079SOL     OW16069  13.325   9.622  14.415
38079SOL    HW116070  13.322   9.552  14.480
38079SOL    HW216071  13.348   9.578  14.333
38080SOL     OW16072   0.600   5.886   0.828
38080SOL    HW116073   0.614   5.800   0.789
38080SOL    HW216074   0.685   5.929   0.823
38081SOL     OW16075   2.837   5.781  13.066
38081SOL    HW116076   2.796   5.707  13.020
38081SOL    HW216077   2.929   5.774  13.043
38082SOL     OW16078  10.442   2.673  10.925
38082SOL    HW116079  10.426   2.665  10.831
38082SOL    HW216080  10.364   2.717  10.959
38083SOL     OW16081   8.089  10.467  11.421
38083SOL    HW116082   8.115  10.386  11.466
38083SOL    HW216083   8.158  10.529  11.442
38084SOL     OW16084  10.307  12.533   7.069
38084SOL    HW116085  10.366  12.604   7.096
38084SOL    HW216086  10.360  12.454   7.078
38085SOL     OW16087   0.465   9.533   3.524
38085SOL    HW116088   0.487   9.477   3.599
38085SOL    HW216089   0.374   9.513   3.505
38086SOL     OW16090   9.503   8.819   8.846
38086SOL    HW116091   9.578   8.773   8.882
38086SOL    HW216092   9.540   8.897   8.805
38087SOL     OW16093   7.467   6.885   6.017
38087SOL    HW116094   7.395   6.889   6.080
38087SOL    HW216095   7.522   6.960   6.038
38088SOL     OW16096   0.540  13.624  12.420
38088SOL    HW116097   0.607  13.604  12.355
38088SOL    HW216098   0.588  13.660  12.494
38089SOL     OW16099   2.380  13.322   4.302
38089SOL    HW116100   2.404  13.286   4.217
38089SOL    HW216101   2.364  13.414   4.286
38090SOL     OW16102   0.110   9.051  12.087
38090SOL    HW116103   0.159   9.001  12.022
38090SOL    HW216104   0.174   9.074  12.154
38091SOL     OW16105   8.862   4.921  13.532
38091SOL    HW116106   8.928   4.989  13.546
38091SOL    HW216107   8.783   4.967  13.505
38092SOL     OW16108  13.048   1.722   3.684
38092SOL    HW116109  13.089   1.708   3.599
38092SOL    HW216110  12.998   1.803   3.674
38093SOL     OW16111   9.993   0.523   0.455
38093SOL    HW116112  10.076   0.475   0.462
38093SOL    HW216113   9.982   0.537   0.361
38094SOL     OW16114   4.023   5.515   6.705
38094SOL    HW116115   4.107   5.528   6.748
38094SOL    HW216116   3.961   5.565   6.757
38095SOL     OW16117   6.065   1.673   9.479
38095SOL    HW116118   6.101   1.682   9.390
38095SOL    HW216119   6.083   1.582   9.503
38096SOL     OW16120   3.766   5.328   1.149
38096SOL    HW116121   3.747   5.367   1.235
38096SOL    HW216122   3.814   5.248   1.169
38097SOL     OW16123   0.935   5.646   4.871
38097SOL    HW116124   0.998   5.581   4.902
38097SOL    HW216125   0.927   5.628   4.777
38098SOL     OW16126   2.322   3.970   9.183
38098SOL    HW116127   2.283   3.963   9.270
38098SOL    HW216128   2.416   3.981   9.199
38099SOL     OW16129   4.163   6.153   0.308
38099SOL    HW116130   4.180   6.059   0.315
38099SOL    HW216131   4.236   6.194   0.354
38100SOL     OW16132   1.015   1.361   8.906
38100SOL    HW116133   0.934   1.408   8.885
38100SOL    HW216134   1.080   1.430   8.922
38101SOL     OW16135   1.208  12.609   1.625
38101SOL    HW116136   1.250  12.686   1.588
38101SOL    HW216137   1.116  12.618   1.602
38102SOL     OW16138  10.521  12.507   5.836
38102SOL    HW116139  10.511  12.423   5.880
38102SOL    HW216140  10.520  12.571   5.908
38103SOL     OW16141   4.240   1.578  10.362
38103SOL    HW116142   4.306   1.524  10.318
38103SOL    HW216143   4.259   1.566  10.456
38104SOL     OW16144   6.494   4.521   1.302
38104SOL    HW116145   6.411   4.512   1.255
38104SOL    HW216146   6.553   4.563   1.239
38105SOL     OW16147   9.853   1.584  11.697
38105SOL    HW116148   9.931   1.540  11.665
38105SOL    HW216149   9.788   1.515  11.707
38106SOL     OW16150   1.691  10.111  14.567
38106SOL    HW116151   1.598  10.119  14.545
38106SOL    HW216152   1.693  10.051  14.641
38107SOL     OW16153  11.070   1.952   0.422
38107SOL    HW116154  11.088   1.954   0.328
38107SOL    HW216155  11.036   1.864   0.438
38108SOL     OW16156   9.071   6.047   2.268
38108SOL    HW116157   9.108   6.110   2.207
38108SOL    HW216158   8.978   6.071   2.274
38109SOL     OW16159  11.408   7.642   0.972
38109SOL    HW116160  11.446   7.723   0.939
38109SOL    HW216161  11.483   7.583   0.983
38110SOL     OW16162   0.404   9.788   5.938
38110SOL    HW116163   0.464   9.835   5.996
38110SOL    HW216164   0.350   9.856   5.899
38111SOL     OW16165   1.882   7.017   5.524
38111SOL    HW116166   1.875   7.112   5.532
38111SOL    HW216167   1.976   7.000   5.528
38112SOL     OW16168  14.586  10.106  14.119
38112SOL    HW116169  14.625  10.072  14.039
38112SOL    HW216170  14.651  10.166  14.154
38113SOL     OW16171   0.995   0.254   7.460
38113SOL    HW116172   1.087   0.227   7.462
38113SOL    HW216173   0.947   0.179   7.496
38114SOL     OW16174   8.218   1.414   4.994
38114SOL    HW116175   8.241   1.502   4.965
38114SOL    HW216176   8.295   1.383   5.041
38115SOL     OW16177  12.069   3.045   9.503
38115SOL    HW116178  12.024   2.994   9.435
38115SOL    HW216179  12.154   3.066   9.465
38116SOL     OW16180   9.714  12.430   1.019
38116SOL    HW116181   9.742  12.405   1.106
38116SOL    HW216182   9.618  12.429   1.024
38117SOL     OW16183   6.291  14.080   1.290
38117SOL    HW116184   6.272  13.987   1.279
38117SOL    HW216185   6.387  14.085   1.294
38118SOL     OW16186  13.619   6.045  12.387
38118SOL    HW116187  13.642   6.043  12.480
38118SOL    HW216188  13.702   6.044  12.341
38119SOL     OW16189  12.493   7.023   8.624
38119SOL    HW116190  12.435   7.005   8.550
38119SOL    HW216191  12.574   7.054   8.583
38120SOL     OW16192  10.749   5.604  12.625
38120SOL    HW116193  10.762   5.549  12.703
38120SOL    HW216194  10.656   5.628  12.628
38121SOL     OW16195  13.207  12.839   2.775
38121SOL    HW116196  13.187  12.879   2.859
38121SOL    HW216197  13.303  12.838   2.771
38122SOL     OW16198  10.286  10.973   6.911
38122SOL    HW116199  10.197  10.999   6.887
38122SOL    HW216200  10.301  10.891   6.863
38123SOL     OW16201   1.662   6.233   6.104
38123SOL    HW116202   1.757   6.234   6.112
38123SOL    HW216203   1.646   6.183   6.024
38124SOL     OW16204   8.167   3.954  13.303
38124SOL    HW116205   8.113   3.955  13.223
38124SOL    HW216206   8.196   3.864  13.311
38125SOL     OW16207   9.991  11.082   4.936
38125SOL    HW116208  10.012  11.105   5.027
38125SOL    HW216209   9.914  11.136   4.915
38126SOL     OW16210   6.165  12.664   2.774
38126SOL    HW116211   6.155  12.647   2.868
38126SOL    HW216212   6.234  12.603   2.746
38127SOL     OW16213   9.990   1.048   8.106
38127SOL    HW116214  10.083   1.072   8.102
38127SOL    HW216215   9.944   1.128   8.083
38128SOL     OW16216   7.011  11.296   8.852
38128SOL    HW116217   6.960  11.280   8.773
38128SOL    HW216218   7.092  11.245   8.838
38129SOL     OW16219   9.281   7.786  10.784
38129SOL    HW116220   9.210   7.850  10.782
38129SOL    HW216221   9.336   7.813  10.859
38130SOL     OW16222   6.484   5.940   5.799
38130SOL    HW116223   6.542   5.993   5.853
38130SOL    HW216224   6.508   5.850   5.818
38131SOL     OW16225  12.892   6.599  14.374
38131SOL    HW116226  12.907   6.673  14.315
38131SOL    HW216227  12.845   6.637  14.448
38132SOL     OW16228   9.798   6.683   9.722
38132SOL    HW116229   9.835   6.645   9.643
38132SOL    HW216230   9.723   6.627   9.742
38133SOL     OW16231  13.023   6.251   7.522
38133SOL    HW116232  13.054   6.335   7.489
38133SOL    HW216233  13.031   6.258   7.617
38134SOL     OW16234   8.228   2.693   1.039
38134SOL    HW116235   8.167   2.693   1.113
38134SOL    HW216236   8.305   2.739   1.071
38135SOL     OW16237   4.634  11.767   5.617
38135SOL    HW116238   4.685  11.686   5.620
38135SOL    HW216239   4.580  11.758   5.538
38136SOL     OW16240   2.505   9.716   2.413
38136SOL    HW116241   2.466   9.629   2.421
38136SOL    HW216242   2.438   9.775   2.447
38137SOL     OW16243   6.997   3.108  13.599
38137SOL    HW116244   6.950   3.132  13.520
38137SOL    HW216245   6.936   3.126  13.671
38138SOL     OW16246  13.816  11.495   9.572
38138SOL    HW116247  13.906  11.528   9.562
38138SOL    HW216248  13.761  11.564   9.534
38139SOL     OW16249   4.225  11.060   3.174
38139SOL    HW116250   4.136  11.095   3.184
38139SOL    HW216251   4.236  11.001   3.249
38140SOL     OW16252  13.667   7.708   3.802
38140SOL    HW116253  13.588   7.751   3.834
38140SOL    HW216254  13.671   7.626   3.851
38141SOL     OW16255   5.268  11.688   7.945
38141SOL    HW116256   5.183  11.645   7.944
38141SOL    HW216257   5.317  11.640   8.012
38142SOL     OW16258  14.596   2.282   8.464
38142SOL    HW116259  14.640   2.230   8.532
38142SOL    HW216260  14.555   2.354   8.511
38143SOL     OW16261   8.298  14.557  13.094
38143SOL    HW116262   8.378  14.532  13.048
38143SOL    HW216263   8.291  14.494  13.166
38144SOL     OW16264   8.306   3.981   5.652
38144SOL    HW116265   8.247   3.917   5.614
38144SOL    HW216266   8.344   4.026   5.577
38145SOL     OW16267  12.709  14.041  13.912
38145SOL    HW116268  12.740  14.122  13.953
38145SOL    HW216269  12.617  14.036  13.937
38146SOL     OW16270   1.283   9.569   6.846
38146SOL    HW116271   1.313   9.525   6.926
38146SOL    HW216272   1.327   9.523   6.775
38147SOL     OW16273   3.351   9.880   1.718
38147SOL    HW116274   3.319   9.792   1.696
38147SOL    HW216275   3.399   9.869   1.800
38148SOL     OW16276   0.565   0.122   1.270
38148SOL    HW116277   0.578   0.117   1.365
38148SOL    HW216278   0.470   0.123   1.259
38149SOL     OW16279  12.389   9.298  10.219
38149SOL    HW116280  12.339   9.367  10.262
38149SOL    HW216281  12.335   9.220  10.226
38150SOL     OW16282   7.118  14.471  12.905
38150SOL    HW116283   7.130  14.558  12.865
38150SOL    HW216284   7.202  14.427  12.891
38151SOL     OW16285   7.018   0.302   2.075
38151SOL    HW116286   6.992   0.255   1.996
38151SOL    HW216287   6.952   0.278   2.140
38152SOL     OW16288  10.010  13.967   1.188
38152SOL    HW116289  10.082  13.995   1.131
38152SOL    HW216290  10.009  14.032   1.258
38153SOL     OW16291   6.234  11.374  12.270
38153SOL    HW116292   6.323  11.399  12.248
38153SOL    HW216293   6.210  11.308  12.205
38154SOL     OW16294   3.069  11.294   5.562
38154SOL    HW116295   3.028  11.284   5.476
38154SOL    HW216296   3.123  11.372   5.554
38155SOL     OW16297   9.728  12.069   6.002
38155SOL    HW116298   9.764  12.059   5.914
38155SOL    HW216299   9.804  12.087   6.057
38156SOL     OW16300   3.513  13.011   4.414
38156SOL    HW116301   3.447  13.046   4.353
38156SOL    HW216302   3.594  13.009   4.363
38157SOL     OW16303  11.397  12.533   7.374
38157SOL    HW116304  11.318  12.587   7.368
38157SOL    HW216305  11.365  12.443   7.363
38158SOL     OW16306   0.843   2.593  10.628
38158SOL    HW116307   0.935   2.604  10.604
38158SOL    HW216308   0.808   2.531  10.564
38159SOL     OW16309   1.105   2.424   0.905
38159SOL    HW116310   1.106   2.330   0.887
38159SOL    HW216311   1.055   2.461   0.832
38160SOL     OW16312   5.897  12.457   9.298
38160SOL    HW116313   5.894  12.379   9.354
38160SOL    HW216314   5.932  12.426   9.215
38161SOL     OW16315   3.729   5.255  14.342
38161SOL    HW116316   3.671   5.204  14.397
38161SOL    HW216317   3.817   5.230  14.370
38162SOL     OW16318   0.366  10.048  14.477
38162SOL    HW116319   0.285  10.089  14.508
38162SOL    HW216320   0.342   9.957  14.460
38163SOL     OW16321   9.968   8.935  11.355
38163SOL    HW116322   9.891   8.975  11.313
38163SOL    HW216323  10.042   8.986  11.322
38164SOL     OW16324   3.575   4.757   1.356
38164SOL    HW116325   3.552   4.836   1.306
38164SOL    HW216326   3.521   4.688   1.317
38165SOL     OW16327   2.135   9.908   2.149
38165SOL    HW116328   2.188   9.833   2.122
38165SOL    HW216329   2.194   9.962   2.201
38166SOL     OW16330  11.100   6.438  11.905
38166SOL    HW116331  11.120   6.386  11.827
38166SOL    HW216332  11.174   6.499  11.912
38167SOL     OW16333  12.044   0.183   3.665
38167SOL    HW116334  12.082   0.107   3.621
38167SOL    HW216335  12.016   0.149   3.750
38168SOL     OW16336  11.019   4.729   8.877
38168SOL    HW116337  11.024   4.719   8.782
38168SOL    HW216338  10.959   4.803   8.890
38169SOL     OW16339   0.564   8.133  14.398
38169SOL    HW116340   0.569   8.168  14.309
38169SOL    HW216341   0.637   8.071  14.404
38170SOL     OW16342   7.397   4.062   5.635
38170SOL    HW116343   7.435   4.147   5.659
38170SOL    HW216344   7.415   4.006   5.711
38171SOL     OW16345   4.733   4.632  10.714
38171SOL    HW116346   4.739   4.545  10.754
38171SOL    HW216347   4.717   4.615  10.621
38172SOL     OW16348  13.493  12.305  12.804
38172SOL    HW116349  13.509  12.250  12.727
38172SOL    HW216350  13.574  12.298  12.856
38173SOL     OW16351   4.069   8.508  14.673
38173SOL    HW116352   4.079   8.559  14.592
38173SOL    HW216353   4.020   8.566  14.731
38174SOL     OW16354   7.362  13.946  12.046
38174SOL    HW116355   7.449  13.944  12.004
38174SOL    HW216356   7.377  13.908  12.132
38175SOL     OW16357   3.201   3.587   5.914
38175SOL    HW116358   3.188   3.675   5.879
38175SOL    HW216359   3.216   3.532   5.837
38176SOL     OW16360   2.146  14.613   9.008
38176SOL    HW116361   2.143  14.702   8.972
38176SOL    HW216362   2.231  14.580   8.980
38177SOL     OW16363   7.157   1.439   8.963
38177SOL    HW116364   7.068   1.404   8.965
38177SOL    HW216365   7.181   1.447   9.055
38178SOL     OW16366   9.664   3.827   6.190
38178SOL    HW116367   9.605   3.889   6.232
38178SOL    HW216368   9.642   3.742   6.229
38179SOL     OW16369  11.169  12.596   3.903
38179SOL    HW116370  11.128  12.621   3.821
38179SOL    HW216371  11.170  12.501   3.902
38180SOL     OW16372  13.941  10.471   1.967
38180SOL    HW116373  13.862  10.447   1.918
38180SOL    HW216374  14.011  10.468   1.901
38181SOL     OW16375   0.730  11.718  13.563
38181SOL    HW116376   0.670  11.761  13.503
38181SOL    HW216377   0.721  11.765  13.646
38182SOL     OW16378   5.071  12.771  13.744
38182SOL    HW116379   5.017  12.742  13.817
38182SOL    HW216380   5.131  12.835  13.782
38183SOL     OW16381   1.460   2.182   8.555
38183SOL    HW116382   1.502   2.253   8.508
38183SOL    HW216383   1.391   2.224   8.607
38184SOL     OW16384   3.548   5.509  10.254
38184SOL    HW116385   3.615   5.516  10.321
38184SOL    HW216386   3.540   5.597  10.218
38185SOL     OW16387   5.476  10.493   5.221
38185SOL    HW116388   5.458  10.415   5.273
38185SOL    HW216389   5.400  10.550   5.235
38186SOL     OW16390  13.839  11.363  12.303
38186SOL    HW116391  13.889  11.284  12.323
38186SOL    HW216392  13.794  11.384  12.385
38187SOL     OW16393   8.686   0.890   4.250
38187SOL    HW116394   8.662   0.925   4.164
38187SOL    HW216395   8.677   0.964   4.309
38188SOL     OW16396  12.634   9.730  14.449
38188SOL    HW116397  12.579   9.679  14.508
38188SOL    HW216398  12.576   9.797  14.414
38189SOL     OW16399  11.030  11.714   2.930
38189SOL    HW116400  11.118  11.707   2.892
38189SOL    HW216401  11.005  11.805   2.917
38190SOL     OW16402   0.396  10.273  14.275
38190SOL    HW116403   0.436  10.300  14.192
38190SOL    HW216404   0.380  10.179  14.264
38191SOL     OW16405   2.348  12.028  12.026
38191SOL    HW116406   2.343  11.935  12.003
38191SOL    HW216407   2.402  12.067  11.957
38192SOL     OW16408   5.383   8.279  13.724
38192SOL    HW116409   5.369   8.355  13.667
38192SOL    HW216410   5.302   8.228  13.716
38193SOL     OW16411   5.446   5.359   9.003
38193SOL    HW116412   5.389   5.423   9.046
38193SOL    HW216413   5.519   5.348   9.064
38194SOL     OW16414   5.281  13.668  11.328
38194SOL    HW116415   5.350  13.732  11.345
38194SOL    HW216416   5.228  13.667  11.407
38195SOL     OW16417   3.398   8.831  10.668
38195SOL    HW116418   3.343   8.909  10.669
38195SOL    HW216419   3.401   8.803  10.760
38196SOL     OW16420   1.100  10.218   9.542
38196SOL    HW116421   1.179  10.170   9.567
38196SOL    HW216422   1.127  10.310   9.540
38197SOL     OW16423   5.406   9.554   9.661
38197SOL    HW116424   5.409   9.564   9.566
38197SOL    HW216425   5.318   9.522   9.680
38198SOL     OW16426   4.987   8.821   9.321
38198SOL    HW116427   4.929   8.825   9.245
38198SOL    HW216428   5.074   8.806   9.284
38199SOL     OW16429  11.131  14.044  14.263
38199SOL    HW116430  11.070  13.978  14.295
38199SOL    HW216431  11.138  14.027  14.169
38200SOL     OW16432   6.950   1.045  14.843
38200SOL    HW116433   6.861   1.079  14.852
38200SOL    HW216434   7.006   1.122  14.847
38201SOL     OW16435   5.008  11.693   1.273
38201SOL    HW116436   4.945  11.721   1.339
38201SOL    HW216437   4.957  11.685   1.192
38202SOL     OW16438   1.701  13.527   7.997
38202SOL    HW116439   1.711  13.537   8.092
38202SOL    HW216440   1.777  13.573   7.961
38203SOL     OW16441   8.071   1.275   1.072
38203SOL    HW116442   8.146   1.311   1.025
38203SOL    HW216443   8.087   1.181   1.074
38204SOL     OW16444  12.114   7.190  12.733
38204SOL    HW116445  12.024   7.195  12.700
38204SOL    HW216446  12.159   7.132  12.672
38205SOL     OW16447  10.911   6.281   8.227
38205SOL    HW116448  10.833   6.285   8.172
38205SOL    HW216449  10.901   6.200   8.277
38206SOL     OW16450   5.833  13.111  10.050
38206SOL    HW116451   5.867  13.146  10.132
38206SOL    HW216452   5.906  13.064  10.010
38207SOL     OW16453  11.696   1.828   3.873
38207SOL    HW116454  11.644   1.879   3.935
38207SOL    HW216455  11.778   1.876   3.866
38208SOL     OW16456   2.909  10.210  13.346
38208SOL    HW116457   2.977  10.193  13.281
38208SOL    HW216458   2.953  10.196  13.430
38209SOL     OW16459  12.182   6.559   8.355
38209SOL    HW116460  12.139   6.482   8.316
38209SOL    HW216461  12.167   6.629   8.291
38210SOL     OW16462   9.395   2.813  14.805
38210SOL    HW116463   9.465   2.799  14.741
38210SOL    HW216464   9.361   2.900  14.783
38211SOL     OW16465   3.471   6.912   4.023
38211SOL    HW116466   3.484   7.005   4.004
38211SOL    HW216467   3.445   6.874   3.939
38212SOL     OW16468   4.250   9.873   3.832
38212SOL    HW116469   4.258   9.930   3.756
38212SOL    HW216470   4.193   9.802   3.802
38213SOL     OW16471   8.057   7.881   7.812
38213SOL    HW116472   8.048   7.798   7.859
38213SOL    HW216473   8.116   7.861   7.739
38214SOL     OW16474  13.506  11.826   5.239
38214SOL    HW116475  13.435  11.770   5.269
38214SOL    HW216476  13.510  11.897   5.304
38215SOL     OW16477   0.774   9.471  11.727
38215SOL    HW116478   0.782   9.535  11.656
38215SOL    HW216479   0.689   9.489  11.767
38216SOL     OW16480   4.959  13.567   4.783
38216SOL    HW116481   4.904  13.501   4.742
38216SOL    HW216482   5.009  13.606   4.711
38217SOL     OW16483   2.633   5.999   0.167
38217SOL    HW116484   2.728   6.005   0.160
38217SOL    HW216485   2.610   6.056   0.240
38218SOL     OW16486   4.105   4.874   4.379
38218SOL    HW116487   4.128   4.944   4.318
38218SOL    HW216488   4.187   4.827   4.394
38219SOL     OW16489  11.504  13.316   0.475
38219SOL    HW116490  11.585  13.290   0.432
38219SOL    HW216491  11.451  13.353   0.405
38220SOL     OW16492   3.939  11.453   5.076
38220SOL    HW116493   3.953  11.437   4.982
38220SOL    HW216494   3.850  11.489   5.081
38221SOL     OW16495   6.716  14.120   1.001
38221SOL    HW116496   6.758  14.074   1.073
38221SOL    HW216497   6.751  14.079   0.922
38222SOL     OW16498   3.136  11.821   9.540
38222SOL    HW116499   3.058  11.776   9.573
38222SOL    HW216500   3.111  11.853   9.453
38223SOL     OW16501   2.428  10.742   6.861
38223SOL    HW116502   2.522  10.724   6.850
38223SOL    HW216503   2.425  10.836   6.882
38224SOL     OW16504   1.746  14.713  13.052
38224SOL    HW116505   1.694  14.645  13.009
38224SOL    HW216506   1.819  14.728  12.992
38225SOL     OW16507  12.450   6.387  13.136
38225SOL    HW116508  12.445   6.439  13.217
38225SOL    HW216509  12.540   6.355  13.134
38226SOL     OW16510   7.744  13.852   4.915
38226SOL    HW116511   7.665  13.802   4.895
38226SOL    HW216512   7.714  13.942   4.923
38227SOL     OW16513   5.659  13.079   3.710
38227SOL    HW116514   5.595  13.019   3.673
38227SOL    HW216515   5.622  13.105   3.794
38228SOL     OW16516   6.926   5.733   0.581
38228SOL    HW116517   6.853   5.783   0.618
38228SOL    HW216518   6.997   5.796   0.572
38229SOL     OW16519   4.992   3.938   0.550
38229SOL    HW116520   4.974   4.032   0.553
38229SOL    HW216521   5.055   3.924   0.621
38230SOL     OW16522  11.175   3.801  12.080
38230SOL    HW116523  11.225   3.757  12.012
38230SOL    HW216524  11.241   3.839  12.138
38231SOL     OW16525  12.789   4.429   7.156
38231SOL    HW116526  12.755   4.511   7.121
38231SOL    HW216527  12.751   4.422   7.244
38232SOL     OW16528   4.916   4.630  12.932
38232SOL    HW116529   4.894   4.707  12.881
38232SOL    HW216530   4.893   4.556  12.875
38233SOL     OW16531  10.622   5.728  13.256
38233SOL    HW116532  10.687   5.770  13.313
38233SOL    HW216533  10.600   5.795  13.191
38234SOL     OW16534  12.432  11.163   2.133
38234SOL    HW116535  12.344  11.142   2.103
38234SOL    HW216536  12.488  11.099   2.088
38235SOL     OW16537  12.009   7.148   9.391
38235SOL    HW116538  11.934   7.143   9.332
38235SOL    HW216539  12.083   7.123   9.337
38236SOL     OW16540   8.181  12.054   7.111
38236SOL    HW116541   8.092  12.025   7.132
38236SOL    HW216542   8.178  12.074   7.017
38237SOL     OW16543  13.647   5.894   9.073
38237SOL    HW116544  13.742   5.882   9.070
38237SOL    HW216545  13.620   5.894   8.981
38238SOL     OW16546  13.777   0.029  13.316
38238SOL    HW116547  13.817  14.843  13.374
38238SOL    HW216548  13.719  14.858  13.260
38239SOL     OW16549   7.445   0.154   4.395
38239SOL    HW116550   7.392   0.214   4.343
38239SOL    HW216551   7.502   0.110   4.332
38240SOL     OW16552   0.311  12.580   4.344
38240SOL    HW116553   0.382  12.615   4.291
38240SOL    HW216554   0.302  12.489   4.314
38241SOL     OW16555  10.871   6.570   9.335
38241SOL    HW116556  10.892   6.663   9.322
38241SOL    HW216557  10.944   6.523   9.294
38242SOL     OW16558  12.553   5.862   4.605
38242SOL    HW116559  12.590   5.930   4.662
38242SOL    HW216560  12.496   5.811   4.662
38243SOL     OW16561   5.171   2.141   1.922
38243SOL    HW116562   5.251   2.150   1.974
38243SOL    HW216563   5.116   2.214   1.950
38244SOL     OW16564   6.704   3.113   3.251
38244SOL    HW116565   6.688   3.193   3.300
38244SOL    HW216566   6.677   3.134   3.161
38245SOL     OW16567   4.945  13.327   8.539
38245SOL    HW116568   5.035  13.328   8.572
38245SOL    HW216569   4.933  13.237   8.509
38246SOL     OW16570   4.458   3.823   1.947
38246SOL    HW116571   4.457   3.809   1.852
38246SOL    HW216572   4.390   3.888   1.962
38247SOL     OW16573   9.075  12.973   5.327
38247SOL    HW116574   8.993  12.944   5.368
38247SOL    HW216575   9.129  12.893   5.322
38248SOL     OW16576   2.430   7.545   0.015
38248SOL    HW116577   2.386   7.630   0.008
38248SOL    HW216578   2.395   7.493  14.822
38249SOL     OW16579   6.294  14.535  11.977
38249SOL    HW116580   6.365  14.499  12.030
38249SOL    HW216581   6.222  14.473  11.986
38250SOL     OW16582  13.234  12.953   1.059
38250SOL    HW116583  13.164  12.947   1.125
38250SOL    HW216584  13.262  12.862   1.046
38251SOL     OW16585   0.104   5.918   2.805
38251SOL    HW116586   0.042   5.962   2.747
38251SOL    HW216587   0.134   5.987   2.864
38252SOL     OW16588  11.183   4.502  12.803
38252SOL    HW116589  11.234   4.582  12.819
38252SOL    HW216590  11.135   4.487  12.884
38253SOL     OW16591  11.451  13.040   0.533
38253SOL    HW116592  11.431  13.133   0.521
38253SOL    HW216593  11.494  13.014   0.451
38254SOL     OW16594  13.653  13.597  11.425
38254SOL    HW116595  13.593  13.560  11.490
38254SOL    HW216596  13.740  13.571  11.455
38255SOL     OW16597   8.405   9.287   8.191
38255SOL    HW116598   8.348   9.223   8.147
38255SOL    HW216599   8.480   9.295   8.132
38256SOL     OW16600  10.209   1.826   0.526
38256SOL    HW116601  10.168   1.771   0.460
38256SOL    HW216602  10.151   1.902   0.534
38257SOL     OW16603   9.741  10.010  12.355
38257SOL    HW116604   9.696  10.065  12.291
38257SOL    HW216605   9.715   9.920  12.333
38258SOL     OW16606  11.116   9.714   0.107
38258SOL    HW116607  11.049   9.654   0.076
38258SOL    HW216608  11.072   9.799   0.111
38259SOL     OW16609  10.458   9.359   4.041
38259SOL    HW116610  10.483   9.331   3.953
38259SOL    HW216611  10.368   9.329   4.051
38260SOL     OW16612   8.798   4.329  11.037
38260SOL    HW116613   8.838   4.317  10.951
38260SOL    HW216614   8.861   4.381  11.086
38261SOL     OW16615  14.441  10.756   3.902
38261SOL    HW116616  14.486  10.839   3.915
38261SOL    HW216617  14.503  10.690   3.934
38262SOL     OW16618   9.877   7.023   5.127
38262SOL    HW116619   9.831   6.960   5.072
38262SOL    HW216620   9.954   6.977   5.158
38263SOL     OW16621   1.228   3.922   2.670
38263SOL    HW116622   1.311   3.875   2.678
38263SOL    HW216623   1.185   3.910   2.755
38264SOL     OW16624   4.443   0.621   1.589
38264SOL    HW116625   4.372   0.584   1.641
38264SOL    HW216626   4.447   0.713   1.617
38265SOL     OW16627   1.155   9.622  14.398
38265SOL    HW116628   1.061   9.641  14.396
38265SOL    HW216629   1.195   9.695  14.352
38266SOL     OW16630   7.514   5.848   5.986
38266SOL    HW116631   7.560   5.905   5.924
38266SOL    HW216632   7.423   5.878   5.983
38267SOL     OW16633  10.704   7.313  11.549
38267SOL    HW116634  10.798   7.294  11.555
38267SOL    HW216635  10.698   7.381  11.482
38268SOL     OW16636  11.197   1.159  11.735
38268SOL    HW116637  11.134   1.158  11.806
38268SOL    HW216638  11.219   1.251  11.723
38269SOL     OW16639   7.587   7.321  12.342
38269SOL    HW116640   7.569   7.389  12.407
38269SOL    HW216641   7.576   7.239  12.390
38270SOL     OW16642  13.042   6.499  14.013
38270SOL    HW116643  13.053   6.424  14.071
38270SOL    HW216644  12.955   6.533  14.035
38271SOL     OW16645   6.829   2.012   2.627
38271SOL    HW116646   6.760   2.014   2.693
38271SOL    HW216647   6.851   1.920   2.618
38272SOL     OW16648   0.649   1.394   3.837
38272SOL    HW116649   0.722   1.387   3.775
38272SOL    HW216650   0.575   1.424   3.784
38273SOL     OW16651   1.208   9.635   2.348
38273SOL    HW116652   1.250   9.676   2.423
38273SOL    HW216653   1.280   9.589   2.303
38274SOL     OW16654   1.377  14.442   0.310
38274SOL    HW116655   1.391  14.396   0.392
38274SOL    HW216656   1.461  14.436   0.264
38275SOL     OW16657  12.174   0.983   3.245
38275SOL    HW116658  12.123   0.918   3.293
38275SOL    HW216659  12.190   1.053   3.309
38276SOL     OW16660   4.929   2.779   9.202
38276SOL    HW116661   4.994   2.832   9.247
38276SOL    HW216662   4.963   2.767   9.114
38277SOL     OW16663   0.568   1.757   9.535
38277SOL    HW116664   0.645   1.775   9.588
38277SOL    HW216665   0.503   1.822   9.563
38278SOL     OW16666   5.984   6.600   6.697
38278SOL    HW116667   5.898   6.559   6.701
38278SOL    HW216668   6.045   6.529   6.713
38279SOL     OW16669  14.618  13.339   0.719
38279SOL    HW116670  14.596  13.252   0.752
38279SOL    HW216671  14.710  13.334   0.695
38280SOL     OW16672   3.078   8.650   2.265
38280SOL    HW116673   3.080   8.741   2.295
38280SOL    HW216674   3.169   8.622   2.266
38281SOL     OW16675   5.748   2.484   1.793
38281SOL    HW116676   5.728   2.424   1.721
38281SOL    HW216677   5.715   2.569   1.762
38282SOL     OW16678   0.926  12.067  10.760
38282SOL    HW116679   0.899  11.982  10.726
38282SOL    HW216680   1.019  12.058  10.779
38283SOL     OW16681  13.427  14.755  13.657
38283SOL    HW116682  13.453  14.703  13.581
38283SOL    HW216683  13.351  14.708  13.692
38284SOL     OW16684   4.475  13.708   1.508
38284SOL    HW116685   4.467  13.765   1.585
38284SOL    HW216686   4.548  13.745   1.458
38285SOL     OW16687   6.892  13.455   6.998
38285SOL    HW116688   6.905  13.367   7.034
38285SOL    HW216689   6.799  13.473   7.012
38286SOL     OW16690   3.499   5.739   3.954
38286SOL    HW116691   3.485   5.721   4.047
38286SOL    HW216692   3.559   5.812   3.952
38287SOL     OW16693   6.352   6.401  12.133
38287SOL    HW116694   6.439   6.440  12.123
38287SOL    HW216695   6.340   6.350  12.052
38288SOL     OW16696   7.180  13.208  13.507
38288SOL    HW116697   7.105  13.209  13.447
38288SOL    HW216698   7.238  13.277  13.474
38289SOL     OW16699   5.787  10.450   9.079
38289SOL    HW116700   5.767  10.356   9.080
38289SOL    HW216701   5.866  10.457   9.024
38290SOL     OW16702   4.159  12.011  13.839
38290SOL    HW116703   4.249  11.987  13.862
38290SOL    HW216704   4.113  12.013  13.923
38291SOL     OW16705  13.041   5.011  10.095
38291SOL    HW116706  13.117   4.964  10.060
38291SOL    HW216707  13.013   5.068  10.023
38292SOL     OW16708  11.181  14.276   2.359
38292SOL    HW116709  11.114  14.212   2.385
38292SOL    HW216710  11.256  14.256   2.415
38293SOL     OW16711   5.024   9.030  14.052
38293SOL    HW116712   5.020   8.944  14.093
38293SOL    HW216713   4.973   9.021  13.972
38294SOL     OW16714   5.552   5.173  12.101
38294SOL    HW116715   5.640   5.204  12.080
38294SOL    HW216716   5.495   5.248  12.085
38295SOL     OW16717   7.862   9.686  13.287
38295SOL    HW116718   7.790   9.663  13.346
38295SOL    HW216719   7.914   9.750  13.337
38296SOL     OW16720   6.754   8.856  13.346
38296SOL    HW116721   6.693   8.828  13.278
38296SOL    HW216722   6.748   8.952  13.345
38297SOL     OW16723  12.165   1.487  10.583
38297SOL    HW116724  12.255   1.458  10.568
38297SOL    HW216725  12.174   1.567  10.636
38298SOL     OW16726  12.834   9.238   1.331
38298SOL    HW116727  12.802   9.263   1.417
38298SOL    HW216728  12.774   9.169   1.302
38299SOL     OW16729  12.159  14.708   8.225
38299SOL    HW116730  12.087  14.715   8.287
38299SOL    HW216731  12.176  14.798   8.197
38300SOL     OW16732   4.298  10.269  13.643
38300SOL    HW116733   4.306  10.330  13.716
38300SOL    HW216734   4.325  10.185  13.679
38301SOL     OW16735  13.112  14.579   2.891
38301SOL    HW116736  13.073  14.504   2.847
38301SOL    HW216737  13.045  14.648   2.884
38302SOL     OW16738   7.322   2.727  14.760
38302SOL    HW116739   7.263   2.705  14.687
38302SOL    HW216740   7.280   2.802  14.801
38303SOL     OW16741   9.996   1.772  12.273
38303SOL    HW116742  10.046   1.852  12.285
38303SOL    HW216743  10.020   1.741  12.186
38304SOL     OW16744   1.365  13.263   8.064
38304SOL    HW116745   1.376  13.279   8.158
38304SOL    HW216746   1.433  13.198   8.043
38305SOL     OW16747   3.107   9.797   3.913
38305SOL    HW116748   3.106   9.738   3.988
38305SOL    HW216749   3.035   9.858   3.928
38306SOL     OW16750  14.289   3.780  12.475
38306SOL    HW116751  14.321   3.690  12.467
38306SOL    HW216752  14.200   3.776  12.440
38307SOL     OW16753   4.977   9.189   1.413
38307SOL    HW116754   5.011   9.217   1.498
38307SOL    HW216755   4.977   9.268   1.359
38308SOL     OW16756   8.611  14.815   6.115
38308SOL    HW116757   8.592  14.744   6.176
38308SOL    HW216758   8.540  14.812   6.051
38309SOL     OW16759   9.548  13.271   5.149
38309SOL    HW116760   9.609  13.203   5.122
38309SOL    HW216761   9.476  13.224   5.191
38310SOL     OW16762  10.138   0.138   2.995
38310SOL    HW116763  10.054   0.160   2.955
38310SOL    HW216764  10.116   0.084   3.071
38311SOL     OW16765  11.017   9.935  12.408
38311SOL    HW116766  11.106   9.936  12.373
38311SOL    HW216767  11.025   9.896  12.495
38312SOL     OW16768   8.082   5.400  14.592
38312SOL    HW116769   8.177   5.410  14.598
38312SOL    HW216770   8.069   5.313  14.555
38313SOL     OW16771   6.097  11.217   2.082
38313SOL    HW116772   6.085  11.124   2.064
38313SOL    HW216773   6.188  11.224   2.111
38314SOL     OW16774   9.455   3.723   5.823
38314SOL    HW116775   9.405   3.763   5.893
38314SOL    HW216776   9.454   3.788   5.753
38315SOL     OW16777   2.248   8.046   3.719
38315SOL    HW116778   2.277   7.987   3.788
38315SOL    HW216779   2.156   8.065   3.740
38316SOL     OW16780  10.598   2.951   7.035
38316SOL    HW116781  10.565   2.861   7.039
38316SOL    HW216782  10.525   3.003   7.068
38317SOL     OW16783   8.180  12.769   8.121
38317SOL    HW116784   8.131  12.851   8.124
38317SOL    HW216785   8.225  12.764   8.206
38318SOL     OW16786   7.752   6.933   2.680
38318SOL    HW116787   7.733   7.008   2.738
38318SOL    HW216788   7.766   6.973   2.594
38319SOL     OW16789  13.184  14.093   1.252
38319SOL    HW116790  13.238  14.126   1.180
38319SOL    HW216791  13.236  14.023   1.291
38320SOL     OW16792   9.924  14.602   6.252
38320SOL    HW116793   9.862  14.531   6.269
38320SOL    HW216794   9.907  14.667   6.320
38321SOL     OW16795   3.388   8.863  10.201
38321SOL    HW116796   3.366   8.773  10.176
38321SOL    HW216797   3.383   8.862  10.297
38322SOL     OW16798  13.451   7.834   2.834
38322SOL    HW116799  13.445   7.871   2.922
38322SOL    HW216800  13.485   7.906   2.780
38323SOL     OW16801  14.048   2.257  12.818
38323SOL    HW116802  14.004   2.203  12.752
38323SOL    HW216803  14.007   2.232  12.901
38324SOL     OW16804   1.687   9.724   7.368
38324SOL    HW116805   1.662   9.640   7.407
38324SOL    HW216806   1.619   9.785   7.396
38325SOL     OW16807   3.925  13.760  10.373
38325SOL    HW116808   3.928  13.786  10.281
38325SOL    HW216809   4.015  13.741  10.396
38326SOL     OW16810   7.631  14.469  13.971
38326SOL    HW116811   7.595  14.549  13.931
38326SOL    HW216812   7.583  14.398  13.929
38327SOL     OW16813   5.898  10.716   4.754
38327SOL    HW116814   5.917  10.735   4.846
38327SOL    HW216815   5.971  10.754   4.705
38328SOL     OW16816  10.358  13.601  12.399
38328SOL    HW116817  10.384  13.644  12.318
38328SOL    HW216818  10.263  13.612  12.402
38329SOL     OW16819  13.178   0.552  12.665
38329SOL    HW116820  13.245   0.614  12.635
38329SOL    HW216821  13.144   0.592  12.745
38330SOL     OW16822   1.732  12.296   9.559
38330SOL    HW116823   1.646  12.268   9.592
38330SOL    HW216824   1.779  12.215   9.544
38331SOL     OW16825   5.524   6.239  10.479
38331SOL    HW116826   5.560   6.150  10.473
38331SOL    HW216827   5.489   6.245  10.568
38332SOL     OW16828  12.912  10.419  14.616
38332SOL    HW116829  12.920  10.510  14.645
38332SOL    HW216830  12.831  10.416  14.566
38333SOL     OW16831  10.485   8.187  10.186
38333SOL    HW116832  10.492   8.242  10.264
38333SOL    HW216833  10.551   8.119  10.198
38334SOL     OW16834   0.798   5.456   2.606
38334SOL    HW116835   0.864   5.391   2.632
38334SOL    HW216836   0.787   5.512   2.683
38335SOL     OW16837   1.865  13.011   3.429
38335SOL    HW116838   1.848  13.002   3.523
38335SOL    HW216839   1.793  12.965   3.387
38336SOL     OW16840   8.303   7.601  13.520
38336SOL    HW116841   8.238   7.661  13.485
38336SOL    HW216842   8.386   7.649  13.512
38337SOL     OW16843   7.036  13.845   5.686
38337SOL    HW116844   7.010  13.780   5.621
38337SOL    HW216845   7.035  13.928   5.638
38338SOL     OW16846   5.499   6.008   0.405
38338SOL    HW116847   5.467   6.085   0.358
38338SOL    HW216848   5.530   5.949   0.336
38339SOL     OW16849   8.778   2.428   0.965
38339SOL    HW116850   8.870   2.404   0.956
38339SOL    HW216851   8.737   2.396   0.885
38340SOL     OW16852   9.294   5.222  10.101
38340SOL    HW116853   9.226   5.284  10.075
38340SOL    HW216854   9.376   5.271  10.091
38341SOL     OW16855  10.470   3.545   5.776
38341SOL    HW116856  10.380   3.513   5.781
38341SOL    HW216857  10.524   3.466   5.776
38342SOL     OW16858   8.490  10.730   5.968
38342SOL    HW116859   8.554  10.659   5.961
38342SOL    HW216860   8.529  10.801   5.917
38343SOL     OW16861   3.983  12.080   3.349
38343SOL    HW116862   3.892  12.110   3.349
38343SOL    HW216863   3.981  11.995   3.306
38344SOL     OW16864   3.749  14.475   4.313
38344SOL    HW116865   3.734  14.473   4.218
38344SOL    HW216866   3.757  14.382   4.337
38345SOL     OW16867   7.637   5.861  10.625
38345SOL    HW116868   7.563   5.832  10.571
38345SOL    HW216869   7.695   5.905  10.563
38346SOL     OW16870  13.483   6.203   4.002
38346SOL    HW116871  13.497   6.193   4.096
38346SOL    HW216872  13.462   6.296   3.990
38347SOL     OW16873  10.574  10.446  13.502
38347SOL    HW116874  10.516  10.423  13.430
38347SOL    HW216875  10.628  10.517  13.468
38348SOL     OW16876   1.874   2.931   4.676
38348SOL    HW116877   1.970   2.938   4.672
38348SOL    HW216878   1.844   3.021   4.685
38349SOL     OW16879   4.036   4.884   4.843
38349SOL    HW116880   4.112   4.828   4.825
38349SOL    HW216881   4.071   4.956   4.895
38350SOL     OW16882  12.543   7.794   9.432
38350SOL    HW116883  12.585   7.737   9.497
38350SOL    HW216884  12.579   7.881   9.449
38351SOL     OW16885   9.977  10.434  13.005
38351SOL    HW116886  10.055  10.390  12.972
38351SOL    HW216887   9.938  10.373  13.067
38352SOL     OW16888  10.293  11.751   9.209
38352SOL    HW116889  10.228  11.799   9.157
38352SOL    HW216890  10.266  11.766   9.300
38353SOL     OW16891   7.520   4.970   6.795
38353SOL    HW116892   7.530   4.985   6.889
38353SOL    HW216893   7.444   5.023   6.770
38354SOL     OW16894  11.042   9.957   0.157
38354SOL    HW116895  11.077  10.037   0.117
38354SOL    HW216896  11.022   9.982   0.248
38355SOL     OW16897  10.544  11.019   4.912
38355SOL    HW116898  10.612  11.027   4.978
38355SOL    HW216899  10.514  10.928   4.919
38356SOL     OW16900   4.281   6.350  12.951
38356SOL    HW116901   4.283   6.335  13.045
38356SOL    HW216902   4.339   6.283  12.914
38357SOL     OW16903   9.951   8.358   9.094
38357SOL    HW116904   9.994   8.372   9.009
38357SOL    HW216905   9.976   8.269   9.119
38358SOL     OW16906   4.385  14.010   7.114
38358SOL    HW116907   4.372  14.035   7.205
38358SOL    HW216908   4.298  14.018   7.074
38359SOL     OW16909   7.447  10.842   1.181
38359SOL    HW116910   7.475  10.903   1.113
38359SOL    HW216911   7.499  10.763   1.166
38360SOL     OW16912   0.829   9.963   2.347
38360SOL    HW116913   0.860  10.027   2.282
38360SOL    HW216914   0.886   9.887   2.335
38361SOL     OW16915   7.914  10.286   7.274
38361SOL    HW116916   7.888  10.198   7.301
38361SOL    HW216917   7.904  10.286   7.179
38362SOL     OW16918  12.829  13.895  11.514
38362SOL    HW116919  12.838  13.859  11.426
38362SOL    HW216920  12.827  13.989  11.502
38363SOL     OW16921   9.287  12.752   4.943
38363SOL    HW116922   9.202  12.717   4.969
38363SOL    HW216923   9.268  12.838   4.907
38364SOL     OW16924   2.930  10.375  10.160
38364SOL    HW116925   2.977  10.441  10.108
38364SOL    HW216926   2.982  10.296  10.150
38365SOL     OW16927  12.379   1.958   5.168
38365SOL    HW116928  12.467   1.967   5.131
38365SOL    HW216929  12.348   2.048   5.178
38366SOL     OW16930   6.498   7.227  13.519
38366SOL    HW116931   6.519   7.290  13.588
38366SOL    HW216932   6.547   7.148  13.543
38367SOL     OW16933   6.744   0.366   5.994
38367SOL    HW116934   6.747   0.436   5.928
38367SOL    HW216935   6.804   0.299   5.960
38368SOL     OW16936   6.825   3.365   7.426
38368SOL    HW116937   6.733   3.388   7.434
38368SOL    HW216938   6.868   3.410   7.498
38369SOL     OW16939   7.144   8.353  10.048
38369SOL    HW116940   7.187   8.297   9.984
38369SOL    HW216941   7.174   8.441  10.028
38370SOL     OW16942  11.091   0.457  12.742
38370SOL    HW116943  11.152   0.529  12.756
38370SOL    HW216944  11.081   0.416  12.828
38371SOL     OW16945   5.798   1.784   8.365
38371SOL    HW116946   5.830   1.806   8.453
38371SOL    HW216947   5.818   1.862   8.313
38372SOL     OW16948   3.525  13.866   3.220
38372SOL    HW116949   3.534  13.947   3.272
38372SOL    HW216950   3.445  13.879   3.170
38373SOL     OW16951   4.419   8.470  10.763
38373SOL    HW116952   4.410   8.451  10.670
38373SOL    HW216953   4.414   8.565  10.768
38374SOL     OW16954   2.688  11.437  10.409
38374SOL    HW116955   2.604  11.443  10.454
38374SOL    HW216956   2.731  11.362  10.450
38375SOL     OW16957   5.386   3.213  12.446
38375SOL    HW116958   5.316   3.149  12.458
38375SOL    HW216959   5.385   3.233  12.352
38376SOL     OW16960  12.056   1.281   7.239
38376SOL    HW116961  11.997   1.277   7.314
38376SOL    HW216962  12.144   1.285   7.278
38377SOL     OW16963   6.431   7.474  14.111
38377SOL    HW116964   6.402   7.389  14.145
38377SOL    HW216965   6.519   7.456  14.076
38378SOL     OW16966   1.536   8.858  11.403
38378SOL    HW116967   1.533   8.841  11.308
38378SOL    HW216968   1.470   8.799  11.439
38379SOL     OW16969   1.774   8.214  13.681
38379SOL    HW116970   1.709   8.153  13.715
38379SOL    HW216971   1.855   8.163  13.679
38380SOL     OW16972  14.123   5.062   1.538
38380SOL    HW116973  14.104   4.989   1.597
38380SOL    HW216974  14.197   5.031   1.485
38381SOL     OW16975   6.302   6.726  12.826
38381SOL    HW116976   6.275   6.733  12.918
38381SOL    HW216977   6.256   6.798  12.782
38382SOL     OW16978   9.066   9.747  14.353
38382SOL    HW116979   9.006   9.821  14.364
38382SOL    HW216980   9.106   9.735  14.439
38383SOL     OW16981   5.801   5.169   7.512
38383SOL    HW116982   5.877   5.206   7.556
38383SOL    HW216983   5.832   5.147   7.424
38384SOL     OW16984  10.768   6.710   3.318
38384SOL    HW116985  10.731   6.798   3.326
38384SOL    HW216986  10.725   6.660   3.388
38385SOL     OW16987  11.823   9.741   2.456
38385SOL    HW116988  11.903   9.730   2.506
38385SOL    HW216989  11.758   9.688   2.502
38386SOL     OW16990  12.211  10.288   6.733
38386SOL    HW116991  12.187  10.380   6.745
38386SOL    HW216992  12.205  10.250   6.821
38387SOL     OW16993   8.165   3.054   8.823
38387SOL    HW116994   8.225   3.036   8.896
38387SOL    HW216995   8.131   2.968   8.798
38388SOL     OW16996  11.645  13.285   5.821
38388SOL    HW116997  11.566  13.315   5.866
38388SOL    HW216998  11.617  13.275   5.730
38389SOL     OW16999   9.892   9.941  11.611
38389SOL    HW117000   9.899   9.869  11.673
38389SOL    HW217001   9.851   9.902  11.533
38390SOL     OW17002   3.682  11.664  12.741
38390SOL    HW117003   3.645  11.578  12.722
38390SOL    HW217004   3.665  11.715  12.662
38391SOL     OW17005  11.440   5.526   5.961
38391SOL    HW117006  11.483   5.520   5.876
38391SOL    HW217007  11.350   5.550   5.941
38392SOL     OW17008   9.673  10.159  14.704
38392SOL    HW117009   9.732  10.095  14.664
38392SOL    HW217010   9.623  10.195  14.631
38393SOL     OW17011   4.242  11.832   7.782
38393SOL    HW117012   4.219  11.765   7.718
38393SOL    HW217013   4.213  11.797   7.866
38394SOL     OW17014   6.549  11.337   6.982
38394SOL    HW117015   6.634  11.380   6.984
38394SOL    HW217016   6.558  11.262   7.041
38395SOL     OW17017   3.123  11.619   8.161
38395SOL    HW117018   3.033  11.626   8.194
38395SOL    HW217019   3.177  11.647   8.234
38396SOL     OW17020  14.048   8.458  10.840
38396SOL    HW117021  13.960   8.457  10.878
38396SOL    HW217022  14.080   8.368  10.853
38397SOL     OW17023  13.580  12.995  10.910
38397SOL    HW117024  13.586  12.943  10.830
38397SOL    HW217025  13.633  12.948  10.973
38398SOL     OW17026   7.586  11.912   4.169
38398SOL    HW117027   7.676  11.937   4.148
38398SOL    HW217028   7.573  11.942   4.259
38399SOL     OW17029   3.254   6.822  10.078
38399SOL    HW117030   3.236   6.850   9.988
38399SOL    HW217031   3.210   6.737  10.086
38400SOL     OW17032   1.482   0.309  13.576
38400SOL    HW117033   1.548   0.352  13.523
38400SOL    HW217034   1.511   0.321  13.666
38401SOL     OW17035   6.132   0.705  11.986
38401SOL    HW117036   6.099   0.788  12.020
38401SOL    HW217037   6.087   0.695  11.902
38402SOL     OW17038  11.043  11.416  12.577
38402SOL    HW117039  10.991  11.366  12.641
38402SOL    HW217040  10.981  11.434  12.506
38403SOL     OW17041   4.230   8.085   1.047
38403SOL    HW117042   4.169   8.023   1.006
38403SOL    HW217043   4.308   8.081   0.993
38404SOL     OW17044   8.155   7.801   1.749
38404SOL    HW117045   8.115   7.768   1.830
38404SOL    HW217046   8.118   7.888   1.738
38405SOL     OW17047  12.165   2.804  11.473
38405SOL    HW117048  12.091   2.787  11.415
38405SOL    HW217049  12.236   2.752  11.437
38406SOL     OW17050   9.376   5.063   5.152
38406SOL    HW117051   9.322   4.984   5.162
38406SOL    HW217052   9.315   5.131   5.125
38407SOL     OW17053   0.034  11.881   5.778
38407SOL    HW117054  14.826  11.899   5.813
38407SOL    HW217055   0.019  11.818   5.707
38408SOL     OW17056  11.287  13.998   7.824
38408SOL    HW117057  11.319  14.087   7.808
38408SOL    HW217058  11.366  13.949   7.846
38409SOL     OW17059   4.010  13.398   8.792
38409SOL    HW117060   4.057  13.334   8.846
38409SOL    HW217061   4.059  13.479   8.802
38410SOL     OW17062   5.070   6.254   0.122
38410SOL    HW117063   5.042   6.191   0.188
38410SOL    HW217064   5.062   6.207   0.039
38411SOL     OW17065   6.474   8.791   9.761
38411SOL    HW117066   6.483   8.792   9.666
38411SOL    HW217067   6.383   8.764   9.776
38412SOL     OW17068  13.003   3.195  12.975
38412SOL    HW117069  12.988   3.173  12.883
38412SOL    HW217070  12.994   3.111  13.022
38413SOL     OW17071   2.235  14.167  14.349
38413SOL    HW117072   2.221  14.261  14.359
38413SOL    HW217073   2.163  14.127  14.396
38414SOL     OW17074  14.303   8.341  10.146
38414SOL    HW117075  14.247   8.399  10.198
38414SOL    HW217076  14.265   8.254  10.156
38415SOL     OW17077   2.188   9.895   2.823
38415SOL    HW117078   2.103   9.933   2.801
38415SOL    HW217079   2.180   9.803   2.798
38416SOL     OW17080   8.755   2.490  12.193
38416SOL    HW117081   8.712   2.498  12.108
38416SOL    HW217082   8.714   2.559  12.247
38417SOL     OW17083   1.278   5.373  10.205
38417SOL    HW117084   1.190   5.382  10.168
38417SOL    HW217085   1.277   5.289  10.250
38418SOL     OW17086  14.063   8.359  14.838
38418SOL    HW117087  13.998   8.290  14.830
38418SOL    HW217088  14.015   8.435  14.871
38419SOL     OW17089   0.566   3.714   1.474
38419SOL    HW117090   0.522   3.634   1.502
38419SOL    HW217091   0.658   3.689   1.467
38420SOL     OW17092   2.013   7.450   9.292
38420SOL    HW117093   2.058   7.528   9.326
38420SOL    HW217094   1.935   7.443   9.346
38421SOL     OW17095  12.824   2.068   2.220
38421SOL    HW117096  12.828   2.046   2.127
38421SOL    HW217097  12.851   2.160   2.224
38422SOL     OW17098   1.479   3.393   7.522
38422SOL    HW117099   1.442   3.435   7.600
38422SOL    HW217100   1.556   3.447   7.500
38423SOL     OW17101   3.683   8.195   1.112
38423SOL    HW117102   3.592   8.207   1.085
38423SOL    HW217103   3.724   8.279   1.094
38424SOL     OW17104   3.602   4.798  13.342
38424SOL    HW117105   3.620   4.725  13.283
38424SOL    HW217106   3.584   4.757  13.427
38425SOL     OW17107   5.432  11.811   9.076
38425SOL    HW117108   5.346  11.830   9.039
38425SOL    HW217109   5.492  11.820   9.002
38426SOL     OW17110  12.370   7.986   6.032
38426SOL    HW117111  12.295   8.018   5.982
38426SOL    HW217112  12.443   7.988   5.970
38427SOL     OW17113   9.982   3.554   1.279
38427SOL    HW117114  10.033   3.626   1.242
38427SOL    HW217115   9.950   3.506   1.203
38428SOL     OW17116   6.326   3.269  13.172
38428SOL    HW117117   6.241   3.230  13.191
38428SOL    HW217118   6.340   3.332  13.241
38429SOL     OW17119   5.901   6.603   1.542
38429SOL    HW117120   5.926   6.683   1.589
38429SOL    HW217121   5.872   6.634   1.456
38430SOL     OW17122  14.082   5.088  11.920
38430SOL    HW117123  14.002   5.040  11.941
38430SOL    HW217124  14.054   5.158  11.861
38431SOL     OW17125  11.562  10.053  10.692
38431SOL    HW117126  11.510   9.973  10.683
38431SOL    HW217127  11.600  10.067  10.606
38432SOL     OW17128   9.490   3.187  10.707
38432SOL    HW117129   9.491   3.100  10.747
38432SOL    HW217130   9.452   3.244  10.774
38433SOL     OW17131   2.019   7.730   1.918
38433SOL    HW117132   2.006   7.674   1.995
38433SOL    HW217133   2.051   7.671   1.851
38434SOL     OW17134  13.898   4.672   8.700
38434SOL    HW117135  13.971   4.717   8.656
38434SOL    HW217136  13.840   4.743   8.727
38435SOL     OW17137  12.238   4.388  11.141
38435SOL    HW117138  12.190   4.452  11.088
38435SOL    HW217139  12.181   4.373  11.217
38436SOL     OW17140  14.813   8.706   3.837
38436SOL    HW117141  14.780   8.683   3.750
38436SOL    HW217142  14.744   8.677   3.897
38437SOL     OW17143  11.543   4.297   4.943
38437SOL    HW117144  11.524   4.278   5.035
38437SOL    HW217145  11.635   4.324   4.943
38438SOL     OW17146   7.410  12.838   3.413
38438SOL    HW117147   7.340  12.778   3.388
38438SOL    HW217148   7.473  12.783   3.461
38439SOL     OW17149   9.428   7.212   5.083
38439SOL    HW117150   9.364   7.237   5.016
38439SOL    HW217151   9.375   7.188   5.159
38440SOL     OW17152  13.057   2.560   6.271
38440SOL    HW117153  12.997   2.492   6.239
38440SOL    HW217154  13.004   2.612   6.332
38441SOL     OW17155   1.473  12.385   2.912
38441SOL    HW117156   1.382  12.415   2.904
38441SOL    HW217157   1.525  12.455   2.872
38442SOL     OW17158  14.269   9.037  10.903
38442SOL    HW117159  14.363   9.054  10.899
38442SOL    HW217160  14.256   8.990  10.985
38443SOL     OW17161  12.433   3.372   0.967
38443SOL    HW117162  12.496   3.443   0.956
38443SOL    HW217163  12.359   3.397   0.911
38444SOL     OW17164  12.781   1.770   5.833
38444SOL    HW117165  12.777   1.751   5.927
38444SOL    HW217166  12.828   1.695   5.796
38445SOL     OW17167  13.422   4.261   2.741
38445SOL    HW117168  13.508   4.219   2.730
38445SOL    HW217169  13.417   4.283   2.834
38446SOL     OW17170   2.271  11.263  12.355
38446SOL    HW117171   2.283  11.248  12.449
38446SOL    HW217172   2.275  11.175  12.316
38447SOL     OW17173   7.871   0.637   7.454
38447SOL    HW117174   7.817   0.710   7.484
38447SOL    HW217175   7.834   0.560   7.497
38448SOL     OW17176   5.896   2.694   0.515
38448SOL    HW117177   5.887   2.668   0.606
38448SOL    HW217178   5.979   2.741   0.512
38449SOL     OW17179   8.292   6.008  14.159
38449SOL    HW117180   8.295   5.913  14.172
38449SOL    HW217181   8.327   6.044  14.241
38450SOL     OW17182  14.744  11.241  11.190
38450SOL    HW117183  14.664  11.257  11.140
38450SOL    HW217184  14.777  11.328  11.212
38451SOL     OW17185   4.579  11.230   7.354
38451SOL    HW117186   4.497  11.207   7.311
38451SOL    HW217187   4.608  11.309   7.309
38452SOL     OW17188  10.118  10.877  14.179
38452SOL    HW117189  10.078  10.790  14.191
38452SOL    HW217190  10.103  10.922  14.262
38453SOL     OW17191   4.351   3.092   2.129
38453SOL    HW117192   4.400   3.126   2.054
38453SOL    HW217193   4.385   3.004   2.143
38454SOL     OW17194   9.996   2.702  10.690
38454SOL    HW117195  10.056   2.756  10.742
38454SOL    HW217196   9.987   2.621  10.741
38455SOL     OW17197   9.812   0.142  11.163
38455SOL    HW117198   9.785   0.050  11.160
38455SOL    HW217199   9.753   0.186  11.101
38456SOL     OW17200   7.386   9.770  10.315
38456SOL    HW117201   7.387   9.686  10.270
38456SOL    HW217202   7.448   9.824  10.266
38457SOL     OW17203   6.568   7.229   0.592
38457SOL    HW117204   6.522   7.229   0.676
38457SOL    HW217205   6.645   7.283   0.607
38458SOL     OW17206  12.234   0.296   5.896
38458SOL    HW117207  12.291   0.272   5.823
38458SOL    HW217208  12.274   0.374   5.934
38459SOL     OW17209   3.620   4.456   7.248
38459SOL    HW117210   3.631   4.361   7.253
38459SOL    HW217211   3.537   4.469   7.202
38460SOL     OW17212   3.587   7.446   5.643
38460SOL    HW117213   3.553   7.404   5.564
38460SOL    HW217214   3.654   7.506   5.611
38461SOL     OW17215   7.030  12.569   6.791
38461SOL    HW117216   7.000  12.541   6.877
38461SOL    HW217217   6.958  12.620   6.755
38462SOL     OW17218   5.703  13.756   4.122
38462SOL    HW117219   5.763  13.717   4.186
38462SOL    HW217220   5.636  13.799   4.175
38463SOL     OW17221   4.537  12.819   4.951
38463SOL    HW117222   4.571  12.894   5.000
38463SOL    HW217223   4.566  12.743   5.001
38464SOL     OW17224  13.605   6.178  11.012
38464SOL    HW117225  13.640   6.253  10.964
38464SOL    HW217226  13.524   6.155  10.966
38465SOL     OW17227  12.560  13.905   9.241
38465SOL    HW117228  12.552  13.895   9.146
38465SOL    HW217229  12.500  13.841   9.278
38466SOL     OW17230  10.623   2.042   7.862
38466SOL    HW117231  10.577   2.015   7.942
38466SOL    HW217232  10.647   1.961   7.819
38467SOL     OW17233   8.937   5.470   8.029
38467SOL    HW117234   8.988   5.551   8.022
38467SOL    HW217235   8.994   5.410   8.078
38468SOL     OW17236  10.545  10.805  12.762
38468SOL    HW117237  10.471  10.842  12.810
38468SOL    HW217238  10.527  10.824  12.670
38469SOL     OW17239   3.391   7.729  12.256
38469SOL    HW117240   3.465   7.777  12.219
38469SOL    HW217241   3.425   7.641  12.273
38470SOL     OW17242   9.837   9.341   3.750
38470SOL    HW117243   9.916   9.288   3.760
38470SOL    HW217244   9.817   9.339   3.657
38471SOL     OW17245   3.473   0.909   5.831
38471SOL    HW117246   3.379   0.895   5.816
38471SOL    HW217247   3.495   0.844   5.898
38472SOL     OW17248   5.779  10.228   3.286
38472SOL    HW117249   5.692  10.261   3.264
38472SOL    HW217250   5.770  10.192   3.374
38473SOL     OW17251  11.425   2.309  13.893
38473SOL    HW117252  11.443   2.280  13.804
38473SOL    HW217253  11.481   2.255  13.948
38474SOL     OW17254  11.497  14.759  11.221
38474SOL    HW117255  11.475  14.843  11.179
38474SOL    HW217256  11.527  14.783  11.308
38475SOL     OW17257  14.581   7.921   8.489
38475SOL    HW117258  14.628   8.004   8.479
38475SOL    HW217259  14.490   7.942   8.467
38476SOL     OW17260   2.298   9.415  14.235
38476SOL    HW117261   2.388   9.386  14.221
38476SOL    HW217262   2.279   9.391  14.326
38477SOL     OW17263  11.967   0.699  10.918
38477SOL    HW117264  11.941   0.724  10.830
38477SOL    HW217265  12.054   0.736  10.929
38478SOL     OW17266  10.018   4.894   3.649
38478SOL    HW117267  10.079   4.826   3.622
38478SOL    HW217268   9.981   4.862   3.731
38479SOL     OW17269   6.374   8.163   7.510
38479SOL    HW117270   6.355   8.128   7.597
38479SOL    HW217271   6.301   8.223   7.492
38480SOL     OW17272   4.850   5.815   1.303
38480SOL    HW117273   4.771   5.803   1.357
38480SOL    HW217274   4.907   5.742   1.329
38481SOL     OW17275  11.603  12.131   7.609
38481SOL    HW117276  11.695  12.155   7.605
38481SOL    HW217277  11.556  12.213   7.595
38482SOL     OW17278   3.976   9.388   3.825
38482SOL    HW117279   3.917   9.314   3.811
38482SOL    HW217280   3.950   9.424   3.910
38483SOL     OW17281   4.363   1.836   1.043
38483SOL    HW117282   4.282   1.787   1.028
38483SOL    HW217283   4.399   1.799   1.123
38484SOL     OW17284   3.199   2.777   6.685
38484SOL    HW117285   3.108   2.808   6.683
38484SOL    HW217286   3.222   2.764   6.593
38485SOL     OW17287   3.408  11.409   1.519
38485SOL    HW117288   3.425  11.330   1.468
38485SOL    HW217289   3.453  11.394   1.603
38486SOL     OW17290   7.911   8.436   1.111
38486SOL    HW117291   7.979   8.377   1.143
38486SOL    HW217292   7.955   8.521   1.103
38487SOL     OW17293   8.402   8.685   7.596
38487SOL    HW117294   8.339   8.750   7.564
38487SOL    HW217295   8.373   8.602   7.557
38488SOL     OW17296   1.893   1.792   9.673
38488SOL    HW117297   1.804   1.822   9.653
38488SOL    HW217298   1.880   1.711   9.723
38489SOL     OW17299   4.503  14.383   3.811
38489SOL    HW117300   4.436  14.433   3.764
38489SOL    HW217301   4.457  14.345   3.886
38490SOL     OW17302   3.018  11.915   3.545
38490SOL    HW117303   3.022  11.890   3.637
38490SOL    HW217304   3.083  11.984   3.535
38491SOL     OW17305   4.598   6.675   6.363
38491SOL    HW117306   4.638   6.593   6.336
38491SOL    HW217307   4.576   6.719   6.281
38492SOL     OW17308   5.611   3.692   9.076
38492SOL    HW117309   5.597   3.660   9.165
38492SOL    HW217310   5.601   3.787   9.082
38493SOL     OW17311   4.081  12.336   2.298
38493SOL    HW117312   4.013  12.337   2.231
38493SOL    HW217313   4.057  12.262   2.355
38494SOL     OW17314   4.033  10.252   1.205
38494SOL    HW117315   4.021  10.279   1.296
38494SOL    HW217316   4.099  10.312   1.170
38495SOL     OW17317  14.256   0.120  11.563
38495SOL    HW117318  14.316   0.133  11.489
38495SOL    HW217319  14.252   0.205  11.606
38496SOL     OW17320   5.334   3.779  12.699
38496SOL    HW117321   5.377   3.723  12.764
38496SOL    HW217322   5.360   3.742  12.615
38497SOL     OW17323   9.096   4.118   8.523
38497SOL    HW117324   9.148   4.120   8.442
38497SOL    HW217325   9.045   4.038   8.516
38498SOL     OW17326   7.157  11.599   5.392
38498SOL    HW117327   7.074  11.553   5.381
38498SOL    HW217328   7.204  11.584   5.310
38499SOL     OW17329  12.766   6.500   0.846
38499SOL    HW117330  12.696   6.506   0.781
38499SOL    HW217331  12.764   6.409   0.875
38500SOL     OW17332   6.736  11.237   8.343
38500SOL    HW117333   6.671  11.248   8.273
38500SOL    HW217334   6.752  11.326   8.375
38501SOL     OW17335  10.773  14.119  12.238
38501SOL    HW117336  10.751  14.193  12.295
38501SOL    HW217337  10.777  14.044  12.298
38502SOL     OW17338   7.446   0.924  14.766
38502SOL    HW117339   7.383   0.952  14.699
38502SOL    HW217340   7.521   0.982  14.754
38503SOL     OW17341   7.300   5.732  11.642
38503SOL    HW117342   7.257   5.687  11.715
38503SOL    HW217343   7.325   5.662  11.582
38504SOL     OW17344  11.921  11.292   8.621
38504SOL    HW117345  11.960  11.341   8.693
38504SOL    HW217346  11.995  11.259   8.570
38505SOL     OW17347   1.587   2.891  12.316
38505SOL    HW117348   1.678   2.891  12.284
38505SOL    HW217349   1.534   2.901  12.237
38506SOL     OW17350  11.564   7.141  11.114
38506SOL    HW117351  11.648   7.152  11.158
38506SOL    HW217352  11.584   7.159  11.022
38507SOL     OW17353   7.859   6.503   1.755
38507SOL    HW117354   7.777   6.549   1.774
38507SOL    HW217355   7.872   6.445   1.829
38508SOL     OW17356   7.285   2.150   7.401
38508SOL    HW117357   7.294   2.232   7.449
38508SOL    HW217358   7.332   2.086   7.455
38509SOL     OW17359   0.115   2.239  12.251
38509SOL    HW117360   0.042   2.259  12.192
38509SOL    HW217361   0.193   2.266  12.202
38510SOL     OW17362  13.595   3.809  13.268
38510SOL    HW117363  13.527   3.851  13.321
38510SOL    HW217364  13.547   3.759  13.202
38511SOL     OW17365  13.298   9.154   8.682
38511SOL    HW117366  13.293   9.225   8.746
38511SOL    HW217367  13.262   9.192   8.602
38512SOL     OW17368   0.129   6.311   6.894
38512SOL    HW117369   0.174   6.232   6.924
38512SOL    HW217370   0.071   6.335   6.966
38513SOL     OW17371   9.738  12.862   0.178
38513SOL    HW117372   9.710  12.885   0.267
38513SOL    HW217373   9.809  12.799   0.191
38514SOL     OW17374   1.598  10.622   7.394
38514SOL    HW117375   1.551  10.548   7.356
38514SOL    HW217376   1.560  10.632   7.481
38515SOL     OW17377  10.196   8.352   0.802
38515SOL    HW117378  10.189   8.314   0.890
38515SOL    HW217379  10.126   8.417   0.798
38516SOL     OW17380  12.163   2.243   2.453
38516SOL    HW117381  12.238   2.195   2.419
38516SOL    HW217382  12.191   2.272   2.540
38517SOL     OW17383   3.637   7.079  12.390
38517SOL    HW117384   3.561   7.077  12.448
38517SOL    HW217385   3.701   7.021  12.432
38518SOL     OW17386   8.051  13.278   6.176
38518SOL    HW117387   8.023  13.305   6.264
38518SOL    HW217388   8.139  13.242   6.188
38519SOL     OW17389   1.303  10.669  13.313
38519SOL    HW117390   1.306  10.663  13.217
38519SOL    HW217391   1.257  10.752  13.330
38520SOL     OW17392   4.842  12.263   9.230
38520SOL    HW117393   4.915  12.325   9.231
38520SOL    HW217394   4.878  12.183   9.269
38521SOL     OW17395   2.640   5.512   1.884
38521SOL    HW117396   2.680   5.599   1.886
38521SOL    HW217397   2.550   5.526   1.914
38522SOL     OW17398  12.862  10.469   2.423
38522SOL    HW117399  12.820  10.388   2.395
38522SOL    HW217400  12.926  10.488   2.354
38523SOL     OW17401   5.624  11.117  14.674
38523SOL    HW117402   5.704  11.157  14.706
38523SOL    HW217403   5.563  11.190  14.662
38524SOL     OW17404   2.244   8.199  13.361
38524SOL    HW117405   2.308   8.160  13.302
38524SOL    HW217406   2.192   8.125  13.393
38525SOL     OW17407   5.454   3.705   8.828
38525SOL    HW117408   5.480   3.734   8.916
38525SOL    HW217409   5.536   3.705   8.778
38526SOL     OW17410   8.457  11.466   3.942
38526SOL    HW117411   8.419  11.466   4.030
38526SOL    HW217412   8.390  11.507   3.887
38527SOL     OW17413   9.219   6.961   5.671
38527SOL    HW117414   9.253   6.932   5.756
38527SOL    HW217415   9.291   7.009   5.631
38528SOL     OW17416  13.771   5.832   4.175
38528SOL    HW117417  13.741   5.780   4.250
38528SOL    HW217418  13.697   5.832   4.115
38529SOL     OW17419  10.075   7.496  11.913
38529SOL    HW117420  10.142   7.516  11.978
38529SOL    HW217421  10.124   7.473  11.835
38530SOL     OW17422   0.022   7.163   9.760
38530SOL    HW117423  14.842   7.106   9.712
38530SOL    HW217424   0.032   7.240   9.704
38531SOL     OW17425   4.144  10.277   9.012
38531SOL    HW117426   4.099  10.192   9.008
38531SOL    HW217427   4.236  10.257   8.996
38532SOL     OW17428   3.353  11.612   2.249
38532SOL    HW117429   3.301  11.681   2.207
38532SOL    HW217430   3.364  11.643   2.339
38533SOL     OW17431   7.746   5.995   4.146
38533SOL    HW117432   7.763   5.955   4.061
38533SOL    HW217433   7.766   5.926   4.209
38534SOL     OW17434  12.854  10.401   1.412
38534SOL    HW117435  12.791  10.369   1.348
38534SOL    HW217436  12.873  10.325   1.467
38535SOL     OW17437   3.287   7.184   9.919
38535SOL    HW117438   3.255   7.229   9.841
38535SOL    HW217439   3.238   7.102   9.923
38536SOL     OW17440   5.947   8.521   3.326
38536SOL    HW117441   5.990   8.495   3.408
38536SOL    HW217442   6.008   8.583   3.286
38537SOL     OW17443   0.046   1.611   8.957
38537SOL    HW117444   0.120   1.603   9.017
38537SOL    HW217445   0.043   1.705   8.936
38538SOL     OW17446   5.384  10.638   4.238
38538SOL    HW117447   5.461  10.671   4.191
38538SOL    HW217448   5.418  10.569   4.295
38539SOL     OW17449   7.956  10.857  13.367
38539SOL    HW117450   8.014  10.808  13.308
38539SOL    HW217451   7.916  10.924  13.312
38540SOL     OW17452   3.725   4.748   4.082
38540SOL    HW117453   3.755   4.833   4.114
38540SOL    HW217454   3.636   4.763   4.052
38541SOL     OW17455   4.232   5.438   4.202
38541SOL    HW117456   4.189   5.419   4.119
38541SOL    HW217457   4.297   5.368   4.212
38542SOL     OW17458  11.817   3.736   8.525
38542SOL    HW117459  11.903   3.708   8.554
38542SOL    HW217460  11.833   3.791   8.448
38543SOL     OW17461   9.906   0.355   4.778
38543SOL    HW117462   9.893   0.443   4.813
38543SOL    HW217463   9.910   0.299   4.856
38544SOL     OW17464   5.294   9.255   2.728
38544SOL    HW117465   5.354   9.316   2.685
38544SOL    HW217466   5.319   9.260   2.821
38545SOL     OW17467   8.360   1.974  11.752
38545SOL    HW117468   8.320   1.886  11.753
38545SOL    HW217469   8.288   2.033  11.773
38546SOL     OW17470   8.911   6.956  11.352
38546SOL    HW117471   8.877   7.011  11.281
38546SOL    HW217472   8.946   6.878  11.309
38547SOL     OW17473   0.419   2.591  11.330
38547SOL    HW117474   0.353   2.615  11.395
38547SOL    HW217475   0.501   2.588  11.379
38548SOL     OW17476   7.515   1.959  13.841
38548SOL    HW117477   7.555   1.956  13.753
38548SOL    HW217478   7.426   1.991  13.825
38549SOL     OW17479   3.312   9.187  13.951
38549SOL    HW117480   3.349   9.162  13.867
38549SOL    HW217481   3.307   9.105  14.001
38550SOL     OW17482   8.785   9.058   2.224
38550SOL    HW117483   8.750   9.070   2.312
38550SOL    HW217484   8.773   9.143   2.182
38551SOL     OW17485   1.093  14.308   7.686
38551SOL    HW117486   1.057  14.363   7.756
38551SOL    HW217487   1.018  14.287   7.631
38552SOL     OW17488   7.630   6.253   6.604
38552SOL    HW117489   7.666   6.183   6.550
38552SOL    HW217490   7.703   6.278   6.662
38553SOL     OW17491   5.801   0.943  12.279
38553SOL    HW117492   5.860   0.991  12.336
38553SOL    HW217493   5.836   0.854  12.277
38554SOL     OW17494   7.227  11.433   6.994
38554SOL    HW117495   7.196  11.466   6.910
38554SOL    HW217496   7.321  11.452   6.995
38555SOL     OW17497   5.493   4.601   1.696
38555SOL    HW117498   5.565   4.579   1.637
38555SOL    HW217499   5.536   4.629   1.777
38556SOL     OW17500  10.706   1.449   6.414
38556SOL    HW117501  10.639   1.446   6.482
38556SOL    HW217502  10.659   1.469   6.334
38557SOL     OW17503   9.319  12.508   5.911
38557SOL    HW117504   9.344  12.453   5.986
38557SOL    HW217505   9.236  12.471   5.880
38558SOL     OW17506   8.497   6.898   0.366
38558SOL    HW117507   8.539   6.901   0.452
38558SOL    HW217508   8.570   6.899   0.304
38559SOL     OW17509   2.906   4.899   2.070
38559SOL    HW117510   2.914   4.820   2.124
38559SOL    HW217511   2.995   4.921   2.045
38560SOL     OW17512   6.940   2.716   4.403
38560SOL    HW117513   6.993   2.733   4.481
38560SOL    HW217514   6.997   2.666   4.345
38561SOL     OW17515   5.150   6.637  14.519
38561SOL    HW117516   5.159   6.722  14.475
38561SOL    HW217517   5.233   6.624  14.564
38562SOL     OW17518   6.311   3.108  10.099
38562SOL    HW117519   6.368   3.097  10.175
38562SOL    HW217520   6.310   3.022  10.057
38563SOL     OW17521  10.056   5.076   0.017
38563SOL    HW117522  10.027   5.167   0.021
38563SOL    HW217523  10.017   5.042  14.815
38564SOL     OW17524   0.487   2.997   8.116
38564SOL    HW117525   0.492   2.903   8.100
38564SOL    HW217526   0.438   3.005   8.198
38565SOL     OW17527  12.109   6.202   2.445
38565SOL    HW117528  12.020   6.205   2.411
38565SOL    HW217529  12.113   6.122   2.497
38566SOL     OW17530  13.967  10.037   4.041
38566SOL    HW117531  14.056  10.055   4.073
38566SOL    HW217532  13.932  10.123   4.019
38567SOL     OW17533   0.456   4.379   4.536
38567SOL    HW117534   0.550   4.391   4.552
38567SOL    HW217535   0.427   4.322   4.608
38568SOL     OW17536  13.529   9.457   0.943
38568SOL    HW117537  13.571   9.427   0.862
38568SOL    HW217538  13.586   9.526   0.976
38569SOL     OW17539   4.953   8.007   5.298
38569SOL    HW117540   5.034   8.047   5.267
38569SOL    HW217541   4.933   8.053   5.379
38570SOL     OW17542  13.747  10.358   4.439
38570SOL    HW117543  13.785  10.398   4.361
38570SOL    HW217544  13.677  10.302   4.406
38571SOL     OW17545   7.111   3.060   1.682
38571SOL    HW117546   7.061   3.114   1.621
38571SOL    HW217547   7.046   3.021   1.740
38572SOL     OW17548  13.242  14.148   6.914
38572SOL    HW117549  13.233  14.116   6.824
38572SOL    HW217550  13.312  14.213   6.910
38573SOL     OW17551   1.712   8.923   9.660
38573SOL    HW117552   1.647   8.925   9.730
38573SOL    HW217553   1.778   8.861   9.691
38574SOL     OW17554   1.224  12.330   3.947
38574SOL    HW117555   1.186  12.341   3.859
38574SOL    HW217556   1.313  12.298   3.931
38575SOL     OW17557  12.320   8.936  14.301
38575SOL    HW117558  12.363   9.016  14.271
38575SOL    HW217559  12.312   8.946  14.396
38576SOL     OW17560   4.518   4.491   3.996
38576SOL    HW117561   4.554   4.445   3.920
38576SOL    HW217562   4.446   4.435   4.026
38577SOL     OW17563   5.696  11.601   5.330
38577SOL    HW117564   5.677  11.694   5.315
38577SOL    HW217565   5.680  11.559   5.245
38578SOL     OW17566   4.425   5.611   4.586
38578SOL    HW117567   4.365   5.544   4.622
38578SOL    HW217568   4.472   5.566   4.517
38579SOL     OW17569   0.926   3.617   9.832
38579SOL    HW117570   0.992   3.629   9.901
38579SOL    HW217571   0.872   3.696   9.837
38580SOL     OW17572   5.918   2.320  10.699
38580SOL    HW117573   5.992   2.285  10.749
38580SOL    HW217574   5.855   2.349  10.765
38581SOL     OW17575   3.058   0.172   0.738
38581SOL    HW117576   3.102   0.129   0.812
38581SOL    HW217577   3.130   0.196   0.679
38582SOL     OW17578   2.984  13.611  13.010
38582SOL    HW117579   3.054  13.559  13.050
38582SOL    HW217580   2.998  13.700  13.042
38583SOL     OW17581  12.553   9.019   5.772
38583SOL    HW117582  12.518   9.072   5.700
38583SOL    HW217583  12.592   8.943   5.730
38584SOL     OW17584   1.823   9.901  12.662
38584SOL    HW117585   1.765   9.923  12.735
38584SOL    HW217586   1.911   9.901  12.701
38585SOL     OW17587   1.201   5.043   5.471
38585SOL    HW117588   1.180   5.079   5.385
38585SOL    HW217589   1.231   4.954   5.453
38586SOL     OW17590   8.266   9.922   5.888
38586SOL    HW117591   8.344   9.867   5.898
38586SOL    HW217592   8.197   9.861   5.863
38587SOL     OW17593  10.594  13.891   1.633
38587SOL    HW117594  10.557  13.936   1.708
38587SOL    HW217595  10.687  13.882   1.654
38588SOL     OW17596   1.006   7.407   0.476
38588SOL    HW117597   1.089   7.395   0.523
38588SOL    HW217598   1.031   7.453   0.396
38589SOL     OW17599   8.243  12.332   5.179
38589SOL    HW117600   8.282  12.262   5.127
38589SOL    HW217601   8.275  12.317   5.268
38590SOL     OW17602   6.026  14.476   0.344
38590SOL    HW117603   5.932  14.464   0.359
38590SOL    HW217604   6.037  14.460   0.250
38591SOL     OW17605   1.824   0.278   7.808
38591SOL    HW117606   1.801   0.214   7.740
38591SOL    HW217607   1.823   0.228   7.889
38592SOL     OW17608   4.994   8.269  11.195
38592SOL    HW117609   4.918   8.244  11.144
38592SOL    HW217610   5.037   8.337  11.142
38593SOL     OW17611   0.193   9.918   6.201
38593SOL    HW117612   0.158   9.897   6.287
38593SOL    HW217613   0.284   9.889   6.205
38594SOL     OW17614  12.642   3.018   3.967
38594SOL    HW117615  12.666   2.974   4.048
38594SOL    HW217616  12.595   3.097   3.994
38595SOL     OW17617   5.771   1.743   1.110
38595SOL    HW117618   5.683   1.779   1.120
38595SOL    HW217619   5.795   1.765   1.020
38596SOL     OW17620  11.113   9.440   0.460
38596SOL    HW117621  11.206   9.421   0.447
38596SOL    HW217622  11.077   9.358   0.493
38597SOL     OW17623  14.849   4.778   6.351
38597SOL    HW117624   0.019   4.760   6.431
38597SOL    HW217625  14.758   4.756   6.372
38598SOL     OW17626   6.506   0.008  10.504
38598SOL    HW117627   6.549   0.016  10.418
38598SOL    HW217628   6.415  14.868  10.483
38599SOL     OW17629   0.568   6.188   7.810
38599SOL    HW117630   0.483   6.232   7.818
38599SOL    HW217631   0.598   6.211   7.722
38600SOL     OW17632   7.423   5.164   9.753
38600SOL    HW117633   7.420   5.205   9.667
38600SOL    HW217634   7.350   5.204   9.801
38601SOL     OW17635   9.555   6.027  11.806
38601SOL    HW117636   9.552   6.107  11.753
38601SOL    HW217637   9.635   6.037  11.859
38602SOL     OW17638   7.081   7.109   9.102
38602SOL    HW117639   6.992   7.090   9.071
38602SOL    HW217640   7.071   7.186   9.157
38603SOL     OW17641   0.381   5.284   2.502
38603SOL    HW117642   0.472   5.253   2.510
38603SOL    HW217643   0.347   5.282   2.592
38604SOL     OW17644   0.664   9.589   9.759
38604SOL    HW117645   0.597   9.633   9.812
38604SOL    HW217646   0.735   9.652   9.752
38605SOL     OW17647  10.377   2.601  11.265
38605SOL    HW117648  10.333   2.567  11.342
38605SOL    HW217649  10.470   2.603  11.289
38606SOL     OW17650   8.994  13.414   9.640
38606SOL    HW117651   9.031  13.348   9.699
38606SOL    HW217652   9.064  13.479   9.631
38607SOL     OW17653   3.015  11.321   9.463
38607SOL    HW117654   3.073  11.394   9.441
38607SOL    HW217655   3.056  11.245   9.421
38608SOL     OW17656   4.064   1.942   4.980
38608SOL    HW117657   4.156   1.968   4.989
38608SOL    HW217658   4.056   1.912   4.890
38609SOL     OW17659   9.664   1.311   5.319
38609SOL    HW117660   9.756   1.332   5.305
38609SOL    HW217661   9.660   1.215   5.318
38610SOL     OW17662   1.594   8.961   1.126
38610SOL    HW117663   1.655   9.032   1.104
38610SOL    HW217664   1.615   8.891   1.064
38611SOL     OW17665  14.369  11.860   1.046
38611SOL    HW117666  14.455  11.822   1.063
38611SOL    HW217667  14.361  11.932   1.108
38612SOL     OW17668   1.214  14.834  11.533
38612SOL    HW117669   1.154  14.778  11.583
38612SOL    HW217670   1.255  14.774  11.470
38613SOL     OW17671   2.479  12.846   0.382
38613SOL    HW117672   2.495  12.755   0.358
38613SOL    HW217673   2.388  12.862   0.357
38614SOL     OW17674   5.446   9.482  10.461
38614SOL    HW117675   5.360   9.508  10.493
38614SOL    HW217676   5.429   9.448  10.373
38615SOL     OW17677   5.473   7.089   8.916
38615SOL    HW117678   5.517   7.174   8.910
38615SOL    HW217679   5.418   7.096   8.993
38616SOL     OW17680   4.137   2.325  14.078
38616SOL    HW117681   4.182   2.285  14.004
38616SOL    HW217682   4.141   2.419  14.059
38617SOL     OW17683   1.059   7.152   9.166
38617SOL    HW117684   1.061   7.240   9.128
38617SOL    HW217685   1.122   7.102   9.113
38618SOL     OW17686  11.074   3.777  13.602
38618SOL    HW117687  11.158   3.732  13.603
38618SOL    HW217688  11.094   3.866  13.572
38619SOL     OW17689  13.238   2.122   3.826
38619SOL    HW117690  13.187   2.149   3.749
38619SOL    HW217691  13.250   2.202   3.876
38620SOL     OW17692   7.163   2.579   1.609
38620SOL    HW117693   7.191   2.633   1.682
38620SOL    HW217694   7.155   2.491   1.645
38621SOL     OW17695   8.971   9.457   4.091
38621SOL    HW117696   8.958   9.502   4.175
38621SOL    HW217697   8.939   9.368   4.106
38622SOL     OW17698  10.017  11.790  14.030
38622SOL    HW117699  10.071  11.767  14.106
38622SOL    HW217700  10.030  11.717  13.969
38623SOL     OW17701  10.175  10.749  14.611
38623SOL    HW117702  10.115  10.699  14.555
38623SOL    HW217703  10.212  10.683  14.669
38624SOL     OW17704   1.618   0.855  10.350
38624SOL    HW117705   1.629   0.949  10.339
38624SOL    HW217706   1.523   0.843  10.358
38625SOL     OW17707   0.998  10.981   9.213
38625SOL    HW117708   0.976  10.892   9.238
38625SOL    HW217709   0.914  11.025   9.201
38626SOL     OW17710   2.989   8.800  11.830
38626SOL    HW117711   3.023   8.874  11.881
38626SOL    HW217712   3.050   8.791  11.757
38627SOL     OW17713  10.169   2.322   3.793
38627SOL    HW117714  10.218   2.244   3.769
38627SOL    HW217715  10.131   2.302   3.879
38628SOL     OW17716   8.618  10.062   7.970
38628SOL    HW117717   8.612  10.088   8.062
38628SOL    HW217718   8.656  10.138   7.926
38629SOL     OW17719   5.597  13.862  14.869
38629SOL    HW117720   5.684  13.893   0.015
38629SOL    HW217721   5.541  13.889   0.063
38630SOL     OW17722   2.482   7.339  13.938
38630SOL    HW117723   2.402   7.296  13.909
38630SOL    HW217724   2.453   7.420  13.979
38631SOL     OW17725  11.610   5.868  10.553
38631SOL    HW117726  11.673   5.824  10.496
38631SOL    HW217727  11.524   5.835  10.525
38632SOL     OW17728  10.788  10.453   8.881
38632SOL    HW117729  10.749  10.540   8.886
38632SOL    HW217730  10.796  10.426   8.973
38633SOL     OW17731  10.393   3.851  11.062
38633SOL    HW117732  10.459   3.791  11.026
38633SOL    HW217733  10.330   3.795  11.106
38634SOL     OW17734   0.864   9.638   3.928
38634SOL    HW117735   0.891   9.677   3.845
38634SOL    HW217736   0.832   9.551   3.905
38635SOL     OW17737   2.641  13.258  12.200
38635SOL    HW117738   2.679  13.228  12.117
38635SOL    HW217739   2.582  13.187  12.226
38636SOL     OW17740   5.963  11.166   0.683
38636SOL    HW117741   6.047  11.172   0.729
38636SOL    HW217742   5.899  11.155   0.753
38637SOL     OW17743  13.207  13.611   5.479
38637SOL    HW117744  13.149  13.546   5.441
38637SOL    HW217745  13.172  13.625   5.568
38638SOL     OW17746   2.192  11.410   7.467
38638SOL    HW117747   2.151  11.495   7.480
38638SOL    HW217748   2.119  11.349   7.455
38639SOL     OW17749  14.080  10.918  13.319
38639SOL    HW117750  13.996  10.910  13.273
38639SOL    HW217751  14.084  11.009  13.347
38640SOL     OW17752   8.956   2.076   7.079
38640SOL    HW117753   8.942   1.988   7.115
38640SOL    HW217754   9.037   2.068   7.029
38641SOL     OW17755   1.389   7.824   3.917
38641SOL    HW117756   1.369   7.913   3.890
38641SOL    HW217757   1.457   7.833   3.983
38642SOL     OW17758  13.233   8.153   1.205
38642SOL    HW117759  13.220   8.239   1.165
38642SOL    HW217760  13.313   8.119   1.166
38643SOL     OW17761   6.384   1.236   3.215
38643SOL    HW117762   6.404   1.241   3.122
38643SOL    HW217763   6.467   1.257   3.258
38644SOL     OW17764   5.958  13.756   5.766
38644SOL    HW117765   5.909  13.835   5.789
38644SOL    HW217766   5.926  13.689   5.827
38645SOL     OW17767   3.308   8.637   5.148
38645SOL    HW117768   3.224   8.660   5.188
38645SOL    HW217769   3.370   8.639   5.221
38646SOL     OW17770   0.137   1.940  14.454
38646SOL    HW117771   0.197   1.962  14.383
38646SOL    HW217772   0.059   1.907  14.410
38647SOL     OW17773   6.400   9.349   8.445
38647SOL    HW117774   6.380   9.325   8.354
38647SOL    HW217775   6.434   9.269   8.484
38648SOL     OW17776   5.129   7.022  14.462
38648SOL    HW117777   5.127   7.073  14.381
38648SOL    HW217778   5.203   7.057  14.511
38649SOL     OW17779  12.471   7.340  14.183
38649SOL    HW117780  12.557   7.380  14.167
38649SOL    HW217781  12.419   7.410  14.224
38650SOL     OW17782  10.469   0.781   1.450
38650SOL    HW117783  10.499   0.744   1.533
38650SOL    HW217784  10.549   0.799   1.401
38651SOL     OW17785   7.089   7.650   9.381
38651SOL    HW117786   7.000   7.619   9.398
38651SOL    HW217787   7.127   7.662   9.468
38652SOL     OW17788  10.458   8.896  11.296
38652SOL    HW117789  10.541   8.856  11.270
38652SOL    HW217790  10.413   8.915  11.213
38653SOL     OW17791  10.573  14.715   1.394
38653SOL    HW117792  10.543  14.624   1.389
38653SOL    HW217793  10.579  14.733   1.488
38654SOL     OW17794   1.207   8.932   6.905
38654SOL    HW117795   1.278   8.867   6.902
38654SOL    HW217796   1.182   8.936   6.997
38655SOL     OW17797   1.084   2.217   1.196
38655SOL    HW117798   0.990   2.226   1.210
38655SOL    HW217799   1.094   2.131   1.156
38656SOL     OW17800  12.067   5.443   1.971
38656SOL    HW117801  12.146   5.389   1.972
38656SOL    HW217802  12.081   5.506   1.900
38657SOL     OW17803  11.469   6.230   3.620
38657SOL    HW117804  11.492   6.223   3.712
38657SOL    HW217805  11.384   6.275   3.620
38658SOL     OW17806   7.591   3.941   9.712
38658SOL    HW117807   7.514   3.983   9.673
38658SOL    HW217808   7.658   3.947   9.644
38659SOL     OW17809  10.784  10.973   1.054
38659SOL    HW117810  10.728  11.011   0.987
38659SOL    HW217811  10.724  10.924   1.111
38660SOL     OW17812  12.449   7.576   8.270
38660SOL    HW117813  12.500   7.584   8.190
38660SOL    HW217814  12.500   7.515   8.324
38661SOL     OW17815   9.641   6.423   1.327
38661SOL    HW117816   9.728   6.398   1.359
38661SOL    HW217817   9.658   6.476   1.249
38662SOL     OW17818  10.990  14.166   4.104
38662SOL    HW117819  11.023  14.080   4.130
38662SOL    HW217820  10.925  14.189   4.170
38663SOL     OW17821   7.360   1.332  12.961
38663SOL    HW117822   7.289   1.273  12.986
38663SOL    HW217823   7.359   1.332  12.865
38664SOL     OW17824  13.555   9.105   2.870
38664SOL    HW117825  13.493   9.096   2.798
38664SOL    HW217826  13.554   9.198   2.892
38665SOL     OW17827  11.219  11.545  13.945
38665SOL    HW117828  11.203  11.578  13.856
38665SOL    HW217829  11.249  11.455  13.932
38666SOL     OW17830  12.463  13.929   1.616
38666SOL    HW117831  12.392  13.885   1.569
38666SOL    HW217832  12.448  14.022   1.600
38667SOL     OW17833   3.681   5.536   4.192
38667SOL    HW117834   3.643   5.617   4.227
38667SOL    HW217835   3.609   5.473   4.191
38668SOL     OW17836   3.518   0.744  10.991
38668SOL    HW117837   3.526   0.839  11.002
38668SOL    HW217838   3.445   0.733  10.930
38669SOL     OW17839  14.577  11.762  10.175
38669SOL    HW117840  14.563  11.718  10.092
38669SOL    HW217841  14.546  11.700  10.241
38670SOL     OW17842  11.102   3.343  13.157
38670SOL    HW117843  11.158   3.283  13.206
38670SOL    HW217844  11.137   3.430  13.175
38671SOL     OW17845  10.555  11.379   6.827
38671SOL    HW117846  10.605  11.303   6.854
38671SOL    HW217847  10.619  11.450   6.822
38672SOL     OW17848  11.222  10.306   3.690
38672SOL    HW117849  11.265  10.383   3.728
38672SOL    HW217850  11.230  10.318   3.596
38673SOL     OW17851   1.175   3.667   1.074
38673SOL    HW117852   1.125   3.618   1.139
38673SOL    HW217853   1.137   3.640   0.990
38674SOL     OW17854   0.264   7.079   2.529
38674SOL    HW117855   0.312   7.068   2.612
38674SOL    HW217856   0.280   6.998   2.481
38675SOL     OW17857   4.098   1.627   7.769
38675SOL    HW117858   4.072   1.550   7.718
38675SOL    HW217859   4.077   1.605   7.859
38676SOL     OW17860   1.063  12.190  13.938
38676SOL    HW117861   1.138  12.199  13.996
38676SOL    HW217862   1.065  12.098  13.910
38677SOL     OW17863   3.400   8.251   5.275
38677SOL    HW117864   3.449   8.306   5.337
38677SOL    HW217865   3.325   8.218   5.326
38678SOL     OW17866   3.480   9.003   3.037
38678SOL    HW117867   3.470   8.993   3.131
38678SOL    HW217868   3.424   8.934   3.000
38679SOL     OW17869   5.312  11.142   7.930
38679SOL    HW117870   5.335  11.064   7.980
38679SOL    HW217871   5.274  11.202   7.994
38680SOL     OW17872   6.035   5.802  13.317
38680SOL    HW117873   5.996   5.792  13.404
38680SOL    HW217874   6.117   5.753  13.322
38681SOL     OW17875   4.464   8.731  13.219
38681SOL    HW117876   4.512   8.761  13.142
38681SOL    HW217877   4.436   8.642  13.197
38682SOL     OW17878   5.319  11.561   0.420
38682SOL    HW117879   5.250  11.497   0.402
38682SOL    HW217880   5.388  11.510   0.463
38683SOL     OW17881   9.770   6.768   0.376
38683SOL    HW117882   9.789   6.755   0.469
38683SOL    HW217883   9.675   6.759   0.369
38684SOL     OW17884  12.324   3.100   0.259
38684SOL    HW117885  12.243   3.061   0.224
38684SOL    HW217886  12.295   3.152   0.333
38685SOL     OW17887   1.482   8.578   5.905
38685SOL    HW117888   1.569   8.544   5.883
38685SOL    HW217889   1.469   8.553   5.997
38686SOL     OW17890   0.688   2.225   7.032
38686SOL    HW117891   0.593   2.231   7.024
38686SOL    HW217892   0.716   2.313   7.058
38687SOL     OW17893  10.521  12.089   3.692
38687SOL    HW117894  10.524  11.994   3.683
38687SOL    HW217895  10.576  12.107   3.768
38688SOL     OW17896  11.343  11.867   1.734
38688SOL    HW117897  11.428  11.889   1.697
38688SOL    HW217898  11.293  11.948   1.729
38689SOL     OW17899   9.107   0.156   1.040
38689SOL    HW117900   9.121   0.102   0.963
38689SOL    HW217901   9.055   0.101   1.098
38690SOL     OW17902   8.216  10.701   3.245
38690SOL    HW117903   8.137  10.662   3.282
38690SOL    HW217904   8.191  10.730   3.157
38691SOL     OW17905  10.178   5.394   0.135
38691SOL    HW117906  10.089   5.369   0.109
38691SOL    HW217907  10.182   5.375   0.229
38692SOL     OW17908   4.338   6.360   8.857
38692SOL    HW117909   4.424   6.344   8.896
38692SOL    HW217910   4.338   6.454   8.837
38693SOL     OW17911   2.778  12.195  11.799
38693SOL    HW117912   2.721  12.122  11.822
38693SOL    HW217913   2.754  12.265  11.860
38694SOL     OW17914   8.263  14.432   2.435
38694SOL    HW117915   8.186  14.443   2.380
38694SOL    HW217916   8.295  14.344   2.415
38695SOL     OW17917  11.419   8.523   6.717
38695SOL    HW117918  11.419   8.437   6.759
38695SOL    HW217919  11.428   8.503   6.623
38696SOL     OW17920  11.985   8.963   4.750
38696SOL    HW117921  11.965   8.938   4.840
38696SOL    HW217922  12.065   8.914   4.729
38697SOL     OW17923  10.791   6.700   4.442
38697SOL    HW117924  10.787   6.607   4.466
38697SOL    HW217925  10.875   6.730   4.477
38698SOL     OW17926   9.363  13.261   0.940
38698SOL    HW117927   9.424  13.294   0.874
38698SOL    HW217928   9.277  13.269   0.900
38699SOL     OW17929  12.245   3.437   4.659
38699SOL    HW117930  12.254   3.359   4.714
38699SOL    HW217931  12.264   3.407   4.570
38700SOL     OW17932  14.434   8.347   6.934
38700SOL    HW117933  14.476   8.276   6.886
38700SOL    HW217934  14.426   8.418   6.870
38701SOL     OW17935  12.898  12.999   4.511
38701SOL    HW117936  12.874  12.910   4.486
38701SOL    HW217937  12.910  12.995   4.606
38702SOL     OW17938   8.007   7.181  12.772
38702SOL    HW117939   7.933   7.218  12.724
38702SOL    HW217940   8.073   7.163  12.704
38703SOL     OW17941   9.877  10.170  13.346
38703SOL    HW117942   9.954  10.123  13.377
38703SOL    HW217943   9.863  10.138  13.257
38704SOL     OW17944   0.985   3.611  13.501
38704SOL    HW117945   0.988   3.668  13.424
38704SOL    HW217946   1.057   3.642  13.556
38705SOL     OW17947   7.917   5.747  14.852
38705SOL    HW117948   7.946   5.704  14.772
38705SOL    HW217949   7.881   5.677   0.027
38706SOL     OW17950   2.755   4.707   1.560
38706SOL    HW117951   2.736   4.679   1.649
38706SOL    HW217952   2.670   4.735   1.525
38707SOL     OW17953   4.160   2.057   2.636
38707SOL    HW117954   4.183   2.148   2.653
38707SOL    HW217955   4.064   2.055   2.641
38708SOL     OW17956  11.441  12.718  14.037
38708SOL    HW117957  11.426  12.669  14.118
38708SOL    HW217958  11.491  12.795  14.066
38709SOL     OW17959   0.502   8.341  13.341
38709SOL    HW117960   0.470   8.431  13.346
38709SOL    HW217961   0.577   8.339  13.401
38710SOL     OW17962   1.208   3.208   3.555
38710SOL    HW117963   1.211   3.247   3.643
38710SOL    HW217964   1.121   3.168   3.549
38711SOL     OW17965   5.139   4.071  12.176
38711SOL    HW117966   5.107   4.043  12.262
38711SOL    HW217967   5.215   4.126  12.195
38712SOL     OW17968   3.987  13.630   0.330
38712SOL    HW117969   4.076  13.666   0.329
38712SOL    HW217970   3.974  13.600   0.420
38713SOL     OW17971  12.672   4.669   2.467
38713SOL    HW117972  12.614   4.736   2.431
38713SOL    HW217973  12.671   4.599   2.401
38714SOL     OW17974   5.912  12.411   1.858
38714SOL    HW117975   5.979  12.358   1.901
38714SOL    HW217976   5.947  12.427   1.770
38715SOL     OW17977   3.147  12.259  11.241
38715SOL    HW117978   3.078  12.320  11.268
38715SOL    HW217979   3.163  12.205  11.318
38716SOL     OW17980   1.839   8.326   8.727
38716SOL    HW117981   1.860   8.267   8.654
38716SOL    HW217982   1.821   8.267   8.801
38717SOL     OW17983   2.904   0.932   1.855
38717SOL    HW117984   2.927   0.967   1.769
38717SOL    HW217985   2.969   0.864   1.871
38718SOL     OW17986   3.395  14.201  13.886
38718SOL    HW117987   3.444  14.282  13.871
38718SOL    HW217988   3.462  14.132  13.889
38719SOL     OW17989   2.504   3.784   5.271
38719SOL    HW117990   2.577   3.768   5.212
38719SOL    HW217991   2.459   3.700   5.276
38720SOL     OW17992   2.520   1.111   5.906
38720SOL    HW117993   2.499   1.203   5.893
38720SOL    HW217994   2.603   1.099   5.859
38721SOL     OW17995  14.847   0.725   7.774
38721SOL    HW117996  14.849   0.793   7.841
38721SOL    HW217997   0.013   0.650   7.814
38722SOL     OW17998   4.838   7.079   8.432
38722SOL    HW117999   4.849   7.023   8.509
38722SOL    HW218000   4.921   7.127   8.425
38723SOL     OW18001   6.233   5.145   3.515
38723SOL    HW118002   6.145   5.184   3.520
38723SOL    HW218003   6.290   5.210   3.556
38724SOL     OW18004  13.489  10.930   4.460
38724SOL    HW118005  13.439  10.889   4.530
38724SOL    HW218006  13.455  11.019   4.455
38725SOL     OW18007   9.859   0.002   8.626
38725SOL    HW118008   9.889   0.072   8.684
38725SOL    HW218009   9.915   0.010   8.549
38726SOL     OW18010   7.993   8.166   3.075
38726SOL    HW118011   8.054   8.212   3.017
38726SOL    HW218012   7.957   8.096   3.021
38727SOL     OW18013   1.751   7.210   0.884
38727SOL    HW118014   1.762   7.146   0.815
38727SOL    HW218015   1.675   7.180   0.933
38728SOL     OW18016   0.375   3.964  12.885
38728SOL    HW118017   0.356   3.870  12.880
38728SOL    HW218018   0.320   4.003  12.817
38729SOL     OW18019  11.955   1.904   8.247
38729SOL    HW118020  11.948   1.838   8.178
38729SOL    HW218021  11.927   1.985   8.205
38730SOL     OW18022  11.001  14.850  11.851
38730SOL    HW118023  10.934  14.867  11.785
38730SOL    HW218024  11.010  14.755  11.852
38731SOL     OW18025   8.529   8.964  11.876
38731SOL    HW118026   8.510   8.983  11.968
38731SOL    HW218027   8.598   9.027  11.853
38732SOL     OW18028   4.263   9.144   2.265
38732SOL    HW118029   4.252   9.202   2.340
38732SOL    HW218030   4.260   9.056   2.303
38733SOL     OW18031   9.460   3.218   5.091
38733SOL    HW118032   9.379   3.212   5.142
38733SOL    HW218033   9.530   3.214   5.157
38734SOL     OW18034   7.508  10.490   8.531
38734SOL    HW118035   7.575  10.423   8.515
38734SOL    HW218036   7.425  10.447   8.512
38735SOL     OW18037   7.821  14.025   1.825
38735SOL    HW118038   7.786  13.947   1.782
38735SOL    HW218039   7.823  14.002   1.918
38736SOL     OW18040   4.044   6.738   0.758
38736SOL    HW118041   4.104   6.799   0.714
38736SOL    HW218042   4.013   6.786   0.834
38737SOL     OW18043  10.046   6.445   7.126
38737SOL    HW118044   9.981   6.451   7.196
38737SOL    HW218045  10.019   6.369   7.075
38738SOL     OW18046  11.318   2.656  12.095
38738SOL    HW118047  11.282   2.569  12.113
38738SOL    HW218048  11.242   2.713  12.088
38739SOL     OW18049   6.822  10.569   9.030
38739SOL    HW118050   6.781  10.496   8.985
38739SOL    HW218051   6.780  10.647   8.992
38740SOL     OW18052   0.477   7.744   2.896
38740SOL    HW118053   0.421   7.707   2.964
38740SOL    HW218054   0.509   7.668   2.848
38741SOL     OW18055  10.493   8.043  13.690
38741SOL    HW118056  10.575   8.092  13.682
38741SOL    HW218057  10.440   8.074  13.616
38742SOL     OW18058   0.429   5.542  13.636
38742SOL    HW118059   0.429   5.525  13.542
38742SOL    HW218060   0.519   5.566  13.657
38743SOL     OW18061   0.043   2.523  13.368
38743SOL    HW118062   0.091   2.565  13.440
38743SOL    HW218063  14.878   2.595  13.324
38744SOL     OW18064   4.529  13.739  13.635
38744SOL    HW118065   4.549  13.734  13.541
38744SOL    HW218066   4.601  13.691  13.677
38745SOL     OW18067  12.501  12.174   8.831
38745SOL    HW118068  12.571  12.149   8.891
38745SOL    HW218069  12.511  12.269   8.821
38746SOL     OW18070   0.190  13.286   6.171
38746SOL    HW118071   0.189  13.307   6.264
38746SOL    HW218072   0.278  13.251   6.155
38747SOL     OW18073   1.153   1.375   4.608
38747SOL    HW118074   1.157   1.352   4.700
38747SOL    HW218075   1.240   1.410   4.587
38748SOL     OW18076  12.523  10.169  11.305
38748SOL    HW118077  12.612  10.140  11.326
38748SOL    HW218078  12.520  10.169  11.210
38749SOL     OW18079   5.379   5.230   1.389
38749SOL    HW118080   5.419   5.316   1.402
38749SOL    HW218081   5.381   5.217   1.294
38750SOL     OW18082  14.289  10.882   9.605
38750SOL    HW118083  14.309  10.945   9.674
38750SOL    HW218084  14.201  10.852   9.625
38751SOL     OW18085  14.093  13.464   9.505
38751SOL    HW118086  14.004  13.429   9.511
38751SOL    HW218087  14.150  13.388   9.520
38752SOL     OW18088   1.057   3.221   7.735
38752SOL    HW118089   1.124   3.218   7.667
38752SOL    HW218090   1.084   3.294   7.791
38753SOL     OW18091   9.770  11.708   0.124
38753SOL    HW118092   9.762  11.682   0.032
38753SOL    HW218093   9.790  11.627   0.170
38754SOL     OW18094  12.412   6.487   4.442
38754SOL    HW118095  12.390   6.446   4.359
38754SOL    HW218096  12.494   6.446   4.468
38755SOL     OW18097   1.285   7.922  11.196
38755SOL    HW118098   1.267   7.914  11.289
38755SOL    HW218099   1.378   7.944  11.191
38756SOL     OW18100  14.405   3.162  10.427
38756SOL    HW118101  14.498   3.137  10.429
38756SOL    HW218102  14.386   3.192  10.516
38757SOL     OW18103  10.332  11.232  11.856
38757SOL    HW118104  10.330  11.266  11.767
38757SOL    HW218105  10.411  11.178  11.861
38758SOL     OW18106   3.045   3.629   8.661
38758SOL    HW118107   3.047   3.682   8.741
38758SOL    HW218108   3.063   3.540   8.690
38759SOL     OW18109   9.571   0.182   6.915
38759SOL    HW118110   9.535   0.104   6.873
38759SOL    HW218111   9.495   0.239   6.928
38760SOL     OW18112  10.750  11.031   5.813
38760SOL    HW118113  10.724  11.117   5.780
38760SOL    HW218114  10.825  11.050   5.870
38761SOL     OW18115   4.700   9.874   6.638
38761SOL    HW118116   4.773   9.936   6.636
38761SOL    HW218117   4.655   9.886   6.554
38762SOL     OW18118  12.840   4.558   6.095
38762SOL    HW118119  12.749   4.561   6.126
38762SOL    HW218120  12.859   4.648   6.068
38763SOL     OW18121  10.561  14.765   8.752
38763SOL    HW118122  10.538  14.681   8.791
38763SOL    HW218123  10.510  14.829   8.800
38764SOL     OW18124   2.780   5.201   3.073
38764SOL    HW118125   2.847   5.222   3.137
38764SOL    HW218126   2.807   5.247   2.993
38765SOL     OW18127  10.182   9.935   3.161
38765SOL    HW118128  10.160  10.005   3.223
38765SOL    HW218129  10.231   9.872   3.212
38766SOL     OW18130  11.073   1.352   1.017
38766SOL    HW118131  11.093   1.405   0.940
38766SOL    HW218132  11.002   1.399   1.061
38767SOL     OW18133   9.447   6.911  11.710
38767SOL    HW118134   9.490   6.967  11.775
38767SOL    HW218135   9.361   6.891  11.748
38768SOL     OW18136   7.438   3.434   2.365
38768SOL    HW118137   7.455   3.519   2.405
38768SOL    HW218138   7.466   3.443   2.274
38769SOL     OW18139   7.654   6.741   4.528
38769SOL    HW118140   7.695   6.740   4.441
38769SOL    HW218141   7.660   6.832   4.556
38770SOL     OW18142  10.868   1.231   5.430
38770SOL    HW118143  10.775   1.213   5.445
38770SOL    HW218144  10.912   1.187   5.502
38771SOL     OW18145   4.780   3.881   8.738
38771SOL    HW118146   4.853   3.824   8.717
38771SOL    HW218147   4.711   3.822   8.769
38772SOL     OW18148   1.317   3.572   8.962
38772SOL    HW118149   1.318   3.577   8.866
38772SOL    HW218150   1.339   3.481   8.982
38773SOL     OW18151  12.619   4.022   8.056
38773SOL    HW118152  12.546   4.002   7.998
38773SOL    HW218153  12.619   3.952   8.120
38774SOL     OW18154  14.464  10.298   5.958
38774SOL    HW118155  14.387  10.353   5.949
38774SOL    HW218156  14.520  10.344   6.021
38775SOL     OW18157  10.153   7.098   0.020
38775SOL    HW118158  10.076   7.122  14.848
38775SOL    HW218159  10.119   7.041   0.089
38776SOL     OW18160   6.834  14.614  10.857
38776SOL    HW118161   6.744  14.607  10.825
38776SOL    HW218162   6.853  14.708  10.856
38777SOL     OW18163   5.488  13.791   5.008
38777SOL    HW118164   5.466  13.716   5.063
38777SOL    HW218165   5.412  13.802   4.951
38778SOL     OW18166   4.429  12.079   7.631
38778SOL    HW118167   4.443  12.134   7.708
38778SOL    HW218168   4.475  11.997   7.652
38779SOL     OW18169   7.943   3.145  14.192
38779SOL    HW118170   8.038   3.152  14.194
38779SOL    HW218171   7.912   3.236  14.193
38780SOL     OW18172  10.766   5.858  11.190
38780SOL    HW118173  10.676   5.827  11.187
38780SOL    HW218174  10.761   5.952  11.174
38781SOL     OW18175  10.925   5.524   2.754
38781SOL    HW118176  11.005   5.493   2.796
38781SOL    HW218177  10.887   5.447   2.713
38782SOL     OW18178  11.762   0.040   8.130
38782SOL    HW118179  11.852   0.066   8.109
38782SOL    HW218180  11.715   0.122   8.142
38783SOL     OW18181   9.304   1.730  13.421
38783SOL    HW118182   9.250   1.808  13.437
38783SOL    HW218183   9.263   1.662  13.475
38784SOL     OW18184  11.461   0.511   8.725
38784SOL    HW118185  11.422   0.504   8.637
38784SOL    HW218186  11.461   0.422   8.759
38785SOL     OW18187   4.726   1.229   0.861
38785SOL    HW118188   4.794   1.170   0.895
38785SOL    HW218189   4.690   1.271   0.940
38786SOL     OW18190   5.554   6.606   1.474
38786SOL    HW118191   5.601   6.674   1.522
38786SOL    HW218192   5.604   6.526   1.490
38787SOL     OW18193   9.421  10.117   5.822
38787SOL    HW118194   9.391  10.026   5.822
38787SOL    HW218195   9.515  10.111   5.803
38788SOL     OW18196   3.942  12.616  13.531
38788SOL    HW118197   3.928  12.605  13.437
38788SOL    HW218198   3.893  12.694  13.554
38789SOL     OW18199   5.838  13.351  13.838
38789SOL    HW118200   5.758  13.321  13.795
38789SOL    HW218201   5.861  13.432  13.793
38790SOL     OW18202   1.703   5.049   2.373
38790SOL    HW118203   1.662   5.133   2.350
38790SOL    HW218204   1.680   5.037   2.466
38791SOL     OW18205   3.833   4.965   5.487
38791SOL    HW118206   3.823   5.036   5.551
38791SOL    HW218207   3.849   5.010   5.404
38792SOL     OW18208   4.051   6.789   0.124
38792SOL    HW118209   3.957   6.804   0.115
38792SOL    HW218210   4.065   6.701   0.090
38793SOL     OW18211  12.664   5.054   2.649
38793SOL    HW118212  12.605   5.001   2.703
38793SOL    HW218213  12.717   4.990   2.601
38794SOL     OW18214   9.510   4.172   7.508
38794SOL    HW118215   9.457   4.251   7.516
38794SOL    HW218216   9.555   4.165   7.592
38795SOL     OW18217   4.950  10.427   7.294
38795SOL    HW118218   4.937  10.369   7.369
38795SOL    HW218219   5.033  10.400   7.256
38796SOL     OW18220   2.748  14.636   2.240
38796SOL    HW118221   2.680  14.574   2.212
38796SOL    HW218222   2.731  14.649   2.333
38797SOL     OW18223   5.512   8.329  12.724
38797SOL    HW118224   5.425   8.353  12.758
38797SOL    HW218225   5.502   8.334  12.629
38798SOL     OW18226  14.790  12.528  14.227
38798SOL    HW118227  14.797  12.445  14.181
38798SOL    HW218228  14.874  12.571  14.211
38799SOL     OW18229   6.640   0.789  11.462
38799SOL    HW118230   6.616   0.728  11.531
38799SOL    HW218231   6.734   0.804  11.474
38800SOL     OW18232  13.033   8.857  14.128
38800SOL    HW118233  13.106   8.905  14.166
38800SOL    HW218234  13.074   8.784  14.081
38801SOL     OW18235   5.872   6.518  14.526
38801SOL    HW118236   5.809   6.587  14.548
38801SOL    HW218237   5.819   6.439  14.519
38802SOL     OW18238   1.658  11.277  13.293
38802SOL    HW118239   1.741  11.272  13.340
38802SOL    HW218240   1.596  11.232  13.349
38803SOL     OW18241  10.273   3.605   2.244
38803SOL    HW118242  10.217   3.673   2.209
38803SOL    HW218243  10.243   3.525   2.201
38804SOL     OW18244   7.217  12.058   2.041
38804SOL    HW118245   7.258  12.142   2.020
38804SOL    HW218246   7.246  11.999   1.970
38805SOL     OW18247   0.840  10.535  13.742
38805SOL    HW118248   0.914  10.489  13.780
38805SOL    HW218249   0.765  10.507  13.794
38806SOL     OW18250   9.209  10.498  10.229
38806SOL    HW118251   9.115  10.487  10.247
38806SOL    HW218252   9.240  10.555  10.300
38807SOL     OW18253  12.734   2.621   3.876
38807SOL    HW118254  12.645   2.656   3.876
38807SOL    HW218255  12.727   2.537   3.830
38808SOL     OW18256   2.363   4.242  13.541
38808SOL    HW118257   2.411   4.318  13.508
38808SOL    HW218258   2.428   4.172  13.545
38809SOL     OW18259   4.395  11.558  11.276
38809SOL    HW118260   4.398  11.565  11.372
38809SOL    HW218261   4.487  11.545  11.251
38810SOL     OW18262   0.501   8.780   6.197
38810SOL    HW118263   0.533   8.709   6.141
38810SOL    HW218264   0.569   8.847   6.192
38811SOL     OW18265   3.986   2.790   8.770
38811SOL    HW118266   3.906   2.772   8.819
38811SOL    HW218267   4.034   2.853   8.824
38812SOL     OW18268  10.766   6.657   8.680
38812SOL    HW118269  10.715   6.699   8.750
38812SOL    HW218270  10.810   6.730   8.636
38813SOL     OW18271   5.048   5.416  12.427
38813SOL    HW118272   5.085   5.486  12.480
38813SOL    HW218273   5.012   5.354  12.491
38814SOL     OW18274  14.492   6.891   8.383
38814SOL    HW118275  14.449   6.974   8.400
38814SOL    HW218276  14.561   6.885   8.450
38815SOL     OW18277  14.586   0.225   7.249
38815SOL    HW118278  14.538   0.228   7.166
38815SOL    HW218279  14.586   0.133   7.274
38816SOL     OW18280   3.538   9.940  12.546
38816SOL    HW118281   3.476   9.898  12.487
38816SOL    HW218282   3.592   9.869  12.580
38817SOL     OW18283   5.636   2.293   5.352
38817SOL    HW118284   5.685   2.211   5.363
38817SOL    HW218285   5.677   2.353   5.414
38818SOL     OW18286   4.849   5.352   5.002
38818SOL    HW118287   4.791   5.283   4.968
38818SOL    HW218288   4.836   5.426   4.942
38819SOL     OW18289   5.425  14.162   7.413
38819SOL    HW118290   5.385  14.247   7.429
38819SOL    HW218291   5.492  14.179   7.346
38820SOL     OW18292  10.236   9.371   9.824
38820SOL    HW118293  10.143   9.373   9.846
38820SOL    HW218294  10.254   9.459   9.792
38821SOL     OW18295   0.272   7.764   7.355
38821SOL    HW118296   0.364   7.751   7.335
38821SOL    HW218297   0.235   7.804   7.276
38822SOL     OW18298  14.026  12.111   9.504
38822SOL    HW118299  13.938  12.105   9.540
38822SOL    HW218300  14.075  12.162   9.568
38823SOL     OW18301   8.165   2.306  11.218
38823SOL    HW118302   8.105   2.242  11.257
38823SOL    HW218303   8.212   2.257  11.151
38824SOL     OW18304  12.392   5.308  11.795
38824SOL    HW118305  12.438   5.304  11.879
38824SOL    HW218306  12.423   5.231  11.748
38825SOL     OW18307   2.513   7.588   3.282
38825SOL    HW118308   2.587   7.649   3.281
38825SOL    HW218309   2.482   7.586   3.191
38826SOL     OW18310  14.634   8.200  10.535
38826SOL    HW118311  14.715   8.210  10.584
38826SOL    HW218312  14.605   8.111  10.554
38827SOL     OW18313  13.618  12.861   5.602
38827SOL    HW118314  13.543  12.832   5.550
38827SOL    HW218315  13.596  12.837   5.691
38828SOL     OW18316  13.819   8.731  14.700
38828SOL    HW118317  13.825   8.817  14.742
38828SOL    HW218318  13.848   8.746  14.610
38829SOL     OW18319   7.221   0.728   8.707
38829SOL    HW118320   7.274   0.652   8.733
38829SOL    HW218321   7.242   0.795   8.773
38830SOL     OW18322   3.473  10.244  13.393
38830SOL    HW118323   3.410  10.296  13.443
38830SOL    HW218324   3.548  10.301  13.382
38831SOL     OW18325  14.442   2.951   3.090
38831SOL    HW118326  14.451   2.914   3.178
38831SOL    HW218327  14.467   3.043   3.100
38832SOL     OW18328   8.210  11.338   5.890
38832SOL    HW118329   8.160  11.413   5.920
38832SOL    HW218330   8.182  11.265   5.946
38833SOL     OW18331  14.269   7.642   8.908
38833SOL    HW118332  14.295   7.559   8.949
38833SOL    HW218333  14.189   7.668   8.954
38834SOL     OW18334   9.597   9.218  13.911
38834SOL    HW118335   9.652   9.261  13.976
38834SOL    HW218336   9.558   9.144  13.958
38835SOL     OW18337   7.047  10.278  12.207
38835SOL    HW118338   7.046  10.352  12.268
38835SOL    HW218339   7.063  10.202  12.262
38836SOL     OW18340   3.559   0.010   0.797
38836SOL    HW118341   3.563   0.081   0.861
38836SOL    HW218342   3.470   0.017   0.761
38837SOL     OW18343   1.206   4.323   6.573
38837SOL    HW118344   1.240   4.399   6.526
38837SOL    HW218345   1.120   4.349   6.604
38838SOL     OW18346   7.578   4.391  10.244
38838SOL    HW118347   7.586   4.297  10.254
38838SOL    HW218348   7.519   4.403  10.169
38839SOL     OW18349   7.774  12.694   1.064
38839SOL    HW118350   7.845  12.632   1.080
38839SOL    HW218351   7.698  12.655   1.109
38840SOL     OW18352   3.963  12.038  14.852
38840SOL    HW118353   4.013  11.988   0.037
38840SOL    HW218354   3.991  12.002  14.767
38841SOL     OW18355   7.323   8.538   3.213
38841SOL    HW118356   7.293   8.558   3.302
38841SOL    HW218357   7.396   8.599   3.198
38842SOL     OW18358   7.448   4.393   9.850
38842SOL    HW118359   7.529   4.364   9.893
38842SOL    HW218360   7.442   4.486   9.871
38843SOL     OW18361   7.816   5.078   0.466
38843SOL    HW118362   7.761   5.001   0.451
38843SOL    HW218363   7.758   5.143   0.503
38844SOL     OW18364  13.217  11.265  11.702
38844SOL    HW118365  13.264  11.320  11.638
38844SOL    HW218366  13.217  11.178  11.664
38845SOL     OW18367   8.516   2.906   9.844
38845SOL    HW118368   8.455   2.980   9.840
38845SOL    HW218369   8.598   2.945   9.876
38846SOL     OW18370  12.774  10.901   5.269
38846SOL    HW118371  12.800  10.962   5.338
38846SOL    HW218372  12.856  10.859   5.244
38847SOL     OW18373  10.816   3.068  13.561
38847SOL    HW118374  10.780   3.018  13.488
38847SOL    HW218375  10.854   3.146  13.520
38848SOL     OW18376  10.448  12.012  10.399
38848SOL    HW118377  10.454  11.921  10.428
38848SOL    HW218378  10.354  12.033  10.406
38849SOL     OW18379  12.136  12.144   4.134
38849SOL    HW118380  12.093  12.067   4.172
38849SOL    HW218381  12.071  12.213   4.138
38850SOL     OW18382   1.308  10.853  14.814
38850SOL    HW118383   1.238  10.905  14.775
38850SOL    HW218384   1.314  10.775  14.760
38851SOL     OW18385   8.319  10.115  11.796
38851SOL    HW118386   8.363  10.174  11.857
38851SOL    HW218387   8.268  10.057  11.851
38852SOL     OW18388  12.843   6.405  12.184
38852SOL    HW118389  12.880   6.440  12.265
38852SOL    HW218390  12.782   6.472  12.155
38853SOL     OW18391   1.919   6.376   8.576
38853SOL    HW118392   1.839   6.421   8.602
38853SOL    HW218393   1.969   6.442   8.527
38854SOL     OW18394  14.251   8.359   4.111
38854SOL    HW118395  14.267   8.454   4.106
38854SOL    HW218396  14.302   8.330   4.186
38855SOL     OW18397  11.307   4.691   3.202
38855SOL    HW118398  11.339   4.746   3.130
38855SOL    HW218399  11.324   4.742   3.280
38856SOL     OW18400   7.557  13.330   5.923
38856SOL    HW118401   7.646  13.304   5.948
38856SOL    HW218402   7.514  13.248   5.899
38857SOL     OW18403   8.415   8.140  12.248
38857SOL    HW118404   8.463   8.159  12.167
38857SOL    HW218405   8.385   8.050  12.238
38858SOL     OW18406   0.004   9.422   6.690
38858SOL    HW118407  14.860   9.343   6.740
38858SOL    HW218408  14.823   9.422   6.616
38859SOL     OW18409   2.948   4.948  10.108
38859SOL    HW118410   2.914   4.886  10.043
38859SOL    HW218411   3.038   4.965  10.081
38860SOL     OW18412   8.338  13.470   4.657
38860SOL    HW118413   8.350  13.407   4.729
38860SOL    HW218414   8.269  13.431   4.603
38861SOL     OW18415  13.687  12.789  13.231
38861SOL    HW118416  13.723  12.701  13.218
38861SOL    HW218417  13.753  12.848  13.196
38862SOL     OW18418   7.728   3.564   6.766
38862SOL    HW118419   7.793   3.568   6.836
38862SOL    HW218420   7.735   3.648   6.722
38863SOL     OW18421  10.876   0.223   7.512
38863SOL    HW118422  10.800   0.186   7.468
38863SOL    HW218423  10.840   0.265   7.590
38864SOL     OW18424   1.418  10.594  10.205
38864SOL    HW118425   1.498  10.600  10.257
38864SOL    HW218426   1.446  10.551  10.123
38865SOL     OW18427  12.779  14.274   7.676
38865SOL    HW118428  12.715  14.342   7.653
38865SOL    HW218429  12.777  14.213   7.603
38866SOL     OW18430   6.914   9.250   4.956
38866SOL    HW118431   6.936   9.320   5.018
38866SOL    HW218432   6.891   9.175   5.011
38867SOL     OW18433   7.660   0.145   3.724
38867SOL    HW118434   7.682   0.206   3.795
38867SOL    HW218435   7.564   0.142   3.724
38868SOL     OW18436   5.923   3.318   2.744
38868SOL    HW118437   5.874   3.324   2.662
38868SOL    HW218438   5.858   3.289   2.809
38869SOL     OW18439   4.750   6.076  12.978
38869SOL    HW118440   4.759   6.144  13.045
38869SOL    HW218441   4.726   5.997  13.026
38870SOL     OW18442  10.634  13.036   9.082
38870SOL    HW118443  10.655  13.063   9.171
38870SOL    HW218444  10.710  12.985   9.054
38871SOL     OW18445   4.162   4.786   8.347
38871SOL    HW118446   4.232   4.810   8.407
38871SOL    HW218447   4.189   4.824   8.263
38872SOL     OW18448   0.312   8.340   9.957
38872SOL    HW118449   0.344   8.290  10.032
38872SOL    HW218450   0.388   8.346   9.899
38873SOL     OW18451   5.063   3.809   9.693
38873SOL    HW118452   5.120   3.875   9.655
38873SOL    HW218453   4.985   3.809   9.637
38874SOL     OW18454   5.551   9.385   3.961
38874SOL    HW118455   5.620   9.410   4.022
38874SOL    HW218456   5.549   9.455   3.896
38875SOL     OW18457   7.205  11.822   0.516
38875SOL    HW118458   7.265  11.864   0.577
38875SOL    HW218459   7.261  11.784   0.449
38876SOL     OW18460   6.699   3.307  11.342
38876SOL    HW118461   6.604   3.302  11.337
38876SOL    HW218462   6.728   3.316  11.251
38877SOL     OW18463   7.937  12.242   1.226
38877SOL    HW118464   8.014  12.199   1.263
38877SOL    HW218465   7.887  12.271   1.302
38878SOL     OW18466   0.882  12.644  14.709
38878SOL    HW118467   0.938  12.704  14.758
38878SOL    HW218468   0.795  12.655  14.748
38879SOL     OW18469  10.206  13.294   6.288
38879SOL    HW118470  10.140  13.331   6.228
38879SOL    HW218471  10.262  13.368   6.309
38880SOL     OW18472  11.045   9.551   9.286
38880SOL    HW118473  11.037   9.589   9.374
38880SOL    HW218474  11.124   9.496   9.291
38881SOL     OW18475  12.804   2.374   0.274
38881SOL    HW118476  12.810   2.355   0.367
38881SOL    HW218477  12.739   2.312   0.241
38882SOL     OW18478  10.017  14.150  10.479
38882SOL    HW118479  10.075  14.098  10.535
38882SOL    HW218480  10.073  14.218  10.442
38883SOL     OW18481  12.861  12.153   0.511
38883SOL    HW118482  12.828  12.226   0.564
38883SOL    HW218483  12.808  12.156   0.431
38884SOL     OW18484   0.718   5.944   7.193
38884SOL    HW118485   0.669   5.906   7.266
38884SOL    HW218486   0.753   6.026   7.228
38885SOL     OW18487   4.461   6.858  13.700
38885SOL    HW118488   4.488   6.896  13.783
38885SOL    HW218489   4.366   6.870  13.697
38886SOL     OW18490  13.449   3.353   1.965
38886SOL    HW118491  13.371   3.391   2.004
38886SOL    HW218492  13.521   3.385   2.019
38887SOL     OW18493   4.322  10.588  11.512
38887SOL    HW118494   4.321  10.542  11.428
38887SOL    HW218495   4.313  10.519  11.577
38888SOL     OW18496  12.902   2.924  10.097
38888SOL    HW118497  12.862   2.999  10.054
38888SOL    HW218498  12.892   2.943  10.191
38889SOL     OW18499   3.015  10.844   4.118
38889SOL    HW118500   2.972  10.882   4.195
38889SOL    HW218501   3.075  10.779   4.155
38890SOL     OW18502   4.084   5.269  13.254
38890SOL    HW118503   4.150   5.202  13.273
38890SOL    HW218504   4.019   5.224  13.200
38891SOL     OW18505  10.544   3.736   6.016
38891SOL    HW118506  10.517   3.672   5.949
38891SOL    HW218507  10.584   3.683   6.085
38892SOL     OW18508   3.418   8.999  14.370
38892SOL    HW118509   3.503   8.969  14.401
38892SOL    HW218510   3.355   8.963  14.433
38893SOL     OW18511   5.229  12.729   1.970
38893SOL    HW118512   5.271  12.723   2.056
38893SOL    HW218513   5.135  12.737   1.991
38894SOL     OW18514  14.707  14.818   7.710
38894SOL    HW118515  14.680  14.754   7.644
38894SOL    HW218516  14.768  14.770   7.766
38895SOL     OW18517  10.383   5.274  11.429
38895SOL    HW118518  10.477   5.285  11.442
38895SOL    HW218519  10.344   5.302  11.512
38896SOL     OW18520  11.210   0.240  12.618
38896SOL    HW118521  11.192   0.322  12.664
38896SOL    HW218522  11.172   0.253  12.531
38897SOL     OW18523   1.242   1.616   3.167
38897SOL    HW118524   1.247   1.552   3.096
38897SOL    HW218525   1.148   1.622   3.187
38898SOL     OW18526   6.064   3.358   1.615
38898SOL    HW118527   6.098   3.310   1.691
38898SOL    HW218528   5.971   3.337   1.613
38899SOL     OW18529  12.195  13.067   5.337
38899SOL    HW118530  12.155  13.107   5.415
38899SOL    HW218531  12.159  12.979   5.335
38900SOL     OW18532   9.942   8.771  13.693
38900SOL    HW118533   9.968   8.846  13.639
38900SOL    HW218534   9.869   8.732  13.645
38901SOL     OW18535   3.856   2.839   2.063
38901SOL    HW118536   3.917   2.768   2.083
38901SOL    HW218537   3.779   2.820   2.116
38902SOL     OW18538   4.909   8.381   7.921
38902SOL    HW118539   4.905   8.308   7.860
38902SOL    HW218540   4.950   8.452   7.872
38903SOL     OW18541   0.031   9.357   8.263
38903SOL    HW118542   0.106   9.362   8.323
38903SOL    HW218543  14.872   9.444   8.265
38904SOL     OW18544   5.706  13.576   1.633
38904SOL    HW118545   5.720  13.553   1.725
38904SOL    HW218546   5.794  13.590   1.599
38905SOL     OW18547   4.888   9.526  10.626
38905SOL    HW118548   4.825   9.509  10.556
38905SOL    HW218549   4.852   9.481  10.702
38906SOL     OW18550  12.741   8.066  12.051
38906SOL    HW118551  12.801   8.055  11.978
38906SOL    HW218552  12.793   8.047  12.129
38907SOL     OW18553   0.061   7.948   4.682
38907SOL    HW118554   0.029   7.903   4.761
38907SOL    HW218555   0.128   7.891   4.647
38908SOL     OW18556   1.730  14.506   9.756
38908SOL    HW118557   1.692  14.446   9.820
38908SOL    HW218558   1.800  14.455   9.715
38909SOL     OW18559   2.253   7.572   7.612
38909SOL    HW118560   2.163   7.594   7.591
38909SOL    HW218561   2.246   7.499   7.674
38910SOL     OW18562  11.452  13.824  10.410
38910SOL    HW118563  11.506  13.875  10.470
38910SOL    HW218564  11.480  13.733  10.423
38911SOL     OW18565  14.786   5.140   0.270
38911SOL    HW118566  14.721   5.200   0.305
38911SOL    HW218567  14.822   5.185   0.194
38912SOL     OW18568   9.706   7.374   8.424
38912SOL    HW118569   9.618   7.406   8.442
38912SOL    HW218570   9.746   7.442   8.369
38913SOL     OW18571  12.863  14.257   1.186
38913SOL    HW118572  12.897  14.296   1.266
38913SOL    HW218573  12.865  14.162   1.203
38914SOL     OW18574   6.090   8.755   7.703
38914SOL    HW118575   6.005   8.717   7.726
38914SOL    HW218576   6.154   8.695   7.741
38915SOL     OW18577  10.005   9.874  12.964
38915SOL    HW118578   9.998   9.785  12.997
38915SOL    HW218579  10.060   9.919  13.028
38916SOL     OW18580   0.468   9.066   5.463
38916SOL    HW118581   0.513   9.119   5.529
38916SOL    HW218582   0.538   9.030   5.410
38917SOL     OW18583   4.977  11.725   9.353
38917SOL    HW118584   4.896  11.773   9.335
38917SOL    HW218585   4.965  11.640   9.311
38918SOL     OW18586   4.078  12.507  11.038
38918SOL    HW118587   4.050  12.515  10.947
38918SOL    HW218588   4.005  12.463  11.082
38919SOL     OW18589   7.973   9.078   4.860
38919SOL    HW118590   7.893   9.039   4.896
38919SOL    HW218591   7.950   9.101   4.771
38920SOL     OW18592  14.725  10.438  10.144
38920SOL    HW118593  14.648  10.481  10.181
38920SOL    HW218594  14.705  10.427  10.052
38921SOL     OW18595  14.816   1.824   0.405
38921SOL    HW118596  14.821   1.918   0.420
38921SOL    HW218597  14.815   1.786   0.493
38922SOL     OW18598   1.660   4.626   8.870
38922SOL    HW118599   1.647   4.551   8.812
38922SOL    HW218600   1.752   4.648   8.862
38923SOL     OW18601  10.978   2.577   3.164
38923SOL    HW118602  11.011   2.495   3.128
38923SOL    HW218603  10.890   2.556   3.194
38924SOL     OW18604   6.493  14.538  14.589
38924SOL    HW118605   6.515  14.607  14.652
38924SOL    HW218606   6.438  14.477  14.638
38925SOL     OW18607   0.147  11.657   6.765
38925SOL    HW118608   0.149  11.699   6.851
38925SOL    HW218609   0.082  11.587   6.774
38926SOL     OW18610   1.742  10.641   6.554
38926SOL    HW118611   1.719  10.588   6.630
38926SOL    HW218612   1.714  10.589   6.479
38927SOL     OW18613   9.250   9.080   2.743
38927SOL    HW118614   9.316   9.055   2.678
38927SOL    HW218615   9.172   9.031   2.717
38928SOL     OW18616   9.595  14.151  11.493
38928SOL    HW118617   9.582  14.179  11.584
38928SOL    HW218618   9.506  14.153  11.456
38929SOL     OW18619  13.370   1.652  10.249
38929SOL    HW118620  13.304   1.706  10.205
38929SOL    HW218621  13.322   1.609  10.320
38930SOL     OW18622   3.701  12.757   3.589
38930SOL    HW118623   3.765  12.811   3.635
38930SOL    HW218624   3.711  12.781   3.497
38931SOL     OW18625   0.765   8.429  14.709
38931SOL    HW118626   0.842   8.472  14.672
38931SOL    HW218627   0.793   8.401  14.796
38932SOL     OW18628  13.095   3.027  14.729
38932SOL    HW118629  13.171   3.039  14.671
38932SOL    HW218630  13.102   2.936  14.759
38933SOL     OW18631   4.182   7.998   1.552
38933SOL    HW118632   4.177   7.959   1.639
38933SOL    HW218633   4.213   7.927   1.495
38934SOL     OW18634  10.184  13.386   7.641
38934SOL    HW118635  10.273  13.354   7.657
38934SOL    HW218636  10.146  13.321   7.581
38935SOL     OW18637  11.188   7.381   2.612
38935SOL    HW118638  11.176   7.291   2.641
38935SOL    HW218639  11.166   7.379   2.519
38936SOL     OW18640   9.725   6.016   9.238
38936SOL    HW118641   9.697   5.985   9.152
38936SOL    HW218642   9.797   6.077   9.220
38937SOL     OW18643  13.177   9.766  14.008
38937SOL    HW118644  13.167   9.761  14.103
38937SOL    HW218645  13.209   9.855  13.992
38938SOL     OW18646  13.832   4.263   9.792
38938SOL    HW118647  13.828   4.171   9.766
38938SOL    HW218648  13.746   4.280   9.832
38939SOL     OW18649   4.842  10.312   6.589
38939SOL    HW118650   4.752  10.342   6.577
38939SOL    HW218651   4.861  10.330   6.681
38940SOL     OW18652   0.910   7.604  14.003
38940SOL    HW118653   0.982   7.663  13.979
38940SOL    HW218654   0.951   7.541  14.062
38941SOL     OW18655   2.522  12.442   6.483
38941SOL    HW118656   2.478  12.363   6.515
38941SOL    HW218657   2.486  12.513   6.535
38942SOL     OW18658   8.785  14.549   1.213
38942SOL    HW118659   8.690  14.543   1.203
38942SOL    HW218660   8.820  14.502   1.138
38943SOL     OW18661  12.018   3.356  11.754
38943SOL    HW118662  12.083   3.418  11.722
38943SOL    HW218663  12.031   3.277  11.701
38944SOL     OW18664   4.187   3.508   0.223
38944SOL    HW118665   4.162   3.482   0.134
38944SOL    HW218666   4.231   3.431   0.259
38945SOL     OW18667   1.751  10.957   9.490
38945SOL    HW118668   1.745  10.925   9.400
38945SOL    HW218669   1.686  11.027   9.495
38946SOL     OW18670  11.471   1.156   0.307
38946SOL    HW118671  11.518   1.073   0.298
38946SOL    HW218672  11.380   1.134   0.289
38947SOL     OW18673   7.264  10.910  14.048
38947SOL    HW118674   7.289  10.818  14.043
38947SOL    HW218675   7.325  10.955  13.989
38948SOL     OW18676  10.863  14.664   7.542
38948SOL    HW118677  10.841  14.608   7.468
38948SOL    HW218678  10.924  14.729   7.507
38949SOL     OW18679  12.264   0.472  10.924
38949SOL    HW118680  12.205   0.415  10.875
38949SOL    HW218681  12.324   0.508  10.858
38950SOL     OW18682   9.053   7.544  13.866
38950SOL    HW118683   8.960   7.570  13.866
38950SOL    HW218684   9.098   7.618  13.824
38951SOL     OW18685  14.650  11.638  12.501
38951SOL    HW118686  14.648  11.670  12.591
38951SOL    HW218687  14.587  11.693  12.454
38952SOL     OW18688  14.339  13.177   6.734
38952SOL    HW118689  14.287  13.189   6.655
38952SOL    HW218690  14.334  13.083   6.752
38953SOL     OW18691   1.838   5.199   8.246
38953SOL    HW118692   1.923   5.241   8.234
38953SOL    HW218693   1.815   5.167   8.159
38954SOL     OW18694   3.398   6.080   6.531
38954SOL    HW118695   3.312   6.042   6.512
38954SOL    HW218696   3.459   6.007   6.522
38955SOL     OW18697  10.857  10.328  11.974
38955SOL    HW118698  10.913  10.351  11.899
38955SOL    HW218699  10.786  10.392  11.970
38956SOL     OW18700   9.053   2.596  13.766
38956SOL    HW118701   8.961   2.581  13.789
38956SOL    HW218702   9.071   2.532  13.697
38957SOL     OW18703   5.014   9.819   5.331
38957SOL    HW118704   4.958   9.841   5.405
38957SOL    HW218705   5.093   9.873   5.343
38958SOL     OW18706   9.176   9.752   9.466
38958SOL    HW118707   9.129   9.771   9.547
38958SOL    HW218708   9.250   9.813   9.466
38959SOL     OW18709   0.899   1.047   5.560
38959SOL    HW118710   0.963   1.114   5.535
38959SOL    HW218711   0.833   1.095   5.611
38960SOL     OW18712   9.844   2.045   9.468
38960SOL    HW118713   9.841   2.063   9.374
38960SOL    HW218714   9.763   1.997   9.486
38961SOL     OW18715   9.494   6.782   0.396
38961SOL    HW118716   9.456   6.694   0.392
38961SOL    HW218717   9.454   6.829   0.323
38962SOL     OW18718   4.022   3.671   1.386
38962SOL    HW118719   4.077   3.661   1.464
38962SOL    HW218720   4.061   3.743   1.337
38963SOL     OW18721   5.304  12.741  10.356
38963SOL    HW118722   5.383  12.697  10.326
38963SOL    HW218723   5.243  12.670  10.376
38964SOL     OW18724   5.964  11.276  11.419
38964SOL    HW118725   6.044  11.322  11.445
38964SOL    HW218726   5.952  11.299  11.327
38965SOL     OW18727   0.337   7.622  14.344
38965SOL    HW118728   0.270   7.613  14.411
38965SOL    HW218729   0.331   7.714  14.317
38966SOL     OW18730  12.515   8.245   7.886
38966SOL    HW118731  12.525   8.243   7.981
38966SOL    HW218732  12.421   8.229   7.872
38967SOL     OW18733  10.038  12.255  11.421
38967SOL    HW118734  10.033  12.175  11.474
38967SOL    HW218735   9.952  12.264  11.381
38968SOL     OW18736   9.233  13.435   5.142
38968SOL    HW118737   9.257  13.362   5.085
38968SOL    HW218738   9.206  13.393   5.224
38969SOL     OW18739   9.483   4.021  14.779
38969SOL    HW118740   9.541   4.097  14.786
38969SOL    HW218741   9.508   3.978  14.698
38970SOL     OW18742   5.700   6.750  11.789
38970SOL    HW118743   5.645   6.813  11.742
38970SOL    HW218744   5.719   6.793  11.873
38971SOL     OW18745   3.428  11.317  12.077
38971SOL    HW118746   3.359  11.344  12.137
38971SOL    HW218747   3.468  11.240  12.118
38972SOL     OW18748   0.941   1.966  13.688
38972SOL    HW118749   0.882   1.983  13.761
38972SOL    HW218750   1.027   1.994  13.719
38973SOL     OW18751   5.332   5.555   5.074
38973SOL    HW118752   5.318   5.512   5.159
38973SOL    HW218753   5.369   5.487   5.018
38974SOL     OW18754   5.079  13.579   3.174
38974SOL    HW118755   5.033  13.630   3.108
38974SOL    HW218756   5.097  13.495   3.131
38975SOL     OW18757   1.558  12.377  14.560
38975SOL    HW118758   1.587  12.467  14.550
38975SOL    HW218759   1.639  12.326  14.560
38976SOL     OW18760   5.550   6.243  12.988
38976SOL    HW118761   5.501   6.232  13.070
38976SOL    HW218762   5.640   6.260  13.017
38977SOL     OW18763   3.667   3.939  12.216
38977SOL    HW118764   3.701   4.010  12.270
38977SOL    HW218765   3.598   3.980  12.163
38978SOL     OW18766   5.123   4.725   8.554
38978SOL    HW118767   5.193   4.774   8.597
38978SOL    HW218768   5.056   4.715   8.621
38979SOL     OW18769   4.392  10.422  12.599
38979SOL    HW118770   4.308  10.460  12.624
38979SOL    HW218771   4.392  10.335  12.638
38980SOL     OW18772   2.886   1.026   4.734
38980SOL    HW118773   2.972   1.046   4.771
38980SOL    HW218774   2.837   0.988   4.807
38981SOL     OW18775  10.441   9.705   9.471
38981SOL    HW118776  10.463   9.632   9.413
38981SOL    HW218777  10.450   9.782   9.416
38982SOL     OW18778   1.553  13.171   8.933
38982SOL    HW118779   1.496  13.248   8.945
38982SOL    HW218780   1.512  13.103   8.986
38983SOL     OW18781  12.804   5.685   6.237
38983SOL    HW118782  12.742   5.621   6.203
38983SOL    HW218783  12.839   5.728   6.159
38984SOL     OW18784  11.891   3.549   5.093
38984SOL    HW118785  11.889   3.463   5.135
38984SOL    HW218786  11.941   3.536   5.013
38985SOL     OW18787   4.182   1.596  14.600
38985SOL    HW118788   4.107   1.655  14.606
38985SOL    HW218789   4.256   1.649  14.630
38986SOL     OW18790   5.301   4.772  12.671
38986SOL    HW118791   5.310   4.689  12.717
38986SOL    HW218792   5.386   4.815  12.682
38987SOL     OW18793  12.747   6.361   1.123
38987SOL    HW118794  12.705   6.443   1.100
38987SOL    HW218795  12.796   6.380   1.202
38988SOL     OW18796   6.144  14.615   3.372
38988SOL    HW118797   6.173  14.671   3.445
38988SOL    HW218798   6.222  14.605   3.317
38989SOL     OW18799  10.326   2.331   6.244
38989SOL    HW118800  10.238   2.305   6.271
38989SOL    HW218801  10.384   2.268   6.287
38990SOL     OW18802   0.494   2.797  11.944
38990SOL    HW118803   0.575   2.790  11.893
38990SOL    HW218804   0.446   2.717  11.924
38991SOL     OW18805  13.983  13.435  13.934
38991SOL    HW118806  14.028  13.517  13.954
38991SOL    HW218807  13.974  13.435  13.839
38992SOL     OW18808  10.942   1.211   3.042
38992SOL    HW118809  10.922   1.123   3.075
38992SOL    HW218810  10.901   1.213   2.955
38993SOL     OW18811   7.894   0.004  13.406
38993SOL    HW118812   7.809  14.867  13.446
38993SOL    HW218813   7.882   0.083  13.353
38994SOL     OW18814  13.856  11.925  10.887
38994SOL    HW118815  13.917  11.944  10.815
38994SOL    HW218816  13.809  11.847  10.860
38995SOL     OW18817   6.273   6.124   5.524
38995SOL    HW118818   6.318   6.169   5.452
38995SOL    HW218819   6.277   6.186   5.597
38996SOL     OW18820  10.832  14.502  13.167
38996SOL    HW118821  10.751  14.548  13.143
38996SOL    HW218822  10.899  14.540  13.110
38997SOL     OW18823  11.722   0.729  12.884
38997SOL    HW118824  11.716   0.817  12.921
38997SOL    HW218825  11.718   0.743  12.789
38998SOL     OW18826   1.338   9.893   8.146
38998SOL    HW118827   1.244   9.875   8.148
38998SOL    HW218828   1.351   9.963   8.211
38999SOL     OW18829   6.459   8.334   1.629
38999SOL    HW118830   6.504   8.277   1.691
38999SOL    HW218831   6.511   8.414   1.628
39000SOL     OW18832   3.070   2.225   5.013
39000SOL    HW118833   3.147   2.277   5.038
39000SOL    HW218834   3.057   2.166   5.087
39001SOL     OW18835   9.717  10.798  11.345
39001SOL    HW118836   9.670  10.833  11.269
39001SOL    HW218837   9.809  10.812  11.325
39002SOL     OW18838   9.818   7.831   0.571
39002SOL    HW118839   9.901   7.841   0.618
39002SOL    HW218840   9.823   7.744   0.533
39003SOL     OW18841   3.578  13.491   1.412
39003SOL    HW118842   3.641  13.491   1.340
39003SOL    HW218843   3.593  13.574   1.457
39004SOL     OW18844   8.688   0.809   8.884
39004SOL    HW118845   8.621   0.872   8.858
39004SOL    HW218846   8.677   0.802   8.979
39005SOL     OW18847   8.019  12.932   1.329
39005SOL    HW118848   8.095  12.971   1.286
39005SOL    HW218849   7.960  12.910   1.258
39006SOL     OW18850   2.351  12.830   2.391
39006SOL    HW118851   2.274  12.837   2.447
39006SOL    HW218852   2.396  12.750   2.422
39007SOL     OW18853  14.309   1.847   2.427
39007SOL    HW118854  14.281   1.937   2.412
39007SOL    HW218855  14.390   1.839   2.377
39008SOL     OW18856   1.059   0.622   3.046
39008SOL    HW118857   1.048   0.596   3.138
39008SOL    HW218858   1.020   0.710   3.042
39009SOL     OW18859   0.795   6.177   0.889
39009SOL    HW118860   0.861   6.108   0.882
39009SOL    HW218861   0.792   6.199   0.982
39010SOL     OW18862   7.542   5.265  14.471
39010SOL    HW118863   7.608   5.258  14.403
39010SOL    HW218864   7.479   5.329  14.436
39011SOL     OW18865   7.113   2.376   4.858
39011SOL    HW118866   7.051   2.356   4.788
39011SOL    HW218867   7.066   2.352   4.938
39012SOL     OW18868  12.603   3.998   0.911
39012SOL    HW118869  12.675   3.984   0.850
39012SOL    HW218870  12.629   4.076   0.961
39013SOL     OW18871  12.693   3.891   5.046
39013SOL    HW118872  12.775   3.843   5.051
39013SOL    HW218873  12.697   3.935   4.961
39014SOL     OW18874   2.852   4.878  14.322
39014SOL    HW118875   2.768   4.833  14.309
39014SOL    HW218876   2.917   4.811  14.303
39015SOL     OW18877   0.083   1.909   1.501
39015SOL    HW118878   0.073   1.873   1.413
39015SOL    HW218879   0.170   1.950   1.501
39016SOL     OW18880  12.421   9.597   3.530
39016SOL    HW118881  12.427   9.510   3.568
39016SOL    HW218882  12.503   9.640   3.554
39017SOL     OW18883   8.409   6.460  10.087
39017SOL    HW118884   8.366   6.478  10.003
39017SOL    HW218885   8.397   6.541  10.137
39018SOL     OW18886   4.574  11.620   9.494
39018SOL    HW118887   4.501  11.572   9.456
39018SOL    HW218888   4.618  11.556   9.550
39019SOL     OW18889   0.243   8.000   5.584
39019SOL    HW118890   0.326   8.030   5.547
39019SOL    HW218891   0.268   7.944   5.658
39020SOL     OW18892   0.886  10.392   1.710
39020SOL    HW118893   0.943  10.400   1.787
39020SOL    HW218894   0.938  10.429   1.638
39021SOL     OW18895   1.371   8.292   8.797
39021SOL    HW118896   1.328   8.355   8.740
39021SOL    HW218897   1.350   8.322   8.886
39022SOL     OW18898  14.378  10.392   3.714
39022SOL    HW118899  14.396  10.325   3.648
39022SOL    HW218900  14.432  10.367   3.789
39023SOL     OW18901   5.819   1.695   0.829
39023SOL    HW118902   5.810   1.736   0.743
39023SOL    HW218903   5.790   1.605   0.816
39024SOL     OW18904   2.618  11.937   5.284
39024SOL    HW118905   2.576  11.979   5.208
39024SOL    HW218906   2.708  11.922   5.255
39025SOL     OW18907   9.300  14.835  11.965
39025SOL    HW118908   9.227  14.790  11.922
39025SOL    HW218909   9.349  14.875  11.893
39026SOL     OW18910   1.776   4.808  11.934
39026SOL    HW118911   1.730   4.737  11.980
39026SOL    HW218912   1.821   4.764  11.862
39027SOL     OW18913   9.179   8.756   8.696
39027SOL    HW118914   9.109   8.806   8.654
39027SOL    HW218915   9.176   8.784   8.787
39028SOL     OW18916   6.455   7.015   6.495
39028SOL    HW118917   6.509   6.990   6.569
39028SOL    HW218918   6.457   7.111   6.494
39029SOL     OW18919   1.225   1.108   9.013
39029SOL    HW118920   1.301   1.150   8.974
39029SOL    HW218921   1.169   1.086   8.938
39030SOL     OW18922   4.051   7.862   8.143
39030SOL    HW118923   3.973   7.897   8.187
39030SOL    HW218924   4.096   7.813   8.212
39031SOL     OW18925  10.877   1.823  10.201
39031SOL    HW118926  10.971   1.817  10.215
39031SOL    HW218927  10.868   1.852  10.110
39032SOL     OW18928  11.487  11.982  11.276
39032SOL    HW118929  11.393  11.997  11.268
39032SOL    HW218930  11.500  11.954  11.366
39033SOL     OW18931  10.620  11.860  13.649
39033SOL    HW118932  10.543  11.907  13.681
39033SOL    HW218933  10.602  11.768  13.666
39034SOL     OW18934  10.026  13.335   3.721
39034SOL    HW118935  10.035  13.334   3.626
39034SOL    HW218936   9.985  13.419   3.741
39035SOL     OW18937   7.116  14.110   4.989
39035SOL    HW118938   7.185  14.045   4.975
39035SOL    HW218939   7.041  14.077   4.940
39036SOL     OW18940   7.841   5.564   7.551
39036SOL    HW118941   7.908   5.589   7.614
39036SOL    HW218942   7.884   5.501   7.494
39037SOL     OW18943   9.575  10.445   9.492
39037SOL    HW118944   9.566  10.406   9.579
39037SOL    HW218945   9.541  10.534   9.502
39038SOL     OW18946   8.039  10.289   1.017
39038SOL    HW118947   8.010  10.375   0.986
39038SOL    HW218948   8.134  10.288   1.001
39039SOL     OW18949   3.857   8.013   2.757
39039SOL    HW118950   3.830   7.959   2.832
39039SOL    HW218951   3.885   8.095   2.797
39040SOL     OW18952   2.705   0.792   3.216
39040SOL    HW118953   2.662   0.777   3.301
39040SOL    HW218954   2.776   0.852   3.236
39041SOL     OW18955   1.684   4.345  10.014
39041SOL    HW118956   1.730   4.355   9.931
39041SOL    HW218957   1.718   4.417  10.068
39042SOL     OW18958   1.633   0.584  10.245
39042SOL    HW118959   1.614   0.576  10.152
39042SOL    HW218960   1.632   0.679  10.262
39043SOL     OW18961   7.968   8.037   9.322
39043SOL    HW118962   7.995   7.997   9.239
39043SOL    HW218963   7.918   8.114   9.296
39044SOL     OW18964   0.050   3.429   5.405
39044SOL    HW118965   0.038   3.389   5.319
39044SOL    HW218966   0.035   3.522   5.391
39045SOL     OW18967  10.864  14.273   8.395
39045SOL    HW118968  10.919  14.303   8.323
39045SOL    HW218969  10.849  14.351   8.448
39046SOL     OW18970   7.623   5.939   1.861
39046SOL    HW118971   7.716   5.928   1.844
39046SOL    HW218972   7.580   5.878   1.802
39047SOL     OW18973   6.926   4.583   3.410
39047SOL    HW118974   6.872   4.511   3.379
39047SOL    HW218975   6.920   4.649   3.341
39048SOL     OW18976   3.912   0.025   6.690
39048SOL    HW118977   3.964   0.023   6.609
39048SOL    HW218978   3.864   0.108   6.685
39049SOL     OW18979   8.146   9.115   1.716
39049SOL    HW118980   8.241   9.107   1.724
39049SOL    HW218981   8.113   9.029   1.742
39050SOL     OW18982  10.248  13.905  13.983
39050SOL    HW118983  10.316  13.964  13.950
39050SOL    HW218984  10.198  13.880  13.905
39051SOL     OW18985   1.945   3.355  10.738
39051SOL    HW118986   1.880   3.386  10.676
39051SOL    HW218987   2.004   3.300  10.685
39052SOL     OW18988   7.638   1.581  13.623
39052SOL    HW118989   7.602   1.493  13.612
39052SOL    HW218990   7.653   1.589  13.717
39053SOL     OW18991  12.388   3.480   8.572
39053SOL    HW118992  12.317   3.537   8.603
39053SOL    HW218993  12.356   3.445   8.489
39054SOL     OW18994   9.101   9.326  11.692
39054SOL    HW118995   9.085   9.411  11.652
39054SOL    HW218996   9.038   9.321  11.764
39055SOL     OW18997  14.133   3.376   6.710
39055SOL    HW118998  14.129   3.294   6.661
39055SOL    HW218999  14.140   3.348   6.802
39056SOL     OW19000  13.305  12.678  10.670
39056SOL    HW119001  13.245  12.712  10.604
39056SOL    HW219002  13.299  12.583  10.663
39057SOL     OW19003   7.489   5.868  11.263
39057SOL    HW119004   7.517   5.778  11.281
39057SOL    HW219005   7.568   5.913  11.235
39058SOL     OW19006  13.359   4.646   7.048
39058SOL    HW119007  13.354   4.689   6.962
39058SOL    HW219008  13.269   4.617   7.064
39059SOL     OW19009   2.053   0.964   5.910
39059SOL    HW119010   2.058   0.916   5.993
39059SOL    HW219011   2.145   0.976   5.884
39060SOL     OW19012   6.911   9.916  14.251
39060SOL    HW119013   6.874   9.833  14.220
39060SOL    HW219014   6.959   9.951  14.176
39061SOL     OW19015  13.658   9.058   7.265
39061SOL    HW119016  13.710   9.012   7.330
39061SOL    HW219017  13.627   9.137   7.311
39062SOL     OW19018   3.916   0.486   2.789
39062SOL    HW119019   3.840   0.524   2.833
39062SOL    HW219020   3.891   0.481   2.697
39063SOL     OW19021   5.514   2.360  11.814
39063SOL    HW119022   5.529   2.429  11.878
39063SOL    HW219023   5.522   2.403  11.729
39064SOL     OW19024  10.767   0.694   3.195
39064SOL    HW119025  10.775   0.721   3.103
39064SOL    HW219026  10.765   0.598   3.191
39065SOL     OW19027   0.427  10.402  14.007
39065SOL    HW119028   0.415  10.471  14.072
39065SOL    HW219029   0.343  10.356  14.006
39066SOL     OW19030   6.779  13.355   1.798
39066SOL    HW119031   6.777  13.266   1.831
39066SOL    HW219032   6.839  13.402   1.856
39067SOL     OW19033   4.245   4.633   5.949
39067SOL    HW119034   4.207   4.721   5.949
39067SOL    HW219035   4.178   4.578   5.908
39068SOL     OW19036   5.763   9.366  12.955
39068SOL    HW119037   5.773   9.450  12.999
39068SOL    HW219038   5.707   9.385  12.880
39069SOL     OW19039   1.293   0.869  13.999
39069SOL    HW119040   1.282   0.780  13.968
39069SOL    HW219041   1.370   0.866  14.056
39070SOL     OW19042   6.995   1.726   9.089
39070SOL    HW119043   7.072   1.767   9.050
39070SOL    HW219044   7.006   1.738   9.183
39071SOL     OW19045   2.108   7.914  10.323
39071SOL    HW119046   2.197   7.939  10.346
39071SOL    HW219047   2.078   7.982  10.262
39072SOL     OW19048   3.412   6.727   9.396
39072SOL    HW119049   3.338   6.784   9.414
39072SOL    HW219050   3.443   6.755   9.309
39073SOL     OW19051   0.682  11.833  12.090
39073SOL    HW119052   0.627  11.812  12.165
39073SOL    HW219053   0.679  11.929  12.084
39074SOL     OW19054   7.194   8.646   1.572
39074SOL    HW119055   7.109   8.604   1.582
39074SOL    HW219056   7.248   8.581   1.527
39075SOL     OW19057   3.215   7.147   9.519
39075SOL    HW119058   3.193   7.200   9.443
39075SOL    HW219059   3.150   7.170   9.585
39076SOL     OW19060   2.876   2.451   5.814
39076SOL    HW119061   2.816   2.526   5.820
39076SOL    HW219062   2.883   2.419   5.903
39077SOL     OW19063   3.642  14.311   9.677
39077SOL    HW119064   3.562  14.259   9.678
39077SOL    HW219065   3.713  14.247   9.680
39078SOL     OW19066  10.855   8.329  13.926
39078SOL    HW119067  10.886   8.344  14.016
39078SOL    HW219068  10.793   8.401  13.910
39079SOL     OW19069   9.580   1.906   7.426
39079SOL    HW119070   9.498   1.907   7.475
39079SOL    HW219071   9.588   1.995   7.391
39080SOL     OW19072  14.190  10.141   2.774
39080SOL    HW119073  14.151  10.176   2.854
39080SOL    HW219074  14.267  10.093   2.803
39081SOL     OW19075   2.117   9.057   3.579
39081SOL    HW119076   2.191   9.067   3.518
39081SOL    HW219077   2.070   8.980   3.546
39082SOL     OW19078   2.847   1.233   4.269
39082SOL    HW119079   2.914   1.301   4.261
39082SOL    HW219080   2.882   1.172   4.335
39083SOL     OW19081   4.249   6.608   7.353
39083SOL    HW119082   4.250   6.582   7.261
39083SOL    HW219083   4.210   6.695   7.353
39084SOL     OW19084   0.410   7.243   3.227
39084SOL    HW119085   0.468   7.193   3.284
39084SOL    HW219086   0.406   7.330   3.266
39085SOL     OW19087  10.677   5.765   8.366
39085SOL    HW119088  10.758   5.755   8.415
39085SOL    HW219089  10.670   5.858   8.348
39086SOL     OW19090   4.334   2.747  12.504
39086SOL    HW119091   4.239   2.744  12.494
39086SOL    HW219092   4.356   2.664  12.546
39087SOL     OW19093   6.720   6.081  10.977
39087SOL    HW119094   6.697   6.165  10.936
39087SOL    HW219095   6.760   6.105  11.060
39088SOL     OW19096   8.406  10.551   3.081
39088SOL    HW119097   8.339  10.593   3.134
39088SOL    HW219098   8.383  10.458   3.082
39089SOL     OW19099  11.172   0.109   0.342
39089SOL    HW119100  11.229   0.067   0.406
39089SOL    HW219101  11.083   0.088   0.371
39090SOL     OW19102  11.568  10.344  12.264
39090SOL    HW119103  11.576  10.422  12.319
39090SOL    HW219104  11.475  10.322  12.266
39091SOL     OW19105   8.071   7.639   8.023
39091SOL    HW119106   8.033   7.552   8.007
39091SOL    HW219107   8.127   7.626   8.100
39092SOL     OW19108   5.577   2.931   9.768
39092SOL    HW119109   5.511   2.995   9.743
39092SOL    HW219110   5.601   2.887   9.686
39093SOL     OW19111   5.429  13.944   0.181
39093SOL    HW119112   5.390  13.994   0.253
39093SOL    HW219113   5.366  13.953   0.109
39094SOL     OW19114   2.080   3.679  11.158
39094SOL    HW119115   2.068   3.771  11.181
39094SOL    HW219116   2.012   3.662  11.092
39095SOL     OW19117   2.185   7.117  13.290
39095SOL    HW119118   2.251   7.082  13.231
39095SOL    HW219119   2.170   7.046  13.353
39096SOL     OW19120  12.553   6.165   3.003
39096SOL    HW119121  12.531   6.099   3.068
39096SOL    HW219122  12.573   6.244   3.053
39097SOL     OW19123   7.726   6.280   9.127
39097SOL    HW119124   7.798   6.234   9.084
39097SOL    HW219125   7.672   6.210   9.164
39098SOL     OW19126  11.630   6.168   3.418
39098SOL    HW119127  11.691   6.111   3.463
39098SOL    HW219128  11.556   6.176   3.479
39099SOL     OW19129   0.655   7.605  10.994
39099SOL    HW119130   0.604   7.657  11.056
39099SOL    HW219131   0.598   7.531  10.972
39100SOL     OW19132  13.232   6.528   1.953
39100SOL    HW119133  13.326   6.526   1.934
39100SOL    HW219134  13.226   6.531   2.048
39101SOL     OW19135   9.800   4.486   3.086
39101SOL    HW119136   9.720   4.506   3.038
39101SOL    HW219137   9.864   4.549   3.052
39102SOL     OW19138   1.286   5.756   3.677
39102SOL    HW119139   1.223   5.692   3.644
39102SOL    HW219140   1.370   5.729   3.640
39103SOL     OW19141   5.361   4.162   7.329
39103SOL    HW119142   5.447   4.153   7.369
39103SOL    HW219143   5.367   4.112   7.247
39104SOL     OW19144   3.563   6.876   7.252
39104SOL    HW119145   3.561   6.967   7.281
39104SOL    HW219146   3.489   6.835   7.296
39105SOL     OW19147   2.498   5.633  13.790
39105SOL    HW119148   2.589   5.606  13.804
39105SOL    HW219149   2.501   5.685  13.710
39106SOL     OW19150   1.752   4.368   4.546
39106SOL    HW119151   1.814   4.396   4.478
39106SOL    HW219152   1.773   4.276   4.562
39107SOL     OW19153   6.465   1.194   0.185
39107SOL    HW119154   6.396   1.226   0.126
39107SOL    HW219155   6.438   1.104   0.205
39108SOL     OW19156   2.019   8.694  13.799
39108SOL    HW119157   2.088   8.732  13.854
39108SOL    HW219158   2.025   8.743  13.717
39109SOL     OW19159  12.699   8.095   6.189
39109SOL    HW119160  12.649   8.014   6.197
39109SOL    HW219161  12.778   8.080   6.242
39110SOL     OW19162  10.122   9.580  10.442
39110SOL    HW119163  10.179   9.625  10.504
39110SOL    HW219164  10.061   9.648  10.413
39111SOL     OW19165   3.678   5.975  10.640
39111SOL    HW119166   3.751   5.957  10.700
39111SOL    HW219167   3.667   6.070  10.644
39112SOL     OW19168   4.057  14.322  14.510
39112SOL    HW119169   4.051  14.309  14.605
39112SOL    HW219170   3.967  14.334  14.482
39113SOL     OW19171   8.793  14.252   6.005
39113SOL    HW119172   8.869  14.262   6.063
39113SOL    HW219173   8.729  14.204   6.058
39114SOL     OW19174  13.505   9.322  12.057
39114SOL    HW119175  13.499   9.384  11.984
39114SOL    HW219176  13.549   9.246  12.020
39115SOL     OW19177   6.400  10.569  11.528
39115SOL    HW119178   6.362  10.528  11.605
39115SOL    HW219179   6.493  10.548  11.533
39116SOL     OW19180  12.312  13.188   9.853
39116SOL    HW119181  12.369  13.262   9.876
39116SOL    HW219182  12.267  13.217   9.774
39117SOL     OW19183  14.703   0.298   5.449
39117SOL    HW119184  14.741   0.375   5.406
39117SOL    HW219185  14.613   0.323   5.468
39118SOL     OW19186  11.094  13.292   5.529
39118SOL    HW119187  11.051  13.207   5.523
39118SOL    HW219188  11.179  13.274   5.568
39119SOL     OW19189   4.018   4.448   0.050
39119SOL    HW119190   4.072   4.372   0.073
39119SOL    HW219191   4.009   4.497   0.132
39120SOL     OW19192   2.193  10.589   5.880
39120SOL    HW119193   2.202  10.657   5.946
39120SOL    HW219194   2.269  10.601   5.822
39121SOL     OW19195  13.524  14.653   3.954
39121SOL    HW119196  13.519  14.648   4.049
39121SOL    HW219197  13.434  14.640   3.924
39122SOL     OW19198   6.754   4.976  11.108
39122SOL    HW119199   6.755   4.945  11.018
39122SOL    HW219200   6.779   4.900  11.160
39123SOL     OW19201   2.610  11.793  12.111
39123SOL    HW119202   2.587  11.744  12.190
39123SOL    HW219203   2.705  11.784  12.103
39124SOL     OW19204  13.830  14.868   2.928
39124SOL    HW119205  13.821  14.774   2.914
39124SOL    HW219206  13.828   0.027   2.840
39125SOL     OW19207   0.564   6.685  14.543
39125SOL    HW119208   0.532   6.775  14.537
39125SOL    HW219209   0.524   6.641  14.468
39126SOL     OW19210   3.772   3.674   9.316
39126SOL    HW119211   3.707   3.739   9.344
39126SOL    HW219212   3.796   3.701   9.228
39127SOL     OW19213   7.860   9.260   1.261
39127SOL    HW119214   7.845   9.255   1.167
39127SOL    HW219215   7.901   9.345   1.275
39128SOL     OW19216  14.580  11.404   4.554
39128SOL    HW119217  14.591  11.364   4.468
39128SOL    HW219218  14.504  11.462   4.543
39129SOL     OW19219   8.166  13.212   7.612
39129SOL    HW119220   8.251  13.198   7.653
39129SOL    HW219221   8.138  13.125   7.582
39130SOL     OW19222  13.863  11.744  14.172
39130SOL    HW119223  13.791  11.724  14.232
39130SOL    HW219224  13.848  11.685  14.098
39131SOL     OW19225   4.572   3.573   3.665
39131SOL    HW119226   4.518   3.562   3.587
39131SOL    HW219227   4.515   3.544   3.737
39132SOL     OW19228  12.975  12.405   8.173
39132SOL    HW119229  13.003  12.492   8.203
39132SOL    HW219230  12.883  12.416   8.149
39133SOL     OW19231  10.053  10.071  10.553
39133SOL    HW119232  10.015  10.008  10.492
39133SOL    HW219233   9.991  10.144  10.553
39134SOL     OW19234  13.364   1.915   8.307
39134SOL    HW119235  13.435   1.949   8.252
39134SOL    HW219236  13.313   1.993   8.330
39135SOL     OW19237  14.303  11.194  10.231
39135SOL    HW119238  14.225  11.207  10.285
39135SOL    HW219239  14.280  11.123  10.173
39136SOL     OW19240   3.673  14.329   1.998
39136SOL    HW119241   3.605  14.331   1.931
39136SOL    HW219242   3.733  14.260   1.970
39137SOL     OW19243   4.391   2.802  11.616
39137SOL    HW119244   4.432   2.821  11.700
39137SOL    HW219245   4.298   2.791  11.636
39138SOL     OW19246   2.257  13.571   2.211
39138SOL    HW119247   2.349  13.596   2.201
39138SOL    HW219248   2.233  13.532   2.127
39139SOL     OW19249  12.650   0.350   2.298
39139SOL    HW119250  12.652   0.442   2.323
39139SOL    HW219251  12.573   0.315   2.342
39140SOL     OW19252   5.989  10.313  11.554
39140SOL    HW119253   5.960  10.367  11.480
39140SOL    HW219254   6.057  10.257  11.517
39141SOL     OW19255  14.088   6.173  12.785
39141SOL    HW119256  14.031   6.171  12.708
39141SOL    HW219257  14.032   6.203  12.856
39142SOL     OW19258   8.072   7.810  12.052
39142SOL    HW119259   8.027   7.727  12.034
39142SOL    HW219260   8.002   7.876  12.050
39143SOL     OW19261   8.304   4.034   0.120
39143SOL    HW119262   8.246   4.093   0.072
39143SOL    HW219263   8.345   4.090   0.186
39144SOL     OW19264   6.397   1.912   5.778
39144SOL    HW119265   6.474   1.925   5.833
39144SOL    HW219266   6.397   1.987   5.719
39145SOL     OW19267   7.869  10.680   1.151
39145SOL    HW119268   7.918  10.663   1.070
39145SOL    HW219269   7.905  10.763   1.183
39146SOL     OW19270   2.430   8.313   5.317
39146SOL    HW119271   2.469   8.292   5.232
39146SOL    HW219272   2.427   8.230   5.364
39147SOL     OW19273  13.611   8.745   9.044
39147SOL    HW119274  13.658   8.798   9.108
39147SOL    HW219275  13.521   8.740   9.078
39148SOL     OW19276   9.923   1.733   4.194
39148SOL    HW119277   9.944   1.659   4.252
39148SOL    HW219278   9.990   1.728   4.125
39149SOL     OW19279  13.505   9.974   1.764
39149SOL    HW119280  13.486   9.919   1.840
39149SOL    HW219281  13.444   9.945   1.697
39150SOL     OW19282   3.733   2.548   5.996
39150SOL    HW119283   3.680   2.523   6.072
39150SOL    HW219284   3.760   2.464   5.958
39151SOL     OW19285  10.125   1.065   2.193
39151SOL    HW119286  10.059   1.118   2.150
39151SOL    HW219287  10.199   1.125   2.207
39152SOL     OW19288  12.185   8.738   1.388
39152SOL    HW119289  12.238   8.660   1.404
39152SOL    HW219290  12.151   8.762   1.474
39153SOL     OW19291   2.092   0.641  10.054
39153SOL    HW119292   2.069   0.690  10.132
39153SOL    HW219293   2.065   0.551  10.073
39154SOL     OW19294   2.289  11.876   0.344
39154SOL    HW119295   2.359  11.834   0.294
39154SOL    HW219296   2.335  11.940   0.399
39155SOL     OW19297   6.140   3.457  14.089
39155SOL    HW119298   6.083   3.383  14.069
39155SOL    HW219299   6.110   3.488  14.175
39156SOL     OW19300  12.318  10.293   4.388
39156SOL    HW119301  12.243  10.257   4.340
39156SOL    HW219302  12.383  10.311   4.319
39157SOL     OW19303   0.576   6.472   5.607
39157SOL    HW119304   0.548   6.417   5.534
39157SOL    HW219305   0.572   6.562   5.573
39158SOL     OW19306  12.249   8.437  10.045
39158SOL    HW119307  12.205   8.371   9.991
39158SOL    HW219308  12.209   8.427  10.131
39159SOL     OW19309   3.588   1.523   1.306
39159SOL    HW119310   3.627   1.545   1.221
39159SOL    HW219311   3.641   1.571   1.369
39160SOL     OW19312  10.021   7.566   3.745
39160SOL    HW119313  10.007   7.489   3.801
39160SOL    HW219314   9.956   7.556   3.675
39161SOL     OW19315   6.177   6.255   4.114
39161SOL    HW119316   6.181   6.267   4.209
39161SOL    HW219317   6.161   6.162   4.102
39162SOL     OW19318   6.521   4.059   4.734
39162SOL    HW119319   6.482   4.136   4.776
39162SOL    HW219320   6.547   4.090   4.647
39163SOL     OW19321   6.516   4.893   8.377
39163SOL    HW119322   6.424   4.868   8.368
39163SOL    HW219323   6.549   4.896   8.287
39164SOL     OW19324   5.574   9.729   1.334
39164SOL    HW119325   5.666   9.724   1.309
39164SOL    HW219326   5.527   9.734   1.250
39165SOL     OW19327   5.896   3.707   0.059
39165SOL    HW119328   5.879   3.724   0.151
39165SOL    HW219329   5.825   3.752   0.013
39166SOL     OW19330   0.641  11.339  11.453
39166SOL    HW119331   0.707  11.299  11.509
39166SOL    HW219332   0.584  11.387  11.513
39167SOL     OW19333   4.988   1.852   8.388
39167SOL    HW119334   5.047   1.794   8.340
39167SOL    HW219335   4.961   1.917   8.324
39168SOL     OW19336   3.376  14.141  11.196
39168SOL    HW119337   3.317  14.206  11.159
39168SOL    HW219338   3.319  14.079  11.241
39169SOL     OW19339  13.944   9.311   9.780
39169SOL    HW119340  13.859   9.325   9.821
39169SOL    HW219341  13.924   9.294   9.688
39170SOL     OW19342   6.320  13.831   5.514
39170SOL    HW119343   6.268  13.777   5.575
39170SOL    HW219344   6.295  13.800   5.427
39171SOL     OW19345   8.847   8.354   7.134
39171SOL    HW119346   8.917   8.412   7.164
39171SOL    HW219347   8.887   8.302   7.064
39172SOL     OW19348   4.536  11.517   4.687
39172SOL    HW119349   4.454  11.486   4.725
39172SOL    HW219350   4.509  11.573   4.614
39173SOL     OW19351   4.940  12.903   8.254
39173SOL    HW119352   4.999  12.897   8.180
39173SOL    HW219353   4.894  12.986   8.241
39174SOL     OW19354   6.258  12.045  14.750
39174SOL    HW119355   6.174  12.063  14.707
39174SOL    HW219356   6.276  11.954  14.730
39175SOL     OW19357   5.919   7.967   4.266
39175SOL    HW119358   5.839   8.015   4.288
39175SOL    HW219359   5.951   7.934   4.350
39176SOL     OW19360   8.377   2.296  14.544
39176SOL    HW119361   8.371   2.341  14.629
39176SOL    HW219362   8.408   2.208  14.566
39177SOL     OW19363   9.137  13.751  11.437
39177SOL    HW119364   9.180  13.756  11.522
39177SOL    HW219365   9.197  13.796  11.377
39178SOL     OW19366   3.251   4.138   0.243
39178SOL    HW119367   3.209   4.185   0.171
39178SOL    HW219368   3.272   4.206   0.307
39179SOL     OW19369  11.034  12.774  11.144
39179SOL    HW119370  10.942  12.801  11.137
39179SOL    HW219371  11.054  12.784  11.237
39180SOL     OW19372   1.299   0.605   3.397
39180SOL    HW119373   1.235   0.674   3.379
39180SOL    HW219374   1.375   0.628   3.344
39181SOL     OW19375   8.191   2.580   5.429
39181SOL    HW119376   8.117   2.593   5.369
39181SOL    HW219377   8.268   2.609   5.380
39182SOL     OW19378   6.826   2.620   4.735
39182SOL    HW119379   6.882   2.679   4.685
39182SOL    HW219380   6.868   2.535   4.730
39183SOL     OW19381  14.407   4.013  13.247
39183SOL    HW119382  14.330   3.974  13.207
39183SOL    HW219383  14.373   4.088  13.296
39184SOL     OW19384   5.369  11.069   2.499
39184SOL    HW119385   5.441  11.129   2.479
39184SOL    HW219386   5.311  11.074   2.424
39185SOL     OW19387   2.617   6.618  11.124
39185SOL    HW119388   2.537   6.670  11.124
39185SOL    HW219389   2.640   6.610  11.031
39186SOL     OW19390   3.304   6.113  13.768
39186SOL    HW119391   3.383   6.060  13.773
39186SOL    HW219392   3.336   6.204  13.770
39187SOL     OW19393  12.028   7.722  11.931
39187SOL    HW119394  11.944   7.764  11.949
39187SOL    HW219395  12.008   7.629  11.929
39188SOL     OW19396   3.306  10.379   7.243
39188SOL    HW119397   3.347  10.331   7.172
39188SOL    HW219398   3.325  10.327   7.321
39189SOL     OW19399   7.328   0.820   4.998
39189SOL    HW119400   7.265   0.785   5.060
39189SOL    HW219401   7.274   0.863   4.931
39190SOL     OW19402   9.203  14.813  12.232
39190SOL    HW119403   9.119  14.772  12.211
39190SOL    HW219404   9.241  14.836  12.147
39191SOL     OW19405   4.292   5.826   9.635
39191SOL    HW119406   4.318   5.905   9.587
39191SOL    HW219407   4.241   5.775   9.572
39192SOL     OW19408  10.090   2.001  11.520
39192SOL    HW119409  10.059   1.928  11.466
39192SOL    HW219410  10.081   2.078  11.463
39193SOL     OW19411   2.420  13.441  13.904
39193SOL    HW119412   2.407  13.513  13.965
39193SOL    HW219413   2.479  13.381  13.949
39194SOL     OW19414  13.442   2.570  10.105
39194SOL    HW119415  13.411   2.500  10.162
39194SOL    HW219416  13.481   2.525  10.030
39195SOL     OW19417   2.443   5.803   8.840
39195SOL    HW119418   2.406   5.831   8.923
39195SOL    HW219419   2.396   5.854   8.774
39196SOL     OW19420   2.083   6.103  13.760
39196SOL    HW119421   2.010   6.050  13.730
39196SOL    HW219422   2.110   6.063  13.842
39197SOL     OW19423   4.202   7.764   5.682
39197SOL    HW119424   4.138   7.810   5.737
39197SOL    HW219425   4.280   7.756   5.738
39198SOL     OW19426   0.723   4.872   0.547
39198SOL    HW119427   0.696   4.822   0.470
39198SOL    HW219428   0.641   4.899   0.588
39199SOL     OW19429   3.607  14.238  14.343
39199SOL    HW119430   3.532  14.203  14.393
39199SOL    HW219431   3.568  14.291  14.274
39200SOL     OW19432   2.310   1.522   9.558
39200SOL    HW119433   2.253   1.597   9.571
39200SOL    HW219434   2.347   1.535   9.470
39201SOL     OW19435   4.566  13.802  10.621
39201SOL    HW119436   4.547  13.885  10.578
39201SOL    HW219437   4.661  13.795  10.620
39202SOL     OW19438   6.048   1.863   0.594
39202SOL    HW119439   6.019   1.939   0.644
39202SOL    HW219440   6.140   1.851   0.620
39203SOL     OW19441   6.182   5.570   2.630
39203SOL    HW119442   6.270   5.582   2.595
39203SOL    HW219443   6.180   5.623   2.710
39204SOL     OW19444   0.328  13.254   0.302
39204SOL    HW119445   0.397  13.294   0.249
39204SOL    HW219446   0.251  13.253   0.245
39205SOL     OW19447   4.905   6.256   0.517
39205SOL    HW119448   4.995   6.241   0.488
39205SOL    HW219449   4.880   6.174   0.559
39206SOL     OW19450  14.224  10.177   0.959
39206SOL    HW119451  14.236  10.177   1.054
39206SOL    HW219452  14.283  10.246   0.927
39207SOL     OW19453   8.374   9.925  13.972
39207SOL    HW119454   8.347   9.994  14.032
39207SOL    HW219455   8.462   9.901  14.001
39208SOL     OW19456   8.318   7.918   9.835
39208SOL    HW119457   8.233   7.893   9.798
39208SOL    HW219458   8.381   7.897   9.766
39209SOL     OW19459  13.821   8.518   4.488
39209SOL    HW119460  13.774   8.594   4.522
39209SOL    HW219461  13.793   8.445   4.544
39210SOL     OW19462   4.523   2.828   6.160
39210SOL    HW119463   4.460   2.806   6.092
39210SOL    HW219464   4.600   2.857   6.112
39211SOL     OW19465  11.720   1.893   4.281
39211SOL    HW119466  11.814   1.882   4.270
39211SOL    HW219467  11.681   1.833   4.218
39212SOL     OW19468  13.291  12.107   5.712
39212SOL    HW119469  13.236  12.037   5.745
39212SOL    HW219470  13.230  12.173   5.679
39213SOL     OW19471   3.551  12.456  11.442
39213SOL    HW119472   3.609  12.394  11.486
39213SOL    HW219473   3.500  12.402  11.382
39214SOL     OW19474  11.637   6.316   8.838
39214SOL    HW119475  11.723   6.331   8.798
39214SOL    HW219476  11.586   6.393   8.816
39215SOL     OW19477  13.002  10.187  14.736
39215SOL    HW119478  13.078  10.155  14.689
39215SOL    HW219479  12.977  10.267  14.690
39216SOL     OW19480   6.811  13.804   9.604
39216SOL    HW119481   6.778  13.889   9.574
39216SOL    HW219482   6.906  13.816   9.611
39217SOL     OW19483   5.163   5.190   9.353
39217SOL    HW119484   5.237   5.158   9.301
39217SOL    HW219485   5.203   5.231   9.429
39218SOL     OW19486   2.353   2.834   1.340
39218SOL    HW119487   2.321   2.901   1.280
39218SOL    HW219488   2.332   2.868   1.427
39219SOL     OW19489   9.155  10.772   8.407
39219SOL    HW119490   9.120  10.847   8.359
39219SOL    HW219491   9.204  10.810   8.480
39220SOL     OW19492   5.173   9.582  13.385
39220SOL    HW119493   5.177   9.505  13.442
39220SOL    HW219494   5.172   9.656  13.446
39221SOL     OW19495   4.379  12.773  11.256
39221SOL    HW119496   4.297  12.819  11.278
39221SOL    HW219497   4.438  12.843  11.227
39222SOL     OW19498  10.435   3.791  11.667
39222SOL    HW119499  10.449   3.697  11.674
39222SOL    HW219500  10.340   3.802  11.668
39223SOL     OW19501  12.474  13.631   9.337
39223SOL    HW119502  12.511  13.604   9.253
39223SOL    HW219503  12.380  13.620   9.327
39224SOL     OW19504   1.696   2.625   3.006
39224SOL    HW119505   1.748   2.636   2.927
39224SOL    HW219506   1.752   2.574   3.065
39225SOL     OW19507   3.615   6.846   9.576
39225SOL    HW119508   3.567   6.910   9.627
39225SOL    HW219509   3.572   6.846   9.490
39226SOL     OW19510   9.624   9.862   9.026
39226SOL    HW119511   9.632   9.838   9.118
39226SOL    HW219512   9.530   9.873   9.012
39227SOL     OW19513  13.770   3.618   7.663
39227SOL    HW119514  13.686   3.645   7.701
39227SOL    HW219515  13.763   3.642   7.571
39228SOL     OW19516   0.035   8.184   6.457
39228SOL    HW119517   0.023   8.092   6.433
39228SOL    HW219518   0.111   8.184   6.516
39229SOL     OW19519   0.684  12.409   7.840
39229SOL    HW119520   0.724  12.429   7.924
39229SOL    HW219521   0.594  12.440   7.848
39230SOL     OW19522   9.712   5.252   3.091
39230SOL    HW119523   9.791   5.223   3.137
39230SOL    HW219524   9.661   5.172   3.077
39231SOL     OW19525   9.142   3.419   0.568
39231SOL    HW119526   9.062   3.367   0.567
39231SOL    HW219527   9.208   3.360   0.605
39232SOL     OW19528   8.662  12.852   7.339
39232SOL    HW119529   8.624  12.839   7.425
39232SOL    HW219530   8.682  12.764   7.307
39233SOL     OW19531   5.043  12.263   9.002
39233SOL    HW119532   5.090  12.208   9.065
39233SOL    HW219533   4.953  12.264   9.033
39234SOL     OW19534   8.420   5.766  11.090
39234SOL    HW119535   8.471   5.807  11.020
39234SOL    HW219536   8.367   5.837  11.126
39235SOL     OW19537  11.294   1.561  12.370
39235SOL    HW119538  11.363   1.625  12.357
39235SOL    HW219539  11.328   1.480  12.332
39236SOL     OW19540   0.394  12.588   7.039
39236SOL    HW119541   0.482  12.588   7.002
39236SOL    HW219542   0.380  12.498   7.069
39237SOL     OW19543   8.555  11.725  13.888
39237SOL    HW119544   8.630  11.704  13.943
39237SOL    HW219545   8.521  11.640  13.860
39238SOL     OW19546   0.844  12.671   2.919
39238SOL    HW119547   0.870  12.593   2.969
39238SOL    HW219548   0.758  12.649   2.883
39239SOL     OW19549  12.911  10.378   0.769
39239SOL    HW119550  12.981  10.376   0.703
39239SOL    HW219551  12.957  10.378   0.853
39240SOL     OW19552   6.931  14.878   0.158
39240SOL    HW119553   6.953  14.800   0.209
39240SOL    HW219554   6.968  14.861   0.071
39241SOL     OW19555  12.538  10.592  13.325
39241SOL    HW119556  12.524  10.595  13.230
39241SOL    HW219557  12.625  10.630  13.338
39242SOL     OW19558  12.939   1.283   3.290
39242SOL    HW119559  12.992   1.318   3.361
39242SOL    HW219560  12.989   1.208   3.258
39243SOL     OW19561   2.731  10.046  10.304
39243SOL    HW119562   2.664  10.107  10.335
39243SOL    HW219563   2.813  10.081  10.340
39244SOL     OW19564   9.372   8.802  12.490
39244SOL    HW119565   9.428   8.852  12.431
39244SOL    HW219566   9.361   8.717  12.446
39245SOL     OW19567   8.558   6.278   1.472
39245SOL    HW119568   8.631   6.314   1.523
39245SOL    HW219569   8.545   6.190   1.507
39246SOL     OW19570  12.475   2.563   7.816
39246SOL    HW119571  12.518   2.553   7.901
39246SOL    HW219572  12.515   2.497   7.760
39247SOL     OW19573  12.848   8.376   1.558
39247SOL    HW119574  12.841   8.376   1.653
39247SOL    HW219575  12.936   8.344   1.540
39248SOL     OW19576   6.168   9.242  13.296
39248SOL    HW119577   6.084   9.277  13.268
39248SOL    HW219578   6.177   9.272  13.387
39249SOL     OW19579   9.052   7.113  12.577
39249SOL    HW119580   9.089   7.096  12.491
39249SOL    HW219581   8.971   7.160  12.559
39250SOL     OW19582   8.643  11.720   2.587
39250SOL    HW119583   8.624  11.794   2.644
39250SOL    HW219584   8.558  11.685   2.563
39251SOL     OW19585   1.166   6.540  12.279
39251SOL    HW119586   1.133   6.608  12.221
39251SOL    HW219587   1.259   6.534  12.259
39252SOL     OW19588  14.876   6.675  12.720
39252SOL    HW119589  14.875   6.640  12.631
39252SOL    HW219590   0.033   6.604  12.773
39253SOL     OW19591   2.571   8.699   4.288
39253SOL    HW119592   2.559   8.704   4.383
39253SOL    HW219593   2.482   8.698   4.253
39254SOL     OW19594   6.526   7.052   4.665
39254SOL    HW119595   6.613   7.058   4.625
39254SOL    HW219596   6.541   7.069   4.758
39255SOL     OW19597   2.724   7.038  12.821
39255SOL    HW119598   2.698   6.969  12.882
39255SOL    HW219599   2.800   7.001  12.775
39256SOL     OW19600   1.491   1.656   8.398
39256SOL    HW119601   1.522   1.626   8.484
39256SOL    HW219602   1.555   1.621   8.336
39257SOL     OW19603   3.750   4.717   4.842
39257SOL    HW119604   3.727   4.756   4.757
39257SOL    HW219605   3.845   4.705   4.837
39258SOL     OW19606   6.014   8.484   6.617
39258SOL    HW119607   6.104   8.451   6.611
39258SOL    HW219608   5.994   8.480   6.710
39259SOL     OW19609   5.985  11.755  14.464
39259SOL    HW119610   5.974  11.727  14.555
39259SOL    HW219611   6.069  11.718  14.436
39260SOL     OW19612  13.451   2.452   2.348
39260SOL    HW119613  13.546   2.441   2.340
39260SOL    HW219614  13.420   2.370   2.386
39261SOL     OW19615   0.450   0.599  11.487
39261SOL    HW119616   0.458   0.584  11.581
39261SOL    HW219617   0.408   0.520  11.453
39262SOL     OW19618   1.110  11.874  11.612
39262SOL    HW119619   1.046  11.942  11.630
39262SOL    HW219620   1.145  11.850  11.698
39263SOL     OW19621  14.564   9.686  13.491
39263SOL    HW119622  14.654   9.720  13.499
39263SOL    HW219623  14.534   9.678  13.582
39264SOL     OW19624   9.814   0.865   1.661
39264SOL    HW119625   9.728   0.902   1.679
39264SOL    HW219626   9.857   0.930   1.604
39265SOL     OW19627  14.837   4.442  12.476
39265SOL    HW119628  14.761   4.438  12.534
39265SOL    HW219629  14.871   4.353  12.474
39266SOL     OW19630  11.420   0.046   7.925
39266SOL    HW119631  11.454  14.870   7.996
39266SOL    HW219632  11.394   0.127   7.969
39267SOL     OW19633  14.280  13.905   5.290
39267SOL    HW119634  14.354  13.886   5.347
39267SOL    HW219635  14.297  13.994   5.258
39268SOL     OW19636   0.443   8.519  11.533
39268SOL    HW119637   0.488   8.511  11.617
39268SOL    HW219638   0.509   8.554  11.473
39269SOL     OW19639  10.167  12.587   4.666
39269SOL    HW119640  10.199  12.670   4.630
39269SOL    HW219641  10.186  12.522   4.599
39270SOL     OW19642  11.955   5.120   3.549
39270SOL    HW119643  11.955   5.026   3.562
39270SOL    HW219644  11.979   5.156   3.635
39271SOL     OW19645   9.009   4.999   8.287
39271SOL    HW119646   8.948   5.025   8.218
39271SOL    HW219647   9.035   5.082   8.328
39272SOL     OW19648   0.929   7.205  13.539
39272SOL    HW119649   0.883   7.281  13.573
39272SOL    HW219650   0.882   7.182  13.459
39273SOL     OW19651  14.347   8.064   2.866
39273SOL    HW119652  14.321   8.057   2.958
39273SOL    HW219653  14.424   8.122   2.868
39274SOL     OW19654  14.822   5.631  13.065
39274SOL    HW119655  14.847   5.610  13.155
39274SOL    HW219656  14.764   5.560  13.040
39275SOL     OW19657   1.832   8.441   9.773
39275SOL    HW119658   1.761   8.441   9.837
39275SOL    HW219659   1.860   8.349   9.768
39276SOL     OW19660   9.232   4.132  12.754
39276SOL    HW119661   9.293   4.076  12.803
39276SOL    HW219662   9.150   4.125  12.803
39277SOL     OW19663   9.859  12.482  12.548
39277SOL    HW119664   9.781  12.433  12.571
39277SOL    HW219665   9.922  12.461  12.617
39278SOL     OW19666  14.653  12.684  12.713
39278SOL    HW119667  14.679  12.689  12.621
39278SOL    HW219668  14.726  12.642  12.757
39279SOL     OW19669   2.311   5.683   6.818
39279SOL    HW119670   2.239   5.693   6.755
39279SOL    HW219671   2.312   5.765   6.866
39280SOL     OW19672   1.884  14.122   5.166
39280SOL    HW119673   1.897  14.206   5.124
39280SOL    HW219674   1.946  14.121   5.239
39281SOL     OW19675   6.903  10.445  14.559
39281SOL    HW119676   6.971  10.383  14.587
39281SOL    HW219677   6.876  10.488  14.639
39282SOL     OW19678  11.042  12.768  10.163
39282SOL    HW119679  11.071  12.764  10.072
39282SOL    HW219680  11.076  12.851  10.195
39283SOL     OW19681   7.678   5.385   6.851
39283SOL    HW119682   7.746   5.452   6.846
39283SOL    HW219683   7.596   5.433   6.844
39284SOL     OW19684   2.882  12.283   0.853
39284SOL    HW119685   2.922  12.324   0.776
39284SOL    HW219686   2.951  12.227   0.888
39285SOL     OW19687  13.864  11.693   3.672
39285SOL    HW119688  13.920  11.658   3.602
39285SOL    HW219689  13.821  11.769   3.633
39286SOL     OW19690   0.368   5.771   5.319
39286SOL    HW119691   0.437   5.803   5.261
39286SOL    HW219692   0.406   5.778   5.407
39287SOL     OW19693  10.166   6.059   7.959
39287SOL    HW119694  10.199   6.139   7.919
39287SOL    HW219695  10.109   6.021   7.892
39288SOL     OW19696  14.258   9.904  12.003
39288SOL    HW119697  14.249   9.995  12.033
39288SOL    HW219698  14.176   9.862  12.030
39289SOL     OW19699  10.725   4.443   2.611
39289SOL    HW119700  10.766   4.484   2.535
39289SOL    HW219701  10.636   4.477   2.611
39290SOL     OW19702   8.592  12.483  12.578
39290SOL    HW119703   8.640  12.565  12.593
39290SOL    HW219704   8.547  12.497  12.494
39291SOL     OW19705   9.447   3.774   5.135
39291SOL    HW119706   9.528   3.763   5.184
39291SOL    HW219707   9.378   3.741   5.193
39292SOL     OW19708   4.829   9.940   5.826
39292SOL    HW119709   4.885   9.861   5.825
39292SOL    HW219710   4.818   9.961   5.919
39293SOL     OW19711  12.417   5.169   4.818
39293SOL    HW119712  12.343   5.228   4.810
39293SOL    HW219713  12.453   5.187   4.905
39294SOL     OW19714   2.424  12.130   0.158
39294SOL    HW119715   2.470  12.153   0.078
39294SOL    HW219716   2.374  12.052   0.135
39295SOL     OW19717   6.381   2.888  12.936
39295SOL    HW119718   6.378   2.805  12.888
39295SOL    HW219719   6.318   2.877  13.007
39296SOL     OW19720  14.728  14.543   7.604
39296SOL    HW119721  14.766  14.584   7.527
39296SOL    HW219722  14.794  14.479   7.633
39297SOL     OW19723  12.176   2.708   8.148
39297SOL    HW119724  12.097   2.683   8.195
39297SOL    HW219725  12.146   2.773   8.084
39298SOL     OW19726   8.244   2.303  12.118
39298SOL    HW119727   8.277   2.392  12.121
39298SOL    HW219728   8.322   2.248  12.122
39299SOL     OW19729   0.770  13.787  14.522
39299SOL    HW119730   0.702  13.844  14.558
39299SOL    HW219731   0.729  13.747  14.445
39300SOL     OW19732   9.546   4.485   1.053
39300SOL    HW119733   9.566   4.578   1.068
39300SOL    HW219734   9.591   4.465   0.971
39301SOL     OW19735   9.065   9.073   0.159
39301SOL    HW119736   9.109   9.147   0.200
39301SOL    HW219737   9.072   9.091   0.065
39302SOL     OW19738  14.250   5.198   7.798
39302SOL    HW119739  14.232   5.219   7.890
39302SOL    HW219740  14.197   5.120   7.781
39303SOL     OW19741  11.887   6.115   8.212
39303SOL    HW119742  11.982   6.113   8.199
39303SOL    HW219743  11.872   6.053   8.284
39304SOL     OW19744   4.928  14.314  13.126
39304SOL    HW119745   4.952  14.369  13.052
39304SOL    HW219746   4.922  14.375  13.200
39305SOL     OW19747   9.832   2.950  11.077
39305SOL    HW119748   9.886   2.893  11.132
39305SOL    HW219749   9.793   2.892  11.012
39306SOL     OW19750  11.493   4.214  11.803
39306SOL    HW119751  11.497   4.216  11.898
39306SOL    HW219752  11.414   4.265  11.781
39307SOL     OW19753   1.100   1.530   7.433
39307SOL    HW119754   1.008   1.546   7.410
39307SOL    HW219755   1.148   1.602   7.393
39308SOL     OW19756   6.264   6.285  11.889
39308SOL    HW119757   6.205   6.217  11.923
39308SOL    HW219758   6.317   6.240  11.824
39309SOL     OW19759   8.086  13.866  10.267
39309SOL    HW119760   8.120  13.779  10.285
39309SOL    HW219761   7.996  13.851  10.237
39310SOL     OW19762  13.180   3.117  11.524
39310SOL    HW119763  13.208   3.026  11.533
39310SOL    HW219764  13.230   3.165  11.590
39311SOL     OW19765   1.193   7.258  13.560
39311SOL    HW119766   1.162   7.220  13.643
39311SOL    HW219767   1.115   7.295  13.520
39312SOL     OW19768   5.265   1.088   5.253
39312SOL    HW119769   5.209   1.034   5.309
39312SOL    HW219770   5.204   1.134   5.195
39313SOL     OW19771   7.219   6.000   3.782
39313SOL    HW119772   7.264   6.077   3.817
39313SOL    HW219773   7.131   6.031   3.762
39314SOL     OW19774  12.568  14.403  13.392
39314SOL    HW119775  12.578  14.465  13.464
39314SOL    HW219776  12.648  14.412  13.341
39315SOL     OW19777   5.534   9.644   8.512
39315SOL    HW119778   5.476   9.570   8.495
39315SOL    HW219779   5.604   9.607   8.566
39316SOL     OW19780   3.768   3.106   3.354
39316SOL    HW119781   3.844   3.105   3.412
39316SOL    HW219782   3.777   3.187   3.304
39317SOL     OW19783   6.058   5.288   9.033
39317SOL    HW119784   6.010   5.357   9.080
39317SOL    HW219785   6.095   5.233   9.102
39318SOL     OW19786   1.752   3.211   6.149
39318SOL    HW119787   1.813   3.180   6.083
39318SOL    HW219788   1.801   3.278   6.198
39319SOL     OW19789   1.133   7.829  12.524
39319SOL    HW119790   1.172   7.860  12.606
39319SOL    HW219791   1.160   7.738  12.517
39320SOL     OW19792  10.226   9.241   4.026
39320SOL    HW119793  10.229   9.151   3.995
39320SOL    HW219794  10.137   9.252   4.059
39321SOL     OW19795   1.978   4.318  14.748
39321SOL    HW119796   1.891   4.358  14.748
39321SOL    HW219797   2.004   4.317  14.656
39322SOL     OW19798  11.550  11.671   1.558
39322SOL    HW119799  11.519  11.622   1.634
39322SOL    HW219800  11.608  11.738   1.595
39323SOL     OW19801  11.353  10.051  13.400
39323SOL    HW119802  11.325  10.126  13.453
39323SOL    HW219803  11.388   9.988  13.463
39324SOL     OW19804   3.864   5.274   4.782
39324SOL    HW119805   3.812   5.342   4.824
39324SOL    HW219806   3.955   5.302   4.794
39325SOL     OW19807   8.212   8.817  10.236
39325SOL    HW119808   8.189   8.902  10.198
39325SOL    HW219809   8.154   8.755  10.192
39326SOL     OW19810   6.504   4.444   2.659
39326SOL    HW119811   6.491   4.471   2.750
39326SOL    HW219812   6.426   4.392   2.638
39327SOL     OW19813   1.290   9.250   0.258
39327SOL    HW119814   1.222   9.315   0.239
39327SOL    HW219815   1.304   9.205   0.175
39328SOL     OW19816  11.036   9.994   8.651
39328SOL    HW119817  11.038  10.026   8.561
39328SOL    HW219818  11.126   9.967   8.669
39329SOL     OW19819   9.175   3.357  10.309
39329SOL    HW119820   9.092   3.316  10.332
39329SOL    HW219821   9.236   3.328  10.377
39330SOL     OW19822   5.787   1.454  11.353
39330SOL    HW119823   5.814   1.507  11.277
39330SOL    HW219824   5.694   1.434  11.336
39331SOL     OW19825   8.005   1.159   4.568
39331SOL    HW119826   8.069   1.100   4.528
39331SOL    HW219827   8.056   1.234   4.597
39332SOL     OW19828   7.474   5.471  13.802
39332SOL    HW119829   7.501   5.499  13.715
39332SOL    HW219830   7.384   5.442  13.792
39333SOL     OW19831   2.786   9.369   7.817
39333SOL    HW119832   2.856   9.417   7.861
39333SOL    HW219833   2.815   9.362   7.726
39334SOL     OW19834   4.470  11.629   1.099
39334SOL    HW119835   4.543  11.683   1.067
39334SOL    HW219836   4.461  11.561   1.033
39335SOL     OW19837   6.773   6.347  14.406
39335SOL    HW119838   6.738   6.393  14.329
39335SOL    HW219839   6.704   6.286  14.431
39336SOL     OW19840   5.309  14.015  11.093
39336SOL    HW119841   5.277  14.046  11.178
39336SOL    HW219842   5.401  13.995  11.108
39337SOL     OW19843  13.004  10.959  10.679
39337SOL    HW119844  12.945  10.898  10.723
39337SOL    HW219845  12.952  11.038  10.667
39338SOL     OW19846  13.972  11.820  13.341
39338SOL    HW119847  13.895  11.765  13.325
39338SOL    HW219848  13.938  11.897  13.386
39339SOL     OW19849   3.982   5.359  12.504
39339SOL    HW119850   3.988   5.397  12.416
39339SOL    HW219851   3.976   5.434  12.563
39340SOL     OW19852   0.895   6.673  14.210
39340SOL    HW119853   0.886   6.655  14.304
39340SOL    HW219854   0.963   6.740  14.205
39341SOL     OW19855   6.555  14.357   2.707
39341SOL    HW119856   6.548  14.450   2.729
39341SOL    HW219857   6.499  14.347   2.630
39342SOL     OW19858   7.872   3.136  14.834
39342SOL    HW119859   7.797   3.176  14.878
39342SOL    HW219860   7.933   3.114   0.025
39343SOL     OW19861   1.639   3.003  12.696
39343SOL    HW119862   1.560   2.976  12.744
39343SOL    HW219863   1.607   3.067  12.633
39344SOL     OW19864  13.764  11.149   2.413
39344SOL    HW119865  13.778  11.071   2.358
39344SOL    HW219866  13.696  11.121   2.475
39345SOL     OW19867   3.220  13.518   3.286
39345SOL    HW119868   3.228  13.441   3.230
39345SOL    HW219869   3.130  13.516   3.317
39346SOL     OW19870   1.034   9.484  11.828
39346SOL    HW119871   1.041   9.554  11.892
39346SOL    HW219872   0.940   9.468  11.820
39347SOL     OW19873   8.589   5.529   0.605
39347SOL    HW119874   8.509   5.480   0.589
39347SOL    HW219875   8.596   5.589   0.530
39348SOL     OW19876   1.500   7.274   9.262
39348SOL    HW119877   1.423   7.318   9.297
39348SOL    HW219878   1.574   7.317   9.305
39349SOL     OW19879   2.259  13.590  11.057
39349SOL    HW119880   2.275  13.504  11.097
39349SOL    HW219881   2.342  13.637  11.067
39350SOL     OW19882  13.058   2.538   9.079
39350SOL    HW119883  12.969   2.555   9.051
39350SOL    HW219884  13.110   2.545   8.999
39351SOL     OW19885  10.316  13.165  13.545
39351SOL    HW119886  10.406  13.158  13.578
39351SOL    HW219887  10.267  13.204  13.618
39352SOL     OW19888   8.734  13.465  13.203
39352SOL    HW119889   8.791  13.540  13.223
39352SOL    HW219890   8.648  13.490  13.237
39353SOL     OW19891   9.929  13.241   6.848
39353SOL    HW119892   9.844  13.240   6.894
39353SOL    HW219893   9.923  13.169   6.785
39354SOL     OW19894   2.413   3.681   6.610
39354SOL    HW119895   2.488   3.684   6.670
39354SOL    HW219896   2.438   3.615   6.546
39355SOL     OW19897   2.850  14.225  13.523
39355SOL    HW119898   2.896  14.183  13.595
39355SOL    HW219899   2.857  14.319  13.541
39356SOL     OW19900   3.390   6.000   0.104
39356SOL    HW119901   3.464   6.055   0.078
39356SOL    HW219902   3.324   6.014   0.036
39357SOL     OW19903  10.782   1.917   5.781
39357SOL    HW119904  10.809   1.962   5.861
39357SOL    HW219905  10.838   1.953   5.712
39358SOL     OW19906  10.932   9.734   3.426
39358SOL    HW119907  10.841   9.706   3.430
39358SOL    HW219908  10.968   9.712   3.512
39359SOL     OW19909   7.900   4.559  14.112
39359SOL    HW119910   7.981   4.508  14.101
39359SOL    HW219911   7.835   4.513  14.059
39360SOL     OW19912  14.280   1.982   9.248
39360SOL    HW119913  14.369   1.948   9.256
39360SOL    HW219914  14.254   1.962   9.158
39361SOL     OW19915   5.438  14.288   9.562
39361SOL    HW119916   5.503  14.315   9.626
39361SOL    HW219917   5.477  14.212   9.518
39362SOL     OW19918  12.020   7.822   0.164
39362SOL    HW119919  11.996   7.788   0.251
39362SOL    HW219920  12.017   7.745   0.107
39363SOL     OW19921   0.134  12.970  10.699
39363SOL    HW119922   0.182  13.034  10.752
39363SOL    HW219923   0.131  12.892  10.754
39364SOL     OW19924  10.297  13.552   4.536
39364SOL    HW119925  10.261  13.596   4.613
39364SOL    HW219926  10.391  13.552   4.550
39365SOL     OW19927   1.890  10.923  14.238
39365SOL    HW119928   1.859  10.833  14.231
39365SOL    HW219929   1.899  10.938  14.332
39366SOL     OW19930  13.806   2.023  13.175
39366SOL    HW119931  13.791   1.970  13.253
39366SOL    HW219932  13.817   2.112  13.208
39367SOL     OW19933   3.545   7.258   1.568
39367SOL    HW119934   3.637   7.270   1.545
39367SOL    HW219935   3.519   7.178   1.522
39368SOL     OW19936   9.535   3.616   4.614
39368SOL    HW119937   9.528   3.601   4.709
39368SOL    HW219938   9.494   3.539   4.575
39369SOL     OW19939   1.343  14.410  13.692
39369SOL    HW119940   1.421  14.418  13.637
39369SOL    HW219941   1.372  14.433  13.780
39370SOL     OW19942   0.863   7.000   6.936
39370SOL    HW119943   0.890   7.021   6.847
39370SOL    HW219944   0.834   7.084   6.973
39371SOL     OW19945  11.111  13.093   3.866
39371SOL    HW119946  11.092  13.064   3.776
39371SOL    HW219947  11.115  13.188   3.860
39372SOL     OW19948   1.875   4.504   4.288
39372SOL    HW119949   1.962   4.468   4.269
39372SOL    HW219950   1.880   4.595   4.259
39373SOL     OW19951   7.888   4.601  11.788
39373SOL    HW119952   7.955   4.540  11.818
39373SOL    HW219953   7.816   4.546  11.758
39374SOL     OW19954   4.611   7.306   8.687
39374SOL    HW119955   4.524   7.328   8.654
39374SOL    HW219956   4.632   7.376   8.748
39375SOL     OW19957   0.505   6.725  13.204
39375SOL    HW119958   0.547   6.734  13.118
39375SOL    HW219959   0.576   6.702  13.263
39376SOL     OW19960  12.293   5.630   8.499
39376SOL    HW119961  12.300   5.696   8.568
39376SOL    HW219962  12.236   5.563   8.535
39377SOL     OW19963  14.736   7.515   4.154
39377SOL    HW119964  14.691   7.433   4.175
39377SOL    HW219965  14.811   7.516   4.213
39378SOL     OW19966  14.216   9.258   3.362
39378SOL    HW119967  14.168   9.318   3.305
39378SOL    HW219968  14.185   9.277   3.450
39379SOL     OW19969   1.477  12.006   5.390
39379SOL    HW119970   1.562  11.967   5.408
39379SOL    HW219971   1.463  12.068   5.462
39380SOL     OW19972   6.048   5.623   8.771
39380SOL    HW119973   6.075   5.691   8.833
39380SOL    HW219974   6.100   5.546   8.795
39381SOL     OW19975   3.052   4.700   6.067
39381SOL    HW119976   2.991   4.647   6.118
39381SOL    HW219977   3.041   4.789   6.101
39382SOL     OW19978   3.978   0.966   8.284
39382SOL    HW119979   3.977   1.019   8.364
39382SOL    HW219980   3.957   1.028   8.214
39383SOL     OW19981   7.253   5.950   1.860
39383SOL    HW119982   7.345   5.954   1.832
39383SOL    HW219983   7.254   5.988   1.948
39384SOL     OW19984   6.030   2.711   4.635
39384SOL    HW119985   5.966   2.779   4.614
39384SOL    HW219986   6.012   2.688   4.726
39385SOL     OW19987   3.631  10.414   2.080
39385SOL    HW119988   3.599  10.498   2.113
39385SOL    HW219989   3.723  10.430   2.058
39386SOL     OW19990  12.547   4.310   9.759
39386SOL    HW119991  12.537   4.342   9.848
39386SOL    HW219992  12.467   4.261   9.741
39387SOL     OW19993   3.740   2.399   2.533
39387SOL    HW119994   3.750   2.466   2.465
39387SOL    HW219995   3.645   2.390   2.542
39388SOL     OW19996   7.950   3.137   2.448
39388SOL    HW119997   7.869   3.092   2.470
39388SOL    HW219998   7.996   3.144   2.532
39389SOL     OW19999   7.917  12.416  14.262
39389SOL    HW120000   7.902  12.493  14.208
39389SOL    HW220001   7.990  12.440  14.320
39390SOL     OW20002   4.375  12.142  12.953
39390SOL    HW120003   4.454  12.162  13.005
39390SOL    HW220004   4.359  12.221  12.903
39391SOL     OW20005   3.232   6.517   4.415
39391SOL    HW120006   3.317   6.503   4.457
39391SOL    HW220007   3.254   6.551   4.328
39392SOL     OW20008  10.433  10.415   0.002
39392SOL    HW120009  10.506  10.381  14.829
39392SOL    HW220010  10.467  10.416   0.092
39393SOL     OW20011  12.410   5.750   2.016
39393SOL    HW120012  12.319   5.774   2.033
39393SOL    HW220013  12.460   5.829   2.036
39394SOL     OW20014  11.954  14.673   6.908
39394SOL    HW120015  12.000  14.718   6.979
39394SOL    HW220016  11.897  14.611   6.953
39395SOL     OW20017  11.014  12.291  11.737
39395SOL    HW120018  11.030  12.363  11.797
39395SOL    HW220019  10.932  12.313  11.694
39396SOL     OW20020   0.174   0.358  14.715
39396SOL    HW120021   0.169   0.453  14.713
39396SOL    HW220022   0.221   0.338  14.796
39397SOL     OW20023   9.889   7.200   4.863
39397SOL    HW120024   9.841   7.121   4.887
39397SOL    HW220025   9.839   7.271   4.901
39398SOL     OW20026  11.407   1.651  13.426
39398SOL    HW120027  11.321   1.675  13.391
39398SOL    HW220028  11.403   1.555  13.435
39399SOL     OW20029  11.004   8.751   6.844
39399SOL    HW120030  10.993   8.817   6.912
39399SOL    HW220031  10.933   8.768   6.781
39400SOL     OW20032   5.143   5.668   5.651
39400SOL    HW120033   5.234   5.692   5.635
39400SOL    HW220034   5.129   5.686   5.744
39401SOL     OW20035   1.078   3.793  11.513
39401SOL    HW120036   1.151   3.734  11.535
39401SOL    HW220037   1.000   3.745  11.542
39402SOL     OW20038   7.320  10.517   8.880
39402SOL    HW120039   7.263  10.527   8.956
39402SOL    HW220040   7.264  10.534   8.805
39403SOL     OW20041   0.248   1.917   4.460
39403SOL    HW120042   0.293   2.000   4.474
39403SOL    HW220043   0.233   1.883   4.548
39404SOL     OW20044  10.639   0.754  11.425
39404SOL    HW120045  10.563   0.797  11.464
39404SOL    HW220046  10.639   0.785  11.334
39405SOL     OW20047   4.880  10.068   0.388
39405SOL    HW120048   4.951  10.009   0.414
39405SOL    HW220049   4.917  10.155   0.397
39406SOL     OW20050   3.854   2.430  11.888
39406SOL    HW120051   3.886   2.428  11.798
39406SOL    HW220052   3.835   2.338  11.909
39407SOL     OW20053  13.031   0.932   1.470
39407SOL    HW120054  12.958   0.872   1.485
39407SOL    HW220055  13.033   0.987   1.548
39408SOL     OW20056   4.522   2.947   7.339
39408SOL    HW120057   4.596   2.889   7.324
39408SOL    HW220058   4.450   2.909   7.288
39409SOL     OW20059   2.976   1.673  14.150
39409SOL    HW120060   2.890   1.714  14.159
39409SOL    HW220061   2.992   1.670  14.055
39410SOL     OW20062  13.317   1.379   4.588
39410SOL    HW120063  13.226   1.405   4.581
39410SOL    HW220064  13.336   1.384   4.682
39411SOL     OW20065   8.261   1.322  11.721
39411SOL    HW120066   8.276   1.295  11.812
39411SOL    HW220067   8.193   1.262  11.689
39412SOL     OW20068   9.408   3.378  12.447
39412SOL    HW120069   9.353   3.435  12.501
39412SOL    HW220070   9.347   3.333  12.389
39413SOL     OW20071   2.683   1.411   5.604
39413SOL    HW120072   2.675   1.355   5.527
39413SOL    HW220073   2.594   1.414   5.641
39414SOL     OW20074   0.335   4.395   4.041
39414SOL    HW120075   0.344   4.416   4.134
39414SOL    HW220076   0.241   4.379   4.030
39415SOL     OW20077   1.456   6.749   5.843
39415SOL    HW120078   1.524   6.773   5.781
39415SOL    HW220079   1.487   6.782   5.927
39416SOL     OW20080   1.557   3.429   9.445
39416SOL    HW120081   1.517   3.467   9.523
39416SOL    HW220082   1.609   3.356   9.478
39417SOL     OW20083  10.303  11.386  11.645
39417SOL    HW120084  10.388  11.415  11.612
39417SOL    HW220085  10.271  11.459  11.696
39418SOL     OW20086  12.309   9.720  13.301
39418SOL    HW120087  12.359   9.655  13.351
39418SOL    HW220088  12.229   9.733  13.352
39419SOL     OW20089  10.335   4.340   8.753
39419SOL    HW120090  10.305   4.278   8.686
39419SOL    HW220091  10.424   4.310   8.774
39420SOL     OW20092   5.921   6.536  10.310
39420SOL    HW120093   5.994   6.474  10.311
39420SOL    HW220094   5.852   6.494  10.360
39421SOL     OW20095   7.707  13.637   9.169
39421SOL    HW120096   7.677  13.706   9.228
39421SOL    HW220097   7.778  13.594   9.216
39422SOL     OW20098   8.317  14.734  11.346
39422SOL    HW120099   8.226  14.763  11.348
39422SOL    HW220100   8.331  14.693  11.432
39423SOL     OW20101   6.927  14.174   8.087
39423SOL    HW120102   6.899  14.208   8.002
39423SOL    HW220103   7.019  14.150   8.074
39424SOL     OW20104   6.473   1.732  11.286
39424SOL    HW120105   6.406   1.796  11.266
39424SOL    HW220106   6.542   1.747  11.221
39425SOL     OW20107   5.521   4.208   5.522
39425SOL    HW120108   5.609   4.172   5.526
39425SOL    HW220109   5.508   4.251   5.606
39426SOL     OW20110  11.985  11.849   9.056
39426SOL    HW120111  11.961  11.915   8.991
39426SOL    HW220112  12.028  11.780   9.006
39427SOL     OW20113   2.540   3.946   2.378
39427SOL    HW120114   2.554   3.949   2.283
39427SOL    HW220115   2.460   3.895   2.388
39428SOL     OW20116   6.930   0.568  10.971
39428SOL    HW120117   6.990   0.495  10.983
39428SOL    HW220118   6.970   0.641  11.019
39429SOL     OW20119  13.085   6.413   0.738
39429SOL    HW120120  12.993   6.439   0.749
39429SOL    HW220121  13.082   6.318   0.729
39430SOL     OW20122   2.005  10.668  11.758
39430SOL    HW120123   2.001  10.753  11.715
39430SOL    HW220124   1.979  10.686  11.849
39431SOL     OW20125   9.256  11.446   0.143
39431SOL    HW120126   9.172  11.414   0.110
39431SOL    HW220127   9.316  11.372   0.133
39432SOL     OW20128  12.625  11.321   9.940
39432SOL    HW120129  12.696  11.383   9.959
39432SOL    HW220130  12.629  11.257  10.010
39433SOL     OW20131   2.507  12.677  11.182
39433SOL    HW120132   2.437  12.684  11.247
39433SOL    HW220133   2.511  12.584  11.160
39434SOL     OW20134  13.215   6.394   9.096
39434SOL    HW120135  13.147   6.334   9.127
39434SOL    HW220136  13.167   6.471   9.065
39435SOL     OW20137  11.310  14.827  14.423
39435SOL    HW120138  11.259  14.820  14.343
39435SOL    HW220139  11.295   0.037  14.454
39436SOL     OW20140   0.820  12.921   8.678
39436SOL    HW120141   0.895  12.950   8.626
39436SOL    HW220142   0.760  12.882   8.613
39437SOL     OW20143   2.394  13.768  11.419
39437SOL    HW120144   2.360  13.684  11.450
39437SOL    HW220145   2.424  13.751  11.330
39438SOL     OW20146  13.842   9.605   4.164
39438SOL    HW120147  13.802   9.531   4.210
39438SOL    HW220148  13.806   9.683   4.207
39439SOL     OW20149   7.048   7.356   0.295
39439SOL    HW120150   7.053   7.419   0.367
39439SOL    HW220151   6.999   7.282   0.332
39440SOL     OW20152   9.897   5.464   2.233
39440SOL    HW120153   9.913   5.397   2.166
39440SOL    HW220154   9.943   5.541   2.200
39441SOL     OW20155   1.462   1.694  11.727
39441SOL    HW120156   1.520   1.632  11.770
39441SOL    HW220157   1.413   1.642  11.663
39442SOL     OW20158   1.849  11.121  11.906
39442SOL    HW120159   1.814  11.108  11.994
39442SOL    HW220160   1.790  11.185  11.866
39443SOL     OW20161   0.013  14.822  12.617
39443SOL    HW120162  14.856  14.844  12.531
39443SOL    HW220163   0.107  14.810  12.600
39444SOL     OW20164  13.853   1.549  12.677
39444SOL    HW120165  13.767   1.552  12.718
39444SOL    HW220166  13.887   1.638  12.685
39445SOL     OW20167   0.551  11.685   3.632
39445SOL    HW120168   0.560  11.737   3.712
39445SOL    HW220169   0.459  11.698   3.606
39446SOL     OW20170   0.521  11.473   4.206
39446SOL    HW120171   0.479  11.420   4.139
39446SOL    HW220172   0.450  11.530   4.238
39447SOL     OW20173  14.320  13.347  11.279
39447SOL    HW120174  14.361  13.412  11.222
39447SOL    HW220175  14.329  13.264  11.231
39448SOL     OW20176   0.029   5.213  11.532
39448SOL    HW120177  14.850   5.263  11.590
39448SOL    HW220178   0.117   5.242  11.556
39449SOL     OW20179   2.483  14.300   8.931
39449SOL    HW120180   2.450  14.300   8.841
39449SOL    HW220181   2.408  14.330   8.983
39450SOL     OW20182   0.721   0.743   6.792
39450SOL    HW120183   0.714   0.651   6.818
39450SOL    HW220184   0.639   0.783   6.822
39451SOL     OW20185   3.250   9.580   3.565
39451SOL    HW120186   3.241   9.523   3.488
39451SOL    HW220187   3.296   9.657   3.533
39452SOL     OW20188  12.445  10.578   3.248
39452SOL    HW120189  12.480  10.569   3.336
39452SOL    HW220190  12.423  10.489   3.222
39453SOL     OW20191   6.296  14.641   0.820
39453SOL    HW120192   6.329  14.553   0.839
39453SOL    HW220193   6.290  14.645   0.725
39454SOL     OW20194   0.934   8.273   5.043
39454SOL    HW120195   0.980   8.205   4.993
39454SOL    HW220196   0.994   8.295   5.114
39455SOL     OW20197   6.943   3.254   2.936
39455SOL    HW120198   6.875   3.191   2.911
39455SOL    HW220199   6.917   3.336   2.894
39456SOL     OW20200   4.691  11.194  13.062
39456SOL    HW120201   4.636  11.196  12.983
39456SOL    HW220202   4.673  11.109  13.101
39457SOL     OW20203   7.513   0.851   3.614
39457SOL    HW120204   7.478   0.892   3.535
39457SOL    HW220205   7.551   0.768   3.584
39458SOL     OW20206   9.518  10.783   5.739
39458SOL    HW120207   9.438  10.820   5.700
39458SOL    HW220208   9.516  10.814   5.830
39459SOL     OW20209   9.195   0.510   9.904
39459SOL    HW120210   9.134   0.557   9.960
39459SOL    HW220211   9.141   0.446   9.858
39460SOL     OW20212   7.262  12.380  12.555
39460SOL    HW120213   7.354  12.360  12.540
39460SOL    HW220214   7.223  12.378  12.468
39461SOL     OW20215  11.147  10.499   9.995
39461SOL    HW120216  11.164  10.593   9.986
39461SOL    HW220217  11.219  10.467  10.049
39462SOL     OW20218   2.188  11.754   5.366
39462SOL    HW120219   2.251  11.823   5.386
39462SOL    HW220220   2.214  11.722   5.279
39463SOL     OW20221  12.951   5.697   0.744
39463SOL    HW120222  12.915   5.729   0.827
39463SOL    HW220223  12.997   5.773   0.707
39464SOL     OW20224  10.466  12.614   2.787
39464SOL    HW120225  10.532  12.577   2.728
39464SOL    HW220226  10.399  12.649   2.728
39465SOL     OW20227   7.395  14.860   0.263
39465SOL    HW120228   7.483  14.866   0.227
39465SOL    HW220229   7.340  14.840   0.187
39466SOL     OW20230  13.215   0.997  10.357
39466SOL    HW120231  13.229   1.091  10.362
39466SOL    HW220232  13.249   0.963  10.439
39467SOL     OW20233   9.672   5.965   9.996
39467SOL    HW120234   9.715   5.957   9.911
39467SOL    HW220235   9.744   5.957  10.059
39468SOL     OW20236   7.123   4.471  13.028
39468SOL    HW120237   7.153   4.548  12.980
39468SOL    HW220238   7.041   4.447  12.985
39469SOL     OW20239  12.882   3.158   7.072
39469SOL    HW120240  12.969   3.153   7.112
39469SOL    HW220241  12.848   3.243   7.100
39470SOL     OW20242   2.875   1.278   1.946
39470SOL    HW120243   2.938   1.253   1.879
39470SOL    HW220244   2.927   1.295   2.024
39471SOL     OW20245   0.731  13.217  14.755
39471SOL    HW120246   0.670  13.175  14.815
39471SOL    HW220247   0.814  13.171  14.770
39472SOL     OW20248  13.801  11.894   3.470
39472SOL    HW120249  13.707  11.900   3.487
39472SOL    HW220250  13.808  11.842   3.390
39473SOL     OW20251   2.816   3.950  14.268
39473SOL    HW120252   2.813   4.044  14.253
39473SOL    HW220253   2.899   3.934  14.313
39474SOL     OW20254  14.599  14.558   5.202
39474SOL    HW120255  14.589  14.650   5.180
39474SOL    HW220256  14.512  14.520   5.188
39475SOL     OW20257   3.496  14.777   5.188
39475SOL    HW120258   3.443  14.698   5.198
39475SOL    HW220259   3.580  14.754   5.230
39476SOL     OW20260  14.445   2.244  14.265
39476SOL    HW120261  14.387   2.319  14.265
39476SOL    HW220262  14.530   2.279  14.291
39477SOL     OW20263   7.729   0.338   0.392
39477SOL    HW120264   7.800   0.401   0.387
39477SOL    HW220265   7.755   0.267   0.332
39478SOL     OW20266   2.636   1.699   2.190
39478SOL    HW120267   2.629   1.684   2.095
39478SOL    HW220268   2.671   1.788   2.197
39479SOL     OW20269  10.525   3.965   8.195
39479SOL    HW120270  10.472   3.885   8.185
39479SOL    HW220271  10.483   4.029   8.137
39480SOL     OW20272  13.132   1.069   3.460
39480SOL    HW120273  13.214   1.064   3.509
39480SOL    HW220274  13.092   1.151   3.487
39481SOL     OW20275  10.566   8.307   9.055
39481SOL    HW120276  10.623   8.310   9.131
39481SOL    HW220277  10.521   8.392   9.055
39482SOL     OW20278   4.935  14.402   9.414
39482SOL    HW120279   4.879  14.364   9.482
39482SOL    HW220280   4.986  14.328   9.381
39483SOL     OW20281  10.187   7.280   8.498
39483SOL    HW120282  10.154   7.284   8.587
39483SOL    HW220283  10.268   7.229   8.503
39484SOL     OW20284   5.500   1.270   8.006
39484SOL    HW120285   5.455   1.231   7.932
39484SOL    HW220286   5.588   1.232   8.004
39485SOL     OW20287   6.683   4.282   3.131
39485SOL    HW120288   6.695   4.316   3.220
39485SOL    HW220289   6.636   4.351   3.085
39486SOL     OW20290   6.796   0.930  10.860
39486SOL    HW120291   6.818   0.954  10.950
39486SOL    HW220292   6.710   0.889  10.867
39487SOL     OW20293   8.120   8.315   6.133
39487SOL    HW120294   8.032   8.338   6.160
39487SOL    HW220295   8.147   8.386   6.075
39488SOL     OW20296   6.483   7.965   6.947
39488SOL    HW120297   6.563   7.993   6.992
39488SOL    HW220298   6.439   8.047   6.923
39489SOL     OW20299   9.000  13.135   4.362
39489SOL    HW120300   8.961  13.074   4.299
39489SOL    HW220301   8.933  13.201   4.377
39490SOL     OW20302  11.166   3.506   0.463
39490SOL    HW120303  11.211   3.434   0.418
39490SOL    HW220304  11.177   3.581   0.405
39491SOL     OW20305   6.128  13.746   3.630
39491SOL    HW120306   6.162  13.833   3.613
39491SOL    HW220307   6.088  13.753   3.717
39492SOL     OW20308   1.278  12.879   2.734
39492SOL    HW120309   1.189  12.852   2.758
39492SOL    HW220310   1.315  12.801   2.692
39493SOL     OW20311   8.627   0.973   1.523
39493SOL    HW120312   8.654   1.042   1.463
39493SOL    HW220313   8.563   1.015   1.580
39494SOL     OW20314   6.042   4.630  13.644
39494SOL    HW120315   5.949   4.644  13.626
39494SOL    HW220316   6.046   4.543  13.683
39495SOL     OW20317  10.360  13.638   5.653
39495SOL    HW120318  10.360  13.588   5.572
39495SOL    HW220319  10.376  13.728   5.627
39496SOL     OW20320   0.443   8.432   1.758
39496SOL    HW120321   0.509   8.466   1.699
39496SOL    HW220322   0.473   8.457   1.845
39497SOL     OW20323   2.466   8.140  13.986
39497SOL    HW120324   2.477   8.203  14.058
39497SOL    HW220325   2.506   8.060  14.019
39498SOL     OW20326   9.792   0.843   3.273
39498SOL    HW120327   9.733   0.769   3.286
39498SOL    HW220328   9.835   0.854   3.358
39499SOL     OW20329   7.019  11.422   1.864
39499SOL    HW120330   6.991  11.495   1.918
39499SOL    HW220331   7.050  11.356   1.926
39500SOL     OW20332   0.676   6.013   4.788
39500SOL    HW120333   0.760   5.971   4.805
39500SOL    HW220334   0.698   6.105   4.770
39501SOL     OW20335  10.739   3.826   2.556
39501SOL    HW120336  10.658   3.851   2.512
39501SOL    HW220337  10.711   3.799   2.643
39502SOL     OW20338  14.157  10.882  14.407
39502SOL    HW120339  14.159  10.959  14.350
39502SOL    HW220340  14.071  10.884  14.448
39503SOL     OW20341   1.099   5.932  12.732
39503SOL    HW120342   1.019   5.914  12.681
39503SOL    HW220343   1.116   6.025  12.716
39504SOL     OW20344   4.364  14.456   6.109
39504SOL    HW120345   4.322  14.447   6.024
39504SOL    HW220346   4.361  14.369   6.147
39505SOL     OW20347  13.849  12.553  13.229
39505SOL    HW120348  13.940  12.569  13.205
39505SOL    HW220349  13.853  12.486  13.297
39506SOL     OW20350   7.903   3.110   1.706
39506SOL    HW120351   7.881   3.047   1.775
39506SOL    HW220352   7.992   3.139   1.727
39507SOL     OW20353   8.431   6.089   2.139
39507SOL    HW120354   8.357   6.084   2.078
39507SOL    HW220355   8.403   6.151   2.206
39508SOL     OW20356  14.008   6.252  11.893
39508SOL    HW120357  14.010   6.220  11.803
39508SOL    HW220358  13.937   6.203  11.934
39509SOL     OW20359   6.689   6.101   1.673
39509SOL    HW120360   6.689   6.160   1.748
39509SOL    HW220361   6.599   6.105   1.639
39510SOL     OW20362   9.171  10.424   2.476
39510SOL    HW120363   9.155  10.513   2.508
39510SOL    HW220364   9.187  10.373   2.555
39511SOL     OW20365   4.160   9.991   0.782
39511SOL    HW120366   4.121  10.024   0.863
39511SOL    HW220367   4.107  10.030   0.713
39512SOL     OW20368   2.553   1.896   2.525
39512SOL    HW120369   2.507   1.884   2.442
39512SOL    HW220370   2.499   1.960   2.573
39513SOL     OW20371   1.978  12.422   6.021
39513SOL    HW120372   2.024  12.456   5.944
39513SOL    HW220373   2.036  12.355   6.056
39514SOL     OW20374  13.357   4.463   0.700
39514SOL    HW120375  13.382   4.374   0.674
39514SOL    HW220376  13.343   4.457   0.794
39515SOL     OW20377   4.331   9.187   7.487
39515SOL    HW120378   4.238   9.182   7.509
39515SOL    HW220379   4.367   9.102   7.514
39516SOL     OW20380   0.219   9.719   2.157
39516SOL    HW120381   0.165   9.785   2.201
39516SOL    HW220382   0.201   9.732   2.064
39517SOL     OW20383   7.987   0.252  10.587
39517SOL    HW120384   8.026   0.329  10.545
39517SOL    HW220385   8.060   0.191  10.596
39518SOL     OW20386  12.332  12.126  13.256
39518SOL    HW120387  12.259  12.137  13.196
39518SOL    HW220388  12.292  12.121  13.343
39519SOL     OW20389  11.031   2.507   3.470
39519SOL    HW120390  10.963   2.453   3.430
39519SOL    HW220391  10.983   2.583   3.506
39520SOL     OW20392   4.865   8.422   4.016
39520SOL    HW120393   4.778   8.381   4.021
39520SOL    HW220394   4.851   8.501   3.963
39521SOL     OW20395  14.371   9.882   9.725
39521SOL    HW120396  14.352   9.970   9.758
39521SOL    HW220397  14.290   9.855   9.680
39522SOL     OW20398   6.104   6.302   8.057
39522SOL    HW120399   6.034   6.324   8.119
39522SOL    HW220400   6.094   6.208   8.041
39523SOL     OW20401   6.722  13.889   3.417
39523SOL    HW120402   6.726  13.930   3.331
39523SOL    HW220403   6.631  13.860   3.426
39524SOL     OW20404  11.748   4.218  12.710
39524SOL    HW120405  11.778   4.286  12.650
39524SOL    HW220406  11.684   4.262  12.766
39525SOL     OW20407   5.656   5.380   0.596
39525SOL    HW120408   5.612   5.413   0.674
39525SOL    HW220409   5.736   5.340   0.629
39526SOL     OW20410  13.777   8.784  10.328
39526SOL    HW120411  13.813   8.764  10.242
39526SOL    HW220412  13.835   8.851  10.364
39527SOL     OW20413   4.661   3.176   8.370
39527SOL    HW120414   4.651   3.200   8.278
39527SOL    HW220415   4.659   3.259   8.418
39528SOL     OW20416  14.389   8.343  10.940
39528SOL    HW120417  14.406   8.268  10.996
39528SOL    HW220418  14.326   8.396  10.989
39529SOL     OW20419   9.718   3.332  10.683
39529SOL    HW120420   9.633   3.288  10.677
39529SOL    HW220421   9.698   3.424  10.670
39530SOL     OW20422   0.033   9.076   8.269
39530SOL    HW120423   0.113   9.045   8.310
39530SOL    HW220424   0.042   9.172   8.267
39531SOL     OW20425   3.049   3.003   8.175
39531SOL    HW120426   3.145   3.007   8.169
39531SOL    HW220427   3.023   2.960   8.093
39532SOL     OW20428   5.295   2.421   0.511
39532SOL    HW120429   5.329   2.420   0.600
39532SOL    HW220430   5.329   2.341   0.471
39533SOL     OW20431   2.253   8.008   2.558
39533SOL    HW120432   2.263   7.975   2.647
39533SOL    HW220433   2.320   7.961   2.508
39534SOL     OW20434  10.399   6.905   9.860
39534SOL    HW120435  10.467   6.838   9.854
39534SOL    HW220436  10.344   6.891   9.783
39535SOL     OW20437   3.683   6.044   1.148
39535SOL    HW120438   3.738   6.031   1.070
39535SOL    HW220439   3.595   6.020   1.119
39536SOL     OW20440   2.149   4.980   0.981
39536SOL    HW120441   2.119   5.063   0.944
39536SOL    HW220442   2.076   4.950   1.036
39537SOL     OW20443   3.520   9.027   1.557
39537SOL    HW120444   3.596   9.064   1.601
39537SOL    HW220445   3.531   9.052   1.465
39538SOL     OW20446   4.130   5.970   5.401
39538SOL    HW120447   4.123   5.937   5.311
39538SOL    HW220448   4.193   6.042   5.395
39539SOL     OW20449  10.676   7.444  11.306
39539SOL    HW120450  10.724   7.513  11.261
39539SOL    HW220451  10.708   7.363  11.266
39540SOL     OW20452  11.524   7.664   5.541
39540SOL    HW120453  11.609   7.678   5.500
39540SOL    HW220454  11.543   7.609   5.618
39541SOL     OW20455  12.844  11.733   2.270
39541SOL    HW120456  12.834  11.644   2.237
39541SOL    HW220457  12.882  11.723   2.357
39542SOL     OW20458   1.737  12.121   1.770
39542SOL    HW120459   1.700  12.140   1.684
39542SOL    HW220460   1.720  12.200   1.822
39543SOL     OW20461  14.578   7.783   2.550
39543SOL    HW120462  14.618   7.848   2.491
39543SOL    HW220463  14.587   7.822   2.637
39544SOL     OW20464   5.565   2.069   8.050
39544SOL    HW120465   5.517   2.146   8.019
39544SOL    HW220466   5.518   2.041   8.128
39545SOL     OW20467   4.900   2.431  11.671
39545SOL    HW120468   4.830   2.381  11.713
39545SOL    HW220469   4.917   2.504  11.731
39546SOL     OW20470   5.134   5.156  11.366
39546SOL    HW120471   5.184   5.110  11.299
39546SOL    HW220472   5.056   5.102  11.381
39547SOL     OW20473   9.714   4.125   9.242
39547SOL    HW120474   9.752   4.063   9.304
39547SOL    HW220475   9.758   4.208   9.260
39548SOL     OW20476   6.189   7.370   2.540
39548SOL    HW120477   6.161   7.446   2.488
39548SOL    HW220478   6.270   7.341   2.497
39549SOL     OW20479   7.529  13.256  13.174
39549SOL    HW120480   7.540  13.257  13.078
39549SOL    HW220481   7.442  13.293  13.188
39550SOL     OW20482   0.002  12.460  12.558
39550SOL    HW120483  14.789  12.452  12.580
39550SOL    HW220484   0.020  12.386  12.501
39551SOL     OW20485  12.735   8.548   6.122
39551SOL    HW120486  12.791   8.609   6.075
39551SOL    HW220487  12.781   8.532   6.204
39552SOL     OW20488   3.577   8.185   8.403
39552SOL    HW120489   3.579   8.273   8.442
39552SOL    HW220490   3.640   8.190   8.331
39553SOL     OW20491   2.527  14.100   2.132
39553SOL    HW120492   2.461  14.155   2.174
39553SOL    HW220493   2.601  14.100   2.193
39554SOL     OW20494   8.620   4.661   1.714
39554SOL    HW120495   8.591   4.653   1.805
39554SOL    HW220496   8.589   4.580   1.673
39555SOL     OW20497  11.470   0.593  12.042
39555SOL    HW120498  11.525   0.656  12.088
39555SOL    HW220499  11.446   0.528  12.108
39556SOL     OW20500   7.242  13.558   5.605
39556SOL    HW120501   7.192  13.490   5.560
39556SOL    HW220502   7.334  13.539   5.583
39557SOL     OW20503   5.936   4.655   1.237
39557SOL    HW120504   5.958   4.634   1.327
39557SOL    HW220505   6.016   4.693   1.201
39558SOL     OW20506   9.445   7.327  14.705
39558SOL    HW120507   9.494   7.245  14.706
39558SOL    HW220508   9.512   7.395  14.720
39559SOL     OW20509   0.565  12.292  13.082
39559SOL    HW120510   0.488  12.343  13.059
39559SOL    HW220511   0.530  12.206  13.108
39560SOL     OW20512  10.402   1.951   1.996
39560SOL    HW120513  10.352   1.900   2.060
39560SOL    HW220514  10.338   1.975   1.929
39561SOL     OW20515   8.278  11.542  12.308
39561SOL    HW120516   8.291  11.623  12.358
39561SOL    HW220517   8.352  11.486  12.334
39562SOL     OW20518   7.591   0.066  13.976
39562SOL    HW120519   7.565   0.146  13.930
39562SOL    HW220520   7.652   0.096  14.043
39563SOL     OW20521  12.517   6.917   4.539
39563SOL    HW120522  12.432   6.883   4.512
39563SOL    HW220523  12.579   6.880   4.476
39564SOL     OW20524  11.956   1.303   0.164
39564SOL    HW120525  11.966   1.255   0.081
39564SOL    HW220526  12.045   1.312   0.197
39565SOL     OW20527   9.231  10.645   7.551
39565SOL    HW120528   9.221  10.609   7.463
39565SOL    HW220529   9.321  10.678   7.553
39566SOL     OW20530   7.043   5.035   1.388
39566SOL    HW120531   7.132   5.050   1.420
39566SOL    HW220532   7.044   4.945   1.355
39567SOL     OW20533   7.099   5.277  13.508
39567SOL    HW120534   7.085   5.372  13.517
39567SOL    HW220535   7.177   5.260  13.561
39568SOL     OW20536   8.812   4.218   8.882
39568SOL    HW120537   8.766   4.155   8.827
39568SOL    HW220538   8.810   4.300   8.833
39569SOL     OW20539   4.437   0.813   7.658
39569SOL    HW120540   4.398   0.735   7.698
39569SOL    HW220541   4.368   0.880   7.664
39570SOL     OW20542   8.018   7.367   8.025
39570SOL    HW120543   7.993   7.278   8.048
39570SOL    HW220544   8.110   7.360   8.000
39571SOL     OW20545   5.486   9.685   1.065
39571SOL    HW120546   5.545   9.653   0.997
39571SOL    HW220547   5.428   9.611   1.084
39572SOL     OW20548   8.554  12.666  13.331
39572SOL    HW120549   8.510  12.682  13.247
39572SOL    HW220550   8.553  12.571  13.341
39573SOL     OW20551   1.702   7.141   9.998
39573SOL    HW120552   1.653   7.103  10.072
39573SOL    HW220553   1.785   7.094   9.998
39574SOL     OW20554   5.634   4.256   4.696
39574SOL    HW120555   5.620   4.162   4.685
39574SOL    HW220556   5.547   4.295   4.685
39575SOL     OW20557  14.346   7.904  10.467
39575SOL    HW120558  14.402   7.842  10.515
39575SOL    HW220559  14.263   7.857  10.456
39576SOL     OW20560  11.812  10.829  12.435
39576SOL    HW120561  11.743  10.846  12.372
39576SOL    HW220562  11.892  10.827  12.383
39577SOL     OW20563   7.421   1.177   6.354
39577SOL    HW120564   7.503   1.208   6.314
39577SOL    HW220565   7.448   1.108   6.414
39578SOL     OW20566   1.822  10.493   6.093
39578SOL    HW120567   1.740  10.457   6.060
39578SOL    HW220568   1.856  10.426   6.152
39579SOL     OW20569   9.981  10.608  10.725
39579SOL    HW120570   9.931  10.527  10.719
39579SOL    HW220571  10.054  10.588  10.784
39580SOL     OW20572   3.492   7.171  12.830
39580SOL    HW120573   3.477   7.190  12.923
39580SOL    HW220574   3.582   7.200  12.814
39581SOL     OW20575  13.634  11.322   0.802
39581SOL    HW120576  13.673  11.244   0.763
39581SOL    HW220577  13.549  11.330   0.758
39582SOL     OW20578   5.234   0.966   9.268
39582SOL    HW120579   5.315   0.967   9.216
39582SOL    HW220580   5.178   0.903   9.223
39583SOL     OW20581   7.193  10.682  11.784
39583SOL    HW120582   7.149  10.598  11.769
39583SOL    HW220583   7.122  10.742  11.811
39584SOL     OW20584   6.755  14.761  13.523
39584SOL    HW120585   6.681  14.793  13.472
39584SOL    HW220586   6.719  14.740  13.609
39585SOL     OW20587   4.964   1.956   1.943
39585SOL    HW120588   4.928   1.959   2.032
39585SOL    HW220589   5.025   2.029   1.940
39586SOL     OW20590  10.598  12.708   3.537
39586SOL    HW120591  10.513  12.667   3.523
39586SOL    HW220592  10.659  12.655   3.486
39587SOL     OW20593   8.211   0.158  11.563
39587SOL    HW120594   8.291   0.154  11.511
39587SOL    HW220595   8.167   0.074  11.548
39588SOL     OW20596   0.344   9.678   8.116
39588SOL    HW120597   0.428   9.665   8.070
39588SOL    HW220598   0.289   9.605   8.087
39589SOL     OW20599   7.471  14.511   4.671
39589SOL    HW120600   7.434  14.505   4.759
39589SOL    HW220601   7.542  14.574   4.679
39590SOL     OW20602   9.257   1.385   3.273
39590SOL    HW120603   9.188   1.366   3.336
39590SOL    HW220604   9.323   1.317   3.289
39591SOL     OW20605  13.314   0.185   2.542
39591SOL    HW120606  13.351   0.180   2.454
39591SOL    HW220607  13.289   0.095   2.563
39592SOL     OW20608  10.461   5.176   9.771
39592SOL    HW120609  10.458   5.253   9.714
39592SOL    HW220610  10.403   5.112   9.730
39593SOL     OW20611   3.307   9.979  13.774
39593SOL    HW120612   3.369   9.993  13.702
39593SOL    HW220613   3.341  10.034  13.845
39594SOL     OW20614   5.906   2.070   0.714
39594SOL    HW120615   5.847   2.071   0.789
39594SOL    HW220616   5.883   2.150   0.665
39595SOL     OW20617   4.030   2.155  12.927
39595SOL    HW120618   3.970   2.196  12.989
39595SOL    HW220619   4.115   2.158  12.970
39596SOL     OW20620  14.869  10.828  11.525
39596SOL    HW120621  14.803  10.897  11.525
39596SOL    HW220622   0.062  10.864  11.473
39597SOL     OW20623   0.375   3.494   7.990
39597SOL    HW120624   0.432   3.571   7.999
39597SOL    HW220625   0.434   3.419   8.006
39598SOL     OW20626  12.138  13.764   3.578
39598SOL    HW120627  12.101  13.817   3.507
39598SOL    HW220628  12.198  13.704   3.535
39599SOL     OW20629   2.482   4.178   7.000
39599SOL    HW120630   2.430   4.233   6.942
39599SOL    HW220631   2.447   4.194   7.088
39600SOL     OW20632  11.411  13.712  13.910
39600SOL    HW120633  11.497  13.673  13.922
39600SOL    HW220634  11.397  13.765  13.988
39601SOL     OW20635  12.493  14.408   6.618
39601SOL    HW120636  12.441  14.456   6.554
39601SOL    HW220637  12.577  14.393   6.574
39602SOL     OW20638   3.663   7.345  12.115
39602SOL    HW120639   3.623   7.273  12.065
39602SOL    HW220640   3.712   7.394  12.049
39603SOL     OW20641   2.185  14.630   2.276
39603SOL    HW120642   2.118  14.672   2.332
39603SOL    HW220643   2.268  14.649   2.320
39604SOL     OW20644   2.422   7.980   9.735
39604SOL    HW120645   2.356   8.026   9.683
39604SOL    HW220646   2.379   7.963   9.819
39605SOL     OW20647  14.319  14.348   2.788
39605SOL    HW120648  14.389  14.305   2.836
39605SOL    HW220649  14.243  14.291   2.798
39606SOL     OW20650  12.183   2.415   7.940
39606SOL    HW120651  12.114   2.457   7.990
39606SOL    HW220652  12.262   2.430   7.992
39607SOL     OW20653   0.600   3.405   3.791
39607SOL    HW120654   0.534   3.372   3.852
39607SOL    HW220655   0.682   3.368   3.823
39608SOL     OW20656  11.268  14.679  14.863
39608SOL    HW120657  11.219  14.752  14.824
39608SOL    HW220658  11.349  14.675  14.813
39609SOL     OW20659   7.016   3.846   8.234
39609SOL    HW120660   6.987   3.754   8.235
39609SOL    HW220661   7.066   3.856   8.315
39610SOL     OW20662  11.881   2.374  12.310
39610SOL    HW120663  11.958   2.396  12.257
39610SOL    HW220664  11.839   2.458  12.328
39611SOL     OW20665  14.703   6.603   2.587
39611SOL    HW120666  14.703   6.562   2.674
39611SOL    HW220667  14.794   6.626   2.572
39612SOL     OW20668  11.713  12.633   5.942
39612SOL    HW120669  11.786  12.589   5.899
39612SOL    HW220670  11.665  12.676   5.871
39613SOL     OW20671   7.717  13.098   4.030
39613SOL    HW120672   7.760  13.069   3.949
39613SOL    HW220673   7.706  13.017   4.081
39614SOL     OW20674   4.695   4.484   4.425
39614SOL    HW120675   4.735   4.507   4.341
39614SOL    HW220676   4.768   4.452   4.478
39615SOL     OW20677  11.523   3.864   6.940
39615SOL    HW120678  11.470   3.787   6.921
39615SOL    HW220679  11.603   3.850   6.889
39616SOL     OW20680   7.812  13.397   0.178
39616SOL    HW120681   7.819  13.324   0.116
39616SOL    HW220682   7.893  13.393   0.229
39617SOL     OW20683   6.920   9.814  10.549
39617SOL    HW120684   6.985   9.823  10.479
39617SOL    HW220685   6.836   9.823  10.505
39618SOL     OW20686  10.236   7.755   6.889
39618SOL    HW120687  10.165   7.693   6.907
39618SOL    HW220688  10.290   7.712   6.823
39619SOL     OW20689   3.248  14.409  14.839
39619SOL    HW120690   3.266  14.441  14.751
39619SOL    HW220691   3.153  14.404  14.845
39620SOL     OW20692  14.194   8.153  13.876
39620SOL    HW120693  14.130   8.157  13.947
39620SOL    HW220694  14.151   8.105  13.806
39621SOL     OW20695   5.998   5.526   5.489
39621SOL    HW120696   6.047   5.443   5.486
39621SOL    HW220697   6.030   5.575   5.413
39622SOL     OW20698   3.220   3.360   0.984
39622SOL    HW120699   3.148   3.370   0.922
39622SOL    HW220700   3.298   3.357   0.930
39623SOL     OW20701   9.117  12.837   2.832
39623SOL    HW120702   9.089  12.800   2.916
39623SOL    HW220703   9.069  12.919   2.825
39624SOL     OW20704   0.255  14.708   8.659
39624SOL    HW120705   0.170  14.748   8.640
39624SOL    HW220706   0.319  14.777   8.641
39625SOL     OW20707   6.189   9.850  10.097
39625SOL    HW120708   6.174   9.836  10.003
39625SOL    HW220709   6.170   9.943  10.110
39626SOL     OW20710   4.196   0.848  11.348
39626SOL    HW120711   4.254   0.795  11.293
39626SOL    HW220712   4.111   0.842  11.305
39627SOL     OW20713   5.716   4.326   9.998
39627SOL    HW120714   5.769   4.280  10.063
39627SOL    HW220715   5.683   4.257   9.940
39628SOL     OW20716   2.890   6.335  11.082
39628SOL    HW120717   2.953   6.377  11.023
39628SOL    HW220718   2.814   6.316  11.028
39629SOL     OW20719  13.819   2.544  13.466
39629SOL    HW120720  13.803   2.638  13.466
39629SOL    HW220721  13.898   2.532  13.518
39630SOL     OW20722   7.551   9.976   9.992
39630SOL    HW120723   7.634  10.013  10.024
39630SOL    HW220724   7.573   9.935   9.908
39631SOL     OW20725   3.223   3.123  11.900
39631SOL    HW120726   3.176   3.206  11.895
39631SOL    HW220727   3.267   3.125  11.984
39632SOL     OW20728   1.907   2.190   2.491
39632SOL    HW120729   1.847   2.255   2.528
39632SOL    HW220730   1.992   2.233   2.491
39633SOL     OW20731   6.293   8.449  14.313
39633SOL    HW120732   6.201   8.462  14.289
39633SOL    HW220733   6.335   8.419  14.233
39634SOL     OW20734   5.969   9.359   3.278
39634SOL    HW120735   6.009   9.442   3.250
39634SOL    HW220736   6.003   9.295   3.216
39635SOL     OW20737   8.448   8.711  12.016
39635SOL    HW120738   8.438   8.617  12.029
39635SOL    HW220739   8.518   8.736  12.077
39636SOL     OW20740   1.509  12.765   7.415
39636SOL    HW120741   1.561  12.845   7.424
39636SOL    HW220742   1.533  12.731   7.329
39637SOL     OW20743   9.126  12.635  12.363
39637SOL    HW120744   9.049  12.678  12.400
39637SOL    HW220745   9.181  12.615  12.439
39638SOL     OW20746   3.552  10.981   0.671
39638SOL    HW120747   3.542  11.074   0.649
39638SOL    HW220748   3.464  10.952   0.693
39639SOL     OW20749   9.237   4.733  11.317
39639SOL    HW120750   9.309   4.741  11.380
39639SOL    HW220751   9.190   4.816  11.324
39640SOL     OW20752   9.843  11.351  11.144
39640SOL    HW120753   9.894  11.402  11.207
39640SOL    HW220754   9.828  11.268  11.189
39641SOL     OW20755  11.552   0.653   2.582
39641SOL    HW120756  11.575   0.722   2.645
39641SOL    HW220757  11.627   0.594   2.582
39642SOL     OW20758   1.361  11.203   7.717
39642SOL    HW120759   1.404  11.288   7.705
39642SOL    HW220760   1.373  11.182   7.809
39643SOL     OW20761  13.134  14.427   7.547
39643SOL    HW120762  13.114  14.342   7.586
39643SOL    HW220763  13.145  14.486   7.621
39644SOL     OW20764   9.842   1.911   7.727
39644SOL    HW120765   9.752   1.921   7.759
39644SOL    HW220766   9.848   1.970   7.652
39645SOL     OW20767   0.864   4.682   9.034
39645SOL    HW120768   0.772   4.656   9.034
39645SOL    HW220769   0.863   4.774   9.010
39646SOL     OW20770   4.830   2.572   8.153
39646SOL    HW120771   4.765   2.528   8.099
39646SOL    HW220772   4.810   2.543   8.243
39647SOL     OW20773   3.908   5.523   1.325
39647SOL    HW120774   3.893   5.452   1.388
39647SOL    HW220775   3.939   5.478   1.246
39648SOL     OW20776   9.325   8.330  14.853
39648SOL    HW120777   9.376   8.396   0.021
39648SOL    HW220778   9.236   8.365  14.853
39649SOL     OW20779  13.485  12.631  13.340
39649SOL    HW120780  13.541  12.708  13.336
39649SOL    HW220781  13.413  12.657  13.398
39650SOL     OW20782   5.015   0.687   0.510
39650SOL    HW120783   5.006   0.619   0.443
39650SOL    HW220784   5.089   0.658   0.564
39651SOL     OW20785  14.054   2.410   7.034
39651SOL    HW120786  14.059   2.480   7.099
39651SOL    HW220787  14.079   2.331   7.082
39652SOL     OW20788   6.044   3.479  13.785
39652SOL    HW120789   6.029   3.548  13.849
39652SOL    HW220790   6.063   3.402  13.837
39653SOL     OW20791   8.641   6.180  14.713
39653SOL    HW120792   8.577   6.144  14.775
39653SOL    HW220793   8.725   6.166  14.756
39654SOL     OW20794   2.984   0.688   8.967
39654SOL    HW120795   2.914   0.623   8.971
39654SOL    HW220796   3.021   0.690   9.055
39655SOL     OW20797  10.858   0.607  14.090
39655SOL    HW120798  10.914   0.673  14.049
39655SOL    HW220799  10.775   0.653  14.106
39656SOL     OW20800  10.215   5.045   2.007
39656SOL    HW120801  10.300   5.031   2.049
39656SOL    HW220802  10.228   5.123   1.953
39657SOL     OW20803  13.451   2.391   8.687
39657SOL    HW120804  13.404   2.376   8.769
39657SOL    HW220805  13.429   2.315   8.633
39658SOL     OW20806  11.971   8.377   0.094
39658SOL    HW120807  11.925   8.457   0.067
39658SOL    HW220808  11.930   8.307   0.044
39659SOL     OW20809   4.862   3.433  11.709
39659SOL    HW120810   4.865   3.516  11.757
39659SOL    HW220811   4.917   3.448  11.632
39660SOL     OW20812  14.083   3.138   4.267
39660SOL    HW120813  14.088   3.161   4.174
39660SOL    HW220814  14.029   3.059   4.269
39661SOL     OW20815   9.515  10.065   3.404
39661SOL    HW120816   9.597  10.071   3.356
39661SOL    HW220817   9.455  10.019   3.345
39662SOL     OW20818   1.495   6.572  13.743
39662SOL    HW120819   1.402   6.589  13.755
39662SOL    HW220820   1.525   6.640  13.683
39663SOL     OW20821   4.691  13.803   6.507
39663SOL    HW120822   4.612  13.824   6.558
39663SOL    HW220823   4.763  13.841   6.557
39664SOL     OW20824   8.940  14.278  12.668
39664SOL    HW120825   8.893  14.234  12.596
39664SOL    HW220826   8.907  14.236  12.747
39665SOL     OW20827   0.249  13.515   2.102
39665SOL    HW120828   0.278  13.510   2.194
39665SOL    HW220829   0.172  13.459   2.098
39666SOL     OW20830  14.120   0.348   6.331
39666SOL    HW120831  14.061   0.397   6.388
39666SOL    HW220832  14.072   0.339   6.249
39667SOL     OW20833   9.102   0.736   7.831
39667SOL    HW120834   9.013   0.767   7.816
39667SOL    HW220835   9.152   0.769   7.756
39668SOL     OW20836   3.856   4.045  11.554
39668SOL    HW120837   3.896   4.055  11.467
39668SOL    HW220838   3.774   3.999  11.537
39669SOL     OW20839   3.735  12.282  10.214
39669SOL    HW120840   3.696  12.323  10.291
39669SOL    HW220841   3.781  12.354  10.170
39670SOL     OW20842   0.475   7.530  11.420
39670SOL    HW120843   0.559   7.547  11.377
39670SOL    HW220844   0.426   7.476  11.358
39671SOL     OW20845  10.844   3.419  13.158
39671SOL    HW120846  10.927   3.375  13.143
39671SOL    HW220847  10.810   3.437  13.070
39672SOL     OW20848   6.688   1.239   8.858
39672SOL    HW120849   6.666   1.152   8.824
39672SOL    HW220850   6.672   1.298   8.785
39673SOL     OW20851   9.678   3.453  12.361
39673SOL    HW120852   9.672   3.540  12.400
39673SOL    HW220853   9.596   3.410  12.387
39674SOL     OW20854   8.020  13.640   2.452
39674SOL    HW120855   8.080  13.670   2.520
39674SOL    HW220856   8.017  13.545   2.463
39675SOL     OW20857   6.030   1.972  11.130
39675SOL    HW120858   6.024   2.061  11.165
39675SOL    HW220859   5.991   1.917  11.198
39676SOL     OW20860   9.249  14.596  11.287
39676SOL    HW120861   9.235  14.622  11.196
39676SOL    HW220862   9.164  14.612  11.329
39677SOL     OW20863   0.163  10.646  10.028
39677SOL    HW120864   0.136  10.738  10.028
39677SOL    HW220865   0.122  10.609   9.950
39678SOL     OW20866   3.286   9.609  12.781
39678SOL    HW120867   3.249   9.688  12.820
39678SOL    HW220868   3.230   9.538  12.813
39679SOL     OW20869  14.682   6.922  10.317
39679SOL    HW120870  14.739   6.998  10.330
39679SOL    HW220871  14.606   6.940  10.372
39680SOL     OW20872  13.589   8.362   0.413
39680SOL    HW120873  13.641   8.282   0.408
39680SOL    HW220874  13.511   8.337   0.463
39681SOL     OW20875   0.768   4.340   2.580
39681SOL    HW120876   0.771   4.435   2.572
39681SOL    HW220877   0.827   4.308   2.512
39682SOL     OW20878   5.669  14.021  10.901
39682SOL    HW120879   5.745  13.967  10.922
39682SOL    HW220880   5.692  14.065  10.819
39683SOL     OW20881   7.376   4.515   6.185
39683SOL    HW120882   7.380   4.430   6.142
39683SOL    HW220883   7.413   4.500   6.272
39684SOL     OW20884   7.915  11.746   5.965
39684SOL    HW120885   7.839  11.751   6.023
39684SOL    HW220886   7.878  11.754   5.877
39685SOL     OW20887   8.648  11.616   3.689
39685SOL    HW120888   8.723  11.575   3.646
39685SOL    HW220889   8.590  11.542   3.710
39686SOL     OW20890  11.798   9.248   9.208
39686SOL    HW120891  11.814   9.327   9.157
39686SOL    HW220892  11.756   9.278   9.288
39687SOL     OW20893  13.004   7.332   0.564
39687SOL    HW120894  12.922   7.383   0.561
39687SOL    HW220895  13.070   7.392   0.529
39688SOL     OW20896  12.118   6.003   8.832
39688SOL    HW120897  12.088   6.091   8.811
39688SOL    HW220898  12.139   6.006   8.925
39689SOL     OW20899   9.097  10.023   4.545
39689SOL    HW120900   9.099   9.929   4.563
39689SOL    HW220901   9.022  10.056   4.594
39690SOL     OW20902   3.641  10.268   5.900
39690SOL    HW120903   3.731  10.297   5.910
39690SOL    HW220904   3.618  10.290   5.809
39691SOL     OW20905  12.792  12.130   1.077
39691SOL    HW120906  12.761  12.079   1.002
39691SOL    HW220907  12.837  12.066   1.133
39692SOL     OW20908  10.298   4.703   0.340
39692SOL    HW120909  10.340   4.786   0.315
39692SOL    HW220910  10.294   4.653   0.259
39693SOL     OW20911  14.827   2.481   0.992
39693SOL    HW120912  14.780   2.551   0.947
39693SOL    HW220913  14.760   2.414   1.008
39694SOL     OW20914   9.059   7.337   3.007
39694SOL    HW120915   8.977   7.385   3.020
39694SOL    HW220916   9.096   7.329   3.095
39695SOL     OW20917   3.575   1.235   1.357
39695SOL    HW120918   3.619   1.260   1.438
39695SOL    HW220919   3.564   1.318   1.309
39696SOL     OW20920   4.458   1.341  14.656
39696SOL    HW120921   4.480   1.400  14.728
39696SOL    HW220922   4.507   1.374  14.581
39697SOL     OW20923  12.198  13.040   1.077
39697SOL    HW120924  12.269  13.013   1.136
39697SOL    HW220925  12.232  13.118   1.033
39698SOL     OW20926  11.038   7.603   3.983
39698SOL    HW120927  11.029   7.697   3.968
39698SOL    HW220928  10.965   7.564   3.934
39699SOL     OW20929   4.567   2.016   7.085
39699SOL    HW120930   4.640   2.063   7.044
39699SOL    HW220931   4.505   2.002   7.014
39700SOL     OW20932   7.467  14.363   3.560
39700SOL    HW120933   7.376  14.392   3.571
39700SOL    HW220934   7.495  14.338   3.648
39701SOL     OW20935   5.143  13.170   3.216
39701SOL    HW120936   5.100  13.086   3.227
39701SOL    HW220937   5.111  13.202   3.132
39702SOL     OW20938   0.113  11.549   1.896
39702SOL    HW120939   0.192  11.593   1.864
39702SOL    HW220940   0.116  11.561   1.991
39703SOL     OW20941   4.572   3.780   6.506
39703SOL    HW120942   4.485   3.742   6.494
39703SOL    HW220943   4.557   3.859   6.557
39704SOL     OW20944   2.807   9.744   4.457
39704SOL    HW120945   2.878   9.760   4.520
39704SOL    HW220946   2.728   9.739   4.511
39705SOL     OW20947   2.937   5.496   9.625
39705SOL    HW120948   2.981   5.570   9.584
39705SOL    HW220949   3.008   5.441   9.658
39706SOL     OW20950   3.330   9.463  10.083
39706SOL    HW120951   3.396   9.432  10.021
39706SOL    HW220952   3.379   9.514  10.147
39707SOL     OW20953  13.489   8.051  12.172
39707SOL    HW120954  13.577   8.013  12.173
39707SOL    HW220955  13.431   7.976  12.161
39708SOL     OW20956  10.506   4.618   2.628
39708SOL    HW120957  10.464   4.650   2.709
39708SOL    HW220958  10.433   4.587   2.575
39709SOL     OW20959   1.037   6.819   3.090
39709SOL    HW120960   1.004   6.904   3.120
39709SOL    HW220961   1.112   6.841   3.035
39710SOL     OW20962   6.203   0.935  13.235
39710SOL    HW120963   6.269   0.870  13.260
39710SOL    HW220964   6.120   0.897  13.265
39711SOL     OW20965   6.498  13.601  13.580
39711SOL    HW120966   6.417  13.637  13.544
39711SOL    HW220967   6.525  13.664  13.646
39712SOL     OW20968   6.970   6.976  13.653
39712SOL    HW120969   7.043   7.034  13.673
39712SOL    HW220970   6.935   7.010  13.570
39713SOL     OW20971   2.458  10.486   4.823
39713SOL    HW120972   2.382  10.472   4.879
39713SOL    HW220973   2.433  10.447   4.739
39714SOL     OW20974   6.119   3.309  14.591
39714SOL    HW120975   6.203   3.299  14.635
39714SOL    HW220976   6.109   3.228  14.540
39715SOL     OW20977  12.743  11.503  11.760
39715SOL    HW120978  12.750  11.554  11.841
39715SOL    HW220979  12.702  11.563  11.698
39716SOL     OW20980   3.498   2.061  10.826
39716SOL    HW120981   3.405   2.043  10.813
39716SOL    HW220982   3.518   2.026  10.913
39717SOL     OW20983   4.092   8.349   3.115
39717SOL    HW120984   4.035   8.296   3.169
39717SOL    HW220985   4.169   8.365   3.169
39718SOL     OW20986   6.949   2.935   7.661
39718SOL    HW120987   6.965   2.886   7.742
39718SOL    HW220988   6.975   2.874   7.591
39719SOL     OW20989   8.781   7.748   4.373
39719SOL    HW120990   8.830   7.724   4.452
39719SOL    HW220991   8.696   7.778   4.405
39720SOL     OW20992   9.282   1.141   2.674
39720SOL    HW120993   9.260   1.079   2.605
39720SOL    HW220994   9.370   1.171   2.652
39721SOL     OW20995   0.921  10.618   0.205
39721SOL    HW120996   0.940  10.527   0.182
39721SOL    HW220997   0.882  10.655   0.126
39722SOL     OW20998   4.124   4.392   7.891
39722SOL    HW120999   4.130   4.432   7.804
39722SOL    HW221000   4.036   4.356   7.895
39723SOL     OW21001   5.685   3.559   9.365
39723SOL    HW121002   5.683   3.653   9.383
39723SOL    HW221003   5.660   3.518   9.448
39724SOL     OW21004   5.459  14.777  11.617
39724SOL    HW121005   5.473  14.857  11.668
39724SOL    HW221006   5.393  14.728  11.667
39725SOL     OW21007   1.724   5.345   3.074
39725SOL    HW121008   1.750   5.425   3.118
39725SOL    HW221009   1.631   5.358   3.053
39726SOL     OW21010  10.617   8.973   3.025
39726SOL    HW121011  10.664   8.903   3.069
39726SOL    HW221012  10.683   9.040   3.006
39727SOL     OW21013   8.062   8.834  12.982
39727SOL    HW121014   7.986   8.854  12.928
39727SOL    HW221015   8.137   8.844  12.923
39728SOL     OW21016   8.055   9.373   7.693
39728SOL    HW121017   8.055   9.344   7.784
39728SOL    HW221018   8.010   9.458   7.696
39729SOL     OW21019  11.642   8.458   2.256
39729SOL    HW121020  11.669   8.530   2.313
39729SOL    HW221021  11.552   8.439   2.282
39730SOL     OW21022   1.850   7.370  14.464
39730SOL    HW121023   1.788   7.395  14.532
39730SOL    HW221024   1.819   7.284  14.434
39731SOL     OW21025  10.717  10.282   4.264
39731SOL    HW121026  10.655  10.237   4.321
39731SOL    HW221027  10.701  10.376   4.279
39732SOL     OW21028   3.010  14.830   5.226
39732SOL    HW121029   3.099  14.863   5.236
39732SOL    HW221030   3.018  14.755   5.167
39733SOL     OW21031   5.072  14.386  14.590
39733SOL    HW121032   5.074  14.377  14.686
39733SOL    HW221033   5.159  14.420  14.567
39734SOL     OW21034   5.113   3.904   1.276
39734SOL    HW121035   5.160   3.970   1.225
39734SOL    HW221036   5.157   3.904   1.361
39735SOL     OW21037   2.679   8.174   2.644
39735SOL    HW121038   2.746   8.151   2.580
39735SOL    HW221039   2.647   8.091   2.677
39736SOL     OW21040  10.163   2.309  14.216
39736SOL    HW121041  10.128   2.343  14.298
39736SOL    HW221042  10.107   2.347  14.148
39737SOL     OW21043   3.302   8.829  12.949
39737SOL    HW121044   3.233   8.862  12.892
39737SOL    HW221045   3.363   8.786  12.890
39738SOL     OW21046   0.712   2.986   9.198
39738SOL    HW121047   0.765   2.957   9.123
39738SOL    HW221048   0.630   3.017   9.159
39739SOL     OW21049  13.887   5.674  12.622
39739SOL    HW121050  13.959   5.621  12.588
39739SOL    HW221051  13.843   5.708  12.545
39740SOL     OW21052   9.069  10.461   7.998
39740SOL    HW121053   9.070  10.506   7.913
39740SOL    HW221054   9.153  10.416   8.002
39741SOL     OW21055   4.525  14.569  11.734
39741SOL    HW121056   4.552  14.626  11.662
39741SOL    HW221057   4.607  14.541  11.774
39742SOL     OW21058  10.743   7.749   2.727
39742SOL    HW121059  10.758   7.658   2.753
39742SOL    HW221060  10.657   7.748   2.684
39743SOL     OW21061  13.325  11.628   3.418
39743SOL    HW121062  13.317  11.658   3.328
39743SOL    HW221063  13.236  11.605   3.444
39744SOL     OW21064   7.121   6.444   4.080
39744SOL    HW121065   7.062   6.516   4.104
39744SOL    HW221066   7.184   6.440   4.152
39745SOL     OW21067  11.610   4.562  14.450
39745SOL    HW121068  11.594   4.514  14.369
39745SOL    HW221069  11.642   4.496  14.512
39746SOL     OW21070  14.634   5.251   0.000
39746SOL    HW121071  14.706   5.306   0.030
39746SOL    HW221072  14.559   5.279   0.053
39747SOL     OW21073   7.930  13.252   5.041
39747SOL    HW121074   7.954  13.294   4.958
39747SOL    HW221075   7.841  13.218   5.025
39748SOL     OW21076   7.869   3.460  12.853
39748SOL    HW121077   7.799   3.400  12.828
39748SOL    HW221078   7.916   3.477  12.772
39749SOL     OW21079   1.090  12.456   0.081
39749SOL    HW121080   1.046  12.452  14.875
39749SOL    HW221081   1.119  12.367   0.098
39750SOL     OW21082   1.820   3.784  12.428
39750SOL    HW121083   1.759   3.801  12.499
39750SOL    HW221084   1.848   3.693  12.440
39751SOL     OW21085   4.269  10.100   8.380
39751SOL    HW121086   4.259  10.102   8.285
39751SOL    HW221087   4.298  10.010   8.398
39752SOL     OW21088  11.126   0.373  10.025
39752SOL    HW121089  11.114   0.448   9.967
39752SOL    HW221090  11.047   0.371  10.078
39753SOL     OW21091  12.496  14.034   6.626
39753SOL    HW121092  12.494  14.122   6.663
39753SOL    HW221093  12.457  13.978   6.694
39754SOL     OW21094  12.995   6.189  12.131
39754SOL    HW121095  12.932   6.261  12.136
39754SOL    HW221096  13.044   6.206  12.050
39755SOL     OW21097  13.378   9.900   2.009
39755SOL    HW121098  13.347   9.956   2.081
39755SOL    HW221099  13.303   9.843   1.991
39756SOL     OW21100   5.476  10.114   6.021
39756SOL    HW121101   5.569  10.100   6.039
39756SOL    HW221102   5.460  10.066   5.940
39757SOL     OW21103  13.665  12.689   6.672
39757SOL    HW121104  13.571  12.705   6.678
39757SOL    HW221105  13.705  12.773   6.694
39758SOL     OW21106   5.076   7.379   9.019
39758SOL    HW121107   5.015   7.449   8.994
39758SOL    HW221108   5.161   7.423   9.022
39759SOL     OW21109   5.541  12.475   3.523
39759SOL    HW121110   5.501  12.466   3.436
39759SOL    HW221111   5.635  12.480   3.506
39760SOL     OW21112   1.371   6.007   0.968
39760SOL    HW121113   1.279   5.993   0.994
39760SOL    HW221114   1.394   5.927   0.920
39761SOL     OW21115   8.868   6.893  12.449
39761SOL    HW121116   8.922   6.920  12.374
39761SOL    HW221117   8.930   6.857  12.512
39762SOL     OW21118   3.113   9.148   9.711
39762SOL    HW121119   3.027   9.185   9.731
39762SOL    HW221120   3.158   9.146   9.796
39763SOL     OW21121   3.734   1.967  13.253
39763SOL    HW121122   3.693   1.998  13.334
39763SOL    HW221123   3.716   2.035  13.189
39764SOL     OW21124  11.195  14.338   4.924
39764SOL    HW121125  11.280  14.369   4.954
39764SOL    HW221126  11.161  14.409   4.868
39765SOL     OW21127   7.206   1.589   6.533
39765SOL    HW121128   7.172   1.548   6.454
39765SOL    HW221129   7.208   1.519   6.598
39766SOL     OW21130   0.572   2.034   7.980
39766SOL    HW121131   0.586   2.021   8.073
39766SOL    HW221132   0.500   1.975   7.958
39767SOL     OW21133  14.086  14.846  11.752
39767SOL    HW121134  14.024  14.871  11.820
39767SOL    HW221135  14.088   0.042  11.693
39768SOL     OW21136  12.661   0.671  11.308
39768SOL    HW121137  12.652   0.751  11.359
39768SOL    HW221138  12.619   0.603  11.361
39769SOL     OW21139  13.619  13.083  10.002
39769SOL    HW121140  13.537  13.110  10.043
39769SOL    HW221141  13.608  12.990   9.985
39770SOL     OW21142  13.988   7.989   7.346
39770SOL    HW121143  13.934   7.914   7.372
39770SOL    HW221144  14.017   8.028   7.429
39771SOL     OW21145  13.661   6.305   4.886
39771SOL    HW121146  13.657   6.344   4.799
39771SOL    HW221147  13.751   6.273   4.893
39772SOL     OW21148   6.865   3.035  13.338
39772SOL    HW121149   6.838   3.009  13.250
39772SOL    HW221150   6.859   2.955  13.390
39773SOL     OW21151  11.792  14.486  13.680
39773SOL    HW121152  11.733  14.411  13.670
39773SOL    HW221153  11.804  14.519  13.591
39774SOL     OW21154   8.461   1.407   0.333
39774SOL    HW121155   8.515   1.381   0.407
39774SOL    HW221156   8.418   1.488   0.363
39775SOL     OW21157  14.405  10.795   5.431
39775SOL    HW121158  14.320  10.768   5.397
39775SOL    HW221159  14.468  10.762   5.366
39776SOL     OW21160  11.714   1.794   6.061
39776SOL    HW121161  11.637   1.737   6.061
39776SOL    HW221162  11.773   1.755   6.126
39777SOL     OW21163   6.964   6.254  12.965
39777SOL    HW121164   6.969   6.161  12.988
39777SOL    HW221165   7.055   6.284  12.972
39778SOL     OW21166   5.124  12.546  10.419
39778SOL    HW121167   5.114  12.502  10.504
39778SOL    HW221168   5.064  12.498  10.362
39779SOL     OW21169   7.605  14.187   1.775
39779SOL    HW121170   7.680  14.130   1.790
39779SOL    HW221171   7.580  14.218   1.862
39780SOL     OW21172   5.541   0.986  11.292
39780SOL    HW121173   5.595   0.959  11.218
39780SOL    HW221174   5.601   1.026  11.354
39781SOL     OW21175  12.848   8.272   3.802
39781SOL    HW121176  12.781   8.297   3.866
39781SOL    HW221177  12.800   8.261   3.720
39782SOL     OW21178  14.450  10.733   3.287
39782SOL    HW121179  14.445  10.697   3.375
39782SOL    HW221180  14.373  10.697   3.242
39783SOL     OW21181   9.979   9.473   6.783
39783SOL    HW121182  10.031   9.400   6.818
39783SOL    HW221183   9.889   9.449   6.801
39784SOL     OW21184   9.671  10.868   3.554
39784SOL    HW121185   9.608  10.911   3.612
39784SOL    HW221186   9.690  10.785   3.597
39785SOL     OW21187  11.099   1.468   8.781
39785SOL    HW121188  11.102   1.561   8.803
39785SOL    HW221189  11.023   1.459   8.723
39786SOL     OW21190   3.235   6.978   7.065
39786SOL    HW121191   3.231   7.047   6.999
39786SOL    HW221192   3.299   7.009   7.129
39787SOL     OW21193  10.629  12.867   1.491
39787SOL    HW121194  10.688  12.935   1.458
39787SOL    HW221195  10.541  12.906   1.483
39788SOL     OW21196  11.940   3.236   9.759
39788SOL    HW121197  11.894   3.176   9.701
39788SOL    HW221198  11.875   3.262   9.825
39789SOL     OW21199   2.294  11.532   8.137
39789SOL    HW121200   2.282  11.495   8.049
39789SOL    HW221201   2.376  11.582   8.131
39790SOL     OW21202   8.150   4.598   9.934
39790SOL    HW121203   8.117   4.531   9.874
39790SOL    HW221204   8.171   4.673   9.877
39791SOL     OW21205   1.477   1.967  11.662
39791SOL    HW121206   1.512   2.001  11.745
39791SOL    HW221207   1.453   1.877  11.682
39792SOL     OW21208  14.182   1.098  14.208
39792SOL    HW121209  14.220   1.025  14.158
39792SOL    HW221210  14.136   1.056  14.280
39793SOL     OW21211   5.701   2.184   8.705
39793SOL    HW121212   5.766   2.254   8.714
39793SOL    HW221213   5.729   2.117   8.767
39794SOL     OW21214  13.498   4.203   6.752
39794SOL    HW121215  13.473   4.266   6.820
39794SOL    HW221216  13.432   4.213   6.684
39795SOL     OW21217   9.068   4.492   3.338
39795SOL    HW121218   9.065   4.419   3.276
39795SOL    HW221219   9.102   4.454   3.419
39796SOL     OW21220   7.720   1.094  11.805
39796SOL    HW121221   7.729   1.062  11.715
39796SOL    HW221222   7.713   1.189  11.795
39797SOL     OW21223   0.819   5.659   8.139
39797SOL    HW121224   0.873   5.606   8.197
39797SOL    HW221225   0.875   5.676   8.063
39798SOL     OW21226   5.626  12.384  10.703
39798SOL    HW121227   5.621  12.479  10.688
39798SOL    HW221228   5.568  12.346  10.637
39799SOL     OW21229   9.286  10.131   5.308
39799SOL    HW121230   9.310  10.076   5.383
39799SOL    HW221231   9.332  10.093   5.234
39800SOL     OW21232   5.958   5.393   0.935
39800SOL    HW121233   5.884   5.406   0.995
39800SOL    HW221234   5.920   5.350   0.859
39801SOL     OW21235   1.203   6.785   4.268
39801SOL    HW121236   1.287   6.740   4.273
39801SOL    HW221237   1.201   6.824   4.181
39802SOL     OW21238   6.551  12.752  11.296
39802SOL    HW121239   6.555  12.673  11.351
39802SOL    HW221240   6.459  12.777  11.296
39803SOL     OW21241  11.679   2.913  10.317
39803SOL    HW121242  11.692   2.820  10.336
39803SOL    HW221243  11.720   2.958  10.392
39804SOL     OW21244   1.279  14.071   4.610
39804SOL    HW121245   1.229  14.080   4.691
39804SOL    HW221246   1.236  13.999   4.563
39805SOL     OW21247   9.450  13.825  14.650
39805SOL    HW121248   9.486  13.913  14.664
39805SOL    HW221249   9.525  13.773  14.621
39806SOL     OW21250   6.457  10.746  10.325
39806SOL    HW121251   6.498  10.778  10.244
39806SOL    HW221252   6.395  10.679  10.295
39807SOL     OW21253   1.808  11.759   1.168
39807SOL    HW121254   1.735  11.817   1.189
39807SOL    HW221255   1.846  11.797   1.088
39808SOL     OW21256   8.911  13.921   6.800
39808SOL    HW121257   8.858  14.000   6.814
39808SOL    HW221258   8.947  13.931   6.713
39809SOL     OW21259   7.145   7.869   5.089
39809SOL    HW121260   7.154   7.839   4.999
39809SOL    HW221261   7.135   7.789   5.141
39810SOL     OW21262  13.387   5.144   2.055
39810SOL    HW121263  13.387   5.190   1.971
39810SOL    HW221264  13.467   5.091   2.053
39811SOL     OW21265   1.174   9.264   6.490
39811SOL    HW121266   1.103   9.283   6.428
39811SOL    HW221267   1.138   9.196   6.547
39812SOL     OW21268   3.476  14.708  12.305
39812SOL    HW121269   3.464  14.680  12.215
39812SOL    HW221270   3.434  14.640  12.357
39813SOL     OW21271  13.589   5.040   9.130
39813SOL    HW121272  13.511   4.989   9.110
39813SOL    HW221273  13.557   5.113   9.184
39814SOL     OW21274   7.522   0.430   1.911
39814SOL    HW121275   7.500   0.363   1.846
39814SOL    HW221276   7.449   0.427   1.973
39815SOL     OW21277  13.035   1.997   4.233
39815SOL    HW121278  13.094   2.072   4.229
39815SOL    HW221279  12.947   2.036   4.231
39816SOL     OW21280  11.170  13.918   7.049
39816SOL    HW121281  11.079  13.897   7.067
39816SOL    HW221282  11.188  13.995   7.103
39817SOL     OW21283  12.596   6.455   6.476
39817SOL    HW121284  12.654   6.418   6.543
39817SOL    HW221285  12.549   6.525   6.521
39818SOL     OW21286   0.353  11.555   3.336
39818SOL    HW121287   0.293  11.630   3.344
39818SOL    HW221288   0.295  11.479   3.328
39819SOL     OW21289   3.466   5.062  10.438
39819SOL    HW121290   3.388   5.042  10.387
39819SOL    HW221291   3.472   5.158  10.438
39820SOL     OW21292   2.259  14.084   8.493
39820SOL    HW121293   2.292  14.159   8.543
39820SOL    HW221294   2.289  14.008   8.542
39821SOL     OW21295   6.915   1.850   1.138
39821SOL    HW121296   6.875   1.853   1.225
39821SOL    HW221297   6.977   1.777   1.143
39822SOL     OW21298   8.886   9.905   6.011
39822SOL    HW121299   8.823   9.975   5.998
39822SOL    HW221300   8.968   9.949   6.033
39823SOL     OW21301   2.114   0.092   3.545
39823SOL    HW121302   2.041   0.152   3.562
39823SOL    HW221303   2.108   0.073   3.452
39824SOL     OW21304  11.357  12.151   1.541
39824SOL    HW121305  11.387  12.112   1.623
39824SOL    HW221306  11.359  12.079   1.478
39825SOL     OW21307  10.508   5.646   7.483
39825SOL    HW121308  10.603   5.652   7.493
39825SOL    HW221309  10.495   5.597   7.402
39826SOL     OW21310   6.821   9.522   2.962
39826SOL    HW121311   6.818   9.617   2.974
39826SOL    HW221312   6.745   9.502   2.908
39827SOL     OW21313   3.428  12.034   1.545
39827SOL    HW121314   3.408  12.041   1.638
39827SOL    HW221315   3.469  12.118   1.523
39828SOL     OW21316  11.248  14.491   4.133
39828SOL    HW121317  11.202  14.437   4.069
39828SOL    HW221318  11.201  14.476   4.216
39829SOL     OW21319   6.092   2.578   0.149
39829SOL    HW121320   6.002   2.605   0.129
39829SOL    HW221321   6.106   2.501   0.092
39830SOL     OW21322  11.269  10.196   3.929
39830SOL    HW121323  11.262  10.253   3.853
39830SOL    HW221324  11.220  10.241   3.998
39831SOL     OW21325   0.254   5.749   4.038
39831SOL    HW121326   0.241   5.739   4.132
39831SOL    HW221327   0.332   5.805   4.030
39832SOL     OW21328  11.794  11.059   3.575
39832SOL    HW121329  11.749  10.993   3.627
39832SOL    HW221330  11.855  11.100   3.636
39833SOL     OW21331  14.166  12.463  12.664
39833SOL    HW121332  14.099  12.521  12.702
39833SOL    HW221333  14.247  12.513  12.672
39834SOL     OW21334   2.123   2.401   8.801
39834SOL    HW121335   2.193   2.457   8.835
39834SOL    HW221336   2.094   2.350   8.876
39835SOL     OW21337  10.909  12.159   2.843
39835SOL    HW121338  10.882  12.068   2.830
39835SOL    HW221339  10.829  12.210   2.828
39836SOL     OW21340  13.905   6.964   4.416
39836SOL    HW121341  13.897   7.039   4.357
39836SOL    HW221342  13.999   6.956   4.432
39837SOL     OW21343   6.677   3.210   5.029
39837SOL    HW121344   6.598   3.163   5.006
39837SOL    HW221345   6.664   3.236   5.120
39838SOL     OW21346   7.457  10.582  13.335
39838SOL    HW121347   7.542  10.586  13.290
39838SOL    HW221348   7.394  10.609  13.269
39839SOL     OW21349  13.057   2.830   8.087
39839SOL    HW121350  13.118   2.767   8.048
39839SOL    HW221351  13.104   2.865   8.162
39840SOL     OW21352  14.547   8.220   3.360
39840SOL    HW121353  14.532   8.290   3.296
39840SOL    HW221354  14.494   8.245   3.436
39841SOL     OW21355  11.468  11.393   8.069
39841SOL    HW121356  11.516  11.312   8.083
39841SOL    HW221357  11.377  11.365   8.056
39842SOL     OW21358  10.520  14.233   8.286
39842SOL    HW121359  10.579  14.169   8.246
39842SOL    HW221360  10.468  14.266   8.212
39843SOL     OW21361   6.712   9.686   1.295
39843SOL    HW121362   6.714   9.590   1.303
39843SOL    HW221363   6.666   9.702   1.212
39844SOL     OW21364   8.391   5.072   0.999
39844SOL    HW121365   8.471   5.117   0.974
39844SOL    HW221366   8.396   5.066   1.095
39845SOL     OW21367  13.116   6.826  10.232
39845SOL    HW121368  13.032   6.782  10.216
39845SOL    HW221369  13.138   6.867  10.148
39846SOL     OW21370   9.360   0.931   4.039
39846SOL    HW121371   9.286   0.894   4.088
39846SOL    HW221372   9.359   0.883   3.956
39847SOL     OW21373   5.360  13.296   6.930
39847SOL    HW121374   5.366  13.276   6.836
39847SOL    HW221375   5.274  13.265   6.956
39848SOL     OW21376   0.838  11.388   7.958
39848SOL    HW121377   0.776  11.335   7.909
39848SOL    HW221378   0.798  11.475   7.964
39849SOL     OW21379  12.759  12.424   4.270
39849SOL    HW121380  12.826  12.488   4.243
39849SOL    HW221381  12.745  12.443   4.363
39850SOL     OW21382   9.795   5.817   4.227
39850SOL    HW121383   9.724   5.855   4.279
39850SOL    HW221384   9.857   5.890   4.216
39851SOL     OW21385   3.550  11.100   5.476
39851SOL    HW121386   3.618  11.037   5.452
39851SOL    HW221387   3.538  11.154   5.398
39852SOL     OW21388  10.947   3.807   9.130
39852SOL    HW121389  10.894   3.883   9.106
39852SOL    HW221390  10.909   3.735   9.080
39853SOL     OW21391   1.989   4.857  12.504
39853SOL    HW121392   2.032   4.816  12.429
39853SOL    HW221393   1.988   4.789  12.571
39854SOL     OW21394  12.254  10.157   1.957
39854SOL    HW121395  12.234  10.128   2.046
39854SOL    HW221396  12.306  10.236   1.969
39855SOL     OW21397  11.293  14.838  12.461
39855SOL    HW121398  11.239   0.027  12.419
39855SOL    HW221399  11.357  14.815  12.394
39856SOL     OW21400  12.478  10.092  14.709
39856SOL    HW121401  12.551  10.153  14.700
39856SOL    HW221402  12.515  10.019  14.760
39857SOL     OW21403   8.391   9.040   2.083
39857SOL    HW121404   8.396   9.108   2.150
39857SOL    HW221405   8.384   8.958   2.132
39858SOL     OW21406   5.224  12.650  14.140
39858SOL    HW121407   5.301  12.699  14.110
39858SOL    HW221408   5.247  12.558  14.123
39859SOL     OW21409  14.559   7.130  11.008
39859SOL    HW121410  14.618   7.150  11.080
39859SOL    HW221411  14.608   7.067  10.954
39860SOL     OW21412  12.371  13.392  13.229
39860SOL    HW121413  12.284  13.352  13.234
39860SOL    HW221414  12.353  13.486  13.220
39861SOL     OW21415   9.870  11.479   0.559
39861SOL    HW121416   9.857  11.496   0.652
39861SOL    HW221417   9.782  11.474   0.523
39862SOL     OW21418   2.306   3.339   2.322
39862SOL    HW121419   2.386   3.294   2.295
39862SOL    HW221420   2.308   3.336   2.418
39863SOL     OW21421   9.980  11.787   3.995
39863SOL    HW121422   9.915  11.857   4.009
39863SOL    HW221423   9.968  11.729   4.069
39864SOL     OW21424  12.691   7.604   6.779
39864SOL    HW121425  12.716   7.532   6.837
39864SOL    HW221426  12.633   7.563   6.714
39865SOL     OW21427   8.193   0.484   4.631
39865SOL    HW121428   8.271   0.491   4.576
39865SOL    HW221429   8.125   0.531   4.583
39866SOL     OW21430   9.319   0.548  11.786
39866SOL    HW121431   9.316   0.628  11.838
39866SOL    HW221432   9.340   0.578  11.697
39867SOL     OW21433   1.679   6.849   1.843
39867SOL    HW121434   1.672   6.943   1.824
39867SOL    HW221435   1.773   6.835   1.855
39868SOL     OW21436  12.395   6.137   4.476
39868SOL    HW121437  12.430   6.134   4.564
39868SOL    HW221438  12.311   6.091   4.482
39869SOL     OW21439  10.349   8.323   5.002
39869SOL    HW121440  10.360   8.228   5.012
39869SOL    HW221441  10.420   8.361   5.055
39870SOL     OW21442  10.279  10.705   3.284
39870SOL    HW121443  10.279  10.644   3.210
39870SOL    HW221444  10.186  10.714   3.307
39871SOL     OW21445   3.163  13.787  12.331
39871SOL    HW121446   3.247  13.825  12.304
39871SOL    HW221447   3.130  13.848  12.398
39872SOL     OW21448   5.149   2.381  10.446
39872SOL    HW121449   5.236   2.371  10.408
39872SOL    HW221450   5.137   2.476  10.454
39873SOL     OW21451  14.222   6.925  13.178
39873SOL    HW121452  14.178   6.839  13.180
39873SOL    HW221453  14.230   6.946  13.085
39874SOL     OW21454  12.398   2.353   2.036
39874SOL    HW121455  12.445   2.330   1.956
39874SOL    HW221456  12.308   2.325   2.020
39875SOL     OW21457   6.231  14.571   1.821
39875SOL    HW121458   6.247  14.664   1.833
39875SOL    HW221459   6.317  14.533   1.804
39876SOL     OW21460  14.606   2.773   7.858
39876SOL    HW121461  14.553   2.846   7.890
39876SOL    HW221462  14.694   2.810   7.846
39877SOL     OW21463  14.046   7.565   7.689
39877SOL    HW121464  13.976   7.594   7.747
39877SOL    HW221465  14.016   7.479   7.657
39878SOL     OW21466   5.631  10.713  14.834
39878SOL    HW121467   5.723  10.687  14.843
39878SOL    HW221468   5.583  10.648   0.006
39879SOL     OW21469   8.155   9.444  11.877
39879SOL    HW121470   8.078   9.501  11.882
39879SOL    HW221471   8.228   9.503  11.861
39880SOL     OW21472  10.806   8.806   9.662
39880SOL    HW121473  10.719   8.836   9.690
39880SOL    HW221474  10.791   8.764   9.577
39881SOL     OW21475  12.863   0.310   8.035
39881SOL    HW121476  12.949   0.283   8.069
39881SOL    HW221477  12.874   0.403   8.015
39882SOL     OW21478   0.022   7.223   4.086
39882SOL    HW121479   0.092   7.219   4.151
39882SOL    HW221480  14.821   7.230   4.138
39883SOL     OW21481  11.316   3.139  13.372
39883SOL    HW121482  11.377   3.192  13.321
39883SOL    HW221483  11.361   3.056  13.385
39884SOL     OW21484   9.131   5.716   5.156
39884SOL    HW121485   9.120   5.735   5.062
39884SOL    HW221486   9.187   5.639   5.159
39885SOL     OW21487  12.266   0.258  14.551
39885SOL    HW121488  12.289   0.233  14.641
39885SOL    HW221489  12.280   0.353  14.549
39886SOL     OW21490  10.205   0.024   7.840
39886SOL    HW121491  10.282  14.875   7.890
39886SOL    HW221492  10.148   0.065   7.905
39887SOL     OW21493   6.447  10.973  13.648
39887SOL    HW121494   6.391  10.940  13.578
39887SOL    HW221495   6.387  10.996  13.718
39888SOL     OW21496   0.088  12.902   1.734
39888SOL    HW121497   0.064  12.948   1.653
39888SOL    HW221498   0.004  12.884   1.776
39889SOL     OW21499  14.060   1.124   5.984
39889SOL    HW121500  14.055   1.206   5.935
39889SOL    HW221501  14.120   1.069   5.934
39890SOL     OW21502  14.098   8.271   2.049
39890SOL    HW121503  14.169   8.301   1.992
39890SOL    HW221504  14.087   8.342   2.112
39891SOL     OW21505   7.787   5.336   2.844
39891SOL    HW121506   7.819   5.352   2.755
39891SOL    HW221507   7.858   5.366   2.901
39892SOL     OW21508  10.731   9.005   4.244
39892SOL    HW121509  10.687   9.041   4.321
39892SOL    HW221510  10.728   8.911   4.257
39893SOL     OW21511   1.682   2.958  14.552
39893SOL    HW121512   1.680   2.873  14.594
39893SOL    HW221513   1.663   2.940  14.460
39894SOL     OW21514  12.243   7.325   5.536
39894SOL    HW121515  12.325   7.316   5.584
39894SOL    HW221516  12.260   7.281   5.453
39895SOL     OW21517   1.175   1.675   3.597
39895SOL    HW121518   1.157   1.585   3.625
39895SOL    HW221519   1.232   1.666   3.521
39896SOL     OW21520   5.255   6.459  10.151
39896SOL    HW121521   5.211   6.381  10.185
39896SOL    HW221522   5.309   6.490  10.224
39897SOL     OW21523   1.788   2.827  10.010
39897SOL    HW121524   1.800   2.733  10.001
39897SOL    HW221525   1.877   2.863  10.007
39898SOL     OW21526   2.267   0.554   6.151
39898SOL    HW121527   2.286   0.634   6.200
39898SOL    HW221528   2.289   0.483   6.211
39899SOL     OW21529  12.493   4.086  12.644
39899SOL    HW121530  12.568   4.096  12.701
39899SOL    HW221531  12.530   4.058  12.560
39900SOL     OW21532   5.124  13.699   4.016
39900SOL    HW121533   5.078  13.690   3.933
39900SOL    HW221534   5.108  13.617   4.062
39901SOL     OW21535   8.920   6.093   1.966
39901SOL    HW121536   8.982   6.159   1.996
39901SOL    HW221537   8.964   6.009   1.982
39902SOL     OW21538   8.015   5.809   7.196
39902SOL    HW121539   7.933   5.812   7.147
39902SOL    HW221540   8.054   5.895   7.184
39903SOL     OW21541   8.476  10.209   9.821
39903SOL    HW121542   8.386  10.214   9.851
39903SOL    HW221543   8.470  10.187   9.728
39904SOL     OW21544   0.347  10.931   5.800
39904SOL    HW121545   0.328  10.907   5.709
39904SOL    HW221546   0.360  10.847   5.844
39905SOL     OW21547  10.137   7.119   7.467
39905SOL    HW121548  10.174   7.037   7.435
39905SOL    HW221549  10.193   7.187   7.428
39906SOL     OW21550   0.842   6.979  14.851
39906SOL    HW121551   0.787   6.938   0.039
39906SOL    HW221552   0.780   7.013  14.787
39907SOL     OW21553   5.253  11.244   4.096
39907SOL    HW121554   5.345  11.216   4.094
39907SOL    HW221555   5.204  11.163   4.110
39908SOL     OW21556   0.339   3.804   4.444
39908SOL    HW121557   0.243   3.807   4.448
39908SOL    HW221558   0.366   3.893   4.466
39909SOL     OW21559   7.590   9.054  14.743
39909SOL    HW121560   7.642   9.113  14.799
39909SOL    HW221561   7.539   9.113  14.688
39910SOL     OW21562   5.791   9.088   1.130
39910SOL    HW121563   5.842   9.159   1.090
39910SOL    HW221564   5.705   9.094   1.088
39911SOL     OW21565   7.154  12.883  13.957
39911SOL    HW121566   7.072  12.869  14.003
39911SOL    HW221567   7.131  12.877  13.864
39912SOL     OW21568   9.182   2.894  11.473
39912SOL    HW121569   9.195   2.814  11.523
39912SOL    HW221570   9.088   2.908  11.473
39913SOL     OW21571   6.778   5.082   8.472
39913SOL    HW121572   6.802   5.126   8.390
39913SOL    HW221573   6.791   5.149   8.539
39914SOL     OW21574   2.858   6.376   7.167
39914SOL    HW121575   2.804   6.453   7.153
39914SOL    HW221576   2.947   6.406   7.147
39915SOL     OW21577  12.510   9.451  10.750
39915SOL    HW121578  12.520   9.411  10.663
39915SOL    HW221579  12.568   9.527  10.747
39916SOL     OW21580  13.172   3.062   5.841
39916SOL    HW121581  13.241   3.047   5.776
39916SOL    HW221582  13.218   3.094   5.918
39917SOL     OW21583  13.907   9.390   5.963
39917SOL    HW121584  13.966   9.323   5.998
39917SOL    HW221585  13.951   9.420   5.883
39918SOL     OW21586  13.474   6.825  11.506
39918SOL    HW121587  13.470   6.846  11.413
39918SOL    HW221588  13.561   6.857  11.533
39919SOL     OW21589   4.529   3.031   5.716
39919SOL    HW121590   4.508   3.123   5.731
39919SOL    HW221591   4.613   3.018   5.760
39920SOL     OW21592   4.703   0.617   0.890
39920SOL    HW121593   4.680   0.669   0.813
39920SOL    HW221594   4.796   0.635   0.905
39921SOL     OW21595   7.989  11.185  14.073
39921SOL    HW121596   7.912  11.243  14.076
39921SOL    HW221597   7.998  11.164  13.980
39922SOL     OW21598   5.860   0.433  11.622
39922SOL    HW121599   5.805   0.357  11.637
39922SOL    HW221600   5.946   0.408  11.658
39923SOL     OW21601   4.596  12.077  14.683
39923SOL    HW121602   4.649  12.156  14.696
39923SOL    HW221603   4.613  12.023  14.760
39924SOL     OW21604   7.559   2.163  12.784
39924SOL    HW121605   7.508   2.242  12.799
39924SOL    HW221606   7.513   2.118  12.713
39925SOL     OW21607   1.760  12.314   8.311
39925SOL    HW121608   1.672  12.324   8.347
39925SOL    HW221609   1.761  12.371   8.233
39926SOL     OW21610   5.243  14.426   7.253
39926SOL    HW121611   5.318  14.437   7.311
39926SOL    HW221612   5.213  14.336   7.269
39927SOL     OW21613   8.717  11.346   9.703
39927SOL    HW121614   8.719  11.269   9.647
39927SOL    HW221615   8.629  11.383   9.690
39928SOL     OW21616   6.244   9.861   3.310
39928SOL    HW121617   6.222   9.954   3.313
39928SOL    HW221618   6.304   9.848   3.384
39929SOL     OW21619   9.665  12.303  12.340
39929SOL    HW121620   9.575  12.311  12.309
39929SOL    HW221621   9.660  12.239  12.411
39930SOL     OW21622   1.026   4.515   1.682
39930SOL    HW121623   1.040   4.463   1.761
39930SOL    HW221624   0.967   4.585   1.709
39931SOL     OW21625   2.648   0.586  14.525
39931SOL    HW121626   2.705   0.658  14.498
39931SOL    HW221627   2.602   0.619  14.602
39932SOL     OW21628  10.864  13.922   1.730
39932SOL    HW121629  10.847  13.965   1.814
39932SOL    HW221630  10.903  13.991   1.675
39933SOL     OW21631  14.836   3.159   7.184
39933SOL    HW121632  14.861   3.178   7.274
39933SOL    HW221633  14.744   3.183   7.179
39934SOL     OW21634  10.585   6.202   5.125
39934SOL    HW121635  10.490   6.209   5.131
39934SOL    HW221636  10.615   6.290   5.102
39935SOL     OW21637  12.276  11.480   2.273
39935SOL    HW121638  12.317  11.565   2.256
39935SOL    HW221639  12.343  11.430   2.320
39936SOL     OW21640   9.630   7.178  10.590
39936SOL    HW121641   9.606   7.171  10.682
39936SOL    HW221642   9.719   7.143  10.586
39937SOL     OW21643  11.810   0.353   8.582
39937SOL    HW121644  11.771   0.282   8.633
39937SOL    HW221645  11.865   0.400   8.644
39938SOL     OW21646   2.981   1.081  12.211
39938SOL    HW121647   3.053   1.087  12.149
39938SOL    HW221648   2.953   0.990  12.207
39939SOL     OW21649   4.381  11.574   5.616
39939SOL    HW121650   4.464  11.609   5.582
39939SOL    HW221651   4.336  11.541   5.538
39940SOL     OW21652   3.475   5.969  11.828
39940SOL    HW121653   3.559   5.934  11.859
39940SOL    HW221654   3.485   5.974  11.733
39941SOL     OW21655  14.217   4.461   7.943
39941SOL    HW121656  14.170   4.411   7.876
39941SOL    HW221657  14.287   4.505   7.894
39942SOL     OW21658   4.760  14.078   8.489
39942SOL    HW121659   4.799  14.058   8.574
39942SOL    HW221660   4.819  14.038   8.425
39943SOL     OW21661   4.812   8.625  11.556
39943SOL    HW121662   4.888   8.626  11.498
39943SOL    HW221663   4.849   8.616  11.643
39944SOL     OW21664   2.299   4.637   1.184
39944SOL    HW121665   2.361   4.566   1.200
39944SOL    HW221666   2.316   4.665   1.094
39945SOL     OW21667   0.461   3.756  10.253
39945SOL    HW121668   0.519   3.790  10.322
39945SOL    HW221669   0.450   3.663  10.274
39946SOL     OW21670   4.249  13.830   9.111
39946SOL    HW121671   4.207  13.877   9.183
39946SOL    HW221672   4.343  13.838   9.129
39947SOL     OW21673   5.433   1.633  12.125
39947SOL    HW121674   5.377   1.693  12.175
39947SOL    HW221675   5.477   1.689  12.062
39948SOL     OW21676   6.037   7.436   1.169
39948SOL    HW121677   6.015   7.526   1.192
39948SOL    HW221678   5.953   7.394   1.153
39949SOL     OW21679  11.525  10.221   6.726
39949SOL    HW121680  11.445  10.170   6.735
39949SOL    HW221681  11.543  10.222   6.632
39950SOL     OW21682   7.964  13.242   2.029
39950SOL    HW121683   7.933  13.247   2.119
39950SOL    HW221684   7.994  13.152   2.019
39951SOL     OW21685  12.957  10.079  12.615
39951SOL    HW121686  12.953   9.989  12.583
39951SOL    HW221687  12.958  10.132  12.536
39952SOL     OW21688   0.685   7.505   7.772
39952SOL    HW121689   0.696   7.503   7.677
39952SOL    HW221690   0.757   7.559   7.803
39953SOL     OW21691  11.891   3.415   2.529
39953SOL    HW121692  11.932   3.334   2.496
39953SOL    HW221693  11.843   3.449   2.454
39954SOL     OW21694   8.754   9.852  12.254
39954SOL    HW121695   8.727   9.906  12.181
39954SOL    HW221696   8.832   9.806  12.222
39955SOL     OW21697   8.487   4.001   6.106
39955SOL    HW121698   8.541   4.010   6.185
39955SOL    HW221699   8.492   3.908   6.084
39956SOL     OW21700   4.240   5.215   6.146
39956SOL    HW121701   4.145   5.211   6.137
39956SOL    HW221702   4.266   5.126   6.169
39957SOL     OW21703   1.229   4.501  12.195
39957SOL    HW121704   1.304   4.442  12.207
39957SOL    HW221705   1.181   4.495  12.278
39958SOL     OW21706  13.772  13.997   2.398
39958SOL    HW121707  13.720  14.020   2.475
39958SOL    HW221708  13.711  13.951   2.340
39959SOL     OW21709  13.736   6.857   8.707
39959SOL    HW121710  13.699   6.837   8.621
39959SOL    HW221711  13.716   6.950   8.720
39960SOL     OW21712  12.777  12.507   5.154
39960SOL    HW121713  12.831  12.584   5.170
39960SOL    HW221714  12.715  12.505   5.227
39961SOL     OW21715   7.961   3.565  12.127
39961SOL    HW121716   7.960   3.571  12.222
39961SOL    HW221717   7.974   3.472  12.109
39962SOL     OW21718   0.438   0.920  11.515
39962SOL    HW121719   0.466   0.884  11.431
39962SOL    HW221720   0.442   0.846  11.576
39963SOL     OW21721   7.883  11.892   7.273
39963SOL    HW121722   7.816  11.835   7.313
39963SOL    HW221723   7.966  11.856   7.305
39964SOL     OW21724   1.276   6.995  13.503
39964SOL    HW121725   1.327   6.992  13.584
39964SOL    HW221726   1.237   7.082  13.502
39965SOL     OW21727   3.528  11.862   6.976
39965SOL    HW121728   3.533  11.957   6.991
39965SOL    HW221729   3.435  11.846   6.958
39966SOL     OW21730   3.386  12.771  14.704
39966SOL    HW121731   3.415  12.841  14.762
39966SOL    HW221732   3.301  12.745  14.739
39967SOL     OW21733  14.650   9.464   5.286
39967SOL    HW121734  14.605   9.421   5.359
39967SOL    HW221735  14.717   9.401   5.258
39968SOL     OW21736   6.479   1.752  11.552
39968SOL    HW121737   6.565   1.720  11.577
39968SOL    HW221738   6.473   1.734  11.458
39969SOL     OW21739   8.906  10.700   5.239
39969SOL    HW121740   8.831  10.689   5.180
39969SOL    HW221741   8.974  10.738   5.185
39970SOL     OW21742   3.694   7.318   5.215
39970SOL    HW121743   3.760   7.347   5.278
39970SOL    HW221744   3.743   7.303   5.134
39971SOL     OW21745   0.235   2.864  14.063
39971SOL    HW121746   0.252   2.789  14.005
39971SOL    HW221747   0.254   2.830  14.151
39972SOL     OW21748  11.215   2.199  12.232
39972SOL    HW121749  11.229   2.117  12.280
39972SOL    HW221750  11.131   2.231  12.264
39973SOL     OW21751   1.956   1.336   2.926
39973SOL    HW121752   1.872   1.365   2.962
39973SOL    HW221753   1.995   1.284   2.996
39974SOL     OW21754  13.742  13.463   2.755
39974SOL    HW121755  13.696  13.403   2.696
39974SOL    HW221756  13.674  13.494   2.815
39975SOL     OW21757   5.411   1.222   4.640
39975SOL    HW121758   5.433   1.298   4.695
39975SOL    HW221759   5.473   1.227   4.567
39976SOL     OW21760   6.558   5.373   3.149
39976SOL    HW121761   6.555   5.365   3.054
39976SOL    HW221762   6.544   5.285   3.182
39977SOL     OW21763   1.845  11.702   9.969
39977SOL    HW121764   1.895  11.627  10.001
39977SOL    HW221765   1.856  11.700   9.874
39978SOL     OW21766  14.363   0.185   9.821
39978SOL    HW121767  14.297   0.204   9.755
39978SOL    HW221768  14.387   0.093   9.806
39979SOL     OW21769   9.022   1.321   6.224
39979SOL    HW121770   9.083   1.364   6.284
39979SOL    HW221771   8.985   1.392   6.173
39980SOL     OW21772  13.839   0.495  11.088
39980SOL    HW121773  13.774   0.481  11.019
39980SOL    HW221774  13.803   0.451  11.165
39981SOL     OW21775  10.625  14.577   0.226
39981SOL    HW121776  10.571  14.562   0.148
39981SOL    HW221777  10.712  14.546   0.201
39982SOL     OW21778   2.229   7.624  10.347
39982SOL    HW121779   2.307   7.662  10.388
39982SOL    HW221780   2.182   7.699  10.310
39983SOL     OW21781  11.520   7.466   7.935
39983SOL    HW121782  11.426   7.482   7.943
39983SOL    HW221783  11.531   7.376   7.967
39984SOL     OW21784   5.584   4.986   6.981
39984SOL    HW121785   5.638   4.928   6.927
39984SOL    HW221786   5.638   5.007   7.057
39985SOL     OW21787   9.928  14.265  10.122
39985SOL    HW121788   9.845  14.252  10.167
39985SOL    HW221789   9.927  14.357  10.095
39986SOL     OW21790  13.798   9.493  12.874
39986SOL    HW121791  13.823   9.415  12.923
39986SOL    HW221792  13.829   9.566  12.928
39987SOL     OW21793   3.735  11.024   0.233
39987SOL    HW121794   3.650  11.027   0.277
39987SOL    HW221795   3.799  11.037   0.303
39988SOL     OW21796   4.190  13.375   2.359
39988SOL    HW121797   4.173  13.281   2.367
39988SOL    HW221798   4.108  13.417   2.385
39989SOL     OW21799   4.124   9.198   5.243
39989SOL    HW121800   4.080   9.215   5.160
39989SOL    HW221801   4.171   9.280   5.263
39990SOL     OW21802   9.156   7.235   9.618
39990SOL    HW121803   9.201   7.190   9.689
39990SOL    HW221804   9.066   7.245   9.650
39991SOL     OW21805  10.504   2.260   1.916
39991SOL    HW121806  10.469   2.197   1.979
39991SOL    HW221807  10.599   2.251   1.922
39992SOL     OW21808   0.005   7.227   2.051
39992SOL    HW121809  14.835   7.309   2.057
39992SOL    HW221810   0.088   7.250   2.010
39993SOL     OW21811  10.897   3.424   4.522
39993SOL    HW121812  10.852   3.354   4.474
39993SOL    HW221813  10.868   3.505   4.479
39994SOL     OW21814   1.046   8.902   2.967
39994SOL    HW121815   1.047   8.864   2.879
39994SOL    HW221816   0.961   8.946   2.973
39995SOL     OW21817   1.287   8.528   6.418
39995SOL    HW121818   1.199   8.523   6.457
39995SOL    HW221819   1.346   8.503   6.488
39996SOL     OW21820   5.407   5.808   5.656
39996SOL    HW121821   5.482   5.753   5.676
39996SOL    HW221822   5.390   5.857   5.737
39997SOL     OW21823   4.491   3.270   9.067
39997SOL    HW121824   4.446   3.309   8.992
39997SOL    HW221825   4.556   3.212   9.028
39998SOL     OW21826  14.369   8.741   1.081
39998SOL    HW121827  14.357   8.732   0.986
39998SOL    HW221828  14.414   8.825   1.091
39999SOL     OW21829   9.170  11.827   6.445
39999SOL    HW121830   9.146  11.843   6.354
39999SOL    HW221831   9.095  11.779   6.482
40000SOL     OW21832   5.083  14.538   8.438
40000SOL    HW121833   5.086  14.601   8.365
40000SOL    HW221834   5.068  14.454   8.395
40001SOL     OW21835  12.421  14.836   1.702
40001SOL    HW121836  12.391  14.851   1.612
40001SOL    HW221837  12.472  14.756   1.697
40002SOL     OW21838   6.418   7.407   7.637
40002SOL    HW121839   6.358   7.415   7.563
40002SOL    HW221840   6.384   7.334   7.688
40003SOL     OW21841  11.401  14.788  13.432
40003SOL    HW121842  11.391  14.700  13.469
40003SOL    HW221843  11.326  14.799  13.374
40004SOL     OW21844   7.733  11.297  14.155
40004SOL    HW121845   7.639  11.291  14.171
40004SOL    HW221846   7.772  11.304  14.242
40005SOL     OW21847   5.639   7.902  11.863
40005SOL    HW121848   5.629   7.996  11.852
40005SOL    HW221849   5.550   7.868  11.869
40006SOL     OW21850  14.628   0.955   8.405
40006SOL    HW121851  14.580   0.877   8.375
40006SOL    HW221852  14.602   0.964   8.497
40007SOL     OW21853   2.518  13.375   3.556
40007SOL    HW121854   2.475  13.426   3.626
40007SOL    HW221855   2.558  13.301   3.601
40008SOL     OW21856   9.806   2.208  10.421
40008SOL    HW121857   9.852   2.281  10.379
40008SOL    HW221858   9.876   2.145  10.442
40009SOL     OW21859  12.269  10.683  13.065
40009SOL    HW121860  12.267  10.594  13.030
40009SOL    HW221861  12.187  10.691  13.114
40010SOL     OW21862  13.762   5.274   3.723
40010SOL    HW121863  13.717   5.355   3.700
40010SOL    HW221864  13.726   5.251   3.809
40011SOL     OW21865   6.883   6.520   7.970
40011SOL    HW121866   6.839   6.572   7.904
40011SOL    HW221867   6.897   6.435   7.928
40012SOL     OW21868   3.618   5.523   7.105
40012SOL    HW121869   3.633   5.529   7.200
40012SOL    HW221870   3.523   5.530   7.095
40013SOL     OW21871   3.356   9.849  11.170
40013SOL    HW121872   3.399   9.934  11.168
40013SOL    HW221873   3.266   9.867  11.199
40014SOL     OW21874  12.491  11.472  12.178
40014SOL    HW121875  12.563  11.460  12.239
40014SOL    HW221876  12.511  11.414  12.105
40015SOL     OW21877   1.136   6.579   0.546
40015SOL    HW121878   1.118   6.562   0.453
40015SOL    HW221879   1.176   6.666   0.547
40016SOL     OW21880  13.770   4.123   6.111
40016SOL    HW121881  13.792   4.179   6.037
40016SOL    HW221882  13.680   4.149   6.134
40017SOL     OW21883   4.132   2.725  10.713
40017SOL    HW121884   4.098   2.698  10.798
40017SOL    HW221885   4.109   2.654  10.654
40018SOL     OW21886   8.399  12.347   9.129
40018SOL    HW121887   8.402  12.309   9.217
40018SOL    HW221888   8.306  12.351   9.108
40019SOL     OW21889   4.599   0.556   4.206
40019SOL    HW121890   4.626   0.477   4.252
40019SOL    HW221891   4.517   0.582   4.249
40020SOL     OW21892   1.216   1.575  11.583
40020SOL    HW121893   1.182   1.609  11.501
40020SOL    HW221894   1.272   1.501  11.557
40021SOL     OW21895   2.758  13.825   6.524
40021SOL    HW121896   2.793  13.898   6.472
40021SOL    HW221897   2.801  13.747   6.488
40022SOL     OW21898   6.639  11.673   3.214
40022SOL    HW121899   6.559  11.653   3.263
40022SOL    HW221900   6.644  11.603   3.148
40023SOL     OW21901   9.024  11.295   4.480
40023SOL    HW121902   8.967  11.372   4.479
40023SOL    HW221903   8.992  11.240   4.409
40024SOL     OW21904  13.113  11.997   6.616
40024SOL    HW121905  13.199  11.985   6.658
40024SOL    HW221906  13.096  12.091   6.624
40025SOL     OW21907   2.509  11.422   8.437
40025SOL    HW121908   2.525  11.361   8.365
40025SOL    HW221909   2.497  11.366   8.513
40026SOL     OW21910   2.336   5.612   7.252
40026SOL    HW121911   2.374   5.610   7.339
40026SOL    HW221912   2.338   5.521   7.222
40027SOL     OW21913  12.593   7.485   7.790
40027SOL    HW121914  12.548   7.536   7.722
40027SOL    HW221915  12.615   7.402   7.748
40028SOL     OW21916   1.332   0.342   0.758
40028SOL    HW121917   1.376   0.268   0.716
40028SOL    HW221918   1.329   0.319   0.851
40029SOL     OW21919   2.653   6.711   6.193
40029SOL    HW121920   2.616   6.790   6.154
40029SOL    HW221921   2.609   6.639   6.149
40030SOL     OW21922   9.529  12.986  11.540
40030SOL    HW121923   9.504  12.896  11.562
40030SOL    HW221924   9.617  12.996  11.576
40031SOL     OW21925  14.673   5.263  14.618
40031SOL    HW121926  14.738   5.332  14.602
40031SOL    HW221927  14.655   5.269  14.711
40032SOL     OW21928  13.604   1.545   7.903
40032SOL    HW121929  13.549   1.482   7.949
40032SOL    HW221930  13.554   1.627   7.905
40033SOL     OW21931   8.281   7.802   5.669
40033SOL    HW121932   8.290   7.816   5.575
40033SOL    HW221933   8.371   7.806   5.703
40034SOL     OW21934   0.539  12.653  12.913
40034SOL    HW121935   0.501  12.688  12.994
40034SOL    HW221936   0.609  12.714  12.891
40035SOL     OW21937   4.692   1.122   5.915
40035SOL    HW121938   4.760   1.151   5.855
40035SOL    HW221939   4.696   1.183   5.988
40036SOL     OW21940   3.179  14.667   2.299
40036SOL    HW121941   3.259  14.618   2.282
40036SOL    HW221942   3.194  14.710   2.383
40037SOL     OW21943  12.201  11.071   7.292
40037SOL    HW121944  12.135  11.003   7.305
40037SOL    HW221945  12.156  11.139   7.242
40038SOL     OW21946  11.732   8.473  10.408
40038SOL    HW121947  11.708   8.504  10.495
40038SOL    HW221948  11.793   8.401  10.423
40039SOL     OW21949   6.821   8.570  11.726
40039SOL    HW121950   6.845   8.648  11.675
40039SOL    HW221951   6.731   8.552  11.701
40040SOL     OW21952   7.140   7.415   9.825
40040SOL    HW121953   7.171   7.504   9.842
40040SOL    HW221954   7.131   7.410   9.730
40041SOL     OW21955   2.714   3.822   5.039
40041SOL    HW121956   2.714   3.811   4.944
40041SOL    HW221957   2.724   3.917   5.052
40042SOL     OW21958  10.028   4.416  13.981
40042SOL    HW121959  10.045   4.472  14.057
40042SOL    HW221960   9.932   4.413  13.975
40043SOL     OW21961  12.077   6.005  12.036
40043SOL    HW121962  11.992   6.038  12.066
40043SOL    HW221963  12.141   6.049  12.092
40044SOL     OW21964   2.787   4.103  10.792
40044SOL    HW121965   2.811   4.012  10.810
40044SOL    HW221966   2.777   4.143  10.878
40045SOL     OW21967  13.777  14.518  12.373
40045SOL    HW121968  13.848  14.477  12.423
40045SOL    HW221969  13.821  14.561  12.300
40046SOL     OW21970  12.609   5.652   1.598
40046SOL    HW121971  12.695   5.651   1.641
40046SOL    HW221972  12.554   5.596   1.652
40047SOL     OW21973   1.760   4.606   7.543
40047SOL    HW121974   1.715   4.679   7.501
40047SOL    HW221975   1.738   4.530   7.488
40048SOL     OW21976   1.328   4.044   4.798
40048SOL    HW121977   1.372   4.056   4.714
40048SOL    HW221978   1.251   3.992   4.778
40049SOL     OW21979   3.913   7.874   3.430
40049SOL    HW121980   3.884   7.808   3.492
40049SOL    HW221981   3.878   7.957   3.464
40050SOL     OW21982   7.184  13.619  10.282
40050SOL    HW121983   7.193  13.586  10.192
40050SOL    HW221984   7.163  13.542  10.334
40051SOL     OW21985   9.554   3.623  13.874
40051SOL    HW121986   9.512   3.540  13.850
40051SOL    HW221987   9.493   3.690  13.846
40052SOL     OW21988   5.424  12.575   5.847
40052SOL    HW121989   5.442  12.669   5.842
40052SOL    HW221990   5.389  12.552   5.762
40053SOL     OW21991   5.143   6.728  12.088
40053SOL    HW121992   5.074   6.678  12.044
40053SOL    HW221993   5.150   6.689  12.175
40054SOL     OW21994   3.155  13.311   9.146
40054SOL    HW121995   3.163  13.224   9.185
40054SOL    HW221996   3.220  13.312   9.076
40055SOL     OW21997  13.112  10.759   8.476
40055SOL    HW121998  13.079  10.772   8.387
40055SOL    HW221999  13.049  10.803   8.532
40056SOL     OW22000   0.894  12.354   4.271
40056SOL    HW122001   0.976  12.307   4.253
40056SOL    HW222002   0.830  12.285   4.287
40057SOL     OW22003  13.854   9.080   3.391
40057SOL    HW122004  13.852   9.159   3.446
40057SOL    HW222005  13.771   9.036   3.409
40058SOL     OW22006   5.895   8.064   5.281
40058SOL    HW122007   5.929   8.004   5.215
40058SOL    HW222008   5.838   8.009   5.335
40059SOL     OW22009   0.749   3.911  13.978
40059SOL    HW122010   0.678   3.848  13.991
40059SOL    HW222011   0.767   3.907  13.884
40060SOL     OW22012  12.364  12.381  14.137
40060SOL    HW122013  12.315  12.353  14.060
40060SOL    HW222014  12.451  12.342  14.126
40061SOL     OW22015  11.522   2.749   1.033
40061SOL    HW122016  11.486   2.755   0.944
40061SOL    HW222017  11.576   2.670   1.032
40062SOL     OW22018  13.448  14.804   9.571
40062SOL    HW122019  13.489  14.855   9.501
40062SOL    HW222020  13.499  14.723   9.575
40063SOL     OW22021   9.191   8.052   1.120
40063SOL    HW122022   9.100   8.081   1.116
40063SOL    HW222023   9.240   8.129   1.151
40064SOL     OW22024  12.280  10.290   3.893
40064SOL    HW122025  12.257  10.197   3.897
40064SOL    HW222026  12.340  10.303   3.966
40065SOL     OW22027   5.707   0.536  13.484
40065SOL    HW122028   5.747   0.537  13.397
40065SOL    HW222029   5.624   0.583  13.474
40066SOL     OW22030   0.094   7.234   3.530
40066SOL    HW122031   0.024   7.168   3.524
40066SOL    HW222032   0.094   7.259   3.622
40067SOL     OW22033   7.307   5.198   7.179
40067SOL    HW122034   7.380   5.153   7.137
40067SOL    HW222035   7.343   5.283   7.205
40068SOL     OW22036  14.747   5.370  13.000
40068SOL    HW122037  14.837   5.339  12.986
40068SOL    HW222038  14.709   5.373  12.913
40069SOL     OW22039   5.286  12.510   3.719
40069SOL    HW122040   5.343  12.505   3.642
40069SOL    HW222041   5.214  12.449   3.699
40070SOL     OW22042   3.152   0.341   7.051
40070SOL    HW122043   3.164   0.420   6.998
40070SOL    HW222044   3.161   0.371   7.142
40071SOL     OW22045  14.010  13.229   3.973
40071SOL    HW122046  14.077  13.197   4.033
40071SOL    HW222047  13.963  13.297   4.023
40072SOL     OW22048   4.938   8.904   2.865
40072SOL    HW122049   4.849   8.907   2.901
40072SOL    HW222050   4.953   8.992   2.831
40073SOL     OW22051   8.968  11.840   8.753
40073SOL    HW122052   9.004  11.927   8.742
40073SOL    HW222053   9.003  11.790   8.679
40074SOL     OW22054   6.553   6.056   3.954
40074SOL    HW122055   6.485   6.014   4.006
40074SOL    HW222056   6.530   6.149   3.956
40075SOL     OW22057   7.544   3.645   3.663
40075SOL    HW122058   7.461   3.598   3.656
40075SOL    HW222059   7.543   3.706   3.589
40076SOL     OW22060   9.730   0.375   1.014
40076SOL    HW122061   9.824   0.384   0.998
40076SOL    HW222062   9.691   0.452   0.972
40077SOL     OW22063  11.397   8.268   7.097
40077SOL    HW122064  11.405   8.360   7.069
40077SOL    HW222065  11.318   8.237   7.052
40078SOL     OW22066   7.173  12.667  11.875
40078SOL    HW122067   7.153  12.758  11.855
40078SOL    HW222068   7.100  12.617  11.838
40079SOL     OW22069  14.726  10.409   9.066
40079SOL    HW122070  14.764  10.448   8.988
40079SOL    HW222071  14.682  10.481   9.111
40080SOL     OW22072   7.038   2.902  13.842
40080SOL    HW122073   6.962   2.868  13.793
40080SOL    HW222074   7.078   2.965  13.782
40081SOL     OW22075   3.172   6.304   5.401
40081SOL    HW122076   3.098   6.256   5.438
40081SOL    HW222077   3.225   6.237   5.357
40082SOL     OW22078   8.217   0.455   8.223
40082SOL    HW122079   8.206   0.364   8.195
40082SOL    HW222080   8.171   0.461   8.307
40083SOL     OW22081  10.451  12.303   0.486
40083SOL    HW122082  10.513  12.362   0.444
40083SOL    HW222083  10.496  12.271   0.564
40084SOL     OW22084   9.968   3.674  11.142
40084SOL    HW122085  10.011   3.588  11.144
40084SOL    HW222086   9.936   3.683  11.053
40085SOL     OW22087  12.655   6.675  13.325
40085SOL    HW122088  12.716   6.679  13.252
40085SOL    HW222089  12.569   6.676  13.284
40086SOL     OW22090   1.382  10.367   3.143
40086SOL    HW122091   1.454  10.427   3.125
40086SOL    HW222092   1.362  10.327   3.059
40087SOL     OW22093   8.578  11.414  14.813
40087SOL    HW122094   8.538  11.329  14.831
40087SOL    HW222095   8.632  11.399  14.735
40088SOL     OW22096   6.680  14.712   5.453
40088SOL    HW122097   6.731  14.790   5.433
40088SOL    HW222098   6.623  14.701   5.377
40089SOL     OW22099  13.222   3.938   6.492
40089SOL    HW122100  13.243   3.919   6.400
40089SOL    HW222101  13.304   3.972   6.528
40090SOL     OW22102  12.998  14.040  13.900
40090SOL    HW122103  13.011  13.946  13.888
40090SOL    HW222104  12.904  14.054  13.885
40091SOL     OW22105  12.904  11.066  11.288
40091SOL    HW122106  12.965  11.058  11.215
40091SOL    HW222107  12.851  10.986  11.284
40092SOL     OW22108   0.721   8.760   3.721
40092SOL    HW122109   0.669   8.679   3.722
40092SOL    HW222110   0.793   8.743   3.781
40093SOL     OW22111  12.801   4.221   8.127
40093SOL    HW122112  12.731   4.159   8.104
40093SOL    HW222113  12.829   4.194   8.214
40094SOL     OW22114   6.672   1.461   0.131
40094SOL    HW122115   6.765   1.459   0.156
40094SOL    HW222116   6.670   1.428   0.041
40095SOL     OW22117   7.326  10.598  14.013
40095SOL    HW122118   7.307  10.551  14.095
40095SOL    HW222119   7.421  10.590  14.002
40096SOL     OW22120  13.928   7.363  14.196
40096SOL    HW122121  14.002   7.302  14.191
40096SOL    HW222122  13.853   7.313  14.164
40097SOL     OW22123   2.104   6.884  12.073
40097SOL    HW122124   2.143   6.929  12.147
40097SOL    HW222125   2.097   6.793  12.101
40098SOL     OW22126   1.671  11.256  12.503
40098SOL    HW122127   1.622  11.175  12.495
40098SOL    HW222128   1.659  11.301  12.419
40099SOL     OW22129   8.431  11.641   2.212
40099SOL    HW122130   8.454  11.551   2.192
40099SOL    HW222131   8.471  11.693   2.142
40100SOL     OW22132  12.808   5.829   6.811
40100SOL    HW122133  12.811   5.738   6.841
40100SOL    HW222134  12.820   5.881   6.890
40101SOL     OW22135  10.631  12.069   2.226
40101SOL    HW122136  10.543  12.066   2.188
40101SOL    HW222137  10.675  12.140   2.178
40102SOL     OW22138   4.086  12.809   2.213
40102SOL    HW122139   4.131  12.762   2.283
40102SOL    HW222140   4.157  12.841   2.157
40103SOL     OW22141   0.892   5.399  10.970
40103SOL    HW122142   0.863   5.437  11.053
40103SOL    HW222143   0.956   5.461  10.936
40104SOL     OW22144   8.597  13.172  10.060
40104SOL    HW122145   8.652  13.227  10.116
40104SOL    HW222146   8.651  13.096  10.040
40105SOL     OW22147  14.466   5.464   6.323
40105SOL    HW122148  14.560   5.476   6.337
40105SOL    HW222149  14.457   5.449   6.229
40106SOL     OW22150   6.333   0.808   3.090
40106SOL    HW122151   6.423   0.817   3.057
40106SOL    HW222152   6.319   0.887   3.142
40107SOL     OW22153   0.529  13.250  10.787
40107SOL    HW122154   0.563  13.204  10.863
40107SOL    HW222155   0.552  13.342  10.802
40108SOL     OW22156   0.539   9.209  12.951
40108SOL    HW122157   0.581   9.158  12.882
40108SOL    HW222158   0.496   9.144  13.006
40109SOL     OW22159   4.567  10.904   0.996
40109SOL    HW122160   4.616  10.836   1.041
40109SOL    HW222161   4.617  10.919   0.915
40110SOL     OW22162  10.407   7.741   4.964
40110SOL    HW122163  10.333   7.798   4.987
40110SOL    HW222164  10.379   7.697   4.884
40111SOL     OW22165   0.957  12.432   8.923
40111SOL    HW122166   0.937  12.456   9.013
40111SOL    HW222167   1.050  12.451   8.912
40112SOL     OW22168  11.339  14.453   2.642
40112SOL    HW122169  11.411  14.440   2.703
40112SOL    HW222170  11.333  14.371   2.594
40113SOL     OW22171   1.780  13.420   4.255
40113SOL    HW122172   1.746  13.343   4.209
40113SOL    HW222173   1.733  13.422   4.338
40114SOL     OW22174   2.699   7.905   1.549
40114SOL    HW122175   2.683   7.842   1.620
40114SOL    HW222176   2.665   7.988   1.582
40115SOL     OW22177  14.348   7.468   3.377
40115SOL    HW122178  14.344   7.553   3.421
40115SOL    HW222179  14.261   7.456   3.340
40116SOL     OW22180   0.248   0.211   3.651
40116SOL    HW122181   0.310   0.221   3.724
40116SOL    HW222182   0.189   0.285   3.660
40117SOL     OW22183   6.621   8.107  11.080
40117SOL    HW122184   6.526   8.111  11.089
40117SOL    HW222185   6.636   8.062  10.997
40118SOL     OW22186   8.601   4.326   6.180
40118SOL    HW122187   8.683   4.363   6.213
40118SOL    HW222188   8.626   4.240   6.147
40119SOL     OW22189  14.001  10.518  11.316
40119SOL    HW122190  14.052  10.598  11.301
40119SOL    HW222191  13.950  10.506  11.236
40120SOL     OW22192   4.034   6.157   7.777
40120SOL    HW122193   4.097   6.184   7.844
40120SOL    HW222194   3.980   6.091   7.820
40121SOL     OW22195   9.151   2.550  14.630
40121SOL    HW122196   9.247   2.556  14.633
40121SOL    HW222197   9.128   2.495  14.704
40122SOL     OW22198   2.178   5.656  13.987
40122SOL    HW122199   2.144   5.607  14.062
40122SOL    HW222200   2.211   5.590  13.927
40123SOL     OW22201   1.045  10.636   5.563
40123SOL    HW122202   1.006  10.583   5.632
40123SOL    HW222203   0.975  10.694   5.534
40124SOL     OW22204   3.835   9.252   0.196
40124SOL    HW122205   3.838   9.177   0.137
40124SOL    HW222206   3.758   9.302   0.168
40125SOL     OW22207   3.076   2.669   2.089
40125SOL    HW122208   3.108   2.748   2.133
40125SOL    HW222209   3.125   2.597   2.128
40126SOL     OW22210  10.564   7.071  14.490
40126SOL    HW122211  10.572   7.159  14.527
40126SOL    HW222212  10.632   7.068  14.422
40127SOL     OW22213   9.860  13.324   5.603
40127SOL    HW122214   9.813  13.402   5.572
40127SOL    HW222215   9.812  13.250   5.565
40128SOL     OW22216   8.699   2.968   8.070
40128SOL    HW122217   8.730   3.024   8.000
40128SOL    HW222218   8.741   2.883   8.055
40129SOL     OW22219   7.859   3.052   7.764
40129SOL    HW122220   7.909   3.076   7.842
40129SOL    HW222221   7.868   2.957   7.757
40130SOL     OW22222   8.064  12.600   3.455
40130SOL    HW122223   8.006  12.647   3.515
40130SOL    HW222224   8.132  12.563   3.512
40131SOL     OW22225   6.251   0.245  12.344
40131SOL    HW122226   6.335   0.227  12.303
40131SOL    HW222227   6.194   0.270  12.270
40132SOL     OW22228   0.523  13.045  11.548
40132SOL    HW122229   0.600  12.988  11.545
40132SOL    HW222230   0.475  13.016  11.625
40133SOL     OW22231   8.298   7.341   7.975
40133SOL    HW122232   8.360   7.330   8.047
40133SOL    HW222233   8.337   7.292   7.902
40134SOL     OW22234  10.200  10.507  11.581
40134SOL    HW122235  10.174  10.561  11.507
40134SOL    HW222236  10.120  10.459  11.605
40135SOL     OW22237   0.153   0.228   6.612
40135SOL    HW122238   0.177   0.142   6.577
40135SOL    HW222239   0.162   0.287   6.538
40136SOL     OW22240   1.057   7.174  11.961
40136SOL    HW122241   1.141   7.191  12.004
40136SOL    HW222242   1.079   7.154  11.870
40137SOL     OW22243  11.627  14.554   2.781
40137SOL    HW122244  11.591  14.485   2.837
40137SOL    HW222245  11.707  14.582   2.826
40138SOL     OW22246   3.811  10.310   3.083
40138SOL    HW122247   3.801  10.405   3.082
40138SOL    HW222248   3.726  10.277   3.054
40139SOL     OW22249  14.241   6.449   9.861
40139SOL    HW122250  14.169   6.494   9.816
40139SOL    HW222251  14.281   6.516   9.916
40140SOL     OW22252  12.043   5.056   6.599
40140SOL    HW122253  12.038   5.129   6.660
40140SOL    HW222254  12.113   5.001   6.634
40141SOL     OW22255  14.021  10.289   2.966
40141SOL    HW122256  13.967  10.284   3.045
40141SOL    HW222257  13.976  10.352   2.910
40142SOL     OW22258   7.397  13.148   0.804
40142SOL    HW122259   7.443  13.112   0.728
40142SOL    HW222260   7.352  13.225   0.770
40143SOL     OW22261   5.624   6.831   4.941
40143SOL    HW122262   5.548   6.810   4.886
40143SOL    HW222263   5.683   6.879   4.883
40144SOL     OW22264   6.799   1.613   3.194
40144SOL    HW122265   6.711   1.624   3.231
40144SOL    HW222266   6.858   1.628   3.268
40145SOL     OW22267  12.650   6.726   3.683
40145SOL    HW122268  12.631   6.792   3.616
40145SOL    HW222269  12.614   6.762   3.764
40146SOL     OW22270  11.386  12.159  10.098
40146SOL    HW122271  11.371  12.078  10.049
40146SOL    HW222272  11.419  12.131  10.183
40147SOL     OW22273   0.899  12.827   5.073
40147SOL    HW122274   0.904  12.918   5.042
40147SOL    HW222275   0.805  12.807   5.074
40148SOL     OW22276   9.954   2.067   3.823
40148SOL    HW122277   9.983   2.133   3.885
40148SOL    HW222278   9.866   2.096   3.796
40149SOL     OW22279   9.933   3.566   5.313
40149SOL    HW122280   9.989   3.636   5.345
40149SOL    HW222281   9.972   3.486   5.348
40150SOL     OW22282  13.681   1.941  12.400
40150SOL    HW122283  13.721   2.023  12.431
40150SOL    HW222284  13.592   1.966  12.376
40151SOL     OW22285  13.815   2.412   4.375
40151SOL    HW122286  13.861   2.346   4.426
40151SOL    HW222287  13.728   2.374   4.361
40152SOL     OW22288   5.126   4.042   5.542
40152SOL    HW122289   5.177   4.096   5.602
40152SOL    HW222290   5.048   4.094   5.524
40153SOL     OW22291   5.000  10.256   6.043
40153SOL    HW122292   4.926  10.299   6.088
40153SOL    HW222293   5.008  10.303   5.960
40154SOL     OW22294   0.196   4.166  14.805
40154SOL    HW122295   0.120   4.109  14.793
40154SOL    HW222296   0.191   4.194   0.018
40155SOL     OW22297   2.162  13.851   8.233
40155SOL    HW122298   2.070  13.835   8.256
40155SOL    HW222299   2.166  13.945   8.216
40156SOL     OW22300  14.625   4.820   1.884
40156SOL    HW122301  14.686   4.872   1.936
40156SOL    HW222302  14.559   4.883   1.855
40157SOL     OW22303  11.829   5.950   8.435
40157SOL    HW122304  11.884   5.886   8.479
40157SOL    HW222305  11.767   5.898   8.385
40158SOL     OW22306   4.945   6.282   6.334
40158SOL    HW122307   5.002   6.234   6.393
40158SOL    HW222308   4.863   6.233   6.333
40159SOL     OW22309   9.694  10.207  12.162
40159SOL    HW122310   9.617  10.214  12.105
40159SOL    HW222311   9.721  10.298  12.178
40160SOL     OW22312   0.230  14.551   6.508
40160SOL    HW122313   0.306  14.580   6.559
40160SOL    HW222314   0.264  14.544   6.418
40161SOL     OW22315   7.469  12.716  11.947
40161SOL    HW122316   7.453  12.686  12.037
40161SOL    HW222317   7.383  12.717  11.906
40162SOL     OW22318   2.566   7.738   4.725
40162SOL    HW122319   2.572   7.677   4.798
40162SOL    HW222320   2.472   7.751   4.713
40163SOL     OW22321   0.941   4.998   0.444
40163SOL    HW122322   0.947   5.086   0.482
40163SOL    HW222323   0.865   4.959   0.487
40164SOL     OW22324   5.985   0.599   3.435
40164SOL    HW122325   6.076   0.615   3.462
40164SOL    HW222326   5.932   0.647   3.499
40165SOL     OW22327   5.578  13.452   3.068
40165SOL    HW122328   5.559  13.504   3.146
40165SOL    HW222329   5.514  13.380   3.071
40166SOL     OW22330  12.979   4.825   6.030
40166SOL    HW122331  13.040   4.789   5.965
40166SOL    HW222332  12.900   4.845   5.979
40167SOL     OW22333  12.567  10.434  12.732
40167SOL    HW122334  12.569  10.384  12.814
40167SOL    HW222335  12.616  10.381  12.670
40168SOL     OW22336   1.696   4.164   8.660
40168SOL    HW122337   1.738   4.080   8.644
40168SOL    HW222338   1.637   4.148   8.733
40169SOL     OW22339  12.303  11.748  11.182
40169SOL    HW122340  12.356  11.820  11.217
40169SOL    HW222341  12.215  11.764  11.216
40170SOL     OW22342   6.887  13.800  13.652
40170SOL    HW122343   6.875  13.884  13.698
40170SOL    HW222344   6.969  13.765  13.687
40171SOL     OW22345  13.273   1.843  12.291
40171SOL    HW122346  13.234   1.917  12.339
40171SOL    HW222347  13.198   1.789  12.266
40172SOL     OW22348  10.193   4.417  10.311
40172SOL    HW122349  10.199   4.512  10.300
40172SOL    HW222350  10.125   4.390  10.250
40173SOL     OW22351  10.689  11.025   4.113
40173SOL    HW122352  10.633  11.091   4.073
40173SOL    HW222353  10.763  11.017   4.053
40174SOL     OW22354   2.848  10.118   6.068
40174SOL    HW122355   2.770  10.148   6.022
40174SOL    HW222356   2.863  10.183   6.136
40175SOL     OW22357   7.990   1.391   6.890
40175SOL    HW122358   8.041   1.311   6.878
40175SOL    HW222359   7.966   1.418   6.801
40176SOL     OW22360   9.685  12.310   0.208
40176SOL    HW122361   9.685  12.367   0.286
40176SOL    HW222362   9.763  12.255   0.219
40177SOL     OW22363   3.946  13.485  14.663
40177SOL    HW122364   3.942  13.440  14.748
40177SOL    HW222365   3.956  13.414  14.599
40178SOL     OW22366   6.118  11.083   6.040
40178SOL    HW122367   6.025  11.101   6.053
40178SOL    HW222368   6.134  11.002   6.088
40179SOL     OW22369   8.078   0.265   0.955
40179SOL    HW122370   8.171   0.287   0.962
40179SOL    HW222371   8.077   0.173   0.930
40180SOL     OW22372  12.957  13.620   9.871
40180SOL    HW122373  12.870  13.592   9.842
40180SOL    HW222374  13.008  13.539   9.874
40181SOL     OW22375   7.068  11.102   6.748
40181SOL    HW122376   6.983  11.135   6.778
40181SOL    HW222377   7.126  11.114   6.823
40182SOL     OW22378  12.607   5.097  11.737
40182SOL    HW122379  12.583   5.005  11.749
40182SOL    HW222380  12.635   5.126  11.824
40183SOL     OW22381   0.007   9.623   8.911
40183SOL    HW122382  14.876   9.543   8.858
40183SOL    HW222383   0.096   9.653   8.892
40184SOL     OW22384   0.712   7.491  12.510
40184SOL    HW122385   0.656   7.547  12.457
40184SOL    HW222386   0.728   7.415  12.455
40185SOL     OW22387   1.809   3.272   8.137
40185SOL    HW122388   1.787   3.339   8.201
40185SOL    HW222389   1.726   3.231   8.114
40186SOL     OW22390   2.865  14.017  12.170
40186SOL    HW122391   2.910  14.101  12.173
40186SOL    HW222392   2.810  14.017  12.248
40187SOL     OW22393   4.238   4.952   8.144
40187SOL    HW122394   4.304   5.021   8.143
40187SOL    HW222395   4.207   4.948   8.053
40188SOL     OW22396   7.087   7.098   0.742
40188SOL    HW122397   7.054   7.011   0.721
40188SOL    HW222398   7.180   7.084   0.760
40189SOL     OW22399   7.276  12.934  13.109
40189SOL    HW122400   7.191  12.976  13.099
40189SOL    HW222401   7.294  12.939  13.203
40190SOL     OW22402  10.199   9.898   3.862
40190SOL    HW122403  10.248   9.933   3.788
40190SOL    HW222404  10.109   9.927   3.848
40191SOL     OW22405   4.328  14.301   0.730
40191SOL    HW122406   4.372  14.384   0.709
40191SOL    HW222407   4.335  14.250   0.650
40192SOL     OW22408  11.767   9.619   0.994
40192SOL    HW122409  11.739   9.545   1.048
40192SOL    HW222410  11.850   9.591   0.955
40193SOL     OW22411   4.790   4.440   3.793
40193SOL    HW122412   4.768   4.497   3.719
40193SOL    HW222413   4.793   4.352   3.755
40194SOL     OW22414   8.972  11.355   6.326
40194SOL    HW122415   8.984  11.347   6.231
40194SOL    HW222416   8.902  11.419   6.336
40195SOL     OW22417  12.487  11.982  13.720
40195SOL    HW122418  12.480  12.024  13.634
40195SOL    HW222419  12.473  12.053  13.782
40196SOL     OW22420  14.596  12.647   7.339
40196SOL    HW122421  14.632  12.558   7.334
40196SOL    HW222422  14.642  12.687   7.413
40197SOL     OW22423   8.396   7.822   1.558
40197SOL    HW122424   8.460   7.890   1.579
40197SOL    HW222425   8.320   7.844   1.613
40198SOL     OW22426   8.199   2.656   7.807
40198SOL    HW122427   8.131   2.598   7.773
40198SOL    HW222428   8.270   2.651   7.743
40199SOL     OW22429  12.121   1.147  12.888
40199SOL    HW122430  12.043   1.161  12.943
40199SOL    HW222431  12.150   1.235  12.865
40200SOL     OW22432   8.863   2.672   3.310
40200SOL    HW122433   8.931   2.664   3.377
40200SOL    HW222434   8.888   2.609   3.242
40201SOL     OW22435   8.497   2.821   9.483
40201SOL    HW122436   8.582   2.855   9.513
40201SOL    HW222437   8.436   2.894   9.495
40202SOL     OW22438   2.894   5.485   6.389
40202SOL    HW122439   2.857   5.465   6.475
40202SOL    HW222440   2.981   5.520   6.408
40203SOL     OW22441   6.747   3.991  10.033
40203SOL    HW122442   6.751   3.896  10.037
40203SOL    HW222443   6.835   4.018  10.006
40204SOL     OW22444   0.927   5.049   3.022
40204SOL    HW122445   0.938   5.123   3.082
40204SOL    HW222446   1.008   4.998   3.033
40205SOL     OW22447  13.115  10.021   3.331
40205SOL    HW122448  13.135   9.932   3.301
40205SOL    HW222449  13.027  10.038   3.298
40206SOL     OW22450   9.335   0.598   0.629
40206SOL    HW122451   9.405   0.663   0.624
40206SOL    HW222452   9.328   0.565   0.539
40207SOL     OW22453   3.694   9.559   4.920
40207SOL    HW122454   3.621   9.595   4.970
40207SOL    HW222455   3.667   9.469   4.899
40208SOL     OW22456   7.153  10.799   9.414
40208SOL    HW122457   7.160  10.878   9.360
40208SOL    HW222458   7.214  10.738   9.374
40209SOL     OW22459   4.534   0.159  13.993
40209SOL    HW122460   4.581   0.224  14.046
40209SOL    HW222461   4.481   0.210  13.933
40210SOL     OW22462  13.418   6.985   1.630
40210SOL    HW122463  13.343   7.018   1.679
40210SOL    HW222464  13.451   7.061   1.582
40211SOL     OW22465  13.957  13.715   6.034
40211SOL    HW122466  13.877  13.666   6.054
40211SOL    HW222467  14.019  13.648   6.006
40212SOL     OW22468  14.013  11.856  10.665
40212SOL    HW122469  14.090  11.894  10.709
40212SOL    HW222470  14.038  11.850  10.573
40213SOL     OW22471   1.355  11.408   8.240
40213SOL    HW122472   1.374  11.488   8.289
40213SOL    HW222473   1.389  11.424   8.152
40214SOL     OW22474   2.743   0.948  11.970
40214SOL    HW122475   2.679   0.945  11.899
40214SOL    HW222476   2.827   0.937  11.927
40215SOL     OW22477  11.289   7.849   1.589
40215SOL    HW122478  11.306   7.939   1.614
40215SOL    HW222479  11.361   7.799   1.627
40216SOL     OW22480  14.811  10.143   2.752
40216SOL    HW122481  14.840  10.114   2.838
40216SOL    HW222482  14.768  10.066   2.714
40217SOL     OW22483  14.004   6.157   9.226
40217SOL    HW122484  14.059   6.232   9.204
40217SOL    HW222485  13.938   6.154   9.157
40218SOL     OW22486  11.063  13.880   9.230
40218SOL    HW122487  10.978  13.923   9.228
40218SOL    HW222488  11.086  13.875   9.323
40219SOL     OW22489  12.440  11.497   1.108
40219SOL    HW122490  12.453  11.498   1.202
40219SOL    HW222491  12.418  11.588   1.085
40220SOL     OW22492   2.974   6.037   4.067
40220SOL    HW122493   3.021   6.013   4.146
40220SOL    HW222494   3.025   6.109   4.030
40221SOL     OW22495   3.224   8.695   8.218
40221SOL    HW122496   3.266   8.669   8.300
40221SOL    HW222497   3.292   8.683   8.152
40222SOL     OW22498  12.169  11.552  13.018
40222SOL    HW122499  12.217  11.483  13.064
40222SOL    HW222500  12.236  11.598  12.967
40223SOL     OW22501   2.758   6.077  14.473
40223SOL    HW122502   2.795   6.165  14.476
40223SOL    HW222503   2.754   6.049  14.564
40224SOL     OW22504  10.917   7.785   4.390
40224SOL    HW122505  10.925   7.856   4.327
40224SOL    HW222506  11.003   7.780   4.432
40225SOL     OW22507   8.296  14.240   0.195
40225SOL    HW122508   8.345  14.157   0.194
40225SOL    HW222509   8.245  14.236   0.276
40226SOL     OW22510   5.958   8.088   0.874
40226SOL    HW122511   5.896   8.015   0.873
40226SOL    HW222512   6.043   8.047   0.860
40227SOL     OW22513   3.324   1.203   3.690
40227SOL    HW122514   3.352   1.207   3.782
40227SOL    HW222515   3.356   1.285   3.652
40228SOL     OW22516   0.223  12.715  10.386
40228SOL    HW122517   0.171  12.694  10.308
40228SOL    HW222518   0.278  12.789  10.360
40229SOL     OW22519  14.205   5.534   6.384
40229SOL    HW122520  14.287   5.486   6.377
40229SOL    HW222521  14.189   5.540   6.478
40230SOL     OW22522   9.287   2.351  11.386
40230SOL    HW122523   9.206   2.393  11.357
40230SOL    HW222524   9.357   2.410  11.355
40231SOL     OW22525   8.040   3.947   9.330
40231SOL    HW122526   8.131   3.927   9.308
40231SOL    HW222527   8.037   4.043   9.334
40232SOL     OW22528  12.174   3.083   8.534
40232SOL    HW122529  12.114   3.155   8.516
40232SOL    HW222530  12.203   3.099   8.624
40233SOL     OW22531  14.424   5.278  14.504
40233SOL    HW122532  14.510   5.258  14.541
40233SOL    HW222533  14.436   5.268  14.410
40234SOL     OW22534   0.029   2.236   5.991
40234SOL    HW122535   0.095   2.202   5.931
40234SOL    HW222536   0.073   2.238   6.076
40235SOL     OW22537  14.536   9.289   5.847
40235SOL    HW122538  14.527   9.348   5.922
40235SOL    HW222539  14.594   9.220   5.877
40236SOL     OW22540   8.914   2.540   7.653
40236SOL    HW122541   8.896   2.634   7.660
40236SOL    HW222542   8.990   2.535   7.595
40237SOL     OW22543   4.187  10.162  13.096
40237SOL    HW122544   4.106  10.152  13.146
40237SOL    HW222545   4.180  10.098  13.025
40238SOL     OW22546   3.396  11.272   3.747
40238SOL    HW122547   3.332  11.245   3.680
40238SOL    HW222548   3.437  11.350   3.710
40239SOL     OW22549  11.657  10.627  12.844
40239SOL    HW122550  11.600  10.580  12.782
40239SOL    HW222551  11.681  10.708  12.798
40240SOL     OW22552   2.968   9.936  14.075
40240SOL    HW122553   3.045   9.891  14.041
40240SOL    HW222554   2.994   9.963  14.164
40241SOL     OW22555   8.856   3.595  12.609
40241SOL    HW122556   8.922   3.663  12.599
40241SOL    HW222557   8.826   3.577  12.520
40242SOL     OW22558  11.446  11.907   6.075
40242SOL    HW122559  11.488  11.840   6.129
40242SOL    HW222560  11.509  11.924   6.005
40243SOL     OW22561   1.397  13.408   8.330
40243SOL    HW122562   1.382  13.463   8.406
40243SOL    HW222563   1.490  13.386   8.334
40244SOL     OW22564   9.665   9.600   1.829
40244SOL    HW122565   9.742   9.549   1.803
40244SOL    HW222566   9.656   9.666   1.759
40245SOL     OW22567  11.099   5.825  12.791
40245SOL    HW122568  11.184   5.848  12.753
40245SOL    HW222569  11.118   5.753  12.851
40246SOL     OW22570   0.043   7.377  14.427
40246SOL    HW122571  14.855   7.407  14.488
40246SOL    HW222572   0.108   7.334  14.482
40247SOL     OW22573   4.910   5.364   6.858
40247SOL    HW122574   4.820   5.332   6.853
40247SOL    HW222575   4.915   5.412   6.941
40248SOL     OW22576   5.429   7.135  11.988
40248SOL    HW122577   5.465   7.047  11.997
40248SOL    HW222578   5.504   7.189  11.962
40249SOL     OW22579   6.728  13.164  14.597
40249SOL    HW122580   6.703  13.155  14.689
40249SOL    HW222581   6.815  13.204  14.600
40250SOL     OW22582   8.422   3.971  13.546
40250SOL    HW122583   8.444   4.002  13.458
40250SOL    HW222584   8.390   4.049  13.591
40251SOL     OW22585  12.601   1.454   8.608
40251SOL    HW122586  12.642   1.537   8.633
40251SOL    HW222587  12.574   1.415   8.691
40252SOL     OW22588   0.157   2.864  13.768
40252SOL    HW122589   0.144   2.850  13.674
40252SOL    HW222590   0.221   2.935  13.773
40253SOL     OW22591  10.186   2.702   3.766
40253SOL    HW122592  10.143   2.637   3.822
40253SOL    HW222593  10.270   2.662   3.744
40254SOL     OW22594   4.293   8.200   2.922
40254SOL    HW122595   4.308   8.106   2.916
40254SOL    HW222596   4.201   8.209   2.947
40255SOL     OW22597   1.134  10.304   7.867
40255SOL    HW122598   1.164  10.335   7.781
40255SOL    HW222599   1.143  10.381   7.924
40256SOL     OW22600   5.582   2.947   0.098
40256SOL    HW122601   5.636   2.907   0.167
40256SOL    HW222602   5.507   2.983   0.144
40257SOL     OW22603   9.151   2.085   8.199
40257SOL    HW122604   9.093   2.018   8.235
40257SOL    HW222605   9.096   2.162   8.189
40258SOL     OW22606  10.950   4.783   0.751
40258SOL    HW122607  10.984   4.749   0.833
40258SOL    HW222608  10.998   4.864   0.736
40259SOL     OW22609   3.161  12.534   9.017
40259SOL    HW122610   3.118  12.562   8.936
40259SOL    HW222611   3.162  12.612   9.073
40260SOL     OW22612   4.589   9.473  13.061
40260SOL    HW122613   4.531   9.432  13.125
40260SOL    HW222614   4.676   9.442  13.083
40261SOL     OW22615   0.258   1.137   6.817
40261SOL    HW122616   0.184   1.126   6.877
40261SOL    HW222617   0.232   1.209   6.760
40262SOL     OW22618   9.918  11.117   3.681
40262SOL    HW122619   9.874  11.169   3.749
40262SOL    HW222620   9.850  11.103   3.615
40263SOL     OW22621   3.693  10.703   5.990
40263SOL    HW122622   3.607  10.664   6.009
40263SOL    HW222623   3.755  10.644   6.033
40264SOL     OW22624   3.886  12.177   5.989
40264SOL    HW122625   3.929  12.210   6.068
40264SOL    HW222626   3.905  12.083   5.989
40265SOL     OW22627   4.604  11.264   9.371
40265SOL    HW122628   4.527  11.294   9.420
40265SOL    HW222629   4.621  11.176   9.405
40266SOL     OW22630   0.140   5.696  11.205
40266SOL    HW122631   0.107   5.636  11.272
40266SOL    HW222632   0.234   5.698  11.219
40267SOL     OW22633  11.571  10.206  10.450
40267SOL    HW122634  11.503  10.272  10.434
40267SOL    HW222635  11.644  10.232  10.394
40268SOL     OW22636  10.002  13.005  13.745
40268SOL    HW122637   9.969  12.999  13.655
40268SOL    HW222638   9.927  13.039  13.795
40269SOL     OW22639  12.948  12.623  11.782
40269SOL    HW122640  12.945  12.532  11.811
40269SOL    HW222641  12.861  12.657  11.803
40270SOL     OW22642   8.225  11.567   6.298
40270SOL    HW122643   8.141  11.612   6.307
40270SOL    HW222644   8.248  11.578   6.206
40271SOL     OW22645  12.936   3.093  12.746
40271SOL    HW122646  12.986   3.120  12.669
40271SOL    HW222647  12.880   3.022  12.715
40272SOL     OW22648   4.786  14.512  11.799
40272SOL    HW122649   4.803  14.455  11.724
40272SOL    HW222650   4.800  14.457  11.875
40273SOL     OW22651   7.865   7.767   8.115
40273SOL    HW122652   7.810   7.769   8.037
40273SOL    HW222653   7.949   7.732   8.085
40274SOL     OW22654   1.657   9.730   0.966
40274SOL    HW122655   1.596   9.803   0.972
40274SOL    HW222656   1.742   9.771   0.950
40275SOL     OW22657  10.892  12.991  11.392
40275SOL    HW122658  10.867  12.919  11.449
40275SOL    HW222659  10.816  13.049  11.392
40276SOL     OW22660   6.620  10.012   5.648
40276SOL    HW122661   6.630  10.092   5.596
40276SOL    HW222662   6.696   9.958   5.624
40277SOL     OW22663  12.084   6.774  14.731
40277SOL    HW122664  12.097   6.848  14.791
40277SOL    HW222665  12.156   6.782  14.668
40278SOL     OW22666   1.282  10.798   3.597
40278SOL    HW122667   1.187  10.794   3.593
40278SOL    HW222668   1.302  10.827   3.686
40279SOL     OW22669   7.923  13.009  11.988
40279SOL    HW122670   7.939  13.088  12.040
40279SOL    HW222671   7.842  12.972  12.024
40280SOL     OW22672  11.287   9.692   3.180
40280SOL    HW122673  11.323   9.754   3.117
40280SOL    HW222674  11.328   9.609   3.158
40281SOL     OW22675   0.214   6.781  12.060
40281SOL    HW122676   0.302   6.751  12.039
40281SOL    HW222677   0.201   6.755  12.151
40282SOL     OW22678   8.542   0.862   5.449
40282SOL    HW122679   8.600   0.797   5.408
40282SOL    HW222680   8.459   0.817   5.461
40283SOL     OW22681  11.965   4.855   8.334
40283SOL    HW122682  11.943   4.947   8.351
40283SOL    HW222683  11.955   4.846   8.239
40284SOL     OW22684   8.505   0.807  13.036
40284SOL    HW122685   8.581   0.756  13.061
40284SOL    HW222686   8.527   0.897  13.059
40285SOL     OW22687  14.277  14.695   7.562
40285SOL    HW122688  14.350  14.661   7.510
40285SOL    HW222689  14.288  14.790   7.559
40286SOL     OW22690   0.284   5.304   1.627
40286SOL    HW122691   0.297   5.378   1.568
40286SOL    HW222692   0.357   5.308   1.689
40287SOL     OW22693   8.740   9.092  12.266
40287SOL    HW122694   8.728   9.167  12.209
40287SOL    HW222695   8.773   9.129  12.348
40288SOL     OW22696   4.819  13.680   8.727
40288SOL    HW122697   4.790  13.590   8.713
40288SOL    HW222698   4.907  13.683   8.689
40289SOL     OW22699  12.181   2.612   6.066
40289SOL    HW122700  12.233   2.532   6.064
40289SOL    HW222701  12.135   2.609   6.150
40290SOL     OW22702   1.685   9.524   3.448
40290SOL    HW122703   1.728   9.599   3.490
40290SOL    HW222704   1.629   9.487   3.517
40291SOL     OW22705  12.677  11.425   0.314
40291SOL    HW122706  12.707  11.341   0.279
40291SOL    HW222707  12.696  11.489   0.245
40292SOL     OW22708  12.802   8.608  14.789
40292SOL    HW122709  12.772   8.674  14.727
40292SOL    HW222710  12.893   8.591  14.765
40293SOL     OW22711   5.074   0.135   3.845
40293SOL    HW122712   5.157   0.098   3.875
40293SOL    HW222713   5.018   0.059   3.832
40294SOL     OW22714   8.322   2.789   5.680
40294SOL    HW122715   8.290   2.740   5.756
40294SOL    HW222716   8.249   2.845   5.655
40295SOL     OW22717   3.994   3.639   2.227
40295SOL    HW122718   3.900   3.632   2.247
40295SOL    HW222719   3.998   3.691   2.147
40296SOL     OW22720   4.558   2.495  11.680
40296SOL    HW122721   4.463   2.482  11.687
40296SOL    HW222722   4.582   2.537  11.762
40297SOL     OW22723   0.449  11.766  13.429
40297SOL    HW122724   0.459  11.675  13.457
40297SOL    HW222725   0.394  11.805  13.496
40298SOL     OW22726   6.062   7.255   7.076
40298SOL    HW122727   6.124   7.327   7.076
40298SOL    HW222728   6.086   7.203   6.999
40299SOL     OW22729  10.511   3.280   6.032
40299SOL    HW122730  10.450   3.328   6.088
40299SOL    HW222731  10.596   3.287   6.077
40300SOL     OW22732   6.354  12.830  12.471
40300SOL    HW122733   6.308  12.813  12.388
40300SOL    HW222734   6.357  12.925  12.478
40301SOL     OW22735   0.984   6.422  10.267
40301SOL    HW122736   0.952   6.332  10.264
40301SOL    HW222737   0.909   6.476  10.243
40302SOL     OW22738  12.263   8.320   4.191
40302SOL    HW122739  12.358   8.314   4.196
40302SOL    HW222740  12.232   8.273   4.268
40303SOL     OW22741   0.735  11.937   4.093
40303SOL    HW122742   0.661  11.976   4.047
40303SOL    HW222743   0.704  11.926   4.183
40304SOL     OW22744  13.322   4.988   8.430
40304SOL    HW122745  13.261   4.940   8.374
40304SOL    HW222746  13.293   5.079   8.424
40305SOL     OW22747  14.279   4.798  11.753
40305SOL    HW122748  14.371   4.802  11.727
40305SOL    HW222749  14.231   4.843  11.683
40306SOL     OW22750   2.227   3.425  14.498
40306SOL    HW122751   2.200   3.432  14.589
40306SOL    HW222752   2.146   3.408  14.450
40307SOL     OW22753   9.617  14.782   4.443
40307SOL    HW122754   9.553  14.799   4.512
40307SOL    HW222755   9.619  14.687   4.435
40308SOL     OW22756   9.468   9.670   1.327
40308SOL    HW122757   9.392   9.729   1.329
40308SOL    HW222758   9.434   9.587   1.360
40309SOL     OW22759  14.592  11.855   7.051
40309SOL    HW122760  14.538  11.934   7.053
40309SOL    HW222761  14.599  11.829   7.143
40310SOL     OW22762   3.387  12.562   0.443
40310SOL    HW122763   3.327  12.489   0.435
40310SOL    HW222764   3.429  12.569   0.357
40311SOL     OW22765   3.280  12.517   7.207
40311SOL    HW122766   3.279  12.437   7.155
40311SOL    HW222767   3.366  12.515   7.251
40312SOL     OW22768   3.832  11.198  10.493
40312SOL    HW122769   3.836  11.160  10.405
40312SOL    HW222770   3.760  11.151  10.536
40313SOL     OW22771   2.328   8.939   6.488
40313SOL    HW122772   2.342   8.845   6.478
40313SOL    HW222773   2.324   8.973   6.398
40314SOL     OW22774   5.314   9.762   6.317
40314SOL    HW122775   5.244   9.757   6.382
40314SOL    HW222776   5.392   9.731   6.363
40315SOL     OW22777   2.848   8.927  10.826
40315SOL    HW122778   2.757   8.901  10.812
40315SOL    HW222779   2.846   9.023  10.826
40316SOL     OW22780   7.311  12.142  14.420
40316SOL    HW122781   7.261  12.113  14.344
40316SOL    HW222782   7.294  12.074  14.486
40317SOL     OW22783   6.662   9.352   1.438
40317SOL    HW122784   6.627   9.429   1.482
40317SOL    HW222785   6.724   9.314   1.501
40318SOL     OW22786   7.207   5.949   3.184
40318SOL    HW122787   7.275   5.966   3.118
40318SOL    HW222788   7.185   5.857   3.173
40319SOL     OW22789   4.988   3.630   3.078
40319SOL    HW122790   4.917   3.587   3.030
40319SOL    HW222791   4.944   3.696   3.131
40320SOL     OW22792  14.478   2.943   1.187
40320SOL    HW122793  14.517   2.869   1.234
40320SOL    HW222794  14.391   2.913   1.161
40321SOL     OW22795   0.359   3.581  11.901
40321SOL    HW122796   0.296   3.582  11.829
40321SOL    HW222797   0.312   3.541  11.974
40322SOL     OW22798  10.598   4.864   4.794
40322SOL    HW122799  10.535   4.838   4.862
40322SOL    HW222800  10.642   4.940   4.832
40323SOL     OW22801   1.867  12.234   9.059
40323SOL    HW122802   1.910  12.211   9.141
40323SOL    HW222803   1.774  12.216   9.075
40324SOL     OW22804  12.339  14.522   8.312
40324SOL    HW122805  12.272  14.579   8.273
40324SOL    HW222806  12.402  14.582   8.351
40325SOL     OW22807   1.511   8.591   9.266
40325SOL    HW122808   1.601   8.567   9.287
40325SOL    HW222809   1.481   8.640   9.342
40326SOL     OW22810  12.768   8.007   1.462
40326SOL    HW122811  12.734   7.918   1.468
40326SOL    HW222812  12.854   8.003   1.503
40327SOL     OW22813   2.999   5.632   4.434
40327SOL    HW122814   2.943   5.593   4.502
40327SOL    HW222815   3.039   5.708   4.477
40328SOL     OW22816  10.306   2.764  14.732
40328SOL    HW122817  10.384   2.796  14.687
40328SOL    HW222818  10.235   2.778  14.669
40329SOL     OW22819   3.869   7.803   4.953
40329SOL    HW122820   3.842   7.712   4.949
40329SOL    HW222821   3.965   7.800   4.953
40330SOL     OW22822  14.836   4.232  14.511
40330SOL    HW122823  14.868   4.166  14.572
40330SOL    HW222824  14.794   4.182  14.441
40331SOL     OW22825  13.888   6.562  14.327
40331SOL    HW122826  13.932   6.495  14.379
40331SOL    HW222827  13.827   6.603  14.387
40332SOL     OW22828  12.706  12.555   9.796
40332SOL    HW122829  12.614  12.579   9.811
40332SOL    HW222830  12.756  12.617   9.848
40333SOL     OW22831   6.826  11.064   8.640
40333SOL    HW122832   6.779  11.041   8.560
40333SOL    HW222833   6.909  11.016   8.633
40334SOL     OW22834   4.281   7.250  13.618
40334SOL    HW122835   4.290   7.337  13.580
40334SOL    HW222836   4.352   7.244  13.682
40335SOL     OW22837  11.342   3.934   3.251
40335SOL    HW122838  11.254   3.898   3.238
40335SOL    HW222839  11.336   3.983   3.333
40336SOL     OW22840   9.449   2.021   1.714
40336SOL    HW122841   9.513   2.072   1.664
40336SOL    HW222842   9.501   1.964   1.769
40337SOL     OW22843   3.836   1.717  14.235
40337SOL    HW122844   3.871   1.787  14.289
40337SOL    HW222845   3.770   1.674  14.289
40338SOL     OW22846   8.029   6.537  12.204
40338SOL    HW122847   7.976   6.555  12.126
40338SOL    HW222848   7.982   6.581  12.275
40339SOL     OW22849   3.014   7.830   0.829
40339SOL    HW122850   2.982   7.878   0.752
40339SOL    HW222851   2.947   7.843   0.895
40340SOL     OW22852  13.061   7.726   1.001
40340SOL    HW122853  13.019   7.717   1.087
40340SOL    HW222854  13.145   7.681   1.011
40341SOL     OW22855   3.222  10.343   0.312
40341SOL    HW122856   3.227  10.297   0.396
40341SOL    HW222857   3.174  10.423   0.331
40342SOL     OW22858   2.136   5.751   6.070
40342SOL    HW122859   2.093   5.759   6.155
40342SOL    HW222860   2.211   5.694   6.086
40343SOL     OW22861   5.453   8.889   3.720
40343SOL    HW122862   5.451   8.925   3.631
40343SOL    HW222863   5.466   8.965   3.776
40344SOL     OW22864  13.854  13.181   6.811
40344SOL    HW122865  13.779  13.228   6.847
40344SOL    HW222866  13.930  13.216   6.856
40345SOL     OW22867  14.689  13.411   4.101
40345SOL    HW122868  14.666  13.458   4.022
40345SOL    HW222869  14.698  13.479   4.168
40346SOL     OW22870   6.892  10.367   1.851
40346SOL    HW122871   6.984  10.367   1.880
40346SOL    HW222872   6.868  10.460   1.850
40347SOL     OW22873  12.916   8.822  10.943
40347SOL    HW122874  12.932   8.749  11.003
40347SOL    HW222875  13.003   8.856  10.923
40348SOL     OW22876   2.883   4.768   3.479
40348SOL    HW122877   2.911   4.677   3.475
40348SOL    HW222878   2.836   4.782   3.397
40349SOL     OW22879   6.672   3.659   9.088
40349SOL    HW122880   6.602   3.596   9.070
40349SOL    HW222881   6.626   3.734   9.127
40350SOL     OW22882   2.661   0.185   1.615
40350SOL    HW122883   2.592   0.147   1.559
40350SOL    HW222884   2.613   0.238   1.679
40351SOL     OW22885   4.195   5.866   2.693
40351SOL    HW122886   4.176   5.905   2.608
40351SOL    HW222887   4.138   5.913   2.754
40352SOL     OW22888   3.694  14.156  10.819
40352SOL    HW122889   3.692  14.132  10.727
40352SOL    HW222890   3.617  14.115  10.857
40353SOL     OW22891  14.285   5.513   2.507
40353SOL    HW122892  14.227   5.440   2.525
40353SOL    HW222893  14.258   5.581   2.569
40354SOL     OW22894  14.868   3.716   2.444
40354SOL    HW122895   0.065   3.736   2.389
40354SOL    HW222896  14.793   3.751   2.396
40355SOL     OW22897   8.919  13.652  12.259
40355SOL    HW122898   8.942  13.640  12.166
40355SOL    HW222899   8.978  13.593  12.305
40356SOL     OW22900   6.028  13.515   9.536
40356SOL    HW122901   6.003  13.423   9.530
40356SOL    HW222902   6.121  13.516   9.512
40357SOL     OW22903   1.477   1.986   3.899
40357SOL    HW122904   1.420   2.018   3.829
40357SOL    HW222905   1.422   1.923   3.946
40358SOL     OW22906   3.102  11.520   0.684
40358SOL    HW122907   3.013  11.486   0.674
40358SOL    HW222908   3.099  11.570   0.766
40359SOL     OW22909  13.861   1.469   8.188
40359SOL    HW122910  13.789   1.529   8.210
40359SOL    HW222911  13.930   1.490   8.250
40360SOL     OW22912   7.099   0.083   7.485
40360SOL    HW122913   7.150   0.144   7.432
40360SOL    HW222914   7.022   0.064   7.432
40361SOL     OW22915   0.611   3.324  14.363
40361SOL    HW122916   0.627   3.379  14.440
40361SOL    HW222917   0.528   3.280  14.382
40362SOL     OW22918   1.296   8.857  13.996
40362SOL    HW122919   1.356   8.784  14.007
40362SOL    HW222920   1.278   8.860  13.902
40363SOL     OW22921   9.829   2.298   7.669
40363SOL    HW122922   9.748   2.290   7.719
40363SOL    HW222923   9.820   2.233   7.599
40364SOL     OW22924  13.947   6.178   3.013
40364SOL    HW122925  13.963   6.213   2.925
40364SOL    HW222926  13.884   6.108   2.999
40365SOL     OW22927  14.311   0.482   3.779
40365SOL    HW122928  14.379   0.526   3.729
40365SOL    HW222929  14.247   0.453   3.713
40366SOL     OW22930   6.942   7.046   3.028
40366SOL    HW122931   7.013   7.108   3.045
40366SOL    HW222932   6.941   6.988   3.104
40367SOL     OW22933  11.615   6.925  10.186
40367SOL    HW122934  11.698   6.878  10.186
40367SOL    HW222935  11.549   6.856  10.199
40368SOL     OW22936  14.075  13.877   9.681
40368SOL    HW122937  14.101  13.840   9.596
40368SOL    HW222938  14.027  13.806   9.724
40369SOL     OW22939  11.972  13.013   9.029
40369SOL    HW122940  11.965  13.082   8.964
40369SOL    HW222941  11.981  13.059   9.113
40370SOL     OW22942   9.925   8.591  10.882
40370SOL    HW122943   9.972   8.509  10.865
40370SOL    HW222944   9.918   8.632  10.796
40371SOL     OW22945   2.283   9.719  11.457
40371SOL    HW122946   2.259   9.666  11.381
40371SOL    HW222947   2.323   9.656  11.518
40372SOL     OW22948  12.875  10.732   3.935
40372SOL    HW122949  12.804  10.701   3.992
40372SOL    HW222950  12.856  10.693   3.850
40373SOL     OW22951   5.756   9.846  13.609
40373SOL    HW122952   5.730   9.899  13.685
40373SOL    HW222953   5.692   9.775  13.607
40374SOL     OW22954   0.427   4.100   0.602
40374SOL    HW122955   0.466   4.186   0.586
40374SOL    HW222956   0.475   4.067   0.678
40375SOL     OW22957   6.313   1.509  10.825
40375SOL    HW122958   6.358   1.552  10.752
40375SOL    HW222959   6.368   1.435  10.847
40376SOL     OW22960  12.853   3.400   3.680
40376SOL    HW122961  12.867   3.383   3.773
40376SOL    HW222962  12.935   3.374   3.638
40377SOL     OW22963   9.364   2.251  12.520
40377SOL    HW122964   9.435   2.247  12.456
40377SOL    HW222965   9.385   2.326  12.575
40378SOL     OW22966   9.700  14.649  14.826
40378SOL    HW122967   9.777  14.592  14.822
40378SOL    HW222968   9.735  14.735  14.850
40379SOL     OW22969  12.302   0.357   2.858
40379SOL    HW122970  12.241   0.284   2.863
40379SOL    HW222971  12.278   0.402   2.777
40380SOL     OW22972  14.823   0.752   4.166
40380SOL    HW122973  14.806   0.661   4.187
40380SOL    HW222974  14.773   0.768   4.086
40381SOL     OW22975   5.280   3.441  13.116
40381SOL    HW122976   5.230   3.495  13.054
40381SOL    HW222977   5.231   3.448  13.198
40382SOL     OW22978   8.892  10.652  11.285
40382SOL    HW122979   8.868  10.576  11.232
40382SOL    HW222980   8.865  10.727  11.233
40383SOL     OW22981  10.575   0.099   9.505
40383SOL    HW122982  10.645   0.134   9.561
40383SOL    HW222983  10.619   0.035   9.449
40384SOL     OW22984   2.563   6.134   0.442
40384SOL    HW122985   2.505   6.161   0.514
40384SOL    HW222986   2.637   6.195   0.446
40385SOL     OW22987  10.490   5.625  10.325
40385SOL    HW122988  10.489   5.703  10.270
40385SOL    HW222989  10.546   5.649  10.399
40386SOL     OW22990   8.424   7.464   8.648
40386SOL    HW122991   8.350   7.524   8.636
40386SOL    HW222992   8.387   7.377   8.633
40387SOL     OW22993   5.695  10.685  11.155
40387SOL    HW122994   5.683  10.594  11.127
40387SOL    HW222995   5.765  10.681  11.221
40388SOL     OW22996  11.932  13.372  10.839
40388SOL    HW122997  11.953  13.305  10.905
40388SOL    HW222998  11.966  13.453  10.877
40389SOL     OW22999   5.640  14.154   4.979
40389SOL    HW123000   5.584  14.225   5.010
40389SOL    HW223001   5.661  14.177   4.888
40390SOL     OW23002   0.977   5.024   7.417
40390SOL    HW123003   0.921   4.953   7.450
40390SOL    HW223004   1.066   4.991   7.428
40391SOL     OW23005  12.928  10.227  11.703
40391SOL    HW123006  12.883  10.149  11.735
40391SOL    HW223007  12.858  10.283  11.671
40392SOL     OW23008   9.118   0.098   4.681
40392SOL    HW123009   9.070   0.081   4.600
40392SOL    HW223010   9.133   0.193   4.681
40393SOL     OW23011   6.266   1.612   7.167
40393SOL    HW123012   6.193   1.636   7.224
40393SOL    HW223013   6.229   1.547   7.107
40394SOL     OW23014   6.904   0.076  11.387
40394SOL    HW123015   6.820   0.121  11.391
40394SOL    HW223016   6.942   0.103  11.303
40395SOL     OW23017   2.387   2.184   8.461
40395SOL    HW123018   2.450   2.255   8.472
40395SOL    HW223019   2.335   2.211   8.385
40396SOL     OW23020   5.081   4.637   7.894
40396SOL    HW123021   5.026   4.620   7.970
40396SOL    HW223022   5.167   4.656   7.931
40397SOL     OW23023   3.736   6.147   3.756
40397SOL    HW123024   3.802   6.135   3.689
40397SOL    HW223025   3.718   6.241   3.757
40398SOL     OW23026  10.762   7.933   9.302
40398SOL    HW123027  10.704   8.009   9.314
40398SOL    HW223028  10.828   7.943   9.370
40399SOL     OW23029   6.475   3.990   5.647
40399SOL    HW123030   6.509   3.914   5.694
40399SOL    HW223031   6.388   4.004   5.685
40400SOL     OW23032   0.354   8.502   8.326
40400SOL    HW123033   0.387   8.482   8.414
40400SOL    HW223034   0.423   8.473   8.267
40401SOL     OW23035  11.852  14.049  13.148
40401SOL    HW123036  11.840  14.141  13.171
40401SOL    HW223037  11.935  14.046  13.101
40402SOL     OW23038  10.856   5.142   9.014
40402SOL    HW123039  10.803   5.206   8.967
40402SOL    HW223040  10.925   5.194   9.055
40403SOL     OW23041  11.182   6.485   0.484
40403SOL    HW123042  11.171   6.580   0.478
40403SOL    HW223043  11.219   6.470   0.571
40404SOL     OW23044   6.219  10.570  10.293
40404SOL    HW123045   6.162  10.535  10.361
40404SOL    HW223046   6.275  10.496  10.268
40405SOL     OW23047   5.623   6.789   2.119
40405SOL    HW123048   5.613   6.884   2.125
40405SOL    HW223049   5.580   6.766   2.036
40406SOL     OW23050  14.216   7.844  12.543
40406SOL    HW123051  14.147   7.859  12.479
40406SOL    HW223052  14.226   7.749  12.546
40407SOL     OW23053   2.474  11.957   4.472
40407SOL    HW123054   2.562  11.955   4.433
40407SOL    HW223055   2.433  12.034   4.433
40408SOL     OW23056   1.414   3.263   0.695
40408SOL    HW123057   1.409   3.194   0.761
40408SOL    HW223058   1.420   3.344   0.746
40409SOL     OW23059   4.346   1.424   5.875
40409SOL    HW123060   4.420   1.485   5.885
40409SOL    HW223061   4.299   1.455   5.798
40410SOL     OW23062   0.873  14.535   8.782
40410SOL    HW123063   0.891  14.447   8.817
40410SOL    HW223064   0.958  14.579   8.783
40411SOL     OW23065   3.293  10.891   5.192
40411SOL    HW123066   3.225  10.956   5.204
40411SOL    HW223067   3.370  10.941   5.164
40412SOL     OW23068   2.884   9.614   2.210
40412SOL    HW123069   2.930   9.690   2.248
40412SOL    HW223070   2.889   9.627   2.116
40413SOL     OW23071   7.349  12.311   5.022
40413SOL    HW123072   7.431  12.293   5.067
40413SOL    HW223073   7.316  12.391   5.063
40414SOL     OW23074   7.929   4.050   1.891
40414SOL    HW123075   8.013   4.096   1.895
40414SOL    HW223076   7.865   4.113   1.923
40415SOL     OW23077   5.053   8.076   2.025
40415SOL    HW123078   5.078   8.077   2.117
40415SOL    HW223079   4.963   8.109   2.024
40416SOL     OW23080   3.626   0.782   9.689
40416SOL    HW123081   3.604   0.869   9.655
40416SOL    HW223082   3.687   0.746   9.624
40417SOL     OW23083   0.893   6.358  13.541
40417SOL    HW123084   0.880   6.409  13.461
40417SOL    HW223085   0.960   6.293  13.518
40418SOL     OW23086   1.051   3.816   2.254
40418SOL    HW123087   1.055   3.733   2.206
40418SOL    HW223088   0.960   3.845   2.243
40419SOL     OW23089   5.232  13.972   3.699
40419SOL    HW123090   5.267  14.015   3.777
40419SOL    HW223091   5.141  14.000   3.695
40420SOL     OW23092   2.758  10.474  11.423
40420SOL    HW123093   2.665  10.474  11.401
40420SOL    HW223094   2.760  10.451  11.516
40421SOL     OW23095  13.291   3.363   5.920
40421SOL    HW123096  13.236   3.403   5.987
40421SOL    HW223097  13.360   3.318   5.970
40422SOL     OW23098   1.053   5.939   8.133
40422SOL    HW123099   1.036   5.867   8.072
40422SOL    HW223100   0.973   5.946   8.185
40423SOL     OW23101  13.124   6.519  12.979
40423SOL    HW123102  13.146   6.551  13.066
40423SOL    HW223103  13.182   6.566  12.920
40424SOL     OW23104  14.325   8.116   0.966
40424SOL    HW123105  14.345   8.034   0.921
40424SOL    HW223106  14.304   8.090   1.056
40425SOL     OW23107   7.318   3.279  13.131
40425SOL    HW123108   7.235   3.319  13.108
40425SOL    HW223109   7.295   3.206  13.189
40426SOL     OW23110   0.016   6.948   7.674
40426SOL    HW123111   0.046   6.897   7.750
40426SOL    HW223112   0.020   7.039   7.703
40427SOL     OW23113   8.011   6.232   3.461
40427SOL    HW123114   8.095   6.214   3.502
40427SOL    HW223115   8.024   6.312   3.412
40428SOL     OW23116   7.337   5.734   7.415
40428SOL    HW123117   7.418   5.682   7.420
40428SOL    HW223118   7.355   5.799   7.347
40429SOL     OW23119   1.322  11.365   1.894
40429SOL    HW123120   1.360  11.366   1.807
40429SOL    HW223121   1.381  11.421   1.946
40430SOL     OW23122   5.039  11.656   0.517
40430SOL    HW123123   5.063  11.723   0.453
40430SOL    HW223124   5.121  11.607   0.531
40431SOL     OW23125  10.572   1.283   1.522
40431SOL    HW123126  10.559   1.297   1.428
40431SOL    HW223127  10.571   1.370   1.560
40432SOL     OW23128   5.046   4.973   7.853
40432SOL    HW123129   4.983   5.041   7.877
40432SOL    HW223130   4.994   4.894   7.843
40433SOL     OW23131   8.480  13.975   9.813
40433SOL    HW123132   8.476  14.066   9.781
40433SOL    HW223133   8.446  13.923   9.740
40434SOL     OW23134   5.375   2.839   7.654
40434SOL    HW123135   5.367   2.932   7.634
40434SOL    HW223136   5.296   2.818   7.704
40435SOL     OW23137  10.236   1.006  12.034
40435SOL    HW123138  10.193   0.922  12.048
40435SOL    HW223139  10.328   0.983  12.017
40436SOL     OW23140   3.645  12.173   5.419
40436SOL    HW123141   3.670  12.161   5.328
40436SOL    HW223142   3.678  12.095   5.464
40437SOL     OW23143  10.448  14.781   5.924
40437SOL    HW123144  10.511  14.717   5.892
40437SOL    HW223145  10.406  14.816   5.845
40438SOL     OW23146   1.602  14.351   2.989
40438SOL    HW123147   1.522  14.401   3.003
40438SOL    HW223148   1.574  14.273   2.942
40439SOL     OW23149   3.408   6.172   1.722
40439SOL    HW123150   3.368   6.127   1.797
40439SOL    HW223151   3.390   6.114   1.648
40440SOL     OW23152   1.057   9.240   6.902
40440SOL    HW123153   1.139   9.210   6.941
40440SOL    HW223154   1.008   9.278   6.975
40441SOL     OW23155   8.487  13.517   9.924
40441SOL    HW123156   8.531  13.570   9.857
40441SOL    HW223157   8.527  13.544  10.007
40442SOL     OW23158   8.670   7.325   3.671
40442SOL    HW123159   8.635   7.327   3.760
40442SOL    HW223160   8.600   7.289   3.618
40443SOL     OW23161   4.550   5.139   9.296
40443SOL    HW123162   4.525   5.089   9.374
40443SOL    HW223163   4.643   5.118   9.283
40444SOL     OW23164   7.165   3.664   1.668
40444SOL    HW123165   7.205   3.676   1.582
40444SOL    HW223166   7.215   3.721   1.726
40445SOL     OW23167   0.990   4.888   6.596
40445SOL    HW123168   1.007   4.807   6.547
40445SOL    HW223169   1.072   4.906   6.642
40446SOL     OW23170   9.027   9.796  13.069
40446SOL    HW123171   8.959   9.805  13.136
40446SOL    HW223172   9.034   9.884  13.031
40447SOL     OW23173   8.599  13.881   4.687
40447SOL    HW123174   8.673  13.821   4.676
40447SOL    HW223175   8.527  13.838   4.641
40448SOL     OW23176  14.655  12.812  13.820
40448SOL    HW123177  14.570  12.809  13.864
40448SOL    HW223178  14.716  12.842  13.888
40449SOL     OW23179   3.393   7.717  14.135
40449SOL    HW123180   3.412   7.722  14.229
40449SOL    HW223181   3.478   7.697  14.095
40450SOL     OW23182   0.199   0.688   9.371
40450SOL    HW123183   0.166   0.616   9.317
40450SOL    HW223184   0.248   0.645   9.441
40451SOL     OW23185   4.886  11.464  13.722
40451SOL    HW123186   4.960  11.497  13.672
40451SOL    HW223187   4.812  11.518  13.694
40452SOL     OW23188   5.263  12.078  14.108
40452SOL    HW123189   5.183  12.079  14.055
40452SOL    HW223190   5.232  12.074  14.198
40453SOL     OW23191  11.833  14.851   0.184
40453SOL    HW123192  11.766  14.799   0.227
40453SOL    HW223193  11.793   0.057   0.170
40454SOL     OW23194   1.433  10.673   3.217
40454SOL    HW123195   1.490  10.749   3.228
40454SOL    HW223196   1.458  10.636   3.132
40455SOL     OW23197   1.380  13.864   4.981
40455SOL    HW123198   1.422  13.816   5.052
40455SOL    HW223199   1.451  13.908   4.936
40456SOL     OW23200  10.134   0.336   3.905
40456SOL    HW123201  10.194   0.350   3.978
40456SOL    HW223202  10.107   0.245   3.914
40457SOL     OW23203   9.005   0.082   9.567
40457SOL    HW123204   9.022   0.174   9.588
40457SOL    HW223205   9.072   0.059   9.503
40458SOL     OW23206   3.814  10.733   5.626
40458SOL    HW123207   3.781  10.772   5.544
40458SOL    HW223208   3.781  10.643   5.625
40459SOL     OW23209   7.396  11.397   6.610
40459SOL    HW123210   7.471  11.356   6.654
40459SOL    HW223211   7.341  11.323   6.584
40460SOL     OW23212   9.758   2.323   1.096
40460SOL    HW123213   9.806   2.406   1.088
40460SOL    HW223214   9.809   2.262   1.043
40461SOL     OW23215   0.827   5.136  13.942
40461SOL    HW123216   0.825   5.102  13.852
40461SOL    HW223217   0.911   5.182  13.947
40462SOL     OW23218   2.898   9.486  11.173
40462SOL    HW123219   2.854   9.463  11.091
40462SOL    HW223220   2.827   9.496  11.236
40463SOL     OW23221   2.566   0.010   9.251
40463SOL    HW123222   2.598   0.079   9.309
40463SOL    HW223223   2.507  14.837   9.306
40464SOL     OW23224  13.922   3.962   4.243
40464SOL    HW123225  13.931   3.869   4.221
40464SOL    HW223226  13.899   4.005   4.161
40465SOL     OW23227   8.865   6.190  12.781
40465SOL    HW123228   8.845   6.271  12.829
40465SOL    HW223229   8.905   6.133  12.846
40466SOL     OW23230   5.754  13.673  13.085
40466SOL    HW123231   5.710  13.608  13.030
40466SOL    HW223232   5.804  13.621  13.149
40467SOL     OW23233  10.236   4.855   8.097
40467SOL    HW123234  10.249   4.761   8.101
40467SOL    HW223235  10.195   4.871   8.012
40468SOL     OW23236   9.172  13.123   3.860
40468SOL    HW123237   9.237  13.053   3.872
40468SOL    HW223238   9.089  13.077   3.846
40469SOL     OW23239   0.377   1.252   4.008
40469SOL    HW123240   0.377   1.345   3.983
40469SOL    HW223241   0.454   1.242   4.064
40470SOL     OW23242  12.508   0.345   9.198
40470SOL    HW123243  12.532   0.351   9.290
40470SOL    HW223244  12.417   0.372   9.194
40471SOL     OW23245  14.359  13.153  12.565
40471SOL    HW123246  14.429  13.202  12.609
40471SOL    HW223247  14.403  13.077  12.528
40472SOL     OW23248   3.319   5.553   1.366
40472SOL    HW123249   3.314   5.634   1.315
40472SOL    HW223250   3.410   5.526   1.358
40473SOL     OW23251   5.434   5.211  12.779
40473SOL    HW123252   5.453   5.282  12.718
40473SOL    HW223253   5.338   5.204  12.779
40474SOL     OW23254   7.862  11.239   2.368
40474SOL    HW123255   7.818  11.156   2.348
40474SOL    HW223256   7.859  11.288   2.286
40475SOL     OW23257  11.124   6.318  10.996
40475SOL    HW123258  11.032   6.345  11.004
40475SOL    HW223259  11.151   6.301  11.086
40476SOL     OW23260   0.504   8.214  14.870
40476SOL    HW123261   0.515   8.155   0.066
40476SOL    HW223262   0.410   8.212  14.851
40477SOL     OW23263   1.667  13.975   5.289
40477SOL    HW123264   1.716  13.946   5.366
40477SOL    HW223265   1.725  14.036   5.244
40478SOL     OW23266  11.153  13.255   8.218
40478SOL    HW123267  11.153  13.317   8.291
40478SOL    HW223268  11.070  13.208   8.227
40479SOL     OW23269   1.905   4.700   6.742
40479SOL    HW123270   1.991   4.734   6.765
40479SOL    HW223271   1.850   4.779   6.733
40480SOL     OW23272   8.704   8.191   3.139
40480SOL    HW123273   8.668   8.175   3.052
40480SOL    HW223274   8.694   8.285   3.151
40481SOL     OW23275  10.427   3.878   0.221
40481SOL    HW123276  10.392   3.946   0.278
40481SOL    HW223277  10.370   3.880   0.144
40482SOL     OW23278   5.436   8.318   6.193
40482SOL    HW123279   5.393   8.278   6.268
40482SOL    HW223280   5.526   8.287   6.197
40483SOL     OW23281  11.972   5.591  14.827
40483SOL    HW123282  11.961   5.554   0.035
40483SOL    HW223283  11.885   5.588  14.788
40484SOL     OW23284  13.326  11.532   9.137
40484SOL    HW123285  13.234  11.514   9.121
40484SOL    HW223286  13.354  11.585   9.062
40485SOL     OW23287  10.341   4.372   4.539
40485SOL    HW123288  10.300   4.425   4.608
40485SOL    HW223289  10.304   4.406   4.458
40486SOL     OW23290   0.300  11.391   6.415
40486SOL    HW123291   0.328  11.472   6.373
40486SOL    HW223292   0.213  11.373   6.378
40487SOL     OW23293   6.379   6.831   9.019
40487SOL    HW123294   6.420   6.880   8.949
40487SOL    HW223295   6.296   6.801   8.983
40488SOL     OW23296   5.613   9.072   3.008
40488SOL    HW123297   5.645   9.125   2.934
40488SOL    HW223298   5.525   9.105   3.024
40489SOL     OW23299   3.285   4.277   3.030
40489SOL    HW123300   3.264   4.370   3.034
40489SOL    HW223301   3.311   4.262   2.939
40490SOL     OW23302  11.444  13.081  12.531
40490SOL    HW123303  11.530  13.054  12.563
40490SOL    HW223304  11.424  13.019  12.460
40491SOL     OW23305   4.094   3.769  13.924
40491SOL    HW123306   4.142   3.744  14.003
40491SOL    HW223307   4.014   3.810  13.956
40492SOL     OW23308   4.276   6.574   6.232
40492SOL    HW123309   4.261   6.657   6.186
40492SOL    HW223310   4.194   6.526   6.220
40493SOL     OW23311  11.231   6.895   8.214
40493SOL    HW123312  11.255   6.932   8.299
40493SOL    HW223313  11.142   6.863   8.226
40494SOL     OW23314   6.702   0.626   8.293
40494SOL    HW123315   6.734   0.624   8.383
40494SOL    HW223316   6.724   0.540   8.258
40495SOL     OW23317   7.721   0.030   9.276
40495SOL    HW123318   7.704  14.832   9.223
40495SOL    HW223319   7.670   0.100   9.235
40496SOL     OW23320  14.505   8.884  12.863
40496SOL    HW123321  14.532   8.795  12.837
40496SOL    HW223322  14.454   8.916  12.789
40497SOL     OW23323   8.573   5.969  11.874
40497SOL    HW123324   8.513   5.922  11.932
40497SOL    HW223325   8.594   6.049  11.922
40498SOL     OW23326   9.246   1.861   9.727
40498SOL    HW123327   9.275   1.948   9.698
40498SOL    HW223328   9.327   1.811   9.738
40499SOL     OW23329   2.472   8.024   3.441
40499SOL    HW123330   2.387   7.985   3.464
40499SOL    HW223331   2.537   7.964   3.479
40500SOL     OW23332  14.357   2.879   6.191
40500SOL    HW123333  14.292   2.949   6.187
40500SOL    HW223334  14.316   2.805   6.147
40501SOL     OW23335   5.781  10.948  11.226
40501SOL    HW123336   5.751  10.869  11.182
40501SOL    HW223337   5.702  10.987  11.263
40502SOL     OW23338   7.174   0.734  10.579
40502SOL    HW123339   7.157   0.775  10.664
40502SOL    HW223340   7.236   0.793  10.536
40503SOL     OW23341   1.138   2.468  14.820
40503SOL    HW123342   1.148   2.426   0.027
40503SOL    HW223343   1.227   2.496  14.797
40504SOL     OW23344   3.664  13.687   0.043
40504SOL    HW123345   3.678  13.734  14.840
40504SOL    HW223346   3.749  13.647   0.063
40505SOL     OW23347  14.317   0.517   4.303
40505SOL    HW123348  14.366   0.509   4.222
40505SOL    HW223349  14.228   0.538   4.276
40506SOL     OW23350   6.707  11.299   4.015
40506SOL    HW123351   6.643  11.341   3.958
40506SOL    HW223352   6.774  11.265   3.956
40507SOL     OW23353   6.786   6.663   6.318
40507SOL    HW123354   6.732   6.604   6.371
40507SOL    HW223355   6.740   6.747   6.322
40508SOL     OW23356   6.128   9.107   6.800
40508SOL    HW123357   6.083   9.113   6.716
40508SOL    HW223358   6.148   9.198   6.823
40509SOL     OW23359   4.413   0.934   1.763
40509SOL    HW123360   4.406   0.949   1.857
40509SOL    HW223361   4.323   0.941   1.731
40510SOL     OW23362  11.122   2.714  11.911
40510SOL    HW123363  11.191   2.651  11.933
40510SOL    HW223364  11.080   2.677  11.834
40511SOL     OW23365   6.964  14.785   6.912
40511SOL    HW123366   6.977  14.781   6.817
40511SOL    HW223367   6.961  14.879   6.931
40512SOL     OW23368   9.915   6.510  11.798
40512SOL    HW123369   9.926   6.594  11.843
40512SOL    HW223370   9.887   6.450  11.867
40513SOL     OW23371  13.512  14.509  12.458
40513SOL    HW123372  13.487  14.454  12.385
40513SOL    HW223373  13.598  14.544  12.433
40514SOL     OW23374  10.163  12.773   2.220
40514SOL    HW123375  10.239  12.747   2.167
40514SOL    HW223376  10.201  12.823   2.292
40515SOL     OW23377   3.566   5.555   6.601
40515SOL    HW123378   3.589   5.493   6.671
40515SOL    HW223379   3.642   5.556   6.544
40516SOL     OW23380   4.815   3.489  12.899
40516SOL    HW123381   4.768   3.554  12.847
40516SOL    HW223382   4.898   3.475  12.852
40517SOL     OW23383   3.941  10.965   7.659
40517SOL    HW123384   3.989  10.952   7.578
40517SOL    HW223385   3.948  11.059   7.677
40518SOL     OW23386   5.169  14.102   9.166
40518SOL    HW123387   5.139  14.024   9.213
40518SOL    HW223388   5.169  14.172   9.232
40519SOL     OW23389   6.632   2.981   6.677
40519SOL    HW123390   6.594   3.023   6.600
40519SOL    HW223391   6.724   3.004   6.674
40520SOL     OW23392   7.545   2.393  13.735
40520SOL    HW123393   7.557   2.470  13.679
40520SOL    HW223394   7.628   2.382  13.781
40521SOL     OW23395  12.653  13.484   7.204
40521SOL    HW123396  12.690  13.570   7.225
40521SOL    HW223397  12.558  13.497   7.205
40522SOL     OW23398   6.859   3.779  12.853
40522SOL    HW123399   6.825   3.839  12.786
40522SOL    HW223400   6.837   3.821  12.936
40523SOL     OW23401   5.538   3.469   1.596
40523SOL    HW123402   5.517   3.462   1.503
40523SOL    HW223403   5.600   3.542   1.601
40524SOL     OW23404   7.076   8.535   2.313
40524SOL    HW123405   7.065   8.534   2.218
40524SOL    HW223406   7.103   8.625   2.333
40525SOL     OW23407   6.070   8.158   7.381
40525SOL    HW123408   6.086   8.153   7.476
40525SOL    HW223409   6.141   8.212   7.347
40526SOL     OW23410  13.795  12.073  12.262
40526SOL    HW123411  13.816  11.983  12.235
40526SOL    HW223412  13.862  12.095  12.326
40527SOL     OW23413  14.015   7.883  14.316
40527SOL    HW123414  14.082   7.925  14.370
40527SOL    HW223415  13.935   7.891  14.367
40528SOL     OW23416   3.671  12.052   7.717
40528SOL    HW123417   3.689  12.100   7.798
40528SOL    HW223418   3.751  12.062   7.665
40529SOL     OW23419  13.456  12.204   3.107
40529SOL    HW123420  13.490  12.123   3.068
40529SOL    HW223421  13.361  12.190   3.111
40530SOL     OW23422   8.367  10.014   1.879
40530SOL    HW123423   8.360   9.919   1.889
40530SOL    HW223424   8.399  10.044   1.964
40531SOL     OW23425   4.329  11.402   7.963
40531SOL    HW123426   4.302  11.392   8.055
40531SOL    HW223427   4.399  11.337   7.952
40532SOL     OW23428   8.224   3.764   7.113
40532SOL    HW123429   8.282   3.708   7.061
40532SOL    HW223430   8.144   3.713   7.123
40533SOL     OW23431  12.366  13.479   2.170
40533SOL    HW123432  12.279  13.443   2.153
40533SOL    HW223433  12.392  13.441   2.254
40534SOL     OW23434   4.511   6.004   6.129
40534SOL    HW123435   4.507   5.909   6.126
40534SOL    HW223436   4.596   6.026   6.091
40535SOL     OW23437   0.604   9.404  14.500
40535SOL    HW123438   0.586   9.311  14.513
40535SOL    HW223439   0.649   9.408  14.415
40536SOL     OW23440   3.993   1.436  14.820
40536SOL    HW123441   4.017   1.432  14.728
40536SOL    HW223442   4.077   1.444  14.866
40537SOL     OW23443   1.633   9.938   2.614
40537SOL    HW123444   1.619  10.033   2.615
40537SOL    HW223445   1.715   9.926   2.567
40538SOL     OW23446  12.481   7.050   0.981
40538SOL    HW123447  12.451   7.088   1.063
40538SOL    HW223448  12.481   7.123   0.919
40539SOL     OW23449   0.478  10.606  13.129
40539SOL    HW123450   0.541  10.536  13.112
40539SOL    HW223451   0.394  10.560  13.137
40540SOL     OW23452   9.199   1.962  10.712
40540SOL    HW123453   9.195   1.887  10.652
40540SOL    HW223454   9.239   2.032  10.661
40541SOL     OW23455  10.812   4.966   1.603
40541SOL    HW123456  10.843   5.057   1.600
40541SOL    HW223457  10.749   4.964   1.674
40542SOL     OW23458   2.260   0.492  13.877
40542SOL    HW123459   2.201   0.417  13.881
40542SOL    HW223460   2.281   0.511  13.969
40543SOL     OW23461   9.772   9.684  13.740
40543SOL    HW123462   9.777   9.779  13.729
40543SOL    HW223463   9.687   9.660  13.703
40544SOL     OW23464  13.447   1.963   1.214
40544SOL    HW123465  13.441   1.873   1.183
40544SOL    HW223466  13.360   1.982   1.250
40545SOL     OW23467  12.191   7.263  13.859
40545SOL    HW123468  12.173   7.346  13.903
40545SOL    HW223469  12.241   7.287  13.782
40546SOL     OW23470  10.782   2.495  10.493
40546SOL    HW123471  10.813   2.532  10.411
40546SOL    HW223472  10.839   2.419  10.509
40547SOL     OW23473   9.364   2.116  10.865
40547SOL    HW123474   9.322   2.034  10.839
40547SOL    HW223475   9.319   2.140  10.946
40548SOL     OW23476  11.095   2.226   7.593
40548SOL    HW123477  11.118   2.133   7.600
40548SOL    HW223478  11.156   2.260   7.527
40549SOL     OW23479  11.757   9.216   4.672
40549SOL    HW123480  11.850   9.216   4.692
40549SOL    HW223481  11.715   9.181   4.750
40550SOL     OW23482   8.316  13.806  12.328
40550SOL    HW123483   8.226  13.836  12.315
40550SOL    HW223484   8.326  13.733  12.267
40551SOL     OW23485   0.543   6.530   8.658
40551SOL    HW123486   0.562   6.437   8.657
40551SOL    HW223487   0.607   6.569   8.598
40552SOL     OW23488  13.867  10.811   7.191
40552SOL    HW123489  13.943  10.859   7.225
40552SOL    HW223490  13.893  10.718   7.198
40553SOL     OW23491   0.062  13.276   0.598
40553SOL    HW123492   0.055  13.225   0.517
40553SOL    HW223493   0.081  13.365   0.569
40554SOL     OW23494   6.265   3.279  13.872
40554SOL    HW123495   6.342   3.275  13.928
40554SOL    HW223496   6.198   3.229  13.920
40555SOL     OW23497   1.326  12.791   5.287
40555SOL    HW123498   1.239  12.761   5.260
40555SOL    HW223499   1.350  12.857   5.222
40556SOL     OW23500  10.552   7.646  11.948
40556SOL    HW123501  10.569   7.726  11.898
40556SOL    HW223502  10.509   7.676  12.028
40557SOL     OW23503   1.703  12.895   3.217
40557SOL    HW123504   1.745  12.818   3.180
40557SOL    HW223505   1.624  12.861   3.260
40558SOL     OW23506   2.200   9.944  14.216
40558SOL    HW123507   2.246   9.867  14.248
40558SOL    HW223508   2.263  10.016  14.225
40559SOL     OW23509   2.166  11.574   2.987
40559SOL    HW123510   2.116  11.588   3.068
40559SOL    HW223511   2.099  11.555   2.921
40560SOL     OW23512   6.179  10.129  12.287
40560SOL    HW123513   6.133  10.049  12.312
40560SOL    HW223514   6.110  10.189  12.258
40561SOL     OW23515  10.680   9.839  10.812
40561SOL    HW123516  10.651   9.930  10.805
40561SOL    HW223517  10.626   9.791  10.750
40562SOL     OW23518   7.696   3.322   1.113
40562SOL    HW123519   7.742   3.242   1.137
40562SOL    HW223520   7.745   3.356   1.038
40563SOL     OW23521   5.216  11.499  10.484
40563SOL    HW123522   5.262  11.500  10.400
40563SOL    HW223523   5.285  11.480  10.548
40564SOL     OW23524  11.617   2.530   1.956
40564SOL    HW123525  11.588   2.446   1.921
40564SOL    HW223526  11.615   2.590   1.881
40565SOL     OW23527  11.809   6.689   2.763
40565SOL    HW123528  11.904   6.674   2.764
40565SOL    HW223529  11.788   6.701   2.670
40566SOL     OW23530  14.035  11.579  11.779
40566SOL    HW123531  14.070  11.613  11.696
40566SOL    HW223532  14.008  11.489  11.758
40567SOL     OW23533  10.180  13.480   8.780
40567SOL    HW123534  10.257  13.522   8.743
40567SOL    HW223535  10.185  13.390   8.748
40568SOL     OW23536   1.445   2.289  12.031
40568SOL    HW123537   1.359   2.247  12.025
40568SOL    HW223538   1.426   2.378  12.062
40569SOL     OW23539   8.623   2.929   2.505
40569SOL    HW123540   8.627   2.943   2.599
40569SOL    HW223541   8.570   2.850   2.495
40570SOL     OW23542   9.226  14.601   5.997
40570SOL    HW123543   9.299  14.662   6.013
40570SOL    HW223544   9.149  14.647   6.030
40571SOL     OW23545  14.030   1.649  14.306
40571SOL    HW123546  14.044   1.575  14.367
40571SOL    HW223547  13.936   1.665  14.310
40572SOL     OW23548   5.787  12.593  13.795
40572SOL    HW123549   5.850  12.527  13.824
40572SOL    HW223550   5.790  12.588  13.699
40573SOL     OW23551   3.260  13.474   6.277
40573SOL    HW123552   3.270  13.515   6.192
40573SOL    HW223553   3.310  13.393   6.271
40574SOL     OW23554   0.339  11.711   2.828
40574SOL    HW123555   0.246  11.719   2.846
40574SOL    HW223556   0.365  11.629   2.871
40575SOL     OW23557   0.016   2.948  12.392
40575SOL    HW123558  14.853   2.888  12.453
40575SOL    HW223559  14.839   3.026  12.391
40576SOL     OW23560   4.175   6.563   7.088
40576SOL    HW123561   4.178   6.599   7.000
40576SOL    HW223562   4.163   6.469   7.075
40577SOL     OW23563   0.557  10.452   0.498
40577SOL    HW123564   0.541  10.546   0.489
40577SOL    HW223565   0.471  10.416   0.520
40578SOL     OW23566   4.102  12.405   8.057
40578SOL    HW123567   4.191  12.371   8.061
40578SOL    HW223568   4.046  12.328   8.070
40579SOL     OW23569  10.653   5.384  11.417
40579SOL    HW123570  10.640   5.410  11.326
40579SOL    HW223571  10.734   5.428  11.443
40580SOL     OW23572  13.411  13.725  13.175
40580SOL    HW123573  13.480  13.791  13.180
40580SOL    HW223574  13.453  13.644  13.204
40581SOL     OW23575   3.874   0.726   4.640
40581SOL    HW123576   3.811   0.697   4.705
40581SOL    HW223577   3.893   0.817   4.664
40582SOL     OW23578   7.388  13.024   5.631
40582SOL    HW123579   7.402  12.941   5.585
40582SOL    HW223580   7.476  13.061   5.641
40583SOL     OW23581   3.971  13.639   3.639
40583SOL    HW123582   3.939  13.548   3.645
40583SOL    HW223583   4.063  13.630   3.614
40584SOL     OW23584  12.658  12.774   0.756
40584SOL    HW123585  12.710  12.852   0.740
40584SOL    HW223586  12.574  12.807   0.789
40585SOL     OW23587   6.895  11.254   3.820
40585SOL    HW123588   6.977  11.303   3.806
40585SOL    HW223589   6.902  11.178   3.764
40586SOL     OW23590   0.869   2.613   1.185
40586SOL    HW123591   0.937   2.646   1.244
40586SOL    HW223592   0.917   2.586   1.106
40587SOL     OW23593  12.193   8.625   2.676
40587SOL    HW123594  12.110   8.664   2.649
40587SOL    HW223595  12.230   8.591   2.595
40588SOL     OW23596   9.169  11.610  10.992
40588SOL    HW123597   9.199  11.533  11.039
40588SOL    HW223598   9.085  11.583  10.954
40589SOL     OW23599  12.531   2.991  10.763
40589SOL    HW123600  12.595   2.921  10.758
40589SOL    HW223601  12.518   3.018  10.672
40590SOL     OW23602   4.565   2.933   0.968
40590SOL    HW123603   4.553   2.838   0.970
40590SOL    HW223604   4.582   2.957   1.059
40591SOL     OW23605  12.059  14.492   1.338
40591SOL    HW123606  11.999  14.462   1.271
40591SOL    HW223607  12.135  14.435   1.330
40592SOL     OW23608   0.148   9.733   9.350
40592SOL    HW123609   0.057   9.706   9.332
40592SOL    HW223610   0.195   9.650   9.356
40593SOL     OW23611   1.773  14.111   2.448
40593SOL    HW123612   1.777  14.175   2.377
40593SOL    HW223613   1.789  14.027   2.404
40594SOL     OW23614   0.741   6.528   2.190
40594SOL    HW123615   0.770   6.596   2.252
40594SOL    HW223616   0.769   6.446   2.230
40595SOL     OW23617   3.388  12.417   7.918
40595SOL    HW123618   3.410  12.445   7.829
40595SOL    HW223619   3.303  12.374   7.909
40596SOL     OW23620  12.918  13.033   6.167
40596SOL    HW123621  13.002  13.057   6.128
40596SOL    HW223622  12.868  13.114   6.168
40597SOL     OW23623  11.831  12.121  12.903
40597SOL    HW123624  11.873  12.036  12.919
40597SOL    HW223625  11.837  12.133  12.808
40598SOL     OW23626  10.693   9.156   4.905
40598SOL    HW123627  10.645   9.086   4.950
40598SOL    HW223628  10.766   9.176   4.963
40599SOL     OW23629  10.983   8.824  11.209
40599SOL    HW123630  10.975   8.891  11.277
40599SOL    HW223631  11.052   8.856  11.151
40600SOL     OW23632  11.877  12.265  14.854
40600SOL    HW123633  11.905  12.354  14.877
40600SOL    HW223634  11.787  12.260   0.006
40601SOL     OW23635   5.179   0.752  12.838
40601SOL    HW123636   5.146   0.663  12.852
40601SOL    HW223637   5.207   0.753  12.746
40602SOL     OW23638   2.925   5.455   6.656
40602SOL    HW123639   2.925   5.538   6.704
40602SOL    HW223640   3.018   5.436   6.641
40603SOL     OW23641   8.743   3.293  11.271
40603SOL    HW123642   8.805   3.236  11.227
40603SOL    HW223643   8.668   3.237  11.289
40604SOL     OW23644  13.533   9.445   9.223
40604SOL    HW123645  13.572   9.466   9.308
40604SOL    HW223646  13.443   9.419   9.243
40605SOL     OW23647   6.835   3.700  10.064
40605SOL    HW123648   6.825   3.694  10.159
40605SOL    HW223649   6.930   3.707  10.051
40606SOL     OW23650   8.608  11.902   0.265
40606SOL    HW123651   8.564  11.836   0.211
40606SOL    HW223652   8.606  11.866   0.353
40607SOL     OW23653   9.220   5.153  10.643
40607SOL    HW123654   9.220   5.057  10.649
40607SOL    HW223655   9.282   5.181  10.710
40608SOL     OW23656  14.365   1.440   1.338
40608SOL    HW123657  14.332   1.366   1.287
40608SOL    HW223658  14.434   1.403   1.393
40609SOL     OW23659  10.147  14.390   8.397
40609SOL    HW123660  10.076  14.423   8.451
40609SOL    HW223661  10.107  14.373   8.312
40610SOL     OW23662   9.714   0.882  10.462
40610SOL    HW123663   9.667   0.952  10.508
40610SOL    HW223664   9.787   0.860  10.519
40611SOL     OW23665   3.492  12.513  12.926
40611SOL    HW123666   3.444  12.572  12.869
40611SOL    HW223667   3.525  12.445  12.867
40612SOL     OW23668   2.666  14.093   5.716
40612SOL    HW123669   2.748  14.142   5.718
40612SOL    HW223670   2.623  14.123   5.636
40613SOL     OW23671   2.671   8.021   9.145
40613SOL    HW123672   2.607   7.987   9.083
40613SOL    HW223673   2.657   8.115   9.145
40614SOL     OW23674   1.340   8.080   9.289
40614SOL    HW123675   1.408   8.147   9.297
40614SOL    HW223676   1.275   8.103   9.356
40615SOL     OW23677   2.986   0.560  11.778
40615SOL    HW123678   3.066   0.607  11.756
40615SOL    HW223679   2.924   0.585  11.709
40616SOL     OW23680   8.662   9.578  10.159
40616SOL    HW123681   8.668   9.650  10.096
40616SOL    HW223682   8.690   9.501  10.109
40617SOL     OW23683   8.816   5.904   1.364
40617SOL    HW123684   8.899   5.904   1.316
40617SOL    HW223685   8.840   5.934   1.452
40618SOL     OW23686   5.109  10.771   9.996
40618SOL    HW123687   5.026  10.819  10.003
40618SOL    HW223688   5.086  10.681  10.019
40619SOL     OW23689   3.961   0.287   0.961
40619SOL    HW123690   3.951   0.194   0.939
40619SOL    HW223691   3.945   0.333   0.879
40620SOL     OW23692   0.443   3.154   4.407
40620SOL    HW123693   0.355   3.120   4.393
40620SOL    HW223694   0.438   3.204   4.488
40621SOL     OW23695   4.761   7.032   1.315
40621SOL    HW123696   4.719   7.082   1.385
40621SOL    HW223697   4.727   7.069   1.234
40622SOL     OW23698  13.976   5.385   9.980
40622SOL    HW123699  13.908   5.428   9.929
40622SOL    HW223700  14.042   5.359   9.915
40623SOL     OW23701   5.991   6.036   5.765
40623SOL    HW123702   5.969   6.033   5.672
40623SOL    HW223703   6.053   6.108   5.773
40624SOL     OW23704   7.751   1.890   8.543
40624SOL    HW123705   7.715   1.882   8.455
40624SOL    HW223706   7.809   1.815   8.552
40625SOL     OW23707   3.292  11.412  10.845
40625SOL    HW123708   3.365  11.458  10.804
40625SOL    HW223709   3.226  11.480  10.861
40626SOL     OW23710  14.279   4.505   3.696
40626SOL    HW123711  14.217   4.457   3.642
40626SOL    HW223712  14.278   4.459   3.781
40627SOL     OW23713  11.255  11.712  10.035
40627SOL    HW123714  11.342  11.673  10.040
40627SOL    HW223715  11.248  11.744   9.945
40628SOL     OW23716   6.939  10.238   8.898
40628SOL    HW123717   7.021  10.201   8.931
40628SOL    HW223718   6.880  10.163   8.892
40629SOL     OW23719   9.753   5.102   7.855
40629SOL    HW123720   9.762   5.121   7.949
40629SOL    HW223721   9.708   5.019   7.852
40630SOL     OW23722   5.488  14.071   3.571
40630SOL    HW123723   5.441  14.054   3.489
40630SOL    HW223724   5.427  14.046   3.640
40631SOL     OW23725   9.516   4.380  14.274
40631SOL    HW123726   9.444   4.426  14.318
40631SOL    HW223727   9.492   4.287  14.280
40632SOL     OW23728   4.315   2.986   8.395
40632SOL    HW123729   4.314   3.019   8.305
40632SOL    HW223730   4.224   2.993   8.425
40633SOL     OW23731  13.427  13.421  11.011
40633SOL    HW123732  13.470  13.345  11.050
40633SOL    HW223733  13.495  13.465  10.961
40634SOL     OW23734  10.832   7.655  10.175
40634SOL    HW123735  10.870   7.636  10.089
40634SOL    HW223736  10.744   7.688  10.156
40635SOL     OW23737  13.200  13.565   2.802
40635SOL    HW123738  13.127  13.569   2.864
40635SOL    HW223739  13.251  13.644   2.820
40636SOL     OW23740  13.584   7.417  13.200
40636SOL    HW123741  13.504   7.414  13.252
40636SOL    HW223742  13.655   7.423  13.264
40637SOL     OW23743   0.733   8.987  14.084
40637SOL    HW123744   0.716   8.996  14.178
40637SOL    HW223745   0.646   8.978  14.045
40638SOL     OW23746   1.431   0.218   3.980
40638SOL    HW123747   1.435   0.125   3.958
40638SOL    HW223748   1.457   0.221   4.072
40639SOL     OW23749   1.781   4.909  13.658
40639SOL    HW123750   1.861   4.859  13.671
40639SOL    HW223751   1.808   4.988  13.612
40640SOL     OW23752  12.592   0.639  12.006
40640SOL    HW123753  12.559   0.566  11.954
40640SOL    HW223754  12.595   0.713  11.945
40641SOL     OW23755   3.697   1.910   4.214
40641SOL    HW123756   3.695   2.005   4.210
40641SOL    HW223757   3.702   1.882   4.122
40642SOL     OW23758   4.000   2.546  13.047
40642SOL    HW123759   4.042   2.475  13.095
40642SOL    HW223760   3.937   2.503  12.990
40643SOL     OW23761   9.704   3.267   3.831
40643SOL    HW123762   9.757   3.324   3.886
40643SOL    HW223763   9.673   3.324   3.760
40644SOL     OW23764  12.898  10.687   2.684
40644SOL    HW123765  12.911  10.593   2.682
40644SOL    HW223766  12.987  10.723   2.686
40645SOL     OW23767   6.861   1.375   7.098
40645SOL    HW123768   6.797   1.380   7.169
40645SOL    HW223769   6.929   1.437   7.123
40646SOL     OW23770  12.338  14.504   0.893
40646SOL    HW123771  12.317  14.431   0.951
40646SOL    HW223772  12.418  14.476   0.847
40647SOL     OW23773   0.944   6.413  12.884
40647SOL    HW123774   0.981   6.360  12.954
40647SOL    HW223775   1.016   6.469  12.854
40648SOL     OW23776   2.705   8.090   5.338
40648SOL    HW123777   2.726   8.008   5.294
40648SOL    HW223778   2.707   8.068   5.431
40649SOL     OW23779   2.433  12.601  12.444
40649SOL    HW123780   2.512  12.571  12.488
40649SOL    HW223781   2.380  12.522  12.432
40650SOL     OW23782   5.137  11.512   9.562
40650SOL    HW123783   5.116  11.602   9.537
40650SOL    HW223784   5.205  11.486   9.500
40651SOL     OW23785   1.404   8.241   8.213
40651SOL    HW123786   1.396   8.183   8.137
40651SOL    HW223787   1.346   8.203   8.279
40652SOL     OW23788  14.787   1.855  14.305
40652SOL    HW123789  14.728   1.783  14.328
40652SOL    HW223790  14.797   1.848  14.210
40653SOL     OW23791  10.149   7.536  12.391
40653SOL    HW123792  10.100   7.489  12.458
40653SOL    HW223793  10.238   7.503  12.398
40654SOL     OW23794   6.170  13.715   9.787
40654SOL    HW123795   6.158  13.651   9.717
40654SOL    HW223796   6.264  13.734   9.786
40655SOL     OW23797   5.030  10.710   7.294
40655SOL    HW123798   5.017  10.642   7.228
40655SOL    HW223799   4.943  10.724   7.331
40656SOL     OW23800   4.061   7.682   6.617
40656SOL    HW123801   4.155   7.696   6.605
40656SOL    HW223802   4.027   7.669   6.529
40657SOL     OW23803   4.530   6.741   2.543
40657SOL    HW123804   4.594   6.735   2.473
40657SOL    HW223805   4.489   6.654   2.546
40658SOL     OW23806   8.470   4.217   8.842
40658SOL    HW123807   8.541   4.235   8.780
40658SOL    HW223808   8.475   4.288   8.906
40659SOL     OW23809   4.275  12.807   8.315
40659SOL    HW123810   4.260  12.793   8.222
40659SOL    HW223811   4.352  12.754   8.335
40660SOL     OW23812   0.516   3.084   4.715
40660SOL    HW123813   0.456   3.150   4.751
40660SOL    HW223814   0.592   3.087   4.772
40661SOL     OW23815  10.958   9.598   8.984
40661SOL    HW123816  10.974   9.630   9.073
40661SOL    HW223817  11.037   9.620   8.936
40662SOL     OW23818   7.545   1.369   1.942
40662SOL    HW123819   7.526   1.281   1.909
40662SOL    HW223820   7.588   1.413   1.869
40663SOL     OW23821   3.550   8.746   1.661
40663SOL    HW123822   3.529   8.718   1.751
40663SOL    HW223823   3.490   8.817   1.644
40664SOL     OW23824   2.586   0.004  13.814
40664SOL    HW123825   2.506   0.055  13.800
40664SOL    HW223826   2.615  14.858  13.727
40665SOL     OW23827   4.294   8.999  11.878
40665SOL    HW123828   4.311   9.057  11.804
40665SOL    HW223829   4.206   8.964  11.862
40666SOL     OW23830  14.542   1.802   4.842
40666SOL    HW123831  14.621   1.856   4.839
40666SOL    HW223832  14.561   1.737   4.910
40667SOL     OW23833   0.916  11.007   1.131
40667SOL    HW123834   0.919  10.971   1.042
40667SOL    HW223835   0.902  11.101   1.118
40668SOL     OW23836   7.811   6.174   7.262
40668SOL    HW123837   7.754   6.133   7.197
40668SOL    HW223838   7.899   6.165   7.226
40669SOL     OW23839  14.530   7.102   1.625
40669SOL    HW123840  14.576   7.047   1.562
40669SOL    HW223841  14.581   7.093   1.706
40670SOL     OW23842   8.260  10.223  10.955
40670SOL    HW123843   8.278  10.130  10.969
40670SOL    HW223844   8.298  10.267  11.031
40671SOL     OW23845   3.977   2.608   5.383
40671SOL    HW123846   3.940   2.686   5.341
40671SOL    HW223847   4.070   2.612   5.363
40672SOL     OW23848  11.925  10.024  10.536
40672SOL    HW123849  11.987   9.956  10.511
40672SOL    HW223850  11.855   9.978  10.582
40673SOL     OW23851   4.723   3.152   9.560
40673SOL    HW123852   4.760   3.231   9.523
40673SOL    HW223853   4.632   3.152   9.531
40674SOL     OW23854   0.027  12.248  12.371
40674SOL    HW123855   0.081  12.172  12.355
40674SOL    HW223856   0.020  12.291  12.286
40675SOL     OW23857   5.858   4.347   7.438
40675SOL    HW123858   5.921   4.301   7.493
40675SOL    HW223859   5.879   4.319   7.348
40676SOL     OW23860   5.105  11.814   3.563
40676SOL    HW123861   5.011  11.816   3.544
40676SOL    HW223862   5.142  11.762   3.491
40677SOL     OW23863   9.660  10.468   4.144
40677SOL    HW123864   9.673  10.373   4.141
40677SOL    HW223865   9.575  10.482   4.101
40678SOL     OW23866   9.287   3.493  13.115
40678SOL    HW123867   9.315   3.581  13.092
40678SOL    HW223868   9.192   3.492  13.101
40679SOL     OW23869   4.088   6.583   3.142
40679SOL    HW123870   4.124   6.514   3.086
40679SOL    HW223871   4.038   6.536   3.209
40680SOL     OW23872   7.182  12.885   7.095
40680SOL    HW123873   7.190  12.865   7.002
40680SOL    HW223874   7.242  12.824   7.138
40681SOL     OW23875   5.515  14.701  13.511
40681SOL    HW123876   5.439  14.698  13.453
40681SOL    HW223877   5.586  14.735  13.456
40682SOL     OW23878   4.959   8.699   8.826
40682SOL    HW123879   4.878   8.664   8.864
40682SOL    HW223880   4.930   8.773   8.773
40683SOL     OW23881  14.596  13.391   6.290
40683SOL    HW123882  14.617  13.303   6.260
40683SOL    HW223883  14.525  13.420   6.232
40684SOL     OW23884  12.049  13.631   3.142
40684SOL    HW123885  11.964  13.637   3.185
40684SOL    HW223886  12.109  13.600   3.210
40685SOL     OW23887   0.562   7.829  13.264
40685SOL    HW123888   0.511   7.828  13.183
40685SOL    HW223889   0.641   7.780  13.242
40686SOL     OW23890   3.798  11.824   3.711
40686SOL    HW123891   3.787  11.815   3.617
40686SOL    HW223892   3.820  11.916   3.724
40687SOL     OW23893  10.869   9.881   7.366
40687SOL    HW123894  10.875   9.785   7.363
40687SOL    HW223895  10.836   9.900   7.453
40688SOL     OW23896  13.707   7.155   6.163
40688SOL    HW123897  13.701   7.209   6.242
40688SOL    HW223898  13.703   7.065   6.195
40689SOL     OW23899  13.523   4.338   9.092
40689SOL    HW123900  13.456   4.288   9.045
40689SOL    HW223901  13.513   4.311   9.183
40690SOL     OW23902   3.827   3.453   1.253
40690SOL    HW123903   3.776   3.430   1.331
40690SOL    HW223904   3.901   3.503   1.287
40691SOL     OW23905   1.728   0.647   1.105
40691SOL    HW123906   1.815   0.637   1.066
40691SOL    HW223907   1.733   0.599   1.188
40692SOL     OW23908   9.121   7.904  14.333
40692SOL    HW123909   9.143   7.858  14.252
40692SOL    HW223910   9.169   7.986  14.328
40693SOL     OW23911  11.345  10.945   5.448
40693SOL    HW123912  11.392  11.020   5.487
40693SOL    HW223913  11.398  10.920   5.373
40694SOL     OW23914   9.955  13.519  13.772
40694SOL    HW123915   9.878  13.485  13.726
40694SOL    HW223916   9.927  13.525  13.863
40695SOL     OW23917   9.876   2.054   4.574
40695SOL    HW123918   9.880   2.123   4.640
40695SOL    HW223919   9.934   1.985   4.606
40696SOL     OW23920   9.194   1.544  14.392
40696SOL    HW123921   9.268   1.493  14.358
40696SOL    HW223922   9.233   1.627  14.420
40697SOL     OW23923  10.134   5.978  14.748
40697SOL    HW123924  10.183   6.060  14.744
40697SOL    HW223925  10.054   6.001  14.795
40698SOL     OW23926   9.837   0.527   4.158
40698SOL    HW123927   9.778   0.463   4.119
40698SOL    HW223928   9.889   0.561   4.085
40699SOL     OW23929   0.300   2.073   2.317
40699SOL    HW123930   0.212   2.109   2.306
40699SOL    HW223931   0.310   2.063   2.412
40700SOL     OW23932  13.289  12.670   9.994
40700SOL    HW123933  13.239  12.632  10.066
40700SOL    HW223934  13.223  12.712   9.938
40701SOL     OW23935   4.055   3.031  10.678
40701SOL    HW123936   4.105   2.949  10.680
40701SOL    HW223937   4.121   3.100  10.675
40702SOL     OW23938   8.343   6.216  11.181
40702SOL    HW123939   8.310   6.128  11.168
40702SOL    HW223940   8.438   6.208  11.169
40703SOL     OW23941   5.260   2.097   1.345
40703SOL    HW123942   5.254   2.084   1.439
40703SOL    HW223943   5.354   2.109   1.328
40704SOL     OW23944   4.897  10.213   5.726
40704SOL    HW123945   4.820  10.215   5.669
40704SOL    HW223946   4.873  10.152   5.796
40705SOL     OW23947  14.118   8.581   6.706
40705SOL    HW123948  14.197   8.565   6.654
40705SOL    HW223949  14.068   8.500   6.700
40706SOL     OW23950   7.944  12.598  12.637
40706SOL    HW123951   7.915  12.655  12.708
40706SOL    HW223952   8.008  12.540  12.677
40707SOL     OW23953   8.332   2.960   7.116
40707SOL    HW123954   8.404   2.902   7.143
40707SOL    HW223955   8.257   2.930   7.166
40708SOL     OW23956   2.812  13.115  13.545
40708SOL    HW123957   2.873  13.161  13.488
40708SOL    HW223958   2.842  13.024  13.545
40709SOL     OW23959   2.406  14.769   9.814
40709SOL    HW123960   2.338  14.760   9.747
40709SOL    HW223961   2.458  14.689   9.807
40710SOL     OW23962  14.130  10.987   4.044
40710SOL    HW123963  14.199  10.922   4.059
40710SOL    HW223964  14.051  10.935   4.026
40711SOL     OW23965   2.460   0.633  12.883
40711SOL    HW123966   2.384   0.595  12.838
40711SOL    HW223967   2.518   0.559  12.900
40712SOL     OW23968  11.153   9.815   1.237
40712SOL    HW123969  11.105   9.893   1.208
40712SOL    HW223970  11.154   9.757   1.161
40713SOL     OW23971   2.725   4.778   9.990
40713SOL    HW123972   2.653   4.824  10.031
40713SOL    HW223973   2.699   4.768   9.898
40714SOL     OW23974   0.055  11.090  10.952
40714SOL    HW123975   0.112  11.070  11.027
40714SOL    HW223976   0.000  11.162  10.983
40715SOL     OW23977  10.201   6.460   0.893
40715SOL    HW123978  10.208   6.371   0.927
40715SOL    HW223979  10.110   6.485   0.911
40716SOL     OW23980   8.636   8.029   1.142
40716SOL    HW123981   8.594   7.943   1.150
40716SOL    HW223982   8.643   8.061   1.232
40717SOL     OW23983   6.069  12.969   0.475
40717SOL    HW123984   6.115  12.887   0.493
40717SOL    HW223985   5.977  12.944   0.468
40718SOL     OW23986   0.742   7.159   4.022
40718SOL    HW123987   0.777   7.224   4.083
40718SOL    HW223988   0.790   7.079   4.041
40719SOL     OW23989   3.244  14.105  10.234
40719SOL    HW123990   3.311  14.173  10.242
40719SOL    HW223991   3.162  14.152  10.244
40720SOL     OW23992   0.774   7.812   2.850
40720SOL    HW123993   0.760   7.838   2.758
40720SOL    HW223994   0.686   7.801   2.885
40721SOL     OW23995   2.786   4.537   0.939
40721SOL    HW123996   2.693   4.526   0.919
40721SOL    HW223997   2.820   4.448   0.945
40722SOL     OW23998  11.163  13.564  11.369
40722SOL    HW123999  11.155  13.620  11.292
40722SOL    HW224000  11.073  13.554  11.400
40723SOL     OW24001   7.028  14.556   0.931
40723SOL    HW124002   7.082  14.595   1.000
40723SOL    HW224003   6.943  14.601   0.939
40724SOL     OW24004   2.289   5.995   7.684
40724SOL    HW124005   2.354   6.021   7.619
40724SOL    HW224006   2.319   5.909   7.715
40725SOL     OW24007   9.494  12.623  11.195
40725SOL    HW124008   9.412  12.593  11.234
40725SOL    HW224009   9.479  12.716  11.175
40726SOL     OW24010   7.536   2.947  11.926
40726SOL    HW124011   7.511   2.919  11.838
40726SOL    HW224012   7.570   3.036  11.915
40727SOL     OW24013   3.344   4.675   9.478
40727SOL    HW124014   3.359   4.769   9.462
40727SOL    HW224015   3.295   4.673   9.560
40728SOL     OW24016   5.044   6.398   7.663
40728SOL    HW124017   4.967   6.347   7.638
40728SOL    HW224018   5.010   6.478   7.702
40729SOL     OW24019   5.677  12.663   9.058
40729SOL    HW124020   5.603  12.681   9.115
40729SOL    HW224021   5.640  12.662   8.970
40730SOL     OW24022   8.302   9.192   9.237
40730SOL    HW124023   8.373   9.224   9.182
40730SOL    HW224024   8.267   9.270   9.279
40731SOL     OW24025  10.064  13.592  11.855
40731SOL    HW124026  10.028  13.516  11.810
40731SOL    HW224027  10.001  13.612  11.924
40732SOL     OW24028   0.323   7.752   1.793
40732SOL    HW124029   0.417   7.747   1.775
40732SOL    HW224030   0.291   7.819   1.733
40733SOL     OW24031   4.593   4.938   6.306
40733SOL    HW124032   4.602   4.877   6.379
40733SOL    HW224033   4.681   4.944   6.269
40734SOL     OW24034   4.195  14.545   6.367
40734SOL    HW124035   4.111  14.498   6.370
40734SOL    HW224036   4.241  14.508   6.292
40735SOL     OW24037   5.478  12.309   4.743
40735SOL    HW124038   5.400  12.362   4.760
40735SOL    HW224039   5.476  12.242   4.812
40736SOL     OW24040  14.566   8.163   6.776
40736SOL    HW124041  14.609   8.078   6.779
40736SOL    HW224042  14.530   8.169   6.688
40737SOL     OW24043  13.286  12.586   9.269
40737SOL    HW124044  13.350  12.649   9.303
40737SOL    HW224045  13.231  12.566   9.345
40738SOL     OW24046   7.573  12.322   4.267
40738SOL    HW124047   7.541  12.243   4.310
40738SOL    HW224048   7.636  12.290   4.202
40739SOL     OW24049   3.985   4.388  13.645
40739SOL    HW124050   3.921   4.368  13.713
40739SOL    HW224051   4.010   4.479  13.662
40740SOL     OW24052  10.105   5.633  13.577
40740SOL    HW124053  10.047   5.608  13.649
40740SOL    HW224054  10.189   5.651  13.618
40741SOL     OW24055   5.376  12.715   2.197
40741SOL    HW124056   5.397  12.632   2.240
40741SOL    HW224057   5.461  12.749   2.168
40742SOL     OW24058  11.486   4.977   4.254
40742SOL    HW124059  11.477   5.046   4.189
40742SOL    HW224060  11.415   4.915   4.233
40743SOL     OW24061   0.460   8.609   0.889
40743SOL    HW124062   0.437   8.579   0.977
40743SOL    HW224063   0.476   8.703   0.899
40744SOL     OW24064   8.522   6.563   4.036
40744SOL    HW124065   8.498   6.655   4.051
40744SOL    HW224066   8.483   6.516   4.110
40745SOL     OW24067   7.946   6.523  12.681
40745SOL    HW124068   7.853   6.524  12.661
40745SOL    HW224069   7.950   6.513  12.776
40746SOL     OW24070   2.245  13.637  13.720
40746SOL    HW124071   2.301  13.683  13.657
40746SOL    HW224072   2.306  13.585  13.772
40747SOL     OW24073   9.179   1.694   0.828
40747SOL    HW124074   9.240   1.643   0.881
40747SOL    HW224075   9.229   1.772   0.802
40748SOL     OW24076   5.487  10.700   3.135
40748SOL    HW124077   5.462  10.628   3.077
40748SOL    HW224078   5.575  10.677   3.166
40749SOL     OW24079   8.481  10.838  11.723
40749SOL    HW124080   8.397  10.876  11.698
40749SOL    HW224081   8.537  10.848  11.646
40750SOL     OW24082  11.773  10.891   5.565
40750SOL    HW124083  11.724  10.938   5.633
40750SOL    HW224084  11.765  10.945   5.487
40751SOL     OW24085   9.093   3.962   8.029
40751SOL    HW124086   9.054   4.019   7.963
40751SOL    HW224087   9.059   3.995   8.112
40752SOL     OW24088   4.626   9.289  13.394
40752SOL    HW124089   4.582   9.236  13.461
40752SOL    HW224090   4.574   9.274  13.315
40753SOL     OW24091  12.159   8.550   6.851
40753SOL    HW124092  12.130   8.572   6.763
40753SOL    HW224093  12.244   8.593   6.860
40754SOL     OW24094  13.197   2.257   4.830
40754SOL    HW124095  13.158   2.344   4.825
40754SOL    HW224096  13.265   2.265   4.896
40755SOL     OW24097   6.268  14.221   7.419
40755SOL    HW124098   6.224  14.188   7.340
40755SOL    HW224099   6.298  14.308   7.395
40756SOL     OW24100   8.074  11.369   7.353
40756SOL    HW124101   7.996  11.417   7.380
40756SOL    HW224102   8.090  11.397   7.263
40757SOL     OW24103   8.420  14.029  13.716
40757SOL    HW124104   8.454  14.115  13.739
40757SOL    HW224105   8.387  14.040  13.627
40758SOL     OW24106   4.336   3.521  13.886
40758SOL    HW124107   4.327   3.437  13.840
40758SOL    HW224108   4.265   3.575  13.852
40759SOL     OW24109   6.452  14.544   4.027
40759SOL    HW124110   6.467  14.522   3.935
40759SOL    HW224111   6.501  14.478   4.076
40760SOL     OW24112   4.334  11.158   7.215
40760SOL    HW124113   4.255  11.151   7.161
40760SOL    HW224114   4.393  11.091   7.180
40761SOL     OW24115   2.379   6.325   9.223
40761SOL    HW124116   2.457   6.309   9.169
40761SOL    HW224117   2.385   6.418   9.246
40762SOL     OW24118   4.671  11.954   8.808
40762SOL    HW124119   4.672  11.858   8.813
40762SOL    HW224120   4.699  11.983   8.894
40763SOL     OW24121  11.025   8.506  10.451
40763SOL    HW124122  10.946   8.529  10.500
40763SOL    HW224123  11.041   8.414  10.474
40764SOL     OW24124   2.319   6.706   6.572
40764SOL    HW124125   2.287   6.753   6.649
40764SOL    HW224126   2.265   6.626   6.569
40765SOL     OW24127   7.430   7.335   2.665
40765SOL    HW124128   7.356   7.349   2.606
40765SOL    HW224129   7.390   7.327   2.751
40766SOL     OW24130  10.808   7.151   7.824
40766SOL    HW124131  10.732   7.154   7.766
40766SOL    HW224132  10.771   7.132   7.911
40767SOL     OW24133   3.029   4.048   9.975
40767SOL    HW124134   2.935   4.063   9.976
40767SOL    HW224135   3.065   4.121  10.027
40768SOL     OW24136  11.330  13.291   5.669
40768SOL    HW124137  11.341  13.334   5.753
40768SOL    HW224138  11.412  13.307   5.622
40769SOL     OW24139  11.842   1.888   0.978
40769SOL    HW124140  11.829   1.808   0.928
40769SOL    HW224141  11.880   1.858   1.061
40770SOL     OW24142  13.789  12.782  11.823
40770SOL    HW124143  13.831  12.700  11.796
40770SOL    HW224144  13.807  12.788  11.917
40771SOL     OW24145  10.910   4.117   4.944
40771SOL    HW124146  10.878   4.078   4.863
40771SOL    HW224147  10.908   4.212   4.928
40772SOL     OW24148  11.769   5.265   4.921
40772SOL    HW124149  11.675   5.282   4.923
40772SOL    HW224150  11.783   5.196   4.986
40773SOL     OW24151   4.378   2.529  12.666
40773SOL    HW124152   4.367   2.434  12.670
40773SOL    HW224153   4.468   2.544  12.693
40774SOL     OW24154   4.556   1.577   2.927
40774SOL    HW124155   4.515   1.534   2.853
40774SOL    HW224156   4.498   1.651   2.947
40775SOL     OW24157  13.680  12.989   6.813
40775SOL    HW124158  13.665  12.946   6.897
40775SOL    HW224159  13.759  13.041   6.827
40776SOL     OW24160   7.063  14.468   2.756
40776SOL    HW124161   7.131  14.402   2.741
40776SOL    HW224162   7.106  14.551   2.740
40777SOL     OW24163   4.325  14.763   8.961
40777SOL    HW124164   4.397  14.801   9.012
40777SOL    HW224165   4.318  14.820   8.884
40778SOL     OW24166   1.224   6.978   2.651
40778SOL    HW124167   1.241   7.045   2.718
40778SOL    HW224168   1.299   6.984   2.592
40779SOL     OW24169  13.545   3.716   7.807
40779SOL    HW124170  13.458   3.687   7.779
40779SOL    HW224171  13.546   3.810   7.791
40780SOL     OW24172  12.289   9.651   8.464
40780SOL    HW124173  12.276   9.558   8.451
40780SOL    HW224174  12.378   9.659   8.499
40781SOL     OW24175  13.169  10.566  11.072
40781SOL    HW124176  13.264  10.557  11.065
40781SOL    HW224177  13.133  10.495  11.019
40782SOL     OW24178   2.831   4.902  11.190
40782SOL    HW124179   2.845   4.899  11.096
40782SOL    HW224180   2.791   4.817  11.211
40783SOL     OW24181  10.828   0.744   2.930
40783SOL    HW124182  10.741   0.754   2.892
40783SOL    HW224183  10.861   0.663   2.893
40784SOL     OW24184   8.561   1.992   4.311
40784SOL    HW124185   8.604   1.924   4.259
40784SOL    HW224186   8.467   1.977   4.298
40785SOL     OW24187   0.010   0.181   2.120
40785SOL    HW124188   0.094   0.166   2.165
40785SOL    HW224189   0.016   0.270   2.087
40786SOL     OW24190   9.901   7.172  14.799
40786SOL    HW124191   9.826   7.171  14.739
40786SOL    HW224192   9.889   7.252  14.851
40787SOL     OW24193   1.264  13.287   3.643
40787SOL    HW124194   1.284  13.316   3.554
40787SOL    HW224195   1.275  13.366   3.696
40788SOL     OW24196   4.004   6.413   6.381
40788SOL    HW124197   3.911   6.406   6.360
40788SOL    HW224198   4.049   6.398   6.298
40789SOL     OW24199   0.351  13.716  10.167
40789SOL    HW124200   0.329  13.638  10.116
40789SOL    HW224201   0.438  13.741  10.137
40790SOL     OW24202  12.763   0.326   8.291
40790SOL    HW124203  12.807   0.338   8.207
40790SOL    HW224204  12.687   0.383   8.287
40791SOL     OW24205  12.189   5.095   1.268
40791SOL    HW124206  12.273   5.069   1.304
40791SOL    HW224207  12.127   5.083   1.340
40792SOL     OW24208   6.999  11.450  13.779
40792SOL    HW124209   6.948  11.403  13.714
40792SOL    HW224210   7.072  11.487  13.729
40793SOL     OW24211  10.198   0.043   4.139
40793SOL    HW124212  10.196  14.857   4.069
40793SOL    HW224213  10.109   0.043   4.174
40794SOL     OW24214   5.289   7.484   2.655
40794SOL    HW124215   5.259   7.522   2.572
40794SOL    HW224216   5.266   7.392   2.649
40795SOL     OW24217   1.915  14.499  14.098
40795SOL    HW124218   1.936  14.523  14.007
40795SOL    HW224219   1.999  14.469  14.134
40796SOL     OW24220   6.842   1.330   0.468
40796SOL    HW124221   6.764   1.337   0.413
40796SOL    HW224222   6.880   1.245   0.445
40797SOL     OW24223  11.473   0.680   7.699
40797SOL    HW124224  11.496   0.758   7.749
40797SOL    HW224225  11.553   0.657   7.652
40798SOL     OW24226  12.369   8.825   7.752
40798SOL    HW124227  12.446   8.860   7.796
40798SOL    HW224228  12.383   8.844   7.659
40799SOL     OW24229  11.076  10.744   0.863
40799SOL    HW124230  11.151  10.765   0.919
40799SOL    HW224231  11.015  10.698   0.921
40800SOL     OW24232  11.702  13.226   0.897
40800SOL    HW124233  11.792  13.194   0.901
40800SOL    HW224234  11.650  13.156   0.936
40801SOL     OW24235   1.333   9.208  11.714
40801SOL    HW124236   1.271   9.135  11.715
40801SOL    HW224237   1.400   9.185  11.778
40802SOL     OW24238   5.631   7.398  14.175
40802SOL    HW124239   5.615   7.353  14.092
40802SOL    HW224240   5.695   7.466  14.152
40803SOL     OW24241  13.035   5.200  10.866
40803SOL    HW124242  12.993   5.154  10.940
40803SOL    HW224243  13.055   5.287  10.901
40804SOL     OW24244   6.661   7.609  10.687
40804SOL    HW124245   6.706   7.635  10.607
40804SOL    HW224246   6.619   7.526  10.665
40805SOL     OW24247  11.634   7.930   3.543
40805SOL    HW124248  11.623   7.898   3.633
40805SOL    HW224249  11.640   7.851   3.490
40806SOL     OW24250   0.913  10.847   6.602
40806SOL    HW124251   0.923  10.758   6.635
40806SOL    HW224252   1.003  10.882   6.600
40807SOL     OW24253   7.076   3.359  10.374
40807SOL    HW124254   7.044   3.364  10.284
40807SOL    HW224255   6.997   3.368  10.428
40808SOL     OW24256   0.040  13.344  10.547
40808SOL    HW124257   0.109  13.283  10.521
40808SOL    HW224258   0.086  13.416  10.590
40809SOL     OW24259  11.640  12.185   2.512
40809SOL    HW124260  11.682  12.129   2.576
40809SOL    HW224261  11.548  12.158   2.513
40810SOL     OW24262   0.800   1.533   8.908
40810SOL    HW124263   0.722   1.491   8.945
40810SOL    HW224264   0.776   1.552   8.817
40811SOL     OW24265  13.811  13.241  14.569
40811SOL    HW124266  13.728  13.253  14.524
40811SOL    HW224267  13.811  13.308  14.638
40812SOL     OW24268   4.884   0.414  12.967
40812SOL    HW124269   4.855   0.323  12.961
40812SOL    HW224270   4.806   0.463  12.990
40813SOL     OW24271   4.236   4.442   8.910
40813SOL    HW124272   4.198   4.526   8.885
40813SOL    HW224273   4.257   4.452   9.003
40814SOL     OW24274   2.508   4.050  13.920
40814SOL    HW124275   2.466   3.983  13.974
40814SOL    HW224276   2.460   4.130  13.938
40815SOL     OW24277   2.208   9.918   1.504
40815SOL    HW124278   2.260   9.887   1.579
40815SOL    HW224279   2.271   9.925   1.432
40816SOL     OW24280  11.355  12.900   7.409
40816SOL    HW124281  11.277  12.956   7.412
40816SOL    HW224282  11.343  12.838   7.480
40817SOL     OW24283  13.374   3.546   3.980
40817SOL    HW124284  13.296   3.599   3.997
40817SOL    HW224285  13.343   3.472   3.928
40818SOL     OW24286   7.782   9.447  13.861
40818SOL    HW124287   7.804   9.488  13.945
40818SOL    HW224288   7.806   9.513  13.795
40819SOL     OW24289  12.021   2.272   5.273
40819SOL    HW124290  11.963   2.204   5.306
40819SOL    HW224291  11.963   2.345   5.253
40820SOL     OW24292   9.258   6.886  14.802
40820SOL    HW124293   9.238   6.908   0.013
40820SOL    HW224294   9.239   6.792  14.795
40821SOL     OW24295   2.442  11.768   0.858
40821SOL    HW124296   2.416  11.852   0.896
40821SOL    HW224297   2.535  11.759   0.880
40822SOL     OW24298   5.298   0.164   2.936
40822SOL    HW124299   5.247   0.243   2.916
40822SOL    HW224300   5.331   0.134   2.852
40823SOL     OW24301   0.645   9.401   8.459
40823SOL    HW124302   0.665   9.494   8.451
40823SOL    HW224303   0.590   9.381   8.383
40824SOL     OW24304  12.086  12.937   4.140
40824SOL    HW124305  12.118  13.028   4.141
40824SOL    HW224306  11.991  12.945   4.130
40825SOL     OW24307   6.177   2.339   0.036
40825SOL    HW124308   6.266   2.364   0.009
40825SOL    HW224309   6.191   2.272   0.103
40826SOL     OW24310  11.648   1.975   3.310
40826SOL    HW124311  11.558   1.991   3.339
40826SOL    HW224312  11.643   1.980   3.214
40827SOL     OW24313   7.062   1.091   5.108
40827SOL    HW124314   7.128   1.144   5.153
40827SOL    HW224315   7.051   1.013   5.162
40828SOL     OW24316  13.363   6.811   8.572
40828SOL    HW124317  13.351   6.755   8.496
40828SOL    HW224318  13.288   6.869   8.571
40829SOL     OW24319  11.613  12.698  14.416
40829SOL    HW124320  11.560  12.640  14.361
40829SOL    HW224321  11.556  12.772  14.436
40830SOL     OW24322  14.392   4.592  12.266
40830SOL    HW124323  14.407   4.683  12.241
40830SOL    HW224324  14.350   4.552  12.190
40831SOL     OW24325   7.168   1.318   2.872
40831SOL    HW124326   7.110   1.393   2.885
40831SOL    HW224327   7.241   1.352   2.821
40832SOL     OW24328  12.407   1.380  13.139
40832SOL    HW124329  12.435   1.341  13.057
40832SOL    HW224330  12.361   1.460  13.113
40833SOL     OW24331   1.671  13.561  10.602
40833SOL    HW124332   1.667  13.586  10.694
40833SOL    HW224333   1.730  13.485  10.600
40834SOL     OW24334  11.954   3.977   4.770
40834SOL    HW124335  12.006   3.903   4.738
40834SOL    HW224336  11.918   3.946   4.853
40835SOL     OW24337   8.136   4.021   7.577
40835SOL    HW124338   8.058   4.014   7.521
40835SOL    HW224339   8.193   3.949   7.549
40836SOL     OW24340   8.106   4.852   4.757
40836SOL    HW124341   8.038   4.911   4.724
40836SOL    HW224342   8.154   4.905   4.821
40837SOL     OW24343   6.978   9.854  11.152
40837SOL    HW124344   6.922   9.894  11.218
40837SOL    HW224345   6.965   9.908  11.073
40838SOL     OW24346   7.121  12.481   3.238
40838SOL    HW124347   7.027  12.468   3.224
40838SOL    HW224348   7.143  12.557   3.185
40839SOL     OW24349   8.666  11.847   0.915
40839SOL    HW124350   8.706  11.765   0.945
40839SOL    HW224351   8.661  11.837   0.820
40840SOL     OW24352   3.236   5.346   4.575
40840SOL    HW124353   3.291   5.344   4.497
40840SOL    HW224354   3.151   5.314   4.546
40841SOL     OW24355   9.145  12.169   4.351
40841SOL    HW124356   9.145  12.079   4.321
40841SOL    HW224357   9.089  12.169   4.428
40842SOL     OW24358  14.533  13.552   9.322
40842SOL    HW124359  14.502  13.498   9.249
40842SOL    HW224360  14.628  13.548   9.317
40843SOL     OW24361  11.026  14.480   3.002
40843SOL    HW124362  11.110  14.524   3.019
40843SOL    HW224363  10.979  14.539   2.944
40844SOL     OW24364  12.522  12.620   2.470
40844SOL    HW124365  12.617  12.615   2.465
40844SOL    HW224366  12.491  12.536   2.437
40845SOL     OW24367   3.464  12.071   8.173
40845SOL    HW124368   3.517  12.113   8.105
40845SOL    HW224369   3.521  12.065   8.249
40846SOL     OW24370   8.901  11.029   9.936
40846SOL    HW124371   8.898  11.070  10.023
40846SOL    HW224372   8.892  10.935   9.954
40847SOL     OW24373  11.454  13.755  11.814
40847SOL    HW124374  11.381  13.698  11.839
40847SOL    HW224375  11.453  13.824  11.880
40848SOL     OW24376  13.775   8.237   3.457
40848SOL    HW124377  13.864   8.232   3.492
40848SOL    HW224378  13.727   8.292   3.520
40849SOL     OW24379   8.391   7.509   0.071
40849SOL    HW124380   8.304   7.536   0.101
40849SOL    HW224381   8.425   7.586   0.025
40850SOL     OW24382   1.583  10.961  14.724
40850SOL    HW124383   1.618  10.916  14.647
40850SOL    HW224384   1.497  10.921  14.738
40851SOL     OW24385   5.512   9.868  14.212
40851SOL    HW124386   5.417   9.860  14.215
40851SOL    HW224387   5.528   9.957  14.179
40852SOL     OW24388   6.359   0.490   2.942
40852SOL    HW124389   6.308   0.516   2.864
40852SOL    HW224390   6.418   0.422   2.911
40853SOL     OW24391  11.804   7.314   7.783
40853SOL    HW124392  11.805   7.269   7.867
40853SOL    HW224393  11.866   7.265   7.729
40854SOL     OW24394  12.985  14.530   2.624
40854SOL    HW124395  12.929  14.493   2.692
40854SOL    HW224396  12.939  14.610   2.595
40855SOL     OW24397   9.594   1.157   6.916
40855SOL    HW124398   9.667   1.153   6.855
40855SOL    HW224399   9.528   1.210   6.871
40856SOL     OW24400   0.318   9.503  11.216
40856SOL    HW124401   0.238   9.547  11.188
40856SOL    HW224402   0.380   9.518  11.145
40857SOL     OW24403  10.786  14.133   5.754
40857SOL    HW124404  10.866  14.117   5.703
40857SOL    HW224405  10.772  14.052   5.803
40858SOL     OW24406  13.198  11.814  13.068
40858SOL    HW124407  13.135  11.857  13.126
40858SOL    HW224408  13.281  11.821  13.113
40859SOL     OW24409   7.410  11.413  14.573
40859SOL    HW124410   7.447  11.501  14.581
40859SOL    HW224411   7.327  11.417  14.621
40860SOL     OW24412   8.167   8.603   0.802
40860SOL    HW124413   8.104   8.622   0.872
40860SOL    HW224414   8.252   8.626   0.840
40861SOL     OW24415  13.725   6.387   9.096
40861SOL    HW124416  13.637   6.410   9.069
40861SOL    HW224417  13.775   6.382   9.014
40862SOL     OW24418   1.044  12.057  11.118
40862SOL    HW124419   1.035  11.962  11.110
40862SOL    HW224420   0.955  12.090  11.127
40863SOL     OW24421   4.144   6.334   2.759
40863SOL    HW124422   4.122   6.312   2.669
40863SOL    HW224423   4.205   6.265   2.786
40864SOL     OW24424   8.853  10.239   7.459
40864SOL    HW124425   8.912  10.259   7.386
40864SOL    HW224426   8.823  10.325   7.490
40865SOL     OW24427  14.050  14.727  10.153
40865SOL    HW124428  14.077  14.702  10.241
40865SOL    HW224429  14.083  14.657  10.097
40866SOL     OW24430   1.212   7.080  10.349
40866SOL    HW124431   1.160   7.123  10.417
40866SOL    HW224432   1.242   6.999  10.388
40867SOL     OW24433   0.303   4.769  13.287
40867SOL    HW124434   0.341   4.711  13.353
40867SOL    HW224435   0.210   4.774  13.310
40868SOL     OW24436  14.197   9.901   1.910
40868SOL    HW124437  14.229   9.845   1.839
40868SOL    HW224438  14.103   9.883   1.914
40869SOL     OW24439   9.519  12.943  13.190
40869SOL    HW124440   9.437  12.966  13.233
40869SOL    HW224441   9.583  13.004  13.226
40870SOL     OW24442   7.181  13.717  12.326
40870SOL    HW124443   7.100  13.709  12.376
40870SOL    HW224444   7.185  13.638  12.273
40871SOL     OW24445  14.748   7.590  12.929
40871SOL    HW124446  14.662   7.613  12.965
40871SOL    HW224447  14.807   7.590  13.005
40872SOL     OW24448   4.624  14.287   7.659
40872SOL    HW124449   4.545  14.255   7.703
40872SOL    HW224450   4.666  14.343   7.725
40873SOL     OW24451   7.084  10.558   6.585
40873SOL    HW124452   7.134  10.636   6.559
40873SOL    HW224453   7.127  10.526   6.663
40874SOL     OW24454  11.926   1.278   9.693
40874SOL    HW124455  11.988   1.272   9.766
40874SOL    HW224456  11.844   1.308   9.733
40875SOL     OW24457  13.250   3.381   3.809
40875SOL    HW124458  13.180   3.426   3.762
40875SOL    HW224459  13.205   3.321   3.868
40876SOL     OW24460   8.586   8.730  13.236
40876SOL    HW124461   8.526   8.803  13.222
40876SOL    HW224462   8.670   8.771  13.255
40877SOL     OW24463   5.760   9.401   4.125
40877SOL    HW124464   5.837   9.346   4.111
40877SOL    HW224465   5.793   9.475   4.177
40878SOL     OW24466   5.232   4.276   5.648
40878SOL    HW124467   5.241   4.357   5.599
40878SOL    HW224468   5.257   4.299   5.738
40879SOL     OW24469  11.097   9.349   1.652
40879SOL    HW124470  11.191   9.333   1.648
40879SOL    HW224471  11.089   9.441   1.678
40880SOL     OW24472   6.809   8.618   3.472
40880SOL    HW124473   6.737   8.672   3.505
40880SOL    HW224474   6.781   8.528   3.488
40881SOL     OW24475   0.769   5.950   2.387
40881SOL    HW124476   0.823   5.873   2.369
40881SOL    HW224477   0.730   5.972   2.302
40882SOL     OW24478   7.263  13.868  14.824
40882SOL    HW124479   7.345  13.852  14.872
40882SOL    HW224480   7.221  13.782  14.818
40883SOL     OW24481   8.614   7.671   3.646
40883SOL    HW124482   8.576   7.654   3.560
40883SOL    HW224483   8.707   7.685   3.628
40884SOL     OW24484   8.255  13.249   5.140
40884SOL    HW124485   8.253  13.202   5.224
40884SOL    HW224486   8.164  13.251   5.112
40885SOL     OW24487   8.711   9.017   4.932
40885SOL    HW124488   8.692   9.039   5.023
40885SOL    HW224489   8.651   9.071   4.881
40886SOL     OW24490  10.625   7.653   6.508
40886SOL    HW124491  10.603   7.621   6.595
40886SOL    HW224492  10.595   7.584   6.449
40887SOL     OW24493   3.205   7.185   6.854
40887SOL    HW124494   3.116   7.197   6.819
40887SOL    HW224495   3.260   7.243   6.802
40888SOL     OW24496   2.202   8.630   6.382
40888SOL    HW124497   2.245   8.592   6.306
40888SOL    HW224498   2.265   8.620   6.453
40889SOL     OW24499   6.123  13.914   4.856
40889SOL    HW124500   6.096  13.905   4.764
40889SOL    HW224501   6.069  13.851   4.903
40890SOL     OW24502  11.514  11.520  13.404
40890SOL    HW124503  11.603  11.532  13.369
40890SOL    HW224504  11.491  11.606  13.440
40891SOL     OW24505  11.224  10.336   4.240
40891SOL    HW124506  11.166  10.391   4.293
40891SOL    HW224507  11.286  10.299   4.303
40892SOL     OW24508   1.760   6.722  12.209
40892SOL    HW124509   1.692   6.703  12.144
40892SOL    HW224510   1.842   6.696  12.167
40893SOL     OW24511   7.679  10.146  14.528
40893SOL    HW124512   7.642  10.224  14.487
40893SOL    HW224513   7.736  10.109  14.462
40894SOL     OW24514  13.791  11.572   1.838
40894SOL    HW124515  13.784  11.497   1.896
40894SOL    HW224516  13.828  11.642   1.892
40895SOL     OW24517  12.217   5.032   9.110
40895SOL    HW124518  12.237   4.955   9.163
40895SOL    HW224519  12.158   4.999   9.042
40896SOL     OW24520   3.959  10.953   0.926
40896SOL    HW124521   4.045  10.947   0.884
40896SOL    HW224522   3.972  11.015   0.998
40897SOL     OW24523  14.217  10.657   3.166
40897SOL    HW124524  14.171  10.596   3.224
40897SOL    HW224525  14.199  10.743   3.202
40898SOL     OW24526   5.755   7.365   2.565
40898SOL    HW124527   5.692   7.318   2.619
40898SOL    HW224528   5.838   7.356   2.612
40899SOL     OW24529  14.186   4.427   1.651
40899SOL    HW124530  14.249   4.497   1.666
40899SOL    HW224531  14.209   4.391   1.566
40900SOL     OW24532   7.099  13.668   8.125
40900SOL    HW124533   7.184  13.629   8.106
40900SOL    HW224534   7.041  13.594   8.139
40901SOL     OW24535  12.781   9.247   9.691
40901SOL    HW124536  12.767   9.177   9.628
40901SOL    HW224537  12.865   9.226   9.732
40902SOL     OW24538  12.638   9.462  13.706
40902SOL    HW124539  12.624   9.555  13.689
40902SOL    HW224540  12.730   9.447  13.682
40903SOL     OW24541   7.937   0.651  14.861
40903SOL    HW124542   7.906   0.681   0.068
40903SOL    HW224543   8.002   0.584   0.002
40904SOL     OW24544   0.735  11.354   5.556
40904SOL    HW124545   0.798  11.284   5.540
40904SOL    HW224546   0.788  11.432   5.569
40905SOL     OW24547   8.007   4.405   5.889
40905SOL    HW124548   8.096   4.434   5.870
40905SOL    HW224549   7.951   4.467   5.842
40906SOL     OW24550   4.705   6.389   3.361
40906SOL    HW124551   4.686   6.477   3.395
40906SOL    HW224552   4.688   6.397   3.267
40907SOL     OW24553   6.119  12.854   7.752
40907SOL    HW124554   6.138  12.767   7.787
40907SOL    HW224555   6.153  12.851   7.662
40908SOL     OW24556   8.020   0.856   1.940
40908SOL    HW124557   8.016   0.936   1.888
40908SOL    HW224558   7.956   0.870   2.010
40909SOL     OW24559  10.261   4.973   8.356
40909SOL    HW124560  10.247   4.937   8.269
40909SOL    HW224561  10.344   5.021   8.350
40910SOL     OW24562   4.445   5.627  10.785
40910SOL    HW124563   4.405   5.565  10.846
40910SOL    HW224564   4.372   5.680  10.753
40911SOL     OW24565  11.342  11.916  13.708
40911SOL    HW124566  11.294  11.844  13.748
40911SOL    HW224567  11.319  11.992  13.761
40912SOL     OW24568   7.307   5.399   7.898
40912SOL    HW124569   7.342   5.313   7.877
40912SOL    HW224570   7.311   5.447   7.816
40913SOL     OW24571   6.553  10.391   0.369
40913SOL    HW124572   6.516  10.460   0.314
40913SOL    HW224573   6.618  10.348   0.313
40914SOL     OW24574   3.712   0.892   3.973
40914SOL    HW124575   3.739   0.954   3.905
40914SOL    HW224576   3.740   0.933   4.055
40915SOL     OW24577   0.735  11.308   4.071
40915SOL    HW124578   0.799  11.347   4.131
40915SOL    HW224579   0.729  11.370   3.998
40916SOL     OW24580   6.376  12.458   0.619
40916SOL    HW124581   6.352  12.385   0.677
40916SOL    HW224582   6.427  12.417   0.549
40917SOL     OW24583   2.988  10.170   9.794
40917SOL    HW124584   2.897  10.154   9.818
40917SOL    HW224585   3.033  10.088   9.815
40918SOL     OW24586   0.292   7.007   3.006
40918SOL    HW124587   0.209   6.969   3.032
40918SOL    HW224588   0.296   6.995   2.911
40919SOL     OW24589  11.363  14.682   6.437
40919SOL    HW124590  11.422  14.755   6.455
40919SOL    HW224591  11.412  14.626   6.377
40920SOL     OW24592   2.170   0.171   6.396
40920SOL    HW124593   2.133   0.183   6.484
40920SOL    HW224594   2.231   0.244   6.386
40921SOL     OW24595   0.869   5.646  14.570
40921SOL    HW124596   0.907   5.731  14.589
40921SOL    HW224597   0.935   5.582  14.598
40922SOL     OW24598   2.492   0.130   1.032
40922SOL    HW124599   2.462   0.090   0.950
40922SOL    HW224600   2.416   0.180   1.062
40923SOL     OW24601  13.591   9.767   4.699
40923SOL    HW124602  13.563   9.728   4.616
40923SOL    HW224603  13.524   9.834   4.717
40924SOL     OW24604   6.947   1.253   0.926
40924SOL    HW124605   6.955   1.311   1.002
40924SOL    HW224606   6.931   1.166   0.964
40925SOL     OW24607   5.928   0.520  10.703
40925SOL    HW124608   6.007   0.470  10.684
40925SOL    HW224609   5.861   0.484  10.644
40926SOL     OW24610   3.809  10.534  10.890
40926SOL    HW124611   3.866  10.574  10.956
40926SOL    HW224612   3.837  10.442  10.888
40927SOL     OW24613  13.464   1.471   2.194
40927SOL    HW124614  13.556   1.457   2.173
40927SOL    HW224615  13.437   1.390   2.238
40928SOL     OW24616   5.371  11.281  10.949
40928SOL    HW124617   5.355  11.262  10.857
40928SOL    HW224618   5.353  11.199  10.994
40929SOL     OW24619   4.411  11.896  12.817
40929SOL    HW124620   4.404  11.989  12.837
40929SOL    HW224621   4.420  11.853  12.902
40930SOL     OW24622  13.390  11.842  11.577
40930SOL    HW124623  13.356  11.931  11.569
40930SOL    HW224624  13.468  11.850  11.632
40931SOL     OW24625   8.932   7.641   1.448
40931SOL    HW124626   9.011   7.625   1.498
40931SOL    HW224627   8.962   7.676   1.365
40932SOL     OW24628   0.060   8.587   6.535
40932SOL    HW124629   0.127   8.652   6.514
40932SOL    HW224630   0.071   8.570   6.628
40933SOL     OW24631  13.365   8.579  10.048
40933SOL    HW124632  13.407   8.555   9.965
40933SOL    HW224633  13.271   8.567  10.031
40934SOL     OW24634   5.655   1.458  14.715
40934SOL    HW124635   5.673   1.404  14.638
40934SOL    HW224636   5.707   1.419  14.785
40935SOL     OW24637  12.099  13.064   3.300
40935SOL    HW124638  12.135  13.007   3.368
40935SOL    HW224639  12.107  13.013   3.219
40936SOL     OW24640   1.076  12.899   5.927
40936SOL    HW124641   1.001  12.855   5.888
40936SOL    HW224642   1.134  12.828   5.955
40937SOL     OW24643  12.435   7.849   1.079
40937SOL    HW124644  12.379   7.866   1.155
40937SOL    HW224645  12.445   7.935   1.037
40938SOL     OW24646  14.394   4.377   6.739
40938SOL    HW124647  14.440   4.377   6.655
40938SOL    HW224648  14.410   4.289   6.775
40939SOL     OW24649  11.253   1.330   0.729
40939SOL    HW124650  11.186   1.395   0.706
40939SOL    HW224651  11.278   1.290   0.646
40940SOL     OW24652   3.242   6.800  12.308
40940SOL    HW124653   3.315   6.759  12.262
40940SOL    HW224654   3.164   6.772  12.259
40941SOL     OW24655   5.489   3.060   1.480
40941SOL    HW124656   5.478   2.977   1.433
40941SOL    HW224657   5.583   3.078   1.477
40942SOL     OW24658   6.066   0.932   3.649
40942SOL    HW124659   6.100   1.022   3.648
40942SOL    HW224660   6.067   0.907   3.742
40943SOL     OW24661  11.191  12.892  12.879
40943SOL    HW124662  11.134  12.936  12.942
40943SOL    HW224663  11.175  12.799  12.892
40944SOL     OW24664   0.797   7.704   8.105
40944SOL    HW124665   0.878   7.738   8.141
40944SOL    HW224666   0.818   7.681   8.014
40945SOL     OW24667  12.672   3.051   8.698
40945SOL    HW124668  12.707   3.110   8.631
40945SOL    HW224669  12.668   3.104   8.777
40946SOL     OW24670   2.461   8.217   0.629
40946SOL    HW124671   2.400   8.205   0.556
40946SOL    HW224672   2.433   8.153   0.694
40947SOL     OW24673  13.936   6.165   8.503
40947SOL    HW124674  14.021   6.135   8.470
40947SOL    HW224675  13.920   6.248   8.458
40948SOL     OW24676   8.558   0.264   6.191
40948SOL    HW124677   8.588   0.284   6.102
40948SOL    HW224678   8.533   0.349   6.227
40949SOL     OW24679  12.804   8.965   9.558
40949SOL    HW124680  12.758   8.924   9.631
40949SOL    HW224681  12.892   8.928   9.559
40950SOL     OW24682   2.534   3.077   2.614
40950SOL    HW124683   2.576   2.996   2.641
40950SOL    HW224684   2.593   3.115   2.550
40951SOL     OW24685   7.752   1.808  11.570
40951SOL    HW124686   7.745   1.887  11.516
40951SOL    HW224687   7.845   1.804  11.594
40952SOL     OW24688   8.834   9.052  13.530
40952SOL    HW124689   8.778   9.094  13.596
40952SOL    HW224690   8.920   9.089  13.544
40953SOL     OW24691  10.674  11.298  12.214
40953SOL    HW124692  10.581  11.315  12.200
40953SOL    HW224693  10.709  11.282  12.126
40954SOL     OW24694  12.818   4.472   2.057
40954SOL    HW124695  12.856   4.423   1.985
40954SOL    HW224696  12.822   4.563   2.030
40955SOL     OW24697   1.346  10.404   5.453
40955SOL    HW124698   1.333  10.485   5.502
40955SOL    HW224699   1.389  10.432   5.372
40956SOL     OW24700  14.567   0.768  11.013
40956SOL    HW124701  14.477   0.773  10.980
40956SOL    HW224702  14.583   0.853  11.054
40957SOL     OW24703   1.511  12.283  12.963
40957SOL    HW124704   1.429  12.249  12.927
40957SOL    HW224705   1.549  12.209  13.011
40958SOL     OW24706   8.740   5.269   2.708
40958SOL    HW124707   8.675   5.239   2.771
40958SOL    HW224708   8.822   5.231   2.738
40959SOL     OW24709   1.896  12.366   2.065
40959SOL    HW124710   1.986  12.352   2.034
40959SOL    HW224711   1.846  12.382   1.985
40960SOL     OW24712   3.036   4.668   2.262
40960SOL    HW124713   3.046   4.709   2.348
40960SOL    HW224714   2.953   4.620   2.269
40961SOL     OW24715  13.378   8.977   0.875
40961SOL    HW124716  13.415   8.948   0.958
40961SOL    HW224717  13.288   9.002   0.895
40962SOL     OW24718  11.342  10.755   1.330
40962SOL    HW124719  11.305  10.668   1.343
40962SOL    HW224720  11.318  10.804   1.409
40963SOL     OW24721   7.125   7.159   1.044
40963SOL    HW124722   7.159   7.140   0.957
40963SOL    HW224723   7.169   7.096   1.101
40964SOL     OW24724   9.827  14.473   2.572
40964SOL    HW124725   9.811  14.386   2.536
40964SOL    HW224726   9.802  14.533   2.502
40965SOL     OW24727   0.103   7.780   9.430
40965SOL    HW124728   0.049   7.857   9.411
40965SOL    HW224729   0.040   7.710   9.447
40966SOL     OW24730  14.717   7.751   7.741
40966SOL    HW124731  14.765   7.670   7.721
40966SOL    HW224732  14.694   7.742   7.834
40967SOL     OW24733  10.008  11.025   2.820
40967SOL    HW124734   9.925  11.045   2.864
40967SOL    HW224735  10.050  10.960   2.876
40968SOL     OW24736   6.302  14.878   6.082
40968SOL    HW124737   6.304  14.795   6.035
40968SOL    HW224738   6.362   0.055   6.034
40969SOL     OW24739  11.804   6.905  11.324
40969SOL    HW124740  11.872   6.879  11.387
40969SOL    HW224741  11.841   6.881  11.239
40970SOL     OW24742   0.801  12.313   1.085
40970SOL    HW124743   0.887  12.355   1.079
40970SOL    HW224744   0.739  12.386   1.087
40971SOL     OW24745   6.162   3.896  14.386
40971SOL    HW124746   6.179   3.858  14.300
40971SOL    HW224747   6.067   3.914  14.386
40972SOL     OW24748   4.445   3.128  13.940
40972SOL    HW124749   4.365   3.121  13.887
40972SOL    HW224750   4.515   3.142  13.877
40973SOL     OW24751   3.134   8.666   8.711
40973SOL    HW124752   3.154   8.605   8.782
40973SOL    HW224753   3.039   8.661   8.701
40974SOL     OW24754   8.672   4.088  10.558
40974SOL    HW124755   8.679   4.177  10.591
40974SOL    HW224756   8.579   4.066  10.566
40975SOL     OW24757   1.944   2.579   8.760
40975SOL    HW124758   1.990   2.495   8.766
40975SOL    HW224759   1.950   2.616   8.848
40976SOL     OW24760   2.957   2.249   0.299
40976SOL    HW124761   2.947   2.331   0.251
40976SOL    HW224762   3.029   2.204   0.256
40977SOL     OW24763   4.444   4.618  12.343
40977SOL    HW124764   4.476   4.649  12.258
40977SOL    HW224765   4.353   4.647  12.346
40978SOL     OW24766  11.572  10.300   4.489
40978SOL    HW124767  11.476  10.298   4.492
40978SOL    HW224768  11.594  10.243   4.415
40979SOL     OW24769  10.594   6.825   9.502
40979SOL    HW124770  10.501   6.817   9.481
40979SOL    HW224771  10.621   6.906   9.458
40980SOL     OW24772  12.510  12.655   9.090
40980SOL    HW124773  12.489  12.685   9.002
40980SOL    HW224774  12.517  12.560   9.082
40981SOL     OW24775   4.836   4.375  10.306
40981SOL    HW124776   4.811   4.438  10.239
40981SOL    HW224777   4.870   4.300  10.257
40982SOL     OW24778   6.602   0.024   2.347
40982SOL    HW124779   6.549   0.063   2.278
40982SOL    HW224780   6.625  14.816   2.314
40983SOL     OW24781  12.237  13.096   3.668
40983SOL    HW124782  12.167  13.108   3.731
40983SOL    HW224783  12.258  13.184   3.637
40984SOL     OW24784   8.178  12.795   2.043
40984SOL    HW124785   8.239  12.772   1.972
40984SOL    HW224786   8.120  12.719   2.050
40985SOL     OW24787   3.956   7.619   4.583
40985SOL    HW124788   3.899   7.696   4.584
40985SOL    HW224789   4.034   7.648   4.535
40986SOL     OW24790   7.128   5.827  10.237
40986SOL    HW124791   7.135   5.791  10.325
40986SOL    HW224792   7.147   5.920  10.247
40987SOL     OW24793   4.619   7.905  13.773
40987SOL    HW124794   4.624   7.948  13.858
40987SOL    HW224795   4.586   7.818  13.793
40988SOL     OW24796  11.406   4.390  12.020
40988SOL    HW124797  11.375   4.440  11.945
40988SOL    HW224798  11.329   4.378  12.075
40989SOL     OW24799  13.695  13.068   8.213
40989SOL    HW124800  13.678  12.985   8.170
40989SOL    HW224801  13.657  13.058   8.301
40990SOL     OW24802  14.617  13.907   2.747
40990SOL    HW124803  14.655  13.832   2.702
40990SOL    HW224804  14.657  13.906   2.834
40991SOL     OW24805  14.778  13.249  13.316
40991SOL    HW124806  14.768  13.276  13.225
40991SOL    HW224807  14.693  13.212  13.340
40992SOL     OW24808   8.134   6.083   6.842
40992SOL    HW124809   8.201   6.020   6.817
40992SOL    HW224810   8.054   6.031   6.851
40993SOL     OW24811  11.729   3.199   5.003
40993SOL    HW124812  11.711   3.112   4.968
40993SOL    HW224813  11.720   3.258   4.928
40994SOL     OW24814  10.884   5.467   2.407
40994SOL    HW124815  10.813   5.437   2.464
40994SOL    HW224816  10.873   5.562   2.403
40995SOL     OW24817   8.318  10.741   6.212
40995SOL    HW124818   8.260  10.810   6.178
40995SOL    HW224819   8.375  10.720   6.138
40996SOL     OW24820  13.773  10.263   3.112
40996SOL    HW124821  13.705  10.274   3.178
40996SOL    HW224822  13.844  10.220   3.158
40997SOL     OW24823   4.157  11.841   5.154
40997SOL    HW124824   4.088  11.780   5.180
40997SOL    HW224825   4.133  11.924   5.195
40998SOL     OW24826   8.386   9.119   8.655
40998SOL    HW124827   8.445   9.085   8.588
40998SOL    HW224828   8.366   9.209   8.627
40999SOL     OW24829   8.517   4.756   5.208
40999SOL    HW124830   8.586   4.805   5.162
40999SOL    HW224831   8.463   4.719   5.137
41000SOL     OW24832  13.826   5.727  12.068
41000SOL    HW124833  13.900   5.759  12.017
41000SOL    HW224834  13.754   5.722  12.005
41001SOL     OW24835   0.692   5.854   6.254
41001SOL    HW124836   0.742   5.930   6.282
41001SOL    HW224837   0.752   5.780   6.265
41002SOL     OW24838   4.341   1.738   1.458
41002SOL    HW124839   4.375   1.712   1.372
41002SOL    HW224840   4.359   1.831   1.464
41003SOL     OW24841   0.930  11.463   6.979
41003SOL    HW124842   0.924  11.555   6.955
41003SOL    HW224843   0.921  11.416   6.895
41004SOL     OW24844   9.976   4.509   2.748
41004SOL    HW124845  10.018   4.584   2.705
41004SOL    HW224846   9.946   4.544   2.832
41005SOL     OW24847  14.557   1.218   6.330
41005SOL    HW124848  14.639   1.239   6.375
41005SOL    HW224849  14.547   1.288   6.265
41006SOL     OW24850  14.087   7.785   5.169
41006SOL    HW124851  14.129   7.703   5.143
41006SOL    HW224852  14.137   7.815   5.245
41007SOL     OW24853   6.601  13.432   0.554
41007SOL    HW124854   6.540  13.465   0.487
41007SOL    HW224855   6.544  13.408   0.627
41008SOL     OW24856  14.115   5.628   3.151
41008SOL    HW124857  14.204   5.642   3.118
41008SOL    HW224858  14.127   5.601   3.242
41009SOL     OW24859   5.958  12.294  14.680
41009SOL    HW124860   6.028  12.308  14.743
41009SOL    HW224861   5.984  12.215  14.633
41010SOL     OW24862  13.077   4.350   6.528
41010SOL    HW124863  13.087   4.434   6.574
41010SOL    HW224864  13.155   4.301   6.553
41011SOL     OW24865   4.691   8.287  14.629
41011SOL    HW124866   4.783   8.264  14.640
41011SOL    HW224867   4.644   8.207  14.650
41012SOL     OW24868   4.227   1.159   8.388
41012SOL    HW124869   4.212   1.203   8.305
41012SOL    HW224870   4.314   1.189   8.415
41013SOL     OW24871  14.821   2.947   6.620
41013SOL    HW124872  14.749   3.008   6.632
41013SOL    HW224873  14.836   2.910   6.707
41014SOL     OW24874   3.298   5.471   4.803
41014SOL    HW124875   3.279   5.448   4.712
41014SOL    HW224876   3.215   5.456   4.849
41015SOL     OW24877  10.004  11.397  13.673
41015SOL    HW124878   9.985  11.329  13.609
41015SOL    HW224879  10.073  11.360  13.728
41016SOL     OW24880   3.511   5.929  13.798
41016SOL    HW124881   3.590   5.938  13.744
41016SOL    HW224882   3.532   5.977  13.878
41017SOL     OW24883   5.708   6.070  14.578
41017SOL    HW124884   5.710   6.132  14.505
41017SOL    HW224885   5.795   6.030  14.579
41018SOL     OW24886   8.423   3.654   5.246
41018SOL    HW124887   8.381   3.615   5.323
41018SOL    HW224888   8.366   3.628   5.173
41019SOL     OW24889   1.735   8.076   7.150
41019SOL    HW124890   1.705   8.077   7.059
41019SOL    HW224891   1.711   8.163   7.183
41020SOL     OW24892   0.805  13.894  11.935
41020SOL    HW124893   0.883  13.866  11.983
41020SOL    HW224894   0.752  13.815  11.929
41021SOL     OW24895   7.459   9.635  14.528
41021SOL    HW124896   7.452   9.554  14.579
41021SOL    HW224897   7.419   9.702  14.583
41022SOL     OW24898   0.672  12.619   6.984
41022SOL    HW124899   0.717  12.617   7.068
41022SOL    HW224900   0.740  12.637   6.920
41023SOL     OW24901  13.385   6.976   6.675
41023SOL    HW124902  13.476   6.987   6.645
41023SOL    HW224903  13.384   6.891   6.718
41024SOL     OW24904   1.329  14.665  11.338
41024SOL    HW124905   1.307  14.630  11.252
41024SOL    HW224906   1.405  14.722  11.323
41025SOL     OW24907   9.781   0.054   3.642
41025SOL    HW124908   9.748   0.089   3.725
41025SOL    HW224909   9.702   0.024   3.596
41026SOL     OW24910   2.904  14.691  11.955
41026SOL    HW124911   2.867  14.767  11.909
41026SOL    HW224912   2.863  14.615  11.913
41027SOL     OW24913   5.266   0.684   6.842
41027SOL    HW124914   5.262   0.772   6.880
41027SOL    HW224915   5.183   0.674   6.795
41028SOL     OW24916   0.883   6.525   0.060
41028SOL    HW124917   0.822   6.541  14.867
41028SOL    HW224918   0.955   6.476   0.020
41029SOL     OW24919  11.612   1.508  10.634
41029SOL    HW124920  11.547   1.542  10.572
41029SOL    HW224921  11.674   1.581  10.644
41030SOL     OW24922   8.075   8.650  12.590
41030SOL    HW124923   8.147   8.587  12.583
41030SOL    HW224924   8.107   8.714  12.654
41031SOL     OW24925   4.744  10.651   8.637
41031SOL    HW124926   4.692  10.573   8.658
41031SOL    HW224927   4.681  10.713   8.602
41032SOL     OW24928   6.800  13.705   2.407
41032SOL    HW124929   6.837  13.793   2.413
41032SOL    HW224930   6.729  13.704   2.471
41033SOL     OW24931   9.830   1.649  14.603
41033SOL    HW124932   9.738   1.672  14.586
41033SOL    HW224933   9.880   1.720  14.565
41034SOL     OW24934   7.218   2.341   7.616
41034SOL    HW124935   7.288   2.406   7.605
41034SOL    HW224936   7.137   2.392   7.615
41035SOL     OW24937   2.253   6.726  11.670
41035SOL    HW124938   2.329   6.750  11.618
41035SOL    HW224939   2.213   6.810  11.693
41036SOL     OW24940   7.965   9.282  12.219
41036SOL    HW124941   7.919   9.258  12.139
41036SOL    HW224942   7.904   9.261  12.289
41037SOL     OW24943   4.942  11.656  12.068
41037SOL    HW124944   4.928  11.608  11.987
41037SOL    HW224945   4.907  11.600  12.137
41038SOL     OW24946   3.280   5.613   1.704
41038SOL    HW124947   3.298   5.523   1.674
41038SOL    HW224948   3.363   5.645   1.736
41039SOL     OW24949   0.017   1.883   8.893
41039SOL    HW124950   0.102   1.925   8.908
41039SOL    HW224951   0.004   1.888   8.799
41040SOL     OW24952  14.163   7.563   8.170
41040SOL    HW124953  14.121   7.479   8.187
41040SOL    HW224954  14.213   7.581   8.250
41041SOL     OW24955  12.815   3.673  11.325
41041SOL    HW124956  12.749   3.729  11.365
41041SOL    HW224957  12.788   3.666  11.233
41042SOL     OW24958  10.117   4.440  10.604
41042SOL    HW124959  10.124   4.408  10.514
41042SOL    HW224960  10.118   4.362  10.658
41043SOL     OW24961   8.521   6.878   6.013
41043SOL    HW124962   8.553   6.835   6.093
41043SOL    HW224963   8.591   6.939   5.989
41044SOL     OW24964   4.820  13.303   4.173
41044SOL    HW124965   4.898  13.272   4.127
41044SOL    HW224966   4.843  13.391   4.202
41045SOL     OW24967   4.432  12.202   1.951
41045SOL    HW124968   4.390  12.261   2.014
41045SOL    HW224969   4.520  12.237   1.939
41046SOL     OW24970   1.953   1.505   4.361
41046SOL    HW124971   1.997   1.558   4.295
41046SOL    HW224972   2.014   1.504   4.435
41047SOL     OW24973   8.317   4.572  12.447
41047SOL    HW124974   8.387   4.581  12.512
41047SOL    HW224975   8.362   4.538  12.369
41048SOL     OW24976   8.941   3.205   0.613
41048SOL    HW124977   8.864   3.151   0.633
41048SOL    HW224978   9.013   3.142   0.607
41049SOL     OW24979   9.833  13.643  14.260
41049SOL    HW124980   9.883  13.661  14.180
41049SOL    HW224981   9.775  13.718  14.269
41050SOL     OW24982   3.666   6.174  11.064
41050SOL    HW124983   3.584   6.130  11.045
41050SOL    HW224984   3.696   6.207  10.980
41051SOL     OW24985   9.945  11.177  12.838
41051SOL    HW124986  10.033  11.175  12.798
41051SOL    HW224987   9.950  11.112  12.908
41052SOL     OW24988  10.920  13.737   1.003
41052SOL    HW124989  10.891  13.659   1.051
41052SOL    HW224990  11.012  13.748   1.027
41053SOL     OW24991   9.980   6.046   8.747
41053SOL    HW124992   9.941   6.133   8.755
41053SOL    HW224993  10.071   6.062   8.722
41054SOL     OW24994   1.082   8.204   3.975
41054SOL    HW124995   1.095   8.113   4.003
41054SOL    HW224996   0.987   8.217   3.980
41055SOL     OW24997   5.449   9.859   7.738
41055SOL    HW124998   5.405   9.930   7.785
41055SOL    HW224999   5.454   9.889   7.647
41056SOL     OW25000   5.476  11.180   9.555
41056SOL    HW125001   5.526  11.156   9.477
41056SOL    HW225002   5.445  11.269   9.538
41057SOL     OW25003   4.662  14.079  10.971
41057SOL    HW125004   4.572  14.048  10.983
41057SOL    HW225005   4.679  14.133  11.049
41058SOL     OW25006  14.346  12.630  10.950
41058SOL    HW125007  14.392  12.668  10.876
41058SOL    HW225008  14.404  12.645  11.025
41059SOL     OW25009  10.794   9.389   6.681
41059SOL    HW125010  10.706   9.402   6.645
41059SOL    HW225011  10.805   9.294   6.685
41060SOL     OW25012   9.389  12.922  11.125
41060SOL    HW125013   9.423  12.908  11.036
41060SOL    HW225014   9.437  12.999  11.157
41061SOL     OW25015  10.768  14.582  10.235
41061SOL    HW125016  10.839  14.577  10.172
41061SOL    HW225017  10.761  14.675  10.257
41062SOL     OW25018  10.893   8.395   7.626
41062SOL    HW125019  10.797   8.395   7.625
41062SOL    HW225020  10.917   8.458   7.558
41063SOL     OW25021   9.775   2.452   8.675
41063SOL    HW125022   9.774   2.548   8.682
41063SOL    HW225023   9.685   2.428   8.655
41064SOL     OW25024  11.371   7.358   8.616
41064SOL    HW125025  11.287   7.333   8.579
41064SOL    HW225026  11.370   7.454   8.614
41065SOL     OW25027  10.434  14.081   3.702
41065SOL    HW125028  10.491  14.121   3.636
41065SOL    HW225029  10.493  14.025   3.753
41066SOL     OW25030   9.858   6.584   1.464
41066SOL    HW125031   9.781   6.568   1.519
41066SOL    HW225032   9.831   6.655   1.405
41067SOL     OW25033   0.050  13.209  10.071
41067SOL    HW125034   0.046  13.250  10.157
41067SOL    HW225035  14.838  13.194  10.047
41068SOL     OW25036   6.689  14.802   6.836
41068SOL    HW125037   6.665  14.795   6.928
41068SOL    HW225038   6.784  14.809   6.836
41069SOL     OW25039   5.317  11.543   3.988
41069SOL    HW125040   5.264  11.599   3.932
41069SOL    HW225041   5.266  11.463   3.997
41070SOL     OW25042   1.167  13.728   1.489
41070SOL    HW125043   1.206  13.764   1.409
41070SOL    HW225044   1.144  13.638   1.466
41071SOL     OW25045   5.988  14.220   6.599
41071SOL    HW125046   6.041  14.293   6.567
41071SOL    HW225047   5.971  14.168   6.521
41072SOL     OW25048   5.292   2.049   8.453
41072SOL    HW125049   5.209   2.070   8.495
41072SOL    HW225050   5.311   2.125   8.398
41073SOL     OW25051  11.955   9.754   7.072
41073SOL    HW125052  11.864   9.730   7.092
41073SOL    HW225053  11.985   9.685   7.012
41074SOL     OW25054   3.417   2.042   5.311
41074SOL    HW125055   3.339   1.989   5.329
41074SOL    HW225056   3.425   2.099   5.387
41075SOL     OW25057  11.269  14.695   2.526
41075SOL    HW125058  11.333  14.765   2.540
41075SOL    HW225059  11.314  14.615   2.555
41076SOL     OW25060  10.805   6.062   5.292
41076SOL    HW125061  10.893   6.100   5.293
41076SOL    HW225062  10.750   6.130   5.252
41077SOL     OW25063   6.586   4.696   5.057
41077SOL    HW125064   6.644   4.636   5.104
41077SOL    HW225065   6.515   4.713   5.119
41078SOL     OW25066   8.332   6.008   0.097
41078SOL    HW125067   8.256   5.994   0.154
41078SOL    HW225068   8.391   6.062   0.149
41079SOL     OW25069   3.881   1.782   8.356
41079SOL    HW125070   3.820   1.739   8.415
41079SOL    HW225071   3.945   1.824   8.413
41080SOL     OW25072   2.401  13.638  14.102
41080SOL    HW125073   2.373  13.706  14.163
41080SOL    HW225074   2.491  13.618  14.127
41081SOL     OW25075  12.873   5.091   7.685
41081SOL    HW125076  12.919   5.029   7.741
41081SOL    HW225077  12.911   5.076   7.598
41082SOL     OW25078  11.737   1.225   1.266
41082SOL    HW125079  11.687   1.306   1.255
41082SOL    HW225080  11.678   1.156   1.234
41083SOL     OW25081   1.164   4.961   0.159
41083SOL    HW125082   1.109   4.953   0.081
41083SOL    HW225083   1.225   4.888   0.153
41084SOL     OW25084   1.308   9.733   3.694
41084SOL    HW125085   1.268   9.713   3.779
41084SOL    HW225086   1.399   9.750   3.714
41085SOL     OW25087  12.345  14.827   2.925
41085SOL    HW125088  12.317  14.860   2.840
41085SOL    HW225089  12.393  14.746   2.906
41086SOL     OW25090  12.082  10.780  13.457
41086SOL    HW125091  12.039  10.728  13.389
41086SOL    HW225092  12.164  10.733  13.474
41087SOL     OW25093   3.453  13.583   5.294
41087SOL    HW125094   3.516  13.593   5.365
41087SOL    HW225095   3.368  13.603   5.334
41088SOL     OW25096  11.320   3.510   6.077
41088SOL    HW125097  11.395   3.532   6.021
41088SOL    HW225098  11.273   3.443   6.028
41089SOL     OW25099   2.477   0.598   1.119
41089SOL    HW125100   2.510   0.682   1.151
41089SOL    HW225101   2.382   0.607   1.122
41090SOL     OW25102   6.306   0.050   1.681
41090SOL    HW125103   6.311   0.134   1.636
41090SOL    HW225104   6.213   0.030   1.684
41091SOL     OW25105  14.675   1.582   5.693
41091SOL    HW125106  14.604   1.619   5.745
41091SOL    HW225107  14.724   1.657   5.661
41092SOL     OW25108  13.505   0.651  12.664
41092SOL    HW125109  13.526   0.584  12.598
41092SOL    HW225110  13.507   0.733  12.615
41093SOL     OW25111   3.479   8.678  12.057
41093SOL    HW125112   3.510   8.768  12.069
41093SOL    HW225113   3.446   8.652  12.142
41094SOL     OW25114   0.953  12.168   0.886
41094SOL    HW125115   0.883  12.214   0.934
41094SOL    HW225116   0.984  12.233   0.822
41095SOL     OW25117   1.851  14.611  10.349
41095SOL    HW125118   1.937  14.650  10.361
41095SOL    HW225119   1.846  14.593  10.255
41096SOL     OW25120  12.910   7.436   7.543
41096SOL    HW125121  12.877   7.410   7.457
41096SOL    HW225122  12.919   7.354   7.591
41097SOL     OW25123   4.450   3.629   1.450
41097SOL    HW125124   4.505   3.560   1.488
41097SOL    HW225125   4.373   3.631   1.506
41098SOL     OW25126   2.685  12.095  10.101
41098SOL    HW125127   2.650  12.183  10.086
41098SOL    HW225128   2.780  12.108  10.101
41099SOL     OW25129   2.537  11.128  12.649
41099SOL    HW125130   2.526  11.223  12.656
41099SOL    HW225131   2.599  11.106  12.719
41100SOL     OW25132   9.038   3.974  14.867
41100SOL    HW125133   8.962   3.967  14.809
41100SOL    HW225134   9.069   3.884  14.878
41101SOL     OW25135   7.967   6.416   5.383
41101SOL    HW125136   8.005   6.473   5.316
41101SOL    HW225137   7.922   6.476   5.442
41102SOL     OW25138   4.937   4.992   4.964
41102SOL    HW125139   4.863   5.030   4.916
41102SOL    HW225140   4.922   5.018   5.055
41103SOL     OW25141  12.099  10.086   8.770
41103SOL    HW125142  12.190  10.084   8.799
41103SOL    HW225143  12.089  10.007   8.717
41104SOL     OW25144   2.148  12.299   3.847
41104SOL    HW125145   2.062  12.257   3.851
41104SOL    HW225146   2.187  12.281   3.932
41105SOL     OW25147   7.488  11.193   6.179
41105SOL    HW125148   7.569  11.186   6.229
41105SOL    HW225149   7.465  11.103   6.158
41106SOL     OW25150   9.980   3.546  14.014
41106SOL    HW125151  10.018   3.623  14.055
41106SOL    HW225152  10.030   3.473  14.051
41107SOL     OW25153   2.024  14.062   7.064
41107SOL    HW125154   2.027  14.063   6.968
41107SOL    HW225155   2.103  14.013   7.089
41108SOL     OW25156   7.578   7.400   6.115
41108SOL    HW125157   7.581   7.382   6.021
41108SOL    HW225158   7.669   7.414   6.139
41109SOL     OW25159   3.227   4.959  11.027
41109SOL    HW125160   3.265   4.999  11.105
41109SOL    HW225161   3.248   4.866  11.036
41110SOL     OW25162  10.090   0.873  10.236
41110SOL    HW125163  10.099   0.876  10.141
41110SOL    HW225164  10.165   0.922  10.269
41111SOL     OW25165   6.384  11.014   1.432
41111SOL    HW125166   6.401  10.929   1.474
41111SOL    HW225167   6.342  11.066   1.499
41112SOL     OW25168   2.457   0.086   5.617
41112SOL    HW125169   2.372   0.059   5.582
41112SOL    HW225170   2.509   0.108   5.540
41113SOL     OW25171   6.183   5.693  14.482
41113SOL    HW125172   6.147   5.633  14.417
41113SOL    HW225173   6.264   5.724  14.443
41114SOL     OW25174   1.641   2.897   7.511
41114SOL    HW125175   1.710   2.832   7.515
41114SOL    HW225176   1.614   2.910   7.602
41115SOL     OW25177  10.350   0.302   2.297
41115SOL    HW125178  10.421   0.367   2.294
41115SOL    HW225179  10.388   0.224   2.257
41116SOL     OW25180  11.125   9.108   1.983
41116SOL    HW125181  11.089   9.122   2.070
41116SOL    HW225182  11.202   9.165   1.979
41117SOL     OW25183   0.076   8.190  14.569
41117SOL    HW125184   0.157   8.148  14.543
41117SOL    HW225185   0.082   8.198  14.665
41118SOL     OW25186  10.083   7.995   6.384
41118SOL    HW125187  10.168   8.028   6.413
41118SOL    HW225188  10.082   8.011   6.290
41119SOL     OW25189  10.717  12.383   2.804
41119SOL    HW125190  10.646  12.343   2.752
41119SOL    HW225191  10.737  12.465   2.758
41120SOL     OW25192   2.725   8.438   4.658
41120SOL    HW125193   2.671   8.434   4.580
41120SOL    HW225194   2.718   8.351   4.698
41121SOL     OW25195   1.781   1.236   2.700
41121SOL    HW125196   1.861   1.183   2.698
41121SOL    HW225197   1.716   1.179   2.739
41122SOL     OW25198   3.628   7.172   2.559
41122SOL    HW125199   3.663   7.258   2.534
41122SOL    HW225200   3.533   7.186   2.566
41123SOL     OW25201   0.153   0.925   2.635
41123SOL    HW125202   0.082   0.946   2.696
41123SOL    HW225203   0.148   0.830   2.625
41124SOL     OW25204  10.246   1.057   8.614
41124SOL    HW125205  10.327   1.104   8.631
41124SOL    HW225206  10.253   1.029   8.522
41125SOL     OW25207   5.966   6.903  12.433
41125SOL    HW125208   5.954   6.951  12.515
41125SOL    HW225209   6.021   6.828  12.456
41126SOL     OW25210   1.597   5.708  10.652
41126SOL    HW125211   1.560   5.796  10.659
41126SOL    HW225212   1.529   5.657  10.607
41127SOL     OW25213   0.440  13.675  12.014
41127SOL    HW125214   0.434  13.751  12.071
41127SOL    HW225215   0.533  13.654  12.011
41128SOL     OW25216   9.325  12.806   5.908
41128SOL    HW125217   9.306  12.715   5.928
41128SOL    HW225218   9.353  12.844   5.991
41129SOL     OW25219  13.607   1.769   1.939
41129SOL    HW125220  13.586   1.809   2.023
41129SOL    HW225221  13.532   1.789   1.883
41130SOL     OW25222   0.866   3.227  12.089
41130SOL    HW125223   0.909   3.166  12.028
41130SOL    HW225224   0.775   3.199  12.090
41131SOL     OW25225   8.044  10.199   0.733
41131SOL    HW125226   8.038  10.277   0.678
41131SOL    HW225227   8.030  10.232   0.822
41132SOL     OW25228   9.465   1.191   3.288
41132SOL    HW125229   9.526   1.215   3.358
41132SOL    HW225230   9.505   1.117   3.244
41133SOL     OW25231   3.620   5.535  13.659
41133SOL    HW125232   3.661   5.621  13.662
41133SOL    HW225233   3.528   5.551  13.675
41134SOL     OW25234   3.931  13.385   1.749
41134SOL    HW125235   4.007  13.381   1.807
41134SOL    HW225236   3.856  13.394   1.808
41135SOL     OW25237  13.972   2.196   3.920
41135SOL    HW125238  13.929   2.117   3.951
41135SOL    HW225239  14.034   2.219   3.990
41136SOL     OW25240  12.968  13.426   0.875
41136SOL    HW125241  12.938  13.504   0.922
41136SOL    HW225242  13.060  13.416   0.900
41137SOL     OW25243   9.765   6.251   3.735
41137SOL    HW125244   9.808   6.317   3.682
41137SOL    HW225245   9.742   6.181   3.674
41138SOL     OW25246   7.597   5.332   8.173
41138SOL    HW125247   7.508   5.339   8.206
41138SOL    HW225248   7.641   5.411   8.204
41139SOL     OW25249   0.099   3.434   6.143
41139SOL    HW125250   0.151   3.511   6.121
41139SOL    HW225251   0.105   3.427   6.238
41140SOL     OW25252   7.920   7.567   5.763
41140SOL    HW125253   7.928   7.507   5.689
41140SOL    HW225254   7.826   7.572   5.781
41141SOL     OW25255   3.406   9.180   8.808
41141SOL    HW125256   3.353   9.197   8.886
41141SOL    HW225257   3.356   9.113   8.760
41142SOL     OW25258   8.132  10.748  10.752
41142SOL    HW125259   8.086  10.808  10.694
41142SOL    HW225260   8.129  10.790  10.838
41143SOL     OW25261   8.383  12.532  11.770
41143SOL    HW125262   8.364  12.439  11.777
41143SOL    HW225263   8.444  12.539  11.696
41144SOL     OW25264  11.231  12.484   9.283
41144SOL    HW125265  11.170  12.478   9.209
41144SOL    HW225266  11.269  12.397   9.289
41145SOL     OW25267   0.767  11.862  14.529
41145SOL    HW125268   0.818  11.785  14.552
41145SOL    HW225269   0.678  11.828  14.514
41146SOL     OW25270   8.953  11.534   6.916
41146SOL    HW125271   8.975  11.539   7.009
41146SOL    HW225272   9.023  11.479   6.878
41147SOL     OW25273  11.659   1.067  11.298
41147SOL    HW125274  11.632   1.095  11.386
41147SOL    HW225275  11.752   1.090  11.293
41148SOL     OW25276   5.515   4.872   6.350
41148SOL    HW125277   5.448   4.929   6.388
41148SOL    HW225278   5.478   4.845   6.266
41149SOL     OW25279  14.668  12.669  10.993
41149SOL    HW125280  14.633  12.606  11.056
41149SOL    HW225281  14.664  12.753  11.039
41150SOL     OW25282   5.284  13.550   5.837
41150SOL    HW125283   5.209  13.490   5.844
41150SOL    HW225284   5.251  13.633   5.873
41151SOL     OW25285  12.768   0.943   8.620
41151SOL    HW125286  12.767   0.924   8.526
41151SOL    HW225287  12.679   0.969   8.641
41152SOL     OW25288   2.726  13.492  13.156
41152SOL    HW125289   2.729  13.400  13.128
41152SOL    HW225290   2.795  13.535  13.107
41153SOL     OW25291  13.923  13.608   0.859
41153SOL    HW125292  13.986  13.614   0.787
41153SOL    HW225293  13.838  13.604   0.817
41154SOL     OW25294   0.407  11.299  12.309
41154SOL    HW125295   0.396  11.246  12.388
41154SOL    HW225296   0.438  11.238  12.243
41155SOL     OW25297  14.629   0.321   0.367
41155SOL    HW125298  14.711   0.332   0.414
41155SOL    HW225299  14.561   0.335   0.433
41156SOL     OW25300  13.079   1.535   5.240
41156SOL    HW125301  13.123   1.615   5.210
41156SOL    HW225302  13.103   1.469   5.176
41157SOL     OW25303  13.625   7.404   0.660
41157SOL    HW125304  13.611   7.330   0.601
41157SOL    HW225305  13.719   7.401   0.679
41158SOL     OW25306   0.227   2.002   9.270
41158SOL    HW125307   0.170   2.078   9.259
41158SOL    HW225308   0.254   1.979   9.181
41159SOL     OW25309  14.479   8.722   5.668
41159SOL    HW125310  14.564   8.690   5.638
41159SOL    HW225311  14.499   8.773   5.747
41160SOL     OW25312  11.543  13.739   7.850
41160SOL    HW125313  11.464  13.690   7.870
41160SOL    HW225314  11.573  13.772   7.935
41161SOL     OW25315  12.077  10.918   4.840
41161SOL    HW125316  12.046  11.001   4.804
41161SOL    HW225317  12.012  10.854   4.811
41162SOL     OW25318  10.190   3.380   3.204
41162SOL    HW125319  10.280   3.412   3.198
41162SOL    HW225320  10.168   3.389   3.297
41163SOL     OW25321  10.241   6.966  13.636
41163SOL    HW125322  10.157   7.005  13.662
41163SOL    HW225323  10.306   7.033  13.655
41164SOL     OW25324   1.929  10.256   6.234
41164SOL    HW125325   1.947  10.215   6.149
41164SOL    HW225326   1.957  10.190   6.298
41165SOL     OW25327   9.024   7.864   0.431
41165SOL    HW125328   8.993   7.790   0.380
41165SOL    HW225329   8.998   7.941   0.380
41166SOL     OW25330  13.577   0.358  12.064
41166SOL    HW125331  13.487   0.367  12.035
41166SOL    HW225332  13.570   0.320  12.152
41167SOL     OW25333  14.532   6.925  11.540
41167SOL    HW125334  14.548   6.927  11.446
41167SOL    HW225335  14.593   6.989  11.577
41168SOL     OW25336   0.782   6.185   1.607
41168SOL    HW125337   0.822   6.171   1.693
41168SOL    HW225338   0.835   6.255   1.567
41169SOL     OW25339   7.935   3.692   3.666
41169SOL    HW125340   7.856   3.730   3.707
41169SOL    HW225341   8.007   3.747   3.699
41170SOL     OW25342   4.568  12.957  13.768
41170SOL    HW125343   4.641  12.977  13.710
41170SOL    HW225344   4.609  12.932  13.851
41171SOL     OW25345   0.085  10.556   5.923
41171SOL    HW125346   0.081  10.622   5.854
41171SOL    HW225347  14.875  10.553   5.958
41172SOL     OW25348   3.529  12.819  11.893
41172SOL    HW125349   3.584  12.759  11.942
41172SOL    HW225350   3.469  12.762  11.845
41173SOL     OW25351  11.571  11.410   7.445
41173SOL    HW125352  11.563  11.315   7.454
41173SOL    HW225353  11.500  11.445   7.499
41174SOL     OW25354  10.848   7.133  13.830
41174SOL    HW125355  10.882   7.218  13.801
41174SOL    HW225356  10.923   7.090  13.872
41175SOL     OW25357  13.528   6.019  11.852
41175SOL    HW125358  13.614   6.045  11.819
41175SOL    HW225359  13.532   6.034  11.946
41176SOL     OW25360   0.907   4.295   4.504
41176SOL    HW125361   0.850   4.347   4.447
41176SOL    HW225362   0.850   4.225   4.537
41177SOL     OW25363  10.693  13.114   8.044
41177SOL    HW125364  10.655  13.028   8.061
41177SOL    HW225365  10.619  13.174   8.051
41178SOL     OW25366   5.044   2.884   4.879
41178SOL    HW125367   5.042   2.933   4.797
41178SOL    HW225368   5.078   2.946   4.943
41179SOL     OW25369   6.230  12.068  11.097
41179SOL    HW125370   6.178  12.148  11.091
41179SOL    HW225371   6.321  12.099  11.104
41180SOL     OW25372   9.847   6.910  14.691
41180SOL    HW125373   9.764   6.925  14.737
41180SOL    HW225374   9.888   6.996  14.686
41181SOL     OW25375   2.524   1.408  14.320
41181SOL    HW125376   2.594   1.348  14.344
41181SOL    HW225377   2.503   1.454  14.401
41182SOL     OW25378   3.813   7.414  11.512
41182SOL    HW125379   3.820   7.505  11.484
41182SOL    HW225380   3.764   7.371  11.442
41183SOL     OW25381   9.645   1.498  12.530
41183SOL    HW125382   9.573   1.438  12.549
41183SOL    HW225383   9.710   1.480  12.598
41184SOL     OW25384  14.045   9.347   2.492
41184SOL    HW125385  14.004   9.266   2.463
41184SOL    HW225386  14.048   9.340   2.588
41185SOL     OW25387   0.093   7.515   0.666
41185SOL    HW125388   0.108   7.597   0.711
41185SOL    HW225389   0.158   7.455   0.702
41186SOL     OW25390  11.338   3.662  11.070
41186SOL    HW125391  11.297   3.585  11.109
41186SOL    HW225392  11.312   3.735  11.127
41187SOL     OW25393   2.108   5.865  11.042
41187SOL    HW125394   2.204   5.862  11.035
41187SOL    HW225395   2.078   5.840  10.954
41188SOL     OW25396   1.799   1.202   9.077
41188SOL    HW125397   1.831   1.200   9.167
41188SOL    HW225398   1.713   1.243   9.082
41189SOL     OW25399  13.058  13.217   0.683
41189SOL    HW125400  13.003  13.284   0.724
41189SOL    HW225401  13.060  13.146   0.747
41190SOL     OW25402   4.035  12.317   9.137
41190SOL    HW125403   4.034  12.410   9.158
41190SOL    HW225404   4.071  12.312   9.049
41191SOL     OW25405  11.115   0.048  11.504
41191SOL    HW125406  11.111   0.045  11.408
41191SOL    HW225407  11.028   0.021  11.533
41192SOL     OW25408   9.711  13.973   5.796
41192SOL    HW125409   9.637  13.945   5.741
41192SOL    HW225410   9.733  13.895   5.848
41193SOL     OW25411   1.694   0.550  12.047
41193SOL    HW125412   1.644   0.593  12.117
41193SOL    HW225413   1.650   0.466  12.035
41194SOL     OW25414   9.029   3.955  13.380
41194SOL    HW125415   9.055   4.043  13.408
41194SOL    HW225416   9.071   3.943  13.295
41195SOL     OW25417   5.931   2.045   6.347
41195SOL    HW125418   5.974   2.021   6.265
41195SOL    HW225419   5.886   1.965   6.375
41196SOL     OW25420   4.109   3.206   2.597
41196SOL    HW125421   4.149   3.156   2.525
41196SOL    HW225422   4.032   3.247   2.557
41197SOL     OW25423   3.173   6.228   4.051
41197SOL    HW125424   3.255   6.181   4.039
41197SOL    HW225425   3.166   6.285   3.975
41198SOL     OW25426   1.318   9.444   3.199
41198SOL    HW125427   1.249   9.490   3.247
41198SOL    HW225428   1.270   9.381   3.145
41199SOL     OW25429  12.204  10.556   8.432
41199SOL    HW125430  12.155  10.629   8.471
41199SOL    HW225431  12.148  10.480   8.443
41200SOL     OW25432   3.636  14.050  12.126
41200SOL    HW125433   3.564  14.113  12.119
41200SOL    HW225434   3.615  13.982  12.062
41201SOL     OW25435   8.060   7.267   2.789
41201SOL    HW125436   8.153   7.250   2.772
41201SOL    HW225437   8.042   7.216   2.869
41202SOL     OW25438  11.263   6.368  12.567
41202SOL    HW125439  11.252   6.462  12.550
41202SOL    HW225440  11.347   6.346  12.525
41203SOL     OW25441   5.829  10.592   8.515
41203SOL    HW125442   5.904  10.538   8.540
41203SOL    HW225443   5.852  10.624   8.427
41204SOL     OW25444   0.361   2.059   1.762
41204SOL    HW125445   0.351   2.050   1.667
41204SOL    HW225446   0.428   1.995   1.786
41205SOL     OW25447   7.890   1.204   0.800
41205SOL    HW125448   7.859   1.274   0.858
41205SOL    HW225449   7.979   1.230   0.777
41206SOL     OW25450   4.598   2.860   2.628
41206SOL    HW125451   4.635   2.806   2.698
41206SOL    HW225452   4.648   2.835   2.550
41207SOL     OW25453   0.864   5.049   6.099
41207SOL    HW125454   0.781   5.096   6.094
41207SOL    HW225455   0.852   4.984   6.169
41208SOL     OW25456   4.234  12.530   3.092
41208SOL    HW125457   4.196  12.464   3.150
41208SOL    HW225458   4.277  12.592   3.151
41209SOL     OW25459   7.818   8.762  14.651
41209SOL    HW125460   7.900   8.721  14.625
41209SOL    HW225461   7.843   8.822  14.722
41210SOL     OW25462  14.603  13.090   8.246
41210SOL    HW125463  14.563  13.062   8.164
41210SOL    HW225464  14.672  13.025   8.261
41211SOL     OW25465   9.032   6.464  12.334
41211SOL    HW125466   9.081   6.493  12.411
41211SOL    HW225467   9.023   6.543  12.280
41212SOL     OW25468   2.817  10.446   6.869
41212SOL    HW125469   2.756  10.490   6.810
41212SOL    HW225470   2.903  10.480   6.845
41213SOL     OW25471   8.055   0.170   5.195
41213SOL    HW125472   8.017   0.114   5.262
41213SOL    HW225473   8.139   0.198   5.232
41214SOL     OW25474   3.797   9.742   5.689
41214SOL    HW125475   3.703   9.756   5.702
41214SOL    HW225476   3.802   9.661   5.639
41215SOL     OW25477   6.098   9.038   2.118
41215SOL    HW125478   6.114   9.124   2.157
41215SOL    HW225479   6.022   9.051   2.061
41216SOL     OW25480   8.241   8.655   8.742
41216SOL    HW125481   8.177   8.725   8.758
41216SOL    HW225482   8.289   8.647   8.824
41217SOL     OW25483   5.998   4.104  13.794
41217SOL    HW125484   6.025   4.071  13.880
41217SOL    HW225485   5.960   4.028  13.750
41218SOL     OW25486  12.514   7.537   5.485
41218SOL    HW125487  12.605   7.564   5.493
41218SOL    HW225488  12.465   7.618   5.472
41219SOL     OW25489   0.919   4.539   3.825
41219SOL    HW125490   0.944   4.599   3.895
41219SOL    HW225491   1.001   4.520   3.779
41220SOL     OW25492   7.460  13.802   5.659
41220SOL    HW125493   7.365  13.792   5.668
41220SOL    HW225494   7.497  13.730   5.710
41221SOL     OW25495   8.016  12.323  12.294
41221SOL    HW125496   7.993  12.391  12.230
41221SOL    HW225497   7.981  12.355  12.377
41222SOL     OW25498  14.236   8.867   8.655
41222SOL    HW125499  14.144   8.894   8.651
41222SOL    HW225500  14.275   8.906   8.577
41223SOL     OW25501  14.573  11.939   8.977
41223SOL    HW125502  14.585  12.000   9.050
41223SOL    HW225503  14.479  11.920   8.977
41224SOL     OW25504   8.826   8.462   8.516
41224SOL    HW125505   8.873   8.474   8.598
41224SOL    HW225506   8.767   8.388   8.533
41225SOL     OW25507   5.950   9.118  14.294
41225SOL    HW125508   5.913   9.207  14.295
41225SOL    HW225509   6.043   9.131  14.312
41226SOL     OW25510  13.205  11.838   4.540
41226SOL    HW125511  13.284  11.785   4.553
41226SOL    HW225512  13.226  11.923   4.577
41227SOL     OW25513   7.052   6.606   1.120
41227SOL    HW125514   7.089   6.557   1.046
41227SOL    HW225515   6.965   6.568   1.131
41228SOL     OW25516   0.513   1.642   9.144
41228SOL    HW125517   0.551   1.583   9.209
41228SOL    HW225518   0.544   1.608   9.060
41229SOL     OW25519   6.154   8.375   7.510
41229SOL    HW125520   6.133   8.429   7.434
41229SOL    HW225521   6.231   8.417   7.549
41230SOL     OW25522   9.315   4.328   9.033
41230SOL    HW125523   9.261   4.249   9.034
41230SOL    HW225524   9.269   4.389   9.091
41231SOL     OW25525  10.452  12.450   5.568
41231SOL    HW125526  10.395  12.402   5.627
41231SOL    HW225527  10.484  12.524   5.619
41232SOL     OW25528   7.954   8.492   1.761
41232SOL    HW125529   8.048   8.508   1.752
41232SOL    HW225530   7.916   8.580   1.772
41233SOL     OW25531  11.365   9.420   2.738
41233SOL    HW125532  11.313   9.341   2.722
41233SOL    HW225533  11.452   9.399   2.702
41234SOL     OW25534   9.666   0.629   1.903
41234SOL    HW125535   9.599   0.596   1.842
41234SOL    HW225536   9.687   0.716   1.870
41235SOL     OW25537   9.442   8.642  10.788
41235SOL    HW125538   9.378   8.710  10.810
41235SOL    HW225539   9.417   8.567  10.843
41236SOL     OW25540   8.006  11.620  10.484
41236SOL    HW125541   7.914  11.643  10.474
41236SOL    HW225542   8.018  11.606  10.578
41237SOL     OW25543   0.375  12.068   7.582
41237SOL    HW125544   0.297  12.033   7.625
41237SOL    HW225545   0.344  12.147   7.538
41238SOL     OW25546   8.791  14.521   6.154
41238SOL    HW125547   8.758  14.477   6.076
41238SOL    HW225548   8.713  14.555   6.197
41239SOL     OW25549   3.424  13.131  10.483
41239SOL    HW125550   3.435  13.077  10.561
41239SOL    HW225551   3.488  13.202  10.493
41240SOL     OW25552  13.504   7.623  10.559
41240SOL    HW125553  13.502   7.583  10.472
41240SOL    HW225554  13.437   7.692  10.556
41241SOL     OW25555   9.753  10.815  14.768
41241SOL    HW125556   9.670  10.863  14.762
41241SOL    HW225557   9.803  10.861  14.835
41242SOL     OW25558   4.078   5.088   4.558
41242SOL    HW125559   3.993   5.068   4.597
41242SOL    HW225560   4.091   5.018   4.493
41243SOL     OW25561  14.335   2.677   9.112
41243SOL    HW125562  14.319   2.583   9.103
41243SOL    HW225563  14.284   2.703   9.189
41244SOL     OW25564   8.178   6.006   0.607
41244SOL    HW125565   8.170   5.947   0.682
41244SOL    HW225566   8.216   6.086   0.643
41245SOL     OW25567   2.274   8.202   4.542
41245SOL    HW125568   2.221   8.249   4.478
41245SOL    HW225569   2.237   8.228   4.627
41246SOL     OW25570  11.900   1.504   0.396
41246SOL    HW125571  11.957   1.456   0.455
41246SOL    HW225572  11.906   1.457   0.312
41247SOL     OW25573   5.707  12.978   0.889
41247SOL    HW125574   5.780  12.950   0.944
41247SOL    HW225575   5.682  13.064   0.923
41248SOL     OW25576   7.642   2.714   8.209
41248SOL    HW125577   7.736   2.731   8.208
41248SOL    HW225578   7.635   2.622   8.234
41249SOL     OW25579   1.338   5.528   0.699
41249SOL    HW125580   1.428   5.499   0.685
41249SOL    HW225581   1.303   5.467   0.764
41250SOL     OW25582   6.380   5.956  10.867
41250SOL    HW125583   6.443   5.954  10.795
41250SOL    HW225584   6.431   5.933  10.944
41251SOL     OW25585   4.793   7.485  12.681
41251SOL    HW125586   4.759   7.397  12.666
41251SOL    HW225587   4.728   7.526  12.738
41252SOL     OW25588   2.798   9.463  10.206
41252SOL    HW125589   2.887   9.449  10.238
41252SOL    HW225590   2.789   9.402  10.132
41253SOL     OW25591   3.013   6.564   9.189
41253SOL    HW125592   3.108   6.553   9.188
41253SOL    HW225593   2.985   6.538   9.102
41254SOL     OW25594   2.851   4.010  12.949
41254SOL    HW125595   2.808   4.096  12.951
41254SOL    HW225596   2.933   4.025  12.903
41255SOL     OW25597   6.607   6.967   1.421
41255SOL    HW125598   6.599   6.892   1.480
41255SOL    HW225599   6.593   6.929   1.334
41256SOL     OW25600  12.950  10.131   5.712
41256SOL    HW125601  12.996  10.070   5.655
41256SOL    HW225602  12.925  10.080   5.788
41257SOL     OW25603   0.467   5.448  10.716
41257SOL    HW125604   0.539   5.489  10.763
41257SOL    HW225605   0.508   5.404  10.642
41258SOL     OW25606  13.070   3.556  14.863
41258SOL    HW125607  13.120   3.546   0.065
41258SOL    HW225608  13.058   3.467  14.831
41259SOL     OW25609   6.907  11.852   7.422
41259SOL    HW125610   6.935  11.763   7.404
41259SOL    HW225611   6.919  11.862   7.516
41260SOL     OW25612  11.708   7.485   0.640
41260SOL    HW125613  11.773   7.519   0.702
41260SOL    HW225614  11.725   7.390   0.639
41261SOL     OW25615   0.952   8.873   9.664
41261SOL    HW125616   0.859   8.896   9.655
41261SOL    HW225617   0.991   8.952   9.703
41262SOL     OW25618   7.499  10.194   9.143
41262SOL    HW125619   7.553  10.271   9.123
41262SOL    HW225620   7.420  10.206   9.089
41263SOL     OW25621   4.434  14.447  10.646
41263SOL    HW125622   4.344  14.456  10.678
41263SOL    HW225623   4.448  14.526  10.592
41264SOL     OW25624   7.100  11.457   7.234
41264SOL    HW125625   7.153  11.423   7.162
41264SOL    HW225626   7.039  11.518   7.193
41265SOL     OW25627  13.876  11.892   8.200
41265SOL    HW125628  13.949  11.919   8.256
41265SOL    HW225629  13.812  11.856   8.261
41266SOL     OW25630  11.871   2.702   0.197
41266SOL    HW125631  11.786   2.683   0.158
41266SOL    HW225632  11.856   2.692   0.292
41267SOL     OW25633   1.297   2.897  14.672
41267SOL    HW125634   1.304   2.954  14.596
41267SOL    HW225635   1.358   2.935  14.736
41268SOL     OW25636  12.087  10.333  13.940
41268SOL    HW125637  12.073  10.282  14.020
41268SOL    HW225638  12.085  10.424  13.969
41269SOL     OW25639   1.240  14.325  11.132
41269SOL    HW125640   1.328  14.305  11.099
41269SOL    HW225641   1.233  14.420  11.124
41270SOL     OW25642   0.243   3.340   8.855
41270SOL    HW125643   0.301   3.338   8.931
41270SOL    HW225644   0.283   3.404   8.796
41271SOL     OW25645   6.101   3.531   7.273
41271SOL    HW125646   6.080   3.535   7.366
41271SOL    HW225647   6.088   3.621   7.242
41272SOL     OW25648   5.979   8.340   6.121
41272SOL    HW125649   6.057   8.377   6.162
41272SOL    HW225650   5.956   8.265   6.176
41273SOL     OW25651   6.218  13.095   7.890
41273SOL    HW125652   6.190  13.009   7.857
41273SOL    HW225653   6.164  13.109   7.968
41274SOL     OW25654   3.838   8.249   8.747
41274SOL    HW125655   3.757   8.200   8.760
41274SOL    HW225656   3.899   8.211   8.810
41275SOL     OW25657   3.789   2.970   3.764
41275SOL    HW125658   3.843   3.048   3.754
41275SOL    HW225659   3.708   3.001   3.805
41276SOL     OW25660  10.928   0.650  13.010
41276SOL    HW125661  10.912   0.724  13.069
41276SOL    HW225662  11.016   0.620  13.032
41277SOL     OW25663   0.103   4.423  13.242
41277SOL    HW125664   0.043   4.367  13.291
41277SOL    HW225665   0.047   4.483  13.194
41278SOL     OW25666   4.776  10.940   3.408
41278SOL    HW125667   4.831  11.016   3.430
41278SOL    HW225668   4.705  10.977   3.356
41279SOL     OW25669   2.458   5.460   6.756
41279SOL    HW125670   2.394   5.530   6.766
41279SOL    HW225671   2.535   5.504   6.720
41280SOL     OW25672   5.970  10.140   3.779
41280SOL    HW125673   5.929  10.226   3.792
41280SOL    HW225674   5.907  10.092   3.725
41281SOL     OW25675   0.619  10.542   3.767
41281SOL    HW125676   0.598  10.455   3.735
41281SOL    HW225677   0.534  10.586   3.775
41282SOL     OW25678   9.969   2.721   9.335
41282SOL    HW125679   9.954   2.811   9.307
41282SOL    HW225680   9.901   2.670   9.290
41283SOL     OW25681   7.857   9.282   8.228
41283SOL    HW125682   7.802   9.340   8.281
41283SOL    HW225683   7.804   9.203   8.217
41284SOL     OW25684   3.357   0.643   7.782
41284SOL    HW125685   3.290   0.712   7.782
41284SOL    HW225686   3.346   0.599   7.866
41285SOL     OW25687   7.798  10.760   7.220
41285SOL    HW125688   7.860  10.772   7.148
41285SOL    HW225689   7.800  10.666   7.238
41286SOL     OW25690   4.021   4.749   5.548
41286SOL    HW125691   3.972   4.824   5.515
41286SOL    HW225692   4.094   4.787   5.596
41287SOL     OW25693  10.480   3.380   4.126
41287SOL    HW125694  10.555   3.438   4.122
41287SOL    HW225695  10.421   3.411   4.057
41288SOL     OW25696   3.938   4.327   2.483
41288SOL    HW125697   4.020   4.370   2.459
41288SOL    HW225698   3.943   4.314   2.577
41289SOL     OW25699   3.439  13.696   4.514
41289SOL    HW125700   3.356  13.716   4.558
41289SOL    HW225701   3.506  13.720   4.578
41290SOL     OW25702   0.825   0.651  14.074
41290SOL    HW125703   0.851   0.742  14.086
41290SOL    HW225704   0.897   0.599  14.111
41291SOL     OW25705   2.238   2.536   0.343
41291SOL    HW125706   2.240   2.631   0.333
41291SOL    HW225707   2.290   2.519   0.423
41292SOL     OW25708   4.676   0.436   2.400
41292SOL    HW125709   4.709   0.473   2.482
41292SOL    HW225710   4.744   0.455   2.336
41293SOL     OW25711   6.494  11.077   7.062
41293SOL    HW125712   6.456  11.049   6.979
41293SOL    HW225713   6.585  11.047   7.059
41294SOL     OW25714   5.338   3.520  14.464
41294SOL    HW125715   5.421   3.530  14.416
41294SOL    HW225716   5.277   3.487  14.399
41295SOL     OW25717   2.305   0.556   4.072
41295SOL    HW125718   2.338   0.628   4.019
41295SOL    HW225719   2.365   0.483   4.055
41296SOL     OW25720  10.686   3.590   7.520
41296SOL    HW125721  10.754   3.655   7.502
41296SOL    HW225722  10.612   3.616   7.466
41297SOL     OW25723   0.830   6.189   7.296
41297SOL    HW125724   0.841   6.141   7.379
41297SOL    HW225725   0.920   6.203   7.265
41298SOL     OW25726  14.113   2.139   3.041
41298SOL    HW125727  14.043   2.076   3.025
41298SOL    HW225728  14.081   2.221   3.003
41299SOL     OW25729   6.306  11.211  10.067
41299SOL    HW125730   6.387  11.163  10.085
41299SOL    HW225731   6.281  11.248  10.151
41300SOL     OW25732   6.961   6.346  10.888
41300SOL    HW125733   6.977   6.256  10.916
41300SOL    HW225734   6.874   6.344  10.850
41301SOL     OW25735   7.483  13.820  12.749
41301SOL    HW125736   7.521  13.750  12.696
41301SOL    HW225737   7.557  13.856  12.799
41302SOL     OW25738   0.402  13.782  13.311
41302SOL    HW125739   0.368  13.695  13.289
41302SOL    HW225740   0.343  13.842  13.265
41303SOL     OW25741   3.248   9.035  10.493
41303SOL    HW125742   3.231   8.941  10.497
41303SOL    HW225743   3.251   9.055  10.399
41304SOL     OW25744   7.058  12.665   2.424
41304SOL    HW125745   7.032  12.577   2.396
41304SOL    HW225746   7.132  12.651   2.482
41305SOL     OW25747   9.897   4.058  12.871
41305SOL    HW125748   9.818   4.026  12.828
41305SOL    HW225749   9.872   4.068  12.963
41306SOL     OW25750   7.105   4.137   7.178
41306SOL    HW125751   7.090   4.164   7.268
41306SOL    HW225752   7.116   4.042   7.183
41307SOL     OW25753   2.663   6.051   6.413
41307SOL    HW125754   2.651   5.985   6.345
41307SOL    HW225755   2.665   6.002   6.495
41308SOL     OW25756  10.196   7.518  10.201
41308SOL    HW125757  10.216   7.549  10.112
41308SOL    HW225758  10.225   7.589  10.258
41309SOL     OW25759   8.894  10.927  11.497
41309SOL    HW125760   8.863  10.965  11.415
41309SOL    HW225761   8.964  10.867  11.471
41310SOL     OW25762   6.423   9.821   3.557
41310SOL    HW125763   6.514   9.822   3.528
41310SOL    HW225764   6.413   9.738   3.604
41311SOL     OW25765  12.662   2.102   1.490
41311SOL    HW125766  12.656   2.020   1.440
41311SOL    HW225767  12.616   2.083   1.572
41312SOL     OW25768   9.436  11.852   3.361
41312SOL    HW125769   9.451  11.785   3.428
41312SOL    HW225770   9.518  11.901   3.359
41313SOL     OW25771   5.239   9.722   7.822
41313SOL    HW125772   5.326   9.759   7.804
41313SOL    HW225773   5.180   9.771   7.765
41314SOL     OW25774   6.260   2.864   7.137
41314SOL    HW125775   6.236   2.900   7.052
41314SOL    HW225776   6.294   2.938   7.186
41315SOL     OW25777  11.649  13.335  13.714
41315SOL    HW125778  11.680  13.280  13.786
41315SOL    HW225779  11.727  13.351  13.661
41316SOL     OW25780   4.242   3.988   1.940
41316SOL    HW125781   4.187   3.927   1.989
41316SOL    HW225782   4.208   4.075   1.963
41317SOL     OW25783   7.814   4.177   9.740
41317SOL    HW125784   7.756   4.140   9.674
41317SOL    HW225785   7.871   4.236   9.691
41318SOL     OW25786   3.963   8.922  14.490
41318SOL    HW125787   4.029   8.989  14.469
41318SOL    HW225788   3.981   8.899  14.581
41319SOL     OW25789   5.431   3.795   6.137
41319SOL    HW125790   5.455   3.770   6.048
41319SOL    HW225791   5.355   3.852   6.126
41320SOL     OW25792   2.830   3.796   9.371
41320SOL    HW125793   2.845   3.792   9.465
41320SOL    HW225794   2.791   3.882   9.357
41321SOL     OW25795   8.687   0.072   6.338
41321SOL    HW125796   8.658  14.868   6.302
41321SOL    HW225797   8.640   0.138   6.287
41322SOL     OW25798  10.020   4.697   7.946
41322SOL    HW125799  10.024   4.603   7.966
41322SOL    HW225800  10.055   4.704   7.858
41323SOL     OW25801   1.193   0.508   5.434
41323SOL    HW125802   1.288   0.512   5.438
41323SOL    HW225803   1.172   0.415   5.444
41324SOL     OW25804  13.092   5.722  12.365
41324SOL    HW125805  13.121   5.661  12.298
41324SOL    HW225806  13.171   5.767  12.392
41325SOL     OW25807   6.819  11.294  13.615
41325SOL    HW125808   6.870  11.213  13.612
41325SOL    HW225809   6.729  11.266  13.599
41326SOL     OW25810  14.628  13.354   8.206
41326SOL    HW125811  14.582  13.274   8.231
41326SOL    HW225812  14.695  13.365   8.273
41327SOL     OW25813   4.451   8.850  13.466
41327SOL    HW125814   4.387   8.808  13.523
41327SOL    HW225815   4.465   8.787  13.395
41328SOL     OW25816  12.492   3.539   7.054
41328SOL    HW125817  12.569   3.513   7.004
41328SOL    HW225818  12.456   3.456   7.087
41329SOL     OW25819   5.505   0.832  13.248
41329SOL    HW125820   5.432   0.811  13.191
41329SOL    HW225821   5.556   0.897  13.200
41330SOL     OW25822  12.370  14.487   1.998
41330SOL    HW125823  12.453  14.534   1.992
41330SOL    HW225824  12.358  14.472   2.092
41331SOL     OW25825  12.232  10.640   8.176
41331SOL    HW125826  12.225  10.624   8.270
41331SOL    HW225827  12.148  10.679   8.152
41332SOL     OW25828  14.209  11.891  13.632
41332SOL    HW125829  14.267  11.863  13.702
41332SOL    HW225830  14.149  11.953  13.673
41333SOL     OW25831   8.573  11.631   9.936
41333SOL    HW125832   8.577  11.552   9.990
41333SOL    HW225833   8.663  11.665   9.938
41334SOL     OW25834   1.591   5.608   6.984
41334SOL    HW125835   1.669   5.576   6.939
41334SOL    HW225836   1.547   5.665   6.921
41335SOL     OW25837   8.426   4.690   9.361
41335SOL    HW125838   8.456   4.609   9.320
41335SOL    HW225839   8.332   4.678   9.371
41336SOL     OW25840   7.885  13.184   3.367
41336SOL    HW125841   7.960  13.237   3.395
41336SOL    HW225842   7.908  13.152   3.280
41337SOL     OW25843  14.377   4.748   4.169
41337SOL    HW125844  14.330   4.800   4.104
41337SOL    HW225845  14.391   4.808   4.242
41338SOL     OW25846   0.384   3.830  14.238
41338SOL    HW125847   0.451   3.897  14.251
41338SOL    HW225848   0.425   3.750  14.270
41339SOL     OW25849   5.200   6.095  12.573
41339SOL    HW125850   5.230   6.161  12.636
41339SOL    HW225851   5.134   6.045  12.621
41340SOL     OW25852   8.148  14.849   2.668
41340SOL    HW125853   8.120  14.795   2.743
41340SOL    HW225854   8.197   0.042   2.708
41341SOL     OW25855   3.287   1.445   3.451
41341SOL    HW125856   3.295   1.526   3.400
41341SOL    HW225857   3.375   1.431   3.486
41342SOL     OW25858   6.451   5.945   9.499
41342SOL    HW125859   6.438   5.929   9.406
41342SOL    HW225860   6.543   5.968   9.507
41343SOL     OW25861   6.918   1.044   9.698
41343SOL    HW125862   6.968   1.054   9.780
41343SOL    HW225863   6.910   1.134   9.664
41344SOL     OW25864   4.123   9.078  13.486
41344SOL    HW125865   4.095   9.004  13.431
41344SOL    HW225866   4.058   9.146  13.470
41345SOL     OW25867   3.862   6.861  13.365
41345SOL    HW125868   3.799   6.835  13.298
41345SOL    HW225869   3.944   6.872  13.317
41346SOL     OW25870  14.312   9.107   4.490
41346SOL    HW125871  14.252   9.086   4.563
41346SOL    HW225872  14.310   9.029   4.435
41347SOL     OW25873  10.073  12.505  10.444
41347SOL    HW125874  10.163  12.518  10.474
41347SOL    HW225875  10.019  12.532  10.518
41348SOL     OW25876   2.285  13.450  11.468
41348SOL    HW125877   2.321  13.371  11.508
41348SOL    HW225878   2.193  13.428  11.450
41349SOL     OW25879  10.869   8.134  10.451
41349SOL    HW125880  10.838   8.222  10.432
41349SOL    HW225881  10.877   8.092  10.365
41350SOL     OW25882   8.464   3.286  14.069
41350SOL    HW125883   8.559   3.272  14.074
41350SOL    HW225884   8.437   3.300  14.159
41351SOL     OW25885   6.713  13.639  13.929
41351SOL    HW125886   6.748  13.567  13.981
41351SOL    HW225887   6.761  13.716  13.958
41352SOL     OW25888  12.937   8.915   6.650
41352SOL    HW125889  12.949   8.821   6.663
41352SOL    HW225890  12.971   8.931   6.561
41353SOL     OW25891   0.646   0.876   2.923
41353SOL    HW125892   0.614   0.904   2.837
41353SOL    HW225893   0.732   0.838   2.905
41354SOL     OW25894  13.832   8.348   8.443
41354SOL    HW125895  13.894   8.406   8.401
41354SOL    HW225896  13.876   8.319   8.523
41355SOL     OW25897   7.336   9.425   1.922
41355SOL    HW125898   7.262   9.440   1.980
41355SOL    HW225899   7.389   9.359   1.967
41356SOL     OW25900   5.637  11.206  13.374
41356SOL    HW125901   5.692  11.273  13.416
41356SOL    HW225902   5.664  11.208  13.282
41357SOL     OW25903  14.643  14.773  11.574
41357SOL    HW125904  14.571  14.803  11.629
41357SOL    HW225905  14.640  14.677  11.580
41358SOL     OW25906   5.010  10.756   0.694
41358SOL    HW125907   5.068  10.680   0.692
41358SOL    HW225908   5.051  10.815   0.757
41359SOL     OW25909  14.455  10.425  10.799
41359SOL    HW125910  14.505  10.424  10.717
41359SOL    HW225911  14.470  10.338  10.837
41360SOL     OW25912   6.309   2.009   3.878
41360SOL    HW125913   6.330   2.004   3.971
41360SOL    HW225914   6.393   2.026   3.835
41361SOL     OW25915  13.561   6.580   1.199
41361SOL    HW125916  13.481   6.534   1.225
41361SOL    HW225917  13.590   6.624   1.279
41362SOL     OW25918   0.411  10.900  11.901
41362SOL    HW125919   0.367  10.920  11.818
41362SOL    HW225920   0.384  10.811  11.922
41363SOL     OW25921   2.337   1.572   3.201
41363SOL    HW125922   2.340   1.521   3.120
41363SOL    HW225923   2.249   1.557   3.236
41364SOL     OW25924   4.660   9.234  10.552
41364SOL    HW125925   4.601   9.307  10.570
41364SOL    HW225926   4.674   9.239  10.457
41365SOL     OW25927   1.847   3.981   5.488
41365SOL    HW125928   1.935   3.993   5.453
41365SOL    HW225929   1.861   3.953   5.579
41366SOL     OW25930   6.281   0.259   1.487
41366SOL    HW125931   6.192   0.287   1.463
41366SOL    HW225932   6.314   0.216   1.408
41367SOL     OW25933  13.627   3.233  13.513
41367SOL    HW125934  13.545   3.245  13.466
41367SOL    HW225935  13.601   3.203  13.600
41368SOL     OW25936   5.222  10.919   9.448
41368SOL    HW125937   5.163  10.908   9.373
41368SOL    HW225938   5.228  11.013   9.461
41369SOL     OW25939   9.220   6.594   4.797
41369SOL    HW125940   9.268   6.616   4.717
41369SOL    HW225941   9.286   6.596   4.866
41370SOL     OW25942   1.849   6.814   2.877
41370SOL    HW125943   1.878   6.779   2.961
41370SOL    HW225944   1.812   6.739   2.830
41371SOL     OW25945   8.999   7.811  10.085
41371SOL    HW125946   9.062   7.842  10.020
41371SOL    HW225947   8.957   7.735  10.045
41372SOL     OW25948   9.608   8.446  10.478
41372SOL    HW125949   9.658   8.435  10.397
41372SOL    HW225950   9.647   8.383  10.538
41373SOL     OW25951  10.361   2.420   4.570
41373SOL    HW125952  10.405   2.424   4.485
41373SOL    HW225953  10.307   2.341   4.564
41374SOL     OW25954   1.786   1.335  10.196
41374SOL    HW125955   1.748   1.351  10.283
41374SOL    HW225956   1.881   1.342  10.210
41375SOL     OW25957  10.167   4.911   0.433
41375SOL    HW125958  10.202   4.829   0.399
41375SOL    HW225959  10.154   4.967   0.356
41376SOL     OW25960  13.421  10.772   4.696
41376SOL    HW125961  13.465  10.755   4.780
41376SOL    HW225962  13.349  10.830   4.718
41377SOL     OW25963   0.434  14.485   6.305
41377SOL    HW125964   0.491  14.536   6.247
41377SOL    HW225965   0.349  14.484   6.260
41378SOL     OW25966   8.552  11.656   0.108
41378SOL    HW125967   8.560  11.591   0.039
41378SOL    HW225968   8.591  11.614   0.185
41379SOL     OW25969  13.847   9.072   2.893
41379SOL    HW125970  13.756   9.094   2.871
41379SOL    HW225971  13.848   9.070   2.989
41380SOL     OW25972   2.115   1.068   5.386
41380SOL    HW125973   2.176   1.005   5.422
41380SOL    HW225974   2.119   1.143   5.445
41381SOL     OW25975   9.130   8.625   4.605
41381SOL    HW125976   9.077   8.547   4.587
41381SOL    HW225977   9.108   8.685   4.535
41382SOL     OW25978   8.752   2.932   4.330
41382SOL    HW125979   8.794   2.850   4.302
41382SOL    HW225980   8.818   2.999   4.315
41383SOL     OW25981  10.459  10.464   2.573
41383SOL    HW125982  10.523  10.470   2.502
41383SOL    HW225983  10.377  10.496   2.534
41384SOL     OW25984   7.352   4.083   6.353
41384SOL    HW125985   7.359   4.130   6.437
41384SOL    HW225986   7.431   4.030   6.349
41385SOL     OW25987   9.816   7.128  12.343
41385SOL    HW125988   9.798   7.038  12.369
41385SOL    HW225989   9.828   7.175  12.425
41386SOL     OW25990   4.222  14.401  13.965
41386SOL    HW125991   4.133  14.393  13.929
41386SOL    HW225992   4.210  14.393  14.060
41387SOL     OW25993   4.327   0.435   8.742
41387SOL    HW125994   4.295   0.525   8.732
41387SOL    HW225995   4.379   0.437   8.822
41388SOL     OW25996   6.776   1.493   8.085
41388SOL    HW125997   6.773   1.581   8.124
41388SOL    HW225998   6.805   1.508   7.995
41389SOL     OW25999   6.195   7.617   7.937
41389SOL    HW126000   6.217   7.570   8.017
41389SOL    HW226001   6.276   7.663   7.914
41390SOL     OW26002   7.482  11.823   6.473
41390SOL    HW126003   7.543  11.814   6.546
41390SOL    HW226004   7.538  11.828   6.395
41391SOL     OW26005  13.913  14.708   6.219
41391SOL    HW126006  13.872  14.772   6.278
41391SOL    HW226007  14.007  14.725   6.226
41392SOL     OW26008  11.489  14.247  14.838
41392SOL    HW126009  11.566  14.276  14.789
41392SOL    HW226010  11.505  14.154  14.853
41393SOL     OW26011   9.992   9.265  10.437
41393SOL    HW126012   9.943   9.258  10.355
41393SOL    HW226013   9.996   9.359  10.454
41394SOL     OW26014   7.731  14.263   0.402
41394SOL    HW126015   7.673  14.222   0.338
41394SOL    HW226016   7.701  14.354   0.406
41395SOL     OW26017   4.662   0.458   2.059
41395SOL    HW126018   4.730   0.476   2.124
41395SOL    HW226019   4.585   0.435   2.111
41396SOL     OW26020  11.348  10.043   4.524
41396SOL    HW126021  11.260  10.037   4.560
41396SOL    HW226022  11.365  10.137   4.515
41397SOL     OW26023   9.199   6.634   2.728
41397SOL    HW126024   9.141   6.558   2.724
41397SOL    HW226025   9.284   6.601   2.698
41398SOL     OW26026   5.503   1.993   6.881
41398SOL    HW126027   5.554   2.074   6.892
41398SOL    HW226028   5.413   2.018   6.904
41399SOL     OW26029  10.810   5.200  14.489
41399SOL    HW126030  10.814   5.196  14.393
41399SOL    HW226031  10.779   5.113  14.515
41400SOL     OW26032  13.946   4.749  13.692
41400SOL    HW126033  13.875   4.752  13.628
41400SOL    HW226034  13.930   4.669  13.742
41401SOL     OW26035  14.538   1.143   2.495
41401SOL    HW126036  14.478   1.085   2.447
41401SOL    HW226037  14.481   1.191   2.555
41402SOL     OW26038   3.169  13.737  13.626
41402SOL    HW126039   3.143  13.784  13.705
41402SOL    HW226040   3.225  13.798  13.579
41403SOL     OW26041   6.935   9.292   8.250
41403SOL    HW126042   6.848   9.329   8.233
41403SOL    HW226043   6.942   9.291   8.345
41404SOL     OW26044   6.860  10.629   1.910
41404SOL    HW126045   6.943  10.632   1.957
41404SOL    HW226046   6.854  10.714   1.866
41405SOL     OW26047  14.527   9.698   5.309
41405SOL    HW126048  14.536   9.734   5.397
41405SOL    HW226049  14.580   9.618   5.309
41406SOL     OW26050   9.074   4.320   4.386
41406SOL    HW126051   9.148   4.307   4.327
41406SOL    HW226052   9.102   4.390   4.445
41407SOL     OW26053   3.537  10.942   9.192
41407SOL    HW126054   3.503  10.938   9.103
41407SOL    HW226055   3.480  10.883   9.242
41408SOL     OW26056  12.931  11.156   9.566
41408SOL    HW126057  12.949  11.189   9.654
41408SOL    HW226058  12.845  11.113   9.573
41409SOL     OW26059   8.377  14.794   5.944
41409SOL    HW126060   8.428  14.807   5.864
41409SOL    HW226061   8.298  14.748   5.915
41410SOL     OW26062   3.803  12.136   7.261
41410SOL    HW126063   3.839  12.047   7.263
41410SOL    HW226064   3.880  12.192   7.249
41411SOL     OW26065   5.071   8.884   1.075
41411SOL    HW126066   5.070   8.920   0.986
41411SOL    HW226067   5.163   8.865   1.092
41412SOL     OW26068  13.301   9.358   5.832
41412SOL    HW126069  13.336   9.378   5.919
41412SOL    HW226070  13.377   9.365   5.774
41413SOL     OW26071   4.868  12.495  12.716
41413SOL    HW126072   4.955  12.457  12.732
41413SOL    HW226073   4.875  12.585  12.749
41414SOL     OW26074   3.659   3.194   9.705
41414SOL    HW126075   3.577   3.169   9.662
41414SOL    HW226076   3.645   3.285   9.733
41415SOL     OW26077   4.974   5.816   5.471
41415SOL    HW126078   5.014   5.784   5.390
41415SOL    HW226079   5.042   5.804   5.538
41416SOL     OW26080  14.828   0.293   1.077
41416SOL    HW126081  14.817   0.210   1.124
41416SOL    HW226082   0.043   0.302   1.065
41417SOL     OW26083  12.324   9.809  14.269
41417SOL    HW126084  12.232   9.834  14.276
41417SOL    HW226085  12.372   9.892  14.271
41418SOL     OW26086  11.800  10.809   4.039
41418SOL    HW126087  11.830  10.784   4.126
41418SOL    HW226088  11.731  10.873   4.054
41419SOL     OW26089   0.108   6.485   2.017
41419SOL    HW126090   0.194   6.444   2.022
41419SOL    HW226091   0.090   6.493   1.923
41420SOL     OW26092   2.592  10.762  10.035
41420SOL    HW126093   2.664  10.742  10.095
41420SOL    HW226094   2.571  10.677   9.994
41421SOL     OW26095  12.648  11.538   0.902
41421SOL    HW126096  12.621  11.542   0.811
41421SOL    HW226097  12.571  11.507   0.949
41422SOL     OW26098   8.419   2.611  10.709
41422SOL    HW126099   8.382   2.580  10.627
41422SOL    HW226100   8.438   2.704  10.693
41423SOL     OW26101   1.294   6.854   9.206
41423SOL    HW126102   1.206   6.852   9.169
41423SOL    HW226103   1.327   6.765   9.195
41424SOL     OW26104  11.679   3.994  14.244
41424SOL    HW126105  11.729   3.974  14.323
41424SOL    HW226106  11.666   3.909  14.202
41425SOL     OW26107   8.666   2.477   9.891
41425SOL    HW126108   8.614   2.532   9.834
41425SOL    HW226109   8.750   2.469   9.845
41426SOL     OW26110   1.853   7.873   3.301
41426SOL    HW126111   1.874   7.900   3.391
41426SOL    HW226112   1.922   7.912   3.247
41427SOL     OW26113  13.740   3.099   4.102
41427SOL    HW126114  13.793   3.021   4.120
41427SOL    HW226115  13.651   3.074   4.126
41428SOL     OW26116  11.236   9.579  12.108
41428SOL    HW126117  11.212   9.496  12.068
41428SOL    HW226118  11.156   9.633  12.101
41429SOL     OW26119   3.589   9.308   4.785
41429SOL    HW126120   3.503   9.333   4.750
41429SOL    HW226121   3.624   9.248   4.719
41430SOL     OW26122  13.020  14.552   2.337
41430SOL    HW126123  13.010  14.647   2.345
41430SOL    HW226124  13.066  14.526   2.416
41431SOL     OW26125   4.291   0.210   4.766
41431SOL    HW126126   4.269   0.134   4.820
41431SOL    HW226127   4.258   0.285   4.816
41432SOL     OW26128  12.301   7.111   5.827
41432SOL    HW126129  12.331   7.051   5.758
41432SOL    HW226130  12.357   7.188   5.817
41433SOL     OW26131  11.430   7.670  11.321
41433SOL    HW126132  11.372   7.605  11.361
41433SOL    HW226133  11.496   7.618  11.275
41434SOL     OW26134   9.332   3.650  14.567
41434SOL    HW126135   9.309   3.618  14.480
41434SOL    HW226136   9.356   3.741  14.553
41435SOL     OW26137   0.641  10.927  13.588
41435SOL    HW126138   0.612  11.005  13.636
41435SOL    HW226139   0.576  10.860  13.609
41436SOL     OW26140   7.983  13.103   0.205
41436SOL    HW126141   8.073  13.134   0.213
41436SOL    HW226142   7.937  13.143   0.278
41437SOL     OW26143   4.836   3.149   9.222
41437SOL    HW126144   4.760   3.120   9.171
41437SOL    HW226145   4.910   3.102   9.183
41438SOL     OW26146   4.216  13.926   2.548
41438SOL    HW126147   4.206  13.864   2.620
41438SOL    HW226148   4.182  13.881   2.471
41439SOL     OW26149   1.841  11.604  11.452
41439SOL    HW126150   1.870  11.694  11.463
41439SOL    HW226151   1.803  11.581  11.537
41440SOL     OW26152   7.802  13.290  14.608
41440SOL    HW126153   7.894  13.282  14.634
41440SOL    HW226154   7.784  13.212  14.555
41441SOL     OW26155  12.903   8.027  11.054
41441SOL    HW126156  12.853   8.090  11.106
41441SOL    HW226157  12.933   8.077  10.977
41442SOL     OW26158   7.586  11.180   3.880
41442SOL    HW126159   7.663  11.176   3.937
41442SOL    HW226160   7.513  11.199   3.940
41443SOL     OW26161  12.438  13.830  14.399
41443SOL    HW126162  12.501  13.774  14.444
41443SOL    HW226163  12.492  13.893  14.351
41444SOL     OW26164   9.330  11.253   3.727
41444SOL    HW126165   9.257  11.207   3.686
41444SOL    HW226166   9.350  11.201   3.805
41445SOL     OW26167   4.243  10.126   3.185
41445SOL    HW126168   4.149  10.111   3.180
41445SOL    HW226169   4.252  10.212   3.225
41446SOL     OW26170   1.370  13.891   1.845
41446SOL    HW126171   1.293  13.835   1.833
41446SOL    HW226172   1.443  13.830   1.853
41447SOL     OW26173   4.702  11.455   5.906
41447SOL    HW126174   4.634  11.423   5.964
41447SOL    HW226175   4.720  11.544   5.936
41448SOL     OW26176  10.824   6.103  10.810
41448SOL    HW126177  10.811   6.022  10.761
41448SOL    HW226178  10.738   6.123  10.846
41449SOL     OW26179   5.049   6.665   1.362
41449SOL    HW126180   5.051   6.724   1.438
41449SOL    HW226181   5.140   6.641   1.348
41450SOL     OW26182   3.481  10.561   4.101
41450SOL    HW126183   3.572  10.533   4.094
41450SOL    HW226184   3.434  10.482   4.128
41451SOL     OW26185  14.426   1.356  13.191
41451SOL    HW126186  14.444   1.322  13.278
41451SOL    HW226187  14.331   1.357  13.184
41452SOL     OW26188  12.583   3.606  12.048
41452SOL    HW126189  12.501   3.586  12.093
41452SOL    HW226190  12.583   3.549  11.971
41453SOL     OW26191   8.254  10.472  14.161
41453SOL    HW126192   8.190  10.531  14.200
41453SOL    HW226193   8.297  10.430  14.236
41454SOL     OW26194  10.288   8.940   6.785
41454SOL    HW126195  10.250   8.862   6.824
41454SOL    HW226196  10.231   8.961   6.711
41455SOL     OW26197   7.653   4.278   9.967
41455SOL    HW126198   7.713   4.241   9.902
41455SOL    HW226199   7.674   4.231  10.048
41456SOL     OW26200   1.688   9.749   8.888
41456SOL    HW126201   1.724   9.814   8.827
41456SOL    HW226202   1.712   9.781   8.975
41457SOL     OW26203   7.662  11.299  12.691
41457SOL    HW126204   7.754  11.277  12.700
41457SOL    HW226205   7.634  11.321  12.779
41458SOL     OW26206  13.976  10.623   1.449
41458SOL    HW126207  14.063  10.631   1.410
41458SOL    HW226208  13.917  10.622   1.374
41459SOL     OW26209  10.735  11.971   7.383
41459SOL    HW126210  10.720  11.960   7.289
41459SOL    HW226211  10.666  11.919   7.424
41460SOL     OW26212  14.671   0.641   7.476
41460SOL    HW126213  14.662   0.634   7.381
41460SOL    HW226214  14.628   0.724   7.497
41461SOL     OW26215  14.127   8.398   3.442
41461SOL    HW126216  14.153   8.414   3.533
41461SOL    HW226217  14.110   8.304   3.439
41462SOL     OW26218   3.123   6.002   1.253
41462SOL    HW126219   3.147   5.933   1.191
41462SOL    HW226220   3.088   6.073   1.197
41463SOL     OW26221   1.884   1.293   7.829
41463SOL    HW126222   1.969   1.336   7.831
41463SOL    HW226223   1.901   1.209   7.786
41464SOL     OW26224   5.483   9.689   4.157
41464SOL    HW126225   5.568   9.718   4.122
41464SOL    HW226226   5.495   9.596   4.174
41465SOL     OW26227   2.550   4.992   4.252
41465SOL    HW126228   2.635   5.022   4.284
41465SOL    HW226229   2.557   4.998   4.157
41466SOL     OW26230   1.348   4.476   8.631
41466SOL    HW126231   1.295   4.525   8.693
41466SOL    HW226232   1.380   4.542   8.569
41467SOL     OW26233  14.640  13.219  11.297
41467SOL    HW126234  14.654  13.314  11.305
41467SOL    HW226235  14.727  13.185  11.277
41468SOL     OW26236  11.593   8.060  12.206
41468SOL    HW126237  11.606   7.997  12.276
41468SOL    HW226238  11.677   8.105  12.198
41469SOL     OW26239   3.584   1.644   2.694
41469SOL    HW126240   3.585   1.657   2.599
41469SOL    HW226241   3.653   1.580   2.710
41470SOL     OW26242   2.112  13.395   9.970
41470SOL    HW126243   2.150  13.476  10.003
41470SOL    HW226244   2.024  13.392  10.007
41471SOL     OW26245   3.948   9.543   1.989
41471SOL    HW126246   4.022   9.597   1.961
41471SOL    HW226247   3.988   9.467   2.031
41472SOL     OW26248   2.928   7.495   9.263
41472SOL    HW126249   3.006   7.545   9.289
41472SOL    HW226250   2.918   7.512   9.170
41473SOL     OW26251   4.928   6.884  11.933
41473SOL    HW126252   4.914   6.922  12.019
41473SOL    HW226253   4.972   6.801  11.950
41474SOL     OW26254   4.476   9.689   4.204
41474SOL    HW126255   4.506   9.605   4.171
41474SOL    HW226256   4.553   9.729   4.244
41475SOL     OW26257   2.587   5.339   3.515
41475SOL    HW126258   2.506   5.325   3.565
41475SOL    HW226259   2.657   5.311   3.575
41476SOL     OW26260   5.476  10.326   8.942
41476SOL    HW126261   5.437  10.411   8.923
41476SOL    HW226262   5.495  10.329   9.036
41477SOL     OW26263  14.469   8.920  11.066
41477SOL    HW126264  14.511   8.991  11.018
41477SOL    HW226265  14.473   8.947  11.158
41478SOL     OW26266   9.709   2.549   6.704
41478SOL    HW126267   9.690   2.642   6.713
41478SOL    HW226268   9.649   2.506   6.764
41479SOL     OW26269   1.524  13.557  13.129
41479SOL    HW126270   1.620  13.548  13.133
41479SOL    HW226271   1.491  13.491  13.190
41480SOL     OW26272  14.128   4.843   1.734
41480SOL    HW126273  14.208   4.790   1.728
41480SOL    HW226274  14.144   4.902   1.807
41481SOL     OW26275   5.362   9.130   2.359
41481SOL    HW126276   5.300   9.126   2.432
41481SOL    HW226277   5.420   9.055   2.373
41482SOL     OW26278  10.630  11.135   0.884
41482SOL    HW126279  10.547  11.157   0.925
41482SOL    HW226280  10.628  11.181   0.800
41483SOL     OW26281   7.790   6.703   3.874
41483SOL    HW126282   7.814   6.631   3.931
41483SOL    HW226283   7.694   6.709   3.882
41484SOL     OW26284  10.409  13.187   1.550
41484SOL    HW126285  10.387  13.274   1.583
41484SOL    HW226286  10.356  13.178   1.471
41485SOL     OW26287   3.974   4.687   2.808
41485SOL    HW126288   4.020   4.734   2.738
41485SOL    HW226289   3.882   4.709   2.795
41486SOL     OW26290   2.762   0.391   0.849
41486SOL    HW126291   2.693   0.440   0.805
41486SOL    HW226292   2.741   0.299   0.832
41487SOL     OW26293  10.439   3.417   0.884
41487SOL    HW126294  10.461   3.401   0.792
41487SOL    HW226295  10.496   3.490   0.910
41488SOL     OW26296  12.793   5.826   9.363
41488SOL    HW126297  12.792   5.749   9.421
41488SOL    HW226298  12.704   5.830   9.327
41489SOL     OW26299   0.944  11.297  10.077
41489SOL    HW126300   0.964  11.380  10.120
41489SOL    HW226301   0.850  11.286  10.089
41490SOL     OW26302   7.054   3.724   0.054
41490SOL    HW126303   7.073   3.752  14.844
41490SOL    HW226304   7.057   3.628   0.050
41491SOL     OW26305   5.053   1.923   6.986
41491SOL    HW126306   5.072   1.960   6.900
41491SOL    HW226307   5.123   1.957   7.043
41492SOL     OW26308   7.782   0.708   9.386
41492SOL    HW126309   7.795   0.690   9.479
41492SOL    HW226310   7.795   0.624   9.343
41493SOL     OW26311  13.403   3.533   3.500
41493SOL    HW126312  13.478   3.584   3.471
41493SOL    HW226313  13.439   3.470   3.563
41494SOL     OW26314   2.778   1.449   2.563
41494SOL    HW126315   2.765   1.430   2.470
41494SOL    HW226316   2.758   1.543   2.571
41495SOL     OW26317   1.327   5.814   1.278
41495SOL    HW126318   1.312   5.738   1.334
41495SOL    HW226319   1.419   5.837   1.293
41496SOL     OW26320   0.461  12.002   8.734
41496SOL    HW126321   0.519  12.001   8.810
41496SOL    HW226322   0.516  12.036   8.663
41497SOL     OW26323   7.339   4.130   6.843
41497SOL    HW126324   7.376   4.132   6.754
41497SOL    HW226325   7.269   4.195   6.840
41498SOL     OW26326   7.810   8.996   1.240
41498SOL    HW126327   7.806   9.091   1.251
41498SOL    HW226328   7.742   8.976   1.176
41499SOL     OW26329  14.529  12.629  14.164
41499SOL    HW126330  14.516  12.583  14.081
41499SOL    HW226331  14.594  12.577  14.211
41500SOL     OW26332  10.540  14.606  12.822
41500SOL    HW126333  10.444  14.609  12.823
41500SOL    HW226334  10.566  14.662  12.895
41501SOL     OW26335   5.755   8.135   7.780
41501SOL    HW126336   5.772   8.179   7.863
41501SOL    HW226337   5.748   8.206   7.716
41502SOL     OW26338   3.601   8.023   4.612
41502SOL    HW126339   3.615   8.118   4.620
41502SOL    HW226340   3.544   8.001   4.685
41503SOL     OW26341   1.166   0.351   4.597
41503SOL    HW126342   1.100   0.395   4.651
41503SOL    HW226343   1.125   0.269   4.571
41504SOL     OW26344   3.338   2.141   9.382
41504SOL    HW126345   3.364   2.226   9.347
41504SOL    HW226346   3.371   2.141   9.472
41505SOL     OW26347  12.703   6.735   9.912
41505SOL    HW126348  12.663   6.773   9.991
41505SOL    HW226349  12.689   6.801   9.844
41506SOL     OW26350   1.669   8.185   5.652
41506SOL    HW126351   1.602   8.137   5.700
41506SOL    HW226352   1.637   8.186   5.562
41507SOL     OW26353   5.498   2.704  12.297
41507SOL    HW126354   5.405   2.712  12.273
41507SOL    HW226355   5.499   2.714  12.392
41508SOL     OW26356   8.942  14.637  12.071
41508SOL    HW126357   8.967  14.658  12.161
41508SOL    HW226358   8.868  14.695  12.052
41509SOL     OW26359  11.140  14.535   3.710
41509SOL    HW126360  11.154  14.468   3.644
41509SOL    HW226361  11.120  14.487   3.790
41510SOL     OW26362   5.968   9.250   0.974
41510SOL    HW126363   5.916   9.329   0.986
41510SOL    HW226364   6.041   9.260   1.036
41511SOL     OW26365   3.431   5.197   6.266
41511SOL    HW126366   3.372   5.271   6.252
41511SOL    HW226367   3.486   5.196   6.187
41512SOL     OW26368   4.879   7.995   7.466
41512SOL    HW126369   4.830   8.005   7.547
41512SOL    HW226370   4.969   7.977   7.493
41513SOL     OW26371   7.792  13.204  13.951
41513SOL    HW126372   7.768  13.245  13.869
41513SOL    HW226373   7.708  13.181  13.992
41514SOL     OW26374   6.862   6.590  10.410
41514SOL    HW126375   6.924   6.537  10.460
41514SOL    HW226376   6.807   6.632  10.476
41515SOL     OW26377  11.747   2.273   7.912
41515SOL    HW126378  11.692   2.343   7.948
41515SOL    HW226379  11.820   2.320   7.871
41516SOL     OW26380  12.924  11.590   0.771
41516SOL    HW126381  12.905  11.546   0.688
41516SOL    HW226382  12.864  11.550   0.833
41517SOL     OW26383  10.595  13.263  11.113
41517SOL    HW126384  10.662  13.318  11.072
41517SOL    HW226385  10.595  13.182  11.061
41518SOL     OW26386   9.107  14.678  11.050
41518SOL    HW126387   9.061  14.608  11.004
41518SOL    HW226388   9.049  14.753  11.044
41519SOL     OW26389   5.854  10.715   1.897
41519SOL    HW126390   5.901  10.683   1.820
41519SOL    HW226391   5.762  10.691   1.881
41520SOL     OW26392   2.555   2.912  11.552
41520SOL    HW126393   2.527   2.872  11.469
41520SOL    HW226394   2.618   2.979  11.525
41521SOL     OW26395   1.587   5.039   3.942
41521SOL    HW126396   1.503   5.025   3.986
41521SOL    HW226397   1.638   5.091   4.004
41522SOL     OW26398   3.339   2.244   3.373
41522SOL    HW126399   3.318   2.155   3.344
41522SOL    HW226400   3.296   2.253   3.458
41523SOL     OW26401   2.959   8.335   5.338
41523SOL    HW126402   2.899   8.271   5.299
41523SOL    HW226403   3.023   8.353   5.269
41524SOL     OW26404   6.134   9.975   4.742
41524SOL    HW126405   6.207  10.035   4.758
41524SOL    HW226406   6.161   9.893   4.782
41525SOL     OW26407  12.613  13.128   4.794
41525SOL    HW126408  12.704  13.105   4.809
41525SOL    HW226409  12.616  13.208   4.741
41526SOL     OW26410   7.085  11.949  13.549
41526SOL    HW126411   7.156  11.894  13.581
41526SOL    HW226412   7.078  12.019  13.614
41527SOL     OW26413   7.022  13.934   2.746
41527SOL    HW126414   6.940  13.960   2.789
41527SOL    HW226415   7.065  13.877   2.810
41528SOL     OW26416   1.493   7.038   9.111
41528SOL    HW126417   1.490   7.121   9.160
41528SOL    HW226418   1.422   6.987   9.149
41529SOL     OW26419   1.200   6.320   9.949
41529SOL    HW126420   1.141   6.387   9.981
41529SOL    HW226421   1.148   6.268   9.888
41530SOL     OW26422  10.030   0.474  10.761
41530SOL    HW126423   9.964   0.462  10.693
41530SOL    HW226424  10.111   0.492  10.713
41531SOL     OW26425   6.817   5.340   8.597
41531SOL    HW126426   6.776   5.337   8.683
41531SOL    HW226427   6.819   5.433   8.575
41532SOL     OW26428  10.735   7.208  11.203
41532SOL    HW126429  10.760   7.198  11.111
41532SOL    HW226430  10.730   7.118  11.236
41533SOL     OW26431   4.721   1.814   6.538
41533SOL    HW126432   4.816   1.816   6.525
41533SOL    HW226433   4.710   1.814   6.633
41534SOL     OW26434   3.862   9.583   1.505
41534SOL    HW126435   3.859   9.588   1.601
41534SOL    HW226436   3.950   9.550   1.486
41535SOL     OW26437   4.727   7.348   0.476
41535SOL    HW126438   4.789   7.292   0.522
41535SOL    HW226439   4.664   7.373   0.544
41536SOL     OW26440   4.387  13.905   7.815
41536SOL    HW126441   4.333  13.829   7.794
41536SOL    HW226442   4.446  13.875   7.883
41537SOL     OW26443   5.568  11.568   4.059
41537SOL    HW126444   5.515  11.646   4.075
41537SOL    HW226445   5.507  11.504   4.022
41538SOL     OW26446   1.448   2.932  13.488
41538SOL    HW126447   1.509   2.858  13.489
41538SOL    HW226448   1.362   2.893  13.479
41539SOL     OW26449  10.841   1.530  10.495
41539SOL    HW126450  10.907   1.523  10.426
41539SOL    HW226451  10.794   1.611  10.477
41540SOL     OW26452  12.529   2.467   9.479
41540SOL    HW126453  12.520   2.383   9.433
41540SOL    HW226454  12.457   2.468   9.542
41541SOL     OW26455  11.187   0.398   1.888
41541SOL    HW126456  11.134   0.414   1.966
41541SOL    HW226457  11.204   0.485   1.852
41542SOL     OW26458   2.651   6.795  12.936
41542SOL    HW126459   2.635   6.702  12.915
41542SOL    HW226460   2.639   6.801  13.030
41543SOL     OW26461  13.685   2.202   4.536
41543SOL    HW126462  13.661   2.253   4.613
41543SOL    HW226463  13.780   2.216   4.527
41544SOL     OW26464  12.302   1.322   9.483
41544SOL    HW126465  12.315   1.311   9.577
41544SOL    HW226466  12.346   1.245   9.444
41545SOL     OW26467  10.159   6.988   5.422
41545SOL    HW126468  10.237   7.034   5.392
41545SOL    HW226469  10.128   6.940   5.345
41546SOL     OW26470   8.803  10.025   1.412
41546SOL    HW126471   8.878  10.075   1.444
41546SOL    HW226472   8.780  10.066   1.329
41547SOL     OW26473   9.677  13.416  12.891
41547SOL    HW126474   9.627  13.346  12.932
41547SOL    HW226475   9.672  13.398  12.797
41548SOL     OW26476   5.514   4.483  12.657
41548SOL    HW126477   5.436   4.507  12.707
41548SOL    HW226478   5.536   4.562  12.607
41549SOL     OW26479   0.280   4.277  14.184
41549SOL    HW126480   0.313   4.198  14.142
41549SOL    HW226481   0.218   4.314  14.121
41550SOL     OW26482   1.849  10.235  11.201
41550SOL    HW126483   1.838  10.140  11.201
41550SOL    HW226484   1.795  10.266  11.274
41551SOL     OW26485   8.221   2.015  11.390
41551SOL    HW126486   8.195   1.938  11.340
41551SOL    HW226487   8.313   2.000  11.411
41552SOL     OW26488   1.472  11.365  10.865
41552SOL    HW126489   1.475  11.318  10.781
41552SOL    HW226490   1.536  11.435  10.854
41553SOL     OW26491   0.365   0.917   4.257
41553SOL    HW126492   0.413   0.968   4.322
41553SOL    HW226493   0.347   0.833   4.301
41554SOL     OW26494   3.925   5.865   0.940
41554SOL    HW126495   4.007   5.848   0.894
41554SOL    HW226496   3.867   5.902   0.873
41555SOL     OW26497   2.102   5.861   6.468
41555SOL    HW126498   2.125   5.796   6.534
41555SOL    HW226499   2.171   5.854   6.402
41556SOL     OW26500   9.417   7.683   5.496
41556SOL    HW126501   9.347   7.740   5.529
41556SOL    HW226502   9.497   7.733   5.512
41557SOL     OW26503   3.830   0.545  14.088
41557SOL    HW126504   3.875   0.609  14.033
41557SOL    HW226505   3.760   0.511  14.033
41558SOL     OW26506   5.715   3.232   4.430
41558SOL    HW126507   5.687   3.189   4.349
41558SOL    HW226508   5.785   3.291   4.403
41559SOL     OW26509   8.591   9.762  13.418
41559SOL    HW126510   8.546   9.681  13.393
41559SOL    HW226511   8.634   9.791  13.338
41560SOL     OW26512   8.676   9.394   9.782
41560SOL    HW126513   8.611   9.449   9.738
41560SOL    HW226514   8.751   9.394   9.723
41561SOL     OW26515   5.695  13.606  13.743
41561SOL    HW126516   5.606  13.627  13.772
41561SOL    HW226517   5.725  13.685  13.697
41562SOL     OW26518   9.121   7.455  10.555
41562SOL    HW126519   9.058   7.418  10.618
41562SOL    HW226520   9.136   7.544  10.587
41563SOL     OW26521   0.859   0.185  14.464
41563SOL    HW126522   0.773   0.148  14.486
41563SOL    HW226523   0.844   0.239  14.387
41564SOL     OW26524  10.221   0.385   3.274
41564SOL    HW126525  10.290   0.365   3.211
41564SOL    HW226526  10.237   0.323   3.346
41565SOL     OW26527   1.303   3.386   6.154
41565SOL    HW126528   1.371   3.340   6.104
41565SOL    HW226529   1.319   3.479   6.136
41566SOL     OW26530  12.857  11.887  10.455
41566SOL    HW126531  12.807  11.956  10.412
41566SOL    HW226532  12.878  11.825  10.385
41567SOL     OW26533   8.312   0.909   6.258
41567SOL    HW126534   8.405   0.931   6.253
41567SOL    HW226535   8.272   0.985   6.300
41568SOL     OW26536   5.659  12.479   1.854
41568SOL    HW126537   5.657  12.563   1.809
41568SOL    HW226538   5.752  12.460   1.866
41569SOL     OW26539  12.523   2.701  10.343
41569SOL    HW126540  12.595   2.695  10.406
41569SOL    HW226541  12.470   2.623  10.359
41570SOL     OW26542   3.336  12.268  14.556
41570SOL    HW126543   3.294  12.353  14.542
41570SOL    HW226544   3.328  12.222  14.473
41571SOL     OW26545  13.940   0.457  13.727
41571SOL    HW126546  13.899   0.530  13.680
41571SOL    HW226547  13.909   0.379  13.682
41572SOL     OW26548   8.561  10.900  14.252
41572SOL    HW126549   8.639  10.935  14.210
41572SOL    HW226550   8.497  10.970  14.246
41573SOL     OW26551   7.455   5.372   1.008
41573SOL    HW126552   7.441   5.296   1.065
41573SOL    HW226553   7.375   5.423   1.015
41574SOL     OW26554  14.148   1.613   2.739
41574SOL    HW126555  14.101   1.648   2.663
41574SOL    HW226556  14.231   1.583   2.703
41575SOL     OW26557   9.426   9.030   6.626
41575SOL    HW126558   9.452   9.112   6.585
41575SOL    HW226559   9.371   9.057   6.700
41576SOL     OW26560   4.869   7.182   0.674
41576SOL    HW126561   4.811   7.107   0.664
41576SOL    HW226562   4.957   7.146   0.665
41577SOL     OW26563   8.925   8.755   0.284
41577SOL    HW126564   8.881   8.689   0.231
41577SOL    HW226565   8.861   8.825   0.292
41578SOL     OW26566   4.866  10.961   2.489
41578SOL    HW126567   4.954  10.929   2.465
41578SOL    HW226568   4.878  11.003   2.574
41579SOL     OW26569  14.077  13.539   8.592
41579SOL    HW126570  14.150  13.557   8.533
41579SOL    HW226571  14.098  13.455   8.632
41580SOL     OW26572  14.588  10.501  12.245
41580SOL    HW126573  14.500  10.490  12.211
41580SOL    HW226574  14.638  10.428  12.209
41581SOL     OW26575  11.771   0.744   7.687
41581SOL    HW126576  11.725   0.828   7.680
41581SOL    HW226577  11.816   0.749   7.771
41582SOL     OW26578   6.189   5.357   0.212
41582SOL    HW126579   6.133   5.301   0.160
41582SOL    HW226580   6.140   5.439   0.220
41583SOL     OW26581   8.396   7.162   1.494
41583SOL    HW126582   8.339   7.093   1.528
41583SOL    HW226583   8.336   7.226   1.455
41584SOL     OW26584   4.028   6.359   0.189
41584SOL    HW126585   4.073   6.277   0.212
41584SOL    HW226586   3.946   6.356   0.238
41585SOL     OW26587   0.196   9.620   6.034
41585SOL    HW126588   0.127   9.684   6.020
41585SOL    HW226589   0.278   9.668   6.021
41586SOL     OW26590   7.293   2.385  14.629
41586SOL    HW126591   7.336   2.342  14.556
41586SOL    HW226592   7.247   2.315  14.676
41587SOL     OW26593   7.754   1.242  12.500
41587SOL    HW126594   7.807   1.167  12.472
41587SOL    HW226595   7.705   1.210  12.576
41588SOL     OW26596   1.201   8.878  13.743
41588SOL    HW126597   1.108   8.858  13.743
41588SOL    HW226598   1.205   8.974  13.744
41589SOL     OW26599   6.500  14.388  12.255
41589SOL    HW126600   6.480  14.324  12.323
41589SOL    HW226601   6.588  14.419  12.276
41590SOL     OW26602   4.798   1.607  13.742
41590SOL    HW126603   4.869   1.553  13.706
41590SOL    HW226604   4.718   1.560  13.720
41591SOL     OW26605   9.834   1.205   9.524
41591SOL    HW126606   9.826   1.300   9.532
41591SOL    HW226607   9.816   1.171   9.612
41592SOL     OW26608   5.769   0.505   7.939
41592SOL    HW126609   5.674   0.520   7.946
41592SOL    HW226610   5.776   0.426   7.886
41593SOL     OW26611   0.226   4.570  13.671
41593SOL    HW126612   0.190   4.658  13.658
41593SOL    HW226613   0.285   4.558  13.597
41594SOL     OW26614   2.307  10.560  12.040
41594SOL    HW126615   2.278  10.650  12.033
41594SOL    HW226616   2.229  10.511  12.067
41595SOL     OW26617   2.540   7.642   0.681
41595SOL    HW126618   2.548   7.554   0.643
41595SOL    HW226619   2.487   7.690   0.618
41596SOL     OW26620   3.490   7.457  12.335
41596SOL    HW126621   3.546   7.437  12.260
41596SOL    HW226622   3.447   7.373  12.354
41597SOL     OW26623   9.247  11.664  10.071
41597SOL    HW126624   9.238  11.749  10.114
41597SOL    HW226625   9.250  11.601  10.143
41598SOL     OW26626  10.453   6.827   0.211
41598SOL    HW126627  10.540   6.846   0.248
41598SOL    HW226628  10.401   6.905   0.230
41599SOL     OW26629  13.346   4.917  12.050
41599SOL    HW126630  13.436   4.944  12.034
41599SOL    HW226631  13.327   4.948  12.139
41600SOL     OW26632   7.501   0.821  12.385
41600SOL    HW126633   7.499   0.908  12.346
41600SOL    HW226634   7.409   0.800  12.400
41601SOL     OW26635   6.341   6.977   0.272
41601SOL    HW126636   6.277   6.934   0.329
41601SOL    HW226637   6.422   6.926   0.284
41602SOL     OW26638   6.116  10.123   4.491
41602SOL    HW126639   6.103  10.071   4.571
41602SOL    HW226640   6.133  10.058   4.423
41603SOL     OW26641  11.708   2.076  12.798
41603SOL    HW126642  11.621   2.113  12.808
41603SOL    HW226643  11.766   2.152  12.786
41604SOL     OW26644   1.885   2.893   6.029
41604SOL    HW126645   1.908   2.866   6.118
41604SOL    HW226646   1.939   2.838   5.973
41605SOL     OW26647  13.050   1.676  13.299
41605SOL    HW126648  13.065   1.713  13.212
41605SOL    HW226649  12.973   1.723  13.331
41606SOL     OW26650   7.329   3.699   4.660
41606SOL    HW126651   7.309   3.676   4.751
41606SOL    HW226652   7.305   3.791   4.653
41607SOL     OW26653  11.180   1.450   6.181
41607SOL    HW126654  11.233   1.441   6.101
41607SOL    HW226655  11.244   1.465   6.251
41608SOL     OW26656   6.044   6.378   5.930
41608SOL    HW126657   6.087   6.362   5.845
41608SOL    HW226658   6.107   6.347   5.994
41609SOL     OW26659   0.089   5.826   8.198
41609SOL    HW126660   0.034   5.763   8.152
41609SOL    HW226661   0.091   5.795   8.289
41610SOL     OW26662  10.295   9.197  12.471
41610SOL    HW126663  10.326   9.143  12.544
41610SOL    HW226664  10.352   9.274  12.471
41611SOL     OW26665   2.205   0.317   6.806
41611SOL    HW126666   2.215   0.224   6.826
41611SOL    HW226667   2.141   0.319   6.735
41612SOL     OW26668   5.524   3.416   8.056
41612SOL    HW126669   5.536   3.426   7.961
41612SOL    HW226670   5.431   3.435   8.070
41613SOL     OW26671  13.560   3.319  14.272
41613SOL    HW126672  13.595   3.241  14.315
41613SOL    HW226673  13.465   3.307  14.273
41614SOL     OW26674   8.891  13.465   0.909
41614SOL    HW126675   8.961  13.415   0.952
41614SOL    HW226676   8.862  13.528   0.976
41615SOL     OW26677  11.691   8.521  13.461
41615SOL    HW126678  11.759   8.579  13.495
41615SOL    HW226679  11.624   8.580  13.426
41616SOL     OW26680   8.174  14.719   2.120
41616SOL    HW126681   8.093  14.752   2.080
41616SOL    HW226682   8.243  14.745   2.059
41617SOL     OW26683   1.539   6.794   0.768
41617SOL    HW126684   1.573   6.728   0.707
41617SOL    HW226685   1.455   6.821   0.730
41618SOL     OW26686   3.573  11.497   5.417
41618SOL    HW126687   3.588  11.428   5.481
41618SOL    HW226688   3.594  11.578   5.464
41619SOL     OW26689  13.648  12.449   6.815
41619SOL    HW126690  13.728  12.405   6.787
41619SOL    HW226691  13.656  12.538   6.781
41620SOL     OW26692   0.938   5.553   4.266
41620SOL    HW126693   0.850   5.516   4.276
41620SOL    HW226694   0.996   5.477   4.272
41621SOL     OW26695  11.325  13.709   4.565
41621SOL    HW126696  11.259  13.735   4.629
41621SOL    HW226697  11.401  13.762   4.586
41622SOL     OW26698   7.954   6.753  14.374
41622SOL    HW126699   8.001   6.831  14.343
41622SOL    HW226700   7.945   6.699  14.296
41623SOL     OW26701  12.677  13.595   7.588
41623SOL    HW126702  12.738  13.560   7.653
41623SOL    HW226703  12.632  13.518   7.554
41624SOL     OW26704  14.289   4.426   7.239
41624SOL    HW126705  14.302   4.354   7.302
41624SOL    HW226706  14.349   4.495   7.270
41625SOL     OW26707   1.148   7.820   6.588
41625SOL    HW126708   1.203   7.874   6.644
41625SOL    HW226709   1.098   7.765   6.649
41626SOL     OW26710  14.826   2.368  12.036
41626SOL    HW126711  14.736   2.400  12.045
41626SOL    HW226712  14.821   2.304  11.965
41627SOL     OW26713   4.795   0.608   0.233
41627SOL    HW126714   4.845   0.686   0.211
41627SOL    HW226715   4.748   0.585   0.153
41628SOL     OW26716   4.419   8.173  13.606
41628SOL    HW126717   4.494   8.135  13.560
41628SOL    HW226718   4.396   8.250  13.554
41629SOL     OW26719  14.365  13.927   3.420
41629SOL    HW126720  14.374  13.890   3.333
41629SOL    HW226721  14.324  14.012   3.406
41630SOL     OW26722   0.096   7.599   0.070
41630SOL    HW126723   0.133   7.640   0.148
41630SOL    HW226724   0.137   7.513   0.066
41631SOL     OW26725   5.129  11.208   7.678
41631SOL    HW126726   5.120  11.174   7.589
41631SOL    HW226727   5.150  11.131   7.731
41632SOL     OW26728   6.533  14.697   5.226
41632SOL    HW126729   6.482  14.776   5.211
41632SOL    HW226730   6.468  14.626   5.220
41633SOL     OW26731  13.712   4.269  12.553
41633SOL    HW126732  13.788   4.326  12.563
41633SOL    HW226733  13.749   4.181  12.544
41634SOL     OW26734   5.131   5.498   0.942
41634SOL    HW126735   5.165   5.564   1.003
41634SOL    HW226736   5.109   5.548   0.864
41635SOL     OW26737  10.350  11.598   3.464
41635SOL    HW126738  10.309  11.530   3.411
41635SOL    HW226739  10.381  11.553   3.543
41636SOL     OW26740  13.326   8.704   4.368
41636SOL    HW126741  13.340   8.649   4.291
41636SOL    HW226742  13.268   8.773   4.338
41637SOL     OW26743  13.450  11.952   6.627
41637SOL    HW126744  13.496  11.966   6.544
41637SOL    HW226745  13.487  12.017   6.687
41638SOL     OW26746  13.400   2.336   5.026
41638SOL    HW126747  13.445   2.420   5.024
41638SOL    HW226748  13.471   2.271   5.028
41639SOL     OW26749  11.598   7.418   7.621
41639SOL    HW126750  11.668   7.374   7.669
41639SOL    HW226751  11.555   7.474   7.685
41640SOL     OW26752  12.754  11.588   0.130
41640SOL    HW126753  12.733  11.646   0.057
41640SOL    HW226754  12.808  11.519   0.092
41641SOL     OW26755  11.458   8.515   2.030
41641SOL    HW126756  11.420   8.438   1.988
41641SOL    HW226757  11.496   8.482   2.112
41642SOL     OW26758   8.660   4.250  14.099
41642SOL    HW126759   8.672   4.161  14.133
41642SOL    HW226760   8.746   4.274  14.064
41643SOL     OW26761  14.152  14.108   2.798
41643SOL    HW126762  14.059  14.088   2.812
41643SOL    HW226763  14.198  14.028   2.821
41644SOL     OW26764   6.073  11.435  13.509
41644SOL    HW126765   6.155  11.396  13.478
41644SOL    HW226766   6.036  11.369  13.568
41645SOL     OW26767  10.084   0.840   9.946
41645SOL    HW126768  10.014   0.832   9.881
41645SOL    HW226769  10.112   0.750   9.961
41646SOL     OW26770  11.723  10.804   8.265
41646SOL    HW126771  11.662  10.789   8.193
41646SOL    HW226772  11.682  10.761   8.341
41647SOL     OW26773  13.735   1.534   3.350
41647SOL    HW126774  13.815   1.575   3.384
41647SOL    HW226775  13.745   1.441   3.370
41648SOL     OW26776   3.607   4.083  13.930
41648SOL    HW126777   3.545   4.106  13.999
41648SOL    HW226778   3.559   4.099  13.848
41649SOL     OW26779  10.395   5.580   0.227
41649SOL    HW126780  10.362   5.658   0.182
41649SOL    HW226781  10.322   5.518   0.222
41650SOL     OW26782   6.867   6.166  12.717
41650SOL    HW126783   6.901   6.191  12.803
41650SOL    HW226784   6.936   6.191  12.656
41651SOL     OW26785   5.731   5.394  10.657
41651SOL    HW126786   5.696   5.316  10.616
41651SOL    HW226787   5.804   5.363  10.711
41652SOL     OW26788  12.770   3.388  10.066
41652SOL    HW126789  12.719   3.461  10.031
41652SOL    HW226790  12.847   3.430  10.105
41653SOL     OW26791   5.475  13.776   4.634
41653SOL    HW126792   5.508  13.818   4.714
41653SOL    HW226793   5.410  13.714   4.665
41654SOL     OW26794   7.411   8.508  12.450
41654SOL    HW126795   7.501   8.503  12.418
41654SOL    HW226796   7.362   8.550  12.379
41655SOL     OW26797   3.978   5.447  11.307
41655SOL    HW126798   4.043   5.504  11.266
41655SOL    HW226799   3.930   5.408  11.234
41656SOL     OW26800  11.845   6.645   1.477
41656SOL    HW126801  11.894   6.716   1.435
41656SOL    HW226802  11.825   6.585   1.405
41657SOL     OW26803   4.587   9.712   8.221
41657SOL    HW126804   4.546   9.638   8.177
41657SOL    HW226805   4.673   9.678   8.249
41658SOL     OW26806   4.043  14.449  12.178
41658SOL    HW126807   4.022  14.478  12.267
41658SOL    HW226808   3.969  14.481  12.125
41659SOL     OW26809   4.156   2.695   1.071
41659SOL    HW126810   4.149   2.604   1.042
41659SOL    HW226811   4.216   2.736   1.008
41660SOL     OW26812  11.406   7.487   6.466
41660SOL    HW126813  11.348   7.493   6.390
41660SOL    HW226814  11.368   7.547   6.530
41661SOL     OW26815   1.449  11.423   3.256
41661SOL    HW126816   1.412  11.510   3.269
41661SOL    HW226817   1.400  11.387   3.182
41662SOL     OW26818   4.069   8.869  14.172
41662SOL    HW126819   4.031   8.841  14.255
41662SOL    HW226820   4.156   8.902  14.195
41663SOL     OW26821   6.597   6.226   1.922
41663SOL    HW126822   6.533   6.163   1.955
41663SOL    HW226823   6.646   6.253   2.000
41664SOL     OW26824  11.859  13.363   4.885
41664SOL    HW126825  11.782  13.346   4.938
41664SOL    HW226826  11.889  13.276   4.857
41665SOL     OW26827  11.978   8.811   9.350
41665SOL    HW126828  11.940   8.738   9.399
41665SOL    HW226829  11.970   8.886   9.409
41666SOL     OW26830  14.551   8.798   8.926
41666SOL    HW126831  14.561   8.754   9.011
41666SOL    HW226832  14.611   8.873   8.931
41667SOL     OW26833  11.955   1.986   6.149
41667SOL    HW126834  11.989   1.898   6.163
41667SOL    HW226835  11.879   1.992   6.206
41668SOL     OW26836   8.973   7.194   7.731
41668SOL    HW126837   9.030   7.119   7.713
41668SOL    HW226838   9.012   7.265   7.680
41669SOL     OW26839   8.597  12.215   4.309
41669SOL    HW126840   8.673  12.264   4.340
41669SOL    HW226841   8.626  12.176   4.226
41670SOL     OW26842  12.197   1.755  11.492
41670SOL    HW126843  12.149   1.817  11.438
41670SOL    HW226844  12.289   1.775  11.475
41671SOL     OW26845   7.565  11.257   1.074
41671SOL    HW126846   7.483  11.207   1.074
41671SOL    HW226847   7.573  11.289   1.164
41672SOL     OW26848  11.254  14.594  12.615
41672SOL    HW126849  11.275  14.684  12.593
41672SOL    HW226850  11.309  14.573  12.690
41673SOL     OW26851  10.097  11.596   8.360
41673SOL    HW126852  10.147  11.592   8.278
41673SOL    HW226853  10.163  11.591   8.429
41674SOL     OW26854   8.604   2.235  10.189
41674SOL    HW126855   8.578   2.239  10.097
41674SOL    HW226856   8.571   2.316  10.227
41675SOL     OW26857   5.247   7.547   1.736
41675SOL    HW126858   5.279   7.557   1.647
41675SOL    HW226859   5.224   7.454   1.744
41676SOL     OW26860   9.559   3.185   6.297
41676SOL    HW126861   9.491   3.238   6.257
41676SOL    HW226862   9.519   3.098   6.307
41677SOL     OW26863  12.649   1.410   5.697
41677SOL    HW126864  12.644   1.451   5.611
41677SOL    HW226865  12.742   1.394   5.712
41678SOL     OW26866  13.429   6.055   0.236
41678SOL    HW126867  13.345   6.081   0.274
41678SOL    HW226868  13.452   6.127   0.178
41679SOL     OW26869  10.746   5.941  10.360
41679SOL    HW126870  10.788   5.855  10.352
41679SOL    HW226871  10.672   5.926  10.418
41680SOL     OW26872   4.850   9.980   8.784
41680SOL    HW126873   4.849  10.052   8.846
41680SOL    HW226874   4.893   9.908   8.830
41681SOL     OW26875  11.957   6.241   0.957
41681SOL    HW126876  11.973   6.184   1.033
41681SOL    HW226877  11.888   6.300   0.986
41682SOL     OW26878   4.075   4.089   8.899
41682SOL    HW126879   4.031   4.034   8.964
41682SOL    HW226880   4.057   4.178   8.927
41683SOL     OW26881  12.661   4.116   3.135
41683SOL    HW126882  12.697   4.027   3.139
41683SOL    HW226883  12.653   4.133   3.041
41684SOL     OW26884   5.829   6.019   9.823
41684SOL    HW126885   5.836   5.970   9.905
41684SOL    HW226886   5.919   6.042   9.800
41685SOL     OW26887  14.282  13.538   2.807
41685SOL    HW126888  14.280  13.461   2.864
41685SOL    HW226889  14.191  13.551   2.782
41686SOL     OW26890  12.713   9.591   2.046
41686SOL    HW126891  12.669   9.506   2.039
41686SOL    HW226892  12.771   9.581   2.122
41687SOL     OW26893   5.738   6.262   3.963
41687SOL    HW126894   5.801   6.313   3.911
41687SOL    HW226895   5.656   6.311   3.956
41688SOL     OW26896   8.725   3.645   4.356
41688SOL    HW126897   8.638   3.643   4.394
41688SOL    HW226898   8.711   3.638   4.262
41689SOL     OW26899   3.220  13.627   5.426
41689SOL    HW126900   3.272  13.656   5.501
41689SOL    HW226901   3.142  13.683   5.427
41690SOL     OW26902   6.928   8.086   6.039
41690SOL    HW126903   6.911   8.092   6.133
41690SOL    HW226904   6.922   8.177   6.008
41691SOL     OW26905  11.012   3.838   3.138
41691SOL    HW126906  11.003   3.930   3.164
41691SOL    HW226907  10.923   3.809   3.121
41692SOL     OW26908   2.954   7.554   4.194
41692SOL    HW126909   2.942   7.499   4.117
41692SOL    HW226910   3.028   7.611   4.173
41693SOL     OW26911  13.050  14.679   4.739
41693SOL    HW126912  13.122  14.657   4.798
41693SOL    HW226913  13.031  14.771   4.758
41694SOL     OW26914   7.075   3.926   0.935
41694SOL    HW126915   7.040   4.014   0.947
41694SOL    HW226916   7.141   3.916   1.003
41695SOL     OW26917   8.141   1.314   0.317
41695SOL    HW126918   8.073   1.318   0.249
41695SOL    HW226919   8.204   1.382   0.291
41696SOL     OW26920   9.876  11.728  10.209
41696SOL    HW126921   9.781  11.739  10.211
41696SOL    HW226922   9.910  11.815  10.190
41697SOL     OW26923  14.169   2.741  10.047
41697SOL    HW126924  14.205   2.653  10.059
41697SOL    HW226925  14.178   2.782  10.133
41698SOL     OW26926   4.615   5.096   6.026
41698SOL    HW126927   4.661   5.077   6.107
41698SOL    HW226928   4.551   5.163   6.050
41699SOL     OW26929   8.244   6.968   1.597
41699SOL    HW126930   8.182   6.913   1.550
41699SOL    HW226931   8.196   6.995   1.676
41700SOL     OW26932  12.579   6.457  10.315
41700SOL    HW126933  12.658   6.483  10.363
41700SOL    HW226934  12.561   6.368  10.346
41701SOL     OW26935   4.117   4.568  11.070
41701SOL    HW126936   4.022   4.557  11.067
41701SOL    HW226937   4.133   4.612  11.153
41702SOL     OW26938   5.905  12.240   4.650
41702SOL    HW126939   5.828  12.285   4.684
41702SOL    HW226940   5.870  12.163   4.606
41703SOL     OW26941  13.713   3.657   0.928
41703SOL    HW126942  13.766   3.736   0.922
41703SOL    HW226943  13.742   3.602   0.856
41704SOL     OW26944   9.082   4.209  11.861
41704SOL    HW126945   9.161   4.219  11.807
41704SOL    HW226946   9.094   4.124  11.903
41705SOL     OW26947   1.816   7.160   1.482
41705SOL    HW126948   1.874   7.224   1.441
41705SOL    HW226949   1.763   7.125   1.410
41706SOL     OW26950  11.622   9.137   8.665
41706SOL    HW126951  11.572   9.172   8.739
41706SOL    HW226952  11.563   9.072   8.625
41707SOL     OW26953   3.511   6.345   7.117
41707SOL    HW126954   3.527   6.426   7.166
41707SOL    HW226955   3.573   6.282   7.154
41708SOL     OW26956   5.859  11.797  13.265
41708SOL    HW126957   5.851  11.809  13.360
41708SOL    HW226958   5.857  11.702  13.253
41709SOL     OW26959   7.126  13.551   6.114
41709SOL    HW126960   7.176  13.632   6.108
41709SOL    HW226961   7.130  13.513   6.026
41710SOL     OW26962  11.748   6.229   7.764
41710SOL    HW126963  11.809   6.156   7.779
41710SOL    HW226964  11.671   6.208   7.817
41711SOL     OW26965  14.104   2.799   5.430
41711SOL    HW126966  14.159   2.875   5.452
41711SOL    HW226967  14.161   2.724   5.441
41712SOL     OW26968   2.912  14.271   4.713
41712SOL    HW126969   2.871  14.223   4.641
41712SOL    HW226970   2.918  14.361   4.680
41713SOL     OW26971   3.055   9.638  12.479
41713SOL    HW126972   3.076   9.731  12.479
41713SOL    HW226973   3.140   9.594  12.472
41714SOL     OW26974   0.556  12.892   5.680
41714SOL    HW126975   0.555  12.809   5.729
41714SOL    HW226976   0.482  12.884   5.619
41715SOL     OW26977   0.303   6.221   5.712
41715SOL    HW126978   0.344   6.154   5.657
41715SOL    HW226979   0.281   6.291   5.651
41716SOL     OW26980  11.411  10.801  14.259
41716SOL    HW126981  11.394  10.780  14.168
41716SOL    HW226982  11.341  10.863  14.283
41717SOL     OW26983  10.520   2.064   6.738
41717SOL    HW126984  10.546   2.153   6.759
41717SOL    HW226985  10.429   2.058   6.768
41718SOL     OW26986   4.725   8.801   2.041
41718SOL    HW126987   4.640   8.789   2.083
41718SOL    HW226988   4.761   8.712   2.036
41719SOL     OW26989  14.532   6.603  12.401
41719SOL    HW126990  14.557   6.689  12.435
41719SOL    HW226991  14.553   6.542  12.471
41720SOL     OW26992  11.392   0.292   5.936
41720SOL    HW126993  11.364   0.293   6.028
41720SOL    HW226994  11.311   0.304   5.886
41721SOL     OW26995   1.018  13.278   6.488
41721SOL    HW126996   1.028  13.298   6.581
41721SOL    HW226997   1.056  13.191   6.478
41722SOL     OW26998  14.160   0.252  11.997
41722SOL    HW126999  14.225   0.296  11.942
41722SOL    HW227000  14.077   0.266  11.951
41723SOL     OW27001   1.545   4.427   1.171
41723SOL    HW127002   1.598   4.387   1.240
41723SOL    HW227003   1.585   4.513   1.157
41724SOL     OW27004   5.812  14.396   5.790
41724SOL    HW127005   5.778  14.469   5.842
41724SOL    HW227006   5.854  14.338   5.854
41725SOL     OW27007  13.707   0.055  14.262
41725SOL    HW127008  13.772  14.875  14.224
41725SOL    HW227009  13.753   0.138  14.271
41726SOL     OW27010   5.754  11.370   7.483
41726SOL    HW127011   5.793  11.327   7.558
41726SOL    HW227012   5.727  11.299   7.425
41727SOL     OW27013   1.304   3.986   9.080
41727SOL    HW127014   1.344   3.977   8.993
41727SOL    HW227015   1.310   4.080   9.100
41728SOL     OW27016  14.246   3.532   9.575
41728SOL    HW127017  14.253   3.460   9.512
41728SOL    HW227018  14.253   3.611   9.522
41729SOL     OW27019   2.880   8.450   2.167
41729SOL    HW127020   2.939   8.517   2.201
41729SOL    HW227021   2.908   8.439   2.076
41730SOL     OW27022  12.758   7.171   0.272
41730SOL    HW127023  12.823   7.131   0.329
41730SOL    HW227024  12.793   7.257   0.252
41731SOL     OW27025   8.355   9.411   7.779
41731SOL    HW127026   8.338   9.318   7.764
41731SOL    HW227027   8.292   9.457   7.724
41732SOL     OW27028   1.485   5.650  11.063
41732SOL    HW127029   1.499   5.576  11.122
41732SOL    HW227030   1.486   5.726  11.120
41733SOL     OW27031   1.025  11.013   3.833
41733SOL    HW127032   0.954  11.040   3.891
41733SOL    HW227033   1.103  11.015   3.888
41734SOL     OW27034  10.283   6.619  12.394
41734SOL    HW127035  10.189   6.599  12.402
41734SOL    HW227036  10.325   6.560  12.457
41735SOL     OW27037  10.750   2.139  11.702
41735SOL    HW127038  10.715   2.058  11.665
41735SOL    HW227039  10.768   2.195  11.626
41736SOL     OW27040  13.034   6.670   2.330
41736SOL    HW127041  12.980   6.612   2.384
41736SOL    HW227042  12.975   6.698   2.260
41737SOL     OW27043  12.775   3.416   7.164
41737SOL    HW127044  12.828   3.479   7.114
41737SOL    HW227045  12.765   3.457   7.250
41738SOL     OW27046   6.519  14.019   3.978
41738SOL    HW127047   6.455  13.989   3.914
41738SOL    HW227048   6.552  13.939   4.018
41739SOL     OW27049   4.763  12.281   3.952
41739SOL    HW127050   4.670  12.259   3.962
41739SOL    HW227051   4.767  12.330   3.870
41740SOL     OW27052  11.710   5.844   7.122
41740SOL    HW127053  11.731   5.764   7.073
41740SOL    HW227054  11.754   5.914   7.073
41741SOL     OW27055   9.479  14.001   7.092
41741SOL    HW127056   9.483  14.087   7.049
41741SOL    HW227057   9.455  13.940   7.023
41742SOL     OW27058  13.755   9.714  13.750
41742SOL    HW127059  13.849   9.706  13.730
41742SOL    HW227060  13.752   9.767  13.830
41743SOL     OW27061   2.275  12.386   0.638
41743SOL    HW127062   2.321  12.394   0.722
41743SOL    HW227063   2.343  12.356   0.577
41744SOL     OW27064   9.960   6.326  12.493
41744SOL    HW127065  10.011   6.356  12.569
41744SOL    HW227066   9.902   6.258  12.528
41745SOL     OW27067  12.773   2.447   1.639
41745SOL    HW127068  12.716   2.401   1.578
41745SOL    HW227069  12.728   2.530   1.656
41746SOL     OW27070  10.006   3.642   3.279
41746SOL    HW127071  10.024   3.560   3.232
41746SOL    HW227072  10.032   3.710   3.217
41747SOL     OW27073   0.660   1.414   7.538
41747SOL    HW127074   0.658   1.321   7.514
41747SOL    HW227075   0.586   1.425   7.598
41748SOL     OW27076   4.056  13.814   8.866
41748SOL    HW127077   4.018  13.900   8.883
41748SOL    HW227078   4.149  13.824   8.887
41749SOL     OW27079   0.679   6.200  13.604
41749SOL    HW127080   0.750   6.247  13.560
41749SOL    HW227081   0.657   6.254  13.679
41750SOL     OW27082   7.337   8.023  11.010
41750SOL    HW127083   7.265   7.963  11.032
41750SOL    HW227084   7.314   8.105  11.054
41751SOL     OW27085   2.058   9.432   2.799
41751SOL    HW127086   2.133   9.487   2.823
41751SOL    HW227087   2.042   9.379   2.877
41752SOL     OW27088   7.288  10.343   0.251
41752SOL    HW127089   7.294  10.288   0.330
41752SOL    HW227090   7.302  10.432   0.283
41753SOL     OW27091  10.024   8.487  11.670
41753SOL    HW127092   9.990   8.568  11.632
41753SOL    HW227093   9.991   8.487  11.760
41754SOL     OW27094  11.341   9.613  11.533
41754SOL    HW127095  11.353   9.519  11.547
41754SOL    HW227096  11.302   9.645  11.615
41755SOL     OW27097  11.156  14.000   6.386
41755SOL    HW127098  11.234  13.955   6.419
41755SOL    HW227099  11.113  13.935   6.331
41756SOL     OW27100   3.668   0.363   0.743
41756SOL    HW127101   3.618   0.428   0.693
41756SOL    HW227102   3.747   0.410   0.771
41757SOL     OW27103  11.564   0.084   5.966
41757SOL    HW127104  11.494   0.148   5.952
41757SOL    HW227105  11.533   0.031   6.040
41758SOL     OW27106   9.397  10.760   2.220
41758SOL    HW127107   9.340  10.757   2.143
41758SOL    HW227108   9.424  10.852   2.226
41759SOL     OW27109   3.500  12.687   4.011
41759SOL    HW127110   3.476  12.626   3.942
41759SOL    HW227111   3.464  12.649   4.091
41760SOL     OW27112   8.314  12.744   4.079
41760SOL    HW127113   8.317  12.653   4.050
41760SOL    HW227114   8.403  12.763   4.110
41761SOL     OW27115   5.806   7.262   6.495
41761SOL    HW127116   5.811   7.344   6.447
41761SOL    HW227117   5.720   7.263   6.537
41762SOL     OW27118   0.705   6.430   7.060
41762SOL    HW127119   0.799   6.440   7.075
41762SOL    HW227120   0.699   6.357   6.998
41763SOL     OW27121   8.585   0.126  12.357
41763SOL    HW127122   8.576   0.031  12.358
41763SOL    HW227123   8.496   0.159  12.367
41764SOL     OW27124  13.074   5.663  11.033
41764SOL    HW127125  13.053   5.669  10.940
41764SOL    HW227126  13.059   5.751  11.067
41765SOL     OW27127   3.147   9.593   8.728
41765SOL    HW127128   3.238   9.603   8.702
41765SOL    HW227129   3.135   9.655   8.800
41766SOL     OW27130   7.324   4.662   0.454
41766SOL    HW127131   7.400   4.672   0.398
41766SOL    HW227132   7.351   4.598   0.520
41767SOL     OW27133   3.734   0.343  10.554
41767SOL    HW127134   3.815   0.392  10.544
41767SOL    HW227135   3.669   0.393  10.505
41768SOL     OW27136  10.918  11.332  12.064
41768SOL    HW127137  10.912  11.237  12.068
41768SOL    HW227138  10.954  11.350  11.978
41769SOL     OW27139   5.512   0.997   0.152
41769SOL    HW127140   5.588   0.963   0.106
41769SOL    HW227141   5.543   1.079   0.192
41770SOL     OW27142   0.705   2.141   7.357
41770SOL    HW127143   0.751   2.128   7.440
41770SOL    HW227144   0.709   2.235   7.342
41771SOL     OW27145  14.742   8.255   7.005
41771SOL    HW127146  14.664   8.211   6.972
41771SOL    HW227147  14.814   8.195   6.984
41772SOL     OW27148   7.067   4.255   6.530
41772SOL    HW127149   6.974   4.237   6.515
41772SOL    HW227150   7.073   4.350   6.532
41773SOL     OW27151   6.669   9.318  11.377
41773SOL    HW127152   6.604   9.286  11.439
41773SOL    HW227153   6.618   9.360  11.308
41774SOL     OW27154  10.521   5.886  13.535
41774SOL    HW127155  10.606   5.894  13.492
41774SOL    HW227156  10.463   5.942  13.484
41775SOL     OW27157   2.571   7.682   9.302
41775SOL    HW127158   2.504   7.618   9.324
41775SOL    HW227159   2.563   7.749   9.370
41776SOL     OW27160   6.216   7.543   0.776
41776SOL    HW127161   6.150   7.605   0.746
41776SOL    HW227162   6.281   7.540   0.706
41777SOL     OW27163   1.364   2.162   0.585
41777SOL    HW127164   1.387   2.242   0.538
41777SOL    HW227165   1.348   2.097   0.517
41778SOL     OW27166  12.514  10.626   1.168
41778SOL    HW127167  12.560  10.668   1.096
41778SOL    HW227168  12.541  10.534   1.164
41779SOL     OW27169  13.550   0.407   6.069
41779SOL    HW127170  13.523   0.481   6.015
41779SOL    HW227171  13.622   0.440   6.121
41780SOL     OW27172  14.803   5.302   3.305
41780SOL    HW127173  14.858   5.346   3.370
41780SOL    HW227174  14.767   5.226   3.351
41781SOL     OW27175   7.430   6.757  10.761
41781SOL    HW127176   7.461   6.785  10.675
41781SOL    HW227177   7.338   6.737  10.748
41782SOL     OW27178  14.518   8.816  12.141
41782SOL    HW127179  14.427   8.839  12.120
41782SOL    HW227180  14.563   8.900  12.147
41783SOL     OW27181   7.552   0.077   0.033
41783SOL    HW127182   7.485   0.024  14.868
41783SOL    HW227183   7.634   0.052  14.871
41784SOL     OW27184  10.238   7.997  12.107
41784SOL    HW127185  10.208   8.075  12.154
41784SOL    HW227186  10.163   7.970  12.054
41785SOL     OW27187  14.071  11.026   0.825
41785SOL    HW127188  14.086  11.031   0.731
41785SOL    HW227189  13.985  10.985   0.834
41786SOL     OW27190   5.955   1.724  11.465
41786SOL    HW127191   5.892   1.796  11.469
41786SOL    HW227192   5.916   1.662  11.404
41787SOL     OW27193   8.455   0.453  12.397
41787SOL    HW127194   8.442   0.474  12.305
41787SOL    HW227195   8.401   0.375  12.412
41788SOL     OW27196   4.743  14.261  11.177
41788SOL    HW127197   4.837  14.261  11.161
41788SOL    HW227198   4.714  14.350  11.156
41789SOL     OW27199   0.061  11.584   8.768
41789SOL    HW127200  14.853  11.624   8.764
41789SOL    HW227201   0.097  11.596   8.680
41790SOL     OW27202   6.210   5.228  14.298
41790SOL    HW127203   6.170   5.148  14.264
41790SOL    HW227204   6.162   5.299  14.256
41791SOL     OW27205  14.516   2.253   0.832
41791SOL    HW127206  14.429   2.220   0.856
41791SOL    HW227207  14.504   2.294   0.747
41792SOL     OW27208   1.256   8.541   2.334
41792SOL    HW127209   1.195   8.606   2.369
41792SOL    HW227210   1.342   8.581   2.342
41793SOL     OW27211  12.394  12.609   6.451
41793SOL    HW127212  12.380  12.639   6.361
41793SOL    HW227213  12.487  12.585   6.454
41794SOL     OW27214   4.911   8.903  11.473
41794SOL    HW127215   4.914   8.999  11.471
41794SOL    HW227216   4.981   8.878  11.533
41795SOL     OW27217   3.877   3.313   2.465
41795SOL    HW127218   3.851   3.393   2.510
41795SOL    HW227219   3.808   3.299   2.399
41796SOL     OW27220   9.225  11.624   5.737
41796SOL    HW127221   9.174  11.568   5.795
41796SOL    HW227222   9.219  11.581   5.651
41797SOL     OW27223  12.052   3.999   0.763
41797SOL    HW127224  12.074   4.059   0.834
41797SOL    HW227225  12.132   3.948   0.749
41798SOL     OW27226   9.464   6.220   2.401
41798SOL    HW127227   9.509   6.299   2.431
41798SOL    HW227228   9.485   6.215   2.308
41799SOL     OW27229   5.808   0.786   4.088
41799SOL    HW127230   5.720   0.820   4.074
41799SOL    HW227231   5.799   0.691   4.082
41800SOL     OW27232   6.886  10.305   8.344
41800SOL    HW127233   6.816  10.284   8.406
41800SOL    HW227234   6.842  10.310   8.259
41801SOL     OW27235   6.424  14.501   3.309
41801SOL    HW127236   6.450  14.566   3.243
41801SOL    HW227237   6.500  14.494   3.367
41802SOL     OW27238   6.184   7.157   6.201
41802SOL    HW127239   6.201   7.241   6.243
41802SOL    HW227240   6.230   7.093   6.255
41803SOL     OW27241  10.958   8.051   2.355
41803SOL    HW127242  10.936   8.042   2.262
41803SOL    HW227243  10.939   7.966   2.393
41804SOL     OW27244   9.349   9.227  11.647
41804SOL    HW127245   9.254   9.241  11.654
41804SOL    HW227246   9.384   9.313  11.625
41805SOL     OW27247  12.330  11.779   6.192
41805SOL    HW127248  12.272  11.811   6.123
41805SOL    HW227249  12.359  11.858   6.238
41806SOL     OW27250   7.998  14.403  10.571
41806SOL    HW127251   8.048  14.414  10.490
41806SOL    HW227252   7.922  14.350  10.545
41807SOL     OW27253   9.147  12.484   7.319
41807SOL    HW127254   9.067  12.431   7.317
41807SOL    HW227255   9.115  12.574   7.319
41808SOL     OW27256  14.526  10.180   5.726
41808SOL    HW127257  14.513  10.219   5.812
41808SOL    HW227258  14.508  10.251   5.664
41809SOL     OW27259   4.730   2.036  14.459
41809SOL    HW127260   4.692   2.044  14.371
41809SOL    HW227261   4.808   1.983  14.446
41810SOL     OW27262   7.181   4.416   1.104
41810SOL    HW127263   7.165   4.331   1.144
41810SOL    HW227264   7.140   4.479   1.164
41811SOL     OW27265   1.737   8.171   3.304
41811SOL    HW127266   1.676   8.106   3.267
41811SOL    HW227267   1.754   8.231   3.231
41812SOL     OW27268   7.241   9.794   2.209
41812SOL    HW127269   7.304   9.866   2.216
41812SOL    HW227270   7.287   9.719   2.246
41813SOL     OW27271   3.709   5.663   7.955
41813SOL    HW127272   3.651   5.637   8.026
41813SOL    HW227273   3.663   5.734   7.911
41814SOL     OW27274  10.931   7.250   3.726
41814SOL    HW127275  11.015   7.263   3.771
41814SOL    HW227276  10.926   7.156   3.711
41815SOL     OW27277  13.666   7.025   8.986
41815SOL    HW127278  13.610   7.042   9.061
41815SOL    HW227279  13.671   6.929   8.980
41816SOL     OW27280   8.033   4.736   5.895
41816SOL    HW127281   7.976   4.698   5.962
41816SOL    HW227282   8.060   4.820   5.931
41817SOL     OW27283  10.017  12.269   9.386
41817SOL    HW127284   9.927  12.283   9.359
41817SOL    HW227285  10.059  12.228   9.310
41818SOL     OW27286   8.400   0.429   6.755
41818SOL    HW127287   8.444   0.347   6.733
41818SOL    HW227288   8.459   0.498   6.724
41819SOL     OW27289  10.664   6.234   8.777
41819SOL    HW127290  10.748   6.268   8.809
41819SOL    HW227291  10.688   6.166   8.715
41820SOL     OW27292   2.291  10.423   2.900
41820SOL    HW127293   2.224  10.481   2.935
41820SOL    HW227294   2.285  10.344   2.953
41821SOL     OW27295   2.890   7.989  12.908
41821SOL    HW127296   2.852   7.971  12.993
41821SOL    HW227297   2.815   8.003  12.850
41822SOL     OW27298   3.030   8.204   7.772
41822SOL    HW127299   3.064   8.202   7.683
41822SOL    HW227300   3.104   8.235   7.825
41823SOL     OW27301   6.598  13.267   9.128
41823SOL    HW127302   6.624  13.271   9.220
41823SOL    HW227303   6.670  13.307   9.080
41824SOL     OW27304  13.636   7.958  11.098
41824SOL    HW127305  13.663   7.867  11.114
41824SOL    HW227306  13.658   8.004  11.178
41825SOL     OW27307   3.534  10.103  12.773
41825SOL    HW127308   3.539  10.050  12.694
41825SOL    HW227309   3.489  10.047  12.836
41826SOL     OW27310   3.887   3.435  10.405
41826SOL    HW127311   3.862   3.345  10.384
41826SOL    HW227312   3.842   3.453  10.488
41827SOL     OW27313  14.018  11.164   4.932
41827SOL    HW127314  14.062  11.187   5.013
41827SOL    HW227315  13.936  11.214   4.934
41828SOL     OW27316   3.685   8.572   6.709
41828SOL    HW127317   3.632   8.574   6.629
41828SOL    HW227318   3.668   8.486   6.748
41829SOL     OW27319   8.451   1.186  13.991
41829SOL    HW127320   8.359   1.183  14.018
41829SOL    HW227321   8.497   1.135  14.057
41830SOL     OW27322  13.714   4.500   2.479
41830SOL    HW127323  13.652   4.436   2.515
41830SOL    HW227324  13.674   4.585   2.495
41831SOL     OW27325   4.703   6.143   1.307
41831SOL    HW127326   4.708   6.126   1.402
41831SOL    HW227327   4.758   6.075   1.268
41832SOL     OW27328   4.227  13.504   8.492
41832SOL    HW127329   4.303  13.562   8.491
41832SOL    HW227330   4.161  13.552   8.542
41833SOL     OW27331   5.650  12.610   0.774
41833SOL    HW127332   5.637  12.523   0.813
41833SOL    HW227333   5.655  12.594   0.680
41834SOL     OW27334   8.539   5.958  11.355
41834SOL    HW127335   8.492   5.948  11.437
41834SOL    HW227336   8.519   5.879  11.305
41835SOL     OW27337   9.900  10.671   5.493
41835SOL    HW127338   9.959  10.674   5.419
41835SOL    HW227339   9.912  10.755   5.538
41836SOL     OW27340  12.286   8.657   8.500
41836SOL    HW127341  12.257   8.566   8.511
41836SOL    HW227342  12.205   8.707   8.488
41837SOL     OW27343  10.861   2.241   0.745
41837SOL    HW127344  10.800   2.186   0.696
41837SOL    HW227345  10.946   2.227   0.702
41838SOL     OW27346  13.851  14.147  13.713
41838SOL    HW127347  13.942  14.153  13.684
41838SOL    HW227348  13.853  14.084  13.784
41839SOL     OW27349   9.747   9.919   7.281
41839SOL    HW127350   9.782  10.004   7.309
41839SOL    HW227351   9.760   9.918   7.186
41840SOL     OW27352   4.661  13.747  13.381
41840SOL    HW127353   4.648  13.797  13.300
41840SOL    HW227354   4.727  13.796  13.429
41841SOL     OW27355   3.906  11.876  14.407
41841SOL    HW127356   3.850  11.949  14.379
41841SOL    HW227357   3.936  11.836  14.325
41842SOL     OW27358   9.824   8.125  14.594
41842SOL    HW127359   9.774   8.051  14.630
41842SOL    HW227360   9.872   8.086  14.521
41843SOL     OW27361   5.634  13.500   3.996
41843SOL    HW127362   5.674  13.586   3.986
41843SOL    HW227363   5.643  13.480   4.089
41844SOL     OW27364  13.378  11.652   6.921
41844SOL    HW127365  13.400  11.654   6.828
41844SOL    HW227366  13.395  11.741   6.952
41845SOL     OW27367   7.866   6.582  11.620
41845SOL    HW127368   7.855   6.487  11.612
41845SOL    HW227369   7.780   6.615  11.643
41846SOL     OW27370   9.453   2.453   2.305
41846SOL    HW127371   9.449   2.452   2.209
41846SOL    HW227372   9.545   2.432   2.325
41847SOL     OW27373   3.970   8.901  14.818
41847SOL    HW127374   3.890   8.954  14.814
41847SOL    HW227375   4.006   8.919   0.025
41848SOL     OW27376  13.450   4.046   9.453
41848SOL    HW127377  13.405   4.022   9.534
41848SOL    HW227378  13.406   4.126   9.424
41849SOL     OW27379   7.819   7.342   7.542
41849SOL    HW127380   7.776   7.426   7.560
41849SOL    HW227381   7.899   7.345   7.595
41850SOL     OW27382   9.011   5.698  12.345
41850SOL    HW127383   9.104   5.721  12.354
41850SOL    HW227384   8.964   5.766  12.393
41851SOL     OW27385  13.642   1.206   1.142
41851SOL    HW127386  13.559   1.160   1.154
41851SOL    HW227387  13.665   1.236   1.229
41852SOL     OW27388   1.958   3.144  10.530
41852SOL    HW127389   1.990   3.137  10.440
41852SOL    HW227390   1.981   3.060  10.570
41853SOL     OW27391  12.168  12.565  10.758
41853SOL    HW127392  12.201  12.567  10.848
41853SOL    HW227393  12.109  12.490  10.756
41854SOL     OW27394   7.640   6.288  13.537
41854SOL    HW127395   7.545   6.290  13.542
41854SOL    HW227396   7.669   6.363  13.588
41855SOL     OW27397   4.030   3.435  13.772
41855SOL    HW127398   3.955   3.456  13.827
41855SOL    HW227399   4.033   3.340  13.769
41856SOL     OW27400  12.286   3.518   7.933
41856SOL    HW127401  12.203   3.490   7.896
41856SOL    HW227402  12.324   3.438   7.970
41857SOL     OW27403   1.227   8.866   3.673
41857SOL    HW127404   1.235   8.873   3.578
41857SOL    HW227405   1.276   8.941   3.707
41858SOL     OW27406   4.701   2.400  13.381
41858SOL    HW127407   4.644   2.477  13.386
41858SOL    HW227408   4.662   2.338  13.443
41859SOL     OW27409   9.463   2.203   1.932
41859SOL    HW127410   9.445   2.147   1.858
41859SOL    HW227411   9.546   2.246   1.911
41860SOL     OW27412   8.811   2.684  14.417
41860SOL    HW127413   8.784   2.621  14.350
41860SOL    HW227414   8.874   2.740  14.373
41861SOL     OW27415   2.760   3.317   8.268
41861SOL    HW127416   2.829   3.314   8.334
41861SOL    HW227417   2.765   3.405   8.231
41862SOL     OW27418   3.246   1.836  11.049
41862SOL    HW127419   3.181   1.851  11.118
41862SOL    HW227420   3.199   1.853  10.967
41863SOL     OW27421   6.064  12.709  11.284
41863SOL    HW127422   6.009  12.766  11.230
41863SOL    HW227423   6.153  12.741  11.271
41864SOL     OW27424   4.787   6.257   5.656
41864SOL    HW127425   4.719   6.222   5.714
41864SOL    HW227426   4.744   6.272   5.573
41865SOL     OW27427   4.430   2.000   2.800
41865SOL    HW127428   4.391   2.044   2.876
41865SOL    HW227429   4.369   2.019   2.729
41866SOL     OW27430  12.207   0.844  10.982
41866SOL    HW127431  12.234   0.909  10.917
41866SOL    HW227432  12.288   0.802  11.010
41867SOL     OW27433   3.461   5.594  13.357
41867SOL    HW127434   3.504   5.512  13.380
41867SOL    HW227435   3.521   5.662  13.388
41868SOL     OW27436  14.264   0.943   2.930
41868SOL    HW127437  14.316   0.863   2.942
41868SOL    HW227438  14.180   0.924   2.972
41869SOL     OW27439  12.055   6.342   6.482
41869SOL    HW127440  12.128   6.287   6.513
41869SOL    HW227441  11.996   6.280   6.440
41870SOL     OW27442  14.260   6.917  11.538
41870SOL    HW127443  14.251   6.969  11.458
41870SOL    HW227444  14.354   6.909  11.550
41871SOL     OW27445   0.261  14.166   1.115
41871SOL    HW127446   0.261  14.074   1.142
41871SOL    HW227447   0.185  14.204   1.158
41872SOL     OW27448   0.543   6.497   9.284
41872SOL    HW127449   0.508   6.511   9.372
41872SOL    HW227450   0.551   6.584   9.246
41873SOL     OW27451   4.780   8.584  10.278
41873SOL    HW127452   4.854   8.635  10.311
41873SOL    HW227453   4.705   8.643  10.287
41874SOL     OW27454   6.337   6.129  13.711
41874SOL    HW127455   6.373   6.190  13.647
41874SOL    HW227456   6.413   6.085  13.749
41875SOL     OW27457   8.609  10.541  12.112
41875SOL    HW127458   8.547  10.613  12.124
41875SOL    HW227459   8.575  10.470  12.167
41876SOL     OW27460  13.361   0.761  11.711
41876SOL    HW127461  13.279   0.730  11.749
41876SOL    HW227462  13.382   0.696  11.644
41877SOL     OW27463   9.973  12.794  10.977
41877SOL    HW127464   9.926  12.816  10.897
41877SOL    HW227465   9.925  12.839  11.046
41878SOL     OW27466   3.139  12.496   6.146
41878SOL    HW127467   3.203  12.559   6.181
41878SOL    HW227468   3.187  12.449   6.077
41879SOL     OW27469   0.293   7.684   7.066
41879SOL    HW127470   0.210   7.637   7.058
41879SOL    HW227471   0.267   7.775   7.081
41880SOL     OW27472  10.957   7.424  14.801
41880SOL    HW127473  10.899   7.421  14.877
41880SOL    HW227474  11.036   7.378  14.828
41881SOL     OW27475   0.011   7.526   7.712
41881SOL    HW127476  14.819   7.488   7.763
41881SOL    HW227477   0.019   7.468   7.636
41882SOL     OW27478  12.273   7.561   0.287
41882SOL    HW127479  12.264   7.525   0.199
41882SOL    HW227480  12.354   7.524   0.321
41883SOL     OW27481   6.917  10.430   3.808
41883SOL    HW127482   6.934  10.336   3.798
41883SOL    HW227483   6.992  10.473   3.766
41884SOL     OW27484   6.832  12.924   1.050
41884SOL    HW127485   6.842  12.870   0.972
41884SOL    HW227486   6.857  12.866   1.122
41885SOL     OW27487   0.688   5.998   3.807
41885SOL    HW127488   0.659   5.981   3.718
41885SOL    HW227489   0.745   6.075   3.800
41886SOL     OW27490   8.669  14.437  13.994
41886SOL    HW127491   8.704  14.521  13.964
41886SOL    HW227492   8.741  14.375  13.984
41887SOL     OW27493  10.015   8.729   3.636
41887SOL    HW127494   9.932   8.684   3.654
41887SOL    HW227495   9.989   8.821   3.625
41888SOL     OW27496   2.635   8.300  11.885
41888SOL    HW127497   2.553   8.257  11.864
41888SOL    HW227498   2.672   8.326  11.801
41889SOL     OW27499   1.380   5.563  10.826
41889SOL    HW127500   1.437   5.496  10.789
41889SOL    HW227501   1.419   5.583  10.911
41890SOL     OW27502   4.675   3.465   7.871
41890SOL    HW127503   4.748   3.470   7.810
41890SOL    HW227504   4.618   3.397   7.835
41891SOL     OW27505   2.019  14.176   1.854
41891SOL    HW127506   2.026  14.092   1.898
41891SOL    HW227507   1.930  14.207   1.873
41892SOL     OW27508  10.011   9.697   7.423
41892SOL    HW127509   9.948   9.752   7.469
41892SOL    HW227510   9.961   9.620   7.397
41893SOL     OW27511  10.123  10.089  11.642
41893SOL    HW127512  10.096  10.169  11.596
41893SOL    HW227513  10.052  10.027  11.629
41894SOL     OW27514   8.741   1.666   3.008
41894SOL    HW127515   8.692   1.592   3.044
41894SOL    HW227516   8.701   1.683   2.923
41895SOL     OW27517  10.141   6.343   3.688
41895SOL    HW127518  10.170   6.340   3.778
41895SOL    HW227519  10.170   6.429   3.656
41896SOL     OW27520   4.435  14.567   5.192
41896SOL    HW127521   4.469  14.652   5.165
41896SOL    HW227522   4.369  14.545   5.126
41897SOL     OW27523  10.717   8.760  11.345
41897SOL    HW127524  10.803   8.776  11.306
41897SOL    HW227525  10.725   8.673  11.385
41898SOL     OW27526   9.351   8.268  13.669
41898SOL    HW127527   9.433   8.251  13.623
41898SOL    HW227528   9.295   8.310  13.603
41899SOL     OW27529   9.887   7.285   5.146
41899SOL    HW127530   9.825   7.338   5.095
41899SOL    HW227531   9.873   7.196   5.116
41900SOL     OW27532   4.260   4.069   6.954
41900SOL    HW127533   4.313   3.999   6.915
41900SOL    HW227534   4.170   4.048   6.926
41901SOL     OW27535   2.321   3.660   9.634
41901SOL    HW127536   2.329   3.628   9.544
41901SOL    HW227537   2.281   3.746   9.625
41902SOL     OW27538   7.247   1.879  12.805
41902SOL    HW127539   7.207   1.941  12.743
41902SOL    HW227540   7.216   1.907  12.891
41903SOL     OW27541   5.902   6.714  13.860
41903SOL    HW127542   5.832   6.672  13.812
41903SOL    HW227543   5.954   6.759  13.794
41904SOL     OW27544  13.285   1.515  13.861
41904SOL    HW127545  13.377   1.507  13.834
41904SOL    HW227546  13.257   1.599  13.826
41905SOL     OW27547  13.456   2.676  13.893
41905SOL    HW127548  13.539   2.633  13.874
41905SOL    HW227549  13.398   2.606  13.923
41906SOL     OW27550  11.635   8.893   2.515
41906SOL    HW127551  11.674   8.811   2.543
41906SOL    HW227552  11.548   8.869   2.483
41907SOL     OW27553  10.616  11.792   3.465
41907SOL    HW127554  10.664  11.729   3.411
41907SOL    HW227555  10.528  11.755   3.471
41908SOL     OW27556   5.539   0.142   5.836
41908SOL    HW127557   5.551   0.151   5.742
41908SOL    HW227558   5.486   0.062   5.846
41909SOL     OW27559  14.031  10.705  12.185
41909SOL    HW127560  14.111  10.695  12.236
41909SOL    HW227561  14.062  10.712  12.094
41910SOL     OW27562   6.415  14.790   4.826
41910SOL    HW127563   6.469  14.712   4.813
41910SOL    HW227564   6.397  14.792   4.920
41911SOL     OW27565   6.224   1.212   7.442
41911SOL    HW127566   6.153   1.151   7.463
41911SOL    HW227567   6.300   1.156   7.428
41912SOL     OW27568  14.215   1.046   4.125
41912SOL    HW127569  14.244   0.971   4.176
41912SOL    HW227570  14.147   1.012   4.068
41913SOL     OW27571   5.764   9.851   1.979
41913SOL    HW127572   5.803   9.899   2.052
41913SOL    HW227573   5.834   9.796   1.946
41914SOL     OW27574   7.006   2.229   4.047
41914SOL    HW127575   7.038   2.182   4.124
41914SOL    HW227576   7.004   2.321   4.074
41915SOL     OW27577   0.147   0.647  14.706
41915SOL    HW127578   0.095   0.717  14.667
41915SOL    HW227579   0.219   0.692  14.750
41916SOL     OW27580  10.642   3.670   0.600
41916SOL    HW127581  10.623   3.608   0.530
41916SOL    HW227582  10.677   3.616   0.671
41917SOL     OW27583  14.050   9.334  11.031
41917SOL    HW127584  13.965   9.377  11.023
41917SOL    HW227585  14.032   9.241  11.021
41918SOL     OW27586  13.469  13.169   9.446
41918SOL    HW127587  13.429  13.083   9.450
41918SOL    HW227588  13.467  13.202   9.536
41919SOL     OW27589   2.608  10.900  12.483
41919SOL    HW127590   2.581  10.958  12.555
41919SOL    HW227591   2.535  10.902  12.422
41920SOL     OW27592   3.003   6.158  12.523
41920SOL    HW127593   2.988   6.092  12.456
41920SOL    HW227594   2.943   6.134  12.594
41921SOL     OW27595  13.322   7.429   5.268
41921SOL    HW127596  13.357   7.395   5.350
41921SOL    HW227597  13.315   7.524   5.282
41922SOL     OW27598   6.336   2.014   6.402
41922SOL    HW127599   6.371   1.926   6.416
41922SOL    HW227600   6.318   2.047   6.489
41923SOL     OW27601   1.993  12.603   7.026
41923SOL    HW127602   2.008  12.584   7.119
41923SOL    HW227603   1.955  12.690   7.025
41924SOL     OW27604   8.189  11.288   6.929
41924SOL    HW127605   8.165  11.288   6.836
41924SOL    HW227606   8.162  11.201   6.960
41925SOL     OW27607   5.763   4.998  12.395
41925SOL    HW127608   5.669   4.991  12.412
41925SOL    HW227609   5.802   5.017  12.480
41926SOL     OW27610  13.645   8.613   5.511
41926SOL    HW127611  13.635   8.563   5.430
41926SOL    HW227612  13.615   8.701   5.490
41927SOL     OW27613   3.295  11.859   2.495
41927SOL    HW127614   3.274  11.868   2.402
41927SOL    HW227615   3.390  11.863   2.498
41928SOL     OW27616   6.765   1.964  14.727
41928SOL    HW127617   6.709   1.996  14.797
41928SOL    HW227618   6.705   1.919  14.667
41929SOL     OW27619  11.048   3.311   2.018
41929SOL    HW127620  11.106   3.326   1.943
41929SOL    HW227621  10.961   3.300   1.980
41930SOL     OW27622   9.658   0.419  12.305
41930SOL    HW127623   9.627   0.378  12.224
41930SOL    HW227624   9.601   0.495  12.316
41931SOL     OW27625  12.603  11.480   5.628
41931SOL    HW127626  12.660  11.523   5.565
41931SOL    HW227627  12.596  11.542   5.701
41932SOL     OW27628   1.147  10.544   7.995
41932SOL    HW127629   1.058  10.545   7.960
41932SOL    HW227630   1.152  10.623   8.048
41933SOL     OW27631   5.592  12.643   8.809
41933SOL    HW127632   5.551  12.563   8.778
41933SOL    HW227633   5.582  12.705   8.736
41934SOL     OW27634   2.827   5.249   0.595
41934SOL    HW127635   2.762   5.202   0.648
41934SOL    HW227636   2.910   5.205   0.614
41935SOL     OW27637  13.805   8.280   1.799
41935SOL    HW127638  13.753   8.254   1.723
41935SOL    HW227639  13.846   8.362   1.774
41936SOL     OW27640   5.744  10.080   5.917
41936SOL    HW127641   5.828  10.110   5.882
41936SOL    HW227642   5.714  10.013   5.855
41937SOL     OW27643  10.352   5.759   6.905
41937SOL    HW127644  10.433   5.738   6.858
41937SOL    HW227645  10.351   5.855   6.908
41938SOL     OW27646   7.092  11.411  14.046
41938SOL    HW127647   7.094  11.403  13.951
41938SOL    HW227648   7.136  11.332  14.078
41939SOL     OW27649   6.560  12.508   5.864
41939SOL    HW127650   6.563  12.414   5.882
41939SOL    HW227651   6.482  12.519   5.811
41940SOL     OW27652   6.490   0.533   6.505
41940SOL    HW127653   6.469   0.517   6.597
41940SOL    HW227654   6.414   0.500   6.457
41941SOL     OW27655  10.118  13.223   4.622
41941SOL    HW127656  10.076  13.308   4.610
41941SOL    HW227657  10.044  13.162   4.634
41942SOL     OW27658   0.726   3.649  10.523
41942SOL    HW127659   0.672   3.613  10.594
41942SOL    HW227660   0.733   3.742  10.544
41943SOL     OW27661  13.841  11.483  10.253
41943SOL    HW127662  13.820  11.457  10.343
41943SOL    HW227663  13.778  11.436  10.199
41944SOL     OW27664   1.872  11.093   6.419
41944SOL    HW127665   1.901  11.169   6.469
41944SOL    HW227666   1.798  11.125   6.367
41945SOL     OW27667   5.783   9.717  12.273
41945SOL    HW127668   5.856   9.718  12.211
41945SOL    HW227669   5.726   9.646  12.243
41946SOL     OW27670   9.509   2.440   8.626
41946SOL    HW127671   9.502   2.535   8.637
41946SOL    HW227672   9.421   2.413   8.601
41947SOL     OW27673   8.252  11.111   8.401
41947SOL    HW127674   8.336  11.140   8.436
41947SOL    HW227675   8.187  11.158   8.454
41948SOL     OW27676  10.691   0.588   9.403
41948SOL    HW127677  10.663   0.497   9.401
41948SOL    HW227678  10.614   0.637   9.375
41949SOL     OW27679  14.724   0.167  12.113
41949SOL    HW127680  14.751   0.087  12.069
41949SOL    HW227681  14.629   0.167  12.109
41950SOL     OW27682   9.977   3.172   5.040
41950SOL    HW127683   9.995   3.100   5.100
41950SOL    HW227684  10.031   3.153   4.963
41951SOL     OW27685   6.158   9.218  12.888
41951SOL    HW127686   6.188   9.265  12.810
41951SOL    HW227687   6.217   9.246  12.957
41952SOL     OW27688   7.435  12.756   9.934
41952SOL    HW127689   7.460  12.846   9.955
41952SOL    HW227690   7.511  12.721   9.886
41953SOL     OW27691   5.162   2.638   5.567
41953SOL    HW127692   5.197   2.566   5.515
41953SOL    HW227693   5.161   2.604   5.657
41954SOL     OW27694   2.943  13.040  12.201
41954SOL    HW127695   2.852  13.030  12.230
41954SOL    HW227696   2.952  13.133  12.181
41955SOL     OW27697  10.848  12.018   0.559
41955SOL    HW127698  10.932  12.041   0.520
41955SOL    HW227699  10.848  11.922   0.562
41956SOL     OW27700   5.275   6.114   6.724
41956SOL    HW127701   5.336   6.064   6.670
41956SOL    HW227702   5.331   6.158   6.789
41957SOL     OW27703   4.864   0.390   6.084
41957SOL    HW127704   4.915   0.320   6.044
41957SOL    HW227705   4.808   0.422   6.014
41958SOL     OW27706   6.608   9.115  14.542
41958SOL    HW127707   6.532   9.159  14.505
41958SOL    HW227708   6.588   9.108  14.636
41959SOL     OW27709  12.088  12.127  14.405
41959SOL    HW127710  12.094  12.083  14.490
41959SOL    HW227711  12.166  12.181  14.401
41960SOL     OW27712   7.040  12.430   3.655
41960SOL    HW127713   6.950  12.460   3.647
41960SOL    HW227714   7.061  12.441   3.747
41961SOL     OW27715  11.571   3.401  11.410
41961SOL    HW127716  11.547   3.402  11.503
41961SOL    HW227717  11.499   3.355  11.367
41962SOL     OW27718   8.928  12.933   4.212
41962SOL    HW127719   8.894  12.920   4.124
41962SOL    HW227720   8.994  12.864   4.223
41963SOL     OW27721   3.654   0.052   1.163
41963SOL    HW127722   3.655   0.081   1.072
41963SOL    HW227723   3.729   0.095   1.203
41964SOL     OW27724   8.267   0.303   8.514
41964SOL    HW127725   8.293   0.216   8.484
41964SOL    HW227726   8.334   0.327   8.578
41965SOL     OW27727   4.356  14.582  10.255
41965SOL    HW127728   4.367  14.509  10.195
41965SOL    HW227729   4.304  14.646  10.206
41966SOL     OW27730   9.577  14.313  13.096
41966SOL    HW127731   9.552  14.402  13.071
41966SOL    HW227732   9.498  14.276  13.135
41967SOL     OW27733  13.556  11.832  12.247
41967SOL    HW127734  13.593  11.751  12.214
41967SOL    HW227735  13.575  11.832  12.341
41968SOL     OW27736  10.634   6.922   1.890
41968SOL    HW127737  10.622   7.016   1.907
41968SOL    HW227738  10.714   6.919   1.837
41969SOL     OW27739   2.548   7.835  10.667
41969SOL    HW127740   2.495   7.768  10.624
41969SOL    HW227741   2.638   7.813  10.644
41970SOL     OW27742  13.783   1.004   8.884
41970SOL    HW127743  13.732   0.954   8.948
41970SOL    HW227744  13.728   1.079   8.864
41971SOL     OW27745   2.642   3.026  12.660
41971SOL    HW127746   2.695   2.972  12.719
41971SOL    HW227747   2.652   3.115  12.694
41972SOL     OW27748   6.093   1.565  13.975
41972SOL    HW127749   6.162   1.553  13.909
41972SOL    HW227750   6.125   1.638  14.028
41973SOL     OW27751   3.304   7.590   4.374
41973SOL    HW127752   3.293   7.517   4.435
41973SOL    HW227753   3.236   7.653   4.398
41974SOL     OW27754   2.113   6.495   9.667
41974SOL    HW127755   2.097   6.586   9.644
41974SOL    HW227756   2.111   6.448   9.583
41975SOL     OW27757   8.643  12.120  12.970
41975SOL    HW127758   8.616  12.168  12.892
41975SOL    HW227759   8.581  12.149  13.038
41976SOL     OW27760   0.050   6.640   1.457
41976SOL    HW127761   0.046   6.707   1.389
41976SOL    HW227762  14.837   6.621   1.477
41977SOL     OW27763   0.839   6.376   9.574
41977SOL    HW127764   0.764   6.322   9.551
41977SOL    HW227765   0.887   6.325   9.639
41978SOL     OW27766   8.123  12.750   1.071
41978SOL    HW127767   8.205  12.710   1.041
41978SOL    HW227768   8.069  12.676   1.100
41979SOL     OW27769   0.364  12.187   1.119
41979SOL    HW127770   0.299  12.257   1.120
41979SOL    HW227771   0.435  12.219   1.176
41980SOL     OW27772  12.739   9.814   5.772
41980SOL    HW127773  12.679   9.777   5.837
41980SOL    HW227774  12.746   9.907   5.795
41981SOL     OW27775  14.510  11.741   1.649
41981SOL    HW127776  14.443  11.691   1.603
41981SOL    HW227777  14.572  11.674   1.680
41982SOL     OW27778   9.304   4.006   8.796
41982SOL    HW127779   9.312   3.961   8.880
41982SOL    HW227780   9.221   4.054   8.802
41983SOL     OW27781  11.703  13.463  10.275
41983SOL    HW127782  11.794  13.483  10.255
41983SOL    HW227783  11.702  13.369  10.292
41984SOL     OW27784   3.389   0.057  10.894
41984SOL    HW127785   3.408   0.130  10.952
41984SOL    HW227786   3.407   0.091  10.806
41985SOL     OW27787   1.350   7.562   2.654
41985SOL    HW127788   1.433   7.608   2.645
41985SOL    HW227789   1.321   7.546   2.564
41986SOL     OW27790   3.479   2.533  14.436
41986SOL    HW127791   3.524   2.479  14.500
41986SOL    HW227792   3.394   2.492  14.425
41987SOL     OW27793  10.713   9.311  14.044
41987SOL    HW127794  10.770   9.244  14.005
41987SOL    HW227795  10.632   9.263  14.065
41988SOL     OW27796   7.503   5.270   1.879
41988SOL    HW127797   7.508   5.178   1.902
41988SOL    HW227798   7.412   5.294   1.892
41989SOL     OW27799  10.218  14.265   3.751
41989SOL    HW127800  10.277  14.191   3.737
41989SOL    HW227801  10.249  14.306   3.831
41990SOL     OW27802  11.975  12.613   1.179
41990SOL    HW127803  11.902  12.615   1.117
41990SOL    HW227804  11.987  12.704   1.206
41991SOL     OW27805   1.711  11.814  12.975
41991SOL    HW127806   1.738  11.741  12.920
41991SOL    HW227807   1.793  11.847  13.012
41992SOL     OW27808   5.751   2.800   4.616
41992SOL    HW127809   5.748   2.822   4.709
41992SOL    HW227810   5.697   2.868   4.574
41993SOL     OW27811  11.893   9.710  10.575
41993SOL    HW127812  11.973   9.759  10.555
41993SOL    HW227813  11.870   9.668  10.492
41994SOL     OW27814   9.597   4.672   7.698
41994SOL    HW127815   9.673   4.615   7.685
41994SOL    HW227816   9.526   4.612   7.723
41995SOL     OW27817  11.759  10.585   2.692
41995SOL    HW127818  11.669  10.615   2.679
41995SOL    HW227819  11.813  10.651   2.648
41996SOL     OW27820  10.007   0.647  11.304
41996SOL    HW127821  10.084   0.703  11.303
41996SOL    HW227822   9.978   0.645  11.213
41997SOL     OW27823  11.885  10.288   8.748
41997SOL    HW127824  11.836  10.317   8.825
41997SOL    HW227825  11.969  10.258   8.783
41998SOL     OW27826   4.891   2.399   1.806
41998SOL    HW127827   4.856   2.403   1.895
41998SOL    HW227828   4.823   2.355   1.755
41999SOL     OW27829   5.203   8.856   0.005
41999SOL    HW127830   5.221   8.942  14.846
41999SOL    HW227831   5.190   8.798  14.810
42000SOL     OW27832   3.804   3.117   7.554
42000SOL    HW127833   3.846   3.078   7.477
42000SOL    HW227834   3.842   3.205   7.561
42001SOL     OW27835  10.572   3.871   1.933
42001SOL    HW127836  10.634   3.826   1.990
42001SOL    HW227837  10.511   3.802   1.906
42002SOL     OW27838   4.981   8.477   6.255
42002SOL    HW127839   4.914   8.462   6.188
42002SOL    HW227840   5.063   8.456   6.212
42003SOL     OW27841   0.882  11.148  14.447
42003SOL    HW127842   0.850  11.120  14.533
42003SOL    HW227843   0.977  11.142  14.453
42004SOL     OW27844   7.829  13.911   4.622
42004SOL    HW127845   7.809  13.825   4.585
42004SOL    HW227846   7.745  13.945   4.652
42005SOL     OW27847   6.601  14.494  13.960
42005SOL    HW127848   6.513  14.498  13.997
42005SOL    HW227849   6.587  14.482  13.866
42006SOL     OW27850   4.291   4.649   0.940
42006SOL    HW127851   4.376   4.687   0.918
42006SOL    HW227852   4.230   4.690   0.879
42007SOL     OW27853  12.367   0.843  12.084
42007SOL    HW127854  12.360   0.936  12.059
42007SOL    HW227855  12.461   0.825  12.085
42008SOL     OW27856   9.137  13.965   0.306
42008SOL    HW127857   9.160  13.944   0.397
42008SOL    HW227858   9.056  14.016   0.313
42009SOL     OW27859   4.823  10.857   7.105
42009SOL    HW127860   4.899  10.910   7.128
42009SOL    HW227861   4.753  10.889   7.164
42010SOL     OW27862   5.990   8.413  14.313
42010SOL    HW127863   5.970   8.469  14.388
42010SOL    HW227864   5.917   8.425  14.253
42011SOL     OW27865   7.992   1.393   7.845
42011SOL    HW127866   7.925   1.353   7.789
42011SOL    HW227867   8.070   1.341   7.829
42012SOL     OW27868   6.771   4.217   6.540
42012SOL    HW127869   6.742   4.156   6.608
42012SOL    HW227870   6.699   4.217   6.477
42013SOL     OW27871   8.281   0.153   1.539
42013SOL    HW127872   8.230   0.073   1.532
42013SOL    HW227873   8.266   0.183   1.629
42014SOL     OW27874   5.485   7.758   0.928
42014SOL    HW127875   5.504   7.841   0.884
42014SOL    HW227876   5.500   7.776   1.021
42015SOL     OW27877   0.537   1.833   4.107
42015SOL    HW127878   0.620   1.787   4.100
42015SOL    HW227879   0.548   1.893   4.181
42016SOL     OW27880   3.253   2.865  12.234
42016SOL    HW127881   3.334   2.899  12.197
42016SOL    HW227882   3.184   2.904  12.180
42017SOL     OW27883  12.114   7.976   4.694
42017SOL    HW127884  12.133   7.945   4.783
42017SOL    HW227885  12.134   8.070   4.697
42018SOL     OW27886  12.981  11.049   6.749
42018SOL    HW127887  12.980  11.049   6.653
42018SOL    HW227888  13.040  10.977   6.772
42019SOL     OW27889   7.831  13.510  10.310
42019SOL    HW127890   7.737  13.517  10.295
42019SOL    HW227891   7.866  13.483  10.225
42020SOL     OW27892  14.087  11.392   4.059
42020SOL    HW127893  14.094  11.473   4.008
42020SOL    HW227894  14.124  11.325   4.003
42021SOL     OW27895   3.091  10.351  11.054
42021SOL    HW127896   3.054  10.382  10.971
42021SOL    HW227897   3.031  10.384  11.121
42022SOL     OW27898   0.006   2.929   7.936
42022SOL    HW127899   0.045   2.890   8.014
42022SOL    HW227900   0.009   2.860   7.870
42023SOL     OW27901   8.234   3.488   4.739
42023SOL    HW127902   8.176   3.442   4.800
42023SOL    HW227903   8.264   3.420   4.679
42024SOL     OW27904   7.359   8.253   0.198
42024SOL    HW127905   7.368   8.256   0.293
42024SOL    HW227906   7.264   8.249   0.183
42025SOL     OW27907   9.436   8.373   2.355
42025SOL    HW127908   9.439   8.362   2.450
42025SOL    HW227909   9.482   8.456   2.339
42026SOL     OW27910  10.530  13.267   0.872
42026SOL    HW127911  10.597  13.218   0.920
42026SOL    HW227912  10.576  13.343   0.837
42027SOL     OW27913  10.809   5.908   2.406
42027SOL    HW127914  10.830   5.992   2.448
42027SOL    HW227915  10.866   5.845   2.449
42028SOL     OW27916  14.061  14.023  10.433
42028SOL    HW127917  14.073  14.037  10.339
42028SOL    HW227918  14.136  13.971  10.459
42029SOL     OW27919   8.729  14.060  11.935
42029SOL    HW127920   8.675  14.061  12.013
42029SOL    HW227921   8.765  13.971  11.931
42030SOL     OW27922   9.578   5.583   4.493
42030SOL    HW127923   9.557   5.511   4.434
42030SOL    HW227924   9.504   5.643   4.483
42031SOL     OW27925   9.488   4.211   8.059
42031SOL    HW127926   9.497   4.149   7.987
42031SOL    HW227927   9.437   4.164   8.125
42032SOL     OW27928   5.462   5.395  13.143
42032SOL    HW127929   5.545   5.351  13.128
42032SOL    HW227930   5.486   5.477  13.187
42033SOL     OW27931   1.889  12.311  13.869
42033SOL    HW127932   1.969  12.269  13.839
42033SOL    HW227933   1.917  12.396  13.903
42034SOL     OW27934  14.581  10.808   4.312
42034SOL    HW127935  14.655  10.778   4.365
42034SOL    HW227936  14.536  10.728   4.285
42035SOL     OW27937   8.364  12.242   0.455
42035SOL    HW127938   8.280  12.208   0.485
42035SOL    HW227939   8.383  12.193   0.375
42036SOL     OW27940   7.902   9.840   7.363
42036SOL    HW127941   7.872   9.751   7.383
42036SOL    HW227942   7.995   9.832   7.346
42037SOL     OW27943   7.811  11.071   1.141
42037SOL    HW127944   7.864  11.031   1.072
42037SOL    HW227945   7.725  11.084   1.101
42038SOL     OW27946   4.258  12.688   4.627
42038SOL    HW127947   4.208  12.728   4.556
42038SOL    HW227948   4.192  12.653   4.687
42039SOL     OW27949  14.369  13.806   0.015
42039SOL    HW127950  14.435  13.841   0.074
42039SOL    HW227951  14.388  13.847  14.809
42040SOL     OW27952   9.909   0.924   3.554
42040SOL    HW127953   9.995   0.883   3.560
42040SOL    HW227954   9.928   1.018   3.544
42041SOL     OW27955   2.888   1.552   7.562
42041SOL    HW127956   2.803   1.555   7.518
42041SOL    HW227957   2.927   1.638   7.544
42042SOL     OW27958   8.353  11.283  12.989
42042SOL    HW127959   8.355  11.188  12.973
42042SOL    HW227960   8.348  11.292  13.084
42043SOL     OW27961   9.812  14.423   5.933
42043SOL    HW127962   9.824  14.438   5.839
42043SOL    HW227963   9.723  14.388   5.940
42044SOL     OW27964   0.091  11.556   7.195
42044SOL    HW127965   0.016  11.516   7.240
42044SOL    HW227966   0.168  11.519   7.238
42045SOL     OW27967  12.243  13.640   5.580
42045SOL    HW127968  12.213  13.717   5.628
42045SOL    HW227969  12.338  13.643   5.585
42046SOL     OW27970   5.483   6.970  13.216
42046SOL    HW127971   5.456   6.881  13.236
42046SOL    HW227972   5.402   7.021  13.217
42047SOL     OW27973  10.741  14.824   9.350
42047SOL    HW127974  10.828  14.862   9.334
42047SOL    HW227975  10.744  14.738   9.309
42048SOL     OW27976   3.129   7.402  10.823
42048SOL    HW127977   3.100   7.494  10.823
42048SOL    HW227978   3.215   7.404  10.864
42049SOL     OW27979  13.527   3.759  10.924
42049SOL    HW127980  13.573   3.774  10.842
42049SOL    HW227981  13.524   3.845  10.966
42050SOL     OW27982   4.356  11.282  14.819
42050SOL    HW127983   4.342  11.299   0.033
42050SOL    HW227984   4.339  11.188  14.809
42051SOL     OW27985   6.616   8.332   8.353
42051SOL    HW127986   6.564   8.400   8.309
42051SOL    HW227987   6.570   8.250   8.332
42052SOL     OW27988  11.504   9.283  13.509
42052SOL    HW127989  11.504   9.374  13.540
42052SOL    HW227990  11.446   9.237  13.571
42053SOL     OW27991   4.740   5.135   1.382
42053SOL    HW127992   4.782   5.109   1.300
42053SOL    HW227993   4.712   5.226   1.367
42054SOL     OW27994   8.168   0.112   6.990
42054SOL    HW127995   8.105   0.040   6.996
42054SOL    HW227996   8.180   0.141   7.081
42055SOL     OW27997   2.062   4.415   9.135
42055SOL    HW127998   2.072   4.339   9.078
42055SOL    HW227999   2.150   4.452   9.142
42056SOL     OW28000   3.881  11.614   6.116
42056SOL    HW128001   3.878  11.586   6.208
42056SOL    HW228002   3.952  11.562   6.078
42057SOL     OW28003  10.491  14.614   7.445
42057SOL    HW128004  10.421  14.580   7.390
42057SOL    HW228005  10.569  14.611   7.389
42058SOL     OW28006   1.795  12.292   0.786
42058SOL    HW128007   1.860  12.294   0.716
42058SOL    HW228008   1.840  12.250   0.860
42059SOL     OW28009  11.044   1.198  14.805
42059SOL    HW128010  11.096   1.273  14.833
42059SOL    HW228011  10.963   1.236  14.770
42060SOL     OW28012   7.186   2.689  12.062
42060SOL    HW128013   7.218   2.700  12.152
42060SOL    HW228014   7.147   2.774  12.040
42061SOL     OW28015  11.201  10.309   2.412
42061SOL    HW128016  11.128  10.276   2.464
42061SOL    HW228017  11.200  10.255   2.333
42062SOL     OW28018   8.130   2.449   2.460
42062SOL    HW128019   8.222   2.431   2.477
42062SOL    HW228020   8.099   2.493   2.539
42063SOL     OW28021   7.026  12.418   4.375
42063SOL    HW128022   6.964  12.437   4.304
42063SOL    HW228023   7.108  12.460   4.347
42064SOL     OW28024   9.915   4.329  14.306
42064SOL    HW128025   9.926   4.412  14.261
42064SOL    HW228026  10.001   4.311  14.344
42065SOL     OW28027   6.179  10.814   8.534
42065SOL    HW128028   6.206  10.863   8.611
42065SOL    HW228029   6.086  10.834   8.525
42066SOL     OW28030   7.786   1.359   3.630
42066SOL    HW128031   7.826   1.375   3.716
42066SOL    HW228032   7.853   1.385   3.568
42067SOL     OW28033   3.266   0.749   8.383
42067SOL    HW128034   3.171   0.743   8.394
42067SOL    HW228035   3.279   0.825   8.326
42068SOL     OW28036  11.070   6.021   2.056
42068SOL    HW128037  11.029   5.938   2.032
42068SOL    HW228038  11.112   6.004   2.140
42069SOL     OW28039   0.325  10.830  13.029
42069SOL    HW128040   0.350  10.746  13.066
42069SOL    HW228041   0.382  10.894  13.072
42070SOL     OW28042  12.864   0.324   2.805
42070SOL    HW128043  12.782   0.309   2.758
42070SOL    HW228044  12.859   0.415   2.833
42071SOL     OW28045   6.086  10.124   9.272
42071SOL    HW128046   6.102  10.159   9.360
42071SOL    HW228047   5.991  10.129   9.261
42072SOL     OW28048  10.254   6.560  12.102
42072SOL    HW128049  10.324   6.606  12.056
42072SOL    HW228050  10.274   6.573  12.195
42073SOL     OW28051   2.783   2.593   9.423
42073SOL    HW128052   2.832   2.566   9.346
42073SOL    HW228053   2.699   2.548   9.415
42074SOL     OW28054   3.892  10.857  10.966
42074SOL    HW128055   3.959  10.924  10.951
42074SOL    HW228056   3.900  10.797  10.891
42075SOL     OW28057   2.131   6.989  11.787
42075SOL    HW128058   2.109   6.959  11.875
42075SOL    HW228059   2.181   7.070  11.801
42076SOL     OW28060  10.079  12.191   6.408
42076SOL    HW128061  10.092  12.109   6.361
42076SOL    HW228062  10.157  12.243   6.389
42077SOL     OW28063   8.733  13.427  12.923
42077SOL    HW128064   8.751  13.451  13.013
42077SOL    HW228065   8.691  13.341  12.929
42078SOL     OW28066   6.135   7.211   1.265
42078SOL    HW128067   6.094   7.293   1.240
42078SOL    HW228068   6.229   7.226   1.255
42079SOL     OW28069  12.607  14.405   4.234
42079SOL    HW128070  12.533  14.367   4.187
42079SOL    HW228071  12.570  14.435   4.317
42080SOL     OW28072   0.383  12.662  13.903
42080SOL    HW128073   0.393  12.625  13.991
42080SOL    HW228074   0.348  12.590  13.850
42081SOL     OW28075   6.818   9.499   6.873
42081SOL    HW128076   6.758   9.456   6.813
42081SOL    HW228077   6.832   9.435   6.943
42082SOL     OW28078  11.281   5.178   0.512
42082SOL    HW128079  11.354   5.193   0.572
42082SOL    HW228080  11.228   5.258   0.518
42083SOL     OW28081   4.963   4.202   8.050
42083SOL    HW128082   5.049   4.181   8.087
42083SOL    HW228083   4.902   4.145   8.098
42084SOL     OW28084   0.927   7.119   2.117
42084SOL    HW128085   0.870   7.077   2.052
42084SOL    HW228086   0.876   7.119   2.198
42085SOL     OW28087  10.504   7.244   2.956
42085SOL    HW128088  10.509   7.273   3.048
42085SOL    HW228089  10.571   7.176   2.949
42086SOL     OW28090  11.481  11.265  13.464
42086SOL    HW128091  11.528  11.203  13.408
42086SOL    HW228092  11.508  11.351  13.434
42087SOL     OW28093   2.628   8.061   0.481
42087SOL    HW128094   2.630   7.980   0.431
42087SOL    HW228095   2.551   8.052   0.538
42088SOL     OW28096   2.669   0.881   0.223
42088SOL    HW128097   2.690   0.885   0.129
42088SOL    HW228098   2.574   0.867   0.225
42089SOL     OW28099   1.924  10.318   1.446
42089SOL    HW128100   1.878  10.248   1.400
42089SOL    HW228101   2.014  10.286   1.454
42090SOL     OW28102   5.936   8.387  10.331
42090SOL    HW128103   5.886   8.464  10.303
42090SOL    HW228104   5.994   8.368  10.258
42091SOL     OW28105   4.892  10.045   6.578
42091SOL    HW128106   4.870  10.138   6.580
42091SOL    HW228107   4.987  10.044   6.561
42092SOL     OW28108  14.218   6.298  13.187
42092SOL    HW128109  14.224   6.206  13.159
42092SOL    HW228110  14.131   6.306  13.225
42093SOL     OW28111   5.045   2.405   7.908
42093SOL    HW128112   5.011   2.493   7.922
42093SOL    HW228113   4.996   2.350   7.969
42094SOL     OW28114  10.179   4.527   4.343
42094SOL    HW128115  10.111   4.490   4.286
42094SOL    HW228116  10.174   4.622   4.327
42095SOL     OW28117  13.556   5.136   8.296
42095SOL    HW128118  13.615   5.106   8.227
42095SOL    HW228119  13.583   5.087   8.373
42096SOL     OW28120   6.105   7.640   4.296
42096SOL    HW128121   6.128   7.591   4.218
42096SOL    HW228122   6.051   7.713   4.265
42097SOL     OW28123   9.002   4.948   4.485
42097SOL    HW128124   9.045   5.033   4.493
42097SOL    HW228125   9.067   4.892   4.442
42098SOL     OW28126  11.430   3.180  10.088
42098SOL    HW128127  11.442   3.233  10.009
42098SOL    HW228128  11.504   3.119  10.087
42099SOL     OW28129  10.588  14.803  13.535
42099SOL    HW128130  10.595  14.779  13.627
42099SOL    HW228131  10.501  14.773  13.509
42100SOL     OW28132  12.275   9.426   5.043
42100SOL    HW128133  12.328   9.353   5.011
42100SOL    HW228134  12.187   9.409   5.009
42101SOL     OW28135   7.886  10.366  10.380
42101SOL    HW128136   7.826  10.395  10.311
42101SOL    HW228137   7.842  10.391  10.461
42102SOL     OW28138   5.332   9.143  12.151
42102SOL    HW128139   5.327   9.231  12.188
42102SOL    HW228140   5.241   9.119  12.134
42103SOL     OW28141   0.281  13.845   8.786
42103SOL    HW128142   0.268  13.767   8.732
42103SOL    HW228143   0.221  13.833   8.860
42104SOL     OW28144  10.559  14.692  10.432
42104SOL    HW128145  10.566  14.605  10.393
42104SOL    HW228146  10.597  14.751  10.368
42105SOL     OW28147   7.885   5.322   2.588
42105SOL    HW128148   7.818   5.256   2.572
42105SOL    HW228149   7.926   5.336   2.503
42106SOL     OW28150  14.120   0.510   2.109
42106SOL    HW128151  14.032   0.544   2.090
42106SOL    HW228152  14.139   0.540   2.198
42107SOL     OW28153   6.073  12.242  10.711
42107SOL    HW128154   6.094  12.292  10.632
42107SOL    HW228155   6.034  12.306  10.771
42108SOL     OW28156  12.660  14.257   1.520
42108SOL    HW128157  12.685  14.319   1.450
42108SOL    HW228158  12.743  14.236   1.563
42109SOL     OW28159  13.407  11.642  10.733
42109SOL    HW128160  13.347  11.636  10.807
42109SOL    HW228161  13.369  11.709  10.676
42110SOL     OW28162   2.815   6.222  14.062
42110SOL    HW128163   2.810   6.267  13.977
42110SOL    HW228164   2.875   6.275  14.114
42111SOL     OW28165   4.606  10.005  13.689
42111SOL    HW128166   4.531   9.994  13.747
42111SOL    HW228167   4.578   9.967  13.606
42112SOL     OW28168   5.528  10.137   7.492
42112SOL    HW128169   5.609  10.090   7.509
42112SOL    HW228170   5.510  10.184   7.574
42113SOL     OW28171  13.613   5.394  10.625
42113SOL    HW128172  13.568   5.312  10.604
42113SOL    HW228173  13.702   5.368  10.647
42114SOL     OW28174   1.678   4.606  12.901
42114SOL    HW128175   1.653   4.544  12.832
42114SOL    HW228176   1.729   4.673  12.856
42115SOL     OW28177   9.943   5.538   2.511
42115SOL    HW128178   9.936   5.497   2.424
42115SOL    HW228179  10.037   5.535   2.530
42116SOL     OW28180  10.571   5.248   5.129
42116SOL    HW128181  10.584   5.154   5.116
42116SOL    HW228182  10.641   5.274   5.189
42117SOL     OW28183  13.834   3.523  10.972
42117SOL    HW128184  13.885   3.457  10.926
42117SOL    HW228185  13.746   3.484  10.980
42118SOL     OW28186   0.145   1.257  12.352
42118SOL    HW128187   0.233   1.294  12.340
42118SOL    HW228188   0.102   1.317  12.413
42119SOL     OW28189   1.264   4.312   3.202
42119SOL    HW128190   1.208   4.298   3.126
42119SOL    HW228191   1.347   4.344   3.166
42120SOL     OW28192   1.043   4.411  13.508
42120SOL    HW128193   1.056   4.423  13.413
42120SOL    HW228194   1.016   4.497  13.539
42121SOL     OW28195   0.342   4.296  11.378
42121SOL    HW128196   0.377   4.231  11.439
42121SOL    HW228197   0.293   4.357  11.433
42122SOL     OW28198   2.780   8.247   8.661
42122SOL    HW128199   2.711   8.202   8.710
42122SOL    HW228200   2.769   8.216   8.571
42123SOL     OW28201  13.984  10.275  12.035
42123SOL    HW128202  14.024  10.320  11.961
42123SOL    HW228203  13.950  10.345  12.091
42124SOL     OW28204   1.966   9.326   2.563
42124SOL    HW128205   2.008   9.363   2.641
42124SOL    HW228206   1.893   9.275   2.598
42125SOL     OW28207  12.894   4.488   7.682
42125SOL    HW128208  12.896   4.575   7.722
42125SOL    HW228209  12.830   4.439   7.735
42126SOL     OW28210   8.485  12.542   6.408
42126SOL    HW128211   8.407  12.510   6.452
42126SOL    HW228212   8.483  12.637   6.422
42127SOL     OW28213  10.429  13.417  11.254
42127SOL    HW128214  10.508  13.371  11.225
42127SOL    HW228215  10.359  13.351  11.249
42128SOL     OW28216   6.216   3.715  11.933
42128SOL    HW128217   6.163   3.788  11.902
42128SOL    HW228218   6.277   3.754  11.996
42129SOL     OW28219   0.877   6.091  14.416
42129SOL    HW128220   0.924   6.174  14.410
42129SOL    HW228221   0.906   6.041  14.340
42130SOL     OW28222  11.192   4.536   7.904
42130SOL    HW128223  11.223   4.508   7.990
42130SOL    HW228224  11.247   4.611   7.882
42131SOL     OW28225   6.754  13.425   3.496
42131SOL    HW128226   6.714  13.445   3.410
42131SOL    HW228227   6.755  13.330   3.500
42132SOL     OW28228  11.667   0.641   0.420
42132SOL    HW128229  11.735   0.694   0.462
42132SOL    HW228230  11.696   0.635   0.328
42133SOL     OW28231   0.977   7.731  14.486
42133SOL    HW128232   0.943   7.654  14.441
42133SOL    HW228233   1.012   7.698  14.569
42134SOL     OW28234  12.761   7.752   6.060
42134SOL    HW128235  12.680   7.775   6.106
42134SOL    HW228236  12.823   7.730   6.130
42135SOL     OW28237   4.812   7.741   6.370
42135SOL    HW128238   4.795   7.657   6.327
42135SOL    HW228239   4.837   7.718   6.459
42136SOL     OW28240  13.071  10.060  11.504
42136SOL    HW128241  13.008   9.988  11.497
42136SOL    HW228242  13.027  10.126  11.556
42137SOL     OW28243   6.648   9.228  11.043
42137SOL    HW128244   6.661   9.160  11.109
42137SOL    HW228245   6.585   9.190  10.982
42138SOL     OW28246  13.571   8.012  12.628
42138SOL    HW128247  13.506   8.075  12.599
42138SOL    HW228248  13.585   8.034  12.720
42139SOL     OW28249   3.900   1.514   1.675
42139SOL    HW128250   3.887   1.545   1.765
42139SOL    HW228251   3.987   1.547   1.651
42140SOL     OW28252  13.589   4.442  11.679
42140SOL    HW128253  13.679   4.444  11.711
42140SOL    HW228254  13.536   4.425  11.757
42141SOL     OW28255   5.714  12.888   0.636
42141SOL    HW128256   5.660  12.958   0.599
42141SOL    HW228257   5.721  12.910   0.729
42142SOL     OW28258   1.646  12.705  10.100
42142SOL    HW128259   1.551  12.714  10.105
42142SOL    HW228260   1.662  12.655  10.020
42143SOL     OW28261  13.738   2.604   7.868
42143SOL    HW128262  13.809   2.660   7.838
42143SOL    HW228263  13.781   2.533   7.916
42144SOL     OW28264  14.317   4.317   6.355
42144SOL    HW128265  14.404   4.349   6.330
42144SOL    HW228266  14.335   4.253   6.424
42145SOL     OW28267   5.511  13.402  14.005
42145SOL    HW128268   5.562  13.452  13.941
42145SOL    HW228269   5.570  13.391  14.079
42146SOL     OW28270   7.522  11.324   1.361
42146SOL    HW128271   7.489  11.241   1.396
42146SOL    HW228272   7.446  11.364   1.319
42147SOL     OW28273   5.679   6.656   4.246
42147SOL    HW128274   5.733   6.624   4.174
42147SOL    HW228275   5.735   6.652   4.323
42148SOL     OW28276   3.272   2.334  13.143
42148SOL    HW128277   3.251   2.369  13.229
42148SOL    HW228278   3.289   2.241  13.158
42149SOL     OW28279   5.254  13.488   3.771
42149SOL    HW128280   5.282  13.494   3.862
42149SOL    HW228281   5.317  13.428   3.731
42150SOL     OW28282   5.772   0.525  13.006
42150SOL    HW128283   5.798   0.581  12.933
42150SOL    HW228284   5.676   0.520  12.999
42151SOL     OW28285   4.077   7.640   6.335
42151SOL    HW128286   4.034   7.571   6.285
42151SOL    HW228287   4.058   7.720   6.286
42152SOL     OW28288   3.051  10.874   0.759
42152SOL    HW128289   3.055  10.919   0.843
42152SOL    HW228290   3.025  10.942   0.697
42153SOL     OW28291  14.276   4.003   0.949
42153SOL    HW128292  14.290   3.957   1.032
42153SOL    HW228293  14.187   4.036   0.955
42154SOL     OW28294   3.875  11.137   3.484
42154SOL    HW128295   3.889  11.051   3.523
42154SOL    HW228296   3.897  11.199   3.554
42155SOL     OW28297   7.666  12.872   3.294
42155SOL    HW128298   7.590  12.859   3.350
42155SOL    HW228299   7.655  12.809   3.223
42156SOL     OW28300  10.263   6.869   7.384
42156SOL    HW128301  10.356   6.858   7.364
42156SOL    HW228302  10.228   6.780   7.383
42157SOL     OW28303  11.806   3.528   8.180
42157SOL    HW128304  11.779   3.447   8.223
42157SOL    HW228305  11.774   3.519   8.090
42158SOL     OW28306  10.442   6.301  12.004
42158SOL    HW128307  10.405   6.279  12.089
42158SOL    HW228308  10.511   6.235  11.990
42159SOL     OW28309   0.076   3.078   0.319
42159SOL    HW128310   0.099   3.125   0.239
42159SOL    HW228311   0.096   3.139   0.389
42160SOL     OW28312  13.606  10.617   7.418
42160SOL    HW128313  13.645  10.541   7.375
42160SOL    HW228314  13.596  10.682   7.349
42161SOL     OW28315   8.446   8.725  10.104
42161SOL    HW128316   8.390   8.752  10.177
42161SOL    HW228317   8.434   8.794  10.038
42162SOL     OW28318   2.439   6.373   5.647
42162SOL    HW128319   2.437   6.286   5.608
42162SOL    HW228320   2.464   6.431   5.575
42163SOL     OW28321   9.018   6.934   0.079
42163SOL    HW128322   8.972   6.857   0.046
42163SOL    HW228323   9.066   6.967   0.003
42164SOL     OW28324   2.652  13.314   4.051
42164SOL    HW128325   2.683  13.308   4.141
42164SOL    HW228326   2.562  13.282   4.054
42165SOL     OW28327  12.093   7.903   4.171
42165SOL    HW128328  12.159   7.848   4.129
42165SOL    HW228329  12.018   7.901   4.112
42166SOL     OW28330  14.185  10.307   5.362
42166SOL    HW128331  14.166  10.213   5.363
42166SOL    HW228332  14.099  10.349   5.353
42167SOL     OW28333   5.909  11.570   5.974
42167SOL    HW128334   5.924  11.655   6.015
42167SOL    HW228335   5.914  11.508   6.046
42168SOL     OW28336   9.625  10.631  10.884
42168SOL    HW128337   9.570  10.659  10.957
42168SOL    HW228338   9.585  10.670  10.807
42169SOL     OW28339   6.134   1.728   6.411
42169SOL    HW128340   6.228   1.715   6.407
42169SOL    HW228341   6.108   1.740   6.319
42170SOL     OW28342   1.600   3.172   0.353
42170SOL    HW128343   1.589   3.226   0.276
42170SOL    HW228344   1.634   3.232   0.420
42171SOL     OW28345  10.835  13.407  14.402
42171SOL    HW128346  10.877  13.414  14.488
42171SOL    HW228347  10.865  13.485  14.355
42172SOL     OW28348   4.722   5.397   1.049
42172SOL    HW128349   4.813   5.376   1.069
42172SOL    HW228350   4.726   5.454   0.973
42173SOL     OW28351   4.240  11.776   8.089
42173SOL    HW128352   4.330  11.806   8.075
42173SOL    HW228353   4.194  11.854   8.121
42174SOL     OW28354   6.534   3.737   5.756
42174SOL    HW128355   6.464   3.701   5.701
42174SOL    HW228356   6.539   3.676   5.830
42175SOL     OW28357   3.809   8.464   7.909
42175SOL    HW128358   3.900   8.492   7.916
42175SOL    HW228359   3.764   8.540   7.871
42176SOL     OW28360   1.073   2.744   2.906
42176SOL    HW128361   1.060   2.692   2.827
42176SOL    HW228362   0.985   2.759   2.940
42177SOL     OW28363   6.016   9.945   7.517
42177SOL    HW128364   6.025   9.850   7.510
42177SOL    HW228365   6.106   9.978   7.511
42178SOL     OW28366   0.724   1.001   0.608
42178SOL    HW128367   0.727   0.920   0.659
42178SOL    HW228368   0.780   0.984   0.532
42179SOL     OW28369  11.317   0.149   3.929
42179SOL    HW128370  11.305   0.069   3.981
42179SOL    HW228371  11.267   0.216   3.976
42180SOL     OW28372   8.471  11.637  11.347
42180SOL    HW128373   8.429  11.715  11.382
42180SOL    HW228374   8.534  11.611  11.415
42181SOL     OW28375   7.728  12.794   1.792
42181SOL    HW128376   7.736  12.727   1.724
42181SOL    HW228377   7.750  12.876   1.747
42182SOL     OW28378   4.161  12.226   4.509
42182SOL    HW128379   4.141  12.182   4.426
42182SOL    HW228380   4.249  12.260   4.497
42183SOL     OW28381   9.231   0.312  10.653
42183SOL    HW128382   9.229   0.319  10.558
42183SOL    HW228383   9.257   0.222  10.670
42184SOL     OW28384   8.069  11.295   5.387
42184SOL    HW128385   8.131  11.297   5.460
42184SOL    HW228386   8.110  11.238   5.322
42185SOL     OW28387   8.413   1.155   2.681
42185SOL    HW128388   8.493   1.120   2.642
42185SOL    HW228389   8.423   1.135   2.775
42186SOL     OW28390   9.780  11.124   2.139
42186SOL    HW128391   9.687  11.136   2.122
42186SOL    HW228392   9.821  11.123   2.053
42187SOL     OW28393   2.211   7.306  13.849
42187SOL    HW128394   2.205   7.401  13.842
42187SOL    HW228395   2.141   7.272  13.794
42188SOL     OW28396   6.586   3.508  14.879
42188SOL    HW128397   6.539   3.582  14.841
42188SOL    HW228398   6.647   3.548   0.062
42189SOL     OW28399  10.399   9.152   4.761
42189SOL    HW128400  10.491   9.163   4.783
42189SOL    HW228401  10.396   9.160   4.665
42190SOL     OW28402  10.217   0.220   8.933
42190SOL    HW128403  10.184   0.173   8.856
42190SOL    HW228404  10.236   0.308   8.901
42191SOL     OW28405   5.113  10.724   1.015
42191SOL    HW128406   5.181  10.775   1.059
42191SOL    HW228407   5.084  10.661   1.081
42192SOL     OW28408  13.220  13.649   8.212
42192SOL    HW128409  13.196  13.621   8.123
42192SOL    HW228410  13.311  13.679   8.203
42193SOL     OW28411  11.909   5.714   3.499
42193SOL    HW128412  11.922   5.621   3.521
42193SOL    HW228413  11.981   5.759   3.544
42194SOL     OW28414   9.523  12.503   4.180
42194SOL    HW128415   9.460  12.479   4.248
42194SOL    HW228416   9.573  12.423   4.164
42195SOL     OW28417   9.939  11.996  12.990
42195SOL    HW128418   9.903  11.907  12.993
42195SOL    HW228419   9.878  12.048  13.043
42196SOL     OW28420   6.135  14.096  13.026
42196SOL    HW128421   6.130  14.153  12.949
42196SOL    HW228422   6.044  14.076  13.046
42197SOL     OW28423   8.338   5.300   9.602
42197SOL    HW128424   8.404   5.248   9.647
42197SOL    HW228425   8.329   5.258   9.516
42198SOL     OW28426   8.603   1.743   2.780
42198SOL    HW128427   8.507   1.746   2.779
42198SOL    HW228428   8.627   1.731   2.688
42199SOL     OW28429   5.413   0.586   7.134
42199SOL    HW128430   5.421   0.514   7.071
42199SOL    HW228431   5.324   0.620   7.120
42200SOL     OW28432  12.635  13.769   8.369
42200SOL    HW128433  12.594  13.702   8.424
42200SOL    HW228434  12.704  13.722   8.322
42201SOL     OW28435   9.826   0.734   6.399
42201SOL    HW128436   9.822   0.813   6.453
42201SOL    HW228437   9.864   0.667   6.457
42202SOL     OW28438  13.487   5.677  13.221
42202SOL    HW128439  13.395   5.657  13.237
42202SOL    HW228440  13.533   5.644  13.299
42203SOL     OW28441   1.524   7.940   6.705
42203SOL    HW128442   1.455   8.006   6.711
42203SOL    HW228443   1.527   7.917   6.612
42204SOL     OW28444   8.114   0.173   5.962
42204SOL    HW128445   8.144   0.190   5.873
42204SOL    HW228446   8.193   0.172   6.015
42205SOL     OW28447   1.764   9.858   9.397
42205SOL    HW128448   1.808   9.943   9.400
42205SOL    HW228449   1.714   9.854   9.479
42206SOL     OW28450  14.589   7.579  13.164
42206SOL    HW128451  14.603   7.488  13.192
42206SOL    HW228452  14.551   7.622  13.241
42207SOL     OW28453  13.166  14.138   2.975
42207SOL    HW128454  13.108  14.153   3.049
42207SOL    HW228455  13.150  14.212   2.917
42208SOL     OW28456   0.978  10.892  13.173
42208SOL    HW128457   1.023  10.874  13.256
42208SOL    HW228458   0.958  10.805  13.138
42209SOL     OW28459  12.808  12.717   3.516
42209SOL    HW128460  12.866  12.769   3.461
42209SOL    HW228461  12.743  12.682   3.455
42210SOL     OW28462   4.775   0.877  10.940
42210SOL    HW128463   4.795   0.967  10.915
42210SOL    HW228464   4.684   0.880  10.971
42211SOL     OW28465   4.668   8.011  13.552
42211SOL    HW128466   4.698   7.939  13.497
42211SOL    HW228467   4.639   7.969  13.633
42212SOL     OW28468   3.980  14.086   1.877
42212SOL    HW128469   3.994  14.086   1.972
42212SOL    HW228470   4.064  14.057   1.841
42213SOL     OW28471   0.034  12.431   3.819
42213SOL    HW128472   0.034  12.422   3.914
42213SOL    HW228473   0.076  12.516   3.803
42214SOL     OW28474   1.961  10.961   5.275
42214SOL    HW128475   1.896  10.969   5.205
42214SOL    HW228476   2.020  10.892   5.246
42215SOL     OW28477   3.405   0.684  11.254
42215SOL    HW128478   3.430   0.691  11.162
42215SOL    HW228479   3.421   0.772  11.289
42216SOL     OW28480   8.157  11.517   9.616
42216SOL    HW128481   8.248  11.488   9.611
42216SOL    HW228482   8.106  11.442   9.586
42217SOL     OW28483  13.658   9.972   5.518
42217SOL    HW128484  13.647  10.067   5.509
42217SOL    HW228485  13.668   9.940   5.428
42218SOL     OW28486  12.095   3.605   0.110
42218SOL    HW128487  12.105   3.608   0.205
42218SOL    HW228488  12.001   3.593   0.097
42219SOL     OW28489   0.355   6.899  11.468
42219SOL    HW128490   0.377   6.906  11.375
42219SOL    HW228491   0.274   6.949  11.477
42220SOL     OW28492   0.806   9.324  10.044
42220SOL    HW128493   0.877   9.264  10.066
42220SOL    HW228494   0.787   9.307   9.952
42221SOL     OW28495   1.046   3.274   4.272
42221SOL    HW128496   1.136   3.301   4.291
42221SOL    HW228497   1.014   3.239   4.355
42222SOL     OW28498   0.779   0.914  13.463
42222SOL    HW128499   0.852   0.922  13.401
42222SOL    HW228500   0.756   0.821  13.462
42223SOL     OW28501   3.914   8.894   1.425
42223SOL    HW128502   3.848   8.825   1.431
42223SOL    HW228503   3.900   8.934   1.339
42224SOL     OW28504  11.925  14.505   9.871
42224SOL    HW128505  12.009  14.464   9.853
42224SOL    HW228506  11.875  14.438   9.918
42225SOL     OW28507   9.320   3.389  13.385
42225SOL    HW128508   9.399   3.419  13.430
42225SOL    HW228509   9.317   3.441  13.304
42226SOL     OW28510  11.387   5.724   2.157
42226SOL    HW128511  11.462   5.782   2.145
42226SOL    HW228512  11.314   5.783   2.178
42227SOL     OW28513   6.203   7.585  12.159
42227SOL    HW128514   6.212   7.531  12.080
42227SOL    HW228515   6.268   7.654  12.149
42228SOL     OW28516  10.563   4.172   6.885
42228SOL    HW128517  10.564   4.087   6.929
42228SOL    HW228518  10.558   4.150   6.792
42229SOL     OW28519   4.671   7.710  12.833
42229SOL    HW128520   4.696   7.798  12.862
42229SOL    HW228521   4.577   7.705  12.851
42230SOL     OW28522   8.280   3.991   2.829
42230SOL    HW128523   8.278   4.047   2.751
42230SOL    HW228524   8.365   4.009   2.869
42231SOL     OW28525   4.832   1.299  11.743
42231SOL    HW128526   4.810   1.231  11.806
42231SOL    HW228527   4.865   1.252  11.667
42232SOL     OW28528   9.467  10.560  14.779
42232SOL    HW128529   9.560  10.560  14.754
42232SOL    HW228530   9.448  10.650  14.803
42233SOL     OW28531  14.158   6.888   9.714
42233SOL    HW128532  14.120   6.946   9.781
42233SOL    HW228533  14.241   6.860   9.752
42234SOL     OW28534   1.261   5.991   9.014
42234SOL    HW128535   1.228   6.032   8.934
42234SOL    HW228536   1.182   5.958   9.058
42235SOL     OW28537  13.451   3.400  14.013
42235SOL    HW128538  13.487   3.370  14.096
42235SOL    HW228539  13.394   3.473  14.037
42236SOL     OW28540   8.480   6.536  12.243
42236SOL    HW128541   8.411   6.487  12.289
42236SOL    HW228542   8.562   6.501  12.279
42237SOL     OW28543   4.511   1.499   6.777
42237SOL    HW128544   4.503   1.411   6.812
42237SOL    HW228545   4.424   1.538   6.789
42238SOL     OW28546   7.834   4.645  14.829
42238SOL    HW128547   7.802   4.701   0.021
42238SOL    HW228548   7.757   4.596  14.800
42239SOL     OW28549   1.224  10.104   4.209
42239SOL    HW128550   1.143  10.155   4.219
42239SOL    HW228551   1.253  10.089   4.299
42240SOL     OW28552  11.643   7.082  11.452
42240SOL    HW128553  11.707   7.033  11.401
42240SOL    HW228554  11.594   7.015  11.500
42241SOL     OW28555  13.697  10.927  12.712
42241SOL    HW128556  13.631  10.883  12.657
42241SOL    HW228557  13.781  10.896  12.679
42242SOL     OW28558  14.786   1.664  12.307
42242SOL    HW128559  14.803   1.759  12.311
42242SOL    HW228560  14.722   1.648  12.376
42243SOL     OW28561  12.500   7.881   0.407
42243SOL    HW128562  12.560   7.891   0.481
42243SOL    HW228563  12.526   7.949   0.346
42244SOL     OW28564   3.087  13.671   7.721
42244SOL    HW128565   3.028  13.747   7.728
42244SOL    HW228566   3.111  13.668   7.629
42245SOL     OW28567  10.425   9.233   2.366
42245SOL    HW128568  10.502   9.287   2.347
42245SOL    HW228569  10.433   9.210   2.458
42246SOL     OW28570   5.841   7.952   6.999
42246SOL    HW128571   5.855   7.916   7.087
42246SOL    HW228572   5.747   7.968   6.994
42247SOL     OW28573   7.911   7.195   3.062
42247SOL    HW128574   7.842   7.135   3.032
42247SOL    HW228575   7.867   7.279   3.071
42248SOL     OW28576   4.078   7.419   8.417
42248SOL    HW128577   3.996   7.454   8.384
42248SOL    HW228578   4.126   7.392   8.338
42249SOL     OW28579  13.251  14.830   2.870
42249SOL    HW128580  13.207  14.748   2.894
42249SOL    HW228581  13.180   0.014   2.860
42250SOL     OW28582   0.307   6.847   6.775
42250SOL    HW128583   0.302   6.940   6.754
42250SOL    HW228584   0.390   6.836   6.821
42251SOL     OW28585  14.183  12.026  12.742
42251SOL    HW128586  14.211  12.097  12.799
42251SOL    HW228587  14.158  11.956  12.803
42252SOL     OW28588   0.369   6.759   8.037
42252SOL    HW128589   0.420   6.839   8.055
42252SOL    HW228590   0.289   6.770   8.089
42253SOL     OW28591   8.859   5.893  12.541
42253SOL    HW128592   8.783   5.949  12.557
42253SOL    HW228593   8.927   5.929  12.598
42254SOL     OW28594   6.333   5.325  13.889
42254SOL    HW128595   6.412   5.357  13.933
42254SOL    HW228596   6.354   5.235  13.865
42255SOL     OW28597   7.251   0.718  12.529
42255SOL    HW128598   7.240   0.811  12.550
42255SOL    HW228599   7.288   0.680  12.609
42256SOL     OW28600  14.849   3.806   2.680
42256SOL    HW128601  14.860   3.774   2.591
42256SOL    HW228602   0.058   3.810   2.716
42257SOL     OW28603  11.037   3.401   0.190
42257SOL    HW128604  11.113   3.449   0.157
42257SOL    HW228605  10.993   3.463   0.249
42258SOL     OW28606   2.373   5.901  10.393
42258SOL    HW128607   2.280   5.875  10.394
42258SOL    HW228608   2.408   5.866  10.475
42259SOL     OW28609  14.867  10.950   8.704
42259SOL    HW128610  14.829  10.872   8.744
42259SOL    HW228611   0.051  10.915   8.640
42260SOL     OW28612  13.167  10.948   4.876
42260SOL    HW128613  13.136  10.893   4.805
42260SOL    HW228614  13.089  10.994   4.907
42261SOL     OW28615  14.529   9.177   2.299
42261SOL    HW128616  14.531   9.203   2.207
42261SOL    HW228617  14.617   9.145   2.317
42262SOL     OW28618   1.886   7.791   1.512
42262SOL    HW128619   1.875   7.853   1.584
42262SOL    HW228620   1.823   7.819   1.446
42263SOL     OW28621   9.644   2.091   5.774
42263SOL    HW128622   9.737   2.111   5.774
42263SOL    HW228623   9.635   2.012   5.720
42264SOL     OW28624   4.667   3.135   3.142
42264SOL    HW128625   4.615   3.062   3.106
42264SOL    HW228626   4.738   3.092   3.190
42265SOL     OW28627  12.679  12.289  14.673
42265SOL    HW128628  12.686  12.382  14.650
42265SOL    HW228629  12.586  12.276  14.691
42266SOL     OW28630  14.438  12.386   6.628
42266SOL    HW128631  14.504  12.319   6.645
42266SOL    HW228632  14.426  12.430   6.713
42267SOL     OW28633   6.595   7.251  14.752
42267SOL    HW128634   6.591   7.221  14.661
42267SOL    HW228635   6.657   7.324  14.750
42268SOL     OW28636  12.938  12.634  11.506
42268SOL    HW128637  13.026  12.605  11.482
42268SOL    HW228638  12.933  12.620  11.601
42269SOL     OW28639  13.753  12.597  11.117
42269SOL    HW128640  13.845  12.578  11.097
42269SOL    HW228641  13.704  12.545  11.054
42270SOL     OW28642   7.159   5.545   1.830
42270SOL    HW128643   7.071   5.508   1.823
42270SOL    HW228644   7.145   5.636   1.856
42271SOL     OW28645  10.441  10.378   4.099
42271SOL    HW128646  10.461  10.458   4.148
42271SOL    HW228647  10.443  10.309   4.165
42272SOL     OW28648  12.127  11.843   3.615
42272SOL    HW128649  12.102  11.902   3.543
42272SOL    HW228650  12.048  11.790   3.631
42273SOL     OW28651   5.387   4.408   4.715
42273SOL    HW128652   5.339   4.490   4.724
42273SOL    HW228653   5.327   4.349   4.669
42274SOL     OW28654   6.039  14.412  12.630
42274SOL    HW128655   5.972  14.444  12.691
42274SOL    HW228656   6.033  14.472  12.555
42275SOL     OW28657  11.587   0.413  11.336
42275SOL    HW128658  11.552   0.366  11.412
42275SOL    HW228659  11.510   0.448  11.292
42276SOL     OW28660   7.256  13.344   0.421
42276SOL    HW128661   7.298  13.422   0.383
42276SOL    HW228662   7.284  13.272   0.364
42277SOL     OW28663   0.537   5.238  14.762
42277SOL    HW128664   0.510   5.227  14.671
42277SOL    HW228665   0.575   5.154  14.786
42278SOL     OW28666   1.058   2.806  14.139
42278SOL    HW128667   1.087   2.715  14.150
42278SOL    HW228668   0.964   2.803  14.157
42279SOL     OW28669   2.026   8.649   3.373
42279SOL    HW128670   2.094   8.691   3.321
42279SOL    HW228671   1.994   8.578   3.317
42280SOL     OW28672   0.284  13.985   9.183
42280SOL    HW128673   0.323  13.973   9.269
42280SOL    HW228674   0.258  13.897   9.156
42281SOL     OW28675   8.767  14.576   1.592
42281SOL    HW128676   8.857  14.563   1.561
42281SOL    HW228677   8.742  14.663   1.559
42282SOL     OW28678   5.871  13.697  11.316
42282SOL    HW128679   5.916  13.621  11.278
42282SOL    HW228680   5.898  13.770  11.261
42283SOL     OW28681   7.771   2.376   6.429
42283SOL    HW128682   7.738   2.378   6.340
42283SOL    HW228683   7.729   2.300   6.469
42284SOL     OW28684   9.609   4.902  12.107
42284SOL    HW128685   9.677   4.853  12.060
42284SOL    HW228686   9.585   4.973  12.048
42285SOL     OW28687  10.474   2.679  12.183
42285SOL    HW128688  10.552   2.719  12.145
42285SOL    HW228689  10.480   2.697  12.277
42286SOL     OW28690  13.638   5.391   9.276
42286SOL    HW128691  13.725   5.370   9.243
42286SOL    HW228692  13.581   5.392   9.199
42287SOL     OW28693  10.155   3.828   2.124
42287SOL    HW128694  10.190   3.902   2.074
42287SOL    HW228695  10.085   3.792   2.069
42288SOL     OW28696  12.725   4.641   2.778
42288SOL    HW128697  12.688   4.652   2.691
42288SOL    HW228698  12.665   4.580   2.821
42289SOL     OW28699   4.335   9.580  13.516
42289SOL    HW128700   4.288   9.613  13.592
42289SOL    HW228701   4.309   9.488  13.509
42290SOL     OW28702   7.196   6.875   3.238
42290SOL    HW128703   7.120   6.843   3.287
42290SOL    HW228704   7.214   6.805   3.175
42291SOL     OW28705   7.188   4.795  14.489
42291SOL    HW128706   7.195   4.777  14.583
42291SOL    HW228707   7.188   4.891  14.483
42292SOL     OW28708   6.127  14.189   2.683
42292SOL    HW128709   6.110  14.113   2.739
42292SOL    HW228710   6.157  14.257   2.743
42293SOL     OW28711   5.519   7.330   7.976
42293SOL    HW128712   5.560   7.286   7.901
42293SOL    HW228713   5.427   7.338   7.952
42294SOL     OW28714  10.407  10.303  10.654
42294SOL    HW128715  10.465  10.344  10.719
42294SOL    HW228716  10.463  10.239  10.610
42295SOL     OW28717  12.130   6.614  12.802
42295SOL    HW128718  12.066   6.565  12.854
42295SOL    HW228719  12.215   6.583  12.834
42296SOL     OW28720   2.263   1.560  12.679
42296SOL    HW128721   2.310   1.491  12.632
42296SOL    HW228722   2.272   1.536  12.771
42297SOL     OW28723  10.957  10.293   5.620
42297SOL    HW128724  10.969  10.387   5.627
42297SOL    HW228725  11.043  10.260   5.593
42298SOL     OW28726   2.551   5.375  10.552
42298SOL    HW128727   2.581   5.332  10.632
42298SOL    HW228728   2.608   5.451  10.543
42299SOL     OW28729   1.288   8.618   2.667
42299SOL    HW128730   1.271   8.693   2.724
42299SOL    HW228731   1.262   8.647   2.579
42300SOL     OW28732   2.257   6.527   0.139
42300SOL    HW128733   2.274   6.613   0.099
42300SOL    HW228734   2.195   6.485   0.080
42301SOL     OW28735  12.707  10.019  11.592
42301SOL    HW128736  12.612  10.024  11.589
42301SOL    HW228737  12.737  10.068  11.516
42302SOL     OW28738   1.166   5.714   0.554
42302SOL    HW128739   1.219   5.679   0.626
42302SOL    HW228740   1.193   5.664   0.477
42303SOL     OW28741  11.544   5.599  14.393
42303SOL    HW128742  11.516   5.686  14.364
42303SOL    HW228743  11.518   5.594  14.484
42304SOL     OW28744   7.426   0.432  12.897
42304SOL    HW128745   7.520   0.422  12.912
42304SOL    HW228746   7.407   0.522  12.922
42305SOL     OW28747   5.400   4.391   9.145
42305SOL    HW128748   5.366   4.385   9.235
42305SOL    HW228749   5.323   4.379   9.090
42306SOL     OW28750  13.811  12.211   8.124
42306SOL    HW128751  13.777  12.300   8.122
42306SOL    HW228752  13.734  12.155   8.120
42307SOL     OW28753   8.667  12.193  14.011
42307SOL    HW128754   8.646  12.117  14.066
42307SOL    HW228755   8.761  12.207  14.024
42308SOL     OW28756   7.735   0.549   8.457
42308SOL    HW128757   7.642   0.539   8.437
42308SOL    HW228758   7.778   0.479   8.406
42309SOL     OW28759   3.688   0.754  13.185
42309SOL    HW128760   3.621   0.821  13.204
42309SOL    HW228761   3.680   0.739  13.091
42310SOL     OW28762   5.188   9.705  11.452
42310SOL    HW128763   5.210   9.612  11.455
42310SOL    HW228764   5.273   9.750  11.448
42311SOL     OW28765   1.485   1.443  10.580
42311SOL    HW128766   1.568   1.397  10.593
42311SOL    HW228767   1.426   1.377  10.543
42312SOL     OW28768   7.060  12.423   1.471
42312SOL    HW128769   7.025  12.407   1.384
42312SOL    HW228770   7.149  12.387   1.468
42313SOL     OW28771   8.165   0.419   3.620
42313SOL    HW128772   8.230   0.355   3.648
42313SOL    HW228773   8.120   0.444   3.701
42314SOL     OW28774   7.938  11.677   9.606
42314SOL    HW128775   8.024  11.642   9.629
42314SOL    HW228776   7.893  11.603   9.565
42315SOL     OW28777   9.345   3.440   1.748
42315SOL    HW128778   9.306   3.442   1.836
42315SOL    HW228779   9.324   3.526   1.711
42316SOL     OW28780  11.697   3.656  13.668
42316SOL    HW128781  11.657   3.738  13.697
42316SOL    HW228782  11.732   3.617  13.748
42317SOL     OW28783  10.030   9.489  10.121
42317SOL    HW128784   9.970   9.460  10.189
42317SOL    HW228785   9.976   9.539  10.060
42318SOL     OW28786   2.443  11.177   6.919
42318SOL    HW128787   2.471  11.137   6.837
42318SOL    HW228788   2.412  11.264   6.894
42319SOL     OW28789  11.304   4.097   9.353
42319SOL    HW128790  11.320   4.008   9.386
42319SOL    HW228791  11.371   4.110   9.286
42320SOL     OW28792   6.435   6.601   5.486
42320SOL    HW128793   6.390   6.564   5.410
42320SOL    HW228794   6.380   6.675   5.513
42321SOL     OW28795  12.238   9.292   3.795
42321SOL    HW128796  12.181   9.308   3.870
42321SOL    HW228797  12.224   9.368   3.738
42322SOL     OW28798   9.884   1.435   8.917
42322SOL    HW128799   9.918   1.477   8.996
42322SOL    HW228800   9.874   1.343   8.940
42323SOL     OW28801   5.130  14.607   7.570
42323SOL    HW128802   5.123  14.512   7.562
42323SOL    HW228803   5.083  14.642   7.494
42324SOL     OW28804   1.322  14.009   9.748
42324SOL    HW128805   1.377  13.931   9.735
42324SOL    HW228806   1.384  14.082   9.745
42325SOL     OW28807  10.267  10.183  12.490
42325SOL    HW128808  10.335  10.167  12.425
42325SOL    HW228809  10.185  10.177  12.441
42326SOL     OW28810   2.542   9.588   1.316
42326SOL    HW128811   2.502   9.651   1.377
42326SOL    HW228812   2.544   9.506   1.365
42327SOL     OW28813   5.405   2.614   3.279
42327SOL    HW128814   5.433   2.649   3.195
42327SOL    HW228815   5.486   2.602   3.329
42328SOL     OW28816  10.936   0.563   3.938
42328SOL    HW128817  10.887   0.505   3.996
42328SOL    HW228818  11.015   0.586   3.987
42329SOL     OW28819   1.442   5.872   2.079
42329SOL    HW128820   1.423   5.871   2.173
42329SOL    HW228821   1.398   5.952   2.047
42330SOL     OW28822  12.126   2.912  14.697
42330SOL    HW128823  12.133   2.850  14.769
42330SOL    HW228824  12.172   2.871  14.624
42331SOL     OW28825   6.559   6.724   1.542
42331SOL    HW128826   6.487   6.678   1.500
42331SOL    HW228827   6.636   6.702   1.490
42332SOL     OW28828   2.212  12.956   5.972
42332SOL    HW128829   2.271  12.882   5.962
42332SOL    HW228830   2.156  12.932   6.046
42333SOL     OW28831  11.684   6.619  12.022
42333SOL    HW128832  11.770   6.586  11.996
42333SOL    HW228833  11.697   6.713  12.033
42334SOL     OW28834  13.930   0.240   1.691
42334SOL    HW128835  13.848   0.194   1.672
42334SOL    HW228836  13.925   0.321   1.641
42335SOL     OW28837   7.529   2.183   6.761
42335SOL    HW128838   7.555   2.245   6.829
42335SOL    HW228839   7.505   2.104   6.808
42336SOL     OW28840   0.354   7.069   0.827
42336SOL    HW128841   0.339   7.009   0.754
42336SOL    HW228842   0.344   7.015   0.905
42337SOL     OW28843  12.005  14.748  14.615
42337SOL    HW128844  12.047  14.769  14.532
42337SOL    HW228845  12.013  14.828  14.667
42338SOL     OW28846  11.539  10.203  12.013
42338SOL    HW128847  11.521  10.213  12.106
42338SOL    HW228848  11.455  10.220  11.970
42339SOL     OW28849  14.089   8.789  14.256
42339SOL    HW128850  14.163   8.844  14.279
42339SOL    HW228851  14.081   8.728  14.330
42340SOL     OW28852   5.949   5.242  10.313
42340SOL    HW128853   5.897   5.184  10.369
42340SOL    HW228854   5.982   5.184  10.244
42341SOL     OW28855   4.312   8.546   4.244
42341SOL    HW128856   4.374   8.526   4.314
42341SOL    HW228857   4.314   8.468   4.189
42342SOL     OW28858  13.194   1.239   7.624
42342SOL    HW128859  13.235   1.264   7.707
42342SOL    HW228860  13.119   1.297   7.615
42343SOL     OW28861   4.996  10.470   3.969
42343SOL    HW128862   5.010  10.425   4.052
42343SOL    HW228863   4.927  10.420   3.925
42344SOL     OW28864  14.733  12.095  12.756
42344SOL    HW128865  14.703  12.015  12.711
42344SOL    HW228866  14.701  12.085  12.846
42345SOL     OW28867   2.322  14.297  11.116
42345SOL    HW128868   2.311  14.347  11.035
42345SOL    HW228869   2.283  14.351  11.184
42346SOL     OW28870   5.358   1.914   3.353
42346SOL    HW128871   5.356   1.968   3.274
42346SOL    HW228872   5.311   1.834   3.329
42347SOL     OW28873  11.890   3.822   0.120
42347SOL    HW128874  11.940   3.903   0.130
42347SOL    HW228875  11.809   3.837   0.168
42348SOL     OW28876   3.392  12.018   0.808
42348SOL    HW128877   3.382  12.107   0.841
42348SOL    HW228878   3.447  12.027   0.730
42349SOL     OW28879   0.122   9.532   5.353
42349SOL    HW128880   0.049   9.479   5.320
42349SOL    HW228881   0.200   9.482   5.329
42350SOL     OW28882  10.208  10.524   2.417
42350SOL    HW128883  10.199  10.617   2.436
42350SOL    HW228884  10.144  10.507   2.348
42351SOL     OW28885   0.299  11.963   2.160
42351SOL    HW128886   0.248  11.883   2.147
42351SOL    HW228887   0.317  11.965   2.254
42352SOL     OW28888   8.415   8.060  13.736
42352SOL    HW128889   8.368   8.108  13.804
42352SOL    HW228890   8.482   8.121  13.706
42353SOL     OW28891   5.890  12.028  10.819
42353SOL    HW128892   5.884  12.013  10.913
42353SOL    HW228893   5.944  12.107  10.811
42354SOL     OW28894   0.812   6.103  13.258
42354SOL    HW128895   0.853   6.182  13.294
42354SOL    HW228896   0.800   6.045  13.333
42355SOL     OW28897  11.996  10.981   1.011
42355SOL    HW128898  12.020  10.897   1.049
42355SOL    HW228899  11.907  10.997   1.043
42356SOL     OW28900   5.697  12.782  11.345
42356SOL    HW128901   5.677  12.871  11.374
42356SOL    HW228902   5.776  12.758  11.394
42357SOL     OW28903   9.097  13.027   2.173
42357SOL    HW128904   9.074  13.081   2.098
42357SOL    HW228905   9.189  13.048   2.191
42358SOL     OW28906   6.717  10.987  11.399
42358SOL    HW128907   6.735  11.055  11.334
42358SOL    HW228908   6.648  10.934  11.359
42359SOL     OW28909   9.460   1.423   6.532
42359SOL    HW128910   9.404   1.450   6.605
42359SOL    HW228911   9.541   1.393   6.573
42360SOL     OW28912   2.724   8.685   7.424
42360SOL    HW128913   2.634   8.680   7.455
42360SOL    HW228914   2.777   8.668   7.502
42361SOL     OW28915   5.909  12.732   0.853
42361SOL    HW128916   5.915  12.807   0.793
42361SOL    HW228917   5.815  12.712   0.856
42362SOL     OW28918   6.715   3.498  11.539
42362SOL    HW128919   6.763   3.448  11.605
42362SOL    HW228920   6.703   3.436  11.466
42363SOL     OW28921   9.595  11.021  13.200
42363SOL    HW128922   9.514  11.059  13.166
42363SOL    HW228923   9.614  10.948  13.142
42364SOL     OW28924  13.261   7.484   0.003
42364SOL    HW128925  13.200   7.556  14.864
42364SOL    HW228926  13.253   7.468   0.097
42365SOL     OW28927  10.978   5.829   4.038
42365SOL    HW128928  10.905   5.890   4.028
42365SOL    HW228929  10.967   5.766   3.966
42366SOL     OW28930   4.798  11.011   0.510
42366SOL    HW128931   4.710  11.020   0.545
42366SOL    HW228932   4.855  11.044   0.580
42367SOL     OW28933   0.592   9.109  10.935
42367SOL    HW128934   0.602   9.107  11.030
42367SOL    HW228935   0.635   9.029  10.905
42368SOL     OW28936   8.738   1.977   3.932
42368SOL    HW128937   8.832   1.987   3.921
42368SOL    HW228938   8.702   2.065   3.919
42369SOL     OW28939  10.641   6.110  12.133
42369SOL    HW128940  10.638   6.182  12.196
42369SOL    HW228941  10.596   6.037  12.178
42370SOL     OW28942   0.288  10.639   2.813
42370SOL    HW128943   0.279  10.723   2.856
42370SOL    HW228944   0.379  10.613   2.830
42371SOL     OW28945  10.328   4.813   1.053
42371SOL    HW128946  10.269   4.814   0.978
42371SOL    HW228947  10.394   4.746   1.030
42372SOL     OW28948   6.439  10.811  11.634
42372SOL    HW128949   6.436  10.777  11.723
42372SOL    HW228950   6.401  10.743  11.580
42373SOL     OW28951  11.095   3.147   1.700
42373SOL    HW128952  11.098   3.240   1.720
42373SOL    HW228953  11.186   3.120   1.690
42374SOL     OW28954   8.192   2.122   3.517
42374SOL    HW128955   8.097   2.110   3.519
42374SOL    HW228956   8.208   2.174   3.438
42375SOL     OW28957  10.014   2.762   9.949
42375SOL    HW128958  10.077   2.758   9.877
42375SOL    HW228959   9.928   2.752   9.907
42376SOL     OW28960   2.190   6.225   2.466
42376SOL    HW128961   2.269   6.198   2.513
42376SOL    HW228962   2.197   6.320   2.461
42377SOL     OW28963   7.476   3.600   4.179
42377SOL    HW128964   7.468   3.568   4.269
42377SOL    HW228965   7.416   3.545   4.128
42378SOL     OW28966   9.038   2.745  14.249
42378SOL    HW128967   9.074   2.734  14.162
42378SOL    HW228968   9.108   2.784  14.300
42379SOL     OW28969   5.666   0.323   2.845
42379SOL    HW128970   5.590   0.367   2.807
42379SOL    HW228971   5.647   0.230   2.834
42380SOL     OW28972   6.732   7.772  10.913
42380SOL    HW128973   6.692   7.714  10.847
42380SOL    HW228974   6.684   7.854  10.905
42381SOL     OW28975   8.010   6.201   8.679
42381SOL    HW128976   8.095   6.164   8.705
42381SOL    HW228977   7.991   6.160   8.595
42382SOL     OW28978   1.038  14.240   4.310
42382SOL    HW128979   0.996  14.219   4.394
42382SOL    HW228980   1.078  14.158   4.283
42383SOL     OW28981   7.507  12.559   2.344
42383SOL    HW128982   7.481  12.518   2.261
42383SOL    HW228983   7.602  12.551   2.346
42384SOL     OW28984   3.232   6.431   0.474
42384SOL    HW128985   3.295   6.373   0.516
42384SOL    HW228986   3.147   6.400   0.504
42385SOL     OW28987   1.688   7.822   0.156
42385SOL    HW128988   1.653   7.897   0.205
42385SOL    HW228989   1.615   7.759   0.154
42386SOL     OW28990   2.284  10.625   4.371
42386SOL    HW128991   2.224  10.627   4.297
42386SOL    HW228992   2.271  10.710   4.414
42387SOL     OW28993   3.629   7.614   4.306
42387SOL    HW128994   3.610   7.706   4.324
42387SOL    HW228995   3.543   7.573   4.295
42388SOL     OW28996   1.441  10.041  14.654
42388SOL    HW128997   1.473   9.989  14.728
42388SOL    HW228998   1.424   9.977  14.585
42389SOL     OW28999   1.405   4.397   7.716
42389SOL    HW129000   1.321   4.368   7.682
42389SOL    HW229001   1.385   4.435   7.801
42390SOL     OW29002   5.685   5.004  14.139
42390SOL    HW129003   5.759   4.946  14.122
42390SOL    HW229004   5.650   4.974  14.223
42391SOL     OW29005   1.383   1.314   6.664
42391SOL    HW129006   1.436   1.392   6.650
42391SOL    HW229007   1.323   1.339   6.735
42392SOL     OW29008   1.861  14.273   7.183
42392SOL    HW129009   1.903  14.193   7.150
42392SOL    HW229010   1.780  14.242   7.224
42393SOL     OW29011   7.842  11.993   6.987
42393SOL    HW129012   7.797  12.077   6.984
42393SOL    HW229013   7.895  11.997   7.066
42394SOL     OW29014  12.552  13.890  11.479
42394SOL    HW129015  12.511  13.820  11.530
42394SOL    HW229016  12.642  13.893  11.512
42395SOL     OW29017   4.175   5.518   5.390
42395SOL    HW129018   4.198   5.447   5.450
42395SOL    HW229019   4.228   5.501   5.311
42396SOL     OW29020   3.915   0.449   6.402
42396SOL    HW129021   3.907   0.419   6.493
42396SOL    HW229022   3.999   0.415   6.372
42397SOL     OW29023  10.655   8.354   1.329
42397SOL    HW129024  10.588   8.338   1.263
42397SOL    HW229025  10.606   8.380   1.407
42398SOL     OW29026   0.743  14.707  11.047
42398SOL    HW129027   0.702  14.645  11.107
42398SOL    HW229028   0.673  14.733  10.988
42399SOL     OW29029   8.317  10.170  13.024
42399SOL    HW129030   8.226  10.148  13.005
42399SOL    HW229031   8.368  10.103  12.979
42400SOL     OW29032   0.628   8.808   7.362
42400SOL    HW129033   0.676   8.874   7.412
42400SOL    HW229034   0.602   8.743   7.427
42401SOL     OW29035   7.549   2.164   3.562
42401SOL    HW129036   7.492   2.129   3.492
42401SOL    HW229037   7.539   2.259   3.557
42402SOL     OW29038   4.515  11.066  14.169
42402SOL    HW129039   4.464  10.985  14.166
42402SOL    HW229040   4.550  11.070  14.258
42403SOL     OW29041   1.807   7.278   8.165
42403SOL    HW129042   1.903   7.270   8.165
42403SOL    HW229043   1.776   7.201   8.212
42404SOL     OW29044  13.528  14.020   0.311
42404SOL    HW129045  13.567  13.932   0.314
42404SOL    HW229046  13.438  14.005   0.284
42405SOL     OW29047   1.329   6.403  10.538
42405SOL    HW129048   1.299   6.464  10.471
42405SOL    HW229049   1.424   6.406  10.533
42406SOL     OW29050   0.792  10.088   0.178
42406SOL    HW129051   0.814  10.001   0.144
42406SOL    HW229052   0.851  10.100   0.252
42407SOL     OW29053   7.123   5.162   8.207
42407SOL    HW129054   7.185   5.097   8.240
42407SOL    HW229055   7.094   5.210   8.284
42408SOL     OW29056  12.956   0.581   2.592
42408SOL    HW129057  12.961   0.674   2.569
42408SOL    HW229058  12.951   0.580   2.687
42409SOL     OW29059   9.627   8.004   0.638
42409SOL    HW129060   9.696   7.956   0.593
42409SOL    HW229061   9.553   8.002   0.577
42410SOL     OW29062   6.195   7.875   3.756
42410SOL    HW129063   6.229   7.862   3.845
42410SOL    HW229064   6.272   7.875   3.701
42411SOL     OW29065   3.416   4.199   2.596
42411SOL    HW129066   3.466   4.119   2.614
42411SOL    HW229067   3.343   4.197   2.657
42412SOL     OW29068  11.396   3.583  14.187
42412SOL    HW129069  11.410   3.509  14.246
42412SOL    HW229070  11.469   3.579  14.126
42413SOL     OW29071  13.311  11.922  10.668
42413SOL    HW129072  13.234  11.970  10.698
42413SOL    HW229073  13.384  11.982  10.684
42414SOL     OW29074   7.812   1.119  12.051
42414SOL    HW129075   7.786   1.209  12.068
42414SOL    HW229076   7.792   1.105  11.958
42415SOL     OW29077   4.478  11.537  11.997
42415SOL    HW129078   4.481  11.509  12.088
42415SOL    HW229079   4.551  11.490  11.955
42416SOL     OW29080   5.293  11.304  11.990
42416SOL    HW129081   5.205  11.267  11.982
42416SOL    HW229082   5.346  11.253  11.929
42417SOL     OW29083   9.349   3.291   3.103
42417SOL    HW129084   9.359   3.196   3.104
42417SOL    HW229085   9.255   3.305   3.109
42418SOL     OW29086  14.108   1.721  11.809
42418SOL    HW129087  14.033   1.694  11.862
42418SOL    HW229088  14.075   1.723  11.719
42419SOL     OW29089  12.840   8.456   4.211
42419SOL    HW129090  12.888   8.453   4.128
42419SOL    HW229091  12.751   8.432   4.188
42420SOL     OW29092  13.103   4.535   5.535
42420SOL    HW129093  13.084   4.529   5.442
42420SOL    HW229094  13.019   4.556   5.576
42421SOL     OW29095   5.520   1.053  13.042
42421SOL    HW129096   5.557   1.082  13.125
42421SOL    HW229097   5.596   1.033  12.987
42422SOL     OW29098   0.850  10.989   1.489
42422SOL    HW129099   0.799  11.065   1.460
42422SOL    HW229100   0.884  10.951   1.408
42423SOL     OW29101  14.637   7.896   1.582
42423SOL    HW129102  14.706   7.910   1.518
42423SOL    HW229103  14.642   7.973   1.640
42424SOL     OW29104   0.641  13.597  14.346
42424SOL    HW129105   0.558  13.642  14.332
42424SOL    HW229106   0.642  13.577  14.440
42425SOL     OW29107  10.263   4.910   5.821
42425SOL    HW129108  10.202   4.914   5.895
42425SOL    HW229109  10.302   4.823   5.826
42426SOL     OW29110   1.633  14.473  12.928
42426SOL    HW129111   1.699  14.404  12.932
42426SOL    HW229112   1.553  14.429  12.899
42427SOL     OW29113   1.378   2.217   6.656
42427SOL    HW129114   1.378   2.122   6.644
42427SOL    HW229115   1.325   2.231   6.735
42428SOL     OW29116   8.507   6.502   3.764
42428SOL    HW129117   8.415   6.477   3.776
42428SOL    HW229118   8.543   6.501   3.852
42429SOL     OW29119   7.669   5.818  14.802
42429SOL    HW129120   7.758   5.799  14.830
42429SOL    HW229121   7.672   5.814  14.706
42430SOL     OW29122  13.226  13.583  11.158
42430SOL    HW129123  13.238  13.667  11.114
42430SOL    HW229124  13.308  13.535  11.141
42431SOL     OW29125  10.177   1.435   9.505
42431SOL    HW129126  10.122   1.429   9.583
42431SOL    HW229127  10.170   1.526   9.478
42432SOL     OW29128   8.583  11.845   3.835
42432SOL    HW129129   8.599  11.759   3.796
42432SOL    HW229130   8.529  11.891   3.770
42433SOL     OW29131   4.891   4.039   6.892
42433SOL    HW129132   4.896   3.973   6.961
42433SOL    HW229133   4.863   4.119   6.937
42434SOL     OW29134   0.676   0.099   4.419
42434SOL    HW129135   0.596   0.108   4.368
42434SOL    HW229136   0.720   0.023   4.381
42435SOL     OW29137   5.837   5.091   3.523
42435SOL    HW129138   5.902   5.154   3.554
42435SOL    HW229139   5.870   5.062   3.438
42436SOL     OW29140   6.528  13.653   2.265
42436SOL    HW129141   6.514  13.689   2.353
42436SOL    HW229142   6.579  13.574   2.279
42437SOL     OW29143  10.568   4.723   1.845
42437SOL    HW129144  10.504   4.691   1.782
42437SOL    HW229145  10.537   4.692   1.930
42438SOL     OW29146  12.754   1.304   7.501
42438SOL    HW129147  12.667   1.344   7.498
42438SOL    HW229148  12.814   1.375   7.479
42439SOL     OW29149   9.094   6.260  11.506
42439SOL    HW129150   9.045   6.222  11.579
42439SOL    HW229151   9.032   6.258  11.433
42440SOL     OW29152   6.510   5.878  13.702
42440SOL    HW129153   6.529   5.897  13.611
42440SOL    HW229154   6.546   5.790  13.716
42441SOL     OW29155   5.661  13.210   1.017
42441SOL    HW129156   5.710  13.289   1.039
42441SOL    HW229157   5.571  13.239   1.006
42442SOL     OW29158   8.249  14.021  13.451
42442SOL    HW129159   8.199  13.945  13.479
42442SOL    HW229160   8.192  14.096  13.470
42443SOL     OW29161  11.394  12.537  14.877
42443SOL    HW129162  11.379  12.572  14.789
42443SOL    HW229163  11.312  12.492   0.020
42444SOL     OW29164  14.247   3.657   3.760
42444SOL    HW129165  14.205   3.583   3.715
42444SOL    HW229166  14.339   3.650   3.735
42445SOL     OW29167   0.961   0.194   1.070
42445SOL    HW129168   0.866   0.186   1.073
42445SOL    HW229169   0.977   0.284   1.043
42446SOL     OW29170   0.095  14.179   7.481
42446SOL    HW129171   0.188  14.171   7.506
42446SOL    HW229172   0.078  14.102   7.428
42447SOL     OW29173   4.721   7.310   8.432
42447SOL    HW129174   4.668   7.314   8.511
42447SOL    HW229175   4.761   7.223   8.435
42448SOL     OW29176  14.546   4.798   5.691
42448SOL    HW129177  14.466   4.800   5.637
42448SOL    HW229178  14.553   4.706   5.717
42449SOL     OW29179   6.533   1.112   7.661
42449SOL    HW129180   6.565   1.026   7.687
42449SOL    HW229181   6.456   1.127   7.716
42450SOL     OW29182  12.589  14.366   0.112
42450SOL    HW129183  12.637  14.398   0.036
42450SOL    HW229184  12.596  14.436   0.176
42451SOL     OW29185  10.608  13.232   7.011
42451SOL    HW129186  10.576  13.203   7.096
42451SOL    HW229187  10.680  13.291   7.031
42452SOL     OW29188   7.715   0.319  10.030
42452SOL    HW129189   7.734   0.265   9.953
42452SOL    HW229190   7.672   0.397   9.995
42453SOL     OW29191   3.401   2.408  13.710
42453SOL    HW129192   3.467   2.356  13.754
42453SOL    HW229193   3.411   2.496  13.747
42454SOL     OW29194  13.758   3.666   0.330
42454SOL    HW129195  13.801   3.653   0.245
42454SOL    HW229196  13.736   3.759   0.331
42455SOL     OW29197   3.757   3.539   2.629
42455SOL    HW129198   3.691   3.606   2.610
42455SOL    HW229199   3.821   3.584   2.685
42456SOL     OW29200   5.591   3.960   9.053
42456SOL    HW129201   5.501   3.974   9.024
42456SOL    HW229202   5.621   4.046   9.082
42457SOL     OW29203   5.310   7.135   8.111
42457SOL    HW129204   5.224   7.097   8.090
42457SOL    HW229205   5.331   7.189   8.035
42458SOL     OW29206   0.925  14.546   4.757
42458SOL    HW129207   1.005  14.501   4.731
42458SOL    HW229208   0.909  14.609   4.687
42459SOL     OW29209   0.539   3.213   5.270
42459SOL    HW129210   0.522   3.229   5.177
42459SOL    HW229211   0.617   3.264   5.289
42460SOL     OW29212  13.583   7.382   8.432
42460SOL    HW129213  13.526   7.306   8.420
42460SOL    HW229214  13.533   7.440   8.490
42461SOL     OW29215  13.201   0.463   6.726
42461SOL    HW129216  13.207   0.550   6.765
42461SOL    HW229217  13.118   0.428   6.759
42462SOL     OW29218   7.800   2.593   3.578
42462SOL    HW129219   7.841   2.565   3.660
42462SOL    HW229220   7.775   2.685   3.594
42463SOL     OW29221   0.043   8.231   7.732
42463SOL    HW129222   0.016   8.210   7.821
42463SOL    HW229223   0.111   8.167   7.711
42464SOL     OW29224   1.034  11.568   5.936
42464SOL    HW129225   0.978  11.582   6.012
42464SOL    HW229226   1.015  11.643   5.878
42465SOL     OW29227   9.664   6.535  10.569
42465SOL    HW129228   9.616   6.512  10.649
42465SOL    HW229229   9.608   6.598  10.524
42466SOL     OW29230  13.686  11.761   9.166
42466SOL    HW129231  13.745  11.686   9.180
42466SOL    HW229232  13.684  11.806   9.250
42467SOL     OW29233  13.878   6.898   9.587
42467SOL    HW129234  13.871   6.992   9.602
42467SOL    HW229235  13.972   6.883   9.572
42468SOL     OW29236   0.979  14.790   7.206
42468SOL    HW129237   0.968  14.709   7.157
42468SOL    HW229238   0.897  14.800   7.254
42469SOL     OW29239  10.794  10.507  11.205
42469SOL    HW129240  10.700  10.515  11.221
42469SOL    HW229241  10.817  10.585  11.154
42470SOL     OW29242  11.645   1.993   5.911
42470SOL    HW129243  11.695   1.921   5.949
42470SOL    HW229244  11.576   2.011   5.975
42471SOL     OW29245  11.223   3.538  11.298
42471SOL    HW129246  11.219   3.624  11.339
42471SOL    HW229247  11.210   3.476  11.371
42472SOL     OW29248   8.120   4.251  12.435
42472SOL    HW129249   8.098   4.313  12.504
42472SOL    HW229250   8.078   4.286  12.357
42473SOL     OW29251  10.090   3.744   1.110
42473SOL    HW129252  10.019   3.746   1.047
42473SOL    HW229253  10.167   3.720   1.058
42474SOL     OW29254   4.044   6.255  11.237
42474SOL    HW129255   4.135   6.269  11.209
42474SOL    HW229256   4.027   6.163  11.217
42475SOL     OW29257  11.783  14.443   9.428
42475SOL    HW129258  11.717  14.487   9.482
42475SOL    HW229259  11.795  14.358   9.471
42476SOL     OW29260   0.820   2.268   3.597
42476SOL    HW129261   0.815   2.224   3.513
42476SOL    HW229262   0.750   2.230   3.649
42477SOL     OW29263   1.661   4.105   5.889
42477SOL    HW129264   1.677   4.011   5.886
42477SOL    HW229265   1.642   4.129   5.798
42478SOL     OW29266   5.070  10.680   8.578
42478SOL    HW129267   5.130  10.619   8.621
42478SOL    HW229268   5.126  10.749   8.543
42479SOL     OW29269   1.364   2.373  11.078
42479SOL    HW129270   1.404   2.321  11.147
42479SOL    HW229271   1.438   2.406  11.026
42480SOL     OW29272  13.159   8.751  11.928
42480SOL    HW129273  13.168   8.710  12.014
42480SOL    HW229274  13.238   8.723  11.880
42481SOL     OW29275   5.795   9.568   9.507
42481SOL    HW129276   5.729   9.612   9.454
42481SOL    HW229277   5.831   9.500   9.449
42482SOL     OW29278   2.599   3.481  11.873
42482SOL    HW129279   2.558   3.402  11.909
42482SOL    HW229280   2.535   3.551  11.889
42483SOL     OW29281   0.132   2.948   6.170
42483SOL    HW129282   0.124   3.042   6.153
42483SOL    HW229283   0.041   2.917   6.173
42484SOL     OW29284  12.618  11.310   3.320
42484SOL    HW129285  12.638  11.234   3.265
42484SOL    HW229286  12.535  11.343   3.287
42485SOL     OW29287  12.057   3.283   4.454
42485SOL    HW129288  12.118   3.215   4.482
42485SOL    HW229289  12.094   3.317   4.372
42486SOL     OW29290   9.027   5.949   0.170
42486SOL    HW129291   9.095   5.981   0.111
42486SOL    HW229292   9.073   5.889   0.229
42487SOL     OW29293   3.570   5.856  13.439
42487SOL    HW129294   3.640   5.887  13.496
42487SOL    HW229295   3.556   5.926  13.376
42488SOL     OW29296   2.674  12.191   9.552
42488SOL    HW129297   2.592  12.143   9.565
42488SOL    HW229298   2.672  12.261   9.617
42489SOL     OW29299   6.379   8.223  12.493
42489SOL    HW129300   6.400   8.286  12.424
42489SOL    HW229301   6.284   8.230  12.504
42490SOL     OW29302  14.245   1.260   6.545
42490SOL    HW129303  14.233   1.263   6.450
42490SOL    HW229304  14.199   1.338   6.577
42491SOL     OW29305   9.630   0.641   1.248
42491SOL    HW129306   9.661   0.732   1.251
42491SOL    HW229307   9.624   0.614   1.339
42492SOL     OW29308  11.429   1.224  14.087
42492SOL    HW129309  11.467   1.156  14.032
42492SOL    HW229310  11.373   1.275  14.029
42493SOL     OW29311   7.090   6.969  11.929
42493SOL    HW129312   7.042   7.036  11.881
42493SOL    HW229313   7.023   6.906  11.957
42494SOL     OW29314  11.335   8.954   5.679
42494SOL    HW129315  11.344   9.048   5.669
42494SOL    HW229316  11.422   8.919   5.659
42495SOL     OW29317   7.767  11.635  10.121
42495SOL    HW129318   7.809  11.667  10.041
42495SOL    HW229319   7.770  11.710  10.181
42496SOL     OW29320  10.896   5.421  11.674
42496SOL    HW129321  10.815   5.429  11.724
42496SOL    HW229322  10.918   5.511  11.650
42497SOL     OW29323   7.720   5.607   2.033
42497SOL    HW129324   7.761   5.562   1.959
42497SOL    HW229325   7.780   5.678   2.055
42498SOL     OW29326   7.320   7.263   3.648
42498SOL    HW129327   7.342   7.268   3.741
42498SOL    HW229328   7.402   7.288   3.603
42499SOL     OW29329   3.367   1.354  13.341
42499SOL    HW129330   3.304   1.305  13.288
42499SOL    HW229331   3.362   1.443  13.308
42500SOL     OW29332   5.178  12.771  10.639
42500SOL    HW129333   5.083  12.758  10.635
42500SOL    HW229334   5.208  12.757  10.550
42501SOL     OW29335   1.285  14.691   9.795
42501SOL    HW129336   1.350  14.708   9.727
42501SOL    HW229337   1.292  14.598   9.812
42502SOL     OW29338   3.227   5.704   2.409
42502SOL    HW129339   3.213   5.624   2.459
42502SOL    HW229340   3.201   5.774   2.469
42503SOL     OW29341  13.735   2.663  10.163
42503SOL    HW129342  13.716   2.575  10.131
42503SOL    HW229343  13.822   2.683  10.129
42504SOL     OW29344  11.531  10.699  11.311
42504SOL    HW129345  11.589  10.633  11.274
42504SOL    HW229346  11.582  10.780  11.310
42505SOL     OW29347  14.537   9.101   8.606
42505SOL    HW129348  14.543   9.193   8.577
42505SOL    HW229349  14.628   9.072   8.610
42506SOL     OW29350   3.089  14.717  14.292
42506SOL    HW129351   3.143  14.653  14.245
42506SOL    HW229352   3.039  14.665  14.355
42507SOL     OW29353   2.164   3.214  10.353
42507SOL    HW129354   2.193   3.234  10.443
42507SOL    HW229355   2.241   3.173  10.313
42508SOL     OW29356  13.709   9.227   5.100
42508SOL    HW129357  13.735   9.155   5.157
42508SOL    HW229358  13.784   9.286   5.099
42509SOL     OW29359   0.647   5.051   9.490
42509SOL    HW129360   0.587   5.026   9.560
42509SOL    HW229361   0.589   5.078   9.418
42510SOL     OW29362   4.946  13.838  13.646
42510SOL    HW129363   5.035  13.874  13.638
42510SOL    HW229364   4.890  13.914  13.656
42511SOL     OW29365  13.456   4.631   8.155
42511SOL    HW129366  13.413   4.549   8.129
42511SOL    HW229367  13.414   4.698   8.102
42512SOL     OW29368   7.840  11.836  10.793
42512SOL    HW129369   7.865  11.904  10.731
42512SOL    HW229370   7.745  11.826  10.779
42513SOL     OW29371   6.461   2.775   0.801
42513SOL    HW129372   6.548   2.738   0.819
42513SOL    HW229373   6.474   2.831   0.724
42514SOL     OW29374   1.029   4.745   2.867
42514SOL    HW129375   1.061   4.794   2.791
42514SOL    HW229376   0.966   4.684   2.831
42515SOL     OW29377  11.658   5.550   8.060
42515SOL    HW129378  11.711   5.562   7.981
42515SOL    HW229379  11.589   5.490   8.034
42516SOL     OW29380   3.101   1.256   8.203
42516SOL    HW129381   3.010   1.251   8.174
42516SOL    HW229382   3.095   1.268   8.298
42517SOL     OW29383   1.337  11.642   8.771
42517SOL    HW129384   1.294  11.712   8.722
42517SOL    HW229385   1.351  11.680   8.858
42518SOL     OW29386   4.007   5.474  10.344
42518SOL    HW129387   3.954   5.553  10.332
42518SOL    HW229388   4.094   5.499  10.313
42519SOL     OW29389   6.677   6.393  13.344
42519SOL    HW129390   6.751   6.453  13.353
42519SOL    HW229391   6.675   6.372  13.251
42520SOL     OW29392   7.936   8.077   2.557
42520SOL    HW129393   7.972   8.148   2.610
42520SOL    HW229394   7.844   8.100   2.546
42521SOL     OW29395   6.411  10.210   7.088
42521SOL    HW129396   6.505  10.206   7.074
42521SOL    HW229397   6.373  10.173   7.008
42522SOL     OW29398   6.355  13.950   8.636
42522SOL    HW129399   6.304  13.890   8.581
42522SOL    HW229400   6.337  14.037   8.600
42523SOL     OW29401  10.311   8.525  11.126
42523SOL    HW129402  10.247   8.596  11.120
42523SOL    HW229403  10.316   8.505  11.220
42524SOL     OW29404   3.284   0.190   4.785
42524SOL    HW129405   3.209   0.200   4.727
42524SOL    HW229406   3.341   0.128   4.740
42525SOL     OW29407   6.664   8.443  10.346
42525SOL    HW129408   6.759   8.442  10.333
42525SOL    HW229409   6.642   8.536  10.354
42526SOL     OW29410   3.994   7.912   5.241
42526SOL    HW129411   4.082   7.919   5.204
42526SOL    HW229412   3.954   7.840   5.192
42527SOL     OW29413  13.520   9.165   4.486
42527SOL    HW129414  13.615   9.152   4.481
42527SOL    HW229415  13.490   9.161   4.395
42528SOL     OW29416   0.667   4.464   8.317
42528SOL    HW129417   0.694   4.518   8.392
42528SOL    HW229418   0.573   4.480   8.309
42529SOL     OW29419   0.839   7.440   2.256
42529SOL    HW129420   0.787   7.424   2.177
42529SOL    HW229421   0.895   7.363   2.264
42530SOL     OW29422   5.259   3.800   3.324
42530SOL    HW129423   5.236   3.710   3.302
42530SOL    HW229424   5.355   3.799   3.333
42531SOL     OW29425  12.357   9.759  11.969
42531SOL    HW129426  12.391   9.840  11.930
42531SOL    HW229427  12.434   9.720  12.011
42532SOL     OW29428   8.757  12.354   8.021
42532SOL    HW129429   8.823  12.295   8.058
42532SOL    HW229430   8.693  12.296   7.981
42533SOL     OW29431   0.833   2.868   3.214
42533SOL    HW129432   0.835   2.963   3.207
42533SOL    HW229433   0.865   2.837   3.130
42534SOL     OW29434   2.128   7.207   9.300
42534SOL    HW129435   2.074   7.285   9.296
42534SOL    HW229436   2.128   7.182   9.392
42535SOL     OW29437   7.601   6.607   6.542
42535SOL    HW129438   7.508   6.582   6.545
42535SOL    HW229439   7.642   6.551   6.607
42536SOL     OW29440  11.755  14.095   7.816
42536SOL    HW129441  11.728  14.087   7.908
42536SOL    HW229442  11.798  14.012   7.797
42537SOL     OW29443   7.454  11.286  13.307
42537SOL    HW129444   7.363  11.259  13.293
42537SOL    HW229445   7.484  11.233  13.380
42538SOL     OW29446  10.990  12.980   1.586
42538SOL    HW129447  11.065  12.991   1.527
42538SOL    HW229448  10.914  12.998   1.532
42539SOL     OW29449   9.020   2.179  12.935
42539SOL    HW129450   9.077   2.205  13.007
42539SOL    HW229451   9.072   2.117  12.883
42540SOL     OW29452   4.179  11.123   8.088
42540SOL    HW129453   4.190  11.139   8.182
42540SOL    HW229454   4.084  11.127   8.075
42541SOL     OW29455   5.743  13.319  12.545
42541SOL    HW129456   5.804  13.321  12.619
42541SOL    HW229457   5.737  13.411  12.518
42542SOL     OW29458   7.639   1.978  10.476
42542SOL    HW129459   7.729   1.946  10.475
42542SOL    HW229460   7.630   2.026  10.394
42543SOL     OW29461  13.817   0.333   4.640
42543SOL    HW129462  13.762   0.360   4.713
42543SOL    HW229463  13.903   0.318   4.680
42544SOL     OW29464  13.864  13.914  12.792
42544SOL    HW129465  13.879  14.003  12.760
42544SOL    HW229466  13.859  13.922  12.887
42545SOL     OW29467   8.804  11.431  11.895
42545SOL    HW129468   8.727  11.438  11.838
42545SOL    HW229469   8.878  11.454  11.839
42546SOL     OW29470   9.475   5.831   2.783
42546SOL    HW129471   9.424   5.904   2.748
42546SOL    HW229472   9.435   5.753   2.745
42547SOL     OW29473   0.437  13.833  13.575
42547SOL    HW129474   0.424  13.835  13.480
42547SOL    HW229475   0.454  13.924  13.599
42548SOL     OW29476  12.815   7.651  13.419
42548SOL    HW129477  12.771   7.637  13.335
42548SOL    HW229478  12.774   7.588  13.478
42549SOL     OW29479  13.842   0.243   3.034
42549SOL    HW129480  13.858   0.149   3.031
42549SOL    HW229481  13.760   0.256   2.987
42550SOL     OW29482  13.079   9.536   1.800
42550SOL    HW129483  13.134   9.462   1.826
42550SOL    HW229484  12.996   9.496   1.774
42551SOL     OW29485  14.091   5.601   5.080
42551SOL    HW129486  14.050   5.592   5.166
42551SOL    HW229487  14.171   5.550   5.086
42552SOL     OW29488   8.015   8.231  11.513
42552SOL    HW129489   7.984   8.149  11.477
42552SOL    HW229490   8.104   8.212  11.544
42553SOL     OW29491  14.813  10.949   9.824
42553SOL    HW129492  14.770  10.945   9.738
42553SOL    HW229493  14.796  10.864   9.864
42554SOL     OW29494   7.114   3.713   3.534
42554SOL    HW129495   7.036   3.707   3.478
42554SOL    HW229496   7.184   3.674   3.482
42555SOL     OW29497  13.603   9.081   3.747
42555SOL    HW129498  13.625   9.070   3.840
42555SOL    HW229499  13.570   8.995   3.721
42556SOL     OW29500   8.318  13.282   2.608
42556SOL    HW129501   8.269  13.201   2.598
42556SOL    HW229502   8.344  13.307   2.519
42557SOL     OW29503   2.765  11.719  11.266
42557SOL    HW129504   2.773  11.690  11.357
42557SOL    HW229505   2.853  11.752  11.244
42558SOL     OW29506  11.408   5.793   3.062
42558SOL    HW129507  11.434   5.714   3.111
42558SOL    HW229508  11.433   5.865   3.119
42559SOL     OW29509  13.612   5.603  13.965
42559SOL    HW129510  13.668   5.669  14.006
42559SOL    HW229511  13.586   5.642  13.882
42560SOL     OW29512   3.934   1.385   5.408
42560SOL    HW129513   3.840   1.406   5.413
42560SOL    HW229514   3.960   1.373   5.499
42561SOL     OW29515   7.518   9.370  12.282
42561SOL    HW129516   7.590   9.420  12.320
42561SOL    HW229517   7.515   9.289  12.333
42562SOL     OW29518   7.634   6.758  11.600
42562SOL    HW129519   7.681   6.839  11.584
42562SOL    HW229520   7.572   6.751  11.527
42563SOL     OW29521  10.909   9.642   6.640
42563SOL    HW129522  10.926   9.654   6.547
42563SOL    HW229523  10.837   9.579   6.643
42564SOL     OW29524   0.511   4.045  10.861
42564SOL    HW129525   0.578   4.101  10.822
42564SOL    HW229526   0.559   3.979  10.910
42565SOL     OW29527   0.919   6.118   7.589
42565SOL    HW129528   0.954   6.201   7.622
42565SOL    HW229529   0.976   6.051   7.628
42566SOL     OW29530   7.986  14.564   3.877
42566SOL    HW129531   8.010  14.624   3.947
42566SOL    HW229532   7.897  14.536   3.898
42567SOL     OW29533  11.232   5.730   2.448
42567SOL    HW129534  11.313   5.771   2.478
42567SOL    HW229535  11.254   5.637   2.441
42568SOL     OW29536   4.698  14.087  11.747
42568SOL    HW129537   4.611  14.066  11.781
42568SOL    HW229538   4.758  14.055  11.813
42569SOL     OW29539  11.660  13.068  10.563
42569SOL    HW129540  11.667  13.033  10.475
42569SOL    HW229541  11.670  12.991  10.620
42570SOL     OW29542  10.629   8.959   9.866
42570SOL    HW129543  10.578   9.039   9.877
42570SOL    HW229544  10.566   8.896   9.830
42571SOL     OW29545   2.399   4.618   1.877
42571SOL    HW129546   2.365   4.693   1.829
42571SOL    HW229547   2.494   4.626   1.870
42572SOL     OW29548   5.871   0.583   4.327
42572SOL    HW129549   5.824   0.546   4.253
42572SOL    HW229550   5.805   0.632   4.376
42573SOL     OW29551  14.566  10.973  11.512
42573SOL    HW129552  14.498  11.035  11.485
42573SOL    HW229553  14.648  11.021  11.499
42574SOL     OW29554   0.430  10.967  13.396
42574SOL    HW129555   0.458  11.059  13.398
42574SOL    HW229556   0.509  10.920  13.370
42575SOL     OW29557   7.008   6.250  12.517
42575SOL    HW129558   7.063   6.328  12.519
42575SOL    HW229559   7.024   6.211  12.431
42576SOL     OW29560   4.570  13.309   4.341
42576SOL    HW129561   4.583  13.225   4.385
42576SOL    HW229562   4.634  13.309   4.271
42577SOL     OW29563   0.142   5.688   5.772
42577SOL    HW129564   0.177   5.666   5.685
42577SOL    HW229565   0.113   5.779   5.764
42578SOL     OW29566  13.739  14.362   9.731
42578SOL    HW129567  13.792  14.320   9.663
42578SOL    HW229568  13.740  14.299   9.803
42579SOL     OW29569   3.317  12.923   8.206
42579SOL    HW129570   3.353  12.840   8.173
42579SOL    HW229571   3.375  12.947   8.278
42580SOL     OW29572   8.734  12.497  12.134
42580SOL    HW129573   8.779  12.452  12.205
42580SOL    HW229574   8.794  12.566  12.107
42581SOL     OW29575   2.924   2.232   1.636
42581SOL    HW129576   2.970   2.257   1.716
42581SOL    HW229577   2.864   2.305   1.620
42582SOL     OW29578  12.296   0.940   3.006
42582SOL    HW129579  12.350   1.019   2.999
42582SOL    HW229580  12.245   0.954   3.086
42583SOL     OW29581  13.054   7.058  13.613
42583SOL    HW129582  12.994   7.009  13.557
42583SOL    HW229583  13.006   7.139  13.633
42584SOL     OW29584   2.702  11.722   0.619
42584SOL    HW129585   2.611  11.738   0.594
42584SOL    HW229586   2.700  11.639   0.666
42585SOL     OW29587   2.363   3.079   5.803
42585SOL    HW129588   2.412   3.084   5.885
42585SOL    HW229589   2.422   3.117   5.737
42586SOL     OW29590   8.637   0.376   3.284
42586SOL    HW129591   8.703   0.373   3.353
42586SOL    HW229592   8.606   0.286   3.276
42587SOL     OW29593   8.289   2.317   7.791
42587SOL    HW129594   8.290   2.223   7.778
42587SOL    HW229595   8.243   2.352   7.714
42588SOL     OW29596   9.774   0.222   6.714
42588SOL    HW129597   9.706   0.218   6.781
42588SOL    HW229598   9.745   0.159   6.648
42589SOL     OW29599   2.637  13.405   1.870
42589SOL    HW129600   2.632  13.500   1.860
42589SOL    HW229601   2.697  13.392   1.943
42590SOL     OW29602   9.506   4.199  13.220
42590SOL    HW129603   9.533   4.140  13.291
42590SOL    HW229604   9.580   4.203  13.161
42591SOL     OW29605   8.713   8.377   4.174
42591SOL    HW129606   8.792   8.430   4.170
42591SOL    HW229607   8.709   8.333   4.090
42592SOL     OW29608  11.261  11.329  13.264
42592SOL    HW129609  11.353  11.304  13.278
42592SOL    HW229610  11.248  11.404  13.322
42593SOL     OW29611   1.822  12.394  11.703
42593SOL    HW129612   1.797  12.319  11.757
42593SOL    HW229613   1.908  12.420  11.735
42594SOL     OW29614   4.703   0.626   6.010
42594SOL    HW129615   4.705   0.721   6.022
42594SOL    HW229616   4.756   0.592   6.083
42595SOL     OW29617   2.913   9.617  12.745
42595SOL    HW129618   2.969   9.635  12.669
42595SOL    HW229619   2.939   9.529  12.773
42596SOL     OW29620   4.747   8.405   4.533
42596SOL    HW129621   4.825   8.428   4.482
42596SOL    HW229622   4.748   8.310   4.539
42597SOL     OW29623  14.270   6.175   8.924
42597SOL    HW129624  14.305   6.132   9.002
42597SOL    HW229625  14.344   6.224   8.889
42598SOL     OW29626  13.859  11.030   1.748
42598SOL    HW129627  13.812  11.003   1.669
42598SOL    HW229628  13.790  11.044   1.812
42599SOL     OW29629   3.574   7.351   2.838
42599SOL    HW129630   3.494   7.396   2.811
42599SOL    HW229631   3.556   7.323   2.928
42600SOL     OW29632   6.192  11.696   3.530
42600SOL    HW129633   6.270  11.667   3.577
42600SOL    HW229634   6.212  11.785   3.501
42601SOL     OW29635   6.396   1.339   4.773
42601SOL    HW129636   6.453   1.393   4.828
42601SOL    HW229637   6.315   1.330   4.823
42602SOL     OW29638  12.544  11.153  14.369
42602SOL    HW129639  12.476  11.133  14.433
42602SOL    HW229640  12.591  11.227  14.406
42603SOL     OW29641  14.336  10.417  11.626
42603SOL    HW129642  14.296  10.503  11.639
42603SOL    HW229643  14.409  10.433  11.566
42604SOL     OW29644   5.023  14.547   6.700
42604SOL    HW129645   5.072  14.625   6.672
42604SOL    HW229646   4.939  14.581   6.730
42605SOL     OW29647  14.452   2.699  10.307
42605SOL    HW129648  14.514   2.695  10.234
42605SOL    HW229649  14.402   2.618  10.300
42606SOL     OW29650   3.905   1.911   3.595
42606SOL    HW129651   3.913   1.915   3.690
42606SOL    HW229652   3.944   1.827   3.572
42607SOL     OW29653   4.055   5.789  11.375
42607SOL    HW129654   4.099   5.717  11.329
42607SOL    HW229655   3.978   5.748  11.414
42608SOL     OW29656   8.777   2.721   9.339
42608SOL    HW129657   8.696   2.726   9.287
42608SOL    HW229658   8.774   2.798   9.395
42609SOL     OW29659   9.671   2.264  11.646
42609SOL    HW129660   9.757   2.239  11.678
42609SOL    HW229661   9.642   2.190  11.592
42610SOL     OW29662   4.646  11.917   3.299
42610SOL    HW129663   4.587  11.850   3.265
42610SOL    HW229664   4.648  11.984   3.231
42611SOL     OW29665   0.856   1.230   0.245
42611SOL    HW129666   0.875   1.170   0.173
42611SOL    HW229667   0.908   1.195   0.318
42612SOL     OW29668   6.923   6.304   0.493
42612SOL    HW129669   6.867   6.252   0.551
42612SOL    HW229670   6.907   6.268   0.406
42613SOL     OW29671  11.764  10.306  12.936
42613SOL    HW129672  11.741  10.397  12.917
42613SOL    HW229673  11.679  10.262  12.943
42614SOL     OW29674   8.660   1.706   8.962
42614SOL    HW129675   8.612   1.634   8.920
42614SOL    HW229676   8.723   1.662   9.019
42615SOL     OW29677   2.194  10.840   3.426
42615SOL    HW129678   2.103  10.868   3.435
42615SOL    HW229679   2.199  10.758   3.475
42616SOL     OW29680   1.616   3.797  10.156
42616SOL    HW129681   1.620   3.774  10.248
42616SOL    HW229682   1.701   3.835  10.136
42617SOL     OW29683  10.898   4.692   6.300
42617SOL    HW129684  10.944   4.708   6.382
42617SOL    HW229685  10.963   4.650   6.244
42618SOL     OW29686  11.626  10.993   4.122
42618SOL    HW129687  11.558  11.057   4.145
42618SOL    HW229688  11.647  10.950   4.205
42619SOL     OW29689   2.116  14.091   3.050
42619SOL    HW129690   2.071  14.026   2.995
42619SOL    HW229691   2.050  14.157   3.068
42620SOL     OW29692  14.489   3.270  12.676
42620SOL    HW129693  14.556   3.215  12.716
42620SOL    HW229694  14.428   3.290  12.748
42621SOL     OW29695   7.851  12.935   1.131
42621SOL    HW129696   7.817  12.851   1.101
42621SOL    HW229697   7.875  12.982   1.051
42622SOL     OW29698   2.826   9.936  13.089
42622SOL    HW129699   2.766   9.923  13.163
42622SOL    HW229700   2.903   9.977  13.128
42623SOL     OW29701   4.682   3.705  12.772
42623SOL    HW129702   4.762   3.729  12.726
42623SOL    HW229703   4.613   3.756  12.730
42624SOL     OW29704   2.242   5.833   4.166
42624SOL    HW129705   2.263   5.862   4.254
42624SOL    HW229706   2.317   5.780   4.139
42625SOL     OW29707   1.004   1.583   7.859
42625SOL    HW129708   1.056   1.544   7.788
42625SOL    HW229709   0.937   1.517   7.878
42626SOL     OW29710   7.049  12.251  14.686
42626SOL    HW129711   7.079  12.338  14.714
42626SOL    HW229712   6.970  12.269  14.635
42627SOL     OW29713   0.964   2.339   7.824
42627SOL    HW129714   0.957   2.328   7.919
42627SOL    HW229715   1.014   2.263   7.795
42628SOL     OW29716   3.649   3.484   3.918
42628SOL    HW129717   3.674   3.560   3.970
42628SOL    HW229718   3.555   3.475   3.930
42629SOL     OW29719   0.361   6.850   7.314
42629SOL    HW129720   0.268   6.873   7.317
42629SOL    HW229721   0.392   6.888   7.232
42630SOL     OW29722   5.746   9.238   6.034
42630SOL    HW129723   5.765   9.330   6.014
42630SOL    HW229724   5.758   9.231   6.128
42631SOL     OW29725  10.187   2.830   6.464
42631SOL    HW129726  10.270   2.829   6.417
42631SOL    HW229727  10.203   2.778   6.543
42632SOL     OW29728   5.111   7.409   9.620
42632SOL    HW129729   5.108   7.396   9.525
42632SOL    HW229730   5.156   7.493   9.631
42633SOL     OW29731   9.982  14.547   6.586
42633SOL    HW129732   9.902  14.596   6.567
42633SOL    HW229733  10.053  14.604   6.555
42634SOL     OW29734   2.303   7.359   3.064
42634SOL    HW129735   2.219   7.373   3.108
42634SOL    HW229736   2.301   7.419   2.990
42635SOL     OW29737   8.838  11.560   2.632
42635SOL    HW129738   8.783  11.633   2.603
42635SOL    HW229739   8.782  11.512   2.694
42636SOL     OW29740   7.011   5.639   9.929
42636SOL    HW129741   7.042   5.638  10.020
42636SOL    HW229742   7.044   5.721   9.894
42637SOL     OW29743   9.478   9.497   5.906
42637SOL    HW129744   9.533   9.482   5.829
42637SOL    HW229745   9.390   9.475   5.878
42638SOL     OW29746   6.809   0.327   7.733
42638SOL    HW129747   6.761   0.252   7.769
42638SOL    HW229748   6.844   0.373   7.809
42639SOL     OW29749  14.847   2.457  10.706
42639SOL    HW129750   0.030   2.430  10.638
42639SOL    HW229751  14.762   2.432  10.671
42640SOL     OW29752  10.651   8.180   0.310
42640SOL    HW129753  10.583   8.222   0.258
42640SOL    HW229754  10.724   8.169   0.249
42641SOL     OW29755   7.262  12.094   2.647
42641SOL    HW129756   7.204  12.133   2.581
42641SOL    HW229757   7.236  12.135   2.729
42642SOL     OW29758   7.823   8.240   1.708
42642SOL    HW129759   7.864   8.326   1.695
42642SOL    HW229760   7.737   8.249   1.666
42643SOL     OW29761  13.085   1.884  14.465
42643SOL    HW129762  13.138   1.820  14.418
42643SOL    HW229763  13.108   1.968  14.426
42644SOL     OW29764   1.613   8.304   2.274
42644SOL    HW129765   1.673   8.232   2.255
42644SOL    HW229766   1.535   8.285   2.222
42645SOL     OW29767   1.413   6.497   0.615
42645SOL    HW129768   1.419   6.447   0.697
42645SOL    HW229769   1.319   6.509   0.601
42646SOL     OW29770   1.373   2.114   7.973
42646SOL    HW129771   1.459   2.154   7.961
42646SOL    HW229772   1.391   2.024   8.000
42647SOL     OW29773   5.511   2.401   1.048
42647SOL    HW129774   5.456   2.469   1.010
42647SOL    HW229775   5.478   2.319   1.010
42648SOL     OW29776  13.416   6.985   2.087
42648SOL    HW129777  13.420   6.939   2.004
42648SOL    HW229778  13.506   6.983   2.120
42649SOL     OW29779   4.439   9.889  13.355
42649SOL    HW129780   4.453   9.806  13.310
42649SOL    HW229781   4.449   9.955  13.287
42650SOL     OW29782  13.124  10.497  10.553
42650SOL    HW129783  13.154  10.420  10.602
42650SOL    HW229784  13.036  10.514  10.589
42651SOL     OW29785   7.368   5.575  12.537
42651SOL    HW129786   7.398   5.498  12.490
42651SOL    HW229787   7.282   5.594  12.500
42652SOL     OW29788   8.020   4.163  10.344
42652SOL    HW129789   7.928   4.140  10.357
42652SOL    HW229790   8.025   4.190  10.252
42653SOL     OW29791   6.788  11.663   5.111
42653SOL    HW129792   6.697  11.633   5.116
42653SOL    HW229793   6.782  11.756   5.093
42654SOL     OW29794  13.133   5.757   3.011
42654SOL    HW129795  13.223   5.739   3.035
42654SOL    HW229796  13.084   5.750   3.093
42655SOL     OW29797  13.035  14.451   6.569
42655SOL    HW129798  13.078  14.509   6.507
42655SOL    HW229799  13.080  14.468   6.652
42656SOL     OW29800  13.190   2.254   8.580
42656SOL    HW129801  13.204   2.255   8.675
42656SOL    HW229802  13.118   2.316   8.566
42657SOL     OW29803   0.301  12.789   3.104
42657SOL    HW129804   0.328  12.810   3.014
42657SOL    HW229805   0.263  12.701   3.098
42658SOL     OW29806   0.619  12.924   7.922
42658SOL    HW129807   0.625  13.017   7.945
42658SOL    HW229808   0.532  12.914   7.882
42659SOL     OW29809   9.638   9.999   1.923
42659SOL    HW129810   9.618   9.914   1.961
42659SOL    HW229811   9.552  10.040   1.911
42660SOL     OW29812  11.552   5.202   2.013
42660SOL    HW129813  11.636   5.191   2.058
42660SOL    HW229814  11.574   5.191   1.920
42661SOL     OW29815   0.564   4.192   9.512
42661SOL    HW129816   0.493   4.256   9.517
42661SOL    HW229817   0.520   4.110   9.488
42662SOL     OW29818   8.703  12.844   8.255
42662SOL    HW129819   8.638  12.776   8.235
42662SOL    HW229820   8.729  12.826   8.345
42663SOL     OW29821  14.322   4.200   2.512
42663SOL    HW129822  14.307   4.289   2.542
42663SOL    HW229823  14.412   4.181   2.538
42664SOL     OW29824   7.796  14.319   1.314
42664SOL    HW129825   7.740  14.383   1.269
42664SOL    HW229826   7.780  14.237   1.267
42665SOL     OW29827   9.822   2.065  14.829
42665SOL    HW129828   9.816   1.970  14.826
42665SOL    HW229829   9.866   2.089  14.747
42666SOL     OW29830   1.887   6.187  12.084
42666SOL    HW129831   1.937   6.167  12.005
42666SOL    HW229832   1.821   6.250  12.056
42667SOL     OW29833   7.010  14.404  11.058
42667SOL    HW129834   7.006  14.451  11.141
42667SOL    HW229835   6.919  14.393  11.032
42668SOL     OW29836  11.192  14.076  13.926
42668SOL    HW129837  11.185  14.075  13.831
42668SOL    HW229838  11.139  14.002  13.955
42669SOL     OW29839   1.420   3.374  11.946
42669SOL    HW129840   1.481   3.436  11.907
42669SOL    HW229841   1.374   3.423  12.013
42670SOL     OW29842  10.518  11.417  14.398
42670SOL    HW129843  10.580  11.422  14.326
42670SOL    HW229844  10.568  11.444  14.475
42671SOL     OW29845   9.157   0.249  12.867
42671SOL    HW129846   9.223   0.215  12.928
42671SOL    HW229847   9.165   0.344  12.874
42672SOL     OW29848   3.009   9.831  11.533
42672SOL    HW129849   3.044   9.762  11.588
42672SOL    HW229850   3.071   9.903  11.541
42673SOL     OW29851   4.530   2.760   9.447
42673SOL    HW129852   4.610   2.707   9.453
42673SOL    HW229853   4.529   2.792   9.357
42674SOL     OW29854   1.394   5.506   6.514
42674SOL    HW129855   1.392   5.422   6.560
42674SOL    HW229856   1.377   5.484   6.423
42675SOL     OW29857  10.994   0.712  13.613
42675SOL    HW129858  10.908   0.747  13.634
42675SOL    HW229859  10.986   0.618  13.625
42676SOL     OW29860   1.498   5.129   1.115
42676SOL    HW129861   1.496   5.214   1.159
42676SOL    HW229862   1.410   5.093   1.128
42677SOL     OW29863   3.292   7.538   6.413
42677SOL    HW129864   3.272   7.522   6.321
42677SOL    HW229865   3.372   7.590   6.412
42678SOL     OW29866  10.640   7.601   4.901
42678SOL    HW129867  10.715   7.661   4.904
42678SOL    HW229868  10.570   7.649   4.945
42679SOL     OW29869   3.046  12.276  10.270
42679SOL    HW129870   3.089  12.360  10.290
42679SOL    HW229871   2.963  12.300  10.228
42680SOL     OW29872  12.745  10.849   1.804
42680SOL    HW129873  12.760  10.779   1.740
42680SOL    HW229874  12.680  10.813   1.864
42681SOL     OW29875   9.762   1.311   1.162
42681SOL    HW129876   9.846   1.290   1.202
42681SOL    HW229877   9.773   1.286   1.070
42682SOL     OW29878   8.259   4.334   9.327
42682SOL    HW129879   8.338   4.307   9.279
42682SOL    HW229880   8.233   4.416   9.286
42683SOL     OW29881   0.001   1.939  12.336
42683SOL    HW129882  14.844   1.978  12.256
42683SOL    HW229883   0.094   1.926  12.317
42684SOL     OW29884   4.617   5.553   5.763
42684SOL    HW129885   4.581   5.498   5.833
42684SOL    HW229886   4.543   5.607   5.735
42685SOL     OW29887  12.540  11.315   6.293
42685SOL    HW129888  12.533  11.405   6.259
42685SOL    HW229889  12.544  11.325   6.388
42686SOL     OW29890   8.254   1.514   0.709
42686SOL    HW129891   8.296   1.444   0.660
42686SOL    HW229892   8.256   1.485   0.800
42687SOL     OW29893   2.687  14.857   7.442
42687SOL    HW129894   2.625   0.021   7.501
42687SOL    HW229895   2.632  14.818   7.374
42688SOL     OW29896   1.973  10.107   7.291
42688SOL    HW129897   1.992  10.027   7.339
42688SOL    HW229898   1.976  10.081   7.199
42689SOL     OW29899  14.838   1.671  13.120
42689SOL    HW129900  14.824   1.602  13.185
42689SOL    HW229901  14.810   1.633  13.037
42690SOL     OW29902   5.786   6.896  13.605
42690SOL    HW129903   5.868   6.928  13.642
42690SOL    HW229904   5.792   6.918  13.512
42691SOL     OW29905   7.057   3.718   4.516
42691SOL    HW129906   7.085   3.805   4.488
42691SOL    HW229907   7.082   3.713   4.608
42692SOL     OW29908   2.778   8.022   7.395
42692SOL    HW129909   2.784   8.115   7.417
42692SOL    HW229910   2.703   7.991   7.446
42693SOL     OW29911  13.804  10.951   0.833
42693SOL    HW129912  13.720  10.914   0.857
42693SOL    HW229913  13.787  10.997   0.751
42694SOL     OW29914   5.660   7.118   0.928
42694SOL    HW129915   5.670   7.197   0.980
42694SOL    HW229916   5.590   7.139   0.866
42695SOL     OW29917   6.073   3.010   7.340
42695SOL    HW129918   6.163   3.035   7.319
42695SOL    HW229919   6.054   3.056   7.422
42696SOL     OW29920   0.761   3.189   9.922
42696SOL    HW129921   0.744   3.272   9.877
42696SOL    HW229922   0.848   3.200   9.959
42697SOL     OW29923   8.244   2.751   2.370
42697SOL    HW129924   8.161   2.715   2.341
42697SOL    HW229925   8.276   2.804   2.296
42698SOL     OW29926   9.323  14.288   1.484
42698SOL    HW129927   9.282  14.209   1.450
42698SOL    HW229928   9.358  14.332   1.406
42699SOL     OW29929   6.909   3.085  12.389
42699SOL    HW129930   6.941   3.041  12.310
42699SOL    HW229931   6.959   3.167  12.392
42700SOL     OW29932   0.305   9.792  14.563
42700SOL    HW129933   0.218   9.767  14.533
42700SOL    HW229934   0.301   9.783  14.659
42701SOL     OW29935   1.244  13.769   5.319
42701SOL    HW129936   1.176  13.743   5.256
42701SOL    HW229937   1.205  13.843   5.366
42702SOL     OW29938   8.921   5.283   1.979
42702SOL    HW129939   8.862   5.255   1.909
42702SOL    HW229940   9.006   5.291   1.936
42703SOL     OW29941  11.143   8.613  13.983
42703SOL    HW129942  11.092   8.642  14.058
42703SOL    HW229943  11.148   8.689  13.925
42704SOL     OW29944   1.561  14.757   5.934
42704SOL    HW129945   1.651  14.789   5.947
42704SOL    HW229946   1.506  14.822   5.978
42705SOL     OW29947   2.887   0.764  10.039
42705SOL    HW129948   2.902   0.792   9.949
42705SOL    HW229949   2.795   0.738  10.041
42706SOL     OW29950   2.907   5.569   2.789
42706SOL    HW129951   2.905   5.487   2.838
42706SOL    HW229952   2.969   5.624   2.837
42707SOL     OW29953   5.752   4.271  10.694
42707SOL    HW129954   5.762   4.327  10.617
42707SOL    HW229955   5.676   4.308  10.741
42708SOL     OW29956   8.388   8.395  10.426
42708SOL    HW129957   8.405   8.382  10.519
42708SOL    HW229958   8.328   8.324  10.403
42709SOL     OW29959  14.868   1.093   4.955
42709SOL    HW129960  14.822   1.010   4.965
42709SOL    HW229961  14.872   1.129   5.044
42710SOL     OW29962  13.491   6.465  10.680
42710SOL    HW129963  13.558   6.477  10.747
42710SOL    HW229964  13.503   6.376  10.649
42711SOL     OW29965   1.103  10.078  10.963
42711SOL    HW129966   1.194  10.086  10.991
42711SOL    HW229967   1.105  10.014  10.891
42712SOL     OW29968   0.544   0.858   7.606
42712SOL    HW129969   0.511   0.858   7.696
42712SOL    HW229970   0.489   0.794   7.560
42713SOL     OW29971  14.770   4.253   0.903
42713SOL    HW129972  14.837   4.193   0.936
42713SOL    HW229973  14.762   4.232   0.810
42714SOL     OW29974  13.725   6.451  13.804
42714SOL    HW129975  13.782   6.517  13.842
42714SOL    HW229976  13.779   6.372  13.800
42715SOL     OW29977   6.265   9.079   5.212
42715SOL    HW129978   6.330   9.015   5.241
42715SOL    HW229979   6.210   9.094   5.289
42716SOL     OW29980   1.688   2.045   2.323
42716SOL    HW129981   1.763   2.039   2.382
42716SOL    HW229982   1.614   2.067   2.380
42717SOL     OW29983   0.900   5.282  13.142
42717SOL    HW129984   0.918   5.376  13.154
42717SOL    HW229985   0.983   5.247  13.108
42718SOL     OW29986  10.944   2.128  14.734
42718SOL    HW129987  10.961   2.211  14.778
42718SOL    HW229988  11.024   2.077  14.746
42719SOL     OW29989   1.215   4.578   3.033
42719SOL    HW129990   1.160   4.542   3.103
42719SOL    HW229991   1.153   4.616   2.971
42720SOL     OW29992   7.995   0.480   0.819
42720SOL    HW129993   8.083   0.514   0.800
42720SOL    HW229994   8.011   0.397   0.865
42721SOL     OW29995  12.211   7.019  11.801
42721SOL    HW129996  12.217   6.932  11.840
42721SOL    HW229997  12.301   7.048  11.793
42722SOL     OW29998   4.683   6.077   4.828
42722SOL    HW129999   4.664   6.084   4.735
42722SOL    HW230000   4.680   5.983   4.846
42723SOL     OW30001  10.718  13.918   5.919
42723SOL    HW130002  10.690  13.830   5.892
42723SOL    HW230003  10.754  13.906   6.006
42724SOL     OW30004  10.788   6.390   2.841
42724SOL    HW130005  10.877   6.379   2.874
42724SOL    HW230006  10.732   6.371   2.916
42725SOL     OW30007  10.389  13.979   7.462
42725SOL    HW130008  10.347  13.893   7.457
42725SOL    HW230009  10.321  14.041   7.440
42726SOL     OW30010   9.199  14.107   7.344
42726SOL    HW130011   9.125  14.137   7.291
42726SOL    HW230012   9.161  14.088   7.429
42727SOL     OW30013   8.180  10.791   9.000
42727SOL    HW130014   8.163  10.862   9.061
42727SOL    HW230015   8.269  10.807   8.969
42728SOL     OW30016   4.414   7.105  11.448
42728SOL    HW130017   4.367   7.161  11.386
42728SOL    HW230018   4.397   7.144  11.534
42729SOL     OW30019   2.783  10.914   2.887
42729SOL    HW130020   2.807  11.001   2.917
42729SOL    HW230021   2.695  10.899   2.922
42730SOL     OW30022  12.629   0.428   4.016
42730SOL    HW130023  12.614   0.355   3.956
42730SOL    HW230024  12.541   0.458   4.040
42731SOL     OW30025   9.785   2.773   1.672
42731SOL    HW130026   9.831   2.852   1.644
42731SOL    HW230027   9.807   2.708   1.606
42732SOL     OW30028  11.414   1.516   8.541
42732SOL    HW130029  11.411   1.429   8.580
42732SOL    HW230030  11.347   1.514   8.473
42733SOL     OW30031   2.303  14.325  10.250
42733SOL    HW130032   2.342  14.408  10.281
42733SOL    HW230033   2.302  14.334  10.154
42734SOL     OW30034  13.672   5.137   1.644
42734SOL    HW130035  13.715   5.052   1.645
42734SOL    HW230036  13.717   5.188   1.711
42735SOL     OW30037   8.506  14.631   4.209
42735SOL    HW130038   8.488  14.633   4.115
42735SOL    HW230039   8.601  14.627   4.215
42736SOL     OW30040   5.752   5.320   8.638
42736SOL    HW130041   5.658   5.304   8.649
42736SOL    HW230042   5.757   5.408   8.601
42737SOL     OW30043  11.673  10.687  14.665
42737SOL    HW130044  11.667  10.613  14.725
42737SOL    HW230045  11.761  10.682  14.628
42738SOL     OW30046  10.586  12.968   3.254
42738SOL    HW130047  10.607  12.998   3.342
42738SOL    HW230048  10.566  12.875   3.264
42739SOL     OW30049  10.626  11.648   6.522
42739SOL    HW130050  10.616  11.612   6.610
42739SOL    HW230051  10.537  11.663   6.492
42740SOL     OW30052   4.367   3.323  14.163
42740SOL    HW130053   4.433   3.258  14.185
42740SOL    HW230054   4.407   3.376  14.093
42741SOL     OW30055  14.499   6.254   9.299
42741SOL    HW130056  14.582   6.277   9.340
42741SOL    HW230057  14.441   6.231   9.372
42742SOL     OW30058   2.439   5.916   9.266
42742SOL    HW130059   2.393   5.983   9.316
42742SOL    HW230060   2.523   5.955   9.245
42743SOL     OW30061   8.095  11.623  11.320
42743SOL    HW130062   8.148  11.565  11.266
42743SOL    HW230063   8.016  11.572  11.340
42744SOL     OW30064   2.079  14.213  11.932
42744SOL    HW130065   2.109  14.197  12.022
42744SOL    HW230066   2.155  14.193  11.877
42745SOL     OW30067   1.332   5.755  12.662
42745SOL    HW130068   1.246   5.794  12.644
42745SOL    HW230069   1.391   5.830  12.672
42746SOL     OW30070  12.355  14.551   6.418
42746SOL    HW130071  12.356  14.516   6.329
42746SOL    HW230072  12.291  14.622   6.416
42747SOL     OW30073   4.242  12.674  13.559
42747SOL    HW130074   4.299  12.750  13.568
42747SOL    HW230075   4.171  12.704  13.502
42748SOL     OW30076   2.232   1.348  11.870
42748SOL    HW130077   2.314   1.396  11.885
42748SOL    HW230078   2.246   1.264  11.912
42749SOL     OW30079  14.145   2.668   0.505
42749SOL    HW130080  14.119   2.647   0.415
42749SOL    HW230081  14.092   2.744   0.529
42750SOL     OW30082  13.483  10.084  11.925
42750SOL    HW130083  13.560  10.139  11.941
42750SOL    HW230084  13.426  10.101  11.999
42751SOL     OW30085  10.495   6.413   1.035
42751SOL    HW130086  10.545   6.332   1.029
42751SOL    HW230087  10.482   6.440   0.944
42752SOL     OW30088   0.649   5.679   6.494
42752SOL    HW130089   0.640   5.765   6.453
42752SOL    HW230090   0.582   5.625   6.453
42753SOL     OW30091   4.718   9.093   8.117
42753SOL    HW130092   4.644   9.033   8.119
42753SOL    HW230093   4.701   9.155   8.188
42754SOL     OW30094   2.588   9.606   8.214
42754SOL    HW130095   2.682   9.609   8.234
42754SOL    HW230096   2.576   9.671   8.146
42755SOL     OW30097   1.939   0.674  14.830
42755SOL    HW130098   1.867   0.671   0.013
42755SOL    HW230099   1.933   0.591  14.782
42756SOL     OW30100  12.525   2.597   5.318
42756SOL    HW130101  12.598   2.588   5.379
42756SOL    HW230102  12.564   2.637   5.240
42757SOL     OW30103   8.879   2.700   4.574
42757SOL    HW130104   8.796   2.654   4.584
42757SOL    HW230105   8.945   2.637   4.606
42758SOL     OW30106  12.039  14.258   3.893
42758SOL    HW130107  12.016  14.234   3.983
42758SOL    HW230108  12.107  14.195   3.869
42759SOL     OW30109   5.722   4.962   8.886
42759SOL    HW130110   5.751   5.051   8.905
42759SOL    HW230111   5.712   4.921   8.972
42760SOL     OW30112   1.711   1.269  12.636
42760SOL    HW130113   1.635   1.315  12.672
42760SOL    HW230114   1.784   1.330  12.648
42761SOL     OW30115   7.961   3.390   2.241
42761SOL    HW130116   7.933   3.309   2.198
42761SOL    HW230117   7.906   3.458   2.202
42762SOL     OW30118   3.801   6.074   1.379
42762SOL    HW130119   3.739   6.070   1.452
42762SOL    HW230120   3.749   6.049   1.302
42763SOL     OW30121   7.340   1.112  11.088
42763SOL    HW130122   7.328   1.056  11.012
42763SOL    HW230123   7.430   1.098  11.115
42764SOL     OW30124   4.206   7.247  12.183
42764SOL    HW130125   4.179   7.157  12.200
42764SOL    HW230126   4.126   7.291  12.153
42765SOL     OW30127  14.057   3.229   1.483
42765SOL    HW130128  14.023   3.147   1.518
42765SOL    HW230129  14.129   3.252   1.542
42766SOL     OW30130   4.870  12.855   2.733
42766SOL    HW130131   4.863  12.815   2.646
42766SOL    HW230132   4.962  12.849   2.755
42767SOL     OW30133   3.460   6.985   0.396
42767SOL    HW130134   3.394   6.937   0.346
42767SOL    HW230135   3.428   6.984   0.486
42768SOL     OW30136   3.778   8.973   3.096
42768SOL    HW130137   3.755   8.902   3.156
42768SOL    HW230138   3.722   8.960   3.020
42769SOL     OW30139   5.211  10.796   4.418
42769SOL    HW130140   5.279  10.760   4.361
42769SOL    HW230141   5.154  10.845   4.359
42770SOL     OW30142   9.029  14.734   6.137
42770SOL    HW130143   8.967  14.770   6.074
42770SOL    HW230144   8.982  14.734   6.220
42771SOL     OW30145   0.562  10.253   4.136
42771SOL    HW130146   0.492  10.299   4.183
42771SOL    HW230147   0.604  10.198   4.202
42772SOL     OW30148   5.429   4.681   4.475
42772SOL    HW130149   5.380   4.752   4.516
42772SOL    HW230150   5.509   4.674   4.526
42773SOL     OW30151   3.679   2.479  13.253
42773SOL    HW130152   3.643   2.501  13.168
42773SOL    HW230153   3.609   2.430  13.297
42774SOL     OW30154  14.871   0.753  11.675
42774SOL    HW130155   0.045   0.817  11.627
42774SOL    HW230156  14.829   0.701  11.607
42775SOL     OW30157   6.112  11.984   3.289
42775SOL    HW130158   6.040  11.959   3.347
42775SOL    HW230159   6.190  11.983   3.345
42776SOL     OW30160   0.915   0.205   2.602
42776SOL    HW130161   0.883   0.295   2.596
42776SOL    HW230162   0.856   0.163   2.664
42777SOL     OW30163   9.205   8.059   5.167
42777SOL    HW130164   9.157   7.994   5.217
42777SOL    HW230165   9.156   8.140   5.180
42778SOL     OW30166   7.298   0.006   8.077
42778SOL    HW130167   7.362   0.069   8.111
42778SOL    HW230168   7.304   0.016   7.982
42779SOL     OW30169  14.570   6.949   7.500
42779SOL    HW130170  14.531   6.954   7.587
42779SOL    HW230171  14.601   7.037   7.482
42780SOL     OW30172   9.815   1.320   6.383
42780SOL    HW130173   9.797   1.265   6.460
42780SOL    HW230174   9.843   1.404   6.420
42781SOL     OW30175  13.519   9.631   8.363
42781SOL    HW130176  13.505   9.538   8.348
42781SOL    HW230177  13.437   9.673   8.336
42782SOL     OW30178   3.049   5.952   7.054
42782SOL    HW130179   3.046   6.008   7.132
42782SOL    HW230180   3.018   5.867   7.085
42783SOL     OW30181   5.915  12.758   3.154
42783SOL    HW130182   5.867  12.692   3.205
42783SOL    HW230183   5.847  12.809   3.111
42784SOL     OW30184   1.781   8.371   6.846
42784SOL    HW130185   1.748   8.295   6.894
42784SOL    HW230186   1.873   8.351   6.828
42785SOL     OW30187   4.525   5.807  12.960
42785SOL    HW130188   4.462   5.866  13.001
42785SOL    HW230189   4.520   5.829  12.867
42786SOL     OW30190  12.109   6.770   2.104
42786SOL    HW130191  12.105   6.769   2.200
42786SOL    HW230192  12.032   6.821   2.078
42787SOL     OW30193  12.650   2.415  11.369
42787SOL    HW130194  12.651   2.423  11.274
42787SOL    HW230195  12.564   2.448  11.395
42788SOL     OW30196   6.307   5.367   5.684
42788SOL    HW130197   6.391   5.393   5.645
42788SOL    HW230198   6.284   5.440   5.742
42789SOL     OW30199   8.141   9.211  11.447
42789SOL    HW130200   8.164   9.119  11.430
42789SOL    HW230201   8.225   9.256  11.449
42790SOL     OW30202  13.124   9.963   0.567
42790SOL    HW130203  13.154   9.942   0.479
42790SOL    HW230204  13.203   9.989   0.614
42791SOL     OW30205   3.700  13.694   6.988
42791SOL    HW130206   3.656  13.770   7.027
42791SOL    HW230207   3.643  13.667   6.916
42792SOL     OW30208   3.839   5.664   6.817
42792SOL    HW130209   3.743   5.662   6.818
42792SOL    HW230210   3.863   5.726   6.886
42793SOL     OW30211  14.645  10.745   5.184
42793SOL    HW130212  14.624  10.671   5.242
42793SOL    HW230213  14.738  10.763   5.202
42794SOL     OW30214  10.815   4.406  11.573
42794SOL    HW130215  10.770   4.322  11.566
42794SOL    HW230216  10.886   4.400  11.509
42795SOL     OW30217   3.746  12.477  10.851
42795SOL    HW130218   3.767  12.566  10.879
42795SOL    HW230219   3.658  12.484  10.814
42796SOL     OW30220  11.214   8.276   5.781
42796SOL    HW130221  11.270   8.260   5.705
42796SOL    HW230222  11.259   8.233   5.853
42797SOL     OW30223  11.309   7.848  10.195
42797SOL    HW130224  11.307   7.753  10.196
42797SOL    HW230225  11.224   7.874  10.231
42798SOL     OW30226   7.751   6.842   1.688
42798SOL    HW130227   7.739   6.788   1.767
42798SOL    HW230228   7.722   6.929   1.714
42799SOL     OW30229   2.891  10.334   7.113
42799SOL    HW130230   2.953  10.393   7.156
42799SOL    HW230231   2.859  10.384   7.038
42800SOL     OW30232   6.298  14.802  10.310
42800SOL    HW130233   6.280   0.009  10.273
42800SOL    HW230234   6.275  14.741  10.240
42801SOL     OW30235   2.441   2.494  12.684
42801SOL    HW130236   2.466   2.586  12.693
42801SOL    HW230237   2.364   2.484  12.739
42802SOL     OW30238   1.876   7.025   8.824
42802SOL    HW130239   1.866   7.108   8.870
42802SOL    HW230240   1.965   6.997   8.844
42803SOL     OW30241   8.134   3.318   3.308
42803SOL    HW130242   8.187   3.331   3.229
42803SOL    HW230243   8.111   3.406   3.336
42804SOL     OW30244  11.454   1.837   1.606
42804SOL    HW130245  11.398   1.760   1.612
42804SOL    HW230246  11.395   1.908   1.580
42805SOL     OW30247   7.994  11.731   0.798
42805SOL    HW130248   7.950  11.811   0.768
42805SOL    HW230249   7.930  11.662   0.781
42806SOL     OW30250   2.346   1.573   6.486
42806SOL    HW130251   2.377   1.497   6.437
42806SOL    HW230252   2.363   1.648   6.430
42807SOL     OW30253   6.733  13.578   5.490
42807SOL    HW130254   6.679  13.638   5.541
42807SOL    HW230255   6.684  13.567   5.408
42808SOL     OW30256   3.686   9.709   6.969
42808SOL    HW130257   3.737   9.728   6.890
42808SOL    HW230258   3.697   9.786   7.024
42809SOL     OW30259   8.880   4.917   0.243
42809SOL    HW130260   8.785   4.905   0.245
42809SOL    HW230261   8.894   4.980   0.172
42810SOL     OW30262   6.741   7.601   7.752
42810SOL    HW130263   6.729   7.525   7.694
42810SOL    HW230264   6.752   7.562   7.839
42811SOL     OW30265   7.813  12.432  12.475
42811SOL    HW130266   7.853  12.496  12.533
42811SOL    HW230267   7.753  12.483  12.421
42812SOL     OW30268  13.160   7.735   4.062
42812SOL    HW130269  13.228   7.798   4.084
42812SOL    HW230270  13.110   7.776   3.992
42813SOL     OW30271  13.753   2.724  10.982
42813SOL    HW130272  13.747   2.666  10.906
42813SOL    HW230273  13.847   2.727  11.002
42814SOL     OW30274   4.323   7.944   2.790
42814SOL    HW130275   4.353   7.937   2.700
42814SOL    HW230276   4.262   7.871   2.801
42815SOL     OW30277   2.875   6.167   6.286
42815SOL    HW130278   2.902   6.258   6.302
42815SOL    HW230279   2.812   6.148   6.356
42816SOL     OW30280   2.203   8.384   4.824
42816SOL    HW130281   2.299   8.392   4.831
42816SOL    HW230282   2.170   8.472   4.846
42817SOL     OW30283  12.945   1.709  10.823
42817SOL    HW130284  12.869   1.695  10.880
42817SOL    HW230285  13.019   1.713  10.883
42818SOL     OW30286   8.639   7.679   9.293
42818SOL    HW130287   8.624   7.769   9.320
42818SOL    HW230288   8.663   7.633   9.373
42819SOL     OW30289   5.971  10.606   1.091
42819SOL    HW130290   6.003  10.522   1.124
42819SOL    HW230291   5.889  10.620   1.137
42820SOL     OW30292   2.266   7.106   4.718
42820SOL    HW130293   2.347   7.080   4.763
42820SOL    HW230294   2.196   7.077   4.776
42821SOL     OW30295   7.486   2.075  12.506
42821SOL    HW130296   7.560   2.021  12.533
42821SOL    HW230297   7.468   2.049  12.416
42822SOL     OW30298   5.293   7.346  10.948
42822SOL    HW130299   5.354   7.310  10.884
42822SOL    HW230300   5.337   7.424  10.982
42823SOL     OW30301   0.342  13.656   0.792
42823SOL    HW130302   0.248  13.644   0.808
42823SOL    HW230303   0.349  13.744   0.756
42824SOL     OW30304   9.512  10.296   1.049
42824SOL    HW130305   9.507  10.288   1.144
42824SOL    HW230306   9.566  10.223   1.021
42825SOL     OW30307  13.133   8.398  12.029
42825SOL    HW130308  13.128   8.400  11.933
42825SOL    HW230309  13.224   8.421  12.049
42826SOL     OW30310  10.607   2.014   6.096
42826SOL    HW130311  10.625   2.100   6.134
42826SOL    HW230312  10.694   1.977   6.080
42827SOL     OW30313   8.758   6.771   0.475
42827SOL    HW130314   8.829   6.832   0.458
42827SOL    HW230315   8.714   6.807   0.553
42828SOL     OW30316   7.860  14.199  10.102
42828SOL    HW130317   7.778  14.178  10.148
42828SOL    HW230318   7.854  14.293  10.084
42829SOL     OW30319   6.832   9.271   9.501
42829SOL    HW130320   6.767   9.241   9.565
42829SOL    HW230321   6.782   9.325   9.440
42830SOL     OW30322   2.561   0.850   2.095
42830SOL    HW130323   2.584   0.852   2.003
42830SOL    HW230324   2.600   0.929   2.132
42831SOL     OW30325   4.367   6.456  11.501
42831SOL    HW130326   4.335   6.426  11.586
42831SOL    HW230327   4.326   6.542  11.489
42832SOL     OW30328  11.161   2.005   0.004
42832SOL    HW130329  11.094   1.974   0.064
42832SOL    HW230330  11.236   1.947   0.019
42833SOL     OW30331   9.509  12.386   1.359
42833SOL    HW130332   9.421  12.351   1.373
42833SOL    HW230333   9.503  12.478   1.383
42834SOL     OW30334   9.248  10.844   8.878
42834SOL    HW130335   9.204  10.920   8.841
42834SOL    HW230336   9.258  10.865   8.971
42835SOL     OW30337   7.875  12.134  14.003
42835SOL    HW130338   7.849  12.067  13.940
42835SOL    HW230339   7.953  12.098  14.045
42836SOL     OW30340   7.880   9.597   6.532
42836SOL    HW130341   7.974   9.586   6.544
42836SOL    HW230342   7.841   9.539   6.598
42837SOL     OW30343   8.762   6.391  12.941
42837SOL    HW130344   8.708   6.323  12.982
42837SOL    HW230345   8.742   6.470  12.992
42838SOL     OW30346  13.217  10.611  12.737
42838SOL    HW130347  13.220  10.516  12.724
42838SOL    HW230348  13.259  10.648  12.659
42839SOL     OW30349   6.312  12.538   3.576
42839SOL    HW130350   6.275  12.475   3.638
42839SOL    HW230351   6.375  12.588   3.628
42840SOL     OW30352   0.912   2.345   8.691
42840SOL    HW130353   0.893   2.419   8.633
42840SOL    HW230354   0.924   2.271   8.631
42841SOL     OW30355  12.079   0.452  13.182
42841SOL    HW130356  12.020   0.504  13.127
42841SOL    HW230357  12.114   0.515  13.245
42842SOL     OW30358   6.143  10.532  12.051
42842SOL    HW130359   6.127  10.572  12.136
42842SOL    HW230360   6.071  10.470  12.038
42843SOL     OW30361  14.080  12.706  13.365
42843SOL    HW130362  14.127  12.788  13.352
42843SOL    HW230363  14.000  12.731  13.411
42844SOL     OW30364   3.185  11.779  11.848
42844SOL    HW130365   3.208  11.702  11.797
42844SOL    HW230366   3.208  11.756  11.938
42845SOL     OW30367   5.235  10.473  13.311
42845SOL    HW130368   5.310  10.532  13.308
42845SOL    HW230369   5.159  10.530  13.296
42846SOL     OW30370   8.226   1.993  14.332
42846SOL    HW130371   8.216   2.084  14.361
42846SOL    HW230372   8.136   1.962  14.318
42847SOL     OW30373   6.964   7.323   5.507
42847SOL    HW130374   7.006   7.266   5.572
42847SOL    HW230375   6.875   7.336   5.541
42848SOL     OW30376   5.079   9.761   1.818
42848SOL    HW130377   5.169   9.769   1.850
42848SOL    HW230378   5.063   9.666   1.816
42849SOL     OW30379   0.963   5.755   8.932
42849SOL    HW130380   0.873   5.731   8.913
42849SOL    HW230381   0.965   5.850   8.923
42850SOL     OW30382  12.675   5.286   9.679
42850SOL    HW130383  12.624   5.226   9.733
42850SOL    HW230384  12.654   5.261   9.589
42851SOL     OW30385   5.414  12.281  12.784
42851SOL    HW130386   5.410  12.374  12.807
42851SOL    HW230387   5.505  12.265  12.761
42852SOL     OW30388  14.131   5.665   8.766
42852SOL    HW130389  14.045   5.625   8.778
42852SOL    HW230390  14.184   5.597   8.725
42853SOL     OW30391   4.097   3.741  14.213
42853SOL    HW130392   4.008   3.708  14.224
42853SOL    HW230393   4.141   3.722  14.296
42854SOL     OW30394  14.609   6.605   9.217
42854SOL    HW130395  14.560   6.616   9.298
42854SOL    HW230396  14.699   6.590   9.245
42855SOL     OW30397   1.157   3.621  14.839
42855SOL    HW130398   1.167   3.716  14.831
42855SOL    HW230399   1.162   3.604   0.054
42856SOL     OW30400   2.940   8.910  13.313
42856SOL    HW130401   2.891   8.889  13.233
42856SOL    HW230402   2.878   8.892  13.384
42857SOL     OW30403   3.906  11.032   5.175
42857SOL    HW130404   3.895  11.040   5.081
42857SOL    HW230405   3.818  11.042   5.211
42858SOL     OW30406   5.979   6.578  14.077
42858SOL    HW130407   5.901   6.590  14.131
42858SOL    HW230408   5.961   6.628  13.997
42859SOL     OW30409   1.707   8.584   4.447
42859SOL    HW130410   1.759   8.508   4.473
42859SOL    HW230411   1.766   8.634   4.391
42860SOL     OW30412   1.207   5.992   9.944
42860SOL    HW130413   1.206   5.901   9.975
42860SOL    HW230414   1.288   6.029   9.979
42861SOL     OW30415  11.497  11.294  13.030
42861SOL    HW130416  11.419  11.344  13.008
42861SOL    HW230417  11.569  11.340  12.986
42862SOL     OW30418   5.109   5.347   5.153
42862SOL    HW130419   5.180   5.291   5.122
42862SOL    HW230420   5.031   5.315   5.108
42863SOL     OW30421  10.698  13.447   5.480
42863SOL    HW130422  10.669  13.434   5.570
42863SOL    HW230423  10.791  13.468   5.488
42864SOL     OW30424   9.101   4.439  12.011
42864SOL    HW130425   9.098   4.349  11.979
42864SOL    HW230426   9.139   4.432  12.099
42865SOL     OW30427   9.013   3.056   7.632
42865SOL    HW130428   9.012   3.100   7.547
42865SOL    HW230429   9.102   3.069   7.665
42866SOL     OW30430   3.403   7.847  10.484
42866SOL    HW130431   3.459   7.910  10.439
42866SOL    HW230432   3.420   7.862  10.577
42867SOL     OW30433   4.346   6.933  10.488
42867SOL    HW130434   4.311   6.875  10.556
42867SOL    HW230435   4.304   7.017  10.503
42868SOL     OW30436   0.368   1.934  13.983
42868SOL    HW130437   0.438   1.879  14.019
42868SOL    HW230438   0.360   1.906  13.892
42869SOL     OW30439  12.083   8.393   7.529
42869SOL    HW130440  12.160   8.414   7.583
42869SOL    HW230441  12.051   8.311   7.565
42870SOL     OW30442   7.061   5.540  13.565
42870SOL    HW130443   6.970   5.546  13.593
42870SOL    HW230444   7.082   5.627  13.530
42871SOL     OW30445   5.254   6.498   1.965
42871SOL    HW130446   5.226   6.577   1.919
42871SOL    HW230447   5.309   6.530   2.036
42872SOL     OW30448   3.415   7.609   2.477
42872SOL    HW130449   3.350   7.558   2.526
42872SOL    HW230450   3.465   7.543   2.428
42873SOL     OW30451   9.095   8.363  11.064
42873SOL    HW130452   9.034   8.290  11.074
42873SOL    HW230453   9.039   8.441  11.068
42874SOL     OW30454  11.981   6.488  12.363
42874SOL    HW130455  11.897   6.484  12.410
42874SOL    HW230456  12.039   6.535  12.423
42875SOL     OW30457  12.116   0.055  11.846
42875SOL    HW130458  12.207   0.082  11.861
42875SOL    HW230459  12.118   0.012  11.760
42876SOL     OW30460   1.472   7.579   2.420
42876SOL    HW130461   1.478   7.650   2.356
42876SOL    HW230462   1.534   7.513   2.389
42877SOL     OW30463   5.926   3.074   7.610
42877SOL    HW130464   5.839   3.034   7.612
42877SOL    HW230465   5.973   3.034   7.683
42878SOL     OW30466   2.083   7.575  13.530
42878SOL    HW130467   1.994   7.565  13.496
42878SOL    HW230468   2.129   7.496  13.499
42879SOL     OW30469   8.656   3.223   7.044
42879SOL    HW130470   8.627   3.145   6.997
42879SOL    HW230471   8.746   3.205   7.069
42880SOL     OW30472   3.309   1.442   1.381
42880SOL    HW130473   3.401   1.471   1.383
42880SOL    HW230474   3.260   1.515   1.417
42881SOL     OW30475   9.547   2.730   3.030
42881SOL    HW130476   9.563   2.707   2.939
42881SOL    HW230477   9.472   2.677   3.056
42882SOL     OW30478   3.196   5.438   6.704
42882SOL    HW130479   3.224   5.529   6.715
42882SOL    HW230480   3.277   5.387   6.705
42883SOL     OW30481  13.337   7.102   6.931
42883SOL    HW130482  13.355   7.074   6.841
42883SOL    HW230483  13.268   7.043   6.961
42884SOL     OW30484   4.696   4.997   5.777
42884SOL    HW130485   4.720   4.905   5.765
42884SOL    HW230486   4.650   4.998   5.861
42885SOL     OW30487  10.687   4.807   2.489
42885SOL    HW130488  10.637   4.877   2.447
42885SOL    HW230489  10.621   4.754   2.534
42886SOL     OW30490  12.577  11.860   6.666
42886SOL    HW130491  12.486  11.888   6.680
42886SOL    HW230492  12.590  11.787   6.726
42887SOL     OW30493   9.746   6.958   4.876
42887SOL    HW130494   9.773   6.867   4.865
42887SOL    HW230495   9.651   6.953   4.884
42888SOL     OW30496   8.412   7.689  11.484
42888SOL    HW130497   8.493   7.641  11.463
42888SOL    HW230498   8.382   7.724  11.400
42889SOL     OW30499  11.633   8.054   6.297
42889SOL    HW130500  11.622   8.077   6.205
42889SOL    HW230501  11.717   8.008   6.300
42890SOL     OW30502   1.181  10.323   3.448
42890SOL    HW130503   1.234  10.249   3.417
42890SOL    HW230504   1.235  10.400   3.431
42891SOL     OW30505   6.979  14.628  12.490
42891SOL    HW130506   7.020  14.542  12.478
42891SOL    HW230507   6.966  14.635  12.585
42892SOL     OW30508   8.232  13.023   6.991
42892SOL    HW130509   8.285  13.086   6.944
42892SOL    HW230510   8.166  12.995   6.928
42893SOL     OW30511  10.665  11.200  14.830
42893SOL    HW130512  10.702  11.120  14.866
42893SOL    HW230513  10.736  11.264  14.833
42894SOL     OW30514  13.662  12.062   9.391
42894SOL    HW130515  13.647  12.153   9.418
42894SOL    HW230516  13.583  12.016   9.420
42895SOL     OW30517   0.484  11.661   4.796
42895SOL    HW130518   0.523  11.713   4.866
42895SOL    HW230519   0.516  11.700   4.715
42896SOL     OW30520   6.599   9.980  14.259
42896SOL    HW130521   6.675   9.979  14.317
42896SOL    HW230522   6.625   9.927  14.184
42897SOL     OW30523   5.003   0.974   4.495
42897SOL    HW130524   5.005   0.940   4.585
42897SOL    HW230525   4.944   0.915   4.449
42898SOL     OW30526  11.969  10.207   9.220
42898SOL    HW130527  11.935  10.199   9.309
42898SOL    HW230528  12.058  10.170   9.226
42899SOL     OW30529  13.310  11.982  10.026
42899SOL    HW130530  13.264  11.951   9.948
42899SOL    HW230531  13.246  12.036  10.072
42900SOL     OW30532   6.719   2.567  11.094
42900SOL    HW130533   6.648   2.520  11.137
42900SOL    HW230534   6.726   2.650  11.143
42901SOL     OW30535   2.610  12.362  12.942
42901SOL    HW130536   2.678  12.331  12.883
42901SOL    HW230537   2.645  12.348  13.030
42902SOL     OW30538   0.209  13.119   1.170
42902SOL    HW130539   0.154  13.176   1.224
42902SOL    HW230540   0.276  13.177   1.134
42903SOL     OW30541  10.881   0.847   7.858
42903SOL    HW130542  10.944   0.917   7.838
42903SOL    HW230543  10.899   0.779   7.792
42904SOL     OW30544   9.112  14.864   7.622
42904SOL    HW130545   9.046  14.798   7.641
42904SOL    HW230546   9.191  14.814   7.603
42905SOL     OW30547  10.446   7.227  10.243
42905SOL    HW130548  10.536   7.193  10.247
42905SOL    HW230549  10.404   7.174  10.175
42906SOL     OW30550   5.539   4.444   7.279
42906SOL    HW130551   5.605   4.385   7.245
42906SOL    HW230552   5.548   4.524   7.226
42907SOL     OW30553   4.417   9.858   3.355
42907SOL    HW130554   4.379   9.874   3.441
42907SOL    HW230555   4.342   9.842   3.298
42908SOL     OW30556   0.291  12.293   1.578
42908SOL    HW130557   0.315  12.260   1.665
42908SOL    HW230558   0.352  12.365   1.562
42909SOL     OW30559  12.698   7.036   6.495
42909SOL    HW130560  12.661   7.118   6.528
42909SOL    HW230561  12.757   7.007   6.564
42910SOL     OW30562  10.776  12.483  12.826
42910SOL    HW130563  10.805  12.427  12.899
42910SOL    HW230564  10.855  12.529  12.798
42911SOL     OW30565   9.640   3.940  10.985
42911SOL    HW130566   9.554   3.972  11.012
42911SOL    HW230567   9.691   4.020  10.968
42912SOL     OW30568   8.815  11.672   9.159
42912SOL    HW130569   8.897  11.627   9.181
42912SOL    HW230570   8.841  11.741   9.099
42913SOL     OW30571  12.889  13.343   7.238
42913SOL    HW130572  12.809  13.382   7.203
42913SOL    HW230573  12.955  13.413   7.233
42914SOL     OW30574  11.385   0.111  14.679
42914SOL    HW130575  11.476   0.129  14.654
42914SOL    HW230576  11.333   0.143  14.606
42915SOL     OW30577   0.245   4.439  14.718
42915SOL    HW130578   0.215   4.351  14.739
42915SOL    HW230579   0.212   4.456  14.630
42916SOL     OW30580   7.758   4.914  10.961
42916SOL    HW130581   7.791   4.830  10.992
42916SOL    HW230582   7.816   4.937  10.888
42917SOL     OW30583   5.179  13.015  10.274
42917SOL    HW130584   5.197  12.922  10.287
42917SOL    HW230585   5.265  13.057  10.279
42918SOL     OW30586  11.785  14.878  14.286
42918SOL    HW130587  11.730   0.040  14.219
42918SOL    HW230588  11.846   0.068  14.311
42919SOL     OW30589  12.028   4.779   0.309
42919SOL    HW130590  11.973   4.751   0.236
42919SOL    HW230591  11.974   4.841   0.357
42920SOL     OW30592   2.291   1.433   3.820
42920SOL    HW130593   2.235   1.496   3.865
42920SOL    HW230594   2.346   1.397   3.889
42921SOL     OW30595   6.921  12.889   4.289
42921SOL    HW130596   6.980  12.958   4.258
42921SOL    HW230597   6.911  12.907   4.383
42922SOL     OW30598  13.089   3.751  11.392
42922SOL    HW130599  13.000   3.752  11.356
42922SOL    HW230600  13.145   3.730  11.317
42923SOL     OW30601   1.237   8.858   9.138
42923SOL    HW130602   1.310   8.911   9.105
42923SOL    HW230603   1.171   8.862   9.068
42924SOL     OW30604  10.040   6.078  11.977
42924SOL    HW130605  10.092   6.028  11.915
42924SOL    HW230606  10.074   6.167  11.971
42925SOL     OW30607  13.628  12.163   8.419
42925SOL    HW130608  13.634  12.136   8.328
42925SOL    HW230609  13.537  12.190   8.431
42926SOL     OW30610   1.451  12.682   3.993
42926SOL    HW130611   1.512  12.715   3.927
42926SOL    HW230612   1.507  12.654   4.065
42927SOL     OW30613   1.530  11.217   9.897
42927SOL    HW130614   1.476  11.195   9.821
42927SOL    HW230615   1.612  11.170   9.883
42928SOL     OW30616   9.386  13.353  12.713
42928SOL    HW130617   9.325  13.285  12.742
42928SOL    HW230618   9.471  13.308  12.709
42929SOL     OW30619   5.314  12.787   5.328
42929SOL    HW130620   5.323  12.818   5.418
42929SOL    HW230621   5.404  12.768   5.300
42930SOL     OW30622  12.389   4.939   3.188
42930SOL    HW130623  12.335   4.947   3.267
42930SOL    HW230624  12.470   4.899   3.219
42931SOL     OW30625  10.997  12.970   5.823
42931SOL    HW130626  10.994  12.876   5.809
42931SOL    HW230627  11.085  12.996   5.794
42932SOL     OW30628   3.304   9.979   4.429
42932SOL    HW130629   3.262  10.062   4.453
42932SOL    HW230630   3.395   9.990   4.454
42933SOL     OW30631   0.081   2.469  11.781
42933SOL    HW130632   0.119   2.422  11.706
42933SOL    HW230633  14.867   2.447  11.779
42934SOL     OW30634   8.473   2.432   6.509
42934SOL    HW130635   8.512   2.475   6.433
42934SOL    HW230636   8.525   2.462   6.584
42935SOL     OW30637  10.914   6.470   5.754
42935SOL    HW130638  10.989   6.530   5.752
42935SOL    HW230639  10.912   6.438   5.844
42936SOL     OW30640   0.416  11.060   1.909
42936SOL    HW130641   0.479  11.101   1.848
42936SOL    HW230642   0.331  11.089   1.877
42937SOL     OW30643   4.458   0.315  12.113
42937SOL    HW130644   4.365   0.334  12.127
42937SOL    HW230645   4.494   0.396  12.077
42938SOL     OW30646   7.020   8.629   0.394
42938SOL    HW130647   6.961   8.632   0.469
42938SOL    HW230648   6.983   8.692   0.332
42939SOL     OW30649   2.689  11.950   0.372
42939SOL    HW130650   2.625  11.978   0.437
42939SOL    HW230651   2.658  11.864   0.344
42940SOL     OW30652   2.492   4.851  10.157
42940SOL    HW130653   2.467   4.907  10.230
42940SOL    HW230654   2.410   4.818  10.122
42941SOL     OW30655  13.930   8.880  12.006
42941SOL    HW130656  13.919   8.790  12.037
42941SOL    HW230657  14.022   8.899  12.021
42942SOL     OW30658   4.679  10.222  14.435
42942SOL    HW130659   4.652  10.151  14.493
42942SOL    HW230660   4.772  10.207  14.421
42943SOL     OW30661  13.589   4.518   6.642
42943SOL    HW130662  13.628   4.579   6.580
42943SOL    HW230663  13.663   4.487   6.695
42944SOL     OW30664   5.552   8.076  11.241
42944SOL    HW130665   5.639   8.105  11.268
42944SOL    HW230666   5.498   8.083  11.320
42945SOL     OW30667  14.599  11.779   0.763
42945SOL    HW130668  14.569  11.699   0.806
42945SOL    HW230669  14.694  11.768   0.755
42946SOL     OW30670   3.874  10.319   2.555
42946SOL    HW130671   3.789  10.293   2.519
42946SOL    HW230672   3.922  10.353   2.479
42947SOL     OW30673  13.069   1.103   6.363
42947SOL    HW130674  13.045   1.018   6.399
42947SOL    HW230675  12.992   1.158   6.378
42948SOL     OW30676  12.180  13.238  10.148
42948SOL    HW130677  12.197  13.330  10.127
42948SOL    HW230678  12.188  13.193  10.065
42949SOL     OW30679   9.628   5.647   7.223
42949SOL    HW130680   9.603   5.586   7.153
42949SOL    HW230681   9.686   5.596   7.279
42950SOL     OW30682   7.941   8.007  11.897
42950SOL    HW130683   7.987   7.930  11.864
42950SOL    HW230684   7.849   7.991  11.875
42951SOL     OW30685  14.188  10.740   3.840
42951SOL    HW130686  14.201  10.808   3.774
42951SOL    HW230687  14.272  10.736   3.887
42952SOL     OW30688   1.187   7.972   2.472
42952SOL    HW130689   1.141   8.031   2.532
42952SOL    HW230690   1.261   7.939   2.522
42953SOL     OW30691  11.193   5.648   0.207
42953SOL    HW130692  11.113   5.642   0.156
42953SOL    HW230693  11.252   5.703   0.155
42954SOL     OW30694   8.715  10.069   7.299
42954SOL    HW130695   8.742  10.089   7.210
42954SOL    HW230696   8.776  10.119   7.354
42955SOL     OW30697   8.236   7.676   0.905
42955SOL    HW130698   8.194   7.606   0.854
42955SOL    HW230699   8.321   7.688   0.862
42956SOL     OW30700   9.359   5.761  14.504
42956SOL    HW130701   9.279   5.720  14.538
42956SOL    HW230702   9.364   5.845  14.549
42957SOL     OW30703   5.979   4.573  14.203
42957SOL    HW130704   6.045   4.553  14.138
42957SOL    HW230705   5.981   4.499  14.264
42958SOL     OW30706   3.670   4.719   2.259
42958SOL    HW130707   3.653   4.812   2.276
42958SOL    HW230708   3.723   4.718   2.180
42959SOL     OW30709   2.625   0.745   6.805
42959SOL    HW130710   2.643   0.682   6.875
42959SOL    HW230711   2.640   0.831   6.846
42960SOL     OW30712  13.776   8.815  10.928
42960SOL    HW130713  13.869   8.834  10.911
42960SOL    HW230714  13.730   8.895  10.903
42961SOL     OW30715  11.981   2.334  11.331
42961SOL    HW130716  11.936   2.414  11.303
42961SOL    HW230717  11.954   2.321  11.421
42962SOL     OW30718   9.099  10.568   3.395
42962SOL    HW130719   9.131  10.556   3.306
42962SOL    HW230720   9.151  10.640   3.431
42963SOL     OW30721  12.019   8.854   5.477
42963SOL    HW130722  12.113   8.853   5.493
42963SOL    HW230723  12.004   8.934   5.428
42964SOL     OW30724  14.257  10.366  14.839
42964SOL    HW130725  14.252  10.309  14.762
42964SOL    HW230726  14.231  10.453  14.807
42965SOL     OW30727   1.999  14.838   0.473
42965SOL    HW130728   2.007  14.861   0.566
42965SOL    HW230729   2.049   0.027   0.427
42966SOL     OW30730   9.068   4.925  10.842
42966SOL    HW130731   8.974   4.942  10.854
42966SOL    HW230732   9.111   4.989  10.898
42967SOL     OW30733   6.571   2.827   0.261
42967SOL    HW130734   6.599   2.895   0.200
42967SOL    HW230735   6.541   2.755   0.205
42968SOL     OW30736   2.266   1.493   1.460
42968SOL    HW130737   2.244   1.491   1.367
42968SOL    HW230738   2.359   1.470   1.464
42969SOL     OW30739  12.654  14.021   2.485
42969SOL    HW130740  12.701  14.097   2.519
42969SOL    HW230741  12.578  14.059   2.440
42970SOL     OW30742   0.314  11.039   5.375
42970SOL    HW130743   0.234  11.074   5.415
42970SOL    HW230744   0.293  11.032   5.282
42971SOL     OW30745  10.687  14.535   6.900
42971SOL    HW130746  10.650  14.479   6.968
42971SOL    HW230747  10.756  14.585   6.945
42972SOL     OW30748  14.162  14.158   0.097
42972SOL    HW130749  14.193  14.230   0.153
42972SOL    HW230750  14.233  14.143   0.035
42973SOL     OW30751   3.256  11.861   9.971
42973SOL    HW130752   3.165  11.833   9.982
42973SOL    HW230753   3.256  11.908   9.888
42974SOL     OW30754  14.782   1.500   8.133
42974SOL    HW130755  14.860   1.526   8.083
42974SOL    HW230756  14.769   1.407   8.111
42975SOL     OW30757   0.636   6.689   6.551
42975SOL    HW130758   0.663   6.639   6.474
42975SOL    HW230759   0.574   6.632   6.597
42976SOL     OW30760  10.982  11.708   7.293
42976SOL    HW130761  10.908  11.742   7.244
42976SOL    HW230762  10.981  11.614   7.275
42977SOL     OW30763   8.063   9.556   6.946
42977SOL    HW130764   8.051   9.650   6.931
42977SOL    HW230765   7.979   9.517   6.921
42978SOL     OW30766  11.511   0.318   3.826
42978SOL    HW130767  11.458   0.250   3.868
42978SOL    HW230768  11.566   0.270   3.764
42979SOL     OW30769  13.464   5.658  11.117
42979SOL    HW130770  13.484   5.584  11.059
42979SOL    HW230771  13.408   5.715  11.065
42980SOL     OW30772  11.646  10.134   2.610
42980SOL    HW130773  11.592  10.093   2.677
42980SOL    HW230774  11.720  10.074   2.599
42981SOL     OW30775   5.503   6.431   4.929
42981SOL    HW130776   5.442   6.382   4.874
42981SOL    HW230777   5.562   6.474   4.867
42982SOL     OW30778   9.588   4.597  12.483
42982SOL    HW130779   9.507   4.569  12.526
42982SOL    HW230780   9.563   4.675  12.434
42983SOL     OW30781   3.006   9.182   7.374
42983SOL    HW130782   3.072   9.114   7.360
42983SOL    HW230783   2.923   9.140   7.351
42984SOL     OW30784   3.634   7.795   2.565
42984SOL    HW130785   3.546   7.773   2.534
42984SOL    HW230786   3.632   7.889   2.579
42985SOL     OW30787   3.357   7.184   3.743
42985SOL    HW130788   3.363   7.275   3.714
42985SOL    HW230789   3.430   7.175   3.804
42986SOL     OW30790   7.418   4.277  14.820
42986SOL    HW130791   7.356   4.300   0.010
42986SOL    HW230792   7.399   4.186  14.798
42987SOL     OW30793  11.210  11.330   3.875
42987SOL    HW130794  11.151  11.397   3.841
42987SOL    HW230795  11.186  11.321   3.968
42988SOL     OW30796   1.462   7.733  10.357
42988SOL    HW130797   1.378   7.687  10.356
42988SOL    HW230798   1.523   7.672  10.317
42989SOL     OW30799  13.863  12.837  13.482
42989SOL    HW130800  13.845  12.896  13.555
42989SOL    HW230801  13.780  12.829  13.436
42990SOL     OW30802  11.856   4.445   1.194
42990SOL    HW130803  11.843   4.436   1.288
42990SOL    HW230804  11.898   4.363   1.167
42991SOL     OW30805  11.971   5.920   1.362
42991SOL    HW130806  12.060   5.953   1.375
42991SOL    HW230807  11.973   5.830   1.395
42992SOL     OW30808   9.668  12.106  12.522
42992SOL    HW130809   9.587  12.065  12.552
42992SOL    HW230810   9.732  12.086  12.590
42993SOL     OW30811  10.739   6.827   9.914
42993SOL    HW130812  10.685   6.765   9.964
42993SOL    HW230813  10.750   6.786   9.829
42994SOL     OW30814  12.037   6.342  14.799
42994SOL    HW130815  12.059   6.429  14.833
42994SOL    HW230816  12.004   6.295  14.875
42995SOL     OW30817   5.599   2.856  11.265
42995SOL    HW130818   5.524   2.885  11.318
42995SOL    HW230819   5.611   2.764  11.289
42996SOL     OW30820   8.920   0.436  10.871
42996SOL    HW130821   8.893   0.524  10.897
42996SOL    HW230822   8.952   0.396  10.951
42997SOL     OW30823   3.856   5.205  11.737
42997SOL    HW130824   3.799   5.139  11.775
42997SOL    HW230825   3.879   5.262  11.811
42998SOL     OW30826  13.500  10.010  12.222
42998SOL    HW130827  13.431  10.074  12.207
42998SOL    HW230828  13.458   9.925  12.208
42999SOL     OW30829   1.626   7.464   5.594
42999SOL    HW130830   1.691   7.471   5.664
42999SOL    HW230831   1.605   7.555   5.571
43000SOL     OW30832  14.390  10.845   7.347
43000SOL    HW130833  14.334  10.869   7.421
43000SOL    HW230834  14.473  10.820   7.388
43001SOL     OW30835  11.370   0.471   7.860
43001SOL    HW130836  11.350   0.382   7.830
43001SOL    HW230837  11.436   0.502   7.797
43002SOL     OW30838  10.418   8.790   0.505
43002SOL    HW130839  10.403   8.745   0.588
43002SOL    HW230840  10.332   8.819   0.477
43003SOL     OW30841   0.409   3.242   3.959
43003SOL    HW130842   0.499   3.212   3.971
43003SOL    HW230843   0.369   3.176   3.902
43004SOL     OW30844   1.979   9.420  14.802
43004SOL    HW130845   1.996   9.326  14.790
43004SOL    HW230846   1.889   9.424  14.834
43005SOL     OW30847   1.620   8.874   6.612
43005SOL    HW130848   1.660   8.827   6.539
43005SOL    HW230849   1.529   8.887   6.586
43006SOL     OW30850   2.644   9.461   4.941
43006SOL    HW130851   2.681   9.534   4.891
43006SOL    HW230852   2.659   9.485   5.032
43007SOL     OW30853   7.328   9.639  13.848
43007SOL    HW130854   7.355   9.552  13.877
43007SOL    HW230855   7.329   9.693  13.928
43008SOL     OW30856   1.656   5.208  14.343
43008SOL    HW130857   1.740   5.254  14.335
43008SOL    HW230858   1.604   5.241  14.270
43009SOL     OW30859  10.328  14.662   2.201
43009SOL    HW130860  10.334  14.757   2.212
43009SOL    HW230861  10.254  14.637   2.257
43010SOL     OW30862  10.829  13.997  14.053
43010SOL    HW130863  10.766  14.009  13.982
43010SOL    HW230864  10.778  13.960  14.125
43011SOL     OW30865   1.127   2.953  12.879
43011SOL    HW130866   1.065   2.887  12.847
43011SOL    HW230867   1.130   2.939  12.974
43012SOL     OW30868   6.155  12.175   1.029
43012SOL    HW130869   6.199  12.260   1.028
43012SOL    HW230870   6.146  12.154   1.122
43013SOL     OW30871   0.652   1.435   2.256
43013SOL    HW130872   0.622   1.383   2.182
43013SOL    HW230873   0.659   1.373   2.328
43014SOL     OW30874  11.000  12.271   8.146
43014SOL    HW130875  10.907  12.292   8.136
43014SOL    HW230876  11.028  12.318   8.224
43015SOL     OW30877  10.371  14.576  14.310
43015SOL    HW130878  10.398  14.667  14.299
43015SOL    HW230879  10.454  14.527  14.314
43016SOL     OW30880  12.393  12.580  13.517
43016SOL    HW130881  12.402  12.484  13.520
43016SOL    HW230882  12.338  12.601  13.592
43017SOL     OW30883   9.077   1.931   9.974
43017SOL    HW130884   9.117   1.844   9.977
43017SOL    HW230885   9.030   1.932   9.890
43018SOL     OW30886   3.925   4.958  11.081
43018SOL    HW130887   3.900   5.020  11.013
43018SOL    HW230888   4.017   4.977  11.099
43019SOL     OW30889   6.312   5.567  13.557
43019SOL    HW130890   6.250   5.501  13.526
43019SOL    HW230891   6.295   5.643  13.501
43020SOL     OW30892   1.771   5.867   8.067
43020SOL    HW130893   1.734   5.826   7.988
43020SOL    HW230894   1.721   5.947   8.078
43021SOL     OW30895   0.275  10.289   3.418
43021SOL    HW130896   0.251  10.284   3.325
43021SOL    HW230897   0.236  10.371   3.448
43022SOL     OW30898   6.067  14.807  14.278
43022SOL    HW130899   6.120   0.005  14.299
43022SOL    HW230900   6.077  14.750  14.354
43023SOL     OW30901   2.395  10.873  12.305
43023SOL    HW130902   2.349  10.929  12.242
43023SOL    HW230903   2.445  10.812  12.251
43024SOL     OW30904   1.305   5.259   7.105
43024SOL    HW130905   1.242   5.188   7.120
43024SOL    HW230906   1.297   5.315   7.182
43025SOL     OW30907   8.224   0.953  10.472
43025SOL    HW130908   8.230   1.025  10.409
43025SOL    HW230909   8.269   0.986  10.550
43026SOL     OW30910   3.534   3.743  11.551
43026SOL    HW130911   3.592   3.695  11.611
43026SOL    HW230912   3.498   3.675  11.494
43027SOL     OW30913   7.338  10.299  11.626
43027SOL    HW130914   7.341  10.311  11.721
43027SOL    HW230915   7.244  10.298  11.604
43028SOL     OW30916   3.661   7.232   6.151
43028SOL    HW130917   3.671   7.304   6.213
43028SOL    HW230918   3.739   7.235   6.096
43029SOL     OW30919  10.893  11.173   9.589
43029SOL    HW130920  10.983  11.199   9.569
43029SOL    HW230921  10.893  11.078   9.585
43030SOL     OW30922  14.170   8.945   1.226
43030SOL    HW130923  14.180   8.867   1.280
43030SOL    HW230924  14.130   9.009   1.284
43031SOL     OW30925   7.864   6.132  13.990
43031SOL    HW130926   7.904   6.068  14.048
43031SOL    HW230927   7.771   6.109  13.989
43032SOL     OW30928   0.680   0.912  12.578
43032SOL    HW130929   0.649   0.999  12.600
43032SOL    HW230930   0.773   0.923  12.560
43033SOL     OW30931   7.345   6.425   3.335
43033SOL    HW130932   7.334   6.363   3.407
43033SOL    HW230933   7.266   6.478   3.338
43034SOL     OW30934   6.107   6.035  11.934
43034SOL    HW130935   6.090   6.056  12.026
43034SOL    HW230936   6.178   5.972  11.936
43035SOL     OW30937  14.797   0.660   5.568
43035SOL    HW130938  14.790   0.615   5.484
43035SOL    HW230939  14.807   0.753   5.545
43036SOL     OW30940  11.965  13.443  10.214
43036SOL    HW130941  12.046  13.437  10.265
43036SOL    HW230942  11.951  13.538  10.204
43037SOL     OW30943  14.796  14.733   3.689
43037SOL    HW130944  14.768  14.781   3.767
43037SOL    HW230945  14.762  14.785   3.616
43038SOL     OW30946  10.021   5.978   5.366
43038SOL    HW130947   9.988   5.895   5.331
43038SOL    HW230948  10.026   6.036   5.290
43039SOL     OW30949   9.631   1.242   1.751
43039SOL    HW130950   9.540   1.264   1.771
43039SOL    HW230951   9.660   1.191   1.826
43040SOL     OW30952   0.756  10.511  14.319
43040SOL    HW130953   0.807  10.539  14.244
43040SOL    HW230954   0.751  10.589  14.375
43041SOL     OW30955   1.421  11.101  14.501
43041SOL    HW130956   1.454  11.070  14.416
43041SOL    HW230957   1.495  11.093  14.560
43042SOL     OW30958   0.258  11.453   4.490
43042SOL    HW130959   0.310  11.430   4.566
43042SOL    HW230960   0.322  11.466   4.420
43043SOL     OW30961  12.466   8.895  11.565
43043SOL    HW130962  12.511   8.811  11.565
43043SOL    HW230963  12.525   8.954  11.612
43044SOL     OW30964  13.951   7.664  13.893
43044SOL    HW130965  13.909   7.649  13.809
43044SOL    HW230966  14.034   7.617  13.888
43045SOL     OW30967   7.823   9.342   2.756
43045SOL    HW130968   7.902   9.289   2.751
43045SOL    HW230969   7.826   9.398   2.678
43046SOL     OW30970   3.657   6.525   5.098
43046SOL    HW130971   3.729   6.467   5.074
43046SOL    HW230972   3.694   6.585   5.163
43047SOL     OW30973   5.266  12.781   3.357
43047SOL    HW130974   5.207  12.851   3.328
43047SOL    HW230975   5.220  12.700   3.335
43048SOL     OW30976  14.177   2.429   6.650
43048SOL    HW130977  14.113   2.370   6.610
43048SOL    HW230978  14.236   2.371   6.697
43049SOL     OW30979   4.471  14.222   6.523
43049SOL    HW130980   4.460  14.139   6.569
43049SOL    HW230981   4.417  14.284   6.572
43050SOL     OW30982  11.622  12.016   5.892
43050SOL    HW130983  11.640  12.015   5.798
43050SOL    HW230984  11.702  11.983   5.932
43051SOL     OW30985  10.027   5.650   5.421
43051SOL    HW130986   9.966   5.604   5.364
43051SOL    HW230987  10.104   5.594   5.426
43052SOL     OW30988  11.428   5.541   4.491
43052SOL    HW130989  11.468   5.618   4.532
43052SOL    HW230990  11.364   5.510   4.555
43053SOL     OW30991   9.706  13.917  10.055
43053SOL    HW130992   9.798  13.914  10.081
43053SOL    HW230993   9.688  14.011  10.043
43054SOL     OW30994   9.859   3.980   1.931
43054SOL    HW130995   9.901   4.012   1.851
43054SOL    HW230996   9.834   3.890   1.911
43055SOL     OW30997   2.865  11.276   4.022
43055SOL    HW130998   2.853  11.183   4.002
43055SOL    HW230999   2.789  11.300   4.075
43056SOL     OW31000   5.695  13.378  14.211
43056SOL    HW131001   5.789  13.391  14.225
43056SOL    HW231002   5.668  13.322  14.284
43057SOL     OW31003  11.402   9.331   1.667
43057SOL    HW131004  11.450   9.252   1.643
43057SOL    HW231005  11.467   9.388   1.707
43058SOL     OW31006   9.636  12.196  10.609
43058SOL    HW131007   9.732  12.197  10.604
43058SOL    HW231008   9.616  12.234  10.694
43059SOL     OW31009   2.877   4.140   8.262
43059SOL    HW131010   2.959   4.190   8.261
43059SOL    HW231011   2.891   4.072   8.329
43060SOL     OW31012  12.226   5.389   5.194
43060SOL    HW131013  12.239   5.482   5.176
43060SOL    HW231014  12.248   5.380   5.286
43061SOL     OW31015  10.880   6.749   0.591
43061SOL    HW131016  10.831   6.822   0.629
43061SOL    HW231017  10.814   6.681   0.577
43062SOL     OW31018  12.415   9.930   6.561
43062SOL    HW131019  12.320   9.941   6.569
43062SOL    HW231020  12.451  10.012   6.594
43063SOL     OW31021  11.417   2.458   7.237
43063SOL    HW131022  11.367   2.500   7.307
43063SOL    HW231023  11.495   2.514   7.228
43064SOL     OW31024  11.198   5.323  11.754
43064SOL    HW131025  11.190   5.418  11.750
43064SOL    HW231026  11.121   5.291  11.708
43065SOL     OW31027   1.022   4.592  13.307
43065SOL    HW131028   1.019   4.631  13.395
43065SOL    HW231029   1.068   4.657  13.254
43066SOL     OW31030   4.906  13.714   1.224
43066SOL    HW131031   4.986  13.751   1.187
43066SOL    HW231032   4.836  13.759   1.178
43067SOL     OW31033   6.733   7.177   7.199
43067SOL    HW131034   6.677   7.247   7.233
43067SOL    HW231035   6.819   7.193   7.239
43068SOL     OW31036  14.851   1.341   9.456
43068SOL    HW131037  14.816   1.430   9.460
43068SOL    HW231038   0.065   1.352   9.437
43069SOL     OW31039   4.196  14.827   2.836
43069SOL    HW131040   4.239  14.837   2.751
43069SOL    HW231041   4.103  14.838   2.817
43070SOL     OW31042  11.443   5.410   8.671
43070SOL    HW131043  11.349   5.427   8.681
43070SOL    HW231044  11.450   5.347   8.600
43071SOL     OW31045   0.507   5.484   7.923
43071SOL    HW131046   0.519   5.512   8.014
43071SOL    HW231047   0.524   5.562   7.871
43072SOL     OW31048   9.080  14.395   0.236
43072SOL    HW131049   9.105  14.321   0.182
43072SOL    HW231050   9.014  14.359   0.296
43073SOL     OW31051   8.583   2.285   4.369
43073SOL    HW131052   8.490   2.291   4.348
43073SOL    HW231053   8.593   2.199   4.410
43074SOL     OW31054  13.291   9.406   0.791
43074SOL    HW131055  13.218   9.445   0.838
43074SOL    HW231056  13.368   9.420   0.847
43075SOL     OW31057   3.933   9.282   9.507
43075SOL    HW131058   3.915   9.202   9.457
43075SOL    HW231059   3.848   9.306   9.545
43076SOL     OW31060   8.336  13.287  14.644
43076SOL    HW131061   8.339  13.258  14.552
43076SOL    HW231062   8.428  13.305  14.666
43077SOL     OW31063   1.787  14.165   5.500
43077SOL    HW131064   1.784  14.130   5.589
43077SOL    HW231065   1.867  14.127   5.463
43078SOL     OW31066  11.363   5.164   4.493
43078SOL    HW131067  11.435   5.137   4.549
43078SOL    HW231068  11.355   5.258   4.506
43079SOL     OW31069  12.024  12.783  13.427
43079SOL    HW131070  12.029  12.788  13.522
43079SOL    HW231071  11.945  12.831  13.404
43080SOL     OW31072   9.343  13.527   3.122
43080SOL    HW131073   9.427  13.539   3.165
43080SOL    HW231074   9.347  13.584   3.046
43081SOL     OW31075  12.951  10.617   9.877
43081SOL    HW131076  12.875  10.577   9.835
43081SOL    HW231077  12.970  10.693   9.822
43082SOL     OW31078   8.707   4.843   2.112
43082SOL    HW131079   8.715   4.917   2.052
43082SOL    HW231080   8.797   4.812   2.125
43083SOL     OW31081  10.550  11.841  14.384
43083SOL    HW131082  10.593  11.756  14.377
43083SOL    HW231083  10.492  11.833  14.460
43084SOL     OW31084   5.387   8.020   4.857
43084SOL    HW131085   5.309   8.007   4.911
43084SOL    HW231086   5.367   8.099   4.806
43085SOL     OW31087  12.151   5.943   8.288
43085SOL    HW131088  12.145   5.993   8.206
43085SOL    HW231089  12.191   6.004   8.350
43086SOL     OW31090  10.245  13.649   2.677
43086SOL    HW131091  10.296  13.676   2.753
43086SOL    HW231092  10.308  13.602   2.621
43087SOL     OW31093   8.765   8.271   0.082
43087SOL    HW131094   8.729   8.352   0.118
43087SOL    HW231095   8.700   8.243   0.017
43088SOL     OW31096   8.065   1.368   5.323
43088SOL    HW131097   8.014   1.288   5.324
43088SOL    HW231098   8.018   1.427   5.264
43089SOL     OW31099   9.147   1.037  13.661
43089SOL    HW131100   9.172   0.981  13.588
43089SOL    HW231101   9.111   1.115  13.621
43090SOL     OW31102  13.522   8.188   4.579
43090SOL    HW131103  13.525   8.202   4.484
43090SOL    HW231104  13.434   8.152   4.595
43091SOL     OW31105  12.134   6.068   8.059
43091SOL    HW131106  12.049   6.073   8.015
43091SOL    HW231107  12.190   6.021   7.998
43092SOL     OW31108   0.418  14.729  13.748
43092SOL    HW131109   0.428  14.777  13.831
43092SOL    HW231110   0.506  14.730  13.710
43093SOL     OW31111   7.030  11.015   7.119
43093SOL    HW131112   7.105  11.069   7.093
43093SOL    HW231113   7.066  10.928   7.133
43094SOL     OW31114   5.680   8.562   3.422
43094SOL    HW131115   5.758   8.519   3.457
43094SOL    HW231116   5.714   8.637   3.373
43095SOL     OW31117   9.611   2.556   8.132
43095SOL    HW131118   9.590   2.567   8.224
43095SOL    HW231119   9.653   2.469   8.128
43096SOL     OW31120  14.082   3.344   6.391
43096SOL    HW131121  14.164   3.391   6.379
43096SOL    HW231122  14.106   3.267   6.443
43097SOL     OW31123   7.616   2.668   7.516
43097SOL    HW131124   7.617   2.756   7.553
43097SOL    HW231125   7.670   2.674   7.437
43098SOL     OW31126   6.365  10.890   2.402
43098SOL    HW131127   6.345  10.971   2.355
43098SOL    HW231128   6.451  10.863   2.370
43099SOL     OW31129  10.362  13.563   7.558
43099SOL    HW131130  10.299  13.497   7.586
43099SOL    HW231131  10.308  13.635   7.525
43100SOL     OW31132  13.363   2.852  14.848
43100SOL    HW131133  13.361   2.798   0.048
43100SOL    HW231134  13.334   2.793  14.778
43101SOL     OW31135   6.496  13.208   0.814
43101SOL    HW131136   6.423  13.215   0.753
43101SOL    HW231137   6.535  13.122   0.795
43102SOL     OW31138   1.819   1.520  13.180
43102SOL    HW131139   1.796   1.610  13.158
43102SOL    HW231140   1.914   1.516  13.172
43103SOL     OW31141  13.390  12.583   5.948
43103SOL    HW131142  13.300  12.558   5.970
43103SOL    HW231143  13.425  12.622   6.028
43104SOL     OW31144   9.042   7.609  12.385
43104SOL    HW131145   9.096   7.605  12.464
43104SOL    HW231146   9.078   7.682  12.334
43105SOL     OW31147  13.173   9.841   6.144
43105SOL    HW131148  13.250   9.835   6.201
43105SOL    HW231149  13.200   9.902   6.075
43106SOL     OW31150   5.251   2.888   1.176
43106SOL    HW131151   5.288   2.976   1.168
43106SOL    HW231152   5.204   2.875   1.094
43107SOL     OW31153  10.434   6.493   3.313
43107SOL    HW131154  10.390   6.571   3.348
43107SOL    HW231155  10.455   6.516   3.223
43108SOL     OW31156   1.840   7.472  11.578
43108SOL    HW131157   1.920   7.431  11.546
43108SOL    HW231158   1.774   7.449  11.513
43109SOL     OW31159   8.694   2.262   7.384
43109SOL    HW131160   8.778   2.216   7.374
43109SOL    HW231161   8.675   2.256   7.478
43110SOL     OW31162  10.325  11.611   2.407
43110SOL    HW131163  10.349  11.676   2.472
43110SOL    HW231164  10.234  11.631   2.385
43111SOL     OW31165   1.832  14.406   1.372
43111SOL    HW131166   1.879  14.448   1.444
43111SOL    HW231167   1.744  14.446   1.375
43112SOL     OW31168   3.368   2.357   8.180
43112SOL    HW131169   3.343   2.393   8.096
43112SOL    HW231170   3.294   2.375   8.237
43113SOL     OW31171   2.841   8.420  14.768
43113SOL    HW131172   2.858   8.499  14.717
43113SOL    HW231173   2.819   8.452  14.855
43114SOL     OW31174   1.026  13.295   6.763
43114SOL    HW131175   0.936  13.288   6.796
43114SOL    HW231176   1.079  13.247   6.827
43115SOL     OW31177  13.201  13.040   8.170
43115SOL    HW131178  13.188  13.131   8.143
43115SOL    HW231179  13.154  13.033   8.253
43116SOL     OW31180  14.620  14.558   5.906
43116SOL    HW131181  14.606  14.470   5.871
43116SOL    HW231182  14.711  14.558   5.934
43117SOL     OW31183   8.229   8.245   0.363
43117SOL    HW131184   8.230   8.278   0.453
43117SOL    HW231185   8.301   8.182   0.360
43118SOL     OW31186  12.542   9.043   1.301
43118SOL    HW131187  12.475   8.975   1.303
43118SOL    HW231188  12.622   8.997   1.274
43119SOL     OW31189   1.201  13.548   9.231
43119SOL    HW131190   1.268  13.508   9.286
43119SOL    HW231191   1.179  13.629   9.277
43120SOL     OW31192   7.681   2.590  14.240
43120SOL    HW131193   7.748   2.657  14.249
43120SOL    HW231194   7.691   2.559  14.150
43121SOL     OW31195   3.225  10.056   1.533
43121SOL    HW131196   3.265  10.008   1.606
43121SOL    HW231197   3.238   9.999   1.457
43122SOL     OW31198   5.115   9.908  10.074
43122SOL    HW131199   5.040   9.880  10.127
43122SOL    HW231200   5.093   9.881   9.985
43123SOL     OW31201   8.576  14.398   9.271
43123SOL    HW131202   8.573  14.342   9.348
43123SOL    HW231203   8.485  14.400   9.240
43124SOL     OW31204   9.459   1.130   2.107
43124SOL    HW131205   9.369   1.146   2.136
43124SOL    HW231206   9.449   1.091   2.020
43125SOL     OW31207  11.577  13.607  10.501
43125SOL    HW131208  11.633  13.597  10.577
43125SOL    HW231209  11.626  13.566  10.429
43126SOL     OW31210   7.902   8.051   7.971
43126SOL    HW131211   7.897   8.129   7.916
43126SOL    HW231212   7.949   7.987   7.918
43127SOL     OW31213   1.544   6.661   1.403
43127SOL    HW131214   1.532   6.605   1.480
43127SOL    HW231215   1.607   6.727   1.432
43128SOL     OW31216   8.577   8.909   3.811
43128SOL    HW131217   8.648   8.846   3.817
43128SOL    HW231218   8.571   8.946   3.899
43129SOL     OW31219   0.565  12.243   9.562
43129SOL    HW131220   0.501  12.263   9.493
43129SOL    HW231221   0.634  12.307   9.549
43130SOL     OW31222  14.050   9.287   4.238
43130SOL    HW131223  14.069   9.291   4.332
43130SOL    HW231224  14.136   9.295   4.196
43131SOL     OW31225   0.037  11.586  12.510
43131SOL    HW131226   0.057  11.531  12.434
43131SOL    HW231227  14.821  11.593  12.511
43132SOL     OW31228   9.648   9.232   2.564
43132SOL    HW131229   9.688   9.221   2.650
43132SOL    HW231230   9.723   9.236   2.503
43133SOL     OW31231   5.519   6.243  14.197
43133SOL    HW131232   5.531   6.173  14.133
43133SOL    HW231233   5.480   6.315  14.148
43134SOL     OW31234   0.575  13.745   4.469
43134SOL    HW131235   0.487  13.718   4.444
43134SOL    HW231236   0.596  13.818   4.411
43135SOL     OW31237   9.975  12.552   3.946
43135SOL    HW131238   9.978  12.642   3.978
43135SOL    HW231239  10.009  12.500   4.019
43136SOL     OW31240  12.489  11.056  13.823
43136SOL    HW131241  12.497  11.062  13.728
43136SOL    HW231242  12.548  10.985  13.848
43137SOL     OW31243  13.747   2.490   8.152
43137SOL    HW131244  13.656   2.515   8.165
43137SOL    HW231245  13.743   2.407   8.104
43138SOL     OW31246  11.140  12.948  10.951
43138SOL    HW131247  11.115  13.038  10.967
43138SOL    HW231248  11.106  12.899  11.026
43139SOL     OW31249   6.794  11.847   1.738
43139SOL    HW131250   6.874  11.830   1.788
43139SOL    HW231251   6.765  11.933   1.767
43140SOL     OW31252   6.149   2.356   8.623
43140SOL    HW131253   6.084   2.292   8.650
43140SOL    HW231254   6.130   2.372   8.530
43141SOL     OW31255   6.266   8.225  14.673
43141SOL    HW131256   6.205   8.151  14.674
43141SOL    HW231257   6.323   8.209  14.598
43142SOL     OW31258   6.556   1.075   1.725
43142SOL    HW131259   6.510   1.074   1.641
43142SOL    HW231260   6.624   1.141   1.714
43143SOL     OW31261   7.303   6.466   8.356
43143SOL    HW131262   7.370   6.534   8.364
43143SOL    HW231263   7.229   6.511   8.314
43144SOL     OW31264   2.835   2.137   2.753
43144SOL    HW131265   2.787   2.211   2.715
43144SOL    HW231266   2.801   2.129   2.842
43145SOL     OW31267  14.439   5.697  12.683
43145SOL    HW131268  14.345   5.697  12.701
43145SOL    HW231269  14.461   5.606  12.666
43146SOL     OW31270  12.135   5.842   2.067
43146SOL    HW131271  12.056   5.845   2.013
43146SOL    HW231272  12.106   5.868   2.155
43147SOL     OW31273   5.572  10.641   6.584
43147SOL    HW131274   5.566  10.596   6.500
43147SOL    HW231275   5.658  10.616   6.618
43148SOL     OW31276  13.801  11.633   8.833
43148SOL    HW131277  13.720  11.669   8.869
43148SOL    HW231278  13.798  11.655   8.740
43149SOL     OW31279  10.293   3.222   6.589
43149SOL    HW131280  10.321   3.186   6.505
43149SOL    HW231281  10.355   3.292   6.607
43150SOL     OW31282   2.695   5.238   5.108
43150SOL    HW131283   2.725   5.147   5.114
43150SOL    HW231284   2.661   5.246   5.020
43151SOL     OW31285   2.227  11.844  14.188
43151SOL    HW131286   2.229  11.753  14.216
43151SOL    HW231287   2.319  11.866  14.171
43152SOL     OW31288   9.981   5.039  13.339
43152SOL    HW131289  10.055   4.993  13.379
43152SOL    HW231290   9.915   4.971  13.324
43153SOL     OW31291   1.375   3.207  13.502
43153SOL    HW131292   1.397   3.116  13.482
43153SOL    HW231293   1.382   3.213  13.597
43154SOL     OW31294  12.909  14.022   6.658
43154SOL    HW131295  12.945  14.079   6.590
43154SOL    HW231296  12.836  13.977   6.615
43155SOL     OW31297   9.589   1.912   8.974
43155SOL    HW131298   9.637   1.850   9.029
43155SOL    HW231299   9.641   1.992   8.977
43156SOL     OW31300   1.252  12.134  12.907
43156SOL    HW131301   1.228  12.076  12.980
43156SOL    HW231302   1.287  12.075  12.840
43157SOL     OW31303   4.554   9.885   1.400
43157SOL    HW131304   4.601   9.965   1.375
43157SOL    HW231305   4.576   9.872   1.492
43158SOL     OW31306   9.070   8.346  11.572
43158SOL    HW131307   9.011   8.376  11.503
43158SOL    HW231308   9.157   8.347  11.532
43159SOL     OW31309  11.899  11.968   5.060
43159SOL    HW131310  11.816  12.014   5.047
43159SOL    HW231311  11.887  11.884   5.015
43160SOL     OW31312   4.131  14.700   4.321
43160SOL    HW131313   4.177  14.718   4.239
43160SOL    HW231314   4.053  14.756   4.317
43161SOL     OW31315   6.461   0.337  11.898
43161SOL    HW131316   6.381   0.385  11.921
43161SOL    HW231317   6.476   0.358  11.806
43162SOL     OW31318   8.160   0.863   8.862
43162SOL    HW131319   8.158   0.773   8.896
43162SOL    HW231320   8.146   0.918   8.939
43163SOL     OW31321   8.174   7.822   3.673
43163SOL    HW131322   8.237   7.843   3.604
43163SOL    HW231323   8.226   7.780   3.741
43164SOL     OW31324  14.818   6.024   8.573
43164SOL    HW131325  14.815   5.947   8.630
43164SOL    HW231326  14.844   5.990   8.487
43165SOL     OW31327   7.289   2.618   1.311
43165SOL    HW131328   7.241   2.559   1.370
43165SOL    HW231329   7.283   2.703   1.355
43166SOL     OW31330   0.099   7.000  10.033
43166SOL    HW131331   0.057   7.086  10.040
43166SOL    HW231332   0.109   6.986   9.938
43167SOL     OW31333   6.289   9.995  11.394
43167SOL    HW131334   6.349  10.037  11.333
43167SOL    HW231335   6.346   9.942  11.451
43168SOL     OW31336   3.954   8.437  12.717
43168SOL    HW131337   3.901   8.377  12.665
43168SOL    HW231338   3.954   8.519  12.667
43169SOL     OW31339   8.833  13.760  13.816
43169SOL    HW131340   8.829  13.770  13.721
43169SOL    HW231341   8.779  13.683  13.834
43170SOL     OW31342   5.284   5.818   8.291
43170SOL    HW131343   5.293   5.912   8.304
43170SOL    HW231344   5.214   5.792   8.351
43171SOL     OW31345   5.377  13.246   0.981
43171SOL    HW131346   5.288  13.236   0.946
43171SOL    HW231347   5.384  13.179   1.049
43172SOL     OW31348   4.917   7.332  10.599
43172SOL    HW131349   4.948   7.412  10.643
43172SOL    HW231350   4.822   7.338  10.604
43173SOL     OW31351   8.982   2.621   7.255
43173SOL    HW131352   8.977   2.707   7.296
43173SOL    HW231353   8.893   2.586   7.262
43174SOL     OW31354   2.114   2.660  10.055
43174SOL    HW131355   2.171   2.723  10.009
43174SOL    HW231356   2.118   2.687  10.147
43175SOL     OW31357   7.349  10.061   1.758
43175SOL    HW131358   7.363  10.048   1.664
43175SOL    HW231359   7.271  10.009   1.778
43176SOL     OW31360   6.041  13.968   8.796
43176SOL    HW131361   6.128  13.932   8.812
43176SOL    HW231362   5.988  13.893   8.769
43177SOL     OW31363  13.411  11.864  13.234
43177SOL    HW131364  13.386  11.955  13.250
43177SOL    HW231365  13.502  11.869  13.205
43178SOL     OW31366  11.968  11.181   5.583
43178SOL    HW131367  12.041  11.236   5.610
43178SOL    HW231368  12.003  11.128   5.511
43179SOL     OW31369   8.373   2.341   8.854
43179SOL    HW131370   8.343   2.389   8.776
43179SOL    HW231371   8.327   2.383   8.927
43180SOL     OW31372   3.378  10.199  14.427
43180SOL    HW131373   3.290  10.207  14.391
43180SOL    HW231374   3.428  10.157  14.357
43181SOL     OW31375   3.534   1.474   8.076
43181SOL    HW131376   3.573   1.534   8.138
43181SOL    HW231377   3.595   1.400   8.072
43182SOL     OW31378   6.731  10.369  14.083
43182SOL    HW131379   6.771  10.445  14.125
43182SOL    HW231380   6.782  10.356  14.003
43183SOL     OW31381   0.958  10.919   9.715
43183SOL    HW131382   0.936  10.861   9.788
43183SOL    HW231383   1.002  10.862   9.651
43184SOL     OW31384   8.004   0.227   3.884
43184SOL    HW131385   7.983   0.180   3.803
43184SOL    HW231386   8.099   0.223   3.891
43185SOL     OW31387   5.970   0.262   5.363
43185SOL    HW131388   5.996   0.189   5.420
43185SOL    HW231389   5.881   0.240   5.336
43186SOL     OW31390  12.848   5.223   1.148
43186SOL    HW131391  12.818   5.262   1.065
43186SOL    HW231392  12.931   5.181   1.126
43187SOL     OW31393   9.274   1.675   5.021
43187SOL    HW131394   9.245   1.737   4.954
43187SOL    HW231395   9.194   1.631   5.050
43188SOL     OW31396   5.759   9.209   6.303
43188SOL    HW131397   5.764   9.141   6.370
43188SOL    HW231398   5.837   9.263   6.317
43189SOL     OW31399   2.405  10.356   2.419
43189SOL    HW131400   2.372  10.373   2.330
43189SOL    HW231401   2.326  10.347   2.472
43190SOL     OW31402   4.721   1.916  14.194
43190SOL    HW131403   4.773   1.885  14.119
43190SOL    HW231404   4.719   1.841  14.253
43191SOL     OW31405   0.359   1.111   5.243
43191SOL    HW131406   0.444   1.073   5.264
43191SOL    HW231407   0.370   1.149   5.155
43192SOL     OW31408   3.948  10.483   8.026
43192SOL    HW131409   3.882  10.528   7.974
43192SOL    HW231410   4.032  10.519   7.995
43193SOL     OW31411  13.739   9.637   6.678
43193SOL    HW131412  13.806   9.683   6.729
43193SOL    HW231413  13.784   9.559   6.645
43194SOL     OW31414  14.350   1.599   7.039
43194SOL    HW131415  14.259   1.620   7.061
43194SOL    HW231416  14.376   1.665   6.976
43195SOL     OW31417   9.011  10.928  11.748
43195SOL    HW131418   8.942  10.882  11.796
43195SOL    HW231419   8.979  10.931  11.658
43196SOL     OW31420   5.392   9.795   8.783
43196SOL    HW131421   5.452   9.842   8.724
43196SOL    HW231422   5.441   9.784   8.864
43197SOL     OW31423  14.536   7.282  13.008
43197SOL    HW131424  14.565   7.196  12.978
43197SOL    HW231425  14.530   7.274  13.103
43198SOL     OW31426  14.328   2.779  14.463
43198SOL    HW131427  14.257   2.843  14.457
43198SOL    HW231428  14.285   2.695  14.477
43199SOL     OW31429  11.050   6.373   7.515
43199SOL    HW131430  11.068   6.368   7.421
43199SOL    HW231431  10.977   6.312   7.529
43200SOL     OW31432   9.542   5.477   4.985
43200SOL    HW131433   9.575   5.549   5.038
43200SOL    HW231434   9.618   5.421   4.971
43201SOL     OW31435   3.393  14.038   2.822
43201SOL    HW131436   3.377  14.128   2.850
43201SOL    HW231437   3.384  14.040   2.727
43202SOL     OW31438   6.632  14.548  11.109
43202SOL    HW131439   6.705  14.560  11.048
43202SOL    HW231440   6.608  14.637  11.135
43203SOL     OW31441   2.922   2.220  14.201
43203SOL    HW131442   2.885   2.139  14.238
43203SOL    HW231443   2.881   2.227  14.115
43204SOL     OW31444  11.011   0.305   0.596
43204SOL    HW131445  11.005   0.310   0.501
43204SOL    HW231446  10.964   0.383   0.628
43205SOL     OW31447  12.938   6.158   8.038
43205SOL    HW131448  12.916   6.066   8.024
43205SOL    HW231449  12.995   6.158   8.115
43206SOL     OW31450   9.174   9.481  14.449
43206SOL    HW131451   9.139   9.407  14.499
43206SOL    HW231452   9.168   9.453  14.358
43207SOL     OW31453   3.731   0.158   8.560
43207SOL    HW131454   3.645   0.133   8.528
43207SOL    HW231455   3.723   0.156   8.655
43208SOL     OW31456   9.454   2.804   5.562
43208SOL    HW131457   9.415   2.762   5.485
43208SOL    HW231458   9.465   2.895   5.536
43209SOL     OW31459   5.166  12.557   9.047
43209SOL    HW131460   5.182  12.489   8.981
43209SOL    HW231461   5.120  12.626   9.000
43210SOL     OW31462  13.311   9.051   5.412
43210SOL    HW131463  13.288   9.092   5.495
43210SOL    HW231464  13.246   9.085   5.350
43211SOL     OW31465   1.219   8.216  11.572
43211SOL    HW131466   1.290   8.203  11.509
43211SOL    HW231467   1.169   8.289  11.536
43212SOL     OW31468   4.895   4.761  13.477
43212SOL    HW131469   4.840   4.695  13.435
43212SOL    HW231470   4.984   4.729  13.468
43213SOL     OW31471   1.604   1.808   2.094
43213SOL    HW131472   1.588   1.728   2.044
43213SOL    HW231473   1.699   1.813   2.104
43214SOL     OW31474  13.730  14.864   8.049
43214SOL    HW131475  13.686  14.780   8.042
43214SOL    HW231476  13.803  14.848   8.110
43215SOL     OW31477  11.151   7.256   9.020
43215SOL    HW131478  11.134   7.197   8.946
43215SOL    HW231479  11.119   7.341   8.990
43216SOL     OW31480   9.601   9.230   8.875
43216SOL    HW131481   9.651   9.154   8.904
43216SOL    HW231482   9.510   9.200   8.875
43217SOL     OW31483  11.860   4.384   3.395
43217SOL    HW131484  11.846   4.443   3.470
43217SOL    HW231485  11.791   4.409   3.333
43218SOL     OW31486   1.919   8.162   5.803
43218SOL    HW131487   1.860   8.207   5.742
43218SOL    HW231488   1.885   8.073   5.809
43219SOL     OW31489  10.286   3.680  13.529
43219SOL    HW131490  10.358   3.735  13.559
43219SOL    HW231491  10.228   3.671  13.605
43220SOL     OW31492   6.268  11.475   4.297
43220SOL    HW131493   6.290  11.446   4.209
43220SOL    HW231494   6.239  11.566   4.286
43221SOL     OW31495   6.317   3.465   1.296
43221SOL    HW131496   6.250   3.397   1.294
43221SOL    HW231497   6.389   3.429   1.244
43222SOL     OW31498   7.775   0.035  12.460
43222SOL    HW131499   7.864   0.003  12.480
43222SOL    HW231500   7.720  14.870  12.525
43223SOL     OW31501   1.706   7.188  13.622
43223SOL    HW131502   1.791   7.179  13.580
43223SOL    HW231503   1.643   7.187  13.550
43224SOL     OW31504   2.079   9.701   3.545
43224SOL    HW131505   2.072   9.628   3.484
43224SOL    HW231506   2.132   9.766   3.500
43225SOL     OW31507  14.283  12.793   1.978
43225SOL    HW131508  14.208  12.803   2.036
43225SOL    HW231509  14.248  12.750   1.900
43226SOL     OW31510  11.356  10.456   6.134
43226SOL    HW131511  11.418  10.525   6.111
43226SOL    HW231512  11.361  10.450   6.229
43227SOL     OW31513   8.050   0.367   0.092
43227SOL    HW131514   8.088   0.334   0.173
43227SOL    HW231515   8.121   0.359   0.028
43228SOL     OW31516  13.875   8.104  11.280
43228SOL    HW131517  13.800   8.050  11.306
43228SOL    HW231518  13.951   8.058  11.314
43229SOL     OW31519  10.169   6.533  12.972
43229SOL    HW131520  10.260   6.507  12.960
43229SOL    HW231521  10.155   6.531  13.067
43230SOL     OW31522   9.518  11.806  12.410
43230SOL    HW131523   9.511  11.783  12.317
43230SOL    HW231524   9.506  11.901  12.412
43231SOL     OW31525   2.997  12.208  14.158
43231SOL    HW131526   2.913  12.197  14.202
43231SOL    HW231527   3.007  12.303  14.148
43232SOL     OW31528   1.510   8.020  12.351
43232SOL    HW131529   1.427   8.044  12.394
43232SOL    HW231530   1.486   7.947  12.294
43233SOL     OW31531   8.381   3.185   4.738
43233SOL    HW131532   8.339   3.159   4.820
43233SOL    HW231533   8.427   3.106   4.708
43234SOL     OW31534   3.615   0.371   6.273
43234SOL    HW131535   3.558   0.437   6.312
43234SOL    HW231536   3.655   0.327   6.349
43235SOL     OW31537   3.891   8.301   8.444
43235SOL    HW131538   3.863   8.303   8.353
43235SOL    HW231539   3.864   8.386   8.479
43236SOL     OW31540  14.054   7.169  13.498
43236SOL    HW131541  14.140   7.155  13.457
43236SOL    HW231542  14.072   7.228  13.571
43237SOL     OW31543   6.796   2.542   9.982
43237SOL    HW131544   6.707   2.572   9.964
43237SOL    HW231545   6.790   2.501  10.069
43238SOL     OW31546   7.286   5.007  14.216
43238SOL    HW131547   7.373   4.982  14.245
43238SOL    HW231548   7.293   5.018  14.121
43239SOL     OW31549   3.249  14.588  10.518
43239SOL    HW131550   3.296  14.504  10.522
43239SOL    HW231551   3.248  14.610  10.425
43240SOL     OW31552   1.912   0.716   0.858
43240SOL    HW131553   1.995   0.675   0.833
43240SOL    HW231554   1.932   0.810   0.861
43241SOL     OW31555  11.089  10.949   4.670
43241SOL    HW131556  11.099  10.975   4.762
43241SOL    HW231557  11.058  11.028   4.626
43242SOL     OW31558   8.843   2.362   4.211
43242SOL    HW131559   8.889   2.309   4.146
43242SOL    HW231560   8.754   2.327   4.211
43243SOL     OW31561  11.495  11.801   2.033
43243SOL    HW131562  11.401  11.789   2.025
43243SOL    HW231563  11.506  11.850   2.114
43244SOL     OW31564   5.753   6.764  13.093
43244SOL    HW131565   5.796   6.808  13.166
43244SOL    HW231566   5.758   6.826  13.021
43245SOL     OW31567  10.639   3.912   3.590
43245SOL    HW131568  10.574   3.982   3.593
43245SOL    HW231569  10.642   3.886   3.498
43246SOL     OW31570  11.727   6.025  13.446
43246SOL    HW131571  11.637   6.014  13.414
43246SOL    HW231572  11.734   6.118  13.465
43247SOL     OW31573  14.516   3.684   4.376
43247SOL    HW131574  14.508   3.637   4.459
43247SOL    HW231575  14.473   3.768   4.391
43248SOL     OW31576   8.080   5.208  13.018
43248SOL    HW131577   7.993   5.210  12.978
43248SOL    HW231578   8.121   5.290  12.991
43249SOL     OW31579  10.978   2.235  10.601
43249SOL    HW131580  10.988   2.150  10.558
43249SOL    HW231581  10.941   2.214  10.687
43250SOL     OW31582   0.975  12.411   0.454
43250SOL    HW131583   0.888  12.388   0.421
43250SOL    HW231584   1.025  12.434   0.375
43251SOL     OW31585  10.392  10.830   6.457
43251SOL    HW131586  10.458  10.895   6.434
43251SOL    HW231587  10.394  10.767   6.385
43252SOL     OW31588   2.664   2.850   2.690
43252SOL    HW131589   2.624   2.790   2.752
43252SOL    HW231590   2.735   2.892   2.739
43253SOL     OW31591  10.438   1.947   3.402
43253SOL    HW131592  10.388   1.873   3.366
43253SOL    HW231593  10.517   1.952   3.348
43254SOL     OW31594  10.506   1.582   6.579
43254SOL    HW131595  10.505   1.657   6.518
43254SOL    HW231596  10.537   1.619   6.661
43255SOL     OW31597   0.651   4.668  14.656
43255SOL    HW131598   0.639   4.573  14.650
43255SOL    HW231599   0.587   4.696  14.721
43256SOL     OW31600   5.128  10.263  11.510
43256SOL    HW131601   5.170  10.268  11.424
43256SOL    HW231602   5.142  10.173  11.539
43257SOL     OW31603   3.140  11.932  13.452
43257SOL    HW131604   3.218  11.884  13.481
43257SOL    HW231605   3.089  11.945  13.532
43258SOL     OW31606  14.640  10.512   7.118
43258SOL    HW131607  14.690  10.465   7.051
43258SOL    HW231608  14.691  10.500   7.198
43259SOL     OW31609  13.674   9.082  11.454
43259SOL    HW131610  13.660   9.174  11.474
43259SOL    HW231611  13.690   9.040  11.539
43260SOL     OW31612   7.268   9.791  13.652
43260SOL    HW131613   7.310   9.723  13.706
43260SOL    HW231614   7.291   9.873  13.695
43261SOL     OW31615   4.719   8.318   0.742
43261SOL    HW131616   4.694   8.229   0.768
43261SOL    HW231617   4.711   8.369   0.822
43262SOL     OW31618   4.629   4.337  11.328
43262SOL    HW131619   4.615   4.421  11.285
43262SOL    HW231620   4.725   4.327  11.330
43263SOL     OW31621  11.017   1.362  12.763
43263SOL    HW131622  10.972   1.328  12.685
43263SOL    HW231623  10.966   1.439  12.789
43264SOL     OW31624  10.590   6.392  13.963
43264SOL    HW131625  10.672   6.440  13.973
43264SOL    HW231626  10.529   6.455  13.925
43265SOL     OW31627   2.441   0.541  12.484
43265SOL    HW131628   2.508   0.482  12.449
43265SOL    HW231629   2.361   0.518  12.437
43266SOL     OW31630   7.564   1.205   8.094
43266SOL    HW131631   7.517   1.135   8.049
43266SOL    HW231632   7.542   1.194   8.186
43267SOL     OW31633   3.958  14.873   7.470
43267SOL    HW131634   3.911   0.051   7.409
43267SOL    HW231635   4.050   0.004   7.447
43268SOL     OW31636   8.458   6.490  14.614
43268SOL    HW131637   8.393   6.544  14.568
43268SOL    HW231638   8.475   6.536  14.696
43269SOL     OW31639   5.171   8.431   9.205
43269SOL    HW131640   5.159   8.512   9.256
43269SOL    HW231641   5.200   8.367   9.269
43270SOL     OW31642   9.342  13.038  13.674
43270SOL    HW131643   9.369  12.972  13.738
43270SOL    HW231644   9.258  13.070  13.707
43271SOL     OW31645   0.025   8.149   1.804
43271SOL    HW131646   0.003   8.147   1.898
43271SOL    HW231647   0.116   8.178   1.802
43272SOL     OW31648   9.237   2.668   1.165
43272SOL    HW131649   9.184   2.638   1.239
43272SOL    HW231650   9.309   2.604   1.160
43273SOL     OW31651  13.101  13.932   7.265
43273SOL    HW131652  13.047  14.004   7.232
43273SOL    HW231653  13.189  13.969   7.269
43274SOL     OW31654   2.240   4.884   0.446
43274SOL    HW131655   2.312   4.888   0.510
43274SOL    HW231656   2.161   4.882   0.500
43275SOL     OW31657   1.104   5.319  12.639
43275SOL    HW131658   1.056   5.247  12.598
43275SOL    HW231659   1.196   5.300  12.621
43276SOL     OW31660  10.461   2.729   7.121
43276SOL    HW131661  10.486   2.677   7.044
43276SOL    HW231662  10.460   2.667   7.193
43277SOL     OW31663  13.453  13.259   3.579
43277SOL    HW131664  13.549  13.253   3.579
43277SOL    HW231665  13.435  13.353   3.585
43278SOL     OW31666   3.136  11.353  11.919
43278SOL    HW131667   3.194  11.368  11.993
43278SOL    HW231668   3.103  11.264  11.931
43279SOL     OW31669   3.165   8.481   3.281
43279SOL    HW131670   3.214   8.483   3.199
43279SOL    HW231671   3.082   8.438   3.259
43280SOL     OW31672   1.311   9.742   4.960
43280SOL    HW131673   1.329   9.662   4.909
43280SOL    HW231674   1.312   9.812   4.895
43281SOL     OW31675   4.637   0.510   3.521
43281SOL    HW131676   4.636   0.433   3.464
43281SOL    HW231677   4.545   0.528   3.538
43282SOL     OW31678   0.721   2.538   8.598
43282SOL    HW131679   0.645   2.565   8.649
43282SOL    HW231680   0.776   2.616   8.595
43283SOL     OW31681   3.294   2.742  11.740
43283SOL    HW131682   3.359   2.677  11.766
43283SOL    HW231683   3.216   2.690  11.718
43284SOL     OW31684   1.623   3.384   0.157
43284SOL    HW131685   1.636   3.470   0.196
43284SOL    HW231686   1.533   3.385   0.125
43285SOL     OW31687   6.677   5.862   9.866
43285SOL    HW131688   6.739   5.834   9.933
43285SOL    HW231689   6.607   5.907   9.914
43286SOL     OW31690   9.512  12.747   6.320
43286SOL    HW131691   9.576  12.784   6.259
43286SOL    HW231692   9.510  12.654   6.300
43287SOL     OW31693   5.640   7.899  10.437
43287SOL    HW131694   5.693   7.824  10.411
43287SOL    HW231695   5.675   7.971  10.385
43288SOL     OW31696   9.628  11.719   7.068
43288SOL    HW131697   9.702  11.679   7.022
43288SOL    HW231698   9.657  11.725   7.159
43289SOL     OW31699   7.700   5.537   8.768
43289SOL    HW131700   7.721   5.484   8.692
43289SOL    HW231701   7.765   5.513   8.833
43290SOL     OW31702   8.943   4.715  12.578
43290SOL    HW131703   9.026   4.760  12.595
43290SOL    HW231704   8.883   4.785  12.550
43291SOL     OW31705  12.912   0.736  12.780
43291SOL    HW131706  12.923   0.824  12.744
43291SOL    HW231707  12.990   0.722  12.833
43292SOL     OW31708  12.954   7.859   9.811
43292SOL    HW131709  12.911   7.937   9.845
43292SOL    HW231710  13.032   7.848   9.865
43293SOL     OW31711   9.923   8.528   5.821
43293SOL    HW131712   9.868   8.580   5.880
43293SOL    HW231713   9.863   8.468   5.778
43294SOL     OW31714  11.907   2.102  12.337
43294SOL    HW131715  11.824   2.071  12.373
43294SOL    HW231716  11.889   2.192  12.311
43295SOL     OW31717   2.684  13.196   4.531
43295SOL    HW131718   2.711  13.242   4.451
43295SOL    HW231719   2.754  13.132   4.546
43296SOL     OW31720   2.370  13.769   5.580
43296SOL    HW131721   2.449  13.728   5.544
43296SOL    HW231722   2.375  13.750   5.674
43297SOL     OW31723   4.112   9.744   1.058
43297SOL    HW131724   4.186   9.714   1.005
43297SOL    HW231725   4.151   9.767   1.143
43298SOL     OW31726   8.744  11.990   0.018
43298SOL    HW131727   8.837  12.000   0.037
43298SOL    HW231728   8.710  11.937   0.090
43299SOL     OW31729   1.638   0.342   1.789
43299SOL    HW131730   1.645   0.266   1.848
43299SOL    HW231731   1.697   0.321   1.717
43300SOL     OW31732   9.514   2.736   7.961
43300SOL    HW131733   9.439   2.743   8.019
43300SOL    HW231734   9.574   2.677   8.006
43301SOL     OW31735  12.349   9.844  10.191
43301SOL    HW131736  12.409   9.849  10.117
43301SOL    HW231737  12.400   9.875  10.266
43302SOL     OW31738   1.614   3.489  10.171
43302SOL    HW131739   1.599   3.579  10.142
43302SOL    HW231740   1.527   3.450  10.174
43303SOL     OW31741   5.017  14.406   4.817
43303SOL    HW131742   4.984  14.475   4.760
43303SOL    HW231743   5.037  14.450   4.899
43304SOL     OW31744   1.041   0.344   2.223
43304SOL    HW131745   1.048   0.436   2.248
43304SOL    HW231746   0.973   0.343   2.154
43305SOL     OW31747  10.396   1.227   8.986
43305SOL    HW131748  10.473   1.201   8.936
43305SOL    HW231749  10.322   1.192   8.936
43306SOL     OW31750   3.007   3.056   9.933
43306SOL    HW131751   3.002   3.033   9.840
43306SOL    HW231752   3.015   2.972   9.978
43307SOL     OW31753   2.237  13.358   1.321
43307SOL    HW131754   2.285  13.282   1.355
43307SOL    HW231755   2.296  13.432   1.337
43308SOL     OW31756   2.836   9.613   3.018
43308SOL    HW131757   2.822   9.667   2.940
43308SOL    HW231758   2.756   9.624   3.069
43309SOL     OW31759   4.777  10.575   9.560
43309SOL    HW131760   4.806  10.576   9.652
43309SOL    HW231761   4.761  10.482   9.542
43310SOL     OW31762  11.657   9.668   9.568
43310SOL    HW131763  11.575   9.707   9.538
43310SOL    HW231764  11.630   9.601   9.631
43311SOL     OW31765   6.848   4.996  10.750
43311SOL    HW131766   6.845   4.907  10.786
43311SOL    HW231767   6.910   5.043  10.806
43312SOL     OW31768   5.759   3.976  10.047
43312SOL    HW131769   5.775   3.882  10.057
43312SOL    HW231770   5.780   3.994   9.955
43313SOL     OW31771   6.938   5.303   1.823
43313SOL    HW131772   6.852   5.342   1.839
43313SOL    HW231773   6.927   5.254   1.742
43314SOL     OW31774  14.133   1.211   6.254
43314SOL    HW131775  14.118   1.199   6.161
43314SOL    HW231776  14.046   1.216   6.293
43315SOL     OW31777   0.983   8.561   5.065
43315SOL    HW131778   0.966   8.470   5.039
43315SOL    HW231779   1.074   8.576   5.041
43316SOL     OW31780   5.019  13.688   7.783
43316SOL    HW131781   5.098  13.709   7.832
43316SOL    HW231782   5.019  13.749   7.710
43317SOL     OW31783   1.694   6.842   0.497
43317SOL    HW131784   1.607   6.844   0.459
43317SOL    HW231785   1.741   6.775   0.448
43318SOL     OW31786  12.949  10.348   0.329
43318SOL    HW131787  12.935  10.257   0.355
43318SOL    HW231788  12.906  10.355   0.244
43319SOL     OW31789   0.928   3.690   0.498
43319SOL    HW131790   0.954   3.604   0.533
43319SOL    HW231791   0.883   3.670   0.416
43320SOL     OW31792   3.491   1.507   7.569
43320SOL    HW131793   3.417   1.558   7.535
43320SOL    HW231794   3.476   1.419   7.536
43321SOL     OW31795  14.020   1.608   1.151
43321SOL    HW131796  13.978   1.560   1.080
43321SOL    HW231797  14.039   1.694   1.114
43322SOL     OW31798  11.048   3.799   7.693
43322SOL    HW131799  11.019   3.796   7.784
43322SOL    HW231800  11.097   3.880   7.685
43323SOL     OW31801  14.415   9.211  10.648
43323SOL    HW131802  14.448   9.244  10.564
43323SOL    HW231803  14.371   9.286  10.688
43324SOL     OW31804  11.234  13.616   7.583
43324SOL    HW131805  11.206  13.533   7.620
43324SOL    HW231806  11.215  13.680   7.651
43325SOL     OW31807  14.150  11.948  14.687
43325SOL    HW131808  14.136  11.854  14.701
43325SOL    HW231809  14.190  11.953  14.600
43326SOL     OW31810   8.147   2.715  13.912
43326SOL    HW131811   8.076   2.747  13.969
43326SOL    HW231812   8.187   2.795  13.878
43327SOL     OW31813  12.389  11.579   3.363
43327SOL    HW131814  12.433  11.646   3.417
43327SOL    HW231815  12.372  11.507   3.424
43328SOL     OW31816   8.475   1.656   4.184
43328SOL    HW131817   8.453   1.713   4.110
43328SOL    HW231818   8.448   1.704   4.261
43329SOL     OW31819  13.441  10.057   0.054
43329SOL    HW131820  13.413  10.126  14.874
43329SOL    HW231821  13.366   9.998   0.061
43330SOL     OW31822   2.823   3.480  13.744
43330SOL    HW131823   2.731   3.479  13.771
43330SOL    HW231824   2.836   3.569  13.710
43331SOL     OW31825   4.883   3.180  14.256
43331SOL    HW131826   4.929   3.197  14.173
43331SOL    HW231827   4.822   3.109  14.235
43332SOL     OW31828   2.587   0.861   1.172
43332SOL    HW131829   2.530   0.928   1.133
43332SOL    HW231830   2.675   0.889   1.149
43333SOL     OW31831   3.272   8.224  13.633
43333SOL    HW131832   3.196   8.260  13.588
43333SOL    HW231833   3.320   8.301  13.665
43334SOL     OW31834   4.572   6.127   2.401
43334SOL    HW131835   4.484   6.095   2.419
43334SOL    HW231836   4.583   6.202   2.459
43335SOL     OW31837   8.593   3.721   0.086
43335SOL    HW131838   8.667   3.662   0.094
43335SOL    HW231839   8.606   3.787   0.155
43336SOL     OW31840   5.519   2.567  14.752
43336SOL    HW131841   5.430   2.562  14.716
43336SOL    HW231842   5.507   2.578  14.846
43337SOL     OW31843   9.409   2.161   6.216
43337SOL    HW131844   9.381   2.079   6.257
43337SOL    HW231845   9.358   2.164   6.135
43338SOL     OW31846  12.454  11.353   4.205
43338SOL    HW131847  12.388  11.422   4.208
43338SOL    HW231848  12.410  11.276   4.241
43339SOL     OW31849   3.649   4.924   3.548
43339SOL    HW131850   3.649   5.012   3.511
43339SOL    HW231851   3.565   4.887   3.520
43340SOL     OW31852  10.481   6.089  11.400
43340SOL    HW131853  10.489   6.099  11.305
43340SOL    HW231854  10.391   6.115  11.419
43341SOL     OW31855   6.489   0.190   6.435
43341SOL    HW131856   6.438   0.175   6.515
43341SOL    HW231857   6.499   0.285   6.431
43342SOL     OW31858   3.931  12.501  14.498
43342SOL    HW131859   3.994  12.502  14.570
43342SOL    HW231860   3.949  12.582  14.450
43343SOL     OW31861   8.531   7.847   9.679
43343SOL    HW131862   8.507   7.846   9.586
43343SOL    HW231863   8.624   7.870   9.681
43344SOL     OW31864   1.844  11.355   3.341
43344SOL    HW131865   1.828  11.277   3.394
43344SOL    HW231866   1.887  11.321   3.262
43345SOL     OW31867  10.132   7.178   2.206
43345SOL    HW131868  10.167   7.146   2.288
43345SOL    HW231869  10.070   7.111   2.178
43346SOL     OW31870   7.379  13.576   8.027
43346SOL    HW131871   7.424  13.524   8.093
43346SOL    HW231872   7.441  13.647   8.006
43347SOL     OW31873   2.112   0.733  10.711
43347SOL    HW131874   2.024   0.768  10.696
43347SOL    HW231875   2.141   0.775  10.792
43348SOL     OW31876   8.613   5.753   6.470
43348SOL    HW131877   8.624   5.791   6.383
43348SOL    HW231878   8.697   5.770   6.513
43349SOL     OW31879   4.744  10.664   3.189
43349SOL    HW131880   4.832  10.654   3.152
43349SOL    HW231881   4.725  10.758   3.181
43350SOL     OW31882   4.844   0.922   1.941
43350SOL    HW131883   4.895   0.898   1.864
43350SOL    HW231884   4.787   0.993   1.912
43351SOL     OW31885  13.276   9.550   4.747
43351SOL    HW131886  13.188   9.560   4.782
43351SOL    HW231887  13.303   9.462   4.772
43352SOL     OW31888  14.030   0.567   0.856
43352SOL    HW131889  14.085   0.643   0.873
43352SOL    HW231890  14.074   0.520   0.786
43353SOL     OW31891   4.029  12.778   5.411
43353SOL    HW131892   3.992  12.845   5.468
43353SOL    HW231893   3.977  12.783   5.331
43354SOL     OW31894  10.399   5.991   0.035
43354SOL    HW131895  10.310   6.020   0.017
43354SOL    HW231896  10.397   5.964   0.127
43355SOL     OW31897  14.368  14.318   0.627
43355SOL    HW131898  14.429  14.387   0.653
43355SOL    HW231899  14.282  14.359   0.631
43356SOL     OW31900   0.911   1.620  12.610
43356SOL    HW131901   0.886   1.611  12.702
43356SOL    HW231902   0.829   1.611  12.561
43357SOL     OW31903   9.504   4.145  11.908
43357SOL    HW131904   9.433   4.210  11.911
43357SOL    HW231905   9.539   4.144  11.997
43358SOL     OW31906  14.382   9.759   7.913
43358SOL    HW131907  14.432   9.812   7.851
43358SOL    HW231908  14.412   9.670   7.899
43359SOL     OW31909   3.698   6.885  10.795
43359SOL    HW131910   3.635   6.862  10.726
43359SOL    HW231911   3.691   6.813  10.857
43360SOL     OW31912   5.195   8.276   1.133
43360SOL    HW131913   5.165   8.333   1.062
43360SOL    HW231914   5.131   8.205   1.136
43361SOL     OW31915   0.404   3.087   1.412
43361SOL    HW131916   0.421   3.164   1.359
43361SOL    HW231917   0.335   3.040   1.365
43362SOL     OW31918   8.157   5.278  10.262
43362SOL    HW131919   8.169   5.187  10.289
43362SOL    HW231920   8.240   5.303  10.222
43363SOL     OW31921   0.426  11.669   2.556
43363SOL    HW131922   0.337  11.666   2.521
43363SOL    HW231923   0.415  11.700   2.646
43364SOL     OW31924   8.547  10.462  10.358
43364SOL    HW131925   8.565  10.373  10.388
43364SOL    HW231926   8.629  10.510  10.372
43365SOL     OW31927   6.508   2.324   0.433
43365SOL    HW131928   6.429   2.374   0.414
43365SOL    HW231929   6.562   2.385   0.484
43366SOL     OW31930   9.672   8.488  11.298
43366SOL    HW131931   9.768   8.488  11.301
43366SOL    HW231932   9.650   8.558  11.237
43367SOL     OW31933   2.693  11.016  14.086
43367SOL    HW131934   2.698  11.092  14.143
43367SOL    HW231935   2.762  10.958  14.118
43368SOL     OW31936  13.086   0.686   4.669
43368SOL    HW131937  12.995   0.714   4.658
43368SOL    HW231938  13.123   0.692   4.581
43369SOL     OW31939   3.075  14.357   2.495
43369SOL    HW131940   3.016  14.308   2.552
43369SOL    HW231941   3.019  14.393   2.427
43370SOL     OW31942   6.407   8.014   7.777
43370SOL    HW131943   6.490   8.005   7.730
43370SOL    HW231944   6.380   7.925   7.797
43371SOL     OW31945   5.383  14.336   4.824
43371SOL    HW131946   5.331  14.271   4.872
43371SOL    HW231947   5.367  14.418   4.871
43372SOL     OW31948   3.935  12.487   3.883
43372SOL    HW131949   4.007  12.492   3.946
43372SOL    HW231950   3.977  12.499   3.798
43373SOL     OW31951   7.682   1.520   7.265
43373SOL    HW131952   7.721   1.528   7.178
43373SOL    HW231953   7.757   1.514   7.324
43374SOL     OW31954   8.891   5.435   2.402
43374SOL    HW131955   8.867   5.526   2.418
43374SOL    HW231956   8.946   5.438   2.324
43375SOL     OW31957   6.669   9.351   8.225
43375SOL    HW131958   6.662   9.387   8.136
43375SOL    HW231959   6.635   9.262   8.217
43376SOL     OW31960  10.716   9.675  12.235
43376SOL    HW131961  10.714   9.749  12.174
43376SOL    HW231962  10.752   9.603  12.184
43377SOL     OW31963   4.398  12.373  11.322
43377SOL    HW131964   4.374  12.355  11.231
43377SOL    HW231965   4.335  12.322  11.374
43378SOL     OW31966  12.231   3.883  13.365
43378SOL    HW131967  12.222   3.793  13.334
43378SOL    HW231968  12.314   3.913  13.326
43379SOL     OW31969   3.977   4.889  13.271
43379SOL    HW131970   4.048   4.877  13.334
43379SOL    HW231971   3.941   4.975  13.291
43380SOL     OW31972   9.573  11.764  13.416
43380SOL    HW131973   9.553  11.671  13.404
43380SOL    HW231974   9.595  11.772  13.509
43381SOL     OW31975   1.920   2.336   2.069
43381SOL    HW131976   1.918   2.430   2.084
43381SOL    HW231977   2.009   2.319   2.038
43382SOL     OW31978  13.195   9.094   0.039
43382SOL    HW131979  13.265   9.034   0.064
43382SOL    HW231980  13.233   9.181   0.051
43383SOL     OW31981   5.668  12.684   1.670
43383SOL    HW131982   5.678  12.690   1.575
43383SOL    HW231983   5.702  12.767   1.703
43384SOL     OW31984  10.895  12.952  13.265
43384SOL    HW131985  10.819  12.921  13.216
43384SOL    HW231986  10.914  12.882  13.328
43385SOL     OW31987  10.629  11.271  11.106
43385SOL    HW131988  10.709  11.233  11.141
43385SOL    HW231989  10.641  11.366  11.115
43386SOL     OW31990   8.367   5.509   2.556
43386SOL    HW131991   8.379   5.553   2.472
43386SOL    HW231992   8.320   5.428   2.533
43387SOL     OW31993   9.702  10.459   5.003
43387SOL    HW131994   9.665  10.507   5.078
43387SOL    HW231995   9.702  10.368   5.031
43388SOL     OW31996  13.379   2.919   4.413
43388SOL    HW131997  13.336   2.840   4.378
43388SOL    HW231998  13.392   2.900   4.506
43389SOL     OW31999   5.035  10.303   1.510
43389SOL    HW132000   5.096  10.324   1.580
43389SOL    HW232001   5.051  10.371   1.444
43390SOL     OW32002   2.266   6.105   5.205
43390SOL    HW132003   2.251   6.061   5.289
43390SOL    HW232004   2.197   6.071   5.148
43391SOL     OW32005   9.254  12.211   3.312
43391SOL    HW132006   9.203  12.289   3.334
43391SOL    HW232007   9.293  12.183   3.395
43392SOL     OW32008   7.653   5.179  10.230
43392SOL    HW132009   7.728   5.132  10.264
43392SOL    HW232010   7.684   5.218  10.148
43393SOL     OW32011   4.197   0.800   4.969
43393SOL    HW132012   4.200   0.895   4.963
43393SOL    HW232013   4.272   0.770   4.917
43394SOL     OW32014  13.034   4.778  10.979
43394SOL    HW132015  13.010   4.825  10.900
43394SOL    HW232016  13.016   4.839  11.050
43395SOL     OW32017   1.303  12.941   8.074
43395SOL    HW132018   1.274  12.952   7.984
43395SOL    HW232019   1.356  12.860   8.073
43396SOL     OW32020   2.214   2.577  12.811
43396SOL    HW132021   2.138   2.536  12.851
43396SOL    HW232022   2.215   2.666  12.847
43397SOL     OW32023   9.131   8.348   4.288
43397SOL    HW132024   9.070   8.329   4.359
43397SOL    HW232025   9.079   8.339   4.208
43398SOL     OW32026   2.133   8.217   3.351
43398SOL    HW132027   2.197   8.268   3.402
43398SOL    HW232028   2.185   8.179   3.280
43399SOL     OW32029  12.714   8.037  14.601
43399SOL    HW132030  12.643   8.080  14.553
43399SOL    HW232031  12.728   7.954  14.555
43400SOL     OW32032   0.046   4.025   4.997
43400SOL    HW132033   0.021   3.941   4.957
43400SOL    HW232034   0.047   4.087   4.924
43401SOL     OW32035  10.502  14.828  11.172
43401SOL    HW132036  10.410  14.847  11.155
43401SOL    HW232037  10.502  14.738  11.206
43402SOL     OW32038   3.465  12.186   0.205
43402SOL    HW132039   3.384  12.173   0.254
43402SOL    HW232040   3.440  12.170   0.114
43403SOL     OW32041  11.763  12.702  13.815
43403SOL    HW132042  11.798  12.664  13.895
43403SOL    HW232043  11.680  12.741  13.841
43404SOL     OW32044   7.745   1.390   9.129
43404SOL    HW132045   7.736   1.333   9.205
43404SOL    HW232046   7.764   1.331   9.057
43405SOL     OW32047  10.349  13.414   0.131
43405SOL    HW132048  10.319  13.489   0.182
43405SOL    HW232049  10.284  13.346   0.146
43406SOL     OW32050  14.468   5.556   4.088
43406SOL    HW132051  14.457   5.644   4.051
43406SOL    HW232052  14.451   5.567   4.181
43407SOL     OW32053   5.083  14.525   0.773
43407SOL    HW132054   5.138  14.471   0.717
43407SOL    HW232055   5.140  14.597   0.800
43408SOL     OW32056   1.149   7.263  12.755
43408SOL    HW132057   1.176   7.255  12.847
43408SOL    HW232058   1.202   7.198  12.709
43409SOL     OW32059   1.137   5.752   9.244
43409SOL    HW132060   1.045   5.729   9.238
43409SOL    HW232061   1.167   5.754   9.153
43410SOL     OW32062   7.564   4.046   2.484
43410SOL    HW132063   7.638   3.985   2.476
43410SOL    HW232064   7.506   4.022   2.412
43411SOL     OW32065   4.414  12.596  11.030
43411SOL    HW132066   4.378  12.649  11.101
43411SOL    HW232067   4.400  12.506  11.057
43412SOL     OW32068   9.231   6.700  11.377
43412SOL    HW132069   9.202   6.622  11.424
43412SOL    HW232070   9.299   6.668  11.317
43413SOL     OW32071  14.781  14.189   2.881
43413SOL    HW132072  14.799  14.246   2.806
43413SOL    HW232073  14.852  14.125   2.880
43414SOL     OW32074   6.429   4.955  10.550
43414SOL    HW132075   6.524   4.940  10.546
43414SOL    HW232076   6.420   5.046  10.578
43415SOL     OW32077   2.950  13.401  13.905
43415SOL    HW132078   2.978  13.359  13.823
43415SOL    HW232079   2.886  13.467  13.877
43416SOL     OW32080   9.639  10.981   7.424
43416SOL    HW132081   9.584  10.903   7.437
43416SOL    HW232082   9.615  11.040   7.495
43417SOL     OW32083  13.924   8.629   6.364
43417SOL    HW132084  13.914   8.723   6.380
43417SOL    HW232085  13.860   8.588   6.423
43418SOL     OW32086   8.346  10.092  13.474
43418SOL    HW132087   8.390  10.037  13.540
43418SOL    HW232088   8.417  10.139  13.431
43419SOL     OW32089   7.933   2.746   8.112
43419SOL    HW132090   7.938   2.684   8.040
43419SOL    HW232091   7.924   2.691   8.190
43420SOL     OW32092  10.792  13.399   5.110
43420SOL    HW132093  10.725  13.426   5.172
43420SOL    HW232094  10.855  13.349   5.162
43421SOL     OW32095   5.745   0.155  14.327
43421SOL    HW132096   5.722   0.067  14.295
43421SOL    HW232097   5.769   0.142  14.418
43422SOL     OW32098  10.743   8.563   4.182
43422SOL    HW132099  10.749   8.644   4.233
43422SOL    HW232100  10.713   8.498   4.246
43423SOL     OW32101   3.263   7.905   1.432
43423SOL    HW132102   3.267   7.846   1.356
43423SOL    HW232103   3.351   7.944   1.436
43424SOL     OW32104  14.829   7.718   5.950
43424SOL    HW132105  14.830   7.657   5.876
43424SOL    HW232106   0.030   7.698   5.999
43425SOL     OW32107   1.352   0.892  10.397
43425SOL    HW132108   1.296   0.966  10.374
43425SOL    HW232109   1.292   0.824  10.427
43426SOL     OW32110  12.804  12.978   2.420
43426SOL    HW132111  12.778  12.972   2.512
43426SOL    HW232112  12.723  12.967   2.371
43427SOL     OW32113   7.693  10.971  13.717
43427SOL    HW132114   7.751  11.033  13.761
43427SOL    HW232115   7.741  10.888  13.718
43428SOL     OW32116   5.965  12.909   9.907
43428SOL    HW132117   5.904  12.907   9.833
43428SOL    HW232118   5.972  12.817   9.935
43429SOL     OW32119  12.119   6.466  10.328
43429SOL    HW132120  12.058   6.407  10.372
43429SOL    HW232121  12.191   6.411  10.300
43430SOL     OW32122  10.759   9.065  12.496
43430SOL    HW132123  10.677   9.020  12.473
43430SOL    HW232124  10.775   9.125  12.423
43431SOL     OW32125   0.452   0.993   3.131
43431SOL    HW132126   0.468   0.899   3.123
43431SOL    HW232127   0.496   1.018   3.211
43432SOL     OW32128   0.338   7.906  14.284
43432SOL    HW132129   0.394   7.946  14.217
43432SOL    HW232130   0.320   7.977  14.346
43433SOL     OW32131   0.320  10.699   6.272
43433SOL    HW132132   0.379  10.630   6.240
43433SOL    HW232133   0.361  10.781   6.244
43434SOL     OW32134   4.800  12.610  11.988
43434SOL    HW132135   4.853  12.637  12.063
43434SOL    HW232136   4.855  12.548  11.941
43435SOL     OW32137   4.096   7.024   7.821
43435SOL    HW132138   4.098   6.993   7.912
43435SOL    HW232139   4.179   7.069   7.809
43436SOL     OW32140  11.183  14.488  13.069
43436SOL    HW132141  11.178  14.581  13.048
43436SOL    HW232142  11.152  14.443  12.991
43437SOL     OW32143  13.939   7.088   6.051
43437SOL    HW132144  13.946   7.165   5.996
43437SOL    HW232145  13.863   7.105   6.107
43438SOL     OW32146   5.365   3.238   1.634
43438SOL    HW132147   5.399   3.166   1.580
43438SOL    HW232148   5.434   3.304   1.633
43439SOL     OW32149  11.533  14.700   7.332
43439SOL    HW132150  11.490  14.682   7.248
43439SOL    HW232151  11.507  14.790   7.354
43440SOL     OW32152   3.398   1.842   6.983
43440SOL    HW132153   3.356   1.920   7.018
43440SOL    HW232154   3.436   1.799   7.060
43441SOL     OW32155  13.454   1.310   4.169
43441SOL    HW132156  13.509   1.356   4.106
43441SOL    HW232157  13.365   1.317   4.133
43442SOL     OW32158  13.046   8.369   6.513
43442SOL    HW132159  13.057   8.442   6.452
43442SOL    HW232160  13.110   8.304   6.484
43443SOL     OW32161   8.038   9.100   0.260
43443SOL    HW132162   8.121   9.085   0.304
43443SOL    HW232163   8.050   9.062   0.172
43444SOL     OW32164   9.117   7.132   0.908
43444SOL    HW132165   9.151   7.144   0.996
43444SOL    HW232166   9.190   7.155   0.850
43445SOL     OW32167   7.579   3.950   4.815
43445SOL    HW132168   7.619   3.887   4.755
43445SOL    HW232169   7.601   4.036   4.779
43446SOL     OW32170   3.073  14.011   1.386
43446SOL    HW132171   3.111  14.086   1.339
43446SOL    HW232172   3.120  14.008   1.469
43447SOL     OW32173   0.371   6.058  13.227
43447SOL    HW132174   0.456   6.053  13.183
43447SOL    HW232175   0.320   6.121  13.176
43448SOL     OW32176  12.027   6.724   4.041
43448SOL    HW132177  11.952   6.714   4.099
43448SOL    HW232178  12.060   6.635   4.028
43449SOL     OW32179   7.943   1.768   1.957
43449SOL    HW132180   8.002   1.747   2.028
43449SOL    HW232181   7.855   1.756   1.994
43450SOL     OW32182  14.298  14.737   8.256
43450SOL    HW132183  14.260  14.825   8.254
43450SOL    HW232184  14.303  14.710   8.165
43451SOL     OW32185   5.806   0.390   6.696
43451SOL    HW132186   5.768   0.392   6.608
43451SOL    HW232187   5.900   0.388   6.681
43452SOL     OW32188   1.522   6.222   4.571
43452SOL    HW132189   1.460   6.233   4.499
43452SOL    HW232190   1.482   6.268   4.645
43453SOL     OW32191   0.579   6.298   8.918
43453SOL    HW132192   0.541   6.258   8.839
43453SOL    HW232193   0.512   6.360   8.948
43454SOL     OW32194   2.033  10.787  10.808
43454SOL    HW132195   1.973  10.779  10.734
43454SOL    HW232196   2.120  10.776  10.770
43455SOL     OW32197   2.967  11.812   9.088
43455SOL    HW132198   2.994  11.756   9.015
43455SOL    HW232199   2.872  11.822   9.077
43456SOL     OW32200   9.931  13.640   2.272
43456SOL    HW132201   9.938  13.544   2.272
43456SOL    HW232202   9.941  13.665   2.181
43457SOL     OW32203  12.191   1.022   1.358
43457SOL    HW132204  12.220   0.949   1.413
43457SOL    HW232205  12.105   1.045   1.392
43458SOL     OW32206   0.613   2.123   2.887
43458SOL    HW132207   0.532   2.154   2.847
43458SOL    HW232208   0.593   2.116   2.980
43459SOL     OW32209   8.947  14.661  13.372
43459SOL    HW132210   8.964  14.630  13.283
43459SOL    HW232211   8.993  14.745  13.377
43460SOL     OW32212  12.324   2.703   0.718
43460SOL    HW132213  12.354   2.784   0.676
43460SOL    HW232214  12.351   2.713   0.809
43461SOL     OW32215  10.031   3.045   5.826
43461SOL    HW132216  10.034   3.127   5.875
43461SOL    HW232217   9.955   3.054   5.768
43462SOL     OW32218   5.252  10.504  11.068
43462SOL    HW132219   5.193  10.565  11.025
43462SOL    HW232220   5.320  10.559  11.108
43463SOL     OW32221  13.268  10.698   1.399
43463SOL    HW132222  13.276  10.693   1.495
43463SOL    HW232223  13.239  10.788   1.383
43464SOL     OW32224   8.442   8.554   5.716
43464SOL    HW132225   8.460   8.547   5.622
43464SOL    HW232226   8.423   8.464   5.742
43465SOL     OW32227   7.782   3.765  12.289
43465SOL    HW132228   7.729   3.802  12.360
43465SOL    HW232229   7.793   3.837  12.228
43466SOL     OW32230   7.501   3.066   9.773
43466SOL    HW132231   7.498   3.142   9.831
43466SOL    HW232232   7.435   3.084   9.706
43467SOL     OW32233   8.771   2.268   5.348
43467SOL    HW132234   8.858   2.231   5.335
43467SOL    HW232235   8.716   2.193   5.368
43468SOL     OW32236   6.158   7.930  10.632
43468SOL    HW132237   6.109   7.948  10.552
43468SOL    HW232238   6.091   7.923  10.700
43469SOL     OW32239   7.390  11.619   1.886
43469SOL    HW132240   7.340  11.537   1.884
43469SOL    HW232241   7.449  11.608   1.961
43470SOL     OW32242   5.284   3.644   4.223
43470SOL    HW132243   5.255   3.714   4.282
43470SOL    HW232244   5.352   3.598   4.272
43471SOL     OW32245  14.492   6.033   7.718
43471SOL    HW132246  14.426   5.978   7.759
43471SOL    HW232247  14.509   6.103   7.781
43472SOL     OW32248   1.073   3.157  11.129
43472SOL    HW132249   1.102   3.078  11.175
43472SOL    HW232250   1.009   3.196  11.188
43473SOL     OW32251  12.683  13.217  10.122
43473SOL    HW132252  12.697  13.310  10.141
43473SOL    HW232253  12.637  13.216  10.038
43474SOL     OW32254  13.584   0.930  14.244
43474SOL    HW132255  13.553   0.888  14.164
43474SOL    HW232256  13.673   0.898  14.255
43475SOL     OW32257   6.592   1.382   2.629
43475SOL    HW132258   6.664   1.319   2.630
43475SOL    HW232259   6.513   1.329   2.630
43476SOL     OW32260   0.552  12.330  14.761
43476SOL    HW132261   0.477  12.286  14.801
43476SOL    HW232262   0.611  12.349  14.834
43477SOL     OW32263   0.699   1.969  11.564
43477SOL    HW132264   0.754   1.928  11.631
43477SOL    HW232265   0.634   2.019  11.614
43478SOL     OW32266  12.529  10.336   4.129
43478SOL    HW132267  12.583  10.268   4.169
43478SOL    HW232268  12.581  10.368   4.055
43479SOL     OW32269  11.235  13.933  12.759
43479SOL    HW132270  11.180  13.904  12.832
43479SOL    HW232271  11.231  14.028  12.761
43480SOL     OW32272   5.856  14.526   6.335
43480SOL    HW132273   5.772  14.553   6.299
43480SOL    HW232274   5.918  14.544   6.264
43481SOL     OW32275  11.636   1.439   7.699
43481SOL    HW132276  11.683   1.358   7.677
43481SOL    HW232277  11.614   1.479   7.615
43482SOL     OW32278  10.770  12.629   1.307
43482SOL    HW132279  10.845  12.679   1.338
43482SOL    HW232280  10.730  12.595   1.387
43483SOL     OW32281  13.999  13.206   3.696
43483SOL    HW132282  14.003  13.230   3.789
43483SOL    HW232283  14.074  13.147   3.683
43484SOL     OW32284  14.433   7.491  14.697
43484SOL    HW132285  14.488   7.501  14.619
43484SOL    HW232286  14.409   7.398  14.697
43485SOL     OW32287   6.284  10.870   4.693
43485SOL    HW132288   6.362  10.862   4.638
43485SOL    HW232289   6.289  10.960   4.727
43486SOL     OW32290   9.230  13.014   1.315
43486SOL    HW132291   9.281  13.068   1.375
43486SOL    HW232292   9.143  13.011   1.353
43487SOL     OW32293  11.567  13.012   7.561
43487SOL    HW132294  11.495  13.068   7.530
43487SOL    HW232295  11.642  13.037   7.508
43488SOL     OW32296  12.289   8.585  12.301
43488SOL    HW132297  12.341   8.624  12.371
43488SOL    HW232298  12.198   8.606  12.325
43489SOL     OW32299   7.805   7.863   9.084
43489SOL    HW132300   7.764   7.929   9.140
43489SOL    HW232301   7.757   7.870   9.001
43490SOL     OW32302   9.190  14.315   8.198
43490SOL    HW132303   9.267  14.260   8.215
43490SOL    HW232304   9.159  14.288   8.112
43491SOL     OW32305   7.747   4.255   8.171
43491SOL    HW132306   7.799   4.190   8.123
43491SOL    HW232307   7.796   4.336   8.163
43492SOL     OW32308  14.128  14.806   4.372
43492SOL    HW132309  14.105  14.871   4.305
43492SOL    HW232310  14.086  14.838   4.452
43493SOL     OW32311  10.841   5.219  12.952
43493SOL    HW132312  10.873   5.204  12.863
43493SOL    HW232313  10.840   5.133  12.993
43494SOL     OW32314  13.363  11.116  13.012
43494SOL    HW132315  13.374  11.205  13.046
43494SOL    HW232316  13.268  11.103  13.008
43495SOL     OW32317   7.470   9.926   3.269
43495SOL    HW132318   7.414   9.995   3.233
43495SOL    HW232319   7.426   9.844   3.246
43496SOL     OW32320   8.636   1.113   5.586
43496SOL    HW132321   8.604   1.023   5.581
43496SOL    HW232322   8.721   1.106   5.630
43497SOL     OW32323   9.439  10.402  11.471
43497SOL    HW132324   9.489  10.356  11.404
43497SOL    HW232325   9.473  10.492  11.469
43498SOL     OW32326   4.190  10.617  12.883
43498SOL    HW132327   4.250  10.603  12.956
43498SOL    HW232328   4.169  10.710  12.887
43499SOL     OW32329   4.088  10.373   2.967
43499SOL    HW132330   4.003  10.366   3.011
43499SOL    HW232331   4.129  10.450   3.007
43500SOL     OW32332   5.392   1.562   9.975
43500SOL    HW132333   5.299   1.539   9.979
43500SOL    HW232334   5.402   1.632  10.040
43501SOL     OW32335  13.226   7.365  14.561
43501SOL    HW132336  13.154   7.332  14.614
43501SOL    HW232337  13.209   7.459  14.552
43502SOL     OW32338   8.781   3.627   5.856
43502SOL    HW132339   8.691   3.638   5.825
43502SOL    HW232340   8.829   3.702   5.820
43503SOL     OW32341   6.493  11.396  14.611
43503SOL    HW132342   6.548  11.459  14.565
43503SOL    HW232343   6.552  11.356  14.675
43504SOL     OW32344   6.088  10.055  13.341
43504SOL    HW132345   6.065  10.087  13.253
43504SOL    HW232346   6.010  10.008  13.371
43505SOL     OW32347  13.159  13.568   6.708
43505SOL    HW132348  13.075  13.598   6.742
43505SOL    HW232349  13.137  13.493   6.652
43506SOL     OW32350  11.526   7.196   3.294
43506SOL    HW132351  11.582   7.125   3.261
43506SOL    HW232352  11.448   7.152   3.327
43507SOL     OW32353   3.871   4.783   1.471
43507SOL    HW132354   3.956   4.827   1.482
43507SOL    HW232355   3.874   4.709   1.532
43508SOL     OW32356  13.921   2.581   3.754
43508SOL    HW132357  13.959   2.578   3.842
43508SOL    HW232358  13.928   2.490   3.723
43509SOL     OW32359   0.315  11.394   7.036
43509SOL    HW132360   0.238  11.448   7.020
43509SOL    HW232361   0.298  11.313   6.987
43510SOL     OW32362  13.913  13.944   8.172
43510SOL    HW132363  14.006  13.964   8.162
43510SOL    HW232364  13.911  13.862   8.223
43511SOL     OW32365   3.179   5.086  14.022
43511SOL    HW132366   3.253   5.142  14.047
43511SOL    HW232367   3.117   5.097  14.094
43512SOL     OW32368  14.419  14.819  11.708
43512SOL    HW132369  14.370   0.014  11.672
43512SOL    HW232370  14.406  14.824  11.802
43513SOL     OW32371   0.972   1.296   7.085
43513SOL    HW132372   1.020   1.276   7.005
43513SOL    HW232373   1.011   1.378   7.117
43514SOL     OW32374  12.233   6.002   1.372
43514SOL    HW132375  12.320   5.971   1.350
43514SOL    HW232376  12.232   6.007   1.468
43515SOL     OW32377   2.378   7.060   9.728
43515SOL    HW132378   2.317   7.031   9.797
43515SOL    HW232379   2.465   7.042   9.764
43516SOL     OW32380   6.429   7.583  14.610
43516SOL    HW132381   6.446   7.677  14.608
43516SOL    HW232382   6.475   7.549  14.533
43517SOL     OW32383   8.026   3.303   1.874
43517SOL    HW132384   7.985   3.371   1.820
43517SOL    HW232385   8.119   3.311   1.854
43518SOL     OW32386   8.171   8.813   6.015
43518SOL    HW132387   8.150   8.868   6.090
43518SOL    HW232388   8.104   8.834   5.950
43519SOL     OW32389   0.087   7.270   2.401
43519SOL    HW132390   0.112   7.226   2.482
43519SOL    HW232391   0.017   7.216   2.364
43520SOL     OW32392   0.476   2.158   9.624
43520SOL    HW132393   0.549   2.212   9.594
43520SOL    HW232394   0.501   2.132   9.713
43521SOL     OW32395   3.395   0.353   3.938
43521SOL    HW132396   3.330   0.345   3.867
43521SOL    HW232397   3.371   0.434   3.983
43522SOL     OW32398   8.711   4.086   9.116
43522SOL    HW132399   8.784   4.033   9.146
43522SOL    HW232400   8.737   4.114   9.028
43523SOL     OW32401  11.719   4.427   5.282
43523SOL    HW132402  11.628   4.438   5.309
43523SOL    HW232403  11.712   4.392   5.193
43524SOL     OW32404   8.659   9.811  11.759
43524SOL    HW132405   8.595   9.839  11.694
43524SOL    HW232406   8.742   9.849  11.729
43525SOL     OW32407   4.207   6.557   7.940
43525SOL    HW132408   4.297   6.589   7.942
43525SOL    HW232409   4.157   6.627   7.897
43526SOL     OW32410   2.420   1.618   9.834
43526SOL    HW132411   2.359   1.610   9.760
43526SOL    HW232412   2.402   1.541   9.888
43527SOL     OW32413   8.010  12.194  10.791
43527SOL    HW132414   8.053  12.144  10.860
43527SOL    HW232415   8.082  12.244  10.751
43528SOL     OW32416   9.424   5.258   1.721
43528SOL    HW132417   9.462   5.345   1.732
43528SOL    HW232418   9.449   5.210   1.801
43529SOL     OW32419   2.136  13.794   2.291
43529SOL    HW132420   2.145  13.702   2.265
43529SOL    HW232421   2.200  13.840   2.237
43530SOL     OW32422   9.038  12.199  12.051
43530SOL    HW132423   9.087  12.281  12.047
43530SOL    HW232424   8.947  12.226  12.062
43531SOL     OW32425  12.211  12.388   5.841
43531SOL    HW132426  12.239  12.410   5.752
43531SOL    HW232427  12.272  12.434   5.897
43532SOL     OW32428   6.204   8.495  14.000
43532SOL    HW132429   6.136   8.563  13.994
43532SOL    HW232430   6.286   8.543  14.008
43533SOL     OW32431   3.491   2.876   6.988
43533SOL    HW132432   3.449   2.943   6.934
43533SOL    HW232433   3.573   2.916   7.017
43534SOL     OW32434  13.263   7.762   4.476
43534SOL    HW132435  13.183   7.795   4.517
43534SOL    HW232436  13.234   7.719   4.396
43535SOL     OW32437   2.629   2.251   4.256
43535SOL    HW132438   2.596   2.246   4.345
43535SOL    HW232439   2.703   2.190   4.254
43536SOL     OW32440   0.974   4.088  14.813
43536SOL    HW132441   0.949   4.144  14.739
43536SOL    HW232442   0.964   4.145   0.010
43537SOL     OW32443   6.568  11.045   9.360
43537SOL    HW132444   6.485  11.083   9.388
43537SOL    HW232445   6.545  10.958   9.327
43538SOL     OW32446  11.900  10.513   3.743
43538SOL    HW132447  11.990  10.484   3.752
43538SOL    HW232448  11.871  10.479   3.658
43539SOL     OW32449   5.726   0.104   5.277
43539SOL    HW132450   5.711   0.130   5.186
43539SOL    HW232451   5.664   0.157   5.328
43540SOL     OW32452  11.068   2.941  12.871
43540SOL    HW132453  11.072   2.907  12.960
43540SOL    HW232454  10.979   2.975  12.862
43541SOL     OW32455  11.689  13.523   1.358
43541SOL    HW132456  11.763  13.511   1.299
43541SOL    HW232457  11.707  13.465   1.433
43542SOL     OW32458   3.442  13.355   4.649
43542SOL    HW132459   3.537  13.343   4.644
43542SOL    HW232460   3.430  13.432   4.705
43543SOL     OW32461  12.596   1.953  13.330
43543SOL    HW132462  12.553   2.019  13.275
43543SOL    HW232463  12.593   1.990  13.418
43544SOL     OW32464   8.812   8.069   4.998
43544SOL    HW132465   8.803   8.155   4.956
43544SOL    HW232466   8.850   8.089   5.084
43545SOL     OW32467   7.535   2.623  11.654
43545SOL    HW132468   7.612   2.633  11.710
43545SOL    HW232469   7.467   2.589  11.713
43546SOL     OW32470   5.213   6.880   1.592
43546SOL    HW132471   5.292   6.932   1.608
43546SOL    HW232472   5.156   6.900   1.666
43547SOL     OW32473   8.636   9.045   8.796
43547SOL    HW132474   8.562   9.055   8.737
43547SOL    HW232475   8.618   8.964   8.845
43548SOL     OW32476   0.080   6.609   0.670
43548SOL    HW132477   0.114   6.544   0.731
43548SOL    HW232478   0.150   6.619   0.605
43549SOL     OW32479  12.464   0.246   5.729
43549SOL    HW132480  12.537   0.242   5.668
43549SOL    HW232481  12.493   0.194   5.804
43550SOL     OW32482   7.248  11.510   4.754
43550SOL    HW132483   7.234  11.484   4.845
43550SOL    HW232484   7.319  11.453   4.724
43551SOL     OW32485  11.370   9.736   8.033
43551SOL    HW132486  11.359   9.650   7.993
43551SOL    HW232487  11.298   9.743   8.096
43552SOL     OW32488   5.959  14.069  12.047
43552SOL    HW132489   5.897  14.002  12.019
43552SOL    HW232490   5.920  14.107  12.126
43553SOL     OW32491   9.964   9.397   9.833
43553SOL    HW132492   9.933   9.487   9.838
43553SOL    HW232493   9.887   9.343   9.854
43554SOL     OW32494   5.439  10.555   8.500
43554SOL    HW132495   5.375  10.525   8.565
43554SOL    HW232496   5.504  10.485   8.494
43555SOL     OW32497  12.027   6.343   9.341
43555SOL    HW132498  12.093   6.402   9.304
43555SOL    HW232499  12.018   6.372   9.432
43556SOL     OW32500  10.851   8.737   3.852
43556SOL    HW132501  10.774   8.781   3.888
43556SOL    HW232502  10.825   8.710   3.764
43557SOL     OW32503  12.844   0.875   9.367
43557SOL    HW132504  12.767   0.925   9.337
43557SOL    HW232505  12.807   0.803   9.418
43558SOL     OW32506   4.566   8.676   2.496
43558SOL    HW132507   4.541   8.730   2.571
43558SOL    HW232508   4.603   8.738   2.433
43559SOL     OW32509   9.783  12.377   1.280
43559SOL    HW132510   9.841  12.377   1.356
43559SOL    HW232511   9.695  12.368   1.316
43560SOL     OW32512   7.118  14.301   2.231
43560SOL    HW132513   7.194  14.242   2.238
43560SOL    HW232514   7.145  14.367   2.167
43561SOL     OW32515  12.696  11.510   7.121
43561SOL    HW132516  12.613  11.489   7.164
43561SOL    HW232517  12.762  11.463   7.171
43562SOL     OW32518  14.396   6.652   2.779
43562SOL    HW132519  14.419   6.649   2.686
43562SOL    HW232520  14.479   6.665   2.824
43563SOL     OW32521  12.140   2.878   7.896
43563SOL    HW132522  12.219   2.932   7.903
43563SOL    HW232523  12.171   2.795   7.860
43564SOL     OW32524  11.752  10.851   5.099
43564SOL    HW132525  11.742  10.923   5.037
43564SOL    HW232526  11.692  10.783   5.067
43565SOL     OW32527   2.101   9.886   8.488
43565SOL    HW132528   2.190   9.891   8.525
43565SOL    HW232529   2.114   9.854   8.399
43566SOL     OW32530  12.838   5.934   3.521
43566SOL    HW132531  12.812   5.848   3.554
43566SOL    HW232532  12.769   5.993   3.552
43567SOL     OW32533   3.287   4.858   4.415
43567SOL    HW132534   3.330   4.782   4.375
43567SOL    HW232535   3.231   4.821   4.483
43568SOL     OW32536   2.483  11.970  14.123
43568SOL    HW132537   2.511  12.051  14.165
43568SOL    HW232538   2.558  11.911  14.131
43569SOL     OW32539  11.597  13.030   1.594
43569SOL    HW132540  11.592  13.066   1.505
43569SOL    HW232541  11.524  13.070   1.640
43570SOL     OW32542   4.162   4.998   2.632
43570SOL    HW132543   4.182   4.984   2.724
43570SOL    HW232544   4.203   5.082   2.611
43571SOL     OW32545   7.685   6.677   9.634
43571SOL    HW132546   7.641   6.622   9.569
43571SOL    HW232547   7.623   6.748   9.651
43572SOL     OW32548  12.297   5.296   0.502
43572SOL    HW132549  12.302   5.356   0.427
43572SOL    HW232550  12.241   5.225   0.472
43573SOL     OW32551   7.961   5.841   0.268
43573SOL    HW132552   7.981   5.853   0.175
43573SOL    HW232553   7.868   5.817   0.270
43574SOL     OW32554  14.521   3.629   8.566
43574SOL    HW132555  14.508   3.554   8.507
43574SOL    HW232556  14.604   3.611   8.609
43575SOL     OW32557  13.068   1.454   2.191
43575SOL    HW132558  13.113   1.369   2.186
43575SOL    HW232559  13.104   1.504   2.118
43576SOL     OW32560  10.748   1.945  14.870
43576SOL    HW132561  10.821   1.885   0.004
43576SOL    HW232562  10.789   2.030  14.855
43577SOL     OW32563  13.107   6.179   8.258
43577SOL    HW132564  13.114   6.117   8.331
43577SOL    HW232565  13.149   6.259   8.290
43578SOL     OW32566  13.249   6.143  13.231
43578SOL    HW132567  13.311   6.141  13.304
43578SOL    HW232568  13.232   6.050  13.212
43579SOL     OW32569   4.664   0.047   4.519
43579SOL    HW132570   4.645   0.106   4.592
43579SOL    HW232571   4.593   0.063   4.457
43580SOL     OW32572  13.411  12.485   5.123
43580SOL    HW132573  13.458  12.490   5.040
43580SOL    HW232574  13.361  12.567   5.126
43581SOL     OW32575   9.276  10.728  13.166
43581SOL    HW132576   9.288  10.822  13.151
43581SOL    HW232577   9.255  10.693  13.079
43582SOL     OW32578   7.316  14.523   9.525
43582SOL    HW132579   7.282  14.601   9.569
43582SOL    HW232580   7.369  14.557   9.453
43583SOL     OW32581  14.651   6.382   6.599
43583SOL    HW132582  14.674   6.297   6.637
43583SOL    HW232583  14.635   6.364   6.507
43584SOL     OW32584   0.538  12.056   3.523
43584SOL    HW132585   0.587  12.001   3.461
43584SOL    HW232586   0.591  12.135   3.533
43585SOL     OW32587  11.428   7.275   3.800
43585SOL    HW132588  11.476   7.214   3.857
43585SOL    HW232589  11.476   7.357   3.807
43586SOL     OW32590   8.208   5.701  12.118
43586SOL    HW132591   8.175   5.756  12.047
43586SOL    HW232592   8.298   5.681  12.094
43587SOL     OW32593   5.135   2.848   8.310
43587SOL    HW132594   5.137   2.795   8.230
43587SOL    HW232595   5.045   2.839   8.341
43588SOL     OW32596   4.384  10.331   8.696
43588SOL    HW132597   4.328  10.380   8.637
43588SOL    HW232598   4.358  10.240   8.685
43589SOL     OW32599   3.870   1.398   6.373
43589SOL    HW132600   3.798   1.445   6.330
43589SOL    HW232601   3.826   1.325   6.418
43590SOL     OW32602  13.801   6.273   2.315
43590SOL    HW132603  13.787   6.363   2.344
43590SOL    HW232604  13.894   6.269   2.291
43591SOL     OW32605   0.799   7.292   5.643
43591SOL    HW132606   0.798   7.334   5.557
43591SOL    HW232607   0.717   7.243   5.647
43592SOL     OW32608  13.823   6.831   9.323
43592SOL    HW132609  13.823   6.820   9.418
43592SOL    HW232610  13.864   6.751   9.290
43593SOL     OW32611  10.054   9.502   1.136
43593SOL    HW132612  10.039   9.582   1.186
43593SOL    HW232613  10.042   9.431   1.199
43594SOL     OW32614   4.002  10.894   7.947
43594SOL    HW132615   3.965  10.976   7.979
43594SOL    HW232616   4.009  10.906   7.852
43595SOL     OW32617   7.515   5.685   6.381
43595SOL    HW132618   7.593   5.655   6.334
43595SOL    HW232619   7.442   5.654   6.328
43596SOL     OW32620  10.112  10.912  12.564
43596SOL    HW132621  10.042  10.969  12.532
43596SOL    HW232622  10.136  10.860  12.488
43597SOL     OW32623   7.311  11.325   3.649
43597SOL    HW132624   7.403  11.351   3.652
43597SOL    HW232625   7.313  11.230   3.659
43598SOL     OW32626   5.187  13.470   0.037
43598SOL    HW132627   5.239  13.543   0.071
43598SOL    HW232628   5.238  13.436  14.843
43599SOL     OW32629   3.157   0.904   5.011
43599SOL    HW132630   3.131   0.964   5.081
43599SOL    HW232631   3.242   0.871   5.037
43600SOL     OW32632   3.087   4.302   0.050
43600SOL    HW132633   3.094   4.395   0.029
43600SOL    HW232634   3.121   4.258  14.851
43601SOL     OW32635   5.871   7.366  13.516
43601SOL    HW132636   5.878   7.384  13.422
43601SOL    HW232637   5.796   7.307  13.524
43602SOL     OW32638   2.171  10.349   2.225
43602SOL    HW132639   2.086  10.379   2.192
43602SOL    HW232640   2.225  10.341   2.147
43603SOL     OW32641   8.594   4.632   1.990
43603SOL    HW132642   8.630   4.710   2.033
43603SOL    HW232643   8.636   4.559   2.035
43604SOL     OW32644  14.335   3.037   3.967
43604SOL    HW132645  14.359   3.006   3.880
43604SOL    HW232646  14.337   3.133   3.960
43605SOL     OW32647  12.425  10.653  13.703
43605SOL    HW132648  12.479  10.729  13.682
43605SOL    HW232649  12.385  10.628  13.620
43606SOL     OW32650  13.385   3.300   9.555
43606SOL    HW132651  13.421   3.215   9.580
43606SOL    HW232652  13.461   3.349   9.524
43607SOL     OW32653  14.632  11.866   4.580
43607SOL    HW132654  14.655  11.909   4.498
43607SOL    HW232655  14.661  11.926   4.648
43608SOL     OW32656   9.063   0.578  13.328
43608SOL    HW132657   9.154   0.581  13.358
43608SOL    HW232658   9.044   0.485  13.320
43609SOL     OW32659   8.945   8.711  12.686
43609SOL    HW132660   8.941   8.644  12.755
43609SOL    HW232661   8.927   8.663  12.606
43610SOL     OW32662   3.931   1.811  12.283
43610SOL    HW132663   3.928   1.907  12.289
43610SOL    HW232664   3.961   1.794  12.194
43611SOL     OW32665   1.005   3.566   2.874
43611SOL    HW132666   1.047   3.561   2.960
43611SOL    HW232667   1.077   3.572   2.813
43612SOL     OW32668   9.103   2.963  12.997
43612SOL    HW132669   9.147   3.045  12.976
43612SOL    HW232670   9.146   2.898  12.943
43613SOL     OW32671   0.623   0.578   5.770
43613SOL    HW132672   0.589   0.620   5.849
43613SOL    HW232673   0.710   0.547   5.795
43614SOL     OW32674  12.889  10.445   7.919
43614SOL    HW132675  12.916  10.355   7.896
43614SOL    HW232676  12.868  10.485   7.835
43615SOL     OW32677  14.357   1.567  11.933
43615SOL    HW132678  14.319   1.572  11.845
43615SOL    HW232679  14.326   1.484  11.968
43616SOL     OW32680   6.381  14.151  14.457
43616SOL    HW132681   6.462  14.171  14.409
43616SOL    HW232682   6.394  14.190  14.544
43617SOL     OW32683   8.800   9.698   5.112
43617SOL    HW132684   8.739   9.672   5.181
43617SOL    HW232685   8.880   9.722   5.158
43618SOL     OW32686   9.238  10.117  11.812
43618SOL    HW132687   9.268  10.157  11.731
43618SOL    HW232688   9.166  10.173  11.841
43619SOL     OW32689   8.000   4.322   4.253
43619SOL    HW132690   7.973   4.270   4.177
43619SOL    HW232691   8.071   4.271   4.293
43620SOL     OW32692  11.757   6.032   1.596
43620SOL    HW132693  11.665   6.044   1.618
43620SOL    HW232694  11.760   5.947   1.552
43621SOL     OW32695  14.427  13.458   9.084
43621SOL    HW132696  14.385  13.477   9.000
43621SOL    HW232697  14.382  13.380   9.117
43622SOL     OW32698   6.650   4.305  14.007
43622SOL    HW132699   6.636   4.379  14.066
43622SOL    HW232700   6.715   4.337  13.944
43623SOL     OW32701  14.153   4.395  14.568
43623SOL    HW132702  14.178   4.446  14.645
43623SOL    HW232703  14.098   4.455  14.517
43624SOL     OW32704   2.542  14.268  10.702
43624SOL    HW132705   2.594  14.315  10.637
43624SOL    HW232706   2.601  14.258  10.777
43625SOL     OW32707   8.090   2.181  14.699
43625SOL    HW132708   8.178   2.163  14.668
43625SOL    HW232709   8.075   2.272  14.675
43626SOL     OW32710   9.803   7.611  12.503
43626SOL    HW132711   9.743   7.603  12.428
43626SOL    HW232712   9.877   7.659  12.468
43627SOL     OW32713   3.509   9.174   0.915
43627SOL    HW132714   3.590   9.152   0.960
43627SOL    HW232715   3.501   9.106   0.848
43628SOL     OW32716   6.422   3.216   9.454
43628SOL    HW132717   6.336   3.229   9.493
43628SOL    HW232718   6.404   3.182   9.366
43629SOL     OW32719   2.440   6.686  11.438
43629SOL    HW132720   2.420   6.776  11.413
43629SOL    HW232721   2.531   6.689  11.468
43630SOL     OW32722   0.683  10.846  11.999
43630SOL    HW132723   0.744  10.919  12.010
43630SOL    HW232724   0.609  10.882  11.951
43631SOL     OW32725   8.665   5.662   4.922
43631SOL    HW132726   8.756   5.645   4.946
43631SOL    HW232727   8.622   5.576   4.929
43632SOL     OW32728  14.400   5.680   3.049
43632SOL    HW132729  14.398   5.698   2.955
43632SOL    HW232730  14.441   5.595   3.056
43633SOL     OW32731   7.433   3.591   5.460
43633SOL    HW132732   7.358   3.539   5.429
43633SOL    HW232733   7.450   3.654   5.390
43634SOL     OW32734  12.206   8.512   0.060
43634SOL    HW132735  12.199   8.586   0.120
43634SOL    HW232736  12.133   8.454   0.085
43635SOL     OW32737   4.923   8.939   4.739
43635SOL    HW132738   5.006   8.892   4.749
43635SOL    HW232739   4.866   8.877   4.694
43636SOL     OW32740  13.987   1.592  10.419
43636SOL    HW132741  14.000   1.686  10.411
43636SOL    HW232742  13.898   1.582  10.451
43637SOL     OW32743   5.931  14.623  13.183
43637SOL    HW132744   5.930  14.531  13.159
43637SOL    HW232745   5.954  14.669  13.103
43638SOL     OW32746   4.635  12.683   6.315
43638SOL    HW132747   4.557  12.707   6.264
43638SOL    HW232748   4.602  12.662   6.402
43639SOL     OW32749   0.687   1.356   6.596
43639SOL    HW132750   0.701   1.433   6.651
43639SOL    HW232751   0.648   1.291   6.654
43640SOL     OW32752   1.398  10.314  14.755
43640SOL    HW132753   1.397  10.221  14.732
43640SOL    HW232754   1.417  10.315  14.849
43641SOL     OW32755   3.300   7.326   5.266
43641SOL    HW132756   3.340   7.395   5.318
43641SOL    HW232757   3.324   7.245   5.311
43642SOL     OW32758   1.636   1.194  14.559
43642SOL    HW132759   1.583   1.120  14.530
43642SOL    HW232760   1.573   1.259  14.590
43643SOL     OW32761   3.965   1.602   5.825
43643SOL    HW132762   3.962   1.631   5.916
43643SOL    HW232763   4.058   1.594   5.805
43644SOL     OW32764  13.963   5.912   9.677
43644SOL    HW132765  13.916   5.832   9.654
43644SOL    HW232766  14.054   5.885   9.687
43645SOL     OW32767   6.888  12.936  12.299
43645SOL    HW132768   6.884  12.947  12.204
43645SOL    HW232769   6.819  12.872  12.319
43646SOL     OW32770  10.387  10.750   8.760
43646SOL    HW132771  10.308  10.789   8.722
43646SOL    HW232772  10.358  10.713   8.844
43647SOL     OW32773   3.022   0.799   2.767
43647SOL    HW132774   3.076   0.807   2.688
43647SOL    HW232775   3.038   0.709   2.797
43648SOL     OW32776   5.126   4.589  12.514
43648SOL    HW132777   5.107   4.621  12.425
43648SOL    HW232778   5.175   4.660  12.555
43649SOL     OW32779   9.520   0.493   4.549
43649SOL    HW132780   9.518   0.568   4.608
43649SOL    HW232781   9.609   0.494   4.513
43650SOL     OW32782  10.116   5.696   2.858
43650SOL    HW132783  10.206   5.722   2.842
43650SOL    HW232784  10.074   5.774   2.892
43651SOL     OW32785   2.673  10.947   5.235
43651SOL    HW132786   2.584  10.964   5.268
43651SOL    HW232787   2.730  10.962   5.310
43652SOL     OW32788   5.176  13.924   2.082
43652SOL    HW132789   5.237  13.995   2.063
43652SOL    HW232790   5.203  13.892   2.168
43653SOL     OW32791   7.448  13.569   2.969
43653SOL    HW132792   7.378  13.601   3.026
43653SOL    HW232793   7.528  13.579   3.021
43654SOL     OW32794  13.375   6.764   9.465
43654SOL    HW132795  13.454   6.769   9.519
43654SOL    HW232796  13.363   6.671   9.448
43655SOL     OW32797   8.179  10.654   1.847
43655SOL    HW132798   8.223  10.700   1.918
43655SOL    HW232799   8.129  10.721   1.802
43656SOL     OW32800  12.801   4.737  13.624
43656SOL    HW132801  12.768   4.809  13.679
43656SOL    HW232802  12.874   4.776  13.576
43657SOL     OW32803  10.143  13.362   7.078
43657SOL    HW132804  10.102  13.415   7.009
43657SOL    HW232805  10.105  13.394   7.159
43658SOL     OW32806  10.141   5.270  14.544
43658SOL    HW132807  10.211   5.314  14.495
43658SOL    HW232808  10.092   5.341  14.585
43659SOL     OW32809   3.096  14.250   9.463
43659SOL    HW132810   3.064  14.232   9.375
43659SOL    HW232811   3.086  14.344   9.474
43660SOL     OW32812   9.259   0.210   3.327
43660SOL    HW132813   9.178   0.261   3.320
43660SOL    HW232814   9.258   0.177   3.417
43661SOL     OW32815  12.141  11.972  10.336
43661SOL    HW132816  12.106  12.057  10.359
43661SOL    HW232817  12.076  11.909  10.367
43662SOL     OW32818  14.202  10.338   6.750
43662SOL    HW132819  14.174  10.252   6.782
43662SOL    HW232820  14.138  10.399   6.787
43663SOL     OW32821  14.671   8.850   2.310
43663SOL    HW132822  14.703   8.939   2.324
43663SOL    HW232823  14.670   8.810   2.397
43664SOL     OW32824   7.172  12.916   9.100
43664SOL    HW132825   7.128  12.974   9.162
43664SOL    HW232826   7.192  12.837   9.150
43665SOL     OW32827   8.546  10.213  10.087
43665SOL    HW132828   8.525  10.196   9.995
43665SOL    HW232829   8.492  10.150  10.135
43666SOL     OW32830  10.523  10.311   9.097
43666SOL    HW132831  10.599  10.356   9.133
43666SOL    HW232832  10.560  10.237   9.049
43667SOL     OW32833   2.692  14.854   0.439
43667SOL    HW132834   2.685  14.791   0.511
43667SOL    HW232835   2.684  14.800   0.360
43668SOL     OW32836  10.108  13.595   8.319
43668SOL    HW132837  10.069  13.676   8.286
43668SOL    HW232838  10.195  13.592   8.277
43669SOL     OW32839   8.019   9.187   8.775
43669SOL    HW132840   7.992   9.154   8.689
43669SOL    HW232841   7.954   9.254   8.796
43670SOL     OW32842   3.748  14.713  12.288
43670SOL    HW132843   3.671  14.766  12.268
43670SOL    HW232844   3.716  14.642  12.344
43671SOL     OW32845  11.162   4.881  10.597
43671SOL    HW132846  11.236   4.921  10.641
43671SOL    HW232847  11.185   4.788  10.592
43672SOL     OW32848   1.374   2.767  12.507
43672SOL    HW132849   1.430   2.811  12.444
43672SOL    HW232850   1.363   2.679  12.472
43673SOL     OW32851   4.916   4.206   5.525
43673SOL    HW132852   4.929   4.278   5.462
43673SOL    HW232853   4.822   4.188   5.520
43674SOL     OW32854   9.210  12.139   0.970
43674SOL    HW132855   9.155  12.082   1.024
43674SOL    HW232856   9.285  12.084   0.947
43675SOL     OW32857   2.078  13.327   6.844
43675SOL    HW132858   2.173  13.331   6.830
43675SOL    HW232859   2.061  13.235   6.865
43676SOL     OW32860   5.340   6.150   3.264
43676SOL    HW132861   5.285   6.208   3.317
43676SOL    HW232862   5.392   6.102   3.328
43677SOL     OW32863   2.478   9.385   2.688
43677SOL    HW132864   2.457   9.422   2.602
43677SOL    HW232865   2.557   9.333   2.673
43678SOL     OW32866  13.021   2.350   1.664
43678SOL    HW132867  12.947   2.405   1.638
43678SOL    HW232868  13.078   2.408   1.714
43679SOL     OW32869   3.304   4.040   7.243
43679SOL    HW132870   3.257   4.093   7.308
43679SOL    HW232871   3.278   3.950   7.262
43680SOL     OW32872  13.447   4.860   1.813
43680SOL    HW132873  13.372   4.919   1.810
43680SOL    HW232874  13.481   4.858   1.723
43681SOL     OW32875   4.693  12.255   7.959
43681SOL    HW132876   4.709  12.178   8.013
43681SOL    HW232877   4.598  12.258   7.949
43682SOL     OW32878   9.961   4.261  12.590
43682SOL    HW132879   9.927   4.350  12.587
43682SOL    HW232880   9.909   4.217  12.657
43683SOL     OW32881  11.530   7.004  12.488
43683SOL    HW132882  11.516   6.926  12.541
43683SOL    HW232883  11.469   7.069  12.525
43684SOL     OW32884  13.163   4.303   6.119
43684SOL    HW132885  13.220   4.230   6.142
43684SOL    HW232886  13.222   4.369   6.083
43685SOL     OW32887  14.315   1.029  12.064
43685SOL    HW132888  14.272   1.036  11.978
43685SOL    HW232889  14.360   0.945  12.060
43686SOL     OW32890   3.548   1.934  11.077
43686SOL    HW132891   3.540   2.016  11.126
43686SOL    HW232892   3.634   1.900  11.101
43687SOL     OW32893   1.103   9.735   5.129
43687SOL    HW132894   1.085   9.659   5.074
43687SOL    HW232895   1.194   9.759   5.108
43688SOL     OW32896  13.142   0.962   4.475
43688SOL    HW132897  13.193   1.035   4.439
43688SOL    HW232898  13.197   0.885   4.460
43689SOL     OW32899   1.485   3.902  10.925
43689SOL    HW132900   1.484   3.982  10.873
43689SOL    HW232901   1.435   3.839  10.873
43690SOL     OW32902  11.645   8.236   6.931
43690SOL    HW132903  11.715   8.208   6.990
43690SOL    HW232904  11.564   8.222   6.981
43691SOL     OW32905   2.074  11.921   9.941
43691SOL    HW132906   2.062  11.986  10.011
43691SOL    HW232907   2.157  11.879   9.962
43692SOL     OW32908  11.291   3.362   2.905
43692SOL    HW132909  11.319   3.273   2.925
43692SOL    HW232910  11.323   3.415   2.978
43693SOL     OW32911  10.170   7.461  11.318
43693SOL    HW132912  10.165   7.377  11.365
43693SOL    HW232913  10.247   7.452  11.263
43694SOL     OW32914  12.230   1.828  12.515
43694SOL    HW132915  12.205   1.920  12.509
43694SOL    HW232916  12.156   1.786  12.558
43695SOL     OW32917   4.348   3.399  14.676
43695SOL    HW132918   4.321   3.411  14.586
43695SOL    HW232919   4.423   3.458  14.687
43696SOL     OW32920   1.841  12.384   4.389
43696SOL    HW132921   1.869  12.475   4.393
43696SOL    HW232922   1.921  12.335   4.371
43697SOL     OW32923  11.248   0.716   3.742
43697SOL    HW132924  11.328   0.687   3.786
43697SOL    HW232925  11.268   0.708   3.648
43698SOL     OW32926   9.802   8.116   8.260
43698SOL    HW132927   9.739   8.067   8.206
43698SOL    HW232928   9.785   8.208   8.239
43699SOL     OW32929  12.629   8.769  14.622
43699SOL    HW132930  12.678   8.797  14.545
43699SOL    HW232931  12.571   8.699  14.591
43700SOL     OW32932  11.788   1.548   3.019
43700SOL    HW132933  11.800   1.541   3.114
43700SOL    HW232934  11.872   1.579   2.987
43701SOL     OW32935   4.857   5.637  14.488
43701SOL    HW132936   4.932   5.597  14.443
43701SOL    HW232937   4.786   5.633  14.424
43702SOL     OW32938   2.221  13.459  12.690
43702SOL    HW132939   2.170  13.539  12.678
43702SOL    HW232940   2.222  13.444  12.784
43703SOL     OW32941   8.572   3.876   4.611
43703SOL    HW132942   8.533   3.962   4.600
43703SOL    HW232943   8.512   3.816   4.567
43704SOL     OW32944   4.523  10.240   8.384
43704SOL    HW132945   4.567  10.219   8.466
43704SOL    HW232946   4.431  10.218   8.400
43705SOL     OW32947   9.209   0.475  11.239
43705SOL    HW132948   9.186   0.457  11.330
43705SOL    HW232949   9.256   0.559  11.242
43706SOL     OW32950  12.818  10.312   6.899
43706SOL    HW132951  12.731  10.350   6.898
43706SOL    HW232952  12.851  10.325   6.810
43707SOL     OW32953   2.106   0.623  10.997
43707SOL    HW132954   2.188   0.577  11.015
43707SOL    HW232955   2.132   0.715  10.986
43708SOL     OW32956   9.421   8.663  14.595
43708SOL    HW132957   9.442   8.619  14.677
43708SOL    HW232958   9.325   8.663  14.592
43709SOL     OW32959  13.603  12.248   3.988
43709SOL    HW132960  13.615  12.247   4.083
43709SOL    HW232961  13.602  12.156   3.963
43710SOL     OW32962  12.371   0.850   2.592
43710SOL    HW132963  12.417   0.811   2.518
43710SOL    HW232964  12.419   0.931   2.611
43711SOL     OW32965   2.702   2.388   2.653
43711SOL    HW132966   2.670   2.464   2.702
43711SOL    HW232967   2.739   2.426   2.573
43712SOL     OW32968   8.076  11.457   7.084
43712SOL    HW132969   8.129  11.396   7.032
43712SOL    HW232970   8.088  11.542   7.042
43713SOL     OW32971   8.076   2.552   4.723
43713SOL    HW132972   8.165   2.532   4.695
43713SOL    HW232973   8.046   2.620   4.663
43714SOL     OW32974  13.599   9.495   3.812
43714SOL    HW132975  13.632   9.405   3.812
43714SOL    HW232976  13.587   9.516   3.720
43715SOL     OW32977  12.948   2.693   2.597
43715SOL    HW132978  12.937   2.617   2.655
43715SOL    HW232979  13.037   2.723   2.612
43716SOL     OW32980   7.067   6.631   6.225
43716SOL    HW132981   7.041   6.641   6.133
43716SOL    HW232982   6.989   6.658   6.274
43717SOL     OW32983  11.207   8.635   8.114
43717SOL    HW132984  11.200   8.540   8.125
43717SOL    HW232985  11.272   8.661   8.179
43718SOL     OW32986   3.537  14.142  12.607
43718SOL    HW132987   3.532  14.162  12.701
43718SOL    HW232988   3.583  14.216  12.569
43719SOL     OW32989   9.014   5.110   0.691
43719SOL    HW132990   8.952   5.169   0.733
43719SOL    HW232991   8.973   5.088   0.607
43720SOL     OW32992  10.459  11.365   4.910
43720SOL    HW132993  10.392  11.301   4.935
43720SOL    HW232994  10.411  11.432   4.862
43721SOL     OW32995   6.532   8.172   1.846
43721SOL    HW132996   6.616   8.181   1.891
43721SOL    HW232997   6.467   8.190   1.914
43722SOL     OW32998   8.093   5.558   7.204
43722SOL    HW132999   8.012   5.510   7.187
43722SOL    HW233000   8.066   5.649   7.212
43723SOL     OW33001  10.652   7.005   7.534
43723SOL    HW133002  10.601   6.955   7.598
43723SOL    HW233003  10.626   7.096   7.549
43724SOL     OW33004   8.020   5.058   9.045
43724SOL    HW133005   8.046   5.116   9.116
43724SOL    HW233006   7.937   5.020   9.075
43725SOL     OW33007   5.013   6.524   0.216
43725SOL    HW133008   5.003   6.433   0.190
43725SOL    HW233009   4.961   6.573   0.152
43726SOL     OW33010   7.747   4.176   3.122
43726SOL    HW133011   7.672   4.234   3.110
43726SOL    HW233012   7.814   4.230   3.163
43727SOL     OW33013   9.381   5.028  10.954
43727SOL    HW133014   9.446   5.098  10.955
43727SOL    HW233015   9.299   5.072  10.974
43728SOL     OW33016   7.363   2.354  10.406
43728SOL    HW133017   7.450   2.393  10.399
43728SOL    HW233018   7.302   2.427  10.397
43729SOL     OW33019   8.906  11.656  12.631
43729SOL    HW133020   8.962  11.625  12.560
43729SOL    HW233021   8.952  11.629  12.711
43730SOL     OW33022   3.590   8.456   0.490
43730SOL    HW133023   3.629   8.401   0.559
43730SOL    HW233024   3.497   8.437   0.494
43731SOL     OW33025  10.427  10.859  13.350
43731SOL    HW133026  10.345  10.816  13.372
43731SOL    HW233027  10.404  10.951  13.336
43732SOL     OW33028   8.613   0.499  10.040
43732SOL    HW133029   8.531   0.544  10.018
43732SOL    HW233030   8.637   0.534  10.125
43733SOL     OW33031   7.250  14.051  11.213
43733SOL    HW133032   7.194  14.044  11.136
43733SOL    HW233033   7.295  14.135  11.202
43734SOL     OW33034   2.888   1.429   3.193
43734SOL    HW133035   2.797   1.457   3.198
43734SOL    HW233036   2.933   1.500   3.148
43735SOL     OW33037  10.451   9.964  12.654
43735SOL    HW133038  10.370   9.989  12.609
43735SOL    HW233039  10.424   9.945  12.743
43736SOL     OW33040   0.887   7.857  11.726
43736SOL    HW133041   0.834   7.794  11.677
43736SOL    HW233042   0.890   7.934  11.670
43737SOL     OW33043   8.128  13.886   2.242
43737SOL    HW133044   8.134  13.892   2.337
43737SOL    HW233045   8.036  13.867   2.225
43738SOL     OW33046   1.773  12.592   7.745
43738SOL    HW133047   1.697  12.577   7.689
43738SOL    HW233048   1.755  12.675   7.788
43739SOL     OW33049   4.134  14.505   9.821
43739SOL    HW133050   4.101  14.448   9.751
43739SOL    HW233051   4.228  14.487   9.823
43740SOL     OW33052   8.329  12.689   1.835
43740SOL    HW133053   8.411  12.641   1.845
43740SOL    HW233054   8.339  12.735   1.751
43741SOL     OW33055   4.668   2.778   4.686
43741SOL    HW133056   4.673   2.859   4.736
43741SOL    HW233057   4.654   2.710   4.753
43742SOL     OW33058   8.950  13.015  11.043
43742SOL    HW133059   8.990  13.025  10.957
43742SOL    HW233060   8.856  13.010  11.026
43743SOL     OW33061   4.413   0.665   9.358
43743SOL    HW133062   4.379   0.576   9.348
43743SOL    HW233063   4.464   0.680   9.278
43744SOL     OW33064   8.340  12.257  14.134
43744SOL    HW133065   8.422  12.244  14.086
43744SOL    HW233066   8.365  12.249  14.226
43745SOL     OW33067   1.826  14.079  11.827
43745SOL    HW133068   1.920  14.074  11.838
43745SOL    HW233069   1.803  14.167  11.857
43746SOL     OW33070   6.234   9.825   0.534
43746SOL    HW133071   6.203   9.794   0.449
43746SOL    HW233072   6.183   9.904   0.550
43747SOL     OW33073   4.711   2.225  11.277
43747SOL    HW133074   4.630   2.221  11.329
43747SOL    HW233075   4.730   2.134  11.256
43748SOL     OW33076   1.024   2.441   4.242
43748SOL    HW133077   1.013   2.366   4.300
43748SOL    HW233078   0.940   2.450   4.197
43749SOL     OW33079   6.697   4.173  12.595
43749SOL    HW133080   6.669   4.174  12.504
43749SOL    HW233081   6.656   4.252  12.633
43750SOL     OW33082   9.891   0.879  13.218
43750SOL    HW133083   9.942   0.937  13.161
43750SOL    HW233084   9.904   0.792  13.181
43751SOL     OW33085   6.363  13.362   8.660
43751SOL    HW133086   6.415  13.432   8.701
43751SOL    HW233087   6.285  13.356   8.714
43752SOL     OW33088   7.078  10.430  11.753
43752SOL    HW133089   7.061  10.409  11.661
43752SOL    HW233090   6.994  10.459  11.787
43753SOL     OW33091   8.045  12.341   3.314
43753SOL    HW133092   8.069  12.418   3.366
43753SOL    HW233093   7.960  12.364   3.275
43754SOL     OW33094  14.405   1.535   2.657
43754SOL    HW133095  14.417   1.538   2.562
43754SOL    HW233096  14.455   1.610   2.690
43755SOL     OW33097   6.259   2.542  13.089
43755SOL    HW133098   6.291   2.568  13.003
43755SOL    HW233099   6.330   2.490  13.126
43756SOL     OW33100   1.651   3.793   1.695
43756SOL    HW133101   1.708   3.870   1.699
43756SOL    HW233102   1.563   3.827   1.706
43757SOL     OW33103   6.586   7.476   8.216
43757SOL    HW133104   6.497   7.469   8.250
43757SOL    HW233105   6.620   7.558   8.252
43758SOL     OW33106   9.824  13.642   3.364
43758SOL    HW133107   9.768  13.640   3.441
43758SOL    HW233108   9.771  13.601   3.295
43759SOL     OW33109   5.672  12.200   8.258
43759SOL    HW133110   5.590  12.236   8.224
43759SOL    HW233111   5.700  12.139   8.190
43760SOL     OW33112   2.976  10.513   4.026
43760SOL    HW133113   2.999  10.424   4.000
43760SOL    HW233114   2.892  10.503   4.072
43761SOL     OW33115   7.115   0.805  13.670
43761SOL    HW133116   7.041   0.798  13.610
43761SOL    HW233117   7.139   0.714  13.689
43762SOL     OW33118   7.933  11.244   3.573
43762SOL    HW133119   7.846  11.205   3.582
43762SOL    HW233120   7.974  11.230   3.658
43763SOL     OW33121  13.779   4.912   8.417
43763SOL    HW133122  13.815   4.830   8.384
43763SOL    HW233123  13.704   4.886   8.471
43764SOL     OW33124   5.004   2.245  13.621
43764SOL    HW133125   5.079   2.282  13.668
43764SOL    HW233126   4.971   2.317  13.568
43765SOL     OW33127   9.665   5.826   6.116
43765SOL    HW133128   9.647   5.750   6.172
43765SOL    HW233129   9.760   5.833   6.115
43766SOL     OW33130   3.551   7.830   1.917
43766SOL    HW133131   3.585   7.817   1.829
43766SOL    HW233132   3.629   7.845   1.971
43767SOL     OW33133   3.883  14.576  12.689
43767SOL    HW133134   3.817  14.516  12.723
43767SOL    HW233135   3.868  14.658  12.735
43768SOL     OW33136  14.190   8.054   7.781
43768SOL    HW133137  14.211   7.962   7.763
43768SOL    HW233138  14.241   8.076   7.858
43769SOL     OW33139   8.651   1.315  10.001
43769SOL    HW133140   8.726   1.345  10.053
43769SOL    HW233141   8.685   1.239   9.953
43770SOL     OW33142   7.572   0.948   4.959
43770SOL    HW133143   7.634   0.886   4.997
43770SOL    HW233144   7.487   0.904   4.966
43771SOL     OW33145   1.033   9.596   6.450
43771SOL    HW133146   1.024   9.539   6.526
43771SOL    HW233147   1.051   9.682   6.486
43772SOL     OW33148  12.573  10.638   0.504
43772SOL    HW133149  12.617  10.572   0.450
43772SOL    HW233150  12.530  10.588   0.573
43773SOL     OW33151   3.199   5.453   3.199
43773SOL    HW133152   3.268   5.518   3.195
43773SOL    HW233153   3.241   5.375   3.235
43774SOL     OW33154  10.130  13.357  12.336
43774SOL    HW133155  10.070  13.286  12.313
43774SOL    HW233156  10.113  13.374  12.429
43775SOL     OW33157  13.585   3.077   8.894
43775SOL    HW133158  13.644   3.152   8.890
43775SOL    HW233159  13.525   3.091   8.821
43776SOL     OW33160   3.062   6.050   7.321
43776SOL    HW133161   3.020   5.973   7.359
43776SOL    HW233162   3.014   6.124   7.358
43777SOL     OW33163   8.952   2.159   7.338
43777SOL    HW133164   8.946   2.132   7.247
43777SOL    HW233165   9.016   2.099   7.377
43778SOL     OW33166   6.654  10.499   5.671
43778SOL    HW133167   6.684  10.427   5.726
43778SOL    HW233168   6.733  10.530   5.627
43779SOL     OW33169  14.026   5.400   0.967
43779SOL    HW133170  14.041   5.355   1.050
43779SOL    HW233171  13.931   5.405   0.959
43780SOL     OW33172   3.536   5.703   0.104
43780SOL    HW133173   3.557   5.765   0.174
43780SOL    HW233174   3.521   5.758   0.027
43781SOL     OW33175   3.376   6.398   3.868
43781SOL    HW133176   3.433   6.385   3.792
43781SOL    HW233177   3.292   6.359   3.842
43782SOL     OW33178   6.042  10.048   0.675
43782SOL    HW133179   6.090  10.091   0.745
43782SOL    HW233180   5.951  10.077   0.685
43783SOL     OW33181   4.870   6.087   3.798
43783SOL    HW133182   4.898   5.997   3.781
43783SOL    HW233183   4.948   6.140   3.782
43784SOL     OW33184   8.623   1.886   3.144
43784SOL    HW133185   8.660   1.800   3.125
43784SOL    HW233186   8.530   1.877   3.123
43785SOL     OW33187  14.262   3.726   8.586
43785SOL    HW133188  14.336   3.665   8.596
43785SOL    HW233189  14.184   3.671   8.591
43786SOL     OW33190   1.948  10.916  14.525
43786SOL    HW133191   1.945  10.999  14.574
43786SOL    HW233192   2.013  10.863  14.570
43787SOL     OW33193  12.646   0.484   1.215
43787SOL    HW133194  12.670   0.489   1.122
43787SOL    HW233195  12.617   0.573   1.236
43788SOL     OW33196   2.847   9.386   2.321
43788SOL    HW133197   2.751   9.382   2.317
43788SOL    HW233198   2.870   9.458   2.263
43789SOL     OW33199  13.047   4.604   7.136
43789SOL    HW133200  12.996   4.540   7.185
43789SOL    HW233201  13.033   4.686   7.183
43790SOL     OW33202   1.812   8.119   8.894
43790SOL    HW133203   1.724   8.090   8.917
43790SOL    HW233204   1.864   8.039   8.892
43791SOL     OW33205   4.852   4.050   4.928
43791SOL    HW133206   4.813   3.974   4.972
43791SOL    HW233207   4.892   4.100   4.999
43792SOL     OW33208   3.877   2.846  10.579
43792SOL    HW133209   3.936   2.915  10.610
43792SOL    HW233210   3.930   2.795  10.518
43793SOL     OW33211   8.236   5.530   9.491
43793SOL    HW133212   8.277   5.446   9.511
43793SOL    HW233213   8.221   5.570   9.576
43794SOL     OW33214   0.051  13.971   4.343
43794SOL    HW133215   0.098  14.053   4.323
43794SOL    HW233216   0.034  13.932   4.258
43795SOL     OW33217   4.148  13.841  14.387
43795SOL    HW133218   4.070  13.790  14.409
43795SOL    HW233219   4.115  13.928  14.366
43796SOL     OW33220  11.294   2.176  14.705
43796SOL    HW133221  11.213   2.217  14.673
43796SOL    HW233222  11.265   2.108  14.765
43797SOL     OW33223   7.946   1.307   0.132
43797SOL    HW133224   7.926   1.353   0.050
43797SOL    HW233225   7.871   1.249   0.145
43798SOL     OW33226   8.576  12.699   4.754
43798SOL    HW133227   8.595  12.609   4.729
43798SOL    HW233228   8.492  12.693   4.800
43799SOL     OW33229   7.221   1.999   4.473
43799SOL    HW133230   7.235   2.046   4.555
43799SOL    HW233231   7.195   1.910   4.500
43800SOL     OW33232  11.936  13.357  12.288
43800SOL    HW133233  11.922  13.438  12.239
43800SOL    HW233234  12.029  13.358  12.310
43801SOL     OW33235  14.876   6.034   8.007
43801SOL    HW133236   0.045   5.957   8.037
43801SOL    HW233237  14.784   6.007   8.009
43802SOL     OW33238   5.735  12.154   7.486
43802SOL    HW133239   5.766  12.237   7.524
43802SOL    HW233240   5.814  12.100   7.478
43803SOL     OW33241  14.602   2.841   5.653
43803SOL    HW133242  14.694   2.855   5.672
43803SOL    HW233243  14.556   2.870   5.732
43804SOL     OW33244  11.957  12.393  14.209
43804SOL    HW133245  11.954  12.368  14.302
43804SOL    HW233246  11.948  12.310  14.162
43805SOL     OW33247  13.909   1.228   3.403
43805SOL    HW133248  13.889   1.135   3.410
43805SOL    HW233249  13.874   1.266   3.484
43806SOL     OW33250   4.516   2.198  12.759
43806SOL    HW133251   4.558   2.214  12.675
43806SOL    HW233252   4.422   2.205  12.741
43807SOL     OW33253   8.915   4.660   6.155
43807SOL    HW133254   8.895   4.575   6.114
43807SOL    HW233255   8.833   4.709   6.149
43808SOL     OW33256  11.582   3.243   1.595
43808SOL    HW133257  11.626   3.179   1.539
43808SOL    HW233258  11.563   3.196   1.676
43809SOL     OW33259  10.749  11.380   8.303
43809SOL    HW133260  10.759  11.466   8.344
43809SOL    HW233261  10.836  11.360   8.268
43810SOL     OW33262   2.921   4.866   8.861
43810SOL    HW133263   3.011   4.896   8.875
43810SOL    HW233264   2.897   4.823   8.943
43811SOL     OW33265   7.811   4.140   6.258
43811SOL    HW133266   7.758   4.217   6.240
43811SOL    HW233267   7.895   4.174   6.288
43812SOL     OW33268   0.441  10.416   1.707
43812SOL    HW133269   0.498  10.355   1.660
43812SOL    HW233270   0.488  10.500   1.705
43813SOL     OW33271   2.797   0.519   2.519
43813SOL    HW133272   2.867   0.510   2.583
43813SOL    HW233273   2.840   0.550   2.440
43814SOL     OW33274   0.028   3.385   3.178
43814SOL    HW133275   0.027   3.387   3.082
43814SOL    HW233276  14.815   3.392   3.203
43815SOL     OW33277  14.502  14.591   7.464
43815SOL    HW133278  14.519  14.508   7.420
43815SOL    HW233279  14.552  14.587   7.545
43816SOL     OW33280  11.695   1.877  14.439
43816SOL    HW133281  11.648   1.905  14.517
43816SOL    HW233282  11.638   1.903  14.366
43817SOL     OW33283   0.074  13.316  11.886
43817SOL    HW133284   0.014  13.357  11.948
43817SOL    HW233285   0.138  13.384  11.865
43818SOL     OW33286   7.171  10.163  12.780
43818SOL    HW133287   7.078  10.187  12.778
43818SOL    HW233288   7.172  10.069  12.765
43819SOL     OW33289  11.563   2.935   7.321
43819SOL    HW133290  11.505   3.005   7.351
43819SOL    HW233291  11.651   2.972   7.326
43820SOL     OW33292   9.224   0.123   9.302
43820SOL    HW133293   9.217   0.206   9.256
43820SOL    HW233294   9.203   0.057   9.236
43821SOL     OW33295  11.406   5.878  13.471
43821SOL    HW133296  11.421   5.972  13.463
43821SOL    HW233297  11.323   5.871  13.517
43822SOL     OW33298   3.044   9.060  12.864
43822SOL    HW133299   3.074   9.113  12.790
43822SOL    HW233300   2.949   9.062  12.857
43823SOL     OW33301   8.808   2.945   6.659
43823SOL    HW133302   8.899   2.943   6.687
43823SOL    HW233303   8.805   2.884   6.585
43824SOL     OW33304   8.762   3.490   7.347
43824SOL    HW133305   8.673   3.483   7.312
43824SOL    HW233306   8.789   3.400   7.363
43825SOL     OW33307   5.249   2.360  13.256
43825SOL    HW133308   5.308   2.432  13.233
43825SOL    HW233309   5.287   2.321  13.334
43826SOL     OW33310   0.166   3.193   6.071
43826SOL    HW133311   0.249   3.218   6.112
43826SOL    HW233312   0.110   3.270   6.082
43827SOL     OW33313  12.965   9.729  14.757
43827SOL    HW133314  12.912   9.792  14.708
43827SOL    HW233315  12.975   9.655  14.698
43828SOL     OW33316   7.351   2.913   2.311
43828SOL    HW133317   7.415   2.941   2.378
43828SOL    HW233318   7.267   2.946   2.344
43829SOL     OW33319   8.227   8.843  11.826
43829SOL    HW133320   8.307   8.831  11.877
43829SOL    HW233321   8.185   8.919  11.866
43830SOL     OW33322  12.215  11.397   7.381
43830SOL    HW133323  12.171  11.349   7.311
43830SOL    HW233324  12.149  11.459   7.413
43831SOL     OW33325  13.969   0.094   7.173
43831SOL    HW133326  14.021   0.116   7.250
43831SOL    HW233327  14.005   0.149   7.104
43832SOL     OW33328   4.279   5.693   6.712
43832SOL    HW133329   4.360   5.703   6.663
43832SOL    HW233330   4.304   5.647   6.792
43833SOL     OW33331  13.536   8.894  12.905
43833SOL    HW133332  13.588   8.956  12.854
43833SOL    HW233333  13.596   8.864  12.974
43834SOL     OW33334  12.534   2.328  14.476
43834SOL    HW133335  12.472   2.263  14.509
43834SOL    HW233336  12.548   2.387  14.551
43835SOL     OW33337   4.433   0.033   7.433
43835SOL    HW133338   4.477  14.855   7.496
43835SOL    HW233339   4.502   0.058   7.371
43836SOL     OW33340   3.102   1.002   1.143
43836SOL    HW133341   3.164   1.060   1.099
43836SOL    HW233342   3.157   0.934   1.182
43837SOL     OW33343   3.429   1.161   8.611
43837SOL    HW133344   3.515   1.179   8.649
43837SOL    HW233345   3.379   1.242   8.624
43838SOL     OW33346  12.710   4.178   8.886
43838SOL    HW133347  12.716   4.100   8.831
43838SOL    HW233348  12.649   4.153   8.955
43839SOL     OW33349   0.689   7.964   7.979
43839SOL    HW133350   0.662   7.874   7.960
43839SOL    HW233351   0.610   8.006   8.013
43840SOL     OW33352  10.218   8.452   1.601
43840SOL    HW133353  10.168   8.393   1.545
43840SOL    HW233354  10.207   8.538   1.561
43841SOL     OW33355   4.147  14.360  14.220
43841SOL    HW133356   4.184  14.273  14.236
43841SOL    HW233357   4.084  14.372  14.291
43842SOL     OW33358  12.261   5.160  13.979
43842SOL    HW133359  12.289   5.166  14.070
43842SOL    HW233360  12.288   5.244  13.940
43843SOL     OW33361   7.545  12.968  11.852
43843SOL    HW133362   7.508  12.892  11.896
43843SOL    HW233363   7.595  12.932  11.779
43844SOL     OW33364   4.678   0.504   4.709
43844SOL    HW133365   4.605   0.562   4.686
43844SOL    HW233366   4.734   0.558   4.765
43845SOL     OW33367   1.942  11.525   2.842
43845SOL    HW133368   1.914  11.585   2.773
43845SOL    HW233369   1.861  11.492   2.880
43846SOL     OW33370   8.561   9.576   9.209
43846SOL    HW133371   8.616   9.654   9.217
43846SOL    HW233372   8.583   9.538   9.124
43847SOL     OW33373  10.903   3.300  13.412
43847SOL    HW133374  10.928   3.363  13.479
43847SOL    HW233375  10.874   3.354  13.338
43848SOL     OW33376   5.147  10.120   5.587
43848SOL    HW133377   5.066  10.105   5.637
43848SOL    HW233378   5.136  10.066   5.508
43849SOL     OW33379   0.971   1.677   9.353
43849SOL    HW133380   0.898   1.645   9.407
43849SOL    HW233381   0.966   1.625   9.273
43850SOL     OW33382   9.691   5.880   7.098
43850SOL    HW133383   9.621   5.919   7.046
43850SOL    HW233384   9.663   5.789   7.110
43851SOL     OW33385   5.216   9.257   6.794
43851SOL    HW133386   5.172   9.196   6.735
43851SOL    HW233387   5.226   9.337   6.743
43852SOL     OW33388   8.359   6.187   4.051
43852SOL    HW133389   8.316   6.264   4.013
43852SOL    HW233390   8.291   6.147   4.106
43853SOL     OW33391   2.248   6.104   9.873
43853SOL    HW133392   2.222   6.086   9.963
43853SOL    HW233393   2.200   6.183   9.850
43854SOL     OW33394   0.466   7.491   8.406
43854SOL    HW133395   0.514   7.568   8.376
43854SOL    HW233396   0.534   7.432   8.438
43855SOL     OW33397  11.917   2.643   8.281
43855SOL    HW133398  11.949   2.730   8.302
43855SOL    HW233399  11.823   2.653   8.269
43856SOL     OW33400   1.030  14.836  10.816
43856SOL    HW133401   1.003  14.751  10.851
43856SOL    HW233402   1.084  14.815  10.740
43857SOL     OW33403  14.295  13.360   3.737
43857SOL    HW133404  14.390  13.362   3.750
43857SOL    HW233405  14.282  13.377   3.644
43858SOL     OW33406   2.438   5.550   8.060
43858SOL    HW133407   2.418   5.534   7.968
43858SOL    HW233408   2.356   5.582   8.098
43859SOL     OW33409   7.209   7.524   2.296
43859SOL    HW133410   7.246   7.466   2.230
43859SOL    HW233411   7.241   7.488   2.379
43860SOL     OW33412  11.587   6.568  10.583
43860SOL    HW133413  11.615   6.554  10.673
43860SOL    HW233414  11.648   6.634  10.549
43861SOL     OW33415  13.613  12.555   1.727
43861SOL    HW133416  13.642  12.577   1.816
43861SOL    HW233417  13.667  12.609   1.670
43862SOL     OW33418   9.924   4.875  11.372
43862SOL    HW133419  10.005   4.915  11.341
43862SOL    HW233420   9.935   4.781  11.354
43863SOL     OW33421  10.406  12.936   5.851
43863SOL    HW133422  10.338  12.869   5.853
43863SOL    HW233423  10.488  12.887   5.848
43864SOL     OW33424  11.215   2.075  13.866
43864SOL    HW133425  11.146   2.052  13.929
43864SOL    HW233426  11.229   2.169  13.879
43865SOL     OW33427   6.643   2.828   2.590
43865SOL    HW133428   6.561   2.803   2.548
43865SOL    HW233429   6.639   2.788   2.676
43866SOL     OW33430   1.855   4.310   9.263
43866SOL    HW133431   1.788   4.335   9.199
43866SOL    HW233432   1.934   4.354   9.233
43867SOL     OW33433   9.280   6.034  14.349
43867SOL    HW133434   9.219   5.960  14.345
43867SOL    HW233435   9.292   6.050  14.442
43868SOL     OW33436   7.810   7.809   6.964
43868SOL    HW133437   7.747   7.746   6.930
43868SOL    HW233438   7.811   7.793   7.058
43869SOL     OW33439   7.018  10.347   5.558
43869SOL    HW133440   6.966  10.276   5.596
43869SOL    HW233441   6.953  10.410   5.528
43870SOL     OW33442   0.557  12.800  13.648
43870SOL    HW133443   0.495  12.737  13.611
43870SOL    HW233444   0.514  12.885  13.638
43871SOL     OW33445  12.621   6.262   0.197
43871SOL    HW133446  12.667   6.195   0.148
43871SOL    HW233447  12.569   6.214   0.261
43872SOL     OW33448   0.743   4.038  11.883
43872SOL    HW133449   0.738   4.128  11.917
43872SOL    HW233450   0.747   4.049  11.788
43873SOL     OW33451   5.645   3.809   9.417
43873SOL    HW133452   5.704   3.851   9.354
43873SOL    HW233453   5.566   3.863   9.416
43874SOL     OW33454   6.168   3.311   4.766
43874SOL    HW133455   6.156   3.264   4.849
43874SOL    HW233456   6.253   3.353   4.774
43875SOL     OW33457   7.834   6.119   1.064
43875SOL    HW133458   7.822   6.062   0.987
43875SOL    HW233459   7.929   6.123   1.077
43876SOL     OW33460   0.586  11.967   6.235
43876SOL    HW133461   0.537  11.919   6.169
43876SOL    HW233462   0.602  12.053   6.195
43877SOL     OW33463  11.806   5.387  11.367
43877SOL    HW133464  11.734   5.448  11.348
43877SOL    HW233465  11.767   5.323  11.427
43878SOL     OW33466  10.625   9.718   0.144
43878SOL    HW133467  10.586   9.802   0.166
43878SOL    HW233468  10.583   9.692   0.062
43879SOL     OW33469   9.585  12.619   6.562
43879SOL    HW133470   9.578  12.540   6.509
43879SOL    HW233471   9.501  12.663   6.551
43880SOL     OW33472  10.205   8.168  13.198
43880SOL    HW133473  10.268   8.211  13.139
43880SOL    HW233474  10.223   8.074  13.186
43881SOL     OW33475  14.135   2.085   6.508
43881SOL    HW133476  14.084   2.159   6.477
43881SOL    HW233477  14.226   2.113   6.498
43882SOL     OW33478  12.732   7.827  12.767
43882SOL    HW133479  12.804   7.837  12.705
43882SOL    HW233480  12.659   7.875  12.728
43883SOL     OW33481   9.845  14.103   0.412
43883SOL    HW133482   9.868  14.102   0.505
43883SOL    HW233483   9.800  14.187   0.400
43884SOL     OW33484   1.399   7.513   4.011
43884SOL    HW133485   1.412   7.519   4.106
43884SOL    HW233486   1.477   7.553   3.973
43885SOL     OW33487  13.438   9.378  14.246
43885SOL    HW133488  13.520   9.423  14.264
43885SOL    HW233489  13.459   9.285  14.254
43886SOL     OW33490   3.682  13.365  14.284
43886SOL    HW133491   3.596  13.397  14.257
43886SOL    HW233492   3.664  13.301  14.353
43887SOL     OW33493   7.699   8.442  12.419
43887SOL    HW133494   7.688   8.404  12.332
43887SOL    HW233495   7.794   8.447  12.432
43888SOL     OW33496   9.518   4.443   5.113
43888SOL    HW133497   9.527   4.525   5.064
43888SOL    HW233498   9.430   4.449   5.151
43889SOL     OW33499  11.072   1.274  11.967
43889SOL    HW133500  11.029   1.226  12.038
43889SOL    HW233501  11.003   1.331  11.932
43890SOL     OW33502   7.617  11.029   4.843
43890SOL    HW133503   7.525  11.002   4.847
43890SOL    HW233504   7.662  10.957   4.799
43891SOL     OW33505   4.959  10.976   6.881
43891SOL    HW133506   4.927  10.916   6.948
43891SOL    HW233507   4.884  11.030   6.858
43892SOL     OW33508   5.128   4.289  10.214
43892SOL    HW133509   5.058   4.241  10.170
43892SOL    HW233510   5.202   4.228  10.216
43893SOL     OW33511   0.894  12.464   2.617
43893SOL    HW133512   0.827  12.518   2.574
43893SOL    HW233513   0.853  12.378   2.625
43894SOL     OW33514   0.382  10.076   5.545
43894SOL    HW133515   0.344  10.052   5.629
43894SOL    HW233516   0.465  10.028   5.541
43895SOL     OW33517  11.873  14.527   5.536
43895SOL    HW133518  11.845  14.436   5.522
43895SOL    HW233519  11.850  14.571   5.454
43896SOL     OW33520   3.357   0.765   4.743
43896SOL    HW133521   3.321   0.679   4.765
43896SOL    HW233522   3.422   0.781   4.812
43897SOL     OW33523   9.094   7.241   8.887
43897SOL    HW133524   9.057   7.326   8.911
43897SOL    HW233525   9.043   7.178   8.938
43898SOL     OW33526   5.942   3.622   3.876
43898SOL    HW133527   5.866   3.621   3.935
43898SOL    HW233528   6.017   3.636   3.934
43899SOL     OW33529   0.674   9.868   7.806
43899SOL    HW133530   0.718   9.783   7.807
43899SOL    HW233531   0.643   9.878   7.716
43900SOL     OW33532   1.258  10.131   1.056
43900SOL    HW133533   1.262  10.227   1.064
43900SOL    HW233534   1.347  10.106   1.032
43901SOL     OW33535   2.522   6.657   1.131
43901SOL    HW133536   2.468   6.732   1.156
43901SOL    HW233537   2.602   6.696   1.096
43902SOL     OW33538   0.607  14.643   6.039
43902SOL    HW133539   0.593  14.734   6.065
43902SOL    HW233540   0.554  14.632   5.960
43903SOL     OW33541  13.096   3.675   0.274
43903SOL    HW133542  13.180   3.637   0.299
43903SOL    HW233543  13.037   3.600   0.265
43904SOL     OW33544   5.783   1.984   9.648
43904SOL    HW133545   5.801   1.896   9.617
43904SOL    HW233546   5.850   2.039   9.607
43905SOL     OW33547   1.971   2.002  10.460
43905SOL    HW133548   2.031   2.034  10.393
43905SOL    HW233549   1.918   2.078  10.484
43906SOL     OW33550   2.282   7.500  13.005
43906SOL    HW133551   2.309   7.496  13.097
43906SOL    HW233552   2.214   7.433  12.997
43907SOL     OW33553  13.151   4.613  14.390
43907SOL    HW133554  13.098   4.677  14.343
43907SOL    HW233555  13.089   4.568  14.448
43908SOL     OW33556   4.796  14.362   1.258
43908SOL    HW133557   4.843  14.410   1.190
43908SOL    HW233558   4.838  14.276   1.259
43909SOL     OW33559   9.054  10.572   6.397
43909SOL    HW133560   9.033  10.586   6.304
43909SOL    HW233561   9.022  10.651   6.440
43910SOL     OW33562   2.150  10.523   3.182
43910SOL    HW133563   2.154  10.439   3.228
43910SOL    HW233564   2.109  10.583   3.245
43911SOL     OW33565   8.600  11.731   4.936
43911SOL    HW133566   8.511  11.697   4.943
43911SOL    HW233567   8.654  11.653   4.920
43912SOL     OW33568  10.445  11.131   3.388
43912SOL    HW133569  10.374  11.151   3.450
43912SOL    HW233570  10.456  11.037   3.395
43913SOL     OW33571   6.898  12.307   7.202
43913SOL    HW133572   6.815  12.272   7.234
43913SOL    HW233573   6.961  12.237   7.218
43914SOL     OW33574   5.587  12.593   9.806
43914SOL    HW133575   5.587  12.564   9.714
43914SOL    HW233576   5.510  12.551   9.844
43915SOL     OW33577   3.899  12.510   3.384
43915SOL    HW133578   3.913  12.601   3.356
43915SOL    HW233579   3.933  12.458   3.311
43916SOL     OW33580  12.259   0.074   5.421
43916SOL    HW133581  12.287   0.158   5.457
43916SOL    HW233582  12.171   0.061   5.457
43917SOL     OW33583  13.446   8.262   0.993
43917SOL    HW133584  13.373   8.303   0.946
43917SOL    HW233585  13.469   8.186   0.941
43918SOL     OW33586  12.644   8.146   7.327
43918SOL    HW133587  12.591   8.098   7.390
43918SOL    HW233588  12.672   8.081   7.264
43919SOL     OW33589   1.144  12.792   4.274
43919SOL    HW133590   1.142  12.702   4.242
43919SOL    HW233591   1.161  12.844   4.195
43920SOL     OW33592   2.736   8.102  14.660
43920SOL    HW133593   2.771   8.134  14.743
43920SOL    HW233594   2.709   8.012  14.678
43921SOL     OW33595   6.569   4.513  12.960
43921SOL    HW133596   6.493   4.473  13.003
43921SOL    HW233597   6.608   4.570  13.027
43922SOL     OW33598   8.597   4.720   3.475
43922SOL    HW133599   8.651   4.737   3.398
43922SOL    HW233600   8.653   4.667   3.532
43923SOL     OW33601   1.802   7.312  12.169
43923SOL    HW133602   1.889   7.276  12.183
43923SOL    HW233603   1.744   7.236  12.171
43924SOL     OW33604   9.135  13.552  10.393
43924SOL    HW133605   9.104  13.564  10.304
43924SOL    HW233606   9.217  13.602  10.397
43925SOL     OW33607   3.132   7.889   9.510
43925SOL    HW133608   3.148   7.833   9.587
43925SOL    HW233609   3.056   7.850   9.468
43926SOL     OW33610   2.017   4.246  11.948
43926SOL    HW133611   2.029   4.227  12.041
43926SOL    HW233612   1.948   4.312  11.945
43927SOL     OW33613   4.741   8.640   0.651
43927SOL    HW133614   4.714   8.575   0.716
43927SOL    HW233615   4.835   8.625   0.639
43928SOL     OW33616   7.897  10.570   8.652
43928SOL    HW133617   7.978  10.614   8.678
43928SOL    HW233618   7.867  10.617   8.574
43929SOL     OW33619  10.995  10.684   5.907
43929SOL    HW133620  11.010  10.634   5.987
43929SOL    HW233621  10.951  10.763   5.936
43930SOL     OW33622   7.289   1.741   9.052
43930SOL    HW133623   7.268   1.799   8.979
43930SOL    HW233624   7.351   1.678   9.016
43931SOL     OW33625   4.091  14.465   9.232
43931SOL    HW133626   4.063  14.491   9.320
43931SOL    HW233627   4.163  14.404   9.247
43932SOL     OW33628   3.274  13.527   1.236
43932SOL    HW133629   3.303  13.607   1.279
43932SOL    HW233630   3.264  13.464   1.308
43933SOL     OW33631  12.980   6.803   5.615
43933SOL    HW133632  12.973   6.810   5.710
43933SOL    HW233633  13.073   6.809   5.597
43934SOL     OW33634   0.947   3.163  12.799
43934SOL    HW133635   1.008   3.094  12.825
43934SOL    HW233636   0.951   3.164  12.703
43935SOL     OW33637   0.886  13.999   8.731
43935SOL    HW133638   0.817  14.064   8.741
43935SOL    HW233639   0.866  13.932   8.796
43936SOL     OW33640   5.303  14.412  13.048
43936SOL    HW133641   5.258  14.481  12.999
43936SOL    HW233642   5.359  14.459  13.110
43937SOL     OW33643   7.554  10.912  11.090
43937SOL    HW133644   7.548  10.917  10.994
43937SOL    HW233645   7.558  10.818  11.109
43938SOL     OW33646   9.513  11.524  10.274
43938SOL    HW133647   9.570  11.522  10.351
43938SOL    HW233648   9.570  11.503  10.201
43939SOL     OW33649   7.377   8.128   8.844
43939SOL    HW133650   7.418   8.161   8.924
43939SOL    HW233651   7.350   8.207   8.797
43940SOL     OW33652  13.166  12.966  12.839
43940SOL    HW133653  13.113  13.039  12.806
43940SOL    HW233654  13.244  12.967  12.784
43941SOL     OW33655   5.268   9.073  10.853
43941SOL    HW133656   5.273   9.156  10.902
43941SOL    HW233657   5.301   9.095  10.766
43942SOL     OW33658   3.895   9.059   8.503
43942SOL    HW133659   3.896   9.150   8.472
43942SOL    HW233660   3.848   9.063   8.586
43943SOL     OW33661   4.329  11.333  14.061
43943SOL    HW133662   4.403  11.275  14.043
43943SOL    HW233663   4.280  11.288  14.130
43944SOL     OW33664   5.169   8.148  13.646
43944SOL    HW133665   5.146   8.093  13.571
43944SOL    HW233666   5.122   8.109  13.720
43945SOL     OW33667  14.643   9.442   9.621
43945SOL    HW133668  14.631   9.371   9.557
43945SOL    HW233669  14.559   9.488   9.621
43946SOL     OW33670   5.425   1.772   6.721
43946SOL    HW133671   5.412   1.700   6.783
43946SOL    HW233672   5.411   1.851   6.773
43947SOL     OW33673   6.925  10.283   0.904
43947SOL    HW133674   6.957  10.371   0.881
43947SOL    HW233675   6.897  10.291   0.995
43948SOL     OW33676   9.355   2.473  14.231
43948SOL    HW133677   9.273   2.452  14.276
43948SOL    HW233678   9.392   2.546  14.281
43949SOL     OW33679  11.878   7.820  13.037
43949SOL    HW133680  11.958   7.772  13.061
43949SOL    HW233681  11.807   7.762  13.064
43950SOL     OW33682  12.804   9.992   9.484
43950SOL    HW133683  12.795   9.901   9.457
43950SOL    HW233684  12.829   9.988   9.577
43951SOL     OW33685  11.281   8.125   6.488
43951SOL    HW133686  11.273   8.178   6.409
43951SOL    HW233687  11.193   8.094   6.506
43952SOL     OW33688   4.378  11.120   2.211
43952SOL    HW133689   4.284  11.137   2.215
43952SOL    HW233690   4.400  11.085   2.298
43953SOL     OW33691   0.737   1.591   5.504
43953SOL    HW133692   0.670   1.573   5.570
43953SOL    HW233693   0.817   1.554   5.542
43954SOL     OW33694   2.401   8.586  14.314
43954SOL    HW133695   2.478   8.528  14.314
43954SOL    HW233696   2.342   8.547  14.378
43955SOL     OW33697   7.091  14.097   1.995
43955SOL    HW133698   7.024  14.114   2.060
43955SOL    HW233699   7.116  14.005   2.009
43956SOL     OW33700   9.714   4.911  13.302
43956SOL    HW133701   9.747   4.897  13.391
43956SOL    HW233702   9.703   5.006  13.296
43957SOL     OW33703  10.736   3.277  11.386
43957SOL    HW133704  10.755   3.249  11.297
43957SOL    HW233705  10.791   3.354  11.400
43958SOL     OW33706   3.632  12.839   2.486
43958SOL    HW133707   3.708  12.835   2.427
43958SOL    HW233708   3.663  12.889   2.562
43959SOL     OW33709   2.337   5.294  10.822
43959SOL    HW133710   2.282   5.372  10.814
43959SOL    HW233711   2.307   5.236  10.753
43960SOL     OW33712  12.714   9.289   2.303
43960SOL    HW133713  12.657   9.229   2.254
43960SOL    HW233714  12.692   9.376   2.270
43961SOL     OW33715   5.214   0.580   2.652
43961SOL    HW133716   5.213   0.592   2.557
43961SOL    HW233717   5.123   0.594   2.679
43962SOL     OW33718   4.797   8.157   6.090
43962SOL    HW133719   4.739   8.210   6.144
43962SOL    HW233720   4.874   8.142   6.144
43963SOL     OW33721   4.951   3.317   2.067
43963SOL    HW133722   4.980   3.405   2.044
43963SOL    HW233723   4.858   3.328   2.091
43964SOL     OW33724   5.436   9.488   1.350
43964SOL    HW133725   5.482   9.571   1.361
43964SOL    HW233726   5.385   9.478   1.431
43965SOL     OW33727  11.016  12.799   6.349
43965SOL    HW133728  11.015  12.885   6.390
43965SOL    HW233729  11.051  12.814   6.262
43966SOL     OW33730   8.309   8.359  12.382
43966SOL    HW133731   8.323   8.430  12.319
43966SOL    HW233732   8.336   8.280  12.334
43967SOL     OW33733  10.438   5.910   5.014
43967SOL    HW133734  10.489   5.832   5.032
43967SOL    HW233735  10.438   5.959   5.097
43968SOL     OW33736   5.822  14.825  11.339
43968SOL    HW133737   5.732  14.808  11.365
43968SOL    HW233738   5.822  14.818  11.244
43969SOL     OW33739   2.513   8.772  14.108
43969SOL    HW133740   2.497   8.723  14.189
43969SOL    HW233741   2.606   8.758  14.090
43970SOL     OW33742  13.937  14.081   8.581
43970SOL    HW133743  13.963  13.993   8.607
43970SOL    HW233744  13.908  14.122   8.662
43971SOL     OW33745  12.253   9.855   5.240
43971SOL    HW133746  12.342   9.888   5.252
43971SOL    HW233747  12.260   9.761   5.259
43972SOL     OW33748  13.197   1.508   7.311
43972SOL    HW133749  13.201   1.412   7.311
43972SOL    HW233750  13.118   1.529   7.262
43973SOL     OW33751   4.497  13.049   0.923
43973SOL    HW133752   4.436  13.113   0.885
43973SOL    HW233753   4.443  13.000   0.985
43974SOL     OW33754  11.247  14.219   5.184
43974SOL    HW133755  11.210  14.248   5.100
43974SOL    HW233756  11.272  14.300   5.228
43975SOL     OW33757   5.537   1.599   7.729
43975SOL    HW133758   5.470   1.532   7.717
43975SOL    HW233759   5.561   1.624   7.639
43976SOL     OW33760   9.076   7.691   2.327
43976SOL    HW133761   9.038   7.740   2.400
43976SOL    HW233762   9.146   7.639   2.366
43977SOL     OW33763   6.112   4.318  10.801
43977SOL    HW133764   6.181   4.364  10.754
43977SOL    HW233765   6.031   4.342  10.756
43978SOL     OW33766  13.419   1.001   6.831
43978SOL    HW133767  13.340   0.997   6.884
43978SOL    HW233768  13.390   1.037   6.747
43979SOL     OW33769   2.214   8.215   7.216
43979SOL    HW133770   2.230   8.122   7.231
43979SOL    HW233771   2.186   8.249   7.301
43980SOL     OW33772  14.606  13.889  14.245
43980SOL    HW133773  14.604  13.984  14.254
43980SOL    HW233774  14.676  13.860  14.304
43981SOL     OW33775   3.721   1.308   1.592
43981SOL    HW133776   3.794   1.371   1.599
43981SOL    HW233777   3.658   1.337   1.658
43982SOL     OW33778   1.590   8.017  11.861
43982SOL    HW133779   1.635   7.959  11.923
43982SOL    HW233780   1.506   7.974  11.844
43983SOL     OW33781   3.050  11.487   4.674
43983SOL    HW133782   3.110  11.540   4.726
43983SOL    HW233783   3.022  11.417   4.733
43984SOL     OW33784   7.867   0.387   6.284
43984SOL    HW133785   7.958   0.394   6.314
43984SOL    HW233786   7.854   0.293   6.269
43985SOL     OW33787   3.056   9.532   1.570
43985SOL    HW133788   3.048   9.460   1.508
43985SOL    HW233789   2.987   9.593   1.544
43986SOL     OW33790   3.471   5.920   2.582
43986SOL    HW133791   3.521   6.001   2.572
43986SOL    HW233792   3.380   5.948   2.580
43987SOL     OW33793  10.230   0.909   1.512
43987SOL    HW133794  10.163   0.844   1.493
43987SOL    HW233795  10.312   0.868   1.483
43988SOL     OW33796   3.820   1.000   7.305
43988SOL    HW133797   3.806   1.080   7.355
43988SOL    HW233798   3.896   1.019   7.250
43989SOL     OW33799   3.582   4.149   4.076
43989SOL    HW133800   3.577   4.237   4.113
43989SOL    HW233801   3.674   4.123   4.088
43990SOL     OW33802   0.784   9.375  12.798
43990SOL    HW133803   0.736   9.436  12.855
43990SOL    HW233804   0.827   9.315  12.859
43991SOL     OW33805   1.324   9.217  10.962
43991SOL    HW133806   1.269   9.274  11.015
43991SOL    HW233807   1.263   9.166  10.910
43992SOL     OW33808   9.982  10.551   0.538
43992SOL    HW133809   9.929  10.538   0.617
43992SOL    HW233810  10.072  10.542   0.567
43993SOL     OW33811  14.539   6.631   7.084
43993SOL    HW133812  14.602   6.607   7.152
43993SOL    HW233813  14.483   6.554   7.074
43994SOL     OW33814  11.425   2.070  11.307
43994SOL    HW133815  11.487   2.134  11.343
43994SOL    HW233816  11.444   1.989  11.355
43995SOL     OW33817   0.797  11.063  11.475
43995SOL    HW133818   0.891  11.048  11.469
43995SOL    HW233819   0.771  11.088  11.386
43996SOL     OW33820   3.683   1.374   6.135
43996SOL    HW133821   3.647   1.458   6.107
43996SOL    HW233822   3.729   1.341   6.057
43997SOL     OW33823  14.834   7.314   6.718
43997SOL    HW133824  14.830   7.362   6.801
43997SOL    HW233825  14.747   7.324   6.681
43998SOL     OW33826  10.195   7.299  10.359
43998SOL    HW133827  10.283   7.263  10.347
43998SOL    HW233828  10.182   7.356  10.283
43999SOL     OW33829   4.663   2.246  10.290
43999SOL    HW133830   4.711   2.294  10.358
43999SOL    HW233831   4.598   2.309  10.258
44000SOL     OW33832  13.521   4.111  10.093
44000SOL    HW133833  13.544   4.162  10.015
44000SOL    HW233834  13.593   4.127  10.154
44001SOL     OW33835   8.176  12.222   0.904
44001SOL    HW133836   8.245  12.209   0.969
44001SOL    HW233837   8.200  12.164   0.832
44002SOL     OW33838  13.790   9.361  14.368
44002SOL    HW133839  13.872   9.383  14.323
44002SOL    HW233840  13.769   9.440  14.418
44003SOL     OW33841   4.167   9.090  14.572
44003SOL    HW133842   4.127   9.145  14.640
44003SOL    HW233843   4.258   9.080  14.600
44004SOL     OW33844   8.947   0.218   3.736
44004SOL    HW133845   8.898   0.159   3.793
44004SOL    HW233846   8.929   0.306   3.770
44005SOL     OW33847   7.295   1.649  12.262
44005SOL    HW133848   7.255   1.676  12.345
44005SOL    HW233849   7.263   1.559  12.248
44006SOL     OW33850   8.831  13.035  10.425
44006SOL    HW133851   8.754  13.088  10.406
44006SOL    HW233852   8.812  12.951  10.384
44007SOL     OW33853   5.536   6.412   5.187
44007SOL    HW133854   5.538   6.404   5.092
44007SOL    HW233855   5.568   6.327   5.218
44008SOL     OW33856   9.904   9.202   9.058
44008SOL    HW133857   9.934   9.207   8.967
44008SOL    HW233858   9.960   9.265   9.104
44009SOL     OW33859   2.106   4.699  13.776
44009SOL    HW133860   2.094   4.782  13.823
44009SOL    HW233861   2.056   4.635  13.828
44010SOL     OW33862  11.259  11.688  11.511
44010SOL    HW133863  11.289  11.690  11.420
44010SOL    HW233864  11.333  11.722  11.561
44011SOL     OW33865   8.022   1.194  11.611
44011SOL    HW133866   7.940   1.168  11.568
44011SOL    HW233867   8.052   1.114  11.654
44012SOL     OW33868   2.693   3.730  13.205
44012SOL    HW133869   2.762   3.697  13.147
44012SOL    HW233870   2.729   3.721  13.293
44013SOL     OW33871   1.137   2.065  10.233
44013SOL    HW133872   1.144   1.992  10.171
44013SOL    HW233873   1.150   2.025  10.319
44014SOL     OW33874   9.523   7.551   1.441
44014SOL    HW133875   9.490   7.467   1.474
44014SOL    HW233876   9.484   7.560   1.354
44015SOL     OW33877   2.798   1.308   4.738
44015SOL    HW133878   2.705   1.304   4.764
44015SOL    HW233879   2.801   1.264   4.653
44016SOL     OW33880  10.105   0.419  12.124
44016SOL    HW133881  10.027   0.448  12.172
44016SOL    HW233882  10.146   0.500  12.093
44017SOL     OW33883   0.456   7.395  10.964
44017SOL    HW133884   0.410   7.434  10.889
44017SOL    HW233885   0.447   7.301  10.950
44018SOL     OW33886  12.761  11.154   0.615
44018SOL    HW133887  12.666  11.147   0.608
44018SOL    HW233888  12.788  11.070   0.653
44019SOL     OW33889   2.187   6.410   3.352
44019SOL    HW133890   2.125   6.422   3.425
44019SOL    HW233891   2.200   6.498   3.317
44020SOL     OW33892   5.145  12.331   3.571
44020SOL    HW133893   5.080  12.283   3.623
44020SOL    HW233894   5.176  12.267   3.507
44021SOL     OW33895   5.429   4.775  10.371
44021SOL    HW133896   5.404   4.721  10.445
44021SOL    HW233897   5.394   4.729  10.295
44022SOL     OW33898   3.615   6.537   3.263
44022SOL    HW133899   3.692   6.511   3.213
44022SOL    HW233900   3.647   6.606   3.321
44023SOL     OW33901   9.487  13.694   8.234
44023SOL    HW133902   9.438  13.682   8.153
44023SOL    HW233903   9.437  13.758   8.283
44024SOL     OW33904  12.700  11.874  13.232
44024SOL    HW133905  12.700  11.907  13.142
44024SOL    HW233906  12.625  11.917  13.273
44025SOL     OW33907  14.679   6.661   1.671
44025SOL    HW133908  14.722   6.580   1.642
44025SOL    HW233909  14.585   6.644   1.659
44026SOL     OW33910   9.460   1.280   4.791
44026SOL    HW133911   9.453   1.371   4.763
44026SOL    HW233912   9.509   1.284   4.874
44027SOL     OW33913  13.063   2.365   5.557
44027SOL    HW133914  13.035   2.416   5.632
44027SOL    HW233915  13.094   2.283   5.594
44028SOL     OW33916   6.963   9.230   9.853
44028SOL    HW133917   6.913   9.299   9.898
44028SOL    HW233918   6.898   9.184   9.799
44029SOL     OW33919   0.059   0.387   3.367
44029SOL    HW133920   0.070   0.383   3.462
44029SOL    HW233921   0.044   0.479   3.349
44030SOL     OW33922   5.171   2.750   1.411
44030SOL    HW133923   5.153   2.843   1.426
44030SOL    HW233924   5.135   2.733   1.324
44031SOL     OW33925  13.393   9.157   2.622
44031SOL    HW133926  13.391   9.145   2.527
44031SOL    HW233927  13.458   9.225   2.636
44032SOL     OW33928   6.668   8.180   7.272
44032SOL    HW133929   6.706   8.111   7.326
44032SOL    HW233930   6.665   8.143   7.184
44033SOL     OW33931   6.618   1.732   3.779
44033SOL    HW133932   6.566   1.661   3.741
44033SOL    HW233933   6.701   1.729   3.731
44034SOL     OW33934  10.381   9.184   2.990
44034SOL    HW133935  10.302   9.130   3.003
44034SOL    HW233936  10.445   9.123   2.952
44035SOL     OW33937   3.196   8.178   0.333
44035SOL    HW133938   3.104   8.153   0.327
44035SOL    HW233939   3.238   8.103   0.375
44036SOL     OW33940  11.796   1.382   5.565
44036SOL    HW133941  11.771   1.435   5.489
44036SOL    HW233942  11.863   1.435   5.610
44037SOL     OW33943  10.597   9.315   8.488
44037SOL    HW133944  10.544   9.257   8.435
44037SOL    HW233945  10.588   9.282   8.578
44038SOL     OW33946   3.100   3.401   3.918
44038SOL    HW133947   3.020   3.419   3.869
44038SOL    HW233948   3.074   3.334   3.982
44039SOL     OW33949   5.140  11.233   9.556
44039SOL    HW133950   5.135  11.219   9.650
44039SOL    HW233951   5.118  11.326   9.544
44040SOL     OW33952   4.104   2.319  14.570
44040SOL    HW133953   4.068   2.407  14.581
44040SOL    HW233954   4.043   2.263  14.617
44041SOL     OW33955   2.196  11.154   0.841
44041SOL    HW133956   2.238  11.227   0.795
44041SOL    HW233957   2.162  11.193   0.922
44042SOL     OW33958  12.284   3.339  12.363
44042SOL    HW133959  12.283   3.416  12.419
44042SOL    HW233960  12.196   3.302  12.371
44043SOL     OW33961  14.507   5.573  14.500
44043SOL    HW133962  14.545   5.578  14.412
44043SOL    HW233963  14.469   5.485  14.505
44044SOL     OW33964   8.302   4.496   8.092
44044SOL    HW133965   8.307   4.588   8.063
44044SOL    HW233966   8.259   4.451   8.019
44045SOL     OW33967   0.392  12.653  14.457
44045SOL    HW133968   0.422  12.736  14.419
44045SOL    HW233969   0.308  12.637  14.416
44046SOL     OW33970   2.079   7.118  14.197
44046SOL    HW133971   2.087   7.035  14.151
44046SOL    HW233972   2.062   7.182  14.128
44047SOL     OW33973   0.445  13.983  10.300
44047SOL    HW133974   0.439  14.017  10.210
44047SOL    HW233975   0.359  13.945  10.317
44048SOL     OW33976  12.152   9.285  13.387
44048SOL    HW133977  12.198   9.338  13.452
44048SOL    HW233978  12.065   9.272  13.425
44049SOL     OW33979  14.321  13.829  13.800
44049SOL    HW133980  14.274  13.849  13.881
44049SOL    HW233981  14.322  13.734  13.795
44050SOL     OW33982   3.893   4.249   8.346
44050SOL    HW133983   3.929   4.187   8.282
44050SOL    HW233984   3.817   4.287   8.302
44051SOL     OW33985   6.554   8.512   5.725
44051SOL    HW133986   6.460   8.498   5.727
44051SOL    HW233987   6.576   8.544   5.813
44052SOL     OW33988   3.299  14.190   5.906
44052SOL    HW133989   3.208  14.214   5.888
44052SOL    HW233990   3.330  14.258   5.965
44053SOL     OW33991   1.193  14.714   6.283
44053SOL    HW133992   1.287  14.728   6.297
44053SOL    HW233993   1.190  14.632   6.234
44054SOL     OW33994   1.210   5.804   8.600
44054SOL    HW133995   1.198   5.769   8.512
44054SOL    HW233996   1.231   5.727   8.653
44055SOL     OW33997   1.854   9.124   9.531
44055SOL    HW133998   1.936   9.093   9.569
44055SOL    HW233999   1.794   9.050   9.540
44056SOL     OW34000  11.213   8.608   6.276
44056SOL    HW134001  11.153   8.585   6.204
44056SOL    HW234002  11.293   8.559   6.257
44057SOL     OW34003   5.507   0.071   0.058
44057SOL    HW134004   5.421   0.082   0.016
44057SOL    HW234005   5.545   0.159   0.058
44058SOL     OW34006   0.453   3.491   2.621
44058SOL    HW134007   0.463   3.582   2.651
44058SOL    HW234008   0.539   3.468   2.584
44059SOL     OW34009  10.175  12.025   6.185
44059SOL    HW134010  10.232  12.041   6.110
44059SOL    HW234011  10.091  12.062   6.159
44060SOL     OW34012  11.988   0.982  14.607
44060SOL    HW134013  12.013   1.012  14.520
44060SOL    HW234014  11.893   0.990  14.608
44061SOL     OW34015  11.842   3.606  10.713
44061SOL    HW134016  11.773   3.598  10.646
44061SOL    HW234017  11.903   3.535  10.693
44062SOL     OW34018  10.559   4.244  10.730
44062SOL    HW134019  10.618   4.276  10.798
44062SOL    HW234020  10.486   4.204  10.778
44063SOL     OW34021   5.268   9.856   7.213
44063SOL    HW134022   5.321   9.778   7.228
44063SOL    HW234023   5.314   9.903   7.143
44064SOL     OW34024   4.208   7.467  11.497
44064SOL    HW134025   4.182   7.389  11.449
44064SOL    HW234026   4.225   7.533  11.429
44065SOL     OW34027   0.791   0.064  12.225
44065SOL    HW134028   0.818   0.092  12.138
44065SOL    HW234029   0.872   0.057  12.275
44066SOL     OW34030  12.812  13.752   7.152
44066SOL    HW134031  12.836  13.842   7.172
44066SOL    HW234032  12.782  13.754   7.061
44067SOL     OW34033   8.157  10.509   6.565
44067SOL    HW134034   8.112  10.424   6.567
44067SOL    HW234035   8.242  10.490   6.524
44068SOL     OW34036   2.641  14.788  14.478
44068SOL    HW134037   2.630  14.807  14.572
44068SOL    HW234038   2.618  14.870  14.435
44069SOL     OW34039   3.940   9.223   1.010
44069SOL    HW134040   3.928   9.290   0.942
44069SOL    HW234041   4.033   9.200   1.005
44070SOL     OW34042  13.875   4.604  11.890
44070SOL    HW134043  13.927   4.554  11.828
44070SOL    HW234044  13.927   4.604  11.971
44071SOL     OW34045  12.258  10.445   7.952
44071SOL    HW134046  12.263  10.512   8.019
44071SOL    HW234047  12.348  10.437   7.919
44072SOL     OW34048  12.667   8.701   4.267
44072SOL    HW134049  12.646   8.704   4.174
44072SOL    HW234050  12.741   8.640   4.273
44073SOL     OW34051  11.197   3.609   3.324
44073SOL    HW134052  11.127   3.674   3.333
44073SOL    HW234053  11.191   3.557   3.404
44074SOL     OW34054   9.099   1.070  12.729
44074SOL    HW134055   9.093   1.040  12.819
44074SOL    HW234056   9.055   1.002  12.678
44075SOL     OW34057  13.262  14.565  10.410
44075SOL    HW134058  13.194  14.586  10.475
44075SOL    HW234059  13.213  14.542  10.331
44076SOL     OW34060   6.527   6.479   6.728
44076SOL    HW134061   6.479   6.562   6.716
44076SOL    HW234062   6.458   6.413   6.739
44077SOL     OW34063   5.371   7.364   6.366
44077SOL    HW134064   5.371   7.415   6.285
44077SOL    HW234065   5.279   7.342   6.381
44078SOL     OW34066   5.389   0.352   5.486
44078SOL    HW134067   5.304   0.323   5.520
44078SOL    HW234068   5.367   0.426   5.428
44079SOL     OW34069   5.842  13.670   7.496
44079SOL    HW134070   5.877  13.591   7.454
44079SOL    HW234071   5.834  13.646   7.589
44080SOL     OW34072   9.586   9.827  12.897
44080SOL    HW134073   9.655   9.889  12.874
44080SOL    HW234074   9.624   9.741  12.878
44081SOL     OW34075   2.771   8.136   1.061
44081SOL    HW134076   2.766   8.045   1.033
44081SOL    HW234077   2.745   8.135   1.153
44082SOL     OW34078   9.620   2.532   4.904
44082SOL    HW134079   9.533   2.493   4.893
44082SOL    HW234080   9.617   2.612   4.853
44083SOL     OW34081   7.859   5.858   5.893
44083SOL    HW134082   7.950   5.882   5.911
44083SOL    HW234083   7.838   5.904   5.812
44084SOL     OW34084   3.555  14.835   3.293
44084SOL    HW134085   3.573  14.790   3.375
44084SOL    HW234086   3.621   0.025   3.288
44085SOL     OW34087  14.329   1.120   0.121
44085SOL    HW134088  14.416   1.079   0.131
44085SOL    HW234089  14.285   1.103   0.205
44086SOL     OW34090  12.081   3.753   2.747
44086SOL    HW134091  12.156   3.812   2.747
44086SOL    HW234092  12.010   3.804   2.788
44087SOL     OW34093  12.871  12.500  11.271
44087SOL    HW134094  12.939  12.521  11.206
44087SOL    HW234095  12.889  12.559  11.344
44088SOL     OW34096   1.144   2.237   8.860
44088SOL    HW134097   1.050   2.240   8.875
44088SOL    HW234098   1.159   2.152   8.817
44089SOL     OW34099   3.924   5.437  12.986
44089SOL    HW134100   3.979   5.398  12.918
44089SOL    HW234101   3.987   5.477  13.047
44090SOL     OW34102   6.053   0.196   3.329
44090SOL    HW134103   6.140   0.162   3.308
44090SOL    HW234104   6.070   0.280   3.370
44091SOL     OW34105   3.332   9.952   6.915
44091SOL    HW134106   3.268   9.923   6.849
44091SOL    HW234107   3.319   9.893   6.989
44092SOL     OW34108   4.492   2.224  14.239
44092SOL    HW134109   4.488   2.288  14.310
44092SOL    HW234110   4.400   2.209  14.215
44093SOL     OW34111  14.715   2.153  13.572
44093SOL    HW134112  14.637   2.177  13.522
44093SOL    HW234113  14.788   2.187  13.521
44094SOL     OW34114   6.218   2.567  11.259
44094SOL    HW134115   6.142   2.604  11.215
44094SOL    HW234116   6.268   2.644  11.289
44095SOL     OW34117  11.795  10.207  12.397
44095SOL    HW134118  11.748  10.285  12.369
44095SOL    HW234119  11.728  10.150  12.434
44096SOL     OW34120   3.963   3.766   2.993
44096SOL    HW134121   4.037   3.828   2.991
44096SOL    HW234122   3.954   3.736   2.903
44097SOL     OW34123   2.601   4.251   3.743
44097SOL    HW134124   2.689   4.218   3.723
44097SOL    HW234125   2.592   4.329   3.688
44098SOL     OW34126   7.081   2.779   4.120
44098SOL    HW134127   7.037   2.861   4.098
44098SOL    HW234128   7.166   2.806   4.153
44099SOL     OW34129  12.835   7.670  12.975
44099SOL    HW134130  12.793   7.720  12.905
44099SOL    HW234131  12.905   7.727  13.007
44100SOL     OW34132  11.891  10.217  10.338
44100SOL    HW134133  11.921  10.151  10.400
44100SOL    HW234134  11.871  10.294  10.393
44101SOL     OW34135   2.954   0.190   8.542
44101SOL    HW134136   2.999   0.114   8.579
44101SOL    HW234137   2.861   0.170   8.552
44102SOL     OW34138   1.690   4.427  12.692
44102SOL    HW134139   1.783   4.430  12.715
44102SOL    HW234140   1.685   4.469  12.606
44103SOL     OW34141   3.548   9.981   4.794
44103SOL    HW134142   3.469   9.957   4.842
44103SOL    HW234143   3.584   9.897   4.764
44104SOL     OW34144  12.136   2.057  10.615
44104SOL    HW134145  12.123   2.057  10.710
44104SOL    HW234146  12.167   1.969  10.595
44105SOL     OW34147  12.584   5.816   0.968
44105SOL    HW134148  12.507   5.762   0.950
44105SOL    HW234149  12.553   5.906   0.957
44106SOL     OW34150  14.521   7.401  12.548
44106SOL    HW134151  14.589   7.352  12.593
44106SOL    HW234152  14.445   7.343  12.546
44107SOL     OW34153   5.206  14.268   3.408
44107SOL    HW134154   5.261  14.190   3.407
44107SOL    HW234155   5.249  14.328   3.347
44108SOL     OW34156   1.961  11.170  11.516
44108SOL    HW134157   1.916  11.241  11.561
44108SOL    HW234158   1.945  11.186  11.423
44109SOL     OW34159   9.692   4.213   2.902
44109SOL    HW134160   9.714   4.123   2.879
44109SOL    HW234161   9.707   4.262   2.821
44110SOL     OW34162   5.763   4.711   5.620
44110SOL    HW134163   5.763   4.709   5.716
44110SOL    HW234164   5.727   4.797   5.598
44111SOL     OW34165   0.492   6.493  11.175
44111SOL    HW134166   0.535   6.419  11.218
44111SOL    HW234167   0.558   6.526  11.113
44112SOL     OW34168   9.789  13.806  10.354
44112SOL    HW134169   9.805  13.752  10.276
44112SOL    HW234170   9.695  13.827  10.348
44113SOL     OW34171   7.920  13.042   8.734
44113SOL    HW134172   8.002  12.993   8.727
44113SOL    HW234173   7.871  12.997   8.803
44114SOL     OW34174   2.964   3.258   4.693
44114SOL    HW134175   2.913   3.270   4.773
44114SOL    HW234176   3.032   3.195   4.716
44115SOL     OW34177   2.555   2.813   5.158
44115SOL    HW134178   2.558   2.818   5.063
44115SOL    HW234179   2.462   2.820   5.180
44116SOL     OW34180   1.307  10.320  10.171
44116SOL    HW134181   1.311  10.231  10.136
44116SOL    HW234182   1.354  10.373  10.106
44117SOL     OW34183   4.600   7.425  12.360
44117SOL    HW134184   4.560   7.339  12.375
44117SOL    HW234185   4.529   7.480  12.327
44118SOL     OW34186   4.580   2.249   0.439
44118SOL    HW134187   4.622   2.178   0.487
44118SOL    HW234188   4.539   2.302   0.508
44119SOL     OW34189   9.740   3.483   5.115
44119SOL    HW134190   9.778   3.518   5.195
44119SOL    HW234191   9.813   3.440   5.071
44120SOL     OW34192   6.909   1.366   9.277
44120SOL    HW134193   6.896   1.319   9.194
44120SOL    HW234194   6.820   1.385   9.307
44121SOL     OW34195  10.406  10.567  14.349
44121SOL    HW134196  10.339  10.537  14.288
44121SOL    HW234197  10.476  10.600  14.292
44122SOL     OW34198  10.444   8.101   1.952
44122SOL    HW134199  10.429   8.011   1.922
44122SOL    HW234200  10.372   8.151   1.915
44123SOL     OW34201  14.259   6.472   5.424
44123SOL    HW134202  14.226   6.389   5.388
44123SOL    HW234203  14.353   6.469   5.409
44124SOL     OW34204   8.450   0.792  10.859
44124SOL    HW134205   8.478   0.750  10.778
44124SOL    HW234206   8.357   0.768  10.867
44125SOL     OW34207   9.181   4.167   6.782
44125SOL    HW134208   9.154   4.132   6.697
44125SOL    HW234209   9.192   4.090   6.838
44126SOL     OW34210  13.290  14.821  13.010
44126SOL    HW134211  13.316  14.783  13.094
44126SOL    HW234212  13.373  14.831  12.962
44127SOL     OW34213   1.328   3.793  12.883
44127SOL    HW134214   1.302   3.849  12.809
44127SOL    HW234215   1.254   3.734  12.896
44128SOL     OW34216   1.737   5.730  12.472
44128SOL    HW134217   1.778   5.644  12.481
44128SOL    HW234218   1.654   5.713  12.428
44129SOL     OW34219   3.260   9.501  14.050
44129SOL    HW134220   3.227   9.464  13.968
44129SOL    HW234221   3.315   9.432  14.087
44130SOL     OW34222  10.582  14.601  10.042
44130SOL    HW134223  10.621  14.530   9.990
44130SOL    HW234224  10.630  14.600  10.124
44131SOL     OW34225   1.514   5.029  11.216
44131SOL    HW134226   1.504   4.997  11.305
44131SOL    HW234227   1.425   5.045  11.185
44132SOL     OW34228  10.226  11.918   2.986
44132SOL    HW134229  10.168  11.880   2.919
44132SOL    HW234230  10.216  12.012   2.976
44133SOL     OW34231  10.083   2.397   7.393
44133SOL    HW134232  10.029   2.474   7.373
44133SOL    HW234233  10.106   2.407   7.486
44134SOL     OW34234   0.720  12.583   4.668
44134SOL    HW134235   0.695  12.542   4.751
44134SOL    HW234236   0.637  12.593   4.621
44135SOL     OW34237   1.953  12.108   7.677
44135SOL    HW134238   1.970  12.044   7.746
44135SOL    HW234239   2.000  12.186   7.704
44136SOL     OW34240   2.516   1.436   2.743
44136SOL    HW134241   2.572   1.379   2.689
44136SOL    HW234242   2.483   1.502   2.682
44137SOL     OW34243   2.908   5.990   0.283
44137SOL    HW134244   2.852   5.971   0.358
44137SOL    HW234245   2.986   5.936   0.297
44138SOL     OW34246  14.657   4.596   4.674
44138SOL    HW134247  14.620   4.662   4.732
44138SOL    HW234248  14.589   4.529   4.666
44139SOL     OW34249   6.427   7.148  11.616
44139SOL    HW134250   6.332   7.141  11.626
44139SOL    HW234251   6.439   7.185  11.529
44140SOL     OW34252   2.303   4.839   2.524
44140SOL    HW134253   2.301   4.760   2.469
44140SOL    HW234254   2.395   4.865   2.523
44141SOL     OW34255   1.279  10.104   0.176
44141SOL    HW134256   1.240  10.119   0.262
44141SOL    HW234257   1.341  10.175   0.164
44142SOL     OW34258   8.472   9.586   3.891
44142SOL    HW134259   8.511   9.639   3.822
44142SOL    HW234260   8.407   9.532   3.846
44143SOL     OW34261  12.055  13.271  12.672
44143SOL    HW134262  11.963  13.285  12.653
44143SOL    HW234263  12.083  13.205  12.608
44144SOL     OW34264   0.121  12.798  13.543
44144SOL    HW134265   0.106  12.723  13.601
44144SOL    HW234266   0.164  12.863  13.598
44145SOL     OW34267   1.143   2.794   0.805
44145SOL    HW134268   1.052   2.801   0.775
44145SOL    HW234269   1.176   2.714   0.762
44146SOL     OW34270   9.767   6.672   6.646
44146SOL    HW134271   9.852   6.711   6.663
44146SOL    HW234272   9.755   6.607   6.715
44147SOL     OW34273  13.309   7.280   2.411
44147SOL    HW134274  13.277   7.213   2.350
44147SOL    HW234275  13.366   7.232   2.472
44148SOL     OW34276   5.052  11.157  11.899
44148SOL    HW134277   4.959  11.136  11.899
44148SOL    HW234278   5.095  11.081  11.938
44149SOL     OW34279  13.561  14.176   7.669
44149SOL    HW134280  13.645  14.149   7.632
44149SOL    HW234281  13.535  14.251   7.617
44150SOL     OW34282   6.395  13.425   6.418
44150SOL    HW134283   6.451  13.347   6.420
44150SOL    HW234284   6.417  13.468   6.335
44151SOL     OW34285  11.156   6.879  12.383
44151SOL    HW134286  11.219   6.942  12.347
44151SOL    HW234287  11.121   6.922  12.461
44152SOL     OW34288   7.770   0.771  14.007
44152SOL    HW134289   7.746   0.852  13.961
44152SOL    HW234290   7.715   0.770  14.085
44153SOL     OW34291  13.225   5.874  10.181
44153SOL    HW134292  13.158   5.807  10.175
44153SOL    HW234293  13.188   5.950  10.136
44154SOL     OW34294  12.771   0.882   5.751
44154SOL    HW134295  12.825   0.873   5.829
44154SOL    HW234296  12.826   0.851   5.680
44155SOL     OW34297   3.089   6.998  11.346
44155SOL    HW134298   3.025   6.944  11.300
44155SOL    HW234299   3.173   6.978  11.306
44156SOL     OW34300   5.536  11.136   4.658
44156SOL    HW134301   5.600  11.078   4.698
44156SOL    HW234302   5.502  11.188   4.732
44157SOL     OW34303  11.215   5.016   4.734
44157SOL    HW134304  11.231   5.100   4.691
44157SOL    HW234305  11.236   4.951   4.668
44158SOL     OW34306   3.976  11.005  12.699
44158SOL    HW134307   3.978  11.099  12.716
44158SOL    HW234308   3.893  10.976  12.737
44159SOL     OW34309   8.309   3.746   4.816
44159SOL    HW134310   8.290   3.661   4.776
44159SOL    HW234311   8.245   3.805   4.778
44160SOL     OW34312   2.536  13.774  13.222
44160SOL    HW134313   2.598  13.715  13.265
44160SOL    HW234314   2.454  13.763  13.270
44161SOL     OW34315   2.691   5.080   0.763
44161SOL    HW134316   2.629   5.049   0.829
44161SOL    HW234317   2.757   5.129   0.813
44162SOL     OW34318   1.042   7.224  10.568
44162SOL    HW134319   1.053   7.131  10.587
44162SOL    HW234320   0.969   7.252  10.623
44163SOL     OW34321   4.398   7.538   4.550
44163SOL    HW134322   4.366   7.582   4.472
44163SOL    HW234323   4.486   7.574   4.563
44164SOL     OW34324   1.630  13.612   0.484
44164SOL    HW134325   1.552  13.651   0.525
44164SOL    HW234326   1.683  13.687   0.458
44165SOL     OW34327  11.793   7.178  10.068
44165SOL    HW134328  11.715   7.162  10.016
44165SOL    HW234329  11.835   7.093  10.077
44166SOL     OW34330   4.014   4.624   6.568
44166SOL    HW134331   4.063   4.620   6.650
44166SOL    HW234332   3.938   4.567   6.583
44167SOL     OW34333   3.790   4.545  12.239
44167SOL    HW134334   3.818   4.454  12.227
44167SOL    HW234335   3.709   4.552  12.187
44168SOL     OW34336  10.991   8.725  11.665
44168SOL    HW134337  10.948   8.640  11.668
44168SOL    HW234338  10.939   8.780  11.725
44169SOL     OW34339   6.092   8.647   3.958
44169SOL    HW134340   6.024   8.672   4.020
44169SOL    HW234341   6.051   8.655   3.872
44170SOL     OW34342  10.583  11.516   8.081
44170SOL    HW134343  10.624  11.450   8.137
44170SOL    HW234344  10.584  11.477   7.994
44171SOL     OW34345   2.307  12.532   8.932
44171SOL    HW134346   2.355  12.454   8.959
44171SOL    HW234347   2.214  12.508   8.940
44172SOL     OW34348  14.755   9.891  10.605
44172SOL    HW134349  14.697   9.816  10.587
44172SOL    HW234350  14.698   9.968  10.595
44173SOL     OW34351  13.858   5.433   2.367
44173SOL    HW134352  13.813   5.517   2.359
44173SOL    HW234353  13.792   5.368   2.344
44174SOL     OW34354   4.226   0.860  12.265
44174SOL    HW134355   4.233   0.948  12.230
44174SOL    HW234356   4.312   0.842  12.304
44175SOL     OW34357   5.544   5.654   6.380
44175SOL    HW134358   5.526   5.747   6.366
44175SOL    HW234359   5.524   5.639   6.472
44176SOL     OW34360   2.460  14.085  10.954
44176SOL    HW134361   2.540  14.122  10.916
44176SOL    HW234362   2.423  14.155  11.008
44177SOL     OW34363  11.561  12.716   3.655
44177SOL    HW134364  11.520  12.761   3.729
44177SOL    HW234365  11.620  12.652   3.694
44178SOL     OW34366   3.731   8.997  13.527
44178SOL    HW134367   3.751   9.001  13.620
44178SOL    HW234368   3.665   9.065  13.513
44179SOL     OW34369  11.176   4.923   4.991
44179SOL    HW134370  11.259   4.876   4.999
44179SOL    HW234371  11.183   4.967   4.906
44180SOL     OW34372  12.145   5.633   4.019
44180SOL    HW134373  12.118   5.542   4.029
44180SOL    HW234374  12.236   5.628   3.989
44181SOL     OW34375   1.348  13.222   7.762
44181SOL    HW134376   1.347  13.256   7.851
44181SOL    HW234377   1.323  13.297   7.707
44182SOL     OW34378   0.479   6.748  12.080
44182SOL    HW134379   0.543   6.781  12.016
44182SOL    HW234380   0.530   6.738  12.160
44183SOL     OW34381   5.332   5.674  10.271
44183SOL    HW134382   5.330   5.632  10.185
44183SOL    HW234383   5.294   5.761  10.256
44184SOL     OW34384   6.252  12.135  11.800
44184SOL    HW134385   6.204  12.196  11.856
44184SOL    HW234386   6.205  12.052  11.810
44185SOL     OW34387   0.629   9.772   2.276
44185SOL    HW134388   0.651   9.727   2.358
44185SOL    HW234389   0.647   9.864   2.294
44186SOL     OW34390  10.346   1.051   6.753
44186SOL    HW134391  10.398   1.102   6.816
44186SOL    HW234392  10.379   1.079   6.668
44187SOL     OW34393  13.996   6.536  11.579
44187SOL    HW134394  14.062   6.579  11.634
44187SOL    HW234395  13.948   6.609  11.538
44188SOL     OW34396   3.256  12.568   1.604
44188SOL    HW134397   3.230  12.491   1.553
44188SOL    HW234398   3.319  12.534   1.668
44189SOL     OW34399   3.744   8.786  10.011
44189SOL    HW134400   3.657   8.751   9.994
44189SOL    HW234401   3.804   8.716   9.984
44190SOL     OW34402   3.182  10.506   1.279
44190SOL    HW134403   3.109  10.485   1.221
44190SOL    HW234404   3.175  10.442   1.350
44191SOL     OW34405   6.911   7.272  13.918
44191SOL    HW134406   6.867   7.188  13.925
44191SOL    HW234407   6.992   7.253  13.871
44192SOL     OW34408   6.428   4.920  12.634
44192SOL    HW134409   6.349   4.967  12.662
44192SOL    HW234410   6.434   4.846  12.695
44193SOL     OW34411   4.852   7.821  11.010
44193SOL    HW134412   4.805   7.827  11.093
44193SOL    HW234413   4.938   7.857  11.028
44194SOL     OW34414  10.066  12.040   6.659
44194SOL    HW134415  10.024  12.082   6.584
44194SOL    HW234416  10.070  12.108   6.726
44195SOL     OW34417   3.414   3.389   5.401
44195SOL    HW134418   3.439   3.337   5.478
44195SOL    HW234419   3.459   3.473   5.413
44196SOL     OW34420   7.578   3.123   2.600
44196SOL    HW134421   7.620   3.208   2.613
44196SOL    HW234422   7.617   3.066   2.667
44197SOL     OW34423   6.903   3.956  12.003
44197SOL    HW134424   6.838   3.891  11.977
44197SOL    HW234425   6.935   3.993  11.921
44198SOL     OW34426   7.166  11.429   3.329
44198SOL    HW134427   7.255  11.408   3.301
44198SOL    HW234428   7.177  11.495   3.397
44199SOL     OW34429  13.539  12.228  12.488
44199SOL    HW134430  13.625  12.267  12.503
44199SOL    HW234431  13.555  12.155  12.429
44200SOL     OW34432   6.417   3.140   6.826
44200SOL    HW134433   6.503   3.112   6.795
44200SOL    HW234434   6.415   3.235   6.810
44201SOL     OW34435  13.713   3.850   6.226
44201SOL    HW134436  13.786   3.860   6.165
44201SOL    HW234437  13.746   3.883   6.309
44202SOL     OW34438   5.632  12.872   4.826
44202SOL    HW134439   5.703  12.877   4.890
44202SOL    HW234440   5.632  12.957   4.783
44203SOL     OW34441  13.467   7.877   8.517
44203SOL    HW134442  13.442   7.925   8.438
44203SOL    HW234443  13.414   7.915   8.586
44204SOL     OW34444   4.544   0.721  14.393
44204SOL    HW134445   4.549   0.636  14.438
44204SOL    HW234446   4.452   0.730  14.370
44205SOL     OW34447   4.651   5.732   6.117
44205SOL    HW134448   4.641   5.637   6.128
44205SOL    HW234449   4.652   5.766   6.207
44206SOL     OW34450  10.540  13.791   2.458
44206SOL    HW134451  10.633  13.806   2.474
44206SOL    HW234452  10.496  13.862   2.505
44207SOL     OW34453   4.181  11.989  13.064
44207SOL    HW134454   4.211  12.022  13.149
44207SOL    HW234455   4.236  12.033  13.000
44208SOL     OW34456   0.828   9.779  11.199
44208SOL    HW134457   0.888   9.854  11.209
44208SOL    HW234458   0.877   9.718  11.144
44209SOL     OW34459   3.256   6.426  13.753
44209SOL    HW134460   3.210   6.500  13.793
44209SOL    HW234461   3.218   6.419  13.665
44210SOL     OW34462   3.689  11.676  13.755
44210SOL    HW134463   3.663  11.767  13.741
44210SOL    HW234464   3.618  11.639  13.807
44211SOL     OW34465  10.729  10.249  11.092
44211SOL    HW134466  10.782  10.311  11.143
44211SOL    HW234467  10.662  10.218  11.154
44212SOL     OW34468   6.207   5.528   7.769
44212SOL    HW134469   6.280   5.495   7.716
44212SOL    HW234470   6.190   5.616   7.735
44213SOL     OW34471  13.936   9.440  10.736
44213SOL    HW134472  13.979   9.521  10.764
44213SOL    HW234473  13.853   9.438  10.785
44214SOL     OW34474  13.466  12.062   9.599
44214SOL    HW134475  13.453  11.982   9.650
44214SOL    HW234476  13.526  12.115   9.652
44215SOL     OW34477   6.053   9.878  12.319
44215SOL    HW134478   6.053   9.821  12.242
44215SOL    HW234479   5.960   9.899  12.333
44216SOL     OW34480   6.406  14.752   9.180
44216SOL    HW134481   6.456  14.752   9.262
44216SOL    HW234482   6.469  14.779   9.114
44217SOL     OW34483   1.342   1.296  13.729
44217SOL    HW134484   1.357   1.218  13.783
44217SOL    HW234485   1.358   1.266  13.639
44218SOL     OW34486  13.438  13.521   6.716
44218SOL    HW134487  13.455  13.520   6.810
44218SOL    HW234488  13.346  13.548   6.709
44219SOL     OW34489   7.955   3.221   8.283
44219SOL    HW134490   7.971   3.127   8.280
44219SOL    HW234491   8.035   3.259   8.317
44220SOL     OW34492   0.411  14.351   0.106
44220SOL    HW134493   0.470  14.366   0.179
44220SOL    HW234494   0.458  14.289   0.049
44221SOL     OW34495  10.917   9.707   5.096
44221SOL    HW134496  10.969   9.632   5.069
44221SOL    HW234497  10.837   9.701   5.043
44222SOL     OW34498  10.729   4.416   5.297
44222SOL    HW134499  10.676   4.358   5.242
44222SOL    HW234500  10.787   4.357   5.345
44223SOL     OW34501  13.561   2.484  14.702
44223SOL    HW134502  13.573   2.426  14.627
44223SOL    HW234503  13.518   2.430  14.769
44224SOL     OW34504   3.258   6.301   8.110
44224SOL    HW134505   3.185   6.363   8.116
44224SOL    HW234506   3.275   6.274   8.200
44225SOL     OW34507  12.204   1.807   9.422
44225SOL    HW134508  12.233   1.716   9.418
44225SOL    HW234509  12.210   1.830   9.515
44226SOL     OW34510   7.752   5.165   6.992
44226SOL    HW134511   7.697   5.217   6.934
44226SOL    HW234512   7.798   5.105   6.933
44227SOL     OW34513   4.409   4.351  10.981
44227SOL    HW134514   4.482   4.404  11.011
44227SOL    HW234515   4.442   4.261  10.982
44228SOL     OW34516   3.501   5.867  10.268
44228SOL    HW134517   3.526   5.816  10.191
44228SOL    HW234518   3.429   5.922  10.238
44229SOL     OW34519   0.564   7.654  13.476
44229SOL    HW134520   0.507   7.588  13.516
44229SOL    HW234521   0.506   7.704  13.418
44230SOL     OW34522  13.900   9.192   4.886
44230SOL    HW134523  13.904   9.286   4.906
44230SOL    HW234524  13.809   9.176   4.862
44231SOL     OW34525  13.244   7.351   7.249
44231SOL    HW134526  13.208   7.361   7.161
44231SOL    HW234527  13.271   7.439   7.275
44232SOL     OW34528  13.632  11.393   7.306
44232SOL    HW134529  13.697  11.367   7.240
44232SOL    HW234530  13.615  11.485   7.286
44233SOL     OW34531  10.197  11.268  12.305
44233SOL    HW134532  10.268  11.274  12.368
44233SOL    HW234533  10.139  11.201  12.340
44234SOL     OW34534   7.711   7.986   2.890
44234SOL    HW134535   7.714   8.070   2.844
44234SOL    HW234536   7.657   7.930   2.833
44235SOL     OW34537   5.174   6.926   3.794
44235SOL    HW134538   5.167   6.874   3.874
44235SOL    HW234539   5.263   6.960   3.794
44236SOL     OW34540   3.309  11.653  12.075
44236SOL    HW134541   3.266  11.660  12.160
44236SOL    HW234542   3.394  11.694  12.088
44237SOL     OW34543  10.629  13.344   6.062
44237SOL    HW134544  10.607  13.254   6.040
44237SOL    HW234545  10.643  13.343   6.157
44238SOL     OW34546   7.767   2.046   0.153
44238SOL    HW134547   7.716   2.125   0.165
44238SOL    HW234548   7.794   2.047   0.062
44239SOL     OW34549   0.066  13.481  11.222
44239SOL    HW134550   0.161  13.473  11.222
44239SOL    HW234551   0.037  13.420  11.154
44240SOL     OW34552   2.717   6.208   1.598
44240SOL    HW134553   2.692   6.126   1.555
44240SOL    HW234554   2.749   6.263   1.527
44241SOL     OW34555   5.305   9.896  10.562
44241SOL    HW134556   5.385   9.868  10.518
44241SOL    HW234557   5.234   9.861  10.509
44242SOL     OW34558  11.645   4.284   0.680
44242SOL    HW134559  11.687   4.246   0.757
44242SOL    HW234560  11.607   4.366   0.712
44243SOL     OW34561   7.629  10.050   1.573
44243SOL    HW134562   7.637  10.047   1.478
44243SOL    HW234563   7.683   9.978   1.605
44244SOL     OW34564   5.005   7.465   1.429
44244SOL    HW134565   5.078   7.489   1.371
44244SOL    HW234566   4.929   7.508   1.390
44245SOL     OW34567   3.430   9.599   3.293
44245SOL    HW134568   3.431   9.688   3.328
44245SOL    HW234569   3.382   9.606   3.210
44246SOL     OW34570   4.057  10.264   7.120
44246SOL    HW134571   4.086  10.326   7.054
44246SOL    HW234572   4.106  10.184   7.101
44247SOL     OW34573   1.663   5.001  12.099
44247SOL    HW134574   1.722   4.931  12.070
44247SOL    HW234575   1.641   4.979  12.189
44248SOL     OW34576   5.640   0.485   5.219
44248SOL    HW134577   5.614   0.493   5.311
44248SOL    HW234578   5.684   0.567   5.199
44249SOL     OW34579   2.198   7.399   1.362
44249SOL    HW134580   2.248   7.410   1.443
44249SOL    HW234581   2.106   7.396   1.391
44250SOL     OW34582   6.060   7.033   0.915
44250SOL    HW134583   6.087   7.112   0.869
44250SOL    HW234584   6.139   6.979   0.920
44251SOL     OW34585   1.626  12.654  14.531
44251SOL    HW134586   1.596  12.680  14.444
44251SOL    HW234587   1.599  12.726  14.588
44252SOL     OW34588   0.406   4.727   4.737
44252SOL    HW134589   0.495   4.692   4.734
44252SOL    HW234590   0.350   4.651   4.718
44253SOL     OW34591   0.299   8.965   8.735
44253SOL    HW134592   0.278   8.874   8.714
44253SOL    HW234593   0.223   8.997   8.783
44254SOL     OW34594   4.349   5.951  11.830
44254SOL    HW134595   4.322   5.859  11.824
44254SOL    HW234596   4.292   5.996  11.767
44255SOL     OW34597  11.790  12.732  12.880
44255SOL    HW134598  11.794  12.755  12.973
44255SOL    HW234599  11.706  12.767  12.850
44256SOL     OW34600   5.211   2.623  12.864
44256SOL    HW134601   5.271   2.685  12.906
44256SOL    HW234602   5.155   2.593  12.935
44257SOL     OW34603   4.257   0.573   7.452
44257SOL    HW134604   4.337   0.552   7.500
44257SOL    HW234605   4.200   0.497   7.467
44258SOL     OW34606  12.132   7.070   8.906
44258SOL    HW134607  12.208   7.109   8.864
44258SOL    HW234608  12.092   7.015   8.838
44259SOL     OW34609   1.965   4.080   7.991
44259SOL    HW134610   2.013   4.144   7.939
44259SOL    HW234611   2.009   4.079   8.076
44260SOL     OW34612   8.718   6.980   8.900
44260SOL    HW134613   8.649   6.943   8.846
44260SOL    HW234614   8.673   7.043   8.956
44261SOL     OW34615   9.661   0.027   8.945
44261SOL    HW134616   9.739   0.064   8.903
44261SOL    HW234617   9.615   0.103   8.982
44262SOL     OW34618  13.195   0.719   4.929
44262SOL    HW134619  13.186   0.677   4.843
44262SOL    HW234620  13.108   0.715   4.967
44263SOL     OW34621  10.619  10.080   5.466
44263SOL    HW134622  10.642  10.054   5.555
44263SOL    HW234623  10.599   9.998   5.421
44264SOL     OW34624  12.928   4.343   6.843
44264SOL    HW134625  12.938   4.366   6.935
44264SOL    HW234626  12.854   4.396   6.813
44265SOL     OW34627   6.324   2.690   4.533
44265SOL    HW134628   6.336   2.752   4.605
44265SOL    HW234629   6.230   2.672   4.533
44266SOL     OW34630   7.997   6.631  10.328
44266SOL    HW134631   7.963   6.592  10.408
44266SOL    HW234632   8.025   6.555  10.275
44267SOL     OW34633   7.953   1.555  13.924
44267SOL    HW134634   8.032   1.552  13.977
44267SOL    HW234635   7.947   1.645  13.894
44268SOL     OW34636   1.870  14.310  13.636
44268SOL    HW134637   1.827  14.309  13.721
44268SOL    HW234638   1.945  14.251  13.646
44269SOL     OW34639   6.920   5.181  14.185
44269SOL    HW134640   6.873   5.098  14.179
44269SOL    HW234641   6.959   5.193  14.099
44270SOL     OW34642   4.126  14.082   4.120
44270SOL    HW134643   4.084  14.039   4.045
44270SOL    HW234644   4.218  14.089   4.096
44271SOL     OW34645  13.372   4.067   8.639
44271SOL    HW134646  13.290   4.059   8.591
44271SOL    HW234647  13.436   4.091   8.572
44272SOL     OW34648   7.965   9.965  11.324
44272SOL    HW134649   7.897   9.997  11.383
44272SOL    HW234650   7.926   9.970  11.237
44273SOL     OW34651   3.741   5.509   9.701
44273SOL    HW134652   3.658   5.530   9.745
44273SOL    HW234653   3.798   5.582   9.722
44274SOL     OW34654   9.392   4.540  11.714
44274SOL    HW134655   9.392   4.491  11.797
44274SOL    HW234656   9.485   4.554  11.695
44275SOL     OW34657   9.840   0.953  12.193
44275SOL    HW134658   9.820   1.044  12.217
44275SOL    HW234659   9.935   0.947  12.198
44276SOL     OW34660   4.072  10.483   3.857
44276SOL    HW134661   3.993  10.436   3.832
44276SOL    HW234662   4.108  10.433   3.931
44277SOL     OW34663   2.924   5.239  13.759
44277SOL    HW134664   2.956   5.302  13.823
44277SOL    HW234665   2.995   5.176  13.749
44278SOL     OW34666   9.018   0.516  10.642
44278SOL    HW134667   8.968   0.482  10.716
44278SOL    HW234668   9.104   0.475  10.651
44279SOL     OW34669   3.147   3.085   3.463
44279SOL    HW134670   3.070   3.090   3.519
44279SOL    HW234671   3.205   3.023   3.507
44280SOL     OW34672  12.783   8.289  11.154
44280SOL    HW134673  12.712   8.338  11.114
44280SOL    HW234674  12.780   8.313  11.247
44281SOL     OW34675   9.087   1.932   8.708
44281SOL    HW134676   9.074   1.866   8.639
44281SOL    HW234677   9.003   1.936   8.753
44282SOL     OW34678  11.289   2.571   2.053
44282SOL    HW134679  11.368   2.519   2.068
44282SOL    HW234680  11.233   2.552   2.127
44283SOL     OW34681   4.526  13.522   8.220
44283SOL    HW134682   4.531  13.532   8.315
44283SOL    HW234683   4.435  13.544   8.198
44284SOL     OW34684  14.023   0.355  12.417
44284SOL    HW134685  13.932   0.347  12.389
44284SOL    HW234686  14.073   0.310  12.349
44285SOL     OW34687  14.876   4.266   6.651
44285SOL    HW134688  14.817   4.226   6.715
44285SOL    HW234689   0.016   4.195   6.589
44286SOL     OW34690   5.460   2.248   4.728
44286SOL    HW134691   5.390   2.197   4.769
44286SOL    HW234692   5.466   2.214   4.639
44287SOL     OW34693   5.982  14.530   6.853
44287SOL    HW134694   6.060  14.582   6.835
44287SOL    HW234695   5.960  14.551   6.943
44288SOL     OW34696   9.502   2.760  11.921
44288SOL    HW134697   9.434   2.696  11.943
44288SOL    HW234698   9.467   2.844  11.952
44289SOL     OW34699   1.308  12.148   2.521
44289SOL    HW134700   1.347  12.212   2.461
44289SOL    HW234701   1.383  12.100   2.556
44290SOL     OW34702   8.363  11.864  14.715
44290SOL    HW134703   8.267  11.864  14.718
44290SOL    HW234704   8.387  11.951  14.745
44291SOL     OW34705   5.160   0.019   0.932
44291SOL    HW134706   5.233   0.062   0.976
44291SOL    HW234707   5.201  14.852   0.858
44292SOL     OW34708   3.943  12.257  14.333
44292SOL    HW134709   3.941  12.307  14.415
44292SOL    HW234710   3.885  12.183  14.349
44293SOL     OW34711  10.658   6.238   5.822
44293SOL    HW134712  10.598   6.190   5.766
44293SOL    HW234713  10.726   6.270   5.764
44294SOL     OW34714   7.438   1.439  11.233
44294SOL    HW134715   7.376   1.437  11.160
44294SOL    HW234716   7.447   1.347  11.259
44295SOL     OW34717   5.794   4.555   0.138
44295SOL    HW134718   5.779   4.638   0.183
44295SOL    HW234719   5.883   4.562   0.103
44296SOL     OW34720  10.355  14.087  11.097
44296SOL    HW134721  10.410  14.037  11.157
44296SOL    HW234722  10.268  14.047  11.106
44297SOL     OW34723  12.868   4.028  11.842
44297SOL    HW134724  12.928   4.023  11.768
44297SOL    HW234725  12.835   3.939  11.853
44298SOL     OW34726   3.887   4.831  14.390
44298SOL    HW134727   3.826   4.893  14.349
44298SOL    HW234728   3.966   4.836  14.336
44299SOL     OW34729  14.199  10.803   6.984
44299SOL    HW134730  14.287  10.786   7.019
44299SOL    HW234731  14.172  10.719   6.946
44300SOL     OW34732   2.355   4.199   3.851
44300SOL    HW134733   2.429   4.237   3.802
44300SOL    HW234734   2.286   4.190   3.786
44301SOL     OW34735   1.460   9.506   6.259
44301SOL    HW134736   1.518   9.433   6.279
44301SOL    HW234737   1.491   9.540   6.174
44302SOL     OW34738   5.029   2.073  10.348
44302SOL    HW134739   4.967   2.054  10.419
44302SOL    HW234740   5.044   2.168  10.355
44303SOL     OW34741   5.803   0.223   9.705
44303SOL    HW134742   5.804   0.311   9.743
44303SOL    HW234743   5.861   0.229   9.629
44304SOL     OW34744   1.413   4.633  14.068
44304SOL    HW134745   1.363   4.711  14.095
44304SOL    HW234746   1.364   4.599  13.993
44305SOL     OW34747   0.773   6.318   4.172
44305SOL    HW134748   0.718   6.395   4.164
44305SOL    HW234749   0.819   6.312   4.089
44306SOL     OW34750   7.678   9.942  14.721
44306SOL    HW134751   7.666  10.003  14.648
44306SOL    HW234752   7.600   9.952  14.774
44307SOL     OW34753  13.151   4.247  10.904
44307SOL    HW134754  13.195   4.286  10.828
44307SOL    HW234755  13.177   4.155  10.901
44308SOL     OW34756   3.544   2.492   1.363
44308SOL    HW134757   3.562   2.429   1.433
44308SOL    HW234758   3.571   2.577   1.399
44309SOL     OW34759   4.585  13.331  13.891
44309SOL    HW134760   4.590  13.418  13.850
44309SOL    HW234761   4.505  13.293  13.856
44310SOL     OW34762   3.961   9.924   1.856
44310SOL    HW134763   3.929   9.935   1.945
44310SOL    HW234764   3.900   9.976   1.802
44311SOL     OW34765   1.044   3.430   7.900
44311SOL    HW134766   1.070   3.424   7.992
44311SOL    HW234767   0.949   3.424   7.902
44312SOL     OW34768   9.824   6.592  14.363
44312SOL    HW134769   9.791   6.522  14.307
44312SOL    HW234770   9.918   6.575  14.371
44313SOL     OW34771   1.268  12.104   7.800
44313SOL    HW134772   1.224  12.019   7.790
44313SOL    HW234773   1.321  12.113   7.720
44314SOL     OW34774   7.120   8.542   2.658
44314SOL    HW134775   7.148   8.488   2.732
44314SOL    HW234776   7.137   8.632   2.686
44315SOL     OW34777  11.401   8.759  12.680
44315SOL    HW134778  11.406   8.837  12.735
44315SOL    HW234779  11.477   8.765  12.623
44316SOL     OW34780  14.835  12.201   0.764
44316SOL    HW134781  14.832  12.282   0.814
44316SOL    HW234782  14.747  12.165   0.771
44317SOL     OW34783   6.047   1.014  11.630
44317SOL    HW134784   6.064   1.088  11.688
44317SOL    HW234785   6.086   1.039  11.547
44318SOL     OW34786   3.180   0.561   0.686
44318SOL    HW134787   3.146   0.550   0.597
44318SOL    HW234788   3.102   0.567   0.741
44319SOL     OW34789   8.381   3.585   8.792
44319SOL    HW134790   8.293   3.569   8.825
44319SOL    HW234791   8.416   3.497   8.774
44320SOL     OW34792  12.699  13.315   8.868
44320SOL    HW134793  12.684  13.392   8.923
44320SOL    HW234794  12.767  13.266   8.912
44321SOL     OW34795  10.908  13.596   3.305
44321SOL    HW134796  10.840  13.528   3.300
44321SOL    HW234797  10.978  13.556   3.357
44322SOL     OW34798   7.435   4.159   8.618
44322SOL    HW134799   7.381   4.207   8.680
44322SOL    HW234800   7.375   4.132   8.548
44323SOL     OW34801   0.516   2.884   1.849
44323SOL    HW134802   0.556   2.867   1.935
44323SOL    HW234803   0.555   2.817   1.792
44324SOL     OW34804   5.560   2.053  10.763
44324SOL    HW134805   5.545   1.988  10.831
44324SOL    HW234806   5.556   2.004  10.681
44325SOL     OW34807   9.830   4.520  12.245
44325SOL    HW134808   9.840   4.614  12.234
44325SOL    HW234809   9.874   4.500  12.327
44326SOL     OW34810   0.606   8.613   9.264
44326SOL    HW134811   0.577   8.654   9.346
44326SOL    HW234812   0.686   8.567   9.288
44327SOL     OW34813  12.901  11.674   3.040
44327SOL    HW134814  12.848  11.595   3.030
44327SOL    HW234815  12.880  11.706   3.128
44328SOL     OW34816  11.783  10.805   9.028
44328SOL    HW134817  11.790  10.792   8.933
44328SOL    HW234818  11.743  10.725   9.061
44329SOL     OW34819  14.775   7.717  10.413
44329SOL    HW134820  14.780   7.806  10.379
44329SOL    HW234821  14.695   7.681  10.375
44330SOL     OW34822  12.848   9.011  14.693
44330SOL    HW134823  12.814   8.967  14.770
44330SOL    HW234824  12.786   9.083  14.677
44331SOL     OW34825   4.277   3.250  13.756
44331SOL    HW134826   4.330   3.297  13.692
44331SOL    HW234827   4.195   3.230  13.710
44332SOL     OW34828  10.026   2.968  11.747
44332SOL    HW134829   9.990   2.913  11.677
44332SOL    HW234830  10.116   2.986  11.719
44333SOL     OW34831  13.619  14.493   1.646
44333SOL    HW134832  13.687  14.454   1.592
44333SOL    HW234833  13.630  14.587   1.634
44334SOL     OW34834   4.400  11.480   8.813
44334SOL    HW134835   4.309  11.451   8.808
44334SOL    HW234836   4.450  11.412   8.768
44335SOL     OW34837   8.448  11.691  12.027
44335SOL    HW134838   8.436  11.779  12.062
44335SOL    HW234839   8.382  11.638  12.071
44336SOL     OW34840  12.173   4.492   2.785
44336SOL    HW134841  12.241   4.444   2.736
44336SOL    HW234842  12.156   4.570   2.733
44337SOL     OW34843   6.159   5.608   7.460
44337SOL    HW134844   6.069   5.631   7.480
44337SOL    HW234845   6.205   5.693   7.455
44338SOL     OW34846  10.818  13.689   4.532
44338SOL    HW134847  10.729  13.689   4.567
44338SOL    HW234848  10.837  13.781   4.513
44339SOL     OW34849   8.427  13.193   5.545
44339SOL    HW134850   8.418  13.230   5.633
44339SOL    HW234851   8.418  13.268   5.487
44340SOL     OW34852   4.248  14.168  11.416
44340SOL    HW134853   4.320  14.108  11.398
44340SOL    HW234854   4.291  14.246  11.453
44341SOL     OW34855  13.234   1.923   7.423
44341SOL    HW134856  13.231   1.871   7.342
44341SOL    HW234857  13.325   1.917   7.451
44342SOL     OW34858  10.205   6.998   6.310
44342SOL    HW134859  10.286   7.019   6.264
44342SOL    HW234860  10.214   6.905   6.332
44343SOL     OW34861  12.171  13.407   2.522
44343SOL    HW134862  12.247  13.430   2.469
44343SOL    HW234863  12.126  13.491   2.536
44344SOL     OW34864   7.885   1.899   6.159
44344SOL    HW134865   7.811   1.941   6.202
44344SOL    HW234866   7.847   1.855   6.083
44345SOL     OW34867  12.502   1.635  13.523
44345SOL    HW134868  12.551   1.668  13.598
44345SOL    HW234869  12.467   1.713  13.480
44346SOL     OW34870   8.596  13.716   9.772
44346SOL    HW134871   8.682  13.752   9.749
44346SOL    HW234872   8.555  13.783   9.825
44347SOL     OW34873   9.649   3.963   2.295
44347SOL    HW134874   9.704   3.887   2.314
44347SOL    HW234875   9.605   3.983   2.378
44348SOL     OW34876   2.417   5.588  13.216
44348SOL    HW134877   2.449   5.501  13.189
44348SOL    HW234878   2.415   5.584  13.311
44349SOL     OW34879   4.914  12.626  10.910
44349SOL    HW134880   4.819  12.637  10.908
44349SOL    HW234881   4.934  12.609  11.002
44350SOL     OW34882  14.039   6.298   5.795
44350SOL    HW134883  13.962   6.350   5.771
44350SOL    HW234884  14.093   6.358   5.846
44351SOL     OW34885   9.148   5.234   1.811
44351SOL    HW134886   9.235   5.213   1.776
44351SOL    HW234887   9.093   5.245   1.733
44352SOL     OW34888   9.636   0.172  12.852
44352SOL    HW134889   9.651   0.100  12.791
44352SOL    HW234890   9.662   0.136  12.937
44353SOL     OW34891  11.714   0.297   3.100
44353SOL    HW134892  11.740   0.341   3.018
44353SOL    HW234893  11.778   0.327   3.164
44354SOL     OW34894   4.246  10.840  11.801
44354SOL    HW134895   4.247  10.863  11.708
44354SOL    HW234896   4.303  10.763  11.807
44355SOL     OW34897   8.582  11.360   4.328
44355SOL    HW134898   8.621  11.303   4.395
44355SOL    HW234899   8.600  11.316   4.245
44356SOL     OW34900   2.256  14.356   9.093
44356SOL    HW134901   2.234  14.353   9.186
44356SOL    HW234902   2.180  14.318   9.049
44357SOL     OW34903   8.596   9.506   7.064
44357SOL    HW134904   8.611   9.600   7.064
44357SOL    HW234905   8.511   9.495   7.021
44358SOL     OW34906  13.083  11.583  14.407
44358SOL    HW134907  13.065  11.621  14.321
44358SOL    HW234908  13.173  11.610  14.426
44359SOL     OW34909   5.823   3.415   9.680
44359SOL    HW134910   5.819   3.321   9.665
44359SOL    HW234911   5.737   3.448   9.652
44360SOL     OW34912   2.536   8.528   2.345
44360SOL    HW134913   2.566   8.613   2.375
44360SOL    HW234914   2.441   8.530   2.357
44361SOL     OW34915  13.803   3.639  10.388
44361SOL    HW134916  13.805   3.574  10.459
44361SOL    HW234917  13.891   3.637  10.350
44362SOL     OW34918  12.190  13.479  11.465
44362SOL    HW134919  12.160  13.533  11.392
44362SOL    HW234920  12.248  13.536  11.516
44363SOL     OW34921   4.621   2.923  14.281
44363SOL    HW134922   4.674   2.916  14.202
44363SOL    HW234923   4.622   2.834  14.318
44364SOL     OW34924   5.356   1.956   5.974
44364SOL    HW134925   5.338   1.867   5.942
44364SOL    HW234926   5.322   2.014   5.906
44365SOL     OW34927   3.288  12.836   9.588
44365SOL    HW134928   3.350  12.767   9.611
44365SOL    HW234929   3.228  12.839   9.663
44366SOL     OW34930  13.844   6.332   1.296
44366SOL    HW134931  13.916   6.288   1.339
44366SOL    HW234932  13.770   6.272   1.304
44367SOL     OW34933  10.338   3.862   4.601
44367SOL    HW134934  10.255   3.815   4.595
44367SOL    HW234935  10.321   3.946   4.557
44368SOL     OW34936   7.141   6.890   4.020
44368SOL    HW134937   7.208   6.941   3.976
44368SOL    HW234938   7.077   6.870   3.951
44369SOL     OW34939   7.520   1.291   3.606
44369SOL    HW134940   7.601   1.333   3.578
44369SOL    HW234941   7.452   1.333   3.554
44370SOL     OW34942   7.328  14.615   7.999
44370SOL    HW134943   7.299  14.696   8.039
44370SOL    HW234944   7.279  14.608   7.917
44371SOL     OW34945   6.929   4.542   3.994
44371SOL    HW134946   6.969   4.588   4.068
44371SOL    HW234947   6.857   4.599   3.966
44372SOL     OW34948  14.729  10.309   5.435
44372SOL    HW134949  14.775  10.291   5.517
44372SOL    HW234950  14.782  10.265   5.368
44373SOL     OW34951  13.874   4.460  10.350
44373SOL    HW134952  13.791   4.507  10.345
44373SOL    HW234953  13.850   4.372  10.381
44374SOL     OW34954   7.343  11.954   0.707
44374SOL    HW134955   7.411  11.994   0.652
44374SOL    HW234956   7.299  12.028   0.748
44375SOL     OW34957  13.437   6.749   4.324
44375SOL    HW134958  13.528   6.769   4.347
44375SOL    HW234959  13.404   6.830   4.284
44376SOL     OW34960  12.653   9.832  13.303
44376SOL    HW134961  12.649   9.741  13.332
44376SOL    HW234962  12.655   9.827  13.207
44377SOL     OW34963   0.631   6.349   4.946
44377SOL    HW134964   0.583   6.415   4.896
44377SOL    HW234965   0.681   6.301   4.881
44378SOL     OW34966   6.468  13.045   7.795
44378SOL    HW134967   6.499  13.083   7.713
44378SOL    HW234968   6.388  13.094   7.815
44379SOL     OW34969   6.545   5.954   8.129
44379SOL    HW134970   6.624   5.969   8.078
44379SOL    HW234971   6.513   6.041   8.152
44380SOL     OW34972   0.185   0.028  13.914
44380SOL    HW134973   0.192   0.100  13.851
44380SOL    HW234974   0.092   0.005  13.914
44381SOL     OW34975   6.843   8.041   4.657
44381SOL    HW134976   6.932   8.030   4.690
44381SOL    HW234977   6.851   8.108   4.589
44382SOL     OW34978   6.829   1.259  11.156
44382SOL    HW134979   6.914   1.271  11.198
44382SOL    HW234980   6.811   1.343  11.114
44383SOL     OW34981  11.183  10.604   8.133
44383SOL    HW134982  11.150  10.602   8.043
44383SOL    HW234983  11.275  10.578   8.125
44384SOL     OW34984   4.417  13.638   2.984
44384SOL    HW134985   4.458  13.660   2.901
44384SOL    HW234986   4.360  13.564   2.964
44385SOL     OW34987  12.562   0.482   2.907
44385SOL    HW134988  12.546   0.570   2.943
44385SOL    HW234989  12.475   0.449   2.886
44386SOL     OW34990  11.920   3.397   6.922
44386SOL    HW134991  11.843   3.344   6.945
44386SOL    HW234992  11.884   3.472   6.875
44387SOL     OW34993  10.745   5.484   4.225
44387SOL    HW134994  10.694   5.472   4.145
44387SOL    HW234995  10.719   5.411   4.281
44388SOL     OW34996  10.078  10.133   0.628
44388SOL    HW134997  10.107  10.204   0.685
44388SOL    HW234998   9.987  10.155   0.607
44389SOL     OW34999  14.167  12.849  14.176
44389SOL    HW135000  14.072  12.833  14.178
44389SOL    HW235001  14.176  12.944  14.184
44390SOL     OW35002  12.911   6.734   6.969
44390SOL    HW135003  12.942   6.699   6.885
44390SOL    HW235004  12.819   6.708   6.973
44391SOL     OW35005  14.133  12.366  10.745
44391SOL    HW135006  14.148  12.360  10.651
44391SOL    HW235007  14.221  12.364  10.783
44392SOL     OW35008   6.995   2.121   9.926
44392SOL    HW135009   6.951   2.164   9.852
44392SOL    HW235010   6.937   2.049   9.950
44393SOL     OW35011   6.803  11.244  12.272
44393SOL    HW135012   6.831  11.335  12.281
44393SOL    HW235013   6.866  11.206  12.210
44394SOL     OW35014   6.214   6.783   0.457
44394SOL    HW135015   6.127   6.746   0.473
44394SOL    HW235016   6.220   6.858   0.516
44395SOL     OW35017   0.112   1.772  11.272
44395SOL    HW135018   0.131   1.679  11.269
44395SOL    HW235019   0.129   1.803  11.182
44396SOL     OW35020   8.276   5.513   6.721
44396SOL    HW135021   8.351   5.459   6.746
44396SOL    HW235022   8.292   5.534   6.629
44397SOL     OW35023   3.001   7.554   6.245
44397SOL    HW135024   3.004   7.641   6.206
44397SOL    HW235025   3.074   7.507   6.204
44398SOL     OW35026  14.489   6.755   2.544
44398SOL    HW135027  14.524   6.844   2.550
44398SOL    HW235028  14.566   6.699   2.536
44399SOL     OW35029  11.692   4.751  14.249
44399SOL    HW135030  11.746   4.827  14.227
44399SOL    HW235031  11.736   4.711  14.324
44400SOL     OW35032   3.111  14.581   5.439
44400SOL    HW135033   3.124  14.502   5.492
44400SOL    HW235034   3.076  14.646   5.499
44401SOL     OW35035   4.351  12.168  14.286
44401SOL    HW135036   4.284  12.157  14.354
44401SOL    HW235037   4.429  12.126  14.321
44402SOL     OW35038   7.139  12.694   3.399
44402SOL    HW135039   7.062  12.750   3.407
44402SOL    HW235040   7.107  12.615   3.354
44403SOL     OW35041   1.693   0.933   3.776
44403SOL    HW135042   1.696   0.864   3.842
44403SOL    HW235043   1.775   0.982   3.788
44404SOL     OW35044  11.367   5.944  12.674
44404SOL    HW135045  11.331   5.898  12.598
44404SOL    HW235046  11.396   6.028  12.640
44405SOL     OW35047   0.169  12.669  13.267
44405SOL    HW135048   0.146  12.727  13.340
44405SOL    HW235049   0.113  12.592  13.280
44406SOL     OW35050   7.496   1.242  13.366
44406SOL    HW135051   7.476   1.256  13.459
44406SOL    HW235052   7.491   1.329  13.327
44407SOL     OW35053   9.924   9.059  10.588
44407SOL    HW135054   9.945   9.079  10.679
44407SOL    HW235055   9.959   9.132  10.538
44408SOL     OW35056  10.574   3.936   6.259
44408SOL    HW135057  10.624   3.915   6.180
44408SOL    HW235058  10.638   3.979   6.317
44409SOL     OW35059   5.193   7.937   9.320
44409SOL    HW135060   5.265   7.985   9.277
44409SOL    HW235061   5.215   7.939   9.413
44410SOL     OW35062   7.180   4.770   7.402
44410SOL    HW135063   7.204   4.863   7.396
44410SOL    HW235064   7.118   4.757   7.331
44411SOL     OW35065   9.847  13.616  14.793
44411SOL    HW135066   9.879  13.567  14.869
44411SOL    HW235067   9.851  13.707  14.821
44412SOL     OW35068   1.295  12.821   2.444
44412SOL    HW135069   1.277  12.884   2.514
44412SOL    HW235070   1.388  12.834   2.424
44413SOL     OW35071  10.513   2.120   4.027
44413SOL    HW135072  10.498   2.065   3.950
44413SOL    HW235073  10.448   2.191   4.018
44414SOL     OW35074   1.716  11.255   2.724
44414SOL    HW135075   1.716  11.322   2.793
44414SOL    HW235076   1.651  11.286   2.661
44415SOL     OW35077  13.030  12.864  11.638
44415SOL    HW135078  13.012  12.796  11.703
44415SOL    HW235079  13.102  12.828  11.586
44416SOL     OW35080  11.091  11.867   3.627
44416SOL    HW135081  11.092  11.891   3.535
44416SOL    HW235082  11.043  11.938   3.670
44417SOL     OW35083   0.177   9.911   1.706
44417SOL    HW135084   0.230   9.953   1.774
44417SOL    HW235085   0.215   9.824   1.695
44418SOL     OW35086   9.497  12.099   5.719
44418SOL    HW135087   9.444  12.020   5.702
44418SOL    HW235088   9.509  12.138   5.632
44419SOL     OW35089   4.573  11.836  13.192
44419SOL    HW135090   4.518  11.783  13.135
44419SOL    HW235091   4.573  11.923  13.150
44420SOL     OW35092  12.964  13.953   8.597
44420SOL    HW135093  12.994  14.012   8.529
44420SOL    HW235094  13.007  13.870   8.578
44421SOL     OW35095   5.145   0.925   2.818
44421SOL    HW135096   5.104   0.927   2.904
44421SOL    HW235097   5.077   0.958   2.759
44422SOL     OW35098   6.183  13.714  11.802
44422SOL    HW135099   6.207  13.807  11.807
44422SOL    HW235100   6.114  13.710  11.737
44423SOL     OW35101   4.074   7.505   1.455
44423SOL    HW135102   4.157   7.459   1.464
44423SOL    HW235103   4.085   7.561   1.378
44424SOL     OW35104   0.380   6.967  13.921
44424SOL    HW135105   0.450   6.964  13.856
44424SOL    HW235106   0.349   6.876  13.927
44425SOL     OW35107   1.678  14.069   2.161
44425SOL    HW135108   1.583  14.080   2.154
44425SOL    HW235109   1.690  13.977   2.186
44426SOL     OW35110  12.069   0.654  11.609
44426SOL    HW135111  12.038   0.642  11.699
44426SOL    HW235112  11.997   0.622  11.555
44427SOL     OW35113   6.140   7.194   4.849
44427SOL    HW135114   6.060   7.170   4.803
44427SOL    HW235115   6.121   7.278   4.890
44428SOL     OW35116   9.564   6.015   5.122
44428SOL    HW135117   9.648   6.030   5.079
44428SOL    HW235118   9.506   5.984   5.052
44429SOL     OW35119  11.418   9.520   7.096
44429SOL    HW135120  11.449   9.496   7.184
44429SOL    HW235121  11.325   9.539   7.107
44430SOL     OW35122   8.040  12.528  11.690
44430SOL    HW135123   7.990  12.455  11.726
44430SOL    HW235124   8.072  12.575  11.767
44431SOL     OW35125  12.418  10.807   1.345
44431SOL    HW135126  12.482  10.815   1.415
44431SOL    HW235127  12.450  10.735   1.291
44432SOL     OW35128   4.939   3.987   4.276
44432SOL    HW135129   4.861   3.974   4.331
44432SOL    HW235130   4.952   3.902   4.233
44433SOL     OW35131  10.211   2.832   2.825
44433SOL    HW135132  10.200   2.833   2.730
44433SOL    HW235133  10.157   2.760   2.855
44434SOL     OW35134   1.573   5.708   8.359
44434SOL    HW135135   1.665   5.722   8.338
44434SOL    HW235136   1.539   5.796   8.378
44435SOL     OW35137   3.181   2.592   4.426
44435SOL    HW135138   3.179   2.523   4.492
44435SOL    HW235139   3.199   2.547   4.344
44436SOL     OW35140  10.767   8.839   8.626
44436SOL    HW135141  10.724   8.857   8.542
44436SOL    HW235142  10.695   8.822   8.687
44437SOL     OW35143   7.751   8.242   3.193
44437SOL    HW135144   7.771   8.281   3.278
44437SOL    HW235145   7.836   8.233   3.150
44438SOL     OW35146   2.568   6.792  13.220
44438SOL    HW135147   2.575   6.698  13.240
44438SOL    HW235148   2.496   6.822  13.274
44439SOL     OW35149   5.695  10.900   0.254
44439SOL    HW135150   5.733  10.890   0.341
44439SOL    HW235151   5.767  10.931   0.199
44440SOL     OW35152   1.423  14.526   2.649
44440SOL    HW135153   1.464  14.544   2.734
44440SOL    HW235154   1.364  14.599   2.635
44441SOL     OW35155   8.447   1.679   7.170
44441SOL    HW135156   8.419   1.631   7.093
44441SOL    HW235157   8.531   1.639   7.195
44442SOL     OW35158   6.736  11.942   6.525
44442SOL    HW135159   6.679  11.865   6.534
44442SOL    HW235160   6.807  11.912   6.468
44443SOL     OW35161  12.972   6.579   2.729
44443SOL    HW135162  12.996   6.552   2.818
44443SOL    HW235163  12.967   6.675   2.734
44444SOL     OW35164   6.381  10.611   1.390
44444SOL    HW135165   6.410  10.677   1.452
44444SOL    HW235166   6.289  10.595   1.412
44445SOL     OW35167   9.044   4.360  12.687
44445SOL    HW135168   9.087   4.278  12.663
44445SOL    HW235169   8.974   4.334  12.747
44446SOL     OW35170   1.327   4.197   1.011
44446SOL    HW135171   1.371   4.278   0.988
44446SOL    HW235172   1.392   4.128   0.992
44447SOL     OW35173   5.826   0.848   0.429
44447SOL    HW135174   5.883   0.911   0.385
44447SOL    HW235175   5.813   0.885   0.517
44448SOL     OW35176  13.230   4.932  11.816
44448SOL    HW135177  13.237   4.843  11.781
44448SOL    HW235178  13.266   4.927  11.904
44449SOL     OW35179   9.898   4.537  12.509
44449SOL    HW135180   9.942   4.573  12.586
44449SOL    HW235181   9.814   4.583  12.506
44450SOL     OW35182  11.199  10.952  13.338
44450SOL    HW135183  11.137  11.019  13.309
44450SOL    HW235184  11.274  10.961  13.278
44451SOL     OW35185   9.475  11.692   9.028
44451SOL    HW135186   9.444  11.617   9.079
44451SOL    HW235187   9.422  11.691   8.949
44452SOL     OW35188   5.379  13.023   4.475
44452SOL    HW135189   5.342  12.940   4.446
44452SOL    HW235190   5.326  13.049   4.550
44453SOL     OW35191  12.936   3.391   0.559
44453SOL    HW135192  13.007   3.440   0.518
44453SOL    HW235193  12.884   3.458   0.604
44454SOL     OW35194   9.615  11.536   3.656
44454SOL    HW135195   9.703  11.558   3.686
44454SOL    HW235196   9.575  11.490   3.730
44455SOL     OW35197   6.082   4.358   0.646
44455SOL    HW135198   5.999   4.402   0.662
44455SOL    HW235199   6.115   4.398   0.565
44456SOL     OW35200   8.868   3.979   3.521
44456SOL    HW135201   8.873   4.071   3.547
44456SOL    HW235202   8.795   3.943   3.571
44457SOL     OW35203  10.977  12.649   3.683
44457SOL    HW135204  10.908  12.661   3.747
44457SOL    HW235205  10.943  12.583   3.623
44458SOL     OW35206   7.023   5.092   6.058
44458SOL    HW135207   7.040   5.064   6.147
44458SOL    HW235208   6.984   5.015   6.016
44459SOL     OW35209  10.942   8.816   5.108
44459SOL    HW135210  11.034   8.794   5.124
44459SOL    HW235211  10.940   8.848   5.017
44460SOL     OW35212  10.008  11.079   0.741
44460SOL    HW135213   9.982  11.127   0.663
44460SOL    HW235214   9.960  10.996   0.735
44461SOL     OW35215  11.860   4.592  14.041
44461SOL    HW135216  11.916   4.631  14.108
44461SOL    HW235217  11.774   4.587  14.082
44462SOL     OW35218   2.752   1.175   7.831
44462SOL    HW135219   2.657   1.175   7.824
44462SOL    HW235220   2.774   1.089   7.866
44463SOL     OW35221  11.288   9.834   6.965
44463SOL    HW135222  11.335   9.769   6.912
44463SOL    HW235223  11.342   9.844   7.043
44464SOL     OW35224   7.562   2.008   0.820
44464SOL    HW135225   7.531   1.931   0.868
44464SOL    HW235226   7.634   1.976   0.767
44465SOL     OW35227  14.684   0.195   3.125
44465SOL    HW135228  14.704   0.250   3.049
44465SOL    HW235229  14.642   0.117   3.088
44466SOL     OW35230   2.524  12.026   6.858
44466SOL    HW135231   2.559  11.945   6.821
44466SOL    HW235232   2.477  11.998   6.936
44467SOL     OW35233   4.974  11.340   0.658
44467SOL    HW135234   4.952  11.249   0.676
44467SOL    HW235235   4.901  11.390   0.696
44468SOL     OW35236  11.729  12.766  13.545
44468SOL    HW135237  11.725  12.687  13.492
44468SOL    HW235238  11.759  12.736  13.630
44469SOL     OW35239   4.452   2.548  13.161
44469SOL    HW135240   4.382   2.595  13.117
44469SOL    HW235241   4.530   2.563  13.108
44470SOL     OW35242   5.213  12.427  10.963
44470SOL    HW135243   5.224  12.522  10.960
44470SOL    HW235244   5.298  12.394  10.991
44471SOL     OW35245   7.280   6.282   7.898
44471SOL    HW135246   7.306   6.191   7.887
44471SOL    HW235247   7.356   6.324   7.939
44472SOL     OW35248   5.635   7.668   1.947
44472SOL    HW135249   5.696   7.608   1.903
44472SOL    HW235250   5.685   7.703   2.020
44473SOL     OW35251  13.093   4.147   2.153
44473SOL    HW135252  13.007   4.122   2.119
44473SOL    HW235253  13.118   4.075   2.210
44474SOL     OW35254   4.346   2.807  12.803
44474SOL    HW135255   4.403   2.732  12.787
44474SOL    HW235256   4.297   2.818  12.722
44475SOL     OW35257   6.927  12.247   4.045
44475SOL    HW135258   6.859  12.235   3.979
44475SOL    HW235259   7.000  12.192   4.016
44476SOL     OW35260  14.620   4.433  11.545
44476SOL    HW135261  14.689   4.473  11.491
44476SOL    HW235262  14.546   4.425  11.485
44477SOL     OW35263   4.221   3.631   5.796
44477SOL    HW135264   4.283   3.704   5.803
44477SOL    HW235265   4.143   3.670   5.757
44478SOL     OW35266   3.273  14.789   4.881
44478SOL    HW135267   3.253  14.797   4.787
44478SOL    HW235268   3.368  14.781   4.885
44479SOL     OW35269   6.592   6.149  14.475
44479SOL    HW135270   6.512   6.099  14.460
44479SOL    HW235271   6.585   6.180  14.565
44480SOL     OW35272   3.895   2.759   7.043
44480SOL    HW135273   3.937   2.714   6.969
44480SOL    HW235274   3.846   2.831   7.003
44481SOL     OW35275   2.923  11.375   1.513
44481SOL    HW135276   3.010  11.414   1.506
44481SOL    HW235277   2.864  11.450   1.521
44482SOL     OW35278   3.468   6.751  13.839
44482SOL    HW135279   3.470   6.847  13.839
44482SOL    HW235280   3.484   6.727  13.748
44483SOL     OW35281  14.010   2.203   6.110
44483SOL    HW135282  14.101   2.191   6.134
44483SOL    HW235283  13.962   2.141   6.165
44484SOL     OW35284  11.297  11.144   7.466
44484SOL    HW135285  11.234  11.072   7.465
44484SOL    HW235286  11.269  11.201   7.394
44485SOL     OW35287  11.545   4.221   6.168
44485SOL    HW135288  11.608   4.165   6.212
44485SOL    HW235289  11.565   4.212   6.075
44486SOL     OW35290  11.952   5.884  10.300
44486SOL    HW135291  11.976   5.820  10.368
44486SOL    HW235292  12.036   5.918  10.269
44487SOL     OW35293  10.241  11.312  13.807
44487SOL    HW135294  10.267  11.235  13.756
44487SOL    HW235295  10.315  11.330  13.864
44488SOL     OW35296   2.332   0.300   2.715
44488SOL    HW135297   2.321   0.371   2.779
44488SOL    HW235298   2.260   0.313   2.652
44489SOL     OW35299  12.808   0.756   4.649
44489SOL    HW135300  12.848   0.842   4.636
44489SOL    HW235301  12.714   0.772   4.643
44490SOL     OW35302   6.394   3.131   1.551
44490SOL    HW135303   6.470   3.151   1.496
44490SOL    HW235304   6.356   3.217   1.571
44491SOL     OW35305   6.920   2.845   8.946
44491SOL    HW135306   6.863   2.922   8.939
44491SOL    HW235307   7.003   2.880   8.979
44492SOL     OW35308   4.130   0.413   5.793
44492SOL    HW135309   4.174   0.328   5.787
44492SOL    HW235310   4.075   0.418   5.714
44493SOL     OW35311  10.495  10.256  10.189
44493SOL    HW135312  10.441  10.286  10.261
44493SOL    HW235313  10.557  10.327  10.174
44494SOL     OW35314   6.686  12.704   9.401
44494SOL    HW135315   6.697  12.799   9.397
44494SOL    HW235316   6.644  12.681   9.319
44495SOL     OW35317   6.709   1.326  10.882
44495SOL    HW135318   6.767   1.399  10.904
44495SOL    HW235319   6.636   1.335  10.942
44496SOL     OW35320   7.675  11.151   1.623
44496SOL    HW135321   7.583  11.124   1.616
44496SOL    HW235322   7.672  11.231   1.676
44497SOL     OW35323   1.118   7.583   2.739
44497SOL    HW135324   1.097   7.646   2.670
44497SOL    HW235325   1.208   7.556   2.721
44498SOL     OW35326   2.036   8.335  13.937
44498SOL    HW135327   2.032   8.417  13.888
44498SOL    HW235328   2.120   8.296  13.912
44499SOL     OW35329   4.397   4.794   3.599
44499SOL    HW135330   4.302   4.782   3.608
44499SOL    HW235331   4.426   4.812   3.689
44500SOL     OW35332   3.071   2.541  10.053
44500SOL    HW135333   3.062   2.453  10.017
44500SOL    HW235334   3.062   2.530  10.147
44501SOL     OW35335   8.482  12.969   1.017
44501SOL    HW135336   8.485  13.052   0.970
44501SOL    HW235337   8.563  12.967   1.068
44502SOL     OW35338  12.070  12.181  13.159
44502SOL    HW135339  12.066  12.240  13.084
44502SOL    HW235340  12.005  12.217  13.221
44503SOL     OW35341   7.855  10.480  10.747
44503SOL    HW135342   7.807  10.519  10.821
44503SOL    HW235343   7.858  10.549  10.681
44504SOL     OW35344   5.665   1.474   9.354
44504SOL    HW135345   5.737   1.472   9.291
44504SOL    HW235346   5.586   1.483   9.300
44505SOL     OW35347   2.953  12.950   7.655
44505SOL    HW135348   3.008  12.998   7.593
44505SOL    HW235349   3.008  12.877   7.684
44506SOL     OW35350   4.695   9.988   4.867
44506SOL    HW135351   4.674  10.000   4.774
44506SOL    HW235352   4.783  10.025   4.876
44507SOL     OW35353   1.436  12.993   9.453
44507SOL    HW135354   1.393  12.977   9.369
44507SOL    HW235355   1.414  13.083   9.474
44508SOL     OW35356   0.546   9.570  14.159
44508SOL    HW135357   0.485   9.583  14.232
44508SOL    HW235358   0.513   9.627  14.089
44509SOL     OW35359  12.124  11.429   0.968
44509SOL    HW135360  12.062  11.409   1.039
44509SOL    HW235361  12.184  11.355   0.968
44510SOL     OW35362   0.218  11.767   2.418
44510SOL    HW135363   0.280  11.840   2.426
44510SOL    HW235364   0.136  11.808   2.389
44511SOL     OW35365  14.112   2.823   5.989
44511SOL    HW135366  14.153   2.864   5.912
44511SOL    HW235367  14.019   2.845   5.981
44512SOL     OW35368   1.897   2.810  11.882
44512SOL    HW135369   1.865   2.720  11.880
44512SOL    HW235370   1.986   2.803  11.917
44513SOL     OW35371   2.747  12.418  11.977
44513SOL    HW135372   2.683  12.476  12.018
44513SOL    HW235373   2.831  12.447  12.012
44514SOL     OW35374   9.051  10.112   0.152
44514SOL    HW135375   9.111  10.171   0.197
44514SOL    HW235376   9.051  10.141   0.061
44515SOL     OW35377   3.305   4.937  14.351
44515SOL    HW135378   3.302   4.844  14.371
44515SOL    HW235379   3.308   4.980  14.436
44516SOL     OW35380   1.726   8.968   5.741
44516SOL    HW135381   1.662   8.913   5.786
44516SOL    HW235382   1.674   9.019   5.679
44517SOL     OW35383   0.190  10.253  14.018
44517SOL    HW135384   0.115  10.253  13.959
44517SOL    HW235385   0.153  10.273  14.104
44518SOL     OW35386   1.288   3.548   4.141
44518SOL    HW135387   1.207   3.583   4.105
44518SOL    HW235388   1.357   3.589   4.089
44519SOL     OW35389   0.413   4.635   5.301
44519SOL    HW135390   0.467   4.649   5.224
44519SOL    HW235391   0.391   4.542   5.298
44520SOL     OW35392  11.930   9.286   3.143
44520SOL    HW135393  12.021   9.306   3.165
44520SOL    HW235394  11.896   9.366   3.104
44521SOL     OW35395   4.113   7.795   3.890
44521SOL    HW135396   4.183   7.757   3.837
44521SOL    HW235397   4.154   7.812   3.975
44522SOL     OW35398   0.682   6.296   6.738
44522SOL    HW135399   0.606   6.276   6.683
44522SOL    HW235400   0.757   6.271   6.684
44523SOL     OW35401   0.664   6.525   5.220
44523SOL    HW135402   0.608   6.561   5.288
44523SOL    HW235403   0.619   6.546   5.138
44524SOL     OW35404  11.437   8.283  14.518
44524SOL    HW135405  11.374   8.323  14.458
44524SOL    HW235406  11.395   8.288  14.604
44525SOL     OW35407   6.151  10.038   5.102
44525SOL    HW135408   6.107   9.953   5.107
44525SOL    HW235409   6.228  10.022   5.047
44526SOL     OW35410   9.435  11.179   6.180
44526SOL    HW135411   9.449  11.256   6.234
44526SOL    HW235412   9.426  11.107   6.243
44527SOL     OW35413   4.221  14.407  13.257
44527SOL    HW135414   4.212  14.468  13.330
44527SOL    HW235415   4.223  14.463  13.179
44528SOL     OW35416  13.305   5.081  13.457
44528SOL    HW135417  13.336   5.170  13.442
44528SOL    HW235418  13.238   5.067  13.390
44529SOL     OW35419   5.141   5.146   3.650
44529SOL    HW135420   5.180   5.173   3.567
44529SOL    HW235421   5.072   5.210   3.667
44530SOL     OW35422  12.147   2.560   6.590
44530SOL    HW135423  12.184   2.527   6.508
44530SOL    HW235424  12.175   2.652   6.594
44531SOL     OW35425  10.851   2.562   0.253
44531SOL    HW135426  10.898   2.578   0.335
44531SOL    HW235427  10.889   2.624   0.191
44532SOL     OW35428   0.200  10.161   4.071
44532SOL    HW135429   0.164  10.094   4.013
44532SOL    HW235430   0.221  10.235   4.013
44533SOL     OW35431  14.080   6.362   3.581
44533SOL    HW135432  14.035   6.285   3.615
44533SOL    HW235433  14.046   6.373   3.492
44534SOL     OW35434   8.978   0.506   6.013
44534SOL    HW135435   8.996   0.416   6.041
44534SOL    HW235436   8.955   0.552   6.094
44535SOL     OW35437   0.663  13.702  14.097
44535SOL    HW135438   0.584  13.653  14.074
44535SOL    HW235439   0.683  13.674  14.187
44536SOL     OW35440   7.549   6.501   5.481
44536SOL    HW135441   7.580   6.541   5.399
44536SOL    HW235442   7.592   6.550   5.550
44537SOL     OW35443   5.727   0.975  12.887
44537SOL    HW135444   5.778   0.902  12.850
44537SOL    HW235445   5.766   1.053  12.849
44538SOL     OW35446   4.471   2.289   2.578
44538SOL    HW135447   4.545   2.234   2.550
44538SOL    HW235448   4.480   2.293   2.673
44539SOL     OW35449   7.822   4.061  13.996
44539SOL    HW135450   7.791   4.014  14.073
44539SOL    HW235451   7.784   4.014  13.922
44540SOL     OW35452   0.023  12.991  13.280
44540SOL    HW135453   0.027  12.926  13.350
44540SOL    HW235454  14.824  12.967  13.230
44541SOL     OW35455   9.883  13.262  10.267
44541SOL    HW135456   9.975  13.249  10.244
44541SOL    HW235457   9.840  13.281  10.183
44542SOL     OW35458   1.063   1.285  11.872
44542SOL    HW135459   1.087   1.360  11.926
44542SOL    HW235460   1.039   1.217  11.935
44543SOL     OW35461   7.457  13.141   0.240
44543SOL    HW135462   7.522  13.127   0.171
44543SOL    HW235463   7.508  13.175   0.313
44544SOL     OW35464   3.494   6.093  12.513
44544SOL    HW135465   3.429   6.023  12.521
44544SOL    HW235466   3.465   6.160  12.575
44545SOL     OW35467   3.205  10.325   1.497
44545SOL    HW135468   3.209  10.229   1.498
44545SOL    HW235469   3.144  10.347   1.567
44546SOL     OW35470   3.949  12.239   4.896
44546SOL    HW135471   4.044  12.247   4.886
44546SOL    HW235472   3.936  12.149   4.928
44547SOL     OW35473   3.819   8.404   0.998
44547SOL    HW135474   3.903   8.361   1.016
44547SOL    HW235475   3.826   8.488   1.043
44548SOL     OW35476  13.571  12.561   1.380
44548SOL    HW135477  13.527  12.639   1.415
44548SOL    HW235478  13.664  12.584   1.380
44549SOL     OW35479   0.600   0.372   7.905
44549SOL    HW135480   0.578   0.420   7.985
44549SOL    HW235481   0.572   0.429   7.834
44550SOL     OW35482   7.899   5.222  10.569
44550SOL    HW135483   7.907   5.290  10.635
44550SOL    HW235484   7.988   5.190  10.555
44551SOL     OW35485   6.287  12.144   3.714
44551SOL    HW135486   6.281  12.224   3.766
44551SOL    HW235487   6.381  12.130   3.703
44552SOL     OW35488   8.331   8.707  13.743
44552SOL    HW135489   8.375   8.657  13.813
44552SOL    HW235490   8.370   8.674  13.662
44553SOL     OW35491   0.570   2.866  10.128
44553SOL    HW135492   0.579   2.813  10.207
44553SOL    HW235493   0.580   2.956  10.158
44554SOL     OW35494  14.020  10.611   6.701
44554SOL    HW135495  14.017  10.613   6.797
44554SOL    HW235496  14.110  10.637   6.680
44555SOL     OW35497   9.685  11.063   7.164
44555SOL    HW135498   9.642  11.030   7.243
44555SOL    HW235499   9.624  11.040   7.093
44556SOL     OW35500   1.087   7.148  13.792
44556SOL    HW135501   1.106   7.121  13.881
44556SOL    HW235502   1.005   7.198  13.800
44557SOL     OW35503   7.134   0.282   3.382
44557SOL    HW135504   7.045   0.298   3.348
44557SOL    HW235505   7.190   0.335   3.325
44558SOL     OW35506  14.158   4.703   1.057
44558SOL    HW135507  14.249   4.700   1.028
44558SOL    HW235508  14.164   4.697   1.153
44559SOL     OW35509  14.052  10.282   3.470
44559SOL    HW135510  13.956  10.285   3.462
44559SOL    HW235511  14.071  10.326   3.552
44560SOL     OW35512   7.122  11.652   7.904
44560SOL    HW135513   7.215  11.673   7.901
44560SOL    HW235514   7.116  11.573   7.957
44561SOL     OW35515  10.050  14.606  13.831
44561SOL    HW135516  10.016  14.681  13.879
44561SOL    HW235517   9.989  14.594  13.758
44562SOL     OW35518   4.756   1.979  10.900
44562SOL    HW135519   4.680   2.021  10.861
44562SOL    HW235520   4.829   2.039  10.882
44563SOL     OW35521  14.093   6.639  12.395
44563SOL    HW135522  14.001   6.633  12.421
44563SOL    HW235523  14.141   6.603  12.469
44564SOL     OW35524   2.013   7.607  13.185
44564SOL    HW135525   2.052   7.689  13.155
44564SOL    HW235526   2.085   7.544  13.185
44565SOL     OW35527  13.160  10.809  13.139
44565SOL    HW135528  13.069  10.781  13.155
44565SOL    HW235529  13.195  10.743  13.079
44566SOL     OW35530   7.453   8.174   6.684
44566SOL    HW135531   7.543   8.187   6.653
44566SOL    HW235532   7.398   8.207   6.613
44567SOL     OW35533   8.001  13.269   4.785
44567SOL    HW135534   7.963  13.254   4.698
44567SOL    HW235535   8.067  13.200   4.794
44568SOL     OW35536   0.919  12.256   7.784
44568SOL    HW135537   0.841  12.283   7.833
44568SOL    HW235538   0.975  12.216   7.850
44569SOL     OW35539  12.189   0.669   5.340
44569SOL    HW135540  12.168   0.578   5.361
44569SOL    HW235541  12.220   0.706   5.422
44570SOL     OW35542  10.720  10.688  10.436
44570SOL    HW135543  10.795  10.635  10.411
44570SOL    HW235544  10.755  10.751  10.500
44571SOL     OW35545  13.289  10.866   4.205
44571SOL    HW135546  13.275  10.910   4.289
44571SOL    HW235547  13.266  10.932   4.140
44572SOL     OW35548   2.162   5.018   4.819
44572SOL    HW135549   2.253   4.989   4.813
44572SOL    HW235550   2.164   5.089   4.883
44573SOL     OW35551   7.065  10.501   0.831
44573SOL    HW135552   7.130  10.479   0.765
44573SOL    HW235553   7.094  10.585   0.866
44574SOL     OW35554   7.683   6.839   3.408
44574SOL    HW135555   7.670   6.887   3.326
44574SOL    HW235556   7.678   6.747   3.383
44575SOL     OW35557   6.257   0.401   6.502
44575SOL    HW135558   6.200   0.466   6.544
44575SOL    HW235559   6.227   0.317   6.536
44576SOL     OW35560   0.729  14.414   4.923
44576SOL    HW135561   0.789  14.467   4.871
44576SOL    HW235562   0.766  14.415   5.011
44577SOL     OW35563  13.718   2.780   4.467
44577SOL    HW135564  13.782   2.770   4.537
44577SOL    HW235565  13.760   2.740   4.390
44578SOL     OW35566   2.898   3.156   1.036
44578SOL    HW135567   2.964   3.126   1.099
44578SOL    HW235568   2.890   3.250   1.053
44579SOL     OW35569  12.163   5.474  12.655
44579SOL    HW135570  12.162   5.394  12.603
44579SOL    HW235571  12.101   5.532  12.612
44580SOL     OW35572   9.434   0.305   3.617
44580SOL    HW135573   9.343   0.276   3.615
44580SOL    HW235574   9.485   0.225   3.630
44581SOL     OW35575  11.607  14.154   0.537
44581SOL    HW135576  11.606  14.143   0.442
44581SOL    HW235577  11.543  14.223   0.554
44582SOL     OW35578  14.786   0.998   7.322
44582SOL    HW135579  14.851   0.993   7.392
44582SOL    HW235580  14.757   0.907   7.311
44583SOL     OW35581  11.402   1.272   5.551
44583SOL    HW135582  11.456   1.237   5.479
44583SOL    HW235583  11.335   1.205   5.565
44584SOL     OW35584   4.889   0.318   5.790
44584SOL    HW135585   4.802   0.281   5.784
44584SOL    HW235586   4.882   0.404   5.748
44585SOL     OW35587   7.854   8.240  14.548
44585SOL    HW135588   7.798   8.204  14.479
44585SOL    HW235589   7.796   8.298  14.597
44586SOL     OW35590   9.827   8.128  11.713
44586SOL    HW135591   9.820   8.217  11.746
44586SOL    HW235592   9.796   8.134  11.622
44587SOL     OW35593   1.738   0.255   6.577
44587SOL    HW135594   1.734   0.235   6.671
44587SOL    HW235595   1.653   0.295   6.558
44588SOL     OW35596   0.867   3.291   3.861
44588SOL    HW135597   0.916   3.336   3.930
44588SOL    HW235598   0.797   3.245   3.906
44589SOL     OW35599  13.253  10.184   1.934
44589SOL    HW135600  13.314  10.116   1.962
44589SOL    HW235601  13.223  10.154   1.848
44590SOL     OW35602   0.345   4.326   7.055
44590SOL    HW135603   0.343   4.413   7.014
44590SOL    HW235604   0.269   4.326   7.113
44591SOL     OW35605  13.615  11.612   6.476
44591SOL    HW135606  13.550  11.595   6.408
44591SOL    HW235607  13.565  11.606   6.558
44592SOL     OW35608  14.629  13.876   4.126
44592SOL    HW135609  14.554  13.888   4.068
44592SOL    HW235610  14.625  13.951   4.186
44593SOL     OW35611   3.105   0.978   4.000
44593SOL    HW135612   3.121   0.900   3.948
44593SOL    HW235613   3.036   1.025   3.953
44594SOL     OW35614   7.111   6.530   9.797
44594SOL    HW135615   7.071   6.479   9.727
44594SOL    HW235616   7.044   6.594   9.822
44595SOL     OW35617  10.271   0.094   7.124
44595SOL    HW135618  10.247   0.166   7.182
44595SOL    HW235619  10.234   0.016   7.165
44596SOL     OW35620  13.059   6.955   7.276
44596SOL    HW135621  13.067   6.924   7.366
44596SOL    HW235622  13.137   6.921   7.232
44597SOL     OW35623   7.020   2.232  12.050
44597SOL    HW135624   6.944   2.245  11.993
44597SOL    HW235625   7.051   2.320  12.070
44598SOL     OW35626   4.255   2.851   2.910
44598SOL    HW135627   4.280   2.938   2.879
44598SOL    HW235628   4.313   2.834   2.984
44599SOL     OW35629   3.943   5.983  14.113
44599SOL    HW135630   4.026   5.989  14.066
44599SOL    HW235631   3.965   6.002  14.204
44600SOL     OW35632  14.733   0.646   1.853
44600SOL    HW135633  14.826   0.661   1.871
44600SOL    HW235634  14.705   0.726   1.809
44601SOL     OW35635  13.610  14.215   9.325
44601SOL    HW135636  13.689  14.268   9.324
44601SOL    HW235637  13.640  14.127   9.348
44602SOL     OW35638  13.841  11.621  11.011
44602SOL    HW135639  13.764  11.661  10.970
44602SOL    HW235640  13.808  11.587  11.095
44603SOL     OW35641   8.729  10.506   9.203
44603SOL    HW135642   8.718  10.414   9.227
44603SOL    HW235643   8.806  10.507   9.146
44604SOL     OW35644  12.701  12.693   9.300
44604SOL    HW135645  12.627  12.665   9.246
44604SOL    HW235646  12.691  12.646   9.382
44605SOL     OW35647  14.453  10.300  13.016
44605SOL    HW135648  14.546  10.319  13.007
44605SOL    HW235649  14.413  10.340  12.939
44606SOL     OW35650   9.778   3.632   2.835
44606SOL    HW135651   9.812   3.692   2.768
44606SOL    HW235652   9.766   3.549   2.789
44607SOL     OW35653   9.300   9.121  12.252
44607SOL    HW135654   9.292   9.199  12.308
44607SOL    HW235655   9.333   9.155  12.169
44608SOL     OW35656   1.181  10.473   5.025
44608SOL    HW135657   1.272  10.483   4.999
44608SOL    HW235658   1.171  10.530   5.101
44609SOL     OW35659   0.060   8.765   9.696
44609SOL    HW135660   0.105   8.690   9.657
44609SOL    HW235661  14.871   8.725   9.751
44610SOL     OW35662   8.540   2.512  13.873
44610SOL    HW135663   8.552   2.601  13.839
44610SOL    HW235664   8.510   2.461  13.797
44611SOL     OW35665  10.339  12.251   1.003
44611SOL    HW135666  10.267  12.235   0.942
44611SOL    HW235667  10.401  12.305   0.954
44612SOL     OW35668   6.163   1.190  10.616
44612SOL    HW135669   6.213   1.270  10.636
44612SOL    HW235670   6.200   1.159  10.533
44613SOL     OW35671  10.700  13.163  10.458
44613SOL    HW135672  10.674  13.072  10.445
44613SOL    HW235673  10.763  13.180  10.389
44614SOL     OW35674  14.082   8.176  10.838
44614SOL    HW135675  14.138   8.116  10.789
44614SOL    HW235676  13.993   8.141  10.827
44615SOL     OW35677   8.185   5.064   5.344
44615SOL    HW135678   8.219   5.112   5.420
44615SOL    HW235679   8.227   5.108   5.269
44616SOL     OW35680  11.730   8.618   4.764
44616SOL    HW135681  11.716   8.552   4.696
44616SOL    HW235682  11.813   8.593   4.805
44617SOL     OW35683   9.203  13.093  11.555
44617SOL    HW135684   9.287  13.091  11.600
44617SOL    HW235685   9.211  13.026  11.487
44618SOL     OW35686  13.269  11.233  12.024
44618SOL    HW135687  13.193  11.176  12.031
44618SOL    HW235688  13.237  11.309  11.975
44619SOL     OW35689   7.214  13.757   5.902
44619SOL    HW135690   7.254  13.843   5.886
44619SOL    HW235691   7.130  13.761   5.856
44620SOL     OW35692   6.965   1.826   5.402
44620SOL    HW135693   6.997   1.745   5.364
44620SOL    HW235694   7.004   1.895   5.349
44621SOL     OW35695   7.717   3.304   1.642
44621SOL    HW135696   7.647   3.318   1.705
44621SOL    HW235697   7.754   3.218   1.665
44622SOL     OW35698   5.955   8.049  11.727
44622SOL    HW135699   5.972   8.106  11.802
44622SOL    HW235700   5.931   7.965  11.766
44623SOL     OW35701   8.333  14.854   8.085
44623SOL    HW135702   8.428  14.845   8.088
44623SOL    HW235703   8.301  14.764   8.087
44624SOL     OW35704  13.121   1.678   6.413
44624SOL    HW135705  13.107   1.769   6.387
44624SOL    HW235706  13.183   1.684   6.486
44625SOL     OW35707  13.896   9.326   8.854
44625SOL    HW135708  13.807   9.361   8.863
44625SOL    HW235709  13.943   9.358   8.931
44626SOL     OW35710   8.961   5.716   2.445
44626SOL    HW135711   9.051   5.735   2.418
44626SOL    HW235712   8.949   5.764   2.526
44627SOL     OW35713   8.956   9.137   5.284
44627SOL    HW135714   8.895   9.209   5.298
44627SOL    HW235715   8.929   9.097   5.201
44628SOL     OW35716  13.908   2.828   0.904
44628SOL    HW135717  13.904   2.759   0.838
44628SOL    HW235718  13.997   2.862   0.897
44629SOL     OW35719  14.128  11.493  11.400
44629SOL    HW135720  14.038  11.503  11.370
44629SOL    HW235721  14.121  11.434  11.475
44630SOL     OW35722   1.202  11.537  14.139
44630SOL    HW135723   1.224  11.621  14.100
44630SOL    HW235724   1.181  11.481  14.065
44631SOL     OW35725   6.756   7.037  10.261
44631SOL    HW135726   6.828   6.982  10.292
44631SOL    HW235727   6.676   6.993  10.291
44632SOL     OW35728  12.204   7.688   8.263
44632SOL    HW135729  12.143   7.618   8.288
44632SOL    HW235730  12.291   7.652   8.282
44633SOL     OW35731   1.385  12.998   4.513
44633SOL    HW135732   1.361  13.089   4.529
44633SOL    HW235733   1.466  13.004   4.461
44634SOL     OW35734  13.901   3.155   4.943
44634SOL    HW135735  13.946   3.198   4.870
44634SOL    HW235736  13.932   3.064   4.941
44635SOL     OW35737   8.623  12.582   8.149
44635SOL    HW135738   8.542  12.533   8.136
44635SOL    HW235739   8.687  12.540   8.092
44636SOL     OW35740  10.508  12.638   7.772
44636SOL    HW135741  10.452  12.575   7.817
44636SOL    HW235742  10.459  12.720   7.773
44637SOL     OW35743  12.994   4.024  13.084
44637SOL    HW135744  12.928   3.955  13.079
44637SOL    HW235745  13.068   3.991  13.034
44638SOL     OW35746  12.910   0.361   0.766
44638SOL    HW135747  12.995   0.394   0.795
44638SOL    HW235748  12.910   0.373   0.671
44639SOL     OW35749   8.381   2.529   2.203
44639SOL    HW135750   8.357   2.549   2.293
44639SOL    HW235751   8.298   2.517   2.157
44640SOL     OW35752   8.917   0.947   1.748
44640SOL    HW135753   9.001   0.936   1.792
44640SOL    HW235754   8.909   1.041   1.734
44641SOL     OW35755  10.288   5.331  10.521
44641SOL    HW135756  10.373   5.322  10.478
44641SOL    HW235757  10.303   5.394  10.592
44642SOL     OW35758  12.679  12.740  10.502
44642SOL    HW135759  12.697  12.693  10.583
44642SOL    HW235760  12.751  12.803  10.495
44643SOL     OW35761  13.127   9.669   2.484
44643SOL    HW135762  13.052   9.727   2.491
44643SOL    HW235763  13.195   9.710   2.537
44644SOL     OW35764   1.270  14.281   4.916
44644SOL    HW135765   1.269  14.338   4.992
44644SOL    HW235766   1.359  14.246   4.913
44645SOL     OW35767   8.459  11.687  14.504
44645SOL    HW135768   8.422  11.726  14.584
44645SOL    HW235769   8.479  11.597  14.528
44646SOL     OW35770  11.336   6.786   7.866
44646SOL    HW135771  11.400   6.731   7.820
44646SOL    HW235772  11.282   6.724   7.915
44647SOL     OW35773   7.681   1.937  12.240
44647SOL    HW135774   7.598   1.914  12.197
44647SOL    HW235775   7.686   1.878  12.315
44648SOL     OW35776   6.192   2.685  13.305
44648SOL    HW135777   6.209   2.633  13.227
44648SOL    HW235778   6.139   2.628  13.361
44649SOL     OW35779  13.306  13.563   8.497
44649SOL    HW135780  13.277  13.586   8.409
44649SOL    HW235781  13.326  13.647   8.538
44650SOL     OW35782   6.791   5.878   1.803
44650SOL    HW135783   6.759   5.955   1.755
44650SOL    HW235784   6.731   5.808   1.779
44651SOL     OW35785  13.508   4.407  13.180
44651SOL    HW135786  13.462   4.490  13.165
44651SOL    HW235787  13.507   4.396  13.275
44652SOL     OW35788   7.772   5.054  14.864
44652SOL    HW135789   7.706   5.120  14.842
44652SOL    HW235790   7.821   5.040  14.782
44653SOL     OW35791   3.777   7.042  14.018
44653SOL    HW135792   3.780   7.076  14.107
44653SOL    HW235793   3.801   6.949  14.026
44654SOL     OW35794   7.489   9.138   9.335
44654SOL    HW135795   7.451   9.068   9.282
44654SOL    HW235796   7.421   9.205   9.337
44655SOL     OW35797   3.929  12.337   2.990
44655SOL    HW135798   3.969  12.318   3.075
44655SOL    HW235799   3.985  12.405   2.952
44656SOL     OW35800  13.488   4.303   8.436
44656SOL    HW135801  13.546   4.359   8.384
44656SOL    HW235802  13.532   4.218   8.438
44657SOL     OW35803   7.732   8.249   6.576
44657SOL    HW135804   7.808   8.298   6.607
44657SOL    HW235805   7.753   8.225   6.486
44658SOL     OW35806  13.297   5.287   2.424
44658SOL    HW135807  13.262   5.200   2.406
44658SOL    HW235808  13.269   5.341   2.350
44659SOL     OW35809  13.196  12.099  12.098
44659SOL    HW135810  13.221  12.021  12.048
44659SOL    HW235811  13.279  12.132  12.133
44660SOL     OW35812   9.962  11.122  14.216
44660SOL    HW135813   9.974  11.217  14.215
44660SOL    HW235814  10.024  11.090  14.150
44661SOL     OW35815   9.875   2.843  11.570
44661SOL    HW135816   9.851   2.779  11.502
44661SOL    HW235817   9.792   2.867  11.610
44662SOL     OW35818   8.221   1.888  12.586
44662SOL    HW135819   8.189   1.957  12.528
44662SOL    HW235820   8.294   1.929  12.633
44663SOL     OW35821   1.311   2.962   0.143
44663SOL    HW135822   1.233   3.006   0.109
44663SOL    HW235823   1.380   2.984   0.080
44664SOL     OW35824   7.098  10.497   8.017
44664SOL    HW135825   7.146  10.565   8.065
44664SOL    HW235826   7.157  10.422   8.015
44665SOL     OW35827  12.417   5.524   9.546
44665SOL    HW135828  12.447   5.442   9.587
44665SOL    HW235829  12.487   5.546   9.484
44666SOL     OW35830  10.617   6.055   3.746
44666SOL    HW135831  10.642   6.052   3.839
44666SOL    HW235832  10.680   5.999   3.702
44667SOL     OW35833   0.269   3.209   5.800
44667SOL    HW135834   0.235   3.194   5.888
44667SOL    HW235835   0.236   3.296   5.776
44668SOL     OW35836   9.887  12.474   6.735
44668SOL    HW135837   9.792  12.471   6.748
44668SOL    HW235838   9.899  12.535   6.662
44669SOL     OW35839   7.001   2.014  10.470
44669SOL    HW135840   6.938   2.082  10.492
44669SOL    HW235841   7.033   2.039  10.383
44670SOL     OW35842  12.574  12.616   4.854
44670SOL    HW135843  12.550  12.669   4.931
44670SOL    HW235844  12.666  12.637   4.839
44671SOL     OW35845   4.003   8.094   6.042
44671SOL    HW135846   3.947   8.169   6.064
44671SOL    HW235847   4.010   8.045   6.125
44672SOL     OW35848  13.524  13.661  13.869
44672SOL    HW135849  13.487  13.708  13.794
44672SOL    HW235850  13.522  13.569  13.843
44673SOL     OW35851  10.378   9.316   4.541
44673SOL    HW135852  10.401   9.395   4.590
44673SOL    HW235853  10.399   9.338   4.450
44674SOL     OW35854  14.578   7.756  12.326
44674SOL    HW135855  14.589   7.821  12.257
44674SOL    HW235856  14.538   7.805  12.398
44675SOL     OW35857  11.580   4.448   1.453
44675SOL    HW135858  11.580   4.527   1.508
44675SOL    HW235859  11.489   4.441   1.422
44676SOL     OW35860  10.766  11.494   4.613
44676SOL    HW135861  10.761  11.398   4.607
44676SOL    HW235862  10.727  11.525   4.531
44677SOL     OW35863  10.062   0.176  12.033
44677SOL    HW135864  10.011   0.123  12.095
44677SOL    HW235865  10.067   0.262  12.075
44678SOL     OW35866   8.311   8.441   7.557
44678SOL    HW135867   8.385   8.424   7.615
44678SOL    HW235868   8.234   8.430   7.613
44679SOL     OW35869   8.500   2.221  11.747
44679SOL    HW135870   8.484   2.252  11.836
44679SOL    HW235871   8.461   2.133  11.745
44680SOL     OW35872   8.570   2.102   5.128
44680SOL    HW135873   8.634   2.111   5.058
44680SOL    HW235874   8.584   2.179   5.184
44681SOL     OW35875   7.188  10.262   5.270
44681SOL    HW135876   7.259  10.234   5.212
44681SOL    HW235877   7.123  10.301   5.211
44682SOL     OW35878   1.731   2.515  12.208
44682SOL    HW135879   1.693   2.431  12.235
44682SOL    HW235880   1.826   2.501  12.214
44683SOL     OW35881   3.776   7.033   7.507
44683SOL    HW135882   3.716   7.101   7.537
44683SOL    HW235883   3.801   6.986   7.587
44684SOL     OW35884  14.245   8.025   9.920
44684SOL    HW135885  14.180   7.958   9.939
44684SOL    HW235886  14.315   8.009   9.983
44685SOL     OW35887  14.742  12.841   1.871
44685SOL    HW135888  14.718  12.932   1.885
44685SOL    HW235889  14.674  12.791   1.914
44686SOL     OW35890   5.666   3.106   3.748
44686SOL    HW135891   5.581   3.078   3.782
44686SOL    HW235892   5.714   3.024   3.736
44687SOL     OW35893   8.869   8.215   6.878
44687SOL    HW135894   8.891   8.251   6.792
44687SOL    HW235895   8.821   8.134   6.858
44688SOL     OW35896  12.310   9.503  11.917
44688SOL    HW135897  12.235   9.487  11.861
44688SOL    HW235898  12.300   9.595  11.945
44689SOL     OW35899   5.581   1.207   2.225
44689SOL    HW135900   5.585   1.144   2.297
44689SOL    HW235901   5.557   1.154   2.149
44690SOL     OW35902   4.489  13.270   6.703
44690SOL    HW135903   4.433  13.345   6.723
44690SOL    HW235904   4.540  13.257   6.784
44691SOL     OW35905   5.666  10.013  13.816
44691SOL    HW135906   5.679  10.101  13.781
44691SOL    HW235907   5.571  10.000  13.814
44692SOL     OW35908  12.816   1.324   8.451
44692SOL    HW135909  12.802   1.393   8.386
44692SOL    HW235910  12.737   1.326   8.505
44693SOL     OW35911   3.917   6.300   4.006
44693SOL    HW135912   3.886   6.273   3.920
44693SOL    HW235913   3.961   6.223   4.041
44694SOL     OW35914  11.005  14.764  10.898
44694SOL    HW135915  10.926  14.780  10.951
44694SOL    HW235916  11.065  14.835  10.923
44695SOL     OW35917   1.059  11.791  11.076
44695SOL    HW135918   1.085  11.760  11.162
44695SOL    HW235919   1.141  11.801  11.027
44696SOL     OW35920   5.343   5.988   5.172
44696SOL    HW135921   5.256   6.021   5.150
44696SOL    HW235922   5.344   5.988   5.268
44697SOL     OW35923  12.192   7.425  11.724
44697SOL    HW135924  12.143   7.367  11.783
44697SOL    HW235925  12.237   7.366  11.664
44698SOL     OW35926   4.400   3.856   4.419
44698SOL    HW135927   4.337   3.886   4.484
44698SOL    HW235928   4.385   3.761   4.413
44699SOL     OW35929   5.797   3.018  13.349
44699SOL    HW135930   5.706   2.993  13.365
44699SOL    HW235931   5.845   2.982  13.423
44700SOL     OW35932  12.448   5.307   5.054
44700SOL    HW135933  12.463   5.383   4.998
44700SOL    HW235934  12.361   5.321   5.091
44701SOL     OW35935  13.758   5.735   9.474
44701SOL    HW135936  13.695   5.737   9.402
44701SOL    HW235937  13.753   5.645   9.507
44702SOL     OW35938  13.249  12.475   9.665
44702SOL    HW135939  13.196  12.451   9.741
44702SOL    HW235940  13.258  12.570   9.671
44703SOL     OW35941  10.054  14.261   1.845
44703SOL    HW135942   9.995  14.210   1.790
44703SOL    HW235943  10.038  14.352   1.819
44704SOL     OW35944   6.833  11.427   0.659
44704SOL    HW135945   6.830  11.379   0.742
44704SOL    HW235946   6.905  11.386   0.611
44705SOL     OW35947   3.174   5.845  10.068
44705SOL    HW135948   3.117   5.792  10.012
44705SOL    HW235949   3.123   5.860  10.148
44706SOL     OW35950   1.661   6.275   3.390
44706SOL    HW135951   1.652   6.200   3.331
44706SOL    HW235952   1.728   6.248   3.453
44707SOL     OW35953   0.063  14.390   1.836
44707SOL    HW135954   0.057  14.432   1.921
44707SOL    HW235955   0.092  14.459   1.776
44708SOL     OW35956   5.027  12.253   8.702
44708SOL    HW135957   4.932  12.252   8.688
44708SOL    HW235958   5.037  12.256   8.797
44709SOL     OW35959  11.391   8.168   4.621
44709SOL    HW135960  11.437   8.162   4.537
44709SOL    HW235961  11.368   8.078   4.642
44710SOL     OW35962   4.191  11.797   4.488
44710SOL    HW135963   4.123  11.810   4.422
44710SOL    HW235964   4.243  11.877   4.486
44711SOL     OW35965  14.473   2.316   0.576
44711SOL    HW135966  14.389   2.284   0.542
44711SOL    HW235967  14.536   2.292   0.508
44712SOL     OW35968   6.961   8.134   3.670
44712SOL    HW135969   7.038   8.183   3.641
44712SOL    HW235970   6.945   8.070   3.600
44713SOL     OW35971  13.071   5.620   8.017
44713SOL    HW135972  13.005   5.639   8.083
44713SOL    HW235973  13.023   5.618   7.934
44714SOL     OW35974  12.079  11.890   2.933
44714SOL    HW135975  12.089  11.819   2.870
44714SOL    HW235976  11.985  11.900   2.944
44715SOL     OW35977  12.670   7.283  11.937
44715SOL    HW135978  12.618   7.329  11.871
44715SOL    HW235979  12.605   7.239  11.992
44716SOL     OW35980  13.081   6.371   3.374
44716SOL    HW135981  12.986   6.372   3.370
44716SOL    HW235982  13.107   6.460   3.351
44717SOL     OW35983  13.777   8.404   1.449
44717SOL    HW135984  13.756   8.333   1.388
44717SOL    HW235985  13.786   8.481   1.392
44718SOL     OW35986  13.650   8.420   3.611
44718SOL    HW135987  13.687   8.433   3.699
44718SOL    HW235988  13.683   8.494   3.560
44719SOL     OW35989   3.306   9.813   5.332
44719SOL    HW135990   3.326   9.723   5.304
44719SOL    HW235991   3.218   9.830   5.297
44720SOL     OW35992   4.840   7.856   3.405
44720SOL    HW135993   4.882   7.852   3.491
44720SOL    HW235994   4.858   7.945   3.374
44721SOL     OW35995  10.450   2.215  10.124
44721SOL    HW135996  10.361   2.183  10.135
44721SOL    HW235997  10.505   2.144  10.158
44722SOL     OW35998   4.751  12.146   2.748
44722SOL    HW135999   4.742  12.226   2.799
44722SOL    HW236000   4.844  12.126   2.750
44723SOL     OW36001  13.106   2.411  14.341
44723SOL    HW136002  13.032   2.379  14.290
44723SOL    HW236003  13.069   2.435  14.425
44724SOL     OW36004   8.085   6.186   2.883
44724SOL    HW136005   8.000   6.207   2.844
44724SOL    HW236006   8.138   6.154   2.809
44725SOL     OW36007  14.256  11.717   2.946
44725SOL    HW136008  14.286  11.629   2.970
44725SOL    HW236009  14.214  11.750   3.026
44726SOL     OW36010   1.393   9.367  12.960
44726SOL    HW136011   1.394   9.362  12.864
44726SOL    HW236012   1.435   9.451  12.980
44727SOL     OW36013   4.902   4.631   6.151
44727SOL    HW136014   4.939   4.673   6.073
44727SOL    HW236015   4.850   4.558   6.117
44728SOL     OW36016   6.564   9.023   1.287
44728SOL    HW136017   6.478   8.986   1.269
44728SOL    HW236018   6.552   9.078   1.364
44729SOL     OW36019   9.365  14.492   6.838
44729SOL    HW136020   9.367  14.474   6.744
44729SOL    HW236021   9.282  14.538   6.852
44730SOL     OW36022   0.112   1.390  13.268
44730SOL    HW136023   0.184   1.345  13.312
44730SOL    HW236024   0.058   1.320  13.232
44731SOL     OW36025   7.119   6.886  13.876
44731SOL    HW136026   7.211   6.889  13.850
44731SOL    HW236027   7.072   6.913  13.797
44732SOL     OW36028   1.505  12.670   3.169
44732SOL    HW136029   1.502  12.575   3.168
44732SOL    HW236030   1.592  12.692   3.134
44733SOL     OW36031   5.840  13.779   2.899
44733SOL    HW136032   5.901  13.749   2.966
44733SOL    HW236033   5.759  13.799   2.947
44734SOL     OW36034   8.324  12.654   4.878
44734SOL    HW136035   8.257  12.600   4.921
44734SOL    HW236036   8.278  12.694   4.804
44735SOL     OW36037   3.696   9.167  12.961
44735SOL    HW136038   3.769   9.166  13.022
44735SOL    HW236039   3.622   9.133  13.011
44736SOL     OW36040   8.604   2.005   4.570
44736SOL    HW136041   8.591   2.017   4.476
44736SOL    HW236042   8.550   1.930   4.592
44737SOL     OW36043  14.195   8.327   9.337
44737SOL    HW136044  14.258   8.261   9.368
44737SOL    HW236045  14.157   8.363   9.417
44738SOL     OW36046   4.427  10.400   3.475
44738SOL    HW136047   4.516  10.366   3.462
44738SOL    HW236048   4.437  10.464   3.545
44739SOL     OW36049  11.181  12.344   3.971
44739SOL    HW136050  11.244  12.316   4.037
44739SOL    HW236051  11.195  12.286   3.896
44740SOL     OW36052   2.618   9.087  12.713
44740SOL    HW136053   2.649   9.145  12.783
44740SOL    HW236054   2.589   9.146  12.644
44741SOL     OW36055  12.786   5.889   4.793
44741SOL    HW136056  12.844   5.965   4.788
44741SOL    HW236057  12.775   5.873   4.887
44742SOL     OW36058  13.465  10.767   9.801
44742SOL    HW136059  13.457  10.804   9.889
44742SOL    HW236060  13.526  10.826   9.755
44743SOL     OW36061   3.605  14.587  13.815
44743SOL    HW136062   3.539  14.634  13.867
44743SOL    HW236063   3.617  14.642  13.737
44744SOL     OW36064   3.776   5.282   9.398
44744SOL    HW136065   3.778   5.270   9.493
44744SOL    HW236066   3.691   5.247   9.371
44745SOL     OW36067   0.429   9.059   2.519
44745SOL    HW136068   0.438   8.981   2.464
44745SOL    HW236069   0.413   9.024   2.607
44746SOL     OW36070  14.698  10.382  12.897
44746SOL    HW136071  14.775  10.376  12.952
44746SOL    HW236072  14.709  10.464  12.849
44747SOL     OW36073  14.246  10.654  12.399
44747SOL    HW136074  14.208  10.640  12.486
44747SOL    HW236075  14.312  10.722  12.412
44748SOL     OW36076   2.484   9.266   1.767
44748SOL    HW136077   2.491   9.316   1.686
44748SOL    HW236078   2.564   9.288   1.816
44749SOL     OW36079  10.031   4.996  12.008
44749SOL    HW136080  10.076   5.008  12.091
44749SOL    HW236081   9.939   5.017  12.027
44750SOL     OW36082   1.520  14.659  11.957
44750SOL    HW136083   1.590  14.666  11.893
44750SOL    HW236084   1.439  14.666  11.906
44751SOL     OW36085  11.963  12.786   4.918
44751SOL    HW136086  12.014  12.813   4.994
44751SOL    HW236087  11.916  12.707   4.947
44752SOL     OW36088   3.339   8.018   7.191
44752SOL    HW136089   3.332   8.005   7.286
44752SOL    HW236090   3.275   7.958   7.154
44753SOL     OW36091   1.854  12.909   1.148
44753SOL    HW136092   1.933  12.907   1.202
44753SOL    HW236093   1.847  12.820   1.112
44754SOL     OW36094   9.672   8.290  12.756
44754SOL    HW136095   9.587   8.257  12.727
44754SOL    HW236096   9.735   8.246  12.699
44755SOL     OW36097   7.637   3.043  11.356
44755SOL    HW136098   7.715   3.087  11.390
44755SOL    HW236099   7.651   3.039  11.261
44756SOL     OW36100   7.647  13.665  14.749
44756SOL    HW136101   7.652  13.659  14.845
44756SOL    HW236102   7.635  13.575  14.719
44757SOL     OW36103   1.873  12.802  14.072
44757SOL    HW136104   1.859  12.896  14.056
44757SOL    HW236105   1.784  12.766  14.078
44758SOL     OW36106  14.154   9.865   0.275
44758SOL    HW136107  14.145   9.956   0.303
44758SOL    HW236108  14.225   9.866   0.211
44759SOL     OW36109   4.980  11.305   3.111
44759SOL    HW136110   5.070  11.284   3.136
44759SOL    HW236111   4.926  11.257   3.174
44760SOL     OW36112   3.361  13.941  14.382
44760SOL    HW136113   3.371  13.988  14.465
44760SOL    HW236114   3.388  13.851  14.402
44761SOL     OW36115   9.949   0.243  13.230
44761SOL    HW136116   9.973   0.211  13.317
44761SOL    HW236117  10.024   0.222  13.175
44762SOL     OW36118  11.608   6.391   4.693
44762SOL    HW136119  11.667   6.337   4.640
44762SOL    HW236120  11.569   6.329   4.755
44763SOL     OW36121   3.370   4.772  11.882
44763SOL    HW136122   3.339   4.699  11.829
44763SOL    HW236123   3.417   4.731  11.955
44764SOL     OW36124   5.663  10.847   5.143
44764SOL    HW136125   5.626  10.929   5.176
44764SOL    HW236126   5.756  10.866   5.129
44765SOL     OW36127   4.390   0.006   0.076
44765SOL    HW136128   4.430   0.093   0.079
44765SOL    HW236129   4.435  14.841   0.004
44766SOL     OW36130  14.406   9.503   7.801
44766SOL    HW136131  14.372   9.438   7.862
44766SOL    HW236132  14.375   9.474   7.715
44767SOL     OW36133   7.833   0.168  13.825
44767SOL    HW136134   7.925   0.180  13.801
44767SOL    HW236135   7.831   0.086  13.874
44768SOL     OW36136   0.082  10.618   0.066
44768SOL    HW136137  14.875  10.652   0.043
44768SOL    HW236138   0.139  10.695   0.064
44769SOL     OW36139   1.875   8.848  11.913
44769SOL    HW136140   1.932   8.789  11.863
44769SOL    HW236141   1.791   8.802  11.916
44770SOL     OW36142  10.295   8.928   1.754
44770SOL    HW136143  10.299   8.972   1.669
44770SOL    HW236144  10.357   8.976   1.809
44771SOL     OW36145   9.643   2.339  14.507
44771SOL    HW136146   9.644   2.303  14.596
44771SOL    HW236147   9.690   2.423  14.515
44772SOL     OW36148   4.947  14.318   8.895
44772SOL    HW136149   4.937  14.395   8.840
44772SOL    HW236150   5.014  14.342   8.959
44773SOL     OW36151  11.976   4.122  12.002
44773SOL    HW136152  11.904   4.171  12.041
44773SOL    HW236153  12.018   4.077  12.076
44774SOL     OW36154   0.014   0.495   8.581
44774SOL    HW136155  14.857   0.530   8.662
44774SOL    HW236156   0.065   0.567   8.544
44775SOL     OW36157   3.846   2.028   4.618
44775SOL    HW136158   3.830   2.113   4.661
44775SOL    HW236159   3.767   2.012   4.567
44776SOL     OW36160  10.100   3.863   3.959
44776SOL    HW136161  10.017   3.908   3.976
44776SOL    HW236162  10.167   3.927   3.984
44777SOL     OW36163   0.299  13.247   9.937
44777SOL    HW136164   0.363  13.219  10.002
44777SOL    HW236165   0.214  13.228   9.976
44778SOL     OW36166   1.730   5.604   9.595
44778SOL    HW136167   1.706   5.512   9.603
44778SOL    HW236168   1.665   5.641   9.535
44779SOL     OW36169   6.390   4.376  14.141
44779SOL    HW136170   6.327   4.383  14.213
44779SOL    HW236171   6.475   4.391  14.183
44780SOL     OW36172   0.850  12.771  10.466
44780SOL    HW136173   0.818  12.740  10.551
44780SOL    HW236174   0.922  12.711  10.445
44781SOL     OW36175  13.017   9.774   2.189
44781SOL    HW136176  13.033   9.770   2.095
44781SOL    HW236177  13.081   9.714   2.227
44782SOL     OW36178  14.277   2.251   9.301
44782SOL    HW136179  14.289   2.157   9.315
44782SOL    HW236180  14.188   2.268   9.330
44783SOL     OW36181   4.270   5.408   4.640
44783SOL    HW136182   4.252   5.337   4.701
44783SOL    HW236183   4.227   5.382   4.559
44784SOL     OW36184  10.060   1.345   1.312
44784SOL    HW136185  10.090   1.279   1.374
44784SOL    HW236186  10.024   1.415   1.366
44785SOL     OW36187   9.340  13.777   0.422
44785SOL    HW136188   9.418  13.799   0.372
44785SOL    HW236189   9.346  13.683   0.438
44786SOL     OW36190  14.495   1.135   7.037
44786SOL    HW136191  14.410   1.171   7.013
44786SOL    HW236192  14.525   1.189   7.110
44787SOL     OW36193  11.713  10.742   1.289
44787SOL    HW136194  11.674  10.655   1.281
44787SOL    HW236195  11.807  10.726   1.289
44788SOL     OW36196  13.962   5.215  13.289
44788SOL    HW136197  13.996   5.302  13.309
44788SOL    HW236198  13.969   5.209  13.194
44789SOL     OW36199   0.250   4.950  11.828
44789SOL    HW136200   0.205   4.925  11.747
44789SOL    HW236201   0.339   4.972  11.800
44790SOL     OW36202  14.345  12.533   7.349
44790SOL    HW136203  14.423  12.583   7.326
44790SOL    HW236204  14.378  12.465   7.408
44791SOL     OW36205   5.325   1.635  12.427
44791SOL    HW136206   5.301   1.543  12.438
44791SOL    HW236207   5.274   1.665  12.352
44792SOL     OW36208   6.069   7.561  14.249
44792SOL    HW136209   6.148   7.590  14.203
44792SOL    HW236210   6.099   7.495  14.310
44793SOL     OW36211   5.418   5.708   8.587
44793SOL    HW136212   5.404   5.803   8.583
44793SOL    HW236213   5.457   5.686   8.503
44794SOL     OW36214   6.269   7.682   7.608
44794SOL    HW136215   6.350   7.669   7.657
44794SOL    HW236216   6.208   7.617   7.644
44795SOL     OW36217   1.609   8.670   6.157
44795SOL    HW136218   1.660   8.590   6.150
44795SOL    HW236219   1.643   8.726   6.087
44796SOL     OW36220  10.177   8.717   6.548
44796SOL    HW136221  10.186   8.623   6.566
44796SOL    HW236222  10.265   8.744   6.520
44797SOL     OW36223   7.875   3.994   8.116
44797SOL    HW136224   7.960   4.013   8.155
44797SOL    HW236225   7.823   3.957   8.188
44798SOL     OW36226  14.278   4.448  12.057
44798SOL    HW136227  14.190   4.448  12.095
44798SOL    HW236228  14.271   4.508  11.982
44799SOL     OW36229   2.163   4.621   3.749
44799SOL    HW136230   2.229   4.672   3.702
44799SOL    HW236231   2.155   4.540   3.699
44800SOL     OW36232   3.829  14.675  12.016
44800SOL    HW136233   3.837  14.690  12.110
44800SOL    HW236234   3.751  14.621  12.007
44801SOL     OW36235   3.139  13.481   8.800
44801SOL    HW136236   3.169  13.549   8.739
44801SOL    HW236237   3.142  13.400   8.749
44802SOL     OW36238   9.171   0.823  12.502
44802SOL    HW136239   9.134   0.908  12.478
44802SOL    HW236240   9.229   0.801  12.429
44803SOL     OW36241   3.000   8.289   9.739
44803SOL    HW136242   2.957   8.266   9.657
44803SOL    HW236243   3.026   8.205   9.777
44804SOL     OW36244   6.306   6.834  11.787
44804SOL    HW136245   6.374   6.818  11.722
44804SOL    HW236246   6.333   6.914  11.831
44805SOL     OW36247   7.367   6.202   9.094
44805SOL    HW136248   7.310   6.194   9.018
44805SOL    HW236249   7.363   6.294   9.118
44806SOL     OW36250   4.073   6.987   8.105
44806SOL    HW136251   4.012   6.915   8.121
44806SOL    HW236252   4.092   7.022   8.192
44807SOL     OW36253  14.555  10.875   3.615
44807SOL    HW136254  14.491  10.804   3.622
44807SOL    HW236255  14.564  10.909   3.704
44808SOL     OW36256  13.075  11.661   0.134
44808SOL    HW136257  13.008  11.609   0.179
44808SOL    HW236258  13.027  11.712   0.069
44809SOL     OW36259  10.228  12.490   9.809
44809SOL    HW136260  10.269  12.453   9.731
44809SOL    HW236261  10.151  12.435   9.825
44810SOL     OW36262   0.443   2.694   8.159
44810SOL    HW136263   0.512   2.650   8.109
44810SOL    HW236264   0.364   2.644   8.141
44811SOL     OW36265  11.646  12.494  13.473
44811SOL    HW136266  11.651  12.409  13.429
44811SOL    HW236267  11.560  12.528  13.451
44812SOL     OW36268   2.093   9.145  10.282
44812SOL    HW136269   2.128   9.056  10.280
44812SOL    HW236270   2.146   9.190  10.348
44813SOL     OW36271   6.176  12.877   2.373
44813SOL    HW136272   6.111  12.838   2.432
44813SOL    HW236273   6.146  12.966   2.359
44814SOL     OW36274   1.647   0.497  13.414
44814SOL    HW136275   1.726   0.449  13.389
44814SOL    HW236276   1.663   0.586  13.381
44815SOL     OW36277  10.964   3.939   7.001
44815SOL    HW136278  10.878   3.914   6.969
44815SOL    HW236279  11.000   3.995   6.933
44816SOL     OW36280   3.022  12.760   8.670
44816SOL    HW136281   2.985  12.828   8.613
44816SOL    HW236282   2.983  12.679   8.638
44817SOL     OW36283  12.239   8.184   6.198
44817SOL    HW136284  12.231   8.210   6.290
44817SOL    HW236285  12.240   8.088   6.201
44818SOL     OW36286   2.287   4.691  13.485
44818SOL    HW136287   2.334   4.661  13.408
44818SOL    HW236288   2.268   4.611  13.535
44819SOL     OW36289   1.695   2.205   0.699
44819SOL    HW136290   1.691   2.172   0.609
44819SOL    HW236291   1.613   2.173   0.739
44820SOL     OW36292  13.862  11.951  14.474
44820SOL    HW136293  13.866  11.929  14.567
44820SOL    HW236294  13.898  11.875  14.430
44821SOL     OW36295   8.174  11.629   1.105
44821SOL    HW136296   8.135  11.616   1.192
44821SOL    HW236297   8.255  11.578   1.107
44822SOL     OW36298   3.395   7.528  11.368
44822SOL    HW136299   3.459   7.502  11.301
44822SOL    HW236300   3.329   7.578  11.320
44823SOL     OW36301   0.760   1.112   1.758
44823SOL    HW136302   0.764   1.123   1.663
44823SOL    HW236303   0.669   1.131   1.780
44824SOL     OW36304   2.985  13.775  14.242
44824SOL    HW136305   3.006  13.781  14.335
44824SOL    HW236306   2.890  13.766  14.239
44825SOL     OW36307  12.821  12.262  14.218
44825SOL    HW136308  12.844  12.238  14.308
44825SOL    HW236309  12.902  12.253  14.169
44826SOL     OW36310   1.696   5.242  13.470
44826SOL    HW136311   1.710   5.301  13.544
44826SOL    HW236312   1.764   5.175  13.480
44827SOL     OW36313   7.188   3.668  12.634
44827SOL    HW136314   7.251   3.739  12.621
44827SOL    HW236315   7.113   3.694  12.581
44828SOL     OW36316   9.749   4.945   5.747
44828SOL    HW136317   9.673   4.936   5.805
44828SOL    HW236318   9.713   4.931   5.659
44829SOL     OW36319  14.119  14.020   1.566
44829SOL    HW136320  14.102  14.010   1.472
44829SOL    HW236321  14.035  14.051   1.602
44830SOL     OW36322  12.639   5.832   6.377
44830SOL    HW136323  12.689   5.778   6.316
44830SOL    HW236324  12.594   5.895   6.322
44831SOL     OW36325   5.056  11.385   7.380
44831SOL    HW136326   5.068  11.448   7.452
44831SOL    HW236327   5.129  11.324   7.389
44832SOL     OW36328   1.812   5.679  14.274
44832SOL    HW136329   1.769   5.756  14.237
44832SOL    HW236330   1.889   5.666  14.219
44833SOL     OW36331   0.343   7.710   8.579
44833SOL    HW136332   0.437   7.705   8.590
44833SOL    HW236333   0.315   7.622   8.556
44834SOL     OW36334   9.127  14.093   2.380
44834SOL    HW136335   9.126  14.184   2.411
44834SOL    HW236336   9.201  14.089   2.320
44835SOL     OW36337   0.300   7.564   7.735
44835SOL    HW136338   0.204   7.562   7.742
44835SOL    HW236339   0.324   7.471   7.728
44836SOL     OW36340   2.203   0.966   3.898
44836SOL    HW136341   2.256   1.009   3.831
44836SOL    HW236342   2.265   0.908   3.944
44837SOL     OW36343   1.605   5.762   4.709
44837SOL    HW136344   1.528   5.712   4.737
44837SOL    HW236345   1.609   5.749   4.615
44838SOL     OW36346   9.661   6.284  12.534
44838SOL    HW136347   9.644   6.362  12.588
44838SOL    HW236348   9.683   6.216  12.597
44839SOL     OW36349  11.159  10.663   6.965
44839SOL    HW136350  11.090  10.677   6.900
44839SOL    HW236351  11.170  10.568   6.967
44840SOL     OW36352   8.223   7.353   7.374
44840SOL    HW136353   8.172   7.346   7.455
44840SOL    HW236354   8.223   7.264   7.338
44841SOL     OW36355  12.314   1.185  12.492
44841SOL    HW136356  12.244   1.213  12.433
44841SOL    HW236357  12.347   1.265  12.532
44842SOL     OW36358   4.023  13.359   8.162
44842SOL    HW136359   3.978  13.420   8.220
44842SOL    HW236360   4.024  13.276   8.210
44843SOL     OW36361   6.187   3.689   4.563
44843SOL    HW136362   6.249   3.636   4.513
44843SOL    HW236363   6.241   3.731   4.630
44844SOL     OW36364  11.850  11.975  12.643
44844SOL    HW136365  11.868  11.917  12.569
44844SOL    HW236366  11.754  11.983  12.644
44845SOL     OW36367   5.899   9.275  13.181
44845SOL    HW136368   5.854   9.297  13.100
44845SOL    HW236369   5.933   9.186  13.167
44846SOL     OW36370   1.285  11.985  14.598
44846SOL    HW136371   1.211  12.030  14.638
44846SOL    HW236372   1.316  12.045  14.530
44847SOL     OW36373   9.336   0.826   5.124
44847SOL    HW136374   9.404   0.827   5.057
44847SOL    HW236375   9.269   0.767   5.089
44848SOL     OW36376   6.972  12.767  11.106
44848SOL    HW136377   6.878  12.779  11.120
44848SOL    HW236378   7.009  12.760  11.194
44849SOL     OW36379   8.378  12.461  12.821
44849SOL    HW136380   8.439  12.521  12.778
44849SOL    HW236381   8.296  12.511  12.829
44850SOL     OW36382   6.500   1.875  13.738
44850SOL    HW136383   6.420   1.887  13.788
44850SOL    HW236384   6.483   1.916  13.653
44851SOL     OW36385   9.880   8.128  12.448
44851SOL    HW136386   9.809   8.102  12.389
44851SOL    HW236387   9.850   8.211  12.485
44852SOL     OW36388   1.743  12.439   5.039
44852SOL    HW136389   1.828  12.430   4.996
44852SOL    HW236390   1.754  12.395   5.123
44853SOL     OW36391   6.921  14.734   6.148
44853SOL    HW136392   6.856  14.730   6.077
44853SOL    HW236393   6.896  14.664   6.208
44854SOL     OW36394   9.977   4.927   1.995
44854SOL    HW136395   9.927   4.978   1.932
44854SOL    HW236396  10.061   4.973   2.003
44855SOL     OW36397   8.806  13.714   2.599
44855SOL    HW136398   8.851  13.791   2.564
44855SOL    HW236399   8.722  13.712   2.552
44856SOL     OW36400   0.209   1.485  12.476
44856SOL    HW136401   0.287   1.508  12.527
44856SOL    HW236402   0.230   1.510  12.387
44857SOL     OW36403   0.382   8.978   0.738
44857SOL    HW136404   0.399   8.997   0.646
44857SOL    HW236405   0.352   9.062   0.774
44858SOL     OW36406   1.145   2.239   4.711
44858SOL    HW136407   1.139   2.335   4.709
44858SOL    HW236408   1.157   2.218   4.803
44859SOL     OW36409  11.890   0.572  14.741
44859SOL    HW136410  11.924   0.655  14.774
44859SOL    HW236411  11.834   0.597  14.667
44860SOL     OW36412   9.380   4.688   0.845
44860SOL    HW136413   9.448   4.649   0.791
44860SOL    HW236414   9.337   4.751   0.789
44861SOL     OW36415  13.034  10.284  13.693
44861SOL    HW136416  13.030  10.189  13.683
44861SOL    HW236417  12.943  10.310  13.711
44862SOL     OW36418   9.174   9.678  13.722
44862SOL    HW136419   9.174   9.583  13.724
44862SOL    HW236420   9.089   9.703  13.759
44863SOL     OW36421   0.250   1.275   3.450
44863SOL    HW136422   0.286   1.211   3.512
44863SOL    HW236423   0.164   1.241   3.427
44864SOL     OW36424   4.796   6.644  10.350
44864SOL    HW136425   4.889   6.649  10.374
44864SOL    HW236426   4.779   6.725  10.302
44865SOL     OW36427   2.910   5.955  12.709
44865SOL    HW136428   2.931   5.862  12.718
44865SOL    HW236429   2.823   5.964  12.747
44866SOL     OW36430   7.147  13.145  10.749
44866SOL    HW136431   7.158  13.052  10.731
44866SOL    HW236432   7.059  13.152  10.786
44867SOL     OW36433  10.013   2.256   4.023
44867SOL    HW136434   9.925   2.283   4.050
44867SOL    HW236435  10.051   2.219   4.103
44868SOL     OW36436   0.429   7.685   3.990
44868SOL    HW136437   0.386   7.603   3.964
44868SOL    HW236438   0.442   7.676   4.085
44869SOL     OW36439  11.643  14.473  14.046
44869SOL    HW136440  11.621  14.564  14.026
44869SOL    HW236441  11.734  14.463  14.020
44870SOL     OW36442  10.969  14.275  10.197
44870SOL    HW136443  10.987  14.246  10.287
44870SOL    HW236444  11.033  14.344  10.180
44871SOL     OW36445   4.629   1.177  11.887
44871SOL    HW136446   4.647   1.161  11.980
44871SOL    HW236447   4.631   1.090  11.847
44872SOL     OW36448  13.577  10.602   1.711
44872SOL    HW136449  13.632  10.679   1.702
44872SOL    HW236450  13.637  10.533   1.742
44873SOL     OW36451  11.528   3.558   2.051
44873SOL    HW136452  11.453   3.503   2.028
44873SOL    HW236453  11.496   3.613   2.122
44874SOL     OW36454   1.846  13.972  12.096
44874SOL    HW136455   1.820  14.009  12.011
44874SOL    HW236456   1.884  14.046  12.143
44875SOL     OW36457  11.385   3.140   5.838
44875SOL    HW136458  11.414   3.083   5.766
44875SOL    HW236459  11.407   3.228   5.808
44876SOL     OW36460   0.154   6.453   8.364
44876SOL    HW136461   0.133   6.360   8.357
44876SOL    HW236462   0.088   6.496   8.309
44877SOL     OW36463   9.437  14.545  13.044
44877SOL    HW136464   9.409  14.633  13.017
44877SOL    HW236465   9.377  14.522  13.115
44878SOL     OW36466   0.677   7.640   0.790
44878SOL    HW136467   0.753   7.607   0.742
44878SOL    HW236468   0.660   7.574   0.856
44879SOL     OW36469  10.942   9.068  14.858
44879SOL    HW136470  10.960   9.128  14.785
44879SOL    HW236471  10.921   9.126   0.052
44880SOL     OW36472   3.588   4.898   4.682
44880SOL    HW136473   3.671   4.944   4.671
44880SOL    HW236474   3.568   4.863   4.595
44881SOL     OW36475  12.688  13.471   5.697
44881SOL    HW136476  12.657  13.528   5.767
44881SOL    HW236477  12.732  13.400   5.742
44882SOL     OW36478   9.786   4.336  12.009
44882SOL    HW136479   9.780   4.388  12.089
44882SOL    HW236480   9.758   4.248  12.034
44883SOL     OW36481  10.845   3.100   7.170
44883SOL    HW136482  10.806   3.015   7.151
44883SOL    HW236483  10.939   3.085   7.162
44884SOL     OW36484  13.669   1.977   1.613
44884SOL    HW136485  13.621   1.914   1.560
44884SOL    HW236486  13.610   1.998   1.686
44885SOL     OW36487   0.157   0.971  11.549
44885SOL    HW136488   0.158   1.064  11.570
44885SOL    HW236489   0.238   0.956  11.499
44886SOL     OW36490  12.019   3.538  12.583
44886SOL    HW136491  12.100   3.557  12.536
44886SOL    HW236492  12.015   3.605  12.652
44887SOL     OW36493   5.522   1.926   1.828
44887SOL    HW136494   5.610   1.962   1.814
44887SOL    HW236495   5.519   1.909   1.922
44888SOL     OW36496   8.558   1.113   9.047
44888SOL    HW136497   8.599   1.084   8.966
44888SOL    HW236498   8.466   1.126   9.024
44889SOL     OW36499  13.091   6.041   8.510
44889SOL    HW136500  13.061   5.960   8.551
44889SOL    HW236501  13.130   6.091   8.582
44890SOL     OW36502   7.254   6.439   4.727
44890SOL    HW136503   7.232   6.437   4.633
44890SOL    HW236504   7.169   6.439   4.771
44891SOL     OW36505   1.812   9.063   1.851
44891SOL    HW136506   1.744   8.996   1.841
44891SOL    HW236507   1.861   9.060   1.769
44892SOL     OW36508  11.164   0.985   0.771
44892SOL    HW136509  11.079   0.970   0.732
44892SOL    HW236510  11.177   1.080   0.765
44893SOL     OW36511   6.823   0.028   4.575
44893SOL    HW136512   6.863  14.820   4.582
44893SOL    HW236513   6.887   0.086   4.616
44894SOL     OW36514   8.491   6.885   8.367
44894SOL    HW136515   8.544   6.920   8.439
44894SOL    HW236516   8.554   6.869   8.297
44895SOL     OW36517   2.077   4.595  10.320
44895SOL    HW136518   2.042   4.666  10.267
44895SOL    HW236519   2.161   4.573  10.279
44896SOL     OW36520   3.832   4.392   2.740
44896SOL    HW136521   3.796   4.338   2.810
44896SOL    HW236522   3.871   4.466   2.785
44897SOL     OW36523   4.324   6.153   5.495
44897SOL    HW136524   4.310   6.242   5.464
44897SOL    HW236525   4.336   6.162   5.590
44898SOL     OW36526  13.318   3.265   0.195
44898SOL    HW136527  13.345   3.263   0.287
44898SOL    HW236528  13.368   3.195   0.154
44899SOL     OW36529   1.281  13.001  14.154
44899SOL    HW136530   1.371  13.006  14.184
44899SOL    HW236531   1.237  13.075  14.196
44900SOL     OW36532   5.167  11.911   3.243
44900SOL    HW136533   5.169  11.820   3.212
44900SOL    HW236534   5.256  11.926   3.276
44901SOL     OW36535   9.612   4.585   4.324
44901SOL    HW136536   9.704   4.576   4.298
44901SOL    HW236537   9.563   4.538   4.257
44902SOL     OW36538   1.018   6.578   6.599
44902SOL    HW136539   1.004   6.591   6.693
44902SOL    HW236540   0.966   6.500   6.578
44903SOL     OW36541   3.431  13.084  12.398
44903SOL    HW136542   3.384  13.007  12.430
44903SOL    HW236543   3.523  13.060  12.401
44904SOL     OW36544   3.418   6.385   3.580
44904SOL    HW136545   3.456   6.472   3.591
44904SOL    HW236546   3.363   6.393   3.502
44905SOL     OW36547   9.379   1.032   9.943
44905SOL    HW136548   9.298   0.995   9.907
44905SOL    HW236549   9.351   1.075  10.024
44906SOL     OW36550   9.411  10.894   7.823
44906SOL    HW136551   9.461  10.904   7.903
44906SOL    HW236552   9.463  10.834   7.769
44907SOL     OW36553  10.850   0.707  10.990
44907SOL    HW136554  10.914   0.639  11.010
44907SOL    HW236555  10.863   0.727  10.897
44908SOL     OW36556   1.179  11.580   9.301
44908SOL    HW136557   1.255  11.526   9.325
44908SOL    HW236558   1.182  11.584   9.205
44909SOL     OW36559   2.517  10.827   2.991
44909SOL    HW136560   2.498  10.921   2.982
44909SOL    HW236561   2.475  10.803   3.074
44910SOL     OW36562  12.053   1.139   7.504
44910SOL    HW136563  12.024   1.121   7.593
44910SOL    HW236564  12.146   1.117   7.504
44911SOL     OW36565   1.877   9.610   9.278
44911SOL    HW136566   1.852   9.699   9.303
44911SOL    HW236567   1.811   9.554   9.319
44912SOL     OW36568   8.081  12.931  10.844
44912SOL    HW136569   8.087  12.842  10.879
44912SOL    HW236570   8.006  12.969  10.889
44913SOL     OW36571  11.466   0.816  14.128
44913SOL    HW136572  11.440   0.834  14.218
44913SOL    HW236573  11.401   0.753  14.097
44914SOL     OW36574   7.552  10.457   9.615
44914SOL    HW136575   7.529  10.541   9.654
44914SOL    HW236576   7.519  10.392   9.677
44915SOL     OW36577   3.010   7.798   1.227
44915SOL    HW136578   3.085   7.755   1.185
44915SOL    HW236579   3.035   7.890   1.233
44916SOL     OW36580  10.718   6.491   9.851
44916SOL    HW136581  10.775   6.491   9.927
44916SOL    HW236582  10.773   6.459   9.780
44917SOL     OW36583   5.543   2.608  13.122
44917SOL    HW136584   5.560   2.571  13.208
44917SOL    HW236585   5.537   2.532  13.064
44918SOL     OW36586   6.599   5.247  14.773
44918SOL    HW136587   6.554   5.285  14.849
44918SOL    HW236588   6.580   5.153  14.779
44919SOL     OW36589  14.084   8.624  14.480
44919SOL    HW136590  14.107   8.640  14.571
44919SOL    HW236591  14.151   8.564  14.448
44920SOL     OW36592   9.912   9.875   2.146
44920SOL    HW136593   9.896   9.961   2.106
44920SOL    HW236594   9.827   9.831   2.143
44921SOL     OW36595   4.091   2.698   7.692
44921SOL    HW136596   4.063   2.608   7.706
44921SOL    HW236597   4.186   2.694   7.691
44922SOL     OW36598   3.097   3.140   6.695
44922SOL    HW136599   3.056   3.108   6.776
44922SOL    HW236600   3.024   3.173   6.643
44923SOL     OW36601   7.262   0.938   8.880
44923SOL    HW136602   7.353   0.953   8.903
44923SOL    HW236603   7.213   1.003   8.931
44924SOL     OW36604   3.396   0.759   6.913
44924SOL    HW136605   3.358   0.828   6.859
44924SOL    HW236606   3.489   0.760   6.892
44925SOL     OW36607   3.697   7.474   4.550
44925SOL    HW136608   3.776   7.522   4.575
44925SOL    HW236609   3.674   7.509   4.464
44926SOL     OW36610  14.292   1.624  12.681
44926SOL    HW136611  14.276   1.589  12.768
44926SOL    HW236612  14.341   1.705  12.696
44927SOL     OW36613  12.137  11.335  12.599
44927SOL    HW136614  12.193  11.381  12.536
44927SOL    HW236615  12.105  11.258  12.551
44928SOL     OW36616  11.438   0.897   0.065
44928SOL    HW136617  11.518   0.925   0.110
44928SOL    HW236618  11.414   0.973   0.012
44929SOL     OW36619  12.637   6.114   1.140
44929SOL    HW136620  12.579   6.119   1.065
44929SOL    HW236621  12.667   6.205   1.154
44930SOL     OW36622  10.612   4.859  13.542
44930SOL    HW136623  10.665   4.839  13.619
44930SOL    HW236624  10.616   4.954  13.535
44931SOL     OW36625   0.134   9.583   0.184
44931SOL    HW136626   0.168   9.633   0.110
44931SOL    HW236627   0.039   9.596   0.181
44932SOL     OW36628   5.159  10.834  11.551
44932SOL    HW136629   5.161  10.747  11.511
44932SOL    HW236630   5.107  10.887  11.491
44933SOL     OW36631   8.959  12.031  11.809
44933SOL    HW136632   8.972  12.093  11.881
44933SOL    HW236633   9.036  12.042  11.754
44934SOL     OW36634  13.383  11.227  10.069
44934SOL    HW136635  13.325  11.158  10.100
44934SOL    HW236636  13.393  11.210   9.975
44935SOL     OW36637  10.879   2.002   4.232
44935SOL    HW136638  10.796   1.954   4.229
44935SOL    HW236639  10.933   1.954   4.294
44936SOL     OW36640   0.493  14.381   9.941
44936SOL    HW136641   0.461  14.412   9.856
44936SOL    HW236642   0.561  14.317   9.918
44937SOL     OW36643  11.403   3.935   0.633
44937SOL    HW136644  11.442   3.850   0.653
44937SOL    HW236645  11.320   3.935   0.682
44938SOL     OW36646   7.253   4.357   4.572
44938SOL    HW136647   7.337   4.316   4.591
44938SOL    HW236648   7.212   4.298   4.508
44939SOL     OW36649   1.993  12.594   6.247
44939SOL    HW136650   1.944  12.542   6.311
44939SOL    HW236651   1.971  12.555   6.162
44940SOL     OW36652   5.278   1.887  13.026
44940SOL    HW136653   5.248   1.800  13.051
44940SOL    HW236654   5.253   1.943  13.099
44941SOL     OW36655  13.474   6.599  12.992
44941SOL    HW136656  13.486   6.525  12.933
44941SOL    HW236657  13.439   6.668  12.937
44942SOL     OW36658  11.058   7.981   8.674
44942SOL    HW136659  10.993   8.046   8.700
44942SOL    HW236660  11.077   8.002   8.582
44943SOL     OW36661   5.370   5.695  10.556
44943SOL    HW136662   5.346   5.776  10.601
44943SOL    HW236663   5.325   5.700  10.472
44944SOL     OW36664  13.933  10.902   7.933
44944SOL    HW136665  13.935  10.807   7.938
44944SOL    HW236666  14.025  10.929   7.939
44945SOL     OW36667   8.306  11.662   8.638
44945SOL    HW136668   8.370  11.701   8.697
44945SOL    HW236669   8.334  11.689   8.551
44946SOL     OW36670  11.985   1.002   0.195
44946SOL    HW136671  12.077   1.014   0.170
44946SOL    HW236672  11.957   1.088   0.225
44947SOL     OW36673  12.558  12.513  11.551
44947SOL    HW136674  12.600  12.499  11.636
44947SOL    HW236675  12.572  12.430  11.504
44948SOL     OW36676  10.049   9.561  13.342
44948SOL    HW136677  10.118   9.608  13.387
44948SOL    HW236678  10.093   9.517  13.269
44949SOL     OW36679  10.948  13.223   6.625
44949SOL    HW136680  10.878  13.215   6.690
44949SOL    HW236681  10.926  13.301   6.575
44950SOL     OW36682   1.336   6.928   7.389
44950SOL    HW136683   1.350   6.963   7.477
44950SOL    HW236684   1.390   6.849   7.386
44951SOL     OW36685   8.184   9.619  12.690
44951SOL    HW136686   8.110   9.586  12.741
44951SOL    HW236687   8.261   9.582  12.733
44952SOL     OW36688   0.807   3.931   9.592
44952SOL    HW136689   0.888   3.888   9.618
44952SOL    HW236690   0.741   3.862   9.593
44953SOL     OW36691   5.256   5.721   3.201
44953SOL    HW136692   5.235   5.665   3.126
44953SOL    HW236693   5.351   5.730   3.198
44954SOL     OW36694   0.282   9.413  14.073
44954SOL    HW136695   0.266   9.507  14.064
44954SOL    HW236696   0.198   9.377  14.101
44955SOL     OW36697   8.117   2.351   4.290
44955SOL    HW136698   8.204   2.342   4.250
44955SOL    HW236699   8.109   2.275   4.347
44956SOL     OW36700   4.645  10.648   0.191
44956SOL    HW136701   4.671  10.564   0.153
44956SOL    HW236702   4.692  10.652   0.274
44957SOL     OW36703   9.287   1.824   5.304
44957SOL    HW136704   9.285   1.910   5.262
44957SOL    HW236705   9.268   1.762   5.234
44958SOL     OW36706   9.166  10.826  13.537
44958SOL    HW136707   9.074  10.806  13.519
44958SOL    HW236708   9.184  10.781  13.620
44959SOL     OW36709   1.345   1.163  12.384
44959SOL    HW136710   1.325   1.230  12.318
44959SOL    HW236711   1.356   1.083  12.333
44960SOL     OW36712  12.484  13.359   8.404
44960SOL    HW136713  12.432  13.331   8.479
44960SOL    HW236714  12.575  13.358   8.436
44961SOL     OW36715  10.707  13.593  13.003
44961SOL    HW136716  10.727  13.524  12.939
44961SOL    HW236717  10.614  13.581  13.023
44962SOL     OW36718   4.532   2.504   3.876
44962SOL    HW136719   4.521   2.558   3.797
44962SOL    HW236720   4.624   2.513   3.898
44963SOL     OW36721   9.913   7.570  13.799
44963SOL    HW136722   9.960   7.591  13.718
44963SOL    HW236723   9.829   7.536  13.769
44964SOL     OW36724   1.961  12.477   9.287
44964SOL    HW136725   1.890  12.507   9.343
44964SOL    HW236726   1.946  12.383   9.276
44965SOL     OW36727  11.547   4.060  10.379
44965SOL    HW136728  11.568   4.016  10.461
44965SOL    HW236729  11.582   4.002  10.311
44966SOL     OW36730   6.006  11.592   5.365
44966SOL    HW136731   5.991  11.678   5.404
44966SOL    HW236732   5.945  11.534   5.411
44967SOL     OW36733   9.377   4.426  14.045
44967SOL    HW136734   9.414   4.503  14.003
44967SOL    HW236735   9.434   4.410  14.120
44968SOL     OW36736   2.876   3.943   5.802
44968SOL    HW136737   2.785   3.919   5.820
44968SOL    HW236738   2.870   4.033   5.769
44969SOL     OW36739  12.438  12.928   9.584
44969SOL    HW136740  12.526  12.890   9.578
44969SOL    HW236741  12.385  12.875   9.525
44970SOL     OW36742   4.332   4.092   9.683
44970SOL    HW136743   4.391   4.144   9.628
44970SOL    HW236744   4.298   4.024   9.625
44971SOL     OW36745   9.975   7.745  11.053
44971SOL    HW136746  10.035   7.723  10.981
44971SOL    HW236747   9.916   7.810  11.016
44972SOL     OW36748  12.196  13.295   3.409
44972SOL    HW136749  12.152  13.295   3.494
44972SOL    HW236750  12.158  13.221   3.362
44973SOL     OW36751  11.949  11.149  11.924
44973SOL    HW136752  11.879  11.192  11.973
44973SOL    HW236753  12.028  11.198  11.948
44974SOL     OW36754   1.970  13.813   3.893
44974SOL    HW136755   1.887  13.861   3.887
44974SOL    HW236756   2.023  13.847   3.821
44975SOL     OW36757   4.309   5.260  11.736
44975SOL    HW136758   4.257   5.332  11.769
44975SOL    HW236759   4.285   5.252  11.643
44976SOL     OW36760  10.335  10.395   0.405
44976SOL    HW136761  10.258  10.398   0.348
44976SOL    HW236762  10.340  10.304   0.434
44977SOL     OW36763  11.903   0.196   8.359
44977SOL    HW136764  11.869   0.221   8.273
44977SOL    HW236765  11.852   0.248   8.421
44978SOL     OW36766   3.883   9.860  12.536
44978SOL    HW136767   3.911   9.841  12.625
44978SOL    HW236768   3.867   9.954  12.536
44979SOL     OW36769   1.120   3.153  10.234
44979SOL    HW136770   1.069   3.191  10.306
44979SOL    HW236771   1.183   3.095  10.277
44980SOL     OW36772  12.341   1.850  14.613
44980SOL    HW136773  12.423   1.802  14.628
44980SOL    HW236774  12.302   1.808  14.536
44981SOL     OW36775   0.512   0.594   2.167
44981SOL    HW136776   0.416   0.592   2.169
44981SOL    HW236777   0.534   0.652   2.095
44982SOL     OW36778   8.001   6.158  10.903
44982SOL    HW136779   7.994   6.185  10.995
44982SOL    HW236780   8.017   6.239  10.855
44983SOL     OW36781   3.827  11.720   7.975
44983SOL    HW136782   3.861  11.631   7.991
44983SOL    HW236783   3.732  11.711   7.983
44984SOL     OW36784   7.631   6.967   0.049
44984SOL    HW136785   7.596   6.923   0.126
44984SOL    HW236786   7.574   7.043   0.037
44985SOL     OW36787   3.596   7.883   4.839
44985SOL    HW136788   3.681   7.892   4.883
44985SOL    HW236789   3.553   7.810   4.885
44986SOL     OW36790   8.900   2.975   3.308
44986SOL    HW136791   8.983   2.992   3.352
44986SOL    HW236792   8.901   2.881   3.289
44987SOL     OW36793  11.638   2.270   0.710
44987SOL    HW136794  11.624   2.311   0.625
44987SOL    HW236795  11.660   2.179   0.690
44988SOL     OW36796   9.926   8.629   7.226
44988SOL    HW136797   9.872   8.558   7.261
44988SOL    HW236798   9.969   8.590   7.149
44989SOL     OW36799  13.704   5.072   2.482
44989SOL    HW136800  13.617   5.100   2.455
44989SOL    HW236801  13.710   5.097   2.574
44990SOL     OW36802   9.830   0.403   1.943
44990SOL    HW136803   9.843   0.387   1.850
44990SOL    HW236804   9.766   0.474   1.947
44991SOL     OW36805  14.137   6.355   1.565
44991SOL    HW136806  14.184   6.371   1.483
44991SOL    HW236807  14.059   6.307   1.540
44992SOL     OW36808   5.570   3.153   5.675
44992SOL    HW136809   5.587   3.161   5.581
44992SOL    HW236810   5.578   3.242   5.708
44993SOL     OW36811   3.924  10.133  12.593
44993SOL    HW136812   3.893  10.139  12.683
44993SOL    HW236813   3.953  10.222  12.572
44994SOL     OW36814   5.804   0.703  10.428
44994SOL    HW136815   5.728   0.720  10.483
44994SOL    HW236816   5.867   0.772  10.452
44995SOL     OW36817   6.120   7.583   2.400
44995SOL    HW136818   6.032   7.615   2.380
44995SOL    HW236819   6.153   7.549   2.317
44996SOL     OW36820   5.071   8.687   0.453
44996SOL    HW136821   5.080   8.751   0.381
44996SOL    HW236822   5.020   8.616   0.414
44997SOL     OW36823   8.230  12.958   6.012
44997SOL    HW136824   8.203  13.012   5.937
44997SOL    HW236825   8.147  12.929   6.050
44998SOL     OW36826   0.130   3.581  14.200
44998SOL    HW136827   0.096   3.589  14.111
44998SOL    HW236828   0.225   3.585  14.190
44999SOL     OW36829  12.691   4.526   1.225
44999SOL    HW136830  12.773   4.575   1.237
44999SOL    HW236831  12.712   4.437   1.251
45000SOL     OW36832   4.200   4.651  13.161
45000SOL    HW136833   4.273   4.703  13.127
45000SOL    HW236834   4.122   4.703  13.140
45001SOL     OW36835   8.030  14.518  14.819
45001SOL    HW136836   8.013  14.559  14.734
45001SOL    HW236837   7.946  14.523  14.865
45002SOL     OW36838   8.092  14.807  11.517
45002SOL    HW136839   8.022  14.792  11.580
45002SOL    HW236840   8.093  14.729  11.462
45003SOL     OW36841   9.817   7.060  11.228
45003SOL    HW136842   9.792   7.117  11.156
45003SOL    HW236843   9.766   6.980  11.214
45004SOL     OW36844   5.690   6.499  13.144
45004SOL    HW136845   5.758   6.441  13.112
45004SOL    HW236846   5.721   6.587  13.124
45005SOL     OW36847  10.555   2.291   5.942
45005SOL    HW136848  10.622   2.353   5.913
45005SOL    HW236849  10.560   2.219   5.880
45006SOL     OW36850   9.033   9.613   0.050
45006SOL    HW136851   8.986   9.594   0.132
45006SOL    HW236852   8.967   9.653  14.873
45007SOL     OW36853  12.630   4.385   5.073
45007SOL    HW136854  12.543   4.393   5.035
45007SOL    HW236855  12.687   4.368   4.998
45008SOL     OW36856   1.317   8.979   1.146
45008SOL    HW136857   1.310   9.068   1.181
45008SOL    HW236858   1.409   8.956   1.158
45009SOL     OW36859   0.925  11.651  12.067
45009SOL    HW136860   0.860  11.721  12.069
45009SOL    HW236861   0.958  11.647  12.157
45010SOL     OW36862   6.141   3.871   3.315
45010SOL    HW136863   6.111   3.802   3.256
45010SOL    HW236864   6.068   3.933   3.318
45011SOL     OW36865  11.859   7.000   0.719
45011SOL    HW136866  11.860   6.983   0.813
45011SOL    HW236867  11.935   6.953   0.685
45012SOL     OW36868   2.772  11.872   8.170
45012SOL    HW136869   2.817  11.879   8.086
45012SOL    HW236870   2.840  11.885   8.236
45013SOL     OW36871  14.752   7.533   2.513
45013SOL    HW136872  14.784   7.578   2.591
45013SOL    HW236873  14.683   7.590   2.480
45014SOL     OW36874   0.666   8.214   1.197
45014SOL    HW136875   0.753   8.189   1.229
45014SOL    HW236876   0.605   8.170   1.256
45015SOL     OW36877   4.134  10.114   2.846
45015SOL    HW136878   4.220  10.081   2.872
45015SOL    HW236879   4.109  10.173   2.917
45016SOL     OW36880   3.074   4.845   0.634
45016SOL    HW136881   3.067   4.761   0.680
45016SOL    HW236882   3.168   4.857   0.620
45017SOL     OW36883   7.519   4.227   2.111
45017SOL    HW136884   7.550   4.154   2.058
45017SOL    HW236885   7.469   4.186   2.182
45018SOL     OW36886  12.708   3.193   5.734
45018SOL    HW136887  12.792   3.171   5.776
45018SOL    HW236888  12.733   3.239   5.653
45019SOL     OW36889   1.922  12.011   7.096
45019SOL    HW136890   1.888  12.073   7.161
45019SOL    HW236891   2.006  12.048   7.071
45020SOL     OW36892   2.576  12.361  10.011
45020SOL    HW136893   2.485  12.352  10.039
45020SOL    HW236894   2.578  12.441   9.960
45021SOL     OW36895   0.699   8.944   2.990
45021SOL    HW136896   0.671   8.876   3.052
45021SOL    HW236897   0.625   9.004   2.985
45022SOL     OW36898   8.031   5.911  14.115
45022SOL    HW136899   8.021   5.869  14.029
45022SOL    HW236900   8.119   5.947  14.113
45023SOL     OW36901  11.483   8.656  13.381
45023SOL    HW136902  11.423   8.591  13.344
45023SOL    HW236903  11.442   8.683  13.463
45024SOL     OW36904  11.445  13.546   1.644
45024SOL    HW136905  11.537  13.569   1.640
45024SOL    HW236906  11.410  13.599   1.716
45025SOL     OW36907  14.786  10.084   5.642
45025SOL    HW136908  14.712  10.110   5.699
45025SOL    HW236909  14.852  10.152   5.658
45026SOL     OW36910   4.103   0.756   0.518
45026SOL    HW136911   4.058   0.783   0.598
45026SOL    HW236912   4.045   0.690   0.480
45027SOL     OW36913   9.833   9.366   5.144
45027SOL    HW136914   9.780   9.344   5.068
45027SOL    HW236915   9.774   9.415   5.201
45028SOL     OW36916   2.424   2.594   9.993
45028SOL    HW136917   2.442   2.551   9.909
45028SOL    HW236918   2.402   2.522  10.052
45029SOL     OW36919   3.304   0.965   0.820
45029SOL    HW136920   3.237   1.011   0.769
45029SOL    HW236921   3.315   1.018   0.899
45030SOL     OW36922  11.577   7.602   2.031
45030SOL    HW136923  11.606   7.584   2.121
45030SOL    HW236924  11.647   7.657   1.994
45031SOL     OW36925   8.725   8.320  13.889
45031SOL    HW136926   8.673   8.346  13.812
45031SOL    HW236927   8.747   8.403  13.931
45032SOL     OW36928  11.620   1.845   7.693
45032SOL    HW136929  11.555   1.833   7.762
45032SOL    HW236930  11.696   1.881   7.737
45033SOL     OW36931   1.910  13.693   9.106
45033SOL    HW136932   1.861  13.617   9.074
45033SOL    HW236933   1.993  13.657   9.138
45034SOL     OW36934  11.331   0.505   0.427
45034SOL    HW136935  11.366   0.558   0.356
45034SOL    HW236936  11.383   0.425   0.425
45035SOL     OW36937   7.148   9.126   4.527
45035SOL    HW136938   7.064   9.092   4.497
45035SOL    HW236939   7.127   9.175   4.607
45036SOL     OW36940   2.484   2.048  13.080
45036SOL    HW136941   2.468   1.995  13.158
45036SOL    HW236942   2.530   2.125  13.112
45037SOL     OW36943   1.515  12.340   6.979
45037SOL    HW136944   1.593  12.350   7.033
45037SOL    HW236945   1.541  12.278   6.911
45038SOL     OW36946  10.221  12.994   8.001
45038SOL    HW136947  10.177  13.057   7.944
45038SOL    HW236948  10.305  12.978   7.958
45039SOL     OW36949   8.972   2.034  10.820
45039SOL    HW136950   8.998   2.075  10.903
45039SOL    HW236951   9.054   1.999  10.785
45040SOL     OW36952   4.471   1.302   5.367
45040SOL    HW136953   4.426   1.386   5.373
45040SOL    HW236954   4.426   1.247   5.432
45041SOL     OW36955  11.949  12.334   4.103
45041SOL    HW136956  11.948  12.427   4.122
45041SOL    HW236957  11.860  12.313   4.075
45042SOL     OW36958  13.575   0.321  10.577
45042SOL    HW136959  13.667   0.301  10.592
45042SOL    HW236960  13.535   0.237  10.555
45043SOL     OW36961   7.880   4.316  14.717
45043SOL    HW136962   7.891   4.221  14.720
45043SOL    HW236963   7.793   4.330  14.756
45044SOL     OW36964   3.709   0.820   0.312
45044SOL    HW136965   3.772   0.804   0.382
45044SOL    HW236966   3.705   0.737   0.264
45045SOL     OW36967   1.393   5.907  14.611
45045SOL    HW136968   1.477   5.868  14.634
45045SOL    HW236969   1.402   6.000  14.634
45046SOL     OW36970  10.467   5.041   2.140
45046SOL    HW136971  10.529   4.969   2.151
45046SOL    HW236972  10.518   5.120   2.152
45047SOL     OW36973  11.560   6.951   0.755
45047SOL    HW136974  11.646   6.953   0.714
45047SOL    HW236975  11.527   7.041   0.745
45048SOL     OW36976  10.795   9.247   7.501
45048SOL    HW136977  10.783   9.303   7.577
45048SOL    HW236978  10.763   9.161   7.528
45049SOL     OW36979   8.783   4.280   4.921
45049SOL    HW136980   8.831   4.223   4.862
45049SOL    HW236981   8.723   4.222   4.968
45050SOL     OW36982  13.514   4.025  10.985
45050SOL    HW136983  13.496   4.084  11.059
45050SOL    HW236984  13.584   4.067  10.936
45051SOL     OW36985  11.423   6.392   7.286
45051SOL    HW136986  11.506   6.358   7.252
45051SOL    HW236987  11.433   6.487   7.284
45052SOL     OW36988  14.351  10.393   2.123
45052SOL    HW136989  14.397  10.310   2.109
45052SOL    HW236990  14.372  10.417   2.213
45053SOL     OW36991  10.592   3.959   7.735
45053SOL    HW136992  10.626   3.972   7.647
45053SOL    HW236993  10.661   3.990   7.793
45054SOL     OW36994   1.513   0.245   7.460
45054SOL    HW136995   1.519   0.151   7.442
45054SOL    HW236996   1.549   0.286   7.381
45055SOL     OW36997   0.789   9.905   1.065
45055SOL    HW136998   0.831   9.832   1.020
45055SOL    HW236999   0.861   9.965   1.085
45056SOL     OW37000  13.307   3.449   5.180
45056SOL    HW137001  13.390   3.489   5.150
45056SOL    HW237002  13.325   3.355   5.180
45057SOL     OW37003   8.219   6.783   8.410
45057SOL    HW137004   8.144   6.842   8.407
45057SOL    HW237005   8.292   6.835   8.374
45058SOL     OW37006   8.978   4.677   1.463
45058SOL    HW137007   9.013   4.587   1.466
45058SOL    HW237008   8.951   4.695   1.553
45059SOL     OW37009   9.173   8.623  12.205
45059SOL    HW137010   9.192   8.706  12.248
45059SOL    HW237011   9.169   8.644  12.112
45060SOL     OW37012   8.614   4.207  13.766
45060SOL    HW137013   8.651   4.287  13.729
45060SOL    HW237014   8.519   4.218  13.756
45061SOL     OW37015   0.146   5.263   4.200
45061SOL    HW137016   0.240   5.252   4.183
45061SOL    HW237017   0.135   5.357   4.212
45062SOL     OW37018   1.930   6.857   9.174
45062SOL    HW137019   1.854   6.824   9.222
45062SOL    HW237020   1.894   6.923   9.115
45063SOL     OW37021   4.503  10.105   7.341
45063SOL    HW137022   4.562  10.170   7.379
45063SOL    HW237023   4.478  10.142   7.257
45064SOL     OW37024  10.400   2.574   7.927
45064SOL    HW137025  10.338   2.503   7.913
45064SOL    HW237026  10.419   2.571   8.021
45065SOL     OW37027   1.179  10.433  12.072
45065SOL    HW137028   1.103  10.483  12.043
45065SOL    HW237029   1.225  10.491  12.132
45066SOL     OW37030   2.315  14.356   0.206
45066SOL    HW137031   2.261  14.339   0.129
45066SOL    HW237032   2.402  14.322   0.183
45067SOL     OW37033  12.334   2.641   1.442
45067SOL    HW137034  12.392   2.713   1.465
45067SOL    HW237035  12.246   2.676   1.452
45068SOL     OW37036  12.716  11.915   5.092
45068SOL    HW137037  12.703  11.848   5.159
45068SOL    HW237038  12.650  11.896   5.026
45069SOL     OW37039   7.954   8.405  10.907
45069SOL    HW137040   7.867   8.440  10.925
45069SOL    HW237041   7.983   8.368  10.990
45070SOL     OW37042   0.735   2.426   7.717
45070SOL    HW137043   0.817   2.390   7.751
45070SOL    HW237044   0.674   2.352   7.720
45071SOL     OW37045  14.153  14.605  12.722
45071SOL    HW137046  14.198  14.655  12.654
45071SOL    HW237047  14.164  14.657  12.801
45072SOL     OW37048  11.291   5.875  11.300
45072SOL    HW137049  11.365   5.932  11.321
45072SOL    HW237050  11.316   5.834  11.217
45073SOL     OW37051   0.079   0.409   1.684
45073SOL    HW137052   0.001   0.355   1.684
45073SOL    HW237053   0.059   0.481   1.744
45074SOL     OW37054   5.919   1.083  13.097
45074SOL    HW137055   5.931   1.135  13.177
45074SOL    HW237056   5.867   1.140  13.039
45075SOL     OW37057  13.955   5.202   4.040
45075SOL    HW137058  14.035   5.249   4.016
45075SOL    HW237059  13.977   5.110   4.024
45076SOL     OW37060   3.324  10.480   9.558
45076SOL    HW137061   3.405  10.437   9.585
45076SOL    HW237062   3.258  10.410   9.562
45077SOL     OW37063  10.922   0.608   9.235
45077SOL    HW137064  10.846   0.613   9.293
45077SOL    HW237065  10.986   0.558   9.286
45078SOL     OW37066   4.196   6.387  12.633
45078SOL    HW137067   4.144   6.450  12.683
45078SOL    HW237068   4.281   6.428  12.624
45079SOL     OW37069   1.787  10.255   1.123
45079SOL    HW137070   1.876  10.245   1.155
45079SOL    HW237071   1.737  10.188   1.170
45080SOL     OW37072  14.504  11.141   5.790
45080SOL    HW137073  14.566  11.077   5.823
45080SOL    HW237074  14.426  11.090   5.769
45081SOL     OW37075   0.658   6.282   0.247
45081SOL    HW137076   0.703   6.202   0.220
45081SOL    HW237077   0.636   6.268   0.339
45082SOL     OW37078  11.971  12.466   8.267
45082SOL    HW137079  12.026  12.521   8.323
45082SOL    HW237080  12.004  12.378   8.279
45083SOL     OW37081   0.608   7.539   3.115
45083SOL    HW137082   0.634   7.628   3.135
45083SOL    HW237083   0.546   7.516   3.185
45084SOL     OW37084   3.556  13.641   9.053
45084SOL    HW137085   3.560  13.695   9.132
45084SOL    HW237086   3.526  13.701   8.984
45085SOL     OW37087   8.445   0.845   3.810
45085SOL    HW137088   8.384   0.797   3.867
45085SOL    HW237089   8.481   0.778   3.751
45086SOL     OW37090  13.427   4.756   6.286
45086SOL    HW137091  13.359   4.814   6.321
45086SOL    HW237092  13.386   4.714   6.210
45087SOL     OW37093   1.420  14.057   4.110
45087SOL    HW137094   1.461  14.026   4.191
45087SOL    HW237095   1.391  13.977   4.066
45088SOL     OW37096   7.196   0.005  12.592
45088SOL    HW137097   7.195  14.838  12.508
45088SOL    HW237098   7.210  14.816  12.658
45089SOL     OW37099   0.461  10.821  14.846
45089SOL    HW137100   0.537  10.783  14.802
45089SOL    HW237101   0.494  10.902   0.005
45090SOL     OW37102  10.292   0.555   7.792
45090SOL    HW137103  10.385   0.545   7.776
45090SOL    HW237104  10.269   0.638   7.750
45091SOL     OW37105   6.877   9.881  13.383
45091SOL    HW137106   6.923   9.808  13.341
45091SOL    HW237107   6.785   9.856  13.378
45092SOL     OW37108  14.035   7.921  10.418
45092SOL    HW137109  13.952   7.879  10.439
45092SOL    HW237110  14.009   8.006  10.381
45093SOL     OW37111  11.068   6.463   7.001
45093SOL    HW137112  11.153   6.478   6.959
45093SOL    HW237113  11.054   6.540   7.056
45094SOL     OW37114  13.287   6.775   1.182
45094SOL    HW137115  13.339   6.744   1.256
45094SOL    HW237116  13.241   6.852   1.215
45095SOL     OW37117   5.577  14.718   7.314
45095SOL    HW137118   5.484  14.738   7.312
45095SOL    HW237119   5.596  14.683   7.227
45096SOL     OW37120  12.977   0.844  13.349
45096SOL    HW137121  12.955   0.938  13.348
45096SOL    HW237122  12.908   0.803  13.296
45097SOL     OW37123   9.134  11.033   7.012
45097SOL    HW137124   9.047  11.069   6.991
45097SOL    HW237125   9.178  11.105   7.058
45098SOL     OW37126   3.200   8.628  13.681
45098SOL    HW137127   3.136   8.673  13.736
45098SOL    HW237128   3.234   8.558  13.737
45099SOL     OW37129  12.372  14.779   6.148
45099SOL    HW137130  12.372  14.858   6.094
45099SOL    HW237131  12.463  14.768   6.174
45100SOL     OW37132  13.446  13.464   6.390
45100SOL    HW137133  13.446  13.454   6.295
45100SOL    HW237134  13.469  13.556   6.404
45101SOL     OW37135  10.318   5.410   7.028
45101SOL    HW137136  10.235   5.368   7.005
45101SOL    HW237137  10.370   5.407   6.948
45102SOL     OW37138  11.839   5.858   9.785
45102SOL    HW137139  11.856   5.941   9.741
45102SOL    HW237140  11.891   5.794   9.738
45103SOL     OW37141   7.886   7.440   6.186
45103SOL    HW137142   7.870   7.346   6.187
45103SOL    HW237143   7.903   7.463   6.277
45104SOL     OW37144  12.483  10.612  12.063
45104SOL    HW137145  12.425  10.561  12.007
45104SOL    HW237146  12.538  10.662  12.003
45105SOL     OW37147   4.341   1.841  14.661
45105SOL    HW137148   4.358   1.817  14.570
45105SOL    HW237149   4.332   1.936  14.660
45106SOL     OW37150   6.820   6.612   8.340
45106SOL    HW137151   6.802   6.521   8.315
45106SOL    HW237152   6.857   6.605   8.428
45107SOL     OW37153   0.372   7.674  13.108
45107SOL    HW137154   0.288   7.705  13.074
45107SOL    HW237155   0.382   7.587  13.070
45108SOL     OW37156   5.774  13.087   7.433
45108SOL    HW137157   5.767  13.182   7.421
45108SOL    HW237158   5.704  13.051   7.379
45109SOL     OW37159   5.068   3.243   4.028
45109SOL    HW137160   5.035   3.252   4.118
45109SOL    HW237161   5.151   3.289   4.028
45110SOL     OW37162   4.234   7.477  12.955
45110SOL    HW137163   4.157   7.464  13.011
45110SOL    HW237164   4.231   7.404  12.893
45111SOL     OW37165   2.265   8.554  14.046
45111SOL    HW137166   2.332   8.518  14.104
45111SOL    HW237167   2.293   8.530  13.958
45112SOL     OW37168  12.463   8.594   3.455
45112SOL    HW137169  12.438   8.527   3.519
45112SOL    HW237170  12.414   8.571   3.376
45113SOL     OW37171   7.259  10.105   8.178
45113SOL    HW137172   7.192  10.042   8.152
45113SOL    HW237173   7.342  10.062   8.158
45114SOL     OW37174   8.464   0.618   5.710
45114SOL    HW137175   8.401   0.622   5.782
45114SOL    HW237176   8.537   0.567   5.745
45115SOL     OW37177  13.899   0.822   9.891
45115SOL    HW137178  13.816   0.786   9.862
45115SOL    HW237179  13.911   0.901   9.839
45116SOL     OW37180   9.308   2.771   0.487
45116SOL    HW137181   9.352   2.791   0.405
45116SOL    HW237182   9.337   2.682   0.509
45117SOL     OW37183   9.525   1.086  11.983
45117SOL    HW137184   9.533   1.164  12.037
45117SOL    HW237185   9.563   1.016  12.035
45118SOL     OW37186   9.500  12.525   2.077
45118SOL    HW137187   9.587  12.485   2.076
45118SOL    HW237188   9.472  12.523   1.986
45119SOL     OW37189  14.043  11.742   6.775
45119SOL    HW137190  14.092  11.717   6.853
45119SOL    HW237191  14.042  11.663   6.721
45120SOL     OW37192   0.288   8.634   1.448
45120SOL    HW137193   0.376   8.671   1.441
45120SOL    HW237194   0.229   8.706   1.427
45121SOL     OW37195   6.698   1.357  14.704
45121SOL    HW137196   6.611   1.359  14.664
45121SOL    HW237197   6.753   1.409  14.644
45122SOL     OW37198   0.530   7.307   0.577
45122SOL    HW137199   0.569   7.268   0.656
45122SOL    HW237200   0.601   7.306   0.513
45123SOL     OW37201  13.321   0.378  10.287
45123SOL    HW137202  13.410   0.350  10.266
45123SOL    HW237203  13.270   0.355  10.209
45124SOL     OW37204   5.859   7.399  12.642
45124SOL    HW137205   5.841   7.427  12.552
45124SOL    HW237206   5.808   7.459  12.697
45125SOL     OW37207  13.052   9.410  11.069
45125SOL    HW137208  13.082   9.329  11.028
45125SOL    HW237209  13.030   9.384  11.159
45126SOL     OW37210   7.761  13.414   2.543
45126SOL    HW137211   7.832  13.425   2.606
45126SOL    HW237212   7.682  13.442   2.591
45127SOL     OW37213   1.631  13.506   2.407
45127SOL    HW137214   1.566  13.437   2.394
45127SOL    HW237215   1.639  13.547   2.321
45128SOL     OW37216   3.066   0.580  10.969
45128SOL    HW137217   2.996   0.622  10.920
45128SOL    HW237218   3.146   0.602  10.921
45129SOL     OW37219   0.105  10.107  13.474
45129SOL    HW137220   0.176  10.136  13.531
45129SOL    HW237221   0.144  10.040  13.419
45130SOL     OW37222  12.059  11.728  14.119
45130SOL    HW137223  11.970  11.733  14.084
45130SOL    HW237224  12.091  11.818  14.116
45131SOL     OW37225   9.103   6.944  11.039
45131SOL    HW137226   9.146   6.904  10.963
45131SOL    HW237227   9.044   7.009  11.002
45132SOL     OW37228   1.513   0.656   8.020
45132SOL    HW137229   1.439   0.619   7.973
45132SOL    HW237230   1.473   0.710   8.088
45133SOL     OW37231   3.475   6.477  10.937
45133SOL    HW137232   3.452   6.570  10.942
45133SOL    HW237233   3.459   6.444  11.025
45134SOL     OW37234  13.711  14.344  12.070
45134SOL    HW137235  13.742  14.259  12.038
45134SOL    HW237236  13.767  14.364  12.144
45135SOL     OW37237  12.194  10.564   5.802
45135SOL    HW137238  12.164  10.615   5.877
45135SOL    HW237239  12.289  10.574   5.802
45136SOL     OW37240  14.733  13.845   2.971
45136SOL    HW137241  14.749  13.907   3.043
45136SOL    HW237242  14.743  13.759   3.010
45137SOL     OW37243  10.247   9.758  14.543
45137SOL    HW137244  10.271   9.851  14.537
45137SOL    HW237245  10.329   9.711  14.526
45138SOL     OW37246  13.147   7.515  11.743
45138SOL    HW137247  13.196   7.575  11.800
45138SOL    HW237248  13.206   7.500  11.669
45139SOL     OW37249  14.623  14.539  12.722
45139SOL    HW137250  14.681  14.465  12.704
45139SOL    HW237251  14.559  14.538  12.650
45140SOL     OW37252   4.242   0.644   2.756
45140SOL    HW137253   4.280   0.558   2.769
45140SOL    HW237254   4.226   0.650   2.662
45141SOL     OW37255   6.330  12.032   8.312
45141SOL    HW137256   6.308  12.016   8.220
45141SOL    HW237257   6.299  11.954   8.358
45142SOL     OW37258   5.592   9.532   3.064
45142SOL    HW137259   5.636   9.462   3.016
45142SOL    HW237260   5.662   9.577   3.111
45143SOL     OW37261   1.491   9.022   2.740
45143SOL    HW137262   1.425   8.994   2.804
45143SOL    HW237263   1.563   8.959   2.752
45144SOL     OW37264   7.378   9.401  14.372
45144SOL    HW137265   7.295   9.415  14.326
45144SOL    HW237266   7.396   9.484  14.415
45145SOL     OW37267  14.125   3.500  12.577
45145SOL    HW137268  14.211   3.469  12.547
45145SOL    HW237269  14.062   3.449  12.525
45146SOL     OW37270  13.525   0.791   6.956
45146SOL    HW137271  13.555   0.746   6.877
45146SOL    HW237272  13.512   0.882   6.927
45147SOL     OW37273   1.396  11.734   1.100
45147SOL    HW137274   1.307  11.757   1.125
45147SOL    HW237275   1.387  11.654   1.048
45148SOL     OW37276   9.951   8.072   0.887
45148SOL    HW137277   9.950   8.095   0.794
45148SOL    HW237278  10.015   8.131   0.926
45149SOL     OW37279   6.331   5.906   3.754
45149SOL    HW137280   6.348   5.841   3.686
45149SOL    HW237281   6.326   5.989   3.706
45150SOL     OW37282  11.550   8.889   9.589
45150SOL    HW137283  11.540   8.931   9.674
45150SOL    HW237284  11.605   8.950   9.539
45151SOL     OW37285   3.519   2.980   9.212
45151SOL    HW137286   3.461   3.017   9.145
45151SOL    HW237287   3.604   2.974   9.169
45152SOL     OW37288  14.554  12.416   3.794
45152SOL    HW137289  14.603  12.368   3.861
45152SOL    HW237290  14.505  12.349   3.747
45153SOL     OW37291   8.946  13.818   3.342
45153SOL    HW137292   9.037  13.790   3.346
45153SOL    HW237293   8.916  13.818   3.433
45154SOL     OW37294   0.645  14.876  11.731
45154SOL    HW137295   0.639   0.073  11.789
45154SOL    HW237296   0.563  14.876  11.682
45155SOL     OW37297  10.549   4.938   2.762
45155SOL    HW137298  10.639   4.949   2.793
45155SOL    HW237299  10.512   5.026   2.763
45156SOL     OW37300   5.625   8.595   0.936
45156SOL    HW137301   5.622   8.588   0.841
45156SOL    HW237302   5.718   8.593   0.957
45157SOL     OW37303   8.879   8.421   4.906
45157SOL    HW137304   8.938   8.483   4.862
45157SOL    HW237305   8.837   8.373   4.834
45158SOL     OW37306  12.787   1.402   9.116
45158SOL    HW137307  12.701   1.440   9.134
45158SOL    HW237308  12.834   1.472   9.071
45159SOL     OW37309   3.180   4.848   8.335
45159SOL    HW137310   3.112   4.914   8.323
45159SOL    HW237311   3.235   4.855   8.257
45160SOL     OW37312   1.582   1.123  10.303
45160SOL    HW137313   1.511   1.167  10.256
45160SOL    HW237314   1.661   1.169  10.275
45161SOL     OW37315   0.525   0.833   1.086
45161SOL    HW137316   0.455   0.865   1.143
45161SOL    HW237317   0.488   0.755   1.044
45162SOL     OW37318  10.222   8.985   4.897
45162SOL    HW137319  10.283   9.043   4.851
45162SOL    HW237320  10.166   8.950   4.828
45163SOL     OW37321   1.784   6.635  13.705
45163SOL    HW137322   1.791   6.650  13.799
45163SOL    HW237323   1.722   6.562  13.696
45164SOL     OW37324  10.970   8.381   0.522
45164SOL    HW137325  11.061   8.368   0.550
45164SOL    HW237326  10.976   8.392   0.427
45165SOL     OW37327   3.655   6.910   8.305
45165SOL    HW137328   3.723   6.953   8.356
45165SOL    HW237329   3.573   6.940   8.345
45166SOL     OW37330  10.525   4.103   9.581
45166SOL    HW137331  10.474   4.181   9.602
45166SOL    HW237332  10.597   4.135   9.526
45167SOL     OW37333   4.034   6.577  12.801
45167SOL    HW137334   4.084   6.589  12.882
45167SOL    HW237335   3.943   6.593  12.825
45168SOL     OW37336   5.833   9.615   5.186
45168SOL    HW137337   5.876   9.533   5.209
45168SOL    HW237338   5.746   9.608   5.226
45169SOL     OW37339  12.603   6.593   4.734
45169SOL    HW137340  12.577   6.512   4.689
45169SOL    HW237341  12.546   6.660   4.697
45170SOL     OW37342   9.735   0.552   7.673
45170SOL    HW137343   9.653   0.579   7.632
45170SOL    HW237344   9.747   0.614   7.746
45171SOL     OW37345  10.795  13.847  12.989
45171SOL    HW137346  10.752  13.762  13.001
45171SOL    HW237347  10.725  13.906  12.961
45172SOL     OW37348  13.089   7.861   3.158
45172SOL    HW137349  13.124   7.944   3.190
45172SOL    HW237350  13.154   7.830   3.094
45173SOL     OW37351   0.559   4.011   4.788
45173SOL    HW137352   0.513   4.071   4.846
45173SOL    HW237353   0.605   3.951   4.846
45174SOL     OW37354   6.773   3.695   9.639
45174SOL    HW137355   6.752   3.614   9.592
45174SOL    HW237356   6.707   3.700   9.708
45175SOL     OW37357   7.102   0.499   4.317
45175SOL    HW137358   7.081   0.406   4.329
45175SOL    HW237359   7.061   0.523   4.234
45176SOL     OW37360   0.167  10.097   2.947
45176SOL    HW137361   0.261  10.083   2.941
45176SOL    HW237362   0.155  10.144   3.030
45177SOL     OW37363   7.071   6.297   6.649
45177SOL    HW137364   7.066   6.390   6.671
45177SOL    HW237365   7.162   6.273   6.663
45178SOL     OW37366   2.820   8.993   2.528
45178SOL    HW137367   2.903   8.947   2.538
45178SOL    HW237368   2.769   8.966   2.605
45179SOL     OW37369   5.398   9.143   6.980
45179SOL    HW137370   5.466   9.123   6.916
45179SOL    HW237371   5.343   9.208   6.938
45180SOL     OW37372   4.942   7.607   0.171
45180SOL    HW137373   5.006   7.678   0.180
45180SOL    HW237374   4.994   7.527   0.167
45181SOL     OW37375   5.298  12.078   4.726
45181SOL    HW137376   5.246  12.070   4.646
45181SOL    HW237377   5.368  12.138   4.704
45182SOL     OW37378   2.498   1.779  10.048
45182SOL    HW137379   2.467   1.870  10.040
45182SOL    HW237380   2.486   1.742   9.961
45183SOL     OW37381   5.356  11.647  14.555
45183SOL    HW137382   5.276  11.595  14.542
45183SOL    HW237383   5.388  11.622  14.641
45184SOL     OW37384  10.006  11.167   8.979
45184SOL    HW137385  10.069  11.181   9.050
45184SOL    HW237386  10.059  11.173   8.899
45185SOL     OW37387  10.767   7.239  14.248
45185SOL    HW137388  10.739   7.292  14.173
45185SOL    HW237389  10.721   7.275  14.323
45186SOL     OW37390  13.047   9.181  13.784
45186SOL    HW137391  13.121   9.124  13.806
45186SOL    HW237392  13.088   9.263  13.754
45187SOL     OW37393   4.538  14.450  13.746
45187SOL    HW137394   4.505  14.378  13.692
45187SOL    HW237395   4.629  14.425  13.766
45188SOL     OW37396   7.780   2.495   8.238
45188SOL    HW137397   7.761   2.405   8.210
45188SOL    HW237398   7.849   2.485   8.304
45189SOL     OW37399   0.995  14.288   0.340
45189SOL    HW137400   0.954  14.340   0.409
45189SOL    HW237401   0.926  14.277   0.275
45190SOL     OW37402   4.927   6.835   6.650
45190SOL    HW137403   4.912   6.829   6.556
45190SOL    HW237404   4.938   6.744   6.679
45191SOL     OW37405   9.605   0.172   4.291
45191SOL    HW137406   9.562   0.086   4.295
45191SOL    HW237407   9.668   0.170   4.363
45192SOL     OW37408  13.865  10.637   7.897
45192SOL    HW137409  13.829  10.596   7.818
45192SOL    HW237410  13.955  10.604   7.902
45193SOL     OW37411   3.217   9.996   4.141
45193SOL    HW137412   3.254   9.974   4.226
45193SOL    HW237413   3.122   9.995   4.155
45194SOL     OW37414  13.683   4.969   7.127
45194SOL    HW137415  13.616   4.905   7.152
45194SOL    HW237416  13.635   5.035   7.077
45195SOL     OW37417  12.981   5.881  14.644
45195SOL    HW137418  12.933   5.798  14.640
45195SOL    HW237419  13.046   5.874  14.574
45196SOL     OW37420   9.554  10.217   5.167
45196SOL    HW137421   9.544  10.164   5.088
45196SOL    HW237422   9.464  10.232   5.197
45197SOL     OW37423   7.137   0.361   6.918
45197SOL    HW137424   7.078   0.414   6.972
45197SOL    HW237425   7.092   0.278   6.907
45198SOL     OW37426  11.771  14.612   7.441
45198SOL    HW137427  11.751  14.519   7.455
45198SOL    HW237428  11.690  14.649   7.407
45199SOL     OW37429  14.563   1.013  11.173
45199SOL    HW137430  14.618   1.060  11.110
45199SOL    HW237431  14.507   1.081  11.211
45200SOL     OW37432   6.072   9.076  12.290
45200SOL    HW137433   6.137   9.133  12.249
45200SOL    HW237434   6.119   9.032  12.360
45201SOL     OW37435   9.337   3.683  11.516
45201SOL    HW137436   9.264   3.737  11.546
45201SOL    HW237437   9.407   3.701  11.579
45202SOL     OW37438  10.177   3.783   7.862
45202SOL    HW137439  10.100   3.838   7.876
45202SOL    HW237440  10.251   3.841   7.881
45203SOL     OW37441   6.208  13.646   2.393
45203SOL    HW137442   6.169  13.620   2.477
45203SOL    HW237443   6.137  13.637   2.330
45204SOL     OW37444   4.182   1.793   5.647
45204SOL    HW137445   4.164   1.884   5.670
45204SOL    HW237446   4.114   1.771   5.583
45205SOL     OW37447   4.117   6.574   6.567
45205SOL    HW137448   4.202   6.533   6.553
45205SOL    HW237449   4.054   6.504   6.550
45206SOL     OW37450  12.964   1.561   5.751
45206SOL    HW137451  13.029   1.562   5.821
45206SOL    HW237452  13.015   1.542   5.672
45207SOL     OW37453   8.915   9.494   4.665
45207SOL    HW137454   8.874   9.489   4.751
45207SOL    HW237455   8.898   9.408   4.625
45208SOL     OW37456   1.077   8.295  14.541
45208SOL    HW137457   1.019   8.318  14.468
45208SOL    HW237458   1.164   8.323  14.512
45209SOL     OW37459   3.155   1.686   6.751
45209SOL    HW137460   3.105   1.756   6.794
45209SOL    HW237461   3.088   1.623   6.725
45210SOL     OW37462   0.378  11.394   2.770
45210SOL    HW137463   0.288  11.419   2.753
45210SOL    HW237464   0.427  11.421   2.692
45211SOL     OW37465   9.813  11.425   4.517
45211SOL    HW137466   9.862  11.386   4.589
45211SOL    HW237467   9.849  11.514   4.509
45212SOL     OW37468   0.438   2.758  12.533
45212SOL    HW137469   0.381   2.826  12.568
45212SOL    HW237470   0.380   2.683  12.519
45213SOL     OW37471   4.424   8.003   3.181
45213SOL    HW137472   4.504   7.951   3.183
45213SOL    HW237473   4.438   8.068   3.112
45214SOL     OW37474   3.689   6.041   4.289
45214SOL    HW137475   3.647   6.072   4.369
45214SOL    HW237476   3.768   6.094   4.281
45215SOL     OW37477   9.553   9.143   5.213
45215SOL    HW137478   9.485   9.127   5.147
45215SOL    HW237479   9.633   9.106   5.175
45216SOL     OW37480   6.855   4.282  12.202
45216SOL    HW137481   6.820   4.356  12.251
45216SOL    HW237482   6.838   4.303  12.110
45217SOL     OW37483   9.885   7.521   3.292
45217SOL    HW137484   9.974   7.552   3.310
45217SOL    HW237485   9.839   7.599   3.261
45218SOL     OW37486  14.834   2.747   9.880
45218SOL    HW137487   0.020   2.698   9.830
45218SOL    HW237488  14.874   2.757   9.967
45219SOL     OW37489  10.751   9.318   1.214
45219SOL    HW137490  10.838   9.306   1.251
45219SOL    HW237491  10.694   9.263   1.267
45220SOL     OW37492  11.540  10.986  10.540
45220SOL    HW137493  11.464  11.028  10.578
45220SOL    HW237494  11.562  11.039  10.464
45221SOL     OW37495   1.656   7.724   7.804
45221SOL    HW137496   1.596   7.658   7.770
45221SOL    HW237497   1.721   7.736   7.735
45222SOL     OW37498   2.819   9.649   0.755
45222SOL    HW137499   2.905   9.691   0.755
45222SOL    HW237500   2.834   9.564   0.798
45223SOL     OW37501   5.420  11.637   3.588
45223SOL    HW137502   5.491  11.605   3.644
45223SOL    HW237503   5.464  11.669   3.509
45224SOL     OW37504   7.611   8.425   3.728
45224SOL    HW137505   7.591   8.456   3.816
45224SOL    HW237506   7.671   8.490   3.692
45225SOL     OW37507   9.986   1.161  14.505
45225SOL    HW137508  10.046   1.172  14.578
45225SOL    HW237509   9.904   1.132  14.545
45226SOL     OW37510  13.694  13.840   3.117
45226SOL    HW137511  13.630  13.909   3.099
45226SOL    HW237512  13.643  13.772   3.162
45227SOL     OW37513  12.709   2.127  10.173
45227SOL    HW137514  12.668   2.143  10.259
45227SOL    HW237515  12.731   2.215  10.141
45228SOL     OW37516   0.616   0.293   4.575
45228SOL    HW137517   0.670   0.285   4.653
45228SOL    HW237518   0.643   0.220   4.519
45229SOL     OW37519  10.159  10.053  11.940
45229SOL    HW137520  10.153  10.062  11.845
45229SOL    HW237521  10.080  10.096  11.973
45230SOL     OW37522   9.300  11.943   3.700
45230SOL    HW137523   9.319  11.853   3.675
45230SOL    HW237524   9.305  11.942   3.796
45231SOL     OW37525   7.760   8.624   4.808
45231SOL    HW137526   7.786   8.592   4.894
45231SOL    HW237527   7.679   8.673   4.825
45232SOL     OW37528   6.429   9.023  11.601
45232SOL    HW137529   6.353   8.966  11.599
45232SOL    HW237530   6.504   8.963  11.599
45233SOL     OW37531   6.431   4.102   4.225
45233SOL    HW137532   6.464   4.144   4.146
45233SOL    HW237533   6.508   4.092   4.281
45234SOL     OW37534   3.243   6.734  14.005
45234SOL    HW137535   3.311   6.745  13.939
45234SOL    HW237536   3.269   6.656  14.054
45235SOL     OW37537  10.519   6.369  10.411
45235SOL    HW137538  10.450   6.432  10.390
45235SOL    HW237539  10.587   6.386  10.346
45236SOL     OW37540   7.499   8.390   2.511
45236SOL    HW137541   7.482   8.477   2.547
45236SOL    HW237542   7.495   8.331   2.587
45237SOL     OW37543   2.043   0.321  13.884
45237SOL    HW137544   1.986   0.320  13.961
45237SOL    HW237545   1.984   0.339  13.811
45238SOL     OW37546  12.747   4.166  14.100
45238SOL    HW137547  12.822   4.113  14.074
45238SOL    HW237548  12.775   4.210  14.180
45239SOL     OW37549   1.363  11.517  11.062
45239SOL    HW137550   1.310  11.460  11.118
45239SOL    HW237551   1.418  11.457  11.012
45240SOL     OW37552   6.682   5.459   7.566
45240SOL    HW137553   6.754   5.487   7.622
45240SOL    HW237554   6.701   5.498   7.481
45241SOL     OW37555   5.034   2.141   0.227
45241SOL    HW137556   4.979   2.213   0.258
45241SOL    HW237557   5.036   2.079   0.300
45242SOL     OW37558  14.783  12.953  12.550
45242SOL    HW137559  14.765  13.046  12.559
45242SOL    HW237560  14.875  12.948  12.527
45243SOL     OW37561   5.570   9.434   3.323
45243SOL    HW137562   5.583   9.459   3.232
45243SOL    HW237563   5.558   9.339   3.320
45244SOL     OW37564  10.658  10.875   6.180
45244SOL    HW137565  10.744  10.887   6.139
45244SOL    HW237566  10.609  10.953   6.156
45245SOL     OW37567   9.777  10.935   8.697
45245SOL    HW137568   9.707  10.952   8.760
45245SOL    HW237569   9.856  10.970   8.739
45246SOL     OW37570   9.224  13.722   2.310
45246SOL    HW137571   9.231  13.781   2.235
45246SOL    HW237572   9.132  13.697   2.312
45247SOL     OW37573   8.973   2.976   2.874
45247SOL    HW137574   9.028   3.053   2.858
45247SOL    HW237575   9.022   2.904   2.834
45248SOL     OW37576   6.700   2.945   6.944
45248SOL    HW137577   6.686   2.927   6.851
45248SOL    HW237578   6.637   2.888   6.989
45249SOL     OW37579  10.357   6.283   3.529
45249SOL    HW137580  10.315   6.366   3.506
45249SOL    HW237581  10.292   6.237   3.582
45250SOL     OW37582   4.051   7.624   5.237
45250SOL    HW137583   4.070   7.625   5.144
45250SOL    HW237584   4.137   7.630   5.279
45251SOL     OW37585   6.568   7.611   4.843
45251SOL    HW137586   6.624   7.684   4.869
45251SOL    HW237587   6.566   7.616   4.747
45252SOL     OW37588  14.085  13.955  13.468
45252SOL    HW137589  14.005  13.903  13.465
45252SOL    HW237590  14.063  14.030  13.523
45253SOL     OW37591   0.535   1.435  13.320
45253SOL    HW137592   0.552   1.368  13.386
45253SOL    HW237593   0.584   1.512  13.350
45254SOL     OW37594   9.351   9.684  10.795
45254SOL    HW137595   9.281   9.714  10.852
45254SOL    HW237596   9.379   9.601  10.833
45255SOL     OW37597  14.139  13.984   9.280
45255SOL    HW137598  14.092  13.949   9.205
45255SOL    HW237599  14.231  13.977   9.256
45256SOL     OW37600   1.509  14.674   1.174
45256SOL    HW137601   1.486  14.616   1.246
45256SOL    HW237602   1.597  14.647   1.148
45257SOL     OW37603   3.208   4.210  13.393
45257SOL    HW137604   3.125   4.166  13.409
45257SOL    HW237605   3.196   4.255  13.310
45258SOL     OW37606   5.243   9.497   6.670
45258SOL    HW137607   5.195   9.550   6.734
45258SOL    HW237608   5.234   9.544   6.588
45259SOL     OW37609   6.443   6.411   8.842
45259SOL    HW137610   6.454   6.354   8.766
45259SOL    HW237611   6.417   6.496   8.806
45260SOL     OW37612   9.551   4.448   2.082
45260SOL    HW137613   9.573   4.414   1.995
45260SOL    HW237614   9.531   4.540   2.067
45261SOL     OW37615  13.695   0.593   9.560
45261SOL    HW137616  13.749   0.574   9.637
45261SOL    HW237617  13.756   0.625   9.495
45262SOL     OW37618   9.121  14.879   3.956
45262SOL    HW137619   9.034   0.039   3.958
45262SOL    HW237620   9.118  14.816   3.884
45263SOL     OW37621   0.868   7.660   6.269
45263SOL    HW137622   0.828   7.575   6.288
45263SOL    HW237623   0.801   7.707   6.219
45264SOL     OW37624   5.330  10.142   1.147
45264SOL    HW137625   5.307  10.084   1.074
45264SOL    HW237626   5.340  10.083   1.222
45265SOL     OW37627  10.148   6.185   9.369
45265SOL    HW137628  10.165   6.139   9.451
45265SOL    HW237629  10.223   6.244   9.359
45266SOL     OW37630   3.839  12.478   0.358
45266SOL    HW137631   3.875  12.453   0.272
45266SOL    HW237632   3.916  12.498   0.411
45267SOL     OW37633   3.750  12.860  10.278
45267SOL    HW137634   3.728  12.876  10.371
45267SOL    HW237635   3.697  12.924  10.230
45268SOL     OW37636  14.057  14.874   9.669
45268SOL    HW137637  13.967   0.014   9.694
45268SOL    HW237638  14.056  14.781   9.645
45269SOL     OW37639   2.066  12.244   9.917
45269SOL    HW137640   1.994  12.222   9.977
45269SOL    HW237641   2.042  12.329   9.881
45270SOL     OW37642   7.668   8.865   9.460
45270SOL    HW137643   7.627   8.915   9.389
45270SOL    HW237644   7.617   8.785   9.466
45271SOL     OW37645  14.256   3.558   6.556
45271SOL    HW137646  14.283   3.512   6.477
45271SOL    HW237647  14.200   3.495   6.602
45272SOL     OW37648  10.507   8.832  11.758
45272SOL    HW137649  10.435   8.793  11.708
45272SOL    HW237650  10.467   8.860  11.841
45273SOL     OW37651   7.978  14.124   7.227
45273SOL    HW137652   7.963  14.117   7.322
45273SOL    HW237653   7.893  14.105   7.188
45274SOL     OW37654   4.141  10.505  12.611
45274SOL    HW137655   4.130  10.526  12.704
45274SOL    HW237656   4.064  10.453  12.589
45275SOL     OW37657  11.495  13.254  11.793
45275SOL    HW137658  11.413  13.301  11.777
45275SOL    HW237659  11.545  13.311  11.851
45276SOL     OW37660  14.612   5.444   7.946
45276SOL    HW137661  14.595   5.371   7.886
45276SOL    HW237662  14.614   5.403   8.032
45277SOL     OW37663   7.016   5.899   1.655
45277SOL    HW137664   7.024   5.993   1.670
45277SOL    HW237665   6.931   5.876   1.692
45278SOL     OW37666   5.617   9.069   6.822
45278SOL    HW137667   5.577   9.071   6.735
45278SOL    HW237668   5.659   9.154   6.832
45279SOL     OW37669  14.766   1.588   9.443
45279SOL    HW137670  14.678   1.619   9.422
45279SOL    HW237671  14.793   1.642   9.518
45280SOL     OW37672   7.770  12.569   1.984
45280SOL    HW137673   7.743  12.654   1.950
45280SOL    HW237674   7.864  12.565   1.965
45281SOL     OW37675  14.675  11.096   5.445
45281SOL    HW137676  14.589  11.118   5.410
45281SOL    HW237677  14.680  11.145   5.527
45282SOL     OW37678  10.827  12.873   0.739
45282SOL    HW137679  10.898  12.887   0.801
45282SOL    HW237680  10.863  12.903   0.655
45283SOL     OW37681  10.614   0.369   8.228
45283SOL    HW137682  10.685   0.319   8.270
45283SOL    HW237683  10.564   0.304   8.180
45284SOL     OW37684  14.876   9.615  13.666
45284SOL    HW137685  14.818   9.670  13.614
45284SOL    HW237686  14.861   9.526  13.633
45285SOL     OW37687   2.428   1.752  13.112
45285SOL    HW137688   2.431   1.733  13.018
45285SOL    HW237689   2.341   1.790  13.126
45286SOL     OW37690   5.952   5.204   3.980
45286SOL    HW137691   6.010   5.262   3.929
45286SOL    HW237692   6.010   5.136   4.013
45287SOL     OW37693   0.353  11.529   9.878
45287SOL    HW137694   0.365  11.622   9.860
45287SOL    HW237695   0.270  11.507   9.836
45288SOL     OW37696   5.349   7.945   6.848
45288SOL    HW137697   5.435   7.902   6.852
45288SOL    HW237698   5.294   7.895   6.908
45289SOL     OW37699  13.331   2.744   5.712
45289SOL    HW137700  13.284   2.827   5.708
45289SOL    HW237701  13.346   2.721   5.620
45290SOL     OW37702   0.742   3.240   2.746
45290SOL    HW137703   0.735   3.335   2.755
45290SOL    HW237704   0.662   3.207   2.788
45291SOL     OW37705   8.580  10.410   1.734
45291SOL    HW137706   8.584  10.444   1.644
45291SOL    HW237707   8.560  10.317   1.723
45292SOL     OW37708  14.495  12.668   4.855
45292SOL    HW137709  14.402  12.647   4.846
45292SOL    HW237710  14.523  12.692   4.767
45293SOL     OW37711   1.893  11.087   2.816
45293SOL    HW137712   1.974  11.139   2.808
45293SOL    HW237713   1.825  11.144   2.781
45294SOL     OW37714   9.153   7.155   6.464
45294SOL    HW137715   9.201   7.225   6.508
45294SOL    HW237716   9.167   7.078   6.519
45295SOL     OW37717   9.019  12.018   0.015
45295SOL    HW137718   9.082  11.968   0.068
45295SOL    HW237719   9.070  12.048  14.819
45296SOL     OW37720   7.535   5.678   6.673
45296SOL    HW137721   7.625   5.658   6.696
45296SOL    HW237722   7.534   5.680   6.578
45297SOL     OW37723   5.820   1.372  10.542
45297SOL    HW137724   5.878   1.448  10.550
45297SOL    HW237725   5.874   1.297  10.566
45298SOL     OW37726   8.774   1.846   1.806
45298SOL    HW137727   8.699   1.872   1.753
45298SOL    HW237728   8.800   1.926   1.852
45299SOL     OW37729   2.446   2.004   6.209
45299SOL    HW137730   2.408   1.988   6.122
45299SOL    HW237731   2.441   2.099   6.221
45300SOL     OW37732   1.918  11.787   0.499
45300SOL    HW137733   1.956  11.867   0.461
45300SOL    HW237734   1.981  11.718   0.476
45301SOL     OW37735  14.413  10.803  12.701
45301SOL    HW137736  14.458  10.881  12.666
45301SOL    HW237737  14.465  10.778  12.777
45302SOL     OW37738  14.088  10.402   3.715
45302SOL    HW137739  14.066  10.323   3.765
45302SOL    HW237740  14.183  10.411   3.725
45303SOL     OW37741   4.268  13.227   0.922
45303SOL    HW137742   4.200  13.253   0.860
45303SOL    HW237743   4.305  13.309   0.953
45304SOL     OW37744  10.861   6.617   3.092
45304SOL    HW137745  10.837   6.634   3.183
45304SOL    HW237746  10.890   6.526   3.091
45305SOL     OW37747   8.475   8.766   7.827
45305SOL    HW137748   8.463   8.740   7.735
45305SOL    HW237749   8.386   8.772   7.861
45306SOL     OW37750   6.349   6.436  10.368
45306SOL    HW137751   6.262   6.420  10.332
45306SOL    HW237752   6.337   6.431  10.463
45307SOL     OW37753   6.483   9.624   4.516
45307SOL    HW137754   6.555   9.573   4.553
45307SOL    HW237755   6.484   9.706   4.564
45308SOL     OW37756   1.376   8.886  10.429
45308SOL    HW137757   1.410   8.940  10.358
45308SOL    HW237758   1.427   8.912  10.506
45309SOL     OW37759   4.031   1.915   0.684
45309SOL    HW137760   4.064   1.836   0.641
45309SOL    HW237761   4.005   1.886   0.772
45310SOL     OW37762   3.097  13.909   4.924
45310SOL    HW137763   3.019  13.954   4.893
45310SOL    HW237764   3.150  13.976   4.967
45311SOL     OW37765   9.667   9.424   9.405
45311SOL    HW137766   9.734   9.490   9.421
45311SOL    HW237767   9.712   9.355   9.356
45312SOL     OW37768  13.843  13.657   4.356
45312SOL    HW137769  13.877  13.743   4.328
45312SOL    HW237770  13.875  13.647   4.446
45313SOL     OW37771  11.139   3.003   7.199
45313SOL    HW137772  11.231   3.025   7.183
45313SOL    HW237773  11.130   2.914   7.165
45314SOL     OW37774   1.436   5.429  12.530
45314SOL    HW137775   1.415   5.481  12.608
45314SOL    HW237776   1.485   5.490  12.474
45315SOL     OW37777  13.631   2.985   1.795
45315SOL    HW137778  13.584   3.061   1.761
45315SOL    HW237779  13.601   2.912   1.740
45316SOL     OW37780   0.719   3.071   3.643
45316SOL    HW137781   0.628   3.050   3.662
45316SOL    HW237782   0.770   3.018   3.704
45317SOL     OW37783   3.498   5.140   9.337
45317SOL    HW137784   3.434   5.101   9.397
45317SOL    HW237785   3.533   5.065   9.289
45318SOL     OW37786   8.998  11.634  13.184
45318SOL    HW137787   9.081  11.607  13.144
45318SOL    HW237788   9.011  11.621  13.278
45319SOL     OW37789   8.012   7.819  11.689
45319SOL    HW137790   8.107   7.823  11.699
45319SOL    HW237791   7.990   7.728  11.710
45320SOL     OW37792   6.144   1.847   8.859
45320SOL    HW137793   6.202   1.899   8.914
45320SOL    HW237794   6.108   1.780   8.919
45321SOL     OW37795  12.489   0.855  10.651
45321SOL    HW137796  12.547   0.847  10.575
45321SOL    HW237797  12.442   0.937  10.636
45322SOL     OW37798   5.539   9.361   7.860
45322SOL    HW137799   5.446   9.383   7.871
45322SOL    HW237800   5.584   9.415   7.925
45323SOL     OW37801  11.791   3.606  14.808
45323SOL    HW137802  11.820   3.519  14.780
45323SOL    HW237803  11.760   3.593   0.018
45324SOL     OW37804   8.916   3.424   1.804
45324SOL    HW137805   8.918   3.442   1.710
45324SOL    HW237806   8.942   3.332   1.812
45325SOL     OW37807   7.647  10.721   8.476
45325SOL    HW137808   7.564  10.769   8.477
45325SOL    HW237809   7.623  10.629   8.479
45326SOL     OW37810   7.372   3.083  13.820
45326SOL    HW137811   7.375   3.007  13.762
45326SOL    HW237812   7.366   3.047  13.908
45327SOL     OW37813  14.868   4.716   9.668
45327SOL    HW137814   0.082   4.707   9.647
45327SOL    HW237815  14.844   4.631   9.703
45328SOL     OW37816  13.868   7.758   5.892
45328SOL    HW137817  13.898   7.729   5.979
45328SOL    HW237818  13.822   7.841   5.910
45329SOL     OW37819   5.609  13.076   4.260
45329SOL    HW137820   5.692  13.031   4.244
45329SOL    HW237821   5.543  13.007   4.258
45330SOL     OW37822  11.370   7.603   4.925
45330SOL    HW137823  11.439   7.640   4.981
45330SOL    HW237824  11.383   7.509   4.930
45331SOL     OW37825   6.841   4.522   8.058
45331SOL    HW137826   6.753   4.496   8.032
45331SOL    HW237827   6.847   4.498   8.151
45332SOL     OW37828  10.304  13.088   2.253
45332SOL    HW137829  10.366  13.158   2.235
45332SOL    HW237830  10.340  13.012   2.207
45333SOL     OW37831   4.471   3.665   4.123
45333SOL    HW137832   4.559   3.663   4.159
45333SOL    HW237833   4.416   3.622   4.189
45334SOL     OW37834   5.492   8.314   8.986
45334SOL    HW137835   5.564   8.264   8.948
45334SOL    HW237836   5.492   8.290   9.078
45335SOL     OW37837   3.521   4.347   6.117
45335SOL    HW137838   3.442   4.322   6.069
45335SOL    HW237839   3.558   4.264   6.148
45336SOL     OW37840   4.547  11.987   3.811
45336SOL    HW137841   4.568  12.017   3.723
45336SOL    HW237842   4.525  12.067   3.859
45337SOL     OW37843   6.305   5.759   6.404
45337SOL    HW137844   6.338   5.669   6.401
45337SOL    HW237845   6.211   5.749   6.389
45338SOL     OW37846  13.194  14.148  11.670
45338SOL    HW137847  13.204  14.065  11.715
45338SOL    HW237848  13.142  14.202  11.730
45339SOL     OW37849   9.434   9.492   5.248
45339SOL    HW137850   9.371   9.514   5.179
45339SOL    HW237851   9.412   9.403   5.273
45340SOL     OW37852   8.232  14.823  13.353
45340SOL    HW137853   8.309  14.870  13.321
45340SOL    HW237854   8.249  14.812  13.447
45341SOL     OW37855   7.710  12.362  13.844
45341SOL    HW137856   7.785  12.397  13.891
45341SOL    HW237857   7.649  12.334  13.912
45342SOL     OW37858   3.081   4.395  13.197
45342SOL    HW137859   3.103   4.473  13.248
45342SOL    HW237860   3.056   4.430  13.111
45343SOL     OW37861   3.056   2.609   7.780
45343SOL    HW137862   3.018   2.619   7.867
45343SOL    HW237863   3.060   2.698   7.745
45344SOL     OW37864   4.724   0.808   6.689
45344SOL    HW137865   4.804   0.813   6.741
45344SOL    HW237866   4.700   0.899   6.672
45345SOL     OW37867  13.256  13.537   3.104
45345SOL    HW137868  13.263  13.609   3.165
45345SOL    HW237869  13.270  13.459   3.157
45346SOL     OW37870   8.267   9.206   6.494
45346SOL    HW137871   8.183   9.197   6.449
45346SOL    HW237872   8.272   9.130   6.551
45347SOL     OW37873   3.725   2.252  12.486
45347SOL    HW137874   3.784   2.323  12.460
45347SOL    HW237875   3.732   2.250  12.582
45348SOL     OW37876   8.221   3.750  10.288
45348SOL    HW137877   8.247   3.832  10.246
45348SOL    HW237878   8.172   3.703  10.221
45349SOL     OW37879   9.095   1.965  14.358
45349SOL    HW137880   9.023   1.956  14.420
45349SOL    HW237881   9.169   1.922  14.401
45350SOL     OW37882   6.788   7.695   4.980
45350SOL    HW137883   6.732   7.637   5.032
45350SOL    HW237884   6.871   7.647   4.971
45351SOL     OW37885   7.408   4.270   1.418
45351SOL    HW137886   7.494   4.238   1.389
45351SOL    HW237887   7.419   4.365   1.423
45352SOL     OW37888   6.384   2.233  11.611
45352SOL    HW137889   6.299   2.189  11.612
45352SOL    HW237890   6.367   2.316  11.567
45353SOL     OW37891  12.228  11.493   8.698
45353SOL    HW137892  12.318  11.474   8.723
45353SOL    HW237893  12.228  11.489   8.602
45354SOL     OW37894   6.709  14.815  12.830
45354SOL    HW137895   6.657  14.879  12.781
45354SOL    HW237896   6.734  14.860  12.910
45355SOL     OW37897   8.088  12.998  14.632
45355SOL    HW137898   8.077  13.026  14.541
45355SOL    HW237899   8.181  12.979  14.640
45356SOL     OW37900   5.559   7.597  14.436
45356SOL    HW137901   5.644   7.630  14.467
45356SOL    HW237902   5.499   7.670  14.448
45357SOL     OW37903   6.417  14.532   3.731
45357SOL    HW137904   6.485  14.591   3.697
45357SOL    HW237905   6.341  14.551   3.676
45358SOL     OW37906   4.366   0.667   2.158
45358SOL    HW137907   4.384   0.612   2.082
45358SOL    HW237908   4.386   0.610   2.233
45359SOL     OW37909   2.190  12.887  13.617
45359SOL    HW137910   2.196  12.956  13.551
45359SOL    HW237911   2.126  12.919  13.680
45360SOL     OW37912  10.124  10.776  12.320
45360SOL    HW137913  10.063  10.805  12.253
45360SOL    HW237914  10.127  10.681  12.311
45361SOL     OW37915   3.822   5.123  13.336
45361SOL    HW137916   3.772   5.098  13.258
45361SOL    HW237917   3.821   5.219  13.336
45362SOL     OW37918  12.984  11.915   0.474
45362SOL    HW137919  12.928  11.882   0.404
45362SOL    HW237920  12.950  12.002   0.493
45363SOL     OW37921   7.385  11.546  12.571
45363SOL    HW137922   7.290  11.534  12.578
45363SOL    HW237923   7.415  11.552  12.661
45364SOL     OW37924   9.994   8.074   4.313
45364SOL    HW137925   9.955   8.089   4.227
45364SOL    HW237926   9.937   8.121   4.374
45365SOL     OW37927  12.407   3.250   9.165
45365SOL    HW137928  12.380   3.210   9.248
45365SOL    HW237929  12.378   3.341   9.171
45366SOL     OW37930   0.779  10.554   7.274
45366SOL    HW137931   0.803  10.608   7.198
45366SOL    HW237932   0.773  10.615   7.347
45367SOL     OW37933  12.062   5.389   6.196
45367SOL    HW137934  12.067   5.303   6.238
45367SOL    HW237935  12.130   5.441   6.239
45368SOL     OW37936  13.278   8.134   3.616
45368SOL    HW137937  13.289   8.178   3.701
45368SOL    HW237938  13.189   8.157   3.589
45369SOL     OW37939   6.807  12.145   9.227
45369SOL    HW137940   6.729  12.089   9.217
45369SOL    HW237941   6.873  12.103   9.172
45370SOL     OW37942  10.407  10.073   6.687
45370SOL    HW137943  10.366  10.068   6.601
45370SOL    HW237944  10.409   9.982   6.718
45371SOL     OW37945  13.806  11.186  13.867
45371SOL    HW137946  13.745  11.258  13.884
45371SOL    HW237947  13.824  11.148  13.953
45372SOL     OW37948   4.553  12.591  11.333
45372SOL    HW137949   4.493  12.518  11.316
45372SOL    HW237950   4.497  12.668  11.331
45373SOL     OW37951  10.464   7.105  14.071
45373SOL    HW137952  10.395   7.145  14.124
45373SOL    HW237953  10.438   7.013  14.063
45374SOL     OW37954   3.314  14.180  12.436
45374SOL    HW137955   3.273  14.267  12.445
45374SOL    HW237956   3.379  14.177  12.506
45375SOL     OW37957   8.696   0.309   6.879
45375SOL    HW137958   8.642   0.231   6.862
45375SOL    HW237959   8.741   0.326   6.796
45376SOL     OW37960   3.721   8.546  11.610
45376SOL    HW137961   3.641   8.569  11.562
45376SOL    HW237962   3.758   8.473  11.560
45377SOL     OW37963   6.676   6.904   6.073
45377SOL    HW137964   6.667   6.888   6.167
45377SOL    HW237965   6.708   6.821   6.038
45378SOL     OW37966  10.924   8.306  13.238
45378SOL    HW137967  10.983   8.248  13.285
45378SOL    HW237968  10.881   8.250  13.174
45379SOL     OW37969  12.907   9.491  13.650
45379SOL    HW137970  12.901   9.580  13.686
45379SOL    HW237971  12.998   9.466  13.662
45380SOL     OW37972   6.390   9.321  13.689
45380SOL    HW137973   6.387   9.381  13.615
45380SOL    HW237974   6.299   9.301  13.708
45381SOL     OW37975  14.523   6.224   3.892
45381SOL    HW137976  14.599   6.166   3.896
45381SOL    HW237977  14.534   6.273   3.811
45382SOL     OW37978   2.464   1.245   8.152
45382SOL    HW137979   2.523   1.299   8.099
45382SOL    HW237980   2.517   1.219   8.228
45383SOL     OW37981   1.841   2.904  12.519
45383SOL    HW137982   1.853   2.820  12.564
45383SOL    HW237983   1.789   2.957  12.579
45384SOL     OW37984  14.008  10.045   4.695
45384SOL    HW137985  13.931   9.992   4.678
45384SOL    HW237986  14.082   9.986   4.681
45385SOL     OW37987   7.981   5.453   6.676
45385SOL    HW137988   8.077   5.455   6.680
45385SOL    HW237989   7.962   5.434   6.584
45386SOL     OW37990   9.756  14.699   6.001
45386SOL    HW137991   9.798  14.629   6.051
45386SOL    HW237992   9.768  14.673   5.909
45387SOL     OW37993   2.854  11.392   0.622
45387SOL    HW137994   2.806  11.412   0.541
45387SOL    HW237995   2.806  11.320   0.662
45388SOL     OW37996  14.043   2.602   3.345
45388SOL    HW137997  14.020   2.509   3.337
45388SOL    HW237998  14.126   2.611   3.299
45389SOL     OW37999  10.228   1.189  12.236
45389SOL    HW138000  10.215   1.118  12.173
45389SOL    HW238001  10.309   1.231  12.208
45390SOL     OW38002  11.708  14.671   8.956
45390SOL    HW138003  11.752  14.604   9.009
45390SOL    HW238004  11.686  14.740   9.019
45391SOL     OW38005   8.755  11.634   8.736
45391SOL    HW138006   8.807  11.606   8.661
45391SOL    HW238007   8.811  11.698   8.780
45392SOL     OW38008   8.506   9.511   6.730
45392SOL    HW138009   8.453   9.564   6.790
45392SOL    HW238010   8.501   9.422   6.767
45393SOL     OW38011  14.874   6.633   6.927
45393SOL    HW138012  14.800   6.636   6.867
45393SOL    HW238013   0.052   6.565   6.891
45394SOL     OW38014   5.845   3.712  10.128
45394SOL    HW138015   5.809   3.626  10.149
45394SOL    HW238016   5.843   3.760  10.211
45395SOL     OW38017   6.827   6.456  11.922
45395SOL    HW138018   6.900   6.509  11.892
45395SOL    HW238019   6.847   6.436  12.013
45396SOL     OW38020  12.025   1.696   7.733
45396SOL    HW138021  12.013   1.674   7.825
45396SOL    HW238022  11.975   1.630   7.685
45397SOL     OW38023   8.679  10.442  10.869
45397SOL    HW138024   8.591  10.430  10.834
45397SOL    HW238025   8.730  10.371  10.829
45398SOL     OW38026   8.191   6.803   1.225
45398SOL    HW138027   8.104   6.780   1.192
45398SOL    HW238028   8.181   6.891   1.263
45399SOL     OW38029   0.196   9.292  10.192
45399SOL    HW138030   0.259   9.315  10.260
45399SOL    HW238031   0.242   9.229  10.137
45400SOL     OW38032   1.734   4.443  12.381
45400SOL    HW138033   1.828   4.451  12.367
45400SOL    HW238034   1.716   4.350  12.371
45401SOL     OW38035  13.984   9.178   5.183
45401SOL    HW138036  14.019   9.191   5.271
45401SOL    HW238037  14.049   9.219   5.125
45402SOL     OW38038  12.590  11.317  13.236
45402SOL    HW138039  12.638  11.395  13.265
45402SOL    HW238040  12.586  11.326  13.141
45403SOL     OW38041  14.764   3.394   2.579
45403SOL    HW138042  14.755   3.431   2.491
45403SOL    HW238043  14.835   3.444   2.619
45404SOL     OW38044   6.625   4.720   4.597
45404SOL    HW138045   6.702   4.728   4.540
45404SOL    HW238046   6.552   4.750   4.542
45405SOL     OW38047   8.150   4.457   3.775
45405SOL    HW138048   8.147   4.526   3.842
45405SOL    HW238049   8.155   4.375   3.824
45406SOL     OW38050  12.122   3.004   9.786
45406SOL    HW138051  12.138   3.013   9.693
45406SOL    HW238052  12.054   3.068   9.805
45407SOL     OW38053   9.377   2.262  11.105
45407SOL    HW138054   9.416   2.334  11.156
45407SOL    HW238055   9.348   2.200  11.171
45408SOL     OW38056   8.725  11.786   0.649
45408SOL    HW138057   8.697  11.696   0.632
45408SOL    HW238058   8.815  11.791   0.617
45409SOL     OW38059   0.966   2.463  14.495
45409SOL    HW138060   0.918   2.512  14.561
45409SOL    HW238061   0.988   2.380  14.538
45410SOL     OW38062   3.298  13.119   2.762
45410SOL    HW138063   3.377  13.151   2.806
45410SOL    HW238064   3.262  13.196   2.719
45411SOL     OW38065  12.830   3.628   1.643
45411SOL    HW138066  12.754   3.686   1.647
45411SOL    HW238067  12.871   3.636   1.729
45412SOL     OW38068  12.572   6.681   3.244
45412SOL    HW138069  12.616   6.729   3.174
45412SOL    HW238070  12.523   6.748   3.292
45413SOL     OW38071   2.972  10.218   8.203
45413SOL    HW138072   3.067  10.214   8.203
45413SOL    HW238073   2.949  10.253   8.116
45414SOL     OW38074   1.020  12.417  14.635
45414SOL    HW138075   1.019  12.385  14.544
45414SOL    HW238076   0.953  12.486  14.636
45415SOL     OW38077  13.809   9.927   2.703
45415SOL    HW138078  13.791   9.976   2.783
45415SOL    HW238079  13.904   9.928   2.696
45416SOL     OW38080  13.646   9.029   0.635
45416SOL    HW138081  13.573   8.971   0.618
45416SOL    HW238082  13.699   9.026   0.555
45417SOL     OW38083   7.238  11.501  11.866
45417SOL    HW138084   7.213  11.546  11.947
45417SOL    HW238085   7.273  11.417  11.895
45418SOL     OW38086   4.431   2.880  13.673
45418SOL    HW138087   4.365   2.849  13.610
45418SOL    HW238088   4.387   2.873  13.758
45419SOL     OW38089  12.596   0.547   8.290
45419SOL    HW138090  12.633   0.602   8.221
45419SOL    HW238091  12.619   0.591   8.372
45420SOL     OW38092  13.920   7.609   8.648
45420SOL    HW138093  13.889   7.549   8.581
45420SOL    HW238094  13.844   7.622   8.705
45421SOL     OW38095   6.861   8.192  14.865
45421SOL    HW138096   6.934   8.198  14.803
45421SOL    HW238097   6.788   8.235  14.821
45422SOL     OW38098   0.072   1.750   5.807
45422SOL    HW138099   0.165   1.745   5.786
45422SOL    HW238100   0.064   1.703   5.890
45423SOL     OW38101  11.037   9.484   2.427
45423SOL    HW138102  11.130   9.504   2.436
45423SOL    HW238103  10.993   9.567   2.447
45424SOL     OW38104  11.843   2.736   0.880
45424SOL    HW138105  11.860   2.786   0.960
45424SOL    HW238106  11.784   2.666   0.907
45425SOL     OW38107   1.560   7.358  14.169
45425SOL    HW138108   1.637   7.344  14.114
45425SOL    HW238109   1.489   7.313  14.124
45426SOL     OW38110  13.257   8.075   4.602
45426SOL    HW138111  13.213   8.116   4.527
45426SOL    HW238112  13.191   8.017   4.640
45427SOL     OW38113   8.792   0.581  14.870
45427SOL    HW138114   8.728   0.636   0.035
45427SOL    HW238115   8.798   0.617  14.782
45428SOL     OW38116  12.141   9.792  13.924
45428SOL    HW138117  12.211   9.729  13.943
45428SOL    HW238118  12.183   9.858  13.868
45429SOL     OW38119   1.836   8.861   4.741
45429SOL    HW138120   1.785   8.784   4.718
45429SOL    HW238121   1.927   8.832   4.741
45430SOL     OW38122   7.180   0.857   2.385
45430SOL    HW138123   7.212   0.797   2.318
45430SOL    HW238124   7.101   0.815   2.419
45431SOL     OW38125   5.449  11.518   8.103
45431SOL    HW138126   5.479  11.552   8.187
45431SOL    HW238127   5.529  11.503   8.053
45432SOL     OW38128  12.080   5.814   3.220
45432SOL    HW138129  12.148   5.815   3.153
45432SOL    HW238130  12.111   5.750   3.284
45433SOL     OW38131   1.601   0.431  14.858
45433SOL    HW138132   1.689   0.451  14.827
45433SOL    HW238133   1.587   0.340  14.834
45434SOL     OW38134   7.267   4.063  10.558
45434SOL    HW138135   7.178   4.054  10.592
45434SOL    HW238136   7.271   4.153  10.524
45435SOL     OW38137   6.023  11.671  13.652
45435SOL    HW138138   5.933  11.638  13.648
45435SOL    HW238139   6.077  11.598  13.620
45436SOL     OW38140   4.365   8.690   1.222
45436SOL    HW138141   4.286   8.736   1.196
45436SOL    HW238142   4.386   8.635   1.147
45437SOL     OW38143  11.155   3.314   1.127
45437SOL    HW138144  11.086   3.286   1.187
45437SOL    HW238145  11.224   3.249   1.138
45438SOL     OW38146   6.213   1.899   2.226
45438SOL    HW138147   6.303   1.882   2.251
45438SOL    HW238148   6.192   1.984   2.265
45439SOL     OW38149   3.577   9.724   4.034
45439SOL    HW138150   3.485   9.706   4.014
45439SOL    HW238151   3.625   9.686   3.960
45440SOL     OW38152  11.707   2.687  10.451
45440SOL    HW138153  11.716   2.674  10.545
45440SOL    HW238154  11.779   2.637  10.413
45441SOL     OW38155   2.392  12.178   1.893
45441SOL    HW138156   2.427  12.210   1.976
45441SOL    HW238157   2.304  12.217   1.888
45442SOL     OW38158  11.533   0.280  12.377
45442SOL    HW138159  11.497   0.234  12.453
45442SOL    HW238160  11.456   0.307  12.327
45443SOL     OW38161   0.607   3.559  11.853
45443SOL    HW138162   0.610   3.527  11.763
45443SOL    HW238163   0.515   3.576  11.870
45444SOL     OW38164  13.595   3.396   9.175
45444SOL    HW138165  13.644   3.337   9.118
45444SOL    HW238166  13.563   3.464   9.115
45445SOL     OW38167   4.611  14.759  14.694
45445SOL    HW138168   4.609  14.700  14.619
45445SOL    HW238169   4.633  14.702  14.769
45446SOL     OW38170   9.460  10.402   6.729
45446SOL    HW138171   9.555  10.389   6.737
45446SOL    HW238172   9.426  10.313   6.716
45447SOL     OW38173   2.436   9.885  13.705
45447SOL    HW138174   2.508   9.948  13.705
45447SOL    HW238175   2.468   9.812  13.759
45448SOL     OW38176   6.559   4.594   8.844
45448SOL    HW138177   6.528   4.574   8.932
45448SOL    HW238178   6.642   4.546   8.837
45449SOL     OW38179  10.693   6.661  10.310
45449SOL    HW138180  10.777   6.620  10.333
45449SOL    HW238181  10.664   6.613  10.233
45450SOL     OW38182   8.079  13.967   9.598
45450SOL    HW138183   8.050  13.939   9.512
45450SOL    HW238184   8.131  13.893   9.631
45451SOL     OW38185  11.326   6.869   7.478
45451SOL    HW138186  11.330   6.953   7.524
45451SOL    HW238187  11.375   6.809   7.534
45452SOL     OW38188   7.689   6.543   4.144
45452SOL    HW138189   7.648   6.470   4.191
45452SOL    HW238190   7.641   6.547   4.061
45453SOL     OW38191   6.716   2.567   5.714
45453SOL    HW138192   6.713   2.623   5.791
45453SOL    HW238193   6.790   2.508   5.729
45454SOL     OW38194   2.260   4.056   5.141
45454SOL    HW138195   2.297   3.970   5.124
45454SOL    HW238196   2.251   4.096   5.054
45455SOL     OW38197  14.320   4.133   1.599
45455SOL    HW138198  14.330   4.217   1.553
45455SOL    HW238199  14.383   4.137   1.670
45456SOL     OW38200   9.417   9.015   3.059
45456SOL    HW138201   9.506   9.000   3.027
45456SOL    HW238202   9.415   8.976   3.146
45457SOL     OW38203  12.155  13.093  12.469
45457SOL    HW138204  12.240  13.095  12.425
45457SOL    HW238205  12.097  13.049  12.407
45458SOL     OW38206  13.291  10.603   4.529
45458SOL    HW138207  13.340  10.651   4.596
45458SOL    HW238208  13.303  10.511   4.552
45459SOL     OW38209  13.172   9.521   7.052
45459SOL    HW138210  13.216   9.604   7.070
45459SOL    HW238211  13.079   9.540   7.065
45460SOL     OW38212  13.253  10.862   8.871
45460SOL    HW138213  13.216  10.900   8.792
45460SOL    HW238214  13.337  10.825   8.842
45461SOL     OW38215   6.042   4.260   2.757
45461SOL    HW138216   6.085   4.192   2.808
45461SOL    HW238217   6.055   4.340   2.807
45462SOL     OW38218   7.377   6.025   0.857
45462SOL    HW138219   7.358   5.948   0.803
45462SOL    HW238220   7.422   5.989   0.934
45463SOL     OW38221   3.748   7.645  11.394
45463SOL    HW138222   3.688   7.682  11.330
45463SOL    HW238223   3.831   7.691  11.379
45464SOL     OW38224  14.197   8.238   2.732
45464SOL    HW138225  14.251   8.315   2.750
45464SOL    HW238226  14.241   8.167   2.778
45465SOL     OW38227   0.172   2.526   3.906
45465SOL    HW138228   0.082   2.493   3.900
45465SOL    HW238229   0.226   2.452   3.880
45466SOL     OW38230   7.688   7.273   4.747
45466SOL    HW138231   7.623   7.324   4.699
45466SOL    HW238232   7.731   7.336   4.805
45467SOL     OW38233  10.220   3.507   5.843
45467SOL    HW138234  10.195   3.486   5.933
45467SOL    HW238235  10.142   3.550   5.806
45468SOL     OW38236   3.777   9.456  10.511
45468SOL    HW138237   3.775   9.378  10.456
45468SOL    HW238238   3.833   9.518  10.464
45469SOL     OW38239   5.749   7.175   0.354
45469SOL    HW138240   5.687   7.242   0.326
45469SOL    HW238241   5.712   7.093   0.322
45470SOL     OW38242   4.013   8.550   8.296
45470SOL    HW138243   4.048   8.551   8.385
45470SOL    HW238244   4.056   8.623   8.253
45471SOL     OW38245   6.597  12.047  13.892
45471SOL    HW138246   6.671  12.093  13.853
45471SOL    HW238247   6.601  11.959  13.854
45472SOL     OW38248  12.300  10.240  14.543
45472SOL    HW138249  12.343  10.280  14.468
45472SOL    HW238250  12.366  10.183  14.582
45473SOL     OW38251   5.086   0.902   1.100
45473SOL    HW138252   5.084   0.862   1.187
45473SOL    HW238253   5.179   0.909   1.079
45474SOL     OW38254   8.583   7.912   4.090
45474SOL    HW138255   8.661   7.954   4.126
45474SOL    HW238256   8.603   7.896   3.998
45475SOL     OW38257   1.488   6.781  10.287
45475SOL    HW138258   1.398   6.780  10.253
45475SOL    HW238259   1.480   6.823  10.373
45476SOL     OW38260   8.257  14.480   7.888
45476SOL    HW138261   8.290  14.523   7.967
45476SOL    HW238262   8.211  14.403   7.920
45477SOL     OW38263   4.165   4.303  11.208
45477SOL    HW138264   4.181   4.279  11.117
45477SOL    HW238265   4.134   4.393  11.204
45478SOL     OW38266   8.425   4.830   7.299
45478SOL    HW138267   8.412   4.739   7.272
45478SOL    HW238268   8.519   4.843   7.294
45479SOL     OW38269   9.027  12.632  13.341
45479SOL    HW138270   9.055  12.624  13.250
45479SOL    HW238271   9.083  12.700  13.377
45480SOL     OW38272   2.271   2.136  11.319
45480SOL    HW138273   2.205   2.078  11.281
45480SOL    HW238274   2.236   2.160  11.405
45481SOL     OW38275  10.105  13.335  14.795
45481SOL    HW138276  10.048  13.361  14.723
45481SOL    HW238277  10.148  13.255  14.764
45482SOL     OW38278   6.001  10.375  12.333
45482SOL    HW138279   5.930  10.361  12.395
45482SOL    HW238280   6.035  10.462  12.355
45483SOL     OW38281  13.109  13.715  12.163
45483SOL    HW138282  13.067  13.786  12.212
45483SOL    HW238283  13.185  13.756  12.121
45484SOL     OW38284  12.195  11.075   8.083
45484SOL    HW138285  12.241  11.092   8.001
45484SOL    HW238286  12.111  11.038   8.057
45485SOL     OW38287  14.633   3.068   6.939
45485SOL    HW138288  14.721   3.079   6.905
45485SOL    HW238289  14.629   3.126   7.015
45486SOL     OW38290   3.184  11.688   4.822
45486SOL    HW138291   3.131  11.730   4.889
45486SOL    HW238292   3.234  11.760   4.783
45487SOL     OW38293   2.954  13.174   3.292
45487SOL    HW138294   2.894  13.229   3.341
45487SOL    HW238295   2.922  13.177   3.202
45488SOL     OW38296  12.068   2.318   1.649
45488SOL    HW138297  12.089   2.302   1.741
45488SOL    HW238298  12.039   2.409   1.647
45489SOL     OW38299  12.737   1.779   7.318
45489SOL    HW138300  12.758   1.866   7.352
45489SOL    HW238301  12.669   1.747   7.377
45490SOL     OW38302   2.780  13.365   1.491
45490SOL    HW138303   2.691  13.343   1.519
45490SOL    HW238304   2.828  13.377   1.573
45491SOL     OW38305   1.121  12.208   1.122
45491SOL    HW138306   1.193  12.252   1.079
45491SOL    HW238307   1.068  12.172   1.051
45492SOL     OW38308   9.701  10.083   5.824
45492SOL    HW138309   9.769  10.124   5.878
45492SOL    HW238310   9.726   9.991   5.818
45493SOL     OW38311   2.779   7.450  12.646
45493SOL    HW138312   2.729   7.504  12.585
45493SOL    HW238313   2.840   7.401  12.590
45494SOL     OW38314   1.019  14.452  13.098
45494SOL    HW138315   0.936  14.406  13.088
45494SOL    HW238316   1.050  14.427  13.185
45495SOL     OW38317   7.346  13.203  12.160
45495SOL    HW138318   7.321  13.113  12.182
45495SOL    HW238319   7.380  13.198  12.071
45496SOL     OW38320  10.673   5.511  10.886
45496SOL    HW138321  10.692   5.436  10.830
45496SOL    HW238322  10.752   5.564  10.883
45497SOL     OW38323  14.209   9.368   5.562
45497SOL    HW138324  14.234   9.401   5.648
45497SOL    HW238325  14.198   9.446   5.509
45498SOL     OW38326  11.842  13.865  14.344
45498SOL    HW138327  11.817  13.802  14.277
45498SOL    HW238328  11.938  13.857  14.350
45499SOL     OW38329   3.465   2.590  13.923
45499SOL    HW138330   3.463   2.684  13.902
45499SOL    HW238331   3.383   2.575  13.971
45500SOL     OW38332  11.309  10.925  11.595
45500SOL    HW138333  11.217  10.914  11.570
45500SOL    HW238334  11.352  10.957  11.515
45501SOL     OW38335  14.750   4.834   8.712
45501SOL    HW138336  14.751   4.766   8.779
45501SOL    HW238337  14.765   4.788   8.630
45502SOL     OW38338   8.469   3.743  10.749
45502SOL    HW138339   8.489   3.773  10.661
45502SOL    HW238340   8.412   3.667  10.737
45503SOL     OW38341   8.124   2.938   4.651
45503SOL    HW138342   8.145   3.010   4.592
45503SOL    HW238343   8.177   2.864   4.620
45504SOL     OW38344   3.732  11.898   2.675
45504SOL    HW138345   3.779  11.831   2.724
45504SOL    HW238346   3.662  11.927   2.734
45505SOL     OW38347   2.809   5.318  12.743
45505SOL    HW138348   2.822   5.229  12.777
45505SOL    HW238349   2.719   5.317  12.709
45506SOL     OW38350  12.207   2.989   2.145
45506SOL    HW138351  12.175   2.898   2.143
45506SOL    HW238352  12.155   3.034   2.079
45507SOL     OW38353   4.885  13.566   1.468
45507SOL    HW138354   4.895  13.485   1.517
45507SOL    HW238355   4.975  13.598   1.456
45508SOL     OW38356   9.166   0.796   6.780
45508SOL    HW138357   9.217   0.758   6.851
45508SOL    HW238358   9.207   0.762   6.700
45509SOL     OW38359   7.588   2.382   3.921
45509SOL    HW138360   7.538   2.356   3.844
45509SOL    HW238361   7.611   2.300   3.964
45510SOL     OW38362   5.446   8.161   1.261
45510SOL    HW138363   5.448   8.078   1.308
45510SOL    HW238364   5.368   8.206   1.296
45511SOL     OW38365   1.717   5.083   7.995
45511SOL    HW138366   1.748   5.126   7.915
45511SOL    HW238367   1.747   4.992   7.986
45512SOL     OW38368   5.908   6.500  12.173
45512SOL    HW138369   5.866   6.572  12.218
45512SOL    HW238370   5.984   6.478  12.228
45513SOL     OW38371  12.326   4.436   8.766
45513SOL    HW138372  12.359   4.397   8.685
45513SOL    HW238373  12.336   4.367   8.832
45514SOL     OW38374  14.678   1.293   4.413
45514SOL    HW138375  14.739   1.257   4.477
45514SOL    HW238376  14.686   1.388   4.423
45515SOL     OW38377   1.916   4.411   7.838
45515SOL    HW138378   1.841   4.361   7.870
45515SOL    HW238379   1.900   4.500   7.868
45516SOL     OW38380  14.849   5.377   3.688
45516SOL    HW138381  14.871   5.292   3.649
45516SOL    HW238382  14.844   5.359   3.782
45517SOL     OW38383   8.752   6.384   5.425
45517SOL    HW138384   8.768   6.396   5.519
45517SOL    HW238385   8.829   6.421   5.383
45518SOL     OW38386  12.497   3.822   8.965
45518SOL    HW138387  12.509   3.733   8.998
45518SOL    HW238388  12.405   3.842   8.982
45519SOL     OW38389   7.140   7.565   3.172
45519SOL    HW138390   7.203   7.502   3.208
45519SOL    HW238391   7.194   7.627   3.123
45520SOL     OW38392   0.494  11.655  12.004
45520SOL    HW138393   0.529  11.572  11.970
45520SOL    HW238394   0.571  11.701  12.037
45521SOL     OW38395  13.763   8.054   0.953
45521SOL    HW138396  13.854   8.049   0.982
45521SOL    HW238397  13.746   8.147   0.943
45522SOL     OW38398   6.459  14.380   8.980
45522SOL    HW138399   6.371  14.356   8.950
45522SOL    HW238400   6.468  14.472   8.954
45523SOL     OW38401  14.606  12.868   2.312
45523SOL    HW138402  14.682  12.838   2.262
45523SOL    HW238403  14.543  12.896   2.245
45524SOL     OW38404   2.204   3.536   9.845
45524SOL    HW138405   2.243   3.560   9.761
45524SOL    HW238406   2.233   3.446   9.860
45525SOL     OW38407   2.635  12.649   5.792
45525SOL    HW138408   2.664  12.576   5.736
45525SOL    HW238409   2.715  12.685   5.829
45526SOL     OW38410   3.129   7.949   4.766
45526SOL    HW138411   3.090   7.872   4.809
45526SOL    HW238412   3.193   7.913   4.705
45527SOL     OW38413  11.932   7.656  10.604
45527SOL    HW138414  11.921   7.575  10.654
45527SOL    HW238415  12.020   7.686  10.627
45528SOL     OW38416   0.365   1.364   1.170
45528SOL    HW138417   0.371   1.389   1.078
45528SOL    HW238418   0.273   1.376   1.193
45529SOL     OW38419   0.306   1.726  10.643
45529SOL    HW138420   0.313   1.691  10.731
45529SOL    HW238421   0.266   1.655  10.592
45530SOL     OW38422   1.071   8.216   8.877
45530SOL    HW138423   1.055   8.270   8.799
45530SOL    HW238424   0.986   8.176   8.896
45531SOL     OW38425   6.868  12.039   3.074
45531SOL    HW138426   6.805  12.032   3.145
45531SOL    HW238427   6.824  11.998   2.999
45532SOL     OW38428   8.545   3.123   1.274
45532SOL    HW138429   8.599   3.098   1.198
45532SOL    HW238430   8.471   3.170   1.236
45533SOL     OW38431   1.449   7.598   4.853
45533SOL    HW138432   1.528   7.549   4.877
45533SOL    HW238433   1.377   7.545   4.887
45534SOL     OW38434  13.177  10.056  14.578
45534SOL    HW138435  13.253   9.999  14.565
45534SOL    HW238436  13.127  10.047  14.496
45535SOL     OW38437   2.976  11.520  11.340
45535SOL    HW138438   2.893  11.474  11.353
45535SOL    HW238439   2.993  11.513  11.246
45536SOL     OW38440   6.572  13.508  12.435
45536SOL    HW138441   6.558  13.431  12.380
45536SOL    HW238442   6.493  13.515  12.487
45537SOL     OW38443   8.974   2.624  10.610
45537SOL    HW138444   8.888   2.583  10.610
45537SOL    HW238445   9.021   2.581  10.538
45538SOL     OW38446  11.483   4.111  11.000
45538SOL    HW138447  11.476   4.091  11.093
45538SOL    HW238448  11.464   4.204  10.994
45539SOL     OW38449   0.407  12.717   3.707
45539SOL    HW138450   0.429  12.809   3.690
45539SOL    HW238451   0.491  12.673   3.713
45540SOL     OW38452   7.439  11.355  12.336
45540SOL    HW138453   7.503  11.298  12.378
45540SOL    HW238454   7.488  11.434  12.314
45541SOL     OW38455   2.938   4.658   0.406
45541SOL    HW138456   2.977   4.745   0.410
45541SOL    HW238457   2.922   4.635   0.498
45542SOL     OW38458   7.188   4.430  12.129
45542SOL    HW138459   7.200   4.336  12.142
45542SOL    HW238460   7.153   4.438  12.040
45543SOL     OW38461   3.442   6.327   6.490
45543SOL    HW138462   3.532   6.350   6.469
45543SOL    HW238463   3.444   6.232   6.500
45544SOL     OW38464   9.358   2.798   4.626
45544SOL    HW138465   9.371   2.866   4.692
45544SOL    HW238466   9.300   2.735   4.668
45545SOL     OW38467  12.823   9.985   5.050
45545SOL    HW138468  12.765  10.050   5.010
45545SOL    HW238469  12.906   9.995   5.004
45546SOL     OW38470  13.480  14.372   4.308
45546SOL    HW138471  13.498  14.339   4.396
45546SOL    HW238472  13.482  14.294   4.253
45547SOL     OW38473  12.429  10.809  11.583
45547SOL    HW138474  12.521  10.828  11.602
45547SOL    HW238475  12.395  10.775  11.665
45548SOL     OW38476   0.347   8.410   6.301
45548SOL    HW138477   0.442   8.418   6.291
45548SOL    HW238478   0.336   8.348   6.374
45549SOL     OW38479   8.400  12.840  11.471
45549SOL    HW138480   8.370  12.764  11.421
45549SOL    HW238481   8.473  12.874  11.420
45550SOL     OW38482  11.739  13.847   5.510
45550SOL    HW138483  11.706  13.928   5.549
45550SOL    HW238484  11.704  13.778   5.566
45551SOL     OW38485  13.041   6.207   1.399
45551SOL    HW138486  12.985   6.271   1.356
45551SOL    HW238487  13.117   6.198   1.341
45552SOL     OW38488   6.466   0.344  14.481
45552SOL    HW138489   6.530   0.414  14.468
45552SOL    HW238490   6.476   0.318  14.572
45553SOL     OW38491  10.250   8.698   3.925
45553SOL    HW138492  10.279   8.767   3.866
45553SOL    HW238493  10.268   8.617   3.878
45554SOL     OW38494   8.840  13.723  13.275
45554SOL    HW138495   8.929  13.756  13.258
45554SOL    HW238496   8.789  13.753  13.200
45555SOL     OW38497   5.529  11.875  12.910
45555SOL    HW138498   5.555  11.784  12.920
45555SOL    HW238499   5.589  11.924  12.967
45556SOL     OW38500   0.647   6.422  10.586
45556SOL    HW138501   0.628   6.514  10.604
45556SOL    HW238502   0.657   6.383  10.673
45557SOL     OW38503   3.067  14.279   6.337
45557SOL    HW138504   2.993  14.273   6.276
45557SOL    HW238505   3.040  14.342   6.403
45558SOL     OW38506   3.117   4.219   6.864
45558SOL    HW138507   3.209   4.234   6.882
45558SOL    HW238508   3.112   4.127   6.837
45559SOL     OW38509   8.538   4.131  12.928
45559SOL    HW138510   8.586   4.169  12.854
45559SOL    HW238511   8.485   4.203  12.961
45560SOL     OW38512   3.647   7.453  13.372
45560SOL    HW138513   3.712   7.383  13.376
45560SOL    HW238514   3.596   7.443  13.453
45561SOL     OW38515  14.765  10.855  14.179
45561SOL    HW138516  14.804  10.930  14.134
45561SOL    HW238517  14.681  10.842  14.135
45562SOL     OW38518  13.715  10.216  11.082
45562SOL    HW138519  13.806  10.215  11.113
45562SOL    HW238520  13.714  10.282  11.013
45563SOL     OW38521   6.213  12.787   6.247
45563SOL    HW138522   6.294  12.762   6.292
45563SOL    HW238523   6.238  12.791   6.154
45564SOL     OW38524   3.605  13.340  10.523
45564SOL    HW138525   3.555  13.403  10.472
45564SOL    HW238526   3.674  13.309  10.464
45565SOL     OW38527   3.347  13.984   7.958
45565SOL    HW138528   3.399  13.907   7.935
45565SOL    HW238529   3.297  13.957   8.034
45566SOL     OW38530   9.687  12.985  14.416
45566SOL    HW138531   9.679  12.890  14.421
45566SOL    HW238532   9.778  13.003  14.441
45567SOL     OW38533   1.177   7.153   5.206
45567SOL    HW138534   1.131   7.236   5.190
45567SOL    HW238535   1.185   7.149   5.302
45568SOL     OW38536   1.304   1.283   5.404
45568SOL    HW138537   1.322   1.245   5.317
45568SOL    HW238538   1.209   1.283   5.411
45569SOL     OW38539  13.898   2.704   8.151
45569SOL    HW138540  13.862   2.617   8.166
45569SOL    HW238541  13.991   2.689   8.133
45570SOL     OW38542   5.281  10.830   3.449
45570SOL    HW138543   5.218  10.867   3.388
45570SOL    HW238544   5.366  10.866   3.422
45571SOL     OW38545   2.737   5.343  14.586
45571SOL    HW138546   2.672   5.353  14.516
45571SOL    HW238547   2.812   5.395  14.556
45572SOL     OW38548   2.921  11.758  10.878
45572SOL    HW138549   2.838  11.711  10.870
45572SOL    HW238550   2.898  11.850  10.868
45573SOL     OW38551   4.707   9.551   6.590
45573SOL    HW138552   4.756   9.484   6.638
45573SOL    HW238553   4.765   9.627   6.591
45574SOL     OW38554   6.964   6.266   5.999
45574SOL    HW138555   6.936   6.355   5.975
45574SOL    HW238556   7.058   6.266   5.986
45575SOL     OW38557   4.061   1.576   8.037
45575SOL    HW138558   4.134   1.558   8.096
45575SOL    HW238559   3.996   1.508   8.057
45576SOL     OW38560   3.540   5.186   6.534
45576SOL    HW138561   3.610   5.121   6.546
45576SOL    HW238562   3.530   5.193   6.439
45577SOL     OW38563  13.024  10.585   9.492
45577SOL    HW138564  12.931  10.568   9.509
45577SOL    HW238565  13.033  10.576   9.397
45578SOL     OW38566  11.859   5.247   1.795
45578SOL    HW138567  11.771   5.209   1.801
45578SOL    HW238568  11.875   5.285   1.882
45579SOL     OW38569   5.642   1.452  12.794
45579SOL    HW138570   5.693   1.418  12.868
45579SOL    HW238571   5.590   1.523  12.832
45580SOL     OW38572   1.166  11.619   1.380
45580SOL    HW138573   1.255  11.653   1.391
45580SOL    HW238574   1.136  11.659   1.298
45581SOL     OW38575   3.950   9.129  11.763
45581SOL    HW138576   4.027   9.184  11.776
45581SOL    HW238577   3.893   9.147  11.838
45582SOL     OW38578   4.909   6.557   6.721
45582SOL    HW138579   4.911   6.601   6.805
45582SOL    HW238580   4.873   6.470   6.739
45583SOL     OW38581   4.652  11.427  14.388
45583SOL    HW138582   4.626  11.350  14.439
45583SOL    HW238583   4.569  11.469  14.365
45584SOL     OW38584   5.584   5.096   2.459
45584SOL    HW138585   5.509   5.091   2.399
45584SOL    HW238586   5.591   5.008   2.496
45585SOL     OW38587   4.070   7.123  14.612
45585SOL    HW138588   4.102   7.083  14.693
45585SOL    HW238589   3.996   7.177  14.639
45586SOL     OW38590   1.631   8.738   0.210
45586SOL    HW138591   1.558   8.730   0.271
45586SOL    HW238592   1.705   8.765   0.264
45587SOL     OW38593   6.189   0.149  14.031
45587SOL    HW138594   6.100   0.175  14.053
45587SOL    HW238595   6.212   0.203  13.955
45588SOL     OW38596   2.801   7.532   8.977
45588SOL    HW138597   2.804   7.595   8.906
45588SOL    HW238598   2.866   7.466   8.954
45589SOL     OW38599   4.861   0.786  10.384
45589SOL    HW138600   4.867   0.731  10.306
45589SOL    HW238601   4.889   0.729  10.456
45590SOL     OW38602   0.588   1.420   7.241
45590SOL    HW138603   0.660   1.433   7.303
45590SOL    HW238604   0.527   1.492   7.259
45591SOL     OW38605  10.291   0.683   8.034
45591SOL    HW138606  10.300   0.609   7.974
45591SOL    HW238607  10.269   0.643   8.118
45592SOL     OW38608  13.645   4.637   5.589
45592SOL    HW138609  13.739   4.644   5.574
45592SOL    HW238610  13.636   4.579   5.664
45593SOL     OW38611   9.347   2.229  13.865
45593SOL    HW138612   9.397   2.150  13.887
45593SOL    HW238613   9.263   2.197  13.834
45594SOL     OW38614  12.706   0.349   0.065
45594SOL    HW138615  12.713   0.254   0.062
45594SOL    HW238616  12.793   0.378   0.094
45595SOL     OW38617   2.882   4.143   3.714
45595SOL    HW138618   2.926   4.219   3.752
45595SOL    HW238619   2.921   4.068   3.757
45596SOL     OW38620   0.177   7.743   6.116
45596SOL    HW138621   0.258   7.791   6.096
45596SOL    HW238622   0.110   7.811   6.123
45597SOL     OW38623  12.091   4.611   3.335
45597SOL    HW138624  12.077   4.524   3.300
45597SOL    HW238625  12.105   4.666   3.258
45598SOL     OW38626   5.655   0.937   9.487
45598SOL    HW138627   5.638   0.843   9.487
45598SOL    HW238628   5.619   0.968   9.404
45599SOL     OW38629  12.940   0.680   3.776
45599SOL    HW138630  12.902   0.596   3.753
45599SOL    HW238631  12.943   0.729   3.694
45600SOL     OW38632  10.628  12.128  13.524
45600SOL    HW138633  10.586  12.042  13.525
45600SOL    HW238634  10.694  12.123  13.594
45601SOL     OW38635   3.395   7.081   8.340
45601SOL    HW138636   3.368   7.166   8.376
45601SOL    HW238637   3.369   7.085   8.247
45602SOL     OW38638  10.749   3.945   2.842
45602SOL    HW138639  10.719   4.030   2.810
45602SOL    HW238640  10.671   3.905   2.881
45603SOL     OW38641  10.572   8.143   5.685
45603SOL    HW138642  10.481   8.153   5.656
45603SOL    HW238643  10.585   8.049   5.689
45604SOL     OW38644  11.215   0.389  14.840
45604SOL    HW138645  11.279   0.415  14.773
45604SOL    HW238646  11.131   0.417  14.804
45605SOL     OW38647   7.382   7.410   2.102
45605SOL    HW138648   7.333   7.329   2.091
45605SOL    HW238649   7.461   7.397   2.050
45606SOL     OW38650  12.779  10.673   1.597
45606SOL    HW138651  12.776  10.678   1.502
45606SOL    HW238652  12.820  10.589   1.616
45607SOL     OW38653   7.110   4.396   5.982
45607SOL    HW138654   7.092   4.346   5.902
45607SOL    HW238655   7.166   4.338   6.034
45608SOL     OW38656   2.871  14.538  13.547
45608SOL    HW138657   2.929  14.552  13.622
45608SOL    HW238658   2.928  14.549  13.470
45609SOL     OW38659   9.090   2.064   2.940
45609SOL    HW138660   9.037   2.010   2.881
45609SOL    HW238661   9.093   2.150   2.898
45610SOL     OW38662   0.560  14.094  10.872
45610SOL    HW138663   0.622  14.031  10.910
45610SOL    HW238664   0.475  14.069  10.908
45611SOL     OW38665   0.278   2.126   8.207
45611SOL    HW138666   0.270   2.079   8.124
45611SOL    HW238667   0.195   2.173   8.216
45612SOL     OW38668  14.634   5.052   9.571
45612SOL    HW138669  14.549   5.078   9.604
45612SOL    HW238670  14.633   5.079   9.479
45613SOL     OW38671  13.425   7.171   3.901
45613SOL    HW138672  13.500   7.181   3.960
45613SOL    HW238673  13.431   7.245   3.841
45614SOL     OW38674   9.619   4.942   7.548
45614SOL    HW138675   9.714   4.929   7.552
45614SOL    HW238676   9.604   5.022   7.599
45615SOL     OW38677  11.735   7.232   0.908
45615SOL    HW138678  11.827   7.247   0.887
45615SOL    HW238679  11.723   7.138   0.898
45616SOL     OW38680  13.124  12.057   2.786
45616SOL    HW138681  13.092  12.147   2.788
45616SOL    HW238682  13.047  12.004   2.808
45617SOL     OW38683  10.737   6.541   8.982
45617SOL    HW138684  10.821   6.506   8.952
45617SOL    HW238685  10.711   6.483   9.054
45618SOL     OW38686   7.768  12.154   3.988
45618SOL    HW138687   7.860  12.127   3.988
45618SOL    HW238688   7.759  12.205   3.907
45619SOL     OW38689  13.259   1.404   7.829
45619SOL    HW138690  13.169   1.417   7.860
45619SOL    HW238691  13.304   1.365   7.904
45620SOL     OW38692   3.683  12.286   8.514
45620SOL    HW138693   3.654  12.216   8.456
45620SOL    HW238694   3.712  12.240   8.594
45621SOL     OW38695  14.641  13.142   4.568
45621SOL    HW138696  14.663  13.050   4.551
45621SOL    HW238697  14.726  13.185   4.576
45622SOL     OW38698   4.112   5.510   4.975
45622SOL    HW138699   4.196   5.492   5.017
45622SOL    HW238700   4.135   5.548   4.890
45623SOL     OW38701  10.030   2.743   8.640
45623SOL    HW138702  10.056   2.654   8.615
45623SOL    HW238703  10.112   2.783   8.671
45624SOL     OW38704  11.995   6.094  11.660
45624SOL    HW138705  11.960   6.013  11.696
45624SOL    HW238706  12.080   6.070  11.623
45625SOL     OW38707   1.824  14.044   8.404
45625SOL    HW138708   1.802  14.134   8.427
45625SOL    HW238709   1.912  14.050   8.367
45626SOL     OW38710   1.574   9.297   0.264
45626SOL    HW138711   1.570   9.391   0.284
45626SOL    HW238712   1.486   9.264   0.282
45627SOL     OW38713   9.492  13.189   5.646
45627SOL    HW138714   9.421  13.178   5.709
45627SOL    HW238715   9.558  13.126   5.674
45628SOL     OW38716   3.081   9.175   0.993
45628SOL    HW138717   3.067   9.106   1.059
45628SOL    HW238718   3.120   9.129   0.919
45629SOL     OW38719   8.950   6.497   5.271
45629SOL    HW138720   8.991   6.410   5.265
45629SOL    HW238721   8.908   6.509   5.186
45630SOL     OW38722   7.374   2.328   9.555
45630SOL    HW138723   7.340   2.301   9.470
45630SOL    HW238724   7.425   2.253   9.586
45631SOL     OW38725  12.904   5.602   6.945
45631SOL    HW138726  12.908   5.507   6.932
45631SOL    HW238727  12.975   5.621   7.006
45632SOL     OW38728  13.649   3.853   8.283
45632SOL    HW138729  13.631   3.759   8.281
45632SOL    HW238730  13.740   3.861   8.254
45633SOL     OW38731   6.236   4.176   6.241
45633SOL    HW138732   6.203   4.259   6.273
45633SOL    HW238733   6.162   4.116   6.247
45634SOL     OW38734   1.641  13.052   5.647
45634SOL    HW138735   1.618  12.979   5.589
45634SOL    HW238736   1.567  13.111   5.641
45635SOL     OW38737   4.212  14.779   5.911
45635SOL    HW138738   4.194  14.715   5.842
45635SOL    HW238739   4.291  14.746   5.953
45636SOL     OW38740  10.181   1.395   6.355
45636SOL    HW138741  10.151   1.356   6.437
45636SOL    HW238742  10.215   1.321   6.304
45637SOL     OW38743   2.214   0.685   6.792
45637SOL    HW138744   2.189   0.623   6.860
45637SOL    HW238745   2.221   0.769   6.837
45638SOL     OW38746   9.877   9.778   0.104
45638SOL    HW138747   9.950   9.772   0.042
45638SOL    HW238748   9.806   9.728   0.062
45639SOL     OW38749   5.055   9.857   0.487
45639SOL    HW138750   5.019   9.811   0.563
45639SOL    HW238751   5.141   9.816   0.472
45640SOL     OW38752   6.866   4.722   6.193
45640SOL    HW138753   6.955   4.692   6.173
45640SOL    HW238754   6.860   4.718   6.288
45641SOL     OW38755   2.113   7.797  13.064
45641SOL    HW138756   2.195   7.841  13.041
45641SOL    HW238757   2.050   7.828  12.999
45642SOL     OW38758   0.574   1.568   6.855
45642SOL    HW138759   0.598   1.660   6.867
45642SOL    HW238760   0.657   1.522   6.844
45643SOL     OW38761   7.738   4.669   1.151
45643SOL    HW138762   7.745   4.761   1.128
45643SOL    HW238763   7.818   4.629   1.117
45644SOL     OW38764  12.600  13.989   1.847
45644SOL    HW138765  12.544  14.053   1.892
45644SOL    HW238766  12.552  13.968   1.767
45645SOL     OW38767   6.780   9.774   9.038
45645SOL    HW138768   6.759   9.681   9.030
45645SOL    HW238769   6.697   9.815   9.063
45646SOL     OW38770  14.465   6.119   2.748
45646SOL    HW138771  14.371   6.135   2.748
45646SOL    HW238772  14.488   6.103   2.839
45647SOL     OW38773   5.466   8.449   1.560
45647SOL    HW138774   5.412   8.484   1.631
45647SOL    HW238775   5.404   8.415   1.496
45648SOL     OW38776   9.469  14.726  10.987
45648SOL    HW138777   9.380  14.760  10.990
45648SOL    HW238778   9.514  14.780  10.922
45649SOL     OW38779   5.982   9.074   7.487
45649SOL    HW138780   5.976   9.070   7.583
45649SOL    HW238781   6.056   9.017   7.466
45650SOL     OW38782   1.686   2.531   4.734
45650SOL    HW138783   1.598   2.533   4.773
45650SOL    HW238784   1.705   2.438   4.722
45651SOL     OW38785  12.587   0.667   5.853
45651SOL    HW138786  12.635   0.733   5.803
45651SOL    HW238787  12.616   0.584   5.816
45652SOL     OW38788   3.964   6.631  14.592
45652SOL    HW138789   3.909   6.554  14.607
45652SOL    HW238790   3.971   6.637  14.496
45653SOL     OW38791  14.222   8.454  12.729
45653SOL    HW138792  14.261   8.447  12.642
45653SOL    HW238793  14.139   8.408  12.722
45654SOL     OW38794  11.049  13.143   0.265
45654SOL    HW138795  11.038  13.196   0.344
45654SOL    HW238796  11.142  13.154   0.242
45655SOL     OW38797  14.096   5.647   4.619
45655SOL    HW138798  14.093   5.735   4.581
45655SOL    HW238799  14.046   5.654   4.700
45656SOL     OW38800   5.911  12.274   3.037
45656SOL    HW138801   5.875  12.185   3.034
45656SOL    HW238802   5.955  12.279   3.122
45657SOL     OW38803   2.402   1.776   5.504
45657SOL    HW138804   2.478   1.759   5.560
45657SOL    HW238805   2.435   1.766   5.415
45658SOL     OW38806   7.491   4.120   3.766
45658SOL    HW138807   7.432   4.185   3.726
45658SOL    HW238808   7.470   4.124   3.860
45659SOL     OW38809   8.096  11.229   3.349
45659SOL    HW138810   8.021  11.222   3.408
45659SOL    HW238811   8.091  11.319   3.316
45660SOL     OW38812   6.095  10.486   6.500
45660SOL    HW138813   6.087  10.554   6.433
45660SOL    HW238814   6.143  10.416   6.458
45661SOL     OW38815   5.634   0.244   5.499
45661SOL    HW138816   5.555   0.297   5.497
45661SOL    HW238817   5.697   0.296   5.550
45662SOL     OW38818   7.837   0.627  12.270
45662SOL    HW138819   7.776   0.619  12.343
45662SOL    HW238820   7.860   0.537  12.247
45663SOL     OW38821   6.434   5.517  14.834
45663SOL    HW138822   6.423   5.436   0.005
45663SOL    HW238823   6.361   5.518  14.773
45664SOL     OW38824   4.446   7.945   0.875
45664SOL    HW138825   4.536   7.973   0.866
45664SOL    HW238826   4.450   7.849   0.871
45665SOL     OW38827   8.421   2.028  14.578
45665SOL    HW138828   8.383   1.942  14.591
45665SOL    HW238829   8.488   2.016  14.510
45666SOL     OW38830  12.841   1.387  14.380
45666SOL    HW138831  12.877   1.444  14.447
45666SOL    HW238832  12.904   1.391  14.308
45667SOL     OW38833  14.744  10.100   0.668
45667SOL    HW138834  14.753  10.012   0.703
45667SOL    HW238835  14.655  10.103   0.633
45668SOL     OW38836   9.185  14.874  10.278
45668SOL    HW138837   9.209   0.053  10.206
45668SOL    HW238838   9.204   0.045  10.357
45669SOL     OW38839   6.629   9.084   0.744
45669SOL    HW138840   6.633   9.103   0.838
45669SOL    HW238841   6.577   9.004   0.739
45670SOL     OW38842   1.673   0.382   5.835
45670SOL    HW138843   1.636   0.464   5.866
45670SOL    HW238844   1.732   0.407   5.764
45671SOL     OW38845   9.109   8.360  11.869
45671SOL    HW138846   9.035   8.331  11.921
45671SOL    HW238847   9.077   8.360  11.779
45672SOL     OW38848  10.851   8.503   0.888
45672SOL    HW138849  10.838   8.411   0.864
45672SOL    HW238850  10.826   8.507   0.981
45673SOL     OW38851  11.565   9.473  10.639
45673SOL    HW138852  11.519   9.413  10.580
45673SOL    HW238853  11.542   9.443  10.727
45674SOL     OW38854  10.891   9.482  11.390
45674SOL    HW138855  10.916   9.565  11.431
45674SOL    HW238856  10.809   9.502  11.346
45675SOL     OW38857   1.133  13.982   4.304
45675SOL    HW138858   1.156  13.898   4.343
45675SOL    HW238859   1.104  13.960   4.215
45676SOL     OW38860   2.127   8.470  14.869
45676SOL    HW138861   2.144   8.564  14.859
45676SOL    HW238862   2.077   8.447  14.790
45677SOL     OW38863   3.896   4.794  14.065
45677SOL    HW138864   3.964   4.744  14.111
45677SOL    HW238865   3.918   4.886  14.084
45678SOL     OW38866  11.225  10.936  10.263
45678SOL    HW138867  11.218  10.998  10.336
45678SOL    HW238868  11.297  10.878  10.287
45679SOL     OW38869  11.766  12.266  13.120
45679SOL    HW138870  11.813  12.213  13.055
45679SOL    HW238871  11.678  12.276  13.084
45680SOL     OW38872   8.506  14.349   1.072
45680SOL    HW138873   8.489  14.416   1.138
45680SOL    HW238874   8.423  14.302   1.063
45681SOL     OW38875  14.615   6.112   9.849
45681SOL    HW138876  14.670   6.110   9.928
45681SOL    HW238877  14.582   6.202   9.845
45682SOL     OW38878   5.456   8.575   4.244
45682SOL    HW138879   5.397   8.507   4.278
45682SOL    HW238880   5.405   8.618   4.175
45683SOL     OW38881   8.988  11.559   7.184
45683SOL    HW138882   8.954  11.637   7.228
45683SOL    HW238883   9.083  11.574   7.181
45684SOL     OW38884   3.805   1.470   7.893
45684SOL    HW138885   3.823   1.494   7.802
45684SOL    HW238886   3.798   1.553   7.939
45685SOL     OW38887   7.402  11.460  11.124
45685SOL    HW138888   7.409  11.401  11.199
45685SOL    HW238889   7.465  11.529  11.141
45686SOL     OW38890   3.476   2.049   5.613
45686SOL    HW138891   3.517   2.097   5.685
45686SOL    HW238892   3.426   1.979   5.655
45687SOL     OW38893   1.083   9.345   1.320
45687SOL    HW138894   1.074   9.263   1.369
45687SOL    HW238895   1.062   9.321   1.230
45688SOL     OW38896   2.167   6.659   0.604
45688SOL    HW138897   2.219   6.738   0.614
45688SOL    HW238898   2.146   6.655   0.511
45689SOL     OW38899   6.587   3.259  13.478
45689SOL    HW138900   6.543   3.344  13.477
45689SOL    HW238901   6.661   3.270  13.418
45690SOL     OW38902   5.264   6.434   6.374
45690SOL    HW138903   5.221   6.355   6.409
45690SOL    HW238904   5.233   6.440   6.284
45691SOL     OW38905  12.909   7.969  12.270
45691SOL    HW138906  12.991   7.949  12.316
45691SOL    HW238907  12.854   7.892  12.285
45692SOL     OW38908  10.055  14.615   7.867
45692SOL    HW138909  10.145  14.583   7.875
45692SOL    HW238910  10.028  14.632   7.957
45693SOL     OW38911  14.217  14.476   1.722
45693SOL    HW138912  14.133  14.436   1.743
45693SOL    HW238913  14.226  14.548   1.785
45694SOL     OW38914  12.807   5.049   8.909
45694SOL    HW138915  12.858   5.127   8.884
45694SOL    HW238916  12.736   5.045   8.845
45695SOL     OW38917   8.266   0.348  13.909
45695SOL    HW138918   8.215   0.342  13.990
45695SOL    HW238919   8.357   0.355  13.938
45696SOL     OW38920  11.072   1.420   4.243
45696SOL    HW138921  11.022   1.501   4.254
45696SOL    HW238922  11.019   1.353   4.287
45697SOL     OW38923   6.281   9.294  10.500
45697SOL    HW138924   6.205   9.341  10.464
45697SOL    HW238925   6.281   9.210  10.455
45698SOL     OW38926  10.646   4.983  14.563
45698SOL    HW138927  10.646   4.888  14.569
45698SOL    HW238928  10.575   5.012  14.621
45699SOL     OW38929  10.868   5.039   1.959
45699SOL    HW138930  10.861   4.944   1.960
45699SOL    HW238931  10.944   5.058   2.015
45700SOL     OW38932   9.222  10.863   6.024
45700SOL    HW138933   9.293  10.823   5.973
45700SOL    HW238934   9.238  10.957   6.017
45701SOL     OW38935   2.742   5.199  10.979
45701SOL    HW138936   2.681   5.266  11.009
45701SOL    HW238937   2.820   5.248  10.953
45702SOL     OW38938   3.715   8.814   3.325
45702SOL    HW138939   3.664   8.871   3.383
45702SOL    HW238940   3.766   8.760   3.385
45703SOL     OW38941   7.048   0.361   3.766
45703SOL    HW138942   7.048   0.313   3.683
45703SOL    HW238943   7.002   0.304   3.827
45704SOL     OW38944   1.362  10.312  11.286
45704SOL    HW138945   1.282  10.337  11.239
45704SOL    HW238946   1.352  10.218  11.303
45705SOL     OW38947   6.515   3.475  10.779
45705SOL    HW138948   6.509   3.462  10.874
45705SOL    HW238949   6.607   3.496  10.764
45706SOL     OW38950  14.808  14.189   0.029
45706SOL    HW138951  14.829  14.135  14.832
45706SOL    HW238952  14.873  14.259   0.028
45707SOL     OW38953   1.720   9.481   0.842
45707SOL    HW138954   1.761   9.546   0.899
45707SOL    HW238955   1.785   9.410   0.836
45708SOL     OW38956  14.844   8.244  11.438
45708SOL    HW138957  14.817   8.187  11.510
45708SOL    HW238958  14.841   8.333  11.475
45709SOL     OW38959  12.467  14.398   6.148
45709SOL    HW138960  12.543  14.370   6.098
45709SOL    HW238961  12.398  14.337   6.124
45710SOL     OW38962   2.588   0.452   7.804
45710SOL    HW138963   2.636   0.427   7.725
45710SOL    HW238964   2.507   0.493   7.771
45711SOL     OW38965  13.332  10.401  11.975
45711SOL    HW138966  13.364  10.429  11.889
45711SOL    HW238967  13.240  10.427  11.976
45712SOL     OW38968  13.711   1.071   2.548
45712SOL    HW138969  13.801   1.103   2.546
45712SOL    HW238970  13.708   1.001   2.482
45713SOL     OW38971  10.027   1.580   6.117
45713SOL    HW138972  10.062   1.669   6.109
45713SOL    HW238973  10.043   1.557   6.209
45714SOL     OW38974   8.066   8.803   4.972
45714SOL    HW138975   8.092   8.874   5.031
45714SOL    HW238976   8.049   8.846   4.888
45715SOL     OW38977   2.317  10.627  14.069
45715SOL    HW138978   2.376  10.702  14.077
45715SOL    HW238979   2.229  10.667  14.065
45716SOL     OW38980   4.072   9.440   4.872
45716SOL    HW138981   4.090   9.412   4.782
45716SOL    HW238982   4.121   9.521   4.883
45717SOL     OW38983  13.143  13.399  12.399
45717SOL    HW138984  13.069  13.459  12.402
45717SOL    HW238985  13.137  13.358  12.313
45718SOL     OW38986  12.781   0.497   4.545
45718SOL    HW138987  12.767   0.589   4.567
45718SOL    HW238988  12.796   0.497   4.450
45719SOL     OW38989  13.241  13.733   0.734
45719SOL    HW138990  13.184  13.746   0.658
45719SOL    HW238991  13.329  13.747   0.700
45720SOL     OW38992   9.595   0.879  12.145
45720SOL    HW138993   9.686   0.893  12.169
45720SOL    HW238994   9.588   0.784  12.134
45721SOL     OW38995  10.802   3.297   6.990
45721SOL    HW138996  10.813   3.235   7.062
45721SOL    HW238997  10.707   3.302   6.977
45722SOL     OW38998   3.649  12.997   1.281
45722SOL    HW138999   3.678  13.058   1.350
45722SOL    HW239000   3.578  13.044   1.237
45723SOL     OW39001   0.796  13.674   5.676
45723SOL    HW139002   0.818  13.661   5.769
45723SOL    HW239003   0.705  13.644   5.669
45724SOL     OW39004   1.026   1.222   8.542
45724SOL    HW139005   0.949   1.278   8.550
45724SOL    HW239006   1.024   1.192   8.451
45725SOL     OW39007   2.250  13.929  11.626
45725SOL    HW139008   2.280  13.860  11.567
45725SOL    HW239009   2.218  13.998  11.568
45726SOL     OW39010   1.260   2.565   6.327
45726SOL    HW139011   1.305   2.579   6.244
45726SOL    HW239012   1.278   2.474   6.349
45727SOL     OW39013  12.451  12.200  13.864
45727SOL    HW139014  12.494  12.191  13.949
45727SOL    HW239015  12.358  12.213  13.885
45728SOL     OW39016  13.822   5.337   4.331
45728SOL    HW139017  13.881   5.408   4.359
45728SOL    HW239018  13.878   5.280   4.278
45729SOL     OW39019  12.688   3.379   6.111
45729SOL    HW139020  12.645   3.398   6.027
45729SOL    HW239021  12.618   3.343   6.165
45730SOL     OW39022  14.031   3.526  14.628
45730SOL    HW139023  14.039   3.620  14.642
45730SOL    HW239024  14.120   3.496  14.610
45731SOL     OW39025   7.792  11.331  12.037
45731SOL    HW139026   7.710  11.295  12.072
45731SOL    HW239027   7.839  11.256  12.002
45732SOL     OW39028   4.342   3.270   5.245
45732SOL    HW139029   4.366   3.201   5.307
45732SOL    HW239030   4.248   3.282   5.258
45733SOL     OW39031   8.691   7.553  14.819
45733SOL    HW139032   8.699   7.589  14.731
45733SOL    HW239033   8.607   7.507  14.818
45734SOL     OW39034  11.190   3.665  12.574
45734SOL    HW139035  11.203   3.730  12.505
45734SOL    HW239036  11.272   3.616  12.578
45735SOL     OW39037  13.642   2.311   3.093
45735SOL    HW139038  13.684   2.347   3.171
45735SOL    HW239039  13.598   2.232   3.123
45736SOL     OW39040  11.505  14.693  14.707
45736SOL    HW139041  11.575  14.634  14.679
45736SOL    HW239042  11.550  14.773  14.734
45737SOL     OW39043  12.845  13.451   0.168
45737SOL    HW139044  12.905  13.525   0.160
45737SOL    HW239045  12.758  13.489   0.158
45738SOL     OW39046   3.782  11.968   1.018
45738SOL    HW139047   3.774  11.937   1.109
45738SOL    HW239048   3.702  12.019   1.003
45739SOL     OW39049  10.156   1.190   1.497
45739SOL    HW139050  10.204   1.108   1.490
45739SOL    HW239051  10.174   1.221   1.586
45740SOL     OW39052   8.194  12.153   6.090
45740SOL    HW139053   8.164  12.117   6.006
45740SOL    HW239054   8.268  12.209   6.066
45741SOL     OW39055   7.587   2.540  10.477
45741SOL    HW139056   7.520   2.595  10.515
45741SOL    HW239057   7.630   2.498  10.551
45742SOL     OW39058  12.386   5.425  11.497
45742SOL    HW139059  12.326   5.407  11.569
45742SOL    HW239060  12.407   5.518  11.506
45743SOL     OW39061  13.960   0.950   7.999
45743SOL    HW139062  13.932   0.956   8.090
45743SOL    HW239063  13.887   0.989   7.950
45744SOL     OW39064  11.627  13.968   1.783
45744SOL    HW139065  11.652  13.925   1.701
45744SOL    HW239066  11.532  13.955   1.789
45745SOL     OW39067  14.679  12.291  10.187
45745SOL    HW139068  14.731  12.244  10.122
45745SOL    HW239069  14.652  12.224  10.250
45746SOL     OW39070  10.639   2.019  10.223
45746SOL    HW139071  10.729   1.987  10.224
45746SOL    HW239072  10.585   1.939  10.220
45747SOL     OW39073  14.025  10.083   7.805
45747SOL    HW139074  13.998  10.128   7.885
45747SOL    HW239075  14.057   9.998   7.835
45748SOL     OW39076   6.227   2.548   6.057
45748SOL    HW139077   6.282   2.618   6.022
45748SOL    HW239078   6.286   2.496   6.111
45749SOL     OW39079   2.113   5.778   3.088
45749SOL    HW139080   2.118   5.815   3.176
45749SOL    HW239081   2.150   5.690   3.096
45750SOL     OW39082   0.255  12.513  11.470
45750SOL    HW139083   0.188  12.456  11.507
45750SOL    HW239084   0.283  12.569  11.542
45751SOL     OW39085   0.887   4.890   7.072
45751SOL    HW139086   0.834   4.810   7.076
45751SOL    HW239087   0.841   4.946   7.009
45752SOL     OW39088   8.295  10.562   9.397
45752SOL    HW139089   8.290  10.482   9.449
45752SOL    HW239090   8.319  10.533   9.309
45753SOL     OW39091   5.868   7.038   2.772
45753SOL    HW139092   5.781   7.031   2.732
45753SOL    HW239093   5.867   7.121   2.818
45754SOL     OW39094   0.958  13.092   8.313
45754SOL    HW139095   0.965  13.005   8.352
45754SOL    HW239096   0.930  13.148   8.385
45755SOL     OW39097  11.385   5.552   6.442
45755SOL    HW139098  11.308   5.597   6.408
45755SOL    HW239099  11.447   5.552   6.369
45756SOL     OW39100  13.044   2.976   6.435
45756SOL    HW139101  13.034   3.039   6.506
45756SOL    HW239102  12.969   2.992   6.377
45757SOL     OW39103   0.798   1.890  12.433
45757SOL    HW139104   0.712   1.918  12.463
45757SOL    HW239105   0.859   1.929  12.496
45758SOL     OW39106   9.802   1.322  12.752
45758SOL    HW139107   9.893   1.309  12.728
45758SOL    HW239108   9.753   1.262  12.696
45759SOL     OW39109   4.659   0.910   2.422
45759SOL    HW139110   4.668   1.004   2.407
45759SOL    HW239111   4.715   0.870   2.355
45760SOL     OW39112  10.882  11.502   2.035
45760SOL    HW139113  10.822  11.551   2.091
45760SOL    HW239114  10.834  11.490   1.954
45761SOL     OW39115   4.132   3.323   7.762
45761SOL    HW139116   4.195   3.323   7.834
45761SOL    HW239117   4.129   3.232   7.733
45762SOL     OW39118   1.265  10.719  11.097
45762SOL    HW139119   1.228  10.720  11.009
45762SOL    HW239120   1.192  10.741  11.155
45763SOL     OW39121   3.184   7.347   6.575
45763SOL    HW139122   3.146   7.269   6.536
45763SOL    HW239123   3.198   7.407   6.502
45764SOL     OW39124   8.088  10.839   5.394
45764SOL    HW139125   8.026  10.911   5.384
45764SOL    HW239126   8.070  10.803   5.481
45765SOL     OW39127   4.911   7.429   1.889
45765SOL    HW139128   4.861   7.445   1.969
45765SOL    HW239129   4.879   7.345   1.857
45766SOL     OW39130  11.753  12.374  11.445
45766SOL    HW139131  11.765  12.461  11.407
45766SOL    HW239132  11.710  12.324  11.376
45767SOL     OW39133   4.274   1.391   4.334
45767SOL    HW139134   4.230   1.315   4.370
45767SOL    HW239135   4.224   1.466   4.366
45768SOL     OW39136   8.652   6.650  12.756
45768SOL    HW139137   8.628   6.568  12.800
45768SOL    HW239138   8.708   6.695  12.820
45769SOL     OW39139  13.083  10.669   7.872
45769SOL    HW139140  13.123  10.687   7.787
45769SOL    HW239141  12.989  10.668   7.854
45770SOL     OW39142   4.181   1.666   9.919
45770SOL    HW139143   4.221   1.593   9.965
45770SOL    HW239144   4.177   1.737   9.983
45771SOL     OW39145   3.429   6.577   9.796
45771SOL    HW139146   3.355   6.548   9.849
45771SOL    HW239147   3.395   6.576   9.706
45772SOL     OW39148  13.822   7.613  14.130
45772SOL    HW139149  13.882   7.623  14.056
45772SOL    HW239150  13.859   7.541  14.181
45773SOL     OW39151   6.414  10.207   0.538
45773SOL    HW139152   6.455  10.256   0.467
45773SOL    HW239153   6.334  10.171   0.500
45774SOL     OW39154  14.583   6.711  13.106
45774SOL    HW139155  14.651   6.646  13.088
45774SOL    HW239156  14.631   6.794  13.112
45775SOL     OW39157  14.315  14.050   7.660
45775SOL    HW139158  14.406  14.026   7.676
45775SOL    HW239159  14.320  14.134   7.614
45776SOL     OW39160   2.708  12.262  12.448
45776SOL    HW139161   2.751  12.180  12.473
45776SOL    HW239162   2.686  12.249  12.355
45777SOL     OW39163  11.847   1.406  14.310
45777SOL    HW139164  11.791   1.383  14.235
45777SOL    HW239165  11.863   1.500  14.299
45778SOL     OW39166  12.585   3.731   2.687
45778SOL    HW139167  12.668   3.754   2.728
45778SOL    HW239168  12.607   3.658   2.629
45779SOL     OW39169  12.296   6.531  13.822
45779SOL    HW139170  12.385   6.520  13.788
45779SOL    HW239171  12.262   6.441  13.830
45780SOL     OW39172   8.928  12.425   9.468
45780SOL    HW139173   8.859  12.362   9.447
45780SOL    HW239174   8.924  12.489   9.398
45781SOL     OW39175  12.605   6.101  14.181
45781SOL    HW139176  12.645   6.085  14.267
45781SOL    HW239177  12.640   6.031  14.126
45782SOL     OW39178   6.330  13.836   9.072
45782SOL    HW139179   6.360  13.893   9.001
45782SOL    HW239180   6.326  13.893   9.149
45783SOL     OW39181   0.100   6.159   8.850
45783SOL    HW139182   0.168   6.117   8.797
45783SOL    HW239183   0.061   6.087   8.900
45784SOL     OW39184  10.407   7.971   8.736
45784SOL    HW139185  10.318   8.000   8.757
45784SOL    HW239186  10.463   8.041   8.769
45785SOL     OW39187   7.905   7.944   6.369
45785SOL    HW139188   7.849   8.009   6.328
45785SOL    HW239189   7.915   7.876   6.303
45786SOL     OW39190  10.551   7.889  10.529
45786SOL    HW139191  10.629   7.855  10.574
45786SOL    HW239192  10.575   7.892  10.437
45787SOL     OW39193   0.951  10.062  11.194
45787SOL    HW139194   1.010  10.084  11.123
45787SOL    HW239195   1.008  10.030  11.264
45788SOL     OW39196   1.066   1.337   4.350
45788SOL    HW139197   1.133   1.391   4.308
45788SOL    HW239198   1.091   1.335   4.442
45789SOL     OW39199  11.602   4.284   9.033
45789SOL    HW139200  11.519   4.281   8.986
45789SOL    HW239201  11.599   4.366   9.083
45790SOL     OW39202  11.938   5.459  14.270
45790SOL    HW139203  12.010   5.396  14.268
45790SOL    HW239204  11.919   5.471  14.363
45791SOL     OW39205  14.846  10.471   4.157
45791SOL    HW139206   0.055  10.458   4.122
45791SOL    HW239207  14.859  10.514   4.241
45792SOL     OW39208   2.120  12.545   6.773
45792SOL    HW139209   2.212  12.559   6.796
45792SOL    HW239210   2.073  12.554   6.856
45793SOL     OW39211   6.956   8.248   0.712
45793SOL    HW139212   6.959   8.238   0.616
45793SOL    HW239213   6.972   8.342   0.726
45794SOL     OW39214  11.689   6.304  13.253
45794SOL    HW139215  11.753   6.347  13.197
45794SOL    HW239216  11.696   6.350  13.337
45795SOL     OW39217   9.980  13.607   9.131
45795SOL    HW139218   9.899  13.632   9.086
45795SOL    HW239219  10.035  13.570   9.061
45796SOL     OW39220  10.485   9.888   6.063
45796SOL    HW139221  10.414   9.937   6.021
45796SOL    HW239222  10.478   9.800   6.027
45797SOL     OW39223   4.323  11.822  12.197
45797SOL    HW139224   4.397  11.868  12.159
45797SOL    HW239225   4.362  11.765  12.264
45798SOL     OW39226   2.475   5.222   2.080
45798SOL    HW139227   2.569   5.218   2.101
45798SOL    HW239228   2.472   5.223   1.985
45799SOL     OW39229   2.792  13.552  12.820
45799SOL    HW139230   2.842  13.537  12.900
45799SOL    HW239231   2.745  13.471  12.804
45800SOL     OW39232   2.533   8.551  12.796
45800SOL    HW139233   2.447   8.572  12.834
45800SOL    HW239234   2.520   8.556  12.702
45801SOL     OW39235  13.216   9.724   8.272
45801SOL    HW139236  13.215   9.804   8.324
45801SOL    HW239237  13.149   9.738   8.205
45802SOL     OW39238   7.529  12.112   9.212
45802SOL    HW139239   7.537  12.058   9.134
45802SOL    HW239240   7.583  12.068   9.278
45803SOL     OW39241  10.865   5.184   7.568
45803SOL    HW139242  10.887   5.273   7.542
45803SOL    HW239243  10.949   5.144   7.590
45804SOL     OW39244  14.445   2.510   8.620
45804SOL    HW139245  14.359   2.552   8.624
45804SOL    HW239246  14.477   2.529   8.531
45805SOL     OW39247   5.526  10.424   9.486
45805SOL    HW139248   5.438  10.410   9.521
45805SOL    HW239249   5.579  10.443   9.564
45806SOL     OW39250  12.161   0.113   9.846
45806SOL    HW139251  12.082   0.094   9.895
45806SOL    HW239252  12.138   0.096   9.755
45807SOL     OW39253  12.277  13.520   9.823
45807SOL    HW139254  12.288  13.610   9.791
45807SOL    HW239255  12.323  13.466   9.760
45808SOL     OW39256  12.399   3.790   7.136
45808SOL    HW139257  12.448   3.712   7.109
45808SOL    HW239258  12.307   3.764   7.128
45809SOL     OW39259   8.559   1.890   1.634
45809SOL    HW139260   8.568   1.893   1.539
45809SOL    HW239261   8.533   1.979   1.658
45810SOL     OW39262   0.365   2.858   8.723
45810SOL    HW139263   0.333   2.846   8.812
45810SOL    HW239264   0.299   2.915   8.681
45811SOL     OW39265  12.727   9.016   0.594
45811SOL    HW139266  12.719   8.984   0.684
45811SOL    HW239267  12.821   9.023   0.579
45812SOL     OW39268   6.069   7.206   5.631
45812SOL    HW139269   6.018   7.233   5.555
45812SOL    HW239270   6.021   7.133   5.668
45813SOL     OW39271  13.077   0.256  11.603
45813SOL    HW139272  13.027   0.275  11.524
45813SOL    HW239273  13.016   0.208  11.659
45814SOL     OW39274  12.183   9.216  11.290
45814SOL    HW139275  12.212   9.131  11.257
45814SOL    HW239276  12.168   9.202  11.383
45815SOL     OW39277   7.651   3.405  12.665
45815SOL    HW139278   7.576   3.447  12.709
45815SOL    HW239279   7.645   3.434  12.574
45816SOL     OW39280  14.371  10.998  14.172
45816SOL    HW139281  14.442  11.016  14.110
45816SOL    HW239282  14.407  11.020  14.257
45817SOL     OW39283  11.070  12.571   3.284
45817SOL    HW139284  11.149  12.619   3.307
45817SOL    HW239285  11.003  12.639   3.275
45818SOL     OW39286   2.308   1.374   4.172
45818SOL    HW139287   2.278   1.286   4.145
45818SOL    HW239288   2.403   1.366   4.178
45819SOL     OW39289   5.142  13.166   6.631
45819SOL    HW139290   5.197  13.091   6.652
45819SOL    HW239291   5.057  13.145   6.670
45820SOL     OW39292  11.979   8.666  11.295
45820SOL    HW139293  12.061   8.715  11.287
45820SOL    HW239294  11.912   8.727  11.263
45821SOL     OW39295   4.535   2.317   8.449
45821SOL    HW139296   4.480   2.360   8.514
45821SOL    HW239297   4.475   2.294   8.378
45822SOL     OW39298  14.447   9.084   5.680
45822SOL    HW139299  14.462   9.157   5.740
45822SOL    HW239300  14.471   9.006   5.731
45823SOL     OW39301  12.446   1.689  10.658
45823SOL    HW139302  12.355   1.718  10.661
45823SOL    HW239303  12.497   1.769  10.668
45824SOL     OW39304   4.770  12.829   1.827
45824SOL    HW139305   4.770  12.911   1.778
45824SOL    HW239306   4.683  12.825   1.867
45825SOL     OW39307  14.405   1.449  10.302
45825SOL    HW139308  14.381   1.541  10.313
45825SOL    HW239309  14.448   1.425  10.384
45826SOL     OW39310   4.358  12.275  12.428
45826SOL    HW139311   4.384  12.336  12.497
45826SOL    HW239312   4.298  12.324  12.373
45827SOL     OW39313   6.300   0.264  11.055
45827SOL    HW139314   6.363   0.335  11.060
45827SOL    HW239315   6.267   0.256  11.145
45828SOL     OW39316  14.021  14.415   5.569
45828SOL    HW139317  13.950  14.478   5.553
45828SOL    HW239318  14.101  14.466   5.559
45829SOL     OW39319   8.295   7.644   8.986
45829SOL    HW139320   8.292   7.554   8.951
45829SOL    HW239321   8.211   7.682   8.959
45830SOL     OW39322   4.549   1.663   6.225
45830SOL    HW139323   4.510   1.642   6.140
45830SOL    HW239324   4.631   1.613   6.226
45831SOL     OW39325  12.399   5.433  12.779
45831SOL    HW139326  12.423   5.520  12.812
45831SOL    HW239327  12.316   5.448  12.733
45832SOL     OW39328   4.275  14.590   0.472
45832SOL    HW139329   4.343  14.603   0.538
45832SOL    HW239330   4.197  14.565   0.522
45833SOL     OW39331   3.879   9.433   6.172
45833SOL    HW139332   3.849   9.343   6.162
45833SOL    HW239333   3.819   9.472   6.235
45834SOL     OW39334   1.632   2.328   0.243
45834SOL    HW139335   1.692   2.343   0.315
45834SOL    HW239336   1.613   2.234   0.247
45835SOL     OW39337   4.925   0.873   0.108
45835SOL    HW139338   4.847   0.896   0.057
45835SOL    HW239339   4.927   0.937   0.179
45836SOL     OW39340   0.486   0.631  10.191
45836SOL    HW139341   0.445   0.616  10.106
45836SOL    HW239342   0.579   0.643  10.172
45837SOL     OW39343   4.402   3.523   0.698
45837SOL    HW139344   4.405   3.585   0.626
45837SOL    HW239345   4.346   3.452   0.666
45838SOL     OW39346   2.292  11.007   9.471
45838SOL    HW139347   2.310  11.082   9.528
45838SOL    HW239348   2.364  11.008   9.408
45839SOL     OW39349   4.160  14.521   5.059
45839SOL    HW139350   4.095  14.462   5.098
45839SOL    HW239351   4.183  14.479   4.977
45840SOL     OW39352   8.246   5.018   8.333
45840SOL    HW139353   8.273   4.947   8.275
45840SOL    HW239354   8.229   5.092   8.275
45841SOL     OW39355   4.355   2.624   7.593
45841SOL    HW139356   4.445   2.655   7.600
45841SOL    HW239357   4.351   2.581   7.508
45842SOL     OW39358   2.355   6.280   1.170
45842SOL    HW139359   2.424   6.297   1.235
45842SOL    HW239360   2.274   6.280   1.221
45843SOL     OW39361   7.707   7.429  11.160
45843SOL    HW139362   7.754   7.477  11.229
45843SOL    HW239363   7.777   7.387  11.108
45844SOL     OW39364  11.413   2.801  10.226
45844SOL    HW139365  11.452   2.740  10.163
45844SOL    HW239366  11.486   2.831  10.279
45845SOL     OW39367   4.831   2.783   5.667
45845SOL    HW139368   4.885   2.837   5.723
45845SOL    HW239369   4.797   2.843   5.601
45846SOL     OW39370  10.768   0.625   4.804
45846SOL    HW139371  10.716   0.653   4.729
45846SOL    HW239372  10.705   0.589   4.866
45847SOL     OW39373  11.981  11.206  13.166
45847SOL    HW139374  12.053  11.158  13.124
45847SOL    HW239375  11.979  11.290  13.120
45848SOL     OW39376   8.605   7.218  13.272
45848SOL    HW139377   8.539   7.241  13.337
45848SOL    HW239378   8.588   7.277  13.198
45849SOL     OW39379  13.219   6.251   5.507
45849SOL    HW139380  13.227   6.337   5.550
45849SOL    HW239381  13.282   6.196   5.553
45850SOL     OW39382   2.808  13.793  12.577
45850SOL    HW139383   2.882  13.846  12.549
45850SOL    HW239384   2.838  13.749  12.657
45851SOL     OW39385   9.628  14.021  13.955
45851SOL    HW139386   9.722  14.016  13.974
45851SOL    HW239387   9.623  14.012  13.860
45852SOL     OW39388  11.774   3.030  10.546
45852SOL    HW139389  11.843   3.090  10.520
45852SOL    HW239390  11.705   3.086  10.581
45853SOL     OW39391  11.573   3.238  14.518
45853SOL    HW139392  11.565   3.206  14.608
45853SOL    HW239393  11.636   3.179  14.477
45854SOL     OW39394   2.802  13.970  14.554
45854SOL    HW139395   2.846  14.048  14.522
45854SOL    HW239396   2.735  13.951  14.488
45855SOL     OW39397   5.395   3.890  13.820
45855SOL    HW139398   5.488   3.910  13.835
45855SOL    HW239399   5.368   3.951  13.752
45856SOL     OW39400   7.197   8.853   4.675
45856SOL    HW139401   7.157   8.841   4.761
45856SOL    HW239402   7.147   8.922   4.633
45857SOL     OW39403  12.040   3.194  12.845
45857SOL    HW139404  12.027   3.114  12.794
45857SOL    HW239405  12.091   3.251  12.787
45858SOL     OW39406  10.376  12.853   8.431
45858SOL    HW139407  10.298  12.907   8.433
45858SOL    HW239408  10.388  12.824   8.521
45859SOL     OW39409   0.779  13.543   2.932
45859SOL    HW139410   0.796  13.450   2.923
45859SOL    HW239411   0.776  13.559   3.026
45860SOL     OW39412   4.963  12.670   7.886
45860SOL    HW139413   4.930  12.707   7.805
45860SOL    HW239414   4.918  12.586   7.895
45861SOL     OW39415  11.231   6.766   3.232
45861SOL    HW139416  11.189   6.709   3.296
45861SOL    HW239417  11.167   6.836   3.217
45862SOL     OW39418   9.457  14.170   8.601
45862SOL    HW139419   9.415  14.161   8.515
45862SOL    HW239420   9.551  14.162   8.582
45863SOL     OW39421   0.632  10.140   0.824
45863SOL    HW139422   0.551  10.181   0.857
45863SOL    HW239423   0.633  10.161   0.731
45864SOL     OW39424   1.097  10.990  14.697
45864SOL    HW139425   1.120  11.057  14.632
45864SOL    HW239426   1.002  10.990  14.700
45865SOL     OW39427   0.222   1.952   3.470
45865SOL    HW139428   0.317   1.954   3.476
45865SOL    HW239429   0.194   1.896   3.543
45866SOL     OW39430   6.812  12.896  13.781
45866SOL    HW139431   6.831  12.914  13.873
45866SOL    HW239432   6.851  12.970  13.733
45867SOL     OW39433   9.103   2.557   6.557
45867SOL    HW139434   9.189   2.597   6.573
45867SOL    HW239435   9.074   2.594   6.474
45868SOL     OW39436   0.879   0.973   5.265
45868SOL    HW139437   0.929   1.052   5.285
45868SOL    HW239438   0.869   0.929   5.349
45869SOL     OW39439   3.752   3.145  14.289
45869SOL    HW139440   3.846   3.141  14.308
45869SOL    HW239441   3.734   3.064  14.242
45870SOL     OW39442   2.642   4.838  12.835
45870SOL    HW139443   2.678   4.847  12.924
45870SOL    HW239444   2.547   4.845  12.847
45871SOL     OW39445   3.122  10.552  10.087
45871SOL    HW139446   3.110  10.645  10.066
45871SOL    HW239447   3.212  10.533  10.059
45872SOL     OW39448  10.823  12.287   1.278
45872SOL    HW139449  10.832  12.307   1.184
45872SOL    HW239450  10.895  12.333   1.319
45873SOL     OW39451   7.460   2.170   1.216
45873SOL    HW139452   7.502   2.222   1.284
45873SOL    HW239453   7.497   2.203   1.134
45874SOL     OW39454   3.332   5.279  12.044
45874SOL    HW139455   3.412   5.228  12.056
45874SOL    HW239456   3.358   5.370  12.055
45875SOL     OW39457   6.526   1.375   9.079
45875SOL    HW139458   6.573   1.362   8.996
45875SOL    HW239459   6.465   1.447   9.061
45876SOL     OW39460  14.152  12.067  13.851
45876SOL    HW139461  14.075  12.022  13.886
45876SOL    HW239462  14.124  12.158  13.841
45877SOL     OW39463  11.270   8.988   7.959
45877SOL    HW139464  11.334   8.933   8.004
45877SOL    HW239465  11.206   9.009   8.027
45878SOL     OW39466  13.714   2.930  14.088
45878SOL    HW139467  13.739   3.023  14.086
45878SOL    HW239468  13.762   2.891  14.014
45879SOL     OW39469   9.539   3.167   2.305
45879SOL    HW139470   9.624   3.125   2.292
45879SOL    HW239471   9.520   3.209   2.221
45880SOL     OW39472  10.973   7.450  12.621
45880SOL    HW139473  10.891   7.435  12.668
45880SOL    HW239474  10.967   7.394  12.543
45881SOL     OW39475   6.809   5.774   4.587
45881SOL    HW139476   6.884   5.833   4.575
45881SOL    HW239477   6.790   5.742   4.499
45882SOL     OW39478   0.291  12.378   5.271
45882SOL    HW139479   0.276  12.340   5.357
45882SOL    HW239480   0.218  12.438   5.258
45883SOL     OW39481   5.136   9.931  12.320
45883SOL    HW139482   5.114  10.012  12.274
45883SOL    HW239483   5.062   9.873  12.303
45884SOL     OW39484   8.321   5.481   7.448
45884SOL    HW139485   8.280   5.566   7.430
45884SOL    HW239486   8.380   5.499   7.522
45885SOL     OW39487  14.141  14.532   5.206
45885SOL    HW139488  14.173  14.602   5.149
45885SOL    HW239489  14.092  14.577   5.275
45886SOL     OW39490   7.209  10.571   2.604
45886SOL    HW139491   7.251  10.655   2.583
45886SOL    HW239492   7.117  10.585   2.584
45887SOL     OW39493   6.683   6.392   9.880
45887SOL    HW139494   6.747   6.362   9.945
45887SOL    HW239495   6.598   6.363   9.914
45888SOL     OW39496  10.153  11.595  13.849
45888SOL    HW139497  10.175  11.503  13.859
45888SOL    HW239498  10.154  11.610  13.755
45889SOL     OW39499   9.225  13.799   3.341
45889SOL    HW139500   9.291  13.764   3.400
45889SOL    HW239501   9.274  13.824   3.262
45890SOL     OW39502  10.862  11.681  10.229
45890SOL    HW139503  10.936  11.621  10.219
45890SOL    HW239504  10.800  11.633  10.284
45891SOL     OW39505   0.946   3.353   0.294
45891SOL    HW139506   0.864   3.387   0.258
45891SOL    HW239507   0.921   3.271   0.337
45892SOL     OW39508   5.995  12.332   7.071
45892SOL    HW139509   6.043  12.279   7.134
45892SOL    HW239510   6.049  12.410   7.059
45893SOL     OW39511   1.774  10.530   7.115
45893SOL    HW139512   1.750  10.545   7.207
45893SOL    HW239513   1.863  10.496   7.119
45894SOL     OW39514   1.721   6.005   4.660
45894SOL    HW139515   1.682   5.934   4.709
45894SOL    HW239516   1.647   6.059   4.632
45895SOL     OW39517   6.962  13.776   9.228
45895SOL    HW139518   7.056  13.765   9.221
45895SOL    HW239519   6.929  13.688   9.245
45896SOL     OW39520   7.824   0.547   4.069
45896SOL    HW139521   7.867   0.633   4.076
45896SOL    HW239522   7.833   0.523   3.977
45897SOL     OW39523   1.947   9.688   7.065
45897SOL    HW139524   1.924   9.743   6.990
45897SOL    HW239525   2.040   9.704   7.079
45898SOL     OW39526   8.889   0.184  13.443
45898SOL    HW139527   8.798   0.161  13.424
45898SOL    HW239528   8.933   0.101  13.455
45899SOL     OW39529  10.261   8.344   2.636
45899SOL    HW139530  10.310   8.343   2.555
45899SOL    HW239531  10.315   8.295   2.698
45900SOL     OW39532   7.246  14.690   4.333
45900SOL    HW139533   7.242  14.633   4.410
45900SOL    HW239534   7.200  14.769   4.359
45901SOL     OW39535   7.350   2.791   9.732
45901SOL    HW139536   7.394   2.870   9.702
45901SOL    HW239537   7.292   2.821   9.803
45902SOL     OW39538  12.713   5.673   5.035
45902SOL    HW139539  12.775   5.605   5.060
45902SOL    HW239540  12.653   5.630   4.973
45903SOL     OW39541   5.773   2.971   0.903
45903SOL    HW139542   5.733   2.963   0.816
45903SOL    HW239543   5.704   2.946   0.964
45904SOL     OW39544   0.479  14.016   0.819
45904SOL    HW139545   0.504  13.975   0.902
45904SOL    HW239546   0.556  14.005   0.763
45905SOL     OW39547  10.837   9.350  10.176
45905SOL    HW139548  10.803   9.439  10.180
45905SOL    HW239549  10.810   9.311  10.260
45906SOL     OW39550  11.131   6.275  10.182
45906SOL    HW139551  11.043   6.260  10.146
45906SOL    HW239552  11.190   6.244  10.114
45907SOL     OW39553   1.830   5.915   4.017
45907SOL    HW139554   1.797   5.869   3.940
45907SOL    HW239555   1.908   5.961   3.986
45908SOL     OW39556  13.000   3.545   8.385
45908SOL    HW139557  12.926   3.503   8.341
45908SOL    HW239558  12.982   3.532   8.478
45909SOL     OW39559   1.790   7.874   9.366
45909SOL    HW139560   1.801   7.902   9.457
45909SOL    HW239561   1.710   7.822   9.366
45910SOL     OW39562   6.320   3.270   6.187
45910SOL    HW139563   6.278   3.194   6.146
45910SOL    HW239564   6.260   3.342   6.171
45911SOL     OW39565   8.757   3.570  12.359
45911SOL    HW139566   8.829   3.537  12.304
45911SOL    HW239567   8.679   3.563  12.304
45912SOL     OW39568  14.818   4.728  11.548
45912SOL    HW139569  14.876   4.655  11.567
45912SOL    HW239570  14.876   4.798  11.519
45913SOL     OW39571   2.859   7.752  11.869
45913SOL    HW139572   2.921   7.813  11.909
45913SOL    HW239573   2.773   7.784  11.895
45914SOL     OW39574  12.158   4.681   7.499
45914SOL    HW139575  12.208   4.752   7.539
45914SOL    HW239576  12.073   4.720   7.479
45915SOL     OW39577   3.030   3.586   0.513
45915SOL    HW139578   2.942   3.587   0.550
45915SOL    HW239579   3.018   3.610   0.421
45916SOL     OW39580  14.663   4.910   7.146
45916SOL    HW139581  14.690   4.891   7.056
45916SOL    HW239582  14.713   4.849   7.199
45917SOL     OW39583  14.025   9.806   4.476
45917SOL    HW139584  13.963   9.829   4.544
45917SOL    HW239585  14.028   9.710   4.478
45918SOL     OW39586   8.046   4.214  11.285
45918SOL    HW139587   8.033   4.120  11.292
45918SOL    HW239588   8.138   4.224  11.261
45919SOL     OW39589   1.599   2.966   6.201
45919SOL    HW139590   1.658   3.039   6.182
45919SOL    HW239591   1.624   2.937   6.289
45920SOL     OW39592   5.169  14.590   7.057
45920SOL    HW139593   5.219  14.564   6.979
45920SOL    HW239594   5.182  14.518   7.118
45921SOL     OW39595   6.901  13.469   9.089
45921SOL    HW139596   6.928  13.466   9.181
45921SOL    HW239597   6.956  13.404   9.046
45922SOL     OW39598  12.385  11.135   8.795
45922SOL    HW139599  12.419  11.210   8.747
45922SOL    HW239600  12.351  11.172   8.876
45923SOL     OW39601   4.354  14.183   6.216
45923SOL    HW139602   4.384  14.126   6.145
45923SOL    HW239603   4.431  14.198   6.270
45924SOL     OW39604   2.957   2.027   5.198
45924SOL    HW139605   2.971   2.046   5.290
45924SOL    HW239606   2.873   1.981   5.195
45925SOL     OW39607   7.315   0.239  14.254
45925SOL    HW139608   7.345   0.148  14.252
45925SOL    HW239609   7.240   0.240  14.195
45926SOL     OW39610  11.215  14.319  12.227
45926SOL    HW139611  11.234  14.267  12.305
45926SOL    HW239612  11.278  14.391  12.229
45927SOL     OW39613  12.501   9.715   6.395
45927SOL    HW139614  12.446   9.792   6.404
45927SOL    HW239615  12.565   9.739   6.327
45928SOL     OW39616   1.090  11.907   6.260
45928SOL    HW139617   1.087  11.927   6.353
45928SOL    HW239618   1.178  11.933   6.233
45929SOL     OW39619   2.682   9.938  14.428
45929SOL    HW139620   2.729   9.857  14.449
45929SOL    HW239621   2.590   9.910  14.421
45930SOL     OW39622   1.177  10.702  13.976
45930SOL    HW139623   1.226  10.718  14.056
45930SOL    HW239624   1.224  10.753  13.909
45931SOL     OW39625   7.636  12.529   7.052
45931SOL    HW139626   7.714  12.488   7.089
45931SOL    HW239627   7.669  12.587   6.983
45932SOL     OW39628   7.370   5.112   1.157
45932SOL    HW139629   7.314   5.038   1.136
45932SOL    HW239630   7.360   5.124   1.251
45933SOL     OW39631   2.800   1.825   5.375
45933SOL    HW139632   2.752   1.799   5.454
45933SOL    HW239633   2.828   1.915   5.393
45934SOL     OW39634   6.896   8.315   5.883
45934SOL    HW139635   6.842   8.392   5.902
45934SOL    HW239636   6.960   8.345   5.819
45935SOL     OW39637  12.482   0.192   6.134
45935SOL    HW139638  12.454   0.283   6.138
45935SOL    HW239639  12.501   0.168   6.224
45936SOL     OW39640   9.061  12.088   7.906
45936SOL    HW139641   8.977  12.049   7.880
45936SOL    HW239642   9.085  12.144   7.832
45937SOL     OW39643   3.299  11.587   2.903
45937SOL    HW139644   3.272  11.618   2.817
45937SOL    HW239645   3.337  11.664   2.946
45938SOL     OW39646   7.559   4.671   0.316
45938SOL    HW139647   7.622   4.741   0.297
45938SOL    HW239648   7.599   4.592   0.280
45939SOL     OW39649   8.820   3.567   9.032
45939SOL    HW139650   8.844   3.566   9.125
45939SOL    HW239651   8.891   3.518   8.989
45940SOL     OW39652   2.772   2.974   2.915
45940SOL    HW139653   2.868   2.974   2.919
45940SOL    HW239654   2.746   3.041   2.978
45941SOL     OW39655  14.436   0.780  10.460
45941SOL    HW139656  14.446   0.713  10.527
45941SOL    HW239657  14.342   0.785  10.446
45942SOL     OW39658   9.004   3.393   5.240
45942SOL    HW139659   8.952   3.435   5.171
45942SOL    HW239660   8.960   3.310   5.256
45943SOL     OW39661   7.842   6.929   4.211
45943SOL    HW139662   7.890   6.996   4.260
45943SOL    HW239663   7.752   6.961   4.207
45944SOL     OW39664  11.812   4.540   9.908
45944SOL    HW139665  11.812   4.518   9.815
45944SOL    HW239666  11.861   4.622   9.913
45945SOL     OW39667  12.558   0.391   5.391
45945SOL    HW139668  12.497   0.318   5.401
45945SOL    HW239669  12.539   0.448   5.466
45946SOL     OW39670   6.288   3.171  14.257
45946SOL    HW139671   6.368   3.201  14.302
45946SOL    HW239672   6.237   3.130  14.326
45947SOL     OW39673   8.476  10.484  10.030
45947SOL    HW139674   8.508  10.399  10.061
45947SOL    HW239675   8.383  10.484  10.053
45948SOL     OW39676   2.771   2.803  12.858
45948SOL    HW139677   2.838   2.868  12.881
45948SOL    HW239678   2.821   2.731  12.820
45949SOL     OW39679   7.068   3.634   2.648
45949SOL    HW139680   7.157   3.601   2.646
45949SOL    HW239681   7.049   3.657   2.557
45950SOL     OW39682   8.293   2.319  12.728
45950SOL    HW139683   8.318   2.231  12.702
45950SOL    HW239684   8.312   2.322  12.822
45951SOL     OW39685   3.935   1.754  10.585
45951SOL    HW139686   3.859   1.718  10.539
45951SOL    HW239687   3.897   1.803  10.658
45952SOL     OW39688   3.725   8.020  14.507
45952SOL    HW139689   3.751   7.928  14.497
45952SOL    HW239690   3.695   8.026  14.598
45953SOL     OW39691   7.193   4.388   2.849
45953SOL    HW139692   7.107   4.346   2.841
45953SOL    HW239693   7.209   4.394   2.943
45954SOL     OW39694   5.961   7.659   4.067
45954SOL    HW139695   5.954   7.725   3.999
45954SOL    HW239696   5.974   7.577   4.019
45955SOL     OW39697   2.279   4.214   4.895
45955SOL    HW139698   2.216   4.253   4.835
45955SOL    HW239699   2.298   4.128   4.857
45956SOL     OW39700  14.801  10.556   1.401
45956SOL    HW139701  14.871  10.565   1.466
45956SOL    HW239702  14.813  10.631   1.343
45957SOL     OW39703   0.499   7.033   9.934
45957SOL    HW139704   0.423   7.074   9.975
45957SOL    HW239705   0.476   7.025   9.841
45958SOL     OW39706  10.098   0.782   4.784
45958SOL    HW139707  10.069   0.741   4.703
45958SOL    HW239708  10.106   0.710   4.846
45959SOL     OW39709   6.874   5.194   1.597
45959SOL    HW139710   6.901   5.176   1.507
45959SOL    HW239711   6.790   5.148   1.606
45960SOL     OW39712  14.410   1.974  12.138
45960SOL    HW139713  14.451   2.004  12.057
45960SOL    HW239714  14.424   1.879  12.139
45961SOL     OW39715   6.373  11.431   7.434
45961SOL    HW139716   6.320  11.459   7.360
45961SOL    HW239717   6.410  11.347   7.407
45962SOL     OW39718  10.503   3.277   7.964
45962SOL    HW139719  10.507   3.372   7.957
45962SOL    HW239720  10.570   3.246   7.903
45963SOL     OW39721  11.200   2.097  14.359
45963SOL    HW139722  11.177   2.101  14.266
45963SOL    HW239723  11.117   2.106  14.405
45964SOL     OW39724  11.201   0.775   4.489
45964SOL    HW139725  11.172   0.713   4.556
45964SOL    HW239726  11.123   0.789   4.435
45965SOL     OW39727   5.030   5.829   3.916
45965SOL    HW139728   5.105   5.806   3.971
45965SOL    HW239729   4.968   5.757   3.928
45966SOL     OW39730   5.469   5.427  14.033
45966SOL    HW139731   5.557   5.461  14.016
45966SOL    HW239732   5.458   5.436  14.127
45967SOL     OW39733   9.241  13.406   8.388
45967SOL    HW139734   9.177  13.334   8.387
45967SOL    HW239735   9.291  13.394   8.307
45968SOL     OW39736   6.887   4.100   4.098
45968SOL    HW139737   6.857   4.020   4.141
45968SOL    HW239738   6.824   4.114   4.027
45969SOL     OW39739   2.241   5.540  12.312
45969SOL    HW139740   2.321   5.591  12.322
45969SOL    HW239741   2.171   5.606  12.312
45970SOL     OW39742   3.487   9.893  10.709
45970SOL    HW139743   3.437   9.958  10.759
45970SOL    HW239744   3.578   9.911  10.731
45971SOL     OW39745   7.570   0.466   7.226
45971SOL    HW139746   7.568   0.562   7.232
45971SOL    HW239747   7.487   0.442   7.186
45972SOL     OW39748   5.185   9.457   1.241
45972SOL    HW139749   5.167   9.524   1.307
45972SOL    HW239750   5.270   9.421   1.264
45973SOL     OW39751   5.304   0.259   8.501
45973SOL    HW139752   5.234   0.216   8.451
45973SOL    HW239753   5.283   0.353   8.495
45974SOL     OW39754   3.367   4.804   7.050
45974SOL    HW139755   3.404   4.716   7.046
45974SOL    HW239756   3.332   4.819   6.962
45975SOL     OW39757   0.129   1.339  10.345
45975SOL    HW139758   0.166   1.349  10.257
45975SOL    HW239759   0.075   1.260  10.340
45976SOL     OW39760   4.855   5.019   6.201
45976SOL    HW139761   4.902   5.068   6.269
45976SOL    HW239762   4.913   5.022   6.125
45977SOL     OW39763  10.592   9.283   7.273
45977SOL    HW139764  10.678   9.256   7.305
45977SOL    HW239765  10.595   9.265   7.179
45978SOL     OW39766  14.414   2.900   7.000
45978SOL    HW139767  14.487   2.954   6.970
45978SOL    HW239768  14.431   2.886   7.093
45979SOL     OW39769  11.809   7.692   5.854
45979SOL    HW139770  11.835   7.765   5.797
45979SOL    HW239771  11.852   7.710   5.937
45980SOL     OW39772   2.608   6.932   6.047
45980SOL    HW139773   2.682   6.960   5.993
45980SOL    HW239774   2.606   6.994   6.119
45981SOL     OW39775   0.901  14.068   0.493
45981SOL    HW139776   0.981  14.020   0.471
45981SOL    HW239777   0.901  14.142   0.432
45982SOL     OW39778   9.665   4.669  13.727
45982SOL    HW139779   9.732   4.727  13.689
45982SOL    HW239780   9.598   4.661  13.660
45983SOL     OW39781   9.596   2.339  11.900
45983SOL    HW139782   9.630   2.428  11.912
45983SOL    HW239783   9.621   2.315  11.811
45984SOL     OW39784  14.586   0.174   7.750
45984SOL    HW139785  14.607   0.219   7.668
45984SOL    HW239786  14.635   0.092   7.746
45985SOL     OW39787   8.251   7.561   9.905
45985SOL    HW139788   8.194   7.632   9.932
45985SOL    HW239789   8.282   7.585   9.818
45986SOL     OW39790   0.878  14.300  14.560
45986SOL    HW139791   0.794  14.344  14.566
45986SOL    HW239792   0.930  14.356  14.501
45987SOL     OW39793  11.826   2.581  11.236
45987SOL    HW139794  11.733   2.576  11.215
45987SOL    HW239795  11.870   2.573  11.152
45988SOL     OW39796   9.977   1.036  13.873
45988SOL    HW139797   9.895   1.057  13.829
45988SOL    HW239798  10.042   1.093  13.831
45989SOL     OW39799   9.392   3.242   3.880
45989SOL    HW139800   9.428   3.293   3.808
45989SOL    HW239801   9.416   3.292   3.958
45990SOL     OW39802   6.252   2.302   6.873
45990SOL    HW139803   6.196   2.290   6.950
45990SOL    HW239804   6.336   2.264   6.900
45991SOL     OW39805   1.427  11.776   8.190
45991SOL    HW139806   1.515  11.745   8.213
45991SOL    HW239807   1.400  11.829   8.264
45992SOL     OW39808  14.690   6.129   5.048
45992SOL    HW139809  14.617   6.071   5.025
45992SOL    HW239810  14.745   6.130   4.970
45993SOL     OW39811   6.607  13.677  12.129
45993SOL    HW139812   6.517  13.694  12.099
45993SOL    HW239813   6.603  13.691  12.223
45994SOL     OW39814   5.870   2.008  14.495
45994SOL    HW139815   5.830   2.064  14.428
45994SOL    HW239816   5.903   2.069  14.561
45995SOL     OW39817   6.542   0.066   8.276
45995SOL    HW139818   6.476   0.070   8.345
45995SOL    HW239819   6.560   0.158   8.254
45996SOL     OW39820   1.748  13.532   2.878
45996SOL    HW139821   1.827  13.512   2.927
45996SOL    HW239822   1.773  13.519   2.786
45997SOL     OW39823   6.236   2.024  12.950
45997SOL    HW139824   6.251   2.054  13.040
45997SOL    HW239825   6.203   1.934  12.960
45998SOL     OW39826  12.514  14.236  11.464
45998SOL    HW139827  12.603  14.236  11.501
45998SOL    HW239828  12.495  14.143  11.449
45999SOL     OW39829  14.178   7.070  10.153
45999SOL    HW139830  14.222   7.075  10.237
45999SOL    HW239831  14.152   6.978  10.145
46000SOL     OW39832  12.323   2.215   4.198
46000SOL    HW139833  12.303   2.264   4.278
46000SOL    HW239834  12.260   2.247   4.134
46001SOL     OW39835  11.006   7.001  14.017
46001SOL    HW139836  11.037   7.080  14.061
46001SOL    HW239837  11.008   6.934  14.085
46002SOL     OW39838   4.113   0.977  12.841
46002SOL    HW139839   4.074   0.976  12.928
46002SOL    HW239840   4.126   1.070  12.821
46003SOL     OW39841   9.983  11.679   3.534
46003SOL    HW139842   9.902  11.635   3.506
46003SOL    HW239843  10.020  11.714   3.453
46004SOL     OW39844   9.125   0.350  11.456
46004SOL    HW139845   9.070   0.276  11.433
46004SOL    HW239846   9.153   0.332  11.546
46005SOL     OW39847   1.740  13.020  10.016
46005SOL    HW139848   1.650  13.007   9.988
46005SOL    HW239849   1.783  13.058   9.940
46006SOL     OW39850  14.157   4.593   5.888
46006SOL    HW139851  14.095   4.625   5.822
46006SOL    HW239852  14.124   4.506   5.911
46007SOL     OW39853   6.034   2.728  11.083
46007SOL    HW139854   6.093   2.748  11.011
46007SOL    HW239855   5.951   2.768  11.058
46008SOL     OW39856  13.129   0.119  14.077
46008SOL    HW139857  13.209   0.171  14.065
46008SOL    HW239858  13.156   0.029  14.057
46009SOL     OW39859  13.160   0.309   8.393
46009SOL    HW139860  13.237   0.365   8.378
46009SOL    HW239861  13.171   0.236   8.332
46010SOL     OW39862   1.279   4.764  12.136
46010SOL    HW139863   1.284   4.669  12.146
46010SOL    HW239864   1.303   4.780  12.045
46011SOL     OW39865   9.558   6.549   4.504
46011SOL    HW139866   9.588   6.564   4.594
46011SOL    HW239867   9.470   6.585   4.502
46012SOL     OW39868  10.393   1.969  12.892
46012SOL    HW139869  10.408   1.985  12.985
46012SOL    HW239870  10.298   1.956  12.885
46013SOL     OW39871   0.359  11.595   0.094
46013SOL    HW139872   0.266  11.573   0.083
46013SOL    HW239873   0.404  11.511   0.090
46014SOL     OW39874   8.411   2.177   6.451
46014SOL    HW139875   8.479   2.196   6.386
46014SOL    HW239876   8.412   2.252   6.510
46015SOL     OW39877  10.386   6.997   4.879
46015SOL    HW139878  10.459   6.946   4.913
46015SOL    HW239879  10.320   6.932   4.854
46016SOL     OW39880   9.822   4.627  10.261
46016SOL    HW139881   9.857   4.612  10.349
46016SOL    HW239882   9.827   4.722  10.249
46017SOL     OW39883  14.771   6.030   4.177
46017SOL    HW139884  14.821   6.094   4.227
46017SOL    HW239885  14.687   6.023   4.224
46018SOL     OW39886   4.439   6.233   7.139
46018SOL    HW139887   4.462   6.275   7.056
46018SOL    HW239888   4.493   6.278   7.204
46019SOL     OW39889  14.736  10.539   9.630
46019SOL    HW139890  14.656  10.489   9.613
46019SOL    HW239891  14.787  10.532   9.549
46020SOL     OW39892   2.006  12.193   4.724
46020SOL    HW139893   1.979  12.102   4.733
46020SOL    HW239894   1.951  12.241   4.786
46021SOL     OW39895   8.748   7.295   2.346
46021SOL    HW139896   8.670   7.242   2.329
46021SOL    HW239897   8.714   7.380   2.373
46022SOL     OW39898  12.327   4.745   3.695
46022SOL    HW139899  12.370   4.721   3.613
46022SOL    HW239900  12.325   4.663   3.745
46023SOL     OW39901   2.121   8.662   0.330
46023SOL    HW139902   2.186   8.711   0.381
46023SOL    HW239903   2.061   8.729   0.298
46024SOL     OW39904   5.313   4.353   1.706
46024SOL    HW139905   5.390   4.367   1.762
46024SOL    HW239906   5.255   4.426   1.727
46025SOL     OW39907  13.990   8.200  14.048
46025SOL    HW139908  13.937   8.131  14.010
46025SOL    HW239909  13.969   8.200  14.141
46026SOL     OW39910   2.350   0.967  11.115
46026SOL    HW139911   2.387   1.046  11.153
46026SOL    HW239912   2.389   0.895  11.165
46027SOL     OW39913  14.860   2.291   3.434
46027SOL    HW139914   0.050   2.270   3.371
46027SOL    HW239915   0.028   2.324   3.511
46028SOL     OW39916   0.210   1.123   6.211
46028SOL    HW139917   0.222   1.041   6.259
46028SOL    HW239918   0.255   1.189   6.264
46029SOL     OW39919  14.540   1.288   1.468
46029SOL    HW139920  14.527   1.216   1.530
46029SOL    HW239921  14.633   1.282   1.444
46030SOL     OW39922  14.237   6.487  10.895
46030SOL    HW139923  14.198   6.479  10.808
46030SOL    HW239924  14.178   6.544  10.943
46031SOL     OW39925   5.753   1.970   0.372
46031SOL    HW139926   5.666   2.007   0.387
46031SOL    HW239927   5.798   2.036   0.318
46032SOL     OW39928   0.622  13.771   6.446
46032SOL    HW139929   0.636  13.848   6.501
46032SOL    HW239930   0.709  13.748   6.414
46033SOL     OW39931   1.159   1.941   2.056
46033SOL    HW139932   1.220   1.958   2.128
46033SOL    HW239933   1.122   2.027   2.036
46034SOL     OW39934   4.595   8.861   0.682
46034SOL    HW139935   4.647   8.782   0.671
46034SOL    HW239936   4.580   8.868   0.776
46035SOL     OW39937   5.799   6.069  11.887
46035SOL    HW139938   5.815   6.100  11.798
46035SOL    HW239939   5.746   6.139  11.927
46036SOL     OW39940  11.775   4.524  10.586
46036SOL    HW139941  11.683   4.504  10.567
46036SOL    HW239942  11.777   4.540  10.680
46037SOL     OW39943   9.463   5.448  11.208
46037SOL    HW139944   9.554   5.417  11.201
46037SOL    HW239945   9.459   5.491  11.293
46038SOL     OW39946  10.435   2.559   7.345
46038SOL    HW139947  10.341   2.566   7.357
46038SOL    HW239948  10.450   2.470   7.315
46039SOL     OW39949  10.184   1.185  13.791
46039SOL    HW139950  10.191   1.280  13.798
46039SOL    HW239951  10.266   1.158  13.749
46040SOL     OW39952  12.295  14.779  12.057
46040SOL    HW139953  12.256  14.703  12.015
46040SOL    HW239954  12.297  14.757  12.150
46041SOL     OW39955  13.077   6.294  11.892
46041SOL    HW139956  13.042   6.383  11.899
46041SOL    HW239957  13.169   6.306  11.868
46042SOL     OW39958   4.621  14.681   7.821
46042SOL    HW139959   4.559  14.617   7.857
46042SOL    HW239960   4.697  14.677   7.879
46043SOL     OW39961  11.043  14.550  13.950
46043SOL    HW139962  11.103  14.493  13.999
46043SOL    HW239963  10.958  14.508  13.958
46044SOL     OW39964  11.681  13.976  14.005
46044SOL    HW139965  11.636  14.036  14.064
46044SOL    HW239966  11.673  14.016  13.919
46045SOL     OW39967  12.462   5.367  14.490
46045SOL    HW139968  12.460   5.461  14.507
46045SOL    HW239969  12.457   5.360  14.395
46046SOL     OW39970   4.637   2.487   9.989
46046SOL    HW139971   4.703   2.520   9.928
46046SOL    HW239972   4.680   2.490  10.075
46047SOL     OW39973  14.545   9.184   4.615
46047SOL    HW139974  14.461   9.153   4.581
46047SOL    HW239975  14.553   9.143   4.701
46048SOL     OW39976  13.757   7.742   8.944
46048SOL    HW139977  13.703   7.821   8.940
46048SOL    HW239978  13.714   7.681   8.884
46049SOL     OW39979   5.975   9.807   8.066
46049SOL    HW139980   5.902   9.773   8.013
46049SOL    HW239981   6.053   9.792   8.013
46050SOL     OW39982   1.224   4.098  14.626
46050SOL    HW139983   1.251   4.126  14.713
46050SOL    HW239984   1.129   4.090  14.631
46051SOL     OW39985  14.112   7.010   0.402
46051SOL    HW139986  14.122   7.059   0.484
46051SOL    HW239987  14.099   7.077   0.336
46052SOL     OW39988   9.822  14.316   9.874
46052SOL    HW139989   9.869  14.236   9.849
46052SOL    HW239990   9.745  14.284   9.920
46053SOL     OW39991  11.789   0.505  10.011
46053SOL    HW139992  11.740   0.427  10.035
46053SOL    HW239993  11.725   0.562   9.968
46054SOL     OW39994   7.587  13.317   9.537
46054SOL    HW139995   7.643  13.281   9.606
46054SOL    HW239996   7.523  13.371   9.584
46055SOL     OW39997   1.341  13.613   3.101
46055SOL    HW139998   1.387  13.631   3.019
46055SOL    HW239999   1.311  13.523   3.093
46056SOL     OW40000   2.525   7.116   6.488
46056SOL    HW140001   2.516   7.043   6.427
46056SOL    HW240002   2.521   7.076   6.574
46057SOL     OW40003   3.654   0.371   4.000
46057SOL    HW140004   3.655   0.466   4.007
46057SOL    HW240005   3.568   0.349   3.966
46058SOL     OW40006   5.910   1.635   2.715
46058SOL    HW140007   5.827   1.589   2.727
46058SOL    HW240008   5.966   1.573   2.669
46059SOL     OW40009  11.745  14.325   7.490
46059SOL    HW140010  11.797  14.248   7.466
46059SOL    HW240011  11.780  14.351   7.575
46060SOL     OW40012   1.412   6.127   2.636
46060SOL    HW140013   1.489   6.083   2.673
46060SOL    HW240014   1.345   6.058   2.631
46061SOL     OW40015   8.920   2.785   1.300
46061SOL    HW140016   8.992   2.791   1.363
46061SOL    HW240017   8.919   2.870   1.257
46062SOL     OW40018   6.646  14.632  14.272
46062SOL    HW140019   6.689  14.655  14.354
46062SOL    HW240020   6.559  14.602  14.298
46063SOL     OW40021  14.129   0.217   2.103
46063SOL    HW140022  14.200   0.177   2.054
46063SOL    HW240023  14.136   0.310   2.084
46064SOL     OW40024  12.698  12.659  11.829
46064SOL    HW140025  12.674  12.570  11.855
46064SOL    HW240026  12.614  12.703  11.816
46065SOL     OW40027   8.218  10.334   8.347
46065SOL    HW140028   8.189  10.366   8.432
46065SOL    HW240029   8.254  10.247   8.366
46066SOL     OW40030   2.258   2.144   2.272
46066SOL    HW140031   2.332   2.189   2.231
46066SOL    HW240032   2.190   2.210   2.279
46067SOL     OW40033   0.054   2.119  11.550
46067SOL    HW140034   0.122   2.054  11.530
46067SOL    HW240035   0.015   2.139  11.465
46068SOL     OW40036  10.618   3.225  10.973
46068SOL    HW140037  10.706   3.246  11.004
46068SOL    HW240038  10.628   3.142  10.928
46069SOL     OW40039  11.417   1.552  10.465
46069SOL    HW140040  11.329   1.548  10.504
46069SOL    HW240041  11.411   1.620  10.398
46070SOL     OW40042   0.692   4.151   0.305
46070SOL    HW140043   0.704   4.227   0.249
46070SOL    HW240044   0.757   4.088   0.274
46071SOL     OW40045   5.245   8.861   2.457
46071SOL    HW140046   5.198   8.794   2.506
46071SOL    HW240047   5.181   8.931   2.445
46072SOL     OW40048  12.437   7.211   7.861
46072SOL    HW140049  12.517   7.225   7.913
46072SOL    HW240050  12.457   7.134   7.808
46073SOL     OW40051  10.502  13.419  10.910
46073SOL    HW140052  10.432  13.356  10.900
46073SOL    HW240053  10.550  13.391  10.988
46074SOL     OW40054  11.219   8.441  11.301
46074SOL    HW140055  11.209   8.366  11.360
46074SOL    HW240056  11.131   8.454  11.263
46075SOL     OW40057   8.348   3.952   9.195
46075SOL    HW140058   8.335   3.857   9.189
46075SOL    HW240059   8.287   3.988   9.131
46076SOL     OW40060  14.555   6.633   3.502
46076SOL    HW140061  14.495   6.635   3.576
46076SOL    HW240062  14.498   6.632   3.425
46077SOL     OW40063  10.704  12.184   8.157
46077SOL    HW140064  10.612  12.202   8.136
46077SOL    HW240065  10.706  12.179   8.252
46078SOL     OW40066   9.277   0.353   7.450
46078SOL    HW140067   9.311   0.307   7.374
46078SOL    HW240068   9.305   0.299   7.525
46079SOL     OW40069   0.105   4.420   2.975
46079SOL    HW140070   0.154   4.494   3.011
46079SOL    HW240071   0.013   4.447   2.982
46080SOL     OW40072   3.964   6.398   8.216
46080SOL    HW140073   3.931   6.390   8.305
46080SOL    HW240074   4.005   6.484   8.213
46081SOL     OW40075  10.742  12.888   2.869
46081SOL    HW140076  10.782  12.879   2.955
46081SOL    HW240077  10.810  12.928   2.815
46082SOL     OW40078   5.520  13.554   7.892
46082SOL    HW140079   5.574  13.499   7.948
46082SOL    HW240080   5.466  13.492   7.843
46083SOL     OW40081   0.523   5.283   8.844
46083SOL    HW140082   0.461   5.355   8.853
46083SOL    HW240083   0.495   5.237   8.765
46084SOL     OW40084   0.214   9.905   4.442
46084SOL    HW140085   0.267   9.980   4.469
46084SOL    HW240086   0.229   9.896   4.348
46085SOL     OW40087   4.689  13.935   5.770
46085SOL    HW140088   4.599  13.926   5.737
46085SOL    HW240089   4.683  14.003   5.836
46086SOL     OW40090  12.812   4.901   0.533
46086SOL    HW140091  12.721   4.907   0.562
46086SOL    HW240092  12.849   4.987   0.554
46087SOL     OW40093  10.756   5.294   9.382
46087SOL    HW140094  10.789   5.261   9.299
46087SOL    HW240095  10.668   5.327   9.362
46088SOL     OW40096   2.383   8.405  10.312
46088SOL    HW140097   2.305   8.437  10.357
46088SOL    HW240098   2.443   8.480  10.312
46089SOL     OW40099   3.515  14.492   1.051
46089SOL    HW140100   3.473  14.406   1.039
46089SOL    HW240101   3.459  14.552   1.001
46090SOL     OW40102   3.781   0.660   9.502
46090SOL    HW140103   3.733   0.598   9.447
46090SOL    HW240104   3.837   0.606   9.557
46091SOL     OW40105  10.600   1.612   4.012
46091SOL    HW140106  10.548   1.532   4.005
46091SOL    HW240107  10.546   1.672   4.063
46092SOL     OW40108   7.012   2.049   5.202
46092SOL    HW140109   7.001   2.031   5.109
46092SOL    HW240110   7.102   2.083   5.209
46093SOL     OW40111  10.163   0.282  10.109
46093SOL    HW140112  10.234   0.223  10.084
46093SOL    HW240113  10.207   0.359  10.147
46094SOL     OW40114  10.256   7.573   1.411
46094SOL    HW140115  10.171   7.614   1.428
46094SOL    HW240116  10.247   7.535   1.324
46095SOL     OW40117  14.127   5.787  13.512
46095SOL    HW140118  14.072   5.865  13.520
46095SOL    HW240119  14.095   5.728  13.580
46096SOL     OW40120   9.200   3.068   8.714
46096SOL    HW140121   9.191   3.162   8.701
46096SOL    HW240122   9.131   3.029   8.659
46097SOL     OW40123   7.613   8.567   1.454
46097SOL    HW140124   7.579   8.623   1.523
46097SOL    HW240125   7.681   8.620   1.412
46098SOL     OW40126   5.418  14.541   3.705
46098SOL    HW140127   5.358  14.470   3.680
46098SOL    HW240128   5.402  14.554   3.798
46099SOL     OW40129   7.024   5.386  12.480
46099SOL    HW140130   7.066   5.470  12.462
46099SOL    HW240131   7.075   5.349  12.553
46100SOL     OW40132   3.322   4.903  11.489
46100SOL    HW140133   3.255   4.905  11.421
46100SOL    HW240134   3.317   4.815  11.525
46101SOL     OW40135  12.933  10.761  14.641
46101SOL    HW140136  12.918  10.731  14.551
46101SOL    HW240137  12.961  10.852  14.631
46102SOL     OW40138   4.796   4.433   8.830
46102SOL    HW140139   4.749   4.431   8.914
46102SOL    HW240140   4.842   4.517   8.831
46103SOL     OW40141   4.955   0.625   2.587
46103SOL    HW140142   4.968   0.719   2.577
46103SOL    HW240143   4.868   0.618   2.628
46104SOL     OW40144  10.542   2.633  13.127
46104SOL    HW140145  10.467   2.686  13.098
46104SOL    HW240146  10.604   2.639  13.055
46105SOL     OW40147  14.170  11.996   5.173
46105SOL    HW140148  14.248  11.958   5.216
46105SOL    HW240149  14.128  11.921   5.131
46106SOL     OW40150  13.419   3.340  13.353
46106SOL    HW140151  13.350   3.350  13.418
46106SOL    HW240152  13.375   3.298  13.278
46107SOL     OW40153   4.098   2.548   9.866
46107SOL    HW140154   4.152   2.564   9.789
46107SOL    HW240155   4.077   2.635   9.900
46108SOL     OW40156   1.794   3.200   4.705
46108SOL    HW140157   1.707   3.224   4.738
46108SOL    HW240158   1.835   3.284   4.684
46109SOL     OW40159   3.936  13.071   3.941
46109SOL    HW140160   3.982  13.039   4.018
46109SOL    HW240161   3.849  13.095   3.973
46110SOL     OW40162  14.085  14.370   8.562
46110SOL    HW140163  14.035  14.308   8.510
46110SOL    HW240164  14.095  14.447   8.505
46111SOL     OW40165  12.252  11.021  11.687
46111SOL    HW140166  12.316  11.020  11.758
46111SOL    HW240167  12.278  10.948  11.630
46112SOL     OW40168  12.399  11.051   1.239
46112SOL    HW140169  12.404  10.955   1.241
46112SOL    HW240170  12.307  11.070   1.223
46113SOL     OW40171   1.022   3.395  14.276
46113SOL    HW140172   1.115   3.390  14.299
46113SOL    HW240173   1.002   3.488  14.280
46114SOL     OW40174   4.779   7.217   7.171
46114SOL    HW140175   4.844   7.160   7.132
46114SOL    HW240176   4.739   7.263   7.097
46115SOL     OW40177  13.833   4.740   7.743
46115SOL    HW140178  13.818   4.816   7.686
46115SOL    HW240179  13.797   4.767   7.828
46116SOL     OW40180   7.429   2.825  13.662
46116SOL    HW140181   7.470   2.770  13.595
46116SOL    HW240182   7.419   2.769  13.738
46117SOL     OW40183   5.969   4.596   7.454
46117SOL    HW140184   6.062   4.587   7.437
46117SOL    HW240185   5.935   4.507   7.456
46118SOL     OW40186  10.347   1.956  11.937
46118SOL    HW140187  10.276   2.001  11.983
46118SOL    HW240188  10.337   1.980  11.845
46119SOL     OW40189   0.064  10.830   6.161
46119SOL    HW140190   0.136  10.771   6.184
46119SOL    HW240191   0.106  10.900   6.110
46120SOL     OW40192  12.385   0.322  13.378
46120SOL    HW140193  12.387   0.286  13.289
46120SOL    HW240194  12.406   0.248  13.435
46121SOL     OW40195  14.208  14.179  13.055
46121SOL    HW140196  14.284  14.216  13.100
46121SOL    HW240197  14.133  14.226  13.092
46122SOL     OW40198   2.095   1.377   9.859
46122SOL    HW140199   2.040   1.443   9.816
46122SOL    HW240200   2.129   1.324   9.787
46123SOL     OW40201  12.388   6.220   4.869
46123SOL    HW140202  12.301   6.226   4.828
46123SOL    HW240203  12.371   6.227   4.963
46124SOL     OW40204   3.416   3.612   2.187
46124SOL    HW140205   3.323   3.613   2.165
46124SOL    HW240206   3.461   3.627   2.104
46125SOL     OW40207   3.041   0.529   6.048
46125SOL    HW140208   3.013   0.593   5.983
46125SOL    HW240209   3.090   0.580   6.113
46126SOL     OW40210   3.099  14.419   4.340
46126SOL    HW140211   3.156  14.472   4.284
46126SOL    HW240212   3.120  14.447   4.429
46127SOL     OW40213  12.440   2.292   9.146
46127SOL    HW140214  12.454   2.333   9.060
46127SOL    HW240215  12.389   2.356   9.194
46128SOL     OW40216  10.533   9.912   1.000
46128SOL    HW140217  10.542   9.819   0.977
46128SOL    HW240218  10.439   9.929   0.992
46129SOL     OW40219   0.301   9.842   2.916
46129SOL    HW140220   0.329   9.931   2.895
46129SOL    HW240221   0.359   9.815   2.987
46130SOL     OW40222   0.662   5.724  10.567
46130SOL    HW140223   0.699   5.774  10.640
46130SOL    HW240224   0.575   5.699  10.596
46131SOL     OW40225   5.682  12.395   6.256
46131SOL    HW140226   5.648  12.380   6.167
46131SOL    HW240227   5.738  12.320   6.273
46132SOL     OW40228  11.682  11.525  11.181
46132SOL    HW140229  11.602  11.517  11.130
46132SOL    HW240230  11.658  11.492  11.268
46133SOL     OW40231   7.018   8.548  12.341
46133SOL    HW140232   6.927   8.532  12.366
46133SOL    HW240233   7.043   8.471  12.290
46134SOL     OW40234   8.679   3.356   8.777
46134SOL    HW140235   8.656   3.428   8.718
46134SOL    HW240236   8.758   3.318   8.737
46135SOL     OW40237   3.596  11.147  11.201
46135SOL    HW140238   3.610  11.053  11.184
46135SOL    HW240239   3.682  11.187  11.188
46136SOL     OW40240   0.159  12.969  13.017
46136SOL    HW140241   0.086  12.963  12.956
46136SOL    HW240242   0.118  12.989  13.101
46137SOL     OW40243   5.462   8.613   5.112
46137SOL    HW140244   5.428   8.645   5.029
46137SOL    HW240245   5.424   8.526   5.122
46138SOL     OW40246   2.777   0.910  14.862
46138SOL    HW140247   2.866   0.911   0.018
46138SOL    HW240248   2.777   0.977  14.795
46139SOL     OW40249   6.675   4.999   6.405
46139SOL    HW140250   6.651   4.922   6.353
46139SOL    HW240251   6.665   5.073   6.345
46140SOL     OW40252   6.107  11.242  13.710
46140SOL    HW140253   6.120  11.181  13.637
46140SOL    HW240254   6.171  11.215  13.775
46141SOL     OW40255   3.390  11.205   9.268
46141SOL    HW140256   3.445  11.128   9.252
46141SOL    HW240257   3.436  11.254   9.336
46142SOL     OW40258   0.325   5.183   2.110
46142SOL    HW140259   0.260   5.215   2.173
46142SOL    HW240260   0.274   5.158   2.033
46143SOL     OW40261  14.162   8.746  12.754
46143SOL    HW140262  14.112   8.734  12.673
46143SOL    HW240263  14.177   8.657  12.786
46144SOL     OW40264   2.875   1.817   9.769
46144SOL    HW140265   2.881   1.724   9.789
46144SOL    HW240266   2.866   1.860   9.854
46145SOL     OW40267   5.970  13.134  13.939
46145SOL    HW140268   5.946  13.134  14.032
46145SOL    HW240269   5.918  13.204  13.901
46146SOL     OW40270   4.011   5.895   9.812
46146SOL    HW140271   4.029   5.969   9.871
46146SOL    HW240272   4.098   5.864   9.787
46147SOL     OW40273   2.720   3.419   6.408
46147SOL    HW140274   2.737   3.444   6.499
46147SOL    HW240275   2.682   3.497   6.368
46148SOL     OW40276   9.584   7.672  13.799
46148SOL    HW140277   9.516   7.680  13.732
46148SOL    HW240278   9.546   7.714  13.877
46149SOL     OW40279   0.534   0.585   4.486
46149SOL    HW140280   0.568   0.541   4.408
46149SOL    HW240281   0.539   0.520   4.555
46150SOL     OW40282  12.903   3.196   2.144
46150SOL    HW140283  12.848   3.124   2.112
46150SOL    HW240284  12.976   3.153   2.188
46151SOL     OW40285   1.438  10.889   8.484
46151SOL    HW140286   1.514  10.857   8.435
46151SOL    HW240287   1.453  10.983   8.491
46152SOL     OW40288   6.798   8.022  14.544
46152SOL    HW140289   6.834   7.983  14.624
46152SOL    HW240290   6.767   7.946  14.493
46153SOL     OW40291   7.930  14.802   3.093
46153SOL    HW140292   8.005  14.811   3.152
46153SOL    HW240293   7.962  14.750   3.020
46154SOL     OW40294  14.231  13.660  13.541
46154SOL    HW140295  14.292  13.598  13.579
46154SOL    HW240296  14.146  13.636  13.578
46155SOL     OW40297   2.334   3.092   3.151
46155SOL    HW140298   2.270   3.020   3.146
46155SOL    HW240299   2.367   3.100   3.061
46156SOL     OW40300   8.181   0.646   9.805
46156SOL    HW140301   8.129   0.716   9.766
46156SOL    HW240302   8.237   0.615   9.734
46157SOL     OW40303  10.448   4.338   1.681
46157SOL    HW140304  10.395   4.294   1.614
46157SOL    HW240305  10.461   4.272   1.749
46158SOL     OW40306   4.633  10.838  12.639
46158SOL    HW140307   4.596  10.922  12.613
46158SOL    HW240308   4.557  10.785  12.663
46159SOL     OW40309  11.693  13.628   6.108
46159SOL    HW140310  11.638  13.705   6.119
46159SOL    HW240311  11.636  13.555   6.131
46160SOL     OW40312   4.156   0.763   0.123
46160SOL    HW140313   4.185   0.780   0.034
46160SOL    HW240314   4.106   0.682   0.118
46161SOL     OW40315  12.633  14.060  12.266
46161SOL    HW140316  12.562  14.060  12.330
46161SOL    HW240317  12.592  14.088  12.184
46162SOL     OW40318   9.741  11.093   6.796
46162SOL    HW140319   9.781  11.089   6.710
46162SOL    HW240320   9.733  11.187   6.815
46163SOL     OW40321   6.707   1.066  14.397
46163SOL    HW140322   6.654   1.028  14.326
46163SOL    HW240323   6.706   1.160  14.380
46164SOL     OW40324   2.701  10.411   9.765
46164SOL    HW140325   2.617  10.379   9.731
46164SOL    HW240326   2.729  10.344   9.827
46165SOL     OW40327   0.424  14.386   2.844
46165SOL    HW140328   0.453  14.311   2.793
46165SOL    HW240329   0.409  14.455   2.779
46166SOL     OW40330  13.394  11.011   7.210
46166SOL    HW140331  13.457  10.940   7.197
46166SOL    HW240332  13.433  11.065   7.279
46167SOL     OW40333  11.257   0.778   9.281
46167SOL    HW140334  11.169   0.804   9.307
46167SOL    HW240335  11.309   0.785   9.362
46168SOL     OW40336   8.761  12.823  13.366
46168SOL    HW140337   8.836  12.774  13.332
46168SOL    HW240338   8.688  12.762  13.362
46169SOL     OW40339   5.669  13.572  11.451
46169SOL    HW140340   5.749  13.614  11.421
46169SOL    HW240341   5.614  13.566  11.373
46170SOL     OW40342   9.208   0.554   4.245
46170SOL    HW140343   9.283   0.495   4.247
46170SOL    HW240344   9.225   0.618   4.314
46171SOL     OW40345  14.032   9.199   0.909
46171SOL    HW140346  14.112   9.147   0.916
46171SOL    HW240347  13.965   9.137   0.881
46172SOL     OW40348  12.628  14.148   9.354
46172SOL    HW140349  12.589  14.067   9.321
46172SOL    HW240350  12.722  14.136   9.344
46173SOL     OW40351   6.124   7.994  13.526
46173SOL    HW140352   6.116   8.008  13.620
46173SOL    HW240353   6.203   8.041  13.501
46174SOL     OW40354   7.082   6.101   9.959
46174SOL    HW140355   7.080   6.005   9.955
46174SOL    HW240356   7.164   6.125   9.917
46175SOL     OW40357   9.301   2.973  12.726
46175SOL    HW140358   9.376   2.970  12.667
46175SOL    HW240359   9.306   3.060  12.766
46176SOL     OW40360   2.594   2.420   0.685
46176SOL    HW140361   2.678   2.440   0.644
46176SOL    HW240362   2.529   2.462   0.628
46177SOL     OW40363  13.900   4.728  10.855
46177SOL    HW140364  13.975   4.722  10.796
46177SOL    HW240365  13.894   4.821  10.877
46178SOL     OW40366   0.672   9.447  13.238
46178SOL    HW140367   0.600   9.425  13.298
46178SOL    HW240368   0.699   9.363  13.202
46179SOL     OW40369   2.297   7.305  10.133
46179SOL    HW140370   2.273   7.323  10.043
46179SOL    HW240371   2.239   7.234  10.160
46180SOL     OW40372   7.764   8.378   2.123
46180SOL    HW140373   7.762   8.287   2.154
46180SOL    HW240374   7.714   8.377   2.042
46181SOL     OW40375   2.899   5.209   1.394
46181SOL    HW140376   2.967   5.262   1.354
46181SOL    HW240377   2.931   5.119   1.389
46182SOL     OW40378  10.724   0.970  13.863
46182SOL    HW140379  10.646   0.942  13.911
46182SOL    HW240380  10.738   0.901  13.798
46183SOL     OW40381   2.994   2.635   5.065
46183SOL    HW140382   2.953   2.589   4.992
46183SOL    HW240383   2.923   2.648   5.128
46184SOL     OW40384  10.034   1.107   1.861
46184SOL    HW140385  10.107   1.045   1.859
46184SOL    HW240386  10.075   1.193   1.858
46185SOL     OW40387   8.164   8.682   3.435
46185SOL    HW140388   8.172   8.654   3.526
46185SOL    HW240389   8.135   8.773   3.440
46186SOL     OW40390   4.221   6.196   1.345
46186SOL    HW140391   4.256   6.107   1.334
46186SOL    HW240392   4.254   6.244   1.269
46187SOL     OW40393   9.450   9.379   9.209
46187SOL    HW140394   9.445   9.422   9.294
46187SOL    HW240395   9.493   9.295   9.227
46188SOL     OW40396   5.479   9.236  11.828
46188SOL    HW140397   5.459   9.143  11.823
46188SOL    HW240398   5.395   9.278  11.846
46189SOL     OW40399  13.872   1.959   8.776
46189SOL    HW140400  13.832   1.914   8.851
46189SOL    HW240401  13.937   2.017   8.815
46190SOL     OW40402   4.044   3.661   8.921
46190SOL    HW140403   3.959   3.633   8.886
46190SOL    HW240404   4.082   3.716   8.853
46191SOL     OW40405   8.504  10.822   3.169
46191SOL    HW140406   8.549  10.757   3.115
46191SOL    HW240407   8.417  10.785   3.183
46192SOL     OW40408  13.480   3.901  12.696
46192SOL    HW140409  13.524   3.840  12.755
46192SOL    HW240410  13.429   3.846  12.638
46193SOL     OW40411  10.243   4.929   2.991
46193SOL    HW140412  10.149   4.941   2.976
46193SOL    HW240413  10.251   4.841   3.028
46194SOL     OW40414   8.285   4.125   4.124
46194SOL    HW140415   8.356   4.175   4.165
46194SOL    HW240416   8.322   4.038   4.112
46195SOL     OW40417   4.732  11.515   5.625
46195SOL    HW140418   4.779  11.439   5.590
46195SOL    HW240419   4.718  11.494   5.718
46196SOL     OW40420   7.870   1.626   9.020
46196SOL    HW140421   7.956   1.629   8.977
46196SOL    HW240422   7.862   1.536   9.051
46197SOL     OW40423  13.442   0.087   4.704
46197SOL    HW140424  13.384   0.073   4.629
46197SOL    HW240425  13.382   0.102   4.777
46198SOL     OW40426   3.971   9.097   7.284
46198SOL    HW140427   4.011   9.081   7.370
46198SOL    HW240428   3.983   9.015   7.237
46199SOL     OW40429  12.497  13.629   1.165
46199SOL    HW140430  12.591  13.610   1.166
46199SOL    HW240431  12.481  13.668   1.079
46200SOL     OW40432  12.633  14.497  14.708
46200SOL    HW140433  12.621  14.552  14.630
46200SOL    HW240434  12.652  14.560  14.778
46201SOL     OW40435  11.017   0.816  14.009
46201SOL    HW140436  11.006   0.911  14.005
46201SOL    HW240437  11.065   0.793  13.930
46202SOL     OW40438  10.729  10.143  13.163
46202SOL    HW140439  10.706  10.236  13.161
46202SOL    HW240440  10.645  10.098  13.178
46203SOL     OW40441  14.470  10.719  10.534
46203SOL    HW140442  14.537  10.787  10.526
46203SOL    HW240443  14.518  10.637  10.528
46204SOL     OW40444  11.378   6.687  12.400
46204SOL    HW140445  11.419   6.640  12.473
46204SOL    HW240446  11.289   6.706  12.431
46205SOL     OW40447   3.146   7.820   7.152
46205SOL    HW140448   3.065   7.829   7.203
46205SOL    HW240449   3.202   7.765   7.206
46206SOL     OW40450   6.081   8.537   7.284
46206SOL    HW140451   6.068   8.603   7.216
46206SOL    HW240452   6.156   8.486   7.255
46207SOL     OW40453  13.532   7.928   0.634
46207SOL    HW140454  13.539   8.013   0.679
46207SOL    HW240455  13.619   7.914   0.596
46208SOL     OW40456  13.093   4.424   2.981
46208SOL    HW140457  13.152   4.443   3.054
46208SOL    HW240458  13.115   4.334   2.957
46209SOL     OW40459   7.603   6.761   0.646
46209SOL    HW140460   7.655   6.720   0.715
46209SOL    HW240461   7.658   6.832   0.614
46210SOL     OW40462   4.671   0.239  11.525
46210SOL    HW140463   4.702   0.281  11.444
46210SOL    HW240464   4.745   0.247  11.585
46211SOL     OW40465  14.140   2.745  12.988
46211SOL    HW140466  14.059   2.719  12.945
46211SOL    HW240467  14.199   2.670  12.976
46212SOL     OW40468   2.165   0.003   5.231
46212SOL    HW140469   2.216  14.845   5.160
46212SOL    HW240470   2.158   0.096   5.211
46213SOL     OW40471  13.179  12.162   0.344
46213SOL    HW140472  13.109  12.209   0.298
46213SOL    HW240473  13.166  12.071   0.320
46214SOL     OW40474   7.247  14.555   0.147
46214SOL    HW140475   7.203  14.482   0.104
46214SOL    HW240476   7.237  14.537   0.240
46215SOL     OW40477   8.801  13.232   1.382
46215SOL    HW140478   8.727  13.227   1.322
46215SOL    HW240479   8.770  13.187   1.461
46216SOL     OW40480   2.559  11.501   2.173
46216SOL    HW140481   2.483  11.453   2.205
46216SOL    HW240482   2.564  11.579   2.228
46217SOL     OW40483   8.775  12.489   2.563
46217SOL    HW140484   8.773  12.551   2.491
46217SOL    HW240485   8.863  12.451   2.560
46218SOL     OW40486   3.027   6.033  13.423
46218SOL    HW140487   3.091   5.963  13.432
46218SOL    HW240488   2.945   5.995  13.453
46219SOL     OW40489  11.604   8.368  13.685
46219SOL    HW140490  11.527   8.422  13.701
46219SOL    HW240491  11.636   8.398  13.600
46220SOL     OW40492   7.340   2.944   5.151
46220SOL    HW140493   7.328   2.996   5.072
46220SOL    HW240494   7.410   2.988   5.200
46221SOL     OW40495   0.892   1.284   2.314
46221SOL    HW140496   0.940   1.322   2.387
46221SOL    HW240497   0.800   1.287   2.341
46222SOL     OW40498   1.127  12.417   3.720
46222SOL    HW140499   1.106  12.506   3.692
46222SOL    HW240500   1.181  12.382   3.649
46223SOL     OW40501   5.453   1.489   1.947
46223SOL    HW140502   5.466   1.464   1.856
46223SOL    HW240503   5.534   1.532   1.972
46224SOL     OW40504  14.531   2.177   5.238
46224SOL    HW140505  14.512   2.148   5.148
46224SOL    HW240506  14.591   2.111   5.272
46225SOL     OW40507   9.884   2.178   7.444
46225SOL    HW140508   9.962   2.122   7.449
46225SOL    HW240509   9.917   2.263   7.416
46226SOL     OW40510  11.362  13.839   0.806
46226SOL    HW140511  11.441  13.887   0.782
46226SOL    HW240512  11.382  13.748   0.788
46227SOL     OW40513   3.978   1.061   1.009
46227SOL    HW140514   3.914   1.062   1.081
46227SOL    HW240515   4.038   0.990   1.032
46228SOL     OW40516  11.881  13.369   3.091
46228SOL    HW140517  11.854  13.347   3.180
46228SOL    HW240518  11.976  13.377   3.096
46229SOL     OW40519  11.115   2.280   8.553
46229SOL    HW140520  11.172   2.350   8.522
46229SOL    HW240521  11.086   2.235   8.473
46230SOL     OW40522  13.699   4.268   0.372
46230SOL    HW140523  13.668   4.250   0.461
46230SOL    HW240524  13.644   4.340   0.341
46231SOL     OW40525   6.721   1.848  12.017
46231SOL    HW140526   6.663   1.890  11.953
46231SOL    HW240527   6.808   1.853  11.978
46232SOL     OW40528  14.416  10.901   0.816
46232SOL    HW140529  14.384  10.941   0.897
46232SOL    HW240530  14.466  10.825   0.846
46233SOL     OW40531  13.543  13.469   7.634
46233SOL    HW140532  13.545  13.563   7.620
46233SOL    HW240533  13.474  13.455   7.698
46234SOL     OW40534   8.498   2.111   5.842
46234SOL    HW140535   8.444   2.033   5.853
46234SOL    HW240536   8.460   2.157   5.767
46235SOL     OW40537  14.749   6.259  11.451
46235SOL    HW140538  14.733   6.165  11.442
46235SOL    HW240539  14.665   6.300  11.434
46236SOL     OW40540  10.274   6.146   0.681
46236SOL    HW140541  10.183   6.153   0.709
46236SOL    HW240542  10.322   6.121   0.760
46237SOL     OW40543   7.306  13.746  10.621
46237SOL    HW140544   7.319  13.765  10.714
46237SOL    HW240545   7.393  13.729  10.587
46238SOL     OW40546   7.200  12.476   9.322
46238SOL    HW140547   7.108  12.490   9.301
46238SOL    HW240548   7.207  12.382   9.339
46239SOL     OW40549   4.827  14.673  12.175
46239SOL    HW140550   4.753  14.621  12.145
46239SOL    HW240551   4.836  14.652  12.268
46240SOL     OW40552  13.153  14.043   3.565
46240SOL    HW140553  13.229  14.022   3.618
46240SOL    HW240554  13.144  14.138   3.571
46241SOL     OW40555   6.608   8.139  13.058
46241SOL    HW140556   6.641   8.184  13.135
46241SOL    HW240557   6.686   8.101  13.017
46242SOL     OW40558   9.247   0.928  13.408
46242SOL    HW140559   9.285   0.875  13.338
46242SOL    HW240560   9.319   0.986  13.436
46243SOL     OW40561   4.740   9.591  12.730
46243SOL    HW140562   4.674   9.660  12.729
46243SOL    HW240563   4.690   9.509  12.723
46244SOL     OW40564   6.337   2.026   7.268
46244SOL    HW140565   6.356   1.965   7.196
46244SOL    HW240566   6.259   1.990   7.309
46245SOL     OW40567   0.825  10.170  12.535
46245SOL    HW140568   0.852  10.261  12.540
46245SOL    HW240569   0.841  10.145  12.444
46246SOL     OW40570   3.127   4.980   5.273
46246SOL    HW140571   3.119   4.959   5.366
46246SOL    HW240572   3.060   4.926   5.230
46247SOL     OW40573   2.335  11.224  10.071
46247SOL    HW140574   2.279  11.240  10.147
46247SOL    HW240575   2.284  11.164  10.016
46248SOL     OW40576   9.385   5.321   7.821
46248SOL    HW140577   9.320   5.279   7.765
46248SOL    HW240578   9.388   5.266   7.899
46249SOL     OW40579  10.909   5.264   5.944
46249SOL    HW140580  10.999   5.251   5.976
46249SOL    HW240581  10.915   5.252   5.849
46250SOL     OW40582  11.955  10.957   3.389
46250SOL    HW140583  12.015  11.031   3.397
46250SOL    HW240584  11.883  10.978   3.449
46251SOL     OW40585   4.391   9.123   9.212
46251SOL    HW140586   4.324   9.170   9.262
46251SOL    HW240587   4.351   9.039   9.190
46252SOL     OW40588   9.762   9.845   7.004
46252SOL    HW140589   9.733   9.803   6.924
46252SOL    HW240590   9.853   9.869   6.987
46253SOL     OW40591   5.388   5.309   4.932
46253SOL    HW140592   5.400   5.275   4.843
46253SOL    HW240593   5.337   5.241   4.976
46254SOL     OW40594   3.778   3.177   0.139
46254SOL    HW140595   3.802   3.244   0.076
46254SOL    HW240596   3.689   3.198   0.165
46255SOL     OW40597   5.926   9.263  11.893
46255SOL    HW140598   6.002   9.257  11.950
46255SOL    HW240599   5.959   9.238  11.806
46256SOL     OW40600  14.858  13.805   4.558
46256SOL    HW140601  14.769  13.802   4.592
46256SOL    HW240602  14.866  13.892   4.518
46257SOL     OW40603  13.772   1.264   9.059
46257SOL    HW140604  13.769   1.179   9.102
46257SOL    HW240605  13.686   1.275   9.021
46258SOL     OW40606  14.163   0.402   7.414
46258SOL    HW140607  14.254   0.431   7.418
46258SOL    HW240608  14.168   0.306   7.416
46259SOL     OW40609  14.613  11.362   4.815
46259SOL    HW140610  14.704  11.350   4.844
46259SOL    HW240611  14.619  11.369   4.720
46260SOL     OW40612   2.244  11.740  13.822
46260SOL    HW140613   2.312  11.743  13.755
46260SOL    HW240614   2.280  11.682  13.890
46261SOL     OW40615   2.632  12.839   7.214
46261SOL    HW140616   2.606  12.912   7.271
46261SOL    HW240617   2.711  12.870   7.170
46262SOL     OW40618   7.039   9.365   1.568
46262SOL    HW140619   7.131   9.367   1.595
46262SOL    HW240620   7.040   9.395   1.478
46263SOL     OW40621   0.623  12.695  14.857
46263SOL    HW140622   0.630  12.786  14.829
46263SOL    HW240623   0.593  12.700   0.069
46264SOL     OW40624   2.491  14.850   8.956
46264SOL    HW140625   2.482  14.843   9.051
46264SOL    HW240626   2.542  14.774   8.930
46265SOL     OW40627   3.901   0.790   9.185
46265SOL    HW140628   3.894   0.790   9.281
46265SOL    HW240629   3.820   0.748   9.156
46266SOL     OW40630   6.894   7.792   0.378
46266SOL    HW140631   6.812   7.755   0.347
46266SOL    HW240632   6.892   7.883   0.347
46267SOL     OW40633   7.766   5.182   1.119
46267SOL    HW140634   7.855   5.218   1.114
46267SOL    HW240635   7.722   5.237   1.183
46268SOL     OW40636   3.343   6.657   5.644
46268SOL    HW140637   3.261   6.673   5.597
46268SOL    HW240638   3.411   6.696   5.589
46269SOL     OW40639   4.029  12.046  14.084
46269SOL    HW140640   4.068  12.133  14.075
46269SOL    HW240641   3.936  12.059  14.067
46270SOL     OW40642   7.389   1.169   7.129
46270SOL    HW140643   7.449   1.136   7.196
46270SOL    HW240644   7.323   1.100   7.120
46271SOL     OW40645  10.594   4.936   0.408
46271SOL    HW140646  10.629   5.001   0.470
46271SOL    HW240647  10.583   4.857   0.461
46272SOL     OW40648   9.368  11.312  14.545
46272SOL    HW140649   9.452  11.346  14.516
46272SOL    HW240650   9.311  11.389  14.552
46273SOL     OW40651   4.395   6.777   0.694
46273SOL    HW140652   4.380   6.690   0.730
46273SOL    HW240653   4.480   6.804   0.730
46274SOL     OW40654  14.193   2.643   6.213
46274SOL    HW140655  14.126   2.599   6.265
46274SOL    HW240656  14.146   2.713   6.167
46275SOL     OW40657   5.367  11.338  10.005
46275SOL    HW140658   5.328  11.376   9.927
46275SOL    HW240659   5.348  11.244   9.998
46276SOL     OW40660   0.566   2.059   3.487
46276SOL    HW140661   0.554   2.057   3.582
46276SOL    HW240662   0.567   2.152   3.465
46277SOL     OW40663   1.905  14.409   7.749
46277SOL    HW140664   1.972  14.444   7.807
46277SOL    HW240665   1.829  14.466   7.761
46278SOL     OW40666   8.228   0.053  11.094
46278SOL    HW140667   8.158   0.068  11.159
46278SOL    HW240668   8.194   0.092  11.014
46279SOL     OW40669   3.357   6.468   3.309
46279SOL    HW140670   3.326   6.456   3.219
46279SOL    HW240671   3.453   6.476   3.300
46280SOL     OW40672  14.421  11.888   5.349
46280SOL    HW140673  14.418  11.906   5.443
46280SOL    HW240674  14.411  11.793   5.342
46281SOL     OW40675   4.606   3.436   2.818
46281SOL    HW140676   4.609   3.349   2.858
46281SOL    HW240677   4.557   3.489   2.881
46282SOL     OW40678   6.780  11.052  14.013
46282SOL    HW140679   6.826  11.045  13.930
46282SOL    HW240680   6.701  10.999  14.003
46283SOL     OW40681  11.445   5.272  14.646
46283SOL    HW140682  11.485   5.205  14.592
46283SOL    HW240683  11.364   5.294  14.601
46284SOL     OW40684   9.503   4.777   8.058
46284SOL    HW140685   9.436   4.803   8.121
46284SOL    HW240686   9.560   4.717   8.107
46285SOL     OW40687   4.072   8.789  11.334
46285SOL    HW140688   4.140   8.768  11.399
46285SOL    HW240689   4.004   8.724  11.349
46286SOL     OW40690   2.265  12.103  10.650
46286SOL    HW140691   2.303  12.051  10.579
46286SOL    HW240692   2.179  12.129  10.616
46287SOL     OW40693   5.056   3.823   0.292
46287SOL    HW140694   5.117   3.879   0.244
46287SOL    HW240695   5.038   3.871   0.372
46288SOL     OW40696   0.460  13.220   5.014
46288SOL    HW140697   0.402  13.283   5.056
46288SOL    HW240698   0.533  13.273   4.980
46289SOL     OW40699  11.520  12.986  11.788
46289SOL    HW140700  11.550  12.968  11.699
46289SOL    HW240701  11.498  13.079  11.788
46290SOL     OW40702   1.656  12.684   4.949
46290SOL    HW140703   1.744  12.722   4.950
46290SOL    HW240704   1.669  12.590   4.959
46291SOL     OW40705   1.091   7.684   1.745
46291SOL    HW140706   1.070   7.592   1.760
46291SOL    HW240707   1.121   7.688   1.655
46292SOL     OW40708  12.863  12.079   9.364
46292SOL    HW140709  12.945  12.078   9.314
46292SOL    HW240710  12.832  11.989   9.362
46293SOL     OW40711  14.034   5.648   8.023
46293SOL    HW140712  13.993   5.635   8.108
46293SOL    HW240713  13.963   5.677   7.966
46294SOL     OW40714   6.701   6.184   0.624
46294SOL    HW140715   6.700   6.179   0.719
46294SOL    HW240716   6.701   6.093   0.594
46295SOL     OW40717   4.180   9.603   7.730
46295SOL    HW140718   4.118   9.629   7.798
46295SOL    HW240719   4.137   9.627   7.648
46296SOL     OW40720   5.937   4.677   2.516
46296SOL    HW140721   5.871   4.680   2.448
46296SOL    HW240722   6.006   4.621   2.480
46297SOL     OW40723  11.903   7.271   7.076
46297SOL    HW140724  11.832   7.207   7.083
46297SOL    HW240725  11.859   7.356   7.073
46298SOL     OW40726   0.235   2.817   8.962
46298SOL    HW140727   0.269   2.768   9.037
46298SOL    HW240728   0.191   2.893   9.001
46299SOL     OW40729   0.689   5.762   5.937
46299SOL    HW140730   0.764   5.788   5.990
46299SOL    HW240731   0.728   5.713   5.864
46300SOL     OW40732   5.742   2.603   9.065
46300SOL    HW140733   5.690   2.597   8.986
46300SOL    HW240734   5.774   2.513   9.079
46301SOL     OW40735   0.272   9.819   7.561
46301SOL    HW140736   0.222   9.836   7.481
46301SOL    HW240737   0.235   9.879   7.626
46302SOL     OW40738  13.134   3.177  12.467
46302SOL    HW140739  13.100   3.265  12.485
46302SOL    HW240740  13.147   3.175  12.373
46303SOL     OW40741   2.638   2.360   8.180
46303SOL    HW140742   2.626   2.401   8.094
46303SOL    HW240743   2.598   2.274   8.172
46304SOL     OW40744  12.068   6.387  14.321
46304SOL    HW140745  11.989   6.386  14.266
46304SOL    HW240746  12.139   6.370  14.259
46305SOL     OW40747   9.184   9.561   3.886
46305SOL    HW140748   9.140   9.516   3.959
46305SOL    HW240749   9.113   9.587   3.828
46306SOL     OW40750   0.853   4.769  12.739
46306SOL    HW140751   0.788   4.732  12.799
46306SOL    HW240752   0.855   4.862  12.760
46307SOL     OW40753  14.779   0.632   0.429
46307SOL    HW140754  14.746   0.593   0.348
46307SOL    HW240755  14.704   0.679   0.465
46308SOL     OW40756  10.241   7.482  12.132
46308SOL    HW140757  10.181   7.515  12.200
46308SOL    HW240758  10.315   7.543  12.135
46309SOL     OW40759   6.367  12.985   3.500
46309SOL    HW140760   6.301  12.918   3.515
46309SOL    HW240761   6.420  12.985   3.580
46310SOL     OW40762   0.567   7.711   1.707
46310SOL    HW140763   0.647   7.660   1.695
46310SOL    HW240764   0.587   7.796   1.667
46311SOL     OW40765  14.417  11.444   1.669
46311SOL    HW140766  14.454  11.498   1.599
46311SOL    HW240767  14.331  11.417   1.636
46312SOL     OW40768  14.770  13.728   2.609
46312SOL    HW140769  14.799  13.637   2.606
46312SOL    HW240770  14.838  13.777   2.564
46313SOL     OW40771   3.120  14.669   6.136
46313SOL    HW140772   3.045  14.728   6.148
46313SOL    HW240773   3.089  14.602   6.076
46314SOL     OW40774   2.637   9.412   8.886
46314SOL    HW140775   2.711   9.392   8.942
46314SOL    HW240776   2.622   9.505   8.897
46315SOL     OW40777   5.711   3.337   3.590
46315SOL    HW140778   5.729   3.250   3.625
46315SOL    HW240779   5.651   3.322   3.517
46316SOL     OW40780   6.135  11.456   6.174
46316SOL    HW140781   6.047  11.418   6.179
46316SOL    HW240782   6.158  11.451   6.081
46317SOL     OW40783   5.249   2.490   1.467
46317SOL    HW140784   5.211   2.462   1.550
46317SOL    HW240785   5.228   2.583   1.461
46318SOL     OW40786   6.215   5.219  13.476
46318SOL    HW140787   6.260   5.146  13.519
46318SOL    HW240788   6.136   5.232  13.527
46319SOL     OW40789   2.303   3.766   2.401
46319SOL    HW140790   2.364   3.702   2.439
46319SOL    HW240791   2.242   3.785   2.472
46320SOL     OW40792   6.075   8.335  13.464
46320SOL    HW140793   6.117   8.270  13.408
46320SOL    HW240794   6.053   8.288  13.544
46321SOL     OW40795   1.349  12.980  13.292
46321SOL    HW140796   1.331  12.962  13.384
46321SOL    HW240797   1.408  12.910  13.264
46322SOL     OW40798  11.325   2.217   6.063
46322SOL    HW140799  11.395   2.158   6.090
46322SOL    HW240800  11.362   2.266   5.989
46323SOL     OW40801   2.657   6.825   4.541
46323SOL    HW140802   2.691   6.751   4.489
46323SOL    HW240803   2.603   6.784   4.609
46324SOL     OW40804   9.334  10.605   9.153
46324SOL    HW140805   9.275  10.578   9.223
46324SOL    HW240806   9.364  10.524   9.113
46325SOL     OW40807  14.357   6.846   9.926
46325SOL    HW140808  14.382   6.768   9.877
46325SOL    HW240809  14.398   6.835  10.012
46326SOL     OW40810  12.869  12.398   6.115
46326SOL    HW140811  12.901  12.345   6.187
46326SOL    HW240812  12.949  12.429   6.071
46327SOL     OW40813  11.611  11.335   4.345
46327SOL    HW140814  11.650  11.363   4.262
46327SOL    HW240815  11.673  11.271   4.380
46328SOL     OW40816   6.764  13.002   2.168
46328SOL    HW140817   6.762  12.908   2.185
46328SOL    HW240818   6.854  13.028   2.188
46329SOL     OW40819  11.535   7.099   2.120
46329SOL    HW140820  11.526   7.014   2.076
46329SOL    HW240821  11.591   7.150   2.062
46330SOL     OW40822   0.622  11.087   0.379
46330SOL    HW140823   0.700  11.059   0.332
46330SOL    HW240824   0.656  11.140   0.452
46331SOL     OW40825  11.053   0.605   2.766
46331SOL    HW140826  11.101   0.601   2.849
46331SOL    HW240827  11.111   0.652   2.707
46332SOL     OW40828   8.167   8.101   9.510
46332SOL    HW140829   8.140   8.192   9.519
46332SOL    HW240830   8.132   8.074   9.425
46333SOL     OW40831  14.123  14.596   9.103
46333SOL    HW140832  14.126  14.624   9.012
46333SOL    HW240833  14.119  14.500   9.098
46334SOL     OW40834   4.147  12.905   9.749
46334SOL    HW140835   4.064  12.945   9.775
46334SOL    HW240836   4.174  12.953   9.671
46335SOL     OW40837   0.690   3.810  13.551
46335SOL    HW140838   0.778   3.817  13.513
46335SOL    HW240839   0.690   3.875  13.621
46336SOL     OW40840   1.504  14.810  10.514
46336SOL    HW140841   1.589  14.767  10.529
46336SOL    HW240842   1.518   0.021  10.543
46337SOL     OW40843  14.384   4.087   8.007
46337SOL    HW140844  14.372   4.006   8.057
46337SOL    HW240845  14.307   4.092   7.950
46338SOL     OW40846  13.937   5.699   2.157
46338SOL    HW140847  13.903   5.738   2.238
46338SOL    HW240848  13.900   5.610   2.156
46339SOL     OW40849  14.152   5.707  10.071
46339SOL    HW140850  14.061   5.736  10.077
46339SOL    HW240851  14.170   5.668  10.157
46340SOL     OW40852  12.353   8.925  14.578
46340SOL    HW140853  12.309   8.897  14.658
46340SOL    HW240854  12.422   8.984  14.608
46341SOL     OW40855  11.589   8.447  12.168
46341SOL    HW140856  11.626   8.529  12.134
46341SOL    HW240857  11.523   8.422  12.102
46342SOL     OW40858   1.219   9.849   2.704
46342SOL    HW140859   1.271   9.783   2.657
46342SOL    HW240860   1.233   9.929   2.654
46343SOL     OW40861   3.902   3.824   0.327
46343SOL    HW140862   3.899   3.763   0.401
46343SOL    HW240863   3.914   3.768   0.251
46344SOL     OW40864   2.985   4.923  12.701
46344SOL    HW140865   3.059   4.979  12.679
46344SOL    HW240866   2.910   4.982  12.706
46345SOL     OW40867  10.535  11.144  12.732
46345SOL    HW140868  10.569  11.066  12.688
46345SOL    HW240869  10.478  11.110  12.801
46346SOL     OW40870   8.477  12.517   9.966
46346SOL    HW140871   8.452  12.478  10.050
46346SOL    HW240872   8.401  12.571   9.942
46347SOL     OW40873   3.512  14.103   3.951
46347SOL    HW140874   3.452  14.170   3.919
46347SOL    HW240875   3.473  14.073   4.033
46348SOL     OW40876  10.177   4.576  12.993
46348SOL    HW140877  10.256   4.630  12.982
46348SOL    HW240878  10.111   4.637  13.025
46349SOL     OW40879  11.074   1.250  14.443
46349SOL    HW140880  11.028   1.167  14.455
46349SOL    HW240881  11.109   1.245  14.354
46350SOL     OW40882   6.238  11.643   1.946
46350SOL    HW140883   6.297  11.717   1.937
46350SOL    HW240884   6.169  11.673   2.005
46351SOL     OW40885   0.152  14.852   0.987
46351SOL    HW140886   0.159  14.784   1.053
46351SOL    HW240887   0.058  14.855   0.966
46352SOL     OW40888  10.597  11.502  10.613
46352SOL    HW140889  10.556  11.417  10.623
46352SOL    HW240890  10.556  11.557  10.680
46353SOL     OW40891  14.136   0.881   1.494
46353SOL    HW140892  14.086   0.938   1.552
46353SOL    HW240893  14.108   0.793   1.518
46354SOL     OW40894   3.158  13.025   0.481
46354SOL    HW140895   3.080  13.023   0.426
46354SOL    HW240896   3.191  13.115   0.473
46355SOL     OW40897   5.372  11.716   9.471
46355SOL    HW140898   5.465  11.697   9.481
46355SOL    HW240899   5.357  11.794   9.525
46356SOL     OW40900  14.624  10.577   5.405
46356SOL    HW140901  14.664  10.490   5.395
46356SOL    HW240902  14.681  10.621   5.468
46357SOL     OW40903  13.939   8.607   3.797
46357SOL    HW140904  14.021   8.618   3.845
46357SOL    HW240905  13.931   8.513   3.784
46358SOL     OW40906   3.970   7.353  11.143
46358SOL    HW140907   3.902   7.352  11.210
46358SOL    HW240908   4.010   7.266  11.147
46359SOL     OW40909  10.382  13.566   9.766
46359SOL    HW140910  10.350  13.543   9.853
46359SOL    HW240911  10.400  13.660   9.770
46360SOL     OW40912  13.146   3.594  13.189
46360SOL    HW140913  13.182   3.508  13.210
46360SOL    HW240914  13.067   3.576  13.139
46361SOL     OW40915   6.998   5.657   8.728
46361SOL    HW140916   6.924   5.659   8.668
46361SOL    HW240917   7.048   5.736   8.707
46362SOL     OW40918   2.104   5.548  11.131
46362SOL    HW140919   2.072   5.471  11.177
46362SOL    HW240920   2.097   5.525  11.038
46363SOL     OW40921  12.228   6.615  11.654
46363SOL    HW140922  12.307   6.565  11.674
46363SOL    HW240923  12.245   6.703  11.688
46364SOL     OW40924   1.061   4.175   6.142
46364SOL    HW140925   0.977   4.206   6.107
46364SOL    HW240926   1.117   4.253   6.142
46365SOL     OW40927   6.724   2.943  13.107
46365SOL    HW140928   6.693   2.859  13.140
46365SOL    HW240929   6.649   3.002  13.116
46366SOL     OW40930   4.212  10.181  10.302
46366SOL    HW140931   4.145  10.249  10.303
46366SOL    HW240932   4.164  10.099  10.295
46367SOL     OW40933   0.227   8.853   0.175
46367SOL    HW140934   0.264   8.765   0.177
46367SOL    HW240935   0.237   8.881   0.084
46368SOL     OW40936   4.746   3.388   1.345
46368SOL    HW140937   4.714   3.450   1.280
46368SOL    HW240938   4.721   3.302   1.312
46369SOL     OW40939   8.126   7.722  12.777
46369SOL    HW140940   8.105   7.779  12.850
46369SOL    HW240941   8.089   7.637  12.802
46370SOL     OW40942   6.634  12.475   5.179
46370SOL    HW140943   6.545  12.504   5.199
46370SOL    HW240944   6.651  12.405   5.241
46371SOL     OW40945   9.287  13.124   5.814
46371SOL    HW140946   9.314  13.142   5.904
46371SOL    HW240947   9.221  13.055   5.822
46372SOL     OW40948  12.337   0.578   5.000
46372SOL    HW140949  12.416   0.589   5.053
46372SOL    HW240950  12.327   0.483   4.991
46373SOL     OW40951  11.109  11.721   9.380
46373SOL    HW140952  11.147  11.798   9.422
46373SOL    HW240953  11.155  11.714   9.297
46374SOL     OW40954   8.700   6.517   8.385
46374SOL    HW140955   8.656   6.598   8.412
46374SOL    HW240956   8.744   6.540   8.303
46375SOL     OW40957   0.816  10.429   2.333
46375SOL    HW140958   0.740  10.391   2.378
46375SOL    HW240959   0.786  10.439   2.242
46376SOL     OW40960   2.630   6.581  14.215
46376SOL    HW140961   2.570   6.633  14.268
46376SOL    HW240962   2.604   6.490  14.231
46377SOL     OW40963  11.302  10.306   4.558
46377SOL    HW140964  11.240  10.370   4.524
46377SOL    HW240965  11.267  10.283   4.644
46378SOL     OW40966   8.837   7.976   4.203
46378SOL    HW140967   8.808   7.905   4.260
46378SOL    HW240968   8.922   7.948   4.170
46379SOL     OW40969  12.407  12.601   9.737
46379SOL    HW140970  12.342  12.626   9.671
46379SOL    HW240971  12.368  12.526   9.781
46380SOL     OW40972  11.665  13.891  10.138
46380SOL    HW140973  11.667  13.986  10.129
46380SOL    HW240974  11.573  13.867  10.121
46381SOL     OW40975   6.857  13.810   0.109
46381SOL    HW140976   6.799  13.764   0.048
46381SOL    HW240977   6.805  13.819   0.189
46382SOL     OW40978   6.416   7.497   6.075
46382SOL    HW140979   6.429   7.446   5.995
46382SOL    HW240980   6.484   7.465   6.135
46383SOL     OW40981   7.398   4.156  12.457
46383SOL    HW140982   7.477   4.197  12.423
46383SOL    HW240983   7.339   4.229  12.475
46384SOL     OW40984   1.234  14.045   5.135
46384SOL    HW140985   1.259  13.998   5.215
46384SOL    HW240986   1.275  13.995   5.064
46385SOL     OW40987   2.605  14.261  12.263
46385SOL    HW140988   2.621  14.288  12.173
46385SOL    HW240989   2.619  14.340  12.315
46386SOL     OW40990  10.246   3.024  14.875
46386SOL    HW140991  10.218   3.076  14.799
46386SOL    HW240992  10.265   2.937  14.839
46387SOL     OW40993   8.956  12.487   7.845
46387SOL    HW140994   8.885  12.453   7.899
46387SOL    HW240995   8.990  12.410   7.799
46388SOL     OW40996   8.893   1.952  11.443
46388SOL    HW140997   8.875   1.939  11.350
46388SOL    HW240998   8.918   2.044  11.450
46389SOL     OW40999   0.615   6.780  13.835
46389SOL    HW141000   0.628   6.862  13.789
46389SOL    HW241001   0.681   6.721  13.798
46390SOL     OW41002  13.992   2.999   1.638
46390SOL    HW141003  13.933   3.028   1.707
46390SOL    HW241004  14.004   2.905   1.654
46391SOL     OW41005   8.372  11.506   4.905
46391SOL    HW141006   8.455  11.459   4.891
46391SOL    HW241007   8.305  11.441   4.886
46392SOL     OW41008   1.383  11.066  13.237
46392SOL    HW141009   1.337  11.146  13.211
46392SOL    HW241010   1.397  11.076  13.331
46393SOL     OW41011   4.985   0.654   0.894
46393SOL    HW141012   4.999   0.562   0.871
46393SOL    HW241013   5.060   0.700   0.858
46394SOL     OW41014  12.969   5.469   4.658
46394SOL    HW141015  12.901   5.526   4.622
46394SOL    HW241016  13.007   5.426   4.582
46395SOL     OW41017   9.815   8.216   6.556
46395SOL    HW141018   9.820   8.124   6.579
46395SOL    HW241019   9.739   8.222   6.498
46396SOL     OW41020   8.950  14.337  13.493
46396SOL    HW141021   8.992  14.341  13.407
46396SOL    HW241022   8.968  14.248  13.524
46397SOL     OW41023   7.974   9.000  10.760
46397SOL    HW141024   7.883   8.976  10.777
46397SOL    HW241025   7.986   9.084  10.804
46398SOL     OW41026   1.567   6.204  13.046
46398SOL    HW141027   1.582   6.289  13.006
46398SOL    HW241028   1.593   6.141  12.979
46399SOL     OW41029  13.149   0.909   2.236
46399SOL    HW141030  13.214   0.858   2.189
46399SOL    HW241031  13.174   0.903   2.328
46400SOL     OW41032   3.026  12.489   2.874
46400SOL    HW141033   2.999  12.580   2.891
46400SOL    HW241034   2.945  12.444   2.850
46401SOL     OW41035   1.333   4.421  13.277
46401SOL    HW141036   1.270   4.355  13.250
46401SOL    HW241037   1.343   4.479  13.201
46402SOL     OW41038   0.146  13.579  10.612
46402SOL    HW141039   0.092  13.581  10.692
46402SOL    HW241040   0.236  13.574  10.645
46403SOL     OW41041  11.600  14.667   3.093
46403SOL    HW141042  11.660  14.675   3.018
46403SOL    HW241043  11.531  14.730   3.075
46404SOL     OW41044   8.379   4.387   3.605
46404SOL    HW141045   8.317   4.380   3.678
46404SOL    HW241046   8.325   4.407   3.529
46405SOL     OW41047   5.312   9.446   7.052
46405SOL    HW141048   5.263   9.480   6.977
46405SOL    HW241049   5.258   9.376   7.087
46406SOL     OW41050   2.571  13.529  14.701
46406SOL    HW141051   2.656  13.570  14.681
46406SOL    HW241052   2.529  13.519  14.616
46407SOL     OW41053   8.225   8.843  12.754
46407SOL    HW141054   8.307   8.866  12.799
46407SOL    HW241055   8.228   8.894  12.673
46408SOL     OW41056   5.226   8.255   3.666
46408SOL    HW141057   5.315   8.221   3.658
46408SOL    HW241058   5.193   8.215   3.747
46409SOL     OW41059   0.973   6.810   7.362
46409SOL    HW141060   0.995   6.882   7.421
46409SOL    HW241061   1.051   6.799   7.308
46410SOL     OW41062  10.643   0.148   2.843
46410SOL    HW141063  10.723   0.133   2.792
46410SOL    HW241064  10.605   0.227   2.805
46411SOL     OW41065  10.821   3.523   9.215
46411SOL    HW141066  10.862   3.478   9.290
46411SOL    HW241067  10.732   3.541   9.244
46412SOL     OW41068   5.517  10.612  12.986
46412SOL    HW141069   5.435  10.584  12.945
46412SOL    HW241070   5.570  10.533  12.989
46413SOL     OW41071   1.118  14.270   5.570
46413SOL    HW141072   1.126  14.346   5.627
46413SOL    HW241073   1.156  14.298   5.486
46414SOL     OW41074   6.481  10.779   1.596
46414SOL    HW141075   6.478  10.841   1.669
46414SOL    HW241076   6.542  10.711   1.625
46415SOL     OW41077   2.231   0.030   1.188
46415SOL    HW141078   2.163   0.089   1.156
46415SOL    HW241079   2.313   0.079   1.176
46416SOL     OW41080   7.244   8.429  12.923
46416SOL    HW141081   7.256   8.476  13.006
46416SOL    HW241082   7.290   8.347  12.936
46417SOL     OW41083   3.280   9.082   5.536
46417SOL    HW141084   3.239   9.030   5.605
46417SOL    HW241085   3.311   9.161   5.581
46418SOL     OW41086   5.316  10.892  13.130
46418SOL    HW141087   5.354  10.934  13.207
46418SOL    HW241088   5.333  10.799  13.142
46419SOL     OW41089   7.508   5.350   2.565
46419SOL    HW141090   7.481   5.432   2.606
46419SOL    HW241091   7.450   5.341   2.490
46420SOL     OW41092   0.928   7.086   7.172
46420SOL    HW141093   1.020   7.087   7.198
46420SOL    HW241094   0.922   7.016   7.106
46421SOL     OW41095  13.167   3.498   0.884
46421SOL    HW141096  13.151   3.436   0.955
46421SOL    HW241097  13.214   3.571   0.925
46422SOL     OW41098  12.399  11.774   1.069
46422SOL    HW141099  12.393  11.794   0.976
46422SOL    HW241100  12.414  11.859   1.111
46423SOL     OW41101  11.766   5.080   8.904
46423SOL    HW141102  11.860   5.068   8.916
46423SOL    HW241103  11.726   5.009   8.953
46424SOL     OW41104   3.745   3.279   6.932
46424SOL    HW141105   3.715   3.191   6.910
46424SOL    HW241106   3.786   3.311   6.852
46425SOL     OW41107   7.344   7.342   3.920
46425SOL    HW141108   7.430   7.374   3.947
46425SOL    HW241109   7.282   7.390   3.975
46426SOL     OW41110   2.033   0.623   1.473
46426SOL    HW141111   2.018   0.551   1.534
46426SOL    HW241112   2.096   0.680   1.518
46427SOL     OW41113   1.274   2.808   7.785
46427SOL    HW141114   1.210   2.739   7.768
46427SOL    HW241115   1.229   2.868   7.845
46428SOL     OW41116   5.032   2.415  10.034
46428SOL    HW141117   5.036   2.407  10.130
46428SOL    HW241118   4.962   2.479  10.019
46429SOL     OW41119   4.118  11.908   1.909
46429SOL    HW141120   4.190  11.949   1.862
46429SOL    HW241121   4.118  11.817   1.879
46430SOL     OW41122   5.836   0.884   7.364
46430SOL    HW141123   5.801   0.811   7.314
46430SOL    HW241124   5.797   0.962   7.324
46431SOL     OW41125   6.908   7.097   4.822
46431SOL    HW141126   6.965   7.024   4.795
46431SOL    HW241127   6.962   7.147   4.883
46432SOL     OW41128   6.613   6.485  14.218
46432SOL    HW141129   6.567   6.559  14.256
46432SOL    HW241130   6.554   6.452  14.150
46433SOL     OW41131   8.062   9.436   2.247
46433SOL    HW141132   8.074   9.530   2.257
46433SOL    HW241133   8.100   9.415   2.162
46434SOL     OW41134   9.545   1.946  13.380
46434SOL    HW141135   9.616   1.891  13.346
46434SOL    HW241136   9.518   1.902  13.460
46435SOL     OW41137   1.355  14.208  14.795
46435SOL    HW141138   1.294  14.196  14.722
46435SOL    HW241139   1.299  14.216  14.872
46436SOL     OW41140   2.322   6.821   2.091
46436SOL    HW141141   2.413   6.850   2.093
46436SOL    HW241142   2.313   6.764   2.168
46437SOL     OW41143   3.605   1.237   6.374
46437SOL    HW141144   3.643   1.150   6.361
46437SOL    HW241145   3.624   1.283   6.293
46438SOL     OW41146   8.697   3.869  12.428
46438SOL    HW141147   8.731   3.779  12.432
46438SOL    HW241148   8.668   3.879  12.338
46439SOL     OW41149   0.798  13.735  11.145
46439SOL    HW141150   0.702  13.737  11.150
46439SOL    HW241151   0.827  13.746  11.235
46440SOL     OW41152  11.122   2.021  13.468
46440SOL    HW141153  11.045   2.078  13.480
46440SOL    HW241154  11.195   2.082  13.461
46441SOL     OW41155   3.636   0.739   5.254
46441SOL    HW141156   3.579   0.805   5.294
46441SOL    HW241157   3.677   0.694   5.328
46442SOL     OW41158   7.783   5.836   8.847
46442SOL    HW141159   7.846   5.821   8.918
46442SOL    HW241160   7.705   5.786   8.874
46443SOL     OW41161   4.624   7.371  11.447
46443SOL    HW141162   4.569   7.430  11.497
46443SOL    HW241163   4.627   7.409  11.359
46444SOL     OW41164   6.811   1.908   9.926
46444SOL    HW141165   6.878   1.840   9.930
46444SOL    HW241166   6.758   1.885   9.850
46445SOL     OW41167   2.770   4.254   0.772
46445SOL    HW141168   2.725   4.170   0.773
46445SOL    HW241169   2.822   4.252   0.692
46446SOL     OW41170   3.436   0.232   6.471
46446SOL    HW141171   3.473   0.145   6.455
46446SOL    HW241172   3.341   0.220   6.464
46447SOL     OW41173   1.911   4.702   2.706
46447SOL    HW141174   1.934   4.696   2.613
46447SOL    HW241175   1.858   4.623   2.722
46448SOL     OW41176   0.180  10.562   8.462
46448SOL    HW141177   0.159  10.470   8.445
46448SOL    HW241178   0.271  10.560   8.492
46449SOL     OW41179   5.297   9.108  12.725
46449SOL    HW141180   5.324   9.048  12.655
46449SOL    HW241181   5.211   9.076  12.753
46450SOL     OW41182  12.643   4.561  12.563
46450SOL    HW141183  12.612   4.518  12.483
46450SOL    HW241184  12.645   4.654  12.541
46451SOL     OW41185   2.780   1.687   4.984
46451SOL    HW141186   2.845   1.629   4.945
46451SOL    HW241187   2.737   1.729   4.909
46452SOL     OW41188   5.565   3.477   9.593
46452SOL    HW141189   5.477   3.492   9.559
46452SOL    HW241190   5.552   3.428   9.674
46453SOL     OW41191   6.690   9.223  14.180
46453SOL    HW141192   6.675   9.141  14.226
46453SOL    HW241193   6.758   9.203  14.115
46454SOL     OW41194   5.564   5.157  13.964
46454SOL    HW141195   5.595   5.098  14.033
46454SOL    HW241196   5.520   5.228  14.011
46455SOL     OW41197   2.428   4.760   9.814
46455SOL    HW141198   2.442   4.697   9.884
46455SOL    HW241199   2.333   4.761   9.801
46456SOL     OW41200   5.699  11.650   8.174
46456SOL    HW141201   5.775  11.597   8.148
46456SOL    HW241202   5.714  11.670   8.266
46457SOL     OW41203   4.192   9.182   1.009
46457SOL    HW141204   4.188   9.201   1.102
46457SOL    HW241205   4.250   9.249   0.973
46458SOL     OW41206   4.314   5.541   3.620
46458SOL    HW141207   4.338   5.626   3.658
46458SOL    HW241208   4.264   5.563   3.541
46459SOL     OW41209   9.674   2.371  12.682
46459SOL    HW141210   9.638   2.283  12.691
46459SOL    HW241211   9.600   2.429  12.699
46460SOL     OW41212  11.600   9.286   2.683
46460SOL    HW141213  11.676   9.278   2.740
46460SOL    HW241214  11.567   9.196   2.675
46461SOL     OW41215  10.933   4.938   2.804
46461SOL    HW141216  10.906   4.919   2.894
46461SOL    HW241217  10.923   4.855   2.758
46462SOL     OW41218   0.091  13.214   4.344
46462SOL    HW141219   0.028  13.207   4.272
46462SOL    HW241220   0.169  13.253   4.303
46463SOL     OW41221  12.205  14.030   3.894
46463SOL    HW141222  12.199  13.985   3.978
46463SOL    HW241223  12.167  13.969   3.831
46464SOL     OW41224  10.315   6.015   9.532
46464SOL    HW141225  10.400   5.996   9.573
46464SOL    HW241226  10.307   5.949   9.463
46465SOL     OW41227  13.304   8.097   1.495
46465SOL    HW141228  13.310   8.109   1.400
46465SOL    HW241229  13.348   8.173   1.532
46466SOL     OW41230   2.814   4.873   6.620
46466SOL    HW141231   2.719   4.876   6.630
46466SOL    HW241232   2.847   4.863   6.709
46467SOL     OW41233   1.396  13.065   3.783
46467SOL    HW141234   1.339  13.089   3.710
46467SOL    HW241235   1.393  13.141   3.841
46468SOL     OW41236   6.586  13.861   4.661
46468SOL    HW141237   6.539  13.789   4.618
46468SOL    HW241238   6.592  13.835   4.753
46469SOL     OW41239   7.282   4.603  10.887
46469SOL    HW141240   7.206   4.615  10.830
46469SOL    HW241241   7.346   4.667  10.856
46470SOL     OW41242  14.794  11.771   0.021
46470SOL    HW141243   0.007  11.784  14.875
46470SOL    HW241244  14.753  11.856   0.005
46471SOL     OW41245   2.568  14.558  10.882
46471SOL    HW141246   2.568  14.649  10.854
46471SOL    HW241247   2.644  14.519  10.839
46472SOL     OW41248   6.478   6.094   5.174
46472SOL    HW141249   6.407   6.042   5.136
46472SOL    HW241250   6.433   6.158   5.229
46473SOL     OW41251   5.355  14.504   0.270
46473SOL    HW141252   5.373  14.576   0.209
46473SOL    HW241253   5.438  14.457   0.275
46474SOL     OW41254   1.585   2.362  13.319
46474SOL    HW141255   1.571   2.275  13.280
46474SOL    HW241256   1.497   2.390  13.346
46475SOL     OW41257   0.132  10.168  14.584
46475SOL    HW141258   0.062  10.218  14.543
46475SOL    HW241259   0.102  10.155  14.674
46476SOL     OW41260   1.700   8.610  13.426
46476SOL    HW141261   1.684   8.669  13.353
46476SOL    HW241262   1.666   8.525  13.396
46477SOL     OW41263   7.451   2.603   6.056
46477SOL    HW141264   7.378   2.559   6.098
46477SOL    HW241265   7.516   2.613   6.126
46478SOL     OW41266   4.879   8.480   9.526
46478SOL    HW141267   4.952   8.529   9.487
46478SOL    HW241268   4.855   8.417   9.458
46479SOL     OW41269   9.890   9.865   7.628
46479SOL    HW141270   9.913   9.958   7.635
46479SOL    HW241271   9.933   9.824   7.703
46480SOL     OW41272  12.819   5.754  13.654
46480SOL    HW141273  12.751   5.711  13.706
46480SOL    HW241274  12.846   5.829  13.707
46481SOL     OW41275   7.304  12.160   0.347
46481SOL    HW141276   7.391  12.172   0.385
46481SOL    HW241277   7.319  12.108   0.268
46482SOL     OW41278  14.417   1.439   5.100
46482SOL    HW141279  14.458   1.354   5.116
46482SOL    HW241280  14.486   1.491   5.059
46483SOL     OW41281  11.787   2.963   1.917
46483SOL    HW141282  11.796   3.055   1.891
46483SOL    HW241283  11.728   2.965   1.993
46484SOL     OW41284   8.201  12.698   0.585
46484SOL    HW141285   8.255  12.620   0.573
46484SOL    HW241286   8.263  12.768   0.607
46485SOL     OW41287  14.526  11.470  12.054
46485SOL    HW141288  14.546  11.483  11.961
46485SOL    HW241289  14.431  11.481  12.059
46486SOL     OW41290   0.663   4.970  14.736
46486SOL    HW141291   0.736   5.029  14.716
46486SOL    HW241292   0.658   4.913  14.659
46487SOL     OW41293   8.601   3.757   6.838
46487SOL    HW141294   8.621   3.672   6.798
46487SOL    HW241295   8.573   3.812   6.764
46488SOL     OW41296   4.454  13.375  14.308
46488SOL    HW141297   4.370  13.363  14.351
46488SOL    HW241298   4.495  13.449  14.354
46489SOL     OW41299  12.668   4.882  14.390
46489SOL    HW141300  12.649   4.971  14.420
46489SOL    HW241301  12.670   4.889  14.294
46490SOL     OW41302   3.895  13.506  11.680
46490SOL    HW141303   3.984  13.525  11.651
46490SOL    HW241304   3.855  13.462  11.605
46491SOL     OW41305   2.039   8.163   2.924
46491SOL    HW141306   1.958   8.180   2.874
46491SOL    HW241307   2.082   8.248   2.929
46492SOL     OW41308  13.028  12.835   4.908
46492SOL    HW141309  13.072  12.875   4.983
46492SOL    HW241310  13.094  12.777   4.870
46493SOL     OW41311   4.406  11.484   0.861
46493SOL    HW141312   4.315  11.495   0.888
46493SOL    HW241313   4.406  11.503   0.767
46494SOL     OW41314   6.421   8.071   5.267
46494SOL    HW141315   6.354   8.081   5.200
46494SOL    HW241316   6.379   8.101   5.347
46495SOL     OW41317  14.158  14.519  11.324
46495SOL    HW141318  14.150  14.428  11.353
46495SOL    HW241319  14.191  14.566  11.401
46496SOL     OW41320  10.709  14.148  14.723
46496SOL    HW141321  10.719  14.057  14.748
46496SOL    HW241322  10.716  14.148  14.628
46497SOL     OW41323  11.780   9.328  11.970
46497SOL    HW141324  11.825   9.327  12.055
46497SOL    HW241325  11.688   9.312  11.992
46498SOL     OW41326  12.892  13.094   4.221
46498SOL    HW141327  12.927  13.092   4.310
46498SOL    HW241328  12.797  13.093   4.232
46499SOL     OW41329   3.227   6.430   2.448
46499SOL    HW141330   3.199   6.366   2.513
46499SOL    HW241331   3.322   6.416   2.440
46500SOL     OW41332   5.193   8.613   9.652
46500SOL    HW141333   5.227   8.670   9.721
46500SOL    HW241334   5.134   8.553   9.697
46501SOL     OW41335   4.203   8.714   9.600
46501SOL    HW141336   4.285   8.726   9.552
46501SOL    HW241337   4.188   8.798   9.643
46502SOL     OW41338   7.784  13.640  12.874
46502SOL    HW141339   7.861  13.677  12.918
46502SOL    HW241340   7.733  13.601  12.944
46503SOL     OW41341   7.903   4.755   5.660
46503SOL    HW141342   7.885   4.849   5.656
46503SOL    HW241343   7.945   4.743   5.745
46504SOL     OW41344  14.548   4.875  13.555
46504SOL    HW141345  14.484   4.928  13.602
46504SOL    HW241346  14.509   4.787  13.553
46505SOL     OW41347   7.114  11.130  14.104
46505SOL    HW141348   7.150  11.045  14.131
46505SOL    HW241349   7.061  11.158  14.179
46506SOL     OW41350   4.053   3.664   0.722
46506SOL    HW141351   4.068   3.654   0.816
46506SOL    HW241352   4.064   3.757   0.705
46507SOL     OW41353   4.639   0.596  14.839
46507SOL    HW141354   4.684   0.548  14.770
46507SOL    HW241355   4.556   0.550  14.850
46508SOL     OW41356   4.594  13.427   9.619
46508SOL    HW141357   4.579  13.333   9.607
46508SOL    HW241358   4.687  13.438   9.600
46509SOL     OW41359   2.345   2.819  12.202
46509SOL    HW141360   2.378   2.783  12.284
46509SOL    HW241361   2.310   2.905  12.225
46510SOL     OW41362  11.869   7.145   6.664
46510SOL    HW141363  11.869   7.113   6.574
46510SOL    HW241364  11.777   7.159   6.686
46511SOL     OW41365   8.355   5.005  10.305
46511SOL    HW141366   8.373   5.039  10.217
46511SOL    HW241367   8.300   4.929  10.290
46512SOL     OW41368   5.719   8.254   0.772
46512SOL    HW141369   5.809   8.259   0.740
46512SOL    HW241370   5.727   8.261   0.867
46513SOL     OW41371  12.322   1.970   0.449
46513SOL    HW141372  12.415   1.959   0.467
46513SOL    HW241373  12.307   2.064   0.457
46514SOL     OW41374   6.006   0.010  11.845
46514SOL    HW141375   5.990  14.819  11.781
46514SOL    HW241376   6.039  14.844  11.923
46515SOL     OW41377   7.020  11.908  14.438
46515SOL    HW141378   7.087  11.931  14.503
46515SOL    HW241379   6.949  11.871  14.491
46516SOL     OW41380  12.416   6.486   3.453
46516SOL    HW141381  12.321   6.472   3.451
46516SOL    HW241382  12.429   6.571   3.411
46517SOL     OW41383   3.653   3.623  11.802
46517SOL    HW141384   3.574   3.668  11.831
46517SOL    HW241385   3.722   3.657  11.859
46518SOL     OW41386   5.354   5.994   7.908
46518SOL    HW141387   5.335   6.059   7.976
46518SOL    HW241388   5.288   6.010   7.840
46519SOL     OW41389   1.246   3.575   0.497
46519SOL    HW141390   1.158   3.540   0.509
46519SOL    HW241391   1.283   3.576   0.585
46520SOL     OW41392   8.202   3.628   1.419
46520SOL    HW141393   8.190   3.658   1.509
46520SOL    HW241394   8.218   3.534   1.427
46521SOL     OW41395   0.366   0.713   1.287
46521SOL    HW141396   0.295   0.663   1.327
46521SOL    HW241397   0.395   0.659   1.214
46522SOL     OW41398  14.594   3.389   1.925
46522SOL    HW141399  14.535   3.407   1.851
46522SOL    HW241400  14.608   3.474   1.966
46523SOL     OW41401   6.457   1.858   5.133
46523SOL    HW141402   6.432   1.819   5.217
46523SOL    HW241403   6.511   1.934   5.157
46524SOL     OW41404   3.340   9.003  12.249
46524SOL    HW141405   3.413   8.954  12.288
46524SOL    HW241406   3.382   9.067  12.192
46525SOL     OW41407  10.836   8.892  13.283
46525SOL    HW141408  10.930   8.906  13.277
46525SOL    HW241409  10.806   8.891  13.192
46526SOL     OW41410   5.116   8.877   3.203
46526SOL    HW141411   5.118   8.863   3.297
46526SOL    HW241412   5.023   8.875   3.180
46527SOL     OW41413  13.203  13.799   1.620
46527SOL    HW141414  13.261  13.823   1.692
46527SOL    HW241415  13.188  13.705   1.631
46528SOL     OW41416   0.243  13.508   6.716
46528SOL    HW141417   0.172  13.446   6.732
46528SOL    HW241418   0.290  13.471   6.641
46529SOL     OW41419  11.840   9.715   3.598
46529SOL    HW141420  11.793   9.798   3.584
46529SOL    HW241421  11.815   9.661   3.523
46530SOL     OW41422   1.826   4.634   6.005
46530SOL    HW141423   1.809   4.634   6.099
46530SOL    HW241424   1.837   4.541   5.982
46531SOL     OW41425  14.686   0.118   6.065
46531SOL    HW141426  14.655   0.149   6.150
46531SOL    HW241427  14.747   0.185   6.035
46532SOL     OW41428   1.733   2.948   1.254
46532SOL    HW141429   1.751   2.863   1.294
46532SOL    HW241430   1.680   2.994   1.319
46533SOL     OW41431  13.340  12.716  10.300
46533SOL    HW141432  13.380  12.735  10.215
46533SOL    HW241433  13.390  12.642  10.334
46534SOL     OW41434   1.781   5.954  10.206
46534SOL    HW141435   1.811   6.019  10.142
46534SOL    HW241436   1.706   5.995  10.249
46535SOL     OW41437   9.003  11.868  11.504
46535SOL    HW141438   9.032  11.778  11.523
46535SOL    HW241439   9.055  11.923  11.563
46536SOL     OW41440   2.925   0.395   9.200
46536SOL    HW141441   2.875   0.395   9.118
46536SOL    HW241442   2.862   0.365   9.266
46537SOL     OW41443   5.650   2.099   4.277
46537SOL    HW141444   5.594   2.062   4.209
46537SOL    HW241445   5.631   2.193   4.276
46538SOL     OW41446  11.580   9.133   1.582
46538SOL    HW141447  11.649   9.075   1.613
46538SOL    HW241448  11.544   9.090   1.505
46539SOL     OW41449  11.018   9.974   3.595
46539SOL    HW141450  11.065  10.047   3.555
46539SOL    HW241451  11.078   9.941   3.663
46540SOL     OW41452   4.651   8.490  11.191
46540SOL    HW141453   4.674   8.541  11.269
46540SOL    HW241454   4.628   8.404  11.224
46541SOL     OW41455   6.765  10.833   6.473
46541SOL    HW141456   6.831  10.868   6.533
46541SOL    HW241457   6.686  10.823   6.526
46542SOL     OW41458   4.411  10.198   6.511
46542SOL    HW141459   4.324  10.212   6.548
46542SOL    HW241460   4.416  10.103   6.496
46543SOL     OW41461  13.087   5.292  14.755
46543SOL    HW141462  13.071   5.233  14.828
46543SOL    HW241463  13.061   5.378  14.788
46544SOL     OW41464  13.902   5.048  11.683
46544SOL    HW141465  13.860   5.091  11.757
46544SOL    HW241466  13.847   5.072  11.608
46545SOL     OW41467   5.257  13.017  14.084
46545SOL    HW141468   5.304  12.943  14.044
46545SOL    HW241469   5.283  13.093  14.032
46546SOL     OW41470   6.904   0.773   1.561
46546SOL    HW141471   6.978   0.772   1.500
46546SOL    HW241472   6.827   0.767   1.504
46547SOL     OW41473   3.768   4.929   9.455
46547SOL    HW141474   3.698   4.959   9.397
46547SOL    HW241475   3.753   4.835   9.463
46548SOL     OW41476   2.219   2.426  11.260
46548SOL    HW141477   2.222   2.331  11.248
46548SOL    HW241478   2.154   2.456  11.196
46549SOL     OW41479   7.649   0.171   8.474
46549SOL    HW141480   7.695   0.190   8.555
46549SOL    HW241481   7.588   0.101   8.497
46550SOL     OW41482   3.849   0.255   5.662
46550SOL    HW141483   3.916   0.212   5.609
46550SOL    HW241484   3.786   0.290   5.598
46551SOL     OW41485   4.618  14.791   0.320
46551SOL    HW141486   4.675  14.868   0.326
46551SOL    HW241487   4.530  14.825   0.336
46552SOL     OW41488   6.639  11.625   5.664
46552SOL    HW141489   6.734  11.627   5.652
46552SOL    HW241490   6.605  11.590   5.581
46553SOL     OW41491  12.657  13.882  12.906
46553SOL    HW141492  12.701  13.799  12.888
46553SOL    HW241493  12.665  13.931  12.825
46554SOL     OW41494   8.838  14.351   8.597
46554SOL    HW141495   8.761  14.300   8.621
46554SOL    HW241496   8.870  14.309   8.517
46555SOL     OW41497  10.208   0.595  11.566
46555SOL    HW141498  10.223   0.648  11.488
46555SOL    HW241499  10.296   0.573  11.597
46556SOL     OW41500   8.579   9.074   2.788
46556SOL    HW141501   8.594   9.025   2.707
46556SOL    HW241502   8.544   9.010   2.849
46557SOL     OW41503   2.540  13.229   8.555
46557SOL    HW141504   2.533  13.149   8.503
46557SOL    HW241505   2.623  13.268   8.528
46558SOL     OW41506   0.952   4.320   0.121
46558SOL    HW141507   0.857   4.320   0.131
46558SOL    HW241508   0.969   4.386   0.053
46559SOL     OW41509  14.461  12.072   6.991
46559SOL    HW141510  14.458  12.161   7.025
46559SOL    HW241511  14.375  12.036   7.011
46560SOL     OW41512   2.809   7.193   8.381
46560SOL    HW141513   2.883   7.155   8.427
46560SOL    HW241514   2.811   7.286   8.406
46561SOL     OW41515  12.113   1.318  10.940
46561SOL    HW141516  12.189   1.361  10.979
46561SOL    HW241517  12.042   1.383  10.948
46562SOL     OW41518   3.345  11.228   2.448
46562SOL    HW141519   3.348  11.215   2.353
46562SOL    HW241520   3.272  11.173   2.477
46563SOL     OW41521   5.667   8.007   4.070
46563SOL    HW141522   5.685   7.989   4.163
46563SOL    HW241523   5.715   8.088   4.052
46564SOL     OW41524  14.413   3.983   0.176
46564SOL    HW141525  14.444   3.937   0.098
46564SOL    HW241526  14.319   3.967   0.178
46565SOL     OW41527   8.354  13.996   0.849
46565SOL    HW141528   8.371  14.054   0.774
46565SOL    HW241529   8.290  14.044   0.902
46566SOL     OW41530   2.714   0.931   7.631
46566SOL    HW141531   2.631   0.883   7.624
46566SOL    HW241532   2.744   0.913   7.720
46567SOL     OW41533  10.334   3.237  11.622
46567SOL    HW141534  10.377   3.276  11.546
46567SOL    HW241535  10.257   3.292  11.637
46568SOL     OW41536   8.142   0.603  11.553
46568SOL    HW141537   8.115   0.515  11.580
46568SOL    HW241538   8.062   0.656  11.562
46569SOL     OW41539  13.454   2.108   8.719
46569SOL    HW141540  13.520   2.051   8.680
46569SOL    HW241541  13.456   2.086   8.812
46570SOL     OW41542   7.852  11.488   8.437
46570SOL    HW141543   7.769  11.535   8.429
46570SOL    HW241544   7.919  11.551   8.411
46571SOL     OW41545   9.681   4.223   9.695
46571SOL    HW141546   9.724   4.295   9.741
46571SOL    HW241547   9.626   4.267   9.629
46572SOL     OW41548   9.517  10.538  12.799
46572SOL    HW141549   9.592  10.500  12.846
46572SOL    HW241550   9.557  10.584  12.725
46573SOL     OW41551   7.484   0.684   1.090
46573SOL    HW141552   7.524   0.605   1.052
46573SOL    HW241553   7.391   0.676   1.068
46574SOL     OW41554  10.917   7.220   1.923
46574SOL    HW141555  10.870   7.138   1.913
46574SOL    HW241556  10.908   7.241   2.016
46575SOL     OW41557   3.318   5.179   4.037
46575SOL    HW141558   3.291   5.250   3.979
46575SOL    HW241559   3.342   5.108   3.978
46576SOL     OW41560  11.278   8.486   8.999
46576SOL    HW141561  11.221   8.563   8.993
46576SOL    HW241562  11.236   8.432   9.067
46577SOL     OW41563   5.431   8.996   6.293
46577SOL    HW141564   5.388   8.985   6.208
46577SOL    HW241565   5.518   8.958   6.280
46578SOL     OW41566   3.014  10.886   4.817
46578SOL    HW141567   2.921  10.868   4.802
46578SOL    HW241568   3.052  10.892   4.729
46579SOL     OW41569   4.962   9.527   1.798
46579SOL    HW141570   4.958   9.514   1.893
46579SOL    HW241571   4.898   9.597   1.781
46580SOL     OW41572   9.310  11.138  11.244
46580SOL    HW141573   9.347  11.068  11.190
46580SOL    HW241574   9.383  11.200  11.256
46581SOL     OW41575  11.236   5.403   7.469
46581SOL    HW141576  11.211   5.460   7.541
46581SOL    HW241577  11.161   5.345   7.457
46582SOL     OW41578   0.328   7.133   9.387
46582SOL    HW141579   0.420   7.121   9.409
46582SOL    HW241580   0.292   7.045   9.384
46583SOL     OW41581   1.519   5.991   9.052
46583SOL    HW141582   1.547   6.050   8.982
46583SOL    HW241583   1.424   5.985   9.042
46584SOL     OW41584   9.342  12.920   2.436
46584SOL    HW141585   9.390  12.865   2.374
46584SOL    HW241586   9.287  12.976   2.381
46585SOL     OW41587   3.314   5.167   9.000
46585SOL    HW141588   3.307   5.112   9.078
46585SOL    HW241589   3.408   5.172   8.982
46586SOL     OW41590  13.473   0.723  10.737
46586SOL    HW141591  13.480   0.671  10.657
46586SOL    HW241592  13.539   0.685  10.795
46587SOL     OW41593  12.282   7.103   3.391
46587SOL    HW141594  12.198   7.116   3.436
46587SOL    HW241595  12.336   7.177   3.420
46588SOL     OW41596   8.077  14.490  10.948
46588SOL    HW141597   8.156  14.506  11.000
46588SOL    HW241598   8.068  14.395  10.947
46589SOL     OW41599   8.457   7.522  13.936
46589SOL    HW141600   8.499   7.463  13.998
46589SOL    HW241601   8.526   7.544  13.873
46590SOL     OW41602   5.104   7.311   7.537
46590SOL    HW141603   5.141   7.230   7.503
46590SOL    HW241604   5.016   7.287   7.567
46591SOL     OW41605   0.665   9.077   7.751
46591SOL    HW141606   0.612   9.157   7.748
46591SOL    HW241607   0.610   9.014   7.797
46592SOL     OW41608   9.384   1.771   6.582
46592SOL    HW141609   9.335   1.724   6.650
46592SOL    HW241610   9.466   1.796   6.624
46593SOL     OW41611   5.978   3.087   2.982
46593SOL    HW141612   6.054   3.143   2.970
46593SOL    HW241613   6.003   3.004   2.940
46594SOL     OW41614  11.782   4.355   5.905
46594SOL    HW141615  11.767   4.450   5.903
46594SOL    HW241616  11.704   4.318   5.863
46595SOL     OW41617   8.844   3.935  10.719
46595SOL    HW141618   8.789   3.989  10.662
46595SOL    HW241619   8.823   3.845  10.694
46596SOL     OW41620   4.634   5.840   1.491
46596SOL    HW141621   4.674   5.927   1.495
46596SOL    HW241622   4.577   5.835   1.568
46597SOL     OW41623   1.760   4.804   7.105
46597SOL    HW141624   1.787   4.860   7.178
46597SOL    HW241625   1.817   4.727   7.111
46598SOL     OW41626  14.249   8.823   5.214
46598SOL    HW141627  14.289   8.898   5.170
46598SOL    HW241628  14.220   8.858   5.298
46599SOL     OW41629   6.334  12.859   0.351
46599SOL    HW141630   6.410  12.911   0.378
46599SOL    HW241631   6.315  12.888   0.262
46600SOL     OW41632   2.382   9.104  10.407
46600SOL    HW141633   2.327   9.182  10.397
46600SOL    HW241634   2.466   9.128  10.367
46601SOL     OW41635  14.246   9.351  11.218
46601SOL    HW141636  14.251   9.318  11.128
46601SOL    HW241637  14.152   9.368  11.232
46602SOL     OW41638  10.095  12.860   1.718
46602SOL    HW141639  10.026  12.806   1.678
46602SOL    HW241640  10.176  12.825   1.683
46603SOL     OW41641  11.458  13.544  10.089
46603SOL    HW141642  11.537  13.558  10.141
46603SOL    HW241643  11.491  13.522  10.001
46604SOL     OW41644   1.559   1.932   3.584
46604SOL    HW141645   1.588   1.887   3.664
46604SOL    HW241646   1.464   1.936   3.592
46605SOL     OW41647   4.911  12.180   3.694
46605SOL    HW141648   4.864  12.122   3.754
46605SOL    HW241649   4.856  12.258   3.688
46606SOL     OW41650  10.281   7.019   0.774
46606SOL    HW141651  10.269   6.952   0.706
46606SOL    HW241652  10.336   6.976   0.840
46607SOL     OW41653   5.288  11.374   7.156
46607SOL    HW141654   5.231  11.442   7.120
46607SOL    HW241655   5.274  11.298   7.100
46608SOL     OW41656   0.545   7.116  11.576
46608SOL    HW141657   0.622   7.080  11.620
46608SOL    HW241658   0.476   7.051  11.591
46609SOL     OW41659  12.254   9.439  13.579
46609SOL    HW141660  12.188   9.451  13.647
46609SOL    HW241661  12.338   9.450  13.624
46610SOL     OW41662   2.249  11.521   4.138
46610SOL    HW141663   2.156  11.542   4.139
46610SOL    HW241664   2.286  11.570   4.211
46611SOL     OW41665   7.141   9.835   1.788
46611SOL    HW141666   7.215   9.819   1.729
46611SOL    HW241667   7.078   9.767   1.765
46612SOL     OW41668  13.486   3.754   0.801
46612SOL    HW141669  13.552   3.729   0.866
46612SOL    HW241670  13.452   3.838   0.832
46613SOL     OW41671   0.172   4.847   7.044
46613SOL    HW141672   0.249   4.895   7.074
46613SOL    HW241673   0.118   4.913   7.000
46614SOL     OW41674   9.228  12.830  13.215
46614SOL    HW141675   9.220  12.849  13.309
46614SOL    HW241676   9.147  12.864  13.177
46615SOL     OW41677   4.820   4.811   7.836
46615SOL    HW141678   4.807   4.716   7.837
46615SOL    HW241679   4.752   4.845   7.892
46616SOL     OW41680  12.504   8.731  10.757
46616SOL    HW141681  12.435   8.746  10.822
46616SOL    HW241682  12.462   8.676  10.691
46617SOL     OW41683   9.561  14.274   8.851
46617SOL    HW141684   9.504  14.207   8.890
46617SOL    HW241685   9.568  14.249   8.759
46618SOL     OW41686  11.680   3.511   8.799
46618SOL    HW141687  11.770   3.478   8.798
46618SOL    HW241688  11.657   3.516   8.892
46619SOL     OW41689   9.457  11.126  12.505
46619SOL    HW141690   9.425  11.142  12.594
46619SOL    HW241691   9.394  11.064  12.468
46620SOL     OW41692  11.495   3.069   4.632
46620SOL    HW141693  11.450   3.068   4.548
46620SOL    HW241694  11.430   3.102   4.694
46621SOL     OW41695   6.488  11.772   7.913
46621SOL    HW141696   6.554  11.766   7.982
46621SOL    HW241697   6.536  11.804   7.836
46622SOL     OW41698   4.985   9.428  11.220
46622SOL    HW141699   4.891   9.439  11.228
46622SOL    HW241700   5.004   9.449  11.128
46623SOL     OW41701   9.278  10.481   4.865
46623SOL    HW141702   9.186  10.456   4.865
46623SOL    HW241703   9.314  10.439   4.943
46624SOL     OW41704  14.342   4.106   6.501
46624SOL    HW141705  14.267   4.048   6.487
46624SOL    HW241706  14.371   4.088   6.590
46625SOL     OW41707   6.038   7.861   0.452
46625SOL    HW141708   6.002   7.798   0.514
46625SOL    HW241709   5.977   7.935   0.455
46626SOL     OW41710  10.954  11.747   5.613
46626SOL    HW141711  10.887  11.745   5.544
46626SOL    HW241712  11.004  11.667   5.600
46627SOL     OW41713  11.895  10.029   2.642
46627SOL    HW141714  11.913  10.024   2.736
46627SOL    HW241715  11.979  10.057   2.603
46628SOL     OW41716   7.606   5.355   3.370
46628SOL    HW141717   7.652   5.436   3.349
46628SOL    HW241718   7.585   5.363   3.463
46629SOL     OW41719   1.382  12.046  13.401
46629SOL    HW141720   1.399  11.998  13.320
46629SOL    HW241721   1.419  12.133  13.385
46630SOL     OW41722   1.710   5.734   1.592
46630SOL    HW141723   1.805   5.718   1.588
46630SOL    HW241724   1.702   5.823   1.623
46631SOL     OW41725   4.728   0.501   7.363
46631SOL    HW141726   4.717   0.595   7.351
46631SOL    HW241727   4.815   0.491   7.402
46632SOL     OW41728   5.235   1.254   4.233
46632SOL    HW141729   5.201   1.281   4.147
46632SOL    HW241730   5.313   1.202   4.212
46633SOL     OW41731  12.168  13.593  12.801
46633SOL    HW141732  12.220  13.672  12.819
46633SOL    HW241733  12.097  13.596  12.865
46634SOL     OW41734   6.537  10.390   7.409
46634SOL    HW141735   6.473  10.446   7.451
46634SOL    HW241736   6.581  10.446   7.345
46635SOL     OW41737   6.622   3.131   9.651
46635SOL    HW141738   6.552   3.099   9.707
46635SOL    HW241739   6.578   3.177   9.580
46636SOL     OW41740   4.951   8.785  14.233
46636SOL    HW141741   4.861   8.788  14.202
46636SOL    HW241742   4.949   8.724  14.307
46637SOL     OW41743  12.051   0.938   8.032
46637SOL    HW141744  12.042   1.000   8.104
46637SOL    HW241745  12.143   0.913   8.034
46638SOL     OW41746   5.891  10.409  14.007
46638SOL    HW141747   5.830  10.463  14.057
46638SOL    HW241748   5.969  10.404  14.062
46639SOL     OW41749  12.088   6.130  10.459
46639SOL    HW141750  12.106   6.121  10.365
46639SOL    HW241751  12.008   6.184  10.462
46640SOL     OW41752   7.858  13.576   5.017
46640SOL    HW141753   7.907  13.655   5.040
46640SOL    HW241754   7.904  13.541   4.941
46641SOL     OW41755   9.954   2.491   6.906
46641SOL    HW141756   9.924   2.485   6.815
46641SOL    HW241757  10.049   2.505   6.898
46642SOL     OW41758  11.413   0.950   0.874
46642SOL    HW141759  11.401   0.895   0.952
46642SOL    HW241760  11.325   0.961   0.839
46643SOL     OW41761   8.617   3.279   6.155
46643SOL    HW141762   8.573   3.343   6.211
46643SOL    HW241763   8.699   3.259   6.202
46644SOL     OW41764  12.983   5.261   8.946
46644SOL    HW141765  13.009   5.331   9.006
46644SOL    HW241766  13.007   5.293   8.859
46645SOL     OW41767  10.349  13.333  10.289
46645SOL    HW141768  10.272  13.293  10.249
46645SOL    HW241769  10.326  13.425  10.299
46646SOL     OW41770  10.827   1.192  11.647
46646SOL    HW141771  10.846   1.282  11.676
46646SOL    HW241772  10.898   1.171  11.586
46647SOL     OW41773   3.259  12.777   4.825
46647SOL    HW141774   3.304  12.811   4.747
46647SOL    HW241775   3.217  12.854   4.863
46648SOL     OW41776  13.487   3.196   3.338
46648SOL    HW141777  13.480   3.140   3.415
46648SOL    HW241778  13.522   3.278   3.370
46649SOL     OW41779   1.603   7.735  10.593
46649SOL    HW141780   1.686   7.690  10.582
46649SOL    HW241781   1.559   7.727  10.509
46650SOL     OW41782   7.259   3.933  12.036
46650SOL    HW141783   7.304   3.856  12.071
46650SOL    HW241784   7.322   3.972  11.976
46651SOL     OW41785  12.468  10.034   7.558
46651SOL    HW141786  12.517  10.074   7.486
46651SOL    HW241787  12.391  10.090   7.569
46652SOL     OW41788   8.403  14.701  14.793
46652SOL    HW141789   8.489  14.694  14.751
46652SOL    HW241790   8.356  14.622  14.765
46653SOL     OW41791   9.525  13.128  12.769
46653SOL    HW141792   9.575  13.088  12.698
46653SOL    HW241793   9.468  13.059  12.801
46654SOL     OW41794   6.940  12.917   3.446
46654SOL    HW141795   7.030  12.945   3.465
46654SOL    HW241796   6.886  12.990   3.478
46655SOL     OW41797   2.208  10.517   0.636
46655SOL    HW141798   2.174  10.477   0.556
46655SOL    HW241799   2.272  10.454   0.670
46656SOL     OW41800  10.434  10.782   9.734
46656SOL    HW141801  10.388  10.698   9.740
46656SOL    HW241802  10.437  10.802   9.641
46657SOL     OW41803  13.069   8.674   8.725
46657SOL    HW141804  12.975   8.690   8.718
46657SOL    HW241805  13.109   8.748   8.679
46658SOL     OW41806  14.287   1.434   9.258
46658SOL    HW141807  14.340   1.408   9.183
46658SOL    HW241808  14.204   1.388   9.246
46659SOL     OW41809   3.638   8.349   6.829
46659SOL    HW141810   3.587   8.311   6.900
46659SOL    HW241811   3.690   8.276   6.795
46660SOL     OW41812   0.977  11.139  11.734
46660SOL    HW141813   1.068  11.118  11.713
46660SOL    HW241814   0.951  11.202  11.667
46661SOL     OW41815   8.006   0.309   9.370
46661SOL    HW141816   8.074   0.377   9.370
46661SOL    HW241817   7.981   0.300   9.462
46662SOL     OW41818   3.697  11.707   9.846
46662SOL    HW141819   3.677  11.801   9.844
46662SOL    HW241820   3.654  11.672   9.767
46663SOL     OW41821   3.814   2.276  10.384
46663SOL    HW141822   3.846   2.186  10.384
46663SOL    HW241823   3.729   2.271  10.429
46664SOL     OW41824  14.035   7.713   0.933
46664SOL    HW141825  13.952   7.711   0.886
46664SOL    HW241826  14.025   7.648   1.002
46665SOL     OW41827   2.328   9.825   8.640
46665SOL    HW141828   2.401   9.879   8.670
46665SOL    HW241829   2.367   9.740   8.621
46666SOL     OW41830   8.886   8.447  13.421
46666SOL    HW141831   8.843   8.364  13.439
46666SOL    HW241832   8.821   8.513  13.445
46667SOL     OW41833   9.944   6.337   2.511
46667SOL    HW141834  10.036   6.319   2.534
46667SOL    HW241835   9.949   6.373   2.422
46668SOL     OW41836   6.607   9.220   1.760
46668SOL    HW141837   6.601   9.310   1.792
46668SOL    HW241838   6.699   9.209   1.736
46669SOL     OW41839   5.475   4.144   2.590
46669SOL    HW141840   5.383   4.146   2.617
46669SOL    HW241841   5.523   4.147   2.672
46670SOL     OW41842  12.918   1.181   5.148
46670SOL    HW141843  12.925   1.105   5.090
46670SOL    HW241844  12.829   1.177   5.182
46671SOL     OW41845   1.608   9.206   3.601
46671SOL    HW141846   1.684   9.233   3.550
46671SOL    HW241847   1.533   9.243   3.555
46672SOL     OW41848   8.031   1.510  11.834
46672SOL    HW141849   7.968   1.495  11.763
46672SOL    HW241850   8.046   1.423  11.872
46673SOL     OW41851   6.159   9.576   3.272
46673SOL    HW141852   6.178   9.667   3.295
46673SOL    HW241853   6.222   9.555   3.203
46674SOL     OW41854  11.851   6.203   2.307
46674SOL    HW141855  11.907   6.217   2.231
46674SOL    HW241856  11.768   6.173   2.271
46675SOL     OW41857   5.597   7.564   2.495
46675SOL    HW141858   5.609   7.607   2.580
46675SOL    HW241859   5.653   7.487   2.500
46676SOL     OW41860   5.859   4.590  11.677
46676SOL    HW141861   5.837   4.600  11.770
46676SOL    HW241862   5.947   4.553  11.677
46677SOL     OW41863   1.031   1.910   2.602
46677SOL    HW141864   0.955   1.899   2.659
46677SOL    HW241865   1.105   1.878   2.654
46678SOL     OW41866   1.665   4.702  12.243
46678SOL    HW141867   1.663   4.608  12.264
46678SOL    HW241868   1.756   4.727  12.256
46679SOL     OW41869   0.238   8.555  11.328
46679SOL    HW141870   0.150   8.555  11.366
46679SOL    HW241871   0.294   8.521  11.398
46680SOL     OW41872   0.472   8.544  10.981
46680SOL    HW141873   0.551   8.561  11.031
46680SOL    HW241874   0.452   8.452  10.998
46681SOL     OW41875  11.777   6.919  11.781
46681SOL    HW141876  11.815   6.887  11.863
46681SOL    HW241877  11.713   6.851  11.756
46682SOL     OW41878   9.989   0.655   3.967
46682SOL    HW141879  10.083   0.642   3.976
46682SOL    HW241880   9.969   0.627   3.878
46683SOL     OW41881   4.573   7.759   6.949
46683SOL    HW141882   4.502   7.800   6.998
46683SOL    HW241883   4.627   7.832   6.918
46684SOL     OW41884   6.262   8.990  10.913
46684SOL    HW141885   6.203   9.047  10.964
46684SOL    HW241886   6.314   8.945  10.979
46685SOL     OW41887   3.478   0.312  13.729
46685SOL    HW141888   3.396   0.288  13.686
46685SOL    HW241889   3.451   0.357  13.809
46686SOL     OW41890   6.149   5.488   5.989
46686SOL    HW141891   6.056   5.506   6.003
46686SOL    HW241892   6.194   5.564   6.025
46687SOL     OW41893   6.099  14.771   2.322
46687SOL    HW141894   6.108  14.787   2.416
46687SOL    HW241895   6.130  14.851   2.281
46688SOL     OW41896   8.944   8.376   9.008
46688SOL    HW141897   8.935   8.471   9.000
46688SOL    HW241898   9.034   8.363   9.038
46689SOL     OW41899   9.524  10.043   2.675
46689SOL    HW141900   9.501  10.108   2.609
46689SOL    HW241901   9.607  10.073   2.711
46690SOL     OW41902   6.735   4.468   9.746
46690SOL    HW141903   6.759   4.525   9.673
46690SOL    HW241904   6.779   4.386   9.728
46691SOL     OW41905   4.087   0.514   9.333
46691SOL    HW141906   4.095   0.582   9.266
46691SOL    HW241907   4.136   0.440   9.297
46692SOL     OW41908   3.887  14.628   3.390
46692SOL    HW141909   3.917  14.581   3.312
46692SOL    HW241910   3.911  14.720   3.373
46693SOL     OW41911  14.189   7.088  12.299
46693SOL    HW141912  14.194   7.019  12.364
46693SOL    HW241913  14.172   7.168  12.349
46694SOL     OW41914   0.440   3.307   0.153
46694SOL    HW141915   0.370   3.242   0.158
46694SOL    HW241916   0.420   3.357   0.074
46695SOL     OW41917   9.778   5.612   6.862
46695SOL    HW141918   9.812   5.551   6.796
46695SOL    HW241919   9.855   5.660   6.891
46696SOL     OW41920   6.102  12.581  10.369
46696SOL    HW141921   6.009  12.557  10.360
46696SOL    HW241922   6.125  12.617  10.283
46697SOL     OW41923   7.674  10.971  13.306
46697SOL    HW141924   7.614  10.957  13.232
46697SOL    HW241925   7.617  10.980  13.382
46698SOL     OW41926   7.406   6.320   0.936
46698SOL    HW141927   7.491   6.322   0.981
46698SOL    HW241928   7.387   6.226   0.926
46699SOL     OW41929  10.375   5.038   1.702
46699SOL    HW141930  10.468   5.031   1.726
46699SOL    HW241931  10.375   5.042   1.607
46700SOL     OW41932  11.301   3.112   4.961
46700SOL    HW141933  11.338   3.198   4.945
46700SOL    HW241934  11.236   3.101   4.892
46701SOL     OW41935  13.302   8.955  10.078
46701SOL    HW141936  13.386   8.917  10.054
46701SOL    HW241937  13.324   9.039  10.119
46702SOL     OW41938  13.034  14.016   2.308
46702SOL    HW141939  12.944  14.019   2.277
46702SOL    HW241940  13.034  14.069   2.388
46703SOL     OW41941   3.909   6.095   0.492
46703SOL    HW141942   3.900   6.029   0.424
46703SOL    HW241943   4.000   6.087   0.522
46704SOL     OW41944   3.335   1.196   1.702
46704SOL    HW141945   3.330   1.290   1.683
46704SOL    HW241946   3.324   1.153   1.617
46705SOL     OW41947  14.606   6.468   8.491
46705SOL    HW141948  14.648   6.546   8.528
46705SOL    HW241949  14.645   6.395   8.539
46706SOL     OW41950   3.062  11.297  10.050
46706SOL    HW141951   3.117  11.252   9.985
46706SOL    HW241952   2.984  11.242  10.058
46707SOL     OW41953   4.679   6.156   8.665
46707SOL    HW141954   4.600   6.197   8.631
46707SOL    HW241955   4.738   6.150   8.590
46708SOL     OW41956   6.747  13.871   8.838
46708SOL    HW141957   6.713  13.890   8.751
46708SOL    HW241958   6.842  13.875   8.828
46709SOL     OW41959   0.626  14.183   8.493
46709SOL    HW141960   0.611  14.089   8.478
46709SOL    HW241961   0.578  14.226   8.423
46710SOL     OW41962   1.646  13.012  10.266
46710SOL    HW141963   1.688  13.043  10.186
46710SOL    HW241964   1.563  13.059  10.269
46711SOL     OW41965  11.299   7.694   9.515
46711SOL    HW141966  11.294   7.605   9.547
46711SOL    HW241967  11.209   7.719   9.498
46712SOL     OW41968   6.739  13.327   6.599
46712SOL    HW141969   6.674  13.367   6.656
46712SOL    HW241970   6.689  13.295   6.524
46713SOL     OW41971  14.165   2.129  12.378
46713SOL    HW141972  14.197   2.159  12.463
46713SOL    HW241973  14.192   2.038  12.374
46714SOL     OW41974  13.503   2.976  13.327
46714SOL    HW141975  13.538   3.060  13.297
46714SOL    HW241976  13.581   2.924  13.347
46715SOL     OW41977   0.520   5.919   2.920
46715SOL    HW141978   0.487   5.953   2.836
46715SOL    HW241979   0.443   5.881   2.963
46716SOL     OW41980   4.240   5.196   7.835
46716SOL    HW141981   4.164   5.210   7.778
46716SOL    HW241982   4.212   5.229   7.921
46717SOL     OW41983  12.637   7.759   1.727
46717SOL    HW141984  12.630   7.732   1.635
46717SOL    HW241985  12.702   7.699   1.764
46718SOL     OW41986  11.285   1.353  12.715
46718SOL    HW141987  11.209   1.398  12.753
46718SOL    HW241988  11.247   1.289  12.655
46719SOL     OW41989  12.102  12.677   2.990
46719SOL    HW141990  12.067  12.588   2.991
46719SOL    HW241991  12.140  12.687   2.902
46720SOL     OW41992   2.586  13.802  13.561
46720SOL    HW141993   2.538  13.856  13.498
46720SOL    HW241994   2.640  13.744  13.508
46721SOL     OW41995  11.956  13.437   8.015
46721SOL    HW141996  12.021  13.383   7.971
46721SOL    HW241997  11.889  13.375   8.044
46722SOL     OW41998   3.331   4.622   1.291
46722SOL    HW141999   3.354   4.533   1.316
46722SOL    HW242000   3.325   4.670   1.374
46723SOL     OW42001   7.550  13.482   2.703
46723SOL    HW142002   7.503  13.514   2.780
46723SOL    HW242003   7.481  13.451   2.644
46724SOL     OW42004  12.918   2.489  14.821
46724SOL    HW142005  12.972   2.448   0.010
46724SOL    HW242006  12.957   2.575  14.808
46725SOL     OW42007   2.889   5.201   9.643
46725SOL    HW142008   2.976   5.199   9.683
46725SOL    HW242009   2.832   5.235   9.712
46726SOL     OW42010   5.054   7.312   5.393
46726SOL    HW142011   5.073   7.220   5.373
46726SOL    HW242012   4.959   7.314   5.406
46727SOL     OW42013  13.143   5.596   5.071
46727SOL    HW142014  13.195   5.632   4.999
46727SOL    HW242015  13.131   5.668   5.132
46728SOL     OW42016   7.183   2.311  11.519
46728SOL    HW142017   7.162   2.239  11.459
46728SOL    HW242018   7.169   2.390  11.468
46729SOL     OW42019   8.144   0.205   8.115
46729SOL    HW142020   8.076   0.139   8.132
46729SOL    HW242021   8.220   0.154   8.087
46730SOL     OW42022   3.083   2.012   9.689
46730SOL    HW142023   3.018   1.945   9.708
46730SOL    HW242024   3.061   2.042   9.601
46731SOL     OW42025   9.135   2.924   2.472
46731SOL    HW142026   9.137   3.008   2.426
46731SOL    HW242027   9.162   2.860   2.406
46732SOL     OW42028   0.094   8.523   3.561
46732SOL    HW142029   0.064   8.434   3.544
46732SOL    HW242030   0.042   8.578   3.502
46733SOL     OW42031  11.206   5.101   2.910
46733SOL    HW142032  11.154   5.054   2.975
46733SOL    HW242033  11.143   5.156   2.864
46734SOL     OW42034   2.948  10.681  13.037
46734SOL    HW142035   3.010  10.672  12.966
46734SOL    HW242036   2.908  10.767  13.023
46735SOL     OW42037  10.131   9.211   4.497
46735SOL    HW142038  10.116   9.259   4.416
46735SOL    HW242039  10.202   9.258   4.539
46736SOL     OW42040   3.373  12.027  11.555
46736SOL    HW142041   3.384  12.010  11.648
46736SOL    HW242042   3.436  12.097  11.536
46737SOL     OW42043   1.986   9.014   8.276
46737SOL    HW142044   2.075   9.048   8.290
46737SOL    HW242045   1.929   9.078   8.316
46738SOL     OW42046  14.059   8.559   7.815
46738SOL    HW142047  14.103   8.503   7.879
46738SOL    HW242048  13.988   8.600   7.865
46739SOL     OW42049   1.777   0.225  14.361
46739SOL    HW142050   1.756   0.315  14.387
46739SOL    HW242051   1.701   0.197  14.309
46740SOL     OW42052  13.362   8.354   0.565
46740SOL    HW142053  13.359   8.450   0.558
46740SOL    HW242054  13.300   8.333   0.635
46741SOL     OW42055   8.284   1.126  11.456
46741SOL    HW142056   8.265   1.070  11.531
46741SOL    HW242057   8.378   1.116  11.441
46742SOL     OW42058  13.000   3.785  12.402
46742SOL    HW142059  13.010   3.793  12.308
46742SOL    HW242060  12.933   3.718  12.414
46743SOL     OW42061   0.331   6.680  12.558
46743SOL    HW142062   0.304   6.714  12.643
46743SOL    HW242063   0.362   6.591  12.577
46744SOL     OW42064  12.000   7.453   9.495
46744SOL    HW142065  12.065   7.517   9.467
46744SOL    HW242066  12.032   7.369   9.462
46745SOL     OW42067  13.813  12.934   4.830
46745SOL    HW142068  13.881  13.001   4.821
46745SOL    HW242069  13.734  12.983   4.853
46746SOL     OW42070   6.381  11.184   9.483
46746SOL    HW142071   6.330  11.125   9.539
46746SOL    HW242072   6.428  11.240   9.545
46747SOL     OW42073  12.267   1.824   4.939
46747SOL    HW142074  12.294   1.873   5.017
46747SOL    HW242075  12.301   1.876   4.866
46748SOL     OW42076  11.497   7.979  10.319
46748SOL    HW142077  11.422   7.948  10.269
46748SOL    HW242078  11.507   7.917  10.391
46749SOL     OW42079   1.394   3.941   1.409
46749SOL    HW142080   1.450   4.016   1.389
46749SOL    HW242081   1.350   3.921   1.327
46750SOL     OW42082  12.639  10.772  11.023
46750SOL    HW142083  12.561  10.719  11.043
46750SOL    HW242084  12.607  10.838  10.961
46751SOL     OW42085   4.316   3.318   7.950
46751SOL    HW142086   4.341   3.410   7.953
46751SOL    HW242087   4.281   3.300   8.037
46752SOL     OW42088   0.436  13.383   3.320
46752SOL    HW142089   0.474  13.452   3.374
46752SOL    HW242090   0.357  13.422   3.283
46753SOL     OW42091   3.090   4.847   9.872
46753SOL    HW142092   3.128   4.935   9.877
46753SOL    HW242093   3.077   4.831   9.779
46754SOL     OW42094  12.964  10.463   7.158
46754SOL    HW142095  12.936  10.473   7.066
46754SOL    HW242096  12.938  10.546   7.199
46755SOL     OW42097  11.331   8.981   1.531
46755SOL    HW142098  11.294   9.068   1.520
46755SOL    HW242099  11.397   8.974   1.462
46756SOL     OW42100   6.688  12.219   3.894
46756SOL    HW142101   6.604  12.252   3.925
46756SOL    HW242102   6.666  12.166   3.817
46757SOL     OW42103  11.005   0.493  10.935
46757SOL    HW142104  11.089   0.497  10.890
46757SOL    HW242105  11.010   0.415  10.990
46758SOL     OW42106   5.152   5.405   2.361
46758SOL    HW142107   5.115   5.445   2.282
46758SOL    HW242108   5.213   5.339   2.328
46759SOL     OW42109  12.000  14.801   4.280
46759SOL    HW142110  11.940  14.748   4.333
46759SOL    HW242111  12.029  14.742   4.211
46760SOL     OW42112   6.286  11.479   4.810
46760SOL    HW142113   6.359  11.419   4.830
46760SOL    HW242114   6.208  11.423   4.815
46761SOL     OW42115   1.264   8.003   2.050
46761SOL    HW142116   1.178   8.014   2.091
46761SOL    HW242117   1.247   8.000   1.956
46762SOL     OW42118  11.759   1.985   0.368
46762SOL    HW142119  11.678   1.959   0.412
46762SOL    HW242120  11.827   1.976   0.435
46763SOL     OW42121   8.782   7.953   9.690
46763SOL    HW142122   8.842   7.967   9.617
46763SOL    HW242123   8.815   8.011   9.760
46764SOL     OW42124   4.869   4.959   2.091
46764SOL    HW142125   4.890   4.939   2.182
46764SOL    HW242126   4.807   4.891   2.065
46765SOL     OW42127  14.561   0.639   8.429
46765SOL    HW142128  14.623   0.673   8.493
46765SOL    HW242129  14.615   0.593   8.365
46766SOL     OW42130   2.833   2.892   0.707
46766SOL    HW142131   2.837   2.806   0.749
46766SOL    HW242132   2.785   2.947   0.769
46767SOL     OW42133   7.262   2.117  13.703
46767SOL    HW142134   7.184   2.078  13.742
46767SOL    HW242135   7.230   2.193  13.654
46768SOL     OW42136   1.444   8.418  13.712
46768SOL    HW142137   1.511   8.477  13.747
46768SOL    HW242138   1.442   8.344  13.773
46769SOL     OW42139  12.971   1.836   1.490
46769SOL    HW142140  12.883   1.855   1.522
46769SOL    HW242141  12.965   1.843   1.395
46770SOL     OW42142   4.801   6.600  11.688
46770SOL    HW142143   4.801   6.586  11.593
46770SOL    HW242144   4.798   6.695  11.699
46771SOL     OW42145  11.134   4.173   5.709
46771SOL    HW142146  11.168   4.086   5.728
46771SOL    HW242147  11.119   4.174   5.615
46772SOL     OW42148  12.543   9.063   2.130
46772SOL    HW142149  12.567   8.984   2.180
46772SOL    HW242150  12.517   9.030   2.045
46773SOL     OW42151   9.132   2.198  11.531
46773SOL    HW142152   9.055   2.206  11.475
46773SOL    HW242153   9.193   2.263  11.497
46774SOL     OW42154   6.401   4.098   1.921
46774SOL    HW142155   6.444   4.022   1.959
46774SOL    HW242156   6.343   4.130   1.990
46775SOL     OW42157   0.057  11.630   9.765
46775SOL    HW142158   0.098  11.545   9.783
46775SOL    HW242159   0.082  11.684   9.840
46776SOL     OW42160   5.839  14.520  11.992
46776SOL    HW142161   5.919  14.554  11.953
46776SOL    HW242162   5.803  14.461  11.925
46777SOL     OW42163   8.529   3.962   8.902
46777SOL    HW142164   8.512   4.054   8.881
46777SOL    HW242165   8.525   3.958   8.997
46778SOL     OW42166   4.359  11.654   1.647
46778SOL    HW142167   4.395  11.658   1.559
46778SOL    HW242168   4.423  11.603   1.696
46779SOL     OW42169   2.100  14.804   8.539
46779SOL    HW142170   2.143  14.810   8.453
46779SOL    HW242171   2.052   0.007   8.547
46780SOL     OW42172   8.709   5.731  14.786
46780SOL    HW142173   8.621   5.762  14.763
46780SOL    HW242174   8.710   5.732   0.003
46781SOL     OW42175  10.345  12.527   7.462
46781SOL    HW142176  10.404  12.588   7.507
46781SOL    HW242177  10.315  12.468   7.531
46782SOL     OW42178   8.536   5.091  13.170
46782SOL    HW142179   8.457   5.070  13.121
46782SOL    HW242180   8.572   5.168  13.126
46783SOL     OW42181   3.533   0.851  14.053
46783SOL    HW142182   3.503   0.937  14.081
46783SOL    HW242183   3.629   0.858  14.053
46784SOL     OW42184   4.718   1.825   5.911
46784SOL    HW142185   4.770   1.855   5.986
46784SOL    HW242186   4.730   1.893   5.845
46785SOL     OW42187  11.765  10.923  13.798
46785SOL    HW142188  11.788  10.891  13.886
46785SOL    HW242189  11.682  10.968  13.810
46786SOL     OW42190   7.455   4.833  13.732
46786SOL    HW142191   7.415   4.867  13.651
46786SOL    HW242192   7.549   4.830  13.713
46787SOL     OW42193  13.628  11.775   8.553
46787SOL    HW142194  13.536  11.754   8.569
46787SOL    HW242195  13.642  11.756   8.461
46788SOL     OW42196  14.484   1.302  10.047
46788SOL    HW142197  14.471   1.355  10.126
46788SOL    HW242198  14.579   1.295  10.037
46789SOL     OW42199   5.921   6.688   8.366
46789SOL    HW142200   5.850   6.642   8.411
46789SOL    HW242201   5.894   6.779   8.363
46790SOL     OW42202   9.915   3.174  11.234
46790SOL    HW142203   9.903   3.091  11.187
46790SOL    HW242204   9.831   3.219  11.226
46791SOL     OW42205  13.404   1.272  12.308
46791SOL    HW142206  13.412   1.335  12.380
46791SOL    HW242207  13.310   1.257  12.300
46792SOL     OW42208   6.932   0.509   8.468
46792SOL    HW142209   6.984   0.451   8.524
46792SOL    HW242210   6.983   0.590   8.465
46793SOL     OW42211   8.935   9.919   7.407
46793SOL    HW142212   8.933   9.824   7.403
46793SOL    HW242213   8.853   9.947   7.366
46794SOL     OW42214   4.901  13.852   8.927
46794SOL    HW142215   4.846  13.796   8.871
46794SOL    HW242216   4.927  13.794   8.999
46795SOL     OW42217   1.194   0.536  10.047
46795SOL    HW142218   1.244   0.609  10.086
46795SOL    HW242219   1.111   0.575  10.020
46796SOL     OW42220  11.372   7.984   7.025
46796SOL    HW142221  11.432   8.020   7.091
46796SOL    HW242222  11.422   7.913   6.983
46797SOL     OW42223   0.092  12.584  13.708
46797SOL    HW142224   0.125  12.502  13.671
46797SOL    HW242225   0.070  12.561  13.799
46798SOL     OW42226  10.536   4.115   4.344
46798SOL    HW142227  10.582   4.046   4.392
46798SOL    HW242228  10.585   4.195   4.363
46799SOL     OW42229  11.796   0.469   2.897
46799SOL    HW142230  11.844   0.514   2.966
46799SOL    HW242231  11.835   0.501   2.816
46800SOL     OW42232   1.667  11.315  10.231
46800SOL    HW142233   1.600  11.276  10.175
46800SOL    HW242234   1.619  11.370  10.293
46801SOL     OW42235   9.430   5.917   3.321
46801SOL    HW142236   9.474   5.856   3.380
46801SOL    HW242237   9.343   5.928   3.358
46802SOL     OW42238   3.697   7.952   6.483
46802SOL    HW142239   3.644   8.029   6.462
46802SOL    HW242240   3.734   7.971   6.569
46803SOL     OW42241   3.223   3.834  11.673
46803SOL    HW142242   3.305   3.820  11.719
46803SOL    HW242243   3.174   3.894  11.729
46804SOL     OW42244   1.805   1.927   7.562
46804SOL    HW142245   1.737   1.961   7.620
46804SOL    HW242246   1.863   2.003   7.545
46805SOL     OW42247  12.278   4.769   8.403
46805SOL    HW142248  12.230   4.847   8.429
46805SOL    HW242249  12.222   4.696   8.428
46806SOL     OW42250   4.959   8.235   5.464
46806SOL    HW142251   4.899   8.287   5.411
46806SOL    HW242252   4.905   8.200   5.535
46807SOL     OW42253   5.438   5.408   5.278
46807SOL    HW142254   5.440   5.328   5.330
46807SOL    HW242255   5.502   5.393   5.208
46808SOL     OW42256  14.731   1.627   1.257
46808SOL    HW142257  14.682   1.654   1.335
46808SOL    HW242258  14.781   1.551   1.287
46809SOL     OW42259   5.025   6.831   9.004
46809SOL    HW142260   5.061   6.896   8.943
46809SOL    HW242261   5.007   6.881   9.083
46810SOL     OW42262  13.430   3.029   9.785
46810SOL    HW142263  13.466   2.994   9.866
46810SOL    HW242264  13.345   2.987   9.775
46811SOL     OW42265   6.675   9.352   5.770
46811SOL    HW142266   6.648   9.265   5.798
46811SOL    HW242267   6.770   9.346   5.760
46812SOL     OW42268   4.538   1.211   7.440
46812SOL    HW142269   4.600   1.164   7.496
46812SOL    HW242270   4.474   1.249   7.501
46813SOL     OW42271   2.913   9.376   4.930
46813SOL    HW142272   2.878   9.335   5.009
46813SOL    HW242273   2.990   9.324   4.908
46814SOL     OW42274   0.023   5.844  11.964
46814SOL    HW142275  14.843   5.769  11.951
46814SOL    HW242276  14.870   5.911  11.904
46815SOL     OW42277  14.664  12.286   4.024
46815SOL    HW142278  14.598  12.250   4.082
46815SOL    HW242279  14.710  12.210   3.989
46816SOL     OW42280  14.800  10.808   2.970
46816SOL    HW142281  14.808  10.804   3.065
46816SOL    HW242282   0.011  10.803   2.938
46817SOL     OW42283   4.877  10.707   8.246
46817SOL    HW142284   4.790  10.697   8.208
46817SOL    HW242285   4.883  10.639   8.312
46818SOL     OW42286   7.103   6.390   4.444
46818SOL    HW142287   7.160   6.466   4.429
46818SOL    HW242288   7.022   6.412   4.398
46819SOL     OW42289   4.468  11.074   2.805
46819SOL    HW142290   4.398  11.016   2.774
46819SOL    HW242291   4.512  11.103   2.725
46820SOL     OW42292   2.052   5.953   8.076
46820SOL    HW142293   1.957   5.969   8.074
46820SOL    HW242294   2.062   5.864   8.042
46821SOL     OW42295   7.579   9.745   0.900
46821SOL    HW142296   7.535   9.826   0.925
46821SOL    HW242297   7.608   9.761   0.810
46822SOL     OW42298   3.554   5.417   1.364
46822SOL    HW142299   3.584   5.418   1.455
46822SOL    HW242300   3.518   5.329   1.352
46823SOL     OW42301   6.302  14.181   4.084
46823SOL    HW142302   6.340  14.217   4.164
46823SOL    HW242303   6.359  14.108   4.061
46824SOL     OW42304   2.877   8.332  11.353
46824SOL    HW142305   2.970   8.346  11.375
46824SOL    HW242306   2.866   8.374  11.268
46825SOL     OW42307   5.536  14.815  11.316
46825SOL    HW142308   5.488   0.018  11.310
46825SOL    HW242309   5.535  14.794  11.409
46826SOL     OW42310   1.674   2.634   8.764
46826SOL    HW142311   1.768   2.622   8.766
46826SOL    HW242312   1.645   2.590   8.685
46827SOL     OW42313  11.732   4.534   1.827
46827SOL    HW142314  11.782   4.453   1.823
46827SOL    HW242315  11.713   4.554   1.735
46828SOL     OW42316   6.019  11.779  10.756
46828SOL    HW142317   5.971  11.709  10.802
46828SOL    HW242318   5.956  11.851  10.750
46829SOL     OW42319   6.809   5.486  11.763
46829SOL    HW142320   6.731   5.466  11.815
46829SOL    HW242321   6.877   5.427  11.796
46830SOL     OW42322   0.792   2.008   7.713
46830SOL    HW142323   0.727   2.077   7.729
46830SOL    HW242324   0.789   1.954   7.792
46831SOL     OW42325   5.415  13.205   3.410
46831SOL    HW142326   5.334  13.155   3.398
46831SOL    HW242327   5.398  13.260   3.486
46832SOL     OW42328  10.441  10.503   5.775
46832SOL    HW142329  10.425  10.515   5.681
46832SOL    HW242330  10.535  10.518   5.786
46833SOL     OW42331   4.077   3.941   0.680
46833SOL    HW142332   4.106   3.973   0.595
46833SOL    HW242333   3.988   3.974   0.689
46834SOL     OW42334   2.691  10.342   5.388
46834SOL    HW142335   2.640  10.417   5.417
46834SOL    HW242336   2.754  10.379   5.326
46835SOL     OW42337   7.717  13.328   6.654
46835SOL    HW142338   7.715  13.254   6.716
46835SOL    HW242339   7.669  13.295   6.577
46836SOL     OW42340  11.397  11.775   5.702
46836SOL    HW142341  11.479  11.727   5.696
46836SOL    HW242342  11.422  11.860   5.738
46837SOL     OW42343   1.034   2.090   3.719
46837SOL    HW142344   0.972   2.155   3.685
46837SOL    HW242345   0.978   2.024   3.760
46838SOL     OW42346  10.412  12.383   8.689
46838SOL    HW142347  10.455  12.298   8.681
46838SOL    HW242348  10.424  12.425   8.604
46839SOL     OW42349  12.558   7.415  14.532
46839SOL    HW142350  12.628   7.407  14.467
46839SOL    HW242351  12.596   7.467  14.603
46840SOL     OW42352   5.323  13.674   4.398
46840SOL    HW142353   5.347  13.589   4.362
46840SOL    HW242354   5.403  13.705   4.442
46841SOL     OW42355  12.423   7.755  10.870
46841SOL    HW142356  12.327   7.756  10.877
46841SOL    HW242357  12.440   7.712  10.786
46842SOL     OW42358   6.349  12.527  12.059
46842SOL    HW142359   6.414  12.593  12.082
46842SOL    HW242360   6.290  12.524  12.134
46843SOL     OW42361   4.693   5.531   4.792
46843SOL    HW142362   4.729   5.599   4.736
46843SOL    HW242363   4.681   5.456   4.734
46844SOL     OW42364   1.611   0.796  10.627
46844SOL    HW142365   1.524   0.823  10.658
46844SOL    HW242366   1.608   0.813  10.533
46845SOL     OW42367  13.740   9.475   1.959
46845SOL    HW142368  13.751   9.414   2.032
46845SOL    HW242369  13.790   9.553   1.985
46846SOL     OW42370   5.576  10.779   6.932
46846SOL    HW142371   5.610  10.765   6.844
46846SOL    HW242372   5.645  10.748   6.990
46847SOL     OW42373   3.481   2.293   9.994
46847SOL    HW142374   3.396   2.252   9.982
46847SOL    HW242375   3.526   2.282   9.910
46848SOL     OW42376   2.664  11.577  13.485
46848SOL    HW142377   2.754  11.602  13.506
46848SOL    HW242378   2.648  11.498  13.537
46849SOL     OW42379   7.740  14.312   7.559
46849SOL    HW142380   7.650  14.293   7.587
46849SOL    HW242381   7.737  14.403   7.530
46850SOL     OW42382   8.879   0.589   0.570
46850SOL    HW142383   8.918   0.505   0.592
46850SOL    HW242384   8.953   0.648   0.556
46851SOL     OW42385   2.546   0.997  13.076
46851SOL    HW142386   2.572   0.957  12.993
46851SOL    HW242387   2.624   0.993  13.131
46852SOL     OW42388   9.922   7.686  10.323
46852SOL    HW142389   9.950   7.687  10.231
46852SOL    HW242390   9.994   7.727  10.370
46853SOL     OW42391   1.432   2.284  13.780
46853SOL    HW142392   1.483   2.365  13.788
46853SOL    HW242393   1.349   2.305  13.823
46854SOL     OW42394  10.248   2.943   9.845
46854SOL    HW142395  10.228   2.855   9.814
46854SOL    HW242396  10.231   3.000   9.770
46855SOL     OW42397   9.451   6.301  10.316
46855SOL    HW142398   9.404   6.296  10.233
46855SOL    HW242399   9.544   6.299  10.291
46856SOL     OW42400  14.456  12.187   4.925
46856SOL    HW142401  14.435  12.199   5.017
46856SOL    HW242402  14.505  12.105   4.922
46857SOL     OW42403   1.097   6.827  11.147
46857SOL    HW142404   1.043   6.777  11.085
46857SOL    HW242405   1.178   6.778  11.153
46858SOL     OW42406  11.461   8.205   7.348
46858SOL    HW142407  11.377   8.181   7.388
46858SOL    HW242408  11.443   8.210   7.255
46859SOL     OW42409   8.592   4.153  11.306
46859SOL    HW142410   8.602   4.130  11.398
46859SOL    HW242411   8.584   4.068  11.261
46860SOL     OW42412  13.702   3.645   1.563
46860SOL    HW142413  13.717   3.739   1.563
46860SOL    HW242414  13.638   3.631   1.632
46861SOL     OW42415   7.978   4.527   0.345
46861SOL    HW142416   8.014   4.538   0.257
46861SOL    HW242417   8.054   4.519   0.402
46862SOL     OW42418   4.894   0.869   4.996
46862SOL    HW142419   4.804   0.836   4.996
46862SOL    HW242420   4.921   0.865   4.904
46863SOL     OW42421   8.585   0.696  14.028
46863SOL    HW142422   8.518   0.639  14.066
46863SOL    HW242423   8.640   0.637  13.976
46864SOL     OW42424   7.996   0.355  14.618
46864SOL    HW142425   7.924   0.333  14.559
46864SOL    HW242426   7.964   0.432  14.666
46865SOL     OW42427   7.870   1.630   7.760
46865SOL    HW142428   7.814   1.656   7.833
46865SOL    HW242429   7.909   1.548   7.787
46866SOL     OW42430   7.099   8.196  12.654
46866SOL    HW142431   7.046   8.188  12.575
46866SOL    HW242432   7.050   8.256  12.710
46867SOL     OW42433   7.903   2.937   0.992
46867SOL    HW142434   7.891   2.898   0.905
46867SOL    HW242435   7.882   2.866   1.053
46868SOL     OW42436  11.295   8.310  12.901
46868SOL    HW142437  11.320   8.224  12.935
46868SOL    HW242438  11.368   8.367  12.925
46869SOL     OW42439   3.315   5.857  13.580
46869SOL    HW142440   3.398   5.884  13.540
46869SOL    HW242441   3.297   5.923  13.646
46870SOL     OW42442   4.471  14.571  13.977
46870SOL    HW142443   4.385  14.535  13.998
46870SOL    HW242444   4.490  14.540  13.889
46871SOL     OW42445   5.593   2.392   4.248
46871SOL    HW142446   5.587   2.421   4.339
46871SOL    HW242447   5.630   2.467   4.201
46872SOL     OW42448   2.971   6.871   7.794
46872SOL    HW142449   2.941   6.887   7.883
46872SOL    HW242450   2.974   6.957   7.754
46873SOL     OW42451   6.380   2.815   4.968
46873SOL    HW142452   6.324   2.745   4.932
46873SOL    HW242453   6.443   2.769   5.023
46874SOL     OW42454   3.551   3.591   1.170
46874SOL    HW142455   3.627   3.541   1.199
46874SOL    HW242456   3.587   3.674   1.139
46875SOL     OW42457   0.740   1.301  14.796
46875SOL    HW142458   0.678   1.345  14.737
46875SOL    HW242459   0.765   1.369  14.859
46876SOL     OW42460   0.229  11.508  11.651
46876SOL    HW142461   0.184  11.498  11.567
46876SOL    HW242462   0.165  11.479  11.716
46877SOL     OW42463   5.038  11.989   5.156
46877SOL    HW142464   5.088  11.970   5.236
46877SOL    HW242465   5.083  12.063   5.116
46878SOL     OW42466  14.656   2.275  11.414
46878SOL    HW142467  14.587   2.280  11.349
46878SOL    HW242468  14.737   2.292  11.366
46879SOL     OW42469   9.502   2.856   2.376
46879SOL    HW142470   9.433   2.898   2.324
46879SOL    HW242471   9.455   2.794   2.433
46880SOL     OW42472   7.387   0.974   2.148
46880SOL    HW142473   7.306   0.941   2.186
46880SOL    HW242474   7.448   0.900   2.152
46881SOL     OW42475   9.685  13.807   8.421
46881SOL    HW142476   9.730  13.730   8.457
46881SOL    HW242477   9.658  13.779   8.333
46882SOL     OW42478   7.967   4.531   1.084
46882SOL    HW142479   7.974   4.436   1.085
46882SOL    HW242480   8.036   4.560   1.025
46883SOL     OW42481   5.988   5.812   7.665
46883SOL    HW142482   6.033   5.786   7.746
46883SOL    HW242483   5.938   5.735   7.639
46884SOL     OW42484   2.755  10.292  13.138
46884SOL    HW142485   2.800  10.264  13.218
46884SOL    HW242486   2.705  10.369  13.164
46885SOL     OW42487   8.734   1.770   5.666
46885SOL    HW142488   8.691   1.704   5.720
46885SOL    HW242489   8.784   1.718   5.602
46886SOL     OW42490   4.782   9.145   0.024
46886SOL    HW142491   4.733   9.177   0.099
46886SOL    HW242492   4.828   9.222  14.869
46887SOL     OW42493  12.081  10.513   7.462
46887SOL    HW142494  12.008  10.451   7.460
46887SOL    HW242495  12.060  10.574   7.533
46888SOL     OW42496   0.900  10.998   7.737
46888SOL    HW142497   0.956  11.027   7.810
46888SOL    HW242498   0.914  11.065   7.669
46889SOL     OW42499   5.596   7.769  12.220
46889SOL    HW142500   5.620   7.688  12.176
46889SOL    HW242501   5.656   7.835  12.186
46890SOL     OW42502   5.378  10.941  12.370
46890SOL    HW142503   5.463  10.927  12.328
46890SOL    HW242504   5.327  10.863  12.350
46891SOL     OW42505   6.556  14.708   4.385
46891SOL    HW142506   6.571  14.793   4.426
46891SOL    HW242507   6.602  14.645   4.440
46892SOL     OW42508   5.248  10.191   8.981
46892SOL    HW142509   5.324  10.239   8.949
46892SOL    HW242510   5.200  10.254   9.035
46893SOL     OW42511   5.430   6.939  12.821
46893SOL    HW142512   5.347   6.983  12.805
46893SOL    HW242513   5.474   6.993  12.886
46894SOL     OW42514   4.155   7.156  10.910
46894SOL    HW142515   4.216   7.212  10.861
46894SOL    HW242516   4.211   7.088  10.948
46895SOL     OW42517   1.571  10.672   9.102
46895SOL    HW142518   1.651  10.635   9.065
46895SOL    HW242519   1.514  10.597   9.117
46896SOL     OW42520  11.251   6.913   8.509
46896SOL    HW142521  11.162   6.947   8.498
46896SOL    HW242522  11.296   6.982   8.558
46897SOL     OW42523  10.894   2.638   0.523
46897SOL    HW142524  10.908   2.731   0.508
46897SOL    HW242525  10.884   2.630   0.618
46898SOL     OW42526  10.617   0.322   9.337
46898SOL    HW142527  10.614   0.266   9.414
46898SOL    HW242528  10.642   0.263   9.266
46899SOL     OW42529  12.167   1.535   4.063
46899SOL    HW142530  12.253   1.512   4.097
46899SOL    HW242531  12.112   1.549   4.140
46900SOL     OW42532   8.208   9.088  10.165
46900SOL    HW142533   8.207   9.181  10.140
46900SOL    HW242534   8.116   9.063  10.165
46901SOL     OW42535   4.020   3.627  14.599
46901SOL    HW142536   3.947   3.689  14.594
46901SOL    HW242537   3.998   3.559  14.536
46902SOL     OW42538   1.620   6.046   0.057
46902SOL    HW142539   1.624   6.140   0.070
46902SOL    HW242540   1.689   6.011   0.114
46903SOL     OW42541   4.710   4.883  11.720
46903SOL    HW142542   4.698   4.829  11.799
46903SOL    HW242543   4.746   4.965  11.753
46904SOL     OW42544  14.593   1.252   5.034
46904SOL    HW142545  14.670   1.290   5.075
46904SOL    HW242546  14.603   1.271   4.941
46905SOL     OW42547   5.996   9.715  12.105
46905SOL    HW142548   5.971   9.702  12.014
46905SOL    HW242549   6.044   9.636  12.129
46906SOL     OW42550   9.882   7.412   1.238
46906SOL    HW142551   9.965   7.376   1.208
46906SOL    HW242552   9.851   7.466   1.165
46907SOL     OW42553   3.090   4.082  12.846
46907SOL    HW142554   3.170   4.081  12.794
46907SOL    HW242555   3.043   4.160  12.816
46908SOL     OW42556   7.746   9.011   8.449
46908SOL    HW142557   7.716   8.923   8.473
46908SOL    HW242558   7.699   9.031   8.368
46909SOL     OW42559   5.127  11.584  14.260
46909SOL    HW142560   5.121  11.568  14.354
46909SOL    HW242561   5.039  11.612  14.235
46910SOL     OW42562   9.954  13.027   4.863
46910SOL    HW142563   9.924  13.027   4.772
46910SOL    HW242564   9.903  13.096   4.906
46911SOL     OW42565   3.269   7.176   5.589
46911SOL    HW142566   3.250   7.167   5.682
46911SOL    HW242567   3.218   7.252   5.561
46912SOL     OW42568   2.490   8.693   2.726
46912SOL    HW142569   2.563   8.635   2.706
46912SOL    HW242570   2.530   8.779   2.736
46913SOL     OW42571   0.956   3.013  10.703
46913SOL    HW142572   0.870   2.975  10.722
46913SOL    HW242573   0.995   3.029  10.789
46914SOL     OW42574   6.457   9.894  11.066
46914SOL    HW142575   6.488   9.978  11.101
46914SOL    HW242576   6.402   9.918  10.992
46915SOL     OW42577   7.103   9.525  10.545
46915SOL    HW142578   7.164   9.453  10.533
46915SOL    HW242579   7.158   9.602  10.555
46916SOL     OW42580   6.608  14.636   2.198
46916SOL    HW142581   6.515  14.647   2.217
46916SOL    HW242582   6.635  14.560   2.249
46917SOL     OW42583   1.732   9.032   0.301
46917SOL    HW142584   1.736   9.124   0.276
46917SOL    HW242585   1.713   8.986   0.219
46918SOL     OW42586   0.217   3.774  13.672
46918SOL    HW142587   0.144   3.773  13.610
46918SOL    HW242588   0.186   3.724  13.747
46919SOL     OW42589   9.443  12.878   6.623
46919SOL    HW142590   9.498  12.932   6.679
46919SOL    HW242591   9.390  12.826   6.683
46920SOL     OW42592   2.126  12.627  10.051
46920SOL    HW142593   2.178  12.587   9.982
46920SOL    HW242594   2.091  12.707  10.011
46921SOL     OW42595   1.823  10.185   8.191
46921SOL    HW142596   1.899  10.234   8.223
46921SOL    HW242597   1.800  10.127   8.263
46922SOL     OW42598   2.546  12.292   5.555
46922SOL    HW142599   2.494  12.233   5.610
46922SOL    HW242600   2.531  12.260   5.466
46923SOL     OW42601  10.223   3.285   0.239
46923SOL    HW142602  10.316   3.275   0.262
46923SOL    HW242603  10.190   3.195   0.234
46924SOL     OW42604   0.413   5.104   9.324
46924SOL    HW142605   0.324   5.124   9.355
46924SOL    HW242606   0.453   5.190   9.311
46925SOL     OW42607   1.280  14.795  10.287
46925SOL    HW142608   1.364  14.817  10.328
46925SOL    HW242609   1.295  14.711  10.244
46926SOL     OW42610   7.219   5.493   7.309
46926SOL    HW142611   7.244   5.560   7.373
46926SOL    HW242612   7.263   5.413   7.339
46927SOL     OW42613   3.103   3.670   7.874
46927SOL    HW142614   3.016   3.654   7.838
46927SOL    HW242615   3.087   3.700   7.964
46928SOL     OW42616   0.159  14.624   1.175
46928SOL    HW142617   0.096  14.585   1.235
46928SOL    HW242618   0.241  14.625   1.223
46929SOL     OW42619   8.050  12.879  10.015
46929SOL    HW142620   8.000  12.879   9.933
46929SOL    HW242621   8.120  12.943  10.000
46930SOL     OW42622  11.892   0.380  13.541
46930SOL    HW142623  11.835   0.313  13.503
46930SOL    HW242624  11.965   0.330  13.578
46931SOL     OW42625  14.337  14.837   3.061
46931SOL    HW142626  14.335  14.874   3.149
46931SOL    HW242627  14.274  14.764   3.065
46932SOL     OW42628   3.714   5.395  14.066
46932SOL    HW142629   3.715   5.319  14.009
46932SOL    HW242630   3.659   5.370  14.140
46933SOL     OW42631   1.136   0.771  13.348
46933SOL    HW142632   1.161   0.683  13.320
46933SOL    HW242633   1.059   0.792  13.295
46934SOL     OW42634   1.155   2.744   7.338
46934SOL    HW142635   1.211   2.765   7.412
46934SOL    HW242636   1.215   2.736   7.264
46935SOL     OW42637   2.994  12.569   4.209
46935SOL    HW142638   3.073  12.614   4.181
46935SOL    HW242639   3.004  12.480   4.176
46936SOL     OW42640  10.491   2.906  14.568
46936SOL    HW142641  10.453   2.955  14.495
46936SOL    HW242642  10.535   2.973  14.620
46937SOL     OW42643  12.514  13.027   3.846
46937SOL    HW142644  12.514  13.034   3.941
46937SOL    HW242645  12.497  12.935   3.828
46938SOL     OW42646  13.788   8.229  10.816
46938SOL    HW142647  13.813   8.243  10.725
46938SOL    HW242648  13.695   8.205  10.812
46939SOL     OW42649   6.075   6.422   1.726
46939SOL    HW142650   6.046   6.508   1.694
46939SOL    HW242651   6.010   6.398   1.791
46940SOL     OW42652  12.476   2.613   2.097
46940SOL    HW142653  12.443   2.529   2.064
46940SOL    HW242654  12.479   2.602   2.192
46941SOL     OW42655  14.548  13.754   5.416
46941SOL    HW142656  14.531  13.766   5.510
46941SOL    HW242657  14.639  13.727   5.411
46942SOL     OW42658   1.384  14.577   7.964
46942SOL    HW142659   1.437  14.645   8.006
46942SOL    HW242660   1.297  14.615   7.958
46943SOL     OW42661   1.425   0.850   7.679
46943SOL    HW142662   1.342   0.855   7.728
46943SOL    HW242663   1.492   0.845   7.746
46944SOL     OW42664  12.535   4.473   2.027
46944SOL    HW142665  12.629   4.466   2.041
46944SOL    HW242666  12.527   4.494   1.934
46945SOL     OW42667   7.044   6.428  13.858
46945SOL    HW142668   7.072   6.496  13.920
46945SOL    HW242669   6.969   6.386  13.901
46946SOL     OW42670   5.032  10.240   4.676
46946SOL    HW142671   5.089  10.315   4.660
46946SOL    HW242672   5.015  10.242   4.770
46947SOL     OW42673   1.260   3.131  11.929
46947SOL    HW142674   1.284   3.222  11.913
46947SOL    HW242675   1.166   3.127  11.911
46948SOL     OW42676   4.959   1.723   7.960
46948SOL    HW142677   4.945   1.655   7.894
46948SOL    HW242678   4.879   1.775   7.958
46949SOL     OW42679   6.051   0.244  13.105
46949SOL    HW142680   6.126   0.184  13.109
46949SOL    HW242681   6.023   0.242  13.013
46950SOL     OW42682  12.856  11.724   3.488
46950SOL    HW142683  12.792  11.677   3.433
46950SOL    HW242684  12.900  11.783   3.428
46951SOL     OW42685   0.472   5.860  14.288
46951SOL    HW142686   0.469   5.785  14.228
46951SOL    HW242687   0.490   5.822  14.373
46952SOL     OW42688   9.751   2.365  13.694
46952SOL    HW142689   9.712   2.319  13.769
46952SOL    HW242690   9.718   2.319  13.617
46953SOL     OW42691   4.272   1.050   0.835
46953SOL    HW142692   4.225   1.038   0.752
46953SOL    HW242693   4.253   1.140   0.861
46954SOL     OW42694   3.057  11.743  13.835
46954SOL    HW142695   3.017  11.698  13.910
46954SOL    HW242696   3.150  11.724  13.843
46955SOL     OW42697   9.148   2.535   2.548
46955SOL    HW142698   9.096   2.456   2.558
46955SOL    HW242699   9.136   2.561   2.456
46956SOL     OW42700   2.048   1.611   2.949
46956SOL    HW142701   1.981   1.644   2.889
46956SOL    HW242702   2.024   1.520   2.964
46957SOL     OW42703   1.400  10.078  13.761
46957SOL    HW142704   1.311  10.065  13.726
46957SOL    HW242705   1.456  10.077  13.683
46958SOL     OW42706   9.020  12.819  11.689
46958SOL    HW142707   8.951  12.752  11.694
46958SOL    HW242708   9.054  12.811  11.600
46959SOL     OW42709   5.758   1.629  10.733
46959SOL    HW142710   5.814   1.559  10.768
46959SOL    HW242711   5.678   1.583  10.705
46960SOL     OW42712  11.044  10.507  11.394
46960SOL    HW142713  10.956  10.502  11.356
46960SOL    HW242714  11.060  10.418  11.427
46961SOL     OW42715   8.460  13.754   3.744
46961SOL    HW142716   8.457  13.658   3.744
46961SOL    HW242717   8.501  13.776   3.828
46962SOL     OW42718   6.386  12.130  10.665
46962SOL    HW142719   6.318  12.186  10.629
46962SOL    HW242720   6.417  12.178  10.742
46963SOL     OW42721   9.583  13.483   0.772
46963SOL    HW142722   9.522  13.556   0.766
46963SOL    HW242723   9.605  13.477   0.864
46964SOL     OW42724   0.740  13.981  11.008
46964SOL    HW142725   0.775  13.892  11.003
46964SOL    HW242726   0.816  14.038  11.000
46965SOL     OW42727   0.806   7.018  12.451
46965SOL    HW142728   0.717   6.996  12.478
46965SOL    HW242729   0.807   7.113  12.443
46966SOL     OW42730  14.083   8.320   4.883
46966SOL    HW142731  14.025   8.390   4.852
46966SOL    HW242732  14.049   8.241   4.841
46967SOL     OW42733  13.270   1.684  11.340
46967SOL    HW142734  13.285   1.767  11.294
46967SOL    HW242735  13.352   1.636  11.332
46968SOL     OW42736  10.901  14.623   7.079
46968SOL    HW142737  10.918  14.696   7.139
46968SOL    HW242738  10.951  14.550   7.116
46969SOL     OW42739   9.135  14.189   3.392
46969SOL    HW142740   9.068  14.232   3.445
46969SOL    HW242741   9.164  14.115   3.446
46970SOL     OW42742  13.427  12.534   2.499
46970SOL    HW142743  13.505  12.531   2.554
46970SOL    HW242744  13.460  12.554   2.411
46971SOL     OW42745   2.755   8.039  10.487
46971SOL    HW142746   2.810   8.092  10.430
46971SOL    HW242747   2.666   8.057  10.459
46972SOL     OW42748   6.798   4.139   9.543
46972SOL    HW142749   6.840   4.158   9.628
46972SOL    HW242750   6.706   4.164   9.556
46973SOL     OW42751   5.016   5.798   6.718
46973SOL    HW142752   5.069   5.836   6.787
46973SOL    HW242753   5.024   5.703   6.731
46974SOL     OW42754   7.983  11.499   3.617
46974SOL    HW142755   7.955  11.415   3.581
46974SOL    HW242756   8.039  11.537   3.549
46975SOL     OW42757   0.965   4.578   9.923
46975SOL    HW142758   1.011   4.535   9.851
46975SOL    HW242759   0.873   4.575   9.898
46976SOL     OW42760  13.772  10.266   5.041
46976SOL    HW142761  13.844  10.272   4.979
46976SOL    HW242762  13.761  10.173   5.056
46977SOL     OW42763   1.121  12.774  14.164
46977SOL    HW142764   1.161  12.860  14.149
46977SOL    HW242765   1.119  12.734  14.077
46978SOL     OW42766   0.903   1.399   9.899
46978SOL    HW142767   0.811   1.422   9.905
46978SOL    HW242768   0.950   1.479   9.923
46979SOL     OW42769  14.057   9.224   8.639
46979SOL    HW142770  13.995   9.269   8.697
46979SOL    HW242771  14.069   9.138   8.678
46980SOL     OW42772  13.285   9.210   8.232
46980SOL    HW142773  13.250   9.121   8.227
46980SOL    HW242774  13.307   9.232   8.142
46981SOL     OW42775   6.515   3.076   5.681
46981SOL    HW142776   6.473   3.151   5.637
46981SOL    HW242777   6.491   3.086   5.773
46982SOL     OW42778   9.038   5.935   9.333
46982SOL    HW142779   9.124   5.913   9.296
46982SOL    HW242780   8.975   5.892   9.275
46983SOL     OW42781   3.652  14.055   2.519
46983SOL    HW142782   3.605  14.028   2.440
46983SOL    HW242783   3.645  13.980   2.577
46984SOL     OW42784   9.307  14.612   6.373
46984SOL    HW142785   9.276  14.548   6.309
46984SOL    HW242786   9.231  14.667   6.392
46985SOL     OW42787   2.538  11.364  14.308
46985SOL    HW142788   2.450  11.335  14.284
46985SOL    HW242789   2.538  11.458  14.289
46986SOL     OW42790   3.360   7.303  10.645
46986SOL    HW142791   3.271   7.269  10.641
46986SOL    HW242792   3.408   7.238  10.697
46987SOL     OW42793   9.124   3.532  14.745
46987SOL    HW142794   9.178   3.559  14.671
46987SOL    HW242795   9.131   3.603  14.808
46988SOL     OW42796  10.228  11.740  12.789
46988SOL    HW142797  10.205  11.832  12.801
46988SOL    HW242798  10.162  11.706  12.729
46989SOL     OW42799   4.649   3.838  12.402
46989SOL    HW142800   4.741   3.822  12.425
46989SOL    HW242801   4.619   3.755  12.366
46990SOL     OW42802   3.796   4.092  10.352
46990SOL    HW142803   3.790   4.005  10.393
46990SOL    HW242804   3.737   4.087  10.277
46991SOL     OW42805   2.624   1.584   3.214
46991SOL    HW142806   2.529   1.591   3.221
46991SOL    HW242807   2.641   1.560   3.123
46992SOL     OW42808   2.666  13.264  13.734
46992SOL    HW142809   2.725  13.226  13.670
46992SOL    HW242810   2.641  13.348  13.696
46993SOL     OW42811   7.749   3.456   3.989
46993SOL    HW142812   7.657   3.429   3.992
46993SOL    HW242813   7.750   3.542   4.033
46994SOL     OW42814  12.894   3.074   3.225
46994SOL    HW142815  12.861   3.047   3.139
46994SOL    HW242816  12.885   3.169   3.226
46995SOL     OW42817  10.650  11.402  13.855
46995SOL    HW142818  10.587  11.393  13.926
46995SOL    HW242819  10.662  11.314  13.821
46996SOL     OW42820   2.289   0.750   6.379
46996SOL    HW142821   2.280   0.721   6.470
46996SOL    HW242822   2.307   0.844   6.385
46997SOL     OW42823  11.373   4.463   9.423
46997SOL    HW142824  11.327   4.543   9.400
46997SOL    HW242825  11.377   4.463   9.519
46998SOL     OW42826  11.784   4.897  13.453
46998SOL    HW142827  11.812   4.941  13.532
46998SOL    HW242828  11.866   4.879  13.405
46999SOL     OW42829  14.147   9.768   7.608
46999SOL    HW142830  14.166   9.675   7.619
46999SOL    HW242831  14.136   9.801   7.697
47000SOL     OW42832   8.281  10.881   7.904
47000SOL    HW142833   8.234  10.842   7.831
47000SOL    HW242834   8.360  10.827   7.915
47001SOL     OW42835   1.720   4.728  13.145
47001SOL    HW142836   1.695   4.689  13.061
47001SOL    HW242837   1.700   4.659  13.209
47002SOL     OW42838   7.684   3.716  14.012
47002SOL    HW142839   7.690   3.784  14.079
47002SOL    HW242840   7.669   3.635  14.061
47003SOL     OW42841   7.972   0.634   5.343
47003SOL    HW142842   7.884   0.669   5.333
47003SOL    HW242843   7.972   0.553   5.292
47004SOL     OW42844   2.264   5.465   0.948
47004SOL    HW142845   2.360   5.456   0.951
47004SOL    HW242846   2.233   5.379   0.920
47005SOL     OW42847  11.990   3.027   2.663
47005SOL    HW142848  11.988   2.938   2.626
47005SOL    HW242849  11.929   3.076   2.609
47006SOL     OW42850   7.381  13.074   6.749
47006SOL    HW142851   7.431  13.123   6.814
47006SOL    HW242852   7.428  13.090   6.666
47007SOL     OW42853   0.648   4.036   3.283
47007SOL    HW142854   0.657   3.975   3.356
47007SOL    HW242855   0.600   4.110   3.320
47008SOL     OW42856  11.940   0.040   6.378
47008SOL    HW142857  11.986   0.081   6.451
47008SOL    HW242858  11.885   0.110   6.343
47009SOL     OW42859  10.370  11.358   5.680
47009SOL    HW142860  10.351  11.265   5.670
47009SOL    HW242861  10.418  11.381   5.601
47010SOL     OW42862   4.080  12.405  13.161
47010SOL    HW142863   4.049  12.338  13.222
47010SOL    HW242864   4.074  12.362  13.075
47011SOL     OW42865  10.417   6.754  13.535
47011SOL    HW142866  10.418   6.754  13.439
47011SOL    HW242867  10.345   6.813  13.558
47012SOL     OW42868  13.417   9.756   3.437
47012SOL    HW142869  13.356   9.785   3.505
47012SOL    HW242870  13.443   9.837   3.392
47013SOL     OW42871   7.925   5.125   1.691
47013SOL    HW142872   7.964   5.049   1.648
47013SOL    HW242873   7.983   5.144   1.764
47014SOL     OW42874  10.433   0.201   6.626
47014SOL    HW142875  10.385   0.229   6.705
47014SOL    HW242876  10.364   0.171   6.566
47015SOL     OW42877   4.066  13.219  12.159
47015SOL    HW142878   4.055  13.313  12.140
47015SOL    HW242879   4.012  13.175  12.093
47016SOL     OW42880   5.425   3.345  13.492
47016SOL    HW142881   5.504   3.308  13.531
47016SOL    HW242882   5.425   3.312  13.402
47017SOL     OW42883  12.971  13.275   8.570
47017SOL    HW142884  13.007  13.309   8.652
47017SOL    HW242885  13.035  13.212   8.539
47018SOL     OW42886   1.759  14.275  13.883
47018SOL    HW142887   1.706  14.307  13.956
47018SOL    HW242888   1.815  14.208  13.922
47019SOL     OW42889   9.053  13.512   0.434
47019SOL    HW142890   9.069  13.592   0.384
47019SOL    HW242891   9.137  13.491   0.474
47020SOL     OW42892   6.782   2.620   7.685
47020SOL    HW142893   6.688   2.635   7.693
47020SOL    HW242894   6.795   2.603   7.592
47021SOL     OW42895   1.551   9.542  10.399
47021SOL    HW142896   1.469   9.588  10.415
47021SOL    HW242897   1.525   9.458  10.360
47022SOL     OW42898  13.908   6.568   1.031
47022SOL    HW142899  13.932   6.659   1.013
47022SOL    HW242900  13.814   6.565   1.013
47023SOL     OW42901   7.306  12.608   7.794
47023SOL    HW142902   7.277  12.632   7.706
47023SOL    HW242903   7.315  12.691   7.840
47024SOL     OW42904   4.517   3.978   8.511
47024SOL    HW142905   4.423   3.959   8.503
47024SOL    HW242906   4.556   3.933   8.436
47025SOL     OW42907   3.328   1.964  14.730
47025SOL    HW142908   3.395   1.897  14.746
47025SOL    HW242909   3.355   2.039  14.782
47026SOL     OW42910   6.620   5.861   9.050
47026SOL    HW142911   6.670   5.781   9.036
47026SOL    HW242912   6.686   5.931   9.049
47027SOL     OW42913  12.245  14.851   5.789
47027SOL    HW142914  12.186  14.799   5.733
47027SOL    HW242915  12.196   0.052   5.807
47028SOL     OW42916   7.178  11.597   4.228
47028SOL    HW142917   7.112  11.550   4.278
47028SOL    HW242918   7.136  11.679   4.203
47029SOL     OW42919   2.190   7.059   4.275
47029SOL    HW142920   2.251   7.057   4.348
47029SOL    HW242921   2.180   6.967   4.250
47030SOL     OW42922   7.679   1.979  13.187
47030SOL    HW142923   7.596   1.991  13.141
47030SOL    HW242924   7.707   1.890  13.164
47031SOL     OW42925  12.914   4.175   2.396
47031SOL    HW142926  12.995   4.146   2.354
47031SOL    HW242927  12.844   4.136   2.343
47032SOL     OW42928  11.111   4.792   1.394
47032SOL    HW142929  11.067   4.875   1.411
47032SOL    HW242930  11.114   4.749   1.479
47033SOL     OW42931   2.106  14.690  14.350
47033SOL    HW142932   2.071  14.772  14.315
47033SOL    HW242933   2.166  14.718  14.419
47034SOL     OW42934   4.349   2.276   8.201
47034SOL    HW142935   4.353   2.292   8.107
47034SOL    HW242936   4.258   2.295   8.225
47035SOL     OW42937   6.904   5.723  12.303
47035SOL    HW142938   6.836   5.667  12.268
47035SOL    HW242939   6.858   5.799  12.338
47036SOL     OW42940   5.560   9.065   4.515
47036SOL    HW142941   5.653   9.047   4.503
47036SOL    HW242942   5.523   8.983   4.548
47037SOL     OW42943   0.658  10.037  14.204
47037SOL    HW142944   0.632   9.953  14.243
47037SOL    HW242945   0.725  10.013  14.140
47038SOL     OW42946   8.213   0.488   2.590
47038SOL    HW142947   8.294   0.502   2.641
47038SOL    HW242948   8.203   0.567   2.539
47039SOL     OW42949  11.800   9.374   3.534
47039SOL    HW142950  11.808   9.298   3.476
47039SOL    HW242951  11.817   9.449   3.478
47040SOL     OW42952   6.418   6.843  13.259
47040SOL    HW142953   6.501   6.797  13.262
47040SOL    HW242954   6.436   6.928  13.300
47041SOL     OW42955   4.109  11.355   1.222
47041SOL    HW142956   4.056  11.276   1.216
47041SOL    HW242957   4.199  11.323   1.226
47042SOL     OW42958   0.272  11.597  10.188
47042SOL    HW142959   0.262  11.647  10.107
47042SOL    HW242960   0.219  11.645  10.252
47043SOL     OW42961   5.059   3.120   3.272
47043SOL    HW142962   5.018   3.174   3.204
47043SOL    HW242963   5.083   3.183   3.341
47044SOL     OW42964  12.455   9.005  10.942
47044SOL    HW142965  12.512   9.082  10.939
47044SOL    HW242966  12.510   8.936  10.978
47045SOL     OW42967  11.930  11.832  12.926
47045SOL    HW142968  12.012  11.861  12.966
47045SOL    HW242969  11.956  11.783  12.848
47046SOL     OW42970  13.227   1.687   5.677
47046SOL    HW142971  13.242   1.743   5.753
47046SOL    HW242972  13.313   1.649   5.657
47047SOL     OW42973  14.820   6.296  11.808
47047SOL    HW142974  14.787   6.238  11.877
47047SOL    HW242975  14.770   6.377  11.820
47048SOL     OW42976   7.459  11.550  13.232
47048SOL    HW142977   7.467  11.459  13.263
47048SOL    HW242978   7.541  11.566  13.186
47049SOL     OW42979   0.046  14.544  10.708
47049SOL    HW142980   0.095  14.463  10.694
47049SOL    HW242981  14.868  14.551  10.632
47050SOL     OW42982  12.277  14.229   0.248
47050SOL    HW142983  12.360  14.188   0.224
47050SOL    HW242984  12.287  14.320   0.219
47051SOL     OW42985  10.158   0.366  11.818
47051SOL    HW142986  10.137   0.353  11.910
47051SOL    HW242987  10.103   0.439  11.790
47052SOL     OW42988  14.259  12.470   8.340
47052SOL    HW142989  14.315  12.434   8.272
47052SOL    HW242990  14.192  12.403   8.354
47053SOL     OW42991   0.263   8.709  11.912
47053SOL    HW142992   0.294   8.775  11.974
47053SOL    HW242993   0.179   8.680  11.948
47054SOL     OW42994   7.832   6.040   3.381
47054SOL    HW142995   7.891   6.112   3.404
47054SOL    HW242996   7.845   5.976   3.452
47055SOL     OW42997  13.383  14.411  11.643
47055SOL    HW142998  13.407  14.424  11.735
47055SOL    HW242999  13.374  14.316  11.634
47056SOL     OW43000   1.255  12.649   0.414
47056SOL    HW143001   1.183  12.663   0.353
47056SOL    HW243002   1.334  12.667   0.362
47057SOL     OW43003   1.073   0.265   3.452
47057SOL    HW143004   1.005   0.208   3.488
47057SOL    HW243005   1.025   0.331   3.403
47058SOL     OW43006  10.591  11.423   4.400
47058SOL    HW143007  10.641  11.342   4.407
47058SOL    HW243008  10.501  11.398   4.422
47059SOL     OW43009   1.629   3.467   0.618
47059SOL    HW143010   1.538   3.439   0.622
47059SOL    HW243011   1.672   3.418   0.688
47060SOL     OW43012   3.136   9.103  14.341
47060SOL    HW143013   3.146   9.077  14.249
47060SOL    HW243014   3.174   9.190  14.345
47061SOL     OW43015   3.694  13.675   5.735
47061SOL    HW143016   3.771  13.623   5.756
47061SOL    HW243017   3.661  13.636   5.654
47062SOL     OW43018  14.682  14.790   9.292
47062SOL    HW143019  14.611  14.788   9.356
47062SOL    HW243020  14.730  14.709   9.306
47063SOL     OW43021   2.007   5.864   5.380
47063SOL    HW143022   1.932   5.923   5.382
47063SOL    HW243023   2.049   5.877   5.465
47064SOL     OW43024   7.107   5.036   3.106
47064SOL    HW143025   7.076   5.087   3.032
47064SOL    HW243026   7.128   4.950   3.070
47065SOL     OW43027  11.021   8.282   5.470
47065SOL    HW143028  11.038   8.190   5.488
47065SOL    HW243029  10.926   8.292   5.485
47066SOL     OW43030   5.659   4.291   0.754
47066SOL    HW143031   5.683   4.214   0.702
47066SOL    HW243032   5.731   4.353   0.741
47067SOL     OW43033   0.645  13.498   3.829
47067SOL    HW143034   0.671  13.414   3.792
47067SOL    HW243035   0.638  13.481   3.923
47068SOL     OW43036  12.447  11.422  14.646
47068SOL    HW143037  12.355  11.397  14.639
47068SOL    HW243038  12.481  11.370  14.719
47069SOL     OW43039   4.855   3.528   0.462
47069SOL    HW143040   4.826   3.604   0.412
47069SOL    HW243041   4.877   3.562   0.549
47070SOL     OW43042  11.590   0.837   4.102
47070SOL    HW143043  11.669   0.844   4.048
47070SOL    HW243044  11.537   0.912   4.076
47071SOL     OW43045   6.817   1.003   2.726
47071SOL    HW143046   6.725   1.029   2.731
47071SOL    HW243047   6.851   1.016   2.815
47072SOL     OW43048  12.288   4.717  12.984
47072SOL    HW143049  12.279   4.735  13.077
47072SOL    HW243050  12.256   4.627  12.974
47073SOL     OW43051  12.123   1.241   5.259
47073SOL    HW143052  12.147   1.193   5.339
47073SOL    HW243053  12.087   1.174   5.201
47074SOL     OW43054   4.836   0.935   3.251
47074SOL    HW143055   4.853   0.877   3.177
47074SOL    HW243056   4.863   0.885   3.328
47075SOL     OW43057   0.584  13.998   6.625
47075SOL    HW143058   0.584  14.084   6.582
47075SOL    HW243059   0.491  13.975   6.631
47076SOL     OW43060  13.828  13.658   4.982
47076SOL    HW143061  13.787  13.602   4.916
47076SOL    HW243062  13.867  13.597   5.044
47077SOL     OW43063   3.720   2.457   6.825
47077SOL    HW143064   3.641   2.505   6.798
47077SOL    HW243065   3.792   2.515   6.803
47078SOL     OW43066   9.785   1.497   1.785
47078SOL    HW143067   9.733   1.417   1.790
47078SOL    HW243068   9.742   1.549   1.718
47079SOL     OW43069   1.978  14.483   2.874
47079SOL    HW143070   1.993  14.576   2.858
47079SOL    HW243071   1.906  14.460   2.815
47080SOL     OW43072  13.942   9.397   1.773
47080SOL    HW143073  13.870   9.430   1.826
47080SOL    HW243074  13.908   9.398   1.683
47081SOL     OW43075   2.035   2.036   7.957
47081SOL    HW143076   2.009   2.112   8.009
47081SOL    HW243077   2.033   1.963   8.019
47082SOL     OW43078   0.923  10.738   7.482
47082SOL    HW143079   0.911  10.814   7.539
47082SOL    HW243080   1.011  10.748   7.447
47083SOL     OW43081  11.266   2.697   3.301
47083SOL    HW143082  11.277   2.732   3.390
47083SOL    HW243083  11.186   2.644   3.307
47084SOL     OW43084  13.198   3.984   7.534
47084SOL    HW143085  13.119   3.997   7.481
47084SOL    HW243086  13.204   3.890   7.547
47085SOL     OW43087   2.482  13.860  10.736
47085SOL    HW143088   2.416  13.837  10.672
47085SOL    HW243089   2.437  13.914  10.800
47086SOL     OW43090  14.347  13.965   2.177
47086SOL    HW143091  14.324  13.880   2.212
47086SOL    HW243092  14.422  13.994   2.230
47087SOL     OW43093   6.157   8.417   1.480
47087SOL    HW143094   6.064   8.435   1.491
47087SOL    HW243095   6.197   8.448   1.561
47088SOL     OW43096  12.185   0.587  10.550
47088SOL    HW143097  12.215   0.620  10.634
47088SOL    HW243098  12.143   0.662  10.508
47089SOL     OW43099  10.017   4.676  13.667
47089SOL    HW143100  10.001   4.583  13.650
47089SOL    HW243101  10.030   4.680  13.762
47090SOL     OW43102   2.658   8.630   2.017
47090SOL    HW143103   2.687   8.571   2.087
47090SOL    HW243104   2.736   8.680   1.994
47091SOL     OW43105   7.993   5.809   9.355
47091SOL    HW143106   8.083   5.826   9.385
47091SOL    HW243107   7.939   5.870   9.407
47092SOL     OW43108  11.704   2.390   9.731
47092SOL    HW143109  11.799   2.386   9.719
47092SOL    HW243110  11.689   2.354   9.818
47093SOL     OW43111  10.229   9.591   7.616
47093SOL    HW143112  10.191   9.627   7.536
47093SOL    HW243113  10.221   9.496   7.605
47094SOL     OW43114  11.454   4.733   2.982
47094SOL    HW143115  11.497   4.816   2.959
47094SOL    HW243116  11.473   4.675   2.909
47095SOL     OW43117  13.400   8.883  14.106
47095SOL    HW143118  13.482   8.912  14.146
47095SOL    HW243119  13.427   8.819  14.040
47096SOL     OW43120   2.963  13.843   7.219
47096SOL    HW143121   2.932  13.781   7.153
47096SOL    HW243122   3.046  13.806   7.250
47097SOL     OW43123   1.924   0.163   2.656
47097SOL    HW143124   1.884   0.249   2.668
47097SOL    HW243125   2.008   0.182   2.613
47098SOL     OW43126   6.816  13.440   9.920
47098SOL    HW143127   6.822  13.498   9.996
47098SOL    HW243128   6.779  13.495   9.851
47099SOL     OW43129   6.042   2.057   6.097
47099SOL    HW143130   6.025   2.128   6.034
47099SOL    HW243131   6.135   2.065   6.117
47100SOL     OW43132  12.757   9.871   8.274
47100SOL    HW143133  12.814   9.946   8.258
47100SOL    HW243134  12.669   9.902   8.253
47101SOL     OW43135   3.135   3.503   4.844
47101SOL    HW143136   3.161   3.438   4.910
47101SOL    HW243137   3.180   3.475   4.764
47102SOL     OW43138   5.044   9.756   0.073
47102SOL    HW143139   5.116   9.704   0.036
47102SOL    HW243140   4.977   9.755   0.005
47103SOL     OW43141  11.042   7.634   5.073
47103SOL    HW143142  11.021   7.675   5.157
47103SOL    HW243143  11.092   7.556   5.096
47104SOL     OW43144  13.251  12.552  14.777
47104SOL    HW143145  13.217  12.639  14.799
47104SOL    HW243146  13.271  12.556  14.683
47105SOL     OW43147  14.491   7.154   0.480
47105SOL    HW143148  14.474   7.232   0.426
47105SOL    HW243149  14.577   7.171   0.519
47106SOL     OW43150  12.111   3.256   5.449
47106SOL    HW143151  12.182   3.234   5.510
47106SOL    HW243152  12.113   3.187   5.383
47107SOL     OW43153  11.340   0.065  10.305
47107SOL    HW143154  11.297  14.873  10.256
47107SOL    HW243155  11.302   0.145  10.269
47108SOL     OW43156   4.538  13.748  10.188
47108SOL    HW143157   4.479  13.707  10.125
47108SOL    HW243158   4.547  13.683  10.258
47109SOL     OW43159   5.204   9.969  14.586
47109SOL    HW143160   5.196  10.029  14.511
47109SOL    HW243161   5.234   9.887  14.547
47110SOL     OW43162  10.173   2.093   8.860
47110SOL    HW143163  10.183   2.106   8.954
47110SOL    HW243164  10.256   2.126   8.823
47111SOL     OW43165   1.724  14.589  13.645
47111SOL    HW143166   1.717  14.663  13.705
47111SOL    HW243167   1.727  14.628  13.558
47112SOL     OW43168   9.915   1.332   2.128
47112SOL    HW143169   9.835   1.361   2.173
47112SOL    HW243170   9.959   1.413   2.103
47113SOL     OW43171   1.172   8.900   5.156
47113SOL    HW143172   1.217   8.821   5.185
47113SOL    HW243173   1.222   8.930   5.080
47114SOL     OW43174   1.666  12.414   7.317
47114SOL    HW143175   1.663  12.502   7.279
47114SOL    HW243176   1.759  12.390   7.316
47115SOL     OW43177   4.356  10.298   4.520
47115SOL    HW143178   4.402  10.337   4.445
47115SOL    HW243179   4.306  10.371   4.558
47116SOL     OW43180   9.591  14.158  10.013
47116SOL    HW143181   9.554  14.235  10.057
47116SOL    HW243182   9.517  14.098  10.004
47117SOL     OW43183   2.117  10.138   6.407
47117SOL    HW143184   2.134  10.081   6.333
47117SOL    HW243185   2.094  10.078   6.479
47118SOL     OW43186  14.295   0.826   4.263
47118SOL    HW143187  14.329   0.847   4.349
47118SOL    HW243188  14.247   0.743   4.275
47119SOL     OW43189   7.755   2.767   9.688
47119SOL    HW143190   7.839   2.746   9.649
47119SOL    HW243191   7.705   2.686   9.685
47120SOL     OW43192   4.032  14.315   5.187
47120SOL    HW143193   4.034  14.332   5.281
47120SOL    HW243194   3.938  14.316   5.165
47121SOL     OW43195   4.847   4.357  14.248
47121SOL    HW143196   4.906   4.416  14.296
47121SOL    HW243197   4.830   4.401  14.165
47122SOL     OW43198   1.566   8.923   1.778
47122SOL    HW143199   1.480   8.955   1.805
47122SOL    HW243200   1.575   8.838   1.822
47123SOL     OW43201   1.548   6.212   0.996
47123SOL    HW143202   1.496   6.263   0.933
47123SOL    HW243203   1.498   6.131   1.008
47124SOL     OW43204  11.303  13.399   2.269
47124SOL    HW143205  11.324  13.397   2.363
47124SOL    HW243206  11.244  13.325   2.257
47125SOL     OW43207   6.715   8.821   4.315
47125SOL    HW143208   6.678   8.845   4.400
47125SOL    HW243209   6.652   8.854   4.251
47126SOL     OW43210  12.749  11.018   8.353
47126SOL    HW143211  12.752  10.924   8.338
47126SOL    HW243212  12.822  11.036   8.412
47127SOL     OW43213  12.588   8.937   3.887
47127SOL    HW143214  12.557   8.882   3.959
47127SOL    HW243215  12.618   8.875   3.821
47128SOL     OW43216   1.637   0.270   2.866
47128SOL    HW143217   1.715   0.285   2.814
47128SOL    HW243218   1.628   0.349   2.919
47129SOL     OW43219  10.305   4.060  12.043
47129SOL    HW143220  10.368   4.091  11.978
47129SOL    HW243221  10.337   4.093  12.126
47130SOL     OW43222   4.826   6.195   4.246
47130SOL    HW143223   4.796   6.108   4.273
47130SOL    HW243224   4.850   6.238   4.328
47131SOL     OW43225  10.648   7.618   8.314
47131SOL    HW143226  10.606   7.617   8.228
47131SOL    HW243227  10.575   7.617   8.377
47132SOL     OW43228   8.118   5.769   4.221
47132SOL    HW143229   8.023   5.773   4.228
47132SOL    HW243230   8.147   5.860   4.232
47133SOL     OW43231  14.042  13.226  14.449
47133SOL    HW143232  14.094  13.227  14.530
47133SOL    HW243233  13.951  13.220  14.480
47134SOL     OW43234  11.659  13.707   0.995
47134SOL    HW143235  11.681  13.693   0.903
47134SOL    HW243236  11.744  13.707   1.040
47135SOL     OW43237   7.749  11.722  10.495
47135SOL    HW143238   7.676  11.668  10.466
47135SOL    HW243239   7.714  11.772  10.569
47136SOL     OW43240   7.599  13.207   2.385
47136SOL    HW143241   7.623  13.281   2.441
47136SOL    HW243242   7.544  13.152   2.440
47137SOL     OW43243   5.881   0.802   9.613
47137SOL    HW143244   5.972   0.817   9.588
47137SOL    HW243245   5.840   0.888   9.608
47138SOL     OW43246   0.407   2.869   7.108
47138SOL    HW143247   0.501   2.888   7.111
47138SOL    HW243248   0.402   2.778   7.078
47139SOL     OW43249   0.450   8.601   3.337
47139SOL    HW143250   0.383   8.533   3.345
47139SOL    HW243251   0.531   8.560   3.367
47140SOL     OW43252  11.417   6.890   4.655
47140SOL    HW143253  11.437   6.967   4.602
47140SOL    HW243254  11.499   6.870   4.700
47141SOL     OW43255  10.094   9.975   0.323
47141SOL    HW143256  10.016  10.030   0.318
47141SOL    HW243257  10.060   9.887   0.341
47142SOL     OW43258  10.847   9.391  14.320
47142SOL    HW143259  10.807   9.374  14.234
47142SOL    HW243260  10.887   9.308  14.345
47143SOL     OW43261  14.862   5.168  11.280
47143SOL    HW143262  14.849   5.080  11.245
47143SOL    HW243263  14.846   5.160  11.374
47144SOL     OW43264   3.086   6.677   1.088
47144SOL    HW143265   3.105   6.754   1.142
47144SOL    HW243266   3.104   6.603   1.147
47145SOL     OW43267   5.758   0.000   1.981
47145SOL    HW143268   5.667  14.867   1.954
47145SOL    HW243269   5.774  14.809   2.045
47146SOL     OW43270   3.439  12.006  13.343
47146SOL    HW143271   3.515  11.963  13.305
47146SOL    HW243272   3.447  12.097  13.315
47147SOL     OW43273  13.659  12.897  12.769
47147SOL    HW143274  13.626  12.980  12.735
47147SOL    HW243275  13.747  12.917  12.802
47148SOL     OW43276  11.122   2.865  10.837
47148SOL    HW143277  11.165   2.921  10.772
47148SOL    HW243278  11.045   2.832  10.792
47149SOL     OW43279  13.027   1.819   8.860
47149SOL    HW143280  13.002   1.747   8.802
47149SOL    HW243281  13.121   1.808   8.874
47150SOL     OW43282   9.706  11.846   9.118
47150SOL    HW143283   9.657  11.836   9.037
47150SOL    HW243284   9.668  11.782   9.178
47151SOL     OW43285   2.017   8.251   7.031
47151SOL    HW143286   2.075   8.236   7.106
47151SOL    HW243287   1.952   8.314   7.064
47152SOL     OW43288   7.813  10.287   8.836
47152SOL    HW143289   7.755  10.227   8.788
47152SOL    HW243290   7.900  10.250   8.824
47153SOL     OW43291   1.109   7.451   6.826
47153SOL    HW143292   1.087   7.441   6.919
47153SOL    HW243293   1.087   7.367   6.787
47154SOL     OW43294  12.667   3.330  14.821
47154SOL    HW143295  12.674   3.372   0.027
47154SOL    HW243296  12.653   3.237  14.841
47155SOL     OW43297   9.805   6.123  12.715
47155SOL    HW143298   9.821   6.157  12.803
47155SOL    HW243299   9.887   6.080  12.691
47156SOL     OW43300  11.318  13.411   2.617
47156SOL    HW143301  11.367  13.367   2.686
47156SOL    HW243302  11.239  13.359   2.607
47157SOL     OW43303   2.267   7.315   9.574
47157SOL    HW143304   2.174   7.318   9.597
47157SOL    HW243305   2.294   7.226   9.596
47158SOL     OW43306   1.425  14.215   9.588
47158SOL    HW143307   1.452  14.143   9.531
47158SOL    HW243308   1.469  14.292   9.552
47159SOL     OW43309  12.644   1.140   0.483
47159SOL    HW143310  12.716   1.076   0.483
47159SOL    HW243311  12.688   1.224   0.499
47160SOL     OW43312  14.401   8.547   4.547
47160SOL    HW143313  14.342   8.475   4.570
47160SOL    HW243314  14.475   8.503   4.505
47161SOL     OW43315   0.920   7.789  10.807
47161SOL    HW143316   0.894   7.838  10.885
47161SOL    HW243317   1.009   7.760  10.826
47162SOL     OW43318   4.153   3.116   9.695
47162SOL    HW143319   4.213   3.056   9.650
47162SOL    HW243320   4.148   3.081   9.784
47163SOL     OW43321   8.192  14.447   2.720
47163SOL    HW143322   8.217  14.483   2.635
47163SOL    HW243323   8.098  14.433   2.713
47164SOL     OW43324   6.749   7.854   3.183
47164SOL    HW143325   6.806   7.792   3.137
47164SOL    HW243326   6.732   7.812   3.267
47165SOL     OW43327  13.018   8.273   5.523
47165SOL    HW143328  13.113   8.286   5.518
47165SOL    HW243329  12.988   8.282   5.432
47166SOL     OW43330   5.623  10.487  14.584
47166SOL    HW143331   5.555  10.550  14.609
47166SOL    HW243332   5.603  10.465  14.493
47167SOL     OW43333   2.152   9.167   6.894
47167SOL    HW143334   2.229   9.123   6.858
47167SOL    HW243335   2.157   9.256   6.860
47168SOL     OW43336  14.250  10.594  10.341
47168SOL    HW143337  14.171  10.546  10.364
47168SOL    HW243338  14.289  10.617  10.425
47169SOL     OW43339   6.685   1.839  10.344
47169SOL    HW143340   6.742   1.894  10.289
47169SOL    HW243341   6.641   1.781  10.282
47170SOL     OW43342   2.229   5.100   2.802
47170SOL    HW143343   2.296   5.033   2.812
47170SOL    HW243344   2.225   5.117   2.708
47171SOL     OW43345   0.097   6.254   6.622
47171SOL    HW143346   0.026   6.196   6.648
47171SOL    HW243347   0.131   6.288   6.705
47172SOL     OW43348  10.365   8.250   9.488
47172SOL    HW143349  10.292   8.252   9.427
47172SOL    HW243350  10.388   8.342   9.501
47173SOL     OW43351   5.480  12.719  13.387
47173SOL    HW143352   5.563  12.672  13.397
47173SOL    HW243353   5.431  12.669  13.322
47174SOL     OW43354   7.380   7.332   5.450
47174SOL    HW143355   7.398   7.275   5.525
47174SOL    HW243356   7.466   7.364   5.423
47175SOL     OW43357   9.149   1.531  11.392
47175SOL    HW143358   9.152   1.615  11.347
47175SOL    HW243359   9.129   1.554  11.483
47176SOL     OW43360  11.516  11.552  12.326
47176SOL    HW143361  11.473  11.486  12.381
47176SOL    HW243362  11.444  11.601  12.286
47177SOL     OW43363  10.204  10.650   7.121
47177SOL    HW143364  10.241  10.571   7.161
47177SOL    HW243365  10.240  10.722   7.172
47178SOL     OW43366  13.581  11.401  11.159
47178SOL    HW143367  13.549  11.477  11.111
47178SOL    HW243368  13.504  11.366  11.204
47179SOL     OW43369   9.434   0.306   5.207
47179SOL    HW143370   9.458   0.398   5.196
47179SOL    HW243371   9.447   0.268   5.120
47180SOL     OW43372   6.906   2.642  11.876
47180SOL    HW143373   6.921   2.563  11.825
47180SOL    HW243374   6.834   2.618  11.935
47181SOL     OW43375   7.864   0.126  10.372
47181SOL    HW143376   7.774   0.150  10.351
47181SOL    HW243377   7.884   0.176  10.451
47182SOL     OW43378   7.337  12.381   0.613
47182SOL    HW143379   7.245  12.369   0.638
47182SOL    HW243380   7.332  12.427   0.529
47183SOL     OW43381   5.180   3.350   2.298
47183SOL    HW143382   5.097   3.394   2.315
47183SOL    HW243383   5.221   3.341   2.384
47184SOL     OW43384   6.869   3.038  11.746
47184SOL    HW143385   6.866   3.051  11.651
47184SOL    HW243386   6.780   3.010  11.769
47185SOL     OW43387  13.371  13.235  14.049
47185SOL    HW143388  13.364  13.310  13.990
47185SOL    HW243389  13.422  13.171  14.000
47186SOL     OW43390   8.502  10.197   2.430
47186SOL    HW143391   8.573  10.161   2.376
47186SOL    HW243392   8.434  10.130   2.429
47187SOL     OW43393   5.972   5.239  13.649
47187SOL    HW143394   6.026   5.184  13.705
47187SOL    HW243395   5.894   5.257  13.701
47188SOL     OW43396  13.883  14.680  13.450
47188SOL    HW143397  13.976  14.691  13.469
47188SOL    HW243398  13.879  14.604  13.392
47189SOL     OW43399   6.255   7.072   2.839
47189SOL    HW143400   6.348   7.093   2.824
47189SOL    HW243401   6.221   7.053   2.751
47190SOL     OW43402   1.184  14.176   0.704
47190SOL    HW143403   1.102  14.146   0.743
47190SOL    HW243404   1.176  14.272   0.703
47191SOL     OW43405  13.948   1.045   0.029
47191SOL    HW143406  13.917   1.102   0.100
47191SOL    HW243407  13.870   1.025  14.857
47192SOL     OW43408   8.169   2.678   5.130
47192SOL    HW143409   8.122   2.761   5.146
47192SOL    HW243410   8.258   2.705   5.109
47193SOL     OW43411  11.502   6.020  13.810
47193SOL    HW143412  11.433   6.034  13.745
47193SOL    HW243413  11.456   6.020  13.894
47194SOL     OW43414  13.739   6.528   2.369
47194SOL    HW143415  13.694   6.611   2.351
47194SOL    HW243416  13.737   6.521   2.464
47195SOL     OW43417   2.947  12.583   5.125
47195SOL    HW143418   2.902  12.562   5.044
47195SOL    HW243419   3.032  12.616   5.098
47196SOL     OW43420   0.626   5.007   1.498
47196SOL    HW143421   0.695   5.052   1.546
47196SOL    HW243422   0.599   5.068   1.430
47197SOL     OW43423  11.866   0.883  13.348
47197SOL    HW143424  11.828   0.923  13.426
47197SOL    HW243425  11.877   0.791  13.371
47198SOL     OW43426  11.611   0.450   5.891
47198SOL    HW143427  11.563   0.533   5.881
47198SOL    HW243428  11.544   0.382   5.882
47199SOL     OW43429   8.766   2.017   5.762
47199SOL    HW143430   8.742   1.937   5.716
47199SOL    HW243431   8.686   2.043   5.808
47200SOL     OW43432  14.370   8.122  12.828
47200SOL    HW143433  14.433   8.182  12.790
47200SOL    HW243434  14.423   8.058  12.876
47201SOL     OW43435  13.260   4.837   0.153
47201SOL    HW143436  13.278   4.890   0.075
47201SOL    HW243437  13.171   4.862   0.178
47202SOL     OW43438   6.943   5.797  12.702
47202SOL    HW143439   6.982   5.753  12.777
47202SOL    HW243440   7.007   5.863  12.676
47203SOL     OW43441   0.506   3.302   5.946
47203SOL    HW143442   0.455   3.348   6.013
47203SOL    HW243443   0.441   3.278   5.880
47204SOL     OW43444   2.183   3.834   3.026
47204SOL    HW143445   2.263   3.828   3.078
47204SOL    HW243446   2.143   3.916   3.054
47205SOL     OW43447   0.956  11.545   9.877
47205SOL    HW143448   0.959  11.452   9.853
47205SOL    HW243449   1.045  11.566   9.902
47206SOL     OW43450   4.902   4.024   0.024
47206SOL    HW143451   4.952   3.990   0.098
47206SOL    HW243452   4.896   3.950  14.842
47207SOL     OW43453  13.743  14.848   3.466
47207SOL    HW143454  13.675   0.033   3.450
47207SOL    HW243455  13.742  14.834   3.561
47208SOL     OW43456   9.599  10.875   8.484
47208SOL    HW143457   9.633  10.797   8.442
47208SOL    HW243458   9.668  10.901   8.546
47209SOL     OW43459  14.644   6.464   5.688
47209SOL    HW143460  14.612   6.385   5.645
47209SOL    HW243461  14.732   6.477   5.652
47210SOL     OW43462  10.298   3.460   3.942
47210SOL    HW143463  10.231   3.513   3.897
47210SOL    HW243464  10.294   3.375   3.899
47211SOL     OW43465   8.168  14.728   7.763
47211SOL    HW143466   8.159  14.722   7.668
47211SOL    HW243467   8.182  14.638   7.792
47212SOL     OW43468   1.098  10.023   2.929
47212SOL    HW143469   1.078   9.935   2.895
47212SOL    HW243470   1.084  10.081   2.855
47213SOL     OW43471   5.836   3.414   0.265
47213SOL    HW143472   5.902   3.444   0.203
47213SOL    HW243473   5.887   3.371   0.334
47214SOL     OW43474  13.946   2.344   7.907
47214SOL    HW143475  13.999   2.267   7.887
47214SOL    HW243476  13.932   2.386   7.822
47215SOL     OW43477   5.848   0.148   7.059
47215SOL    HW143478   5.834   0.203   6.982
47215SOL    HW243479   5.808   0.198   7.131
47216SOL     OW43480   4.804   4.768   0.161
47216SOL    HW143481   4.832   4.777   0.070
47216SOL    HW243482   4.817   4.675   0.181
47217SOL     OW43483   4.310   1.898  11.502
47217SOL    HW143484   4.359   1.896  11.421
47217SOL    HW243485   4.359   1.843  11.562
47218SOL     OW43486   9.936  10.035   4.394
47218SOL    HW143487   9.882  10.064   4.320
47218SOL    HW243488   9.916  10.096   4.464
47219SOL     OW43489  14.833   7.566   4.749
47219SOL    HW143490   0.011   7.565   4.825
47219SOL    HW243491  14.769   7.634   4.767
47220SOL     OW43492   5.830   6.259  13.062
47220SOL    HW143493   5.915   6.258  13.017
47220SOL    HW243494   5.840   6.194  13.132
47221SOL     OW43495   9.091  10.874   4.235
47221SOL    HW143496   9.121  10.784   4.227
47221SOL    HW243497   8.998  10.867   4.259
47222SOL     OW43498  10.436   2.862  11.463
47222SOL    HW143499  10.490   2.784  11.449
47222SOL    HW243500  10.499   2.934  11.461
47223SOL     OW43501  11.497   2.599   9.088
47223SOL    HW143502  11.531   2.524   9.135
47223SOL    HW243503  11.575   2.645   9.057
47224SOL     OW43504   8.755   9.767   6.281
47224SOL    HW143505   8.662   9.786   6.293
47224SOL    HW243506   8.784   9.735   6.367
47225SOL     OW43507  14.514   1.296  11.237
47225SOL    HW143508  14.424   1.324  11.220
47225SOL    HW243509  14.551   1.365  11.293
47226SOL     OW43510   1.943   6.243   0.958
47226SOL    HW143511   1.881   6.188   0.910
47226SOL    HW243512   2.027   6.198   0.950
47227SOL     OW43513  12.603  10.702   1.969
47227SOL    HW143514  12.531  10.643   1.949
47227SOL    HW243515  12.648  10.660   2.043
47228SOL     OW43516   5.277  13.410   4.641
47228SOL    HW143517   5.343  13.375   4.581
47228SOL    HW243518   5.194  13.391   4.598
47229SOL     OW43519   9.566  11.417   7.483
47229SOL    HW143520   9.499  11.368   7.435
47229SOL    HW243521   9.641  11.421   7.423
47230SOL     OW43522   3.895  12.425   0.075
47230SOL    HW143523   3.825  12.370   0.040
47230SOL    HW243524   3.956  12.435   0.002
47231SOL     OW43525   6.216   4.771   8.968
47231SOL    HW143526   6.223   4.676   8.972
47231SOL    HW243527   6.126   4.788   8.942
47232SOL     OW43528   9.350  12.466  13.940
47232SOL    HW143529   9.268  12.453  13.988
47232SOL    HW243530   9.371  12.558  13.955
47233SOL     OW43531   3.768   9.065   5.564
47233SOL    HW143532   3.815   9.066   5.480
47233SOL    HW243533   3.718   9.147   5.564
47234SOL     OW43534  11.302  13.024   8.102
47234SOL    HW143535  11.256  13.082   8.163
47234SOL    HW243536  11.268  12.937   8.121
47235SOL     OW43537  12.293   3.625   5.784
47235SOL    HW143538  12.338   3.657   5.705
47235SOL    HW243539  12.297   3.530   5.776
47236SOL     OW43540   1.096   0.900  12.307
47236SOL    HW143541   1.034   0.961  12.348
47236SOL    HW243542   1.041   0.833  12.267
47237SOL     OW43543  11.654   2.682   5.043
47237SOL    HW143544  11.594   2.643   4.979
47237SOL    HW243545  11.612   2.764   5.068
47238SOL     OW43546   5.579   4.023   3.455
47238SOL    HW143547   5.548   4.108   3.487
47238SOL    HW243548   5.626   3.985   3.529
47239SOL     OW43549   3.192   5.790  13.950
47239SOL    HW143550   3.166   5.794  13.858
47239SOL    HW243551   3.284   5.765  13.948
47240SOL     OW43552   3.827   6.268  10.162
47240SOL    HW143553   3.900   6.206  10.166
47240SOL    HW243554   3.824   6.306  10.250
47241SOL     OW43555  14.222   3.844  13.499
47241SOL    HW143556  14.184   3.917  13.451
47241SOL    HW243557  14.311   3.873  13.520
47242SOL     OW43558   6.154   5.191  11.415
47242SOL    HW143559   6.159   5.267  11.357
47242SOL    HW243560   6.103   5.127  11.366
47243SOL     OW43561   9.575   5.049   1.426
47243SOL    HW143562   9.528   5.039   1.509
47243SOL    HW243563   9.507   5.041   1.359
47244SOL     OW43564   5.456  10.702  14.435
47244SOL    HW143565   5.485  10.760  14.505
47244SOL    HW243566   5.461  10.756  14.356
47245SOL     OW43567  11.911   5.393   8.650
47245SOL    HW143568  11.845   5.462   8.657
47245SOL    HW243569  11.950   5.406   8.563
47246SOL     OW43570   0.346   8.808   8.168
47246SOL    HW143571   0.398   8.884   8.194
47246SOL    HW243572   0.335   8.758   8.249
47247SOL     OW43573  14.723   0.537   2.451
47247SOL    HW143574  14.654   0.479   2.418
47247SOL    HW243575  14.677   0.617   2.476
47248SOL     OW43576   3.086   6.926   2.081
47248SOL    HW143577   3.048   6.863   2.142
47248SOL    HW243578   3.180   6.909   2.084
47249SOL     OW43579   9.148  10.005  10.240
47249SOL    HW143580   9.156   9.920  10.284
47249SOL    HW243581   9.090   9.988  10.166
47250SOL     OW43582   3.276   9.908   5.575
47250SOL    HW143583   3.285   9.870   5.487
47250SOL    HW243584   3.357   9.957   5.588
47251SOL     OW43585   4.419   3.022   3.189
47251SOL    HW143586   4.412   2.941   3.238
47251SOL    HW243587   4.472   3.000   3.112
47252SOL     OW43588   6.487  14.185   3.611
47252SOL    HW143589   6.557  14.167   3.547
47252SOL    HW243590   6.521  14.257   3.663
47253SOL     OW43591   7.744   3.301   0.183
47253SOL    HW143592   7.714   3.217   0.220
47253SOL    HW243593   7.763   3.355   0.260
47254SOL     OW43594   6.744  10.497  12.551
47254SOL    HW143595   6.779  10.443  12.481
47254SOL    HW243596   6.805  10.570  12.559
47255SOL     OW43597   2.482   8.654   7.638
47255SOL    HW143598   2.457   8.659   7.730
47255SOL    HW243599   2.402   8.672   7.589
47256SOL     OW43600   6.033   4.477   4.015
47256SOL    HW143601   6.073   4.532   3.947
47256SOL    HW243602   5.970   4.534   4.057
47257SOL     OW43603  11.330  10.190   3.125
47257SOL    HW143604  11.243  10.196   3.084
47257SOL    HW243605  11.360  10.281   3.131
47258SOL     OW43606   6.862   6.807   9.046
47258SOL    HW143607   6.798   6.737   9.032
47258SOL    HW243608   6.824   6.884   9.004
47259SOL     OW43609   7.480   0.757  11.332
47259SOL    HW143610   7.547   0.727  11.392
47259SOL    HW243611   7.427   0.679  11.314
47260SOL     OW43612   3.708  12.250   1.857
47260SOL    HW143613   3.648  12.320   1.884
47260SOL    HW243614   3.772  12.293   1.801
47261SOL     OW43615  13.072   7.714   5.959
47261SOL    HW143616  13.078   7.621   5.982
47261SOL    HW243617  13.022   7.753   6.031
47262SOL     OW43618   2.184  11.236   4.369
47262SOL    HW143619   2.104  11.236   4.317
47262SOL    HW243620   2.251  11.203   4.309
47263SOL     OW43621  12.370  13.303   0.142
47263SOL    HW143622  12.454  13.257   0.136
47263SOL    HW243623  12.308  13.246   0.096
47264SOL     OW43624  10.098   2.354   5.809
47264SOL    HW143625  10.121   2.419   5.743
47264SOL    HW243626  10.171   2.358   5.872
47265SOL     OW43627  14.663  10.234   7.650
47265SOL    HW143628  14.704  10.318   7.670
47265SOL    HW243629  14.582  10.234   7.701
47266SOL     OW43630  13.349   5.853   4.533
47266SOL    HW143631  13.263   5.881   4.564
47266SOL    HW243632  13.331   5.799   4.456
47267SOL     OW43633   5.990  12.072   8.665
47267SOL    HW143634   5.932  12.131   8.617
47267SOL    HW243635   6.011  12.003   8.602
47268SOL     OW43636  11.086  13.983   0.730
47268SOL    HW143637  11.004  13.971   0.778
47268SOL    HW243638  11.154  13.974   0.797
47269SOL     OW43639   3.499   9.629  10.857
47269SOL    HW143640   3.452   9.627  10.940
47269SOL    HW243641   3.456   9.698  10.806
47270SOL     OW43642  12.598   4.167  13.879
47270SOL    HW143643  12.644   4.159  13.963
47270SOL    HW243644  12.646   4.235  13.832
47271SOL     OW43645  12.666   8.186   0.488
47271SOL    HW143646  12.749   8.203   0.532
47271SOL    HW243647  12.691   8.164   0.398
47272SOL     OW43648   2.041   5.170   1.773
47272SOL    HW143649   2.024   5.186   1.865
47272SOL    HW243650   2.136   5.172   1.765
47273SOL     OW43651   4.938   4.663   9.098
47273SOL    HW143652   4.952   4.713   9.179
47273SOL    HW243653   4.991   4.709   9.033
47274SOL     OW43654  10.361   3.210   4.983
47274SOL    HW143655  10.391   3.122   5.006
47274SOL    HW243656  10.394   3.266   5.053
47275SOL     OW43657  14.225   9.072   9.621
47275SOL    HW143658  14.307   9.035   9.587
47275SOL    HW243659  14.229   9.165   9.596
47276SOL     OW43660   0.216   3.455  12.117
47276SOL    HW143661   0.241   3.388  12.180
47276SOL    HW243662   0.136   3.422  12.076
47277SOL     OW43663   5.003   4.853   4.046
47277SOL    HW143664   4.966   4.766   4.030
47277SOL    HW243665   5.080   4.857   3.990
47278SOL     OW43666   0.487  11.335  14.419
47278SOL    HW143667   0.526  11.396  14.481
47278SOL    HW243668   0.395  11.363  14.413
47279SOL     OW43669   7.503   2.992   1.380
47279SOL    HW143670   7.596   3.011   1.368
47279SOL    HW243671   7.469   2.978   1.292
47280SOL     OW43672  14.006   7.248   1.364
47280SOL    HW143673  14.094   7.210   1.368
47280SOL    HW243674  13.965   7.206   1.288
47281SOL     OW43675  10.186   5.729   3.314
47281SOL    HW143676  10.275   5.749   3.343
47281SOL    HW243677  10.194   5.645   3.269
47282SOL     OW43678   0.613   2.669   0.284
47282SOL    HW143679   0.627   2.762   0.272
47282SOL    HW243680   0.668   2.627   0.218
47283SOL     OW43681   0.220   8.552   5.820
47283SOL    HW143682   0.253   8.557   5.910
47283SOL    HW243683   0.248   8.466   5.789
47284SOL     OW43684  13.492  14.510   9.184
47284SOL    HW143685  13.480  14.532   9.276
47284SOL    HW243686  13.532  14.423   9.185
47285SOL     OW43687  12.610  12.620   2.172
47285SOL    HW143688  12.517  12.611   2.192
47285SOL    HW243689  12.611  12.656   2.083
47286SOL     OW43690   1.506  10.639   1.385
47286SOL    HW143691   1.501  10.719   1.332
47286SOL    HW243692   1.538  10.572   1.324
47287SOL     OW43693   5.770  12.208   3.366
47287SOL    HW143694   5.817  12.125   3.364
47287SOL    HW243695   5.685  12.189   3.327
47288SOL     OW43696   6.090   3.529  10.878
47288SOL    HW143697   6.001   3.513  10.847
47288SOL    HW243698   6.098   3.624  10.880
47289SOL     OW43699   9.176   4.630  13.326
47289SOL    HW143700   9.090   4.671  13.313
47289SOL    HW243701   9.236   4.703  13.339
47290SOL     OW43702   3.238   5.764   7.570
47290SOL    HW143703   3.290   5.839   7.543
47290SOL    HW243704   3.200   5.731   7.489
47291SOL     OW43705  10.240   5.189   8.008
47291SOL    HW143706  10.203   5.101   8.000
47291SOL    HW243707  10.327   5.181   7.969
47292SOL     OW43708   9.404  11.485   8.460
47292SOL    HW143709   9.468  11.536   8.409
47292SOL    HW243710   9.451  11.407   8.487
47293SOL     OW43711  11.038  11.193   6.840
47293SOL    HW143712  11.023  11.105   6.807
47293SOL    HW243713  11.086  11.237   6.770
47294SOL     OW43714   8.036   4.989  12.486
47294SOL    HW143715   7.953   4.978  12.439
47294SOL    HW243716   8.103   4.963  12.423
47295SOL     OW43717  12.823   0.484   9.149
47295SOL    HW143718  12.803   0.476   9.056
47295SOL    HW243719  12.738   0.503   9.190
47296SOL     OW43720  13.734   6.771   4.108
47296SOL    HW143721  13.683   6.816   4.041
47296SOL    HW243722  13.732   6.679   4.082
47297SOL     OW43723  11.881   7.339   5.981
47297SOL    HW143724  11.950   7.275   5.992
47297SOL    HW243725  11.866   7.343   5.886
47298SOL     OW43726   9.998  14.526   2.177
47298SOL    HW143727  10.061  14.520   2.249
47298SOL    HW243728   9.966  14.437   2.166
47299SOL     OW43729  11.022   8.146   4.639
47299SOL    HW143730  11.079   8.211   4.679
47299SOL    HW243731  11.072   8.111   4.565
47300SOL     OW43732  12.319   2.546   6.879
47300SOL    HW143733  12.287   2.549   6.969
47300SOL    HW243734  12.258   2.487   6.834
47301SOL     OW43735  12.792  12.522   8.887
47301SOL    HW143736  12.788  12.456   8.819
47301SOL    HW243737  12.829  12.477   8.963
47302SOL     OW43738   1.042   7.615   3.604
47302SOL    HW143739   1.062   7.620   3.698
47302SOL    HW243740   0.995   7.532   3.594
47303SOL     OW43741   3.359   3.315  11.597
47303SOL    HW143742   3.413   3.276  11.667
47303SOL    HW243743   3.367   3.254  11.524
47304SOL     OW43744  11.519  11.387   5.171
47304SOL    HW143745  11.548  11.440   5.245
47304SOL    HW243746  11.565  11.304   5.181
47305SOL     OW43747  11.404   5.152   7.088
47305SOL    HW143748  11.422   5.119   7.176
47305SOL    HW243749  11.317   5.119   7.067
47306SOL     OW43750  10.314   5.438  14.361
47306SOL    HW143751  10.310   5.401  14.273
47306SOL    HW243752  10.404   5.471  14.369
47307SOL     OW43753  11.630   4.916   2.852
47307SOL    HW143754  11.617   4.850   2.784
47307SOL    HW243755  11.725   4.915   2.868
47308SOL     OW43756  10.462   8.074   4.601
47308SOL    HW143757  10.507   7.996   4.632
47308SOL    HW243758  10.497   8.145   4.655
47309SOL     OW43759   2.788  13.834   0.585
47309SOL    HW143760   2.705  13.865   0.621
47309SOL    HW243761   2.805  13.752   0.631
47310SOL     OW43762  11.815  12.134   0.304
47310SOL    HW143763  11.773  12.220   0.312
47310SOL    HW243764  11.873  12.129   0.381
47311SOL     OW43765   3.444   5.208   2.957
47311SOL    HW143766   3.435   5.113   2.966
47311SOL    HW243767   3.508   5.233   3.023
47312SOL     OW43768   3.495  10.075   2.652
47312SOL    HW143769   3.408  10.057   2.686
47312SOL    HW243770   3.543   9.993   2.663
47313SOL     OW43771   7.312   8.216   0.504
47313SOL    HW143772   7.295   8.307   0.526
47313SOL    HW243773   7.263   8.166   0.569
47314SOL     OW43774   3.718   8.881   6.471
47314SOL    HW143775   3.767   8.822   6.413
47314SOL    HW243776   3.763   8.965   6.462
47315SOL     OW43777   0.694   5.940   8.510
47315SOL    HW143778   0.617   5.889   8.535
47315SOL    HW243779   0.684   6.023   8.557
47316SOL     OW43780   9.780  10.294   8.314
47316SOL    HW143781   9.691  10.282   8.279
47316SOL    HW243782   9.792  10.221   8.375
47317SOL     OW43783   1.358   3.106   9.001
47317SOL    HW143784   1.451   3.121   8.987
47317SOL    HW243785   1.315   3.175   8.950
47318SOL     OW43786   5.017   0.412   8.298
47318SOL    HW143787   5.058   0.325   8.305
47318SOL    HW243788   4.987   0.431   8.387
47319SOL     OW43789  12.290  13.671   4.911
47319SOL    HW143790  12.286  13.575   4.915
47319SOL    HW243791  12.330  13.697   4.994
47320SOL     OW43792   2.046   6.930  13.400
47320SOL    HW143793   2.054   6.945  13.494
47320SOL    HW243794   2.004   6.845  13.392
47321SOL     OW43795  11.521   8.188   8.993
47321SOL    HW143796  11.515   8.167   9.086
47321SOL    HW243797  11.536   8.282   8.991
47322SOL     OW43798   8.937   8.946   5.082
47322SOL    HW143799   9.025   8.931   5.048
47322SOL    HW243800   8.879   8.918   5.012
47323SOL     OW43801   2.666   0.378   0.512
47323SOL    HW143802   2.638   0.342   0.428
47323SOL    HW243803   2.747   0.332   0.533
47324SOL     OW43804   5.806  11.025   6.132
47324SOL    HW143805   5.744  10.984   6.192
47324SOL    HW243806   5.753  11.049   6.056
47325SOL     OW43807   1.212  13.039   6.453
47325SOL    HW143808   1.215  12.970   6.520
47325SOL    HW243809   1.179  12.995   6.375
47326SOL     OW43810   9.579   6.883   9.600
47326SOL    HW143811   9.626   6.936   9.536
47326SOL    HW243812   9.647   6.837   9.649
47327SOL     OW43813  13.063   5.274   6.401
47327SOL    HW143814  13.155   5.261   6.426
47327SOL    HW243815  13.058   5.238   6.312
47328SOL     OW43816   3.654   0.943   8.320
47328SOL    HW143817   3.628   0.916   8.408
47328SOL    HW243818   3.672   0.861   8.274
47329SOL     OW43819  14.681   6.528  14.628
47329SOL    HW143820  14.678   6.546  14.534
47329SOL    HW243821  14.728   6.445  14.636
47330SOL     OW43822   7.210  10.755   7.401
47330SOL    HW143823   7.235  10.776   7.311
47330SOL    HW243824   7.171  10.668   7.396
47331SOL     OW43825  12.936   9.006   0.104
47331SOL    HW143826  13.024   9.008   0.065
47331SOL    HW243827  12.932   9.085   0.156
47332SOL     OW43828   0.627   1.800   4.410
47332SOL    HW143829   0.653   1.875   4.463
47332SOL    HW243830   0.556   1.759   4.459
47333SOL     OW43831   0.683  13.242   2.034
47333SOL    HW143832   0.697  13.285   1.950
47333SOL    HW243833   0.674  13.149   2.012
47334SOL     OW43834   0.540   0.873  14.658
47334SOL    HW143835   0.462   0.847  14.707
47334SOL    HW243836   0.613   0.845  14.712
47335SOL     OW43837  13.113  11.767  12.808
47335SOL    HW143838  13.021  11.784  12.827
47335SOL    HW243839  13.153  11.753  12.893
47336SOL     OW43840   2.488  11.733  13.645
47336SOL    HW143841   2.541  11.671  13.595
47336SOL    HW243842   2.457  11.796  13.579
47337SOL     OW43843   6.830   6.613   9.829
47337SOL    HW143844   6.821   6.519   9.818
47337SOL    HW243845   6.788   6.632   9.913
47338SOL     OW43846   7.968   4.986   9.637
47338SOL    HW143847   7.878   4.966   9.664
47338SOL    HW243848   7.992   5.062   9.690
47339SOL     OW43849  14.845  11.546   5.531
47339SOL    HW143850   0.053  11.508   5.524
47339SOL    HW243851  14.806  11.505   5.608
47340SOL     OW43852  14.555  11.026   6.399
47340SOL    HW143853  14.464  11.015   6.369
47340SOL    HW243854  14.577  10.940   6.436
47341SOL     OW43855   6.024  13.555   6.889
47341SOL    HW143856   6.054  13.468   6.861
47341SOL    HW243857   6.104  13.607   6.893
47342SOL     OW43858   2.845  12.935   8.484
47342SOL    HW143859   2.871  12.982   8.405
47342SOL    HW243860   2.790  12.863   8.451
47343SOL     OW43861   2.872  12.300   9.214
47343SOL    HW143862   2.855  12.298   9.120
47343SOL    HW243863   2.845  12.387   9.242
47344SOL     OW43864  12.519   0.113  13.760
47344SOL    HW143865  12.589   0.061  13.799
47344SOL    HW243866  12.449   0.112  13.824
47345SOL     OW43867  11.440  10.766  10.364
47345SOL    HW143868  11.518  10.809  10.398
47345SOL    HW243869  11.402  10.722  10.441
47346SOL     OW43870   3.078   6.231  14.718
47346SOL    HW143871   3.140   6.229  14.646
47346SOL    HW243872   2.995   6.257  14.677
47347SOL     OW43873  11.256  11.093  13.557
47347SOL    HW143874  11.303  11.158  13.505
47347SOL    HW243875  11.219  11.032  13.492
47348SOL     OW43876   4.136   6.142   6.168
47348SOL    HW143877   4.181   6.093   6.100
47348SOL    HW243878   4.204   6.195   6.209
47349SOL     OW43879   3.555   9.597   8.534
47349SOL    HW143880   3.639   9.619   8.493
47349SOL    HW243881   3.508   9.548   8.466
47350SOL     OW43882  10.039   5.496   7.158
47350SOL    HW143883  10.134   5.500   7.159
47350SOL    HW243884  10.013   5.547   7.082
47351SOL     OW43885  12.930   8.016   5.516
47351SOL    HW143886  12.963   7.986   5.601
47351SOL    HW243887  12.927   8.111   5.524
47352SOL     OW43888  13.436   5.490   6.471
47352SOL    HW143889  13.398   5.519   6.554
47352SOL    HW243890  13.528   5.472   6.492
47353SOL     OW43891   6.499   7.447   3.392
47353SOL    HW143892   6.428   7.511   3.403
47353SOL    HW243893   6.458   7.373   3.348
47354SOL     OW43894  13.264  11.939  12.472
47354SOL    HW143895  13.170  11.939  12.488
47354SOL    HW243896  13.280  12.021  12.424
47355SOL     OW43897   4.380   0.998   5.233
47355SOL    HW143898   4.368   1.067   5.168
47355SOL    HW243899   4.342   1.033   5.313
47356SOL     OW43900   7.212   2.176  14.020
47356SOL    HW143901   7.220   2.116  13.946
47356SOL    HW243902   7.118   2.182  14.037
47357SOL     OW43903   3.605   3.200  10.532
47357SOL    HW143904   3.590   3.160  10.446
47357SOL    HW243905   3.549   3.278  10.531
47358SOL     OW43906  11.443  10.138   4.960
47358SOL    HW143907  11.437  10.051   4.920
47358SOL    HW243908  11.534  10.164   4.946
47359SOL     OW43909   6.140  11.832   7.213
47359SOL    HW143910   6.054  11.822   7.254
47359SOL    HW243911   6.185  11.896   7.268
47360SOL     OW43912   5.766  14.623   7.913
47360SOL    HW143913   5.740  14.531   7.906
47360SOL    HW243914   5.849  14.620   7.961
47361SOL     OW43915  14.289   5.152   0.886
47361SOL    HW143916  14.280   5.235   0.838
47361SOL    HW243917  14.204   5.109   0.875
47362SOL     OW43918  11.760   1.029   1.568
47362SOL    HW143919  11.674   1.069   1.583
47362SOL    HW243920  11.793   1.073   1.489
47363SOL     OW43921   4.436  12.342   9.523
47363SOL    HW143922   4.465  12.396   9.596
47363SOL    HW243923   4.509  12.283   9.506
47364SOL     OW43924   5.357  14.591   2.504
47364SOL    HW143925   5.396  14.525   2.448
47364SOL    HW243926   5.283  14.546   2.546
47365SOL     OW43927   0.324   6.359   4.095
47365SOL    HW143928   0.391   6.404   4.147
47365SOL    HW243929   0.311   6.275   4.139
47366SOL     OW43930  12.702   4.030  10.112
47366SOL    HW143931  12.768   4.024  10.042
47366SOL    HW243932  12.697   4.123  10.132
47367SOL     OW43933   7.910   2.614   9.480
47367SOL    HW143934   7.989   2.653   9.516
47367SOL    HW243935   7.940   2.536   9.434
47368SOL     OW43936  12.050  11.597  10.919
47368SOL    HW143937  11.981  11.604  10.984
47368SOL    HW243938  12.116  11.541  10.959
47369SOL     OW43939  11.972  11.762   0.804
47369SOL    HW143940  12.023  11.758   0.722
47369SOL    HW243941  11.971  11.671   0.835
47370SOL     OW43942  11.896  12.398  10.229
47370SOL    HW143943  11.926  12.471  10.175
47370SOL    HW243944  11.854  12.338  10.168
47371SOL     OW43945   8.767   8.478   4.568
47371SOL    HW143946   8.671   8.474   4.572
47371SOL    HW243947   8.791   8.548   4.628
47372SOL     OW43948   1.217   8.499  11.827
47372SOL    HW143949   1.125   8.503  11.801
47372SOL    HW243950   1.226   8.414  11.870
47373SOL     OW43951  13.761  12.200  12.919
47373SOL    HW143952  13.765  12.109  12.891
47373SOL    HW243953  13.745  12.195  13.014
47374SOL     OW43954   2.990   6.439   7.984
47374SOL    HW143955   3.059   6.503   7.967
47374SOL    HW243956   2.975   6.445   8.078
47375SOL     OW43957   0.890  12.113  11.563
47375SOL    HW143958   0.932  12.127  11.647
47375SOL    HW243959   0.843  12.195  11.545
47376SOL     OW43960   3.685   8.240  14.040
47376SOL    HW143961   3.696   8.158  14.089
47376SOL    HW243962   3.701   8.308  14.105
47377SOL     OW43963  12.778  12.660   2.557
47377SOL    HW143964  12.845  12.634   2.494
47377SOL    HW243965  12.821  12.652   2.642
47378SOL     OW43966   9.173   5.050   9.569
47378SOL    HW143967   9.142   5.116   9.507
47378SOL    HW243968   9.218   4.986   9.514
47379SOL     OW43969  10.316   2.646  12.604
47379SOL    HW143970  10.290   2.564  12.561
47379SOL    HW243971  10.241   2.704  12.590
47380SOL     OW43972   0.685   8.309  10.267
47380SOL    HW143973   0.682   8.257  10.187
47380SOL    HW243974   0.738   8.257  10.327
47381SOL     OW43975   7.362   8.361   1.678
47381SOL    HW143976   7.340   8.349   1.586
47381SOL    HW243977   7.387   8.273   1.708
47382SOL     OW43978  14.583   2.197  10.033
47382SOL    HW143979  14.628   2.136   9.975
47382SOL    HW243980  14.524   2.142  10.085
47383SOL     OW43981   2.204  11.381   8.558
47383SOL    HW143982   2.192  11.341   8.472
47383SOL    HW243983   2.121  11.427   8.574
47384SOL     OW43984  12.135   8.854   4.435
47384SOL    HW143985  12.115   8.897   4.352
47384SOL    HW243986  12.116   8.761   4.420
47385SOL     OW43987   2.802   8.067   7.070
47385SOL    HW143988   2.892   8.068   7.101
47385SOL    HW243989   2.782   7.974   7.058
47386SOL     OW43990   6.654   2.583  10.521
47386SOL    HW143991   6.595   2.622  10.586
47386SOL    HW243992   6.739   2.579  10.566
47387SOL     OW43993   1.387   4.023   7.788
47387SOL    HW143994   1.299   4.057   7.802
47387SOL    HW243995   1.419   4.000   7.875
47388SOL     OW43996   4.591   8.113   1.376
47388SOL    HW143997   4.576   8.047   1.444
47388SOL    HW243998   4.678   8.093   1.342
47389SOL     OW43999   1.430  11.594   2.046
47389SOL    HW144000   1.473  11.671   2.084
47389SOL    HW244001   1.349  11.586   2.095
47390SOL     OW44002   0.935   4.657  12.311
47390SOL    HW144003   0.902   4.619  12.230
47390SOL    HW244004   0.987   4.587  12.351
47391SOL     OW44005   3.466   2.147   3.692
47391SOL    HW144006   3.396   2.211   3.678
47391SOL    HW244007   3.521   2.155   3.614
47392SOL     OW44008  10.956   1.091  13.984
47392SOL    HW144009  10.867   1.076  13.950
47392SOL    HW244010  11.008   1.110  13.906
47393SOL     OW44011  11.296   6.542  12.132
47393SOL    HW144012  11.248   6.461  12.148
47393SOL    HW244013  11.235   6.611  12.157
47394SOL     OW44014  11.182   0.317  12.945
47394SOL    HW144015  11.151   0.284  13.030
47394SOL    HW244016  11.275   0.297  12.944
47395SOL     OW44017   8.097   7.429   4.340
47395SOL    HW144018   8.172   7.384   4.300
47395SOL    HW244019   8.106   7.520   4.311
47396SOL     OW44020   9.687   0.913   4.736
47396SOL    HW144021   9.759   0.975   4.742
47396SOL    HW244022   9.627   0.952   4.673
47397SOL     OW44023   5.622   4.228   9.072
47397SOL    HW144024   5.558   4.292   9.101
47397SOL    HW244025   5.697   4.241   9.130
47398SOL     OW44026  10.370   7.982  13.930
47398SOL    HW144027  10.445   7.948  13.978
47398SOL    HW244028  10.404   8.005  13.844
47399SOL     OW44029   0.406   2.224  13.935
47399SOL    HW144030   0.420   2.282  14.009
47399SOL    HW244031   0.399   2.136  13.974
47400SOL     OW44032  13.702   2.690   8.527
47400SOL    HW144033  13.669   2.741   8.602
47400SOL    HW244034  13.766   2.747   8.486
47401SOL     OW44035  10.307   9.614   3.065
47401SOL    HW144036  10.354   9.659   3.135
47401SOL    HW244037  10.250   9.552   3.110
47402SOL     OW44038  12.406   4.857   9.611
47402SOL    HW144039  12.446   4.910   9.542
47402SOL    HW244040  12.478   4.804   9.645
47403SOL     OW44041   2.045   5.217   8.904
47403SOL    HW144042   2.136   5.232   8.931
47403SOL    HW244043   2.008   5.166   8.976
47404SOL     OW44044   4.995   8.483   1.454
47404SOL    HW144045   4.956   8.419   1.395
47404SOL    HW244046   4.932   8.555   1.458
47405SOL     OW44047   4.003   1.907  13.270
47405SOL    HW144048   3.910   1.901  13.247
47405SOL    HW244049   4.025   1.999  13.254
47406SOL     OW44050   8.305   8.791  10.524
47406SOL    HW144051   8.267   8.705  10.542
47406SOL    HW244052   8.281   8.810  10.434
47407SOL     OW44053  12.877   2.334  12.525
47407SOL    HW144054  12.959   2.376  12.554
47407SOL    HW244055  12.849   2.284  12.601
47408SOL     OW44056   5.673   7.712  11.085
47408SOL    HW144057   5.713   7.699  11.171
47408SOL    HW244058   5.735   7.767  11.037
47409SOL     OW44059   1.408   6.030  14.252
47409SOL    HW144060   1.367   6.098  14.305
47409SOL    HW244061   1.375   5.948  14.290
47410SOL     OW44062   3.376   5.694   4.940
47410SOL    HW144063   3.337   5.623   4.890
47410SOL    HW244064   3.358   5.773   4.888
47411SOL     OW44065   8.882   0.806   8.694
47411SOL    HW144066   8.939   0.734   8.722
47411SOL    HW244067   8.819   0.816   8.765
47412SOL     OW44068  14.725  12.643  13.624
47412SOL    HW144069  14.814  12.609  13.635
47412SOL    HW244070  14.711  12.698  13.700
47413SOL     OW44071   6.151  11.806   2.476
47413SOL    HW144072   6.191  11.719   2.470
47413SOL    HW244073   6.072  11.799   2.422
47414SOL     OW44074   6.178  12.611   6.652
47414SOL    HW144075   6.171  12.518   6.633
47414SOL    HW244076   6.105  12.629   6.711
47415SOL     OW44077   2.205  14.310  13.119
47415SOL    HW144078   2.175  14.241  13.178
47415SOL    HW244079   2.300  14.299  13.116
47416SOL     OW44080   6.592   6.537   0.132
47416SOL    HW144081   6.543   6.580   0.062
47416SOL    HW244082   6.682   6.535   0.101
47417SOL     OW44083   1.677  14.746   5.084
47417SOL    HW144084   1.771  14.763   5.076
47417SOL    HW244085   1.668  14.652   5.069
47418SOL     OW44086   9.522   9.161   0.745
47418SOL    HW144087   9.453   9.182   0.683
47418SOL    HW244088   9.500   9.212   0.823
47419SOL     OW44089   0.513   5.213   7.880
47419SOL    HW144090   0.458   5.169   7.945
47419SOL    HW244091   0.513   5.305   7.907
47420SOL     OW44092   1.268  11.554   3.958
47420SOL    HW144093   1.316  11.621   4.007
47420SOL    HW244094   1.317  11.473   3.973
47421SOL     OW44095   8.792  14.876   1.841
47421SOL    HW144096   8.720   0.039   1.889
47421SOL    HW244097   8.864  14.874   1.904
47422SOL     OW44098   5.256   4.083   3.834
47422SOL    HW144099   5.239   4.050   3.746
47422SOL    HW244100   5.301   4.166   3.820
47423SOL     OW44101  12.490  12.303   1.704
47423SOL    HW144102  12.426  12.362   1.743
47423SOL    HW244103  12.468  12.302   1.611
47424SOL     OW44104   7.014   9.694   7.133
47424SOL    HW144105   6.942   9.735   7.181
47424SOL    HW244106   7.005   9.600   7.153
47425SOL     OW44107   5.868   6.572  12.903
47425SOL    HW144108   5.794   6.628  12.924
47425SOL    HW244109   5.908   6.613  12.826
47426SOL     OW44110   9.875   9.264  11.723
47426SOL    HW144111   9.814   9.286  11.652
47426SOL    HW244112   9.898   9.173  11.707
47427SOL     OW44113  12.737  14.376   3.289
47427SOL    HW144114  12.652  14.331   3.287
47427SOL    HW244115  12.727  14.443   3.356
47428SOL     OW44116   4.253  12.296   1.357
47428SOL    HW144117   4.250  12.201   1.368
47428SOL    HW244118   4.167  12.326   1.384
47429SOL     OW44119  12.316   3.752   1.428
47429SOL    HW144120  12.274   3.821   1.480
47429SOL    HW244121  12.293   3.774   1.337
47430SOL     OW44122   6.427   4.694   5.290
47430SOL    HW144123   6.354   4.733   5.338
47430SOL    HW244124   6.489   4.668   5.358
47431SOL     OW44125   1.797   5.916  12.656
47431SOL    HW144126   1.888   5.909  12.685
47431SOL    HW244127   1.790   5.854  12.583
47432SOL     OW44128   6.939   0.702   8.711
47432SOL    HW144129   7.027   0.736   8.724
47432SOL    HW244130   6.922   0.714   8.617
47433SOL     OW44131  12.718   4.134   5.883
47433SOL    HW144132  12.718   4.182   5.966
47433SOL    HW244133  12.783   4.180   5.829
47434SOL     OW44134   3.938   2.309   3.242
47434SOL    HW144135   3.923   2.225   3.199
47434SOL    HW244136   3.855   2.327   3.287
47435SOL     OW44137  13.336   4.184   0.686
47435SOL    HW144138  13.300   4.198   0.599
47435SOL    HW244139  13.266   4.139   0.734
47436SOL     OW44140  10.842  11.186  11.605
47436SOL    HW144141  10.875  11.233  11.681
47436SOL    HW244142  10.904  11.205  11.535
47437SOL     OW44143   5.649  11.892   4.561
47437SOL    HW144144   5.625  11.805   4.531
47437SOL    HW244145   5.620  11.950   4.490
47438SOL     OW44146   0.521   9.063   6.587
47438SOL    HW144147   0.516   9.086   6.494
47438SOL    HW244148   0.609   9.087   6.614
47439SOL     OW44149   4.784  10.374  13.153
47439SOL    HW144150   4.727  10.324  13.212
47439SOL    HW244151   4.861  10.394  13.206
47440SOL     OW44152   1.137   0.181   2.426
47440SOL    HW144153   1.066   0.183   2.490
47440SOL    HW244154   1.117   0.253   2.366
47441SOL     OW44155   8.806   2.684   1.758
47441SOL    HW144156   8.717   2.653   1.774
47441SOL    HW244157   8.838   2.630   1.686
47442SOL     OW44158   7.795   6.536   5.954
47442SOL    HW144159   7.710   6.559   5.993
47442SOL    HW244160   7.843   6.493   6.025
47443SOL     OW44161   4.549   5.045   7.166
47443SOL    HW144162   4.599   5.090   7.099
47443SOL    HW244163   4.608   5.040   7.242
47444SOL     OW44164   1.524  11.651   7.364
47444SOL    HW144165   1.483  11.567   7.383
47444SOL    HW244166   1.479  11.713   7.421
47445SOL     OW44167  14.077   2.983  11.054
47445SOL    HW144168  14.158   3.033  11.056
47445SOL    HW244169  14.074   2.946  10.965
47446SOL     OW44170  11.215   9.049  14.195
47446SOL    HW144171  11.123   9.054  14.170
47446SOL    HW244172  11.262   9.032  14.112
47447SOL     OW44173   4.847   2.993   6.371
47447SOL    HW144174   4.862   3.087   6.381
47447SOL    HW244175   4.820   2.982   6.280
47448SOL     OW44176   1.967   6.089   6.353
47448SOL    HW144177   2.026   6.032   6.403
47448SOL    HW244178   1.960   6.168   6.408
47449SOL     OW44179   2.522  12.725   0.806
47449SOL    HW144180   2.470  12.645   0.811
47449SOL    HW244181   2.477  12.779   0.740
47450SOL     OW44182   0.850  12.328  12.998
47450SOL    HW144183   0.769  12.296  13.039
47450SOL    HW244184   0.877  12.402  13.053
47451SOL     OW44185   7.537   3.271  10.585
47451SOL    HW144186   7.606   3.228  10.535
47451SOL    HW244187   7.467   3.286  10.521
47452SOL     OW44188   0.047   7.722  13.100
47452SOL    HW144189   0.069   7.666  13.174
47452SOL    HW244190  14.853   7.776  13.131
47453SOL     OW44191   1.849   3.503   1.387
47453SOL    HW144192   1.784   3.434   1.375
47453SOL    HW244193   1.833   3.564   1.316
47454SOL     OW44194  11.362  11.529   6.457
47454SOL    HW144195  11.434  11.549   6.517
47454SOL    HW244196  11.345  11.612   6.412
47455SOL     OW44197   9.440   8.807   0.236
47455SOL    HW144198   9.350   8.827   0.212
47455SOL    HW244199   9.440   8.805   0.332
47456SOL     OW44200   8.898  12.477   3.135
47456SOL    HW144201   8.984  12.492   3.097
47456SOL    HW244202   8.836  12.511   3.070
47457SOL     OW44203   1.173   0.412   6.120
47457SOL    HW144204   1.214   0.483   6.168
47457SOL    HW244205   1.100   0.453   6.073
47458SOL     OW44206   9.335   2.376  10.367
47458SOL    HW144207   9.421   2.416  10.381
47458SOL    HW244208   9.345   2.326  10.286
47459SOL     OW44209   5.399  11.224  10.490
47459SOL    HW144210   5.459  11.151  10.478
47459SOL    HW244211   5.414  11.280  10.414
47460SOL     OW44212   0.048   6.939   6.814
47460SOL    HW144213   0.047   6.966   6.906
47460SOL    HW244214   0.102   6.859   6.814
47461SOL     OW44215  14.142  14.035   8.028
47461SOL    HW144216  14.100  14.121   8.017
47461SOL    HW244217  14.126  13.990   7.945
47462SOL     OW44218  14.111   4.162  11.778
47462SOL    HW144219  14.162   4.140  11.700
47462SOL    HW244220  14.024   4.184  11.745
47463SOL     OW44221  10.113   9.068   7.016
47463SOL    HW144222  10.206   9.058   7.038
47463SOL    HW244223  10.077   9.121   7.087
47464SOL     OW44224   5.652   0.967   6.031
47464SOL    HW144225   5.687   0.934   5.948
47464SOL    HW244226   5.588   1.033   6.005
47465SOL     OW44227  12.744   8.837  13.938
47465SOL    HW144228  12.721   8.857  13.847
47465SOL    HW244229  12.837   8.856  13.945
47466SOL     OW44230  10.354   0.757   7.250
47466SOL    HW144231  10.366   0.726   7.339
47466SOL    HW244232  10.283   0.703   7.214
47467SOL     OW44233   4.498   5.072  10.197
47467SOL    HW144234   4.454   5.126  10.132
47467SOL    HW244235   4.457   4.986  10.188
47468SOL     OW44236   7.185   0.105   8.892
47468SOL    HW144237   7.095   0.130   8.915
47468SOL    HW244238   7.202   0.149   8.809
47469SOL     OW44239   6.091  14.376   0.058
47469SOL    HW144240   6.144  14.297   0.052
47469SOL    HW244241   6.155  14.447   0.062
47470SOL     OW44242   3.708  13.798   0.336
47470SOL    HW144243   3.681  13.708   0.315
47470SOL    HW244244   3.750  13.791   0.421
47471SOL     OW44245   6.556  11.125   3.404
47471SOL    HW144246   6.475  11.140   3.354
47471SOL    HW244247   6.587  11.039   3.375
47472SOL     OW44248   2.600  13.647  12.510
47472SOL    HW144249   2.621  13.572  12.454
47472SOL    HW244250   2.674  13.707  12.498
47473SOL     OW44251  11.322  14.274  10.356
47473SOL    HW144252  11.255  14.209  10.336
47473SOL    HW244253  11.405  14.226  10.350
47474SOL     OW44254   1.367   7.299   6.794
47474SOL    HW144255   1.358   7.254   6.710
47474SOL    HW244256   1.325   7.384   6.780
47475SOL     OW44257  10.275   2.758   7.651
47475SOL    HW144258  10.307   2.817   7.719
47475SOL    HW244259  10.318   2.674   7.669
47476SOL     OW44260  11.340  10.278  13.856
47476SOL    HW144261  11.356  10.355  13.912
47476SOL    HW244262  11.346  10.204  13.916
47477SOL     OW44263   0.619   6.178   7.525
47477SOL    HW144264   0.649   6.268   7.508
47477SOL    HW244265   0.700   6.129   7.543
47478SOL     OW44266   3.832   5.094  10.726
47478SOL    HW144267   3.798   5.097  10.637
47478SOL    HW244268   3.843   5.186  10.751
47479SOL     OW44269   0.404   7.326   6.114
47479SOL    HW144270   0.388   7.232   6.125
47479SOL    HW244271   0.319   7.367   6.133
47480SOL     OW44272   4.110   9.698  14.062
47480SOL    HW144273   4.171   9.771  14.051
47480SOL    HW244274   4.023   9.739  14.063
47481SOL     OW44275   0.071   5.620   4.243
47481SOL    HW144276  14.864   5.596   4.277
47481SOL    HW244277   0.075   5.715   4.252
47482SOL     OW44278   3.995   0.282   0.073
47482SOL    HW144279   3.964   0.192   0.060
47482SOL    HW244280   4.068   0.291   0.012
47483SOL     OW44281  12.516   9.327   8.309
47483SOL    HW144282  12.435   9.365   8.342
47483SOL    HW244283  12.572   9.403   8.290
47484SOL     OW44284   3.837   8.287   6.237
47484SOL    HW144285   3.837   8.245   6.324
47484SOL    HW244286   3.926   8.322   6.229
47485SOL     OW44287   2.545  14.738  12.726
47485SOL    HW144288   2.591  14.683  12.789
47485SOL    HW244289   2.577  14.709  12.641
47486SOL     OW44290   7.525   5.842   9.624
47486SOL    HW144291   7.432   5.862   9.621
47486SOL    HW244292   7.552   5.867   9.713
47487SOL     OW44293   7.639  11.300  14.796
47487SOL    HW144294   7.725  11.338  14.817
47487SOL    HW244295   7.601  11.361  14.732
47488SOL     OW44296   8.265  10.181   6.327
47488SOL    HW144297   8.211  10.107   6.354
47488SOL    HW244298   8.206  10.236   6.275
47489SOL     OW44299  11.080  12.157   6.468
47489SOL    HW144300  11.093  12.167   6.563
47489SOL    HW244301  11.163  12.121   6.437
47490SOL     OW44302  10.073   4.052   8.419
47490SOL    HW144303  10.028   4.011   8.493
47490SOL    HW244304  10.009   4.052   8.348
47491SOL     OW44305   5.314   5.048   1.946
47491SOL    HW144306   5.263   5.053   1.865
47491SOL    HW244307   5.292   4.963   1.984
47492SOL     OW44308   9.812  11.517  13.336
47492SOL    HW144309   9.855  11.581  13.393
47492SOL    HW244310   9.883  11.483  13.281
47493SOL     OW44311  12.503  10.518  10.064
47493SOL    HW144312  12.548  10.577  10.003
47493SOL    HW244313  12.413  10.514  10.032
47494SOL     OW44314  11.588   4.234   2.409
47494SOL    HW144315  11.556   4.321   2.430
47494SOL    HW244316  11.673   4.249   2.367
47495SOL     OW44317  14.473   8.762   3.157
47495SOL    HW144318  14.486   8.856   3.164
47495SOL    HW244319  14.408   8.742   3.225
47496SOL     OW44320  11.288   7.960   1.132
47496SOL    HW144321  11.296   7.866   1.147
47496SOL    HW244322  11.194   7.976   1.132
47497SOL     OW44323   9.545  11.321   0.273
47497SOL    HW144324   9.632  11.361   0.266
47497SOL    HW244325   9.514  11.315   0.183
47498SOL     OW44326  12.318   5.444  13.870
47498SOL    HW144327  12.314   5.412  13.780
47498SOL    HW244328  12.226   5.454  13.895
47499SOL     OW44329   4.037  13.498  12.821
47499SOL    HW144330   4.087  13.437  12.875
47499SOL    HW244331   4.028  13.577  12.875
47500SOL     OW44332   1.571   1.950   6.015
47500SOL    HW144333   1.529   1.908   5.940
47500SOL    HW244334   1.551   1.892   6.089
47501SOL     OW44335   1.352   2.838  13.789
47501SOL    HW144336   1.434   2.834  13.739
47501SOL    HW244337   1.350   2.756  13.838
47502SOL     OW44338   5.807   1.571   4.484
47502SOL    HW144339   5.857   1.644   4.448
47502SOL    HW244340   5.860   1.539   4.557
47503SOL     OW44341   0.462   4.873   1.766
47503SOL    HW144342   0.503   4.921   1.695
47503SOL    HW244343   0.501   4.909   1.846
47504SOL     OW44344   4.189  11.563   4.951
47504SOL    HW144345   4.146  11.508   5.016
47504SOL    HW244346   4.282  11.543   4.961
47505SOL     OW44347  13.282   9.660  11.356
47505SOL    HW144348  13.285   9.752  11.329
47505SOL    HW244349  13.328   9.658  11.440
47506SOL     OW44350  14.135   1.745   5.978
47506SOL    HW144351  14.172   1.797   5.907
47506SOL    HW244352  14.043   1.732   5.953
47507SOL     OW44353   1.057  10.032   0.040
47507SOL    HW144354   1.122  10.098   0.066
47507SOL    HW244355   1.030  10.057  14.831
47508SOL     OW44356  14.694   5.676   8.187
47508SOL    HW144357  14.671   5.583   8.197
47508SOL    HW244358  14.611   5.722   8.204
47509SOL     OW44359   2.727   3.469   8.819
47509SOL    HW144360   2.686   3.382   8.814
47509SOL    HW244361   2.821   3.450   8.818
47510SOL     OW44362   0.745  11.391   2.630
47510SOL    HW144363   0.733  11.337   2.551
47510SOL    HW244364   0.773  11.476   2.596
47511SOL     OW44365  10.688   4.425  13.624
47511SOL    HW144366  10.771   4.380  13.611
47511SOL    HW244367  10.642   4.417  13.541
47512SOL     OW44368   8.611  11.702  13.358
47512SOL    HW144369   8.654  11.646  13.422
47512SOL    HW244370   8.673  11.772  13.341
47513SOL     OW44371   6.155  11.587   8.188
47513SOL    HW144372   6.121  11.676   8.181
47513SOL    HW244373   6.215  11.578   8.114
47514SOL     OW44374   6.199   1.975   8.312
47514SOL    HW144375   6.129   2.029   8.348
47514SOL    HW244376   6.159   1.888   8.301
47515SOL     OW44377  14.524   7.810   3.761
47515SOL    HW144378  14.448   7.832   3.815
47515SOL    HW244379  14.571   7.744   3.811
47516SOL     OW44380  14.279   7.962   3.849
47516SOL    HW144381  14.341   8.034   3.843
47516SOL    HW244382  14.196   8.004   3.871
47517SOL     OW44383   7.851   2.025  10.140
47517SOL    HW144384   7.758   2.036  10.161
47517SOL    HW244385   7.859   2.055  10.049
47518SOL     OW44386  12.333   4.691  14.722
47518SOL    HW144387  12.362   4.615  14.773
47518SOL    HW244388  12.245   4.668  14.692
47519SOL     OW44389   1.658   0.852   7.882
47519SOL    HW144390   1.612   0.928   7.918
47519SOL    HW244391   1.616   0.777   7.924
47520SOL     OW44392   0.888  12.030   8.611
47520SOL    HW144393   0.869  11.939   8.586
47520SOL    HW244394   0.962  12.055   8.556
47521SOL     OW44395   6.838   7.321   6.526
47521SOL    HW144396   6.811   7.413   6.531
47521SOL    HW244397   6.804   7.282   6.606
47522SOL     OW44398   3.808   7.205   3.207
47522SOL    HW144399   3.770   7.290   3.227
47522SOL    HW244400   3.892   7.205   3.253
47523SOL     OW44401   7.025   5.646   6.760
47523SOL    HW144402   6.963   5.705   6.802
47523SOL    HW244403   6.980   5.615   6.681
47524SOL     OW44404   9.247   3.220   5.525
47524SOL    HW144405   9.154   3.215   5.546
47524SOL    HW244406   9.287   3.255   5.605
47525SOL     OW44407  12.119  13.882  13.291
47525SOL    HW144408  12.173  13.960  13.279
47525SOL    HW244409  12.134  13.856  13.382
47526SOL     OW44410   5.616   5.618  10.437
47526SOL    HW144411   5.535   5.639  10.483
47526SOL    HW244412   5.618   5.522  10.434
47527SOL     OW44413   0.746   5.410   1.896
47527SOL    HW144414   0.781   5.399   1.985
47527SOL    HW244415   0.809   5.368   1.839
47528SOL     OW44416  14.676  13.690   4.842
47528SOL    HW144417  14.663  13.598   4.822
47528SOL    HW244418  14.666  13.697   4.937
47529SOL     OW44419  13.957   9.486  10.184
47529SOL    HW144420  14.052   9.488  10.172
47529SOL    HW244421  13.930   9.577  10.184
47530SOL     OW44422   9.377   0.992   5.332
47530SOL    HW144423   9.364   0.922   5.268
47530SOL    HW244424   9.470   0.988   5.353
47531SOL     OW44425   7.401  11.065   8.126
47531SOL    HW144426   7.496  11.058   8.118
47531SOL    HW244427   7.371  11.081   8.036
47532SOL     OW44428   6.606   1.881   3.349
47532SOL    HW144429   6.553   1.957   3.372
47532SOL    HW244430   6.682   1.886   3.407
47533SOL     OW44431   0.552  14.115   2.418
47533SOL    HW144432   0.613  14.073   2.359
47533SOL    HW244433   0.482  14.149   2.361
47534SOL     OW44434   3.666   1.688   2.431
47534SOL    HW144435   3.658   1.644   2.346
47534SOL    HW244436   3.759   1.679   2.454
47535SOL     OW44437   1.400  10.194   3.355
47535SOL    HW144438   1.355  10.124   3.309
47535SOL    HW244439   1.421  10.258   3.286
47536SOL     OW44440  11.937  10.658  14.578
47536SOL    HW144441  11.990  10.631  14.654
47536SOL    HW244442  11.973  10.742  14.552
47537SOL     OW44443   9.089   4.981   7.197
47537SOL    HW144444   9.133   4.965   7.114
47537SOL    HW244445   9.125   5.063   7.229
47538SOL     OW44446  12.485   4.088  14.836
47538SOL    HW144447  12.457   3.999  14.814
47538SOL    HW244448  12.474   4.138  14.755
47539SOL     OW44449   9.421   8.222  12.652
47539SOL    HW144450   9.378   8.295  12.696
47539SOL    HW244451   9.397   8.232  12.560
47540SOL     OW44452  12.183   5.685   5.186
47540SOL    HW144453  12.162   5.712   5.097
47540SOL    HW244454  12.256   5.742   5.212
47541SOL     OW44455   4.325  10.660  14.147
47541SOL    HW144456   4.271  10.582  14.129
47541SOL    HW244457   4.406  10.625  14.184
47542SOL     OW44458  12.500   9.911   5.595
47542SOL    HW144459  12.503  10.003   5.571
47542SOL    HW244460  12.581   9.896   5.644
47543SOL     OW44461  13.530   3.558   1.270
47543SOL    HW144462  13.533   3.524   1.359
47543SOL    HW244463  13.590   3.502   1.221
47544SOL     OW44464   7.088  10.472  13.146
47544SOL    HW144465   7.141  10.402  13.184
47544SOL    HW244466   7.021  10.426  13.095
47545SOL     OW44467  11.410  11.030  13.143
47545SOL    HW144468  11.403  11.121  13.113
47545SOL    HW244469  11.498  11.002  13.114
47546SOL     OW44470  14.315  11.155  11.166
47546SOL    HW144471  14.343  11.067  11.143
47546SOL    HW244472  14.220  11.154  11.156
47547SOL     OW44473   6.152   1.019   8.057
47547SOL    HW144474   6.240   1.041   8.086
47547SOL    HW244475   6.146   0.924   8.068
47548SOL     OW44476  14.244   1.191   5.266
47548SOL    HW144477  14.268   1.277   5.299
47548SOL    HW244478  14.249   1.134   5.342
47549SOL     OW44479  14.865   6.841   8.224
47549SOL    HW144480   0.078   6.867   8.219
47549SOL    HW244481  14.827   6.901   8.288
47550SOL     OW44482   3.808   9.715   5.157
47550SOL    HW144483   3.760   9.710   5.074
47550SOL    HW244484   3.756   9.774   5.211
47551SOL     OW44485  13.218  13.169   0.482
47551SOL    HW144486  13.173  13.089   0.454
47551SOL    HW244487  13.173  13.195   0.562
47552SOL     OW44488   5.827   9.455  14.614
47552SOL    HW144489   5.782   9.499  14.687
47552SOL    HW244490   5.886   9.393  14.656
47553SOL     OW44491   6.745   7.882   6.515
47553SOL    HW144492   6.789   7.930   6.445
47553SOL    HW244493   6.671   7.840   6.472
47554SOL     OW44494   3.254   7.919   4.115
47554SOL    HW144495   3.174   7.946   4.071
47554SOL    HW244496   3.304   7.999   4.126
47555SOL     OW44497  14.616   3.743  14.749
47555SOL    HW144498  14.559   3.670  14.770
47555SOL    HW244499  14.654   3.769  14.833
47556SOL     OW44500  11.901  13.774   4.669
47556SOL    HW144501  11.806  13.765   4.659
47556SOL    HW244502  11.930  13.689   4.701
47557SOL     OW44503   9.400   5.454   6.772
47557SOL    HW144504   9.351   5.396   6.830
47557SOL    HW244505   9.365   5.435   6.685
47558SOL     OW44506  14.173  11.700  11.553
47558SOL    HW144507  14.101  11.762  11.546
47558SOL    HW244508  14.145  11.624  11.501
47559SOL     OW44509   3.440   3.508   9.857
47559SOL    HW144510   3.404   3.430   9.899
47559SOL    HW244511   3.405   3.506   9.768
47560SOL     OW44512   1.463   1.865  10.626
47560SOL    HW144513   1.430   1.955  10.630
47560SOL    HW244514   1.431   1.831  10.542
47561SOL     OW44515   1.824   0.016   1.841
47561SOL    HW144516   1.821   0.011   1.937
47561SOL    HW244517   1.908  14.856   1.817
47562SOL     OW44518   2.383   5.776   4.818
47562SOL    HW144519   2.370   5.871   4.827
47562SOL    HW244520   2.299   5.738   4.842
47563SOL     OW44521   6.167  12.775  10.155
47563SOL    HW144522   6.219  12.723  10.093
47563SOL    HW244523   6.077  12.750  10.137
47564SOL     OW44524  13.023  12.517   2.182
47564SOL    HW144525  13.018  12.536   2.089
47564SOL    HW244526  12.996  12.598   2.225
47565SOL     OW44527  13.761   8.284   2.141
47565SOL    HW144528  13.779   8.273   2.235
47565SOL    HW244529  13.754   8.378   2.129
47566SOL     OW44530  11.972   6.249   3.037
47566SOL    HW144531  12.063   6.220   3.045
47566SOL    HW244532  11.962   6.272   2.945
47567SOL     OW44533   4.942  11.829   4.193
47567SOL    HW144534   4.928  11.856   4.284
47567SOL    HW244535   4.866  11.775   4.172
47568SOL     OW44536  10.487   2.849   5.284
47568SOL    HW144537  10.463   2.763   5.250
47568SOL    HW244538  10.477   2.841   5.379
47569SOL     OW44539  10.318  13.036   6.216
47569SOL    HW144540  10.232  13.077   6.221
47569SOL    HW244541  10.375  13.105   6.181
47570SOL     OW44542  13.965   1.210   8.471
47570SOL    HW144543  13.895   1.162   8.426
47570SOL    HW244544  14.026   1.234   8.401
47571SOL     OW44545  14.802   9.548  11.771
47571SOL    HW144546  14.803   9.630  11.820
47571SOL    HW244547  14.717   9.509  11.791
47572SOL     OW44548   4.201  14.208   9.095
47572SOL    HW144549   4.289  14.245   9.100
47572SOL    HW244550   4.201  14.137   9.159
47573SOL     OW44551  12.246   7.926   8.107
47573SOL    HW144552  12.209   7.867   8.172
47573SOL    HW244553  12.220   8.013   8.136
47574SOL     OW44554   4.373  11.493  10.587
47574SOL    HW144555   4.391  11.481  10.494
47574SOL    HW244556   4.371  11.405  10.623
47575SOL     OW44557  10.492   0.397   5.656
47575SOL    HW144558  10.513   0.402   5.563
47575SOL    HW244559  10.451   0.311   5.667
47576SOL     OW44560   2.683   7.442  14.646
47576SOL    HW144561   2.693   7.466  14.738
47576SOL    HW244562   2.773   7.425  14.617
47577SOL     OW44563   6.473   0.890   0.540
47577SOL    HW144564   6.486   0.795   0.546
47577SOL    HW244565   6.542   0.926   0.595
47578SOL     OW44566   0.051   3.405   2.862
47578SOL    HW144567   0.089   3.435   2.780
47578SOL    HW244568  14.841   3.441   2.862
47579SOL     OW44569   8.712   1.988  10.773
47579SOL    HW144570   8.681   1.910  10.819
47579SOL    HW244571   8.808   1.982  10.778
47580SOL     OW44572  13.473  14.225   2.379
47580SOL    HW144573  13.422  14.173   2.318
47580SOL    HW244574  13.553  14.247   2.332
47581SOL     OW44575  10.142   2.614   6.648
47581SOL    HW144576  10.197   2.596   6.572
47581SOL    HW244577  10.054   2.587   6.621
47582SOL     OW44578   5.707  11.778   9.563
47582SOL    HW144579   5.762  11.726   9.621
47582SOL    HW244580   5.766  11.808   9.494
47583SOL     OW44581   7.273   1.391  12.206
47583SOL    HW144582   7.358   1.378  12.247
47583SOL    HW244583   7.233   1.304  12.207
47584SOL     OW44584   7.800   6.411   2.079
47584SOL    HW144585   7.876   6.452   2.120
47584SOL    HW244586   7.736   6.481   2.069
47585SOL     OW44587  14.540  11.506   9.271
47585SOL    HW144588  14.509  11.482   9.184
47585SOL    HW244589  14.597  11.581   9.257
47586SOL     OW44590   9.966   4.386   1.087
47586SOL    HW144591  10.043   4.442   1.073
47586SOL    HW244592   9.898   4.445   1.119
47587SOL     OW44593   6.507   4.243   8.391
47587SOL    HW144594   6.600   4.221   8.385
47587SOL    HW244595   6.472   4.179   8.453
47588SOL     OW44596   2.741   5.888   5.991
47588SOL    HW144597   2.830   5.862   6.012
47588SOL    HW244598   2.725   5.850   5.904
47589SOL     OW44599   6.124   2.897   3.459
47589SOL    HW144600   6.139   2.942   3.542
47589SOL    HW244601   6.099   2.966   3.398
47590SOL     OW44602   7.408   4.549  10.564
47590SOL    HW144603   7.457   4.589  10.493
47590SOL    HW244604   7.423   4.606  10.639
47591SOL     OW44605   0.802   4.818  11.022
47591SOL    HW144606   0.824   4.896  10.971
47591SOL    HW244607   0.723   4.841  11.070
47592SOL     OW44608   9.186   8.328   7.104
47592SOL    HW144609   9.254   8.357   7.165
47592SOL    HW244610   9.200   8.234   7.096
47593SOL     OW44611  11.995   9.687   6.394
47593SOL    HW144612  12.012   9.781   6.388
47593SOL    HW244613  12.066   9.653   6.449
47594SOL     OW44614   1.272  13.970   8.424
47594SOL    HW144615   1.312  13.892   8.386
47594SOL    HW244616   1.244  14.022   8.348
47595SOL     OW44617   9.357   0.209   8.156
47595SOL    HW144618   9.377   0.300   8.175
47595SOL    HW244619   9.286   0.187   8.217
47596SOL     OW44620   3.512   3.292   0.256
47596SOL    HW144621   3.467   3.224   0.306
47596SOL    HW244622   3.513   3.368   0.314
47597SOL     OW44623   4.836   6.091   0.243
47597SOL    HW144624   4.779   6.087   0.167
47597SOL    HW244625   4.797   6.157   0.300
47598SOL     OW44626   3.538   7.931   6.183
47598SOL    HW144627   3.517   7.897   6.270
47598SOL    HW244628   3.551   8.025   6.197
47599SOL     OW44629   1.543  14.797   7.647
47599SOL    HW144630   1.469  14.736   7.651
47599SOL    HW244631   1.572  14.807   7.737
47600SOL     OW44632  12.034   7.659   1.775
47600SOL    HW144633  12.084   7.667   1.856
47600SOL    HW244634  12.000   7.570   1.775
47601SOL     OW44635   4.555   9.599  11.453
47601SOL    HW144636   4.487   9.533  11.437
47601SOL    HW244637   4.529   9.674  11.399
47602SOL     OW44638  13.927   9.388   3.482
47602SOL    HW144639  13.895   9.405   3.570
47602SOL    HW244640  13.977   9.466   3.460
47603SOL     OW44641   4.362  12.621   9.952
47603SOL    HW144642   4.357  12.544  10.009
47603SOL    HW244643   4.271  12.643   9.933
47604SOL     OW44644   2.188   3.805  13.895
47604SOL    HW144645   2.190   3.711  13.881
47604SOL    HW244646   2.218   3.842  13.812
47605SOL     OW44647   7.327  10.797   8.153
47605SOL    HW144648   7.340  10.814   8.246
47605SOL    HW244649   7.347  10.880   8.110
47606SOL     OW44650  11.725  11.483   4.999
47606SOL    HW144651  11.642  11.486   5.045
47606SOL    HW244652  11.701  11.462   4.908
47607SOL     OW44653   8.647   6.738  11.887
47607SOL    HW144654   8.614   6.748  11.798
47607SOL    HW244655   8.742   6.749  11.879
47608SOL     OW44656   2.972   8.983  10.359
47608SOL    HW144657   2.934   8.916  10.417
47608SOL    HW244658   3.004   8.934  10.283
47609SOL     OW44659   8.127   4.943   1.860
47609SOL    HW144660   8.053   4.949   1.921
47609SOL    HW244661   8.101   4.875   1.797
47610SOL     OW44662  11.434   6.112   4.784
47610SOL    HW144663  11.349   6.092   4.745
47610SOL    HW244664  11.417   6.117   4.878
47611SOL     OW44665  12.927   0.254   7.401
47611SOL    HW144666  13.017   0.220   7.399
47611SOL    HW244667  12.936   0.345   7.372
47612SOL     OW44668   6.793   6.848  14.344
47612SOL    HW144669   6.700   6.859  14.322
47612SOL    HW244670   6.793   6.832  14.439
47613SOL     OW44671   2.274   2.027   5.512
47613SOL    HW144672   2.214   2.039   5.438
47613SOL    HW244673   2.284   1.932   5.520
47614SOL     OW44674  10.380   5.383  13.938
47614SOL    HW144675  10.418   5.468  13.962
47614SOL    HW244676  10.347   5.347  14.020
47615SOL     OW44677   9.158   4.769   2.508
47615SOL    HW144678   9.141   4.813   2.592
47615SOL    HW244679   9.248   4.795   2.487
47616SOL     OW44680  10.702   2.319   1.096
47616SOL    HW144681  10.693   2.412   1.079
47616SOL    HW244682  10.612   2.287   1.104
47617SOL     OW44683   2.696  12.842  13.342
47617SOL    HW144684   2.613  12.845  13.390
47617SOL    HW244685   2.676  12.790  13.264
47618SOL     OW44686  12.424   5.742  13.661
47618SOL    HW144687  12.339   5.713  13.695
47618SOL    HW244688  12.416   5.837  13.653
47619SOL     OW44689  12.749   9.072   3.607
47619SOL    HW144690  12.674   9.108   3.655
47619SOL    HW244691  12.781   9.146   3.554
47620SOL     OW44692  11.253   6.720   4.507
47620SOL    HW144693  11.318   6.775   4.552
47620SOL    HW244694  11.286   6.631   4.518
47621SOL     OW44695   9.190   1.135   0.819
47621SOL    HW144696   9.269   1.083   0.835
47621SOL    HW244697   9.125   1.100   0.881
47622SOL     OW44698   2.638   9.764   7.709
47622SOL    HW144699   2.609   9.854   7.721
47622SOL    HW244700   2.704   9.751   7.778
47623SOL     OW44701   1.271   3.284   6.807
47623SOL    HW144702   1.351   3.236   6.786
47623SOL    HW244703   1.295   3.340   6.881
47624SOL     OW44704   0.736   3.814   2.218
47624SOL    HW144705   0.737   3.831   2.312
47624SOL    HW244706   0.759   3.722   2.210
47625SOL     OW44707   2.690  11.636  10.995
47625SOL    HW144708   2.645  11.702  10.943
47625SOL    HW244709   2.687  11.669  11.085
47626SOL     OW44710   8.120   3.397   0.680
47626SOL    HW144711   8.069   3.387   0.760
47626SOL    HW244712   8.091   3.324   0.625
47627SOL     OW44713  12.072   3.250   7.174
47627SOL    HW144714  12.026   3.167   7.164
47627SOL    HW244715  12.019   3.313   7.126
47628SOL     OW44716   8.875  11.859   1.320
47628SOL    HW144717   8.926  11.865   1.401
47628SOL    HW244718   8.821  11.938   1.320
47629SOL     OW44719  10.904   9.281   2.616
47629SOL    HW144720  10.943   9.357   2.573
47629SOL    HW244721  10.816   9.310   2.640
47630SOL     OW44722   2.002   8.768   8.148
47630SOL    HW144723   2.002   8.862   8.169
47630SOL    HW244724   2.012   8.725   8.232
47631SOL     OW44725   9.565   7.625   7.300
47631SOL    HW144726   9.616   7.544   7.295
47631SOL    HW244727   9.476   7.599   7.279
47632SOL     OW44728   1.669   5.700   4.437
47632SOL    HW144729   1.732   5.629   4.428
47632SOL    HW244730   1.639   5.718   4.348
47633SOL     OW44731   3.991   8.429  11.930
47633SOL    HW144732   4.046   8.476  11.867
47633SOL    HW244733   3.910   8.480  11.933
47634SOL     OW44734  14.630  12.863  11.378
47634SOL    HW144735  14.684  12.783  11.375
47634SOL    HW244736  14.671  12.916  11.447
47635SOL     OW44737   2.655   3.056   7.273
47635SOL    HW144738   2.569   3.059   7.315
47635SOL    HW244739   2.702   2.986   7.319
47636SOL     OW44740  13.691  12.972   9.629
47636SOL    HW144741  13.677  12.936   9.541
47636SOL    HW244742  13.654  13.060   9.625
47637SOL     OW44743   8.533   3.850  11.323
47637SOL    HW144744   8.579   3.834  11.241
47637SOL    HW244745   8.493   3.766  11.346
47638SOL     OW44746  10.823   8.772   2.607
47638SOL    HW144747  10.839   8.866   2.599
47638SOL    HW244748  10.882   8.731   2.544
47639SOL     OW44749  12.745   9.363   3.479
47639SOL    HW144750  12.683   9.402   3.540
47639SOL    HW244751  12.826   9.412   3.494
47640SOL     OW44752  10.278  10.942  11.911
47640SOL    HW144753  10.191  10.970  11.885
47640SOL    HW244754  10.321  10.917  11.829
47641SOL     OW44755   3.600   5.787  11.998
47641SOL    HW144756   3.509   5.802  12.024
47641SOL    HW244757   3.596   5.712  11.938
47642SOL     OW44758   6.105  13.788   3.166
47642SOL    HW144759   6.131  13.720   3.229
47642SOL    HW244760   6.119  13.870   3.213
47643SOL     OW44761   6.835   8.472   3.869
47643SOL    HW144762   6.750   8.466   3.913
47643SOL    HW244763   6.836   8.559   3.830
47644SOL     OW44764  11.389  12.556  11.527
47644SOL    HW144765  11.324  12.569  11.459
47644SOL    HW244766  11.390  12.461  11.541
47645SOL     OW44767   3.495   4.829   1.616
47645SOL    HW144768   3.491   4.753   1.674
47645SOL    HW244769   3.537   4.796   1.536
47646SOL     OW44770   1.782   0.018  11.211
47646SOL    HW144771   1.843   0.004  11.284
47646SOL    HW244772   1.822  14.849  11.138
47647SOL     OW44773   1.167   0.254   6.733
47647SOL    HW144774   1.172   0.170   6.779
47647SOL    HW244775   1.191   0.233   6.642
47648SOL     OW44776   3.151   4.597   1.071
47648SOL    HW144777   3.180   4.674   1.023
47648SOL    HW244778   3.197   4.601   1.155
47649SOL     OW44779   9.347  10.951   4.533
47649SOL    HW144780   9.310  10.873   4.574
47649SOL    HW244781   9.435  10.959   4.570
47650SOL     OW44782  10.275   8.374  11.686
47650SOL    HW144783  10.288   8.380  11.780
47650SOL    HW244784  10.187   8.408  11.671
47651SOL     OW44785   3.685   3.683   6.759
47651SOL    HW144786   3.598   3.646   6.744
47651SOL    HW244787   3.689   3.760   6.703
47652SOL     OW44788   0.208   9.334  12.937
47652SOL    HW144789   0.300   9.312  12.955
47652SOL    HW244790   0.158   9.281  13.000
47653SOL     OW44791   5.362   3.552  11.987
47653SOL    HW144792   5.292   3.574  11.926
47653SOL    HW244793   5.433   3.612  11.964
47654SOL     OW44794   9.619  12.968   9.561
47654SOL    HW144795   9.671  12.951   9.482
47654SOL    HW244796   9.529  12.969   9.530
47655SOL     OW44797   0.672   7.346   6.041
47655SOL    HW144798   0.592   7.357   6.092
47655SOL    HW244799   0.681   7.427   5.991
47656SOL     OW44800   4.912   4.788  13.837
47656SOL    HW144801   4.972   4.844  13.788
47656SOL    HW244802   4.833   4.785  13.783
47657SOL     OW44803   6.829  10.570  11.791
47657SOL    HW144804   6.773  10.627  11.738
47657SOL    HW244805   6.771  10.498  11.818
47658SOL     OW44806   6.003  13.184   1.370
47658SOL    HW144807   6.077  13.137   1.408
47658SOL    HW244808   5.938  13.116   1.351
47659SOL     OW44809  10.967  14.520   4.440
47659SOL    HW144810  11.007  14.605   4.421
47659SOL    HW244811  11.035  14.472   4.488
47660SOL     OW44812   2.348  14.719   6.587
47660SOL    HW144813   2.422  14.658   6.586
47660SOL    HW244814   2.389  14.806   6.588
47661SOL     OW44815   2.416  11.799   9.589
47661SOL    HW144816   2.464  11.762   9.663
47661SOL    HW244817   2.346  11.736   9.572
47662SOL     OW44818   9.693   2.441   9.417
47662SOL    HW144819   9.607   2.482   9.415
47662SOL    HW244820   9.681   2.358   9.371
47663SOL     OW44821   5.106   2.344   5.661
47663SOL    HW144822   5.113   2.263   5.711
47663SOL    HW244823   5.105   2.413   5.727
47664SOL     OW44824   9.027  12.657  12.831
47664SOL    HW144825   9.011  12.746  12.799
47664SOL    HW244826   8.940  12.619  12.841
47665SOL     OW44827   1.872  14.093   3.333
47665SOL    HW144828   1.875  14.189   3.338
47665SOL    HW244829   1.961  14.068   3.310
47666SOL     OW44830   7.588  14.253   0.182
47666SOL    HW144831   7.602  14.179   0.122
47666SOL    HW244832   7.536  14.316   0.132
47667SOL     OW44833   3.926   1.290  13.594
47667SOL    HW144834   3.861   1.236  13.640
47667SOL    HW244835   3.961   1.232  13.527
47668SOL     OW44836   3.235   1.123  12.013
47668SOL    HW144837   3.223   1.086  11.926
47668SOL    HW244838   3.299   1.066  12.055
47669SOL     OW44839   5.213   4.489   2.001
47669SOL    HW144840   5.190   4.400   2.027
47669SOL    HW244841   5.175   4.499   1.914
47670SOL     OW44842   9.549  14.299  13.939
47670SOL    HW144843   9.590  14.212  13.936
47670SOL    HW244844   9.526  14.318  13.848
47671SOL     OW44845   0.964   3.600  13.902
47671SOL    HW144846   1.051   3.597  13.863
47671SOL    HW244847   0.911   3.542  13.847
47672SOL     OW44848   8.949  11.110   1.470
47672SOL    HW144849   9.041  11.083   1.460
47672SOL    HW244850   8.952  11.186   1.527
47673SOL     OW44851  12.284  11.861   4.848
47673SOL    HW144852  12.361  11.898   4.804
47673SOL    HW244853  12.315  11.838   4.935
47674SOL     OW44854  12.690   9.561   0.935
47674SOL    HW144855  12.712   9.654   0.945
47674SOL    HW244856  12.749   9.516   0.996
47675SOL     OW44857   0.243  11.152   4.343
47675SOL    HW144858   0.183  11.207   4.392
47675SOL    HW244859   0.247  11.194   4.256
47676SOL     OW44860  12.243   6.848  12.060
47676SOL    HW144861  12.282   6.824  12.144
47676SOL    HW244862  12.293   6.798  11.996
47677SOL     OW44863   9.789   5.247  13.472
47677SOL    HW144864   9.786   5.266  13.379
47677SOL    HW244865   9.848   5.172  13.479
47678SOL     OW44866   4.434  10.220  11.917
47678SOL    HW144867   4.527  10.210  11.896
47678SOL    HW244868   4.430  10.295  11.977
47679SOL     OW44869   6.002  11.800   3.989
47679SOL    HW144870   6.089  11.840   3.990
47679SOL    HW244871   5.982  11.788   3.896
47680SOL     OW44872  14.265   3.351  14.527
47680SOL    HW144873  14.245   3.387  14.440
47680SOL    HW244874  14.352   3.313  14.517
47681SOL     OW44875   9.861   8.648  10.225
47681SOL    HW144876   9.932   8.587  10.245
47681SOL    HW244877   9.817   8.610  10.149
47682SOL     OW44878   7.967  12.234   9.308
47682SOL    HW144879   7.977  12.141   9.287
47682SOL    HW244880   7.879  12.242   9.344
47683SOL     OW44881   2.456   6.509   6.963
47683SOL    HW144882   2.531   6.538   7.015
47683SOL    HW244883   2.390   6.577   6.976
47684SOL     OW44884  10.663   3.769   2.183
47684SOL    HW144885  10.645   3.859   2.211
47684SOL    HW244886  10.577   3.729   2.173
47685SOL     OW44887  14.361  10.346   0.343
47685SOL    HW144888  14.303  10.289   0.292
47685SOL    HW244889  14.309  10.368   0.421
47686SOL     OW44890  13.715  13.215  11.261
47686SOL    HW144891  13.781  13.192  11.326
47686SOL    HW244892  13.746  13.298  11.224
47687SOL     OW44893   3.050  14.787   7.569
47687SOL    HW144894   3.119  14.721   7.584
47687SOL    HW244895   2.985  14.770   7.637
47688SOL     OW44896  10.034   1.850   4.564
47688SOL    HW144897  10.123   1.831   4.592
47688SOL    HW244898  10.034   1.834   4.470
47689SOL     OW44899  10.662   8.332   3.178
47689SOL    HW144900  10.703   8.364   3.259
47689SOL    HW244901  10.725   8.268   3.144
47690SOL     OW44902   3.544  12.467   2.295
47690SOL    HW144903   3.587  12.396   2.342
47690SOL    HW244904   3.513  12.526   2.364
47691SOL     OW44905  10.536   8.951   8.881
47691SOL    HW144906  10.444   8.954   8.906
47691SOL    HW244907  10.580   9.006   8.945
47692SOL     OW44908   4.431   3.139   0.829
47692SOL    HW144909   4.488   3.078   0.876
47692SOL    HW244910   4.490   3.185   0.769
47693SOL     OW44911   5.862   9.710   6.633
47693SOL    HW144912   5.844   9.755   6.716
47693SOL    HW244913   5.875   9.780   6.570
47694SOL     OW44914   7.891   4.246  13.804
47694SOL    HW144915   7.975   4.241  13.849
47694SOL    HW244916   7.834   4.185  13.852
47695SOL     OW44917  11.752   7.686  11.197
47695SOL    HW144918  11.760   7.728  11.282
47695SOL    HW244919  11.842   7.680  11.164
47696SOL     OW44920  13.356  13.981   8.042
47696SOL    HW144921  13.405  13.912   7.997
47696SOL    HW244922  13.367  14.058   7.987
47697SOL     OW44923  12.056   6.071  13.762
47697SOL    HW144924  12.053   5.979  13.735
47697SOL    HW244925  11.968   6.104  13.743
47698SOL     OW44926   7.118   6.674  13.218
47698SOL    HW144927   7.092   6.679  13.126
47698SOL    HW244928   7.138   6.765  13.242
47699SOL     OW44929   7.003   2.651  10.128
47699SOL    HW144930   6.956   2.605  10.059
47699SOL    HW244931   6.939   2.714  10.163
47700SOL     OW44932   3.591   0.956   7.172
47700SOL    HW144933   3.673   0.960   7.220
47700SOL    HW244934   3.545   1.037   7.196
47701SOL     OW44935  13.504  11.036   5.426
47701SOL    HW144936  13.456  11.087   5.491
47701SOL    HW244937  13.465  11.060   5.342
47702SOL     OW44938   3.510   4.248   8.017
47702SOL    HW144939   3.580   4.194   8.051
47702SOL    HW244940   3.547   4.290   7.939
47703SOL     OW44941   6.713   3.347   3.502
47703SOL    HW144942   6.770   3.271   3.508
47703SOL    HW244943   6.772   3.421   3.491
47704SOL     OW44944   7.039   6.715   8.763
47704SOL    HW144945   6.970   6.732   8.827
47704SOL    HW244946   7.057   6.800   8.724
47705SOL     OW44947   1.031   8.398  13.718
47705SOL    HW144948   1.066   8.455  13.649
47705SOL    HW244949   1.108   8.370  13.767
47706SOL     OW44950   2.125   3.574  12.083
47706SOL    HW144951   2.045   3.623  12.065
47706SOL    HW244952   2.177   3.632  12.138
47707SOL     OW44953  10.896   5.782  13.956
47707SOL    HW144954  10.892   5.766  14.050
47707SOL    HW244955  10.908   5.695  13.917
47708SOL     OW44956   2.079   3.822   3.335
47708SOL    HW144957   2.087   3.908   3.292
47708SOL    HW244958   2.160   3.812   3.385
47709SOL     OW44959   2.755   9.486   5.223
47709SOL    HW144960   2.696   9.418   5.256
47709SOL    HW244961   2.842   9.460   5.254
47710SOL     OW44962  13.209   7.522  13.039
47710SOL    HW144963  13.135   7.570  13.003
47710SOL    HW244964  13.264   7.589  13.078
47711SOL     OW44965   8.178  11.795   5.302
47711SOL    HW144966   8.121  11.724   5.330
47711SOL    HW244967   8.238  11.754   5.240
47712SOL     OW44968   3.675  13.939  13.321
47712SOL    HW144969   3.650  13.964  13.410
47712SOL    HW244970   3.765  13.970  13.312
47713SOL     OW44971   1.342  12.072   9.100
47713SOL    HW144972   1.323  11.986   9.061
47713SOL    HW244973   1.372  12.052   9.188
47714SOL     OW44974  14.876   3.718   5.360
47714SOL    HW144975  14.785   3.739   5.340
47714SOL    HW244976   0.042   3.722   5.276
47715SOL     OW44977   8.919  10.042   6.844
47715SOL    HW144978   8.952  10.082   6.763
47715SOL    HW244979   8.968  10.086   6.914
47716SOL     OW44980   9.110   1.050  12.385
47716SOL    HW144981   9.173   1.112  12.347
47716SOL    HW244982   9.025   1.090  12.369
47717SOL     OW44983  10.320  14.524  13.041
47717SOL    HW144984  10.265  14.602  13.040
47717SOL    HW244985  10.278  14.465  13.103
47718SOL     OW44986  12.849   5.164  12.345
47718SOL    HW144987  12.762   5.124  12.342
47718SOL    HW244988  12.890   5.136  12.263
47719SOL     OW44989   1.690   8.182   6.265
47719SOL    HW144990   1.721   8.091   6.271
47719SOL    HW244991   1.691   8.213   6.355
47720SOL     OW44992   7.646   9.111   1.978
47720SOL    HW144993   7.653   9.040   1.914
47720SOL    HW244994   7.667   9.190   1.928
47721SOL     OW44995   6.774   4.408  10.299
47721SOL    HW144996   6.736   4.483  10.253
47721SOL    HW244997   6.869   4.418  10.286
47722SOL     OW44998   7.114  10.248   2.782
47722SOL    HW144999   7.191  10.193   2.767
47722SOL    HW245000   7.066  10.244   2.699
47723SOL     OW45001   0.275   8.078   7.626
47723SOL    HW145002   0.339   8.120   7.568
47723SOL    HW245003   0.304   7.987   7.633
47724SOL     OW45004   0.573  10.611   1.309
47724SOL    HW145005   0.522  10.667   1.368
47724SOL    HW245006   0.539  10.631   1.222
47725SOL     OW45007   2.218   2.372   9.566
47725SOL    HW145008   2.248   2.393   9.654
47725SOL    HW245009   2.202   2.458   9.525
47726SOL     OW45010   6.266  14.149  14.856
47726SOL    HW145011   6.329  14.107   0.035
47726SOL    HW245012   6.196  14.084  14.845
47727SOL     OW45013   0.324   9.931   4.848
47727SOL    HW145014   0.228   9.927   4.846
47727SOL    HW245015   0.350   9.860   4.907
47728SOL     OW45016   7.642   1.411   6.041
47728SOL    HW145017   7.643   1.426   5.946
47728SOL    HW245018   7.574   1.470   6.073
47729SOL     OW45019   2.956  12.612   6.702
47729SOL    HW145020   3.018  12.558   6.654
47729SOL    HW245021   2.898  12.550   6.746
47730SOL     OW45022   6.542   6.645  10.323
47730SOL    HW145023   6.610   6.605  10.269
47730SOL    HW245024   6.479   6.575  10.338
47731SOL     OW45025  11.871   9.875   5.826
47731SOL    HW145026  11.816   9.953   5.817
47731SOL    HW245027  11.815   9.803   5.798
47732SOL     OW45028   5.865  12.993  12.717
47732SOL    HW145029   5.908  12.929  12.660
47732SOL    HW245030   5.927  13.065  12.724
47733SOL     OW45031   7.163  12.917   4.577
47733SOL    HW145032   7.244  12.925   4.526
47733SOL    HW245033   7.115  12.998   4.556
47734SOL     OW45034   7.108   0.514   7.277
47734SOL    HW145035   7.117   0.550   7.189
47734SOL    HW245036   7.023   0.470   7.276
47735SOL     OW45037   9.263  10.006   9.745
47735SOL    HW145038   9.251  10.029   9.838
47735SOL    HW245039   9.193   9.943   9.727
47736SOL     OW45040   2.960   5.701  12.706
47736SOL    HW145041   2.963   5.643  12.782
47736SOL    HW245042   2.992   5.648  12.634
47737SOL     OW45043   4.646   0.886   1.627
47737SOL    HW145044   4.586   0.870   1.554
47737SOL    HW245045   4.592   0.930   1.693
47738SOL     OW45046   1.064   1.230   3.038
47738SOL    HW145047   1.122   1.197   3.106
47738SOL    HW245048   1.008   1.293   3.083
47739SOL     OW45049   5.984   6.572  11.942
47739SOL    HW145050   5.964   6.664  11.922
47739SOL    HW245051   5.959   6.562  12.034
47740SOL     OW45052   8.859   3.506   2.080
47740SOL    HW145053   8.827   3.441   2.143
47740SOL    HW245054   8.832   3.471   1.995
47741SOL     OW45055   1.959   0.691   3.738
47741SOL    HW145056   1.924   0.706   3.826
47741SOL    HW245057   1.953   0.596   3.726
47742SOL     OW45058   2.694  11.524  12.765
47742SOL    HW145059   2.716  11.431  12.772
47742SOL    HW245060   2.644  11.544  12.844
47743SOL     OW45061   5.591  13.321   6.484
47743SOL    HW145062   5.559  13.257   6.546
47743SOL    HW245063   5.591  13.404   6.532
47744SOL     OW45064   0.990   6.944  13.343
47744SOL    HW145065   0.983   7.015  13.407
47744SOL    HW245066   1.076   6.955  13.304
47745SOL     OW45067   7.871  10.485   0.018
47745SOL    HW145068   7.888  10.395  14.869
47745SOL    HW245069   7.915  10.540  14.832
47746SOL     OW45070   1.782  11.185   6.771
47746SOL    HW145071   1.696  11.153   6.743
47746SOL    HW245072   1.842  11.114   6.747
47747SOL     OW45073   0.895   7.170   5.369
47747SOL    HW145074   0.858   7.088   5.337
47747SOL    HW245075   0.941   7.146   5.450
47748SOL     OW45076   5.470  10.246   8.621
47748SOL    HW145077   5.480  10.153   8.638
47748SOL    HW245078   5.555  10.274   8.587
47749SOL     OW45079   8.713   5.863   5.484
47749SOL    HW145080   8.700   5.955   5.462
47749SOL    HW245081   8.805   5.846   5.463
47750SOL     OW45082   1.166   2.067   4.336
47750SOL    HW145083   1.245   2.025   4.369
47750SOL    HW245084   1.096   2.004   4.354
47751SOL     OW45085   9.757  14.584  13.704
47751SOL    HW145086   9.726  14.575  13.794
47751SOL    HW245087   9.722  14.668  13.674
47752SOL     OW45088   6.247   4.529   9.221
47752SOL    HW145089   6.244   4.573   9.306
47752SOL    HW245090   6.163   4.485   9.214
47753SOL     OW45091   0.970   9.976   8.746
47753SOL    HW145092   0.950  10.016   8.662
47753SOL    HW245093   0.890   9.983   8.797
47754SOL     OW45094   2.046   8.294  14.229
47754SOL    HW145095   2.006   8.373  14.266
47754SOL    HW245096   2.018   8.293  14.138
47755SOL     OW45097  13.065   3.290   3.576
47755SOL    HW145098  13.114   3.320   3.499
47755SOL    HW245099  13.095   3.200   3.590
47756SOL     OW45100   6.784  11.906   4.963
47756SOL    HW145101   6.797  11.925   4.871
47756SOL    HW245102   6.724  11.975   4.993
47757SOL     OW45103   9.224   3.363   0.077
47757SOL    HW145104   9.231   3.362  14.861
47757SOL    HW245105   9.166   3.290   0.097
47758SOL     OW45106   9.847   9.426   7.318
47758SOL    HW145107   9.880   9.349   7.271
47758SOL    HW245108   9.846   9.495   7.253
47759SOL     OW45109  11.490  13.875  11.564
47759SOL    HW145110  11.583  13.869  11.544
47759SOL    HW245111  11.482  13.834  11.651
47760SOL     OW45112   0.707  14.679   7.464
47760SOL    HW145113   0.697  14.590   7.496
47760SOL    HW245114   0.712  14.733   7.543
47761SOL     OW45115   7.120  11.605   9.126
47761SOL    HW145116   7.053  11.662   9.163
47761SOL    HW245117   7.173  11.662   9.070
47762SOL     OW45118   5.363  14.252  10.547
47762SOL    HW145119   5.321  14.226  10.465
47762SOL    HW245120   5.369  14.348  10.540
47763SOL     OW45121   7.499  12.102   0.530
47763SOL    HW145122   7.580  12.141   0.495
47763SOL    HW245123   7.451  12.176   0.566
47764SOL     OW45124   1.948   2.633  14.009
47764SOL    HW145125   1.923   2.545  14.035
47764SOL    HW245126   2.028   2.652  14.059
47765SOL     OW45127   3.001  12.895   9.189
47765SOL    HW145128   2.974  12.889   9.097
47765SOL    HW245129   2.924  12.867   9.238
47766SOL     OW45130   2.833  12.161   6.265
47766SOL    HW145131   2.854  12.068   6.264
47766SOL    HW245132   2.865  12.193   6.181
47767SOL     OW45133   3.339   8.616  11.200
47767SOL    HW145134   3.278   8.683  11.229
47767SOL    HW245135   3.289   8.565  11.135
47768SOL     OW45136   3.142   5.975   4.311
47768SOL    HW145137   3.141   5.934   4.397
47768SOL    HW245138   3.181   6.061   4.326
47769SOL     OW45139   6.372   5.602  12.597
47769SOL    HW145140   6.404   5.656  12.669
47769SOL    HW245141   6.451   5.573  12.552
47770SOL     OW45142   5.984  12.118  12.179
47770SOL    HW145143   6.039  12.041  12.163
47770SOL    HW245144   5.975  12.120  12.275
47771SOL     OW45145   7.775   0.293   8.254
47771SOL    HW145146   7.704   0.258   8.307
47771SOL    HW245147   7.852   0.242   8.278
47772SOL     OW45148   9.308   3.238  12.230
47772SOL    HW145149   9.296   3.156  12.279
47772SOL    HW245150   9.378   3.219  12.167
47773SOL     OW45151   5.629   5.155   4.685
47773SOL    HW145152   5.540   5.191   4.674
47773SOL    HW245153   5.638   5.091   4.615
47774SOL     OW45154   2.996  13.298  12.925
47774SOL    HW145155   3.034  13.318  12.839
47774SOL    HW245156   3.039  13.360  12.985
47775SOL     OW45157   5.383  12.359   6.437
47775SOL    HW145158   5.442  12.296   6.394
47775SOL    HW245159   5.370  12.323   6.525
47776SOL     OW45160  10.416   7.003  11.583
47776SOL    HW145161  10.369   6.922  11.563
47776SOL    HW245162  10.505   6.988  11.552
47777SOL     OW45163   2.856   1.203   8.554
47777SOL    HW145164   2.897   1.154   8.624
47777SOL    HW245165   2.924   1.263   8.522
47778SOL     OW45166  11.536   9.060  14.121
47778SOL    HW145167  11.515   8.966  14.124
47778SOL    HW245168  11.532   9.088  14.213
47779SOL     OW45169   0.823   6.870  14.434
47779SOL    HW145170   0.851   6.960  14.448
47779SOL    HW245171   0.865   6.820  14.504
47780SOL     OW45172  12.496   0.250  12.134
47780SOL    HW145173  12.416   0.284  12.173
47780SOL    HW245174  12.566   0.284  12.189
47781SOL     OW45175   7.282   2.147   8.036
47781SOL    HW145176   7.300   2.054   8.052
47781SOL    HW245177   7.355   2.176   7.980
47782SOL     OW45178   6.420   4.323   3.979
47782SOL    HW145179   6.425   4.418   3.989
47782SOL    HW245180   6.327   4.303   3.984
47783SOL     OW45181   2.639   3.864   5.828
47783SOL    HW145182   2.581   3.822   5.765
47783SOL    HW245183   2.596   3.852   5.913
47784SOL     OW45184   0.887  14.288   8.305
47784SOL    HW145185   0.873  14.218   8.241
47784SOL    HW245186   0.799  14.320   8.326
47785SOL     OW45187   4.100  12.177  12.220
47785SOL    HW145188   4.056  12.133  12.292
47785SOL    HW245189   4.127  12.262  12.255
47786SOL     OW45190   7.323   5.707   2.966
47786SOL    HW145191   7.291   5.697   2.876
47786SOL    HW245192   7.385   5.635   2.977
47787SOL     OW45193   2.836   5.576   8.028
47787SOL    HW145194   2.908   5.567   7.966
47787SOL    HW245195   2.879   5.580   8.114
47788SOL     OW45196  12.858  13.007   5.422
47788SOL    HW145197  12.941  13.035   5.382
47788SOL    HW245198  12.837  12.924   5.378
47789SOL     OW45199   5.083   1.616   5.578
47789SOL    HW145200   5.007   1.673   5.593
47789SOL    HW245201   5.046   1.538   5.537
47790SOL     OW45202   0.504   9.330   7.283
47790SOL    HW145203   0.484   9.313   7.191
47790SOL    HW245204   0.422   9.360   7.321
47791SOL     OW45205   7.530  14.152   3.134
47791SOL    HW145206   7.471  14.143   3.208
47791SOL    HW245207   7.505  14.082   3.074
47792SOL     OW45208  12.436   9.787   2.421
47792SOL    HW145209  12.365   9.804   2.483
47792SOL    HW245210  12.428   9.694   2.400
47793SOL     OW45211  13.624   5.056   3.038
47793SOL    HW145212  13.613   5.124   3.105
47793SOL    HW245213  13.718   5.039   3.037
47794SOL     OW45214   8.429   2.062   0.514
47794SOL    HW145215   8.482   2.014   0.577
47794SOL    HW245216   8.483   2.139   0.492
47795SOL     OW45217   6.536  13.750   5.647
47795SOL    HW145218   6.476  13.805   5.597
47795SOL    HW245219   6.482  13.680   5.683
47796SOL     OW45220   7.306   0.229   0.341
47796SOL    HW145221   7.315   0.135   0.325
47796SOL    HW245222   7.385   0.268   0.304
47797SOL     OW45223  10.670  11.879   4.554
47797SOL    HW145224  10.738  11.826   4.513
47797SOL    HW245225  10.628  11.925   4.481
47798SOL     OW45226  14.803   6.691   3.602
47798SOL    HW145227  14.717   6.664   3.567
47798SOL    HW245228  14.798   6.673   3.695
47799SOL     OW45229   7.313  12.823   8.586
47799SOL    HW145230   7.340  12.871   8.664
47799SOL    HW245231   7.220  12.807   8.598
47800SOL     OW45232  11.569  12.101  12.951
47800SOL    HW145233  11.533  12.150  12.877
47800SOL    HW245234  11.663  12.107  12.940
47801SOL     OW45235   3.280   5.928   5.274
47801SOL    HW145236   3.368   5.912   5.239
47801SOL    HW245237   3.263   6.020   5.254
47802SOL     OW45238  10.315   5.352   7.333
47802SOL    HW145239  10.380   5.421   7.318
47802SOL    HW245240  10.334   5.287   7.265
47803SOL     OW45241   3.679   8.563  14.121
47803SOL    HW145242   3.599   8.518  14.095
47803SOL    HW245243   3.703   8.524  14.205
47804SOL     OW45244   8.054  14.308   7.697
47804SOL    HW145245   8.034  14.379   7.635
47804SOL    HW245246   8.147  14.317   7.715
47805SOL     OW45247   7.364  12.390  11.576
47805SOL    HW145248   7.384  12.483  11.581
47805SOL    HW245249   7.269  12.384  11.588
47806SOL     OW45250   5.608   8.128  13.622
47806SOL    HW145251   5.647   8.042  13.635
47806SOL    HW245252   5.520   8.120  13.661
47807SOL     OW45253  10.932  14.819   7.261
47807SOL    HW145254  10.977  14.834   7.344
47807SOL    HW245255  10.891   0.023   7.239
47808SOL     OW45256  13.431   6.741  10.843
47808SOL    HW145257  13.392   6.664  10.884
47808SOL    HW245258  13.365   6.770  10.780
47809SOL     OW45259   3.552   6.699  14.106
47809SOL    HW145260   3.532   6.712  14.013
47809SOL    HW245261   3.646   6.714  14.113
47810SOL     OW45262   6.832  13.660  10.080
47810SOL    HW145263   6.769  13.655  10.153
47810SOL    HW245264   6.826  13.750  10.049
47811SOL     OW45265   0.428   9.515  14.676
47811SOL    HW145266   0.396   9.427  14.693
47811SOL    HW245267   0.489   9.506  14.604
47812SOL     OW45268   8.389   0.116  12.967
47812SOL    HW145269   8.334   0.185  12.931
47812SOL    HW245270   8.478   0.151  12.960
47813SOL     OW45271   1.463   4.851   6.015
47813SOL    HW145272   1.467   4.915   5.944
47813SOL    HW245273   1.519   4.887   6.084
47814SOL     OW45274   2.720  14.537   1.232
47814SOL    HW145275   2.815  14.533   1.219
47814SOL    HW245276   2.694  14.446   1.248
47815SOL     OW45277   3.712  13.099  14.403
47815SOL    HW145278   3.784  13.110  14.341
47815SOL    HW245279   3.639  13.068  14.349
47816SOL     OW45280   3.768   6.946   6.476
47816SOL    HW145281   3.861   6.969   6.473
47816SOL    HW245282   3.764   6.867   6.529
47817SOL     OW45283   4.093  10.024  13.328
47817SOL    HW145284   4.184  10.020  13.297
47817SOL    HW245285   4.100  10.065  13.414
47818SOL     OW45286   4.946   3.481   4.769
47818SOL    HW145287   4.994   3.408   4.731
47818SOL    HW245288   4.972   3.481   4.862
47819SOL     OW45289  11.449  13.439   2.053
47819SOL    HW145290  11.499  13.361   2.030
47819SOL    HW245291  11.400  13.415   2.131
47820SOL     OW45292  13.061  14.221   7.147
47820SOL    HW145293  13.134  14.237   7.206
47820SOL    HW245294  13.100  14.226   7.059
47821SOL     OW45295   2.355  13.215   7.460
47821SOL    HW145296   2.412  13.292   7.461
47821SOL    HW245297   2.317  13.214   7.372
47822SOL     OW45298   6.047  11.076  12.349
47822SOL    HW145299   5.991  11.028  12.410
47822SOL    HW245300   6.129  11.089  12.396
47823SOL     OW45301   5.839   1.326   3.304
47823SOL    HW145302   5.878   1.411   3.282
47823SOL    HW245303   5.803   1.294   3.221
47824SOL     OW45304   5.645   6.241  13.364
47824SOL    HW145305   5.625   6.335  13.365
47824SOL    HW245306   5.577   6.203  13.309
47825SOL     OW45307   9.782   5.845  14.186
47825SOL    HW145308   9.713   5.825  14.122
47825SOL    HW245309   9.836   5.912  14.144
47826SOL     OW45310  10.434   3.129   5.328
47826SOL    HW145311  10.459   3.171   5.246
47826SOL    HW245312  10.417   3.201   5.388
47827SOL     OW45313   7.200   4.476  11.611
47827SOL    HW145314   7.215   4.569  11.593
47827SOL    HW245315   7.156   4.443  11.532
47828SOL     OW45316   2.306  14.264   7.223
47828SOL    HW145317   2.378  14.260   7.160
47828SOL    HW245318   2.323  14.191   7.282
47829SOL     OW45319   7.900  14.100   2.688
47829SOL    HW145320   7.846  14.135   2.759
47829SOL    HW245321   7.905  14.006   2.706
47830SOL     OW45322   7.366   2.626   3.443
47830SOL    HW145323   7.346   2.633   3.537
47830SOL    HW245324   7.293   2.670   3.400
47831SOL     OW45325  12.044  12.503   8.912
47831SOL    HW145326  11.988  12.564   8.960
47831SOL    HW245327  12.116  12.484   8.973
47832SOL     OW45328   9.387  10.293   8.804
47832SOL    HW145329   9.316  10.233   8.778
47832SOL    HW245330   9.342  10.374   8.828
47833SOL     OW45331   8.762   3.301   2.310
47833SOL    HW145332   8.737   3.355   2.385
47833SOL    HW245333   8.847   3.264   2.334
47834SOL     OW45334   3.793   9.649  10.120
47834SOL    HW145335   3.846   9.619  10.046
47834SOL    HW245336   3.853   9.653  10.193
47835SOL     OW45337   8.366   6.177   0.366
47835SOL    HW145338   8.280   6.136   0.359
47835SOL    HW245339   8.347   6.270   0.380
47836SOL     OW45340   9.270   1.571   7.643
47836SOL    HW145341   9.177   1.575   7.621
47836SOL    HW245342   9.273   1.546   7.735
47837SOL     OW45343  12.635   9.214   3.997
47837SOL    HW145344  12.595   9.133   3.966
47837SOL    HW245345  12.699   9.237   3.929
47838SOL     OW45346  12.418  12.658   5.286
47838SOL    HW145347  12.358  12.613   5.345
47838SOL    HW245348  12.369  12.670   5.205
47839SOL     OW45349   3.004   3.242   6.262
47839SOL    HW145350   3.002   3.310   6.195
47839SOL    HW245351   2.933   3.183   6.238
47840SOL     OW45352   5.668   7.773  10.683
47840SOL    HW145353   5.667   7.837  10.612
47840SOL    HW245354   5.719   7.815  10.753
47841SOL     OW45355   0.716   8.956   5.378
47841SOL    HW145356   0.801   8.997   5.362
47841SOL    HW245357   0.724   8.868   5.341
47842SOL     OW45358   7.594   6.944   5.781
47842SOL    HW145359   7.674   6.906   5.818
47842SOL    HW245360   7.547   6.978   5.856
47843SOL     OW45361   1.135  12.108   8.864
47843SOL    HW145362   1.229  12.097   8.877
47843SOL    HW245363   1.114  12.189   8.910
47844SOL     OW45364  10.612   3.919   5.524
47844SOL    HW145365  10.674   3.904   5.453
47844SOL    HW245366  10.661   3.897   5.604
47845SOL     OW45367  13.984   4.253   3.448
47845SOL    HW145368  13.955   4.345   3.446
47845SOL    HW245369  14.045   4.246   3.374
47846SOL     OW45370   3.939  12.777   2.580
47846SOL    HW145371   3.928  12.821   2.496
47846SOL    HW245372   4.021  12.812   2.615
47847SOL     OW45373  13.936  11.409  14.615
47847SOL    HW145374  13.863  11.436  14.559
47847SOL    HW245375  13.901  11.416  14.704
47848SOL     OW45376   5.604  12.322   8.754
47848SOL    HW145377   5.676  12.296   8.811
47848SOL    HW245378   5.593  12.248   8.694
47849SOL     OW45379  13.850   0.015  14.742
47849SOL    HW145380  13.773   0.060  14.777
47849SOL    HW245381  13.814  14.829  14.681
47850SOL     OW45382   6.645  12.332   3.160
47850SOL    HW145383   6.587  12.403   3.188
47850SOL    HW245384   6.596  12.286   3.092
47851SOL     OW45385  14.654   7.195   4.915
47851SOL    HW145386  14.747   7.200   4.938
47851SOL    HW245387  14.614   7.143   4.984
47852SOL     OW45388   7.955   3.853   0.031
47852SOL    HW145389   8.026   3.790   0.043
47852SOL    HW245390   7.968   3.916   0.101
47853SOL     OW45391  14.307   7.479   1.575
47853SOL    HW145392  14.272   7.394   1.601
47853SOL    HW245393  14.399   7.461   1.554
47854SOL     OW45394   9.290   1.736   0.065
47854SOL    HW145395   9.262   1.715   0.154
47854SOL    HW245396   9.242   1.815   0.042
47855SOL     OW45397  11.782   2.844   9.887
47855SOL    HW145398  11.846   2.776   9.868
47855SOL    HW245399  11.814   2.885   9.968
47856SOL     OW45400   2.448   0.216   5.277
47856SOL    HW145401   2.473   0.127   5.299
47856SOL    HW245402   2.481   0.230   5.188
47857SOL     OW45403   6.347   5.971   4.129
47857SOL    HW145404   6.251   5.975   4.139
47857SOL    HW245405   6.367   5.878   4.128
47858SOL     OW45406   6.622  12.273   5.389
47858SOL    HW145407   6.656  12.335   5.453
47858SOL    HW245408   6.695  12.211   5.375
47859SOL     OW45409  13.973  12.666   8.124
47859SOL    HW145410  13.957  12.719   8.046
47859SOL    HW245411  14.003  12.729   8.190
47860SOL     OW45412   7.554  13.530  10.288
47860SOL    HW145413   7.557  13.577  10.372
47860SOL    HW245414   7.477  13.473  10.296
47861SOL     OW45415   1.181  10.169  12.024
47861SOL    HW145416   1.165  10.253  12.067
47861SOL    HW245417   1.240  10.190  11.952
47862SOL     OW45418  13.104   1.653   0.316
47862SOL    HW145419  13.160   1.664   0.393
47862SOL    HW245420  13.148   1.704   0.247
47863SOL     OW45421   6.180  10.446   2.165
47863SOL    HW145422   6.104  10.423   2.112
47863SOL    HW245423   6.203  10.365   2.211
47864SOL     OW45424   6.484   5.575   7.311
47864SOL    HW145425   6.536   5.652   7.330
47864SOL    HW245426   6.546   5.510   7.279
47865SOL     OW45427   3.335  13.050  12.688
47865SOL    HW145428   3.346  12.993  12.612
47865SOL    HW245429   3.421  13.088  12.703
47866SOL     OW45430   2.012  10.835   7.496
47866SOL    HW145431   1.940  10.865   7.441
47866SOL    HW245432   2.091  10.871   7.455
47867SOL     OW45433   0.045   8.853   8.773
47867SOL    HW145434   0.079   8.835   8.861
47867SOL    HW245435   0.039   8.766   8.732
47868SOL     OW45436   3.522   5.214   7.690
47868SOL    HW145437   3.571   5.133   7.707
47868SOL    HW245438   3.589   5.282   7.687
47869SOL     OW45439   9.242  13.333   2.348
47869SOL    HW145440   9.297  13.358   2.422
47869SOL    HW245441   9.155  13.320   2.386
47870SOL     OW45442  12.290   5.720  14.243
47870SOL    HW145443  12.368   5.678  14.207
47870SOL    HW245444  12.241   5.751  14.166
47871SOL     OW45445   4.978   3.183  14.782
47871SOL    HW145446   5.009   3.252  14.841
47871SOL    HW245447   4.984   3.222  14.695
47872SOL     OW45448  10.332   3.549  12.327
47872SOL    HW145449  10.369   3.508  12.405
47872SOL    HW245450  10.309   3.638  12.356
47873SOL     OW45451   9.288   9.713   8.740
47873SOL    HW145452   9.194   9.702   8.752
47873SOL    HW245453   9.327   9.638   8.785
47874SOL     OW45454  10.497  12.429   6.800
47874SOL    HW145455  10.435  12.358   6.819
47874SOL    HW245456  10.463  12.469   6.720
47875SOL     OW45457  14.852  13.318   7.725
47875SOL    HW145458  14.858  13.350   7.815
47875SOL    HW245459  14.869  13.224   7.732
47876SOL     OW45460  12.136   8.039   6.838
47876SOL    HW145461  12.172   7.952   6.857
47876SOL    HW245462  12.042   8.026   6.831
47877SOL     OW45463  14.811   7.593   5.708
47877SOL    HW145464  14.777   7.512   5.669
47877SOL    HW245465   0.003   7.619   5.650
47878SOL     OW45466   4.496   6.619  12.219
47878SOL    HW145467   4.419   6.616  12.276
47878SOL    HW245468   4.564   6.660  12.272
47879SOL     OW45469  10.449  13.571   5.934
47879SOL    HW145470  10.407  13.589   5.850
47879SOL    HW245471  10.542  13.565   5.913
47880SOL     OW45472   9.990   8.137  10.404
47880SOL    HW145473   9.923   8.187  10.358
47880SOL    HW245474  10.000   8.057  10.353
47881SOL     OW45475   9.866   5.823  12.027
47881SOL    HW145476   9.936   5.886  12.008
47881SOL    HW245477   9.822   5.810  11.943
47882SOL     OW45478   1.997   4.601  10.665
47882SOL    HW145479   2.002   4.521  10.612
47882SOL    HW245480   1.980   4.671  10.602
47883SOL     OW45481   9.407  12.362  12.796
47883SOL    HW145482   9.468  12.401  12.733
47883SOL    HW245483   9.321  12.375  12.757
47884SOL     OW45484   0.369   4.780   2.574
47884SOL    HW145485   0.340   4.817   2.490
47884SOL    HW245486   0.301   4.807   2.636
47885SOL     OW45487   0.421  10.233   5.933
47885SOL    HW145488   0.478  10.244   6.009
47885SOL    HW245489   0.338  10.273   5.960
47886SOL     OW45490   1.421  14.643   2.910
47886SOL    HW145491   1.383  14.600   2.987
47886SOL    HW245492   1.402  14.736   2.923
47887SOL     OW45493   3.408  12.159   2.641
47887SOL    HW145494   3.430  12.143   2.550
47887SOL    HW245495   3.492  12.170   2.685
47888SOL     OW45496  14.588   5.832   0.205
47888SOL    HW145497  14.555   5.876   0.127
47888SOL    HW245498  14.510   5.794   0.247
47889SOL     OW45499  10.116  10.257   2.041
47889SOL    HW145500  10.131  10.192   2.109
47889SOL    HW245501  10.025  10.245   2.014
47890SOL     OW45502   3.989   7.929  12.103
47890SOL    HW145503   3.951   7.853  12.058
47890SOL    HW245504   4.069   7.896  12.143
47891SOL     OW45505  11.901   0.586   9.733
47891SOL    HW145506  11.877   0.518   9.796
47891SOL    HW245507  11.952   0.539   9.667
47892SOL     OW45508   9.353  10.086  12.286
47892SOL    HW145509   9.262  10.104  12.309
47892SOL    HW245510   9.398  10.170  12.295
47893SOL     OW45511   5.107  11.672   6.856
47893SOL    HW145512   5.188  11.663   6.806
47893SOL    HW245513   5.039  11.641   6.797
47894SOL     OW45514   8.863  14.226   5.591
47894SOL    HW145515   8.865  14.304   5.536
47894SOL    HW245516   8.788  14.238   5.648
47895SOL     OW45517   8.306   0.686   8.545
47895SOL    HW145518   8.347   0.642   8.619
47895SOL    HW245519   8.327   0.779   8.558
47896SOL     OW45520  12.854   4.187   0.113
47896SOL    HW145521  12.818   4.129   0.046
47896SOL    HW245522  12.948   4.182   0.100
47897SOL     OW45523   7.732   4.843   0.841
47897SOL    HW145524   7.692   4.899   0.908
47897SOL    HW245525   7.661   4.787   0.811
47898SOL     OW45526   9.441   3.372   0.371
47898SOL    HW145527   9.365   3.415   0.411
47898SOL    HW245528   9.489   3.335   0.445
47899SOL     OW45529   5.122  12.675  12.924
47899SOL    HW145530   5.064  12.614  12.971
47899SOL    HW245531   5.075  12.758  12.925
47900SOL     OW45532   5.727   8.762  13.745
47900SOL    HW145533   5.788   8.697  13.709
47900SOL    HW245534   5.763   8.846  13.718
47901SOL     OW45535  14.221   8.043   4.589
47901SOL    HW145536  14.283   7.970   4.599
47901SOL    HW245537  14.152   8.008   4.533
47902SOL     OW45538   9.457   6.769   5.192
47902SOL    HW145539   9.463   6.859   5.158
47902SOL    HW245540   9.455   6.780   5.287
47903SOL     OW45541  10.011   1.109   7.379
47903SOL    HW145542  10.010   1.129   7.472
47903SOL    HW245543  10.031   1.016   7.374
47904SOL     OW45544  10.215   2.968   3.929
47904SOL    HW145545  10.215   2.904   3.858
47904SOL    HW245546  10.268   2.927   3.997
47905SOL     OW45547   0.386   6.414  13.970
47905SOL    HW145548   0.459   6.386  14.026
47905SOL    HW245549   0.352   6.333  13.932
47906SOL     OW45550   9.169   8.111   6.618
47906SOL    HW145551   9.111   8.154   6.555
47906SOL    HW245552   9.257   8.128   6.585
47907SOL     OW45553  10.483   6.972   9.144
47907SOL    HW145554  10.540   6.911   9.190
47907SOL    HW245555  10.425   7.007   9.212
47908SOL     OW45556  12.037   1.705   4.943
47908SOL    HW145557  12.132   1.720   4.937
47908SOL    HW245558  12.017   1.713   5.036
47909SOL     OW45559   7.741  14.854   8.754
47909SOL    HW145560   7.661  14.801   8.758
47909SOL    HW245561   7.804  14.807   8.809
47910SOL     OW45562   4.210   3.572  11.318
47910SOL    HW145563   4.131   3.624  11.333
47910SOL    HW245564   4.235   3.542  11.405
47911SOL     OW45565  14.112   8.553   1.862
47911SOL    HW145566  14.148   8.627   1.815
47911SOL    HW245567  14.038   8.524   1.810
47912SOL     OW45568   5.827   1.221   9.132
47912SOL    HW145569   5.824   1.180   9.045
47912SOL    HW245570   5.894   1.171   9.179
47913SOL     OW45571   3.942  12.317   6.208
47913SOL    HW145572   3.993  12.313   6.289
47913SOL    HW245573   3.978  12.392   6.161
47914SOL     OW45574  14.440   5.728   8.773
47914SOL    HW145575  14.347   5.740   8.795
47914SOL    HW245576  14.481   5.810   8.800
47915SOL     OW45577  13.398   3.017  10.993
47915SOL    HW145578  13.307   3.031  11.018
47915SOL    HW245579  13.437   3.105  10.995
47916SOL     OW45580   9.282   1.163  11.851
47916SOL    HW145581   9.253   1.218  11.924
47916SOL    HW245582   9.367   1.129  11.878
47917SOL     OW45583   3.251   9.156   3.563
47917SOL    HW145584   3.164   9.118   3.573
47917SOL    HW245585   3.237   9.233   3.507
47918SOL     OW45586  11.118   1.747   1.978
47918SOL    HW145587  11.133   1.652   1.985
47918SOL    HW245588  11.027   1.754   1.949
47919SOL     OW45589   9.773  10.907   2.785
47919SOL    HW145590   9.728  10.863   2.857
47919SOL    HW245591   9.774  10.843   2.714
47920SOL     OW45592   1.841   8.401   5.289
47920SOL    HW145593   1.801   8.419   5.204
47920SOL    HW245594   1.911   8.339   5.270
47921SOL     OW45595   5.385   2.350   3.600
47921SOL    HW145596   5.296   2.323   3.623
47921SOL    HW245597   5.397   2.321   3.510
47922SOL     OW45598  14.013   1.242   8.934
47922SOL    HW145599  14.000   1.149   8.915
47922SOL    HW245600  13.936   1.267   8.985
47923SOL     OW45601   9.207  14.172   4.698
47923SOL    HW145602   9.275  14.222   4.742
47923SOL    HW245603   9.185  14.223   4.621
47924SOL     OW45604   1.444  12.726   5.740
47924SOL    HW145605   1.485  12.766   5.663
47924SOL    HW245606   1.506  12.744   5.811
47925SOL     OW45607   7.402   1.036  13.229
47925SOL    HW145608   7.459   0.963  13.254
47925SOL    HW245609   7.435   1.110  13.281
47926SOL     OW45610  13.447  13.578  14.647
47926SOL    HW145611  13.497  13.598  14.726
47926SOL    HW245612  13.401  13.496  14.667
47927SOL     OW45613   6.078   0.274   8.693
47927SOL    HW145614   6.076   0.279   8.788
47927SOL    HW245615   6.049   0.360   8.663
47928SOL     OW45616   6.217   7.690   1.896
47928SOL    HW145617   6.180   7.753   1.958
47928SOL    HW245618   6.154   7.618   1.895
47929SOL     OW45619   2.999  14.477  10.352
47929SOL    HW145620   2.995  14.525  10.435
47929SOL    HW245621   3.076  14.513  10.307
47930SOL     OW45622   1.001   0.176   0.133
47930SOL    HW145623   1.019   0.177   0.227
47930SOL    HW245624   1.072   0.228   0.094
47931SOL     OW45625   5.730  10.732   1.160
47931SOL    HW145626   5.677  10.707   1.084
47931SOL    HW245627   5.670  10.781   1.216
47932SOL     OW45628   5.871  10.827   4.071
47932SOL    HW145629   5.936  10.812   4.139
47932SOL    HW245630   5.909  10.789   3.992
47933SOL     OW45631   3.768  13.552   6.500
47933SOL    HW145632   3.682  13.541   6.458
47933SOL    HW245633   3.823  13.487   6.458
47934SOL     OW45634   1.445   6.015  12.746
47934SOL    HW145635   1.358   6.053  12.758
47934SOL    HW245636   1.488   6.027  12.831
47935SOL     OW45637  12.812  13.406   5.349
47935SOL    HW145638  12.768  13.369   5.425
47935SOL    HW245639  12.750  13.397   5.278
47936SOL     OW45640  14.844   0.744   6.195
47936SOL    HW145641  14.755   0.761   6.166
47936SOL    HW245642  14.842   0.763   6.289
47937SOL     OW45643   6.774   4.061   0.087
47937SOL    HW145644   6.722   3.996   0.039
47937SOL    HW245645   6.781   4.025   0.176
47938SOL     OW45646  12.933   9.371   7.773
47938SOL    HW145647  12.995   9.302   7.796
47938SOL    HW245648  12.920   9.360   7.679
47939SOL     OW45649  12.364   4.141   6.591
47939SOL    HW145650  12.388   4.101   6.507
47939SOL    HW245651  12.290   4.198   6.571
47940SOL     OW45652   1.271  10.007   6.012
47940SOL    HW145653   1.312   9.924   5.987
47940SOL    HW245654   1.192   9.982   6.060
47941SOL     OW45655   5.779  14.385   7.472
47941SOL    HW145656   5.795  14.309   7.527
47941SOL    HW245657   5.841  14.376   7.399
47942SOL     OW45658  14.200  12.317  14.445
47942SOL    HW145659  14.160  12.282  14.525
47942SOL    HW245660  14.147  12.280  14.375
47943SOL     OW45661  11.261   9.302   8.459
47943SOL    HW145662  11.334   9.349   8.419
47943SOL    HW245663  11.282   9.299   8.552
47944SOL     OW45664  11.850   5.383   3.217
47944SOL    HW145665  11.900   5.397   3.137
47944SOL    HW245666  11.833   5.471   3.251
47945SOL     OW45667  12.726   5.904   4.138
47945SOL    HW145668  12.656   5.962   4.169
47945SOL    HW245669  12.802   5.961   4.129
47946SOL     OW45670   0.300   7.984   4.044
47946SOL    HW145671   0.384   7.939   4.046
47946SOL    HW245672   0.317   8.068   4.087
47947SOL     OW45673  10.932   5.211   4.412
47947SOL    HW145674  10.908   5.142   4.474
47947SOL    HW245675  10.853   5.226   4.361
47948SOL     OW45676   3.566  10.797   3.984
47948SOL    HW145677   3.544  10.719   4.035
47948SOL    HW245678   3.482  10.824   3.944
47949SOL     OW45679   7.207   3.253  11.492
47949SOL    HW145680   7.251   3.322  11.540
47949SOL    HW245681   7.201   3.180  11.554
47950SOL     OW45682  13.472  12.348   1.526
47950SOL    HW145683  13.448  12.390   1.609
47950SOL    HW245684  13.522  12.414   1.479
47951SOL     OW45685   5.007   9.009  12.782
47951SOL    HW145686   5.014   8.923  12.823
47951SOL    HW245687   4.940   9.054  12.833
47952SOL     OW45688   6.926  10.631  10.721
47952SOL    HW145689   6.832  10.614  10.735
47952SOL    HW245690   6.928  10.718  10.681
47953SOL     OW45691  10.890   0.686   6.634
47953SOL    HW145692  10.812   0.715   6.682
47953SOL    HW245693  10.855   0.645   6.555
47954SOL     OW45694  11.507   8.217   7.653
47954SOL    HW145695  11.431   8.163   7.631
47954SOL    HW245696  11.547   8.173   7.728
47955SOL     OW45697  11.956   3.326   3.758
47955SOL    HW145698  11.889   3.329   3.690
47955SOL    HW245699  12.031   3.372   3.721
47956SOL     OW45700   1.978   7.286   6.450
47956SOL    HW145701   2.065   7.303   6.414
47956SOL    HW245702   1.988   7.297   6.544
47957SOL     OW45703   9.207   1.128   2.211
47957SOL    HW145704   9.144   1.181   2.163
47957SOL    HW245705   9.154   1.074   2.270
47958SOL     OW45706  13.210  14.315   4.285
47958SOL    HW145707  13.262  14.288   4.209
47958SOL    HW245708  13.274  14.359   4.342
47959SOL     OW45709  14.740   7.139   2.267
47959SOL    HW145710  14.807   7.130   2.198
47959SOL    HW245711  14.700   7.224   2.251
47960SOL     OW45712   6.040  13.202  14.844
47960SOL    HW145713   5.988  13.190   0.044
47960SOL    HW245714   5.994  13.153  14.777
47961SOL     OW45715  10.342   5.986   6.656
47961SOL    HW145716  10.403   5.983   6.582
47961SOL    HW245717  10.257   5.965   6.618
47962SOL     OW45718  14.424   5.737  12.034
47962SOL    HW145719  14.438   5.814  12.090
47962SOL    HW245720  14.472   5.667  12.079
47963SOL     OW45721   0.828  13.878   0.301
47963SOL    HW145722   0.805  13.939   0.371
47963SOL    HW245723   0.923  13.869   0.306
47964SOL     OW45724  11.346   8.742   1.068
47964SOL    HW145725  11.316   8.675   1.008
47964SOL    HW245726  11.269   8.797   1.084
47965SOL     OW45727   9.234   5.578   7.004
47965SOL    HW145728   9.264   5.494   7.037
47965SOL    HW245729   9.267   5.581   6.914
47966SOL     OW45730   4.401   8.438   0.359
47966SOL    HW145731   4.495   8.450   0.374
47966SOL    HW245732   4.394   8.350   0.321
47967SOL     OW45733   6.950  13.973  10.414
47967SOL    HW145734   6.901  13.891  10.412
47967SOL    HW245735   7.038  13.949  10.385
47968SOL     OW45736   6.856   4.328  13.749
47968SOL    HW145737   6.806   4.384  13.690
47968SOL    HW245738   6.946   4.358  13.740
47969SOL     OW45739   6.376  13.164   6.159
47969SOL    HW145740   6.344  13.122   6.239
47969SOL    HW245741   6.384  13.256   6.182
47970SOL     OW45742   6.378   9.562  12.975
47970SOL    HW145743   6.329   9.555  12.893
47970SOL    HW245744   6.373   9.655  12.998
47971SOL     OW45745   8.437  12.142   6.827
47971SOL    HW145746   8.348  12.162   6.797
47971SOL    HW245747   8.442  12.047   6.825
47972SOL     OW45748   0.184  13.358   0.865
47972SOL    HW145749   0.115  13.354   0.931
47972SOL    HW245750   0.138  13.343   0.782
47973SOL     OW45751   3.911  14.277   7.484
47973SOL    HW145752   3.899  14.240   7.396
47973SOL    HW245753   3.964  14.355   7.470
47974SOL     OW45754   8.142   2.243  14.379
47974SOL    HW145755   8.226   2.254  14.424
47974SOL    HW245756   8.119   2.332  14.351
47975SOL     OW45757   4.145   8.059   2.427
47975SOL    HW145758   4.125   7.980   2.477
47975SOL    HW245759   4.134   8.033   2.335
47976SOL     OW45760  11.991   7.190   5.608
47976SOL    HW145761  12.060   7.253   5.587
47976SOL    HW245762  11.909   7.235   5.587
47977SOL     OW45763  12.677   5.222  14.701
47977SOL    HW145764  12.686   5.144  14.757
47977SOL    HW245765  12.636   5.189  14.620
47978SOL     OW45766  13.508   2.592   7.381
47978SOL    HW145767  13.506   2.688   7.381
47978SOL    HW245768  13.418   2.567   7.358
47979SOL     OW45769   9.489  10.004  11.631
47979SOL    HW145770   9.439  10.068  11.581
47979SOL    HW245771   9.476   9.922  11.584
47980SOL     OW45772  12.681  12.956   7.045
47980SOL    HW145773  12.763  12.934   7.000
47980SOL    HW245774  12.667  13.048   7.026
47981SOL     OW45775  11.861  13.586   0.584
47981SOL    HW145776  11.922  13.552   0.518
47981SOL    HW245777  11.810  13.652   0.537
47982SOL     OW45778   8.911   2.281   0.485
47982SOL    HW145779   9.000   2.316   0.488
47982SOL    HW245780   8.913   2.205   0.543
47983SOL     OW45781   0.040  13.910   7.329
47983SOL    HW145782  14.827  13.918   7.303
47983SOL    HW245783   0.088  13.914   7.246
47984SOL     OW45784   6.044   5.549   8.038
47984SOL    HW145785   6.023   5.533   8.130
47984SOL    HW245786   6.029   5.465   7.995
47985SOL     OW45787  14.665   6.460   2.838
47985SOL    HW145788  14.644   6.391   2.900
47985SOL    HW245789  14.632   6.540   2.878
47986SOL     OW45790   7.146  13.692   1.283
47986SOL    HW145791   7.157  13.597   1.292
47986SOL    HW245792   7.075  13.713   1.344
47987SOL     OW45793   0.247  12.049  12.541
47987SOL    HW145794   0.256  12.142  12.562
47987SOL    HW245795   0.263  12.003  12.624
47988SOL     OW45796   5.388   2.116   5.347
47988SOL    HW145797   5.372   2.171   5.424
47988SOL    HW245798   5.454   2.164   5.297
47989SOL     OW45799   0.098   4.189  13.745
47989SOL    HW145800   0.049   4.222  13.670
47989SOL    HW245801   0.119   4.266  13.797
47990SOL     OW45802   7.388   6.270  14.737
47990SOL    HW145803   7.464   6.262  14.794
47990SOL    HW245804   7.425   6.287  14.650
47991SOL     OW45805  12.440   3.376  14.253
47991SOL    HW145806  12.461   3.459  14.296
47991SOL    HW245807  12.446   3.395  14.159
47992SOL     OW45808   3.834   5.655  10.275
47992SOL    HW145809   3.814   5.733  10.327
47992SOL    HW245810   3.865   5.690  10.191
47993SOL     OW45811   8.294  13.400  12.350
47993SOL    HW145812   8.279  13.310  12.379
47993SOL    HW245813   8.373  13.427  12.398
47994SOL     OW45814   7.472  12.406  11.155
47994SOL    HW145815   7.400  12.359  11.197
47994SOL    HW245816   7.504  12.467  11.221
47995SOL     OW45817  14.122   8.441   1.586
47995SOL    HW145818  14.167   8.525   1.587
47995SOL    HW245819  14.032   8.462   1.609
47996SOL     OW45820  12.403   8.142   3.231
47996SOL    HW145821  12.450   8.073   3.185
47996SOL    HW245822  12.315   8.139   3.194
47997SOL     OW45823   4.810   4.555  10.103
47997SOL    HW145824   4.786   4.642  10.071
47997SOL    HW245825   4.822   4.503  10.023
47998SOL     OW45826  11.064   8.472   7.401
47998SOL    HW145827  10.987   8.444   7.351
47998SOL    HW245828  11.124   8.507   7.336
47999SOL     OW45829   4.350  14.488   6.992
47999SOL    HW145830   4.411  14.547   6.950
47999SOL    HW245831   4.327  14.424   6.925
48000SOL     OW45832   9.159   2.011  12.753
48000SOL    HW145833   9.117   1.953  12.689
48000SOL    HW245834   9.186   2.087  12.703
48001SOL     OW45835   7.035   7.964   9.405
48001SOL    HW145836   7.028   8.016   9.486
48001SOL    HW245837   7.092   7.891   9.429
48002SOL     OW45838   2.716   6.436   8.906
48002SOL    HW145839   2.704   6.350   8.865
48002SOL    HW245840   2.705   6.498   8.833
48003SOL     OW45841  10.989  10.894   1.530
48003SOL    HW145842  10.956  10.980   1.557
48003SOL    HW245843  10.986  10.896   1.434
48004SOL     OW45844  10.737  13.413   2.376
48004SOL    HW145845  10.789  13.492   2.391
48004SOL    HW245846  10.784  13.345   2.424
48005SOL     OW45847  13.309   7.514   2.284
48005SOL    HW145848  13.318   7.429   2.326
48005SOL    HW245849  13.216   7.520   2.261
48006SOL     OW45850   6.002   9.808   8.832
48006SOL    HW145851   6.060   9.846   8.898
48006SOL    HW245852   5.955   9.739   8.879
48007SOL     OW45853  11.058   9.444   8.343
48007SOL    HW145854  11.138   9.414   8.386
48007SOL    HW245855  11.057   9.400   8.258
48008SOL     OW45856   2.639   7.207   1.246
48008SOL    HW145857   2.707   7.238   1.187
48008SOL    HW245858   2.667   7.120   1.273
48009SOL     OW45859   4.601   5.044   6.644
48009SOL    HW145860   4.510   5.014   6.645
48009SOL    HW245861   4.647   4.977   6.593
48010SOL     OW45862   2.098   5.445   6.476
48010SOL    HW145863   2.045   5.450   6.396
48010SOL    HW245864   2.185   5.422   6.445
48011SOL     OW45865   5.686  11.163  13.683
48011SOL    HW145866   5.730  11.186  13.601
48011SOL    HW245867   5.606  11.216  13.684
48012SOL     OW45868   5.325   7.395  12.887
48012SOL    HW145869   5.239   7.430  12.911
48012SOL    HW245870   5.388   7.457  12.926
48013SOL     OW45871  10.809   7.542   7.313
48013SOL    HW145872  10.877   7.497   7.364
48013SOL    HW245873  10.825   7.516   7.223
48014SOL     OW45874  11.180   3.432   3.565
48014SOL    HW145875  11.224   3.408   3.647
48014SOL    HW245876  11.129   3.354   3.542
48015SOL     OW45877   3.984   7.210   7.498
48015SOL    HW145878   3.900   7.165   7.499
48015SOL    HW245879   4.011   7.209   7.406
48016SOL     OW45880   3.850   1.754   6.550
48016SOL    HW145881   3.901   1.787   6.624
48016SOL    HW245882   3.807   1.832   6.514
48017SOL     OW45883   5.923   0.203  14.087
48017SOL    HW145884   5.854   0.264  14.061
48017SOL    HW245885   5.900   0.176  14.176
48018SOL     OW45886  12.215   2.653   7.774
48018SOL    HW145887  12.290   2.623   7.723
48018SOL    HW245888  12.199   2.582   7.837
48019SOL     OW45889   9.033   3.941   3.880
48019SOL    HW145890   9.026   4.034   3.858
48019SOL    HW245891   8.961   3.924   3.940
48020SOL     OW45892   5.018   4.418   4.336
48020SOL    HW145893   4.990   4.329   4.358
48020SOL    HW245894   5.105   4.406   4.298
48021SOL     OW45895   1.847  10.873   8.725
48021SOL    HW145896   1.875  10.927   8.651
48021SOL    HW245897   1.832  10.935   8.796
48022SOL     OW45898   8.008   6.246   2.558
48022SOL    HW145899   8.100   6.222   2.570
48022SOL    HW245900   7.971   6.175   2.506
48023SOL     OW45901   8.318  12.872   9.210
48023SOL    HW145902   8.310  12.890   9.303
48023SOL    HW245903   8.389  12.809   9.203
48024SOL     OW45904   4.265  14.039  13.593
48024SOL    HW145905   4.193  14.073  13.645
48024SOL    HW245906   4.225  14.012  13.511
48025SOL     OW45907   4.839   4.257   9.463
48025SOL    HW145908   4.832   4.241   9.369
48025SOL    HW245909   4.799   4.343   9.476
48026SOL     OW45910   0.232  14.671  14.715
48026SOL    HW145911   0.144  14.704  14.728
48026SOL    HW245912   0.242  14.602  14.780
48027SOL     OW45913   8.710   8.375  11.815
48027SOL    HW145914   8.757   8.314  11.758
48027SOL    HW245915   8.693   8.451  11.761
48028SOL     OW45916   5.221  12.084   8.853
48028SOL    HW145917   5.239  12.178   8.862
48028SOL    HW245918   5.157  12.065   8.922
48029SOL     OW45919  14.457   8.847   6.668
48029SOL    HW145920  14.444   8.753   6.676
48029SOL    HW245921  14.540   8.864   6.712
48030SOL     OW45922   1.597   2.751   8.108
48030SOL    HW145923   1.558   2.830   8.148
48030SOL    HW245924   1.684   2.779   8.080
48031SOL     OW45925   9.971   3.445   4.953
48031SOL    HW145926   9.985   3.362   4.998
48031SOL    HW245927  10.009   3.433   4.867
48032SOL     OW45928   9.621   4.556   4.602
48032SOL    HW145929   9.638   4.577   4.510
48032SOL    HW245930   9.696   4.591   4.649
48033SOL     OW45931   0.092  11.861   4.762
48033SOL    HW145932   0.108  11.778   4.806
48033SOL    HW245933   0.002  11.884   4.786
48034SOL     OW45934   4.379   7.760   1.518
48034SOL    HW145935   4.417   7.805   1.594
48034SOL    HW245936   4.430   7.679   1.511
48035SOL     OW45937   9.641   1.713   4.862
48035SOL    HW145938   9.603   1.634   4.899
48035SOL    HW245939   9.710   1.681   4.804
48036SOL     OW45940   1.778   5.113  10.106
48036SOL    HW145941   1.788   5.044  10.041
48036SOL    HW245942   1.745   5.188  10.057
48037SOL     OW45943   8.031   0.448  12.093
48037SOL    HW145944   7.940   0.445  12.064
48037SOL    HW245945   8.077   0.388  12.035
48038SOL     OW45946   2.578  11.354  14.667
48038SOL    HW145947   2.583  11.406  14.747
48038SOL    HW245948   2.489  11.370  14.634
48039SOL     OW45949   4.868   1.103   7.519
48039SOL    HW145950   4.932   1.039   7.549
48039SOL    HW245951   4.786   1.077   7.561
48040SOL     OW45952  12.449   1.868   2.371
48040SOL    HW145953  12.518   1.867   2.438
48040SOL    HW245954  12.370   1.891   2.419
48041SOL     OW45955   4.523   4.891   4.399
48041SOL    HW145956   4.578   4.896   4.320
48041SOL    HW245957   4.479   4.806   4.392
48042SOL     OW45958  11.240  11.314   9.794
48042SOL    HW145959  11.321  11.301   9.843
48042SOL    HW245960  11.226  11.231   9.748
48043SOL     OW45961  10.741   1.632   9.967
48043SOL    HW145962  10.806   1.602  10.031
48043SOL    HW245963  10.775   1.716   9.936
48044SOL     OW45964  14.665   7.998   4.528
48044SOL    HW145965  14.733   7.968   4.588
48044SOL    HW245966  14.596   8.032   4.584
48045SOL     OW45967   4.569   7.010   6.350
48045SOL    HW145968   4.596   6.944   6.286
48045SOL    HW245969   4.608   6.981   6.432
48046SOL     OW45970   6.247   6.795  13.529
48046SOL    HW145971   6.298   6.798  13.448
48046SOL    HW245972   6.240   6.702  13.550
48047SOL     OW45973   2.266  12.892   8.338
48047SOL    HW145974   2.337  12.950   8.309
48047SOL    HW245975   2.214  12.946   8.397
48048SOL     OW45976  10.761   5.828   3.635
48048SOL    HW145977  10.837   5.880   3.658
48048SOL    HW245978  10.762   5.755   3.696
48049SOL     OW45979   1.052   6.254   6.828
48049SOL    HW145980   1.131   6.200   6.836
48049SOL    HW245981   0.980   6.196   6.852
48050SOL     OW45982  10.536   0.353  10.985
48050SOL    HW145983  10.450   0.335  11.024
48050SOL    HW245984  10.597   0.340  11.057
48051SOL     OW45985   1.096   5.680   7.673
48051SOL    HW145986   1.017   5.664   7.621
48051SOL    HW245987   1.168   5.670   7.612
48052SOL     OW45988  12.546  10.179   5.545
48052SOL    HW145989  12.504  10.265   5.544
48052SOL    HW245990  12.638  10.198   5.563
48053SOL     OW45991   2.641  12.279   8.818
48053SOL    HW145992   2.710  12.332   8.858
48053SOL    HW245993   2.687  12.224   8.755
48054SOL     OW45994   2.185   6.804  14.103
48054SOL    HW145995   2.243   6.809  14.179
48054SOL    HW245996   2.235   6.846  14.033
48055SOL     OW45997   4.321   3.397  13.267
48055SOL    HW145998   4.367   3.336  13.209
48055SOL    HW245999   4.229   3.387  13.244
48056SOL     OW46000   1.855   2.265   4.183
48056SOL    HW146001   1.899   2.287   4.100
48056SOL    HW246002   1.774   2.222   4.156
48057SOL     OW46003  11.605   1.981   7.024
48057SOL    HW146004  11.544   1.964   7.097
48057SOL    HW246005  11.660   2.053   7.056
48058SOL     OW46006   6.527  12.985   9.330
48058SOL    HW146007   6.508  13.031   9.412
48058SOL    HW246008   6.618  13.008   9.310
48059SOL     OW46009   2.791   1.142   9.685
48059SOL    HW146010   2.697   1.128   9.673
48059SOL    HW246011   2.824   1.164   9.598
48060SOL     OW46012  14.796   7.684   6.716
48060SOL    HW146013  14.809   7.674   6.622
48060SOL    HW246014  14.766   7.597   6.745
48061SOL     OW46015  12.446  13.132  10.238
48061SOL    HW146016  12.370  13.182  10.208
48061SOL    HW246017  12.516  13.158  10.179
48062SOL     OW46018   5.866   5.935   2.963
48062SOL    HW146019   5.800   5.956   3.029
48062SOL    HW246020   5.817   5.904   2.887
48063SOL     OW46021   5.236   0.585   8.161
48063SOL    HW146022   5.282   0.503   8.181
48063SOL    HW246023   5.178   0.598   8.236
48064SOL     OW46024  12.615  11.107  12.100
48064SOL    HW146025  12.668  11.028  12.107
48064SOL    HW246026  12.678  11.176  12.079
48065SOL     OW46027   1.327   3.081   8.387
48065SOL    HW146028   1.364   3.169   8.399
48065SOL    HW246029   1.252   3.079   8.445
48066SOL     OW46030   4.727  11.212   2.391
48066SOL    HW146031   4.683  11.214   2.306
48066SOL    HW246032   4.765  11.125   2.397
48067SOL     OW46033   7.190   3.803   8.725
48067SOL    HW146034   7.252   3.730   8.730
48067SOL    HW246035   7.205   3.842   8.639
48068SOL     OW46036   3.683   5.655   5.590
48068SOL    HW146037   3.742   5.651   5.666
48068SOL    HW246038   3.711   5.734   5.543
48069SOL     OW46039  10.492  12.342  11.880
48069SOL    HW146040  10.519  12.413  11.822
48069SOL    HW246041  10.563  12.333  11.942
48070SOL     OW46042   3.443   2.694   9.251
48070SOL    HW146043   3.481   2.781   9.259
48070SOL    HW246044   3.353   2.705   9.282
48071SOL     OW46045  12.373  11.342   3.528
48071SOL    HW146046  12.461  11.336   3.564
48071SOL    HW246047  12.353  11.253   3.499
48072SOL     OW46048   3.736   3.528   5.841
48072SOL    HW146049   3.778   3.478   5.911
48072SOL    HW246050   3.689   3.598   5.887
48073SOL     OW46051   9.020   6.088   3.253
48073SOL    HW146052   9.073   6.033   3.196
48073SOL    HW246053   9.081   6.152   3.289
48074SOL     OW46054   4.163  13.013  12.323
48074SOL    HW146055   4.132  13.086  12.270
48074SOL    HW246056   4.127  12.936  12.280
48075SOL     OW46057   8.799   4.017   8.709
48075SOL    HW146058   8.774   3.928   8.737
48075SOL    HW246059   8.842   4.004   8.625
48076SOL     OW46060   3.291   8.976  14.105
48076SOL    HW146061   3.283   8.882  14.123
48076SOL    HW246062   3.336   9.012  14.181
48077SOL     OW46063   3.185  11.652   2.650
48077SOL    HW146064   3.210  11.579   2.593
48077SOL    HW246065   3.211  11.730   2.601
48078SOL     OW46066   8.777   6.304   6.936
48078SOL    HW146067   8.855   6.259   6.903
48078SOL    HW246068   8.705   6.246   6.915
48079SOL     OW46069   2.955  14.131   3.305
48079SOL    HW146070   2.860  14.122   3.307
48079SOL    HW246071   2.980  14.137   3.397
48080SOL     OW46072  11.994  12.011  13.862
48080SOL    HW146073  12.010  11.926  13.820
48080SOL    HW246074  12.079  12.054  13.862
48081SOL     OW46075   8.197   2.981  12.901
48081SOL    HW146076   8.207   3.040  12.975
48081SOL    HW246077   8.184   2.895  12.941
48082SOL     OW46078  12.975  14.835  10.778
48082SOL    HW146079  13.017   0.038  10.802
48082SOL    HW246080  12.881  14.854  10.784
48083SOL     OW46081  11.552   5.004   4.926
48083SOL    HW146082  11.510   4.924   4.894
48083SOL    HW246083  11.486   5.044   4.984
48084SOL     OW46084   5.354   7.649   1.971
48084SOL    HW146085   5.310   7.621   1.891
48084SOL    HW246086   5.443   7.670   1.943
48085SOL     OW46087   1.241   2.122  11.983
48085SOL    HW146088   1.196   2.040  12.002
48085SOL    HW246089   1.187   2.163  11.915
48086SOL     OW46090   1.536  11.984   6.249
48086SOL    HW146091   1.490  11.914   6.297
48086SOL    HW246092   1.594  11.938   6.189
48087SOL     OW46093  10.606   3.028   5.703
48087SOL    HW146094  10.622   2.989   5.789
48087SOL    HW246095  10.618   2.956   5.641
48088SOL     OW46096   8.204   2.067  13.957
48088SOL    HW146097   8.281   2.102  14.002
48088SOL    HW246098   8.176   1.993  14.013
48089SOL     OW46099   0.367   2.624  14.004
48089SOL    HW146100   0.420   2.610  13.925
48089SOL    HW246101   0.399   2.558  14.066
48090SOL     OW46102  13.715  10.518   0.882
48090SOL    HW146103  13.715  10.430   0.920
48090SOL    HW246104  13.623  10.541   0.873
48091SOL     OW46105   3.475   4.674   7.737
48091SOL    HW146106   3.421   4.669   7.658
48091SOL    HW246107   3.553   4.721   7.709
48092SOL     OW46108   5.690   4.833   0.171
48092SOL    HW146109   5.641   4.913   0.192
48092SOL    HW246110   5.697   4.834   0.076
48093SOL     OW46111   8.391   8.644   2.925
48093SOL    HW146112   8.313   8.697   2.907
48093SOL    HW246113   8.381   8.566   2.870
48094SOL     OW46114   9.481   9.919   0.681
48094SOL    HW146115   9.425   9.959   0.747
48094SOL    HW246116   9.472   9.825   0.696
48095SOL     OW46117   9.995  11.496   2.056
48095SOL    HW146118  10.005  11.585   2.090
48095SOL    HW246119  10.055  11.443   2.108
48096SOL     OW46120   0.646  14.662  10.461
48096SOL    HW146121   0.603  14.657  10.547
48096SOL    HW246122   0.728  14.614  10.472
48097SOL     OW46123   6.697  12.667   4.098
48097SOL    HW146124   6.681  12.628   4.012
48097SOL    HW246125   6.789  12.648   4.116
48098SOL     OW46126   4.040   1.182   3.716
48098SOL    HW146127   4.111   1.127   3.683
48098SOL    HW246128   4.069   1.209   3.804
48099SOL     OW46129   8.594  10.351   6.282
48099SOL    HW146130   8.685  10.329   6.263
48099SOL    HW246131   8.589  10.351   6.378
48100SOL     OW46132  12.124   8.304   0.400
48100SOL    HW146133  12.209   8.275   0.367
48100SOL    HW246134  12.074   8.223   0.414
48101SOL     OW46135   6.186   0.752   8.124
48101SOL    HW146136   6.160   0.809   8.196
48101SOL    HW246137   6.265   0.708   8.155
48102SOL     OW46138  11.733  13.943   9.718
48102SOL    HW146139  11.745  13.848   9.720
48102SOL    HW246140  11.643  13.956   9.747
48103SOL     OW46141   4.689  14.576   5.343
48103SOL    HW146142   4.707  14.519   5.418
48103SOL    HW246143   4.594  14.589   5.345
48104SOL     OW46144   2.307   5.011   0.734
48104SOL    HW146145   2.216   5.004   0.707
48104SOL    HW246146   2.304   5.047   0.822
48105SOL     OW46147   6.375  13.062   4.192
48105SOL    HW146148   6.291  13.105   4.175
48105SOL    HW246149   6.428  13.083   4.115
48106SOL     OW46150   4.928   2.996   3.670
48106SOL    HW146151   4.992   2.990   3.742
48106SOL    HW246152   4.980   2.982   3.591
48107SOL     OW46153   5.172   7.582   4.099
48107SOL    HW146154   5.135   7.596   4.012
48107SOL    HW246155   5.265   7.567   4.084
48108SOL     OW46156   1.923  11.666   6.231
48108SOL    HW146157   1.947  11.578   6.202
48108SOL    HW246158   1.871  11.651   6.310
48109SOL     OW46159   4.876  13.105  11.163
48109SOL    HW146160   4.922  13.153  11.094
48109SOL    HW246161   4.946  13.074  11.221
48110SOL     OW46162  10.304   3.132   8.368
48110SOL    HW146163  10.311   3.178   8.284
48110SOL    HW246164  10.257   3.051   8.347
48111SOL     OW46165   1.115   6.199   8.129
48111SOL    HW146166   1.076   6.111   8.123
48111SOL    HW246167   1.040   6.258   8.137
48112SOL     OW46168   4.159   6.447  14.493
48112SOL    HW146169   4.245   6.453  14.452
48112SOL    HW246170   4.155   6.523  14.551
48113SOL     OW46171  12.692   3.528   8.563
48113SOL    HW146172  12.613   3.483   8.592
48113SOL    HW246173  12.725   3.473   8.491
48114SOL     OW46174   6.618  14.528   6.381
48114SOL    HW146175   6.585  14.443   6.413
48114SOL    HW246176   6.551  14.591   6.408
48115SOL     OW46177   3.621   6.764   4.479
48115SOL    HW146178   3.553   6.822   4.512
48115SOL    HW246179   3.605   6.761   4.384
48116SOL     OW46180   3.138   1.285   6.016
48116SOL    HW146181   3.226   1.302   6.051
48116SOL    HW246182   3.081   1.289   6.093
48117SOL     OW46183   8.700   0.194  12.907
48117SOL    HW146184   8.705   0.123  12.971
48117SOL    HW246185   8.723   0.273  12.957
48118SOL     OW46186   2.950   6.104   2.355
48118SOL    HW146187   2.894   6.032   2.384
48118SOL    HW246188   2.914   6.130   2.270
48119SOL     OW46189   0.559   7.741   5.634
48119SOL    HW146190   0.540   7.709   5.546
48119SOL    HW246191   0.624   7.810   5.621
48120SOL     OW46192  12.018  11.809  11.897
48120SOL    HW146193  12.013  11.839  11.807
48120SOL    HW246194  11.964  11.730  11.899
48121SOL     OW46195   1.791  11.944   8.218
48121SOL    HW146196   1.843  12.018   8.251
48121SOL    HW246197   1.787  11.959   8.123
48122SOL     OW46198  12.029   8.345  13.496
48122SOL    HW146199  11.971   8.406  13.451
48122SOL    HW246200  12.043   8.274  13.433
48123SOL     OW46201   4.521   3.891   2.739
48123SOL    HW146202   4.534   3.978   2.700
48123SOL    HW246203   4.588   3.836   2.697
48124SOL     OW46204  13.925   4.867   0.301
48124SOL    HW146205  13.933   4.823   0.216
48124SOL    HW246206  13.833   4.892   0.306
48125SOL     OW46207   3.093   4.743   2.528
48125SOL    HW146208   3.050   4.829   2.529
48125SOL    HW246209   3.172   4.756   2.580
48126SOL     OW46210  12.184  11.905   5.978
48126SOL    HW146211  12.184  11.865   5.891
48126SOL    HW246212  12.137  11.987   5.967
48127SOL     OW46213  13.143   4.859   2.500
48127SOL    HW146214  13.092   4.866   2.420
48127SOL    HW246215  13.234   4.866   2.471
48128SOL     OW46216   9.317   5.670   4.505
48128SOL    HW146217   9.244   5.730   4.521
48128SOL    HW246218   9.293   5.589   4.549
48129SOL     OW46219  14.333   8.959  12.664
48129SOL    HW146220  14.276   9.035  12.651
48129SOL    HW246221  14.273   8.887  12.683
48130SOL     OW46222   9.909  11.821   9.738
48130SOL    HW146223   9.869  11.880   9.674
48130SOL    HW246224   9.979  11.777   9.691
48131SOL     OW46225   9.334   1.931   5.556
48131SOL    HW146226   9.316   1.899   5.468
48131SOL    HW246227   9.337   2.027   5.546
48132SOL     OW46228   0.547   9.529  11.872
48132SOL    HW146229   0.568   9.585  11.946
48132SOL    HW246230   0.452   9.532  11.866
48133SOL     OW46231   7.493  13.713   4.803
48133SOL    HW146232   7.401  13.697   4.827
48133SOL    HW246233   7.540  13.637   4.836
48134SOL     OW46234   2.451   4.690   1.470
48134SOL    HW146235   2.368   4.677   1.425
48134SOL    HW246236   2.428   4.733   1.552
48135SOL     OW46237   4.924   4.718   4.716
48135SOL    HW146238   4.871   4.742   4.792
48135SOL    HW246239   4.920   4.623   4.713
48136SOL     OW46240   6.363  10.166   9.003
48136SOL    HW146241   6.395  10.249   8.969
48136SOL    HW246242   6.381  10.103   8.933
48137SOL     OW46243   8.698   0.400   8.505
48137SOL    HW146244   8.781   0.419   8.460
48137SOL    HW246245   8.630   0.420   8.441
48138SOL     OW46246   4.078   2.017   8.181
48138SOL    HW146247   4.063   2.039   8.089
48138SOL    HW246248   4.025   2.079   8.230
48139SOL     OW46249   4.526  11.490  12.870
48139SOL    HW146250   4.618  11.513  12.882
48139SOL    HW246251   4.520  11.399  12.899
48140SOL     OW46252   9.023   1.921   5.729
48140SOL    HW146253   8.941   1.949   5.770
48140SOL    HW246254   9.090   1.975   5.771
48141SOL     OW46255   8.948   7.170   2.482
48141SOL    HW146256   8.893   7.205   2.412
48141SOL    HW246257   8.891   7.171   2.559
48142SOL     OW46258   5.964  12.538   4.362
48142SOL    HW146259   6.037  12.480   4.386
48142SOL    HW246260   6.005  12.608   4.311
48143SOL     OW46261  11.841  10.940  11.141
48143SOL    HW146262  11.899  10.914  11.212
48143SOL    HW246263  11.799  10.858  11.113
48144SOL     OW46264   7.087   3.008   6.841
48144SOL    HW146265   7.163   2.965   6.801
48144SOL    HW246266   7.115   3.098   6.854
48145SOL     OW46267   2.446   8.216   8.425
48145SOL    HW146268   2.505   8.144   8.405
48145SOL    HW246269   2.363   8.192   8.383
48146SOL     OW46270   0.703   1.475   3.222
48146SOL    HW146271   0.626   1.434   3.262
48146SOL    HW246272   0.675   1.497   3.133
48147SOL     OW46273   7.974   3.274  10.558
48147SOL    HW146274   8.015   3.203  10.608
48147SOL    HW246275   7.939   3.231  10.480
48148SOL     OW46276   5.768   2.118   0.928
48148SOL    HW146277   5.677   2.141   0.945
48148SOL    HW246278   5.809   2.120   1.015
48149SOL     OW46279   2.589   0.769   0.702
48149SOL    HW146280   2.507   0.804   0.667
48149SOL    HW246281   2.572   0.676   0.716
48150SOL     OW46282   9.533  11.314  11.134
48150SOL    HW146283   9.615  11.300  11.183
48150SOL    HW246284   9.527  11.409  11.125
48151SOL     OW46285   2.404   8.581   2.045
48151SOL    HW146286   2.401   8.486   2.036
48151SOL    HW246287   2.497   8.603   2.036
48152SOL     OW46288  14.479  13.695   2.012
48152SOL    HW146289  14.434  13.759   1.957
48152SOL    HW246290  14.498  13.743   2.093
48153SOL     OW46291  10.694   2.762   3.409
48153SOL    HW146292  10.607   2.747   3.445
48153SOL    HW246293  10.700   2.702   3.335
48154SOL     OW46294   0.162  13.746   7.528
48154SOL    HW146295   0.126  13.809   7.465
48154SOL    HW246296   0.147  13.661   7.488
48155SOL     OW46297  12.640   6.791   5.617
48155SOL    HW146298  12.723   6.836   5.603
48155SOL    HW246299  12.641   6.719   5.554
48156SOL     OW46300  13.964  13.994   4.861
48156SOL    HW146301  13.912  13.932   4.810
48156SOL    HW246302  13.905  14.068   4.877
48157SOL     OW46303   4.498  12.445  14.786
48157SOL    HW146304   4.449  12.517  14.826
48157SOL    HW246305   4.544  12.486  14.712
48158SOL     OW46306   9.793   5.329   3.767
48158SOL    HW146307   9.717   5.271   3.771
48158SOL    HW246308   9.764   5.403   3.714
48159SOL     OW46309   1.774   7.562   1.417
48159SOL    HW146310   1.698   7.523   1.460
48159SOL    HW246311   1.799   7.635   1.474
48160SOL     OW46312   2.895   4.564   2.016
48160SOL    HW146313   2.897   4.502   2.090
48160SOL    HW246314   2.975   4.545   1.967
48161SOL     OW46315  13.808   3.197   6.120
48161SOL    HW146316  13.770   3.125   6.170
48161SOL    HW246317  13.733   3.237   6.076
48162SOL     OW46318   3.890  12.706   1.702
48162SOL    HW146319   3.904  12.772   1.770
48162SOL    HW246320   3.866  12.757   1.624
48163SOL     OW46321   6.698  13.682   2.946
48163SOL    HW146322   6.633  13.653   2.882
48163SOL    HW246323   6.721  13.770   2.918
48164SOL     OW46324  10.688  12.678  12.462
48164SOL    HW146325  10.639  12.656  12.541
48164SOL    HW246326  10.643  12.629  12.392
48165SOL     OW46327  10.703  14.154   6.884
48165SOL    HW146328  10.685  14.125   6.973
48165SOL    HW246329  10.793  14.187   6.887
48166SOL     OW46330  12.944  13.958   3.163
48166SOL    HW146331  12.939  13.894   3.092
48166SOL    HW246332  12.872  13.934   3.222
48167SOL     OW46333   9.357   1.038   1.860
48167SOL    HW146334   9.373   1.119   1.812
48167SOL    HW246335   9.263   1.035   1.874
48168SOL     OW46336   4.170   4.783  10.378
48168SOL    HW146337   4.173   4.701  10.428
48168SOL    HW246338   4.079   4.788  10.347
48169SOL     OW46339   7.052   1.510  13.910
48169SOL    HW146340   7.033   1.560  13.989
48169SOL    HW246341   7.069   1.421  13.940
48170SOL     OW46342   4.939   1.179   5.342
48170SOL    HW146343   4.859   1.146   5.385
48170SOL    HW246344   4.940   1.136   5.257
48171SOL     OW46345   3.748   6.993   0.356
48171SOL    HW146346   3.655   6.972   0.368
48171SOL    HW246347   3.762   6.984   0.262
48172SOL     OW46348  13.893   0.746  13.142
48172SOL    HW146349  13.839   0.668  13.151
48172SOL    HW246350  13.974   0.716  13.103
48173SOL     OW46351   9.132   3.618   5.107
48173SOL    HW146352   9.200   3.574   5.057
48173SOL    HW246353   9.065   3.551   5.120
48174SOL     OW46354   8.596   4.761  12.184
48174SOL    HW146355   8.649   4.751  12.263
48174SOL    HW246356   8.588   4.856  12.173
48175SOL     OW46357   8.517   5.101   6.849
48175SOL    HW146358   8.470   5.156   6.911
48175SOL    HW246359   8.457   5.028   6.831
48176SOL     OW46360  13.252   8.870  10.340
48176SOL    HW146361  13.261   8.894  10.248
48176SOL    HW246362  13.341   8.854  10.370
48177SOL     OW46363  10.525   1.725  12.914
48177SOL    HW146364  10.478   1.669  12.852
48177SOL    HW246365  10.496   1.813  12.893
48178SOL     OW46366   5.159   1.704  10.724
48178SOL    HW146367   5.116   1.637  10.778
48178SOL    HW246368   5.091   1.770  10.711
48179SOL     OW46369   7.351  13.456  13.463
48179SOL    HW146370   7.262  13.469  13.429
48179SOL    HW246371   7.398  13.535  13.436
48180SOL     OW46372  12.459   9.984   7.993
48180SOL    HW146373  12.418   9.899   7.977
48180SOL    HW246374  12.547   9.976   7.956
48181SOL     OW46375   5.233   1.701   0.031
48181SOL    HW146376   5.266   1.760  14.843
48181SOL    HW246377   5.138   1.712   0.029
48182SOL     OW46378   6.678  11.083  10.754
48182SOL    HW146379   6.729  11.162  10.733
48182SOL    HW246380   6.589  11.115  10.768
48183SOL     OW46381   4.047  10.659   1.430
48183SOL    HW146382   4.081  10.712   1.357
48183SOL    HW246383   4.112  10.589   1.440
48184SOL     OW46384  14.438  14.407   7.807
48184SOL    HW146385  14.497  14.414   7.731
48184SOL    HW246386  14.434  14.314   7.826
48185SOL     OW46387  11.168   4.695   6.979
48185SOL    HW146388  11.211   4.779   6.995
48185SOL    HW246389  11.075   4.716   6.975
48186SOL     OW46390   0.336  14.647   8.354
48186SOL    HW146391   0.295  14.725   8.318
48186SOL    HW246392   0.428  14.653   8.326
48187SOL     OW46393  14.287   5.661  12.363
48187SOL    HW146394  14.355   5.720  12.397
48187SOL    HW246395  14.327   5.618  12.288
48188SOL     OW46396  11.315  13.880   2.086
48188SOL    HW146397  11.287  13.816   2.152
48188SOL    HW246398  11.339  13.957   2.137
48189SOL     OW46399   8.948   7.263   1.836
48189SOL    HW146400   8.889   7.235   1.906
48189SOL    HW246401   8.986   7.345   1.868
48190SOL     OW46402  11.844   6.027   5.861
48190SOL    HW146403  11.843   6.039   5.766
48190SOL    HW246404  11.892   5.945   5.874
48191SOL     OW46405  13.319  13.352  14.739
48191SOL    HW146406  13.262  13.354  14.662
48191SOL    HW246407  13.368  13.270  14.730
48192SOL     OW46408   5.546   1.538   2.464
48192SOL    HW146409   5.506   1.501   2.386
48192SOL    HW246410   5.599   1.467   2.500
48193SOL     OW46411   2.479  13.782   1.092
48193SOL    HW146412   2.427  13.769   1.012
48193SOL    HW246413   2.541  13.709   1.092
48194SOL     OW46414   7.858   1.998   7.863
48194SOL    HW146415   7.875   1.908   7.833
48194SOL    HW246416   7.934   2.020   7.917
48195SOL     OW46417   6.443   8.590  13.129
48195SOL    HW146418   6.413   8.513  13.175
48195SOL    HW246419   6.374   8.609  13.065
48196SOL     OW46420   8.337   5.901  14.427
48196SOL    HW146421   8.254   5.898  14.475
48196SOL    HW246422   8.370   5.811  14.429
48197SOL     OW46423  12.366   4.663  14.232
48197SOL    HW146424  12.374   4.584  14.286
48197SOL    HW246425  12.344   4.630  14.144
48198SOL     OW46426   2.503   3.776   2.060
48198SOL    HW146427   2.417   3.752   2.092
48198SOL    HW246428   2.552   3.694   2.058
48199SOL     OW46429  13.474   1.163   4.953
48199SOL    HW146430  13.480   1.075   4.914
48199SOL    HW246431  13.463   1.222   4.878
48200SOL     OW46432   6.928  11.398  11.904
48200SOL    HW146433   6.967  11.484  11.890
48200SOL    HW246434   6.845  11.416  11.948
48201SOL     OW46435   5.854  14.716   2.207
48201SOL    HW146436   5.834  14.642   2.264
48201SOL    HW246437   5.943  14.741   2.231
48202SOL     OW46438   4.416   3.536   3.879
48202SOL    HW146439   4.398   3.449   3.912
48202SOL    HW246440   4.413   3.593   3.956
48203SOL     OW46441  12.933  14.440   5.484
48203SOL    HW146442  12.890  14.435   5.398
48203SOL    HW246443  12.870  14.486   5.539
48204SOL     OW46444   9.162   8.642  11.945
48204SOL    HW146445   9.133   8.723  11.902
48204SOL    HW246446   9.114   8.572  11.900
48205SOL     OW46447  11.344  14.261   0.340
48205SOL    HW146448  11.313  14.264   0.249
48205SOL    HW246449  11.287  14.197   0.382
48206SOL     OW46450   5.871   3.916   7.537
48206SOL    HW146451   5.937   3.847   7.546
48206SOL    HW246452   5.851   3.942   7.627
48207SOL     OW46453   0.023  12.149  10.569
48207SOL    HW146454  14.856  12.066  10.562
48207SOL    HW246455   0.115  12.126  10.570
48208SOL     OW46456   9.404   4.421  11.958
48208SOL    HW146457   9.335   4.477  11.992
48208SOL    HW246458   9.457   4.399  12.035
48209SOL     OW46459   1.696  12.116   7.591
48209SOL    HW146460   1.787  12.131   7.616
48209SOL    HW246461   1.645  12.175   7.646
48210SOL     OW46462   5.003   2.837  13.834
48210SOL    HW146463   4.939   2.900  13.802
48210SOL    HW246464   5.080   2.850  13.779
48211SOL     OW46465  11.703   6.976  12.758
48211SOL    HW146466  11.737   6.986  12.669
48211SOL    HW246467  11.772   7.011  12.814
48212SOL     OW46468   6.867   6.949  13.219
48212SOL    HW146469   6.869   6.858  13.190
48212SOL    HW246470   6.956   6.968  13.247
48213SOL     OW46471   4.427  10.123   9.812
48213SOL    HW146472   4.418  10.168   9.896
48213SOL    HW246473   4.496  10.058   9.826
48214SOL     OW46474   7.237   7.163   6.084
48214SOL    HW146475   7.221   7.232   6.020
48214SOL    HW246476   7.196   7.085   6.047
48215SOL     OW46477   9.249   9.889  10.584
48215SOL    HW146478   9.232   9.820  10.648
48215SOL    HW246479   9.302   9.847  10.517
48216SOL     OW46480   6.166   8.862  11.682
48216SOL    HW146481   6.117   8.781  11.697
48216SOL    HW246482   6.125   8.926  11.740
48217SOL     OW46483   8.081   2.197   4.982
48217SOL    HW146484   8.085   2.290   4.961
48217SOL    HW246485   8.035   2.193   5.066
48218SOL     OW46486   6.989   0.214   4.681
48218SOL    HW146487   7.083   0.231   4.685
48218SOL    HW246488   6.949   0.293   4.718
48219SOL     OW46489  11.536  14.762   8.399
48219SOL    HW146490  11.526  14.845   8.446
48219SOL    HW246491  11.620  14.728   8.428
48220SOL     OW46492   8.234   6.222  12.126
48220SOL    HW146493   8.248   6.308  12.165
48220SOL    HW246494   8.269   6.230  12.038
48221SOL     OW46495   0.766   7.801   0.273
48221SOL    HW146496   0.823   7.749   0.216
48221SOL    HW246497   0.703   7.738   0.307
48222SOL     OW46498   5.032  14.089   0.894
48222SOL    HW146499   5.117  14.131   0.906
48222SOL    HW246500   4.988  14.141   0.827
48223SOL     OW46501  12.605  10.193   0.254
48223SOL    HW146502  12.664  10.150   0.192
48223SOL    HW246503  12.588  10.128   0.321
48224SOL     OW46504   5.002  11.603   7.964
48224SOL    HW146505   4.934  11.608   8.030
48224SOL    HW246506   4.990  11.517   7.923
48225SOL     OW46507   7.315   1.762   0.819
48225SOL    HW146508   7.305   1.842   0.768
48225SOL    HW246509   7.267   1.778   0.900
48226SOL     OW46510   9.768   6.274   5.308
48226SOL    HW146511   9.825   6.236   5.240
48226SOL    HW246512   9.769   6.368   5.290
48227SOL     OW46513   8.698   1.249  10.420
48227SOL    HW146514   8.706   1.333  10.375
48227SOL    HW246515   8.681   1.185  10.351
48228SOL     OW46516   9.742  13.233   3.327
48228SOL    HW146517   9.823  13.237   3.277
48228SOL    HW246518   9.745  13.147   3.370
48229SOL     OW46519   5.144  10.781   5.458
48229SOL    HW146520   5.221  10.725   5.447
48229SOL    HW246521   5.075  10.721   5.485
48230SOL     OW46522   8.748   4.703  11.922
48230SOL    HW146523   8.654   4.723  11.919
48230SOL    HW246524   8.756   4.637  11.990
48231SOL     OW46525   9.060  14.344   8.747
48231SOL    HW146526   9.110  14.267   8.720
48231SOL    HW246527   8.981  14.342   8.693
48232SOL     OW46528  12.131  10.073  12.032
48232SOL    HW146529  12.081   9.995  12.055
48232SOL    HW246530  12.104  10.139  12.095
48233SOL     OW46531   2.122  10.071   4.358
48233SOL    HW146532   2.205  10.115   4.339
48233SOL    HW246533   2.107  10.014   4.282
48234SOL     OW46534   3.781  12.213  10.778
48234SOL    HW146535   3.875  12.200  10.789
48234SOL    HW246536   3.764  12.299  10.818
48235SOL     OW46537  11.810   1.983  11.704
48235SOL    HW146538  11.765   1.943  11.629
48235SOL    HW246539  11.866   1.913  11.737
48236SOL     OW46540   6.018   1.268   5.908
48236SOL    HW146541   5.973   1.270   5.824
48236SOL    HW246542   5.969   1.328   5.964
48237SOL     OW46543   9.235   4.932   9.078
48237SOL    HW146544   9.241   5.027   9.068
48237SOL    HW246545   9.324   4.901   9.062
48238SOL     OW46546   6.190   8.460   3.556
48238SOL    HW146547   6.133   8.485   3.628
48238SOL    HW246548   6.174   8.367   3.543
48239SOL     OW46549  10.243   9.195  14.232
48239SOL    HW146550  10.321   9.217  14.182
48239SOL    HW246551  10.186   9.148  14.171
48240SOL     OW46552   5.528   9.703   4.693
48240SOL    HW146553   5.539   9.654   4.775
48240SOL    HW246554   5.492   9.639   4.632
48241SOL     OW46555  12.258   5.264   7.434
48241SOL    HW146556  12.173   5.223   7.448
48241SOL    HW246557  12.238   5.356   7.419
48242SOL     OW46558  12.208   9.888   4.165
48242SOL    HW146559  12.242   9.907   4.252
48242SOL    HW246560  12.159   9.806   4.175
48243SOL     OW46561   1.493  14.462   6.347
48243SOL    HW146562   1.527  14.473   6.258
48243SOL    HW246563   1.398  14.461   6.336
48244SOL     OW46564  10.913  11.239  14.623
48244SOL    HW146565  10.892  11.300  14.694
48244SOL    HW246566  10.922  11.155  14.667
48245SOL     OW46567  12.155  14.454   9.318
48245SOL    HW146568  12.232  14.498   9.354
48245SOL    HW246569  12.110  14.418   9.394
48246SOL     OW46570   6.585   4.756   4.198
48246SOL    HW146571   6.578   4.661   4.192
48246SOL    HW246572   6.679   4.774   4.192
48247SOL     OW46573  13.374   8.298   7.006
48247SOL    HW146574  13.360   8.213   6.965
48247SOL    HW246575  13.297   8.349   6.981
48248SOL     OW46576   8.002   6.276   3.919
48248SOL    HW146577   7.994   6.371   3.915
48248SOL    HW246578   7.984   6.254   4.010
48249SOL     OW46579   8.151   0.606   3.932
48249SOL    HW146580   8.245   0.591   3.945
48249SOL    HW246581   8.112   0.519   3.941
48250SOL     OW46582  12.073   9.118   7.786
48250SOL    HW146583  12.019   9.040   7.775
48250SOL    HW246584  12.033   9.183   7.728
48251SOL     OW46585   3.261   0.446   2.150
48251SOL    HW146586   3.177   0.476   2.184
48251SOL    HW246587   3.238   0.379   2.085
48252SOL     OW46588   4.284   9.123  13.731
48252SOL    HW146589   4.192   9.122  13.705
48252SOL    HW246590   4.292   9.047  13.790
48253SOL     OW46591  11.937  11.671   9.253
48253SOL    HW146592  11.935  11.759   9.216
48253SOL    HW246593  12.017  11.632   9.218
48254SOL     OW46594   8.329  11.941   2.273
48254SOL    HW146595   8.408  11.896   2.302
48254SOL    HW246596   8.332  11.936   2.178
48255SOL     OW46597   3.387   0.208   6.157
48255SOL    HW146598   3.382   0.123   6.201
48255SOL    HW246599   3.438   0.263   6.216
48256SOL     OW46600  12.585  13.965  10.693
48256SOL    HW146601  12.590  14.056  10.720
48256SOL    HW246602  12.641  13.959  10.616
48257SOL     OW46603  14.265  13.038  14.767
48257SOL    HW146604  14.228  13.125  14.752
48257SOL    HW246605  14.203  12.978  14.725
48258SOL     OW46606  10.704   2.002  11.400
48258SOL    HW146607  10.683   2.094  11.413
48258SOL    HW246608  10.622   1.955  11.417
48259SOL     OW46609   6.228   9.609   2.159
48259SOL    HW146610   6.243   9.621   2.252
48259SOL    HW246611   6.239   9.697   2.121
48260SOL     OW46612  10.484  12.286   5.085
48260SOL    HW146613  10.483  12.382   5.076
48260SOL    HW246614  10.392  12.262   5.095
48261SOL     OW46615   7.776  13.571   7.468
48261SOL    HW146616   7.840  13.536   7.407
48261SOL    HW246617   7.771  13.664   7.448
48262SOL     OW46618   9.932   8.999  12.169
48262SOL    HW146619   9.879   9.075  12.194
48262SOL    HW246620   9.873   8.945  12.117
48263SOL     OW46621  12.559  13.302   0.943
48263SOL    HW146622  12.585  13.376   0.888
48263SOL    HW246623  12.614  13.310   1.021
48264SOL     OW46624  13.435  10.409  11.480
48264SOL    HW146625  13.512  10.406  11.422
48264SOL    HW246626  13.471  10.426  11.567
48265SOL     OW46627   6.308   9.506  12.740
48265SOL    HW146628   6.216   9.528  12.729
48265SOL    HW246629   6.325   9.435  12.679
48266SOL     OW46630  10.277  10.347   7.148
48266SOL    HW146631  10.368  10.319   7.140
48266SOL    HW246632  10.248  10.362   7.058
48267SOL     OW46633   1.825   4.545  10.945
48267SOL    HW146634   1.900   4.578  10.994
48267SOL    HW246635   1.843   4.570  10.854
48268SOL     OW46636   7.395   8.129   4.361
48268SOL    HW146637   7.307   8.144   4.397
48268SOL    HW246638   7.414   8.208   4.310
48269SOL     OW46639   1.414  11.032   9.195
48269SOL    HW146640   1.506  11.057   9.198
48269SOL    HW246641   1.391  11.033   9.102
48270SOL     OW46642   2.121   5.617   0.450
48270SOL    HW146643   2.126   5.607   0.545
48270SOL    HW246644   2.209   5.643   0.424
48271SOL     OW46645  10.202   8.251  13.627
48271SOL    HW146646  10.283   8.253  13.577
48271SOL    HW246647  10.178   8.159  13.630
48272SOL     OW46648   4.493  13.103   7.802
48272SOL    HW146649   4.544  13.184   7.808
48272SOL    HW246650   4.547  13.044   7.750
48273SOL     OW46651   5.073   7.574  12.806
48273SOL    HW146652   4.985   7.543  12.785
48273SOL    HW246653   5.061   7.628  12.884
48274SOL     OW46654  14.523   8.335   6.336
48274SOL    HW146655  14.487   8.423   6.323
48274SOL    HW246656  14.596   8.348   6.397
48275SOL     OW46657   2.700  14.231   6.531
48275SOL    HW146658   2.678  14.149   6.487
48275SOL    HW246659   2.655  14.226   6.615
48276SOL     OW46660   9.080   0.450   8.421
48276SOL    HW146661   9.086   0.356   8.433
48276SOL    HW246662   9.045   0.461   8.333
48277SOL     OW46663  11.209   4.430  10.154
48277SOL    HW146664  11.206   4.449  10.248
48277SOL    HW246665  11.302   4.431  10.132
48278SOL     OW46666  13.076   2.478   7.676
48278SOL    HW146667  13.113   2.413   7.736
48278SOL    HW246668  13.146   2.543   7.666
48279SOL     OW46669  10.880   1.450  14.428
48279SOL    HW146670  10.922   1.495  14.354
48279SOL    HW246671  10.933   1.372  14.441
48280SOL     OW46672   1.968   1.396  13.682
48280SOL    HW146673   1.983   1.486  13.710
48280SOL    HW246674   1.993   1.395  13.590
48281SOL     OW46675  12.865   4.058  12.123
48281SOL    HW146676  12.870   4.062  12.028
48281SOL    HW246677  12.815   3.979  12.142
48282SOL     OW46678   8.873   0.779   5.987
48282SOL    HW146679   8.895   0.750   5.899
48282SOL    HW246680   8.952   0.762   6.038
48283SOL     OW46681   1.657  13.623   9.312
48283SOL    HW146682   1.722  13.680   9.354
48283SOL    HW246683   1.698  13.600   9.228
48284SOL     OW46684   2.081   1.912   6.403
48284SOL    HW146685   2.006   1.902   6.461
48284SOL    HW246686   2.086   2.006   6.386
48285SOL     OW46687   5.272  13.856   4.882
48285SOL    HW146688   5.232  13.897   4.959
48285SOL    HW246689   5.217  13.885   4.809
48286SOL     OW46690  14.488   7.597   5.345
48286SOL    HW146691  14.552   7.638   5.286
48286SOL    HW246692  14.492   7.504   5.323
48287SOL     OW46693   8.368   9.372   1.768
48287SOL    HW146694   8.417   9.453   1.781
48287SOL    HW246695   8.416   9.327   1.699
48288SOL     OW46696  11.988   2.773   3.518
48288SOL    HW146697  11.921   2.779   3.450
48288SOL    HW246698  12.014   2.863   3.535
48289SOL     OW46699   5.985  10.458   8.873
48289SOL    HW146700   5.994  10.440   8.779
48289SOL    HW246701   6.048  10.400   8.915
48290SOL     OW46702  11.758   9.650   6.522
48290SOL    HW146703  11.838   9.679   6.479
48290SOL    HW246704  11.788   9.597   6.595
48291SOL     OW46705   1.194   7.922  11.442
48291SOL    HW146706   1.099   7.918  11.427
48291SOL    HW246707   1.207   8.003  11.492
48292SOL     OW46708   5.674  11.121   2.157
48292SOL    HW146709   5.691  11.190   2.093
48292SOL    HW246710   5.643  11.167   2.235
48293SOL     OW46711   8.316   0.973   8.642
48293SOL    HW146712   8.393   0.996   8.693
48293SOL    HW246713   8.258   0.930   8.704
48294SOL     OW46714   7.026   7.463   0.955
48294SOL    HW146715   7.018   7.371   0.978
48294SOL    HW246716   7.053   7.462   0.863
48295SOL     OW46717   6.963  14.661   4.625
48295SOL    HW146718   7.020  14.651   4.549
48295SOL    HW246719   7.013  14.715   4.686
48296SOL     OW46720   2.202   2.818   0.280
48296SOL    HW146721   2.134   2.860   0.228
48296SOL    HW246722   2.275   2.806   0.220
48297SOL     OW46723   6.005   1.978  10.195
48297SOL    HW146724   6.101   1.971  10.194
48297SOL    HW246725   5.979   1.969  10.104
48298SOL     OW46726  12.507  14.764   5.712
48298SOL    HW146727  12.545  14.737   5.796
48298SOL    HW246728  12.418  14.791   5.734
48299SOL     OW46729  11.947  13.609   5.794
48299SOL    HW146730  11.976  13.595   5.884
48299SOL    HW246731  11.957  13.703   5.779
48300SOL     OW46732   8.773   8.070   2.048
48300SOL    HW146733   8.863   8.041   2.030
48300SOL    HW246734   8.718   8.004   2.007
48301SOL     OW46735   6.286   0.324   6.208
48301SOL    HW146736   6.289   0.376   6.288
48301SOL    HW246737   6.210   0.266   6.221
48302SOL     OW46738   0.309  11.886  11.429
48302SOL    HW146739   0.332  11.963  11.482
48302SOL    HW246740   0.217  11.899  11.407
48303SOL     OW46741  14.388   2.989   8.495
48303SOL    HW146742  14.334   2.969   8.419
48303SOL    HW246743  14.384   3.085   8.503
48304SOL     OW46744  14.386   5.332  13.570
48304SOL    HW146745  14.302   5.364  13.537
48304SOL    HW246746  14.441   5.409  13.574
48305SOL     OW46747  14.516   2.204   8.189
48305SOL    HW146748  14.448   2.147   8.226
48305SOL    HW246749  14.550   2.252   8.264
48306SOL     OW46750   2.907  11.238  11.019
48306SOL    HW146751   2.909  11.167  10.954
48306SOL    HW246752   2.977  11.216  11.080
48307SOL     OW46753   4.649   3.397  12.016
48307SOL    HW146754   4.603   3.326  12.062
48307SOL    HW246755   4.741   3.370  12.015
48308SOL     OW46756   6.790   7.946   7.395
48308SOL    HW146757   6.803   7.877   7.330
48308SOL    HW246758   6.875   7.952   7.440
48309SOL     OW46759   5.853  13.505   7.232
48309SOL    HW146760   5.804  13.586   7.231
48309SOL    HW246761   5.945  13.532   7.224
48310SOL     OW46762  11.385   7.010   9.513
48310SOL    HW146763  11.432   7.089   9.485
48310SOL    HW246764  11.390   7.011   9.608
48311SOL     OW46765  10.784  14.439   8.992
48311SOL    HW146766  10.706  14.393   9.022
48311SOL    HW246767  10.814  14.389   8.916
48312SOL     OW46768  11.094  14.234   2.765
48312SOL    HW146769  11.157  14.242   2.836
48312SOL    HW246770  11.060  14.323   2.752
48313SOL     OW46771  11.928   7.533  13.590
48313SOL    HW146772  11.963   7.497  13.672
48313SOL    HW246773  11.916   7.456  13.534
48314SOL     OW46774  13.717   0.648  12.871
48314SOL    HW146775  13.655   0.653  12.798
48314SOL    HW246776  13.764   0.566  12.856
48315SOL     OW46777  13.574   8.593   0.932
48315SOL    HW146778  13.482   8.599   0.905
48315SOL    HW246779  13.619   8.557   0.855
48316SOL     OW46780  11.887   7.252  12.587
48316SOL    HW146781  11.911   7.308  12.512
48316SOL    HW246782  11.858   7.170  12.547
48317SOL     OW46783  11.211   8.411  10.934
48317SOL    HW146784  11.247   8.499  10.942
48317SOL    HW246785  11.123   8.417  10.969
48318SOL     OW46786  12.105   7.566   9.246
48318SOL    HW146787  12.009   7.564   9.241
48318SOL    HW246788  12.128   7.658   9.233
48319SOL     OW46789  11.607  14.258   4.831
48319SOL    HW146790  11.525  14.307   4.825
48319SOL    HW246791  11.624  14.249   4.924
48320SOL     OW46792  13.325   5.962   4.171
48320SOL    HW146793  13.256   5.964   4.237
48320SOL    HW246794  13.398   6.010   4.211
48321SOL     OW46795   0.086  11.689   4.426
48321SOL    HW146796   0.034  11.767   4.409
48321SOL    HW246797   0.068  11.667   4.517
48322SOL     OW46798   1.404   7.915   4.593
48322SOL    HW146799   1.428   7.983   4.656
48322SOL    HW246800   1.338   7.956   4.538
48323SOL     OW46801   6.346   4.607   1.541
48323SOL    HW146802   6.302   4.690   1.522
48323SOL    HW246803   6.415   4.601   1.474
48324SOL     OW46804   0.876   2.920   3.811
48324SOL    HW146805   0.899   2.984   3.879
48324SOL    HW246806   0.960   2.893   3.774
48325SOL     OW46807   4.239   2.152  12.363
48325SOL    HW146808   4.292   2.221  12.323
48325SOL    HW246809   4.179   2.125  12.293
48326SOL     OW46810   8.000  10.650   9.991
48326SOL    HW146811   7.937  10.722   9.990
48326SOL    HW246812   8.024  10.637   9.899
48327SOL     OW46813  14.417  12.454   3.361
48327SOL    HW146814  14.466  12.374   3.375
48327SOL    HW246815  14.483  12.523   3.353
48328SOL     OW46816   0.931   6.674   6.202
48328SOL    HW146817   0.920   6.641   6.113
48328SOL    HW246818   0.987   6.751   6.192
48329SOL     OW46819   5.150   8.604   5.274
48329SOL    HW146820   5.139   8.694   5.305
48329SOL    HW246821   5.064   8.579   5.241
48330SOL     OW46822  12.021   5.612  13.465
48330SOL    HW146823  11.950   5.676  13.464
48330SOL    HW246824  12.086   5.648  13.405
48331SOL     OW46825   9.105  12.214   4.862
48331SOL    HW146826   9.089  12.240   4.953
48331SOL    HW246827   9.017  12.196   4.826
48332SOL     OW46828   0.916  13.117  10.380
48332SOL    HW146829   0.879  13.187  10.434
48332SOL    HW246830   0.856  13.044  10.390
48333SOL     OW46831   4.953  14.548   8.690
48333SOL    HW146832   4.985  14.512   8.608
48333SOL    HW246833   5.002  14.629   8.701
48334SOL     OW46834   4.610  12.722   5.588
48334SOL    HW146835   4.605  12.750   5.497
48334SOL    HW246836   4.703  12.707   5.604
48335SOL     OW46837   9.484   5.413   4.315
48335SOL    HW146838   9.524   5.416   4.229
48335SOL    HW246839   9.391   5.402   4.298
48336SOL     OW46840  10.123   6.280  13.083
48336SOL    HW146841  10.134   6.186  13.069
48336SOL    HW246842  10.029   6.296  13.072
48337SOL     OW46843  11.810  14.370  14.771
48337SOL    HW146844  11.818  14.465  14.761
48337SOL    HW246845  11.740  14.345  14.711
48338SOL     OW46846  13.492  11.603  13.715
48338SOL    HW146847  13.530  11.563  13.793
48338SOL    HW246848  13.568  11.633  13.665
48339SOL     OW46849  12.852   9.398   7.316
48339SOL    HW146850  12.858   9.475   7.259
48339SOL    HW246851  12.759   9.389   7.336
48340SOL     OW46852   4.397   3.012   7.579
48340SOL    HW146853   4.441   2.980   7.501
48340SOL    HW246854   4.415   2.946   7.646
48341SOL     OW46855   6.127  13.442  11.806
48341SOL    HW146856   6.177  13.379  11.755
48341SOL    HW246857   6.172  13.526  11.791
48342SOL     OW46858   3.492  12.407   4.565
48342SOL    HW146859   3.474  12.383   4.656
48342SOL    HW246860   3.565  12.469   4.570
48343SOL     OW46861  11.545   1.639   4.647
48343SOL    HW146862  11.576   1.718   4.692
48343SOL    HW246863  11.481   1.601   4.708
48344SOL     OW46864   7.059  10.883  14.850
48344SOL    HW146865   7.038  10.851   0.059
48344SOL    HW246866   7.136  10.833  14.824
48345SOL     OW46867  12.878  13.777   0.471
48345SOL    HW146868  12.846  13.860   0.505
48345SOL    HW246869  12.799  13.728   0.448
48346SOL     OW46870   0.960   3.651  14.306
48346SOL    HW146871   0.940   3.710  14.234
48346SOL    HW246872   0.941   3.701  14.385
48347SOL     OW46873   3.506  10.103  11.232
48347SOL    HW146874   3.461  10.183  11.203
48347SOL    HW246875   3.599  10.122  11.220
48348SOL     OW46876   5.196   0.432   2.185
48348SOL    HW146877   5.285   0.460   2.207
48348SOL    HW246878   5.155   0.415   2.270
48349SOL     OW46879   8.818   3.744   4.872
48349SOL    HW146880   8.724   3.752   4.888
48349SOL    HW246881   8.824   3.701   4.787
48350SOL     OW46882   3.639   9.559  12.306
48350SOL    HW146883   3.709   9.533  12.246
48350SOL    HW246884   3.612   9.477  12.348
48351SOL     OW46885   9.078   6.391   2.619
48351SOL    HW146886   8.992   6.350   2.611
48351SOL    HW246887   9.128   6.356   2.546
48352SOL     OW46888  13.464   8.478   3.888
48352SOL    HW146889  13.396   8.412   3.874
48352SOL    HW246890  13.544   8.427   3.901
48353SOL     OW46891  11.406  10.567  12.740
48353SOL    HW146892  11.417  10.654  12.778
48353SOL    HW246893  11.369  10.583  12.653
48354SOL     OW46894   9.262  12.595  12.594
48354SOL    HW146895   9.336  12.641  12.634
48354SOL    HW246896   9.185  12.642  12.625
48355SOL     OW46897   4.002   3.120   6.886
48355SOL    HW146898   4.077   3.061   6.896
48355SOL    HW246899   4.034   3.190   6.829
48356SOL     OW46900   5.143   8.137  13.209
48356SOL    HW146901   5.191   8.074  13.263
48356SOL    HW246902   5.203   8.159  13.138
48357SOL     OW46903   0.363   5.305  13.054
48357SOL    HW146904   0.392   5.368  12.988
48357SOL    HW246905   0.444   5.278  13.098
48358SOL     OW46906   8.644   4.381   4.121
48358SOL    HW146907   8.728   4.423   4.101
48358SOL    HW246908   8.579   4.432   4.073
48359SOL     OW46909   3.291  11.753   6.947
48359SOL    HW146910   3.232  11.702   6.891
48359SOL    HW246911   3.234  11.815   6.993
48360SOL     OW46912   1.281  13.636  11.379
48360SOL    HW146913   1.280  13.682  11.462
48360SOL    HW246914   1.371  13.646  11.347
48361SOL     OW46915   6.341   4.519   8.002
48361SOL    HW146916   6.288   4.462   8.058
48361SOL    HW246917   6.353   4.469   7.922
48362SOL     OW46918   9.880   5.170   7.398
48362SOL    HW146919   9.889   5.096   7.458
48362SOL    HW246920   9.785   5.179   7.386
48363SOL     OW46921  12.242  11.562   4.489
48363SOL    HW146922  12.335  11.584   4.486
48363SOL    HW246923  12.219  11.538   4.399
48364SOL     OW46924  13.915  13.159  14.031
48364SOL    HW146925  13.828  13.126  14.010
48364SOL    HW246926  13.916  13.249  13.997
48365SOL     OW46927   7.245   3.876   6.943
48365SOL    HW146928   7.284   3.827   7.016
48365SOL    HW246929   7.315   3.931   6.910
48366SOL     OW46930  13.563   1.455   4.391
48366SOL    HW146931  13.600   1.407   4.466
48366SOL    HW246932  13.505   1.392   4.349
48367SOL     OW46933   4.965   0.536  13.479
48367SOL    HW146934   4.957   0.614  13.534
48367SOL    HW246935   4.874   0.510  13.461
48368SOL     OW46936  13.300   6.452   2.871
48368SOL    HW146937  13.208   6.426   2.863
48368SOL    HW246938  13.322   6.488   2.785
48369SOL     OW46939  11.499   8.422   0.606
48369SOL    HW146940  11.550   8.365   0.549
48369SOL    HW246941  11.478   8.498   0.552
48370SOL     OW46942   4.511   7.475   6.640
48370SOL    HW146943   4.452   7.401   6.625
48370SOL    HW246944   4.475   7.519   6.718
48371SOL     OW46945   6.571   6.696   5.188
48371SOL    HW146946   6.559   6.768   5.126
48371SOL    HW246947   6.588   6.740   5.272
48372SOL     OW46948   6.486   3.936  10.976
48372SOL    HW146949   6.422   3.958  10.908
48372SOL    HW246950   6.489   4.014  11.031
48373SOL     OW46951   8.954   4.598   1.961
48373SOL    HW146952   8.925   4.513   1.994
48373SOL    HW246953   9.025   4.624   2.020
48374SOL     OW46954   3.669  11.000   3.292
48374SOL    HW146955   3.646  10.980   3.202
48374SOL    HW246956   3.699  10.917   3.329
48375SOL     OW46957   1.774   2.183   9.460
48375SOL    HW146958   1.695   2.193   9.407
48375SOL    HW246959   1.746   2.204   9.549
48376SOL     OW46960   1.672   1.249  10.786
48376SOL    HW146961   1.677   1.165  10.831
48376SOL    HW246962   1.677   1.314  10.856
48377SOL     OW46963  10.448   7.562  14.222
48377SOL    HW146964  10.508   7.571  14.148
48377SOL    HW246965  10.440   7.650  14.258
48378SOL     OW46966   5.575  13.393   4.627
48378SOL    HW146967   5.647  13.455   4.610
48378SOL    HW246968   5.541  13.418   4.712
48379SOL     OW46969  10.306  13.238  10.943
48379SOL    HW146970  10.246  13.165  10.927
48379SOL    HW246971  10.297  13.257  11.036
48380SOL     OW46972   9.169   0.365   2.220
48380SOL    HW146973   9.193   0.392   2.309
48380SOL    HW246974   9.076   0.342   2.227
48381SOL     OW46975  14.305   8.574   7.223
48381SOL    HW146976  14.212   8.591   7.240
48381SOL    HW246977  14.330   8.506   7.285
48382SOL     OW46978   5.200  12.501   6.018
48382SOL    HW146979   5.252  12.522   5.941
48382SOL    HW246980   5.146  12.580   6.033
48383SOL     OW46981   0.334   8.083  14.551
48383SOL    HW146982   0.410   8.104  14.497
48383SOL    HW246983   0.366   8.020  14.615
48384SOL     OW46984   8.794   5.099   6.732
48384SOL    HW146985   8.838   5.141   6.806
48384SOL    HW246986   8.716   5.060   6.771
48385SOL     OW46987   9.511  14.801   0.225
48385SOL    HW146988   9.542  14.718   0.190
48385SOL    HW246989   9.577  14.825   0.291
48386SOL     OW46990   9.500   8.296   2.986
48386SOL    HW146991   9.424   8.282   2.930
48386SOL    HW246992   9.499   8.390   3.005
48387SOL     OW46993   4.682   9.904   4.581
48387SOL    HW146994   4.680   9.861   4.496
48387SOL    HW246995   4.674   9.997   4.561
48388SOL     OW46996   4.446   2.857   0.270
48388SOL    HW146997   4.465   2.788   0.208
48388SOL    HW246998   4.352   2.874   0.260
48389SOL     OW46999  13.964   0.258   1.057
48389SOL    HW147000  13.885   0.308   1.036
48389SOL    HW247001  13.932   0.170   1.076
48390SOL     OW47002   3.699   5.306  11.419
48390SOL    HW147003   3.698   5.402  11.415
48390SOL    HW247004   3.625   5.279  11.365
48391SOL     OW47005  12.510   7.313   6.163
48391SOL    HW147006  12.496   7.357   6.079
48391SOL    HW247007  12.422   7.285   6.190
48392SOL     OW47008   7.000   6.720  11.677
48392SOL    HW147009   7.004   6.688  11.768
48392SOL    HW247010   7.079   6.774  11.667
48393SOL     OW47011  11.235  13.571  11.635
48393SOL    HW147012  11.238  13.666  11.622
48393SOL    HW247013  11.195  13.537  11.555
48394SOL     OW47014  11.483  14.514   6.754
48394SOL    HW147015  11.533  14.540   6.677
48394SOL    HW247016  11.526  14.561   6.826
48395SOL     OW47017   5.790   0.456   6.092
48395SOL    HW147018   5.784   0.475   5.999
48395SOL    HW247019   5.858   0.388   6.098
48396SOL     OW47020   2.680   7.295   4.101
48396SOL    HW147021   2.762   7.264   4.140
48396SOL    HW247022   2.694   7.388   4.086
48397SOL     OW47023  11.630   0.365   0.056
48397SOL    HW147024  11.593   0.358   0.144
48397SOL    HW247025  11.725   0.360   0.070
48398SOL     OW47026   3.650   6.770   7.587
48398SOL    HW147027   3.708   6.819   7.645
48398SOL    HW247028   3.586   6.835   7.557
48399SOL     OW47029   3.317   7.685   5.999
48399SOL    HW147030   3.388   7.670   5.937
48399SOL    HW247031   3.314   7.780   6.009
48400SOL     OW47032   8.262   3.151  13.070
48400SOL    HW147033   8.238   3.243  13.058
48400SOL    HW247034   8.355   3.154  13.094
48401SOL     OW47035   7.275  10.272  13.218
48401SOL    HW147036   7.338  10.325  13.169
48401SOL    HW247037   7.306  10.277  13.309
48402SOL     OW47038   7.315  10.236   0.875
48402SOL    HW147039   7.234  10.228   0.825
48402SOL    HW247040   7.287  10.275   0.959
48403SOL     OW47041  10.325   4.294  13.159
48403SOL    HW147042  10.314   4.227  13.227
48403SOL    HW247043  10.254   4.277  13.097
48404SOL     OW47044   9.972  12.382   1.490
48404SOL    HW147045  10.050  12.430   1.463
48404SOL    HW247046   9.951  12.416   1.577
48405SOL     OW47047  13.242  12.633   6.816
48405SOL    HW147048  13.211  12.561   6.870
48405SOL    HW247049  13.213  12.712   6.862
48406SOL     OW47050  11.033   4.351  13.885
48406SOL    HW147051  11.008   4.260  13.904
48406SOL    HW247052  10.957   4.403  13.912
48407SOL     OW47053   6.217  13.695  14.597
48407SOL    HW147054   6.181  13.779  14.570
48407SOL    HW247055   6.226  13.645  14.515
48408SOL     OW47056   7.064   6.910  10.552
48408SOL    HW147057   6.979   6.954  10.558
48408SOL    HW247058   7.072   6.886  10.460
48409SOL     OW47059   0.022  13.047  13.929
48409SOL    HW147060   0.098  13.060  13.872
48409SOL    HW247061   0.050  12.980  13.992
48410SOL     OW47062   7.014   0.412  12.484
48410SOL    HW147063   7.067   0.351  12.535
48410SOL    HW247064   6.978   0.472  12.549
48411SOL     OW47065   7.410  14.392  11.696
48411SOL    HW147066   7.369  14.350  11.772
48411SOL    HW247067   7.488  14.340  11.678
48412SOL     OW47068   6.657   7.303   5.474
48412SOL    HW147069   6.680   7.384   5.519
48412SOL    HW247070   6.655   7.237   5.543
48413SOL     OW47071  11.404   6.092   0.185
48413SOL    HW147072  11.327   6.104   0.242
48413SOL    HW247073  11.377   6.126   0.101
48414SOL     OW47074  13.939   7.526  14.423
48414SOL    HW147075  13.857   7.494  14.461
48414SOL    HW247076  13.957   7.465  14.351
48415SOL     OW47077   6.676   3.056   2.367
48415SOL    HW147078   6.723   3.037   2.286
48415SOL    HW247079   6.673   2.972   2.414
48416SOL     OW47080  14.866   6.201   4.348
48416SOL    HW147081   0.071   6.245   4.362
48416SOL    HW247082  14.871   6.123   4.405
48417SOL     OW47083  12.840  14.451   2.822
48417SOL    HW147084  12.853  14.357   2.831
48417SOL    HW247085  12.772  14.473   2.885
48418SOL     OW47086   9.015  13.339   6.697
48418SOL    HW147087   8.978  13.254   6.719
48418SOL    HW247088   9.104  13.320   6.666
48419SOL     OW47089  11.713   8.463   7.711
48419SOL    HW147090  11.665   8.400   7.765
48419SOL    HW247091  11.644   8.509   7.663
48420SOL     OW47092   4.302  13.953   2.221
48420SOL    HW147093   4.265  14.026   2.172
48420SOL    HW247094   4.227  13.911   2.263
48421SOL     OW47095   7.171   6.917  14.396
48421SOL    HW147096   7.165   6.924  14.300
48421SOL    HW247097   7.242   6.854  14.411
48422SOL     OW47098  10.818  12.367   0.744
48422SOL    HW147099  10.779  12.453   0.757
48422SOL    HW247100  10.907  12.384   0.713
48423SOL     OW47101   4.748  10.702   0.445
48423SOL    HW147102   4.757  10.776   0.506
48423SOL    HW247103   4.778  10.626   0.495
48424SOL     OW47104  14.259  12.009  14.136
48424SOL    HW147105  14.177  12.053  14.158
48424SOL    HW247106  14.232  11.926  14.095
48425SOL     OW47107   8.498  11.412  12.392
48425SOL    HW147108   8.581  11.456  12.374
48425SOL    HW247109   8.469  11.448  12.476
48426SOL     OW47110   0.547   9.207   0.308
48426SOL    HW147111   0.503   9.273   0.255
48426SOL    HW247112   0.638   9.236   0.312
48427SOL     OW47113  11.265   6.315   8.834
48427SOL    HW147114  11.343   6.365   8.859
48427SOL    HW247115  11.291   6.269   8.754
48428SOL     OW47116  11.751  13.791  11.511
48428SOL    HW147117  11.747  13.700  11.481
48428SOL    HW247118  11.827  13.794  11.569
48429SOL     OW47119   5.302  10.503   3.594
48429SOL    HW147120   5.363  10.544   3.533
48429SOL    HW247121   5.221  10.553   3.584
48430SOL     OW47122  12.498   1.479  14.563
48430SOL    HW147123  12.515   1.393  14.603
48430SOL    HW247124  12.450   1.459  14.483
48431SOL     OW47125   7.928   3.531  11.111
48431SOL    HW147126   8.010   3.563  11.149
48431SOL    HW247127   7.919   3.580  11.030
48432SOL     OW47128   9.914   5.920   2.273
48432SOL    HW147129   9.903   5.896   2.181
48432SOL    HW247130   9.837   5.973   2.294
48433SOL     OW47131  14.812   2.741   8.561
48433SOL    HW147132  14.797   2.653   8.596
48433SOL    HW247133  14.733   2.789   8.585
48434SOL     OW47134   7.353  11.754   7.724
48434SOL    HW147135   7.382  11.759   7.815
48434SOL    HW247136   7.331  11.844   7.700
48435SOL     OW47137   6.272   3.225   3.473
48435SOL    HW147138   6.177   3.239   3.471
48435SOL    HW247139   6.296   3.242   3.564
48436SOL     OW47140   8.846   6.290   2.526
48436SOL    HW147141   8.845   6.222   2.459
48436SOL    HW247142   8.851   6.372   2.477
48437SOL     OW47143   7.175   5.276  14.631
48437SOL    HW147144   7.235   5.254  14.702
48437SOL    HW247145   7.183   5.371  14.622
48438SOL     OW47146  10.036  13.452   4.150
48438SOL    HW147147  10.013  13.533   4.105
48438SOL    HW247148  10.127  13.437   4.127
48439SOL     OW47149   6.382   8.386   6.046
48439SOL    HW147150   6.465   8.346   6.071
48439SOL    HW247151   6.408   8.470   6.006
48440SOL     OW47152   4.335   5.702  14.441
48440SOL    HW147153   4.337   5.797  14.429
48440SOL    HW247154   4.259   5.686  14.498
48441SOL     OW47155   5.564  11.838   8.831
48441SOL    HW147156   5.508  11.774   8.788
48441SOL    HW247157   5.653  11.812   8.808
48442SOL     OW47158   8.227   1.088   3.327
48442SOL    HW147159   8.319   1.063   3.332
48442SOL    HW247160   8.217   1.155   3.394
48443SOL     OW47161   5.332   0.255   9.648
48443SOL    HW147162   5.384   0.242   9.727
48443SOL    HW247163   5.397   0.279   9.581
48444SOL     OW47164   4.269   1.557   8.208
48444SOL    HW147165   4.358   1.541   8.239
48444SOL    HW247166   4.223   1.592   8.284
48445SOL     OW47167   8.936   4.305  10.816
48445SOL    HW147168   8.981   4.347  10.743
48445SOL    HW247169   8.986   4.225  10.833
48446SOL     OW47170  12.903  12.099   1.781
48446SOL    HW147171  12.936  12.064   1.864
48446SOL    HW247172  12.857  12.026   1.741
48447SOL     OW47173  13.155   2.793   6.739
48447SOL    HW147174  13.194   2.723   6.791
48447SOL    HW247175  13.111   2.849   6.804
48448SOL     OW47176   5.030  13.432  10.671
48448SOL    HW147177   5.096  13.475  10.725
48448SOL    HW247178   5.054  13.339  10.674
48449SOL     OW47179   0.862  14.396   3.703
48449SOL    HW147180   0.805  14.405   3.627
48449SOL    HW247181   0.872  14.302   3.714
48450SOL     OW47182  12.704  12.106   3.327
48450SOL    HW147183  12.783  12.144   3.288
48450SOL    HW247184  12.646  12.089   3.253
48451SOL     OW47185   5.679  12.439  11.484
48451SOL    HW147186   5.744  12.507  11.498
48451SOL    HW247187   5.625  12.470  11.411
48452SOL     OW47188  11.472   8.477   6.457
48452SOL    HW147189  11.530   8.405   6.483
48452SOL    HW247190  11.522   8.525   6.391
48453SOL     OW47191   3.413  14.323   2.145
48453SOL    HW147192   3.497  14.320   2.099
48453SOL    HW247193   3.353  14.277   2.086
48454SOL     OW47194   6.705   0.662   9.516
48454SOL    HW147195   6.628   0.618   9.552
48454SOL    HW247196   6.724   0.731   9.580
48455SOL     OW47197   5.610   1.261   5.565
48455SOL    HW147198   5.518   1.286   5.569
48455SOL    HW247199   5.657   1.338   5.596
48456SOL     OW47200   4.301  13.709  12.765
48456SOL    HW147201   4.268  13.626  12.733
48456SOL    HW247202   4.347  13.687  12.847
48457SOL     OW47203   9.639   6.263   0.921
48457SOL    HW147204   9.576   6.260   0.849
48457SOL    HW247205   9.595   6.317   0.987
48458SOL     OW47206   3.223   8.657   3.485
48458SOL    HW147207   3.294   8.624   3.541
48458SOL    HW247208   3.222   8.597   3.410
48459SOL     OW47209   6.101  14.370  10.865
48459SOL    HW147210   6.101  14.340  10.955
48459SOL    HW247211   6.154  14.450  10.866
48460SOL     OW47212   3.534   4.808  12.906
48460SOL    HW147213   3.457   4.850  12.944
48460SOL    HW247214   3.559   4.742  12.970
48461SOL     OW47215   8.810  11.774   2.353
48461SOL    HW147216   8.756  11.743   2.426
48461SOL    HW247217   8.755  11.841   2.311
48462SOL     OW47218   4.035   3.516  10.963
48462SOL    HW147219   4.130   3.526  10.974
48462SOL    HW247220   4.022   3.518  10.868
48463SOL     OW47221   0.960  13.727  10.930
48463SOL    HW147222   0.992  13.638  10.917
48463SOL    HW247223   0.915  13.724  11.014
48464SOL     OW47224  11.783   7.442   8.401
48464SOL    HW147225  11.808   7.527   8.438
48464SOL    HW247226  11.712   7.463   8.341
48465SOL     OW47227   3.734   8.585  11.917
48465SOL    HW147228   3.734   8.583  11.821
48465SOL    HW247229   3.658   8.639  11.940
48466SOL     OW47230   0.548   0.220  12.055
48466SOL    HW147231   0.629   0.208  12.106
48466SOL    HW247232   0.494   0.145  12.079
48467SOL     OW47233  11.650  14.078  12.185
48467SOL    HW147234  11.586  14.049  12.119
48467SOL    HW247235  11.733  14.040  12.156
48468SOL     OW47236  10.281  12.190  13.505
48468SOL    HW147237  10.336  12.198  13.427
48468SOL    HW247238  10.281  12.278  13.543
48469SOL     OW47239   8.457   7.042  11.440
48469SOL    HW147240   8.455   6.966  11.381
48469SOL    HW247241   8.524   7.099  11.402
48470SOL     OW47242  11.763   5.025   5.080
48470SOL    HW147243  11.677   4.989   5.059
48470SOL    HW247244  11.763   5.033   5.176
48471SOL     OW47245  10.823   9.304   4.306
48471SOL    HW147246  10.871   9.222   4.293
48471SOL    HW247247  10.812   9.339   4.218
48472SOL     OW47248   2.144   9.623   7.819
48472SOL    HW147249   2.143   9.528   7.825
48472SOL    HW247250   2.096   9.653   7.897
48473SOL     OW47251  12.939   5.112  12.095
48473SOL    HW147252  13.015   5.154  12.052
48473SOL    HW247253  12.863   5.152  12.052
48474SOL     OW47254   9.046   6.833   2.336
48474SOL    HW147255   9.128   6.811   2.381
48474SOL    HW247256   9.038   6.928   2.346
48475SOL     OW47257   3.321   6.208   2.775
48475SOL    HW147258   3.331   6.300   2.800
48475SOL    HW247259   3.259   6.209   2.703
48476SOL     OW47260   8.440   2.336   8.027
48476SOL    HW147261   8.369   2.337   7.963
48476SOL    HW247262   8.412   2.271   8.093
48477SOL     OW47263  13.828   2.904   2.577
48477SOL    HW147264  13.786   2.984   2.545
48477SOL    HW247265  13.898   2.887   2.515
48478SOL     OW47266   4.524   0.105   2.219
48478SOL    HW147267   4.486   0.039   2.161
48478SOL    HW247268   4.478   0.186   2.197
48479SOL     OW47269  13.035  12.410   8.693
48479SOL    HW147270  13.111  12.354   8.707
48479SOL    HW247271  12.962  12.364   8.735
48480SOL     OW47272   7.925   3.568  13.372
48480SOL    HW147273   7.906   3.520  13.291
48480SOL    HW247274   8.012   3.605  13.358
48481SOL     OW47275   4.415   1.174   1.138
48481SOL    HW147276   4.468   1.095   1.129
48481SOL    HW247277   4.477   1.246   1.122
48482SOL     OW47278  12.414   6.938   0.515
48482SOL    HW147279  12.436   6.848   0.494
48482SOL    HW247280  12.329   6.933   0.559
48483SOL     OW47281   2.872  10.139   2.317
48483SOL    HW147282   2.885  10.232   2.297
48483SOL    HW247283   2.901  10.130   2.408
48484SOL     OW47284   0.352   3.934  11.755
48484SOL    HW147285   0.415   3.887  11.808
48484SOL    HW247286   0.404   3.997  11.705
48485SOL     OW47287   3.622   6.542  10.547
48485SOL    HW147288   3.646   6.570  10.636
48485SOL    HW247289   3.565   6.611  10.514
48486SOL     OW47290   8.269   4.535   5.391
48486SOL    HW147291   8.195   4.477   5.374
48486SOL    HW247292   8.238   4.622   5.365
48487SOL     OW47293  12.590   7.663   8.846
48487SOL    HW147294  12.515   7.604   8.848
48487SOL    HW247295  12.551   7.751   8.841
48488SOL     OW47296   7.539   1.496   9.330
48488SOL    HW147297   7.487   1.575   9.314
48488SOL    HW247298   7.604   1.497   9.260
48489SOL     OW47299   2.077   9.308   6.414
48489SOL    HW147300   2.028   9.305   6.332
48489SOL    HW247301   2.043   9.235   6.465
48490SOL     OW47302   4.398   5.005  11.749
48490SOL    HW147303   4.308   4.974  11.757
48490SOL    HW247304   4.393   5.099  11.768
48491SOL     OW47305   3.124   8.766   4.765
48491SOL    HW147306   3.109   8.781   4.671
48491SOL    HW247307   3.046   8.717   4.793
48492SOL     OW47308   8.390   2.888   7.939
48492SOL    HW147309   8.438   2.884   8.022
48492SOL    HW247310   8.386   2.798   7.909
48493SOL     OW47311   1.948   6.068   9.064
48493SOL    HW147312   1.919   6.078   8.973
48493SOL    HW247313   2.022   6.129   9.072
48494SOL     OW47314   1.879   6.257  14.799
48494SOL    HW147315   1.862   6.163  14.804
48494SOL    HW247316   1.852   6.281  14.710
48495SOL     OW47317   8.979  10.078  13.032
48495SOL    HW147318   8.918  10.147  13.059
48495SOL    HW247319   9.056  10.092  13.086
48496SOL     OW47320  11.390  11.009   9.957
48496SOL    HW147321  11.442  11.022   9.878
48496SOL    HW247322  11.455  10.992  10.026
48497SOL     OW47323   0.119  13.390   2.906
48497SOL    HW147324   0.209  13.412   2.884
48497SOL    HW247325   0.068  13.412   2.828
48498SOL     OW47326  13.239   6.867   3.613
48498SOL    HW147327  13.328   6.835   3.598
48498SOL    HW247328  13.238   6.894   3.704
48499SOL     OW47329  13.745  14.250   2.284
48499SOL    HW147330  13.832  14.283   2.262
48499SOL    HW247331  13.755  14.154   2.286
48500SOL     OW47332   7.531  14.122  14.359
48500SOL    HW147333   7.524  14.038  14.404
48500SOL    HW247334   7.451  14.129  14.308
48501SOL     OW47335   5.080   4.250  14.541
48501SOL    HW147336   5.135   4.246  14.464
48501SOL    HW247337   4.990   4.247  14.507
48502SOL     OW47338  10.403   6.262   2.130
48502SOL    HW147339  10.385   6.318   2.205
48502SOL    HW247340  10.361   6.179   2.151
48503SOL     OW47341   6.389   7.426   4.545
48503SOL    HW147342   6.434   7.346   4.572
48503SOL    HW247343   6.458   7.493   4.546
48504SOL     OW47344   8.287  14.339   4.864
48504SOL    HW147345   8.357  14.402   4.880
48504SOL    HW247346   8.311  14.295   4.783
48505SOL     OW47347   1.379   9.807  10.031
48505SOL    HW147348   1.400   9.774   9.944
48505SOL    HW247349   1.285   9.828  10.026
48506SOL     OW47350  10.018   5.951  12.643
48506SOL    HW147351  10.024   5.912  12.556
48506SOL    HW247352  10.068   5.892  12.700
48507SOL     OW47353  10.560   1.304   2.975
48507SOL    HW147354  10.579   1.260   3.058
48507SOL    HW247355  10.467   1.285   2.959
48508SOL     OW47356   7.109   1.246  12.583
48508SOL    HW147357   7.030   1.268  12.633
48508SOL    HW247358   7.090   1.279  12.495
48509SOL     OW47359   7.865   2.182  14.352
48509SOL    HW147360   7.958   2.205  14.350
48509SOL    HW247361   7.847   2.146  14.265
48510SOL     OW47362  11.034  12.836   4.601
48510SOL    HW147363  11.030  12.818   4.507
48510SOL    HW247364  10.956  12.889   4.619
48511SOL     OW47365   4.309   1.576  12.259
48511SOL    HW147366   4.255   1.607  12.332
48511SOL    HW247367   4.328   1.655  12.208
48512SOL     OW47368   5.090   5.866  13.491
48512SOL    HW147369   5.077   5.804  13.419
48512SOL    HW247370   5.023   5.934  13.477
48513SOL     OW47371  11.924   4.515   2.294
48513SOL    HW147372  11.868   4.477   2.361
48513SOL    HW247373  12.005   4.466   2.299
48514SOL     OW47374   2.692  13.255   6.591
48514SOL    HW147375   2.602  13.284   6.578
48514SOL    HW247376   2.730  13.250   6.503
48515SOL     OW47377   0.927   4.156   8.386
48515SOL    HW147378   0.841   4.179   8.419
48515SOL    HW247379   0.959   4.235   8.344
48516SOL     OW47380   9.369   3.765  12.585
48516SOL    HW147381   9.395   3.784  12.495
48516SOL    HW247382   9.273   3.768  12.584
48517SOL     OW47383   8.040  10.243  13.778
48517SOL    HW147384   8.088  10.161  13.764
48517SOL    HW247385   8.082  10.305  13.717
48518SOL     OW47386   7.086   6.552   6.668
48518SOL    HW147387   7.135   6.622   6.625
48518SOL    HW247388   6.996   6.585   6.675
48519SOL     OW47389  14.100  13.271   7.145
48519SOL    HW147390  14.044  13.318   7.084
48519SOL    HW247391  14.052  13.272   7.228
48520SOL     OW47392  11.524   5.725   3.449
48520SOL    HW147393  11.513   5.697   3.358
48520SOL    HW247394  11.442   5.771   3.469
48521SOL     OW47395  10.482   8.141   7.521
48521SOL    HW147396  10.493   8.049   7.495
48521SOL    HW247397  10.429   8.179   7.451
48522SOL     OW47398   1.621   2.979   4.964
48522SOL    HW147399   1.702   3.007   5.007
48522SOL    HW247400   1.551   3.021   5.014
48523SOL     OW47401   5.566  13.627   5.824
48523SOL    HW147402   5.472  13.615   5.835
48523SOL    HW247403   5.577  13.642   5.730
48524SOL     OW47404   8.014  10.165   6.802
48524SOL    HW147405   7.934  10.171   6.855
48524SOL    HW247406   8.079  10.130   6.863
48525SOL     OW47407   2.274   7.142   2.249
48525SOL    HW147408   2.360   7.179   2.231
48525SOL    HW247409   2.276   7.119   2.342
48526SOL     OW47410   3.736   0.049   7.669
48526SOL    HW147411   3.818   0.041   7.619
48526SOL    HW247412   3.737   0.138   7.703
48527SOL     OW47413   1.081   3.204   6.167
48527SOL    HW147414   1.145   3.269   6.195
48527SOL    HW247415   1.009   3.213   6.230
48528SOL     OW47416   9.343  11.621   0.322
48528SOL    HW147417   9.308  11.553   0.264
48528SOL    HW247418   9.414  11.660   0.272
48529SOL     OW47419   7.355   8.491   1.397
48529SOL    HW147420   7.321   8.477   1.308
48529SOL    HW247421   7.444   8.523   1.383
48530SOL     OW47422   5.765   7.617   4.274
48530SOL    HW147423   5.828   7.664   4.220
48530SOL    HW247424   5.742   7.540   4.223
48531SOL     OW47425  10.984   8.638   5.897
48531SOL    HW147426  11.044   8.639   5.822
48531SOL    HW247427  10.898   8.626   5.858
48532SOL     OW47428  13.773  10.680   1.273
48532SOL    HW147429  13.679  10.673   1.285
48532SOL    HW247430  13.784  10.712   1.184
48533SOL     OW47431   0.355   1.666  14.338
48533SOL    HW147432   0.285   1.692  14.278
48533SOL    HW247433   0.335   1.712  14.419
48534SOL     OW47434   2.193   6.823   9.822
48534SOL    HW147435   2.155   6.794   9.905
48534SOL    HW247436   2.280   6.784   9.820
48535SOL     OW47437  10.441   3.967   1.467
48535SOL    HW147438  10.389   4.042   1.495
48535SOL    HW247439  10.492   4.000   1.393
48536SOL     OW47440  11.608  12.281   9.718
48536SOL    HW147441  11.538  12.341   9.745
48536SOL    HW247442  11.689  12.331   9.730
48537SOL     OW47443   3.444  10.875   7.147
48537SOL    HW147444   3.392  10.795   7.149
48537SOL    HW247445   3.393  10.939   7.198
48538SOL     OW47446  13.148   1.197   0.294
48538SOL    HW147447  13.055   1.194   0.271
48538SOL    HW247448  13.149   1.228   0.385
48539SOL     OW47449  13.650   1.827   2.933
48539SOL    HW147450  13.633   1.763   3.003
48539SOL    HW247451  13.711   1.783   2.874
48540SOL     OW47452   3.095  12.334   4.106
48540SOL    HW147453   3.130  12.270   4.168
48540SOL    HW247454   3.042  12.282   4.045
48541SOL     OW47455  14.172   9.771   5.971
48541SOL    HW147456  14.227   9.848   5.953
48541SOL    HW247457  14.083   9.807   5.978
48542SOL     OW47458   9.752  12.513   5.327
48542SOL    HW147459   9.728  12.489   5.238
48542SOL    HW247460   9.835  12.560   5.317
48543SOL     OW47461   3.087   9.278   8.208
48543SOL    HW147462   3.046   9.213   8.151
48543SOL    HW247463   3.014   9.321   8.253
48544SOL     OW47464   0.665  14.504   2.602
48544SOL    HW147465   0.659  14.466   2.515
48544SOL    HW247466   0.574  14.511   2.631
48545SOL     OW47467   9.941   2.136   5.023
48545SOL    HW147468   9.915   2.044   5.027
48545SOL    HW247469   9.958   2.153   4.931
48546SOL     OW47470   6.435  12.646   1.116
48546SOL    HW147471   6.449  12.728   1.068
48546SOL    HW247472   6.340  12.638   1.124
48547SOL     OW47473   9.923   7.512  11.199
48547SOL    HW147474  10.009   7.488  11.232
48547SOL    HW247475   9.937   7.596  11.155
48548SOL     OW47476   6.910  11.538   5.604
48548SOL    HW147477   6.938  11.450   5.632
48548SOL    HW247478   6.922  11.538   5.509
48549SOL     OW47479   6.679   6.881   1.861
48549SOL    HW147480   6.688   6.873   1.956
48549SOL    HW247481   6.612   6.816   1.838
48550SOL     OW47482  13.655   9.881  11.060
48550SOL    HW147483  13.686   9.939  10.991
48550SOL    HW247484  13.595   9.935  11.112
48551SOL     OW47485  11.771  14.230   6.523
48551SOL    HW147486  11.783  14.318   6.486
48551SOL    HW247487  11.743  14.176   6.449
48552SOL     OW47488   8.874   9.860   4.688
48552SOL    HW147489   8.882   9.767   4.667
48552SOL    HW247490   8.779   9.877   4.689
48553SOL     OW47491   8.784   2.479  14.659
48553SOL    HW147492   8.796   2.568  14.693
48553SOL    HW247493   8.742   2.491  14.574
48554SOL     OW47494  14.702   0.351  14.398
48554SOL    HW147495  14.713   0.292  14.473
48554SOL    HW247496  14.771   0.416  14.408
48555SOL     OW47497  12.649   9.423  13.192
48555SOL    HW147498  12.664   9.497  13.251
48555SOL    HW247499  12.595   9.363  13.244
48556SOL     OW47500   1.448  12.547   6.793
48556SOL    HW147501   1.492  12.625   6.826
48556SOL    HW247502   1.471  12.478   6.855
48557SOL     OW47503  10.447   5.613   1.283
48557SOL    HW147504  10.450   5.670   1.360
48557SOL    HW247505  10.523   5.556   1.292
48558SOL     OW47506   2.427  14.055  11.349
48558SOL    HW147507   2.379  13.972  11.363
48558SOL    HW247508   2.479  14.039  11.270
48559SOL     OW47509   4.467   1.478   0.033
48559SOL    HW147510   4.508   1.553   0.075
48559SOL    HW247511   4.382   1.470   0.078
48560SOL     OW47512   1.916   3.341   0.204
48560SOL    HW147513   1.828   3.376   0.190
48560SOL    HW247514   1.915   3.308   0.294
48561SOL     OW47515   0.834   3.053   7.386
48561SOL    HW147516   0.849   3.055   7.480
48561SOL    HW247517   0.739   3.045   7.377
48562SOL     OW47518  14.304   9.476   5.808
48562SOL    HW147519  14.266   9.452   5.893
48562SOL    HW247520  14.384   9.424   5.802
48563SOL     OW47521   1.584   8.392   3.818
48563SOL    HW147522   1.649   8.414   3.751
48563SOL    HW247523   1.575   8.472   3.869
48564SOL     OW47524   7.662   3.317   7.276
48564SOL    HW147525   7.674   3.351   7.364
48564SOL    HW247526   7.751   3.301   7.244
48565SOL     OW47527   1.836  11.605  13.607
48565SOL    HW147528   1.818  11.635  13.518
48565SOL    HW247529   1.778  11.529  13.618
48566SOL     OW47530   8.163   2.120   1.002
48566SOL    HW147531   8.189   2.031   0.980
48566SOL    HW247532   8.070   2.114   1.023
48567SOL     OW47533  13.515   0.751   2.800
48567SOL    HW147534  13.456   0.740   2.725
48567SOL    HW247535  13.549   0.840   2.791
48568SOL     OW47536   5.804   7.263  10.825
48568SOL    HW147537   5.782   7.315  10.902
48568SOL    HW247538   5.825   7.176  10.861
48569SOL     OW47539  10.422  10.164  11.084
48569SOL    HW147540  10.410  10.222  11.159
48569SOL    HW247541  10.438  10.222  11.010
48570SOL     OW47542   3.767   5.051   1.437
48570SOL    HW147543   3.746   5.030   1.346
48570SOL    HW247544   3.796   4.967   1.475
48571SOL     OW47545  14.060  12.823   5.156
48571SOL    HW147546  14.042  12.732   5.178
48571SOL    HW247547  13.983  12.871   5.186
48572SOL     OW47548   9.556  14.206   1.665
48572SOL    HW147549   9.617  14.143   1.626
48572SOL    HW247550   9.473  14.189   1.621
48573SOL     OW47551   3.091   6.543   1.856
48573SOL    HW147552   3.149   6.476   1.821
48573SOL    HW247553   3.071   6.514   1.945
48574SOL     OW47554   5.991   7.956  13.166
48574SOL    HW147555   6.045   8.032  13.186
48574SOL    HW247556   6.044   7.904  13.105
48575SOL     OW47557   3.579   6.558   4.044
48575SOL    HW147558   3.601   6.473   4.083
48575SOL    HW247559   3.491   6.546   4.008
48576SOL     OW47560   6.115   4.607   4.697
48576SOL    HW147561   6.169   4.632   4.773
48576SOL    HW247562   6.062   4.533   4.728
48577SOL     OW47563   6.793   1.229  12.120
48577SOL    HW147564   6.881   1.250  12.087
48577SOL    HW247565   6.774   1.143  12.083
48578SOL     OW47566  14.211   8.818   7.735
48578SOL    HW147567  14.178   8.747   7.791
48578SOL    HW247568  14.287   8.781   7.691
48579SOL     OW47569   7.196  13.773   0.264
48579SOL    HW147570   7.160  13.763   0.176
48579SOL    HW247571   7.262  13.703   0.271
48580SOL     OW47572  13.818   9.220   0.105
48580SOL    HW147573  13.756   9.165   0.152
48580SOL    HW247574  13.899   9.214   0.157
48581SOL     OW47575   2.022   8.916   0.257
48581SOL    HW147576   2.028   8.993   0.201
48581SOL    HW247577   1.998   8.951   0.343
48582SOL     OW47578  11.340   2.273   2.942
48582SOL    HW147579  11.307   2.312   2.861
48582SOL    HW247580  11.413   2.330   2.968
48583SOL     OW47581   0.916  10.656  13.075
48583SOL    HW147582   0.922  10.581  13.134
48583SOL    HW247583   0.903  10.618  12.988
48584SOL     OW47584  11.124  14.305  14.320
48584SOL    HW147585  11.059  14.314  14.251
48584SOL    HW247586  11.143  14.211  14.323
48585SOL     OW47587  14.000   5.307  12.785
48585SOL    HW147588  13.940   5.381  12.796
48585SOL    HW247589  14.063   5.317  12.856
48586SOL     OW47590  10.530   0.680   4.613
48586SOL    HW147591  10.468   0.636   4.554
48586SOL    HW247592  10.477   0.745   4.659
48587SOL     OW47593   9.237  11.320   7.849
48587SOL    HW147594   9.215  11.393   7.908
48587SOL    HW247595   9.187  11.337   7.769
48588SOL     OW47596   4.976   5.934  10.421
48588SOL    HW147597   5.014   5.863  10.473
48588SOL    HW247598   4.994   6.014  10.471
48589SOL     OW47599   2.488  11.410   3.311
48589SOL    HW147600   2.419  11.344   3.309
48589SOL    HW247601   2.473  11.463   3.233
48590SOL     OW47602   6.030  12.155   0.318
48590SOL    HW147603   6.046  12.249   0.310
48590SOL    HW247604   5.958  12.148   0.380
48591SOL     OW47605  13.089   5.409  10.443
48591SOL    HW147606  13.167   5.355  10.457
48591SOL    HW247607  13.118   5.498  10.463
48592SOL     OW47608  10.640   2.937  12.708
48592SOL    HW147609  10.552   2.973  12.692
48592SOL    HW247610  10.696   2.981  12.645
48593SOL     OW47611   9.587  12.118  11.135
48593SOL    HW147612   9.579  12.128  11.229
48593SOL    HW247613   9.612  12.204  11.103
48594SOL     OW47614   5.740   2.720   0.115
48594SOL    HW147615   5.683   2.701   0.189
48594SOL    HW247616   5.759   2.634   0.077
48595SOL     OW47617   2.586   5.763   9.511
48595SOL    HW147618   2.569   5.802   9.425
48595SOL    HW247619   2.544   5.677   9.507
48596SOL     OW47620  14.561   3.860   6.915
48596SOL    HW147621  14.534   3.774   6.881
48596SOL    HW247622  14.657   3.858   6.912
48597SOL     OW47623  13.858   5.898   4.613
48597SOL    HW147624  13.797   5.891   4.540
48597SOL    HW247625  13.944   5.901   4.572
48598SOL     OW47626   0.736   0.669  13.799
48598SOL    HW147627   0.667   0.706  13.854
48598SOL    HW247628   0.802   0.636  13.861
48599SOL     OW47629  12.048   4.484   5.073
48599SOL    HW147630  11.960   4.454   5.050
48599SOL    HW247631  12.075   4.538   4.998
48600SOL     OW47632   1.018  14.277   8.772
48600SOL    HW147633   1.053  14.265   8.684
48600SOL    HW247634   0.961  14.201   8.786
48601SOL     OW47635   1.856   5.081  14.741
48601SOL    HW147636   1.884   5.171  14.723
48601SOL    HW247637   1.931   5.027  14.717
48602SOL     OW47638   9.727  10.117   4.227
48602SOL    HW147639   9.660  10.160   4.172
48602SOL    HW247640   9.688  10.115   4.314
48603SOL     OW47641   8.707   1.743   0.926
48603SOL    HW147642   8.693   1.716   0.835
48603SOL    HW247643   8.795   1.711   0.948
48604SOL     OW47644   2.462   1.641   2.578
48604SOL    HW147645   2.506   1.726   2.571
48604SOL    HW247646   2.377   1.662   2.617
48605SOL     OW47647  14.139   4.826   8.631
48605SOL    HW147648  14.201   4.799   8.699
48605SOL    HW247649  14.175   4.790   8.550
48606SOL     OW47650  13.404  13.467   8.981
48606SOL    HW147651  13.400  13.457   8.886
48606SOL    HW247652  13.484  13.519   8.995
48607SOL     OW47653   3.236  11.515  13.277
48607SOL    HW147654   3.266  11.598  13.240
48607SOL    HW247655   3.266  11.518  13.368
48608SOL     OW47656  12.919   4.757  10.474
48608SOL    HW147657  12.880   4.768  10.387
48608SOL    HW247658  12.943   4.665  10.479
48609SOL     OW47659  10.641   9.214   7.007
48609SOL    HW147660  10.732   9.208   6.978
48609SOL    HW247661  10.613   9.302   6.981
48610SOL     OW47662   5.618   3.309  12.552
48610SOL    HW147663   5.675   3.304  12.475
48610SOL    HW247664   5.531   3.285  12.519
48611SOL     OW47665  12.129   4.840   4.597
48611SOL    HW147666  12.219   4.870   4.581
48611SOL    HW247667  12.074   4.916   4.575
48612SOL     OW47668   7.675   7.919   8.843
48612SOL    HW147669   7.652   7.963   8.760
48612SOL    HW247670   7.694   7.829   8.817
48613SOL     OW47671  12.612   9.197  13.423
48613SOL    HW147672  12.676   9.159  13.363
48613SOL    HW247673  12.648   9.179  13.510
48614SOL     OW47674   5.971   6.374   5.648
48614SOL    HW147675   6.054   6.422   5.648
48614SOL    HW247676   5.912   6.431   5.698
48615SOL     OW47677  10.210   3.431  10.444
48615SOL    HW147678  10.165   3.437  10.360
48615SOL    HW247679  10.279   3.498  10.438
48616SOL     OW47680  14.733   8.992   8.957
48616SOL    HW147681  14.786   8.986   8.877
48616SOL    HW247682  14.793   8.965   9.027
48617SOL     OW47683   2.992   7.411   3.212
48617SOL    HW147684   3.012   7.423   3.305
48617SOL    HW247685   3.049   7.473   3.167
48618SOL     OW47686   4.929   6.906  10.587
48618SOL    HW147687   4.859   6.859  10.632
48618SOL    HW247688   4.930   6.993  10.629
48619SOL     OW47689   8.696   8.508   6.032
48619SOL    HW147690   8.717   8.574   5.967
48619SOL    HW247691   8.747   8.431   6.006
48620SOL     OW47692   5.632   1.781  13.855
48620SOL    HW147693   5.615   1.758  13.946
48620SOL    HW247694   5.560   1.740  13.806
48621SOL     OW47695   5.182   6.310   9.094
48621SOL    HW147696   5.270   6.330   9.062
48621SOL    HW247697   5.179   6.350   9.181
48622SOL     OW47698  12.796   1.200   3.002
48622SOL    HW147699  12.857   1.135   3.037
48622SOL    HW247700  12.757   1.240   3.080
48623SOL     OW47701  14.278   5.387  12.646
48623SOL    HW147702  14.208   5.374  12.710
48623SOL    HW247703  14.232   5.389  12.561
48624SOL     OW47704  10.019  12.239  11.864
48624SOL    HW147705  10.114  12.231  11.872
48624SOL    HW247706   9.997  12.186  11.787
48625SOL     OW47707   4.879   0.080   8.013
48625SOL    HW147708   4.822   0.086   7.936
48625SOL    HW247709   4.940   0.153   8.003
48626SOL     OW47710   6.463   5.537  10.599
48626SOL    HW147711   6.455   5.592  10.520
48626SOL    HW247712   6.399   5.573  10.660
48627SOL     OW47713  12.609  10.726  11.836
48627SOL    HW147714  12.605  10.643  11.789
48627SOL    HW247715  12.701  10.752  11.832
48628SOL     OW47716  14.722   7.623   2.803
48628SOL    HW147717  14.641   7.672   2.789
48628SOL    HW247718  14.709   7.576   2.885
48629SOL     OW47719   9.836  10.861  12.782
48629SOL    HW147720   9.790  10.839  12.701
48629SOL    HW247721   9.786  10.934  12.820
48630SOL     OW47722   2.536  13.975   6.645
48630SOL    HW147723   2.560  13.896   6.596
48630SOL    HW247724   2.595  13.975   6.720
48631SOL     OW47725   0.438   3.801   0.782
48631SOL    HW147726   0.357   3.833   0.823
48631SOL    HW247727   0.498   3.876   0.786
48632SOL     OW47728   5.288   8.288  10.436
48632SOL    HW147729   5.255   8.208  10.395
48632SOL    HW247730   5.366   8.310  10.384
48633SOL     OW47731   9.284   2.328  12.793
48633SOL    HW147732   9.334   2.387  12.738
48633SOL    HW247733   9.199   2.321  12.749
48634SOL     OW47734   0.304   7.673   9.831
48634SOL    HW147735   0.376   7.729   9.803
48634SOL    HW247736   0.264   7.643   9.750
48635SOL     OW47737  14.217  11.007  10.051
48635SOL    HW147738  14.135  11.046  10.079
48635SOL    HW247739  14.200  10.912  10.048
48636SOL     OW47740  10.548   0.408   3.440
48636SOL    HW147741  10.503   0.328   3.413
48636SOL    HW247742  10.596   0.436   3.362
48637SOL     OW47743   6.999   6.080   7.454
48637SOL    HW147744   6.948   6.015   7.501
48637SOL    HW247745   6.936   6.122   7.396
48638SOL     OW47746  11.057   4.183   0.685
48638SOL    HW147747  11.089   4.103   0.728
48638SOL    HW247748  11.009   4.229   0.754
48639SOL     OW47749  11.634  13.338   5.038
48639SOL    HW147750  11.635  13.324   5.133
48639SOL    HW247751  11.549  13.306   5.010
48640SOL     OW47752   9.344   3.902   9.048
48640SOL    HW147753   9.308   3.983   9.083
48640SOL    HW247754   9.376   3.855   9.125
48641SOL     OW47755   6.779   1.692  12.234
48641SOL    HW147756   6.864   1.724  12.266
48641SOL    HW247757   6.767   1.736  12.150
48642SOL     OW47758   5.207   0.546  13.372
48642SOL    HW147759   5.239   0.629  13.408
48642SOL    HW247760   5.121   0.535  13.411
48643SOL     OW47761  13.817   9.147   4.511
48643SOL    HW147762  13.889   9.210   4.505
48643SOL    HW247763  13.860   9.062   4.519
48644SOL     OW47764   4.532   4.977  11.497
48644SOL    HW147765   4.481   4.964  11.577
48644SOL    HW247766   4.621   4.994  11.529
48645SOL     OW47767   1.544  14.020   9.454
48645SOL    HW147768   1.502  13.935   9.442
48645SOL    HW247769   1.636  13.998   9.474
48646SOL     OW47770   0.750   4.227   3.986
48646SOL    HW147771   0.758   4.312   4.028
48646SOL    HW247772   0.708   4.245   3.902
48647SOL     OW47773  14.203  11.882   2.407
48647SOL    HW147774  14.200  11.934   2.488
48647SOL    HW247775  14.172  11.942   2.339
48648SOL     OW47776   2.058   0.386   5.397
48648SOL    HW147777   2.115   0.380   5.474
48648SOL    HW247778   2.100   0.331   5.331
48649SOL     OW47779   6.042   2.597   2.831
48649SOL    HW147780   5.971   2.532   2.824
48649SOL    HW247781   6.119   2.545   2.853
48650SOL     OW47782   8.347  13.775  11.596
48650SOL    HW147783   8.350  13.767  11.500
48650SOL    HW247784   8.434  13.809  11.620
48651SOL     OW47785   4.837   3.739  11.135
48651SOL    HW147786   4.780   3.731  11.058
48651SOL    HW247787   4.818   3.661  11.187
48652SOL     OW47788   5.637  13.098   4.584
48652SOL    HW147789   5.545  13.078   4.570
48652SOL    HW247790   5.641  13.194   4.583
48653SOL     OW47791   1.526   8.691  14.623
48653SOL    HW147792   1.538   8.670  14.530
48653SOL    HW247793   1.615   8.704  14.657
48654SOL     OW47794  11.577   5.787   6.540
48654SOL    HW147795  11.633   5.710   6.552
48654SOL    HW247796  11.488   5.751   6.535
48655SOL     OW47797   8.612   9.498   2.464
48655SOL    HW147798   8.521   9.497   2.437
48655SOL    HW247799   8.618   9.434   2.534
48656SOL     OW47800   4.998   2.888  12.348
48656SOL    HW147801   4.930   2.950  12.372
48656SOL    HW247802   5.001   2.826  12.421
48657SOL     OW47803   5.790   5.627   6.316
48657SOL    HW147804   5.696   5.608   6.326
48657SOL    HW247805   5.794   5.722   6.308
48658SOL     OW47806   9.856   5.200  10.348
48658SOL    HW147807   9.782   5.235  10.398
48658SOL    HW247808   9.921   5.177  10.415
48659SOL     OW47809   4.043  13.129   5.277
48659SOL    HW147810   4.017  13.043   5.308
48659SOL    HW247811   3.980  13.189   5.316
48660SOL     OW47812   0.095  13.788  10.054
48660SOL    HW147813   0.186  13.774  10.029
48660SOL    HW247814   0.080  13.725  10.124
48661SOL     OW47815  13.852  13.648  13.460
48661SOL    HW147816  13.786  13.717  13.461
48661SOL    HW247817  13.906  13.667  13.384
48662SOL     OW47818   0.398   1.744   8.255
48662SOL    HW147819   0.479   1.713   8.296
48662SOL    HW247820   0.357   1.665   8.220
48663SOL     OW47821  10.243   6.638  14.207
48663SOL    HW147822  10.201   6.654  14.292
48663SOL    HW247823  10.181   6.582  14.161
48664SOL     OW47824   1.868  13.294  14.106
48664SOL    HW147825   1.796  13.355  14.122
48664SOL    HW247826   1.938  13.348  14.072
48665SOL     OW47827   9.606  12.101  11.632
48665SOL    HW147828   9.542  12.030  11.637
48665SOL    HW247829   9.634  12.115  11.723
48666SOL     OW47830   8.851   3.669   3.892
48666SOL    HW147831   8.801   3.743   3.926
48666SOL    HW247832   8.796   3.593   3.910
48667SOL     OW47833   8.798   3.119   8.286
48667SOL    HW147834   8.755   3.073   8.214
48667SOL    HW247835   8.730   3.174   8.324
48668SOL     OW47836  10.783   7.273  10.501
48668SOL    HW147837  10.722   7.338  10.465
48668SOL    HW247838  10.841   7.323  10.558
48669SOL     OW47839  10.639   4.959   6.028
48669SOL    HW147840  10.586   4.891   6.070
48669SOL    HW247841  10.720   4.914   6.003
48670SOL     OW47842  10.883  13.539   4.876
48670SOL    HW147843  10.978  13.540   4.888
48670SOL    HW247844  10.848  13.506   4.959
48671SOL     OW47845   5.746  11.490  11.448
48671SOL    HW147846   5.678  11.446  11.397
48671SOL    HW247847   5.819  11.427  11.450
48672SOL     OW47848  13.747  11.269  11.536
48672SOL    HW147849  13.744  11.175  11.551
48672SOL    HW247850  13.656  11.295  11.522
48673SOL     OW47851  14.577   8.939   5.056
48673SOL    HW147852  14.627   8.863   5.085
48673SOL    HW247853  14.571   8.995   5.134
48674SOL     OW47854  13.254   5.322  13.671
48674SOL    HW147855  13.317   5.375  13.718
48674SOL    HW247856  13.288   5.318  13.581
48675SOL     OW47857  10.131  12.225   0.794
48675SOL    HW147858  10.038  12.246   0.803
48675SOL    HW247859  10.135  12.130   0.806
48676SOL     OW47860   4.372   4.209  10.086
48676SOL    HW147861   4.430   4.251  10.023
48676SOL    HW247862   4.343   4.281  10.143
48677SOL     OW47863  10.731   2.853   7.306
48677SOL    HW147864  10.729   2.789   7.235
48677SOL    HW247865  10.639   2.869   7.327
48678SOL     OW47866  10.397   7.996   6.866
48678SOL    HW147867  10.440   7.910   6.870
48678SOL    HW247868  10.304   7.976   6.853
48679SOL     OW47869  11.007   2.581   7.676
48679SOL    HW147870  10.954   2.502   7.662
48679SOL    HW247871  11.009   2.624   7.591
48680SOL     OW47872   5.817   8.055  10.257
48680SOL    HW147873   5.820   7.991  10.186
48680SOL    HW247874   5.814   8.140  10.212
48681SOL     OW47875  14.515   0.513   4.483
48681SOL    HW147876  14.446   0.515   4.416
48681SOL    HW247877  14.543   0.604   4.492
48682SOL     OW47878   8.698   9.690   6.042
48682SOL    HW147879   8.787   9.693   6.007
48682SOL    HW247880   8.706   9.724   6.131
48683SOL     OW47881   3.260  10.026   7.337
48683SOL    HW147882   3.180   9.974   7.347
48683SOL    HW247883   3.245  10.078   7.258
48684SOL     OW47884  10.805   7.143   4.349
48684SOL    HW147885  10.775   7.210   4.289
48684SOL    HW247886  10.798   7.061   4.299
48685SOL     OW47887   2.081  10.335   8.004
48685SOL    HW147888   2.008  10.393   8.020
48685SOL    HW247889   2.081  10.321   7.909
48686SOL     OW47890   7.942   3.918  10.059
48686SOL    HW147891   7.954   3.846  10.121
48686SOL    HW247892   7.848   3.919  10.041
48687SOL     OW47893   9.897   6.015  11.667
48687SOL    HW147894   9.884   5.935  11.718
48687SOL    HW247895   9.907   6.084  11.732
48688SOL     OW47896   5.712   5.535  12.077
48688SOL    HW147897   5.711   5.631  12.074
48688SOL    HW247898   5.643   5.509  12.016
48689SOL     OW47899   0.575   3.152   2.058
48689SOL    HW147900   0.646   3.089   2.049
48689SOL    HW247901   0.617   3.231   2.092
48690SOL     OW47902   6.429  14.479   8.643
48690SOL    HW147903   6.353  14.533   8.622
48690SOL    HW247904   6.477  14.531   8.707
48691SOL     OW47905  12.271  12.750   1.708
48691SOL    HW147906  12.254  12.678   1.647
48691SOL    HW247907  12.228  12.826   1.668
48692SOL     OW47908  14.506   3.948   2.575
48692SOL    HW147909  14.503   3.992   2.660
48692SOL    HW247910  14.596   3.959   2.545
48693SOL     OW47911   5.925   6.199  14.396
48693SOL    HW147912   5.974   6.248  14.329
48693SOL    HW247913   5.838   6.239  14.396
48694SOL     OW47914   9.952  14.071   0.659
48694SOL    HW147915  10.042  14.057   0.631
48694SOL    HW247916   9.908  13.987   0.641
48695SOL     OW47917   2.698   6.259   5.393
48695SOL    HW147918   2.607   6.228   5.404
48695SOL    HW247919   2.690   6.352   5.373
48696SOL     OW47920   7.569   5.035   0.991
48696SOL    HW147921   7.639   5.099   1.005
48696SOL    HW247922   7.492   5.072   1.034
48697SOL     OW47923   9.264   6.194   6.840
48697SOL    HW147924   9.178   6.156   6.861
48697SOL    HW247925   9.243   6.278   6.800
48698SOL     OW47926   6.884   1.026   6.578
48698SOL    HW147927   6.828   1.028   6.500
48698SOL    HW247928   6.962   0.979   6.550
48699SOL     OW47929  10.846   2.734   8.881
48699SOL    HW147930  10.824   2.767   8.968
48699SOL    HW247931  10.789   2.782   8.821
48700SOL     OW47932   1.164   7.636   0.630
48700SOL    HW147933   1.197   7.725   0.618
48700SOL    HW247934   1.235   7.591   0.676
48701SOL     OW47935   1.889   2.213   3.089
48701SOL    HW147936   1.838   2.147   3.136
48701SOL    HW247937   1.971   2.169   3.066
48702SOL     OW47938  12.290   9.923   0.940
48702SOL    HW147939  12.297   9.881   1.025
48702SOL    HW247940  12.381   9.931   0.909
48703SOL     OW47941   8.911  14.546   5.844
48703SOL    HW147942   8.919  14.510   5.932
48703SOL    HW247943   8.830  14.506   5.810
48704SOL     OW47944  10.973  13.918   0.492
48704SOL    HW147945  11.014  13.939   0.576
48704SOL    HW247946  10.986  13.824   0.482
48705SOL     OW47947   4.809  13.743   9.650
48705SOL    HW147948   4.841  13.655   9.664
48705SOL    HW247949   4.837  13.792   9.728
48706SOL     OW47950   5.693   3.472  13.389
48706SOL    HW147951   5.693   3.397  13.448
48706SOL    HW247952   5.661   3.437  13.306
48707SOL     OW47953   7.541   2.593  13.517
48707SOL    HW147954   7.635   2.601  13.500
48707SOL    HW247955   7.515   2.512  13.472
48708SOL     OW47956   3.376   4.242   6.965
48708SOL    HW147957   3.439   4.205   6.903
48708SOL    HW247958   3.363   4.172   7.030
48709SOL     OW47959   3.163   1.250  14.133
48709SOL    HW147960   3.100   1.250  14.205
48709SOL    HW247961   3.163   1.340  14.100
48710SOL     OW47962  10.328   8.476   0.393
48710SOL    HW147963  10.357   8.414   0.460
48710SOL    HW247964  10.399   8.477   0.328
48711SOL     OW47965   1.354   6.274   5.896
48711SOL    HW147966   1.420   6.326   5.943
48711SOL    HW247967   1.346   6.194   5.947
48712SOL     OW47968   4.699   4.755   8.849
48712SOL    HW147969   4.615   4.714   8.833
48712SOL    HW247970   4.681   4.824   8.914
48713SOL     OW47971   4.318   2.903   9.606
48713SOL    HW147972   4.370   2.885   9.528
48713SOL    HW247973   4.273   2.820   9.624
48714SOL     OW47974   6.826  10.508   4.608
48714SOL    HW147975   6.838  10.419   4.574
48714SOL    HW247976   6.732  10.519   4.615
48715SOL     OW47977   1.710   5.773  12.131
48715SOL    HW147978   1.649   5.801  12.199
48715SOL    HW247979   1.792   5.817  12.152
48716SOL     OW47980   0.306   9.180  14.657
48716SOL    HW147981   0.281   9.154  14.568
48716SOL    HW247982   0.232   9.232  14.689
48717SOL     OW47983   7.533   9.633   1.485
48717SOL    HW147984   7.551   9.631   1.579
48717SOL    HW247985   7.549   9.543   1.456
48718SOL     OW47986   1.505   4.746   2.013
48718SOL    HW147987   1.570   4.774   2.077
48718SOL    HW247988   1.460   4.827   1.988
48719SOL     OW47989   3.862   6.397  10.405
48719SOL    HW147990   3.781   6.426  10.449
48719SOL    HW247991   3.913   6.477  10.395
48720SOL     OW47992   6.856   1.296   9.603
48720SOL    HW147993   6.853   1.315   9.509
48720SOL    HW247994   6.814   1.372   9.644
48721SOL     OW47995  12.248   5.219  12.497
48721SOL    HW147996  12.289   5.166  12.428
48721SOL    HW247997  12.156   5.224  12.471
48722SOL     OW47998  12.151  14.719  12.449
48722SOL    HW147999  12.076  14.724  12.508
48722SOL    HW248000  12.226  14.706  12.507
48723SOL     OW48001  14.509  13.768  11.368
48723SOL    HW148002  14.567  13.825  11.317
48723SOL    HW248003  14.463  13.715  11.303
48724SOL     OW48004   9.470   4.429  13.432
48724SOL    HW148005   9.488   4.391  13.517
48724SOL    HW248006   9.427   4.359  13.383
48725SOL     OW48007   2.880   9.353   0.831
48725SOL    HW148008   2.896   9.357   0.736
48725SOL    HW248009   2.953   9.302   0.865
48726SOL     OW48010   0.064  14.759   8.011
48726SOL    HW148011   0.109  14.702   7.949
48726SOL    HW248012   0.011  14.699   8.064
48727SOL     OW48013  13.230   0.415   2.637
48727SOL    HW148014  13.259   0.339   2.586
48727SOL    HW248015  13.171   0.379   2.703
48728SOL     OW48016  12.288   2.312   0.795
48728SOL    HW148017  12.352   2.382   0.783
48728SOL    HW248018  12.254   2.295   0.707
48729SOL     OW48019  13.637   2.962   0.891
48729SOL    HW148020  13.637   3.051   0.856
48729SOL    HW248021  13.697   2.913   0.834
48730SOL     OW48022  12.283   4.439   5.941
48730SOL    HW148023  12.234   4.374   5.890
48730SOL    HW248024  12.247   4.523   5.911
48731SOL     OW48025  13.150   2.539  11.013
48731SOL    HW148026  13.105   2.614  10.974
48731SOL    HW248027  13.243   2.554  10.992
48732SOL     OW48028   3.985  11.686   7.479
48732SOL    HW148029   4.075  11.679   7.510
48732SOL    HW248030   3.932  11.644   7.547
48733SOL     OW48031   9.146   1.167   1.563
48733SOL    HW148032   9.186   1.082   1.549
48733SOL    HW248033   9.077   1.173   1.497
48734SOL     OW48034   4.139  13.836   6.995
48734SOL    HW148035   4.220  13.788   7.014
48734SOL    HW248036   4.079  13.769   6.962
48735SOL     OW48037  11.511   0.294  13.630
48735SOL    HW148038  11.599   0.293  13.668
48735SOL    HW248039  11.526   0.280  13.537
48736SOL     OW48040   0.293   4.402   1.910
48736SOL    HW148041   0.288   4.497   1.921
48736SOL    HW248042   0.379   4.378   1.943
48737SOL     OW48043   0.888  14.070   3.836
48737SOL    HW148044   0.982  14.091   3.840
48737SOL    HW248045   0.879  14.014   3.758
48738SOL     OW48046   0.279   2.737  11.544
48738SOL    HW148047   0.312   2.827  11.547
48738SOL    HW248048   0.215   2.733  11.614
48739SOL     OW48049  11.374  12.034  10.736
48739SOL    HW148050  11.343  12.098  10.672
48739SOL    HW248051  11.298  12.016  10.790
48740SOL     OW48052   9.611   3.193   7.955
48740SOL    HW148053   9.682   3.256   7.969
48740SOL    HW248054   9.597   3.195   7.860
48741SOL     OW48055   2.264   8.042  14.839
48741SOL    HW148056   2.172   8.060  14.818
48741SOL    HW248057   2.313   8.084  14.768
48742SOL     OW48058   6.930   8.289   2.205
48742SOL    HW148059   6.996   8.234   2.248
48742SOL    HW248060   6.949   8.377   2.237
48743SOL     OW48061  14.002   8.238   4.163
48743SOL    HW148062  14.089   8.273   4.144
48743SOL    HW248063  13.999   8.231   4.258
48744SOL     OW48064   8.694   7.522   9.055
48744SOL    HW148065   8.682   7.594   8.993
48744SOL    HW248066   8.686   7.562   9.141
48745SOL     OW48067   1.257   5.820   2.948
48745SOL    HW148068   1.284   5.853   2.862
48745SOL    HW248069   1.185   5.877   2.974
48746SOL     OW48070   4.800  11.524  11.845
48746SOL    HW148071   4.843  11.600  11.806
48746SOL    HW248072   4.751  11.484  11.772
48747SOL     OW48073   9.532  12.279   3.006
48747SOL    HW148074   9.526  12.343   2.935
48747SOL    HW248075   9.442  12.250   3.019
48748SOL     OW48076   9.072   8.893   8.947
48748SOL    HW148077   9.110   8.925   9.029
48748SOL    HW248078   9.012   8.962   8.920
48749SOL     OW48079   9.351   6.914  12.005
48749SOL    HW148080   9.406   6.981  12.045
48749SOL    HW248081   9.288   6.890  12.072
48750SOL     OW48082  12.222   7.444   4.803
48750SOL    HW148083  12.161   7.470   4.734
48750SOL    HW248084  12.166   7.423   4.878
48751SOL     OW48085   8.807  14.159   6.847
48751SOL    HW148086   8.746  14.136   6.918
48751SOL    HW248087   8.878  14.206   6.891
48752SOL     OW48088  11.842   5.956  12.601
48752SOL    HW148089  11.909   5.956  12.670
48752SOL    HW248090  11.809   6.046  12.600
48753SOL     OW48091  11.673  13.671  11.991
48753SOL    HW148092  11.624  13.682  12.072
48753SOL    HW248093  11.607  13.673  11.922
48754SOL     OW48094   5.864   2.727  14.622
48754SOL    HW148095   5.801   2.670  14.577
48754SOL    HW248096   5.810   2.796  14.660
48755SOL     OW48097   0.382   5.474   0.336
48755SOL    HW148098   0.427   5.396   0.305
48755SOL    HW248099   0.339   5.510   0.258
48756SOL     OW48100   1.447  10.123   5.415
48756SOL    HW148101   1.424  10.213   5.438
48756SOL    HW248102   1.392  10.069   5.472
48757SOL     OW48103   8.842  13.305   0.704
48757SOL    HW148104   8.847  13.368   0.775
48757SOL    HW248105   8.807  13.225   0.745
48758SOL     OW48106  10.128   9.695   6.806
48758SOL    HW148107  10.064   9.739   6.862
48758SOL    HW248108  10.100   9.604   6.805
48759SOL     OW48109   2.236  11.819   2.650
48759SOL    HW148110   2.175  11.869   2.705
48759SOL    HW248111   2.262  11.745   2.705
48760SOL     OW48112   1.871   3.405   0.508
48760SOL    HW148113   1.804   3.451   0.559
48760SOL    HW248114   1.950   3.410   0.562
48761SOL     OW48115  10.684   8.791   5.229
48761SOL    HW148116  10.648   8.869   5.186
48761SOL    HW248117  10.770   8.780   5.190
48762SOL     OW48118  12.739   2.292  14.781
48762SOL    HW148119  12.811   2.352  14.801
48762SOL    HW248120  12.672   2.348  14.742
48763SOL     OW48121  10.123   4.048  12.464
48763SOL    HW148122  10.073   4.126  12.485
48763SOL    HW248123  10.184   4.076  12.396
48764SOL     OW48124  10.436  13.106   0.308
48764SOL    HW148125  10.483  13.174   0.357
48764SOL    HW248126  10.411  13.148   0.226
48765SOL     OW48127   1.479  11.974  11.042
48765SOL    HW148128   1.443  11.980  10.954
48765SOL    HW248129   1.428  11.905  11.084
48766SOL     OW48130   9.871   1.033  14.152
48766SOL    HW148131   9.904   1.052  14.064
48766SOL    HW248132   9.893   1.111  14.203
48767SOL     OW48133   2.954   4.376  10.358
48767SOL    HW148134   2.907   4.449  10.398
48767SOL    HW248135   2.941   4.303  10.418
48768SOL     OW48136   2.709   5.325   3.803
48768SOL    HW148137   2.734   5.395   3.862
48768SOL    HW248138   2.633   5.284   3.844
48769SOL     OW48139   8.500   2.550   6.760
48769SOL    HW148140   8.513   2.462   6.794
48769SOL    HW248141   8.533   2.608   6.829
48770SOL     OW48142  10.844   3.301   3.666
48770SOL    HW148143  10.810   3.213   3.680
48770SOL    HW248144  10.924   3.305   3.718
48771SOL     OW48145  13.685  10.319   0.233
48771SOL    HW148146  13.627  10.325   0.309
48771SOL    HW248147  13.701  10.226   0.222
48772SOL     OW48148   4.597   9.985   2.696
48772SOL    HW148149   4.564  10.074   2.709
48772SOL    HW248150   4.672   9.978   2.755
48773SOL     OW48151  13.654   3.090   4.477
48773SOL    HW148152  13.602   3.130   4.408
48773SOL    HW248153  13.636   2.996   4.470
48774SOL     OW48154  14.691   3.293   7.672
48774SOL    HW148155  14.658   3.379   7.700
48774SOL    HW248156  14.621   3.232   7.696
48775SOL     OW48157   5.785   0.762  13.948
48775SOL    HW148158   5.856   0.780  13.886
48775SOL    HW248159   5.741   0.846  13.958
48776SOL     OW48160  12.597   3.235  10.889
48776SOL    HW148161  12.685   3.265  10.868
48776SOL    HW248162  12.593   3.146  10.853
48777SOL     OW48163   9.246   4.886   0.383
48777SOL    HW148164   9.259   4.809   0.328
48777SOL    HW248165   9.194   4.945   0.329
48778SOL     OW48166   8.719   7.453  11.674
48778SOL    HW148167   8.666   7.509  11.730
48778SOL    HW248168   8.699   7.364  11.702
48779SOL     OW48169   2.102   3.118  11.533
48779SOL    HW148170   2.066   3.029  11.536
48779SOL    HW248171   2.032   3.173  11.569
48780SOL     OW48172   8.647   5.846   2.796
48780SOL    HW148173   8.726   5.864   2.747
48780SOL    HW248174   8.646   5.750   2.806
48781SOL     OW48175   6.614   4.014   3.089
48781SOL    HW148176   6.649   4.103   3.094
48781SOL    HW248177   6.690   3.959   3.071
48782SOL     OW48178   8.344   1.539  13.764
48782SOL    HW148179   8.408   1.484  13.808
48782SOL    HW248180   8.266   1.534  13.821
48783SOL     OW48181   0.519  12.090  12.463
48783SOL    HW148182   0.597  12.108  12.516
48783SOL    HW248183   0.453  12.152  12.495
48784SOL     OW48184   9.394  14.796  12.400
48784SOL    HW148185   9.402   0.009  12.423
48784SOL    HW248186   9.332  14.795  12.326
48785SOL     OW48187  11.098   2.144  12.873
48785SOL    HW148188  11.048   2.083  12.927
48785SOL    HW248189  11.032   2.189  12.820
48786SOL     OW48190   3.268   3.490  12.094
48786SOL    HW148191   3.347   3.543  12.087
48786SOL    HW248192   3.197   3.553  12.103
48787SOL     OW48193  13.290  13.096   1.496
48787SOL    HW148194  13.254  13.010   1.472
48787SOL    HW248195  13.258  13.112   1.584
48788SOL     OW48196  10.424  10.742   4.818
48788SOL    HW148197  10.400  10.696   4.738
48788SOL    HW248198  10.513  10.711   4.837
48789SOL     OW48199  13.850   9.817   4.734
48789SOL    HW148200  13.755   9.810   4.741
48789SOL    HW248201  13.882   9.728   4.752
48790SOL     OW48202   5.019  13.960   4.078
48790SOL    HW148203   4.951  13.919   4.025
48790SOL    HW248204   5.083  13.890   4.094
48791SOL     OW48205   4.603   5.621   1.761
48791SOL    HW148206   4.526   5.585   1.718
48791SOL    HW248207   4.569   5.675   1.832
48792SOL     OW48208   2.482   6.702   2.556
48792SOL    HW148209   2.449   6.662   2.637
48792SOL    HW248210   2.569   6.666   2.545
48793SOL     OW48211   2.601   9.507   4.427
48793SOL    HW148212   2.599   9.450   4.504
48793SOL    HW248213   2.523   9.563   4.437
48794SOL     OW48214   8.640   5.276  14.262
48794SOL    HW148215   8.653   5.309  14.174
48794SOL    HW248216   8.601   5.189  14.249
48795SOL     OW48217  14.169   4.045   7.871
48795SOL    HW148218  14.078   4.017   7.872
48795SOL    HW248219  14.179   4.091   7.787
48796SOL     OW48220   2.061  12.797   4.555
48796SOL    HW148221   2.112  12.813   4.635
48796SOL    HW248222   1.985  12.856   4.563
48797SOL     OW48223  13.663   7.395  12.089
48797SOL    HW148224  13.606   7.369  12.161
48797SOL    HW248225  13.613   7.374  12.010
48798SOL     OW48226   2.757   7.012  13.695
48798SOL    HW148227   2.723   7.082  13.751
48798SOL    HW248228   2.681   6.984  13.643
48799SOL     OW48229   2.280   2.291  11.885
48799SOL    HW148230   2.274   2.387  11.889
48799SOL    HW248231   2.360   2.274  11.837
48800SOL     OW48232   4.224  10.235  10.696
48800SOL    HW148233   4.278  10.159  10.717
48800SOL    HW248234   4.247  10.257  10.606
48801SOL     OW48235   8.314   2.169   4.423
48801SOL    HW148236   8.254   2.186   4.496
48801SOL    HW248237   8.292   2.080   4.395
48802SOL     OW48238  14.464   1.886   3.009
48802SOL    HW148239  14.526   1.815   2.995
48802SOL    HW248240  14.512   1.965   2.983
48803SOL     OW48241   2.177   2.021  12.488
48803SOL    HW148242   2.111   1.954  12.469
48803SOL    HW248243   2.191   2.066  12.405
48804SOL     OW48244   6.810   9.607   1.988
48804SOL    HW148245   6.853   9.650   2.061
48804SOL    HW248246   6.870   9.619   1.914
48805SOL     OW48247   6.343  12.645   4.911
48805SOL    HW148248   6.376  12.592   4.839
48805SOL    HW248249   6.251  12.660   4.891
48806SOL     OW48250   0.130   1.971   6.746
48806SOL    HW148251   0.207   1.916   6.762
48806SOL    HW248252   0.086   1.929   6.672
48807SOL     OW48253   3.392   1.634   4.696
48807SOL    HW148254   3.310   1.599   4.730
48807SOL    HW248255   3.444   1.653   4.774
48808SOL     OW48256   9.374   5.428   7.226
48808SOL    HW148257   9.337   5.515   7.210
48808SOL    HW248258   9.462   5.433   7.188
48809SOL     OW48259   1.171   5.078   9.444
48809SOL    HW148260   1.114   5.011   9.407
48809SOL    HW248261   1.259   5.052   9.417
48810SOL     OW48262   3.700  10.292  12.242
48810SOL    HW148263   3.635  10.344  12.194
48810SOL    HW248264   3.784  10.328  12.214
48811SOL     OW48265  11.861   8.883   7.612
48811SOL    HW148266  11.794   8.901   7.546
48811SOL    HW248267  11.886   8.791   7.596
48812SOL     OW48268   6.939   7.557   8.264
48812SOL    HW148269   7.019   7.507   8.272
48812SOL    HW248270   6.931   7.603   8.348
48813SOL     OW48271   0.648  12.679   1.884
48813SOL    HW148272   0.692  12.678   1.799
48813SOL    HW248273   0.605  12.594   1.890
48814SOL     OW48274   5.081  10.968   4.050
48814SOL    HW148275   5.166  10.935   4.022
48814SOL    HW248276   5.081  10.958   4.145
48815SOL     OW48277   7.201   4.117   9.561
48815SOL    HW148278   7.227   4.154   9.476
48815SOL    HW248279   7.186   4.193   9.617
48816SOL     OW48280   7.965   0.902   7.144
48816SOL    HW148281   8.048   0.897   7.191
48816SOL    HW248282   7.926   0.984   7.172
48817SOL     OW48283   7.972   8.717  11.786
48817SOL    HW148284   7.906   8.723  11.855
48817SOL    HW248285   8.038   8.782  11.811
48818SOL     OW48286   8.786   2.245   6.457
48818SOL    HW148287   8.775   2.161   6.411
48818SOL    HW248288   8.728   2.239   6.532
48819SOL     OW48289  14.689   4.896  12.117
48819SOL    HW148290  14.738   4.908  12.199
48819SOL    HW248291  14.682   4.984  12.080
48820SOL     OW48292   3.171   0.053  10.205
48820SOL    HW148293   3.173   0.147  10.185
48820SOL    HW248294   3.133   0.013  10.127
48821SOL     OW48295   2.557  12.427  11.127
48821SOL    HW148296   2.625  12.367  11.159
48821SOL    HW248297   2.540  12.397  11.038
48822SOL     OW48298   0.101   3.222   0.553
48822SOL    HW148299   0.018   3.175   0.562
48822SOL    HW248300   0.108   3.274   0.633
48823SOL     OW48301  14.729  13.627  11.107
48823SOL    HW148302  14.810  13.593  11.146
48823SOL    HW248303  14.714  13.571  11.031
48824SOL     OW48304   8.467   6.879   9.408
48824SOL    HW148305   8.454   6.883   9.313
48824SOL    HW248306   8.407   6.945   9.444
48825SOL     OW48307  11.877   8.707  14.166
48825SOL    HW148308  11.907   8.794  14.139
48825SOL    HW248309  11.782   8.710  14.153
48826SOL     OW48310   5.830  14.016  11.571
48826SOL    HW148311   5.923  14.040  11.567
48826SOL    HW248312   5.830  13.920  11.570
48827SOL     OW48313   8.362   5.224   5.513
48827SOL    HW148314   8.415   5.253   5.587
48827SOL    HW248315   8.375   5.129   5.510
48828SOL     OW48316  10.896   7.133   7.105
48828SOL    HW148317  10.863   7.078   7.176
48828SOL    HW248318  10.981   7.165   7.137
48829SOL     OW48319  10.440   6.500   3.042
48829SOL    HW148320  10.361   6.514   2.991
48829SOL    HW248321  10.492   6.580   3.031
48830SOL     OW48322   4.794  11.953  13.065
48830SOL    HW148323   4.845  11.912  12.995
48830SOL    HW248324   4.752  11.879  13.110
48831SOL     OW48325   1.889   5.142   2.678
48831SOL    HW148326   1.961   5.100   2.630
48831SOL    HW248327   1.851   5.071   2.730
48832SOL     OW48328   6.813   6.431   2.477
48832SOL    HW148329   6.800   6.525   2.484
48832SOL    HW248330   6.854   6.419   2.392
48833SOL     OW48331  13.401  12.853   3.792
48833SOL    HW148332  13.470  12.795   3.760
48833SOL    HW248333  13.328  12.795   3.811
48834SOL     OW48334   5.098   9.483   4.476
48834SOL    HW148335   5.034   9.537   4.522
48834SOL    HW248336   5.054   9.400   4.461
48835SOL     OW48337   3.866   8.684   6.326
48835SOL    HW148338   3.926   8.740   6.277
48835SOL    HW248339   3.921   8.610   6.355
48836SOL     OW48340   1.157   4.837   8.991
48836SOL    HW148341   1.136   4.812   9.081
48836SOL    HW248342   1.158   4.933   8.993
48837SOL     OW48343   6.461  12.171   9.222
48837SOL    HW148344   6.499  12.214   9.298
48837SOL    HW248345   6.519  12.097   9.205
48838SOL     OW48346   8.801   2.294   7.049
48838SOL    HW148347   8.854   2.215   7.045
48838SOL    HW248348   8.770   2.297   7.139
48839SOL     OW48349   7.799   2.864   5.741
48839SOL    HW148350   7.727   2.921   5.767
48839SOL    HW248351   7.878   2.918   5.751
48840SOL     OW48352   8.196  14.829   0.179
48840SOL    HW148353   8.265  14.770   0.209
48840SOL    HW248354   8.204   0.026   0.235
48841SOL     OW48355   2.191   4.491  12.552
48841SOL    HW148356   2.154   4.578  12.568
48841SOL    HW248357   2.224   4.462  12.637
48842SOL     OW48358  12.878  12.439   7.411
48842SOL    HW148359  12.901  12.346   7.399
48842SOL    HW248360  12.802  12.452   7.355
48843SOL     OW48361   5.129   1.187   0.540
48843SOL    HW148362   5.038   1.157   0.542
48843SOL    HW248363   5.124   1.282   0.556
48844SOL     OW48364  13.097   2.287   9.828
48844SOL    HW148365  13.159   2.265   9.758
48844SOL    HW248366  13.038   2.351   9.787
48845SOL     OW48367  14.190  12.233   3.614
48845SOL    HW148368  14.161  12.147   3.644
48845SOL    HW248369  14.109  12.281   3.596
48846SOL     OW48370   1.302   7.815  13.159
48846SOL    HW148371   1.317   7.905  13.131
48846SOL    HW248372   1.211   7.796  13.134
48847SOL     OW48373   3.814  10.247  10.921
48847SOL    HW148374   3.734  10.244  10.868
48847SOL    HW248375   3.874  10.187  10.877
48848SOL     OW48376  13.745   7.787   0.348
48848SOL    HW148377  13.661   7.753   0.381
48848SOL    HW248378  13.805   7.778   0.422
48849SOL     OW48379   6.426   7.009   1.151
48849SOL    HW148380   6.384   7.065   1.216
48849SOL    HW248381   6.519   7.034   1.154
48850SOL     OW48382   2.642  10.170   1.412
48850SOL    HW148383   2.631  10.264   1.404
48850SOL    HW248384   2.644  10.153   1.506
48851SOL     OW48385   9.665   7.696  10.249
48851SOL    HW148386   9.756   7.693  10.278
48851SOL    HW248387   9.615   7.717  10.327
48852SOL     OW48388   8.481  13.142  12.116
48852SOL    HW148389   8.502  13.128  12.208
48852SOL    HW248390   8.426  13.067  12.092
48853SOL     OW48391  11.612   3.102   3.075
48853SOL    HW148392  11.603   3.120   3.168
48853SOL    HW248393  11.613   3.189   3.034
48854SOL     OW48394   0.040   7.839   4.956
48854SOL    HW148395   0.116   7.887   4.988
48854SOL    HW248396   0.054   7.749   4.987
48855SOL     OW48397  14.594   2.623   1.649
48855SOL    HW148398  14.616   2.681   1.576
48855SOL    HW248399  14.550   2.680   1.712
48856SOL     OW48400   1.467   1.640  10.800
48856SOL    HW148401   1.476   1.571  10.735
48856SOL    HW248402   1.464   1.721  10.749
48857SOL     OW48403   1.344   6.378  13.592
48857SOL    HW148404   1.422   6.378  13.648
48857SOL    HW248405   1.271   6.387  13.654
48858SOL     OW48406  13.329   1.216   0.655
48858SOL    HW148407  13.258   1.278   0.672
48858SOL    HW248408  13.299   1.134   0.693
48859SOL     OW48409   4.533   5.609   8.431
48859SOL    HW148410   4.460   5.578   8.376
48859SOL    HW248411   4.500   5.690   8.471
48860SOL     OW48412   0.242   9.381  14.480
48860SOL    HW148413   0.205   9.373  14.567
48860SOL    HW248414   0.251   9.291  14.449
48861SOL     OW48415   6.090   9.495   0.450
48861SOL    HW148416   6.165   9.527   0.400
48861SOL    HW248417   6.021   9.560   0.434
48862SOL     OW48418   0.355   9.599  14.366
48862SOL    HW148419   0.309   9.516  14.382
48862SOL    HW248420   0.342   9.650  14.446
48863SOL     OW48421   7.734  13.675   1.019
48863SOL    HW148422   7.715  13.707   1.107
48863SOL    HW248423   7.674  13.724   0.963
48864SOL     OW48424   2.431   9.925   9.350
48864SOL    HW148425   2.410   9.845   9.398
48864SOL    HW248426   2.353   9.944   9.298
48865SOL     OW48427   7.161   7.153  12.346
48865SOL    HW148428   7.104   7.166  12.270
48865SOL    HW248429   7.209   7.235  12.355
48866SOL     OW48430  13.430  12.089  10.449
48866SOL    HW148431  13.477  12.105  10.367
48866SOL    HW248432  13.451  11.998  10.471
48867SOL     OW48433   0.170   0.009  11.834
48867SOL    HW148434   0.169  14.807  11.783
48867SOL    HW248435   0.080   0.017  11.867
48868SOL     OW48436   4.398   2.244  13.197
48868SOL    HW148437   4.472   2.303  13.211
48868SOL    HW248438   4.394   2.192  13.277
48869SOL     OW48439  10.653  10.692   0.088
48869SOL    HW148440  10.615  10.621   0.140
48869SOL    HW248441  10.582  10.756   0.079
48870SOL     OW48442   0.280  14.632   7.128
48870SOL    HW148443   0.331  14.694   7.180
48870SOL    HW248444   0.317  14.638   7.040
48871SOL     OW48445   1.697   2.757   3.755
48871SOL    HW148446   1.730   2.789   3.670
48871SOL    HW248447   1.609   2.795   3.761
48872SOL     OW48448   6.487   4.174   1.192
48872SOL    HW148449   6.459   4.185   1.283
48872SOL    HW248450   6.407   4.149   1.145
48873SOL     OW48451   4.145  12.045   7.666
48873SOL    HW148452   4.206  12.067   7.596
48873SOL    HW248453   4.179  11.964   7.703
48874SOL     OW48454   9.480  10.106   4.793
48874SOL    HW148455   9.416  10.149   4.736
48874SOL    HW248456   9.563  10.112   4.745
48875SOL     OW48457  12.448   5.540  12.370
48875SOL    HW148458  12.460   5.581  12.284
48875SOL    HW248459  12.370   5.485  12.359
48876SOL     OW48460  14.833  10.146   4.812
48876SOL    HW148461  14.759  10.180   4.861
48876SOL    HW248462   0.007  10.223   4.791
48877SOL     OW48463   1.626  12.254  14.094
48877SOL    HW148464   1.704  12.202  14.075
48877SOL    HW248465   1.653  12.312  14.165
48878SOL     OW48466   7.806   2.395  13.147
48878SOL    HW148467   7.800   2.486  13.176
48878SOL    HW248468   7.843   2.400  13.059
48879SOL     OW48469   7.473   4.063   7.055
48879SOL    HW148470   7.405   4.103   7.001
48879SOL    HW248471   7.544   4.043   6.993
48880SOL     OW48472   4.563  12.719   7.093
48880SOL    HW148473   4.644  12.724   7.042
48880SOL    HW248474   4.504  12.780   7.049
48881SOL     OW48475  14.463   6.316  12.954
48881SOL    HW148476  14.433   6.404  12.934
48881SOL    HW248477  14.419   6.293  13.036
48882SOL     OW48478   8.900  13.073  12.035
48882SOL    HW148479   8.973  13.089  11.975
48882SOL    HW248480   8.851  13.001  11.996
48883SOL     OW48481  14.128   1.767   7.407
48883SOL    HW148482  14.120   1.674   7.385
48883SOL    HW248483  14.143   1.768   7.502
48884SOL     OW48484  11.493  13.280  14.860
48884SOL    HW148485  11.553  13.341  14.816
48884SOL    HW248486  11.551  13.218   0.025
48885SOL     OW48487  12.161  12.067   1.839
48885SOL    HW148488  12.197  12.117   1.913
48885SOL    HW248489  12.232  12.009   1.813
48886SOL     OW48490   4.597   8.442  10.128
48886SOL    HW148491   4.659   8.493  10.180
48886SOL    HW248492   4.612   8.469  10.038
48887SOL     OW48493   9.625  13.708  11.660
48887SOL    HW148494   9.615  13.781  11.721
48887SOL    HW248495   9.650  13.634  11.715
48888SOL     OW48496   2.155   9.043  13.635
48888SOL    HW148497   2.103   8.964  13.620
48888SOL    HW248498   2.140   9.065  13.727
48889SOL     OW48499   6.893   7.346   3.129
48889SOL    HW148500   6.919   7.409   3.196
48889SOL    HW248501   6.815   7.303   3.165
48890SOL     OW48502  13.149  13.644  13.155
48890SOL    HW148503  13.152  13.555  13.119
48890SOL    HW248504  13.228  13.686  13.121
48891SOL     OW48505   1.134   5.552   5.413
48891SOL    HW148506   1.055   5.595   5.381
48891SOL    HW248507   1.173   5.513   5.335
48892SOL     OW48508  11.320   1.352  13.878
48892SOL    HW148509  11.302   1.439  13.843
48892SOL    HW248510  11.258   1.295  13.832
48893SOL     OW48511  10.104   8.834  12.740
48893SOL    HW148512  10.195   8.804  12.736
48893SOL    HW248513  10.102   8.909  12.681
48894SOL     OW48514   6.673  12.759  12.398
48894SOL    HW148515   6.637  12.737  12.484
48894SOL    HW248516   6.612  12.721  12.335
48895SOL     OW48517   1.621  10.103   5.163
48895SOL    HW148518   1.592  10.014   5.145
48895SOL    HW248519   1.560  10.135   5.230
48896SOL     OW48520   1.491  11.001  12.028
48896SOL    HW148521   1.567  11.015  12.086
48896SOL    HW248522   1.468  10.910  12.042
48897SOL     OW48523  13.866   3.709  14.409
48897SOL    HW148524  13.934   3.756  14.459
48897SOL    HW248525  13.876   3.741  14.319
48898SOL     OW48526   7.064   8.521  12.026
48898SOL    HW148527   7.058   8.468  11.947
48898SOL    HW248528   6.974   8.526  12.058
48899SOL     OW48529  11.020  11.496   6.294
48899SOL    HW148530  11.062  11.504   6.380
48899SOL    HW248531  10.945  11.555   6.298
48900SOL     OW48532  11.144  13.968   7.461
48900SOL    HW148533  11.199  13.897   7.426
48900SOL    HW248534  11.204  14.042   7.469
48901SOL     OW48535   1.106   7.363  13.167
48901SOL    HW148536   1.198   7.376  13.146
48901SOL    HW248537   1.098   7.389  13.259
48902SOL     OW48538  10.745   6.848   8.253
48902SOL    HW148539  10.810   6.917   8.238
48902SOL    HW248540  10.705   6.871   8.337
48903SOL     OW48541   5.947   6.007   4.454
48903SOL    HW148542   5.852   6.014   4.440
48903SOL    HW248543   5.956   5.946   4.527
48904SOL     OW48544   2.271   0.679  11.827
48904SOL    HW148545   2.181   0.701  11.850
48904SOL    HW248546   2.265   0.644  11.738
48905SOL     OW48547  14.114   5.480  10.894
48905SOL    HW148548  14.196   5.445  10.860
48905SOL    HW248549  14.126   5.574  10.897
48906SOL     OW48550  13.098  10.050  12.857
48906SOL    HW148551  13.021  10.043  12.801
48906SOL    HW248552  13.172  10.029  12.800
48907SOL     OW48553  14.141   6.383   9.098
48907SOL    HW148554  14.187   6.325   9.038
48907SOL    HW248555  14.125   6.463   9.047
48908SOL     OW48556  14.628  11.757   9.255
48908SOL    HW148557  14.711  11.756   9.208
48908SOL    HW248558  14.566  11.796   9.194
48909SOL     OW48559  13.378   9.195   3.275
48909SOL    HW148560  13.418   9.183   3.361
48909SOL    HW248561  13.316   9.123   3.267
48910SOL     OW48562  14.439   3.359   6.901
48910SOL    HW148563  14.461   3.295   6.834
48910SOL    HW248564  14.477   3.441   6.870
48911SOL     OW48565  14.698   4.868   1.040
48911SOL    HW148566  14.727   4.910   1.121
48911SOL    HW248567  14.774   4.818   1.011
48912SOL     OW48568   2.441   1.177   0.395
48912SOL    HW148569   2.498   1.145   0.465
48912SOL    HW248570   2.356   1.137   0.414
48913SOL     OW48571   4.201  12.993   1.701
48913SOL    HW148572   4.186  12.910   1.748
48913SOL    HW248573   4.265  12.971   1.634
48914SOL     OW48574   3.551   2.641  11.460
48914SOL    HW148575   3.593   2.649  11.374
48914SOL    HW248576   3.624   2.642  11.522
48915SOL     OW48577  12.206   8.384   1.611
48915SOL    HW148578  12.171   8.338   1.687
48915SOL    HW248579  12.130   8.430   1.574
48916SOL     OW48580   0.253   8.975  12.875
48916SOL    HW148581   0.302   8.993  12.955
48916SOL    HW248582   0.211   8.891  12.891
48917SOL     OW48583   2.369   6.477  10.599
48917SOL    HW148584   2.292   6.495  10.545
48917SOL    HW248585   2.441   6.468  10.536
48918SOL     OW48586   4.621  10.916  11.231
48918SOL    HW148587   4.569  10.886  11.305
48918SOL    HW248588   4.617  10.843  11.168
48919SOL     OW48589  12.808  12.949  10.175
48919SOL    HW148590  12.877  12.960  10.110
48919SOL    HW248591  12.755  13.029  10.168
48920SOL     OW48592   5.832   0.799  13.125
48920SOL    HW148593   5.793   0.776  13.041
48920SOL    HW248594   5.872   0.885  13.111
48921SOL     OW48595   8.764  11.863  13.754
48921SOL    HW148596   8.717  11.866  13.671
48921SOL    HW248597   8.705  11.817  13.814
48922SOL     OW48598  11.154  10.559  14.007
48922SOL    HW148599  11.135  10.653  13.999
48922SOL    HW248600  11.249  10.555  14.014
48923SOL     OW48601   9.847   5.878   8.408
48923SOL    HW148602   9.929   5.896   8.454
48923SOL    HW248603   9.805   5.810   8.460
48924SOL     OW48604   4.904  10.387   6.836
48924SOL    HW148605   4.856  10.418   6.913
48924SOL    HW248606   4.996  10.402   6.858
48925SOL     OW48607   3.619   1.407  10.709
48925SOL    HW148608   3.689   1.430  10.771
48925SOL    HW248609   3.653   1.329  10.664
48926SOL     OW48610   9.986   8.876   4.424
48926SOL    HW148611   9.929   8.810   4.385
48926SOL    HW248612  10.055   8.890   4.359
48927SOL     OW48613   4.935   3.470   9.938
48927SOL    HW148614   5.015   3.497   9.893
48927SOL    HW248615   4.864   3.508   9.887
48928SOL     OW48616  11.478   0.946  12.498
48928SOL    HW148617  11.392   0.978  12.469
48928SOL    HW248618  11.464   0.920  12.589
48929SOL     OW48619   8.994   9.342  10.298
48929SOL    HW148620   9.023   9.256  10.268
48929SOL    HW248621   8.899   9.333  10.309
48930SOL     OW48622   2.621  10.030   7.838
48930SOL    HW148623   2.654  10.103   7.784
48930SOL    HW248624   2.526  10.033   7.827
48931SOL     OW48625  12.434  10.069  12.893
48931SOL    HW148626  12.420  10.007  12.822
48931SOL    HW248627  12.368  10.045  12.959
48932SOL     OW48628   9.158   7.822  12.265
48932SOL    HW148629   9.247   7.810  12.300
48932SOL    HW248630   9.160   7.909  12.225
48933SOL     OW48631  14.460   2.245  11.852
48933SOL    HW148632  14.464   2.313  11.920
48933SOL    HW248633  14.499   2.168  11.893
48934SOL     OW48634  14.328   5.232   2.610
48934SOL    HW148635  14.416   5.222   2.573
48934SOL    HW248636  14.343   5.260   2.701
48935SOL     OW48637  13.905   6.905   7.458
48935SOL    HW148638  13.880   6.841   7.524
48935SOL    HW248639  13.825   6.920   7.407
48936SOL     OW48640   3.878   2.052   2.642
48936SOL    HW148641   3.824   2.017   2.571
48936SOL    HW248642   3.855   2.145   2.647
48937SOL     OW48643  10.365   8.809   3.669
48937SOL    HW148644  10.320   8.726   3.652
48937SOL    HW248645  10.351   8.861   3.590
48938SOL     OW48646   6.427   3.414   4.251
48938SOL    HW148647   6.427   3.419   4.346
48938SOL    HW248648   6.469   3.494   4.222
48939SOL     OW48649   2.600   5.355  12.575
48939SOL    HW148650   2.523   5.379  12.524
48939SOL    HW248651   2.662   5.320  12.510
48940SOL     OW48652   2.710   3.913  14.538
48940SOL    HW148653   2.657   3.992  14.527
48940SOL    HW248654   2.739   3.891  14.450
48941SOL     OW48655  12.723   0.654  12.958
48941SOL    HW148656  12.695   0.594  12.890
48941SOL    HW248657  12.790   0.709  12.916
48942SOL     OW48658  10.520   9.425   9.004
48942SOL    HW148659  10.501   9.512   9.040
48942SOL    HW248660  10.610   9.433   8.971
48943SOL     OW48661   9.976   3.250   1.740
48943SOL    HW148662   9.988   3.296   1.657
48943SOL    HW248663   9.949   3.162   1.715
48944SOL     OW48664   1.725  14.269  10.350
48944SOL    HW148665   1.669  14.346  10.346
48944SOL    HW248666   1.666  14.195  10.333
48945SOL     OW48667   2.044   9.245   4.110
48945SOL    HW148668   2.071   9.234   4.019
48945SOL    HW248669   2.032   9.156   4.143
48946SOL     OW48670   0.312  14.724   1.743
48946SOL    HW148671   0.305  14.757   1.832
48946SOL    HW248672   0.404  14.737   1.720
48947SOL     OW48673  14.148   0.260  11.139
48947SOL    HW148674  14.233   0.267  11.182
48947SOL    HW248675  14.158   0.309  11.057
48948SOL     OW48676   1.797   0.517   9.548
48948SOL    HW148677   1.713   0.515   9.594
48948SOL    HW248678   1.833   0.429   9.560
48949SOL     OW48679  14.496   1.971   1.546
48949SOL    HW148680  14.481   2.038   1.612
48949SOL    HW248681  14.538   2.017   1.474
48950SOL     OW48682  13.450   8.797   6.080
48950SOL    HW148683  13.429   8.886   6.050
48950SOL    HW248684  13.486   8.754   6.003
48951SOL     OW48685   7.232   2.590  10.412
48951SOL    HW148686   7.204   2.667  10.363
48951SOL    HW248687   7.220   2.614  10.503
48952SOL     OW48688  12.071   0.760   2.937
48952SOL    HW148689  12.051   0.749   2.844
48952SOL    HW248690  12.133   0.832   2.940
48953SOL     OW48691   3.127   7.624   1.656
48953SOL    HW148692   3.104   7.593   1.744
48953SOL    HW248693   3.213   7.584   1.639
48954SOL     OW48694   6.357  10.718   3.736
48954SOL    HW148695   6.434  10.748   3.785
48954SOL    HW248696   6.380  10.630   3.707
48955SOL     OW48697  14.320   6.977  14.053
48955SOL    HW148698  14.274   6.955  14.134
48955SOL    HW248699  14.412   6.983  14.079
48956SOL     OW48700   9.695   9.136   7.897
48956SOL    HW148701   9.640   9.186   7.958
48956SOL    HW248702   9.633   9.102   7.832
48957SOL     OW48703   5.634   4.438   3.196
48957SOL    HW148704   5.666   4.528   3.201
48957SOL    HW248705   5.625   4.411   3.288
48958SOL     OW48706  11.738   8.126   1.326
48958SOL    HW148707  11.775   8.037   1.324
48958SOL    HW248708  11.710   8.141   1.236
48959SOL     OW48709  11.900   4.470   5.532
48959SOL    HW148710  11.908   4.380   5.499
48959SOL    HW248711  11.908   4.525   5.454
48960SOL     OW48712  12.697   7.183   8.878
48960SOL    HW148713  12.705   7.089   8.866
48960SOL    HW248714  12.649   7.193   8.961
48961SOL     OW48715   6.369  10.510  13.232
48961SOL    HW148716   6.307  10.443  13.202
48961SOL    HW248717   6.434  10.461  13.282
48962SOL     OW48718   5.140  10.253  12.906
48962SOL    HW148719   5.087  10.255  12.986
48962SOL    HW248720   5.178  10.165  12.905
48963SOL     OW48721   6.457  13.630   4.532
48963SOL    HW148722   6.382  13.668   4.487
48963SOL    HW248723   6.425  13.549   4.570
48964SOL     OW48724   8.875   1.768   2.126
48964SOL    HW148725   8.912   1.691   2.082
48964SOL    HW248726   8.949   1.827   2.137
48965SOL     OW48727   4.930   0.565   3.270
48965SOL    HW148728   4.982   0.492   3.303
48965SOL    HW248729   4.934   0.631   3.339
48966SOL     OW48730   1.099   0.821   3.338
48966SOL    HW148731   1.045   0.817   3.417
48966SOL    HW248732   1.055   0.886   3.283
48967SOL     OW48733  10.600   3.904  10.703
48967SOL    HW148734  10.622   3.858  10.622
48967SOL    HW248735  10.516   3.867  10.730
48968SOL     OW48736   3.460   3.208  10.268
48968SOL    HW148737   3.371   3.199  10.301
48968SOL    HW248738   3.487   3.118  10.247
48969SOL     OW48739   1.183  11.164  11.167
48969SOL    HW148740   1.239  11.102  11.120
48969SOL    HW248741   1.226  11.177  11.251
48970SOL     OW48742   3.776   3.164   0.472
48970SOL    HW148743   3.752   3.204   0.388
48970SOL    HW248744   3.819   3.234   0.520
48971SOL     OW48745  11.782  13.523  11.397
48971SOL    HW148746  11.811  13.440  11.360
48971SOL    HW248747  11.701  13.543  11.350
48972SOL     OW48748  14.254   7.489   6.035
48972SOL    HW148749  14.235   7.550   6.106
48972SOL    HW248750  14.308   7.540   5.974
48973SOL     OW48751   3.573   0.287  12.244
48973SOL    HW148752   3.636   0.288  12.316
48973SOL    HW248753   3.608   0.221  12.184
48974SOL     OW48754  12.740   0.501   0.930
48974SOL    HW148755  12.813   0.441   0.919
48974SOL    HW248756  12.739   0.553   0.849
48975SOL     OW48757  10.202  14.186   4.733
48975SOL    HW148758  10.201  14.250   4.804
48975SOL    HW248759  10.216  14.238   4.654
48976SOL     OW48760   2.190   9.635   1.510
48976SOL    HW148761   2.163   9.723   1.485
48976SOL    HW248762   2.147   9.578   1.447
48977SOL     OW48763   5.267   3.534   1.672
48977SOL    HW148764   5.348   3.493   1.641
48977SOL    HW248765   5.204   3.462   1.677
48978SOL     OW48766   8.701  13.026   1.887
48978SOL    HW148767   8.681  13.050   1.977
48978SOL    HW248768   8.628  12.971   1.860
48979SOL     OW48769   7.406   7.691  10.167
48979SOL    HW148770   7.353   7.724  10.239
48979SOL    HW248771   7.454   7.617  10.205
48980SOL     OW48772  14.225   6.505   5.848
48980SOL    HW148773  14.314   6.513   5.883
48980SOL    HW248774  14.227   6.557   5.768
48981SOL     OW48775   5.065  13.998   0.497
48981SOL    HW148776   4.993  14.022   0.557
48981SOL    HW248777   5.025  14.000   0.410
48982SOL     OW48778  13.532   2.257  10.350
48982SOL    HW148779  13.452   2.206  10.364
48982SOL    HW248780  13.591   2.228  10.419
48983SOL     OW48781   7.470   7.298   1.603
48983SOL    HW148782   7.411   7.311   1.528
48983SOL    HW248783   7.546   7.353   1.583
48984SOL     OW48784   6.155  13.959   7.288
48984SOL    HW148785   6.104  13.953   7.206
48984SOL    HW248786   6.115  13.895   7.346
48985SOL     OW48787   7.732   8.214   4.762
48985SOL    HW148788   7.672   8.285   4.738
48985SOL    HW248789   7.680   8.134   4.752
48986SOL     OW48790  14.709   3.133  12.788
48986SOL    HW148791  14.774   3.065  12.806
48986SOL    HW248792  14.683   3.164  12.875
48987SOL     OW48793   5.475   9.290  10.913
48987SOL    HW148794   5.556   9.341  10.909
48987SOL    HW248795   5.495   9.218  10.973
48988SOL     OW48796   3.128   6.328   3.775
48988SOL    HW148797   3.134   6.275   3.696
48988SOL    HW248798   3.064   6.397   3.753
48989SOL     OW48799   9.844  11.956   1.753
48989SOL    HW148800   9.913  11.946   1.687
48989SOL    HW248801   9.796  11.873   1.750
48990SOL     OW48802  11.347  13.050   4.447
48990SOL    HW148803  11.281  13.052   4.516
48990SOL    HW248804  11.429  13.035   4.493
48991SOL     OW48805  13.801  10.701   5.637
48991SOL    HW148806  13.871  10.720   5.574
48991SOL    HW248807  13.757  10.784   5.650
48992SOL     OW48808  11.039  13.291   6.969
48992SOL    HW148809  11.113  13.267   7.024
48992SOL    HW248810  11.011  13.208   6.929
48993SOL     OW48811  11.198   0.203  14.480
48993SOL    HW148812  11.207   0.292  14.446
48993SOL    HW248813  11.124   0.208  14.540
48994SOL     OW48814   4.751   0.434   9.383
48994SOL    HW148815   4.834   0.406   9.421
48994SOL    HW248816   4.775   0.471   9.298
48995SOL     OW48817   1.983   1.111   5.677
48995SOL    HW148818   1.993   1.045   5.746
48995SOL    HW248819   2.068   1.155   5.674
48996SOL     OW48820   0.608   9.456   5.725
48996SOL    HW148821   0.645   9.369   5.740
48996SOL    HW248822   0.518   9.440   5.699
48997SOL     OW48823  11.297  13.780   3.944
48997SOL    HW148824  11.352  13.718   3.898
48997SOL    HW248825  11.343  13.797   4.027
48998SOL     OW48826   2.400   4.328   9.543
48998SOL    HW148827   2.449   4.249   9.567
48998SOL    HW248828   2.309   4.300   9.538
48999SOL     OW48829   2.231  11.917   8.850
48999SOL    HW148830   2.271  12.003   8.837
48999SOL    HW248831   2.220  11.909   8.945
49000SOL     OW48832  10.645   6.550  12.673
49000SOL    HW148833  10.652   6.645  12.661
49000SOL    HW248834  10.733   6.523  12.700
49001SOL     OW48835   3.672  12.942  12.355
49001SOL    HW148836   3.685  12.909  12.444
49001SOL    HW248837   3.642  12.866  12.305
49002SOL     OW48838   7.585  13.250   7.624
49002SOL    HW148839   7.677  13.274   7.635
49002SOL    HW248840   7.579  13.214   7.535
49003SOL     OW48841   7.075  12.721   3.084
49003SOL    HW148842   7.013  12.781   3.126
49003SOL    HW248843   7.027  12.685   3.009
49004SOL     OW48844   8.344  13.337  11.458
49004SOL    HW148845   8.404  13.269  11.489
49004SOL    HW248846   8.379  13.362  11.372
49005SOL     OW48847   6.040  14.669   9.375
49005SOL    HW148848   6.046  14.600   9.441
49005SOL    HW248849   6.077  14.746   9.417
49006SOL     OW48850   9.064   2.991   4.121
49006SOL    HW148851   9.042   3.062   4.181
49006SOL    HW248852   9.044   2.911   4.170
49007SOL     OW48853   1.231   7.205   2.835
49007SOL    HW148854   1.294   7.226   2.904
49007SOL    HW248855   1.159   7.266   2.849
49008SOL     OW48856   4.140  14.581  12.788
49008SOL    HW148857   4.209  14.580  12.721
49008SOL    HW248858   4.069  14.529  12.749
49009SOL     OW48859   4.912  11.261   9.415
49009SOL    HW148860   4.863  11.179   9.403
49009SOL    HW248861   4.986  11.237   9.471
49010SOL     OW48862   0.340   0.032  12.075
49010SOL    HW148863   0.278   0.032  12.003
49010SOL    HW248864   0.414  14.860  12.043
49011SOL     OW48865  14.398   1.642   8.703
49011SOL    HW148866  14.460   1.651   8.775
49011SOL    HW248867  14.444   1.679   8.628
49012SOL     OW48868  11.421   0.356   4.466
49012SOL    HW148869  11.464   0.331   4.548
49012SOL    HW248870  11.472   0.431   4.435
49013SOL     OW48871   3.880   5.258  12.053
49013SOL    HW148872   3.876   5.218  12.139
49013SOL    HW248873   3.828   5.338  12.061
49014SOL     OW48874   5.509   4.336   1.912
49014SOL    HW148875   5.443   4.281   1.952
49014SOL    HW248876   5.510   4.416   1.965
49015SOL     OW48877  12.013  13.633   6.342
49015SOL    HW148878  11.964  13.563   6.385
49015SOL    HW248879  11.987  13.627   6.250
49016SOL     OW48880   5.008  13.079   2.974
49016SOL    HW148881   5.041  13.027   2.901
49016SOL    HW248882   4.918  13.049   2.986
49017SOL     OW48883   0.223  10.673   9.072
49017SOL    HW148884   0.220  10.657   9.167
49017SOL    HW248885   0.225  10.586   9.033
49018SOL     OW48886   5.430  11.702   1.643
49018SOL    HW148887   5.500  11.673   1.702
49018SOL    HW248888   5.357  11.643   1.662
49019SOL     OW48889   8.231   0.700   7.144
49019SOL    HW148890   8.245   0.661   7.058
49019SOL    HW248891   8.179   0.635   7.192
49020SOL     OW48892  10.473   2.536  14.035
49020SOL    HW148893  10.536   2.558  14.104
49020SOL    HW248894  10.477   2.611  13.974
49021SOL     OW48895   7.999   3.967   7.098
49021SOL    HW148896   8.069   3.905   7.081
49021SOL    HW248897   7.929   3.942   7.038
49022SOL     OW48898   3.742   8.830  11.395
49022SOL    HW148899   3.765   8.885  11.470
49022SOL    HW248900   3.647   8.841  11.386
49023SOL     OW48901   2.691  10.379  10.903
49023SOL    HW148902   2.691  10.283  10.898
49023SOL    HW248903   2.625  10.399  10.970
49024SOL     OW48904   9.865  13.218   9.411
49024SOL    HW148905   9.878  13.175   9.326
49024SOL    HW248906   9.862  13.311   9.391
49025SOL     OW48907   1.229   2.824   4.912
49025SOL    HW148908   1.280   2.842   4.991
49025SOL    HW248909   1.168   2.755   4.937
49026SOL     OW48910   0.035  12.791   5.679
49026SOL    HW148911  14.854  12.734   5.726
49026SOL    HW248912   0.114  12.794   5.733
49027SOL     OW48913   3.874   8.811  10.443
49027SOL    HW148914   3.906   8.735  10.491
49027SOL    HW248915   3.842   8.871  10.511
49028SOL     OW48916   5.732   3.168   9.352
49028SOL    HW148917   5.735   3.125   9.438
49028SOL    HW248918   5.645   3.205   9.346
49029SOL     OW48919   5.248  13.619   6.438
49029SOL    HW148920   5.271  13.539   6.486
49029SOL    HW248921   5.280  13.604   6.349
49030SOL     OW48922   8.682   0.849   3.024
49030SOL    HW148923   8.659   0.831   2.933
49030SOL    HW248924   8.702   0.764   3.061
49031SOL     OW48925   7.576   7.914   1.827
49031SOL    HW148926   7.634   7.878   1.760
49031SOL    HW248927   7.530   7.986   1.783
49032SOL     OW48928  13.225   8.461  12.858
49032SOL    HW148929  13.229   8.400  12.931
49032SOL    HW248930  13.286   8.531  12.881
49033SOL     OW48931   3.837  11.489   6.966
49033SOL    HW148932   3.915  11.436   6.950
49033SOL    HW248933   3.771  11.426   6.994
49034SOL     OW48934   7.690  11.144   3.547
49034SOL    HW148935   7.629  11.093   3.602
49034SOL    HW248936   7.637  11.217   3.515
49035SOL     OW48937  14.158   6.736   2.627
49035SOL    HW148938  14.227   6.708   2.687
49035SOL    HW248939  14.203   6.786   2.559
49036SOL     OW48940   3.579   6.072   9.146
49036SOL    HW148941   3.487   6.076   9.119
49036SOL    HW248942   3.625   6.037   9.070
49037SOL     OW48943  14.152   4.750  14.787
49037SOL    HW148944  14.142   4.671  14.841
49037SOL    HW248945  14.092   4.813  14.827
49038SOL     OW48946   4.534   8.759  10.228
49038SOL    HW148947   4.503   8.757  10.138
49038SOL    HW248948   4.455   8.770  10.281
49039SOL     OW48949   2.583  10.633   8.053
49039SOL    HW148950   2.493  10.661   8.072
49039SOL    HW248951   2.620  10.608   8.137
49040SOL     OW48952   5.332  11.226   3.008
49040SOL    HW148953   5.316  11.204   2.916
49040SOL    HW248954   5.290  11.156   3.057
49041SOL     OW48955   8.458   7.878   6.603
49041SOL    HW148956   8.413   7.832   6.531
49041SOL    HW248957   8.400   7.866   6.678
49042SOL     OW48958   6.204   1.729  10.524
49042SOL    HW148959   6.157   1.729  10.607
49042SOL    HW248960   6.224   1.821  10.508
49043SOL     OW48961   2.075  12.425   3.310
49043SOL    HW148962   2.132  12.352   3.285
49043SOL    HW248963   2.105  12.499   3.259
49044SOL     OW48964   8.798   0.050  11.853
49044SOL    HW148965   8.712   0.091  11.863
49044SOL    HW248966   8.786  14.840  11.885
49045SOL     OW48967   0.461   5.725   0.201
49045SOL    HW148968   0.416   5.642   0.219
49045SOL    HW248969   0.487   5.756   0.288
49046SOL     OW48970   5.593   8.508   7.733
49046SOL    HW148971   5.562   8.598   7.730
49046SOL    HW248972   5.627   8.497   7.822
49047SOL     OW48973   7.172   0.562   1.729
49047SOL    HW148974   7.090   0.517   1.750
49047SOL    HW248975   7.224   0.496   1.683
49048SOL     OW48976   5.344  14.000  14.180
49048SOL    HW148977   5.361  13.911  14.211
49048SOL    HW248978   5.302  13.988  14.095
49049SOL     OW48979   9.645   0.931   6.500
49049SOL    HW148980   9.580   0.979   6.450
49049SOL    HW248981   9.615   0.937   6.591
49050SOL     OW48982   3.242   3.494  12.819
49050SOL    HW148983   3.263   3.415  12.867
49050SOL    HW248984   3.278   3.565  12.872
49051SOL     OW48985  14.462  13.325  12.734
49051SOL    HW148986  14.409  13.303  12.810
49051SOL    HW248987  14.436  13.415  12.711
49052SOL     OW48988  11.705   5.170   0.508
49052SOL    HW148989  11.616   5.142   0.534
49052SOL    HW248990  11.716   5.255   0.550
49053SOL     OW48991  13.017   7.128  13.929
49053SOL    HW148992  13.025   7.039  13.895
49053SOL    HW248993  12.992   7.181  13.853
49054SOL     OW48994  12.799  12.647   3.103
49054SOL    HW148995  12.886  12.684   3.118
49054SOL    HW248996  12.759  12.706   3.039
49055SOL     OW48997   7.297   4.610  12.310
49055SOL    HW148998   7.271   4.531  12.264
49055SOL    HW248999   7.337   4.665  12.242
49056SOL     OW49000  12.941   9.291   6.343
49056SOL    HW149001  12.925   9.384   6.327
49056SOL    HW249002  12.992   9.262   6.268
49057SOL     OW49003  12.305   4.395  11.736
49057SOL    HW149004  12.269   4.306  11.732
49057SOL    HW249005  12.298   4.428  11.646
49058SOL     OW49006   2.860   0.622   1.957
49058SOL    HW149007   2.771   0.630   1.923
49058SOL    HW249008   2.859   0.541   2.007
49059SOL     OW49009   8.970   1.183   3.954
49059SOL    HW149010   8.996   1.190   4.046
49059SOL    HW249011   9.036   1.126   3.914
49060SOL     OW49012   8.662   8.881   7.377
49060SOL    HW149013   8.715   8.825   7.319
49060SOL    HW249014   8.668   8.839   7.463
49061SOL     OW49015  10.818   4.586   3.181
49061SOL    HW149016  10.864   4.558   3.101
49061SOL    HW249017  10.727   4.562   3.165
49062SOL     OW49018  10.633  10.216   6.467
49062SOL    HW149019  10.564  10.151   6.450
49062SOL    HW249020  10.691  10.173   6.530
49063SOL     OW49021   4.082   3.341   9.132
49063SOL    HW149022   4.145   3.383   9.072
49063SOL    HW249023   4.118   3.357   9.219
49064SOL     OW49024   8.867  13.841   5.617
49064SOL    HW149025   8.793  13.901   5.607
49064SOL    HW249026   8.857  13.806   5.706
49065SOL     OW49027  10.230  14.128   3.306
49065SOL    HW149028  10.174  14.165   3.237
49065SOL    HW249029  10.318  14.128   3.268
49066SOL     OW49030  10.031   5.365  10.208
49066SOL    HW149031  10.004   5.302  10.275
49066SOL    HW249032  10.112   5.404  10.243
49067SOL     OW49033   9.953  11.291   7.758
49067SOL    HW149034   9.980  11.330   7.841
49067SOL    HW249035  10.034  11.286   7.707
49068SOL     OW49036   2.325   2.653  11.847
49068SOL    HW149037   2.408   2.660  11.896
49068SOL    HW249038   2.340   2.580  11.786
49069SOL     OW49039   7.541   4.984   1.602
49069SOL    HW149040   7.565   5.064   1.556
49069SOL    HW249041   7.447   4.993   1.618
49070SOL     OW49042   8.838  13.427  11.753
49070SOL    HW149043   8.749  13.460  11.767
49070SOL    HW249044   8.870  13.476  11.677
49071SOL     OW49045  10.651  13.076   3.501
49071SOL    HW149046  10.653  13.009   3.569
49071SOL    HW249047  10.699  13.150   3.539
49072SOL     OW49048   1.484   7.490   4.278
49072SOL    HW149049   1.554   7.426   4.286
49072SOL    HW249050   1.443   7.492   4.364
49073SOL     OW49051  13.297   0.135  11.052
49073SOL    HW149052  13.260   0.061  11.004
49073SOL    HW249053  13.391   0.117  11.053
49074SOL     OW49054   0.923   4.304   7.919
49074SOL    HW149055   0.843   4.303   7.970
49074SOL    HW249056   0.918   4.226   7.864
49075SOL     OW49057   6.084  10.966  12.646
49075SOL    HW149058   6.011  11.021  12.675
49075SOL    HW249059   6.148  10.973  12.717
49076SOL     OW49060   3.332  13.931   3.459
49076SOL    HW149061   3.388  13.862   3.495
49076SOL    HW249062   3.245  13.890   3.454
49077SOL     OW49063   2.421   8.717   9.388
49077SOL    HW149064   2.463   8.779   9.329
49077SOL    HW249065   2.393   8.645   9.332
49078SOL     OW49066   3.592   2.720   3.956
49078SOL    HW149067   3.503   2.719   3.992
49078SOL    HW249068   3.613   2.813   3.947
49079SOL     OW49069  10.352   4.379   7.886
49079SOL    HW149070  10.364   4.446   7.954
49079SOL    HW249071  10.434   4.330   7.886
49080SOL     OW49072   8.011   0.371   8.694
49080SOL    HW149073   7.989   0.336   8.608
49080SOL    HW249074   8.056   0.454   8.676
49081SOL     OW49075  13.017  11.353  12.863
49081SOL    HW149076  13.062  11.420  12.914
49081SOL    HW249077  13.021  11.274  12.917
49082SOL     OW49078   8.202  11.450  10.813
49082SOL    HW149079   8.123  11.396  10.815
49082SOL    HW249080   8.258  11.408  10.747
49083SOL     OW49081   6.604   7.993  10.844
49083SOL    HW149082   6.528   7.946  10.811
49083SOL    HW249083   6.634   8.045  10.770
49084SOL     OW49084   6.949   8.844   5.201
49084SOL    HW149085   6.863   8.872   5.233
49084SOL    HW249086   6.946   8.861   5.107
49085SOL     OW49087   6.441  12.925  14.264
49085SOL    HW149088   6.404  13.001  14.218
49085SOL    HW249089   6.366  12.868  14.280
49086SOL     OW49090   5.780  12.879   9.687
49086SOL    HW149091   5.718  12.825   9.637
49086SOL    HW249092   5.753  12.969   9.668
49087SOL     OW49093   2.971  13.642  10.833
49087SOL    HW149094   2.925  13.596  10.903
49087SOL    HW249095   2.904  13.694  10.789
49088SOL     OW49096   3.198   7.240   5.863
49088SOL    HW149097   3.184   7.324   5.819
49088SOL    HW249098   3.282   7.251   5.908
49089SOL     OW49099   1.965  12.179   6.854
49089SOL    HW149100   1.953  12.181   6.759
49089SOL    HW249101   2.051  12.139   6.867
49090SOL     OW49102   4.736   5.952   4.381
49090SOL    HW149103   4.657   5.918   4.424
49090SOL    HW249104   4.801   5.955   4.451
49091SOL     OW49105  12.285  13.899   4.460
49091SOL    HW149106  12.327  13.902   4.546
49091SOL    HW249107  12.326  13.970   4.411
49092SOL     OW49108   5.486  10.332   9.242
49092SOL    HW149109   5.507  10.238   9.236
49092SOL    HW249110   5.477  10.348   9.336
49093SOL     OW49111   6.716   0.462   9.760
49093SOL    HW149112   6.687   0.382   9.803
49093SOL    HW249113   6.638   0.516   9.753
49094SOL     OW49114   8.855  13.030  11.508
49094SOL    HW149115   8.893  13.116  11.491
49094SOL    HW249116   8.900  12.998  11.586
49095SOL     OW49117  10.170   3.411   0.906
49095SOL    HW149118  10.134   3.460   0.832
49095SOL    HW249119  10.262   3.439   0.911
49096SOL     OW49120   3.063   8.430   1.022
49096SOL    HW149121   2.990   8.410   1.081
49096SOL    HW249122   3.112   8.349   1.015
49097SOL     OW49123   4.517  10.444   6.303
49097SOL    HW149124   4.514  10.421   6.395
49097SOL    HW249125   4.571  10.524   6.299
49098SOL     OW49126   1.724   3.012   4.079
49098SOL    HW149127   1.638   3.047   4.057
49098SOL    HW249128   1.709   2.919   4.092
49099SOL     OW49129  10.808   0.356  14.879
49099SOL    HW149130  10.718   0.363  14.847
49099SOL    HW249131  10.816   0.265   0.029
49100SOL     OW49132   0.139  12.807   8.868
49100SOL    HW149133   0.098  12.744   8.928
49100SOL    HW249134   0.113  12.777   8.781
49101SOL     OW49135   3.705   4.306   3.519
49101SOL    HW149136   3.782   4.353   3.550
49101SOL    HW249137   3.683   4.247   3.591
49102SOL     OW49138  13.381   4.632   0.282
49102SOL    HW149139  13.357   4.711   0.233
49102SOL    HW249140  13.352   4.649   0.371
49103SOL     OW49141   1.063   2.346  10.382
49103SOL    HW149142   1.137   2.358  10.323
49103SOL    HW249143   1.017   2.269  10.348
49104SOL     OW49144  11.254   4.877   2.621
49104SOL    HW149145  11.241   4.841   2.709
49104SOL    HW249146  11.303   4.810   2.575
49105SOL     OW49147   4.552   9.260   5.311
49105SOL    HW149148   4.641   9.253   5.345
49105SOL    HW249149   4.559   9.319   5.236
49106SOL     OW49150   4.391  10.954  10.583
49106SOL    HW149151   4.368  10.957  10.491
49106SOL    HW249152   4.318  10.908  10.625
49107SOL     OW49153   4.360   3.947   8.996
49107SOL    HW149154   4.274   3.985   8.983
49107SOL    HW249155   4.349   3.886   9.070
49108SOL     OW49156   2.585   8.818  11.819
49108SOL    HW149157   2.589   8.913  11.809
49108SOL    HW249158   2.639   8.800  11.896
49109SOL     OW49159   3.825   6.786  14.090
49109SOL    HW149160   3.890   6.782  14.160
49109SOL    HW249161   3.845   6.711  14.034
49110SOL     OW49162   7.036   4.450  10.237
49110SOL    HW149163   7.097   4.483  10.303
49110SOL    HW249164   7.077   4.472  10.154
49111SOL     OW49165   1.159  11.336   5.446
49111SOL    HW149166   1.219  11.264   5.426
49111SOL    HW249167   1.078  11.313   5.400
49112SOL     OW49168  13.379   6.619   6.535
49112SOL    HW149169  13.306   6.573   6.493
49112SOL    HW249170  13.396   6.693   6.478
49113SOL     OW49171  13.786   9.331   4.294
49113SOL    HW149172  13.789   9.264   4.362
49113SOL    HW249173  13.869   9.322   4.247
49114SOL     OW49174  13.573   9.907  13.976
49114SOL    HW149175  13.521   9.836  14.013
49114SOL    HW249176  13.552   9.907  13.883
49115SOL     OW49177   9.028  14.033   8.562
49115SOL    HW149178   9.105  14.024   8.618
49115SOL    HW249179   8.954  14.026   8.623
49116SOL     OW49180   9.671  14.502  14.545
49116SOL    HW149181   9.767  14.506  14.540
49116SOL    HW249182   9.648  14.565  14.613
49117SOL     OW49183   7.420  10.367  13.473
49117SOL    HW149184   7.505  10.325  13.458
49117SOL    HW249185   7.430  10.454  13.436
49118SOL     OW49186  10.986   0.704  13.311
49118SOL    HW149187  11.026   0.623  13.343
49118SOL    HW249188  11.053   0.771  13.325
49119SOL     OW49189   4.385   5.789   5.338
49119SOL    HW149190   4.349   5.742   5.263
49119SOL    HW249191   4.321   5.777   5.408
49120SOL     OW49192  12.181  10.535   9.144
49120SOL    HW149193  12.242  10.489   9.202
49120SOL    HW249194  12.156  10.469   9.079
49121SOL     OW49195  10.021   8.285  11.516
49121SOL    HW149196   9.962   8.306  11.444
49121SOL    HW249197  10.009   8.357  11.578
49122SOL     OW49198   9.063  12.784   8.293
49122SOL    HW149199   8.997  12.728   8.334
49122SOL    HW249200   9.025  12.806   8.207
49123SOL     OW49201  13.881  14.033  13.057
49123SOL    HW149202  13.822  14.100  13.024
49123SOL    HW249203  13.908  14.064  13.144
49124SOL     OW49204   9.413   9.504   9.450
49124SOL    HW149205   9.507   9.495   9.437
49124SOL    HW249206   9.403   9.534   9.540
49125SOL     OW49207   9.833   5.513   7.351
49125SOL    HW149208   9.824   5.421   7.375
49125SOL    HW249209   9.906   5.515   7.288
49126SOL     OW49210  14.649   6.456  12.591
49126SOL    HW149211  14.616   6.492  12.673
49126SOL    HW249212  14.676   6.367  12.613
49127SOL     OW49213   4.984   3.164   6.667
49127SOL    HW149214   5.020   3.251   6.647
49127SOL    HW249215   4.971   3.165   6.762
49128SOL     OW49216  14.185   3.964  10.155
49128SOL    HW149217  14.201   3.947  10.248
49128SOL    HW249218  14.095   3.936  10.141
49129SOL     OW49219  12.122  13.152   0.164
49129SOL    HW149220  12.182  13.102   0.219
49129SOL    HW249221  12.084  13.218   0.222
49130SOL     OW49222   7.083   9.795  11.912
49130SOL    HW149223   7.104   9.723  11.972
49130SOL    HW249224   7.108   9.762  11.825
49131SOL     OW49225  14.278   1.118  10.418
49131SOL    HW149226  14.211   1.066  10.375
49131SOL    HW249227  14.251   1.209  10.405
49132SOL     OW49228  11.223   7.861  13.864
49132SOL    HW149229  11.307   7.855  13.908
49132SOL    HW249230  11.212   7.776  13.820
49133SOL     OW49231  14.031  13.806   8.666
49133SOL    HW149232  14.111  13.822   8.715
49133SOL    HW249233  14.030  13.712   8.651
49134SOL     OW49234   9.863   1.527   6.993
49134SOL    HW149235   9.902   1.600   7.040
49134SOL    HW249236   9.918   1.516   6.915
49135SOL     OW49237   0.230  13.847  14.759
49135SOL    HW149238   0.247  13.934  14.722
49135SOL    HW249239   0.151  13.860  14.812
49136SOL     OW49240   6.753  10.283  11.251
49136SOL    HW149241   6.730  10.372  11.226
49136SOL    HW249242   6.779  10.290  11.343
49137SOL     OW49243   3.266   7.045  12.401
49137SOL    HW149244   3.274   6.959  12.360
49137SOL    HW249245   3.307   7.035  12.487
49138SOL     OW49246  13.733   6.021   7.130
49138SOL    HW149247  13.814   6.002   7.082
49138SOL    HW249248  13.667   5.967   7.087
49139SOL     OW49249   3.506   5.265   5.510
49139SOL    HW149250   3.527   5.353   5.479
49139SOL    HW249251   3.502   5.212   5.430
49140SOL     OW49252   0.917  12.270   3.885
49140SOL    HW149253   1.000  12.299   3.923
49140SOL    HW249254   0.869  12.351   3.870
49141SOL     OW49255  13.531  10.676  14.847
49141SOL    HW149256  13.508  10.611   0.034
49141SOL    HW249257  13.618  10.707  14.873
49142SOL     OW49258   8.290   4.647  10.992
49142SOL    HW149259   8.284   4.635  10.897
49142SOL    HW249260   8.379   4.618  11.014
49143SOL     OW49261   9.330  10.336  11.144
49143SOL    HW149262   9.243  10.357  11.179
49143SOL    HW249263   9.374  10.421  11.135
49144SOL     OW49264  10.983   8.139   7.169
49144SOL    HW149265  10.923   8.213   7.176
49144SOL    HW249266  11.059   8.174   7.122
49145SOL     OW49267   2.831   9.936  14.747
49145SOL    HW149268   2.890   9.957  14.675
49145SOL    HW249269   2.763   9.881  14.707
49146SOL     OW49270  13.013   4.627  11.957
49146SOL    HW149271  12.950   4.688  11.995
49146SOL    HW249272  13.094   4.643  12.006
49147SOL     OW49273   1.432  11.447   9.988
49147SOL    HW149274   1.516  11.409   9.962
49147SOL    HW249275   1.369  11.376   9.979
49148SOL     OW49276   7.160  11.512   1.630
49148SOL    HW149277   7.207  11.437   1.664
49148SOL    HW249278   7.076  11.511   1.676
49149SOL     OW49279  10.744  12.389  13.979
49149SOL    HW149280  10.698  12.456  13.927
49149SOL    HW249281  10.819  12.365  13.926
49150SOL     OW49282  14.789   1.667   7.760
49150SOL    HW149283   0.001   1.661   7.791
49150SOL    HW249284  14.743   1.600   7.809
49151SOL     OW49285  10.783  13.077   1.408
49151SOL    HW149286  10.799  13.155   1.460
49151SOL    HW249287  10.831  13.093   1.326
49152SOL     OW49288   9.336  13.968   7.923
49152SOL    HW149289   9.319  13.875   7.909
49152SOL    HW249290   9.271  13.995   7.988
49153SOL     OW49291  12.670   8.149   2.977
49153SOL    HW149292  12.578   8.123   2.984
49153SOL    HW249293  12.710   8.078   2.926
49154SOL     OW49294   5.258   3.129  10.825
49154SOL    HW149295   5.205   3.107  10.902
49154SOL    HW249296   5.289   3.044  10.793
49155SOL     OW49297   7.382   4.554   8.556
49155SOL    HW149298   7.315   4.507   8.508
49155SOL    HW249299   7.334   4.611   8.616
49156SOL     OW49300   4.349   0.332  14.752
49156SOL    HW149301   4.263   0.365  14.724
49156SOL    HW249302   4.334   0.240  14.772
49157SOL     OW49303   1.365   7.427   1.431
49157SOL    HW149304   1.451   7.385   1.439
49157SOL    HW249305   1.348   7.428   1.337
49158SOL     OW49306  12.589   7.837   4.180
49158SOL    HW149307  12.590   7.752   4.136
49158SOL    HW249308  12.600   7.816   4.272
49159SOL     OW49309   6.046   3.796   6.636
49159SOL    HW149310   6.125   3.775   6.586
49159SOL    HW249311   6.068   3.774   6.726
49160SOL     OW49312  12.084   0.244   7.851
49160SOL    HW149313  12.150   0.181   7.881
49160SOL    HW249314  12.134   0.323   7.830
49161SOL     OW49315  11.188   5.370   9.896
49161SOL    HW149316  11.237   5.371   9.979
49161SOL    HW249317  11.218   5.291   9.851
49162SOL     OW49318  11.604   3.502  10.022
49162SOL    HW149319  11.548   3.456   9.959
49162SOL    HW249320  11.618   3.439  10.093
49163SOL     OW49321   8.182  10.776   5.047
49163SOL    HW149322   8.224  10.774   4.961
49163SOL    HW249323   8.088  10.778   5.029
49164SOL     OW49324   7.425   2.010  13.043
49164SOL    HW149325   7.361   2.068  13.084
49164SOL    HW249326   7.440   2.047  12.956
49165SOL     OW49327   2.375   3.874  12.147
49165SOL    HW149328   2.307   3.822  12.189
49165SOL    HW249329   2.457   3.835  12.177
49166SOL     OW49330   8.822  11.041   3.083
49166SOL    HW149331   8.769  11.115   3.055
49166SOL    HW249332   8.899  11.080   3.124
49167SOL     OW49333  11.622   3.500  12.359
49167SOL    HW149334  11.671   3.570  12.401
49167SOL    HW249335  11.565   3.465  12.427
49168SOL     OW49336   8.529   3.122   4.073
49168SOL    HW149337   8.568   3.201   4.110
49168SOL    HW249338   8.584   3.102   3.997
49169SOL     OW49339   2.871   2.582   2.830
49169SOL    HW149340   2.830   2.518   2.888
49169SOL    HW249341   2.962   2.587   2.860
49170SOL     OW49342   0.269   7.895  10.610
49170SOL    HW149343   0.223   7.940  10.681
49170SOL    HW249344   0.212   7.905  10.534
49171SOL     OW49345   5.262  10.529   2.746
49171SOL    HW149346   5.229  10.439   2.741
49171SOL    HW249347   5.184  10.581   2.767
49172SOL     OW49348   9.990   4.405  13.625
49172SOL    HW149349   9.943   4.325  13.600
49172SOL    HW249350  10.080   4.391  13.596
49173SOL     OW49351   5.960  12.225   5.199
49173SOL    HW149352   5.979  12.131   5.203
49173SOL    HW249353   6.046  12.266   5.188
49174SOL     OW49354   7.582  13.195  13.586
49174SOL    HW149355   7.538  13.121  13.626
49174SOL    HW249356   7.516  13.264  13.583
49175SOL     OW49357   3.063  13.758   6.184
49175SOL    HW149358   3.140  13.711   6.152
49175SOL    HW249359   3.037  13.815   6.112
49176SOL     OW49360   7.170   8.070  11.351
49176SOL    HW149361   7.189   7.978  11.332
49176SOL    HW249362   7.232   8.119  11.296
49177SOL     OW49363   2.865   9.333   7.532
49177SOL    HW149364   2.924   9.390   7.581
49177SOL    HW249365   2.922   9.286   7.471
49178SOL     OW49366   5.583   7.772   4.499
49178SOL    HW149367   5.677   7.784   4.491
49178SOL    HW249368   5.546   7.855   4.468
49179SOL     OW49369   6.530   6.665   7.483
49179SOL    HW149370   6.579   6.599   7.434
49179SOL    HW249371   6.584   6.681   7.561
49180SOL     OW49372   0.540  10.760   8.665
49180SOL    HW149373   0.467  10.763   8.727
49180SOL    HW249374   0.618  10.763   8.720
49181SOL     OW49375  14.087   2.838  13.850
49181SOL    HW149376  13.996   2.813  13.860
49181SOL    HW249377  14.106   2.824  13.757
49182SOL     OW49378   7.267   9.574   4.667
49182SOL    HW149379   7.321   9.498   4.688
49182SOL    HW249380   7.330   9.645   4.652
49183SOL     OW49381  10.186  14.345   0.924
49183SOL    HW149382  10.192  14.275   0.990
49183SOL    HW249383  10.155  14.421   0.972
49184SOL     OW49384   0.077   5.175   4.444
49184SOL    HW149385   0.110   5.217   4.364
49184SOL    HW249386   0.065   5.083   4.419
49185SOL     OW49387   8.992  13.293  11.176
49185SOL    HW149388   8.966  13.201  11.179
49185SOL    HW249389   9.020  13.313  11.266
49186SOL     OW49390   7.264   1.101   1.367
49186SOL    HW149391   7.305   1.104   1.454
49186SOL    HW249392   7.234   1.010   1.358
49187SOL     OW49393   5.666   2.228  11.535
49187SOL    HW149394   5.603   2.166  11.570
49187SOL    HW249395   5.617   2.310  11.525
49188SOL     OW49396  14.660  13.497  12.563
49188SOL    HW149397  14.630  13.547  12.639
49188SOL    HW249398  14.616  13.538  12.489
49189SOL     OW49399  14.168   0.430   9.428
49189SOL    HW149400  14.248   0.399   9.386
49189SOL    HW249401  14.190   0.518   9.460
49190SOL     OW49402  14.253  11.936   6.034
49190SOL    HW149403  14.310  11.999   6.077
49190SOL    HW249404  14.242  11.971   5.945
49191SOL     OW49405  11.594   0.531   3.387
49191SOL    HW149406  11.616   0.438   3.379
49191SOL    HW249407  11.521   0.533   3.449
49192SOL     OW49408  12.893   7.028  14.542
49192SOL    HW149409  12.806   7.024  14.503
49192SOL    HW249410  12.906   6.941  14.581
49193SOL     OW49411   6.916  14.353   9.926
49193SOL    HW149412   6.981  14.382   9.862
49193SOL    HW249413   6.834  14.392   9.898
49194SOL     OW49414   9.038   8.342   0.089
49194SOL    HW149415   8.956   8.292   0.095
49194SOL    HW249416   9.026   8.414   0.151
49195SOL     OW49417   5.279   1.999   1.092
49195SOL    HW149418   5.199   1.960   1.055
49195SOL    HW249419   5.259   2.010   1.185
49196SOL     OW49420   7.802   5.928   4.499
49196SOL    HW149421   7.808   6.007   4.553
49196SOL    HW249422   7.729   5.879   4.537
49197SOL     OW49423   1.247   3.536  13.863
49197SOL    HW149424   1.216   3.530  13.953
49197SOL    HW249425   1.289   3.451  13.847
49198SOL     OW49426   3.433  10.074   4.007
49198SOL    HW149427   3.513  10.044   4.050
49198SOL    HW249428   3.363  10.053   4.069
49199SOL     OW49429   3.870   3.925   1.839
49199SOL    HW149430   3.905   4.010   1.813
49199SOL    HW249431   3.776   3.941   1.853
49200SOL     OW49432  12.750   2.396   7.415
49200SOL    HW149433  12.754   2.458   7.341
49200SOL    HW249434  12.801   2.321   7.386
49201SOL     OW49435   9.777   2.475   9.966
49201SOL    HW149436   9.786   2.517  10.052
49201SOL    HW249437   9.751   2.546   9.908
49202SOL     OW49438   1.526   2.581   2.690
49202SOL    HW149439   1.498   2.521   2.759
49202SOL    HW249440   1.444   2.610   2.650
49203SOL     OW49441  14.548   2.415  10.752
49203SOL    HW149442  14.494   2.463  10.815
49203SOL    HW249443  14.534   2.323  10.774
49204SOL     OW49444   7.731  13.216   9.748
49204SOL    HW149445   7.781  13.205   9.828
49204SOL    HW249446   7.751  13.137   9.696
49205SOL     OW49447   4.748  10.506   2.194
49205SOL    HW149448   4.707  10.520   2.109
49205SOL    HW249449   4.776  10.415   2.193
49206SOL     OW49450   1.253   5.420   7.306
49206SOL    HW149451   1.245   5.515   7.301
49206SOL    HW249452   1.175   5.392   7.354
49207SOL     OW49453   3.855   9.721   1.117
49207SOL    HW149454   3.947   9.727   1.091
49207SOL    HW249455   3.815   9.801   1.081
49208SOL     OW49456   6.534  11.843   4.092
49208SOL    HW149457   6.451  11.819   4.050
49208SOL    HW249458   6.516  11.928   4.133
49209SOL     OW49459   1.669  10.121   4.066
49209SOL    HW149460   1.604  10.163   4.123
49209SOL    HW249461   1.675  10.031   4.099
49210SOL     OW49462  12.406   0.207   7.259
49210SOL    HW149463  12.454   0.142   7.208
49210SOL    HW249464  12.457   0.217   7.339
49211SOL     OW49465  10.982   2.829   6.450
49211SOL    HW149466  11.008   2.904   6.396
49211SOL    HW249467  11.058   2.770   6.446
49212SOL     OW49468   5.267   0.457   9.904
49212SOL    HW149469   5.210   0.518   9.950
49212SOL    HW249470   5.208   0.403   9.851
49213SOL     OW49471  10.169   9.744   0.039
49213SOL    HW149472  10.129   9.829   0.021
49213SOL    HW249473  10.174   9.740   0.135
49214SOL     OW49474  11.553   6.611   6.977
49214SOL    HW149475  11.462   6.582   6.968
49214SOL    HW249476  11.570   6.660   6.896
49215SOL     OW49477  12.237  14.772   1.881
49215SOL    HW149478  12.312  14.793   1.826
49215SOL    HW249479  12.172  14.736   1.820
49216SOL     OW49480   5.907   0.251   4.691
49216SOL    HW149481   5.870   0.246   4.603
49216SOL    HW249482   5.921   0.160   4.717
49217SOL     OW49483   1.660   2.458  11.110
49217SOL    HW149484   1.624   2.523  11.170
49217SOL    HW249485   1.677   2.381  11.165
49218SOL     OW49486   0.361  14.774   6.903
49218SOL    HW149487   0.274  14.793   6.868
49218SOL    HW249488   0.418  14.837   6.860
49219SOL     OW49489   8.720   4.758  14.615
49219SOL    HW149490   8.715   4.668  14.583
49219SOL    HW249491   8.702   4.812  14.538
49220SOL     OW49492  12.926   4.739   7.804
49220SOL    HW149493  12.957   4.685   7.877
49220SOL    HW249494  12.966   4.825   7.819
49221SOL     OW49495   3.241  10.600  11.334
49221SOL    HW149496   3.159  10.553  11.348
49221SOL    HW249497   3.300  10.567  11.402
49222SOL     OW49498   9.726   8.473   7.878
49222SOL    HW149499   9.816   8.449   7.899
49222SOL    HW249500   9.727   8.491   7.784
49223SOL     OW49501   0.958   8.687  11.507
49223SOL    HW149502   0.892   8.695  11.576
49223SOL    HW249503   0.949   8.766  11.455
49224SOL     OW49504  11.000   4.669   6.616
49224SOL    HW149505  11.004   4.576   6.597
49224SOL    HW249506  11.089   4.692   6.644
49225SOL     OW49507   1.952   9.189   3.268
49225SOL    HW149508   1.918   9.203   3.356
49225SOL    HW249509   2.022   9.253   3.259
49226SOL     OW49510  10.605   7.421  13.637
49226SOL    HW149511  10.681   7.382  13.594
49226SOL    HW249512  10.543   7.349  13.645
49227SOL     OW49513  14.519   1.681   7.228
49227SOL    HW149514  14.592   1.712   7.174
49227SOL    HW249515  14.448   1.666   7.165
49228SOL     OW49516   4.271   4.117  12.936
49228SOL    HW149517   4.361   4.123  12.904
49228SOL    HW249518   4.238   4.034  12.901
49229SOL     OW49519   3.253   6.223   7.649
49229SOL    HW149520   3.165   6.201   7.679
49229SOL    HW249521   3.248   6.215   7.553
49230SOL     OW49522  12.976   6.242  11.578
49230SOL    HW149523  12.992   6.267  11.486
49230SOL    HW249524  13.052   6.188  11.601
49231SOL     OW49525   4.984  11.380   6.196
49231SOL    HW149526   5.009  11.308   6.254
49231SOL    HW249527   4.890  11.391   6.211
49232SOL     OW49528  12.393   7.846   2.625
49232SOL    HW149529  12.306   7.811   2.609
49232SOL    HW249530  12.410   7.828   2.717
49233SOL     OW49531   0.943  13.933   9.315
49233SOL    HW149532   0.960  13.973   9.229
49233SOL    HW249533   0.887  13.997   9.360
49234SOL     OW49534   8.708   8.673   7.143
49234SOL    HW149535   8.678   8.589   7.107
49234SOL    HW249536   8.635   8.733   7.129
49235SOL     OW49537  11.202   7.418   4.114
49235SOL    HW149538  11.192   7.435   4.208
49235SOL    HW249539  11.132   7.469   4.073
49236SOL     OW49540  12.190   3.528   0.437
49236SOL    HW149541  12.166   3.621   0.437
49236SOL    HW249542  12.138   3.490   0.507
49237SOL     OW49543  14.341  11.048   2.662
49237SOL    HW149544  14.255  11.023   2.696
49237SOL    HW249545  14.339  11.019   2.570
49238SOL     OW49546   8.890   0.750   6.813
49238SOL    HW149547   8.852   0.837   6.823
49238SOL    HW249548   8.985   0.766   6.811
49239SOL     OW49549   5.805  10.799  14.126
49239SOL    HW149550   5.797  10.787  14.220
49239SOL    HW249551   5.725  10.847  14.101
49240SOL     OW49552   7.545  10.214  10.265
49240SOL    HW149553   7.577  10.303  10.283
49240SOL    HW249554   7.546  10.171  10.350
49241SOL     OW49555   4.414   6.529   3.997
49241SOL    HW149556   4.333   6.489   3.964
49241SOL    HW249557   4.401   6.623   3.987
49242SOL     OW49558   6.677   0.529  14.441
49242SOL    HW149559   6.657   0.616  14.407
49242SOL    HW249560   6.745   0.543  14.508
49243SOL     OW49561  13.557   6.089   2.580
49243SOL    HW149562  13.523   6.176   2.601
49243SOL    HW249563  13.479   6.039   2.556
49244SOL     OW49564   7.900   0.950   8.289
49244SOL    HW149565   7.847   0.936   8.367
49244SOL    HW249566   7.892   1.044   8.271
49245SOL     OW49567   9.580   8.271   7.460
49245SOL    HW149568   9.661   8.222   7.477
49245SOL    HW249569   9.528   8.259   7.539
49246SOL     OW49570   7.597  14.363   3.842
49246SOL    HW149571   7.646  14.343   3.922
49246SOL    HW249572   7.506  14.364   3.869
49247SOL     OW49573   1.312   7.004   9.658
49247SOL    HW149574   1.357   6.920   9.649
49247SOL    HW249575   1.277   7.021   9.571
49248SOL     OW49576   2.394  12.747   9.062
49248SOL    HW149577   2.374  12.669   9.010
49248SOL    HW249578   2.340  12.739   9.140
49249SOL     OW49579   2.366  12.790  10.078
49249SOL    HW149580   2.291  12.809  10.134
49249SOL    HW249581   2.333  12.804   9.989
49250SOL     OW49582   1.220   0.911   6.239
49250SOL    HW149583   1.251   0.967   6.310
49250SOL    HW249584   1.289   0.846   6.228
49251SOL     OW49585   7.282   5.380   8.609
49251SOL    HW149586   7.304   5.429   8.530
49251SOL    HW249587   7.326   5.427   8.679
49252SOL     OW49588   5.547   1.134   7.186
49252SOL    HW149589   5.565   1.215   7.138
49252SOL    HW249590   5.631   1.087   7.185
49253SOL     OW49591  11.190   2.272   2.157
49253SOL    HW149592  11.160   2.358   2.186
49253SOL    HW249593  11.282   2.285   2.133
49254SOL     OW49594  11.658  10.394   1.796
49254SOL    HW149595  11.663  10.448   1.875
49254SOL    HW249596  11.710  10.442   1.732
49255SOL     OW49597   4.607   7.008   2.676
49255SOL    HW149598   4.583   6.929   2.726
49255SOL    HW249599   4.604   6.980   2.584
49256SOL     OW49600  14.754   1.188   9.952
49256SOL    HW149601  14.846   1.173   9.975
49256SOL    HW249602  14.705   1.127  10.008
49257SOL     OW49603   5.047   5.758  10.638
49257SOL    HW149604   4.994   5.801  10.705
49257SOL    HW249605   5.010   5.670  10.631
49258SOL     OW49606   3.576   8.660   6.197
49258SOL    HW149607   3.559   8.744   6.154
49258SOL    HW249608   3.668   8.664   6.223
49259SOL     OW49609   9.960  13.010   5.711
49259SOL    HW149610   9.865  13.007   5.711
49259SOL    HW249611   9.984  13.024   5.620
49260SOL     OW49612   9.422  13.884  13.211
49260SOL    HW149613   9.456  13.802  13.247
49260SOL    HW249614   9.369  13.921  13.281
49261SOL     OW49615   4.850   1.188   0.453
49261SOL    HW149616   4.828   1.139   0.374
49261SOL    HW249617   4.799   1.146   0.522
49262SOL     OW49618   0.511   1.057   0.427
49262SOL    HW149619   0.425   1.017   0.442
49262SOL    HW249620   0.569   1.013   0.489
49263SOL     OW49621   2.208   5.611  11.747
49263SOL    HW149622   2.281   5.552  11.728
49263SOL    HW249623   2.185   5.649  11.662
49264SOL     OW49624   6.311   7.328   4.013
49264SOL    HW149625   6.349   7.266   4.075
49264SOL    HW249626   6.320   7.285   3.928
49265SOL     OW49627  11.901  10.016   5.086
49265SOL    HW149628  11.819  10.001   5.132
49265SOL    HW249629  11.959  10.055   5.151
49266SOL     OW49630   6.931  13.705   1.604
49266SOL    HW149631   6.967  13.788   1.634
49266SOL    HW249632   6.918  13.717   1.510
49267SOL     OW49633   3.305   6.680   3.919
49267SOL    HW149634   3.262   6.596   3.902
49267SOL    HW249635   3.349   6.702   3.837
49268SOL     OW49636   7.652   7.580   9.989
49268SOL    HW149637   7.721   7.545   9.933
49268SOL    HW249638   7.588   7.618   9.929
49269SOL     OW49639   2.966  14.845   4.708
49269SOL    HW149640   3.047  14.849   4.657
49269SOL    HW249641   2.931   0.055   4.706
49270SOL     OW49642   6.987   5.993   6.030
49270SOL    HW149643   6.943   5.949   5.957
49270SOL    HW249644   6.986   6.086   6.007
49271SOL     OW49645   0.727   4.791   4.569
49271SOL    HW149646   0.699   4.795   4.660
49271SOL    HW249647   0.822   4.781   4.573
49272SOL     OW49648  11.319  11.932   4.272
49272SOL    HW149649  11.280  11.936   4.185
49272SOL    HW249650  11.321  11.838   4.293
49273SOL     OW49651   0.277   2.029  14.259
49273SOL    HW149652   0.337   2.006  14.189
49273SOL    HW249653   0.199   2.062  14.215
49274SOL     OW49654  14.102  13.892   7.798
49274SOL    HW149655  14.144  13.933   7.722
49274SOL    HW249656  14.165  13.825   7.826
49275SOL     OW49657   5.970   7.180  14.316
49275SOL    HW149658   6.008   7.150  14.233
49275SOL    HW249659   6.045   7.198  14.372
49276SOL     OW49660   1.654   5.410   6.319
49276SOL    HW149661   1.560   5.422   6.312
49276SOL    HW249662   1.689   5.442   6.236
49277SOL     OW49663   7.327   4.653   2.339
49277SOL    HW149664   7.375   4.633   2.258
49277SOL    HW249665   7.307   4.747   2.333
49278SOL     OW49666   9.153  11.082   8.000
49278SOL    HW149667   9.177  11.164   7.958
49278SOL    HW249668   9.221  11.020   7.973
49279SOL     OW49669  11.754   0.102   8.693
49279SOL    HW149670  11.821   0.033   8.693
49279SOL    HW249671  11.733   0.116   8.785
49280SOL     OW49672   8.001  12.939   6.562
49280SOL    HW149673   7.981  13.027   6.592
49280SOL    HW249674   8.055  12.952   6.484
49281SOL     OW49675  10.525   6.176  14.759
49281SOL    HW149676  10.611   6.206  14.791
49281SOL    HW249677  10.517   6.087  14.792
49282SOL     OW49678   9.355  10.488   0.599
49282SOL    HW149679   9.428  10.541   0.630
49282SOL    HW249680   9.389  10.445   0.520
49283SOL     OW49681   7.571   1.289   9.945
49283SOL    HW149682   7.556   1.281   9.851
49283SOL    HW249683   7.488   1.322   9.980
49284SOL     OW49684  14.217   0.268   5.109
49284SOL    HW149685  14.289   0.312   5.064
49284SOL    HW249686  14.255   0.187   5.142
49285SOL     OW49687   1.371   5.106   8.583
49285SOL    HW149688   1.311   5.181   8.579
49285SOL    HW249689   1.399   5.102   8.674
49286SOL     OW49690  14.479   2.399   1.521
49286SOL    HW149691  14.384   2.407   1.515
49286SOL    HW249692  14.504   2.452   1.596
49287SOL     OW49693   5.709   7.650   2.739
49287SOL    HW149694   5.743   7.740   2.738
49287SOL    HW249695   5.786   7.595   2.723
49288SOL     OW49696  13.751  14.187   6.782
49288SOL    HW149697  13.842  14.204   6.756
49288SOL    HW249698  13.699  14.246   6.728
49289SOL     OW49699  11.031  14.144  14.806
49289SOL    HW149700  11.065  14.173   0.012
49289SOL    HW249701  10.937  14.136  14.819
49290SOL     OW49702   1.329   7.293  10.022
49290SOL    HW149703   1.251   7.326  10.068
49290SOL    HW249704   1.392   7.276  10.091
49291SOL     OW49705   8.456   8.280  13.054
49291SOL    HW149706   8.441   8.236  12.970
49291SOL    HW249707   8.549   8.268  13.071
49292SOL     OW49708   0.343   3.567   5.245
49292SOL    HW149709   0.342   3.498   5.179
49292SOL    HW249710   0.280   3.632   5.214
49293SOL     OW49711  13.526   8.617   1.202
49293SOL    HW149712  13.485   8.537   1.236
49293SOL    HW249713  13.519   8.609   1.107
49294SOL     OW49714   4.228   7.372   4.252
49294SOL    HW149715   4.282   7.391   4.328
49294SOL    HW249716   4.152   7.325   4.287
49295SOL     OW49717   6.443   0.163   5.938
49295SOL    HW149718   6.532   0.129   5.936
49295SOL    HW249719   6.452   0.255   5.912
49296SOL     OW49720  10.162   7.822   6.588
49296SOL    HW149721  10.091   7.782   6.638
49296SOL    HW249722  10.118   7.874   6.520
49297SOL     OW49723   4.793   9.355  10.275
49297SOL    HW149724   4.830   9.420  10.215
49297SOL    HW249725   4.869   9.314  10.316
49298SOL     OW49726  10.380   6.736   3.947
49298SOL    HW149727  10.386   6.740   4.042
49298SOL    HW249728  10.470   6.718   3.918
49299SOL     OW49729   4.950   3.133   0.695
49299SOL    HW149730   4.967   3.070   0.765
49299SOL    HW249731   4.909   3.082   0.625
49300SOL     OW49732  11.448  11.730   4.620
49300SOL    HW149733  11.373  11.753   4.675
49300SOL    HW249734  11.511  11.801   4.636
49301SOL     OW49735  12.015  14.259  11.906
49301SOL    HW149736  11.926  14.288  11.889
49301SOL    HW249737  12.010  14.209  11.987
49302SOL     OW49738  13.960   1.641   3.439
49302SOL    HW149739  14.012   1.569   3.404
49302SOL    HW249740  14.024   1.704   3.471
49303SOL     OW49741   2.353  12.486   7.756
49303SOL    HW149742   2.377  12.578   7.763
49303SOL    HW249743   2.436  12.440   7.746
49304SOL     OW49744   4.080   5.643  13.559
49304SOL    HW149745   4.015   5.629  13.490
49304SOL    HW249746   4.066   5.570  13.620
49305SOL     OW49747  10.415  12.211  12.592
49305SOL    HW149748  10.386  12.299  12.570
49305SOL    HW249749  10.478  12.224  12.663
49306SOL     OW49750   5.101   3.474   8.318
49306SOL    HW149751   5.031   3.539   8.323
49306SOL    HW249752   5.164   3.501   8.385
49307SOL     OW49753   1.360  13.628  10.244
49307SOL    HW149754   1.323  13.630  10.155
49307SOL    HW249755   1.287  13.655  10.300
49308SOL     OW49756   5.090   0.538   0.296
49308SOL    HW149757   5.139   0.468   0.339
49308SOL    HW249758   5.018   0.493   0.252
49309SOL     OW49759   2.338   5.566   3.184
49309SOL    HW149760   2.388   5.517   3.118
49309SOL    HW249761   2.400   5.630   3.219
49310SOL     OW49762   9.707   8.463   3.299
49310SOL    HW149763   9.713   8.551   3.337
49310SOL    HW249764   9.639   8.420   3.351
49311SOL     OW49765   9.842   9.372   1.759
49311SOL    HW149766   9.926   9.327   1.771
49311SOL    HW249767   9.782   9.303   1.729
49312SOL     OW49768   8.966   8.948   4.781
49312SOL    HW149769   8.928   9.016   4.837
49312SOL    HW249770   9.060   8.953   4.798
49313SOL     OW49771   3.965  13.971   1.228
49313SOL    HW149772   3.930  14.019   1.304
49313SOL    HW249773   4.034  14.028   1.194
49314SOL     OW49774   9.617   5.009  13.806
49314SOL    HW149775   9.678   4.937  13.823
49314SOL    HW249776   9.563   5.013  13.885
49315SOL     OW49777  11.794   4.725   7.843
49315SOL    HW149778  11.770   4.640   7.878
49315SOL    HW249779  11.881   4.713   7.805
49316SOL     OW49780   1.405   7.423   0.982
49316SOL    HW149781   1.491   7.394   1.012
49316SOL    HW249782   1.357   7.342   0.966
49317SOL     OW49783   8.814  12.800   5.378
49317SOL    HW149784   8.775  12.713   5.364
49317SOL    HW249785   8.758  12.841   5.443
49318SOL     OW49786  13.860   1.486   7.104
49318SOL    HW149787  13.836   1.485   7.196
49318SOL    HW249788  13.780   1.511   7.058
49319SOL     OW49789   3.011   9.444   7.963
49319SOL    HW149790   3.089   9.464   7.911
49319SOL    HW249791   3.045   9.417   8.048
49320SOL     OW49792   8.710  14.693  13.930
49320SOL    HW149793   8.668  14.756  13.989
49320SOL    HW249794   8.743  14.746  13.858
49321SOL     OW49795   3.222   8.886   6.831
49321SOL    HW149796   3.258   8.963   6.787
49321SOL    HW249797   3.164   8.846   6.766
49322SOL     OW49798   1.802   1.023   7.288
49322SOL    HW149799   1.747   1.006   7.211
49322SOL    HW249800   1.821   0.935   7.322
49323SOL     OW49801   5.062  10.277  12.649
49323SOL    HW149802   5.004  10.200  12.653
49323SOL    HW249803   5.103  10.280  12.736
49324SOL     OW49804   5.560   9.300   1.199
49324SOL    HW149805   5.517   9.350   1.268
49324SOL    HW249806   5.524   9.211   1.209
49325SOL     OW49807  12.657   5.081   5.399
49325SOL    HW149808  12.609   5.009   5.357
49325SOL    HW249809  12.730   5.038   5.443
49326SOL     OW49810   2.479  10.173   1.019
49326SOL    HW149811   2.524  10.234   0.961
49326SOL    HW249812   2.549  10.123   1.061
49327SOL     OW49813  11.328   4.999  12.081
49327SOL    HW149814  11.420   4.990  12.107
49327SOL    HW249815  11.323   5.087  12.044
49328SOL     OW49816   7.286  11.821   8.969
49328SOL    HW149817   7.307  11.899   9.021
49328SOL    HW249818   7.363  11.807   8.914
49329SOL     OW49819  13.633   8.110   3.039
49329SOL    HW149820  13.595   8.079   3.121
49329SOL    HW249821  13.610   8.203   3.035
49330SOL     OW49822   1.301   3.470   8.461
49330SOL    HW149823   1.228   3.414   8.487
49330SOL    HW249824   1.361   3.412   8.414
49331SOL     OW49825   3.049  10.016  14.577
49331SOL    HW149826   3.063  10.106  14.605
49331SOL    HW249827   3.135   9.974  14.584
49332SOL     OW49828   5.242   1.058   1.850
49332SOL    HW149829   5.291   1.034   1.772
49332SOL    HW249830   5.308   1.089   1.912
49333SOL     OW49831   8.293   3.062   5.060
49333SOL    HW149832   8.227   3.061   4.990
49333SOL    HW249833   8.242   3.065   5.141
49334SOL     OW49834  14.275   1.209   1.238
49334SOL    HW149835  14.313   1.158   1.310
49334SOL    HW249836  14.208   1.152   1.202
49335SOL     OW49837   1.130  12.814  11.951
49335SOL    HW149838   1.167  12.887  12.000
49335SOL    HW249839   1.038  12.811  11.978
49336SOL     OW49840   5.603   6.705  14.527
49336SOL    HW149841   5.614   6.780  14.585
49336SOL    HW249842   5.532   6.654  14.567
49337SOL     OW49843  10.376  11.806  11.567
49337SOL    HW149844  10.456  11.785  11.614
49337SOL    HW249845  10.393  11.891  11.527
49338SOL     OW49846   9.798   4.397   9.213
49338SOL    HW149847   9.870   4.456   9.189
49338SOL    HW249848   9.734   4.408   9.143
49339SOL     OW49849   1.735   6.754  12.470
49339SOL    HW149850   1.830   6.748  12.479
49339SOL    HW249851   1.717   6.720  12.383
49340SOL     OW49852  10.585   5.995   7.522
49340SOL    HW149853  10.635   5.962   7.447
49340SOL    HW249854  10.499   5.954   7.515
49341SOL     OW49855   0.757   1.006   9.606
49341SOL    HW149856   0.749   1.004   9.510
49341SOL    HW249857   0.839   0.959   9.624
49342SOL     OW49858  13.544   8.495   2.362
49342SOL    HW149859  13.614   8.532   2.308
49342SOL    HW249860  13.535   8.404   2.332
49343SOL     OW49861  10.868  10.601  14.329
49343SOL    HW149862  10.842  10.580  14.419
49343SOL    HW249863  10.794  10.650  14.294
49344SOL     OW49864  13.251   8.728   7.498
49344SOL    HW149865  13.303   8.719   7.579
49344SOL    HW249866  13.248   8.640   7.461
49345SOL     OW49867  14.170   7.755  10.235
49345SOL    HW149868  14.165   7.660  10.245
49345SOL    HW249869  14.128   7.789  10.313
49346SOL     OW49870   6.736   0.343   8.393
49346SOL    HW149871   6.811   0.401   8.409
49346SOL    HW249872   6.757   0.264   8.442
49347SOL     OW49873  12.316   3.595  12.538
49347SOL    HW149874  12.411   3.598  12.533
49347SOL    HW249875  12.295   3.631  12.625
49348SOL     OW49876   3.403  10.603  10.086
49348SOL    HW149877   3.492  10.606  10.054
49348SOL    HW249878   3.406  10.649  10.171
49349SOL     OW49879  13.819  11.951   1.767
49349SOL    HW149880  13.771  12.030   1.741
49349SOL    HW249881  13.752  11.892   1.800
49350SOL     OW49882  13.286   6.514   7.183
49350SOL    HW149883  13.278   6.473   7.097
49350SOL    HW249884  13.349   6.459   7.230
49351SOL     OW49885  14.079   5.597  13.709
49351SOL    HW149886  14.158   5.555  13.743
49351SOL    HW249887  14.019   5.524  13.692
49352SOL     OW49888   3.549  14.092   1.169
49352SOL    HW149889   3.592  14.178   1.168
49352SOL    HW249890   3.605  14.037   1.114
49353SOL     OW49891   3.281   3.564   7.640
49353SOL    HW149892   3.198   3.533   7.605
49353SOL    HW249893   3.257   3.621   7.713
49354SOL     OW49894   1.064   8.648  12.314
49354SOL    HW149895   1.001   8.589  12.271
49354SOL    HW249896   1.112   8.688  12.242
49355SOL     OW49897   4.668   1.686  14.355
49355SOL    HW149898   4.665   1.612  14.295
49355SOL    HW249899   4.583   1.684  14.399
49356SOL     OW49900   3.907  10.072   3.877
49356SOL    HW149901   3.916  10.069   3.972
49356SOL    HW249902   3.906  10.166   3.857
49357SOL     OW49903   1.980  14.299   3.130
49357SOL    HW149904   1.944  14.341   3.209
49357SOL    HW249905   1.972  14.366   3.062
49358SOL     OW49906   8.494   3.192  10.247
49358SOL    HW149907   8.576   3.236  10.266
49358SOL    HW249908   8.442   3.257  10.199
49359SOL     OW49909   4.277  14.558   1.754
49359SOL    HW149910   4.362  14.586   1.790
49359SOL    HW249911   4.291  14.467   1.727
49360SOL     OW49912   8.941   1.419  13.505
49360SOL    HW149913   8.867   1.377  13.550
49360SOL    HW249914   8.997   1.346  13.478
49361SOL     OW49915   7.300   6.340  13.835
49361SOL    HW149916   7.302   6.317  13.928
49361SOL    HW249917   7.210   6.368  13.819
49362SOL     OW49918   5.025   9.507   0.596
49362SOL    HW149919   4.946   9.552   0.626
49362SOL    HW249920   5.040   9.540   0.508
49363SOL     OW49921   2.337   4.024  11.833
49363SOL    HW149922   2.253   4.054  11.801
49363SOL    HW249923   2.398   4.042  11.761
49364SOL     OW49924   7.392   6.358   3.070
49364SOL    HW149925   7.433   6.272   3.085
49364SOL    HW249926   7.366   6.387   3.158
49365SOL     OW49927   9.222   0.483   2.498
49365SOL    HW149928   9.232   0.563   2.551
49365SOL    HW249929   9.301   0.432   2.518
49366SOL     OW49930   8.312   0.030   4.343
49366SOL    HW149931   8.401   0.062   4.358
49366SOL    HW249932   8.312  14.821   4.379
49367SOL     OW49933   4.968   5.565  11.833
49367SOL    HW149934   4.884   5.602  11.805
49367SOL    HW249935   4.972   5.480  11.789
49368SOL     OW49936   5.649   6.907  14.677
49368SOL    HW149937   5.597   6.933  14.753
49368SOL    HW249938   5.724   6.860  14.714
49369SOL     OW49939   4.243  12.611  14.170
49369SOL    HW149940   4.265  12.543  14.106
49369SOL    HW249941   4.189  12.674  14.121
49370SOL     OW49942   3.844   2.489   6.261
49370SOL    HW149943   3.796   2.431   6.320
49370SOL    HW249944   3.863   2.567   6.313
49371SOL     OW49945  13.129  12.563   6.578
49371SOL    HW149946  13.189  12.596   6.511
49371SOL    HW249947  13.128  12.632   6.645
49372SOL     OW49948   2.600   9.256   9.326
49372SOL    HW149949   2.639   9.205   9.396
49372SOL    HW249950   2.635   9.217   9.246
49373SOL     OW49951   8.732   2.738   3.923
49373SOL    HW149952   8.799   2.763   3.859
49373SOL    HW249953   8.655   2.788   3.898
49374SOL     OW49954   3.351   4.702  11.028
49374SOL    HW149955   3.387   4.618  11.000
49374SOL    HW249956   3.427   4.755  11.050
49375SOL     OW49957  13.231   0.714   3.859
49375SOL    HW149958  13.142   0.681   3.844
49375SOL    HW249959  13.282   0.678   3.786
49376SOL     OW49960   6.973   5.123  10.085
49376SOL    HW149961   6.942   5.131  10.175
49376SOL    HW249962   6.974   5.029  10.067
49377SOL     OW49963  10.032   2.519  10.496
49377SOL    HW149964  10.014   2.588  10.560
49377SOL    HW249965  10.083   2.454  10.544
49378SOL     OW49966   7.968  13.216  11.425
49378SOL    HW149967   7.980  13.232  11.332
49378SOL    HW249968   8.011  13.133  11.442
49379SOL     OW49969   7.202  14.322   7.215
49379SOL    HW149970   7.193  14.372   7.296
49379SOL    HW249971   7.243  14.383   7.154
49380SOL     OW49972  10.516   4.885  11.931
49380SOL    HW149973  10.537   4.794  11.911
49380SOL    HW249974  10.436   4.881  11.984
49381SOL     OW49975  12.977   3.187   2.584
49381SOL    HW149976  13.042   3.117   2.584
49381SOL    HW249977  12.892   3.142   2.587
49382SOL     OW49978  12.387  10.731   9.202
49382SOL    HW149979  12.301  10.700   9.171
49382SOL    HW249980  12.449  10.697   9.137
49383SOL     OW49981   3.523   5.219   8.513
49383SOL    HW149982   3.563   5.134   8.532
49383SOL    HW249983   3.467   5.202   8.438
49384SOL     OW49984  11.918   2.535  10.328
49384SOL    HW149985  11.996   2.522  10.275
49384SOL    HW249986  11.941   2.498  10.414
49385SOL     OW49987   1.560   1.925   4.369
49385SOL    HW149988   1.577   1.968   4.285
49385SOL    HW249989   1.499   1.982   4.414
49386SOL     OW49990   3.533   2.657   6.783
49386SOL    HW149991   3.536   2.693   6.872
49386SOL    HW249992   3.528   2.734   6.726
49387SOL     OW49993  14.376   2.782   6.614
49387SOL    HW149994  14.457   2.759   6.569
49387SOL    HW249995  14.388   2.750   6.704
49388SOL     OW49996   1.884   5.975   1.381
49388SOL    HW149997   1.902   6.068   1.390
49388SOL    HW249998   1.890   5.941   1.470
49389SOL     OW49999   2.401   9.912  14.577
49389SOL    HW150000   2.320   9.861  14.583
49389SOL    HW250001   2.373  10.003  14.586
49390SOL     OW50002   9.598  12.706   7.640
49390SOL    HW150003   9.605  12.763   7.564
49390SOL    HW250004   9.504  12.690   7.650
49391SOL     OW50005   8.838   1.925   7.601
49391SOL    HW150006   8.895   1.915   7.677
49391SOL    HW250007   8.808   2.016   7.605
49392SOL     OW50008   0.499  13.520  13.977
49392SOL    HW150009   0.526  13.515  13.886
49392SOL    HW250010   0.403  13.519  13.974
49393SOL     OW50011   0.261  12.640   1.710
49393SOL    HW150012   0.235  12.732   1.710
49393SOL    HW250013   0.179  12.592   1.697
49394SOL     OW50014   6.153  13.359   2.164
49394SOL    HW150015   6.231  13.405   2.132
49394SOL    HW250016   6.187  13.282   2.209
49395SOL     OW50017   5.888   7.587  11.263
49395SOL    HW150018   5.857   7.622  11.347
49395SOL    HW250019   5.955   7.649  11.235
49396SOL     OW50020   0.578   7.992  13.507
49396SOL    HW150021   0.591   7.934  13.432
49396SOL    HW250022   0.486   7.979  13.532
49397SOL     OW50023   9.869   4.387   0.751
49397SOL    HW150024   9.951   4.343   0.776
49397SOL    HW250025   9.892   4.437   0.673
49398SOL     OW50026  14.466   8.003   8.930
49398SOL    HW150027  14.434   8.063   8.863
49398SOL    HW250028  14.477   7.919   8.885
49399SOL     OW50029   5.927   5.224  12.316
49399SOL    HW150030   5.891   5.259  12.235
49399SOL    HW250031   5.872   5.148  12.336
49400SOL     OW50032  13.013  13.320   3.493
49400SOL    HW150033  12.962  13.260   3.548
49400SOL    HW250034  13.042  13.388   3.553
49401SOL     OW50035  11.017   2.061   4.005
49401SOL    HW150036  11.055   1.973   4.005
49401SOL    HW250037  10.950   2.058   4.073
49402SOL     OW50038   7.139   7.074   4.641
49402SOL    HW150039   7.095   7.157   4.624
49402SOL    HW250040   7.209   7.096   4.703
49403SOL     OW50041   3.888   7.708   2.038
49403SOL    HW150042   3.873   7.751   2.123
49403SOL    HW250043   3.884   7.780   1.975
49404SOL     OW50044  12.438  10.553   5.669
49404SOL    HW150045  12.395  10.494   5.607
49404SOL    HW250046  12.446  10.636   5.621
49405SOL     OW50047   5.636   2.656   0.367
49405SOL    HW150048   5.571   2.682   0.432
49405SOL    HW250049   5.718   2.649   0.415
49406SOL     OW50050  10.769   2.364  14.347
49406SOL    HW150051  10.673   2.367  14.352
49406SOL    HW250052  10.799   2.412  14.424
49407SOL     OW50053   0.250  11.492  14.352
49407SOL    HW150054   0.199  11.499  14.271
49407SOL    HW250055   0.250  11.580  14.388
49408SOL     OW50056   5.991   0.317   1.441
49408SOL    HW150057   5.996   0.389   1.503
49408SOL    HW250058   5.967   0.241   1.494
49409SOL     OW50059   4.381   9.593   8.493
49409SOL    HW150060   4.297   9.559   8.523
49409SOL    HW250061   4.368   9.610   8.400
49410SOL     OW50062   8.165   2.895   2.649
49410SOL    HW150063   8.220   2.856   2.717
49410SOL    HW250064   8.198   2.858   2.567
49411SOL     OW50065   3.559   6.828   1.283
49411SOL    HW150066   3.531   6.751   1.333
49411SOL    HW250067   3.610   6.793   1.211
49412SOL     OW50068   1.091   5.105  13.045
49412SOL    HW150069   1.095   5.038  13.113
49412SOL    HW250070   1.170   5.090  12.992
49413SOL     OW50071  10.072   0.103  14.277
49413SOL    HW150072  10.148   0.150  14.310
49413SOL    HW250073  10.000   0.166  14.284
49414SOL     OW50074   6.868  12.698  12.048
49414SOL    HW150075   6.889  12.792  12.048
49414SOL    HW250076   6.915  12.663  12.124
49415SOL     OW50077   4.366   6.524   0.773
49415SOL    HW150078   4.441   6.486   0.820
49415SOL    HW250079   4.290   6.502   0.826
49416SOL     OW50080   9.233   5.983   8.966
49416SOL    HW150081   9.264   5.962   8.877
49416SOL    HW250082   9.298   6.044   9.000
49417SOL     OW50083   2.301   0.983  11.812
49417SOL    HW150084   2.256   1.008  11.892
49417SOL    HW250085   2.289   0.888  11.806
49418SOL     OW50086  10.883   6.465  13.229
49418SOL    HW150087  10.801   6.449  13.183
49418SOL    HW250088  10.863   6.535  13.292
49419SOL     OW50089  12.909   5.860   5.652
49419SOL    HW150090  12.997   5.858   5.613
49419SOL    HW250091  12.904   5.945   5.696
49420SOL     OW50092   0.717   5.072  12.065
49420SOL    HW150093   0.693   5.112  12.148
49420SOL    HW250094   0.709   4.978  12.080
49421SOL     OW50095  10.426   5.908   0.282
49421SOL    HW150096  10.376   5.944   0.355
49421SOL    HW250097  10.513   5.949   0.289
49422SOL     OW50098   3.087  10.271   3.942
49422SOL    HW150099   3.119  10.288   4.031
49422SOL    HW250100   3.163  10.286   3.886
49423SOL     OW50101   1.941   4.776   3.364
49423SOL    HW150102   1.865   4.778   3.422
49423SOL    HW250103   1.986   4.860   3.379
49424SOL     OW50104   3.007   5.902  10.273
49424SOL    HW150105   2.913   5.899  10.253
49424SOL    HW250106   3.010   5.906  10.369
49425SOL     OW50107   7.346   6.260   6.712
49425SOL    HW150108   7.377   6.198   6.778
49425SOL    HW250109   7.422   6.276   6.657
49426SOL     OW50110  10.069   3.606   0.341
49426SOL    HW150111  10.128   3.664   0.390
49426SOL    HW250112  10.121   3.578   0.265
49427SOL     OW50113   3.412   1.306   6.571
49427SOL    HW150114   3.409   1.253   6.651
49427SOL    HW250115   3.475   1.260   6.515
49428SOL     OW50116  14.285   3.394   0.356
49428SOL    HW150117  14.372   3.354   0.344
49428SOL    HW250118  14.224   3.328   0.322
49429SOL     OW50119   1.088   5.794   0.037
49429SOL    HW150120   1.009   5.743   0.049
49429SOL    HW250121   1.157   5.729   0.020
49430SOL     OW50122   7.250   1.665   8.665
49430SOL    HW150123   7.290   1.673   8.578
49430SOL    HW250124   7.303   1.599   8.709
49431SOL     OW50125   4.348  12.505   7.906
49431SOL    HW150126   4.374  12.577   7.848
49431SOL    HW250127   4.256  12.522   7.925
49432SOL     OW50128   0.069   1.093   2.206
49432SOL    HW150129   0.134   1.133   2.147
49432SOL    HW250130   0.111   1.095   2.292
49433SOL     OW50131   9.318   3.675  11.823
49433SOL    HW150132   9.337   3.756  11.776
49433SOL    HW250133   9.363   3.685  11.907
49434SOL     OW50134   5.830  13.507   4.514
49434SOL    HW150135   5.905  13.512   4.572
49434SOL    HW250136   5.829  13.590   4.468
49435SOL     OW50137   8.885   0.476  12.055
49435SOL    HW150138   8.911   0.431  11.974
49435SOL    HW250139   8.817   0.420  12.091
49436SOL     OW50140  13.766   2.599   2.783
49436SOL    HW150141  13.782   2.615   2.690
49436SOL    HW250142  13.851   2.612   2.825
49437SOL     OW50143   2.476   9.207   8.863
49437SOL    HW150144   2.541   9.277   8.859
49437SOL    HW250145   2.398   9.247   8.902
49438SOL     OW50146   5.843   7.697   4.573
49438SOL    HW150147   5.853   7.615   4.621
49438SOL    HW250148   5.870   7.676   4.484
49439SOL     OW50149   3.264  13.771   1.351
49439SOL    HW150150   3.329  13.818   1.403
49439SOL    HW250151   3.200  13.838   1.326
49440SOL     OW50152   6.394   8.946  11.135
49440SOL    HW150153   6.489   8.957  11.142
49440SOL    HW250154   6.358   9.022  11.180
49441SOL     OW50155   7.398  12.053   6.749
49441SOL    HW150156   7.492  12.061   6.733
49441SOL    HW250157   7.387  11.965   6.786
49442SOL     OW50158   3.939   8.319   9.229
49442SOL    HW150159   3.936   8.401   9.278
49442SOL    HW250160   4.027   8.285   9.245
49443SOL     OW50161   5.754   6.608   4.709
49443SOL    HW150162   5.797   6.693   4.721
49443SOL    HW250163   5.787   6.554   4.781
49444SOL     OW50164  10.883   3.739   7.482
49444SOL    HW150165  10.921   3.749   7.569
49444SOL    HW250166  10.941   3.787   7.424
49445SOL     OW50167  13.307  14.332   7.239
49445SOL    HW150168  13.286  14.425   7.232
49445SOL    HW250169  13.400  14.327   7.220
49446SOL     OW50170  14.821   3.218  12.436
49446SOL    HW150171  14.759   3.267  12.382
49446SOL    HW250172  14.818   3.262  12.521
49447SOL     OW50173  14.223   9.430   1.609
49447SOL    HW150174  14.150   9.382   1.649
49447SOL    HW250175  14.211   9.418   1.515
49448SOL     OW50176   8.797  13.289   1.887
49448SOL    HW150177   8.773  13.197   1.876
49448SOL    HW250178   8.851  13.309   1.810
49449SOL     OW50179  13.351   2.498  12.600
49449SOL    HW150180  13.330   2.532  12.687
49449SOL    HW250181  13.278   2.441  12.577
49450SOL     OW50182   9.166   8.594   1.619
49450SOL    HW150183   9.244   8.542   1.597
49450SOL    HW250184   9.104   8.529   1.652
49451SOL     OW50185   3.021   3.045  10.429
49451SOL    HW150186   2.971   3.027  10.509
49451SOL    HW250187   3.106   3.003  10.444
49452SOL     OW50188   2.254   3.342   6.436
49452SOL    HW150189   2.233   3.262   6.387
49452SOL    HW250190   2.189   3.346   6.506
49453SOL     OW50191  14.352  14.316   3.124
49453SOL    HW150192  14.405  14.261   3.067
49453SOL    HW250193  14.287  14.355   3.066
49454SOL     OW50194   9.190   4.701   9.808
49454SOL    HW150195   9.111   4.683   9.859
49454SOL    HW250196   9.196   4.796   9.806
49455SOL     OW50197   9.752   9.864  13.422
49455SOL    HW150198   9.811   9.895  13.491
49455SOL    HW250199   9.664   9.889  13.452
49456SOL     OW50200  10.059   4.176   7.949
49456SOL    HW150201  10.139   4.218   7.915
49456SOL    HW250202  10.000   4.172   7.874
49457SOL     OW50203   3.492   4.088  14.368
49457SOL    HW150204   3.534   4.172  14.383
49457SOL    HW250205   3.465   4.090  14.276
49458SOL     OW50206   0.246   8.803   7.708
49458SOL    HW150207   0.197   8.794   7.790
49458SOL    HW250208   0.253   8.898   7.696
49459SOL     OW50209  13.143   3.281  14.848
49459SOL    HW150210  13.219   3.263   0.024
49459SOL    HW250211  13.118   3.195  14.813
49460SOL     OW50212  14.602  14.071   9.816
49460SOL    HW150213  14.681  14.054   9.868
49460SOL    HW250214  14.614  14.160   9.783
49461SOL     OW50215  12.576   8.492   4.499
49461SOL    HW150216  12.524   8.474   4.578
49461SOL    HW250217  12.659   8.525   4.532
49462SOL     OW50218   8.267   1.162   1.685
49462SOL    HW150219   8.261   1.208   1.601
49462SOL    HW250220   8.190   1.105   1.688
49463SOL     OW50221   0.415   9.255  10.385
49463SOL    HW150222   0.426   9.326  10.449
49463SOL    HW250223   0.360   9.191  10.430
49464SOL     OW50224   8.099   0.694  12.006
49464SOL    HW150225   8.157   0.724  12.076
49464SOL    HW250226   8.075   0.605  12.031
49465SOL     OW50227   1.669   2.770  13.999
49465SOL    HW150228   1.646   2.710  13.928
49465SOL    HW250229   1.759   2.746  14.021
49466SOL     OW50230  10.442   0.693   3.203
49466SOL    HW150231  10.486   0.638   3.139
49466SOL    HW250232  10.432   0.778   3.159
49467SOL     OW50233   2.776   0.515   8.976
49467SOL    HW150234   2.688   0.527   9.011
49467SOL    HW250235   2.765   0.452   8.905
49468SOL     OW50236  13.860  10.865   4.049
49468SOL    HW150237  13.807  10.914   3.987
49468SOL    HW250238  13.797  10.811   4.097
49469SOL     OW50239   9.606  13.673   7.694
49469SOL    HW150240   9.634  13.619   7.768
49469SOL    HW250241   9.637  13.626   7.617
49470SOL     OW50242   3.859   1.940   5.191
49470SOL    HW150243   3.923   1.932   5.120
49470SOL    HW250244   3.812   2.021   5.170
49471SOL     OW50245   2.301   7.653  10.049
49471SOL    HW150246   2.273   7.602  10.125
49471SOL    HW250247   2.371   7.601  10.010
49472SOL     OW50248  10.053  11.552   2.716
49472SOL    HW150249   9.978  11.513   2.671
49472SOL    HW250250  10.099  11.601   2.648
49473SOL     OW50251   5.081   3.760   1.708
49473SOL    HW150252   5.150   3.703   1.741
49473SOL    HW250253   5.044   3.800   1.787
49474SOL     OW50254   3.933   5.065   8.687
49474SOL    HW150255   3.935   5.063   8.591
49474SOL    HW250256   3.927   5.158   8.709
49475SOL     OW50257   5.132   3.347   7.134
49475SOL    HW150258   5.198   3.339   7.203
49475SOL    HW250259   5.048   3.349   7.182
49476SOL     OW50260  10.656   0.683   5.562
49476SOL    HW150261  10.724   0.618   5.580
49476SOL    HW250262  10.681   0.722   5.478
49477SOL     OW50263  12.562   6.528  12.748
49477SOL    HW150264  12.520   6.448  12.777
49477SOL    HW250265  12.543   6.533  12.655
49478SOL     OW50266   9.422  10.228   7.489
49478SOL    HW150267   9.391  10.244   7.579
49478SOL    HW250268   9.344  10.235   7.435
49479SOL     OW50269  13.265  14.597   8.247
49479SOL    HW150270  13.271  14.513   8.201
49479SOL    HW250271  13.249  14.574   8.338
49480SOL     OW50272   5.896  14.100  14.588
49480SOL    HW150273   5.927  14.164  14.524
49480SOL    HW250274   5.813  14.068  14.551
49481SOL     OW50275  13.540  10.546   7.018
49481SOL    HW150276  13.560  10.500   7.100
49481SOL    HW250277  13.493  10.481   6.965
49482SOL     OW50278  11.914  10.619  11.897
49482SOL    HW150279  11.850  10.594  11.964
49482SOL    HW250280  11.928  10.540  11.846
49483SOL     OW50281   4.513   8.756   5.341
49483SOL    HW150282   4.487   8.848   5.341
49483SOL    HW250283   4.603   8.757   5.308
49484SOL     OW50284   5.376  13.292  13.099
49484SOL    HW150285   5.428  13.250  13.031
49484SOL    HW250286   5.298  13.238  13.107
49485SOL     OW50287   2.970  10.929   6.424
49485SOL    HW150288   2.983  10.928   6.519
49485SOL    HW250289   2.946  11.019   6.404
49486SOL     OW50290   9.630  14.103  14.413
49486SOL    HW150291   9.663  14.160  14.343
49486SOL    HW250292   9.701  14.041  14.428
49487SOL     OW50293   1.938   8.728   0.626
49487SOL    HW150294   2.007   8.684   0.577
49487SOL    HW250295   1.916   8.804   0.572
49488SOL     OW50296   6.533   3.174  13.752
49488SOL    HW150297   6.475   3.219  13.691
49488SOL    HW250298   6.596   3.128  13.696
49489SOL     OW50299  14.676   5.363   6.936
49489SOL    HW150300  14.625   5.324   7.007
49489SOL    HW250301  14.618   5.429   6.898
49490SOL     OW50302   8.404   8.207   1.372
49490SOL    HW150303   8.417   8.248   1.286
49490SOL    HW250304   8.479   8.147   1.382
49491SOL     OW50305   3.777  14.714   0.216
49491SOL    HW150306   3.699  14.766   0.196
49491SOL    HW250307   3.743  14.629   0.246
49492SOL     OW50308   6.703   5.043   5.346
49492SOL    HW150309   6.686   5.011   5.257
49492SOL    HW250310   6.740   4.968   5.392
49493SOL     OW50311   7.257   4.968   4.218
49493SOL    HW150312   7.282   5.059   4.201
49493SOL    HW250313   7.333   4.931   4.264
49494SOL     OW50314  13.421  11.877   2.328
49494SOL    HW150315  13.372  11.944   2.281
49494SOL    HW250316  13.419  11.801   2.271
49495SOL     OW50317  11.579  10.612   8.382
49495SOL    HW150318  11.547  10.524   8.363
49495SOL    HW250319  11.537  10.636   8.465
49496SOL     OW50320   0.067   8.879   7.033
49496SOL    HW150321   0.101   8.795   7.066
49496SOL    HW250322   0.131   8.944   7.062
49497SOL     OW50323   2.439   4.283  14.830
49497SOL    HW150324   2.525   4.269  14.868
49497SOL    HW250325   2.400   4.195  14.827
49498SOL     OW50326   3.230  12.635   5.785
49498SOL    HW150327   3.299  12.670   5.841
49498SOL    HW250328   3.263  12.646   5.696
49499SOL     OW50329   4.432  11.781  10.657
49499SOL    HW150330   4.411  11.712  10.595
49499SOL    HW250331   4.523  11.803  10.639
49500SOL     OW50332   6.178   1.128  10.330
49500SOL    HW150333   6.112   1.134  10.261
49500SOL    HW250334   6.222   1.213  10.328
49501SOL     OW50335  10.916   0.252  12.477
49501SOL    HW150336  10.888   0.221  12.563
49501SOL    HW250337  10.840   0.239  12.420
49502SOL     OW50338  13.461   3.721  12.440
49502SOL    HW150339  13.381   3.676  12.414
49502SOL    HW250340  13.474   3.787  12.372
49503SOL     OW50341   8.598   7.262  12.166
49503SOL    HW150342   8.650   7.215  12.101
49503SOL    HW250343   8.533   7.200  12.196
49504SOL     OW50344   1.756   2.601   5.769
49504SOL    HW150345   1.691   2.613   5.838
49504SOL    HW250346   1.839   2.597   5.815
49505SOL     OW50347   9.865   4.064  13.930
49505SOL    HW150348   9.906   4.037  14.013
49505SOL    HW250349   9.797   4.126  13.956
49506SOL     OW50350   7.463   2.190   7.692
49506SOL    HW150351   7.504   2.266   7.650
49506SOL    HW250352   7.375   2.219   7.712
49507SOL     OW50353   7.671   8.760   0.459
49507SOL    HW150354   7.608   8.815   0.412
49507SOL    HW250355   7.638   8.757   0.548
49508SOL     OW50356   6.967   2.962   3.793
49508SOL    HW150357   7.053   3.002   3.804
49508SOL    HW250358   6.978   2.900   3.721
49509SOL     OW50359  14.800   9.023  11.169
49509SOL    HW150360  14.742   9.092  11.202
49509SOL    HW250361  14.779   8.947  11.222
49510SOL     OW50362   3.571   9.474  11.976
49510SOL    HW150363   3.652   9.507  12.015
49510SOL    HW250364   3.552   9.535  11.905
49511SOL     OW50365   9.168   7.236  14.411
49511SOL    HW150366   9.122   7.312  14.448
49511SOL    HW250367   9.174   7.175  14.485
49512SOL     OW50368   8.067  10.963   9.212
49512SOL    HW150369   8.004  10.905   9.256
49512SOL    HW250370   8.125  10.991   9.282
49513SOL     OW50371   0.721  14.409   7.573
49513SOL    HW150372   0.649  14.361   7.532
49513SOL    HW250373   0.795  14.397   7.514
49514SOL     OW50374  10.575  13.931   3.920
49514SOL    HW150375  10.667  13.908   3.906
49514SOL    HW250376  10.576  13.987   3.998
49515SOL     OW50377   1.298   3.978   3.144
49515SOL    HW150378   1.312   3.916   3.216
49515SOL    HW250379   1.347   3.942   3.071
49516SOL     OW50380  12.361   9.755   4.657
49516SOL    HW150381  12.305   9.731   4.731
49516SOL    HW250382  12.450   9.750   4.691
49517SOL     OW50383  13.552   1.542   9.399
49517SOL    HW150384  13.587   1.592   9.473
49517SOL    HW250385  13.457   1.543   9.411
49518SOL     OW50386   5.878   6.446   2.753
49518SOL    HW150387   5.827   6.365   2.757
49518SOL    HW250388   5.835   6.499   2.686
49519SOL     OW50389   2.315  10.057  10.148
49519SOL    HW150390   2.332  10.121  10.217
49519SOL    HW250391   2.373   9.984  10.168
49520SOL     OW50392   2.937   8.789   1.249
49520SOL    HW150393   2.871   8.837   1.299
49520SOL    HW250394   2.913   8.803   1.157
49521SOL     OW50395  11.313  10.681  12.475
49521SOL    HW150396  11.309  10.762  12.424
49521SOL    HW250397  11.226  10.641  12.464
49522SOL     OW50398   6.786   9.099   0.500
49522SOL    HW150399   6.747   9.090   0.587
49522SOL    HW250400   6.714   9.128   0.444
49523SOL     OW50401   3.125   6.819  10.877
49523SOL    HW150402   3.104   6.767  10.799
49523SOL    HW250403   3.044   6.865  10.897
49524SOL     OW50404  10.614   4.437  14.116
49524SOL    HW150405  10.556   4.510  14.140
49524SOL    HW250406  10.556   4.361  14.112
49525SOL     OW50407   1.374   9.460   9.152
49525SOL    HW150408   1.352   9.385   9.207
49525SOL    HW250409   1.393   9.422   9.066
49526SOL     OW50410  11.416   1.670   3.055
49526SOL    HW150411  11.498   1.654   3.008
49526SOL    HW250412  11.349   1.628   3.000
49527SOL     OW50413   6.758   0.015  11.831
49527SOL    HW150414   6.666   0.001  11.853
49527SOL    HW250415   6.764   0.108  11.809
49528SOL     OW50416   8.288   1.590   3.707
49528SOL    HW150417   8.244   1.629   3.783
49528SOL    HW250418   8.278   1.654   3.637
49529SOL     OW50419   8.610   1.520  11.667
49529SOL    HW150420   8.536   1.522  11.607
49529SOL    HW250421   8.573   1.543  11.752
49530SOL     OW50422  13.661  12.249  11.242
49530SOL    HW150423  13.608  12.173  11.219
49530SOL    HW250424  13.648  12.310  11.169
49531SOL     OW50425   4.954   0.896   2.590
49531SOL    HW150426   4.998   0.931   2.513
49531SOL    HW250427   4.872   0.946   2.596
49532SOL     OW50428  11.861   7.196  12.212
49532SOL    HW150429  11.939   7.216  12.263
49532SOL    HW250430  11.893   7.186  12.122
49533SOL     OW50431   0.898   5.591   3.656
49533SOL    HW150432   0.872   5.655   3.723
49533SOL    HW250433   0.832   5.522   3.663
49534SOL     OW50434   8.622   8.687   5.316
49534SOL    HW150435   8.647   8.778   5.330
49534SOL    HW250436   8.705   8.639   5.322
49535SOL     OW50437   8.557  12.093  10.347
49535SOL    HW150438   8.545  12.039  10.269
49535SOL    HW250439   8.651  12.106  10.354
49536SOL     OW50440   3.300   6.551   9.531
49536SOL    HW150441   3.356   6.612   9.482
49536SOL    HW250442   3.218   6.598   9.542
49537SOL     OW50443  14.039  10.951   6.645
49537SOL    HW150444  13.995  10.970   6.728
49537SOL    HW250445  14.082  11.033   6.622
49538SOL     OW50446   9.875   6.724   6.378
49538SOL    HW150447   9.818   6.718   6.455
49538SOL    HW250448   9.843   6.800   6.330
49539SOL     OW50449  11.281   4.490  13.913
49539SOL    HW150450  11.335   4.417  13.944
49539SOL    HW250451  11.192   4.457  13.916
49540SOL     OW50452   4.013   0.862  10.044
49540SOL    HW150453   3.936   0.849   9.989
49540SOL    HW250454   4.073   0.792  10.017
49541SOL     OW50455   6.575   3.000   4.787
49541SOL    HW150456   6.620   2.952   4.856
49541SOL    HW250457   6.497   3.037   4.829
49542SOL     OW50458  11.114   9.111   0.839
49542SOL    HW150459  11.202   9.086   0.810
49542SOL    HW250460  11.121   9.205   0.856
49543SOL     OW50461   9.322   3.292   5.778
49543SOL    HW150462   9.307   3.334   5.862
49543SOL    HW250463   9.340   3.200   5.800
49544SOL     OW50464   2.998   7.839   9.971
49544SOL    HW150465   2.940   7.814  10.042
49544SOL    HW250466   3.059   7.766   9.963
49545SOL     OW50467  10.550  14.855   5.546
49545SOL    HW150468  10.461   0.006   5.566
49545SOL    HW250469  10.548  14.761   5.566
49546SOL     OW50470   6.982  12.589   0.189
49546SOL    HW150471   7.042  12.663   0.179
49546SOL    HW250472   6.992  12.539   0.108
49547SOL     OW50473   6.200   4.788   0.315
49547SOL    HW150474   6.113   4.777   0.353
49547SOL    HW250475   6.252   4.824   0.387
49548SOL     OW50476   2.395   8.207  11.500
49548SOL    HW150477   2.469   8.242  11.450
49548SOL    HW250478   2.352   8.146  11.440
49549SOL     OW50479  11.656   3.932   1.308
49549SOL    HW150480  11.747   3.920   1.334
49549SOL    HW250481  11.641   3.866   1.241
49550SOL     OW50482  10.384   6.898   2.724
49550SOL    HW150483  10.328   6.952   2.669
49550SOL    HW250484  10.392   6.815   2.677
49551SOL     OW50485  10.771  14.115   0.502
49551SOL    HW150486  10.694  14.059   0.492
49551SOL    HW250487  10.842  14.053   0.521
49552SOL     OW50488   2.208   6.951   9.112
49552SOL    HW150489   2.184   7.044   9.120
49552SOL    HW250490   2.138   6.905   9.157
49553SOL     OW50491   9.115  14.763   3.672
49553SOL    HW150492   9.132  14.680   3.629
49553SOL    HW250493   9.021  14.762   3.690
49554SOL     OW50494  11.111   7.382   5.186
49554SOL    HW150495  11.021   7.391   5.218
49554SOL    HW250496  11.102   7.350   5.096
49555SOL     OW50497   8.383   7.430  12.694
49555SOL    HW150498   8.454   7.385  12.649
49555SOL    HW250499   8.330   7.467  12.623
49556SOL     OW50500   4.125   6.367   7.475
49556SOL    HW150501   4.179   6.444   7.493
49556SOL    HW250502   4.150   6.303   7.542
49557SOL     OW50503   5.116  14.159   4.893
49557SOL    HW150504   5.095  14.242   4.849
49557SOL    HW250505   5.036  14.107   4.883
49558SOL     OW50506   6.421  10.475  12.016
49558SOL    HW150507   6.339  10.499  12.061
49558SOL    HW250508   6.475  10.437  12.085
49559SOL     OW50509   3.220   6.945   5.449
49559SOL    HW150510   3.251   7.012   5.511
49559SOL    HW250511   3.139   6.982   5.413
49560SOL     OW50512   2.803  12.898   1.208
49560SOL    HW150513   2.817  12.807   1.235
49560SOL    HW250514   2.861  12.911   1.134
49561SOL     OW50515   9.959   9.825   9.630
49561SOL    HW150516  10.007   9.829   9.713
49561SOL    HW250517  10.027   9.812   9.564
49562SOL     OW50518   1.305  13.308  10.468
49562SOL    HW150519   1.236  13.367  10.497
49562SOL    HW250520   1.275  13.273  10.385
49563SOL     OW50521   4.814  13.384   4.678
49563SOL    HW150522   4.742  13.439   4.649
49563SOL    HW250523   4.817  13.312   4.616
49564SOL     OW50524   7.274   8.860  10.806
49564SOL    HW150525   7.289   8.838  10.898
49564SOL    HW250526   7.205   8.926  10.808
49565SOL     OW50527   7.447   1.526   6.387
49565SOL    HW150528   7.410   1.551   6.302
49565SOL    HW250529   7.375   1.539   6.449
49566SOL     OW50530   9.285   1.499   7.087
49566SOL    HW150531   9.312   1.515   7.177
49566SOL    HW250532   9.366   1.480   7.040
49567SOL     OW50533   6.754   5.037  13.826
49567SOL    HW150534   6.807   5.087  13.764
49567SOL    HW250535   6.789   4.948  13.822
49568SOL     OW50536   1.499   5.369   8.081
49568SOL    HW150537   1.503   5.304   8.011
49568SOL    HW250538   1.591   5.390   8.098
49569SOL     OW50539   6.908  11.758   3.524
49569SOL    HW150540   6.950  11.759   3.610
49569SOL    HW250541   6.817  11.734   3.543
49570SOL     OW50542  10.712  11.539  10.371
49570SOL    HW150543  10.652  11.526  10.444
49570SOL    HW250544  10.732  11.450  10.340
49571SOL     OW50545   1.132  14.245  11.563
49571SOL    HW150546   1.061  14.203  11.612
49571SOL    HW250547   1.150  14.184  11.491
49572SOL     OW50548   6.235  11.955   9.461
49572SOL    HW150549   6.160  12.011   9.440
49572SOL    HW250550   6.279  12.001   9.533
49573SOL     OW50551   4.508   4.368   0.268
49573SOL    HW150552   4.534   4.287   0.223
49573SOL    HW250553   4.412   4.367   0.263
49574SOL     OW50554  10.759   8.753   4.362
49574SOL    HW150555  10.835   8.797   4.401
49574SOL    HW250556  10.710   8.719   4.437
49575SOL     OW50557   3.359   9.782  12.387
49575SOL    HW150558   3.351   9.690  12.413
49575SOL    HW250559   3.403   9.780  12.303
49576SOL     OW50560  13.501   9.626  12.182
49576SOL    HW150561  13.506   9.531  12.194
49576SOL    HW250562  13.416   9.641  12.140
49577SOL     OW50563   3.052  13.662   8.340
49577SOL    HW150564   3.137  13.706   8.326
49577SOL    HW250565   3.075  13.574   8.370
49578SOL     OW50566  11.555   5.130   5.496
49578SOL    HW150567  11.542   5.199   5.431
49578SOL    HW250568  11.620   5.072   5.457
49579SOL     OW50569   5.778  11.484   3.892
49579SOL    HW150570   5.728  11.404   3.880
49579SOL    HW250571   5.727  11.534   3.956
49580SOL     OW50572  10.372  13.810  14.693
49580SOL    HW150573  10.317  13.732  14.695
49580SOL    HW250574  10.312  13.882  14.673
49581SOL     OW50575   6.407   2.253   4.370
49581SOL    HW150576   6.378   2.252   4.462
49581SOL    HW250577   6.432   2.344   4.354
49582SOL     OW50578   0.463  10.910   6.182
49582SOL    HW150579   0.553  10.924   6.212
49582SOL    HW250580   0.430  10.997   6.162
49583SOL     OW50581   0.800  10.710   3.890
49583SOL    HW150582   0.729  10.746   3.943
49583SOL    HW250583   0.756  10.663   3.820
49584SOL     OW50584   3.274   0.912  11.008
49584SOL    HW150585   3.213   0.888  10.938
49584SOL    HW250586   3.223   0.902  11.089
49585SOL     OW50587   5.031  12.758   8.927
49585SOL    HW150588   5.039  12.835   8.983
49585SOL    HW250589   4.960  12.779   8.867
49586SOL     OW50590   8.436  14.797  14.047
49586SOL    HW150591   8.431  14.760  14.136
49586SOL    HW250592   8.350  14.838  14.034
49587SOL     OW50593   7.859  11.464   9.438
49587SOL    HW150594   7.794  11.517   9.392
49587SOL    HW250595   7.884  11.397   9.374
49588SOL     OW50596   3.853  12.229  12.680
49588SOL    HW150597   3.874  12.149  12.729
49588SOL    HW250598   3.894  12.216  12.595
49589SOL     OW50599   3.965   8.714   0.605
49589SOL    HW150600   4.059   8.730   0.594
49589SOL    HW250601   3.933   8.702   0.515
49590SOL     OW50602  14.774  12.869   0.400
49590SOL    HW150603  14.687  12.834   0.382
49590SOL    HW250604  14.769  12.904   0.488
49591SOL     OW50605  14.168  13.532   1.130
49591SOL    HW150606  14.222  13.588   1.074
49591SOL    HW250607  14.185  13.563   1.219
49592SOL     OW50608  14.150  11.744  14.197
49592SOL    HW150609  14.055  11.733  14.205
49592SOL    HW250610  14.180  11.749  14.288
49593SOL     OW50611   2.852   4.126   7.591
49593SOL    HW150612   2.759   4.132   7.614
49593SOL    HW250613   2.898   4.136   7.674
49594SOL     OW50614   5.233  14.340   2.033
49594SOL    HW150615   5.234  14.422   2.083
49594SOL    HW250616   5.291  14.281   2.082
49595SOL     OW50617  10.815   4.067   6.317
49595SOL    HW150618  10.867   3.989   6.339
49595SOL    HW250619  10.880   4.135   6.301
49596SOL     OW50620   3.462  13.563   4.846
49596SOL    HW150621   3.420  13.628   4.902
49596SOL    HW250622   3.555  13.585   4.848
49597SOL     OW50623  12.902   1.317   1.831
49597SOL    HW150624  12.983   1.286   1.871
49597SOL    HW250625  12.854   1.359   1.902
49598SOL     OW50626   1.012  12.334   9.322
49598SOL    HW150627   0.946  12.269   9.344
49598SOL    HW250628   1.078  12.324   9.390
49599SOL     OW50629   5.687   2.249   9.904
49599SOL    HW150630   5.677   2.180   9.970
49599SOL    HW250631   5.776   2.283   9.917
49600SOL     OW50632  12.836   7.626   9.886
49600SOL    HW150633  12.874   7.710   9.860
49600SOL    HW250634  12.885   7.601   9.965
49601SOL     OW50635  11.516   0.992  11.555
49601SOL    HW150636  11.514   0.968  11.647
49601SOL    HW250637  11.541   0.911  11.509
49602SOL     OW50638   5.707   9.851   6.822
49602SOL    HW150639   5.685   9.933   6.778
49602SOL    HW250640   5.634   9.792   6.802
49603SOL     OW50641   2.980   8.656   7.334
49603SOL    HW150642   2.997   8.723   7.269
49603SOL    HW250643   2.894   8.678   7.371
49604SOL     OW50644  12.135  11.093   2.102
49604SOL    HW150645  12.072  11.066   2.168
49604SOL    HW250646  12.169  11.011   2.066
49605SOL     OW50647   0.675   2.398   2.141
49605SOL    HW150648   0.704   2.420   2.053
49605SOL    HW250649   0.579   2.395   2.135
49606SOL     OW50650  12.995  13.585   4.439
49606SOL    HW150651  12.953  13.502   4.417
49606SOL    HW250652  12.922  13.646   4.450
49607SOL     OW50653  14.698   9.029  13.536
49607SOL    HW150654  14.711   8.935  13.544
49607SOL    HW250655  14.603   9.040  13.532
49608SOL     OW50656   9.852   2.395   8.952
49608SOL    HW150657   9.812   2.411   8.866
49608SOL    HW250658   9.946   2.408   8.937
49609SOL     OW50659   7.806   3.797  13.483
49609SOL    HW150660   7.772   3.777  13.571
49609SOL    HW250661   7.823   3.711  13.444
49610SOL     OW50662  13.149   3.820   1.927
49610SOL    HW150663  13.241   3.825   1.954
49610SOL    HW250664  13.100   3.832   2.008
49611SOL     OW50665   1.840   6.484  14.371
49611SOL    HW150666   1.859   6.526  14.287
49611SOL    HW250667   1.896   6.529  14.434
49612SOL     OW50668   4.607   9.936   6.407
49612SOL    HW150669   4.517   9.943   6.374
49612SOL    HW250670   4.654  10.006   6.361
49613SOL     OW50671  14.303   1.966   3.271
49613SOL    HW150672  14.319   1.939   3.181
49613SOL    HW250673  14.216   2.005   3.270
49614SOL     OW50674  11.090  11.568   1.421
49614SOL    HW150675  11.056  11.482   1.395
49614SOL    HW250676  11.144  11.550   1.498
49615SOL     OW50677   3.058  12.904  12.555
49615SOL    HW150678   3.039  12.995  12.532
49615SOL    HW250679   2.972  12.866  12.576
49616SOL     OW50680  13.676  13.615   5.951
49616SOL    HW150681  13.634  13.673   5.887
49616SOL    HW250682  13.687  13.532   5.904
49617SOL     OW50683   0.311   6.898   1.065
49617SOL    HW150684   0.233   6.918   1.116
49617SOL    HW250685   0.326   6.804   1.079
49618SOL     OW50686  11.745   6.203  12.628
49618SOL    HW150687  11.684   6.170  12.694
49618SOL    HW250688  11.705   6.286  12.599
49619SOL     OW50689   8.068   2.109  11.035
49619SOL    HW150690   8.030   2.135  10.951
49619SOL    HW250691   8.160   2.094  11.016
49620SOL     OW50692   6.398  10.988   5.651
49620SOL    HW150693   6.482  10.993   5.696
49620SOL    HW250694   6.342  11.050   5.697
49621SOL     OW50695   5.836   1.407   0.755
49621SOL    HW150696   5.893   1.471   0.713
49621SOL    HW250697   5.764   1.395   0.693
49622SOL     OW50698   2.953   7.038   4.494
49622SOL    HW150699   2.969   6.955   4.449
49622SOL    HW250700   3.026   7.047   4.556
49623SOL     OW50701   6.575   3.873   2.837
49623SOL    HW150702   6.577   3.967   2.857
49623SOL    HW250703   6.488   3.859   2.799
49624SOL     OW50704   3.158   9.962   9.377
49624SOL    HW150705   3.148   9.892   9.441
49624SOL    HW250706   3.177   9.916   9.295
49625SOL     OW50707   7.155   4.483  12.707
49625SOL    HW150708   7.090   4.414  12.696
49625SOL    HW250709   7.220   4.445  12.766
49626SOL     OW50710  14.408   2.823   0.593
49626SOL    HW150711  14.485   2.792   0.642
49626SOL    HW250712  14.364   2.743   0.565
49627SOL     OW50713  12.777   7.594   0.984
49627SOL    HW150714  12.729   7.579   0.902
49627SOL    HW250715  12.868   7.607   0.957
49628SOL     OW50716  14.510  14.078  10.413
49628SOL    HW150717  14.451  14.014  10.374
49628SOL    HW250718  14.514  14.055  10.505
49629SOL     OW50719  10.437   7.623   8.502
49629SOL    HW150720  10.358   7.576   8.531
49629SOL    HW250721  10.426   7.712   8.537
49630SOL     OW50722   9.266   8.748   1.072
49630SOL    HW150723   9.253   8.836   1.037
49630SOL    HW250724   9.186   8.731   1.123
49631SOL     OW50725   6.931   3.848   7.492
49631SOL    HW150726   6.892   3.871   7.408
49631SOL    HW250727   7.015   3.807   7.469
49632SOL     OW50728   6.030  11.174   0.998
49632SOL    HW150729   6.093  11.145   0.932
49632SOL    HW250730   6.005  11.095   1.045
49633SOL     OW50731   6.778   0.032  13.091
49633SOL    HW150732   6.817  14.864  13.164
49633SOL    HW250733   6.842   0.101  13.070
49634SOL     OW50734   9.043   5.046  14.859
49634SOL    HW150735   9.003   5.014  14.779
49634SOL    HW250736   8.984   5.114   0.011
49635SOL     OW50737   2.767   5.882   0.514
49635SOL    HW150738   2.746   5.968   0.550
49635SOL    HW250739   2.688   5.830   0.527
49636SOL     OW50740   0.554   0.510   1.427
49636SOL    HW150741   0.620   0.466   1.481
49636SOL    HW250742   0.478   0.520   1.484
49637SOL     OW50743   2.126   9.494   1.303
49637SOL    HW150744   2.049   9.446   1.273
49637SOL    HW250745   2.167   9.526   1.223
49638SOL     OW50746   4.256   6.624   2.756
49638SOL    HW150747   4.278   6.608   2.664
49638SOL    HW250748   4.231   6.539   2.790
49639SOL     OW50749  11.901   3.610   3.765
49639SOL    HW150750  11.878   3.632   3.675
49639SOL    HW250751  11.821   3.570   3.800
49640SOL     OW50752   9.679  14.703  13.153
49640SOL    HW150753   9.680  14.797  13.134
49640SOL    HW250754   9.716  14.663  13.074
49641SOL     OW50755  11.860   9.569  12.362
49641SOL    HW150756  11.923   9.499  12.374
49641SOL    HW250757  11.898   9.625  12.294
49642SOL     OW50758   5.482   1.006  10.657
49642SOL    HW150759   5.425   1.083  10.650
49642SOL    HW250760   5.510   1.006  10.748
49643SOL     OW50761  12.595  13.471  11.033
49643SOL    HW150762  12.559  13.425  11.109
49643SOL    HW250763  12.652  13.406  10.991
49644SOL     OW50764   9.866  11.595   9.887
49644SOL    HW150765   9.910  11.521   9.845
49644SOL    HW250766   9.901  11.672   9.843
49645SOL     OW50767  14.345   8.603  10.519
49645SOL    HW150768  14.347   8.625  10.612
49645SOL    HW250769  14.302   8.517  10.516
49646SOL     OW50770  11.857   8.809   5.220
49646SOL    HW150771  11.919   8.843   5.155
49646SOL    HW250772  11.911   8.786   5.295
49647SOL     OW50773   1.151  11.729  10.407
49647SOL    HW150774   1.171  11.660  10.470
49647SOL    HW250775   1.231  11.783  10.404
49648SOL     OW50776   5.865  11.433   8.075
49648SOL    HW150777   5.948  11.396   8.044
49648SOL    HW250778   5.799  11.392   8.019
49649SOL     OW50779  12.563  10.804   9.393
49649SOL    HW150780  12.628  10.771   9.331
49649SOL    HW250781  12.481  10.807   9.344
49650SOL     OW50782   3.360  13.223   3.517
49650SOL    HW150783   3.342  13.190   3.429
49650SOL    HW250784   3.286  13.192   3.570
49651SOL     OW50785   1.233   4.591   5.144
49651SOL    HW150786   1.307   4.642   5.176
49651SOL    HW250787   1.199   4.547   5.222
49652SOL     OW50788  11.649  11.164  10.376
49652SOL    HW150789  11.743  11.168  10.363
49652SOL    HW250790  11.621  11.256  10.378
49653SOL     OW50791   9.696  13.886   3.678
49653SOL    HW150792   9.782  13.887   3.636
49653SOL    HW250793   9.686  13.796   3.710
49654SOL     OW50794  11.981   9.246  10.073
49654SOL    HW150795  11.960   9.337  10.095
49654SOL    HW250796  12.046   9.253  10.002
49655SOL     OW50797  12.420  11.310  10.168
49655SOL    HW150798  12.346  11.364  10.197
49655SOL    HW250799  12.398  11.285  10.079
49656SOL     OW50800  12.965   4.970   7.026
49656SOL    HW150801  12.926   5.032   7.088
49656SOL    HW250802  13.059   4.984   7.035
49657SOL     OW50803   8.585  13.181  14.430
49657SOL    HW150804   8.517  13.148  14.372
49657SOL    HW250805   8.653  13.214  14.371
49658SOL     OW50806  10.976   3.695   1.761
49658SOL    HW150807  10.899   3.686   1.817
49658SOL    HW250808  11.050   3.692   1.821
49659SOL     OW50809  10.639  12.387   2.111
49659SOL    HW150810  10.646  12.377   2.206
49659SOL    HW250811  10.578  12.460   2.100
49660SOL     OW50812   9.048   1.547   9.329
49660SOL    HW150813   9.054   1.452   9.332
49660SOL    HW250814   9.112   1.573   9.262
49661SOL     OW50815   0.972   7.956  11.106
49661SOL    HW150816   0.953   7.911  11.188
49661SOL    HW250817   1.054   8.003  11.122
49662SOL     OW50818   7.242  10.743  10.912
49662SOL    HW150819   7.256  10.691  10.833
49662SOL    HW250820   7.199  10.823  10.881
49663SOL     OW50821   2.613   7.955   8.539
49663SOL    HW150822   2.702   7.946   8.505
49663SOL    HW250823   2.601   7.879   8.596
49664SOL     OW50824   4.748   0.447   5.249
49664SOL    HW150825   4.794   0.431   5.166
49664SOL    HW250826   4.667   0.396   5.241
49665SOL     OW50827   2.821   1.532   8.196
49665SOL    HW150828   2.869   1.486   8.265
49665SOL    HW250829   2.816   1.468   8.125
49666SOL     OW50830   1.703   2.740   9.747
49666SOL    HW150831   1.763   2.778   9.683
49666SOL    HW250832   1.703   2.802   9.820
49667SOL     OW50833   1.579   1.684   1.109
49667SOL    HW150834   1.635   1.762   1.107
49667SOL    HW250835   1.610   1.635   1.185
49668SOL     OW50836   7.204  10.658   9.656
49668SOL    HW150837   7.176  10.704   9.576
49668SOL    HW250838   7.203  10.726   9.723
49669SOL     OW50839   6.767   7.412   5.712
49669SOL    HW150840   6.704   7.369   5.771
49669SOL    HW250841   6.823   7.462   5.771
49670SOL     OW50842   0.097  13.154  14.480
49670SOL    HW150843   0.191  13.142  14.465
49670SOL    HW250844   0.056  13.122  14.399
49671SOL     OW50845   4.561   7.737   1.984
49671SOL    HW150846   4.524   7.824   1.997
49671SOL    HW250847   4.581   7.733   1.891
49672SOL     OW50848   3.946  14.268  11.862
49672SOL    HW150849   3.950  14.353  11.819
49672SOL    HW250850   4.025  14.222  11.834
49673SOL     OW50851  11.609   5.110   1.750
49673SOL    HW150852  11.558   5.038   1.788
49673SOL    HW250853  11.650   5.072   1.673
49674SOL     OW50854  13.083   4.114   0.825
49674SOL    HW150855  13.146   4.140   0.891
49674SOL    HW250856  13.005   4.166   0.844
49675SOL     OW50857   5.468  13.409   6.121
49675SOL    HW150858   5.382  13.450   6.122
49675SOL    HW250859   5.462  13.341   6.054
49676SOL     OW50860   9.693   3.765  12.800
49676SOL    HW150861   9.656   3.691  12.848
49676SOL    HW250862   9.692   3.738  12.708
49677SOL     OW50863  14.807   2.283   4.308
49677SOL    HW150864  14.879   2.314   4.363
49677SOL    HW250865  14.851   2.253   4.228
49678SOL     OW50866  11.476   1.465   4.437
49678SOL    HW150867  11.476   1.530   4.507
49678SOL    HW250868  11.436   1.510   4.362
49679SOL     OW50869   1.707  10.944  11.459
49679SOL    HW150870   1.781  10.939  11.519
49679SOL    HW250871   1.739  10.903  11.378
49680SOL     OW50872   8.849   6.164   6.123
49680SOL    HW150873   8.800   6.235   6.165
49680SOL    HW250874   8.781   6.105   6.089
49681SOL     OW50875   7.150  12.657  10.544
49681SOL    HW150876   7.082  12.591  10.559
49681SOL    HW250877   7.223  12.608  10.507
49682SOL     OW50878   4.970   9.124   5.712
49682SOL    HW150879   4.969   9.100   5.804
49682SOL    HW250880   4.878   9.125   5.686
49683SOL     OW50881  13.146   7.340   5.923
49683SOL    HW150882  13.202   7.364   5.997
49683SOL    HW250883  13.059   7.373   5.948
49684SOL     OW50884   6.729   4.969   5.083
49684SOL    HW150885   6.820   4.960   5.053
49684SOL    HW250886   6.687   4.888   5.055
49685SOL     OW50887   1.467   4.446   0.901
49685SOL    HW150888   1.497   4.516   0.844
49685SOL    HW250889   1.517   4.457   0.982
49686SOL     OW50890   4.755   7.131  14.877
49686SOL    HW150891   4.742   7.184  14.799
49686SOL    HW250892   4.720   7.045  14.853
49687SOL     OW50893   2.686  10.489   1.740
49687SOL    HW150894   2.668  10.397   1.721
49687SOL    HW250895   2.633  10.537   1.676
49688SOL     OW50896   6.657   3.013   6.225
49688SOL    HW150897   6.599   3.031   6.298
49688SOL    HW250898   6.745   3.024   6.261
49689SOL     OW50899  13.859   3.007   1.132
49689SOL    HW150900  13.818   2.949   1.068
49689SOL    HW250901  13.816   2.986   1.215
49690SOL     OW50902  10.299   9.508  11.867
49690SOL    HW150903  10.371   9.444  11.867
49690SOL    HW250904  10.223   9.457  11.893
49691SOL     OW50905  14.152   0.172  12.265
49691SOL    HW150906  14.156   0.204  12.175
49691SOL    HW250907  14.139   0.077  12.256
49692SOL     OW50908   6.653   6.749   8.654
49692SOL    HW150909   6.655   6.812   8.726
49692SOL    HW250910   6.702   6.792   8.583
49693SOL     OW50911   8.129   5.690   3.136
49693SOL    HW150912   8.136   5.773   3.089
49693SOL    HW250913   8.107   5.715   3.226
49694SOL     OW50914   7.927   6.751   6.367
49694SOL    HW150915   7.865   6.808   6.414
49694SOL    HW250916   7.886   6.736   6.282
49695SOL     OW50917   0.414  13.937   4.021
49695SOL    HW150918   0.420  13.872   4.091
49695SOL    HW250919   0.498  13.982   4.022
49696SOL     OW50920  13.505   9.347  11.202
49696SOL    HW150921  13.547   9.352  11.289
49696SOL    HW250922  13.559   9.285  11.153
49697SOL     OW50923   7.462   1.624   5.253
49697SOL    HW150924   7.517   1.546   5.252
49697SOL    HW250925   7.388   1.602   5.196
49698SOL     OW50926   3.853   4.343   7.896
49698SOL    HW150927   3.834   4.340   7.802
49698SOL    HW250928   3.803   4.417   7.929
49699SOL     OW50929   0.865   8.239   2.792
49699SOL    HW150930   0.862   8.310   2.856
49699SOL    HW250931   0.885   8.161   2.843
49700SOL     OW50932   8.403   0.436   5.950
49700SOL    HW150933   8.498   0.451   5.946
49700SOL    HW250934   8.386   0.376   5.877
49701SOL     OW50935   1.982  13.652  13.827
49701SOL    HW150936   1.907  13.610  13.785
49701SOL    HW250937   2.057  13.630  13.771
49702SOL     OW50938  13.103   7.571  14.099
49702SOL    HW150939  13.066   7.494  14.143
49702SOL    HW250940  13.193   7.576  14.131
49703SOL     OW50941   6.740  11.960  12.178
49703SOL    HW150942   6.744  12.028  12.246
49703SOL    HW250943   6.797  11.992  12.109
49704SOL     OW50944   1.158  13.888  13.732
49704SOL    HW150945   1.222  13.895  13.803
49704SOL    HW250946   1.124  13.799  13.739
49705SOL     OW50947  14.740  12.865   3.746
49705SOL    HW150948  14.675  12.809   3.703
49705SOL    HW250949  14.794  12.804   3.796
49706SOL     OW50950   0.063  12.722   1.033
49706SOL    HW150951   0.104  12.671   0.964
49706SOL    HW250952   0.056  12.811   0.996
49707SOL     OW50953   4.748   4.389   1.951
49707SOL    HW150954   4.710   4.301   1.965
49707SOL    HW250955   4.840   4.379   1.976
49708SOL     OW50956  13.408  10.204   0.296
49708SOL    HW150957  13.413  10.117   0.334
49708SOL    HW250958  13.402  10.188   0.202
49709SOL     OW50959  14.725   1.655  11.051
49709SOL    HW150960  14.692   1.743  11.073
49709SOL    HW250961  14.701   1.602  11.127
49710SOL     OW50962  14.355   5.766   8.500
49710SOL    HW150963  14.348   5.690   8.443
49710SOL    HW250964  14.378   5.730   8.586
49711SOL     OW50965  14.826   6.413   3.763
49711SOL    HW150966   0.011   6.369   3.820
49711SOL    HW250967  14.807   6.495   3.808
49712SOL     OW50968  13.690   9.107  13.256
49712SOL    HW150969  13.730   9.184  13.295
49712SOL    HW250970  13.651   9.139  13.174
49713SOL     OW50971  11.189   9.624   7.167
49713SOL    HW150972  11.119   9.575   7.211
49713SOL    HW250973  11.143   9.690   7.115
49714SOL     OW50974   3.805  14.650   7.678
49714SOL    HW150975   3.787  14.743   7.674
49714SOL    HW250976   3.721  14.609   7.698
49715SOL     OW50977   0.733  14.183   7.331
49715SOL    HW150978   0.799  14.215   7.269
49715SOL    HW250979   0.664  14.249   7.329
49716SOL     OW50980  14.737   1.484   2.078
49716SOL    HW150981  14.813   1.533   2.111
49716SOL    HW250982  14.721   1.417   2.145
49717SOL     OW50983  13.891  14.395   0.222
49717SOL    HW150984  13.926  14.341   0.293
49717SOL    HW250985  13.969  14.430   0.178
49718SOL     OW50986   0.177   1.703  13.552
49718SOL    HW150987   0.195   1.663  13.467
49718SOL    HW250988   0.131   1.784  13.530
49719SOL     OW50989   4.996   9.413   2.817
49719SOL    HW150990   5.079   9.369   2.796
49719SOL    HW250991   5.019   9.505   2.828
49720SOL     OW50992   8.772   9.541  11.775
49720SOL    HW150993   8.743   9.632  11.763
49720SOL    HW250994   8.731   9.513  11.857
49721SOL     OW50995  13.317  11.580   1.937
49721SOL    HW150996  13.359  11.603   1.855
49721SOL    HW250997  13.227  11.610   1.928
49722SOL     OW50998   1.326   1.583   9.752
49722SOL    HW150999   1.367   1.536   9.825
49722SOL    HW251000   1.237   1.548   9.748
49723SOL     OW51001  11.690   0.489  10.434
49723SOL    HW151002  11.661   0.493  10.525
49723SOL    HW251003  11.729   0.575  10.417
49724SOL     OW51004   9.839   2.997   4.631
49724SOL    HW151005   9.911   2.963   4.684
49724SOL    HW251006   9.871   2.991   4.541
49725SOL     OW51007   4.013   3.641   8.170
49725SOL    HW151008   4.093   3.668   8.124
49725SOL    HW251009   3.994   3.553   8.137
49726SOL     OW51010  12.811  12.207  10.320
49726SOL    HW151011  12.750  12.270  10.282
49726SOL    HW251012  12.797  12.126  10.270
49727SOL     OW51013   6.487  10.226   3.837
49727SOL    HW151014   6.483  10.256   3.928
49727SOL    HW251015   6.561  10.273   3.800
49728SOL     OW51016  12.539   1.883   0.704
49728SOL    HW151017  12.447   1.865   0.686
49728SOL    HW251018  12.541   1.974   0.732
49729SOL     OW51019  13.187   9.303   1.830
49729SOL    HW151020  13.268   9.254   1.845
49729SOL    HW251021  13.131   9.242   1.783
49730SOL     OW51022   2.253   3.034   7.443
49730SOL    HW151023   2.192   3.004   7.510
49730SOL    HW251024   2.225   2.990   7.363
49731SOL     OW51025  13.264   5.135   3.713
49731SOL    HW151026  13.338   5.135   3.774
49731SOL    HW251027  13.188   5.153   3.767
49732SOL     OW51028   1.902   8.209  12.799
49732SOL    HW151029   1.906   8.189  12.705
49732SOL    HW251030   1.989   8.184  12.832
49733SOL     OW51031   3.763   1.353  12.520
49733SOL    HW151032   3.788   1.270  12.478
49733SOL    HW251033   3.799   1.420  12.462
49734SOL     OW51034   6.093  12.820  10.869
49734SOL    HW151035   6.105  12.727  10.850
49734SOL    HW251036   6.050  12.855  10.791
49735SOL     OW51037   0.240  14.787   3.284
49735SOL    HW151038   0.221  14.773   3.377
49735SOL    HW251039   0.179  14.857   3.258
49736SOL     OW51040   0.802   9.276   7.235
49736SOL    HW151041   0.721   9.307   7.194
49736SOL    HW251042   0.794   9.304   7.326
49737SOL     OW51043   6.173   7.504  11.155
49737SOL    HW151044   6.139   7.525  11.068
49737SOL    HW251045   6.174   7.588  11.201
49738SOL     OW51046   3.253   2.881  14.155
49738SOL    HW151047   3.250   2.957  14.097
49738SOL    HW251048   3.163   2.871  14.186
49739SOL     OW51049  12.233   7.200  12.137
49739SOL    HW151050  12.316   7.154  12.130
49739SOL    HW251051  12.246   7.281  12.088
49740SOL     OW51052   4.364  13.843   6.022
49740SOL    HW151053   4.415  13.775   5.979
49740SOL    HW251054   4.315  13.885   5.951
49741SOL     OW51055  12.535  11.209  14.080
49741SOL    HW151056  12.532  11.159  14.162
49741SOL    HW251057  12.481  11.158  14.019
49742SOL     OW51058  10.278   2.259  12.066
49742SOL    HW151059  10.320   2.263  11.980
49742SOL    HW251060  10.323   2.327  12.117
49743SOL     OW51061   7.107   2.718   4.627
49743SOL    HW151062   7.158   2.781   4.677
49743SOL    HW251063   7.143   2.633   4.652
49744SOL     OW51064  11.673  10.735   8.756
49744SOL    HW151065  11.597  10.756   8.702
49744SOL    HW251066  11.725  10.675   8.702
49745SOL     OW51067   4.760   7.171  12.986
49745SOL    HW151068   4.688   7.227  12.957
49745SOL    HW251069   4.832   7.192  12.926
49746SOL     OW51070   4.898   4.440   0.874
49746SOL    HW151071   4.817   4.403   0.839
49746SOL    HW251072   4.916   4.388   0.952
49747SOL     OW51073   0.481   8.069   8.177
49747SOL    HW151074   0.412   8.033   8.120
49747SOL    HW251075   0.488   8.161   8.149
49748SOL     OW51076  13.701   4.568   5.853
49748SOL    HW151077  13.747   4.652   5.859
49748SOL    HW251078  13.756   4.507   5.902
49749SOL     OW51079  14.071   2.792  12.258
49749SOL    HW151080  14.103   2.710  12.221
49749SOL    HW251081  14.099   2.790  12.349
49750SOL     OW51082  13.910  12.425   3.238
49750SOL    HW151083  13.875  12.354   3.185
49750SOL    HW251084  14.004  12.406   3.244
49751SOL     OW51085  13.693   8.637   4.103
49751SOL    HW151086  13.750   8.564   4.128
49751SOL    HW251087  13.713   8.706   4.166
49752SOL     OW51088  10.461   0.914   0.259
49752SOL    HW151089  10.408   0.990   0.235
49752SOL    HW251090  10.437   0.896   0.350
49753SOL     OW51091   2.274   9.582   2.835
49753SOL    HW151092   2.336   9.514   2.809
49753SOL    HW251093   2.310   9.617   2.916
49754SOL     OW51094   2.762   6.554  14.609
49754SOL    HW151095   2.823   6.627  14.617
49754SOL    HW251096   2.682   6.584  14.652
49755SOL     OW51097   7.275   0.574   9.264
49755SOL    HW151098   7.225   0.536   9.336
49755SOL    HW251099   7.364   0.583   9.298
49756SOL     OW51100  10.774  13.816   6.707
49756SOL    HW151101  10.726  13.798   6.788
49756SOL    HW251102  10.706  13.824   6.640
49757SOL     OW51103   9.474   9.193   5.467
49757SOL    HW151104   9.544   9.230   5.521
49757SOL    HW251105   9.514   9.180   5.381
49758SOL     OW51106  10.497   3.851   0.726
49758SOL    HW151107  10.570   3.817   0.674
49758SOL    HW251108  10.423   3.795   0.704
49759SOL     OW51109   8.110   0.139   5.595
49759SOL    HW151110   8.047   0.106   5.531
49759SOL    HW251111   8.060   0.199   5.650
49760SOL     OW51112  10.253   3.406   8.825
49760SOL    HW151113  10.214   3.365   8.748
49760SOL    HW251114  10.345   3.381   8.821
49761SOL     OW51115   9.866   5.807   1.444
49761SOL    HW151116   9.824   5.722   1.432
49761SOL    HW251117   9.953   5.797   1.405
49762SOL     OW51118   1.577   8.849   5.928
49762SOL    HW151119   1.537   8.765   5.907
49762SOL    HW251120   1.506   8.901   5.965
49763SOL     OW51121   6.220   2.614   4.922
49763SOL    HW151122   6.140   2.566   4.899
49763SOL    HW251123   6.291   2.554   4.902
49764SOL     OW51124   3.802   4.446  13.972
49764SOL    HW151125   3.859   4.370  13.963
49764SOL    HW251126   3.849   4.505  14.031
49765SOL     OW51127   7.343   5.537   8.152
49765SOL    HW151128   7.330   5.449   8.119
49765SOL    HW251129   7.345   5.593   8.074
49766SOL     OW51130   8.198  12.306  13.088
49766SOL    HW151131   8.151  12.386  13.066
49766SOL    HW251132   8.134  12.253  13.135
49767SOL     OW51133   5.104   9.139  11.803
49767SOL    HW151134   5.011   9.119  11.789
49767SOL    HW251135   5.111   9.233  11.784
49768SOL     OW51136   8.698   2.034   1.367
49768SOL    HW151137   8.657   2.115   1.336
49768SOL    HW251138   8.641   1.964   1.336
49769SOL     OW51139  12.165   9.608   0.934
49769SOL    HW151140  12.220   9.686   0.929
49769SOL    HW251141  12.186   9.558   0.855
49770SOL     OW51142   7.193   7.356  14.780
49770SOL    HW151143   7.124   7.409  14.821
49770SOL    HW251144   7.146   7.280  14.743
49771SOL     OW51145   2.657   9.035   5.350
49771SOL    HW151146   2.631   9.120   5.314
49771SOL    HW251147   2.590   8.974   5.318
49772SOL     OW51148   9.140   3.941  10.731
49772SOL    HW151149   9.064   3.900  10.691
49772SOL    HW251150   9.107   3.981  10.811
49773SOL     OW51151   6.105   0.100   4.455
49773SOL    HW151152   6.190   0.060   4.473
49773SOL    HW251153   6.044   0.053   4.511
49774SOL     OW51154  14.211   4.223  10.765
49774SOL    HW151155  14.210   4.319  10.760
49774SOL    HW251156  14.214   4.204  10.859
49775SOL     OW51157   7.336   2.139   9.359
49775SOL    HW151158   7.401   2.111   9.295
49775SOL    HW251159   7.260   2.165   9.307
49776SOL     OW51160   6.926   5.506   4.443
49776SOL    HW151161   6.848   5.455   4.423
49776SOL    HW251162   6.952   5.544   4.359
49777SOL     OW51163   7.817   6.394   9.848
49777SOL    HW151164   7.829   6.489   9.854
49777SOL    HW251165   7.736   6.383   9.799
49778SOL     OW51166   0.975  14.666  11.430
49778SOL    HW151167   1.008  14.706  11.349
49778SOL    HW251168   0.886  14.701  11.439
49779SOL     OW51169   3.438   2.338   2.839
49779SOL    HW151170   3.484   2.306   2.762
49779SOL    HW251171   3.346   2.341   2.813
49780SOL     OW51172   4.950   9.545   9.131
49780SOL    HW151173   4.856   9.527   9.133
49780SOL    HW251174   4.989   9.460   9.108
49781SOL     OW51175   2.858  13.494  11.665
49781SOL    HW151176   2.858  13.439  11.587
49781SOL    HW251177   2.849  13.583  11.631
49782SOL     OW51178  13.726   8.958   8.602
49782SOL    HW151179  13.682   8.895   8.544
49782SOL    HW251180  13.661   8.980   8.668
49783SOL     OW51181   8.893   4.524   4.116
49783SOL    HW151182   8.977   4.484   4.138
49783SOL    HW251183   8.886   4.599   4.175
49784SOL     OW51184   7.726   4.045  11.822
49784SOL    HW151185   7.750   4.100  11.747
49784SOL    HW251186   7.800   4.052  11.881
49785SOL     OW51187   1.192   7.094   7.247
49785SOL    HW151188   1.255   7.121   7.180
49785SOL    HW251189   1.241   7.035   7.304
49786SOL     OW51190   3.757   9.609   0.216
49786SOL    HW151191   3.841   9.651   0.238
49786SOL    HW251192   3.711   9.675   0.165
49787SOL     OW51193   9.908   5.201   0.282
49787SOL    HW151194   9.825   5.153   0.282
49787SOL    HW251195   9.924   5.223   0.190
49788SOL     OW51196  12.272   9.043   7.085
49788SOL    HW151197  12.300   8.978   7.021
49788SOL    HW251198  12.211   9.099   7.037
49789SOL     OW51199   1.782   6.881   8.208
49789SOL    HW151200   1.851   6.820   8.232
49789SOL    HW251201   1.765   6.862   8.115
49790SOL     OW51202   1.641  12.082   9.920
49790SOL    HW151203   1.643  12.022   9.994
49790SOL    HW251204   1.600  12.161   9.954
49791SOL     OW51205   5.238  10.653  11.867
49791SOL    HW151206   5.273  10.714  11.801
49791SOL    HW251207   5.174  10.705  11.916
49792SOL     OW51208  14.420   6.576  10.126
49792SOL    HW151209  14.463   6.639  10.068
49792SOL    HW251210  14.409   6.623  10.208
49793SOL     OW51211   0.913   7.263   3.284
49793SOL    HW151212   0.909   7.176   3.324
49793SOL    HW251213   0.838   7.310   3.321
49794SOL     OW51214   0.533   5.739   7.278
49794SOL    HW151215   0.602   5.684   7.242
49794SOL    HW251216   0.453   5.707   7.237
49795SOL     OW51217   4.441   8.267   7.047
49795SOL    HW151218   4.422   8.178   7.078
49795SOL    HW251219   4.476   8.312   7.124
49796SOL     OW51220   1.895   5.639   1.380
49796SOL    HW151221   1.869   5.552   1.349
49796SOL    HW251222   1.913   5.688   1.300
49797SOL     OW51223   0.930  14.707   2.065
49797SOL    HW151224   0.844  14.717   2.023
49797SOL    HW251225   0.966  14.796   2.065
49798SOL     OW51226   3.693   2.477   2.924
49798SOL    HW151227   3.612   2.497   2.877
49798SOL    HW251228   3.681   2.516   3.010
49799SOL     OW51229   5.427   2.910   7.958
49799SOL    HW151230   5.472   2.983   7.999
49799SOL    HW251231   5.495   2.842   7.949
49800SOL     OW51232   8.746   0.572   4.453
49800SOL    HW151233   8.711   0.591   4.540
49800SOL    HW251234   8.797   0.650   4.430
49801SOL     OW51235  11.407   0.885   7.482
49801SOL    HW151236  11.385   0.876   7.389
49801SOL    HW251237  11.369   0.808   7.523
49802SOL     OW51238   0.153  13.034  11.925
49802SOL    HW151239   0.110  13.115  11.898
49802SOL    HW251240   0.180  13.050  12.015
49803SOL     OW51241  12.448   8.128  14.540
49803SOL    HW151242  12.401   8.077  14.475
49803SOL    HW251243  12.430   8.084  14.623
49804SOL     OW51244   0.030   8.544   4.623
49804SOL    HW151245  14.851   8.479   4.663
49804SOL    HW251246   0.040   8.514   4.533
49805SOL     OW51247  10.708   9.151  10.904
49805SOL    HW151248  10.797   9.133  10.932
49805SOL    HW251249  10.679   9.224  10.959
49806SOL     OW51250   9.630   0.986   7.272
49806SOL    HW151251   9.624   0.937   7.190
49806SOL    HW251252   9.724   0.989   7.290
49807SOL     OW51253   9.339   8.646  13.794
49807SOL    HW151254   9.393   8.569  13.806
49807SOL    HW251255   9.393   8.706  13.743
49808SOL     OW51256  11.425   1.155   7.262
49808SOL    HW151257  11.359   1.157   7.193
49808SOL    HW251258  11.375   1.156   7.343
49809SOL     OW51259   6.804   5.800   4.324
49809SOL    HW151260   6.781   5.736   4.256
49809SOL    HW251261   6.751   5.877   4.302
49810SOL     OW51262   5.834  14.461  12.807
49810SOL    HW151263   5.755  14.477  12.859
49810SOL    HW251264   5.806  14.398  12.741
49811SOL     OW51265   1.789   4.820   7.985
49811SOL    HW151266   1.708   4.776   8.011
49811SOL    HW251267   1.856   4.751   7.988
49812SOL     OW51268   1.283   5.060   3.074
49812SOL    HW151269   1.249   4.983   3.118
49812SOL    HW251270   1.378   5.053   3.081
49813SOL     OW51271   2.398   3.506   4.654
49813SOL    HW151272   2.435   3.588   4.685
49813SOL    HW251273   2.363   3.527   4.567
49814SOL     OW51274  14.842   5.929   0.189
49814SOL    HW151275  14.749   5.915   0.205
49814SOL    HW251276  14.877   5.961   0.273
49815SOL     OW51277   8.553  14.878   9.668
49815SOL    HW151278   8.467   0.036   9.646
49815SOL    HW251279   8.550  14.865   9.763
49816SOL     OW51280   1.505   5.814   6.292
49816SOL    HW151281   1.482   5.769   6.210
49816SOL    HW251282   1.589   5.857   6.272
49817SOL     OW51283   2.604  13.058  13.202
49817SOL    HW151284   2.654  13.066  13.283
49817SOL    HW251285   2.513  13.072  13.228
49818SOL     OW51286   4.352  14.403   4.030
49818SOL    HW151287   4.275  14.425   3.977
49818SOL    HW251288   4.407  14.482   4.027
49819SOL     OW51289  14.388   7.452   2.661
49819SOL    HW151290  14.449   7.380   2.645
49819SOL    HW251291  14.353   7.435   2.749
49820SOL     OW51292   1.571   5.402  13.042
49820SOL    HW151293   1.609   5.458  12.975
49820SOL    HW251294   1.598   5.441  13.125
49821SOL     OW51295   8.671   7.464   4.289
49821SOL    HW151296   8.675   7.550   4.331
49821SOL    HW251297   8.763   7.443   4.269
49822SOL     OW51298   1.819   1.549   7.725
49822SOL    HW151299   1.748   1.516   7.670
49822SOL    HW251300   1.826   1.486   7.796
49823SOL     OW51301  10.462  10.749  13.692
49823SOL    HW151302  10.378  10.766  13.649
49823SOL    HW251303  10.445  10.675  13.750
49824SOL     OW51304  11.464  12.556   0.616
49824SOL    HW151305  11.468  12.597   0.529
49824SOL    HW251306  11.375  12.573   0.646
49825SOL     OW51307   8.299  10.566   1.577
49825SOL    HW151308   8.253  10.586   1.658
49825SOL    HW251309   8.386  10.604   1.587
49826SOL     OW51310   9.989   0.431   7.290
49826SOL    HW151311   9.951   0.343   7.296
49826SOL    HW251312   9.960   0.474   7.371
49827SOL     OW51313   6.380   1.469  11.307
49827SOL    HW151314   6.446   1.538  11.310
49827SOL    HW251315   6.298   1.514  11.290
49828SOL     OW51316   2.607   1.474  10.970
49828SOL    HW151317   2.679   1.453  10.910
49828SOL    HW251318   2.568   1.554  10.935
49829SOL     OW51319   8.829   8.236   2.387
49829SOL    HW151320   8.857   8.261   2.475
49829SOL    HW251321   8.904   8.189   2.351
49830SOL     OW51322   5.317  10.442  14.851
49830SOL    HW151323   5.299  10.431   0.065
49830SOL    HW251324   5.287  10.360  14.811
49831SOL     OW51325   1.549   9.824   6.898
49831SOL    HW151326   1.463   9.867   6.898
49831SOL    HW251327   1.529   9.731   6.884
49832SOL     OW51328   2.404  10.469   6.809
49832SOL    HW151329   2.448  10.497   6.729
49832SOL    HW251330   2.383  10.551   6.854
49833SOL     OW51331  10.238  14.586  10.097
49833SOL    HW151332  10.254  14.601  10.191
49833SOL    HW251333  10.301  14.518  10.073
49834SOL     OW51334   2.573  13.894  12.995
49834SOL    HW151335   2.554  13.860  13.082
49834SOL    HW251336   2.584  13.816  12.941
49835SOL     OW51337  10.082   7.791  12.764
49835SOL    HW151338  10.067   7.784  12.670
49835SOL    HW251339  10.177   7.780  12.774
49836SOL     OW51340  13.799  13.658   2.551
49836SOL    HW151341  13.714  13.668   2.508
49836SOL    HW251342  13.784  13.592   2.619
49837SOL     OW51343   8.335  12.953   4.958
49837SOL    HW151344   8.252  12.984   4.995
49837SOL    HW251345   8.324  12.858   4.953
49838SOL     OW51346   6.855  11.259   4.649
49838SOL    HW151347   6.921  11.316   4.611
49838SOL    HW251348   6.873  11.259   4.743
49839SOL     OW51349   7.886  14.572   4.138
49839SOL    HW151350   7.853  14.499   4.191
49839SOL    HW251351   7.856  14.651   4.184
49840SOL     OW51352  13.612   4.169  14.253
49840SOL    HW151353  13.705   4.188  14.240
49840SOL    HW251354  13.605   4.075  14.242
49841SOL     OW51355  12.458   5.581  11.764
49841SOL    HW151356  12.407   5.514  11.808
49841SOL    HW251357  12.538   5.537  11.737
49842SOL     OW51358   3.285  10.073   7.919
49842SOL    HW151359   3.231  10.061   7.998
49842SOL    HW251360   3.252  10.154   7.880
49843SOL     OW51361   6.693   7.326  10.220
49843SOL    HW151362   6.719   7.317  10.128
49843SOL    HW251363   6.657   7.241  10.243
49844SOL     OW51364  11.021  13.894  14.675
49844SOL    HW151365  11.019  13.972  14.731
49844SOL    HW251366  11.103  13.850  14.698
49845SOL     OW51367   7.039  14.653   7.204
49845SOL    HW151368   7.068  14.591   7.271
49845SOL    HW251369   7.036  14.601   7.123
49846SOL     OW51370  13.936  12.124   0.772
49846SOL    HW151371  13.891  12.049   0.733
49846SOL    HW251372  13.914  12.119   0.865
49847SOL     OW51373  13.657   0.732   9.798
49847SOL    HW151374  13.601   0.801   9.835
49847SOL    HW251375  13.632   0.728   9.706
49848SOL     OW51376   5.811  13.829   0.757
49848SOL    HW151377   5.761  13.893   0.706
49848SOL    HW251378   5.783  13.843   0.847
49849SOL     OW51379   5.541  11.106   4.074
49849SOL    HW151380   5.590  11.175   4.120
49849SOL    HW251381   5.561  11.026   4.124
49850SOL     OW51382   6.166   0.886   8.394
49850SOL    HW151383   6.162   0.814   8.457
49850SOL    HW251384   6.088   0.939   8.413
49851SOL     OW51385   8.438   8.951  11.376
49851SOL    HW151386   8.459   9.026  11.320
49851SOL    HW251387   8.435   8.988  11.464
49852SOL     OW51388  13.724  10.459   8.054
49852SOL    HW151389  13.758  10.491   7.971
49852SOL    HW251390  13.629  10.464   8.045
49853SOL     OW51391  11.393  11.134   4.176
49853SOL    HW151392  11.342  11.174   4.105
49853SOL    HW251393  11.364  11.179   4.255
49854SOL     OW51394   3.201   7.348  12.879
49854SOL    HW151395   3.292   7.345  12.908
49854SOL    HW251396   3.169   7.433  12.907
49855SOL     OW51397   0.778  12.076   6.764
49855SOL    HW151398   0.846  12.029   6.716
49855SOL    HW251399   0.710  12.010   6.781
49856SOL     OW51400   7.253   8.073  12.264
49856SOL    HW151401   7.273   8.048  12.354
49856SOL    HW251402   7.320   8.030  12.211
49857SOL     OW51403   7.022   3.471   8.737
49857SOL    HW151404   6.952   3.476   8.801
49857SOL    HW251405   7.056   3.382   8.744
49858SOL     OW51406  13.955   0.331  11.860
49858SOL    HW151407  13.977   0.415  11.821
49858SOL    HW251408  13.879   0.349  11.916
49859SOL     OW51409  13.504   6.430  11.599
49859SOL    HW151410  13.566   6.491  11.640
49859SOL    HW251411  13.516   6.443  11.505
49860SOL     OW51412   4.324  12.230   5.560
49860SOL    HW151413   4.252  12.253   5.618
49860SOL    HW251414   4.321  12.135   5.554
49861SOL     OW51415   2.455   0.100   8.720
49861SOL    HW151416   2.460   0.019   8.670
49861SOL    HW251417   2.438   0.071   8.810
49862SOL     OW51418  14.859   4.835  11.187
49862SOL    HW151419   0.008   4.744  11.193
49862SOL    HW251420  14.784   4.841  11.246
49863SOL     OW51421  12.949   6.786   5.879
49863SOL    HW151422  12.922   6.704   5.920
49863SOL    HW251423  12.923   6.854   5.942
49864SOL     OW51424  14.346   6.530   8.398
49864SOL    HW151425  14.372   6.568   8.314
49864SOL    HW251426  14.427   6.496   8.435
49865SOL     OW51427  10.510  14.122  13.917
49865SOL    HW151428  10.577  14.177  13.877
49865SOL    HW251429  10.434  14.180  13.927
49866SOL     OW51430   5.104  12.328   1.644
49866SOL    HW151431   5.167  12.398   1.624
49866SOL    HW251432   5.159  12.254   1.671
49867SOL     OW51433   5.360   4.811   5.697
49867SOL    HW151434   5.266   4.824   5.692
49867SOL    HW251435   5.394   4.890   5.739
49868SOL     OW51436   9.973  14.554  10.072
49868SOL    HW151437  10.068  14.545  10.066
49868SOL    HW251438   9.959  14.625  10.134
49869SOL     OW51439  12.615  10.315   2.092
49869SOL    HW151440  12.560  10.277   2.160
49869SOL    HW251441  12.557  10.374   2.044
49870SOL     OW51442   3.508   8.640  10.501
49870SOL    HW151443   3.596   8.626  10.538
49870SOL    HW251444   3.466   8.699  10.564
49871SOL     OW51445   3.235   6.384   1.646
49871SOL    HW151446   3.190   6.330   1.580
49871SOL    HW251447   3.263   6.321   1.713
49872SOL     OW51448   5.825   8.628  10.243
49872SOL    HW151449   5.742   8.663  10.209
49872SOL    HW251450   5.862   8.699  10.295
49873SOL     OW51451  13.015   9.650   7.697
49873SOL    HW151452  12.930   9.624   7.734
49873SOL    HW251453  13.037   9.579   7.636
49874SOL     OW51454   9.243   7.610  11.619
49874SOL    HW151455   9.306   7.549  11.579
49874SOL    HW251456   9.198   7.649  11.544
49875SOL     OW51457   3.928   0.671  12.769
49875SOL    HW151458   4.001   0.709  12.720
49875SOL    HW251459   3.854   0.727  12.750
49876SOL     OW51460   9.168   5.394   4.651
49876SOL    HW151461   9.250   5.429   4.688
49876SOL    HW251462   9.100   5.425   4.711
49877SOL     OW51463  14.117   1.551   4.034
49877SOL    HW151464  14.106   1.491   4.108
49877SOL    HW251465  14.211   1.568   4.031
49878SOL     OW51466   8.983   4.158  14.562
49878SOL    HW151467   8.927   4.215  14.509
49878SOL    HW251468   8.999   4.207  14.642
49879SOL     OW51469  10.697   3.560   4.160
49879SOL    HW151470  10.699   3.588   4.251
49879SOL    HW251471  10.653   3.632   4.114
49880SOL     OW51472   1.491  12.875   2.920
49880SOL    HW151473   1.446  12.841   2.997
49880SOL    HW251474   1.423  12.878   2.852
49881SOL     OW51475   2.146   3.612   4.129
49881SOL    HW151476   2.126   3.535   4.076
49881SOL    HW251477   2.173   3.679   4.066
49882SOL     OW51478   8.351   8.425   0.076
49882SOL    HW151479   8.290   8.405   0.147
49882SOL    HW251480   8.334   8.358   0.010
49883SOL     OW51481   2.139   6.281  13.118
49883SOL    HW151482   2.118   6.369  13.086
49883SOL    HW251483   2.088   6.222  13.062
49884SOL     OW51484   8.307   3.372  10.147
49884SOL    HW151485   8.296   3.399  10.238
49884SOL    HW251486   8.343   3.450  10.103
49885SOL     OW51487   2.356   6.121   9.425
49885SOL    HW151488   2.380   6.187   9.359
49885SOL    HW251489   2.291   6.164   9.480
49886SOL     OW51490   2.709   0.758  12.619
49886SOL    HW151491   2.762   0.808  12.557
49886SOL    HW251492   2.648   0.708  12.565
49887SOL     OW51493  13.972   0.536  13.431
49887SOL    HW151494  13.933   0.501  13.351
49887SOL    HW251495  13.946   0.628  13.432
49888SOL     OW51496   8.993   9.188   7.101
49888SOL    HW151497   8.983   9.122   7.169
49888SOL    HW251498   8.911   9.237   7.103
49889SOL     OW51499   6.398   4.490   0.745
49889SOL    HW151500   6.421   4.568   0.694
49889SOL    HW251501   6.378   4.423   0.680
49890SOL     OW51502   3.464   0.870   6.534
49890SOL    HW151503   3.429   0.919   6.609
49890SOL    HW251504   3.529   0.928   6.495
49891SOL     OW51505  10.775   0.924   2.487
49891SOL    HW151506  10.834   0.988   2.450
49891SOL    HW251507  10.778   0.939   2.582
49892SOL     OW51508  13.442  13.130  13.031
49892SOL    HW151509  13.471  13.040  13.018
49892SOL    HW251510  13.398  13.153  12.949
49893SOL     OW51511   1.900   2.547  13.291
49893SOL    HW151512   1.869   2.536  13.201
49893SOL    HW251513   1.882   2.463  13.333
49894SOL     OW51514   7.672  12.894  11.624
49894SOL    HW151515   7.695  12.861  11.537
49894SOL    HW251516   7.751  12.941  11.653
49895SOL     OW51517  14.583  13.523   2.812
49895SOL    HW151518  14.612  13.606   2.848
49895SOL    HW251519  14.491  13.536   2.792
49896SOL     OW51520   2.075   1.275  11.112
49896SOL    HW151521   2.039   1.279  11.201
49896SOL    HW251522   2.145   1.342  11.112
49897SOL     OW51523   6.667   3.240   4.159
49897SOL    HW151524   6.632   3.153   4.176
49897SOL    HW251525   6.592   3.299   4.167
49898SOL     OW51526  14.846   2.325   2.635
49898SOL    HW151527  14.757   2.302   2.661
49898SOL    HW251528  14.846   2.421   2.632
49899SOL     OW51529   4.189   5.321  12.073
49899SOL    HW151530   4.173   5.320  11.978
49899SOL    HW251531   4.281   5.296  12.081
49900SOL     OW51532   1.328   2.752   4.683
49900SOL    HW151533   1.412   2.798   4.681
49900SOL    HW251534   1.295   2.768   4.772
49901SOL     OW51535   8.624   1.535   7.618
49901SOL    HW151536   8.569   1.601   7.576
49901SOL    HW251537   8.662   1.485   7.546
49902SOL     OW51538   3.612  13.117  14.642
49902SOL    HW151539   3.652  13.106  14.556
49902SOL    HW251540   3.520  13.093  14.629
49903SOL     OW51541  10.700  13.975  12.496
49903SOL    HW151542  10.762  13.932  12.555
49903SOL    HW251543  10.684  13.911  12.426
49904SOL     OW51544  13.378  14.230  10.309
49904SOL    HW151545  13.427  14.190  10.381
49904SOL    HW251546  13.287  14.217  10.333
49905SOL     OW51547   2.752  12.465  13.477
49905SOL    HW151548   2.667  12.502  13.455
49905SOL    HW251549   2.732  12.390  13.533
49906SOL     OW51550   0.263   7.560   2.702
49906SOL    HW151551   0.198   7.630   2.696
49906SOL    HW251552   0.308   7.576   2.785
49907SOL     OW51553   0.949  13.814  12.659
49907SOL    HW151554   0.994  13.898  12.653
49907SOL    HW251555   0.964  13.786  12.750
49908SOL     OW51556   6.721   5.542   6.510
49908SOL    HW151557   6.808   5.576   6.491
49908SOL    HW251558   6.713   5.464   6.455
49909SOL     OW51559   3.752  14.628   0.732
49909SOL    HW151560   3.691  14.694   0.763
49909SOL    HW251561   3.808  14.610   0.807
49910SOL     OW51562   5.234  10.306   6.171
49910SOL    HW151563   5.148  10.295   6.130
49910SOL    HW251564   5.251  10.222   6.213
49911SOL     OW51565   5.298   7.379   2.055
49911SOL    HW151566   5.326   7.467   2.029
49911SOL    HW251567   5.338   7.366   2.141
49912SOL     OW51568   3.961  12.243  13.355
49912SOL    HW151569   3.920  12.257  13.441
49912SOL    HW251570   3.892  12.201  13.303
49913SOL     OW51571   7.441   5.224  12.093
49913SOL    HW151572   7.516   5.238  12.150
49913SOL    HW251573   7.440   5.300  12.035
49914SOL     OW51574   1.109  13.051   5.271
49914SOL    HW151575   1.030  13.004   5.298
49914SOL    HW251576   1.099  13.064   5.177
49915SOL     OW51577   2.424   8.242   4.056
49915SOL    HW151578   2.462   8.227   3.970
49915SOL    HW251579   2.490   8.292   4.104
49916SOL     OW51580  11.126   1.338   9.910
49916SOL    HW151581  11.136   1.266   9.847
49916SOL    HW251582  11.185   1.406   9.878
49917SOL     OW51583   2.123   7.092  10.181
49917SOL    HW151584   2.053   7.115  10.241
49917SOL    HW251585   2.166   7.016  10.222
49918SOL     OW51586   8.567  12.347  11.986
49918SOL    HW151587   8.590  12.412  12.052
49918SOL    HW251588   8.473  12.361  11.971
49919SOL     OW51589  14.661  14.082   5.080
49919SOL    HW151590  14.687  14.074   5.172
49919SOL    HW251591  14.725  14.029   5.032
49920SOL     OW51592  11.413   6.844  13.842
49920SOL    HW151593  11.483   6.909  13.843
49920SOL    HW251594  11.428   6.796  13.760
49921SOL     OW51595   2.651   1.935  12.879
49921SOL    HW151596   2.618   1.847  12.862
49921SOL    HW251597   2.593   1.969  12.948
49922SOL     OW51598  13.959   9.677  10.905
49922SOL    HW151599  13.922   9.672  10.994
49922SOL    HW251600  14.050   9.650  10.916
49923SOL     OW51601   9.388   2.473   0.792
49923SOL    HW151602   9.416   2.427   0.871
49923SOL    HW251603   9.304   2.513   0.817
49924SOL     OW51604   1.596   6.789   6.804
49924SOL    HW151605   1.563   6.879   6.805
49924SOL    HW251606   1.517   6.736   6.795
49925SOL     OW51607  11.940   0.341   0.363
49925SOL    HW151608  11.858   0.298   0.339
49925SOL    HW251609  12.001   0.317   0.293
49926SOL     OW51610   7.795   0.855   3.366
49926SOL    HW151611   7.820   0.813   3.449
49926SOL    HW251612   7.876   0.893   3.333
49927SOL     OW51613  10.353   6.501   9.654
49927SOL    HW151614  10.417   6.433   9.633
49927SOL    HW251615  10.278   6.454   9.690
49928SOL     OW51616   7.395   2.847   5.951
49928SOL    HW151617   7.421   2.765   5.993
49928SOL    HW251618   7.328   2.822   5.887
49929SOL     OW51619   1.225   3.368   3.792
49929SOL    HW151620   1.263   3.453   3.813
49929SOL    HW251621   1.184   3.338   3.873
49930SOL     OW51622  11.667   1.253  10.654
49930SOL    HW151623  11.756   1.264  10.687
49930SOL    HW251624  11.639   1.342  10.632
49931SOL     OW51625   0.862   8.038  12.421
49931SOL    HW151626   0.866   7.992  12.505
49931SOL    HW251627   0.769   8.037  12.398
49932SOL     OW51628   2.424   8.930   0.154
49932SOL    HW151629   2.441   8.871   0.227
49932SOL    HW251630   2.511   8.958   0.125
49933SOL     OW51631   4.625   7.248   9.256
49933SOL    HW151632   4.576   7.295   9.323
49933SOL    HW251633   4.688   7.195   9.305
49934SOL     OW51634  11.832   1.208   4.120
49934SOL    HW151635  11.913   1.207   4.171
49934SOL    HW251636  11.783   1.132   4.151
49935SOL     OW51637  12.072   5.641   1.413
49935SOL    HW151638  12.129   5.659   1.487
49935SOL    HW251639  12.111   5.564   1.371
49936SOL     OW51640   6.250   0.927   6.867
49936SOL    HW151641   6.212   0.944   6.781
49936SOL    HW251642   6.179   0.945   6.929
49937SOL     OW51643   3.663  10.139   1.979
49937SOL    HW151644   3.675  10.192   2.058
49937SOL    HW251645   3.738  10.162   1.924
49938SOL     OW51646   3.108   9.979  12.207
49938SOL    HW151647   3.089   9.941  12.292
49938SOL    HW251648   3.146   9.907  12.156
49939SOL     OW51649  13.005   1.152   2.545
49939SOL    HW151650  12.994   1.230   2.491
49939SOL    HW251651  12.922   1.143   2.591
49940SOL     OW51652   7.561  12.797   7.443
49940SOL    HW151653   7.472  12.830   7.455
49940SOL    HW251654   7.577  12.743   7.520
49941SOL     OW51655   0.875   2.204   0.882
49941SOL    HW151656   0.836   2.135   0.936
49941SOL    HW251657   0.810   2.275   0.884
49942SOL     OW51658   2.303   1.989   2.789
49942SOL    HW151659   2.261   1.913   2.748
49942SOL    HW251660   2.339   2.039   2.716
49943SOL     OW51661   3.872   4.359   1.328
49943SOL    HW151662   3.957   4.402   1.319
49943SOL    HW251663   3.810   4.420   1.288
49944SOL     OW51664   4.939   1.798  14.408
49944SOL    HW151665   4.863   1.742  14.419
49944SOL    HW251666   5.013   1.738  14.408
49945SOL     OW51667  13.264   2.723   7.080
49945SOL    HW151668  13.349   2.724   7.036
49945SOL    HW251669  13.268   2.647   7.138
49946SOL     OW51670   0.022   0.331   3.757
49946SOL    HW151671  14.812   0.297   3.764
49946SOL    HW251672   0.013   0.424   3.777
49947SOL     OW51673   3.607   4.536   6.587
49947SOL    HW151674   3.531   4.589   6.608
49947SOL    HW251675   3.632   4.564   6.499
49948SOL     OW51676   4.256   1.036  11.542
49948SOL    HW151677   4.236   0.977  11.468
49948SOL    HW251678   4.172   1.054  11.582
49949SOL     OW51679   0.242   9.346  11.411
49949SOL    HW151680   0.186   9.408  11.456
49949SOL    HW251681   0.276   9.394  11.336
49950SOL     OW51682   8.866  11.177  11.035
49950SOL    HW151683   8.845  11.269  11.049
49950SOL    HW251684   8.930  11.178  10.964
49951SOL     OW51685   5.017  13.736   6.552
49951SOL    HW151686   5.034  13.830   6.555
49951SOL    HW251687   5.096  13.699   6.513
49952SOL     OW51688   6.516   9.259   2.082
49952SOL    HW151689   6.548   9.311   2.008
49952SOL    HW251690   6.591   9.205   2.108
49953SOL     OW51691  13.657  11.338   3.854
49953SOL    HW151692  13.662  11.434   3.846
49953SOL    HW251693  13.566  11.321   3.877
49954SOL     OW51694  11.570   7.643   5.131
49954SOL    HW151695  11.638   7.703   5.100
49954SOL    HW251696  11.618   7.573   5.176
49955SOL     OW51697   4.526   6.859  12.633
49955SOL    HW151698   4.575   6.917  12.574
49955SOL    HW251699   4.535   6.899  12.719
49956SOL     OW51700   0.168   8.480   7.693
49956SOL    HW151701   0.097   8.543   7.700
49956SOL    HW251702   0.124   8.394   7.693
49957SOL     OW51703   9.997   0.443   0.950
49957SOL    HW151704  10.021   0.373   0.890
49957SOL    HW251705  10.036   0.418   1.033
49958SOL     OW51706  12.121  10.467   2.113
49958SOL    HW151707  12.083  10.511   2.038
49958SOL    HW251708  12.149  10.538   2.171
49959SOL     OW51709   6.112  11.807   4.780
49959SOL    HW151710   6.185  11.762   4.824
49959SOL    HW251711   6.034  11.775   4.824
49960SOL     OW51712   3.091   4.974   6.226
49960SOL    HW151713   3.133   5.012   6.149
49960SOL    HW251714   3.076   5.048   6.284
49961SOL     OW51715   1.466   0.104  14.323
49961SOL    HW151716   1.457   0.009  14.330
49961SOL    HW251717   1.520   0.117  14.245
49962SOL     OW51718  13.831   4.491   3.952
49962SOL    HW151719  13.910   4.481   4.005
49962SOL    HW251720  13.839   4.578   3.913
49963SOL     OW51721   2.573  12.306   7.593
49963SOL    HW151722   2.494  12.264   7.558
49963SOL    HW251723   2.645  12.250   7.563
49964SOL     OW51724  12.424   9.529   2.295
49964SOL    HW151725  12.471   9.498   2.217
49964SOL    HW251726  12.383   9.450   2.330
49965SOL     OW51727  12.192   9.268   1.939
49965SOL    HW151728  12.118   9.267   1.999
49965SOL    HW251729  12.192   9.355   1.900
49966SOL     OW51730  10.551   9.504   6.615
49966SOL    HW151731  10.556   9.599   6.623
49966SOL    HW251732  10.479   9.489   6.554
49967SOL     OW51733   5.704  14.258   3.610
49967SOL    HW151734   5.637  14.191   3.623
49967SOL    HW251735   5.654  14.339   3.598
49968SOL     OW51736   3.916  11.942  13.091
49968SOL    HW151737   4.005  11.977  13.090
49968SOL    HW251738   3.860  12.020  13.096
49969SOL     OW51739   6.064   0.542   0.531
49969SOL    HW151740   5.981   0.500   0.508
49969SOL    HW251741   6.093   0.497   0.610
49970SOL     OW51742   4.585  14.062   8.890
49970SOL    HW151743   4.500  14.036   8.924
49970SOL    HW251744   4.567  14.130   8.825
49971SOL     OW51745  11.384   9.883   2.995
49971SOL    HW151746  11.372   9.830   2.916
49971SOL    HW251747  11.348   9.968   2.972
49972SOL     OW51748  11.809  14.265   2.669
49972SOL    HW151749  11.869  14.336   2.694
49972SOL    HW251750  11.863  14.186   2.672
49973SOL     OW51751   9.965   4.138   6.073
49973SOL    HW151752   9.945   4.111   5.984
49973SOL    HW251753   9.883   4.176   6.106
49974SOL     OW51754  14.753   4.677   9.375
49974SOL    HW151755  14.716   4.671   9.463
49974SOL    HW251756  14.843   4.645   9.385
49975SOL     OW51757  14.135   4.540  11.755
49975SOL    HW151758  14.173   4.623  11.786
49975SOL    HW251759  14.107   4.559  11.666
49976SOL     OW51760   6.900   3.395  11.695
49976SOL    HW151761   6.969   3.339  11.658
49976SOL    HW251762   6.932   3.418  11.782
49977SOL     OW51763  13.373  11.835   4.036
49977SOL    HW151764  13.286  11.810   4.006
49977SOL    HW251765  13.426  11.756   4.026
49978SOL     OW51766   8.323   5.480   1.009
49978SOL    HW151767   8.313   5.510   1.100
49978SOL    HW251768   8.235   5.454   0.982
49979SOL     OW51769   7.936   1.266   4.225
49979SOL    HW151770   7.920   1.230   4.138
49979SOL    HW251771   7.870   1.225   4.280
49980SOL     OW51772  13.466   0.519   9.047
49980SOL    HW151773  13.402   0.466   9.093
49980SOL    HW251774  13.520   0.558   9.117
49981SOL     OW51775   8.086   6.671   1.828
49981SOL    HW151776   8.094   6.739   1.760
49981SOL    HW251777   8.040   6.600   1.784
49982SOL     OW51778   3.040   7.802   0.077
49982SOL    HW151779   3.031   7.884   0.029
49982SOL    HW251780   3.131   7.777   0.065
49983SOL     OW51781   0.101  12.683   1.288
49983SOL    HW151782   0.087  12.705   1.196
49983SOL    HW251783   0.014  12.688   1.327
49984SOL     OW51784   1.280   3.314   1.733
49984SOL    HW151785   1.237   3.231   1.714
49984SOL    HW251786   1.344   3.293   1.802
49985SOL     OW51787   2.687   9.189  10.458
49985SOL    HW151788   2.668   9.186  10.552
49985SOL    HW251789   2.769   9.238  10.452
49986SOL     OW51790   0.928   6.246   6.029
49986SOL    HW151791   0.854   6.255   6.089
49986SOL    HW251792   1.004   6.238   6.086
49987SOL     OW51793  10.115  11.673   9.598
49987SOL    HW151794  10.208  11.655   9.585
49987SOL    HW251795  10.072  11.631   9.523
49988SOL     OW51796   2.276   0.403  11.839
49988SOL    HW151797   2.304   0.470  11.901
49988SOL    HW251798   2.183   0.390  11.859
49989SOL     OW51799   8.921   6.950   5.120
49989SOL    HW151800   8.852   6.914   5.177
49989SOL    HW251801   8.939   6.880   5.057
49990SOL     OW51802   3.422   1.341  14.864
49990SOL    HW151803   3.452   1.294   0.063
49990SOL    HW251804   3.329   1.321  14.859
49991SOL     OW51805   4.971   2.069   9.433
49991SOL    HW151806   5.019   1.993   9.466
49991SOL    HW251807   5.029   2.107   9.367
49992SOL     OW51808   0.336   8.063   2.057
49992SOL    HW151809   0.424   8.025   2.062
49992SOL    HW251810   0.315   8.064   1.964
49993SOL     OW51811  11.969   8.755  12.038
49993SOL    HW151812  12.013   8.672  12.057
49993SOL    HW251813  12.014   8.819  12.094
49994SOL     OW51814   3.847  13.023   6.577
49994SOL    HW151815   3.767  12.998   6.531
49994SOL    HW251816   3.817  13.064   6.658
49995SOL     OW51817   8.004   9.386  10.737
49995SOL    HW151818   8.036   9.469  10.772
49995SOL    HW251819   8.075   9.324  10.754
49996SOL     OW51820   7.810   5.838   8.205
49996SOL    HW151821   7.872   5.845   8.132
49996SOL    HW251822   7.767   5.923   8.207
49997SOL     OW51823  14.266  13.705   8.829
49997SOL    HW151824  14.258  13.636   8.763
49997SOL    HW251825  14.360  13.715   8.842
49998SOL     OW51826   3.780  10.346   3.885
49998SOL    HW151827   3.770  10.365   3.979
49998SOL    HW251828   3.691  10.349   3.850
49999SOL     OW51829   4.197  11.837   1.038
49999SOL    HW151830   4.170  11.755   0.996
49999SOL    HW251831   4.283  11.817   1.076
50000SOL     OW51832   7.400  12.785  12.723
50000SOL    HW151833   7.428  12.853  12.783
50000SOL    HW251834   7.311  12.763  12.752
50001SOL     OW51835   5.944   8.847  11.931
50001SOL    HW151836   6.039   8.859  11.924
50001SOL    HW251837   5.920   8.895  12.011
50002SOL     OW51838   4.276   6.424   5.434
50002SOL    HW151839   4.266   6.435   5.339
50002SOL    HW251840   4.369   6.441   5.450
50003SOL     OW51841   2.184   2.919   3.537
50003SOL    HW151842   2.160   2.966   3.617
50003SOL    HW251843   2.229   2.985   3.484
50004SOL     OW51844   9.978   8.344   7.357
50004SOL    HW151845   9.950   8.299   7.277
50004SOL    HW251846   9.904   8.400   7.379
50005SOL     OW51847   5.409  14.198  13.589
50005SOL    HW151848   5.478  14.225  13.529
50005SOL    HW251849   5.365  14.280  13.614
50006SOL     OW51850   2.497   8.062   2.136
50006SOL    HW151851   2.572   8.015   2.099
50006SOL    HW251852   2.535   8.136   2.182
50007SOL     OW51853  13.918  13.894   0.752
50007SOL    HW151854  13.887  13.980   0.782
50007SOL    HW251855  13.861  13.831   0.796
50008SOL     OW51856  13.993   5.714  11.630
50008SOL    HW151857  14.047   5.730  11.553
50008SOL    HW251858  13.962   5.624  11.619
50009SOL     OW51859  12.526  11.773   8.178
50009SOL    HW151860  12.506  11.860   8.144
50009SOL    HW251861  12.443  11.725   8.171
50010SOL     OW51862   1.395   5.160   1.427
50010SOL    HW151863   1.475   5.111   1.412
50010SOL    HW251864   1.416   5.250   1.400
50011SOL     OW51865   2.187   9.788   8.860
50011SOL    HW151866   2.218   9.711   8.909
50011SOL    HW251867   2.234   9.784   8.777
50012SOL     OW51868  14.186   6.341  11.551
50012SOL    HW151869  14.216   6.361  11.462
50012SOL    HW251870  14.099   6.380  11.557
50013SOL     OW51871  13.247   3.421   9.323
50013SOL    HW151872  13.285   3.505   9.297
50013SOL    HW251873  13.224   3.432   9.415
50014SOL     OW51874   7.347   4.953   9.559
50014SOL    HW151875   7.261   4.939   9.601
50014SOL    HW251876   7.361   5.047   9.564
50015SOL     OW51877  10.117   1.299   6.001
50015SOL    HW151878  10.061   1.259   6.068
50015SOL    HW251879  10.103   1.393   6.012
50016SOL     OW51880   2.954  11.297   3.727
50016SOL    HW151881   2.866  11.319   3.759
50016SOL    HW251882   2.974  11.367   3.665
50017SOL     OW51883   9.808   4.934   1.366
50017SOL    HW151884   9.724   4.978   1.380
50017SOL    HW251885   9.810   4.916   1.272
50018SOL     OW51886   7.061   2.816  12.679
50018SOL    HW151887   7.109   2.744  12.721
50018SOL    HW251888   7.101   2.895  12.715
50019SOL     OW51889   7.131   8.799  12.338
50019SOL    HW151890   7.092   8.718  12.370
50019SOL    HW251891   7.153   8.780  12.247
50020SOL     OW51892  11.592   9.115  13.843
50020SOL    HW151893  11.578   9.089  13.934
50020SOL    HW251894  11.629   9.203  13.849
50021SOL     OW51895   1.649  11.657   5.770
50021SOL    HW151896   1.641  11.751   5.758
50021SOL    HW251897   1.729  11.633   5.724
50022SOL     OW51898   4.384   2.240   8.911
50022SOL    HW151899   4.308   2.216   8.964
50022SOL    HW251900   4.370   2.333   8.891
50023SOL     OW51901   9.896   0.519  12.263
50023SOL    HW151902   9.890   0.585  12.332
50023SOL    HW251903   9.815   0.468  12.271
50024SOL     OW51904  14.844  11.022   1.167
50024SOL    HW151905   0.028  10.961   1.205
50024SOL    HW251906  14.867  11.026   1.074
50025SOL     OW51907   8.844   3.245   8.597
50025SOL    HW151908   8.921   3.188   8.595
50025SOL    HW251909   8.811   3.244   8.507
50026SOL     OW51910  12.765  14.131  11.264
50026SOL    HW151911  12.716  14.212  11.251
50026SOL    HW251912  12.848  14.159  11.301
50027SOL     OW51913   2.081  13.058   5.755
50027SOL    HW151914   2.154  13.109   5.720
50027SOL    HW251915   2.114  13.021   5.837
50028SOL     OW51916  13.224   8.009  12.722
50028SOL    HW151917  13.253   7.976  12.637
50028SOL    HW251918  13.216   8.103  12.710
50029SOL     OW51919   8.879   5.836   8.097
50029SOL    HW151920   8.925   5.904   8.146
50029SOL    HW251921   8.873   5.762   8.159
50030SOL     OW51922   4.649   6.129   0.022
50030SOL    HW151923   4.673   6.216  14.870
50030SOL    HW251924   4.681   6.069  14.833
50031SOL     OW51925  12.915  13.260   1.246
50031SOL    HW151926  13.008  13.243   1.227
50031SOL    HW251927  12.905  13.354   1.232
50032SOL     OW51928   2.909   4.919  13.539
50032SOL    HW151929   2.905   4.962  13.625
50032SOL    HW251930   2.945   4.832  13.557
50033SOL     OW51931  12.253   7.329   7.453
50033SOL    HW151932  12.214   7.393   7.393
50033SOL    HW251933  12.242   7.368   7.540
50034SOL     OW51934  12.532   9.036   8.669
50034SOL    HW151935  12.501   9.010   8.582
50034SOL    HW251936  12.467   8.999   8.730
50035SOL     OW51937   4.107  13.057   5.920
50035SOL    HW151938   4.037  13.042   5.983
50035SOL    HW251939   4.081  13.008   5.843
50036SOL     OW51940   0.798   8.451   4.345
50036SOL    HW151941   0.872   8.488   4.297
50036SOL    HW251942   0.805   8.357   4.331
50037SOL     OW51943  14.147   2.822   8.459
50037SOL    HW151944  14.062   2.855   8.429
50037SOL    HW251945  14.191   2.793   8.379
50038SOL     OW51946   3.003   2.334   8.785
50038SOL    HW151947   2.955   2.336   8.868
50038SOL    HW251948   2.966   2.259   8.738
50039SOL     OW51949   7.254   5.781  13.192
50039SOL    HW151950   7.320   5.713  13.209
50039SOL    HW251951   7.304   5.852  13.152
50040SOL     OW51952   0.855   9.598   3.186
50040SOL    HW151953   0.920   9.576   3.252
50040SOL    HW251954   0.876   9.689   3.162
50041SOL     OW51955  11.621   6.540   6.586
50041SOL    HW151956  11.588   6.616   6.635
50041SOL    HW251957  11.698   6.574   6.540
50042SOL     OW51958   8.912  12.715  10.532
50042SOL    HW151959   8.919  12.782  10.599
50042SOL    HW251960   8.974  12.742  10.464
50043SOL     OW51961   0.459   5.355   7.255
50043SOL    HW151962   0.499   5.298   7.320
50043SOL    HW251963   0.365   5.349   7.272
50044SOL     OW51964  13.912   1.710   0.699
50044SOL    HW151965  13.991   1.763   0.695
50044SOL    HW251966  13.864   1.743   0.775
50045SOL     OW51967   8.980   4.718   4.736
50045SOL    HW151968   9.008   4.784   4.672
50045SOL    HW251969   9.053   4.656   4.740
50046SOL     OW51970   8.143  13.449   8.050
50046SOL    HW151971   8.231  13.435   8.015
50046SOL    HW251972   8.105  13.361   8.053
50047SOL     OW51973   3.779   6.200  11.319
50047SOL    HW151974   3.861   6.242  11.292
50047SOL    HW251975   3.727   6.196  11.239
50048SOL     OW51976   8.912   2.948  11.446
50048SOL    HW151977   8.894   2.965  11.353
50048SOL    HW251978   8.901   3.032  11.488
50049SOL     OW51979  11.563   4.897  11.295
50049SOL    HW151980  11.566   4.809  11.330
50049SOL    HW251981  11.478   4.931  11.321
50050SOL     OW51982   9.184   9.924  11.337
50050SOL    HW151983   9.169  10.016  11.358
50050SOL    HW251984   9.098   9.892  11.308
50051SOL     OW51985   0.297  13.742   4.256
50051SOL    HW151986   0.290  13.656   4.215
50051SOL    HW251987   0.247  13.735   4.337
50052SOL     OW51988   6.898   1.219   9.042
50052SOL    HW151989   6.957   1.151   9.010
50052SOL    HW251990   6.825   1.220   8.979
50053SOL     OW51991   6.938   2.687   3.435
50053SOL    HW151992   6.852   2.728   3.422
50053SOL    HW251993   6.943   2.620   3.366
50054SOL     OW51994   3.124  12.657   8.153
50054SOL    HW151995   3.032  12.678   8.139
50054SOL    HW251996   3.126  12.614   8.239
50055SOL     OW51997   6.707  13.935  14.034
50055SOL    HW151998   6.697  14.019  13.989
50055SOL    HW251999   6.801  13.926  14.047
50056SOL     OW52000   1.130   5.935   0.298
50056SOL    HW152001   1.223   5.952   0.313
50056SOL    HW252002   1.128   5.856   0.245
50057SOL     OW52003   9.759   4.687  11.980
50057SOL    HW152004   9.833   4.681  11.919
50057SOL    HW252005   9.707   4.609  11.962
50058SOL     OW52006   9.907   3.905  11.265
50058SOL    HW152007  10.000   3.917  11.284
50058SOL    HW252008   9.902   3.823  11.217
50059SOL     OW52009   8.011  10.091  10.289
50059SOL    HW152010   8.061  10.101  10.370
50059SOL    HW252011   7.998  10.180  10.257
50060SOL     OW52012  11.425  14.254   7.781
50060SOL    HW152013  11.456  14.275   7.869
50060SOL    HW252014  11.420  14.339   7.737
50061SOL     OW52015  14.126   0.643   2.705
50061SOL    HW152016  14.073   0.637   2.785
50061SOL    HW252017  14.091   0.574   2.648
50062SOL     OW52018   3.842   8.041   8.537
50062SOL    HW152019   3.857   8.134   8.519
50062SOL    HW252020   3.900   8.022   8.611
50063SOL     OW52021  14.210   8.054  14.418
50063SOL    HW152022  14.258   8.078  14.497
50063SOL    HW252023  14.247   8.110  14.350
50064SOL     OW52024  13.835  14.846   1.082
50064SOL    HW152025  13.761   0.005   1.035
50064SOL    HW252026  13.805  14.840   1.173
50065SOL     OW52027   0.510  12.105  11.869
50065SOL    HW152028   0.523  12.135  11.958
50065SOL    HW252029   0.578  12.039  11.856
50066SOL     OW52030  10.808   6.786   5.157
50066SOL    HW152031  10.884   6.840   5.136
50066SOL    HW252032  10.778   6.818   5.241
50067SOL     OW52033   1.344   2.833   1.234
50067SOL    HW152034   1.299   2.817   1.317
50067SOL    HW252035   1.277   2.872   1.178
50068SOL     OW52036   6.313   5.846  12.425
50068SOL    HW152037   6.363   5.784  12.478
50068SOL    HW252038   6.279   5.794  12.353
50069SOL     OW52039  11.921   2.233  11.621
50069SOL    HW152040  11.870   2.156  11.647
50069SOL    HW252041  11.881   2.306  11.669
50070SOL     OW52042   8.843   5.566  13.462
50070SOL    HW152043   8.820   5.636  13.523
50070SOL    HW252044   8.760   5.520  13.445
50071SOL     OW52045  14.331   4.008   1.901
50071SOL    HW152046  14.381   4.085   1.874
50071SOL    HW252047  14.389   3.934   1.883
50072SOL     OW52048   7.298   8.939   1.744
50072SOL    HW152049   7.234   8.975   1.683
50072SOL    HW252050   7.350   9.014   1.772
50073SOL     OW52051  13.645   6.811  11.906
50073SOL    HW152052  13.626   6.904  11.896
50073SOL    HW252053  13.654   6.797  12.000
50074SOL     OW52054   1.024   5.704  12.124
50074SOL    HW152055   1.106   5.712  12.173
50074SOL    HW252056   0.966   5.655  12.183
50075SOL     OW52057  13.451  10.944   1.187
50075SOL    HW152058  13.509  10.970   1.260
50075SOL    HW252059  13.440  11.025   1.136
50076SOL     OW52060   3.702   4.214   7.326
50076SOL    HW152061   3.661   4.138   7.287
50076SOL    HW252062   3.668   4.217   7.416
50077SOL     OW52063  10.281  12.556   8.862
50077SOL    HW152064  10.321  12.503   8.793
50077SOL    HW252065  10.307  12.514   8.943
50078SOL     OW52066   9.380  10.973  12.243
50078SOL    HW152067   9.299  11.024  12.235
50078SOL    HW252068   9.352  10.892  12.287
50079SOL     OW52069   1.563   9.703   8.448
50079SOL    HW152070   1.605   9.617   8.451
50079SOL    HW252071   1.567   9.735   8.537
50080SOL     OW52072   1.457   7.844   8.020
50080SOL    HW152073   1.489   7.903   7.952
50080SOL    HW252074   1.487   7.883   8.102
50081SOL     OW52075   1.527  10.177  13.190
50081SOL    HW152076   1.495  10.091  13.220
50081SOL    HW252077   1.482  10.240  13.246
50082SOL     OW52078   5.238  11.411  11.445
50082SOL    HW152079   5.299  11.347  11.481
50082SOL    HW252080   5.182  11.434  11.518
50083SOL     OW52081  10.980   1.668   6.133
50083SOL    HW152082  10.948   1.593   6.084
50083SOL    HW252083  11.074   1.654   6.140
50084SOL     OW52084   9.891  12.347   4.227
50084SOL    HW152085   9.853  12.294   4.297
50084SOL    HW252086   9.919  12.284   4.161
50085SOL     OW52087   5.659   5.307   2.830
50085SOL    HW152088   5.752   5.313   2.849
50085SOL    HW252089   5.651   5.342   2.741
50086SOL     OW52090   0.509   8.097  13.877
50086SOL    HW152091   0.429   8.107  13.826
50086SOL    HW252092   0.579   8.121  13.817
50087SOL     OW52093  14.044  10.790   5.854
50087SOL    HW152094  13.972  10.729   5.835
50087SOL    HW252095  14.042  10.801   5.949
50088SOL     OW52096   4.722   4.689   3.043
50088SOL    HW152097   4.649   4.634   3.072
50088SOL    HW252098   4.683   4.750   2.980
50089SOL     OW52099  10.363  13.693   8.750
50089SOL    HW152100  10.299  13.714   8.819
50089SOL    HW252101  10.317  13.710   8.668
50090SOL     OW52102   9.257  11.443  10.239
50090SOL    HW152103   9.351  11.429  10.252
50090SOL    HW252104   9.226  11.474  10.324
50091SOL     OW52105  12.974   5.109   9.865
50091SOL    HW152106  13.053   5.071   9.827
50091SOL    HW252107  12.906   5.098   9.798
50092SOL     OW52108   8.460   8.312   6.791
50092SOL    HW152109   8.480   8.255   6.865
50092SOL    HW252110   8.411   8.257   6.730
50093SOL     OW52111  14.271   7.148   4.266
50093SOL    HW152112  14.244   7.223   4.318
50093SOL    HW252113  14.239   7.167   4.177
50094SOL     OW52114  10.749  11.929   8.263
50094SOL    HW152115  10.810  11.870   8.219
50094SOL    HW252116  10.688  11.956   8.193
50095SOL     OW52117  14.537   9.235   0.838
50095SOL    HW152118  14.507   9.247   0.928
50095SOL    HW252119  14.501   9.309   0.790
50096SOL     OW52120   2.019   0.024  10.639
50096SOL    HW152121   1.951  14.837  10.656
50096SOL    HW252122   2.100  14.853  10.636
50097SOL     OW52123  11.096   4.743  10.278
50097SOL    HW152124  11.069   4.742  10.186
50097SOL    HW252125  11.109   4.836  10.298
50098SOL     OW52126   7.310   1.537  10.762
50098SOL    HW152127   7.362   1.460  10.738
50098SOL    HW252128   7.317   1.595  10.686
50099SOL     OW52129   0.128   0.457   4.040
50099SOL    HW152130   0.036   0.431   4.049
50099SOL    HW252131   0.128   0.552   4.049
50100SOL     OW52132   2.031  13.601  11.693
50100SOL    HW152133   2.061  13.654  11.767
50100SOL    HW252134   2.015  13.663  11.623
50101SOL     OW52135  14.750  14.075   3.151
50101SOL    HW152136  14.840  14.080   3.119
50101SOL    HW252137  14.755  14.106   3.242
50102SOL     OW52138   0.526   7.447  10.228
50102SOL    HW152139   0.468   7.461  10.153
50102SOL    HW252140   0.553   7.356  10.220
50103SOL     OW52141   6.270  13.636  10.497
50103SOL    HW152142   6.319  13.559  10.467
50103SOL    HW252143   6.329  13.678  10.559
50104SOL     OW52144  13.999  14.062  14.643
50104SOL    HW152145  13.976  14.116  14.718
50104SOL    HW252146  14.055  14.118  14.589
50105SOL     OW52147   9.554  13.817   3.194
50105SOL    HW152148   9.597  13.822   3.108
50105SOL    HW252149   9.623  13.790   3.254
50106SOL     OW52150  13.228   2.774   8.854
50106SOL    HW152151  13.208   2.683   8.834
50106SOL    HW252152  13.177   2.825   8.790
50107SOL     OW52153   7.716   0.509   4.779
50107SOL    HW152154   7.670   0.445   4.724
50107SOL    HW252155   7.677   0.500   4.865
50108SOL     OW52156  11.867  12.963   2.707
50108SOL    HW152157  11.894  12.889   2.653
50108SOL    HW252158  11.948  13.006   2.732
50109SOL     OW52159   1.120   8.946   8.656
50109SOL    HW152160   1.198   8.963   8.708
50109SOL    HW252161   1.047   8.969   8.714
50110SOL     OW52162   6.174  12.774   5.220
50110SOL    HW152163   6.158  12.851   5.165
50110SOL    HW252164   6.099  12.717   5.203
50111SOL     OW52165   9.464   4.484  11.379
50111SOL    HW152166   9.474   4.574  11.409
50111SOL    HW252167   9.378   4.456  11.414
50112SOL     OW52168   8.070   6.961  10.867
50112SOL    HW152169   7.978   6.977  10.885
50112SOL    HW252170   8.105   6.925  10.949
50113SOL     OW52171   6.356   3.802   6.765
50113SOL    HW152172   6.425   3.793   6.831
50113SOL    HW252173   6.314   3.885   6.786
50114SOL     OW52174  14.784   4.871   5.573
50114SOL    HW152175  14.724   4.837   5.639
50114SOL    HW252176  14.791   4.964   5.592
50115SOL     OW52177  13.475   9.489   3.227
50115SOL    HW152178  13.428   9.419   3.183
50115SOL    HW252179  13.551   9.446   3.266
50116SOL     OW52180  14.060   0.645   1.587
50116SOL    HW152181  14.092   0.556   1.574
50116SOL    HW252182  13.994   0.637   1.656
50117SOL     OW52183   9.728   4.220   6.231
50117SOL    HW152184   9.641   4.194   6.199
50117SOL    HW252185   9.735   4.179   6.317
50118SOL     OW52186   0.059   9.459   2.353
50118SOL    HW152187   0.090   9.371   2.375
50118SOL    HW252188  14.843   9.455   2.370
50119SOL     OW52189   9.081   0.023   9.867
50119SOL    HW152190   9.109  14.826   9.817
50119SOL    HW252191   9.133   0.095   9.832
50120SOL     OW52192   3.372   4.352   1.269
50120SOL    HW152193   3.432   4.309   1.208
50120SOL    HW252194   3.294   4.297   1.269
50121SOL     OW52195   1.068  12.565  11.614
50121SOL    HW152196   0.992  12.513  11.586
50121SOL    HW252197   1.033  12.652  11.630
50122SOL     OW52198  10.553   5.919  12.304
50122SOL    HW152199  10.552   5.945  12.396
50122SOL    HW252200  10.635   5.870  12.294
50123SOL     OW52201   0.697   8.257  10.746
50123SOL    HW152202   0.752   8.185  10.778
50123SOL    HW252203   0.628   8.214  10.697
50124SOL     OW52204   6.774  14.681  11.418
50124SOL    HW152205   6.764  14.755  11.358
50124SOL    HW252206   6.833  14.713  11.486
50125SOL     OW52207   7.023   4.566  13.894
50125SOL    HW152208   7.047   4.509  13.821
50125SOL    HW252209   7.099   4.563  13.953
50126SOL     OW52210  10.107   5.981  10.904
50126SOL    HW152211  10.089   5.991  10.998
50126SOL    HW252212  10.200   5.961  10.900
50127SOL     OW52213   6.056  13.572  13.773
50127SOL    HW152214   6.018  13.651  13.734
50127SOL    HW252215   6.061  13.510  13.700
50128SOL     OW52216   9.189  12.881   6.958
50128SOL    HW152217   9.130  12.931   7.013
50128SOL    HW252218   9.277  12.910   6.984
50129SOL     OW52219   6.655   3.308   2.460
50129SOL    HW152220   6.660   3.350   2.374
50129SOL    HW252221   6.648   3.215   2.441
50130SOL     OW52222   8.747  14.511   0.940
50130SOL    HW152223   8.834  14.548   0.922
50130SOL    HW252224   8.687  14.585   0.927
50131SOL     OW52225   7.105   3.167   7.276
50131SOL    HW152226   7.115   3.250   7.230
50131SOL    HW252227   7.083   3.192   7.366
50132SOL     OW52228   3.964  10.072   7.282
50132SOL    HW152229   4.032  10.005   7.286
50132SOL    HW252230   4.010  10.152   7.257
50133SOL     OW52231   1.600  13.615  14.303
50133SOL    HW152232   1.583  13.702  14.266
50133SOL    HW252233   1.560  13.617  14.390
50134SOL     OW52234  13.305  10.838  12.448
50134SOL    HW152235  13.399  10.826  12.439
50134SOL    HW252236  13.271  10.833  12.359
50135SOL     OW52237  13.045   0.480   6.000
50135SOL    HW152238  13.053   0.564   5.954
50135SOL    HW252239  13.067   0.414   5.934
50136SOL     OW52240  13.759   7.544   6.858
50136SOL    HW152241  13.756   7.618   6.798
50136SOL    HW252242  13.832   7.564   6.917
50137SOL     OW52243   6.387  13.415  10.871
50137SOL    HW152244   6.317  13.350  10.873
50137SOL    HW252245   6.341  13.499  10.868
50138SOL     OW52246   3.595   7.708   7.216
50138SOL    HW152247   3.643   7.640   7.169
50138SOL    HW252248   3.560   7.764   7.147
50139SOL     OW52249   5.452  10.770   7.387
50139SOL    HW152250   5.510  10.702   7.353
50139SOL    HW252251   5.474  10.775   7.480
50140SOL     OW52252  14.381  13.169   4.680
50140SOL    HW152253  14.370  13.248   4.733
50140SOL    HW252254  14.453  13.190   4.620
50141SOL     OW52255   3.532   7.577   0.468
50141SOL    HW152256   3.611   7.620   0.500
50141SOL    HW252257   3.515   7.507   0.532
50142SOL     OW52258   0.652  13.231   4.754
50142SOL    HW152259   0.666  13.173   4.679
50142SOL    HW252260   0.571  13.278   4.732
50143SOL     OW52261  10.897   7.320  13.498
50143SOL    HW152262  10.890   7.229  13.527
50143SOL    HW252263  10.928   7.315  13.408
50144SOL     OW52264  14.372  10.289  14.048
50144SOL    HW152265  14.398  10.206  14.087
50144SOL    HW252266  14.317  10.330  14.114
50145SOL     OW52267  12.348   9.155  12.238
50145SOL    HW152268  12.305   9.076  12.205
50145SOL    HW252269  12.441   9.133  12.239
50146SOL     OW52270   9.141   5.694   7.397
50146SOL    HW152271   9.131   5.729   7.308
50146SOL    HW252272   9.161   5.601   7.383
50147SOL     OW52273  11.080   8.901   1.631
50147SOL    HW152274  11.173   8.917   1.619
50147SOL    HW252275  11.039   8.935   1.551
50148SOL     OW52276   9.487   6.459   0.567
50148SOL    HW152277   9.473   6.401   0.641
50148SOL    HW252278   9.571   6.431   0.530
50149SOL     OW52279  14.032   9.892   8.142
50149SOL    HW152280  14.005   9.829   8.209
50149SOL    HW252281  13.963   9.959   8.144
50150SOL     OW52282   5.370   3.984  13.378
50150SOL    HW152283   5.451   4.026  13.350
50150SOL    HW252284   5.379   3.893  13.347
50151SOL     OW52285  10.201   0.477   2.439
50151SOL    HW152286  10.261   0.408   2.412
50151SOL    HW252287  10.117   0.454   2.398
50152SOL     OW52288   8.236   8.947   5.378
50152SOL    HW152289   8.246   8.856   5.409
50152SOL    HW252290   8.154   8.946   5.328
50153SOL     OW52291   4.183  12.808   7.203
50153SOL    HW152292   4.200  12.856   7.285
50153SOL    HW252293   4.126  12.866   7.153
50154SOL     OW52294  12.349   5.154   7.762
50154SOL    HW152295  12.436   5.182   7.789
50154SOL    HW252296  12.291   5.188   7.830
50155SOL     OW52297   8.349  10.861  11.994
50155SOL    HW152298   8.418  10.915  12.032
50155SOL    HW252299   8.363  10.868  11.899
50156SOL     OW52300  12.507   2.281   6.532
50156SOL    HW152301  12.594   2.249   6.509
50156SOL    HW252302  12.518   2.374   6.548
50157SOL     OW52303   8.051  12.516   9.330
50157SOL    HW152304   7.975  12.572   9.318
50157SOL    HW252305   8.016  12.427   9.324
50158SOL     OW52306   5.640   5.484   8.007
50158SOL    HW152307   5.700   5.488   7.933
50158SOL    HW252308   5.557   5.516   7.973
50159SOL     OW52309  13.873   9.969  10.161
50159SOL    HW152310  13.816  10.037  10.198
50159SOL    HW252311  13.848   9.890  10.209
50160SOL     OW52312  14.771   5.306   7.413
50160SOL    HW152313  14.763   5.359   7.334
50160SOL    HW252314  14.847   5.341   7.459
50161SOL     OW52315   2.957   9.403  10.741
50161SOL    HW152316   2.929   9.489  10.708
50161SOL    HW252317   3.036   9.383  10.691
50162SOL     OW52318   4.004  12.869  12.144
50162SOL    HW152319   3.955  12.937  12.098
50162SOL    HW252320   4.057  12.827  12.076
50163SOL     OW52321  13.670   5.034   5.707
50163SOL    HW152322  13.589   5.001   5.668
50163SOL    HW252323  13.724   5.057   5.631
50164SOL     OW52324  13.882   0.034   1.475
50164SOL    HW152325  13.846  14.850   1.412
50164SOL    HW252326  13.833   0.115   1.459
50165SOL     OW52327  13.593   9.181   7.933
50165SOL    HW152328  13.587   9.264   7.979
50165SOL    HW252329  13.529   9.188   7.862
50166SOL     OW52330   7.544  14.432   3.075
50166SOL    HW152331   7.510  14.342   3.073
50166SOL    HW252332   7.471  14.484   3.107
50167SOL     OW52333  11.337  12.255   8.674
50167SOL    HW152334  11.276  12.182   8.683
50167SOL    HW252335  11.337  12.276   8.581
50168SOL     OW52336  11.122   5.224   5.560
50168SOL    HW152337  11.031   5.244   5.582
50168SOL    HW252338  11.172   5.298   5.597
50169SOL     OW52339  14.526   2.632   5.210
50169SOL    HW152340  14.533   2.706   5.150
50169SOL    HW252341  14.617   2.611   5.232
50170SOL     OW52342  12.998   4.612   8.024
50170SOL    HW152343  13.061   4.661   8.076
50170SOL    HW252344  13.048   4.537   7.991
50171SOL     OW52345   2.662   2.359  12.510
50171SOL    HW152346   2.578   2.394  12.537
50171SOL    HW252347   2.727   2.414  12.554
50172SOL     OW52348   6.449   6.144  11.704
50172SOL    HW152349   6.437   6.136  11.609
50172SOL    HW252350   6.522   6.085  11.723
50173SOL     OW52351   9.347   4.018   4.791
50173SOL    HW152352   9.413   4.086   4.805
50173SOL    HW252353   9.306   4.042   4.708
50174SOL     OW52354  11.549  14.167   8.040
50174SOL    HW152355  11.500  14.141   8.117
50174SOL    HW252356  11.640  14.167   8.068
50175SOL     OW52357  12.290   8.153   2.079
50175SOL    HW152358  12.252   8.131   1.994
50175SOL    HW252359  12.289   8.070   2.128
50176SOL     OW52360  13.802   1.608   6.068
50176SOL    HW152361  13.846   1.652   6.141
50176SOL    HW252362  13.744   1.545   6.111
50177SOL     OW52363   2.128   7.605   3.864
50177SOL    HW152364   2.105   7.635   3.951
50177SOL    HW252365   2.203   7.661   3.839
50178SOL     OW52366  11.590  10.804   0.887
50178SOL    HW152367  11.526  10.871   0.861
50178SOL    HW252368  11.675  10.842   0.862
50179SOL     OW52369   6.337   2.410   2.646
50179SOL    HW152370   6.422   2.407   2.603
50179SOL    HW252371   6.357   2.427   2.738
50180SOL     OW52372  14.746  14.053   9.074
50180SOL    HW152373  14.729  14.135   9.029
50180SOL    HW252374  14.761  13.989   9.004
50181SOL     OW52375   2.334   6.460  11.533
50181SOL    HW152376   2.376   6.546  11.521
50181SOL    HW252377   2.260   6.478  11.591
50182SOL     OW52378   4.751   2.324   1.510
50182SOL    HW152379   4.795   2.358   1.432
50182SOL    HW252380   4.768   2.229   1.508
50183SOL     OW52381   7.548  10.269   0.497
50183SOL    HW152382   7.630  10.289   0.451
50183SOL    HW252383   7.543  10.334   0.567
50184SOL     OW52384   3.595   9.462  11.554
50184SOL    HW152385   3.508   9.496  11.577
50184SOL    HW252386   3.650   9.486  11.629
50185SOL     OW52387   9.180  12.395   3.528
50185SOL    HW152388   9.219  12.478   3.556
50185SOL    HW252389   9.240  12.328   3.561
50186SOL     OW52390  13.269   3.880   1.565
50186SOL    HW152391  13.310   3.810   1.514
50186SOL    HW252392  13.190   3.841   1.602
50187SOL     OW52393  11.476   5.727   1.402
50187SOL    HW152394  11.382   5.726   1.419
50187SOL    HW252395  11.485   5.699   1.311
50188SOL     OW52396   1.546   9.497  10.054
50188SOL    HW152397   1.589   9.533   9.977
50188SOL    HW252398   1.615   9.450  10.101
50189SOL     OW52399   2.487   4.889   8.307
50189SOL    HW152400   2.580   4.901   8.328
50189SOL    HW252401   2.466   4.963   8.250
50190SOL     OW52402   5.486   6.685  12.623
50190SOL    HW152403   5.421   6.755  12.621
50190SOL    HW252404   5.471   6.641  12.707
50191SOL     OW52405   7.318   6.223   3.880
50191SOL    HW152406   7.405   6.236   3.918
50191SOL    HW252407   7.261   6.282   3.927
50192SOL     OW52408   0.819   8.709   4.527
50192SOL    HW152409   0.894   8.658   4.496
50192SOL    HW252410   0.857   8.792   4.555
50193SOL     OW52411   1.601   1.949  14.809
50193SOL    HW152412   1.617   2.031  14.855
50193SOL    HW252413   1.676   1.893  14.833
50194SOL     OW52414   6.217   2.861  10.026
50194SOL    HW152415   6.178   2.854  10.113
50194SOL    HW252416   6.148   2.830   9.967
50195SOL     OW52417   7.340  11.054   7.840
50195SOL    HW152418   7.373  11.125   7.784
50195SOL    HW252419   7.245  11.054   7.825
50196SOL     OW52420   5.712   8.768   6.010
50196SOL    HW152421   5.715   8.832   6.081
50196SOL    HW252422   5.719   8.683   6.055
50197SOL     OW52423   3.458  12.480  10.730
50197SOL    HW152424   3.436  12.396  10.691
50197SOL    HW252425   3.446  12.543  10.659
50198SOL     OW52426   9.579   8.049   6.873
50198SOL    HW152427   9.644   8.101   6.826
50198SOL    HW252428   9.532   8.002   6.804
50199SOL     OW52429   7.265  10.798  13.544
50199SOL    HW152430   7.337  10.740  13.522
50199SOL    HW252431   7.188  10.759  13.502
50200SOL     OW52432   9.111   7.097   6.072
50200SOL    HW152433   9.074   7.185   6.079
50200SOL    HW252434   9.074   7.049   6.147
50201SOL     OW52435   8.100   5.293   9.185
50201SOL    HW152436   8.138   5.309   9.099
50201SOL    HW252437   8.060   5.376   9.210
50202SOL     OW52438  14.381   9.589   9.620
50202SOL    HW152439  14.375   9.670   9.670
50202SOL    HW252440  14.370   9.616   9.529
50203SOL     OW52441   0.647   8.298  12.342
50203SOL    HW152442   0.575   8.347  12.302
50203SOL    HW252443   0.645   8.213  12.299
50204SOL     OW52444   2.178   8.874  10.237
50204SOL    HW152445   2.224   8.824  10.170
50204SOL    HW252446   2.234   8.869  10.314
50205SOL     OW52447   0.529   6.069   0.609
50205SOL    HW152448   0.441   6.107   0.609
50205SOL    HW252449   0.531   6.012   0.685
50206SOL     OW52450   7.458   1.200   4.957
50206SOL    HW152451   7.484   1.259   4.886
50206SOL    HW252452   7.506   1.119   4.940
50207SOL     OW52453  13.301  13.304   6.580
50207SOL    HW152454  13.345  13.285   6.663
50207SOL    HW252455  13.372  13.328   6.520
50208SOL     OW52456  12.377   9.648  14.858
50208SOL    HW152457  12.396   9.684  14.771
50208SOL    HW252458  12.296   9.598  14.846
50209SOL     OW52459  12.874  10.393   0.058
50209SOL    HW152460  12.866  10.478   0.016
50209SOL    HW252461  12.888  10.332  14.865
50210SOL     OW52462   4.845   8.049   1.452
50210SOL    HW152463   4.863   8.134   1.411
50210SOL    HW252464   4.931   8.017   1.479
50211SOL     OW52465   8.542   1.294   6.790
50211SOL    HW152466   8.581   1.243   6.719
50211SOL    HW252467   8.531   1.231   6.861
50212SOL     OW52468   3.056  12.697  13.184
50212SOL    HW152469   3.028  12.632  13.249
50212SOL    HW252470   3.012  12.670  13.103
50213SOL     OW52471   1.596   7.370   3.088
50213SOL    HW152472   1.558   7.424   3.157
50213SOL    HW252473   1.532   7.300   3.075
50214SOL     OW52474  11.071   4.973   3.132
50214SOL    HW152475  11.116   4.943   3.211
50214SOL    HW252476  10.978   4.960   3.151
50215SOL     OW52477   0.777   0.323   3.527
50215SOL    HW152478   0.720   0.390   3.487
50215SOL    HW252479   0.784   0.349   3.618
50216SOL     OW52480  14.858   6.009  10.832
50216SOL    HW152481  14.863   6.008  10.736
50216SOL    HW252482   0.070   6.011  10.860
50217SOL     OW52483  13.893   0.052  10.021
50217SOL    HW152484  13.935  14.848  10.041
50217SOL    HW252485  13.901   0.061   9.926
50218SOL     OW52486   9.466  12.538  13.590
50218SOL    HW152487   9.389  12.586  13.622
50218SOL    HW252488   9.435  12.494  13.511
50219SOL     OW52489   7.913   7.525   2.814
50219SOL    HW152490   7.970   7.450   2.802
50219SOL    HW252491   7.965   7.588   2.865
50220SOL     OW52492   0.411   9.049  12.563
50220SOL    HW152493   0.329   9.089  12.592
50220SOL    HW252494   0.479   9.097  12.610
50221SOL     OW52495   8.721  12.058   9.889
50221SOL    HW152496   8.629  12.033   9.889
50221SOL    HW252497   8.722  12.147   9.925
50222SOL     OW52498   2.493   8.115   6.824
50222SOL    HW152499   2.487   8.205   6.857
50222SOL    HW252500   2.504   8.062   6.903
50223SOL     OW52501   9.360   9.506   4.412
50223SOL    HW152502   9.316   9.494   4.496
50223SOL    HW252503   9.450   9.529   4.434
50224SOL     OW52504  10.980   7.837  12.553
50224SOL    HW152505  11.036   7.913  12.534
50224SOL    HW252506  10.985   7.827  12.648
50225SOL     OW52507  13.305   8.212   8.487
50225SOL    HW152508  13.384   8.264   8.506
50225SOL    HW252509  13.273   8.185   8.573
50226SOL     OW52510   7.666   4.536   3.289
50226SOL    HW152511   7.736   4.510   3.228
50226SOL    HW252512   7.628   4.614   3.249
50227SOL     OW52513   6.632  13.676  11.756
50227SOL    HW152514   6.707  13.616  11.757
50227SOL    HW252515   6.667  13.759  11.790
50228SOL     OW52516   9.200  10.564   8.620
50228SOL    HW152517   9.280  10.592   8.664
50228SOL    HW252518   9.177  10.638   8.563
50229SOL     OW52519  14.620   2.062   2.845
50229SOL    HW152520  14.553   2.127   2.824
50229SOL    HW252521  14.685   2.110   2.896
50230SOL     OW52522  12.777  12.630   7.587
50230SOL    HW152523  12.819  12.549   7.557
50230SOL    HW252524  12.839  12.699   7.564
50231SOL     OW52525  10.520  10.700  14.562
50231SOL    HW152526  10.467  10.778  14.544
50231SOL    HW252527  10.469  10.628  14.524
50232SOL     OW52528  10.245   0.557  10.641
50232SOL    HW152529  10.335   0.561  10.611
50232SOL    HW252530  10.195   0.602  10.574
50233SOL     OW52531   5.312   3.863   4.406
50233SOL    HW152532   5.337   3.947   4.367
50233SOL    HW252533   5.272   3.887   4.490
50234SOL     OW52534  14.548   7.849   4.321
50234SOL    HW152535  14.567   7.759   4.350
50234SOL    HW252536  14.586   7.904   4.389
50235SOL     OW52537   4.794  11.346   4.274
50235SOL    HW152538   4.889  11.348   4.273
50235SOL    HW252539   4.770  11.348   4.367
50236SOL     OW52540  10.413   6.316  14.161
50236SOL    HW152541  10.426   6.336  14.253
50236SOL    HW252542  10.493   6.348  14.118
50237SOL     OW52543   5.896   5.786   8.083
50237SOL    HW152544   5.948   5.707   8.070
50237SOL    HW252545   5.850   5.798   8.000
50238SOL     OW52546   8.123   6.410   6.874
50238SOL    HW152547   8.218   6.413   6.881
50238SOL    HW252548   8.103   6.318   6.858
50239SOL     OW52549   6.404   0.544  10.534
50239SOL    HW152550   6.426   0.564  10.625
50239SOL    HW252551   6.334   0.606  10.512
50240SOL     OW52552   4.441  11.058   4.442
50240SOL    HW152553   4.373  11.018   4.387
50240SOL    HW252554   4.412  11.148   4.454
50241SOL     OW52555   9.487  11.807   9.571
50241SOL    HW152556   9.435  11.804   9.492
50241SOL    HW252557   9.474  11.722   9.612
50242SOL     OW52558  13.045   8.213   7.409
50242SOL    HW152559  13.020   8.168   7.489
50242SOL    HW252560  13.121   8.266   7.433
50243SOL     OW52561   8.558   8.889   4.299
50243SOL    HW152562   8.526   8.818   4.354
50243SOL    HW252563   8.495   8.894   4.227
50244SOL     OW52564  11.454   6.151   6.261
50244SOL    HW152565  11.397   6.104   6.321
50244SOL    HW252566  11.541   6.117   6.278
50245SOL     OW52567   1.712  11.454   5.467
50245SOL    HW152568   1.693  11.521   5.401
50245SOL    HW252569   1.628  11.439   5.510
50246SOL     OW52570  11.890  12.255   6.905
50246SOL    HW152571  11.908  12.243   6.998
50246SOL    HW252572  11.970  12.295   6.870
50247SOL     OW52573  12.869   5.282   2.580
50247SOL    HW152574  12.789   5.237   2.608
50247SOL    HW252575  12.937   5.215   2.584
50248SOL     OW52576  11.266  13.639   8.212
50248SOL    HW152577  11.200  13.623   8.279
50248SOL    HW252578  11.339  13.680   8.258
50249SOL     OW52579   1.980   2.873   0.144
50249SOL    HW152580   1.895   2.886   0.186
50249SOL    HW252581   1.975   2.926   0.064
50250SOL     OW52582   1.529   3.000   8.229
50250SOL    HW152583   1.450   3.022   8.279
50250SOL    HW252584   1.535   3.069   8.163
50251SOL     OW52585   6.102  13.529   7.835
50251SOL    HW152586   6.052  13.518   7.754
50251SOL    HW252587   6.151  13.610   7.822
50252SOL     OW52588   9.771  14.596   9.033
50252SOL    HW152589   9.733  14.682   9.049
50252SOL    HW252590   9.829  14.609   8.957
50253SOL     OW52591   0.354   3.983   4.004
50253SOL    HW152592   0.284   4.031   4.048
50253SOL    HW252593   0.328   3.891   4.012
50254SOL     OW52594   9.316  13.596  12.869
50254SOL    HW152595   9.386  13.611  12.932
50254SOL    HW252596   9.352  13.533  12.807
50255SOL     OW52597   6.609   2.192   7.619
50255SOL    HW152598   6.613   2.176   7.525
50255SOL    HW252599   6.542   2.132   7.651
50256SOL     OW52600   1.769   1.360   5.768
50256SOL    HW152601   1.756   1.270   5.738
50256SOL    HW252602   1.841   1.355   5.831
50257SOL     OW52603  13.317  11.716  14.515
50257SOL    HW152604  13.363  11.676  14.442
50257SOL    HW252605  13.385  11.759  14.566
50258SOL     OW52606   8.306   5.995   9.060
50258SOL    HW152607   8.363   6.066   9.031
50258SOL    HW252608   8.362   5.941   9.117
50259SOL     OW52609  11.621   3.899  11.702
50259SOL    HW152610  11.691   3.833  11.708
50259SOL    HW252611  11.658   3.967  11.646
50260SOL     OW52612  13.707   8.303   9.131
50260SOL    HW152613  13.651   8.243   9.180
50260SOL    HW252614  13.771   8.246   9.089
50261SOL     OW52615   0.605   7.961   0.622
50261SOL    HW152616   0.569   7.880   0.659
50261SOL    HW252617   0.528   8.013   0.598
50262SOL     OW52618   8.127   5.204   2.130
50262SOL    HW152619   8.162   5.132   2.182
50262SOL    HW252620   8.194   5.273   2.137
50263SOL     OW52621   8.356   3.148   8.166
50263SOL    HW152622   8.344   3.147   8.071
50263SOL    HW252623   8.294   3.215   8.197
50264SOL     OW52624  14.075   7.644  12.751
50264SOL    HW152625  14.162   7.629  12.714
50264SOL    HW252626  14.017   7.588  12.699
50265SOL     OW52627  14.089   3.314  14.039
50265SOL    HW152628  14.042   3.322  13.956
50265SOL    HW252629  14.142   3.235  14.029
50266SOL     OW52630   4.791   7.728   0.407
50266SOL    HW152631   4.802   7.670   0.332
50266SOL    HW252632   4.777   7.814   0.369
50267SOL     OW52633   0.227   8.003   2.728
50267SOL    HW152634   0.214   8.095   2.751
50267SOL    HW252635   0.210   7.956   2.809
50268SOL     OW52636   7.486  12.707   0.536
50268SOL    HW152637   7.568  12.750   0.559
50268SOL    HW252638   7.499  12.674   0.448
50269SOL     OW52639  10.128  12.280   7.262
50269SOL    HW152640  10.214  12.299   7.225
50269SOL    HW252641  10.105  12.359   7.311
50270SOL     OW52642  11.718  10.522  10.662
50270SOL    HW152643  11.656  10.457  10.694
50270SOL    HW252644  11.738  10.576  10.738
50271SOL     OW52645   8.152   8.307   3.282
50271SOL    HW152646   8.160   8.267   3.196
50271SOL    HW252647   8.243   8.327   3.308
50272SOL     OW52648   4.074   9.303   3.376
50272SOL    HW152649   4.120   9.223   3.352
50272SOL    HW252650   3.982   9.278   3.379
50273SOL     OW52651  13.680   1.945  11.351
50273SOL    HW152652  13.726   2.023  11.321
50273SOL    HW252653  13.697   1.942  11.445
50274SOL     OW52654   4.929   0.688  10.881
50274SOL    HW152655   4.873   0.763  10.903
50274SOL    HW252656   4.876   0.612  10.905
50275SOL     OW52657  11.214   6.754   9.159
50275SOL    HW152658  11.271   6.677   9.159
50275SOL    HW252659  11.207   6.779   9.251
50276SOL     OW52660   3.071   4.237   3.882
50276SOL    HW152661   3.139   4.252   3.816
50276SOL    HW252662   3.110   4.175   3.943
50277SOL     OW52663  12.556  11.082   5.992
50277SOL    HW152664  12.467  11.046   5.998
50277SOL    HW252665  12.543  11.175   5.974
50278SOL     OW52666   2.307  13.065  11.718
50278SOL    HW152667   2.376  13.012  11.757
50278SOL    HW252668   2.265  13.009  11.654
50279SOL     OW52669   8.507   2.441   3.226
50279SOL    HW152670   8.549   2.521   3.193
50279SOL    HW252671   8.459   2.470   3.304
50280SOL     OW52672   6.581   9.070  14.813
50280SOL    HW152673   6.670   9.040  14.794
50280SOL    HW252674   6.531   8.990  14.825
50281SOL     OW52675   9.783   9.804   5.836
50281SOL    HW152676   9.863   9.786   5.885
50281SOL    HW252677   9.773   9.730   5.777
50282SOL     OW52678  10.136   7.268   0.388
50282SOL    HW152679  10.181   7.311   0.315
50282SOL    HW252680  10.201   7.266   0.458
50283SOL     OW52681  13.663   4.628  12.884
50283SOL    HW152682  13.649   4.707  12.936
50283SOL    HW252683  13.757   4.623  12.872
50284SOL     OW52684  11.774  13.109   6.091
50284SOL    HW152685  11.811  13.146   6.012
50284SOL    HW252686  11.742  13.022   6.065
50285SOL     OW52687   4.001  11.995   4.988
50285SOL    HW152688   3.976  11.914   4.944
50285SOL    HW252689   4.081  11.973   5.037
50286SOL     OW52690   6.767   7.433   0.607
50286SOL    HW152691   6.781   7.453   0.514
50286SOL    HW252692   6.838   7.372   0.628
50287SOL     OW52693  12.575  13.568   0.132
50287SOL    HW152694  12.626  13.623   0.073
50287SOL    HW252695  12.499  13.542   0.081
50288SOL     OW52696   4.296   7.613   0.791
50288SOL    HW152697   4.277   7.616   0.885
50288SOL    HW252698   4.223   7.661   0.750
50289SOL     OW52699  14.029   7.847  12.950
50289SOL    HW152700  13.981   7.922  12.915
50289SOL    HW252701  14.068   7.805  12.874
50290SOL     OW52702   0.479   0.365   9.683
50290SOL    HW152703   0.517   0.293   9.633
50290SOL    HW252704   0.418   0.322   9.744
50291SOL     OW52705  11.683   3.606   7.186
50291SOL    HW152706  11.604   3.580   7.139
50291SOL    HW252707  11.746   3.626   7.116
50292SOL     OW52708   6.215  11.584   3.289
50292SOL    HW152709   6.190  11.636   3.366
50292SOL    HW252710   6.240  11.650   3.223
50293SOL     OW52711  14.796   4.970   9.781
50293SOL    HW152712  14.835   4.890   9.746
50293SOL    HW252713  14.747   5.007   9.707
50294SOL     OW52714  12.476   3.003   2.150
50294SOL    HW152715  12.390   2.984   2.112
50294SOL    HW252716  12.475   2.961   2.236
50295SOL     OW52717   7.617  11.411   2.614
50295SOL    HW152718   7.550  11.359   2.570
50295SOL    HW252719   7.696  11.357   2.609
50296SOL     OW52720  11.303   6.731  14.187
50296SOL    HW152721  11.300   6.805  14.248
50296SOL    HW252722  11.292   6.654  14.243
50297SOL     OW52723   5.905   5.018   2.461
50297SOL    HW152724   5.924   5.105   2.496
50297SOL    HW252725   5.810   5.018   2.449
50298SOL     OW52726   2.178   0.710   0.557
50298SOL    HW152727   2.173   0.704   0.653
50298SOL    HW252728   2.261   0.668   0.535
50299SOL     OW52729   0.298  11.316   4.890
50299SOL    HW152730   0.313  11.295   4.798
50299SOL    HW252731   0.380  11.354   4.920
50300SOL     OW52732   4.138   5.305   8.091
50300SOL    HW152733   4.061   5.297   8.147
50300SOL    HW252734   4.139   5.398   8.065
50301SOL     OW52735  11.519   7.391  10.208
50301SOL    HW152736  11.529   7.368  10.300
50301SOL    HW252737  11.530   7.308  10.161
50302SOL     OW52738   6.130   2.041   1.304
50302SOL    HW152739   6.045   2.023   1.342
50302SOL    HW252740   6.176   2.092   1.371
50303SOL     OW52741   4.852   9.786   2.984
50303SOL    HW152742   4.864   9.712   3.044
50303SOL    HW252743   4.840   9.746   2.898
50304SOL     OW52744   1.639   8.615  11.226
50304SOL    HW152745   1.734   8.614  11.234
50304SOL    HW252746   1.611   8.529  11.259
50305SOL     OW52747   9.950  12.173   6.151
50305SOL    HW152748   9.922  12.174   6.243
50305SOL    HW252749   9.935  12.262   6.120
50306SOL     OW52750   0.520   5.269  12.274
50306SOL    HW152751   0.510   5.325  12.196
50306SOL    HW252752   0.488   5.183  12.246
50307SOL     OW52753   2.722   4.566  13.132
50307SOL    HW152754   2.633   4.587  13.160
50307SOL    HW252755   2.714   4.548  13.038
50308SOL     OW52756  10.233   3.495   7.939
50308SOL    HW152757  10.199   3.436   7.872
50308SOL    HW252758  10.203   3.582   7.912
50309SOL     OW52759   1.909   6.536   4.839
50309SOL    HW152760   1.944   6.594   4.771
50309SOL    HW252761   1.828   6.502   4.803
50310SOL     OW52762   4.087   7.876  10.645
50310SOL    HW152763   4.100   7.808  10.711
50310SOL    HW252764   4.175   7.902  10.618
50311SOL     OW52765   9.808  13.856   0.632
50311SOL    HW152766   9.814  13.803   0.711
50311SOL    HW252767   9.829  13.796   0.561
50312SOL     OW52768  14.672  10.359   2.595
50312SOL    HW152769  14.672  10.304   2.674
50312SOL    HW252770  14.753  10.336   2.551
50313SOL     OW52771  14.777  13.832  12.973
50313SOL    HW152772  14.775  13.901  13.039
50313SOL    HW252773  14.769  13.751  13.023
50314SOL     OW52774  12.900   3.213   8.155
50314SOL    HW152775  12.947   3.165   8.087
50314SOL    HW252776  12.969   3.250   8.211
50315SOL     OW52777   8.146   7.567   7.748
50315SOL    HW152778   8.175   7.552   7.838
50315SOL    HW252779   8.224   7.597   7.702
50316SOL     OW52780  13.450  11.741   0.013
50316SOL    HW152781  13.454  11.646  14.878
50316SOL    HW252782  13.469  11.779  14.806
50317SOL     OW52783   9.792   9.884   8.696
50317SOL    HW152784   9.831   9.828   8.763
50317SOL    HW252785   9.700   9.891   8.722
50318SOL     OW52786  10.856   6.055   5.977
50318SOL    HW152787  10.802   6.132   5.956
50318SOL    HW252788  10.899   6.078   6.059
50319SOL     OW52789  13.024  14.535   7.085
50319SOL    HW152790  13.117  14.547   7.107
50319SOL    HW252791  12.987  14.489   7.160
50320SOL     OW52792   4.456   8.146   4.889
50320SOL    HW152793   4.491   8.109   4.808
50320SOL    HW252794   4.363   8.163   4.870
50321SOL     OW52795   9.245  11.810  13.721
50321SOL    HW152796   9.328  11.856  13.735
50321SOL    HW252797   9.270  11.727  13.680
50322SOL     OW52798  10.898  14.476   7.774
50322SOL    HW152799  10.865  14.393   7.741
50322SOL    HW252800  10.911  14.530   7.696
50323SOL     OW52801   8.008   9.068   8.516
50323SOL    HW152802   7.931   9.040   8.466
50323SOL    HW252803   8.080   9.017   8.479
50324SOL     OW52804   3.789  12.116  14.039
50324SOL    HW152805   3.699  12.125  14.070
50324SOL    HW252806   3.800  12.188  13.976
50325SOL     OW52807   8.127   7.316   9.927
50325SOL    HW152808   8.180   7.392   9.903
50325SOL    HW252809   8.187   7.259   9.975
50326SOL     OW52810  12.350   4.552   9.111
50326SOL    HW152811  12.319   4.583   9.026
50326SOL    HW252812  12.282   4.491   9.141
50327SOL     OW52813   6.407  12.760   2.301
50327SOL    HW152814   6.331  12.809   2.332
50327SOL    HW252815   6.440  12.812   2.228
50328SOL     OW52816   7.369   9.218  11.935
50328SOL    HW152817   7.309   9.195  12.005
50328SOL    HW252818   7.437   9.150  11.938
50329SOL     OW52819  14.643   7.563   4.444
50329SOL    HW152820  14.641   7.484   4.497
50329SOL    HW252821  14.737   7.582   4.434
50330SOL     OW52822   4.109  14.225  10.873
50330SOL    HW152823   4.125  14.268  10.956
50330SOL    HW252824   4.039  14.162  10.892
50331SOL     OW52825  14.275   8.874  12.061
50331SOL    HW152826  14.249   8.824  11.984
50331SOL    HW252827  14.217   8.950  12.062
50332SOL     OW52828   4.340   4.688   4.698
50332SOL    HW152829   4.315   4.718   4.785
50332SOL    HW252830   4.401   4.616   4.713
50333SOL     OW52831   4.217  11.031   6.759
50333SOL    HW152832   4.205  11.125   6.744
50333SOL    HW252833   4.163  10.989   6.692
50334SOL     OW52834  11.889  12.732   6.936
50334SOL    HW152835  11.850  12.644   6.942
50334SOL    HW252836  11.935  12.743   7.020
50335SOL     OW52837   2.983   2.912  14.234
50335SOL    HW152838   2.923   2.851  14.276
50335SOL    HW252839   2.927   2.971  14.184
50336SOL     OW52840  13.096   9.811   7.424
50336SOL    HW152841  13.174   9.818   7.478
50336SOL    HW252842  13.124   9.842   7.337
50337SOL     OW52843   4.148   7.102   5.222
50337SOL    HW152844   4.199   7.068   5.295
50337SOL    HW252845   4.073   7.042   5.216
50338SOL     OW52846   1.044   1.475   6.444
50338SOL    HW152847   1.091   1.487   6.526
50338SOL    HW252848   1.008   1.386   6.449
50339SOL     OW52849   8.715   8.774   8.652
50339SOL    HW152850   8.712   8.861   8.692
50339SOL    HW252851   8.675   8.717   8.718
50340SOL     OW52852   8.573  12.958   0.415
50340SOL    HW152853   8.651  12.914   0.382
50340SOL    HW252854   8.602  13.046   0.439
50341SOL     OW52855   7.262   0.462   3.218
50341SOL    HW152856   7.238   0.520   3.146
50341SOL    HW252857   7.316   0.394   3.177
50342SOL     OW52858  11.431   2.349   9.540
50342SOL    HW152859  11.343   2.373   9.571
50342SOL    HW252860  11.490   2.383   9.608
50343SOL     OW52861   3.848   3.544  12.187
50343SOL    HW152862   3.866   3.503  12.103
50343SOL    HW252863   3.844   3.637  12.168
50344SOL     OW52864   4.004   4.855   7.937
50344SOL    HW152865   4.019   4.904   7.856
50344SOL    HW252866   4.086   4.807   7.951
50345SOL     OW52867   9.638   8.876   6.708
50345SOL    HW152868   9.580   8.944   6.675
50345SOL    HW252869   9.725   8.900   6.675
50346SOL     OW52870   2.658   2.586   5.895
50346SOL    HW152871   2.694   2.638   5.966
50346SOL    HW252872   2.563   2.596   5.902
50347SOL     OW52873  10.186   1.969   1.817
50347SOL    HW152874  10.228   2.032   1.758
50347SOL    HW252875  10.095   1.966   1.786
50348SOL     OW52876  11.646   4.650   4.309
50348SOL    HW152877  11.625   4.557   4.319
50348SOL    HW252878  11.620   4.670   4.219
50349SOL     OW52879   6.522  13.151   1.345
50349SOL    HW152880   6.598  13.180   1.395
50349SOL    HW252881   6.516  13.212   1.272
50350SOL     OW52882   3.518  11.247   5.878
50350SOL    HW152883   3.514  11.170   5.934
50350SOL    HW252884   3.431  11.252   5.836
50351SOL     OW52885   7.925   6.309   3.106
50351SOL    HW152886   7.941   6.290   3.014
50351SOL    HW252887   7.840   6.270   3.125
50352SOL     OW52888  10.785  14.008  10.320
50352SOL    HW152889  10.841  14.048  10.386
50352SOL    HW252890  10.697  14.012  10.357
50353SOL     OW52891   5.504  14.386  11.997
50353SOL    HW152892   5.432  14.420  12.050
50353SOL    HW252893   5.520  14.298  12.031
50354SOL     OW52894  14.442   3.931   8.406
50354SOL    HW152895  14.437   3.842   8.440
50354SOL    HW252896  14.462   3.985   8.482
50355SOL     OW52897   9.768   6.098  12.022
50355SOL    HW152898   9.855   6.064  12.041
50355SOL    HW252899   9.745   6.151  12.098
50356SOL     OW52900   8.575  10.171   3.044
50356SOL    HW152901   8.665  10.190   3.071
50356SOL    HW252902   8.577  10.079   3.019
50357SOL     OW52903  10.525   2.961   6.578
50357SOL    HW152904  10.436   2.928   6.590
50357SOL    HW252905  10.581   2.890   6.610
50358SOL     OW52906  11.536   9.555   9.290
50358SOL    HW152907  11.519   9.635   9.340
50358SOL    HW252908  11.568   9.587   9.205
50359SOL     OW52909   3.973  13.427   9.248
50359SOL    HW152910   3.963  13.500   9.186
50359SOL    HW252911   3.930  13.353   9.205
50360SOL     OW52912   7.396   3.237   7.549
50360SOL    HW152913   7.481   3.275   7.530
50360SOL    HW252914   7.382   3.174   7.478
50361SOL     OW52915  10.334  10.124   8.920
50361SOL    HW152916  10.319  10.218   8.913
50361SOL    HW252917  10.249  10.088   8.946
50362SOL     OW52918   8.248   6.184   2.659
50362SOL    HW152919   8.331   6.139   2.673
50362SOL    HW252920   8.273   6.270   2.623
50363SOL     OW52921  11.957   3.145  11.467
50363SOL    HW152922  11.962   3.089  11.389
50363SOL    HW252923  11.971   3.085  11.540
50364SOL     OW52924   8.647   0.278   9.889
50364SOL    HW152925   8.742   0.281   9.873
50364SOL    HW252926   8.627   0.364   9.927
50365SOL     OW52927   2.314   8.519  10.615
50365SOL    HW152928   2.237   8.503  10.561
50365SOL    HW252929   2.300   8.466  10.694
50366SOL     OW52930   4.979   6.474   1.160
50366SOL    HW152931   5.009   6.540   1.222
50366SOL    HW252932   4.983   6.517   1.075
50367SOL     OW52933  14.421  11.213   3.226
50367SOL    HW152934  14.445  11.128   3.263
50367SOL    HW252935  14.500  11.243   3.182
50368SOL     OW52936   2.211  10.431   9.226
50368SOL    HW152937   2.274  10.407   9.158
50368SOL    HW252938   2.225  10.367   9.296
50369SOL     OW52939  10.587   2.765   0.561
50369SOL    HW152940  10.673   2.722   0.568
50369SOL    HW252941  10.563   2.783   0.652
50370SOL     OW52942   1.183   5.572   2.737
50370SOL    HW152943   1.135   5.610   2.812
50370SOL    HW252944   1.157   5.480   2.736
50371SOL     OW52945   8.693   9.677   4.435
50371SOL    HW152946   8.691   9.702   4.527
50371SOL    HW252947   8.739   9.750   4.392
50372SOL     OW52948   3.880   2.334   2.774
50372SOL    HW152949   3.853   2.372   2.691
50372SOL    HW252950   3.812   2.361   2.836
50373SOL     OW52951   6.670  12.978  11.851
50373SOL    HW152952   6.610  12.979  11.926
50373SOL    HW252953   6.671  13.069  11.821
50374SOL     OW52954   9.987   3.385   9.098
50374SOL    HW152955  10.037   3.457   9.058
50374SOL    HW252956   9.912   3.374   9.040
50375SOL     OW52957   4.201   0.699  10.678
50375SOL    HW152958   4.258   0.698  10.601
50375SOL    HW252959   4.139   0.770  10.662
50376SOL     OW52960   8.297  13.121   0.170
50376SOL    HW152961   8.389  13.145   0.180
50376SOL    HW252962   8.281  13.125   0.075
50377SOL     OW52963  12.141   3.744  12.279
50377SOL    HW152964  12.062   3.797  12.280
50377SOL    HW252965  12.116   3.662  12.236
50378SOL     OW52966   9.976   8.877  10.057
50378SOL    HW152967   9.940   8.793  10.028
50378SOL    HW252968  10.030   8.907   9.983
50379SOL     OW52969  13.465  11.140  13.513
50379SOL    HW152970  13.420  11.137  13.597
50379SOL    HW252971  13.558  11.129  13.534
50380SOL     OW52972  13.967   5.074  12.620
50380SOL    HW152973  13.886   5.028  12.645
50380SOL    HW252974  13.966   5.154  12.671
50381SOL     OW52975  10.212   6.298   7.820
50381SOL    HW152976  10.230   6.392   7.820
50381SOL    HW252977  10.145   6.286   7.753
50382SOL     OW52978   4.777   4.033   7.594
50382SOL    HW152979   4.839   4.067   7.659
50382SOL    HW252980   4.722   3.972   7.642
50383SOL     OW52981  10.332   3.391   6.206
50383SOL    HW152982  10.244   3.404   6.169
50383SOL    HW252983  10.334   3.445   6.285
50384SOL     OW52984   7.048   1.581  10.792
50384SOL    HW152985   7.137   1.545  10.797
50384SOL    HW252986   7.020   1.565  10.702
50385SOL     OW52987   8.074  13.275  14.720
50385SOL    HW152988   8.159  13.304  14.687
50385SOL    HW252989   8.069  13.183  14.695
50386SOL     OW52990  13.397   9.410   6.114
50386SOL    HW152991  13.345   9.459   6.178
50386SOL    HW252992  13.466   9.472   6.088
50387SOL     OW52993   3.625  11.516   2.475
50387SOL    HW152994   3.672  11.467   2.408
50387SOL    HW252995   3.684  11.517   2.550
50388SOL     OW52996  10.503  13.708   3.393
50388SOL    HW152997  10.579  13.706   3.450
50388SOL    HW252998  10.429  13.686   3.449
50389SOL     OW52999   7.278   5.281   2.374
50389SOL    HW153000   7.227   5.353   2.412
50389SOL    HW253001   7.213   5.225   2.332
50390SOL     OW53002  14.351   3.643  11.617
50390SOL    HW153003  14.424   3.705  11.614
50390SOL    HW253004  14.357   3.604  11.704
50391SOL     OW53005   4.019  10.355   0.888
50391SOL    HW153006   4.105  10.370   0.849
50391SOL    HW253007   4.023  10.401   0.972
50392SOL     OW53008  11.844   0.857  11.815
50392SOL    HW153009  11.755   0.889  11.822
50392SOL    HW253010  11.899   0.934  11.832
50393SOL     OW53011  14.114  10.858   3.333
50393SOL    HW153012  14.124  10.835   3.425
50393SOL    HW253013  14.020  10.872   3.321
50394SOL     OW53014   7.591   3.656  10.034
50394SOL    HW153015   7.637   3.739  10.042
50394SOL    HW253016   7.578   3.645   9.939
50395SOL     OW53017  13.799   9.290  12.183
50395SOL    HW153018  13.771   9.281  12.092
50395SOL    HW253019  13.868   9.357  12.181
50396SOL     OW53020  10.725   2.691   9.282
50396SOL    HW153021  10.637   2.727   9.274
50396SOL    HW253022  10.779   2.746   9.225
50397SOL     OW53023   3.384   3.009  11.721
50397SOL    HW153024   3.342   2.924  11.717
50397SOL    HW253025   3.312   3.072  11.725
50398SOL     OW53026   3.548   2.255   4.184
50398SOL    HW153027   3.561   2.217   4.097
50398SOL    HW253028   3.627   2.231   4.233
50399SOL     OW53029   7.196  12.777   2.663
50399SOL    HW153030   7.247  12.699   2.647
50399SOL    HW253031   7.186  12.819   2.577
50400SOL     OW53032   1.475   7.443  11.803
50400SOL    HW153033   1.529   7.366  11.821
50400SOL    HW253034   1.473   7.449  11.708
50401SOL     OW53035  11.113  11.210   2.130
50401SOL    HW153036  11.064  11.138   2.090
50401SOL    HW253037  11.075  11.289   2.091
50402SOL     OW53038   0.368   2.849   7.395
50402SOL    HW153039   0.364   2.869   7.302
50402SOL    HW253040   0.453   2.808   7.408
50403SOL     OW53041   6.394  10.406   8.899
50403SOL    HW153042   6.346  10.480   8.862
50403SOL    HW253043   6.480  10.410   8.857
50404SOL     OW53044   2.223   3.792   0.114
50404SOL    HW153045   2.157   3.727   0.093
50404SOL    HW253046   2.286   3.747   0.170
50405SOL     OW53047   2.244   2.590  14.838
50405SOL    HW153048   2.206   2.646  14.770
50405SOL    HW253049   2.168   2.549   0.001
50406SOL     OW53050  14.821   5.245   6.747
50406SOL    HW153051  14.781   5.293   6.819
50406SOL    HW253052  14.775   5.274   6.669
50407SOL     OW53053   5.753   2.616   8.501
50407SOL    HW153054   5.720   2.532   8.531
50407SOL    HW253055   5.770   2.603   8.407
50408SOL     OW53056   9.215  13.310   1.199
50408SOL    HW153057   9.246  13.308   1.290
50408SOL    HW253058   9.283  13.265   1.149
50409SOL     OW53059   3.440   7.982   5.179
50409SOL    HW153060   3.376   7.916   5.152
50409SOL    HW253061   3.390   8.063   5.185
50410SOL     OW53062   0.362  13.229   6.662
50410SOL    HW153063   0.347  13.171   6.736
50410SOL    HW253064   0.452  13.262   6.675
50411SOL     OW53065   4.815   5.585   3.268
50411SOL    HW153066   4.785   5.666   3.310
50411SOL    HW253067   4.757   5.517   3.302
50412SOL     OW53068   9.272   2.639  12.029
50412SOL    HW153069   9.196   2.586  12.006
50412SOL    HW253070   9.238   2.729  12.029
50413SOL     OW53071   3.064  10.801  11.409
50413SOL    HW153072   3.016  10.804  11.327
50413SOL    HW253073   3.151  10.770  11.385
50414SOL     OW53074   1.249  10.258   2.062
50414SOL    HW153075   1.158  10.231   2.072
50414SOL    HW253076   1.297  10.200   2.122
50415SOL     OW53077  12.668   5.531  11.111
50415SOL    HW153078  12.652   5.596  11.179
50415SOL    HW253079  12.663   5.579  11.029
50416SOL     OW53080  10.164  10.006   5.233
50416SOL    HW153081  10.198  10.094   5.251
50416SOL    HW253082  10.158  10.002   5.137
50417SOL     OW53083  10.161  14.463  11.593
50417SOL    HW153084  10.245  14.492  11.630
50417SOL    HW253085  10.111  14.432  11.668
50418SOL     OW53086   3.944   5.894   5.970
50418SOL    HW153087   3.963   5.828   5.903
50418SOL    HW253088   4.022   5.896   6.025
50419SOL     OW53089   8.968   5.391   5.955
50419SOL    HW153090   9.052   5.432   5.932
50419SOL    HW253091   8.992   5.313   6.005
50420SOL     OW53092   4.418   4.587  10.634
50420SOL    HW153093   4.423   4.677  10.602
50420SOL    HW253094   4.381   4.595  10.722
50421SOL     OW53095   6.175   5.215   3.145
50421SOL    HW153096   6.188   5.262   3.063
50421SOL    HW253097   6.242   5.146   3.144
50422SOL     OW53098  11.246   0.667  14.269
50422SOL    HW153099  11.183   0.688  14.200
50422SOL    HW253100  11.253   0.748  14.320
50423SOL     OW53101   0.411   2.480   3.244
50423SOL    HW153102   0.341   2.544   3.253
50423SOL    HW253103   0.441   2.490   3.153
50424SOL     OW53104  11.093   2.040   1.332
50424SOL    HW153105  11.034   2.109   1.300
50424SOL    HW253106  11.178   2.063   1.296
50425SOL     OW53107  12.832   7.278   6.775
50425SOL    HW153108  12.905   7.216   6.777
50425SOL    HW253109  12.848   7.333   6.699
50426SOL     OW53110  10.171   6.491  14.759
50426SOL    HW153111  10.178   6.556  14.830
50426SOL    HW253112  10.103   6.525  14.701
50427SOL     OW53113   7.213   3.571   3.295
50427SOL    HW153114   7.286   3.510   3.289
50427SOL    HW253115   7.138   3.521   3.261
50428SOL     OW53116   4.435   5.325   2.900
50428SOL    HW153117   4.523   5.362   2.901
50428SOL    HW253118   4.434   5.265   2.975
50429SOL     OW53119  14.536  10.403   9.528
50429SOL    HW153120  14.547  10.314   9.559
50429SOL    HW253121  14.459  10.400   9.471
50430SOL     OW53122   1.300   8.976  12.298
50430SOL    HW153123   1.247   9.015  12.228
50430SOL    HW253124   1.382   8.952  12.255
50431SOL     OW53125   4.699   9.812   0.404
50431SOL    HW153126   4.665   9.746   0.343
50431SOL    HW253127   4.719   9.887   0.348
50432SOL     OW53128   6.970   0.194  11.143
50432SOL    HW153129   7.034   0.242  11.089
50432SOL    HW253130   6.890   0.196  11.091
50433SOL     OW53131   7.694   7.328   5.026
50433SOL    HW153132   7.713   7.358   5.115
50433SOL    HW253133   7.668   7.408   4.979
50434SOL     OW53134   6.760   0.084   8.535
50434SOL    HW153135   6.708   0.003   8.531
50434SOL    HW253136   6.724   0.132   8.610
50435SOL     OW53137   9.606  10.341   9.733
50435SOL    HW153138   9.626  10.413   9.793
50435SOL    HW253139   9.689  10.297   9.720
50436SOL     OW53140  11.740  11.556  14.076
50436SOL    HW153141  11.813  11.512  14.034
50436SOL    HW253142  11.665  11.538  14.019
50437SOL     OW53143   4.624   9.681   3.355
50437SOL    HW153144   4.552   9.738   3.383
50437SOL    HW253145   4.609   9.669   3.261
50438SOL     OW53146   1.293  13.613   7.768
50438SOL    HW153147   1.270  13.702   7.740
50438SOL    HW253148   1.388  13.614   7.772
50439SOL     OW53149  11.395  12.108   5.537
50439SOL    HW153150  11.418  12.069   5.453
50439SOL    HW253151  11.323  12.054   5.570
50440SOL     OW53152   0.081  10.936   9.035
50440SOL    HW153153   0.089  10.842   9.049
50440SOL    HW253154   0.171  10.965   9.016
50441SOL     OW53155   1.253   0.168   9.520
50441SOL    HW153156   1.329   0.221   9.543
50441SOL    HW253157   1.196   0.173   9.597
50442SOL     OW53158   8.629  13.311   2.267
50442SOL    HW153159   8.548  13.362   2.266
50442SOL    HW253160   8.673  13.338   2.348
50443SOL     OW53161  14.353   4.723   8.779
50443SOL    HW153162  14.347   4.634   8.812
50443SOL    HW253163  14.414   4.766   8.839
50444SOL     OW53164   3.479   1.925   9.277
50444SOL    HW153165   3.433   1.997   9.321
50444SOL    HW253166   3.412   1.883   9.223
50445SOL     OW53167  10.987  14.810  14.038
50445SOL    HW153168  11.001  14.722  14.003
50445SOL    HW253169  11.020  14.868  13.969
50446SOL     OW53170   0.075   5.963   3.831
50446SOL    HW153171   0.080   5.978   3.737
50446SOL    HW253172   0.166   5.969   3.861
50447SOL     OW53173   6.075   4.877   6.071
50447SOL    HW153174   6.067   4.911   6.160
50447SOL    HW253175   6.085   4.955   6.017
50448SOL     OW53176   0.442  11.191   2.962
50448SOL    HW153177   0.498  11.127   2.917
50448SOL    HW253178   0.431  11.262   2.899
50449SOL     OW53179  13.126   2.766   7.368
50449SOL    HW153180  13.187   2.710   7.320
50449SOL    HW253181  13.115   2.843   7.312
50450SOL     OW53182   9.941   0.344   6.114
50450SOL    HW153183   9.946   0.260   6.069
50450SOL    HW253184   9.862   0.337   6.168
50451SOL     OW53185  11.941  13.601   7.319
50451SOL    HW153186  11.903  13.537   7.380
50451SOL    HW253187  11.883  13.599   7.243
50452SOL     OW53188   2.810   2.200   0.025
50452SOL    HW153189   2.768   2.115   0.013
50452SOL    HW253190   2.864   2.189   0.103
50453SOL     OW53191  13.688   3.106  11.656
50453SOL    HW153192  13.760   3.128  11.597
50453SOL    HW253193  13.688   3.176  11.721
50454SOL     OW53194  10.150   5.069   7.590
50454SOL    HW153195  10.168   5.056   7.497
50454SOL    HW253196  10.190   5.153   7.610
50455SOL     OW53197   9.154   4.572   2.216
50455SOL    HW153198   9.145   4.477   2.206
50455SOL    HW253199   9.244   4.585   2.247
50456SOL     OW53200  14.700   6.599   6.141
50456SOL    HW153201  14.754   6.527   6.174
50456SOL    HW253202  14.679   6.650   6.219
50457SOL     OW53203   6.662   6.135   5.887
50457SOL    HW153204   6.657   6.169   5.977
50457SOL    HW253205   6.623   6.204   5.834
50458SOL     OW53206   3.144  11.256  11.464
50458SOL    HW153207   3.162  11.325  11.528
50458SOL    HW253208   3.204  11.185  11.489
50459SOL     OW53209   7.177  12.048   5.620
50459SOL    HW153210   7.157  11.959   5.647
50459SOL    HW253211   7.185  12.043   5.525
50460SOL     OW53212  13.974   8.104   6.472
50460SOL    HW153213  13.997   8.187   6.513
50460SOL    HW253214  13.878   8.101   6.476
50461SOL     OW53215   5.119   7.261  12.631
50461SOL    HW153216   5.214   7.249  12.630
50461SOL    HW253217   5.100   7.290  12.721
50462SOL     OW53218   1.034  13.694   7.343
50462SOL    HW153219   0.954  13.658   7.304
50462SOL    HW253220   1.091  13.618   7.356
50463SOL     OW53221  12.139   8.236  14.312
50463SOL    HW153222  12.112   8.326  14.292
50463SOL    HW253223  12.125   8.228  14.407
50464SOL     OW53224   6.390   6.705   0.706
50464SOL    HW153225   6.362   6.789   0.669
50464SOL    HW253226   6.474   6.688   0.665
50465SOL     OW53227   3.597  10.119   2.988
50465SOL    HW153228   3.610  10.047   2.926
50465SOL    HW253229   3.509  10.152   2.969
50466SOL     OW53230   9.077  13.841  14.045
50466SOL    HW153231   9.138  13.844  14.118
50466SOL    HW253232   8.990  13.843  14.087
50467SOL     OW53233   3.259  10.546   3.785
50467SOL    HW153234   3.221  10.613   3.841
50467SOL    HW253235   3.286  10.592   3.706
50468SOL     OW53236   0.573   9.770   1.776
50468SOL    HW153237   0.630   9.694   1.763
50468SOL    HW253238   0.524   9.749   1.856
50469SOL     OW53239   1.377   7.653  12.342
50469SOL    HW153240   1.299   7.623  12.387
50469SOL    HW253241   1.448   7.643  12.405
50470SOL     OW53242  10.160  14.850  10.352
50470SOL    HW153243  10.128   0.033  10.418
50470SOL    HW253244  10.214   0.024  10.293
50471SOL     OW53245   5.471   8.457   9.890
50471SOL    HW153246   5.475   8.528   9.826
50471SOL    HW253247   5.563   8.430   9.902
50472SOL     OW53248   4.237  11.399   7.048
50472SOL    HW153249   4.314  11.357   7.086
50472SOL    HW253250   4.272  11.463   6.986
50473SOL     OW53251   2.878  11.104   8.574
50473SOL    HW153252   2.858  11.195   8.598
50473SOL    HW253253   2.890  11.060   8.658
50474SOL     OW53254  14.649   4.009  10.909
50474SOL    HW153255  14.625   4.101  10.908
50474SOL    HW253256  14.605   3.973  10.986
50475SOL     OW53257   1.907  14.634   7.544
50475SOL    HW153258   1.980  14.665   7.599
50475SOL    HW253259   1.896  14.543   7.569
50476SOL     OW53260   8.320   6.960   6.933
50476SOL    HW153261   8.266   7.038   6.945
50476SOL    HW253262   8.258   6.888   6.929
50477SOL     OW53263  14.001   9.720   9.175
50477SOL    HW153264  14.007   9.750   9.265
50477SOL    HW253265  13.986   9.799   9.123
50478SOL     OW53266  13.680  11.137   0.106
50478SOL    HW153267  13.614  11.197   0.141
50478SOL    HW253268  13.632  11.084   0.042
50479SOL     OW53269   5.069   0.980   3.077
50479SOL    HW153270   5.074   1.070   3.045
50479SOL    HW253271   5.020   0.987   3.160
50480SOL     OW53272  12.626   0.153   5.918
50480SOL    HW153273  12.643   0.059   5.925
50480SOL    HW253274  12.583   0.176   6.001
50481SOL     OW53275   5.348  13.101  13.364
50481SOL    HW153276   5.257  13.121  13.383
50481SOL    HW253277   5.371  13.029  13.423
50482SOL     OW53278   9.826   1.866  13.830
50482SOL    HW153279   9.798   1.779  13.858
50482SOL    HW253280   9.877   1.850  13.751
50483SOL     OW53281   9.232  11.169  14.737
50483SOL    HW153282   9.271  11.217  14.664
50483SOL    HW253283   9.210  11.083  14.701
50484SOL     OW53284  10.517   5.893  10.511
50484SOL    HW153285  10.568   5.846  10.577
50484SOL    HW253286  10.437   5.842  10.502
50485SOL     OW53287  10.149  11.980   8.575
50485SOL    HW153288  10.180  12.020   8.494
50485SOL    HW253289  10.099  11.904   8.547
50486SOL     OW53290   0.432   4.352   6.509
50486SOL    HW153291   0.358   4.292   6.504
50486SOL    HW253292   0.427   4.388   6.598
50487SOL     OW53293   5.158   5.187   6.993
50487SOL    HW153294   5.068   5.157   6.984
50487SOL    HW253295   5.209   5.106   7.003
50488SOL     OW53296   4.388   7.817  11.904
50488SOL    HW153297   4.476   7.839  11.935
50488SOL    HW253298   4.357   7.897  11.860
50489SOL     OW53299   9.060  11.309   0.019
50489SOL    HW153300   8.991  11.246   0.041
50489SOL    HW253301   9.118  11.261  14.839
50490SOL     OW53302   0.636   4.842   8.531
50490SOL    HW153303   0.694   4.913   8.502
50490SOL    HW253304   0.558   4.851   8.476
50491SOL     OW53305   5.083   8.962   1.650
50491SOL    HW153306   5.001   8.929   1.613
50491SOL    HW253307   5.144   8.889   1.642
50492SOL     OW53308   4.454   5.195   4.244
50492SOL    HW153309   4.498   5.172   4.162
50492SOL    HW253310   4.517   5.248   4.292
50493SOL     OW53311   3.629  13.857   2.003
50493SOL    HW153312   3.545  13.813   2.015
50493SOL    HW253313   3.690  13.787   1.980
50494SOL     OW53314   6.605  10.150   8.735
50494SOL    HW153315   6.522  10.103   8.739
50494SOL    HW253316   6.665  10.097   8.787
50495SOL     OW53317  10.972  13.673   9.585
50495SOL    HW153318  11.028  13.733   9.536
50495SOL    HW253319  11.027  13.644   9.658
50496SOL     OW53320   0.431  11.545   3.042
50496SOL    HW153321   0.364  11.478   3.033
50496SOL    HW253322   0.510  11.506   3.005
50497SOL     OW53323   5.286  14.018  12.069
50497SOL    HW153324   5.258  13.928  12.054
50497SOL    HW253325   5.241  14.069  12.003
50498SOL     OW53326   4.527   5.014  10.468
50498SOL    HW153327   4.617   5.002  10.496
50498SOL    HW253328   4.534   5.060  10.384
50499SOL     OW53329   0.963  10.279   3.977
50499SOL    HW153330   0.889  10.339   3.978
50499SOL    HW253331   0.984  10.267   3.884
50500SOL     OW53332   5.151   5.078  10.744
50500SOL    HW153333   5.164   5.017  10.672
50500SOL    HW253334   5.122   5.024  10.817
50501SOL     OW53335   3.251  13.564  12.666
50501SOL    HW153336   3.208  13.479  12.654
50501SOL    HW253337   3.341  13.548  12.637
50502SOL     OW53338   8.750  13.437   2.522
50502SOL    HW153339   8.686  13.402   2.583
50502SOL    HW253340   8.777  13.521   2.561
50503SOL     OW53341   5.849   1.828  13.347
50503SOL    HW153342   5.904   1.753  13.325
50503SOL    HW253343   5.909   1.891  13.386
50504SOL     OW53344  14.648   4.453   4.151
50504SOL    HW153345  14.582   4.466   4.218
50504SOL    HW253346  14.693   4.373   4.177
50505SOL     OW53347   4.070   6.107   9.955
50505SOL    HW153348   4.023   6.092  10.037
50505SOL    HW253349   4.064   6.201   9.941
50506SOL     OW53350   2.714  14.857  10.428
50506SOL    HW153351   2.704   0.054  10.485
50506SOL    HW253352   2.712   0.014  10.339
50507SOL     OW53353  10.207  13.588  13.137
50507SOL    HW153354  10.207  13.643  13.216
50507SOL    HW253355  10.242  13.504  13.167
50508SOL     OW53356   7.572   2.708   8.686
50508SOL    HW153357   7.573   2.744   8.598
50508SOL    HW253358   7.558   2.614   8.673
50509SOL     OW53359   5.401   3.309  11.046
50509SOL    HW153360   5.429   3.391  11.005
50509SOL    HW253361   5.356   3.261  10.977
50510SOL     OW53362  13.420   5.685   7.000
50510SOL    HW153363  13.457   5.670   6.913
50510SOL    HW253364  13.327   5.663   6.991
50511SOL     OW53365   9.549  13.628  13.042
50511SOL    HW153366   9.602  13.556  13.007
50511SOL    HW253367   9.567  13.626  13.136
50512SOL     OW53368   5.470   7.609  10.763
50512SOL    HW153369   5.430   7.687  10.801
50512SOL    HW253370   5.555   7.639  10.731
50513SOL     OW53371   5.736   4.540  12.825
50513SOL    HW153372   5.719   4.497  12.909
50513SOL    HW253373   5.679   4.495  12.763
50514SOL     OW53374   5.653  13.137   3.328
50514SOL    HW153375   5.710  13.188   3.385
50514SOL    HW253376   5.565  13.160   3.355
50515SOL     OW53377   0.311   6.601   4.490
50515SOL    HW153378   0.286   6.562   4.574
50515SOL    HW253379   0.353   6.683   4.514
50516SOL     OW53380   7.723   5.670  10.188
50516SOL    HW153381   7.805   5.627  10.211
50516SOL    HW253382   7.657   5.629  10.244
50517SOL     OW53383  11.954  12.527  14.854
50517SOL    HW153384  11.971  12.618  14.879
50517SOL    HW253385  11.927  12.532  14.762
50518SOL     OW53386   3.359   5.199  11.520
50518SOL    HW153387   3.413   5.261  11.471
50518SOL    HW253388   3.360   5.119  11.467
50519SOL     OW53389   5.556   2.414  14.006
50519SOL    HW153390   5.606   2.471  14.065
50519SOL    HW253391   5.467   2.449  14.008
50520SOL     OW53392   4.077   3.033   5.738
50520SOL    HW153393   4.070   3.025   5.834
50520SOL    HW253394   3.987   3.020   5.707
50521SOL     OW53395  12.508   4.087   0.225
50521SOL    HW153396  12.416   4.087   0.250
50521SOL    HW253397  12.507   4.081   0.130
50522SOL     OW53398   5.947  13.211   3.239
50522SOL    HW153399   5.993  13.148   3.293
50522SOL    HW253400   5.951  13.174   3.150
50523SOL     OW53401   8.584  11.994   0.550
50523SOL    HW153402   8.646  11.929   0.585
50523SOL    HW253403   8.639  12.054   0.500
50524SOL     OW53404   8.852   7.738  11.585
50524SOL    HW153405   8.886   7.648  11.578
50524SOL    HW253406   8.883   7.768  11.670
50525SOL     OW53407  11.567   6.813  11.270
50525SOL    HW153408  11.650   6.861  11.265
50525SOL    HW253409  11.586   6.738  11.325
50526SOL     OW53410   5.627  11.353   7.951
50526SOL    HW153411   5.606  11.315   7.865
50526SOL    HW253412   5.628  11.278   8.011
50527SOL     OW53413   4.529   5.361   0.123
50527SOL    HW153414   4.610   5.374   0.074
50527SOL    HW253415   4.460   5.386   0.062
50528SOL     OW53416  10.362   3.631   7.147
50528SOL    HW153417  10.295   3.695   7.124
50528SOL    HW253418  10.331   3.549   7.108
50529SOL     OW53419   5.562  12.276   9.066
50529SOL    HW153420   5.619  12.235   9.002
50529SOL    HW253421   5.476  12.278   9.024
50530SOL     OW53422  13.798   4.736   2.200
50530SOL    HW153423  13.837   4.785   2.128
50530SOL    HW253424  13.766   4.655   2.160
50531SOL     OW53425   4.935  14.659   3.978
50531SOL    HW153426   4.946  14.726   4.045
50531SOL    HW253427   4.930  14.707   3.895
50532SOL     OW53428   0.155  13.597  12.949
50532SOL    HW153429   0.210  13.594  12.871
50532SOL    HW253430   0.172  13.515  12.995
50533SOL     OW53431   6.199   0.581  14.548
50533SOL    HW153432   6.178   0.598  14.457
50533SOL    HW253433   6.150   0.647  14.597
50534SOL     OW53434  14.575  10.119   4.564
50534SOL    HW153435  14.571  10.190   4.628
50534SOL    HW253436  14.668  10.109   4.546
50535SOL     OW53437   9.023  12.452   1.427
50535SOL    HW153438   8.992  12.542   1.435
50535SOL    HW253439   9.096  12.446   1.488
50536SOL     OW53440   5.127   9.540   5.191
50536SOL    HW153441   5.181   9.612   5.222
50536SOL    HW253442   5.188   9.469   5.175
50537SOL     OW53443   3.668   5.086   8.989
50537SOL    HW153444   3.678   5.181   8.996
50537SOL    HW253445   3.756   5.051   9.007
50538SOL     OW53446  13.351   5.625   9.185
50538SOL    HW153447  13.315   5.667   9.108
50538SOL    HW253448  13.277   5.613   9.244
50539SOL     OW53449  11.021   4.942  11.483
50539SOL    HW153450  11.091   4.947  11.548
50539SOL    HW253451  10.995   5.033  11.468
50540SOL     OW53452   5.145   1.843   8.722
50540SOL    HW153453   5.072   1.879   8.671
50540SOL    HW253454   5.222   1.889   8.690
50541SOL     OW53455   5.445   8.157   8.063
50541SOL    HW153456   5.523   8.106   8.041
50541SOL    HW253457   5.474   8.217   8.132
50542SOL     OW53458   4.618   6.412   0.839
50542SOL    HW153459   4.657   6.498   0.853
50542SOL    HW253460   4.692   6.351   0.839
50543SOL     OW53461   2.296  12.865  14.761
50543SOL    HW153462   2.203  12.873  14.737
50543SOL    HW253463   2.335  12.820  14.686
50544SOL     OW53464   0.426   2.270   0.540
50544SOL    HW153465   0.517   2.298   0.555
50544SOL    HW253466   0.413   2.199   0.602
50545SOL     OW53467  11.068  12.699   0.958
50545SOL    HW153468  11.091  12.646   1.034
50545SOL    HW253469  11.132  12.770   0.958
50546SOL     OW53470   8.591   1.032  13.258
50546SOL    HW153471   8.631   1.087  13.325
50546SOL    HW253472   8.590   1.087  13.180
50547SOL     OW53473  14.496   9.572   7.481
50547SOL    HW153474  14.404   9.559   7.504
50547SOL    HW253475  14.545   9.539   7.557
50548SOL     OW53476   0.469  10.664   9.849
50548SOL    HW153477   0.440  10.641   9.938
50548SOL    HW253478   0.540  10.727   9.863
50549SOL     OW53479   8.855   9.501  12.907
50549SOL    HW153480   8.946   9.477  12.928
50549SOL    HW253481   8.807   9.418  12.912
50550SOL     OW53482  12.273   3.388   8.320
50550SOL    HW153483  12.200   3.438   8.358
50550SOL    HW253484  12.232   3.307   8.288
50551SOL     OW53485   3.067   7.386  13.477
50551SOL    HW153486   3.029   7.298  13.471
50551SOL    HW253487   2.997   7.444  13.446
50552SOL     OW53488   6.164   4.110  11.648
50552SOL    HW153489   6.079   4.151  11.630
50552SOL    HW253490   6.143   4.017  11.662
50553SOL     OW53491  14.352   2.027  10.903
50553SOL    HW153492  14.336   2.063  10.990
50553SOL    HW253493  14.395   1.943  10.920
50554SOL     OW53494   8.504   6.363  11.753
50554SOL    HW153495   8.482   6.428  11.819
50554SOL    HW253496   8.580   6.399  11.708
50555SOL     OW53497  14.117  11.281  12.002
50555SOL    HW153498  14.096  11.204  12.055
50555SOL    HW253499  14.037  11.298  11.952
50556SOL     OW53500  10.290   0.089  13.540
50556SOL    HW153501  10.269   0.142  13.617
50556SOL    HW253502  10.377   0.117  13.514
50557SOL     OW53503   4.805  11.537  14.180
50557SOL    HW153504   4.804  11.474  14.107
50557SOL    HW253505   4.767  11.489  14.253
50558SOL     OW53506  13.749   0.490  13.201
50558SOL    HW153507  13.688   0.474  13.129
50558SOL    HW253508  13.699   0.471  13.280
50559SOL     OW53509   7.190   9.076  10.329
50559SOL    HW153510   7.279   9.043  10.340
50559SOL    HW253511   7.169   9.059  10.237
50560SOL     OW53512   0.850   8.367   6.175
50560SOL    HW153513   0.921   8.429   6.159
50560SOL    HW253514   0.787   8.415   6.229
50561SOL     OW53515  10.126   3.915   9.260
50561SOL    HW153516  10.111   4.010   9.258
50561SOL    HW253517  10.208   3.905   9.309
50562SOL     OW53518  10.188   7.613   0.593
50562SOL    HW153519  10.197   7.520   0.613
50562SOL    HW253520  10.168   7.615   0.499
50563SOL     OW53521   0.873   8.361   2.013
50563SOL    HW153522   0.902   8.271   2.025
50563SOL    HW253523   0.872   8.397   2.102
50564SOL     OW53524   4.015   0.832  13.444
50564SOL    HW153525   3.932   0.847  13.491
50564SOL    HW253526   4.000   0.871  13.358
50565SOL     OW53527   4.332   7.684  10.564
50565SOL    HW153528   4.383   7.764  10.554
50565SOL    HW253529   4.254   7.698  10.510
50566SOL     OW53530  10.348   7.409   6.880
50566SOL    HW153531  10.271   7.380   6.832
50566SOL    HW253532  10.338   7.370   6.967
50567SOL     OW53533   8.451  14.173  13.078
50567SOL    HW153534   8.441  14.146  13.170
50567SOL    HW253535   8.465  14.091  13.031
50568SOL     OW53536   8.518   4.261   0.880
50568SOL    HW153537   8.486   4.348   0.902
50568SOL    HW253538   8.613   4.269   0.884
50569SOL     OW53539   1.002  13.105  13.485
50569SOL    HW153540   0.962  13.025  13.452
50569SOL    HW253541   0.937  13.141  13.546
50570SOL     OW53542  13.767  11.920  10.026
50570SOL    HW153543  13.848  11.899   9.979
50570SOL    HW253544  13.779  11.881  10.113
50571SOL     OW53545   4.952   6.294  10.434
50571SOL    HW153546   4.978   6.248  10.513
50571SOL    HW253547   4.977   6.385  10.449
50572SOL     OW53548   9.929   6.714   8.198
50572SOL    HW153549   9.903   6.726   8.107
50572SOL    HW253550   9.846   6.707   8.245
50573SOL     OW53551   9.834   6.453   7.287
50573SOL    HW153552   9.803   6.491   7.369
50573SOL    HW253553   9.755   6.432   7.238
50574SOL     OW53554  13.820   1.064  10.943
50574SOL    HW153555  13.826   0.969  10.956
50574SOL    HW253556  13.822   1.075  10.848
50575SOL     OW53557   0.865   7.848   5.991
50575SOL    HW153558   0.779   7.884   5.971
50575SOL    HW253559   0.919   7.924   6.013
50576SOL     OW53560  14.256   5.988   6.963
50576SOL    HW153561  14.326   6.054   6.963
50576SOL    HW253562  14.284   5.925   7.029
50577SOL     OW53563   4.776   9.808   7.848
50577SOL    HW153564   4.709   9.839   7.909
50577SOL    HW253565   4.851   9.865   7.864
50578SOL     OW53566   9.691   8.660  10.664
50578SOL    HW153567   9.617   8.638  10.720
50578SOL    HW253568   9.679   8.607  10.585
50579SOL     OW53569   5.488  10.398   6.049
50579SOL    HW153570   5.529  10.313   6.034
50579SOL    HW253571   5.405  10.377   6.093
50580SOL     OW53572   4.310   6.063   8.193
50580SOL    HW153573   4.243   5.999   8.170
50580SOL    HW253574   4.296   6.081   8.286
50581SOL     OW53575   8.855   7.551   6.809
50581SOL    HW153576   8.767   7.559   6.772
50581SOL    HW253577   8.846   7.488   6.880
50582SOL     OW53578  12.854   5.067   6.786
50582SOL    HW153579  12.877   5.019   6.866
50582SOL    HW253580  12.926   5.050   6.726
50583SOL     OW53581   0.744  12.949  11.163
50583SOL    HW153582   0.773  12.982  11.078
50583SOL    HW253583   0.812  12.978  11.224
50584SOL     OW53584  12.635   5.953   2.882
50584SOL    HW153585  12.729   5.952   2.899
50584SOL    HW253586  12.603   6.029   2.930
50585SOL     OW53587  14.044   4.154   0.886
50585SOL    HW153588  13.978   4.099   0.928
50585SOL    HW253589  13.993   4.221   0.840
50586SOL     OW53590   5.267   5.189   4.395
50586SOL    HW153591   5.241   5.281   4.400
50586SOL    HW253592   5.263   5.167   4.302
50587SOL     OW53593   6.541  13.542   5.293
50587SOL    HW153594   6.445  13.546   5.302
50587SOL    HW253595   6.557  13.460   5.246
50588SOL     OW53596   2.381   8.532   6.172
50588SOL    HW153597   2.414   8.535   6.082
50588SOL    HW253598   2.455   8.498   6.223
50589SOL     OW53599  13.469   6.910  14.515
50589SOL    HW153600  13.432   6.998  14.506
50589SOL    HW253601  13.426   6.858  14.447
50590SOL     OW53602  14.404   8.791   8.215
50590SOL    HW153603  14.461   8.848   8.163
50590SOL    HW253604  14.391   8.837   8.297
50591SOL     OW53605   0.287   5.625   7.652
50591SOL    HW153606   0.263   5.694   7.589
50591SOL    HW253607   0.363   5.659   7.698
50592SOL     OW53608   0.330  12.625   2.868
50592SOL    HW153609   0.421  12.648   2.852
50592SOL    HW253610   0.330  12.530   2.881
50593SOL     OW53611   1.128   7.761   4.563
50593SOL    HW153612   1.128   7.700   4.489
50593SOL    HW253613   1.220   7.781   4.578
50594SOL     OW53614   5.230   0.096   7.915
50594SOL    HW153615   5.256   0.063   8.001
50594SOL    HW253616   5.174   0.027   7.879
50595SOL     OW53617  13.725  10.784   4.479
50595SOL    HW153618  13.722  10.780   4.384
50595SOL    HW253619  13.654  10.844   4.503
50596SOL     OW53620   2.140  14.281  14.877
50596SOL    HW153621   2.048  14.259  14.863
50596SOL    HW253622   2.184  14.247  14.799
50597SOL     OW53623   6.759   1.138  10.243
50597SOL    HW153624   6.788   1.059  10.196
50597SOL    HW253625   6.819   1.146  10.316
50598SOL     OW53626   4.450   8.646   9.308
50598SOL    HW153627   4.414   8.574   9.360
50598SOL    HW253628   4.545   8.635   9.316
50599SOL     OW53629   9.135   0.486   6.434
50599SOL    HW153630   9.105   0.402   6.470
50599SOL    HW253631   9.063   0.516   6.379
50600SOL     OW53632   3.755  13.861   8.793
50600SOL    HW153633   3.795  13.890   8.711
50600SOL    HW253634   3.774  13.767   8.797
50601SOL     OW53635   6.501   7.787  10.495
50601SOL    HW153636   6.596   7.786  10.510
50601SOL    HW253637   6.492   7.767  10.401
50602SOL     OW53638  12.585  10.214   7.381
50602SOL    HW153639  12.670  10.259   7.379
50602SOL    HW253640  12.522  10.281   7.407
50603SOL     OW53641  13.336  11.603  14.198
50603SOL    HW153642  13.258  11.612  14.144
50603SOL    HW253643  13.404  11.653  14.152
50604SOL     OW53644  14.806  11.301  10.601
50604SOL    HW153645  14.729  11.267  10.555
50604SOL    HW253646   0.001  11.270  10.549
50605SOL     OW53647  11.140   0.650   4.095
50605SOL    HW153648  11.081   0.686   4.162
50605SOL    HW253649  11.227   0.672   4.127
50606SOL     OW53650  14.424  14.718   0.712
50606SOL    HW153651  14.493  14.674   0.761
50606SOL    HW253652  14.401  14.793   0.766
50607SOL     OW53653   0.946  11.949  10.454
50607SOL    HW153654   0.891  11.895  10.510
50607SOL    HW253655   1.030  11.903  10.451
50608SOL     OW53656   5.919   2.700   7.014
50608SOL    HW153657   6.013   2.701   7.031
50608SOL    HW253658   5.888   2.784   7.047
50609SOL     OW53659   9.963  11.464   6.448
50609SOL    HW153660   9.972  11.548   6.403
50609SOL    HW253661   9.973  11.486   6.541
50610SOL     OW53662   2.521  12.373   3.247
50610SOL    HW153663   2.565  12.300   3.202
50610SOL    HW253664   2.590  12.438   3.260
50611SOL     OW53665  11.345   2.373   5.832
50611SOL    HW153666  11.382   2.359   5.745
50611SOL    HW253667  11.250   2.372   5.818
50612SOL     OW53668   2.234   7.940   2.838
50612SOL    HW153669   2.159   7.882   2.825
50612SOL    HW253670   2.198   8.016   2.885
50613SOL     OW53671   6.329  13.512   7.414
50613SOL    HW153672   6.373  13.557   7.486
50613SOL    HW253673   6.400  13.469   7.366
50614SOL     OW53674   7.512   3.878   3.499
50614SOL    HW153675   7.555   3.914   3.422
50614SOL    HW253676   7.436   3.935   3.513
50615SOL     OW53677   7.632   1.391   5.190
50615SOL    HW153678   7.670   1.310   5.224
50615SOL    HW253679   7.692   1.419   5.121
50616SOL     OW53680   4.393  14.499   7.924
50616SOL    HW153681   4.319  14.454   7.964
50616SOL    HW253682   4.377  14.492   7.830
50617SOL     OW53683   6.914   0.445   1.833
50617SOL    HW153684   6.907   0.444   1.929
50617SOL    HW253685   6.908   0.538   1.810
50618SOL     OW53686   4.631   4.593  14.344
50618SOL    HW153687   4.593   4.572  14.429
50618SOL    HW253688   4.588   4.532  14.283
50619SOL     OW53689   3.952   0.724   7.625
50619SOL    HW153690   3.988   0.773   7.699
50619SOL    HW253691   4.028   0.685   7.583
50620SOL     OW53692   0.984  14.645   5.341
50620SOL    HW153693   1.004  14.577   5.276
50620SOL    HW253694   0.889  14.653   5.338
50621SOL     OW53695  12.602  14.124   5.527
50621SOL    HW153696  12.608  14.043   5.476
50621SOL    HW253697  12.689  14.134   5.566
50622SOL     OW53698   5.286  13.539  14.068
50622SOL    HW153699   5.348  13.475  14.034
50622SOL    HW253700   5.205  13.491  14.079
50623SOL     OW53701   7.808  11.341   9.755
50623SOL    HW153702   7.890  11.315   9.797
50623SOL    HW253703   7.831  11.351   9.662
50624SOL     OW53704  12.771   4.445   8.899
50624SOL    HW153705  12.842   4.449   8.963
50624SOL    HW253706  12.751   4.351   8.893
50625SOL     OW53707  14.557  13.734  10.768
50625SOL    HW153708  14.467  13.710  10.787
50625SOL    HW253709  14.552  13.794  10.694
50626SOL     OW53710   1.434   4.284   1.843
50626SOL    HW153711   1.468   4.311   1.758
50626SOL    HW253712   1.343   4.260   1.826
50627SOL     OW53713   5.012  12.879  14.713
50627SOL    HW153714   5.018  12.925  14.797
50627SOL    HW253715   4.937  12.919  14.668
50628SOL     OW53716   7.996  11.697  14.716
50628SOL    HW153717   8.009  11.723  14.808
50628SOL    HW253718   7.912  11.738  14.692
50629SOL     OW53719   1.720   0.711   0.085
50629SOL    HW153720   1.702   0.796   0.044
50629SOL    HW253721   1.634   0.677   0.108
50630SOL     OW53722   0.524   0.637  13.320
50630SOL    HW153723   0.515   0.666  13.411
50630SOL    HW253724   0.495   0.712  13.268
50631SOL     OW53725   0.438   6.861  14.159
50631SOL    HW153726   0.426   6.941  14.107
50631SOL    HW253727   0.366   6.804  14.131
50632SOL     OW53728   6.734  13.933   6.323
50632SOL    HW153729   6.746  13.849   6.367
50632SOL    HW253730   6.817  13.949   6.277
50633SOL     OW53731  10.469  10.120   9.785
50633SOL    HW153732  10.409  10.186   9.751
50633SOL    HW253733  10.552  10.167   9.799
50634SOL     OW53734  11.634  12.984   0.323
50634SOL    HW153735  11.669  12.903   0.285
50634SOL    HW253736  11.634  13.046   0.250
50635SOL     OW53737  10.552   6.313   9.615
50635SOL    HW153738  10.514   6.248   9.556
50635SOL    HW253739  10.634   6.339   9.574
50636SOL     OW53740   9.349   4.402   7.510
50636SOL    HW153741   9.316   4.475   7.458
50636SOL    HW253742   9.368   4.441   7.595
50637SOL     OW53743   0.298   8.585   6.085
50637SOL    HW153744   0.319   8.542   6.168
50637SOL    HW253745   0.357   8.661   6.082
50638SOL     OW53746  10.853   1.240   4.339
50638SOL    HW153747  10.800   1.262   4.415
50638SOL    HW253748  10.805   1.277   4.265
50639SOL     OW53749  11.652  11.973   0.851
50639SOL    HW153750  11.717  11.910   0.883
50639SOL    HW253751  11.666  11.975   0.756
50640SOL     OW53752  11.290   4.614   3.628
50640SOL    HW153753  11.320   4.537   3.580
50640SOL    HW253754  11.368   4.667   3.642
50641SOL     OW53755   0.879   7.083   3.050
50641SOL    HW153756   0.806   7.028   3.023
50641SOL    HW253757   0.856   7.171   3.019
50642SOL     OW53758  12.674  13.121  14.146
50642SOL    HW153759  12.609  13.050  14.150
50642SOL    HW253760  12.650  13.171  14.068
50643SOL     OW53761   5.120  13.677   0.588
50643SOL    HW153762   5.032  13.679   0.626
50643SOL    HW253763   5.145  13.769   0.580
50644SOL     OW53764   7.368  11.839  11.391
50644SOL    HW153765   7.398  11.904  11.327
50644SOL    HW253766   7.277  11.823  11.367
50645SOL     OW53767   1.170   1.291   0.064
50645SOL    HW153768   1.244   1.267   0.119
50645SOL    HW253769   1.105   1.222   0.081
50646SOL     OW53770   2.034  10.879   0.991
50646SOL    HW153771   1.950  10.835   0.975
50646SOL    HW253772   2.085  10.862   0.912
50647SOL     OW53773  12.647   6.687   0.471
50647SOL    HW153774  12.681   6.655   0.387
50647SOL    HW253775  12.603   6.612   0.509
50648SOL     OW53776  13.952  13.988  14.184
50648SOL    HW153777  13.957  13.943  14.269
50648SOL    HW253778  13.912  14.072  14.204
50649SOL     OW53779   8.874   7.357   0.062
50649SOL    HW153780   8.842   7.316  14.861
50649SOL    HW253781   8.826   7.440   0.068
50650SOL     OW53782   3.298   6.511   9.180
50650SOL    HW153783   3.324   6.599   9.152
50650SOL    HW253784   3.381   6.464   9.193
50651SOL     OW53785   7.898  11.031   5.419
50651SOL    HW153786   7.907  11.120   5.383
50651SOL    HW253787   7.810  11.030   5.458
50652SOL     OW53788   4.132   7.613   2.469
50652SOL    HW153789   4.121   7.690   2.524
50652SOL    HW253790   4.092   7.541   2.519
50653SOL     OW53791  12.579  12.990  12.862
50653SOL    HW153792  12.557  13.083  12.855
50653SOL    HW253793  12.515  12.946  12.806
50654SOL     OW53794   3.230   0.549  14.539
50654SOL    HW153795   3.231   0.598  14.457
50654SOL    HW253796   3.286   0.600  14.598
50655SOL     OW53797   9.546   1.552   5.071
50655SOL    HW153798   9.582   1.586   5.152
50655SOL    HW253799   9.469   1.606   5.053
50656SOL     OW53800  13.351   1.255  10.271
50656SOL    HW153801  13.430   1.261  10.217
50656SOL    HW253802  13.370   1.308  10.348
50657SOL     OW53803   7.569  14.439   9.166
50657SOL    HW153804   7.529  14.387   9.097
50657SOL    HW253805   7.539  14.399   9.248
50658SOL     OW53806   7.986   1.758   7.568
50658SOL    HW153807   8.060   1.703   7.542
50658SOL    HW253808   7.933   1.701   7.624
50659SOL     OW53809  10.845   9.220  13.532
50659SOL    HW153810  10.904   9.252  13.464
50659SOL    HW253811  10.797   9.148  13.491
50660SOL     OW53812   6.955  10.842   8.963
50660SOL    HW153813   7.049  10.836   8.949
50660SOL    HW253814   6.945  10.873   9.053
50661SOL     OW53815   9.019  14.794   7.953
50661SOL    HW153816   8.999  14.758   7.866
50661SOL    HW253817   9.092  14.855   7.937
50662SOL     OW53818  12.275   7.248   6.476
50662SOL    HW153819  12.253   7.165   6.519
50662SOL    HW253820  12.240   7.239   6.387
50663SOL     OW53821  10.744  14.852  10.968
50663SOL    HW153822  10.696  14.803  10.901
50663SOL    HW253823  10.699  14.832  11.050
50664SOL     OW53824   7.237   6.755   6.521
50664SOL    HW153825   7.265   6.820   6.585
50664SOL    HW253826   7.167   6.799   6.472
50665SOL     OW53827   0.979   0.094   7.738
50665SOL    HW153828   1.063   0.049   7.746
50665SOL    HW253829   1.003   0.186   7.722
50666SOL     OW53830  11.584   5.869  11.548
50666SOL    HW153831  11.586   5.964  11.543
50666SOL    HW253832  11.639   5.848  11.623
50667SOL     OW53833   8.537  13.242   0.895
50667SOL    HW153834   8.516  13.265   0.804
50667SOL    HW253835   8.479  13.298   0.947
50668SOL     OW53836  11.439   3.667   6.776
50668SOL    HW153837  11.440   3.743   6.718
50668SOL    HW253838  11.347   3.653   6.796
50669SOL     OW53839   0.886   7.713   7.842
50669SOL    HW153840   0.976   7.739   7.820
50669SOL    HW253841   0.833   7.751   7.773
50670SOL     OW53842   4.924   0.429   9.789
50670SOL    HW153843   4.937   0.335   9.778
50670SOL    HW253844   4.925   0.464   9.700
50671SOL     OW53845  14.634   2.854  13.212
50671SOL    HW153846  14.722   2.818  13.223
50671SOL    HW253847  14.604   2.872  13.301
50672SOL     OW53848   1.653   2.179   4.948
50672SOL    HW153849   1.564   2.148   4.937
50672SOL    HW253850   1.644   2.264   4.992
50673SOL     OW53851   4.757   4.184   4.502
50673SOL    HW153852   4.814   4.118   4.540
50673SOL    HW253853   4.713   4.140   4.430
50674SOL     OW53854   8.134   2.629   9.882
50674SOL    HW153855   8.134   2.702   9.944
50674SOL    HW253856   8.116   2.668   9.797
50675SOL     OW53857   9.495   2.908   7.773
50675SOL    HW153858   9.509   2.847   7.846
50675SOL    HW253859   9.558   2.880   7.706
50676SOL     OW53860  10.941  12.638  12.331
50676SOL    HW153861  10.854  12.647  12.370
50676SOL    HW253862  11.001  12.666  12.401
50677SOL     OW53863  10.958  10.852   1.242
50677SOL    HW153864  10.898  10.897   1.183
50677SOL    HW253865  11.044  10.861   1.201
50678SOL     OW53866  12.895   8.717  11.514
50678SOL    HW153867  12.977   8.732  11.467
50678SOL    HW253868  12.907   8.632  11.557
50679SOL     OW53869   4.400   6.196  11.020
50679SOL    HW153870   4.495   6.191  11.032
50679SOL    HW253871   4.371   6.256  11.089
50680SOL     OW53872   5.928  13.386   4.803
50680SOL    HW153873   5.901  13.333   4.728
50680SOL    HW253874   5.868  13.360   4.873
50681SOL     OW53875   4.092   8.811   4.674
50681SOL    HW153876   4.026   8.753   4.634
50681SOL    HW253877   4.044   8.858   4.742
50682SOL     OW53878   0.580   6.775   2.783
50682SOL    HW153879   0.642   6.770   2.856
50682SOL    HW253880   0.634   6.759   2.705
50683SOL     OW53881  12.823  14.226  13.510
50683SOL    HW153882  12.820  14.282  13.433
50683SOL    HW253883  12.906  14.248  13.553
50684SOL     OW53884   6.489  12.158   3.366
50684SOL    HW153885   6.582  12.180   3.376
50684SOL    HW253886   6.444  12.242   3.373
50685SOL     OW53887   1.465  12.985  11.992
50685SOL    HW153888   1.416  12.971  11.911
50685SOL    HW253889   1.552  12.948  11.975
50686SOL     OW53890   3.346   3.631   0.997
50686SOL    HW153891   3.307   3.548   1.025
50686SOL    HW253892   3.427   3.637   1.047
50687SOL     OW53893  12.474   6.215  10.412
50687SOL    HW153894  12.481   6.120  10.400
50687SOL    HW253895  12.460   6.226  10.506
50688SOL     OW53896   0.615  11.588   3.392
50688SOL    HW153897   0.528  11.584   3.353
50688SOL    HW253898   0.600  11.614   3.483
50689SOL     OW53899   4.947   1.189   4.984
50689SOL    HW153900   4.895   1.110   4.974
50689SOL    HW253901   4.931   1.239   4.903
50690SOL     OW53902   4.877   4.286   1.080
50690SOL    HW153903   4.880   4.221   1.151
50690SOL    HW253904   4.787   4.319   1.082
50691SOL     OW53905   4.720   7.149  13.393
50691SOL    HW153906   4.698   7.122  13.483
50691SOL    HW253907   4.655   7.216  13.372
50692SOL     OW53908   3.100   7.229   9.292
50692SOL    HW153909   3.039   7.302   9.278
50692SOL    HW253910   3.132   7.207   9.205
50693SOL     OW53911   7.968   1.191   6.087
50693SOL    HW153912   8.011   1.154   6.163
50693SOL    HW253913   8.025   1.262   6.059
50694SOL     OW53914   6.083   3.841  11.631
50694SOL    HW153915   6.165   3.812  11.592
50694SOL    HW253916   6.018   3.780  11.598
50695SOL     OW53917   9.210   4.157   0.215
50695SOL    HW153918   9.186   4.148   0.123
50695SOL    HW253919   9.128   4.179   0.259
50696SOL     OW53920   4.714  12.602   4.725
50696SOL    HW153921   4.735  12.607   4.819
50696SOL    HW253922   4.703  12.694   4.698
50697SOL     OW53923   7.124   2.092  12.280
50697SOL    HW153924   7.163   2.174  12.309
50697SOL    HW253925   7.075   2.114  12.201
50698SOL     OW53926  12.901   8.785   6.039
50698SOL    HW153927  12.989   8.757   6.064
50698SOL    HW253928  12.911   8.877   6.014
50699SOL     OW53929   8.045  14.558   3.445
50699SOL    HW153930   7.974  14.529   3.389
50699SOL    HW253931   8.014  14.542   3.534
50700SOL     OW53932   0.965  14.159   7.143
50700SOL    HW153933   0.937  14.089   7.201
50700SOL    HW253934   0.981  14.116   7.059
50701SOL     OW53935  12.669  12.437   1.387
50701SOL    HW153936  12.717  12.517   1.409
50701SOL    HW253937  12.737  12.377   1.353
50702SOL     OW53938   7.779   4.660   9.764
50702SOL    HW153939   7.690   4.630   9.746
50702SOL    HW253940   7.830   4.628   9.689
50703SOL     OW53941   0.320  13.129  12.836
50703SOL    HW153942   0.297  13.092  12.921
50703SOL    HW253943   0.236  13.153  12.797
50704SOL     OW53944   8.290   7.776  13.163
50704SOL    HW153945   8.253   7.698  13.204
50704SOL    HW253946   8.216   7.817  13.119
50705SOL     OW53947   3.831   8.962   1.956
50705SOL    HW153948   3.820   8.888   1.895
50705SOL    HW253949   3.816   8.924   2.042
50706SOL     OW53950  14.856   1.006  14.050
50706SOL    HW153951   0.022   1.054  14.120
50706SOL    HW253952   0.005   1.050  13.970
50707SOL     OW53953   2.837  11.404   2.140
50707SOL    HW153954   2.755  11.426   2.095
50707SOL    HW253955   2.903  11.461   2.099
50708SOL     OW53956   3.455  10.515  14.187
50708SOL    HW153957   3.524  10.510  14.253
50708SOL    HW253958   3.395  10.582  14.221
50709SOL     OW53959  14.177   1.838   7.888
50709SOL    HW153960  14.088   1.808   7.869
50709SOL    HW253961  14.203   1.788   7.965
50710SOL     OW53962  10.199   6.907   3.842
50710SOL    HW153963  10.251   6.987   3.830
50710SOL    HW253964  10.261   6.843   3.877
50711SOL     OW53965  10.748   8.511  11.454
50711SOL    HW153966  10.809   8.502  11.381
50711SOL    HW253967  10.671   8.460  11.427
50712SOL     OW53968   1.147   8.350   0.546
50712SOL    HW153969   1.235   8.374   0.576
50712SOL    HW253970   1.105   8.434   0.527
50713SOL     OW53971  13.472   6.963   3.268
50713SOL    HW153972  13.427   7.028   3.322
50713SOL    HW253973  13.565   6.989   3.273
50714SOL     OW53974   4.353   1.166  11.925
50714SOL    HW153975   4.444   1.138  11.922
50714SOL    HW253976   4.353   1.253  11.884
50715SOL     OW53977   4.316   9.449  12.909
50715SOL    HW153978   4.287   9.393  12.980
50715SOL    HW253979   4.411   9.457  12.922
50716SOL     OW53980   3.299   3.469   0.399
50716SOL    HW153981   3.230   3.510   0.453
50716SOL    HW253982   3.325   3.538   0.338
50717SOL     OW53983   2.131   1.548   7.182
50717SOL    HW153984   2.126   1.635   7.144
50717SOL    HW253985   2.136   1.562   7.276
50718SOL     OW53986   3.863  12.007   4.188
50718SOL    HW153987   3.836  12.061   4.262
50718SOL    HW253988   3.798  12.027   4.120
50719SOL     OW53989  11.805  10.623  13.740
50719SOL    HW153990  11.807  10.582  13.654
50719SOL    HW253991  11.832  10.713  13.725
50720SOL     OW53992  11.996   1.911   9.275
50720SOL    HW153993  12.016   1.889   9.184
50720SOL    HW253994  12.082   1.921   9.317
50721SOL     OW53995   8.358   9.107   6.131
50721SOL    HW153996   8.404   9.094   6.214
50721SOL    HW253997   8.265   9.112   6.156
50722SOL     OW53998   9.430  12.469   4.893
50722SOL    HW153999   9.371  12.467   4.968
50722SOL    HW254000   9.384  12.420   4.825
50723SOL     OW54001   2.539  11.538  11.740
50723SOL    HW154002   2.593  11.460  11.756
50723SOL    HW254003   2.492  11.551  11.823
50724SOL     OW54004   8.881  13.374  14.825
50724SOL    HW154005   8.908  13.390  14.735
50724SOL    HW254006   8.790  13.402  14.828
50725SOL     OW54007   9.141  14.159  13.002
50725SOL    HW154008   9.170  14.207  12.925
50725SOL    HW254009   9.139  14.067  12.975
50726SOL     OW54010   5.149  13.294  12.770
50726SOL    HW154011   5.223  13.266  12.824
50726SOL    HW254012   5.098  13.214  12.755
50727SOL     OW54013   4.537  11.918   8.251
50727SOL    HW154014   4.526  11.936   8.158
50727SOL    HW254015   4.540  11.822   8.257
50728SOL     OW54016   0.088   5.290   8.654
50728SOL    HW154017  14.872   5.293   8.660
50728SOL    HW254018   0.119   5.329   8.736
50729SOL     OW54019   9.756   6.951   5.395
50729SOL    HW154020   9.762   7.042   5.424
50729SOL    HW254021   9.799   6.950   5.309
50730SOL     OW54022   5.388   2.511   6.848
50730SOL    HW154023   5.469   2.527   6.799
50730SOL    HW254024   5.341   2.445   6.797
50731SOL     OW54025   0.889   0.538   4.074
50731SOL    HW154026   0.883   0.564   4.166
50731SOL    HW254027   0.878   0.443   4.075
50732SOL     OW54028  12.431   1.641   6.528
50732SOL    HW154029  12.353   1.691   6.505
50732SOL    HW254030  12.478   1.698   6.589
50733SOL     OW54031  10.203  10.274  11.297
50733SOL    HW154032  10.236  10.360  11.272
50733SOL    HW254033  10.146  10.291  11.372
50734SOL     OW54034   5.087  14.167  13.515
50734SOL    HW154035   5.108  14.259  13.503
50734SOL    HW254036   4.993  14.161  13.495
50735SOL     OW54037   4.487  13.951   0.772
50735SOL    HW154038   4.571  13.983   0.803
50735SOL    HW254039   4.428  13.961   0.847
50736SOL     OW54040   5.900   0.204   6.107
50736SOL    HW154041   5.842   0.135   6.074
50736SOL    HW254042   5.984   0.189   6.062
50737SOL     OW54043  13.950   9.069   9.290
50737SOL    HW154044  13.996   9.027   9.217
50737SOL    HW254045  13.868   9.020   9.298
50738SOL     OW54046   8.319   7.828  10.770
50738SOL    HW154047   8.255   7.758  10.778
50738SOL    HW254048   8.394   7.799  10.822
50739SOL     OW54049   3.653   6.138   0.149
50739SOL    HW154050   3.680   6.213   0.203
50739SOL    HW254051   3.734   6.102   0.116
50740SOL     OW54052   1.496   6.740   7.988
50740SOL    HW154053   1.439   6.817   7.986
50740SOL    HW254054   1.436   6.665   7.981
50741SOL     OW54055   9.302   6.510   0.818
50741SOL    HW154056   9.225   6.540   0.867
50741SOL    HW254057   9.371   6.505   0.884
50742SOL     OW54058   7.132   2.608   8.435
50742SOL    HW154059   7.107   2.696   8.460
50742SOL    HW254060   7.064   2.580   8.374
50743SOL     OW54061   8.368  14.185   6.957
50743SOL    HW154062   8.286  14.218   6.920
50743SOL    HW254063   8.341  14.133   7.033
50744SOL     OW54064   1.439  12.768   9.584
50744SOL    HW154065   1.438  12.852   9.538
50744SOL    HW254066   1.526  12.764   9.623
50745SOL     OW54067   1.061   7.405   2.955
50745SOL    HW154068   1.084   7.473   2.892
50745SOL    HW254069   0.967   7.391   2.942
50746SOL     OW54070  14.345  13.887  13.433
50746SOL    HW154071  14.329  13.833  13.511
50746SOL    HW254072  14.262  13.932  13.417
50747SOL     OW54073  11.081   7.625   2.826
50747SOL    HW154074  11.149   7.652   2.764
50747SOL    HW254075  11.127   7.619   2.910
50748SOL     OW54076   3.780   0.637   8.505
50748SOL    HW154077   3.686   0.650   8.504
50748SOL    HW254078   3.792   0.549   8.541
50749SOL     OW54079   9.671   5.220  14.001
50749SOL    HW154080   9.715   5.284  14.057
50749SOL    HW254081   9.662   5.265  13.917
50750SOL     OW54082  11.216  14.672   6.043
50750SOL    HW154083  11.180  14.605   6.100
50750SOL    HW254084  11.297  14.700   6.086
50751SOL     OW54085  14.767   6.065   7.438
50751SOL    HW154086  14.780   6.103   7.351
50751SOL    HW254087  14.760   6.140   7.496
50752SOL     OW54088   4.252  12.039  10.947
50752SOL    HW154089   4.260  11.990  11.029
50752SOL    HW254090   4.342  12.057  10.921
50753SOL     OW54091   0.078  10.946   2.273
50753SOL    HW154092   0.043  10.903   2.196
50753SOL    HW254093   0.098  10.875   2.334
50754SOL     OW54094   6.774  10.068  10.857
50754SOL    HW154095   6.819  10.100  10.935
50754SOL    HW254096   6.758   9.975  10.876
50755SOL     OW54097   1.693  12.395  10.112
50755SOL    HW154098   1.710  12.487  10.095
50755SOL    HW254099   1.616  12.374  10.060
50756SOL     OW54100  11.768   2.528  10.100
50756SOL    HW154101  11.839   2.502  10.042
50756SOL    HW254102  11.811   2.552  10.182
50757SOL     OW54103   5.568   6.816   9.278
50757SOL    HW154104   5.530   6.785   9.361
50757SOL    HW254105   5.517   6.770   9.211
50758SOL     OW54106   4.688   8.242   9.641
50758SOL    HW154107   4.680   8.178   9.712
50758SOL    HW254108   4.771   8.222   9.599
50759SOL     OW54109   0.231  13.191  13.273
50759SOL    HW154110   0.294  13.140  13.324
50759SOL    HW254111   0.152  13.138  13.272
50760SOL     OW54112  10.713   9.848  12.023
50760SOL    HW154113  10.623   9.817  12.014
50760SOL    HW254114  10.717   9.926  11.967
50761SOL     OW54115   1.897  12.080   9.572
50761SOL    HW154116   1.862  12.026   9.642
50761SOL    HW254117   1.992  12.081   9.587
50762SOL     OW54118  13.070   2.368   5.294
50762SOL    HW154119  13.158   2.330   5.301
50762SOL    HW254120  13.029   2.352   5.379
50763SOL     OW54121   7.317   7.878   4.075
50763SOL    HW154122   7.408   7.849   4.068
50763SOL    HW254123   7.267   7.809   4.032
50764SOL     OW54124  11.861  10.276   4.125
50764SOL    HW154125  11.900  10.321   4.050
50764SOL    HW254126  11.933  10.263   4.186
50765SOL     OW54127   5.302   4.815   8.976
50765SOL    HW154128   5.322   4.738   8.923
50765SOL    HW254129   5.259   4.780   9.054
50766SOL     OW54130  13.853   3.101   6.702
50766SOL    HW154131  13.924   3.075   6.644
50766SOL    HW254132  13.839   3.025   6.759
50767SOL     OW54133   2.572   9.435   7.324
50767SOL    HW154134   2.563   9.376   7.398
50767SOL    HW254135   2.589   9.521   7.364
50768SOL     OW54136  12.891  13.284   4.517
50768SOL    HW154137  12.803  13.309   4.543
50768SOL    HW254138  12.883  13.193   4.487
50769SOL     OW54139  14.170   5.292  14.627
50769SOL    HW154140  14.240   5.307  14.564
50769SOL    HW254141  14.135   5.206  14.603
50770SOL     OW54142   3.559  10.592   9.388
50770SOL    HW154143   3.606  10.622   9.465
50770SOL    HW254144   3.627  10.558   9.330
50771SOL     OW54145  11.373  13.135   2.429
50771SOL    HW154146  11.350  13.065   2.368
50771SOL    HW254147  11.365  13.095   2.516
50772SOL     OW54148   4.022   0.269   6.051
50772SOL    HW154149   4.047   0.327   5.979
50772SOL    HW254150   4.106   0.244   6.092
50773SOL     OW54151   8.788  10.141  11.352
50773SOL    HW154152   8.704  10.142  11.397
50773SOL    HW254153   8.767  10.151  11.259
50774SOL     OW54154  13.021   8.597   7.680
50774SOL    HW154155  12.996   8.529   7.743
50774SOL    HW254156  12.954   8.591   7.612
50775SOL     OW54157   6.329   5.719   5.953
50775SOL    HW154158   6.406   5.688   5.907
50775SOL    HW254159   6.363   5.764   6.031
50776SOL     OW54160  10.408  12.294   4.126
50776SOL    HW154161  10.475  12.358   4.103
50776SOL    HW254162  10.384  12.254   4.042
50777SOL     OW54163  10.142   0.982  11.565
50777SOL    HW154164  10.118   0.894  11.534
50777SOL    HW254165  10.082   1.041  11.518
50778SOL     OW54166   6.993  11.921  11.096
50778SOL    HW154167   6.995  11.855  11.166
50778SOL    HW254168   6.982  12.004  11.141
50779SOL     OW54169   1.109   6.887   4.029
50779SOL    HW154170   1.063   6.825   3.972
50779SOL    HW254171   1.078   6.973   4.001
50780SOL     OW54172  11.685   5.710  12.243
50780SOL    HW154173  11.607   5.737  12.292
50780SOL    HW254174  11.655   5.699  12.153
50781SOL     OW54175  13.556  12.099   8.119
50781SOL    HW154176  13.480  12.144   8.082
50781SOL    HW254177  13.537  12.006   8.107
50782SOL     OW54178  12.166   6.323  11.562
50782SOL    HW154179  12.148   6.246  11.508
50782SOL    HW254180  12.212   6.383  11.504
50783SOL     OW54181  12.560   9.295   8.004
50783SOL    HW154182  12.501   9.297   7.929
50783SOL    HW254183  12.502   9.297   8.080
50784SOL     OW54184   1.918  10.736  12.012
50784SOL    HW154185   1.825  10.746  11.991
50784SOL    HW254186   1.918  10.704  12.103
50785SOL     OW54187  14.166   8.088   8.653
50785SOL    HW154188  14.239   8.142   8.683
50785SOL    HW254189  14.148   8.030   8.728
50786SOL     OW54190  13.243   3.363   7.579
50786SOL    HW154191  13.176   3.353   7.647
50786SOL    HW254192  13.196   3.354   7.497
50787SOL     OW54193   9.645   4.607  14.453
50787SOL    HW154194   9.623   4.515  14.470
50787SOL    HW254195   9.699   4.604  14.374
50788SOL     OW54196   6.959   6.751   3.306
50788SOL    HW154197   6.893   6.739   3.237
50788SOL    HW254198   6.999   6.665   3.317
50789SOL     OW54199   1.607   5.198   8.779
50789SOL    HW154200   1.632   5.134   8.713
50789SOL    HW254201   1.567   5.146   8.849
50790SOL     OW54202   6.498   7.447  10.967
50790SOL    HW154203   6.590   7.470  10.979
50790SOL    HW254204   6.452   7.532  10.964
50791SOL     OW54205   3.657  11.795   4.297
50791SOL    HW154206   3.567  11.829   4.303
50791SOL    HW254207   3.692  11.836   4.218
50792SOL     OW54208  11.985  12.969   9.939
50792SOL    HW154209  11.985  13.006   9.851
50792SOL    HW254210  12.069  12.923   9.946
50793SOL     OW54211   9.267   8.369  12.228
50793SOL    HW154212   9.237   8.456  12.205
50793SOL    HW254213   9.311   8.380  12.312
50794SOL     OW54214   9.866  10.448  13.839
50794SOL    HW154215   9.933  10.415  13.779
50794SOL    HW254216   9.783  10.416  13.803
50795SOL     OW54217   8.012   7.858  10.841
50795SOL    HW154218   8.026   7.871  10.747
50795SOL    HW254219   7.959   7.933  10.868
50796SOL     OW54220  11.834   7.886   1.370
50796SOL    HW154221  11.804   7.806   1.327
50796SOL    HW254222  11.907   7.857   1.425
50797SOL     OW54223   5.139   8.715   5.657
50797SOL    HW154224   5.056   8.757   5.680
50797SOL    HW254225   5.176   8.687   5.741
50798SOL     OW54226   8.671   4.365   1.815
50798SOL    HW154227   8.594   4.402   1.772
50798SOL    HW254228   8.642   4.281   1.850
50799SOL     OW54229   2.935  11.388  13.764
50799SOL    HW154230   2.851  11.422  13.796
50799SOL    HW254231   2.914  11.349  13.679
50800SOL     OW54232  14.500  12.366  12.984
50800SOL    HW154233  14.512  12.350  12.890
50800SOL    HW254234  14.419  12.321  13.006
50801SOL     OW54235   9.262   1.871   2.677
50801SOL    HW154236   9.249   1.806   2.608
50801SOL    HW254237   9.270   1.955   2.630
50802SOL     OW54238   3.885  13.947   2.715
50802SOL    HW154239   3.850  13.886   2.650
50802SOL    HW254240   3.906  13.892   2.790
50803SOL     OW54241   4.993   2.788   8.923
50803SOL    HW154242   5.012   2.833   8.841
50803SOL    HW254243   5.021   2.698   8.909
50804SOL     OW54244   2.823  13.973   4.822
50804SOL    HW154245   2.841  13.939   4.910
50804SOL    HW254246   2.730  13.955   4.808
50805SOL     OW54247   9.544   4.004   2.035
50805SOL    HW154248   9.560   4.025   2.127
50805SOL    HW254249   9.602   3.930   2.017
50806SOL     OW54250   1.973  14.001   5.634
50806SOL    HW154251   2.063  13.997   5.601
50806SOL    HW254252   1.974  13.950   5.715
50807SOL     OW54253   9.097   4.537   3.830
50807SOL    HW154254   9.011   4.573   3.851
50807SOL    HW254255   9.130   4.504   3.914
50808SOL     OW54256   7.997   4.291   7.447
50808SOL    HW154257   8.016   4.264   7.357
50808SOL    HW254258   8.062   4.244   7.500
50809SOL     OW54259   6.085  13.926   2.219
50809SOL    HW154260   6.052  13.838   2.240
50809SOL    HW254261   6.178  13.913   2.204
50810SOL     OW54262   2.933  10.645   2.517
50810SOL    HW154263   2.885  10.724   2.541
50810SOL    HW254264   2.928  10.589   2.595
50811SOL     OW54265   4.434  13.599  10.491
50811SOL    HW154266   4.513  13.572  10.443
50811SOL    HW254267   4.466  13.647  10.567
50812SOL     OW54268  12.171  11.483  13.427
50812SOL    HW154269  12.225  11.476  13.506
50812SOL    HW254270  12.208  11.417  13.368
50813SOL     OW54271  13.708   1.190   0.700
50813SOL    HW154272  13.654   1.111   0.704
50813SOL    HW254273  13.653   1.255   0.656
50814SOL     OW54274   9.196  12.265   9.532
50814SOL    HW154275   9.113  12.271   9.580
50814SOL    HW254276   9.252  12.211   9.587
50815SOL     OW54277   8.316   5.732   8.054
50815SOL    HW154278   8.250   5.667   8.080
50815SOL    HW254279   8.356   5.694   7.975
50816SOL     OW54280   0.004   7.511   0.408
50816SOL    HW154281   0.026   7.517   0.501
50816SOL    HW254282   0.032   7.423   0.382
50817SOL     OW54283  10.009   1.623  13.152
50817SOL    HW154284   9.926   1.652  13.115
50817SOL    HW254285  10.057   1.703  13.172
50818SOL     OW54286   0.020   6.284   5.882
50818SOL    HW154287   0.046   6.251   5.968
50818SOL    HW254288  14.849   6.212   5.844
50819SOL     OW54289   3.350   7.558  12.626
50819SOL    HW154290   3.433   7.556  12.579
50819SOL    HW254291   3.323   7.467  12.633
50820SOL     OW54292   5.107   2.180  14.553
50820SOL    HW154293   5.107   2.117  14.480
50820SOL    HW254294   5.090   2.126  14.630
50821SOL     OW54295   4.847   8.999   3.961
50821SOL    HW154296   4.874   8.925   4.016
50821SOL    HW254297   4.823   9.068   4.023
50822SOL     OW54298   7.540  11.475   9.857
50822SOL    HW154299   7.532  11.484   9.952
50822SOL    HW254300   7.631  11.450   9.842
50823SOL     OW54301   4.319  14.016   0.259
50823SOL    HW154302   4.379  14.090   0.247
50823SOL    HW254303   4.263  14.018   0.182
50824SOL     OW54304  13.509   6.088   4.585
50824SOL    HW154305  13.584   6.062   4.531
50824SOL    HW254306  13.456   6.009   4.592
50825SOL     OW54307   2.036  12.293   0.110
50825SOL    HW154308   2.125  12.285   0.078
50825SOL    HW254309   2.045  12.318   0.202
50826SOL     OW54310  10.044   5.738  10.384
50826SOL    HW154311   9.979   5.758  10.317
50826SOL    HW254312  10.055   5.821  10.432
50827SOL     OW54313   6.183  10.814  10.247
50827SOL    HW154314   6.185  10.721  10.267
50827SOL    HW254315   6.201  10.857  10.331
50828SOL     OW54316   0.928   7.694   7.377
50828SOL    HW154317   0.970   7.696   7.463
50828SOL    HW254318   0.843   7.653   7.392
50829SOL     OW54319   1.547   3.561  11.763
50829SOL    HW154320   1.527   3.641  11.812
50829SOL    HW254321   1.636   3.537  11.791
50830SOL     OW54322   3.885  14.208   2.548
50830SOL    HW154323   3.909  14.140   2.612
50830SOL    HW254324   3.804  14.177   2.510
50831SOL     OW54325  10.802   5.561   3.376
50831SOL    HW154326  10.742   5.579   3.448
50831SOL    HW254327  10.752   5.505   3.316
50832SOL     OW54328   1.783   9.170  12.153
50832SOL    HW154329   1.871   9.131  12.161
50832SOL    HW254330   1.740   9.147  12.235
50833SOL     OW54331  11.080   4.302   7.818
50833SOL    HW154332  11.019   4.269   7.883
50833SOL    HW254333  11.113   4.384   7.854
50834SOL     OW54334  11.881   9.813   8.117
50834SOL    HW154335  11.967   9.829   8.155
50834SOL    HW254336  11.821   9.811   8.191
50835SOL     OW54337   5.152   3.569   9.789
50835SOL    HW154338   5.116   3.657   9.775
50835SOL    HW254339   5.247   3.583   9.796
50836SOL     OW54340   0.318  11.263   5.985
50836SOL    HW154341   0.361  11.261   6.070
50836SOL    HW254342   0.334  11.352   5.952
50837SOL     OW54343  10.554   3.279   5.781
50837SOL    HW154344  10.564   3.193   5.740
50837SOL    HW254345  10.526   3.260   5.870
50838SOL     OW54346  14.816  14.796  13.917
50838SOL    HW154347  14.750  14.865  13.920
50838SOL    HW254348  14.782  14.732  13.855
50839SOL     OW54349   0.315  10.428  11.752
50839SOL    HW154350   0.308  10.344  11.705
50839SOL    HW254351   0.228  10.468  11.742
50840SOL     OW54352   8.603   3.212   9.616
50840SOL    HW154353   8.544   3.284   9.633
50840SOL    HW254354   8.634   3.227   9.526
50841SOL     OW54355  10.148   6.327   0.158
50841SOL    HW154356  10.207   6.354   0.228
50841SOL    HW254357  10.205   6.285   0.093
50842SOL     OW54358  11.767   3.828   3.323
50842SOL    HW154359  11.783   3.756   3.384
50842SOL    HW254360  11.842   3.827   3.264
50843SOL     OW54361  13.836   3.991   6.587
50843SOL    HW154362  13.819   4.025   6.674
50843SOL    HW254363  13.905   4.047   6.551
50844SOL     OW54364  13.338  12.539  12.271
50844SOL    HW154365  13.422  12.553  12.316
50844SOL    HW254366  13.272  12.552  12.339
50845SOL     OW54367   3.439   1.497   9.153
50845SOL    HW154368   3.362   1.501   9.097
50845SOL    HW254369   3.462   1.404   9.156
50846SOL     OW54370   0.827   7.871  11.991
50846SOL    HW154371   0.849   7.883  11.899
50846SOL    HW254372   0.891   7.924  12.038
50847SOL     OW54373  14.735   5.790   3.197
50847SOL    HW154374  14.774   5.809   3.112
50847SOL    HW254375  14.704   5.699   3.190
50848SOL     OW54376  10.101   0.028  11.783
50848SOL    HW154377  10.049   0.079  11.721
50848SOL    HW254378  10.096   0.077  11.865
50849SOL     OW54379   1.868   1.385  12.229
50849SOL    HW154380   1.892   1.469  12.268
50849SOL    HW254381   1.848   1.329  12.304
50850SOL     OW54382   2.083   1.562   5.738
50850SOL    HW154383   2.124   1.589   5.820
50850SOL    HW254384   1.995   1.600   5.741
50851SOL     OW54385   2.222  12.178   1.390
50851SOL    HW154386   2.189  12.268   1.379
50851SOL    HW254387   2.298  12.187   1.447
50852SOL     OW54388   9.256   4.997   3.143
50852SOL    HW154389   9.327   4.938   3.170
50852SOL    HW254390   9.262   5.071   3.203
50853SOL     OW54391   0.758   3.351  10.937
50853SOL    HW154392   0.766   3.273  10.992
50853SOL    HW254393   0.847   3.386  10.933
50854SOL     OW54394   6.091  14.331   9.032
50854SOL    HW154395   6.136  14.269   8.976
50854SOL    HW254396   6.089  14.289   9.118
50855SOL     OW54397   6.731  10.155  14.625
50855SOL    HW154398   6.778  10.213  14.566
50855SOL    HW254399   6.658  10.207  14.659
50856SOL     OW54400   9.903  12.654  14.501
50856SOL    HW154401   9.991  12.688  14.482
50856SOL    HW254402   9.912  12.559  14.494
50857SOL     OW54403  14.483   7.352   0.250
50857SOL    HW154404  14.570   7.336   0.213
50857SOL    HW254405  14.431   7.386   0.177
50858SOL     OW54406  14.529   7.871   2.255
50858SOL    HW154407  14.617   7.863   2.292
50858SOL    HW254408  14.531   7.953   2.206
50859SOL     OW54409   4.384  13.597  13.010
50859SOL    HW154410   4.346  13.606  13.097
50859SOL    HW254411   4.457  13.537  13.022
50860SOL     OW54412   5.076   9.551  12.123
50860SOL    HW154413   5.084   9.585  12.034
50860SOL    HW254414   5.024   9.616  12.170
50861SOL     OW54415   9.813   7.364   8.666
50861SOL    HW154416   9.866   7.438   8.694
50861SOL    HW254417   9.794   7.382   8.574
50862SOL     OW54418   4.818   0.603  13.797
50862SOL    HW154419   4.798   0.530  13.856
50862SOL    HW254420   4.780   0.680  13.839
50863SOL     OW54421  13.206   6.209  12.593
50863SOL    HW154422  13.296   6.241  12.593
50863SOL    HW254423  13.177   6.220  12.502
50864SOL     OW54424  11.033  14.130   6.035
50864SOL    HW154425  10.952  14.175   6.011
50864SOL    HW254426  11.037  14.054   5.977
50865SOL     OW54427  10.701   1.910   2.454
50865SOL    HW154428  10.640   1.983   2.439
50865SOL    HW254429  10.783   1.953   2.480
50866SOL     OW54430   8.194  11.864   8.288
50866SOL    HW154431   8.221  11.821   8.208
50866SOL    HW254432   8.190  11.957   8.265
50867SOL     OW54433   3.486  10.955   9.891
50867SOL    HW154434   3.523  10.918   9.972
50867SOL    HW254435   3.456  11.042   9.917
50868SOL     OW54436   9.873   3.313   3.165
50868SOL    HW154437   9.915   3.253   3.227
50868SOL    HW254438   9.794   3.267   3.136
50869SOL     OW54439  13.603   5.486   3.723
50869SOL    HW154440  13.641   5.574   3.713
50869SOL    HW254441  13.541   5.495   3.795
50870SOL     OW54442   3.489   3.202   1.141
50870SOL    HW154443   3.561   3.178   1.082
50870SOL    HW254444   3.420   3.233   1.082
50871SOL     OW54445   5.972   8.572  12.094
50871SOL    HW154446   5.994   8.665  12.096
50871SOL    HW254447   5.879   8.569  12.071
50872SOL     OW54448   6.052   9.800   0.872
50872SOL    HW154449   6.083   9.799   0.962
50872SOL    HW254450   6.102   9.870   0.830
50873SOL     OW54451   6.838   7.464   4.653
50873SOL    HW154452   6.745   7.451   4.669
50873SOL    HW254453   6.852   7.558   4.660
50874SOL     OW54454  11.735  14.048   2.097
50874SOL    HW154455  11.705  14.139   2.086
50874SOL    HW254456  11.830  14.052   2.087
50875SOL     OW54457  14.083   3.632  10.359
50875SOL    HW154458  14.144   3.573  10.315
50875SOL    HW254459  14.136   3.674  10.427
50876SOL     OW54460   1.970  12.546   7.584
50876SOL    HW154461   1.918  12.607   7.636
50876SOL    HW254462   2.020  12.495   7.648
50877SOL     OW54463   8.945   7.378  10.739
50877SOL    HW154464   8.891   7.306  10.706
50877SOL    HW254465   8.926   7.381  10.833
50878SOL     OW54466   8.879   6.787  14.434
50878SOL    HW154467   8.845   6.771  14.346
50878SOL    HW254468   8.912   6.877  14.432
50879SOL     OW54469   1.864   3.871  10.957
50879SOL    HW154470   1.828   3.793  10.999
50879SOL    HW254471   1.809   3.942  10.990
50880SOL     OW54472   9.139   3.064  13.836
50880SOL    HW154473   9.232   3.051  13.820
50880SOL    HW254474   9.096   3.006  13.772
50881SOL     OW54475   6.479   9.514   3.820
50881SOL    HW154476   6.545   9.579   3.844
50881SOL    HW254477   6.465   9.527   3.726
50882SOL     OW54478   0.012   8.703   3.352
50882SOL    HW154479  14.844   8.730   3.273
50882SOL    HW254480   0.102   8.689   3.323
50883SOL     OW54481   7.947   6.585   1.372
50883SOL    HW154482   7.882   6.524   1.407
50883SOL    HW254483   8.021   6.529   1.347
50884SOL     OW54484   4.370   2.627   3.688
50884SOL    HW154485   4.348   2.721   3.690
50884SOL    HW254486   4.346   2.599   3.600
50885SOL     OW54487   0.548   4.702   8.997
50885SOL    HW154488   0.537   4.731   8.906
50885SOL    HW254489   0.564   4.783   9.046
50886SOL     OW54490   3.531   1.582  13.012
50886SOL    HW154491   3.538   1.636  12.934
50886SOL    HW254492   3.608   1.603  13.064
50887SOL     OW54493   5.221   2.572  10.942
50887SOL    HW154494   5.259   2.654  10.975
50887SOL    HW254495   5.296   2.516  10.923
50888SOL     OW54496  12.755   3.026   2.583
50888SOL    HW154497  12.680   3.079   2.557
50888SOL    HW254498  12.743   3.010   2.676
50889SOL     OW54499  10.013   4.725   6.210
50889SOL    HW154500   9.927   4.709   6.247
50889SOL    HW254501  10.062   4.644   6.226
50890SOL     OW54502   0.150   2.810  14.319
50890SOL    HW154503   0.126   2.720  14.299
50890SOL    HW254504   0.079   2.841  14.376
50891SOL     OW54505  14.086   2.513  13.254
50891SOL    HW154506  14.167   2.476  13.290
50891SOL    HW254507  14.103   2.520  13.160
50892SOL     OW54508  13.998   8.713   2.823
50892SOL    HW154509  13.998   8.794   2.874
50892SOL    HW254510  14.071   8.662   2.858
50893SOL     OW54511   8.176   1.902   9.119
50893SOL    HW154512   8.208   1.836   9.057
50893SOL    HW254513   8.126   1.964   9.065
50894SOL     OW54514   3.778   1.223  11.055
50894SOL    HW154515   3.743   1.149  11.005
50894SOL    HW254516   3.792   1.291  10.989
50895SOL     OW54517  14.785   5.845   8.742
50895SOL    HW154518  14.700   5.839   8.786
50895SOL    HW254519  14.789   5.768   8.686
50896SOL     OW54520   3.217  12.934   0.045
50896SOL    HW154521   3.313  12.928   0.048
50896SOL    HW254522   3.187  12.865   0.104
50897SOL     OW54523  11.596   3.175   9.627
50897SOL    HW154524  11.656   3.246   9.602
50897SOL    HW254525  11.653   3.098   9.635
50898SOL     OW54526   0.210  12.387  11.123
50898SOL    HW154527   0.172  12.470  11.096
50898SOL    HW254528   0.290  12.410  11.170
50899SOL     OW54529   9.270   2.302   2.099
50899SOL    HW154530   9.325   2.255   2.036
50899SOL    HW254531   9.205   2.347   2.046
50900SOL     OW54532   9.701   1.362   4.387
50900SOL    HW154533   9.682   1.321   4.302
50900SOL    HW254534   9.634   1.429   4.397
50901SOL     OW54535  14.753   6.394   8.227
50901SOL    HW154536  14.751   6.299   8.214
50901SOL    HW254537  14.699   6.409   8.305
50902SOL     OW54538   6.076  12.410   0.685
50902SOL    HW154539   6.146  12.362   0.730
50902SOL    HW254540   6.089  12.501   0.711
50903SOL     OW54541  13.241   2.837   8.440
50903SOL    HW154542  13.186   2.871   8.510
50903SOL    HW254543  13.214   2.746   8.430
50904SOL     OW54544   8.925   3.243   7.061
50904SOL    HW154545   8.994   3.179   7.078
50904SOL    HW254546   8.970   3.316   7.017
50905SOL     OW54547   1.175   4.856   3.177
50905SOL    HW154548   1.145   4.771   3.143
50905SOL    HW254549   1.178   4.844   3.272
50906SOL     OW54550   8.849   9.637   6.675
50906SOL    HW154551   8.779   9.682   6.721
50906SOL    HW254552   8.899   9.707   6.631
50907SOL     OW54553   5.028   3.940  10.326
50907SOL    HW154554   5.051   3.873  10.391
50907SOL    HW254555   4.958   3.990  10.367
50908SOL     OW54556   9.225  13.467   7.166
50908SOL    HW154557   9.209  13.406   7.095
50908SOL    HW254558   9.138  13.502   7.188
50909SOL     OW54559   4.044  13.395   3.033
50909SOL    HW154560   4.007  13.309   3.052
50909SOL    HW254561   3.969  13.454   3.036
50910SOL     OW54562   6.664   0.769  13.619
50910SOL    HW154563   6.656   0.849  13.672
50910SOL    HW254564   6.635   0.699  13.678
50911SOL     OW54565   3.090   0.863   6.489
50911SOL    HW154566   3.015   0.840   6.434
50911SOL    HW254567   3.110   0.783   6.537
50912SOL     OW54568   4.571   3.128  13.657
50912SOL    HW154569   4.551   3.180  13.579
50912SOL    HW254570   4.515   3.051  13.649
50913SOL     OW54571   6.861   4.993   9.156
50913SOL    HW154572   6.781   4.970   9.108
50913SOL    HW254573   6.932   4.952   9.106
50914SOL     OW54574   7.914   6.609   9.280
50914SOL    HW154575   7.896   6.688   9.230
50914SOL    HW254576   7.959   6.640   9.359
50915SOL     OW54577   5.774  13.272   5.017
50915SOL    HW154578   5.692  13.229   4.996
50915SOL    HW254579   5.754  13.327   5.093
50916SOL     OW54580   5.992   9.647   7.444
50916SOL    HW154581   5.913   9.609   7.481
50916SOL    HW254582   5.974   9.653   7.350
50917SOL     OW54583   9.625   9.019   0.193
50917SOL    HW154584   9.563   8.947   0.200
50917SOL    HW254585   9.625   9.042   0.100
50918SOL     OW54586   9.182   8.370   8.360
50918SOL    HW154587   9.241   8.433   8.318
50918SOL    HW254588   9.098   8.383   8.317
50919SOL     OW54589  14.282   8.618   4.009
50919SOL    HW154590  14.223   8.682   3.968
50919SOL    HW254591  14.310   8.659   4.090
50920SOL     OW54592  11.641   7.672   2.650
50920SOL    HW154593  11.651   7.581   2.621
50920SOL    HW254594  11.723   7.714   2.624
50921SOL     OW54595   1.185  14.458   4.677
50921SOL    HW154596   1.265  14.435   4.725
50921SOL    HW254597   1.159  14.378   4.633
50922SOL     OW54598   6.641  12.614   1.415
50922SOL    HW154599   6.610  12.699   1.385
50922SOL    HW254600   6.736  12.624   1.420
50923SOL     OW54601   8.721   5.717   7.915
50923SOL    HW154602   8.792   5.755   7.967
50923SOL    HW254603   8.753   5.720   7.825
50924SOL     OW54604  14.575  14.615  10.046
50924SOL    HW154605  14.516  14.552  10.005
50924SOL    HW254606  14.605  14.571  10.125
50925SOL     OW54607   3.489   2.080   6.508
50925SOL    HW154608   3.561   2.071   6.571
50925SOL    HW254609   3.484   2.173   6.490
50926SOL     OW54610   5.761   2.928   8.474
50926SOL    HW154611   5.735   2.837   8.487
50926SOL    HW254612   5.702   2.978   8.529
50927SOL     OW54613  14.658   1.331   1.844
50927SOL    HW154614  14.721   1.260   1.829
50927SOL    HW254615  14.700   1.386   1.910
50928SOL     OW54616  14.763  14.220   7.895
50928SOL    HW154617  14.682  14.173   7.916
50928SOL    HW254618  14.833  14.156   7.907
50929SOL     OW54619  10.756   5.114   8.580
50929SOL    HW154620  10.662   5.131   8.581
50929SOL    HW254621  10.771   5.061   8.502
50930SOL     OW54622   3.129   4.116  14.704
50930SOL    HW154623   3.215   4.082  14.679
50930SOL    HW254624   3.095   4.156  14.624
50931SOL     OW54625   1.875  13.710   7.903
50931SOL    HW154626   1.939  13.747   7.842
50931SOL    HW254627   1.860  13.780   7.967
50932SOL     OW54628   1.751  12.297   5.575
50932SOL    HW154629   1.661  12.267   5.561
50932SOL    HW254630   1.743  12.372   5.633
50933SOL     OW54631   1.992   0.826   1.763
50933SOL    HW154632   2.028   0.904   1.803
50933SOL    HW254633   1.979   0.850   1.671
50934SOL     OW54634  11.955   9.932   9.160
50934SOL    HW154635  11.914  10.015   9.182
50934SOL    HW254636  11.940   9.876   9.236
50935SOL     OW54637   3.638  14.111   4.835
50935SOL    HW154638   3.664  14.147   4.751
50935SOL    HW254639   3.544  14.095   4.827
50936SOL     OW54640  11.504   2.115  10.409
50936SOL    HW154641  11.571   2.071  10.461
50936SOL    HW254642  11.551   2.143  10.330
50937SOL     OW54643   5.966   9.876   6.942
50937SOL    HW154644   6.016   9.939   6.890
50937SOL    HW254645   5.877   9.882   6.907
50938SOL     OW54646  10.617   0.372   4.937
50938SOL    HW154647  10.666   0.313   4.994
50938SOL    HW254648  10.634   0.341   4.848
50939SOL     OW54649   9.414   9.496  12.651
50939SOL    HW154650   9.448   9.500  12.740
50939SOL    HW254651   9.397   9.587  12.628
50940SOL     OW54652  14.503   6.329   1.011
50940SOL    HW154653  14.568   6.291   0.953
50940SOL    HW254654  14.551   6.351   1.091
50941SOL     OW54655   0.456   4.837   0.692
50941SOL    HW154656   0.425   4.852   0.781
50941SOL    HW254657   0.400   4.892   0.637
50942SOL     OW54658   6.552  10.408  13.413
50942SOL    HW154659   6.515  10.416  13.501
50942SOL    HW254660   6.577  10.316  13.406
50943SOL     OW54661   1.850  11.450   4.449
50943SOL    HW154662   1.777  11.426   4.392
50943SOL    HW254663   1.876  11.368   4.491
50944SOL     OW54664   3.105  10.986  12.434
50944SOL    HW154665   3.136  10.904  12.473
50944SOL    HW254666   3.019  10.965  12.398
50945SOL     OW54667   0.340   1.354  13.767
50945SOL    HW154668   0.398   1.430  13.759
50945SOL    HW254669   0.266   1.373  13.709
50946SOL     OW54670   5.303   9.319   0.089
50946SOL    HW154671   5.286   9.302   0.181
50946SOL    HW254672   5.257   9.249   0.042
50947SOL     OW54673   4.679   6.219   2.803
50947SOL    HW154674   4.761   6.169   2.808
50947SOL    HW254675   4.638   6.207   2.888
50948SOL     OW54676   0.595   7.310   8.552
50948SOL    HW154677   0.526   7.248   8.577
50948SOL    HW254678   0.632   7.274   8.472
50949SOL     OW54679  11.273   9.191   2.619
50949SOL    HW154680  11.315   9.193   2.533
50949SOL    HW254681  11.271   9.098   2.642
50950SOL     OW54682   6.534   9.998   3.236
50950SOL    HW154683   6.543  10.055   3.160
50950SOL    HW254684   6.619  10.002   3.279
50951SOL     OW54685   1.432  14.009  13.289
50951SOL    HW154686   1.353  14.030  13.339
50951SOL    HW254687   1.428  13.914  13.275
50952SOL     OW54688   1.092   3.534   9.643
50952SOL    HW154689   1.041   3.555   9.721
50952SOL    HW254690   1.047   3.580   9.572
50953SOL     OW54691   7.092   5.639  14.366
50953SOL    HW154692   7.146   5.560  14.370
50953SOL    HW254693   7.036   5.633  14.442
50954SOL     OW54694   0.327   4.488   8.845
50954SOL    HW154695   0.403   4.540   8.871
50954SOL    HW254696   0.255   4.551   8.840
50955SOL     OW54697   3.720   2.833   5.974
50955SOL    HW154698   3.707   2.738   5.977
50955SOL    HW254699   3.631   2.869   5.967
50956SOL     OW54700   0.750  10.400   9.415
50956SOL    HW154701   0.810  10.340   9.369
50956SOL    HW254702   0.691  10.342   9.464
50957SOL     OW54703  11.990   5.480  10.380
50957SOL    HW154704  12.036   5.563  10.370
50957SOL    HW254705  11.994   5.440  10.293
50958SOL     OW54706   4.853   1.598   1.213
50958SOL    HW154707   4.867   1.504   1.205
50958SOL    HW254708   4.929   1.629   1.262
50959SOL     OW54709  12.288   8.872   5.507
50959SOL    HW154710  12.287   8.902   5.597
50959SOL    HW254711  12.332   8.787   5.510
50960SOL     OW54712  11.129  11.049   4.918
50960SOL    HW154713  11.102  11.138   4.941
50960SOL    HW254714  11.183  11.020   4.991
50961SOL     OW54715  13.855   3.679  11.884
50961SOL    HW154716  13.876   3.600  11.834
50961SOL    HW254717  13.779   3.717  11.839
50962SOL     OW54718  13.480   3.851   8.833
50962SOL    HW154719  13.419   3.876   8.901
50962SOL    HW254720  13.461   3.911   8.760
50963SOL     OW54721   2.253  14.374   1.086
50963SOL    HW154722   2.300  14.454   1.107
50963SOL    HW254723   2.321  14.306   1.083
50964SOL     OW54724  11.018   7.751   5.321
50964SOL    HW154725  11.066   7.800   5.387
50964SOL    HW254726  10.972   7.683   5.370
50965SOL     OW54727  10.411   1.045  13.747
50965SOL    HW154728  10.471   1.115  13.722
50965SOL    HW254729  10.459   0.993  13.811
50966SOL     OW54730  13.477   1.476   6.514
50966SOL    HW154731  13.545   1.413   6.538
50966SOL    HW254732  13.415   1.425   6.462
50967SOL     OW54733   9.579   3.448   8.789
50967SOL    HW154734   9.651   3.439   8.852
50967SOL    HW254735   9.581   3.368   8.737
50968SOL     OW54736  10.531   5.183   6.628
50968SOL    HW154737  10.506   5.186   6.536
50968SOL    HW254738  10.530   5.090   6.651
50969SOL     OW54739   7.817  12.890   5.660
50969SOL    HW154740   7.876  12.824   5.623
50969SOL    HW254741   7.807  12.954   5.589
50970SOL     OW54742  14.146   8.172   6.739
50970SOL    HW154743  14.220   8.174   6.677
50970SOL    HW254744  14.092   8.246   6.713
50971SOL     OW54745  13.102   0.419   3.449
50971SOL    HW154746  13.024   0.363   3.448
50971SOL    HW254747  13.160   0.378   3.512
50972SOL     OW54748   4.724  12.965  10.988
50972SOL    HW154749   4.736  12.957  11.083
50972SOL    HW254750   4.657  13.032  10.977
50973SOL     OW54751  12.802   8.379  14.005
50973SOL    HW154752  12.755   8.462  14.012
50973SOL    HW254753  12.741   8.313  14.039
50974SOL     OW54754   4.373   1.576   8.799
50974SOL    HW154755   4.347   1.663   8.769
50974SOL    HW254756   4.468   1.576   8.795
50975SOL     OW54757   9.928  14.217   0.928
50975SOL    HW154758   9.836  14.200   0.947
50975SOL    HW254759   9.947  14.163   0.851
50976SOL     OW54760   3.936   0.549   1.043
50976SOL    HW154761   3.862   0.519   1.097
50976SOL    HW254762   3.988   0.470   1.028
50977SOL     OW54763  14.135   3.999   8.345
50977SOL    HW154764  14.228   3.976   8.337
50977SOL    HW254765  14.133   4.093   8.328
50978SOL     OW54766  14.765   6.658  14.866
50978SOL    HW154767  14.747   6.628  14.777
50978SOL    HW254768  14.753   6.580   0.042
50979SOL     OW54769   4.157   6.988  14.846
50979SOL    HW154770   4.109   6.920   0.014
50979SOL    HW254771   4.170   7.058   0.032
50980SOL     OW54772  11.600   1.756   7.451
50980SOL    HW154773  11.594   1.784   7.543
50980SOL    HW254774  11.691   1.771   7.427
50981SOL     OW54775   0.220  10.772   7.892
50981SOL    HW154776   0.135  10.814   7.877
50981SOL    HW254777   0.280  10.817   7.833
50982SOL     OW54778   0.228  10.148  13.731
50982SOL    HW154779   0.240  10.128  13.823
50982SOL    HW254780   0.242  10.243  13.724
50983SOL     OW54781   6.044   5.694   1.255
50983SOL    HW154782   6.027   5.779   1.216
50983SOL    HW254783   5.978   5.686   1.325
50984SOL     OW54784   4.400   3.830   1.078
50984SOL    HW154785   4.318   3.858   1.120
50984SOL    HW254786   4.468   3.866   1.135
50985SOL     OW54787  14.814   4.215   0.642
50985SOL    HW154788   0.025   4.182   0.630
50985SOL    HW254789  14.823   4.310   0.637
50986SOL     OW54790  14.285  10.975   6.320
50986SOL    HW154791  14.208  11.025   6.294
50986SOL    HW254792  14.251  10.900   6.368
50987SOL     OW54793   2.527   2.582  14.035
50987SOL    HW154794   2.514   2.578  13.940
50987SOL    HW254795   2.622   2.596  14.045
50988SOL     OW54796   5.789   5.534   3.679
50988SOL    HW154797   5.790   5.497   3.767
50988SOL    HW254798   5.699   5.564   3.666
50989SOL     OW54799  11.368  13.311  10.225
50989SOL    HW154800  11.406  13.390  10.186
50989SOL    HW254801  11.416  13.239  10.184
50990SOL     OW54802   3.395   4.791   9.891
50990SOL    HW154803   3.467   4.739   9.855
50990SOL    HW254804   3.320   4.730   9.893
50991SOL     OW54805   2.289  12.555   4.185
50991SOL    HW154806   2.200  12.523   4.173
50991SOL    HW254807   2.334  12.530   4.104
50992SOL     OW54808  13.219   0.674   8.380
50992SOL    HW154809  13.303   0.636   8.405
50992SOL    HW254810  13.222   0.676   8.284
50993SOL     OW54811  11.788   1.310   1.920
50993SOL    HW154812  11.837   1.246   1.972
50993SOL    HW254813  11.698   1.301   1.949
50994SOL     OW54814   8.585   4.096  11.982
50994SOL    HW154815   8.587   4.187  11.951
50994SOL    HW254816   8.497   4.084  12.016
50995SOL     OW54817   8.990  12.450   5.375
50995SOL    HW154818   8.991  12.490   5.288
50995SOL    HW254819   9.079  12.461   5.408
50996SOL     OW54820   2.663   7.909  12.011
50996SOL    HW154821   2.572   7.919  12.039
50996SOL    HW254822   2.696   7.998  12.001
50997SOL     OW54823   1.743   5.702   2.542
50997SOL    HW154824   1.704   5.772   2.489
50997SOL    HW254825   1.716   5.621   2.499
50998SOL     OW54826  12.511  14.301   9.102
50998SOL    HW154827  12.606  14.296   9.116
50998SOL    HW254828  12.484  14.380   9.149
50999SOL     OW54829   0.212  10.550   3.353
50999SOL    HW154830   0.189  10.588   3.268
50999SOL    HW254831   0.290  10.597   3.380
51000SOL     OW54832  11.189   3.387   1.796
51000SOL    HW154833  11.270   3.369   1.844
51000SOL    HW254834  11.204   3.472   1.755
51001SOL     OW54835   2.974   6.221   3.193
51001SOL    HW154836   2.952   6.135   3.231
51001SOL    HW254837   2.895   6.246   3.144
51002SOL     OW54838   7.177   7.355  11.969
51002SOL    HW154839   7.118   7.417  12.012
51002SOL    HW254840   7.130   7.327  11.891
51003SOL     OW54841   6.271   1.391   5.461
51003SOL    HW154842   6.357   1.425   5.484
51003SOL    HW254843   6.255   1.425   5.372
51004SOL     OW54844  11.087   5.566  12.593
51004SOL    HW154845  11.098   5.498  12.659
51004SOL    HW254846  11.054   5.642  12.641
51005SOL     OW54847   4.675   7.865   4.597
51005SOL    HW154848   4.651   7.773   4.600
51005SOL    HW254849   4.754   7.868   4.545
51006SOL     OW54850   0.333   0.090  12.642
51006SOL    HW154851   0.410   0.091  12.699
51006SOL    HW254852   0.342   0.009  12.592
51007SOL     OW54853   8.407  11.970  12.056
51007SOL    HW154854   8.404  11.992  11.963
51007SOL    HW254855   8.496  11.992  12.083
51008SOL     OW54856  12.007   7.503   6.835
51008SOL    HW154857  11.917   7.469   6.836
51008SOL    HW254858  12.057   7.438   6.786
51009SOL     OW54859   1.750   3.273   4.264
51009SOL    HW154860   1.732   3.249   4.173
51009SOL    HW254861   1.714   3.200   4.315
51010SOL     OW54862  13.569   2.900   1.185
51010SOL    HW154863  13.586   2.896   1.091
51010SOL    HW254864  13.642   2.852   1.224
51011SOL     OW54865   5.341   0.563   4.009
51011SOL    HW154866   5.371   0.644   3.968
51011SOL    HW254867   5.273   0.591   4.071
51012SOL     OW54868  12.213   4.161   4.759
51012SOL    HW154869  12.204   4.142   4.666
51012SOL    HW254870  12.138   4.117   4.800
51013SOL     OW54871   1.113   8.960  13.119
51013SOL    HW154872   1.019   8.977  13.114
51013SOL    HW254873   1.122   8.867  13.099
51014SOL     OW54874   1.315  11.057   6.460
51014SOL    HW154875   1.266  11.015   6.389
51014SOL    HW254876   1.328  11.147   6.431
51015SOL     OW54877   7.622   3.445   6.278
51015SOL    HW154878   7.626   3.457   6.184
51015SOL    HW254879   7.541   3.397   6.294
51016SOL     OW54880   3.304   4.076  10.886
51016SOL    HW154881   3.367   4.059  10.956
51016SOL    HW254882   3.348   4.138  10.828
51017SOL     OW54883   1.330  11.811  12.088
51017SOL    HW154884   1.281  11.812  12.006
51017SOL    HW254885   1.274  11.860  12.149
51018SOL     OW54886   6.674   8.915  11.685
51018SOL    HW154887   6.757   8.875  11.658
51018SOL    HW254888   6.700   8.995  11.731
51019SOL     OW54889  10.805  13.815   3.900
51019SOL    HW154890  10.855  13.735   3.916
51019SOL    HW254891  10.871  13.884   3.894
51020SOL     OW54892  10.845  14.840  11.619
51020SOL    HW154893  10.818  14.823  11.529
51020SOL    HW254894  10.765  14.832  11.670
51021SOL     OW54895  12.418   7.615   2.453
51021SOL    HW154896  12.411   7.540   2.513
51021SOL    HW254897  12.429   7.691   2.511
51022SOL     OW54898  10.417  13.360   6.875
51022SOL    HW154899  10.355  13.309   6.823
51022SOL    HW254900  10.489  13.298   6.893
51023SOL     OW54901  10.402   2.913   4.506
51023SOL    HW154902  10.338   2.984   4.502
51023SOL    HW254903  10.353   2.839   4.541
51024SOL     OW54904  13.487   3.556   0.084
51024SOL    HW154905  13.483   3.515  14.877
51024SOL    HW254906  13.550   3.504   0.134
51025SOL     OW54907  14.693   2.079  14.543
51025SOL    HW154908  14.712   2.040  14.458
51025SOL    HW254909  14.675   2.005  14.601
51026SOL     OW54910  13.102   2.074   5.454
51026SOL    HW154911  13.020   2.027   5.439
51026SOL    HW254912  13.170   2.014   5.424
51027SOL     OW54913   3.480   7.343   6.580
51027SOL    HW154914   3.483   7.247   6.580
51027SOL    HW254915   3.403   7.364   6.527
51028SOL     OW54916  12.355   1.365   1.843
51028SOL    HW154917  12.260   1.365   1.831
51028SOL    HW254918  12.390   1.350   1.755
51029SOL     OW54919   0.062  13.692   2.355
51029SOL    HW154920   0.152  13.659   2.362
51029SOL    HW254921   0.067  13.763   2.291
51030SOL     OW54922   2.228   4.308   5.299
51030SOL    HW154923   2.300   4.300   5.361
51030SOL    HW254924   2.233   4.229   5.246
51031SOL     OW54925   5.909  13.432   2.898
51031SOL    HW154926   5.912  13.503   2.962
51031SOL    HW254927   5.837  13.456   2.839
51032SOL     OW54928   8.995   2.316   7.806
51032SOL    HW154929   8.978   2.393   7.751
51032SOL    HW254930   9.014   2.352   7.893
51033SOL     OW54931  11.449   2.369   2.207
51033SOL    HW154932  11.448   2.388   2.301
51033SOL    HW254933  11.534   2.329   2.192
51034SOL     OW54934   7.269   4.535   4.379
51034SOL    HW154935   7.346   4.579   4.414
51034SOL    HW254936   7.252   4.464   4.440
51035SOL     OW54937   9.471   5.157  13.359
51035SOL    HW154938   9.507   5.218  13.423
51035SOL    HW254939   9.436   5.213  13.290
51036SOL     OW54940   3.132  14.182   8.309
51036SOL    HW154941   3.206  14.121   8.308
51036SOL    HW254942   3.130  14.216   8.399
51037SOL     OW54943  12.591  10.132   4.941
51037SOL    HW154944  12.606  10.180   5.022
51037SOL    HW254945  12.496  10.128   4.932
51038SOL     OW54946  13.891   6.894   3.408
51038SOL    HW154947  13.952   6.953   3.452
51038SOL    HW254948  13.943   6.817   3.386
51039SOL     OW54949  10.627   7.185   1.961
51039SOL    HW154950  10.637   7.168   2.055
51039SOL    HW254951  10.626   7.280   1.953
51040SOL     OW54952   9.295   4.969  13.441
51040SOL    HW154953   9.315   4.952  13.533
51040SOL    HW254954   9.367   5.024  13.410
51041SOL     OW54955   0.377   7.896   4.866
51041SOL    HW154956   0.353   7.959   4.934
51041SOL    HW254957   0.467   7.920   4.841
51042SOL     OW54958   7.134  14.327   0.036
51042SOL    HW154959   7.152  14.301   0.127
51042SOL    HW254960   7.067  14.265   0.006
51043SOL     OW54961   5.029   4.718   5.033
51043SOL    HW154962   5.011   4.808   5.005
51043SOL    HW254963   4.944   4.675   5.032
51044SOL     OW54964  11.059   3.100   1.411
51044SOL    HW154965  11.152   3.080   1.424
51044SOL    HW254966  11.040   3.169   1.475
51045SOL     OW54967   7.353   9.807  12.138
51045SOL    HW154968   7.324   9.767  12.220
51045SOL    HW254969   7.280   9.864  12.112
51046SOL     OW54970   8.551   6.183   8.989
51046SOL    HW154971   8.526   6.274   9.004
51046SOL    HW254972   8.647   6.185   8.985
51047SOL     OW54973   6.798   6.886  11.387
51047SOL    HW154974   6.704   6.874  11.378
51047SOL    HW254975   6.814   6.880  11.481
51048SOL     OW54976  14.325  13.206   2.842
51048SOL    HW154977  14.354  13.228   2.930
51048SOL    HW254978  14.396  13.236   2.785
51049SOL     OW54979   7.115   0.556  13.398
51049SOL    HW154980   7.201   0.566  13.437
51049SOL    HW254981   7.123   0.595  13.311
51050SOL     OW54982   6.946   7.259   5.241
51050SOL    HW154983   6.983   7.280   5.327
51050SOL    HW254984   6.856   7.230   5.260
51051SOL     OW54985  10.733   1.822  12.385
51051SOL    HW154986  10.675   1.785  12.451
51051SOL    HW254987  10.728   1.916  12.399
51052SOL     OW54988  12.042   2.584   2.951
51052SOL    HW154989  12.061   2.492   2.932
51052SOL    HW254990  11.986   2.612   2.878
51053SOL     OW54991   5.000   6.125   7.881
51053SOL    HW154992   4.939   6.199   7.876
51053SOL    HW254993   5.034   6.129   7.971
51054SOL     OW54994  11.159   8.681   3.991
51054SOL    HW154995  11.160   8.586   3.977
51054SOL    HW254996  11.212   8.716   3.920
51055SOL     OW54997   0.649   1.276  13.518
51055SOL    HW154998   0.700   1.338  13.572
51055SOL    HW254999   0.701   1.266  13.439
51056SOL     OW55000  12.748   8.872  10.748
51056SOL    HW155001  12.663   8.845  10.783
51056SOL    HW255002  12.805   8.879  10.826
51057SOL     OW55003  14.211   1.609   6.219
51057SOL    HW155004  14.168   1.638   6.139
51057SOL    HW255005  14.139   1.588   6.279
51058SOL     OW55006  13.892  12.753  12.273
51058SOL    HW155007  13.986  12.734  12.277
51058SOL    HW255008  13.886  12.835  12.224
51059SOL     OW55009   2.736   6.328  13.353
51059SOL    HW155010   2.829   6.324  13.375
51059SOL    HW255011   2.712   6.238  13.334
51060SOL     OW55012   2.533   4.478  12.620
51060SOL    HW155013   2.473   4.438  12.557
51060SOL    HW255014   2.580   4.545  12.570
51061SOL     OW55015   9.661   2.065   3.336
51061SOL    HW155016   9.590   2.102   3.388
51061SOL    HW255017   9.736   2.121   3.355
51062SOL     OW55018  10.792   6.117   2.072
51062SOL    HW155019  10.731   6.103   2.144
51062SOL    HW255020  10.869   6.066   2.094
51063SOL     OW55021   5.043   7.760   5.396
51063SOL    HW155022   5.115   7.801   5.443
51063SOL    HW255023   4.992   7.833   5.361
51064SOL     OW55024  14.094   5.414   8.275
51064SOL    HW155025  14.149   5.349   8.320
51064SOL    HW255026  14.120   5.498   8.311
51065SOL     OW55027   0.598   6.450   3.153
51065SOL    HW155028   0.691   6.458   3.135
51065SOL    HW255029   0.581   6.516   3.220
51066SOL     OW55030   5.326  14.393  12.195
51066SOL    HW155031   5.335  14.439  12.278
51066SOL    HW255032   5.272  14.317  12.215
51067SOL     OW55033   5.795  14.014   9.369
51067SOL    HW155034   5.810  13.926   9.405
51067SOL    HW255035   5.858  14.021   9.298
51068SOL     OW55036  12.427   0.783   3.293
51068SOL    HW155037  12.388   0.708   3.338
51068SOL    HW255038  12.354   0.843   3.279
51069SOL     OW55039   3.342   9.427  11.710
51069SOL    HW155040   3.337   9.514  11.668
51069SOL    HW255041   3.355   9.367  11.637
51070SOL     OW55042   6.673  12.487   2.735
51070SOL    HW155043   6.702  12.421   2.798
51070SOL    HW255044   6.654  12.437   2.655
51071SOL     OW55045   0.378  11.940  14.852
51071SOL    HW155046   0.382  12.033  14.876
51071SOL    HW255047   0.386  11.939  14.757
51072SOL     OW55048   1.370   1.042   3.801
51072SOL    HW155049   1.301   1.036   3.735
51072SOL    HW255050   1.365   0.959   3.848
51073SOL     OW55051   3.750  10.381   9.197
51073SOL    HW155052   3.672  10.350   9.152
51073SOL    HW255053   3.784  10.451   9.142
51074SOL     OW55054   7.146   2.923   9.873
51074SOL    HW155055   7.068   2.868   9.863
51074SOL    HW255056   7.152   2.972   9.792
51075SOL     OW55057   9.637   8.512   1.415
51075SOL    HW155058   9.655   8.548   1.502
51075SOL    HW255059   9.671   8.423   1.418
51076SOL     OW55060   3.242   9.090  11.016
51076SOL    HW155061   3.184   9.167  11.023
51076SOL    HW255062   3.286   9.101  10.932
51077SOL     OW55063   4.888   3.998  11.558
51077SOL    HW155064   4.896   3.914  11.512
51077SOL    HW255065   4.795   4.020  11.552
51078SOL     OW55066   5.228  13.948  14.845
51078SOL    HW155067   5.272  14.033  14.839
51078SOL    HW255068   5.139  13.966  14.816
51079SOL     OW55069   9.777   9.345   1.200
51079SOL    HW155070   9.833   9.412   1.160
51079SOL    HW255071   9.812   9.334   1.288
51080SOL     OW55072  10.160   9.260   3.472
51080SOL    HW155073  10.229   9.325   3.456
51080SOL    HW255074  10.110   9.259   3.390
51081SOL     OW55075   8.818  12.181   4.769
51081SOL    HW155076   8.762  12.104   4.782
51081SOL    HW255077   8.847  12.175   4.678
51082SOL     OW55078  12.913   0.340   2.256
51082SOL    HW155079  12.822   0.364   2.275
51082SOL    HW255080  12.947   0.307   2.340
51083SOL     OW55081   6.965  13.483   7.284
51083SOL    HW155082   6.971  13.517   7.195
51083SOL    HW255083   7.046  13.435   7.297
51084SOL     OW55084   1.998  12.757  11.952
51084SOL    HW155085   2.034  12.797  11.873
51084SOL    HW255086   1.997  12.663  11.933
51085SOL     OW55087  12.949   5.449   9.163
51085SOL    HW155088  13.014   5.492   9.219
51085SOL    HW255089  12.894   5.520   9.130
51086SOL     OW55090   9.132   5.418   0.195
51086SOL    HW155091   9.128   5.456   0.107
51086SOL    HW255092   9.083   5.479   0.250
51087SOL     OW55093   0.453   0.172   2.449
51087SOL    HW155094   0.436   0.140   2.537
51087SOL    HW255095   0.547   0.159   2.436
51088SOL     OW55096   9.758   7.944   3.446
51088SOL    HW155097   9.745   7.962   3.539
51088SOL    HW255098   9.853   7.935   3.437
51089SOL     OW55099  13.757   3.245  14.030
51089SOL    HW155100  13.684   3.256  14.091
51089SOL    HW255101  13.818   3.315  14.051
51090SOL     OW55102   6.690   9.868  14.005
51090SOL    HW155103   6.765   9.812  14.026
51090SOL    HW255104   6.729   9.955  13.991
51091SOL     OW55105   4.839   2.733   0.915
51091SOL    HW155106   4.860   2.817   0.956
51091SOL    HW255107   4.882   2.668   0.971
51092SOL     OW55108  12.251   2.209   7.740
51092SOL    HW155109  12.260   2.246   7.652
51092SOL    HW255110  12.190   2.267   7.784
51093SOL     OW55111   2.540  14.555   3.547
51093SOL    HW155112   2.470  14.614   3.573
51093SOL    HW255113   2.539  14.557   3.451
51094SOL     OW55114   7.055   2.999   8.245
51094SOL    HW155115   7.081   2.967   8.332
51094SOL    HW255116   7.049   2.920   8.192
51095SOL     OW55117   5.124   3.185   8.627
51095SOL    HW155118   5.043   3.180   8.575
51095SOL    HW255119   5.181   3.242   8.576
51096SOL     OW55120   2.237   1.062   7.901
51096SOL    HW155121   2.240   1.011   7.820
51096SOL    HW255122   2.143   1.075   7.917
51097SOL     OW55123   4.705  12.120  14.134
51097SOL    HW155124   4.707  12.067  14.214
51097SOL    HW255125   4.616  12.110  14.100
51098SOL     OW55126  11.715   6.081   0.741
51098SOL    HW155127  11.760   6.146   0.687
51098SOL    HW255128  11.778   6.010   0.752
51099SOL     OW55129   3.000   7.324   1.544
51099SOL    HW155130   3.043   7.410   1.543
51099SOL    HW255131   2.945   7.325   1.466
51100SOL     OW55132   7.878   0.127   6.853
51100SOL    HW155133   7.845   0.182   6.924
51100SOL    HW255134   7.933   0.062   6.896
51101SOL     OW55135  12.462   6.201  11.676
51101SOL    HW155136  12.512   6.198  11.758
51101SOL    HW255137  12.400   6.129  11.683
51102SOL     OW55138   1.740  10.046   6.452
51102SOL    HW155139   1.717   9.997   6.531
51102SOL    HW255140   1.803   9.990   6.406
51103SOL     OW55141  11.605  14.492   0.254
51103SOL    HW155142  11.517  14.524   0.235
51103SOL    HW255143  11.612  14.494   0.349
51104SOL     OW55144   5.461  12.046   0.256
51104SOL    HW155145   5.440  12.078   0.344
51104SOL    HW255146   5.455  12.124   0.200
51105SOL     OW55147  13.956  13.256   5.735
51105SOL    HW155148  13.993  13.181   5.782
51105SOL    HW255149  13.998  13.332   5.777
51106SOL     OW55150   9.698   6.190  14.558
51106SOL    HW155151   9.655   6.128  14.498
51106SOL    HW255152   9.790   6.165  14.555
51107SOL     OW55153  14.435  14.723   2.063
51107SOL    HW155154  14.452  14.809   2.024
51107SOL    HW255155  14.358  14.736   2.118
51108SOL     OW55156  14.523   5.265   7.770
51108SOL    HW155157  14.432   5.235   7.780
51108SOL    HW255158  14.538   5.260   7.675
51109SOL     OW55159   3.567  11.801   2.485
51109SOL    HW155160   3.623  11.841   2.551
51109SOL    HW255161   3.577  11.706   2.499
51110SOL     OW55162   7.425   2.436  12.952
51110SOL    HW155163   7.472   2.370  13.002
51110SOL    HW255164   7.378   2.387  12.885
51111SOL     OW55165   9.023  13.354   6.337
51111SOL    HW155166   8.990  13.381   6.422
51111SOL    HW255167   8.949  13.309   6.296
51112SOL     OW55168  10.207   0.369   8.548
51112SOL    HW155169  10.248   0.289   8.517
51112SOL    HW255170  10.275   0.413   8.599
51113SOL     OW55171   1.643   0.187   8.872
51113SOL    HW155172   1.561   0.145   8.899
51113SOL    HW255173   1.667   0.244   8.945
51114SOL     OW55174   4.403   2.779   5.230
51114SOL    HW155175   4.423   2.822   5.147
51114SOL    HW255176   4.460   2.703   5.232
51115SOL     OW55177   7.824   6.568   0.227
51115SOL    HW155178   7.752   6.557   0.289
51115SOL    HW255179   7.882   6.494   0.245
51116SOL     OW55180   6.774   1.697  14.393
51116SOL    HW155181   6.685   1.696  14.359
51116SOL    HW255182   6.794   1.789  14.406
51117SOL     OW55183   0.413  14.837  14.010
51117SOL    HW155184   0.427  14.864  14.101
51117SOL    HW255185   0.322  14.858  13.992
51118SOL     OW55186   0.441   1.877  12.810
51118SOL    HW155187   0.382   1.912  12.877
51118SOL    HW255188   0.447   1.783  12.830
51119SOL     OW55189  12.980  12.842   7.802
51119SOL    HW155190  12.919  12.782   7.845
51119SOL    HW255191  13.000  12.907   7.869
51120SOL     OW55192  14.386   2.852   9.882
51120SOL    HW155193  14.313   2.847   9.944
51120SOL    HW255194  14.377   2.939   9.842
51121SOL     OW55195   2.812   0.695  13.263
51121SOL    HW155196   2.860   0.766  13.306
51121SOL    HW255197   2.852   0.688  13.176
51122SOL     OW55198  11.321   3.255  10.613
51122SOL    HW155199  11.287   3.337  10.578
51122SOL    HW255200  11.411   3.251  10.580
51123SOL     OW55201   1.930   8.528   2.813
51123SOL    HW155202   1.969   8.615   2.798
51123SOL    HW255203   1.838   8.547   2.832
51124SOL     OW55204   4.347   4.758  10.162
51124SOL    HW155205   4.410   4.765  10.234
51124SOL    HW255206   4.265   4.792  10.199
51125SOL     OW55207   4.486   7.427   6.930
51125SOL    HW155208   4.428   7.398   7.001
51125SOL    HW255209   4.459   7.517   6.912
51126SOL     OW55210   0.366   4.984   7.982
51126SOL    HW155211   0.322   4.975   8.066
51126SOL    HW255212   0.300   5.021   7.924
51127SOL     OW55213  10.121  13.671  14.634
51127SOL    HW155214  10.045  13.615  14.618
51127SOL    HW255215  10.086  13.760  14.627
51128SOL     OW55216  14.480   6.338   7.762
51128SOL    HW155217  14.389   6.315   7.744
51128SOL    HW255218  14.479   6.375   7.851
51129SOL     OW55219   5.291  10.915  11.769
51129SOL    HW155220   5.351  10.984  11.740
51129SOL    HW255221   5.223  10.913  11.702
51130SOL     OW55222  10.794   0.279   7.050
51130SOL    HW155223  10.711   0.234   7.060
51130SOL    HW255224  10.787   0.325   6.966
51131SOL     OW55225   6.342   5.140   9.324
51131SOL    HW155226   6.316   5.211   9.265
51131SOL    HW255227   6.425   5.168   9.361
51132SOL     OW55228  14.618  11.493  13.515
51132SOL    HW155229  14.527  11.493  13.488
51132SOL    HW255230  14.616  11.517  13.608
51133SOL     OW55231   6.347   4.122  14.803
51133SOL    HW155232   6.294   4.045  14.782
51133SOL    HW255233   6.395   4.142  14.723
51134SOL     OW55234  14.183   8.233  11.112
51134SOL    HW155235  14.158   8.211  11.022
51134SOL    HW255236  14.111   8.288  11.143
51135SOL     OW55237   4.007   4.993   7.690
51135SOL    HW155238   3.973   5.080   7.710
51135SOL    HW255239   4.071   5.008   7.620
51136SOL     OW55240   3.952   3.667   5.718
51136SOL    HW155241   3.989   3.608   5.653
51136SOL    HW255242   3.875   3.620   5.751
51137SOL     OW55243  13.160   8.864   0.536
51137SOL    HW155244  13.125   8.931   0.477
51137SOL    HW255245  13.180   8.911   0.617
51138SOL     OW55246   2.293  13.238  14.600
51138SOL    HW155247   2.360  13.173  14.621
51138SOL    HW255248   2.264  13.215  14.512
51139SOL     OW55249   0.785   7.468   7.097
51139SOL    HW155250   0.691   7.470   7.114
51139SOL    HW255251   0.800   7.382   7.058
51140SOL     OW55252   8.230  11.856  11.411
51140SOL    HW155253   8.218  11.925  11.346
51140SOL    HW255254   8.181  11.782  11.376
51141SOL     OW55255   6.872  10.624   0.648
51141SOL    HW155256   6.914  10.623   0.734
51141SOL    HW255257   6.942  10.602   0.587
51142SOL     OW55258   8.461   4.624   0.661
51142SOL    HW155259   8.534   4.571   0.693
51142SOL    HW255260   8.474   4.709   0.702
51143SOL     OW55261  11.677   9.680  10.765
51143SOL    HW155262  11.633   9.610  10.716
51143SOL    HW255263  11.750   9.706  10.710
51144SOL     OW55264   4.518   1.103   8.947
51144SOL    HW155265   4.492   1.160   8.875
51144SOL    HW255266   4.513   1.159   9.025
51145SOL     OW55267   9.940   0.405   8.670
51145SOL    HW155268   9.990   0.385   8.591
51145SOL    HW255269   9.943   0.500   8.677
51146SOL     OW55270   3.552  10.932   2.581
51146SOL    HW155271   3.526  10.926   2.489
51146SOL    HW255272   3.473  10.959   2.627
51147SOL     OW55273   8.850   8.204   4.374
51147SOL    HW155274   8.779   8.265   4.359
51147SOL    HW255275   8.841   8.138   4.305
51148SOL     OW55276   6.966   7.997   0.812
51148SOL    HW155277   6.957   8.086   0.778
51148SOL    HW255278   7.051   7.967   0.780
51149SOL     OW55279   6.561   2.807   4.151
51149SOL    HW155280   6.615   2.858   4.090
51149SOL    HW255281   6.540   2.868   4.221
51150SOL     OW55282   1.333   1.690   7.683
51150SOL    HW155283   1.343   1.596   7.669
51150SOL    HW255284   1.312   1.726   7.597
51151SOL     OW55285   8.808  14.812   5.474
51151SOL    HW155286   8.752  14.792   5.550
51151SOL    HW255287   8.836   0.023   5.488
51152SOL     OW55288  10.689  10.881   6.816
51152SOL    HW155289  10.685  10.796   6.773
51152SOL    HW255290  10.644  10.940   6.756
51153SOL     OW55291   7.263   1.634  13.460
51153SOL    HW155292   7.249   1.556  13.514
51153SOL    HW255293   7.301   1.698  13.520
51154SOL     OW55294   4.950   0.329  14.754
51154SOL    HW155295   5.042   0.350  14.773
51154SOL    HW255296   4.922   0.399  14.695
51155SOL     OW55297   0.211   5.569   5.519
51155SOL    HW155298   0.198   5.552   5.425
51155SOL    HW255299   0.258   5.492   5.550
51156SOL     OW55300   7.965   8.525   3.337
51156SOL    HW155301   8.014   8.452   3.299
51156SOL    HW255302   8.032   8.578   3.381
51157SOL     OW55303  11.387   9.275   8.066
51157SOL    HW155304  11.389   9.221   7.987
51157SOL    HW255305  11.405   9.364   8.036
51158SOL     OW55306   5.768   9.347  12.635
51158SOL    HW155307   5.772   9.267  12.689
51158SOL    HW255308   5.674   9.360  12.619
51159SOL     OW55309   9.651   8.762  14.498
51159SOL    HW155310   9.687   8.677  14.473
51159SOL    HW255311   9.566   8.743  14.536
51160SOL     OW55312   7.959   9.482  12.780
51160SOL    HW155313   7.895   9.517  12.842
51160SOL    HW255314   7.966   9.389  12.802
51161SOL     OW55315   0.788  14.704   2.748
51161SOL    HW155316   0.853  14.687   2.815
51161SOL    HW255317   0.743  14.621   2.735
51162SOL     OW55318   2.532  11.415  10.956
51162SOL    HW155319   2.583  11.496  10.955
51162SOL    HW255320   2.542  11.381  11.045
51163SOL     OW55321  12.119  13.883   5.641
51163SOL    HW155322  12.124  13.964   5.692
51163SOL    HW255323  12.045  13.897   5.582
51164SOL     OW55324   9.039   7.129   5.488
51164SOL    HW155325   9.133   7.142   5.498
51164SOL    HW255326   9.027   7.034   5.490
51165SOL     OW55327   8.284  14.459  12.840
51165SOL    HW155328   8.273  14.553  12.823
51165SOL    HW255329   8.377  14.443  12.824
51166SOL     OW55330  12.261   4.054   8.337
51166SOL    HW155331  12.233   4.082   8.424
51166SOL    HW255332  12.314   4.127   8.305
51167SOL     OW55333   3.991   3.719   9.843
51167SOL    HW155334   3.974   3.625   9.840
51167SOL    HW255335   3.961   3.751   9.758
51168SOL     OW55336   3.532   5.128   2.558
51168SOL    HW155337   3.604   5.120   2.621
51168SOL    HW255338   3.453   5.127   2.611
51169SOL     OW55339   1.525   5.008  11.492
51169SOL    HW155340   1.593   5.062  11.532
51169SOL    HW255341   1.443   5.052  11.515
51170SOL     OW55342   7.750   2.332   5.457
51170SOL    HW155343   7.713   2.262   5.512
51170SOL    HW255344   7.688   2.339   5.384
51171SOL     OW55345   3.809   7.419   1.383
51171SOL    HW155346   3.806   7.338   1.434
51171SOL    HW255347   3.889   7.463   1.413
51172SOL     OW55348  11.199   8.544  13.421
51172SOL    HW155349  11.126   8.526  13.480
51172SOL    HW255350  11.163   8.605  13.356
51173SOL     OW55351  11.823   4.133   3.812
51173SOL    HW155352  11.906   4.089   3.830
51173SOL    HW255353  11.848   4.222   3.786
51174SOL     OW55354   3.914   6.984  13.748
51174SOL    HW155355   3.849   6.914  13.752
51174SOL    HW255356   3.910   7.026  13.834
51175SOL     OW55357   0.808   6.681   6.787
51175SOL    HW155358   0.734   6.661   6.730
51175SOL    HW255359   0.841   6.765   6.755
51176SOL     OW55360   1.799  11.434   9.316
51176SOL    HW155361   1.780  11.526   9.300
51176SOL    HW255362   1.887  11.434   9.353
51177SOL     OW55363   6.422   5.377   4.016
51177SOL    HW155364   6.411   5.472   4.005
51177SOL    HW255365   6.517   5.365   4.022
51178SOL     OW55366   4.689   6.599   9.898
51178SOL    HW155367   4.780   6.620   9.919
51178SOL    HW255368   4.695   6.537   9.825
51179SOL     OW55369   3.721   3.460   9.807
51179SOL    HW155370   3.746   3.441   9.897
51179SOL    HW255371   3.638   3.507   9.814
51180SOL     OW55372   0.570   6.805  12.935
51180SOL    HW155373   0.619   6.729  12.903
51180SOL    HW255374   0.479   6.788  12.911
51181SOL     OW55375   8.113   7.851   9.671
51181SOL    HW155376   8.056   7.789   9.626
51181SOL    HW255377   8.123   7.923   9.610
51182SOL     OW55378   2.784  13.592   4.675
51182SOL    HW155379   2.721  13.583   4.604
51182SOL    HW255380   2.864  13.623   4.633
51183SOL     OW55381   0.074   5.500  11.419
51183SOL    HW155382   0.117   5.455  11.492
51183SOL    HW255383   0.085   5.442  11.344
51184SOL     OW55384   3.070   9.899  10.513
51184SOL    HW155385   3.050   9.856  10.430
51184SOL    HW255386   3.165   9.897  10.519
51185SOL     OW55387   6.614  14.848   9.053
51185SOL    HW155388   6.687  14.797   9.088
51185SOL    HW255389   6.640   0.060   9.064
51186SOL     OW55390  13.444  14.404   7.532
51186SOL    HW155391  13.352  14.415   7.507
51186SOL    HW255392  13.488  14.480   7.494
51187SOL     OW55393  10.977  10.348   1.059
51187SOL    HW155394  10.976  10.367   0.965
51187SOL    HW255395  10.989  10.253   1.064
51188SOL     OW55396   4.582  14.556   4.202
51188SOL    HW155397   4.659  14.613   4.202
51188SOL    HW255398   4.614  14.474   4.240
51189SOL     OW55399  11.663  10.013   9.944
51189SOL    HW155400  11.740  10.034   9.997
51189SOL    HW255401  11.683   9.928   9.905
51190SOL     OW55402   2.859   2.557   0.467
51190SOL    HW155403   2.932   2.609   0.432
51190SOL    HW255404   2.796   2.552   0.394
51191SOL     OW55405  10.250  14.027   5.463
51191SOL    HW155406  10.166  13.986   5.442
51191SOL    HW255407  10.232  14.121   5.462
51192SOL     OW55408  14.677  10.973   1.974
51192SOL    HW155409  14.694  11.066   1.987
51192SOL    HW255410  14.757  10.930   2.006
51193SOL     OW55411  11.991  12.896  10.285
51193SOL    HW155412  12.079  12.873  10.257
51193SOL    HW255413  11.969  12.974  10.234
51194SOL     OW55414   2.345   9.414  10.204
51194SOL    HW155415   2.363   9.347  10.138
51194SOL    HW255416   2.431   9.440  10.237
51195SOL     OW55417  10.039  13.373   3.452
51195SOL    HW155418  10.059  13.336   3.366
51195SOL    HW255419  10.035  13.468   3.437
51196SOL     OW55420   3.940   7.199   9.878
51196SOL    HW155421   4.022   7.195   9.827
51196SOL    HW255422   3.876   7.154   9.823
51197SOL     OW55423  12.336  11.980   9.803
51197SOL    HW155424  12.271  12.042   9.769
51197SOL    HW255425  12.292  11.937   9.876
51198SOL     OW55426  13.960   3.850   1.363
51198SOL    HW155427  13.934   3.758   1.358
51198SOL    HW255428  14.038   3.850   1.419
51199SOL     OW55429  11.887   6.321  10.487
51199SOL    HW155430  11.878   6.400  10.541
51199SOL    HW255431  11.808   6.270  10.506
51200SOL     OW55432  10.601   8.872  13.660
51200SOL    HW155433  10.527   8.819  13.630
51200SOL    HW255434  10.621   8.930  13.586
51201SOL     OW55435   1.063   2.206   2.041
51201SOL    HW155436   1.103   2.289   2.067
51201SOL    HW255437   0.976   2.208   2.080
51202SOL     OW55438   1.970  13.972  10.958
51202SOL    HW155439   2.012  13.943  10.877
51202SOL    HW255440   2.007  14.059  10.974
51203SOL     OW55441  11.985  13.193   8.823
51203SOL    HW155442  12.059  13.221   8.768
51203SOL    HW255443  11.909  13.234   8.782
51204SOL     OW55444  11.342  11.217   0.335
51204SOL    HW155445  11.327  11.286   0.271
51204SOL    HW255446  11.377  11.263   0.412
51205SOL     OW55447  10.983  12.442   9.443
51205SOL    HW155448  10.929  12.511   9.405
51205SOL    HW255449  11.067  12.485   9.461
51206SOL     OW55450   9.366  12.553   0.892
51206SOL    HW155451   9.420  12.481   0.924
51206SOL    HW255452   9.311  12.577   0.966
51207SOL     OW55453   1.884  14.805  14.092
51207SOL    HW155454   1.946  14.850  14.035
51207SOL    HW255455   1.902  14.712  14.079
51208SOL     OW55456   3.089   1.347   4.308
51208SOL    HW155457   3.099   1.265   4.260
51208SOL    HW255458   3.137   1.331   4.390
51209SOL     OW55459   0.023  11.004   0.917
51209SOL    HW155460   0.002  10.949   0.841
51209SOL    HW255461   0.115  10.985   0.935
51210SOL     OW55462   6.907   7.648  10.152
51210SOL    HW155463   6.937   7.731  10.113
51210SOL    HW255464   6.980   7.588  10.140
51211SOL     OW55465   2.489  10.469  12.328
51211SOL    HW155466   2.502  10.536  12.261
51211SOL    HW255467   2.514  10.387  12.286
51212SOL     OW55468  11.496   7.312  13.674
51212SOL    HW155469  11.534   7.398  13.688
51212SOL    HW255470  11.453   7.291  13.757
51213SOL     OW55471   1.698  12.083   4.655
51213SOL    HW155472   1.644  12.071   4.577
51213SOL    HW255473   1.731  11.996   4.676
51214SOL     OW55474   1.269   5.720   6.614
51214SOL    HW155475   1.222   5.663   6.675
51214SOL    HW255476   1.326   5.660   6.565
51215SOL     OW55477   8.858   7.463  10.984
51215SOL    HW155478   8.779   7.430  11.025
51215SOL    HW255479   8.877   7.545  11.030
51216SOL     OW55480   1.389   1.714  14.012
51216SOL    HW155481   1.371   1.727  14.105
51216SOL    HW255482   1.424   1.625  14.007
51217SOL     OW55483  13.992   5.548   1.899
51217SOL    HW155484  13.974   5.620   1.960
51217SOL    HW255485  14.082   5.522   1.919
51218SOL     OW55486  13.220  12.837   1.427
51218SOL    HW155487  13.281  12.810   1.495
51218SOL    HW255488  13.201  12.757   1.378
51219SOL     OW55489   3.248  13.767   8.664
51219SOL    HW155490   3.259  13.690   8.607
51219SOL    HW255491   3.337  13.804   8.670
51220SOL     OW55492  13.724   2.696   4.869
51220SOL    HW155493  13.805   2.684   4.819
51220SOL    HW255494  13.690   2.781   4.841
51221SOL     OW55495   1.423  14.641   5.748
51221SOL    HW155496   1.489  14.668   5.812
51221SOL    HW255497   1.466  14.651   5.664
51222SOL     OW55498   4.063  12.477   0.492
51222SOL    HW155499   4.123  12.404   0.476
51222SOL    HW255500   4.119  12.549   0.522
51223SOL     OW55501   7.293   7.259  10.656
51223SOL    HW155502   7.302   7.243  10.562
51223SOL    HW255503   7.210   7.306  10.664
51224SOL     OW55504   7.673   1.566   1.736
51224SOL    HW155505   7.731   1.520   1.675
51224SOL    HW255506   7.665   1.654   1.700
51225SOL     OW55507   0.630  11.977   8.278
51225SOL    HW155508   0.539  11.999   8.260
51225SOL    HW255509   0.635  11.882   8.263
51226SOL     OW55510  14.696   5.522   3.184
51226SOL    HW155511  14.687   5.448   3.244
51226SOL    HW255512  14.745   5.486   3.109
51227SOL     OW55513   0.619   1.192   7.852
51227SOL    HW155514   0.696   1.139   7.833
51227SOL    HW255515   0.584   1.156   7.933
51228SOL     OW55516  11.376   2.187   7.490
51228SOL    HW155517  11.391   2.228   7.404
51228SOL    HW255518  11.443   2.119   7.495
51229SOL     OW55519   2.115   0.337   7.839
51229SOL    HW155520   2.122   0.348   7.934
51229SOL    HW255521   2.022   0.349   7.820
51230SOL     OW55522   4.947   4.046   5.256
51230SOL    HW155523   4.855   4.056   5.278
51230SOL    HW255524   4.990   4.123   5.293
51231SOL     OW55525   1.860   5.817   7.118
51231SOL    HW155526   1.906   5.752   7.065
51231SOL    HW255527   1.788   5.846   7.061
51232SOL     OW55528   6.797  12.224  12.326
51232SOL    HW155529   6.878  12.273  12.307
51232SOL    HW255530   6.727  12.281  12.294
51233SOL     OW55531   7.002  10.237   7.726
51233SOL    HW155532   6.934  10.170   7.719
51233SOL    HW255533   7.076  10.201   7.675
51234SOL     OW55534  13.119  12.423   4.771
51234SOL    HW155535  13.162  12.339   4.789
51234SOL    HW255536  13.078  12.411   4.685
51235SOL     OW55537  12.692   4.201   1.671
51235SOL    HW155538  12.629   4.273   1.666
51235SOL    HW255539  12.654   4.140   1.734
51236SOL     OW55540   8.963   6.191   1.253
51236SOL    HW155541   8.910   6.187   1.173
51236SOL    HW255542   9.000   6.103   1.262
51237SOL     OW55543   5.605   5.628   5.827
51237SOL    HW155544   5.586   5.617   5.920
51237SOL    HW255545   5.641   5.544   5.800
51238SOL     OW55546  10.140   7.904   4.492
51238SOL    HW155547  10.111   7.869   4.576
51238SOL    HW255548  10.061   7.907   4.439
51239SOL     OW55549   1.276  13.764  12.733
51239SOL    HW155550   1.299  13.776  12.641
51239SOL    HW255551   1.344  13.707  12.768
51240SOL     OW55552   9.805  11.232  10.446
51240SOL    HW155553   9.791  11.200  10.536
51240SOL    HW255554   9.898  11.255  10.443
51241SOL     OW55555   9.412   5.399   2.412
51241SOL    HW155556   9.357   5.393   2.334
51241SOL    HW255557   9.492   5.444   2.381
51242SOL     OW55558   9.714  14.094   8.505
51242SOL    HW155559   9.803  14.074   8.533
51242SOL    HW255560   9.684  14.014   8.462
51243SOL     OW55561   1.049  13.125   1.961
51243SOL    HW155562   1.136  13.153   1.992
51243SOL    HW255563   1.037  13.038   1.999
51244SOL     OW55564   3.709   5.020  13.557
51244SOL    HW155565   3.625   5.063  13.544
51244SOL    HW255566   3.763   5.050  13.484
51245SOL     OW55567  11.824   3.776   1.985
51245SOL    HW155568  11.902   3.723   1.996
51245SOL    HW255569  11.777   3.735   1.912
51246SOL     OW55570   0.216   4.648   3.562
51246SOL    HW155571   0.288   4.712   3.564
51246SOL    HW255572   0.156   4.678   3.631
51247SOL     OW55573  13.784  13.247   9.861
51247SOL    HW155574  13.740  13.187   9.921
51247SOL    HW255575  13.875  13.218   9.860
51248SOL     OW55576   1.065   1.977   3.384
51248SOL    HW155577   1.067   2.073   3.388
51248SOL    HW255578   0.975   1.955   3.408
51249SOL     OW55579  12.802  13.142   1.969
51249SOL    HW155580  12.865  13.176   2.032
51249SOL    HW255581  12.840  13.059   1.940
51250SOL     OW55582   9.288   7.667   0.294
51250SOL    HW155583   9.204   7.621   0.294
51250SOL    HW255584   9.341   7.620   0.359
51251SOL     OW55585  11.249   3.972   0.367
51251SOL    HW155586  11.300   3.956   0.447
51251SOL    HW255587  11.158   3.964   0.395
51252SOL     OW55588   1.189   5.050   4.506
51252SOL    HW155589   1.160   5.019   4.592
51252SOL    HW255590   1.279   5.081   4.521
51253SOL     OW55591   9.377   0.970  12.977
51253SOL    HW155592   9.437   1.003  13.044
51253SOL    HW255593   9.418   0.995  12.894
51254SOL     OW55594   9.774   2.770   9.853
51254SOL    HW155595   9.721   2.845   9.883
51254SOL    HW255596   9.713   2.719   9.799
51255SOL     OW55597  11.540   3.762   3.186
51255SOL    HW155598  11.607   3.783   3.252
51255SOL    HW255599  11.482   3.838   3.186
51256SOL     OW55600  10.975  10.800   6.457
51256SOL    HW155601  10.890  10.834   6.430
51256SOL    HW255602  10.962  10.706   6.467
51257SOL     OW55603  13.564  14.140   3.156
51257SOL    HW155604  13.533  14.082   3.225
51257SOL    HW255605  13.581  14.223   3.200
51258SOL     OW55606  11.527   2.664   5.597
51258SOL    HW155607  11.550   2.620   5.680
51258SOL    HW255608  11.515   2.756   5.621
51259SOL     OW55609   0.284  14.105   8.448
51259SOL    HW155610   0.321  14.186   8.413
51259SOL    HW255611   0.246  14.131   8.532
51260SOL     OW55612  11.343  12.823   3.847
51260SOL    HW155613  11.292  12.745   3.872
51260SOL    HW255614  11.277  12.888   3.824
51261SOL     OW55615  10.625   0.927   9.597
51261SOL    HW155616  10.692   0.934   9.529
51261SOL    HW255617  10.672   0.890   9.672
51262SOL     OW55618  12.993   1.932  12.809
51262SOL    HW155619  12.970   1.911  12.899
51262SOL    HW255620  13.031   1.852  12.774
51263SOL     OW55621   2.997   0.663   9.274
51263SOL    HW155622   2.970   0.572   9.263
51263SOL    HW255623   2.927   0.704   9.325
51264SOL     OW55624   6.016   6.103  10.407
51264SOL    HW155625   6.034   6.015  10.441
51264SOL    HW255626   5.935   6.094  10.357
51265SOL     OW55627   4.026   5.610   2.567
51265SOL    HW155628   4.029   5.523   2.526
51265SOL    HW255629   4.116   5.626   2.595
51266SOL     OW55630  12.922   0.056   6.692
51266SOL    HW155631  12.845   0.110   6.712
51266SOL    HW255632  12.940   0.009   6.773
51267SOL     OW55633   0.612   3.711   8.304
51267SOL    HW155634   0.549   3.705   8.376
51267SOL    HW255635   0.673   3.639   8.320
51268SOL     OW55636   4.873  14.657  10.694
51268SOL    HW155637   4.812  14.623  10.759
51268SOL    HW255638   4.956  14.666  10.742
51269SOL     OW55639  14.727   7.635   6.219
51269SOL    HW155640  14.713   7.581   6.141
51269SOL    HW255641  14.769   7.714   6.186
51270SOL     OW55642  10.697   9.735   3.028
51270SOL    HW155643  10.782   9.733   3.071
51270SOL    HW255644  10.693   9.822   2.987
51271SOL     OW55645  13.850   4.775   3.902
51271SOL    HW155646  13.899   4.792   3.822
51271SOL    HW255647  13.916   4.774   3.971
51272SOL     OW55648  14.463   3.936   5.447
51272SOL    HW155649  14.547   3.977   5.426
51272SOL    HW255650  14.399   3.982   5.392
51273SOL     OW55651  12.331   0.351  10.127
51273SOL    HW155652  12.295   0.266  10.154
51273SOL    HW255653  12.284   0.414  10.182
51274SOL     OW55654   0.575   8.834   0.492
51274SOL    HW155655   0.640   8.904   0.500
51274SOL    HW255656   0.614   8.759   0.537
51275SOL     OW55657   3.419   7.641   8.528
51275SOL    HW155658   3.467   7.576   8.476
51275SOL    HW255659   3.377   7.697   8.463
51276SOL     OW55660  13.995  11.890   6.131
51276SOL    HW155661  14.076  11.930   6.100
51276SOL    HW255662  14.024  11.824   6.194
51277SOL     OW55663   5.863  12.259   9.486
51277SOL    HW155664   5.780  12.223   9.516
51277SOL    HW255665   5.904  12.294   9.566
51278SOL     OW55666   7.033   4.303   5.714
51278SOL    HW155667   7.031   4.399   5.707
51278SOL    HW255668   7.009   4.272   5.627
51279SOL     OW55669   0.373  11.263   2.074
51279SOL    HW155670   0.397  11.190   2.016
51279SOL    HW255671   0.282  11.282   2.053
51280SOL     OW55672  14.699  10.048   3.053
51280SOL    HW155673  14.770   9.997   3.092
51280SOL    HW255674  14.620   9.995   3.068
51281SOL     OW55675   4.380   5.482   7.747
51281SOL    HW155676   4.453   5.516   7.696
51281SOL    HW255677   4.328   5.431   7.685
51282SOL     OW55678  12.390   0.688  11.107
51282SOL    HW155679  12.359   0.615  11.053
51282SOL    HW255680  12.398   0.650  11.195
51283SOL     OW55681  12.107   1.254   9.022
51283SOL    HW155682  12.045   1.307   8.972
51283SOL    HW255683  12.124   1.178   8.966
51284SOL     OW55684   3.021   1.255  10.880
51284SOL    HW155685   3.101   1.269  10.931
51284SOL    HW255686   3.049   1.202  10.806
51285SOL     OW55687   8.715   6.574   1.797
51285SOL    HW155688   8.717   6.478   1.791
51285SOL    HW255689   8.754   6.594   1.882
51286SOL     OW55690  11.188   0.829  13.771
51286SOL    HW155691  11.281   0.820  13.747
51286SOL    HW255692  11.142   0.779  13.704
51287SOL     OW55693  14.235  10.599   0.899
51287SOL    HW155694  14.281  10.662   0.954
51287SOL    HW255695  14.236  10.637   0.811
51288SOL     OW55696   8.543   4.992   2.246
51288SOL    HW155697   8.589   4.935   2.184
51288SOL    HW255698   8.611   5.053   2.277
51289SOL     OW55699   3.140   2.656  10.341
51289SOL    HW155700   3.054   2.695  10.359
51289SOL    HW255701   3.203   2.723  10.369
51290SOL     OW55702   8.168   3.315  13.689
51290SOL    HW155703   8.158   3.274  13.774
51290SOL    HW255704   8.239   3.379  13.701
51291SOL     OW55705   6.104   7.524   6.574
51291SOL    HW155706   6.055   7.450   6.610
51291SOL    HW255707   6.164   7.550   6.644
51292SOL     OW55708   5.176  11.111   3.224
51292SOL    HW155709   5.119  11.073   3.292
51292SOL    HW255710   5.260  11.068   3.238
51293SOL     OW55711   6.585  13.128  12.593
51293SOL    HW155712   6.671  13.115  12.632
51293SOL    HW255713   6.536  13.176  12.660
51294SOL     OW55714  10.175   9.788   8.687
51294SOL    HW155715  10.229   9.718   8.651
51294SOL    HW255716  10.120   9.816   8.614
51295SOL     OW55717   9.546   1.759  12.780
51295SOL    HW155718   9.524   1.769  12.687
51295SOL    HW255719   9.470   1.795  12.826
51296SOL     OW55720  10.943  11.538  13.863
51296SOL    HW155721  11.025  11.535  13.912
51296SOL    HW255722  10.882  11.486  13.916
51297SOL     OW55723   7.594   6.803   7.422
51297SOL    HW155724   7.639   6.772   7.343
51297SOL    HW255725   7.600   6.729   7.483
51298SOL     OW55726   0.098  14.567   1.633
51298SOL    HW155727   0.047  14.623   1.691
51298SOL    HW255728   0.189  14.598   1.643
51299SOL     OW55729  13.975  11.698   1.029
51299SOL    HW155730  13.897  11.704   0.975
51299SOL    HW255731  13.975  11.609   1.063
51300SOL     OW55732   1.494   9.060  13.779
51300SOL    HW155733   1.530   9.123  13.717
51300SOL    HW255734   1.399   9.064  13.765
51301SOL     OW55735  11.812   6.705  10.668
51301SOL    HW155736  11.810   6.797  10.640
51301SOL    HW255737  11.898   6.674  10.640
51302SOL     OW55738  13.352  13.143  11.607
51302SOL    HW155739  13.312  13.059  11.627
51302SOL    HW255740  13.411  13.125  11.534
51303SOL     OW55741   2.859   7.787  10.188
51303SOL    HW155742   2.842   7.878  10.212
51303SOL    HW255743   2.787   7.738  10.229
51304SOL     OW55744   1.685   7.040   7.337
51304SOL    HW155745   1.630   7.040   7.259
51304SOL    HW255746   1.643   6.978   7.396
51305SOL     OW55747   8.777   8.952   4.031
51305SOL    HW155748   8.738   8.864   4.031
51305SOL    HW255749   8.869   8.938   4.012
51306SOL     OW55750  10.944   6.074  11.411
51306SOL    HW155751  10.945   5.982  11.387
51306SOL    HW255752  11.011   6.114  11.355
51307SOL     OW55753   1.921  11.110  14.032
51307SOL    HW155754   1.921  11.063  14.115
51307SOL    HW255755   1.987  11.179  14.044
51308SOL     OW55756   5.521  12.092  11.043
51308SOL    HW155757   5.572  12.052  11.113
51308SOL    HW255758   5.482  12.170  11.083
51309SOL     OW55759   0.928   6.601   0.715
51309SOL    HW155760   1.011   6.579   0.673
51309SOL    HW255761   0.878   6.647   0.648
51310SOL     OW55762  10.396   7.048   8.501
51310SOL    HW155763  10.451   7.013   8.572
51310SOL    HW255764  10.370   6.971   8.451
51311SOL     OW55765   6.691   1.135  14.850
51311SOL    HW155766   6.697   1.213  14.796
51311SOL    HW255767   6.642   1.163   0.048
51312SOL     OW55768  11.983  11.640  12.734
51312SOL    HW155769  11.944  11.674  12.653
51312SOL    HW255770  12.047  11.575  12.704
51313SOL     OW55771  10.029  11.265   8.461
51313SOL    HW155772   9.944  11.309   8.453
51313SOL    HW255773  10.071  11.309   8.535
51314SOL     OW55774   0.645   7.960   4.843
51314SOL    HW155775   0.685   8.031   4.792
51314SOL    HW255776   0.645   7.991   4.933
51315SOL     OW55777   4.638   6.435   2.502
51315SOL    HW155778   4.570   6.380   2.541
51315SOL    HW255779   4.608   6.449   2.412
51316SOL     OW55780   9.445   9.999   9.237
51316SOL    HW155781   9.506  10.064   9.272
51316SOL    HW255782   9.359  10.040   9.246
51317SOL     OW55783   3.515  11.044  13.232
51317SOL    HW155784   3.527  10.949  13.227
51317SOL    HW255785   3.433  11.061  13.185
51318SOL     OW55786   8.087   4.201  13.316
51318SOL    HW155787   8.062   4.235  13.402
51318SOL    HW255788   8.139   4.123  13.335
51319SOL     OW55789   2.637  10.166   0.566
51319SOL    HW155790   2.680  10.122   0.640
51319SOL    HW255791   2.706  10.222   0.529
51320SOL     OW55792  11.952  11.171   5.077
51320SOL    HW155793  12.039  11.131   5.085
51320SOL    HW255794  11.944  11.192   4.984
51321SOL     OW55795  11.188  12.177  12.830
51321SOL    HW155796  11.240  12.107  12.870
51321SOL    HW255797  11.248  12.251  12.824
51322SOL     OW55798  11.602   3.961   1.691
51322SOL    HW155799  11.595   4.051   1.724
51322SOL    HW255800  11.554   3.962   1.609
51323SOL     OW55801  10.405  14.742  10.846
51323SOL    HW155802  10.327  14.770  10.893
51323SOL    HW255803  10.374  14.723  10.758
51324SOL     OW55804   4.156  13.255  12.945
51324SOL    HW155805   4.123  13.201  13.017
51324SOL    HW255806   4.236  13.295  12.979
51325SOL     OW55807   5.252   3.175  13.232
51325SOL    HW155808   5.191   3.158  13.160
51325SOL    HW255809   5.196   3.208  13.303
51326SOL     OW55810  11.991  10.024  13.531
51326SOL    HW155811  11.986  10.119  13.547
51326SOL    HW255812  11.921  10.007  13.469
51327SOL     OW55813   5.683  14.830   4.182
51327SOL    HW155814   5.718  14.778   4.110
51327SOL    HW255815   5.670  14.768   4.254
51328SOL     OW55816  12.196  13.458  12.221
51328SOL    HW155817  12.210  13.543  12.263
51328SOL    HW255818  12.188  13.478  12.128
51329SOL     OW55819   8.840  10.564   0.608
51329SOL    HW155820   8.928  10.541   0.639
51329SOL    HW255821   8.781  10.516   0.665
51330SOL     OW55822   5.249   7.516   7.725
51330SOL    HW155823   5.260   7.610   7.713
51330SOL    HW255824   5.193   7.489   7.652
51331SOL     OW55825   2.970   9.079   0.189
51331SOL    HW155826   3.014   8.999   0.219
51331SOL    HW255827   2.989   9.083   0.095
51332SOL     OW55828   5.696  12.234  10.333
51332SOL    HW155829   5.705  12.192  10.418
51332SOL    HW255830   5.717  12.166  10.269
51333SOL     OW55831   8.889  10.013   0.682
51333SOL    HW155832   8.866  10.101   0.713
51333SOL    HW255833   8.895   9.960   0.762
51334SOL     OW55834   4.588   2.915   8.428
51334SOL    HW155835   4.612   3.008   8.429
51334SOL    HW255836   4.496   2.914   8.404
51335SOL     OW55837  14.491  11.321   8.778
51335SOL    HW155838  14.583  11.297   8.785
51335SOL    HW255839  14.477  11.336   8.684
51336SOL     OW55840  14.570   2.390   9.663
51336SOL    HW155841  14.499   2.409   9.601
51336SOL    HW255842  14.610   2.475   9.679
51337SOL     OW55843  14.604   4.428   8.973
51337SOL    HW155844  14.616   4.364   8.904
51337SOL    HW255845  14.512   4.456   8.965
51338SOL     OW55846   7.600   9.054  11.882
51338SOL    HW155847   7.611   9.037  11.976
51338SOL    HW255848   7.642   8.979  11.839
51339SOL     OW55849   3.947   9.882   2.381
51339SOL    HW155850   4.027   9.830   2.390
51339SOL    HW255851   3.943   9.933   2.462
51340SOL     OW55852   8.359   0.209  12.451
51340SOL    HW155853   8.328   0.169  12.532
51340SOL    HW255854   8.280   0.225  12.400
51341SOL     OW55855  13.295  12.813   0.673
51341SOL    HW155856  13.330  12.747   0.612
51341SOL    HW255857  13.309  12.776   0.760
51342SOL     OW55858   7.542  13.640   7.667
51342SOL    HW155859   7.585  13.555   7.664
51342SOL    HW255860   7.586  13.692   7.599
51343SOL     OW55861  13.422   3.726   7.033
51343SOL    HW155862  13.412   3.685   6.947
51343SOL    HW255863  13.367   3.673   7.092
51344SOL     OW55864   1.760   9.526   8.495
51344SOL    HW155865   1.829   9.510   8.430
51344SOL    HW255866   1.805   9.559   8.572
51345SOL     OW55867   1.178   6.588  10.319
51345SOL    HW155868   1.194   6.628  10.233
51345SOL    HW255869   1.104   6.529  10.304
51346SOL     OW55870  10.048  14.860   9.264
51346SOL    HW155871  10.084  14.788   9.316
51346SOL    HW255872   9.954  14.840   9.258
51347SOL     OW55873   9.146  12.737   4.196
51347SOL    HW155874   9.211  12.803   4.174
51347SOL    HW255875   9.189  12.681   4.261
51348SOL     OW55876   8.074   4.662   6.871
51348SOL    HW155877   8.008   4.597   6.895
51348SOL    HW255878   8.154   4.632   6.913
51349SOL     OW55879  14.412   5.937  14.690
51349SOL    HW155880  14.338   5.997  14.684
51349SOL    HW255881  14.399   5.875  14.618
51350SOL     OW55882   3.673   0.365   5.441
51350SOL    HW155883   3.600   0.403   5.490
51350SOL    HW255884   3.631   0.314   5.371
51351SOL     OW55885   3.558   7.573   9.006
51351SOL    HW155886   3.542   7.509   9.075
51351SOL    HW255887   3.641   7.614   9.030
51352SOL     OW55888   2.882  11.803  12.063
51352SOL    HW155889   2.902  11.722  12.110
51352SOL    HW255890   2.906  11.783  11.972
51353SOL     OW55891  11.048   1.056   1.823
51353SOL    HW155892  10.984   1.015   1.766
51353SOL    HW255893  11.015   1.042   1.912
51354SOL     OW55894  11.748  13.241   8.666
51354SOL    HW155895  11.699  13.320   8.689
51354SOL    HW255896  11.773  13.254   8.575
51355SOL     OW55897   0.544   2.646   6.193
51355SOL    HW155898   0.456   2.611   6.205
51355SOL    HW255899   0.571   2.672   6.281
51356SOL     OW55900  10.196   7.517   1.147
51356SOL    HW155901  10.273   7.517   1.089
51356SOL    HW255902  10.153   7.433   1.130
51357SOL     OW55903   0.449   5.229  11.404
51357SOL    HW155904   0.395   5.252  11.480
51357SOL    HW255905   0.406   5.151  11.368
51358SOL     OW55906   0.273  13.565  13.835
51358SOL    HW155907   0.320  13.591  13.756
51358SOL    HW255908   0.225  13.487  13.810
51359SOL     OW55909   8.359  10.501   5.619
51359SOL    HW155910   8.329  10.433   5.678
51359SOL    HW255911   8.347  10.583   5.668
51360SOL     OW55912   0.661  10.456   5.023
51360SOL    HW155913   0.655  10.537   5.074
51360SOL    HW255914   0.754  10.439   5.017
51361SOL     OW55915   8.411   9.240  14.814
51361SOL    HW155916   8.479   9.251  14.747
51361SOL    HW255917   8.360   9.321  14.810
51362SOL     OW55918   5.453  11.851   4.019
51362SOL    HW155919   5.412  11.899   4.091
51362SOL    HW255920   5.388  11.851   3.949
51363SOL     OW55921   3.106   7.218   6.271
51363SOL    HW155922   3.117   7.278   6.198
51363SOL    HW255923   3.170   7.149   6.254
51364SOL     OW55924   1.721   3.409   9.819
51364SOL    HW155925   1.764   3.369   9.894
51364SOL    HW255926   1.712   3.502   9.843
51365SOL     OW55927   5.825   2.687  13.152
51365SOL    HW155928   5.736   2.679  13.116
51365SOL    HW255929   5.858   2.770  13.116
51366SOL     OW55930   6.495  12.300   4.040
51366SOL    HW155931   6.489  12.208   4.064
51366SOL    HW255932   6.456  12.347   4.114
51367SOL     OW55933  11.849   1.073   8.526
51367SOL    HW155934  11.873   1.145   8.585
51367SOL    HW255935  11.930   1.025   8.511
51368SOL     OW55936   0.918  13.133  12.746
51368SOL    HW155937   0.874  13.137  12.831
51368SOL    HW255938   0.945  13.224  12.729
51369SOL     OW55939  13.492   5.501   5.132
51369SOL    HW155940  13.460   5.411   5.138
51369SOL    HW255941  13.587   5.493   5.130
51370SOL     OW55942   2.166  12.168   0.429
51370SOL    HW155943   2.163  12.254   0.388
51370SOL    HW255944   2.177  12.107   0.355
51371SOL     OW55945   7.684  10.171   7.946
51371SOL    HW155946   7.748  10.185   7.876
51371SOL    HW255947   7.599  10.181   7.903
51372SOL     OW55948   6.314   6.253  12.626
51372SOL    HW155949   6.275   6.169  12.603
51372SOL    HW255950   6.374   6.232  12.697
51373SOL     OW55951   5.253   6.027  14.248
51373SOL    HW155952   5.181   5.976  14.286
51373SOL    HW255953   5.331   5.978  14.272
51374SOL     OW55954   5.250  11.192  14.772
51374SOL    HW155955   5.167  11.194  14.820
51374SOL    HW255956   5.312  11.152  14.833
51375SOL     OW55957  13.608   3.851  10.666
51375SOL    HW155958  13.697   3.828  10.693
51375SOL    HW255959  13.617   3.937  10.625
51376SOL     OW55960   7.800   0.054   9.538
51376SOL    HW155961   7.781   0.041   9.445
51376SOL    HW255962   7.894   0.042   9.545
51377SOL     OW55963   9.763  13.668   0.437
51377SOL    HW155964   9.818  13.590   0.425
51377SOL    HW255965   9.679  13.644   0.397
51378SOL     OW55966  11.291  12.849   1.011
51378SOL    HW155967  11.350  12.798   1.067
51378SOL    HW255968  11.340  12.862   0.930
51379SOL     OW55969   6.251   0.997   0.409
51379SOL    HW155970   6.326   0.962   0.457
51379SOL    HW255971   6.207   0.920   0.372
51380SOL     OW55972   8.623   6.098   7.541
51380SOL    HW155973   8.531   6.120   7.523
51380SOL    HW255974   8.643   6.143   7.623
51381SOL     OW55975   1.496   5.301   6.052
51381SOL    HW155976   1.429   5.264   5.995
51381SOL    HW255977   1.524   5.382   6.008
51382SOL     OW55978   1.502  12.310   7.682
51382SOL    HW155979   1.417  12.339   7.716
51382SOL    HW255980   1.540  12.389   7.643
51383SOL     OW55981   7.697  11.873   7.476
51383SOL    HW155982   7.621  11.865   7.419
51383SOL    HW255983   7.687  11.802   7.540
51384SOL     OW55984   5.265   4.039  10.211
51384SOL    HW155985   5.185   4.006  10.251
51384SOL    HW255986   5.295   3.967  10.155
51385SOL     OW55987   9.152  10.474  10.541
51385SOL    HW155988   9.153  10.380  10.524
51385SOL    HW255989   9.244  10.497  10.554
51386SOL     OW55990  13.549   2.342  11.148
51386SOL    HW155991  13.598   2.411  11.194
51386SOL    HW255992  13.463   2.382  11.131
51387SOL     OW55993   5.710  10.331   8.528
51387SOL    HW155994   5.752  10.415   8.549
51387SOL    HW255995   5.782  10.268   8.530
51388SOL     OW55996   0.947   2.655   5.644
51388SOL    HW155997   0.973   2.681   5.556
51388SOL    HW255998   1.008   2.702   5.701
51389SOL     OW55999   4.261   1.707  11.895
51389SOL    HW156000   4.237   1.760  11.970
51389SOL    HW256001   4.355   1.689  11.906
51390SOL     OW56002   6.201  11.789   5.694
51390SOL    HW156003   6.249  11.708   5.710
51390SOL    HW256004   6.113  11.771   5.725
51391SOL     OW56005   6.289   9.836  13.648
51391SOL    HW156006   6.330   9.914  13.686
51391SOL    HW256007   6.196   9.859  13.643
51392SOL     OW56008  14.564   1.707   1.451
51392SOL    HW156009  14.559   1.628   1.505
51392SOL    HW256010  14.560   1.779   1.513
51393SOL     OW56011  13.137   4.231   0.010
51393SOL    HW156012  13.167   4.314   0.048
51393SOL    HW256013  13.176   4.164   0.065
51394SOL     OW56014   5.643   3.942  13.836
51394SOL    HW156015   5.727   3.926  13.792
51394SOL    HW256016   5.613   4.025  13.799
51395SOL     OW56017   0.464   0.572   3.861
51395SOL    HW156018   0.550   0.560   3.819
51395SOL    HW256019   0.484   0.582   3.954
51396SOL     OW56020   1.530   3.763   6.594
51396SOL    HW156021   1.565   3.837   6.545
51396SOL    HW256022   1.452   3.737   6.545
51397SOL     OW56023   5.103   7.650   2.818
51397SOL    HW156024   5.127   7.659   2.910
51397SOL    HW256025   5.183   7.619   2.775
51398SOL     OW56026  13.970   8.954   1.925
51398SOL    HW156027  14.018   8.916   1.998
51398SOL    HW256028  13.881   8.964   1.957
51399SOL     OW56029   7.588   7.596   6.497
51399SOL    HW156030   7.558   7.505   6.497
51399SOL    HW256031   7.614   7.612   6.588
51400SOL     OW56032   7.309  11.192   1.096
51400SOL    HW156033   7.303  11.126   1.165
51400SOL    HW256034   7.307  11.276   1.142
51401SOL     OW56035   1.403   1.420   9.968
51401SOL    HW156036   1.487   1.374   9.970
51401SOL    HW256037   1.342   1.355   9.934
51402SOL     OW56038   6.270   4.906  11.984
51402SOL    HW156039   6.270   4.878  12.075
51402SOL    HW256040   6.303   4.995  11.986
51403SOL     OW56041   4.031   4.032  12.467
51403SOL    HW156042   4.011   4.083  12.546
51403SOL    HW256043   3.999   3.944  12.488
51404SOL     OW56044   0.642   4.363   1.297
51404SOL    HW156045   0.553   4.384   1.325
51404SOL    HW256046   0.691   4.444   1.309
51405SOL     OW56047  14.244  12.198   1.485
51405SOL    HW156048  14.169  12.206   1.427
51405SOL    HW256049  14.236  12.110   1.522
51406SOL     OW56050   0.882  11.371   9.587
51406SOL    HW156051   0.924  11.285   9.591
51406SOL    HW256052   0.919  11.412   9.508
51407SOL     OW56053  13.056   4.736   6.879
51407SOL    HW156054  13.032   4.676   6.950
51407SOL    HW256055  13.040   4.823   6.914
51408SOL     OW56056   2.840   5.875  11.968
51408SOL    HW156057   2.908   5.928  12.008
51408SOL    HW256058   2.872   5.785  11.973
51409SOL     OW56059  10.199  12.076   7.812
51409SOL    HW156060  10.132  12.049   7.749
51409SOL    HW256061  10.149  12.118   7.883
51410SOL     OW56062  10.362   8.372   9.828
51410SOL    HW156063  10.328   8.427   9.757
51410SOL    HW256064  10.456   8.387   9.828
51411SOL     OW56065   0.238   0.989   4.917
51411SOL    HW156066   0.146   1.011   4.907
51411SOL    HW256067   0.240   0.894   4.928
51412SOL     OW56068   0.041   3.993   0.404
51412SOL    HW156069  14.836   4.031   0.376
51412SOL    HW256070   0.058   3.924   0.340
51413SOL     OW56071   3.491   7.625   8.041
51413SOL    HW156072   3.498   7.534   8.070
51413SOL    HW256073   3.431   7.622   7.967
51414SOL     OW56074   1.651  10.942   6.194
51414SOL    HW156075   1.723  10.983   6.147
51414SOL    HW256076   1.689  10.863   6.233
51415SOL     OW56077  13.166   7.171  12.138
51415SOL    HW156078  13.140   7.248  12.088
51415SOL    HW256079  13.109   7.170  12.214
51416SOL     OW56080   6.313  13.935   6.598
51416SOL    HW156081   6.280  13.949   6.509
51416SOL    HW256082   6.401  13.972   6.596
51417SOL     OW56083   1.328   6.599   5.642
51417SOL    HW156084   1.336   6.677   5.587
51417SOL    HW256085   1.365   6.626   5.726
51418SOL     OW56086   3.531   8.365   9.950
51418SOL    HW156087   3.527   8.327   9.863
51418SOL    HW256088   3.480   8.306  10.005
51419SOL     OW56089   4.948   8.279   7.394
51419SOL    HW156090   4.949   8.188   7.367
51419SOL    HW256091   5.038   8.297   7.421
51420SOL     OW56092  11.311  13.529  10.406
51420SOL    HW156093  11.301  13.440  10.373
51420SOL    HW256094  11.378  13.523  10.474
51421SOL     OW56095  11.253   5.802   3.547
51421SOL    HW156096  11.245   5.782   3.640
51421SOL    HW256097  11.185   5.748   3.505
51422SOL     OW56098  10.077   9.195  10.111
51422SOL    HW156099  10.032   9.171  10.030
51422SOL    HW256100  10.067   9.290  10.117
51423SOL     OW56101   2.034   2.577  10.354
51423SOL    HW156102   2.095   2.519  10.399
51423SOL    HW256103   1.976   2.519  10.306
51424SOL     OW56104  11.278   4.882   7.180
51424SOL    HW156105  11.295   4.922   7.265
51424SOL    HW256106  11.194   4.919   7.152
51425SOL     OW56107  12.981   0.507  13.557
51425SOL    HW156108  12.935   0.424  13.568
51425SOL    HW256109  12.921   0.573  13.592
51426SOL     OW56110   1.371   1.124  13.177
51426SOL    HW156111   1.388   1.033  13.200
51426SOL    HW256112   1.453   1.155  13.137
51427SOL     OW56113   7.843   2.562   6.061
51427SOL    HW156114   7.836   2.598   5.973
51427SOL    HW256115   7.887   2.478   6.048
51428SOL     OW56116   2.102   9.970   9.462
51428SOL    HW156117   2.158  10.028   9.411
51428SOL    HW256118   2.086  10.018   9.544
51429SOL     OW56119  13.325  10.749  14.666
51429SOL    HW156120  13.267  10.754  14.742
51429SOL    HW256121  13.412  10.764  14.701
51430SOL     OW56122   4.478   5.632  11.164
51430SOL    HW156123   4.511   5.632  11.254
51430SOL    HW256124   4.546   5.587  11.113
51431SOL     OW56125   6.911   5.631   3.380
51431SOL    HW156126   6.969   5.579   3.325
51431SOL    HW256127   6.826   5.628   3.335
51432SOL     OW56128  11.073   9.097   6.520
51432SOL    HW156129  11.089   9.037   6.448
51432SOL    HW256130  11.147   9.083   6.580
51433SOL     OW56131   3.931   1.351   9.491
51433SOL    HW156132   3.956   1.443   9.483
51433SOL    HW256133   3.988   1.317   9.561
51434SOL     OW56134  12.995   8.636   6.670
51434SOL    HW156135  13.065   8.597   6.618
51434SOL    HW256136  13.024   8.624   6.761
51435SOL     OW56137   8.339  10.409   1.910
51435SOL    HW156138   8.293  10.492   1.903
51435SOL    HW256139   8.426  10.427   1.874
51436SOL     OW56140   8.645  11.627   5.508
51436SOL    HW156141   8.698  11.580   5.443
51436SOL    HW256142   8.699  11.702   5.532
51437SOL     OW56143   8.796   6.146  13.178
51437SOL    HW156144   8.840   6.163  13.262
51437SOL    HW256145   8.705   6.172  13.193
51438SOL     OW56146  13.707   7.355   2.666
51438SOL    HW156147  13.654   7.400   2.600
51438SOL    HW256148  13.775   7.418   2.688
51439SOL     OW56149   4.201   0.482  13.731
51439SOL    HW156150   4.249   0.551  13.777
51439SOL    HW256151   4.110   0.496  13.754
51440SOL     OW56152  12.101   5.092  12.823
51440SOL    HW156153  12.187   5.127  12.799
51440SOL    HW256154  12.089   5.119  12.914
51441SOL     OW56155   5.744   7.528  11.798
51441SOL    HW156156   5.734   7.491  11.886
51441SOL    HW256157   5.751   7.452  11.741
51442SOL     OW56158   0.545  13.153   5.837
51442SOL    HW156159   0.542  13.073   5.785
51442SOL    HW256160   0.623  13.199   5.807
51443SOL     OW56161   1.291  14.057  10.069
51443SOL    HW156162   1.373  14.019  10.101
51443SOL    HW256163   1.242  13.983  10.033
51444SOL     OW56164   8.337   5.646   0.472
51444SOL    HW156165   8.396   5.717   0.446
51444SOL    HW256166   8.355   5.632   0.565
51445SOL     OW56167  10.948  10.074   1.360
51445SOL    HW156168  10.924  10.119   1.279
51445SOL    HW256169  10.994  10.140   1.411
51446SOL     OW56170   2.168   6.741   2.890
51446SOL    HW156171   2.175   6.690   2.970
51446SOL    HW256172   2.145   6.829   2.919
51447SOL     OW56173  11.511   1.040  13.922
51447SOL    HW156174  11.487   0.976  13.989
51447SOL    HW256175  11.503   0.992  13.839
51448SOL     OW56176   6.070  12.999   7.397
51448SOL    HW156177   5.976  13.018   7.404
51448SOL    HW256178   6.113  13.083   7.416
51449SOL     OW56179   5.021   9.941   6.100
51449SOL    HW156180   4.996  10.032   6.081
51449SOL    HW256181   5.104   9.948   6.146
51450SOL     OW56182   8.046  12.830   4.317
51450SOL    HW156183   8.048  12.867   4.229
51450SOL    HW256184   8.012  12.741   4.306
51451SOL     OW56185   9.825   3.135  14.731
51451SOL    HW156186   9.855   3.094  14.650
51451SOL    HW256187   9.903   3.142  14.786
51452SOL     OW56188  12.929  14.681   8.414
51452SOL    HW156189  12.886  14.651   8.494
51452SOL    HW256190  12.872  14.651   8.343
51453SOL     OW56191   3.703  13.548   5.445
51453SOL    HW156192   3.797  13.533   5.454
51453SOL    HW256193   3.668  13.463   5.419
51454SOL     OW56194   2.717   2.665   1.411
51454SOL    HW156195   2.754   2.753   1.425
51454SOL    HW256196   2.781   2.621   1.356
51455SOL     OW56197   6.724   9.777   3.414
51455SOL    HW156198   6.804   9.731   3.388
51455SOL    HW256199   6.739   9.868   3.389
51456SOL     OW56200   9.919  12.622   6.498
51456SOL    HW156201  10.014  12.614   6.494
51456SOL    HW256202   9.887  12.546   6.448
51457SOL     OW56203   4.327   6.759  14.484
51457SOL    HW156204   4.345   6.692  14.419
51457SOL    HW256205   4.324   6.712  14.568
51458SOL     OW56206   4.302   9.775   1.684
51458SOL    HW156207   4.241   9.824   1.629
51458SOL    HW256208   4.257   9.693   1.703
51459SOL     OW56209   2.436   7.949   6.115
51459SOL    HW156210   2.347   7.945   6.148
51459SOL    HW256211   2.470   7.860   6.128
51460SOL     OW56212   4.541   9.252   2.470
51460SOL    HW156213   4.550   9.347   2.474
51460SOL    HW256214   4.448   9.236   2.486
51461SOL     OW56215   4.535  14.640   5.677
51461SOL    HW156216   4.572  14.552   5.678
51461SOL    HW256217   4.532  14.663   5.584
51462SOL     OW56218  10.690  11.656  12.420
51462SOL    HW156219  10.698  11.726  12.354
51462SOL    HW256220  10.671  11.703  12.501
51463SOL     OW56221  11.410   2.067   0.386
51463SOL    HW156222  11.469   2.039   0.455
51463SOL    HW256223  11.416   1.998   0.320
51464SOL     OW56224   4.800   8.770   5.303
51464SOL    HW156225   4.780   8.751   5.211
51464SOL    HW256226   4.886   8.811   5.301
51465SOL     OW56227   3.860   2.898   0.246
51465SOL    HW156228   3.811   2.980   0.247
51465SOL    HW256229   3.866   2.873   0.338
51466SOL     OW56230   4.029  14.223  12.782
51466SOL    HW156231   4.022  14.133  12.814
51466SOL    HW256232   3.973  14.225  12.704
51467SOL     OW56233   9.067   1.900   0.007
51467SOL    HW156234   9.058   1.959  14.812
51467SOL    HW256235   9.048   1.954   0.084
51468SOL     OW56236   2.699   8.132   9.465
51468SOL    HW156237   2.631   8.179   9.513
51468SOL    HW256238   2.663   8.044   9.454
51469SOL     OW56239   0.279   3.086  14.852
51469SOL    HW156240   0.288   3.053  14.763
51469SOL    HW256241   0.319   3.018   0.028
51470SOL     OW56242  12.235   3.268   1.611
51470SOL    HW156243  12.203   3.356   1.590
51470SOL    HW256244  12.210   3.255   1.703
51471SOL     OW56245   9.864   6.461   6.281
51471SOL    HW156246   9.843   6.408   6.358
51471SOL    HW256247   9.867   6.551   6.315
51472SOL     OW56248   3.295  12.697   6.213
51472SOL    HW156249   3.344  12.696   6.131
51472SOL    HW256250   3.361  12.712   6.281
51473SOL     OW56251  12.363  11.120   6.356
51473SOL    HW156252  12.278  11.161   6.344
51473SOL    HW256253  12.425  11.182   6.317
51474SOL     OW56254   3.947   1.471   4.569
51474SOL    HW156255   3.927   1.544   4.628
51474SOL    HW256256   4.018   1.503   4.514
51475SOL     OW56257  10.759   9.976  10.081
51475SOL    HW156258  10.687  10.036  10.063
51475SOL    HW256259  10.737   9.936  10.165
51476SOL     OW56260  14.160  11.714   2.197
51476SOL    HW156261  14.177  11.622   2.217
51476SOL    HW256262  14.178  11.760   2.279
51477SOL     OW56263   2.135   0.912   9.187
51477SOL    HW156264   2.064   0.919   9.251
51477SOL    HW256265   2.211   0.885   9.238
51478SOL     OW56266   2.033   1.554  10.082
51478SOL    HW156267   2.031   1.642  10.044
51478SOL    HW256268   2.057   1.497  10.010
51479SOL     OW56269  11.962   5.194  13.969
51479SOL    HW156270  12.010   5.272  13.997
51479SOL    HW256271  11.999   5.173  13.883
51480SOL     OW56272   7.669   6.750   1.441
51480SOL    HW156273   7.691   6.779   1.530
51480SOL    HW256274   7.667   6.655   1.447
51481SOL     OW56275   7.931  14.137   7.508
51481SOL    HW156276   7.870  14.209   7.527
51481SOL    HW256277   7.926  14.081   7.585
51482SOL     OW56278   4.051   4.492   2.066
51482SOL    HW156279   4.129   4.543   2.045
51482SOL    HW256280   3.992   4.554   2.108
51483SOL     OW56281   7.730  11.087   9.806
51483SOL    HW156282   7.723  11.183   9.804
51483SOL    HW256283   7.639  11.057   9.816
51484SOL     OW56284   4.838   7.959   4.819
51484SOL    HW156285   4.796   7.935   4.737
51484SOL    HW256286   4.832   7.880   4.873
51485SOL     OW56287   3.996  10.682  11.508
51485SOL    HW156288   3.989  10.591  11.478
51485SOL    HW256289   4.051  10.724  11.442
51486SOL     OW56290   3.460  10.742  10.337
51486SOL    HW156291   3.470  10.682  10.411
51486SOL    HW256292   3.374  10.781  10.350
51487SOL     OW56293  11.355   4.228   8.921
51487SOL    HW156294  11.379   4.141   8.889
51487SOL    HW256295  11.266   4.217   8.954
51488SOL     OW56296   0.495  12.366   3.766
51488SOL    HW156297   0.540  12.450   3.769
51488SOL    HW256298   0.460  12.360   3.677
51489SOL     OW56299  11.995  13.617   5.433
51489SOL    HW156300  12.016  13.555   5.363
51489SOL    HW256301  12.080  13.634   5.475
51490SOL     OW56302   2.714   7.090   8.749
51490SOL    HW156303   2.783   7.107   8.813
51490SOL    HW256304   2.652   7.161   8.760
51491SOL     OW56305   2.799   7.696   1.766
51491SOL    HW156306   2.876   7.747   1.793
51491SOL    HW256307   2.828   7.605   1.767
51492SOL     OW56308   7.525   0.284   3.958
51492SOL    HW156309   7.472   0.339   3.901
51492SOL    HW256310   7.466   0.212   3.983
51493SOL     OW56311   9.779   4.405   7.348
51493SOL    HW156312   9.703   4.386   7.293
51493SOL    HW256313   9.844   4.441   7.288
51494SOL     OW56314   4.451   8.169  10.434
51494SOL    HW156315   4.441   8.263  10.422
51494SOL    HW256316   4.544   8.155  10.448
51495SOL     OW56317   4.676  13.837   4.285
51495SOL    HW156318   4.653  13.841   4.193
51495SOL    HW256319   4.645  13.919   4.322
51496SOL     OW56320   3.764  14.873   1.727
51496SOL    HW156321   3.812  14.792   1.745
51496SOL    HW256322   3.769   0.043   1.809
51497SOL     OW56323   8.988  13.816   8.889
51497SOL    HW156324   8.923  13.789   8.824
51497SOL    HW256325   9.072  13.784   8.855
51498SOL     OW56326   0.956   6.044   8.954
51498SOL    HW156327   0.908   6.050   8.871
51498SOL    HW256328   1.019   6.117   8.950
51499SOL     OW56329   9.190  14.160   3.759
51499SOL    HW156330   9.226  14.122   3.840
51499SOL    HW256331   9.210  14.095   3.692
51500SOL     OW56332   3.737   4.637   0.558
51500SOL    HW156333   3.822   4.670   0.530
51500SOL    HW256334   3.694   4.713   0.598
51501SOL     OW56335  13.025   9.989   4.845
51501SOL    HW156336  13.031   9.896   4.824
51501SOL    HW256337  13.088  10.031   4.786
51502SOL     OW56338   4.110   8.249  14.160
51502SOL    HW156339   4.197   8.250  14.199
51502SOL    HW256340   4.125   8.272  14.068
51503SOL     OW56341   6.280  14.400   5.103
51503SOL    HW156342   6.234  14.321   5.076
51503SOL    HW256343   6.219  14.471   5.082
51504SOL     OW56344   4.668   1.717   2.287
51504SOL    HW156345   4.665   1.806   2.321
51504SOL    HW256346   4.648   1.727   2.193
51505SOL     OW56347   0.132   8.250  12.332
51505SOL    HW156348   0.187   8.322  12.301
51505SOL    HW256349   0.178   8.171  12.306
51506SOL     OW56350   1.029   5.947   3.048
51506SOL    HW156351   0.944   5.980   3.020
51506SOL    HW256352   1.032   5.966   3.142
51507SOL     OW56353   5.614   1.443   6.516
51507SOL    HW156354   5.694   1.427   6.566
51507SOL    HW256355   5.543   1.420   6.576
51508SOL     OW56356   0.023   2.302   8.920
51508SOL    HW156357   0.068   2.383   8.946
51508SOL    HW256358   0.049   2.238   8.987
51509SOL     OW56359  13.531   0.727   6.075
51509SOL    HW156360  13.436   0.721   6.087
51509SOL    HW256361  13.561   0.778   6.151
51510SOL     OW56362   6.729   6.428   4.978
51510SOL    HW156363   6.791   6.486   4.934
51510SOL    HW256364   6.661   6.412   4.912
51511SOL     OW56365  14.384  12.059   3.858
51511SOL    HW156366  14.290  12.062   3.873
51511SOL    HW256367  14.401  12.127   3.793
51512SOL     OW56368  11.988   9.473   6.223
51512SOL    HW156369  11.981   9.547   6.283
51512SOL    HW256370  11.909   9.421   6.241
51513SOL     OW56371   2.512   7.332   5.870
51513SOL    HW156372   2.516   7.426   5.850
51513SOL    HW256373   2.555   7.324   5.955
51514SOL     OW56374   8.990   3.807   0.801
51514SOL    HW156375   9.044   3.874   0.842
51514SOL    HW256376   9.051   3.757   0.747
51515SOL     OW56377   2.439  12.811  12.270
51515SOL    HW156378   2.435  12.730  12.321
51515SOL    HW256379   2.400  12.878  12.327
51516SOL     OW56380   6.653   7.530   6.747
51516SOL    HW156381   6.687   7.559   6.662
51516SOL    HW256382   6.664   7.606   6.804
51517SOL     OW56383   9.561  10.208   4.047
51517SOL    HW156384   9.614  10.213   3.968
51517SOL    HW256385   9.472  10.227   4.018
51518SOL     OW56386   9.422   2.665   2.049
51518SOL    HW156387   9.354   2.656   1.982
51518SOL    HW256388   9.504   2.671   2.000
51519SOL     OW56389   9.198   5.375  14.510
51519SOL    HW156390   9.152   5.292  14.501
51519SOL    HW256391   9.261   5.360  14.581
51520SOL     OW56392  14.037  13.100  11.081
51520SOL    HW156393  14.012  13.025  11.136
51520SOL    HW256394  13.972  13.167  11.101
51521SOL     OW56395   7.168  12.751   7.541
51521SOL    HW156396   7.125  12.819   7.593
51521SOL    HW256397   7.217  12.799   7.474
51522SOL     OW56398  11.030   2.603   8.763
51522SOL    HW156399  10.963   2.640   8.821
51522SOL    HW256400  11.056   2.522   8.805
51523SOL     OW56401   2.910   1.217   6.381
51523SOL    HW156402   2.964   1.296   6.377
51523SOL    HW256403   2.908   1.185   6.291
51524SOL     OW56404  12.044   1.180   9.274
51524SOL    HW156405  12.096   1.200   9.196
51524SOL    HW256406  11.983   1.253   9.281
51525SOL     OW56407  12.863   7.410   8.201
51525SOL    HW156408  12.919   7.471   8.153
51525SOL    HW256409  12.924   7.348   8.242
51526SOL     OW56410   4.078   5.428   1.119
51526SOL    HW156411   4.129   5.492   1.070
51526SOL    HW256412   4.031   5.378   1.052
51527SOL     OW56413   1.881   6.657  10.148
51527SOL    HW156414   1.910   6.567  10.136
51527SOL    HW256415   1.895   6.698  10.063
51528SOL     OW56416   1.683   5.939   3.616
51528SOL    HW156417   1.724   5.873   3.672
51528SOL    HW256418   1.641   6.000   3.677
51529SOL     OW56419   3.611  14.263   8.810
51529SOL    HW156420   3.633  14.193   8.871
51529SOL    HW256421   3.529  14.300   8.845
51530SOL     OW56422   6.380   3.487  12.326
51530SOL    HW156423   6.326   3.566  12.312
51530SOL    HW256424   6.323   3.415  12.297
51531SOL     OW56425   0.315   9.612   0.378
51531SOL    HW156426   0.244   9.605   0.315
51531SOL    HW256427   0.312   9.702   0.409
51532SOL     OW56428   9.519   0.953   3.557
51532SOL    HW156429   9.581   0.880   3.558
51532SOL    HW256430   9.464   0.939   3.634
51533SOL     OW56431   3.004  10.526  14.333
51533SOL    HW156432   2.995  10.585  14.408
51533SOL    HW256433   3.034  10.581  14.262
51534SOL     OW56434   8.109   1.642  12.885
51534SOL    HW156435   8.076   1.628  12.974
51534SOL    HW256436   8.060   1.718  12.853
51535SOL     OW56437   1.359   8.864  13.506
51535SOL    HW156438   1.319   8.887  13.590
51535SOL    HW256439   1.387   8.774  13.517
51536SOL     OW56440   5.061   2.986   3.919
51536SOL    HW156441   5.033   3.069   3.958
51536SOL    HW256442   5.027   2.919   3.978
51537SOL     OW56443   1.199   2.054   0.774
51537SOL    HW156444   1.233   2.101   0.698
51537SOL    HW256445   1.124   2.006   0.740
51538SOL     OW56446   3.515  14.677   4.498
51538SOL    HW156447   3.503  14.697   4.405
51538SOL    HW256448   3.606  14.700   4.517
51539SOL     OW56449   4.238  11.459   2.396
51539SOL    HW156450   4.260  11.379   2.444
51539SOL    HW256451   4.229  11.526   2.464
51540SOL     OW56452   5.384   4.474   9.559
51540SOL    HW156453   5.308   4.530   9.545
51540SOL    HW256454   5.420   4.502   9.644
51541SOL     OW56455   4.888  10.590   1.911
51541SOL    HW156456   4.928  10.673   1.939
51541SOL    HW256457   4.801  10.590   1.951
51542SOL     OW56458   7.189   4.496   9.464
51542SOL    HW156459   7.271   4.502   9.415
51542SOL    HW256460   7.136   4.435   9.414
51543SOL     OW56461   1.721   8.949   8.308
51543SOL    HW156462   1.727   8.986   8.396
51543SOL    HW256463   1.812   8.946   8.277
51544SOL     OW56464  13.937   1.432   0.955
51544SOL    HW156465  13.970   1.358   0.905
51544SOL    HW256466  13.842   1.422   0.954
51545SOL     OW56467   7.691  10.368  12.584
51545SOL    HW156468   7.784  10.391  12.584
51545SOL    HW256469   7.664  10.377  12.493
51546SOL     OW56470   2.907   1.802   9.228
51546SOL    HW156471   2.968   1.799   9.302
51546SOL    HW256472   2.929   1.884   9.183
51547SOL     OW56473   3.941   2.146  14.179
51547SOL    HW156474   4.012   2.210  14.183
51547SOL    HW256475   3.861   2.198  14.183
51548SOL     OW56476  14.224   8.522  14.094
51548SOL    HW156477  14.240   8.511  14.188
51548SOL    HW256478  14.310   8.536  14.057
51549SOL     OW56479  13.967  10.903  12.870
51549SOL    HW156480  13.874  10.882  12.880
51549SOL    HW256481  13.979  10.915  12.776
51550SOL     OW56482   0.773   0.386   1.537
51550SOL    HW156483   0.790   0.438   1.615
51550SOL    HW256484   0.845   0.322   1.535
51551SOL     OW56485   3.713   3.504   5.579
51551SOL    HW156486   3.708   3.499   5.675
51551SOL    HW256487   3.773   3.434   5.554
51552SOL     OW56488   1.371   7.663  12.946
51552SOL    HW156489   1.327   7.733  12.898
51552SOL    HW256490   1.355   7.683  13.038
51553SOL     OW56491   9.372   7.910   0.113
51553SOL    HW156492   9.378   7.854   0.036
51553SOL    HW256493   9.319   7.860   0.175
51554SOL     OW56494  13.074   7.244   0.100
51554SOL    HW156495  13.096   7.187   0.173
51554SOL    HW256496  13.041   7.324   0.141
51555SOL     OW56497  10.292   8.853  14.074
51555SOL    HW156498  10.218   8.814  14.027
51555SOL    HW256499  10.279   8.825  14.165
51556SOL     OW56500   3.667   2.827  14.829
51556SOL    HW156501   3.593   2.875  14.867
51556SOL    HW256502   3.631   2.785  14.751
51557SOL     OW56503   7.671   3.995   6.885
51557SOL    HW156504   7.728   3.933   6.932
51557SOL    HW256505   7.663   3.958   6.797
51558SOL     OW56506   4.211  13.353   5.901
51558SOL    HW156507   4.273  13.281   5.891
51558SOL    HW256508   4.126  13.311   5.911
51559SOL     OW56509   4.092   7.150   1.156
51559SOL    HW156510   4.107   7.079   1.218
51559SOL    HW256511   4.017   7.121   1.105
51560SOL     OW56512  13.344   8.906   0.157
51560SOL    HW156513  13.349   8.816   0.189
51560SOL    HW256514  13.399   8.956   0.217
51561SOL     OW56515   5.702  10.066   4.879
51561SOL    HW156516   5.638  10.129   4.845
51561SOL    HW256517   5.762  10.119   4.932
51562SOL     OW56518   7.663   9.741  11.307
51562SOL    HW156519   7.715   9.669  11.344
51562SOL    HW256520   7.581   9.699  11.279
51563SOL     OW56521   4.200   0.140  13.357
51563SOL    HW156522   4.187   0.114  13.266
51563SOL    HW256523   4.278   0.196  13.356
51564SOL     OW56524   4.994  13.049  10.069
51564SOL    HW156525   5.047  13.040  10.149
51564SOL    HW256526   4.907  13.071  10.101
51565SOL     OW56527   2.858   1.253   3.873
51565SOL    HW156528   2.878   1.163   3.846
51565SOL    HW256529   2.792   1.243   3.941
51566SOL     OW56530   1.995   3.592   7.321
51566SOL    HW156531   1.929   3.564   7.257
51566SOL    HW256532   2.043   3.662   7.276
51567SOL     OW56533   5.368   0.698   2.101
51567SOL    HW156534   5.317   0.675   2.023
51567SOL    HW256535   5.445   0.641   2.098
51568SOL     OW56536   3.711   1.256  14.826
51568SOL    HW156537   3.622   1.285  14.844
51568SOL    HW256538   3.762   1.337  14.823
51569SOL     OW56539   8.770  11.685   6.788
51569SOL    HW156540   8.709  11.688   6.862
51569SOL    HW256541   8.851  11.651   6.826
51570SOL     OW56542   9.914   4.402   9.473
51570SOL    HW156543   9.906   4.495   9.497
51570SOL    HW256544   9.855   4.392   9.398
51571SOL     OW56545   6.246   1.064  11.878
51571SOL    HW156546   6.153   1.046  11.867
51571SOL    HW256547   6.257   1.155  11.851
51572SOL     OW56548  11.854  13.908  10.652
51572SOL    HW156549  11.856  13.813  10.660
51572SOL    HW256550  11.858  13.940  10.742
51573SOL     OW56551   1.451   0.312   4.263
51573SOL    HW156552   1.428   0.395   4.220
51573SOL    HW256553   1.525   0.334   4.320
51574SOL     OW56554  11.497  11.934  11.556
51574SOL    HW156555  11.473  11.882  11.634
51574SOL    HW256556  11.566  11.992  11.587
51575SOL     OW56557   3.363   2.551   3.133
51575SOL    HW156558   3.454   2.523   3.121
51575SOL    HW256559   3.368   2.619   3.201
51576SOL     OW56560   0.171   1.246   7.365
51576SOL    HW156561   0.182   1.277   7.275
51576SOL    HW256562   0.083   1.276   7.390
51577SOL     OW56563  13.730   0.705   1.352
51577SOL    HW156564  13.647   0.751   1.346
51577SOL    HW256565  13.796   0.774   1.354
51578SOL     OW56566   7.384   3.332   8.922
51578SOL    HW156567   7.437   3.412   8.922
51578SOL    HW256568   7.403   3.291   9.006
51579SOL     OW56569   3.788   8.186   9.903
51579SOL    HW156570   3.817   8.109   9.950
51579SOL    HW256571   3.867   8.219   9.860
51580SOL     OW56572  10.018   9.480   0.088
51580SOL    HW156573  10.055   9.557   0.132
51580SOL    HW256574  10.059   9.480   0.002
51581SOL     OW56575   8.203   2.960   4.243
51581SOL    HW156576   8.252   3.001   4.315
51581SOL    HW256577   8.270   2.918   4.190
51582SOL     OW56578   0.249  13.477  10.067
51582SOL    HW156579   0.311  13.428  10.012
51582SOL    HW256580   0.166  13.470  10.022
51583SOL     OW56581  10.083   7.847   0.634
51583SOL    HW156582  10.135   7.768   0.621
51583SOL    HW256583  10.142   7.919   0.609
51584SOL     OW56584   8.553   2.380  10.912
51584SOL    HW156585   8.484   2.381  10.846
51584SOL    HW256586   8.629   2.416  10.866
51585SOL     OW56587   6.949  10.655   2.644
51585SOL    HW156588   6.912  10.593   2.580
51585SOL    HW256589   6.910  10.739   2.620
51586SOL     OW56590  14.324   3.358   9.362
51586SOL    HW156591  14.417   3.380   9.366
51586SOL    HW256592  14.290   3.412   9.291
51587SOL     OW56593   3.501   1.831   6.754
51587SOL    HW156594   3.451   1.820   6.836
51587SOL    HW256595   3.434   1.847   6.688
51588SOL     OW56596  12.079   6.986  12.503
51588SOL    HW156597  11.990   6.953  12.497
51588SOL    HW256598  12.077   7.069  12.454
51589SOL     OW56599  10.454  11.800   4.778
51589SOL    HW156600  10.498  11.812   4.694
51589SOL    HW256601  10.444  11.888   4.813
51590SOL     OW56602  12.795  11.176   3.993
51590SOL    HW156603  12.735  11.109   3.961
51590SOL    HW256604  12.881  11.149   3.960
51591SOL     OW56605  14.092   6.092   7.712
51591SOL    HW156606  14.154   6.031   7.751
51591SOL    HW256607  14.017   6.038   7.688
51592SOL     OW56608   3.444   2.651   1.064
51592SOL    HW156609   3.353   2.623   1.078
51592SOL    HW256610   3.454   2.653   0.969
51593SOL     OW56611  13.762  11.696   0.865
51593SOL    HW156612  13.668  11.677   0.866
51593SOL    HW256613  13.774  11.757   0.793
51594SOL     OW56614  11.142   8.353  11.625
51594SOL    HW156615  11.056   8.384  11.652
51594SOL    HW256616  11.202   8.421  11.656
51595SOL     OW56617   2.336   1.723  12.093
51595SOL    HW156618   2.308   1.632  12.105
51595SOL    HW256619   2.370   1.749  12.179
51596SOL     OW56620   8.613   1.488   0.117
51596SOL    HW156621   8.561   1.511   0.039
51596SOL    HW256622   8.550   1.443   0.174
51597SOL     OW56623   5.785  10.441  10.150
51597SOL    HW156624   5.814  10.448  10.241
51597SOL    HW256625   5.805  10.526  10.112
51598SOL     OW56626  13.804   4.790   7.448
51598SOL    HW156627  13.760   4.707   7.468
51598SOL    HW256628  13.864   4.769   7.376
51599SOL     OW56629   2.393  13.613   0.553
51599SOL    HW156630   2.338  13.535   0.564
51599SOL    HW256631   2.379  13.639   0.462
51600SOL     OW56632   2.145   8.474   1.701
51600SOL    HW156633   2.093   8.504   1.627
51600SOL    HW256634   2.081   8.451   1.768
51601SOL     OW56635  14.590   1.138  11.475
51601SOL    HW156636  14.571   1.089  11.395
51601SOL    HW256637  14.626   1.222  11.445
51602SOL     OW56638  13.292   9.074   9.806
51602SOL    HW156639  13.359   9.037   9.748
51602SOL    HW256640  13.275   9.004   9.869
51603SOL     OW56641   7.914   5.049   6.304
51603SOL    HW156642   7.983   4.983   6.296
51603SOL    HW256643   7.931   5.110   6.233
51604SOL     OW56644   8.029  11.895   3.620
51604SOL    HW156645   7.936  11.871   3.627
51604SOL    HW256646   8.046  11.896   3.526
51605SOL     OW56647   4.790  13.611   8.169
51605SOL    HW156648   4.768  13.582   8.258
51605SOL    HW256649   4.709  13.650   8.136
51606SOL     OW56650   2.161   1.438   7.751
51606SOL    HW156651   2.242   1.391   7.773
51606SOL    HW256652   2.141   1.411   7.661
51607SOL     OW56653   2.418  10.153   3.985
51607SOL    HW156654   2.414  10.174   3.891
51607SOL    HW256655   2.458  10.231   4.024
51608SOL     OW56656   0.536  14.149  14.219
51608SOL    HW156657   0.544  14.140  14.124
51608SOL    HW256658   0.625  14.170  14.248
51609SOL     OW56659  13.048   2.997   4.595
51609SOL    HW156660  13.017   3.060   4.661
51609SOL    HW256661  13.141   2.985   4.615
51610SOL     OW56662   8.307   2.697  11.003
51610SOL    HW156663   8.225   2.681  11.051
51610SOL    HW256664   8.303   2.636  10.929
51611SOL     OW56665   4.475   2.460   9.152
51611SOL    HW156666   4.385   2.493   9.152
51611SOL    HW256667   4.522   2.520   9.211
51612SOL     OW56668   6.835   1.967  11.159
51612SOL    HW156669   6.813   1.905  11.228
51612SOL    HW256670   6.817   1.920  11.078
51613SOL     OW56671  12.801  10.372  13.779
51613SOL    HW156672  12.774  10.426  13.705
51613SOL    HW256673  12.747  10.293  13.771
51614SOL     OW56674   0.327  12.250   5.780
51614SOL    HW156675   0.300  12.159   5.786
51614SOL    HW256676   0.417  12.251   5.811
51615SOL     OW56677   7.790   4.598   2.557
51615SOL    HW156678   7.719   4.617   2.617
51615SOL    HW256679   7.792   4.673   2.497
51616SOL     OW56680  12.269   2.780   9.861
51616SOL    HW156681  12.215   2.740   9.930
51616SOL    HW256682  12.213   2.848   9.824
51617SOL     OW56683   6.779   9.776   7.262
51617SOL    HW156684   6.733   9.855   7.231
51617SOL    HW256685   6.769   9.779   7.357
51618SOL     OW56686   8.634   2.924   1.921
51618SOL    HW156687   8.608   2.899   2.010
51618SOL    HW256688   8.644   2.841   1.874
51619SOL     OW56689   0.246  10.909  11.384
51619SOL    HW156690   0.250  10.821  11.345
51619SOL    HW256691   0.275  10.967  11.314
51620SOL     OW56692  14.447   3.184  13.951
51620SOL    HW156693  14.366   3.145  13.984
51620SOL    HW256694  14.498   3.110  13.918
51621SOL     OW56695  11.639   1.395   2.803
51621SOL    HW156696  11.671   1.459   2.867
51621SOL    HW256697  11.611   1.320   2.855
51622SOL     OW56698   2.025  12.793  12.924
51622SOL    HW156699   2.067  12.708  12.912
51622SOL    HW256700   2.076  12.853  12.869
51623SOL     OW56701   0.408   5.595   1.577
51623SOL    HW156702   0.356   5.665   1.615
51623SOL    HW256703   0.450   5.552   1.652
51624SOL     OW56704  13.683  13.262  10.865
51624SOL    HW156705  13.664  13.168  10.873
51624SOL    HW256706  13.742  13.268  10.790
51625SOL     OW56707  14.669  13.109   4.991
51625SOL    HW156708  14.716  13.056   4.927
51625SOL    HW256709  14.581  13.070   4.994
51626SOL     OW56710  14.027  10.673  10.904
51626SOL    HW156711  14.114  10.647  10.874
51626SOL    HW256712  13.990  10.722  10.831
51627SOL     OW56713  12.196   8.050   0.185
51627SOL    HW156714  12.256   8.016   0.251
51627SOL    HW256715  12.133   7.979   0.171
51628SOL     OW56716   7.083   8.494   9.206
51628SOL    HW156717   7.056   8.465   9.293
51628SOL    HW256718   7.044   8.580   9.196
51629SOL     OW56719   9.586  10.475   8.533
51629SOL    HW156720   9.511  10.468   8.592
51629SOL    HW256721   9.558  10.433   8.452
51630SOL     OW56722  13.901   8.776   0.227
51630SOL    HW156723  13.982   8.749   0.184
51630SOL    HW256724  13.834   8.770   0.159
51631SOL     OW56725   2.689   6.043   4.159
51631SOL    HW156726   2.757   6.063   4.095
51631SOL    HW256727   2.621   5.999   4.109
51632SOL     OW56728   6.356  12.794   8.268
51632SOL    HW156729   6.354  12.890   8.267
51632SOL    HW256730   6.418  12.771   8.337
51633SOL     OW56731   5.806  11.671   0.550
51633SOL    HW156732   5.851  11.735   0.495
51633SOL    HW256733   5.876  11.616   0.586
51634SOL     OW56734   9.881   3.287   2.711
51634SOL    HW156735   9.918   3.342   2.780
51634SOL    HW256736   9.886   3.198   2.746
51635SOL     OW56737   7.124   5.125   2.208
51635SOL    HW156738   7.116   5.087   2.121
51635SOL    HW256739   7.034   5.134   2.239
51636SOL     OW56740   2.498  11.001  11.550
51636SOL    HW156741   2.511  10.911  11.520
51636SOL    HW256742   2.471  11.048  11.472
51637SOL     OW56743   9.181   9.170   7.867
51637SOL    HW156744   9.131   9.227   7.925
51637SOL    HW256745   9.212   9.227   7.797
51638SOL     OW56746   4.730   6.087   2.134
51638SOL    HW156747   4.686   6.094   2.219
51638SOL    HW256748   4.674   6.135   2.074
51639SOL     OW56749  14.264   8.401   8.508
51639SOL    HW156750  14.347   8.438   8.477
51639SOL    HW256751  14.221   8.473   8.555
51640SOL     OW56752   5.726   6.451  11.866
51640SOL    HW156753   5.690   6.391  11.930
51640SOL    HW256754   5.818   6.425  11.857
51641SOL     OW56755   1.159  13.758  13.417
51641SOL    HW156756   1.222  13.760  13.345
51641SOL    HW256757   1.091  13.820  13.392
51642SOL     OW56758   5.650   9.532   8.798
51642SOL    HW156759   5.639   9.593   8.871
51642SOL    HW256760   5.734   9.557   8.758
51643SOL     OW56761   1.591   4.156   2.545
51643SOL    HW156762   1.506   4.149   2.587
51643SOL    HW256763   1.651   4.108   2.601
51644SOL     OW56764   9.974   7.457   7.637
51644SOL    HW156765  10.048   7.463   7.697
51644SOL    HW256766   9.914   7.395   7.679
51645SOL     OW56767   1.928   7.608   5.614
51645SOL    HW156768   2.007   7.553   5.610
51645SOL    HW256769   1.873   7.565   5.679
51646SOL     OW56770   1.073  13.815  11.290
51646SOL    HW156771   1.151  13.761  11.308
51646SOL    HW256772   1.080  13.834  11.196
51647SOL     OW56773   4.570  11.103   3.260
51647SOL    HW156774   4.522  11.121   3.179
51647SOL    HW256775   4.501  11.089   3.326
51648SOL     OW56776   4.324  11.553   8.243
51648SOL    HW156777   4.291  11.606   8.316
51648SOL    HW256778   4.296  11.600   8.165
51649SOL     OW56779   8.580   0.913   0.849
51649SOL    HW156780   8.609   0.844   0.789
51649SOL    HW256781   8.661   0.954   0.880
51650SOL     OW56782  13.543   7.698  12.051
51650SOL    HW156783  13.588   7.620  12.086
51650SOL    HW256784  13.507   7.741  12.128
51651SOL     OW56785   8.524  14.797   8.885
51651SOL    HW156786   8.443  14.840   8.912
51651SOL    HW256787   8.543  14.831   8.798
51652SOL     OW56788   6.569  12.163   4.447
51652SOL    HW156789   6.521  12.163   4.530
51652SOL    HW256790   6.581  12.256   4.426
51653SOL     OW56791   4.710  10.213   3.766
51653SOL    HW156792   4.620  10.241   3.779
51653SOL    HW256793   4.752  10.286   3.721
51654SOL     OW56794   3.131   4.065  13.852
51654SOL    HW156795   3.039   4.088  13.860
51654SOL    HW256796   3.136   3.974  13.883
51655SOL     OW56797  12.466   8.743   4.082
51655SOL    HW156798  12.389   8.698   4.116
51655SOL    HW256799  12.486   8.809   4.148
51656SOL     OW56800   1.050   5.314   9.446
51656SOL    HW156801   1.085   5.225   9.449
51656SOL    HW256802   1.070   5.350   9.532
51657SOL     OW56803   1.754   9.335  10.450
51657SOL    HW156804   1.672   9.385  10.455
51657SOL    HW256805   1.791   9.358  10.365
51658SOL     OW56806   2.700   7.243   5.089
51658SOL    HW156807   2.731   7.206   5.171
51658SOL    HW256808   2.749   7.325   5.080
51659SOL     OW56809   5.509  14.091   7.680
51659SOL    HW156810   5.496  14.180   7.713
51659SOL    HW256811   5.494  14.098   7.586
51660SOL     OW56812   8.084   4.710   0.700
51660SOL    HW156813   8.018   4.694   0.633
51660SOL    HW256814   8.097   4.805   0.699
51661SOL     OW56815   5.040   7.233  12.890
51661SOL    HW156816   5.045   7.224  12.985
51661SOL    HW256817   5.075   7.150  12.856
51662SOL     OW56818   7.403   8.744   3.570
51662SOL    HW156819   7.488   8.700   3.565
51662SOL    HW256820   7.425   8.837   3.565
51663SOL     OW56821  11.162  10.175   2.183
51663SOL    HW156822  11.230  10.170   2.116
51663SOL    HW256823  11.099  10.106   2.157
51664SOL     OW56824  11.896   7.164   2.838
51664SOL    HW156825  11.950   7.224   2.787
51664SOL    HW256826  11.929   7.077   2.814
51665SOL     OW56827  13.769   1.742  14.384
51665SOL    HW156828  13.708   1.683  14.338
51665SOL    HW256829  13.743   1.735  14.476
51666SOL     OW56830   4.482   0.632   6.915
51666SOL    HW156831   4.518   0.692   6.981
51666SOL    HW256832   4.395   0.667   6.895
51667SOL     OW56833   2.988   2.052  13.085
51667SOL    HW156834   2.933   2.099  13.023
51667SOL    HW256835   3.069   2.034  13.036
51668SOL     OW56836   1.527  11.847  14.660
51668SOL    HW156837   1.467  11.921  14.652
51668SOL    HW256838   1.530  11.828  14.753
51669SOL     OW56839   4.011   0.052   5.502
51669SOL    HW156840   4.085   0.086   5.553
51669SOL    HW256841   4.006  14.839   5.527
51670SOL     OW56842   3.250  13.319  12.107
51670SOL    HW156843   3.159  13.311  12.077
51670SOL    HW256844   3.246  13.383  12.178
51671SOL     OW56845  10.569   3.265   4.788
51671SOL    HW156846  10.488   3.265   4.839
51671SOL    HW256847  10.582   3.174   4.763
51672SOL     OW56848  11.725   7.475  11.016
51672SOL    HW156849  11.671   7.453  10.941
51672SOL    HW256850  11.689   7.557  11.049
51673SOL     OW56851   9.207  13.304   4.848
51673SOL    HW156852   9.161  13.265   4.774
51673SOL    HW256853   9.172  13.393   4.854
51674SOL     OW56854   3.995   5.967   0.072
51674SOL    HW156855   3.997   5.990   0.165
51674SOL    HW256856   4.014   5.873   0.071
51675SOL     OW56857  14.275   9.595   9.169
51675SOL    HW156858  14.313   9.669   9.121
51675SOL    HW256859  14.181   9.607   9.161
51676SOL     OW56860   6.214   7.478   7.017
51676SOL    HW156861   6.192   7.547   6.954
51676SOL    HW256862   6.309   7.484   7.026
51677SOL     OW56863   2.892   9.035   6.878
51677SOL    HW156864   2.902   8.955   6.928
51677SOL    HW256865   2.923   9.105   6.936
51678SOL     OW56866   9.946   7.320   7.084
51678SOL    HW156867   9.935   7.296   7.176
51678SOL    HW256868  10.033   7.289   7.061
51679SOL     OW56869   7.634   6.500  12.962
51679SOL    HW156870   7.590   6.472  13.042
51679SOL    HW256871   7.703   6.559  12.993
51680SOL     OW56872   4.346  10.660   0.170
51680SOL    HW156873   4.433  10.664   0.211
51680SOL    HW256874   4.296  10.729   0.214
51681SOL     OW56875  11.174   0.711   8.901
51681SOL    HW156876  11.085   0.696   8.935
51681SOL    HW256877  11.164   0.785   8.840
51682SOL     OW56878   8.776   8.237   4.717
51682SOL    HW156879   8.783   8.172   4.647
51682SOL    HW256880   8.697   8.287   4.696
51683SOL     OW56881  12.879   4.584   0.158
51683SOL    HW156882  12.950   4.555   0.101
51683SOL    HW256883  12.821   4.635   0.101
51684SOL     OW56884   0.774   4.013  11.172
51684SOL    HW156885   0.810   3.961  11.244
51684SOL    HW256886   0.822   3.983  11.094
51685SOL     OW56887   7.982  11.821   1.432
51685SOL    HW156888   8.023  11.851   1.351
51685SOL    HW256889   8.021  11.736   1.449
51686SOL     OW56890  10.112   7.801   4.207
51686SOL    HW156891  10.060   7.725   4.181
51686SOL    HW256892  10.056   7.876   4.188
51687SOL     OW56893   8.133   4.917   6.949
51687SOL    HW156894   8.226   4.930   6.928
51687SOL    HW256895   8.119   4.823   6.935
51688SOL     OW56896   0.857   3.430   4.116
51688SOL    HW156897   0.782   3.446   4.173
51688SOL    HW256898   0.927   3.402   4.176
51689SOL     OW56899   6.068  13.459  14.024
51689SOL    HW156900   6.028  13.545  14.035
51689SOL    HW256901   6.030  13.426  13.943
51690SOL     OW56902   2.144   4.237   8.908
51690SOL    HW156903   2.224   4.282   8.880
51690SOL    HW256904   2.172   4.147   8.927
51691SOL     OW56905   6.006   1.187   0.588
51691SOL    HW156906   5.998   1.119   0.655
51691SOL    HW256907   5.953   1.259   0.622
51692SOL     OW56908   1.873   3.199  11.674
51692SOL    HW156909   1.798   3.258  11.683
51692SOL    HW256910   1.877   3.153  11.757
51693SOL     OW56911  11.599   1.776   3.590
51693SOL    HW156912  11.676   1.800   3.538
51693SOL    HW256913  11.620   1.806   3.679
51694SOL     OW56914   3.740  11.576  10.079
51694SOL    HW156915   3.685  11.625  10.141
51694SOL    HW256916   3.741  11.630  10.000
51695SOL     OW56917  13.143  11.716   3.929
51695SOL    HW156918  13.049  11.727   3.940
51695SOL    HW256919  13.160  11.749   3.840
51696SOL     OW56920   0.046   5.586  14.741
51696SOL    HW156921  14.848   5.573  14.685
51696SOL    HW256922   0.010   5.616  14.825
51697SOL     OW56923  13.137  14.626   9.708
51697SOL    HW156924  13.079  14.646   9.634
51697SOL    HW256925  13.079  14.626   9.784
51698SOL     OW56926   5.025  13.180  10.425
51698SOL    HW156927   5.020  13.147  10.515
51698SOL    HW256928   5.073  13.112  10.378
51699SOL     OW56929   5.892   9.039   7.753
51699SOL    HW156930   5.877   8.957   7.800
51699SOL    HW256931   5.874   9.108   7.818
51700SOL     OW56932  14.262  12.067   6.438
51700SOL    HW156933  14.329  12.004   6.412
51700SOL    HW256934  14.188  12.012   6.466
51701SOL     OW56935  11.271   2.755   2.991
51701SOL    HW156936  11.203   2.722   2.933
51701SOL    HW256937  11.250   2.716   3.076
51702SOL     OW56938  12.267   4.924  13.246
51702SOL    HW156939  12.175   4.949  13.244
51702SOL    HW256940  12.315   5.006  13.232
51703SOL     OW56941  12.244  12.688   5.723
51703SOL    HW156942  12.183  12.635   5.775
51703SOL    HW256943  12.331  12.657   5.749
51704SOL     OW56944   8.800   2.347   9.605
51704SOL    HW156945   8.814   2.437   9.633
51704SOL    HW256946   8.873   2.298   9.643
51705SOL     OW56947   5.386   7.009  14.161
51705SOL    HW156948   5.297   7.046  14.163
51705SOL    HW256949   5.438   7.070  14.214
51706SOL     OW56950  14.630  11.809   7.340
51706SOL    HW156951  14.650  11.721   7.307
51706SOL    HW256952  14.553  11.796   7.396
51707SOL     OW56953  13.667   9.515   8.674
51707SOL    HW156954  13.596   9.471   8.720
51707SOL    HW256955  13.624   9.589   8.630
51708SOL     OW56956  11.919  13.698   1.128
51708SOL    HW156957  11.962  13.614   1.117
51708SOL    HW256958  11.976  13.747   1.187
51709SOL     OW56959  12.520  13.041   9.030
51709SOL    HW156960  12.533  13.020   8.937
51709SOL    HW256961  12.538  12.959   9.076
51710SOL     OW56962  10.147  10.390  10.630
51710SOL    HW156963  10.109  10.326  10.570
51710SOL    HW256964  10.239  10.365  10.637
51711SOL     OW56965   5.797   5.472   0.370
51711SOL    HW156966   5.755   5.392   0.402
51711SOL    HW256967   5.784   5.535   0.441
51712SOL     OW56968   9.085  11.134   2.887
51712SOL    HW156969   9.040  11.053   2.910
51712SOL    HW256970   9.088  11.134   2.792
51713SOL     OW56971   5.429   7.998   8.709
51713SOL    HW156972   5.367   7.984   8.780
51713SOL    HW256973   5.513   8.013   8.752
51714SOL     OW56974  13.359   9.084  12.934
51714SOL    HW156975  13.399   9.170  12.924
51714SOL    HW256976  13.433   9.023  12.936
51715SOL     OW56977  14.309   5.881  13.005
51715SOL    HW156978  14.239   5.894  12.942
51715SOL    HW256979  14.386   5.863  12.952
51716SOL     OW56980   6.586   9.558   7.197
51716SOL    HW156981   6.546   9.575   7.283
51716SOL    HW256982   6.661   9.617   7.193
51717SOL     OW56983   3.310  11.772   5.625
51717SOL    HW156984   3.367  11.724   5.685
51717SOL    HW256985   3.319  11.863   5.652
51718SOL     OW56986  13.577  14.587   3.642
51718SOL    HW156987  13.493  14.610   3.681
51718SOL    HW256988  13.638  14.653   3.675
51719SOL     OW56989  14.686  10.547   3.040
51719SOL    HW156990  14.675  10.455   3.016
51719SOL    HW256991  14.660  10.596   2.962
51720SOL     OW56992   8.088   0.195  13.788
51720SOL    HW156993   8.125   0.188  13.700
51720SOL    HW256994   8.147   0.255  13.834
51721SOL     OW56995   3.035   4.774   7.033
51721SOL    HW156996   3.021   4.685   7.065
51721SOL    HW256997   3.054   4.825   7.112
51722SOL     OW56998   9.747  11.568   3.418
51722SOL    HW156999   9.680  11.566   3.349
51722SOL    HW257000   9.703  11.535   3.496
51723SOL     OW57001   6.872  12.162  14.195
51723SOL    HW157002   6.829  12.245  14.217
51723SOL    HW257003   6.961  12.173  14.226
51724SOL     OW57004   2.382  11.780   3.503
51724SOL    HW157005   2.320  11.723   3.457
51724SOL    HW257006   2.336  11.807   3.582
51725SOL     OW57007  12.535   2.364   7.582
51725SOL    HW157008  12.624   2.364   7.548
51725SOL    HW257009  12.542   2.324   7.669
51726SOL     OW57010  14.251   1.238   8.087
51726SOL    HW157011  14.228   1.238   8.180
51726SOL    HW257012  14.254   1.330   8.063
51727SOL     OW57013   2.102   3.297   4.617
51727SOL    HW157014   2.032   3.359   4.598
51727SOL    HW257015   2.182   3.348   4.611
51728SOL     OW57016   3.892   5.244   8.420
51728SOL    HW157017   3.864   5.333   8.399
51728SOL    HW257018   3.862   5.192   8.346
51729SOL     OW57019   7.317  12.587  13.320
51729SOL    HW157020   7.290  12.670  13.357
51729SOL    HW257021   7.403  12.570  13.358
51730SOL     OW57022  12.924   9.232   9.957
51730SOL    HW157023  12.996   9.202   9.900
51730SOL    HW257024  12.961   9.305  10.006
51731SOL     OW57025  14.793   8.672   1.153
51731SOL    HW157026  14.870   8.678   1.097
51731SOL    HW257027  14.736   8.742   1.122
51732SOL     OW57028   3.658   2.389  13.827
51732SOL    HW157029   3.736   2.350  13.866
51732SOL    HW257030   3.618   2.438  13.899
51733SOL     OW57031   7.058   0.230   4.999
51733SOL    HW157032   7.115   0.277   4.938
51733SOL    HW257033   7.038   0.148   4.955
51734SOL     OW57034   1.711   2.245   3.893
51734SOL    HW157035   1.729   2.334   3.861
51734SOL    HW257036   1.628   2.252   3.940
51735SOL     OW57037  13.398   6.137   5.851
51735SOL    HW157038  13.488   6.161   5.826
51735SOL    HW257039  13.408   6.052   5.895
51736SOL     OW57040   8.871   4.049   6.505
51736SOL    HW157041   8.807   3.983   6.531
51736SOL    HW257042   8.955   4.014   6.534
51737SOL     OW57043   5.393   0.849   2.334
51737SOL    HW157044   5.371   0.811   2.249
51737SOL    HW257045   5.323   0.818   2.392
51738SOL     OW57046   5.153  14.407   5.341
51738SOL    HW157047   5.146  14.360   5.258
51738SOL    HW257048   5.246  14.407   5.362
51739SOL     OW57049   2.536  12.018  12.744
51739SOL    HW157050   2.481  11.958  12.795
51739SOL    HW257051   2.489  12.027  12.661
51740SOL     OW57052   8.965   3.401   1.147
51740SOL    HW157053   8.881   3.441   1.123
51740SOL    HW257054   8.993   3.356   1.067
51741SOL     OW57055   5.116  10.995   1.384
51741SOL    HW157056   5.113  10.904   1.414
51741SOL    HW257057   5.203  11.005   1.346
51742SOL     OW57058   7.115  13.119   6.412
51742SOL    HW157059   7.145  13.209   6.395
51742SOL    HW257060   7.046  13.129   6.478
51743SOL     OW57061   9.497   7.711  14.688
51743SOL    HW157062   9.466   7.662  14.613
51743SOL    HW257063   9.420   7.723  14.744
51744SOL     OW57064   4.748   6.554  13.710
51744SOL    HW157065   4.760   6.476  13.656
51744SOL    HW257066   4.837   6.582  13.731
51745SOL     OW57067  11.353   1.681   1.048
51745SOL    HW157068  11.294   1.664   0.975
51745SOL    HW257069  11.297   1.683   1.126
51746SOL     OW57070   7.390   0.322  11.404
51746SOL    HW157071   7.380   0.232  11.373
51746SOL    HW257072   7.472   0.351  11.366
51747SOL     OW57073   3.705  10.451  11.496
51747SOL    HW157074   3.705  10.458  11.400
51747SOL    HW257075   3.798  10.451  11.520
51748SOL     OW57076   9.383   0.971   4.366
51748SOL    HW157077   9.376   0.879   4.391
51748SOL    HW257078   9.446   0.972   4.294
51749SOL     OW57079   9.786   9.245  11.159
51749SOL    HW157080   9.787   9.295  11.077
51749SOL    HW257081   9.767   9.155  11.131
51750SOL     OW57082   9.623   9.348   4.972
51750SOL    HW157083   9.540   9.300   4.979
51750SOL    HW257084   9.598   9.440   4.971
51751SOL     OW57085   6.277  13.033   3.011
51751SOL    HW157086   6.283  13.049   3.105
51751SOL    HW257087   6.190  12.994   2.999
51752SOL     OW57088   3.292   9.390   9.689
51752SOL    HW157089   3.217   9.335   9.665
51752SOL    HW257090   3.357   9.328   9.721
51753SOL     OW57091   3.513   1.430   4.481
51753SOL    HW157092   3.468   1.491   4.539
51753SOL    HW257093   3.470   1.346   4.496
51754SOL     OW57094   7.046   4.595  12.500
51754SOL    HW157095   7.111   4.593  12.430
51754SOL    HW257096   7.088   4.549  12.572
51755SOL     OW57097   6.007   8.325   5.856
51755SOL    HW157098   6.033   8.417   5.847
51755SOL    HW257099   5.995   8.314   5.951
51756SOL     OW57100  10.317   4.682   2.841
51756SOL    HW157101  10.355   4.727   2.916
51756SOL    HW257102  10.223   4.677   2.860
51757SOL     OW57103  11.196   0.728   7.068
51757SOL    HW157104  11.213   0.638   7.097
51757SOL    HW257105  11.193   0.722   6.972
51758SOL     OW57106  12.888   3.804   0.850
51758SOL    HW157107  12.858   3.837   0.935
51758SOL    HW257108  12.894   3.882   0.795
51759SOL     OW57109  11.037   4.261   1.608
51759SOL    HW157110  10.982   4.191   1.572
51759SOL    HW257111  11.126   4.225   1.603
51760SOL     OW57112   9.324  12.819   8.366
51760SOL    HW157113   9.334  12.785   8.277
51760SOL    HW257114   9.229  12.822   8.379
51761SOL     OW57115   1.306   1.999   0.384
51761SOL    HW157116   1.272   1.977   0.298
51761SOL    HW257117   1.294   1.920   0.436
51762SOL     OW57118  12.828   3.062   3.767
51762SOL    HW157119  12.855   2.971   3.753
51762SOL    HW257120  12.751   3.056   3.823
51763SOL     OW57121   6.377   5.611   0.215
51763SOL    HW157122   6.404   5.602   0.124
51763SOL    HW257123   6.323   5.534   0.232
51764SOL     OW57124  11.756  11.021  13.086
51764SOL    HW157125  11.810  11.098  13.106
51764SOL    HW257126  11.715  11.043  13.002
51765SOL     OW57127   1.115  10.252   5.463
51765SOL    HW157128   1.196  10.304   5.460
51765SOL    HW257129   1.068  10.278   5.384
51766SOL     OW57130   8.817   2.064   8.468
51766SOL    HW157131   8.837   1.996   8.404
51766SOL    HW257132   8.726   2.049   8.492
51767SOL     OW57133   2.348  12.084  13.895
51767SOL    HW157134   2.393  12.157  13.938
51767SOL    HW257135   2.365  12.009  13.952
51768SOL     OW57136   3.346   4.726   0.509
51768SOL    HW157137   3.307   4.641   0.529
51768SOL    HW257138   3.395   4.748   0.589
51769SOL     OW57139   0.406  12.863  13.385
51769SOL    HW157140   0.390  12.859  13.290
51769SOL    HW257141   0.380  12.777  13.417
51770SOL     OW57142   3.705  14.490   0.409
51770SOL    HW157143   3.643  14.554   0.442
51770SOL    HW257144   3.672  14.406   0.441
51771SOL     OW57145   6.681   5.295   4.028
51771SOL    HW157146   6.774   5.284   4.047
51771SOL    HW257147   6.651   5.209   4.000
51772SOL     OW57148   8.772   9.958  13.588
51772SOL    HW157149   8.697  10.015  13.568
51772SOL    HW257150   8.795   9.979  13.678
51773SOL     OW57151   0.206   1.371   6.608
51773SOL    HW157152   0.253   1.424   6.671
51773SOL    HW257153   0.139   1.430   6.572
51774SOL     OW57154   1.588  12.296   1.059
51774SOL    HW157155   1.521  12.358   1.029
51774SOL    HW257156   1.574  12.217   1.007
51775SOL     OW57157  12.111  12.229   5.431
51775SOL    HW157158  12.078  12.151   5.387
51775SOL    HW257159  12.182  12.197   5.487
51776SOL     OW57160   8.314   3.430   9.201
51776SOL    HW157161   8.375   3.409   9.131
51776SOL    HW257162   8.368   3.474   9.267
51777SOL     OW57163   5.034  13.672   3.497
51777SOL    HW157164   5.029  13.577   3.502
51777SOL    HW257165   5.127  13.692   3.497
51778SOL     OW57166  14.267   5.662   1.843
51778SOL    HW157167  14.321   5.736   1.870
51778SOL    HW257168  14.330   5.593   1.821
51779SOL     OW57169   9.615   4.665   0.689
51779SOL    HW157170   9.672   4.723   0.739
51779SOL    HW257171   9.634   4.685   0.597
51780SOL     OW57172   5.637   4.986  10.093
51780SOL    HW157173   5.681   5.069  10.076
51780SOL    HW257174   5.544   5.006  10.084
51781SOL     OW57175   7.015   2.414   2.405
51781SOL    HW157176   6.996   2.444   2.494
51781SOL    HW257177   6.929   2.400   2.365
51782SOL     OW57178   7.171   8.050   1.702
51782SOL    HW157179   7.097   7.991   1.716
51782SOL    HW257180   7.203   8.070   1.789
51783SOL     OW57181   5.811   3.433  10.981
51783SOL    HW157182   5.789   3.467  11.068
51783SOL    HW257183   5.767   3.493  10.920
51784SOL     OW57184   4.529   8.089   4.648
51784SOL    HW157185   4.593   8.153   4.618
51784SOL    HW257186   4.557   8.006   4.609
51785SOL     OW57187   1.529   7.315   0.023
51785SOL    HW157188   1.516   7.277  14.815
51785SOL    HW257189   1.624   7.318   0.034
51786SOL     OW57190   4.292  14.321   4.561
51786SOL    HW157191   4.286  14.405   4.517
51786SOL    HW257192   4.281  14.256   4.491
51787SOL     OW57193   2.081   9.898  13.991
51787SOL    HW157194   2.116   9.915  14.079
51787SOL    HW257195   2.048   9.983  13.961
51788SOL     OW57196   7.355   9.467  12.475
51788SOL    HW157197   7.336   9.385  12.521
51788SOL    HW257198   7.390   9.439  12.391
51789SOL     OW57199  10.675  14.747  14.449
51789SOL    HW157200  10.608  14.678  14.454
51789SOL    HW257201  10.749  14.705  14.406
51790SOL     OW57202   1.283   4.629   9.855
51790SOL    HW157203   1.367   4.603   9.893
51790SOL    HW257204   1.304   4.648   9.763
51791SOL     OW57205   2.755  10.198  10.019
51791SOL    HW157206   2.729  10.156  10.102
51791SOL    HW257207   2.811  10.271  10.046
51792SOL     OW57208   0.380  13.588   6.020
51792SOL    HW157209   0.449  13.623   6.076
51792SOL    HW257210   0.354  13.661   5.964
51793SOL     OW57211   9.370   9.694   0.887
51793SOL    HW157212   9.405   9.658   0.969
51793SOL    HW257213   9.439   9.679   0.822
51794SOL     OW57214  11.055  13.477  12.206
51794SOL    HW157215  11.010  13.474  12.291
51794SOL    HW257216  11.139  13.519  12.225
51795SOL     OW57217   8.126   9.544   1.182
51795SOL    HW157218   8.101   9.525   1.092
51795SOL    HW257219   8.044   9.543   1.231
51796SOL     OW57220  12.012  13.966  14.021
51796SOL    HW157221  11.920  13.993  14.014
51796SOL    HW257222  12.026  13.952  14.114
51797SOL     OW57223   3.199   7.649   4.111
51797SOL    HW157224   3.246   7.617   4.187
51797SOL    HW257225   3.220   7.742   4.106
51798SOL     OW57226   7.650  14.877  11.194
51798SOL    HW157227   7.721  14.813  11.198
51798SOL    HW257228   7.579  14.832  11.149
51799SOL     OW57229   7.202   8.150  11.816
51799SOL    HW157230   7.143   8.076  11.825
51799SOL    HW257231   7.191   8.179  11.725
51800SOL     OW57232   2.635   8.841   7.825
51800SOL    HW157233   2.592   8.819   7.742
51800SOL    HW257234   2.712   8.892   7.799
51801SOL     OW57235  12.896  12.162   4.639
51801SOL    HW157236  12.829  12.132   4.578
51801SOL    HW257237  12.917  12.251   4.611
51802SOL     OW57238  13.412   4.974   5.516
51802SOL    HW157239  13.430   4.913   5.587
51802SOL    HW257240  13.329   5.015   5.540
51803SOL     OW57241   1.557   3.185  14.211
51803SOL    HW157242   1.582   3.112  14.267
51803SOL    HW257243   1.577   3.156  14.122
51804SOL     OW57244   3.633   5.007   8.065
51804SOL    HW157245   3.601   4.963   8.144
51804SOL    HW257246   3.615   4.945   7.994
51805SOL     OW57247   1.472   8.472   8.066
51805SOL    HW157248   1.553   8.449   8.020
51805SOL    HW257249   1.452   8.395   8.119
51806SOL     OW57250   5.088   6.972   7.924
51806SOL    HW157251   5.161   6.928   7.880
51806SOL    HW257252   5.079   7.055   7.878
51807SOL     OW57253   2.076   7.503   8.882
51807SOL    HW157254   2.016   7.502   8.808
51807SOL    HW257255   2.140   7.570   8.861
51808SOL     OW57256  12.034  10.542  14.339
51808SOL    HW157257  11.953  10.492  14.353
51808SOL    HW257258  12.034  10.607  14.409
51809SOL     OW57259   3.635   4.658   4.517
51809SOL    HW157260   3.588   4.649   4.434
51809SOL    HW257261   3.725   4.676   4.492
51810SOL     OW57262   5.836  11.145   4.567
51810SOL    HW157263   5.807  11.078   4.506
51810SOL    HW257264   5.802  11.117   4.652
51811SOL     OW57265   6.500   7.321  13.267
51811SOL    HW157266   6.593   7.343  13.264
51811SOL    HW257267   6.493   7.258  13.340
51812SOL     OW57268   2.866   8.392   1.246
51812SOL    HW157269   2.811   8.441   1.184
51812SOL    HW257270   2.813   8.315   1.269
51813SOL     OW57271   0.354   1.307   6.390
51813SOL    HW157272   0.312   1.308   6.476
51813SOL    HW257273   0.326   1.388   6.349
51814SOL     OW57274   0.506   9.320   9.358
51814SOL    HW157275   0.456   9.364   9.427
51814SOL    HW257276   0.528   9.235   9.395
51815SOL     OW57277   8.718  11.134  13.809
51815SOL    HW157278   8.740  11.158  13.900
51815SOL    HW257279   8.630  11.171  13.796
51816SOL     OW57280   8.549   8.811  14.110
51816SOL    HW157281   8.632   8.858  14.123
51816SOL    HW257282   8.484   8.880  14.097
51817SOL     OW57283   6.159   4.555  12.420
51817SOL    HW157284   6.145   4.534  12.512
51817SOL    HW257285   6.151   4.471  12.374
51818SOL     OW57286   9.144  14.092  14.294
51818SOL    HW157287   9.191  14.021  14.251
51818SOL    HW257288   9.192  14.108  14.375
51819SOL     OW57289  10.880   4.726   2.638
51819SOL    HW157290  10.814   4.744   2.571
51819SOL    HW257291  10.945   4.672   2.594
51820SOL     OW57292   4.281  12.380  12.891
51820SOL    HW157293   4.188  12.390  12.872
51820SOL    HW257294   4.297  12.443  12.962
51821SOL     OW57295   4.808   9.551   7.157
51821SOL    HW157296   4.870   9.624   7.166
51821SOL    HW257297   4.760   9.550   7.240
51822SOL     OW57298   7.494   9.160  10.125
51822SOL    HW157299   7.488   9.088  10.187
51822SOL    HW257300   7.585   9.158  10.095
51823SOL     OW57301   5.445  14.414  12.683
51823SOL    HW157302   5.385  14.471  12.634
51823SOL    HW257303   5.532  14.440  12.651
51824SOL     OW57304  10.257  10.041   6.022
51824SOL    HW157305  10.254  10.086   6.107
51824SOL    HW257306  10.255  10.112   5.957
51825SOL     OW57307  14.401   0.838  13.677
51825SOL    HW157308  14.433   0.834  13.767
51825SOL    HW257309  14.367   0.750  13.659
51826SOL     OW57310   9.967   1.242  12.335
51826SOL    HW157311  10.014   1.234  12.418
51826SOL    HW257312  10.031   1.214  12.269
51827SOL     OW57313  10.567  14.001  12.886
51827SOL    HW157314  10.483  14.021  12.845
51827SOL    HW257315  10.586  14.078  12.941
51828SOL     OW57316  12.058   4.678   2.045
51828SOL    HW157317  12.106   4.749   2.003
51828SOL    HW257318  11.994   4.722   2.101
51829SOL     OW57319   3.973   0.280   4.339
51829SOL    HW157320   3.974   0.194   4.381
51829SOL    HW257321   3.913   0.270   4.265
51830SOL     OW57322   1.107   5.691  11.391
51830SOL    HW157323   1.126   5.785  11.384
51830SOL    HW257324   1.176   5.649  11.339
51831SOL     OW57325  10.081   1.547   0.516
51831SOL    HW157326  10.033   1.581   0.441
51831SOL    HW257327  10.126   1.469   0.482
51832SOL     OW57328   5.545  13.034  11.299
51832SOL    HW157329   5.469  13.012  11.353
51832SOL    HW257330   5.543  13.130  11.293
51833SOL     OW57331  12.711  12.454  13.518
51833SOL    HW157332  12.658  12.526  13.484
51833SOL    HW257333  12.662  12.375  13.497
51834SOL     OW57334   8.579   6.506   9.668
51834SOL    HW157335   8.510   6.440   9.680
51834SOL    HW257336   8.653   6.457   9.634
51835SOL     OW57337  11.995  14.869   3.117
51835SOL    HW157338  11.997  14.843   3.209
51835SOL    HW257339  11.915  14.830   3.082
51836SOL     OW57340   4.725   8.665  10.799
51836SOL    HW157341   4.650   8.621  10.841
51836SOL    HW257342   4.797   8.653  10.861
51837SOL     OW57343   8.514  14.131   3.796
51837SOL    HW157344   8.570  14.190   3.846
51837SOL    HW257345   8.569  14.102   3.723
51838SOL     OW57346  14.209  13.616   7.522
51838SOL    HW157347  14.218  13.566   7.440
51838SOL    HW257348  14.293  13.604   7.566
51839SOL     OW57349   7.264   0.435   0.054
51839SOL    HW157350   7.353   0.433   0.089
51839SOL    HW257351   7.252   0.349   0.014
51840SOL     OW57352  12.296  14.033  11.186
51840SOL    HW157353  12.296  14.067  11.097
51840SOL    HW257354  12.285  14.110  11.241
51841SOL     OW57355   4.383   4.370   1.935
51841SOL    HW157356   4.437   4.424   1.878
51841SOL    HW257357   4.369   4.290   1.886
51842SOL     OW57358  12.247   9.872   2.897
51842SOL    HW157359  12.319   9.815   2.925
51842SOL    HW257360  12.171   9.841   2.947
51843SOL     OW57361   7.070   6.672  14.055
51843SOL    HW157362   7.085   6.745  13.994
51843SOL    HW257363   6.975   6.665  14.060
51844SOL     OW57364  14.189   9.233  12.604
51844SOL    HW157365  14.193   9.278  12.520
51844SOL    HW257366  14.262   9.269  12.654
51845SOL     OW57367   2.966   9.188  14.548
51845SOL    HW157368   2.970   9.256  14.481
51845SOL    HW257369   3.020   9.117  14.514
51846SOL     OW57370   0.368  14.322   5.360
51846SOL    HW157371   0.303  14.383   5.327
51846SOL    HW257372   0.439  14.325   5.296
51847SOL     OW57373   0.763   8.283   5.329
51847SOL    HW157374   0.851   8.271   5.293
51847SOL    HW257375   0.706   8.286   5.252
51848SOL     OW57376   3.750   3.628   2.340
51848SOL    HW157377   3.728   3.542   2.375
51848SOL    HW257378   3.713   3.690   2.403
51849SOL     OW57379  14.268   1.489   5.912
51849SOL    HW157380  14.222   1.572   5.893
51849SOL    HW257381  14.229   1.426   5.851
51850SOL     OW57382   0.316  14.254  12.381
51850SOL    HW157383   0.374  14.329  12.368
51850SOL    HW257384   0.375  14.178  12.381
51851SOL     OW57385   8.857   6.389   0.641
51851SOL    HW157386   8.816   6.455   0.697
51851SOL    HW257387   8.947   6.420   0.629
51852SOL     OW57388   3.954   8.406   4.710
51852SOL    HW157389   3.859   8.408   4.698
51852SOL    HW257390   3.986   8.475   4.652
51853SOL     OW57391  10.622   1.009   1.937
51853SOL    HW157392  10.583   1.081   1.886
51853SOL    HW257393  10.548   0.954   1.961
51854SOL     OW57394   2.547   7.641  13.540
51854SOL    HW157395   2.512   7.638  13.629
51854SOL    HW257396   2.631   7.687  13.549
51855SOL     OW57397  13.269  11.822   7.872
51855SOL    HW157398  13.248  11.729   7.859
51855SOL    HW257399  13.224  11.867   7.801
51856SOL     OW57400   5.815   4.224   9.255
51856SOL    HW157401   5.776   4.254   9.337
51856SOL    HW257402   5.877   4.292   9.232
51857SOL     OW57403   2.018  12.141  11.122
51857SOL    HW157404   2.094  12.118  11.177
51857SOL    HW257405   2.000  12.232  11.144
51858SOL     OW57406   8.176   7.401   4.614
51858SOL    HW157407   8.109   7.422   4.549
51858SOL    HW257408   8.160   7.309   4.636
51859SOL     OW57409   5.245  12.014  14.812
51859SOL    HW157410   5.300  11.953  14.861
51859SOL    HW257411   5.282  12.015  14.724
51860SOL     OW57412   8.459   6.810   7.977
51860SOL    HW157413   8.509   6.730   7.993
51860SOL    HW257414   8.379   6.780   7.935
51861SOL     OW57415  12.238   9.385   8.392
51861SOL    HW157416  12.246   9.314   8.456
51861SOL    HW257417  12.176   9.352   8.327
51862SOL     OW57418   3.009   9.603  13.193
51862SOL    HW157419   3.025   9.555  13.274
51862SOL    HW257420   2.930   9.563  13.156
51863SOL     OW57421  11.248  10.173  11.886
51863SOL    HW157422  11.231  10.171  11.792
51863SOL    HW257423  11.198  10.248  11.917
51864SOL     OW57424  10.212   1.959  14.171
51864SOL    HW157425  10.259   1.875  14.170
51864SOL    HW257426  10.221   1.991  14.261
51865SOL     OW57427  14.838  13.812  14.379
51865SOL    HW157428   0.024  13.880  14.393
51865SOL    HW257429  14.872  13.736  14.427
51866SOL     OW57430   8.795   7.029   7.001
51866SOL    HW157431   8.750   6.974   7.065
51866SOL    HW257432   8.753   7.009   6.918
51867SOL     OW57433   9.595  11.795  10.237
51867SOL    HW157434   9.562  11.706  10.220
51867SOL    HW257435   9.568  11.814  10.327
51868SOL     OW57436   3.372   1.549   2.165
51868SOL    HW157437   3.298   1.567   2.107
51868SOL    HW257438   3.414   1.472   2.126
51869SOL     OW57439   9.653   6.791  11.559
51869SOL    HW157440   9.570   6.813  11.602
51869SOL    HW257441   9.632   6.791  11.465
51870SOL     OW57442   8.820   5.791  13.649
51870SOL    HW157443   8.908   5.817  13.675
51870SOL    HW257444   8.779   5.871  13.618
51871SOL     OW57445   8.223   9.816   2.147
51871SOL    HW157446   8.203   9.909   2.159
51871SOL    HW257447   8.145   9.780   2.103
51872SOL     OW57448   8.344  12.870  12.641
51872SOL    HW157449   8.323  12.807  12.572
51872SOL    HW257450   8.298  12.838  12.718
51873SOL     OW57451   9.686   6.475   7.747
51873SOL    HW157452   9.775   6.484   7.782
51873SOL    HW257453   9.634   6.537   7.798
51874SOL     OW57454   2.114  11.723   9.485
51874SOL    HW157455   2.092  11.745   9.575
51874SOL    HW257456   2.076  11.637   9.470
51875SOL     OW57457   5.457  12.942   2.831
51875SOL    HW157458   5.479  12.957   2.739
51875SOL    HW257459   5.493  13.017   2.877
51876SOL     OW57460  10.354   1.634  12.737
51876SOL    HW157461  10.331   1.549  12.774
51876SOL    HW257462  10.288   1.694  12.773
51877SOL     OW57463   3.955   8.937  12.703
51877SOL    HW157464   3.975   8.992  12.779
51877SOL    HW257465   3.925   8.854  12.740
51878SOL     OW57466   5.461   2.481  13.572
51878SOL    HW157467   5.508   2.480  13.488
51878SOL    HW257468   5.527   2.508  13.636
51879SOL     OW57469  11.367   6.791   5.261
51879SOL    HW157470  11.274   6.772   5.252
51879SOL    HW257471  11.370   6.880   5.295
51880SOL     OW57472   9.625  12.047   9.279
51880SOL    HW157473   9.531  12.030   9.279
51880SOL    HW257474   9.663  11.972   9.233
51881SOL     OW57475  14.726   4.373   2.422
51881SOL    HW157476  14.686   4.323   2.493
51881SOL    HW257477  14.667   4.447   2.408
51882SOL     OW57478   1.354   8.215   7.131
51882SOL    HW157479   1.348   8.120   7.118
51882SOL    HW257480   1.435   8.240   7.087
51883SOL     OW57481   0.913   4.310   6.411
51883SOL    HW157482   0.942   4.344   6.496
51883SOL    HW257483   0.876   4.386   6.367
51884SOL     OW57484  12.373   8.524   9.608
51884SOL    HW157485  12.337   8.542   9.521
51884SOL    HW257486  12.297   8.511   9.663
51885SOL     OW57487   0.495   1.887   2.261
51885SOL    HW157488   0.432   1.952   2.290
51885SOL    HW257489   0.449   1.803   2.269
51886SOL     OW57490   8.079   9.006   3.620
51886SOL    HW157491   8.049   8.922   3.655
51886SOL    HW257492   8.171   8.992   3.600
51887SOL     OW57493   9.845   2.312  12.295
51887SOL    HW157494   9.912   2.251  12.326
51887SOL    HW257495   9.864   2.323  12.202
51888SOL     OW57496  12.139  11.932  13.054
51888SOL    HW157497  12.141  11.857  13.113
51888SOL    HW257498  12.120  12.007  13.110
51889SOL     OW57499  13.280   0.178   0.339
51889SOL    HW157500  13.308   0.269   0.325
51889SOL    HW257501  13.191   0.175   0.302
51890SOL     OW57502   9.567   6.305   7.570
51890SOL    HW157503   9.620   6.370   7.617
51890SOL    HW257504   9.540   6.350   7.490
51891SOL     OW57505   7.787   4.040   5.363
51891SOL    HW157506   7.853   4.011   5.427
51891SOL    HW257507   7.799   4.135   5.358
51892SOL     OW57508   3.049   1.786   5.878
51892SOL    HW157509   3.062   1.782   5.973
51892SOL    HW257510   3.071   1.698   5.847
51893SOL     OW57511  11.385   6.710  14.639
51893SOL    HW157512  11.380   6.665  14.723
51893SOL    HW257513  11.350   6.647  14.576
51894SOL     OW57514  10.142   5.493   0.412
51894SOL    HW157515  10.117   5.585   0.401
51894SOL    HW257516  10.158   5.483   0.506
51895SOL     OW57517   9.243   7.445  10.021
51895SOL    HW157518   9.178   7.445  10.092
51895SOL    HW257519   9.317   7.493  10.058
51896SOL     OW57520   9.664   3.344   6.926
51896SOL    HW157521   9.707   3.288   6.862
51896SOL    HW257522   9.731   3.407   6.952
51897SOL     OW57523  13.516   7.713   2.066
51897SOL    HW157524  13.446   7.675   2.117
51897SOL    HW257525  13.515   7.664   1.983
51898SOL     OW57526   8.478   0.686   3.600
51898SOL    HW157527   8.505   0.714   3.512
51898SOL    HW257528   8.495   0.592   3.601
51899SOL     OW57529  13.312  10.672  11.505
51899SOL    HW157530  13.403  10.697  11.490
51899SOL    HW257531  13.304  10.583  11.469
51900SOL     OW57532   5.531  13.629  10.932
51900SOL    HW157533   5.489  13.561  10.880
51900SOL    HW257534   5.476  13.707  10.918
51901SOL     OW57535   0.073   0.020   0.327
51901SOL    HW157536   0.020   0.078   0.274
51901SOL    HW257537   0.113   0.077   0.393
51902SOL     OW57538  13.471   6.196   1.327
51902SOL    HW157539  13.547   6.189   1.269
51902SOL    HW257540  13.418   6.119   1.306
51903SOL     OW57541  14.535  12.444   8.497
51903SOL    HW157542  14.495  12.531   8.490
51903SOL    HW257543  14.519  12.404   8.412
51904SOL     OW57544   8.350   1.305   5.701
51904SOL    HW157545   8.407   1.259   5.763
51904SOL    HW257546   8.393   1.293   5.616
51905SOL     OW57547   2.822   1.539   8.539
51905SOL    HW157548   2.917   1.547   8.526
51905SOL    HW257549   2.805   1.586   8.620
51906SOL     OW57550   5.009   2.972   5.742
51906SOL    HW157551   4.964   2.996   5.823
51906SOL    HW257552   5.100   2.995   5.758
51907SOL     OW57553   4.571   9.820  12.646
51907SOL    HW157554   4.496   9.809  12.704
51907SOL    HW257555   4.536   9.869  12.571
51908SOL     OW57556   1.978  11.874   8.746
51908SOL    HW157557   2.064  11.887   8.787
51908SOL    HW257558   1.916  11.905   8.811
51909SOL     OW57559  10.956   2.406   0.959
51909SOL    HW157560  10.905   2.345   0.907
51909SOL    HW257561  11.047   2.390   0.933
51910SOL     OW57562   3.071   9.377   4.078
51910SOL    HW157563   3.003   9.329   4.125
51910SOL    HW257564   3.057   9.468   4.104
51911SOL     OW57565   4.003  12.788   1.013
51911SOL    HW157566   4.069  12.730   0.976
51911SOL    HW257567   4.051  12.867   1.037
51912SOL     OW57568   1.878   1.758   5.809
51912SOL    HW157569   1.811   1.695   5.834
51912SOL    HW257570   1.831   1.826   5.760
51913SOL     OW57571   5.061   8.836   5.336
51913SOL    HW157572   5.065   8.930   5.319
51913SOL    HW257573   5.105   8.825   5.421
51914SOL     OW57574   3.518   2.216  13.411
51914SOL    HW157575   3.599   2.214  13.461
51914SOL    HW257576   3.451   2.246  13.473
51915SOL     OW57577   4.328   6.614   5.211
51915SOL    HW157578   4.260   6.565   5.167
51915SOL    HW257579   4.383   6.649   5.141
51916SOL     OW57580   8.166  12.768  11.144
51916SOL    HW157581   8.118  12.723  11.074
51916SOL    HW257582   8.253  12.783  11.107
51917SOL     OW57583  11.433  10.660  11.621
51917SOL    HW157584  11.405  10.749  11.640
51917SOL    HW257585  11.462  10.663  11.530
51918SOL     OW57586   9.829   4.983   4.137
51918SOL    HW157587   9.816   4.948   4.049
51918SOL    HW257588   9.749   5.032   4.156
51919SOL     OW57589   7.026  12.114   9.056
51919SOL    HW157590   7.010  12.108   8.962
51919SOL    HW257591   7.114  12.151   9.063
51920SOL     OW57592   4.372  10.464  12.051
51920SOL    HW157593   4.366  10.557  12.072
51920SOL    HW257594   4.423  10.427  12.123
51921SOL     OW57595   1.050   3.119   6.817
51921SOL    HW157596   1.109   3.193   6.832
51921SOL    HW257597   0.964   3.151   6.844
51922SOL     OW57598  12.743  13.350  14.300
51922SOL    HW157599  12.733  13.259  14.272
51922SOL    HW257600  12.837  13.367  14.294
51923SOL     OW57601  12.404   0.522  11.312
51923SOL    HW157602  12.380   0.566  11.394
51923SOL    HW257603  12.428   0.433  11.338
51924SOL     OW57604  12.269   7.061  12.953
51924SOL    HW157605  12.222   7.119  12.893
51924SOL    HW257606  12.305   7.120  13.020
51925SOL     OW57607   8.337   5.883   6.766
51925SOL    HW157608   8.420   5.895   6.812
51925SOL    HW257609   8.287   5.822   6.821
51926SOL     OW57610   9.160   9.968  13.372
51926SOL    HW157611   9.202   9.994  13.290
51926SOL    HW257612   9.074   9.936  13.346
51927SOL     OW57613   0.839  11.545   9.039
51927SOL    HW157614   0.753  11.562   9.079
51927SOL    HW257615   0.874  11.471   9.089
51928SOL     OW57616   9.033   2.543   4.006
51928SOL    HW157617   9.063   2.632   3.993
51928SOL    HW257618   8.993   2.544   4.094
51929SOL     OW57619   0.635   0.190   7.107
51929SOL    HW157620   0.719   0.232   7.127
51929SOL    HW257621   0.655   0.124   7.042
51930SOL     OW57622   3.709   8.218   3.977
51930SOL    HW157623   3.698   8.140   3.922
51930SOL    HW257624   3.733   8.287   3.915
51931SOL     OW57625  12.846   9.440   1.158
51931SOL    HW157626  12.820   9.355   1.192
51931SOL    HW257627  12.905   9.475   1.225
51932SOL     OW57628  13.740   8.581   5.865
51932SOL    HW157629  13.760   8.495   5.829
51932SOL    HW257630  13.804   8.593   5.935
51933SOL     OW57631  10.804  10.077  10.675
51933SOL    HW157632  10.856   9.999  10.656
51933SOL    HW257633  10.848  10.116  10.751
51934SOL     OW57634   3.049  13.017   1.352
51934SOL    HW157635   3.085  12.928   1.346
51934SOL    HW257636   2.955  13.004   1.363
51935SOL     OW57637   6.242   7.610  11.488
51935SOL    HW157638   6.197   7.642  11.567
51935SOL    HW257639   6.216   7.519  11.481
51936SOL     OW57640  11.355  14.337   8.307
51936SOL    HW157641  11.425  14.398   8.285
51936SOL    HW257642  11.394  14.278   8.371
51937SOL     OW57643   4.067   8.545   1.579
51937SOL    HW157644   4.002   8.498   1.527
51937SOL    HW257645   4.142   8.555   1.521
51938SOL     OW57646   2.088   3.212  10.078
51938SOL    HW157647   2.097   3.206  10.173
51938SOL    HW257648   1.994   3.217  10.063
51939SOL     OW57649   7.999  13.543  10.967
51939SOL    HW157650   7.941  13.580  11.034
51939SOL    HW257651   7.943  13.483  10.918
51940SOL     OW57652   3.295   6.695   7.078
51940SOL    HW157653   3.377   6.678   7.032
51940SOL    HW257654   3.286   6.791   7.075
51941SOL     OW57655  12.302   8.350   5.762
51941SOL    HW157656  12.372   8.407   5.795
51941SOL    HW257657  12.260   8.316   5.841
51942SOL     OW57658   0.672   8.028   2.296
51942SOL    HW157659   0.659   8.000   2.205
51942SOL    HW257660   0.752   8.081   2.294
51943SOL     OW57661   8.697   1.536   7.109
51943SOL    HW157662   8.653   1.453   7.089
51943SOL    HW257663   8.782   1.528   7.066
51944SOL     OW57664   0.238   0.956   7.369
51944SOL    HW157665   0.319   0.961   7.318
51944SOL    HW257666   0.192   1.038   7.350
51945SOL     OW57667  12.968  14.537   6.225
51945SOL    HW157668  13.036  14.525   6.291
51945SOL    HW257669  13.016  14.545   6.142
51946SOL     OW57670   2.873   2.496   2.132
51946SOL    HW157671   2.838   2.458   2.052
51946SOL    HW257672   2.953   2.540   2.105
51947SOL     OW57673   4.632  12.549  14.548
51947SOL    HW157674   4.610  12.475  14.492
51947SOL    HW257675   4.720  12.575  14.521
51948SOL     OW57676   4.440   5.702   0.975
51948SOL    HW157677   4.528   5.739   0.973
51948SOL    HW257678   4.389   5.765   1.026
51949SOL     OW57679  13.481  10.570   8.379
51949SOL    HW157680  13.439  10.652   8.352
51949SOL    HW257681  13.430  10.502   8.335
51950SOL     OW57682  12.721   6.498   2.222
51950SOL    HW157683  12.801   6.514   2.273
51950SOL    HW257684  12.667   6.575   2.239
51951SOL     OW57685  14.432   2.128   7.407
51951SOL    HW157686  14.513   2.120   7.458
51951SOL    HW257687  14.424   2.043   7.363
51952SOL     OW57688  12.127   4.333   6.835
51952SOL    HW157689  12.032   4.323   6.822
51952SOL    HW257690  12.138   4.425   6.859
51953SOL     OW57691   4.676  11.894  10.707
51953SOL    HW157692   4.726  11.965  10.668
51953SOL    HW257693   4.712  11.886  10.796
51954SOL     OW57694  10.705   6.513   9.527
51954SOL    HW157695  10.758   6.512   9.447
51954SOL    HW257696  10.627   6.562   9.504
51955SOL     OW57697   5.836   6.199  11.060
51955SOL    HW157698   5.793   6.118  11.033
51955SOL    HW257699   5.828   6.200  11.155
51956SOL     OW57700   0.121   1.289   0.423
51956SOL    HW157701   0.070   1.242   0.357
51956SOL    HW257702   0.211   1.286   0.391
51957SOL     OW57703   2.918   2.736   3.706
51957SOL    HW157704   2.851   2.693   3.653
51957SOL    HW257705   2.988   2.671   3.713
51958SOL     OW57706   1.412   7.360   5.788
51958SOL    HW157707   1.481   7.374   5.723
51958SOL    HW257708   1.454   7.311   5.858
51959SOL     OW57709  11.100  11.245  13.036
51959SOL    HW157710  11.059  11.328  13.012
51959SOL    HW257711  11.167  11.270  13.100
51960SOL     OW57712   7.608   0.164   3.389
51960SOL    HW157713   7.645   0.155   3.477
51960SOL    HW257714   7.535   0.224   3.400
51961SOL     OW57715  10.218   4.396   7.204
51961SOL    HW157716  10.259   4.482   7.192
51961SOL    HW257717  10.259   4.340   7.138
51962SOL     OW57718   4.163   6.552   0.037
51962SOL    HW157719   4.121   6.516   0.116
51962SOL    HW257720   4.231   6.489   0.016
51963SOL     OW57721  13.172   4.569   1.258
51963SOL    HW157722  13.082   4.590   1.283
51963SOL    HW257723  13.198   4.500   1.319
51964SOL     OW57724   1.702  10.850   8.026
51964SOL    HW157725   1.611  10.833   8.003
51964SOL    HW257726   1.713  10.812   8.113
51965SOL     OW57727   3.739   9.228   2.122
51965SOL    HW157728   3.778   9.165   2.062
51965SOL    HW257729   3.703   9.175   2.193
51966SOL     OW57730   7.627   8.685  14.482
51966SOL    HW157731   7.662   8.719  14.564
51966SOL    HW257732   7.671   8.736  14.414
51967SOL     OW57733  10.916  10.264  13.859
51967SOL    HW157734  10.974  10.318  13.805
51967SOL    HW257735  10.971  10.189  13.884
51968SOL     OW57736   7.876   5.692  11.035
51968SOL    HW157737   7.797   5.656  10.994
51968SOL    HW257738   7.918   5.743  10.966
51969SOL     OW57739   0.912   6.311   3.556
51969SOL    HW157740   0.852   6.258   3.504
51969SOL    HW257741   0.887   6.294   3.647
51970SOL     OW57742  12.932   8.965   8.524
51970SOL    HW157743  13.020   8.998   8.506
51970SOL    HW257744  12.911   8.998   8.611
51971SOL     OW57745   4.729   6.847  11.617
51971SOL    HW157746   4.667   6.913  11.585
51971SOL    HW257747   4.814   6.881  11.590
51972SOL     OW57748   0.223  10.838   0.100
51972SOL    HW157749   0.284  10.811   0.032
51972SOL    HW257750   0.272  10.828   0.182
51973SOL     OW57751   2.998   9.137   4.838
51973SOL    HW157752   2.964   9.103   4.921
51973SOL    HW257753   2.923   9.180   4.797
51974SOL     OW57754   7.136   5.291   6.305
51974SOL    HW157755   7.230   5.278   6.305
51974SOL    HW257756   7.114   5.303   6.212
51975SOL     OW57757  11.307   1.440  10.759
51975SOL    HW157758  11.368   1.416  10.689
51975SOL    HW257759  11.362   1.475  10.829
51976SOL     OW57760   4.058   1.586  11.011
51976SOL    HW157761   4.121   1.648  10.973
51976SOL    HW257762   4.040   1.622  11.098
51977SOL     OW57763   3.161   6.176  10.421
51977SOL    HW157764   3.182   6.085  10.444
51977SOL    HW257765   3.235   6.227  10.455
51978SOL     OW57766   7.214   9.012   8.112
51978SOL    HW157767   7.173   9.041   8.030
51978SOL    HW257768   7.172   8.928   8.131
51979SOL     OW57769  14.202  11.176  13.559
51979SOL    HW157770  14.175  11.086  13.579
51979SOL    HW257771  14.200  11.180  13.463
51980SOL     OW57772  12.860   7.500  12.482
51980SOL    HW157773  12.857   7.438  12.409
51980SOL    HW257774  12.842   7.447  12.560
51981SOL     OW57775   5.750   8.785  11.766
51981SOL    HW157776   5.769   8.855  11.703
51981SOL    HW257777   5.817   8.795  11.834
51982SOL     OW57778   5.510   0.096  12.704
51982SOL    HW157779   5.506   0.004  12.730
51982SOL    HW257780   5.476   0.143  12.780
51983SOL     OW57781  10.662   9.574  11.250
51983SOL    HW157782  10.568   9.569  11.230
51983SOL    HW257783  10.690   9.655  11.209
51984SOL     OW57784   1.116   1.205   5.994
51984SOL    HW157785   1.123   1.119   5.952
51984SOL    HW257786   1.063   1.189   6.072
51985SOL     OW57787   4.140  13.493  11.518
51985SOL    HW157788   4.213  13.432  11.516
51985SOL    HW257789   4.170  13.569  11.468
51986SOL     OW57790   7.070   1.231   7.462
51986SOL    HW157791   7.049   1.276   7.543
51986SOL    HW257792   7.149   1.274   7.430
51987SOL     OW57793   9.085   2.114   8.981
51987SOL    HW157794   9.070   2.058   9.057
51987SOL    HW257795   9.174   2.091   8.952
51988SOL     OW57796   7.682   1.980  10.989
51988SOL    HW157797   7.603   1.930  11.009
51988SOL    HW257798   7.745   1.952  11.055
51989SOL     OW57799  12.807  10.731   4.941
51989SOL    HW157800  12.877  10.674   4.973
51989SOL    HW257801  12.738  10.670   4.914
51990SOL     OW57802   7.877  10.999  10.542
51990SOL    HW157803   7.849  11.003  10.634
51990SOL    HW257804   7.955  10.943  10.543
51991SOL     OW57805   4.870   6.031   6.615
51991SOL    HW157806   4.808   6.031   6.687
51991SOL    HW257807   4.942   5.975   6.646
51992SOL     OW57808   6.462   3.456   0.594
51992SOL    HW157809   6.508   3.471   0.511
51992SOL    HW257810   6.483   3.366   0.617
51993SOL     OW57811   4.001   0.359   7.845
51993SOL    HW157812   3.935   0.359   7.776
51993SOL    HW257813   3.954   0.387   7.923
51994SOL     OW57814   8.167   4.986   5.967
51994SOL    HW157815   8.115   5.038   5.905
51994SOL    HW257816   8.254   5.026   5.964
51995SOL     OW57817   4.222   8.336  10.932
51995SOL    HW157818   4.287   8.362  10.867
51995SOL    HW257819   4.274   8.303  11.006
51996SOL     OW57820   9.320  12.272   0.042
51996SOL    HW157821   9.287  12.307   0.124
51996SOL    HW257822   9.298  12.338  14.855
51997SOL     OW57823   0.937  14.788   3.651
51997SOL    HW157824   1.017  14.736   3.648
51997SOL    HW257825   0.883  14.753   3.580
51998SOL     OW57826   0.020  13.938   5.203
51998SOL    HW157827   0.017  13.851   5.242
51998SOL    HW257828   0.033  13.923   5.110
51999SOL     OW57829   6.973  13.270  14.605
51999SOL    HW157830   7.051  13.323  14.623
51999SOL    HW257831   7.008  13.183  14.585
52000SOL     OW57832   8.770  10.260   7.073
52000SOL    HW157833   8.855  10.275   7.115
52000SOL    HW257834   8.714  10.329   7.107
52001SOL     OW57835   3.880   0.472   6.902
52001SOL    HW157836   3.935   0.445   6.830
52001SOL    HW257837   3.900   0.565   6.914
52002SOL     OW57838  10.216  14.639  12.743
52002SOL    HW157839  10.152  14.708  12.758
52002SOL    HW257840  10.196  14.605  12.656
52003SOL     OW57841   7.433   3.772  13.639
52003SOL    HW157842   7.404   3.707  13.703
52003SOL    HW257843   7.361   3.835  13.635
52004SOL     OW57844   0.031   9.459   1.260
52004SOL    HW157845  14.843   9.422   1.316
52004SOL    HW257846  14.869   9.466   1.174
52005SOL     OW57847  12.234  12.200   1.179
52005SOL    HW157848  12.169  12.159   1.235
52005SOL    HW257849  12.227  12.294   1.199
52006SOL     OW57850   5.659   9.730   7.092
52006SOL    HW157851   5.721   9.657   7.095
52006SOL    HW257852   5.666   9.764   7.002
52007SOL     OW57853  14.508   4.195   1.841
52007SOL    HW157854  14.493   4.257   1.912
52007SOL    HW257855  14.599   4.166   1.852
52008SOL     OW57856   8.132  10.352   7.050
52008SOL    HW157857   8.199  10.341   6.982
52008SOL    HW257858   8.180  10.353   7.132
52009SOL     OW57859   0.533   5.231   3.409
52009SOL    HW157860   0.507   5.311   3.454
52009SOL    HW257861   0.456   5.204   3.360
52010SOL     OW57862   5.012  11.278  14.396
52010SOL    HW157863   5.080  11.229  14.349
52010SOL    HW257864   4.935  11.274  14.338
52011SOL     OW57865   8.023   3.874  10.714
52011SOL    HW157866   7.966   3.950  10.722
52011SOL    HW257867   8.111   3.911  10.705
52012SOL     OW57868   1.953   2.620   9.030
52012SOL    HW157869   2.016   2.609   9.100
52012SOL    HW257870   1.878   2.663   9.072
52013SOL     OW57871   8.723   3.201   9.372
52013SOL    HW157872   8.811   3.236   9.357
52013SOL    HW257873   8.710   3.137   9.302
52014SOL     OW57874   6.785   8.516   5.099
52014SOL    HW157875   6.862   8.509   5.156
52014SOL    HW257876   6.821   8.538   5.013
52015SOL     OW57877  13.030   9.173  10.352
52015SOL    HW157878  13.122   9.186  10.326
52015SOL    HW257879  12.994   9.262  10.358
52016SOL     OW57880   4.978   6.142   3.242
52016SOL    HW157881   4.961   6.234   3.265
52016SOL    HW257882   5.058   6.145   3.190
52017SOL     OW57883  14.185   3.966  14.225
52017SOL    HW157884  14.266   4.003  14.190
52017SOL    HW257885  14.137   4.043  14.258
52018SOL     OW57886   1.449   0.861   4.028
52018SOL    HW157887   1.523   0.811   3.994
52018SOL    HW257888   1.488   0.930   4.080
52019SOL     OW57889   9.439   6.224   0.720
52019SOL    HW157890   9.366   6.173   0.755
52019SOL    HW257891   9.447   6.195   0.629
52020SOL     OW57892  13.516  12.515  14.845
52020SOL    HW157893  13.423  12.523  14.867
52020SOL    HW257894  13.559  12.498   0.050
52021SOL     OW57895  13.022   8.585   6.266
52021SOL    HW157896  13.084   8.648   6.229
52021SOL    HW257897  12.956   8.639   6.309
52022SOL     OW57898   2.343   0.662   2.266
52022SOL    HW157899   2.426   0.705   2.248
52022SOL    HW257900   2.367   0.578   2.306
52023SOL     OW57901  12.059   4.078  10.766
52023SOL    HW157902  11.974   4.119  10.776
52023SOL    HW257903  12.054   3.998  10.818
52024SOL     OW57904   8.987  11.000  13.878
52024SOL    HW157905   8.962  11.019  13.788
52024SOL    HW257906   8.998  10.905  13.880
52025SOL     OW57907   6.311  13.218   9.320
52025SOL    HW157908   6.301  13.149   9.254
52025SOL    HW257909   6.392  13.195   9.366
52026SOL     OW57910  14.747  11.988   1.093
52026SOL    HW157911  14.760  12.077   1.125
52026SOL    HW257912  14.717  11.999   1.003
52027SOL     OW57913   0.570   3.414   7.749
52027SOL    HW157914   0.567   3.476   7.676
52027SOL    HW257915   0.547   3.330   7.709
52028SOL     OW57916  11.679   6.714   7.834
52028SOL    HW157917  11.700   6.688   7.924
52028SOL    HW257918  11.694   6.809   7.832
52029SOL     OW57919  14.482  11.082   0.609
52029SOL    HW157920  14.428  11.023   0.661
52029SOL    HW257921  14.480  11.165   0.656
52030SOL     OW57922   2.155   7.909  13.331
52030SOL    HW157923   2.143   7.870  13.245
52030SOL    HW257924   2.245   7.889  13.354
52031SOL     OW57925   9.889  10.937   3.344
52031SOL    HW157926   9.872  10.993   3.268
52031SOL    HW257927   9.814  10.949   3.401
52032SOL     OW57928   2.236  14.436   1.354
52032SOL    HW157929   2.190  14.520   1.360
52032SOL    HW257930   2.226  14.410   1.262
52033SOL     OW57931  12.057   8.814   8.341
52033SOL    HW157932  12.033   8.896   8.298
52033SOL    HW257933  12.010   8.746   8.292
52034SOL     OW57934   5.778  11.335   3.019
52034SOL    HW157935   5.777  11.246   2.983
52034SOL    HW257936   5.856  11.337   3.074
52035SOL     OW57937   2.976   9.929   3.118
52035SOL    HW157938   3.011   9.853   3.165
52035SOL    HW257939   3.025   9.930   3.035
52036SOL     OW57940   2.450   5.565   2.655
52036SOL    HW157941   2.387   5.627   2.618
52036SOL    HW257942   2.536   5.601   2.632
52037SOL     OW57943   1.940   0.906   2.135
52037SOL    HW157944   2.010   0.943   2.190
52037SOL    HW257945   1.984   0.841   2.081
52038SOL     OW57946  11.217   5.436  11.066
52038SOL    HW157947  11.217   5.391  10.981
52038SOL    HW257948  11.309   5.457  11.081
52039SOL     OW57949   3.367   6.034   1.493
52039SOL    HW157950   3.301   5.977   1.532
52039SOL    HW257951   3.355   6.024   1.398
52040SOL     OW57952   8.100  11.470   0.853
52040SOL    HW157953   8.065  11.465   0.942
52040SOL    HW257954   8.024  11.493   0.799
52041SOL     OW57955   3.338  13.344  11.141
52041SOL    HW157956   3.353  13.340  11.047
52041SOL    HW257957   3.252  13.385  11.150
52042SOL     OW57958  10.360  14.588  10.604
52042SOL    HW157959  10.276  14.605  10.561
52042SOL    HW257960  10.418  14.657  10.571
52043SOL     OW57961  10.159   5.543   7.676
52043SOL    HW157962  10.146   5.518   7.768
52043SOL    HW257963  10.128   5.467   7.627
52044SOL     OW57964   9.877   9.623   9.492
52044SOL    HW157965   9.904   9.679   9.565
52044SOL    HW257966   9.907   9.536   9.517
52045SOL     OW57967   7.974   5.583   2.943
52045SOL    HW157968   8.024   5.617   2.869
52045SOL    HW257969   8.032   5.591   3.018
52046SOL     OW57970  10.310   9.252  11.100
52046SOL    HW157971  10.390   9.199  11.100
52046SOL    HW257972  10.320   9.311  11.025
52047SOL     OW57973   4.528   0.037   7.924
52047SOL    HW157974   4.446   0.071   7.888
52047SOL    HW257975   4.561  14.855   7.859
52048SOL     OW57976  14.063   6.625   3.727
52048SOL    HW157977  14.051   6.596   3.818
52048SOL    HW257978  14.079   6.544   3.678
52049SOL     OW57979  12.824  13.086  12.151
52049SOL    HW157980  12.893  13.138  12.191
52049SOL    HW257981  12.831  13.104  12.057
52050SOL     OW57982   6.807  10.555   4.285
52050SOL    HW157983   6.887  10.559   4.338
52050SOL    HW257984   6.838  10.553   4.195
52051SOL     OW57985  14.668   6.872   4.845
52051SOL    HW157986  14.639   6.826   4.766
52051SOL    HW257987  14.625   6.958   4.839
52052SOL     OW57988   1.147  14.636   6.603
52052SOL    HW157989   1.198  14.556   6.598
52052SOL    HW257990   1.129  14.659   6.512
52053SOL     OW57991  11.360   7.454   2.189
52053SOL    HW157992  11.406   7.493   2.115
52053SOL    HW257993  11.292   7.400   2.149
52054SOL     OW57994   8.633   6.164   4.812
52054SOL    HW157995   8.682   6.247   4.809
52054SOL    HW257996   8.663   6.121   4.892
52055SOL     OW57997   2.057   6.128  14.446
52055SOL    HW157998   1.974   6.159  14.484
52055SOL    HW257999   2.106   6.094  14.521
52056SOL     OW58000   8.143   9.846  11.484
52056SOL    HW158001   8.079   9.804  11.542
52056SOL    HW258002   8.090   9.899  11.424
52057SOL     OW58003   2.771   5.074   4.423
52057SOL    HW158004   2.723   5.129   4.485
52057SOL    HW258005   2.849   5.045   4.471
52058SOL     OW58006   1.676  14.244   6.097
52058SOL    HW158007   1.634  14.161   6.073
52058SOL    HW258008   1.604  14.302   6.118
52059SOL     OW58009  11.799   6.138  13.748
52059SOL    HW158010  11.721   6.084  13.740
52059SOL    HW258011  11.816   6.141  13.843
52060SOL     OW58012   2.220  11.284   8.306
52060SOL    HW158013   2.247  11.370   8.273
52060SOL    HW258014   2.173  11.244   8.232
52061SOL     OW58015   8.274   9.067  14.272
52061SOL    HW158016   8.224   8.996  14.312
52061SOL    HW258017   8.220   9.095  14.197
52062SOL     OW58018   6.565   0.302   2.817
52062SOL    HW158019   6.612   0.220   2.798
52062SOL    HW258020   6.531   0.330   2.732
52063SOL     OW58021  13.313   1.485   2.642
52063SOL    HW158022  13.301   1.499   2.549
52063SOL    HW258023  13.283   1.395   2.657
52064SOL     OW58024   1.261   7.810  13.612
52064SOL    HW158025   1.202   7.735  13.613
52064SOL    HW258026   1.333   7.785  13.669
52065SOL     OW58027  12.572  11.004   6.753
52065SOL    HW158028  12.601  11.067   6.688
52065SOL    HW258029  12.523  10.938   6.703
52066SOL     OW58030  12.263  12.024   8.856
52066SOL    HW158031  12.318  12.103   8.849
52066SOL    HW258032  12.293  11.982   8.937
52067SOL     OW58033  14.641  11.312   6.385
52067SOL    HW158034  14.619  11.222   6.361
52067SOL    HW258035  14.561  11.345   6.427
52068SOL     OW58036   5.704  12.398  12.043
52068SOL    HW158037   5.672  12.424  12.129
52068SOL    HW258038   5.711  12.303  12.048
52069SOL     OW58039  10.149   1.779   1.286
52069SOL    HW158040  10.200   1.838   1.342
52069SOL    HW258041  10.123   1.707   1.344
52070SOL     OW58042  13.667   5.670  12.995
52070SOL    HW158043  13.612   5.664  12.917
52070SOL    HW258044  13.606   5.695  13.065
52071SOL     OW58045   4.049  12.269   0.239
52071SOL    HW158046   3.989  12.325   0.190
52071SOL    HW258047   3.995  12.234   0.310
52072SOL     OW58048  12.736   0.367   7.556
52072SOL    HW158049  12.800   0.310   7.513
52072SOL    HW258050  12.655   0.352   7.509
52073SOL     OW58051   8.522   8.980   0.685
52073SOL    HW158052   8.596   8.928   0.715
52073SOL    HW258053   8.547   9.009   0.597
52074SOL     OW58054   6.975  14.023  10.697
52074SOL    HW158055   6.952  13.983  10.613
52074SOL    HW258056   6.960  14.117  10.685
52075SOL     OW58057   6.027   7.070   6.805
52075SOL    HW158058   6.075   7.018   6.870
52075SOL    HW258059   5.962   7.009   6.769
52076SOL     OW58060   2.774   8.464   8.909
52076SOL    HW158061   2.712   8.519   8.860
52076SOL    HW258062   2.828   8.423   8.842
52077SOL     OW58063   6.113   5.794   0.831
52077SOL    HW158064   6.075   5.736   0.765
52077SOL    HW258065   6.144   5.869   0.781
52078SOL     OW58066   3.069  12.793  10.742
52078SOL    HW158067   3.122  12.855  10.792
52078SOL    HW258068   3.050  12.722  10.804
52079SOL     OW58069   5.079   8.213   0.078
52079SOL    HW158070   5.162   8.235   0.037
52079SOL    HW258071   5.050   8.294   0.119
52080SOL     OW58072   0.929   8.081   7.885
52080SOL    HW158073   0.921   8.166   7.929
52080SOL    HW258074   0.848   8.036   7.908
52081SOL     OW58075   0.664  13.144   9.033
52081SOL    HW158076   0.753  13.162   9.003
52081SOL    HW258077   0.640  13.062   8.989
52082SOL     OW58078   2.703   3.272   4.609
52082SOL    HW158079   2.798   3.275   4.618
52082SOL    HW258080   2.688   3.284   4.515
52083SOL     OW58081  10.959   4.546   4.250
52083SOL    HW158082  10.976   4.536   4.156
52083SOL    HW258083  11.020   4.485   4.291
52084SOL     OW58084   5.753  10.459   5.316
52084SOL    HW158085   5.666  10.478   5.282
52084SOL    HW258086   5.807  10.532   5.287
52085SOL     OW58087   3.015   1.825   7.780
52085SOL    HW158088   2.951   1.772   7.828
52085SOL    HW258089   3.094   1.823   7.834
52086SOL     OW58090   4.943   4.983  11.450
52086SOL    HW158091   4.974   4.982  11.540
52086SOL    HW258092   4.951   4.892  11.421
52087SOL     OW58093  11.329   0.226   6.503
52087SOL    HW158094  11.398   0.160   6.510
52087SOL    HW258095  11.247   0.177   6.509
52088SOL     OW58096  12.267   3.334   3.797
52088SOL    HW158097  12.292   3.300   3.711
52088SOL    HW258098  12.278   3.259   3.856
52089SOL     OW58099  13.040   4.179   7.721
52089SOL    HW158100  13.022   4.217   7.635
52089SOL    HW258101  12.959   4.192   7.770
52090SOL     OW58102  14.309   7.248   3.937
52090SOL    HW158103  14.292   7.180   3.871
52090SOL    HW258104  14.397   7.280   3.918
52091SOL     OW58105   0.234  10.333  11.361
52091SOL    HW158106   0.212  10.311  11.270
52091SOL    HW258107   0.328  10.319  11.367
52092SOL     OW58108   9.170   3.760   6.794
52092SOL    HW158109   9.240   3.711   6.837
52092SOL    HW258110   9.097   3.757   6.856
52093SOL     OW58111   8.058  13.899   0.372
52093SOL    HW158112   8.059  13.874   0.465
52093SOL    HW258113   8.087  13.820   0.326
52094SOL     OW58114   4.984   3.098   9.506
52094SOL    HW158115   4.950   3.073   9.420
52094SOL    HW258116   4.906   3.117   9.558
52095SOL     OW58117   3.603   5.523  10.856
52095SOL    HW158118   3.562   5.469  10.923
52095SOL    HW258119   3.649   5.460  10.800
52096SOL     OW58120   4.830   1.342   4.776
52096SOL    HW158121   4.845   1.378   4.688
52096SOL    HW258122   4.788   1.413   4.824
52097SOL     OW58123   0.681  12.672   2.156
52097SOL    HW158124   0.670  12.704   2.066
52097SOL    HW258125   0.683  12.577   2.147
52098SOL     OW58126   5.945   5.298   5.647
52098SOL    HW158127   5.941   5.392   5.665
52098SOL    HW258128   5.897   5.258   5.719
52099SOL     OW58129   2.319   2.074  12.234
52099SOL    HW158130   2.274   2.151  12.200
52099SOL    HW258131   2.323   2.014  12.160
52100SOL     OW58132   3.731  13.747   5.204
52100SOL    HW158133   3.706  13.839   5.213
52100SOL    HW258134   3.666  13.699   5.255
52101SOL     OW58135  13.069  13.596   6.042
52101SOL    HW158136  13.095  13.597   6.134
52101SOL    HW258137  13.038  13.507   6.027
52102SOL     OW58138  12.097   0.358   8.688
52102SOL    HW158139  12.191   0.354   8.672
52102SOL    HW258140  12.072   0.267   8.705
52103SOL     OW58141   9.940   5.201   3.190
52103SOL    HW158142  10.008   5.219   3.126
52103SOL    HW258143   9.987   5.195   3.273
52104SOL     OW58144   8.789   5.219   6.465
52104SOL    HW158145   8.876   5.250   6.490
52104SOL    HW258146   8.749   5.189   6.547
52105SOL     OW58147  12.417   6.405   1.954
52105SOL    HW158148  12.349   6.471   1.939
52105SOL    HW258149  12.391   6.363   2.036
52106SOL     OW58150   1.814  13.219   3.121
52106SOL    HW158151   1.763  13.184   3.048
52106SOL    HW258152   1.808  13.152   3.189
52107SOL     OW58153   0.726  14.493  12.094
52107SOL    HW158154   0.809  14.539  12.097
52107SOL    HW258155   0.704  14.489  12.001
52108SOL     OW58156  12.054   2.304   3.168
52108SOL    HW158157  12.028   2.235   3.229
52108SOL    HW258158  12.077   2.378   3.224
52109SOL     OW58159  13.110   7.106   5.409
52109SOL    HW158160  13.099   7.147   5.495
52109SOL    HW258161  13.057   7.160   5.350
52110SOL     OW58162  12.638  10.271   0.727
52110SOL    HW158163  12.716  10.314   0.764
52110SOL    HW258164  12.661  10.257   0.635
52111SOL     OW58165   1.394  14.702  13.460
52111SOL    HW158166   1.347  14.782  13.440
52111SOL    HW258167   1.484  14.730  13.478
52112SOL     OW58168   5.222  10.196  10.127
52112SOL    HW158169   5.184  10.110  10.145
52112SOL    HW258170   5.298  10.201  10.184
52113SOL     OW58171   4.800   7.344   5.542
52113SOL    HW158172   4.843   7.424   5.512
52113SOL    HW258173   4.808   7.346   5.637
52114SOL     OW58174   7.849  13.340   0.906
52114SOL    HW158175   7.853  13.302   0.993
52114SOL    HW258176   7.825  13.267   0.848
52115SOL     OW58177   7.033   5.261   0.755
52115SOL    HW158178   7.125   5.236   0.742
52115SOL    HW258179   6.992   5.184   0.795
52116SOL     OW58180   5.312  11.733  12.218
52116SOL    HW158181   5.302  11.640  12.197
52116SOL    HW258182   5.324  11.776  12.133
52117SOL     OW58183  10.552   7.755   8.834
52117SOL    HW158184  10.647   7.767   8.825
52117SOL    HW258185  10.514   7.819   8.773
52118SOL     OW58186   7.049   8.979  11.278
52118SOL    HW158187   6.986   9.038  11.321
52118SOL    HW258188   6.994   8.910  11.240
52119SOL     OW58189  12.400  11.347   0.519
52119SOL    HW158190  12.381  11.399   0.441
52119SOL    HW258191  12.321  11.355   0.572
52120SOL     OW58192   8.625   5.183   0.930
52120SOL    HW158193   8.712   5.173   0.968
52120SOL    HW258194   8.634   5.149   0.841
52121SOL     OW58195   7.174   1.636  12.817
52121SOL    HW158196   7.086   1.649  12.852
52121SOL    HW258197   7.221   1.717  12.839
52122SOL     OW58198   8.701   4.868  14.365
52122SOL    HW158199   8.767   4.822  14.312
52122SOL    HW258200   8.699   4.956  14.329
52123SOL     OW58201   6.288  14.346   7.145
52123SOL    HW158202   6.286  14.285   7.072
52123SOL    HW258203   6.223  14.412   7.124
52124SOL     OW58204   2.021   0.530  13.491
52124SOL    HW158205   2.014   0.618  13.528
52124SOL    HW258206   2.088   0.537  13.424
52125SOL     OW58207   8.704   5.488   6.401
52125SOL    HW158208   8.679   5.539   6.478
52125SOL    HW258209   8.725   5.401   6.435
52126SOL     OW58210   3.960  13.709   3.207
52126SOL    HW158211   4.026  13.766   3.246
52126SOL    HW258212   3.884  13.716   3.265
52127SOL     OW58213   1.695   7.493   9.634
52127SOL    HW158214   1.728   7.555   9.699
52127SOL    HW258215   1.622   7.449   9.678
52128SOL     OW58216   1.945   5.678  12.929
52128SOL    HW158217   2.040   5.671  12.941
52128SOL    HW258218   1.912   5.591  12.951
52129SOL     OW58219   5.821  11.517   1.663
52129SOL    HW158220   5.778  11.598   1.636
52129SOL    HW258221   5.862  11.538   1.747
52130SOL     OW58222  13.020   4.731   6.428
52130SOL    HW158223  13.039   4.678   6.505
52130SOL    HW258224  12.947   4.685   6.385
52131SOL     OW58225  11.162   3.818  12.895
52131SOL    HW158226  11.156   3.770  12.812
52131SOL    HW258227  11.092   3.782  12.949
52132SOL     OW58228   7.448  14.074  13.979
52132SOL    HW158229   7.409  13.998  13.934
52132SOL    HW258230   7.542  14.062  13.966
52133SOL     OW58231   5.692   8.897  10.421
52133SOL    HW158232   5.654   8.835  10.484
52133SOL    HW258233   5.660   8.867  10.336
52134SOL     OW58234  11.981  11.136   0.013
52134SOL    HW158235  11.936  11.054   0.032
52134SOL    HW258236  11.912  11.197  14.865
52135SOL     OW58237   6.294  12.823  11.213
52135SOL    HW158238   6.326  12.850  11.127
52135SOL    HW258239   6.274  12.905  11.258
52136SOL     OW58240  13.647  10.384  11.289
52136SOL    HW158241  13.673  10.350  11.204
52136SOL    HW258242  13.671  10.315  11.351
52137SOL     OW58243   1.036  14.253   2.020
52137SOL    HW158244   0.990  14.195   2.081
52137SOL    HW258245   1.033  14.339   2.063
52138SOL     OW58246   9.213   9.046   4.140
52138SOL    HW158247   9.247   9.132   4.114
52138SOL    HW258248   9.250   9.029   4.226
52139SOL     OW58249   8.604   6.953   6.832
52139SOL    HW158250   8.513   6.936   6.856
52139SOL    HW258251   8.638   6.869   6.802
52140SOL     OW58252   2.050  13.235   0.515
52140SOL    HW158253   2.068  13.297   0.586
52140SOL    HW258254   2.135  13.223   0.472
52141SOL     OW58255   9.566   5.828  13.988
52141SOL    HW158256   9.632   5.786  13.933
52141SOL    HW258257   9.559   5.917  13.954
52142SOL     OW58258   2.425   9.128   4.220
52142SOL    HW158259   2.396   9.219   4.211
52142SOL    HW258260   2.354   9.077   4.181
52143SOL     OW58261   8.176  13.455  11.643
52143SOL    HW158262   8.239  13.451  11.715
52143SOL    HW258263   8.221  13.414  11.569
52144SOL     OW58264   7.286   6.971   9.761
52144SOL    HW158265   7.245   6.931   9.684
52144SOL    HW258266   7.226   6.952   9.833
52145SOL     OW58267   2.058   0.768  13.608
52145SOL    HW158268   2.074   0.857  13.579
52145SOL    HW258269   2.070   0.771  13.703
52146SOL     OW58270   8.722   8.299   3.924
52146SOL    HW158271   8.713   8.205   3.937
52146SOL    HW258272   8.693   8.314   3.834
52147SOL     OW58273  14.578  13.277  14.610
52147SOL    HW158274  14.669  13.262  14.633
52147SOL    HW258275  14.540  13.320  14.687
52148SOL     OW58276   7.755   5.947   8.597
52148SOL    HW158277   7.660   5.962   8.595
52148SOL    HW258278   7.772   5.913   8.685
52149SOL     OW58279   9.088   7.716   6.483
52149SOL    HW158280   9.061   7.749   6.569
52149SOL    HW258281   9.173   7.756   6.468
52150SOL     OW58282   6.523   8.621  14.178
52150SOL    HW158283   6.433   8.646  14.201
52150SOL    HW258284   6.572   8.631  14.259
52151SOL     OW58285  12.248   1.848  11.870
52151SOL    HW158286  12.328   1.891  11.841
52151SOL    HW258287  12.195   1.919  11.906
52152SOL     OW58288   7.121  11.402   8.406
52152SOL    HW158289   7.212  11.382   8.429
52152SOL    HW258290   7.081  11.317   8.389
52153SOL     OW58291   4.639   3.071  10.561
52153SOL    HW158292   4.700   2.997  10.560
52153SOL    HW258293   4.568   3.042  10.619
52154SOL     OW58294  10.594   0.240  13.725
52154SOL    HW158295  10.666   0.276  13.777
52154SOL    HW258296  10.544   0.187  13.787
52155SOL     OW58297   0.320   8.723  10.724
52155SOL    HW158298   0.292   8.769  10.645
52155SOL    HW258299   0.252   8.742  10.788
52156SOL     OW58300  11.855   5.865   0.745
52156SOL    HW158301  11.867   5.815   0.826
52156SOL    HW258302  11.929   5.839   0.690
52157SOL     OW58303  13.929   2.346  12.259
52157SOL    HW158304  13.856   2.368  12.201
52157SOL    HW258305  13.946   2.253  12.241
52158SOL     OW58306   4.374  11.172   4.913
52158SOL    HW158307   4.445  11.113   4.890
52158SOL    HW258308   4.310  11.116   4.959
52159SOL     OW58309  14.552   8.017  13.368
52159SOL    HW158310  14.552   7.934  13.416
52159SOL    HW258311  14.481   8.067  13.407
52160SOL     OW58312  10.213   2.665  14.349
52160SOL    HW158313  10.306   2.651  14.331
52160SOL    HW258314  10.168   2.628  14.273
52161SOL     OW58315   1.589   8.154   7.952
52161SOL    HW158316   1.606   8.236   7.906
52161SOL    HW258317   1.568   8.091   7.883
52162SOL     OW58318   3.277  10.615   6.648
52162SOL    HW158319   3.325  10.588   6.570
52162SOL    HW258320   3.343  10.622   6.716
52163SOL     OW58321   6.606   8.088   6.099
52163SOL    HW158322   6.529   8.082   6.156
52163SOL    HW258323   6.638   8.178   6.113
52164SOL     OW58324   4.439   9.857   8.447
52164SOL    HW158325   4.513   9.882   8.391
52164SOL    HW258326   4.464   9.771   8.482
52165SOL     OW58327  12.444   7.266   0.817
52165SOL    HW158328  12.409   7.355   0.822
52165SOL    HW258329  12.450   7.248   0.724
52166SOL     OW58330   2.961   0.472   2.716
52166SOL    HW158331   3.007   0.476   2.800
52166SOL    HW258332   2.930   0.382   2.710
52167SOL     OW58333   1.401   3.813   0.721
52167SOL    HW158334   1.338   3.810   0.649
52167SOL    HW258335   1.487   3.806   0.678
52168SOL     OW58336   9.466   8.570   8.048
52168SOL    HW158337   9.550   8.533   8.023
52168SOL    HW258338   9.437   8.621   7.972
52169SOL     OW58339   0.751   7.096   2.762
52169SOL    HW158340   0.681   7.090   2.828
52169SOL    HW258341   0.705   7.095   2.679
52170SOL     OW58342   6.773   8.859   0.904
52170SOL    HW158343   6.693   8.837   0.855
52170SOL    HW258344   6.759   8.949   0.934
52171SOL     OW58345  12.740   3.364   6.826
52171SOL    HW158346  12.758   3.415   6.747
52171SOL    HW258347  12.812   3.385   6.885
52172SOL     OW58348  14.297   4.322   1.427
52172SOL    HW158349  14.239   4.286   1.359
52172SOL    HW258350  14.378   4.344   1.381
52173SOL     OW58351   6.403   2.662  14.184
52173SOL    HW158352   6.355   2.744  14.172
52173SOL    HW258353   6.335   2.596  14.191
52174SOL     OW58354  13.701   7.765  14.363
52174SOL    HW158355  13.687   7.845  14.312
52174SOL    HW258356  13.757   7.711  14.307
52175SOL     OW58357   4.169   0.476   3.980
52175SOL    HW158358   4.196   0.393   4.019
52175SOL    HW258359   4.083   0.494   4.020
52176SOL     OW58360   0.467   0.654  12.924
52176SOL    HW158361   0.473   0.634  13.018
52176SOL    HW258362   0.480   0.569  12.881
52177SOL     OW58363   6.077  13.571   6.146
52177SOL    HW158364   6.047  13.523   6.069
52177SOL    HW258365   6.003  13.627   6.170
52178SOL     OW58366   3.865  11.348   8.246
52178SOL    HW158367   3.859  11.427   8.299
52178SOL    HW258368   3.922  11.289   8.295
52179SOL     OW58369  14.520  10.724   4.951
52179SOL    HW158370  14.589  10.739   5.016
52179SOL    HW258371  14.504  10.809   4.912
52180SOL     OW58372   8.602   6.771  11.607
52180SOL    HW158373   8.673   6.721  11.566
52180SOL    HW258374   8.632   6.862  11.603
52181SOL     OW58375   7.978  12.149  11.957
52181SOL    HW158376   7.944  12.221  11.905
52181SOL    HW258377   7.994  12.079  11.894
52182SOL     OW58378   0.833   8.025   9.895
52182SOL    HW158379   0.841   7.933   9.869
52182SOL    HW258380   0.874   8.029   9.982
52183SOL     OW58381   5.235   9.903  14.302
52183SOL    HW158382   5.219   9.982  14.250
52183SOL    HW258383   5.179   9.837  14.263
52184SOL     OW58384  11.066   7.747   9.392
52184SOL    HW158385  11.012   7.826   9.398
52184SOL    HW258386  11.016   7.688   9.336
52185SOL     OW58387  12.399   8.939  13.805
52185SOL    HW158388  12.385   8.847  13.828
52185SOL    HW258389  12.374   8.945  13.713
52186SOL     OW58390   2.747   5.623   5.436
52186SOL    HW158391   2.773   5.549   5.380
52186SOL    HW258392   2.700   5.682   5.376
52187SOL     OW58393   1.312   8.913   2.928
52187SOL    HW158394   1.226   8.931   2.966
52187SOL    HW258395   1.337   8.828   2.966
52188SOL     OW58396   6.597   8.902   4.551
52188SOL    HW158397   6.611   8.982   4.603
52188SOL    HW258398   6.518   8.863   4.588
52189SOL     OW58399   9.925   9.971   8.250
52189SOL    HW158400   9.920   9.919   8.330
52189SOL    HW258401   9.840   9.959   8.208
52190SOL     OW58402  12.227   9.248   5.471
52190SOL    HW158403  12.187   9.214   5.391
52190SOL    HW258404  12.262   9.334   5.447
52191SOL     OW58405   9.281   0.249   9.733
52191SOL    HW158406   9.326   0.216   9.655
52191SOL    HW258407   9.350   0.260   9.798
52192SOL     OW58408   3.311   9.237  12.458
52192SOL    HW158409   3.378   9.250  12.525
52192SOL    HW258410   3.343   9.165  12.405
52193SOL     OW58411   3.584  11.521  11.961
52193SOL    HW158412   3.536  11.567  11.893
52193SOL    HW258413   3.527  11.448  11.985
52194SOL     OW58414   4.756   6.862   7.156
52194SOL    HW158415   4.802   6.881   7.237
52194SOL    HW258416   4.705   6.784   7.175
52195SOL     OW58417   0.320   4.054   1.185
52195SOL    HW158418   0.383   3.982   1.176
52195SOL    HW258419   0.307   4.062   1.279
52196SOL     OW58420  13.975   0.326   4.966
52196SOL    HW158421  14.026   0.357   4.891
52196SOL    HW258422  14.039   0.317   5.036
52197SOL     OW58423   5.706   4.865   7.260
52197SOL    HW158424   5.718   4.828   7.348
52197SOL    HW258425   5.617   4.901   7.262
52198SOL     OW58426  14.094  13.600   3.886
52198SOL    HW158427  14.038  13.527   3.911
52198SOL    HW258428  14.168  13.596   3.947
52199SOL     OW58429   0.967   2.336   6.955
52199SOL    HW158430   0.966   2.241   6.970
52199SOL    HW258431   1.031   2.370   7.017
52200SOL     OW58432  11.683   2.141  12.517
52200SOL    HW158433  11.626   2.139  12.594
52200SOL    HW258434  11.699   2.234  12.501
52201SOL     OW58435  12.966   9.551  14.548
52201SOL    HW158436  12.894   9.589  14.498
52201SOL    HW258437  13.022   9.508  14.483
52202SOL     OW58438  14.760   7.461   8.583
52202SOL    HW158439  14.845   7.480   8.622
52202SOL    HW258440  14.743   7.535   8.524
52203SOL     OW58441  12.703  13.279  11.477
52203SOL    HW158442  12.644  13.273  11.402
52203SOL    HW258443  12.750  13.196  11.478
52204SOL     OW58444   5.140   4.840   4.347
52204SOL    HW158445   5.096   4.758   4.367
52204SOL    HW258446   5.094   4.875   4.271
52205SOL     OW58447   3.003   3.623   3.216
52205SOL    HW158448   3.057   3.561   3.265
52205SOL    HW258449   2.999   3.701   3.271
52206SOL     OW58450   9.783  10.284  11.296
52206SOL    HW158451   9.774  10.373  11.260
52206SOL    HW258452   9.697  10.244  11.283
52207SOL     OW58453   5.427   7.723   4.928
52207SOL    HW158454   5.435   7.800   4.872
52207SOL    HW258455   5.438   7.649   4.869
52208SOL     OW58456   7.944   9.059  10.135
52208SOL    HW158457   7.866   9.078  10.083
52208SOL    HW258458   7.942   9.125  10.206
52209SOL     OW58459   1.683   7.671  11.815
52209SOL    HW158460   1.739   7.594  11.817
52209SOL    HW258461   1.603   7.641  11.773
52210SOL     OW58462   2.977  14.804   2.180
52210SOL    HW158463   3.048  14.759   2.226
52210SOL    HW258464   2.899  14.752   2.200
52211SOL     OW58465   1.221   4.213   7.156
52211SOL    HW158466   1.286   4.274   7.122
52211SOL    HW258467   1.209   4.148   7.087
52212SOL     OW58468   7.782   8.455   4.267
52212SOL    HW158469   7.860   8.407   4.240
52212SOL    HW258470   7.788   8.459   4.362
52213SOL     OW58471   6.887   8.134  11.242
52213SOL    HW158472   6.821   8.203  11.245
52213SOL    HW258473   6.952   8.160  11.307
52214SOL     OW58474   6.410   2.544   8.548
52214SOL    HW158475   6.360   2.574   8.472
52214SOL    HW258476   6.343   2.517   8.611
52215SOL     OW58477   9.255   9.761   2.752
52215SOL    HW158478   9.238   9.670   2.726
52215SOL    HW258479   9.212   9.770   2.837
52216SOL     OW58480   7.115   0.208  12.138
52216SOL    HW158481   7.098   0.208  12.044
52216SOL    HW258482   7.207   0.232  12.146
52217SOL     OW58483  10.842  12.677   9.504
52217SOL    HW158484  10.750  12.679   9.530
52217SOL    HW258485  10.890  12.668   9.586
52218SOL     OW58486   0.656  13.053   6.844
52218SOL    HW158487   0.570  13.072   6.881
52218SOL    HW258488   0.644  12.969   6.799
52219SOL     OW58489   2.118   3.599  12.520
52219SOL    HW158490   2.023   3.587  12.521
52219SOL    HW258491   2.153   3.511  12.530
52220SOL     OW58492  11.128   5.094   2.061
52220SOL    HW158493  11.138   5.158   2.131
52220SOL    HW258494  11.207   5.104   2.007
52221SOL     OW58495   9.067  14.747   5.651
52221SOL    HW158496   9.015  14.824   5.630
52221SOL    HW258497   9.017  14.702   5.719
52222SOL     OW58498   5.156   8.443   5.558
52222SOL    HW158499   5.080   8.405   5.514
52222SOL    HW258500   5.140   8.537   5.557
52223SOL     OW58501   5.256   6.627   3.642
52223SOL    HW158502   5.290   6.539   3.661
52223SOL    HW258503   5.173   6.631   3.689
52224SOL     OW58504  14.051  13.656   1.379
52224SOL    HW158505  13.958  13.633   1.373
52224SOL    HW258506  14.053  13.752   1.380
52225SOL     OW58507  13.535  12.592  11.293
52225SOL    HW158508  13.478  12.632  11.228
52225SOL    HW258509  13.616  12.572  11.246
52226SOL     OW58510   7.897   3.923   6.084
52226SOL    HW158511   7.870   4.004   6.126
52226SOL    HW258512   7.975   3.947   6.034
52227SOL     OW58513   6.353   9.169   4.242
52227SOL    HW158514   6.388   9.190   4.156
52227SOL    HW258515   6.426   9.181   4.302
52228SOL     OW58516   4.363   3.838  14.146
52228SOL    HW158517   4.268   3.828  14.152
52228SOL    HW258518   4.398   3.788  14.219
52229SOL     OW58519   6.613  13.998  13.072
52229SOL    HW158520   6.598  14.060  13.144
52229SOL    HW258521   6.591  14.047  12.993
52230SOL     OW58522   7.655   6.315  14.202
52230SOL    HW158523   7.641   6.227  14.237
52230SOL    HW258524   7.750   6.329  14.210
52231SOL     OW58525   8.537   4.260   3.044
52231SOL    HW158526   8.624   4.237   3.010
52231SOL    HW258527   8.556   4.308   3.125
52232SOL     OW58528   3.948   3.885   3.604
52232SOL    HW158529   3.948   3.950   3.674
52232SOL    HW258530   3.855   3.862   3.593
52233SOL     OW58531  13.576  13.666   8.983
52233SOL    HW158532  13.517  13.740   9.003
52233SOL    HW258533  13.634  13.700   8.915
52234SOL     OW58534   6.937  10.804   2.320
52234SOL    HW158535   6.991  10.782   2.244
52234SOL    HW258536   7.000  10.829   2.387
52235SOL     OW58537   8.195  11.658   3.460
52235SOL    HW158538   8.176  11.596   3.389
52235SOL    HW258539   8.209  11.742   3.416
52236SOL     OW58540   7.860   5.090   7.916
52236SOL    HW158541   7.877   5.109   7.824
52236SOL    HW258542   7.776   5.134   7.934
52237SOL     OW58543  10.580   5.623   6.805
52237SOL    HW158544  10.543   5.545   6.846
52237SOL    HW258545  10.674   5.616   6.821
52238SOL     OW58546   2.101   5.306  13.472
52238SOL    HW158547   2.109   5.287  13.379
52238SOL    HW258548   2.109   5.402  13.478
52239SOL     OW58549   4.125   8.390   3.953
52239SOL    HW158550   4.143   8.297   3.966
52239SOL    HW258551   4.064   8.392   3.880
52240SOL     OW58552   9.304   8.202   4.612
52240SOL    HW158553   9.311   8.293   4.641
52240SOL    HW258554   9.247   8.161   4.677
52241SOL     OW58555  12.396  10.833  11.196
52241SOL    HW158556  12.423  10.909  11.247
52241SOL    HW258557  12.417  10.758  11.251
52242SOL     OW58558   5.436  13.104  10.297
52242SOL    HW158559   5.475  13.104  10.210
52242SOL    HW258560   5.506  13.133  10.355
52243SOL     OW58561   9.787  11.039   7.762
52243SOL    HW158562   9.808  11.130   7.740
52243SOL    HW258563   9.711  11.045   7.818
52244SOL     OW58564   1.371   6.649   6.736
52244SOL    HW158565   1.294   6.600   6.764
52244SOL    HW258566   1.339   6.705   6.665
52245SOL     OW58567   5.505  11.526   7.153
52245SOL    HW158568   5.591  11.485   7.145
52245SOL    HW258569   5.443  11.453   7.156
52246SOL     OW58570   9.122  14.361  14.623
52246SOL    HW158571   9.066  14.375  14.547
52246SOL    HW258572   9.086  14.283  14.665
52247SOL     OW58573  13.622   6.566  14.102
52247SOL    HW158574  13.582   6.565  14.189
52247SOL    HW258575  13.703   6.616  14.114
52248SOL     OW58576   6.962  12.814   6.663
52248SOL    HW158577   6.973  12.828   6.569
52248SOL    HW258578   6.873  12.844   6.681
52249SOL     OW58579  14.585  10.422  13.937
52249SOL    HW158580  14.580  10.378  13.852
52249SOL    HW258581  14.520  10.377  13.991
52250SOL     OW58582  14.199   8.370  10.566
52250SOL    HW158583  14.108   8.358  10.593
52250SOL    HW258584  14.249   8.310  10.622
52251SOL     OW58585   5.860   4.705  14.522
52251SOL    HW158586   5.878   4.655  14.601
52251SOL    HW258587   5.933   4.767  14.516
52252SOL     OW58588   6.551  12.432  11.323
52252SOL    HW158589   6.461  12.456  11.342
52252SOL    HW258590   6.562  12.346  11.364
52253SOL     OW58591  11.893  11.232  10.477
52253SOL    HW158592  11.987  11.219  10.464
52253SOL    HW258593  11.886  11.314  10.525
52254SOL     OW58594  10.507   9.467   9.966
52254SOL    HW158595  10.480   9.409  10.038
52254SOL    HW258596  10.567   9.530  10.007
52255SOL     OW58597   3.461   5.457   9.869
52255SOL    HW158598   3.436   5.549   9.860
52255SOL    HW258599   3.417   5.413   9.796
52256SOL     OW58600   3.809   4.318  14.764
52256SOL    HW158601   3.855   4.382  14.817
52256SOL    HW258602   3.783   4.367  14.685
52257SOL     OW58603   3.993   2.918  10.248
52257SOL    HW158604   3.985   2.886  10.158
52257SOL    HW258605   3.998   2.839  10.302
52258SOL     OW58606   3.504   9.728   1.375
52258SOL    HW158607   3.421   9.716   1.328
52258SOL    HW258608   3.534   9.639   1.393
52259SOL     OW58609  11.197  12.812   3.327
52259SOL    HW158610  11.237  12.895   3.302
52259SOL    HW258611  11.105  12.834   3.346
52260SOL     OW58612   7.477   5.778   1.696
52260SOL    HW158613   7.393   5.779   1.651
52260SOL    HW258614   7.483   5.690   1.733
52261SOL     OW58615  10.030   2.457   0.017
52261SOL    HW158616  10.092   2.419   0.078
52261SOL    HW258617   9.945   2.420   0.042
52262SOL     OW58618   1.835  13.039  14.773
52262SOL    HW158619   1.912  13.026  14.827
52262SOL    HW258620   1.814  13.132  14.782
52263SOL     OW58621  11.053   6.261   3.813
52263SOL    HW158622  10.993   6.335   3.806
52263SOL    HW258623  11.131   6.297   3.857
52264SOL     OW58624  13.257   9.403   5.478
52264SOL    HW158625  13.179   9.444   5.516
52264SOL    HW258626  13.324   9.471   5.480
52265SOL     OW58627  12.724  12.128  10.561
52265SOL    HW158628  12.730  12.214  10.603
52265SOL    HW258629  12.738  12.145  10.468
52266SOL     OW58630   1.169   9.068  12.525
52266SOL    HW158631   1.227   9.136  12.559
52266SOL    HW258632   1.210   9.041  12.443
52267SOL     OW58633   3.215  14.527   1.990
52267SOL    HW158634   3.304  14.537   2.025
52267SOL    HW258635   3.159  14.528   2.067
52268SOL     OW58636   5.184   9.640   8.488
52268SOL    HW158637   5.226   9.702   8.429
52268SOL    HW258638   5.136   9.580   8.431
52269SOL     OW58639  12.231   3.180  11.422
52269SOL    HW158640  12.226   3.204  11.329
52269SOL    HW258641  12.140   3.162  11.446
52270SOL     OW58642  11.521  14.448  11.106
52270SOL    HW158643  11.472  14.481  11.030
52270SOL    HW258644  11.561  14.527  11.143
52271SOL     OW58645   3.912   7.453   0.170
52271SOL    HW158646   3.916   7.547   0.152
52271SOL    HW258647   3.832   7.442   0.221
52272SOL     OW58648  11.695   0.653   5.001
52272SOL    HW158649  11.777   0.674   4.956
52272SOL    HW258650  11.676   0.562   4.976
52273SOL     OW58651   5.894   7.665   9.809
52273SOL    HW158652   5.820   7.620   9.769
52273SOL    HW258653   5.936   7.711   9.736
52274SOL     OW58654   8.645   5.692  12.349
52274SOL    HW158655   8.585   5.618  12.353
52274SOL    HW258656   8.619   5.748  12.423
52275SOL     OW58657   2.754  10.913   6.744
52275SOL    HW158658   2.765  10.869   6.828
52275SOL    HW258659   2.790  11.000   6.758
52276SOL     OW58660  10.141   3.205   2.245
52276SOL    HW158661  10.115   3.113   2.243
52276SOL    HW258662  10.107   3.238   2.328
52277SOL     OW58663   2.589   8.411   6.293
52277SOL    HW158664   2.554   8.339   6.242
52277SOL    HW258665   2.596   8.378   6.383
52278SOL     OW58666  14.338   1.098   5.045
52278SOL    HW158667  14.424   1.140   5.048
52278SOL    HW258668  14.289   1.138   5.117
52279SOL     OW58669  14.694  12.619   3.143
52279SOL    HW158670  14.761  12.581   3.086
52279SOL    HW258671  14.626  12.650   3.083
52280SOL     OW58672   4.497   8.341   5.837
52280SOL    HW158673   4.468   8.298   5.917
52280SOL    HW258674   4.450   8.296   5.767
52281SOL     OW58675   7.100   7.997   7.972
52281SOL    HW158676   7.168   7.990   7.905
52281SOL    HW258677   7.093   7.908   8.007
52282SOL     OW58678   3.630   0.086   2.868
52282SOL    HW158679   3.610   0.163   2.922
52282SOL    HW258680   3.549   0.035   2.868
52283SOL     OW58681   2.394  10.979   2.390
52283SOL    HW158682   2.359  10.919   2.324
52283SOL    HW258683   2.322  11.040   2.407
52284SOL     OW58684  14.523   4.146   3.530
52284SOL    HW158685  14.454   4.181   3.475
52284SOL    HW258686  14.515   4.193   3.613
52285SOL     OW58687   7.175  13.283  14.109
52285SOL    HW158688   7.228  13.322  14.040
52285SOL    HW258689   7.095  13.336  14.111
52286SOL     OW58690   0.305   0.475   0.785
52286SOL    HW158691   0.292   0.380   0.795
52286SOL    HW258692   0.312   0.489   0.691
52287SOL     OW58693   3.884   9.815  12.193
52287SOL    HW158694   3.840   9.872  12.256
52287SOL    HW258695   3.949   9.767  12.244
52288SOL     OW58696   8.811  11.100   8.780
52288SOL    HW158697   8.756  11.119   8.704
52288SOL    HW258698   8.886  11.159   8.771
52289SOL     OW58699   4.952  13.424   8.867
52289SOL    HW158700   4.880  13.413   8.805
52289SOL    HW258701   4.993  13.507   8.842
52290SOL     OW58702   7.771   4.031  10.737
52290SOL    HW158703   7.685   4.072  10.727
52290SOL    HW258704   7.801   4.062  10.823
52291SOL     OW58705   2.457   5.284   7.617
52291SOL    HW158706   2.479   5.272   7.525
52291SOL    HW258707   2.371   5.244   7.626
52292SOL     OW58708   4.031   8.257   9.800
52292SOL    HW158709   4.052   8.337   9.752
52292SOL    HW258710   4.090   8.191   9.765
52293SOL     OW58711   5.836   9.009   5.819
52293SOL    HW158712   5.840   9.101   5.791
52293SOL    HW258713   5.872   9.010   5.907
52294SOL     OW58714  10.426  13.225   5.727
52294SOL    HW158715  10.343  13.272   5.720
52294SOL    HW258716  10.402  13.137   5.753
52295SOL     OW58717  14.640  14.450  11.915
52295SOL    HW158718  14.659  14.401  11.995
52295SOL    HW258719  14.588  14.525  11.945
52296SOL     OW58720   3.881  10.805   2.501
52296SOL    HW158721   3.814  10.856   2.456
52296SOL    HW258722   3.961  10.818   2.449
52297SOL     OW58723  11.045   0.067  10.260
52297SOL    HW158724  11.015  14.877  10.319
52297SOL    HW258725  11.019   0.148  10.304
52298SOL     OW58726  12.497   2.726   9.354
52298SOL    HW158727  12.506   2.638   9.393
52298SOL    HW258728  12.583   2.766   9.368
52299SOL     OW58729  12.164   2.155   9.544
52299SOL    HW158730  12.215   2.111   9.476
52299SOL    HW258731  12.153   2.088   9.612
52300SOL     OW58732   4.672   8.535   0.936
52300SOL    HW158733   4.699   8.498   1.020
52300SOL    HW258734   4.729   8.611   0.924
52301SOL     OW58735  13.464   2.065   9.008
52301SOL    HW158736  13.492   2.156   9.018
52301SOL    HW258737  13.543   2.013   9.027
52302SOL     OW58738   9.111  12.922   5.769
52302SOL    HW158739   9.168  12.853   5.803
52302SOL    HW258740   9.026  12.880   5.758
52303SOL     OW58741  11.196   8.965  14.790
52303SOL    HW158742  11.133   9.014  14.842
52303SOL    HW258743  11.143   8.901  14.742
52304SOL     OW58744   0.488   5.182   3.034
52304SOL    HW158745   0.501   5.149   2.945
52304SOL    HW258746   0.543   5.260   3.039
52305SOL     OW58747   1.915   9.867   5.148
52305SOL    HW158748   1.890   9.831   5.063
52305SOL    HW258749   1.947   9.955   5.129
52306SOL     OW58750  13.743   4.142   5.539
52306SOL    HW158751  13.668   4.201   5.553
52306SOL    HW258752  13.781   4.171   5.456
52307SOL     OW58753   4.375  14.184  13.964
52307SOL    HW158754   4.319  14.260  13.945
52307SOL    HW258755   4.322  14.129  14.022
52308SOL     OW58756   9.359  12.584   9.275
52308SOL    HW158757   9.379  12.557   9.365
52308SOL    HW258758   9.281  12.638   9.283
52309SOL     OW58759  14.319   2.173   7.660
52309SOL    HW158760  14.343   2.081   7.672
52309SOL    HW258761  14.319   2.185   7.565
52310SOL     OW58762  13.464   7.153   4.903
52310SOL    HW158763  13.555   7.167   4.930
52310SOL    HW258764  13.417   7.229   4.938
52311SOL     OW58765   7.873   1.062  13.166
52311SOL    HW158766   7.950   1.005  13.159
52311SOL    HW258767   7.906   1.149  13.146
52312SOL     OW58768  12.507   3.332  12.659
52312SOL    HW158769  12.491   3.317  12.566
52312SOL    HW258770  12.531   3.246  12.694
52313SOL     OW58771   4.909   6.391   8.451
52313SOL    HW158772   4.883   6.395   8.359
52313SOL    HW258773   4.975   6.460   8.460
52314SOL     OW58774   1.399  12.028   1.458
52314SOL    HW158775   1.317  12.041   1.505
52314SOL    HW258776   1.467  12.054   1.520
52315SOL     OW58777  13.278   0.854   9.271
52315SOL    HW158778  13.310   0.769   9.303
52315SOL    HW258779  13.192   0.834   9.233
52316SOL     OW58780   5.746   2.121   0.137
52316SOL    HW158781   5.669   2.178   0.134
52316SOL    HW258782   5.818   2.178   0.164
52317SOL     OW58783   0.172   1.367   4.919
52317SOL    HW158784   0.237   1.308   4.956
52317SOL    HW258785   0.188   1.364   4.824
52318SOL     OW58786   9.946   0.722   5.132
52318SOL    HW158787  10.009   0.661   5.094
52318SOL    HW258788   9.957   0.803   5.081
52319SOL     OW58789  14.425   9.581   0.091
52319SOL    HW158790  14.456   9.601   0.002
52319SOL    HW258791  14.484   9.513   0.122
52320SOL     OW58792  10.555   5.026  13.057
52320SOL    HW158793  10.487   4.996  12.997
52320SOL    HW258794  10.526   5.113  13.085
52321SOL     OW58795   9.124   5.651   3.062
52321SOL    HW158796   9.056   5.622   3.001
52321SOL    HW258797   9.205   5.613   3.027
52322SOL     OW58798   8.621  12.759  12.586
52322SOL    HW158799   8.561  12.800  12.647
52322SOL    HW258800   8.583  12.775  12.500
52323SOL     OW58801  12.198   1.713   5.966
52323SOL    HW158802  12.161   1.791   5.925
52323SOL    HW258803  12.288   1.708   5.932
52324SOL     OW58804   7.467   6.386  10.028
52324SOL    HW158805   7.544   6.383   9.972
52324SOL    HW258806   7.493   6.343  10.109
52325SOL     OW58807  11.307  12.433   4.382
52325SOL    HW158808  11.346  12.497   4.443
52325SOL    HW258809  11.362  12.438   4.304
52326SOL     OW58810  12.329  13.657  13.211
52326SOL    HW158811  12.413  13.690  13.179
52326SOL    HW258812  12.268  13.729  13.196
52327SOL     OW58813   4.330  12.802   0.772
52327SOL    HW158814   4.365  12.794   0.860
52327SOL    HW258815   4.399  12.848   0.723
52328SOL     OW58816  13.740   5.975   5.613
52328SOL    HW158817  13.737   6.009   5.702
52328SOL    HW258818  13.665   6.017   5.569
52329SOL     OW58819  13.271  10.080   7.939
52329SOL    HW158820  13.209  10.030   7.885
52329SOL    HW258821  13.349  10.023   7.944
52330SOL     OW58822   3.567   4.855   8.277
52330SOL    HW158823   3.525   4.876   8.361
52330SOL    HW258824   3.590   4.762   8.285
52331SOL     OW58825   8.388   5.089  11.756
52331SOL    HW158826   8.414   5.084  11.664
52331SOL    HW258827   8.295   5.112  11.753
52332SOL     OW58828   3.395  10.330   4.283
52332SOL    HW158829   3.461  10.274   4.323
52332SOL    HW258830   3.380  10.399   4.348
52333SOL     OW58831   8.048   5.809   9.031
52333SOL    HW158832   8.046   5.799   9.126
52333SOL    HW258833   8.030   5.901   9.016
52334SOL     OW58834  14.390   1.534   7.810
52334SOL    HW158835  14.441   1.453   7.802
52334SOL    HW258836  14.330   1.531   7.735
52335SOL     OW58837  12.115  12.294   9.221
52335SOL    HW158838  12.140  12.232   9.289
52335SOL    HW258839  12.179  12.281   9.152
52336SOL     OW58840  12.071  14.340   5.246
52336SOL    HW158841  12.113  14.377   5.325
52336SOL    HW258842  12.046  14.252   5.272
52337SOL     OW58843   0.249   0.842   8.299
52337SOL    HW158844   0.255   0.842   8.203
52337SOL    HW258845   0.232   0.933   8.322
52338SOL     OW58846   0.410  13.682   9.408
52338SOL    HW158847   0.362  13.616   9.458
52338SOL    HW258848   0.365  13.764   9.429
52339SOL     OW58849   8.365   5.354   0.765
52339SOL    HW158850   8.391   5.372   0.855
52339SOL    HW258851   8.271   5.372   0.764
52340SOL     OW58852   6.083   8.100   5.501
52340SOL    HW158853   6.159   8.151   5.473
52340SOL    HW258854   6.024   8.100   5.426
52341SOL     OW58855   0.872   8.423  12.287
52341SOL    HW158856   0.869   8.376  12.204
52341SOL    HW258857   0.784   8.412  12.323
52342SOL     OW58858  11.462   4.646   6.833
52342SOL    HW158859  11.459   4.741   6.821
52342SOL    HW258860  11.418   4.611   6.756
52343SOL     OW58861  12.307   6.506   7.137
52343SOL    HW158862  12.299   6.464   7.223
52343SOL    HW258863  12.257   6.587   7.145
52344SOL     OW58864   1.133  13.097  10.869
52344SOL    HW158865   1.097  13.009  10.858
52344SOL    HW258866   1.225  13.083  10.893
52345SOL     OW58867   5.264   6.232   7.141
52345SOL    HW158868   5.321   6.183   7.082
52345SOL    HW258869   5.302   6.219   7.227
52346SOL     OW58870   2.595   7.945  11.406
52346SOL    HW158871   2.572   8.026  11.360
52346SOL    HW258872   2.691   7.944  11.408
52347SOL     OW58873   0.378  10.811   8.878
52347SOL    HW158874   0.351  10.735   8.930
52347SOL    HW258875   0.360  10.886   8.934
52348SOL     OW58876   4.529  11.002   9.580
52348SOL    HW158877   4.457  11.025   9.521
52348SOL    HW258878   4.551  10.912   9.558
52349SOL     OW58879   1.999  14.246   4.117
52349SOL    HW158880   1.998  14.175   4.181
52349SOL    HW258881   2.077  14.230   4.064
52350SOL     OW58882   0.038  11.343   6.353
52350SOL    HW158883   0.040  11.250   6.327
52350SOL    HW258884  14.824  11.362   6.365
52351SOL     OW58885   3.409   1.671   5.153
52351SOL    HW158886   3.446   1.735   5.213
52351SOL    HW258887   3.456   1.590   5.173
52352SOL     OW58888   3.543  11.733  10.928
52352SOL    HW158889   3.587  11.780  10.857
52352SOL    HW258890   3.458  11.775  10.937
52353SOL     OW58891   3.615   9.938   0.466
52353SOL    HW158892   3.698   9.944   0.419
52353SOL    HW258893   3.548   9.957   0.401
52354SOL     OW58894   4.210   7.894  11.096
52354SOL    HW158895   4.131   7.925  11.052
52354SOL    HW258896   4.241   7.969  11.147
52355SOL     OW58897   2.929   3.050   2.234
52355SOL    HW158898   2.959   3.087   2.317
52355SOL    HW258899   2.893   2.964   2.257
52356SOL     OW58900  13.311  11.196   7.030
52356SOL    HW158901  13.216  11.205   7.020
52356SOL    HW258902  13.321  11.141   7.107
52357SOL     OW58903   5.965   5.534   0.166
52357SOL    HW158904   5.950   5.628   0.153
52357SOL    HW258905   5.913   5.512   0.243
52358SOL     OW58906   8.841   7.333   3.486
52358SOL    HW158907   8.801   7.347   3.572
52358SOL    HW258908   8.770   7.300   3.431
52359SOL     OW58909   8.854   6.671  12.230
52359SOL    HW158910   8.793   6.736  12.266
52359SOL    HW258911   8.800   6.613  12.177
52360SOL     OW58912   1.785  13.918  11.563
52360SOL    HW158913   1.795  13.897  11.656
52360SOL    HW258914   1.691  13.922  11.549
52361SOL     OW58915   4.501   6.559   2.944
52361SOL    HW158916   4.437   6.616   2.988
52361SOL    HW258917   4.451   6.481   2.920
52362SOL     OW58918  10.728  12.389   3.071
52362SOL    HW158919  10.746  12.405   2.978
52362SOL    HW258920  10.666  12.316   3.071
52363SOL     OW58921  12.654  10.927  14.297
52363SOL    HW158922  12.602  11.005  14.317
52363SOL    HW258923  12.649  10.918  14.202
52364SOL     OW58924   4.975  11.265   1.203
52364SOL    HW158925   5.053  11.321   1.202
52364SOL    HW258926   4.974  11.227   1.290
52365SOL     OW58927   9.770  11.636  14.008
52365SOL    HW158928   9.775  11.596  13.921
52365SOL    HW258929   9.794  11.728  13.993
52366SOL     OW58930   5.384  10.657   5.984
52366SOL    HW158931   5.330  10.660   5.905
52366SOL    HW258932   5.441  10.581   5.972
52367SOL     OW58933   9.024  10.051   8.504
52367SOL    HW158934   9.107  10.010   8.479
52367SOL    HW258935   8.970  10.046   8.425
52368SOL     OW58936   3.859   0.725   7.341
52368SOL    HW158937   3.861   0.791   7.271
52368SOL    HW258938   3.865   0.775   7.422
52369SOL     OW58939   9.155  12.836  14.261
52369SOL    HW158940   9.136  12.787  14.341
52369SOL    HW258941   9.240  12.878  14.278
52370SOL     OW58942   5.924   0.110  10.802
52370SOL    HW158943   5.874   0.161  10.867
52370SOL    HW258944   5.867   0.105  10.726
52371SOL     OW58945   2.216   6.935   8.266
52371SOL    HW158946   2.198   6.990   8.190
52371SOL    HW258947   2.297   6.888   8.244
52372SOL     OW58948   9.191  12.029  12.738
52372SOL    HW158949   9.261  12.063  12.794
52372SOL    HW258950   9.143  11.969  12.795
52373SOL     OW58951  14.683   1.127   3.283
52373SOL    HW158952  14.670   1.092   3.195
52373SOL    HW258953  14.599   1.166   3.307
52374SOL     OW58954   8.373  11.895   7.233
52374SOL    HW158955   8.280  11.907   7.213
52374SOL    HW258956   8.374  11.830   7.304
52375SOL     OW58957  14.374   0.103   2.385
52375SOL    HW158958  14.446   0.145   2.338
52375SOL    HW258959  14.336   0.042   2.322
52376SOL     OW58960  14.217  10.443   0.548
52376SOL    HW158961  14.237  10.527   0.587
52376SOL    HW258962  14.154  10.402   0.608
52377SOL     OW58963   9.515   2.288   2.698
52377SOL    HW158964   9.458   2.308   2.772
52377SOL    HW258965   9.544   2.198   2.714
52378SOL     OW58966  10.394   7.621  14.619
52378SOL    HW158967  10.422   7.678  14.548
52378SOL    HW258968  10.299   7.628  14.621
52379SOL     OW58969  14.029  14.627   2.213
52379SOL    HW158970  13.987  14.544   2.235
52379SOL    HW258971  14.010  14.685   2.287
52380SOL     OW58972   1.269   5.608  13.142
52380SOL    HW158973   1.260   5.700  13.117
52380SOL    HW258974   1.336   5.574  13.083
52381SOL     OW58975  10.869   9.095   6.730
52381SOL    HW158976  10.934   9.092   6.800
52381SOL    HW258977  10.920   9.090   6.649
52382SOL     OW58978   3.198  10.759  12.550
52382SOL    HW158979   3.139  10.690  12.579
52382SOL    HW258980   3.267  10.761  12.616
52383SOL     OW58981   1.880   8.579  12.797
52383SOL    HW158982   1.847   8.629  12.722
52383SOL    HW258983   1.818   8.506  12.806
52384SOL     OW58984   4.391   0.365  10.938
52384SOL    HW158985   4.390   0.366  11.033
52384SOL    HW258986   4.299   0.353  10.913
52385SOL     OW58987   4.077  14.398   2.641
52385SOL    HW158988   4.161  14.353   2.647
52385SOL    HW258989   4.017  14.332   2.607
52386SOL     OW58990   3.120   6.687   2.377
52386SOL    HW158991   3.206   6.728   2.369
52386SOL    HW258992   3.139   6.595   2.397
52387SOL     OW58993  12.397   9.027   3.407
52387SOL    HW158994  12.476   8.977   3.389
52387SOL    HW258995  12.361   8.989   3.487
52388SOL     OW58996  12.369   1.449  11.066
52388SOL    HW158997  12.402   1.374  11.117
52388SOL    HW258998  12.441   1.473  11.009
52389SOL     OW58999   3.063   1.040   5.938
52389SOL    HW159000   3.099   1.128   5.951
52389SOL    HW259001   3.120   1.000   5.873
52390SOL     OW59002  10.529  13.555   4.854
52390SOL    HW159003  10.574  13.601   4.783
52390SOL    HW259004  10.517  13.621   4.922
52391SOL     OW59005   9.854  10.740  13.996
52391SOL    HW159006   9.920  10.790  13.949
52391SOL    HW259007   9.799  10.806  14.039
52392SOL     OW59008  14.365  11.883   4.533
52392SOL    HW159009  14.338  11.926   4.614
52392SOL    HW259010  14.460  11.880   4.538
52393SOL     OW59011  11.706   8.951  10.957
52393SOL    HW159012  11.790   8.961  10.913
52393SOL    HW259013  11.644   8.997  10.900
52394SOL     OW59014  13.545  10.221  12.974
52394SOL    HW159015  13.543  10.127  12.988
52394SOL    HW259016  13.455  10.249  12.990
52395SOL     OW59017  13.802  11.634  12.687
52395SOL    HW159018  13.742  11.586  12.630
52395SOL    HW259019  13.845  11.566  12.739
52396SOL     OW59020   0.547   0.518   8.830
52396SOL    HW159021   0.571   0.609   8.846
52396SOL    HW259022   0.626   0.478   8.792
52397SOL     OW59023   2.922   0.857   1.371
52397SOL    HW159024   2.864   0.781   1.370
52397SOL    HW259025   2.935   0.878   1.278
52398SOL     OW59026   4.314   9.767   0.848
52398SOL    HW159027   4.234   9.818   0.834
52398SOL    HW259028   4.378   9.830   0.880
52399SOL     OW59029   6.086  13.611  13.195
52399SOL    HW159030   6.153  13.675  13.219
52399SOL    HW259031   6.118  13.528  13.231
52400SOL     OW59032  13.431   1.654   8.740
52400SOL    HW159033  13.525   1.663   8.757
52400SOL    HW259034  13.422   1.671   8.646
52401SOL     OW59035   4.738   5.094  12.895
52401SOL    HW159036   4.658   5.097  12.843
52401SOL    HW259037   4.719   5.152  12.969
52402SOL     OW59038  12.331   5.915   6.354
52402SOL    HW159039  12.324   5.943   6.262
52402SOL    HW259040  12.324   5.819   6.350
52403SOL     OW59041   3.910  13.807   2.949
52403SOL    HW159042   3.933  13.789   3.040
52403SOL    HW259043   3.815  13.792   2.945
52404SOL     OW59044  12.248   8.010  12.762
52404SOL    HW159045  12.188   8.044  12.830
52404SOL    HW259046  12.225   8.059  12.683
52405SOL     OW59047  11.976   9.875   6.068
52405SOL    HW159048  11.965   9.886   5.974
52405SOL    HW259049  12.034   9.947   6.094
52406SOL     OW59050  12.489  11.966   3.650
52406SOL    HW159051  12.570  11.997   3.609
52406SOL    HW259052  12.421  12.021   3.613
52407SOL     OW59053   5.126  12.286  13.473
52407SOL    HW159054   5.100  12.345  13.402
52407SOL    HW259055   5.184  12.338  13.527
52408SOL     OW59056  10.679   9.991   3.440
52408SOL    HW159057  10.764   9.997   3.397
52408SOL    HW259058  10.616  10.014   3.371
52409SOL     OW59059  10.905  11.752  11.750
52409SOL    HW159060  10.944  11.839  11.737
52409SOL    HW259061  10.939  11.722  11.834
52410SOL     OW59062   1.522  13.369   2.098
52410SOL    HW159063   1.468  13.349   2.174
52410SOL    HW259064   1.606  13.396   2.134
52411SOL     OW59065  13.859   1.928  11.696
52411SOL    HW159066  13.845   1.844  11.741
52411SOL    HW259067  13.771   1.966  11.690
52412SOL     OW59068  12.121  13.418   5.715
52412SOL    HW159069  12.204  13.466   5.706
52412SOL    HW259070  12.057  13.486   5.738
52413SOL     OW59071   1.678   6.666   3.303
52413SOL    HW159072   1.731   6.705   3.373
52413SOL    HW259073   1.742   6.635   3.239
52414SOL     OW59074   8.960   1.771   1.203
52414SOL    HW159075   8.865   1.776   1.214
52414SOL    HW259076   8.996   1.802   1.286
52415SOL     OW59077  11.518  10.527  11.009
52415SOL    HW159078  11.516  10.443  10.964
52415SOL    HW259079  11.456  10.518  11.081
52416SOL     OW59080  14.674   1.379   7.826
52416SOL    HW159081  14.614   1.370   7.900
52416SOL    HW259082  14.758   1.347   7.860
52417SOL     OW59083   0.692  13.221   4.088
52417SOL    HW159084   0.699  13.307   4.129
52417SOL    HW259085   0.769  13.173   4.119
52418SOL     OW59086   0.867  13.642   0.620
52418SOL    HW159087   0.906  13.555   0.616
52418SOL    HW259088   0.774  13.628   0.602
52419SOL     OW59089  13.385   5.311   9.100
52419SOL    HW159090  13.337   5.380   9.052
52419SOL    HW259091  13.317   5.247   9.124
52420SOL     OW59092  10.856   6.054  13.884
52420SOL    HW159093  10.773   6.045  13.837
52420SOL    HW259094  10.875   5.966  13.917
52421SOL     OW59095   4.906  13.978   5.119
52421SOL    HW159096   4.999  13.957   5.130
52421SOL    HW259097   4.900  14.015   5.031
52422SOL     OW59098   8.178   3.695   5.809
52422SOL    HW159099   8.251   3.700   5.747
52422SOL    HW259100   8.194   3.614   5.858
52423SOL     OW59101  11.596   3.690   1.778
52423SOL    HW159102  11.528   3.689   1.846
52423SOL    HW259103  11.585   3.775   1.735
52424SOL     OW59104   2.200   4.648  12.152
52424SOL    HW159105   2.266   4.677  12.214
52424SOL    HW259106   2.170   4.564  12.187
52425SOL     OW59107   8.644   2.207   0.436
52425SOL    HW159108   8.732   2.240   0.457
52425SOL    HW259109   8.644   2.198   0.341
52426SOL     OW59110  10.683   0.221  14.309
52426SOL    HW159111  10.706   0.158  14.377
52426SOL    HW259112  10.732   0.300  14.332
52427SOL     OW59113   0.218   9.172   9.249
52427SOL    HW159114   0.155   9.101   9.233
52427SOL    HW259115   0.264   9.145   9.328
52428SOL     OW59116   7.855  10.786  12.986
52428SOL    HW159117   7.900  10.747  13.061
52428SOL    HW259118   7.844  10.714  12.924
52429SOL     OW59119   1.842  11.323   8.471
52429SOL    HW159120   1.831  11.325   8.376
52429SOL    HW259121   1.904  11.393   8.489
52430SOL     OW59122   5.144   2.006   4.545
52430SOL    HW159123   5.213   1.978   4.485
52430SOL    HW259124   5.063   1.994   4.496
52431SOL     OW59125  14.047   7.769  12.313
52431SOL    HW159126  14.108   7.700  12.286
52431SOL    HW259127  13.967   7.722  12.337
52432SOL     OW59128   6.525   0.214   0.453
52432SOL    HW159129   6.475   0.146   0.499
52432SOL    HW259130   6.573   0.166   0.386
52433SOL     OW59131   7.529   8.395   5.654
52433SOL    HW159132   7.449   8.343   5.652
52433SOL    HW259133   7.592   8.340   5.701
52434SOL     OW59134   2.115  11.987   2.810
52434SOL    HW159135   2.085  11.949   2.892
52434SOL    HW259136   2.203  12.019   2.829
52435SOL     OW59137   5.995   4.711   2.081
52435SOL    HW159138   5.913   4.692   2.128
52435SOL    HW259139   6.038   4.627   2.073
52436SOL     OW59140  14.751  14.230   9.426
52436SOL    HW159141  14.761  14.178   9.505
52436SOL    HW259142  14.831  14.213   9.376
52437SOL     OW59143   9.120  10.473  11.272
52437SOL    HW159144   9.073  10.556  11.285
52437SOL    HW259145   9.115  10.430  11.358
52438SOL     OW59146  10.127   6.240   4.423
52438SOL    HW159147  10.158   6.330   4.413
52438SOL    HW259148  10.204   6.186   4.402
52439SOL     OW59149   1.756   3.810   2.644
52439SOL    HW159150   1.813   3.851   2.709
52439SOL    HW259151   1.794   3.834   2.560
52440SOL     OW59152   3.038   3.811  12.471
52440SOL    HW159153   2.971   3.755  12.432
52440SOL    HW259154   3.012   3.819  12.563
52441SOL     OW59155   7.657   5.600   3.036
52441SOL    HW159156   7.716   5.656   2.986
52441SOL    HW259157   7.708   5.573   3.112
52442SOL     OW59158   8.565   0.383   5.032
52442SOL    HW159159   8.522   0.342   4.958
52442SOL    HW259160   8.494   0.421   5.083
52443SOL     OW59161   8.647   2.936  14.227
52443SOL    HW159162   8.675   2.849  14.197
52443SOL    HW259163   8.582   2.917  14.296
52444SOL     OW59164   6.197   0.628   8.500
52444SOL    HW159165   6.290   0.604   8.501
52444SOL    HW259166   6.180   0.662   8.588
52445SOL     OW59167   0.139   4.424  14.436
52445SOL    HW159168   0.062   4.370  14.455
52445SOL    HW259169   0.171   4.390  14.352
52446SOL     OW59170  12.021  13.609  13.980
52446SOL    HW159171  12.083  13.628  14.051
52446SOL    HW259172  11.936  13.603  14.023
52447SOL     OW59173   6.692   5.885   0.619
52447SOL    HW159174   6.706   5.902   0.526
52447SOL    HW259175   6.640   5.805   0.621
52448SOL     OW59176  13.396   1.467   1.931
52448SOL    HW159177  13.444   1.476   2.014
52448SOL    HW259178  13.321   1.524   1.940
52449SOL     OW59179  10.374   2.645  10.568
52449SOL    HW159180  10.384   2.577  10.502
52449SOL    HW259181  10.300   2.698  10.538
52450SOL     OW59182   4.641   7.677   1.734
52450SOL    HW159183   4.647   7.755   1.679
52450SOL    HW259184   4.703   7.616   1.694
52451SOL     OW59185  10.849   9.935   1.818
52451SOL    HW159186  10.760   9.966   1.833
52451SOL    HW259187  10.888  10.000   1.759
52452SOL     OW59188  11.590   7.091   5.880
52452SOL    HW159189  11.557   7.164   5.827
52452SOL    HW259190  11.655   7.048   5.824
52453SOL     OW59191   5.391   3.994  11.948
52453SOL    HW159192   5.339   4.047  12.009
52453SOL    HW259193   5.478   4.034  11.949
52454SOL     OW59194   9.174  14.636   4.724
52454SOL    HW159195   9.120  14.715   4.728
52454SOL    HW259196   9.116  14.566   4.755
52455SOL     OW59197  14.405   5.171  13.313
52455SOL    HW159198  14.472   5.162  13.245
52455SOL    HW259199  14.453   5.196  13.392
52456SOL     OW59200   8.512   8.883   9.021
52456SOL    HW159201   8.494   8.901   9.114
52456SOL    HW259202   8.456   8.809   9.000
52457SOL     OW59203   2.581  11.125  14.484
52457SOL    HW159204   2.555  11.147  14.573
52457SOL    HW259205   2.590  11.210  14.440
52458SOL     OW59206  12.728   1.599  14.284
52458SOL    HW159207  12.636   1.609  14.307
52458SOL    HW259208  12.751   1.510  14.312
52459SOL     OW59209   4.241   7.221   7.957
52459SOL    HW159210   4.252   7.178   8.042
52459SOL    HW259211   4.329   7.223   7.920
52460SOL     OW59212   0.436  11.793   3.153
52460SOL    HW159213   0.357  11.841   3.126
52460SOL    HW259214   0.423  11.705   3.118
52461SOL     OW59215   0.700   0.501   6.941
52461SOL    HW159216   0.740   0.443   6.876
52461SOL    HW259217   0.746   0.481   7.023
52462SOL     OW59218  11.840   8.244   8.917
52462SOL    HW159219  11.769   8.286   8.869
52462SOL    HW259220  11.800   8.217   9.000
52463SOL     OW59221   2.214   7.890   9.969
52463SOL    HW159222   2.232   7.933  10.053
52463SOL    HW259223   2.228   7.797   9.985
52464SOL     OW59224  13.322   9.777   2.639
52464SOL    HW159225  13.333   9.695   2.687
52464SOL    HW259226  13.410   9.797   2.606
52465SOL     OW59227   9.282   3.233   1.551
52465SOL    HW159228   9.288   3.296   1.623
52465SOL    HW259229   9.217   3.270   1.492
52466SOL     OW59230   9.429  14.863  14.078
52466SOL    HW159231   9.336   0.005  14.068
52466SOL    HW259232   9.438  14.837  14.170
52467SOL     OW59233   9.834   3.086   7.440
52467SOL    HW159234   9.888   3.061   7.515
52467SOL    HW259235   9.747   3.050   7.460
52468SOL     OW59236   9.118   4.255   8.229
52468SOL    HW159237   9.173   4.177   8.241
52468SOL    HW259238   9.029   4.223   8.233
52469SOL     OW59239   6.295   4.456  14.469
52469SOL    HW159240   6.378   4.502  14.457
52469SOL    HW259241   6.317   4.379  14.521
52470SOL     OW59242   2.786   9.638   4.180
52470SOL    HW159243   2.716   9.703   4.176
52470SOL    HW259244   2.767   9.585   4.257
52471SOL     OW59245   7.866   2.444   2.335
52471SOL    HW159246   7.942   2.441   2.393
52471SOL    HW259247   7.822   2.526   2.358
52472SOL     OW59248   9.583  14.424  12.039
52472SOL    HW159249   9.555  14.514  12.060
52472SOL    HW259250   9.678  14.430  12.033
52473SOL     OW59251   5.448  12.370  11.055
52473SOL    HW159252   5.494  12.413  11.127
52473SOL    HW259253   5.517  12.344  10.994
52474SOL     OW59254   6.274   5.488  14.640
52474SOL    HW159255   6.217   5.412  14.636
52474SOL    HW259256   6.225   5.558  14.597
52475SOL     OW59257   2.655   6.591   7.146
52475SOL    HW159258   2.606   6.580   7.227
52475SOL    HW259259   2.626   6.676   7.112
52476SOL     OW59260   9.957   5.558  14.801
52476SOL    HW159261  10.035   5.607  14.826
52476SOL    HW259262   9.909   5.617  14.742
52477SOL     OW59263   0.416   3.864  10.642
52477SOL    HW159264   0.431   3.898  10.730
52477SOL    HW259265   0.387   3.774  10.656
52478SOL     OW59266  14.817   9.224  10.930
52478SOL    HW159267  14.777   9.253  11.011
52478SOL    HW259268  14.830   9.130  10.941
52479SOL     OW59269   1.276   2.307  10.191
52479SOL    HW159270   1.210   2.345  10.133
52479SOL    HW259271   1.259   2.213  10.188
52480SOL     OW59272  10.610   1.090   5.412
52480SOL    HW159273  10.565   1.148   5.474
52480SOL    HW259274  10.541   1.052   5.358
52481SOL     OW59275   2.416   4.646   3.422
52481SOL    HW159276   2.418   4.660   3.327
52481SOL    HW259277   2.372   4.724   3.457
52482SOL     OW59278   9.901  11.877  13.307
52482SOL    HW159279   9.993  11.851  13.317
52482SOL    HW259280   9.879  11.852  13.218
52483SOL     OW59281  10.011   9.288  12.358
52483SOL    HW159282  10.088   9.271  12.304
52483SOL    HW259283   9.937   9.269  12.301
52484SOL     OW59284   3.717  12.868   1.551
52484SOL    HW159285   3.678  12.892   1.467
52484SOL    HW259286   3.642  12.845   1.606
52485SOL     OW59287  13.822  12.778  10.779
52485SOL    HW159288  13.917  12.778  10.769
52485SOL    HW259289  13.805  12.841  10.850
52486SOL     OW59290   3.447   4.448  11.013
52486SOL    HW159291   3.399   4.379  10.968
52486SOL    HW259292   3.512   4.477  10.949
52487SOL     OW59293   5.308   9.631   1.933
52487SOL    HW159294   5.323   9.668   2.020
52487SOL    HW259295   5.287   9.539   1.948
52488SOL     OW59296   2.504  12.074  13.675
52488SOL    HW159297   2.524  12.168  13.679
52488SOL    HW259298   2.453  12.057  13.754
52489SOL     OW59299   5.062   1.448   2.766
52489SOL    HW159300   5.060   1.389   2.690
52489SOL    HW259301   4.980   1.497   2.760
52490SOL     OW59302   5.275   4.000   9.641
52490SOL    HW159303   5.351   4.042   9.682
52490SOL    HW259304   5.302   3.983   9.551
52491SOL     OW59305   1.744   5.407   6.842
52491SOL    HW159306   1.698   5.339   6.891
52491SOL    HW259307   1.741   5.377   6.751
52492SOL     OW59308  14.483  11.803   3.865
52492SOL    HW159309  14.437  11.886   3.883
52492SOL    HW259310  14.543  11.824   3.794
52493SOL     OW59311  12.061   4.154   8.849
52493SOL    HW159312  12.009   4.197   8.917
52493SOL    HW259313  12.020   4.069   8.837
52494SOL     OW59314   0.554   6.772   4.062
52494SOL    HW159315   0.546   6.866   4.079
52494SOL    HW259316   0.476   6.751   4.011
52495SOL     OW59317   0.546  12.744  11.358
52495SOL    HW159318   0.603  12.820  11.342
52495SOL    HW259319   0.527  12.748  11.451
52496SOL     OW59320   5.708   3.153  13.900
52496SOL    HW159321   5.731   3.078  13.955
52496SOL    HW259322   5.614   3.165  13.912
52497SOL     OW59323  12.985   2.660  12.069
52497SOL    HW159324  12.994   2.593  12.137
52497SOL    HW259325  12.900   2.643  12.030
52498SOL     OW59326  14.763  12.412   1.954
52498SOL    HW159327  14.796  12.356   2.024
52498SOL    HW259328  14.668  12.410   1.965
52499SOL     OW59329   6.683   7.364   3.955
52499SOL    HW159330   6.620   7.294   3.940
52499SOL    HW259331   6.657   7.402   4.039
52500SOL     OW59332   6.580   7.687   7.434
52500SOL    HW159333   6.525   7.740   7.492
52500SOL    HW259334   6.580   7.734   7.351
52501SOL     OW59335  11.261  11.986  13.020
52501SOL    HW159336  11.338  11.946  13.059
52501SOL    HW259337  11.196  11.988  13.091
52502SOL     OW59338  11.348   5.695   4.260
52502SOL    HW159339  11.365   5.672   4.168
52502SOL    HW259340  11.357   5.612   4.307
52503SOL     OW59341   6.315   5.797  13.417
52503SOL    HW159342   6.410   5.795  13.433
52503SOL    HW259343   6.301   5.875  13.364
52504SOL     OW59344   2.777  11.000   5.482
52504SOL    HW159345   2.707  10.985   5.545
52504SOL    HW259346   2.853  10.956   5.519
52505SOL     OW59347   9.410   2.724   4.295
52505SOL    HW159348   9.472   2.692   4.362
52505SOL    HW259349   9.325   2.694   4.325
52506SOL     OW59350  10.964   1.850   9.627
52506SOL    HW159351  10.940   1.759   9.644
52506SOL    HW259352  11.033   1.844   9.561
52507SOL     OW59353  13.278  12.285   9.494
52507SOL    HW159354  13.370  12.286   9.467
52507SOL    HW259355  13.274  12.346   9.568
52508SOL     OW59356  12.496  12.225   4.708
52508SOL    HW159357  12.450  12.153   4.665
52508SOL    HW259358  12.490  12.205   4.801
52509SOL     OW59359  11.141   7.968   0.139
52509SOL    HW159360  11.182   7.957   0.225
52509SOL    HW259361  11.121   7.878   0.111
52510SOL     OW59362  14.417  14.592  14.713
52510SOL    HW159363  14.345  14.536  14.685
52510SOL    HW259364  14.495  14.553  14.673
52511SOL     OW59365  13.733   6.485   7.531
52511SOL    HW159366  13.681   6.488   7.450
52511SOL    HW259367  13.786   6.406   7.522
52512SOL     OW59368  12.454   3.573  14.445
52512SOL    HW159369  12.379   3.573  14.504
52512SOL    HW259370  12.517   3.514  14.487
52513SOL     OW59371   2.697  10.453  13.996
52513SOL    HW159372   2.701  10.463  14.091
52513SOL    HW259373   2.716  10.541  13.963
52514SOL     OW59374   0.721   3.414   1.749
52514SOL    HW159375   0.763   3.341   1.702
52514SOL    HW259376   0.639   3.378   1.781
52515SOL     OW59377   9.021   3.991   4.336
52515SOL    HW159378   9.096   3.959   4.287
52515SOL    HW259379   9.043   3.975   4.428
52516SOL     OW59380   9.458   3.372   4.557
52516SOL    HW159381   9.461   3.359   4.463
52516SOL    HW259382   9.532   3.321   4.591
52517SOL     OW59383   4.777  12.508   2.414
52517SOL    HW159384   4.788  12.425   2.367
52517SOL    HW259385   4.708  12.491   2.478
52518SOL     OW59386   0.509  14.164   2.678
52518SOL    HW159387   0.523  14.136   2.587
52518SOL    HW259388   0.474  14.086   2.721
52519SOL     OW59389   7.469   4.321   2.434
52519SOL    HW159390   7.535   4.353   2.373
52519SOL    HW259391   7.507   4.242   2.471
52520SOL     OW59392  13.553   1.384   0.581
52520SOL    HW159393  13.478   1.353   0.632
52520SOL    HW259394  13.515   1.421   0.502
52521SOL     OW59395  11.144   2.671  10.249
52521SOL    HW159396  11.108   2.651  10.336
52521SOL    HW259397  11.234   2.699  10.266
52522SOL     OW59398   9.980   6.936   7.150
52522SOL    HW159399  10.044   6.994   7.192
52522SOL    HW259400   9.991   6.852   7.195
52523SOL     OW59401   1.986   4.182  10.772
52523SOL    HW159402   2.044   4.107  10.787
52523SOL    HW259403   2.032   4.236  10.708
52524SOL     OW59404   4.600  10.664   4.236
52524SOL    HW159405   4.588  10.758   4.229
52524SOL    HW259406   4.690  10.653   4.267
52525SOL     OW59407  11.026   8.310   3.775
52525SOL    HW159408  11.076   8.379   3.732
52525SOL    HW259409  10.972   8.356   3.839
52526SOL     OW59410  13.849  11.059   4.634
52526SOL    HW159411  13.927  11.108   4.609
52526SOL    HW259412  13.860  11.041   4.728
52527SOL     OW59413   1.189  12.881   3.484
52527SOL    HW159414   1.134  12.949   3.524
52527SOL    HW259415   1.218  12.920   3.401
52528SOL     OW59416  10.607  13.392   0.116
52528SOL    HW159417  10.619  13.370   0.208
52528SOL    HW259418  10.512  13.402   0.105
52529SOL     OW59419   4.064  12.600  13.820
52529SOL    HW159420   4.072  12.695  13.832
52529SOL    HW259421   4.050  12.589  13.726
52530SOL     OW59422  13.802  13.001  13.720
52530SOL    HW159423  13.840  13.015  13.807
52530SOL    HW259424  13.718  13.047  13.724
52531SOL     OW59425   6.217   6.849  10.695
52531SOL    HW159426   6.147   6.909  10.721
52531SOL    HW259427   6.224   6.787  10.767
52532SOL     OW59428   0.511   8.989  14.296
52532SOL    HW159429   0.488   9.073  14.255
52532SOL    HW259430   0.549   9.014  14.381
52533SOL     OW59431  11.204   7.081   5.568
52533SOL    HW159432  11.241   7.072   5.480
52533SOL    HW259433  11.123   7.132   5.555
52534SOL     OW59434   4.656   5.705   8.930
52534SOL    HW159435   4.713   5.742   8.863
52534SOL    HW259436   4.717   5.665   8.993
52535SOL     OW59437   4.712   0.206   5.492
52535SOL    HW159438   4.671   0.210   5.579
52535SOL    HW259439   4.645   0.240   5.433
52536SOL     OW59440   3.398   6.391   3.015
52536SOL    HW159441   3.472   6.429   3.061
52536SOL    HW259442   3.389   6.444   2.936
52537SOL     OW59443   8.802  11.390   4.614
52537SOL    HW159444   8.719  11.438   4.616
52537SOL    HW259445   8.782  11.310   4.566
52538SOL     OW59446   8.239   6.822   8.718
52538SOL    HW159447   8.234   6.776   8.634
52538SOL    HW259448   8.157   6.799   8.762
52539SOL     OW59449   0.747   5.247  11.869
52539SOL    HW159450   0.712   5.180  11.928
52539SOL    HW259451   0.810   5.295  11.922
52540SOL     OW59452  11.135  13.269   7.663
52540SOL    HW159453  11.160  13.299   7.751
52540SOL    HW259454  11.064  13.327   7.636
52541SOL     OW59455   8.813  13.396   9.438
52541SOL    HW159456   8.851  13.465   9.383
52541SOL    HW259457   8.869  13.393   9.515
52542SOL     OW59458  14.765  12.290   9.669
52542SOL    HW159459  14.669  12.291   9.675
52542SOL    HW259460  14.786  12.363   9.612
52543SOL     OW59461   9.420   9.058   2.517
52543SOL    HW159462   9.472   8.982   2.489
52543SOL    HW259463   9.483   9.130   2.519
52544SOL     OW59464   9.811   7.525   1.558
52544SOL    HW159465   9.791   7.432   1.550
52544SOL    HW259466   9.747   7.568   1.501
52545SOL     OW59467   0.058   1.195   2.892
52545SOL    HW159468   0.035   1.116   2.843
52545SOL    HW259469  14.852   1.233   2.915
52546SOL     OW59470   1.925   7.004  10.789
52546SOL    HW159471   1.878   7.042  10.863
52546SOL    HW259472   1.871   6.929  10.763
52547SOL     OW59473   6.787  13.388   2.728
52547SOL    HW159474   6.701  13.377   2.767
52547SOL    HW259475   6.776  13.360   2.637
52548SOL     OW59476   5.278   7.929   8.316
52548SOL    HW159477   5.362   7.907   8.356
52548SOL    HW259478   5.254   8.013   8.356
52549SOL     OW59479   5.877   5.343   4.953
52549SOL    HW159480   5.898   5.350   4.860
52549SOL    HW259481   5.914   5.259   4.980
52550SOL     OW59482   3.317  13.758  10.731
52550SOL    HW159483   3.264  13.835  10.755
52550SOL    HW259484   3.252  13.690  10.712
52551SOL     OW59485  14.750   5.507   7.198
52551SOL    HW159486  14.793   5.592   7.206
52551SOL    HW259487  14.793   5.465   7.123
52552SOL     OW59488  12.335   1.366  11.889
52552SOL    HW159489  12.340   1.390  11.797
52552SOL    HW259490  12.318   1.448  11.935
52553SOL     OW59491   7.437   5.057  10.799
52553SOL    HW159492   7.427   5.079  10.892
52553SOL    HW259493   7.504   5.118  10.767
52554SOL     OW59494   9.469   8.874   8.408
52554SOL    HW159495   9.392   8.840   8.362
52554SOL    HW259496   9.543   8.851   8.352
52555SOL     OW59497   5.767  10.740   8.248
52555SOL    HW159498   5.848  10.751   8.198
52555SOL    HW259499   5.746  10.828   8.278
52556SOL     OW59500   2.035   9.593  12.763
52556SOL    HW159501   2.015   9.585  12.856
52556SOL    HW259502   1.982   9.526  12.720
52557SOL     OW59503  14.464   1.354  10.564
52557SOL    HW159504  14.472   1.259  10.556
52557SOL    HW259505  14.372   1.368  10.589
52558SOL     OW59506   2.601   1.557   1.092
52558SOL    HW159507   2.620   1.650   1.097
52558SOL    HW259508   2.634   1.530   1.006
52559SOL     OW59509  13.529   6.308   6.105
52559SOL    HW159510  13.475   6.309   6.026
52559SOL    HW259511  13.577   6.391   6.102
52560SOL     OW59512   6.131   6.432   2.145
52560SOL    HW159513   6.204   6.375   2.169
52560SOL    HW259514   6.170   6.497   2.086
52561SOL     OW59515   8.992   8.201  14.724
52561SOL    HW159516   8.967   8.118  14.764
52561SOL    HW259517   9.028   8.252  14.797
52562SOL     OW59518   6.506  14.385  10.842
52562SOL    HW159519   6.554  14.451  10.792
52562SOL    HW259520   6.448  14.436  10.899
52563SOL     OW59521  14.792  14.234  13.377
52563SOL    HW159522  14.725  14.298  13.403
52563SOL    HW259523  14.816  14.189  13.458
52564SOL     OW59524  10.024   4.034  12.030
52564SOL    HW159525   9.965   3.995  11.965
52564SOL    HW259526  10.100   4.063  11.979
52565SOL     OW59527  11.429   3.663  10.632
52565SOL    HW159528  11.378   3.735  10.594
52565SOL    HW259529  11.461   3.697  10.715
52566SOL     OW59530   9.930  10.173   5.973
52566SOL    HW159531   9.947  10.263   6.002
52566SOL    HW259532   9.961  10.171   5.882
52567SOL     OW59533   8.161   2.773   6.679
52567SOL    HW159534   8.186   2.743   6.766
52567SOL    HW259535   8.195   2.706   6.620
52568SOL     OW59536  12.295  10.478  11.881
52568SOL    HW159537  12.288  10.395  11.928
52568SOL    HW259538  12.278  10.456  11.790
52569SOL     OW59539   4.534   5.170   4.007
52569SOL    HW159540   4.574   5.220   3.935
52569SOL    HW259541   4.466   5.117   3.965
52570SOL     OW59542  11.757  11.682   9.635
52570SOL    HW159543  11.713  11.630   9.702
52570SOL    HW259544  11.740  11.635   9.553
52571SOL     OW59545   6.781   6.676   2.707
52571SOL    HW159546   6.785   6.709   2.617
52571SOL    HW259547   6.727   6.597   2.702
52572SOL     OW59548  13.993   7.763   9.347
52572SOL    HW159549  14.087   7.776   9.331
52572SOL    HW259550  13.972   7.823   9.418
52573SOL     OW59551   0.197   4.148  11.822
52573SOL    HW159552   0.258   4.077  11.802
52573SOL    HW259553   0.110   4.110  11.807
52574SOL     OW59554  12.801  12.970  11.546
52574SOL    HW159555  12.880  12.918  11.565
52574SOL    HW259556  12.782  13.015  11.628
52575SOL     OW59557  11.615  12.827   7.105
52575SOL    HW159558  11.707  12.819   7.130
52575SOL    HW259559  11.589  12.739   7.080
52576SOL     OW59560   0.249   5.081   8.889
52576SOL    HW159561   0.339   5.049   8.899
52576SOL    HW259562   0.200   5.036   8.957
52577SOL     OW59563  13.959   1.512   9.533
52577SOL    HW159564  14.048   1.476   9.536
52577SOL    HW259565  13.927   1.489   9.445
52578SOL     OW59566  12.406   8.633   8.834
52578SOL    HW159567  12.467   8.699   8.868
52578SOL    HW259568  12.427   8.627   8.741
52579SOL     OW59569   9.630   7.573   9.832
52579SOL    HW159570   9.623   7.639   9.901
52579SOL    HW259571   9.562   7.598   9.769
52580SOL     OW59572  13.073   8.834  12.610
52580SOL    HW159573  13.058   8.843  12.704
52580SOL    HW259574  13.167   8.850  12.599
52581SOL     OW59575  14.423   2.567   6.314
52581SOL    HW159576  14.458   2.651   6.344
52581SOL    HW259577  14.335   2.589   6.281
52582SOL     OW59578  13.754   6.974  10.008
52582SOL    HW159579  13.801   6.896   9.980
52582SOL    HW259580  13.753   7.031   9.931
52583SOL     OW59581   5.875  11.402   6.200
52583SOL    HW159582   5.898  11.387   6.292
52583SOL    HW259583   5.783  11.430   6.203
52584SOL     OW59584  13.911   1.869  14.802
52584SOL    HW159585  13.964   1.922  14.742
52584SOL    HW259586  13.950   1.781  14.797
52585SOL     OW59587   8.474   5.584   5.774
52585SOL    HW159588   8.488   5.622   5.688
52585SOL    HW259589   8.457   5.659   5.832
52586SOL     OW59590   6.609   1.933  14.250
52586SOL    HW159591   6.679   1.971  14.303
52586SOL    HW259592   6.531   1.938  14.306
52587SOL     OW59593   2.411   8.437   8.615
52587SOL    HW159594   2.405   8.359   8.560
52587SOL    HW259595   2.488   8.484   8.582
52588SOL     OW59596  14.748   9.835   3.521
52588SOL    HW159597  14.774   9.744   3.539
52588SOL    HW259598  14.653   9.836   3.532
52589SOL     OW59599  10.965  12.264   5.168
52589SOL    HW159600  10.875  12.264   5.200
52589SOL    HW259601  10.986  12.171   5.156
52590SOL     OW59602   2.455   1.435   5.738
52590SOL    HW159603   2.457   1.466   5.828
52590SOL    HW259604   2.372   1.387   5.731
52591SOL     OW59605   9.982  12.624   4.225
52591SOL    HW159606   9.904  12.676   4.206
52591SOL    HW259607   9.951  12.534   4.226
52592SOL     OW59608  11.643  10.698   6.837
52592SOL    HW159609  11.650  10.684   6.743
52592SOL    HW259610  11.726  10.667   6.872
52593SOL     OW59611   3.127  13.526   0.728
52593SOL    HW159612   3.167  13.450   0.772
52593SOL    HW259613   3.201  13.578   0.698
52594SOL     OW59614  14.402   4.120   6.839
52594SOL    HW159615  14.405   4.130   6.934
52594SOL    HW259616  14.342   4.046   6.825
52595SOL     OW59617   1.130  12.086   7.200
52595SOL    HW159618   1.100  12.039   7.122
52595SOL    HW259619   1.110  12.178   7.181
52596SOL     OW59620  12.381   4.744   9.898
52596SOL    HW159621  12.302   4.798   9.910
52596SOL    HW259622  12.347   4.659   9.871
52597SOL     OW59623   0.049   8.763   2.168
52597SOL    HW159624  14.844   8.726   2.195
52597SOL    HW259625   0.085   8.699   2.107
52598SOL     OW59626  13.811  14.795  14.029
52598SOL    HW159627  13.789  14.754  13.945
52598SOL    HW259628  13.859  14.727  14.077
52599SOL     OW59629   4.927   6.027  11.464
52599SOL    HW159630   5.020   6.002  11.457
52599SOL    HW259631   4.927   6.100  11.526
52600SOL     OW59632   0.618  12.856   4.812
52600SOL    HW159633   0.620  12.773   4.859
52600SOL    HW259634   0.534  12.855   4.766
52601SOL     OW59635  11.747   6.189   6.509
52601SOL    HW159636  11.685   6.261   6.496
52601SOL    HW259637  11.726   6.127   6.439
52602SOL     OW59638   2.993   7.903  12.633
52602SOL    HW159639   3.035   7.972  12.581
52602SOL    HW259640   2.977   7.945  12.718
52603SOL     OW59641   4.168   3.832   7.876
52603SOL    HW159642   4.209   3.754   7.913
52603SOL    HW259643   4.166   3.895   7.949
52604SOL     OW59644  11.848   9.044   1.943
52604SOL    HW159645  11.790   8.995   2.001
52604SOL    HW259646  11.891   8.976   1.890
52605SOL     OW59647  13.523   5.636   0.753
52605SOL    HW159648  13.508   5.541   0.750
52605SOL    HW259649  13.458   5.673   0.695
52606SOL     OW59650  12.709   1.369   2.097
52606SOL    HW159651  12.616   1.386   2.103
52606SOL    HW259652  12.750   1.455   2.090
52607SOL     OW59653   9.609   3.089   1.629
52607SOL    HW159654   9.608   3.095   1.534
52607SOL    HW259655   9.619   3.179   1.660
52608SOL     OW59656   9.953   4.852   8.155
52608SOL    HW159657  10.043   4.831   8.183
52608SOL    HW259658   9.951   4.830   8.062
52609SOL     OW59659  14.463  13.321  13.729
52609SOL    HW159660  14.554  13.296  13.711
52609SOL    HW259661  14.445  13.285  13.816
52610SOL     OW59662   2.400  11.105   3.693
52610SOL    HW159663   2.444  11.187   3.669
52610SOL    HW259664   2.451  11.071   3.766
52611SOL     OW59665   7.881   8.544  13.538
52611SOL    HW159666   7.857   8.636  13.529
52611SOL    HW259667   7.844   8.518  13.623
52612SOL     OW59668   6.223   3.550   3.379
52612SOL    HW159669   6.294   3.514   3.433
52612SOL    HW259670   6.247   3.641   3.364
52613SOL     OW59671   7.102   7.625  11.460
52613SOL    HW159672   7.060   7.697  11.414
52613SOL    HW259673   7.134   7.567  11.390
52614SOL     OW59674   9.691   5.269  13.731
52614SOL    HW159675   9.658   5.180  13.742
52614SOL    HW259676   9.725   5.273  13.642
52615SOL     OW59677   9.169   3.547  13.976
52615SOL    HW159678   9.090   3.588  14.013
52615SOL    HW259679   9.143   3.456  13.960
52616SOL     OW59680   3.890   9.055   2.446
52616SOL    HW159681   3.807   9.095   2.421
52616SOL    HW259682   3.957   9.116   2.414
52617SOL     OW59683   4.725   3.911   4.416
52617SOL    HW159684   4.760   3.916   4.505
52617SOL    HW259685   4.640   3.869   4.426
52618SOL     OW59686   2.421  14.434   6.565
52618SOL    HW159687   2.339  14.459   6.524
52618SOL    HW259688   2.441  14.347   6.529
52619SOL     OW59689  10.011   1.162   9.951
52619SOL    HW159690  10.027   1.069   9.969
52619SOL    HW259691   9.945   1.162   9.881
52620SOL     OW59692  12.797  11.717  11.938
52620SOL    HW159693  12.819  11.797  11.986
52620SOL    HW259694  12.809  11.647  12.001
52621SOL     OW59695   7.343   1.277   5.193
52621SOL    HW159696   7.341   1.213   5.122
52621SOL    HW259697   7.421   1.329   5.175
52622SOL     OW59698   1.190   0.766  12.018
52622SOL    HW159699   1.246   0.735  11.947
52622SOL    HW259700   1.211   0.710  12.092
52623SOL     OW59701   1.624   7.161  11.815
52623SOL    HW159702   1.716   7.186  11.803
52623SOL    HW259703   1.619   7.127  11.904
52624SOL     OW59704   0.920   3.862  12.618
52624SOL    HW159705   0.905   3.925  12.689
52624SOL    HW259706   0.980   3.798  12.656
52625SOL     OW59707   1.739  11.978   7.947
52625SOL    HW159708   1.705  11.912   7.887
52625SOL    HW259709   1.722  12.061   7.904
52626SOL     OW59710  11.382  14.519   1.687
52626SOL    HW159711  11.434  14.537   1.608
52626SOL    HW259712  11.442  14.538   1.759
52627SOL     OW59713  10.908   9.405   7.733
52627SOL    HW159714  10.873   9.324   7.769
52627SOL    HW259715  11.002   9.399   7.747
52628SOL     OW59716   8.603   0.068   4.438
52628SOL    HW159717   8.624   0.162   4.444
52628SOL    HW259718   8.579   0.043   4.527
52629SOL     OW59719  13.184   0.739   6.713
52629SOL    HW159720  13.163   0.832   6.707
52629SOL    HW259721  13.140   0.699   6.638
52630SOL     OW59722   7.701   1.359  11.773
52630SOL    HW159723   7.761   1.393  11.707
52630SOL    HW259724   7.672   1.436  11.821
52631SOL     OW59725   2.970   7.312  10.396
52631SOL    HW159726   3.045   7.328  10.338
52631SOL    HW259727   2.913   7.254  10.346
52632SOL     OW59728   4.438   3.567   9.781
52632SOL    HW159729   4.374   3.609   9.839
52632SOL    HW259730   4.489   3.640   9.745
52633SOL     OW59731   9.429   5.833   4.949
52633SOL    HW159732   9.490   5.826   4.876
52633SOL    HW259733   9.349   5.791   4.917
52634SOL     OW59734   8.225   7.209  10.546
52634SOL    HW159735   8.132   7.216  10.567
52634SOL    HW259736   8.232   7.127  10.496
52635SOL     OW59737   6.001  10.403  13.396
52635SOL    HW159738   5.953  10.323  13.416
52635SOL    HW259739   5.943  10.474  13.426
52636SOL     OW59740   2.690   1.209   1.032
52636SOL    HW159741   2.693   1.232   0.939
52636SOL    HW259742   2.748   1.133   1.039
52637SOL     OW59743  10.504   3.586   6.806
52637SOL    HW159744  10.537   3.520   6.744
52637SOL    HW259745  10.449   3.643   6.752
52638SOL     OW59746   0.926   4.691   4.255
52638SOL    HW159747   0.929   4.743   4.175
52638SOL    HW259748   0.909   4.755   4.324
52639SOL     OW59749   2.428   9.131   4.913
52639SOL    HW159750   2.503   9.071   4.914
52639SOL    HW259751   2.422   9.163   5.003
52640SOL     OW59752   7.096   2.076   8.334
52640SOL    HW159753   7.076   1.983   8.331
52640SOL    HW259754   7.126   2.098   8.246
52641SOL     OW59755   4.334   2.425  13.573
52641SOL    HW159756   4.381   2.487  13.517
52641SOL    HW259757   4.403   2.368  13.608
52642SOL     OW59758  13.478  10.605   8.971
52642SOL    HW159759  13.385  10.584   8.965
52642SOL    HW259760  13.518  10.556   8.899
52643SOL     OW59761   4.501   6.613  10.111
52643SOL    HW159762   4.564   6.605  10.040
52643SOL    HW259763   4.534   6.556  10.180
52644SOL     OW59764  13.189   2.578   8.348
52644SOL    HW159765  13.167   2.495   8.306
52644SOL    HW259766  13.229   2.631   8.279
52645SOL     OW59767   1.552   5.238  10.844
52645SOL    HW159768   1.469   5.191  10.839
52645SOL    HW259769   1.619   5.173  10.822
52646SOL     OW59770   0.508   2.323   8.083
52646SOL    HW159771   0.419   2.348   8.057
52646SOL    HW259772   0.500   2.233   8.112
52647SOL     OW59773   3.003   3.916   8.425
52647SOL    HW159774   2.923   3.899   8.475
52647SOL    HW259775   3.041   3.829   8.411
52648SOL     OW59776  12.550   4.772  13.452
52648SOL    HW159777  12.542   4.723  13.370
52648SOL    HW259778  12.623   4.730  13.498
52649SOL     OW59779   6.210   1.702   9.232
52649SOL    HW159780   6.171   1.622   9.197
52649SOL    HW259781   6.299   1.703   9.196
52650SOL     OW59782  14.134   2.697   6.519
52650SOL    HW159783  14.141   2.604   6.544
52650SOL    HW259784  14.221   2.732   6.537
52651SOL     OW59785  12.314   6.791  12.380
52651SOL    HW159786  12.319   6.864  12.442
52651SOL    HW259787  12.226   6.755  12.392
52652SOL     OW59788   3.845  11.900  11.427
52652SOL    HW159789   3.927  11.863  11.393
52652SOL    HW259790   3.819  11.965  11.362
52653SOL     OW59791  13.148   7.793   6.488
52653SOL    HW159792  13.089   7.717   6.486
52653SOL    HW259793  13.144   7.823   6.579
52654SOL     OW59794  12.878   8.673   2.617
52654SOL    HW159795  12.879   8.768   2.632
52654SOL    HW259796  12.899   8.663   2.524
52655SOL     OW59797  10.114   3.440  10.696
52655SOL    HW159798  10.157   3.472  10.616
52655SOL    HW259799  10.082   3.353  10.673
52656SOL     OW59800  11.675  14.831   9.156
52656SOL    HW159801  11.713  14.814   9.242
52656SOL    HW259802  11.582  14.848   9.174
52657SOL     OW59803   1.151  11.156  12.538
52657SOL    HW159804   1.060  11.128  12.542
52657SOL    HW259805   1.167  11.197  12.623
52658SOL     OW59806   3.015   6.753   2.935
52658SOL    HW159807   2.998   6.845   2.912
52658SOL    HW259808   2.962   6.738   3.014
52659SOL     OW59809   6.328  14.188   8.026
52659SOL    HW159810   6.303  14.272   7.988
52659SOL    HW259811   6.412  14.205   8.069
52660SOL     OW59812   1.233   7.647  10.513
52660SOL    HW159813   1.248   7.667  10.606
52660SOL    HW259814   1.137   7.645  10.504
52661SOL     OW59815   1.252   8.175  13.688
52661SOL    HW159816   1.186   8.106  13.679
52661SOL    HW259817   1.234   8.215  13.773
52662SOL     OW59818   9.307  12.177  14.175
52662SOL    HW159819   9.393  12.217  14.186
52662SOL    HW259820   9.298  12.165  14.081
52663SOL     OW59821   8.699   6.018  13.531
52663SOL    HW159822   8.658   6.094  13.573
52663SOL    HW259823   8.636   5.992  13.463
52664SOL     OW59824   7.217   8.827  13.512
52664SOL    HW159825   7.218   8.793  13.602
52664SOL    HW259826   7.142   8.785  13.471
52665SOL     OW59827   0.020   2.834   6.869
52665SOL    HW159828   0.066   2.889   6.932
52665SOL    HW259829  14.828   2.793   6.919
52666SOL     OW59830   3.805  13.174  12.309
52666SOL    HW159831   3.756  13.095  12.331
52666SOL    HW259832   3.875  13.144  12.251
52667SOL     OW59833   1.817  10.250  12.410
52667SOL    HW159834   1.783  10.226  12.324
52667SOL    HW259835   1.893  10.194  12.422
52668SOL     OW59836   5.190   1.960  13.362
52668SOL    HW159837   5.198   2.011  13.443
52668SOL    HW259838   5.218   1.872  13.387
52669SOL     OW59839  13.450   4.097   4.798
52669SOL    HW159840  13.454   4.172   4.740
52669SOL    HW259841  13.542   4.079   4.821
52670SOL     OW59842   7.315  13.755   9.831
52670SOL    HW159843   7.364  13.769   9.750
52670SOL    HW259844   7.373  13.703   9.886
52671SOL     OW59845   8.938   3.374  10.656
52671SOL    HW159846   8.938   3.350  10.564
52671SOL    HW259847   8.962   3.467  10.656
52672SOL     OW59848   2.469   7.294  13.569
52672SOL    HW159849   2.440   7.346  13.644
52672SOL    HW259850   2.514   7.357  13.512
52673SOL     OW59851   8.357  12.158   3.868
52673SOL    HW159852   8.349  12.075   3.820
52673SOL    HW259853   8.273  12.202   3.855
52674SOL     OW59854   2.419  11.312   6.534
52674SOL    HW159855   2.444  11.390   6.484
52674SOL    HW259856   2.327  11.326   6.556
52675SOL     OW59857   7.682   4.583   9.289
52675SOL    HW159858   7.726   4.650   9.237
52675SOL    HW259859   7.603   4.625   9.321
52676SOL     OW59860  10.738   7.127   2.486
52676SOL    HW159861  10.731   7.222   2.489
52676SOL    HW259862  10.693   7.097   2.565
52677SOL     OW59863  10.782   1.896   0.772
52677SOL    HW159864  10.815   1.975   0.729
52677SOL    HW259865  10.695   1.884   0.734
52678SOL     OW59866   4.469   7.695  14.125
52678SOL    HW159867   4.447   7.770  14.070
52678SOL    HW259868   4.482   7.733  14.212
52679SOL     OW59869  10.335   2.178   7.667
52679SOL    HW159870  10.395   2.252   7.660
52679SOL    HW259871  10.322   2.166   7.761
52680SOL     OW59872  10.023   9.296   4.208
52680SOL    HW159873   9.978   9.226   4.161
52680SOL    HW259874   9.986   9.377   4.171
52681SOL     OW59875   4.305   6.460   9.278
52681SOL    HW159876   4.212   6.482   9.278
52681SOL    HW259877   4.333   6.475   9.368
52682SOL     OW59878  14.669   1.563   9.136
52682SOL    HW159879  14.629   1.578   9.222
52682SOL    HW259880  14.730   1.491   9.150
52683SOL     OW59881  12.570  14.468   0.742
52683SOL    HW159882  12.563  14.399   0.677
52683SOL    HW259883  12.664  14.474   0.761
52684SOL     OW59884   7.635   5.707   8.548
52684SOL    HW159885   7.656   5.652   8.623
52684SOL    HW259886   7.684   5.788   8.562
52685SOL     OW59887  11.211   1.418  11.718
52685SOL    HW159888  11.193   1.440  11.809
52685SOL    HW259889  11.129   1.439  11.672
52686SOL     OW59890   1.347   6.728  11.185
52686SOL    HW159891   1.442   6.718  11.181
52686SOL    HW259892   1.328   6.736  11.279
52687SOL     OW59893   7.161  12.204  10.760
52687SOL    HW159894   7.092  12.195  10.694
52687SOL    HW259895   7.128  12.271  10.820
52688SOL     OW59896   5.472   1.020   7.470
52688SOL    HW159897   5.512   0.937   7.444
52688SOL    HW259898   5.465   1.069   7.388
52689SOL     OW59899   1.977   9.089  11.860
52689SOL    HW159900   1.947   8.999  11.873
52689SOL    HW259901   1.899   9.136  11.832
52690SOL     OW59902   2.707   6.719   5.393
52690SOL    HW159903   2.682   6.627   5.397
52690SOL    HW259904   2.798   6.718   5.364
52691SOL     OW59905   1.384  14.420   9.822
52691SOL    HW159906   1.388  14.380   9.735
52691SOL    HW259907   1.446  14.369   9.875
52692SOL     OW59908  14.391   9.999   6.235
52692SOL    HW159909  14.322  10.023   6.297
52692SOL    HW259910  14.356  10.025   6.149
52693SOL     OW59911   5.704   1.768   5.047
52693SOL    HW159912   5.717   1.824   4.971
52693SOL    HW259913   5.611   1.743   5.044
52694SOL     OW59914   1.127   3.675   6.266
52694SOL    HW159915   1.172   3.650   6.185
52694SOL    HW259916   1.077   3.753   6.243
52695SOL     OW59917   1.963   6.495  13.087
52695SOL    HW159918   1.966   6.580  13.045
52695SOL    HW259919   1.921   6.438  13.024
52696SOL     OW59920   7.408   4.641   3.117
52696SOL    HW159921   7.346   4.582   3.159
52696SOL    HW259922   7.379   4.646   3.026
52697SOL     OW59923   7.034   8.756   3.371
52697SOL    HW159924   6.966   8.700   3.409
52697SOL    HW259925   6.993   8.793   3.292
52698SOL     OW59926   5.887  13.490   9.263
52698SOL    HW159927   5.901  13.412   9.316
52698SOL    HW259928   5.975  13.520   9.241
52699SOL     OW59929  13.371  13.863  10.150
52699SOL    HW159930  13.329  13.789  10.105
52699SOL    HW259931  13.300  13.927  10.161
52700SOL     OW59932   2.307   5.548  10.254
52700SOL    HW159933   2.255   5.628  10.255
52700SOL    HW259934   2.289   5.509  10.168
52701SOL     OW59935  12.226   8.818   1.677
52701SOL    HW159936  12.305   8.823   1.623
52701SOL    HW259937  12.210   8.908   1.705
52702SOL     OW59938  10.686  10.208   2.576
52702SOL    HW159939  10.670  10.178   2.487
52702SOL    HW259940  10.626  10.157   2.631
52703SOL     OW59941  12.583   5.246  13.130
52703SOL    HW159942  12.504   5.197  13.106
52703SOL    HW259943  12.601   5.301  13.054
52704SOL     OW59944   1.179  13.798   5.889
52704SOL    HW159945   1.183  13.706   5.913
52704SOL    HW259946   1.142  13.798   5.800
52705SOL     OW59947  10.541   9.645  12.980
52705SOL    HW159948  10.493   9.726  12.996
52705SOL    HW259949  10.583   9.659  12.895
52706SOL     OW59950  12.189   7.326   7.715
52706SOL    HW159951  12.276   7.303   7.749
52706SOL    HW259952  12.128   7.293   7.781
52707SOL     OW59953  11.211   3.993  13.118
52707SOL    HW159954  11.302   3.998  13.146
52707SOL    HW259955  11.211   3.926  13.050
52708SOL     OW59956   4.962   8.314  12.012
52708SOL    HW159957   5.038   8.255  12.017
52708SOL    HW259958   4.979   8.380  12.080
52709SOL     OW59959   0.722  14.256  13.657
52709SOL    HW159960   0.810  14.218  13.650
52709SOL    HW259961   0.668  14.200  13.601
52710SOL     OW59962   2.527   4.784   0.665
52710SOL    HW159963   2.498   4.870   0.697
52710SOL    HW259964   2.619   4.797   0.642
52711SOL     OW59965   5.706   4.926  12.132
52711SOL    HW159966   5.714   4.988  12.205
52711SOL    HW259967   5.664   4.977  12.062
52712SOL     OW59968  11.483  10.853   5.243
52712SOL    HW159969  11.425  10.804   5.186
52712SOL    HW259970  11.565  10.803   5.244
52713SOL     OW59971   4.117   0.097   7.945
52713SOL    HW159972   4.100   0.011   7.905
52713SOL    HW259973   4.057   0.156   7.900
52714SOL     OW59974   7.781  14.335   4.689
52714SOL    HW159975   7.746  14.327   4.600
52714SOL    HW259976   7.858  14.278   4.690
52715SOL     OW59977   5.700   6.884  12.057
52715SOL    HW159978   5.605   6.889  12.055
52715SOL    HW259979   5.720   6.834  12.137
52716SOL     OW59980  10.728   9.640   1.277
52716SOL    HW159981  10.703   9.550   1.256
52716SOL    HW259982  10.803   9.631   1.336
52717SOL     OW59983  11.900   2.619  12.035
52717SOL    HW159984  11.806   2.620  12.052
52717SOL    HW259985  11.925   2.712  12.036
52718SOL     OW59986   4.270   8.382   3.316
52718SOL    HW159987   4.280   8.475   3.337
52718SOL    HW259988   4.282   8.337   3.399
52719SOL     OW59989  10.207  10.628   5.890
52719SOL    HW159990  10.291  10.586   5.871
52719SOL    HW259991  10.180  10.665   5.806
52720SOL     OW59992   1.317  13.450   0.639
52720SOL    HW159993   1.344  13.359   0.652
52720SOL    HW259994   1.334  13.492   0.723
52721SOL     OW59995   0.282   3.093   2.703
52721SOL    HW159996   0.220   3.064   2.770
52721SOL    HW259997   0.368   3.083   2.744
52722SOL     OW59998   7.786   9.912   6.702
52722SOL    HW159999   7.739   9.909   6.786
52722SOL    HW260000   7.732   9.860   6.643
52723SOL     OW60001  10.133  12.498  11.534
52723SOL    HW160002  10.060  12.519  11.592
52723SOL    HW260003  10.111  12.413  11.497
52724SOL     OW60004   1.788   1.010  10.047
52724SOL    HW160005   1.856   1.036   9.985
52724SOL    HW260006   1.835   0.992  10.128
52725SOL     OW60007  10.035  12.305   8.263
52725SOL    HW160008  10.023  12.285   8.356
52725SOL    HW260009  10.033  12.401   8.259
52726SOL     OW60010   4.532  13.936   3.711
52726SOL    HW160011   4.511  13.842   3.710
52726SOL    HW260012   4.582  13.951   3.631
52727SOL     OW60013  13.841   9.598   6.107
52727SOL    HW160014  13.887   9.618   6.189
52727SOL    HW260015  13.880   9.515   6.078
52728SOL     OW60016  13.293  13.243  13.284
52728SOL    HW160017  13.377  13.197  13.292
52728SOL    HW260018  13.235  13.180  13.242
52729SOL     OW60019   4.035   5.696   3.840
52729SOL    HW160020   4.032   5.663   3.930
52729SOL    HW260021   4.127   5.715   3.824
52730SOL     OW60022   9.817   1.654   7.251
52730SOL    HW160023   9.751   1.591   7.281
52730SOL    HW260024   9.766   1.729   7.219
52731SOL     OW60025   7.155   5.943  12.598
52731SOL    HW160026   7.249   5.952  12.582
52731SOL    HW260027   7.142   5.982  12.684
52732SOL     OW60028   0.321  13.362   7.518
52732SOL    HW160029   0.346  13.409   7.439
52732SOL    HW260030   0.254  13.299   7.488
52733SOL     OW60031   8.750  14.551  14.314
52733SOL    HW160032   8.753  14.499  14.233
52733SOL    HW260033   8.807  14.504  14.374
52734SOL     OW60034  11.178   7.719   0.002
52734SOL    HW160035  11.250   7.656  14.875
52734SOL    HW260036  11.151   7.733  14.790
52735SOL     OW60037   3.550   2.086   8.786
52735SOL    HW160038   3.560   2.138   8.707
52735SOL    HW260039   3.518   2.148   8.852
52736SOL     OW60040   7.753   0.326  10.682
52736SOL    HW160041   7.762   0.358  10.772
52736SOL    HW260042   7.832   0.277  10.665
52737SOL     OW60043   6.425   0.065  11.410
52737SOL    HW160044   6.358   0.103  11.467
52737SOL    HW260045   6.430  14.853  11.438
52738SOL     OW60046   5.231  10.989   6.307
52738SOL    HW160047   5.217  10.902   6.345
52738SOL    HW260048   5.274  10.971   6.223
52739SOL     OW60049  13.315   6.403   8.688
52739SOL    HW160050  13.239   6.443   8.647
52739SOL    HW260051  13.374   6.476   8.706
52740SOL     OW60052  12.184  12.391  14.597
52740SOL    HW160053  12.173  12.318  14.658
52740SOL    HW260054  12.215  12.350  14.516
52741SOL     OW60055   4.293  10.894   7.832
52741SOL    HW160056   4.377  10.927   7.865
52741SOL    HW260057   4.232  10.910   7.904
52742SOL     OW60058   4.525   0.837   1.363
52742SOL    HW160059   4.555   0.920   1.325
52742SOL    HW260060   4.460   0.805   1.301
52743SOL     OW60061   0.459  11.780   9.858
52743SOL    HW160062   0.493  11.794   9.946
52743SOL    HW260063   0.465  11.865   9.816
52744SOL     OW60064  11.417   5.398   7.975
52744SOL    HW160065  11.376   5.465   7.920
52744SOL    HW260066  11.382   5.414   8.063
52745SOL     OW60067   6.806   0.428   7.288
52745SOL    HW160068   6.711   0.420   7.299
52745SOL    HW260069   6.820   0.520   7.264
52746SOL     OW60070   6.836   1.428   6.327
52746SOL    HW160071   6.812   1.412   6.418
52746SOL    HW260072   6.852   1.522   6.322
52747SOL     OW60073   4.784  11.450   7.435
52747SOL    HW160074   4.747  11.459   7.348
52747SOL    HW260075   4.857  11.389   7.424
52748SOL     OW60076  12.691  10.788   3.430
52748SOL    HW160077  12.678  10.879   3.457
52748SOL    HW260078  12.783  10.770   3.448
52749SOL     OW60079  12.198   7.899  11.508
52749SOL    HW160080  12.120   7.955  11.517
52749SOL    HW260081  12.168   7.812  11.532
52750SOL     OW60082   4.072   6.684   3.537
52750SOL    HW160083   4.140   6.747   3.511
52750SOL    HW260084   4.120   6.615   3.582
52751SOL     OW60085   1.237  11.814   1.793
52751SOL    HW160086   1.227  11.721   1.812
52751SOL    HW260087   1.316  11.819   1.740
52752SOL     OW60088   5.832   0.040   6.712
52752SOL    HW160089   5.886   0.119   6.705
52752SOL    HW260090   5.846  14.872   6.630
52753SOL     OW60091   7.333  13.134   7.128
52753SOL    HW160092   7.276  13.061   7.102
52753SOL    HW260093   7.316  13.144   7.222
52754SOL     OW60094   3.190  13.114   1.143
52754SOL    HW160095   3.145  13.068   1.214
52754SOL    HW260096   3.125  13.176   1.110
52755SOL     OW60097   4.659   2.476  13.934
52755SOL    HW160098   4.728   2.524  13.888
52755SOL    HW260099   4.706   2.411  13.986
52756SOL     OW60100  12.821  13.606   8.245
52756SOL    HW160101  12.851  13.516   8.261
52756SOL    HW260102  12.899  13.659   8.260
52757SOL     OW60103   7.470  10.024   0.942
52757SOL    HW160104   7.560  10.058   0.948
52757SOL    HW260105   7.417  10.100   0.920
52758SOL     OW60106   9.773   6.281  14.804
52758SOL    HW160107   9.779   6.377  14.802
52758SOL    HW260108   9.716   6.259  14.731
52759SOL     OW60109  11.787  13.594   3.551
52759SOL    HW160110  11.747  13.508   3.563
52759SOL    HW260111  11.858  13.597   3.616
52760SOL     OW60112  13.430   1.360   8.062
52760SOL    HW160113  13.404   1.382   8.152
52760SOL    HW260114  13.509   1.307   8.073
52761SOL     OW60115   7.648   8.147   4.162
52761SOL    HW160116   7.580   8.205   4.129
52761SOL    HW260117   7.728   8.199   4.156
52762SOL     OW60118   2.315   2.589   5.901
52762SOL    HW160119   2.289   2.575   5.810
52762SOL    HW260120   2.313   2.501   5.940
52763SOL     OW60121   3.552  14.438  14.178
52763SOL    HW160122   3.459  14.461  14.181
52763SOL    HW260123   3.595  14.516  14.144
52764SOL     OW60124   0.494   0.334  12.907
52764SOL    HW160125   0.450   0.300  12.985
52764SOL    HW260126   0.511   0.257  12.853
52765SOL     OW60127  12.517  14.810  14.701
52765SOL    HW160128  12.499  14.732  14.648
52765SOL    HW260129  12.446  14.812  14.765
52766SOL     OW60130   1.228  14.572  14.876
52766SOL    HW160131   1.197  14.489   0.031
52766SOL    HW260132   1.155  14.607  14.826
52767SOL     OW60133  13.398  11.074  14.579
52767SOL    HW160134  13.483  11.092  14.540
52767SOL    HW260135  13.351  11.025  14.511
52768SOL     OW60136   6.375   8.770   7.424
52768SOL    HW160137   6.359   8.689   7.471
52768SOL    HW260138   6.469   8.771   7.408
52769SOL     OW60139   1.443   9.297  10.356
52769SOL    HW160140   1.392   9.275  10.435
52769SOL    HW260141   1.494   9.218  10.339
52770SOL     OW60142   8.947  10.523  13.690
52770SOL    HW160143   8.860  10.510  13.652
52770SOL    HW260144   9.006  10.473  13.633
52771SOL     OW60145   2.000  11.031   8.535
52771SOL    HW160146   2.089  11.049   8.564
52771SOL    HW260147   1.953  11.113   8.547
52772SOL     OW60148   8.858   4.948   0.527
52772SOL    HW160149   8.876   4.948   0.432
52772SOL    HW260150   8.859   4.855   0.551
52773SOL     OW60151   0.285   5.442   0.018
52773SOL    HW160152   0.269   5.385  14.822
52773SOL    HW260153   0.369   5.483  14.879
52774SOL     OW60154   2.267  14.605  11.783
52774SOL    HW160155   2.188  14.574  11.826
52774SOL    HW260156   2.269  14.700  11.800
52775SOL     OW60157   2.449   7.202  12.754
52775SOL    HW160158   2.376   7.246  12.709
52775SOL    HW260159   2.521   7.205  12.692
52776SOL     OW60160  11.787   3.391   9.199
52776SOL    HW160161  11.880   3.373   9.211
52776SOL    HW260162  11.773   3.474   9.244
52777SOL     OW60163   2.168   9.855   7.630
52777SOL    HW160164   2.105   9.865   7.559
52777SOL    HW260165   2.147   9.771   7.670
52778SOL     OW60166   1.002  11.919   1.657
52778SOL    HW160167   1.074  11.976   1.684
52778SOL    HW260168   1.032  11.831   1.680
52779SOL     OW60169   5.733   1.999   7.531
52779SOL    HW160170   5.735   2.083   7.485
52779SOL    HW260171   5.642   1.988   7.557
52780SOL     OW60172   1.082  14.130   9.590
52780SOL    HW160173   1.173  14.103   9.604
52780SOL    HW260174   1.042  14.126   9.677
52781SOL     OW60175   9.842  13.215   2.826
52781SOL    HW160176   9.935  13.205   2.804
52781SOL    HW260177   9.826  13.149   2.893
52782SOL     OW60178   4.426   1.561   5.263
52782SOL    HW160179   4.352   1.621   5.265
52782SOL    HW260180   4.503   1.618   5.258
52783SOL     OW60181   2.333   9.971   3.118
52783SOL    HW160182   2.280  10.049   3.133
52783SOL    HW260183   2.277   9.913   3.066
52784SOL     OW60184   0.600   2.056  14.816
52784SOL    HW160185   0.629   2.087   0.023
52784SOL    HW260186   0.649   2.108  14.753
52785SOL     OW60187   5.931   4.802  11.983
52785SOL    HW160188   5.936   4.864  11.910
52785SOL    HW260189   5.876   4.845  12.048
52786SOL     OW60190   7.461  13.262  11.186
52786SOL    HW160191   7.424  13.257  11.097
52786SOL    HW260192   7.512  13.182  11.195
52787SOL     OW60193  12.639   3.464   9.722
52787SOL    HW160194  12.637   3.371   9.700
52787SOL    HW260195  12.563   3.477   9.779
52788SOL     OW60196   2.489   5.293  10.314
52788SOL    HW160197   2.497   5.326  10.403
52788SOL    HW260198   2.426   5.351  10.271
52789SOL     OW60199   7.204   1.102  13.078
52789SOL    HW160200   7.287   1.092  13.125
52789SOL    HW260201   7.193   1.019  13.031
52790SOL     OW60202   8.004   5.947   9.718
52790SOL    HW160203   7.918   5.921   9.686
52790SOL    HW260204   8.058   5.868   9.709
52791SOL     OW60205   8.048   7.548  10.247
52791SOL    HW160206   7.965   7.507  10.271
52791SOL    HW260207   8.028   7.592  10.164
52792SOL     OW60208   1.830   4.418   6.425
52792SOL    HW160209   1.891   4.359   6.382
52792SOL    HW260210   1.868   4.434   6.511
52793SOL     OW60211  10.223  13.830   7.152
52793SOL    HW160212  10.268  13.914   7.142
52793SOL    HW260213  10.232  13.788   7.067
52794SOL     OW60214  12.038  12.356   2.965
52794SOL    HW160215  12.041  12.351   2.869
52794SOL    HW260216  11.953  12.317   2.988
52795SOL     OW60217   1.947  12.682   3.865
52795SOL    HW160218   1.940  12.774   3.890
52795SOL    HW260219   2.011  12.681   3.794
52796SOL     OW60220   1.533  10.159  10.330
52796SOL    HW160221   1.472  10.142  10.402
52796SOL    HW260222   1.487  10.221  10.273
52797SOL     OW60223   1.138   6.561  14.400
52797SOL    HW160224   1.143   6.572  14.495
52797SOL    HW260225   1.058   6.510  14.386
52798SOL     OW60226  10.028   3.511   0.664
52798SOL    HW160227   9.944   3.553   0.682
52798SOL    HW260228  10.015   3.465   0.581
52799SOL     OW60229  11.354   2.834  14.307
52799SOL    HW160230  11.412   2.856  14.380
52799SOL    HW260231  11.375   2.743  14.287
52800SOL     OW60232  14.078   5.588   7.114
52800SOL    HW160233  14.171   5.567   7.115
52800SOL    HW260234  14.034   5.503   7.115
52801SOL     OW60235   3.719  10.441  11.211
52801SOL    HW160236   3.743  10.349  11.197
52801SOL    HW260237   3.789  10.490  11.168
52802SOL     OW60238   8.534   0.913  12.074
52802SOL    HW160239   8.574   0.826  12.075
52802SOL    HW260240   8.549   0.948  12.162
52803SOL     OW60241   0.575   7.411  12.778
52803SOL    HW160242   0.574   7.413  12.682
52803SOL    HW260243   0.663   7.382  12.801
52804SOL     OW60244   2.640  14.813  10.746
52804SOL    HW160245   2.684  14.832  10.829
52804SOL    HW260246   2.639   0.018  10.699
52805SOL     OW60247   0.269   0.485  12.738
52805SOL    HW160248   0.328   0.560  12.731
52805SOL    HW260249   0.236   0.488  12.828
52806SOL     OW60250  10.959   7.996   8.234
52806SOL    HW160251  10.983   8.035   8.150
52806SOL    HW260252  11.003   7.910   8.234
52807SOL     OW60253   3.159   9.041   9.304
52807SOL    HW160254   3.201   8.955   9.306
52807SOL    HW260255   3.195   9.084   9.226
52808SOL     OW60256   5.485  13.865   2.866
52808SOL    HW160257   5.506  13.946   2.820
52808SOL    HW260258   5.528  13.874   2.951
52809SOL     OW60259   8.248   8.174  10.408
52809SOL    HW160260   8.267   8.114  10.336
52809SOL    HW260261   8.259   8.122  10.487
52810SOL     OW60262   7.812   2.699  10.435
52810SOL    HW160263   7.732   2.646  10.431
52810SOL    HW260264   7.881   2.641  10.403
52811SOL     OW60265  10.761  14.146   8.136
52811SOL    HW160266  10.803  14.096   8.066
52811SOL    HW260267  10.804  14.231   8.134
52812SOL     OW60268  13.736   3.696   3.532
52812SOL    HW160269  13.808   3.643   3.497
52812SOL    HW260270  13.697   3.641   3.600
52813SOL     OW60271   3.738   2.701   7.754
52813SOL    HW160272   3.817   2.660   7.790
52813SOL    HW260273   3.687   2.726   7.831
52814SOL     OW60274   3.148   1.859   5.083
52814SOL    HW160275   3.218   1.847   5.148
52814SOL    HW260276   3.081   1.909   5.130
52815SOL     OW60277  11.204   0.653   4.870
52815SOL    HW160278  11.292   0.685   4.849
52815SOL    HW260279  11.170   0.623   4.785
52816SOL     OW60280   1.546  14.667  14.558
52816SOL    HW160281   1.573  14.635  14.472
52816SOL    HW260282   1.620  14.720  14.589
52817SOL     OW60283   9.292  13.663   4.236
52817SOL    HW160284   9.202  13.677   4.206
52817SOL    HW260285   9.339  13.635   4.157
52818SOL     OW60286   3.546  13.735   3.461
52818SOL    HW160287   3.545  13.782   3.378
52818SOL    HW260288   3.638  13.715   3.477
52819SOL     OW60289  11.546  14.113   7.588
52819SOL    HW160290  11.542  14.128   7.683
52819SOL    HW260291  11.628  14.155   7.561
52820SOL     OW60292   4.976  11.727   6.404
52820SOL    HW160293   5.010  11.727   6.315
52820SOL    HW260294   4.960  11.635   6.424
52821SOL     OW60295  14.510   6.579   0.838
52821SOL    HW160296  14.431   6.529   0.857
52821SOL    HW260297  14.580   6.528   0.879
52822SOL     OW60298  11.115   7.360  10.226
52822SOL    HW160299  11.174   7.287  10.244
52822SOL    HW260300  11.044   7.321  10.174
52823SOL     OW60301   7.648  11.208  12.423
52823SOL    HW160302   7.644  11.229  12.516
52823SOL    HW260303   7.720  11.146  12.415
52824SOL     OW60304   1.524  13.981  10.871
52824SOL    HW160305   1.581  13.915  10.910
52824SOL    HW260306   1.535  13.969  10.776
52825SOL     OW60307   2.042  12.462   0.872
52825SOL    HW160308   2.107  12.498   0.932
52825SOL    HW260309   1.985  12.407   0.927
52826SOL     OW60310  12.841   6.695  12.626
52826SOL    HW160311  12.757   6.697  12.581
52826SOL    HW260312  12.820   6.671  12.716
52827SOL     OW60313   7.518   9.140  13.404
52827SOL    HW160314   7.602   9.098  13.387
52827SOL    HW260315   7.480   9.155  13.318
52828SOL     OW60316   0.614   7.297   2.125
52828SOL    HW160317   0.624   7.319   2.033
52828SOL    HW260318   0.560   7.368   2.161
52829SOL     OW60319  14.601   9.916   8.970
52829SOL    HW160320  14.587  10.001   8.929
52829SOL    HW260321  14.601   9.854   8.897
52830SOL     OW60322   0.800  12.356  10.381
52830SOL    HW160323   0.876  12.299  10.365
52830SOL    HW260324   0.780  12.345  10.473
52831SOL     OW60325  11.331   5.456   2.226
52831SOL    HW160326  11.277   5.455   2.147
52831SOL    HW260327  11.383   5.536   2.219
52832SOL     OW60328   9.543   5.413   4.058
52832SOL    HW160329   9.601   5.489   4.059
52832SOL    HW260330   9.470   5.440   4.001
52833SOL     OW60331   4.969   8.585  14.701
52833SOL    HW160332   5.061   8.610  14.694
52833SOL    HW260333   4.959   8.553  14.790
52834SOL     OW60334   7.526   3.768   8.057
52834SOL    HW160335   7.536   3.828   7.983
52834SOL    HW260336   7.438   3.731   8.046
52835SOL     OW60337   2.669   3.414   9.712
52835SOL    HW160338   2.628   3.440   9.630
52835SOL    HW260339   2.662   3.492   9.769
52836SOL     OW60340   3.495   8.827  11.123
52836SOL    HW160341   3.478   8.889  11.193
52836SOL    HW260342   3.443   8.749  11.146
52837SOL     OW60343   9.767   2.823   1.319
52837SOL    HW160344   9.824   2.759   1.362
52837SOL    HW260345   9.820   2.903   1.314
52838SOL     OW60346   5.003   4.666   5.428
52838SOL    HW160347   4.932   4.627   5.377
52838SOL    HW260348   5.048   4.724   5.366
52839SOL     OW60349   9.758   7.067   1.030
52839SOL    HW160350   9.694   7.104   1.091
52839SOL    HW260351   9.835   7.122   1.040
52840SOL     OW60352   8.865   8.781   2.067
52840SOL    HW160353   8.818   8.861   2.043
52840SOL    HW260354   8.945   8.812   2.110
52841SOL     OW60355  14.833  12.137  11.575
52841SOL    HW160356  14.739  12.120  11.567
52841SOL    HW260357  14.853  12.118  11.667
52842SOL     OW60358   8.923   4.077   0.563
52842SOL    HW160359   8.867   4.026   0.621
52842SOL    HW260360   9.012   4.048   0.583
52843SOL     OW60361   1.895  14.544   8.490
52843SOL    HW160362   1.854  14.588   8.564
52843SOL    HW260363   1.976  14.507   8.526
52844SOL     OW60364   9.781   9.268   3.483
52844SOL    HW160365   9.847   9.241   3.419
52844SOL    HW260366   9.742   9.346   3.445
52845SOL     OW60367  10.219  12.383   7.663
52845SOL    HW160368  10.294  12.369   7.720
52845SOL    HW260369  10.144  12.353   7.715
52846SOL     OW60370   5.371   2.484   2.501
52846SOL    HW160371   5.286   2.523   2.522
52846SOL    HW260372   5.403   2.535   2.427
52847SOL     OW60373   8.306  10.057   9.643
52847SOL    HW160374   8.357   9.986   9.606
52847SOL    HW260375   8.216  10.024   9.643
52848SOL     OW60376   5.804   3.283  10.690
52848SOL    HW160377   5.794   3.206  10.635
52848SOL    HW260378   5.887   3.323  10.661
52849SOL     OW60379  12.695   4.287  10.172
52849SOL    HW160380  12.762   4.339  10.129
52849SOL    HW260381  12.677   4.333  10.254
52850SOL     OW60382   7.530   7.909   2.619
52850SOL    HW160383   7.588   7.977   2.585
52850SOL    HW260384   7.442   7.941   2.599
52851SOL     OW60385   6.583  10.688   0.092
52851SOL    HW160386   6.500  10.661   0.132
52851SOL    HW260387   6.569  10.779   0.066
52852SOL     OW60388   6.751   5.239   5.843
52852SOL    HW160389   6.845   5.239   5.829
52852SOL    HW260390   6.714   5.200   5.763
52853SOL     OW60391   0.832   0.088   5.913
52853SOL    HW160392   0.795   0.056   5.995
52853SOL    HW260393   0.787   0.037   5.845
52854SOL     OW60394   1.919   4.582   0.361
52854SOL    HW160395   1.934   4.508   0.420
52854SOL    HW260396   1.976   4.565   0.286
52855SOL     OW60397   7.644   6.486  13.230
52855SOL    HW160398   7.593   6.527  13.300
52855SOL    HW260399   7.730   6.529  13.235
52856SOL     OW60400   8.698  13.762  12.393
52856SOL    HW160401   8.778  13.720  12.361
52856SOL    HW260402   8.627  13.716  12.348
52857SOL     OW60403   0.680   5.185   9.050
52857SOL    HW160404   0.624   5.238   9.107
52857SOL    HW260405   0.650   5.207   8.961
52858SOL     OW60406   6.898  13.543  11.711
52858SOL    HW160407   6.947  13.493  11.646
52858SOL    HW260408   6.922  13.505  11.795
52859SOL     OW60409   5.150   0.506  14.872
52859SOL    HW160410   5.151   0.573   0.061
52859SOL    HW260411   5.186   0.550  14.795
52860SOL     OW60412   3.201   5.935   2.596
52860SOL    HW160413   3.168   5.880   2.666
52860SOL    HW260414   3.157   6.019   2.607
52861SOL     OW60415   9.866  11.967  10.812
52861SOL    HW160416   9.824  11.882  10.797
52861SOL    HW260417   9.890  11.967  10.904
52862SOL     OW60418   2.295  13.846  10.274
52862SOL    HW160419   2.275  13.935  10.301
52862SOL    HW260420   2.381  13.828  10.312
52863SOL     OW60421   5.428   3.665   0.169
52863SOL    HW160422   5.475   3.600   0.222
52863SOL    HW260423   5.498   3.721   0.133
52864SOL     OW60424   4.266  13.155   4.266
52864SOL    HW160425   4.201  13.187   4.329
52864SOL    HW260426   4.281  13.228   4.207
52865SOL     OW60427   9.102   3.351  11.527
52865SOL    HW160428   9.110   3.417  11.458
52865SOL    HW260429   9.171   3.288  11.507
52866SOL     OW60430   0.302   9.917  11.139
52866SOL    HW160431   0.279   9.831  11.105
52866SOL    HW260432   0.397   9.913  11.154
52867SOL     OW60433   8.607   2.327   0.758
52867SOL    HW160434   8.620   2.235   0.781
52867SOL    HW260435   8.620   2.330   0.664
52868SOL     OW60436  11.276  14.685   0.503
52868SOL    HW160437  11.328  14.606   0.490
52868SOL    HW260438  11.268  14.723   0.416
52869SOL     OW60439   8.141   3.705   6.801
52869SOL    HW160440   8.184   3.790   6.788
52869SOL    HW260441   8.203   3.642   6.764
52870SOL     OW60442   3.677   8.721   1.396
52870SOL    HW160443   3.585   8.743   1.386
52870SOL    HW260444   3.681   8.669   1.477
52871SOL     OW60445   1.437  14.175   1.783
52871SOL    HW160446   1.392  14.233   1.845
52871SOL    HW260447   1.428  14.088   1.820
52872SOL     OW60448  13.408   6.310  10.018
52872SOL    HW160449  13.355   6.317   9.938
52872SOL    HW260450  13.457   6.229  10.007
52873SOL     OW60451   9.615   9.532   4.513
52873SOL    HW160452   9.642   9.459   4.569
52873SOL    HW260453   9.693   9.551   4.460
52874SOL     OW60454  10.915   8.896  14.608
52874SOL    HW160455  10.852   8.860  14.670
52874SOL    HW260456  10.991   8.838  14.614
52875SOL     OW60457   7.945   0.620   1.809
52875SOL    HW160458   7.891   0.576   1.875
52875SOL    HW260459   7.980   0.697   1.855
52876SOL     OW60460   1.140   5.405   0.865
52876SOL    HW160461   1.066   5.449   0.823
52876SOL    HW260462   1.153   5.454   0.947
52877SOL     OW60463   9.778   9.011  14.307
52877SOL    HW160464   9.698   9.006  14.254
52877SOL    HW260465   9.747   9.026  14.396
52878SOL     OW60466  12.227   6.717   4.729
52878SOL    HW160467  12.143   6.760   4.718
52878SOL    HW260468  12.222   6.639   4.674
52879SOL     OW60469  11.955  14.441   2.994
52879SOL    HW160470  12.043  14.410   2.973
52879SOL    HW260471  11.901  14.362   2.992
52880SOL     OW60472   7.687   0.936   6.892
52880SOL    HW160473   7.711   0.991   6.966
52880SOL    HW260474   7.750   0.864   6.893
52881SOL     OW60475  10.351   2.469   8.415
52881SOL    HW160476  10.278   2.408   8.428
52881SOL    HW260477  10.387   2.482   8.502
52882SOL     OW60478  12.371   4.410   7.165
52882SOL    HW160479  12.314   4.349   7.213
52882SOL    HW260480  12.325   4.493   7.167
52883SOL     OW60481   5.676   7.301  12.388
52883SOL    HW160482   5.596   7.311  12.338
52883SOL    HW260483   5.746   7.305  12.322
52884SOL     OW60484   1.087   1.668  11.825
52884SOL    HW160485   1.137   1.631  11.752
52884SOL    HW260486   1.114   1.616  11.901
52885SOL     OW60487  10.302   9.267   2.116
52885SOL    HW160488  10.267   9.356   2.110
52885SOL    HW260489  10.351   9.267   2.198
52886SOL     OW60490   9.440  14.601   2.717
52886SOL    HW160491   9.456  14.617   2.810
52886SOL    HW260492   9.376  14.668   2.692
52887SOL     OW60493   0.357   7.426  12.978
52887SOL    HW160494   0.269   7.387  12.977
52887SOL    HW260495   0.401   7.387  12.903
52888SOL     OW60496  14.676   0.500   6.698
52888SOL    HW160497  14.687   0.406   6.709
52888SOL    HW260498  14.582   0.515   6.707
52889SOL     OW60499   5.730   5.434   1.234
52889SOL    HW160500   5.663   5.413   1.168
52889SOL    HW260501   5.695   5.510   1.280
52890SOL     OW60502   8.575   5.869   1.898
52890SOL    HW160503   8.623   5.952   1.901
52890SOL    HW260504   8.635   5.808   1.854
52891SOL     OW60505   5.674   0.579  12.325
52891SOL    HW160506   5.656   0.488  12.300
52891SOL    HW260507   5.750   0.574  12.383
52892SOL     OW60508  13.662   4.538   1.665
52892SOL    HW160509  13.644   4.626   1.697
52892SOL    HW260510  13.747   4.544   1.623
52893SOL     OW60511   8.223   2.718   1.471
52893SOL    HW160512   8.154   2.723   1.405
52893SOL    HW260513   8.183   2.753   1.551
52894SOL     OW60514  11.161   5.705   8.606
52894SOL    HW160515  11.075   5.738   8.579
52894SOL    HW260516  11.144   5.618   8.641
52895SOL     OW60517   1.471  10.816  13.599
52895SOL    HW160518   1.431  10.769  13.526
52895SOL    HW260519   1.544  10.760  13.626
52896SOL     OW60520   5.987   7.311   3.726
52896SOL    HW160521   6.058   7.314   3.662
52896SOL    HW260522   5.910   7.342   3.679
52897SOL     OW60523  12.917   7.026   8.339
52897SOL    HW160524  12.833   7.004   8.380
52897SOL    HW260525  12.918   6.976   8.258
52898SOL     OW60526  10.486   0.145   8.090
52898SOL    HW160527  10.517   0.101   8.011
52898SOL    HW260528  10.481   0.076   8.156
52899SOL     OW60529   3.239   1.706  12.990
52899SOL    HW160530   3.300   1.669  13.055
52899SOL    HW260531   3.163   1.648  12.994
52900SOL     OW60532   4.852   2.843   2.990
52900SOL    HW160533   4.941   2.854   3.022
52900SOL    HW260534   4.845   2.749   2.973
52901SOL     OW60535   7.942   3.879   1.519
52901SOL    HW160536   7.899   3.963   1.503
52901SOL    HW260537   8.035   3.901   1.527
52902SOL     OW60538   2.200  11.591  14.274
52902SOL    HW160539   2.190  11.500  14.302
52902SOL    HW260540   2.257  11.630  14.341
52903SOL     OW60541   8.553  12.934   1.337
52903SOL    HW160542   8.595  12.969   1.415
52903SOL    HW260543   8.602  12.972   1.264
52904SOL     OW60544   3.977   4.334  13.196
52904SOL    HW160545   4.055   4.278  13.197
52904SOL    HW260546   4.010   4.420  13.223
52905SOL     OW60547   6.131   3.849  10.413
52905SOL    HW160548   6.127   3.941  10.439
52905SOL    HW260549   6.150   3.852  10.319
52906SOL     OW60550   2.315   9.215   8.360
52906SOL    HW160551   2.253   9.255   8.299
52906SOL    HW260552   2.401   9.241   8.328
52907SOL     OW60553   2.948   8.041   0.349
52907SOL    HW160554   2.937   7.948   0.365
52907SOL    HW260555   2.891   8.083   0.414
52908SOL     OW60556  12.395   8.088   9.174
52908SOL    HW160557  12.464   8.022   9.165
52908SOL    HW260558  12.321   8.040   9.210
52909SOL     OW60559   9.541  11.567   6.619
52909SOL    HW160560   9.632  11.545   6.640
52909SOL    HW260561   9.494  11.553   6.700
52910SOL     OW60562  13.074   2.657   3.208
52910SOL    HW160563  13.062   2.723   3.276
52910SOL    HW260564  13.102   2.708   3.131
52911SOL     OW60565   5.420  12.207   0.575
52911SOL    HW160566   5.470  12.126   0.578
52911SOL    HW260567   5.390  12.221   0.665
52912SOL     OW60568   5.076   7.743   8.229
52912SOL    HW160569   5.152   7.799   8.244
52912SOL    HW260570   5.005   7.784   8.279
52913SOL     OW60571   7.078   8.726   2.985
52913SOL    HW160572   6.996   8.694   2.947
52913SOL    HW260573   7.137   8.733   2.910
52914SOL     OW60574   4.081   7.035  12.914
52914SOL    HW160575   4.049   6.993  12.994
52914SOL    HW260576   4.122   6.963  12.865
52915SOL     OW60577   8.084   9.533   3.826
52915SOL    HW160578   8.002   9.525   3.874
52915SOL    HW260579   8.119   9.618   3.852
52916SOL     OW60580   2.715   6.709   8.298
52916SOL    HW160581   2.719   6.789   8.244
52916SOL    HW260582   2.714   6.742   8.388
52917SOL     OW60583   4.487   4.989   0.626
52917SOL    HW160584   4.560   5.042   0.596
52917SOL    HW260585   4.437   5.047   0.684
52918SOL     OW60586  11.105   6.338   9.542
52918SOL    HW160587  11.142   6.322   9.456
52918SOL    HW260588  11.143   6.422   9.569
52919SOL     OW60589   7.441   1.255  14.432
52919SOL    HW160590   7.420   1.251  14.526
52919SOL    HW260591   7.480   1.342  14.420
52920SOL     OW60592  12.451   9.641  12.881
52920SOL    HW160593  12.461   9.569  12.820
52920SOL    HW260594  12.359   9.638  12.907
52921SOL     OW60595   1.261   5.711   9.491
52921SOL    HW160596   1.284   5.804   9.498
52921SOL    HW260597   1.199   5.706   9.419
52922SOL     OW60598   2.633  12.611  14.819
52922SOL    HW160599   2.692  12.620  14.744
52922SOL    HW260600   2.576  12.537  14.797
52923SOL     OW60601   4.739  12.039   3.085
52923SOL    HW160602   4.831  12.054   3.065
52923SOL    HW260603   4.721  11.951   3.051
52924SOL     OW60604   9.264   5.439   0.607
52924SOL    HW160605   9.231   5.526   0.584
52924SOL    HW260606   9.358   5.444   0.591
52925SOL     OW60607   7.230   1.039   2.890
52925SOL    HW160608   7.208   1.128   2.917
52925SOL    HW260609   7.189   1.028   2.805
52926SOL     OW60610   7.787   8.311  13.014
52926SOL    HW160611   7.708   8.354  12.982
52926SOL    HW260612   7.827   8.275  12.936
52927SOL     OW60613  14.269   5.905   7.797
52927SOL    HW160614  14.289   5.812   7.789
52927SOL    HW260615  14.259   5.918   7.891
52928SOL     OW60616  10.124  13.758   0.480
52928SOL    HW160617  10.061  13.804   0.425
52928SOL    HW260618  10.147  13.821   0.549
52929SOL     OW60619  13.685   0.503  14.103
52929SOL    HW160620  13.676   0.413  14.073
52929SOL    HW260621  13.634   0.507  14.183
52930SOL     OW60622  10.558   9.848   5.336
52930SOL    HW160623  10.531   9.914   5.271
52930SOL    HW260624  10.502   9.772   5.317
52931SOL     OW60625  11.972   3.163  11.041
52931SOL    HW160626  12.023   3.211  11.105
52931SOL    HW260627  11.937   3.230  10.982
52932SOL     OW60628   6.952   9.993  12.909
52932SOL    HW160629   6.923   9.913  12.951
52932SOL    HW260630   6.996  10.042  12.979
52933SOL     OW60631   9.515   9.920  14.508
52933SOL    HW160632   9.563  10.001  14.492
52933SOL    HW260633   9.576   9.851  14.482
52934SOL     OW60634  13.275   4.853   9.511
52934SOL    HW160635  13.212   4.917   9.478
52934SOL    HW260636  13.233   4.768   9.497
52935SOL     OW60637  12.655   9.173   9.423
52935SOL    HW160638  12.625   9.143   9.338
52935SOL    HW260639  12.699   9.097   9.461
52936SOL     OW60640  12.216   4.486   9.454
52936SOL    HW160641  12.174   4.570   9.469
52936SOL    HW260642  12.189   4.461   9.366
52937SOL     OW60643   7.684   1.005  13.857
52937SOL    HW160644   7.699   1.069  13.788
52937SOL    HW260645   7.650   0.928  13.812
52938SOL     OW60646   3.725   4.157   1.519
52938SOL    HW160647   3.770   4.211   1.453
52938SOL    HW260648   3.656   4.112   1.470
52939SOL     OW60649   6.811   0.869   8.498
52939SOL    HW160650   6.824   0.894   8.406
52939SOL    HW260651   6.745   0.929   8.530
52940SOL     OW60652   7.774   1.706   2.499
52940SOL    HW160653   7.861   1.708   2.537
52940SOL    HW260654   7.730   1.784   2.535
52941SOL     OW60655  14.333   7.982   4.269
52941SOL    HW160656  14.360   8.055   4.324
52941SOL    HW260657  14.404   7.919   4.275
52942SOL     OW60658  14.488  13.129   9.310
52942SOL    HW160659  14.533  13.084   9.239
52942SOL    HW260660  14.443  13.060   9.358
52943SOL     OW60661   3.300   6.396  12.860
52943SOL    HW160662   3.206   6.392  12.839
52943SOL    HW260663   3.304   6.444  12.942
52944SOL     OW60664  13.108   8.711  12.217
52944SOL    HW160665  13.141   8.631  12.257
52944SOL    HW260666  13.071   8.761  12.290
52945SOL     OW60667   3.161  11.215  13.685
52945SOL    HW160668   3.202  11.192  13.602
52945SOL    HW260669   3.078  11.257  13.660
52946SOL     OW60670   4.808  13.489   6.000
52946SOL    HW160671   4.808  13.584   5.986
52946SOL    HW260672   4.722  13.471   6.039
52947SOL     OW60673   5.851   3.222   1.935
52947SOL    HW160674   5.784   3.261   1.991
52947SOL    HW260675   5.868   3.136   1.974
52948SOL     OW60676   7.940  11.938  11.317
52948SOL    HW160677   7.967  11.902  11.402
52948SOL    HW260678   7.851  11.904  11.304
52949SOL     OW60679   7.979   3.172   8.617
52949SOL    HW160680   7.970   3.266   8.605
52949SOL    HW260681   8.034   3.163   8.695
52950SOL     OW60682  10.073   9.792  13.601
52950SOL    HW160683  10.130   9.721  13.573
52950SOL    HW260684  10.094   9.805  13.693
52951SOL     OW60685   4.236   5.657   4.379
52951SOL    HW160686   4.297   5.635   4.449
52951SOL    HW260687   4.257   5.596   4.308
52952SOL     OW60688   3.030  11.149  11.252
52952SOL    HW160689   3.003  11.061  11.277
52952SOL    HW260690   3.055  11.191  11.334
52953SOL     OW60691   7.221   9.563   6.530
52953SOL    HW160692   7.309   9.525   6.519
52953SOL    HW260693   7.179   9.551   6.445
52954SOL     OW60694   5.567  11.257   3.426
52954SOL    HW160695   5.594  11.208   3.349
52954SOL    HW260696   5.483  11.295   3.401
52955SOL     OW60697   8.306   3.383   1.813
52955SOL    HW160698   8.377   3.432   1.772
52955SOL    HW260699   8.349   3.325   1.875
52956SOL     OW60700   7.760  10.850   9.122
52956SOL    HW160701   7.674  10.818   9.094
52956SOL    HW260702   7.814  10.846   9.043
52957SOL     OW60703  10.682  14.567  12.472
52957SOL    HW160704  10.733  14.617  12.536
52957SOL    HW260705  10.669  14.628  12.399
52958SOL     OW60706   8.805   6.085   6.475
52958SOL    HW160707   8.866   6.050   6.410
52958SOL    HW260708   8.847   6.164   6.508
52959SOL     OW60709   0.304  10.564   9.373
52959SOL    HW160710   0.314  10.585   9.466
52959SOL    HW260711   0.385  10.594   9.333
52960SOL     OW60712   1.745   1.497   8.413
52960SOL    HW160713   1.804   1.518   8.486
52960SOL    HW260714   1.739   1.402   8.414
52961SOL     OW60715  11.545   3.838  12.564
52961SOL    HW160716  11.589   3.916  12.531
52961SOL    HW260717  11.463   3.834  12.516
52962SOL     OW60718   5.084   2.738   7.693
52962SOL    HW160719   5.031   2.714   7.769
52962SOL    HW260720   5.050   2.823   7.665
52963SOL     OW60721   1.504  11.690   2.673
52963SOL    HW160722   1.475  11.607   2.712
52963SOL    HW260723   1.461  11.757   2.727
52964SOL     OW60724  14.642  14.839   4.467
52964SOL    HW160725  14.728  14.829   4.427
52964SOL    HW260726  14.587  14.775   4.421
52965SOL     OW60727  12.229   0.844   5.590
52965SOL    HW160728  12.169   0.899   5.542
52965SOL    HW260729  12.299   0.903   5.618
52966SOL     OW60730   1.274   1.930   3.700
52966SOL    HW160731   1.195   1.983   3.701
52966SOL    HW260732   1.248   1.847   3.659
52967SOL     OW60733   3.381   1.622   9.396
52967SOL    HW160734   3.385   1.592   9.305
52967SOL    HW260735   3.471   1.617   9.426
52968SOL     OW60736   3.102   6.637  10.184
52968SOL    HW160737   3.055   6.570  10.235
52968SOL    HW260738   3.036   6.675  10.127
52969SOL     OW60739   0.585  13.114  11.011
52969SOL    HW160740   0.620  13.186  11.064
52969SOL    HW260741   0.569  13.044  11.074
52970SOL     OW60742   6.886   0.942  13.275
52970SOL    HW160743   6.908   1.014  13.334
52970SOL    HW260744   6.872   0.867  13.333
52971SOL     OW60745  12.239  13.269   4.666
52971SOL    HW160746  12.188  13.285   4.587
52971SOL    HW260747  12.328  13.254   4.635
52972SOL     OW60748   9.376   6.286   4.505
52972SOL    HW160749   9.319   6.291   4.428
52972SOL    HW260750   9.391   6.377   4.530
52973SOL     OW60751   9.084  11.358   4.110
52973SOL    HW160752   9.157  11.298   4.095
52973SOL    HW260753   9.119  11.422   4.173
52974SOL     OW60754   8.001   7.070  13.953
52974SOL    HW160755   8.034   7.151  13.913
52974SOL    HW260756   8.080   7.026  13.985
52975SOL     OW60757   7.308   5.250  13.694
52975SOL    HW160758   7.268   5.180  13.745
52975SOL    HW260759   7.373   5.206  13.640
52976SOL     OW60760   8.661  12.386  14.803
52976SOL    HW160761   8.657  12.434  14.721
52976SOL    HW260762   8.577  12.402  14.845
52977SOL     OW60763   8.443   2.745   2.552
52977SOL    HW160764   8.412   2.733   2.641
52977SOL    HW260765   8.366   2.729   2.497
52978SOL     OW60766  11.994  14.092   2.011
52978SOL    HW160767  12.065  14.041   2.049
52978SOL    HW260768  12.035  14.175   1.985
52979SOL     OW60769  10.644   6.655   6.768
52979SOL    HW160770  10.638   6.706   6.687
52979SOL    HW260771  10.725   6.605   6.758
52980SOL     OW60772   7.075   4.372   5.117
52980SOL    HW160773   7.055   4.399   5.028
52980SOL    HW260774   7.093   4.278   5.110
52981SOL     OW60775   7.870   7.177   5.731
52981SOL    HW160776   7.854   7.155   5.822
52981SOL    HW260777   7.965   7.173   5.722
52982SOL     OW60778   4.177   6.134  13.473
52982SOL    HW160779   4.185   6.221  13.512
52982SOL    HW260780   4.125   6.084  13.536
52983SOL     OW60781   2.396   6.949   4.902
52983SOL    HW160782   2.421   6.859   4.880
52983SOL    HW260783   2.467   6.981   4.958
52984SOL     OW60784   9.275   5.341   3.612
52984SOL    HW160785   9.369   5.326   3.595
52984SOL    HW260786   9.265   5.325   3.705
52985SOL     OW60787  10.500  13.319   7.318
52985SOL    HW160788  10.575  13.261   7.314
52985SOL    HW260789  10.537  13.407   7.308
52986SOL     OW60790   1.256   1.511   2.561
52986SOL    HW160791   1.251   1.536   2.468
52986SOL    HW260792   1.245   1.416   2.560
52987SOL     OW60793   9.247  11.333   5.565
52987SOL    HW160794   9.283  11.267   5.624
52987SOL    HW260795   9.250  11.291   5.479
52988SOL     OW60796   9.861   1.884   8.031
52988SOL    HW160797   9.836   1.976   8.029
52988SOL    HW260798   9.859   1.856   7.939
52989SOL     OW60799   3.618  12.927   9.825
52989SOL    HW160800   3.542  12.938   9.883
52989SOL    HW260801   3.666  12.853   9.862
52990SOL     OW60802  12.200  13.563  14.259
52990SOL    HW160803  12.257  13.496  14.221
52990SOL    HW260804  12.223  13.643  14.212
52991SOL     OW60805   3.408   8.895  12.507
52991SOL    HW160806   3.319   8.878  12.477
52991SOL    HW260807   3.417   8.843  12.587
52992SOL     OW60808  13.452   5.303   0.025
52992SOL    HW160809  13.538   5.332   0.056
52992SOL    HW260810  13.471   5.246  14.829
52993SOL     OW60811  10.644   7.929   2.985
52993SOL    HW160812  10.699   7.858   2.953
52993SOL    HW260813  10.636   7.912   3.079
52994SOL     OW60814  13.819   2.650   6.428
52994SOL    HW160815  13.740   2.660   6.375
52994SOL    HW260816  13.882   2.607   6.370
52995SOL     OW60817   7.695   2.500  13.986
52995SOL    HW160818   7.713   2.571  13.925
52995SOL    HW260819   7.730   2.422  13.943
52996SOL     OW60820  14.462   8.619   6.339
52996SOL    HW160821  14.384   8.668   6.312
52996SOL    HW260822  14.534   8.661   6.294
52997SOL     OW60823   4.857  10.276   2.800
52997SOL    HW160824   4.762  10.285   2.790
52997SOL    HW260825   4.870  10.183   2.820
52998SOL     OW60826   3.067   5.426   8.509
52998SOL    HW160827   2.997   5.487   8.532
52998SOL    HW260828   3.047   5.347   8.560
52999SOL     OW60829   0.720   6.908  11.959
52999SOL    HW160830   0.750   6.830  12.007
52999SOL    HW260831   0.747   6.982  12.013
53000SOL     OW60832   2.469   3.310   8.994
53000SOL    HW160833   2.431   3.383   8.945
53000SOL    HW260834   2.538   3.351   9.047
53001SOL     OW60835   1.241   3.556  11.372
53001SOL    HW160836   1.295   3.483  11.341
53001SOL    HW260837   1.256   3.557  11.467
53002SOL     OW60838   7.610   1.816   9.477
53002SOL    HW160839   7.650   1.783   9.396
53002SOL    HW260840   7.666   1.784   9.547
53003SOL     OW60841   0.250   8.212  14.040
53003SOL    HW160842   0.197   8.200  13.961
53003SOL    HW260843   0.190   8.198  14.112
53004SOL     OW60844   4.478   7.858   3.581
53004SOL    HW160845   4.428   7.848   3.662
53004SOL    HW260846   4.561   7.897   3.609
53005SOL     OW60847   5.858  12.000  11.091
53005SOL    HW160848   5.938  11.980  11.139
53005SOL    HW260849   5.795  12.023  11.159
53006SOL     OW60850   1.559  14.656   5.498
53006SOL    HW160851   1.636  14.606   5.472
53006SOL    HW260852   1.532  14.704   5.420
53007SOL     OW60853   5.040   9.997  14.100
53007SOL    HW160854   5.048  10.075  14.045
53007SOL    HW260855   4.979   9.940  14.052
53008SOL     OW60856   1.594   1.074   8.892
53008SOL    HW160857   1.535   1.035   8.957
53008SOL    HW260858   1.542   1.143   8.851
53009SOL     OW60859   2.277   1.398   2.122
53009SOL    HW160860   2.259   1.452   2.045
53009SOL    HW260861   2.308   1.459   2.188
53010SOL     OW60862   2.852   6.686   9.371
53010SOL    HW160863   2.785   6.619   9.364
53010SOL    HW260864   2.920   6.659   9.308
53011SOL     OW60865   1.000   1.839   5.807
53011SOL    HW160866   0.916   1.819   5.849
53011SOL    HW260867   1.066   1.804   5.867
53012SOL     OW60868   5.646   4.823   7.883
53012SOL    HW160869   5.687   4.874   7.813
53012SOL    HW260870   5.665   4.732   7.860
53013SOL     OW60871   7.900  13.680   4.212
53013SOL    HW160872   7.911  13.734   4.134
53013SOL    HW260873   7.987  13.642   4.228
53014SOL     OW60874   8.889   9.150   8.434
53014SOL    HW160875   8.901   9.208   8.359
53014SOL    HW260876   8.923   9.199   8.509
53015SOL     OW60877   0.866  12.674   6.742
53015SOL    HW160878   0.935  12.662   6.807
53015SOL    HW260879   0.888  12.757   6.699
53016SOL     OW60880  14.311  14.157   1.720
53016SOL    HW160881  14.269  14.136   1.637
53016SOL    HW260882  14.366  14.233   1.701
53017SOL     OW60883   2.461   9.552   3.716
53017SOL    HW160884   2.452   9.557   3.811
53017SOL    HW260885   2.430   9.637   3.685
53018SOL     OW60886   5.668   1.817   3.540
53018SOL    HW160887   5.637   1.907   3.554
53018SOL    HW260888   5.597   1.762   3.572
53019SOL     OW60889  10.715   7.669   9.401
53019SOL    HW160890  10.780   7.627   9.345
53019SOL    HW260891  10.704   7.757   9.365
53020SOL     OW60892   5.516  14.194  11.474
53020SOL    HW160893   5.508  14.227  11.563
53020SOL    HW260894   5.610  14.183  11.461
53021SOL     OW60895   7.484   8.880   0.643
53021SOL    HW160896   7.554   8.945   0.642
53021SOL    HW260897   7.404   8.931   0.658
53022SOL     OW60898  13.786   0.693   4.918
53022SOL    HW160899  13.708   0.695   4.973
53022SOL    HW260900  13.852   0.741   4.968
53023SOL     OW60901   9.679  12.088   3.254
53023SOL    HW160902   9.603  12.127   3.210
53023SOL    HW260903   9.755  12.127   3.210
53024SOL     OW60904   3.187   4.965   8.826
53024SOL    HW160905   3.191   5.020   8.748
53024SOL    HW260906   3.187   5.027   8.899
53025SOL     OW60907   5.738  10.557   3.650
53025SOL    HW160908   5.714  10.586   3.739
53025SOL    HW260909   5.830  10.532   3.658
53026SOL     OW60910  11.566   1.919   6.756
53026SOL    HW160911  11.542   1.829   6.777
53026SOL    HW260912  11.590   1.957   6.840
53027SOL     OW60913  13.832  12.440   1.066
53027SOL    HW160914  13.794  12.484   0.991
53027SOL    HW260915  13.787  12.355   1.070
53028SOL     OW60916   5.309  12.848   5.587
53028SOL    HW160917   5.382  12.813   5.637
53028SOL    HW260918   5.231  12.803   5.622
53029SOL     OW60919   1.410   4.340   5.946
53029SOL    HW160920   1.429   4.339   6.039
53029SOL    HW260921   1.469   4.275   5.908
53030SOL     OW60922   0.347   9.684  11.597
53030SOL    HW160923   0.269   9.631  11.612
53030SOL    HW260924   0.372   9.715  11.684
53031SOL     OW60925   8.939  11.925  13.961
53031SOL    HW160926   8.982  11.840  13.973
53031SOL    HW260927   8.889  11.915  13.880
53032SOL     OW60928   7.981  14.864   8.577
53032SOL    HW160929   7.902  14.840   8.625
53032SOL    HW260930   7.987  14.800   8.507
53033SOL     OW60931   1.831   8.536   1.326
53033SOL    HW160932   1.859   8.483   1.251
53033SOL    HW260933   1.747   8.573   1.300
53034SOL     OW60934  11.228   8.998   6.725
53034SOL    HW160935  11.296   8.956   6.779
53034SOL    HW260936  11.162   9.027   6.789
53035SOL     OW60937   2.385   7.982   0.761
53035SOL    HW160938   2.447   7.924   0.805
53035SOL    HW260939   2.303   7.933   0.760
53036SOL     OW60940  11.241   4.656   1.654
53036SOL    HW160941  11.193   4.576   1.632
53036SOL    HW260942  11.261   4.647   1.748
53037SOL     OW60943   2.370   5.813  11.014
53037SOL    HW160944   2.463   5.831  11.027
53037SOL    HW260945   2.366   5.773  10.927
53038SOL     OW60946   9.590   8.076  10.805
53038SOL    HW160947   9.627   7.994  10.770
53038SOL    HW260948   9.505   8.084  10.761
53039SOL     OW60949  11.997  14.393   5.806
53039SOL    HW160950  12.024  14.438   5.887
53039SOL    HW260951  11.926  14.447   5.771
53040SOL     OW60952   0.541   8.112   3.251
53040SOL    HW160953   0.478   8.042   3.268
53040SOL    HW260954   0.568   8.141   3.338
53041SOL     OW60955   6.134   4.348   9.556
53041SOL    HW160956   6.048   4.345   9.516
53041SOL    HW260957   6.137   4.272   9.615
53042SOL     OW60958   3.771   9.432  13.961
53042SOL    HW160959   3.750   9.388  13.879
53042SOL    HW260960   3.867   9.438  13.961
53043SOL     OW60961   5.823   5.097  12.637
53043SOL    HW160962   5.792   5.032  12.700
53043SOL    HW260963   5.789   5.180  12.671
53044SOL     OW60964   7.800  10.802   9.561
53044SOL    HW160965   7.880  10.772   9.517
53044SOL    HW260966   7.804  10.897   9.557
53045SOL     OW60967   0.870  10.651   5.953
53045SOL    HW160968   0.784  10.673   5.990
53045SOL    HW260969   0.900  10.732   5.912
53046SOL     OW60970  11.648   5.215   6.054
53046SOL    HW160971  11.556   5.214   6.082
53046SOL    HW260972  11.668   5.124   6.034
53047SOL     OW60973  12.586   1.683   0.959
53047SOL    HW160974  12.491   1.688   0.969
53047SOL    HW260975  12.614   1.775   0.954
53048SOL     OW60976   0.875   3.362  12.335
53048SOL    HW160977   0.869   3.309  12.255
53048SOL    HW260978   0.784   3.378  12.360
53049SOL     OW60979   0.414   2.313   9.259
53049SOL    HW160980   0.335   2.331   9.209
53049SOL    HW260981   0.382   2.300   9.349
53050SOL     OW60982   5.407   2.759  11.906
53050SOL    HW160983   5.480   2.700  11.889
53050SOL    HW260984   5.342   2.703  11.949
53051SOL     OW60985  10.033   0.968   9.471
53051SOL    HW160986   9.997   1.053   9.494
53051SOL    HW260987  10.013   0.959   9.377
53052SOL     OW60988   0.537   7.780  12.210
53052SOL    HW160989   0.489   7.780  12.127
53052SOL    HW260990   0.525   7.691  12.244
53053SOL     OW60991  13.078   2.081  13.335
53053SOL    HW160992  13.137   2.038  13.273
53053SOL    HW260993  13.125   2.162  13.360
53054SOL     OW60994   5.279   7.345  14.645
53054SOL    HW160995   5.302   7.413  14.708
53054SOL    HW260996   5.204   7.300  14.684
53055SOL     OW60997   8.170   6.841  14.038
53055SOL    HW160998   8.246   6.786  14.058
53055SOL    HW260999   8.144   6.813  13.950
53056SOL     OW61000   9.312   0.325   6.003
53056SOL    HW161001   9.383   0.293   5.948
53056SOL    HW261002   9.262   0.246   6.024
53057SOL     OW61003   5.733   7.038   3.506
53057SOL    HW161004   5.640   7.029   3.486
53057SOL    HW261005   5.756   7.125   3.475
53058SOL     OW61006   3.476  12.889   0.064
53058SOL    HW161007   3.570  12.883   0.050
53058SOL    HW261008   3.465  12.869   0.157
53059SOL     OW61009  11.162   1.584   1.230
53059SOL    HW161010  11.086   1.636   1.256
53059SOL    HW261011  11.152   1.502   1.278
53060SOL     OW61012   2.551   9.271  14.237
53060SOL    HW161013   2.586   9.293  14.150
53060SOL    HW261014   2.521   9.181  14.229
53061SOL     OW61015  12.467   5.160   9.463
53061SOL    HW161016  12.444   5.195   9.376
53061SOL    HW261017  12.542   5.104   9.447
53062SOL     OW61018   8.208   0.364  14.409
53062SOL    HW161019   8.149   0.360  14.484
53062SOL    HW261020   8.235   0.274  14.394
53063SOL     OW61021   2.127  14.706   6.937
53063SOL    HW161022   2.060  14.667   6.993
53063SOL    HW261023   2.083  14.723   6.854
53064SOL     OW61024   4.733   5.842  11.511
53064SOL    HW161025   4.809   5.897  11.492
53064SOL    HW261026   4.658   5.900  11.502
53065SOL     OW61027   8.701   1.135   4.407
53065SOL    HW161028   8.785   1.133   4.453
53065SOL    HW261029   8.679   1.228   4.401
53066SOL     OW61030   7.741  12.920   8.871
53066SOL    HW161031   7.699  12.842   8.835
53066SOL    HW261032   7.676  12.989   8.863
53067SOL     OW61033   9.136   9.941   0.585
53067SOL    HW161034   9.115   9.854   0.618
53067SOL    HW261035   9.058   9.994   0.604
53068SOL     OW61036   0.806   9.476  14.689
53068SOL    HW161037   0.745   9.468  14.616
53068SOL    HW261038   0.768   9.544  14.745
53069SOL     OW61039   0.625  10.387   0.244
53069SOL    HW161040   0.594  10.467   0.201
53069SOL    HW261041   0.595  10.395   0.335
53070SOL     OW61042  11.519   2.616   0.342
53070SOL    HW161043  11.478   2.571   0.268
53070SOL    HW261044  11.544   2.545   0.402
53071SOL     OW61045   0.006  14.820  10.039
53071SOL    HW161046  14.851   0.003   9.976
53071SOL    HW261047  14.812  14.806  10.101
53072SOL     OW61048   7.745   0.217   5.615
53072SOL    HW161049   7.772   0.280   5.549
53072SOL    HW261050   7.804   0.232   5.688
53073SOL     OW61051   4.299   3.522  11.839
53073SOL    HW161052   4.302   3.450  11.902
53073SOL    HW261053   4.325   3.599  11.889
53074SOL     OW61054  11.057   7.945  13.356
53074SOL    HW161055  11.082   8.038  13.356
53074SOL    HW261056  11.060   7.919  13.448
53075SOL     OW61057  11.779   4.903   0.821
53075SOL    HW161058  11.718   4.833   0.802
53075SOL    HW261059  11.851   4.860   0.867
53076SOL     OW61060  13.017  10.385   4.663
53076SOL    HW161061  12.952  10.329   4.620
53076SOL    HW261062  13.015  10.466   4.613
53077SOL     OW61063  14.223  10.932   4.673
53077SOL    HW161064  14.186  10.894   4.753
53077SOL    HW261065  14.316  10.944   4.692
53078SOL     OW61066   8.973  12.189   6.102
53078SOL    HW161067   8.912  12.233   6.042
53078SOL    HW261068   9.058  12.197   6.059
53079SOL     OW61069   2.955  10.667  11.654
53079SOL    HW161070   2.954  10.719  11.574
53079SOL    HW261071   3.046  10.669  11.684
53080SOL     OW61072  14.205   7.842   2.788
53080SOL    HW161073  14.247   7.927   2.803
53080SOL    HW261074  14.136   7.861   2.724
53081SOL     OW61075  11.985   5.329  13.511
53081SOL    HW161076  11.891   5.345  13.498
53081SOL    HW261077  12.024   5.416  13.504
53082SOL     OW61078   2.212  11.060   3.924
53082SOL    HW161079   2.272  11.078   3.851
53082SOL    HW261080   2.163  11.142   3.935
53083SOL     OW61081   5.872   7.177   6.188
53083SOL    HW161082   5.787   7.177   6.231
53083SOL    HW261083   5.933   7.148   6.255
53084SOL     OW61084   3.035  14.602  11.125
53084SOL    HW161085   3.007  14.630  11.038
53084SOL    HW261086   3.079  14.679  11.161
53085SOL     OW61087  10.369   2.192   4.918
53085SOL    HW161088  10.414   2.274   4.896
53085SOL    HW261089  10.421   2.124   4.877
53086SOL     OW61090   7.379   5.933   0.173
53086SOL    HW161091   7.464   5.966   0.145
53086SOL    HW261092   7.386   5.838   0.166
53087SOL     OW61093   3.689   9.428   6.406
53087SOL    HW161094   3.665   9.518   6.428
53087SOL    HW261095   3.606   9.385   6.386
53088SOL     OW61096   0.087   7.753   0.808
53088SOL    HW161097   0.055   7.703   0.883
53088SOL    HW261098   0.157   7.808   0.845
53089SOL     OW61099   2.531   7.027  13.534
53089SOL    HW161100   2.516   7.120  13.551
53089SOL    HW261101   2.584   7.026  13.455
53090SOL     OW61102  12.028   2.436   4.790
53090SOL    HW161103  12.040   2.519   4.836
53090SOL    HW261104  12.024   2.370   4.860
53091SOL     OW61105   2.336   7.399  14.679
53091SOL    HW161106   2.243   7.401  14.657
53091SOL    HW261107   2.358   7.306  14.684
53092SOL     OW61108   2.897   4.618   6.286
53092SOL    HW161109   2.908   4.709   6.314
53092SOL    HW261110   2.837   4.580   6.351
53093SOL     OW61111  14.246  11.045  12.560
53093SOL    HW161112  14.296  11.096  12.624
53093SOL    HW261113  14.313  11.001  12.508
53094SOL     OW61114  14.836  14.786  11.391
53094SOL    HW161115  14.794  14.830  11.317
53094SOL    HW261116  14.771  14.790  11.461
53095SOL     OW61117  12.135  11.687   7.770
53095SOL    HW161118  12.223  11.707   7.738
53095SOL    HW261119  12.149  11.642   7.853
53096SOL     OW61120  12.883  12.558  14.737
53096SOL    HW161121  12.802  12.573  14.786
53096SOL    HW261122  12.951  12.602  14.788
53097SOL     OW61123   4.219   8.799   2.935
53097SOL    HW161124   4.297   8.748   2.957
53097SOL    HW261125   4.252   8.887   2.917
53098SOL     OW61126  12.473   0.928   4.106
53098SOL    HW161127  12.477   0.979   4.187
53098SOL    HW261128  12.524   0.979   4.043
53099SOL     OW61129   5.604   3.004   7.536
53099SOL    HW161130   5.632   3.002   7.627
53099SOL    HW261131   5.629   2.919   7.501
53100SOL     OW61132  14.104   7.647  14.245
53100SOL    HW161133  14.057   7.627  14.326
53100SOL    HW261134  14.103   7.743  14.240
53101SOL     OW61135  13.458   4.472   8.660
53101SOL    HW161136  13.543   4.446   8.696
53101SOL    HW261137  13.449   4.420   8.580
53102SOL     OW61138   4.924   4.108  12.890
53102SOL    HW161139   4.911   4.171  12.961
53102SOL    HW261140   5.006   4.134  12.849
53103SOL     OW61141   7.558   1.292   1.386
53103SOL    HW161142   7.624   1.230   1.355
53103SOL    HW261143   7.488   1.287   1.322
53104SOL     OW61144   2.119  14.342   6.618
53104SOL    HW161145   2.179  14.315   6.687
53104SOL    HW261146   2.041  14.374   6.665
53105SOL     OW61147  11.386   7.735  12.314
53105SOL    HW161148  11.298   7.699  12.326
53105SOL    HW261149  11.415   7.756  12.403
53106SOL     OW61150  14.068   4.559   5.262
53106SOL    HW161151  14.022   4.533   5.182
53106SOL    HW261152  14.069   4.655   5.259
53107SOL     OW61153   6.072   5.408   3.844
53107SOL    HW161154   6.087   5.493   3.802
53107SOL    HW261155   6.108   5.418   3.932
53108SOL     OW61156  11.007  14.065  12.032
53108SOL    HW161157  10.984  14.070  11.939
53108SOL    HW261158  10.937  14.111  12.077
53109SOL     OW61159   8.653   3.013  10.916
53109SOL    HW161160   8.654   3.105  10.945
53109SOL    HW261161   8.570   3.005  10.869
53110SOL     OW61162  12.613  11.025   1.075
53110SOL    HW161163  12.526  11.022   1.116
53110SOL    HW261164  12.617  10.945   1.023
53111SOL     OW61165  13.891   4.797   7.137
53111SOL    HW161166  13.838   4.717   7.132
53111SOL    HW261167  13.828   4.868   7.129
53112SOL     OW61168  14.629  13.640   3.196
53112SOL    HW161169  14.684  13.567   3.167
53112SOL    HW261170  14.662  13.661   3.283
53113SOL     OW61171   6.767   0.136   9.490
53113SOL    HW161172   6.720   0.055   9.469
53113SOL    HW261173   6.829   0.148   9.418
53114SOL     OW61174   7.490  13.400   5.527
53114SOL    HW161175   7.518  13.430   5.440
53114SOL    HW261176   7.536  13.317   5.539
53115SOL     OW61177   1.469   1.599   2.677
53115SOL    HW161178   1.503   1.607   2.588
53115SOL    HW261179   1.389   1.546   2.668
53116SOL     OW61180   0.345   3.339   5.025
53116SOL    HW161181   0.330   3.262   5.079
53116SOL    HW261182   0.304   3.318   4.941
53117SOL     OW61183   1.368   2.116  10.697
53117SOL    HW161184   1.435   2.095  10.762
53117SOL    HW261185   1.377   2.211  10.683
53118SOL     OW61186   6.250   5.723  10.117
53118SOL    HW161187   6.214   5.640  10.086
53118SOL    HW261188   6.175   5.782  10.123
53119SOL     OW61189   7.852   7.498   2.130
53119SOL    HW161190   7.904   7.419   2.142
53119SOL    HW261191   7.776   7.485   2.187
53120SOL     OW61192  10.200   4.660   3.127
53120SOL    HW161193  10.200   4.723   3.199
53120SOL    HW261194  10.225   4.577   3.167
53121SOL     OW61195   7.733   5.039   9.827
53121SOL    HW161196   7.702   5.096   9.897
53121SOL    HW261197   7.693   4.954   9.846
53122SOL     OW61198  11.612  14.634   0.575
53122SOL    HW161199  11.595  14.726   0.595
53122SOL    HW261200  11.563  14.586   0.641
53123SOL     OW61201  13.070  10.546   1.254
53123SOL    HW161202  13.132  10.610   1.289
53123SOL    HW261203  13.012  10.527   1.328
53124SOL     OW61204   0.571  10.326   3.273
53124SOL    HW161205   0.487  10.353   3.311
53124SOL    HW261206   0.582  10.235   3.301
53125SOL     OW61207   4.598  14.795  12.874
53125SOL    HW161208   4.516  14.793  12.923
53125SOL    HW261209   4.572  14.780  12.783
53126SOL     OW61210   7.543   3.435  14.866
53126SOL    HW161211   7.505   3.351  14.838
53126SOL    HW261212   7.586   3.415   0.070
53127SOL     OW61213  10.017  11.157   0.294
53127SOL    HW161214  10.095  11.102   0.292
53127SOL    HW261215   9.989  11.156   0.385
53128SOL     OW61216   2.168  11.322   6.303
53128SOL    HW161217   2.085  11.356   6.269
53128SOL    HW261218   2.216  11.293   6.226
53129SOL     OW61219   6.218   3.550   2.624
53129SOL    HW161220   6.185   3.548   2.714
53129SOL    HW261221   6.239   3.459   2.605
53130SOL     OW61222  10.589   1.745   8.830
53130SOL    HW161223  10.645   1.783   8.763
53130SOL    HW261224  10.646   1.686   8.879
53131SOL     OW61225  11.501   2.280   1.894
53131SOL    HW161226  11.575   2.226   1.865
53131SOL    HW261227  11.425   2.223   1.886
53132SOL     OW61228   5.555   6.994   0.643
53132SOL    HW161229   5.511   7.058   0.588
53132SOL    HW261230   5.645   7.026   0.650
53133SOL     OW61231   3.987   1.062   2.208
53133SOL    HW161232   4.021   1.121   2.141
53133SOL    HW261233   4.006   0.974   2.174
53134SOL     OW61234   9.123   3.984   9.409
53134SOL    HW161235   9.030   3.962   9.412
53134SOL    HW261236   9.158   3.948   9.490
53135SOL     OW61237   4.925   4.487  14.703
53135SOL    HW161238   4.902   4.412  14.757
53135SOL    HW261239   5.020   4.496  14.712
53136SOL     OW61240   6.378   6.856   3.511
53136SOL    HW161241   6.458   6.881   3.465
53136SOL    HW261242   6.307   6.883   3.454
53137SOL     OW61243   0.055   0.674  12.560
53137SOL    HW161244   0.125   0.609  12.567
53137SOL    HW261245   0.006   0.648  12.482
53138SOL     OW61246  10.111   4.845   8.844
53138SOL    HW161247  10.126   4.751   8.858
53138SOL    HW261248  10.151   4.864   8.760
53139SOL     OW61249   1.752   9.327   4.860
53139SOL    HW161250   1.743   9.276   4.941
53139SOL    HW261251   1.672   9.380   4.857
53140SOL     OW61252  10.122   3.031   0.232
53140SOL    HW161253  10.163   2.980   0.161
53140SOL    HW261254  10.031   3.039   0.206
53141SOL     OW61255   8.014   0.773   0.856
53141SOL    HW161256   8.009   0.681   0.882
53141SOL    HW261257   8.000   0.771   0.761
53142SOL     OW61258   7.125   6.870   2.829
53142SOL    HW161259   7.070   6.914   2.894
53142SOL    HW261260   7.189   6.937   2.802
53143SOL     OW61261  12.909  11.070   3.501
53143SOL    HW161262  12.967  11.050   3.575
53143SOL    HW261263  12.964  11.061   3.424
53144SOL     OW61264   8.464   8.407  12.044
53144SOL    HW161265   8.531   8.423  12.111
53144SOL    HW261266   8.503   8.341  11.986
53145SOL     OW61267   8.210  14.859  14.630
53145SOL    HW161268   8.245  14.801  14.697
53145SOL    HW261269   8.135   0.023  14.671
53146SOL     OW61270   0.442   2.479  13.312
53146SOL    HW161271   0.404   2.497  13.226
53146SOL    HW261272   0.424   2.386  13.327
53147SOL     OW61273   4.645   5.766   2.225
53147SOL    HW161274   4.697   5.797   2.151
53147SOL    HW261275   4.567   5.822   2.224
53148SOL     OW61276  10.231   0.410   6.290
53148SOL    HW161277  10.196   0.480   6.345
53148SOL    HW261278  10.324   0.407   6.312
53149SOL     OW61279  13.314   0.006   4.461
53149SOL    HW161280  13.229   0.050   4.456
53149SOL    HW261281  13.318  14.832   4.381
53150SOL     OW61282   1.100   1.641  13.408
53150SOL    HW161283   1.085   1.623  13.501
53150SOL    HW261284   1.065   1.564  13.363
53151SOL     OW61285   8.259   1.516   9.469
53151SOL    HW161286   8.247   1.607   9.443
53151SOL    HW261287   8.297   1.521   9.557
53152SOL     OW61288   7.531  10.989   4.565
53152SOL    HW161289   7.593  10.918   4.548
53152SOL    HW261290   7.454  10.945   4.599
53153SOL     OW61291  14.526  12.338   8.238
53153SOL    HW161292  14.508  12.246   8.258
53153SOL    HW261293  14.575  12.336   8.156
53154SOL     OW61294   3.442   2.345  11.773
53154SOL    HW161295   3.511   2.281  11.758
53154SOL    HW261296   3.380   2.331  11.701
53155SOL     OW61297   0.685   0.264  10.488
53155SOL    HW161298   0.631   0.328  10.442
53155SOL    HW261299   0.679   0.288  10.581
53156SOL     OW61300  14.038   1.583   5.223
53156SOL    HW161301  14.032   1.624   5.310
53156SOL    HW261302  14.097   1.640   5.173
53157SOL     OW61303   7.378   0.050   4.005
53157SOL    HW161304   7.431   0.027   4.081
53157SOL    HW261305   7.303  14.869   4.010
53158SOL     OW61306   9.450   1.760  12.223
53158SOL    HW161307   9.484   1.833  12.275
53158SOL    HW261308   9.444   1.795  12.134
53159SOL     OW61309   5.508  13.827   2.428
53159SOL    HW161310   5.545  13.906   2.389
53159SOL    HW261311   5.423  13.855   2.462
53160SOL     OW61312   3.777   0.241  12.462
53160SOL    HW161313   3.742   0.257  12.549
53160SOL    HW261314   3.823   0.157  12.469
53161SOL     OW61315   9.956   5.182  13.797
53161SOL    HW161316   9.868   5.217  13.785
53161SOL    HW261317   9.993   5.234  13.868
53162SOL     OW61318  12.562  12.223  11.719
53162SOL    HW161319  12.489  12.244  11.661
53162SOL    HW261320  12.562  12.127  11.723
53163SOL     OW61321   5.572   2.249  14.696
53163SOL    HW161322   5.488   2.231  14.738
53163SOL    HW261323   5.610   2.320  14.747
53164SOL     OW61324   6.797  12.933   4.567
53164SOL    HW161325   6.739  12.983   4.625
53164SOL    HW261326   6.815  12.852   4.615
53165SOL     OW61327   3.872   0.228   1.234
53165SOL    HW161328   3.958   0.256   1.265
53165SOL    HW261329   3.818   0.307   1.236
53166SOL     OW61330   2.914   1.683  12.479
53166SOL    HW161331   2.962   1.756  12.442
53166SOL    HW261332   2.868   1.719  12.555
53167SOL     OW61333   8.169   7.505  14.607
53167SOL    HW161334   8.141   7.442  14.673
53167SOL    HW261335   8.097   7.505  14.543
53168SOL     OW61336   2.993   8.457   5.572
53168SOL    HW161337   2.922   8.432   5.630
53168SOL    HW261338   2.970   8.419   5.487
53169SOL     OW61339   8.788   3.884  13.228
53169SOL    HW161340   8.758   3.846  13.144
53169SOL    HW261341   8.861   3.828  13.254
53170SOL     OW61342  11.944   4.886   8.069
53170SOL    HW161343  11.890   4.860   7.995
53170SOL    HW261344  12.028   4.910   8.031
53171SOL     OW61345   0.119   2.589  11.170
53171SOL    HW161346   0.168   2.669  11.151
53171SOL    HW261347   0.046   2.618  11.224
53172SOL     OW61348  10.782   8.036   6.738
53172SOL    HW161349  10.762   8.069   6.826
53172SOL    HW261350  10.739   8.098   6.679
53173SOL     OW61351  14.312  12.926   3.321
53173SOL    HW161352  14.294  13.017   3.298
53173SOL    HW261353  14.313  12.880   3.238
53174SOL     OW61354  11.422   5.736   5.569
53174SOL    HW161355  11.389   5.796   5.636
53174SOL    HW261356  11.411   5.783   5.487
53175SOL     OW61357  10.437  14.361  11.885
53175SOL    HW161358  10.457  14.445  11.844
53175SOL    HW261359  10.398  14.385  11.969
53176SOL     OW61360   6.655   5.879   2.029
53176SOL    HW161361   6.720   5.874   1.959
53176SOL    HW261362   6.706   5.883   2.109
53177SOL     OW61363   4.286  12.374   0.912
53177SOL    HW161364   4.217  12.339   0.855
53177SOL    HW261365   4.365  12.329   0.884
53178SOL     OW61366  12.769  14.262   2.586
53178SOL    HW161367  12.860  14.257   2.555
53178SOL    HW261368  12.773  14.229   2.676
53179SOL     OW61369   4.292   5.298  13.030
53179SOL    HW161370   4.220   5.286  13.092
53179SOL    HW261371   4.295   5.393  13.015
53180SOL     OW61372   8.363   5.034   4.642
53180SOL    HW161373   8.452   5.060   4.617
53180SOL    HW261374   8.376   4.968   4.710
53181SOL     OW61375   0.288   6.271  11.081
53181SOL    HW161376   0.320   6.301  11.166
53181SOL    HW261377   0.303   6.176  11.082
53182SOL     OW61378  12.110   2.704  13.820
53182SOL    HW161379  12.153   2.673  13.740
53182SOL    HW261380  12.134   2.796  13.827
53183SOL     OW61381  13.492  12.079   5.376
53183SOL    HW161382  13.582  12.088   5.407
53183SOL    HW261383  13.476  12.159   5.326
53184SOL     OW61384  11.950   0.104   5.264
53184SOL    HW161385  12.003   0.135   5.337
53184SOL    HW261386  11.990   0.143   5.186
53185SOL     OW61387  11.566   1.929   2.135
53185SOL    HW161388  11.584   1.878   2.057
53185SOL    HW261389  11.500   1.993   2.107
53186SOL     OW61390  12.197  14.238  11.336
53186SOL    HW161391  12.153  14.235  11.421
53186SOL    HW261392  12.215  14.331  11.322
53187SOL     OW61393   2.296  10.052   2.306
53187SOL    HW161394   2.284  10.058   2.401
53187SOL    HW261395   2.390  10.066   2.293
53188SOL     OW61396   9.659   2.715   2.630
53188SOL    HW161397   9.682   2.808   2.627
53188SOL    HW261398   9.613   2.699   2.548
53189SOL     OW61399   4.099   3.199   9.450
53189SOL    HW161400   4.112   3.177   9.542
53189SOL    HW261401   4.006   3.219   9.443
53190SOL     OW61402   4.128   4.303   6.527
53190SOL    HW161403   4.050   4.312   6.581
53190SOL    HW261404   4.116   4.366   6.456
53191SOL     OW61405   5.772  12.343  13.491
53191SOL    HW161406   5.702  12.400  13.523
53191SOL    HW261407   5.737  12.304  13.411
53192SOL     OW61408   5.471  10.208  14.676
53192SOL    HW161409   5.437  10.281  14.623
53192SOL    HW261410   5.394  10.172  14.719
53193SOL     OW61411  11.907  10.939   8.609
53193SOL    HW161412  11.818  10.954   8.575
53193SOL    HW261413  11.923  11.013   8.667
53194SOL     OW61414   4.092   9.304  12.432
53194SOL    HW161415   4.176   9.260  12.445
53194SOL    HW261416   4.052   9.306  12.519
53195SOL     OW61417  14.460   5.307   2.849
53195SOL    HW161418  14.423   5.335   2.933
53195SOL    HW261419  14.517   5.378   2.822
53196SOL     OW61420   5.939   3.203   0.889
53196SOL    HW161421   5.900   3.121   0.857
53196SOL    HW261422   6.032   3.182   0.899
53197SOL     OW61423   7.306   9.897  11.423
53197SOL    HW161424   7.218   9.935  11.424
53197SOL    HW261425   7.291   9.803  11.415
53198SOL     OW61426  11.377   7.518   1.493
53198SOL    HW161427  11.295   7.478   1.466
53198SOL    HW261428  11.354   7.609   1.512
53199SOL     OW61429   8.505  11.236  10.912
53199SOL    HW161430   8.414  11.212  10.927
53199SOL    HW261431   8.547  11.154  10.886
53200SOL     OW61432   0.937   8.796   7.671
53200SOL    HW161433   0.996   8.777   7.743
53200SOL    HW261434   0.874   8.723   7.672
53201SOL     OW61435   0.469   0.318  13.934
53201SOL    HW161436   0.395   0.311  13.993
53201SOL    HW261437   0.522   0.390  13.969
53202SOL     OW61438   7.503   0.719   2.078
53202SOL    HW161439   7.523   0.631   2.047
53202SOL    HW261440   7.422   0.743   2.034
53203SOL     OW61441   3.243   9.420  13.766
53203SOL    HW161442   3.259   9.415  13.672
53203SOL    HW261443   3.175   9.355  13.782
53204SOL     OW61444   4.227   5.956   4.407
53204SOL    HW161445   4.239   6.007   4.487
53204SOL    HW261446   4.228   5.865   4.437
53205SOL     OW61447  12.257  13.845  14.658
53205SOL    HW161448  12.260  13.936  14.687
53205SOL    HW261449  12.325  13.838  14.591
53206SOL     OW61450   7.067   2.031  12.658
53206SOL    HW161451   6.984   1.991  12.631
53206SOL    HW261452   7.063   2.120  12.624
53207SOL     OW61453  14.246  12.985   9.418
53207SOL    HW161454  14.258  12.922   9.490
53207SOL    HW261455  14.211  12.932   9.346
53208SOL     OW61456  10.607   1.574  14.451
53208SOL    HW161457  10.614   1.638  14.380
53208SOL    HW261458  10.691   1.527  14.449
53209SOL     OW61459   0.847   4.178   9.542
53209SOL    HW161460   0.837   4.085   9.562
53209SOL    HW261461   0.759   4.214   9.551
53210SOL     OW61462   7.568  11.199  10.704
53210SOL    HW161463   7.636  11.256  10.666
53210SOL    HW261464   7.574  11.216  10.798
53211SOL     OW61465   7.826   5.877  14.300
53211SOL    HW161466   7.900   5.885  14.240
53211SOL    HW261467   7.763   5.821  14.254
53212SOL     OW61468  14.064  14.207   0.428
53212SOL    HW161469  14.043  14.117   0.400
53212SOL    HW261470  14.157  14.216   0.410
53213SOL     OW61471   2.773   6.109   8.064
53213SOL    HW161472   2.699   6.050   8.080
53213SOL    HW261473   2.827   6.102   8.142
53214SOL     OW61474   7.452   4.002   1.097
53214SOL    HW161475   7.468   3.971   1.007
53214SOL    HW261476   7.448   4.097   1.088
53215SOL     OW61477  12.402   1.950   1.835
53215SOL    HW161478  12.315   1.979   1.863
53215SOL    HW261479  12.436   1.901   1.910
53216SOL     OW61480  13.478   4.544   7.431
53216SOL    HW161481  13.509   4.611   7.371
53216SOL    HW261482  13.400   4.507   7.389
53217SOL     OW61483   1.594   8.833   6.881
53217SOL    HW161484   1.625   8.910   6.930
53217SOL    HW261485   1.619   8.851   6.791
53218SOL     OW61486   9.126   8.819   7.410
53218SOL    HW161487   9.172   8.801   7.492
53218SOL    HW261488   9.055   8.879   7.436
53219SOL     OW61489   6.703   8.208   2.313
53219SOL    HW161490   6.792   8.227   2.283
53219SOL    HW261491   6.669   8.293   2.341
53220SOL     OW61492  12.434   3.356  10.289
53220SOL    HW161493  12.482   3.314  10.360
53220SOL    HW261494  12.347   3.318  10.293
53221SOL     OW61495   8.849  12.352   1.227
53221SOL    HW161496   8.865  12.259   1.208
53221SOL    HW261497   8.899  12.369   1.306
53222SOL     OW61498   1.900   7.725   1.095
53222SOL    HW161499   1.969   7.664   1.122
53222SOL    HW261500   1.874   7.770   1.176
53223SOL     OW61501   0.033   3.058  14.175
53223SOL    HW161502   0.086   2.995  14.225
53223SOL    HW261503   0.023   3.017  14.089
53224SOL     OW61504  10.358  13.857   4.625
53224SOL    HW161505  10.313  13.896   4.550
53224SOL    HW261506  10.290  13.852   4.693
53225SOL     OW61507   4.502   5.381   3.533
53225SOL    HW161508   4.482   5.292   3.560
53225SOL    HW261509   4.427   5.432   3.562
53226SOL     OW61510   0.019   3.385   7.856
53226SOL    HW161511   0.094   3.437   7.825
53226SOL    HW261512  14.848   3.366   7.777
53227SOL     OW61513   2.403   7.028   6.231
53227SOL    HW161514   2.422   6.957   6.291
53227SOL    HW261515   2.350   6.988   6.162
53228SOL     OW61516   8.631  10.074   5.666
53228SOL    HW161517   8.680  10.142   5.620
53228SOL    HW261518   8.544  10.112   5.681
53229SOL     OW61519  10.501   9.915   9.280
53229SOL    HW161520  10.508   9.949   9.190
53229SOL    HW261521  10.483   9.992   9.333
53230SOL     OW61522   4.221   8.937   5.278
53230SOL    HW161523   4.170   9.017   5.268
53230SOL    HW261524   4.306   8.967   5.312
53231SOL     OW61525  11.982   3.295   8.489
53231SOL    HW161526  12.008   3.386   8.497
53231SOL    HW261527  11.906   3.296   8.431
53232SOL     OW61528   9.376  13.309   7.737
53232SOL    HW161529   9.411  13.334   7.652
53232SOL    HW261530   9.339  13.391   7.772
53233SOL     OW61531   3.632   8.230   7.895
53233SOL    HW161532   3.712   8.280   7.908
53233SOL    HW261533   3.651   8.144   7.933
53234SOL     OW61534  12.497   4.931  14.081
53234SOL    HW161535  12.463   4.886  14.158
53234SOL    HW261536  12.435   4.909  14.011
53235SOL     OW61537   7.530   4.966   8.467
53235SOL    HW161538   7.538   4.871   8.473
53235SOL    HW261539   7.609   4.994   8.422
53236SOL     OW61540  12.721  11.486   8.608
53236SOL    HW161541  12.814  11.474   8.591
53236SOL    HW261542  12.717  11.559   8.670
53237SOL     OW61543   9.351  11.499   6.386
53237SOL    HW161544   9.422  11.479   6.325
53237SOL    HW261545   9.395  11.544   6.459
53238SOL     OW61546   5.938  13.608   1.491
53238SOL    HW161547   6.001  13.595   1.562
53238SOL    HW261548   5.975  13.560   1.417
53239SOL     OW61549   1.042   4.476   2.011
53239SOL    HW161550   1.108   4.419   2.050
53239SOL    HW261551   0.962   4.455   2.059
53240SOL     OW61552   9.794   2.725   7.496
53240SOL    HW161553   9.854   2.701   7.566
53240SOL    HW261554   9.841   2.704   7.415
53241SOL     OW61555   2.802   7.212  12.056
53241SOL    HW161556   2.877   7.255  12.017
53241SOL    HW261557   2.768   7.275  12.119
53242SOL     OW61558   0.191   0.494  10.595
53242SOL    HW161559   0.150   0.566  10.547
53242SOL    HW261560   0.202   0.425  10.530
53243SOL     OW61561  11.508   6.593   2.042
53243SOL    HW161562  11.563   6.626   2.113
53243SOL    HW261563  11.525   6.499   2.040
53244SOL     OW61564   2.653  12.064   3.354
53244SOL    HW161565   2.647  12.079   3.260
53244SOL    HW261566   2.673  11.970   3.361
53245SOL     OW61567   2.431   3.977  11.071
53245SOL    HW161568   2.511   3.956  11.023
53245SOL    HW261569   2.361   3.936  11.022
53246SOL     OW61570   4.696  11.709   5.949
53246SOL    HW161571   4.730  11.792   5.917
53246SOL    HW261572   4.728  11.702   6.039
53247SOL     OW61573   1.505  10.071   6.346
53247SOL    HW161574   1.592  10.083   6.384
53247SOL    HW261575   1.516   9.998   6.285
53248SOL     OW61576  11.119  11.469   3.634
53248SOL    HW161577  11.208  11.489   3.663
53248SOL    HW261578  11.125  11.468   3.539
53249SOL     OW61579   3.048  12.560  11.301
53249SOL    HW161580   3.014  12.646  11.278
53249SOL    HW261581   2.972  12.502  11.296
53250SOL     OW61582  14.425   1.644  12.443
53250SOL    HW161583  14.505   1.609  12.483
53250SOL    HW261584  14.359   1.636  12.512
53251SOL     OW61585  11.089  10.822   7.911
53251SOL    HW161586  11.042  10.896   7.875
53251SOL    HW261587  11.175  10.857   7.933
53252SOL     OW61588   5.156   4.597   6.217
53252SOL    HW161589   5.073   4.566   6.182
53252SOL    HW261590   5.202   4.518   6.246
53253SOL     OW61591   0.806   6.816   1.834
53253SOL    HW161592   0.769   6.734   1.800
53253SOL    HW261593   0.784   6.881   1.767
53254SOL     OW61594   7.584   0.506   2.801
53254SOL    HW161595   7.554   0.550   2.722
53254SOL    HW261596   7.589   0.413   2.776
53255SOL     OW61597   4.306   9.350   2.797
53255SOL    HW161598   4.384   9.404   2.808
53255SOL    HW261599   4.254   9.365   2.876
53256SOL     OW61600   3.483   6.533   4.567
53256SOL    HW161601   3.527   6.612   4.537
53256SOL    HW261602   3.553   6.481   4.608
53257SOL     OW61603  14.164   8.583   8.671
53257SOL    HW161604  14.114   8.656   8.634
53257SOL    HW261605  14.248   8.622   8.696
53258SOL     OW61606  10.368   5.599   5.346
53258SOL    HW161607  10.415   5.566   5.269
53258SOL    HW261608  10.374   5.528   5.410
53259SOL     OW61609   6.567  13.673   1.452
53259SOL    HW161610   6.590  13.658   1.544
53259SOL    HW261611   6.585  13.589   1.409
53260SOL     OW61612   9.228  14.745   7.080
53260SOL    HW161613   9.248  14.796   7.158
53260SOL    HW261614   9.297  14.679   7.076
53261SOL     OW61615   0.450  10.985   4.312
53261SOL    HW161616   0.417  10.909   4.265
53261SOL    HW261617   0.375  11.044   4.318
53262SOL     OW61618  10.270   4.649   1.260
53262SOL    HW161619  10.286   4.682   1.171
53262SOL    HW261620  10.195   4.699   1.291
53263SOL     OW61621   2.413   3.018  11.768
53263SOL    HW161622   2.463   2.981  11.695
53263SOL    HW261623   2.437   2.965  11.844
53264SOL     OW61624   2.894  14.827   1.065
53264SOL    HW161625   2.817  14.868   1.105
53264SOL    HW261626   2.967  14.852   1.121
53265SOL     OW61627   7.338   6.628  10.469
53265SOL    HW161628   7.319   6.548  10.418
53265SOL    HW261629   7.433   6.638  10.462
53266SOL     OW61630   7.370   9.326   7.969
53266SOL    HW161631   7.386   9.234   7.989
53266SOL    HW261632   7.286   9.345   8.011
53267SOL     OW61633  12.162   2.607  14.107
53267SOL    HW161634  12.226   2.670  14.141
53267SOL    HW261635  12.169   2.617  14.012
53268SOL     OW61636  11.848   7.975   9.453
53268SOL    HW161637  11.846   8.011   9.541
53268SOL    HW261638  11.764   7.931   9.442
53269SOL     OW61639   3.285  10.548   9.194
53269SOL    HW161640   3.275  10.525   9.286
53269SOL    HW261641   3.330  10.632   9.195
53270SOL     OW61642   3.218   5.586   8.050
53270SOL    HW161643   3.210   5.627   7.964
53270SOL    HW261644   3.288   5.522   8.040
53271SOL     OW61645   1.127  10.707  12.517
53271SOL    HW161646   1.062  10.757  12.566
53271SOL    HW261647   1.084  10.687  12.434
53272SOL     OW61648   2.086   6.216   6.704
53272SOL    HW161649   1.997   6.238   6.679
53272SOL    HW261650   2.140   6.287   6.667
53273SOL     OW61651  14.850  13.352   5.479
53273SOL    HW161652   0.038  13.408   5.440
53273SOL    HW261653   0.004  13.331   5.566
53274SOL     OW61654   2.443   2.450  14.605
53274SOL    HW161655   2.415   2.459  14.697
53274SOL    HW261656   2.436   2.538  14.569
53275SOL     OW61657  13.149  11.793   9.158
53275SOL    HW161658  13.074  11.793   9.217
53275SOL    HW261659  13.218  11.747   9.205
53276SOL     OW61660   3.480   6.980   9.795
53276SOL    HW161661   3.443   7.068   9.793
53276SOL    HW261662   3.411   6.925   9.833
53277SOL     OW61663   0.585   5.559   5.587
53277SOL    HW161664   0.531   5.489   5.624
53277SOL    HW261665   0.675   5.525   5.591
53278SOL     OW61666   1.959  14.126  10.150
53278SOL    HW161667   1.980  14.208  10.106
53278SOL    HW261668   1.937  14.152  10.240
53279SOL     OW61669   1.479  14.771  13.181
53279SOL    HW161670   1.451  14.688  13.221
53279SOL    HW261671   1.501  14.748  13.091
53280SOL     OW61672   1.250   1.143   3.467
53280SOL    HW161673   1.317   1.078   3.449
53280SOL    HW261674   1.298   1.225   3.479
53281SOL     OW61675   5.771   2.343   3.571
53281SOL    HW161676   5.852   2.393   3.576
53281SOL    HW261677   5.773   2.303   3.484
53282SOL     OW61678   6.548  11.135  10.484
53282SOL    HW161679   6.461  11.123  10.445
53282SOL    HW261680   6.575  11.046  10.509
53283SOL     OW61681   6.228   6.642   4.596
53283SOL    HW161682   6.221   6.655   4.501
53283SOL    HW261683   6.262   6.726   4.628
53284SOL     OW61684  12.693   2.489   0.827
53284SOL    HW161685  12.676   2.496   0.921
53284SOL    HW261686  12.608   2.472   0.788
53285SOL     OW61687  14.822   0.890   8.687
53285SOL    HW161688  14.805   0.821   8.622
53285SOL    HW261689  14.771   0.965   8.656
53286SOL     OW61690  14.476  14.573   6.734
53286SOL    HW161691  14.526  14.493   6.718
53286SOL    HW261692  14.484  14.624   6.653
53287SOL     OW61693  11.930   8.548   3.594
53287SOL    HW161694  12.024   8.530   3.585
53287SOL    HW261695  11.919   8.638   3.561
53288SOL     OW61696   0.723   6.660  11.652
53288SOL    HW161697   0.678   6.661  11.568
53288SOL    HW261698   0.740   6.568  11.670
53289SOL     OW61699   3.999   9.707   8.463
53289SOL    HW161700   4.019   9.627   8.511
53289SOL    HW261701   4.026   9.778   8.521
53290SOL     OW61702  11.213   6.175   0.357
53290SOL    HW161703  11.233   6.247   0.417
53290SOL    HW261704  11.144   6.125   0.401
53291SOL     OW61705  13.746   4.023   2.285
53291SOL    HW161706  13.838   4.003   2.265
53291SOL    HW261707  13.724   3.967   2.359
53292SOL     OW61708   9.908  12.030  14.481
53292SOL    HW161709   9.987  11.984  14.454
53292SOL    HW261710   9.887  11.993  14.567
53293SOL     OW61711  14.599   4.897   9.259
53293SOL    HW161712  14.526   4.849   9.218
53293SOL    HW261713  14.659   4.828   9.289
53294SOL     OW61714   0.559  13.579  14.668
53294SOL    HW161715   0.507  13.622  14.737
53294SOL    HW261716   0.648  13.576  14.704
53295SOL     OW61717   4.608   8.086   5.277
53295SOL    HW161718   4.548   8.052   5.210
53295SOL    HW261719   4.695   8.069   5.242
53296SOL     OW61720   1.268   9.492  14.001
53296SOL    HW161721   1.304   9.569  13.957
53296SOL    HW261722   1.346   9.440  14.023
53297SOL     OW61723   0.316   2.404   8.426
53297SOL    HW161724   0.351   2.471   8.485
53297SOL    HW261725   0.393   2.359   8.393
53298SOL     OW61726  10.980  14.397  12.413
53298SOL    HW161727  10.962  14.307  12.438
53298SOL    HW261728  10.951  14.403  12.322
53299SOL     OW61729   9.419  12.519   9.566
53299SOL    HW161730   9.429  12.424   9.564
53299SOL    HW261731   9.493  12.550   9.618
53300SOL     OW61732  11.480   0.831  13.734
53300SOL    HW161733  11.531   0.820  13.654
53300SOL    HW261734  11.531   0.785  13.801
53301SOL     OW61735   6.640   4.148  14.310
53301SOL    HW161736   6.628   4.241  14.289
53301SOL    HW261737   6.735   4.135  14.307
53302SOL     OW61738   9.688   6.019   0.031
53302SOL    HW161739   9.721   6.082  14.845
53302SOL    HW261740   9.702   6.063   0.115
53303SOL     OW61741  10.638   7.549   3.633
53303SOL    HW161742  10.688   7.496   3.570
53303SOL    HW261743  10.672   7.523   3.718
53304SOL     OW61744   0.675  12.144   5.608
53304SOL    HW161745   0.646  12.054   5.623
53304SOL    HW261746   0.768  12.143   5.628
53305SOL     OW61747   9.753  12.752  12.454
53305SOL    HW161748   9.741  12.771  12.547
53305SOL    HW261749   9.787  12.663  12.452
53306SOL     OW61750   2.519   6.893   8.836
53306SOL    HW161751   2.515   6.974   8.887
53306SOL    HW261752   2.580   6.912   8.765
53307SOL     OW61753   3.744   1.288   5.127
53307SOL    HW161754   3.759   1.235   5.205
53307SOL    HW261755   3.777   1.375   5.151
53308SOL     OW61756   7.539   2.077   4.712
53308SOL    HW161757   7.563   2.008   4.774
53308SOL    HW261758   7.444   2.081   4.715
53309SOL     OW61759   2.309  11.566   2.738
53309SOL    HW161760   2.344  11.513   2.665
53309SOL    HW261761   2.323  11.511   2.815
53310SOL     OW61762   7.023   7.194   2.727
53310SOL    HW161763   6.997   7.279   2.693
53310SOL    HW261764   7.109   7.209   2.767
53311SOL     OW61765  12.494  11.325   8.641
53311SOL    HW161766  12.584  11.349   8.664
53311SOL    HW261767  12.486  11.348   8.549
53312SOL     OW61768   5.336   8.934   0.766
53312SOL    HW161769   5.254   8.968   0.802
53312SOL    HW261770   5.333   8.840   0.784
53313SOL     OW61771   2.874  13.294   0.720
53313SOL    HW161772   2.885  13.349   0.643
53313SOL    HW261773   2.936  13.223   0.709
53314SOL     OW61774   7.792   9.756   7.100
53314SOL    HW161775   7.858   9.778   7.035
53314SOL    HW261776   7.818   9.804   7.179
53315SOL     OW61777   8.189  12.320   2.807
53315SOL    HW161778   8.176  12.314   2.902
53315SOL    HW261779   8.124  12.260   2.770
53316SOL     OW61780   6.287   0.324  13.822
53316SOL    HW161781   6.242   0.389  13.876
53316SOL    HW261782   6.295   0.364  13.736
53317SOL     OW61783  10.053   6.012   0.973
53317SOL    HW161784  10.068   6.049   0.886
53317SOL    HW261785   9.959   5.998   0.978
53318SOL     OW61786  12.885   4.761  11.656
53318SOL    HW161787  12.947   4.743  11.727
53318SOL    HW261788  12.852   4.848  11.675
53319SOL     OW61789  14.283   8.118   3.124
53319SOL    HW161790  14.196   8.146   3.153
53319SOL    HW261791  14.317   8.067   3.197
53320SOL     OW61792   5.537  14.007   9.910
53320SOL    HW161793   5.540  14.012   9.815
53320SOL    HW261794   5.444  14.015   9.932
53321SOL     OW61795   4.010   8.334  10.068
53321SOL    HW161796   3.951   8.384  10.012
53321SOL    HW261797   4.053   8.273  10.008
53322SOL     OW61798   4.166  11.728   6.386
53322SOL    HW161799   4.080  11.688   6.379
53322SOL    HW261800   4.213  11.699   6.307
53323SOL     OW61801   2.646   0.277   8.883
53323SOL    HW161802   2.614   0.250   8.797
53323SOL    HW261803   2.736   0.245   8.888
53324SOL     OW61804   8.811   9.426   3.642
53324SOL    HW161805   8.832   9.362   3.575
53324SOL    HW261806   8.746   9.483   3.602
53325SOL     OW61807   8.118  11.684   4.819
53325SOL    HW161808   8.048  11.668   4.882
53325SOL    HW261809   8.088  11.758   4.767
53326SOL     OW61810  14.412   4.467   4.273
53326SOL    HW161811  14.320   4.464   4.302
53326SOL    HW261812  14.418   4.546   4.220
53327SOL     OW61813   9.447   9.919  12.483
53327SOL    HW161814   9.509   9.850  12.460
53327SOL    HW261815   9.389   9.927  12.407
53328SOL     OW61816   6.633   9.056   4.174
53328SOL    HW161817   6.663   9.144   4.152
53328SOL    HW261818   6.598   9.021   4.092
53329SOL     OW61819   9.211   6.346  14.412
53329SOL    HW161820   9.255   6.267  14.380
53329SOL    HW261821   9.279   6.413  14.412
53330SOL     OW61822  14.746   5.410  10.489
53330SOL    HW161823  14.702   5.373  10.412
53330SOL    HW261824  14.839   5.408  10.467
53331SOL     OW61825  12.777  10.626  12.216
53331SOL    HW161826  12.751  10.569  12.143
53331SOL    HW261827  12.762  10.573  12.294
53332SOL     OW61828   7.404   2.402  14.087
53332SOL    HW161829   7.347   2.333  14.053
53332SOL    HW261830   7.475   2.407  14.024
53333SOL     OW61831   3.925  14.388   3.577
53333SOL    HW161832   3.944  14.464   3.520
53333SOL    HW261833   4.008  14.340   3.580
53334SOL     OW61834  12.472  14.341  10.431
53334SOL    HW161835  12.564  14.368  10.436
53334SOL    HW261836  12.475  14.246  10.423
53335SOL     OW61837   1.797   3.378  11.886
53335SOL    HW161838   1.785   3.284  11.901
53335SOL    HW261839   1.892   3.391  11.889
53336SOL     OW61840   4.827   6.312   1.773
53336SOL    HW161841   4.786   6.304   1.688
53336SOL    HW261842   4.845   6.406   1.783
53337SOL     OW61843   4.050   2.029  10.707
53337SOL    HW161844   4.138   1.997  10.728
53337SOL    HW261845   3.999   2.011  10.786
53338SOL     OW61846   4.090   6.524   2.382
53338SOL    HW161847   4.096   6.590   2.313
53338SOL    HW261848   4.032   6.456   2.347
53339SOL     OW61849   0.123   9.347  14.734
53339SOL    HW161850   0.096   9.329  14.824
53339SOL    HW261851   0.042   9.368  14.689
53340SOL     OW61852   0.875   9.534   2.148
53340SOL    HW161853   0.884   9.577   2.233
53340SOL    HW261854   0.780   9.531   2.133
53341SOL     OW61855   9.327  11.815   8.555
53341SOL    HW161856   9.385  11.862   8.495
53341SOL    HW261857   9.239  11.831   8.522
53342SOL     OW61858   0.521   7.997  11.029
53342SOL    HW161859   0.555   8.077  10.988
53342SOL    HW261860   0.455   8.027  11.091
53343SOL     OW61861   8.734  11.376   0.145
53343SOL    HW161862   8.699  11.399   0.059
53343SOL    HW261863   8.736  11.280   0.145
53344SOL     OW61864  14.251   4.621  10.516
53344SOL    HW161865  14.225   4.535  10.484
53344SOL    HW261866  14.326   4.604  10.574
53345SOL     OW61867   1.205   2.765   0.473
53345SOL    HW161868   1.206   2.745   0.379
53345SOL    HW261869   1.276   2.829   0.484
53346SOL     OW61870   9.744   4.233  13.477
53346SOL    HW161871   9.715   4.301  13.416
53346SOL    HW261872   9.688   4.158  13.456
53347SOL     OW61873   6.771   7.306  10.547
53347SOL    HW161874   6.769   7.376  10.481
53347SOL    HW261875   6.682   7.272  10.548
53348SOL     OW61876  13.758  10.183  14.328
53348SOL    HW161877  13.711  10.146  14.403
53348SOL    HW261878  13.769  10.276  14.350
53349SOL     OW61879  13.152   5.532   1.636
53349SOL    HW161880  13.246   5.527   1.651
53349SOL    HW261881  13.123   5.441   1.632
53350SOL     OW61882   8.171   0.292   7.765
53350SOL    HW161883   8.112   0.227   7.802
53350SOL    HW261884   8.250   0.244   7.744
53351SOL     OW61885   9.328   3.009   9.686
53351SOL    HW161886   9.314   2.934   9.629
53351SOL    HW261887   9.422   3.027   9.681
53352SOL     OW61888  10.945   8.201   1.798
53352SOL    HW161889  10.850   8.199   1.806
53352SOL    HW261890  10.965   8.138   1.728
53353SOL     OW61891   2.149   5.421  13.738
53353SOL    HW161892   2.173   5.424  13.646
53353SOL    HW261893   2.088   5.494  13.749
53354SOL     OW61894  14.008   8.740  10.136
53354SOL    HW161895  14.102   8.740  10.116
53354SOL    HW261896  13.969   8.687  10.066
53355SOL     OW61897  13.562   1.594   2.512
53355SOL    HW161898  13.531   1.505   2.528
53355SOL    HW261899  13.537   1.642   2.590
53356SOL     OW61900  10.324   3.284   1.686
53356SOL    HW161901  10.291   3.337   1.759
53356SOL    HW261902  10.393   3.338   1.647
53357SOL     OW61903   0.537  11.536  10.222
53357SOL    HW161904   0.445  11.532  10.196
53357SOL    HW261905   0.538  11.503  10.312
53358SOL     OW61906   3.185  13.539  10.683
53358SOL    HW161907   3.101  13.570  10.715
53358SOL    HW261908   3.164  13.469  10.622
53359SOL     OW61909  11.773  13.243  13.936
53359SOL    HW161910  11.737  13.306  13.998
53359SOL    HW261911  11.785  13.163  13.988
53360SOL     OW61912   5.166   4.110   8.843
53360SOL    HW161913   5.180   4.018   8.863
53360SOL    HW261914   5.201   4.121   8.754
53361SOL     OW61915   4.457  10.174   1.665
53361SOL    HW161916   4.367  10.154   1.693
53361SOL    HW261917   4.511  10.118   1.720
53362SOL     OW61918   8.605  10.429   4.908
53362SOL    HW161919   8.575  10.485   4.838
53362SOL    HW261920   8.528  10.418   4.965
53363SOL     OW61921   5.425   3.343  12.935
53363SOL    HW161922   5.377   3.391  13.002
53363SOL    HW261923   5.485   3.407  12.898
53364SOL     OW61924  12.467  12.029   1.180
53364SOL    HW161925  12.397  12.093   1.190
53364SOL    HW261926  12.547  12.082   1.176
53365SOL     OW61927  13.133   5.803   1.560
53365SOL    HW161928  13.098   5.830   1.645
53365SOL    HW261929  13.151   5.710   1.570
53366SOL     OW61930   2.139   6.186   7.950
53366SOL    HW161931   2.103   6.141   7.874
53366SOL    HW261932   2.135   6.122   8.020
53367SOL     OW61933   3.704   4.208   4.676
53367SOL    HW161934   3.615   4.235   4.699
53367SOL    HW261935   3.712   4.228   4.583
53368SOL     OW61936   0.467  11.418   3.686
53368SOL    HW161937   0.479  11.501   3.639
53368SOL    HW261938   0.546  11.368   3.666
53369SOL     OW61939   2.658  11.863   9.979
53369SOL    HW161940   2.664  11.954  10.006
53369SOL    HW261941   2.709  11.815  10.044
53370SOL     OW61942  10.323  10.556   9.883
53370SOL    HW161943  10.367  10.591   9.960
53370SOL    HW261944  10.353  10.466   9.876
53371SOL     OW61945   1.513   2.709   6.357
53371SOL    HW161946   1.547   2.791   6.392
53371SOL    HW261947   1.433   2.692   6.406
53372SOL     OW61948  14.269   5.252   4.859
53372SOL    HW161949  14.192   5.245   4.915
53372SOL    HW261950  14.236   5.283   4.775
53373SOL     OW61951  11.352   4.257  14.141
53373SOL    HW161952  11.388   4.194  14.203
53373SOL    HW261953  11.339   4.337  14.193
53374SOL     OW61954   4.481   5.263   6.263
53374SOL    HW161955   4.403   5.261   6.207
53374SOL    HW261956   4.454   5.217   6.343
53375SOL     OW61957   5.247   5.964  13.250
53375SOL    HW161958   5.182   5.914  13.299
53375SOL    HW261959   5.330   5.946  13.294
53376SOL     OW61960   7.617   6.704  12.186
53376SOL    HW161961   7.680   6.771  12.159
53376SOL    HW261962   7.600   6.654  12.106
53377SOL     OW61963   8.354   7.058  12.191
53377SOL    HW161964   8.399   6.980  12.225
53377SOL    HW261965   8.338   7.038  12.099
53378SOL     OW61966  11.469  14.347   5.674
53378SOL    HW161967  11.384  14.322   5.709
53378SOL    HW261968  11.531  14.325   5.744
53379SOL     OW61969   7.295  14.491  14.001
53379SOL    HW161970   7.366  14.555  13.998
53379SOL    HW261971   7.246  14.505  13.921
53380SOL     OW61972  11.473   6.492   8.754
53380SOL    HW161973  11.486   6.572   8.806
53380SOL    HW261974  11.408   6.516   8.688
53381SOL     OW61975   1.549   1.553   9.602
53381SOL    HW161976   1.468   1.563   9.652
53381SOL    HW261977   1.603   1.496   9.656
53382SOL     OW61978   3.923   3.465  13.305
53382SOL    HW161979   3.894   3.416  13.382
53382SOL    HW261980   3.971   3.540  13.341
53383SOL     OW61981  11.665   5.616   8.898
53383SOL    HW161982  11.674   5.605   8.804
53383SOL    HW261983  11.622   5.535   8.928
53384SOL     OW61984  11.874   6.707  13.753
53384SOL    HW161985  11.939   6.731  13.819
53384SOL    HW261986  11.919   6.721  13.670
53385SOL     OW61987  14.811   1.285  11.400
53385SOL    HW161988  14.845   1.356  11.455
53385SOL    HW261989  14.818   1.318  11.310
53386SOL     OW61990  11.014   2.789  10.044
53386SOL    HW161991  11.054   2.738  10.114
53386SOL    HW261992  10.991   2.872  10.086
53387SOL     OW61993   9.539  10.869   6.003
53387SOL    HW161994   9.552  10.785   6.047
53387SOL    HW261995   9.606  10.926   6.040
53388SOL     OW61996  10.424  12.340   7.229
53388SOL    HW161997  10.434  12.389   7.311
53388SOL    HW261998  10.511  12.306   7.210
53389SOL     OW61999  11.596  11.156   7.269
53389SOL    HW162000  11.519  11.197   7.231
53389SOL    HW262001  11.621  11.087   7.208
53390SOL     OW62002   4.362  12.014   4.167
53390SOL    HW162003   4.300  12.009   4.094
53390SOL    HW262004   4.401  11.926   4.171
53391SOL     OW62005  10.358   6.174   3.048
53391SOL    HW162006  10.381   6.161   3.140
53391SOL    HW262007  10.296   6.247   3.049
53392SOL     OW62008  10.968  13.656  14.264
53392SOL    HW162009  10.925  13.645  14.179
53392SOL    HW262010  10.950  13.747  14.288
53393SOL     OW62011   8.191   2.454  14.040
53393SOL    HW162012   8.210   2.529  13.984
53393SOL    HW262013   8.271   2.402  14.040
53394SOL     OW62014  11.616  11.801   2.420
53394SOL    HW162015  11.557  11.726   2.426
53394SOL    HW262016  11.682  11.775   2.355
53395SOL     OW62017   2.598   1.749  10.937
53395SOL    HW162018   2.520   1.768  10.990
53395SOL    HW262019   2.589   1.806  10.861
53396SOL     OW62020   2.662   9.879  11.225
53396SOL    HW162021   2.644   9.893  11.132
53396SOL    HW262022   2.754   9.901  11.235
53397SOL     OW62023   6.875   2.514   8.733
53397SOL    HW162024   6.888   2.421   8.714
53397SOL    HW262025   6.962   2.552   8.728
53398SOL     OW62026   3.008   6.218  13.075
53398SOL    HW162027   2.932   6.193  13.022
53398SOL    HW262028   3.076   6.155  13.052
53399SOL     OW62029  10.704   5.165   2.990
53399SOL    HW162030  10.663   5.246   2.961
53399SOL    HW262031  10.797   5.176   2.970
53400SOL     OW62032  11.684  13.602  12.843
53400SOL    HW162033  11.686  13.536  12.774
53400SOL    HW262034  11.590  13.618  12.859
53401SOL     OW62035  13.255   5.484   0.935
53401SOL    HW162036  13.182   5.525   0.982
53401SOL    HW262037  13.215   5.449   0.855
53402SOL     OW62038   9.633   7.781   9.984
53402SOL    HW162039   9.559   7.842   9.978
53402SOL    HW262040   9.628   7.748  10.074
53403SOL     OW62041   1.938  14.449   9.983
53403SOL    HW162042   1.913  14.541   9.976
53403SOL    HW262043   2.016  14.440   9.928
53404SOL     OW62044   7.551   4.597   4.761
53404SOL    HW162045   7.596   4.544   4.826
53404SOL    HW262046   7.591   4.683   4.769
53405SOL     OW62047   6.963  13.583   2.229
53405SOL    HW162048   6.901  13.620   2.291
53405SOL    HW262049   7.048  13.593   2.271
53406SOL     OW62050  11.179  13.791   1.032
53406SOL    HW162051  11.225  13.809   0.950
53406SOL    HW262052  11.224  13.845   1.097
53407SOL     OW62053   9.807  14.500  13.453
53407SOL    HW162054   9.781  14.511  13.545
53407SOL    HW262055   9.902  14.515  13.454
53408SOL     OW62056  13.627   2.571  13.228
53408SOL    HW162057  13.690   2.564  13.299
53408SOL    HW262058  13.669   2.525  13.155
53409SOL     OW62059   1.587   2.935   4.680
53409SOL    HW162060   1.563   2.982   4.760
53409SOL    HW262061   1.680   2.913   4.692
53410SOL     OW62062   0.019  13.687  13.706
53410SOL    HW162063  14.811  13.648  13.710
53410SOL    HW262064   0.078  13.616  13.731
53411SOL     OW62065   8.616   0.088   4.920
53411SOL    HW162066   8.680   0.137   4.971
53411SOL    HW262067   8.655   0.001   4.910
53412SOL     OW62068   5.979   8.415   0.400
53412SOL    HW162069   6.032   8.425   0.321
53412SOL    HW262070   6.037   8.372   0.463
53413SOL     OW62071   2.446   4.230   0.421
53413SOL    HW162072   2.489   4.221   0.336
53413SOL    HW262073   2.517   4.243   0.483
53414SOL     OW62074   8.080  14.816   3.338
53414SOL    HW162075   8.063  14.738   3.392
53414SOL    HW262076   8.030   0.006   3.381
53415SOL     OW62077   3.807  12.579   5.387
53415SOL    HW162078   3.789  12.500   5.439
53415SOL    HW262079   3.902  12.577   5.374
53416SOL     OW62080   3.039  12.191  11.713
53416SOL    HW162081   2.948  12.189  11.741
53416SOL    HW262082   3.035  12.198  11.618
53417SOL     OW62083   5.209   7.497   6.849
53417SOL    HW162084   5.246   7.528   6.766
53417SOL    HW262085   5.275   7.519   6.914
53418SOL     OW62086   8.773   7.578   7.730
53418SOL    HW162087   8.855   7.563   7.778
53418SOL    HW262088   8.706   7.581   7.799
53419SOL     OW62089   8.226   1.334   6.567
53419SOL    HW162090   8.220   1.429   6.578
53419SOL    HW262091   8.203   1.298   6.652
53420SOL     OW62092   4.442   6.606   9.486
53420SOL    HW162093   4.425   6.649   9.570
53420SOL    HW262094   4.509   6.660   9.445
53421SOL     OW62095   9.515   3.675   7.672
53421SOL    HW162096   9.420   3.680   7.683
53421SOL    HW262097   9.527   3.654   7.580
53422SOL     OW62098   4.542  11.389   6.848
53422SOL    HW162099   4.481  11.327   6.887
53422SOL    HW262100   4.498  11.474   6.855
53423SOL     OW62101   9.765  10.817  11.786
53423SOL    HW162102   9.765  10.722  11.793
53423SOL    HW262103   9.850  10.838  11.748
53424SOL     OW62104   1.111  11.304  12.063
53424SOL    HW162105   1.020  11.324  12.085
53424SOL    HW262106   1.161  11.329  12.141
53425SOL     OW62107   3.255  12.961   5.126
53425SOL    HW162108   3.269  13.054   5.144
53425SOL    HW262109   3.185  12.959   5.060
53426SOL     OW62110   5.472   6.420   3.984
53426SOL    HW162111   5.486   6.475   4.061
53426SOL    HW262112   5.432   6.340   4.017
53427SOL     OW62113   3.030  11.640   2.416
53427SOL    HW162114   2.943  11.605   2.437
53427SOL    HW262115   3.066  11.667   2.500
53428SOL     OW62116   9.721   6.396   8.155
53428SOL    HW162117   9.722   6.356   8.242
53428SOL    HW262118   9.814   6.410   8.135
53429SOL     OW62119   3.145   5.861   0.236
53429SOL    HW162120   3.175   5.770   0.239
53429SOL    HW262121   3.206   5.905   0.177
53430SOL     OW62122   0.857   7.333  12.812
53430SOL    HW162123   0.922   7.307  12.747
53430SOL    HW262124   0.813   7.252  12.838
53431SOL     OW62125   3.257   0.254   7.925
53431SOL    HW162126   3.320   0.228   7.859
53431SOL    HW262127   3.244   0.176   7.979
53432SOL     OW62128   7.033   9.514   4.006
53432SOL    HW162129   7.026   9.539   4.099
53432SOL    HW262130   7.038   9.418   4.008
53433SOL     OW62131  11.868   8.769   1.424
53433SOL    HW162132  11.828   8.828   1.360
53433SOL    HW262133  11.959   8.761   1.396
53434SOL     OW62134   5.940   1.013   3.145
53434SOL    HW162135   5.937   1.007   3.241
53434SOL    HW262136   5.905   1.099   3.125
53435SOL     OW62137  10.983   4.025   1.822
53435SOL    HW162138  10.961   3.997   1.910
53435SOL    HW262139  11.077   4.041   1.824
53436SOL     OW62140   9.693  12.190   1.781
53436SOL    HW162141   9.682  12.199   1.686
53436SOL    HW262142   9.744  12.110   1.792
53437SOL     OW62143  14.148   2.220   4.152
53437SOL    HW162144  14.103   2.298   4.186
53437SOL    HW262145  14.127   2.152   4.216
53438SOL     OW62146   3.456   0.572   6.391
53438SOL    HW162147   3.549   0.573   6.412
53438SOL    HW262148   3.417   0.632   6.454
53439SOL     OW62149   3.987   6.710   2.739
53439SOL    HW162150   3.970   6.768   2.813
53439SOL    HW262151   4.082   6.701   2.735
53440SOL     OW62152   5.054  10.692   2.787
53440SOL    HW162153   5.068  10.737   2.703
53440SOL    HW262154   4.961  10.670   2.786
53441SOL     OW62155  12.883   5.476   3.691
53441SOL    HW162156  12.957   5.455   3.633
53441SOL    HW262157  12.858   5.393   3.730
53442SOL     OW62158   2.996   3.713   6.255
53442SOL    HW162159   3.090   3.733   6.258
53442SOL    HW262160   2.956   3.791   6.216
53443SOL     OW62161   5.278  13.991  13.879
53443SOL    HW162162   5.205  13.945  13.920
53443SOL    HW262163   5.272  13.967  13.786
53444SOL     OW62164   1.201  14.251   6.769
53444SOL    HW162165   1.108  14.241   6.790
53444SOL    HW262166   1.235  14.161   6.771
53445SOL     OW62167   3.633  11.508   5.135
53445SOL    HW162168   3.546  11.538   5.106
53445SOL    HW262169   3.628  11.510   5.231
53446SOL     OW62170  12.830   1.725  14.068
53446SOL    HW162171  12.838   1.803  14.123
53446SOL    HW262172  12.790   1.659  14.125
53447SOL     OW62173   3.423   2.927   4.628
53447SOL    HW162174   3.384   2.995   4.575
53447SOL    HW262175   3.391   2.944   4.717
53448SOL     OW62176  10.625   3.641   4.619
53448SOL    HW162177  10.661   3.576   4.680
53448SOL    HW262178  10.543   3.602   4.589
53449SOL     OW62179   4.246   6.623   4.745
53449SOL    HW162180   4.309   6.557   4.772
53449SOL    HW262181   4.298   6.688   4.697
53450SOL     OW62182   7.857   3.974   0.548
53450SOL    HW162183   7.875   3.996   0.639
53450SOL    HW262184   7.924   3.909   0.526
53451SOL     OW62185  10.328  14.385   6.114
53451SOL    HW162186  10.241  14.405   6.079
53451SOL    HW262187  10.337  14.291   6.104
53452SOL     OW62188  11.138  11.222   9.468
53452SOL    HW162189  11.222  11.182   9.448
53452SOL    HW262190  11.134  11.300   9.413
53453SOL     OW62191   6.862  13.877   3.100
53453SOL    HW162192   6.771  13.902   3.112
53453SOL    HW262193   6.870  13.794   3.147
53454SOL     OW62194   2.476   8.050   1.224
53454SOL    HW162195   2.483   8.092   1.310
53454SOL    HW262196   2.461   8.123   1.163
53455SOL     OW62197  11.002   6.043  11.008
53455SOL    HW162198  11.043   6.129  11.019
53455SOL    HW262199  10.913   6.062  10.979
53456SOL     OW62200   3.781   3.591   8.850
53456SOL    HW162201   3.697   3.633   8.828
53456SOL    HW262202   3.787   3.517   8.790
53457SOL     OW62203   5.151  13.962  10.054
53457SOL    HW162204   5.198  13.993   9.976
53457SOL    HW262205   5.069  14.011  10.054
53458SOL     OW62206   3.215  12.245  11.904
53458SOL    HW162207   3.139  12.243  11.847
53458SOL    HW262208   3.257  12.160  11.891
53459SOL     OW62209   8.816   0.292   1.986
53459SOL    HW162210   8.831   0.356   1.916
53459SOL    HW262211   8.877   0.221   1.966
53460SOL     OW62212  14.425   9.241  10.344
53460SOL    HW162213  14.447   9.324  10.302
53460SOL    HW262214  14.509   9.200  10.364
53461SOL     OW62215   9.644  11.492   8.704
53461SOL    HW162216   9.638  11.447   8.789
53461SOL    HW262217   9.738  11.506   8.691
53462SOL     OW62218   6.292   8.222   1.997
53462SOL    HW162219   6.252   8.306   2.019
53462SOL    HW262220   6.307   8.180   2.082
53463SOL     OW62221  13.624   0.366   6.864
53463SOL    HW162222  13.604   0.288   6.916
53463SOL    HW262223  13.667   0.333   6.785
53464SOL     OW62224  13.221   0.857   4.156
53464SOL    HW162225  13.278   0.793   4.114
53464SOL    HW262226  13.279   0.931   4.176
53465SOL     OW62227   5.695   7.630   6.512
53465SOL    HW162228   5.740   7.578   6.579
53465SOL    HW262229   5.678   7.714   6.556
53466SOL     OW62230   3.418   3.203  12.681
53466SOL    HW162231   3.372   3.124  12.706
53466SOL    HW262232   3.396   3.216  12.588
53467SOL     OW62233  11.393   3.842   2.131
53467SOL    HW162234  11.379   3.933   2.105
53467SOL    HW262235  11.373   3.840   2.224
53468SOL     OW62236   1.975   1.188   6.287
53468SOL    HW162237   2.020   1.141   6.357
53468SOL    HW262238   2.035   1.185   6.213
53469SOL     OW62239   4.037  14.748   9.919
53469SOL    HW162240   4.058  14.667   9.872
53469SOL    HW262241   3.942  14.745   9.930
53470SOL     OW62242   2.634   4.220  13.411
53470SOL    HW162243   2.706   4.272  13.375
53470SOL    HW262244   2.620   4.151  13.346
53471SOL     OW62245   1.341  13.821   3.604
53471SOL    HW162246   1.293  13.890   3.558
53471SOL    HW262247   1.364  13.758   3.536
53472SOL     OW62248  13.084   8.145   0.399
53472SOL    HW162249  13.112   8.057   0.425
53472SOL    HW262250  13.105   8.151   0.306
53473SOL     OW62251  12.265   2.940  10.399
53473SOL    HW162252  12.274   2.956  10.493
53473SOL    HW262253  12.181   2.979  10.375
53474SOL     OW62254  11.310  11.888  11.028
53474SOL    HW162255  11.251  11.934  11.088
53474SOL    HW262256  11.251  11.842  10.967
53475SOL     OW62257   5.247   9.100   7.926
53475SOL    HW162258   5.204   9.014   7.916
53475SOL    HW262259   5.268   9.126   7.837
53476SOL     OW62260  10.821   0.302   8.418
53476SOL    HW162261  10.886   0.295   8.488
53476SOL    HW262262  10.796   0.395   8.418
53477SOL     OW62263   7.483   7.679  14.466
53477SOL    HW162264   7.454   7.729  14.542
53477SOL    HW262265   7.437   7.595  14.473
53478SOL     OW62266   7.312   3.127   9.573
53478SOL    HW162267   7.222   3.116   9.606
53478SOL    HW262268   7.313   3.216   9.537
53479SOL     OW62269   1.338  13.685  13.608
53479SOL    HW162270   1.275  13.697  13.537
53479SOL    HW262271   1.314  13.751  13.673
53480SOL     OW62272   8.680   1.222   1.017
53480SOL    HW162273   8.683   1.142   1.069
53480SOL    HW262274   8.724   1.199   0.935
53481SOL     OW62275   0.219  14.579   0.331
53481SOL    HW162276   0.164  14.573   0.408
53481SOL    HW262277   0.246  14.671   0.327
53482SOL     OW62278  11.376   2.041   1.037
53482SOL    HW162279  11.303   2.087   0.994
53482SOL    HW262280  11.386   1.961   0.986
53483SOL     OW62281   1.116   6.151  11.260
53483SOL    HW162282   1.100   6.182  11.171
53483SOL    HW262283   1.160   6.223  11.303
53484SOL     OW62284  14.637   0.284   3.391
53484SOL    HW162285  14.687   0.356   3.431
53484SOL    HW262286  14.669   0.281   3.301
53485SOL     OW62287   9.635  13.444   2.971
53485SOL    HW162288   9.598  13.368   2.926
53485SOL    HW262289   9.589  13.448   3.054
53486SOL     OW62290   5.941  11.803   9.414
53486SOL    HW162291   5.941  11.739   9.342
53486SOL    HW262292   5.999  11.873   9.383
53487SOL     OW62293  14.300   6.756  14.465
53487SOL    HW162294  14.264   6.675  14.500
53487SOL    HW262295  14.384   6.730  14.427
53488SOL     OW62296  14.269   2.554   2.569
53488SOL    HW162297  14.201   2.497   2.533
53488SOL    HW262298  14.224   2.637   2.584
53489SOL     OW62299  13.146   1.313   5.048
53489SOL    HW162300  13.214   1.246   5.048
53489SOL    HW262301  13.070   1.270   5.087
53490SOL     OW62302   6.083   0.075   5.517
53490SOL    HW162303   6.079   0.023   5.598
53490SOL    HW262304   6.166   0.122   5.524
53491SOL     OW62305   4.986   4.217   0.494
53491SOL    HW162306   4.985   4.311   0.515
53491SOL    HW262307   5.078   4.198   0.477
53492SOL     OW62308   0.006  13.611   7.088
53492SOL    HW162309   0.028  13.701   7.067
53492SOL    HW262310   0.086  13.562   7.069
53493SOL     OW62311  13.930  12.608   9.167
53493SOL    HW162312  13.971  12.606   9.254
53493SOL    HW262313  14.001  12.633   9.108
53494SOL     OW62314  11.075   7.670  12.103
53494SOL    HW162315  11.061   7.676  12.009
53494SOL    HW262316  11.161   7.630  12.113
53495SOL     OW62317   1.556   4.984  14.017
53495SOL    HW162318   1.603   4.943  14.090
53495SOL    HW262319   1.625   5.026  13.965
53496SOL     OW62320   7.249   5.944   5.990
53496SOL    HW162321   7.247   6.033   5.955
53496SOL    HW262322   7.163   5.932   6.030
53497SOL     OW62323  14.264   5.579  11.526
53497SOL    HW162324  14.304   5.601  11.610
53497SOL    HW262325  14.331   5.600  11.461
53498SOL     OW62326   0.526   0.677   7.097
53498SOL    HW162327   0.570   0.760   7.112
53498SOL    HW262328   0.577   0.635   7.027
53499SOL     OW62329  11.226   7.272   6.848
53499SOL    HW162330  11.282   7.344   6.821
53499SOL    HW262331  11.189   7.238   6.766
53500SOL     OW62332   3.558   3.795  12.440
53500SOL    HW162333   3.471   3.763  12.417
53500SOL    HW262334   3.590   3.837  12.361
53501SOL     OW62335   2.686   4.447   2.719
53501SOL    HW162336   2.685   4.538   2.746
53501SOL    HW262337   2.671   4.449   2.625
53502SOL     OW62338   2.888   3.998  11.449
53502SOL    HW162339   2.846   4.001  11.363
53502SOL    HW262340   2.980   4.019  11.431
53503SOL     OW62341   5.701  12.348   0.888
53503SOL    HW162342   5.778  12.298   0.916
53503SOL    HW262343   5.628  12.287   0.900
53504SOL     OW62344   2.912   5.587  13.597
53504SOL    HW162345   2.885   5.647  13.529
53504SOL    HW262346   2.831   5.563  13.642
53505SOL     OW62347   8.289   5.091  10.865
53505SOL    HW162348   8.222   5.024  10.878
53505SOL    HW262349   8.346   5.083  10.942
53506SOL     OW62350  10.128  13.272  11.533
53506SOL    HW162351  10.213  13.301  11.567
53506SOL    HW262352  10.084  13.352  11.506
53507SOL     OW62353   4.202   1.659   0.595
53507SOL    HW162354   4.174   1.590   0.656
53507SOL    HW262355   4.246   1.723   0.650
53508SOL     OW62356  12.873  14.344   8.631
53508SOL    HW162357  12.880  14.407   8.703
53508SOL    HW262358  12.888  14.259   8.673
53509SOL     OW62359   8.767  12.744   0.371
53509SOL    HW162360   8.684  12.707   0.340
53509SOL    HW262361   8.829  12.671   0.364
53510SOL     OW62362  13.227  10.978  14.395
53510SOL    HW162363  13.223  10.924  14.317
53510SOL    HW262364  13.138  11.014  14.404
53511SOL     OW62365   9.302   1.567   6.769
53511SOL    HW162366   9.250   1.623   6.827
53511SOL    HW262367   9.365   1.524   6.828
53512SOL     OW62368   1.557   0.307  11.475
53512SOL    HW162369   1.600   0.243  11.532
53512SOL    HW262370   1.464   0.296  11.493
53513SOL     OW62371  14.728  14.877   6.877
53513SOL    HW162372  14.742  14.848   6.967
53513SOL    HW262373  14.802   0.055   6.859
53514SOL     OW62374   4.710   4.988  11.201
53514SOL    HW162375   4.742   4.938  11.276
53514SOL    HW262376   4.652   4.927  11.155
53515SOL     OW62377   8.800   1.256   4.844
53515SOL    HW162378   8.785   1.330   4.903
53515SOL    HW262379   8.715   1.243   4.800
53516SOL     OW62380   0.332  14.680   9.711
53516SOL    HW162381   0.292  14.752   9.663
53516SOL    HW262382   0.289  14.680   9.796
53517SOL     OW62383   8.785  11.245   5.967
53517SOL    HW162384   8.876  11.217   5.970
53517SOL    HW262385   8.752  11.211   5.884
53518SOL     OW62386  13.513   1.650   5.660
53518SOL    HW162387  13.537   1.683   5.746
53518SOL    HW262388  13.566   1.701   5.599
53519SOL     OW62389   4.328  12.460   4.227
53519SOL    HW162390   4.293  12.428   4.144
53519SOL    HW262391   4.303  12.394   4.292
53520SOL     OW62392  12.382   4.087   1.288
53520SOL    HW162393  12.333   4.008   1.265
53520SOL    HW262394  12.349   4.112   1.374
53521SOL     OW62395  10.290   0.305   2.003
53521SOL    HW162396  10.287   0.224   1.953
53521SOL    HW262397  10.257   0.281   2.090
53522SOL     OW62398   0.057  14.720   0.102
53522SOL    HW162399   0.100  14.644   0.142
53522SOL    HW262400   0.080  14.793   0.159
53523SOL     OW62401   3.525   7.861   6.979
53523SOL    HW162402   3.498   7.864   6.887
53523SOL    HW262403   3.462   7.918   7.024
53524SOL     OW62404   6.336   0.172   3.525
53524SOL    HW162405   6.395   0.177   3.600
53524SOL    HW262406   6.251   0.151   3.562
53525SOL     OW62407   8.077   0.739  10.577
53525SOL    HW162408   8.133   0.804  10.535
53525SOL    HW262409   8.024   0.788  10.638
53526SOL     OW62410   8.411  12.901   0.661
53526SOL    HW162411   8.482  12.844   0.692
53526SOL    HW262412   8.440  12.931   0.575
53527SOL     OW62413  13.708   1.034   6.180
53527SOL    HW162414  13.716   1.096   6.108
53527SOL    HW262415  13.613   1.028   6.196
53528SOL     OW62416   9.575  12.623   3.753
53528SOL    HW162417   9.617  12.572   3.822
53528SOL    HW262418   9.628  12.606   3.675
53529SOL     OW62419   3.294   2.496   6.709
53529SOL    HW162420   3.376   2.529   6.744
53529SOL    HW262421   3.231   2.566   6.725
53530SOL     OW62422  12.825  12.310   5.421
53530SOL    HW162423  12.824  12.267   5.335
53530SOL    HW262424  12.767  12.386   5.410
53531SOL     OW62425   6.613  10.714   8.912
53531SOL    HW162426   6.613  10.748   8.822
53531SOL    HW262427   6.589  10.622   8.902
53532SOL     OW62428  12.411  13.509   6.451
53532SOL    HW162429  12.439  13.502   6.360
53532SOL    HW262430  12.377  13.423   6.472
53533SOL     OW62431   2.402  14.022   3.794
53533SOL    HW162432   2.483  13.989   3.755
53533SOL    HW262433   2.334  13.963   3.763
53534SOL     OW62434   2.262   5.676   2.457
53534SOL    HW162435   2.324   5.664   2.385
53534SOL    HW262436   2.195   5.609   2.443
53535SOL     OW62437  12.618  11.259   5.265
53535SOL    HW162438  12.649  11.226   5.349
53535SOL    HW262439  12.692  11.311   5.231
53536SOL     OW62440  13.527  13.755   5.726
53536SOL    HW162441  13.566  13.784   5.643
53536SOL    HW262442  13.464  13.688   5.701
53537SOL     OW62443  11.435   8.080  12.923
53537SOL    HW162444  11.523   8.097  12.955
53537SOL    HW262445  11.448   8.037  12.838
53538SOL     OW62446   8.610   9.947   0.418
53538SOL    HW162447   8.598   9.982   0.506
53538SOL    HW262448   8.699   9.974   0.394
53539SOL     OW62449   7.128   4.068   3.983
53539SOL    HW162450   7.043   4.108   3.968
53539SOL    HW262451   7.129   3.991   3.926
53540SOL     OW62452  13.927   9.570   8.686
53540SOL    HW162453  13.837   9.538   8.693
53540SOL    HW262454  13.963   9.559   8.775
53541SOL     OW62455   1.838  13.748   6.279
53541SOL    HW162456   1.912  13.715   6.228
53541SOL    HW262457   1.780  13.672   6.288
53542SOL     OW62458   0.365   9.811   4.178
53542SOL    HW162459   0.438   9.786   4.121
53542SOL    HW262460   0.310   9.733   4.182
53543SOL     OW62461   5.051   5.155  14.323
53543SOL    HW162462   5.025   5.065  14.303
53543SOL    HW262463   5.145   5.148  14.343
53544SOL     OW62464   1.439   7.805   7.558
53544SOL    HW162465   1.455   7.878   7.618
53544SOL    HW262466   1.526   7.774   7.534
53545SOL     OW62467   8.386   8.764  10.972
53545SOL    HW162468   8.387   8.701  11.044
53545SOL    HW262469   8.302   8.751  10.929
53546SOL     OW62470   5.777   9.462   4.464
53546SOL    HW162471   5.752   9.458   4.557
53546SOL    HW262472   5.784   9.371   4.437
53547SOL     OW62473  10.937   0.833   7.076
53547SOL    HW162474  10.899   0.747   7.096
53547SOL    HW262475  11.022   0.813   7.038
53548SOL     OW62476   0.099  12.442   2.220
53548SOL    HW162477   0.141  12.519   2.259
53548SOL    HW262478   0.006  12.452   2.241
53549SOL     OW62479  11.723   3.809   6.733
53549SOL    HW162480  11.702   3.729   6.684
53549SOL    HW262481  11.789   3.854   6.680
53550SOL     OW62482   4.242  13.245   3.554
53550SOL    HW162483   4.303  13.181   3.590
53550SOL    HW262484   4.157  13.203   3.562
53551SOL     OW62485   0.835   0.461   5.489
53551SOL    HW162486   0.877   0.435   5.571
53551SOL    HW262487   0.880   0.541   5.464
53552SOL     OW62488   4.862   7.061   9.296
53552SOL    HW162489   4.935   7.092   9.242
53552SOL    HW262490   4.884   6.969   9.315
53553SOL     OW62491   3.252   5.143  14.549
53553SOL    HW162492   3.191   5.176  14.483
53553SOL    HW262493   3.263   5.217  14.610
53554SOL     OW62494   6.322   6.406   5.033
53554SOL    HW162495   6.257   6.434   4.967
53554SOL    HW262496   6.399   6.381   4.981
53555SOL     OW62497   6.173  12.934   1.678
53555SOL    HW162498   6.223  12.948   1.598
53555SOL    HW262499   6.178  12.840   1.693
53556SOL     OW62500   0.194   5.556   9.884
53556SOL    HW162501   0.206   5.476   9.935
53556SOL    HW262502   0.279   5.598   9.886
53557SOL     OW62503   8.756  13.449   3.466
53557SOL    HW162504   8.744  13.464   3.373
53557SOL    HW262505   8.689  13.385   3.489
53558SOL     OW62506   2.497   8.223  12.588
53558SOL    HW162507   2.435   8.292  12.562
53558SOL    HW262508   2.466   8.145  12.542
53559SOL     OW62509   9.289  10.199   4.061
53559SOL    HW162510   9.234  10.190   4.140
53559SOL    HW262511   9.228  10.184   3.989
53560SOL     OW62512   3.695   9.626   3.814
53560SOL    HW162513   3.642   9.566   3.761
53560SOL    HW262514   3.777   9.579   3.829
53561SOL     OW62515  10.399   9.917  12.951
53561SOL    HW162516  10.420   9.933  13.043
53561SOL    HW262517  10.332   9.983  12.930
53562SOL     OW62518  12.339  13.001   1.319
53562SOL    HW162519  12.281  12.937   1.359
53562SOL    HW262520  12.426  12.962   1.324
53563SOL     OW62521  10.072   2.174   0.257
53563SOL    HW162522  10.149   2.124   0.227
53563SOL    HW262523  10.097   2.205   0.344
53564SOL     OW62524   8.813   8.971   3.611
53564SOL    HW162525   8.847   9.011   3.531
53564SOL    HW262526   8.752   9.037   3.646
53565SOL     OW62527   9.946  13.791   4.468
53565SOL    HW162528   9.903  13.873   4.446
53565SOL    HW262529   9.879  13.724   4.455
53566SOL     OW62530   5.527   7.333  10.196
53566SOL    HW162531   5.449   7.364  10.242
53566SOL    HW262532   5.582   7.297  10.265
53567SOL     OW62533  14.244   5.447   0.788
53567SOL    HW162534  14.169   5.436   0.847
53567SOL    HW262535  14.313   5.485   0.843
53568SOL     OW62536   6.937   0.420   3.023
53568SOL    HW162537   6.869   0.463   2.971
53568SOL    HW262538   6.975   0.490   3.077
53569SOL     OW62539  12.525  13.864   7.989
53569SOL    HW162540  12.519  13.954   7.957
53569SOL    HW262541  12.479  13.864   8.073
53570SOL     OW62542   9.559   2.720  10.659
53570SOL    HW162543   9.482   2.732  10.603
53570SOL    HW262544   9.557   2.628  10.684
53571SOL     OW62545   4.636   4.458   2.684
53571SOL    HW162546   4.643   4.431   2.776
53571SOL    HW262547   4.641   4.375   2.635
53572SOL     OW62548   0.393   2.679   9.126
53572SOL    HW162549   0.407   2.640   9.212
53572SOL    HW262550   0.476   2.667   9.080
53573SOL     OW62551   2.514  11.351   9.428
53573SOL    HW162552   2.509  11.266   9.385
53573SOL    HW262553   2.568  11.404   9.369
53574SOL     OW62554   5.667   5.635  12.757
53574SOL    HW162555   5.680   5.730  12.754
53574SOL    HW262556   5.629   5.613  12.672
53575SOL     OW62557   4.178   5.120   0.446
53575SOL    HW162558   4.189   5.201   0.494
53575SOL    HW262559   4.251   5.119   0.384
53576SOL     OW62560   9.050  10.415   3.612
53576SOL    HW162561   9.091  10.469   3.544
53576SOL    HW262562   9.037  10.330   3.571
53577SOL     OW62563   5.987  12.087   9.293
53577SOL    HW162564   5.892  12.087   9.281
53577SOL    HW262565   6.006  12.174   9.331
53578SOL     OW62566   5.539   4.641   6.086
53578SOL    HW162567   5.617   4.649   6.141
53578SOL    HW262568   5.489   4.721   6.104
53579SOL     OW62569  11.615   5.253   3.732
53579SOL    HW162570  11.710   5.257   3.717
53579SOL    HW262571  11.593   5.340   3.765
53580SOL     OW62572   5.046   7.237   7.834
53580SOL    HW162573   5.121   7.289   7.863
53580SOL    HW262574   4.992   7.298   7.783
53581SOL     OW62575   6.702   7.959   2.412
53581SOL    HW162576   6.692   8.053   2.398
53581SOL    HW262577   6.636   7.937   2.477
53582SOL     OW62578  12.538  11.866   3.281
53582SOL    HW162579  12.461  11.844   3.333
53582SOL    HW262580  12.612  11.849   3.340
53583SOL     OW62581   2.476  10.330   7.058
53583SOL    HW162582   2.423  10.317   6.979
53583SOL    HW262583   2.536  10.255   7.059
53584SOL     OW62584   2.924   2.843   6.636
53584SOL    HW162585   2.872   2.819   6.559
53584SOL    HW262586   2.876   2.917   6.675
53585SOL     OW62587   0.018   0.900  14.325
53585SOL    HW162588   0.078   0.830  14.298
53585SOL    HW262589   0.075   0.965  14.368
53586SOL     OW62590   5.490   1.165   3.244
53586SOL    HW162591   5.528   1.232   3.187
53586SOL    HW262592   5.442   1.108   3.184
53587SOL     OW62593  14.681  10.993   1.696
53587SOL    HW162594  14.745  11.064   1.689
53587SOL    HW262595  14.629  11.015   1.774
53588SOL     OW62596   5.813   1.119   8.246
53588SOL    HW162597   5.760   1.108   8.167
53588SOL    HW262598   5.821   1.213   8.257
53589SOL     OW62599  11.991   9.771  14.596
53589SOL    HW162600  12.074   9.816  14.578
53589SOL    HW262601  11.924   9.837  14.581
53590SOL     OW62602   5.516  13.651   1.445
53590SOL    HW162603   5.506  13.556   1.450
53590SOL    HW262604   5.580  13.673   1.512
53591SOL     OW62605   1.104   8.768   6.661
53591SOL    HW162606   1.087   8.702   6.593
53591SOL    HW262607   1.099   8.720   6.743
53592SOL     OW62608   9.612   9.516   5.603
53592SOL    HW162609   9.653   9.430   5.615
53592SOL    HW262610   9.616   9.531   5.508
53593SOL     OW62611   4.522  14.690   1.830
53593SOL    HW162612   4.591  14.659   1.888
53593SOL    HW262613   4.481  14.762   1.878
53594SOL     OW62614   7.116   6.988   8.669
53594SOL    HW162615   7.163   7.002   8.587
53594SOL    HW262616   7.045   7.052   8.668
53595SOL     OW62617  12.737  13.829   3.941
53595SOL    HW162618  12.755  13.773   4.017
53595SOL    HW262619  12.808  13.809   3.880
53596SOL     OW62620   8.846  13.737   5.865
53596SOL    HW162621   8.848  13.642   5.852
53596SOL    HW262622   8.782  13.751   5.934
53597SOL     OW62623  10.236   5.342  13.378
53597SOL    HW162624  10.245   5.364  13.471
53597SOL    HW262625  10.262   5.421  13.332
53598SOL     OW62626   5.738   5.919   4.814
53598SOL    HW162627   5.738   5.861   4.890
53598SOL    HW262628   5.808   5.886   4.758
53599SOL     OW62629   2.329  10.734  10.750
53599SOL    HW162630   2.330  10.716  10.656
53599SOL    HW262631   2.419  10.761  10.770
53600SOL     OW62632  12.797  10.910  12.118
53600SOL    HW162633  12.801  10.839  12.183
53600SOL    HW262634  12.807  10.866  12.034
53601SOL     OW62635   4.800   3.428   8.285
53601SOL    HW162636   4.882   3.392   8.317
53601SOL    HW262637   4.822   3.469   8.201
53602SOL     OW62638   3.877  14.408   0.161
53602SOL    HW162639   3.824  14.458   0.223
53602SOL    HW262640   3.963  14.450   0.163
53603SOL     OW62641   4.260  10.916   2.742
53603SOL    HW162642   4.177  10.961   2.728
53603SOL    HW262643   4.246  10.829   2.706
53604SOL     OW62644   2.864  10.419   2.336
53604SOL    HW162645   2.891  10.468   2.258
53604SOL    HW262646   2.889  10.475   2.410
53605SOL     OW62647   9.601  12.505   3.425
53605SOL    HW162648   9.517  12.505   3.379
53605SOL    HW262649   9.612  12.415   3.456
53606SOL     OW62650   2.469   1.663   7.971
53606SOL    HW162651   2.401   1.676   7.905
53606SOL    HW262652   2.544   1.712   7.939
53607SOL     OW62653  12.814   7.738   9.597
53607SOL    HW162654  12.836   7.650   9.566
53607SOL    HW262655  12.886   7.762   9.655
53608SOL     OW62656   6.497   2.673   3.341
53608SOL    HW162657   6.420   2.687   3.396
53608SOL    HW262658   6.473   2.599   3.284
53609SOL     OW62659  14.855   4.258   5.518
53609SOL    HW162660   0.021   4.305   5.588
53609SOL    HW262661   0.041   4.198   5.483
53610SOL     OW62662   3.611   5.524   0.887
53610SOL    HW162663   3.685   5.566   0.931
53610SOL    HW262664   3.537   5.538   0.947
53611SOL     OW62665   8.457  10.259  11.183
53611SOL    HW162666   8.472  10.343  11.226
53611SOL    HW262667   8.392  10.215  11.237
53612SOL     OW62668   8.299  12.678   9.660
53612SOL    HW162669   8.307  12.771   9.682
53612SOL    HW262670   8.355  12.668   9.583
53613SOL     OW62671  10.350   7.669  12.672
53613SOL    HW162672  10.430   7.696  12.715
53613SOL    HW262673  10.365   7.687  12.579
53614SOL     OW62674   7.803   1.651  14.450
53614SOL    HW162675   7.786   1.735  14.492
53614SOL    HW262676   7.818   1.673  14.358
53615SOL     OW62677   1.513  10.430  10.005
53615SOL    HW162678   1.601  10.397   9.984
53615SOL    HW262679   1.479  10.462   9.922
53616SOL     OW62680  11.868   7.523   4.243
53616SOL    HW162681  11.897   7.486   4.159
53616SOL    HW262682  11.773   7.528   4.234
53617SOL     OW62683   3.979  11.799   4.308
53617SOL    HW162684   3.981  11.728   4.244
53617SOL    HW262685   3.914  11.861   4.273
53618SOL     OW62686   6.302   5.843  11.868
53618SOL    HW162687   6.388   5.886  11.869
53618SOL    HW262688   6.323   5.749  11.866
53619SOL     OW62689   1.108   3.941   7.879
53619SOL    HW162690   1.105   3.886   7.801
53619SOL    HW262691   1.108   3.879   7.953
53620SOL     OW62692   6.577  12.912  14.586
53620SOL    HW162693   6.636  12.986  14.598
53620SOL    HW262694   6.576  12.867  14.671
53621SOL     OW62695   9.565  10.419   5.950
53621SOL    HW162696   9.588  10.484   6.016
53621SOL    HW262697   9.506  10.359   5.995
53622SOL     OW62698  13.278   6.043   8.066
53622SOL    HW162699  13.221   6.108   8.109
53622SOL    HW262700  13.314   6.089   7.990
53623SOL     OW62701   8.173  11.494   2.387
53623SOL    HW162702   8.159  11.463   2.297
53623SOL    HW262703   8.204  11.417   2.435
53624SOL     OW62704   7.024  10.176   7.379
53624SOL    HW162705   6.951  10.150   7.434
53624SOL    HW262706   7.089  10.211   7.441
53625SOL     OW62707   4.346  12.238  12.084
53625SOL    HW162708   4.273  12.204  12.136
53625SOL    HW262709   4.368  12.166  12.024
53626SOL     OW62710   6.541  14.633   7.445
53626SOL    HW162711   6.636  14.627   7.451
53626SOL    HW262712   6.526  14.692   7.371
53627SOL     OW62713  11.788   2.204  10.745
53627SOL    HW162714  11.833   2.128  10.706
53627SOL    HW262715  11.752   2.251  10.670
53628SOL     OW62716   4.844   8.957   7.842
53628SOL    HW162717   4.850   9.007   7.924
53628SOL    HW262718   4.914   8.990   7.788
53629SOL     OW62719   9.381  14.290   5.801
53629SOL    HW162720   9.346  14.227   5.738
53629SOL    HW262721   9.318  14.362   5.801
53630SOL     OW62722  13.110   8.204   1.996
53630SOL    HW162723  13.149   8.275   1.945
53630SOL    HW262724  13.118   8.126   1.940
53631SOL     OW62725   8.648   8.689   6.532
53631SOL    HW162726   8.568   8.725   6.495
53631SOL    HW262727   8.622   8.604   6.568
53632SOL     OW62728   9.574   4.910   3.710
53632SOL    HW162729   9.486   4.944   3.691
53632SOL    HW262730   9.598   4.860   3.632
53633SOL     OW62731   8.409  10.482   5.331
53633SOL    HW162732   8.389  10.502   5.423
53633SOL    HW262733   8.382  10.560   5.283
53634SOL     OW62734   9.788   9.921   6.539
53634SOL    HW162735   9.871   9.895   6.580
53634SOL    HW262736   9.753   9.989   6.596
53635SOL     OW62737  13.338  13.796  12.631
53635SOL    HW162738  13.306  13.871  12.581
53635SOL    HW262739  13.431  13.815  12.647
53636SOL     OW62740   5.704   2.768   2.016
53636SOL    HW162741   5.647   2.768   2.094
53636SOL    HW262742   5.646   2.740   1.945
53637SOL     OW62743   1.551   5.666   3.663
53637SOL    HW162744   1.633   5.662   3.615
53637SOL    HW262745   1.547   5.583   3.710
53638SOL     OW62746   4.839  10.526  11.649
53638SOL    HW162747   4.884  10.447  11.679
53638SOL    HW262748   4.898  10.597  11.671
53639SOL     OW62749   4.109   5.330   4.456
53639SOL    HW162750   4.068   5.342   4.370
53639SOL    HW262751   4.070   5.250   4.491
53640SOL     OW62752   3.276   7.477   3.931
53640SOL    HW162753   3.249   7.561   3.968
53640SOL    HW262754   3.337   7.441   3.995
53641SOL     OW62755   7.133  10.454  10.674
53641SOL    HW162756   7.112  10.405  10.594
53641SOL    HW262757   7.063  10.519  10.682
53642SOL     OW62758   7.681   2.707   1.408
53642SOL    HW162759   7.728   2.738   1.485
53642SOL    HW262760   7.596   2.679   1.442
53643SOL     OW62761  10.332  13.983   2.558
53643SOL    HW162762  10.337  13.991   2.462
53643SOL    HW262763  10.271  13.910   2.572
53644SOL     OW62764   5.747  14.834   5.982
53644SOL    HW162765   5.698   0.023   5.936
53644SOL    HW262766   5.694  14.755   5.973
53645SOL     OW62767  13.523   7.809   7.185
53645SOL    HW162768  13.605   7.762   7.198
53645SOL    HW262769  13.477   7.801   7.269
53646SOL     OW62770  10.815   1.643   7.315
53646SOL    HW162771  10.836   1.690   7.395
53646SOL    HW262772  10.744   1.584   7.340
53647SOL     OW62773  13.896   7.113   6.467
53647SOL    HW162774  13.881   7.112   6.562
53647SOL    HW262775  13.931   7.201   6.450
53648SOL     OW62776   5.082   2.045   5.303
53648SOL    HW162777   5.045   2.102   5.371
53648SOL    HW262778   5.176   2.067   5.302
53649SOL     OW62779   6.105  14.401   8.145
53649SOL    HW162780   6.099  14.329   8.082
53649SOL    HW262781   6.145  14.361   8.223
53650SOL     OW62782   8.151   2.195  13.620
53650SOL    HW162783   8.205   2.139  13.676
53650SOL    HW262784   8.166   2.162  13.532
53651SOL     OW62785   4.153   9.147   5.679
53651SOL    HW162786   4.107   9.128   5.597
53651SOL    HW262787   4.154   9.063   5.725
53652SOL     OW62788   3.151   5.322   1.286
53652SOL    HW162789   3.199   5.398   1.317
53652SOL    HW262790   3.209   5.282   1.220
53653SOL     OW62791  10.282  14.446   1.661
53653SOL    HW162792  10.302  14.415   1.572
53653SOL    HW262793  10.350  14.406   1.715
53654SOL     OW62794  10.307  12.841   4.013
53654SOL    HW162795  10.236  12.825   3.950
53654SOL    HW262796  10.286  12.926   4.050
53655SOL     OW62797  11.388   1.267   5.235
53655SOL    HW162798  11.295   1.243   5.226
53655SOL    HW262799  11.434   1.184   5.236
53656SOL     OW62800   4.493   5.673  13.636
53656SOL    HW162801   4.572   5.698  13.684
53656SOL    HW262802   4.518   5.594  13.588
53657SOL     OW62803   8.438   2.881   6.784
53657SOL    HW162804   8.429   2.799   6.736
53657SOL    HW262805   8.382   2.943   6.737
53658SOL     OW62806  11.272   6.475   5.303
53658SOL    HW162807  11.209   6.545   5.319
53658SOL    HW262808  11.278   6.428   5.386
53659SOL     OW62809  11.924   2.580  12.853
53659SOL    HW162810  11.969   2.559  12.934
53659SOL    HW262811  11.907   2.674  12.859
53660SOL     OW62812  10.611   7.020   7.985
53660SOL    HW162813  10.521   7.025   7.953
53660SOL    HW262814  10.606   7.046   8.077
53661SOL     OW62815  14.329  12.394  11.293
53661SOL    HW162816  14.261  12.336  11.329
53661SOL    HW262817  14.401  12.335  11.269
53662SOL     OW62818   4.074  14.804   6.463
53662SOL    HW162819   4.120  14.837   6.385
53662SOL    HW262820   4.129  14.733   6.495
53663SOL     OW62821   0.132   6.598  13.619
53663SOL    HW162822   0.102   6.530  13.679
53663SOL    HW262823   0.073   6.672  13.634
53664SOL     OW62824   1.978   0.496   1.222
53664SOL    HW162825   1.954   0.547   1.300
53664SOL    HW262826   2.053   0.443   1.250
53665SOL     OW62827  10.215  13.214   5.334
53665SOL    HW162828  10.232  13.123   5.313
53665SOL    HW262829  10.288  13.241   5.390
53666SOL     OW62830   9.670   5.377  12.423
53666SOL    HW162831   9.660   5.393  12.329
53666SOL    HW262832   9.581   5.362  12.454
53667SOL     OW62833   3.027   0.096  13.536
53667SOL    HW162834   2.954   0.143  13.496
53667SOL    HW262835   2.997   0.076  13.625
53668SOL     OW62836   3.544   2.330   7.702
53668SOL    HW162837   3.469   2.382   7.732
53668SOL    HW262838   3.516   2.293   7.618
53669SOL     OW62839   2.102  13.456   7.122
53669SOL    HW162840   2.029  13.510   7.093
53669SOL    HW262841   2.157  13.444   7.044
53670SOL     OW62842   5.860  13.797   8.408
53670SOL    HW162843   5.891  13.733   8.472
53670SOL    HW262844   5.787  13.841   8.450
53671SOL     OW62845   9.612   3.942  14.560
53671SOL    HW162846   9.674   3.998  14.513
53671SOL    HW262847   9.589   3.874  14.496
53672SOL     OW62848   8.566   5.292   8.267
53672SOL    HW162849   8.486   5.333   8.300
53672SOL    HW262850   8.629   5.300   8.338
53673SOL     OW62851   4.441  13.068  12.372
53673SOL    HW162852   4.497  12.996  12.400
53673SOL    HW262853   4.358  13.027  12.349
53674SOL     OW62854  13.154   5.362   4.858
53674SOL    HW162855  13.180   5.344   4.768
53674SOL    HW262856  13.126   5.454   4.856
53675SOL     OW62857   5.034   7.337   2.167
53675SOL    HW162858   5.108   7.357   2.109
53675SOL    HW262859   4.958   7.375   2.123
53676SOL     OW62860   6.588   5.289   7.045
53676SOL    HW162861   6.655   5.238   6.999
53676SOL    HW262862   6.602   5.379   7.015
53677SOL     OW62863   2.103  14.692  10.421
53677SOL    HW162864   2.165  14.622  10.397
53677SOL    HW262865   2.151  14.772  10.403
53678SOL     OW62866  12.613   2.040  14.835
53678SOL    HW162867  12.658   2.124  14.830
53678SOL    HW262868  12.664   1.981  14.781
53679SOL     OW62869   4.872   7.849   8.386
53679SOL    HW162870   4.856   7.925   8.442
53679SOL    HW262871   4.829   7.776   8.432
53680SOL     OW62872  11.898   2.121   1.608
53680SOL    HW162873  11.960   2.187   1.638
53680SOL    HW262874  11.877   2.146   1.518
53681SOL     OW62875  13.462   8.640   7.658
53681SOL    HW162876  13.540   8.665   7.608
53681SOL    HW262877  13.488   8.561   7.706
53682SOL     OW62878  14.317   2.035  13.532
53682SOL    HW162879  14.363   1.986  13.464
53682SOL    HW262880  14.386   2.066  13.590
53683SOL     OW62881  12.272   5.978  11.824
53683SOL    HW162882  12.240   6.057  11.869
53683SOL    HW262883  12.208   5.910  11.846
53684SOL     OW62884   8.963  14.639   3.290
53684SOL    HW162885   9.003  14.682   3.215
53684SOL    HW262886   9.028  14.648   3.360
53685SOL     OW62887   9.151  12.450   8.216
53685SOL    HW162888   9.200  12.484   8.141
53685SOL    HW262889   9.219  12.416   8.275
53686SOL     OW62890   4.852   0.014  14.058
53686SOL    HW162891   4.886   0.015  14.147
53686SOL    HW262892   4.758   0.001  14.068
53687SOL     OW62893  10.794   3.494   8.630
53687SOL    HW162894  10.700   3.514   8.633
53687SOL    HW262895  10.835   3.578   8.607
53688SOL     OW62896   2.881   4.886   1.259
53688SOL    HW162897   2.853   4.796   1.241
53688SOL    HW262898   2.886   4.891   1.355
53689SOL     OW62899  14.622  14.787   2.969
53689SOL    HW162900  14.622  14.717   3.034
53689SOL    HW262901  14.531  14.792   2.939
53690SOL     OW62902   1.427   8.377   1.126
53690SOL    HW162903   1.404   8.287   1.147
53690SOL    HW262904   1.353   8.429   1.159
53691SOL     OW62905   1.708  14.207   1.185
53691SOL    HW162906   1.791  14.165   1.162
53691SOL    HW262907   1.732  14.293   1.217
53692SOL     OW62908  11.918   8.729   7.308
53692SOL    HW162909  11.918   8.672   7.385
53692SOL    HW262910  12.004   8.714   7.268
53693SOL     OW62911   4.138   9.644   9.165
53693SOL    HW162912   4.043   9.631   9.169
53693SOL    HW262913   4.171   9.597   9.241
53694SOL     OW62914   1.476   0.381   2.287
53694SOL    HW162915   1.432   0.418   2.210
53694SOL    HW262916   1.416   0.400   2.359
53695SOL     OW62917   8.352   3.678   3.147
53695SOL    HW162918   8.283   3.666   3.081
53695SOL    HW262919   8.333   3.763   3.186
53696SOL     OW62920  10.805   4.228   4.231
53696SOL    HW162921  10.793   4.178   4.151
53696SOL    HW262922  10.760   4.311   4.214
53697SOL     OW62923   7.301   5.375   5.621
53697SOL    HW162924   7.390   5.399   5.644
53697SOL    HW262925   7.255   5.459   5.611
53698SOL     OW62926   7.782   1.688   9.300
53698SOL    HW162927   7.849   1.632   9.339
53698SOL    HW262928   7.796   1.680   9.205
53699SOL     OW62929   6.069   9.419   8.613
53699SOL    HW162930   6.142   9.467   8.573
53699SOL    HW262931   6.031   9.368   8.541
53700SOL     OW62932  10.516   0.317  12.847
53700SOL    HW162933  10.586   0.383  12.844
53700SOL    HW262934  10.460   0.344  12.919
53701SOL     OW62935   0.950   4.125   4.803
53701SOL    HW162936   0.972   4.041   4.764
53701SOL    HW262937   0.873   4.156   4.755
53702SOL     OW62938   7.875   1.675  12.204
53702SOL    HW162939   7.886   1.708  12.115
53702SOL    HW262940   7.806   1.729  12.241
53703SOL     OW62941  14.122   1.123   7.566
53703SOL    HW162942  14.143   1.157   7.653
53703SOL    HW262943  14.057   1.055   7.582
53704SOL     OW62944  13.984  12.361   5.425
53704SOL    HW162945  14.038  12.363   5.504
53704SOL    HW262946  13.918  12.294   5.443
53705SOL     OW62947   2.497  11.933   2.899
53705SOL    HW162948   2.516  11.866   2.834
53705SOL    HW262949   2.442  11.889   2.964
53706SOL     OW62950   8.521  14.623  13.343
53706SOL    HW162951   8.568  14.588  13.267
53706SOL    HW262952   8.444  14.666  13.306
53707SOL     OW62953   2.667  12.711   4.369
53707SOL    HW162954   2.645  12.761   4.290
53707SOL    HW262955   2.582  12.691   4.408
53708SOL     OW62956   5.535  13.678  12.808
53708SOL    HW162957   5.508  13.733  12.882
53708SOL    HW262958   5.456  13.628  12.786
53709SOL     OW62959  12.139  14.700   3.916
53709SOL    HW162960  12.126  14.789   3.884
53709SOL    HW262961  12.184  14.656   3.844
53710SOL     OW62962   4.039   3.708  13.650
53710SOL    HW162963   4.035   3.613  13.642
53710SOL    HW262964   4.062   3.724  13.742
53711SOL     OW62965  10.709   5.850   3.090
53711SOL    HW162966  10.702   5.798   3.169
53711SOL    HW262967  10.723   5.786   3.020
53712SOL     OW62968  11.583   2.237   3.563
53712SOL    HW162969  11.532   2.156   3.558
53712SOL    HW262970  11.550   2.281   3.642
53713SOL     OW62971   4.792  12.323   0.372
53713SOL    HW162972   4.810  12.312   0.466
53713SOL    HW262973   4.720  12.386   0.368
53714SOL     OW62974  12.462   0.262  12.515
53714SOL    HW162975  12.552   0.263  12.482
53714SOL    HW262976  12.469   0.292  12.605
53715SOL     OW62977   8.317  11.497   8.294
53715SOL    HW162978   8.308  11.510   8.199
53715SOL    HW262979   8.232  11.523   8.330
53716SOL     OW62980   1.748  13.160  11.310
53716SOL    HW162981   1.822  13.106  11.283
53716SOL    HW262982   1.680  13.098  11.334
53717SOL     OW62983   8.835   1.987  12.538
53717SOL    HW162984   8.755   2.034  12.514
53717SOL    HW262985   8.847   1.923  12.468
53718SOL     OW62986  11.834   2.371  14.055
53718SOL    HW162987  11.781   2.293  14.070
53718SOL    HW262988  11.924   2.342  14.064
53719SOL     OW62989   0.580   2.911  12.316
53719SOL    HW162990   0.570   2.865  12.400
53719SOL    HW262991   0.577   3.004  12.339
53720SOL     OW62992   5.897   3.011   1.370
53720SOL    HW162993   5.980   3.018   1.324
53720SOL    HW262994   5.877   3.100   1.400
53721SOL     OW62995  14.568   1.549   4.701
53721SOL    HW162996  14.639   1.566   4.638
53721SOL    HW262997  14.589   1.607   4.775
53722SOL     OW62998   0.984   7.426   8.130
53722SOL    HW162999   1.028   7.507   8.105
53722SOL    HW263000   0.940   7.396   8.050
53723SOL     OW63001   9.862   8.468   0.649
53723SOL    HW163002   9.826   8.550   0.682
53723SOL    HW263003   9.944   8.493   0.607
53724SOL     OW63004   5.515  13.165  12.654
53724SOL    HW163005   5.478  13.130  12.573
53724SOL    HW263006   5.597  13.206  12.628
53725SOL     OW63007   2.432  11.488   7.881
53725SOL    HW163008   2.491  11.433   7.933
53725SOL    HW263009   2.388  11.426   7.822
53726SOL     OW63010  14.477   4.968   4.353
53726SOL    HW163011  14.536   5.042   4.365
53726SOL    HW263012  14.392   4.999   4.385
53727SOL     OW63013  11.187   5.092   9.813
53727SOL    HW163014  11.109   5.051   9.774
53727SOL    HW263015  11.204   5.039   9.891
53728SOL     OW63016   6.355   4.553   0.092
53728SOL    HW163017   6.448   4.574   0.079
53728SOL    HW263018   6.353   4.458   0.102
53729SOL     OW63019  11.472   6.043  12.114
53729SOL    HW163020  11.387   6.001  12.103
53729SOL    HW263021  11.470   6.118  12.055
53730SOL     OW63022  12.435   4.001  10.052
53730SOL    HW163023  12.530   4.012  10.059
53730SOL    HW263024  12.423   3.917  10.009
53731SOL     OW63025   1.106   8.792   4.121
53731SOL    HW163026   1.081   8.883   4.109
53731SOL    HW263027   1.175   8.794   4.187
53732SOL     OW63028  10.227   8.565   8.637
53732SOL    HW163029  10.215   8.654   8.605
53732SOL    HW263030  10.163   8.513   8.588
53733SOL     OW63031   9.462   4.289   0.194
53733SOL    HW163032   9.378   4.244   0.199
53733SOL    HW263033   9.526   4.224   0.221
53734SOL     OW63034  12.300   4.236   0.535
53734SOL    HW163035  12.338   4.263   0.451
53734SOL    HW263036  12.375   4.210   0.588
53735SOL     OW63037   6.466  13.514   0.320
53735SOL    HW163038   6.387  13.567   0.326
53735SOL    HW263039   6.434  13.425   0.306
53736SOL     OW63040   2.121   0.125  14.513
53736SOL    HW163041   2.192   0.060  14.519
53736SOL    HW263042   2.070   0.097  14.437
53737SOL     OW63043  10.209   9.022  14.539
53737SOL    HW163044  10.234   9.114  14.532
53737SOL    HW263045  10.271   8.986  14.603
53738SOL     OW63046   7.418   6.221   6.406
53738SOL    HW163047   7.430   6.136   6.363
53738SOL    HW263048   7.504   6.262   6.403
53739SOL     OW63049   9.587   6.804  12.938
53739SOL    HW163050   9.679   6.829  12.950
53739SOL    HW263051   9.553   6.795  13.027
53740SOL     OW63052   9.223   4.184  14.399
53740SOL    HW163053   9.187   4.266  14.362
53740SOL    HW263054   9.157   4.156  14.462
53741SOL     OW63055  13.103  10.132   0.940
53741SOL    HW163056  13.115  10.071   1.012
53741SOL    HW263057  13.174  10.112   0.879
53742SOL     OW63058   3.771   1.689   3.044
53742SOL    HW163059   3.814   1.721   3.124
53742SOL    HW263060   3.819   1.733   2.973
53743SOL     OW63061  10.280   0.599   6.839
53743SOL    HW163062  10.273   0.688   6.875
53743SOL    HW263063  10.370   0.572   6.858
53744SOL     OW63064  10.273   9.577   1.991
53744SOL    HW163065  10.292   9.628   2.070
53744SOL    HW263066  10.228   9.637   1.933
53745SOL     OW63067   4.091   3.813   7.295
53745SOL    HW163068   4.066   3.897   7.334
53745SOL    HW263069   4.044   3.811   7.211
53746SOL     OW63070   3.983   9.330   2.379
53746SOL    HW163071   3.933   9.372   2.449
53746SOL    HW263072   3.933   9.350   2.300
53747SOL     OW63073   2.230   3.119  13.108
53747SOL    HW163074   2.216   3.209  13.138
53747SOL    HW263075   2.153   3.100  13.054
53748SOL     OW63076   1.574   5.339   5.185
53748SOL    HW163077   1.608   5.398   5.251
53748SOL    HW263078   1.652   5.298   5.147
53749SOL     OW63079   3.026  12.195   7.032
53749SOL    HW163080   2.989  12.242   6.958
53749SOL    HW263081   3.109  12.241   7.050
53750SOL     OW63082  14.213   4.429  11.284
53750SOL    HW163083  14.307   4.445  11.295
53750SOL    HW263084  14.184   4.396  11.370
53751SOL     OW63085   3.637   1.604   9.491
53751SOL    HW163086   3.706   1.595   9.426
53751SOL    HW263087   3.678   1.651   9.564
53752SOL     OW63088  12.005   5.383   7.189
53752SOL    HW163089  11.928   5.370   7.245
53752SOL    HW263090  12.008   5.305   7.133
53753SOL     OW63091   4.900   3.366  12.254
53753SOL    HW163092   4.929   3.365  12.163
53753SOL    HW263093   4.974   3.402  12.303
53754SOL     OW63094   3.116   3.056   3.946
53754SOL    HW163095   3.063   2.994   3.996
53754SOL    HW263096   3.070   3.064   3.862
53755SOL     OW63097   9.578   5.115   4.095
53755SOL    HW163098   9.563   5.209   4.090
53755SOL    HW263099   9.533   5.088   4.175
53756SOL     OW63100   4.771   1.101  12.121
53756SOL    HW163101   4.862   1.097  12.091
53756SOL    HW263102   4.776   1.087  12.215
53757SOL     OW63103   2.152  11.286  10.299
53757SOL    HW163104   2.124  11.237  10.376
53757SOL    HW263105   2.220  11.345  10.331
53758SOL     OW63106   8.981   2.910   8.182
53758SOL    HW163107   9.050   2.917   8.117
53758SOL    HW263108   8.965   3.000   8.211
53759SOL     OW63109   0.553  14.762   1.654
53759SOL    HW163110   0.532  14.848   1.618
53759SOL    HW263111   0.634  14.737   1.611
53760SOL     OW63112   0.902  11.499   3.568
53760SOL    HW163113   0.894  11.591   3.542
53760SOL    HW263114   0.861  11.495   3.655
53761SOL     OW63115   2.323   1.599   0.249
53761SOL    HW163116   2.397   1.653   0.223
53761SOL    HW263117   2.357   1.544   0.319
53762SOL     OW63118   9.754   3.226   1.310
53762SOL    HW163119   9.675   3.174   1.296
53762SOL    HW263120   9.726   3.296   1.369
53763SOL     OW63121   8.236   3.906   4.358
53763SOL    HW163122   8.235   3.848   4.282
53763SOL    HW263123   8.223   3.849   4.433
53764SOL     OW63124   6.613   7.226  12.613
53764SOL    HW163125   6.628   7.300  12.670
53764SOL    HW263126   6.540   7.179  12.653
53765SOL     OW63127   6.971   3.053   4.798
53765SOL    HW163128   7.023   3.065   4.719
53765SOL    HW263129   7.022   2.992   4.851
53766SOL     OW63130  12.950   0.929   4.274
53766SOL    HW163131  13.008   0.928   4.350
53766SOL    HW263132  13.006   0.903   4.201
53767SOL     OW63133   1.351   5.044   8.853
53767SOL    HW163134   1.301   5.084   8.924
53767SOL    HW263135   1.381   4.961   8.889
53768SOL     OW63136   7.333  11.944   1.218
53768SOL    HW163137   7.365  11.923   1.306
53768SOL    HW263138   7.399  12.003   1.182
53769SOL     OW63139  14.065   8.694   1.076
53769SOL    HW163140  14.045   8.786   1.060
53769SOL    HW263141  14.103   8.692   1.164
53770SOL     OW63142   7.500   9.738   8.934
53770SOL    HW163143   7.534   9.683   8.863
53770SOL    HW263144   7.561   9.812   8.938
53771SOL     OW63145   4.445   0.074  14.619
53771SOL    HW163146   4.453   0.092  14.526
53771SOL    HW263147   4.517   0.014  14.638
53772SOL     OW63148  11.171   9.370   0.888
53772SOL    HW163149  11.214   9.439   0.838
53772SOL    HW263150  11.098   9.413   0.931
53773SOL     OW63151  11.185   7.967   3.354
53773SOL    HW163152  11.202   8.061   3.365
53773SOL    HW263153  11.172   7.955   3.260
53774SOL     OW63154  11.714   7.432   3.893
53774SOL    HW163155  11.723   7.398   3.982
53774SOL    HW263156  11.622   7.457   3.886
53775SOL     OW63157   1.688  11.967  13.802
53775SOL    HW163158   1.653  12.055  13.819
53775SOL    HW263159   1.758  11.981  13.739
53776SOL     OW63160   0.088   8.430   2.255
53776SOL    HW163161   0.173   8.417   2.212
53776SOL    HW263162   0.027   8.376   2.204
53777SOL     OW63163   9.646   3.086   6.577
53777SOL    HW163164   9.669   3.026   6.506
53777SOL    HW263165   9.583   3.146   6.539
53778SOL     OW63166   6.090   4.929  10.614
53778SOL    HW163167   6.091   4.975  10.530
53778SOL    HW263168   6.182   4.922  10.639
53779SOL     OW63169  12.222   8.331   8.638
53779SOL    HW163170  12.307   8.361   8.606
53779SOL    HW263171  12.243   8.264   8.703
53780SOL     OW63172   7.673   4.547   5.330
53780SOL    HW163173   7.641   4.577   5.416
53780SOL    HW263174   7.594   4.543   5.276
53781SOL     OW63175   6.374  13.922   0.123
53781SOL    HW163176   6.325  13.846   0.090
53781SOL    HW263177   6.328  13.946   0.204
53782SOL     OW63178   4.514  13.670   5.864
53782SOL    HW163179   4.540  13.724   5.790
53782SOL    HW263180   4.597  13.639   5.901
53783SOL     OW63181  10.210   2.560   5.642
53783SOL    HW163182  10.145   2.627   5.620
53783SOL    HW263183  10.227   2.514   5.559
53784SOL     OW63184  14.231  13.039   4.138
53784SOL    HW163185  14.234  13.122   4.186
53784SOL    HW263186  14.221  12.972   4.206
53785SOL     OW63187  13.432   1.094  14.566
53785SOL    HW163188  13.378   1.157  14.612
53785SOL    HW263189  13.405   1.101  14.474
53786SOL     OW63190  10.094   9.354  11.490
53786SOL    HW163191  10.135   9.432  11.528
53786SOL    HW263192  10.042   9.317  11.562
53787SOL     OW63193   6.315  13.049   1.895
53787SOL    HW163194   6.273  13.011   1.818
53787SOL    HW263195   6.400  13.079   1.863
53788SOL     OW63196  13.219   4.554   3.215
53788SOL    HW163197  13.251   4.472   3.254
53788SOL    HW263198  13.261   4.623   3.267
53789SOL     OW63199   0.064   8.684   4.215
53789SOL    HW163200  14.861   8.702   4.261
53789SOL    HW263201   0.111   8.768   4.218
53790SOL     OW63202   1.175  14.821   6.797
53790SOL    HW163203   1.175  14.743   6.742
53790SOL    HW263204   1.266  14.852   6.795
53791SOL     OW63205  10.774  13.885   3.531
53791SOL    HW163206  10.868  13.897   3.548
53791SOL    HW263207  10.752  13.803   3.575
53792SOL     OW63208   9.287   8.249   2.848
53792SOL    HW163209   9.241   8.165   2.847
53792SOL    HW263210   9.221   8.311   2.881
53793SOL     OW63211  10.739  10.311  11.635
53793SOL    HW163212  10.679  10.347  11.700
53793SOL    HW263213  10.789  10.245  11.682
53794SOL     OW63214   0.633  11.897   7.253
53794SOL    HW163215   0.638  11.809   7.214
53794SOL    HW263216   0.600  11.952   7.182
53795SOL     OW63217   4.612  13.108   0.476
53795SOL    HW163218   4.626  13.201   0.490
53795SOL    HW263219   4.606  13.098   0.381
53796SOL     OW63220   0.997   1.292  11.613
53796SOL    HW163221   0.962   1.381  11.600
53796SOL    HW263222   1.024   1.290  11.705
53797SOL     OW63223   0.921   4.261   5.678
53797SOL    HW163224   0.973   4.206   5.620
53797SOL    HW263225   0.945   4.351   5.653
53798SOL     OW63226   0.026  10.532   1.952
53798SOL    HW163227   0.106  10.491   1.918
53798SOL    HW263228  14.868  10.578   1.876
53799SOL     OW63229   2.194  11.289   0.526
53799SOL    HW163230   2.176  11.207   0.480
53799SOL    HW263231   2.274  11.322   0.486
53800SOL     OW63232   7.155   2.168   3.298
53800SOL    HW163233   7.117   2.236   3.243
53800SOL    HW263234   7.224   2.213   3.348
53801SOL     OW63235   6.216   6.347  11.094
53801SOL    HW163236   6.294   6.293  11.104
53801SOL    HW263237   6.161   6.325  11.170
53802SOL     OW63238  10.566  14.524   6.650
53802SOL    HW163239  10.620  14.597   6.619
53802SOL    HW263240  10.597  14.510   6.740
53803SOL     OW63241   7.770   6.053  13.462
53803SOL    HW163242   7.732   6.134  13.497
53803SOL    HW263243   7.818   6.015  13.535
53804SOL     OW63244  12.391  11.646  14.081
53804SOL    HW163245  12.306  11.627  14.120
53804SOL    HW263246  12.376  11.723  14.027
53805SOL     OW63247   4.234   9.927  12.276
53805SOL    HW163248   4.207   9.856  12.335
53805SOL    HW263249   4.272   9.993  12.335
53806SOL     OW63250  14.046   5.289   6.295
53806SOL    HW163251  14.118   5.243   6.251
53806SOL    HW263252  14.073   5.381   6.297
53807SOL     OW63253   6.204   6.919   1.964
53807SOL    HW163254   6.117   6.933   2.001
53807SOL    HW263255   6.264   6.934   2.038
53808SOL     OW63256   4.562   2.436   1.690
53808SOL    HW163257   4.620   2.411   1.617
53808SOL    HW263258   4.491   2.372   1.687
53809SOL     OW63259   9.792   3.301  11.537
53809SOL    HW163260   9.777   3.371  11.473
53809SOL    HW263261   9.881   3.271  11.519
53810SOL     OW63262   9.935   4.112   4.060
53810SOL    HW163263   9.985   4.182   4.017
53810SOL    HW263264   9.877   4.079   3.991
53811SOL     OW63265   8.487   4.034   2.316
53811SOL    HW163266   8.456   3.944   2.329
53811SOL    HW263267   8.559   4.044   2.378
53812SOL     OW63268   2.495   3.306   6.524
53812SOL    HW163269   2.424   3.338   6.469
53812SOL    HW263270   2.571   3.358   6.497
53813SOL     OW63271   5.337   2.134   9.908
53813SOL    HW163272   5.393   2.059   9.927
53813SOL    HW263273   5.392   2.192   9.856
53814SOL     OW63274  12.972   5.025  11.764
53814SOL    HW163275  12.984   5.119  11.748
53814SOL    HW263276  13.057   4.995  11.797
53815SOL     OW63277  13.667   2.062   3.519
53815SOL    HW163278  13.622   1.978   3.533
53815SOL    HW263279  13.749   2.053   3.568
53816SOL     OW63280  12.856   8.094   4.714
53816SOL    HW163281  12.933   8.069   4.765
53816SOL    HW263282  12.891   8.139   4.637
53817SOL     OW63283   3.499   6.400   9.328
53817SOL    HW163284   3.502   6.312   9.366
53817SOL    HW263285   3.443   6.451   9.387
53818SOL     OW63286   2.800   5.773   4.291
53818SOL    HW163287   2.863   5.725   4.344
53818SOL    HW263288   2.827   5.756   4.200
53819SOL     OW63289   8.301   2.106  13.055
53819SOL    HW163290   8.357   2.036  13.022
53819SOL    HW263291   8.236   2.062  13.109
53820SOL     OW63292  11.350   5.441   8.246
53820SOL    HW163293  11.394   5.501   8.306
53820SOL    HW263294  11.259   5.471   8.244
53821SOL     OW63295  11.459   4.568  10.712
53821SOL    HW163296  11.446   4.480  10.675
53821SOL    HW263297  11.373   4.609  10.708
53822SOL     OW63298   7.923   8.363   2.425
53822SOL    HW163299   7.866   8.421   2.475
53822SOL    HW263300   7.864   8.304   2.379
53823SOL     OW63301   4.149  12.936   3.474
53823SOL    HW163302   4.128  12.856   3.425
53823SOL    HW263303   4.212  12.982   3.419
53824SOL     OW63304  14.609  12.071  13.019
53824SOL    HW163305  14.572  11.984  13.008
53824SOL    HW263306  14.533  12.128  13.033
53825SOL     OW63307   9.787  14.851   9.220
53825SOL    HW163308   9.731  14.782   9.256
53825SOL    HW263309   9.725   0.039   9.189
53826SOL     OW63310   0.844   8.963  13.469
53826SOL    HW163311   0.830   9.009  13.386
53826SOL    HW263312   0.938   8.948  13.472
53827SOL     OW63313   2.257   9.070  10.687
53827SOL    HW163314   2.293   9.127  10.755
53827SOL    HW263315   2.312   9.084  10.611
53828SOL     OW63316  12.463   6.488  11.678
53828SOL    HW163317  12.521   6.518  11.608
53828SOL    HW263318  12.444   6.397  11.655
53829SOL     OW63319  14.243  14.380  14.608
53829SOL    HW163320  14.211  14.315  14.545
53829SOL    HW263321  14.174  14.446  14.613
53830SOL     OW63322   5.911   1.864  12.415
53830SOL    HW163323   5.891   1.899  12.329
53830SOL    HW263324   5.976   1.795  12.399
53831SOL     OW63325   8.820   9.535   0.896
53831SOL    HW163326   8.858   9.578   0.973
53831SOL    HW263327   8.725   9.544   0.908
53832SOL     OW63328   5.606   2.406  10.715
53832SOL    HW163329   5.527   2.450  10.681
53832SOL    HW263330   5.675   2.431  10.654
53833SOL     OW63331   3.230   0.118   3.481
53833SOL    HW163332   3.272   0.032   3.476
53833SOL    HW263333   3.269   0.167   3.409
53834SOL     OW63334   9.400  13.689   2.633
53834SOL    HW163335   9.396  13.684   2.728
53834SOL    HW263336   9.311  13.671   2.604
53835SOL     OW63337   3.163   3.516   4.245
53835SOL    HW163338   3.102   3.589   4.231
53835SOL    HW263339   3.112   3.452   4.295
53836SOL     OW63340   9.908  13.222   2.559
53836SOL    HW163341   9.857  13.205   2.638
53836SOL    HW263342   9.958  13.302   2.580
53837SOL     OW63343   3.236   8.925   9.029
53837SOL    HW163344   3.223   9.019   9.023
53837SOL    HW263345   3.269   8.899   8.943
53838SOL     OW63346   9.988   7.590   7.401
53838SOL    HW163347  10.026   7.523   7.457
53838SOL    HW263348   9.958   7.543   7.324
53839SOL     OW63349  11.535   0.721   7.249
53839SOL    HW163350  11.614   0.688   7.292
53839SOL    HW263351  11.488   0.642   7.222
53840SOL     OW63352   8.364  14.126   2.912
53840SOL    HW163353   8.349  14.166   2.998
53840SOL    HW263354   8.289  14.152   2.859
53841SOL     OW63355   7.531  13.640   8.500
53841SOL    HW163356   7.562  13.557   8.463
53841SOL    HW263357   7.439  13.644   8.475
53842SOL     OW63358  11.935   5.471   9.477
53842SOL    HW163359  11.850   5.430   9.461
53842SOL    HW263360  11.998   5.399   9.470
53843SOL     OW63361   8.552   6.186   6.745
53843SOL    HW163362   8.470   6.235   6.746
53843SOL    HW263363   8.563   6.158   6.655
53844SOL     OW63364   4.055   0.523  11.153
53844SOL    HW163365   4.003   0.567  11.221
53844SOL    HW263366   4.065   0.589  11.085
53845SOL     OW63367  12.876   9.581   4.148
53845SOL    HW163368  12.936   9.572   4.074
53845SOL    HW263369  12.818   9.505   4.141
53846SOL     OW63370  12.194  10.015  13.741
53846SOL    HW163371  12.226  10.090  13.690
53846SOL    HW263372  12.100  10.011  13.722
53847SOL     OW63373   8.091  12.249   4.200
53847SOL    HW163374   8.018  12.211   4.250
53847SOL    HW263375   8.086  12.205   4.115
53848SOL     OW63376   9.627   8.125  13.701
53848SOL    HW163377   9.657   8.199  13.648
53848SOL    HW263378   9.668   8.139  13.787
53849SOL     OW63379   1.650   8.857   3.752
53849SOL    HW163380   1.677   8.767   3.771
53849SOL    HW263381   1.678   8.871   3.661
53850SOL     OW63382  11.659  12.335   0.604
53850SOL    HW163383  11.593  12.404   0.609
53850SOL    HW263384  11.703  12.338   0.689
53851SOL     OW63385   3.605   9.569   8.138
53851SOL    HW163386   3.523   9.582   8.091
53851SOL    HW263387   3.599   9.481   8.174
53852SOL     OW63388   5.484   3.195  14.582
53852SOL    HW163389   5.397   3.210  14.546
53852SOL    HW263390   5.474   3.117  14.637
53853SOL     OW63391   1.080   9.723   9.795
53853SOL    HW163392   1.067   9.794   9.857
53853SOL    HW263393   1.087   9.644   9.850
53854SOL     OW63394   6.666  13.619   7.759
53854SOL    HW163395   6.599  13.678   7.792
53854SOL    HW263396   6.714  13.670   7.694
53855SOL     OW63397   8.585   0.384  11.617
53855SOL    HW163398   8.659   0.371  11.677
53855SOL    HW263399   8.568   0.478  11.621
53856SOL     OW63400   0.465   9.313  10.004
53856SOL    HW163401   0.539   9.323   9.945
53856SOL    HW263402   0.440   9.403  10.027
53857SOL     OW63403   0.464   4.519   3.051
53857SOL    HW163404   0.417   4.486   3.127
53857SOL    HW263405   0.516   4.445   3.021
53858SOL     OW63406  10.434  13.319   7.733
53858SOL    HW163407  10.473  13.405   7.722
53858SOL    HW263408  10.496  13.259   7.692
53859SOL     OW63409   5.694  11.126   8.061
53859SOL    HW163410   5.624  11.078   8.105
53859SOL    HW263411   5.772  11.106   8.112
53860SOL     OW63412   9.376  13.728  13.608
53860SOL    HW163413   9.387  13.644  13.565
53860SOL    HW263414   9.287  13.725  13.644
53861SOL     OW63415   1.599   2.019  14.307
53861SOL    HW163416   1.571   2.002  14.397
53861SOL    HW263417   1.695   2.015  14.310
53862SOL     OW63418   7.405   6.999   5.341
53862SOL    HW163419   7.497   6.974   5.349
53862SOL    HW263420   7.407   7.080   5.289
53863SOL     OW63421   1.503  14.877   7.372
53863SOL    HW163422   1.518  14.814   7.442
53863SOL    HW263423   1.426  14.842   7.325
53864SOL     OW63424  11.770   9.324   7.664
53864SOL    HW163425  11.769   9.401   7.721
53864SOL    HW263426  11.862   9.309   7.646
53865SOL     OW63427   7.085   0.730   7.502
53865SOL    HW163428   7.104   0.721   7.409
53865SOL    HW263429   7.005   0.783   7.505
53866SOL     OW63430   1.887   4.955   7.302
53866SOL    HW163431   1.935   4.998   7.232
53866SOL    HW263432   1.951   4.900   7.345
53867SOL     OW63433   5.904   3.446  14.474
53867SOL    HW163434   5.830   3.385  14.480
53867SOL    HW263435   5.979   3.398  14.508
53868SOL     OW63436   2.418   1.607  14.535
53868SOL    HW163437   2.390   1.589  14.625
53868SOL    HW263438   2.337   1.628  14.489
53869SOL     OW63439  14.191   5.598   6.649
53869SOL    HW163440  14.123   5.586   6.714
53869SOL    HW263441  14.251   5.662   6.687
53870SOL     OW63442  11.453   1.562   3.292
53870SOL    HW163443  11.446   1.600   3.204
53870SOL    HW263444  11.378   1.503   3.299
53871SOL     OW63445  14.214  11.305  12.870
53871SOL    HW163446  14.161  11.238  12.914
53871SOL    HW263447  14.149  11.359  12.824
53872SOL     OW63448   3.933  11.707   1.641
53872SOL    HW163449   3.863  11.649   1.612
53872SOL    HW263450   3.894  11.794   1.639
53873SOL     OW63451  10.485   5.556  13.412
53873SOL    HW163452  10.556   5.499  13.442
53873SOL    HW263453  10.529   5.620  13.356
53874SOL     OW63454   5.511   3.736   4.053
53874SOL    HW163455   5.509   3.831   4.060
53874SOL    HW263456   5.423   3.708   4.076
53875SOL     OW63457   2.212   8.805  14.596
53875SOL    HW163458   2.180   8.808  14.686
53875SOL    HW263459   2.149   8.750  14.550
53876SOL     OW63460   5.947   5.305  10.790
53876SOL    HW163461   5.933   5.312  10.885
53876SOL    HW263462   6.035   5.267  10.782
53877SOL     OW63463  12.767   4.740   6.676
53877SOL    HW163464  12.806   4.805   6.618
53877SOL    HW263465  12.747   4.666   6.620
53878SOL     OW63466  11.290   5.322   6.237
53878SOL    HW163467  11.288   5.397   6.296
53878SOL    HW263468  11.339   5.353   6.161
53879SOL     OW63469  12.923   0.716  11.970
53879SOL    HW163470  12.843   0.685  11.928
53879SOL    HW263471  12.893   0.764  12.047
53880SOL     OW63472   0.132   7.227   7.294
53880SOL    HW163473   0.124   7.136   7.321
53880SOL    HW263474   0.221   7.252   7.318
53881SOL     OW63475  11.008  14.544   9.398
53881SOL    HW163476  10.929  14.554   9.345
53881SOL    HW263477  10.976  14.515   9.483
53882SOL     OW63478   5.504   3.024   6.369
53882SOL    HW163479   5.454   3.065   6.440
53882SOL    HW263480   5.552   2.954   6.412
53883SOL     OW63481   7.532  11.703   4.590
53883SOL    HW163482   7.532  11.642   4.516
53883SOL    HW263483   7.591  11.663   4.654
53884SOL     OW63484   9.365   5.014   5.636
53884SOL    HW163485   9.446   4.970   5.612
53884SOL    HW263486   9.370   5.024   5.731
53885SOL     OW63487   7.182   3.123   4.270
53885SOL    HW163488   7.135   3.099   4.190
53885SOL    HW263489   7.193   3.040   4.317
53886SOL     OW63490   1.025   8.010   8.547
53886SOL    HW163491   1.109   7.991   8.589
53886SOL    HW263492   0.970   7.934   8.568
53887SOL     OW63493  11.089   9.494   2.044
53887SOL    HW163494  11.086   9.450   2.129
53887SOL    HW263495  11.172   9.464   2.006
53888SOL     OW63496   0.859   6.130  11.368
53888SOL    HW163497   0.943   6.125  11.322
53888SOL    HW263498   0.837   6.039  11.385
53889SOL     OW63499   6.575   7.919   2.141
53889SOL    HW163500   6.649   7.927   2.081
53889SOL    HW263501   6.614   7.930   2.228
53890SOL     OW63502   3.054   7.700   4.926
53890SOL    HW163503   2.960   7.716   4.917
53890SOL    HW263504   3.077   7.648   4.850
53891SOL     OW63505  10.163  13.071   0.411
53891SOL    HW163506  10.135  12.987   0.375
53891SOL    HW263507  10.241  13.051   0.463
53892SOL     OW63508  11.921   7.730   3.339
53892SOL    HW163509  11.968   7.690   3.266
53892SOL    HW263510  11.916   7.823   3.316
53893SOL     OW63511   1.322  13.993   0.214
53893SOL    HW163512   1.413  13.979   0.188
53893SOL    HW263513   1.313  14.088   0.218
53894SOL     OW63514   6.886   3.137   6.686
53894SOL    HW163515   6.966   3.100   6.723
53894SOL    HW263516   6.891   3.116   6.592
53895SOL     OW63517  14.263  10.065   3.248
53895SOL    HW163518  14.321  10.067   3.324
53895SOL    HW263519  14.304  10.123   3.184
53896SOL     OW63520  12.083   8.132   8.214
53896SOL    HW163521  12.088   8.227   8.205
53896SOL    HW263522  11.996   8.117   8.251
53897SOL     OW63523  10.983   7.752  14.418
53897SOL    HW163524  10.949   7.840  14.434
53897SOL    HW263525  10.977   7.708  14.503
53898SOL     OW63526   4.837   7.440   3.354
53898SOL    HW163527   4.793   7.411   3.274
53898SOL    HW263528   4.784   7.403   3.425
53899SOL     OW63529   8.735   8.748   1.030
53899SOL    HW163530   8.722   8.760   1.124
53899SOL    HW263531   8.817   8.698   1.024
53900SOL     OW63532  11.029   3.744   9.402
53900SOL    HW163533  10.985   3.770   9.321
53900SOL    HW263534  11.008   3.814   9.464
53901SOL     OW63535   7.572   7.427   4.574
53901SOL    HW163536   7.520   7.480   4.514
53901SOL    HW263537   7.645   7.395   4.520
53902SOL     OW63538   1.423   1.473   0.473
53902SOL    HW163539   1.451   1.507   0.388
53902SOL    HW263540   1.496   1.418   0.503
53903SOL     OW63541   6.845  12.221  10.277
53903SOL    HW163542   6.936  12.237  10.254
53903SOL    HW263543   6.813  12.162  10.208
53904SOL     OW63544   2.999  13.517   2.303
53904SOL    HW163545   2.978  13.451   2.369
53904SOL    HW263546   3.064  13.573   2.345
53905SOL     OW63547   7.796  14.281   6.530
53905SOL    HW163548   7.846  14.290   6.449
53905SOL    HW263549   7.777  14.371   6.556
53906SOL     OW63550   8.719  13.875  12.650
53906SOL    HW163551   8.729  13.833  12.565
53906SOL    HW263552   8.645  13.935  12.639
53907SOL     OW63553   9.287   7.850  13.095
53907SOL    HW163554   9.335   7.778  13.134
53907SOL    HW263555   9.218   7.808  13.043
53908SOL     OW63556  14.822   6.874   3.266
53908SOL    HW163557   0.005   6.812   3.228
53908SOL    HW263558  14.806   6.938   3.196
53909SOL     OW63559  13.572   6.310  12.259
53909SOL    HW163560  13.550   6.228  12.302
53909SOL    HW263561  13.488   6.351  12.240
53910SOL     OW63562   5.355   1.097   2.865
53910SOL    HW163563   5.311   1.180   2.881
53910SOL    HW263564   5.286   1.031   2.870
53911SOL     OW63565   7.559  10.433   6.508
53911SOL    HW163566   7.520  10.387   6.433
53911SOL    HW263567   7.483  10.463   6.559
53912SOL     OW63568  11.660  14.185   2.438
53912SOL    HW163569  11.715  14.216   2.366
53912SOL    HW263570  11.695  14.229   2.515
53913SOL     OW63571   0.886   9.054   3.335
53913SOL    HW163572   0.809   9.104   3.308
53913SOL    HW263573   0.852   8.967   3.354
53914SOL     OW63574   0.621   6.217  11.266
53914SOL    HW163575   0.587   6.220  11.356
53914SOL    HW263576   0.712   6.190  11.276
53915SOL     OW63577  10.067   9.026   5.122
53915SOL    HW163578  10.077   8.939   5.160
53915SOL    HW263579  10.126   9.027   5.047
53916SOL     OW63580  12.296  10.614  13.466
53916SOL    HW163581  12.248  10.533  13.451
53916SOL    HW263582  12.372  10.608  13.408
53917SOL     OW63583   4.033   1.362   6.139
53917SOL    HW163584   4.035   1.458   6.136
53917SOL    HW263585   3.973   1.341   6.210
53918SOL     OW63586   5.982   1.322   8.431
53918SOL    HW163587   6.006   1.289   8.345
53918SOL    HW263588   5.891   1.350   8.422
53919SOL     OW63589  11.611   3.286  13.820
53919SOL    HW163590  11.675   3.358  13.818
53919SOL    HW263591  11.530   3.326  13.791
53920SOL     OW63592   6.915   5.569   5.227
53920SOL    HW163593   6.904   5.651   5.179
53920SOL    HW263594   6.972   5.516   5.170
53921SOL     OW63595   5.315   9.490   1.564
53921SOL    HW163596   5.221   9.506   1.563
53921SOL    HW263597   5.339   9.494   1.657
53922SOL     OW63598   2.282   5.109   9.993
53922SOL    HW163599   2.259   5.030  10.042
53922SOL    HW263600   2.317   5.077   9.910
53923SOL     OW63601   0.473  11.269  11.100
53923SOL    HW163602   0.429  11.354  11.095
53923SOL    HW263603   0.562  11.290  11.127
53924SOL     OW63604   2.549  13.704  10.397
53924SOL    HW163605   2.638  13.731  10.375
53924SOL    HW263606   2.535  13.623  10.348
53925SOL     OW63607   5.520   3.046   2.328
53925SOL    HW163608   5.433   3.045   2.287
53925SOL    HW263609   5.508   3.098   2.408
53926SOL     OW63610   5.499   9.697   2.377
53926SOL    HW163611   5.555   9.619   2.373
53926SOL    HW263612   5.558   9.769   2.353
53927SOL     OW63613   3.281   5.735   0.853
53927SOL    HW163614   3.375   5.752   0.840
53927SOL    HW263615   3.238   5.817   0.829
53928SOL     OW63616   7.072  11.222   3.493
53928SOL    HW163617   7.148  11.279   3.483
53928SOL    HW263618   7.104  11.148   3.545
53929SOL     OW63619  13.374  14.736   6.696
53929SOL    HW163620  13.446  14.724   6.757
53929SOL    HW263621  13.394  14.678   6.623
53930SOL     OW63622  10.883  12.146  13.697
53930SOL    HW163623  10.882  12.202  13.774
53930SOL    HW263624  10.889  12.057  13.732
53931SOL     OW63625   6.711  10.205   2.784
53931SOL    HW163626   6.721  10.116   2.750
53931SOL    HW263627   6.689  10.258   2.708
53932SOL     OW63628   7.166  14.088   8.023
53932SOL    HW163629   7.228  14.027   7.983
53932SOL    HW263630   7.214  14.128   8.095
53933SOL     OW63631   7.997   1.737  10.368
53933SOL    HW163632   7.977   1.812  10.312
53933SOL    HW263633   8.018   1.775  10.453
53934SOL     OW63634   6.486   4.321  12.118
53934SOL    HW163635   6.410   4.270  12.090
53934SOL    HW263636   6.549   4.312  12.047
53935SOL     OW63637   8.687   2.005   9.905
53935SOL    HW163638   8.755   2.068   9.882
53935SOL    HW263639   8.612   2.059   9.930
53936SOL     OW63640   8.145   5.512   4.036
53936SOL    HW163641   8.062   5.551   4.007
53936SOL    HW263642   8.183   5.579   4.094
53937SOL     OW63643   1.320   4.750   1.689
53937SOL    HW163644   1.249   4.734   1.750
53937SOL    HW263645   1.393   4.697   1.721
53938SOL     OW63646   9.308   5.545   1.628
53938SOL    HW163647   9.383   5.535   1.687
53938SOL    HW263648   9.311   5.467   1.573
53939SOL     OW63649   5.758   9.199   9.658
53939SOL    HW163650   5.744   9.285   9.697
53939SOL    HW263651   5.840   9.208   9.609
53940SOL     OW63652   0.436   4.817   6.639
53940SOL    HW163653   0.505   4.754   6.659
53940SOL    HW263654   0.478   4.881   6.581
53941SOL     OW63655   3.325   1.747  13.643
53941SOL    HW163656   3.319   1.664  13.595
53941SOL    HW263657   3.419   1.757  13.660
53942SOL     OW63658   0.504   6.738  12.361
53942SOL    HW163659   0.441   6.701  12.423
53942SOL    HW263660   0.510   6.830  12.385
53943SOL     OW63661  14.519  14.329  10.323
53943SOL    HW163662  14.561  14.382  10.391
53943SOL    HW263663  14.516  14.241  10.360
53944SOL     OW63664   4.800   4.308  13.385
53944SOL    HW163665   4.749   4.387  13.366
53944SOL    HW263666   4.760   4.272  13.464
53945SOL     OW63667  13.745   2.805  11.698
53945SOL    HW163668  13.747   2.895  11.664
53945SOL    HW263669  13.758   2.815  11.792
53946SOL     OW63670  10.622  12.847   8.042
53946SOL    HW163671  10.702  12.800   8.065
53946SOL    HW263672  10.616  12.838   7.947
53947SOL     OW63673  10.812  14.371   1.335
53947SOL    HW163674  10.788  14.459   1.306
53947SOL    HW263675  10.752  14.313   1.287
53948SOL     OW63676  14.239  13.569  10.873
53948SOL    HW163677  14.161  13.623  10.867
53948SOL    HW263678  14.206  13.480  10.887
53949SOL     OW63679   0.038  14.720   4.895
53949SOL    HW163680   0.033  14.645   4.954
53949SOL    HW263681  14.856  14.784   4.932
53950SOL     OW63682   8.418  11.275   8.614
53950SOL    HW163683   8.437  11.186   8.641
53950SOL    HW263684   8.483  11.329   8.658
53951SOL     OW63685   4.966   2.675   7.926
53951SOL    HW163686   4.906   2.643   7.993
53951SOL    HW263687   5.036   2.719   7.975
53952SOL     OW63688   0.581  12.651   3.458
53952SOL    HW163689   0.566  12.636   3.365
53952SOL    HW263690   0.566  12.745   3.470
53953SOL     OW63691  13.688   8.072  10.565
53953SOL    HW163692  13.648   8.068  10.479
53953SOL    HW263693  13.753   8.142  10.558
53954SOL     OW63694   9.007   2.208   9.779
53954SOL    HW163695   8.997   2.248   9.865
53954SOL    HW263696   8.983   2.116   9.792
53955SOL     OW63697   8.408  12.489   2.840
53955SOL    HW163698   8.461  12.410   2.830
53955SOL    HW263699   8.318  12.456   2.841
53956SOL     OW63700   5.703  11.576   1.334
53956SOL    HW163701   5.694  11.485   1.308
53956SOL    HW263702   5.621  11.617   1.306
53957SOL     OW63703  13.564   9.688  13.559
53957SOL    HW163704  13.603   9.643  13.484
53957SOL    HW263705  13.625   9.671  13.631
53958SOL     OW63706  14.687  12.756  10.090
53958SOL    HW163707  14.683  12.790  10.179
53958SOL    HW263708  14.662  12.664  10.098
53959SOL     OW63709  14.461  14.557   2.663
53959SOL    HW163710  14.409  14.637   2.674
53959SOL    HW263711  14.407  14.489   2.703
53960SOL     OW63712   5.405   3.423   6.663
53960SOL    HW163713   5.418   3.424   6.758
53960SOL    HW263714   5.453   3.500   6.631
53961SOL     OW63715   9.869   7.698   9.164
53961SOL    HW163716   9.836   7.773   9.115
53961SOL    HW263717   9.898   7.735   9.248
53962SOL     OW63718   7.431  14.133  13.054
53962SOL    HW163719   7.385  14.103  13.132
53962SOL    HW263720   7.523  14.140  13.081
53963SOL     OW63721   8.720   6.500   5.908
53963SOL    HW163722   8.723   6.445   5.986
53963SOL    HW263723   8.769   6.579   5.932
53964SOL     OW63724   3.600   8.589  10.961
53964SOL    HW163725   3.597   8.564  11.054
53964SOL    HW263726   3.690   8.620  10.948
53965SOL     OW63727   3.591   0.372   6.903
53965SOL    HW163728   3.555   0.403   6.987
53965SOL    HW263729   3.669   0.426   6.889
53966SOL     OW63730   4.389   4.596   6.356
53966SOL    HW163731   4.463   4.550   6.394
53966SOL    HW263732   4.365   4.662   6.422
53967SOL     OW63733   7.321  14.409   6.986
53967SOL    HW163734   7.388  14.474   6.964
53967SOL    HW263735   7.370  14.328   6.997
53968SOL     OW63736   1.862   6.778   6.728
53968SOL    HW163737   1.901   6.847   6.674
53968SOL    HW263738   1.769   6.799   6.730
53969SOL     OW63739   6.754   2.308  11.854
53969SOL    HW163740   6.725   2.297  11.945
53969SOL    HW263741   6.700   2.247  11.804
53970SOL     OW63742  10.972   4.187   6.876
53970SOL    HW163743  11.006   4.276   6.891
53970SOL    HW263744  10.880   4.193   6.901
53971SOL     OW63745  12.835   0.045   7.674
53971SOL    HW163746  12.844  14.860   7.745
53971SOL    HW263747  12.742   0.066   7.673
53972SOL     OW63748   1.210   9.673   3.939
53972SOL    HW163749   1.117   9.653   3.948
53972SOL    HW263750   1.219   9.762   3.973
53973SOL     OW63751  13.477   7.320   1.759
53973SOL    HW163752  13.430   7.286   1.683
53973SOL    HW263753  13.569   7.314   1.735
53974SOL     OW63754   5.430  11.064   0.870
53974SOL    HW163755   5.431  11.079   0.964
53974SOL    HW263756   5.504  11.116   0.836
53975SOL     OW63757   8.553  11.532  12.872
53975SOL    HW163758   8.617  11.585  12.919
53975SOL    HW263759   8.518  11.473  12.939
53976SOL     OW63760  10.285   3.679  14.426
53976SOL    HW163761  10.244   3.687  14.340
53976SOL    HW263762  10.302   3.770  14.453
53977SOL     OW63763   8.932   7.035  14.370
53977SOL    HW163764   8.871   7.108  14.360
53977SOL    HW263765   9.018   7.074  14.358
53978SOL     OW63766  11.434   4.306  12.477
53978SOL    HW163767  11.413   4.399  12.471
53978SOL    HW263768  11.403   4.280  12.563
53979SOL     OW63769   8.885   4.794   6.904
53979SOL    HW163770   8.856   4.717   6.854
53979SOL    HW263771   8.806   4.823   6.950
53980SOL     OW63772  12.043  12.477   7.657
53980SOL    HW163773  12.066  12.525   7.737
53980SOL    HW263774  11.966  12.523   7.622
53981SOL     OW63775   2.666   3.599   9.929
53981SOL    HW163776   2.760   3.615   9.939
53981SOL    HW263777   2.635   3.584  10.018
53982SOL     OW63778   0.385   1.081  12.857
53982SOL    HW163779   0.415   0.993  12.833
53982SOL    HW263780   0.363   1.122  12.773
53983SOL     OW63781  11.603   9.577   3.138
53983SOL    HW163782  11.563   9.548   3.220
53983SOL    HW263783  11.540   9.551   3.071
53984SOL     OW63784   9.639  12.668   9.716
53984SOL    HW163785   9.695  12.689   9.641
53984SOL    HW263786   9.625  12.752   9.760
53985SOL     OW63787  10.502   6.760   8.053
53985SOL    HW163788  10.532   6.761   8.144
53985SOL    HW263789  10.417   6.803   8.055
53986SOL     OW63790  14.167   7.671   0.272
53986SOL    HW163791  14.125   7.742   0.322
53986SOL    HW263792  14.251   7.658   0.314
53987SOL     OW63793   2.778   8.163   8.403
53987SOL    HW163794   2.862   8.177   8.357
53987SOL    HW263795   2.726   8.111   8.341
53988SOL     OW63796  14.752   9.818   0.782
53988SOL    HW163797  14.838   9.801   0.820
53988SOL    HW263798  14.714   9.731   0.767
53989SOL     OW63799   3.219  10.611   6.978
53989SOL    HW163800   3.201  10.705   6.983
53989SOL    HW263801   3.308  10.606   6.942
53990SOL     OW63802  11.317   2.110  11.841
53990SOL    HW163803  11.242   2.105  11.899
53990SOL    HW263804  11.334   2.020  11.814
53991SOL     OW63805  10.458  11.378   5.418
53991SOL    HW163806  10.490  11.304   5.367
53991SOL    HW263807  10.467  11.453   5.359
53992SOL     OW63808   0.552   7.563   5.406
53992SOL    HW163809   0.636   7.523   5.385
53992SOL    HW263810   0.503   7.495   5.452
53993SOL     OW63811  14.598  11.899   3.656
53993SOL    HW163812  14.639  11.976   3.618
53993SOL    HW263813  14.530  11.874   3.593
53994SOL     OW63814  13.903   1.388  10.030
53994SOL    HW163815  13.969   1.320  10.046
53994SOL    HW263816  13.869   1.367   9.943
53995SOL     OW63817   3.588   0.179   4.908
53995SOL    HW163818   3.558   0.095   4.872
53995SOL    HW263819   3.678   0.163   4.934
53996SOL     OW63820   4.852   4.035   6.618
53996SOL    HW163821   4.856   4.055   6.712
53996SOL    HW263822   4.885   3.945   6.611
53997SOL     OW63823   8.333  13.647   4.045
53997SOL    HW163824   8.381  13.569   4.017
53997SOL    HW263825   8.256  13.649   3.988
53998SOL     OW63826  12.974   9.332   2.938
53998SOL    HW163827  12.947   9.244   2.963
53998SOL    HW263828  12.894   9.373   2.902
53999SOL     OW63829  13.118   3.315   7.024
53999SOL    HW163830  13.059   3.390   7.012
53999SOL    HW263831  13.150   3.296   6.935
54000SOL     OW63832   1.190  10.638   7.311
54000SOL    HW163833   1.218  10.578   7.381
54000SOL    HW263834   1.244  10.716   7.324
54001SOL     OW63835   4.690   4.450   9.585
54001SOL    HW163836   4.693   4.511   9.659
54001SOL    HW263837   4.714   4.503   9.509
54002SOL     OW63838   7.378  12.025   1.661
54002SOL    HW163839   7.381  11.932   1.682
54002SOL    HW263840   7.434  12.035   1.584
54003SOL     OW63841  10.935  13.184  13.393
54003SOL    HW163842  10.904  13.098  13.364
54003SOL    HW263843  11.027  13.171  13.415
54004SOL     OW63844  13.744  13.454   1.495
54004SOL    HW163845  13.776  13.365   1.509
54004SOL    HW263846  13.723  13.458   1.402
54005SOL     OW63847  12.400   8.183   3.508
54005SOL    HW163848  12.424   8.182   3.415
54005SOL    HW263849  12.334   8.114   3.516
54006SOL     OW63850  14.559   4.583   1.481
54006SOL    HW163851  14.651   4.604   1.469
54006SOL    HW263852  14.553   4.489   1.462
54007SOL     OW63853   9.522  11.279   3.490
54007SOL    HW163854   9.485  11.301   3.405
54007SOL    HW263855   9.485  11.343   3.550
54008SOL     OW63856   9.892   2.593  11.705
54008SOL    HW163857   9.916   2.654  11.634
54008SOL    HW263858   9.838   2.646  11.764
54009SOL     OW63859   9.191  12.056  11.659
54009SOL    HW163860   9.267  12.013  11.618
54009SOL    HW263861   9.223  12.142  11.685
54010SOL     OW63862   6.521  10.968   6.633
54010SOL    HW163863   6.549  11.059   6.632
54010SOL    HW263864   6.443  10.966   6.578
54011SOL     OW63865   6.691   0.344  12.960
54011SOL    HW163866   6.637   0.422  12.954
54011SOL    HW263867   6.645   0.278  12.909
54012SOL     OW63868  12.585   0.172  10.394
54012SOL    HW163869  12.595   0.251  10.448
54012SOL    HW263870  12.660   0.118  10.417
54013SOL     OW63871   0.725   8.083   3.034
54013SOL    HW163872   0.735   8.091   3.129
54013SOL    HW263873   0.813   8.064   3.002
54014SOL     OW63874   9.763   3.854   6.496
54014SOL    HW163875   9.828   3.809   6.442
54014SOL    HW263876   9.701   3.786   6.521
54015SOL     OW63877   9.522   4.276   6.618
54015SOL    HW163878   9.479   4.197   6.584
54015SOL    HW263879   9.610   4.273   6.582
54016SOL     OW63880   1.422  11.353   1.654
54016SOL    HW163881   1.404  11.295   1.580
54016SOL    HW263882   1.502  11.399   1.630
54017SOL     OW63883   8.415  12.810   7.925
54017SOL    HW163884   8.375  12.897   7.932
54017SOL    HW263885   8.425  12.780   8.015
54018SOL     OW63886  14.223   9.938   7.390
54018SOL    HW163887  14.139   9.985   7.388
54018SOL    HW263888  14.205   9.861   7.443
54019SOL     OW63889  12.563   8.123   0.147
54019SOL    HW163890  12.633   8.184   0.169
54019SOL    HW263891  12.483   8.167   0.177
54020SOL     OW63892   3.454   5.468  11.433
54020SOL    HW163893   3.541   5.508  11.423
54020SOL    HW263894   3.395   5.543  11.444
54021SOL     OW63895  12.692  10.847  11.542
54021SOL    HW163896  12.765  10.787  11.559
54021SOL    HW263897  12.684  10.849  11.447
54022SOL     OW63898   2.209   4.719  14.254
54022SOL    HW163899   2.140   4.771  14.213
54022SOL    HW263900   2.237   4.772  14.329
54023SOL     OW63901  12.510   9.373  12.376
54023SOL    HW163902  12.534   9.367  12.284
54023SOL    HW263903  12.473   9.461  12.385
54024SOL     OW63904  12.128  13.853   8.867
54024SOL    HW163905  12.125  13.946   8.888
54024SOL    HW263906  12.103  13.809   8.948
54025SOL     OW63907   7.728   0.259  14.625
54025SOL    HW163908   7.745   0.289  14.714
54025SOL    HW263909   7.758   0.168  14.624
54026SOL     OW63910   7.946  14.041  12.938
54026SOL    HW163911   7.924  14.091  12.859
54026SOL    HW263912   7.997  14.102  12.991
54027SOL     OW63913   6.503   8.467   7.821
54027SOL    HW163914   6.576   8.414   7.854
54027SOL    HW263915   6.546   8.542   7.780
54028SOL     OW63916   8.480   1.964  11.491
54028SOL    HW163917   8.562   1.919  11.513
54028SOL    HW263918   8.435   1.972  11.575
54029SOL     OW63919   4.667  13.623  11.119
54029SOL    HW163920   4.632  13.678  11.048
54029SOL    HW263921   4.600  13.626  11.187
54030SOL     OW63922  10.788   2.441   5.910
54030SOL    HW163923  10.867   2.495   5.915
54030SOL    HW263924  10.727   2.483   5.971
54031SOL     OW63925   1.040  12.777   6.535
54031SOL    HW163926   1.018  12.820   6.453
54031SOL    HW263927   0.997  12.691   6.530
54032SOL     OW63928   1.655   0.233   9.188
54032SOL    HW163929   1.608   0.288   9.250
54032SOL    HW263930   1.743   0.271   9.183
54033SOL     OW63931   1.365  10.002   9.158
54033SOL    HW163932   1.419   9.925   9.142
54033SOL    HW263933   1.275   9.969   9.161
54034SOL     OW63934   1.427   9.897  12.347
54034SOL    HW163935   1.404   9.983  12.382
54034SOL    HW263936   1.435   9.911  12.252
54035SOL     OW63937   3.468  11.453   0.775
54035SOL    HW163938   3.483  11.438   0.868
54035SOL    HW263939   3.431  11.542   0.771
54036SOL     OW63940  14.532   3.460   5.927
54036SOL    HW163941  14.593   3.530   5.901
54036SOL    HW263942  14.562   3.434   6.014
54037SOL     OW63943   3.841   4.467  12.933
54037SOL    HW163944   3.909   4.425  12.987
54037SOL    HW263945   3.885   4.542  12.894
54038SOL     OW63946  12.172   6.680   7.663
54038SOL    HW163947  12.156   6.586   7.674
54038SOL    HW263948  12.085   6.719   7.659
54039SOL     OW63949   3.335   2.852  14.428
54039SOL    HW163950   3.367   2.836  14.339
54039SOL    HW263951   3.400   2.811  14.485
54040SOL     OW63952  12.101   7.103   1.428
54040SOL    HW163953  12.124   7.094   1.521
54040SOL    HW263954  12.184   7.124   1.385
54041SOL     OW63955   0.812  10.090  10.235
54041SOL    HW163956   0.733  10.143  10.240
54041SOL    HW263957   0.781  10.002  10.211
54042SOL     OW63958   5.314  14.507   6.285
54042SOL    HW163959   5.256  14.430   6.283
54042SOL    HW263960   5.264  14.575   6.239
54043SOL     OW63961   5.509   8.082  12.165
54043SOL    HW163962   5.456   8.042  12.234
54043SOL    HW263963   5.586   8.026  12.158
54044SOL     OW63964   4.512  11.732   5.375
54044SOL    HW163965   4.589  11.703   5.326
54044SOL    HW263966   4.439  11.719   5.315
54045SOL     OW63967   4.305  11.373   5.444
54045SOL    HW163968   4.369  11.305   5.464
54045SOL    HW263969   4.286  11.360   5.351
54046SOL     OW63970  10.641   0.953   6.301
54046SOL    HW163971  10.607   0.954   6.391
54046SOL    HW263972  10.724   0.908   6.307
54047SOL     OW63973  11.430   0.332   9.817
54047SOL    HW163974  11.428   0.364   9.907
54047SOL    HW263975  11.404   0.407   9.763
54048SOL     OW63976   3.238   6.044  14.503
54048SOL    HW163977   3.197   6.005  14.580
54048SOL    HW263978   3.272   5.970  14.453
54049SOL     OW63979   2.069   2.886   3.830
54049SOL    HW163980   1.991   2.832   3.845
54049SOL    HW263981   2.036   2.964   3.786
54050SOL     OW63982  13.714  13.244   3.559
54050SOL    HW163983  13.738  13.154   3.536
54050SOL    HW263984  13.785  13.274   3.616
54051SOL     OW63985   7.977  11.026  12.556
54051SOL    HW163986   7.922  11.084  12.608
54051SOL    HW263987   8.031  11.085  12.503
54052SOL     OW63988   8.847   7.730   7.197
54052SOL    HW163989   8.762   7.751   7.235
54052SOL    HW263990   8.897   7.811   7.205
54053SOL     OW63991   7.450   6.939   7.734
54053SOL    HW163992   7.401   7.013   7.697
54053SOL    HW263993   7.540   6.971   7.739
54054SOL     OW63994   2.426  10.660   1.979
54054SOL    HW163995   2.335  10.669   1.953
54054SOL    HW263996   2.475  10.706   1.911
54055SOL     OW63997   6.843   6.283   5.449
54055SOL    HW163998   6.816   6.361   5.498
54055SOL    HW263999   6.775   6.218   5.468
54056SOL     OW64000   2.287   3.841   1.613
54056SOL    HW164001   2.272   3.756   1.572
54056SOL    HW264002   2.211   3.854   1.670
54057SOL     OW64003   1.351  10.054  11.386
54057SOL    HW164004   1.349  10.001  11.307
54057SOL    HW264005   1.368   9.991  11.457
54058SOL     OW64006   1.379   8.455   3.520
54058SOL    HW164007   1.452   8.394   3.504
54058SOL    HW264008   1.350   8.435   3.609
54059SOL     OW64009   9.718   5.965   2.741
54059SOL    HW164010   9.774   5.891   2.719
54059SOL    HW264011   9.632   5.927   2.759
54060SOL     OW64012   8.178   1.117   0.732
54060SOL    HW164013   8.240   1.118   0.806
54060SOL    HW264014   8.165   1.024   0.713
54061SOL     OW64015  14.611  11.306  12.261
54061SOL    HW164016  14.552  11.348  12.199
54061SOL    HW264017  14.580  11.335  12.347
54062SOL     OW64018   8.488   3.612   7.900
54062SOL    HW164019   8.560   3.674   7.907
54062SOL    HW264020   8.524   3.529   7.933
54063SOL     OW64021   3.760   2.990   9.502
54063SOL    HW164022   3.668   2.967   9.493
54063SOL    HW264023   3.762   3.086   9.499
54064SOL     OW64024   3.723   7.383   7.183
54064SOL    HW164025   3.686   7.412   7.266
54064SOL    HW264026   3.722   7.461   7.128
54065SOL     OW64027   2.268  11.716   5.795
54065SOL    HW164028   2.262  11.800   5.749
54065SOL    HW264029   2.361  11.706   5.814
54066SOL     OW64030  14.125   9.374   1.358
54066SOL    HW164031  14.091   9.463   1.352
54066SOL    HW264032  14.180   9.365   1.280
54067SOL     OW64033  11.491   0.029   0.055
54067SOL    HW164034  11.458   0.037  14.845
54067SOL    HW264035  11.488   0.119   0.089
54068SOL     OW64036   8.440  10.414  12.517
54068SOL    HW164037   8.416  10.357  12.589
54068SOL    HW264038   8.528  10.446  12.540
54069SOL     OW64039   8.820  14.161  12.458
54069SOL    HW164040   8.851  14.071  12.448
54069SOL    HW264041   8.730  14.159  12.425
54070SOL     OW64042   6.621   5.742   6.688
54070SOL    HW164043   6.706   5.785   6.674
54070SOL    HW264044   6.628   5.660   6.640
54071SOL     OW64045  12.305   2.377   9.702
54071SOL    HW164046  12.321   2.308   9.766
54071SOL    HW264047  12.247   2.337   9.638
54072SOL     OW64048  12.993   4.869  14.197
54072SOL    HW164049  12.967   4.902  14.283
54072SOL    HW264050  12.957   4.932  14.134
54073SOL     OW64051   8.204   1.052   1.227
54073SOL    HW164052   8.148   0.995   1.175
54073SOL    HW264053   8.205   1.013   1.314
54074SOL     OW64054   8.549   1.963   8.504
54074SOL    HW164055   8.502   1.899   8.557
54074SOL    HW264056   8.482   2.004   8.450
54075SOL     OW64057   0.962   9.779  10.568
54075SOL    HW164058   0.976   9.685  10.583
54075SOL    HW264059   0.942   9.785  10.475
54076SOL     OW64060  12.351   9.375   9.344
54076SOL    HW164061  12.412   9.303   9.355
54076SOL    HW264062  12.285   9.361   9.412
54077SOL     OW64063   8.551   2.008   2.386
54077SOL    HW164064   8.524   2.097   2.407
54077SOL    HW264065   8.615   2.018   2.316
54078SOL     OW64066   7.128  10.758   0.899
54078SOL    HW164067   7.213  10.718   0.917
54078SOL    HW264068   7.112  10.817   0.973
54079SOL     OW64069  14.583  14.051  10.679
54079SOL    HW164070  14.608  14.064  10.771
54079SOL    HW264071  14.659  14.079  10.629
54080SOL     OW64072  12.048   7.796   1.510
54080SOL    HW164073  12.030   7.724   1.571
54080SOL    HW264074  12.120   7.844   1.550
54081SOL     OW64075   8.343   2.476   1.411
54081SOL    HW164076   8.333   2.465   1.317
54081SOL    HW264077   8.288   2.552   1.432
54082SOL     OW64078   4.855  13.597  10.586
54082SOL    HW164079   4.773  13.547  10.588
54082SOL    HW264080   4.919  13.539  10.627
54083SOL     OW64081   0.167   6.557  10.469
54083SOL    HW164082   0.126   6.629  10.420
54083SOL    HW264083   0.093   6.512  10.511
54084SOL     OW64084  12.652   6.829   0.704
54084SOL    HW164085  12.611   6.796   0.624
54084SOL    HW264086  12.701   6.906   0.676
54085SOL     OW64087   9.786   8.813   7.575
54085SOL    HW164088   9.826   8.855   7.498
54085SOL    HW264089   9.718   8.874   7.603
54086SOL     OW64090   9.976  13.118  12.339
54086SOL    HW164091  10.008  13.028  12.343
54086SOL    HW264092   9.931  13.130  12.423
54087SOL     OW64093   9.612  14.378   3.137
54087SOL    HW164094   9.571  14.309   3.086
54087SOL    HW264095   9.554  14.453   3.126
54088SOL     OW64096   1.261   8.640   3.819
54088SOL    HW164097   1.237   8.729   3.792
54088SOL    HW264098   1.349   8.649   3.856
54089SOL     OW64099   3.115  14.570   9.845
54089SOL    HW164100   3.096  14.495   9.902
54089SOL    HW264101   3.190  14.542   9.793
54090SOL     OW64102   6.230   6.793  13.063
54090SOL    HW164103   6.292   6.810  13.135
54090SOL    HW264104   6.205   6.880  13.032
54091SOL     OW64105   6.061   8.515   0.038
54091SOL    HW164106   6.155   8.526   0.054
54091SOL    HW264107   6.021   8.592   0.079
54092SOL     OW64108  11.551   3.757   8.617
54092SOL    HW164109  11.559   3.676   8.667
54092SOL    HW264110  11.637   3.771   8.579
54093SOL     OW64111  12.885  13.095   2.751
54093SOL    HW164112  12.889  13.190   2.757
54093SOL    HW264113  12.952  13.073   2.685
54094SOL     OW64114  14.412   1.723  14.122
54094SOL    HW164115  14.384   1.674  14.200
54094SOL    HW264116  14.402   1.815  14.148
54095SOL     OW64117  11.287   8.461   9.515
54095SOL    HW164118  11.326   8.546   9.498
54095SOL    HW264119  11.333   8.401   9.456
54096SOL     OW64120   5.294   5.147   3.900
54096SOL    HW164121   5.366   5.120   3.843
54096SOL    HW264122   5.221   5.164   3.840
54097SOL     OW64123  10.584   7.535   7.989
54097SOL    HW164124  10.526   7.547   8.064
54097SOL    HW264125  10.593   7.622   7.950
54098SOL     OW64126   2.064  11.259   0.271
54098SOL    HW164127   2.026  11.178   0.306
54098SOL    HW264128   2.002  11.288   0.205
54099SOL     OW64129   2.846   5.564   8.816
54099SOL    HW164130   2.885   5.594   8.734
54099SOL    HW264131   2.918   5.567   8.879
54100SOL     OW64132  10.671  10.762   1.583
54100SOL    HW164133  10.670  10.774   1.678
54100SOL    HW264134  10.759  10.729   1.564
54101SOL     OW64135  10.300  12.790  11.131
54101SOL    HW164136  10.351  12.726  11.080
54101SOL    HW264137  10.246  12.737  11.189
54102SOL     OW64138  12.085   9.162   6.905
54102SOL    HW164139  12.056   9.240   6.858
54102SOL    HW264140  12.083   9.093   6.839
54103SOL     OW64141  10.735   8.746   6.513
54103SOL    HW164142  10.824   8.780   6.506
54103SOL    HW264143  10.705   8.737   6.423
54104SOL     OW64144  11.966  13.437   1.489
54104SOL    HW164145  11.887  13.383   1.489
54104SOL    HW264146  12.039  13.375   1.489
54105SOL     OW64147   2.900   0.777  10.502
54105SOL    HW164148   2.808   0.756  10.485
54105SOL    HW264149   2.942   0.772  10.416
54106SOL     OW64150   3.131  12.021  10.874
54106SOL    HW164151   3.184  12.005  10.797
54106SOL    HW264152   3.064  12.083  10.846
54107SOL     OW64153  12.280   4.724  11.795
54107SOL    HW164154  12.289   4.629  11.788
54107SOL    HW264155  12.192   4.742  11.761
54108SOL     OW64156   2.583   1.804   3.958
54108SOL    HW164157   2.636   1.725   3.948
54108SOL    HW264158   2.493   1.772   3.963
54109SOL     OW64159  10.355   1.499   7.599
54109SOL    HW164160  10.329   1.549   7.676
54109SOL    HW264161  10.369   1.565   7.531
54110SOL     OW64162   1.578   4.455   2.511
54110SOL    HW164163   1.584   4.362   2.531
54110SOL    HW264164   1.571   4.497   2.597
54111SOL     OW64165   8.231  11.279   5.627
54111SOL    HW164166   8.200  11.302   5.715
54111SOL    HW264167   8.322  11.309   5.626
54112SOL     OW64168  12.406  11.588  12.602
54112SOL    HW164169  12.360  11.576  12.519
54112SOL    HW264170  12.499  11.581  12.579
54113SOL     OW64171   1.344   5.480   2.954
54113SOL    HW164172   1.434   5.495   2.982
54113SOL    HW264173   1.315   5.566   2.922
54114SOL     OW64174   5.923  13.931  10.923
54114SOL    HW164175   5.949  13.888  10.841
54114SOL    HW264176   5.950  13.871  10.992
54115SOL     OW64177   1.572  11.089   7.070
54115SOL    HW164178   1.525  11.129   7.143
54115SOL    HW264179   1.629  11.159   7.036
54116SOL     OW64180  13.501   8.844   7.179
54116SOL    HW164181  13.564   8.842   7.107
54116SOL    HW264182  13.550   8.881   7.253
54117SOL     OW64183   3.066   6.808   4.347
54117SOL    HW164184   3.000   6.787   4.280
54117SOL    HW264185   3.137   6.849   4.298
54118SOL     OW64186   3.957  10.753   8.823
54118SOL    HW164187   3.985  10.666   8.851
54118SOL    HW264188   3.933  10.741   8.731
54119SOL     OW64189  14.241   3.676   7.990
54119SOL    HW164190  14.289   3.735   8.049
54119SOL    HW264191  14.150   3.708   7.994
54120SOL     OW64192   0.124   0.675   0.700
54120SOL    HW164193   0.168   0.607   0.750
54120SOL    HW264194   0.034   0.675   0.733
54121SOL     OW64195   3.254   1.782   8.683
54121SOL    HW164196   3.283   1.814   8.768
54121SOL    HW264197   3.307   1.703   8.668
54122SOL     OW64198   5.912  11.851  14.798
54122SOL    HW164199   5.977  11.780  14.801
54122SOL    HW264200   5.940  11.913  14.865
54123SOL     OW64201   6.619   2.155  12.850
54123SOL    HW164202   6.653   2.146  12.938
54123SOL    HW264203   6.569   2.075  12.834
54124SOL     OW64204   4.398  11.804   8.514
54124SOL    HW164205   4.434  11.885   8.478
54124SOL    HW264206   4.474  11.751   8.536
54125SOL     OW64207   4.760  10.523   9.835
54125SOL    HW164208   4.780  10.576   9.912
54125SOL    HW264209   4.676  10.556   9.804
54126SOL     OW64210   9.358  14.440  11.514
54126SOL    HW164211   9.282  14.485  11.552
54126SOL    HW264212   9.347  14.453  11.419
54127SOL     OW64213  10.714   4.383   1.241
54127SOL    HW164214  10.731   4.442   1.314
54127SOL    HW264215  10.692   4.300   1.283
54128SOL     OW64216   0.952   1.636  11.301
54128SOL    HW164217   0.922   1.663  11.215
54128SOL    HW264218   1.033   1.685  11.315
54129SOL     OW64219  13.803   9.082   0.847
54129SOL    HW164220  13.807   9.006   0.904
54129SOL    HW264221  13.725   9.067   0.793
54130SOL     OW64222   5.165   7.577   2.441
54130SOL    HW164223   5.099   7.509   2.453
54130SOL    HW264224   5.117   7.659   2.456
54131SOL     OW64225   0.830   0.577  14.409
54131SOL    HW164226   0.770   0.651  14.407
54131SOL    HW264227   0.902   0.607  14.465
54132SOL     OW64228   0.424   6.058  11.433
54132SOL    HW164229   0.394   5.974  11.398
54132SOL    HW264230   0.422   6.046  11.528
54133SOL     OW64231   7.222   3.884   8.427
54133SOL    HW164232   7.311   3.869   8.394
54133SOL    HW264233   7.216   3.978   8.440
54134SOL     OW64234   6.128   0.450  12.731
54134SOL    HW164235   6.098   0.433  12.642
54134SOL    HW264236   6.064   0.405  12.786
54135SOL     OW64237  12.483   5.161  10.649
54135SOL    HW164238  12.439   5.222  10.589
54135SOL    HW264239  12.412   5.104  10.680
54136SOL     OW64240  12.621   9.823  13.030
54136SOL    HW164241  12.703   9.779  13.008
54136SOL    HW264242  12.552   9.763  13.002
54137SOL     OW64243  11.678   1.302   3.323
54137SOL    HW164244  11.656   1.369   3.387
54137SOL    HW264245  11.599   1.291   3.271
54138SOL     OW64246   3.525  12.715   5.351
54138SOL    HW164247   3.526  12.768   5.271
54138SOL    HW264248   3.612  12.677   5.355
54139SOL     OW64249   4.241   1.922  12.507
54139SOL    HW164250   4.251   2.000  12.452
54139SOL    HW264251   4.269   1.951  12.594
54140SOL     OW64252   4.248  11.087  12.580
54140SOL    HW164253   4.188  11.068  12.652
54140SOL    HW264254   4.226  11.023  12.513
54141SOL     OW64255   6.689  12.539  13.221
54141SOL    HW164256   6.780  12.543  13.250
54141SOL    HW264257   6.640  12.512  13.299
54142SOL     OW64258  13.317   8.956  12.568
54142SOL    HW164259  13.407   8.973  12.595
54142SOL    HW264260  13.318   8.967  12.473
54143SOL     OW64261   9.296   9.281  14.615
54143SOL    HW164262   9.353   9.356  14.599
54143SOL    HW264263   9.350   9.204  14.593
54144SOL     OW64264   8.859  11.784   5.434
54144SOL    HW164265   8.913  11.760   5.359
54144SOL    HW264266   8.816  11.866   5.408
54145SOL     OW64267   5.514   2.867  13.538
54145SOL    HW164268   5.565   2.791  13.509
54145SOL    HW264269   5.500   2.918  13.458
54146SOL     OW64270   7.541  12.389   0.789
54146SOL    HW164271   7.464  12.383   0.732
54146SOL    HW264272   7.584  12.470   0.763
54147SOL     OW64273   3.565   7.139   3.892
54147SOL    HW164274   3.619   7.062   3.872
54147SOL    HW264275   3.590   7.163   3.981
54148SOL     OW64276   9.214  11.186   6.011
54148SOL    HW164277   9.126  11.208   6.043
54148SOL    HW264278   9.271  11.207   6.085
54149SOL     OW64279   9.678   9.781   8.479
54149SOL    HW164280   9.707   9.691   8.492
54149SOL    HW264281   9.716   9.829   8.554
54150SOL     OW64282   7.992  14.501   8.044
54150SOL    HW164283   8.056  14.434   8.068
54150SOL    HW264284   7.911  14.475   8.090
54151SOL     OW64285  13.986  13.502  11.785
54151SOL    HW164286  14.075  13.528  11.762
54151SOL    HW264287  13.998  13.429  11.845
54152SOL     OW64288  13.156   6.057   9.652
54152SOL    HW164289  13.120   6.145   9.641
54152SOL    HW264290  13.081   5.999   9.637
54153SOL     OW64291  12.738   8.286  10.044
54153SOL    HW164292  12.739   8.352  10.113
54153SOL    HW264293  12.655   8.239  10.055
54154SOL     OW64294   9.401   6.538   3.177
54154SOL    HW164295   9.400   6.633   3.191
54154SOL    HW264296   9.460   6.504   3.245
54155SOL     OW64297   7.984   6.342   0.298
54155SOL    HW164298   8.071   6.381   0.306
54155SOL    HW264299   8.001   6.248   0.292
54156SOL     OW64300   8.435   4.523  11.846
54156SOL    HW164301   8.400   4.578  11.917
54156SOL    HW264302   8.508   4.476  11.887
54157SOL     OW64303   2.980   1.817   6.991
54157SOL    HW164304   2.953   1.868   6.914
54157SOL    HW264305   2.899   1.804   7.041
54158SOL     OW64306   8.324  14.403   4.037
54158SOL    HW164307   8.262  14.346   3.992
54158SOL    HW264308   8.277  14.435   4.114
54159SOL     OW64309   0.088   5.060   9.964
54159SOL    HW164310   0.151   4.992   9.942
54159SOL    HW264311   0.028   5.062   9.890
54160SOL     OW64312   6.973   3.813  10.374
54160SOL    HW164313   6.889   3.788  10.413
54160SOL    HW264314   6.976   3.908  10.382
54161SOL     OW64315  14.315  10.183   1.190
54161SOL    HW164316  14.284  10.172   1.280
54161SOL    HW264317  14.397  10.232   1.199
54162SOL     OW64318   1.283  14.578   3.125
54162SOL    HW164319   1.190  14.563   3.142
54162SOL    HW264320   1.319  14.601   3.211
54163SOL     OW64321   7.887   5.212  12.525
54163SOL    HW164322   7.932   5.129  12.510
54163SOL    HW264323   7.951   5.265  12.573
54164SOL     OW64324   3.062   2.622   3.378
54164SOL    HW164325   3.113   2.566   3.437
54164SOL    HW264326   3.047   2.569   3.300
54165SOL     OW64327   1.732  12.735   2.245
54165SOL    HW164328   1.647  12.761   2.209
54165SOL    HW264329   1.794  12.795   2.204
54166SOL     OW64330  12.076   6.628  10.639
54166SOL    HW164331  12.111   6.676  10.714
54166SOL    HW264332  12.148   6.625  10.576
54167SOL     OW64333  14.732   0.451   9.073
54167SOL    HW164334  14.672   0.493   9.135
54167SOL    HW264335  14.680   0.383   9.031
54168SOL     OW64336  11.588   2.020  13.544
54168SOL    HW164337  11.507   2.065  13.566
54168SOL    HW264338  11.624   2.069  13.470
54169SOL     OW64339   3.012   5.303   3.903
54169SOL    HW164340   2.984   5.215   3.931
54169SOL    HW264341   2.954   5.362   3.951
54170SOL     OW64342   7.561   0.727   0.473
54170SOL    HW164343   7.498   0.670   0.517
54170SOL    HW264344   7.644   0.708   0.516
54171SOL     OW64345   9.735  12.877  13.792
54171SOL    HW164346   9.711  12.954  13.740
54171SOL    HW264347   9.775  12.817  13.730
54172SOL     OW64348   1.650  10.327   4.502
54172SOL    HW164349   1.602  10.405   4.478
54172SOL    HW264350   1.742  10.351   4.494
54173SOL     OW64351   8.772   1.628  10.001
54173SOL    HW164352   8.803   1.719   9.998
54173SOL    HW264353   8.761   1.603   9.909
54174SOL     OW64354  13.232  12.573   8.592
54174SOL    HW164355  13.309  12.516   8.589
54174SOL    HW264356  13.160  12.514   8.619
54175SOL     OW64357   7.818   9.014   2.212
54175SOL    HW164358   7.913   9.026   2.204
54175SOL    HW264359   7.783   9.046   2.129
54176SOL     OW64360  13.061   5.997   4.290
54176SOL    HW164361  13.037   6.053   4.364
54176SOL    HW264362  13.021   6.040   4.214
54177SOL     OW64363  11.053   0.935   9.619
54177SOL    HW164364  11.148   0.928   9.624
54177SOL    HW264365  11.034   0.935   9.525
54178SOL     OW64366   2.587   2.529   9.149
54178SOL    HW164367   2.629   2.544   9.064
54178SOL    HW264368   2.637   2.456   9.187
54179SOL     OW64369   6.604  11.887   0.096
54179SOL    HW164370   6.667  11.822   0.066
54179SOL    HW264371   6.555  11.842   0.165
54180SOL     OW64372  14.434  13.510  11.846
54180SOL    HW164373  14.480  13.549  11.771
54180SOL    HW264374  14.343  13.540  11.836
54181SOL     OW64375   7.773  14.080   9.172
54181SOL    HW164376   7.696  14.049   9.124
54181SOL    HW264377   7.845  14.028   9.136
54182SOL     OW64378   7.671  12.223  14.547
54182SOL    HW164379   7.655  12.272  14.466
54182SOL    HW264380   7.645  12.283  14.616
54183SOL     OW64381   4.501   3.342   3.108
54183SOL    HW164382   4.516   3.252   3.137
54183SOL    HW264383   4.584   3.387   3.125
54184SOL     OW64384   8.577   6.076  12.856
54184SOL    HW164385   8.482   6.082  12.857
54184SOL    HW264386   8.606   6.152  12.805
54185SOL     OW64387   6.242   2.932  13.200
54185SOL    HW164388   6.242   2.838  13.221
54185SOL    HW264389   6.289   2.972  13.273
54186SOL     OW64390  10.087   9.732   1.841
54186SOL    HW164391  10.069   9.695   1.754
54186SOL    HW264392  10.013   9.790   1.857
54187SOL     OW64393   2.033   0.063   1.662
54187SOL    HW164394   2.051   0.116   1.584
54187SOL    HW264395   2.030  14.852   1.629
54188SOL     OW64396  10.909   1.949  12.961
54188SOL    HW164397  10.846   1.955  13.033
54188SOL    HW264398  10.856   1.952  12.881
54189SOL     OW64399   4.097   9.521   8.649
54189SOL    HW164400   4.147   9.442   8.629
54189SOL    HW264401   4.089   9.521   8.744
54190SOL     OW64402   7.484  12.005  14.743
54190SOL    HW164403   7.507  11.926  14.694
54190SOL    HW264404   7.524  12.077  14.693
54191SOL     OW64405   9.457  11.202   2.098
54191SOL    HW164406   9.434  11.153   2.020
54191SOL    HW264407   9.448  11.294   2.073
54192SOL     OW64408  14.495   0.858   7.092
54192SOL    HW164409  14.473   0.951   7.093
54192SOL    HW264410  14.502   0.836   6.999
54193SOL     OW64411  12.772   3.967   7.375
54193SOL    HW164412  12.799   4.021   7.300
54193SOL    HW264413  12.695   4.011   7.411
54194SOL     OW64414   7.567  13.226  12.333
54194SOL    HW164415   7.482  13.256  12.300
54194SOL    HW264416   7.611  13.306  12.360
54195SOL     OW64417  13.964   0.296   6.116
54195SOL    HW164418  13.990   0.231   6.050
54195SOL    HW264419  13.880   0.264   6.149
54196SOL     OW64420  10.749  14.226  12.951
54196SOL    HW164421  10.729  14.283  12.876
54196SOL    HW264422  10.693  14.259  13.022
54197SOL     OW64423   6.716   1.735   8.208
54197SOL    HW164424   6.736   1.808   8.267
54197SOL    HW264425   6.640   1.692   8.249
54198SOL     OW64426   0.947   0.862   6.893
54198SOL    HW164427   0.870   0.853   6.837
54198SOL    HW264428   1.007   0.793   6.864
54199SOL     OW64429   7.615   4.368   8.579
54199SOL    HW164430   7.568   4.285   8.578
54199SOL    HW264431   7.549   4.433   8.603
54200SOL     OW64432   7.700  10.748   4.563
54200SOL    HW164433   7.725  10.765   4.654
54200SOL    HW264434   7.778  10.769   4.512
54201SOL     OW64435  13.319   3.078  12.653
54201SOL    HW164436  13.252   3.110  12.593
54201SOL    HW264437  13.392   3.138  12.642
54202SOL     OW64438   6.797   9.702  10.749
54202SOL    HW164439   6.803   9.766  10.819
54202SOL    HW264440   6.856   9.736  10.681
54203SOL     OW64441   8.253   2.172   2.318
54203SOL    HW164442   8.226   2.263   2.305
54203SOL    HW264443   8.344   2.178   2.349
54204SOL     OW64444   1.159   2.071   6.129
54204SOL    HW164445   1.159   2.108   6.041
54204SOL    HW264446   1.239   2.018   6.133
54205SOL     OW64447   1.406   2.658   9.717
54205SOL    HW164448   1.333   2.714   9.690
54205SOL    HW264449   1.480   2.718   9.727
54206SOL     OW64450   0.323  10.695   3.735
54206SOL    HW164451   0.278  10.779   3.740
54206SOL    HW264452   0.361  10.693   3.647
54207SOL     OW64453   0.772   5.648   0.318
54207SOL    HW164454   0.807   5.672   0.232
54207SOL    HW264455   0.822   5.702   0.379
54208SOL     OW64456  10.412   7.157  11.119
54208SOL    HW164457  10.507   7.148  11.126
54208SOL    HW264458  10.379   7.125  11.203
54209SOL     OW64459  13.464  12.502  10.463
54209SOL    HW164460  13.517  12.427  10.491
54209SOL    HW264461  13.374  12.473  10.472
54210SOL     OW64462   5.217   3.852  10.010
54210SOL    HW164463   5.139   3.817  10.052
54210SOL    HW264464   5.213   3.820   9.920
54211SOL     OW64465   3.874   8.039  11.111
54211SOL    HW164466   3.820   7.970  11.074
54211SOL    HW264467   3.924   8.073  11.036
54212SOL     OW64468   9.446   7.628  14.436
54212SOL    HW164469   9.432   7.592  14.349
54212SOL    HW264470   9.499   7.706  14.422
54213SOL     OW64471   4.333   0.255   3.622
54213SOL    HW164472   4.312   0.195   3.551
54213SOL    HW264473   4.368   0.198   3.691
54214SOL     OW64474   3.324  13.178   6.354
54214SOL    HW164475   3.293  13.088   6.367
54214SOL    HW264476   3.353  13.206   6.440
54215SOL     OW64477   8.528  13.241  12.991
54215SOL    HW164478   8.482  13.157  12.982
54215SOL    HW264479   8.463  13.306  12.965
54216SOL     OW64480   8.649   2.153  13.876
54216SOL    HW164481   8.723   2.171  13.933
54216SOL    HW264482   8.572   2.160  13.933
54217SOL     OW64483  14.708   6.420   7.577
54217SOL    HW164484  14.771   6.406   7.648
54217SOL    HW264485  14.624   6.398   7.616
54218SOL     OW64486   4.123   5.997  11.978
54218SOL    HW164487   4.214   5.979  11.954
54218SOL    HW264488   4.095   6.064  11.916
54219SOL     OW64489   6.914  12.306   9.986
54219SOL    HW164490   6.981  12.249  10.023
54219SOL    HW264491   6.882  12.259   9.908
54220SOL     OW64492  12.544   3.578   1.300
54220SOL    HW164493  12.593   3.659   1.312
54220SOL    HW264494  12.463   3.591   1.349
54221SOL     OW64495   1.850  14.620  14.421
54221SOL    HW164496   1.843  14.622  14.517
54221SOL    HW264497   1.944  14.623  14.404
54222SOL     OW64498   0.871   4.268   5.966
54222SOL    HW164499   0.910   4.231   5.887
54222SOL    HW264500   0.883   4.363   5.957
54223SOL     OW64501   2.308   0.963  10.264
54223SOL    HW164502   2.310   0.879  10.309
54223SOL    HW264503   2.341   0.944  10.176
54224SOL     OW64504   0.376   7.812   9.439
54224SOL    HW164505   0.386   7.884   9.501
54224SOL    HW264506   0.281   7.803   9.427
54225SOL     OW64507   5.525   2.588   9.397
54225SOL    HW164508   5.509   2.523   9.328
54225SOL    HW264509   5.449   2.646   9.392
54226SOL     OW64510   9.756  12.062   1.378
54226SOL    HW164511   9.732  11.972   1.355
54226SOL    HW264512   9.695  12.086   1.447
54227SOL     OW64513   8.542   2.981   6.335
54227SOL    HW164514   8.514   2.909   6.392
54227SOL    HW264515   8.540   3.058   6.392
54228SOL     OW64516  10.408   0.840   6.002
54228SOL    HW164517  10.325   0.849   6.047
54228SOL    HW264518  10.388   0.789   5.923
54229SOL     OW64519   7.293  10.916   0.433
54229SOL    HW164520   7.262  10.984   0.374
54229SOL    HW264521   7.226  10.911   0.502
54230SOL     OW64522   1.950   5.711   6.269
54230SOL    HW164523   1.958   5.616   6.255
54230SOL    HW264524   1.989   5.725   6.355
54231SOL     OW64525   7.651  14.798   6.335
54231SOL    HW164526   7.637  14.811   6.241
54231SOL    HW264527   7.653   0.007   6.372
54232SOL     OW64528   2.290   8.010  14.212
54232SOL    HW164529   2.324   7.964  14.289
54232SOL    HW264530   2.271   8.099  14.244
54233SOL     OW64531   4.140   6.949   1.337
54233SOL    HW164532   4.171   6.972   1.424
54233SOL    HW264533   4.086   6.871   1.350
54234SOL     OW64534   2.333   1.886   8.122
54234SOL    HW164535   2.241   1.866   8.107
54234SOL    HW264536   2.381   1.822   8.069
54235SOL     OW64537   9.148   7.591   9.819
54235SOL    HW164538   9.084   7.528   9.786
54235SOL    HW264539   9.185   7.549   9.897
54236SOL     OW64540  10.200  10.815  13.620
54236SOL    HW164541  10.139  10.815  13.546
54236SOL    HW264542  10.144  10.801  13.697
54237SOL     OW64543   1.629  13.295  11.793
54237SOL    HW164544   1.535  13.306  11.777
54237SOL    HW264545   1.667  13.287  11.705
54238SOL     OW64546  10.347  10.420   8.907
54238SOL    HW164547  10.413  10.404   8.974
54238SOL    HW264548  10.310  10.505   8.929
54239SOL     OW64549  13.370  12.046  14.839
54239SOL    HW164550  13.364  11.995   0.041
54239SOL    HW264551  13.311  12.120  14.854
54240SOL     OW64552   3.008   6.531   2.138
54240SOL    HW164553   3.050   6.598   2.192
54240SOL    HW264554   2.918   6.527   2.170
54241SOL     OW64555   3.015   2.251   9.980
54241SOL    HW164556   2.983   2.210  10.060
54241SOL    HW264557   3.084   2.193   9.949
54242SOL     OW64558  13.383   2.901  11.311
54242SOL    HW164559  13.470   2.936  11.292
54242SOL    HW264560  13.371   2.914  11.405
54243SOL     OW64561   4.703   6.155  11.665
54243SOL    HW164562   4.673   6.246  11.668
54243SOL    HW264563   4.646   6.112  11.602
54244SOL     OW64564   8.183   5.356   4.944
54244SOL    HW164565   8.169   5.391   4.856
54244SOL    HW264566   8.222   5.429   4.992
54245SOL     OW64567   2.045  13.592   8.648
54245SOL    HW164568   2.058  13.510   8.695
54245SOL    HW264569   1.951  13.609   8.653
54246SOL     OW64570   2.707   9.643   5.660
54246SOL    HW164571   2.760   9.566   5.639
54246SOL    HW264572   2.623   9.607   5.688
54247SOL     OW64573   6.710  14.406   5.220
54247SOL    HW164574   6.636  14.399   5.280
54247SOL    HW264575   6.785  14.372   5.271
54248SOL     OW64576  14.861   0.177  13.278
54248SOL    HW164577  14.867   0.206  13.187
54248SOL    HW264578   0.035   0.097  13.281
54249SOL     OW64579   9.268   6.143   7.502
54249SOL    HW164580   9.237   6.132   7.592
54249SOL    HW264581   9.310   6.060   7.481
54250SOL     OW64582   7.911   6.357  14.284
54250SOL    HW164583   8.002   6.329  14.278
54250SOL    HW264584   7.911   6.446  14.249
54251SOL     OW64585   3.593   1.559   0.022
54251SOL    HW164586   3.545   1.640   0.039
54251SOL    HW264587   3.526   1.494   0.001
54252SOL     OW64588   3.528   8.192   9.403
54252SOL    HW164589   3.456   8.137   9.434
54252SOL    HW264590   3.491   8.239   9.328
54253SOL     OW64591  10.290  13.288   9.887
54253SOL    HW164592  10.283  13.304   9.981
54253SOL    HW264593  10.208  13.323   9.850
54254SOL     OW64594   3.296  10.499   3.009
54254SOL    HW164595   3.317  10.446   2.932
54254SOL    HW264596   3.335  10.452   3.083
54255SOL     OW64597   3.251   7.818   3.149
54255SOL    HW164598   3.198   7.777   3.081
54255SOL    HW264599   3.191   7.880   3.192
54256SOL     OW64600   5.476  12.956  13.570
54256SOL    HW164601   5.562  12.998  13.576
54256SOL    HW264602   5.493  12.872  13.526
54257SOL     OW64603   3.730  14.488   6.625
54257SOL    HW164604   3.757  14.558   6.566
54257SOL    HW264605   3.734  14.527   6.713
54258SOL     OW64606  13.093   9.144   7.776
54258SOL    HW164607  13.161   9.139   7.709
54258SOL    HW264608  13.018   9.098   7.738
54259SOL     OW64609   5.358   7.196   9.209
54259SOL    HW164610   5.379   7.290   9.211
54259SOL    HW264611   5.437   7.154   9.242
54260SOL     OW64612   7.402   7.700   7.997
54260SOL    HW164613   7.438   7.675   8.082
54260SOL    HW264614   7.384   7.794   8.006
54261SOL     OW64615   8.581   4.728  13.164
54261SOL    HW164616   8.514   4.745  13.098
54261SOL    HW264617   8.534   4.686  13.236
54262SOL     OW64618  11.488   2.902   5.373
54262SOL    HW164619  11.537   2.947   5.303
54262SOL    HW264620  11.543   2.827   5.395
54263SOL     OW64621   5.973   9.916   3.121
54263SOL    HW164622   6.031   9.966   3.064
54263SOL    HW264623   5.965   9.969   3.200
54264SOL     OW64624   8.423   7.343   3.001
54264SOL    HW164625   8.418   7.323   2.907
54264SOL    HW264626   8.423   7.258   3.043
54265SOL     OW64627   2.102   1.521   3.987
54265SOL    HW164628   2.080   1.433   4.019
54265SOL    HW264629   2.042   1.579   4.035
54266SOL     OW64630   0.539  14.768  10.873
54266SOL    HW164631   0.490  14.741  10.795
54266SOL    HW264632   0.555  14.862  10.859
54267SOL     OW64633   5.338  14.848   6.968
54267SOL    HW164634   5.411   0.028   6.951
54267SOL    HW264635   5.336  14.790   6.892
54268SOL     OW64636   0.693   1.171   6.818
54268SOL    HW164637   0.682   1.217   6.901
54268SOL    HW264638   0.783   1.138   6.821
54269SOL     OW64639   8.816   2.637   4.212
54269SOL    HW164640   8.807   2.558   4.159
54269SOL    HW264641   8.800   2.709   4.151
54270SOL     OW64642  11.568  10.308  10.863
54270SOL    HW164643  11.602  10.264  10.941
54270SOL    HW264644  11.558  10.238  10.799
54271SOL     OW64645   2.549  12.809   8.142
54271SOL    HW164646   2.495  12.828   8.065
54271SOL    HW264647   2.628  12.769   8.108
54272SOL     OW64648  12.391  12.836   4.360
54272SOL    HW164649  12.323  12.817   4.295
54272SOL    HW264650  12.352  12.903   4.415
54273SOL     OW64651   2.860   8.392   8.131
54273SOL    HW164652   2.932   8.449   8.103
54273SOL    HW264653   2.793   8.402   8.062
54274SOL     OW64654   5.221   5.213   8.171
54274SOL    HW164655   5.273   5.203   8.250
54274SOL    HW264656   5.180   5.127   8.158
54275SOL     OW64657   2.208   8.726  11.991
54275SOL    HW164658   2.191   8.813  11.956
54275SOL    HW264659   2.285   8.695  11.944
54276SOL     OW64660   6.808   2.927   1.404
54276SOL    HW164661   6.742   2.910   1.471
54276SOL    HW264662   6.829   3.020   1.414
54277SOL     OW64663   4.911   1.996  11.503
54277SOL    HW164664   4.879   2.070  11.451
54277SOL    HW264665   5.006   2.011  11.510
54278SOL     OW64666   1.996  10.102   9.704
54278SOL    HW164667   1.912  10.127   9.665
54278SOL    HW264668   1.972  10.061   9.787
54279SOL     OW64669   2.610   0.910  10.314
54279SOL    HW164670   2.609   0.852  10.390
54279SOL    HW264671   2.608   0.852  10.239
54280SOL     OW64672  11.249  11.221   1.724
54280SOL    HW164673  11.158  11.223   1.755
54280SOL    HW264674  11.300  11.202   1.803
54281SOL     OW64675   1.377  10.421   9.723
54281SOL    HW164676   1.297  10.418   9.776
54281SOL    HW264677   1.382  10.512   9.693
54282SOL     OW64678   8.821  13.665   1.091
54282SOL    HW164679   8.833  13.612   1.170
54282SOL    HW264680   8.740  13.714   1.107
54283SOL     OW64681   0.325   3.392  11.319
54283SOL    HW164682   0.345   3.365  11.229
54283SOL    HW264683   0.349   3.485  11.322
54284SOL     OW64684  14.053  12.111   3.262
54284SOL    HW164685  13.992  12.107   3.188
54284SOL    HW264686  14.049  12.024   3.301
54285SOL     OW64687   3.217   6.754   3.420
54285SOL    HW164688   3.283   6.690   3.392
54285SOL    HW264689   3.206   6.811   3.344
54286SOL     OW64690   4.373   2.878   5.936
54286SOL    HW164691   4.407   2.967   5.929
54286SOL    HW264692   4.385   2.841   5.849
54287SOL     OW64693   5.878  14.188  10.838
54287SOL    HW164694   5.904  14.100  10.864
54287SOL    HW264695   5.949  14.244  10.869
54288SOL     OW64696  12.898   1.287   4.480
54288SOL    HW164697  12.851   1.371   4.488
54288SOL    HW264698  12.970   1.294   4.543
54289SOL     OW64699  12.326   6.606   7.941
54289SOL    HW164700  12.337   6.515   7.969
54289SOL    HW264701  12.342   6.603   7.846
54290SOL     OW64702   8.114  13.039   3.649
54290SOL    HW164703   8.164  12.960   3.672
54290SOL    HW264704   8.024  13.008   3.638
54291SOL     OW64705  12.604  10.995   2.008
54291SOL    HW164706  12.671  11.003   2.076
54291SOL    HW264707  12.649  10.948   1.937
54292SOL     OW64708   4.000   5.459  12.236
54292SOL    HW164709   4.073   5.423  12.185
54292SOL    HW264710   3.933   5.480  12.170
54293SOL     OW64711   2.383  13.506   0.018
54293SOL    HW164712   2.373  13.418  14.861
54293SOL    HW264713   2.450  13.547  14.842
54294SOL     OW64714   0.965   2.923   1.751
54294SOL    HW164715   0.881   2.968   1.745
54294SOL    HW264716   0.946   2.842   1.797
54295SOL     OW64717   0.682  10.135  11.065
54295SOL    HW164718   0.757  10.119  11.122
54295SOL    HW264719   0.621  10.065  11.086
54296SOL     OW64720   0.527   3.263   0.467
54296SOL    HW164721   0.571   3.241   0.385
54296SOL    HW264722   0.448   3.308   0.441
54297SOL     OW64723   8.343   3.412   6.526
54297SOL    HW164724   8.422   3.457   6.555
54297SOL    HW264725   8.284   3.417   6.602
54298SOL     OW64726   1.700   2.820   8.426
54298SOL    HW164727   1.636   2.774   8.480
54298SOL    HW264728   1.668   2.810   8.337
54299SOL     OW64729   1.223   8.707   1.697
54299SOL    HW164730   1.281   8.681   1.768
54299SOL    HW264731   1.259   8.790   1.666
54300SOL     OW64732   2.933   6.436  10.278
54300SOL    HW164733   2.959   6.353  10.239
54300SOL    HW264734   2.848   6.455  10.239
54301SOL     OW64735  12.881   2.825   0.676
54301SOL    HW164736  12.838   2.890   0.620
54301SOL    HW264737  12.963   2.867   0.702
54302SOL     OW64738  10.495  12.704   6.069
54302SOL    HW164739  10.564  12.760   6.033
54302SOL    HW264740  10.530  12.675   6.153
54303SOL     OW64741  14.047   4.204   6.228
54303SOL    HW164742  13.965   4.171   6.192
54303SOL    HW264743  14.036   4.197   6.323
54304SOL     OW64744  13.017  13.777   8.359
54304SOL    HW164745  13.007  13.861   8.312
54304SOL    HW264746  13.099  13.741   8.326
54305SOL     OW64747  11.102  14.701  14.601
54305SOL    HW164748  11.137  14.619  14.635
54305SOL    HW264749  11.170  14.735  14.543
54306SOL     OW64750   3.775  10.705   3.699
54306SOL    HW164751   3.808  10.704   3.789
54306SOL    HW264752   3.784  10.614   3.669
54307SOL     OW64753   9.620   7.999   7.715
54307SOL    HW164754   9.661   7.991   7.629
54307SOL    HW264755   9.570   8.081   7.710
54308SOL     OW64756  12.431  11.361  11.925
54308SOL    HW164757  12.341  11.333  11.942
54308SOL    HW264758  12.473  11.284  11.887
54309SOL     OW64759   1.295   2.186   9.657
54309SOL    HW164760   1.276   2.269   9.614
54309SOL    HW264761   1.328   2.130   9.587
54310SOL     OW64762   7.389   7.333  10.381
54310SOL    HW164763   7.441   7.368  10.308
54310SOL    HW264764   7.331   7.268  10.340
54311SOL     OW64765   6.637   7.349   7.963
54311SOL    HW164766   6.726   7.384   7.955
54311SOL    HW264767   6.606   7.383   8.047
54312SOL     OW64768   9.188   6.821  11.639
54312SOL    HW164769   9.157   6.806  11.550
54312SOL    HW264770   9.118   6.870  11.682
54313SOL     OW64771   4.202  13.604   1.831
54313SOL    HW164772   4.265  13.534   1.814
54313SOL    HW264773   4.237  13.651   1.907
54314SOL     OW64774   7.595  12.863  13.021
54314SOL    HW164775   7.533  12.792  13.005
54314SOL    HW264776   7.558  12.938  12.974
54315SOL     OW64777  14.629   2.415   7.125
54315SOL    HW164778  14.610   2.428   7.217
54315SOL    HW264779  14.644   2.321   7.116
54316SOL     OW64780   2.829  10.208  11.687
54316SOL    HW164781   2.794  10.294  11.708
54316SOL    HW264782   2.849  10.213  11.593
54317SOL     OW64783   5.927  14.149  13.665
54317SOL    HW164784   5.882  14.126  13.746
54317SOL    HW264785   5.931  14.244  13.666
54318SOL     OW64786  14.824   4.416   6.250
54318SOL    HW164787  14.858   4.465   6.325
54318SOL    HW264788  14.838   4.324   6.273
54319SOL     OW64789  10.984   8.464  14.551
54319SOL    HW164790  10.908   8.495  14.601
54319SOL    HW264791  11.005   8.379  14.590
54320SOL     OW64792  14.169   8.461   0.699
54320SOL    HW164793  14.223   8.387   0.670
54320SOL    HW264794  14.163   8.517   0.622
54321SOL     OW64795   5.306   2.357   5.490
54321SOL    HW164796   5.360   2.363   5.569
54321SOL    HW264797   5.218   2.341   5.523
54322SOL     OW64798  13.221  13.587   7.499
54322SOL    HW164799  13.292  13.643   7.467
54322SOL    HW264800  13.244  13.499   7.467
54323SOL     OW64801  11.019   1.706  10.874
54323SOL    HW164802  11.101   1.660  10.891
54323SOL    HW264803  11.042   1.799  10.879
54324SOL     OW64804   3.998   7.995   4.733
54324SOL    HW164805   4.087   7.963   4.726
54324SOL    HW264806   3.947   7.939   4.674
54325SOL     OW64807   2.235   6.617   8.770
54325SOL    HW164808   2.186   6.535   8.780
54325SOL    HW264809   2.276   6.609   8.684
54326SOL     OW64810   3.863  13.402   5.162
54326SOL    HW164811   3.890  13.460   5.233
54326SOL    HW264812   3.903  13.440   5.083
54327SOL     OW64813   2.769  14.735   8.042
54327SOL    HW164814   2.721  14.655   8.020
54327SOL    HW264815   2.827  14.708   8.114
54328SOL     OW64816   7.578   3.018   5.812
54328SOL    HW164817   7.544   2.944   5.862
54328SOL    HW264818   7.504   3.077   5.803
54329SOL     OW64819   6.763   4.670   7.077
54329SOL    HW164820   6.724   4.583   7.069
54329SOL    HW264821   6.850   4.661   7.037
54330SOL     OW64822  13.800  11.277   8.742
54330SOL    HW164823  13.763  11.340   8.680
54330SOL    HW264824  13.886  11.313   8.763
54331SOL     OW64825   5.173   0.015   0.038
54331SOL    HW164826   5.189   0.108   0.052
54331SOL    HW264827   5.207  14.852   0.117
54332SOL     OW64828   1.033   6.194   5.762
54332SOL    HW164829   1.018   6.270   5.819
54332SOL    HW264830   1.053   6.123   5.823
54333SOL     OW64831  10.801  13.373  12.802
54333SOL    HW164832  10.856  13.297  12.785
54333SOL    HW264833  10.731  13.366  12.736
54334SOL     OW64834   3.746  11.183   8.894
54334SOL    HW164835   3.811  11.141   8.837
54334SOL    HW264836   3.760  11.144   8.980
54335SOL     OW64837   0.645   7.504   5.090
54335SOL    HW164838   0.658   7.527   5.182
54335SOL    HW264839   0.659   7.585   5.042
54336SOL     OW64840   8.895   4.071   7.889
54336SOL    HW164841   8.830   4.120   7.939
54336SOL    HW264842   8.845   4.033   7.816
54337SOL     OW64843   4.895   7.275   6.279
54337SOL    HW164844   4.962   7.340   6.257
54337SOL    HW264845   4.890   7.218   6.202
54338SOL     OW64846  11.224   4.118   2.101
54338SOL    HW164847  11.312   4.129   2.065
54338SOL    HW264848  11.231   4.153   2.190
54339SOL     OW64849   3.928  11.137  10.216
54339SOL    HW164850   3.887  11.051  10.215
54339SOL    HW264851   4.010  11.125  10.167
54340SOL     OW64852   8.878   6.519   2.073
54340SOL    HW164853   8.898   6.612   2.084
54340SOL    HW264854   8.958   6.482   2.035
54341SOL     OW64855   6.491   9.777   1.134
54341SOL    HW164856   6.469   9.842   1.201
54341SOL    HW264857   6.539   9.826   1.068
54342SOL     OW64858   2.476   6.293   1.871
54342SOL    HW164859   2.469   6.231   1.943
54342SOL    HW264860   2.484   6.238   1.793
54343SOL     OW64861   1.293   3.732   3.319
54343SOL    HW164862   1.362   3.699   3.377
54343SOL    HW264863   1.218   3.746   3.376
54344SOL     OW64864   3.586  11.459  14.128
54344SOL    HW164865   3.560  11.410  14.205
54344SOL    HW264866   3.647  11.402  14.082
54345SOL     OW64867   2.531   7.243   3.165
54345SOL    HW164868   2.447   7.282   3.141
54345SOL    HW264869   2.545   7.270   3.256
54346SOL     OW64870   0.799  12.635   5.544
54346SOL    HW164871   0.816  12.560   5.601
54346SOL    HW264872   0.767  12.597   5.462
54347SOL     OW64873   3.407   9.894  13.011
54347SOL    HW164874   3.343   9.823  13.013
54347SOL    HW264875   3.413   9.922  13.103
54348SOL     OW64876  10.505   5.156   6.358
54348SOL    HW164877  10.419   5.121   6.382
54348SOL    HW264878  10.562   5.079   6.357
54349SOL     OW64879   6.303  12.611   3.963
54349SOL    HW164880   6.237  12.680   3.957
54349SOL    HW264881   6.292  12.574   4.051
54350SOL     OW64882   6.671   8.959  11.147
54350SOL    HW164883   6.706   8.953  11.235
54350SOL    HW264884   6.735   8.915  11.092
54351SOL     OW64885   3.017   6.791   4.872
54351SOL    HW164886   2.922   6.784   4.888
54351SOL    HW264887   3.029   6.750   4.787
54352SOL     OW64888   2.909   9.494   2.571
54352SOL    HW164889   2.929   9.481   2.478
54352SOL    HW264890   2.854   9.571   2.573
54353SOL     OW64891   6.045   9.055   0.782
54353SOL    HW164892   6.020   9.125   0.843
54353SOL    HW264893   5.988   8.982   0.804
54354SOL     OW64894  13.036  12.962   1.263
54354SOL    HW164895  13.084  12.918   1.333
54354SOL    HW264896  13.071  13.051   1.263
54355SOL     OW64897   0.547   2.740   8.409
54355SOL    HW164898   0.503   2.723   8.326
54355SOL    HW264899   0.574   2.832   8.404
54356SOL     OW64900   8.265   3.178   0.025
54356SOL    HW164901   8.309   3.128  14.835
54356SOL    HW264902   8.207   3.115   0.068
54357SOL     OW64903   5.980   7.670   5.489
54357SOL    HW164904   5.957   7.656   5.397
54357SOL    HW264905   5.915   7.620   5.538
54358SOL     OW64906   1.076  12.634   6.900
54358SOL    HW164907   1.127  12.601   6.974
54358SOL    HW264908   1.110  12.722   6.885
54359SOL     OW64909   4.527  11.276  11.356
54359SOL    HW164910   4.602  11.223  11.328
54359SOL    HW264911   4.538  11.359  11.310
54360SOL     OW64912   2.044  14.296  12.898
54360SOL    HW164913   2.100  14.312  12.974
54360SOL    HW264914   2.084  14.221  12.854
54361SOL     OW64915   7.476  13.636   6.083
54361SOL    HW164916   7.389  13.668   6.106
54361SOL    HW264917   7.531  13.658   6.158
54362SOL     OW64918   5.737   0.248   2.143
54362SOL    HW164919   5.730   0.276   2.052
54362SOL    HW264920   5.744   0.153   2.139
54363SOL     OW64921   0.464   9.412   0.126
54363SOL    HW164922   0.472   9.506   0.144
54363SOL    HW264923   0.450   9.406   0.032
54364SOL     OW64924   2.483   7.460   7.211
54364SOL    HW164925   2.463   7.375   7.251
54364SOL    HW264926   2.490   7.520   7.285
54365SOL     OW64927   5.499   8.874  12.897
54365SOL    HW164928   5.535   8.963  12.904
54365SOL    HW264929   5.464   8.870  12.808
54366SOL     OW64930  11.193  13.912   2.979
54366SOL    HW164931  11.173  13.893   2.887
54366SOL    HW264932  11.154  13.839   3.027
54367SOL     OW64933  10.002  14.103   9.702
54367SOL    HW164934   9.907  14.110   9.690
54367SOL    HW264935  10.038  14.104   9.613
54368SOL     OW64936   5.604   6.656   3.860
54368SOL    HW164937   5.538   6.593   3.889
54368SOL    HW264938   5.684   6.630   3.905
54369SOL     OW64939   7.590   1.213  12.714
54369SOL    HW164940   7.568   1.120  12.709
54369SOL    HW264941   7.510   1.259  12.687
54370SOL     OW64942   6.155   9.489   3.545
54370SOL    HW164943   6.161   9.465   3.452
54370SOL    HW264944   6.075   9.445   3.575
54371SOL     OW64945   4.775   6.961   5.912
54371SOL    HW164946   4.791   7.003   5.828
54371SOL    HW264947   4.843   6.997   5.970
54372SOL     OW64948   9.380   6.595   9.683
54372SOL    HW164949   9.290   6.628   9.689
54372SOL    HW264950   9.411   6.625   9.598
54373SOL     OW64951  12.806   1.810   3.839
54373SOL    HW164952  12.802   1.905   3.854
54373SOL    HW264953  12.879   1.781   3.895
54374SOL     OW64954   7.440  11.093   5.232
54374SOL    HW164955   7.345  11.084   5.231
54374SOL    HW264956   7.459  11.150   5.306
54375SOL     OW64957   3.574  10.740   8.872
54375SOL    HW164958   3.545  10.831   8.880
54375SOL    HW264959   3.594  10.730   8.779
54376SOL     OW64960   4.864  13.699   5.070
54376SOL    HW164961   4.912  13.679   4.990
54376SOL    HW264962   4.879  13.792   5.085
54377SOL     OW64963   6.622  12.792  10.198
54377SOL    HW164964   6.656  12.874  10.234
54377SOL    HW264965   6.613  12.808  10.104
54378SOL     OW64966   4.886  13.535   9.848
54378SOL    HW164967   4.812  13.483   9.881
54378SOL    HW264968   4.916  13.584   9.925
54379SOL     OW64969  14.146   3.491   8.678
54379SOL    HW164970  14.132   3.493   8.772
54379SOL    HW264971  14.142   3.398   8.654
54380SOL     OW64972   6.594   2.431   3.461
54380SOL    HW164973   6.664   2.390   3.409
54380SOL    HW264974   6.550   2.489   3.399
54381SOL     OW64975   3.741   3.194   5.583
54381SOL    HW164976   3.751   3.179   5.490
54381SOL    HW264977   3.800   3.131   5.625
54382SOL     OW64978   4.069   8.851   5.551
54382SOL    HW164979   4.149   8.866   5.500
54382SOL    HW264980   4.013   8.800   5.492
54383SOL     OW64981   7.774   3.035   2.789
54383SOL    HW164982   7.711   3.007   2.855
54383SOL    HW264983   7.820   3.109   2.830
54384SOL     OW64984   4.380   6.284  10.295
54384SOL    HW164985   4.438   6.352  10.330
54384SOL    HW264986   4.333   6.327  10.224
54385SOL     OW64987   5.905   2.971   4.235
54385SOL    HW164988   5.918   3.036   4.165
54385SOL    HW264989   5.969   2.994   4.302
54386SOL     OW64990   0.035   2.226   8.251
54386SOL    HW164991  14.855   2.157   8.283
54386SOL    HW264992  14.871   2.308   8.274
54387SOL     OW64993   7.491   8.238   9.122
54387SOL    HW164994   7.395   8.244   9.123
54387SOL    HW264995   7.515   8.236   9.215
54388SOL     OW64996   0.608   5.693   9.599
54388SOL    HW164997   0.566   5.685   9.514
54388SOL    HW264998   0.564   5.768   9.640
54389SOL     OW64999  10.975  14.592  11.819
54389SOL    HW165000  10.882  14.570  11.824
54389SOL    HW265001  11.014  14.520  11.770
54390SOL     OW65002   3.083  13.038   1.789
54390SOL    HW165003   3.124  13.027   1.875
54390SOL    HW265004   3.093  12.953   1.746
54391SOL     OW65005   4.595   8.871   9.449
54391SOL    HW165006   4.517   8.862   9.393
54391SOL    HW265007   4.645   8.791   9.432
54392SOL     OW65008   9.531   5.689  12.682
54392SOL    HW165009   9.559   5.670  12.592
54392SOL    HW265010   9.510   5.783  12.681
54393SOL     OW65011  11.572  13.088  12.220
54393SOL    HW165012  11.584  13.160  12.281
54393SOL    HW265013  11.638  13.103  12.152
54394SOL     OW65014   5.308  12.882  12.803
54394SOL    HW165015   5.337  12.867  12.893
54394SOL    HW265016   5.229  12.828  12.794
54395SOL     OW65017   9.437   2.205   3.475
54395SOL    HW165018   9.484   2.283   3.504
54395SOL    HW265019   9.345   2.231   3.475
54396SOL     OW65020  11.120   0.163   8.828
54396SOL    HW165021  11.153   0.233   8.884
54396SOL    HW265022  11.028   0.153   8.853
54397SOL     OW65023   9.181   2.920   1.232
54397SOL    HW165024   9.098   2.949   1.193
54397SOL    HW265025   9.205   2.843   1.181
54398SOL     OW65026   8.331   3.993  10.015
54398SOL    HW165027   8.319   4.081   9.981
54398SOL    HW265028   8.270   3.939   9.965
54399SOL     OW65029   3.725   9.957   7.104
54399SOL    HW165030   3.658   9.987   7.165
54399SOL    HW265031   3.808   9.983   7.144
54400SOL     OW65032   7.389   2.899  11.311
54400SOL    HW165033   7.453   2.925  11.378
54400SOL    HW265034   7.395   2.804  11.308
54401SOL     OW65035   1.043   3.531   2.138
54401SOL    HW165036   1.049   3.571   2.052
54401SOL    HW265037   1.061   3.438   2.123
54402SOL     OW65038   5.506   6.197  11.092
54402SOL    HW165039   5.590   6.156  11.070
54402SOL    HW265040   5.528   6.269  11.150
54403SOL     OW65041   0.032   9.087   3.587
54403SOL    HW165042   0.009   8.994   3.593
54403SOL    HW265043   0.127   9.088   3.584
54404SOL     OW65044  11.488   5.025   7.594
54404SOL    HW165045  11.481   5.111   7.635
54404SOL    HW265046  11.480   4.963   7.667
54405SOL     OW65047  13.147   2.773   2.986
54405SOL    HW165048  13.240   2.791   3.004
54405SOL    HW265049  13.146   2.741   2.896
54406SOL     OW65050   7.990   7.796   2.682
54406SOL    HW165051   7.901   7.766   2.699
54406SOL    HW265052   7.980   7.885   2.650
54407SOL     OW65053   8.537   9.982   4.807
54407SOL    HW165054   8.501  10.001   4.894
54407SOL    HW265055   8.603  10.050   4.792
54408SOL     OW65056  12.244  13.954   8.056
54408SOL    HW165057  12.149  13.953   8.060
54408SOL    HW265058  12.270  13.875   8.104
54409SOL     OW65059   4.177   2.274  10.646
54409SOL    HW165060   4.101   2.216  10.632
54409SOL    HW265061   4.215   2.243  10.728
54410SOL     OW65062  14.058   2.556   5.942
54410SOL    HW165063  14.139   2.508   5.927
54410SOL    HW265064  14.087   2.640   5.980
54411SOL     OW65065   3.283   7.764   5.090
54411SOL    HW165066   3.352   7.708   5.055
54411SOL    HW265067   3.205   7.740   5.040
54412SOL     OW65068   9.639   7.661   9.305
54412SOL    HW165069   9.720   7.653   9.254
54412SOL    HW265070   9.658   7.726   9.372
54413SOL     OW65071   0.304  11.830  12.726
54413SOL    HW165072   0.392  11.819  12.692
54413SOL    HW265073   0.263  11.744  12.716
54414SOL     OW65074   7.817  14.592  11.974
54414SOL    HW165075   7.838  14.523  11.911
54414SOL    HW265076   7.749  14.553  12.029
54415SOL     OW65077   0.150   2.948  10.444
54415SOL    HW165078   0.127   2.960  10.536
54415SOL    HW265079   0.066   2.949  10.398
54416SOL     OW65080  13.368   3.228  11.884
54416SOL    HW165081  13.424   3.288  11.932
54416SOL    HW265082  13.281   3.267  11.889
54417SOL     OW65083   9.081   3.929   3.366
54417SOL    HW165084   9.014   3.969   3.421
54417SOL    HW265085   9.157   3.987   3.376
54418SOL     OW65086  11.765   0.405   1.517
54418SOL    HW165087  11.754   0.467   1.589
54418SOL    HW265088  11.780   0.321   1.559
54419SOL     OW65089   6.130  10.796   6.190
54419SOL    HW165090   6.157  10.725   6.132
54419SOL    HW265091   6.187  10.788   6.266
54420SOL     OW65092   6.810  11.251   2.734
54420SOL    HW165093   6.875  11.320   2.722
54420SOL    HW265094   6.861  11.171   2.746
54421SOL     OW65095   1.219   1.448   9.373
54421SOL    HW165096   1.141   1.500   9.390
54421SOL    HW265097   1.189   1.378   9.314
54422SOL     OW65098   0.983   6.093   8.487
54422SOL    HW165099   0.897   6.075   8.450
54422SOL    HW265100   0.985   6.188   8.498
54423SOL     OW65101  10.290   6.295  10.156
54423SOL    HW165102  10.255   6.384  10.156
54423SOL    HW265103  10.341   6.290  10.075
54424SOL     OW65104   8.652  10.911   8.068
54424SOL    HW165105   8.630  10.920   8.160
54424SOL    HW265106   8.725  10.972   8.055
54425SOL     OW65107  12.762   0.967   2.347
54425SOL    HW165108  12.775   1.062   2.341
54425SOL    HW265109  12.807   0.932   2.270
54426SOL     OW65110   0.790   6.772   7.145
54426SOL    HW165111   0.857   6.769   7.213
54426SOL    HW265112   0.807   6.695   7.091
54427SOL     OW65113  11.071   3.041   3.101
54427SOL    HW165114  11.030   3.080   3.024
54427SOL    HW265115  11.165   3.048   3.085
54428SOL     OW65116   2.700  12.475   6.778
54428SOL    HW165117   2.612  12.457   6.746
54428SOL    HW265118   2.690  12.481   6.873
54429SOL     OW65119  12.199   9.770   3.292
54429SOL    HW165120  12.195   9.783   3.387
54429SOL    HW265121  12.289   9.790   3.269
54430SOL     OW65122   0.833  11.719  10.937
54430SOL    HW165123   0.842  11.624  10.944
54430SOL    HW265124   0.914  11.753  10.973
54431SOL     OW65125  13.133  12.672   3.008
54431SOL    HW165126  13.191  12.686   2.932
54431SOL    HW265127  13.114  12.761   3.039
54432SOL     OW65128  13.499   2.848   8.732
54432SOL    HW165129  13.446   2.788   8.679
54432SOL    HW265130  13.436   2.912   8.766
54433SOL     OW65131  11.644   0.909  10.071
54433SOL    HW165132  11.640   0.863   9.987
54433SOL    HW265133  11.683   0.994  10.050
54434SOL     OW65134   0.986  13.279   6.112
54434SOL    HW165135   0.974  13.212   6.180
54434SOL    HW265136   1.065  13.252   6.065
54435SOL     OW65137  14.671  13.092  12.064
54435SOL    HW165138  14.595  13.142  12.036
54435SOL    HW265139  14.714  13.147  12.130
54436SOL     OW65140   6.492   4.997   0.687
54436SOL    HW165141   6.454   5.084   0.678
54436SOL    HW265142   6.576   5.002   0.640
54437SOL     OW65143   7.675  12.747  10.289
54437SOL    HW165144   7.594  12.788  10.321
54437SOL    HW265145   7.645  12.675  10.234
54438SOL     OW65146   5.546  12.566  10.221
54438SOL    HW165147   5.557  12.495  10.158
54438SOL    HW265148   5.522  12.642  10.167
54439SOL     OW65149   6.764   8.432  12.414
54439SOL    HW165150   6.743   8.437  12.507
54439SOL    HW265151   6.694   8.479  12.369
54440SOL     OW65152   0.065   6.975   7.367
54440SOL    HW165153   0.051   6.964   7.461
54440SOL    HW265154   0.009   6.909   7.327
54441SOL     OW65155  10.434   7.064  12.498
54441SOL    HW165156  10.460   6.975  12.473
54441SOL    HW265157  10.361   7.051  12.558
54442SOL     OW65158   9.261  12.960   6.148
54442SOL    HW165159   9.249  13.054   6.133
54442SOL    HW265160   9.174  12.922   6.133
54443SOL     OW65161   4.086   8.896   4.296
54443SOL    HW165162   4.156   8.836   4.322
54443SOL    HW265163   4.131   8.963   4.244
54444SOL     OW65164   9.808   1.222   2.677
54444SOL    HW165165   9.818   1.313   2.705
54444SOL    HW265166   9.889   1.201   2.631
54445SOL     OW65167  11.284   4.059   0.115
54445SOL    HW165168  11.369   4.017   0.109
54445SOL    HW265169  11.258   4.047   0.207
54446SOL     OW65170  13.524  12.800  14.101
54446SOL    HW165171  13.482  12.715  14.109
54446SOL    HW265172  13.529  12.833  14.191
54447SOL     OW65173   0.979  14.501   5.938
54447SOL    HW165174   0.922  14.441   5.984
54447SOL    HW265175   0.922  14.544   5.874
54448SOL     OW65176   3.045   4.668   2.814
54448SOL    HW165177   3.052   4.681   2.719
54448SOL    HW265178   2.952   4.649   2.829
54449SOL     OW65179   3.663  12.901   9.385
54449SOL    HW165180   3.625  12.951   9.457
54449SOL    HW265181   3.746  12.944   9.367
54450SOL     OW65182   8.490   9.210   3.075
54450SOL    HW165183   8.478   9.280   3.011
54450SOL    HW265184   8.506   9.132   3.022
54451SOL     OW65185   0.832   8.924   0.573
54451SOL    HW165186   0.860   8.957   0.659
54451SOL    HW265187   0.914   8.905   0.528
54452SOL     OW65188   6.689   1.048   3.100
54452SOL    HW165189   6.780   1.077   3.096
54452SOL    HW265190   6.687   0.983   3.170
54453SOL     OW65191   2.815   2.797   4.524
54453SOL    HW165192   2.864   2.770   4.602
54453SOL    HW265193   2.804   2.716   4.474
54454SOL     OW65194   5.545  14.653   2.236
54454SOL    HW165195   5.515  14.724   2.292
54454SOL    HW265196   5.595  14.596   2.294
54455SOL     OW65197   3.104   8.960  12.105
54455SOL    HW165198   3.175   8.970  12.169
54455SOL    HW265199   3.024   8.980  12.155
54456SOL     OW65200   7.532  13.205   7.341
54456SOL    HW165201   7.504  13.293   7.316
54456SOL    HW265202   7.597  13.181   7.275
54457SOL     OW65203  12.382   0.312   0.209
54457SOL    HW165204  12.374   0.262   0.290
54457SOL    HW265205  12.474   0.339   0.207
54458SOL     OW65206   2.937   9.544  13.848
54458SOL    HW165207   2.933   9.551  13.753
54458SOL    HW265208   2.958   9.451  13.864
54459SOL     OW65209  10.021  14.342   8.160
54459SOL    HW165210   9.931  14.319   8.182
54459SOL    HW265211  10.013  14.408   8.092
54460SOL     OW65212  11.998  13.867   9.123
54460SOL    HW165213  11.949  13.877   9.205
54460SOL    HW265214  11.931  13.870   9.055
54461SOL     OW65215  14.418   0.287   7.953
54461SOL    HW165216  14.466   0.256   7.876
54461SOL    HW265217  14.469   0.256   8.027
54462SOL     OW65218   9.373   1.934   6.372
54462SOL    HW165219   9.290   1.910   6.330
54462SOL    HW265220   9.365   1.899   6.461
54463SOL     OW65221  12.043   3.874  13.034
54463SOL    HW165222  12.021   3.813  13.105
54463SOL    HW265223  12.056   3.818  12.957
54464SOL     OW65224   5.151   2.290   8.681
54464SOL    HW165225   5.087   2.224   8.653
54464SOL    HW265226   5.230   2.240   8.702
54465SOL     OW65227   5.232   5.013   5.264
54465SOL    HW165228   5.273   4.929   5.286
54465SOL    HW265229   5.218   5.055   5.349
54466SOL     OW65230  14.526  10.105  10.732
54466SOL    HW165231  14.524  10.148  10.817
54466SOL    HW265232  14.433  10.089  10.712
54467SOL     OW65233   9.592   7.296   8.794
54467SOL    HW165234   9.673   7.318   8.747
54467SOL    HW265235   9.526   7.355   8.756
54468SOL     OW65236   6.745   2.190   5.613
54468SOL    HW165237   6.769   2.097   5.618
54468SOL    HW265238   6.776   2.217   5.527
54469SOL     OW65239  10.022   7.724   7.115
54469SOL    HW165240  10.089   7.791   7.130
54469SOL    HW265241   9.939   7.769   7.128
54470SOL     OW65242  14.687  10.743   6.259
54470SOL    HW165243  14.780  10.720   6.257
54470SOL    HW265244  14.675  10.802   6.185
54471SOL     OW65245  10.066   3.628   8.478
54471SOL    HW165246  10.160   3.612   8.489
54471SOL    HW265247  10.034   3.552   8.430
54472SOL     OW65248  13.954  14.269  14.851
54472SOL    HW165249  14.030  14.256   0.030
54472SOL    HW265250  13.883  14.294   0.030
54473SOL     OW65251   2.868   4.741   4.377
54473SOL    HW165252   2.899   4.823   4.340
54473SOL    HW265253   2.806   4.707   4.312
54474SOL     OW65254   2.848   1.683  11.032
54474SOL    HW165255   2.832   1.594  11.063
54474SOL    HW265256   2.761   1.717  11.012
54475SOL     OW65257  13.857  11.207   6.709
54475SOL    HW165258  13.874  11.286   6.761
54475SOL    HW265259  13.838  11.139   6.774
54476SOL     OW65260   6.822   9.797  11.834
54476SOL    HW165261   6.798   9.871  11.891
54476SOL    HW265262   6.917   9.793  11.838
54477SOL     OW65263  13.877  13.757  13.119
54477SOL    HW165264  13.953  13.728  13.169
54477SOL    HW265265  13.896  13.848  13.096
54478SOL     OW65266   8.322   2.943   2.171
54478SOL    HW165267   8.241   2.993   2.185
54478SOL    HW265268   8.388   2.991   2.220
54479SOL     OW65269   6.053   3.656   8.499
54479SOL    HW165270   5.964   3.690   8.492
54479SOL    HW265271   6.045   3.563   8.477
54480SOL     OW65272   9.170  14.326  14.155
54480SOL    HW165273   9.154  14.240  14.192
54480SOL    HW265274   9.117  14.329  14.075
54481SOL     OW65275   3.339  10.291  10.139
54481SOL    HW165276   3.399  10.348  10.091
54481SOL    HW265277   3.395  10.246  10.203
54482SOL     OW65278  13.487   4.872   0.956
54482SOL    HW165279  13.413   4.831   1.001
54482SOL    HW265280  13.552   4.803   0.948
54483SOL     OW65281  12.849   3.362  10.805
54483SOL    HW165282  12.891   3.296  10.860
54483SOL    HW265283  12.891   3.444  10.829
54484SOL     OW65284  10.824  10.767   7.516
54484SOL    HW165285  10.767  10.729   7.449
54484SOL    HW265286  10.764  10.814   7.574
54485SOL     OW65287  11.778   5.155   3.013
54485SOL    HW165288  11.738   5.226   3.063
54485SOL    HW265289  11.752   5.172   2.922
54486SOL     OW65290   2.290   6.956   9.470
54486SOL    HW165291   2.326   7.028   9.419
54486SOL    HW265292   2.302   6.982   9.561
54487SOL     OW65293  10.947   9.500  10.527
54487SOL    HW165294  10.855   9.523  10.517
54487SOL    HW265295  10.948   9.431  10.594
54488SOL     OW65296  14.175   9.098  11.862
54488SOL    HW165297  14.172   9.080  11.768
54488SOL    HW265298  14.263   9.133  11.878
54489SOL     OW65299  12.165   1.394   2.077
54489SOL    HW165300  12.159   1.490   2.085
54489SOL    HW265301  12.137   1.376   1.988
54490SOL     OW65302   1.478   7.486   6.247
54490SOL    HW165303   1.434   7.520   6.324
54490SOL    HW265304   1.408   7.476   6.182
54491SOL     OW65305   8.314   5.624  13.041
54491SOL    HW165306   8.386   5.660  13.093
54491SOL    HW265307   8.243   5.610  13.103
54492SOL     OW65308  14.661   5.504  12.127
54492SOL    HW165309  14.663   5.546  12.213
54492SOL    HW265310  14.740   5.536  12.082
54493SOL     OW65311   9.795  12.884   8.546
54493SOL    HW165312   9.734  12.826   8.501
54493SOL    HW265313   9.851  12.919   8.476
54494SOL     OW65314   8.446   6.850   7.141
54494SOL    HW165315   8.418   6.889   7.058
54494SOL    HW265316   8.488   6.768   7.116
54495SOL     OW65317   4.314  14.503   7.455
54495SOL    HW165318   4.405  14.485   7.477
54495SOL    HW265319   4.317  14.550   7.372
54496SOL     OW65320   1.812   9.673   3.960
54496SOL    HW165321   1.819   9.593   4.013
54496SOL    HW265322   1.902   9.695   3.939
54497SOL     OW65323   6.877  12.963  12.021
54497SOL    HW165324   6.801  12.965  11.963
54497SOL    HW265325   6.942  13.017  11.977
54498SOL     OW65326  14.563   2.807   5.962
54498SOL    HW165327  14.505   2.868   6.008
54498SOL    HW265328  14.641   2.802   6.017
54499SOL     OW65329   9.009   7.243   3.720
54499SOL    HW165330   9.100   7.245   3.691
54499SOL    HW265331   8.997   7.327   3.766
54500SOL     OW65332   7.692   5.537   4.307
54500SOL    HW165333   7.729   5.449   4.313
54500SOL    HW265334   7.599   5.526   4.326
54501SOL     OW65335   1.906   9.409  12.610
54501SOL    HW165336   1.895   9.412  12.515
54501SOL    HW265337   1.895   9.316  12.632
54502SOL     OW65338  11.384   8.899   3.404
54502SOL    HW165339  11.465   8.939   3.371
54502SOL    HW265340  11.329   8.974   3.428
54503SOL     OW65341  11.456   8.534   8.288
54503SOL    HW165342  11.516   8.599   8.251
54503SOL    HW265343  11.464   8.544   8.382
54504SOL     OW65344   2.167   2.078   3.983
54504SOL    HW165345   2.216   2.151   3.946
54504SOL    HW265346   2.081   2.083   3.943
54505SOL     OW65347  13.669   0.165  11.872
54505SOL    HW165348  13.603   0.125  11.815
54505SOL    HW265349  13.626   0.242  11.909
54506SOL     OW65350   4.786   5.402  13.017
54506SOL    HW165351   4.751   5.338  13.078
54506SOL    HW265352   4.717   5.411  12.950
54507SOL     OW65353  13.126   8.467   2.307
54507SOL    HW165354  13.185   8.418   2.250
54507SOL    HW265355  13.176   8.480   2.387
54508SOL     OW65356   6.346   9.766  10.588
54508SOL    HW165357   6.396   9.731  10.661
54508SOL    HW265358   6.356   9.702  10.518
54509SOL     OW65359   9.108   1.679   0.563
54509SOL    HW165360   9.132   1.674   0.655
54509SOL    HW265361   9.029   1.626   0.555
54510SOL     OW65362   0.184   2.863   8.128
54510SOL    HW165363   0.210   2.889   8.216
54510SOL    HW265364   0.193   2.768   8.127
54511SOL     OW65365  13.538   4.222   7.932
54511SOL    HW165366  13.471   4.160   7.903
54511SOL    HW265367  13.587   4.174   7.999
54512SOL     OW65368   4.628  12.385  12.739
54512SOL    HW165369   4.710  12.435  12.740
54512SOL    HW265370   4.654  12.297  12.712
54513SOL     OW65371   8.597   6.926   0.665
54513SOL    HW165372   8.584   7.003   0.720
54513SOL    HW265373   8.598   6.853   0.728
54514SOL     OW65374   7.330   5.145   7.841
54514SOL    HW165375   7.260   5.080   7.835
54514SOL    HW265376   7.401   5.100   7.886
54515SOL     OW65377   7.304   3.500   2.684
54515SOL    HW165378   7.367   3.514   2.613
54515SOL    HW265379   7.298   3.404   2.691
54516SOL     OW65380   5.353   9.252   8.786
54516SOL    HW165381   5.318   9.324   8.734
54516SOL    HW265382   5.316   9.265   8.874
54517SOL     OW65383   0.772  12.601   4.347
54517SOL    HW165384   0.811  12.515   4.334
54517SOL    HW265385   0.699  12.604   4.285
54518SOL     OW65386   4.708  12.786   9.880
54518SOL    HW165387   4.673  12.827   9.959
54518SOL    HW265388   4.803  12.791   9.891
54519SOL     OW65389   3.861   5.657   0.275
54519SOL    HW165390   3.910   5.671   0.194
54519SOL    HW265391   3.827   5.568   0.267
54520SOL     OW65392  12.674   2.964   7.517
54520SOL    HW165393  12.657   3.058   7.505
54520SOL    HW265394  12.618   2.922   7.452
54521SOL     OW65395   9.366  14.654  11.718
54521SOL    HW165396   9.445  14.625  11.672
54521SOL    HW265397   9.338  14.732  11.672
54522SOL     OW65398   0.968  12.324   7.135
54522SOL    HW165399   0.898  12.303   7.197
54522SOL    HW265400   0.927  12.318   7.049
54523SOL     OW65401   5.733   8.145   1.549
54523SOL    HW165402   5.778   8.128   1.632
54523SOL    HW265403   5.706   8.237   1.555
54524SOL     OW65404   9.419  14.210   0.178
54524SOL    HW165405   9.343  14.155   0.158
54524SOL    HW265406   9.383  14.298   0.184
54525SOL     OW65407   2.103   9.046   7.816
54525SOL    HW165408   2.033   9.104   7.847
54525SOL    HW265409   2.183   9.083   7.854
54526SOL     OW65410   7.733   3.887   2.711
54526SOL    HW165411   7.801   3.914   2.772
54526SOL    HW265412   7.651   3.917   2.752
54527SOL     OW65413   7.831   2.751   0.490
54527SOL    HW165414   7.751   2.714   0.453
54527SOL    HW265415   7.888   2.675   0.503
54528SOL     OW65416   8.139   9.075   5.060
54528SOL    HW165417   8.067   9.084   4.997
54528SOL    HW265418   8.181   9.160   5.061
54529SOL     OW65419  12.994   0.908   5.897
54529SOL    HW165420  13.053   0.851   5.848
54529SOL    HW265421  12.972   0.858   5.976
54530SOL     OW65422   4.983  12.312   0.581
54530SOL    HW165423   4.998  12.218   0.583
54530SOL    HW265424   5.004  12.343   0.669
54531SOL     OW65425   5.826  11.020   0.492
54531SOL    HW165426   5.865  11.034   0.406
54531SOL    HW265427   5.884  11.065   0.553
54532SOL     OW65428   3.992  11.979   6.591
54532SOL    HW165429   3.927  11.910   6.607
54532SOL    HW265430   4.011  12.014   6.678
54533SOL     OW65431   4.066   0.024   1.435
54533SOL    HW165432   4.004   0.097   1.438
54533SOL    HW265433   4.072  14.874   1.526
54534SOL     OW65434   2.161   0.042   2.971
54534SOL    HW165435   2.239   0.082   3.009
54534SOL    HW265436   2.123  14.869   3.042
54535SOL     OW65437  12.888  12.613   0.672
54535SOL    HW165438  12.836  12.687   0.704
54535SOL    HW265439  12.915  12.639   0.584
54536SOL     OW65440  12.130   5.167   0.845
54536SOL    HW165441  12.182   5.237   0.806
54536SOL    HW265442  12.093   5.120   0.770
54537SOL     OW65443   0.946  11.945  13.356
54537SOL    HW165444   0.941  12.015  13.291
54537SOL    HW265445   0.952  11.990  13.440
54538SOL     OW65446   0.967  14.450   0.923
54538SOL    HW165447   1.002  14.403   0.847
54538SOL    HW265448   0.884  14.406   0.941
54539SOL     OW65449   0.191   9.898   7.168
54539SOL    HW165450   0.189   9.834   7.239
54539SOL    HW265451   0.111   9.949   7.179
54540SOL     OW65452   0.316   5.765  13.286
54540SOL    HW165453   0.287   5.839  13.233
54540SOL    HW265454   0.255   5.694  13.263
54541SOL     OW65455   1.933   8.818  10.378
54541SOL    HW165456   1.919   8.870  10.456
54541SOL    HW265457   2.004   8.862  10.331
54542SOL     OW65458   3.726  10.335   9.473
54542SOL    HW165459   3.630  10.333   9.481
54542SOL    HW265460   3.742  10.332   9.378
54543SOL     OW65461   1.962   6.712  14.220
54543SOL    HW165462   2.027   6.757  14.167
54543SOL    HW265463   1.987   6.731  14.311
54544SOL     OW65464   6.578   1.798  12.380
54544SOL    HW165465   6.646   1.745  12.339
54544SOL    HW265466   6.618   1.831  12.460
54545SOL     OW65467  14.401   0.470   0.949
54545SOL    HW165468  14.349   0.550   0.945
54545SOL    HW265469  14.474   0.491   1.008
54546SOL     OW65470   4.889   1.893  13.965
54546SOL    HW165471   4.947   1.818  13.972
54546SOL    HW265472   4.926   1.945  13.894
54547SOL     OW65473   5.255   4.563  10.235
54547SOL    HW165474   5.240   4.474  10.203
54547SOL    HW265475   5.168   4.603  10.236
54548SOL     OW65476   8.653   6.976   0.129
54548SOL    HW165477   8.685   6.888   0.108
54548SOL    HW265478   8.730   7.023   0.160
54549SOL     OW65479   3.053   4.713  14.254
54549SOL    HW165480   3.135   4.684  14.293
54549SOL    HW265481   3.066   4.703  14.160
54550SOL     OW65482   5.480  13.071   8.887
54550SOL    HW165483   5.478  13.156   8.842
54550SOL    HW265484   5.501  13.008   8.818
54551SOL     OW65485   2.368   2.556  13.499
54551SOL    HW165486   2.436   2.617  13.473
54551SOL    HW265487   2.286   2.595  13.469
54552SOL     OW65488  11.859   0.666   8.763
54552SOL    HW165489  11.771   0.701   8.772
54552SOL    HW265490  11.873   0.614   8.842
54553SOL     OW65491  11.204  11.805   3.356
54553SOL    HW165492  11.172  11.716   3.367
54553SOL    HW265493  11.288  11.795   3.312
54554SOL     OW65494   4.121   5.971  12.254
54554SOL    HW165495   4.110   5.960  12.160
54554SOL    HW265496   4.041   6.018  12.281
54555SOL     OW65497   1.246  14.161   3.192
54555SOL    HW165498   1.265  14.243   3.237
54555SOL    HW265499   1.296  14.166   3.111
54556SOL     OW65500  10.724  14.456   7.382
54556SOL    HW165501  10.754  14.417   7.300
54556SOL    HW265502  10.701  14.381   7.437
54557SOL     OW65503  12.512  12.650  14.665
54557SOL    HW165504  12.477  12.565  14.693
54557SOL    HW265505  12.538  12.636  14.574
54558SOL     OW65506  13.243   7.091   8.070
54558SOL    HW165507  13.337   7.097   8.085
54558SOL    HW265508  13.228   7.140   7.989
54559SOL     OW65509   5.882  14.221   7.654
54559SOL    HW165510   5.853  14.135   7.684
54559SOL    HW265511   5.975  14.223   7.675
54560SOL     OW65512  10.389   5.628  11.316
54560SOL    HW165513  10.436   5.688  11.258
54560SOL    HW265514  10.384   5.546  11.265
54561SOL     OW65515   3.248   1.095  13.845
54561SOL    HW165516   3.215   1.180  13.816
54561SOL    HW265517   3.279   1.110  13.935
54562SOL     OW65518   7.282   0.951   1.756
54562SOL    HW165519   7.328   1.010   1.695
54562SOL    HW265520   7.189   0.969   1.741
54563SOL     OW65521   4.005  10.826   5.914
54563SOL    HW165522   4.027  10.746   5.867
54563SOL    HW265523   3.927  10.859   5.871
54564SOL     OW65524   2.917   6.676   3.193
54564SOL    HW165525   2.857   6.607   3.165
54564SOL    HW265526   2.874   6.717   3.269
54565SOL     OW65527  14.714   1.603   6.268
54565SOL    HW165528  14.729   1.528   6.211
54565SOL    HW265529  14.620   1.619   6.264
54566SOL     OW65530   6.067   1.709   4.856
54566SOL    HW165531   5.990   1.676   4.809
54566SOL    HW265532   6.121   1.750   4.787
54567SOL     OW65533   7.663   5.593   3.932
54567SOL    HW165534   7.624   5.605   3.845
54567SOL    HW265535   7.589   5.601   3.992
54568SOL     OW65536   5.998  13.670  10.024
54568SOL    HW165537   5.941  13.631   9.958
54568SOL    HW265538   6.071  13.707   9.973
54569SOL     OW65539   4.150   2.949   6.070
54569SOL    HW165540   4.232   2.922   6.030
54569SOL    HW265541   4.124   2.874   6.124
54570SOL     OW65542  11.566   3.964   4.878
54570SOL    HW165543  11.487   3.966   4.932
54570SOL    HW265544  11.565   4.047   4.831
54571SOL     OW65545  14.534   3.367  14.173
54571SOL    HW165546  14.565   3.298  14.232
54571SOL    HW265547  14.502   3.320  14.096
54572SOL     OW65548  13.594   9.233  13.029
54572SOL    HW165549  13.662   9.184  12.982
54572SOL    HW265550  13.558   9.292  12.964
54573SOL     OW65551   8.582  12.665   1.257
54573SOL    HW165552   8.630  12.616   1.324
54573SOL    HW265553   8.604  12.757   1.273
54574SOL     OW65554  10.655   3.976  13.118
54574SOL    HW165555  10.600   4.054  13.111
54574SOL    HW265556  10.663   3.961  13.212
54575SOL     OW65557   7.312   6.175   9.861
54575SOL    HW165558   7.385   6.120   9.831
54575SOL    HW265559   7.326   6.260   9.820
54576SOL     OW65560   8.706   0.084   8.344
54576SOL    HW165561   8.748   0.164   8.311
54576SOL    HW265562   8.695   0.029   8.266
54577SOL     OW65563   0.011   6.044   3.078
54577SOL    HW165564   0.055   6.124   3.050
54577SOL    HW265565  14.805   6.047   3.035
54578SOL     OW65566   4.176   9.552  12.687
54578SOL    HW165567   4.090   9.546  12.728
54578SOL    HW265568   4.236   9.513  12.751
54579SOL     OW65569  11.085   1.070  11.502
54579SOL    HW165570  11.119   1.098  11.587
54579SOL    HW265571  11.060   0.979  11.514
54580SOL     OW65572  13.164   1.006   6.697
54580SOL    HW165573  13.199   1.029   6.611
54580SOL    HW265574  13.084   1.058   6.705
54581SOL     OW65575   3.762   2.316   5.580
54581SOL    HW165576   3.774   2.221   5.581
54581SOL    HW265577   3.848   2.351   5.560
54582SOL     OW65578   2.026   9.690  10.287
54582SOL    HW165579   2.043   9.635  10.363
54582SOL    HW265580   1.932   9.710  10.292
54583SOL     OW65581   3.730   5.377  12.656
54583SOL    HW165582   3.813   5.424  12.665
54583SOL    HW265583   3.745   5.293  12.701
54584SOL     OW65584   2.060  13.912  11.829
54584SOL    HW165585   2.129  13.935  11.767
54584SOL    HW265586   2.106  13.899  11.912
54585SOL     OW65587  10.273   5.863   4.007
54585SOL    HW165588  10.206   5.795   4.015
54585SOL    HW265589  10.246   5.915   3.931
54586SOL     OW65590   4.042  10.944  12.442
54586SOL    HW165591   4.009  10.930  12.530
54586SOL    HW265592   3.985  11.012  12.405
54587SOL     OW65593   8.368  13.520   0.370
54587SOL    HW165594   8.374  13.560   0.457
54587SOL    HW265595   8.449  13.546   0.325
54588SOL     OW65596   3.804   5.762  11.560
54588SOL    HW165597   3.821   5.856  11.552
54588SOL    HW265598   3.716   5.757  11.596
54589SOL     OW65599   8.818   5.362  10.266
54589SOL    HW165600   8.904   5.392  10.296
54589SOL    HW265601   8.821   5.370  10.171
54590SOL     OW65602   3.942   7.224   6.485
54590SOL    HW165603   4.012   7.241   6.423
54590SOL    HW265604   3.960   7.136   6.519
54591SOL     OW65605  10.558   2.741  11.730
54591SOL    HW165606  10.550   2.800  11.655
54591SOL    HW265607  10.588   2.658  11.692
54592SOL     OW65608   7.303   0.408   5.009
54592SOL    HW165609   7.344   0.322   5.006
54592SOL    HW265610   7.290   0.425   5.102
54593SOL     OW65611   6.477   5.236  10.615
54593SOL    HW165612   6.520   5.229  10.530
54593SOL    HW265613   6.429   5.319  10.611
54594SOL     OW65614   8.446   8.180   2.006
54594SOL    HW165615   8.493   8.232   2.070
54594SOL    HW265616   8.383   8.129   2.057
54595SOL     OW65617  11.870   5.656  12.652
54595SOL    HW165618  11.850   5.749  12.664
54595SOL    HW265619  11.931   5.654  12.578
54596SOL     OW65620  12.720   0.656  10.339
54596SOL    HW165621  12.633   0.622  10.321
54596SOL    HW265622  12.731   0.646  10.434
54597SOL     OW65623  10.509  11.639   9.336
54597SOL    HW165624  10.441  11.661   9.273
54597SOL    HW265625  10.576  11.594   9.284
54598SOL     OW65626  12.194   3.524  10.939
54598SOL    HW165627  12.279   3.495  10.971
54598SOL    HW265628  12.141   3.536  11.017
54599SOL     OW65629   3.133  10.417  11.647
54599SOL    HW165630   3.163  10.389  11.561
54599SOL    HW265631   3.149  10.511  11.649
54600SOL     OW65632   6.148   3.802  12.818
54600SOL    HW165633   6.136   3.708  12.833
54600SOL    HW265634   6.224   3.825  12.870
54601SOL     OW65635   3.348   1.036  14.672
54601SOL    HW165636   3.436   1.067  14.693
54601SOL    HW265637   3.331   1.070  14.584
54602SOL     OW65638   4.349   8.174  13.862
54602SOL    HW165639   4.371   8.168  13.769
54602SOL    HW265640   4.365   8.266  13.884
54603SOL     OW65641   8.840   9.696   4.029
54603SOL    HW165642   8.879   9.609   4.019
54603SOL    HW265643   8.751   9.679   4.060
54604SOL     OW65644   5.035   1.243   4.428
54604SOL    HW165645   5.084   1.243   4.346
54604SOL    HW265646   5.026   1.150   4.451
54605SOL     OW65647   4.132   4.510   6.340
54605SOL    HW165648   4.093   4.562   6.410
54605SOL    HW265649   4.211   4.557   6.315
54606SOL     OW65650   7.773   1.957   0.632
54606SOL    HW165651   7.755   2.050   0.615
54606SOL    HW265652   7.777   1.917   0.545
54607SOL     OW65653  14.506   0.597   0.582
54607SOL    HW165654  14.486   0.505   0.560
54607SOL    HW265655  14.434   0.646   0.542
54608SOL     OW65656   2.980   4.789  11.521
54608SOL    HW165657   2.929   4.867  11.541
54608SOL    HW265658   3.044   4.818  11.456
54609SOL     OW65659   0.900   8.595   5.564
54609SOL    HW165660   0.932   8.659   5.500
54609SOL    HW265661   0.821   8.558   5.523
54610SOL     OW65662   0.699   4.440   9.124
54610SOL    HW165663   0.635   4.497   9.165
54610SOL    HW265664   0.689   4.356   9.169
54611SOL     OW65665  14.119   5.370   2.832
54611SOL    HW165666  14.084   5.282   2.844
54611SOL    HW265667  14.068   5.407   2.760
54612SOL     OW65668   5.005   2.735  12.603
54612SOL    HW165669   5.060   2.769  12.673
54612SOL    HW265670   5.043   2.650  12.581
54613SOL     OW65671   7.034   5.474   8.913
54613SOL    HW165672   6.979   5.402   8.881
54613SOL    HW265673   7.021   5.544   8.849
54614SOL     OW65674  10.364  10.695  10.215
54614SOL    HW165675  10.278  10.665  10.244
54614SOL    HW265676  10.426  10.648  10.270
54615SOL     OW65677   7.735   0.852   2.010
54615SOL    HW165678   7.690   0.796   2.073
54615SOL    HW265679   7.665   0.904   1.970
54616SOL     OW65680   0.120   1.915   4.157
54616SOL    HW165681   0.166   1.888   4.237
54616SOL    HW265682   0.042   1.859   4.155
54617SOL     OW65683  12.866   8.489   4.838
54617SOL    HW165684  12.878   8.532   4.922
54617SOL    HW265685  12.912   8.405   4.847
54618SOL     OW65686   2.177   5.331  10.069
54618SOL    HW165687   2.208   5.245  10.039
54618SOL    HW265688   2.083   5.328  10.053
54619SOL     OW65689  11.072   0.244  11.968
54619SOL    HW165690  11.156   0.283  11.945
54619SOL    HW265691  11.031   0.225  11.883
54620SOL     OW65692   8.462   8.067  13.235
54620SOL    HW165693   8.411   7.996  13.196
54620SOL    HW265694   8.414   8.146  13.211
54621SOL     OW65695  14.865   2.373   7.995
54621SOL    HW165696  14.799   2.311   7.965
54621SOL    HW265697  14.869   2.360   8.090
54622SOL     OW65698  13.811   2.221  12.950
54622SOL    HW165699  13.810   2.151  13.016
54622SOL    HW265700  13.793   2.301  13.000
54623SOL     OW65701  12.860   4.241  13.525
54623SOL    HW165702  12.926   4.230  13.593
54623SOL    HW265703  12.890   4.185  13.453
54624SOL     OW65704  13.992   3.753   1.927
54624SOL    HW165705  14.079   3.722   1.905
54624SOL    HW265706  13.999   3.849   1.923
54625SOL     OW65707   6.440   7.748   7.873
54625SOL    HW165708   6.443   7.801   7.953
54625SOL    HW265709   6.519   7.694   7.878
54626SOL     OW65710   1.086  13.589   3.290
54626SOL    HW165711   1.095  13.631   3.376
54626SOL    HW265712   1.140  13.644   3.232
54627SOL     OW65713   9.128   3.367  14.402
54627SOL    HW165714   9.151   3.405  14.317
54627SOL    HW265715   9.064   3.429  14.439
54628SOL     OW65716  10.177   5.781   8.727
54628SOL    HW165717  10.131   5.736   8.656
54628SOL    HW265718  10.127   5.862   8.740
54629SOL     OW65719   8.029   8.133   1.956
54629SOL    HW165720   8.064   8.212   1.913
54629SOL    HW265721   8.001   8.077   1.884
54630SOL     OW65722   4.832   8.944   3.696
54630SOL    HW165723   4.843   8.950   3.791
54630SOL    HW265724   4.901   8.883   3.668
54631SOL     OW65725  11.249   1.073  11.068
54631SOL    HW165726  11.203   1.086  11.151
54631SOL    HW265727  11.334   1.037  11.092
54632SOL     OW65728  13.625   3.154   6.550
54632SOL    HW165729  13.679   3.125   6.623
54632SOL    HW265730  13.674   3.128   6.472
54633SOL     OW65731   2.923   1.015   8.755
54633SOL    HW165732   2.991   0.953   8.781
54633SOL    HW265733   2.935   1.089   8.814
54634SOL     OW65734   8.494   5.346   6.722
54634SOL    HW165735   8.524   5.276   6.780
54634SOL    HW265736   8.516   5.315   6.634
54635SOL     OW65737   6.411   7.540   0.586
54635SOL    HW165738   6.491   7.533   0.639
54635SOL    HW265739   6.416   7.466   0.526
54636SOL     OW65740  10.770   9.412   6.290
54636SOL    HW165741  10.676   9.397   6.273
54636SOL    HW265742  10.813   9.379   6.211
54637SOL     OW65743  13.399   6.748   5.357
54637SOL    HW165744  13.363   6.825   5.401
54637SOL    HW265745  13.494   6.762   5.358
54638SOL     OW65746   9.265  11.112  14.002
54638SOL    HW165747   9.336  11.049  14.016
54638SOL    HW265748   9.188  11.059  13.982
54639SOL     OW65749  10.445   4.695  14.402
54639SOL    HW165750  10.539   4.690  14.386
54639SOL    HW265751  10.437   4.740  14.486
54640SOL     OW65752   9.911  14.432   8.524
54640SOL    HW165753   9.868  14.517   8.518
54640SOL    HW265754   9.887  14.399   8.610
54641SOL     OW65755   4.277   3.412   7.003
54641SOL    HW165756   4.254   3.380   7.090
54641SOL    HW265757   4.306   3.502   7.017
54642SOL     OW65758   0.620  12.903   2.978
54642SOL    HW165759   0.591  12.993   2.967
54642SOL    HW265760   0.691  12.909   3.042
54643SOL     OW65761   1.642   6.064   5.879
54643SOL    HW165762   1.655   6.143   5.826
54643SOL    HW265763   1.722   6.013   5.864
54644SOL     OW65764   8.512  13.952  12.884
54644SOL    HW165765   8.526  13.986  12.795
54644SOL    HW265766   8.434  13.897  12.876
54645SOL     OW65767  11.664   0.068   3.981
54645SOL    HW165768  11.580   0.043   3.943
54645SOL    HW265769  11.653   0.055   4.075
54646SOL     OW65770  10.338   6.563  10.266
54646SOL    HW165771  10.406   6.564  10.199
54646SOL    HW265772  10.289   6.643  10.252
54647SOL     OW65773  14.237   7.293   7.398
54647SOL    HW165774  14.165   7.293   7.334
54647SOL    HW265775  14.215   7.222   7.458
54648SOL     OW65776   9.836  11.558   7.591
54648SOL    HW165777   9.788  11.478   7.569
54648SOL    HW265778   9.790  11.594   7.666
54649SOL     OW65779   3.220   7.487   7.208
54649SOL    HW165780   3.267   7.546   7.151
54649SOL    HW265781   3.161   7.439   7.149
54650SOL     OW65782  13.061   5.427   7.220
54650SOL    HW165783  13.019   5.494   7.274
54650SOL    HW265784  13.140   5.469   7.187
54651SOL     OW65785   1.870   1.258   1.400
54651SOL    HW165786   1.907   1.346   1.407
54651SOL    HW265787   1.898   1.226   1.314
54652SOL     OW65788  12.527   6.573   7.716
54652SOL    HW165789  12.603   6.618   7.678
54652SOL    HW265790  12.548   6.480   7.708
54653SOL     OW65791   1.148   4.878  14.084
54653SOL    HW165792   1.172   4.871  13.991
54653SOL    HW265793   1.123   4.970  14.095
54654SOL     OW65794   8.838   7.136  11.183
54654SOL    HW165795   8.865   7.206  11.244
54654SOL    HW265796   8.747   7.157  11.162
54655SOL     OW65797   5.050   3.832   7.825
54655SOL    HW165798   5.105   3.796   7.895
54655SOL    HW265799   4.961   3.806   7.848
54656SOL     OW65800  10.301   2.172   1.659
54656SOL    HW165801  10.295   2.173   1.563
54656SOL    HW265802  10.293   2.264   1.684
54657SOL     OW65803  12.225   4.894  10.697
54657SOL    HW165804  12.137   4.899  10.661
54657SOL    HW265805  12.240   4.800  10.711
54658SOL     OW65806  10.980  14.301   6.953
54658SOL    HW165807  11.072  14.316   6.934
54658SOL    HW265808  10.973  14.310   7.048
54659SOL     OW65809  10.507   5.540   1.562
54659SOL    HW165810  10.547   5.461   1.598
54659SOL    HW265811  10.577   5.605   1.564
54660SOL     OW65812   3.143   6.310   2.190
54660SOL    HW165813   3.181   6.339   2.273
54660SOL    HW265814   3.096   6.387   2.157
54661SOL     OW65815  13.214   8.513   9.745
54661SOL    HW165816  13.182   8.426   9.770
54661SOL    HW265817  13.301   8.498   9.709
54662SOL     OW65818   5.057   9.154   7.384
54662SOL    HW165819   5.000   9.229   7.403
54662SOL    HW265820   5.131   9.165   7.444
54663SOL     OW65821  13.571   0.805   1.003
54663SOL    HW165822  13.620   0.855   1.068
54663SOL    HW265823  13.623   0.812   0.923
54664SOL     OW65824   4.381  12.233   6.725
54664SOL    HW165825   4.418  12.312   6.765
54664SOL    HW265826   4.296  12.222   6.766
54665SOL     OW65827  13.166  12.857   6.292
54665SOL    HW165828  13.073  12.854   6.314
54665SOL    HW265829  13.199  12.934   6.339
54666SOL     OW65830   1.107   0.402   4.968
54666SOL    HW165831   1.102   0.314   5.003
54666SOL    HW265832   1.189   0.437   5.001
54667SOL     OW65833   4.561   9.940   8.800
54667SOL    HW165834   4.551   9.983   8.714
54667SOL    HW265835   4.655   9.932   8.812
54668SOL     OW65836   9.594  12.243  11.386
54668SOL    HW165837   9.634  12.214  11.468
54668SOL    HW265838   9.669  12.262  11.328
54669SOL     OW65839   1.642   5.659  13.930
54669SOL    HW165840   1.573   5.620  13.876
54669SOL    HW265841   1.613   5.644  14.020
54670SOL     OW65842   3.953   5.497  14.762
54670SOL    HW165843   3.860   5.503  14.742
54670SOL    HW265844   3.966   5.407  14.792
54671SOL     OW65845   0.853   4.958   9.049
54671SOL    HW165846   0.804   5.040   9.055
54671SOL    HW265847   0.882   4.940   9.138
54672SOL     OW65848   2.362   5.113  14.686
54672SOL    HW165849   2.344   5.199  14.724
54672SOL    HW265850   2.433   5.078  14.740
54673SOL     OW65851   4.570   2.470   0.625
54673SOL    HW165852   4.612   2.428   0.700
54673SOL    HW265853   4.622   2.548   0.608
54674SOL     OW65854   2.948  10.495   1.539
54674SOL    HW165855   2.873  10.469   1.485
54674SOL    HW265856   2.960  10.588   1.520
54675SOL     OW65857   1.053   8.393   0.948
54675SOL    HW165858   1.103   8.438   1.016
54675SOL    HW265859   1.060   8.300   0.971
54676SOL     OW65860  13.153   1.031  12.097
54676SOL    HW165861  13.087   1.073  12.042
54676SOL    HW265862  13.225   1.010  12.038
54677SOL     OW65863  14.438  13.888   7.402
54677SOL    HW165864  14.501  13.883   7.474
54677SOL    HW265865  14.353  13.882   7.445
54678SOL     OW65866   8.629  14.664   7.858
54678SOL    HW165867   8.667  14.590   7.905
54678SOL    HW265868   8.572  14.624   7.793
54679SOL     OW65869   2.711  10.531   4.196
54679SOL    HW165870   2.658  10.496   4.268
54679SOL    HW265871   2.689  10.624   4.194
54680SOL     OW65872   3.529   5.887   8.086
54680SOL    HW165873   3.454   5.834   8.112
54680SOL    HW265874   3.541   5.949   8.158
54681SOL     OW65875  12.483   0.004  14.348
54681SOL    HW165876  12.534  14.812  14.387
54681SOL    HW265877  12.543   0.047  14.287
54682SOL     OW65878   1.397  11.317   8.584
54682SOL    HW165879   1.416  11.409   8.565
54682SOL    HW265880   1.306  11.317   8.614
54683SOL     OW65881   4.145   1.818   2.802
54683SOL    HW165882   4.164   1.899   2.754
54683SOL    HW265883   4.062   1.835   2.846
54684SOL     OW65884  13.619  14.551  11.588
54684SOL    HW165885  13.649  14.471  11.546
54684SOL    HW265886  13.531  14.530  11.619
54685SOL     OW65887  10.160   2.878  10.852
54685SOL    HW165888  10.178   2.844  10.940
54685SOL    HW265889  10.092   2.944  10.866
54686SOL     OW65890   6.715   6.989  14.772
54686SOL    HW165891   6.692   6.950  14.857
54686SOL    HW265892   6.662   7.068  14.767
54687SOL     OW65893   7.704   1.151   0.215
54687SOL    HW165894   7.657   1.233   0.202
54687SOL    HW265895   7.644   1.084   0.183
54688SOL     OW65896   9.575   2.987   9.557
54688SOL    HW165897   9.572   2.959   9.465
54688SOL    HW265898   9.667   2.979   9.581
54689SOL     OW65899   0.302  12.307  12.608
54689SOL    HW165900   0.307  12.402  12.615
54689SOL    HW265901   0.248  12.280  12.683
54690SOL     OW65902   6.661  10.422   2.088
54690SOL    HW165903   6.749  10.459   2.077
54690SOL    HW265904   6.671  10.329   2.069
54691SOL     OW65905   7.438   3.557   4.447
54691SOL    HW165906   7.386   3.622   4.494
54691SOL    HW265907   7.399   3.473   4.471
54692SOL     OW65908   9.955   4.263   3.100
54692SOL    HW165909   9.867   4.274   3.065
54692SOL    HW265910  10.008   4.328   3.054
54693SOL     OW65911  13.376   8.616   9.386
54693SOL    HW165912  13.433   8.554   9.342
54693SOL    HW265913  13.429   8.649   9.459
54694SOL     OW65914   0.880   6.727  12.856
54694SOL    HW165915   0.900   6.806  12.906
54694SOL    HW265916   0.922   6.656  12.906
54695SOL     OW65917   6.132   2.120   4.853
54695SOL    HW165918   6.073   2.140   4.925
54695SOL    HW265919   6.207   2.077   4.894
54696SOL     OW65920   1.233  14.082  11.315
54696SOL    HW165921   1.187  14.000  11.298
54696SOL    HW265922   1.203  14.142  11.246
54697SOL     OW65923   0.067   4.006   6.163
54697SOL    HW165924   0.032   3.921   6.137
54697SOL    HW265925   0.091   4.048   6.080
54698SOL     OW65926   8.559  12.255   2.841
54698SOL    HW165927   8.506  12.186   2.881
54698SOL    HW265928   8.628  12.272   2.905
54699SOL     OW65929  12.851   1.420   4.971
54699SOL    HW165930  12.869   1.334   5.007
54699SOL    HW265931  12.935   1.451   4.937
54700SOL     OW65932   1.831  13.423   7.502
54700SOL    HW165933   1.921  13.392   7.495
54700SOL    HW265934   1.838  13.507   7.548
54701SOL     OW65935   4.628  11.620   6.455
54701SOL    HW165936   4.634  11.716   6.454
54701SOL    HW265937   4.538  11.602   6.480
54702SOL     OW65938   1.904   2.713   3.938
54702SOL    HW165939   1.882   2.689   4.028
54702SOL    HW265940   1.820   2.727   3.895
54703SOL     OW65941   5.814  12.547  10.400
54703SOL    HW165942   5.838  12.479  10.463
54703SOL    HW265943   5.735  12.513  10.357
54704SOL     OW65944   1.920  10.918  11.649
54704SOL    HW165945   1.994  10.933  11.590
54704SOL    HW265946   1.942  10.966  11.729
54705SOL     OW65947   0.420   3.525   2.196
54705SOL    HW165948   0.336   3.482   2.215
54705SOL    HW265949   0.424   3.527   2.100
54706SOL     OW65950  12.869  11.484   5.783
54706SOL    HW165951  12.924  11.411   5.755
54706SOL    HW265952  12.787  11.473   5.734
54707SOL     OW65953   8.615   2.420   1.425
54707SOL    HW165954   8.524   2.423   1.454
54707SOL    HW265955   8.611   2.391   1.334
54708SOL     OW65956   6.861  13.624   3.246
54708SOL    HW165957   6.770  13.596   3.240
54708SOL    HW265958   6.910  13.544   3.266
54709SOL     OW65959  11.637   4.567   3.348
54709SOL    HW165960  11.662   4.646   3.300
54709SOL    HW265961  11.685   4.572   3.430
54710SOL     OW65962   8.130   1.683   4.225
54710SOL    HW165963   8.171   1.612   4.276
54710SOL    HW265964   8.163   1.670   4.136
54711SOL     OW65965   8.074   4.818  11.615
54711SOL    HW165966   8.167   4.825  11.635
54711SOL    HW265967   8.057   4.724  11.614
54712SOL     OW65968   6.378   9.053  13.750
54712SOL    HW165969   6.400   9.078  13.840
54712SOL    HW265970   6.379   9.135  13.701
54713SOL     OW65971  12.763   7.918   2.874
54713SOL    HW165972  12.744   7.901   2.781
54713SOL    HW265973  12.703   7.860   2.921
54714SOL     OW65974   2.917  11.370   9.001
54714SOL    HW165975   2.918  11.342   8.910
54714SOL    HW265976   2.881  11.295   9.049
54715SOL     OW65977  11.684  11.135   3.887
54715SOL    HW165978  11.690  11.089   3.970
54715SOL    HW265979  11.630  11.079   3.832
54716SOL     OW65980  11.886  14.725   1.823
54716SOL    HW165981  11.811  14.740   1.766
54716SOL    HW265982  11.956  14.696   1.764
54717SOL     OW65983   4.482   0.822  14.742
54717SOL    HW165984   4.398   0.812  14.696
54717SOL    HW265985   4.540   0.759  14.700
54718SOL     OW65986   6.221   4.854   9.229
54718SOL    HW165987   6.219   4.804   9.148
54718SOL    HW265988   6.225   4.789   9.299
54719SOL     OW65989   9.919  13.868   0.317
54719SOL    HW165990   9.852  13.805   0.343
54719SOL    HW265991   9.893  13.950   0.360
54720SOL     OW65992   6.407   1.014  11.150
54720SOL    HW165993   6.412   0.978  11.061
54720SOL    HW265994   6.349   0.955  11.197
54721SOL     OW65995   0.633   9.338   6.917
54721SOL    HW165996   0.697   9.279   6.876
54721SOL    HW265997   0.612   9.402   6.848
54722SOL     OW65998  12.174  10.357   3.420
54722SOL    HW165999  12.266  10.338   3.435
54722SOL    HW266000  12.140  10.280   3.375
54723SOL     OW66001   9.241   0.733   5.687
54723SOL    HW166002   9.252   0.799   5.756
54723SOL    HW266003   9.239   0.650   5.733
54724SOL     OW66004   9.896   2.364   3.731
54724SOL    HW166005   9.898   2.410   3.647
54724SOL    HW266006   9.984   2.326   3.740
54725SOL     OW66007   1.778  13.777   1.494
54725SOL    HW166008   1.683  13.780   1.507
54725SOL    HW266009   1.805  13.869   1.496
54726SOL     OW66010   9.643   2.042   2.215
54726SOL    HW166011   9.603   2.088   2.289
54726SOL    HW266012   9.570   2.022   2.157
54727SOL     OW66013   4.815   3.864   6.017
54727SOL    HW166014   4.734   3.855   6.067
54727SOL    HW266015   4.807   3.949   5.974
54728SOL     OW66016  12.928  13.969   1.203
54728SOL    HW166017  12.939  13.932   1.291
54728SOL    HW266018  13.012  14.010   1.184
54729SOL     OW66019  12.437   3.134  12.258
54729SOL    HW166020  12.377   3.199  12.296
54729SOL    HW266021  12.519   3.181  12.245
54730SOL     OW66022  13.063   2.313  10.079
54730SOL    HW166023  13.072   2.263   9.998
54730SOL    HW266024  13.075   2.404  10.052
54731SOL     OW66025  14.452   9.720   4.064
54731SOL    HW166026  14.418   9.774   4.136
54731SOL    HW266027  14.514   9.777   4.020
54732SOL     OW66028   7.808   4.134   1.226
54732SOL    HW166029   7.752   4.197   1.180
54732SOL    HW266030   7.897   4.159   1.201
54733SOL     OW66031   6.909   7.867   3.541
54733SOL    HW166032   6.847   7.797   3.524
54733SOL    HW266033   6.969   7.865   3.467
54734SOL     OW66034  11.844  11.740  14.660
54734SOL    HW166035  11.751  11.748  14.636
54734SOL    HW266036  11.864  11.823  14.703
54735SOL     OW66037   1.530   6.348   9.567
54735SOL    HW166038   1.441   6.352   9.532
54735SOL    HW266039   1.518   6.329   9.660
54736SOL     OW66040  11.769   1.888   8.642
54736SOL    HW166041  11.702   1.848   8.586
54736SOL    HW266042  11.820   1.943   8.583
54737SOL     OW66043   8.011   9.539   9.983
54737SOL    HW166044   8.068   9.474  10.024
54737SOL    HW266045   8.070   9.603   9.946
54738SOL     OW66046   2.523  14.180   0.789
54738SOL    HW166047   2.574  14.201   0.867
54738SOL    HW266048   2.548  14.090   0.767
54739SOL     OW66049   6.380  11.408   3.126
54739SOL    HW166050   6.374  11.468   3.052
54739SOL    HW266051   6.339  11.455   3.198
54740SOL     OW66052   0.585  13.524   8.291
54740SOL    HW166053   0.594  13.429   8.291
54740SOL    HW266054   0.508  13.541   8.237
54741SOL     OW66055   7.845  10.802   4.138
54741SOL    HW166056   7.813  10.752   4.063
54741SOL    HW266057   7.916  10.856   4.102
54742SOL     OW66058   0.712   0.868  10.728
54742SOL    HW166059   0.779   0.897  10.789
54742SOL    HW266060   0.649   0.940  10.725
54743SOL     OW66061   7.344  13.318   6.133
54743SOL    HW166062   7.264  13.337   6.084
54743SOL    HW266063   7.414  13.353   6.080
54744SOL     OW66064   7.067   2.064   4.260
54744SOL    HW166065   6.984   2.052   4.307
54744SOL    HW266066   7.134   2.043   4.325
54745SOL     OW66067  14.060   2.845  10.791
54745SOL    HW166068  13.992   2.821  10.727
54745SOL    HW266069  14.136   2.793  10.766
54746SOL     OW66070  12.030   1.702   0.040
54746SOL    HW166071  12.089   1.764   0.082
54746SOL    HW266072  11.945   1.745   0.040
54747SOL     OW66073   6.553   0.633   9.224
54747SOL    HW166074   6.518   0.690   9.293
54747SOL    HW266075   6.529   0.677   9.143
54748SOL     OW66076   7.502   0.912   9.238
54748SOL    HW166077   7.519   0.972   9.165
54748SOL    HW266078   7.552   0.834   9.217
54749SOL     OW66079  10.625   4.094   6.614
54749SOL    HW166080  10.717   4.075   6.599
54749SOL    HW266081  10.589   4.013   6.651
54750SOL     OW66082   9.504   2.301   8.867
54750SOL    HW166083   9.514   2.323   8.775
54750SOL    HW266084   9.409   2.289   8.879
54751SOL     OW66085   0.761   1.234   2.758
54751SOL    HW166086   0.710   1.193   2.828
54751SOL    HW266087   0.814   1.299   2.803
54752SOL     OW66088   2.067   7.506   1.766
54752SOL    HW166089   2.144   7.484   1.819
54752SOL    HW266090   2.023   7.422   1.752
54753SOL     OW66091  13.785   2.195   7.072
54753SOL    HW166092  13.731   2.229   7.143
54753SOL    HW266093  13.824   2.273   7.032
54754SOL     OW66094   5.978   0.193  14.583
54754SOL    HW166095   5.940   0.106  14.589
54754SOL    HW266096   6.017   0.197  14.496
54755SOL     OW66097   6.444  13.909   0.868
54755SOL    HW166098   6.503  13.935   0.938
54755SOL    HW266099   6.358  13.905   0.909
54756SOL     OW66100   9.384   4.641   9.080
54756SOL    HW166101   9.343   4.585   9.146
54756SOL    HW266102   9.310   4.681   9.034
54757SOL     OW66103   5.701  12.592   7.755
54757SOL    HW166104   5.718  12.547   7.837
54757SOL    HW266105   5.780  12.644   7.739
54758SOL     OW66106   9.068   3.916   9.938
54758SOL    HW166107   9.154   3.936   9.975
54758SOL    HW266108   9.010   3.983   9.974
54759SOL     OW66109   7.993   6.051   2.325
54759SOL    HW166110   8.040   6.022   2.247
54759SOL    HW266111   8.014   5.985   2.391
54760SOL     OW66112   0.334   4.243   8.417
54760SOL    HW166113   0.314   4.334   8.394
54760SOL    HW266114   0.263   4.192   8.377
54761SOL     OW66115  12.881   4.017   9.893
54761SOL    HW166116  12.973   4.010   9.920
54761SOL    HW266117  12.884   4.049   9.803
54762SOL     OW66118   6.036   3.299   3.835
54762SOL    HW166119   6.118   3.330   3.873
54762SOL    HW266120   5.972   3.367   3.856
54763SOL     OW66121  10.153   9.178   8.821
54763SOL    HW166122  10.090   9.226   8.767
54763SOL    HW266123  10.208   9.246   8.860
54764SOL     OW66124   6.365   9.239   2.670
54764SOL    HW166125   6.436   9.232   2.606
54764SOL    HW266126   6.406   9.218   2.754
54765SOL     OW66127   3.476  10.815  12.227
54765SOL    HW166128   3.532  10.808  12.149
54765SOL    HW266129   3.393  10.775  12.201
54766SOL     OW66130  10.761   9.135   0.795
54766SOL    HW166131  10.722   9.183   0.722
54766SOL    HW266132  10.769   9.199   0.866
54767SOL     OW66133   2.770   3.285   2.620
54767SOL    HW166134   2.801   3.363   2.574
54767SOL    HW266135   2.752   3.315   2.709
54768SOL     OW66136   6.635   9.579   0.972
54768SOL    HW166137   6.606   9.663   0.935
54768SOL    HW266138   6.662   9.527   0.897
54769SOL     OW66139   2.950   5.328   2.597
54769SOL    HW166140   2.858   5.303   2.586
54769SOL    HW266141   2.986   5.323   2.508
54770SOL     OW66142  11.069  12.731   8.873
54770SOL    HW166143  11.014  12.661   8.907
54770SOL    HW266144  11.119  12.761   8.949
54771SOL     OW66145  11.391   6.130  14.445
54771SOL    HW166146  11.394   6.078  14.525
54771SOL    HW266147  11.301   6.164  14.441
54772SOL     OW66148  12.876   8.997   6.274
54772SOL    HW166149  12.924   9.080   6.278
54772SOL    HW266150  12.798   9.017   6.222
54773SOL     OW66151  11.449   4.138   4.048
54773SOL    HW166152  11.542   4.133   4.071
54773SOL    HW266153  11.446   4.197   3.973
54774SOL     OW66154   4.947   4.019   2.953
54774SOL    HW166155   5.020   4.082   2.957
54774SOL    HW266156   4.965   3.968   2.874
54775SOL     OW66157   7.466   6.314   7.379
54775SOL    HW166158   7.431   6.313   7.290
54775SOL    HW266159   7.392   6.291   7.435
54776SOL     OW66160   9.868  10.759  11.067
54776SOL    HW166161   9.834  10.723  10.985
54776SOL    HW266162   9.934  10.822  11.039
54777SOL     OW66163  10.491   0.774   7.744
54777SOL    HW166164  10.407   0.811   7.716
54777SOL    HW266165  10.525   0.730   7.666
54778SOL     OW66166   6.723  13.720   0.370
54778SOL    HW166167   6.655  13.787   0.370
54778SOL    HW266168   6.680  13.641   0.336
54779SOL     OW66169   2.012   5.972   4.282
54779SOL    HW166170   1.990   5.940   4.195
54779SOL    HW266171   2.077   6.041   4.266
54780SOL     OW66172   1.330   2.476   1.612
54780SOL    HW166173   1.391   2.520   1.672
54780SOL    HW266174   1.292   2.405   1.665
54781SOL     OW66175   1.984   3.312   0.780
54781SOL    HW166176   2.075   3.287   0.799
54781SOL    HW266177   1.960   3.372   0.850
54782SOL     OW66178   8.841   6.939  13.330
54782SOL    HW166179   8.912   6.877  13.343
54782SOL    HW266180   8.852   6.971  13.241
54783SOL     OW66181   6.962  11.811   9.217
54783SOL    HW166182   6.986  11.899   9.191
54783SOL    HW266183   6.888  11.823   9.277
54784SOL     OW66184  14.630   9.621  11.145
54784SOL    HW166185  14.651   9.713  11.125
54784SOL    HW266186  14.539   9.623  11.174
54785SOL     OW66187   0.921   4.960   4.327
54785SOL    HW166188   0.962   4.983   4.410
54785SOL    HW266189   0.906   5.045   4.284
54786SOL     OW66190   4.571  13.465   4.594
54786SOL    HW166191   4.501  13.420   4.642
54786SOL    HW266192   4.576  13.419   4.511
54787SOL     OW66193  10.011  13.337  13.063
54787SOL    HW166194   9.980  13.393  13.133
54787SOL    HW266195  10.056  13.265  13.107
54788SOL     OW66196  12.663  14.751   5.947
54788SOL    HW166197  12.686  14.663   5.917
54788SOL    HW266198  12.665  14.744   6.043
54789SOL     OW66199  13.105   5.317   4.482
54789SOL    HW166200  13.119   5.330   4.388
54789SOL    HW266201  13.176   5.258   4.508
54790SOL     OW66202   0.640   4.436   9.957
54790SOL    HW166203   0.641   4.409  10.049
54790SOL    HW266204   0.597   4.521   9.957
54791SOL     OW66205   9.618  10.594   0.685
54791SOL    HW166206   9.614  10.690   0.686
54791SOL    HW266207   9.704  10.574   0.723
54792SOL     OW66208   0.702   6.565   6.320
54792SOL    HW166209   0.786   6.611   6.315
54792SOL    HW266210   0.640   6.622   6.274
54793SOL     OW66211  10.676   3.541   3.046
54793SOL    HW166212  10.740   3.535   3.117
54793SOL    HW266213  10.729   3.543   2.966
54794SOL     OW66214  14.171  11.694   8.220
54794SOL    HW166215  14.145  11.747   8.295
54794SOL    HW266216  14.121  11.730   8.146
54795SOL     OW66217   8.194   8.998   7.553
54795SOL    HW166218   8.165   8.922   7.502
54795SOL    HW266219   8.117   9.022   7.605
54796SOL     OW66220   1.909   4.681   3.124
54796SOL    HW166221   1.917   4.721   3.210
54796SOL    HW266222   1.986   4.624   3.118
54797SOL     OW66223   0.686   8.910   4.088
54797SOL    HW166224   0.614   8.902   4.026
54797SOL    HW266225   0.650   8.959   4.162
54798SOL     OW66226  13.421  14.368   0.593
54798SOL    HW166227  13.454  14.450   0.556
54798SOL    HW266228  13.381  14.323   0.519
54799SOL     OW66229  12.360   7.924   7.318
54799SOL    HW166230  12.385   7.834   7.298
54799SOL    HW266231  12.307   7.917   7.398
54800SOL     OW66232   0.642   4.410  14.637
54800SOL    HW166233   0.711   4.347  14.616
54800SOL    HW266234   0.579   4.360  14.689
54801SOL     OW66235   3.743  13.407  13.631
54801SOL    HW166236   3.761  13.401  13.537
54801SOL    HW266237   3.830  13.412  13.672
54802SOL     OW66238   1.356   6.310  11.264
54802SOL    HW166239   1.360   6.297  11.169
54802SOL    HW266240   1.426   6.374  11.282
54803SOL     OW66241   0.213   4.673  14.400
54803SOL    HW166242   0.171   4.593  14.432
54803SOL    HW266243   0.144   4.720  14.354
54804SOL     OW66244   2.731   5.984  13.262
54804SOL    HW166245   2.637   6.004  13.255
54804SOL    HW266246   2.756   5.954  13.175
54805SOL     OW66247  14.774  11.896  10.701
54805SOL    HW166248  14.748  11.899  10.793
54805SOL    HW266249  14.792  11.804  10.684
54806SOL     OW66250  11.359   5.108   7.370
54806SOL    HW166251  11.287   5.099   7.432
54806SOL    HW266252  11.433   5.136   7.423
54807SOL     OW66253   6.141   8.847   9.840
54807SOL    HW166254   6.090   8.826   9.918
54807SOL    HW266255   6.132   8.941   9.829
54808SOL     OW66256  12.303   5.379   7.134
54808SOL    HW166257  12.373   5.386   7.199
54808SOL    HW266258  12.223   5.394   7.183
54809SOL     OW66259   8.456   3.485   2.828
54809SOL    HW166260   8.493   3.442   2.904
54809SOL    HW266261   8.380   3.533   2.861
54810SOL     OW66262   2.601  10.133  13.462
54810SOL    HW166263   2.587  10.134  13.557
54810SOL    HW266264   2.672  10.196  13.448
54811SOL     OW66265   7.632  13.797  11.813
54811SOL    HW166266   7.563  13.733  11.796
54811SOL    HW266267   7.588  13.882  11.806
54812SOL     OW66268   6.005   2.157   5.084
54812SOL    HW166269   6.014   2.184   5.176
54812SOL    HW266270   6.009   2.062   5.086
54813SOL     OW66271  11.391  14.218   2.530
54813SOL    HW166272  11.476  14.237   2.491
54813SOL    HW266273  11.411  14.155   2.600
54814SOL     OW66274  14.396   1.594   4.401
54814SOL    HW166275  14.380   1.679   4.443
54814SOL    HW266276  14.313   1.572   4.359
54815SOL     OW66277   0.660   2.080   5.003
54815SOL    HW166278   0.577   2.126   5.014
54815SOL    HW266279   0.640   1.989   5.021
54816SOL     OW66280   3.020   5.610   7.786
54816SOL    HW166281   2.991   5.631   7.698
54816SOL    HW266282   3.070   5.687   7.814
54817SOL     OW66283   1.864   5.526   9.129
54817SOL    HW166284   1.815   5.529   9.047
54817SOL    HW266285   1.885   5.618   9.147
54818SOL     OW66286   5.790   8.443  11.217
54818SOL    HW166287   5.750   8.512  11.164
54818SOL    HW266288   5.847   8.490  11.278
54819SOL     OW66289  11.703   8.673  13.166
54819SOL    HW166290  11.627   8.706  13.215
54819SOL    HW266291  11.667   8.609  13.106
54820SOL     OW66292   8.247   9.615   1.457
54820SOL    HW166293   8.209   9.568   1.382
54820SOL    HW266294   8.171   9.651   1.503
54821SOL     OW66295   7.687   2.369  14.418
54821SOL    HW166296   7.756   2.309  14.389
54821SOL    HW266297   7.670   2.423  14.341
54822SOL     OW66298   0.462   9.998  10.778
54822SOL    HW166299   0.470   9.996  10.683
54822SOL    HW266300   0.484   9.909  10.806
54823SOL     OW66301   5.812   9.848   2.860
54823SOL    HW166302   5.886   9.875   2.805
54823SOL    HW266303   5.853   9.796   2.930
54824SOL     OW66304  11.290   9.260  13.070
54824SOL    HW166305  11.200   9.290  13.063
54824SOL    HW266306  11.323   9.258  12.980
54825SOL     OW66307   2.487   7.351   3.397
54825SOL    HW166308   2.498   7.444   3.374
54825SOL    HW266309   2.430   7.352   3.473
54826SOL     OW66310   3.308   8.636   9.107
54826SOL    HW166311   3.297   8.730   9.121
54826SOL    HW266312   3.351   8.605   9.186
54827SOL     OW66313   7.346   3.968  14.405
54827SOL    HW166314   7.326   4.061  14.395
54827SOL    HW266315   7.442   3.964  14.413
54828SOL     OW66316   7.617   5.643   7.424
54828SOL    HW166317   7.629   5.606   7.337
54828SOL    HW266318   7.695   5.617   7.472
54829SOL     OW66319   8.351  11.434   4.496
54829SOL    HW166320   8.441  11.432   4.465
54829SOL    HW266321   8.320  11.344   4.488
54830SOL     OW66322  10.723  10.548   5.806
54830SOL    HW166323  10.748  10.544   5.898
54830SOL    HW266324  10.806  10.538   5.758
54831SOL     OW66325  11.365  11.218   7.122
54831SOL    HW166326  11.273  11.242   7.127
54831SOL    HW266327  11.371  11.157   7.048
54832SOL     OW66328   5.526   3.521   4.367
54832SOL    HW166329   5.566   3.608   4.363
54832SOL    HW266330   5.596   3.463   4.395
54833SOL     OW66331  13.761   8.402   9.779
54833SOL    HW166332  13.843   8.410   9.827
54833SOL    HW266333  13.696   8.381   9.846
54834SOL     OW66334   1.757   0.638   4.533
54834SOL    HW166335   1.843   0.667   4.504
54834SOL    HW266336   1.761   0.644   4.629
54835SOL     OW66337  11.099  12.937   7.215
54835SOL    HW166338  11.007  12.918   7.233
54835SOL    HW266339  11.124  12.999   7.284
54836SOL     OW66340   2.490  11.870   4.886
54836SOL    HW166341   2.455  11.885   4.974
54836SOL    HW266342   2.582  11.848   4.900
54837SOL     OW66343   8.190  10.483   7.486
54837SOL    HW166344   8.260  10.547   7.473
54837SOL    HW266345   8.215  10.434   7.564
54838SOL     OW66346   0.900   2.225   0.623
54838SOL    HW166347   0.910   2.201   0.716
54838SOL    HW266348   0.909   2.142   0.576
54839SOL     OW66349  13.753   6.514   4.254
54839SOL    HW166350  13.838   6.485   4.286
54839SOL    HW266351  13.692   6.491   4.324
54840SOL     OW66352   2.997   2.598  14.759
54840SOL    HW166353   3.090   2.574  14.760
54840SOL    HW266354   2.957   2.538  14.696
54841SOL     OW66355   9.166   4.016   2.298
54841SOL    HW166356   9.214   3.949   2.249
54841SOL    HW266357   9.130   4.074   2.231
54842SOL     OW66358   7.394   5.995   2.472
54842SOL    HW166359   7.426   6.078   2.435
54842SOL    HW266360   7.474   5.946   2.492
54843SOL     OW66361  12.059   5.226   6.815
54843SOL    HW166362  12.012   5.204   6.896
54843SOL    HW266363  12.149   5.197   6.831
54844SOL     OW66364   1.982   1.054  12.564
54844SOL    HW166365   1.963   0.962  12.582
54844SOL    HW266366   1.927   1.076  12.489
54845SOL     OW66367   8.475  14.228  13.404
54845SOL    HW166368   8.528  14.260  13.477
54845SOL    HW266369   8.408  14.295  13.392
54846SOL     OW66370   3.319   9.230   2.709
54846SOL    HW166371   3.413   9.239   2.720
54846SOL    HW266372   3.293   9.306   2.657
54847SOL     OW66373  11.100   6.849   1.908
54847SOL    HW166374  11.016   6.858   1.953
54847SOL    HW266375  11.165   6.847   1.978
54848SOL     OW66376   5.810  13.450  10.462
54848SOL    HW166377   5.729  13.416  10.424
54848SOL    HW266378   5.782  13.526  10.513
54849SOL     OW66379  13.126   5.503   9.610
54849SOL    HW166380  13.055   5.439   9.619
54849SOL    HW266381  13.135   5.541   9.697
54850SOL     OW66382   1.552   2.100  10.346
54850SOL    HW166383   1.549   2.134  10.256
54850SOL    HW266384   1.519   2.010  10.337
54851SOL     OW66385   0.476   4.135   9.122
54851SOL    HW166386   0.548   4.168   9.176
54851SOL    HW266387   0.515   4.066   9.068
54852SOL     OW66388   0.679   7.682  13.694
54852SOL    HW166389   0.635   7.693  13.610
54852SOL    HW266390   0.615   7.637  13.749
54853SOL     OW66391  14.416   4.243   7.444
54853SOL    HW166392  14.477   4.246   7.371
54853SOL    HW266393  14.451   4.307   7.507
54854SOL     OW66394   8.675  14.791  10.828
54854SOL    HW166395   8.752  14.750  10.868
54854SOL    HW266396   8.630  14.834  10.901
54855SOL     OW66397   2.744  12.853  10.794
54855SOL    HW166398   2.654  12.847  10.826
54855SOL    HW266399   2.750  12.785  10.727
54856SOL     OW66400  10.044  12.008   1.948
54856SOL    HW166401  10.051  11.927   2.000
54856SOL    HW266402   9.973  11.991   1.887
54857SOL     OW66403  12.063   1.196   3.063
54857SOL    HW166404  12.138   1.255   3.074
54857SOL    HW266405  12.094   1.112   3.097
54858SOL     OW66406  13.003  10.083  10.588
54858SOL    HW166407  13.010  10.041  10.673
54858SOL    HW266408  13.065  10.156  10.593
54859SOL     OW66409  12.570   4.726   8.036
54859SOL    HW166410  12.564   4.633   8.058
54859SOL    HW266411  12.496   4.766   8.081
54860SOL     OW66412   6.718  14.223   5.028
54860SOL    HW166413   6.707  14.291   5.094
54860SOL    HW266414   6.637  14.171   5.033
54861SOL     OW66415   8.556   9.163  11.223
54861SOL    HW166416   8.567   9.209  11.140
54861SOL    HW266417   8.644   9.161  11.261
54862SOL     OW66418   4.471  12.621   3.234
54862SOL    HW166419   4.538  12.552   3.229
54862SOL    HW266420   4.520  12.700   3.259
54863SOL     OW66421   7.394   9.404   0.687
54863SOL    HW166422   7.464   9.461   0.655
54863SOL    HW266423   7.319   9.424   0.631
54864SOL     OW66424   5.697  11.132   7.002
54864SOL    HW166425   5.759  11.067   6.969
54864SOL    HW266426   5.612  11.089   6.998
54865SOL     OW66427   9.103   0.200   6.602
54865SOL    HW166428   9.035   0.153   6.555
54865SOL    HW266429   9.091   0.177   6.694
54866SOL     OW66430   9.304  10.632  10.909
54866SOL    HW166431   9.399  10.633  10.923
54866SOL    HW266432   9.292  10.682  10.828
54867SOL     OW66433   5.919  10.999   6.936
54867SOL    HW166434   5.974  11.074   6.915
54867SOL    HW266435   5.933  10.984   7.030
54868SOL     OW66436   5.034  14.748   7.306
54868SOL    HW166437   4.958  14.786   7.348
54868SOL    HW266438   5.009  14.738   7.214
54869SOL     OW66439   9.635   8.004   4.169
54869SOL    HW166440   9.571   7.964   4.111
54869SOL    HW266441   9.632   8.098   4.147
54870SOL     OW66442   4.407   9.560  14.079
54870SOL    HW166443   4.417   9.615  14.001
54870SOL    HW266444   4.315   9.570  14.104
54871SOL     OW66445  11.868  14.554   0.244
54871SOL    HW166446  11.775  14.548   0.222
54871SOL    HW266447  11.870  14.576   0.337
54872SOL     OW66448   7.268   7.404   8.769
54872SOL    HW166449   7.314   7.398   8.853
54872SOL    HW266450   7.206   7.476   8.781
54873SOL     OW66451   1.939   2.908   9.692
54873SOL    HW166452   1.863   2.966   9.692
54873SOL    HW266453   1.982   2.925   9.776
54874SOL     OW66454   3.508   5.969   7.378
54874SOL    HW166455   3.503   5.889   7.431
54874SOL    HW266456   3.590   6.011   7.406
54875SOL     OW66457   5.256   2.393   3.295
54875SOL    HW166458   5.337   2.344   3.311
54875SOL    HW266459   5.284   2.485   3.292
54876SOL     OW66460   7.237   7.651   0.158
54876SOL    HW166461   7.150   7.612   0.161
54876SOL    HW266462   7.222   7.745   0.170
54877SOL     OW66463  13.511   6.738   1.498
54877SOL    HW166464  13.594   6.777   1.471
54877SOL    HW266465  13.458   6.812   1.527
54878SOL     OW66466   7.478  12.771   9.304
54878SOL    HW166467   7.468  12.866   9.306
54878SOL    HW266468   7.503  12.748   9.393
54879SOL     OW66469   6.185   1.751  12.916
54879SOL    HW166470   6.197   1.725  12.824
54879SOL    HW266471   6.216   1.676  12.966
54880SOL     OW66472   7.565  13.751  14.093
54880SOL    HW166473   7.543  13.752  14.186
54880SOL    HW266474   7.645  13.698  14.088
54881SOL     OW66475   2.730  12.271   1.121
54881SOL    HW166476   2.670  12.196   1.114
54881SOL    HW266477   2.779  12.271   1.039
54882SOL     OW66478   5.226   1.409   7.326
54882SOL    HW166479   5.182   1.426   7.242
54882SOL    HW266480   5.156   1.413   7.391
54883SOL     OW66481   1.236   4.631  11.384
54883SOL    HW166482   1.173   4.568  11.419
54883SOL    HW266483   1.288   4.581  11.321
54884SOL     OW66484  11.587   5.495   4.234
54884SOL    HW166485  11.621   5.409   4.257
54884SOL    HW266486  11.528   5.518   4.306
54885SOL     OW66487   3.049   0.705   7.296
54885SOL    HW166488   3.049   0.618   7.335
54885SOL    HW266489   3.142   0.727   7.285
54886SOL     OW66490  11.796   6.845  14.219
54886SOL    HW166491  11.715   6.817  14.176
54886SOL    HW266492  11.816   6.775  14.281
54887SOL     OW66493   3.635   5.352   6.873
54887SOL    HW166494   3.649   5.428   6.930
54887SOL    HW266495   3.716   5.302   6.881
54888SOL     OW66496   2.690   6.527  10.715
54888SOL    HW166497   2.623   6.579  10.669
54888SOL    HW266498   2.740   6.486  10.644
54889SOL     OW66499   6.322   8.677   3.653
54889SOL    HW166500   6.291   8.750   3.599
54889SOL    HW266501   6.280   8.600   3.615
54890SOL     OW66502  14.837   2.728  11.349
54890SOL    HW166503  14.852   2.790  11.420
54890SOL    HW266504  14.762   2.676  11.377
54891SOL     OW66505  10.516   1.642  12.505
54891SOL    HW166506  10.450   1.643  12.574
54891SOL    HW266507  10.575   1.571  12.528
54892SOL     OW66508   3.917   4.682  13.616
54892SOL    HW166509   3.961   4.751  13.666
54892SOL    HW266510   3.825   4.705  13.618
54893SOL     OW66511   5.764   8.896   1.442
54893SOL    HW166512   5.840   8.945   1.474
54893SOL    HW266513   5.689   8.951   1.466
54894SOL     OW66514   4.555   8.668  14.471
54894SOL    HW166515   4.462   8.691  14.464
54894SOL    HW266516   4.564   8.633  14.559
54895SOL     OW66517   8.050   1.435   9.281
54895SOL    HW166518   8.070   1.454   9.373
54895SOL    HW266519   8.001   1.352   9.284
54896SOL     OW66520   6.889   2.346  11.438
54896SOL    HW166521   6.923   2.310  11.356
54896SOL    HW266522   6.809   2.297  11.455
54897SOL     OW66523  10.294  13.153   3.010
54897SOL    HW166524  10.268  13.142   3.102
54897SOL    HW266525  10.373  13.099   3.001
54898SOL     OW66526   9.316   3.952  13.994
54898SOL    HW166527   9.225   3.984  13.995
54898SOL    HW266528   9.320   3.895  13.918
54899SOL     OW66529   0.134   4.079   5.819
54899SOL    HW166530   0.059   4.044   5.771
54899SOL    HW266531   0.135   4.172   5.797
54900SOL     OW66532   5.853   4.928   4.779
54900SOL    HW166533   5.898   4.877   4.847
54900SOL    HW266534   5.912   4.926   4.704
54901SOL     OW66535   5.236  14.012   5.460
54901SOL    HW166536   5.313  14.067   5.447
54901SOL    HW266537   5.266  13.942   5.518
54902SOL     OW66538   3.138   6.147  11.501
54902SOL    HW166539   3.048   6.144  11.469
54902SOL    HW266540   3.134   6.208  11.576
54903SOL     OW66541  10.140   8.882   8.002
54903SOL    HW166542  10.199   8.816   7.964
54903SOL    HW266543  10.090   8.914   7.927
54904SOL     OW66544   4.271  10.097   4.096
54904SOL    HW166545   4.250  10.021   4.042
54904SOL    HW266546   4.366  10.095   4.104
54905SOL     OW66547   0.564  13.883   8.995
54905SOL    HW166548   0.492  13.828   9.025
54905SOL    HW266549   0.525  13.938   8.927
54906SOL     OW66550   2.449   5.556   9.425
54906SOL    HW166551   2.405   5.477   9.456
54906SOL    HW266552   2.385   5.599   9.367
54907SOL     OW66553   6.083  11.679   6.980
54907SOL    HW166554   6.101  11.738   7.054
54907SOL    HW266555   6.138  11.712   6.909
54908SOL     OW66556   6.514   2.849  13.559
54908SOL    HW166557   6.453   2.818  13.626
54908SOL    HW266558   6.467   2.920  13.515
54909SOL     OW66559   6.736  11.490   8.492
54909SOL    HW166560   6.657  11.476   8.545
54909SOL    HW266561   6.803  11.515   8.556
54910SOL     OW66562   2.467   9.801   8.059
54910SOL    HW166563   2.399   9.840   8.003
54910SOL    HW266564   2.545   9.853   8.041
54911SOL     OW66565   0.049  12.550   7.798
54911SOL    HW166566   0.059  12.456   7.809
54911SOL    HW266567  14.874  12.577   7.873
54912SOL     OW66568   9.594   4.940   5.513
54912SOL    HW166569   9.597   4.985   5.428
54912SOL    HW266570   9.574   4.849   5.492
54913SOL     OW66571   5.322   7.704  12.083
54913SOL    HW166572   5.323   7.769  12.013
54913SOL    HW266573   5.412   7.675  12.090
54914SOL     OW66574   1.100   4.101  13.315
54914SOL    HW166575   1.076   4.172  13.255
54914SOL    HW266576   1.196   4.102  13.316
54915SOL     OW66577   6.453   9.176   5.027
54915SOL    HW166578   6.409   9.117   5.088
54915SOL    HW266579   6.425   9.264   5.055
54916SOL     OW66580  11.683   9.799  11.543
54916SOL    HW166581  11.750   9.847  11.592
54916SOL    HW266582  11.673   9.716  11.590
54917SOL     OW66583  10.535  11.867   7.203
54917SOL    HW166584  10.468  11.927   7.170
54917SOL    HW266585  10.504  11.841   7.289
54918SOL     OW66586  14.786   9.694   6.847
54918SOL    HW166587  14.713   9.668   6.902
54918SOL    HW266588  14.765   9.784   6.821
54919SOL     OW66589   8.727   1.256  14.232
54919SOL    HW166590   8.688   1.329  14.184
54919SOL    HW266591   8.816   1.284  14.251
54920SOL     OW66592  13.599   5.144  10.833
54920SOL    HW166593  13.511   5.178  10.850
54920SOL    HW266594  13.603   5.132  10.738
54921SOL     OW66595  14.145  10.710  10.022
54921SOL    HW166596  14.138  10.691  10.115
54921SOL    HW266597  14.058  10.743   9.997
54922SOL     OW66598   1.757  10.217   2.017
54922SOL    HW166599   1.800  10.137   2.046
54922SOL    HW266600   1.818  10.287   2.040
54923SOL     OW66601   9.569   9.347  14.474
54923SOL    HW166602   9.628   9.364  14.547
54923SOL    HW266603   9.609   9.393  14.400
54924SOL     OW66604  14.014   0.850   4.735
54924SOL    HW166605  14.085   0.898   4.778
54924SOL    HW266606  13.934   0.896   4.762
54925SOL     OW66607   4.689  12.436   2.947
54925SOL    HW166608   4.774  12.477   2.931
54925SOL    HW266609   4.627  12.508   2.944
54926SOL     OW66610   6.616  12.279  10.040
54926SOL    HW166611   6.533  12.325  10.050
54926SOL    HW266612   6.682  12.341  10.070
54927SOL     OW66613   2.325  13.682   5.275
54927SOL    HW166614   2.234  13.675   5.304
54927SOL    HW266615   2.376  13.671   5.355
54928SOL     OW66616  14.162   4.764  12.262
54928SOL    HW166617  14.120   4.848  12.244
54928SOL    HW266618  14.250   4.773  12.227
54929SOL     OW66619   9.970  11.006   1.382
54929SOL    HW166620   9.955  11.035   1.472
54929SOL    HW266621  10.055  11.043   1.358
54930SOL     OW66622   4.700   6.789  14.641
54930SOL    HW166623   4.626   6.836  14.680
54930SOL    HW266624   4.759   6.859  14.611
54931SOL     OW66625   5.706   9.710  10.916
54931SOL    HW166626   5.611   9.709  10.899
54931SOL    HW266627   5.727   9.802  10.930
54932SOL     OW66628   1.270   6.502   4.115
54932SOL    HW166629   1.254   6.538   4.202
54932SOL    HW266630   1.323   6.568   4.070
54933SOL     OW66631   0.790   7.468   8.312
54933SOL    HW166632   0.873   7.463   8.265
54933SOL    HW266633   0.813   7.506   8.397
54934SOL     OW66634   3.758  10.164   0.993
54934SOL    HW166635   3.852  10.178   0.998
54934SOL    HW266636   3.720  10.251   1.006
54935SOL     OW66637  10.676   9.529   8.243
54935SOL    HW166638  10.634   9.445   8.224
54935SOL    HW266639  10.655   9.584   8.168
54936SOL     OW66640   5.792  14.593   1.090
54936SOL    HW166641   5.821  14.540   1.165
54936SOL    HW266642   5.871  14.638   1.061
54937SOL     OW66643   7.570   2.822   0.124
54937SOL    HW166644   7.588   2.772   0.044
54937SOL    HW266645   7.474   2.826   0.129
54938SOL     OW66646  12.220  11.448  13.969
54938SOL    HW166647  12.213  11.369  13.916
54938SOL    HW266648  12.307  11.481  13.951
54939SOL     OW66649   0.010   9.857   8.296
54939SOL    HW166650  14.853   9.944   8.311
54939SOL    HW266651   0.105   9.870   8.302
54940SOL     OW66652   8.299   0.585   0.012
54940SOL    HW166653   8.285   0.574  14.797
54940SOL    HW266654   8.382   0.633   0.018
54941SOL     OW66655   2.725  13.148  10.749
54941SOL    HW166656   2.658  13.143  10.817
54941SOL    HW266657   2.807  13.128  10.795
54942SOL     OW66658   1.221  11.551   6.806
54942SOL    HW166659   1.303  11.541   6.758
54942SOL    HW266660   1.192  11.461   6.822
54943SOL     OW66661  10.542  11.445   1.020
54943SOL    HW166662  10.467  11.435   0.961
54943SOL    HW266663  10.503  11.450   1.108
54944SOL     OW66664   7.542  12.247   2.880
54944SOL    HW166665   7.455  12.287   2.874
54944SOL    HW266666   7.539  12.176   2.817
54945SOL     OW66667  12.851  10.150  14.019
54945SOL    HW166668  12.944  10.169  14.020
54945SOL    HW266669  12.812  10.210  14.082
54946SOL     OW66670   7.107   1.142  11.265
54946SOL    HW166671   7.162   1.196  11.322
54946SOL    HW266672   7.160   1.127  11.187
54947SOL     OW66673  12.685   1.845   4.159
54947SOL    HW166674  12.615   1.896   4.200
54947SOL    HW266675  12.721   1.902   4.091
54948SOL     OW66676   5.639  10.453  11.408
54948SOL    HW166677   5.603  10.449  11.319
54948SOL    HW266678   5.731  10.475  11.395
54949SOL     OW66679   2.286  14.361  10.841
54949SOL    HW166680   2.253  14.437  10.792
54949SOL    HW266681   2.376  14.350  10.810
54950SOL     OW66682   5.226   8.732   8.945
54950SOL    HW166683   5.131   8.718   8.940
54950SOL    HW266684   5.261   8.687   8.869
54951SOL     OW66685  12.708   4.949  12.934
54951SOL    HW166686  12.743   4.860  12.930
54951SOL    HW266687  12.620   4.942  12.898
54952SOL     OW66688   5.192  11.726  12.583
54952SOL    HW166689   5.214  11.729  12.676
54952SOL    HW266690   5.140  11.805  12.568
54953SOL     OW66691  14.660   1.070  11.992
54953SOL    HW166692  14.730   1.030  12.044
54953SOL    HW266693  14.669   1.030  11.905
54954SOL     OW66694  14.192  14.607   1.177
54954SOL    HW166695  14.237  14.685   1.211
54954SOL    HW266696  14.209  14.539   1.242
54955SOL     OW66697   4.366   6.203   1.799
54955SOL    HW166698   4.272   6.214   1.819
54955SOL    HW266699   4.371   6.212   1.704
54956SOL     OW66700   1.311   4.560   4.747
54956SOL    HW166701   1.264   4.478   4.731
54956SOL    HW266702   1.383   4.559   4.684
54957SOL     OW66703  12.226  13.726   2.290
54957SOL    HW166704  12.314  13.747   2.319
54957SOL    HW266705  12.225  13.750   2.197
54958SOL     OW66706   4.254  13.798  14.776
54958SOL    HW166707   4.212  13.724  14.822
54958SOL    HW266708   4.314  13.756  14.714
54959SOL     OW66709  14.718   4.519   3.633
54959SOL    HW166710  14.711   4.597   3.687
54959SOL    HW266711  14.715   4.446   3.695
54960SOL     OW66712   2.882  12.150  10.892
54960SOL    HW166713   2.903  12.156  10.985
54960SOL    HW266714   2.790  12.124  10.890
54961SOL     OW66715  14.245  12.881   5.364
54961SOL    HW166716  14.221  12.805   5.418
54961SOL    HW266717  14.192  12.872   5.285
54962SOL     OW66718   4.830   2.237   8.468
54962SOL    HW166719   4.882   2.317   8.479
54962SOL    HW266720   4.740   2.264   8.482
54963SOL     OW66721  13.388   1.302   9.294
54963SOL    HW166722  13.318   1.346   9.244
54963SOL    HW266723  13.409   1.225   9.243
54964SOL     OW66724   0.830   7.128  12.091
54964SOL    HW166725   0.884   7.165  12.021
54964SOL    HW266726   0.890   7.075  12.143
54965SOL     OW66727   5.958   5.833  11.790
54965SOL    HW166728   6.031   5.875  11.835
54965SOL    HW266729   5.889   5.899  11.789
54966SOL     OW66730  10.054  13.465   6.126
54966SOL    HW166731  10.075  13.451   6.034
54966SOL    HW266732  10.000  13.544   6.127
54967SOL     OW66733  13.410   5.441   9.714
54967SOL    HW166734  13.363   5.523   9.732
54967SOL    HW266735  13.392   5.423   9.622
54968SOL     OW66736   4.056  10.122   5.913
54968SOL    HW166737   4.091  10.148   5.828
54968SOL    HW266738   4.043  10.028   5.905
54969SOL     OW66739  12.391   2.665   0.040
54969SOL    HW166740  12.331   2.605   0.085
54969SOL    HW266741  12.469   2.665   0.096
54970SOL     OW66742   5.157   2.660   2.502
54970SOL    HW166743   5.154   2.755   2.509
54970SOL    HW266744   5.225   2.642   2.438
54971SOL     OW66745  13.696   5.484   5.790
54971SOL    HW166746  13.706   5.564   5.840
54971SOL    HW266747  13.607   5.454   5.808
54972SOL     OW66748   4.071   1.087   8.009
54972SOL    HW166749   4.128   1.154   8.048
54972SOL    HW266750   4.116   1.004   8.026
54973SOL     OW66751  12.113   7.244   4.240
54973SOL    HW166752  12.163   7.170   4.206
54973SOL    HW266753  12.023   7.226   4.215
54974SOL     OW66754  13.319   1.681   0.486
54974SOL    HW166755  13.279   1.645   0.566
54974SOL    HW266756  13.305   1.776   0.494
54975SOL     OW66757   3.970   7.235   7.235
54975SOL    HW166758   3.883   7.272   7.223
54975SOL    HW266759   4.001   7.219   7.146
54976SOL     OW66760  11.471  11.532   7.204
54976SOL    HW166761  11.487  11.488   7.288
54976SOL    HW266762  11.415  11.606   7.227
54977SOL     OW66763   2.564   6.102  12.019
54977SOL    HW166764   2.577   6.105  11.924
54977SOL    HW266765   2.469   6.111  12.030
54978SOL     OW66766   2.872   0.311   6.928
54978SOL    HW166767   2.966   0.316   6.949
54978SOL    HW266768   2.855   0.218   6.916
54979SOL     OW66769   3.736   0.046   4.501
54979SOL    HW166770   3.830   0.026   4.507
54979SOL    HW266771   3.731   0.141   4.507
54980SOL     OW66772   1.428   1.212   4.293
54980SOL    HW166773   1.469   1.274   4.353
54980SOL    HW266774   1.497   1.150   4.272
54981SOL     OW66775   6.442   0.485  11.093
54981SOL    HW166776   6.443   0.566  11.146
54981SOL    HW266777   6.531   0.451  11.100
54982SOL     OW66778  11.516  13.842   6.109
54982SOL    HW166779  11.488  13.889   6.187
54982SOL    HW266780  11.434  13.821   6.063
54983SOL     OW66781   6.042  12.323   3.282
54983SOL    HW166782   5.984  12.326   3.358
54983SOL    HW266783   6.102  12.397   3.294
54984SOL     OW66784   3.617   0.693   5.543
54984SOL    HW166785   3.673   0.634   5.593
54984SOL    HW266786   3.537   0.643   5.527
54985SOL     OW66787  13.403   4.694   5.314
54985SOL    HW166788  13.418   4.695   5.408
54985SOL    HW266789  13.438   4.609   5.285
54986SOL     OW66790   5.330   6.323  14.877
54986SOL    HW166791   5.240   6.292   0.005
54986SOL    HW266792   5.333   6.402   0.051
54987SOL     OW66793   0.579   5.709  14.541
54987SOL    HW166794   0.610   5.784  14.490
54987SOL    HW266795   0.626   5.715  14.624
54988SOL     OW66796  11.530   2.408   8.236
54988SOL    HW166797  11.507   2.432   8.146
54988SOL    HW266798  11.452   2.364   8.269
54989SOL     OW66799   7.197   9.472   0.484
54989SOL    HW166800   7.133   9.409   0.451
54989SOL    HW266801   7.146   9.548   0.510
54990SOL     OW66802   3.546  13.731  12.833
54990SOL    HW166803   3.530  13.711  12.741
54990SOL    HW266804   3.459  13.743  12.871
54991SOL     OW66805   9.529   6.079  13.792
54991SOL    HW166806   9.555   6.023  13.719
54991SOL    HW266807   9.440   6.107  13.770
54992SOL     OW66808   4.325   2.028   6.498
54992SOL    HW166809   4.363   1.942   6.485
54992SOL    HW266810   4.235   2.011   6.527
54993SOL     OW66811  12.742   3.143   8.428
54993SOL    HW166812  12.672   3.191   8.383
54993SOL    HW266813  12.727   3.051   8.403
54994SOL     OW66814   5.895   0.557   3.179
54994SOL    HW166815   5.920   0.558   3.271
54994SOL    HW266816   5.960   0.612   3.135
54995SOL     OW66817   9.925  13.923   3.053
54995SOL    HW166818  10.013  13.931   3.016
54995SOL    HW266819   9.870  13.895   2.980
54996SOL     OW66820  14.664  10.303   4.969
54996SOL    HW166821  14.579  10.337   4.940
54996SOL    HW266822  14.713  10.382   4.994
54997SOL     OW66823   8.246   7.020   9.573
54997SOL    HW166824   8.211   7.073   9.646
54997SOL    HW266825   8.316   7.074   9.537
54998SOL     OW66826   1.705  13.905   3.277
54998SOL    HW166827   1.627  13.952   3.247
54998SOL    HW266828   1.766  13.974   3.302
54999SOL     OW66829   9.474  12.781   2.234
54999SOL    HW166830   9.568  12.788   2.215
54999SOL    HW266831   9.456  12.687   2.230
55000SOL     OW66832  14.687  14.585  14.585
55000SOL    HW166833  14.646  14.617  14.505
55000SOL    HW266834  14.749  14.654  14.610
55001SOL     OW66835   5.127  14.463  11.983
55001SOL    HW166836   5.153  14.375  12.010
55001SOL    HW266837   5.069  14.450  11.908
55002SOL     OW66838  13.394   1.731   0.924
55002SOL    HW166839  13.476   1.706   0.967
55002SOL    HW266840  13.338   1.763   0.994
55003SOL     OW66841   7.574   2.072   8.171
55003SOL    HW166842   7.641   2.118   8.221
55003SOL    HW266843   7.589   2.097   8.080
55004SOL     OW66844  12.429   1.442   8.828
55004SOL    HW166845  12.380   1.524   8.813
55004SOL    HW266846  12.421   1.426   8.921
55005SOL     OW66847   1.134  11.390   1.080
55005SOL    HW166848   1.044  11.387   1.111
55005SOL    HW266849   1.187  11.369   1.156
55006SOL     OW66850  14.620  10.019   1.445
55006SOL    HW166851  14.703  10.028   1.492
55006SOL    HW266852  14.612   9.925   1.429
55007SOL     OW66853   4.078   0.634  12.118
55007SOL    HW166854   4.119   0.549  12.135
55007SOL    HW266855   4.120   0.693  12.181
55008SOL     OW66856   8.631   9.921  14.088
55008SOL    HW166857   8.698   9.860  14.058
55008SOL    HW266858   8.667  10.008  14.069
55009SOL     OW66859   0.166   7.857   2.497
55009SOL    HW166860   0.170   7.930   2.560
55009SOL    HW266861   0.256   7.849   2.465
55010SOL     OW66862  13.484  13.571   2.975
55010SOL    HW166863  13.402  13.548   3.018
55010SOL    HW266864  13.468  13.660   2.941
55011SOL     OW66865   9.891   8.148   7.178
55011SOL    HW166866   9.807   8.160   7.221
55011SOL    HW266867   9.882   8.067   7.127
55012SOL     OW66868  14.558   5.283   5.805
55012SOL    HW166869  14.539   5.368   5.765
55012SOL    HW266870  14.640   5.254   5.764
55013SOL     OW66871  12.429   7.757   2.887
55013SOL    HW166872  12.370   7.685   2.863
55013SOL    HW266873  12.512   7.713   2.907
55014SOL     OW66874   8.872   5.899   0.931
55014SOL    HW166875   8.808   5.835   0.962
55014SOL    HW266876   8.918   5.855   0.860
55015SOL     OW66877   1.959  10.541   4.333
55015SOL    HW166878   1.975  10.459   4.285
55015SOL    HW266879   1.962  10.515   4.425
55016SOL     OW66880   1.161   6.565   1.800
55016SOL    HW166881   1.089   6.554   1.861
55016SOL    HW266882   1.238   6.530   1.847
55017SOL     OW66883  14.151  10.773  11.353
55017SOL    HW166884  14.175  10.825  11.275
55017SOL    HW266885  14.091  10.829  11.402
55018SOL     OW66886   1.641  11.550   8.562
55018SOL    HW166887   1.653  11.519   8.651
55018SOL    HW266888   1.696  11.628   8.556
55019SOL     OW66889   7.305  13.815   7.329
55019SOL    HW166890   7.240  13.862   7.278
55019SOL    HW266891   7.381  13.873   7.330
55020SOL     OW66892   9.604   5.162   3.822
55020SOL    HW166893   9.620   5.081   3.773
55020SOL    HW266894   9.605   5.135   3.914
55021SOL     OW66895   9.376   6.265  11.190
55021SOL    HW166896   9.463   6.229  11.207
55021SOL    HW266897   9.384   6.358  11.207
55022SOL     OW66898   5.580  12.170   6.866
55022SOL    HW166899   5.551  12.134   6.949
55022SOL    HW266900   5.586  12.094   6.808
55023SOL     OW66901   4.612   6.774  11.146
55023SOL    HW166902   4.697   6.786  11.188
55023SOL    HW266903   4.601   6.851  11.091
55024SOL     OW66904   1.153   5.003   1.522
55024SOL    HW166905   1.222   5.043   1.469
55024SOL    HW266906   1.184   5.010   1.612
55025SOL     OW66907   7.320   6.765   5.409
55025SOL    HW166908   7.345   6.851   5.377
55025SOL    HW266909   7.297   6.716   5.330
55026SOL     OW66910  14.077   1.341   5.112
55026SOL    HW166911  14.065   1.428   5.148
55026SOL    HW266912  14.126   1.293   5.180
55027SOL     OW66913   5.354   3.934  14.854
55027SOL    HW166914   5.443   3.934   0.009
55027SOL    HW266915   5.354   3.865  14.787
55028SOL     OW66916   0.142   8.162   3.326
55028SOL    HW166917   0.131   8.128   3.414
55028SOL    HW266918   0.146   8.084   3.270
55029SOL     OW66919   9.088   0.288   8.784
55029SOL    HW166920   9.045   0.205   8.763
55029SOL    HW266921   9.021   0.354   8.771
55030SOL     OW66922   2.856   3.390   4.911
55030SOL    HW166923   2.808   3.449   4.968
55030SOL    HW266924   2.941   3.430   4.899
55031SOL     OW66925   6.645   7.141  14.100
55031SOL    HW166926   6.554   7.115  14.089
55031SOL    HW266927   6.696   7.069  14.062
55032SOL     OW66928   1.758   9.492   6.492
55032SOL    HW166929   1.665   9.512   6.496
55032SOL    HW266930   1.788   9.532   6.410
55033SOL     OW66931   1.742  13.762  11.216
55033SOL    HW166932   1.833  13.777  11.241
55033SOL    HW266933   1.707  13.705  11.284
55034SOL     OW66934   8.232  13.251  13.226
55034SOL    HW166935   8.139  13.264  13.246
55034SOL    HW266936   8.246  13.297  13.143
55035SOL     OW66937   0.248   7.213  14.524
55035SOL    HW166938   0.238   7.136  14.467
55035SOL    HW266939   0.219   7.183  14.610
55036SOL     OW66940   9.891  10.181   4.887
55036SOL    HW166941   9.865  10.101   4.932
55036SOL    HW266942   9.822  10.195   4.822
55037SOL     OW66943   3.334  11.354  13.094
55037SOL    HW166944   3.300  11.398  13.172
55037SOL    HW266945   3.318  11.261  13.109
55038SOL     OW66946  11.138   7.515   1.866
55038SOL    HW166947  11.107   7.566   1.791
55038SOL    HW266948  11.059   7.494   1.916
55039SOL     OW66949   7.133   7.755   5.796
55039SOL    HW166950   7.072   7.741   5.723
55039SOL    HW266951   7.079   7.746   5.874
55040SOL     OW66952   0.883   4.265  14.625
55040SOL    HW166953   0.962   4.317  14.614
55040SOL    HW266954   0.892   4.193  14.563
55041SOL     OW66955   7.056  10.711   4.144
55041SOL    HW166956   7.080  10.799   4.113
55041SOL    HW266957   7.133  10.681   4.193
55042SOL     OW66958   4.096   6.306   4.264
55042SOL    HW166959   4.092   6.212   4.248
55042SOL    HW266960   4.078   6.345   4.178
55043SOL     OW66961   4.308  10.659  10.647
55043SOL    HW166962   4.232  10.716  10.660
55043SOL    HW266963   4.293  10.618  10.562
55044SOL     OW66964   0.209  10.733   8.243
55044SOL    HW166965   0.262  10.690   8.176
55044SOL    HW266966   0.175  10.661   8.297
55045SOL     OW66967  10.833  11.506  13.312
55045SOL    HW166968  10.921  11.504  13.351
55045SOL    HW266969  10.828  11.591  13.269
55046SOL     OW66970   3.795   7.888  13.275
55046SOL    HW166971   3.773   7.803  13.236
55046SOL    HW266972   3.880   7.910  13.238
55047SOL     OW66973  11.904   8.656   8.166
55047SOL    HW166974  11.841   8.658   8.238
55047SOL    HW266975  11.851   8.648   8.087
55048SOL     OW66976  11.810   1.534   8.665
55048SOL    HW166977  11.762   1.581   8.732
55048SOL    HW266978  11.746   1.472   8.628
55049SOL     OW66979   3.857   0.225   5.008
55049SOL    HW166980   3.924   0.210   5.074
55049SOL    HW266981   3.849   0.320   5.002
55050SOL     OW66982   0.229   6.275   1.068
55050SOL    HW166983   0.211   6.252   1.159
55050SOL    HW266984   0.305   6.222   1.044
55051SOL     OW66985   5.356   5.413  10.382
55051SOL    HW166986   5.323   5.502  10.371
55051SOL    HW266987   5.438   5.412  10.334
55052SOL     OW66988   0.460   5.808   5.615
55052SOL    HW166989   0.498   5.721   5.632
55052SOL    HW266990   0.421   5.833   5.699
55053SOL     OW66991   5.351  10.793   0.800
55053SOL    HW166992   5.357  10.888   0.794
55053SOL    HW266993   5.377  10.762   0.713
55054SOL     OW66994   9.983  10.290  11.520
55054SOL    HW166995   9.912  10.271  11.582
55054SOL    HW266996   9.938  10.304  11.436
55055SOL     OW66997   0.185   1.581   4.613
55055SOL    HW166998   0.200   1.495   4.652
55055SOL    HW266999   0.143   1.562   4.529
55056SOL     OW67000  11.660   6.157  10.539
55056SOL    HW167001  11.642   6.064  10.551
55056SOL    HW267002  11.617   6.200  10.613
55057SOL     OW67003   9.031   3.736  11.439
55057SOL    HW167004   9.074   3.654  11.417
55057SOL    HW267005   8.961   3.744  11.375
55058SOL     OW67006   8.806   6.784   5.890
55058SOL    HW167007   8.797   6.879   5.896
55058SOL    HW267008   8.745   6.758   5.821
55059SOL     OW67009   5.374   5.250   4.652
55059SOL    HW167010   5.353   5.230   4.560
55059SOL    HW267011   5.289   5.254   4.696
55060SOL     OW67012   4.017   7.633   9.491
55060SOL    HW167013   4.040   7.711   9.442
55060SOL    HW267014   4.101   7.591   9.511
55061SOL     OW67015   5.089  11.005   8.423
55061SOL    HW167016   5.022  10.984   8.488
55061SOL    HW267017   5.106  10.922   8.379
55062SOL     OW67018   5.863   9.724  10.234
55062SOL    HW167019   5.819   9.702  10.317
55062SOL    HW267020   5.924   9.652  10.220
55063SOL     OW67021  14.352   2.731   8.244
55063SOL    HW167022  14.413   2.710   8.315
55063SOL    HW267023  14.388   2.688   8.167
55064SOL     OW67024  12.820  13.389  11.203
55064SOL    HW167025  12.756  13.383  11.273
55064SOL    HW267026  12.797  13.318  11.143
55065SOL     OW67027   8.102   0.454   6.764
55065SOL    HW167028   8.193   0.464   6.792
55065SOL    HW267029   8.085   0.532   6.710
55066SOL     OW67030   7.270   2.706   1.826
55066SOL    HW167031   7.281   2.690   1.920
55066SOL    HW267032   7.285   2.800   1.816
55067SOL     OW67033   4.061  10.862   6.191
55067SOL    HW167034   4.150  10.878   6.160
55067SOL    HW267035   4.010  10.849   6.110
55068SOL     OW67036   1.282   9.300  11.446
55068SOL    HW167037   1.332   9.270  11.521
55068SOL    HW267038   1.224   9.368  11.481
55069SOL     OW67039  11.090  12.836  14.294
55069SOL    HW167040  11.095  12.826  14.199
55069SOL    HW267041  11.028  12.908  14.308
55070SOL     OW67042  10.493   9.225   9.520
55070SOL    HW167043  10.525   9.226   9.610
55070SOL    HW267044  10.425   9.158   9.520
55071SOL     OW67045  11.065   3.624   2.773
55071SOL    HW167046  11.079   3.718   2.781
55071SOL    HW267047  11.126   3.597   2.704
55072SOL     OW67048  12.458   3.338   3.416
55072SOL    HW167049  12.475   3.285   3.338
55072SOL    HW267050  12.363   3.342   3.422
55073SOL     OW67051   7.985   8.279  11.136
55073SOL    HW167052   8.014   8.244  11.220
55073SOL    HW267053   7.889   8.277  11.140
55074SOL     OW67054  10.988   3.838   7.976
55074SOL    HW167055  11.038   3.842   8.058
55074SOL    HW267056  10.903   3.804   8.002
55075SOL     OW67057  10.415   1.743  10.417
55075SOL    HW167058  10.488   1.681  10.417
55075SOL    HW267059  10.418   1.784  10.330
55076SOL     OW67060   1.224   2.350  13.096
55076SOL    HW167061   1.258   2.439  13.110
55076SOL    HW267062   1.175   2.331  13.176
55077SOL     OW67063   6.159   8.000  10.081
55077SOL    HW167064   6.248   8.014  10.114
55077SOL    HW267065   6.172   7.968   9.992
55078SOL     OW67066  14.267   7.956   2.279
55078SOL    HW167067  14.343   7.899   2.290
55078SOL    HW267068  14.217   7.947   2.360
55079SOL     OW67069   0.384  12.885   5.478
55079SOL    HW167070   0.310  12.944   5.489
55079SOL    HW267071   0.353  12.819   5.415
55080SOL     OW67072  13.337  11.561   3.715
55080SOL    HW167073  13.302  11.623   3.651
55080SOL    HW267074  13.388  11.616   3.775
55081SOL     OW67075   3.234  14.587   1.286
55081SOL    HW167076   3.206  14.678   1.300
55081SOL    HW267077   3.314  14.579   1.337
55082SOL     OW67078   0.707  10.343   6.391
55082SOL    HW167079   0.763  10.418   6.371
55082SOL    HW267080   0.651  10.374   6.463
55083SOL     OW67081   5.751   4.831   6.829
55083SOL    HW167082   5.761   4.753   6.884
55083SOL    HW267083   5.777   4.801   6.741
55084SOL     OW67084   0.832  13.577   3.232
55084SOL    HW167085   0.834  13.671   3.212
55084SOL    HW267086   0.924  13.554   3.247
55085SOL     OW67087   6.304  13.398   9.706
55085SOL    HW167088   6.259  13.314   9.694
55085SOL    HW267089   6.315  13.432   9.617
55086SOL     OW67090  13.010  12.888   9.421
55086SOL    HW167091  13.027  12.808   9.372
55086SOL    HW267092  13.030  12.866   9.512
55087SOL     OW67093  10.114  14.138   2.111
55087SOL    HW167094  10.077  14.057   2.077
55087SOL    HW267095  10.080  14.206   2.052
55088SOL     OW67096   1.011   9.693   8.323
55088SOL    HW167097   0.986   9.757   8.257
55088SOL    HW267098   1.095   9.659   8.293
55089SOL     OW67099  13.058   8.236   9.856
55089SOL    HW167100  13.002   8.167   9.890
55089SOL    HW267101  13.001   8.313   9.851
55090SOL     OW67102   6.836   0.667   9.260
55090SOL    HW167103   6.781   0.674   9.338
55090SOL    HW267104   6.784   0.705   9.189
55091SOL     OW67105   6.128   7.257   9.008
55091SOL    HW167106   6.195   7.316   9.043
55091SOL    HW267107   6.144   7.174   9.054
55092SOL     OW67108   8.791   9.588  12.651
55092SOL    HW167109   8.805   9.563  12.742
55092SOL    HW267110   8.735   9.518  12.616
55093SOL     OW67111   8.946   0.695   7.180
55093SOL    HW167112   8.957   0.749   7.101
55093SOL    HW267113   9.035   0.680   7.211
55094SOL     OW67114   2.323  14.071   9.572
55094SOL    HW167115   2.299  14.145   9.627
55094SOL    HW267116   2.388  14.023   9.624
55095SOL     OW67117   1.452  14.750   6.260
55095SOL    HW167118   1.426  14.814   6.195
55095SOL    HW267119   1.547  14.752   6.259
55096SOL     OW67120   6.353  11.837  10.734
55096SOL    HW167121   6.271  11.830  10.784
55096SOL    HW267122   6.363  11.930  10.718
55097SOL     OW67123   8.250   2.178   9.230
55097SOL    HW167124   8.260   2.216   9.317
55097SOL    HW267125   8.246   2.083   9.246
55098SOL     OW67126  13.761   8.220   8.037
55098SOL    HW167127  13.770   8.211   8.132
55098SOL    HW267128  13.837   8.174   8.001
55099SOL     OW67129   0.809  11.436   0.837
55099SOL    HW167130   0.851  11.488   0.905
55099SOL    HW267131   0.813  11.491   0.759
55100SOL     OW67132   9.777  13.878  14.464
55100SOL    HW167133   9.860  13.890  14.510
55100SOL    HW267134   9.742  13.797  14.501
55101SOL     OW67135   4.796   5.534   2.129
55101SOL    HW167136   4.752   5.617   2.112
55101SOL    HW267137   4.741   5.468   2.085
55102SOL     OW67138   8.976   1.740   4.940
55102SOL    HW167139   8.926   1.819   4.962
55102SOL    HW267140   8.986   1.744   4.845
55103SOL     OW67141   9.777   5.963   9.727
55103SOL    HW167142   9.741   5.911   9.655
55103SOL    HW267143   9.777   6.053   9.694
55104SOL     OW67144   8.043   8.291   2.681
55104SOL    HW167145   8.084   8.342   2.751
55104SOL    HW267146   8.021   8.357   2.614
55105SOL     OW67147   5.673  11.653   5.627
55105SOL    HW167148   5.670  11.617   5.538
55105SOL    HW267149   5.599  11.611   5.672
55106SOL     OW67150  10.852   0.094   2.662
55106SOL    HW167151  10.847   0.020   2.601
55106SOL    HW267152  10.940   0.129   2.648
55107SOL     OW67153   0.222   4.714  11.932
55107SOL    HW167154   0.134   4.725  11.967
55107SOL    HW267155   0.242   4.798  11.889
55108SOL     OW67156  14.753   9.847  12.841
55108SOL    HW167157  14.743   9.864  12.935
55108SOL    HW267158  14.728   9.930  12.799
55109SOL     OW67159   5.584   8.902  13.446
55109SOL    HW167160   5.591   8.846  13.369
55109SOL    HW267161   5.673   8.935  13.459
55110SOL     OW67162   0.532   5.582   8.164
55110SOL    HW167163   0.628   5.579   8.167
55110SOL    HW267164   0.511   5.675   8.172
55111SOL     OW67165   1.342   9.108   4.007
55111SOL    HW167166   1.350   9.203   3.995
55111SOL    HW267167   1.399   9.071   3.940
55112SOL     OW67168  12.955   6.977   6.160
55112SOL    HW167169  13.001   7.033   6.223
55112SOL    HW267170  12.863   7.003   6.168
55113SOL     OW67171  10.923  12.071  14.207
55113SOL    HW167172  10.827  12.073  14.203
55113SOL    HW267173  10.943  12.056  14.299
55114SOL     OW67174   7.765   5.690   7.034
55114SOL    HW167175   7.804   5.681   6.947
55114SOL    HW267176   7.691   5.749   7.020
55115SOL     OW67177   6.732  12.023  13.604
55115SOL    HW167178   6.706  11.939  13.641
55115SOL    HW267179   6.682  12.029  13.522
55116SOL     OW67180   3.293   7.992   3.552
55116SOL    HW167181   3.388   7.987   3.561
55116SOL    HW267182   3.261   7.985   3.642
55117SOL     OW67183   1.096   8.126   1.004
55117SOL    HW167184   1.150   8.089   0.933
55117SOL    HW267185   1.019   8.070   1.007
55118SOL     OW67186   2.211   9.609  10.073
55118SOL    HW167187   2.163   9.651  10.145
55118SOL    HW267188   2.249   9.530  10.113
55119SOL     OW67189   3.506   2.599   3.546
55119SOL    HW167190   3.423   2.562   3.516
55119SOL    HW267191   3.522   2.556   3.630
55120SOL     OW67192   3.768  14.070   7.690
55120SOL    HW167193   3.775  14.143   7.629
55120SOL    HW267194   3.677  14.074   7.722
55121SOL     OW67195   2.034  10.052   3.645
55121SOL    HW167196   1.979  10.039   3.568
55121SOL    HW267197   2.014   9.978   3.702
55122SOL     OW67198  12.432  10.906  13.245
55122SOL    HW167199  12.360  10.859  13.203
55122SOL    HW267200  12.507  10.847  13.237
55123SOL     OW67201   0.891   4.661   7.260
55123SOL    HW167202   0.944   4.585   7.235
55123SOL    HW267203   0.946   4.736   7.238
55124SOL     OW67204   1.872   0.198   3.579
55124SOL    HW167205   1.797   0.257   3.571
55124SOL    HW267206   1.837   0.112   3.556
55125SOL     OW67207   0.461  13.456  13.055
55125SOL    HW167208   0.507  13.440  13.137
55125SOL    HW267209   0.388  13.395  13.057
55126SOL     OW67210  11.637  14.262   9.765
55126SOL    HW167211  11.634  14.282   9.859
55126SOL    HW267212  11.727  14.277   9.739
55127SOL     OW67213   3.546  12.519   6.916
55127SOL    HW167214   3.548  12.433   6.874
55127SOL    HW267215   3.602  12.573   6.861
55128SOL     OW67216   1.067  12.851  13.177
55128SOL    HW167217   1.087  12.780  13.238
55128SOL    HW267218   1.149  12.898  13.165
55129SOL     OW67219   0.184   8.510  13.079
55129SOL    HW167220   0.212   8.544  12.994
55129SOL    HW267221   0.236   8.430  13.091
55130SOL     OW67222  10.685  11.309   6.010
55130SOL    HW167223  10.778  11.317   5.988
55130SOL    HW267224  10.640  11.358   5.942
55131SOL     OW67225   4.075  14.390  10.090
55131SOL    HW167226   3.980  14.394  10.089
55131SOL    HW267227   4.102  14.431  10.007
55132SOL     OW67228   7.186   2.587   4.349
55132SOL    HW167229   7.151   2.516   4.403
55132SOL    HW267230   7.178   2.553   4.259
55133SOL     OW67231  13.811   4.848  13.306
55133SOL    HW167232  13.751   4.922  13.295
55133SOL    HW267233  13.881   4.883  13.361
55134SOL     OW67234  11.232   4.026   6.002
55134SOL    HW167235  11.241   3.945   6.052
55134SOL    HW267236  11.274   4.007   5.918
55135SOL     OW67237  13.412   3.921   2.764
55135SOL    HW167238  13.502   3.946   2.786
55135SOL    HW267239  13.397   3.840   2.813
55136SOL     OW67240  10.164  13.000  10.919
55136SOL    HW167241  10.085  12.951  10.940
55136SOL    HW267242  10.230  12.933  10.902
55137SOL     OW67243   7.091   9.349   8.059
55137SOL    HW167244   7.027   9.310   7.999
55137SOL    HW267245   7.056   9.330   8.146
55138SOL     OW67246   1.432   4.490   2.063
55138SOL    HW167247   1.437   4.432   1.987
55138SOL    HW267248   1.458   4.576   2.030
55139SOL     OW67249  11.123  13.953  10.681
55139SOL    HW167250  11.080  13.989  10.759
55139SOL    HW267251  11.201  13.909  10.715
55140SOL     OW67252   2.731   8.017  13.163
55140SOL    HW167253   2.822   8.020  13.192
55140SOL    HW267254   2.699   7.932  13.193
55141SOL     OW67255   8.796  13.321   0.239
55141SOL    HW167256   8.858  13.342   0.170
55141SOL    HW267257   8.758  13.405   0.264
55142SOL     OW67258  10.951   4.203   0.031
55142SOL    HW167259  10.934   4.123   0.080
55142SOL    HW267260  11.012   4.253   0.086
55143SOL     OW67261   2.602  14.267   7.139
55143SOL    HW167262   2.654  14.343   7.112
55143SOL    HW267263   2.594  14.277   7.234
55144SOL     OW67264  13.592   1.418  11.789
55144SOL    HW167265  13.552   1.400  11.874
55144SOL    HW267266  13.572   1.342  11.736
55145SOL     OW67267   5.869   2.628  10.794
55145SOL    HW167268   5.871   2.550  10.849
55145SOL    HW267269   5.871   2.701  10.857
55146SOL     OW67270  13.432   2.545   4.720
55146SOL    HW167271  13.453   2.633   4.688
55146SOL    HW267272  13.338   2.536   4.704
55147SOL     OW67273  12.332   2.097  12.686
55147SOL    HW167274  12.315   2.091  12.592
55147SOL    HW267275  12.356   2.188  12.700
55148SOL     OW67276   5.754  13.441  13.389
55148SOL    HW167277   5.664  13.420  13.365
55148SOL    HW267278   5.750  13.531  13.423
55149SOL     OW67279   7.570  12.941   6.962
55149SOL    HW167280   7.576  12.865   6.905
55149SOL    HW267281   7.532  12.906   7.044
55150SOL     OW67282   8.694  11.455   3.307
55150SOL    HW167283   8.706  11.437   3.214
55150SOL    HW267284   8.624  11.396   3.335
55151SOL     OW67285   3.973  14.815   0.366
55151SOL    HW167286   3.901  14.787   0.310
55151SOL    HW267287   4.000  14.736   0.412
55152SOL     OW67288  14.466   2.340   7.964
55152SOL    HW167289  14.526   2.280   7.919
55152SOL    HW267290  14.457   2.303   8.052
55153SOL     OW67291   0.323  14.396   5.039
55153SOL    HW167292   0.263  14.328   5.008
55153SOL    HW267293   0.395  14.395   4.975
55154SOL     OW67294  13.362   1.130  13.837
55154SOL    HW167295  13.365   1.053  13.780
55154SOL    HW267296  13.275   1.166  13.825
55155SOL     OW67297   0.935   5.638   4.612
55155SOL    HW167298   0.985   5.680   4.541
55155SOL    HW267299   0.890   5.566   4.569
55156SOL     OW67300  14.576   4.409  12.677
55156SOL    HW167301  14.575   4.325  12.722
55156SOL    HW267302  14.525   4.393  12.597
55157SOL     OW67303   3.497   2.625   8.593
55157SOL    HW167304   3.583   2.582   8.591
55157SOL    HW267305   3.516   2.718   8.577
55158SOL     OW67306   7.225   1.780  14.148
55158SOL    HW167307   7.199   1.856  14.200
55158SOL    HW267308   7.153   1.718  14.158
55159SOL     OW67309   4.979   4.891  10.461
55159SOL    HW167310   4.944   4.971  10.423
55159SOL    HW267311   5.071   4.910  10.478
55160SOL     OW67312   3.369   8.421   0.843
55160SOL    HW167313   3.425   8.385   0.774
55160SOL    HW267314   3.289   8.449   0.797
55161SOL     OW67315   5.955   6.561   3.469
55161SOL    HW167316   5.969   6.652   3.494
55161SOL    HW267317   5.870   6.560   3.427
55162SOL     OW67318  11.812   0.863   2.973
55162SOL    HW167319  11.899   0.826   2.966
55162SOL    HW267320  11.815   0.918   3.052
55163SOL     OW67321   8.788   6.482   8.071
55163SOL    HW167322   8.769   6.388   8.079
55163SOL    HW267323   8.703   6.523   8.057
55164SOL     OW67324   9.412   3.108  11.756
55164SOL    HW167325   9.362   3.106  11.674
55164SOL    HW267326   9.502   3.127  11.729
55165SOL     OW67327  13.135  12.792   0.014
55165SOL    HW167328  13.137  12.836  14.808
55165SOL    HW267329  13.151  12.861   0.078
55166SOL     OW67330   1.772  11.932  10.125
55166SOL    HW167331   1.825  12.007  10.153
55166SOL    HW267332   1.833  11.876  10.077
55167SOL     OW67333   3.243  12.875   8.726
55167SOL    HW167334   3.287  12.860   8.643
55167SOL    HW267335   3.165  12.820   8.722
55168SOL     OW67336   6.031   6.658   5.342
55168SOL    HW167337   5.993   6.638   5.256
55168SOL    HW267338   6.123   6.633   5.334
55169SOL     OW67339  13.003   3.414  13.352
55169SOL    HW167340  12.981   3.455  13.435
55169SOL    HW267341  12.944   3.456  13.288
55170SOL     OW67342   7.336   2.953  12.439
55170SOL    HW167343   7.340   3.009  12.362
55170SOL    HW267344   7.253   2.976  12.482
55171SOL     OW67345   7.618   6.502   7.882
55171SOL    HW167346   7.555   6.449   7.930
55171SOL    HW267347   7.619   6.586   7.928
55172SOL     OW67348   1.680   6.119  14.306
55172SOL    HW167349   1.605   6.061  14.293
55172SOL    HW267350   1.646   6.207  14.289
55173SOL     OW67351  11.852  11.470   7.475
55173SOL    HW167352  11.854  11.380   7.444
55173SOL    HW267353  11.759  11.489   7.487
55174SOL     OW67354   4.196   7.691   2.800
55174SOL    HW167355   4.257   7.649   2.739
55174SOL    HW267356   4.186   7.628   2.871
55175SOL     OW67357   6.933   2.855   0.425
55175SOL    HW167358   6.859   2.856   0.485
55175SOL    HW267359   6.999   2.909   0.467
55176SOL     OW67360   6.186   4.387   2.997
55176SOL    HW167361   6.256   4.334   2.959
55176SOL    HW267362   6.233   4.456   3.045
55177SOL     OW67363  11.563   0.726   5.886
55177SOL    HW167364  11.582   0.803   5.831
55177SOL    HW267365  11.468   0.728   5.896
55178SOL     OW67366  14.318   2.893   7.659
55178SOL    HW167367  14.227   2.897   7.690
55178SOL    HW267368  14.331   2.801   7.636
55179SOL     OW67369   6.716   7.170   6.316
55179SOL    HW167370   6.760   7.211   6.390
55179SOL    HW267371   6.772   7.189   6.241
55180SOL     OW67372   8.964  10.088  12.118
55180SOL    HW167373   8.934  10.119  12.032
55180SOL    HW267374   8.991   9.998  12.102
55181SOL     OW67375   3.858   2.556   0.588
55181SOL    HW167376   3.879   2.634   0.536
55181SOL    HW267377   3.908   2.566   0.669
55182SOL     OW67378  14.300   2.177  11.638
55182SOL    HW167379  14.353   2.212  11.710
55182SOL    HW267380  14.218   2.151  11.681
55183SOL     OW67381  12.440  13.173   5.383
55183SOL    HW167382  12.362  13.119   5.375
55183SOL    HW267383  12.421  13.251   5.331
55184SOL     OW67384   9.921   9.699  11.751
55184SOL    HW167385   9.860   9.638  11.793
55184SOL    HW267386   9.960   9.649  11.680
55185SOL     OW67387   4.686   0.731  13.353
55185SOL    HW167388   4.684   0.809  13.409
55185SOL    HW267389   4.692   0.766  13.264
55186SOL     OW67390   1.808   1.680   9.091
55186SOL    HW167391   1.807   1.666   8.997
55186SOL    HW267392   1.793   1.774   9.102
55187SOL     OW67393   1.042   5.350   1.375
55187SOL    HW167394   1.053   5.262   1.337
55187SOL    HW267395   0.948   5.360   1.384
55188SOL     OW67396  14.505   5.186  11.823
55188SOL    HW167397  14.513   5.162  11.915
55188SOL    HW267398  14.463   5.111  11.782
55189SOL     OW67399   9.530  11.871  14.216
55189SOL    HW167400   9.444  11.868  14.258
55189SOL    HW267401   9.583  11.926  14.273
55190SOL     OW67402   2.149   8.071  11.804
55190SOL    HW167403   2.105   8.060  11.889
55190SOL    HW267404   2.079   8.065  11.740
55191SOL     OW67405   2.926   5.357   2.176
55191SOL    HW167406   3.002   5.350   2.234
55191SOL    HW267407   2.950   5.425   2.113
55192SOL     OW67408   1.247  11.929  13.609
55192SOL    HW167409   1.315  11.879  13.655
55192SOL    HW267410   1.288  11.953  13.526
55193SOL     OW67411   0.679  10.708  12.617
55193SOL    HW167412   0.699  10.728  12.525
55193SOL    HW267413   0.692  10.791  12.662
55194SOL     OW67414  10.679   5.763   9.038
55194SOL    HW167415  10.742   5.759   9.110
55194SOL    HW267416  10.614   5.696   9.060
55195SOL     OW67417   0.298   3.872  12.631
55195SOL    HW167418   0.243   3.868  12.553
55195SOL    HW267419   0.370   3.930  12.607
55196SOL     OW67420  12.708  13.800   1.499
55196SOL    HW167421  12.702  13.705   1.511
55196SOL    HW267422  12.619  13.832   1.516
55197SOL     OW67423  10.617   7.926  11.351
55197SOL    HW167424  10.543   7.895  11.404
55197SOL    HW267425  10.693   7.882  11.389
55198SOL     OW67426   3.634  14.811   6.637
55198SOL    HW167427   3.602   0.009   6.683
55198SOL    HW267428   3.726  14.804   6.663
55199SOL     OW67429   7.475  13.927   2.975
55199SOL    HW167430   7.428  13.888   3.048
55199SOL    HW267431   7.422  13.906   2.898
55200SOL     OW67432   8.442   9.079   1.800
55200SOL    HW167433   8.425   9.052   1.890
55200SOL    HW267434   8.520   9.133   1.805
55201SOL     OW67435   8.089  11.154   6.683
55201SOL    HW167436   8.060  11.243   6.665
55201SOL    HW267437   8.165  11.141   6.626
55202SOL     OW67438   6.910   7.247  12.207
55202SOL    HW167439   6.890   7.339  12.227
55202SOL    HW267440   6.872   7.198  12.280
55203SOL     OW67441   2.942  14.425   2.270
55203SOL    HW167442   2.922  14.418   2.176
55203SOL    HW267443   2.890  14.500   2.299
55204SOL     OW67444   7.861  11.053   9.547
55204SOL    HW167445   7.825  11.079   9.632
55204SOL    HW267446   7.939  11.106   9.536
55205SOL     OW67447   6.393  11.046   7.961
55205SOL    HW167448   6.476  11.013   7.927
55205SOL    HW267449   6.336  10.969   7.965
55206SOL     OW67450   9.537   6.838   5.731
55206SOL    HW167451   9.470   6.786   5.776
55206SOL    HW267452   9.510   6.929   5.747
55207SOL     OW67453   2.139   5.524   8.714
55207SOL    HW167454   2.107   5.501   8.801
55207SOL    HW267455   2.221   5.476   8.704
55208SOL     OW67456   4.350   9.183   6.310
55208SOL    HW167457   4.255   9.192   6.301
55208SOL    HW267458   4.363   9.164   6.403
55209SOL     OW67459  10.962   2.547   1.198
55209SOL    HW167460  10.899   2.616   1.218
55209SOL    HW267461  10.943   2.522   1.108
55210SOL     OW67462   8.798  10.195   3.794
55210SOL    HW167463   8.763  10.274   3.752
55210SOL    HW267464   8.737  10.177   3.866
55211SOL     OW67465  14.734   0.504   3.538
55211SOL    HW167466  14.802   0.527   3.601
55211SOL    HW267467  14.654   0.541   3.575
55212SOL     OW67468   1.877   6.304  13.719
55212SOL    HW167469   1.951   6.244  13.724
55212SOL    HW267470   1.801   6.250  13.742
55213SOL     OW67471   2.269  13.923  11.066
55213SOL    HW167472   2.325  13.996  11.038
55213SOL    HW267473   2.208  13.911  10.993
55214SOL     OW67474   1.452  13.643  14.560
55214SOL    HW167475   1.385  13.643  14.491
55214SOL    HW267476   1.444  13.557  14.601
55215SOL     OW67477  12.732   3.636   5.572
55215SOL    HW167478  12.648   3.680   5.580
55215SOL    HW267479  12.731   3.598   5.484
55216SOL     OW67480   7.352  12.900   1.614
55216SOL    HW167481   7.386  12.829   1.559
55216SOL    HW267482   7.424  12.963   1.618
55217SOL     OW67483   3.110   1.359   0.838
55217SOL    HW167484   3.079   1.316   0.918
55217SOL    HW267485   3.081   1.449   0.847
55218SOL     OW67486   6.527   0.893   2.532
55218SOL    HW167487   6.536   0.964   2.596
55218SOL    HW267488   6.500   0.817   2.584
55219SOL     OW67489   8.366  14.244   6.363
55219SOL    HW167490   8.339  14.311   6.426
55219SOL    HW267491   8.413  14.293   6.296
55220SOL     OW67492   8.361   5.063  12.961
55220SOL    HW167493   8.366   5.026  12.873
55220SOL    HW267494   8.283   5.119  12.959
55221SOL     OW67495   9.282   5.769  12.393
55221SOL    HW167496   9.327   5.736  12.315
55221SOL    HW267497   9.296   5.702  12.460
55222SOL     OW67498   6.415   2.408   4.885
55222SOL    HW167499   6.383   2.364   4.964
55222SOL    HW267500   6.489   2.355   4.856
55223SOL     OW67501   3.349   7.721   7.362
55223SOL    HW167502   3.365   7.809   7.396
55223SOL    HW267503   3.435   7.688   7.336
55224SOL     OW67504   6.965   7.086   0.417
55224SOL    HW167505   6.950   7.006   0.368
55224SOL    HW267506   7.060   7.095   0.420
55225SOL     OW67507  13.894   7.159   4.225
55225SOL    HW167508  13.950   7.223   4.180
55225SOL    HW267509  13.843   7.210   4.287
55226SOL     OW67510  12.637  10.762   4.525
55226SOL    HW167511  12.725  10.784   4.554
55226SOL    HW267512  12.629  10.668   4.538
55227SOL     OW67513   0.140  11.615   0.443
55227SOL    HW167514   0.164  11.644   0.355
55227SOL    HW267515   0.047  11.637   0.452
55228SOL     OW67516   1.406  11.842  10.441
55228SOL    HW167517   1.474  11.807  10.383
55228SOL    HW267518   1.444  11.835  10.529
55229SOL     OW67519  11.036   5.641   7.558
55229SOL    HW167520  10.999   5.643   7.646
55229SOL    HW267521  11.082   5.724   7.549
55230SOL     OW67522   6.170   4.238   8.412
55230SOL    HW167523   6.238   4.189   8.459
55230SOL    HW267524   6.156   4.316   8.465
55231SOL     OW67525  14.470   0.460   2.457
55231SOL    HW167526  14.459   0.460   2.552
55231SOL    HW267527  14.447   0.371   2.430
55232SOL     OW67528   6.665  12.035  11.523
55232SOL    HW167529   6.611  11.991  11.458
55232SOL    HW267530   6.653  11.984  11.603
55233SOL     OW67531  10.268   6.740   6.078
55233SOL    HW167532  10.272   6.652   6.041
55233SOL    HW267533  10.357   6.773   6.071
55234SOL     OW67534   5.292  11.334   6.747
55234SOL    HW167535   5.274  11.271   6.677
55234SOL    HW267536   5.247  11.297   6.824
55235SOL     OW67537   0.254  13.167   9.382
55235SOL    HW167538   0.215  13.138   9.465
55235SOL    HW267539   0.319  13.100   9.361
55236SOL     OW67540   1.990  10.955   2.511
55236SOL    HW167541   1.985  10.975   2.604
55236SOL    HW267542   1.931  11.018   2.469
55237SOL     OW67543  12.349   4.246   8.993
55237SOL    HW167544  12.424   4.217   9.044
55237SOL    HW267545  12.273   4.210   9.039
55238SOL     OW67546   5.351  14.160  13.139
55238SOL    HW167547   5.323  14.246  13.108
55238SOL    HW267548   5.407  14.127  13.068
55239SOL     OW67549   8.015  12.952   2.224
55239SOL    HW167550   7.922  12.950   2.202
55239SOL    HW267551   8.058  12.911   2.148
55240SOL     OW67552   0.611  11.739   2.083
55240SOL    HW167553   0.552  11.665   2.098
55240SOL    HW267554   0.682  11.702   2.031
55241SOL     OW67555  12.975   0.813   3.550
55241SOL    HW167556  12.999   0.895   3.507
55241SOL    HW267557  12.909   0.774   3.492
55242SOL     OW67558  12.601   7.629   0.331
55242SOL    HW167559  12.573   7.706   0.381
55242SOL    HW267560  12.591   7.654   0.240
55243SOL     OW67561   2.144   5.382  12.070
55243SOL    HW167562   2.211   5.391  12.137
55243SOL    HW267563   2.093   5.463  12.077
55244SOL     OW67564  11.471   8.252  10.768
55244SOL    HW167565  11.535   8.268  10.838
55244SOL    HW267566  11.506   8.298  10.692
55245SOL     OW67567  12.067   3.897   5.297
55245SOL    HW167568  12.148   3.847   5.284
55245SOL    HW267569  12.079   3.976   5.244
55246SOL     OW67570  10.938   9.742   8.092
55246SOL    HW167571  10.932   9.696   8.176
55246SOL    HW267572  10.931   9.834   8.115
55247SOL     OW67573   5.434   8.063   5.564
55247SOL    HW167574   5.368   8.028   5.504
55247SOL    HW267575   5.384   8.095   5.639
55248SOL     OW67576   3.184   3.973   9.708
55248SOL    HW167577   3.207   4.046   9.766
55248SOL    HW267578   3.171   3.899   9.767
55249SOL     OW67579  10.031   4.868  14.148
55249SOL    HW167580   9.955   4.925  14.135
55249SOL    HW267581  10.077   4.907  14.222
55250SOL     OW67582   7.759  11.480   7.659
55250SOL    HW167583   7.702  11.557   7.658
55250SOL    HW267584   7.705  11.411   7.697
55251SOL     OW67585   7.381   4.089   7.997
55251SOL    HW167586   7.387   4.174   8.041
55251SOL    HW267587   7.441   4.033   8.046
55252SOL     OW67588   3.033   7.948  13.570
55252SOL    HW167589   3.049   7.882  13.503
55252SOL    HW267590   3.096   7.928  13.639
55253SOL     OW67591  11.268  14.630   7.045
55253SOL    HW167592  11.330  14.702   7.035
55253SOL    HW267593  11.292  14.568   6.976
55254SOL     OW67594   5.086   5.335  10.780
55254SOL    HW167595   5.107   5.244  10.762
55254SOL    HW267596   5.132   5.385  10.712
55255SOL     OW67597   1.419  11.337   5.962
55255SOL    HW167598   1.371  11.315   5.882
55255SOL    HW267599   1.434  11.253   6.005
55256SOL     OW67600   1.694   9.007   4.918
55256SOL    HW167601   1.756   8.988   4.848
55256SOL    HW267602   1.677   8.921   4.957
55257SOL     OW67603   6.024   4.967   3.708
55257SOL    HW167604   5.976   5.047   3.729
55257SOL    HW267605   6.076   4.989   3.631
55258SOL     OW67606   7.836  14.728  13.073
55258SOL    HW167607   7.878  14.665  13.130
55258SOL    HW267608   7.870  14.813  13.102
55259SOL     OW67609  11.130   0.681   9.700
55259SOL    HW167610  11.098   0.771   9.702
55259SOL    HW267611  11.054   0.629   9.672
55260SOL     OW67612  13.616  10.417   5.217
55260SOL    HW167613  13.672  10.368   5.157
55260SOL    HW267614  13.559  10.469   5.159
55261SOL     OW67615  14.703   7.297  12.153
55261SOL    HW167616  14.779   7.274  12.206
55261SOL    HW267617  14.668   7.376  12.194
55262SOL     OW67618   3.376  13.726   5.609
55262SOL    HW167619   3.406  13.813   5.580
55262SOL    HW267620   3.385  13.729   5.705
55263SOL     OW67621   6.821   3.734   2.914
55263SOL    HW167622   6.880   3.807   2.900
55263SOL    HW267623   6.737   3.765   2.880
55264SOL     OW67624  13.312  13.627  14.123
55264SOL    HW167625  13.399  13.637  14.086
55264SOL    HW267626  13.319  13.553  14.184
55265SOL     OW67627  14.388   9.908   5.719
55265SOL    HW167628  14.391   9.997   5.685
55265SOL    HW267629  14.361   9.918   5.811
55266SOL     OW67630  13.723   5.378  14.230
55266SOL    HW167631  13.801   5.419  14.193
55266SOL    HW267632  13.689   5.444  14.291
55267SOL     OW67633   4.843   8.868   6.779
55267SOL    HW167634   4.920   8.826   6.740
55267SOL    HW267635   4.802   8.798   6.830
55268SOL     OW67636   4.490  13.649   8.470
55268SOL    HW167637   4.526  13.659   8.558
55268SOL    HW267638   4.546  13.702   8.415
55269SOL     OW67639  14.257   8.567  11.038
55269SOL    HW167640  14.340   8.586  10.993
55269SOL    HW267641  14.194   8.552  10.968
55270SOL     OW67642   9.165  13.333   9.218
55270SOL    HW167643   9.234  13.326   9.152
55270SOL    HW267644   9.195  13.277   9.290
55271SOL     OW67645   9.286  12.025   4.770
55271SOL    HW167646   9.228  12.099   4.787
55271SOL    HW267647   9.239  11.949   4.803
55272SOL     OW67648   9.289   2.271   5.484
55272SOL    HW167649   9.339   2.351   5.470
55272SOL    HW267650   9.197   2.299   5.477
55273SOL     OW67651  11.162   8.169  11.010
55273SOL    HW167652  11.187   8.254  10.974
55273SOL    HW267653  11.067   8.174  11.021
55274SOL     OW67654  11.491   7.188   4.367
55274SOL    HW167655  11.499   7.183   4.272
55274SOL    HW267656  11.459   7.102   4.393
55275SOL     OW67657   0.261   7.794   5.764
55275SOL    HW167658   0.232   7.704   5.781
55275SOL    HW267659   0.356   7.786   5.755
55276SOL     OW67660   6.779   7.042  10.612
55276SOL    HW167661   6.806   7.131  10.592
55276SOL    HW267662   6.699   7.029  10.561
55277SOL     OW67663   3.510  13.210  11.634
55277SOL    HW167664   3.519  13.146  11.564
55277SOL    HW267665   3.524  13.160  11.714
55278SOL     OW67666  14.602   0.465   8.701
55278SOL    HW167667  14.654   0.529   8.748
55278SOL    HW267668  14.584   0.396   8.765
55279SOL     OW67669   2.349  11.064  13.214
55279SOL    HW167670   2.300  11.024  13.141
55279SOL    HW267671   2.342  11.158  13.199
55280SOL     OW67672   0.129   5.547  13.314
55280SOL    HW167673   0.136   5.478  13.249
55280SOL    HW267674   0.108   5.502  13.396
55281SOL     OW67675   7.253   9.733  10.871
55281SOL    HW167676   7.242   9.639  10.888
55281SOL    HW267677   7.287   9.737  10.781
55282SOL     OW67678   4.224   3.406   7.278
55282SOL    HW167679   4.136   3.441   7.263
55282SOL    HW267680   4.276   3.481   7.305
55283SOL     OW67681   7.214   9.713  13.198
55283SOL    HW167682   7.179   9.797  13.229
55283SOL    HW267683   7.233   9.728  13.105
55284SOL     OW67684   3.531   2.961  10.202
55284SOL    HW167685   3.556   2.910  10.279
55284SOL    HW267686   3.612   2.970  10.153
55285SOL     OW67687   9.804   9.065   1.309
55285SOL    HW167688   9.742   9.133   1.284
55285SOL    HW267689   9.776   9.037   1.396
55286SOL     OW67690  13.306   7.016   4.260
55286SOL    HW167691  13.285   7.093   4.313
55286SOL    HW267692  13.240   7.017   4.190
55287SOL     OW67693   6.083  13.995   2.918
55287SOL    HW167694   6.041  13.928   2.972
55287SOL    HW267695   6.174  13.967   2.912
55288SOL     OW67696  12.700   1.994  14.041
55288SOL    HW167697  12.719   1.943  13.962
55288SOL    HW267698  12.691   2.084  14.010
55289SOL     OW67699  14.281   0.136   7.304
55289SOL    HW167700  14.324   0.062   7.262
55289SOL    HW267701  14.292   0.208   7.243
55290SOL     OW67702  11.635   3.318   4.772
55290SOL    HW167703  11.547   3.337   4.804
55290SOL    HW267704  11.623   3.247   4.708
55291SOL     OW67705   3.390  13.453  10.901
55291SOL    HW167706   3.319  13.483  10.844
55291SOL    HW267707   3.467  13.450  10.843
55292SOL     OW67708   6.686   4.193   6.057
55292SOL    HW167709   6.747   4.266   6.060
55292SOL    HW267710   6.689   4.162   5.967
55293SOL     OW67711  12.864   5.269  10.260
55293SOL    HW167712  12.934   5.232  10.315
55293SOL    HW267713  12.785   5.261  10.313
55294SOL     OW67714   2.659   8.879   8.745
55294SOL    HW167715   2.652   8.903   8.653
55294SOL    HW267716   2.568   8.873   8.775
55295SOL     OW67717   9.186   4.132   1.778
55295SOL    HW167718   9.215   4.084   1.855
55295SOL    HW267719   9.183   4.224   1.806
55296SOL     OW67720   3.879  11.675   3.910
55296SOL    HW167721   3.797  11.625   3.917
55296SOL    HW267722   3.866  11.731   3.834
55297SOL     OW67723   2.018   7.024   3.713
55297SOL    HW167724   2.057   7.106   3.742
55297SOL    HW267725   1.958   7.049   3.643
55298SOL     OW67726   9.722   5.330   1.592
55298SOL    HW167727   9.707   5.301   1.682
55298SOL    HW267728   9.794   5.276   1.560
55299SOL     OW67729   4.722   6.179   5.351
55299SOL    HW167730   4.741   6.234   5.275
55299SOL    HW267731   4.640   6.135   5.329
55300SOL     OW67732  13.918   3.889  14.166
55300SOL    HW167733  14.006   3.925  14.179
55300SOL    HW267734  13.896   3.914  14.076
55301SOL     OW67735   2.750  11.715   1.875
55301SOL    HW167736   2.659  11.698   1.852
55301SOL    HW267737   2.800  11.679   1.801
55302SOL     OW67738   9.577   4.688   7.411
55302SOL    HW167739   9.586   4.650   7.499
55302SOL    HW267740   9.598   4.781   7.423
55303SOL     OW67741   0.860   5.664   5.306
55303SOL    HW167742   0.816   5.675   5.221
55303SOL    HW267743   0.906   5.747   5.319
55304SOL     OW67744  12.965   9.343  13.393
55304SOL    HW167745  12.911   9.269  13.366
55304SOL    HW267746  12.951   9.350  13.487
55305SOL     OW67747   3.337   0.900   9.385
55305SOL    HW167748   3.333   0.818   9.433
55305SOL    HW267749   3.430   0.924   9.385
55306SOL     OW67750  10.589   4.200  12.214
55306SOL    HW167751  10.575   4.112  12.248
55306SOL    HW267752  10.613   4.186  12.122
55307SOL     OW67753  13.057   1.828   6.024
55307SOL    HW167754  12.986   1.855   6.083
55307SOL    HW267755  13.068   1.734   6.040
55308SOL     OW67756  13.277  13.918  14.120
55308SOL    HW167757  13.265  13.829  14.155
55308SOL    HW267758  13.205  13.968  14.157
55309SOL     OW67759   1.198  14.802   7.751
55309SOL    HW167760   1.154  14.771   7.671
55309SOL    HW267761   1.178  14.735   7.816
55310SOL     OW67762   1.262   6.328   9.210
55310SOL    HW167763   1.213   6.292   9.136
55310SOL    HW267764   1.253   6.423   9.200
55311SOL     OW67765  14.238   1.133  12.814
55311SOL    HW167766  14.305   1.181  12.764
55311SOL    HW267767  14.158   1.142  12.762
55312SOL     OW67768  13.236   4.171   6.654
55312SOL    HW167769  13.188   4.095   6.621
55312SOL    HW267770  13.178   4.211   6.718
55313SOL     OW67771   3.214  11.148   6.383
55313SOL    HW167772   3.269  11.088   6.434
55313SOL    HW267773   3.242  11.136   6.292
55314SOL     OW67774   2.561   9.670  12.618
55314SOL    HW167775   2.493   9.635  12.676
55314SOL    HW267776   2.550   9.765  12.621
55315SOL     OW67777   4.322   8.459   9.453
55315SOL    HW167778   4.381   8.393   9.490
55315SOL    HW267779   4.249   8.463   9.514
55316SOL     OW67780  14.824  13.358   6.482
55316SOL    HW167781  14.742  13.372   6.435
55316SOL    HW267782   0.004  13.425   6.447
55317SOL     OW67783   7.099   6.949   6.029
55317SOL    HW167784   7.069   6.962   6.119
55317SOL    HW267785   7.064   6.863   6.005
55318SOL     OW67786   4.107   2.768   6.259
55318SOL    HW167787   4.176   2.732   6.315
55318SOL    HW267788   4.027   2.760   6.310
55319SOL     OW67789   5.530   7.159  14.352
55319SOL    HW167790   5.608   7.120  14.391
55319SOL    HW267791   5.564   7.221  14.288
55320SOL     OW67792  13.391   9.350   7.104
55320SOL    HW167793  13.392   9.318   7.194
55320SOL    HW267794  13.307   9.395   7.096
55321SOL     OW67795  13.253   5.224  14.456
55321SOL    HW167796  13.277   5.276  14.533
55321SOL    HW267797  13.325   5.236  14.394
55322SOL     OW67798   9.474  14.324   6.069
55322SOL    HW167799   9.408  14.327   6.001
55322SOL    HW267800   9.499  14.232   6.075
55323SOL     OW67801  10.440   4.569   5.203
55323SOL    HW167802  10.401   4.482   5.192
55323SOL    HW267803  10.488   4.584   5.122
55324SOL     OW67804   4.269  11.141  14.407
55324SOL    HW167805   4.275  11.053  14.370
55324SOL    HW267806   4.225  11.193  14.340
55325SOL     OW67807   0.527  11.711   1.232
55325SOL    HW167808   0.558  11.755   1.153
55325SOL    HW267809   0.591  11.733   1.299
55326SOL     OW67810  10.205   3.977   6.558
55326SOL    HW167811  10.255   4.057   6.543
55326SOL    HW267812  10.135   3.981   6.493
55327SOL     OW67813  14.057   9.252   7.954
55327SOL    HW167814  14.034   9.329   8.006
55327SOL    HW267815  14.085   9.187   8.019
55328SOL     OW67816  12.144  11.689   1.069
55328SOL    HW167817  12.135  11.602   1.030
55328SOL    HW267818  12.233  11.716   1.049
55329SOL     OW67819  12.632   5.410   3.175
55329SOL    HW167820  12.717   5.395   3.134
55329SOL    HW267821  12.578   5.445   3.105
55330SOL     OW67822  12.335   3.707   4.626
55330SOL    HW167823  12.322   3.615   4.647
55330SOL    HW267824  12.308   3.715   4.535
55331SOL     OW67825   4.981  11.212  14.118
55331SOL    HW167826   5.075  11.230  14.107
55331SOL    HW267827   4.937  11.281  14.068
55332SOL     OW67828  14.001  11.902  11.589
55332SOL    HW167829  13.954  11.975  11.547
55332SOL    HW267830  13.976  11.906  11.681
55333SOL     OW67831  10.636   4.446   5.926
55333SOL    HW167832  10.632   4.400   6.010
55333SOL    HW267833  10.577   4.397   5.869
55334SOL     OW67834   0.608   0.652   9.116
55334SOL    HW167835   0.584   0.699   9.197
55334SOL    HW267836   0.631   0.564   9.146
55335SOL     OW67837   5.912  11.412   0.551
55335SOL    HW167838   5.885  11.351   0.619
55335SOL    HW267839   5.987  11.458   0.588
55336SOL     OW67840  10.499   6.648   9.836
55336SOL    HW167841  10.584   6.606   9.832
55336SOL    HW267842  10.455   6.621   9.755
55337SOL     OW67843   2.623  11.819   7.582
55337SOL    HW167844   2.536  11.858   7.596
55337SOL    HW267845   2.644  11.839   7.491
55338SOL     OW67846  10.890  13.278   7.373
55338SOL    HW167847  10.871  13.349   7.312
55338SOL    HW267848  10.837  13.297   7.450
55339SOL     OW67849  11.446   5.266   0.694
55339SOL    HW167850  11.524   5.233   0.739
55339SOL    HW267851  11.415   5.338   0.750
55340SOL     OW67852  12.904   1.207   1.337
55340SOL    HW167853  12.888   1.301   1.341
55340SOL    HW267854  12.834   1.172   1.282
55341SOL     OW67855   0.992  12.175  10.321
55341SOL    HW167856   0.971  12.095  10.369
55341SOL    HW267857   1.005  12.146  10.230
55342SOL     OW67858   0.875   4.362   2.237
55342SOL    HW167859   0.940   4.348   2.307
55342SOL    HW267860   0.832   4.278   2.228
55343SOL     OW67861   1.927  11.378  11.679
55343SOL    HW167862   1.858  11.438  11.651
55343SOL    HW267863   1.910  11.364  11.772
55344SOL     OW67864   4.955   9.480   4.046
55344SOL    HW167865   5.034   9.491   4.098
55344SOL    HW267866   4.978   9.515   3.960
55345SOL     OW67867   7.279   2.113   6.592
55345SOL    HW167868   7.366   2.089   6.622
55345SOL    HW267869   7.237   2.154   6.667
55346SOL     OW67870   5.413   7.239   0.719
55346SOL    HW167871   5.497   7.279   0.699
55346SOL    HW267872   5.386   7.196   0.637
55347SOL     OW67873   7.608  10.374   0.952
55347SOL    HW167874   7.608  10.322   1.032
55347SOL    HW267875   7.667  10.327   0.893
55348SOL     OW67876   0.926   5.944   4.810
55348SOL    HW167877   0.932   5.850   4.797
55348SOL    HW267878   0.975   5.982   4.737
55349SOL     OW67879   2.491   6.165  14.046
55349SOL    HW167880   2.443   6.208  13.976
55349SOL    HW267881   2.505   6.076  14.014
55350SOL     OW67882   6.821  10.809   9.331
55350SOL    HW167883   6.896  10.790   9.388
55350SOL    HW267884   6.860  10.841   9.250
55351SOL     OW67885   1.596  14.125   0.118
55351SOL    HW167886   1.578  14.213   0.085
55351SOL    HW267887   1.651  14.085   0.050
55352SOL     OW67888   2.081  12.988   8.525
55352SOL    HW167889   2.082  12.893   8.536
55352SOL    HW267890   1.992  13.014   8.545
55353SOL     OW67891   5.832   7.387   5.797
55353SOL    HW167892   5.899   7.418   5.857
55353SOL    HW267893   5.817   7.296   5.823
55354SOL     OW67894  12.720   5.693   3.612
55354SOL    HW167895  12.658   5.704   3.684
55354SOL    HW267896  12.781   5.626   3.643
55355SOL     OW67897  11.004   4.116   7.558
55355SOL    HW167898  11.068   4.101   7.488
55355SOL    HW267899  11.054   4.105   7.638
55356SOL     OW67900   2.883  11.725   2.913
55356SOL    HW167901   2.827  11.662   2.866
55356SOL    HW267902   2.897  11.795   2.850
55357SOL     OW67903   5.581   7.560   6.046
55357SOL    HW167904   5.664   7.595   6.016
55357SOL    HW267905   5.560   7.490   5.983
55358SOL     OW67906   0.586  10.662   8.283
55358SOL    HW167907   0.520  10.642   8.217
55358SOL    HW267908   0.557  10.615   8.361
55359SOL     OW67909   7.062   1.206  10.714
55359SOL    HW167910   7.104   1.159  10.787
55359SOL    HW267911   6.980   1.158  10.700
55360SOL     OW67912  11.413   3.969   8.902
55360SOL    HW167913  11.333   3.923   8.926
55360SOL    HW267914  11.468   3.902   8.861
55361SOL     OW67915  10.602   5.725   5.098
55361SOL    HW167916  10.556   5.644   5.119
55361SOL    HW267917  10.638   5.754   5.182
55362SOL     OW67918   4.995   1.850   8.943
55362SOL    HW167919   5.060   1.861   8.873
55362SOL    HW267920   5.047   1.828   9.020
55363SOL     OW67921   7.893   8.685   0.357
55363SOL    HW167922   7.813   8.728   0.387
55363SOL    HW267923   7.957   8.704   0.426
55364SOL     OW67924   7.319   6.359   0.302
55364SOL    HW167925   7.405   6.378   0.263
55364SOL    HW267926   7.305   6.431   0.364
55365SOL     OW67927  13.918   2.150  12.613
55365SOL    HW167928  13.976   2.207  12.563
55365SOL    HW267929  13.942   2.062  12.584
55366SOL     OW67930  13.000   2.901   0.280
55366SOL    HW167931  12.989   2.983   0.327
55366SOL    HW267932  13.085   2.867   0.310
55367SOL     OW67933   0.056   2.871   2.012
55367SOL    HW167934  14.845   2.857   1.983
55367SOL    HW267935   0.110   2.821   1.950
55368SOL     OW67936  11.830   5.934   8.765
55368SOL    HW167937  11.849   5.844   8.791
55368SOL    HW267938  11.915   5.976   8.758
55369SOL     OW67939   4.352   6.021   7.730
55369SOL    HW167940   4.379   6.111   7.715
55369SOL    HW267941   4.407   5.991   7.803
55370SOL     OW67942  13.902   0.672   6.720
55370SOL    HW167943  13.829   0.613   6.703
55370SOL    HW267944  13.867   0.760   6.701
55371SOL     OW67945   0.531   4.149  11.652
55371SOL    HW167946   0.625   4.141  11.639
55371SOL    HW267947   0.493   4.137  11.565
55372SOL     OW67948   9.527  13.097  10.854
55372SOL    HW167949   9.509  13.136  10.769
55372SOL    HW267950   9.499  13.006  10.845
55373SOL     OW67951  13.874  12.306   8.450
55373SOL    HW167952  13.887  12.384   8.395
55373SOL    HW267953  13.788  12.274   8.426
55374SOL     OW67954  14.604   6.471   5.079
55374SOL    HW167955  14.660   6.396   5.057
55374SOL    HW267956  14.538   6.473   5.010
55375SOL     OW67957   6.015   0.643  14.331
55375SOL    HW167958   5.919   0.642  14.339
55375SOL    HW267959   6.035   0.565  14.278
55376SOL     OW67960   5.071  13.009   1.620
55376SOL    HW167961   5.044  13.033   1.709
55376SOL    HW267962   4.990  12.987   1.575
55377SOL     OW67963   2.215   3.481  12.871
55377SOL    HW167964   2.209   3.554  12.933
55377SOL    HW267965   2.124   3.461  12.850
55378SOL     OW67966   0.505  11.299   0.628
55378SOL    HW167967   0.460  11.313   0.545
55378SOL    HW267968   0.440  11.257   0.684
55379SOL     OW67969   1.419  10.803   8.035
55379SOL    HW167970   1.361  10.845   8.099
55379SOL    HW267971   1.425  10.712   8.065
55380SOL     OW67972   6.981   1.186  11.615
55380SOL    HW167973   6.889   1.161  11.605
55380SOL    HW267974   7.021   1.111  11.659
55381SOL     OW67975  10.656   8.637   4.574
55381SOL    HW167976  10.704   8.679   4.645
55381SOL    HW267977  10.585   8.590   4.618
55382SOL     OW67978   4.950  14.531   1.090
55382SOL    HW167979   4.913  14.616   1.069
55382SOL    HW267980   4.946  14.482   1.008
55383SOL     OW67981   6.254  10.794  13.508
55383SOL    HW167982   6.271  10.768  13.418
55383SOL    HW267983   6.267  10.713  13.559
55384SOL     OW67984   1.502   8.079   7.395
55384SOL    HW167985   1.475   8.170   7.400
55384SOL    HW267986   1.420   8.030   7.391
55385SOL     OW67987  12.446   7.586  14.352
55385SOL    HW167988  12.355   7.613  14.366
55385SOL    HW267989  12.466   7.528  14.425
55386SOL     OW67990   6.564  10.182   3.020
55386SOL    HW167991   6.513  10.214   2.945
55386SOL    HW267992   6.650  10.161   2.984
55387SOL     OW67993   9.739   8.604  11.936
55387SOL    HW167994   9.746   8.693  11.971
55387SOL    HW267995   9.710   8.615  11.846
55388SOL     OW67996   3.670  14.248  11.821
55388SOL    HW167997   3.764  14.235  11.835
55388SOL    HW267998   3.655  14.223  11.730
55389SOL     OW67999   3.037  14.433   0.186
55389SOL    HW168000   3.118  14.483   0.170
55389SOL    HW268001   3.061  14.371   0.255
55390SOL     OW68002   5.021  11.469   4.106
55390SOL    HW168003   4.967  11.403   4.063
55390SOL    HW268004   5.073  11.419   4.170
55391SOL     OW68005  11.904   8.048   1.089
55391SOL    HW168006  11.815   8.014   1.083
55391SOL    HW268007  11.912   8.110   1.017
55392SOL     OW68008   6.259  10.760  11.146
55392SOL    HW168009   6.207  10.685  11.117
55392SOL    HW268010   6.221  10.835  11.101
55393SOL     OW68011   1.295   1.310   7.953
55393SOL    HW168012   1.329   1.244   8.013
55393SOL    HW268013   1.225   1.353   8.002
55394SOL     OW68014   2.665  11.143   4.277
55394SOL    HW168015   2.687  11.052   4.299
55394SOL    HW268016   2.569  11.144   4.274
55395SOL     OW68017  13.462   9.911   5.261
55395SOL    HW168018  13.434   9.942   5.175
55395SOL    HW268019  13.407   9.959   5.323
55396SOL     OW68020  10.228  13.451   5.144
55396SOL    HW168021  10.291  13.421   5.079
55396SOL    HW268022  10.176  13.374   5.165
55397SOL     OW68023   5.629   1.857  13.485
55397SOL    HW168024   5.708   1.848  13.432
55397SOL    HW268025   5.660   1.893  13.568
55398SOL     OW68026   8.277  12.997   4.464
55398SOL    HW168027   8.207  12.957   4.413
55398SOL    HW268028   8.356  12.987   4.410
55399SOL     OW68029   1.201   7.786   0.250
55399SOL    HW168030   1.138   7.853   0.222
55399SOL    HW268031   1.241   7.823   0.328
55400SOL     OW68032  10.868  12.454   3.523
55400SOL    HW168033  10.871  12.359   3.517
55400SOL    HW268034  10.812  12.480   3.449
55401SOL     OW68035   0.708   9.822  13.012
55401SOL    HW168036   0.651   9.746  13.006
55401SOL    HW268037   0.738   9.837  12.923
55402SOL     OW68038  13.036   4.404   9.011
55402SOL    HW168039  13.085   4.338   9.059
55402SOL    HW268040  13.087   4.419   8.931
55403SOL     OW68041   0.255   3.165  12.037
55403SOL    HW168042   0.326   3.218  12.000
55403SOL    HW268043   0.294   3.080  12.054
55404SOL     OW68044   9.667   3.303  11.172
55404SOL    HW168045   9.686   3.366  11.241
55404SOL    HW268046   9.661   3.355  11.092
55405SOL     OW68047   2.850  13.141   9.381
55405SOL    HW168048   2.926  13.200   9.379
55405SOL    HW268049   2.782  13.187   9.331
55406SOL     OW68050   7.118  10.302  13.957
55406SOL    HW168051   7.090  10.343  14.038
55406SOL    HW268052   7.213  10.299  13.963
55407SOL     OW68053  14.832  13.956  12.356
55407SOL    HW168054   0.001  14.026  12.312
55407SOL    HW268055   0.017  13.887  12.369
55408SOL     OW68056  11.014   2.324   5.522
55408SOL    HW168057  10.924   2.305   5.550
55408SOL    HW268058  11.024   2.278   5.439
55409SOL     OW68059   3.315   4.335  12.989
55409SOL    HW168060   3.350   4.279  13.058
55409SOL    HW268061   3.220   4.332  13.000
55410SOL     OW68062   6.540   0.411   7.362
55410SOL    HW168063   6.564   0.452   7.445
55410SOL    HW268064   6.531   0.318   7.382
55411SOL     OW68065   5.206  10.182  14.809
55411SOL    HW168066   5.198  10.107  14.751
55411SOL    HW268067   5.130  10.177  14.866
55412SOL     OW68068  14.590   6.056   0.003
55412SOL    HW168069  14.567   6.006  14.803
55412SOL    HW268070  14.506   6.075   0.044
55413SOL     OW68071   1.962  10.526  12.436
55413SOL    HW168072   2.041  10.506  12.387
55413SOL    HW268073   1.923  10.441  12.455
55414SOL     OW68074   8.035  11.481  14.066
55414SOL    HW168075   8.041  11.389  14.038
55414SOL    HW268076   7.982  11.479  14.145
55415SOL     OW68077  13.620  14.240  13.637
55415SOL    HW168078  13.618  14.331  13.607
55415SOL    HW268079  13.706  14.230  13.678
55416SOL     OW68080  14.653   1.010   7.776
55416SOL    HW168081  14.693   1.028   7.861
55416SOL    HW268082  14.560   1.031   7.788
55417SOL     OW68083   0.260   2.202  11.332
55417SOL    HW168084   0.281   2.121  11.286
55417SOL    HW268085   0.323   2.266  11.299
55418SOL     OW68086   1.507   7.098  11.000
55418SOL    HW168087   1.472   7.107  10.911
55418SOL    HW268088   1.433   7.064  11.051
55419SOL     OW68089   0.971  12.102   3.354
55419SOL    HW168090   0.976  12.189   3.315
55419SOL    HW268091   0.959  12.118   3.448
55420SOL     OW68092  13.787  10.189  13.659
55420SOL    HW168093  13.743  10.138  13.591
55420SOL    HW268094  13.716  10.238  13.701
55421SOL     OW68095   9.890  11.202   0.534
55421SOL    HW168096   9.911  11.295   0.520
55421SOL    HW268097   9.801  11.203   0.568
55422SOL     OW68098   7.559  13.168   8.147
55422SOL    HW168099   7.631  13.156   8.208
55422SOL    HW268100   7.596  13.219   8.075
55423SOL     OW68101   6.447   7.179   7.376
55423SOL    HW168102   6.393   7.194   7.298
55423SOL    HW268103   6.493   7.262   7.389
55424SOL     OW68104   3.024   8.001  10.309
55424SOL    HW168105   3.090   7.970  10.247
55424SOL    HW268106   3.057   7.974  10.394
55425SOL     OW68107   3.076   9.099  13.604
55425SOL    HW168108   3.022   9.026  13.572
55425SOL    HW268109   3.162   9.059  13.620
55426SOL     OW68110  12.902  13.397   2.181
55426SOL    HW168111  12.891  13.443   2.098
55426SOL    HW268112  12.825  13.421   2.232
55427SOL     OW68113   9.024   6.002   6.278
55427SOL    HW168114   9.114   6.033   6.280
55427SOL    HW268115   8.977   6.068   6.226
55428SOL     OW68116  13.654  11.460  12.973
55428SOL    HW168117  13.652  11.381  12.919
55428SOL    HW268118  13.613  11.527  12.919
55429SOL     OW68119   6.680   0.592   2.394
55429SOL    HW168120   6.623   0.627   2.325
55429SOL    HW268121   6.657   0.499   2.399
55430SOL     OW68122   9.640   0.544   0.386
55430SOL    HW168123   9.678   0.462   0.419
55430SOL    HW268124   9.625   0.596   0.465
55431SOL     OW68125  10.454  14.012   7.040
55431SOL    HW168126  10.477  13.992   6.949
55431SOL    HW268127  10.388  14.082   7.032
55432SOL     OW68128  14.352  13.849  11.138
55432SOL    HW168129  14.298  13.870  11.062
55432SOL    HW268130  14.291  13.846  11.211
55433SOL     OW68131   3.463   1.042  10.421
55433SOL    HW168132   3.494   1.094  10.347
55433SOL    HW268133   3.386   0.995  10.387
55434SOL     OW68134   0.399   0.265   6.017
55434SOL    HW168135   0.458   0.297   5.948
55434SOL    HW268136   0.353   0.192   5.976
55435SOL     OW68137   0.405   9.482   0.710
55435SOL    HW168138   0.424   9.477   0.803
55435SOL    HW268139   0.343   9.555   0.701
55436SOL     OW68140   2.259   5.384   7.064
55436SOL    HW168141   2.288   5.303   7.023
55436SOL    HW268142   2.181   5.410   7.015
55437SOL     OW68143   1.658   9.423  10.814
55437SOL    HW168144   1.728   9.391  10.871
55437SOL    HW268145   1.696   9.500  10.772
55438SOL     OW68146   3.322   3.611   8.293
55438SOL    HW168147   3.312   3.625   8.387
55438SOL    HW268148   3.390   3.673   8.266
55439SOL     OW68149   6.801   8.215   1.969
55439SOL    HW168150   6.800   8.119   1.965
55439SOL    HW268151   6.849   8.235   2.049
55440SOL     OW68152   4.378   0.025   6.872
55440SOL    HW168153   4.379   0.031   6.967
55440SOL    HW268154   4.324   0.099   6.844
55441SOL     OW68155   7.489   8.378   4.787
55441SOL    HW168156   7.491   8.473   4.783
55441SOL    HW268157   7.501   8.357   4.880
55442SOL     OW68158   7.702   1.214  10.672
55442SOL    HW168159   7.730   1.304  10.655
55442SOL    HW268160   7.781   1.162  10.655
55443SOL     OW68161  13.739   5.937   8.373
55443SOL    HW168162  13.800   5.911   8.304
55443SOL    HW268163  13.775   6.018   8.408
55444SOL     OW68164   2.088   5.664   6.659
55444SOL    HW168165   2.001   5.698   6.679
55444SOL    HW268166   2.072   5.581   6.613
55445SOL     OW68167   2.848   2.305   9.759
55445SOL    HW168168   2.772   2.248   9.773
55445SOL    HW268169   2.900   2.296   9.838
55446SOL     OW68170  14.437   7.301   5.959
55446SOL    HW168171  14.418   7.326   5.868
55446SOL    HW268172  14.366   7.340   6.010
55447SOL     OW68173   1.735   4.589  10.114
55447SOL    HW168174   1.649   4.627  10.096
55447SOL    HW268175   1.751   4.607  10.206
55448SOL     OW68176   0.604   8.757   4.356
55448SOL    HW168177   0.680   8.736   4.410
55448SOL    HW268178   0.610   8.851   4.342
55449SOL     OW68179   6.917   0.079   2.273
55449SOL    HW168180   6.849   0.037   2.219
55449SOL    HW268181   6.999   0.039   2.243
55450SOL     OW68182   9.796   0.731   8.521
55450SOL    HW168183   9.803   0.648   8.475
55450SOL    HW268184   9.797   0.797   8.452
55451SOL     OW68185  10.497   4.157   9.227
55451SOL    HW168186  10.456   4.173   9.312
55451SOL    HW268187  10.526   4.244   9.198
55452SOL     OW68188   3.273  13.536   9.960
55452SOL    HW168189   3.231  13.565   9.878
55452SOL    HW268190   3.340  13.474   9.931
55453SOL     OW68191   5.328   5.753   2.170
55453SOL    HW168192   5.240   5.716   2.156
55453SOL    HW268193   5.383   5.707   2.108
55454SOL     OW68194   2.679  14.632   6.171
55454SOL    HW168195   2.683  14.544   6.209
55454SOL    HW268196   2.638  14.686   6.239
55455SOL     OW68197   9.648   9.357  14.873
55455SOL    HW168198   9.569   9.411  14.868
55455SOL    HW268199   9.703   9.388  14.802
55456SOL     OW68200   6.914  14.638  12.796
55456SOL    HW168201   6.925  14.585  12.875
55456SOL    HW268202   6.836  14.691  12.814
55457SOL     OW68203   4.149  12.949  14.267
55457SOL    HW168204   4.152  12.934  14.361
55457SOL    HW268205   4.240  12.966  14.242
55458SOL     OW68206   0.425   4.602  11.531
55458SOL    HW168207   0.467   4.575  11.449
55458SOL    HW268208   0.392   4.520  11.569
55459SOL     OW68209  13.347   8.887   8.949
55459SOL    HW168210  13.323   8.871   9.040
55459SOL    HW268211  13.264   8.898   8.904
55460SOL     OW68212   2.254   8.124   9.595
55460SOL    HW168213   2.194   8.072   9.541
55460SOL    HW268214   2.231   8.215   9.575
55461SOL     OW68215  11.619   0.896   9.287
55461SOL    HW168216  11.618   0.843   9.207
55461SOL    HW268217  11.712   0.909   9.306
55462SOL     OW68218   8.931   9.724   2.828
55462SOL    HW168219   8.920   9.656   2.895
55462SOL    HW268220   8.856   9.711   2.770
55463SOL     OW68221   0.215  13.072   5.557
55463SOL    HW168222   0.219  13.114   5.643
55463SOL    HW268223   0.123  13.078   5.532
55464SOL     OW68224   2.761   9.933   6.379
55464SOL    HW168225   2.808   9.920   6.297
55464SOL    HW268226   2.826   9.966   6.440
55465SOL     OW68227  11.504  14.870  12.041
55465SOL    HW168228  11.455  14.866  11.959
55465SOL    HW268229  11.576   0.051  12.023
55466SOL     OW68230   2.956  11.141  11.905
55466SOL    HW168231   2.887  11.194  11.864
55466SOL    HW268232   2.945  11.054  11.868
55467SOL     OW68233  12.363  11.030   4.062
55467SOL    HW168234  12.277  10.988   4.066
55467SOL    HW268235  12.365  11.089   4.138
55468SOL     OW68236   6.096   1.652   8.649
55468SOL    HW168237   6.002   1.643   8.664
55468SOL    HW268238   6.128   1.702   8.724
55469SOL     OW68239   4.108   5.046  12.099
55469SOL    HW168240   4.066   5.128  12.073
55469SOL    HW268241   4.036   4.987  12.121
55470SOL     OW68242   4.715  13.107   9.797
55470SOL    HW168243   4.699  13.079   9.887
55470SOL    HW268244   4.809  13.126   9.794
55471SOL     OW68245   1.555  13.443  14.073
55471SOL    HW168246   1.481  13.493  14.039
55471SOL    HW268247   1.599  13.502  14.133
55472SOL     OW68248  10.724   5.526   6.375
55472SOL    HW168249  10.659   5.492   6.313
55472SOL    HW268250  10.671   5.573   6.440
55473SOL     OW68251   0.704   3.487   2.513
55473SOL    HW168252   0.710   3.395   2.488
55473SOL    HW268253   0.718   3.535   2.432
55474SOL     OW68254   3.734   3.028   8.944
55474SOL    HW168255   3.755   3.102   9.002
55474SOL    HW268256   3.659   3.059   8.892
55475SOL     OW68257   8.554   2.357   9.503
55475SOL    HW168258   8.546   2.445   9.466
55475SOL    HW268259   8.643   2.354   9.538
55476SOL     OW68260  14.406   0.373   5.962
55476SOL    HW168261  14.456   0.436   6.014
55476SOL    HW268262  14.317   0.407   5.962
55477SOL     OW68263  14.337   4.307   8.160
55477SOL    HW168264  14.287   4.366   8.103
55477SOL    HW268265  14.342   4.225   8.111
55478SOL     OW68266  13.327   9.941   9.200
55478SOL    HW168267  13.360  10.031   9.201
55478SOL    HW268268  13.232   9.950   9.190
55479SOL     OW68269  10.537   0.658   0.962
55479SOL    HW168270  10.480   0.663   1.040
55479SOL    HW268271  10.615   0.707   0.986
55480SOL     OW68272   7.755   6.641  11.294
55480SOL    HW168273   7.692   6.641  11.223
55480SOL    HW268274   7.730   6.567  11.348
55481SOL     OW68275  11.798   3.631   9.764
55481SOL    HW168276  11.802   3.721   9.797
55481SOL    HW268277  11.842   3.578   9.831
55482SOL     OW68278   9.328  10.370   4.306
55482SOL    HW168279   9.364  10.359   4.217
55482SOL    HW268280   9.264  10.299   4.315
55483SOL     OW68281   5.143   0.141   8.263
55483SOL    HW168282   5.054   0.108   8.277
55483SOL    HW268283   5.189   0.069   8.220
55484SOL     OW68284   5.533   4.516   6.791
55484SOL    HW168285   5.590   4.541   6.864
55484SOL    HW268286   5.526   4.595   6.738
55485SOL     OW68287  11.976  14.728   1.449
55485SOL    HW168288  11.900  14.753   1.397
55485SOL    HW268289  12.009  14.648   1.407
55486SOL     OW68290   2.255   1.014   7.151
55486SOL    HW168291   2.308   1.013   7.231
55486SOL    HW268292   2.205   0.932   7.155
55487SOL     OW68293   9.191   1.031   2.974
55487SOL    HW168294   9.171   1.058   2.884
55487SOL    HW268295   9.157   1.102   3.029
55488SOL     OW68296   5.433   1.726   0.853
55488SOL    HW168297   5.434   1.798   0.916
55488SOL    HW268298   5.400   1.651   0.902
55489SOL     OW68299  11.565   5.062  14.554
55489SOL    HW168300  11.652   5.060  14.593
55489SOL    HW268301  11.533   4.972  14.563
55490SOL     OW68302   9.706   0.567   7.102
55490SOL    HW168303   9.774   0.512   7.142
55490SOL    HW268304   9.647   0.505   7.060
55491SOL     OW68305   0.695   2.766   4.741
55491SOL    HW168306   0.617   2.821   4.746
55491SOL    HW268307   0.736   2.775   4.827
55492SOL     OW68308   4.418  11.930   1.730
55492SOL    HW168309   4.511  11.916   1.749
55492SOL    HW268310   4.380  11.842   1.729
55493SOL     OW68311   3.225   4.856   1.465
55493SOL    HW168312   3.150   4.902   1.503
55493SOL    HW268313   3.278   4.831   1.540
55494SOL     OW68314   8.561  12.010   7.412
55494SOL    HW168315   8.500  11.956   7.361
55494SOL    HW268316   8.504  12.068   7.463
55495SOL     OW68317   5.401   6.972   7.493
55495SOL    HW168318   5.447   7.054   7.511
55495SOL    HW268319   5.349   6.990   7.415
55496SOL     OW68320   6.197  13.220   2.814
55496SOL    HW168321   6.137  13.258   2.879
55496SOL    HW268322   6.244  13.151   2.861
55497SOL     OW68323   0.438   8.694  13.901
55497SOL    HW168324   0.432   8.731  13.989
55497SOL    HW268325   0.528   8.710  13.875
55498SOL     OW68326   8.475   7.527   6.857
55498SOL    HW168327   8.437   7.446   6.893
55498SOL    HW268328   8.471   7.589   6.930
55499SOL     OW68329  10.124   2.321   8.456
55499SOL    HW168330  10.090   2.311   8.545
55499SOL    HW268331  10.046   2.334   8.402
55500SOL     OW68332  12.065  10.162  14.170
55500SOL    HW168333  12.048  10.072  14.145
55500SOL    HW268334  12.080  10.158  14.265
55501SOL     OW68335  13.154   2.981   2.598
55501SOL    HW168336  13.131   2.926   2.672
55501SOL    HW268337  13.250   2.978   2.595
55502SOL     OW68338  13.549   4.476   1.376
55502SOL    HW168339  13.478   4.416   1.398
55502SOL    HW268340  13.601   4.482   1.457
55503SOL     OW68341  11.226   2.650   8.560
55503SOL    HW168342  11.318   2.635   8.582
55503SOL    HW268343  11.179   2.635   8.642
55504SOL     OW68344   4.742   5.397   2.882
55504SOL    HW168345   4.834   5.423   2.873
55504SOL    HW268346   4.715   5.372   2.794
55505SOL     OW68347  11.080   0.462  10.593
55505SOL    HW168348  11.059   0.543  10.547
55505SOL    HW268349  11.175   0.466  10.608
55506SOL     OW68350  12.048   9.230   4.413
55506SOL    HW168351  11.984   9.212   4.344
55506SOL    HW268352  12.131   9.238   4.366
55507SOL     OW68353   2.220  14.497   9.928
55507SOL    HW168354   2.235  14.562   9.997
55507SOL    HW268355   2.294  14.437   9.935
55508SOL     OW68356   8.990  10.254  13.801
55508SOL    HW168357   8.969  10.244  13.893
55508SOL    HW268358   9.047  10.331  13.798
55509SOL     OW68359   7.311  11.602   8.186
55509SOL    HW168360   7.239  11.551   8.148
55509SOL    HW268361   7.269  11.654   8.255
55510SOL     OW68362  11.750   3.606   1.401
55510SOL    HW168363  11.740   3.553   1.481
55510SOL    HW268364  11.661   3.612   1.366
55511SOL     OW68365  13.465  14.387  11.252
55511SOL    HW168366  13.544  14.343  11.222
55511SOL    HW268367  13.395  14.348  11.200
55512SOL     OW68368   1.914   6.629   3.187
55512SOL    HW168369   2.000   6.657   3.155
55512SOL    HW268370   1.933   6.561   3.252
55513SOL     OW68371  10.506   5.136  10.139
55513SOL    HW168372  10.425   5.170  10.099
55513SOL    HW268373  10.574   5.196  10.110
55514SOL     OW68374  13.025  14.166  11.377
55514SOL    HW168375  13.091  14.101  11.354
55514SOL    HW268376  13.075  14.242  11.405
55515SOL     OW68377  10.900  14.029   8.818
55515SOL    HW168378  10.889  14.010   8.725
55515SOL    HW268379  10.976  13.976   8.844
55516SOL     OW68380  10.016  12.158   1.344
55516SOL    HW168381   9.930  12.117   1.350
55516SOL    HW268382  10.008  12.237   1.397
55517SOL     OW68383   1.293   9.827   9.658
55517SOL    HW168384   1.228   9.786   9.714
55517SOL    HW268385   1.246   9.845   9.576
55518SOL     OW68386   6.625   2.778   1.626
55518SOL    HW168387   6.660   2.741   1.707
55518SOL    HW268388   6.656   2.718   1.557
55519SOL     OW68389  11.112   2.825  13.829
55519SOL    HW168390  11.067   2.778  13.759
55519SOL    HW268391  11.152   2.756  13.882
55520SOL     OW68392  14.533   7.680  10.189
55520SOL    HW168393  14.473   7.611  10.162
55520SOL    HW268394  14.612   7.666  10.136
55521SOL     OW68395   3.004   3.836   2.370
55521SOL    HW168396   2.972   3.897   2.304
55521SOL    HW268397   2.925   3.801   2.411
55522SOL     OW68398  12.663   8.849  13.615
55522SOL    HW168399  12.649   8.757  13.637
55522SOL    HW268400  12.576   8.880  13.587
55523SOL     OW68401  12.410  10.296   9.171
55523SOL    HW168402  12.426  10.332   9.084
55523SOL    HW268403  12.478  10.229   9.181
55524SOL     OW68404  12.513   1.472   0.512
55524SOL    HW168405  12.485   1.392   0.467
55524SOL    HW268406  12.453   1.539   0.478
55525SOL     OW68407   6.747   0.782  10.328
55525SOL    HW168408   6.839   0.808  10.325
55525SOL    HW268409   6.746   0.702  10.381
55526SOL     OW68410  13.102  13.779   4.788
55526SOL    HW168411  13.082  13.864   4.748
55526SOL    HW268412  13.129  13.800   4.877
55527SOL     OW68413  13.735   3.349  10.247
55527SOL    HW168414  13.652   3.396  10.255
55527SOL    HW268415  13.802   3.415  10.262
55528SOL     OW68416   4.544   5.327   0.388
55528SOL    HW168417   4.610   5.260   0.405
55528SOL    HW268418   4.549   5.342   0.294
55529SOL     OW68419  13.514   1.596   9.072
55529SOL    HW168420  13.500   1.559   9.159
55529SOL    HW268421  13.433   1.577   9.024
55530SOL     OW68422   7.684   6.549  13.696
55530SOL    HW168423   7.627   6.557  13.772
55530SOL    HW268424   7.641   6.601  13.628
55531SOL     OW68425   4.247   9.946   3.568
55531SOL    HW168426   4.158   9.910   3.568
55531SOL    HW268427   4.236  10.037   3.594
55532SOL     OW68428   7.155   5.739  10.508
55532SOL    HW168429   7.108   5.663  10.542
55532SOL    HW268430   7.146   5.805  10.577
55533SOL     OW68431   2.276   2.812   9.130
55533SOL    HW168432   2.204   2.869   9.102
55533SOL    HW268433   2.232   2.731   9.157
55534SOL     OW68434   5.320   1.426   9.070
55534SOL    HW168435   5.372   1.501   9.099
55534SOL    HW268436   5.240   1.465   9.034
55535SOL     OW68437  13.700   7.131   5.702
55535SOL    HW168438  13.649   7.211   5.689
55535SOL    HW268439  13.775   7.159   5.755
55536SOL     OW68440  12.010  11.319  11.112
55536SOL    HW168441  12.042  11.229  11.117
55536SOL    HW268442  12.090  11.372  11.105
55537SOL     OW68443  12.939   6.755   4.178
55537SOL    HW168444  12.864   6.703   4.150
55537SOL    HW268445  13.015   6.704   4.152
55538SOL     OW68446   2.449  12.815  13.683
55538SOL    HW168447   2.359  12.839  13.660
55538SOL    HW268448   2.461  12.850  13.772
55539SOL     OW68449  13.508   6.669  13.812
55539SOL    HW168450  13.475   6.598  13.756
55539SOL    HW268451  13.504   6.633  13.901
55540SOL     OW68452   6.744  10.801  11.611
55540SOL    HW168453   6.759  10.864  11.540
55540SOL    HW268454   6.649  10.803  11.625
55541SOL     OW68455   8.195  11.487   9.965
55541SOL    HW168456   8.211  11.501  10.059
55541SOL    HW268457   8.191  11.575   9.928
55542SOL     OW68458   1.434  12.839   4.246
55542SOL    HW168459   1.474  12.787   4.316
55542SOL    HW268460   1.343  12.810   4.244
55543SOL     OW68461   2.664   5.578   5.686
55543SOL    HW168462   2.654   5.510   5.620
55543SOL    HW268463   2.693   5.655   5.637
55544SOL     OW68464   3.102   9.511   5.202
55544SOL    HW168465   3.121   9.495   5.109
55544SOL    HW268466   3.184   9.547   5.237
55545SOL     OW68467  14.373   8.456   2.811
55545SOL    HW168468  14.358   8.512   2.735
55545SOL    HW268469  14.301   8.476   2.871
55546SOL     OW68470  10.406   8.248   8.032
55546SOL    HW168471  10.384   8.160   8.001
55546SOL    HW268472  10.378   8.249   8.123
55547SOL     OW68473  13.966   6.850   0.997
55547SOL    HW168474  13.908   6.914   0.954
55547SOL    HW268475  14.014   6.809   0.925
55548SOL     OW68476  13.310   7.293  10.641
55548SOL    HW168477  13.384   7.265  10.588
55548SOL    HW268478  13.287   7.380  10.606
55549SOL     OW68479   8.758   4.608   5.268
55549SOL    HW168480   8.751   4.512   5.266
55549SOL    HW268481   8.673   4.639   5.235
55550SOL     OW68482  14.577   0.739  10.227
55550SOL    HW168483  14.516   0.715  10.157
55550SOL    HW268484  14.526   0.733  10.307
55551SOL     OW68485   7.242  12.402   1.965
55551SOL    HW168486   7.306  12.341   1.931
55551SOL    HW268487   7.241  12.386   2.060
55552SOL     OW68488   1.860   1.206  13.995
55552SOL    HW168489   1.794   1.147  14.031
55552SOL    HW268490   1.927   1.212  14.062
55553SOL     OW68491   5.059   2.999   7.176
55553SOL    HW168492   5.136   3.027   7.126
55553SOL    HW268493   5.016   2.935   7.118
55554SOL     OW68494   3.272   4.268   3.655
55554SOL    HW168495   3.252   4.196   3.595
55554SOL    HW268496   3.292   4.341   3.598
55555SOL     OW68497   9.423   3.792   9.924
55555SOL    HW168498   9.394   3.873   9.966
55555SOL    HW268499   9.468   3.820   9.845
55556SOL     OW68500   4.898   4.407   7.642
55556SOL    HW168501   4.973   4.466   7.639
55556SOL    HW268502   4.875   4.393   7.551
55557SOL     OW68503   2.812   9.157   9.568
55557SOL    HW168504   2.865   9.089   9.527
55557SOL    HW268505   2.764   9.111   9.637
55558SOL     OW68506   1.809   5.227   1.652
55558SOL    HW168507   1.904   5.227   1.669
55558SOL    HW268508   1.793   5.311   1.609
55559SOL     OW68509   0.346  11.125   2.551
55559SOL    HW168510   0.339  11.107   2.458
55559SOL    HW268511   0.350  11.221   2.557
55560SOL     OW68512   2.982   6.581  13.293
55560SOL    HW168513   3.053   6.521  13.316
55560SOL    HW268514   3.010   6.619  13.209
55561SOL     OW68515   3.628   7.422   4.905
55561SOL    HW168516   3.643   7.328   4.891
55561SOL    HW268517   3.710   7.463   4.876
55562SOL     OW68518   2.789  13.509   2.968
55562SOL    HW168519   2.769  13.597   2.936
55562SOL    HW268520   2.714  13.486   3.024
55563SOL     OW68521   0.882   8.416   6.799
55563SOL    HW168522   0.847   8.386   6.883
55563SOL    HW268523   0.947   8.483   6.822
55564SOL     OW68524   0.580   8.944  10.567
55564SOL    HW168525   0.502   8.991  10.596
55564SOL    HW268526   0.560   8.917  10.477
55565SOL     OW68527   4.307   6.381   4.495
55565SOL    HW168528   4.246   6.349   4.429
55565SOL    HW268529   4.392   6.383   4.450
55566SOL     OW68530   4.016   1.540  13.663
55566SOL    HW168531   3.975   1.457  13.639
55566SOL    HW268532   4.045   1.577  13.580
55567SOL     OW68533   5.286   0.365   0.411
55567SOL    HW168534   5.343   0.442   0.411
55567SOL    HW268535   5.322   0.309   0.481
55568SOL     OW68536   0.131   5.495  10.944
55568SOL    HW168537   0.061   5.473  10.882
55568SOL    HW268538   0.088   5.548  11.010
55569SOL     OW68539   9.898  10.830   0.765
55569SOL    HW168540   9.956  10.772   0.716
55569SOL    HW268541   9.815  10.827   0.718
55570SOL     OW68542   0.151   6.529   9.023
55570SOL    HW168543   0.067   6.568   9.049
55570SOL    HW268544   0.128   6.465   8.956
55571SOL     OW68545  11.669  12.349   7.397
55571SOL    HW168546  11.726  12.383   7.466
55571SOL    HW268547  11.612  12.423   7.375
55572SOL     OW68548   0.214   3.543   1.860
55572SOL    HW168549   0.204   3.508   1.771
55572SOL    HW268550   0.152   3.493   1.912
55573SOL     OW68551   6.859   9.127  11.407
55573SOL    HW168552   6.804   9.204  11.390
55573SOL    HW268553   6.860   9.118  11.502
55574SOL     OW68554   6.821   5.172   6.956
55574SOL    HW168555   6.849   5.143   7.043
55574SOL    HW268556   6.887   5.136   6.897
55575SOL     OW68557   2.976   6.959   5.317
55575SOL    HW168558   2.888   6.991   5.298
55575SOL    HW268559   2.966   6.864   5.322
55576SOL     OW68560  10.496   3.950   7.090
55576SOL    HW168561  10.562   3.972   7.157
55576SOL    HW268562  10.504   3.855   7.080
55577SOL     OW68563   3.373   0.096   0.537
55577SOL    HW168564   3.346   0.174   0.586
55577SOL    HW268565   3.442   0.128   0.479
55578SOL     OW68566   4.188   3.213   3.056
55578SOL    HW168567   4.231   3.177   2.979
55578SOL    HW268568   4.154   3.298   3.026
55579SOL     OW68569   4.479   1.930  11.279
55579SOL    HW168570   4.471   2.018  11.318
55579SOL    HW268571   4.571   1.924  11.253
55580SOL     OW68572   9.117   5.174   7.910
55580SOL    HW168573   9.119   5.252   7.854
55580SOL    HW268574   9.182   5.115   7.871
55581SOL     OW68575  14.501   2.855   4.131
55581SOL    HW168576  14.461   2.927   4.083
55581SOL    HW268577  14.571   2.896   4.181
55582SOL     OW68578  10.725  11.389   4.923
55582SOL    HW168579  10.714  11.435   4.840
55582SOL    HW268580  10.642  11.345   4.938
55583SOL     OW68581  14.287   7.386   6.355
55583SOL    HW168582  14.349   7.457   6.340
55583SOL    HW268583  14.332   7.308   6.321
55584SOL     OW68584   8.982   8.959   1.805
55584SOL    HW168585   9.045   9.030   1.789
55584SOL    HW268586   9.022   8.907   1.875
55585SOL     OW68587   4.404   7.981   7.485
55585SOL    HW168588   4.463   7.915   7.522
55585SOL    HW268589   4.448   8.064   7.500
55586SOL     OW68590   8.084  10.754   9.432
55586SOL    HW168591   8.037  10.682   9.389
55586SOL    HW268592   8.176  10.726   9.433
55587SOL     OW68593   2.791  14.347   0.309
55587SOL    HW168594   2.857  14.296   0.357
55587SOL    HW268595   2.842  14.397   0.245
55588SOL     OW68596  14.519   1.303   8.030
55588SOL    HW168597  14.438   1.254   8.047
55588SOL    HW268598  14.578   1.278   8.100
55589SOL     OW68599  10.047   1.282   2.967
55589SOL    HW168600   9.963   1.325   2.987
55589SOL    HW268601  10.041   1.197   3.009
55590SOL     OW68602   4.909  14.675   7.041
55590SOL    HW168603   4.919  14.768   7.020
55590SOL    HW268604   4.996  14.638   7.029
55591SOL     OW68605  10.611  10.088   5.728
55591SOL    HW168606  10.693  10.043   5.747
55591SOL    HW268607  10.584  10.126   5.812
55592SOL     OW68608   6.473   0.718   5.826
55592SOL    HW168609   6.456   0.715   5.731
55592SOL    HW268610   6.443   0.804   5.853
55593SOL     OW68611   3.907  14.004   5.342
55593SOL    HW168612   3.982  13.998   5.282
55593SOL    HW268613   3.937  13.961   5.422
55594SOL     OW68614   0.088   2.040   0.040
55594SOL    HW168615   0.070   2.127   0.073
55594SOL    HW268616   0.002   2.000   0.027
55595SOL     OW68617   2.083   4.778   1.779
55595SOL    HW168618   2.085   4.683   1.774
55595SOL    HW268619   1.991   4.800   1.793
55596SOL     OW68620   2.141  13.486   0.639
55596SOL    HW168621   2.120  13.428   0.712
55596SOL    HW268622   2.090  13.565   0.655
55597SOL     OW68623  14.473   4.681  14.510
55597SOL    HW168624  14.565   4.707  14.506
55597SOL    HW268625  14.467   4.627  14.588
55598SOL     OW68626   4.711   9.998  13.371
55598SOL    HW168627   4.672  10.085  13.361
55598SOL    HW268628   4.636   9.939  13.377
55599SOL     OW68629   8.678   4.523  10.187
55599SOL    HW168630   8.700   4.520  10.094
55599SOL    HW268631   8.761   4.540  10.231
55600SOL     OW68632   6.073   3.523   2.869
55600SOL    HW168633   6.025   3.450   2.829
55600SOL    HW268634   6.093   3.492   2.958
55601SOL     OW68635  10.669   1.875  11.671
55601SOL    HW168636  10.706   1.789  11.652
55601SOL    HW268637  10.604   1.889  11.602
55602SOL     OW68638   1.387   0.394   0.302
55602SOL    HW168639   1.429   0.408   0.387
55602SOL    HW268640   1.350   0.306   0.308
55603SOL     OW68641  12.728   7.851   2.612
55603SOL    HW168642  12.736   7.904   2.533
55603SOL    HW268643  12.815   7.812   2.623
55604SOL     OW68644   0.779   6.621  13.641
55604SOL    HW168645   0.731   6.603  13.560
55604SOL    HW268646   0.870   6.601  13.619
55605SOL     OW68647  12.276   1.292   4.426
55605SOL    HW168648  12.302   1.349   4.499
55605SOL    HW268649  12.203   1.240   4.460
55606SOL     OW68650   2.543  12.346  13.244
55606SOL    HW168651   2.608  12.386  13.302
55606SOL    HW268652   2.468  12.405  13.248
55607SOL     OW68653   5.799  13.139  12.333
55607SOL    HW168654   5.805  13.229  12.363
55607SOL    HW268655   5.827  13.086  12.408
55608SOL     OW68656   4.719  11.389   9.135
55608SOL    HW168657   4.685  11.349   9.215
55608SOL    HW268658   4.643  11.433   9.096
55609SOL     OW68659  12.101   9.049   3.600
55609SOL    HW168660  12.067   9.122   3.653
55609SOL    HW268661  12.150   8.995   3.662
55610SOL     OW68662   0.755   3.792   6.390
55610SOL    HW168663   0.753   3.764   6.299
55610SOL    HW268664   0.767   3.887   6.386
55611SOL     OW68665   9.119  11.919   5.142
55611SOL    HW168666   9.043  11.960   5.182
55611SOL    HW268667   9.101  11.922   5.048
55612SOL     OW68668   2.638  12.382   7.840
55612SOL    HW168669   2.628  12.305   7.896
55612SOL    HW268670   2.640  12.347   7.751
55613SOL     OW68671   1.649  13.319   8.355
55613SOL    HW168672   1.643  13.285   8.445
55613SOL    HW268673   1.620  13.246   8.300
55614SOL     OW68674   3.538   4.426   7.816
55614SOL    HW168675   3.614   4.420   7.759
55614SOL    HW268676   3.502   4.513   7.800
55615SOL     OW68677   4.984   6.181   9.617
55615SOL    HW168678   5.033   6.114   9.568
55615SOL    HW268679   4.893   6.152   9.612
55616SOL     OW68680   2.691   9.807  12.878
55616SOL    HW168681   2.713   9.851  12.795
55616SOL    HW268682   2.750   9.846  12.942
55617SOL     OW68683   9.896  11.391   8.857
55617SOL    HW168684   9.939  11.323   8.909
55617SOL    HW268685   9.811  11.403   8.899
55618SOL     OW68686   6.095   4.620  12.097
55618SOL    HW168687   6.033   4.686  12.065
55618SOL    HW268688   6.169   4.671  12.132
55619SOL     OW68689   6.634  10.046  10.294
55619SOL    HW168690   6.653   9.966  10.343
55619SOL    HW268691   6.616  10.016  10.205
55620SOL     OW68692   4.700   1.613   6.960
55620SOL    HW168693   4.641   1.561   6.905
55620SOL    HW268694   4.783   1.565   6.958
55621SOL     OW68695   5.212   7.788   2.190
55621SOL    HW168696   5.273   7.720   2.161
55621SOL    HW268697   5.125   7.749   2.178
55622SOL     OW68698  13.134   9.342  10.636
55622SOL    HW168699  13.160   9.273  10.575
55622SOL    HW268700  13.043   9.324  10.656
55623SOL     OW68701   1.743  14.759   6.232
55623SOL    HW168702   1.798  14.681   6.219
55623SOL    HW268703   1.806  14.831   6.242
55624SOL     OW68704   2.617   7.690  10.284
55624SOL    HW168705   2.635   7.678  10.377
55624SOL    HW268706   2.561   7.616  10.261
55625SOL     OW68707  13.926   0.640   6.066
55625SOL    HW168708  13.917   0.735   6.059
55625SOL    HW268709  13.867   0.614   6.136
55626SOL     OW68710   7.086  14.330   3.383
55626SOL    HW168711   7.134  14.373   3.312
55626SOL    HW268712   7.095  14.236   3.364
55627SOL     OW68713   0.847  11.722   3.835
55627SOL    HW168714   0.764  11.760   3.864
55627SOL    HW268715   0.863  11.765   3.751
55628SOL     OW68716   2.239   8.182  13.816
55628SOL    HW168717   2.273   8.234  13.743
55628SOL    HW268718   2.312   8.176  13.877
55629SOL     OW68719   8.017   1.984   0.292
55629SOL    HW168720   7.940   2.035   0.315
55629SOL    HW268721   7.988   1.926   0.222
55630SOL     OW68722   9.145   9.228   8.905
55630SOL    HW168723   9.057   9.191   8.911
55630SOL    HW268724   9.167   9.253   8.995
55631SOL     OW68725  12.679   7.269   2.456
55631SOL    HW168726  12.773   7.285   2.444
55631SOL    HW268727  12.645   7.255   2.368
55632SOL     OW68728   1.342   1.992   5.727
55632SOL    HW168729   1.391   2.074   5.720
55632SOL    HW268730   1.260   2.017   5.769
55633SOL     OW68731  10.769   3.865   1.074
55633SOL    HW168732  10.819   3.812   1.136
55633SOL    HW268733  10.830   3.934   1.046
55634SOL     OW68734   3.683   8.020  14.221
55634SOL    HW168735   3.670   8.023  14.316
55634SOL    HW268736   3.776   7.999  14.210
55635SOL     OW68737   4.298   3.334   0.516
55635SOL    HW168738   4.290   3.319   0.422
55635SOL    HW268739   4.352   3.262   0.547
55636SOL     OW68740   2.788  14.168   3.759
55636SOL    HW168741   2.881  14.186   3.749
55636SOL    HW268742   2.745  14.249   3.731
55637SOL     OW68743  13.771   5.867  14.504
55637SOL    HW168744  13.865   5.877  14.515
55637SOL    HW268745  13.739   5.838  14.590
55638SOL     OW68746   2.860   9.424   5.618
55638SOL    HW168747   2.876   9.352   5.678
55638SOL    HW268748   2.923   9.411   5.547
55639SOL     OW68749  10.785   2.641   9.951
55639SOL    HW168750  10.707   2.665  10.000
55639SOL    HW268751  10.858   2.679  10.001
55640SOL     OW68752  14.286   7.236  12.588
55640SOL    HW168753  14.203   7.237  12.540
55640SOL    HW268754  14.261   7.255  12.678
55641SOL     OW68755   4.560   2.173   3.183
55641SOL    HW168756   4.597   2.101   3.132
55641SOL    HW268757   4.636   2.219   3.218
55642SOL     OW68758   0.243   1.961   5.338
55642SOL    HW168759   0.261   1.936   5.429
55642SOL    HW268760   0.229   1.878   5.293
55643SOL     OW68761  11.412   7.338   8.303
55643SOL    HW168762  11.470   7.403   8.264
55643SOL    HW268763  11.449   7.254   8.278
55644SOL     OW68764   1.299  14.275   3.469
55644SOL    HW168765   1.388  14.243   3.482
55644SOL    HW268766   1.245  14.220   3.527
55645SOL     OW68767   9.181  11.634  12.028
55645SOL    HW168768   9.159  11.726  12.047
55645SOL    HW268769   9.200  11.596  12.114
55646SOL     OW68770  14.317  14.137  10.729
55646SOL    HW168771  14.406  14.111  10.703
55646SOL    HW268772  14.319  14.135  10.825
55647SOL     OW68773  11.879  11.048   8.258
55647SOL    HW168774  11.836  10.964   8.274
55647SOL    HW268775  11.838  11.108   8.320
55648SOL     OW68776   6.803  11.860   8.904
55648SOL    HW168777   6.892  11.824   8.899
55648SOL    HW268778   6.751  11.791   8.944
55649SOL     OW68779   3.987   2.024   0.369
55649SOL    HW168780   4.029   2.090   0.314
55649SOL    HW268781   3.950   2.074   0.442
55650SOL     OW68782  13.859   9.809   7.233
55650SOL    HW168783  13.840   9.723   7.270
55650SOL    HW268784  13.815   9.809   7.148
55651SOL     OW68785   5.326  13.732   0.410
55651SOL    HW168786   5.407  13.712   0.457
55651SOL    HW268787   5.258  13.683   0.456
55652SOL     OW68788  10.290  10.594   3.030
55652SOL    HW168789  10.381  10.605   3.001
55652SOL    HW268790  10.260  10.515   2.986
55653SOL     OW68791   8.209  12.131   8.121
55653SOL    HW168792   8.164  12.063   8.070
55653SOL    HW268793   8.142  12.198   8.135
55654SOL     OW68794  10.171  13.174  10.171
55654SOL    HW168795  10.248  13.144  10.218
55654SOL    HW268796  10.119  13.096  10.156
55655SOL     OW68797  10.331   8.138   6.405
55655SOL    HW168798  10.412   8.087   6.399
55655SOL    HW268799  10.336   8.200   6.332
55656SOL     OW68800   2.142  12.060   9.706
55656SOL    HW168801   2.134  12.143   9.755
55656SOL    HW268802   2.121  11.993   9.770
55657SOL     OW68803   3.876  11.658   2.302
55657SOL    HW168804   3.792  11.638   2.260
55657SOL    HW268805   3.921  11.715   2.240
55658SOL     OW68806   3.650  12.460   3.854
55658SOL    HW168807   3.745  12.458   3.850
55658SOL    HW268808   3.629  12.443   3.946
55659SOL     OW68809   1.362  11.862   0.244
55659SOL    HW168810   1.414  11.915   0.305
55659SOL    HW268811   1.330  11.925   0.180
55660SOL     OW68812   0.747  12.324   7.295
55660SOL    HW168813   0.656  12.298   7.276
55660SOL    HW268814   0.746  12.346   7.388
55661SOL     OW68815   8.094  13.440  10.507
55661SOL    HW168816   8.034  13.391  10.451
55661SOL    HW268817   8.156  13.374  10.538
55662SOL     OW68818   1.811  11.458   2.329
55662SOL    HW168819   1.827  11.381   2.274
55662SOL    HW268820   1.802  11.531   2.267
55663SOL     OW68821  12.947  13.730   2.562
55663SOL    HW168822  12.934  13.635   2.556
55663SOL    HW268823  13.018  13.748   2.501
55664SOL     OW68824   8.778   6.626  11.453
55664SOL    HW168825   8.778   6.651  11.360
55664SOL    HW268826   8.774   6.531  11.452
55665SOL     OW68827   1.453   1.179  11.051
55665SOL    HW168828   1.541   1.192  11.088
55665SOL    HW268829   1.394   1.197  11.124
55666SOL     OW68830   7.377   1.460   8.808
55666SOL    HW168831   7.449   1.482   8.868
55666SOL    HW268832   7.308   1.426   8.865
55667SOL     OW68833  10.580   7.981   5.388
55667SOL    HW168834  10.509   8.009   5.330
55667SOL    HW268835  10.537   7.957   5.469
55668SOL     OW68836  13.654   3.814  11.370
55668SOL    HW168837  13.685   3.831  11.281
55668SOL    HW268838  13.597   3.738  11.362
55669SOL     OW68839   3.440   5.978   2.004
55669SOL    HW168840   3.354   5.956   1.969
55669SOL    HW268841   3.428   5.975   2.099
55670SOL     OW68842   3.171   4.541   5.885
55670SOL    HW168843   3.109   4.585   5.944
55670SOL    HW268844   3.255   4.585   5.903
55671SOL     OW68845   8.404   4.676   4.481
55671SOL    HW168846   8.413   4.733   4.404
55671SOL    HW268847   8.482   4.620   4.478
55672SOL     OW68848   7.335   3.191   0.248
55672SOL    HW168849   7.317   3.154   0.161
55672SOL    HW268850   7.430   3.193   0.255
55673SOL     OW68851   9.367   4.306   2.546
55673SOL    HW168852   9.405   4.359   2.476
55673SOL    HW268853   9.400   4.346   2.626
55674SOL     OW68854   7.548  13.319   8.940
55674SOL    HW168855   7.575  13.229   8.923
55674SOL    HW268856   7.454  13.313   8.957
55675SOL     OW68857   1.661   5.508  13.295
55675SOL    HW168858   1.699   5.424  13.324
55675SOL    HW268859   1.578   5.514  13.341
55676SOL     OW68860  12.786   6.624  10.443
55676SOL    HW168861  12.753   6.658  10.525
55676SOL    HW268862  12.882   6.629  10.452
55677SOL     OW68863  14.875  11.209   3.403
55677SOL    HW168864  14.853  11.127   3.446
55677SOL    HW268865   0.055  11.253   3.465
55678SOL     OW68866   9.442  10.146   6.832
55678SOL    HW168867   9.486  10.103   6.905
55678SOL    HW268868   9.350  10.149   6.858
55679SOL     OW68869  12.042  13.568   1.928
55679SOL    HW168870  11.965  13.537   1.975
55679SOL    HW268871  12.022  13.553   1.836
55680SOL     OW68872   5.010   6.529   4.864
55680SOL    HW168873   5.048   6.614   4.846
55680SOL    HW268874   5.077   6.482   4.913
55681SOL     OW68875   8.199   1.023   4.378
55681SOL    HW168876   8.252   0.998   4.302
55681SOL    HW268877   8.137   0.950   4.389
55682SOL     OW68878   7.565   9.146   0.646
55682SOL    HW168879   7.612   9.175   0.724
55682SOL    HW268880   7.498   9.213   0.632
55683SOL     OW68881   5.729   8.686  14.641
55683SOL    HW168882   5.808   8.704  14.591
55683SOL    HW268883   5.753   8.707  14.731
55684SOL     OW68884   4.587  11.866   0.648
55684SOL    HW168885   4.666  11.815   0.667
55684SOL    HW268886   4.604  11.952   0.686
55685SOL     OW68887   8.580   0.118   1.984
55685SOL    HW168888   8.533   0.128   2.066
55685SOL    HW268889   8.574   0.205   1.943
55686SOL     OW68890   6.115  12.236   1.879
55686SOL    HW168891   6.201  12.252   1.840
55686SOL    HW268892   6.129  12.163   1.939
55687SOL     OW68893  12.130   9.114   3.345
55687SOL    HW168894  12.224   9.134   3.349
55687SOL    HW268895  12.111   9.073   3.429
55688SOL     OW68896   4.578   0.960   4.540
55688SOL    HW168897   4.530   1.016   4.602
55688SOL    HW268898   4.659   1.008   4.523
55689SOL     OW68899   6.813   8.837  12.022
55689SOL    HW168900   6.742   8.844  12.086
55689SOL    HW268901   6.802   8.914  11.966
55690SOL     OW68902  12.546   8.493   6.308
55690SOL    HW168903  12.583   8.490   6.220
55690SOL    HW268904  12.619   8.472   6.366
55691SOL     OW68905  12.285   6.302   1.010
55691SOL    HW168906  12.218   6.272   1.072
55691SOL    HW268907  12.239   6.310   0.927
55692SOL     OW68908   0.019   3.698   1.152
55692SOL    HW168909   0.072   3.688   1.073
55692SOL    HW268910   0.082   3.696   1.223
55693SOL     OW68911   3.196   9.370   6.405
55693SOL    HW168912   3.251   9.443   6.434
55693SOL    HW268913   3.177   9.389   6.313
55694SOL     OW68914   4.937  12.786   2.039
55694SOL    HW168915   4.885  12.792   1.959
55694SOL    HW268916   4.881  12.739   2.100
55695SOL     OW68917   4.950  10.832   2.127
55695SOL    HW168918   5.005  10.882   2.067
55695SOL    HW268919   5.005  10.820   2.205
55696SOL     OW68920  12.551  13.742   8.967
55696SOL    HW168921  12.516  13.653   8.965
55696SOL    HW268922  12.641  13.733   8.934
55697SOL     OW68923   3.904  13.595   0.094
55697SOL    HW168924   3.926  13.611   0.186
55697SOL    HW268925   3.989  13.578   0.052
55698SOL     OW68926   5.334   9.368   0.426
55698SOL    HW168927   5.251   9.339   0.463
55698SOL    HW268928   5.398   9.356   0.496
55699SOL     OW68929  11.498  10.324  14.871
55699SOL    HW168930  11.553  10.256  14.832
55699SOL    HW268931  11.560  10.380   0.039
55700SOL     OW68932  10.582  13.932   7.621
55700SOL    HW168933  10.508  13.951   7.564
55700SOL    HW268934  10.544  13.884   7.695
55701SOL     OW68935  10.661  10.790   1.865
55701SOL    HW168936  10.702  10.717   1.913
55701SOL    HW268937  10.567  10.773   1.874
55702SOL     OW68938   9.665   0.629  13.737
55702SOL    HW168939   9.671   0.714  13.780
55702SOL    HW268940   9.653   0.651  13.644
55703SOL     OW68941  11.559   6.208  14.226
55703SOL    HW168942  11.518   6.213  14.313
55703SOL    HW268943  11.653   6.202  14.245
55704SOL     OW68944   7.482  10.002   0.432
55704SOL    HW168945   7.442   9.951   0.503
55704SOL    HW268946   7.500  10.088   0.472
55705SOL     OW68947   8.400   5.383  13.649
55705SOL    HW168948   8.487   5.376  13.609
55705SOL    HW268949   8.340   5.358  13.579
55706SOL     OW68950   1.322   7.025   0.017
55706SOL    HW168951   1.234   7.057  14.876
55706SOL    HW268952   1.381   7.082  14.848
55707SOL     OW68953   6.750   4.945  12.305
55707SOL    HW168954   6.809   4.880  12.343
55707SOL    HW268955   6.800   5.026  12.304
55708SOL     OW68956   5.384   1.193  10.274
55708SOL    HW168957   5.338   1.120  10.316
55708SOL    HW268958   5.476   1.178  10.295
55709SOL     OW68959  10.539   7.706   2.546
55709SOL    HW168960  10.453   7.672   2.521
55709SOL    HW268961  10.601   7.654   2.494
55710SOL     OW68962  11.724   0.354   4.899
55710SOL    HW168963  11.712   0.259   4.892
55710SOL    HW268964  11.789   0.365   4.968
55711SOL     OW68965   5.155   7.202   4.466
55711SOL    HW168966   5.240   7.219   4.506
55711SOL    HW268967   5.141   7.276   4.406
55712SOL     OW68968   2.112   2.365   2.334
55712SOL    HW168969   2.098   2.431   2.403
55712SOL    HW268970   2.119   2.416   2.253
55713SOL     OW68971   4.297   7.650   8.808
55713SOL    HW168972   4.315   7.740   8.780
55713SOL    HW268973   4.225   7.622   8.752
55714SOL     OW68974   6.760   6.833  11.639
55714SOL    HW168975   6.691   6.766  11.643
55714SOL    HW268976   6.840   6.786  11.662
55715SOL     OW68977   2.485  11.206   0.520
55715SOL    HW168978   2.465  11.216   0.427
55715SOL    HW268979   2.435  11.128   0.546
55716SOL     OW68980  10.837   9.241   0.169
55716SOL    HW168981  10.848   9.205   0.257
55716SOL    HW268982  10.776   9.314   0.180
55717SOL     OW68983  13.293  12.192  14.287
55717SOL    HW168984  13.301  12.108  14.333
55717SOL    HW268985  13.273  12.255  14.356
55718SOL     OW68986  11.040   3.753  11.255
55718SOL    HW168987  10.974   3.821  11.240
55718SOL    HW268988  11.016   3.682  11.195
55719SOL     OW68989  14.709   4.023  12.479
55719SOL    HW168990  14.686   4.033  12.387
55719SOL    HW268991  14.648   3.957  12.512
55720SOL     OW68992   2.905  10.609   9.662
55720SOL    HW168993   2.864  10.685   9.621
55720SOL    HW268994   2.833  10.564   9.706
55721SOL     OW68995   1.199   7.527   5.733
55721SOL    HW168996   1.133   7.458   5.730
55721SOL    HW268997   1.283   7.481   5.735
55722SOL     OW68998  10.671   3.112   1.648
55722SOL    HW168999  10.624   3.151   1.722
55722SOL    HW269000  10.736   3.055   1.688
55723SOL     OW69001  12.605   4.586  11.991
55723SOL    HW169002  12.521   4.542  11.995
55723SOL    HW269003  12.609   4.622  11.902
55724SOL     OW69004  13.353   8.166   6.223
55724SOL    HW169005  13.337   8.175   6.317
55724SOL    HW269006  13.288   8.223   6.183
55725SOL     OW69007   5.785   8.053   6.718
55725SOL    HW169008   5.839   8.086   6.789
55725SOL    HW269009   5.805   8.110   6.644
55726SOL     OW69010   2.219   0.266   3.750
55726SOL    HW169011   2.181   0.202   3.691
55726SOL    HW269012   2.172   0.253   3.833
55727SOL     OW69013   4.827   7.795  10.371
55727SOL    HW169014   4.869   7.712  10.348
55727SOL    HW269015   4.897   7.847  10.410
55728SOL     OW69016   8.073   8.445   9.019
55728SOL    HW169017   8.141   8.467   8.955
55728SOL    HW269018   8.022   8.526   9.028
55729SOL     OW69019   3.545   2.454   9.211
55729SOL    HW169020   3.461   2.409   9.225
55729SOL    HW269021   3.521   2.546   9.204
55730SOL     OW69022  13.372  11.876   1.952
55730SOL    HW169023  13.347  11.935   2.023
55730SOL    HW269024  13.289  11.851   1.911
55731SOL     OW69025  11.893  13.362  13.611
55731SOL    HW169026  11.954  13.382  13.540
55731SOL    HW269027  11.947  13.365  13.691
55732SOL     OW69028   0.860  10.483  12.130
55732SOL    HW169029   0.849  10.498  12.224
55732SOL    HW269030   0.853  10.388  12.121
55733SOL     OW69031   7.893  11.991   4.471
55733SOL    HW169032   7.879  12.082   4.444
55733SOL    HW269033   7.857  11.939   4.399
55734SOL     OW69034   3.366   0.708  13.378
55734SOL    HW169035   3.397   0.648  13.446
55734SOL    HW269036   3.436   0.771  13.367
55735SOL     OW69037   1.551   9.810  11.314
55735SOL    HW169038   1.541   9.824  11.408
55735SOL    HW269039   1.462   9.801  11.281
55736SOL     OW69040   6.263   1.542   2.141
55736SOL    HW169041   6.234   1.594   2.066
55736SOL    HW269042   6.333   1.486   2.106
55737SOL     OW69043  13.354   3.825  12.196
55737SOL    HW169044  13.390   3.821  12.108
55737SOL    HW269045  13.376   3.913  12.228
55738SOL     OW69046   7.140  13.423   6.818
55738SOL    HW169047   7.130  13.336   6.856
55738SOL    HW269048   7.057  13.439   6.773
55739SOL     OW69049   5.325   3.043   3.850
55739SOL    HW169050   5.238   3.007   3.867
55739SOL    HW269051   5.384   2.969   3.863
55740SOL     OW69052   2.928   8.994  10.007
55740SOL    HW169053   2.865   8.922  10.011
55740SOL    HW269054   3.008   8.957  10.044
55741SOL     OW69055  10.235   4.146  11.202
55741SOL    HW169056  10.143   4.169  11.191
55741SOL    HW269057  10.234   4.074  11.265
55742SOL     OW69058  10.989   5.456  12.354
55742SOL    HW169059  11.031   5.515  12.417
55742SOL    HW269060  10.899   5.449  12.385
55743SOL     OW69061   6.280   0.197  10.288
55743SOL    HW169062   6.349   0.263  10.295
55743SOL    HW269063   6.241   0.212  10.202
55744SOL     OW69064  13.788   6.767   3.624
55744SOL    HW169065  13.808   6.779   3.531
55744SOL    HW269066  13.866   6.724   3.660
55745SOL     OW69067   9.552  10.080  11.915
55745SOL    HW169068   9.545  10.080  11.820
55745SOL    HW269069   9.495  10.152  11.944
55746SOL     OW69070   3.579   6.504   8.873
55746SOL    HW169071   3.536   6.430   8.916
55746SOL    HW269072   3.661   6.515   8.922
55747SOL     OW69073  11.757   9.014   9.858
55747SOL    HW169074  11.756   9.041   9.949
55747SOL    HW269075  11.704   8.934   9.856
55748SOL     OW69076   0.135  12.320   6.891
55748SOL    HW169077   0.071  12.379   6.852
55748SOL    HW269078   0.083  12.249   6.929
55749SOL     OW69079   5.369   6.356  11.943
55749SOL    HW169080   5.303   6.319  12.002
55749SOL    HW269081   5.371   6.294  11.869
55750SOL     OW69082   3.459  12.668   9.695
55750SOL    HW169083   3.541  12.691   9.740
55750SOL    HW269084   3.468  12.575   9.675
55751SOL     OW69085   9.774   3.478   6.544
55751SOL    HW169086   9.803   3.408   6.602
55751SOL    HW269087   9.851   3.501   6.493
55752SOL     OW69088  12.219  11.160  13.014
55752SOL    HW169089  12.247  11.226  12.951
55752SOL    HW269090  12.253  11.078  12.980
55753SOL     OW69091   7.060   2.447   0.079
55753SOL    HW169092   7.072   2.504   0.155
55753SOL    HW269093   7.060   2.507   0.004
55754SOL     OW69094   1.080   4.348   8.975
55754SOL    HW169095   1.027   4.302   8.910
55754SOL    HW269096   1.051   4.313   9.059
55755SOL     OW69097   0.138  11.242   1.926
55755SOL    HW169098   0.118  11.254   1.833
55755SOL    HW269099   0.062  11.278   1.972
55756SOL     OW69100   8.601   9.413   6.030
55756SOL    HW169101   8.506   9.421   6.023
55756SOL    HW269102   8.632   9.501   6.051
55757SOL     OW69103   0.527   6.088   5.582
55757SOL    HW169104   0.502   5.997   5.601
55757SOL    HW269105   0.611   6.099   5.627
55758SOL     OW69106   4.591   2.922   0.500
55758SOL    HW169107   4.552   2.915   0.413
55758SOL    HW269108   4.528   2.974   0.551
55759SOL     OW69109  14.721  12.774   2.875
55759SOL    HW169110  14.816  12.764   2.867
55759SOL    HW269111  14.684  12.722   2.803
55760SOL     OW69112  10.058   0.700   9.421
55760SOL    HW169113  10.083   0.726   9.333
55760SOL    HW269114  10.054   0.782   9.470
55761SOL     OW69115   1.970  13.858  14.136
55761SOL    HW169116   1.890  13.810  14.158
55761SOL    HW269117   2.020  13.859  14.218
55762SOL     OW69118   5.143   2.666   6.082
55762SOL    HW169119   5.162   2.758   6.062
55762SOL    HW269120   5.080   2.670   6.154
55763SOL     OW69121   3.650   1.435  13.691
55763SOL    HW169122   3.723   1.435  13.753
55763SOL    HW269123   3.597   1.359  13.718
55764SOL     OW69124   2.326   6.412  12.824
55764SOL    HW169125   2.409   6.366  12.835
55764SOL    HW269126   2.335   6.491  12.878
55765SOL     OW69127   4.720  10.543   7.129
55765SOL    HW169128   4.788  10.503   7.182
55765SOL    HW269129   4.666  10.592   7.191
55766SOL     OW69130   0.829   1.138  10.406
55766SOL    HW169131   0.875   1.191  10.341
55766SOL    HW269132   0.792   1.201  10.467
55767SOL     OW69133  10.712  12.864   6.626
55767SOL    HW169134  10.766  12.858   6.705
55767SOL    HW269135  10.622  12.868   6.659
55768SOL     OW69136  11.578   8.078   0.148
55768SOL    HW169137  11.490   8.088   0.184
55768SOL    HW269138  11.605   7.990   0.175
55769SOL     OW69139   6.201   8.296   3.101
55769SOL    HW169140   6.123   8.254   3.065
55769SOL    HW269141   6.270   8.230   3.092
55770SOL     OW69142   5.113  12.696  13.237
55770SOL    HW169143   5.185  12.746  13.197
55770SOL    HW269144   5.092  12.744  13.317
55771SOL     OW69145   3.743   4.602   0.969
55771SOL    HW169146   3.761   4.696   0.956
55771SOL    HW269147   3.779   4.583   1.055
55772SOL     OW69148   9.256   5.698   0.173
55772SOL    HW169149   9.313   5.772   0.193
55772SOL    HW269150   9.294   5.658   0.095
55773SOL     OW69151  12.173  14.475   4.840
55773SOL    HW169152  12.081  14.493   4.861
55773SOL    HW269153  12.174  14.384   4.813
55774SOL     OW69154  13.059  11.693   1.929
55774SOL    HW169155  13.009  11.748   1.989
55774SOL    HW269156  13.063  11.744   1.848
55775SOL     OW69157   6.560  10.298   9.642
55775SOL    HW169158   6.646  10.316   9.605
55775SOL    HW269159   6.512  10.380   9.630
55776SOL     OW69160  13.936   6.594   7.084
55776SOL    HW169161  13.950   6.522   7.146
55776SOL    HW269162  13.841   6.596   7.070
55777SOL     OW69163   8.608   5.457   7.999
55777SOL    HW169164   8.627   5.541   7.956
55777SOL    HW269165   8.689   5.436   8.045
55778SOL     OW69166  14.380  10.757  14.383
55778SOL    HW169167  14.415  10.748  14.294
55778SOL    HW269168  14.294  10.797  14.372
55779SOL     OW69169   6.515  12.052   2.764
55779SOL    HW169170   6.471  12.133   2.737
55779SOL    HW269171   6.554  12.018   2.683
55780SOL     OW69172   2.251   8.820   0.768
55780SOL    HW169173   2.222   8.905   0.800
55780SOL    HW269174   2.343   8.814   0.794
55781SOL     OW69175   2.628   0.405   3.761
55781SOL    HW169176   2.581   0.386   3.842
55781SOL    HW269177   2.716   0.370   3.774
55782SOL     OW69178   3.829   4.020   4.107
55782SOL    HW169179   3.914   4.054   4.133
55782SOL    HW269180   3.801   3.966   4.181
55783SOL     OW69181   2.424   5.773   5.751
55783SOL    HW169182   2.373   5.716   5.808
55783SOL    HW269183   2.515   5.745   5.764
55784SOL     OW69184   1.556  10.914  10.674
55784SOL    HW169185   1.548  10.819  10.669
55784SOL    HW269186   1.596  10.931  10.759
55785SOL     OW69187   6.291   5.694  12.213
55785SOL    HW169188   6.346   5.626  12.174
55785SOL    HW269189   6.223   5.710  12.148
55786SOL     OW69190   4.294   5.294   1.801
55786SOL    HW169191   4.321   5.223   1.743
55786SOL    HW269192   4.203   5.312   1.776
55787SOL     OW69193   4.737   4.761  10.998
55787SOL    HW169194   4.730   4.743  10.904
55787SOL    HW269195   4.736   4.675  11.039
55788SOL     OW69196   5.970   0.655   8.899
55788SOL    HW169197   5.902   0.590   8.916
55788SOL    HW269198   5.947   0.729   8.956
55789SOL     OW69199  10.149  10.100   2.247
55789SOL    HW169200  10.231  10.063   2.279
55789SOL    HW269201  10.081  10.053   2.295
55790SOL     OW69202  14.372   0.337  14.568
55790SOL    HW169203  14.367   0.327  14.663
55790SOL    HW269204  14.354   0.430  14.553
55791SOL     OW69205   3.356   2.609   0.249
55791SOL    HW169206   3.276   2.636   0.296
55791SOL    HW269207   3.427   2.654   0.296
55792SOL     OW69208   0.345   8.152   6.465
55792SOL    HW169209   0.344   8.066   6.422
55792SOL    HW269210   0.362   8.133   6.557
55793SOL     OW69211   0.698  13.297   8.151
55793SOL    HW169212   0.734  13.382   8.123
55793SOL    HW269213   0.736  13.235   8.088
55794SOL     OW69214   7.407   9.125   4.565
55794SOL    HW169215   7.312   9.128   4.559
55794SOL    HW269216   7.436   9.090   4.481
55795SOL     OW69217   2.028   3.093  10.869
55795SOL    HW169218   2.103   3.086  10.810
55795SOL    HW269219   1.982   3.172  10.839
55796SOL     OW69220   9.269   0.237   0.724
55796SOL    HW169221   9.251   0.325   0.756
55796SOL    HW269222   9.267   0.245   0.629
55797SOL     OW69223   4.227  13.132   2.846
55797SOL    HW169224   4.303  13.110   2.793
55797SOL    HW269225   4.248  13.216   2.885
55798SOL     OW69226   5.685  14.682   9.240
55798SOL    HW169227   5.596  14.694   9.207
55798SOL    HW269228   5.734  14.757   9.207
55799SOL     OW69229   4.712  14.055   0.406
55799SOL    HW169230   4.677  14.135   0.443
55799SOL    HW269231   4.643  13.990   0.418
55800SOL     OW69232   6.209   6.796   7.634
55800SOL    HW169233   6.300   6.810   7.659
55800SOL    HW269234   6.214   6.738   7.558
55801SOL     OW69235   7.333  12.863   3.942
55801SOL    HW169236   7.306  12.835   3.854
55801SOL    HW269237   7.394  12.936   3.926
55802SOL     OW69238  12.538   6.913   3.029
55802SOL    HW169239  12.490   6.995   3.044
55802SOL    HW269240  12.593   6.903   3.106
55803SOL     OW69241   0.075  14.535  12.162
55803SOL    HW169242   0.070  14.501  12.072
55803SOL    HW269243   0.142  14.603  12.159
55804SOL     OW69244   5.710   6.830   1.658
55804SOL    HW169245   5.757   6.875   1.588
55804SOL    HW269246   5.772   6.831   1.732
55805SOL     OW69247  10.779   5.757  12.282
55805SOL    HW169248  10.835   5.818  12.234
55805SOL    HW269249  10.787   5.675  12.234
55806SOL     OW69250   5.004   0.689   2.025
55806SOL    HW169251   4.944   0.693   1.951
55806SOL    HW269252   5.091   0.680   1.985
55807SOL     OW69253   5.213  14.576   4.460
55807SOL    HW169254   5.307  14.597   4.467
55807SOL    HW269255   5.169  14.650   4.500
55808SOL     OW69256  13.938   5.120   3.093
55808SOL    HW169257  13.952   5.215   3.098
55808SOL    HW269258  13.932   5.102   3.000
55809SOL     OW69259  12.763   4.011  14.805
55809SOL    HW169260  12.686   3.975  14.849
55809SOL    HW269261  12.733   4.033  14.717
55810SOL     OW69262   5.913   6.450   8.942
55810SOL    HW169263   5.946   6.462   8.852
55810SOL    HW269264   5.950   6.523   8.991
55811SOL     OW69265   1.724   4.256   5.434
55811SOL    HW169266   1.743   4.163   5.450
55811SOL    HW269267   1.703   4.260   5.341
55812SOL     OW69268   6.578   4.336  13.263
55812SOL    HW169269   6.552   4.248  13.289
55812SOL    HW269270   6.495   4.384  13.258
55813SOL     OW69271  10.787  12.017  11.605
55813SOL    HW169272  10.771  11.923  11.606
55813SOL    HW269273  10.773  12.042  11.514
55814SOL     OW69274   2.159   3.485   2.129
55814SOL    HW169275   2.074   3.454   2.161
55814SOL    HW269276   2.223   3.447   2.190
55815SOL     OW69277  11.118   4.913  14.570
55815SOL    HW169278  11.135   4.841  14.510
55815SOL    HW269279  11.055   4.878  14.633
55816SOL     OW69280  14.851   7.257  10.122
55816SOL    HW169281  14.774   7.277  10.070
55816SOL    HW269282   0.026   7.336  10.119
55817SOL     OW69283   2.178  12.204  11.878
55817SOL    HW169284   2.158  12.152  11.801
55817SOL    HW269285   2.215  12.142  11.941
55818SOL     OW69286   9.573  14.349   0.370
55818SOL    HW169287   9.514  14.317   0.439
55818SOL    HW269288   9.534  14.316   0.289
55819SOL     OW69289   0.866  11.351  12.421
55819SOL    HW169290   0.942  11.335  12.366
55819SOL    HW269291   0.894  11.417  12.484
55820SOL     OW69292  12.333   3.168   1.370
55820SOL    HW169293  12.266   3.194   1.307
55820SOL    HW269294  12.295   3.188   1.456
55821SOL     OW69295  12.519  13.283  11.229
55821SOL    HW169296  12.520  13.193  11.198
55821SOL    HW269297  12.432  13.294  11.267
55822SOL     OW69298   7.424   0.115  13.377
55822SOL    HW169299   7.457   0.119  13.467
55822SOL    HW269300   7.330   0.135  13.386
55823SOL     OW69301   3.724   5.096   4.352
55823SOL    HW169302   3.761   5.135   4.431
55823SOL    HW269303   3.632   5.082   4.373
55824SOL     OW69304  10.350   0.663  14.699
55824SOL    HW169305  10.379   0.753  14.683
55824SOL    HW269306  10.255   0.670  14.713
55825SOL     OW69307  10.288   6.428   1.418
55825SOL    HW169308  10.211   6.382   1.450
55825SOL    HW269309  10.361   6.367   1.434
55826SOL     OW69310   1.682  13.275  10.795
55826SOL    HW169311   1.750  13.291  10.728
55826SOL    HW269312   1.718  13.312  10.875
55827SOL     OW69313  14.357  11.451   9.586
55827SOL    HW169314  14.326  11.438   9.496
55827SOL    HW269315  14.452  11.460   9.578
55828SOL     OW69316  10.417   9.348  11.609
55828SOL    HW169317  10.404   9.271  11.555
55828SOL    HW269318  10.329   9.380  11.628
55829SOL     OW69319   0.663   6.009  14.108
55829SOL    HW169320   0.652   5.980  14.198
55829SOL    HW269321   0.609   5.949  14.057
55830SOL     OW69322  13.325  14.433  14.743
55830SOL    HW169323  13.405  14.380  14.745
55830SOL    HW269324  13.305  14.449  14.836
55831SOL     OW69325  11.508   2.638   8.759
55831SOL    HW169326  11.587   2.675   8.799
55831SOL    HW269327  11.458   2.603   8.833
55832SOL     OW69328   9.238   5.023   6.241
55832SOL    HW169329   9.268   4.934   6.220
55832SOL    HW269330   9.161   5.010   6.297
55833SOL     OW69331  13.926   2.952   3.189
55833SOL    HW169332  13.862   2.939   3.118
55833SOL    HW269333  14.011   2.935   3.148
55834SOL     OW69334   9.834   6.512   0.657
55834SOL    HW169335   9.784   6.468   0.588
55834SOL    HW269336   9.925   6.502   0.630
55835SOL     OW69337   9.229   4.457  12.875
55835SOL    HW169338   9.158   4.438  12.813
55835SOL    HW269339   9.199   4.420  12.958
55836SOL     OW69340  10.025  13.968   7.530
55836SOL    HW169341   9.959  13.986   7.463
55836SOL    HW269342   9.976  13.935   7.605
55837SOL     OW69343   4.573  14.103   3.922
55837SOL    HW169344   4.550  14.054   3.843
55837SOL    HW269345   4.639  14.165   3.893
55838SOL     OW69346   6.179   2.303  12.875
55838SOL    HW169347   6.227   2.228  12.840
55838SOL    HW269348   6.144   2.272  12.959
55839SOL     OW69349   5.135   4.978   8.107
55839SOL    HW169350   5.120   4.953   8.016
55839SOL    HW269351   5.056   4.949   8.153
55840SOL     OW69352  10.251  14.199   7.009
55840SOL    HW169353  10.191  14.148   6.954
55840SOL    HW269354  10.254  14.285   6.969
55841SOL     OW69355  10.212   6.492   4.432
55841SOL    HW169356  10.246   6.541   4.357
55841SOL    HW269357  10.240   6.542   4.508
55842SOL     OW69358  12.584   2.255  10.846
55842SOL    HW169359  12.595   2.331  10.902
55842SOL    HW269360  12.499   2.219  10.870
55843SOL     OW69361   5.734   4.193   8.824
55843SOL    HW169362   5.667   4.212   8.890
55843SOL    HW269363   5.798   4.139   8.869
55844SOL     OW69364  12.168  11.082  11.159
55844SOL    HW169365  12.111  11.021  11.207
55844SOL    HW269366  12.233  11.025  11.117
55845SOL     OW69367   3.471  14.598   2.087
55845SOL    HW169368   3.512  14.555   2.162
55845SOL    HW269369   3.539  14.599   2.020
55846SOL     OW69370   9.896   9.554  10.755
55846SOL    HW169371   9.914   9.645  10.777
55846SOL    HW269372   9.955   9.503  10.812
55847SOL     OW69373   5.386  11.420   8.615
55847SOL    HW169374   5.368  11.354   8.548
55847SOL    HW269375   5.333  11.496   8.589
55848SOL     OW69376   3.114   3.325   9.931
55848SOL    HW169377   3.137   3.256   9.869
55848SOL    HW269378   3.174   3.311  10.005
55849SOL     OW69379   1.541   5.804   3.924
55849SOL    HW169380   1.468   5.863   3.909
55849SOL    HW269381   1.561   5.768   3.837
55850SOL     OW69382   6.814   4.328   3.378
55850SOL    HW169383   6.729   4.296   3.407
55850SOL    HW269384   6.875   4.257   3.400
55851SOL     OW69385   5.817   2.540  10.556
55851SOL    HW169386   5.818   2.586  10.640
55851SOL    HW269387   5.863   2.457  10.573
55852SOL     OW69388   3.065   5.607   2.030
55852SOL    HW169389   3.038   5.686   2.076
55852SOL    HW269390   3.144   5.578   2.075
55853SOL     OW69391   6.827  14.092   2.833
55853SOL    HW169392   6.793  14.123   2.749
55853SOL    HW269393   6.750  14.087   2.889
55854SOL     OW69394  14.572   6.275   4.408
55854SOL    HW169395  14.668   6.280   4.405
55854SOL    HW269396  14.548   6.232   4.326
55855SOL     OW69397  14.863   5.155   2.790
55855SOL    HW169398  14.846   5.219   2.721
55855SOL    HW269399  14.784   5.101   2.793
55856SOL     OW69400  13.956   5.465   5.668
55856SOL    HW169401  13.993   5.552   5.680
55856SOL    HW269402  13.866   5.472   5.701
55857SOL     OW69403   7.865   5.333   4.964
55857SOL    HW169404   7.859   5.308   5.056
55857SOL    HW269405   7.957   5.320   4.941
55858SOL     OW69406   9.507  11.677  14.045
55858SOL    HW169407   9.599  11.653  14.037
55858SOL    HW269408   9.506  11.744  14.114
55859SOL     OW69409   3.216  10.003   2.724
55859SOL    HW169410   3.246   9.961   2.643
55859SOL    HW269411   3.143   9.949   2.753
55860SOL     OW69412   4.508   6.016  10.245
55860SOL    HW169413   4.485   6.048  10.157
55860SOL    HW269414   4.461   6.075  10.304
55861SOL     OW69415  10.031   5.384  11.333
55861SOL    HW169416  10.093   5.345  11.272
55861SOL    HW269417  10.079   5.390  11.416
55862SOL     OW69418   8.593  13.276  14.842
55862SOL    HW169419   8.595  13.189   0.003
55862SOL    HW269420   8.508  13.311  14.866
55863SOL     OW69421   9.244   6.064   5.107
55863SOL    HW169422   9.229   5.973   5.132
55863SOL    HW269423   9.277   6.107   5.186
55864SOL     OW69424  12.767  13.372  12.090
55864SOL    HW169425  12.704  13.403  12.155
55864SOL    HW269426  12.847  13.420  12.109
55865SOL     OW69427   7.378   0.315  11.694
55865SOL    HW169428   7.448   0.370  11.729
55865SOL    HW269429   7.404   0.298  11.604
55866SOL     OW69430  10.635  13.311  12.581
55866SOL    HW169431  10.555  13.304  12.529
55866SOL    HW269432  10.698  13.254  12.537
55867SOL     OW69433  10.471   7.955  12.822
55867SOL    HW169434  10.452   7.977  12.731
55867SOL    HW269435  10.404   8.001  12.872
55868SOL     OW69436  11.577   3.205   9.249
55868SOL    HW169437  11.659   3.255   9.247
55868SOL    HW269438  11.512   3.264   9.211
55869SOL     OW69439   0.398   1.076   0.034
55869SOL    HW169440   0.328   1.136   0.007
55869SOL    HW269441   0.457   1.131   0.085
55870SOL     OW69442   2.262   8.908   1.925
55870SOL    HW169443   2.265   8.973   1.855
55870SOL    HW269444   2.353   8.885   1.941
55871SOL     OW69445   5.345  14.373   9.270
55871SOL    HW169446   5.431  14.332   9.278
55871SOL    HW269447   5.300  14.352   9.351
55872SOL     OW69448  10.302  13.415   6.576
55872SOL    HW169449  10.318  13.459   6.492
55872SOL    HW269450  10.207  13.416   6.586
55873SOL     OW69451   7.020   0.741  14.378
55873SOL    HW169452   7.010   0.804  14.449
55873SOL    HW269453   6.983   0.785  14.301
55874SOL     OW69454   7.119  14.055   0.923
55874SOL    HW169455   7.117  14.056   0.827
55874SOL    HW269456   7.127  13.962   0.945
55875SOL     OW69457  12.737   5.978   7.523
55875SOL    HW169458  12.781   6.031   7.588
55875SOL    HW269459  12.780   6.000   7.440
55876SOL     OW69460   2.627  10.936   2.498
55876SOL    HW169461   2.540  10.941   2.457
55876SOL    HW269462   2.629  10.850   2.539
55877SOL     OW69463   4.079  10.464   0.395
55877SOL    HW169464   4.007  10.516   0.358
55877SOL    HW269465   4.126  10.526   0.452
55878SOL     OW69466   8.832  10.109   3.538
55878SOL    HW169467   8.836  10.136   3.630
55878SOL    HW269468   8.805  10.018   3.541
55879SOL     OW69469   8.251  11.497   0.159
55879SOL    HW169470   8.194  11.448   0.219
55879SOL    HW269471   8.309  11.431   0.121
55880SOL     OW69472   9.382   3.962  11.052
55880SOL    HW169473   9.369   3.954  11.147
55880SOL    HW269474   9.299   3.994  11.019
55881SOL     OW69475   1.640   3.543   5.121
55881SOL    HW169476   1.607   3.454   5.132
55881SOL    HW269477   1.610   3.570   5.034
55882SOL     OW69478  10.822   4.141   7.826
55882SOL    HW169479  10.889   4.145   7.895
55882SOL    HW269480  10.871   4.147   7.744
55883SOL     OW69481   2.694  11.397   0.953
55883SOL    HW169482   2.735  11.334   1.011
55883SOL    HW269483   2.748  11.395   0.873
55884SOL     OW69484  11.525  12.750   2.658
55884SOL    HW169485  11.533  12.840   2.689
55884SOL    HW269486  11.546  12.697   2.735
55885SOL     OW69487   7.783   4.876   3.040
55885SOL    HW169488   7.820   4.956   3.002
55885SOL    HW269489   7.859   4.822   3.059
55886SOL     OW69490   1.655  10.004   7.279
55886SOL    HW169491   1.588  10.005   7.211
55886SOL    HW269492   1.696   9.918   7.273
55887SOL     OW69493   5.565   4.552   9.754
55887SOL    HW169494   5.580   4.627   9.810
55887SOL    HW269495   5.652   4.512   9.743
55888SOL     OW69496  10.447   6.524   7.201
55888SOL    HW169497  10.481   6.449   7.249
55888SOL    HW269498  10.511   6.538   7.130
55889SOL     OW69499  10.428   7.357   3.217
55889SOL    HW169500  10.434   7.449   3.191
55889SOL    HW269501  10.343   7.350   3.261
55890SOL     OW69502  14.196   7.692   1.684
55890SOL    HW169503  14.236   7.703   1.771
55890SOL    HW269504  14.225   7.606   1.655
55891SOL     OW69505  14.863   2.187   2.963
55891SOL    HW169506   0.016   2.253   3.025
55891SOL    HW269507   0.048   2.188   2.892
55892SOL     OW69508  11.131   1.175   3.765
55892SOL    HW169509  11.082   1.240   3.816
55892SOL    HW269510  11.171   1.118   3.830
55893SOL     OW69511   4.352   1.993  14.366
55893SOL    HW169512   4.422   2.026  14.309
55893SOL    HW269513   4.307   2.072  14.397
55894SOL     OW69514  13.002  14.589  13.229
55894SOL    HW169515  13.067  14.593  13.300
55894SOL    HW269516  13.052  14.560  13.153
55895SOL     OW69517  10.377   7.475   0.765
55895SOL    HW169518  10.412   7.563   0.781
55895SOL    HW269519  10.393   7.428   0.846
55896SOL     OW69520   8.261   3.537   5.450
55896SOL    HW169521   8.267   3.499   5.538
55896SOL    HW269522   8.230   3.465   5.395
55897SOL     OW69523   2.849  10.996  10.757
55897SOL    HW169524   2.884  10.907  10.757
55897SOL    HW269525   2.845  11.020  10.664
55898SOL     OW69526   9.584   6.272   2.849
55898SOL    HW169527   9.617   6.226   2.927
55898SOL    HW269528   9.619   6.222   2.776
55899SOL     OW69529  13.021   6.187   9.107
55899SOL    HW169530  12.958   6.143   9.050
55899SOL    HW269531  13.049   6.119   9.168
55900SOL     OW69532   3.779  13.988  14.835
55900SOL    HW169533   3.822  13.974   0.040
55900SOL    HW269534   3.777  14.083  14.823
55901SOL     OW69535  12.374   7.133  14.000
55901SOL    HW169536  12.327   7.178  13.931
55901SOL    HW269537  12.406   7.203  14.057
55902SOL     OW69538   7.982   9.491   7.210
55902SOL    HW169539   7.965   9.397   7.195
55902SOL    HW269540   7.994   9.527   7.122
55903SOL     OW69541   7.685   4.148   3.569
55903SOL    HW169542   7.618   4.123   3.632
55903SOL    HW269543   7.644   4.217   3.516
55904SOL     OW69544   9.425   5.591   1.305
55904SOL    HW169545   9.477   5.569   1.228
55904SOL    HW269546   9.467   5.545   1.377
55905SOL     OW69547   1.825   9.878   2.403
55905SOL    HW169548   1.856   9.806   2.348
55905SOL    HW269549   1.762   9.925   2.348
55906SOL     OW69550   6.262  11.159   1.240
55906SOL    HW169551   6.268  11.117   1.326
55906SOL    HW269552   6.350  11.189   1.221
55907SOL     OW69553   8.648   7.367  14.599
55907SOL    HW169554   8.626   7.421  14.523
55907SOL    HW269555   8.565   7.354  14.644
55908SOL     OW69556   6.241   2.884   5.763
55908SOL    HW169557   6.161   2.856   5.807
55908SOL    HW269558   6.310   2.872   5.828
55909SOL     OW69559  13.719   7.436  12.875
55909SOL    HW169560  13.791   7.459  12.933
55909SOL    HW269561  13.646   7.415  12.934
55910SOL     OW69562   7.331   6.520   4.344
55910SOL    HW169563   7.342   6.602   4.294
55910SOL    HW269564   7.386   6.457   4.298
55911SOL     OW69565  14.591  13.977   2.317
55911SOL    HW169566  14.620  14.020   2.398
55911SOL    HW269567  14.570  13.888   2.344
55912SOL     OW69568   5.204   3.543  11.748
55912SOL    HW169569   5.211   3.636  11.767
55912SOL    HW269570   5.147   3.538  11.672
55913SOL     OW69571   4.453   9.045  12.096
55913SOL    HW169572   4.404   9.030  12.015
55913SOL    HW269573   4.407   8.993  12.162
55914SOL     OW69574  10.908  13.412  12.433
55914SOL    HW169575  10.870  13.325  12.419
55914SOL    HW269576  10.987  13.396  12.484
55915SOL     OW69577   4.585   9.233   8.668
55915SOL    HW169578   4.644   9.252   8.741
55915SOL    HW269579   4.587   9.312   8.615
55916SOL     OW69580  14.350   2.578   0.297
55916SOL    HW169581  14.402   2.658   0.288
55916SOL    HW269582  14.352   2.558   0.390
55917SOL     OW69583   9.855  10.772   6.318
55917SOL    HW169584   9.803  10.780   6.397
55917SOL    HW269585   9.864  10.862   6.286
55918SOL     OW69586  10.691  12.263   6.255
55918SOL    HW169587  10.712  12.317   6.331
55918SOL    HW269588  10.658  12.181   6.292
55919SOL     OW69589   1.155   1.197  14.051
55919SOL    HW169590   1.171   1.273  14.107
55919SOL    HW269591   1.170   1.122  14.108
55920SOL     OW69592  10.515   3.017   2.211
55920SOL    HW169593  10.527   2.970   2.128
55920SOL    HW269594  10.468   2.955   2.266
55921SOL     OW69595   0.615   7.886   4.037
55921SOL    HW169596   0.561   7.821   3.992
55921SOL    HW269597   0.663   7.930   3.967
55922SOL     OW69598   7.711   2.057   2.220
55922SOL    HW169599   7.688   1.965   2.228
55922SOL    HW269600   7.805   2.061   2.237
55923SOL     OW69601   4.804   1.525   3.394
55923SOL    HW169602   4.811   1.559   3.484
55923SOL    HW269603   4.712   1.538   3.371
55924SOL     OW69604   5.691   2.224   2.648
55924SOL    HW169605   5.773   2.204   2.603
55924SOL    HW269606   5.690   2.166   2.724
55925SOL     OW69607   6.003   6.650   8.687
55925SOL    HW169608   6.042   6.563   8.698
55925SOL    HW269609   5.922   6.634   8.638
55926SOL     OW69610   5.836  14.382  14.830
55926SOL    HW169611   5.926  14.361  14.855
55926SOL    HW269612   5.838  14.386  14.734
55927SOL     OW69613   9.383   4.733   6.717
55927SOL    HW169614   9.311   4.724   6.780
55927SOL    HW269615   9.342   4.765   6.637
55928SOL     OW69616   6.696  11.421  11.338
55928SOL    HW169617   6.779  11.458  11.309
55928SOL    HW269618   6.719  11.347  11.392
55929SOL     OW69619   9.779  11.593  14.753
55929SOL    HW169620   9.757  11.613  14.663
55929SOL    HW269621   9.783  11.497  14.756
55930SOL     OW69622   8.457   4.908   4.891
55930SOL    HW169623   8.408   4.840   4.937
55930SOL    HW269624   8.434   4.990   4.936
55931SOL     OW69625   3.034  13.824  12.098
55931SOL    HW169626   2.969  13.888  12.126
55931SOL    HW269627   3.067  13.786  12.179
55932SOL     OW69628  10.001  10.681   3.349
55932SOL    HW169629   9.964  10.769   3.351
55932SOL    HW269630   9.925  10.623   3.349
55933SOL     OW69631   5.392   0.354   8.753
55933SOL    HW169632   5.479   0.379   8.724
55933SOL    HW269633   5.340   0.349   8.673
55934SOL     OW69634   6.079   2.187  13.143
55934SOL    HW169635   6.052   2.270  13.182
55934SOL    HW269636   6.000   2.132  13.148
55935SOL     OW69637   0.182   8.391   0.661
55935SOL    HW169638   0.207   8.464   0.605
55935SOL    HW269639   0.097   8.416   0.696
55936SOL     OW69640  11.075   4.871  12.601
55936SOL    HW169641  11.131   4.942  12.568
55936SOL    HW269642  11.048   4.900  12.688
55937SOL     OW69643   0.657  10.201   0.546
55937SOL    HW169644   0.730  10.187   0.486
55937SOL    HW269645   0.617  10.283   0.517
55938SOL     OW69646   9.420   0.744  11.935
55938SOL    HW169647   9.489   0.703  11.987
55938SOL    HW269648   9.425   0.837  11.956
55939SOL     OW69649   8.597  12.563   1.517
55939SOL    HW169650   8.596  12.524   1.605
55939SOL    HW269651   8.597  12.488   1.458
55940SOL     OW69652  10.185   9.584  11.627
55940SOL    HW169653  10.223   9.562  11.712
55940SOL    HW269654  10.247   9.646  11.589
55941SOL     OW69655   5.886  14.194   8.058
55941SOL    HW169656   5.813  14.135   8.076
55941SOL    HW269657   5.942  14.146   7.997
55942SOL     OW69658  10.532   8.242   3.778
55942SOL    HW169659  10.440   8.220   3.764
55942SOL    HW269660  10.535   8.281   3.865
55943SOL     OW69661  13.244   9.476   4.346
55943SOL    HW169662  13.174   9.411   4.337
55943SOL    HW269663  13.316   9.442   4.294
55944SOL     OW69664  12.498   5.000   4.021
55944SOL    HW169665  12.477   5.086   3.984
55944SOL    HW269666  12.587   4.981   3.991
55945SOL     OW69667   8.331   5.915   2.387
55945SOL    HW169668   8.409   5.878   2.346
55945SOL    HW269669   8.356   6.006   2.406
55946SOL     OW69670   9.385   5.216   8.769
55946SOL    HW169671   9.305   5.263   8.793
55946SOL    HW269672   9.360   5.163   8.694
55947SOL     OW69673   3.154   9.438   6.152
55947SOL    HW169674   3.065   9.417   6.124
55947SOL    HW269675   3.165   9.530   6.128
55948SOL     OW69676   5.478   9.552  13.736
55948SOL    HW169677   5.526   9.472  13.758
55948SOL    HW269678   5.534   9.597  13.673
55949SOL     OW69679   3.392   0.977   1.870
55949SOL    HW169680   3.353   1.057   1.833
55949SOL    HW269681   3.335   0.907   1.840
55950SOL     OW69682  10.004   0.823   7.296
55950SOL    HW169683  10.082   0.772   7.318
55950SOL    HW269684   9.983   0.798   7.206
55951SOL     OW69685   4.787   3.896  12.146
55951SOL    HW169686   4.725   3.834  12.184
55951SOL    HW269687   4.771   3.978  12.193
55952SOL     OW69688  10.977   1.474   5.921
55952SOL    HW169689  11.034   1.399   5.906
55952SOL    HW269690  11.003   1.538   5.854
55953SOL     OW69691   9.259  10.935  14.569
55953SOL    HW169692   9.271  10.847  14.534
55953SOL    HW269693   9.207  10.980  14.502
55954SOL     OW69694  12.220  11.194  13.813
55954SOL    HW169695  12.203  11.241  13.731
55954SOL    HW269696  12.308  11.158  13.803
55955SOL     OW69697  14.551   4.039  13.998
55955SOL    HW169698  14.493   3.975  13.956
55955SOL    HW269699  14.629   3.988  14.021
55956SOL     OW69700   2.381   9.232  11.272
55956SOL    HW169701   2.309   9.174  11.294
55956SOL    HW269702   2.415   9.263  11.356
55957SOL     OW69703   9.756   7.329   0.109
55957SOL    HW169704   9.704   7.380   0.170
55957SOL    HW269705   9.766   7.244   0.151
55958SOL     OW69706   6.560   5.134   3.801
55958SOL    HW169707   6.508   5.057   3.779
55958SOL    HW269708   6.623   5.142   3.729
55959SOL     OW69709  13.467   8.042   8.084
55959SOL    HW169710  13.394   7.998   8.127
55959SOL    HW269711  13.535   8.048   8.150
55960SOL     OW69712   1.634   3.652  11.336
55960SOL    HW169713   1.568   3.625  11.272
55960SOL    HW269714   1.612   3.743  11.356
55961SOL     OW69715  12.797   4.824   8.157
55961SOL    HW169716  12.734   4.771   8.107
55961SOL    HW269717  12.825   4.768   8.229
55962SOL     OW69718   8.830  13.126   8.410
55962SOL    HW169719   8.846  13.044   8.363
55962SOL    HW269720   8.736  13.124   8.430
55963SOL     OW69721  13.709  10.261   4.074
55963SOL    HW169722  13.707  10.227   3.985
55963SOL    HW269723  13.697  10.184   4.130
55964SOL     OW69724   1.123   6.962   8.919
55964SOL    HW169725   1.113   7.043   8.869
55964SOL    HW269726   1.211   6.932   8.900
55965SOL     OW69727  10.998   6.941   5.945
55965SOL    HW169728  11.030   6.853   5.963
55965SOL    HW269729  10.947   6.964   6.022
55966SOL     OW69730   9.316  14.016   1.720
55966SOL    HW169731   9.327  14.025   1.814
55966SOL    HW269732   9.313  13.922   1.705
55967SOL     OW69733   3.699   7.503   2.589
55967SOL    HW169734   3.645   7.496   2.668
55967SOL    HW269735   3.684   7.591   2.557
55968SOL     OW69736  11.718  12.163  11.198
55968SOL    HW169737  11.712  12.241  11.142
55968SOL    HW269738  11.630  12.125  11.196
55969SOL     OW69739  14.265   0.675   6.979
55969SOL    HW169740  14.306   0.660   6.893
55969SOL    HW269741  14.174   0.649   6.966
55970SOL     OW69742   5.321   3.288   7.307
55970SOL    HW169743   5.382   3.216   7.320
55970SOL    HW269744   5.369   3.366   7.335
55971SOL     OW69745   2.721  14.172  10.906
55971SOL    HW169746   2.760  14.217  10.980
55971SOL    HW269747   2.773  14.092  10.895
55972SOL     OW69748  11.029   2.015  14.054
55972SOL    HW169749  11.015   1.950  14.122
55972SOL    HW269750  10.971   2.087  14.078
55973SOL     OW69751   0.905   6.476   1.963
55973SOL    HW169752   0.840   6.508   1.900
55973SOL    HW269753   0.857   6.470   2.045
55974SOL     OW69754   8.383   5.087   0.680
55974SOL    HW169755   8.366   5.174   0.715
55974SOL    HW269756   8.296   5.054   0.657
55975SOL     OW69757  10.640   2.296   3.735
55975SOL    HW169758  10.688   2.275   3.654
55975SOL    HW269759  10.702   2.278   3.805
55976SOL     OW69760  11.450  10.022  13.658
55976SOL    HW169761  11.409  10.108  13.652
55976SOL    HW269762  11.534  10.039  13.701
55977SOL     OW69763   9.767   2.166  13.034
55977SOL    HW169764   9.789   2.174  13.127
55977SOL    HW269765   9.823   2.095  13.002
55978SOL     OW69766   9.068   1.437   1.780
55978SOL    HW169767   8.989   1.491   1.784
55978SOL    HW269768   9.042   1.354   1.821
55979SOL     OW69769   0.687  11.223   5.172
55979SOL    HW169770   0.714  11.264   5.090
55979SOL    HW269771   0.656  11.137   5.146
55980SOL     OW69772  13.182   8.418   9.269
55980SOL    HW169773  13.245   8.432   9.339
55980SOL    HW269774  13.214   8.470   9.196
55981SOL     OW69775   7.023  14.848  14.762
55981SOL    HW169776   7.082  14.871  14.691
55981SOL    HW269777   6.937   0.002  14.734
55982SOL     OW69778   0.245   2.154  12.525
55982SOL    HW169779   0.261   2.064  12.550
55982SOL    HW269780   0.190   2.148  12.447
55983SOL     OW69781  13.836   8.046  12.930
55983SOL    HW169782  13.780   8.116  12.898
55983SOL    HW269783  13.893   8.088  12.994
55984SOL     OW69784  10.631   6.903   6.882
55984SOL    HW169785  10.638   6.808   6.883
55984SOL    HW269786  10.592   6.926   6.967
55985SOL     OW69787   2.414  10.458  10.179
55985SOL    HW169788   2.340  10.518  10.192
55985SOL    HW269789   2.432  10.461  10.085
55986SOL     OW69790   9.840   1.692   4.666
55986SOL    HW169791   9.801   1.677   4.580
55986SOL    HW269792   9.905   1.760   4.651
55987SOL     OW69793   1.159   6.885   7.721
55987SOL    HW169794   1.102   6.882   7.798
55987SOL    HW269795   1.104   6.923   7.653
55988SOL     OW69796   7.925   6.434   6.153
55988SOL    HW169797   7.882   6.351   6.175
55988SOL    HW269798   8.015   6.422   6.183
55989SOL     OW69799   1.486  13.509  13.471
55989SOL    HW169800   1.426  13.511  13.397
55989SOL    HW269801   1.438  13.553  13.542
55990SOL     OW69802   8.506   9.476   4.648
55990SOL    HW169803   8.534   9.567   4.638
55990SOL    HW269804   8.425   9.482   4.700
55991SOL     OW69805   4.240   8.816  12.911
55991SOL    HW169806   4.316   8.871  12.896
55991SOL    HW269807   4.186   8.865  12.973
55992SOL     OW69808  13.630   3.096  14.386
55992SOL    HW169809  13.629   3.099  14.482
55992SOL    HW269810  13.723   3.094  14.363
55993SOL     OW69811  11.726   2.275   2.151
55993SOL    HW169812  11.739   2.208   2.218
55993SOL    HW269813  11.777   2.245   2.076
55994SOL     OW69814   6.410   4.055   7.696
55994SOL    HW169815   6.494   4.009   7.703
55994SOL    HW269816   6.385   4.046   7.604
55995SOL     OW69817  12.686   8.073   1.099
55995SOL    HW169818  12.598   8.105   1.117
55995SOL    HW269819  12.740   8.113   1.168
55996SOL     OW69820  12.384   5.538  10.240
55996SOL    HW169821  12.372   5.594  10.163
55996SOL    HW269822  12.467   5.492  10.223
55997SOL     OW69823   3.643  12.649  13.696
55997SOL    HW169824   3.618  12.681  13.610
55997SOL    HW269825   3.711  12.709  13.725
55998SOL     OW69826  12.362   9.605   8.107
55998SOL    HW169827  12.419   9.567   8.173
55998SOL    HW269828  12.275   9.604   8.146
55999SOL     OW69829   6.139  13.488  10.244
55999SOL    HW169830   6.149  13.476  10.149
55999SOL    HW269831   6.122  13.582  10.254
56000SOL     OW69832   5.906   9.374  12.392
56000SOL    HW169833   5.845   9.426  12.445
56000SOL    HW269834   5.863   9.288  12.384
56001SOL     OW69835  12.677   2.639  13.362
56001SOL    HW169836  12.749   2.699  13.384
56001SOL    HW269837  12.651   2.602  13.446
56002SOL     OW69838   7.726   9.002   4.929
56002SOL    HW169839   7.702   9.081   4.881
56002SOL    HW269840   7.672   8.933   4.890
56003SOL     OW69841   1.824   4.752   5.518
56003SOL    HW169842   1.857   4.666   5.543
56003SOL    HW269843   1.814   4.748   5.423
56004SOL     OW69844   1.941   1.886  12.479
56004SOL    HW169845   1.919   1.977  12.459
56004SOL    HW269846   1.909   1.837  12.403
56005SOL     OW69847   3.018  10.741   6.001
56005SOL    HW169848   3.026  10.653   5.965
56005SOL    HW269849   3.035  10.730   6.095
56006SOL     OW69850   9.319   6.052  14.069
56006SOL    HW169851   9.303   6.061  14.163
56006SOL    HW269852   9.389   6.115  14.050
56007SOL     OW69853   8.244   3.377  10.414
56007SOL    HW169854   8.281   3.323  10.483
56007SOL    HW269855   8.149   3.368  10.425
56008SOL     OW69856   1.123   9.446   0.176
56008SOL    HW169857   1.145   9.479   0.263
56008SOL    HW269858   1.067   9.514   0.138
56009SOL     OW69859   7.515   9.552   3.389
56009SOL    HW169860   7.467   9.600   3.321
56009SOL    HW269861   7.472   9.466   3.393
56010SOL     OW69862  11.461   6.872   1.985
56010SOL    HW169863  11.465   6.896   1.892
56010SOL    HW269864  11.472   6.777   1.985
56011SOL     OW69865   7.075   6.027  14.000
56011SOL    HW169866   7.020   6.103  13.981
56011SOL    HW269867   7.056   6.007  14.092
56012SOL     OW69868  13.896  10.477  11.063
56012SOL    HW169869  13.952  10.472  10.986
56012SOL    HW269870  13.842  10.555  11.049
56013SOL     OW69871   7.957   1.510   6.647
56013SOL    HW169872   7.984   1.600   6.631
56013SOL    HW269873   7.869   1.505   6.610
56014SOL     OW69874   5.071   8.574   1.192
56014SOL    HW169875   5.024   8.511   1.246
56014SOL    HW269876   5.094   8.644   1.253
56015SOL     OW69877   5.661   4.089  11.578
56015SOL    HW169878   5.626   4.060  11.494
56015SOL    HW269879   5.585   4.122  11.626
56016SOL     OW69880  14.594   0.223   8.169
56016SOL    HW169881  14.562   0.219   8.259
56016SOL    HW269882  14.608   0.132   8.144
56017SOL     OW69883   1.068   1.249   1.791
56017SOL    HW169884   1.034   1.206   1.712
56017SOL    HW269885   1.007   1.321   1.807
56018SOL     OW69886   4.456   1.764   9.692
56018SOL    HW169887   4.384   1.792   9.635
56018SOL    HW269888   4.505   1.700   9.639
56019SOL     OW69889  14.658  11.839  13.403
56019SOL    HW169890  14.696  11.753  13.417
56019SOL    HW269891  14.658  11.880  13.489
56020SOL     OW69892  14.752   4.343  12.923
56020SOL    HW169893  14.718   4.298  12.846
56020SOL    HW269894  14.757   4.275  12.990
56021SOL     OW69895   3.970   6.773   3.005
56021SOL    HW169896   3.891   6.787   3.056
56021SOL    HW269897   4.019   6.706   3.053
56022SOL     OW69898   5.697   0.543   1.275
56022SOL    HW169899   5.635   0.498   1.332
56022SOL    HW269900   5.643   0.606   1.227
56023SOL     OW69901   9.143   8.701   6.721
56023SOL    HW169902   9.226   8.703   6.673
56023SOL    HW269903   9.166   8.666   6.807
56024SOL     OW69904   6.592   7.999   7.560
56024SOL    HW169905   6.668   7.976   7.506
56024SOL    HW269906   6.547   8.067   7.511
56025SOL     OW69907   0.531   3.460   6.408
56025SOL    HW169908   0.444   3.489   6.435
56025SOL    HW269909   0.591   3.509   6.464
56026SOL     OW69910   8.915   5.033   7.412
56026SOL    HW169911   8.979   5.054   7.343
56026SOL    HW269912   8.967   4.990   7.479
56027SOL     OW69913   9.806   3.599   4.561
56027SOL    HW169914   9.850   3.619   4.644
56027SOL    HW269915   9.713   3.614   4.579
56028SOL     OW69916  13.004   8.214   3.383
56028SOL    HW169917  12.956   8.134   3.407
56028SOL    HW269918  13.017   8.206   3.288
56029SOL     OW69919   8.348   8.169  11.199
56029SOL    HW169920   8.287   8.165  11.273
56029SOL    HW269921   8.302   8.124  11.128
56030SOL     OW69922  10.954   6.326   3.094
56030SOL    HW169923  10.977   6.342   3.186
56030SOL    HW269924  10.928   6.234   3.092
56031SOL     OW69925  11.946   5.314   8.910
56031SOL    HW169926  11.917   5.345   8.824
56031SOL    HW269927  12.042   5.318   8.906
56032SOL     OW69928   7.193   6.526   5.295
56032SOL    HW169929   7.235   6.464   5.354
56032SOL    HW269930   7.100   6.504   5.300
56033SOL     OW69931  12.214  14.851  14.464
56033SOL    HW169932  12.201   0.065  14.484
56033SOL    HW269933  12.302  14.847  14.426
56034SOL     OW69934   3.871  14.380  11.535
56034SOL    HW169935   3.805  14.313  11.516
56034SOL    HW269936   3.848  14.453  11.478
56035SOL     OW69937   4.631  13.041   8.486
56035SOL    HW169938   4.726  13.033   8.487
56035SOL    HW269939   4.600  12.953   8.506
56036SOL     OW69940  12.285   1.363   7.403
56036SOL    HW169941  12.330   1.283   7.430
56036SOL    HW269942  12.348   1.433   7.420
56037SOL     OW69943   8.580  11.925   2.751
56037SOL    HW169944   8.635  11.994   2.788
56037SOL    HW269945   8.497  11.967   2.732
56038SOL     OW69946   4.245   9.476  14.380
56038SOL    HW169947   4.274   9.567  14.369
56038SOL    HW269948   4.151   9.478  14.363
56039SOL     OW69949  14.382  11.338   5.607
56039SOL    HW169950  14.357  11.278   5.677
56039SOL    HW269951  14.380  11.285   5.527
56040SOL     OW69952  12.283   0.266  14.036
56040SOL    HW169953  12.306   0.174  14.020
56040SOL    HW269954  12.316   0.284  14.124
56041SOL     OW69955   9.210  11.894  14.295
56041SOL    HW169956   9.233  11.856  14.210
56041SOL    HW269957   9.157  11.971  14.273
56042SOL     OW69958   0.118   9.384  12.200
56042SOL    HW169959   0.102   9.330  12.277
56042SOL    HW269960   0.038   9.436  12.190
56043SOL     OW69961   1.217   6.743   2.085
56043SOL    HW169962   1.307   6.776   2.077
56043SOL    HW269963   1.164   6.807   2.037
56044SOL     OW69964  12.106  13.814   2.727
56044SOL    HW169965  12.128  13.742   2.786
56044SOL    HW269966  12.189  13.836   2.684
56045SOL     OW69967   5.512   8.911   7.420
56045SOL    HW169968   5.482   8.833   7.466
56045SOL    HW269969   5.608   8.907   7.425
56046SOL     OW69970   6.785   7.987   5.602
56046SOL    HW169971   6.779   7.892   5.614
56046SOL    HW269972   6.768   8.024   5.689
56047SOL     OW69973   1.064   4.255   3.003
56047SOL    HW169974   1.024   4.186   3.056
56047SOL    HW269975   1.066   4.219   2.914
56048SOL     OW69976  12.572  11.718  11.054
56048SOL    HW169977  12.599  11.774  11.127
56048SOL    HW269978  12.490  11.756  11.023
56049SOL     OW69979   3.970   5.197  14.443
56049SOL    HW169980   3.936   5.162  14.525
56049SOL    HW269981   4.065   5.187  14.449
56050SOL     OW69982   4.577   3.486   9.210
56050SOL    HW169983   4.530   3.419   9.160
56050SOL    HW269984   4.549   3.472   9.301
56051SOL     OW69985   0.073  13.954   2.605
56051SOL    HW169986   0.110  13.969   2.518
56051SOL    HW269987  14.872  14.008   2.606
56052SOL     OW69988   6.816   5.336   9.718
56052SOL    HW169989   6.771   5.395   9.658
56052SOL    HW269990   6.808   5.249   9.678
56053SOL     OW69991  13.339   4.172   8.948
56053SOL    HW169992  13.276   4.244   8.937
56053SOL    HW269993  13.400   4.183   8.875
56054SOL     OW69994   8.010   5.175  14.462
56054SOL    HW169995   8.049   5.091  14.487
56054SOL    HW269996   7.943   5.151  14.398
56055SOL     OW69997   3.486   5.839  11.087
56055SOL    HW169998   3.509   5.894  11.013
56055SOL    HW269999   3.403   5.798  11.063
56056SOL     OW70000   6.500   3.488  11.050
56056SOL    HW170001   6.509   3.577  11.082
56056SOL    HW270002   6.412   3.461  11.079
56057SOL     OW70003  12.564  11.744   1.798
56057SOL    HW170004  12.498  11.697   1.848
56057SOL    HW270005  12.586  11.820   1.852
56058SOL     OW70006   6.573   8.920   3.965
56058SOL    HW170007   6.665   8.915   3.939
56058SOL    HW270008   6.530   8.853   3.911
56059SOL     OW70009   4.567   9.041   7.768
56059SOL    HW170010   4.629   8.969   7.783
56059SOL    HW270011   4.502   9.004   7.708
56060SOL     OW70012   1.267  14.596  12.168
56060SOL    HW170013   1.335  14.638  12.115
56060SOL    HW270014   1.274  14.503  12.146
56061SOL     OW70015   2.511   4.026   1.031
56061SOL    HW170016   2.492   4.057   0.942
56061SOL    HW270017   2.565   4.094   1.070
56062SOL     OW70018  12.490   7.490   9.674
56062SOL    HW170019  12.485   7.539   9.756
56062SOL    HW270020  12.583   7.495   9.650
56063SOL     OW70021  10.175   3.905  11.353
56063SOL    HW170022  10.213   3.820  11.331
56063SOL    HW270023  10.190   3.914  11.447
56064SOL     OW70024   5.777   6.468   5.809
56064SOL    HW170025   5.702   6.416   5.781
56064SOL    HW270026   5.801   6.433   5.894
56065SOL     OW70027   9.909   8.362  13.632
56065SOL    HW170028   9.951   8.287  13.591
56065SOL    HW270029   9.941   8.362  13.723
56066SOL     OW70030   6.892   5.028  13.027
56066SOL    HW170031   6.877   5.086  13.102
56066SOL    HW270032   6.805   5.007  12.995
56067SOL     OW70033   6.947  12.514  10.629
56067SOL    HW170034   6.954  12.503  10.724
56067SOL    HW270035   6.930  12.425  10.597
56068SOL     OW70036   4.144   9.245   1.268
56068SOL    HW170037   4.205   9.316   1.285
56068SOL    HW270038   4.058   9.287   1.267
56069SOL     OW70039   1.024  11.847   0.643
56069SOL    HW170040   0.967  11.843   0.565
56069SOL    HW270041   1.113  11.844   0.608
56070SOL     OW70042  10.798  11.791  14.604
56070SOL    HW170043  10.863  11.770  14.537
56070SOL    HW270044  10.768  11.879  14.583
56071SOL     OW70045  10.544   3.452  10.842
56071SOL    HW170046  10.560   3.369  10.888
56071SOL    HW270047  10.541   3.427  10.750
56072SOL     OW70048   4.399  12.817   1.058
56072SOL    HW170049   4.353  12.884   1.108
56072SOL    HW270050   4.347  12.737   1.073
56073SOL     OW70051   4.741  11.190   4.949
56073SOL    HW170052   4.755  11.280   4.918
56073SOL    HW270053   4.785  11.136   4.885
56074SOL     OW70054  13.971  13.046   3.320
56074SOL    HW170055  13.904  13.023   3.385
56074SOL    HW270056  13.999  12.962   3.283
56075SOL     OW70057   4.531  11.511   7.532
56075SOL    HW170058   4.619  11.492   7.499
56075SOL    HW270059   4.499  11.427   7.566
56076SOL     OW70060   0.848   3.119  13.836
56076SOL    HW170061   0.794   3.127  13.915
56076SOL    HW270062   0.935   3.098  13.868
56077SOL     OW70063  12.905   6.602  10.037
56077SOL    HW170064  12.829   6.645   9.998
56077SOL    HW270065  12.873   6.516  10.063
56078SOL     OW70066  13.839   0.158   1.971
56078SOL    HW170067  13.915   0.216   1.967
56078SOL    HW270068  13.849   0.099   1.897
56079SOL     OW70069   0.322   7.032   1.336
56079SOL    HW170070   0.312   7.084   1.416
56079SOL    HW270071   0.378   7.085   1.279
56080SOL     OW70072  14.447  10.512  10.172
56080SOL    HW170073  14.380  10.469  10.117
56080SOL    HW270074  14.397  10.550  10.244
56081SOL     OW70075   1.562   8.210   4.028
56081SOL    HW170076   1.472   8.228   4.055
56081SOL    HW270077   1.576   8.266   3.952
56082SOL     OW70078   7.705   3.848   3.787
56082SOL    HW170079   7.637   3.780   3.782
56082SOL    HW270080   7.676   3.917   3.728
56083SOL     OW70081   2.849   8.494   0.792
56083SOL    HW170082   2.761   8.464   0.769
56083SOL    HW270083   2.901   8.414   0.800
56084SOL     OW70084   3.973   5.980  11.216
56084SOL    HW170085   3.879   5.980  11.236
56084SOL    HW270086   4.007   5.904  11.263
56085SOL     OW70087   8.215   2.924  12.473
56085SOL    HW170088   8.291   2.982  12.473
56085SOL    HW270089   8.236   2.857  12.408
56086SOL     OW70090  13.375   4.403   5.944
56086SOL    HW170091  13.437   4.344   5.902
56086SOL    HW270092  13.296   4.396   5.890
56087SOL     OW70093   3.596   1.497   6.515
56087SOL    HW170094   3.633   1.522   6.600
56087SOL    HW270095   3.526   1.436   6.537
56088SOL     OW70096   8.518  10.834  12.927
56088SOL    HW170097   8.491  10.825  13.018
56088SOL    HW270098   8.558  10.749  12.905
56089SOL     OW70099  12.475  12.417  13.203
56089SOL    HW170100  12.433  12.469  13.135
56089SOL    HW270101  12.439  12.450  13.285
56090SOL     OW70102   4.559  10.803   7.613
56090SOL    HW170103   4.568  10.889   7.654
56090SOL    HW270104   4.554  10.742   7.686
56091SOL     OW70105   9.368   8.892   1.284
56091SOL    HW170106   9.372   8.987   1.293
56091SOL    HW270107   9.376   8.876   1.190
56092SOL     OW70108   7.953   5.124   0.808
56092SOL    HW170109   7.935   5.047   0.862
56092SOL    HW270110   7.869   5.169   0.803
56093SOL     OW70111   1.312  13.346  12.168
56093SOL    HW170112   1.394  13.297  12.157
56093SOL    HW270113   1.266  13.301  12.238
56094SOL     OW70114  12.748   3.836   8.471
56094SOL    HW170115  12.658   3.868   8.474
56094SOL    HW270116  12.744   3.747   8.507
56095SOL     OW70117   0.515   1.024   3.403
56095SOL    HW170118   0.555   1.108   3.426
56095SOL    HW270119   0.463   1.000   3.480
56096SOL     OW70120   9.209   8.290   9.076
56096SOL    HW170121   9.295   8.299   9.119
56096SOL    HW270122   9.228   8.251   8.991
56097SOL     OW70123  14.482   2.467   1.241
56097SOL    HW170124  14.419   2.535   1.218
56097SOL    HW270125  14.473   2.456   1.336
56098SOL     OW70126   1.027   1.611   1.300
56098SOL    HW170127   1.058   1.621   1.390
56098SOL    HW270128   1.028   1.516   1.285
56099SOL     OW70129   4.712   6.730   8.431
56099SOL    HW170130   4.691   6.813   8.474
56099SOL    HW270131   4.786   6.695   8.480
56100SOL     OW70132  14.583   2.418   8.819
56100SOL    HW170133  14.534   2.336   8.825
56100SOL    HW270134  14.546   2.462   8.743
56101SOL     OW70135   7.329  11.418   6.139
56101SOL    HW170136   7.282  11.395   6.059
56101SOL    HW270137   7.396  11.350   6.147
56102SOL     OW70138   0.019  14.762   4.401
56102SOL    HW170139   0.027  14.829   4.333
56102SOL    HW270140   0.107  14.754   4.437
56103SOL     OW70141  13.381   4.017  13.942
56103SOL    HW170142  13.459   4.019  13.887
56103SOL    HW270143  13.354   4.109  13.948
56104SOL     OW70144   3.666   9.681  12.566
56104SOL    HW170145   3.646   9.635  12.485
56104SOL    HW270146   3.740   9.737  12.544
56105SOL     OW70147   3.438  11.119   2.955
56105SOL    HW170148   3.405  11.063   2.886
56105SOL    HW270149   3.402  11.206   2.935
56106SOL     OW70150   0.414   2.479   0.312
56106SOL    HW170151   0.436   2.415   0.379
56106SOL    HW270152   0.488   2.539   0.311
56107SOL     OW70153   2.480  11.627   1.914
56107SOL    HW170154   2.521  11.592   1.993
56107SOL    HW270155   2.386  11.627   1.934
56108SOL     OW70156   6.771   2.062   8.055
56108SOL    HW170157   6.787   2.021   8.140
56108SOL    HW270158   6.683   2.099   8.062
56109SOL     OW70159   1.448   5.710  10.397
56109SOL    HW170160   1.403   5.787  10.363
56109SOL    HW270161   1.382   5.641  10.398
56110SOL     OW70162  12.019   3.133   3.946
56110SOL    HW170163  12.112   3.113   3.941
56110SOL    HW270164  12.008   3.209   3.888
56111SOL     OW70165  10.654  12.179  14.192
56111SOL    HW170166  10.616  12.147  14.110
56111SOL    HW270167  10.721  12.241  14.165
56112SOL     OW70168  11.092   8.485  13.686
56112SOL    HW170169  11.059   8.395  13.695
56112SOL    HW270170  11.151   8.497  13.760
56113SOL     OW70171   0.979  10.358   8.707
56113SOL    HW170172   0.886  10.337   8.698
56113SOL    HW270173   0.988  10.446   8.671
56114SOL     OW70174  13.036   0.995  14.414
56114SOL    HW170175  12.984   1.059  14.463
56114SOL    HW270176  13.070   1.043  14.339
56115SOL     OW70177   4.076  14.377  10.392
56115SOL    HW170178   4.124  14.349  10.314
56115SOL    HW270179   4.037  14.296  10.427
56116SOL     OW70180  13.143  12.904  13.790
56116SOL    HW170181  13.061  12.943  13.820
56116SOL    HW270182  13.137  12.903  13.695
56117SOL     OW70183   0.930   1.045   3.245
56117SOL    HW170184   0.881   1.017   3.322
56117SOL    HW270185   0.950   1.137   3.262
56118SOL     OW70186   8.518   3.460  11.123
56118SOL    HW170187   8.462   3.528  11.084
56118SOL    HW270188   8.456   3.397  11.160
56119SOL     OW70189   9.719   6.072   2.359
56119SOL    HW170190   9.680   5.992   2.393
56119SOL    HW270191   9.707   6.137   2.428
56120SOL     OW70192  10.481  11.912   5.933
56120SOL    HW170193  10.563  11.960   5.933
56120SOL    HW270194  10.488  11.851   6.007
56121SOL     OW70195   6.006   3.551  11.395
56121SOL    HW170196   5.949   3.541  11.318
56121SOL    HW270197   6.082   3.496  11.375
56122SOL     OW70198   9.242  13.575   4.494
56122SOL    HW170199   9.230  13.485   4.462
56122SOL    HW270200   9.273  13.623   4.418
56123SOL     OW70201   4.225   7.354   2.119
56123SOL    HW170202   4.155   7.416   2.102
56123SOL    HW270203   4.181   7.269   2.128
56124SOL     OW70204   9.379  13.829   3.894
56124SOL    HW170205   9.437  13.833   3.818
56124SOL    HW270206   9.315  13.761   3.872
56125SOL     OW70207   1.220   7.746   5.551
56125SOL    HW170208   1.168   7.791   5.618
56125SOL    HW270209   1.215   7.654   5.575
56126SOL     OW70210   4.861   6.175   7.133
56126SOL    HW170211   4.865   6.220   7.049
56126SOL    HW270212   4.905   6.233   7.194
56127SOL     OW70213  12.436   7.225   1.202
56127SOL    HW170214  12.421   7.316   1.229
56127SOL    HW270215  12.465   7.181   1.281
56128SOL     OW70216  12.705  13.044   1.479
56128SOL    HW170217  12.657  12.966   1.453
56128SOL    HW270218  12.776  13.013   1.535
56129SOL     OW70219  11.617   9.571   5.129
56129SOL    HW170220  11.531   9.613   5.130
56129SOL    HW270221  11.635   9.550   5.221
56130SOL     OW70222   8.018   1.842  13.880
56130SOL    HW170223   7.969   1.868  13.802
56130SOL    HW270224   8.098   1.895  13.877
56131SOL     OW70225  12.288   4.750   1.282
56131SOL    HW170226  12.194   4.750   1.263
56131SOL    HW270227  12.293   4.734   1.376
56132SOL     OW70228   0.401  12.068   6.441
56132SOL    HW170229   0.453  12.022   6.375
56132SOL    HW270230   0.442  12.154   6.448
56133SOL     OW70231   9.900   6.924   9.055
56133SOL    HW170232   9.835   6.987   9.023
56133SOL    HW270233   9.983   6.954   9.018
56134SOL     OW70234   3.468   6.042   8.317
56134SOL    HW170235   3.401   6.108   8.332
56134SOL    HW270236   3.544   6.073   8.366
56135SOL     OW70237   9.318   2.960   1.491
56135SOL    HW170238   9.304   2.985   1.400
56135SOL    HW270239   9.312   3.043   1.540
56136SOL     OW70240  14.668   6.538   7.334
56136SOL    HW170241  14.640   6.626   7.361
56136SOL    HW270242  14.676   6.490   7.417
56137SOL     OW70243   1.560   0.811   3.591
56137SOL    HW170244   1.603   0.857   3.663
56137SOL    HW270245   1.526   0.880   3.534
56138SOL     OW70246   7.502  13.681   6.843
56138SOL    HW170247   7.574  13.632   6.882
56138SOL    HW270248   7.459  13.618   6.785
56139SOL     OW70249   8.529   4.487   8.898
56139SOL    HW170250   8.592   4.511   8.830
56139SOL    HW270251   8.545   4.549   8.969
56140SOL     OW70252  12.574   6.060   9.032
56140SOL    HW170253  12.582   6.124   8.962
56140SOL    HW270254  12.507   5.999   9.002
56141SOL     OW70255   8.434   3.463   6.258
56141SOL    HW170256   8.345   3.459   6.224
56141SOL    HW270257   8.423   3.463   6.353
56142SOL     OW70258   5.972   3.336  12.863
56142SOL    HW170259   5.918   3.323  12.785
56142SOL    HW270260   6.031   3.261  12.864
56143SOL     OW70261   9.541   9.931   6.212
56143SOL    HW170262   9.626   9.972   6.193
56143SOL    HW270263   9.523   9.876   6.136
56144SOL     OW70264  14.776   0.136   2.414
56144SOL    HW170265  14.739   0.176   2.336
56144SOL    HW270266  14.855   0.187   2.433
56145SOL     OW70267   2.665  11.057   1.154
56145SOL    HW170268   2.576  11.080   1.130
56145SOL    HW270269   2.671  11.076   1.248
56146SOL     OW70270   9.253  11.684   6.781
56146SOL    HW170271   9.271  11.758   6.724
56146SOL    HW270272   9.206  11.621   6.725
56147SOL     OW70273   7.190   2.099   6.159
56147SOL    HW170274   7.228   2.150   6.230
56147SOL    HW270275   7.261   2.090   6.096
56148SOL     OW70276   3.323   8.892   9.889
56148SOL    HW170277   3.401   8.841   9.912
56148SOL    HW270278   3.304   8.943   9.968
56149SOL     OW70279   9.582   7.479   0.996
56149SOL    HW170280   9.674   7.505   1.005
56149SOL    HW270281   9.539   7.515   1.074
56150SOL     OW70282  12.785   5.638  10.218
56150SOL    HW170283  12.764   5.697  10.291
56150SOL    HW270284  12.726   5.563  10.231
56151SOL     OW70285  10.337   2.046   0.874
56151SOL    HW170286  10.276   2.116   0.897
56151SOL    HW270287  10.280   1.970   0.857
56152SOL     OW70288   1.745   4.773  11.546
56152SOL    HW170289   1.738   4.868  11.554
56152SOL    HW270290   1.654   4.742  11.552
56153SOL     OW70291   1.968   3.773   5.088
56153SOL    HW170292   1.933   3.722   5.162
56153SOL    HW270293   1.930   3.731   5.011
56154SOL     OW70294  13.477   0.453  11.785
56154SOL    HW170295  13.402   0.397  11.767
56154SOL    HW270296  13.450   0.540  11.756
56155SOL     OW70297   6.720  14.374   1.700
56155SOL    HW170298   6.790  14.412   1.754
56155SOL    HW270299   6.764  14.349   1.619
56156SOL     OW70300   8.566  13.729   2.450
56156SOL    HW170301   8.509  13.746   2.525
56156SOL    HW270302   8.509  13.737   2.374
56157SOL     OW70303  14.051   7.183  14.508
56157SOL    HW170304  13.965   7.145  14.526
56157SOL    HW270305  14.113   7.110  14.519
56158SOL     OW70306   3.414  13.683   1.995
56158SOL    HW170307   3.326  13.665   2.028
56158SOL    HW270308   3.406  13.674   1.900
56159SOL     OW70309   6.388  12.435   2.761
56159SOL    HW170310   6.475  12.441   2.720
56159SOL    HW270311   6.401  12.379   2.837
56160SOL     OW70312   4.582  13.033  11.836
56160SOL    HW170313   4.603  13.033  11.930
56160SOL    HW270314   4.496  12.990  11.831
56161SOL     OW70315   9.833  14.109   3.938
56161SOL    HW170316   9.922  14.141   3.946
56161SOL    HW270317   9.811  14.120   3.845
56162SOL     OW70318   7.794   0.318   0.014
56162SOL    HW170319   7.790   0.225  14.874
56162SOL    HW270320   7.888   0.338   0.020
56163SOL     OW70321  10.458  11.513   0.484
56163SOL    HW170322  10.386  11.449   0.483
56163SOL    HW270323  10.435  11.576   0.416
56164SOL     OW70324   4.319   7.028   6.451
56164SOL    HW170325   4.385   7.046   6.385
56164SOL    HW270326   4.325   6.933   6.466
56165SOL     OW70327  10.610  11.160   8.128
56165SOL    HW170328  10.698  11.159   8.163
56165SOL    HW270329  10.553  11.153   8.205
56166SOL     OW70330   5.779   4.351  13.448
56166SOL    HW170331   5.694   4.367  13.488
56166SOL    HW270332   5.825   4.296  13.511
56167SOL     OW70333  11.904   1.834   5.830
56167SOL    HW170334  11.857   1.803   5.907
56167SOL    HW270335  11.847   1.812   5.756
56168SOL     OW70336  10.389   1.773   9.718
56168SOL    HW170337  10.304   1.771   9.762
56168SOL    HW270338  10.384   1.849   9.660
56169SOL     OW70339   7.447   8.135  14.305
56169SOL    HW170340   7.536   8.123  14.338
56169SOL    HW270341   7.407   8.197  14.366
56170SOL     OW70342  11.504   4.538   5.717
56170SOL    HW170343  11.595   4.564   5.727
56170SOL    HW270344  11.454   4.617   5.736
56171SOL     OW70345   1.194   0.143   5.068
56171SOL    HW170346   1.262   0.116   5.130
56171SOL    HW270347   1.113   0.112   5.107
56172SOL     OW70348   6.670   0.489  10.173
56172SOL    HW170349   6.721   0.558  10.215
56172SOL    HW270350   6.735   0.429  10.139
56173SOL     OW70351   6.667   3.892  14.801
56173SOL    HW170352   6.581   3.859  14.774
56173SOL    HW270353   6.728   3.825  14.772
56174SOL     OW70354   7.697  14.183   4.457
56174SOL    HW170355   7.614  14.229   4.452
56174SOL    HW270356   7.678  14.096   4.421
56175SOL     OW70357  13.559   2.611   3.248
56175SOL    HW170358  13.572   2.695   3.292
56175SOL    HW270359  13.636   2.602   3.192
56176SOL     OW70360  10.236  10.499   6.419
56176SOL    HW170361  10.313  10.516   6.364
56176SOL    HW270362  10.170  10.560   6.387
56177SOL     OW70363   1.225  11.237   4.007
56177SOL    HW170364   1.200  11.247   3.915
56177SOL    HW270365   1.222  11.142   4.022
56178SOL     OW70366   0.651  13.318  11.164
56178SOL    HW170367   0.698  13.301  11.246
56178SOL    HW270368   0.695  13.394  11.127
56179SOL     OW70369   3.968   1.085   1.482
56179SOL    HW170370   4.007   1.163   1.522
56179SOL    HW270371   3.923   1.042   1.554
56180SOL     OW70372   4.260   1.184   5.504
56180SOL    HW170373   4.276   1.200   5.597
56180SOL    HW270374   4.170   1.150   5.501
56181SOL     OW70375   5.772  10.012  11.383
56181SOL    HW170376   5.770  10.058  11.298
56181SOL    HW270377   5.730  10.073  11.444
56182SOL     OW70378   3.815   4.285  10.816
56182SOL    HW170379   3.756   4.358  10.799
56182SOL    HW270380   3.851   4.302  10.903
56183SOL     OW70381   9.358  12.552  14.804
56183SOL    HW170382   9.300  12.575  14.877
56183SOL    HW270383   9.443  12.588  14.829
56184SOL     OW70384  12.101   8.888  12.231
56184SOL    HW170385  12.079   8.943  12.306
56184SOL    HW270386  12.195   8.871  12.241
56185SOL     OW70387   9.614  11.712   1.722
56185SOL    HW170388   9.555  11.637   1.720
56185SOL    HW270389   9.566  11.779   1.770
56186SOL     OW70390  13.135   3.870   5.420
56186SOL    HW170391  13.172   3.792   5.461
56186SOL    HW270392  13.109   3.926   5.493
56187SOL     OW70393  10.892   5.241   3.370
56187SOL    HW170394  10.798   5.229   3.361
56187SOL    HW270395  10.902   5.297   3.446
56188SOL     OW70396   2.858   3.435   7.231
56188SOL    HW170397   2.796   3.457   7.301
56188SOL    HW270398   2.926   3.502   7.237
56189SOL     OW70399  10.013  11.115  13.928
56189SOL    HW170400  10.097  11.160  13.923
56189SOL    HW270401   9.949  11.184  13.946
56190SOL     OW70402   6.614  11.208   5.264
56190SOL    HW170403   6.675  11.235   5.196
56190SOL    HW270404   6.600  11.115   5.249
56191SOL     OW70405  14.115   7.292  11.062
56191SOL    HW170406  14.190   7.241  11.094
56191SOL    HW270407  14.083   7.242  10.988
56192SOL     OW70408  13.424   2.240   4.530
56192SOL    HW170409  13.391   2.316   4.481
56192SOL    HW270410  13.514   2.229   4.500
56193SOL     OW70411  14.129   8.857  13.503
56193SOL    HW170412  14.160   8.894  13.421
56193SOL    HW270413  14.143   8.927  13.567
56194SOL     OW70414  12.183   6.835  10.805
56194SOL    HW170415  12.228   6.920  10.801
56194SOL    HW270416  12.192   6.808  10.897
56195SOL     OW70417  10.647  11.872  11.898
56195SOL    HW170418  10.697  11.951  11.877
56195SOL    HW270419  10.613  11.842  11.814
56196SOL     OW70420   3.896   0.783   7.932
56196SOL    HW170421   3.979   0.813   7.896
56196SOL    HW270422   3.913   0.768   8.025
56197SOL     OW70423  11.537   9.431   3.366
56197SOL    HW170424  11.560   9.466   3.452
56197SOL    HW270425  11.442   9.427   3.366
56198SOL     OW70426   2.954  12.365   1.957
56198SOL    HW170427   2.957  12.457   1.929
56198SOL    HW270428   2.958  12.316   1.875
56199SOL     OW70429   7.573  11.178   0.153
56199SOL    HW170430   7.656  11.135   0.172
56199SOL    HW270431   7.590  11.227   0.072
56200SOL     OW70432   8.614   4.869   0.198
56200SOL    HW170433   8.609   4.785   0.243
56200SOL    HW270434   8.575   4.932   0.258
56201SOL     OW70435   5.572   9.931  11.183
56201SOL    HW170436   5.537   9.846  11.208
56201SOL    HW270437   5.629   9.956  11.255
56202SOL     OW70438  11.460   6.089  11.348
56202SOL    HW170439  11.539   6.126  11.308
56202SOL    HW270440  11.430   6.156  11.409
56203SOL     OW70441   8.951   0.070   1.249
56203SOL    HW170442   8.871   0.110   1.214
56203SOL    HW270443   8.969   0.118   1.329
56204SOL     OW70444  14.113  10.513   7.225
56204SOL    HW170445  14.115  10.552   7.313
56204SOL    HW270446  14.193  10.462   7.219
56205SOL     OW70447  12.157  11.829   3.222
56205SOL    HW170448  12.143  11.915   3.260
56205SOL    HW270449  12.143  11.842   3.128
56206SOL     OW70450   3.937   7.715   0.169
56206SOL    HW170451   3.997   7.756   0.107
56206SOL    HW270452   3.895   7.788   0.213
56207SOL     OW70453  10.101   5.900   1.292
56207SOL    HW170454  10.163   5.867   1.228
56207SOL    HW270455  10.081   5.989   1.264
56208SOL     OW70456  13.315   3.112  10.055
56208SOL    HW170457  13.411   3.117  10.061
56208SOL    HW270458  13.288   3.201  10.035
56209SOL     OW70459  12.766   9.752   4.322
56209SOL    HW170460  12.755   9.843   4.297
56209SOL    HW270461  12.834   9.719   4.263
56210SOL     OW70462  11.307   1.826   4.170
56210SOL    HW170463  11.335   1.737   4.192
56210SOL    HW270464  11.215   1.818   4.147
56211SOL     OW70465   4.097   1.972   0.977
56211SOL    HW170466   4.120   2.022   0.898
56211SOL    HW270467   4.179   1.967   1.026
56212SOL     OW70468  11.393   8.729   2.178
56212SOL    HW170469  11.446   8.667   2.129
56212SOL    HW270470  11.338   8.675   2.235
56213SOL     OW70471  11.665   9.991   0.633
56213SOL    HW170472  11.647   9.913   0.581
56213SOL    HW270473  11.721   9.960   0.704
56214SOL     OW70474   0.100   8.442   9.258
56214SOL    HW170475   0.045   8.443   9.180
56214SOL    HW270476   0.109   8.349   9.280
56215SOL     OW70477   3.500   9.998   1.116
56215SOL    HW170478   3.552  10.039   1.185
56215SOL    HW270479   3.459  10.071   1.069
56216SOL     OW70480   4.053  10.744   7.044
56216SOL    HW170481   3.988  10.754   6.974
56216SOL    HW270482   4.112  10.676   7.012
56217SOL     OW70483   1.527   0.909   9.495
56217SOL    HW170484   1.515   0.847   9.567
56217SOL    HW270485   1.581   0.861   9.431
56218SOL     OW70486   1.834   0.494   4.038
56218SOL    HW170487   1.799   0.428   4.098
56218SOL    HW270488   1.851   0.447   3.957
56219SOL     OW70489  12.805   7.792   8.149
56219SOL    HW170490  12.794   7.791   8.244
56219SOL    HW270491  12.729   7.745   8.116
56220SOL     OW70492   5.575   5.633   9.673
56220SOL    HW170493   5.490   5.617   9.715
56220SOL    HW270494   5.582   5.564   9.607
56221SOL     OW70495  12.490  10.993  11.828
56221SOL    HW170496  12.519  10.906  11.856
56221SOL    HW270497  12.570  11.046  11.825
56222SOL     OW70498   3.858  12.920   5.251
56222SOL    HW170499   3.780  12.976   5.253
56222SOL    HW270500   3.841  12.857   5.180
56223SOL     OW70501  13.826   2.216   1.228
56223SOL    HW170502  13.733   2.219   1.205
56223SOL    HW270503  13.826   2.192   1.321
56224SOL     OW70504  12.570  13.487   4.888
56224SOL    HW170505  12.569  13.553   4.819
56224SOL    HW270506  12.489  13.438   4.876
56225SOL     OW70507   4.786   4.828   1.279
56225SOL    HW170508   4.835   4.808   1.358
56225SOL    HW270509   4.853   4.839   1.211
56226SOL     OW70510   7.202   1.920  13.914
56226SOL    HW170511   7.207   1.880  14.001
56226SOL    HW270512   7.178   1.848  13.856
56227SOL     OW70513   4.278   7.650   6.795
56227SOL    HW170514   4.292   7.698   6.877
56227SOL    HW270515   4.226   7.574   6.819
56228SOL     OW70516   2.449  13.288   9.449
56228SOL    HW170517   2.517  13.314   9.387
56228SOL    HW270518   2.464  13.343   9.525
56229SOL     OW70519   6.059   8.627   5.175
56229SOL    HW170520   6.135   8.581   5.213
56229SOL    HW270521   5.987   8.604   5.234
56230SOL     OW70522   3.019  11.428  14.279
56230SOL    HW170523   3.077  11.387  14.343
56230SOL    HW270524   3.003  11.516  14.314
56231SOL     OW70525   8.976   2.338   8.903
56231SOL    HW170526   9.015   2.269   8.956
56231SOL    HW270527   8.922   2.388   8.964
56232SOL     OW70528   6.359  10.020  10.691
56232SOL    HW170529   6.353   9.939  10.640
56232SOL    HW270530   6.419  10.075  10.641
56233SOL     OW70531  13.952   9.431   9.494
56233SOL    HW170532  14.037   9.392   9.473
56233SOL    HW270533  13.968   9.484   9.571
56234SOL     OW70534   8.874   8.519  11.089
56234SOL    HW170535   8.779   8.523  11.103
56234SOL    HW270536   8.892   8.591  11.029
56235SOL     OW70537   5.023  10.773   0.414
56235SOL    HW170538   4.937  10.785   0.373
56235SOL    HW270539   5.008  10.789   0.507
56236SOL     OW70540   7.573  10.203  10.894
56236SOL    HW170541   7.510  10.189  10.823
56236SOL    HW270542   7.544  10.144  10.963
56237SOL     OW70543  10.766   4.789   3.379
56237SOL    HW170544  10.848   4.833   3.400
56237SOL    HW270545  10.791   4.715   3.324
56238SOL     OW70546   9.755   9.093   6.540
56238SOL    HW170547   9.835   9.143   6.521
56238SOL    HW270548   9.732   9.053   6.456
56239SOL     OW70549  11.498   5.433   1.429
56239SOL    HW170550  11.593   5.446   1.429
56239SOL    HW270551  11.473   5.441   1.521
56240SOL     OW70552   8.376   8.232   8.994
56240SOL    HW170553   8.319   8.235   8.917
56240SOL    HW270554   8.409   8.142   8.996
56241SOL     OW70555   2.295   8.405   3.455
56241SOL    HW170556   2.295   8.492   3.494
56241SOL    HW270557   2.386   8.376   3.461
56242SOL     OW70558  11.890   4.579  11.003
56242SOL    HW170559  11.872   4.622  10.919
56242SOL    HW270560  11.954   4.511  10.981
56243SOL     OW70561   8.991   3.226   7.866
56243SOL    HW170562   8.928   3.170   7.821
56243SOL    HW270563   8.961   3.315   7.850
56244SOL     OW70564  12.330   8.784   1.016
56244SOL    HW170565  12.331   8.737   0.933
56244SOL    HW270566  12.413   8.763   1.057
56245SOL     OW70567   9.141   9.145   1.636
56245SOL    HW170568   9.220   9.199   1.643
56245SOL    HW270569   9.166   9.074   1.576
56246SOL     OW70570   4.830   8.695   3.863
56246SOL    HW170571   4.748   8.744   3.855
56246SOL    HW270572   4.841   8.652   3.778
56247SOL     OW70573  12.676   3.409   8.039
56247SOL    HW170574  12.640   3.402   7.951
56247SOL    HW270575  12.765   3.376   8.032
56248SOL     OW70576   2.217   4.818  11.307
56248SOL    HW170577   2.219   4.883  11.237
56248SOL    HW270578   2.261   4.742  11.270
56249SOL     OW70579   6.577  12.438  11.042
56249SOL    HW170580   6.541  12.526  11.051
56249SOL    HW270581   6.611  12.417  11.129
56250SOL     OW70582   9.259  12.016   2.278
56250SOL    HW170583   9.273  11.966   2.198
56250SOL    HW270584   9.165  12.036   2.278
56251SOL     OW70585  10.166   4.820   3.360
56251SOL    HW170586  10.225   4.894   3.367
56251SOL    HW270587  10.172   4.776   3.445
56252SOL     OW70588   8.588   4.872  11.222
56252SOL    HW170589   8.541   4.866  11.306
56252SOL    HW270590   8.635   4.955  11.227
56253SOL     OW70591  10.891   9.243   5.078
56253SOL    HW170592  10.895   9.179   5.149
56253SOL    HW270593  10.835   9.313   5.111
56254SOL     OW70594  13.949  11.258   9.866
56254SOL    HW170595  13.891  11.333   9.881
56254SOL    HW270596  14.024  11.295   9.819
56255SOL     OW70597   4.504  12.583   8.919
56255SOL    HW170598   4.436  12.609   8.981
56255SOL    HW270599   4.488  12.637   8.842
56256SOL     OW70600  10.784  10.220   6.108
56256SOL    HW170601  10.740  10.142   6.142
56256SOL    HW270602  10.813  10.196   6.020
56257SOL     OW70603   7.534   3.954  10.979
56257SOL    HW170604   7.578   3.873  11.005
56257SOL    HW270605   7.466   3.967  11.045
56258SOL     OW70606   5.662   3.669   7.440
56258SOL    HW170607   5.729   3.728   7.406
56258SOL    HW270608   5.623   3.717   7.513
56259SOL     OW70609  14.391  12.118   0.023
56259SOL    HW170610  14.424  12.164  14.825
56259SOL    HW270611  14.333  12.181   0.066
56260SOL     OW70612   6.563   1.080   2.699
56260SOL    HW170613   6.482   1.119   2.665
56260SOL    HW270614   6.578   1.126   2.782
56261SOL     OW70615  12.751  10.597   6.095
56261SOL    HW170616  12.761  10.690   6.077
56261SOL    HW270617  12.679  10.569   6.039
56262SOL     OW70618  10.417  12.743   9.817
56262SOL    HW170619  10.442  12.836   9.814
56262SOL    HW270620  10.332  12.743   9.863
56263SOL     OW70621  13.019   5.762   2.696
56263SOL    HW170622  12.964   5.685   2.715
56263SOL    HW270623  13.047   5.794   2.782
56264SOL     OW70624  14.153   1.323  13.137
56264SOL    HW170625  14.104   1.298  13.216
56264SOL    HW270626  14.087   1.325  13.068
56265SOL     OW70627   5.579   1.156   1.412
56265SOL    HW170628   5.652   1.105   1.376
56265SOL    HW270629   5.604   1.174   1.503
56266SOL     OW70630   8.236   4.565  13.201
56266SOL    HW170631   8.205   4.618  13.128
56266SOL    HW270632   8.193   4.602  13.278
56267SOL     OW70633   6.303   7.616   1.157
56267SOL    HW170634   6.393   7.647   1.147
56267SOL    HW270635   6.270   7.609   1.068
56268SOL     OW70636   1.744  12.631   3.124
56268SOL    HW170637   1.809  12.614   3.056
56268SOL    HW270638   1.765  12.569   3.193
56269SOL     OW70639   7.906   4.759   8.234
56269SOL    HW170640   7.954   4.812   8.170
56269SOL    HW270641   7.970   4.740   8.302
56270SOL     OW70642   2.108   4.441   4.183
56270SOL    HW170643   2.133   4.349   4.172
56270SOL    HW270644   2.134   4.483   4.101
56271SOL     OW70645  11.057   7.327  11.790
56271SOL    HW170646  11.069   7.303  11.698
56271SOL    HW270647  11.125   7.280  11.837
56272SOL     OW70648  11.268   5.007   8.396
56272SOL    HW170649  11.215   5.046   8.326
56272SOL    HW270650  11.253   4.913   8.388
56273SOL     OW70651   6.430  11.745  14.229
56273SOL    HW170652   6.500  11.697  14.185
56273SOL    HW270653   6.467  11.831  14.250
56274SOL     OW70654   9.307   5.875   9.279
56274SOL    HW170655   9.347   5.880   9.366
56274SOL    HW270656   9.349   5.946   9.230
56275SOL     OW70657  12.400  11.757  13.471
56275SOL    HW170658  12.465  11.818  13.437
56275SOL    HW270659  12.333  11.752  13.402
56276SOL     OW70660   8.509   0.545   7.133
56276SOL    HW170661   8.496   0.508   7.221
56276SOL    HW270662   8.578   0.492   7.094
56277SOL     OW70663  14.119   5.348   2.307
56277SOL    HW170664  14.125   5.283   2.378
56277SOL    HW270665  14.025   5.360   2.293
56278SOL     OW70666   8.516   6.017  13.339
56278SOL    HW170667   8.431   5.976  13.325
56278SOL    HW270668   8.516   6.093  13.279
56279SOL     OW70669   4.198   1.535   9.427
56279SOL    HW170670   4.121   1.566   9.475
56279SOL    HW270671   4.181   1.441   9.415
56280SOL     OW70672  13.934  11.670  14.481
56280SOL    HW170673  13.957  11.591  14.529
56280SOL    HW270674  14.012  11.726  14.487
56281SOL     OW70675  13.074   6.083   0.853
56281SOL    HW170676  13.169   6.074   0.844
56281SOL    HW270677  13.053   6.036   0.934
56282SOL     OW70678  12.088   6.997   0.049
56282SOL    HW170679  12.018   6.996   0.114
56282SOL    HW270680  12.164   6.961   0.095
56283SOL     OW70681   3.395   1.706   2.875
56283SOL    HW170682   3.470   1.699   2.815
56283SOL    HW270683   3.322   1.667   2.827
56284SOL     OW70684   7.310   9.092   8.338
56284SOL    HW170685   7.334   9.027   8.404
56284SOL    HW270686   7.285   9.041   8.261
56285SOL     OW70687   9.094  10.018  13.959
56285SOL    HW170688   9.158  10.089  13.949
56285SOL    HW270689   9.140   9.952  14.011
56286SOL     OW70690   8.310   3.161  12.130
56286SOL    HW170691   8.269   3.212  12.200
56286SOL    HW270692   8.375   3.220  12.091
56287SOL     OW70693   9.318   7.037   3.204
56287SOL    HW170694   9.358   7.119   3.176
56287SOL    HW270695   9.261   7.012   3.132
56288SOL     OW70696   4.265   8.672   5.219
56288SOL    HW170697   4.225   8.758   5.234
56288SOL    HW270698   4.349   8.677   5.266
56289SOL     OW70699  13.402   6.224  14.766
56289SOL    HW170700  13.466   6.257  14.703
56289SOL    HW270701  13.455   6.189  14.838
56290SOL     OW70702  10.988   9.247  13.301
56290SOL    HW170703  10.906   9.215  13.264
56290SOL    HW270704  11.019   9.311  13.237
56291SOL     OW70705  14.640  10.813   1.487
56291SOL    HW170706  14.616  10.867   1.562
56291SOL    HW270707  14.734  10.799   1.497
56292SOL     OW70708  13.793   7.747  10.414
56292SOL    HW170709  13.704   7.782  10.410
56292SOL    HW270710  13.806   7.727  10.507
56293SOL     OW70711  10.132  14.592  10.456
56293SOL    HW170712  10.147  14.684  10.432
56293SOL    HW270713  10.041  14.576  10.432
56294SOL     OW70714   9.716   1.626   2.307
56294SOL    HW170715   9.743   1.628   2.215
56294SOL    HW270716   9.761   1.699   2.347
56295SOL     OW70717  11.828   3.773   0.599
56295SOL    HW170718  11.872   3.790   0.683
56295SOL    HW270719  11.783   3.856   0.579
56296SOL     OW70720   9.410   4.671   7.071
56296SOL    HW170721   9.362   4.750   7.045
56296SOL    HW270722   9.447   4.638   6.990
56297SOL     OW70723   8.151   4.552   2.581
56297SOL    HW170724   8.190   4.615   2.642
56297SOL    HW270725   8.112   4.485   2.637
56298SOL     OW70726  11.562  14.496   8.575
56298SOL    HW170727  11.522  14.409   8.574
56298SOL    HW270728  11.547  14.529   8.664
56299SOL     OW70729   9.091   2.545   1.629
56299SOL    HW170730   9.101   2.628   1.582
56299SOL    HW270731   9.005   2.513   1.604
56300SOL     OW70732  14.431  13.302   7.709
56300SOL    HW170733  14.475  13.322   7.791
56300SOL    HW270734  14.494  13.326   7.641
56301SOL     OW70735   3.400   4.498   8.090
56301SOL    HW170736   3.380   4.415   8.046
56301SOL    HW270737   3.390   4.479   8.183
56302SOL     OW70738   9.525   3.801   8.512
56302SOL    HW170739   9.518   3.892   8.541
56302SOL    HW270740   9.530   3.751   8.594
56303SOL     OW70741   6.922  12.672   1.496
56303SOL    HW170742   6.968  12.589   1.480
56303SOL    HW270743   6.975  12.716   1.563
56304SOL     OW70744   2.076  14.014   6.756
56304SOL    HW170745   2.001  14.052   6.710
56304SOL    HW270746   2.153  14.050   6.712
56305SOL     OW70747   1.152   3.736   6.811
56305SOL    HW170748   1.150   3.646   6.778
56305SOL    HW270749   1.124   3.790   6.737
56306SOL     OW70750   9.320   5.978  10.327
56306SOL    HW170751   9.404   5.933  10.340
56306SOL    HW270752   9.337   6.068  10.353
56307SOL     OW70753   1.778   7.006   0.712
56307SOL    HW170754   1.731   6.983   0.632
56307SOL    HW270755   1.818   6.924   0.741
56308SOL     OW70756   2.916   7.493   6.517
56308SOL    HW170757   2.907   7.523   6.426
56308SOL    HW270758   3.010   7.480   6.529
56309SOL     OW70759   9.923   1.879  14.093
56309SOL    HW170760   9.912   1.894  13.999
56309SOL    HW270761  10.015   1.900  14.110
56310SOL     OW70762   5.304   4.856   2.377
56310SOL    HW170763   5.365   4.832   2.447
56310SOL    HW270764   5.265   4.773   2.351
56311SOL     OW70765   2.259  11.241  12.628
56311SOL    HW170766   2.318  11.282  12.690
56311SOL    HW270767   2.252  11.150  12.658
56312SOL     OW70768   9.791   7.151   3.549
56312SOL    HW170769   9.725   7.168   3.482
56312SOL    HW270770   9.875   7.159   3.502
56313SOL     OW70771  13.524   9.785   9.359
56313SOL    HW170772  13.464   9.786   9.285
56313SOL    HW270773  13.508   9.701   9.401
56314SOL     OW70774   9.256   2.833   3.629
56314SOL    HW170775   9.277   2.912   3.578
56314SOL    HW270776   9.254   2.863   3.720
56315SOL     OW70777  11.627  13.281   6.996
56315SOL    HW170778  11.584  13.198   6.978
56315SOL    HW270779  11.574  13.346   6.951
56316SOL     OW70780  10.165  12.176  13.015
56316SOL    HW170781  10.222  12.152  12.942
56316SOL    HW270782  10.087  12.122  13.002
56317SOL     OW70783   2.093  14.302   3.638
56317SOL    HW170784   2.061  14.359   3.708
56317SOL    HW270785   2.062  14.215   3.662
56318SOL     OW70786  12.723   7.248   0.979
56318SOL    HW170787  12.642   7.229   1.027
56318SOL    HW270788  12.772   7.166   0.980
56319SOL     OW70789   0.637  14.234   4.384
56319SOL    HW170790   0.729  14.253   4.403
56319SOL    HW270791   0.589  14.289   4.446
56320SOL     OW70792   6.606   1.235   4.602
56320SOL    HW170793   6.516   1.246   4.634
56320SOL    HW270794   6.649   1.319   4.621
56321SOL     OW70795   6.428   8.614  14.484
56321SOL    HW170796   6.418   8.700  14.444
56321SOL    HW270797   6.370   8.557  14.433
56322SOL     OW70798   6.768   2.507   6.064
56322SOL    HW170799   6.780   2.435   6.002
56322SOL    HW270800   6.788   2.469   6.149
56323SOL     OW70801  13.304  10.020   0.767
56323SOL    HW170802  13.292   9.939   0.816
56323SOL    HW270803  13.385  10.058   0.802
56324SOL     OW70804   3.316   8.239   3.422
56324SOL    HW170805   3.234   8.288   3.417
56324SOL    HW270806   3.297   8.167   3.482
56325SOL     OW70807   5.033  10.543  12.966
56325SOL    HW170808   5.011  10.574  12.878
56325SOL    HW270809   4.979  10.466  12.979
56326SOL     OW70810  13.097  13.286   0.146
56326SOL    HW170811  13.063  13.374   0.158
56326SOL    HW270812  13.037  13.230   0.196
56327SOL     OW70813   7.133   4.746  14.795
56327SOL    HW170814   7.198   4.685  14.762
56327SOL    HW270815   7.176   4.790  14.868
56328SOL     OW70816   5.650   2.255  10.262
56328SOL    HW170817   5.700   2.200  10.322
56328SOL    HW270818   5.666   2.344  10.293
56329SOL     OW70819   6.152   0.220   0.210
56329SOL    HW170820   6.213   0.146   0.220
56329SOL    HW270821   6.067   0.184   0.233
56330SOL     OW70822   7.770  14.280   4.050
56330SOL    HW170823   7.756  14.298   4.142
56330SOL    HW270824   7.846  14.221   4.048
56331SOL     OW70825  14.341  12.226  10.573
56331SOL    HW170826  14.431  12.209  10.599
56331SOL    HW270827  14.340  12.317  10.544
56332SOL     OW70828  13.814  12.488   5.939
56332SOL    HW170829  13.724  12.508   5.964
56332SOL    HW270830  13.824  12.395   5.956
56333SOL     OW70831   1.855   0.369   1.995
56333SOL    HW170832   1.888   0.300   1.937
56333SOL    HW270833   1.773   0.333   2.029
56334SOL     OW70834   0.464  11.925   1.943
56334SOL    HW170835   0.410  11.940   2.021
56334SOL    HW270836   0.532  11.864   1.973
56335SOL     OW70837  13.216  11.286   9.620
56335SOL    HW170838  13.131  11.262   9.656
56335SOL    HW270839  13.278  11.273   9.691
56336SOL     OW70840   6.234   3.539   0.354
56336SOL    HW170841   6.211   3.598   0.425
56336SOL    HW270842   6.162   3.547   0.292
56337SOL     OW70843  12.062   1.915  13.786
56337SOL    HW170844  12.118   1.874  13.852
56337SOL    HW270845  12.036   1.843  13.729
56338SOL     OW70846   5.245  11.968  12.339
56338SOL    HW170847   5.156  12.000  12.325
56338SOL    HW270848   5.251  11.890  12.284
56339SOL     OW70849   9.053   1.914   7.809
56339SOL    HW170850   8.985   1.920   7.876
56339SOL    HW270851   9.083   1.823   7.813
56340SOL     OW70852  12.603  13.202   2.425
56340SOL    HW170853  12.653  13.197   2.507
56340SOL    HW270854  12.563  13.115   2.417
56341SOL     OW70855   4.954  13.469  12.592
56341SOL    HW170856   4.887  13.422  12.542
56341SOL    HW270857   5.018  13.401  12.616
56342SOL     OW70858   4.111   3.672  11.673
56342SOL    HW170859   4.188   3.630  11.711
56342SOL    HW270860   4.084   3.613  11.603
56343SOL     OW70861   9.245   2.759  13.210
56343SOL    HW170862   9.282   2.726  13.129
56343SOL    HW270863   9.160   2.716  13.218
56344SOL     OW70864  13.471  14.747   0.027
56344SOL    HW170865  13.394  14.791  14.869
56344SOL    HW270866  13.501  14.689  14.836
56345SOL     OW70867   4.381   3.062   4.384
56345SOL    HW170868   4.400   3.022   4.469
56345SOL    HW270869   4.365   2.987   4.326
56346SOL     OW70870  12.520   8.751   0.213
56346SOL    HW170871  12.520   8.779   0.121
56346SOL    HW270872  12.539   8.831   0.262
56347SOL     OW70873   7.704   7.675   2.414
56347SOL    HW170874   7.701   7.606   2.480
56347SOL    HW270875   7.625   7.726   2.429
56348SOL     OW70876   0.593   5.158   0.465
56348SOL    HW170877   0.537   5.087   0.497
56348SOL    HW270878   0.570   5.166   0.372
56349SOL     OW70879  10.258  12.831   2.913
56349SOL    HW170880  10.344  12.870   2.924
56349SOL    HW270881  10.265  12.744   2.952
56350SOL     OW70882  13.519   2.619  11.985
56350SOL    HW170883  13.456   2.689  11.968
56350SOL    HW270884  13.475   2.539  11.957
56351SOL     OW70885   8.828  13.604   9.248
56351SOL    HW170886   8.759  13.636   9.306
56351SOL    HW270887   8.790  13.611   9.160
56352SOL     OW70888  11.857   8.470   0.348
56352SOL    HW170889  11.933   8.425   0.313
56352SOL    HW270890  11.838   8.538   0.284
56353SOL     OW70891   4.351   7.493  12.191
56353SOL    HW170892   4.412   7.451  12.131
56353SOL    HW270893   4.278   7.431  12.198
56354SOL     OW70894   5.983   6.863   3.541
56354SOL    HW170895   5.889   6.878   3.527
56354SOL    HW270896   6.011   6.939   3.591
56355SOL     OW70897   1.999   8.631   4.131
56355SOL    HW170898   2.070   8.636   4.067
56355SOL    HW270899   1.965   8.542   4.121
56356SOL     OW70900   7.350  12.079   8.562
56356SOL    HW170901   7.324  11.998   8.519
56356SOL    HW270902   7.401  12.127   8.496
56357SOL     OW70903   5.263  13.229  11.070
56357SOL    HW170904   5.246  13.312  11.113
56357SOL    HW270905   5.177  13.197  11.044
56358SOL     OW70906   9.255   9.373  12.345
56358SOL    HW170907   9.174   9.363  12.395
56358SOL    HW270908   9.229   9.419  12.265
56359SOL     OW70909  13.219   2.111  13.714
56359SOL    HW170910  13.256   2.130  13.628
56359SOL    HW270911  13.285   2.141  13.776
56360SOL     OW70912  11.072   4.316  13.586
56360SOL    HW170913  11.142   4.323  13.521
56360SOL    HW270914  11.100   4.373  13.658
56361SOL     OW70915   5.797   1.516   1.453
56361SOL    HW170916   5.866   1.553   1.397
56361SOL    HW270917   5.821   1.424   1.464
56362SOL     OW70918   0.386   5.227   0.833
56362SOL    HW170919   0.323   5.172   0.787
56362SOL    HW270920   0.369   5.316   0.801
56363SOL     OW70921   4.536   5.129  12.037
56363SOL    HW170922   4.526   5.222  12.053
56363SOL    HW270923   4.616   5.121  11.986
56364SOL     OW70924  11.985   3.806   3.127
56364SOL    HW170925  11.936   3.884   3.100
56364SOL    HW270926  11.988   3.752   3.048
56365SOL     OW70927  11.984  12.481   5.479
56365SOL    HW170928  12.014  12.391   5.469
56365SOL    HW270929  11.905  12.487   5.425
56366SOL     OW70930   3.342  14.125   9.140
56366SOL    HW170931   3.268  14.166   9.183
56366SOL    HW270932   3.400  14.097   9.211
56367SOL     OW70933  12.672  12.911   6.424
56367SOL    HW170934  12.579  12.914   6.444
56367SOL    HW270935  12.706  12.841   6.481
56368SOL     OW70936   0.948   8.841   6.952
56368SOL    HW170937   1.009   8.858   6.880
56368SOL    HW270938   1.001   8.852   7.031
56369SOL     OW70939   8.261   0.530  13.380
56369SOL    HW170940   8.314   0.596  13.425
56369SOL    HW270941   8.311   0.449  13.388
56370SOL     OW70942  10.697   8.843   0.521
56370SOL    HW170943  10.733   8.785   0.588
56370SOL    HW270944  10.603   8.826   0.521
56371SOL     OW70945   8.288   4.171   4.659
56371SOL    HW170946   8.299   4.244   4.720
56371SOL    HW270947   8.377   4.150   4.631
56372SOL     OW70948   2.073   2.803   9.466
56372SOL    HW170949   2.013   2.851   9.524
56372SOL    HW270950   2.128   2.752   9.526
56373SOL     OW70951   2.362   2.518  12.135
56373SOL    HW170952   2.443   2.564  12.114
56373SOL    HW270953   2.374   2.490  12.226
56374SOL     OW70954   4.485  10.833   0.395
56374SOL    HW170955   4.549  10.766   0.368
56374SOL    HW270956   4.482  10.894   0.321
56375SOL     OW70957  13.760  12.871   2.096
56375SOL    HW170958  13.712  12.937   2.046
56375SOL    HW270959  13.851  12.881   2.068
56376SOL     OW70960   5.768  10.816   9.759
56376SOL    HW170961   5.684  10.774   9.741
56376SOL    HW270962   5.751  10.910   9.749
56377SOL     OW70963   2.546  14.503  13.242
56377SOL    HW170964   2.578  14.442  13.176
56377SOL    HW270965   2.572  14.464  13.325
56378SOL     OW70966   7.215   9.293  10.511
56378SOL    HW170967   7.173   9.232  10.451
56378SOL    HW270968   7.307   9.267  10.513
56379SOL     OW70969   5.083   1.175  12.795
56379SOL    HW170970   5.175   1.150  12.797
56379SOL    HW270971   5.038   1.107  12.846
56380SOL     OW70972  13.525   0.324  12.329
56380SOL    HW170973  13.501   0.410  12.363
56380SOL    HW270974  13.446   0.270  12.343
56381SOL     OW70975  10.653   8.264  12.268
56381SOL    HW170976  10.606   8.242  12.187
56381SOL    HW270977  10.608   8.215  12.336
56382SOL     OW70978   1.433   1.791   6.213
56382SOL    HW170979   1.488   1.718   6.239
56382SOL    HW270980   1.343   1.762   6.232
56383SOL     OW70981   1.947   4.992   9.395
56383SOL    HW170982   1.928   5.080   9.365
56383SOL    HW270983   2.010   5.003   9.466
56384SOL     OW70984  11.074   9.151   4.919
56384SOL    HW170985  11.092   9.090   4.990
56384SOL    HW270986  10.998   9.201   4.948
56385SOL     OW70987  10.451   4.452   8.172
56385SOL    HW170988  10.460   4.392   8.246
56385SOL    HW270989  10.498   4.531   8.199
56386SOL     OW70990  14.553   5.451  11.770
56386SOL    HW170991  14.468   5.494  11.764
56386SOL    HW270992  14.533   5.357  11.772
56387SOL     OW70993   6.348   8.251   5.450
56387SOL    HW170994   6.300   8.332   5.463
56387SOL    HW270995   6.426   8.259   5.505
56388SOL     OW70996   9.006   0.997   7.567
56388SOL    HW170997   8.917   0.991   7.533
56388SOL    HW270998   9.057   1.034   7.495
56389SOL     OW70999   1.683   4.817   6.388
56389SOL    HW171000   1.630   4.892   6.362
56389SOL    HW271001   1.639   4.780   6.464
56390SOL     OW71002   1.513  11.374   9.149
56390SOL    HW171003   1.528  11.468   9.147
56390SOL    HW271004   1.496  11.351   9.057
56391SOL     OW71005  10.641   9.215   7.778
56391SOL    HW171006  10.728   9.177   7.792
56391SOL    HW271007  10.602   9.162   7.709
56392SOL     OW71008   9.659   2.339  13.974
56392SOL    HW171009   9.664   2.414  13.915
56392SOL    HW271010   9.650   2.263  13.916
56393SOL     OW71011  14.369  11.602  12.576
56393SOL    HW171012  14.280  11.626  12.601
56393SOL    HW271013  14.388  11.657  12.500
56394SOL     OW71014  11.078   0.447   7.705
56394SOL    HW171015  10.989   0.421   7.731
56394SOL    HW271016  11.133   0.374   7.733
56395SOL     OW71017   3.556   0.537  14.755
56395SOL    HW171018   3.495   0.464  14.754
56395SOL    HW271019   3.504   0.612  14.726
56396SOL     OW71020   1.416   8.541  10.474
56396SOL    HW171021   1.391   8.563  10.384
56396SOL    HW271022   1.470   8.614  10.502
56397SOL     OW71023  14.838   5.612  10.226
56397SOL    HW171024  14.821   5.519  10.230
56397SOL    HW271025  14.873   5.635  10.312
56398SOL     OW71026   5.751  11.817   2.570
56398SOL    HW171027   5.736  11.851   2.658
56398SOL    HW271028   5.673  11.765   2.551
56399SOL     OW71029   4.743   4.846  12.425
56399SOL    HW171030   4.800   4.870  12.352
56399SOL    HW271031   4.682   4.919  12.433
56400SOL     OW71032  10.976   1.217   8.136
56400SOL    HW171033  10.950   1.253   8.052
56400SOL    HW271034  11.009   1.292   8.186
56401SOL     OW71035   5.662  14.193   0.036
56401SOL    HW171036   5.717  14.267   0.009
56401SOL    HW271037   5.724  14.120   0.047
56402SOL     OW71038  12.590   6.764   6.541
56402SOL    HW171039  12.624   6.853   6.544
56402SOL    HW271040  12.527   6.763   6.469
56403SOL     OW71041   0.703  10.224   4.622
56403SOL    HW171042   0.678  10.309   4.660
56403SOL    HW271043   0.622  10.173   4.623
56404SOL     OW71044  14.045   0.902   3.976
56404SOL    HW171045  13.953   0.892   4.003
56404SOL    HW271046  14.081   0.814   3.982
56405SOL     OW71047   4.219   6.116   6.760
56405SOL    HW171048   4.165   6.192   6.782
56405SOL    HW271049   4.203   6.101   6.667
56406SOL     OW71050  14.327   9.026   8.414
56406SOL    HW171051  14.381   9.041   8.337
56406SOL    HW271052  14.381   9.052   8.488
56407SOL     OW71053   6.684  14.183  13.925
56407SOL    HW171054   6.606  14.180  13.870
56407SOL    HW271055   6.692  14.275  13.950
56408SOL     OW71056   1.380   9.762   3.433
56408SOL    HW171057   1.333   9.727   3.508
56408SOL    HW271058   1.321   9.749   3.359
56409SOL     OW71059   3.728   7.521  10.322
56409SOL    HW171060   3.676   7.482  10.251
56409SOL    HW271061   3.735   7.613  10.298
56410SOL     OW71062   1.912  11.344   6.584
56410SOL    HW171063   1.860  11.314   6.658
56410SOL    HW271064   1.873  11.428   6.560
56411SOL     OW71065   1.511  13.024   1.752
56411SOL    HW171066   1.508  12.940   1.706
56411SOL    HW271067   1.551  13.004   1.836
56412SOL     OW71068   9.145  14.707   2.742
56412SOL    HW171069   9.137  14.787   2.689
56412SOL    HW271070   9.188  14.736   2.822
56413SOL     OW71071  12.656  12.033   2.617
56413SOL    HW171072  12.614  12.118   2.635
56413SOL    HW271073  12.640  12.017   2.525
56414SOL     OW71074   6.693   7.136   5.939
56414SOL    HW171075   6.781   7.169   5.961
56414SOL    HW271076   6.689   7.050   5.980
56415SOL     OW71077   4.797   2.103   6.982
56415SOL    HW171078   4.816   2.194   6.961
56415SOL    HW271079   4.882   2.065   7.004
56416SOL     OW71080  12.424  14.633   4.807
56416SOL    HW171081  12.357  14.676   4.754
56416SOL    HW271082  12.393  14.543   4.816
56417SOL     OW71083  11.911  11.710   3.388
56417SOL    HW171084  11.948  11.669   3.467
56417SOL    HW271085  11.988  11.731   3.334
56418SOL     OW71086  13.800   6.062   2.505
56418SOL    HW171087  13.724   6.059   2.563
56418SOL    HW271088  13.789   6.143   2.455
56419SOL     OW71089   8.441   0.490   6.355
56419SOL    HW171090   8.387   0.412   6.367
56419SOL    HW271091   8.384   0.563   6.376
56420SOL     OW71092  12.781   8.827  12.499
56420SOL    HW171093  12.830   8.810  12.579
56420SOL    HW271094  12.746   8.741  12.474
56421SOL     OW71095  12.078   7.810   2.951
56421SOL    HW171096  12.142   7.876   2.975
56421SOL    HW271097  12.003   7.860   2.917
56422SOL     OW71098  12.020   9.225   4.677
56422SOL    HW171099  12.036   9.234   4.583
56422SOL    HW271100  12.022   9.131   4.692
56423SOL     OW71101   5.484   7.177   4.185
56423SOL    HW171102   5.496   7.082   4.176
56423SOL    HW271103   5.419   7.198   4.118
56424SOL     OW71104   4.877  10.601   4.405
56424SOL    HW171105   4.962  10.575   4.440
56424SOL    HW271106   4.867  10.549   4.325
56425SOL     OW71107   6.302   5.240   8.180
56425SOL    HW171108   6.395   5.237   8.203
56425SOL    HW271109   6.290   5.327   8.142
56426SOL     OW71110   3.171   4.959   1.231
56426SOL    HW171111   3.077   4.947   1.217
56426SOL    HW271112   3.189   4.916   1.315
56427SOL     OW71113  14.339   1.286  14.336
56427SOL    HW171114  14.273   1.231  14.294
56427SOL    HW271115  14.402   1.225  14.374
56428SOL     OW71116  11.725   0.953  10.476
56428SOL    HW171117  11.655   0.901  10.437
56428SOL    HW271118  11.713   1.041  10.439
56429SOL     OW71119   1.094   7.634   5.984
56429SOL    HW171120   1.109   7.617   5.891
56429SOL    HW271121   1.024   7.700   5.985
56430SOL     OW71122   8.465   5.347  13.085
56430SOL    HW171123   8.443   5.402  13.010
56430SOL    HW271124   8.386   5.347  13.139
56431SOL     OW71125  10.994   7.309  12.388
56431SOL    HW171126  10.964   7.327  12.299
56431SOL    HW271127  11.024   7.218  12.385
56432SOL     OW71128   4.918  13.017   0.869
56432SOL    HW171129   4.946  12.929   0.894
56432SOL    HW271130   4.841  13.035   0.924
56433SOL     OW71131  11.894   9.498   9.082
56433SOL    HW171132  11.966   9.479   9.142
56433SOL    HW271133  11.937   9.508   8.996
56434SOL     OW71134  10.715   5.896   0.849
56434SOL    HW171135  10.656   5.873   0.921
56434SOL    HW271136  10.677   5.853   0.772
56435SOL     OW71137   1.241   6.158   7.473
56435SOL    HW171138   1.193   6.208   7.539
56435SOL    HW271139   1.289   6.092   7.522
56436SOL     OW71140   9.057   5.364   2.655
56436SOL    HW171141   8.987   5.381   2.592
56436SOL    HW271142   9.107   5.293   2.616
56437SOL     OW71143   2.199   7.789   7.019
56437SOL    HW171144   2.273   7.781   6.958
56437SOL    HW271145   2.128   7.826   6.966
56438SOL     OW71146   2.590  10.420   6.311
56438SOL    HW171147   2.595  10.325   6.326
56438SOL    HW271148   2.681  10.449   6.313
56439SOL     OW71149   8.156   5.722   9.729
56439SOL    HW171150   8.203   5.648   9.768
56439SOL    HW271151   8.211   5.798   9.750
56440SOL     OW71152   8.950   2.580   0.430
56440SOL    HW171153   8.941   2.594   0.524
56440SOL    HW271154   9.023   2.519   0.421
56441SOL     OW71155   2.789   5.195   0.294
56441SOL    HW171156   2.839   5.244   0.228
56441SOL    HW271157   2.841   5.202   0.374
56442SOL     OW71158  12.286   2.762  12.509
56442SOL    HW171159  12.305   2.753  12.415
56442SOL    HW271160  12.202   2.718  12.520
56443SOL     OW71161   3.959  10.001   1.384
56443SOL    HW171162   3.898   9.931   1.407
56443SOL    HW271163   3.910  10.082   1.398
56444SOL     OW71164   6.710   2.287  12.625
56444SOL    HW171165   6.697   2.223  12.695
56444SOL    HW271166   6.669   2.247  12.548
56445SOL     OW71167  14.720  11.011   2.655
56445SOL    HW171168  14.729  11.030   2.749
56445SOL    HW271169  14.707  11.096   2.614
56446SOL     OW71170   9.031  14.260  12.023
56446SOL    HW171171   9.098  14.293  11.963
56446SOL    HW271172   9.056  14.294  12.109
56447SOL     OW71173   4.593  10.793  13.794
56447SOL    HW171174   4.664  10.855  13.812
56447SOL    HW271175   4.564  10.765  13.881
56448SOL     OW71176   3.871  10.457   8.791
56448SOL    HW171177   3.937  10.463   8.859
56448SOL    HW271178   3.910  10.401   8.724
56449SOL     OW71179   4.924   8.045  10.781
56449SOL    HW171180   4.861   7.977  10.803
56449SOL    HW271181   4.994   8.035  10.846
56450SOL     OW71182   5.649   3.725   2.361
56450SOL    HW171183   5.685   3.728   2.450
56450SOL    HW271184   5.721   3.755   2.305
56451SOL     OW71185  11.527   9.187   6.285
56451SOL    HW171186  11.434   9.164   6.284
56451SOL    HW271187  11.554   9.176   6.377
56452SOL     OW71188   1.594   1.514  12.733
56452SOL    HW171189   1.640   1.559  12.803
56452SOL    HW271190   1.629   1.552  12.652
56453SOL     OW71191  10.973   9.288   9.128
56453SOL    HW171192  10.905   9.355   9.131
56453SOL    HW271193  10.991   9.269   9.220
56454SOL     OW71194   4.598  12.417  10.125
56454SOL    HW171195   4.562  12.460  10.203
56454SOL    HW271196   4.684  12.459  10.113
56455SOL     OW71197   4.329  14.857  12.076
56455SOL    HW171198   4.310   0.072  12.083
56455SOL    HW271199   4.369  14.847  11.989
56456SOL     OW71200  13.395   4.409  14.342
56456SOL    HW171201  13.427   4.488  14.384
56456SOL    HW271202  13.462   4.387  14.277
56457SOL     OW71203  10.320   4.981   9.612
56457SOL    HW171204  10.240   5.003   9.565
56457SOL    HW271205  10.318   4.885   9.619
56458SOL     OW71206   2.644   6.357   9.142
56458SOL    HW171207   2.694   6.278   9.167
56458SOL    HW271208   2.686   6.387   9.061
56459SOL     OW71209  11.697   6.474   3.790
56459SOL    HW171210  11.665   6.526   3.863
56459SOL    HW271211  11.652   6.509   3.713
56460SOL     OW71212  10.875  11.911  10.526
56460SOL    HW171213  10.969  11.926  10.511
56460SOL    HW271214  10.863  11.818  10.507
56461SOL     OW71215  10.688  13.408   9.496
56461SOL    HW171216  10.615  13.389   9.555
56461SOL    HW271217  10.719  13.494   9.523
56462SOL     OW71218   8.309  13.042   8.886
56462SOL    HW171219   8.364  13.016   8.960
56462SOL    HW271220   8.229  12.991   8.898
56463SOL     OW71221   3.407   3.328   4.194
56463SOL    HW171222   3.355   3.405   4.171
56463SOL    HW271223   3.347   3.254   4.182
56464SOL     OW71224   8.348   4.397   8.537
56464SOL    HW171225   8.380   4.476   8.493
56464SOL    HW271226   8.425   4.342   8.546
56465SOL     OW71227   4.531   1.007   3.554
56465SOL    HW171228   4.590   0.957   3.610
56465SOL    HW271229   4.496   0.943   3.493
56466SOL     OW71230  11.613   1.182   0.857
56466SOL    HW171231  11.582   1.155   0.770
56466SOL    HW271232  11.539   1.163   0.915
56467SOL     OW71233   0.930   9.677   9.558
56467SOL    HW171234   0.999   9.672   9.624
56467SOL    HW271235   0.864   9.734   9.597
56468SOL     OW71236   4.549  14.252  10.250
56468SOL    HW171237   4.473  14.283  10.201
56468SOL    HW271238   4.567  14.322  10.313
56469SOL     OW71239  13.032  11.638   6.193
56469SOL    HW171240  13.064  11.703   6.130
56469SOL    HW271241  13.096  11.640   6.265
56470SOL     OW71242   5.908   7.310   7.887
56470SOL    HW171243   5.840   7.377   7.896
56470SOL    HW271244   5.901   7.281   7.796
56471SOL     OW71245   7.163  11.867  12.673
56471SOL    HW171246   7.111  11.853  12.753
56471SOL    HW271247   7.252  11.839  12.698
56472SOL     OW71248   4.752   3.268   0.431
56472SOL    HW171249   4.764   3.235   0.342
56472SOL    HW271250   4.781   3.360   0.427
56473SOL     OW71251   9.920   4.907   3.265
56473SOL    HW171252   9.996   4.853   3.285
56473SOL    HW271253   9.938   4.991   3.307
56474SOL     OW71254   6.904   5.929   8.612
56474SOL    HW171255   6.814   5.899   8.599
56474SOL    HW271256   6.954   5.888   8.542
56475SOL     OW71257   5.296   8.458  13.492
56475SOL    HW171258   5.213   8.425  13.526
56475SOL    HW271259   5.272   8.535  13.441
56476SOL     OW71260  13.777   5.960   3.001
56476SOL    HW171261  13.756   5.914   2.920
56476SOL    HW271262  13.699   5.947   3.056
56477SOL     OW71263   5.540  10.049   9.273
56477SOL    HW171264   5.539  10.043   9.369
56477SOL    HW271265   5.461  10.002   9.246
56478SOL     OW71266   7.359   2.028   5.121
56478SOL    HW171267   7.435   1.973   5.140
56478SOL    HW271268   7.387   2.083   5.048
56479SOL     OW71269   1.896   2.853  12.233
56479SOL    HW171270   1.896   2.847  12.328
56479SOL    HW271271   1.962   2.919  12.212
56480SOL     OW71272   1.940  14.863   5.026
56480SOL    HW171273   1.912   0.042   4.956
56480SOL    HW271274   1.983   0.041   5.090
56481SOL     OW71275   3.010   4.084   1.761
56481SOL    HW171276   2.946   4.090   1.690
56481SOL    HW271277   3.085   4.041   1.721
56482SOL     OW71278   0.230  14.829   0.709
56482SOL    HW171279   0.216  14.815   0.802
56482SOL    HW271280   0.250  14.742   0.675
56483SOL     OW71281   5.663   9.535   8.023
56483SOL    HW171282   5.669   9.604   8.089
56483SOL    HW271283   5.715   9.463   8.059
56484SOL     OW71284   6.745   3.873   1.453
56484SOL    HW171285   6.662   3.870   1.502
56484SOL    HW271286   6.774   3.782   1.450
56485SOL     OW71287   0.944  10.737   9.318
56485SOL    HW171288   0.861  10.732   9.365
56485SOL    HW271289   0.943  10.663   9.258
56486SOL     OW71290  11.340   1.507   5.363
56486SOL    HW171291  11.251   1.482   5.340
56486SOL    HW271292  11.388   1.425   5.368
56487SOL     OW71293   6.920   4.046   3.419
56487SOL    HW171294   7.002   4.000   3.400
56487SOL    HW271295   6.925   4.063   3.514
56488SOL     OW71296  10.864   2.794   8.034
56488SOL    HW171297  10.882   2.762   8.122
56488SOL    HW271298  10.911   2.878   8.028
56489SOL     OW71299   1.293   8.045  14.613
56489SOL    HW171300   1.318   8.079  14.699
56489SOL    HW271301   1.198   8.043  14.614
56490SOL     OW71302  14.135  10.215  11.536
56490SOL    HW171303  14.117  10.155  11.608
56490SOL    HW271304  14.211  10.264  11.565
56491SOL     OW71305  11.312   0.564   0.935
56491SOL    HW171306  11.231   0.611   0.957
56491SOL    HW271307  11.320   0.497   1.002
56492SOL     OW71308  12.287   6.706  14.538
56492SOL    HW171309  12.257   6.616  14.538
56492SOL    HW271310  12.364   6.706  14.481
56493SOL     OW71311   5.162  11.250   5.246
56493SOL    HW171312   5.166  11.307   5.170
56493SOL    HW271313   5.072  11.257   5.277
56494SOL     OW71314  10.711   5.185   9.863
56494SOL    HW171315  10.619   5.177   9.836
56494SOL    HW271316  10.760   5.185   9.781
56495SOL     OW71317  13.209   3.357   4.531
56495SOL    HW171318  13.205   3.292   4.461
56495SOL    HW271319  13.287   3.409   4.510
56496SOL     OW71320  10.017   2.231  10.066
56496SOL    HW171321  10.004   2.294  10.136
56496SOL    HW271322   9.929   2.212  10.034
56497SOL     OW71323   4.661   1.781   7.526
56497SOL    HW171324   4.677   1.875   7.532
56497SOL    HW271325   4.685   1.757   7.437
56498SOL     OW71326   0.970  11.320  10.407
56498SOL    HW171327   0.994  11.396  10.353
56498SOL    HW271328   1.053  11.276  10.424
56499SOL     OW71329   3.149   3.960  14.185
56499SOL    HW171330   3.095   4.036  14.165
56499SOL    HW271331   3.133   3.943  14.278
56500SOL     OW71332   1.918   3.616   2.954
56500SOL    HW171333   1.990   3.599   3.015
56500SOL    HW271334   1.940   3.699   2.913
56501SOL     OW71335   3.837  13.198   3.417
56501SOL    HW171336   3.768  13.134   3.431
56501SOL    HW271337   3.904  13.175   3.481
56502SOL     OW71338  11.481  11.009   9.067
56502SOL    HW171339  11.512  10.975   9.151
56502SOL    HW271340  11.467  11.103   9.083
56503SOL     OW71341   0.189   3.413   1.617
56503SOL    HW171342   0.114   3.405   1.558
56503SOL    HW271343   0.191   3.330   1.664
56504SOL     OW71344  11.580   1.209   3.907
56504SOL    HW171345  11.542   1.152   3.973
56504SOL    HW271346  11.672   1.216   3.931
56505SOL     OW71347  10.722  11.638   5.357
56505SOL    HW171348  10.753  11.604   5.273
56505SOL    HW271349  10.750  11.730   5.357
56506SOL     OW71350   4.415   5.717   5.671
56506SOL    HW171351   4.482   5.735   5.605
56506SOL    HW271352   4.348   5.784   5.657
56507SOL     OW71353   1.831  14.610  11.213
56507SOL    HW171354   1.815  14.628  11.120
56507SOL    HW271355   1.823  14.515  11.221
56508SOL     OW71356  14.121   8.481  10.310
56508SOL    HW171357  14.134   8.575  10.295
56508SOL    HW271358  14.143   8.469  10.402
56509SOL     OW71359   1.414   0.555   5.943
56509SOL    HW171360   1.355   0.608   5.889
56509SOL    HW271361   1.370   0.471   5.952
56510SOL     OW71362  14.275   8.554   8.221
56510SOL    HW171363  14.336   8.486   8.250
56510SOL    HW271364  14.325   8.635   8.228
56511SOL     OW71365   3.526   4.632   3.677
56511SOL    HW171366   3.525   4.674   3.591
56511SOL    HW271367   3.484   4.695   3.735
56512SOL     OW71368   9.678  11.677  14.515
56512SOL    HW171369   9.599  11.726  14.537
56512SOL    HW271370   9.732  11.738  14.464
56513SOL     OW71371  12.097   3.110   1.925
56513SOL    HW171372  12.128   3.038   1.869
56513SOL    HW271373  12.011   3.132   1.890
56514SOL     OW71374   2.227   7.361   9.870
56514SOL    HW171375   2.270   7.429   9.818
56514SOL    HW271376   2.134   7.374   9.855
56515SOL     OW71377   7.954  10.999  13.824
56515SOL    HW171378   7.952  11.009  13.729
56515SOL    HW271379   7.950  10.905  13.839
56516SOL     OW71380  13.736   3.432   2.811
56516SOL    HW171381  13.787   3.487   2.752
56516SOL    HW271382  13.676   3.385   2.754
56517SOL     OW71383   2.696   0.267   9.350
56517SOL    HW171384   2.705   0.345   9.404
56517SOL    HW271385   2.643   0.296   9.275
56518SOL     OW71386   6.166   1.651  11.255
56518SOL    HW171387   6.229   1.717  11.226
56518SOL    HW271388   6.131   1.685  11.337
56519SOL     OW71389  11.529  10.330   5.827
56519SOL    HW171390  11.472  10.255   5.810
56519SOL    HW271391  11.489  10.402   5.779
56520SOL     OW71392   8.878   3.207  11.518
56520SOL    HW171393   8.822   3.259  11.460
56520SOL    HW271394   8.964   3.246  11.510
56521SOL     OW71395   7.189   1.793   0.153
56521SOL    HW171396   7.095   1.793   0.137
56521SOL    HW271397   7.197   1.784   0.248
56522SOL     OW71398   1.452   4.279  14.538
56522SOL    HW171399   1.490   4.245  14.458
56522SOL    HW271400   1.387   4.214  14.564
56523SOL     OW71401   9.769  11.098  13.798
56523SOL    HW171402   9.784  11.147  13.879
56523SOL    HW271403   9.857  11.081  13.763
56524SOL     OW71404   6.708   0.836   5.599
56524SOL    HW171405   6.657   0.903   5.644
56524SOL    HW271406   6.645   0.791   5.543
56525SOL     OW71407  12.591   5.476   0.733
56525SOL    HW171408  12.548   5.548   0.687
56525SOL    HW271409  12.520   5.414   0.752
56526SOL     OW71410   1.533  14.462   9.466
56526SOL    HW171411   1.542  14.554   9.441
56526SOL    HW271412   1.588  14.415   9.403
56527SOL     OW71413  11.474   2.020  12.375
56527SOL    HW171414  11.472   2.054  12.286
56527SOL    HW271415  11.547   2.065  12.417
56528SOL     OW71416   4.272   2.459   1.422
56528SOL    HW171417   4.180   2.483   1.405
56528SOL    HW271418   4.275   2.365   1.407
56529SOL     OW71419   9.346  14.848  14.553
56529SOL    HW171420   9.254  14.871  14.541
56529SOL    HW271421   9.347  14.793  14.631
56530SOL     OW71422   8.897   3.786   1.047
56530SOL    HW171423   8.807   3.754   1.041
56530SOL    HW271424   8.937   3.759   0.964
56531SOL     OW71425   9.190   2.034   7.256
56531SOL    HW171426   9.207   1.945   7.225
56531SOL    HW271427   9.221   2.090   7.184
56532SOL     OW71428   7.024   5.168   2.866
56532SOL    HW171429   7.078   5.248   2.873
56532SOL    HW271430   6.942   5.198   2.827
56533SOL     OW71431  11.725   6.487  12.511
56533SOL    HW171432  11.699   6.511  12.422
56533SOL    HW271433  11.651   6.512  12.565
56534SOL     OW71434  11.071   3.519   9.098
56534SOL    HW171435  10.982   3.534   9.128
56534SOL    HW271436  11.063   3.509   9.003
56535SOL     OW71437  12.587   0.513  11.573
56535SOL    HW171438  12.561   0.501  11.665
56535SOL    HW271439  12.625   0.428  11.548
56536SOL     OW71440   5.429  13.056  12.419
56536SOL    HW171441   5.336  13.035  12.409
56536SOL    HW271442   5.468  13.032  12.335
56537SOL     OW71443  14.061  11.035  12.071
56537SOL    HW171444  14.142  10.985  12.069
56537SOL    HW271445  14.040  11.045  12.164
56538SOL     OW71446  13.763   3.648   9.832
56538SOL    HW171447  13.763   3.676   9.924
56538SOL    HW271448  13.853   3.617   9.817
56539SOL     OW71449   0.735   9.135   1.511
56539SOL    HW171450   0.655   9.087   1.489
56539SOL    HW271451   0.756   9.106   1.600
56540SOL     OW71452   4.294  13.105  12.658
56540SOL    HW171453   4.235  13.157  12.604
56540SOL    HW271454   4.368  13.163  12.675
56541SOL     OW71455  12.522  10.864   0.404
56541SOL    HW171456  12.540  10.929   0.472
56541SOL    HW271457  12.541  10.780   0.445
56542SOL     OW71458  13.868   4.210  14.156
56542SOL    HW171459  13.923   4.211  14.235
56542SOL    HW271460  13.930   4.206  14.084
56543SOL     OW71461  10.731   5.126  10.605
56543SOL    HW171462  10.638   5.104  10.613
56543SOL    HW271463  10.772   5.045  10.572
56544SOL     OW71464  13.407   5.573   4.866
56544SOL    HW171465  13.449   5.658   4.851
56544SOL    HW271466  13.445   5.541   4.947
56545SOL     OW71467   4.684   7.420   4.231
56545SOL    HW171468   4.650   7.467   4.155
56545SOL    HW271469   4.638   7.336   4.229
56546SOL     OW71470  13.090   7.531  10.746
56546SOL    HW171471  13.138   7.599  10.699
56546SOL    HW271472  12.999   7.560  10.744
56547SOL     OW71473   4.786   2.095   1.363
56547SOL    HW171474   4.824   2.128   1.281
56547SOL    HW271475   4.848   2.028   1.392
56548SOL     OW71476  14.309  14.495  14.251
56548SOL    HW171477  14.281  14.403  14.257
56548SOL    HW271478  14.393  14.491  14.206
56549SOL     OW71479   9.904  12.854  10.388
56549SOL    HW171480   9.851  12.913  10.335
56549SOL    HW271481   9.912  12.775  10.335
56550SOL     OW71482   7.084  11.790   1.232
56550SOL    HW171483   7.166  11.840   1.232
56550SOL    HW271484   7.065  11.775   1.324
56551SOL     OW71485  13.700   4.986   7.599
56551SOL    HW171486  13.618   4.967   7.644
56551SOL    HW271487  13.706   4.917   7.532
56552SOL     OW71488   3.144  10.977   1.764
56552SOL    HW171489   3.054  10.960   1.736
56552SOL    HW271490   3.143  11.068   1.794
56553SOL     OW71491  10.085   6.705   3.011
56553SOL    HW171492  10.155   6.768   3.025
56553SOL    HW271493  10.083   6.691   2.917
56554SOL     OW71494   6.149  12.715   5.563
56554SOL    HW171495   6.134  12.641   5.622
56554SOL    HW271496   6.099  12.693   5.484
56555SOL     OW71497   6.829   3.285   9.737
56555SOL    HW171498   6.754   3.237   9.703
56555SOL    HW271499   6.800   3.319   9.822
56556SOL     OW71500   0.105  12.491   0.583
56556SOL    HW171501   0.022  12.538   0.589
56556SOL    HW271502   0.084  12.410   0.538
56557SOL     OW71503   7.582   7.070  12.501
56557SOL    HW171504   7.510   7.046  12.444
56557SOL    HW271505   7.548   7.060  12.590
56558SOL     OW71506  11.049  11.257   7.114
56558SOL    HW171507  11.056  11.248   7.019
56558SOL    HW271508  10.960  11.228   7.134
56559SOL     OW71509  12.121  13.969   5.042
56559SOL    HW171510  12.105  14.037   5.107
56559SOL    HW271511  12.095  13.888   5.084
56560SOL     OW71512   0.435   5.212   6.624
56560SOL    HW171513   0.372   5.161   6.675
56560SOL    HW271514   0.492   5.147   6.583
56561SOL     OW71515   0.030   5.563   2.336
56561SOL    HW171516  14.843   5.626   2.308
56561SOL    HW271517   0.057   5.594   2.422
56562SOL     OW71518  11.321   6.927   2.816
56562SOL    HW171519  11.283   6.926   2.903
56562SOL    HW271520  11.402   6.877   2.824
56563SOL     OW71521   1.218   7.061  14.554
56563SOL    HW171522   1.144   7.004  14.534
56563SOL    HW271523   1.233   7.110  14.473
56564SOL     OW71524  14.710   3.353  14.714
56564SOL    HW171525  14.778   3.287  14.723
56564SOL    HW271526  14.656   3.343  14.793
56565SOL     OW71527  11.287   6.861  11.930
56565SOL    HW171528  11.379   6.880  11.950
56565SOL    HW271529  11.258   6.805  12.001
56566SOL     OW71530   2.860   9.268  10.051
56566SOL    HW171531   2.865   9.316   9.969
56566SOL    HW271532   2.864   9.176  10.025
56567SOL     OW71533  13.820   5.605   7.500
56567SOL    HW171534  13.905   5.563   7.508
56567SOL    HW271535  13.766   5.563   7.567
56568SOL     OW71536   1.062   2.622   4.992
56568SOL    HW171537   0.967   2.614   4.985
56568SOL    HW271538   1.096   2.560   4.928
56569SOL     OW71539   9.971   0.813   7.935
56569SOL    HW171540  10.046   0.761   7.965
56569SOL    HW271541   9.973   0.891   7.990
56570SOL     OW71542   1.316   5.434  12.201
56570SOL    HW171543   1.402   5.449  12.241
56570SOL    HW271544   1.253   5.451  12.271
56571SOL     OW71545  13.962  10.433   5.308
56571SOL    HW171546  13.882  10.481   5.291
56571SOL    HW271547  14.006  10.428   5.223
56572SOL     OW71548  14.595   0.189   4.148
56572SOL    HW171549  14.502   0.172   4.161
56572SOL    HW271550  14.623   0.234   4.228
56573SOL     OW71551  10.605   4.473  14.631
56573SOL    HW171552  10.513   4.450  14.645
56573SOL    HW271553  10.648   4.388  14.617
56574SOL     OW71554   2.226   3.927   9.672
56574SOL    HW171555   2.305   3.980   9.667
56574SOL    HW271556   2.163   3.982   9.718
56575SOL     OW71557   8.870  10.344   6.399
56575SOL    HW171558   8.865  10.379   6.310
56575SOL    HW271559   8.951  10.380   6.434
56576SOL     OW71560   5.516   8.901   2.412
56576SOL    HW171561   5.431   8.864   2.435
56576SOL    HW271562   5.579   8.833   2.437
56577SOL     OW71563   4.332   9.665   9.527
56577SOL    HW171564   4.322   9.742   9.471
56577SOL    HW271565   4.270   9.601   9.491
56578SOL     OW71566  12.427   6.743  11.289
56578SOL    HW171567  12.494   6.692  11.334
56578SOL    HW271568  12.455   6.834  11.298
56579SOL     OW71569   8.557   3.809   0.629
56579SOL    HW171570   8.496   3.765   0.569
56579SOL    HW271571   8.513   3.807   0.714
56580SOL     OW71572   9.114   7.285  11.672
56580SOL    HW171573   9.178   7.264  11.740
56580SOL    HW271574   9.159   7.264  11.590
56581SOL     OW71575   8.244   5.814  12.375
56581SOL    HW171576   8.268   5.745  12.437
56581SOL    HW271577   8.214   5.768  12.297
56582SOL     OW71578  14.369   0.168   6.293
56582SOL    HW171579  14.343   0.251   6.252
56582SOL    HW271580  14.365   0.104   6.222
56583SOL     OW71581   3.078   5.790  13.695
56583SOL    HW171582   3.015   5.720  13.679
56583SOL    HW271583   3.147   5.776  13.630
56584SOL     OW71584   7.742   5.091   9.089
56584SOL    HW171585   7.690   5.154   9.139
56584SOL    HW271586   7.720   5.110   8.997
56585SOL     OW71587  14.337   5.946   4.728
56585SOL    HW171588  14.305   5.895   4.654
56585SOL    HW271589  14.258   5.985   4.766
56586SOL     OW71590   9.103  11.885   4.254
56586SOL    HW171591   9.150  11.804   4.234
56586SOL    HW271592   9.054  11.904   4.174
56587SOL     OW71593  11.396   4.444   8.747
56587SOL    HW171594  11.349   4.516   8.790
56587SOL    HW271595  11.385   4.370   8.806
56588SOL     OW71596  12.382   2.410  12.259
56588SOL    HW171597  12.393   2.346  12.329
56588SOL    HW271598  12.288   2.411  12.242
56589SOL     OW71599   4.938  12.961   5.994
56589SOL    HW171600   4.852  12.982   5.959
56589SOL    HW271601   4.997  12.967   5.918
56590SOL     OW71602  11.166   6.993   7.217
56590SOL    HW171603  11.148   6.951   7.301
56590SOL    HW271604  11.228   7.063   7.238
56591SOL     OW71605   3.400   3.723   7.921
56591SOL    HW171606   3.411   3.804   7.872
56591SOL    HW271607   3.305   3.707   7.921
56592SOL     OW71608   2.578   0.823   8.341
56592SOL    HW171609   2.634   0.873   8.401
56592SOL    HW271610   2.626   0.742   8.326
56593SOL     OW71611   3.023   8.075   6.768
56593SOL    HW171612   3.057   8.071   6.679
56593SOL    HW271613   3.001   7.984   6.789
56594SOL     OW71614   2.593   8.867   8.448
56594SOL    HW171615   2.620   8.909   8.367
56594SOL    HW271616   2.506   8.902   8.466
56595SOL     OW71617  11.285   5.673  12.221
56595SOL    HW171618  11.246   5.600  12.173
56595SOL    HW271619  11.289   5.745  12.158
56596SOL     OW71620  10.237   6.080   2.321
56596SOL    HW171621  10.205   5.990   2.332
56596SOL    HW271622  10.227   6.120   2.408
56597SOL     OW71623  13.280  14.856  14.745
56597SOL    HW171624  13.229   0.046  14.788
56597SOL    HW271625  13.215  14.805  14.696
56598SOL     OW71626   0.775  11.602   9.683
56598SOL    HW171627   0.789  11.517   9.641
56598SOL    HW271628   0.854  11.617   9.734
56599SOL     OW71629   8.987   3.362   3.324
56599SOL    HW171630   8.947   3.399   3.402
56599SOL    HW271631   9.007   3.272   3.347
56600SOL     OW71632   3.494   1.442   3.653
56600SOL    HW171633   3.513   1.468   3.743
56600SOL    HW271634   3.576   1.402   3.622
56601SOL     OW71635  13.532   9.966   1.031
56601SOL    HW171636  13.510   9.988   1.121
56601SOL    HW271637  13.592  10.035   1.003
56602SOL     OW71638   7.060   1.310   5.515
56602SOL    HW171639   6.989   1.373   5.504
56602SOL    HW271640   7.018   1.234   5.557
56603SOL     OW71641   2.125   2.879   7.673
56603SOL    HW171642   2.125   2.803   7.731
56603SOL    HW271643   2.056   2.935   7.708
56604SOL     OW71644  14.819   3.339   9.288
56604SOL    HW171645  14.730   3.372   9.289
56604SOL    HW271646  14.817   3.266   9.226
56605SOL     OW71647   6.558   3.732   5.249
56605SOL    HW171648   6.652   3.743   5.260
56605SOL    HW271649   6.519   3.790   5.314
56606SOL     OW71650  10.276   5.982   7.473
56606SOL    HW171651  10.229   5.912   7.520
56606SOL    HW271652  10.258   5.966   7.381
56607SOL     OW71653   4.146  11.642  12.988
56607SOL    HW171654   4.065  11.625  12.940
56607SOL    HW271655   4.211  11.660  12.919
56608SOL     OW71656   6.695  11.339  14.789
56608SOL    HW171657   6.765  11.300  14.738
56608SOL    HW271658   6.678  11.276  14.860
56609SOL     OW71659  11.832  11.650   5.421
56609SOL    HW171660  11.906  11.667   5.479
56609SOL    HW271661  11.854  11.568   5.376
56610SOL     OW71662  11.720  13.494   9.601
56610SOL    HW171663  11.665  13.514   9.526
56610SOL    HW271664  11.676  13.421   9.644
56611SOL     OW71665   4.696   9.550   5.832
56611SOL    HW171666   4.650   9.591   5.905
56611SOL    HW271667   4.641   9.570   5.756
56612SOL     OW71668  13.743   1.443   6.774
56612SOL    HW171669  13.798   1.514   6.807
56612SOL    HW271670  13.654   1.468   6.800
56613SOL     OW71671   9.942   8.331  10.065
56613SOL    HW171672   9.985   8.261  10.017
56613SOL    HW271673  10.013   8.378  10.108
56614SOL     OW71674  10.658   5.660   9.972
56614SOL    HW171675  10.621   5.745   9.998
56614SOL    HW271676  10.750   5.679   9.954
56615SOL     OW71677   4.998   5.846  14.787
56615SOL    HW171678   5.053   5.775  14.755
56615SOL    HW271679   5.058   5.919  14.802
56616SOL     OW71680  14.755   4.951   1.310
56616SOL    HW171681  14.835   4.912   1.345
56616SOL    HW271682  14.684   4.909   1.358
56617SOL     OW71683  10.574   1.624  10.814
56617SOL    HW171684  10.479   1.625  10.803
56617SOL    HW271685  10.605   1.555  10.756
56618SOL     OW71686   3.499  11.166   4.866
56618SOL    HW171687   3.533  11.255   4.876
56618SOL    HW271688   3.489  11.155   4.771
56619SOL     OW71689   9.358   7.882   0.560
56619SOL    HW171690   9.360   7.868   0.466
56619SOL    HW271691   9.298   7.956   0.572
56620SOL     OW71692   9.785   8.361  12.513
56620SOL    HW171693   9.790   8.442  12.564
56620SOL    HW271694   9.704   8.369  12.463
56621SOL     OW71695   4.937  14.416   4.062
56621SOL    HW171696   4.938  14.503   4.020
56621SOL    HW271697   4.872  14.424   4.131
56622SOL     OW71698   4.264   2.608  10.114
56622SOL    HW171699   4.345   2.648  10.146
56622SOL    HW271700   4.278   2.597  10.020
56623SOL     OW71701  11.422   1.718   5.193
56623SOL    HW171702  11.460   1.686   5.112
56623SOL    HW271703  11.398   1.639   5.242
56624SOL     OW71704   8.854  14.706   8.542
56624SOL    HW171705   8.917  14.673   8.607
56624SOL    HW271706   8.897  14.691   8.458
56625SOL     OW71707  12.969   8.894   8.013
56625SOL    HW171708  12.945   8.955   7.943
56625SOL    HW271709  12.959   8.945   8.093
56626SOL     OW71710  12.898   2.910   9.078
56626SOL    HW171711  12.922   2.918   8.985
56626SOL    HW271712  12.849   2.828   9.083
56627SOL     OW71713   1.731   4.535   2.278
56627SOL    HW171714   1.727   4.631   2.271
56627SOL    HW271715   1.648   4.511   2.317
56628SOL     OW71716  12.277   9.501  10.362
56628SOL    HW171717  12.239   9.569  10.307
56628SOL    HW271718  12.307   9.547  10.440
56629SOL     OW71719   2.949   8.854   2.810
56629SOL    HW171720   3.036   8.892   2.826
56629SOL    HW271721   2.893   8.895   2.876
56630SOL     OW71722  10.127   5.780   0.143
56630SOL    HW171723  10.166   5.755   0.060
56630SOL    HW271724  10.082   5.862   0.125
56631SOL     OW71725   3.223   2.708   3.760
56631SOL    HW171726   3.241   2.786   3.707
56631SOL    HW271727   3.201   2.743   3.846
56632SOL     OW71728   8.860  10.219  11.612
56632SOL    HW171729   8.820  10.189  11.531
56632SOL    HW271730   8.799  10.284  11.647
56633SOL     OW71731  12.649   2.669   3.162
56633SOL    HW171732  12.662   2.688   3.069
56633SOL    HW271733  12.688   2.582   3.174
56634SOL     OW71734  13.204   1.203   2.996
56634SOL    HW171735  13.205   1.286   2.948
56634SOL    HW271736  13.140   1.149   2.949
56635SOL     OW71737   3.820   4.646   1.218
56635SOL    HW171738   3.789   4.681   1.301
56635SOL    HW271739   3.915   4.658   1.220
56636SOL     OW71740  13.953   1.336   3.128
56636SOL    HW171741  14.008   1.258   3.134
56636SOL    HW271742  13.869   1.309   3.164
56637SOL     OW71743   4.463   6.349   9.855
56637SOL    HW171744   4.396   6.337   9.788
56637SOL    HW271745   4.427   6.414   9.915
56638SOL     OW71746   2.967   3.018   3.698
56638SOL    HW171747   2.949   2.924   3.701
56638SOL    HW271748   2.882   3.059   3.709
56639SOL     OW71749   4.956  11.137   0.334
56639SOL    HW171750   4.959  11.105   0.243
56639SOL    HW271751   4.900  11.074   0.379
56640SOL     OW71752  12.376   0.865  14.162
56640SOL    HW171753  12.313   0.846  14.232
56640SOL    HW271754  12.453   0.814  14.186
56641SOL     OW71755   6.918   4.410   7.587
56641SOL    HW171756   6.997   4.363   7.559
56641SOL    HW271757   6.865   4.417   7.508
56642SOL     OW71758   0.221  14.118   0.815
56642SOL    HW171759   0.231  14.176   0.890
56642SOL    HW271760   0.307  14.075   0.806
56643SOL     OW71761  11.126  13.164   3.529
56643SOL    HW171762  11.205  13.116   3.503
56643SOL    HW271763  11.072  13.100   3.574
56644SOL     OW71764  10.919   2.888  11.956
56644SOL    HW171765  10.939   2.972  11.997
56644SOL    HW271766  10.992   2.831  11.980
56645SOL     OW71767   5.425   3.171   9.359
56645SOL    HW171768   5.471   3.123   9.428
56645SOL    HW271769   5.339   3.191   9.397
56646SOL     OW71770  14.784  11.380   2.841
56646SOL    HW171771  14.826  11.294   2.834
56646SOL    HW271772  14.716  11.379   2.774
56647SOL     OW71773   2.485  14.697   4.057
56647SOL    HW171774   2.431  14.627   4.020
56647SOL    HW271775   2.437  14.725   4.135
56648SOL     OW71776  13.266   2.429   3.047
56648SOL    HW171777  13.190   2.484   3.027
56648SOL    HW271778  13.324   2.440   2.972
56649SOL     OW71779  12.482  10.537   8.458
56649SOL    HW171780  12.540  10.544   8.382
56649SOL    HW271781  12.395  10.520   8.420
56650SOL     OW71782  14.863  12.654  12.159
56650SOL    HW171783  14.824  12.713  12.095
56650SOL    HW271784   0.072  12.688  12.172
56651SOL     OW71785  13.250   5.296   9.877
56651SOL    HW171786  13.162   5.334   9.878
56651SOL    HW271787  13.306   5.365   9.842
56652SOL     OW71788   6.621  11.591   6.043
56652SOL    HW171789   6.538  11.639   6.046
56652SOL    HW271790   6.654  11.594   6.133
56653SOL     OW71791   4.737  10.029   6.082
56653SOL    HW171792   4.682  10.075   6.019
56653SOL    HW271793   4.712  10.064   6.167
56654SOL     OW71794   8.415   0.185   8.748
56654SOL    HW171795   8.438   0.229   8.830
56654SOL    HW271796   8.351   0.119   8.774
56655SOL     OW71797  10.713   0.235   6.605
56655SOL    HW171798  10.619   0.215   6.609
56655SOL    HW271799  10.742   0.196   6.522
56656SOL     OW71800  10.934   5.222  14.752
56656SOL    HW171801  10.916   5.220  14.658
56656SOL    HW271802  10.848   5.229  14.793
56657SOL     OW71803  13.267   5.499   8.878
56657SOL    HW171804  13.231   5.565   8.937
56657SOL    HW271805  13.337   5.543   8.831
56658SOL     OW71806   1.521  10.138   9.374
56658SOL    HW171807   1.481  10.106   9.293
56658SOL    HW271808   1.448  10.166   9.428
56659SOL     OW71809  12.821   7.641   9.032
56659SOL    HW171810  12.862   7.726   9.014
56659SOL    HW271811  12.743   7.640   8.976
56660SOL     OW71812  10.721   5.460   7.672
56660SOL    HW171813  10.631   5.434   7.689
56660SOL    HW271814  10.717   5.555   7.659
56661SOL     OW71815   9.367   4.587  14.453
56661SOL    HW171816   9.444   4.633  14.419
56661SOL    HW271817   9.320   4.653  14.504
56662SOL     OW71818  11.423   1.529  12.882
56662SOL    HW171819  11.381   1.487  12.807
56662SOL    HW271820  11.416   1.623  12.865
56663SOL     OW71821   9.110   3.932   6.589
56663SOL    HW171822   9.095   3.891   6.504
56663SOL    HW271823   9.117   3.859   6.651
56664SOL     OW71824   9.045   2.165   3.330
56664SOL    HW171825   9.114   2.133   3.272
56664SOL    HW271826   8.973   2.189   3.272
56665SOL     OW71827   5.092   8.547  10.086
56665SOL    HW171828   5.044   8.465  10.080
56665SOL    HW271829   5.176   8.524  10.126
56666SOL     OW71830   6.533  11.570  11.510
56666SOL    HW171831   6.552  11.637  11.444
56666SOL    HW271832   6.582  11.493  11.481
56667SOL     OW71833   5.385   5.218  10.722
56667SOL    HW171834   5.301   5.174  10.735
56667SOL    HW271835   5.362   5.310  10.707
56668SOL     OW71836  14.724   5.239   9.060
56668SOL    HW171837  14.747   5.151   9.030
56668SOL    HW271838  14.665   5.273   8.992
56669SOL     OW71839   2.672  14.278   2.606
56669SOL    HW171840   2.618  14.227   2.666
56669SOL    HW271841   2.740  14.216   2.578
56670SOL     OW71842   6.036   5.877  10.053
56670SOL    HW171843   6.034   5.834   9.967
56670SOL    HW271844   5.945   5.897  10.072
56671SOL     OW71845  10.824  13.837   2.427
56671SOL    HW171846  10.838  13.859   2.519
56671SOL    HW271847  10.866  13.751   2.416
56672SOL     OW71848   3.536   3.129  11.090
56672SOL    HW171849   3.489   3.050  11.062
56672SOL    HW271850   3.582   3.158  11.011
56673SOL     OW71851   9.552  13.736   5.985
56673SOL    HW171852   9.480  13.701   5.932
56673SOL    HW271853   9.630  13.690   5.955
56674SOL     OW71854  10.004  13.497   6.876
56674SOL    HW171855   9.964  13.413   6.853
56674SOL    HW271856   9.931  13.557   6.883
56675SOL     OW71857   4.840  11.639   1.027
56675SOL    HW171858   4.794  11.560   1.056
56675SOL    HW271859   4.776  11.709   1.037
56676SOL     OW71860   0.463   4.795   3.511
56676SOL    HW171861   0.504   4.711   3.531
56676SOL    HW271862   0.471   4.846   3.591
56677SOL     OW71863   3.553   8.641  13.493
56677SOL    HW171864   3.509   8.557  13.496
56677SOL    HW271865   3.496   8.701  13.542
56678SOL     OW71866  10.501  10.814  10.815
56678SOL    HW171867  10.481  10.743  10.877
56678SOL    HW271868  10.543  10.882  10.869
56679SOL     OW71869   5.416   1.549   5.622
56679SOL    HW171870   5.464   1.533   5.540
56679SOL    HW271871   5.344   1.486   5.620
56680SOL     OW71872   4.665   0.232  11.916
56680SOL    HW171873   4.668   0.140  11.945
56680SOL    HW271874   4.597   0.272  11.970
56681SOL     OW71875  13.879  14.635   6.857
56681SOL    HW171876  13.934  14.706   6.823
56681SOL    HW271877  13.941  14.576   6.901
56682SOL     OW71878   3.550   4.402  12.154
56682SOL    HW171879   3.572   4.388  12.247
56682SOL    HW271880   3.464   4.360  12.144
56683SOL     OW71881  13.639   5.904   0.637
56683SOL    HW171882  13.634   5.985   0.586
56683SOL    HW271883  13.611   5.836   0.575
56684SOL     OW71884  13.692  11.899   2.362
56684SOL    HW171885  13.598  11.881   2.359
56684SOL    HW271886  13.731  11.815   2.386
56685SOL     OW71887   1.785   3.618   3.971
56685SOL    HW171888   1.821   3.535   3.940
56685SOL    HW271889   1.859   3.665   4.008
56686SOL     OW71890  13.199  10.250  10.655
56686SOL    HW171891  13.196  10.264  10.750
56686SOL    HW271892  13.291  10.237  10.636
56687SOL     OW71893   9.027  10.613  13.146
56687SOL    HW171894   9.071  10.545  13.096
56687SOL    HW271895   9.098  10.667  13.181
56688SOL     OW71896  13.256   1.939   0.556
56688SOL    HW171897  13.327   1.943   0.620
56688SOL    HW271898  13.219   2.027   0.556
56689SOL     OW71899   2.670   5.022   3.991
56689SOL    HW171900   2.759   5.048   4.013
56689SOL    HW271901   2.676   4.986   3.902
56690SOL     OW71902  13.197   0.712   8.966
56690SOL    HW171903  13.123   0.677   9.015
56690SOL    HW271904  13.186   0.807   8.971
56691SOL     OW71905   4.114   6.702   2.161
56691SOL    HW171906   4.027   6.671   2.134
56691SOL    HW271907   4.135   6.772   2.100
56692SOL     OW71908  13.787   4.832  10.497
56692SOL    HW171909  13.812   4.903  10.556
56692SOL    HW271910  13.866   4.779  10.488
56693SOL     OW71911  11.312  10.877   0.662
56693SOL    HW171912  11.223  10.881   0.697
56693SOL    HW271913  11.300  10.867   0.567
56694SOL     OW71914  12.506   0.315  12.821
56694SOL    HW171915  12.576   0.380  12.825
56694SOL    HW271916  12.432   0.358  12.864
56695SOL     OW71917  14.192   1.327   0.873
56695SOL    HW171918  14.155   1.416   0.869
56695SOL    HW271919  14.267   1.335   0.931
56696SOL     OW71920  10.668   9.578  10.562
56696SOL    HW171921  10.631   9.508  10.509
56696SOL    HW271922  10.642   9.557  10.652
56697SOL     OW71923  12.117  12.642   2.410
56697SOL    HW171924  12.185  12.709   2.416
56697SOL    HW271925  12.102  12.631   2.316
56698SOL     OW71926   4.829   3.509   0.031
56698SOL    HW171927   4.831   3.563  14.832
56698SOL    HW271928   4.915   3.469   0.035
56699SOL     OW71929   1.781  13.344   4.748
56699SOL    HW171930   1.774  13.350   4.843
56699SOL    HW271931   1.691  13.344   4.716
56700SOL     OW71932   3.221   6.092   9.703
56700SOL    HW171933   3.247   6.169   9.651
56700SOL    HW271934   3.281   6.092   9.777
56701SOL     OW71935   3.897   9.794  13.521
56701SOL    HW171936   3.919   9.850  13.446
56701SOL    HW271937   3.910   9.850  13.597
56702SOL     OW71938   3.176   0.237   0.114
56702SOL    HW171939   3.183   0.319   0.164
56702SOL    HW271940   3.136   0.263   0.031
56703SOL     OW71941  12.054  14.257   3.474
56703SOL    HW171942  12.039  14.291   3.385
56703SOL    HW271943  12.029  14.329   3.531
56704SOL     OW71944   7.993   5.362  12.720
56704SOL    HW171945   7.982   5.435  12.782
56704SOL    HW271946   8.087   5.344  12.721
56705SOL     OW71947   3.720  11.808  10.695
56705SOL    HW171948   3.777  11.869  10.647
56705SOL    HW271949   3.754  11.722  10.672
56706SOL     OW71950   6.621   4.938  12.019
56706SOL    HW171951   6.607   5.004  12.087
56706SOL    HW271952   6.637   4.857  12.067
56707SOL     OW71953   0.278  14.082  11.991
56707SOL    HW171954   0.335  14.118  11.923
56707SOL    HW271955   0.332  14.018  12.036
56708SOL     OW71956   1.541   3.207   8.021
56708SOL    HW171957   1.566   3.288   7.977
56708SOL    HW271958   1.465   3.231   8.074
56709SOL     OW71959   2.628  14.697   0.218
56709SOL    HW171960   2.701  14.677   0.159
56709SOL    HW271961   2.622  14.621   0.275
56710SOL     OW71962   4.271   1.200   9.417
56710SOL    HW171963   4.287   1.186   9.324
56710SOL    HW271964   4.345   1.253   9.447
56711SOL     OW71965   9.431  11.106   7.649
56711SOL    HW171966   9.470  11.159   7.719
56711SOL    HW271967   9.406  11.024   7.692
56712SOL     OW71968  11.298   4.723  11.437
56712SOL    HW171969  11.270   4.786  11.370
56712SOL    HW271970  11.268   4.761  11.520
56713SOL     OW71971   8.763   2.138  10.544
56713SOL    HW171972   8.748   2.105  10.632
56713SOL    HW271973   8.764   2.059  10.489
56714SOL     OW71974  11.469   1.891  11.722
56714SOL    HW171975  11.546   1.834  11.723
56714SOL    HW271976  11.402   1.839  11.676
56715SOL     OW71977   2.773  11.998   0.746
56715SOL    HW171978   2.815  11.920   0.709
56715SOL    HW271979   2.765  11.979   0.839
56716SOL     OW71980   3.747   0.613  11.329
56716SOL    HW171981   3.779   0.522  11.329
56716SOL    HW271982   3.656   0.606  11.300
56717SOL     OW71983  11.528  13.115   9.105
56717SOL    HW171984  11.612  13.094   9.063
56717SOL    HW271985  11.463  13.095   9.038
56718SOL     OW71986   1.271   7.507   0.026
56718SOL    HW171987   1.355   7.462   0.013
56718SOL    HW271988   1.283   7.591  14.862
56719SOL     OW71989  14.006   2.317   3.263
56719SOL    HW171990  14.027   2.308   3.170
56719SOL    HW271991  14.073   2.267   3.309
56720SOL     OW71992   0.964   2.901   0.235
56720SOL    HW171993   0.954   2.975   0.175
56720SOL    HW271994   0.991   2.941   0.317
56721SOL     OW71995   0.668   6.294   8.546
56721SOL    HW171996   0.583   6.249   8.553
56721SOL    HW271997   0.657   6.353   8.472
56722SOL     OW71998   0.958   6.862  10.058
56722SOL    HW171999   0.934   6.890  10.147
56722SOL    HW272000   0.881   6.882  10.005
56723SOL     OW72001  14.572  11.143   9.567
56723SOL    HW172002  14.579  11.049   9.580
56723SOL    HW272003  14.551  11.154   9.474
56724SOL     OW72004   8.415  14.578   8.120
56724SOL    HW172005   8.337  14.594   8.172
56724SOL    HW272006   8.485  14.624   8.167
56725SOL     OW72007  14.493   6.929   3.931
56725SOL    HW172008  14.446   6.859   3.975
56725SOL    HW272009  14.447   6.941   3.848
56726SOL     OW72010   6.863   0.720   7.292
56726SOL    HW172011   6.936   0.782   7.289
56726SOL    HW272012   6.804   0.750   7.222
56727SOL     OW72013   8.232   7.344  10.291
56727SOL    HW172014   8.255   7.330  10.382
56727SOL    HW272015   8.145   7.384  10.293
56728SOL     OW72016   3.277   7.562   8.264
56728SOL    HW172017   3.332   7.639   8.254
56728SOL    HW272018   3.251   7.540   8.174
56729SOL     OW72019   1.600   3.279  11.660
56729SOL    HW172020   1.524   3.273  11.602
56729SOL    HW272021   1.577   3.349  11.722
56730SOL     OW72022  13.919   3.257   5.612
56730SOL    HW172023  13.846   3.228   5.667
56730SOL    HW272024  13.991   3.269   5.673
56731SOL     OW72025   0.035   7.992  10.502
56731SOL    HW172026  14.869   7.975  10.419
56731SOL    HW272027   0.003   8.078  10.529
56732SOL     OW72028  12.217  10.250   8.175
56732SOL    HW172029  12.255  10.288   8.096
56732SOL    HW272030  12.132  10.292   8.185
56733SOL     OW72031   4.619  11.083   4.640
56733SOL    HW172032   4.555  11.089   4.568
56733SOL    HW272033   4.566  11.069   4.718
56734SOL     OW72034  13.254   7.306   1.463
56734SOL    HW172035  13.165   7.321   1.495
56734SOL    HW272036  13.259   7.356   1.382
56735SOL     OW72037   8.497   9.306   1.519
56735SOL    HW172038   8.506   9.370   1.448
56735SOL    HW272039   8.583   9.264   1.525
56736SOL     OW72040   3.068   1.790   3.540
56736SOL    HW172041   3.157   1.757   3.525
56736SOL    HW272042   3.013   1.712   3.534
56737SOL     OW72043   4.132   5.631   9.501
56737SOL    HW172044   4.041   5.637   9.471
56737SOL    HW272045   4.180   5.595   9.427
56738SOL     OW72046   4.781   9.057   6.157
56738SOL    HW172047   4.701   9.007   6.146
56738SOL    HW272048   4.752   9.145   6.181
56739SOL     OW72049   5.843   2.211   9.356
56739SOL    HW172050   5.864   2.219   9.449
56739SOL    HW272051   5.926   2.186   9.315
56740SOL     OW72052   8.560   3.831   4.892
56740SOL    HW172053   8.575   3.855   4.800
56740SOL    HW272054   8.468   3.805   4.895
56741SOL     OW72055   7.380   5.936   5.337
56741SOL    HW172056   7.303   5.908   5.287
56741SOL    HW272057   7.399   6.023   5.303
56742SOL     OW72058   6.615  10.362  11.860
56742SOL    HW172059   6.559  10.313  11.799
56742SOL    HW272060   6.554  10.400  11.923
56743SOL     OW72061   9.310   4.131  10.236
56743SOL    HW172062   9.224   4.096  10.261
56743SOL    HW272063   9.305   4.224  10.256
56744SOL     OW72064   7.597  13.855  12.442
56744SOL    HW172065   7.633  13.769  12.419
56744SOL    HW272066   7.667  13.898  12.492
56745SOL     OW72067  12.146  11.139   1.190
56745SOL    HW172068  12.188  11.210   1.141
56745SOL    HW272069  12.111  11.080   1.123
56746SOL     OW72070   5.802   0.086  12.806
56746SOL    HW172071   5.846   0.005  12.780
56746SOL    HW272072   5.731   0.096  12.742
56747SOL     OW72073   1.288  14.742  14.210
56747SOL    HW172074   1.209  14.788  14.237
56747SOL    HW272075   1.270  14.713  14.121
56748SOL     OW72076   8.743   9.260  12.866
56748SOL    HW172077   8.827   9.213  12.869
56748SOL    HW272078   8.699   9.225  12.789
56749SOL     OW72079  13.814   5.959   9.946
56749SOL    HW172080  13.764   5.893   9.899
56749SOL    HW272081  13.898   5.963   9.900
56750SOL     OW72082  14.229   1.495   3.145
56750SOL    HW172083  14.186   1.576   3.118
56750SOL    HW272084  14.187   1.472   3.228
56751SOL     OW72085   1.767   1.635   0.505
56751SOL    HW172086   1.833   1.678   0.451
56751SOL    HW272087   1.758   1.692   0.582
56752SOL     OW72088   9.671   3.544   6.273
56752SOL    HW172089   9.596   3.492   6.245
56752SOL    HW272090   9.687   3.517   6.363
56753SOL     OW72091   8.549   1.237   4.713
56753SOL    HW172092   8.502   1.192   4.783
56753SOL    HW272093   8.490   1.233   4.638
56754SOL     OW72094  11.077   1.198   9.669
56754SOL    HW172095  11.030   1.235   9.594
56754SOL    HW272096  11.068   1.103   9.659
56755SOL     OW72097   8.990   5.980  10.484
56755SOL    HW172098   8.927   5.924  10.530
56755SOL    HW272099   8.942   6.062  10.469
56756SOL     OW72100   2.870   0.380   2.149
56756SOL    HW172101   2.781   0.347   2.140
56756SOL    HW272102   2.911   0.322   2.213
56757SOL     OW72103   2.543  12.936  11.864
56757SOL    HW172104   2.559  13.001  11.932
56757SOL    HW272105   2.627  12.924  11.821
56758SOL     OW72106   0.425   9.421   8.263
56758SOL    HW172107   0.354   9.468   8.306
56758SOL    HW272108   0.458   9.483   8.197
56759SOL     OW72109   8.259   7.933   1.111
56759SOL    HW172110   8.312   7.874   1.164
56759SOL    HW272111   8.201   7.976   1.173
56760SOL     OW72112  14.498  14.775   6.542
56760SOL    HW172113  14.506  14.826   6.461
56760SOL    HW272114  14.461  14.836   6.605
56761SOL     OW72115   4.409   4.052   0.850
56761SOL    HW172116   4.390   4.060   0.756
56761SOL    HW272117   4.411   3.958   0.867
56762SOL     OW72118   8.552   3.957  11.757
56762SOL    HW172119   8.554   4.001  11.842
56762SOL    HW272120   8.580   4.023  11.694
56763SOL     OW72121  12.528   9.240   1.505
56763SOL    HW172122  12.573   9.182   1.567
56763SOL    HW272123  12.529   9.192   1.422
56764SOL     OW72124  13.967   6.336   3.341
56764SOL    HW172125  14.005   6.250   3.320
56764SOL    HW272126  13.896   6.347   3.277
56765SOL     OW72127   1.027   7.782  10.299
56765SOL    HW172128   1.117   7.813  10.291
56765SOL    HW272129   1.005   7.795  10.391
56766SOL     OW72130  12.885   2.342  14.197
56766SOL    HW172131  12.843   2.389  14.126
56766SOL    HW272132  12.814   2.292  14.238
56767SOL     OW72133  12.124   6.282   4.766
56767SOL    HW172134  12.073   6.337   4.707
56767SOL    HW272135  12.094   6.307   4.854
56768SOL     OW72136   4.710   7.245   7.433
56768SOL    HW172137   4.735   7.177   7.496
56768SOL    HW272138   4.751   7.219   7.351
56769SOL     OW72139   4.083   0.133  13.878
56769SOL    HW172140   4.172   0.099  13.883
56769SOL    HW272141   4.069   0.152  13.785
56770SOL     OW72142   3.401   1.482  10.874
56770SOL    HW172143   3.474   1.427  10.846
56770SOL    HW272144   3.439   1.569  10.883
56771SOL     OW72145   7.901   6.990   6.998
56771SOL    HW172146   7.871   6.973   7.087
56771SOL    HW272147   7.821   6.993   6.945
56772SOL     OW72148   3.075   8.068   3.206
56772SOL    HW172149   2.997   8.045   3.156
56772SOL    HW272150   3.056   8.040   3.295
56773SOL     OW72151   0.085  12.710   4.427
56773SOL    HW172152   0.170  12.692   4.387
56773SOL    HW272153   0.031  12.636   4.401
56774SOL     OW72154   3.296   5.997   0.557
56774SOL    HW172155   3.212   5.950   0.553
56774SOL    HW272156   3.326   5.983   0.647
56775SOL     OW72157   5.112  13.257   9.529
56775SOL    HW172158   5.112  13.337   9.583
56775SOL    HW272159   5.019  13.237   9.518
56776SOL     OW72160   8.283   5.664  13.620
56776SOL    HW172161   8.288   5.712  13.703
56776SOL    HW272162   8.345   5.591  13.631
56777SOL     OW72163   4.595   7.450   9.946
56777SOL    HW172164   4.655   7.378   9.927
56777SOL    HW272165   4.631   7.491  10.025
56778SOL     OW72166   0.375   0.489   3.242
56778SOL    HW172167   0.335   0.404   3.258
56778SOL    HW272168   0.361   0.539   3.323
56779SOL     OW72169   2.575   9.144   2.330
56779SOL    HW172170   2.558   9.235   2.307
56779SOL    HW272171   2.615   9.148   2.417
56780SOL     OW72172  10.181   5.484   2.646
56780SOL    HW172173  10.126   5.406   2.651
56780SOL    HW272174  10.162   5.532   2.727
56781SOL     OW72175   5.328   6.472  10.623
56781SOL    HW172176   5.377   6.466  10.705
56781SOL    HW272177   5.303   6.564  10.617
56782SOL     OW72178  13.297   1.102   8.481
56782SOL    HW172179  13.217   1.133   8.524
56782SOL    HW272180  13.279   1.109   8.388
56783SOL     OW72181   4.080  14.135   5.786
56783SOL    HW172182   4.107  14.047   5.811
56783SOL    HW272183   4.160  14.186   5.786
56784SOL     OW72184  14.153   0.515   5.967
56784SOL    HW172185  14.106   0.432   5.976
56784SOL    HW272186  14.104   0.576   6.023
56785SOL     OW72187   4.509   7.768   1.171
56785SOL    HW172188   4.587   7.809   1.209
56785SOL    HW272189   4.543   7.705   1.108
56786SOL     OW72190   1.980  10.483   3.967
56786SOL    HW172191   2.029  10.402   3.981
56786SOL    HW272192   1.920  10.488   4.042
56787SOL     OW72193   2.294  10.571   9.670
56787SOL    HW172194   2.344  10.602   9.594
56787SOL    HW272195   2.308  10.477   9.671
56788SOL     OW72196  14.165   1.586   0.801
56788SOL    HW172197  14.102   1.657   0.788
56788SOL    HW272198  14.175   1.546   0.714
56789SOL     OW72199   3.717  13.562  12.948
56789SOL    HW172200   3.780  13.519  12.890
56789SOL    HW272201   3.666  13.619  12.890
56790SOL     OW72202   5.576   9.515   7.619
56790SOL    HW172203   5.481   9.517   7.611
56790SOL    HW272204   5.593   9.489   7.710
56791SOL     OW72205  13.762  10.971   6.868
56791SOL    HW172206  13.674  10.984   6.833
56791SOL    HW272207  13.774  10.876   6.868
56792SOL     OW72208  11.534   8.188   0.772
56792SOL    HW172209  11.445   8.163   0.797
56792SOL    HW272210  11.528   8.283   0.756
56793SOL     OW72211   9.362  13.267   2.994
56793SOL    HW172212   9.362  13.335   3.062
56793SOL    HW272213   9.310  13.305   2.923
56794SOL     OW72214  11.234  12.998   9.760
56794SOL    HW172215  11.163  12.938   9.782
56794SOL    HW272216  11.222  13.072   9.819
56795SOL     OW72217  14.540   2.572   0.693
56795SOL    HW172218  14.491   2.491   0.702
56795SOL    HW272219  14.596   2.558   0.616
56796SOL     OW72220   5.574  11.350  10.311
56796SOL    HW172221   5.641  11.412  10.340
56796SOL    HW272222   5.616  11.301  10.240
56797SOL     OW72223   9.548  12.276  10.301
56797SOL    HW172224   9.615  12.213  10.276
56797SOL    HW272225   9.553  12.280  10.396
56798SOL     OW72226   1.933   0.162   7.419
56798SOL    HW172227   1.884   0.136   7.497
56798SOL    HW272228   2.006   0.100   7.415
56799SOL     OW72229   0.929   5.217   7.151
56799SOL    HW172230   0.873   5.175   7.085
56799SOL    HW272231   0.906   5.173   7.233
56800SOL     OW72232  12.016   0.779   0.829
56800SOL    HW172233  12.104   0.780   0.792
56800SOL    HW272234  12.004   0.867   0.865
56801SOL     OW72235   8.566  10.604   2.860
56801SOL    HW172236   8.646  10.628   2.907
56801SOL    HW272237   8.502  10.588   2.928
56802SOL     OW72238   7.641  14.043   9.936
56802SOL    HW172239   7.653  14.118   9.877
56802SOL    HW272240   7.609  14.081  10.017
56803SOL     OW72241  11.859   0.679   6.432
56803SOL    HW172242  11.776   0.635   6.451
56803SOL    HW272243  11.900   0.626   6.365
56804SOL     OW72244   7.934   1.914   8.146
56804SOL    HW172245   7.927   1.819   8.132
56804SOL    HW272246   8.026   1.933   8.130
56805SOL     OW72247   4.303   6.280  13.210
56805SOL    HW172248   4.265   6.319  13.288
56805SOL    HW272249   4.339   6.196  13.240
56806SOL     OW72250  12.362   8.491   4.675
56806SOL    HW172251  12.301   8.420   4.656
56806SOL    HW272252  12.308   8.562   4.707
56807SOL     OW72253  14.488   7.418   8.656
56807SOL    HW172254  14.579   7.446   8.650
56807SOL    HW272255  14.490   7.341   8.713
56808SOL     OW72256   6.816   9.886   8.227
56808SOL    HW172257   6.761   9.959   8.198
56808SOL    HW272258   6.905   9.912   8.202
56809SOL     OW72259   6.837  12.670   1.820
56809SOL    HW172260   6.851  12.580   1.790
56809SOL    HW272261   6.923  12.699   1.851
56810SOL     OW72262  11.865  13.288  11.863
56810SOL    HW172263  11.857  13.352  11.793
56810SOL    HW272264  11.777  13.282  11.900
56811SOL     OW72265   1.145   9.039  14.130
56811SOL    HW172266   1.185   9.046  14.216
56811SOL    HW272267   1.200   8.978  14.082
56812SOL     OW72268   7.789   4.931   1.250
56812SOL    HW172269   7.751   5.016   1.227
56812SOL    HW272270   7.883   4.947   1.253
56813SOL     OW72271   7.717   4.364  10.597
56813SOL    HW172272   7.653   4.295  10.609
56813SOL    HW272273   7.677   4.425  10.535
56814SOL     OW72274   2.269   7.537  12.148
56814SOL    HW172275   2.281   7.628  12.172
56814SOL    HW272276   2.303   7.531  12.058
56815SOL     OW72277   1.779  14.253  12.410
56815SOL    HW172278   1.699  14.229  12.362
56815SOL    HW272279   1.755  14.333  12.457
56816SOL     OW72280   4.305   6.401   9.641
56816SOL    HW172281   4.226   6.367   9.598
56816SOL    HW272282   4.343   6.462   9.577
56817SOL     OW72283   1.726   4.159   8.372
56817SOL    HW172284   1.718   4.184   8.464
56817SOL    HW272285   1.754   4.067   8.374
56818SOL     OW72286   7.054   0.990   8.033
56818SOL    HW172287   7.042   1.047   8.109
56818SOL    HW272288   6.987   0.922   8.044
56819SOL     OW72289   2.294   8.270  14.369
56819SOL    HW172290   2.259   8.299  14.453
56819SOL    HW272291   2.224   8.287  14.306
56820SOL     OW72292   8.358  13.864   4.349
56820SOL    HW172293   8.410  13.943   4.362
56820SOL    HW272294   8.362  13.818   4.433
56821SOL     OW72295   9.959   1.968   9.865
56821SOL    HW172296   9.984   1.974   9.773
56821SOL    HW272297  10.041   1.972   9.913
56822SOL     OW72298   3.320   8.998   8.154
56822SOL    HW172299   3.235   9.026   8.187
56822SOL    HW272300   3.301   8.954   8.071
56823SOL     OW72301  12.174  10.033   6.198
56823SOL    HW172302  12.123  10.020   6.278
56823SOL    HW272303  12.251  10.081   6.226
56824SOL     OW72304   8.416  13.766  10.306
56824SOL    HW172305   8.336  13.714  10.303
56824SOL    HW272306   8.395  13.846  10.258
56825SOL     OW72307  12.232  10.682   4.144
56825SOL    HW172308  12.321  10.707   4.167
56825SOL    HW272309  12.239  10.643   4.057
56826SOL     OW72310   2.983  12.643  11.565
56826SOL    HW172311   2.987  12.678  11.476
56826SOL    HW272312   3.057  12.582  11.570
56827SOL     OW72313   9.728  12.229   4.442
56827SOL    HW172314   9.646  12.255   4.485
56827SOL    HW272315   9.784  12.197   4.513
56828SOL     OW72316   5.178   9.652   3.577
56828SOL    HW172317   5.265   9.614   3.564
56828SOL    HW272318   5.170   9.662   3.672
56829SOL     OW72319   9.957  12.439   6.152
56829SOL    HW172320   9.899  12.408   6.221
56829SOL    HW272321   9.917  12.521   6.122
56830SOL     OW72322   7.550   7.030  12.786
56830SOL    HW172323   7.584   6.941  12.781
56830SOL    HW272324   7.492   7.030  12.862
56831SOL     OW72325  12.879   7.905   4.089
56831SOL    HW172326  12.826   7.840   4.043
56831SOL    HW272327  12.815   7.969   4.123
56832SOL     OW72328   3.854   7.610   6.780
56832SOL    HW172329   3.934   7.651   6.746
56832SOL    HW272330   3.862   7.518   6.757
56833SOL     OW72331  11.188  10.648   8.577
56833SOL    HW172332  11.198  10.552   8.572
56833SOL    HW272333  11.146  10.663   8.662
56834SOL     OW72334  10.974   6.784   8.992
56834SOL    HW172335  10.971   6.789   9.088
56834SOL    HW272336  11.002   6.694   8.974
56835SOL     OW72337   1.727   0.325   6.866
56835SOL    HW172338   1.796   0.344   6.929
56835SOL    HW272339   1.702   0.410   6.830
56836SOL     OW72340   0.011   1.177   0.958
56836SOL    HW172341   0.081   1.204   0.898
56836SOL    HW272342   0.049   1.105   1.008
56837SOL     OW72343  10.075   9.278   0.926
56837SOL    HW172344  10.028   9.216   0.981
56837SOL    HW272345  10.089   9.354   0.981
56838SOL     OW72346   3.046   3.721   9.214
56838SOL    HW172347   3.028   3.646   9.157
56838SOL    HW272348   2.969   3.728   9.269
56839SOL     OW72349   6.233   4.700   9.453
56839SOL    HW172350   6.258   4.787   9.485
56839SOL    HW272351   6.287   4.640   9.504
56840SOL     OW72352  14.274   3.867  10.985
56840SOL    HW172353  14.216   3.940  11.007
56840SOL    HW272354  14.228   3.789  11.017
56841SOL     OW72355  11.750   7.769  14.104
56841SOL    HW172356  11.787   7.807  14.024
56841SOL    HW272357  11.788   7.681  14.109
56842SOL     OW72358   6.163   2.234  10.823
56842SOL    HW172359   6.198   2.147  10.844
56842SOL    HW272360   6.182   2.287  10.901
56843SOL     OW72361  13.102  14.009  10.103
56843SOL    HW172362  13.061  13.961  10.031
56843SOL    HW272363  13.117  14.097  10.069
56844SOL     OW72364   6.276  14.497   6.639
56844SOL    HW172365   6.218  14.441   6.586
56844SOL    HW272366   6.364  14.466   6.618
56845SOL     OW72367   4.349   4.942   9.140
56845SOL    HW172368   4.329   5.026   9.182
56845SOL    HW272369   4.271   4.922   9.088
56846SOL     OW72370   6.775   2.621   5.024
56846SOL    HW172371   6.778   2.602   4.930
56846SOL    HW272372   6.753   2.714   5.029
56847SOL     OW72373   6.301  10.467  12.934
56847SOL    HW172374   6.351  10.549  12.934
56847SOL    HW272375   6.213  10.493  12.961
56848SOL     OW72376   8.322   5.728  14.097
56848SOL    HW172377   8.303   5.761  14.010
56848SOL    HW272378   8.400   5.673  14.085
56849SOL     OW72379   0.691  13.397   0.233
56849SOL    HW172380   0.772  13.368   0.192
56849SOL    HW272381   0.665  13.474   0.183
56850SOL     OW72382   7.765  14.206   3.230
56850SOL    HW172383   7.675  14.186   3.205
56850SOL    HW272384   7.757  14.267   3.303
56851SOL     OW72385   5.109   6.194   3.720
56851SOL    HW172386   5.111   6.170   3.627
56851SOL    HW272387   5.194   6.234   3.736
56852SOL     OW72388   9.217   4.612   4.914
56852SOL    HW172389   9.193   4.519   4.912
56852SOL    HW272390   9.189   4.643   5.000
56853SOL     OW72391  13.526   3.356   3.706
56853SOL    HW172392  13.571   3.406   3.774
56853SOL    HW272393  13.436   3.346   3.737
56854SOL     OW72394   6.174  12.151   2.818
56854SOL    HW172395   6.162  12.187   2.906
56854SOL    HW272396   6.172  12.057   2.830
56855SOL     OW72397  13.587  14.718  13.221
56855SOL    HW172398  13.492  14.723  13.213
56855SOL    HW272399  13.619  14.737  13.133
56856SOL     OW72400   2.919   9.026  11.602
56856SOL    HW172401   2.976   9.018  11.679
56856SOL    HW272402   2.835   8.990  11.631
56857SOL     OW72403   4.752   2.426   8.711
56857SOL    HW172404   4.687   2.447   8.777
56857SOL    HW272405   4.824   2.487   8.727
56858SOL     OW72406   9.215  14.042  13.704
56858SOL    HW172407   9.122  14.038  13.680
56858SOL    HW272408   9.248  14.120  13.660
56859SOL     OW72409   0.782   2.258   5.286
56859SOL    HW172410   0.855   2.278   5.345
56859SOL    HW272411   0.819   2.267   5.198
56860SOL     OW72412   9.697   5.012  12.622
56860SOL    HW172413   9.708   5.004  12.528
56860SOL    HW272414   9.785   5.025  12.657
56861SOL     OW72415   9.200   6.172   2.497
56861SOL    HW172416   9.162   6.131   2.420
56861SOL    HW272417   9.285   6.205   2.467
56862SOL     OW72418  10.036   4.479  11.024
56862SOL    HW172419   9.946   4.482  10.992
56862SOL    HW272420  10.045   4.391  11.060
56863SOL     OW72421   1.496  11.113  11.018
56863SOL    HW172422   1.546  11.079  11.092
56863SOL    HW272423   1.524  11.205  11.011
56864SOL     OW72424   9.990   0.748  13.937
56864SOL    HW172425  10.070   0.758  13.989
56864SOL    HW272426   9.973   0.835  13.901
56865SOL     OW72427   8.727   8.309  12.984
56865SOL    HW172428   8.713   8.384  12.926
56865SOL    HW272429   8.800   8.337  13.041
56866SOL     OW72430   3.834   7.136   8.065
56866SOL    HW172431   3.925   7.110   8.047
56866SOL    HW272432   3.789   7.054   8.080
56867SOL     OW72433  12.343  13.886   4.706
56867SOL    HW172434  12.322  13.814   4.766
56867SOL    HW272435  12.348  13.964   4.762
56868SOL     OW72436   5.582   5.213   1.888
56868SOL    HW172437   5.507   5.154   1.886
56868SOL    HW272438   5.654   5.162   1.851
56869SOL     OW72439   5.009   9.023   8.260
56869SOL    HW172440   4.953   9.069   8.323
56869SOL    HW272441   5.098   9.036   8.292
56870SOL     OW72442  11.111  11.849   7.475
56870SOL    HW172443  11.088  11.939   7.452
56870SOL    HW272444  11.072  11.796   7.405
56871SOL     OW72445   3.932  13.822   7.338
56871SOL    HW172446   3.907  13.809   7.247
56871SOL    HW272447   4.026  13.807   7.341
56872SOL     OW72448  12.981  13.876   1.453
56872SOL    HW172449  12.886  13.860   1.457
56872SOL    HW272450  13.012  13.853   1.541
56873SOL     OW72451   4.811  14.035  10.324
56873SOL    HW172452   4.755  14.086  10.382
56873SOL    HW272453   4.893  14.023  10.372
56874SOL     OW72454  13.997   3.045   7.743
56874SOL    HW172455  14.059   3.107   7.782
56874SOL    HW272456  13.922   3.098   7.718
56875SOL     OW72457   8.852   5.599  14.307
56875SOL    HW172458   8.870   5.577  14.398
56875SOL    HW272459   8.773   5.549  14.286
56876SOL     OW72460   6.146   3.653   6.885
56876SOL    HW172461   6.233   3.675   6.854
56876SOL    HW272462   6.140   3.558   6.876
56877SOL     OW72463  10.853   1.319   3.643
56877SOL    HW172464  10.862   1.224   3.655
56877SOL    HW272465  10.906   1.339   3.567
56878SOL     OW72466  12.932   1.702   6.909
56878SOL    HW172467  12.850   1.729   6.953
56878SOL    HW272468  12.907   1.628   6.854
56879SOL     OW72469   1.715  11.009   5.136
56879SOL    HW172470   1.661  11.040   5.209
56879SOL    HW272471   1.654  10.962   5.079
56880SOL     OW72472   4.825   4.981   4.631
56880SOL    HW172473   4.874   4.905   4.663
56880SOL    HW272474   4.754   4.943   4.579
56881SOL     OW72475   2.607   4.356  11.845
56881SOL    HW172476   2.619   4.385  11.935
56881SOL    HW272477   2.694   4.361  11.806
56882SOL     OW72478  13.951   1.206   3.913
56882SOL    HW172479  13.952   1.127   3.966
56882SOL    HW272480  14.038   1.210   3.874
56883SOL     OW72481   8.010   7.487  14.402
56883SOL    HW172482   8.040   7.458  14.316
56883SOL    HW272483   7.926   7.528  14.385
56884SOL     OW72484   8.235   3.755  11.590
56884SOL    HW172485   8.311   3.698  11.578
56884SOL    HW272486   8.261   3.838  11.550
56885SOL     OW72487  13.496   0.453   8.234
56885SOL    HW172488  13.506   0.509   8.157
56885SOL    HW272489  13.517   0.365   8.202
56886SOL     OW72490   1.745   6.311  14.007
56886SOL    HW172491   1.770   6.238  13.950
56886SOL    HW272492   1.798   6.298  14.086
56887SOL     OW72493   4.128  11.201   5.815
56887SOL    HW172494   4.041  11.177   5.848
56887SOL    HW272495   4.187  11.138   5.857
56888SOL     OW72496  10.196  12.208   2.980
56888SOL    HW172497  10.181  12.207   3.075
56888SOL    HW272498  10.253  12.283   2.966
56889SOL     OW72499   1.123   7.325   2.225
56889SOL    HW172500   1.099   7.234   2.207
56889SOL    HW272501   1.119   7.332   2.320
56890SOL     OW72502  11.931   4.818   1.488
56890SOL    HW172503  11.957   4.759   1.417
56890SOL    HW272504  11.986   4.895   1.478
56891SOL     OW72505   1.607  10.413   3.505
56891SOL    HW172506   1.657  10.494   3.515
56891SOL    HW272507   1.516  10.439   3.515
56892SOL     OW72508  11.856  11.172   4.309
56892SOL    HW172509  11.813  11.086   4.307
56892SOL    HW272510  11.877  11.190   4.217
56893SOL     OW72511   7.117   4.389  13.693
56893SOL    HW172512   7.162   4.312  13.657
56893SOL    HW272513   7.138   4.460  13.633
56894SOL     OW72514   2.104   3.581   6.443
56894SOL    HW172515   2.118   3.600   6.535
56894SOL    HW272516   2.166   3.510   6.423
56895SOL     OW72517  10.107   1.694  14.411
56895SOL    HW172518  10.091   1.600  14.422
56895SOL    HW272519  10.020   1.733  14.408
56896SOL     OW72520   3.587   7.595   3.953
56896SOL    HW172521   3.597   7.584   4.047
56896SOL    HW272522   3.641   7.526   3.914
56897SOL     OW72523  12.854   6.340   9.967
56897SOL    HW172524  12.802   6.302   9.895
56897SOL    HW272525  12.914   6.270   9.992
56898SOL     OW72526   4.471   0.076  13.096
56898SOL    HW172527   4.471   0.163  13.134
56898SOL    HW272528   4.564   0.052  13.092
56899SOL     OW72529   3.028   5.279   8.136
56899SOL    HW172530   2.944   5.279   8.090
56899SOL    HW272531   3.091   5.244   8.073
56900SOL     OW72532  12.513   1.632  12.852
56900SOL    HW172533  12.434   1.686  12.840
56900SOL    HW272534  12.525   1.630  12.947
56901SOL     OW72535  11.227  10.515   7.394
56901SOL    HW172536  11.145  10.558   7.416
56901SOL    HW272537  11.264  10.568   7.323
56902SOL     OW72538   7.939   4.203   9.973
56902SOL    HW172539   7.944   4.112  10.003
56902SOL    HW272540   7.896   4.198   9.888
56903SOL     OW72541   9.923  11.414  14.440
56903SOL    HW172542   9.886  11.491  14.396
56903SOL    HW272543   9.989  11.381  14.379
56904SOL     OW72544  12.765   3.320  12.930
56904SOL    HW172545  12.847   3.284  12.964
56904SOL    HW272546  12.704   3.247  12.929
56905SOL     OW72547   9.053   7.830   4.135
56905SOL    HW172548   9.042   7.763   4.202
56905SOL    HW272549   9.062   7.781   4.053
56906SOL     OW72550   2.719  14.092  11.939
56906SOL    HW172551   2.720  14.066  12.031
56906SOL    HW272552   2.655  14.034  11.898
56907SOL     OW72553   3.557   1.994   0.461
56907SOL    HW172554   3.548   2.080   0.421
56907SOL    HW272555   3.597   2.011   0.546
56908SOL     OW72556  14.061   1.289   6.927
56908SOL    HW172557  14.121   1.272   7.000
56908SOL    HW272558  13.986   1.333   6.967
56909SOL     OW72559   5.188   8.892  12.345
56909SOL    HW172560   5.274   8.913  12.309
56909SOL    HW272561   5.134   8.871  12.268
56910SOL     OW72562  10.650  10.345   4.715
56910SOL    HW172563  10.581  10.279   4.720
56910SOL    HW272564  10.706  10.316   4.643
56911SOL     OW72565  12.104   8.718   6.351
56911SOL    HW172566  12.052   8.754   6.280
56911SOL    HW272567  12.126   8.630   6.323
56912SOL     OW72568  10.874   2.445   2.395
56912SOL    HW172569  10.791   2.403   2.370
56912SOL    HW272570  10.853   2.492   2.475
56913SOL     OW72571   7.131   8.395   8.866
56913SOL    HW172572   7.205   8.424   8.813
56913SOL    HW272573   7.171   8.341   8.934
56914SOL     OW72574  13.896   0.372   9.494
56914SOL    HW172575  13.989   0.388   9.479
56914SOL    HW272576  13.875   0.424   9.570
56915SOL     OW72577   5.450   6.888   3.904
56915SOL    HW172578   5.492   6.968   3.873
56915SOL    HW272579   5.515   6.819   3.890
56916SOL     OW72580   5.735   3.652   3.064
56916SOL    HW172581   5.724   3.567   3.106
56916SOL    HW272582   5.740   3.714   3.136
56917SOL     OW72583   2.487  13.058   8.290
56917SOL    HW172584   2.538  12.984   8.258
56917SOL    HW272585   2.552  13.128   8.300
56918SOL     OW72586   9.068   4.558  11.139
56918SOL    HW172587   9.112   4.624  11.192
56918SOL    HW272588   9.084   4.585  11.048
56919SOL     OW72589   9.308   0.689   2.652
56919SOL    HW172590   9.306   0.748   2.728
56919SOL    HW272591   9.401   0.673   2.636
56920SOL     OW72592  11.388  12.409  11.914
56920SOL    HW172593  11.351  12.328  11.881
56920SOL    HW272594  11.479  12.387  11.934
56921SOL     OW72595  12.543  14.408   8.178
56921SOL    HW172596  12.545  14.317   8.210
56921SOL    HW272597  12.463  14.445   8.217
56922SOL     OW72598   6.937   0.373   5.275
56922SOL    HW172599   6.988   0.365   5.195
56922SOL    HW272600   6.846   0.362   5.247
56923SOL     OW72601   3.741  10.820  12.398
56923SOL    HW172602   3.785  10.777  12.324
56923SOL    HW272603   3.649  10.796  12.389
56924SOL     OW72604  10.915   5.312   1.105
56924SOL    HW172605  10.965   5.233   1.085
56924SOL    HW272606  10.832   5.279   1.139
56925SOL     OW72607  13.627   7.951   2.655
56925SOL    HW172608  13.720   7.946   2.677
56925SOL    HW272609  13.620   8.028   2.599
56926SOL     OW72610   9.356  10.195   1.354
56926SOL    HW172611   9.422  10.213   1.421
56926SOL    HW272612   9.286  10.258   1.372
56927SOL     OW72613  14.852   3.979   8.190
56927SOL    HW172614   0.034   4.050   8.211
56927SOL    HW272615  14.852   3.924   8.269
56928SOL     OW72616   3.649   4.770  13.632
56928SOL    HW172617   3.627   4.764  13.725
56928SOL    HW272618   3.675   4.862  13.620
56929SOL     OW72619  13.859  10.508   2.889
56929SOL    HW172620  13.778  10.499   2.839
56929SOL    HW272621  13.844  10.584   2.946
56930SOL     OW72622   9.722   4.617  14.184
56930SOL    HW172623   9.667   4.642  14.110
56930SOL    HW272624   9.811   4.633  14.154
56931SOL     OW72625   3.579   7.450   7.441
56931SOL    HW172626   3.657   7.478   7.488
56931SOL    HW272627   3.514   7.519   7.458
56932SOL     OW72628   4.318   4.703   4.399
56932SOL    HW172629   4.337   4.614   4.369
56932SOL    HW272630   4.305   4.695   4.493
56933SOL     OW72631  12.556  11.406   2.078
56933SOL    HW172632  12.469  11.446   2.088
56933SOL    HW272633  12.543  11.314   2.100
56934SOL     OW72634  12.289  13.375   1.278
56934SOL    HW172635  12.214  13.414   1.234
56934SOL    HW272636  12.252  13.303   1.330
56935SOL     OW72637  12.483   0.189   8.774
56935SOL    HW172638  12.523   0.211   8.858
56935SOL    HW272639  12.538   0.234   8.709
56936SOL     OW72640   2.473   3.923  13.506
56936SOL    HW172641   2.436   3.835  13.500
56936SOL    HW272642   2.458   3.961  13.419
56937SOL     OW72643  10.361   4.244  12.645
56937SOL    HW172644  10.344   4.336  12.664
56937SOL    HW272645  10.274   4.205  12.634
56938SOL     OW72646   2.392  12.058   0.526
56938SOL    HW172647   2.450  12.134   0.525
56938SOL    HW272648   2.304  12.094   0.514
56939SOL     OW72649  11.924   3.909  13.383
56939SOL    HW172650  11.894   3.826  13.422
56939SOL    HW272651  12.009   3.926  13.424
56940SOL     OW72652   5.559   6.022   7.709
56940SOL    HW172653   5.634   6.035   7.767
56940SOL    HW272654   5.487   5.996   7.767
56941SOL     OW72655   1.269  10.235  11.792
56941SOL    HW172656   1.174  10.249  11.792
56941SOL    HW272657   1.298  10.267  11.707
56942SOL     OW72658   8.932   5.597   1.611
56942SOL    HW172659   8.964   5.545   1.686
56942SOL    HW272660   8.948   5.541   1.535
56943SOL     OW72661   0.314   4.372  11.659
56943SOL    HW172662   0.260   4.364  11.738
56943SOL    HW272663   0.381   4.303  11.668
56944SOL     OW72664  10.668  14.309  12.414
56944SOL    HW172665  10.683  14.402  12.429
56944SOL    HW272666  10.580  14.293  12.448
56945SOL     OW72667   4.878   7.093   2.193
56945SOL    HW172668   4.950   7.155   2.197
56945SOL    HW272669   4.804   7.144   2.161
56946SOL     OW72670  13.627   8.074   5.007
56946SOL    HW172671  13.662   8.130   4.937
56946SOL    HW272672  13.705   8.043   5.053
56947SOL     OW72673   1.931  10.889  13.062
56947SOL    HW172674   1.900  10.918  12.976
56947SOL    HW272675   1.914  10.795  13.064
56948SOL     OW72676   3.240  11.522  11.574
56948SOL    HW172677   3.236  11.580  11.498
56948SOL    HW272678   3.333  11.504  11.585
56949SOL     OW72679   6.980   7.949   2.644
56949SOL    HW172680   6.990   7.911   2.557
56949SOL    HW272681   6.949   8.038   2.628
56950SOL     OW72682  13.697  10.578  14.458
56950SOL    HW172683  13.788  10.568  14.487
56950SOL    HW272684  13.685  10.673  14.453
56951SOL     OW72685   6.029   7.114  13.569
56951SOL    HW172686   6.045   7.195  13.520
56951SOL    HW272687   6.030   7.045  13.502
56952SOL     OW72688   5.936  11.120  10.014
56952SOL    HW172689   5.951  11.156   9.926
56952SOL    HW272690   5.952  11.026  10.004
56953SOL     OW72691  12.979   3.050  13.565
56953SOL    HW172692  12.982   3.104  13.645
56953SOL    HW272693  12.927   3.102  13.504
56954SOL     OW72694   0.326   5.600  12.224
56954SOL    HW172695   0.327   5.692  12.195
56954SOL    HW272696   0.405   5.563  12.185
56955SOL     OW72697  10.047   3.246  11.471
56955SOL    HW172698  10.102   3.198  11.533
56955SOL    HW272699   9.996   3.178  11.427
56956SOL     OW72700   7.743   4.314   6.539
56956SOL    HW172701   7.729   4.252   6.611
56956SOL    HW272702   7.816   4.369   6.568
56957SOL     OW72703   6.409  12.519   4.644
56957SOL    HW172704   6.458  12.490   4.567
56957SOL    HW272705   6.318  12.495   4.624
56958SOL     OW72706   0.215   9.644   1.166
56958SOL    HW172707   0.237   9.698   1.242
56958SOL    HW272708   0.159   9.575   1.201
56959SOL     OW72709   3.834   5.332   0.196
56959SOL    HW172710   3.754   5.379   0.171
56959SOL    HW272711   3.817   5.302   0.285
56960SOL     OW72712  11.680  11.675   7.095
56960SOL    HW172713  11.717  11.712   7.175
56960SOL    HW272714  11.620  11.607   7.125
56961SOL     OW72715   6.098  11.279   4.442
56961SOL    HW172716   6.145  11.347   4.395
56961SOL    HW272717   6.052  11.230   4.374
56962SOL     OW72718  11.375  14.792   1.500
56962SOL    HW172719  11.311  14.731   1.462
56962SOL    HW272720  11.447  14.736   1.527
56963SOL     OW72721   1.857   0.901   8.687
56963SOL    HW172722   1.924   0.840   8.655
56963SOL    HW272723   1.853   0.969   8.620
56964SOL     OW72724   4.268  12.454  13.961
56964SOL    HW172725   4.200  12.501  13.915
56964SOL    HW272726   4.221  12.390  14.015
56965SOL     OW72727   4.570   8.076  10.812
56965SOL    HW172728   4.593   8.020  10.738
56965SOL    HW272729   4.536   8.156  10.772
56966SOL     OW72730   4.519   7.148   1.039
56966SOL    HW172731   4.444   7.115   1.089
56966SOL    HW272732   4.584   7.077   1.044
56967SOL     OW72733  14.773  12.539   0.320
56967SOL    HW172734  14.727  12.601   0.377
56967SOL    HW272735  14.768  12.578   0.233
56968SOL     OW72736  10.466   5.978   4.129
56968SOL    HW172737  10.392   5.947   4.077
56968SOL    HW272738  10.478   5.912   4.196
56969SOL     OW72739   2.546   0.177   3.052
56969SOL    HW172740   2.612   0.126   3.099
56969SOL    HW272741   2.466   0.167   3.104
56970SOL     OW72742   2.100   1.053   2.298
56970SOL    HW172743   2.046   0.992   2.349
56970SOL    HW272744   2.190   1.032   2.322
56971SOL     OW72745   5.913   1.476   4.713
56971SOL    HW172746   5.983   1.412   4.699
56971SOL    HW272747   5.886   1.462   4.804
56972SOL     OW72748  10.284  11.619  10.445
56972SOL    HW172749  10.203  11.578  10.415
56972SOL    HW272750  10.333  11.639  10.365
56973SOL     OW72751   3.728   6.877   7.999
56973SOL    HW172752   3.655   6.907   8.053
56973SOL    HW272753   3.726   6.782   8.006
56974SOL     OW72754   1.994   5.127  11.089
56974SOL    HW172755   1.967   5.194  11.027
56974SOL    HW272756   1.913   5.096  11.129
56975SOL     OW72757   4.665   5.812   4.017
56975SOL    HW172758   4.732   5.785   4.079
56975SOL    HW272759   4.658   5.907   4.029
56976SOL     OW72760   5.974   5.738  12.730
56976SOL    HW172761   5.983   5.648  12.697
56976SOL    HW272762   5.906   5.777  12.674
56977SOL     OW72763   5.193   7.006   2.230
56977SOL    HW172764   5.118   7.011   2.290
56977SOL    HW272765   5.254   7.072   2.263
56978SOL     OW72766   9.917   9.717  14.664
56978SOL    HW172767   9.822   9.710  14.669
56978SOL    HW272768   9.933   9.796  14.613
56979SOL     OW72769   7.439   1.040   7.902
56979SOL    HW172770   7.374   0.971   7.915
56979SOL    HW272771   7.501   1.003   7.840
56980SOL     OW72772  12.138   7.985   2.458
56980SOL    HW172773  12.061   8.017   2.411
56980SOL    HW272774  12.155   7.899   2.421
56981SOL     OW72775   5.469   1.527   5.891
56981SOL    HW172776   5.446   1.552   5.802
56981SOL    HW272777   5.466   1.432   5.891
56982SOL     OW72778   3.478  11.061  14.289
56982SOL    HW172779   3.511  11.150  14.300
56982SOL    HW272780   3.555  11.010  14.262
56983SOL     OW72781   5.832  11.528  13.202
56983SOL    HW172782   5.899  11.509  13.136
56983SOL    HW272783   5.785  11.445  13.214
56984SOL     OW72784   5.090  13.730   9.494
56984SOL    HW172785   5.007  13.696   9.460
56984SOL    HW272786   5.151  13.719   9.421
56985SOL     OW72787  11.581  11.866  14.062
56985SOL    HW172788  11.641  11.824  14.124
56985SOL    HW272789  11.594  11.819  13.980
56986SOL     OW72790   6.130  13.909   0.912
56986SOL    HW172791   6.087  13.870   0.836
56986SOL    HW272792   6.083  13.874   0.988
56987SOL     OW72793   1.226   3.037   4.372
56987SOL    HW172794   1.316   3.005   4.365
56987SOL    HW272795   1.183   3.004   4.293
56988SOL     OW72796   6.408   3.748   8.940
56988SOL    HW172797   6.359   3.831   8.942
56988SOL    HW272798   6.477   3.759   9.005
56989SOL     OW72799   3.705   2.074   3.538
56989SOL    HW172800   3.785   2.040   3.579
56989SOL    HW272801   3.646   1.998   3.535
56990SOL     OW72802  13.205  13.834   3.825
56990SOL    HW172803  13.214  13.750   3.870
56990SOL    HW272804  13.149  13.886   3.883
56991SOL     OW72805   8.109   4.367  14.266
56991SOL    HW172806   8.158   4.303  14.319
56991SOL    HW272807   8.026   4.323  14.246
56992SOL     OW72808  12.267   9.958   5.849
56992SOL    HW172809  12.259   9.872   5.890
56992SOL    HW272810  12.272   9.939   5.755
56993SOL     OW72811   2.212   5.313   8.040
56993SOL    HW172812   2.199   5.369   8.116
56993SOL    HW272813   2.208   5.373   7.965
56994SOL     OW72814   8.284   1.657   4.913
56994SOL    HW172815   8.263   1.718   4.843
56994SOL    HW272816   8.367   1.617   4.886
56995SOL     OW72817   2.508   1.264   2.434
56995SOL    HW172818   2.527   1.338   2.377
56995SOL    HW272819   2.587   1.253   2.487
56996SOL     OW72820  11.807   5.619   7.637
56996SOL    HW172821  11.714   5.638   7.640
56996SOL    HW272822  11.846   5.697   7.597
56997SOL     OW72823   7.184   6.387   6.324
56997SOL    HW172824   7.279   6.377   6.330
56997SOL    HW272825   7.171   6.480   6.305
56998SOL     OW72826   5.237   2.504   1.087
56998SOL    HW172827   5.218   2.596   1.104
56998SOL    HW272828   5.206   2.458   1.165
56999SOL     OW72829  12.255   2.353  14.667
56999SOL    HW172830  12.171   2.326  14.631
56999SOL    HW272831  12.265   2.302  14.747
57000SOL     OW72832  14.555   1.694   0.456
57000SOL    HW172833  14.542   1.787   0.441
57000SOL    HW272834  14.650   1.683   0.460
57001SOL     OW72835   0.209   1.790   9.692
57001SOL    HW172836   0.236   1.838   9.614
57001SOL    HW272837   0.235   1.847   9.765
57002SOL     OW72838  10.332  13.040   4.682
57002SOL    HW172839  10.264  13.107   4.674
57002SOL    HW272840  10.301  12.968   4.626
57003SOL     OW72841  10.331   0.751  13.048
57003SOL    HW172842  10.381   0.763  13.128
57003SOL    HW272843  10.344   0.832  12.998
57004SOL     OW72844   4.583   4.495  13.929
57004SOL    HW172845   4.507   4.539  13.967
57004SOL    HW272846   4.551   4.458  13.847
57005SOL     OW72847  10.496  10.197  12.981
57005SOL    HW172848  10.560  10.263  13.008
57005SOL    HW272849  10.539  10.114  12.997
57006SOL     OW72850   1.924   4.880   4.823
57006SOL    HW172851   1.949   4.806   4.878
57006SOL    HW272852   2.006   4.927   4.806
57007SOL     OW72853   1.823   7.640  13.415
57007SOL    HW172854   1.858   7.630  13.326
57007SOL    HW272855   1.873   7.713  13.452
57008SOL     OW72856   8.990   0.349   0.537
57008SOL    HW172857   9.078   0.332   0.504
57008SOL    HW272858   8.936   0.281   0.498
57009SOL     OW72859   4.197   8.113   4.013
57009SOL    HW172860   4.117   8.066   4.033
57009SOL    HW272861   4.245   8.055   3.954
57010SOL     OW72862   8.900   0.181   0.078
57010SOL    HW172863   8.894   0.087   0.092
57010SOL    HW272864   8.963   0.190   0.006
57011SOL     OW72865  11.363   3.332   4.820
57011SOL    HW172866  11.376   3.407   4.879
57011SOL    HW272867  11.288   3.356   4.766
57012SOL     OW72868   7.841   2.058   5.577
57012SOL    HW172869   7.897   2.020   5.510
57012SOL    HW272870   7.875   2.025   5.660
57013SOL     OW72871   4.218  13.574  10.987
57013SOL    HW172872   4.134  13.557  11.029
57013SOL    HW272873   4.201  13.649  10.930
57014SOL     OW72874  12.029   3.657  13.181
57014SOL    HW172875  12.067   3.645  13.268
57014SOL    HW272876  11.986   3.574  13.162
57015SOL     OW72877  10.677   9.400   1.922
57015SOL    HW172878  10.757   9.351   1.905
57015SOL    HW272879  10.695   9.487   1.886
57016SOL     OW72880   3.484  11.395   7.530
57016SOL    HW172881   3.418  11.374   7.463
57016SOL    HW272882   3.474  11.489   7.544
57017SOL     OW72883   8.288   5.736  10.418
57017SOL    HW172884   8.250   5.651  10.395
57017SOL    HW272885   8.331   5.722  10.502
57018SOL     OW72886   0.922   6.686  10.989
57018SOL    HW172887   0.848   6.663  11.046
57018SOL    HW272888   0.942   6.606  10.942
57019SOL     OW72889  13.420  11.858  14.077
57019SOL    HW172890  13.515  11.867  14.067
57019SOL    HW272891  13.386  11.874  13.988
57020SOL     OW72892   5.591   4.047   7.448
57020SOL    HW172893   5.661   4.058   7.512
57020SOL    HW272894   5.547   3.966   7.474
57021SOL     OW72895   4.768  10.483   3.422
57021SOL    HW172896   4.748  10.389   3.417
57021SOL    HW272897   4.749  10.516   3.335
57022SOL     OW72898  12.364  10.600  12.768
57022SOL    HW172899  12.295  10.539  12.796
57022SOL    HW272900  12.440  10.545  12.754
57023SOL     OW72901   6.705  11.719  11.986
57023SOL    HW172902   6.617  11.754  11.969
57023SOL    HW272903   6.728  11.753  12.072
57024SOL     OW72904  14.011   6.692  11.992
57024SOL    HW172905  14.048   6.631  12.056
57024SOL    HW272906  13.957   6.752  12.044
57025SOL     OW72907   3.207   4.924  12.093
57025SOL    HW172908   3.196   4.943  12.000
57025SOL    HW272909   3.237   4.833  12.096
57026SOL     OW72910  13.701  10.148   4.634
57026SOL    HW172911  13.737  10.184   4.715
57026SOL    HW272912  13.740  10.202   4.565
57027SOL     OW72913   6.505   1.839   7.445
57027SOL    HW172914   6.509   1.853   7.540
57027SOL    HW272915   6.573   1.775   7.427
57028SOL     OW72916  11.998  12.915   7.524
57028SOL    HW172917  12.086  12.889   7.497
57028SOL    HW272918  11.995  12.895   7.617
57029SOL     OW72919  11.020   2.142   8.001
57029SOL    HW172920  11.005   2.051   7.977
57029SOL    HW272921  10.966   2.192   7.940
57030SOL     OW72922  11.647  11.191   0.895
57030SOL    HW172923  11.598  11.259   0.941
57030SOL    HW272924  11.691  11.142   0.965
57031SOL     OW72925   6.374   3.846  12.949
57031SOL    HW172926   6.428   3.778  12.909
57031SOL    HW272927   6.424   3.927  12.935
57032SOL     OW72928   6.950  14.168   4.148
57032SOL    HW172929   6.973  14.175   4.241
57032SOL    HW272930   6.901  14.086   4.142
57033SOL     OW72931   8.748   7.584   0.985
57033SOL    HW172932   8.843   7.586   0.998
57033SOL    HW272933   8.712   7.589   1.074
57034SOL     OW72934   7.613   5.074   4.462
57034SOL    HW172935   7.554   5.146   4.437
57034SOL    HW272936   7.641   5.095   4.551
57035SOL     OW72937  14.225  14.540   3.415
57035SOL    HW172938  14.208  14.501   3.329
57035SOL    HW272939  14.159  14.609   3.424
57036SOL     OW72940   2.184  11.143   2.455
57036SOL    HW172941   2.097  11.170   2.486
57036SOL    HW272942   2.217  11.218   2.407
57037SOL     OW72943   0.544  11.725   8.758
57037SOL    HW172944   0.635  11.752   8.771
57037SOL    HW272945   0.508  11.790   8.697
57038SOL     OW72946   4.494   5.942   2.890
57038SOL    HW172947   4.453   5.888   2.958
57038SOL    HW272948   4.582   5.906   2.882
57039SOL     OW72949   2.502   1.722  13.701
57039SOL    HW172950   2.536   1.741  13.614
57039SOL    HW272951   2.497   1.626  13.704
57040SOL     OW72952   7.511   8.314   9.401
57040SOL    HW172953   7.440   8.304   9.465
57040SOL    HW272954   7.588   8.278   9.445
57041SOL     OW72955  14.534   9.039   8.251
57041SOL    HW172956  14.582   8.960   8.276
57041SOL    HW272957  14.596   9.110   8.264
57042SOL     OW72958   1.989  10.967   4.943
57042SOL    HW172959   2.006  10.898   4.879
57042SOL    HW272960   1.972  10.920   5.025
57043SOL     OW72961  11.534   4.149   7.847
57043SOL    HW172962  11.440   4.143   7.861
57043SOL    HW272963  11.559   4.066   7.808
57044SOL     OW72964   8.429   5.266  10.169
57044SOL    HW172965   8.485   5.335  10.204
57044SOL    HW272966   8.472   5.237  10.089
57045SOL     OW72967  10.204   5.985   9.171
57045SOL    HW172968  10.128   5.965   9.117
57045SOL    HW272969  10.174   6.054   9.230
57046SOL     OW72970   9.146  10.108   1.699
57046SOL    HW172971   9.062  10.147   1.674
57046SOL    HW272972   9.140  10.098   1.794
57047SOL     OW72973   6.171  12.133   1.310
57047SOL    HW172974   6.076  12.144   1.311
57047SOL    HW272975   6.202  12.185   1.385
57048SOL     OW72976  11.136   2.387   3.750
57048SOL    HW172977  11.172   2.473   3.728
57048SOL    HW272978  11.048   2.405   3.782
57049SOL     OW72979  14.827  10.273   7.271
57049SOL    HW172980  14.843  10.217   7.195
57049SOL    HW272981   0.035  10.295   7.303
57050SOL     OW72982   6.829   4.445  11.221
57050SOL    HW172983   6.907   4.462  11.273
57050SOL    HW272984   6.806   4.354  11.242
57051SOL     OW72985  12.486   2.804   5.113
57051SOL    HW172986  12.457   2.800   5.022
57051SOL    HW272987  12.409   2.835   5.161
57052SOL     OW72988   7.947   3.448   8.607
57052SOL    HW172989   7.914   3.507   8.538
57052SOL    HW272990   8.005   3.503   8.659
57053SOL     OW72991  11.348  10.054  10.993
57053SOL    HW172992  11.294  10.010  10.928
57053SOL    HW272993  11.407   9.986  11.025
57054SOL     OW72994   5.446   9.622  10.883
57054SOL    HW172995   5.362   9.665  10.865
57054SOL    HW272996   5.422   9.533  10.908
57055SOL     OW72997   4.016   9.835   9.758
57055SOL    HW172998   4.111   9.827   9.770
57055SOL    HW272999   3.991   9.757   9.708
57056SOL     OW73000  10.559  10.390   8.409
57056SOL    HW173001  10.492  10.325   8.386
57056SOL    HW273002  10.526  10.432   8.488
57057SOL     OW73003   6.858   7.510   5.185
57057SOL    HW173004   6.946   7.539   5.163
57057SOL    HW273005   6.869   7.419   5.214
57058SOL     OW73006   9.401   8.741   5.754
57058SOL    HW173007   9.312   8.752   5.722
57058SOL    HW273008   9.453   8.801   5.700
57059SOL     OW73009   2.663  14.508   9.750
57059SOL    HW173010   2.709  14.483   9.669
57059SOL    HW273011   2.689  14.442   9.814
57060SOL     OW73012  12.298   3.809   6.596
57060SOL    HW173013  12.294   3.817   6.691
57060SOL    HW273014  12.227   3.749   6.573
57061SOL     OW73015  12.641   8.255   5.632
57061SOL    HW173016  12.623   8.348   5.647
57061SOL    HW273017  12.724   8.240   5.676
57062SOL     OW73018   3.553   8.898   4.149
57062SOL    HW173019   3.609   8.890   4.226
57062SOL    HW273020   3.530   8.991   4.146
57063SOL     OW73021   3.839  12.697   5.793
57063SOL    HW173022   3.835  12.601   5.796
57063SOL    HW273023   3.751  12.724   5.768
57064SOL     OW73024   1.086  10.269   6.112
57064SOL    HW173025   1.145  10.210   6.158
57064SOL    HW273026   1.137  10.350   6.101
57065SOL     OW73027   3.457   1.872   1.049
57065SOL    HW173028   3.520   1.801   1.062
57065SOL    HW273029   3.384   1.850   1.106
57066SOL     OW73030  12.598  14.212   8.367
57066SOL    HW173031  12.630  14.122   8.373
57066SOL    HW273032  12.504  14.205   8.383
57067SOL     OW73033   7.444   8.403   4.286
57067SOL    HW173034   7.378   8.420   4.218
57067SOL    HW273035   7.438   8.479   4.344
57068SOL     OW73036   0.247  14.788   3.877
57068SOL    HW173037   0.231  14.814   3.786
57068SOL    HW273038   0.168  14.739   3.902
57069SOL     OW73039   6.800   4.856  14.788
57069SOL    HW173040   6.825   4.799  14.861
57069SOL    HW273041   6.881   4.903  14.765
57070SOL     OW73042  12.028  12.812  13.758
57070SOL    HW173043  12.017  12.903  13.785
57070SOL    HW273044  11.943  12.771  13.776
57071SOL     OW73045  13.323  14.818  11.850
57071SOL    HW173046  13.388  14.857  11.791
57071SOL    HW273047  13.312   0.004  11.919
57072SOL     OW73048  10.678   4.674  12.983
57072SOL    HW173049  10.737   4.735  12.939
57072SOL    HW273050  10.692   4.691  13.077
57073SOL     OW73051  11.303   3.546  10.013
57073SOL    HW173052  11.313   3.493   9.934
57073SOL    HW273053  11.289   3.635   9.981
57074SOL     OW73054   1.495   2.086   6.328
57074SOL    HW173055   1.474   2.047   6.243
57074SOL    HW273056   1.500   2.012   6.388
57075SOL     OW73057  11.029   4.506  13.028
57075SOL    HW173058  10.998   4.429  13.076
57075SOL    HW273059  10.972   4.577  13.058
57076SOL     OW73060  12.139   3.934  13.648
57076SOL    HW173061  12.201   3.926  13.575
57076SOL    HW273062  12.153   3.855  13.699
57077SOL     OW73063  12.686   0.542   2.511
57077SOL    HW173064  12.653   0.509   2.594
57077SOL    HW273065  12.780   0.557   2.527
57078SOL     OW73066  12.082   3.567   4.821
57078SOL    HW173067  12.145   3.538   4.755
57078SOL    HW273068  11.997   3.563   4.777
57079SOL     OW73069  12.932   3.710   5.091
57079SOL    HW173070  13.001   3.689   5.029
57079SOL    HW273071  12.904   3.625   5.126
57080SOL     OW73072  13.081   8.086   5.282
57080SOL    HW173073  13.029   8.049   5.354
57080SOL    HW273074  13.172   8.068   5.306
57081SOL     OW73075  13.872   3.205  11.466
57081SOL    HW173076  13.953   3.247  11.498
57081SOL    HW273077  13.903   3.131  11.414
57082SOL     OW73078   8.620   4.468   0.238
57082SOL    HW173079   8.678   4.528   0.285
57082SOL    HW273080   8.537   4.517   0.230
57083SOL     OW73081  14.777  11.060   3.630
57083SOL    HW173082  14.836  11.121   3.674
57083SOL    HW273083  14.689  11.096   3.646
57084SOL     OW73084   3.738   8.396   0.723
57084SOL    HW173085   3.803   8.387   0.654
57084SOL    HW273086   3.758   8.326   0.784
57085SOL     OW73087  11.514   3.516   6.989
57085SOL    HW173088  11.553   3.432   6.964
57085SOL    HW273089  11.493   3.558   6.906
57086SOL     OW73090  11.152   8.895   6.338
57086SOL    HW173091  11.103   8.864   6.262
57086SOL    HW273092  11.213   8.825   6.359
57087SOL     OW73093   3.223   8.999   1.570
57087SOL    HW173094   3.200   9.091   1.581
57087SOL    HW273095   3.318   8.998   1.566
57088SOL     OW73096   6.363  12.310   5.469
57088SOL    HW173097   6.388  12.234   5.521
57088SOL    HW273098   6.444  12.338   5.427
57089SOL     OW73099  12.848  10.252   7.290
57089SOL    HW173100  12.890  10.287   7.211
57089SOL    HW273101  12.830  10.161   7.269
57090SOL     OW73102   6.761   9.817  10.989
57090SOL    HW173103   6.804   9.750  11.041
57090SOL    HW273104   6.686   9.844  11.042
57091SOL     OW73105   6.930   3.391   1.261
57091SOL    HW173106   6.876   3.394   1.340
57091SOL    HW273107   6.933   3.481   1.230
57092SOL     OW73108   8.457  11.636  11.061
57092SOL    HW173109   8.426  11.546  11.063
57092SOL    HW273110   8.473  11.658  11.153
57093SOL     OW73111   1.075  11.725   6.981
57093SOL    HW173112   1.108  11.703   7.068
57093SOL    HW273113   1.144  11.696   6.922
57094SOL     OW73114   0.622  13.409  13.267
57094SOL    HW173115   0.628  13.418  13.363
57094SOL    HW273116   0.619  13.315  13.252
57095SOL     OW73117  14.870   8.495   5.302
57095SOL    HW173118  14.778   8.521   5.313
57095SOL    HW273119  14.867   8.424   5.238
57096SOL     OW73120   2.520  13.568   8.035
57096SOL    HW173121   2.529  13.663   8.048
57096SOL    HW273122   2.462  13.560   7.959
57097SOL     OW73123   3.088   0.024   2.812
57097SOL    HW173124   2.998   0.033   2.779
57097SOL    HW273125   3.133   0.103   2.782
57098SOL     OW73126   4.058   9.423  13.742
57098SOL    HW173127   4.072   9.399  13.833
57098SOL    HW273128   3.984   9.369  13.714
57099SOL     OW73129   9.634   1.146   8.504
57099SOL    HW173130   9.589   1.108   8.428
57099SOL    HW273131   9.571   1.137   8.575
57100SOL     OW73132   8.701   8.243   9.750
57100SOL    HW173133   8.628   8.201   9.704
57100SOL    HW273134   8.665   8.267   9.835
57101SOL     OW73135   2.888   8.078   8.929
57101SOL    HW173136   2.952   8.119   8.988
57101SOL    HW273137   2.820   8.045   8.988
57102SOL     OW73138   3.749   4.689   7.028
57102SOL    HW173139   3.767   4.701   7.121
57102SOL    HW273140   3.732   4.777   6.995
57103SOL     OW73141   8.380   5.850  11.686
57103SOL    HW173142   8.329   5.920  11.647
57103SOL    HW273143   8.455   5.894  11.726
57104SOL     OW73144  14.729   8.415   1.167
57104SOL    HW173145  14.802   8.363   1.135
57104SOL    HW273146  14.751   8.505   1.143
57105SOL     OW73147   5.419  11.018  10.994
57105SOL    HW173148   5.384  10.931  10.974
57105SOL    HW273149   5.480  11.036  10.923
57106SOL     OW73150   9.838   6.693   8.912
57106SOL    HW173151   9.930   6.668   8.901
57106SOL    HW273152   9.841   6.784   8.942
57107SOL     OW73153   3.664   0.771   6.089
57107SOL    HW173154   3.674   0.706   6.159
57107SOL    HW273155   3.571   0.767   6.066
57108SOL     OW73156   4.768   9.457   4.914
57108SOL    HW173157   4.724   9.451   4.999
57108SOL    HW273158   4.777   9.551   4.898
57109SOL     OW73159   1.021  13.549  13.501
57109SOL    HW173160   1.082  13.611  13.461
57109SOL    HW273161   0.952  13.537  13.436
57110SOL     OW73162   9.313   0.486   6.232
57110SOL    HW173163   9.249   0.456   6.297
57110SOL    HW273164   9.295   0.432   6.155
57111SOL     OW73165  14.512  12.110   0.489
57111SOL    HW173166  14.518  12.035   0.548
57111SOL    HW273167  14.420  12.136   0.492
57112SOL     OW73168   1.032   9.846   6.098
57112SOL    HW173169   0.960   9.804   6.051
57112SOL    HW273170   1.092   9.774   6.118
57113SOL     OW73171   6.713   1.308   5.589
57113SOL    HW173172   6.786   1.369   5.584
57113SOL    HW273173   6.753   1.221   5.583
57114SOL     OW73174  13.238   5.900  12.645
57114SOL    HW173175  13.193   5.979  12.615
57114SOL    HW273176  13.314   5.892  12.587
57115SOL     OW73177  12.396   2.603   8.394
57115SOL    HW173178  12.334   2.575   8.461
57115SOL    HW273179  12.436   2.682   8.429
57116SOL     OW73180   0.852   1.249   4.689
57116SOL    HW173181   0.932   1.205   4.661
57116SOL    HW273182   0.785   1.219   4.627
57117SOL     OW73183   6.096  10.553   1.536
57117SOL    HW173184   6.167  10.491   1.548
57117SOL    HW273185   6.021  10.512   1.578
57118SOL     OW73186   8.153   2.211   7.544
57118SOL    HW173187   8.153   2.253   7.458
57118SOL    HW273188   8.060   2.202   7.567
57119SOL     OW73189  10.946   0.251   8.185
57119SOL    HW173190  10.916   0.278   8.272
57119SOL    HW273191  10.907   0.165   8.171
57120SOL     OW73192  11.328   0.534  10.653
57120SOL    HW173193  11.418   0.516  10.679
57120SOL    HW273194  11.302   0.609  10.706
57121SOL     OW73195   7.477   7.262  11.327
57121SOL    HW173196   7.558   7.256  11.379
57121SOL    HW273197   7.504   7.234  11.240
57122SOL     OW73198   0.329   7.463   7.382
57122SOL    HW173199   0.275   7.542   7.376
57122SOL    HW273200   0.330   7.442   7.475
57123SOL     OW73201  11.980   4.668   3.856
57123SOL    HW173202  11.997   4.662   3.762
57123SOL    HW273203  11.890   4.702   3.862
57124SOL     OW73204  12.980  14.864  11.931
57124SOL    HW173205  12.928   0.053  11.889
57124SOL    HW273206  13.030   0.030  11.998
57125SOL     OW73207   7.055   9.347   1.294
57125SOL    HW173208   7.109   9.277   1.257
57125SOL    HW273209   6.975   9.346   1.242
57126SOL     OW73210   6.937   0.714   6.567
57126SOL    HW173211   6.932   0.735   6.474
57126SOL    HW273212   6.943   0.618   6.570
57127SOL     OW73213   9.296  10.241   4.646
57127SOL    HW173214   9.235  10.307   4.676
57127SOL    HW273215   9.241  10.168   4.618
57128SOL     OW73216   8.708  12.014   9.384
57128SOL    HW173217   8.716  11.921   9.404
57128SOL    HW273218   8.769  12.028   9.312
57129SOL     OW73219  13.166   7.769  10.634
57129SOL    HW173220  13.104   7.835  10.666
57129SOL    HW273221  13.251   7.811  10.641
57130SOL     OW73222  14.248   7.924  13.122
57130SOL    HW173223  14.249   8.018  13.139
57130SOL    HW273224  14.164   7.910  13.078
57131SOL     OW73225  11.762   6.192   2.563
57131SOL    HW173226  11.797   6.195   2.474
57131SOL    HW273227  11.759   6.283   2.591
57132SOL     OW73228   0.188  11.348   4.150
57132SOL    HW173229   0.207  11.439   4.175
57132SOL    HW273230   0.212  11.342   4.058
57133SOL     OW73231   3.571   2.726   1.857
57133SOL    HW173232   3.633   2.799   1.848
57133SOL    HW273233   3.498   2.763   1.906
57134SOL     OW73234  10.978  12.798   5.566
57134SOL    HW173235  11.010  12.762   5.484
57134SOL    HW273236  10.963  12.722   5.622
57135SOL     OW73237   5.330   2.808   9.507
57135SOL    HW173238   5.265   2.752   9.551
57135SOL    HW273239   5.280   2.853   9.439
57136SOL     OW73240   0.242  13.030   0.753
57136SOL    HW173241   0.294  13.109   0.764
57136SOL    HW273242   0.241  13.014   0.659
57137SOL     OW73243  12.808   8.405   3.484
57137SOL    HW173244  12.731   8.361   3.448
57137SOL    HW273245  12.881   8.369   3.434
57138SOL     OW73246   9.850   5.603  13.421
57138SOL    HW173247   9.921   5.605  13.485
57138SOL    HW273248   9.885   5.552  13.348
57139SOL     OW73249  14.473   7.686  12.811
57139SOL    HW173250  14.401   7.643  12.764
57139SOL    HW273251  14.544   7.622  12.810
57140SOL     OW73252   5.556   2.657  14.307
57140SOL    HW173253   5.610   2.646  14.385
57140SOL    HW273254   5.618   2.648  14.234
57141SOL     OW73255   1.917   5.150   9.700
57141SOL    HW173256   1.829   5.128   9.670
57141SOL    HW273257   1.938   5.232   9.655
57142SOL     OW73258  11.494   5.372   6.956
57142SOL    HW173259  11.463   5.282   6.969
57142SOL    HW273260  11.573   5.363   6.903
57143SOL     OW73261   3.251   5.227   0.875
57143SOL    HW173262   3.201   5.304   0.847
57143SOL    HW273263   3.318   5.216   0.807
57144SOL     OW73264   5.514   2.190   5.956
57144SOL    HW173265   5.492   2.098   5.971
57144SOL    HW273266   5.599   2.201   5.999
57145SOL     OW73267   5.477   1.148   3.735
57145SOL    HW173268   5.456   1.148   3.641
57145SOL    HW273269   5.409   1.094   3.775
57146SOL     OW73270   5.082   7.652  11.944
57146SOL    HW173271   5.068   7.568  11.900
57146SOL    HW273272   5.168   7.643  11.985
57147SOL     OW73273  11.741   9.930  14.553
57147SOL    HW173274  11.676   9.924  14.623
57147SOL    HW273275  11.775  10.019  14.560
57148SOL     OW73276  12.935   6.924   4.586
57148SOL    HW173277  13.016   6.898   4.541
57148SOL    HW273278  12.908   6.845   4.633
57149SOL     OW73279  12.430   4.666   3.472
57149SOL    HW173280  12.486   4.663   3.395
57149SOL    HW273281  12.358   4.606   3.453
57150SOL     OW73282  13.923   2.345   9.830
57150SOL    HW173283  13.976   2.283   9.881
57150SOL    HW273284  13.987   2.392   9.777
57151SOL     OW73285   6.210   5.217  12.409
57151SOL    HW173286   6.122   5.253  12.402
57151SOL    HW273287   6.268   5.288  12.378
57152SOL     OW73288  10.648  14.397  10.387
57152SOL    HW173289  10.710  14.454  10.342
57152SOL    HW273290  10.604  14.349  10.317
57153SOL     OW73291  11.524   1.682   2.450
57153SOL    HW173292  11.446   1.664   2.397
57153SOL    HW273293  11.515   1.624   2.526
57154SOL     OW73294  11.734   4.695   5.335
57154SOL    HW173295  11.698   4.607   5.337
57154SOL    HW273296  11.824   4.684   5.304
57155SOL     OW73297  10.400  13.707  12.153
57155SOL    HW173298  10.423  13.681  12.064
57155SOL    HW273299  10.305  13.703  12.155
57156SOL     OW73300   3.932  11.598  10.416
57156SOL    HW173301   3.947  11.519  10.364
57156SOL    HW273302   4.001  11.596  10.483
57157SOL     OW73303   0.094  14.147  12.233
57157SOL    HW173304   0.139  14.198  12.301
57157SOL    HW273305   0.158  14.138  12.163
57158SOL     OW73306   6.796   4.481   8.842
57158SOL    HW173307   6.848   4.560   8.830
57158SOL    HW273308   6.860   4.414   8.869
57159SOL     OW73309   0.862   5.684   2.086
57159SOL    HW173310   0.841   5.678   1.993
57159SOL    HW273311   0.803   5.621   2.128
57160SOL     OW73312   5.702  11.595  12.385
57160SOL    HW173313   5.637  11.642  12.437
57160SOL    HW273314   5.652  11.559  12.311
57161SOL     OW73315   6.376   5.038   3.071
57161SOL    HW173316   6.340   4.991   2.996
57161SOL    HW273317   6.471   5.024   3.066
57162SOL     OW73318   4.971   3.287   6.329
57162SOL    HW173319   5.032   3.275   6.257
57162SOL    HW273320   4.986   3.376   6.360
57163SOL     OW73321   5.089   9.235   9.562
57163SOL    HW173322   5.152   9.164   9.552
57163SOL    HW273323   5.017   9.211   9.505
57164SOL     OW73324  10.356   7.455   9.658
57164SOL    HW173325  10.371   7.369   9.698
57164SOL    HW273326  10.442   7.484   9.630
57165SOL     OW73327   1.149   3.384   0.955
57165SOL    HW173328   1.093   3.334   1.015
57165SOL    HW273329   1.237   3.351   0.972
57166SOL     OW73330  11.467   8.709   1.387
57166SOL    HW173331  11.515   8.627   1.374
57166SOL    HW273332  11.399   8.708   1.319
57167SOL     OW73333   2.106   6.850   8.818
57167SOL    HW173334   2.159   6.890   8.887
57167SOL    HW273335   2.160   6.778   8.785
57168SOL     OW73336  10.846  12.532   8.288
57168SOL    HW173337  10.759  12.552   8.252
57168SOL    HW273338  10.893  12.615   8.281
57169SOL     OW73339   7.366   9.071   4.272
57169SOL    HW173340   7.285   9.021   4.272
57169SOL    HW273341   7.374   9.105   4.183
57170SOL     OW73342  14.677   7.192   9.230
57170SOL    HW173343  14.729   7.268   9.203
57170SOL    HW273344  14.740   7.121   9.240
57171SOL     OW73345   8.421  10.115   5.016
57171SOL    HW173346   8.331  10.105   5.046
57171SOL    HW273347   8.429  10.208   4.994
57172SOL     OW73348  10.613   2.323  11.241
57172SOL    HW173349  10.539   2.263  11.237
57172SOL    HW273350  10.605   2.376  11.161
57173SOL     OW73351   1.262  14.643   8.779
57173SOL    HW173352   1.336  14.684   8.735
57173SOL    HW273353   1.247  14.562   8.732
57174SOL     OW73354   5.279  10.044  13.041
57174SOL    HW173355   5.257  10.000  13.123
57174SOL    HW273356   5.375  10.042  13.038
57175SOL     OW73357   9.808   1.154   1.951
57175SOL    HW173358   9.821   1.233   2.004
57175SOL    HW273359   9.896   1.134   1.917
57176SOL     OW73360   8.028   9.411   3.347
57176SOL    HW173361   7.942   9.448   3.325
57176SOL    HW273362   8.083   9.433   3.272
57177SOL     OW73363   7.682  11.094   5.092
57177SOL    HW173364   7.670  11.050   5.008
57177SOL    HW273365   7.593  11.115   5.121
57178SOL     OW73366   7.682   8.319  12.155
57178SOL    HW173367   7.751   8.367  12.108
57178SOL    HW273368   7.601   8.345  12.110
57179SOL     OW73369  14.208   2.432   3.573
57179SOL    HW173370  14.265   2.357   3.583
57179SOL    HW273371  14.121   2.395   3.562
57180SOL     OW73372   8.886  14.441   7.195
57180SOL    HW173373   8.932  14.392   7.127
57180SOL    HW273374   8.911  14.532   7.180
57181SOL     OW73375  11.278   5.630  10.115
57181SOL    HW173376  11.204   5.691  10.122
57181SOL    HW273377  11.240   5.544  10.132
57182SOL     OW73378  12.644  13.361   4.595
57182SOL    HW173379  12.612  13.447   4.622
57182SOL    HW273380  12.575  13.325   4.539
57183SOL     OW73381  14.161   2.541   4.833
57183SOL    HW173382  14.107   2.463   4.849
57183SOL    HW273383  14.226   2.540   4.904
57184SOL     OW73384   6.606  14.636   2.715
57184SOL    HW173385   6.634  14.637   2.623
57184SOL    HW273386   6.650  14.712   2.754
57185SOL     OW73387   7.782   8.242   9.234
57185SOL    HW173388   7.793   8.323   9.284
57185SOL    HW273389   7.801   8.268   9.143
57186SOL     OW73390   6.189   8.194   6.777
57186SOL    HW173391   6.213   8.276   6.734
57186SOL    HW273392   6.245   8.128   6.735
57187SOL     OW73393   2.170  11.388   7.928
57187SOL    HW173394   2.230  11.368   7.856
57187SOL    HW273395   2.139  11.302   7.959
57188SOL     OW73396   5.915   4.648   6.000
57188SOL    HW173397   5.986   4.600   6.042
57188SOL    HW273398   5.951   4.736   5.984
57189SOL     OW73399   6.227   7.652  13.526
57189SOL    HW173400   6.211   7.640  13.432
57189SOL    HW273401   6.188   7.737  13.546
57190SOL     OW73402   7.776  13.688   4.475
57190SOL    HW173403   7.725  13.608   4.458
57190SOL    HW273404   7.824  13.704   4.394
57191SOL     OW73405  11.429  14.429   5.004
57191SOL    HW173406  11.466  14.493   4.943
57191SOL    HW273407  11.473  14.446   5.087
57192SOL     OW73408   8.808   6.622   0.775
57192SOL    HW173409   8.722   6.658   0.797
57192SOL    HW273410   8.866   6.698   0.774
57193SOL     OW73411   5.992   6.835  11.659
57193SOL    HW173412   5.926   6.898  11.631
57193SOL    HW273413   5.993   6.841  11.754
57194SOL     OW73414  14.566   2.840   8.636
57194SOL    HW173415  14.550   2.885   8.720
57194SOL    HW273416  14.518   2.892   8.572
57195SOL     OW73417  11.387   9.698   9.511
57195SOL    HW173418  11.359   9.783   9.477
57195SOL    HW273419  11.307   9.656   9.540
57196SOL     OW73420  12.872   0.831   7.257
57196SOL    HW173421  12.868   0.923   7.283
57196SOL    HW273422  12.965   0.814   7.245
57197SOL     OW73423   4.836  14.014   6.663
57197SOL    HW173424   4.911  14.012   6.723
57197SOL    HW273425   4.808  14.105   6.663
57198SOL     OW73426   1.974   1.087   6.828
57198SOL    HW173427   1.992   1.083   6.922
57198SOL    HW273428   2.027   1.016   6.791
57199SOL     OW73429   1.451  12.483   9.403
57199SOL    HW173430   1.491  12.398   9.423
57199SOL    HW273431   1.522  12.535   9.367
57200SOL     OW73432   9.620   7.213   3.351
57200SOL    HW173433   9.665   7.220   3.267
57200SOL    HW273434   9.530   7.240   3.332
57201SOL     OW73435   8.928  13.986  14.612
57201SOL    HW173436   9.006  13.960  14.563
57201SOL    HW273437   8.927  13.928  14.688
57202SOL     OW73438  14.749  12.649   7.603
57202SOL    HW173439  14.812  12.657   7.531
57202SOL    HW273440  14.774  12.569   7.649
57203SOL     OW73441  12.388   9.943   0.178
57203SOL    HW173442  12.458   9.918   0.118
57203SOL    HW273443  12.430   9.998   0.243
57204SOL     OW73444   8.162   1.562   1.123
57204SOL    HW173445   8.145   1.537   1.214
57204SOL    HW273446   8.133   1.654   1.117
57205SOL     OW73447   5.018  13.080  13.636
57205SOL    HW173448   5.102  13.038  13.654
57205SOL    HW273449   4.989  13.115  13.720
57206SOL     OW73450   1.473  13.015   9.975
57206SOL    HW173451   1.408  13.031   9.906
57206SOL    HW273452   1.435  12.945  10.028
57207SOL     OW73453   0.136  14.845   6.557
57207SOL    HW173454   0.054  14.810   6.594
57207SOL    HW273455   0.178  14.769   6.518
57208SOL     OW73456   7.207   1.709   5.045
57208SOL    HW173457   7.275   1.656   5.003
57208SOL    HW273458   7.232   1.799   5.027
57209SOL     OW73459   9.804   6.401  12.044
57209SOL    HW173460   9.749   6.363  11.976
57209SOL    HW273461   9.760   6.378  12.126
57210SOL     OW73462   2.864   1.970   6.799
57210SOL    HW173463   2.886   2.063   6.810
57210SOL    HW273464   2.769   1.968   6.792
57211SOL     OW73465   8.450   2.037   1.962
57211SOL    HW173466   8.398   2.117   1.963
57211SOL    HW273467   8.515   2.050   2.031
57212SOL     OW73468   0.550   2.360  14.410
57212SOL    HW173469   0.518   2.450  14.415
57212SOL    HW273470   0.483   2.309  14.455
57213SOL     OW73471   2.580   3.989   3.037
57213SOL    HW173472   2.669   3.964   3.012
57213SOL    HW273473   2.560   4.063   2.979
57214SOL     OW73474   9.535   3.297   9.207
57214SOL    HW173475   9.535   3.334   9.119
57214SOL    HW273476   9.558   3.370   9.264
57215SOL     OW73477   3.217   0.983   7.445
57215SOL    HW173478   3.215   0.918   7.374
57215SOL    HW273479   3.125   1.005   7.459
57216SOL     OW73480   5.527   1.421  13.746
57216SOL    HW173481   5.492   1.455  13.829
57216SOL    HW273482   5.457   1.437  13.683
57217SOL     OW73483  11.255   9.793   3.428
57217SOL    HW173484  11.168   9.789   3.468
57217SOL    HW273485  11.244   9.752   3.342
57218SOL     OW73486   2.218   0.642   1.109
57218SOL    HW173487   2.142   0.607   1.156
57218SOL    HW273488   2.210   0.737   1.117
57219SOL     OW73489   5.909   1.286  12.252
57219SOL    HW173490   5.958   1.368  12.260
57219SOL    HW273491   5.951   1.239  12.180
57220SOL     OW73492  13.493   6.821   3.673
57220SOL    HW173493  13.551   6.799   3.600
57220SOL    HW273494  13.551   6.830   3.749
57221SOL     OW73495   2.314   6.672  12.218
57221SOL    HW173496   2.333   6.682  12.311
57221SOL    HW273497   2.300   6.578  12.205
57222SOL     OW73498   9.743   8.489   0.981
57222SOL    HW173499   9.714   8.399   0.964
57222SOL    HW273500   9.676   8.544   0.940
57223SOL     OW73501   2.387  10.442  13.849
57223SOL    HW173502   2.423  10.506  13.910
57223SOL    HW273503   2.363  10.493  13.772
57224SOL     OW73504   6.806   8.527   4.470
57224SOL    HW173505   6.822   8.607   4.520
57224SOL    HW273506   6.869   8.532   4.398
57225SOL     OW73507  13.744   1.102  13.196
57225SOL    HW173508  13.677   1.049  13.152
57225SOL    HW273509  13.826   1.058  13.176
57226SOL     OW73510   5.234   8.935   7.210
57226SOL    HW173511   5.210   8.844   7.227
57226SOL    HW273512   5.156   8.972   7.170
57227SOL     OW73513   4.936   5.266   5.474
57227SOL    HW173514   4.916   5.290   5.565
57227SOL    HW273515   4.989   5.339   5.441
57228SOL     OW73516   5.000  12.845   5.327
57228SOL    HW173517   5.094  12.858   5.338
57228SOL    HW273518   4.963  12.933   5.335
57229SOL     OW73519   3.821   8.270  14.474
57229SOL    HW173520   3.913   8.265  14.497
57229SOL    HW273521   3.789   8.180  14.482
57230SOL     OW73522   5.625   6.963   3.178
57230SOL    HW173523   5.623   7.058   3.166
57230SOL    HW273524   5.675   6.930   3.103
57231SOL     OW73525  11.084   5.015  10.310
57231SOL    HW173526  11.133   5.077  10.365
57231SOL    HW273527  11.007   5.064  10.281
57232SOL     OW73528  13.852   0.712  11.403
57232SOL    HW173529  13.879   0.800  11.430
57232SOL    HW273530  13.855   0.661  11.484
57233SOL     OW73531  11.087   4.596   6.112
57233SOL    HW173532  11.161   4.536   6.107
57233SOL    HW273533  11.121   4.680   6.079
57234SOL     OW73534   9.347   1.430   1.280
57234SOL    HW173535   9.299   1.413   1.198
57234SOL    HW273536   9.379   1.344   1.307
57235SOL     OW73537  12.658  10.731   6.326
57235SOL    HW173538  12.677  10.678   6.248
57235SOL    HW273539  12.565  10.716   6.343
57236SOL     OW73540   0.104   6.846  10.602
57236SOL    HW173541   0.138   6.880  10.520
57236SOL    HW273542   0.038   6.782  10.575
57237SOL     OW73543   7.934  14.263  11.128
57237SOL    HW173544   7.946  14.247  11.034
57237SOL    HW273545   8.015  14.305  11.156
57238SOL     OW73546   4.711   5.758   0.030
57238SOL    HW173547   4.803   5.784   0.027
57238SOL    HW273548   4.663   5.840   0.017
57239SOL     OW73549   7.613  10.681   5.551
57239SOL    HW173550   7.623  10.737   5.475
57239SOL    HW273551   7.639  10.594   5.520
57240SOL     OW73552  10.781   5.907  11.716
57240SOL    HW173553  10.758   5.996  11.741
57240SOL    HW273554  10.731   5.891  11.636
57241SOL     OW73555  10.093   6.343  14.302
57241SOL    HW173556  10.119   6.341  14.210
57241SOL    HW273557  10.114   6.256  14.335
57242SOL     OW73558   2.102   0.887  14.809
57242SOL    HW173559   2.032   0.824  14.826
57242SOL    HW273560   2.064   0.948  14.746
57243SOL     OW73561   1.700  11.492   4.206
57243SOL    HW173562   1.660  11.578   4.196
57243SOL    HW273563   1.732  11.470   4.119
57244SOL     OW73564   9.961   3.426   7.604
57244SOL    HW173565  10.018   3.390   7.671
57244SOL    HW273566   9.892   3.471   7.653
57245SOL     OW73567   8.974  11.386   5.664
57245SOL    HW173568   8.911  11.327   5.622
57245SOL    HW273569   9.057  11.366   5.621
57246SOL     OW73570   4.983   3.164  10.574
57246SOL    HW173571   4.984   3.172  10.670
57246SOL    HW273572   4.937   3.243  10.544
57247SOL     OW73573   3.756   9.875   6.468
57247SOL    HW173574   3.737   9.792   6.510
57247SOL    HW273575   3.693   9.937   6.506
57248SOL     OW73576   2.024   5.671   2.008
57248SOL    HW173577   2.001   5.759   1.978
57248SOL    HW273578   1.986   5.665   2.096
57249SOL     OW73579   2.605   2.037   3.827
57249SOL    HW173580   2.619   1.996   3.742
57249SOL    HW273581   2.561   1.969   3.879
57250SOL     OW73582   3.345  12.825  12.162
57250SOL    HW173583   3.399  12.834  12.240
57250SOL    HW273584   3.387  12.882  12.097
57251SOL     OW73585   1.188  13.008   3.022
57251SOL    HW173586   1.211  12.921   2.989
57251SOL    HW273587   1.236  13.068   2.965
57252SOL     OW73588   6.211  11.139   0.816
57252SOL    HW173589   6.243  11.227   0.833
57252SOL    HW273590   6.248  11.116   0.730
57253SOL     OW73591   3.533   8.380   4.196
57253SOL    HW173592   3.527   8.463   4.149
57253SOL    HW273593   3.627   8.362   4.202
57254SOL     OW73594   7.304   5.070   5.923
57254SOL    HW173595   7.392   5.071   5.960
57254SOL    HW273596   7.249   5.105   5.994
57255SOL     OW73597   7.541  12.215   8.412
57255SOL    HW173598   7.519  12.257   8.329
57255SOL    HW273599   7.635  12.231   8.422
57256SOL     OW73600   1.576   1.484   5.387
57256SOL    HW173601   1.567   1.419   5.317
57256SOL    HW273602   1.565   1.568   5.343
57257SOL     OW73603   8.078   9.158   9.041
57257SOL    HW173604   8.174   9.154   9.050
57257SOL    HW273605   8.064   9.171   8.948
57258SOL     OW73606   5.750   1.884   4.788
57258SOL    HW173607   5.841   1.914   4.787
57258SOL    HW273608   5.724   1.884   4.696
57259SOL     OW73609   6.370   8.083  11.778
57259SOL    HW173610   6.328   8.137  11.712
57259SOL    HW273611   6.450   8.051  11.735
57260SOL     OW73612   4.680   6.525   3.736
57260SOL    HW173613   4.684   6.614   3.769
57260SOL    HW273614   4.587   6.502   3.739
57261SOL     OW73615   2.406   9.948  11.331
57261SOL    HW173616   2.498   9.932  11.312
57261SOL    HW273617   2.378   9.871  11.381
57262SOL     OW73618   8.613   4.820   4.038
57262SOL    HW173619   8.650   4.872   3.966
57262SOL    HW273620   8.524   4.800   4.010
57263SOL     OW73621   9.978   9.754   4.379
57263SOL    HW173622   9.926   9.827   4.347
57263SOL    HW273623  10.052   9.749   4.317
57264SOL     OW73624   8.867   3.754   2.187
57264SOL    HW173625   8.861   3.745   2.282
57264SOL    HW273626   8.908   3.673   2.158
57265SOL     OW73627   2.449   0.129  10.581
57265SOL    HW173628   2.482   0.211  10.543
57265SOL    HW273629   2.415   0.155  10.667
57266SOL     OW73630   4.602   1.979   1.726
57266SOL    HW173631   4.570   1.992   1.637
57266SOL    HW273632   4.525   1.994   1.781
57267SOL     OW73633  14.262   0.832   8.693
57267SOL    HW173634  14.224   0.750   8.724
57267SOL    HW273635  14.198   0.899   8.716
57268SOL     OW73636  14.787   0.689   0.917
57268SOL    HW173637  14.743   0.605   0.930
57268SOL    HW273638  14.727   0.740   0.863
57269SOL     OW73639   2.604  14.509   0.397
57269SOL    HW173640   2.685  14.458   0.397
57269SOL    HW273641   2.553  14.472   0.470
57270SOL     OW73642   8.643   1.079  14.473
57270SOL    HW173643   8.663   1.144  14.405
57270SOL    HW273644   8.573   1.026  14.436
57271SOL     OW73645   4.503  12.290  13.143
57271SOL    HW173646   4.597  12.296  13.161
57271SOL    HW273647   4.463  12.355  13.200
57272SOL     OW73648  10.916  10.320   2.236
57272SOL    HW173649  10.984  10.284   2.179
57272SOL    HW273650  10.927  10.273   2.319
57273SOL     OW73651  12.271  14.740  12.861
57273SOL    HW173652  12.194  14.777  12.818
57273SOL    HW273653  12.257  14.646  12.858
57274SOL     OW73654   0.126   3.204   3.774
57274SOL    HW173655   0.151   3.244   3.857
57274SOL    HW273656   0.102   3.114   3.796
57275SOL     OW73657   4.651   4.949  13.267
57275SOL    HW173658   4.695   4.865  13.256
57275SOL    HW273659   4.604   4.941  13.350
57276SOL     OW73660   5.189   7.684  10.635
57276SOL    HW173661   5.229   7.705  10.719
57276SOL    HW273662   5.245   7.727  10.570
57277SOL     OW73663   3.045   1.463   3.615
57277SOL    HW173664   3.081   1.452   3.527
57277SOL    HW273665   2.959   1.504   3.600
57278SOL     OW73666   3.921   4.199   9.286
57278SOL    HW173667   3.934   4.143   9.209
57278SOL    HW273668   3.886   4.140   9.353
57279SOL     OW73669   8.834   5.056   5.693
57279SOL    HW173670   8.909   5.115   5.702
57279SOL    HW273671   8.787   5.064   5.777
57280SOL     OW73672  11.102   3.069   2.670
57280SOL    HW173673  11.044   3.075   2.745
57280SOL    HW273674  11.117   3.160   2.644
57281SOL     OW73675   2.601   9.709   3.391
57281SOL    HW173676   2.572   9.722   3.300
57281SOL    HW273677   2.691   9.744   3.392
57282SOL     OW73678  11.951   6.986  14.050
57282SOL    HW173679  11.895   6.930  14.105
57282SOL    HW273680  12.040   6.956  14.069
57283SOL     OW73681  12.010   6.709   5.619
57283SOL    HW173682  12.023   6.799   5.589
57283SOL    HW273683  12.098   6.677   5.636
57284SOL     OW73684  11.091  12.493   9.021
57284SOL    HW173685  11.019  12.446   8.978
57284SOL    HW273686  11.170  12.459   8.980
57285SOL     OW73687   2.946   0.776   5.421
57285SOL    HW173688   2.933   0.856   5.472
57285SOL    HW273689   2.878   0.717   5.452
57286SOL     OW73690  11.347   3.675  13.600
57286SOL    HW173691  11.434   3.699  13.567
57286SOL    HW273692  11.325   3.594  13.553
57287SOL     OW73693   6.035  14.647  12.925
57287SOL    HW173694   6.080  14.720  12.882
57287SOL    HW273695   5.977  14.612  12.857
57288SOL     OW73696  10.981  12.721  10.601
57288SOL    HW173697  11.036  12.663  10.654
57288SOL    HW273698  10.901  12.733  10.652
57289SOL     OW73699   9.206   5.381  12.095
57289SOL    HW173700   9.197   5.468  12.055
57289SOL    HW273701   9.201   5.397  12.189
57290SOL     OW73702   5.796  10.260  10.528
57290SOL    HW173703   5.705  10.236  10.517
57290SOL    HW273704   5.804  10.345  10.483
57291SOL     OW73705  13.695   9.925  13.303
57291SOL    HW173706  13.756   9.974  13.248
57291SOL    HW273707  13.740   9.842  13.322
57292SOL     OW73708   6.598   5.175   4.980
57292SOL    HW173709   6.676   5.124   5.001
57292SOL    HW273710   6.620   5.264   5.009
57293SOL     OW73711  10.742   9.450  12.061
57293SOL    HW173712  10.742   9.421  11.970
57293SOL    HW273713  10.695   9.381  12.108
57294SOL     OW73714  11.526   3.820   9.145
57294SOL    HW173715  11.506   3.908   9.114
57294SOL    HW273716  11.440   3.780   9.160
57295SOL     OW73717   5.450   4.575   2.087
57295SOL    HW173718   5.460   4.525   2.168
57295SOL    HW273719   5.356   4.569   2.067
57296SOL     OW73720   6.305   8.112   2.531
57296SOL    HW173721   6.343   8.162   2.459
57296SOL    HW273722   6.216   8.091   2.500
57297SOL     OW73723   7.946   8.399   0.627
57297SOL    HW173724   7.936   8.435   0.539
57297SOL    HW273725   7.959   8.475   0.683
57298SOL     OW73726  10.362   5.796   2.847
57298SOL    HW173727  10.419   5.758   2.781
57298SOL    HW273728  10.414   5.867   2.885
57299SOL     OW73729   7.754   6.241   5.266
57299SOL    HW173730   7.813   6.314   5.248
57299SOL    HW273731   7.807   6.182   5.321
57300SOL     OW73732   4.211   7.009  14.407
57300SOL    HW173733   4.282   6.948  14.426
57300SOL    HW273734   4.174   7.029  14.493
57301SOL     OW73735   4.703   7.239   1.483
57301SOL    HW173736   4.729   7.312   1.539
57301SOL    HW273737   4.633   7.275   1.429
57302SOL     OW73738  10.295   3.564   5.304
57302SOL    HW173739  10.327   3.632   5.245
57302SOL    HW273740  10.248   3.612   5.373
57303SOL     OW73741   0.939   2.464  13.695
57303SOL    HW173742   0.846   2.440  13.698
57303SOL    HW273743   0.975   2.411  13.624
57304SOL     OW73744   4.158   2.398   7.041
57304SOL    HW173745   4.153   2.476   6.985
57304SOL    HW273746   4.222   2.341   6.998
57305SOL     OW73747  12.423   5.844   8.953
57305SOL    HW173748  12.454   5.789   8.881
57305SOL    HW273749  12.343   5.802   8.983
57306SOL     OW73750   7.452  12.222  11.390
57306SOL    HW173751   7.542  12.254  11.392
57306SOL    HW273752   7.408  12.268  11.462
57307SOL     OW73753   7.385  10.117   6.567
57307SOL    HW173754   7.333  10.191   6.534
57307SOL    HW273755   7.415  10.146   6.653
57308SOL     OW73756   6.600   6.446  10.622
57308SOL    HW173757   6.506   6.450  10.606
57308SOL    HW273758   6.633   6.533  10.599
57309SOL     OW73759  10.251   6.850   7.699
57309SOL    HW173760  10.248   6.938   7.736
57309SOL    HW273761  10.301   6.859   7.618
57310SOL     OW73762   8.497   2.838  11.998
57310SOL    HW173763   8.579   2.882  12.017
57310SOL    HW273764   8.466   2.806  12.082
57311SOL     OW73765  14.684   4.941   4.043
57311SOL    HW173766  14.614   4.994   4.083
57311SOL    HW273767  14.700   4.872   4.107
57312SOL     OW73768   7.728   5.818  13.108
57312SOL    HW173769   7.667   5.860  13.048
57312SOL    HW273770   7.802   5.791  13.052
57313SOL     OW73771  10.387  11.030   3.120
57313SOL    HW173772  10.421  11.111   3.083
57313SOL    HW273773  10.425  11.026   3.208
57314SOL     OW73774   0.793   4.004   7.968
57314SOL    HW173775   0.760   3.986   8.056
57314SOL    HW273776   0.806   3.918   7.929
57315SOL     OW73777  12.269  11.281   8.222
57315SOL    HW173778  12.225  11.262   8.305
57315SOL    HW273779  12.251  11.204   8.168
57316SOL     OW73780   0.042  10.718   4.911
57316SOL    HW173781  14.855  10.778   4.875
57316SOL    HW273782   0.106  10.776   4.952
57317SOL     OW73783  12.440   8.408   0.195
57317SOL    HW173784  12.503   8.461   0.146
57317SOL    HW273785  12.355   8.437   0.163
57318SOL     OW73786  14.826   9.015   4.821
57318SOL    HW173787  14.874   9.026   4.739
57318SOL    HW273788  14.767   8.941   4.803
57319SOL     OW73789   3.998   6.055   4.249
57319SOL    HW173790   3.993   5.996   4.174
57319SOL    HW273791   4.051   6.008   4.313
57320SOL     OW73792   6.242   0.834  10.300
57320SOL    HW173793   6.265   0.795  10.384
57320SOL    HW273794   6.246   0.928  10.315
57321SOL     OW73795   3.306   4.199  11.542
57321SOL    HW173796   3.240   4.190  11.474
57321SOL    HW273797   3.379   4.144  11.511
57322SOL     OW73798   9.531   5.469   0.613
57322SOL    HW173799   9.580   5.404   0.563
57322SOL    HW273800   9.590   5.544   0.618
57323SOL     OW73801   6.228   1.370   2.406
57323SOL    HW173802   6.217   1.412   2.321
57323SOL    HW273803   6.182   1.427   2.468
57324SOL     OW73804  10.726   0.852  13.145
57324SOL    HW173805  10.668   0.777  13.158
57324SOL    HW273806  10.758   0.873  13.233
57325SOL     OW73807  10.774   5.703   7.562
57325SOL    HW173808  10.742   5.766   7.496
57325SOL    HW273809  10.865   5.688   7.537
57326SOL     OW73810  14.532   2.796   0.318
57326SOL    HW173811  14.528   2.845   0.400
57326SOL    HW273812  14.542   2.863   0.250
57327SOL     OW73813   5.372   9.850  11.995
57327SOL    HW173814   5.307   9.782  11.978
57327SOL    HW273815   5.326   9.932  11.977
57328SOL     OW73816  12.402   1.414  13.415
57328SOL    HW173817  12.448   1.488  13.456
57328SOL    HW273818  12.433   1.413  13.325
57329SOL     OW73819   1.292   9.078   1.828
57329SOL    HW173820   1.211   9.048   1.786
57329SOL    HW273821   1.304   9.018   1.902
57330SOL     OW73822   8.699   3.209   5.588
57330SOL    HW173823   8.691   3.264   5.666
57330SOL    HW273824   8.624   3.233   5.534
57331SOL     OW73825  10.620   4.687   7.080
57331SOL    HW173826  10.576   4.602   7.084
57331SOL    HW273827  10.549   4.750   7.066
57332SOL     OW73828   2.043   6.524   2.719
57332SOL    HW173829   2.052   6.612   2.757
57332SOL    HW273830   2.105   6.470   2.769
57333SOL     OW73831  11.036   5.357   4.639
57333SOL    HW173832  11.023   5.288   4.574
57333SOL    HW273833  10.957   5.411   4.632
57334SOL     OW73834  10.481   6.443   7.973
57334SOL    HW173835  10.458   6.434   7.880
57334SOL    HW273836  10.560   6.496   7.973
57335SOL     OW73837  13.019   3.970   3.183
57335SOL    HW173838  12.988   3.972   3.274
57335SOL    HW273839  13.112   3.951   3.190
57336SOL     OW73840   6.814   7.510  10.370
57336SOL    HW173841   6.846   7.581  10.314
57336SOL    HW273842   6.765   7.453  10.311
57337SOL     OW73843   1.077   0.079   7.029
57337SOL    HW173844   1.032   0.017   7.087
57337SOL    HW273845   1.095   0.029   6.949
57338SOL     OW73846   7.936   7.493   6.838
57338SOL    HW173847   7.934   7.555   6.765
57338SOL    HW273848   7.993   7.535   6.903
57339SOL     OW73849  14.742   6.973  10.830
57339SOL    HW173850  14.825   6.925  10.832
57339SOL    HW273851  14.754   7.038  10.760
57340SOL     OW73852   0.883   3.838   8.814
57340SOL    HW173853   0.927   3.821   8.897
57340SOL    HW273854   0.891   3.933   8.802
57341SOL     OW73855   3.675   5.342  12.388
57341SOL    HW173856   3.723   5.353  12.471
57341SOL    HW273857   3.627   5.424  12.377
57342SOL     OW73858   5.639   2.032  10.062
57342SOL    HW173859   5.574   1.973  10.025
57342SOL    HW273860   5.600   2.063  10.144
57343SOL     OW73861  12.514  10.133   3.753
57343SOL    HW173862  12.432  10.118   3.801
57343SOL    HW273863  12.571  10.176   3.817
57344SOL     OW73864   0.972   5.355   3.116
57344SOL    HW173865   0.911   5.389   3.182
57344SOL    HW273866   1.036   5.305   3.166
57345SOL     OW73867   0.305  10.706  12.585
57345SOL    HW173868   0.379  10.756  12.551
57345SOL    HW273869   0.274  10.654  12.510
57346SOL     OW73870   9.329   9.244  12.682
57346SOL    HW173871   9.391   9.188  12.636
57346SOL    HW273872   9.376   9.327  12.693
57347SOL     OW73873  13.583  14.189   8.235
57347SOL    HW173874  13.579  14.172   8.141
57347SOL    HW273875  13.677  14.198   8.254
57348SOL     OW73876   9.314   3.531   5.955
57348SOL    HW173877   9.224   3.542   5.926
57348SOL    HW273878   9.365   3.584   5.893
57349SOL     OW73879   1.730  12.673   1.762
57349SOL    HW173880   1.718  12.690   1.668
57349SOL    HW273881   1.766  12.754   1.797
57350SOL     OW73882   6.452   0.689   5.526
57350SOL    HW173883   6.470   0.629   5.453
57350SOL    HW273884   6.357   0.683   5.540
57351SOL     OW73885   5.802  12.422  10.104
57351SOL    HW173886   5.877  12.374  10.139
57351SOL    HW273887   5.728  12.361  10.113
57352SOL     OW73888   5.718   0.747   5.237
57352SOL    HW173889   5.629   0.755   5.272
57352SOL    HW273890   5.774   0.777   5.308
57353SOL     OW73891   1.570  11.251   0.524
57353SOL    HW173892   1.560  11.307   0.446
57353SOL    HW273893   1.664  11.245   0.537
57354SOL     OW73894   6.634   6.698   0.560
57354SOL    HW173895   6.579   6.680   0.484
57354SOL    HW273896   6.721   6.716   0.524
57355SOL     OW73897   9.453   0.311   0.974
57355SOL    HW173898   9.381   0.353   0.927
57355SOL    HW273899   9.531   0.340   0.929
57356SOL     OW73900  11.258   5.282  10.850
57356SOL    HW173901  11.298   5.231  10.779
57356SOL    HW273902  11.228   5.217  10.913
57357SOL     OW73903  12.334   0.683  14.715
57357SOL    HW173904  12.377   0.766  14.735
57357SOL    HW273905  12.344   0.631  14.795
57358SOL     OW73906   4.451  13.074   2.712
57358SOL    HW173907   4.499  13.090   2.630
57358SOL    HW273908   4.514  13.028   2.768
57359SOL     OW73909   1.153  14.206   3.790
57359SOL    HW173910   1.153  14.285   3.844
57359SOL    HW273911   1.245  14.191   3.769
57360SOL     OW73912   5.770   6.205   0.605
57360SOL    HW173913   5.841   6.243   0.552
57360SOL    HW273914   5.767   6.258   0.684
57361SOL     OW73915   8.522  11.137   7.913
57361SOL    HW173916   8.450  11.184   7.870
57361SOL    HW273917   8.507  11.045   7.891
57362SOL     OW73918  13.493  12.050  11.223
57362SOL    HW173919  13.448  12.049  11.139
57362SOL    HW273920  13.483  11.961  11.258
57363SOL     OW73921  11.961   5.697  11.357
57363SOL    HW173922  11.942   5.712  11.450
57363SOL    HW273923  11.875   5.696  11.315
57364SOL     OW73924  12.890  12.931  10.431
57364SOL    HW173925  12.980  12.899  10.419
57364SOL    HW273926  12.855  12.940  10.343
57365SOL     OW73927  10.962   3.382   2.427
57365SOL    HW173928  10.951   3.471   2.393
57365SOL    HW273929  11.034   3.390   2.490
57366SOL     OW73930   5.065   2.180   6.357
57366SOL    HW173931   5.083   2.087   6.343
57366SOL    HW273932   5.146   2.215   6.395
57367SOL     OW73933  10.560  11.640   4.254
57367SOL    HW173934  10.599  11.576   4.314
57367SOL    HW273935  10.508  11.587   4.193
57368SOL     OW73936   1.582  14.219   3.961
57368SOL    HW173937   1.525  14.175   4.023
57368SOL    HW273938   1.611  14.298   4.006
57369SOL     OW73939  10.675   8.317  10.964
57369SOL    HW173940  10.601   8.352  10.913
57369SOL    HW273941  10.685   8.378  11.037
57370SOL     OW73942  14.421   9.678   0.888
57370SOL    HW173943  14.462   9.665   0.974
57370SOL    HW273944  14.438   9.770   0.867
57371SOL     OW73945   5.476  14.541   1.275
57371SOL    HW173946   5.386  14.573   1.260
57371SOL    HW273947   5.501  14.501   1.192
57372SOL     OW73948   2.468   2.183   6.594
57372SOL    HW173949   2.516   2.261   6.623
57372SOL    HW273950   2.526   2.110   6.614
57373SOL     OW73951   2.039   8.561  10.085
57373SOL    HW173952   2.036   8.596  10.174
57373SOL    HW273953   1.965   8.500  10.082
57374SOL     OW73954   9.755   8.349  10.768
57374SOL    HW173955   9.760   8.365  10.862
57374SOL    HW273956   9.717   8.262  10.760
57375SOL     OW73957   6.453  13.114  12.905
57375SOL    HW173958   6.383  13.049  12.899
57375SOL    HW273959   6.513  13.077  12.970
57376SOL     OW73960  12.105  14.422  10.686
57376SOL    HW173961  12.086  14.426  10.780
57376SOL    HW273962  12.149  14.338  10.674
57377SOL     OW73963   6.262  11.381  10.345
57377SOL    HW173964   6.190  11.325  10.315
57377SOL    HW273965   6.222  11.437  10.412
57378SOL     OW73966   3.079   5.571   8.963
57378SOL    HW173967   3.150   5.512   8.935
57378SOL    HW273968   3.060   5.544   9.053
57379SOL     OW73969   4.255   8.896   0.890
57379SOL    HW173970   4.350   8.890   0.894
57379SOL    HW273971   4.231   8.958   0.958
57380SOL     OW73972  12.632  11.091  12.748
57380SOL    HW173973  12.580  11.014  12.724
57380SOL    HW273974  12.669  11.069  12.834
57381SOL     OW73975   6.075  11.495   2.909
57381SOL    HW173976   6.168  11.511   2.921
57381SOL    HW273977   6.042  11.473   2.996
57382SOL     OW73978   4.540  13.716   8.741
57382SOL    HW173979   4.520  13.697   8.833
57382SOL    HW273980   4.636  13.714   8.737
57383SOL     OW73981   3.993   8.107   8.910
57383SOL    HW173982   4.086   8.128   8.913
57383SOL    HW273983   3.986   8.034   8.849
57384SOL     OW73984   3.098   3.632   3.713
57384SOL    HW173985   3.149   3.695   3.763
57384SOL    HW273986   3.146   3.550   3.720
57385SOL     OW73987  13.577  11.503  13.223
57385SOL    HW173988  13.624  11.474  13.144
57385SOL    HW273989  13.606  11.443  13.291
57386SOL     OW73990   7.501   7.124   5.585
57386SOL    HW173991   7.535   7.065   5.652
57386SOL    HW273992   7.447   7.069   5.528
57387SOL     OW73993   0.286   6.665   0.218
57387SOL    HW173994   0.224   6.736   0.205
57387SOL    HW273995   0.245   6.608   0.283
57388SOL     OW73996   8.976   0.384   0.986
57388SOL    HW173997   9.004   0.440   0.913
57388SOL    HW273998   9.033   0.308   0.980
57389SOL     OW73999   9.829   8.974   2.054
57389SOL    HW174000   9.918   9.002   2.033
57389SOL    HW274001   9.828   8.969   2.150
57390SOL     OW74002   9.231   9.818   5.014
57390SOL    HW174003   9.137   9.821   4.991
57390SOL    HW274004   9.256   9.910   5.019
57391SOL     OW74005   9.987  14.569   4.525
57391SOL    HW174006   9.983  14.643   4.464
57391SOL    HW274007   9.897  14.557   4.554
57392SOL     OW74008   0.611   7.540  14.058
57392SOL    HW174009   0.579   7.593  13.985
57392SOL    HW274010   0.705   7.557  14.061
57393SOL     OW74011  12.237   9.048   4.020
57393SOL    HW174012  12.202   9.138   4.018
57393SOL    HW274013  12.169   8.997   4.063
57394SOL     OW74014   3.675  10.157  11.667
57394SOL    HW174015   3.659  10.170  11.761
57394SOL    HW274016   3.682  10.246  11.632
57395SOL     OW74017  10.674  10.666   6.665
57395SOL    HW174018  10.704  10.715   6.588
57395SOL    HW274019  10.588  10.632   6.638
57396SOL     OW74020   7.891   7.513   4.498
57396SOL    HW174021   7.857   7.427   4.474
57396SOL    HW274022   7.961   7.531   4.435
57397SOL     OW74023   6.460  12.940  13.813
57397SOL    HW174024   6.483  12.885  13.738
57397SOL    HW274025   6.517  12.910  13.884
57398SOL     OW74026  12.642   2.939   4.228
57398SOL    HW174027  12.709   2.999   4.261
57398SOL    HW274028  12.674   2.852   4.251
57399SOL     OW74029  11.768   0.579   2.414
57399SOL    HW174030  11.844   0.626   2.380
57399SOL    HW274031  11.693   0.636   2.393
57400SOL     OW74032  14.070   3.898   2.337
57400SOL    HW174033  14.124   3.965   2.295
57400SOL    HW274034  14.090   3.906   2.430
57401SOL     OW74035  11.938  10.182   8.001
57401SOL    HW174036  11.866  10.229   8.041
57401SOL    HW274037  11.963  10.116   8.065
57402SOL     OW74038  13.852   5.437   9.065
57402SOL    HW174039  13.779   5.481   9.022
57402SOL    HW274040  13.918   5.427   8.997
57403SOL     OW74041   7.233  14.330  12.689
57403SOL    HW174042   7.245  14.266  12.618
57403SOL    HW274043   7.141  14.355  12.684
57404SOL     OW74044   2.624   2.976   1.635
57404SOL    HW174045   2.695   3.013   1.582
57404SOL    HW274046   2.662   2.897   1.674
57405SOL     OW74047   7.264  13.447   4.809
57405SOL    HW174048   7.269  13.494   4.725
57405SOL    HW274049   7.281  13.513   4.875
57406SOL     OW74050   3.517   8.732   9.562
57406SOL    HW174051   3.522   8.637   9.553
57406SOL    HW274052   3.426   8.754   9.543
57407SOL     OW74053  12.880   1.211  12.120
57407SOL    HW174054  12.860   1.262  12.041
57407SOL    HW274055  12.816   1.241  12.184
57408SOL     OW74056  13.512   0.533   0.323
57408SOL    HW174057  13.582   0.482   0.282
57408SOL    HW274058  13.544   0.548   0.413
57409SOL     OW74059   8.422  10.251   2.843
57409SOL    HW174060   8.394  10.164   2.813
57409SOL    HW274061   8.471  10.233   2.923
57410SOL     OW74062  12.244   8.310  12.323
57410SOL    HW174063  12.278   8.399  12.334
57410SOL    HW274064  12.257   8.291  12.230
57411SOL     OW74065   2.638   6.681   7.562
57411SOL    HW174066   2.686   6.752   7.519
57411SOL    HW274067   2.706   6.631   7.608
57412SOL     OW74068   6.790   1.987   9.615
57412SOL    HW174069   6.875   1.944   9.623
57412SOL    HW274070   6.805   2.076   9.646
57413SOL     OW74071   8.702   8.836   1.312
57413SOL    HW174072   8.726   8.753   1.352
57413SOL    HW274073   8.662   8.887   1.383
57414SOL     OW74074   0.575   3.321  13.697
57414SOL    HW174075   0.569   3.417  13.704
57414SOL    HW274076   0.666   3.302  13.722
57415SOL     OW74077  10.970   0.384   6.685
57415SOL    HW174078  10.954   0.295   6.716
57415SOL    HW274079  10.896   0.402   6.627
57416SOL     OW74080   2.217  10.604   7.129
57416SOL    HW174081   2.193  10.635   7.216
57416SOL    HW274082   2.308  10.630   7.117
57417SOL     OW74083   2.103   3.881   9.977
57417SOL    HW174084   2.053   3.898   9.897
57417SOL    HW274085   2.123   3.788   9.974
57418SOL     OW74086   8.036   1.862   1.713
57418SOL    HW174087   7.985   1.925   1.662
57418SOL    HW274088   7.988   1.854   1.796
57419SOL     OW74089   0.340   3.324  14.570
57419SOL    HW174090   0.276   3.333  14.501
57419SOL    HW274091   0.354   3.229  14.579
57420SOL     OW74092   4.784   7.432   2.118
57420SOL    HW174093   4.732   7.361   2.080
57420SOL    HW274094   4.741   7.452   2.201
57421SOL     OW74095   2.675   4.270  12.413
57421SOL    HW174096   2.704   4.204  12.477
57421SOL    HW274097   2.599   4.311  12.454
57422SOL     OW74098  12.635  13.487   2.868
57422SOL    HW174099  12.659  13.520   2.955
57422SOL    HW274100  12.539  13.491   2.867
57423SOL     OW74101   4.829   1.527   2.383
57423SOL    HW174102   4.752   1.577   2.356
57423SOL    HW274103   4.795   1.460   2.442
57424SOL     OW74104  12.845   9.039  10.216
57424SOL    HW174105  12.875   8.948  10.228
57424SOL    HW274106  12.923   9.092  10.233
57425SOL     OW74107   1.129  14.075   8.197
57425SOL    HW174108   1.038  14.099   8.181
57425SOL    HW274109   1.163  14.049   8.112
57426SOL     OW74110  12.618   3.576   0.902
57426SOL    HW174111  12.692   3.517   0.885
57426SOL    HW274112  12.611   3.629   0.823
57427SOL     OW74113   3.792   8.780   1.765
57427SOL    HW174114   3.718   8.768   1.707
57427SOL    HW274115   3.856   8.828   1.713
57428SOL     OW74116  13.869  12.901   2.845
57428SOL    HW174117  13.798  12.899   2.781
57428SOL    HW274118  13.916  12.982   2.827
57429SOL     OW74119   6.958  11.847   0.372
57429SOL    HW174120   6.939  11.766   0.325
57429SOL    HW274121   7.034  11.827   0.426
57430SOL     OW74122  10.373   6.579   9.220
57430SOL    HW174123  10.458   6.614   9.196
57430SOL    HW274124  10.313   6.653   9.213
57431SOL     OW74125   3.930   5.368   2.508
57431SOL    HW174126   3.848   5.363   2.459
57431SOL    HW274127   3.982   5.295   2.474
57432SOL     OW74128   5.049   3.383   5.585
57432SOL    HW174129   5.080   3.348   5.668
57432SOL    HW274130   5.017   3.306   5.537
57433SOL     OW74131   5.853   1.756  12.694
57433SOL    HW174132   5.883   1.804  12.617
57433SOL    HW274133   5.839   1.666  12.662
57434SOL     OW74134   9.673   4.907  14.786
57434SOL    HW174135   9.609   4.939  14.850
57434SOL    HW274136   9.732   4.852  14.838
57435SOL     OW74137   7.259   6.233   4.205
57435SOL    HW174138   7.307   6.150   4.197
57435SOL    HW274139   7.170   6.206   4.225
57436SOL     OW74140   5.163   8.145  11.632
57436SOL    HW174141   5.249   8.125  11.594
57436SOL    HW274142   5.146   8.236  11.608
57437SOL     OW74143  11.324   9.767   0.755
57437SOL    HW174144  11.324   9.843   0.697
57437SOL    HW274145  11.366   9.698   0.704
57438SOL     OW74146   2.834  13.125   1.808
57438SOL    HW174147   2.924  13.094   1.794
57438SOL    HW274148   2.808  13.087   1.891
57439SOL     OW74149   1.020   4.839  11.673
57439SOL    HW174150   0.933   4.869  11.646
57439SOL    HW274151   1.023   4.856  11.767
57440SOL     OW74152   6.932  13.277  12.734
57440SOL    HW174153   6.967  13.210  12.674
57440SOL    HW274154   6.895  13.343  12.676
57441SOL     OW74155   4.453   3.682   0.486
57441SOL    HW174156   4.539   3.719   0.465
57441SOL    HW274157   4.400   3.698   0.409
57442SOL     OW74158   1.030  11.697  13.474
57442SOL    HW174159   0.948  11.703  13.523
57442SOL    HW274160   1.043  11.784  13.438
57443SOL     OW74161   9.568   6.723  10.405
57443SOL    HW174162   9.506   6.793  10.425
57443SOL    HW274163   9.519   6.661  10.351
57444SOL     OW74164   5.187   6.686   0.642
57444SOL    HW174165   5.186   6.636   0.560
57444SOL    HW274166   5.280   6.703   0.658
57445SOL     OW74167   8.877   0.816   1.510
57445SOL    HW174168   8.803   0.876   1.499
57445SOL    HW274169   8.923   0.848   1.588
57446SOL     OW74170   5.378   4.773  14.474
57446SOL    HW174171   5.325   4.694  14.468
57446SOL    HW274172   5.317   4.841  14.502
57447SOL     OW74173  14.183  11.347  13.794
57447SOL    HW174174  14.160  11.257  13.818
57447SOL    HW274175  14.201  11.343  13.700
57448SOL     OW74176   3.600  14.516   2.337
57448SOL    HW174177   3.694  14.519   2.320
57448SOL    HW274178   3.585  14.429   2.374
57449SOL     OW74179   5.764  14.001   7.402
57449SOL    HW174180   5.828  14.059   7.443
57449SOL    HW274181   5.719  14.056   7.339
57450SOL     OW74182   7.098  12.559   0.533
57450SOL    HW174183   7.051  12.632   0.494
57450SOL    HW274184   7.165  12.536   0.468
57451SOL     OW74185  10.911   9.575   4.753
57451SOL    HW174186  10.976   9.518   4.794
57451SOL    HW274187  10.960   9.652   4.724
57452SOL     OW74188  12.875  10.522   7.435
57452SOL    HW174189  12.779  10.520   7.442
57452SOL    HW274190  12.894  10.465   7.360
57453SOL     OW74191   5.815  12.643  11.745
57453SOL    HW174192   5.843  12.645  11.653
57453SOL    HW274193   5.825  12.733  11.775
57454SOL     OW74194   1.627   3.540  10.764
57454SOL    HW174195   1.668   3.497  10.688
57454SOL    HW274196   1.653   3.632  10.756
57455SOL     OW74197   7.602  11.965  13.083
57455SOL    HW174198   7.562  12.051  13.086
57455SOL    HW274199   7.695  11.980  13.103
57456SOL     OW74200   4.585   3.223  10.293
57456SOL    HW174201   4.550   3.147  10.246
57456SOL    HW274202   4.599   3.192  10.382
57457SOL     OW74203   0.492   4.347   0.570
57457SOL    HW174204   0.579   4.367   0.534
57457SOL    HW274205   0.449   4.432   0.578
57458SOL     OW74206  14.491   6.717  14.094
57458SOL    HW174207  14.485   6.622  14.081
57458SOL    HW274208  14.473   6.754  14.008
57459SOL     OW74209   8.741   2.545   5.289
57459SOL    HW174210   8.826   2.590   5.284
57459SOL    HW274211   8.764   2.453   5.307
57460SOL     OW74212  11.905  10.431   1.418
57460SOL    HW174213  11.927  10.518   1.385
57460SOL    HW274214  11.906  10.440   1.513
57461SOL     OW74215   0.345  11.123   7.397
57461SOL    HW174216   0.385  11.204   7.366
57461SOL    HW274217   0.350  11.129   7.492
57462SOL     OW74218  12.471  10.377  11.483
57462SOL    HW174219  12.505  10.301  11.434
57462SOL    HW274220  12.526  10.380  11.561
57463SOL     OW74221  13.749  11.806  10.602
57463SOL    HW174222  13.829  11.857  10.589
57463SOL    HW274223  13.680  11.872  10.607
57464SOL     OW74224   3.965   9.039   3.321
57464SOL    HW174225   4.034   8.997   3.270
57464SOL    HW274226   3.889   9.038   3.263
57465SOL     OW74227   8.531   1.055  11.527
57465SOL    HW174228   8.563   1.109  11.600
57465SOL    HW274229   8.498   0.976  11.569
57466SOL     OW74230   2.559   0.923  11.776
57466SOL    HW174231   2.585   0.911  11.684
57466SOL    HW274232   2.466   0.945  11.772
57467SOL     OW74233   3.270  10.243   1.987
57467SOL    HW174234   3.242  10.334   1.987
57467SOL    HW274235   3.342  10.241   1.924
57468SOL     OW74236   5.913  10.517  14.588
57468SOL    HW174237   5.823  10.488  14.602
57468SOL    HW274238   5.965  10.463  14.648
57469SOL     OW74239   1.957   4.621   0.729
57469SOL    HW174240   1.919   4.695   0.682
57469SOL    HW274241   2.051   4.638   0.729
57470SOL     OW74242   0.454   8.946  11.731
57470SOL    HW174243   0.526   8.935  11.794
57470SOL    HW274244   0.496   8.980  11.652
57471SOL     OW74245  10.205  10.525  14.049
57471SOL    HW174246  10.198  10.434  14.080
57471SOL    HW274247  10.125  10.568  14.081
57472SOL     OW74248   1.529   6.790   3.614
57472SOL    HW174249   1.498   6.838   3.537
57472SOL    HW274250   1.475   6.711   3.616
57473SOL     OW74251   5.440  14.720  12.816
57473SOL    HW174252   5.366  14.694  12.871
57473SOL    HW274253   5.412  14.700  12.727
57474SOL     OW74254   4.064  12.192  11.869
57474SOL    HW174255   4.103  12.181  11.955
57474SOL    HW274256   4.069  12.105  11.829
57475SOL     OW74257  10.541   9.815  10.527
57475SOL    HW174258  10.451   9.782  10.524
57475SOL    HW274259  10.595   9.737  10.543
57476SOL     OW74260   2.575   4.999   6.833
57476SOL    HW174261   2.566   5.049   6.915
57476SOL    HW274262   2.635   4.928   6.855
57477SOL     OW74263  12.867   7.437   0.258
57477SOL    HW174264  12.865   7.532   0.247
57477SOL    HW274265  12.850   7.423   0.351
57478SOL     OW74266   8.288   4.587   8.845
57478SOL    HW174267   8.284   4.673   8.803
57478SOL    HW274268   8.376   4.555   8.826
57479SOL     OW74269  14.200   8.653  14.737
57479SOL    HW174270  14.164   8.626  14.822
57479SOL    HW274271  14.292   8.670  14.754
57480SOL     OW74272  14.725  14.632  13.695
57480SOL    HW174273  14.763  14.545  13.688
57480SOL    HW274274  14.641  14.625  13.650
57481SOL     OW74275   4.641   2.170  13.002
57481SOL    HW174276   4.595   2.187  12.920
57481SOL    HW274277   4.638   2.075  13.013
57482SOL     OW74278  13.155   8.728  13.108
57482SOL    HW174279  13.102   8.648  13.102
57482SOL    HW274280  13.244   8.696  13.119
57483SOL     OW74281   3.155   8.132   5.386
57483SOL    HW174282   3.188   8.092   5.467
57483SOL    HW274283   3.091   8.197   5.416
57484SOL     OW74284   9.817   2.987   7.180
57484SOL    HW174285   9.804   3.069   7.132
57484SOL    HW274286   9.842   3.014   7.268
57485SOL     OW74287   0.956   9.165   2.453
57485SOL    HW174288   0.930   9.222   2.524
57485SOL    HW274289   0.878   9.114   2.433
57486SOL     OW74290  10.862   5.691   0.891
57486SOL    HW174291  10.815   5.774   0.898
57486SOL    HW274292  10.953   5.716   0.880
57487SOL     OW74293   2.245   2.539   5.615
57487SOL    HW174294   2.189   2.464   5.595
57487SOL    HW274295   2.198   2.614   5.580
57488SOL     OW74296  10.031   8.375   8.799
57488SOL    HW174297   9.992   8.373   8.712
57488SOL    HW274298  10.124   8.356   8.784
57489SOL     OW74299   0.816   3.348  10.340
57489SOL    HW174300   0.768   3.276  10.298
57489SOL    HW274301   0.785   3.427  10.295
57490SOL     OW74302   8.693   5.175  13.794
57490SOL    HW174303   8.682   5.240  13.724
57490SOL    HW274304   8.773   5.202  13.839
57491SOL     OW74305  10.943   3.300   0.843
57491SOL    HW174306  10.984   3.378   0.806
57491SOL    HW274307  11.000   3.276   0.916
57492SOL     OW74308   0.208   5.249   7.260
57492SOL    HW174309   0.221   5.228   7.352
57492SOL    HW274310   0.133   5.196   7.233
57493SOL     OW74311   2.345   1.205  13.466
57493SOL    HW174312   2.438   1.191  13.449
57493SOL    HW274313   2.330   1.166  13.552
57494SOL     OW74314   0.780   6.213  14.782
57494SOL    HW174315   0.832   6.286  14.749
57494SOL    HW274316   0.700   6.254  14.814
57495SOL     OW74317  10.198   4.054   5.556
57495SOL    HW174318  10.196   4.011   5.470
57495SOL    HW274319  10.121   4.111   5.556
57496SOL     OW74320   9.626   1.512  13.099
57496SOL    HW174321   9.674   1.574  13.044
57496SOL    HW274322   9.559   1.564  13.142
57497SOL     OW74323   0.702   6.540  10.250
57497SOL    HW174324   0.636   6.504  10.308
57497SOL    HW274325   0.669   6.627  10.226
57498SOL     OW74326  13.990  14.193  10.861
57498SOL    HW174327  13.926  14.149  10.917
57498SOL    HW274328  14.067  14.136  10.864
57499SOL     OW74329  14.107   2.519  12.101
57499SOL    HW174330  14.191   2.473  12.094
57499SOL    HW274331  14.047   2.455  12.139
57500SOL     OW74332  10.769  13.854   1.217
57500SOL    HW174333  10.834  13.818   1.156
57500SOL    HW274334  10.689  13.806   1.196
57501SOL     OW74335   8.306   3.834   7.480
57501SOL    HW174336   8.352   3.889   7.417
57501SOL    HW274337   8.370   3.765   7.502
57502SOL     OW74338   3.164  12.254   6.258
57502SOL    HW174339   3.135  12.330   6.207
57502SOL    HW274340   3.259  12.264   6.264
57503SOL     OW74341  14.777   0.401   9.652
57503SOL    HW174342  14.821   0.478   9.687
57503SOL    HW274343  14.707   0.382   9.715
57504SOL     OW74344  12.412  14.635  10.220
57504SOL    HW174345  12.439  14.548  10.191
57504SOL    HW274346  12.338  14.657  10.165
57505SOL     OW74347   5.614   2.385   8.283
57505SOL    HW174348   5.547   2.389   8.351
57505SOL    HW274349   5.665   2.307   8.304
57506SOL     OW74350   8.077   0.966   5.061
57506SOL    HW174351   8.147   0.929   5.114
57506SOL    HW274352   8.117   0.985   4.977
57507SOL     OW74353   3.571  12.390  14.246
57507SOL    HW174354   3.599  12.379  14.337
57507SOL    HW274355   3.537  12.304  14.221
57508SOL     OW74356  10.638  13.676   8.735
57508SOL    HW174357  10.670  13.589   8.714
57508SOL    HW274358  10.548  13.663   8.765
57509SOL     OW74359   9.892   5.948   7.510
57509SOL    HW174360   9.910   5.856   7.527
57509SOL    HW274361   9.806   5.964   7.549
57510SOL     OW74362  10.446   6.330  14.431
57510SOL    HW174363  10.437   6.407  14.487
57510SOL    HW274364  10.425   6.256  14.487
57511SOL     OW74365   7.450  13.507  14.265
57511SOL    HW174366   7.530  13.472  14.304
57511SOL    HW274367   7.470  13.599  14.247
57512SOL     OW74368   6.728  14.866   7.426
57512SOL    HW174369   6.777   0.061   7.388
57512SOL    HW274370   6.770  14.851   7.511
57513SOL     OW74371   7.964   2.502  14.805
57513SOL    HW174372   8.031   2.492  14.737
57513SOL    HW274373   7.882   2.477  14.761
57514SOL     OW74374  14.786   3.848   5.693
57514SOL    HW174375  14.717   3.910   5.718
57514SOL    HW274376  14.830   3.891   5.619
57515SOL     OW74377  14.878   2.306  10.417
57515SOL    HW174378   0.031   2.303  10.327
57515SOL    HW274379  14.807   2.370  10.416
57516SOL     OW74380   8.986   1.408  11.197
57516SOL    HW174381   9.020   1.470  11.262
57516SOL    HW274382   8.986   1.324  11.242
57517SOL     OW74383  13.069   0.791  10.861
57517SOL    HW174384  13.150   0.822  10.902
57517SOL    HW274385  13.022   0.745  10.931
57518SOL     OW74386   8.966   6.198  12.260
57518SOL    HW174387   9.040   6.142  12.281
57518SOL    HW274388   8.987   6.282  12.301
57519SOL     OW74389   8.599  13.586  11.734
57519SOL    HW174390   8.603  13.623  11.645
57519SOL    HW274391   8.512  13.546  11.739
57520SOL     OW74392  12.079   0.487   3.880
57520SOL    HW174393  12.102   0.428   3.952
57520SOL    HW274394  12.014   0.546   3.918
57521SOL     OW74395   4.781   2.583   4.200
57521SOL    HW174396   4.730   2.601   4.279
57521SOL    HW274397   4.872   2.599   4.226
57522SOL     OW74398   9.305   4.406  10.396
57522SOL    HW174399   9.391   4.444  10.413
57522SOL    HW274400   9.295   4.338  10.463
57523SOL     OW74401  14.581  11.027  13.980
57523SOL    HW174402  14.578  11.024  13.884
57523SOL    HW274403  14.604  11.117  14.001
57524SOL     OW74404   2.424   7.631  10.566
57524SOL    HW174405   2.447   7.540  10.546
57524SOL    HW274406   2.373   7.626  10.647
57525SOL     OW74407  14.002   6.504   8.651
57525SOL    HW174408  14.032   6.585   8.610
57525SOL    HW274409  13.981   6.447   8.578
57526SOL     OW74410  14.091   3.142   1.024
57526SOL    HW174411  14.135   3.197   1.089
57526SOL    HW274412  14.042   3.078   1.075
57527SOL     OW74413   1.960   5.797  10.841
57527SOL    HW174414   1.943   5.784  10.748
57527SOL    HW274415   1.913   5.726  10.884
57528SOL     OW74416   4.474  11.845  13.956
57528SOL    HW174417   4.521  11.904  13.897
57528SOL    HW274418   4.491  11.757  13.921
57529SOL     OW74419   1.822  12.012   2.451
57529SOL    HW174420   1.822  12.087   2.391
57529SOL    HW274421   1.858  12.047   2.533
57530SOL     OW74422   2.017   9.853   7.381
57530SOL    HW174423   1.942   9.794   7.375
57530SOL    HW274424   2.092   9.799   7.357
57531SOL     OW74425   0.939   3.084   2.839
57531SOL    HW174426   0.873   3.132   2.789
57531SOL    HW274427   0.980   3.151   2.894
57532SOL     OW74428   2.244   6.200  14.205
57532SOL    HW174429   2.329   6.166  14.178
57532SOL    HW274430   2.264   6.261  14.275
57533SOL     OW74431   9.175  13.483  12.047
57533SOL    HW174432   9.115  13.430  11.995
57533SOL    HW274433   9.133  13.569  12.052
57534SOL     OW74434   8.112   5.704   2.008
57534SOL    HW174435   8.083   5.739   1.923
57534SOL    HW274436   8.171   5.632   1.985
57535SOL     OW74437   0.845   6.453   9.240
57535SOL    HW174438   0.755   6.459   9.273
57535SOL    HW274439   0.839   6.476   9.148
57536SOL     OW74440  14.878   5.157   3.979
57536SOL    HW174441  14.820   5.085   4.003
57536SOL    HW274442   0.037   5.187   4.062
57537SOL     OW74443   1.326  13.336  10.791
57537SOL    HW174444   1.399  13.274  10.797
57537SOL    HW274445   1.280  13.311  10.711
57538SOL     OW74446   2.217   7.917   7.627
57538SOL    HW174447   2.267   7.928   7.546
57538SOL    HW274448   2.141   7.974   7.615
57539SOL     OW74449   7.144  11.415   8.056
57539SOL    HW174450   7.174  11.327   8.031
57539SOL    HW274451   7.064  11.399   8.106
57540SOL     OW74452   8.992  12.806   9.901
57540SOL    HW174453   9.042  12.766   9.830
57540SOL    HW274454   8.900  12.787   9.879
57541SOL     OW74455   1.299   3.625   0.218
57541SOL    HW174456   1.274   3.601   0.307
57541SOL    HW274457   1.355   3.553   0.189
57542SOL     OW74458  12.858  12.535   1.037
57542SOL    HW174459  12.781  12.538   0.981
57542SOL    HW274460  12.838  12.597   1.108
57543SOL     OW74461   1.200   3.337   0.252
57543SOL    HW174462   1.105   3.341   0.252
57543SOL    HW274463   1.223   3.301   0.337
57544SOL     OW74464   3.541   9.689   9.469
57544SOL    HW174465   3.557   9.783   9.471
57544SOL    HW274466   3.464   9.676   9.525
57545SOL     OW74467   1.875   0.843  10.686
57545SOL    HW174468   1.877   0.938  10.673
57545SOL    HW274469   1.783   0.819  10.676
57546SOL     OW74470  13.741   6.171   8.694
57546SOL    HW174471  13.753   6.076   8.690
57546SOL    HW274472  13.813   6.207   8.643
57547SOL     OW74473  11.447  12.385  14.497
57547SOL    HW174474  11.405  12.447  14.556
57547SOL    HW274475  11.509  12.338  14.553
57548SOL     OW74476  13.067   2.812  11.806
57548SOL    HW174477  13.034   2.725  11.828
57548SOL    HW274478  13.039   2.826  11.715
57549SOL     OW74479   1.898   9.579  11.955
57549SOL    HW174480   1.874   9.672  11.949
57549SOL    HW274481   1.936   9.570  12.042
57550SOL     OW74482  13.550  12.711   3.003
57550SOL    HW174483  13.509  12.752   2.926
57550SOL    HW274484  13.625  12.767   3.022
57551SOL     OW74485  14.867   0.478  10.779
57551SOL    HW174486   0.072   0.477  10.732
57551SOL    HW274487  14.802   0.461  10.711
57552SOL     OW74488   7.126   2.350   1.728
57552SOL    HW174489   7.151   2.290   1.799
57552SOL    HW274490   7.033   2.365   1.741
57553SOL     OW74491   3.261  14.330  13.135
57553SOL    HW174492   3.321  14.261  13.163
57553SOL    HW274493   3.202  14.342  13.209
57554SOL     OW74494   4.053  14.603   4.569
57554SOL    HW174495   4.105  14.684   4.575
57554SOL    HW274496   4.056  14.580   4.476
57555SOL     OW74497  13.179   8.322   0.778
57555SOL    HW174498  13.136   8.237   0.778
57555SOL    HW274499  13.147   8.365   0.857
57556SOL     OW74500  12.943   6.270  10.444
57556SOL    HW174501  13.030   6.259  10.482
57556SOL    HW274502  12.959   6.312  10.360
57557SOL     OW74503   7.452   7.166   3.112
57557SOL    HW174504   7.462   7.248   3.161
57557SOL    HW274505   7.433   7.101   3.179
57558SOL     OW74506   6.140   0.538   6.811
57558SOL    HW174507   6.078   0.522   6.882
57558SOL    HW274508   6.094   0.599   6.753
57559SOL     OW74509   1.543  14.023   6.059
57559SOL    HW174510   1.566  13.937   6.094
57559SOL    HW274511   1.514  14.005   5.970
57560SOL     OW74512  10.999   5.254   4.921
57560SOL    HW174513  11.039   5.283   4.839
57560SOL    HW274514  10.969   5.335   4.963
57561SOL     OW74515  11.450  13.296  11.088
57561SOL    HW174516  11.370  13.282  11.140
57561SOL    HW274517  11.520  13.300  11.152
57562SOL     OW74518  11.090   6.438   4.621
57562SOL    HW174519  11.162   6.459   4.562
57562SOL    HW274520  11.073   6.520   4.668
57563SOL     OW74521   9.328  12.637   7.645
57563SOL    HW174522   9.298  12.558   7.600
57563SOL    HW274523   9.253  12.663   7.699
57564SOL     OW74524  13.956   6.239   4.926
57564SOL    HW174525  13.997   6.229   5.013
57564SOL    HW274526  13.937   6.149   4.899
57565SOL     OW74527  13.541   7.691  14.046
57565SOL    HW174528  13.542   7.785  14.067
57565SOL    HW274529  13.632   7.663  14.056
57566SOL     OW74530   5.405   3.971  14.492
57566SOL    HW174531   5.480   3.929  14.448
57566SOL    HW274532   5.372   3.904  14.552
57567SOL     OW74533   6.762   6.475   1.607
57567SOL    HW174534   6.672   6.485   1.639
57567SOL    HW274535   6.753   6.474   1.512
57568SOL     OW74536  11.298  12.227   7.326
57568SOL    HW174537  11.365  12.168   7.291
57568SOL    HW274538  11.305  12.217   7.421
57569SOL     OW74539  13.552  10.201   8.134
57569SOL    HW174540  13.481  10.152   8.176
57569SOL    HW274541  13.506  10.267   8.081
57570SOL     OW74542   6.248  10.695   8.307
57570SOL    HW174543   6.235  10.741   8.389
57570SOL    HW274544   6.177  10.631   8.303
57571SOL     OW74545   9.084  12.260   7.698
57571SOL    HW174546   9.035  12.216   7.629
57571SOL    HW274547   9.146  12.316   7.652
57572SOL     OW74548  11.682   6.318   1.818
57572SOL    HW174549  11.748   6.378   1.851
57572SOL    HW274550  11.621   6.373   1.770
57573SOL     OW74551   2.723   3.663  14.639
57573SOL    HW174552   2.658   3.602  14.603
57573SOL    HW274553   2.704   3.746  14.596
57574SOL     OW74554   6.847   6.138   8.032
57574SOL    HW174555   6.848   6.053   7.989
57574SOL    HW274556   6.883   6.121   8.119
57575SOL     OW74557  13.422   5.859   3.773
57575SOL    HW174558  13.477   5.876   3.850
57575SOL    HW274559  13.482   5.866   3.699
57576SOL     OW74560   5.289   5.488   8.642
57576SOL    HW174561   5.347   5.563   8.628
57576SOL    HW274562   5.243   5.479   8.559
57577SOL     OW74563   3.934   3.952  10.784
57577SOL    HW174564   3.938   3.922  10.693
57577SOL    HW274565   3.858   3.906  10.821
57578SOL     OW74566   6.164  12.663   7.518
57578SOL    HW174567   6.234  12.721   7.547
57578SOL    HW274568   6.157  12.680   7.424
57579SOL     OW74569  11.807   6.306   0.630
57579SOL    HW174570  11.774   6.369   0.694
57579SOL    HW274571  11.839   6.361   0.557
57580SOL     OW74572   6.037  11.837   8.518
57580SOL    HW174573   5.985  11.874   8.447
57580SOL    HW274574   6.127  11.839   8.485
57581SOL     OW74575   1.677   3.770  12.661
57581SOL    HW174576   1.707   3.834  12.725
57581SOL    HW274577   1.681   3.686  12.707
57582SOL     OW74578   3.905   7.233   9.075
57582SOL    HW174579   3.917   7.326   9.095
57582SOL    HW274580   3.978   7.211   9.017
57583SOL     OW74581  13.671   2.183  12.719
57583SOL    HW174582  13.753   2.188  12.670
57583SOL    HW274583  13.697   2.197  12.811
57584SOL     OW74584   5.308  11.530   8.966
57584SOL    HW174585   5.280  11.590   9.036
57584SOL    HW274586   5.243  11.460   8.967
57585SOL     OW74587   8.388   9.436  10.287
57585SOL    HW174588   8.336   9.473  10.359
57585SOL    HW274589   8.478   9.456  10.310
57586SOL     OW74590   3.309   7.973   0.843
57586SOL    HW174591   3.362   8.046   0.812
57586SOL    HW274592   3.243   7.961   0.775
57587SOL     OW74593   9.768  11.227   4.920
57587SOL    HW174594   9.696  11.257   4.865
57587SOL    HW274595   9.764  11.282   4.998
57588SOL     OW74596   9.322   5.899   0.571
57588SOL    HW174597   9.280   5.960   0.631
57588SOL    HW274598   9.413   5.894   0.603
57589SOL     OW74599   3.276   7.308  12.462
57589SOL    HW174600   3.270   7.216  12.436
57589SOL    HW274601   3.192   7.327  12.504
57590SOL     OW74602  10.013   1.596   6.772
57590SOL    HW174603  10.075   1.660   6.736
57590SOL    HW274604   9.936   1.604   6.716
57591SOL     OW74605  13.720   6.398  10.215
57591SOL    HW174606  13.770   6.387  10.134
57591SOL    HW274607  13.738   6.488  10.242
57592SOL     OW74608   4.339   5.959   1.305
57592SOL    HW174609   4.324   5.873   1.345
57592SOL    HW274610   4.318   5.947   1.212
57593SOL     OW74611   8.356  10.070   0.301
57593SOL    HW174612   8.309  10.145   0.336
57593SOL    HW274613   8.447  10.083   0.328
57594SOL     OW74614  12.950  11.728  11.388
57594SOL    HW174615  12.964  11.811  11.433
57594SOL    HW274616  12.958  11.662  11.457
57595SOL     OW74617   9.813   9.529   4.330
57595SOL    HW174618   9.871   9.599   4.362
57595SOL    HW274619   9.824   9.531   4.235
57596SOL     OW74620   2.566   8.658   4.957
57596SOL    HW174621   2.486   8.707   4.972
57596SOL    HW274622   2.602   8.695   4.876
57597SOL     OW74623  11.707   5.716   0.155
57597SOL    HW174624  11.709   5.670   0.239
57597SOL    HW274625  11.751   5.799   0.172
57598SOL     OW74626   2.754  11.892   1.630
57598SOL    HW174627   2.752  11.909   1.724
57598SOL    HW274628   2.822  11.826   1.618
57599SOL     OW74629   1.068  10.760   4.286
57599SOL    HW174630   1.106  10.845   4.309
57599SOL    HW274631   1.056  10.763   4.191
57600SOL     OW74632   1.636   9.864   8.087
57600SOL    HW174633   1.634   9.912   8.170
57600SOL    HW274634   1.560   9.897   8.039
57601SOL     OW74635   1.225  13.506   2.058
57601SOL    HW174636   1.180  13.519   1.974
57601SOL    HW274637   1.306  13.462   2.034
57602SOL     OW74638   2.589   7.532   4.937
57602SOL    HW174639   2.636   7.482   4.871
57602SOL    HW274640   2.654   7.548   5.006
57603SOL     OW74641  12.768   4.138   2.862
57603SOL    HW174642  12.841   4.174   2.812
57603SOL    HW274643  12.694   4.139   2.800
57604SOL     OW74644   2.448   6.927   1.806
57604SOL    HW174645   2.511   6.927   1.878
57604SOL    HW274646   2.408   6.839   1.809
57605SOL     OW74647   7.188   0.852   3.248
57605SOL    HW174648   7.248   0.777   3.252
57605SOL    HW274649   7.187   0.888   3.336
57606SOL     OW74650  12.335  14.007   5.335
57606SOL    HW174651  12.418  13.970   5.367
57606SOL    HW274652  12.362  14.080   5.279
57607SOL     OW74653  11.367   6.933   6.555
57607SOL    HW174654  11.293   6.878   6.580
57607SOL    HW274655  11.330   6.996   6.493
57608SOL     OW74656   1.474   2.894  11.035
57608SOL    HW174657   1.500   2.832  11.103
57608SOL    HW274658   1.544   2.959  11.034
57609SOL     OW74659  11.743  13.491   5.433
57609SOL    HW174660  11.698  13.525   5.356
57609SOL    HW274661  11.807  13.559   5.455
57610SOL     OW74662  12.748   2.654  10.503
57610SOL    HW174663  12.829   2.658  10.452
57610SOL    HW274664  12.771   2.601  10.580
57611SOL     OW74665   3.617  14.231   0.451
57611SOL    HW174666   3.534  14.239   0.498
57611SOL    HW274667   3.592  14.204   0.363
57612SOL     OW74668  11.709   3.131   6.234
57612SOL    HW174669  11.746   3.169   6.154
57612SOL    HW274670  11.621   3.168   6.239
57613SOL     OW74671  12.374  12.987   0.254
57613SOL    HW174672  12.406  12.903   0.287
57613SOL    HW274673  12.399  12.989   0.162
57614SOL     OW74674   2.089  10.261  14.435
57614SOL    HW174675   2.175  10.280  14.472
57614SOL    HW274676   2.042  10.216  14.505
57615SOL     OW74677  12.500   1.706   8.355
57615SOL    HW174678  12.417   1.751   8.342
57615SOL    HW274679  12.557   1.739   8.285
57616SOL     OW74680  10.615   0.064   3.773
57616SOL    HW174681  10.542   0.053   3.712
57616SOL    HW274682  10.663   0.139   3.738
57617SOL     OW74683   1.367   8.190  10.778
57617SOL    HW174684   1.347   8.200  10.685
57617SOL    HW274685   1.414   8.270  10.801
57618SOL     OW74686   8.177   1.161   3.739
57618SOL    HW174687   8.271   1.152   3.728
57618SOL    HW274688   8.152   1.232   3.680
57619SOL     OW74689   6.926  10.802  11.892
57619SOL    HW174690   6.895  10.720  11.854
57619SOL    HW274691   6.865  10.868  11.859
57620SOL     OW74692   9.609   7.933   7.336
57620SOL    HW174693   9.527   7.969   7.303
57620SOL    HW274694   9.598   7.838   7.330
57621SOL     OW74695  14.160   1.193  13.834
57621SOL    HW174696  14.073   1.222  13.806
57621SOL    HW274697  14.142   1.133  13.907
57622SOL     OW74698   9.985   1.796   3.263
57622SOL    HW174699   9.992   1.843   3.346
57622SOL    HW274700   9.949   1.860   3.202
57623SOL     OW74701  13.672  11.306   9.670
57623SOL    HW174702  13.734  11.238   9.644
57623SOL    HW274703  13.706  11.386   9.630
57624SOL     OW74704   7.993   5.362  13.745
57624SOL    HW174705   7.915   5.411  13.771
57624SOL    HW274706   8.051   5.369  13.821
57625SOL     OW74707   6.174   3.156   5.726
57625SOL    HW174708   6.099   3.193   5.679
57625SOL    HW274709   6.194   3.075   5.680
57626SOL     OW74710   4.613  14.857  11.241
57626SOL    HW174711   4.614  14.846  11.146
57626SOL    HW274712   4.520  14.857  11.264
57627SOL     OW74713   2.441  11.446   2.521
57627SOL    HW174714   2.521  11.399   2.498
57627SOL    HW274715   2.375  11.410   2.462
57628SOL     OW74716   4.489   1.017  10.598
57628SOL    HW174717   4.508   0.928  10.628
57628SOL    HW274718   4.407   1.040  10.642
57629SOL     OW74719   9.983   4.216   4.555
57629SOL    HW174720  10.048   4.161   4.600
57629SOL    HW274721   9.994   4.303   4.594
57630SOL     OW74722   7.973  13.943  13.712
57630SOL    HW174723   8.027  13.902  13.645
57630SOL    HW274724   8.032  14.005  13.755
57631SOL     OW74725  12.087  12.641   6.694
57631SOL    HW174726  12.093  12.708   6.762
57631SOL    HW274727  11.995  12.638   6.671
57632SOL     OW74728   5.574  10.343  12.145
57632SOL    HW174729   5.493  10.395  12.145
57632SOL    HW274730   5.550  10.261  12.186
57633SOL     OW74731  13.017  11.032   3.241
57633SOL    HW174732  12.975  10.971   3.181
57633SOL    HW274733  13.075  11.084   3.185
57634SOL     OW74734   5.979   2.724  12.330
57634SOL    HW174735   6.067   2.733  12.366
57634SOL    HW274736   5.967   2.629  12.320
57635SOL     OW74737   0.741   2.231  13.421
57635SOL    HW174738   0.660   2.269  13.456
57635SOL    HW274739   0.739   2.253  13.327
57636SOL     OW74740  14.502   3.516  10.271
57636SOL    HW174741  14.491   3.611  10.271
57636SOL    HW274742  14.432   3.485  10.213
57637SOL     OW74743  12.213   6.776   7.361
57637SOL    HW174744  12.230   6.686   7.390
57637SOL    HW274745  12.118   6.780   7.349
57638SOL     OW74746   2.913   9.868   6.129
57638SOL    HW174747   2.872   9.810   6.065
57638SOL    HW274748   2.896   9.956   6.096
57639SOL     OW74749   3.645   9.735   8.892
57639SOL    HW174750   3.669   9.643   8.887
57639SOL    HW274751   3.716   9.781   8.846
57640SOL     OW74752   7.583   3.608   3.305
57640SOL    HW174753   7.514   3.673   3.300
57640SOL    HW274754   7.561   3.555   3.381
57641SOL     OW74755   1.456  11.827  13.255
57641SOL    HW174756   1.475  11.777  13.175
57641SOL    HW274757   1.464  11.763  13.326
57642SOL     OW74758   7.513   2.217   0.194
57642SOL    HW174759   7.502   2.250   0.282
57642SOL    HW274760   7.427   2.179   0.171
57643SOL     OW74761   7.208   1.615   3.288
57643SOL    HW174762   7.284   1.605   3.231
57643SOL    HW274763   7.208   1.708   3.312
57644SOL     OW74764   1.697   8.864   2.764
57644SOL    HW174765   1.700   8.812   2.683
57644SOL    HW274766   1.716   8.801   2.834
57645SOL     OW74767   8.962   6.493   3.606
57645SOL    HW174768   8.871   6.465   3.608
57645SOL    HW274769   8.962   6.580   3.645
57646SOL     OW74770   5.149  14.779   3.310
57646SOL    HW174771   5.189  14.859   3.275
57646SOL    HW274772   5.164  14.784   3.405
57647SOL     OW74773  14.057   9.557   9.858
57647SOL    HW174774  14.116   9.585   9.928
57647SOL    HW274775  14.055   9.462   9.865
57648SOL     OW74776   1.910  12.689   4.288
57648SOL    HW174777   1.818  12.714   4.298
57648SOL    HW274778   1.952  12.714   4.370
57649SOL     OW74779  13.084   2.178   7.820
57649SOL    HW174780  13.081   2.103   7.760
57649SOL    HW274781  13.176   2.185   7.845
57650SOL     OW74782   1.289   9.463  10.156
57650SOL    HW174783   1.287   9.424  10.243
57650SOL    HW274784   1.382   9.462  10.131
57651SOL     OW74785   9.529   0.859  10.884
57651SOL    HW174786   9.549   0.913  10.961
57651SOL    HW274787   9.511   0.772  10.920
57652SOL     OW74788   6.283   4.815  11.565
57652SOL    HW174789   6.369   4.808  11.522
57652SOL    HW274790   6.289   4.754  11.639
57653SOL     OW74791   4.236   1.804   0.370
57653SOL    HW174792   4.178   1.879   0.380
57653SOL    HW274793   4.216   1.747   0.444
57654SOL     OW74794   9.642   4.599  11.177
57654SOL    HW174795   9.571   4.565  11.232
57654SOL    HW274796   9.617   4.690  11.160
57655SOL     OW74797  14.654   6.188   1.605
57655SOL    HW174798  14.596   6.114   1.588
57655SOL    HW274799  14.600   6.265   1.587
57656SOL     OW74800  10.509   3.202  12.212
57656SOL    HW174801  10.491   3.291  12.183
57656SOL    HW274802  10.541   3.212  12.302
57657SOL     OW74803  10.537   0.978  12.040
57657SOL    HW174804  10.568   1.015  11.958
57657SOL    HW274805  10.596   0.905  12.059
57658SOL     OW74806   8.093  12.159  12.565
57658SOL    HW174807   8.177  12.194  12.535
57658SOL    HW274808   8.105  12.144  12.659
57659SOL     OW74809  12.871   6.114  14.599
57659SOL    HW174810  12.917   6.188  14.638
57659SOL    HW274811  12.918   6.037  14.631
57660SOL     OW74812   3.577   5.802   4.228
57660SOL    HW174813   3.485   5.823   4.210
57660SOL    HW274814   3.620   5.887   4.240
57661SOL     OW74815   4.335   3.387  11.176
57661SOL    HW174816   4.300   3.463  11.223
57661SOL    HW274817   4.260   3.328  11.168
57662SOL     OW74818   2.374   6.926   3.553
57662SOL    HW174819   2.315   7.002   3.555
57662SOL    HW274820   2.354   6.879   3.634
57663SOL     OW74821   3.143  12.607   1.005
57663SOL    HW174822   3.221  12.662   1.004
57663SOL    HW274823   3.087  12.643   0.936
57664SOL     OW74824  12.941   8.565  13.748
57664SOL    HW174825  13.017   8.513  13.720
57664SOL    HW274826  12.909   8.520  13.826
57665SOL     OW74827   2.166  10.810   6.819
57665SOL    HW174828   2.148  10.775   6.732
57665SOL    HW274829   2.247  10.768   6.845
57666SOL     OW74830   5.307   3.785   6.412
57666SOL    HW174831   5.355   3.793   6.330
57666SOL    HW274832   5.374   3.766   6.478
57667SOL     OW74833   9.340   0.592  14.621
57667SOL    HW174834   9.286   0.521  14.656
57667SOL    HW274835   9.287   0.631  14.551
57668SOL     OW74836   7.715   1.576   0.576
57668SOL    HW174837   7.805   1.582   0.544
57668SOL    HW274838   7.701   1.483   0.591
57669SOL     OW74839   2.572   5.215   4.546
57669SOL    HW174840   2.562   5.310   4.549
57669SOL    HW274841   2.488   5.181   4.576
57670SOL     OW74842   8.242   4.347   9.656
57670SOL    HW174843   8.307   4.315   9.593
57670SOL    HW274844   8.280   4.329   9.742
57671SOL     OW74845   1.454  13.185  13.708
57671SOL    HW174846   1.367  13.165  13.742
57671SOL    HW274847   1.441  13.194  13.614
57672SOL     OW74848   0.778   4.288   6.761
57672SOL    HW174849   0.689   4.275   6.795
57672SOL    HW274850   0.782   4.232   6.684
57673SOL     OW74851   7.630   4.033   1.958
57673SOL    HW174852   7.658   4.080   1.880
57673SOL    HW274853   7.651   3.941   1.939
57674SOL     OW74854   3.727   4.963   6.957
57674SOL    HW174855   3.685   4.957   6.871
57674SOL    HW274856   3.658   4.996   7.015
57675SOL     OW74857   0.710  11.284   2.005
57675SOL    HW174858   0.692  11.368   1.963
57675SOL    HW274859   0.782  11.247   1.955
57676SOL     OW74860  12.043  10.901   6.425
57676SOL    HW174861  12.065  10.808   6.431
57676SOL    HW274862  12.091  10.942   6.497
57677SOL     OW74863   1.190   6.125   6.538
57677SOL    HW174864   1.274   6.154   6.574
57677SOL    HW274865   1.210   6.042   6.495
57678SOL     OW74866  10.291  12.851  14.131
57678SOL    HW174867  10.219  12.824  14.074
57678SOL    HW274868  10.283  12.947  14.137
57679SOL     OW74869   2.435   4.664   5.388
57679SOL    HW174870   2.512   4.714   5.362
57679SOL    HW274871   2.463   4.614   5.465
57680SOL     OW74872  13.624   6.863   5.730
57680SOL    HW174873  13.604   6.832   5.642
57680SOL    HW274874  13.653   6.953   5.718
57681SOL     OW74875  12.865  11.511   7.567
57681SOL    HW174876  12.840  11.432   7.519
57681SOL    HW274877  12.953  11.493   7.600
57682SOL     OW74878   5.934   2.342   9.922
57682SOL    HW174879   5.999   2.273   9.908
57682SOL    HW274880   5.965   2.388  10.001
57683SOL     OW74881   0.589   3.153   7.334
57683SOL    HW174882   0.523   3.193   7.277
57683SOL    HW274883   0.672   3.164   7.286
57684SOL     OW74884   9.079   3.335  13.821
57684SOL    HW174885   9.087   3.242  13.845
57684SOL    HW274886   8.993   3.341  13.779
57685SOL     OW74887   1.970   7.480   4.108
57685SOL    HW174888   1.983   7.394   4.146
57685SOL    HW274889   1.985   7.541   4.180
57686SOL     OW74890   9.970  14.639   8.155
57686SOL    HW174891   9.876  14.645   8.172
57686SOL    HW274892  10.011  14.643   8.241
57687SOL     OW74893  12.531   4.977   0.244
57687SOL    HW174894  12.538   4.904   0.182
57687SOL    HW274895  12.437   4.983   0.262
57688SOL     OW74896  12.994   1.225  11.665
57688SOL    HW174897  13.008   1.134  11.690
57688SOL    HW274898  12.958   1.220  11.576
57689SOL     OW74899  10.326  13.617  13.998
57689SOL    HW174900  10.315  13.654  14.086
57689SOL    HW274901  10.279  13.678  13.941
57690SOL     OW74902  12.967   8.954   2.658
57690SOL    HW174903  13.030   8.894   2.618
57690SOL    HW274904  13.014   9.037   2.665
57691SOL     OW74905   2.624   4.170   2.098
57691SOL    HW174906   2.702   4.175   2.043
57691SOL    HW274907   2.564   4.114   2.049
57692SOL     OW74908   9.412  14.561   7.103
57692SOL    HW174909   9.430  14.549   7.010
57692SOL    HW274910   9.497  14.584   7.141
57693SOL     OW74911   3.316  14.590   0.861
57693SOL    HW174912   3.343  14.507   0.823
57693SOL    HW274913   3.221  14.594   0.845
57694SOL     OW74914   1.626  10.412   9.596
57694SOL    HW174915   1.666  10.499   9.587
57694SOL    HW274916   1.532  10.428   9.591
57695SOL     OW74917  14.129   1.389  10.308
57695SOL    HW174918  14.209   1.435  10.281
57695SOL    HW274919  14.075   1.457  10.350
57696SOL     OW74920   2.127   1.135  12.795
57696SOL    HW174921   2.099   1.105  12.708
57696SOL    HW274922   2.207   1.185  12.777
57697SOL     OW74923   0.950  14.399   7.432
57697SOL    HW174924   0.926  14.422   7.342
57697SOL    HW274925   1.041  14.372   7.427
57698SOL     OW74926   8.084   9.012   9.339
57698SOL    HW174927   8.168   9.056   9.347
57698SOL    HW274928   8.059   9.024   9.248
57699SOL     OW74929   9.424   7.711  11.240
57699SOL    HW174930   9.456   7.686  11.327
57699SOL    HW274931   9.367   7.639  11.214
57700SOL     OW74932   0.178  12.639  12.444
57700SOL    HW174933   0.120  12.575  12.484
57700SOL    HW274934   0.263  12.596  12.439
57701SOL     OW74935   2.232  13.586   4.250
57701SOL    HW174936   2.285  13.651   4.202
57701SOL    HW274937   2.149  13.630   4.265
57702SOL     OW74938  11.460   0.593   3.862
57702SOL    HW174939  11.471   0.501   3.886
57702SOL    HW274940  11.547   0.620   3.831
57703SOL     OW74941   4.317  14.047  10.416
57703SOL    HW174942   4.394  14.085  10.460
57703SOL    HW274943   4.317  14.087  10.329
57704SOL     OW74944   6.790   3.982  13.083
57704SOL    HW174945   6.737   4.035  13.023
57704SOL    HW274946   6.833   4.047  13.140
57705SOL     OW74947   0.423   7.921   3.632
57705SOL    HW174948   0.507   7.916   3.679
57705SOL    HW274949   0.360   7.946   3.700
57706SOL     OW74950  13.422   8.080  14.291
57706SOL    HW174951  13.491   8.093  14.357
57706SOL    HW274952  13.382   8.166  14.282
57707SOL     OW74953   7.905   0.381  10.213
57707SOL    HW174954   7.842   0.341  10.154
57707SOL    HW274955   7.982   0.323  10.210
57708SOL     OW74956   4.909   5.229   4.645
57708SOL    HW174957   4.894   5.134   4.644
57708SOL    HW274958   4.823   5.267   4.628
57709SOL     OW74959  11.178   4.405   5.852
57709SOL    HW174960  11.146   4.462   5.783
57709SOL    HW274961  11.192   4.320   5.809
57710SOL     OW74962   6.632   2.129   1.527
57710SOL    HW174963   6.707   2.174   1.487
57710SOL    HW274964   6.569   2.198   1.546
57711SOL     OW74965  14.415  14.144   1.307
57711SOL    HW174966  14.372  14.148   1.222
57711SOL    HW274967  14.420  14.235   1.335
57712SOL     OW74968   6.278   6.871   0.943
57712SOL    HW174969   6.353   6.919   0.976
57712SOL    HW274970   6.313   6.817   0.872
57713SOL     OW74971   3.531   6.447   1.797
57713SOL    HW174972   3.497   6.362   1.767
57713SOL    HW274973   3.454   6.502   1.807
57714SOL     OW74974   8.068   8.894   1.213
57714SOL    HW174975   8.141   8.916   1.271
57714SOL    HW274976   7.991   8.935   1.254
57715SOL     OW74977   1.480   5.388   8.644
57715SOL    HW174978   1.532   5.324   8.692
57715SOL    HW274979   1.475   5.352   8.555
57716SOL     OW74980   6.631   8.973   6.160
57716SOL    HW174981   6.682   8.897   6.134
57716SOL    HW274982   6.666   8.998   6.246
57717SOL     OW74983  10.707   6.658  11.414
57717SOL    HW174984  10.696   6.575  11.459
57717SOL    HW274985  10.621   6.699  11.418
57718SOL     OW74986  14.749  13.311   8.458
57718SOL    HW174987  14.808  13.237   8.475
57718SOL    HW274988  14.806  13.388   8.464
57719SOL     OW74989   3.064   1.517   5.882
57719SOL    HW174990   3.032   1.475   5.802
57719SOL    HW274991   3.057   1.449   5.949
57720SOL     OW74992   7.213   4.815   1.347
57720SOL    HW174993   7.176   4.727   1.336
57720SOL    HW274994   7.259   4.810   1.431
57721SOL     OW74995   4.060  13.269   9.505
57721SOL    HW174996   4.067  13.306   9.416
57721SOL    HW274997   4.060  13.175   9.491
57722SOL     OW74998   0.159   3.127   4.353
57722SOL    HW174999   0.152   3.053   4.413
57722SOL    HW275000   0.071   3.166   4.353
57723SOL     OW75001   1.877   8.861  14.001
57723SOL    HW175002   1.933   8.807  13.945
57723SOL    HW275003   1.925   8.867  14.084
57724SOL     OW75004  10.552   2.537   8.864
57724SOL    HW175005  10.491   2.611   8.872
57724SOL    HW275006  10.637   2.574   8.887
57725SOL     OW75007   4.030   8.281  13.861
57725SOL    HW175008   3.987   8.279  13.776
57725SOL    HW275009   4.092   8.354  13.854
57726SOL     OW75010   3.500   4.910   6.252
57726SOL    HW175011   3.423   4.855   6.269
57726SOL    HW275012   3.474   4.997   6.281
57727SOL     OW75013   6.921  11.888   7.031
57727SOL    HW175014   7.004  11.934   7.018
57727SOL    HW275015   6.861  11.956   7.062
57728SOL     OW75016  14.404   0.666   2.695
57728SOL    HW175017  14.431   0.618   2.773
57728SOL    HW275018  14.309   0.653   2.690
57729SOL     OW75019   4.040   7.988   6.990
57729SOL    HW175020   4.100   7.915   7.008
57729SOL    HW275021   4.068   8.057   7.051
57730SOL     OW75022   7.555   1.392   4.741
57730SOL    HW175023   7.570   1.376   4.648
57730SOL    HW275024   7.635   1.363   4.785
57731SOL     OW75025   2.528  11.448   0.656
57731SOL    HW175026   2.498  11.389   0.587
57731SOL    HW275027   2.466  11.435   0.728
57732SOL     OW75028   5.500  10.984  13.339
57732SOL    HW175029   5.547  11.063  13.365
57732SOL    HW275030   5.560  10.912  13.360
57733SOL     OW75031   7.862   8.623   4.024
57733SOL    HW175032   7.855   8.640   4.118
57733SOL    HW275033   7.789   8.672   3.986
57734SOL     OW75034  14.328  12.863   5.923
57734SOL    HW175035  14.272  12.791   5.956
57734SOL    HW275036  14.275  12.904   5.855
57735SOL     OW75037  12.552   0.600  12.540
57735SOL    HW175038  12.547   0.556  12.455
57735SOL    HW275039  12.503   0.682  12.527
57736SOL     OW75040   7.148  11.993   8.110
57736SOL    HW175041   7.079  12.011   8.046
57736SOL    HW275042   7.100  11.959   8.186
57737SOL     OW75043   0.072   1.922   0.763
57737SOL    HW175044  14.869   1.969   0.783
57737SOL    HW275045   0.118   1.980   0.703
57738SOL     OW75046   9.082   1.884  13.342
57738SOL    HW175047   9.008   1.943  13.331
57738SOL    HW275048   9.045   1.805  13.381
57739SOL     OW75049  10.991   9.998   9.556
57739SOL    HW175050  10.936   9.920   9.556
57739SOL    HW275051  11.062   9.978   9.495
57740SOL     OW75052   8.539  10.749   4.855
57740SOL    HW175053   8.450  10.782   4.839
57740SOL    HW275054   8.554  10.685   4.786
57741SOL     OW75055  12.826   7.265   1.780
57741SOL    HW175056  12.917   7.273   1.809
57741SOL    HW275057  12.793   7.355   1.782
57742SOL     OW75058  11.932   4.806   1.784
57742SOL    HW175059  11.924   4.818   1.689
57742SOL    HW275060  11.899   4.717   1.799
57743SOL     OW75061  11.992   0.220   4.661
57743SOL    HW175062  12.063   0.279   4.683
57743SOL    HW275063  11.939   0.269   4.598
57744SOL     OW75064  14.058  11.900  10.383
57744SOL    HW175065  14.061  11.987  10.423
57744SOL    HW275066  14.146  11.886  10.350
57745SOL     OW75067   1.424  11.821   6.434
57745SOL    HW175068   1.475  11.774   6.500
57745SOL    HW275069   1.358  11.869   6.483
57746SOL     OW75070   7.456   1.587  12.830
57746SOL    HW175071   7.443   1.515  12.891
57746SOL    HW275072   7.381   1.582  12.771
57747SOL     OW75073  13.559   2.986   6.993
57747SOL    HW175074  13.636   2.976   7.049
57747SOL    HW275075  13.550   2.903   6.948
57748SOL     OW75076  10.624   9.408   0.105
57748SOL    HW175077  10.619   9.436   0.014
57748SOL    HW275078  10.536   9.376   0.125
57749SOL     OW75079   0.945   6.018  10.022
57749SOL    HW175080   1.038   6.022  10.002
57749SOL    HW275081   0.906   5.972   9.947
57750SOL     OW75082   2.291   0.931   7.672
57750SOL    HW175083   2.376   0.893   7.651
57750SOL    HW275084   2.242   0.928   7.590
57751SOL     OW75085  14.863  14.208   0.332
57751SOL    HW175086   0.019  14.284   0.285
57751SOL    HW275087  14.783  14.240   0.373
57752SOL     OW75088  13.126   8.177   4.378
57752SOL    HW175089  13.166   8.217   4.301
57752SOL    HW275090  13.091   8.094   4.347
57753SOL     OW75091  12.054  14.142  11.095
57753SOL    HW175092  12.085  14.169  11.182
57753SOL    HW275093  11.991  14.072  11.113
57754SOL     OW75094   0.576   0.551   5.445
57754SOL    HW175095   0.564   0.616   5.515
57754SOL    HW275096   0.661   0.511   5.463
57755SOL     OW75097   9.851  12.569  10.612
57755SOL    HW175098   9.757  12.587  10.609
57755SOL    HW275099   9.889  12.649  10.649
57756SOL     OW75100   1.306   7.005   5.803
57756SOL    HW175101   1.222   7.017   5.848
57756SOL    HW275102   1.291   6.932   5.743
57757SOL     OW75103  12.688   2.525  10.923
57757SOL    HW175104  12.750   2.540  10.994
57757SOL    HW275105  12.627   2.599  10.928
57758SOL     OW75106  11.033   4.558  11.128
57758SOL    HW175107  11.004   4.617  11.059
57758SOL    HW275108  11.044   4.474  11.085
57759SOL     OW75109   8.957   0.625   6.257
57759SOL    HW175110   8.877   0.582   6.287
57759SOL    HW275111   8.970   0.698   6.318
57760SOL     OW75112   8.674   5.006  12.081
57760SOL    HW175113   8.646   5.060  12.155
57760SOL    HW275114   8.707   5.069  12.017
57761SOL     OW75115  13.039   1.666  12.260
57761SOL    HW175116  12.971   1.726  12.229
57761SOL    HW275117  12.996   1.581  12.266
57762SOL     OW75118   2.158  13.623  14.821
57762SOL    HW175119   2.086  13.618   0.005
57762SOL    HW275120   2.224  13.562  14.856
57763SOL     OW75121   4.998  13.241   7.538
57763SOL    HW175122   5.047  13.262   7.459
57763SOL    HW275123   5.018  13.312   7.599
57764SOL     OW75124   4.747   3.231   4.686
57764SOL    HW175125   4.827   3.277   4.662
57764SOL    HW275126   4.689   3.300   4.719
57765SOL     OW75127   4.567   5.936   1.101
57765SOL    HW175128   4.522   5.997   1.041
57765SOL    HW275129   4.560   5.978   1.187
57766SOL     OW75130   5.303   7.411   0.405
57766SOL    HW175131   5.259   7.431   0.323
57766SOL    HW275132   5.237   7.425   0.473
57767SOL     OW75133  13.713  11.396   2.306
57767SOL    HW175134  13.742  11.307   2.326
57767SOL    HW275135  13.767  11.422   2.231
57768SOL     OW75136  10.877   3.724   4.801
57768SOL    HW175137  10.913   3.744   4.715
57768SOL    HW275138  10.863   3.630   4.800
57769SOL     OW75139   8.481   0.299   0.127
57769SOL    HW175140   8.543   0.300   0.054
57769SOL    HW275141   8.523   0.245   0.193
57770SOL     OW75142   8.182  13.062   2.664
57770SOL    HW175143   8.171  13.096   2.753
57770SOL    HW275144   8.228  12.979   2.676
57771SOL     OW75145   6.784  12.355   2.086
57771SOL    HW175146   6.810  12.280   2.032
57771SOL    HW275147   6.706  12.390   2.042
57772SOL     OW75148   2.927  13.037  10.946
57772SOL    HW175149   2.895  12.953  10.913
57772SOL    HW275150   2.871  13.056  11.021
57773SOL     OW75151  11.623   6.723   8.637
57773SOL    HW175152  11.574   6.779   8.577
57773SOL    HW275153  11.580   6.735   8.721
57774SOL     OW75154   9.683   3.102  11.731
57774SOL    HW175155   9.743   3.172  11.705
57774SOL    HW275156   9.702   3.088  11.824
57775SOL     OW75157  10.018  12.484   7.480
57775SOL    HW175158  10.096  12.454   7.526
57775SOL    HW275159   9.970  12.536   7.544
57776SOL     OW75160  12.886   3.546   9.707
57776SOL    HW175161  12.896   3.610   9.778
57776SOL    HW275162  12.805   3.499   9.729
57777SOL     OW75163   7.752  12.192   0.430
57777SOL    HW175164   7.788  12.251   0.496
57777SOL    HW275165   7.822  12.127   0.415
57778SOL     OW75166   8.413   2.065  12.676
57778SOL    HW175167   8.480   2.044  12.741
57778SOL    HW275168   8.460   2.069  12.593
57779SOL     OW75169  12.465  13.762   6.152
57779SOL    HW175170  12.439  13.727   6.067
57779SOL    HW275171  12.385  13.799   6.188
57780SOL     OW75172  12.774   9.588  10.474
57780SOL    HW175173  12.812   9.665  10.432
57780SOL    HW275174  12.707   9.622  10.533
57781SOL     OW75175  10.904   0.735   8.997
57781SOL    HW175176  10.902   0.710   9.089
57781SOL    HW275177  10.867   0.659   8.951
57782SOL     OW75178  12.080  13.081  14.038
57782SOL    HW175179  12.133  13.121  14.107
57782SOL    HW275180  12.141  13.068  13.966
57783SOL     OW75181   2.150   1.194  10.295
57783SOL    HW175182   2.204   1.241  10.359
57783SOL    HW275183   2.192   1.109  10.285
57784SOL     OW75184   7.662  14.497   6.656
57784SOL    HW175185   7.582  14.542   6.628
57784SOL    HW275186   7.641  14.462   6.742
57785SOL     OW75187  10.926  11.087  10.268
57785SOL    HW175188  10.993  11.065  10.204
57785SOL    HW275189  10.848  11.108  10.217
57786SOL     OW75190  10.355  13.774   0.943
57786SOL    HW175191  10.371  13.859   0.902
57786SOL    HW275192  10.343  13.714   0.869
57787SOL     OW75193  12.443   4.324   2.413
57787SOL    HW175194  12.537   4.308   2.400
57787SOL    HW275195  12.440   4.405   2.465
57788SOL     OW75196   4.210   0.407  13.273
57788SOL    HW175197   4.171   0.488  13.306
57788SOL    HW275198   4.135   0.353  13.249
57789SOL     OW75199   7.294   8.694  11.409
57789SOL    HW175200   7.210   8.728  11.439
57789SOL    HW275201   7.354   8.712  11.481
57790SOL     OW75202   1.228   7.723   3.147
57790SOL    HW175203   1.144   7.727   3.102
57790SOL    HW275204   1.252   7.630   3.146
57791SOL     OW75205  14.628   6.586  11.400
57791SOL    HW175206  14.658   6.676  11.415
57791SOL    HW275207  14.540   6.583  11.438
57792SOL     OW75208  12.372   8.350   8.360
57792SOL    HW175209  12.461   8.364   8.393
57792SOL    HW275210  12.373   8.386   8.272
57793SOL     OW75211  12.109  10.185   5.920
57793SOL    HW175212  12.051  10.196   5.844
57793SOL    HW275213  12.163  10.109   5.897
57794SOL     OW75214   8.357   8.124  12.855
57794SOL    HW175215   8.354   8.059  12.785
57794SOL    HW275216   8.289   8.187  12.831
57795SOL     OW75217   9.926   1.958   9.018
57795SOL    HW175218   9.931   2.016   8.942
57795SOL    HW275219   9.983   1.884   8.996
57796SOL     OW75220  13.452  10.258  10.532
57796SOL    HW175221  13.452  10.332  10.470
57796SOL    HW275222  13.545  10.239  10.546
57797SOL     OW75223   0.111   0.413  11.706
57797SOL    HW175224   0.054   0.365  11.767
57797SOL    HW275225   0.200   0.387  11.731
57798SOL     OW75226  13.987   5.047   8.573
57798SOL    HW175227  14.054   4.996   8.618
57798SOL    HW275228  13.938   4.981   8.523
57799SOL     OW75229   0.418   2.415   0.019
57799SOL    HW175230   0.382   2.351   0.081
57799SOL    HW275231   0.378   2.498   0.044
57800SOL     OW75232   0.732   8.850  10.744
57800SOL    HW175233   0.669   8.907  10.700
57800SOL    HW275234   0.702   8.762  10.724
57801SOL     OW75235   6.362   6.756  14.078
57801SOL    HW175236   6.297   6.825  14.061
57801SOL    HW275237   6.329   6.680  14.030
57802SOL     OW75238   2.433  10.050   6.784
57802SOL    HW175239   2.520  10.089   6.774
57802SOL    HW275240   2.386  10.074   6.705
57803SOL     OW75241   6.638   0.643   3.481
57803SOL    HW175242   6.593   0.629   3.399
57803SOL    HW275243   6.729   0.660   3.456
57804SOL     OW75244   5.170   0.916   0.448
57804SOL    HW175245   5.154   0.983   0.514
57804SOL    HW275246   5.117   0.841   0.477
57805SOL     OW75247  10.283   7.222   4.763
57805SOL    HW175248  10.328   7.141   4.787
57805SOL    HW275249  10.351   7.276   4.723
57806SOL     OW75250  13.450   5.555  14.437
57806SOL    HW175251  13.427   5.523  14.524
57806SOL    HW275252  13.541   5.583  14.444
57807SOL     OW75253   8.873  12.144   7.548
57807SOL    HW175254   8.882  12.052   7.524
57807SOL    HW275255   8.880  12.192   7.465
57808SOL     OW75256  13.104   7.522   4.278
57808SOL    HW175257  13.026   7.482   4.241
57808SOL    HW275258  13.150   7.561   4.203
57809SOL     OW75259   0.790   3.748   7.876
57809SOL    HW175260   0.781   3.668   7.824
57809SOL    HW275261   0.844   3.722   7.950
57810SOL     OW75262   6.352  10.834   5.041
57810SOL    HW175263   6.298  10.792   4.974
57810SOL    HW275264   6.378  10.918   5.002
57811SOL     OW75265   8.646  11.082  11.758
57811SOL    HW175266   8.704  11.118  11.690
57811SOL    HW275267   8.674  10.991  11.768
57812SOL     OW75268   8.163   3.921  13.908
57812SOL    HW175269   8.191   3.891  13.822
57812SOL    HW275270   8.084   3.869  13.927
57813SOL     OW75271   3.130   6.213   1.462
57813SOL    HW175272   3.049   6.204   1.412
57813SOL    HW275273   3.179   6.133   1.442
57814SOL     OW75274   1.190   7.466  12.460
57814SOL    HW175275   1.245   7.388  12.469
57814SOL    HW275276   1.150   7.478  12.546
57815SOL     OW75277   4.171  13.720   4.842
57815SOL    HW175278   4.138  13.803   4.875
57815SOL    HW275279   4.130  13.710   4.756
57816SOL     OW75280   5.068   8.034  12.140
57816SOL    HW175281   5.104   8.070  12.059
57816SOL    HW275282   4.995   7.979  12.111
57817SOL     OW75283   0.539   2.861   0.657
57817SOL    HW175284   0.516   2.942   0.702
57817SOL    HW275285   0.623   2.835   0.694
57818SOL     OW75286   3.847   1.532   5.132
57818SOL    HW175287   3.835   1.506   5.041
57818SOL    HW275288   3.940   1.555   5.139
57819SOL     OW75289   7.856  11.065   0.701
57819SOL    HW175290   7.797  11.123   0.750
57819SOL    HW275291   7.822  11.066   0.611
57820SOL     OW75292   8.011   8.768   3.760
57820SOL    HW175293   8.082   8.726   3.711
57820SOL    HW275294   7.979   8.700   3.819
57821SOL     OW75295  10.611   2.619  11.404
57821SOL    HW175296  10.649   2.573  11.478
57821SOL    HW275297  10.686   2.647  11.351
57822SOL     OW75298   1.189   8.840   4.489
57822SOL    HW175299   1.222   8.848   4.578
57822SOL    HW275300   1.267   8.823   4.436
57823SOL     OW75301   3.853  13.756   6.652
57823SOL    HW175302   3.837  13.680   6.597
57823SOL    HW275303   3.780  13.815   6.634
57824SOL     OW75304   8.105   8.727  12.129
57824SOL    HW175305   8.133   8.818  12.120
57824SOL    HW275306   8.155   8.680  12.063
57825SOL     OW75307  14.052   9.737  11.990
57825SOL    HW175308  13.993   9.787  11.934
57825SOL    HW275309  14.097   9.677  11.931
57826SOL     OW75310   3.982  10.230   5.649
57826SOL    HW175311   3.922  10.240   5.575
57826SOL    HW275312   3.939  10.275   5.722
57827SOL     OW75313  10.043  12.576   8.262
57827SOL    HW175314  10.126  12.565   8.309
57827SOL    HW275315  10.055  12.655   8.210
57828SOL     OW75316   2.348  11.970  13.452
57828SOL    HW175317   2.405  12.022  13.509
57828SOL    HW275318   2.383  11.984  13.364
57829SOL     OW75319   5.869   1.866   2.558
57829SOL    HW175320   5.907   1.919   2.628
57829SOL    HW275321   5.852   1.781   2.599
57830SOL     OW75322   1.434  11.524   0.933
57830SOL    HW175323   1.482  11.448   0.899
57830SOL    HW275324   1.343  11.507   0.911
57831SOL     OW75325  11.471  13.877   6.891
57831SOL    HW175326  11.398  13.860   6.832
57831SOL    HW275327  11.500  13.965   6.868
57832SOL     OW75328  12.457  11.484  11.472
57832SOL    HW175329  12.452  11.442  11.558
57832SOL    HW275330  12.366  11.501  11.448
57833SOL     OW75331   5.901   8.105   3.196
57833SOL    HW175332   5.918   8.050   3.272
57833SOL    HW275333   5.986   8.114   3.153
57834SOL     OW75334   9.167   7.088  12.332
57834SOL    HW175335   9.251   7.076  12.375
57834SOL    HW275336   9.167   7.179  12.302
57835SOL     OW75337   9.719   3.931   4.945
57835SOL    HW175338   9.664   3.877   5.001
57835SOL    HW275339   9.771   3.984   5.006
57836SOL     OW75340  12.523  13.809  13.422
57836SOL    HW175341  12.590  13.857  13.470
57836SOL    HW275342  12.539  13.831  13.330
57837SOL     OW75343   8.084   6.378  10.744
57837SOL    HW175344   8.122   6.419  10.666
57837SOL    HW275345   7.991   6.373  10.725
57838SOL     OW75346   2.231  14.562   7.415
57838SOL    HW175347   2.223  14.609   7.498
57838SOL    HW275348   2.171  14.487   7.423
57839SOL     OW75349   0.043   1.360   8.845
57839SOL    HW175350  14.837   1.328   8.877
57839SOL    HW275351   0.039   1.455   8.859
57840SOL     OW75352   9.504   8.790  13.638
57840SOL    HW175353   9.536   8.876  13.666
57840SOL    HW275354   9.580   8.749  13.597
57841SOL     OW75355   9.785   4.856   0.767
57841SOL    HW175356   9.825   4.879   0.684
57841SOL    HW275357   9.851   4.802   0.811
57842SOL     OW75358   8.797   7.080   3.848
57842SOL    HW175359   8.859   7.122   3.790
57842SOL    HW275360   8.776   7.147   3.914
57843SOL     OW75361   2.817  12.395  10.138
57843SOL    HW175362   2.732  12.384  10.096
57843SOL    HW275363   2.878  12.409  10.066
57844SOL     OW75364   5.260   8.070   8.921
57844SOL    HW175365   5.269   8.067   9.016
57844SOL    HW275366   5.248   8.163   8.902
57845SOL     OW75367   5.916  12.929   1.068
57845SOL    HW175368   5.882  12.948   1.155
57845SOL    HW275369   6.009  12.951   1.074
57846SOL     OW75370  13.965   8.277  13.164
57846SOL    HW175371  13.875   8.272  13.132
57846SOL    HW275372  13.989   8.369  13.156
57847SOL     OW75373  14.379  14.198  14.793
57847SOL    HW175374  14.376  14.225  14.701
57847SOL    HW275375  14.418  14.273  14.838
57848SOL     OW75376   6.738   5.611   8.960
57848SOL    HW175377   6.650   5.579   8.940
57848SOL    HW275378   6.788   5.597   8.880
57849SOL     OW75379  11.983   1.915   0.526
57849SOL    HW175380  12.029   1.847   0.477
57849SOL    HW275381  12.052   1.966   0.569
57850SOL     OW75382   5.725  10.766   8.694
57850SOL    HW175383   5.634  10.740   8.680
57850SOL    HW275384   5.776  10.710   8.635
57851SOL     OW75385   6.519   7.264  12.362
57851SOL    HW175386   6.553   7.260  12.451
57851SOL    HW275387   6.476   7.179  12.349
57852SOL     OW75388  11.786  10.916   4.350
57852SOL    HW175389  11.810  10.824   4.351
57852SOL    HW275390  11.795  10.944   4.441
57853SOL     OW75391   2.363   5.827  13.581
57853SOL    HW175392   2.416   5.907  13.583
57853SOL    HW275393   2.295   5.844  13.517
57854SOL     OW75394   5.812   6.007  13.796
57854SOL    HW175395   5.894   6.017  13.747
57854SOL    HW275396   5.771   5.930  13.757
57855SOL     OW75397  11.881   7.807   4.371
57855SOL    HW175398  11.838   7.730   4.332
57855SOL    HW275399  11.952   7.827   4.310
57856SOL     OW75400   4.565   9.678   6.038
57856SOL    HW175401   4.524   9.626   6.107
57856SOL    HW275402   4.651   9.700   6.073
57857SOL     OW75403   1.654   3.807   5.878
57857SOL    HW175404   1.678   3.732   5.932
57857SOL    HW275405   1.566   3.786   5.846
57858SOL     OW75406  14.670   9.354  12.983
57858SOL    HW175407  14.601   9.421  12.988
57858SOL    HW275408  14.696   9.341  13.074
57859SOL     OW75409  12.833   7.751   2.104
57859SOL    HW175410  12.848   7.845   2.111
57859SOL    HW275411  12.903   7.720   2.047
57860SOL     OW75412  14.279   0.683   3.495
57860SOL    HW175413  14.247   0.603   3.535
57860SOL    HW275414  14.252   0.753   3.555
57861SOL     OW75415   7.728   6.380   7.690
57861SOL    HW175416   7.810   6.429   7.692
57861SOL    HW275417   7.672   6.423   7.754
57862SOL     OW75418   4.549  12.593  11.882
57862SOL    HW175419   4.637  12.576  11.915
57862SOL    HW275420   4.558  12.669  11.825
57863SOL     OW75421   2.982  11.775   9.895
57863SOL    HW175422   2.920  11.737   9.832
57863SOL    HW275423   2.964  11.728   9.976
57864SOL     OW75424  11.066   8.148  11.420
57864SOL    HW175425  11.075   8.213  11.490
57864SOL    HW275426  11.002   8.186  11.361
57865SOL     OW75427   2.343  11.416   6.900
57865SOL    HW175428   2.330  11.494   6.846
57865SOL    HW275429   2.265  11.414   6.956
57866SOL     OW75430   6.238  10.883  11.408
57866SOL    HW175431   6.263  10.963  11.363
57866SOL    HW275432   6.231  10.817  11.339
57867SOL     OW75433  11.264   6.894  12.880
57867SOL    HW175434  11.290   6.824  12.940
57867SOL    HW275435  11.283   6.974  12.928
57868SOL     OW75436   5.627   3.956   8.685
57868SOL    HW175437   5.632   4.017   8.758
57868SOL    HW275438   5.706   3.903   8.691
57869SOL     OW75439  12.401  11.078   3.429
57869SOL    HW175440  12.490  11.100   3.458
57869SOL    HW275441  12.414  11.003   3.371
57870SOL     OW75442  14.327  11.240  11.820
57870SOL    HW175443  14.266  11.260  11.891
57870SOL    HW275444  14.292  11.285  11.744
57871SOL     OW75445  12.035   7.006  12.056
57871SOL    HW175446  12.072   7.094  12.067
57871SOL    HW275447  12.110   6.947  12.068
57872SOL     OW75448   0.365  12.998   2.509
57872SOL    HW175449   0.437  13.014   2.570
57872SOL    HW275450   0.405  13.003   2.422
57873SOL     OW75451  10.432   7.967   9.352
57873SOL    HW175452  10.459   7.949   9.262
57873SOL    HW275453  10.499   8.026   9.386
57874SOL     OW75454   8.164   1.475   6.277
57874SOL    HW175455   8.110   1.551   6.255
57874SOL    HW275456   8.199   1.495   6.363
57875SOL     OW75457  13.170   0.650  13.399
57875SOL    HW175458  13.115   0.600  13.459
57875SOL    HW275459  13.124   0.733  13.387
57876SOL     OW75460   9.299   1.723   7.983
57876SOL    HW175461   9.269   1.695   8.069
57876SOL    HW275462   9.314   1.641   7.935
57877SOL     OW75463   7.334   3.881  13.928
57877SOL    HW175464   7.246   3.864  13.961
57877SOL    HW275465   7.369   3.794  13.909
57878SOL     OW75466  10.159   4.497   6.316
57878SOL    HW175467  10.116   4.420   6.353
57878SOL    HW275468  10.211   4.464   6.244
57879SOL     OW75469  12.216   2.552   4.107
57879SOL    HW175470  12.203   2.633   4.058
57879SOL    HW275471  12.183   2.483   4.049
57880SOL     OW75472  14.171  11.663  12.266
57880SOL    HW175473  14.205  11.574  12.256
57880SOL    HW275474  14.106  11.671  12.197
57881SOL     OW75475  14.645   3.102   3.618
57881SOL    HW175476  14.669   3.195   3.615
57881SOL    HW275477  14.712   3.062   3.675
57882SOL     OW75478   5.072   2.604   0.489
57882SOL    HW175479   5.085   2.648   0.573
57882SOL    HW275480   5.138   2.535   0.488
57883SOL     OW75481   7.955  12.241   0.649
57883SOL    HW175482   7.939  12.241   0.743
57883SOL    HW275483   7.974  12.149   0.628
57884SOL     OW75484  12.201   9.202   5.218
57884SOL    HW175485  12.266   9.176   5.153
57884SOL    HW275486  12.117   9.187   5.174
57885SOL     OW75487   7.834   6.323  14.607
57885SOL    HW175488   7.923   6.288  14.613
57885SOL    HW275489   7.845   6.413  14.578
57886SOL     OW75490  13.738  11.010   7.413
57886SOL    HW175491  13.818  10.991   7.462
57886SOL    HW275492  13.688  10.928   7.415
57887SOL     OW75493   1.924   6.188   4.592
57887SOL    HW175494   1.875   6.132   4.652
57887SOL    HW275495   1.889   6.166   4.506
57888SOL     OW75496  10.989   1.531   2.826
57888SOL    HW175497  10.981   1.621   2.793
57888SOL    HW275498  10.913   1.486   2.790
57889SOL     OW75499   8.448  12.381  10.217
57889SOL    HW175500   8.487  12.409  10.300
57889SOL    HW275501   8.449  12.285  10.222
57890SOL     OW75502   5.273   5.785   4.052
57890SOL    HW175503   5.332   5.719   4.015
57890SOL    HW275504   5.292   5.783   4.146
57891SOL     OW75505   7.140   0.456   9.450
57891SOL    HW175506   7.116   0.364   9.458
57891SOL    HW275507   7.066   0.504   9.489
57892SOL     OW75508   7.578   6.621   0.017
57892SOL    HW175509   7.555   6.685   0.084
57892SOL    HW275510   7.591   6.673  14.817
57893SOL     OW75511   5.347   3.414   2.508
57893SOL    HW175512   5.412   3.463   2.458
57893SOL    HW275513   5.285   3.480   2.538
57894SOL     OW75514   3.535   2.680  14.237
57894SOL    HW175515   3.463   2.648  14.182
57894SOL    HW275516   3.523   2.635  14.320
57895SOL     OW75517   5.612   2.382   6.444
57895SOL    HW175518   5.639   2.443   6.376
57895SOL    HW275519   5.691   2.368   6.497
57896SOL     OW75520  14.298  10.931   5.134
57896SOL    HW175521  14.237  10.864   5.164
57896SOL    HW275522  14.367  10.883   5.089
57897SOL     OW75523   9.704   6.823   2.599
57897SOL    HW175524   9.722   6.733   2.625
57897SOL    HW275525   9.745   6.832   2.513
57898SOL     OW75526   4.713   8.017   0.827
57898SOL    HW175527   4.711   8.037   0.733
57898SOL    HW275528   4.802   7.984   0.842
57899SOL     OW75529   3.825  11.640   8.904
57899SOL    HW175530   3.782  11.557   8.883
57899SOL    HW275531   3.918  11.619   8.906
57900SOL     OW75532   4.744   8.415   5.105
57900SOL    HW175533   4.697   8.472   5.044
57900SOL    HW275534   4.754   8.333   5.057
57901SOL     OW75535   2.818   8.055   2.437
57901SOL    HW175536   2.751   7.992   2.409
57901SOL    HW275537   2.867   8.076   2.358
57902SOL     OW75538   6.116  13.436  13.554
57902SOL    HW175539   6.066  13.375  13.501
57902SOL    HW275540   6.205  13.399  13.555
57903SOL     OW75541   3.000  12.833   2.191
57903SOL    HW175542   3.028  12.827   2.283
57903SOL    HW275543   3.016  12.924   2.167
57904SOL     OW75544   0.870   5.099   1.968
57904SOL    HW175545   0.914   5.181   1.990
57904SOL    HW275546   0.922   5.031   2.013
57905SOL     OW75547   7.433   9.104  13.795
57905SOL    HW175548   7.374   9.116  13.721
57905SOL    HW275549   7.512   9.152  13.769
57906SOL     OW75550  12.639   7.247   8.103
57906SOL    HW175551  12.677   7.161   8.085
57906SOL    HW275552  12.709   7.296   8.146
57907SOL     OW75553  11.587   3.700   0.249
57907SOL    HW175554  11.564   3.672   0.337
57907SOL    HW275555  11.623   3.622   0.207
57908SOL     OW75556   3.225  12.581   4.040
57908SOL    HW175557   3.248  12.602   3.950
57908SOL    HW275558   3.193  12.491   4.036
57909SOL     OW75559   4.014   7.412  12.102
57909SOL    HW175560   3.986   7.501  12.120
57909SOL    HW275561   4.012   7.405  12.007
57910SOL     OW75562   4.729   8.143   8.018
57910SOL    HW175563   4.811   8.104   8.049
57910SOL    HW275564   4.754   8.231   7.990
57911SOL     OW75565  13.226   7.846  14.348
57911SOL    HW175566  13.265   7.925  14.311
57911SOL    HW275567  13.257   7.775  14.291
57912SOL     OW75568   8.580  14.569   3.625
57912SOL    HW175569   8.592  14.474   3.618
57912SOL    HW275570   8.500  14.579   3.677
57913SOL     OW75571   4.669   3.852  13.597
57913SOL    HW175572   4.721   3.929  13.572
57913SOL    HW275573   4.594   3.888  13.644
57914SOL     OW75574   1.130   6.404  14.870
57914SOL    HW175575   1.153   6.315   0.020
57914SOL    HW275576   1.121   6.396  14.775
57915SOL     OW75577  14.485  12.093  13.415
57915SOL    HW175578  14.561  12.147  13.393
57915SOL    HW275579  14.516  12.003  13.410
57916SOL     OW75580   8.556   0.644   6.710
57916SOL    HW175581   8.541   0.730   6.672
57916SOL    HW275582   8.561   0.659   6.804
57917SOL     OW75583   5.449   6.299   9.404
57917SOL    HW175584   5.456   6.272   9.496
57917SOL    HW275585   5.455   6.218   9.354
57918SOL     OW75586   3.677  14.266   9.325
57918SOL    HW175587   3.730  14.307   9.395
57918SOL    HW275588   3.731  14.193   9.294
57919SOL     OW75589   1.298   0.277  11.782
57919SOL    HW175590   1.272   0.267  11.691
57919SOL    HW275591   1.258   0.359  11.810
57920SOL     OW75592   3.958   4.861   6.434
57920SOL    HW175593   3.979   4.867   6.341
57920SOL    HW275594   3.991   4.774   6.460
57921SOL     OW75595   8.746  12.191  10.949
57921SOL    HW175596   8.652  12.173  10.945
57921SOL    HW275597   8.754  12.283  10.926
57922SOL     OW75598   3.370   4.365  14.487
57922SOL    HW175599   3.420   4.328  14.414
57922SOL    HW275600   3.432   4.367  14.560
57923SOL     OW75601   1.012   9.596   0.752
57923SOL    HW175602   1.082   9.662   0.751
57923SOL    HW275603   0.942   9.636   0.804
57924SOL     OW75604   1.728   4.810   2.248
57924SOL    HW175605   1.684   4.892   2.270
57924SOL    HW275606   1.790   4.834   2.179
57925SOL     OW75607  10.629  11.811   8.518
57925SOL    HW175608  10.628  11.894   8.469
57925SOL    HW275609  10.545  11.811   8.565
57926SOL     OW75610  11.062   7.457   2.373
57926SOL    HW175611  11.059   7.526   2.307
57926SOL    HW275612  11.012   7.492   2.447
57927SOL     OW75613   5.110   8.558  12.777
57927SOL    HW175614   5.152   8.594  12.699
57927SOL    HW275615   5.026   8.525  12.746
57928SOL     OW75616   5.678   0.534   3.039
57928SOL    HW175617   5.686   0.460   2.979
57928SOL    HW275618   5.766   0.544   3.077
57929SOL     OW75619   9.811   4.538   1.278
57929SOL    HW175620   9.872   4.610   1.258
57929SOL    HW275621   9.730   4.562   1.232
57930SOL     OW75622   4.658  11.641  12.550
57930SOL    HW175623   4.581  11.697  12.536
57930SOL    HW275624   4.717  11.695  12.603
57931SOL     OW75625   3.097  13.422   6.504
57931SOL    HW175626   3.146  13.342   6.522
57931SOL    HW275627   3.156  13.475   6.450
57932SOL     OW75628  10.772   3.379   8.171
57932SOL    HW175629  10.701   3.353   8.111
57932SOL    HW275630  10.817   3.449   8.125
57933SOL     OW75631   6.544   3.712   2.261
57933SOL    HW175632   6.512   3.741   2.346
57933SOL    HW275633   6.482   3.643   2.235
57934SOL     OW75634  14.490  10.826  14.621
57934SOL    HW175635  14.456  10.782  14.544
57934SOL    HW275636  14.483  10.761  14.691
57935SOL     OW75637   4.723   5.125  10.861
57935SOL    HW175638   4.782   5.130  10.936
57935SOL    HW275639   4.717   5.032  10.841
57936SOL     OW75640   3.743  14.065  10.205
57936SOL    HW175641   3.829  14.058  10.246
57936SOL    HW275642   3.694  13.989  10.236
57937SOL     OW75643   7.033   7.346  10.639
57937SOL    HW175644   7.014   7.434  10.607
57937SOL    HW275645   6.962   7.292  10.603
57938SOL     OW75646   4.668  11.965   5.785
57938SOL    HW175647   4.642  12.050   5.748
57938SOL    HW275648   4.639  11.902   5.719
57939SOL     OW75649   3.572  11.186   6.699
57939SOL    HW175650   3.488  11.232   6.699
57939SOL    HW275651   3.603  11.194   6.790
57940SOL     OW75652   2.696  12.739  12.058
57940SOL    HW175653   2.637  12.789  12.113
57940SOL    HW275654   2.735  12.675  12.117
57941SOL     OW75655   9.018  12.164   0.253
57941SOL    HW175656   9.027  12.144   0.160
57941SOL    HW275657   8.982  12.253   0.255
57942SOL     OW75658   5.211   5.726  11.229
57942SOL    HW175659   5.170   5.640  11.236
57942SOL    HW275660   5.300   5.708  11.198
57943SOL     OW75661  14.623   9.867   8.661
57943SOL    HW175662  14.617   9.963   8.668
57943SOL    HW275663  14.708   9.846   8.700
57944SOL     OW75664   0.486   9.768   6.831
57944SOL    HW175665   0.394   9.744   6.821
57944SOL    HW275666   0.487   9.832   6.902
57945SOL     OW75667   6.376   2.232   1.846
57945SOL    HW175668   6.341   2.254   1.933
57945SOL    HW275669   6.463   2.271   1.844
57946SOL     OW75670   8.549  11.742   3.455
57946SOL    HW175671   8.526  11.829   3.489
57946SOL    HW275672   8.579  11.693   3.532
57947SOL     OW75673  12.989  12.101  12.425
57947SOL    HW175674  12.933  12.140  12.357
57947SOL    HW275675  13.078  12.126  12.399
57948SOL     OW75676  13.139   4.104  11.436
57948SOL    HW175677  13.111   4.029  11.490
57948SOL    HW275678  13.201   4.151  11.491
57949SOL     OW75679   1.170   6.139   1.694
57949SOL    HW175680   1.225   6.211   1.662
57949SOL    HW275681   1.139   6.169   1.779
57950SOL     OW75682   3.120  12.153   1.297
57950SOL    HW175683   3.170  12.225   1.335
57950SOL    HW275684   3.070  12.117   1.371
57951SOL     OW75685   1.682   2.482  12.516
57951SOL    HW175686   1.635   2.544  12.460
57951SOL    HW275687   1.717   2.537  12.587
57952SOL     OW75688   6.618   3.200   3.757
57952SOL    HW175689   6.644   3.205   3.665
57952SOL    HW275690   6.664   3.272   3.799
57953SOL     OW75691   5.869   7.065   9.792
57953SOL    HW175692   5.882   7.159   9.801
57953SOL    HW275693   5.785   7.048   9.834
57954SOL     OW75694  10.062   0.053   6.252
57954SOL    HW175695  10.100   0.107   6.183
57954SOL    HW275696  10.043  14.848   6.210
57955SOL     OW75697   0.402  11.886   6.643
57955SOL    HW175698   0.417  11.802   6.598
57955SOL    HW275699   0.394  11.949   6.572
57956SOL     OW75700  11.152   2.497   7.382
57956SOL    HW175701  11.152   2.591   7.400
57956SOL    HW275702  11.061   2.470   7.395
57957SOL     OW75703  11.816   8.405   5.199
57957SOL    HW175704  11.826   8.450   5.115
57957SOL    HW275705  11.746   8.342   5.184
57958SOL     OW75706  12.145   1.721   4.622
57958SOL    HW175707  12.155   1.699   4.529
57958SOL    HW275708  12.221   1.776   4.641
57959SOL     OW75709   7.507   4.781   6.433
57959SOL    HW175710   7.573   4.851   6.439
57959SOL    HW275711   7.553   4.707   6.395
57960SOL     OW75712   2.483   3.004   9.732
57960SOL    HW175713   2.528   2.930   9.690
57960SOL    HW275714   2.548   3.041   9.792
57961SOL     OW75715   2.679   9.192   0.615
57961SOL    HW175716   2.764   9.231   0.597
57961SOL    HW275717   2.629   9.204   0.534
57962SOL     OW75718   8.629  13.042  11.104
57962SOL    HW175719   8.573  13.099  11.156
57962SOL    HW275720   8.581  13.028  11.022
57963SOL     OW75721   1.700   0.218   7.244
57963SOL    HW175722   1.688   0.128   7.215
57963SOL    HW275723   1.777   0.214   7.301
57964SOL     OW75724  11.621   3.138  11.639
57964SOL    HW175725  11.608   3.232  11.632
57964SOL    HW275726  11.580   3.114  11.722
57965SOL     OW75727   6.928   3.646   1.481
57965SOL    HW175728   6.958   3.659   1.391
57965SOL    HW275729   7.003   3.672   1.535
57966SOL     OW75730   6.670   2.280  12.099
57966SOL    HW175731   6.737   2.259  12.164
57966SOL    HW275732   6.599   2.218  12.117
57967SOL     OW75733   4.543   4.874   3.825
57967SOL    HW175734   4.477   4.942   3.837
57967SOL    HW275735   4.540   4.823   3.906
57968SOL     OW75736  14.603  12.250   5.325
57968SOL    HW175737  14.509  12.234   5.327
57968SOL    HW275738  14.637  12.185   5.263
57969SOL     OW75739   9.667   1.212   5.801
57969SOL    HW175740   9.622   1.296   5.796
57969SOL    HW275741   9.756   1.231   5.772
57970SOL     OW75742  11.177   0.681   8.017
57970SOL    HW175743  11.116   0.701   7.946
57970SOL    HW275744  11.233   0.612   7.981
57971SOL     OW75745   8.965  13.073   1.114
57971SOL    HW175746   8.975  13.146   1.175
57971SOL    HW275747   9.054  13.048   1.091
57972SOL     OW75748   0.508  14.138  11.833
57972SOL    HW175749   0.563  14.177  11.901
57972SOL    HW275750   0.515  14.198  11.759
57973SOL     OW75751   4.667  14.833  10.083
57973SOL    HW175752   4.597   0.012  10.113
57973SOL    HW275753   4.673  14.849   9.989
57974SOL     OW75754   4.242   5.117   3.315
57974SOL    HW175755   4.151   5.126   3.343
57974SOL    HW275756   4.293   5.167   3.379
57975SOL     OW75757   0.724   6.243  10.165
57975SOL    HW175758   0.676   6.258  10.083
57975SOL    HW275759   0.659   6.255  10.234
57976SOL     OW75760   9.340   8.657  10.467
57976SOL    HW175761   9.406   8.646  10.536
57976SOL    HW275762   9.257   8.662  10.513
57977SOL     OW75763   8.840  13.534  14.146
57977SOL    HW175764   8.855  13.499  14.058
57977SOL    HW275765   8.760  13.587  14.138
57978SOL     OW75766  14.473  14.162  12.925
57978SOL    HW175767  14.474  14.071  12.956
57978SOL    HW275768  14.563  14.192  12.937
57979SOL     OW75769  11.814  13.534   0.188
57979SOL    HW175770  11.862  13.597   0.134
57979SOL    HW275771  11.874  13.460   0.197
57980SOL     OW75772  10.699   3.813   0.286
57980SOL    HW175773  10.615   3.805   0.240
57980SOL    HW275774  10.681   3.782   0.375
57981SOL     OW75775   4.891   8.464   9.161
57981SOL    HW175776   4.973   8.422   9.187
57981SOL    HW275777   4.899   8.476   9.066
57982SOL     OW75778   4.412   7.154   0.776
57982SOL    HW175779   4.450   7.158   0.864
57982SOL    HW275780   4.325   7.118   0.789
57983SOL     OW75781   2.696   5.433   5.906
57983SOL    HW175782   2.785   5.425   5.874
57983SOL    HW275783   2.652   5.490   5.843
57984SOL     OW75784  11.865   6.973   0.985
57984SOL    HW175785  11.874   7.032   1.060
57984SOL    HW275786  11.831   6.892   1.022
57985SOL     OW75787  10.163   0.013  10.950
57985SOL    HW175788  10.202   0.018  11.038
57985SOL    HW275789  10.083  14.842  10.963
57986SOL     OW75790   9.887   0.441  11.482
57986SOL    HW175791   9.892   0.520  11.428
57986SOL    HW275792   9.833   0.467  11.557
57987SOL     OW75793   9.015   9.472  11.465
57987SOL    HW175794   8.989   9.564  11.455
57987SOL    HW275795   8.933   9.427  11.488
57988SOL     OW75796  10.182   1.608   8.694
57988SOL    HW175797  10.263   1.659   8.694
57988SOL    HW275798  10.128   1.648   8.625
57989SOL     OW75799   6.183   9.285   5.031
57989SOL    HW175800   6.194   9.242   5.116
57989SOL    HW275801   6.233   9.367   5.040
57990SOL     OW75802   7.699   7.511   9.411
57990SOL    HW175803   7.626   7.565   9.381
57990SOL    HW275804   7.740   7.564   9.479
57991SOL     OW75805   2.884   2.688   2.575
57991SOL    HW175806   2.881   2.641   2.658
57991SOL    HW275807   2.860   2.623   2.509
57992SOL     OW75808   4.670   1.839   9.497
57992SOL    HW175809   4.668   1.917   9.443
57992SOL    HW275810   4.695   1.769   9.437
57993SOL     OW75811   2.012  12.176   2.605
57993SOL    HW175812   1.997  12.262   2.643
57993SOL    HW275813   2.043  12.122   2.678
57994SOL     OW75814  13.884   9.925   7.622
57994SOL    HW175815  13.926   9.990   7.678
57994SOL    HW275816  13.954   9.892   7.566
57995SOL     OW75817  14.497   7.893   6.587
57995SOL    HW175818  14.445   7.916   6.510
57995SOL    HW275819  14.475   7.802   6.605
57996SOL     OW75820   6.576   4.286   0.266
57996SOL    HW175821   6.569   4.325   0.179
57996SOL    HW275822   6.494   4.240   0.279
57997SOL     OW75823   3.555  14.679   3.071
57997SOL    HW175824   3.646  14.701   3.052
57997SOL    HW275825   3.532  14.731   3.148
57998SOL     OW75826   6.052  11.484  13.033
57998SOL    HW175827   6.041  11.476  12.939
57998SOL    HW275828   6.078  11.397  13.063
57999SOL     OW75829  10.335   4.189   4.162
57999SOL    HW175830  10.251   4.174   4.204
57999SOL    HW275831  10.400   4.175   4.231
58000SOL     OW75832   6.433   0.705   4.024
58000SOL    HW175833   6.488   0.640   4.067
58000SOL    HW275834   6.385   0.656   3.958
58001SOL     OW75835   1.556  14.652   7.176
58001SOL    HW175836   1.604  14.734   7.189
58001SOL    HW275837   1.608  14.586   7.222
58002SOL     OW75838   2.137   2.172  13.947
58002SOL    HW175839   2.155   2.266  13.941
58002SOL    HW275840   2.062   2.159  13.890
58003SOL     OW75841  11.542   4.399   4.278
58003SOL    HW175842  11.455   4.405   4.238
58003SOL    HW275843  11.603   4.416   4.207
58004SOL     OW75844   2.577   2.276  13.493
58004SOL    HW175845   2.491   2.280  13.534
58004SOL    HW275846   2.607   2.186  13.510
58005SOL     OW75847   3.843  11.581   6.391
58005SOL    HW175848   3.869  11.509   6.449
58005SOL    HW275849   3.823  11.654   6.450
58006SOL     OW75850   1.185   4.251  12.746
58006SOL    HW175851   1.105   4.295  12.771
58006SOL    HW275852   1.205   4.284  12.659
58007SOL     OW75853  10.327  14.131   6.067
58007SOL    HW175854  10.257  14.074   6.100
58007SOL    HW275855  10.310  14.136   5.972
58008SOL     OW75856  13.568   3.097  10.146
58008SOL    HW175857  13.584   3.006  10.120
58008SOL    HW275858  13.597   3.101  10.237
58009SOL     OW75859   3.195   2.177   3.583
58009SOL    HW175860   3.186   2.112   3.653
58009SOL    HW275861   3.106   2.191   3.552
58010SOL     OW75862   4.876   2.587  13.819
58010SOL    HW175863   4.865   2.589  13.724
58010SOL    HW275864   4.913   2.672  13.842
58011SOL     OW75865  12.528   8.184  13.084
58011SOL    HW175866  12.522   8.091  13.064
58011SOL    HW275867  12.451   8.223  13.041
58012SOL     OW75868  14.656  14.096   4.707
58012SOL    HW175869  14.704  14.084   4.625
58012SOL    HW275870  14.607  14.014   4.718
58013SOL     OW75871   3.676  12.879   2.832
58013SOL    HW175872   3.682  12.973   2.815
58013SOL    HW275873   3.582  12.864   2.846
58014SOL     OW75874   7.074  13.483  11.252
58014SOL    HW175875   6.984  13.457  11.237
58014SOL    HW275876   7.076  13.576  11.228
58015SOL     OW75877   4.765   8.334  11.463
58015SOL    HW175878   4.800   8.325  11.552
58015SOL    HW275879   4.840   8.320  11.406
58016SOL     OW75880   7.327  11.452   0.459
58016SOL    HW175881   7.232  11.452   0.475
58016SOL    HW275882   7.352  11.360   0.466
58017SOL     OW75883   9.229   0.918  12.090
58017SOL    HW175884   9.149   0.911  12.141
58017SOL    HW275885   9.257   1.009  12.101
58018SOL     OW75886   7.154   9.002   3.813
58018SOL    HW175887   7.177   8.911   3.831
58018SOL    HW275888   7.215   9.053   3.867
58019SOL     OW75889   9.826  12.182  13.286
58019SOL    HW175890   9.862  12.234  13.358
58019SOL    HW275891   9.860  12.094  13.302
58020SOL     OW75892   7.562   7.423   3.206
58020SOL    HW175893   7.634   7.380   3.251
58020SOL    HW275894   7.592   7.432   3.116
58021SOL     OW75895   9.445   7.640  13.191
58021SOL    HW175896   9.485   7.561  13.155
58021SOL    HW275897   9.518   7.697  13.212
58022SOL     OW75898   5.176   5.830   2.759
58022SOL    HW175899   5.247   5.790   2.708
58022SOL    HW275900   5.221   5.883   2.825
58023SOL     OW75901  11.747   1.658  14.611
58023SOL    HW175902  11.824   1.704  14.645
58023SOL    HW275903  11.722   1.707  14.533
58024SOL     OW75904   6.815   3.240   0.607
58024SOL    HW175905   6.830   3.334   0.609
58024SOL    HW275906   6.855   3.207   0.687
58025SOL     OW75907   2.704   7.918  13.908
58025SOL    HW175908   2.794   7.932  13.936
58025SOL    HW275909   2.654   7.913  13.990
58026SOL     OW75910   8.032   6.370   7.185
58026SOL    HW175911   8.001   6.398   7.271
58026SOL    HW275912   8.061   6.450   7.142
58027SOL     OW75913   9.317   9.850  13.575
58027SOL    HW175914   9.244   9.828  13.633
58027SOL    HW275915   9.276   9.893  13.500
58028SOL     OW75916   7.842  10.674  11.977
58028SOL    HW175917   7.778  10.646  12.043
58028SOL    HW275918   7.915  10.614  11.988
58029SOL     OW75919   2.275   6.113   2.952
58029SOL    HW175920   2.229   6.054   3.011
58029SOL    HW275921   2.255   6.080   2.864
58030SOL     OW75922   1.099   6.269  10.831
58030SOL    HW175923   1.038   6.273  10.905
58030SOL    HW275924   1.072   6.340  10.774
58031SOL     OW75925   8.165   7.938   4.217
58031SOL    HW175926   8.252   7.977   4.204
58031SOL    HW275927   8.115   8.005   4.264
58032SOL     OW75928   2.482   4.337  13.903
58032SOL    HW175929   2.495   4.426  13.934
58032SOL    HW275930   2.541   4.329  13.829
58033SOL     OW75931   7.581   3.263  13.368
58033SOL    HW175932   7.600   3.317  13.444
58033SOL    HW275933   7.551   3.180  13.405
58034SOL     OW75934   0.876   6.408   7.825
58034SOL    HW175935   0.834   6.490   7.852
58034SOL    HW275936   0.919   6.376   7.904
58035SOL     OW75937   0.586   1.786  10.897
58035SOL    HW175938   0.552   1.843  10.828
58035SOL    HW275939   0.523   1.714  10.902
58036SOL     OW75940   3.459  13.850   0.879
58036SOL    HW175941   3.481  13.942   0.866
58036SOL    HW275942   3.544  13.807   0.890
58037SOL     OW75943   6.519   2.614   5.085
58037SOL    HW175944   6.610   2.590   5.104
58037SOL    HW275945   6.488   2.547   5.023
58038SOL     OW75946  12.237   5.891   5.827
58038SOL    HW175947  12.231   5.832   5.902
58038SOL    HW275948  12.167   5.863   5.768
58039SOL     OW75949  12.547   1.126   0.189
58039SOL    HW175950  12.604   1.201   0.206
58039SOL    HW275951  12.516   1.139   0.100
58040SOL     OW75952   4.032   8.252   5.297
58040SOL    HW175953   4.028   8.231   5.204
58040SOL    HW275954   3.949   8.220   5.332
58041SOL     OW75955  10.398  14.007   0.399
58041SOL    HW175956  10.303  14.011   0.390
58041SOL    HW275957  10.425  14.099   0.408
58042SOL     OW75958   1.051  11.366  13.645
58042SOL    HW175959   1.079  11.441  13.699
58042SOL    HW275960   0.959  11.354  13.668
58043SOL     OW75961   9.625   1.368   6.174
58043SOL    HW175962   9.673   1.430   6.119
58043SOL    HW275963   9.679   1.360   6.253
58044SOL     OW75964   9.465  10.686   9.530
58044SOL    HW175965   9.476  10.746   9.604
58044SOL    HW275966   9.381  10.643   9.546
58045SOL     OW75967  10.833  12.957   3.134
58045SOL    HW175968  10.876  13.040   3.114
58045SOL    HW275969  10.755  12.982   3.184
58046SOL     OW75970  13.231   7.581   0.791
58046SOL    HW175971  13.268   7.659   0.750
58046SOL    HW275972  13.306   7.537   0.831
58047SOL     OW75973   3.388  14.689   9.084
58047SOL    HW175974   3.339  14.628   9.139
58047SOL    HW275975   3.322  14.750   9.051
58048SOL     OW75976   6.472   3.326  11.814
58048SOL    HW175977   6.435   3.411  11.790
58048SOL    HW275978   6.489   3.283  11.730
58049SOL     OW75979   5.794   5.885   6.246
58049SOL    HW175980   5.847   5.946   6.297
58049SOL    HW275981   5.815   5.906   6.155
58050SOL     OW75982   0.654  14.174  12.037
58050SOL    HW175983   0.711  14.251  12.035
58050SOL    HW275984   0.714  14.100  12.043
58051SOL     OW75985   2.991  10.344   9.584
58051SOL    HW175986   2.983  10.430   9.626
58051SOL    HW275987   2.993  10.282   9.656
58052SOL     OW75988  12.362   6.217   8.608
58052SOL    HW175989  12.424   6.272   8.560
58052SOL    HW275990  12.287   6.208   8.548
58053SOL     OW75991   5.675   5.314   0.933
58053SOL    HW175992   5.615   5.371   0.886
58053SOL    HW275993   5.646   5.225   0.910
58054SOL     OW75994   1.675   8.356   7.218
58054SOL    HW175995   1.671   8.400   7.133
58054SOL    HW275996   1.656   8.424   7.282
58055SOL     OW75997   7.568   3.576   8.862
58055SOL    HW175998   7.654   3.614   8.880
58055SOL    HW275999   7.531   3.632   8.793
58056SOL     OW76000  10.278   0.284  11.564
58056SOL    HW176001  10.219   0.279  11.489
58056SOL    HW276002  10.228   0.332  11.631
58057SOL     OW76003  14.282   3.778   9.430
58057SOL    HW176004  14.369   3.773   9.389
58057SOL    HW276005  14.260   3.871   9.427
58058SOL     OW76006   6.626   7.923   1.734
58058SOL    HW176007   6.576   8.003   1.745
58058SOL    HW276008   6.560   7.854   1.729
58059SOL     OW76009   7.739   1.544   0.203
58059SOL    HW176010   7.646   1.532   0.224
58059SOL    HW276011   7.752   1.489   0.126
58060SOL     OW76012   1.453   3.942  14.364
58060SOL    HW176013   1.483   4.031  14.348
58060SOL    HW276014   1.366   3.938  14.324
58061SOL     OW76015  12.667   3.190  13.673
58061SOL    HW176016  12.621   3.196  13.589
58061SOL    HW276017  12.614   3.130  13.725
58062SOL     OW76018  12.536   1.194   8.767
58062SOL    HW176019  12.478   1.267   8.791
58062SOL    HW276020  12.593   1.183   8.842
58063SOL     OW76021  13.712   1.844   9.501
58063SOL    HW176022  13.705   1.857   9.407
58063SOL    HW276023  13.690   1.929   9.539
58064SOL     OW76024  10.306   9.729   5.567
58064SOL    HW176025  10.246   9.802   5.582
58064SOL    HW276026  10.256   9.667   5.514
58065SOL     OW76027   8.080   2.369   6.770
58065SOL    HW176028   8.069   2.336   6.680
58065SOL    HW276029   8.164   2.416   6.768
58066SOL     OW76030   6.734   2.848   3.371
58066SOL    HW176031   6.661   2.787   3.374
58066SOL    HW276032   6.696   2.930   3.338
58067SOL     OW76033   6.845  14.609   0.205
58067SOL    HW176034   6.858  14.571   0.118
58067SOL    HW276035   6.892  14.551   0.264
58068SOL     OW76036  10.088  13.878  12.741
58068SOL    HW176037  10.111  13.971  12.739
58068SOL    HW276038  10.089  13.856  12.834
58069SOL     OW76039   5.051   4.243   4.762
58069SOL    HW176040   5.143   4.218   4.768
58069SOL    HW276041   5.003   4.160   4.764
58070SOL     OW76042   0.119   8.305  11.213
58070SOL    HW176043   0.189   8.281  11.274
58070SOL    HW276044   0.038   8.283  11.259
58071SOL     OW76045  12.242  13.725   2.023
58071SOL    HW176046  12.315  13.665   2.034
58071SOL    HW276047  12.173  13.672   1.982
58072SOL     OW76048   6.520  12.128  14.846
58072SOL    HW176049   6.442  12.110  14.793
58072SOL    HW276050   6.531  12.049   0.020
58073SOL     OW76051  14.799   6.541  13.052
58073SOL    HW176052  14.844   6.509  12.974
58073SOL    HW276053  14.771   6.462  13.098
58074SOL     OW76054   5.232   7.862   9.834
58074SOL    HW176055   5.165   7.836   9.897
58074SOL    HW276056   5.308   7.885   9.887
58075SOL     OW76057   3.382   0.980   8.392
58075SOL    HW176058   3.416   1.054   8.442
58075SOL    HW276059   3.410   0.903   8.442
58076SOL     OW76060   8.620   1.750   6.925
58076SOL    HW176061   8.601   1.681   6.862
58076SOL    HW276062   8.679   1.710   6.988
58077SOL     OW76063  14.494   9.472   1.573
58077SOL    HW176064  14.402   9.468   1.601
58077SOL    HW276065  14.543   9.469   1.655
58078SOL     OW76066   1.205   0.959   5.403
58078SOL    HW176067   1.267   0.978   5.332
58078SOL    HW276068   1.142   0.899   5.365
58079SOL     OW76069   5.088   1.030   3.544
58079SOL    HW176070   5.115   1.108   3.495
58079SOL    HW276071   5.164   0.973   3.545
58080SOL     OW76072  13.895   9.694   0.022
58080SOL    HW176073  13.918   9.616  14.851
58080SOL    HW276074  13.931   9.679   0.109
58081SOL     OW76075  12.917  11.448  12.590
58081SOL    HW176076  12.970  11.515  12.547
58081SOL    HW276077  12.949  11.446  12.680
58082SOL     OW76078   7.007  11.438   2.718
58082SOL    HW176079   7.003  11.471   2.628
58082SOL    HW276080   7.088  11.476   2.753
58083SOL     OW76081  13.593   3.517   0.464
58083SOL    HW176082  13.658   3.580   0.435
58083SOL    HW276083  13.602   3.443   0.404
58084SOL     OW76084   7.816   5.333   0.283
58084SOL    HW176085   7.728   5.303   0.265
58084SOL    HW276086   7.817   5.352   0.377
58085SOL     OW76087   1.135   5.055   5.760
58085SOL    HW176088   1.104   4.969   5.786
58085SOL    HW276089   1.135   5.053   5.665
58086SOL     OW76090  11.795   5.475   1.355
58086SOL    HW176091  11.839   5.445   1.435
58086SOL    HW276092  11.818   5.568   1.349
58087SOL     OW76093   0.356  14.250   2.292
58087SOL    HW176094   0.313  14.322   2.337
58087SOL    HW276095   0.356  14.276   2.200
58088SOL     OW76096   4.079   8.382   6.207
58088SOL    HW176097   4.109   8.466   6.241
58088SOL    HW276098   4.151   8.322   6.226
58089SOL     OW76099   0.452   5.230  14.412
58089SOL    HW176100   0.457   5.325  14.419
58089SOL    HW276101   0.540   5.203  14.386
58090SOL     OW76102   3.218  11.550   6.064
58090SOL    HW176103   3.201  11.461   6.033
58090SOL    HW276104   3.313  11.559   6.061
58091SOL     OW76105   0.267   2.765   1.862
58091SOL    HW176106   0.317   2.838   1.826
58091SOL    HW276107   0.324   2.689   1.852
58092SOL     OW76108   3.166   2.718  13.243
58092SOL    HW176109   3.179   2.655  13.173
58092SOL    HW276110   3.238   2.702  13.304
58093SOL     OW76111  12.963   7.017  11.619
58093SOL    HW176112  13.036   6.958  11.604
58093SOL    HW276113  12.998   7.084  11.679
58094SOL     OW76114   1.778   2.347   8.366
58094SOL    HW176115   1.826   2.285   8.421
58094SOL    HW276116   1.846   2.397   8.321
58095SOL     OW76117  11.775  12.872   4.500
58095SOL    HW176118  11.860  12.862   4.543
58095SOL    HW276119  11.746  12.782   4.483
58096SOL     OW76120  12.194   3.601   8.722
58096SOL    HW176121  12.173   3.671   8.783
58096SOL    HW276122  12.121   3.539   8.730
58097SOL     OW76123   1.312   7.741  10.763
58097SOL    HW176124   1.351   7.807  10.821
58097SOL    HW276125   1.305   7.663  10.817
58098SOL     OW76126   6.579  14.105   9.691
58098SOL    HW176127   6.509  14.139   9.636
58098SOL    HW276128   6.659  14.140   9.652
58099SOL     OW76129   1.276  11.045  10.848
58099SOL    HW176130   1.319  11.062  10.764
58099SOL    HW276131   1.348  11.030  10.909
58100SOL     OW76132  14.797   7.136   8.088
58100SOL    HW176133  14.750   7.053   8.090
58100SOL    HW276134  14.801   7.158   7.995
58101SOL     OW76135  10.236   9.597  13.534
58101SOL    HW176136  10.222   9.503  13.540
58101SOL    HW276137  10.300   9.616  13.603
58102SOL     OW76138  11.052   1.190   6.240
58102SOL    HW176139  11.047   1.284   6.222
58102SOL    HW276140  10.961   1.162   6.248
58103SOL     OW76141   5.162   4.839  13.622
58103SOL    HW176142   5.214   4.886  13.688
58103SOL    HW276143   5.171   4.893  13.543
58104SOL     OW76144   4.343   1.153  12.899
58104SOL    HW176145   4.424   1.181  12.941
58104SOL    HW276146   4.353   1.058  12.890
58105SOL     OW76147  10.839  13.124  13.705
58105SOL    HW176148  10.760  13.076  13.730
58105SOL    HW276149  10.806  13.205  13.666
58106SOL     OW76150  10.782  10.520   6.113
58106SOL    HW176151  10.870  10.545   6.142
58106SOL    HW276152  10.782  10.424   6.116
58107SOL     OW76153   9.510  12.851   3.484
58107SOL    HW176154   9.604  12.836   3.475
58107SOL    HW276155   9.501  12.946   3.477
58108SOL     OW76156   0.283  13.081  10.923
58108SOL    HW176157   0.321  13.005  10.967
58108SOL    HW276158   0.355  13.144  10.919
58109SOL     OW76159   0.751   7.673  11.575
58109SOL    HW176160   0.770   7.597  11.630
58109SOL    HW276161   0.734   7.636  11.488
58110SOL     OW76162   1.438   8.025  13.511
58110SOL    HW176163   1.370   7.957  13.516
58110SOL    HW276164   1.393   8.105  13.537
58111SOL     OW76165   7.703  11.532  13.081
58111SOL    HW176166   7.774  11.469  13.070
58111SOL    HW276167   7.716  11.595  13.009
58112SOL     OW76168  13.279  10.413   5.292
58112SOL    HW176169  13.287  10.360   5.371
58112SOL    HW276170  13.303  10.353   5.221
58113SOL     OW76171  14.112   5.668   9.456
58113SOL    HW176172  14.083   5.603   9.392
58113SOL    HW276173  14.066   5.644   9.537
58114SOL     OW76174   3.829   2.641   9.756
58114SOL    HW176175   3.901   2.587   9.788
58114SOL    HW276176   3.870   2.724   9.730
58115SOL     OW76177   1.874   0.657   6.557
58115SOL    HW176178   1.924   0.605   6.493
58115SOL    HW276179   1.803   0.696   6.506
58116SOL     OW76180   4.753   2.134   9.920
58116SOL    HW176181   4.757   2.216   9.870
58116SOL    HW276182   4.768   2.066   9.854
58117SOL     OW76183   8.669   8.353  12.258
58117SOL    HW176184   8.724   8.279  12.284
58117SOL    HW276185   8.731   8.421  12.233
58118SOL     OW76186   5.712   0.036   7.640
58118SOL    HW176187   5.626   0.034   7.682
58118SOL    HW276188   5.730  14.824   7.617
58119SOL     OW76189  12.604   9.579  11.859
58119SOL    HW176190  12.522   9.531  11.845
58119SOL    HW276191  12.598   9.610  11.950
58120SOL     OW76192   8.562  14.199  14.765
58120SOL    HW176193   8.567  14.110  14.730
58120SOL    HW276194   8.484  14.237  14.724
58121SOL     OW76195  10.590   3.354   3.457
58121SOL    HW176196  10.672   3.362   3.507
58121SOL    HW276197  10.609   3.286   3.392
58122SOL     OW76198  12.968  10.694   5.331
58122SOL    HW176199  13.056  10.716   5.300
58122SOL    HW276200  12.982  10.657   5.418
58123SOL     OW76201   1.898   7.351   7.317
58123SOL    HW176202   1.965   7.286   7.336
58123SOL    HW276203   1.816   7.301   7.312
58124SOL     OW76204   5.961   6.053   3.798
58124SOL    HW176205   6.032   6.066   3.861
58124SOL    HW276206   5.980   6.115   3.727
58125SOL     OW76207   2.649   4.345  13.667
58125SOL    HW176208   2.683   4.431  13.643
58125SOL    HW276209   2.621   4.307  13.584
58126SOL     OW76210   2.976   7.627  10.497
58126SOL    HW176211   2.975   7.532  10.498
58126SOL    HW276212   2.993   7.652  10.589
58127SOL     OW76213  12.867   6.271  14.095
58127SOL    HW176214  12.942   6.220  14.065
58127SOL    HW276215  12.849   6.238  14.184
58128SOL     OW76216  13.643  11.671   2.152
58128SOL    HW176217  13.626  11.759   2.118
58128SOL    HW276218  13.735  11.654   2.130
58129SOL     OW76219  12.458   2.334  11.665
58129SOL    HW176220  12.447   2.416  11.616
58129SOL    HW276221  12.372   2.293  11.663
58130SOL     OW76222  12.339   3.858   2.169
58130SOL    HW176223  12.341   3.807   2.089
58130SOL    HW276224  12.380   3.802   2.235
58131SOL     OW76225   8.456   6.407   5.847
58131SOL    HW176226   8.462   6.445   5.759
58131SOL    HW276227   8.542   6.422   5.886
58132SOL     OW76228   4.255   8.171  10.022
58132SOL    HW176229   4.339   8.181  10.066
58132SOL    HW276230   4.254   8.080   9.994
58133SOL     OW76231   8.648  13.141   5.300
58133SOL    HW176232   8.692  13.219   5.333
58133SOL    HW276233   8.589  13.174   5.232
58134SOL     OW76234   3.959   3.612   7.514
58134SOL    HW176235   3.917   3.599   7.429
58134SOL    HW276236   4.033   3.671   7.496
58135SOL     OW76237   4.335  13.675  14.298
58135SOL    HW176238   4.390  13.731  14.244
58135SOL    HW276239   4.263  13.732  14.327
58136SOL     OW76240  13.346   3.227  10.368
58136SOL    HW176241  13.299   3.306  10.339
58136SOL    HW276242  13.319   3.159  10.306
58137SOL     OW76243  11.490  13.379   9.213
58137SOL    HW176244  11.527  13.408   9.129
58137SOL    HW276245  11.506  13.284   9.214
58138SOL     OW76246  10.206   4.226  13.988
58138SOL    HW176247  10.128   4.279  13.972
58138SOL    HW276248  10.172   4.142  14.019
58139SOL     OW76249   4.030  11.585   4.124
58139SOL    HW176250   3.983  11.608   4.044
58139SOL    HW276251   3.983  11.509   4.158
58140SOL     OW76252   3.051   8.387  14.396
58140SOL    HW176253   3.038   8.338  14.477
58140SOL    HW276254   2.975   8.364  14.342
58141SOL     OW76255  11.299   3.967  10.582
58141SOL    HW176256  11.228   4.018  10.621
58141SOL    HW276257  11.376   3.993  10.632
58142SOL     OW76258   6.137  10.610  12.309
58142SOL    HW176259   6.221  10.588  12.349
58142SOL    HW276260   6.091  10.660  12.376
58143SOL     OW76261   4.905   6.781  12.655
58143SOL    HW176262   4.811   6.793  12.639
58143SOL    HW276263   4.911   6.703  12.709
58144SOL     OW76264  12.493   5.009   3.660
58144SOL    HW176265  12.564   4.961   3.618
58144SOL    HW276266  12.432   4.942   3.690
58145SOL     OW76267  14.230   8.414  12.989
58145SOL    HW176268  14.242   8.433  12.896
58145SOL    HW276269  14.279   8.333  13.004
58146SOL     OW76270   6.894   0.948   4.436
58146SOL    HW176271   6.965   0.892   4.466
58146SOL    HW276272   6.836   0.890   4.387
58147SOL     OW76273  12.355   3.725  14.236
58147SOL    HW176274  12.435   3.741  14.186
58147SOL    HW276275  12.383   3.669  14.309
58148SOL     OW76276   1.997   3.974  14.182
58148SOL    HW176277   1.911   3.968  14.223
58148SOL    HW276278   2.059   3.959  14.253
58149SOL     OW76279   3.443   0.257  11.070
58149SOL    HW176280   3.354   0.281  11.099
58149SOL    HW276281   3.491   0.340  11.069
58150SOL     OW76282   4.376   4.084  13.399
58150SOL    HW176283   4.443   4.120  13.342
58150SOL    HW276284   4.294   4.124  13.369
58151SOL     OW76285   0.965   8.067  12.142
58151SOL    HW176286   1.055   8.084  12.111
58151SOL    HW276287   0.960   8.112  12.226
58152SOL     OW76288   2.688   1.590   4.208
58152SOL    HW176289   2.678   1.598   4.114
58152SOL    HW276290   2.781   1.574   4.222
58153SOL     OW76291   1.350   1.845  11.937
58153SOL    HW176292   1.422   1.908  11.945
58153SOL    HW276293   1.381   1.781  11.873
58154SOL     OW76294  13.110  14.045  14.293
58154SOL    HW176295  13.017  14.056  14.310
58154SOL    HW276296  13.149  14.129  14.318
58155SOL     OW76297   0.831   5.399   7.604
58155SOL    HW176298   0.810   5.382   7.696
58155SOL    HW276299   0.777   5.474   7.581
58156SOL     OW76300   5.766  11.711   3.068
58156SOL    HW176301   5.746  11.650   2.997
58156SOL    HW276302   5.861  11.721   3.066
58157SOL     OW76303   4.713   9.412   4.438
58157SOL    HW176304   4.778   9.361   4.390
58157SOL    HW276305   4.755   9.430   4.522
58158SOL     OW76306   8.916  13.377   5.107
58158SOL    HW176307   8.989  13.318   5.128
58158SOL    HW276308   8.939  13.413   5.021
58159SOL     OW76309  11.544  10.712   0.401
58159SOL    HW176310  11.476  10.779   0.407
58159SOL    HW276311  11.622  10.759   0.371
58160SOL     OW76312   8.392   3.232   6.006
58160SOL    HW176313   8.413   3.139   6.016
58160SOL    HW276314   8.466   3.278   6.046
58161SOL     OW76315   2.925  10.714   3.859
58161SOL    HW176316   2.923  10.628   3.902
58161SOL    HW276317   2.988  10.765   3.910
58162SOL     OW76318   9.313  13.364   6.338
58162SOL    HW176319   9.296  13.435   6.400
58162SOL    HW276320   9.227  13.322   6.326
58163SOL     OW76321   3.287   2.395   7.306
58163SOL    HW176322   3.315   2.341   7.232
58163SOL    HW276323   3.359   2.390   7.368
58164SOL     OW76324  10.747   2.540  11.627
58164SOL    HW176325  10.838   2.570  11.629
58164SOL    HW276326  10.743   2.471  11.694
58165SOL     OW76327   0.634  10.607   7.659
58165SOL    HW176328   0.627  10.523   7.613
58165SOL    HW276329   0.674  10.666   7.594
58166SOL     OW76330   4.772   8.190   9.028
58166SOL    HW176331   4.777   8.270   9.081
58166SOL    HW276332   4.859   8.151   9.036
58167SOL     OW76333  12.456   7.346   7.109
58167SOL    HW176334  12.418   7.430   7.136
58167SOL    HW276335  12.436   7.286   7.180
58168SOL     OW76336  14.136   1.233  10.729
58168SOL    HW176337  14.208   1.290  10.757
58168SOL    HW276338  14.057   1.283  10.751
58169SOL     OW76339   6.491   5.146   9.739
58169SOL    HW176340   6.493   5.053   9.762
58169SOL    HW276341   6.559   5.156   9.673
58170SOL     OW76342   9.464   7.726   3.990
58170SOL    HW176343   9.466   7.792   3.920
58170SOL    HW276344   9.424   7.771   4.064
58171SOL     OW76345  11.624   9.998  13.032
58171SOL    HW176346  11.713  10.001  13.068
58171SOL    HW276347  11.577   9.938  13.090
58172SOL     OW76348  12.639   7.296   7.582
58172SOL    HW176349  12.703   7.243   7.535
58172SOL    HW276350  12.554   7.267   7.549
58173SOL     OW76351   2.801   4.068  11.698
58173SOL    HW176352   2.817   4.039  11.609
58173SOL    HW276353   2.869   4.024  11.750
58174SOL     OW76354   6.284   8.283  10.363
58174SOL    HW176355   6.226   8.291  10.288
58174SOL    HW276356   6.295   8.372  10.395
58175SOL     OW76357   3.163   1.037   7.028
58175SOL    HW176358   3.217   1.105   7.069
58175SOL    HW276359   3.097   1.016   7.094
58176SOL     OW76360  10.286   1.517   2.038
58176SOL    HW176361  10.208   1.556   2.076
58176SOL    HW276362  10.315   1.580   1.972
58177SOL     OW76363   2.393   3.313   0.580
58177SOL    HW176364   2.480   3.277   0.598
58177SOL    HW276365   2.369   3.275   0.495
58178SOL     OW76366   3.123  10.752   1.041
58178SOL    HW176367   3.155  10.704   1.117
58178SOL    HW276368   3.166  10.837   1.047
58179SOL     OW76369   7.605  10.936   0.993
58179SOL    HW176370   7.564  10.960   0.910
58179SOL    HW276371   7.661  10.861   0.972
58180SOL     OW76372   2.652   1.590   9.694
58180SOL    HW176373   2.689   1.506   9.720
58180SOL    HW276374   2.569   1.596   9.741
58181SOL     OW76375   0.273   4.501  10.014
58181SOL    HW176376   0.242   4.413  10.031
58181SOL    HW276377   0.207   4.540   9.956
58182SOL     OW76378  13.788   8.000   7.644
58182SOL    HW176379  13.712   8.023   7.590
58182SOL    HW276380  13.784   7.904   7.651
58183SOL     OW76381  10.059   4.288   5.644
58183SOL    HW176382  10.096   4.376   5.635
58183SOL    HW276383  10.071   4.266   5.736
58184SOL     OW76384   2.930  12.745   8.949
58184SOL    HW176385   2.842  12.758   8.984
58184SOL    HW276386   2.921  12.757   8.855
58185SOL     OW76387   5.495  10.797   7.647
58185SOL    HW176388   5.543  10.769   7.725
58185SOL    HW276389   5.484  10.891   7.657
58186SOL     OW76390   0.759   6.235  12.730
58186SOL    HW176391   0.831   6.270  12.783
58186SOL    HW276392   0.734   6.154  12.774
58187SOL     OW76393  14.083   2.525   7.279
58187SOL    HW176394  14.080   2.601   7.337
58187SOL    HW276395  14.169   2.486   7.296
58188SOL     OW76396  11.322  14.733   0.243
58188SOL    HW176397  11.308  14.679   0.165
58188SOL    HW276398  11.296  14.821   0.216
58189SOL     OW76399   7.476  13.795  14.346
58189SOL    HW176400   7.392  13.801  14.390
58189SOL    HW276401   7.541  13.810  14.415
58190SOL     OW76402   0.598  12.357   2.786
58190SOL    HW176403   0.657  12.389   2.854
58190SOL    HW276404   0.549  12.434   2.758
58191SOL     OW76405   1.764  13.042  14.055
58191SOL    HW176406   1.826  13.107  14.089
58191SOL    HW276407   1.705  13.093  13.998
58192SOL     OW76408  12.928   1.114  13.339
58192SOL    HW176409  12.853   1.155  13.297
58192SOL    HW276410  13.004   1.149  13.292
58193SOL     OW76411  11.575   8.078   2.468
58193SOL    HW176412  11.581   8.003   2.527
58193SOL    HW276413  11.633   8.055   2.395
58194SOL     OW76414   7.271   5.742   3.527
58194SOL    HW176415   7.187   5.770   3.562
58194SOL    HW276416   7.308   5.821   3.488
58195SOL     OW76417  10.430   6.085   8.806
58195SOL    HW176418  10.461   5.995   8.819
58195SOL    HW276419  10.422   6.120   8.895
58196SOL     OW76420   9.818   5.409  11.756
58196SOL    HW176421   9.835   5.317  11.775
58196SOL    HW276422   9.786   5.409  11.665
58197SOL     OW76423   2.868  14.396   5.367
58197SOL    HW176424   2.893  14.457   5.297
58197SOL    HW276425   2.906  14.433   5.446
58198SOL     OW76426  14.133   2.186  14.793
58198SOL    HW176427  14.196   2.240  14.842
58198SOL    HW276428  14.179   2.104  14.778
58199SOL     OW76429   0.060   3.779  11.853
58199SOL    HW176430   0.021   3.699  11.816
58199SOL    HW276431   0.009   3.850  11.813
58200SOL     OW76432   8.668   3.143   0.751
58200SOL    HW176433   8.606   3.115   0.684
58200SOL    HW276434   8.656   3.238   0.757
58201SOL     OW76435   5.947   2.995   6.026
58201SOL    HW176436   5.964   3.000   6.121
58201SOL    HW276437   5.925   3.085   6.001
58202SOL     OW76438   4.189   2.584   4.351
58202SOL    HW176439   4.240   2.665   4.347
58202SOL    HW276440   4.172   2.562   4.260
58203SOL     OW76441  11.178  11.034  14.372
58203SOL    HW176442  11.095  11.081  14.365
58203SOL    HW276443  11.153  10.941  14.375
58204SOL     OW76444   2.648   7.142  11.831
58204SOL    HW176445   2.713   7.145  11.760
58204SOL    HW276446   2.699   7.158  11.910
58205SOL     OW76447   0.016   6.893   6.352
58205SOL    HW176448  14.814   6.843   6.367
58205SOL    HW276449   0.074   6.830   6.309
58206SOL     OW76450  10.152   6.777   9.160
58206SOL    HW176451  10.069   6.764   9.113
58206SOL    HW276452  10.149   6.868   9.190
58207SOL     OW76453   1.490   3.440  13.659
58207SOL    HW176454   1.509   3.394  13.577
58207SOL    HW276455   1.449   3.373  13.714
58208SOL     OW76456   7.836  11.443   8.951
58208SOL    HW176457   7.844  11.382   8.877
58208SOL    HW276458   7.742  11.442   8.972
58209SOL     OW76459  11.399   0.509   3.604
58209SOL    HW176460  11.380   0.415   3.603
58209SOL    HW276461  11.407   0.531   3.696
58210SOL     OW76462  11.677  11.143   1.538
58210SOL    HW176463  11.698  11.178   1.452
58210SOL    HW276464  11.645  11.054   1.521
58211SOL     OW76465  11.482   4.488   9.159
58211SOL    HW176466  11.460   4.532   9.241
58211SOL    HW276467  11.403   4.496   9.106
58212SOL     OW76468  10.175   1.693   1.039
58212SOL    HW176469  10.143   1.765   0.985
58212SOL    HW276470  10.162   1.723   1.129
58213SOL     OW76471   5.588   9.468   9.202
58213SOL    HW176472   5.531   9.393   9.218
58213SOL    HW276473   5.665   9.431   9.159
58214SOL     OW76474  14.520   8.665  11.430
58214SOL    HW176475  14.486   8.728  11.494
58214SOL    HW276476  14.555   8.594  11.483
58215SOL     OW76477  13.734   5.838  11.572
58215SOL    HW176478  13.760   5.918  11.528
58215SOL    HW276479  13.816   5.795  11.596
58216SOL     OW76480  12.383   8.609  10.556
58216SOL    HW176481  12.310   8.568  10.603
58216SOL    HW276482  12.341   8.674  10.499
58217SOL     OW76483   6.766   8.588  14.033
58217SOL    HW176484   6.693   8.622  14.085
58217SOL    HW276485   6.805   8.666  13.993
58218SOL     OW76486   3.170  13.283  12.709
58218SOL    HW176487   3.237  13.214  12.709
58218SOL    HW276488   3.105  13.253  12.645
58219SOL     OW76489  12.499   6.219   8.298
58219SOL    HW176490  12.554   6.241   8.223
58219SOL    HW276491  12.560   6.201   8.369
58220SOL     OW76492  12.661   1.293  12.588
58220SOL    HW176493  12.669   1.235  12.665
58220SOL    HW276494  12.679   1.380  12.622
58221SOL     OW76495   4.980   3.683  10.504
58221SOL    HW176496   5.075   3.684  10.520
58221SOL    HW276497   4.942   3.669  10.591
58222SOL     OW76498  11.233  14.789   2.015
58222SOL    HW176499  11.187  14.761   2.095
58222SOL    HW276500  11.176  14.855   1.976
58223SOL     OW76501   1.653   2.517   7.710
58223SOL    HW176502   1.560   2.540   7.715
58223SOL    HW276503   1.695   2.574   7.775
58224SOL     OW76504   0.255  13.502   9.527
58224SOL    HW176505   0.238  13.447   9.603
58224SOL    HW276506   0.202  13.464   9.457
58225SOL     OW76507  10.484  10.218   7.808
58225SOL    HW176508  10.419  10.178   7.867
58225SOL    HW276509  10.433  10.245   7.732
58226SOL     OW76510   6.791   7.344  11.717
58226SOL    HW176511   6.729   7.287  11.762
58226SOL    HW276512   6.760   7.347  11.627
58227SOL     OW76513   1.826   7.767   4.899
58227SOL    HW176514   1.744   7.735   4.861
58227SOL    HW276515   1.871   7.687   4.929
58228SOL     OW76516   6.706   2.901   5.580
58228SOL    HW176517   6.629   2.952   5.603
58228SOL    HW276518   6.710   2.833   5.648
58229SOL     OW76519   8.382   8.062   7.919
58229SOL    HW176520   8.386   7.968   7.900
58229SOL    HW276521   8.293   8.076   7.950
58230SOL     OW76522   7.440  12.761   8.347
58230SOL    HW176523   7.397  12.761   8.433
58230SOL    HW276524   7.387  12.818   8.293
58231SOL     OW76525  10.557   9.205   5.483
58231SOL    HW176526  10.602   9.133   5.528
58231SOL    HW276527  10.618   9.279   5.490
58232SOL     OW76528  11.537   0.617  14.809
58232SOL    HW176529  11.598   0.563  14.859
58232SOL    HW276530  11.476   0.555  14.770
58233SOL     OW76531   7.752   2.625   2.678
58233SOL    HW176532   7.673   2.584   2.644
58233SOL    HW276533   7.765   2.702   2.623
58234SOL     OW76534   7.687  12.836   4.172
58234SOL    HW176535   7.674  12.856   4.264
58234SOL    HW276536   7.673  12.742   4.166
58235SOL     OW76537  12.263  14.759   4.630
58235SOL    HW176538  12.243  14.822   4.699
58235SOL    HW276539  12.342  14.794   4.588
58236SOL     OW76540   6.966  11.259   5.663
58236SOL    HW176541   7.019  11.206   5.723
58236SOL    HW276542   6.888  11.283   5.713
58237SOL     OW76543   2.315  12.039   6.316
58237SOL    HW176544   2.275  11.952   6.309
58237SOL    HW276545   2.380  12.041   6.245
58238SOL     OW76546   6.727   3.927   2.590
58238SOL    HW176547   6.713   3.888   2.676
58238SOL    HW276548   6.753   3.853   2.534
58239SOL     OW76549   1.467   7.758  13.783
58239SOL    HW176550   1.441   7.764  13.875
58239SOL    HW276551   1.492   7.666  13.771
58240SOL     OW76552  11.993   0.110  10.783
58240SOL    HW176553  11.923   0.081  10.841
58240SOL    HW276554  12.043   0.031  10.763
58241SOL     OW76555   4.511   7.908   5.619
58241SOL    HW176556   4.433   7.893   5.566
58241SOL    HW276557   4.521   8.003   5.623
58242SOL     OW76558   9.131   3.832   4.604
58242SOL    HW176559   9.142   3.910   4.659
58242SOL    HW276560   9.140   3.759   4.665
58243SOL     OW76561  10.957   8.770   0.912
58243SOL    HW176562  10.930   8.679   0.903
58243SOL    HW276563  10.943   8.808   0.825
58244SOL     OW76564   5.161   1.355  11.238
58244SOL    HW176565   5.242   1.366  11.188
58244SOL    HW276566   5.140   1.262  11.229
58245SOL     OW76567   3.601   0.616   3.453
58245SOL    HW176568   3.575   0.577   3.536
58245SOL    HW276569   3.642   0.699   3.477
58246SOL     OW76570   2.275  13.872   1.290
58246SOL    HW176571   2.297  13.964   1.275
58246SOL    HW276572   2.332  13.824   1.230
58247SOL     OW76573   4.606   0.580  10.915
58247SOL    HW176574   4.527   0.526  10.924
58247SOL    HW276575   4.677   0.526  10.950
58248SOL     OW76576   4.711   9.573   0.710
58248SOL    HW176577   4.737   9.652   0.663
58248SOL    HW276578   4.615   9.571   0.701
58249SOL     OW76579   3.308  11.995   5.790
58249SOL    HW176580   3.218  12.029   5.788
58249SOL    HW276581   3.304  11.921   5.850
58250SOL     OW76582  14.491   8.193   3.856
58250SOL    HW176583  14.548   8.255   3.812
58250SOL    HW276584  14.551   8.136   3.904
58251SOL     OW76585   6.747  12.649  13.692
58251SOL    HW176586   6.768  12.742  13.705
58251SOL    HW276587   6.806  12.603  13.753
58252SOL     OW76588   1.895   9.021   5.406
58252SOL    HW176589   1.869   9.020   5.314
58252SOL    HW276590   1.849   9.096   5.443
58253SOL     OW76591  10.646  13.328   6.328
58253SOL    HW176592  10.735  13.349   6.354
58253SOL    HW276593  10.634  13.236   6.354
58254SOL     OW76594  10.155   5.253   3.027
58254SOL    HW176595  10.136   5.254   2.933
58254SOL    HW276596  10.248   5.230   3.033
58255SOL     OW76597   2.984   9.103   7.980
58255SOL    HW176598   3.009   9.137   7.894
58255SOL    HW276599   2.960   9.012   7.964
58256SOL     OW76600   1.716  11.539  11.683
58256SOL    HW176601   1.630  11.500  11.664
58256SOL    HW276602   1.695  11.625  11.720
58257SOL     OW76603   8.274   8.631   5.360
58257SOL    HW176604   8.343   8.576   5.397
58257SOL    HW276605   8.194   8.578   5.371
58258SOL     OW76606  13.268   4.235  10.148
58258SOL    HW176607  13.347   4.184  10.130
58258SOL    HW276608  13.196   4.172  10.141
58259SOL     OW76609  10.194  14.743   6.032
58259SOL    HW176610  10.287  14.741   6.054
58259SOL    HW276611  10.157  14.668   6.078
58260SOL     OW76612   2.503   2.808   8.949
58260SOL    HW176613   2.542   2.896   8.945
58260SOL    HW276614   2.420   2.820   8.994
58261SOL     OW76615  12.077  11.629   7.477
58261SOL    HW176616  11.997  11.577   7.488
58261SOL    HW276617  12.066  11.703   7.538
58262SOL     OW76618   1.548   3.275  10.444
58262SOL    HW176619   1.587   3.197  10.404
58262SOL    HW276620   1.471   3.242  10.490
58263SOL     OW76621   4.583  14.799  11.532
58263SOL    HW176622   4.665  14.833  11.496
58263SOL    HW276623   4.546  14.873  11.581
58264SOL     OW76624  14.754   0.457  13.781
58264SOL    HW176625  14.719   0.421  13.863
58264SOL    HW276626  14.803   0.385  13.742
58265SOL     OW76627  11.875  11.037   9.568
58265SOL    HW176628  11.860  11.044   9.474
58265SOL    HW276629  11.893  10.944   9.583
58266SOL     OW76630  13.909  11.667   7.819
58266SOL    HW176631  13.911  11.657   7.914
58266SOL    HW276632  13.827  11.712   7.800
58267SOL     OW76633  13.284   6.776  12.850
58267SOL    HW176634  13.269   6.714  12.778
58267SOL    HW276635  13.338   6.844  12.811
58268SOL     OW76636  12.921   3.431   7.564
58268SOL    HW176637  12.953   3.441   7.654
58268SOL    HW276638  12.938   3.340   7.542
58269SOL     OW76639   5.599  10.220  13.278
58269SOL    HW176640   5.597  10.187  13.368
58269SOL    HW276641   5.526  10.282  13.273
58270SOL     OW76642   7.803   0.890  12.713
58270SOL    HW176643   7.890   0.854  12.729
58270SOL    HW276644   7.801   0.908  12.619
58271SOL     OW76645   1.622  12.134   4.380
58271SOL    HW176646   1.621  12.210   4.438
58271SOL    HW276647   1.712  12.132   4.346
58272SOL     OW76648  10.523   7.535   1.137
58272SOL    HW176649  10.534   7.594   1.211
58272SOL    HW276650  10.610   7.501   1.118
58273SOL     OW76651  11.097  11.331  10.027
58273SOL    HW176652  11.124  11.338   9.935
58273SOL    HW276653  11.077  11.238  10.039
58274SOL     OW76654  13.507   2.408   9.885
58274SOL    HW176655  13.475   2.449   9.804
58274SOL    HW276656  13.519   2.316   9.861
58275SOL     OW76657  13.278  13.888  10.953
58275SOL    HW176658  13.242  13.810  10.910
58275SOL    HW276659  13.220  13.903  11.028
58276SOL     OW76660  13.846   9.431  13.574
58276SOL    HW176661  13.882   9.400  13.658
58276SOL    HW276662  13.751   9.423  13.585
58277SOL     OW76663   6.983  14.757   8.942
58277SOL    HW176664   6.969  14.730   9.032
58277SOL    HW276665   7.071  14.726   8.921
58278SOL     OW76666   7.940   6.656   5.511
58278SOL    HW176667   7.983   6.670   5.595
58278SOL    HW276668   7.884   6.733   5.500
58279SOL     OW76669  13.943   7.507  10.959
58279SOL    HW176670  13.987   7.475  11.038
58279SOL    HW276671  13.869   7.558  10.992
58280SOL     OW76672   7.696   3.957   8.386
58280SOL    HW176673   7.753   4.034   8.389
58280SOL    HW276674   7.724   3.905   8.461
58281SOL     OW76675  12.247   7.496  14.029
58281SOL    HW176676  12.284   7.583  14.047
58281SOL    HW276677  12.216   7.465  14.114
58282SOL     OW76678  13.882   2.931   1.937
58282SOL    HW176679  13.796   2.928   1.895
58282SOL    HW276680  13.911   2.839   1.940
58283SOL     OW76681   0.980  12.855   8.890
58283SOL    HW176682   0.900  12.876   8.842
58283SOL    HW276683   0.965  12.891   8.978
58284SOL     OW76684   0.029   9.730  13.098
58284SOL    HW176685  14.852   9.659  13.130
58284SOL    HW276686   0.065   9.698  13.015
58285SOL     OW76687   6.343   0.435   0.043
58285SOL    HW176688   6.256   0.424   0.005
58285SOL    HW276689   6.339   0.390   0.127
58286SOL     OW76690   0.277  12.829   2.221
58286SOL    HW176691   0.241  12.908   2.180
58286SOL    HW276692   0.323  12.784   2.150
58287SOL     OW76693   7.131   6.374   0.656
58287SOL    HW176694   7.174   6.371   0.570
58287SOL    HW276695   7.120   6.282   0.680
58288SOL     OW76696   7.983  11.663   7.896
58288SOL    HW176697   7.897  11.642   7.933
58288SOL    HW276698   7.997  11.596   7.830
58289SOL     OW76699   6.474  13.103   8.943
58289SOL    HW176700   6.498  13.011   8.948
58289SOL    HW276701   6.520  13.144   9.017
58290SOL     OW76702  13.827   3.385  14.855
58290SOL    HW176703  13.874   3.344  14.782
58290SOL    HW276704  13.741   3.341  14.856
58291SOL     OW76705  10.457  10.622  10.477
58291SOL    HW176706  10.431  10.709  10.507
58291SOL    HW276707  10.552  10.628  10.464
58292SOL     OW76708   9.587  14.124   7.484
58292SOL    HW176709   9.670  14.129   7.437
58292SOL    HW276710   9.611  14.100   7.574
58293SOL     OW76711  13.463   9.119  10.457
58293SOL    HW176712  13.534   9.074  10.411
58293SOL    HW276713  13.503   9.150  10.538
58294SOL     OW76714  12.077   4.711   9.522
58294SOL    HW176715  12.001   4.732   9.467
58294SOL    HW276716  12.083   4.785   9.583
58295SOL     OW76717   8.226  10.466   7.804
58295SOL    HW176718   8.290  10.399   7.829
58295SOL    HW276719   8.176  10.482   7.884
58296SOL     OW76720   3.577  12.226  11.673
58296SOL    HW176721   3.554  12.314  11.702
58296SOL    HW276722   3.572  12.172  11.752
58297SOL     OW76723   6.451   3.746   3.450
58297SOL    HW176724   6.472   3.657   3.479
58297SOL    HW276725   6.535   3.792   3.453
58298SOL     OW76726   6.416   1.613   4.980
58298SOL    HW176727   6.413   1.703   5.012
58298SOL    HW276728   6.505   1.602   4.947
58299SOL     OW76729   9.838  10.411   3.910
58299SOL    HW176730   9.760  10.356   3.915
58299SOL    HW276731   9.811  10.495   3.947
58300SOL     OW76732   1.775   1.988   3.191
58300SOL    HW176733   1.818   2.009   3.274
58300SOL    HW276734   1.828   1.917   3.154
58301SOL     OW76735   0.541  12.487  10.350
58301SOL    HW176736   0.466  12.452  10.397
58301SOL    HW276737   0.614  12.429  10.373
58302SOL     OW76738  10.086   1.644   7.206
58302SOL    HW176739  10.125   1.557   7.219
58302SOL    HW276740   9.993   1.632   7.227
58303SOL     OW76741  10.441   9.662   0.662
58303SOL    HW176742  10.470   9.625   0.579
58303SOL    HW276743  10.346   9.667   0.655
58304SOL     OW76744  14.709   1.358   1.051
58304SOL    HW176745  14.768   1.408   1.108
58304SOL    HW276746  14.765   1.290   1.013
58305SOL     OW76747   4.641   7.004  12.435
58305SOL    HW176748   4.671   6.939  12.371
58305SOL    HW276749   4.616   7.080  12.383
58306SOL     OW76750  13.337   6.453  12.156
58306SOL    HW176751  13.272   6.524  12.153
58306SOL    HW276752  13.388   6.464  12.076
58307SOL     OW76753  10.222  11.917   0.955
58307SOL    HW176754  10.297  11.908   0.896
58307SOL    HW276755  10.260  11.938   1.039
58308SOL     OW76756   8.808  13.816  11.096
58308SOL    HW176757   8.737  13.836  11.034
58308SOL    HW276758   8.887  13.848  11.052
58309SOL     OW76759   5.178   9.613  14.786
58309SOL    HW176760   5.242   9.550  14.819
58309SOL    HW276761   5.213   9.641  14.701
58310SOL     OW76762   1.205   7.577   7.312
58310SOL    HW176763   1.273   7.643   7.312
58310SOL    HW276764   1.123   7.627   7.314
58311SOL     OW76765   8.360  12.297  11.223
58311SOL    HW176766   8.301  12.273  11.294
58311SOL    HW276767   8.420  12.361  11.261
58312SOL     OW76768   8.585   6.170   1.194
58312SOL    HW176769   8.612   6.230   1.264
58312SOL    HW276770   8.595   6.082   1.233
58313SOL     OW76771  11.574   1.369   8.035
58313SOL    HW176772  11.602   1.359   8.127
58313SOL    HW276773  11.495   1.315   8.028
58314SOL     OW76774   7.016   0.915   6.965
58314SOL    HW176775   7.020   0.846   6.900
58314SOL    HW276776   6.978   0.990   6.920
58315SOL     OW76777  11.561  10.595   9.048
58315SOL    HW176778  11.498  10.617   9.116
58315SOL    HW276779  11.507  10.573   8.972
58316SOL     OW76780  13.748  12.271   1.750
58316SOL    HW176781  13.671  12.214   1.741
58316SOL    HW276782  13.712  12.360   1.745
58317SOL     OW76783   8.923   2.231  11.338
58317SOL    HW176784   8.915   2.269  11.251
58317SOL    HW276785   8.833   2.221  11.368
58318SOL     OW76786   0.076   1.084   5.240
58318SOL    HW176787   0.169   1.062   5.248
58318SOL    HW276788   0.064   1.157   5.301
58319SOL     OW76789  10.748  10.583  11.573
58319SOL    HW176790  10.844  10.585  11.567
58319SOL    HW276791  10.726  10.490  11.576
58320SOL     OW76792   0.098   8.769  12.499
58320SOL    HW176793   0.191   8.763  12.519
58320SOL    HW276794   0.058   8.798  12.581
58321SOL     OW76795  12.313   2.851   5.813
58321SOL    HW176796  12.266   2.771   5.833
58321SOL    HW276797  12.364   2.830   5.735
58322SOL     OW76798   1.113  10.571   4.479
58322SOL    HW176799   1.182  10.600   4.538
58322SOL    HW276800   1.106  10.642   4.414
58323SOL     OW76801   3.945   5.774  10.060
58323SOL    HW176802   3.954   5.814   9.973
58323SOL    HW276803   4.025   5.721  10.070
58324SOL     OW76804   3.248  10.288  11.373
58324SOL    HW176805   3.331  10.334  11.390
58324SOL    HW276806   3.250  10.268  11.280
58325SOL     OW76807   8.197   9.987   9.982
58325SOL    HW176808   8.230  10.042   9.911
58325SOL    HW276809   8.129  10.039  10.023
58326SOL     OW76810  10.488  11.167   2.045
58326SOL    HW176811  10.461  11.162   1.953
58326SOL    HW276812  10.415  11.127   2.093
58327SOL     OW76813  13.348  13.491  10.709
58327SOL    HW176814  13.280  13.550  10.739
58327SOL    HW276815  13.416  13.496  10.776
58328SOL     OW76816  12.606  13.616   6.611
58328SOL    HW176817  12.519  13.598   6.575
58328SOL    HW276818  12.654  13.534   6.602
58329SOL     OW76819  13.860   5.927   7.740
58329SOL    HW176820  13.797   5.943   7.810
58329SOL    HW276821  13.808   5.888   7.669
58330SOL     OW76822   7.404   4.862  13.014
58330SOL    HW176823   7.326   4.807  13.001
58330SOL    HW276824   7.400   4.887  13.106
58331SOL     OW76825  13.685   1.928   4.791
58331SOL    HW176826  13.727   1.903   4.708
58331SOL    HW276827  13.718   1.864   4.854
58332SOL     OW76828  12.169  14.461   4.045
58332SOL    HW176829  12.149  14.548   4.011
58332SOL    HW276830  12.119  14.401   3.990
58333SOL     OW76831   8.394   5.668  10.684
58333SOL    HW176832   8.382   5.581  10.722
58333SOL    HW276833   8.489   5.679  10.680
58334SOL     OW76834   2.784   5.159   3.378
58334SOL    HW176835   2.857   5.209   3.415
58334SOL    HW276836   2.706   5.206   3.407
58335SOL     OW76837  12.657   7.276   9.368
58335SOL    HW176838  12.689   7.188   9.348
58335SOL    HW276839  12.670   7.325   9.287
58336SOL     OW76840  11.874   5.533   5.509
58336SOL    HW176841  11.902   5.623   5.525
58336SOL    HW276842  11.899   5.486   5.589
58337SOL     OW76843   2.275   2.773   4.555
58337SOL    HW176844   2.339   2.830   4.511
58337SOL    HW276845   2.190   2.803   4.524
58338SOL     OW76846  10.762   8.243   5.018
58338SOL    HW176847  10.705   8.245   5.095
58338SOL    HW276848  10.846   8.275   5.051
58339SOL     OW76849  12.962   6.309   5.447
58339SOL    HW176850  13.044   6.266   5.471
58339SOL    HW276851  12.949   6.376   5.514
58340SOL     OW76852   3.256   4.166   7.965
58340SOL    HW176853   3.240   4.088   8.019
58340SOL    HW276854   3.344   4.195   7.989
58341SOL     OW76855  10.919   3.157   5.353
58341SOL    HW176856  10.891   3.077   5.309
58341SOL    HW276857  10.842   3.214   5.350
58342SOL     OW76858   1.951  14.648   0.097
58342SOL    HW176859   1.897  14.688   0.165
58342SOL    HW276860   2.040  14.650   0.131
58343SOL     OW76861   0.832   0.103   7.972
58343SOL    HW176862   0.888   0.084   7.897
58343SOL    HW276863   0.752   0.140   7.935
58344SOL     OW76864   4.289   7.734   9.073
58344SOL    HW176865   4.383   7.741   9.084
58344SOL    HW276866   4.275   7.742   8.979
58345SOL     OW76867  12.627   7.923  10.514
58345SOL    HW176868  12.624   7.859  10.443
58345SOL    HW276869  12.655   7.873  10.590
58346SOL     OW76870   4.573   3.111   2.774
58346SOL    HW176871   4.561   3.172   2.701
58346SOL    HW276872   4.592   3.027   2.733
58347SOL     OW76873  14.266   4.222   3.380
58347SOL    HW176874  14.301   4.302   3.340
58347SOL    HW276875  14.300   4.151   3.325
58348SOL     OW76876   1.678   8.044  14.832
58348SOL    HW176877   1.588   8.028  14.804
58348SOL    HW276878   1.727   8.057  14.751
58349SOL     OW76879  12.735   3.021   2.047
58349SOL    HW176880  12.644   3.001   2.066
58349SOL    HW276881  12.741   3.016   1.951
58350SOL     OW76882   5.896   9.567   0.803
58350SOL    HW176883   5.935   9.644   0.844
58350SOL    HW276884   5.834   9.533   0.868
58351SOL     OW76885  10.731   6.226  10.570
58351SOL    HW176886  10.779   6.246  10.490
58351SOL    HW276887  10.793   6.179  10.625
58352SOL     OW76888   4.392  10.621  11.793
58352SOL    HW176889   4.333  10.549  11.770
58352SOL    HW276890   4.456  10.581  11.853
58353SOL     OW76891   9.820  11.354   0.191
58353SOL    HW176892   9.871  11.282   0.229
58353SOL    HW276893   9.841  11.352   0.097
58354SOL     OW76894   5.387  11.795   7.717
58354SOL    HW176895   5.463  11.850   7.736
58354SOL    HW276896   5.351  11.772   7.803
58355SOL     OW76897  14.060   5.106   2.850
58355SOL    HW176898  14.135   5.049   2.838
58355SOL    HW276899  13.984   5.052   2.827
58356SOL     OW76900  13.519   3.173   1.636
58356SOL    HW176901  13.447   3.130   1.590
58356SOL    HW276902  13.476   3.232   1.698
58357SOL     OW76903   4.450   2.695   5.504
58357SOL    HW176904   4.470   2.749   5.427
58357SOL    HW276905   4.520   2.715   5.566
58358SOL     OW76906   5.880   7.535  10.044
58358SOL    HW176907   5.817   7.586  10.095
58358SOL    HW276908   5.920   7.598   9.984
58359SOL     OW76909   1.055   6.289   8.887
58359SOL    HW176910   1.131   6.334   8.852
58359SOL    HW276911   0.995   6.359   8.912
58360SOL     OW76912   8.583   8.705  13.870
58360SOL    HW176913   8.561   8.735  13.958
58360SOL    HW276914   8.675   8.677  13.877
58361SOL     OW76915   5.419   2.361   5.761
58361SOL    HW176916   5.446   2.316   5.841
58361SOL    HW276917   5.500   2.370   5.710
58362SOL     OW76918   3.198   2.058   6.523
58362SOL    HW176919   3.208   2.098   6.609
58362SOL    HW276920   3.286   2.055   6.487
58363SOL     OW76921   4.563   4.348  12.307
58363SOL    HW176922   4.570   4.288  12.381
58363SOL    HW276923   4.605   4.429  12.338
58364SOL     OW76924  13.705   9.958   5.790
58364SOL    HW176925  13.742   9.876   5.823
58364SOL    HW276926  13.707   9.949   5.695
58365SOL     OW76927  13.985   6.780   6.166
58365SOL    HW176928  14.036   6.766   6.086
58365SOL    HW276929  14.035   6.844   6.216
58366SOL     OW76930  14.074   5.035  10.145
58366SOL    HW176931  14.085   4.986  10.064
58366SOL    HW276932  14.151   5.013  10.198
58367SOL     OW76933   4.116   8.366   2.179
58367SOL    HW176934   4.174   8.402   2.246
58367SOL    HW276935   4.149   8.402   2.096
58368SOL     OW76936   3.647  13.522   1.804
58368SOL    HW176937   3.604  13.452   1.852
58368SOL    HW276938   3.583  13.550   1.739
58369SOL     OW76939  13.837  10.522   0.141
58369SOL    HW176940  13.919  10.511   0.189
58369SOL    HW276941  13.775  10.465   0.185
58370SOL     OW76942   5.322   5.004   4.115
58370SOL    HW176943   5.411   5.026   4.143
58370SOL    HW276944   5.311   5.050   4.032
58371SOL     OW76945   1.759   0.522  12.478
58371SOL    HW176946   1.812   0.445  12.498
58371SOL    HW276947   1.802   0.562  12.403
58372SOL     OW76948   1.841  11.271   0.822
58372SOL    HW176949   1.922  11.274   0.872
58372SOL    HW276950   1.867  11.285   0.731
58373SOL     OW76951   9.155   3.155  11.036
58373SOL    HW176952   9.242   3.163  11.075
58373SOL    HW276953   9.156   3.072  10.989
58374SOL     OW76954   0.841   0.464   2.555
58374SOL    HW176955   0.841   0.547   2.507
58374SOL    HW276956   0.844   0.490   2.647
58375SOL     OW76957  10.042  12.100  13.581
58375SOL    HW176958  10.034  12.038  13.653
58375SOL    HW276959  10.135  12.097  13.557
58376SOL     OW76960   2.188   4.411  14.300
58376SOL    HW176961   2.255   4.438  14.362
58376SOL    HW276962   2.234   4.356  14.237
58377SOL     OW76963  13.400   4.429  12.312
58377SOL    HW176964  13.336   4.372  12.270
58377SOL    HW276965  13.348   4.496  12.356
58378SOL     OW76966   3.280   2.511   1.472
58378SOL    HW176967   3.299   2.574   1.542
58378SOL    HW276968   3.357   2.514   1.416
58379SOL     OW76969  10.533  10.976  14.482
58379SOL    HW176970  10.582  11.058  14.474
58379SOL    HW276971  10.516  10.950  14.391
58380SOL     OW76972  10.383  14.237  11.479
58380SOL    HW176973  10.428  14.189  11.409
58380SOL    HW276974  10.295  14.253  11.444
58381SOL     OW76975   8.339   9.977  10.930
58381SOL    HW176976   8.279   9.978  10.856
58381SOL    HW276977   8.311   9.903  10.984
58382SOL     OW76978  10.423   1.810   2.400
58382SOL    HW176979  10.463   1.897   2.399
58382SOL    HW276980  10.446   1.773   2.485
58383SOL     OW76981   4.141  11.008   8.589
58383SOL    HW176982   4.156  10.924   8.547
58383SOL    HW276983   4.217  11.020   8.647
58384SOL     OW76984  14.154   0.643   3.954
58384SOL    HW176985  14.208   0.578   3.910
58384SOL    HW276986  14.127   0.601   4.036
58385SOL     OW76987   7.974   0.558   4.836
58385SOL    HW176988   7.998   0.501   4.763
58385SOL    HW276989   7.878   0.555   4.838
58386SOL     OW76990  11.754   0.188   5.784
58386SOL    HW176991  11.795   0.218   5.865
58386SOL    HW276992  11.688   0.124   5.812
58387SOL     OW76993   5.947   4.167   8.652
58387SOL    HW176994   5.862   4.178   8.696
58387SOL    HW276995   5.993   4.249   8.668
58388SOL     OW76996   8.307   5.133   2.832
58388SOL    HW176997   8.235   5.196   2.839
58388SOL    HW276998   8.368   5.158   2.900
58389SOL     OW76999   0.741   9.239   8.118
58389SOL    HW177000   0.754   9.205   8.030
58389SOL    HW277001   0.783   9.174   8.175
58390SOL     OW77002   4.649  12.596   5.939
58390SOL    HW177003   4.611  12.514   5.909
58390SOL    HW277004   4.612  12.662   5.880
58391SOL     OW77005   7.460   5.005  14.564
58391SOL    HW177006   7.505   5.068  14.508
58391SOL    HW277007   7.367   5.022  14.550
58392SOL     OW77008   6.633  10.116   1.834
58392SOL    HW177009   6.663  10.190   1.781
58392SOL    HW277010   6.710  10.060   1.844
58393SOL     OW77011   5.000   7.760   9.942
58393SOL    HW177012   4.939   7.780   9.871
58393SOL    HW277013   4.998   7.664   9.948
58394SOL     OW77014  14.737  13.739  12.706
58394SOL    HW177015  14.714  13.761  12.796
58394SOL    HW277016  14.824  13.700  12.713
58395SOL     OW77017  12.682  13.185   5.991
58395SOL    HW177018  12.674  13.092   6.009
58395SOL    HW277019  12.623  13.227   6.054
58396SOL     OW77020   3.693   0.983  10.043
58396SOL    HW177021   3.629   1.027  10.100
58396SOL    HW277022   3.759   1.050  10.024
58397SOL     OW77023  10.240   1.122   9.210
58397SOL    HW177024  10.281   1.156   9.130
58397SOL    HW277025  10.159   1.172   9.219
58398SOL     OW77026  12.406   4.293   7.655
58398SOL    HW177027  12.382   4.372   7.607
58398SOL    HW277028  12.343   4.227   7.626
58399SOL     OW77029   3.229  10.353   2.743
58399SOL    HW177030   3.210  10.443   2.719
58399SOL    HW277031   3.240  10.308   2.659
58400SOL     OW77032  13.846   9.015   6.686
58400SOL    HW177033  13.900   9.058   6.753
58400SOL    HW277034  13.801   9.087   6.642
58401SOL     OW77035   1.253  10.490  13.653
58401SOL    HW177036   1.186  10.439  13.698
58401SOL    HW277037   1.238  10.581  13.682
58402SOL     OW77038  10.093   3.866   9.571
58402SOL    HW177039  10.169   3.889   9.624
58402SOL    HW277040  10.080   3.940   9.512
58403SOL     OW77041   4.388   9.850  14.109
58403SOL    HW177042   4.440   9.828  14.032
58403SOL    HW277043   4.409   9.782  14.172
58404SOL     OW77044  10.641   7.359   1.445
58404SOL    HW177045  10.632   7.295   1.515
58404SOL    HW277046  10.671   7.308   1.369
58405SOL     OW77047   0.004   0.539  14.441
58405SOL    HW177048  14.810   0.598  14.461
58405SOL    HW277049   0.059   0.589  14.381
58406SOL     OW77050  13.882   5.428  10.460
58406SOL    HW177051  13.798   5.469  10.440
58406SOL    HW277052  13.891   5.359  10.393
58407SOL     OW77053  13.650   2.953   7.654
58407SOL    HW177054  13.730   2.911   7.624
58407SOL    HW277055  13.679   3.027   7.707
58408SOL     OW77056   2.169  10.082   8.091
58408SOL    HW177057   2.235  10.144   8.122
58408SOL    HW277058   2.094  10.137   8.067
58409SOL     OW77059   6.443   4.110  11.171
58409SOL    HW177060   6.396   4.067  11.244
58409SOL    HW277061   6.381   4.175  11.138
58410SOL     OW77062  13.805   9.519   5.279
58410SOL    HW177063  13.842   9.485   5.360
58410SOL    HW277064  13.714   9.539   5.300
58411SOL     OW77065   2.948   6.028   1.860
58411SOL    HW177066   3.004   6.021   1.937
58411SOL    HW277067   2.913   6.117   1.864
58412SOL     OW77068   2.324   6.681   1.835
58412SOL    HW177069   2.314   6.719   1.922
58412SOL    HW277070   2.281   6.595   1.841
58413SOL     OW77071   5.992   4.744   1.622
58413SOL    HW177072   6.006   4.654   1.650
58413SOL    HW277073   6.081   4.778   1.606
58414SOL     OW77074   9.370   1.818   3.209
58414SOL    HW177075   9.319   1.898   3.201
58414SOL    HW277076   9.365   1.777   3.123
58415SOL     OW77077  12.957  14.546   8.915
58415SOL    HW177078  13.047  14.571   8.897
58415SOL    HW277079  12.946  14.561   9.009
58416SOL     OW77080  10.997   5.213  11.530
58416SOL    HW177081  11.070   5.273  11.519
58416SOL    HW277082  10.930   5.264  11.576
58417SOL     OW77083   0.105  14.635  11.099
58417SOL    HW177084   0.042  14.591  11.043
58417SOL    HW277085   0.115  14.577  11.174
58418SOL     OW77086   1.003   7.904   6.364
58418SOL    HW177087   1.073   7.858   6.410
58418SOL    HW277088   0.977   7.845   6.294
58419SOL     OW77089   9.991   2.212   3.113
58419SOL    HW177090   9.987   2.302   3.145
58419SOL    HW277091  10.084   2.193   3.105
58420SOL     OW77092  12.545   9.184   8.911
58420SOL    HW177093  12.592   9.175   8.829
58420SOL    HW277094  12.539   9.278   8.925
58421SOL     OW77095   9.323  11.120   5.383
58421SOL    HW177096   9.363  11.071   5.311
58421SOL    HW277097   9.392  11.127   5.449
58422SOL     OW77098   7.187   8.730   5.312
58422SOL    HW177099   7.092   8.716   5.311
58422SOL    HW277100   7.214   8.707   5.401
58423SOL     OW77101   5.767   3.920  12.734
58423SOL    HW177102   5.687   3.969  12.716
58423SOL    HW277103   5.739   3.829  12.738
58424SOL     OW77104   5.940   2.398  13.652
58424SOL    HW177105   5.893   2.358  13.579
58424SOL    HW277106   5.921   2.341  13.727
58425SOL     OW77107  11.769   7.244   0.309
58425SOL    HW177108  11.797   7.153   0.301
58425SOL    HW277109  11.783   7.265   0.401
58426SOL     OW77110   8.869   0.738   5.712
58426SOL    HW177111   8.933   0.755   5.643
58426SOL    HW277112   8.793   0.792   5.687
58427SOL     OW77113   9.846  13.440  13.284
58427SOL    HW177114   9.757  13.414  13.260
58427SOL    HW277115   9.870  13.381  13.355
58428SOL     OW77116  12.309  14.526   2.422
58428SOL    HW177117  12.245  14.531   2.350
58428SOL    HW277118  12.387  14.489   2.381
58429SOL     OW77119  12.266   6.502   3.205
58429SOL    HW177120  12.360   6.505   3.190
58429SOL    HW277121  12.244   6.409   3.202
58430SOL     OW77122   2.029  13.108   6.587
58430SOL    HW177123   2.001  13.028   6.631
58430SOL    HW277124   1.964  13.174   6.611
58431SOL     OW77125  12.390   5.207  14.253
58431SOL    HW177126  12.385   5.116  14.283
58431SOL    HW277127  12.460   5.207  14.187
58432SOL     OW77128   0.663  13.566   1.939
58432SOL    HW177129   0.713  13.503   1.888
58432SOL    HW277130   0.696  13.651   1.912
58433SOL     OW77131  13.862  14.831  11.450
58433SOL    HW177132  13.898   0.040  11.461
58433SOL    HW277133  13.911  14.777  11.512
58434SOL     OW77134   8.795   5.821  13.938
58434SOL    HW177135   8.857   5.892  13.922
58434SOL    HW277136   8.765   5.836  14.028
58435SOL     OW77137   4.149  12.313   7.735
58435SOL    HW177138   4.236  12.347   7.715
58435SOL    HW277139   4.161  12.218   7.739
58436SOL     OW77140   9.291   9.265   7.425
58436SOL    HW177141   9.261   9.266   7.334
58436SOL    HW277142   9.348   9.341   7.433
58437SOL     OW77143   6.038   1.467  10.799
58437SOL    HW177144   5.994   1.510  10.873
58437SOL    HW277145   6.132   1.475  10.820
58438SOL     OW77146   6.952   9.616   1.067
58438SOL    HW177147   7.028   9.572   1.029
58438SOL    HW277148   6.887   9.547   1.078
58439SOL     OW77149   7.946  12.726  13.159
58439SOL    HW177150   7.861  12.761  13.185
58439SOL    HW277151   8.003  12.802  13.156
58440SOL     OW77152  14.650   9.803   7.359
58440SOL    HW177153  14.609   9.878   7.402
58440SOL    HW277154  14.610   9.727   7.401
58441SOL     OW77155   4.318   3.513   7.665
58441SOL    HW177156   4.236   3.481   7.702
58441SOL    HW277157   4.292   3.569   7.592
58442SOL     OW77158   0.546  14.564  13.014
58442SOL    HW177159   0.482  14.624  12.975
58442SOL    HW277160   0.510  14.543  13.100
58443SOL     OW77161   9.055  10.088   7.662
58443SOL    HW177162   8.977  10.102   7.716
58443SOL    HW277163   9.023  10.100   7.572
58444SOL     OW77164   2.980   7.058   8.840
58444SOL    HW177165   3.026   7.048   8.756
58444SOL    HW277166   2.998   6.977   8.887
58445SOL     OW77167  10.108   6.587   3.925
58445SOL    HW177168  10.081   6.627   3.843
58445SOL    HW277169  10.185   6.638   3.952
58446SOL     OW77170   6.257  13.739   1.576
58446SOL    HW177171   6.296  13.781   1.653
58446SOL    HW277172   6.330  13.726   1.516
58447SOL     OW77173   3.552  12.054   4.870
58447SOL    HW177174   3.488  11.990   4.901
58447SOL    HW277175   3.637  12.012   4.884
58448SOL     OW77176  14.531   1.942   6.036
58448SOL    HW177177  14.460   1.906   6.089
58448SOL    HW277178  14.572   2.008   6.091
58449SOL     OW77179   4.686  10.703   1.252
58449SOL    HW177180   4.726  10.619   1.273
58449SOL    HW277181   4.761  10.762   1.237
58450SOL     OW77182  13.691  11.796   4.397
58450SOL    HW177183  13.707  11.851   4.473
58450SOL    HW277184  13.629  11.846   4.343
58451SOL     OW77185   6.435   1.048   7.399
58451SOL    HW177186   6.464   1.040   7.489
58451SOL    HW277187   6.515   1.042   7.347
58452SOL     OW77188  14.684  13.235  14.191
58452SOL    HW177189  14.595  13.271  14.183
58452SOL    HW277190  14.671  13.143  14.211
58453SOL     OW77191   9.234  12.071   1.699
58453SOL    HW177192   9.193  11.996   1.656
58453SOL    HW277193   9.179  12.087   1.776
58454SOL     OW77194   2.391   7.876  12.994
58454SOL    HW177195   2.448   7.860  13.069
58454SOL    HW277196   2.404   7.800  12.937
58455SOL     OW77197  11.404  13.971   5.191
58455SOL    HW177198  11.492  14.003   5.170
58455SOL    HW277199  11.362  14.043   5.237
58456SOL     OW77200   3.606   2.579   0.056
58456SOL    HW177201   3.651   2.663   0.049
58456SOL    HW277202   3.524   2.599   0.101
58457SOL     OW77203  11.535   2.347   2.506
58457SOL    HW177204  11.480   2.359   2.583
58457SOL    HW277205  11.536   2.252   2.491
58458SOL     OW77206  14.133   2.630   7.632
58458SOL    HW177207  14.170   2.658   7.548
58458SOL    HW277208  14.191   2.560   7.662
58459SOL     OW77209   8.447   0.977   1.749
58459SOL    HW177210   8.391   1.051   1.724
58459SOL    HW277211   8.436   0.971   1.844
58460SOL     OW77212  10.468  11.730  14.601
58460SOL    HW177213  10.422  11.663  14.651
58460SOL    HW277214  10.557  11.728  14.635
58461SOL     OW77215   9.749   8.027   9.935
58461SOL    HW177216   9.740   7.941   9.976
58461SOL    HW277217   9.837   8.056   9.959
58462SOL     OW77218   3.465  11.234   3.999
58462SOL    HW177219   3.453  11.234   3.904
58462SOL    HW277220   3.549  11.191   4.012
58463SOL     OW77221  11.090   9.666   3.643
58463SOL    HW177222  11.144   9.591   3.667
58463SOL    HW277223  11.072   9.709   3.727
58464SOL     OW77224  14.192   1.892   8.960
58464SOL    HW177225  14.277   1.916   8.923
58464SOL    HW277226  14.136   1.968   8.945
58465SOL     OW77227  12.176   5.297   9.396
58465SOL    HW177228  12.252   5.264   9.347
58465SOL    HW277229  12.212   5.365   9.453
58466SOL     OW77230  13.823  10.381   2.534
58466SOL    HW177231  13.875  10.449   2.491
58466SOL    HW277232  13.845  10.300   2.488
58467SOL     OW77233   9.585  13.853   2.189
58467SOL    HW177234   9.619  13.764   2.184
58467SOL    HW277235   9.590  13.875   2.282
58468SOL     OW77236  14.581  14.551  13.024
58468SOL    HW177237  14.493  14.514  13.024
58468SOL    HW277238  14.597  14.574  12.932
58469SOL     OW77239   7.986   3.695   1.181
58469SOL    HW177240   7.899   3.661   1.199
58469SOL    HW277241   8.040   3.664   1.253
58470SOL     OW77242   6.286   0.941   0.076
58470SOL    HW177243   6.307   0.866   0.021
58470SOL    HW277244   6.347   0.935   0.150
58471SOL     OW77245   4.149  14.396   0.919
58471SOL    HW177246   4.217  14.442   0.967
58471SOL    HW277247   4.193  14.359   0.843
58472SOL     OW77248   6.129  12.897   4.974
58472SOL    HW177249   6.126  12.808   4.940
58472SOL    HW277250   6.051  12.939   4.940
58473SOL     OW77251   7.785   9.811   8.387
58473SOL    HW177252   7.790   9.749   8.314
58473SOL    HW277253   7.845   9.882   8.363
58474SOL     OW77254   5.810  10.311   0.547
58474SOL    HW177255   5.754  10.250   0.500
58474SOL    HW277256   5.807  10.392   0.496
58475SOL     OW77257  14.821  12.474   9.465
58475SOL    HW177258  14.795  12.528   9.391
58475SOL    HW277259   0.015  12.521   9.505
58476SOL     OW77260  10.121   7.912   7.840
58476SOL    HW177261  10.142   7.926   7.747
58476SOL    HW277262  10.053   7.845   7.839
58477SOL     OW77263   1.145   5.383   2.461
58477SOL    HW177264   1.112   5.348   2.544
58477SOL    HW277265   1.067   5.393   2.407
58478SOL     OW77266   0.778   8.159   1.775
58478SOL    HW177267   0.776   8.126   1.865
58478SOL    HW277268   0.776   8.254   1.784
58479SOL     OW77269  12.408   3.799   9.700
58479SOL    HW177270  12.404   3.831   9.789
58479SOL    HW277271  12.369   3.711   9.704
58480SOL     OW77272   5.049   4.370   6.994
58480SOL    HW177273   5.007   4.446   7.034
58480SOL    HW277274   5.062   4.309   7.067
58481SOL     OW77275  12.164   1.542   6.369
58481SOL    HW177276  12.238   1.482   6.362
58481SOL    HW277277  12.095   1.491   6.412
58482SOL     OW77278   6.617   4.934   8.995
58482SOL    HW177279   6.661   4.889   8.923
58482SOL    HW277280   6.529   4.952   8.961
58483SOL     OW77281   3.604  11.181   2.352
58483SOL    HW177282   3.517  11.163   2.386
58483SOL    HW277283   3.598  11.270   2.318
58484SOL     OW77284   6.847   3.880  10.960
58484SOL    HW177285   6.884   3.835  10.884
58484SOL    HW277286   6.810   3.810  11.014
58485SOL     OW77287  11.215   8.565  12.431
58485SOL    HW177288  11.280   8.502  12.399
58485SOL    HW277289  11.200   8.541  12.522
58486SOL     OW77290   8.053  10.821   8.222
58486SOL    HW177291   8.079  10.908   8.193
58486SOL    HW277292   7.967  10.833   8.262
58487SOL     OW77293   1.768  13.662   8.625
58487SOL    HW177294   1.814  13.737   8.664
58487SOL    HW277295   1.675  13.685   8.632
58488SOL     OW77296   6.297   9.630   2.432
58488SOL    HW177297   6.387   9.637   2.463
58488SOL    HW277298   6.246   9.615   2.512
58489SOL     OW77299  14.214   7.570   8.654
58489SOL    HW177300  14.251   7.589   8.740
58489SOL    HW277301  14.123   7.599   8.659
58490SOL     OW77302   2.318   3.486  11.637
58490SOL    HW177303   2.274   3.446  11.562
58490SOL    HW277304   2.339   3.413  11.695
58491SOL     OW77305  12.595  14.813   0.277
58491SOL    HW177306  12.661   0.002   0.269
58491SOL    HW277307  12.594  14.791   0.371
58492SOL     OW77308   0.119  11.770   7.034
58492SOL    HW177309   0.132  11.689   7.082
58492SOL    HW277310   0.025  11.787   7.040
58493SOL     OW77311   4.049  12.851   6.528
58493SOL    HW177312   4.132  12.883   6.493
58493SOL    HW277313   3.996  12.930   6.539
58494SOL     OW77314   0.806   9.638   7.736
58494SOL    HW177315   0.842   9.607   7.819
58494SOL    HW277316   0.872   9.615   7.671
58495SOL     OW77317  12.283   8.512   2.444
58495SOL    HW177318  12.246   8.487   2.360
58495SOL    HW277319  12.347   8.443   2.463
58496SOL     OW77320  10.114   2.012  10.974
58496SOL    HW177321  10.023   2.034  10.993
58496SOL    HW277322  10.147   1.974  11.056
58497SOL     OW77323   7.325  11.757   9.855
58497SOL    HW177324   7.306  11.667   9.879
58497SOL    HW277325   7.419  11.767   9.867
58498SOL     OW77326   9.960   2.495  10.831
58498SOL    HW177327   9.899   2.421  10.827
58498SOL    HW277328  10.001   2.488  10.917
58499SOL     OW77329   6.464   2.932   7.984
58499SOL    HW177330   6.458   2.846   8.025
58499SOL    HW277331   6.545   2.928   7.932
58500SOL     OW77332   9.801   0.112  14.140
58500SOL    HW177333   9.773   0.036  14.191
58500SOL    HW277334   9.729   0.125  14.077
58501SOL     OW77335   3.751  14.158  13.527
58501SOL    HW177336   3.739  14.195  13.615
58501SOL    HW277337   3.839  14.185  13.502
58502SOL     OW77338   1.952   6.467   3.829
58502SOL    HW177339   1.970   6.544   3.883
58502SOL    HW277340   1.926   6.503   3.745
58503SOL     OW77341   4.577   5.547   7.562
58503SOL    HW177342   4.586   5.577   7.472
58503SOL    HW277343   4.666   5.535   7.593
58504SOL     OW77344  11.965   9.236  12.167
58504SOL    HW177345  11.997   9.210  12.080
58504SOL    HW277346  12.039   9.285  12.205
58505SOL     OW77347   5.478  14.246  14.580
58505SOL    HW177348   5.442  14.256  14.492
58505SOL    HW277349   5.562  14.292  14.579
58506SOL     OW77350   0.692   5.500   0.541
58506SOL    HW177351   0.728   5.557   0.473
58506SOL    HW277352   0.666   5.421   0.495
58507SOL     OW77353   8.668   4.427   6.804
58507SOL    HW177354   8.689   4.391   6.890
58507SOL    HW277355   8.572   4.420   6.798
58508SOL     OW77356   0.836   7.502   2.568
58508SOL    HW177357   0.816   7.517   2.476
58508SOL    HW277358   0.897   7.573   2.591
58509SOL     OW77359   1.271   8.696  11.413
58509SOL    HW177360   1.258   8.671  11.322
58509SOL    HW277361   1.183   8.714  11.446
58510SOL     OW77362   1.694   6.404  13.488
58510SOL    HW177363   1.748   6.363  13.554
58510SOL    HW277364   1.752   6.417  13.413
58511SOL     OW77365  13.669   7.804   9.231
58511SOL    HW177366  13.690   7.796   9.138
58511SOL    HW277367  13.732   7.867   9.264
58512SOL     OW77368   5.198   6.589   6.016
58512SOL    HW177369   5.195   6.589   5.920
58512SOL    HW277370   5.152   6.510   6.042
58513SOL     OW77371   5.444   5.533  11.057
58513SOL    HW177372   5.489   5.535  10.972
58513SOL    HW277373   5.454   5.442  11.087
58514SOL     OW77374   1.432   0.945   2.211
58514SOL    HW177375   1.416   1.009   2.141
58514SOL    HW277376   1.506   0.893   2.179
58515SOL     OW77377   0.012   1.132   1.300
58515SOL    HW177378   0.077   1.062   1.293
58515SOL    HW277379  14.871   1.136   1.394
58516SOL     OW77380   4.849   3.089   2.845
58516SOL    HW177381   4.758   3.119   2.845
58516SOL    HW277382   4.846   3.001   2.882
58517SOL     OW77383  11.951  11.430  13.571
58517SOL    HW177384  12.031  11.444  13.522
58517SOL    HW277385  11.922  11.518  13.597
58518SOL     OW77386   2.975   1.797   1.591
58518SOL    HW177387   2.939   1.803   1.502
58518SOL    HW277388   3.024   1.879   1.603
58519SOL     OW77389   6.849   2.801  11.249
58519SOL    HW177390   6.939   2.801  11.218
58519SOL    HW277391   6.855   2.772  11.340
58520SOL     OW77392  10.740   8.058  14.701
58520SOL    HW177393  10.658   8.107  14.698
58520SOL    HW277394  10.722   7.986  14.762
58521SOL     OW77395   6.463   8.259   3.780
58521SOL    HW177396   6.521   8.294   3.848
58521SOL    HW277397   6.375   8.279   3.810
58522SOL     OW77398   9.433   6.106   9.165
58522SOL    HW177399   9.387   6.190   9.170
58522SOL    HW277400   9.524   6.128   9.182
58523SOL     OW77401   2.259   7.395  10.982
58523SOL    HW177402   2.322   7.460  11.013
58523SOL    HW277403   2.174   7.436  10.997
58524SOL     OW77404   3.678   5.002   2.289
58524SOL    HW177405   3.644   5.039   2.370
58524SOL    HW277406   3.772   4.994   2.305
58525SOL     OW77407  10.029   4.760  13.164
58525SOL    HW177408  10.084   4.824  13.209
58525SOL    HW277409  10.007   4.696  13.231
58526SOL     OW77410   7.726   1.485  12.783
58526SOL    HW177411   7.660   1.549  12.757
58526SOL    HW277412   7.679   1.425  12.841
58527SOL     OW77413   2.943   0.222   1.597
58527SOL    HW177414   2.947   0.225   1.692
58527SOL    HW277415   2.849   0.225   1.577
58528SOL     OW77416  10.192  13.585  10.638
58528SOL    HW177417  10.282  13.568  10.608
58528SOL    HW277418  10.150  13.628  10.563
58529SOL     OW77419  13.452   2.291   2.792
58529SOL    HW177420  13.430   2.200   2.812
58529SOL    HW277421  13.541   2.303   2.827
58530SOL     OW77422  13.667   7.301   6.702
58530SOL    HW177423  13.655   7.222   6.754
58530SOL    HW277424  13.716   7.361   6.759
58531SOL     OW77425  12.534  10.792   1.592
58531SOL    HW177426  12.545  10.879   1.629
58531SOL    HW277427  12.610  10.742   1.623
58532SOL     OW77428   0.871   1.535  11.567
58532SOL    HW177429   0.920   1.616  11.585
58532SOL    HW277430   0.857   1.537  11.472
58533SOL     OW77431  13.281   1.289   3.814
58533SOL    HW177432  13.227   1.368   3.802
58533SOL    HW277433  13.245   1.247   3.892
58534SOL     OW77434   0.114   2.587   5.991
58534SOL    HW177435   0.066   2.554   5.915
58534SOL    HW277436   0.167   2.659   5.957
58535SOL     OW77437   5.029  12.975   9.121
58535SOL    HW177438   5.117  12.994   9.087
58535SOL    HW277439   4.981  13.057   9.109
58536SOL     OW77440  10.307   9.580   8.277
58536SOL    HW177441  10.378   9.583   8.212
58536SOL    HW277442  10.349   9.605   8.359
58537SOL     OW77443  13.328  10.483   9.373
58537SOL    HW177444  13.281  10.461   9.453
58537SOL    HW277445  13.328  10.579   9.371
58538SOL     OW77446  11.974   2.137   4.083
58538SOL    HW177447  11.888   2.170   4.109
58538SOL    HW277448  11.978   2.049   4.120
58539SOL     OW77449   1.898  10.154   8.844
58539SOL    HW177450   1.851  10.212   8.904
58539SOL    HW277451   1.924  10.080   8.897
58540SOL     OW77452  12.213   7.013   4.099
58540SOL    HW177453  12.182   6.938   4.150
58540SOL    HW277454  12.185   6.994   4.010
58541SOL     OW77455  11.759  14.859   7.765
58541SOL    HW177456  11.848  14.829   7.783
58541SOL    HW277457  11.765   0.075   7.761
58542SOL     OW77458   9.331   7.818   2.950
58542SOL    HW177459   9.267   7.887   2.935
58542SOL    HW277460   9.416   7.860   2.936
58543SOL     OW77461   9.215   8.778   8.261
58543SOL    HW177462   9.139   8.756   8.206
58543SOL    HW277463   9.211   8.873   8.269
58544SOL     OW77464   6.188   8.566   3.183
58544SOL    HW177465   6.260   8.585   3.243
58544SOL    HW277466   6.201   8.475   3.157
58545SOL     OW77467  14.729   2.604  14.232
58545SOL    HW177468  14.702   2.522  14.272
58545SOL    HW277469  14.822   2.591  14.213
58546SOL     OW77470   5.093   0.716   8.578
58546SOL    HW177471   5.074   0.750   8.665
58546SOL    HW277472   5.031   0.644   8.566
58547SOL     OW77473   7.869   0.559   6.064
58547SOL    HW177474   7.861   0.495   6.134
58547SOL    HW277475   7.959   0.549   6.032
58548SOL     OW77476  13.972   1.627  10.718
58548SOL    HW177477  13.987   1.663  10.631
58548SOL    HW277478  13.889   1.664  10.746
58549SOL     OW77479  12.155   4.868   9.732
58549SOL    HW177480  12.128   4.958   9.749
58549SOL    HW277481  12.234   4.875   9.678
58550SOL     OW77482   0.425   7.036  10.905
58550SOL    HW177483   0.383   6.984  10.836
58550SOL    HW277484   0.355   7.051  10.968
58551SOL     OW77485   7.871  12.610   4.313
58551SOL    HW177486   7.896  12.576   4.227
58551SOL    HW277487   7.779  12.632   4.305
58552SOL     OW77488   4.750   7.449   6.500
58552SOL    HW177489   4.730   7.440   6.407
58552SOL    HW277490   4.664   7.451   6.543
58553SOL     OW77491   2.288   7.663   4.750
58553SOL    HW177492   2.278   7.685   4.842
58553SOL    HW277493   2.246   7.735   4.702
58554SOL     OW77494   7.861   7.159  12.249
58554SOL    HW177495   7.928   7.102  12.212
58554SOL    HW277496   7.859   7.235  12.191
58555SOL     OW77497   0.008   2.843  11.618
58555SOL    HW177498   0.065   2.919  11.604
58555SOL    HW277499   0.044   2.800  11.695
58556SOL     OW77500   1.618   5.682   4.158
58556SOL    HW177501   1.713   5.679   4.162
58556SOL    HW277502   1.599   5.720   4.072
58557SOL     OW77503   9.259   1.323   9.870
58557SOL    HW177504   9.185   1.263   9.866
58557SOL    HW277505   9.286   1.322   9.962
58558SOL     OW77506   7.498  11.813   7.306
58558SOL    HW177507   7.403  11.812   7.323
58558SOL    HW277508   7.505  11.806   7.211
58559SOL     OW77509  14.247   1.340  11.133
58559SOL    HW177510  14.228   1.264  11.078
58559SOL    HW277511  14.161   1.374  11.157
58560SOL     OW77512  12.022  12.912   4.663
58560SOL    HW177513  12.052  12.854   4.733
58560SOL    HW277514  12.023  12.999   4.701
58561SOL     OW77515   2.219   8.030   5.353
58561SOL    HW177516   2.230   8.112   5.305
58561SOL    HW277517   2.255   8.048   5.440
58562SOL     OW77518   0.783   0.816   0.114
58562SOL    HW177519   0.740   0.877   0.054
58562SOL    HW277520   0.762   0.729   0.079
58563SOL     OW77521   8.272   3.790   9.454
58563SOL    HW177522   8.368   3.781   9.456
58563SOL    HW277523   8.256   3.882   9.475
58564SOL     OW77524   0.898  11.539   9.348
58564SOL    HW177525   0.869  11.630   9.357
58564SOL    HW277526   0.992  11.546   9.331
58565SOL     OW77527   1.184  11.883   8.698
58565SOL    HW177528   1.096  11.850   8.677
58565SOL    HW277529   1.168  11.952   8.763
58566SOL     OW77530   7.542   7.066   6.231
58566SOL    HW177531   7.490   7.145   6.243
58566SOL    HW277532   7.537   7.021   6.316
58567SOL     OW77533   1.309   9.168   8.084
58567SOL    HW177534   1.333   9.207   8.168
58567SOL    HW277535   1.320   9.074   8.097
58568SOL     OW77536  10.953   6.325   6.107
58568SOL    HW177537  10.927   6.324   6.199
58568SOL    HW277538  11.042   6.361   6.108
58569SOL     OW77539   9.101  14.647   9.750
58569SOL    HW177540   9.177  14.590   9.745
58569SOL    HW277541   9.088  14.678   9.660
58570SOL     OW77542   5.069  11.514  11.050
58570SOL    HW177543   5.099  11.562  10.973
58570SOL    HW277544   5.115  11.554  11.123
58571SOL     OW77545   1.094   2.577   6.003
58571SOL    HW177546   1.044   2.507   6.045
58571SOL    HW277547   1.184   2.563   6.032
58572SOL     OW77548   1.587  14.259   5.077
58572SOL    HW177549   1.572  14.262   4.983
58572SOL    HW277550   1.602  14.166   5.096
58573SOL     OW77551   1.888   5.479   0.681
58573SOL    HW177552   1.870   5.545   0.614
58573SOL    HW277553   1.980   5.456   0.669
58574SOL     OW77554  12.117   6.953   5.601
58574SOL    HW177555  12.097   7.042   5.629
58574SOL    HW277556  12.213   6.948   5.603
58575SOL     OW77557   2.575  14.293  14.153
58575SOL    HW177558   2.491  14.254  14.132
58575SOL    HW277559   2.591  14.356  14.083
58576SOL     OW77560   3.923  11.107   4.917
58576SOL    HW177561   3.874  11.055   4.853
58576SOL    HW277562   3.920  11.196   4.882
58577SOL     OW77563   6.838   5.924   9.423
58577SOL    HW177564   6.791   5.991   9.473
58577SOL    HW277565   6.828   5.844   9.475
58578SOL     OW77566   5.395   7.758  14.126
58578SOL    HW177567   5.458   7.795  14.187
58578SOL    HW277568   5.329   7.716  14.181
58579SOL     OW77569   5.219   4.045   6.528
58579SOL    HW177570   5.179   3.958   6.535
58579SOL    HW277571   5.313   4.028   6.523
58580SOL     OW77572  11.654   3.220   2.072
58580SOL    HW177573  11.640   3.177   2.156
58580SOL    HW277574  11.629   3.154   2.007
58581SOL     OW77575  10.578   1.363   3.626
58581SOL    HW177576  10.672   1.348   3.639
58581SOL    HW277577  10.558   1.319   3.543
58582SOL     OW77578   0.410   4.252  11.121
58582SOL    HW177579   0.359   4.175  11.097
58582SOL    HW277580   0.363   4.289  11.196
58583SOL     OW77581   9.869  14.287   7.876
58583SOL    HW177582   9.893  14.263   7.786
58583SOL    HW277583   9.892  14.210   7.928
58584SOL     OW77584  12.617   8.312  13.296
58584SOL    HW177585  12.579   8.258  13.228
58584SOL    HW277586  12.695   8.265  13.324
58585SOL     OW77587   0.448  10.838   7.721
58585SOL    HW177588   0.512  10.805   7.658
58585SOL    HW277589   0.475  10.801   7.805
58586SOL     OW77590   5.849   5.454   7.274
58586SOL    HW177591   5.827   5.526   7.215
58586SOL    HW277592   5.772   5.443   7.328
58587SOL     OW77593   1.946   0.619  13.247
58587SOL    HW177594   1.921   0.577  13.329
58587SOL    HW277595   2.042   0.614  13.245
58588SOL     OW77596  11.248   8.603   4.257
58588SOL    HW177597  11.238   8.685   4.209
58588SOL    HW277598  11.161   8.564   4.257
58589SOL     OW77599   4.497   7.759  11.208
58589SOL    HW177600   4.494   7.780  11.115
58589SOL    HW277601   4.427   7.695  11.220
58590SOL     OW77602   0.885   7.155   6.461
58590SOL    HW177603   0.867   7.061   6.472
58590SOL    HW277604   0.953   7.159   6.395
58591SOL     OW77605   2.167  10.533  12.836
58591SOL    HW177606   2.116  10.588  12.776
58591SOL    HW277607   2.221  10.479  12.779
58592SOL     OW77608   6.191  12.382   4.180
58592SOL    HW177609   6.173  12.331   4.101
58592SOL    HW277610   6.164  12.324   4.251
58593SOL     OW77611   6.315   2.885  12.531
58593SOL    HW177612   6.400   2.884  12.576
58593SOL    HW277613   6.321   2.958  12.469
58594SOL     OW77614   4.380   8.735  10.747
58594SOL    HW177615   4.416   8.812  10.703
58594SOL    HW277616   4.309   8.770  10.802
58595SOL     OW77617   9.989   1.581   9.116
58595SOL    HW177618   9.974   1.625   9.200
58595SOL    HW277619  10.076   1.610   9.089
58596SOL     OW77620   6.319  12.012  12.855
58596SOL    HW177621   6.385  11.955  12.814
58596SOL    HW277622   6.364  12.053  12.928
58597SOL     OW77623   1.407   2.288   2.774
58597SOL    HW177624   1.313   2.273   2.761
58597SOL    HW277625   1.443   2.200   2.788
58598SOL     OW77626   0.242   9.125  14.405
58598SOL    HW177627   0.185   9.049  14.396
58598SOL    HW277628   0.284   9.133  14.319
58599SOL     OW77629   3.597  13.065   4.764
58599SOL    HW177630   3.604  13.102   4.852
58599SOL    HW277631   3.525  13.115   4.724
58600SOL     OW77632   9.058  12.559  10.095
58600SOL    HW177633   9.148  12.569  10.124
58600SOL    HW277634   9.036  12.641  10.052
58601SOL     OW77635  11.448   7.228  14.599
58601SOL    HW177636  11.436   7.314  14.559
58601SOL    HW277637  11.364   7.208  14.640
58602SOL     OW77638  10.046  12.071   7.126
58602SOL    HW177639  10.064  12.129   7.200
58602SOL    HW277640   9.990  12.122   7.068
58603SOL     OW77641   3.410   0.646  10.575
58603SOL    HW177642   3.482   0.585  10.558
58603SOL    HW277643   3.370   0.660  10.489
58604SOL     OW77644   5.029  11.215   9.829
58604SOL    HW177645   5.064  11.126   9.829
58604SOL    HW277646   4.943  11.206   9.871
58605SOL     OW77647  12.338   2.692  12.259
58605SOL    HW177648  12.345   2.599  12.279
58605SOL    HW277649  12.397   2.705  12.185
58606SOL     OW77650   8.127  11.544   1.382
58606SOL    HW177651   8.086  11.458   1.377
58606SOL    HW277652   8.213  11.528   1.420
58607SOL     OW77653  14.588   2.318   3.362
58607SOL    HW177654  14.594   2.363   3.278
58607SOL    HW277655  14.678   2.312   3.393
58608SOL     OW77656  13.016   3.198   8.563
58608SOL    HW177657  12.986   3.200   8.654
58608SOL    HW277658  12.937   3.177   8.513
58609SOL     OW77659  12.595  12.639   3.305
58609SOL    HW177660  12.532  12.705   3.276
58609SOL    HW277661  12.643  12.616   3.226
58610SOL     OW77662   9.489   5.496   5.476
58610SOL    HW177663   9.491   5.488   5.572
58610SOL    HW277664   9.446   5.416   5.446
58611SOL     OW77665   1.427   2.801   7.112
58611SOL    HW177666   1.478   2.772   7.188
58611SOL    HW277667   1.428   2.897   7.118
58612SOL     OW77668   6.535   3.706  11.449
58612SOL    HW177669   6.556   3.732  11.359
58612SOL    HW277670   6.581   3.623  11.461
58613SOL     OW77671  11.686   1.351  10.967
58613SOL    HW177672  11.763   1.295  10.974
58613SOL    HW277673  11.676   1.367  10.873
58614SOL     OW77674   3.346   4.600   4.912
58614SOL    HW177675   3.370   4.595   4.819
58614SOL    HW277676   3.424   4.570   4.959
58615SOL     OW77677   4.426   6.982   1.232
58615SOL    HW177678   4.478   6.974   1.312
58615SOL    HW277679   4.337   6.962   1.259
58616SOL     OW77680   0.865  12.967   7.794
58616SOL    HW177681   0.875  13.034   7.862
58616SOL    HW277682   0.780  12.927   7.812
58617SOL     OW77683   5.816  11.396   9.070
58617SOL    HW177684   5.720  11.398   9.064
58617SOL    HW277685   5.836  11.308   9.102
58618SOL     OW77686   0.100  12.680  10.132
58618SOL    HW177687   0.043  12.634  10.193
58618SOL    HW277688   0.141  12.611  10.080
58619SOL     OW77689  14.542   9.797  11.727
58619SOL    HW177690  14.607   9.811  11.796
58619SOL    HW277691  14.593   9.794  11.646
58620SOL     OW77692   1.166   7.456   6.393
58620SOL    HW177693   1.239   7.473   6.453
58620SOL    HW277694   1.102   7.524   6.413
58621SOL     OW77695   2.604   2.492   7.897
58621SOL    HW177696   2.588   2.584   7.917
58621SOL    HW277697   2.579   2.482   7.805
58622SOL     OW77698   2.871   3.237   8.909
58622SOL    HW177699   2.917   3.187   8.977
58622SOL    HW277700   2.800   3.180   8.881
58623SOL     OW77701   5.975  10.071   0.179
58623SOL    HW177702   6.023  10.043   0.101
58623SOL    HW277703   5.911  10.002   0.194
58624SOL     OW77704   7.191   5.287  10.379
58624SOL    HW177705   7.285   5.267  10.379
58624SOL    HW277706   7.167   5.290  10.472
58625SOL     OW77707   5.457  13.608   9.384
58625SOL    HW177708   5.526  13.636   9.444
58625SOL    HW277709   5.423  13.527   9.422
58626SOL     OW77710  11.089  10.782   7.195
58626SOL    HW177711  11.133  10.744   7.120
58626SOL    HW277712  11.002  10.807   7.163
58627SOL     OW77713  10.137   9.264   7.801
58627SOL    HW177714  10.071   9.230   7.862
58627SOL    HW277715  10.198   9.312   7.856
58628SOL     OW77716  14.385   3.259  10.057
58628SOL    HW177717  14.299   3.275  10.021
58628SOL    HW277718  14.446   3.292   9.991
58629SOL     OW77719  14.624   4.133   1.132
58629SOL    HW177720  14.628   4.064   1.066
58629SOL    HW277721  14.634   4.214   1.081
58630SOL     OW77722   1.926   3.685   4.672
58630SOL    HW177723   1.954   3.750   4.608
58630SOL    HW277724   2.005   3.668   4.724
58631SOL     OW77725   3.964  10.006   5.006
58631SOL    HW177726   4.041  10.063   5.007
58631SOL    HW277727   3.892  10.062   4.976
58632SOL     OW77728   2.224  13.871   4.631
58632SOL    HW177729   2.271  13.949   4.603
58632SOL    HW277730   2.293  13.808   4.653
58633SOL     OW77731   6.660   7.074  12.029
58633SOL    HW177732   6.624   7.046  11.944
58633SOL    HW277733   6.745   7.032  12.035
58634SOL     OW77734  11.609   4.127   6.564
58634SOL    HW177735  11.683   4.186   6.549
58634SOL    HW277736  11.583   4.144   6.655
58635SOL     OW77737   8.052  13.735   8.783
58635SOL    HW177738   8.060  13.646   8.749
58635SOL    HW277739   7.971  13.734   8.835
58636SOL     OW77740   0.822  11.645   0.654
58636SOL    HW177741   0.861  11.598   0.581
58636SOL    HW277742   0.891  11.702   0.686
58637SOL     OW77743   8.001   0.291  10.983
58637SOL    HW177744   8.068   0.240  10.937
58637SOL    HW277745   7.925   0.233  10.986
58638SOL     OW77746   2.298   0.345   9.682
58638SOL    HW177747   2.312   0.398   9.604
58638SOL    HW277748   2.296   0.255   9.649
58639SOL     OW77749  13.433   2.609   9.305
58639SOL    HW177750  13.522   2.642   9.289
58639SOL    HW277751  13.383   2.635   9.228
58640SOL     OW77752   6.502  10.388  14.855
58640SOL    HW177753   6.458  10.388   0.061
58640SOL    HW277754   6.499  10.296  14.827
58641SOL     OW77755   9.875  14.452   3.124
58641SOL    HW177756   9.788  14.419   3.144
58641SOL    HW277757   9.860  14.522   3.060
58642SOL     OW77758   0.519   5.033   2.820
58642SOL    HW177759   0.445   4.973   2.815
58642SOL    HW277760   0.589   4.989   2.773
58643SOL     OW77761   4.088   3.081   0.945
58643SOL    HW177762   4.080   3.147   1.014
58643SOL    HW277763   4.090   3.131   0.864
58644SOL     OW77764  11.754   8.309  12.693
58644SOL    HW177765  11.726   8.337  12.605
58644SOL    HW277766  11.823   8.244  12.676
58645SOL     OW77767  10.147   3.148   7.186
58645SOL    HW177768  10.166   3.058   7.159
58645SOL    HW277769  10.154   3.146   7.281
58646SOL     OW77770   3.137   7.458  13.742
58646SOL    HW177771   3.070   7.404  13.783
58646SOL    HW277772   3.125   7.445  13.648
58647SOL     OW77773   7.209   6.591   0.455
58647SOL    HW177774   7.260   6.662   0.493
58647SOL    HW277775   7.121   6.603   0.490
58648SOL     OW77776   8.555   2.756   9.159
58648SOL    HW177777   8.473   2.762   9.209
58648SOL    HW277778   8.530   2.784   9.071
58649SOL     OW77779  10.258   0.293   7.307
58649SOL    HW177780  10.180   0.347   7.313
58649SOL    HW277781  10.313   0.322   7.380
58650SOL     OW77782  14.498   2.310   4.849
58650SOL    HW177783  14.463   2.387   4.894
58650SOL    HW277784  14.466   2.236   4.901
58651SOL     OW77785   8.991   9.994   2.900
58651SOL    HW177786   8.986   9.899   2.890
58651SOL    HW277787   8.994  10.028   2.811
58652SOL     OW77788   4.091  13.916   3.874
58652SOL    HW177789   4.034  13.840   3.883
58652SOL    HW277790   4.035  13.984   3.836
58653SOL     OW77791  13.838  10.196   6.196
58653SOL    HW177792  13.905  10.243   6.146
58653SOL    HW277793  13.822  10.252   6.273
58654SOL     OW77794   7.260   2.364   5.775
58654SOL    HW177795   7.335   2.311   5.804
58654SOL    HW277796   7.300   2.445   5.743
58655SOL     OW77797   5.332   7.372   0.942
58655SOL    HW177798   5.379   7.324   1.010
58655SOL    HW277799   5.338   7.316   0.865
58656SOL     OW77800   1.945   5.498   8.219
58656SOL    HW177801   1.881   5.481   8.149
58656SOL    HW277802   1.903   5.465   8.298
58657SOL     OW77803   7.844   6.831   5.831
58657SOL    HW177804   7.881   6.867   5.912
58657SOL    HW277805   7.900   6.757   5.809
58658SOL     OW77806   9.570   9.754   4.674
58658SOL    HW177807   9.545   9.695   4.745
58658SOL    HW277808   9.590   9.696   4.600
58659SOL     OW77809   1.019   6.923   9.588
58659SOL    HW177810   1.051   6.971   9.665
58659SOL    HW277811   1.060   6.969   9.514
58660SOL     OW77812   0.176  14.552   5.828
58660SOL    HW177813   0.121  14.514   5.760
58660SOL    HW277814   0.116  14.574   5.899
58661SOL     OW77815   3.771  12.129   8.694
58661SOL    HW177816   3.737  12.040   8.684
58661SOL    HW277817   3.841  12.121   8.759
58662SOL     OW77818   5.511   6.595  11.980
58662SOL    HW177819   5.452   6.523  11.960
58662SOL    HW277820   5.586   6.581  11.922
58663SOL     OW77821  14.776   4.362   7.822
58663SOL    HW177822  14.710   4.293   7.834
58663SOL    HW277823  14.859   4.319   7.842
58664SOL     OW77824  13.361  12.584  14.050
58664SOL    HW177825  13.275  12.611  14.019
58664SOL    HW277826  13.375  12.498  14.011
58665SOL     OW77827  10.646  14.337   9.381
58665SOL    HW177828  10.586  14.266   9.355
58665SOL    HW277829  10.588  14.407   9.412
58666SOL     OW77830   9.016  10.815   1.289
58666SOL    HW177831   9.070  10.794   1.213
58666SOL    HW277832   9.017  10.735   1.342
58667SOL     OW77833   8.937   7.473   4.243
58667SOL    HW177834   8.954   7.384   4.272
58667SOL    HW277835   9.004   7.526   4.285
58668SOL     OW77836  10.727   5.008   6.832
58668SOL    HW177837  10.816   5.022   6.798
58668SOL    HW277838  10.713   4.914   6.824
58669SOL     OW77839   2.522  11.089   2.992
58669SOL    HW177840   2.561  11.116   3.075
58669SOL    HW277841   2.590  11.104   2.927
58670SOL     OW77842  14.090  13.202   6.250
58670SOL    HW177843  14.139  13.145   6.191
58670SOL    HW277844  14.023  13.242   6.195
58671SOL     OW77845   2.618   1.179   7.509
58671SOL    HW177846   2.627   1.105   7.569
58671SOL    HW277847   2.707   1.213   7.500
58672SOL     OW77848   2.624   8.300   2.230
58672SOL    HW177849   2.715   8.326   2.242
58672SOL    HW277850   2.573   8.372   2.266
58673SOL     OW77851   3.267  12.521  14.511
58673SOL    HW177852   3.303  12.609  14.511
58673SOL    HW277853   3.177  12.531  14.478
58674SOL     OW77854   2.840   9.614  10.622
58674SOL    HW177855   2.770   9.677  10.640
58674SOL    HW277856   2.886   9.649  10.546
58675SOL     OW77857   7.357   7.235   9.799
58675SOL    HW177858   7.347   7.141   9.782
58675SOL    HW277859   7.271   7.263   9.828
58676SOL     OW77860   4.897   1.548   0.899
58676SOL    HW177861   4.842   1.543   0.820
58676SOL    HW277862   4.834   1.554   0.971
58677SOL     OW77863   5.828   2.222   1.302
58677SOL    HW177864   5.734   2.227   1.320
58677SOL    HW277865   5.851   2.131   1.317
58678SOL     OW77866   1.153  11.246   6.710
58678SOL    HW177867   1.228  11.258   6.653
58678SOL    HW277868   1.190  11.224   6.795
58679SOL     OW77869   6.951   9.899   8.560
58679SOL    HW177870   6.990   9.971   8.512
58679SOL    HW277871   6.913   9.843   8.492
58680SOL     OW77872  13.504   5.951  13.115
58680SOL    HW177873  13.446   5.943  13.040
58680SOL    HW277874  13.514   5.861  13.148
58681SOL     OW77875  13.904  13.108  11.493
58681SOL    HW177876  13.992  13.111  11.530
58681SOL    HW277877  13.847  13.086  11.567
58682SOL     OW77878   5.525  14.692   6.751
58682SOL    HW177879   5.507  14.681   6.657
58682SOL    HW277880   5.560  14.781   6.758
58683SOL     OW77881   1.033   6.336  14.607
58683SOL    HW177882   0.982   6.368  14.533
58683SOL    HW277883   1.089   6.268  14.570
58684SOL     OW77884   0.071  10.142   1.989
58684SOL    HW177885   0.113  10.172   1.908
58684SOL    HW277886   0.027  10.061   1.964
58685SOL     OW77887   5.296   8.951   6.538
58685SOL    HW177888   5.343   8.994   6.466
58685SOL    HW277889   5.263   8.869   6.499
58686SOL     OW77890   1.840   1.399   0.036
58686SOL    HW177891   1.802   1.421   0.121
58686SOL    HW277892   1.775   1.342  14.873
58687SOL     OW77893   3.284  13.536   8.060
58687SOL    HW177894   3.320  13.562   7.976
58687SOL    HW277895   3.221  13.605   8.082
58688SOL     OW77896   3.433   3.868   2.318
58688SOL    HW177897   3.445   3.786   2.269
58688SOL    HW277898   3.342   3.865   2.347
58689SOL     OW77899   2.226   7.392   5.901
58689SOL    HW177900   2.220   7.395   5.997
58689SOL    HW277901   2.306   7.341   5.884
58690SOL     OW77902   4.560   6.788   6.124
58690SOL    HW177903   4.526   6.862   6.072
58690SOL    HW277904   4.590   6.725   6.058
58691SOL     OW77905   3.636   7.199   4.143
58691SOL    HW177906   3.616   7.154   4.225
58691SOL    HW277907   3.701   7.265   4.168
58692SOL     OW77908   3.018  14.833   7.170
58692SOL    HW177909   3.075  14.868   7.238
58692SOL    HW277910   3.076  14.783   7.113
58693SOL     OW77911   7.798   2.390   0.288
58693SOL    HW177912   7.739   2.375   0.361
58693SOL    HW277913   7.743   2.430   0.221
58694SOL     OW77914   7.218   5.811   5.160
58694SOL    HW177915   7.185   5.881   5.103
58694SOL    HW277916   7.271   5.756   5.102
58695SOL     OW77917  14.242   7.327   2.454
58695SOL    HW177918  14.264   7.383   2.529
58695SOL    HW277919  14.280   7.372   2.378
58696SOL     OW77920   4.763   0.139  13.246
58696SOL    HW177921   4.785   0.139  13.153
58696SOL    HW277922   4.748   0.231  13.267
58697SOL     OW77923  12.037  11.372  14.213
58697SOL    HW177924  12.076  11.298  14.166
58697SOL    HW277925  12.067  11.450  14.165
58698SOL     OW77926  12.630   5.945  14.792
58698SOL    HW177927  12.609   5.896  14.872
58698SOL    HW277928  12.699   6.006  14.820
58699SOL     OW77929  11.290   6.819   5.657
58699SOL    HW177930  11.356   6.820   5.726
58699SOL    HW277931  11.260   6.910   5.652
58700SOL     OW77932  10.149   1.838  13.495
58700SOL    HW177933  10.081   1.787  13.539
58700SOL    HW277934  10.160   1.916  13.549
58701SOL     OW77935   9.578   0.624  14.752
58701SOL    HW177936   9.579   0.599  14.844
58701SOL    HW277937   9.488   0.609  14.723
58702SOL     OW77938   5.116   5.733   5.218
58702SOL    HW177939   5.091   5.821   5.190
58702SOL    HW277940   5.211   5.731   5.212
58703SOL     OW77941   4.353  14.414   6.649
58703SOL    HW177942   4.295  14.484   6.619
58703SOL    HW277943   4.436  14.458   6.669
58704SOL     OW77944   2.895   8.656  14.598
58704SOL    HW177945   2.859   8.654  14.509
58704SOL    HW277946   2.902   8.750  14.619
58705SOL     OW77947  12.205  12.533   1.523
58705SOL    HW177948  12.159  12.458   1.562
58705SOL    HW277949  12.230  12.503   1.436
58706SOL     OW77950   0.979   5.783   7.938
58706SOL    HW177951   1.044   5.759   7.872
58706SOL    HW277952   0.940   5.863   7.906
58707SOL     OW77953   6.016   4.228   4.185
58707SOL    HW177954   6.044   4.266   4.269
58707SOL    HW277955   5.951   4.290   4.152
58708SOL     OW77956  12.994   9.077   0.462
58708SOL    HW177957  13.012   9.170   0.475
58708SOL    HW277958  12.912   9.074   0.413
58709SOL     OW77959   6.086   9.607  10.862
58709SOL    HW177960   6.028   9.665  10.912
58709SOL    HW277961   6.094   9.648  10.776
58710SOL     OW77962  14.497  12.687   0.968
58710SOL    HW177963  14.549  12.686   1.049
58710SOL    HW277964  14.492  12.779   0.944
58711SOL     OW77965   8.653   5.235   3.974
58711SOL    HW177966   8.677   5.199   4.059
58711SOL    HW277967   8.559   5.253   3.981
58712SOL     OW77968   6.326  10.268  13.549
58712SOL    HW177969   6.289  10.354  13.532
58712SOL    HW277970   6.283  10.211  13.485
58713SOL     OW77971   1.006   7.183   0.204
58713SOL    HW177972   1.024   7.276   0.216
58713SOL    HW277973   1.000   7.172   0.109
58714SOL     OW77974   0.554   4.210   2.664
58714SOL    HW177975   0.639   4.251   2.653
58714SOL    HW277976   0.496   4.282   2.691
58715SOL     OW77977  13.372  12.140  13.236
58715SOL    HW177978  13.385  12.115  13.145
58715SOL    HW277979  13.365  12.236  13.234
58716SOL     OW77980   2.456   4.088   9.641
58716SOL    HW177981   2.446   4.125   9.729
58716SOL    HW277982   2.528   4.025   9.650
58717SOL     OW77983   8.129  13.791   3.239
58717SOL    HW177984   8.106  13.759   3.326
58717SOL    HW277985   8.047  13.830   3.206
58718SOL     OW77986   4.608  13.823   9.894
58718SOL    HW177987   4.601  13.869   9.977
58718SOL    HW277988   4.700  13.795   9.890
58719SOL     OW77989   5.109   1.530   7.762
58719SOL    HW177990   5.093   1.442   7.728
58719SOL    HW277991   5.170   1.517   7.834
58720SOL     OW77992   7.367   7.995  10.432
58720SOL    HW177993   7.379   8.001  10.337
58720SOL    HW277994   7.404   8.077  10.466
58721SOL     OW77995   9.992   3.017  10.450
58721SOL    HW177996   9.957   3.104  10.471
58721SOL    HW277997   9.930   2.956  10.491
58722SOL     OW77998   4.599   9.088   9.603
58722SOL    HW177999   4.586   9.152   9.533
58722SOL    HW278000   4.592   9.003   9.560
58723SOL     OW78001   4.440   4.209   3.941
58723SOL    HW178002   4.485   4.124   3.944
58723SOL    HW278003   4.347   4.186   3.932
58724SOL     OW78004   3.729   5.939   6.746
58724SOL    HW178005   3.812   5.925   6.791
58724SOL    HW278006   3.752   5.987   6.667
58725SOL     OW78007   9.887   1.321  11.970
58725SOL    HW178008   9.827   1.339  11.897
58725SOL    HW278009   9.941   1.249  11.939
58726SOL     OW78010  10.648  13.865   8.529
58726SOL    HW178011  10.603  13.843   8.447
58726SOL    HW278012  10.655  13.781   8.575
58727SOL     OW78013  13.218   2.230   4.148
58727SOL    HW178014  13.281   2.158   4.152
58727SOL    HW278015  13.257   2.299   4.201
58728SOL     OW78016  14.175  11.226   9.563
58728SOL    HW178017  14.198  11.184   9.646
58728SOL    HW278018  14.142  11.312   9.587
58729SOL     OW78019   0.632   3.559   7.440
58729SOL    HW178020   0.602   3.631   7.385
58729SOL    HW278021   0.614   3.481   7.388
58730SOL     OW78022   8.063   2.958   8.245
58730SOL    HW178023   8.042   2.896   8.174
58730SOL    HW278024   8.071   2.903   8.323
58731SOL     OW78025   1.087  14.414  10.570
58731SOL    HW178026   1.110  14.333  10.615
58731SOL    HW278027   1.169  14.442  10.529
58732SOL     OW78028   0.697  13.782  12.583
58732SOL    HW178029   0.646  13.809  12.660
58732SOL    HW278030   0.788  13.790  12.610
58733SOL     OW78031   4.767   3.394   6.900
58733SOL    HW178032   4.854   3.359   6.919
58733SOL    HW278033   4.764   3.403   6.805
58734SOL     OW78034   6.251  14.746  10.688
58734SOL    HW178035   6.194  14.765  10.615
58734SOL    HW278036   6.253  14.826  10.739
58735SOL     OW78037   8.603   4.833   5.462
58735SOL    HW178038   8.570   4.792   5.382
58735SOL    HW278039   8.678   4.884   5.433
58736SOL     OW78040   7.261  14.653  13.129
58736SOL    HW178041   7.281  14.592  13.059
58736SOL    HW278042   7.346  14.684  13.159
58737SOL     OW78043  12.534   5.209   8.970
58737SOL    HW178044  12.455   5.182   8.923
58737SOL    HW278045  12.586   5.129   8.978
58738SOL     OW78046   5.919   8.361   2.040
58738SOL    HW178047   5.990   8.383   1.980
58738SOL    HW278048   5.848   8.421   2.016
58739SOL     OW78049   7.955  12.670   0.732
58739SOL    HW178050   8.025  12.610   0.755
58739SOL    HW278051   7.959  12.678   0.637
58740SOL     OW78052  11.022   0.947   2.885
58740SOL    HW178053  11.083   0.972   2.816
58740SOL    HW278054  10.959   0.890   2.841
58741SOL     OW78055   7.257   0.522   6.356
58741SOL    HW178056   7.209   0.471   6.421
58741SOL    HW278057   7.262   0.466   6.279
58742SOL     OW78058   3.537   8.278  12.025
58742SOL    HW178059   3.616   8.246  12.069
58742SOL    HW278060   3.504   8.347  12.082
58743SOL     OW78061   6.163   2.554   2.228
58743SOL    HW178062   6.133   2.566   2.318
58743SOL    HW278063   6.085   2.568   2.175
58744SOL     OW78064  10.004   3.335   6.436
58744SOL    HW178065   9.948   3.287   6.375
58744SOL    HW278066  10.079   3.276   6.451
58745SOL     OW78067  12.587  13.890   5.366
58745SOL    HW178068  12.611  13.958   5.303
58745SOL    HW278069  12.657  13.825   5.358
58746SOL     OW78070   2.300   8.647  12.906
58746SOL    HW178071   2.296   8.719  12.969
58746SOL    HW278072   2.220   8.597  12.923
58747SOL     OW78073   0.680   8.683   6.870
58747SOL    HW178074   0.708   8.673   6.961
58747SOL    HW278075   0.667   8.777   6.859
58748SOL     OW78076  11.864   2.216   1.353
58748SOL    HW178077  11.908   2.293   1.317
58748SOL    HW278078  11.907   2.142   1.310
58749SOL     OW78079  14.826  11.768   5.028
58749SOL    HW178080   0.025  11.804   5.070
58749SOL    HW278081  14.854  11.683   4.993
58750SOL     OW78082  11.331  12.567   5.713
58750SOL    HW178083  11.388  12.491   5.722
58750SOL    HW278084  11.290  12.555   5.627
58751SOL     OW78085  14.734   2.378   5.571
58751SOL    HW178086  14.671   2.449   5.563
58751SOL    HW278087  14.736   2.338   5.484
58752SOL     OW78088   4.131   7.407   1.062
58752SOL    HW178089   4.136   7.477   1.127
58752SOL    HW278090   4.119   7.327   1.113
58753SOL     OW78091   0.075   3.167   1.960
58753SOL    HW178092   0.077   3.071   1.963
58753SOL    HW278093   0.039   3.187   1.873
58754SOL     OW78094   6.242  14.457  10.543
58754SOL    HW178095   6.156  14.419  10.524
58754SOL    HW278096   6.222  14.532  10.599
58755SOL     OW78097   5.300   9.584  12.443
58755SOL    HW178098   5.247   9.619  12.515
58755SOL    HW278099   5.305   9.656  12.380
58756SOL     OW78100  10.005   0.574  11.774
58756SOL    HW178101  10.056   0.590  11.695
58756SOL    HW278102   9.999   0.660  11.817
58757SOL     OW78103   3.438   3.541   1.650
58757SOL    HW178104   3.460   3.530   1.742
58757SOL    HW278105   3.508   3.597   1.616
58758SOL     OW78106  14.016   2.243   9.408
58758SOL    HW178107  14.012   2.201   9.494
58758SOL    HW278108  14.022   2.337   9.427
58759SOL     OW78109   1.981   3.701   0.378
58759SOL    HW178110   1.994   3.791   0.410
58759SOL    HW278111   1.981   3.647   0.457
58760SOL     OW78112  10.763   8.095  13.752
58760SOL    HW178113  10.737   8.151  13.825
58760SOL    HW278114  10.814   8.025  13.792
58761SOL     OW78115   8.755   1.720  14.012
58761SOL    HW178116   8.686   1.701  13.947
58761SOL    HW278117   8.719   1.686  14.094
58762SOL     OW78118   1.756  14.615   3.503
58762SOL    HW178119   1.716  14.695   3.468
58762SOL    HW278120   1.835  14.604   3.452
58763SOL     OW78121   3.153   4.645   8.525
58763SOL    HW178122   3.190   4.704   8.458
58763SOL    HW278123   3.208   4.660   8.602
58764SOL     OW78124   3.701   0.481   1.195
58764SOL    HW178125   3.648   0.497   1.117
58764SOL    HW278126   3.637   0.468   1.265
58765SOL     OW78127  11.419   2.846   7.860
58765SOL    HW178128  11.444   2.765   7.815
58765SOL    HW278129  11.454   2.836   7.948
58766SOL     OW78130   5.810   9.000  10.952
58766SOL    HW178131   5.903   8.985  10.938
58766SOL    HW278132   5.767   8.928  10.905
58767SOL     OW78133   0.596   9.371   9.100
58767SOL    HW178134   0.679   9.419   9.103
58767SOL    HW278135   0.567   9.368   9.192
58768SOL     OW78136   1.284  11.740  12.867
58768SOL    HW178137   1.203  11.777  12.832
58768SOL    HW278138   1.278  11.646  12.845
58769SOL     OW78139  12.414   2.400  11.059
58769SOL    HW178140  12.325   2.407  11.093
58769SOL    HW278141  12.456   2.481  11.085
58770SOL     OW78142  13.429   5.722   9.960
58770SOL    HW178143  13.399   5.786  10.024
58770SOL    HW278144  13.501   5.766   9.914
58771SOL     OW78145   2.879   8.908   5.421
58771SOL    HW178146   2.875   8.840   5.354
58771SOL    HW278147   2.794   8.951   5.417
58772SOL     OW78148   8.699   8.742   7.621
58772SOL    HW178149   8.698   8.659   7.572
58772SOL    HW278150   8.710   8.715   7.713
58773SOL     OW78151   5.581   4.024   3.910
58773SOL    HW178152   5.518   4.018   3.982
58773SOL    HW278153   5.667   4.019   3.953
58774SOL     OW78154  14.460   4.972   0.004
58774SOL    HW178155  14.398   4.983  14.810
58774SOL    HW278156  14.492   5.061   0.020
58775SOL     OW78157   1.663   1.056  14.114
58775SOL    HW178158   1.658   0.996  14.189
58775SOL    HW278159   1.621   1.136  14.145
58776SOL     OW78160   0.513   1.059   8.161
58776SOL    HW178161   0.574   0.985   8.163
58776SOL    HW278162   0.429   1.020   8.138
58777SOL     OW78163   1.398   4.452   7.241
58777SOL    HW178164   1.447   4.450   7.158
58777SOL    HW278165   1.414   4.366   7.281
58778SOL     OW78166   6.336  12.137  13.948
58778SOL    HW178167   6.422  12.106  13.918
58778SOL    HW278168   6.275  12.101  13.884
58779SOL     OW78169   6.963   5.500   5.531
58779SOL    HW178170   6.955   5.405   5.523
58779SOL    HW278171   6.925   5.534   5.450
58780SOL     OW78172   2.306  11.318   7.714
58780SOL    HW178173   2.252  11.239   7.709
58780SOL    HW278174   2.287  11.366   7.634
58781SOL     OW78175   4.266  11.696   7.541
58781SOL    HW178176   4.273  11.710   7.446
58781SOL    HW278177   4.328  11.757   7.580
58782SOL     OW78178  11.315   8.032   4.173
58782SOL    HW178179  11.310   8.082   4.091
58782SOL    HW278180  11.386   8.073   4.222
58783SOL     OW78181   5.924  12.766  14.583
58783SOL    HW178182   5.887  12.757  14.495
58783SOL    HW278183   5.897  12.686  14.628
58784SOL     OW78184   7.916  13.429   3.549
58784SOL    HW178185   7.887  13.514   3.582
58784SOL    HW278186   8.000  13.414   3.593
58785SOL     OW78187  13.233  10.389   0.296
58785SOL    HW178188  13.284  10.308   0.301
58785SOL    HW278189  13.143  10.362   0.313
58786SOL     OW78190  14.004  13.484  10.315
58786SOL    HW178191  13.965  13.414  10.264
58786SOL    HW278192  14.098  13.468  10.311
58787SOL     OW78193   0.326   4.236  10.675
58787SOL    HW178194   0.275   4.164  10.714
58787SOL    HW278195   0.399   4.249  10.735
58788SOL     OW78196  12.374   1.713   5.473
58788SOL    HW178197  12.389   1.671   5.388
58788SOL    HW278198  12.458   1.754   5.494
58789SOL     OW78199  10.172   3.502   7.464
58789SOL    HW178200  10.210   3.434   7.408
58789SOL    HW278201  10.101   3.457   7.509
58790SOL     OW78202   7.061   1.067   3.138
58790SOL    HW178203   7.106   1.129   3.197
58790SOL    HW278204   7.087   0.981   3.170
58791SOL     OW78205  13.633  11.555  11.964
58791SOL    HW178206  13.701  11.489  11.949
58791SOL    HW278207  13.555  11.519  11.923
58792SOL     OW78208   6.155   7.796   9.317
58792SOL    HW178209   6.153   7.840   9.232
58792SOL    HW278210   6.228   7.838   9.364
58793SOL     OW78211  10.573   1.243  14.817
58793SOL    HW178212  10.544   1.320  14.864
58793SOL    HW278213  10.492   1.194  14.798
58794SOL     OW78214   2.220   5.912  13.134
58794SOL    HW178215   2.290   5.972  13.113
58794SOL    HW278216   2.146   5.941  13.081
58795SOL     OW78217   6.925   5.958   5.377
58795SOL    HW178218   6.899   6.050   5.375
58795SOL    HW278219   6.989   5.952   5.448
58796SOL     OW78220   0.187   5.430   9.396
58796SOL    HW178221   0.231   5.513   9.410
58796SOL    HW278222   0.193   5.414   9.302
58797SOL     OW78223   4.562  13.355  10.626
58797SOL    HW178224   4.524  13.405  10.698
58797SOL    HW278225   4.517  13.271  10.628
58798SOL     OW78226   0.855  11.523  14.501
58798SOL    HW178227   0.947  11.505  14.520
58798SOL    HW278228   0.854  11.552  14.410
58799SOL     OW78229   9.899  14.834   5.017
58799SOL    HW178230   9.837  14.801   4.953
58799SOL    HW278231   9.877  14.788   5.098
58800SOL     OW78232  12.977   2.427  11.312
58800SOL    HW178233  13.009   2.409  11.401
58800SOL    HW278234  13.055   2.454  11.264
58801SOL     OW78235   4.290   3.242   0.230
58801SOL    HW178236   4.355   3.242   0.159
58801SOL    HW278237   4.224   3.179   0.202
58802SOL     OW78238   1.064   0.438   9.646
58802SOL    HW178239   1.034   0.351   9.672
58802SOL    HW278240   1.067   0.435   9.550
58803SOL     OW78241   2.719   0.977  12.370
58803SOL    HW178242   2.637   0.928  12.377
58803SOL    HW278243   2.695   1.056  12.322
58804SOL     OW78244   2.934  13.144   7.995
58804SOL    HW178245   2.918  13.184   7.910
58804SOL    HW278246   3.004  13.197   8.034
58805SOL     OW78247  11.812   1.587   2.238
58805SOL    HW178248  11.773   1.517   2.290
58805SOL    HW278249  11.783   1.667   2.282
58806SOL     OW78250   9.985   6.573  12.402
58806SOL    HW178251   9.929   6.610  12.333
58806SOL    HW278252   9.969   6.479  12.397
58807SOL     OW78253   4.554   0.338  14.265
58807SOL    HW178254   4.561   0.251  14.307
58807SOL    HW278255   4.559   0.400  14.338
58808SOL     OW78256  10.831   3.988   3.732
58808SOL    HW178257  10.758   3.950   3.684
58808SOL    HW278258  10.895   4.011   3.665
58809SOL     OW78259   0.532  11.839  12.577
58809SOL    HW178260   0.513  11.787  12.499
58809SOL    HW278261   0.506  11.928  12.553
58810SOL     OW78262  14.839   8.489   7.131
58810SOL    HW178263  14.786   8.564   7.104
58810SOL    HW278264  14.789   8.413   7.102
58811SOL     OW78265   1.665   6.344   5.802
58811SOL    HW178266   1.726   6.411   5.835
58811SOL    HW278267   1.593   6.345   5.864
58812SOL     OW78268   8.122   4.671  13.419
58812SOL    HW178269   8.072   4.752  13.410
58812SOL    HW278270   8.060   4.608  13.456
58813SOL     OW78271   2.142   6.774   4.259
58813SOL    HW178272   2.051   6.758   4.285
58813SOL    HW278273   2.194   6.730   4.325
58814SOL     OW78274   4.444  10.237   8.961
58814SOL    HW178275   4.437  10.278   8.875
58814SOL    HW278276   4.516  10.174   8.952
58815SOL     OW78277   9.290  11.176   9.947
58815SOL    HW178278   9.281  11.221   9.862
58815SOL    HW278279   9.212  11.203   9.996
58816SOL     OW78280   7.812   1.956   5.887
58816SOL    HW178281   7.725   1.925   5.861
58816SOL    HW278282   7.863   1.877   5.900
58817SOL     OW78283   5.962   5.018   6.844
58817SOL    HW178284   5.990   5.026   6.936
58817SOL    HW278285   5.909   4.939   6.843
58818SOL     OW78286   3.004   3.674  11.977
58818SOL    HW178287   3.009   3.637  11.889
58818SOL    HW278288   2.917   3.648  12.009
58819SOL     OW78289   7.567  13.508   4.478
58819SOL    HW178290   7.490  13.554   4.512
58819SOL    HW278291   7.586  13.441   4.544
58820SOL     OW78292   5.699  14.271   0.577
58820SOL    HW178293   5.621  14.254   0.525
58820SOL    HW278294   5.740  14.346   0.534
58821SOL     OW78295  11.698   1.314   6.408
58821SOL    HW178296  11.619   1.260   6.416
58821SOL    HW278297  11.698   1.344   6.317
58822SOL     OW78298   5.568   8.310   0.170
58822SOL    HW178299   5.560   8.388   0.115
58822SOL    HW278300   5.495   8.254   0.142
58823SOL     OW78301  14.319   3.767   0.782
58823SOL    HW178302  14.273   3.809   0.709
58823SOL    HW278303  14.330   3.837   0.847
58824SOL     OW78304   9.972   0.311  14.617
58824SOL    HW178305   9.909   0.275  14.679
58824SOL    HW278306   9.955   0.405  14.616
58825SOL     OW78307  12.067   0.474   5.673
58825SOL    HW178308  12.140   0.513   5.721
58825SOL    HW278309  11.989   0.514   5.712
58826SOL     OW78310   6.924   0.674   3.146
58826SOL    HW178311   6.976   0.717   3.078
58826SOL    HW278312   6.846   0.643   3.101
58827SOL     OW78313   0.476  12.945   8.714
58827SOL    HW178314   0.563  12.948   8.674
58827SOL    HW278315   0.475  12.863   8.763
58828SOL     OW78316   2.441   7.627  11.080
58828SOL    HW178317   2.493   7.683  11.022
58828SOL    HW278318   2.498   7.609  11.154
58829SOL     OW78319   0.202  14.577   4.163
58829SOL    HW178320   0.129  14.614   4.113
58829SOL    HW278321   0.169  14.492   4.194
58830SOL     OW78322   9.753   8.431   2.354
58830SOL    HW178323   9.715   8.395   2.434
58830SOL    HW278324   9.825   8.372   2.333
58831SOL     OW78325  11.357   3.057   3.525
58831SOL    HW178326  11.273   3.090   3.493
58831SOL    HW278327  11.353   3.071   3.620
58832SOL     OW78328   6.323  12.385   1.056
58832SOL    HW178329   6.273  12.428   1.126
58832SOL    HW278330   6.415  12.399   1.080
58833SOL     OW78331   3.337   2.920   9.999
58833SOL    HW178332   3.278   2.978  10.048
58833SOL    HW278333   3.413   2.910  10.055
58834SOL     OW78334   0.022   2.221   9.516
58834SOL    HW178335  14.823   2.169   9.538
58834SOL    HW278336   0.073   2.221   9.597
58835SOL     OW78337  12.821   9.572  10.980
58835SOL    HW178338  12.745   9.573  11.038
58835SOL    HW278339  12.879   9.506  11.018
58836SOL     OW78340  10.031  13.461   6.602
58836SOL    HW178341  10.005  13.493   6.689
58836SOL    HW278342   9.971  13.505   6.542
58837SOL     OW78343   2.419   1.258   1.045
58837SOL    HW178344   2.514   1.248   1.036
58837SOL    HW278345   2.401   1.241   1.137
58838SOL     OW78346   3.507   3.734   0.777
58838SOL    HW178347   3.509   3.758   0.684
58838SOL    HW278348   3.440   3.665   0.782
58839SOL     OW78349   2.431   0.629   8.622
58839SOL    HW178350   2.491   0.681   8.676
58839SOL    HW278351   2.383   0.694   8.571
58840SOL     OW78352   4.491   4.711   9.247
58840SOL    HW178353   4.530   4.701   9.334
58840SOL    HW278354   4.458   4.801   9.245
58841SOL     OW78355   6.573  10.710   5.430
58841SOL    HW178356   6.589  10.646   5.361
58841SOL    HW278357   6.480  10.700   5.451
58842SOL     OW78358  11.970   9.020  11.698
58842SOL    HW178359  11.893   9.050  11.650
58842SOL    HW278360  12.041   9.025  11.634
58843SOL     OW78361  10.835   5.185   7.091
58843SOL    HW178362  10.833   5.129   7.169
58843SOL    HW278363  10.813   5.126   7.019
58844SOL     OW78364   4.479   9.212   7.978
58844SOL    HW178365   4.486   9.145   8.045
58844SOL    HW278366   4.514   9.171   7.899
58845SOL     OW78367   8.550   9.850   7.770
58845SOL    HW178368   8.574   9.919   7.832
58845SOL    HW278369   8.466   9.817   7.803
58846SOL     OW78370   8.869   5.487   6.802
58846SOL    HW178371   8.942   5.540   6.836
58846SOL    HW278372   8.810   5.552   6.763
58847SOL     OW78373   8.137   1.021   3.976
58847SOL    HW178374   8.153   1.043   3.885
58847SOL    HW278375   8.225   1.015   4.014
58848SOL     OW78376   6.120  12.337  14.141
58848SOL    HW178377   6.113  12.378  14.228
58848SOL    HW278378   6.117  12.243  14.158
58849SOL     OW78379   7.672   9.252   0.857
58849SOL    HW178380   7.737   9.214   0.917
58849SOL    HW278381   7.611   9.298   0.914
58850SOL     OW78382   0.129  13.433  12.306
58850SOL    HW178383   0.090  13.512  12.269
58850SOL    HW278384   0.223  13.443  12.291
58851SOL     OW78385  14.697  10.073   3.701
58851SOL    HW178386  14.736  10.018   3.633
58851SOL    HW278387  14.769  10.089   3.762
58852SOL     OW78388   7.801   7.156  14.161
58852SOL    HW178389   7.745   7.106  14.102
58852SOL    HW278390   7.848   7.216  14.104
58853SOL     OW78391   2.982   3.972   7.246
58853SOL    HW178392   2.894   3.987   7.209
58853SOL    HW278393   3.011   3.891   7.205
58854SOL     OW78394   7.730   4.304  13.558
58854SOL    HW178395   7.791   4.303  13.632
58854SOL    HW278396   7.764   4.372  13.500
58855SOL     OW78397  11.649   1.123   9.849
58855SOL    HW178398  11.632   1.178   9.772
58855SOL    HW278399  11.683   1.184   9.915
58856SOL     OW78400   7.836  12.715   4.893
58856SOL    HW178401   7.905  12.714   4.827
58856SOL    HW278402   7.881  12.736   4.975
58857SOL     OW78403  13.724   2.975   0.164
58857SOL    HW178404  13.776   3.006   0.090
58857SOL    HW278405  13.776   2.997   0.241
58858SOL     OW78406   5.708  12.019   1.005
58858SOL    HW178407   5.697  11.943   0.948
58858SOL    HW278408   5.698  11.985   1.093
58859SOL     OW78409   8.533   9.386   1.200
58859SOL    HW178410   8.516   9.466   1.250
58859SOL    HW278411   8.449   9.339   1.201
58860SOL     OW78412   0.313   8.339  10.690
58860SOL    HW178413   0.325   8.420  10.740
58860SOL    HW278414   0.311   8.366  10.599
58861SOL     OW78415  10.096   6.471   0.611
58861SOL    HW178416  10.157   6.479   0.684
58861SOL    HW278417  10.135   6.404   0.555
58862SOL     OW78418   2.945  12.748   0.467
58862SOL    HW178419   2.881  12.721   0.401
58862SOL    HW278420   3.023  12.696   0.447
58863SOL     OW78421   0.136   3.093  14.530
58863SOL    HW178422   0.229   3.069  14.532
58863SOL    HW278423   0.129   3.156  14.458
58864SOL     OW78424  10.819   6.598   6.408
58864SOL    HW178425  10.780   6.685   6.413
58864SOL    HW278426  10.874   6.592   6.485
58865SOL     OW78427   4.516   8.522   2.037
58865SOL    HW178428   4.500   8.438   2.080
58865SOL    HW278429   4.608   8.540   2.054
58866SOL     OW78430  12.283   7.074  13.261
58866SOL    HW178431  12.346   7.019  13.308
58866SOL    HW278432  12.313   7.164  13.278
58867SOL     OW78433   8.448   7.310  14.799
58867SOL    HW178434   8.418   7.390  14.842
58867SOL    HW278435   8.385   7.243  14.826
58868SOL     OW78436   6.827  10.575   1.319
58868SOL    HW178437   6.887  10.649   1.322
58868SOL    HW278438   6.744  10.613   1.291
58869SOL     OW78439   2.768   1.795   8.384
58869SOL    HW178440   2.775   1.730   8.454
58869SOL    HW278441   2.707   1.757   8.321
58870SOL     OW78442   0.311  14.856   4.455
58870SOL    HW178443   0.304   0.051   4.514
58870SOL    HW278444   0.343   0.014   4.373
58871SOL     OW78445   1.623   1.800   4.629
58871SOL    HW178446   1.623   1.891   4.659
58871SOL    HW278447   1.553   1.796   4.564
58872SOL     OW78448   4.458   9.914   5.038
58872SOL    HW178449   4.539   9.920   4.988
58872SOL    HW278450   4.468   9.979   5.108
58873SOL     OW78451  10.284   9.393  10.866
58873SOL    HW178452  10.279   9.365  10.774
58873SOL    HW278453  10.340   9.470  10.864
58874SOL     OW78454   7.722  12.760  12.483
58874SOL    HW178455   7.807  12.757  12.527
58874SOL    HW278456   7.681  12.840  12.516
58875SOL     OW78457   5.579   9.864  10.460
58875SOL    HW178458   5.618   9.777  10.452
58875SOL    HW278459   5.644   9.916  10.506
58876SOL     OW78460   3.412   7.534  11.658
58876SOL    HW178461   3.410   7.557  11.565
58876SOL    HW278462   3.492   7.573  11.691
58877SOL     OW78463   1.419   7.222  10.255
58877SOL    HW178464   1.357   7.155  10.284
58877SOL    HW278465   1.394   7.300  10.304
58878SOL     OW78466  14.089  11.245  10.386
58878SOL    HW178467  14.041  11.221  10.307
58878SOL    HW278468  14.026  11.295  10.438
58879SOL     OW78469   1.831   3.074  11.916
58879SOL    HW178470   1.747   3.071  11.961
58879SOL    HW278471   1.856   2.982  11.905
58880SOL     OW78472   8.649   3.231   4.560
58880SOL    HW178473   8.708   3.171   4.513
58880SOL    HW278474   8.577   3.176   4.589
58881SOL     OW78475   1.779   5.068  13.893
58881SOL    HW178476   1.815   5.035  13.811
58881SOL    HW278477   1.806   5.160  13.895
58882SOL     OW78478  11.568  14.128  14.221
58882SOL    HW178479  11.514  14.206  14.205
58882SOL    HW278480  11.505  14.062  14.252
58883SOL     OW78481   4.817  12.976   1.510
58883SOL    HW178482   4.751  13.030   1.554
58883SOL    HW278483   4.851  13.032   1.441
58884SOL     OW78484   6.769   0.355   4.148
58884SOL    HW178485   6.856   0.386   4.171
58884SOL    HW278486   6.784   0.293   4.076
58885SOL     OW78487  10.274   3.715   7.615
58885SOL    HW178488  10.234   3.633   7.587
58885SOL    HW278489  10.231   3.736   7.698
58886SOL     OW78490   7.067   5.452   5.029
58886SOL    HW178491   6.979   5.414   5.023
58886SOL    HW278492   7.069   5.518   4.960
58887SOL     OW78493   5.063   1.693   2.195
58887SOL    HW178494   5.145   1.653   2.165
58887SOL    HW278495   5.031   1.633   2.264
58888SOL     OW78496   0.560  14.572  12.536
58888SOL    HW178497   0.576  14.516  12.460
58888SOL    HW278498   0.487  14.627  12.510
58889SOL     OW78499  12.871   6.985   1.128
58889SOL    HW178500  12.888   6.988   1.034
58889SOL    HW278501  12.956   6.969   1.168
58890SOL     OW78502   4.191   7.661  11.252
58890SOL    HW178503   4.207   7.747  11.212
58890SOL    HW278504   4.106   7.671  11.296
58891SOL     OW78505   6.813   4.583  14.712
58891SOL    HW178506   6.756   4.655  14.687
58891SOL    HW278507   6.877   4.578  14.640
58892SOL     OW78508  11.346   4.619   4.342
58892SOL    HW178509  11.262   4.658   4.367
58892SOL    HW278510  11.405   4.641   4.414
58893SOL     OW78511   0.182   2.168   4.947
58893SOL    HW178512   0.092   2.197   4.964
58893SOL    HW278513   0.182   2.075   4.971
58894SOL     OW78514   3.988  11.342  11.956
58894SOL    HW178515   3.901  11.355  11.993
58894SOL    HW278516   4.030  11.278  12.013
58895SOL     OW78517   7.417  11.337   4.606
58895SOL    HW178518   7.504  11.300   4.621
58895SOL    HW278519   7.429  11.399   4.533
58896SOL     OW78520   3.341  14.484  12.919
58896SOL    HW178521   3.419  14.511  12.968
58896SOL    HW278522   3.294  14.426  12.978
58897SOL     OW78523   4.357  14.083  12.066
58897SOL    HW178524   4.298  14.097  12.140
58897SOL    HW278525   4.407  14.164  12.061
58898SOL     OW78526  14.096   3.430   7.404
58898SOL    HW178527  14.040   3.491   7.357
58898SOL    HW278528  14.057   3.424   7.491
58899SOL     OW78529   6.759   3.370   6.736
58899SOL    HW178530   6.707   3.321   6.800
58899SOL    HW278531   6.806   3.302   6.687
58900SOL     OW78532   5.740   4.207   1.802
58900SOL    HW178533   5.679   4.266   1.845
58900SOL    HW278534   5.685   4.139   1.762
58901SOL     OW78535   0.575  13.941   0.047
58901SOL    HW178536   0.641  13.881   0.083
58901SOL    HW278537   0.496  13.921   0.096
58902SOL     OW78538   2.237  12.492   5.264
58902SOL    HW178539   2.164  12.436   5.290
58902SOL    HW278540   2.312  12.457   5.311
58903SOL     OW78541   3.155   8.234   6.017
58903SOL    HW178542   3.221   8.288   5.974
58903SOL    HW278543   3.075   8.287   6.017
58904SOL     OW78544   7.593   3.982   2.977
58904SOL    HW178545   7.590   4.062   2.925
58904SOL    HW278546   7.686   3.967   2.993
58905SOL     OW78547   0.422   0.504   0.131
58905SOL    HW178548   0.445   0.510   0.038
58905SOL    HW278549   0.419   0.595   0.161
58906SOL     OW78550  10.993   8.236  13.663
58906SOL    HW178551  10.957   8.185  13.591
58906SOL    HW278552  10.943   8.208  13.740
58907SOL     OW78553   6.758   2.816   3.650
58907SOL    HW178554   6.753   2.823   3.555
58907SOL    HW278555   6.808   2.736   3.666
58908SOL     OW78556   6.774   0.949   8.815
58908SOL    HW178557   6.679   0.944   8.800
58908SOL    HW278558   6.811   0.893   8.747
58909SOL     OW78559   6.029   0.129   9.046
58909SOL    HW178560   6.086   0.059   9.079
58909SOL    HW278561   6.088   0.188   9.000
58910SOL     OW78562  11.677   0.380  14.041
58910SOL    HW178563  11.760   0.416  14.011
58910SOL    HW278564  11.646   0.443  14.106
58911SOL     OW78565  11.399   4.496   9.738
58911SOL    HW178566  11.384   4.440   9.814
58911SOL    HW278567  11.438   4.576   9.775
58912SOL     OW78568   7.026  10.300  10.446
58912SOL    HW178569   7.034  10.387  10.407
58912SOL    HW278570   6.960  10.256  10.393
58913SOL     OW78571   3.415   4.550   4.642
58913SOL    HW178572   3.431   4.465   4.600
58913SOL    HW278573   3.496   4.598   4.629
58914SOL     OW78574   8.430   2.897   1.064
58914SOL    HW178575   8.517   2.927   1.040
58914SOL    HW278576   8.395   2.967   1.119
58915SOL     OW78577   8.393   8.463  11.532
58915SOL    HW178578   8.380   8.371  11.509
58915SOL    HW278579   8.317   8.485  11.586
58916SOL     OW78580  11.812   8.726  10.758
58916SOL    HW178581  11.880   8.768  10.705
58916SOL    HW278582  11.848   8.725  10.847
58917SOL     OW78583  12.165   8.517   8.176
58917SOL    HW178584  12.090   8.558   8.132
58917SOL    HW278585  12.133   8.499   8.264
58918SOL     OW78586   1.394  14.831   3.906
58918SOL    HW178587   1.379  14.857   3.815
58918SOL    HW278588   1.308  14.808   3.940
58919SOL     OW78589  11.227   6.202   8.361
58919SOL    HW178590  11.138   6.182   8.390
58919SOL    HW278591  11.283   6.165   8.429
58920SOL     OW78592   6.169   1.323   0.211
58920SOL    HW178593   6.244   1.343   0.267
58920SOL    HW278594   6.154   1.403   0.161
58921SOL     OW78595  13.695  12.590   2.601
58921SOL    HW178596  13.685  12.684   2.618
58921SOL    HW278597  13.695  12.551   2.689
58922SOL     OW78598   6.975   1.973   4.922
58922SOL    HW178599   6.974   1.940   4.832
58922SOL    HW278600   6.935   1.904   4.974
58923SOL     OW78601   0.059  13.986   6.563
58923SOL    HW178602  14.877  14.057   6.543
58923SOL    HW278603   0.040  13.918   6.498
58924SOL     OW78604  12.285  11.064   0.800
58924SOL    HW178605  12.298  11.136   0.862
58924SOL    HW278606  12.198  11.079   0.764
58925SOL     OW78607   0.590  14.757  12.303
58925SOL    HW178608   0.671  14.807  12.293
58925SOL    HW278609   0.521  14.823  12.301
58926SOL     OW78610   9.420   2.419   6.280
58926SOL    HW178611   9.422   2.411   6.375
58926SOL    HW278612   9.400   2.330   6.249
58927SOL     OW78613   7.295   0.598  13.150
58927SOL    HW178614   7.363   0.664  13.166
58927SOL    HW278615   7.223   0.648  13.112
58928SOL     OW78616  13.561   3.720  12.889
58928SOL    HW178617  13.591   3.805  12.920
58928SOL    HW278618  13.494   3.694  12.951
58929SOL     OW78619   8.635   6.560  14.231
58929SOL    HW178620   8.655   6.530  14.319
58929SOL    HW278621   8.717   6.600  14.200
58930SOL     OW78622   1.337   4.669   3.767
58930SOL    HW178623   1.432   4.680   3.772
58930SOL    HW278624   1.325   4.577   3.746
58931SOL     OW78625   6.364   6.080  13.289
58931SOL    HW178626   6.397   6.143  13.353
58931SOL    HW278627   6.441   6.057  13.237
58932SOL     OW78628   4.438   9.040   3.243
58932SOL    HW178629   4.527   9.027   3.275
58932SOL    HW278630   4.405   9.115   3.291
58933SOL     OW78631   5.135   4.558   1.754
58933SOL    HW178632   5.191   4.618   1.704
58933SOL    HW278633   5.065   4.535   1.693
58934SOL     OW78634   9.146   3.365  12.604
58934SOL    HW178635   9.090   3.401  12.535
58934SOL    HW278636   9.128   3.271  12.602
58935SOL     OW78637   2.818   5.309   6.876
58935SOL    HW178638   2.884   5.350   6.931
58935SOL    HW278639   2.864   5.291   6.793
58936SOL     OW78640  10.092   0.622   5.639
58936SOL    HW178641  10.054   0.681   5.575
58936SOL    HW278642  10.044   0.639   5.720
58937SOL     OW78643  13.145   6.466   5.747
58937SOL    HW178644  13.176   6.549   5.710
58937SOL    HW278645  13.050   6.468   5.734
58938SOL     OW78646   2.462  14.316   6.223
58938SOL    HW178647   2.470  14.267   6.306
58938SOL    HW278648   2.406  14.391   6.245
58939SOL     OW78649   3.288   5.873   9.558
58939SOL    HW178650   3.269   5.953   9.606
58939SOL    HW278651   3.283   5.898   9.466
58940SOL     OW78652   4.311   8.618   9.944
58940SOL    HW178653   4.385   8.678   9.935
58940SOL    HW278654   4.239   8.672   9.977
58941SOL     OW78655   6.660   3.493   3.252
58941SOL    HW178656   6.734   3.520   3.196
58941SOL    HW278657   6.683   3.526   3.339
58942SOL     OW78658   3.353  12.486  10.321
58942SOL    HW178659   3.296  12.501  10.396
58942SOL    HW278660   3.363  12.391  10.317
58943SOL     OW78661   2.257   6.484   7.304
58943SOL    HW178662   2.352   6.496   7.313
58943SOL    HW278663   2.246   6.438   7.221
58944SOL     OW78664   8.016  11.645   4.395
58944SOL    HW178665   8.097  11.628   4.444
58944SOL    HW278666   7.951  11.587   4.436
58945SOL     OW78667   0.647  11.952   1.517
58945SOL    HW178668   0.666  11.858   1.515
58945SOL    HW278669   0.724  11.991   1.559
58946SOL     OW78670  11.578  13.284   5.543
58946SOL    HW178671  11.617  13.367   5.515
58946SOL    HW278672  11.557  13.239   5.461
58947SOL     OW78673   4.383   1.181   2.292
58947SOL    HW178674   4.359   1.153   2.380
58947SOL    HW278675   4.478   1.171   2.289
58948SOL     OW78676   2.375   1.983   8.974
58948SOL    HW178677   2.327   2.019   9.049
58948SOL    HW278678   2.306   1.959   8.912
58949SOL     OW78679  11.773  12.735   5.604
58949SOL    HW178680  11.810  12.803   5.659
58949SOL    HW278681  11.707  12.780   5.551
58950SOL     OW78682   2.957  13.025   8.239
58950SOL    HW178683   2.923  13.060   8.157
58950SOL    HW278684   3.044  13.065   8.248
58951SOL     OW78685  13.396   9.634  10.191
58951SOL    HW178686  13.308   9.671  10.186
58951SOL    HW278687  13.454   9.711  10.196
58952SOL     OW78688   9.076   2.790   4.337
58952SOL    HW178689   9.022   2.802   4.414
58952SOL    HW278690   9.062   2.699   4.311
58953SOL     OW78691   4.701   4.299   0.718
58953SOL    HW178692   4.678   4.247   0.795
58953SOL    HW278693   4.731   4.236   0.653
58954SOL     OW78694   7.044   6.281   3.162
58954SOL    HW178695   6.960   6.245   3.189
58954SOL    HW278696   7.104   6.207   3.167
58955SOL     OW78697  14.264  10.840   8.636
58955SOL    HW178698  14.296  10.929   8.629
58955SOL    HW278699  14.170  10.849   8.653
58956SOL     OW78700   8.511  11.322   8.359
58956SOL    HW178701   8.491  11.316   8.452
58956SOL    HW278702   8.439  11.373   8.322
58957SOL     OW78703   2.236   5.787   3.445
58957SOL    HW178704   2.317   5.768   3.398
58957SOL    HW278705   2.231   5.883   3.447
58958SOL     OW78706  14.693  12.229  13.641
58958SOL    HW178707  14.603  12.241  13.673
58958SOL    HW278708  14.703  12.295  13.572
58959SOL     OW78709  12.158   8.688   3.463
58959SOL    HW178710  12.246   8.699   3.498
58959SOL    HW278711  12.165   8.718   3.372
58960SOL     OW78712   8.376  12.925  14.606
58960SOL    HW178713   8.389  12.843  14.654
58960SOL    HW278714   8.455  12.976  14.623
58961SOL     OW78715  13.312   9.895   1.602
58961SOL    HW178716  13.253   9.825   1.629
58961SOL    HW278717  13.336   9.873   1.512
58962SOL     OW78718   0.894  12.915   5.412
58962SOL    HW178719   0.813  12.952   5.376
58962SOL    HW278720   0.869  12.828   5.443
58963SOL     OW78721   9.774   0.295   7.494
58963SOL    HW178722   9.744   0.346   7.569
58963SOL    HW278723   9.829   0.226   7.531
58964SOL     OW78724   1.057   0.342  10.886
58964SOL    HW178725   1.107   0.406  10.937
58964SOL    HW278726   0.982   0.321  10.941
58965SOL     OW78727   2.792   6.629   4.450
58965SOL    HW178728   2.861   6.579   4.493
58965SOL    HW278729   2.788   6.594   4.361
58966SOL     OW78730   9.635  10.649  14.565
58966SOL    HW178731   9.688  10.615  14.493
58966SOL    HW278732   9.693  10.707  14.614
58967SOL     OW78733   5.463   9.627   5.767
58967SOL    HW178734   5.432   9.655   5.682
58967SOL    HW278735   5.387   9.587   5.809
58968SOL     OW78736  12.263   8.203   9.456
58968SOL    HW178737  12.326   8.171   9.521
58968SOL    HW278738  12.248   8.128   9.398
58969SOL     OW78739   1.191   5.675   8.366
58969SOL    HW178740   1.277   5.641   8.340
58969SOL    HW278741   1.128   5.614   8.327
58970SOL     OW78742   9.628   6.543   4.781
58970SOL    HW178743   9.561   6.571   4.844
58970SOL    HW278744   9.629   6.448   4.788
58971SOL     OW78745   5.953  10.643   5.206
58971SOL    HW178746   5.936  10.582   5.135
58971SOL    HW278747   6.022  10.602   5.258
58972SOL     OW78748  12.769  12.688   8.134
58972SOL    HW178749  12.743  12.597   8.145
58972SOL    HW278750  12.760  12.704   8.040
58973SOL     OW78751   0.132   8.470  13.969
58973SOL    HW178752   0.193   8.400  13.994
58973SOL    HW278753   0.158   8.493  13.879
58974SOL     OW78754  14.044   2.039  10.553
58974SOL    HW178755  14.060   2.124  10.595
58974SOL    HW278756  14.035   1.978  10.626
58975SOL     OW78757  10.299   4.597   0.633
58975SOL    HW178758  10.372   4.538   0.649
58975SOL    HW278759  10.296   4.606   0.537
58976SOL     OW78760  11.453   0.116  12.623
58976SOL    HW178761  11.380   0.172  12.652
58976SOL    HW278762  11.414   0.030  12.610
58977SOL     OW78763   5.476   6.394   8.080
58977SOL    HW178764   5.570   6.375   8.078
58977SOL    HW278765   5.452   6.403   7.987
58978SOL     OW78766  12.264   9.765  12.225
58978SOL    HW178767  12.293   9.753  12.134
58978SOL    HW278768  12.307   9.845  12.254
58979SOL     OW78769  10.650   3.115  13.781
58979SOL    HW178770  10.568   3.111  13.731
58979SOL    HW278771  10.718   3.127  13.714
58980SOL     OW78772   1.446   1.392  12.167
58980SOL    HW178773   1.430   1.424  12.255
58980SOL    HW278774   1.472   1.470  12.117
58981SOL     OW78775   8.889  12.154   3.351
58981SOL    HW178776   8.934  12.076   3.319
58981SOL    HW278777   8.882  12.141   3.445
58982SOL     OW78778   2.345  14.580   5.664
58982SOL    HW178779   2.426  14.622   5.694
58982SOL    HW278780   2.371  14.491   5.640
58983SOL     OW78781   2.869   6.132   9.940
58983SOL    HW178782   2.919   6.196   9.890
58983SOL    HW278783   2.855   6.059   9.879
58984SOL     OW78784   2.671   1.742   1.582
58984SOL    HW178785   2.731   1.811   1.553
58984SOL    HW278786   2.639   1.702   1.501
58985SOL     OW78787   6.672   0.976  13.807
58985SOL    HW178788   6.613   1.047  13.779
58985SOL    HW278789   6.633   0.942  13.887
58986SOL     OW78790   3.916   4.383   3.276
58986SOL    HW178791   3.906   4.300   3.323
58986SOL    HW278792   4.006   4.382   3.244
58987SOL     OW78793   7.458   7.712   0.499
58987SOL    HW178794   7.414   7.776   0.443
58987SOL    HW278795   7.388   7.658   0.534
58988SOL     OW78796   7.333   2.855   9.312
58988SOL    HW178797   7.327   2.913   9.388
58988SOL    HW278798   7.427   2.850   9.294
58989SOL     OW78799  11.594   9.110   1.064
58989SOL    HW178800  11.669   9.129   1.007
58989SOL    HW278801  11.593   9.015   1.071
58990SOL     OW78802  10.007   6.042   4.764
58990SOL    HW178803  10.070   6.031   4.835
58990SOL    HW278804  10.004   6.137   4.749
58991SOL     OW78805   4.258   5.583  13.778
58991SOL    HW178806   4.176   5.632  13.773
58991SOL    HW278807   4.321   5.638  13.731
58992SOL     OW78808   5.093   7.146   9.155
58992SOL    HW178809   5.096   7.223   9.098
58992SOL    HW278810   5.180   7.143   9.196
58993SOL     OW78811   0.311   9.237   5.149
58993SOL    HW178812   0.322   9.142   5.151
58993SOL    HW278813   0.263   9.253   5.067
58994SOL     OW78814  14.063   1.673   2.997
58994SOL    HW178815  14.088   1.673   2.904
58994SOL    HW278816  13.969   1.690   2.995
58995SOL     OW78817   4.991   7.197   1.489
58995SOL    HW178818   4.898   7.198   1.464
58995SOL    HW278819   5.018   7.289   1.486
58996SOL     OW78820   3.457   6.105  12.100
58996SOL    HW178821   3.417   6.020  12.117
58996SOL    HW278822   3.480   6.102  12.007
58997SOL     OW78823  10.815  10.131  12.888
58997SOL    HW178824  10.892  10.074  12.879
58997SOL    HW278825  10.799  10.136  12.982
58998SOL     OW78826   7.909   3.795  14.590
58998SOL    HW178827   7.954   3.756  14.665
58998SOL    HW278828   7.840   3.732  14.568
58999SOL     OW78829  12.140   4.862   7.894
58999SOL    HW178830  12.115   4.775   7.863
58999SOL    HW278831  12.199   4.896   7.827
59000SOL     OW78832   1.347  11.097   0.484
59000SOL    HW178833   1.372  11.005   0.478
59000SOL    HW278834   1.429  11.143   0.500
59001SOL     OW78835  11.260   5.870  11.601
59001SOL    HW178836  11.255   5.896  11.509
59001SOL    HW278837  11.336   5.813  11.605
59002SOL     OW78838   0.534   1.574   4.256
59002SOL    HW178839   0.596   1.618   4.198
59002SOL    HW278840   0.555   1.606   4.343
59003SOL     OW78841  10.398   1.427  12.103
59003SOL    HW178842  10.402   1.493  12.172
59003SOL    HW278843  10.343   1.467  12.035
59004SOL     OW78844  13.227   9.828  14.822
59004SOL    HW178845  13.162   9.759  14.808
59004SOL    HW278846  13.258   9.850  14.735
59005SOL     OW78847   3.847   8.495   8.658
59005SOL    HW178848   3.850   8.403   8.682
59005SOL    HW278849   3.796   8.537   8.727
59006SOL     OW78850   7.426   9.053   0.932
59006SOL    HW178851   7.417   8.965   0.969
59006SOL    HW278852   7.371   9.051   0.853
59007SOL     OW78853  11.677   1.688  11.687
59007SOL    HW178854  11.651   1.644  11.768
59007SOL    HW278855  11.765   1.656  11.669
59008SOL     OW78856   8.959   2.585  12.376
59008SOL    HW178857   8.900   2.561  12.304
59008SOL    HW278858   8.967   2.505  12.428
59009SOL     OW78859   9.770   0.994   8.780
59009SOL    HW178860   9.806   1.055   8.844
59009SOL    HW278861   9.829   0.999   8.705
59010SOL     OW78862   9.969   7.063   1.755
59010SOL    HW178863   9.994   7.138   1.701
59010SOL    HW278864   9.953   6.992   1.693
59011SOL     OW78865  11.436  10.421   2.784
59011SOL    HW178866  11.450  10.470   2.703
59011SOL    HW278867  11.495  10.345   2.777
59012SOL     OW78868   5.570  12.801   9.489
59012SOL    HW178869   5.512  12.859   9.540
59012SOL    HW278870   5.556  12.827   9.398
59013SOL     OW78871   3.370   4.742   2.576
59013SOL    HW178872   3.394   4.723   2.486
59013SOL    HW278873   3.393   4.663   2.625
59014SOL     OW78874  11.739   8.272   5.573
59014SOL    HW178875  11.773   8.358   5.548
59014SOL    HW278876  11.813   8.228   5.615
59015SOL     OW78877   1.654   3.296   2.268
59015SOL    HW178878   1.587   3.364   2.259
59015SOL    HW278879   1.724   3.324   2.210
59016SOL     OW78880   1.875   9.332   0.245
59016SOL    HW178881   1.947   9.355   0.304
59016SOL    HW278882   1.821   9.411   0.243
59017SOL     OW78883  13.320   9.560   1.612
59017SOL    HW178884  13.400   9.580   1.661
59017SOL    HW278885  13.260   9.527   1.678
59018SOL     OW78886   3.909   1.731   1.161
59018SOL    HW178887   3.831   1.675   1.160
59018SOL    HW278888   3.875   1.820   1.157
59019SOL     OW78889   3.479   2.968   9.543
59019SOL    HW178890   3.432   2.945   9.463
59019SOL    HW278891   3.482   2.887   9.594
59020SOL     OW78892  10.778   2.890  13.885
59020SOL    HW178893  10.759   2.982  13.868
59020SOL    HW278894  10.732   2.842  13.816
59021SOL     OW78895   1.847   5.199   6.102
59021SOL    HW178896   1.890   5.127   6.057
59021SOL    HW278897   1.769   5.217   6.049
59022SOL     OW78898   5.878   6.346  12.748
59022SOL    HW178899   5.899   6.272  12.805
59022SOL    HW278900   5.873   6.421  12.808
59023SOL     OW78901   7.593   6.069   9.204
59023SOL    HW178902   7.594   5.976   9.227
59023SOL    HW278903   7.501   6.086   9.182
59024SOL     OW78904  11.878  12.432  12.074
59024SOL    HW178905  11.782  12.427  12.069
59024SOL    HW278906  11.897  12.432  12.168
59025SOL     OW78907   8.247   3.202   1.234
59025SOL    HW178908   8.187   3.210   1.160
59025SOL    HW278909   8.226   3.276   1.291
59026SOL     OW78910   6.163   9.213   1.137
59026SOL    HW178911   6.247   9.198   1.095
59026SOL    HW278912   6.150   9.135   1.192
59027SOL     OW78913  10.522   3.480   1.602
59027SOL    HW178914  10.615   3.456   1.595
59027SOL    HW278915  10.519   3.570   1.568
59028SOL     OW78916   1.786   2.614   2.756
59028SOL    HW178917   1.692   2.618   2.738
59028SOL    HW278918   1.814   2.530   2.720
59029SOL     OW78919  14.393  14.392   5.280
59029SOL    HW178920  14.407  14.306   5.321
59029SOL    HW278921  14.316  14.381   5.224
59030SOL     OW78922   2.123  11.305   5.768
59030SOL    HW178923   2.048  11.261   5.729
59030SOL    HW278924   2.135  11.384   5.715
59031SOL     OW78925  12.839   2.441   9.399
59031SOL    HW178926  12.832   2.455   9.494
59031SOL    HW278927  12.756   2.472   9.364
59032SOL     OW78928   9.552  10.130  13.322
59032SOL    HW178929   9.645  10.110  13.332
59032SOL    HW278930   9.521  10.146  13.411
59033SOL     OW78931   9.620   8.245   8.013
59033SOL    HW178932   9.541   8.245   8.068
59033SOL    HW278933   9.643   8.337   8.004
59034SOL     OW78934  11.531   1.836  11.407
59034SOL    HW178935  11.480   1.769  11.453
59034SOL    HW278936  11.606   1.789  11.372
59035SOL     OW78937   1.361  13.379  14.616
59035SOL    HW178938   1.299  13.307  14.610
59035SOL    HW278939   1.430  13.346  14.674
59036SOL     OW78940   7.424  11.175   4.388
59036SOL    HW178941   7.481  11.098   4.397
59036SOL    HW278942   7.408  11.204   4.477
59037SOL     OW78943   3.128   8.622  13.408
59037SOL    HW178944   3.140   8.716  13.390
59037SOL    HW278945   3.133   8.616  13.503
59038SOL     OW78946   7.301   1.592   8.397
59038SOL    HW178947   7.265   1.579   8.310
59038SOL    HW278948   7.280   1.511   8.444
59039SOL     OW78949   7.502   2.341   3.200
59039SOL    HW178950   7.433   2.300   3.253
59039SOL    HW278951   7.529   2.417   3.252
59040SOL     OW78952   8.249  13.096  12.910
59040SOL    HW178953   8.195  13.022  12.881
59040SOL    HW278954   8.310  13.058  12.973
59041SOL     OW78955   4.829   9.726  12.501
59041SOL    HW178956   4.772   9.791  12.459
59041SOL    HW278957   4.777   9.693  12.574
59042SOL     OW78958   4.541  12.106  11.592
59042SOL    HW178959   4.597  12.087  11.668
59042SOL    HW278960   4.555  12.032  11.533
59043SOL     OW78961   8.538   9.185   7.105
59043SOL    HW178962   8.627   9.214   7.084
59043SOL    HW278963   8.504   9.253   7.163
59044SOL     OW78964   4.998   6.680   9.608
59044SOL    HW178965   5.024   6.587   9.608
59044SOL    HW278966   4.905   6.679   9.628
59045SOL     OW78967   7.179   1.350   4.853
59045SOL    HW178968   7.120   1.325   4.782
59045SOL    HW278969   7.235   1.273   4.866
59046SOL     OW78970   5.270   8.378  12.892
59046SOL    HW178971   5.206   8.444  12.866
59046SOL    HW278972   5.295   8.403  12.981
59047SOL     OW78973  11.591   1.565   0.197
59047SOL    HW178974  11.681   1.539   0.179
59047SOL    HW278975  11.562   1.508   0.267
59048SOL     OW78976  13.425   1.966  13.944
59048SOL    HW178977  13.338   1.943  13.913
59048SOL    HW278978  13.409   2.012  14.027
59049SOL     OW78979   8.591   0.172   2.273
59049SOL    HW178980   8.686   0.178   2.280
59049SOL    HW278981   8.563   0.260   2.247
59050SOL     OW78982   7.386   4.495   5.855
59050SOL    HW178983   7.432   4.548   5.919
59050SOL    HW278984   7.294   4.523   5.862
59051SOL     OW78985   0.270   6.963  10.408
59051SOL    HW178986   0.342   6.920  10.454
59051SOL    HW278987   0.273   7.054  10.437
59052SOL     OW78988   6.719   8.961   2.553
59052SOL    HW178989   6.692   9.043   2.513
59052SOL    HW278990   6.643   8.932   2.603
59053SOL     OW78991  13.425   3.687   6.054
59053SOL    HW178992  13.404   3.685   5.961
59053SOL    HW278993  13.488   3.616   6.066
59054SOL     OW78994   2.059  13.714   1.411
59054SOL    HW178995   1.976  13.759   1.428
59054SOL    HW278996   2.116  13.781   1.373
59055SOL     OW78997   6.485  13.071  10.124
59055SOL    HW178998   6.572  13.109  10.116
59055SOL    HW278999   6.428  13.130  10.074
59056SOL     OW79000   7.303   2.332   1.542
59056SOL    HW179001   7.270   2.264   1.483
59056SOL    HW279002   7.238   2.337   1.612
59057SOL     OW79003   4.165   1.804   4.761
59057SOL    HW179004   4.184   1.816   4.668
59057SOL    HW279005   4.249   1.817   4.804
59058SOL     OW79006   9.256  10.174   0.719
59058SOL    HW179007   9.231  10.113   0.649
59058SOL    HW279008   9.260  10.120   0.798
59059SOL     OW79009  13.161  12.789   5.300
59059SOL    HW179010  13.078  12.744   5.314
59059SOL    HW279011  13.214  12.767   5.377
59060SOL     OW79012   4.699  12.451  13.346
59060SOL    HW179013   4.734  12.427  13.432
59060SOL    HW279014   4.734  12.386  13.286
59061SOL     OW79015   2.965   9.166  14.105
59061SOL    HW179016   2.955   9.201  14.193
59061SOL    HW279017   2.881   9.125  14.085
59062SOL     OW79018   4.889   5.810  12.639
59062SOL    HW179019   4.936   5.868  12.698
59062SOL    HW279020   4.932   5.821  12.554
59063SOL     OW79021   6.116   3.077   2.419
59063SOL    HW179022   6.160   3.072   2.334
59063SOL    HW279023   6.044   3.137   2.405
59064SOL     OW79024  12.967   6.608  13.627
59064SOL    HW179025  12.913   6.544  13.579
59064SOL    HW279026  12.906   6.649  13.688
59065SOL     OW79027  14.807  12.251   6.262
59065SOL    HW179028  14.834  12.168   6.300
59065SOL    HW279029  14.731  12.277   6.313
59066SOL     OW79030   1.852   5.649   4.799
59066SOL    HW179031   1.807   5.733   4.795
59066SOL    HW279032   1.808   5.595   4.734
59067SOL     OW79033   7.369   5.463   9.375
59067SOL    HW179034   7.287   5.508   9.356
59067SOL    HW279035   7.412   5.519   9.440
59068SOL     OW79036   0.953   6.895   6.684
59068SOL    HW179037   0.976   6.815   6.638
59068SOL    HW279038   1.029   6.915   6.739
59069SOL     OW79039  12.117   5.354   4.099
59069SOL    HW179040  12.201   5.318   4.129
59069SOL    HW279041  12.102   5.311   4.015
59070SOL     OW79042   8.415   6.916   7.603
59070SOL    HW179043   8.412   6.906   7.508
59070SOL    HW279044   8.492   6.864   7.630
59071SOL     OW79045  14.602   9.470   3.038
59071SOL    HW179046  14.671   9.407   3.020
59071SOL    HW279047  14.539   9.423   3.092
59072SOL     OW79048  14.071   6.201   4.091
59072SOL    HW179049  14.130   6.236   4.024
59072SOL    HW279050  13.999   6.263   4.095
59073SOL     OW79051   8.498  13.599   4.300
59073SOL    HW179052   8.585  13.606   4.340
59073SOL    HW279053   8.453  13.678   4.329
59074SOL     OW79054   8.365   2.180   5.391
59074SOL    HW179055   8.360   2.256   5.333
59074SOL    HW279056   8.351   2.105   5.333
59075SOL     OW79057   9.978  14.240   5.053
59075SOL    HW179058   9.976  14.148   5.027
59075SOL    HW279059  10.064  14.271   5.025
59076SOL     OW79060   7.135  10.257   0.500
59076SOL    HW179061   7.142  10.168   0.466
59076SOL    HW279062   7.058  10.294   0.454
59077SOL     OW79063  13.798   8.796  13.509
59077SOL    HW179064  13.857   8.802  13.585
59077SOL    HW279065  13.845   8.839  13.438
59078SOL     OW79066  12.401  12.268   8.153
59078SOL    HW179067  12.384  12.175   8.143
59078SOL    HW279068  12.334  12.311   8.101
59079SOL     OW79069   1.431  11.304   6.639
59079SOL    HW179070   1.443  11.356   6.718
59079SOL    HW279071   1.473  11.220   6.659
59080SOL     OW79072   0.995   1.788  13.996
59080SOL    HW179073   1.018   1.723  14.063
59080SOL    HW279074   0.904   1.768  13.973
59081SOL     OW79075  10.841  10.784   3.677
59081SOL    HW179076  10.764  10.727   3.684
59081SOL    HW279077  10.912  10.734   3.717
59082SOL     OW79078   3.213   3.954   8.140
59082SOL    HW179079   3.269   3.957   8.218
59082SOL    HW279080   3.149   3.885   8.158
59083SOL     OW79081  10.991  14.835   4.105
59083SOL    HW179082  10.951  14.828   4.192
59083SOL    HW279083  10.921  14.812   4.045
59084SOL     OW79084   6.403  10.988   6.359
59084SOL    HW179085   6.447  10.946   6.285
59084SOL    HW279086   6.359  11.064   6.321
59085SOL     OW79087   3.299   3.926   1.747
59085SOL    HW179088   3.321   3.885   1.664
59085SOL    HW279089   3.369   3.991   1.760
59086SOL     OW79090  13.949   4.120   4.026
59086SOL    HW179091  13.919   4.101   3.937
59086SOL    HW279092  14.044   4.110   4.022
59087SOL     OW79093   3.225  10.918   9.838
59087SOL    HW179094   3.234  11.013   9.849
59087SOL    HW279095   3.315  10.885   9.836
59088SOL     OW79096   8.464  11.977  14.441
59088SOL    HW179097   8.413  12.050  14.477
59088SOL    HW279098   8.443  11.903  14.496
59089SOL     OW79099   9.127  12.936  10.094
59089SOL    HW179100   9.068  12.926  10.018
59089SOL    HW279101   9.197  12.874  10.077
59090SOL     OW79102  10.103  14.322   3.509
59090SOL    HW179103  10.149  14.307   3.592
59090SOL    HW279104  10.161  14.287   3.442
59091SOL     OW79105   0.675   7.956   1.622
59091SOL    HW179106   0.700   8.024   1.685
59091SOL    HW279107   0.753   7.945   1.567
59092SOL     OW79108  14.556   3.023   9.360
59092SOL    HW179109  14.604   3.085   9.414
59092SOL    HW279110  14.598   2.939   9.376
59093SOL     OW79111  14.500  11.562   5.736
59093SOL    HW179112  14.583  11.526   5.766
59093SOL    HW279113  14.447  11.486   5.713
59094SOL     OW79114   4.263  13.175   0.466
59094SOL    HW179115   4.210  13.162   0.544
59094SOL    HW279116   4.282  13.087   0.435
59095SOL     OW79117  11.197  12.881  12.156
59095SOL    HW179118  11.250  12.871  12.076
59095SOL    HW279119  11.261  12.894  12.226
59096SOL     OW79120   9.670   5.633  13.152
59096SOL    HW179121   9.755   5.592  13.166
59096SOL    HW279122   9.637   5.592  13.071
59097SOL     OW79123   4.785  11.104  11.853
59097SOL    HW179124   4.703  11.127  11.897
59097SOL    HW279125   4.764  11.108  11.760
59098SOL     OW79126   9.727   7.182  14.599
59098SOL    HW179127   9.712   7.133  14.518
59098SOL    HW279128   9.746   7.272  14.570
59099SOL     OW79129   1.402  10.974   0.152
59099SOL    HW179130   1.382  10.941   0.064
59099SOL    HW279131   1.366  11.063   0.152
59100SOL     OW79132   8.856   3.124   3.563
59100SOL    HW179133   8.944   3.137   3.527
59100SOL    HW279134   8.808   3.079   3.493
59101SOL     OW79135   6.548   7.661   4.595
59101SOL    HW179136   6.496   7.723   4.544
59101SOL    HW279137   6.629   7.651   4.546
59102SOL     OW79138   3.885   2.727   3.755
59102SOL    HW179139   3.924   2.743   3.841
59102SOL    HW279140   3.819   2.796   3.746
59103SOL     OW79141   8.747   6.830   4.110
59103SOL    HW179142   8.824   6.776   4.090
59103SOL    HW279143   8.697   6.778   4.173
59104SOL     OW79144   0.239   7.625   9.191
59104SOL    HW179145   0.192   7.697   9.232
59104SOL    HW279146   0.308   7.667   9.140
59105SOL     OW79147  10.405   8.459   4.286
59105SOL    HW179148  10.494   8.441   4.316
59105SOL    HW279149  10.413   8.540   4.236
59106SOL     OW79150   5.229   1.007  14.646
59106SOL    HW179151   5.295   1.022  14.579
59106SOL    HW279152   5.265   0.934  14.698
59107SOL     OW79153   7.208   9.928   7.101
59107SOL    HW179154   7.132   9.870   7.095
59107SOL    HW279155   7.267   9.897   7.033
59108SOL     OW79156   4.172   3.085   4.735
59108SOL    HW179157   4.146   2.994   4.750
59108SOL    HW279158   4.090   3.133   4.730
59109SOL     OW79159   2.204  13.056  10.996
59109SOL    HW179160   2.196  13.121  10.927
59109SOL    HW279161   2.291  13.016  10.982
59110SOL     OW79162   0.280  13.556  10.947
59110SOL    HW179163   0.295  13.495  11.019
59110SOL    HW279164   0.244  13.634  10.989
59111SOL     OW79165   9.229  10.835  14.178
59111SOL    HW179166   9.172  10.877  14.243
59111SOL    HW279167   9.300  10.898  14.165
59112SOL     OW79168   4.561  13.848   4.032
59112SOL    HW179169   4.481  13.810   3.998
59112SOL    HW279170   4.562  13.937   3.997
59113SOL     OW79171   9.137  11.248  13.652
59113SOL    HW179172   9.058  11.215  13.609
59113SOL    HW279173   9.105  11.316  13.712
59114SOL     OW79174   0.751   1.564   0.607
59114SOL    HW179175   0.671   1.580   0.557
59114SOL    HW279176   0.722   1.513   0.683
59115SOL     OW79177   5.772  10.937  13.110
59115SOL    HW179178   5.762  10.857  13.162
59115SOL    HW279179   5.692  10.942  13.057
59116SOL     OW79180  10.726  13.112   2.194
59116SOL    HW179181  10.778  13.091   2.116
59116SOL    HW279182  10.683  13.195   2.172
59117SOL     OW79183   3.491   2.530   6.321
59117SOL    HW179184   3.505   2.463   6.254
59117SOL    HW279185   3.523   2.490   6.402
59118SOL     OW79186   7.806   2.171   9.913
59118SOL    HW179187   7.754   2.219   9.977
59118SOL    HW279188   7.786   2.213   9.829
59119SOL     OW79189  12.328   5.170  13.102
59119SOL    HW179190  12.238   5.141  13.085
59119SOL    HW279191  12.322   5.264  13.114
59120SOL     OW79192   2.667   7.233  11.137
59120SOL    HW179193   2.717   7.289  11.078
59120SOL    HW279194   2.638   7.291  11.208
59121SOL     OW79195   0.692   1.966   5.930
59121SOL    HW179196   0.694   1.950   6.025
59121SOL    HW279197   0.771   2.018   5.914
59122SOL     OW79198  14.455  11.330   6.779
59122SOL    HW179199  14.386  11.263   6.774
59122SOL    HW279200  14.533  11.285   6.747
59123SOL     OW79201   3.317   2.772  11.470
59123SOL    HW179202   3.398   2.728  11.445
59123SOL    HW279203   3.316   2.770  11.566
59124SOL     OW79204   5.703   2.182   4.844
59124SOL    HW179205   5.619   2.191   4.799
59124SOL    HW279206   5.704   2.091   4.874
59125SOL     OW79207   2.129   1.970   0.215
59125SOL    HW179208   2.100   1.906   0.280
59125SOL    HW279209   2.104   2.055   0.252
59126SOL     OW79210   4.469   6.714   7.714
59126SOL    HW179211   4.474   6.681   7.803
59126SOL    HW279212   4.443   6.806   7.724
59127SOL     OW79213   9.657   4.955   4.579
59127SOL    HW179214   9.674   5.047   4.595
59127SOL    HW279215   9.610   4.925   4.657
59128SOL     OW79216   6.796   5.475  13.948
59128SOL    HW179217   6.836   5.506  14.029
59128SOL    HW279218   6.729   5.413  13.977
59129SOL     OW79219  14.619   7.995   2.734
59129SOL    HW179220  14.659   8.073   2.772
59129SOL    HW279221  14.528   7.997   2.762
59130SOL     OW79222   6.352   3.125   8.612
59130SOL    HW179223   6.262   3.119   8.645
59130SOL    HW279224   6.371   3.219   8.610
59131SOL     OW79225  14.786   6.969   3.627
59131SOL    HW179226  14.861   7.006   3.674
59131SOL    HW279227  14.803   6.875   3.625
59132SOL     OW79228   0.417   7.883   0.264
59132SOL    HW179229   0.456   7.796   0.275
59132SOL    HW279230   0.384   7.906   0.350
59133SOL     OW79231   8.834   7.299   4.991
59133SOL    HW179232   8.810   7.361   5.060
59133SOL    HW279233   8.764   7.307   4.926
59134SOL     OW79234  10.120  12.447   3.306
59134SOL    HW179235  10.049  12.447   3.371
59134SOL    HW279236  10.164  12.363   3.318
59135SOL     OW79237  12.453   2.455   2.846
59135SOL    HW179238  12.546   2.438   2.831
59135SOL    HW279239  12.446   2.551   2.848
59136SOL     OW79240  10.858   1.533   1.687
59136SOL    HW179241  10.793   1.464   1.703
59136SOL    HW279242  10.842   1.597   1.756
59137SOL     OW79243   7.874   4.361  12.919
59137SOL    HW179244   7.837   4.406  12.995
59137SOL    HW279245   7.887   4.271  12.949
59138SOL     OW79246  14.081   3.030   3.791
59138SOL    HW179247  13.991   3.005   3.771
59138SOL    HW279248  14.076   3.069   3.878
59139SOL     OW79249  13.310  12.218   2.426
59139SOL    HW179250  13.236  12.173   2.385
59139SOL    HW279251  13.289  12.311   2.417
59140SOL     OW79252   0.882   5.522   1.025
59140SOL    HW179253   0.813   5.508   1.089
59140SOL    HW279254   0.950   5.459   1.048
59141SOL     OW79255   2.561  14.288   8.396
59141SOL    HW179256   2.647  14.293   8.354
59141SOL    HW279257   2.574  14.228   8.469
59142SOL     OW79258   9.083   2.301   2.811
59142SOL    HW179259   9.063   2.294   2.718
59142SOL    HW279260   9.065   2.393   2.833
59143SOL     OW79261  12.417   0.092   6.392
59143SOL    HW179262  12.493   0.059   6.440
59143SOL    HW279263  12.356   0.018   6.392
59144SOL     OW79264  10.039   8.720   5.245
59144SOL    HW179265  10.053   8.735   5.338
59144SOL    HW279266  10.126   8.726   5.206
59145SOL     OW79267   8.527  13.192  11.853
59145SOL    HW179268   8.495  13.156  11.936
59145SOL    HW279269   8.616  13.221  11.872
59146SOL     OW79270   0.252   1.109   2.444
59146SOL    HW179271   0.270   1.179   2.506
59146SOL    HW279272   0.227   1.034   2.499
59147SOL     OW79273   4.669   9.954  14.760
59147SOL    HW179274   4.643   9.926  14.673
59147SOL    HW279275   4.630  10.041  14.770
59148SOL     OW79276   1.083   2.387  10.002
59148SOL    HW179277   1.088   2.423   9.914
59148SOL    HW279278   1.024   2.446  10.049
59149SOL     OW79279  11.351   5.249   0.015
59149SOL    HW179280  11.270   5.300   0.016
59149SOL    HW279281  11.386   5.262  14.806
59150SOL     OW79282   4.046   2.261   0.973
59150SOL    HW179283   4.102   2.235   0.900
59150SOL    HW279284   3.960   2.224   0.952
59151SOL     OW79285   1.601   5.028   5.436
59151SOL    HW179286   1.556   4.953   5.476
59151SOL    HW279287   1.531   5.079   5.395
59152SOL     OW79288   9.112  13.158   8.299
59152SOL    HW179289   9.021  13.151   8.328
59152SOL    HW279290   9.107  13.156   8.203
59153SOL     OW79291  11.602   6.445   2.370
59153SOL    HW179292  11.530   6.461   2.430
59153SOL    HW279293  11.562   6.394   2.299
59154SOL     OW79294   4.965  13.884   2.382
59154SOL    HW179295   4.961  13.871   2.477
59154SOL    HW279296   4.954  13.796   2.346
59155SOL     OW79297   3.959   9.850   5.871
59155SOL    HW179298   3.907   9.828   5.794
59155SOL    HW279299   4.035   9.793   5.866
59156SOL     OW79300  12.133   2.797   3.946
59156SOL    HW179301  12.059   2.840   3.989
59156SOL    HW279302  12.133   2.831   3.857
59157SOL     OW79303  11.108  10.929   7.437
59157SOL    HW179304  11.072  10.888   7.358
59157SOL    HW279305  11.049  10.903   7.507
59158SOL     OW79306  13.976   8.496  14.006
59158SOL    HW179307  14.058   8.518  14.052
59158SOL    HW279308  13.988   8.406  13.977
59159SOL     OW79309   3.342  14.803   6.198
59159SOL    HW179310   3.407  14.791   6.129
59159SOL    HW279311   3.265  14.755   6.167
59160SOL     OW79312   6.319   8.403   5.762
59160SOL    HW179313   6.231   8.402   5.724
59160SOL    HW279314   6.307   8.371   5.852
59161SOL     OW79315   1.646  14.487   5.901
59161SOL    HW179316   1.620  14.561   5.846
59161SOL    HW279317   1.583  14.487   5.972
59162SOL     OW79318   2.463   9.516   0.895
59162SOL    HW179319   2.425   9.471   0.820
59162SOL    HW279320   2.538   9.463   0.920
59163SOL     OW79321  13.826   6.596   5.370
59163SOL    HW179322  13.800   6.508   5.346
59163SOL    HW279323  13.916   6.587   5.403
59164SOL     OW79324   3.437   6.123   3.689
59164SOL    HW179325   3.419   6.210   3.653
59164SOL    HW279326   3.533   6.119   3.696
59165SOL     OW79327  13.423   2.686  11.179
59165SOL    HW179328  13.376   2.683  11.096
59165SOL    HW279329  13.406   2.774  11.214
59166SOL     OW79330  10.153   8.875   0.071
59166SOL    HW179331  10.156   8.970   0.083
59166SOL    HW279332  10.241   8.851   0.044
59167SOL     OW79333   0.211  13.404  14.619
59167SOL    HW179334   0.192  13.321  14.575
59167SOL    HW279335   0.160  13.468  14.570
59168SOL     OW79336   7.563  13.104  14.347
59168SOL    HW179337   7.484  13.071  14.391
59168SOL    HW279338   7.632  13.096  14.412
59169SOL     OW79339   0.667   0.396  12.410
59169SOL    HW179340   0.641   0.327  12.470
59169SOL    HW279341   0.762   0.387  12.401
59170SOL     OW79342   1.820   1.974   6.490
59170SOL    HW179343   1.728   1.954   6.510
59170SOL    HW279344   1.816   2.042   6.422
59171SOL     OW79345  11.567  11.012   9.744
59171SOL    HW179346  11.653  11.050   9.762
59171SOL    HW279347  11.587  10.927   9.703
59172SOL     OW79348  13.511   4.658  13.345
59172SOL    HW179349  13.473   4.659  13.432
59172SOL    HW279350  13.441   4.628  13.288
59173SOL     OW79351   4.513   1.621  11.483
59173SOL    HW179352   4.579   1.685  11.512
59173SOL    HW279353   4.535   1.541  11.531
59174SOL     OW79354   3.220   9.999   4.736
59174SOL    HW179355   3.166   9.953   4.672
59174SOL    HW279356   3.276   9.931   4.773
59175SOL     OW79357   9.042  13.282   7.313
59175SOL    HW179358   9.104  13.352   7.333
59175SOL    HW279359   8.977  13.286   7.382
59176SOL     OW79360   4.339   5.944   6.484
59176SOL    HW179361   4.413   5.895   6.519
59176SOL    HW279362   4.267   5.924   6.544
59177SOL     OW79363   1.236  14.423   8.613
59177SOL    HW179364   1.185  14.355   8.569
59177SOL    HW279365   1.271  14.477   8.542
59178SOL     OW79366  10.654   3.578   6.192
59178SOL    HW179367  10.639   3.616   6.279
59178SOL    HW279368  10.656   3.484   6.207
59179SOL     OW79369   8.405   8.391   7.263
59179SOL    HW179370   8.391   8.392   7.357
59179SOL    HW279371   8.368   8.474   7.232
59180SOL     OW79372   2.250   2.365  14.405
59180SOL    HW179373   2.296   2.370  14.488
59180SOL    HW279374   2.294   2.294  14.358
59181SOL     OW79375   5.020  14.324   6.528
59181SOL    HW179376   5.038  14.409   6.567
59181SOL    HW279377   4.928  14.329   6.501
59182SOL     OW79378   6.856   8.647  11.325
59182SOL    HW179379   6.924   8.636  11.258
59182SOL    HW279380   6.774   8.637  11.277
59183SOL     OW79381   3.899   1.725  12.676
59183SOL    HW179382   3.931   1.699  12.762
59183SOL    HW279383   3.973   1.709  12.617
59184SOL     OW79384   5.254  11.721   3.789
59184SOL    HW179385   5.188  11.770   3.738
59184SOL    HW279386   5.323  11.701   3.725
59185SOL     OW79387   1.433  14.193  10.374
59185SOL    HW179388   1.413  14.282  10.403
59185SOL    HW279389   1.349  14.158  10.345
59186SOL     OW79390   2.958   1.050   4.457
59186SOL    HW179391   2.940   1.054   4.551
59186SOL    HW279392   2.987   0.960   4.442
59187SOL     OW79393   1.540  11.149  11.793
59187SOL    HW179394   1.510  11.103  11.871
59187SOL    HW279395   1.547  11.081  11.726
59188SOL     OW79396   8.296   2.658   4.135
59188SOL    HW179397   8.305   2.725   4.068
59188SOL    HW279398   8.282   2.707   4.217
59189SOL     OW79399  12.116   2.353   3.972
59189SOL    HW179400  12.183   2.315   3.914
59189SOL    HW279401  12.067   2.278   4.004
59190SOL     OW79402   2.823   6.130   5.615
59190SOL    HW179403   2.786   6.179   5.542
59190SOL    HW279404   2.811   6.186   5.691
59191SOL     OW79405   9.393  10.837  10.715
59191SOL    HW179406   9.397  10.826  10.620
59191SOL    HW279407   9.361  10.926  10.727
59192SOL     OW79408   5.662   4.871   3.476
59192SOL    HW179409   5.632   4.921   3.401
59192SOL    HW279410   5.717   4.932   3.525
59193SOL     OW79411   1.236  14.480   5.950
59193SOL    HW179412   1.264  14.448   5.863
59193SOL    HW279413   1.142  14.496   5.940
59194SOL     OW79414  10.012  14.493   1.718
59194SOL    HW179415   9.970  14.493   1.632
59194SOL    HW279416  10.104  14.472   1.699
59195SOL     OW79417   4.901  14.325   5.400
59195SOL    HW179418   4.911  14.239   5.440
59195SOL    HW279419   4.990  14.361   5.397
59196SOL     OW79420  13.088  11.458   6.863
59196SOL    HW179421  13.126  11.542   6.888
59196SOL    HW279422  13.149  11.422   6.798
59197SOL     OW79423   7.366   3.629   0.310
59197SOL    HW179424   7.459   3.605   0.302
59197SOL    HW279425   7.360   3.712   0.263
59198SOL     OW79426   7.699  13.482   1.900
59198SOL    HW179427   7.722  13.543   1.830
59198SOL    HW279428   7.749  13.512   1.976
59199SOL     OW79429   4.436   0.262   1.659
59199SOL    HW179430   4.373   0.229   1.723
59199SOL    HW279431   4.504   0.304   1.713
59200SOL     OW79432   5.528   0.376   3.879
59200SOL    HW179433   5.448   0.379   3.932
59200SOL    HW279434   5.500   0.406   3.793
59201SOL     OW79435   7.513  11.886   5.931
59201SOL    HW179436   7.524  11.830   5.854
59201SOL    HW279437   7.598  11.882   5.975
59202SOL     OW79438   2.600   4.725  13.444
59202SOL    HW179439   2.659   4.685  13.508
59202SOL    HW279440   2.658   4.775  13.386
59203SOL     OW79441  14.004  12.602  12.818
59203SOL    HW179442  14.027  12.626  12.908
59203SOL    HW279443  13.971  12.683  12.779
59204SOL     OW79444  13.845  13.516   7.908
59204SOL    HW179445  13.803  13.532   7.993
59204SOL    HW279446  13.823  13.425   7.887
59205SOL     OW79447   7.400   1.369   2.733
59205SOL    HW179448   7.454   1.387   2.656
59205SOL    HW279449   7.463   1.347   2.801
59206SOL     OW79450   4.859   0.560  14.053
59206SOL    HW179451   4.820   0.615  14.120
59206SOL    HW279452   4.951   0.554  14.077
59207SOL     OW79453  14.299   4.355   3.933
59207SOL    HW179454  14.253   4.272   3.932
59207SOL    HW279455  14.264   4.401   4.010
59208SOL     OW79456   1.692   7.381  11.360
59208SOL    HW179457   1.783   7.378  11.329
59208SOL    HW279458   1.643   7.332  11.294
59209SOL     OW79459   1.295   8.308   6.250
59209SOL    HW179460   1.300   8.387   6.302
59209SOL    HW279461   1.219   8.261   6.284
59210SOL     OW79462  11.499   4.109  11.265
59210SOL    HW179463  11.461   4.138  11.348
59210SOL    HW279464  11.593   4.102  11.282
59211SOL     OW79465   5.634   0.021   9.498
59211SOL    HW179466   5.719   0.042   9.537
59211SOL    HW279467   5.625   0.082   9.425
59212SOL     OW79468   9.798   2.111  13.456
59212SOL    HW179469   9.872   2.052  13.471
59212SOL    HW279470   9.755   2.118  13.541
59213SOL     OW79471   2.244   5.225   6.039
59213SOL    HW179472   2.246   5.130   6.049
59213SOL    HW279473   2.313   5.256   6.098
59214SOL     OW79474   1.366  10.074   2.270
59214SOL    HW179475   1.453  10.054   2.236
59214SOL    HW279476   1.311  10.003   2.239
59215SOL     OW79477   2.855  13.207   6.866
59215SOL    HW179478   2.852  13.220   6.771
59215SOL    HW279479   2.763  13.208   6.893
59216SOL     OW79480   3.967   2.145   5.849
59216SOL    HW179481   3.998   2.135   5.939
59216SOL    HW279482   4.038   2.110   5.795
59217SOL     OW79483   8.300   7.544  11.080
59217SOL    HW179484   8.274   7.463  11.036
59217SOL    HW279485   8.218   7.590  11.097
59218SOL     OW79486  11.122  11.265   4.138
59218SOL    HW179487  11.070  11.345   4.131
59218SOL    HW279488  11.082  11.216   4.211
59219SOL     OW79489   6.670  11.396   5.844
59219SOL    HW179490   6.630  11.449   5.775
59219SOL    HW279491   6.660  11.448   5.923
59220SOL     OW79492   5.488  11.350  13.684
59220SOL    HW179493   5.516  11.421  13.626
59220SOL    HW279494   5.393  11.345  13.671
59221SOL     OW79495  14.377   7.667   0.676
59221SOL    HW179496  14.466   7.700   0.687
59221SOL    HW279497  14.371   7.645   0.583
59222SOL     OW79498   4.845  11.594   0.317
59222SOL    HW179499   4.881  11.608   0.230
59222SOL    HW279500   4.912  11.629   0.377
59223SOL     OW79501  12.504   2.494   4.191
59223SOL    HW179502  12.519   2.454   4.276
59223SOL    HW279503  12.410   2.511   4.187
59224SOL     OW79504  14.311   2.439   7.707
59224SOL    HW179505  14.343   2.422   7.796
59224SOL    HW279506  14.310   2.353   7.665
59225SOL     OW79507   0.829   6.692   0.467
59225SOL    HW179508   0.913   6.688   0.422
59225SOL    HW279509   0.769   6.644   0.410
59226SOL     OW79510   1.388  12.023  10.792
59226SOL    HW179511   1.317  12.065  10.841
59226SOL    HW279512   1.424  12.093  10.737
59227SOL     OW79513   5.276  14.500   1.800
59227SOL    HW179514   5.336  14.447   1.747
59227SOL    HW279515   5.253  14.443   1.874
59228SOL     OW79516   4.744   9.034  11.180
59228SOL    HW179517   4.700   8.980  11.115
59228SOL    HW279518   4.678   9.098  11.207
59229SOL     OW79519  13.274  11.711   5.345
59229SOL    HW179520  13.192  11.683   5.303
59229SOL    HW279521  13.250  11.787   5.397
59230SOL     OW79522   8.972   1.731   2.725
59230SOL    HW179523   8.879   1.735   2.745
59230SOL    HW279524   8.981   1.773   2.640
59231SOL     OW79525   6.572  10.272   2.554
59231SOL    HW179526   6.548  10.184   2.522
59231SOL    HW279527   6.541  10.331   2.485
59232SOL     OW79528   9.107  12.373  12.312
59232SOL    HW179529   9.115  12.469  12.310
59232SOL    HW279530   9.013  12.357  12.323
59233SOL     OW79531   7.256   3.962   4.668
59233SOL    HW179532   7.335   4.015   4.678
59233SOL    HW279533   7.185   4.022   4.690
59234SOL     OW79534   1.900   4.901   8.836
59234SOL    HW179535   1.841   4.932   8.767
59234SOL    HW279536   1.974   4.862   8.789
59235SOL     OW79537   4.244   9.734   2.399
59235SOL    HW179538   4.227   9.703   2.488
59235SOL    HW279539   4.332   9.772   2.403
59236SOL     OW79540   0.178   8.931   4.991
59236SOL    HW179541   0.196   8.865   4.924
59236SOL    HW279542   0.102   8.979   4.957
59237SOL     OW79543   5.793  14.371   1.953
59237SOL    HW179544   5.877  14.397   1.914
59237SOL    HW279545   5.816  14.302   2.015
59238SOL     OW79546  14.070   3.947   9.703
59238SOL    HW179547  14.124   4.019   9.670
59238SOL    HW279548  13.980   3.979   9.697
59239SOL     OW79549  14.246  13.688  10.202
59239SOL    HW179550  14.304  13.633  10.149
59239SOL    HW279551  14.168  13.699  10.147
59240SOL     OW79552   0.126   7.936   8.455
59240SOL    HW179553   0.082   7.890   8.526
59240SOL    HW279554   0.205   7.884   8.438
59241SOL     OW79555  12.522  11.357   8.297
59241SOL    HW179556  12.437  11.322   8.273
59241SOL    HW279557  12.503  11.428   8.358
59242SOL     OW79558   2.621  11.193   3.238
59242SOL    HW179559   2.682  11.155   3.301
59242SOL    HW279560   2.634  11.288   3.246
59243SOL     OW79561  10.694  12.181   0.149
59243SOL    HW179562  10.612  12.228   0.133
59243SOL    HW279563  10.718  12.204   0.239
59244SOL     OW79564   7.896  11.626   3.836
59244SOL    HW179565   7.843  11.699   3.803
59244SOL    HW279566   7.924  11.580   3.757
59245SOL     OW79567  11.290  14.375   8.040
59245SOL    HW179568  11.368  14.427   8.020
59245SOL    HW279569  11.289  14.371   8.136
59246SOL     OW79570  11.027  11.453   9.290
59246SOL    HW179571  11.021  11.476   9.197
59246SOL    HW279572  11.085  11.520   9.327
59247SOL     OW79573   0.011  12.349   4.382
59247SOL    HW179574   0.050  12.365   4.468
59247SOL    HW279575   0.051  12.268   4.352
59248SOL     OW79576   3.455   6.510  12.414
59248SOL    HW179577   3.437   6.507  12.320
59248SOL    HW279578   3.390   6.572  12.449
59249SOL     OW79579   8.099   8.473   5.728
59249SOL    HW179580   8.103   8.380   5.706
59249SOL    HW279581   8.014   8.502   5.694
59250SOL     OW79582  12.472  12.914  14.103
59250SOL    HW179583  12.493  12.915  14.009
59250SOL    HW279584  12.403  12.848  14.111
59251SOL     OW79585   7.844   2.085   3.592
59251SOL    HW179586   7.845   2.101   3.686
59251SOL    HW279587   7.755   2.056   3.573
59252SOL     OW79588   4.924   5.564   0.266
59252SOL    HW179589   4.850   5.540   0.322
59252SOL    HW279590   4.945   5.654   0.290
59253SOL     OW79591  11.796   9.895  14.308
59253SOL    HW179592  11.784   9.900  14.403
59253SOL    HW279593  11.782   9.803  14.287
59254SOL     OW79594  13.925   8.051   1.548
59254SOL    HW179595  13.934   7.983   1.615
59254SOL    HW279596  13.985   8.120   1.576
59255SOL     OW79597   8.751   4.953   4.424
59255SOL    HW179598   8.710   4.976   4.508
59255SOL    HW279599   8.842   4.980   4.433
59256SOL     OW79600  10.614   3.307   2.137
59256SOL    HW179601  10.569   3.232   2.098
59256SOL    HW279602  10.687   3.323   2.078
59257SOL     OW79603  10.626   6.485   1.616
59257SOL    HW179604  10.722   6.484   1.625
59257SOL    HW279605  10.611   6.463   1.524
59258SOL     OW79606   1.060  12.671  14.404
59258SOL    HW179607   0.974  12.628  14.409
59258SOL    HW279608   1.076  12.681  14.310
59259SOL     OW79609   2.137   2.393   7.044
59259SOL    HW179610   2.173   2.374   6.957
59259SOL    HW279611   2.160   2.317   7.097
59260SOL     OW79612   8.860  13.307  14.564
59260SOL    HW179613   8.832  13.388  14.521
59260SOL    HW279614   8.814  13.237  14.517
59261SOL     OW79615   9.867   0.876   8.269
59261SOL    HW179616   9.784   0.858   8.224
59261SOL    HW279617   9.889   0.966   8.244
59262SOL     OW79618   3.227   0.518  13.787
59262SOL    HW179619   3.153   0.578  13.792
59262SOL    HW279620   3.228   0.489  13.696
59263SOL     OW79621   2.010  14.406   4.338
59263SOL    HW179622   1.967  14.369   4.262
59263SOL    HW279623   2.012  14.334   4.402
59264SOL     OW79624  10.794   8.067  13.485
59264SOL    HW179625  10.755   8.072  13.572
59264SOL    HW279626  10.727   8.104  13.427
59265SOL     OW79627   9.844   9.756   2.456
59265SOL    HW179628   9.881   9.676   2.492
59265SOL    HW279629   9.782   9.726   2.389
59266SOL     OW79630  11.734  14.845  11.747
59266SOL    HW179631  11.768  14.879  11.664
59266SOL    HW279632  11.646  14.813  11.725
59267SOL     OW79633   8.203   2.569   5.866
59267SOL    HW179634   8.245   2.488   5.894
59267SOL    HW279635   8.160   2.602   5.945
59268SOL     OW79636   2.089  11.015   1.418
59268SOL    HW179637   2.159  11.041   1.478
59268SOL    HW279638   2.018  10.985   1.475
59269SOL     OW79639  12.451   2.650   6.320
59269SOL    HW179640  12.379   2.588   6.332
59269SOL    HW279641  12.442   2.680   6.230
59270SOL     OW79642  14.292   7.759  13.874
59270SOL    HW179643  14.330   7.678  13.907
59270SOL    HW279644  14.269   7.739  13.783
59271SOL     OW79645  13.918  13.393   5.024
59271SOL    HW179646  13.996  13.435   4.989
59271SOL    HW279647  13.906  13.315   4.969
59272SOL     OW79648  13.394   2.397   3.299
59272SOL    HW179649  13.365   2.370   3.212
59272SOL    HW279650  13.441   2.479   3.285
59273SOL     OW79651   7.545   3.930   9.277
59273SOL    HW179652   7.575   3.986   9.205
59273SOL    HW279653   7.495   3.861   9.234
59274SOL     OW79654   5.356  10.491  10.129
59274SOL    HW179655   5.422  10.513  10.063
59274SOL    HW279656   5.390  10.414  10.173
59275SOL     OW79657   4.223   1.341   6.864
59275SOL    HW179658   4.224   1.362   6.958
59275SOL    HW279659   4.133   1.360   6.837
59276SOL     OW79660  11.368   8.818   2.509
59276SOL    HW179661  11.346   8.726   2.494
59276SOL    HW279662  11.307   8.845   2.578
59277SOL     OW79663  10.873   6.921   8.765
59277SOL    HW179664  10.945   6.906   8.827
59277SOL    HW279665  10.794   6.912   8.817
59278SOL     OW79666   8.090   4.770   9.498
59278SOL    HW179667   8.059   4.857   9.525
59278SOL    HW279668   8.012   4.714   9.507
59279SOL     OW79669   7.798  14.610   3.260
59279SOL    HW179670   7.713  14.653   3.268
59279SOL    HW279671   7.838  14.650   3.183
59280SOL     OW79672  14.815   3.350   1.215
59280SOL    HW179673  14.786   3.262   1.193
59280SOL    HW279674  14.799   3.401   1.136
59281SOL     OW79675  13.877  14.304   9.297
59281SOL    HW179676  13.915  14.216   9.297
59281SOL    HW279677  13.940  14.358   9.345
59282SOL     OW79678  12.963   4.880   2.293
59282SOL    HW179679  12.878   4.899   2.252
59282SOL    HW279680  13.024   4.877   2.219
59283SOL     OW79681   3.465   7.488  14.363
59283SOL    HW179682   3.506   7.473  14.277
59283SOL    HW279683   3.539   7.501  14.423
59284SOL     OW79684   6.399  10.078  13.754
59284SOL    HW179685   6.372  10.159  13.710
59284SOL    HW279686   6.493  10.070  13.735
59285SOL     OW79687   3.170   0.135  11.028
59285SOL    HW179688   3.152   0.073  11.099
59285SOL    HW279689   3.249   0.100  10.985
59286SOL     OW79690   6.208   3.131   8.177
59286SOL    HW179691   6.157   3.067   8.226
59286SOL    HW279692   6.284   3.149   8.232
59287SOL     OW79693  12.091   6.865  14.407
59287SOL    HW179694  12.021   6.818  14.360
59287SOL    HW279695  12.144   6.796  14.446
59288SOL     OW79696  11.145   0.214   9.279
59288SOL    HW179697  11.083   0.267   9.229
59288SOL    HW279698  11.140   0.249   9.368
59289SOL     OW79699  12.834   5.064  11.005
59289SOL    HW179700  12.785   5.102  10.932
59289SOL    HW279701  12.782   5.085  11.082
59290SOL     OW79702   6.019   5.927   3.261
59290SOL    HW179703   6.013   5.835   3.234
59290SOL    HW279704   6.077   5.967   3.197
59291SOL     OW79705  13.596   7.193   0.472
59291SOL    HW179706  13.691   7.184   0.484
59291SOL    HW279707  13.575   7.133   0.400
59292SOL     OW79708   0.451  13.655  12.874
59292SOL    HW179709   0.465  13.595  12.801
59292SOL    HW279710   0.449  13.600  12.952
59293SOL     OW79711  14.608   5.596  14.838
59293SOL    HW179712  14.622   5.639  14.753
59293SOL    HW279713  14.676   5.632   0.015
59294SOL     OW79714   6.716   1.798   4.235
59294SOL    HW179715   6.799   1.785   4.189
59294SOL    HW279716   6.650   1.797   4.165
59295SOL     OW79717   1.711  12.641  11.640
59295SOL    HW179718   1.762  12.564  11.664
59295SOL    HW279719   1.621  12.609  11.632
59296SOL     OW79720   2.547   0.877  12.839
59296SOL    HW179721   2.515   0.790  12.862
59296SOL    HW279722   2.637   0.862  12.808
59297SOL     OW79723   8.224  10.819   4.352
59297SOL    HW179724   8.266  10.780   4.429
59297SOL    HW279725   8.214  10.745   4.291
59298SOL     OW79726  11.592   4.950   1.260
59298SOL    HW179727  11.545   4.904   1.190
59298SOL    HW279728  11.680   4.963   1.225
59299SOL     OW79729   2.979   9.392   5.384
59299SOL    HW179730   3.001   9.299   5.369
59299SOL    HW279731   3.021   9.437   5.311
59300SOL     OW79732   9.792  13.161   1.979
59300SOL    HW179733   9.826  13.138   1.892
59300SOL    HW279734   9.868  13.195   2.027
59301SOL     OW79735  12.012   0.308  11.830
59301SOL    HW179736  11.979   0.310  11.741
59301SOL    HW279737  12.047   0.220  11.841
59302SOL     OW79738  13.027   4.815  14.810
59302SOL    HW179739  13.038   4.905  14.779
59302SOL    HW279740  12.965   4.776  14.748
59303SOL     OW79741   3.001   9.128   5.343
59303SOL    HW179742   3.093   9.106   5.358
59303SOL    HW279743   2.953   9.053   5.377
59304SOL     OW79744  13.516   4.863  11.148
59304SOL    HW179745  13.466   4.818  11.215
59304SOL    HW279746  13.463   4.939  11.124
59305SOL     OW79747  13.548   4.884   0.698
59305SOL    HW179748  13.508   4.891   0.785
59305SOL    HW279749  13.541   4.791   0.677
59306SOL     OW79750   3.803  11.440   0.534
59306SOL    HW179751   3.824  11.406   0.621
59306SOL    HW279752   3.774  11.530   0.551
59307SOL     OW79753   5.137  14.231   3.014
59307SOL    HW179754   5.048  14.257   2.993
59307SOL    HW279755   5.190  14.309   2.995
59308SOL     OW79756   0.730  12.081  11.096
59308SOL    HW179757   0.726  12.026  11.174
59308SOL    HW279758   0.674  12.035  11.033
59309SOL     OW79759  12.576   6.271   7.606
59309SOL    HW179760  12.667   6.279   7.633
59309SOL    HW279761  12.570   6.185   7.565
59310SOL     OW79762   8.806   3.323  14.031
59310SOL    HW179763   8.808   3.348  13.939
59310SOL    HW279764   8.786   3.230  14.031
59311SOL     OW79765  13.320   3.062   8.792
59311SOL    HW179766  13.295   3.150   8.822
59311SOL    HW279767  13.243   3.008   8.809
59312SOL     OW79768  14.349  11.233   2.225
59312SOL    HW179769  14.291  11.308   2.236
59312SOL    HW279770  14.398  11.253   2.145
59313SOL     OW79771   9.586   5.796   6.772
59313SOL    HW179772   9.618   5.721   6.823
59313SOL    HW279773   9.646   5.802   6.698
59314SOL     OW79774   1.646  10.969  12.734
59314SOL    HW179775   1.610  10.968  12.822
59314SOL    HW279776   1.660  11.062  12.715
59315SOL     OW79777  14.365   3.837   1.186
59315SOL    HW179778  14.374   3.801   1.274
59315SOL    HW279779  14.453   3.866   1.163
59316SOL     OW79780   4.332   5.684   9.854
59316SOL    HW179781   4.257   5.625   9.845
59316SOL    HW279782   4.314   5.756   9.793
59317SOL     OW79783   0.022   9.415   0.975
59317SOL    HW179784  14.867   9.327   0.988
59317SOL    HW279785  14.840   9.455   0.912
59318SOL     OW79786   7.137   1.931  10.696
59318SOL    HW179787   7.204   1.882  10.648
59318SOL    HW279788   7.101   1.991  10.630
59319SOL     OW79789   9.662   8.615   3.957
59319SOL    HW179790   9.597   8.620   4.028
59319SOL    HW279791   9.622   8.662   3.884
59320SOL     OW79792   4.728   4.542   7.831
59320SOL    HW179793   4.770   4.495   7.760
59320SOL    HW279794   4.787   4.531   7.906
59321SOL     OW79795   1.112  11.641   5.229
59321SOL    HW179796   1.153  11.605   5.307
59321SOL    HW279797   1.030  11.681   5.260
59322SOL     OW79798   4.436   7.194  12.307
59322SOL    HW179799   4.470   7.126  12.250
59322SOL    HW279800   4.374   7.242  12.252
59323SOL     OW79801   4.205  12.223   4.774
59323SOL    HW179802   4.162  12.224   4.689
59323SOL    HW279803   4.294  12.193   4.757
59324SOL     OW79804   3.826   4.880   1.920
59324SOL    HW179805   3.744   4.926   1.897
59324SOL    HW279806   3.835   4.812   1.853
59325SOL     OW79807   6.226   5.855   4.503
59325SOL    HW179808   6.204   5.934   4.454
59325SOL    HW279809   6.321   5.852   4.501
59326SOL     OW79810   1.380   4.116  13.343
59326SOL    HW179811   1.402   4.206  13.368
59326SOL    HW279812   1.450   4.090  13.283
59327SOL     OW79813   6.682   8.324  11.524
59327SOL    HW179814   6.739   8.262  11.569
59327SOL    HW279815   6.703   8.313  11.431
59328SOL     OW79816   1.372   9.788  10.315
59328SOL    HW179817   1.389   9.779  10.221
59328SOL    HW279818   1.278   9.804  10.320
59329SOL     OW79819   3.223   3.995   9.250
59329SOL    HW179820   3.168   4.011   9.173
59329SOL    HW279821   3.222   3.900   9.262
59330SOL     OW79822   8.442   6.336   6.405
59330SOL    HW179823   8.472   6.245   6.417
59330SOL    HW279824   8.366   6.343   6.463
59331SOL     OW79825   1.035   2.539   8.866
59331SOL    HW179826   1.113   2.590   8.848
59331SOL    HW279827   1.007   2.507   8.780
59332SOL     OW79828   3.214  11.249   2.110
59332SOL    HW179829   3.156  11.305   2.162
59332SOL    HW279830   3.173  11.245   2.024
59333SOL     OW79831   4.530   0.071  14.321
59333SOL    HW179832   4.571  14.873  14.283
59333SOL    HW279833   4.436   0.057  14.310
59334SOL     OW79834   6.749  12.565   0.595
59334SOL    HW179835   6.679  12.540   0.655
59334SOL    HW279836   6.779  12.482   0.557
59335SOL     OW79837   0.857   0.915   0.354
59335SOL    HW179838   0.948   0.888   0.361
59335SOL    HW279839   0.830   0.889   0.267
59336SOL     OW79840  10.706   6.905  11.973
59336SOL    HW179841  10.796   6.937  11.982
59336SOL    HW279842  10.700   6.873  11.884
59337SOL     OW79843  13.887  13.018   1.213
59337SOL    HW179844  13.905  13.044   1.123
59337SOL    HW279845  13.890  13.100   1.262
59338SOL     OW79846  10.400   4.338   3.731
59338SOL    HW179847  10.400   4.432   3.712
59338SOL    HW279848  10.447   4.330   3.814
59339SOL     OW79849   5.527   4.493   0.075
59339SOL    HW179850   5.615   4.511   0.106
59339SOL    HW279851   5.477   4.572   0.095
59340SOL     OW79852   8.400   5.553  10.085
59340SOL    HW179853   8.444   5.557  10.170
59340SOL    HW279854   8.352   5.635  10.079
59341SOL     OW79855   5.468   0.224   0.604
59341SOL    HW179856   5.396   0.162   0.599
59341SOL    HW279857   5.534   0.180   0.658
59342SOL     OW79858  11.565   9.496   1.782
59342SOL    HW179859  11.579   9.565   1.847
59342SOL    HW279860  11.622   9.425   1.811
59343SOL     OW79861   9.989   4.523   5.980
59343SOL    HW179862  10.080   4.494   5.975
59343SOL    HW279863   9.992   4.616   5.961
59344SOL     OW79864   2.808   9.951   0.126
59344SOL    HW179865   2.823   9.939   0.032
59344SOL    HW279866   2.895   9.974   0.160
59345SOL     OW79867   0.145   2.836  13.503
59345SOL    HW179868   0.137   2.886  13.421
59345SOL    HW279869   0.192   2.757  13.478
59346SOL     OW79870   5.041   9.280   3.661
59346SOL    HW179871   5.023   9.362   3.616
59346SOL    HW279872   5.101   9.304   3.732
59347SOL     OW79873  12.132  12.599  10.387
59347SOL    HW179874  12.038  12.590  10.407
59347SOL    HW279875  12.159  12.677  10.434
59348SOL     OW79876  10.852   0.733   8.305
59348SOL    HW179877  10.819   0.808   8.255
59348SOL    HW279878  10.786   0.718   8.373
59349SOL     OW79879   5.378   8.732   1.956
59349SOL    HW179880   5.316   8.682   1.903
59349SOL    HW279881   5.348   8.720   2.046
59350SOL     OW79882   5.385  12.887   3.816
59350SOL    HW179883   5.375  12.914   3.725
59350SOL    HW279884   5.394  12.792   3.812
59351SOL     OW79885   5.101   7.549   3.836
59351SOL    HW179886   5.115   7.455   3.834
59351SOL    HW279887   5.165   7.585   3.775
59352SOL     OW79888   8.106   0.869   0.324
59352SOL    HW179889   8.100   0.926   0.248
59352SOL    HW279890   8.144   0.788   0.290
59353SOL     OW79891   9.352  13.419  11.197
59353SOL    HW179892   9.296  13.415  11.119
59353SOL    HW279893   9.427  13.364  11.174
59354SOL     OW79894  12.205   4.082   4.487
59354SOL    HW179895  12.263   4.032   4.430
59354SOL    HW279896  12.117   4.050   4.466
59355SOL     OW79897   3.987   3.761  12.514
59355SOL    HW179898   3.931   3.685  12.527
59355SOL    HW279899   4.070   3.738  12.555
59356SOL     OW79900   3.896   8.702   4.914
59356SOL    HW179901   3.889   8.613   4.950
59356SOL    HW279902   3.869   8.692   4.823
59357SOL     OW79903  10.683   7.051   0.105
59357SOL    HW179904  10.731   7.093   0.034
59357SOL    HW279905  10.592   7.048   0.074
59358SOL     OW79906  12.463  10.398   0.932
59358SOL    HW179907  12.473  10.326   0.870
59358SOL    HW279908  12.454  10.476   0.878
59359SOL     OW79909   2.743   9.230   6.713
59359SOL    HW179910   2.762   9.185   6.796
59359SOL    HW279911   2.652   9.260   6.722
59360SOL     OW79912   2.098   8.798   1.152
59360SOL    HW179913   2.123   8.811   1.243
59360SOL    HW279914   2.057   8.881   1.127
59361SOL     OW79915   4.244   2.703   2.312
59361SOL    HW179916   4.310   2.635   2.327
59361SOL    HW279917   4.279   2.781   2.354
59362SOL     OW79918   2.165   0.579  12.869
59362SOL    HW179919   2.088   0.550  12.918
59362SOL    HW279920   2.198   0.655  12.918
59363SOL     OW79921  13.959   6.607   5.855
59363SOL    HW179922  14.052   6.595   5.832
59363SOL    HW279923  13.945   6.702   5.849
59364SOL     OW79924  13.695  13.475  12.171
59364SOL    HW179925  13.727  13.427  12.247
59364SOL    HW279926  13.636  13.415  12.127
59365SOL     OW79927  10.154  10.420   2.784
59365SOL    HW179928  10.095  10.495   2.788
59365SOL    HW279929  10.127  10.373   2.705
59366SOL     OW79930   6.507   3.412   9.085
59366SOL    HW179931   6.535   3.375   9.001
59366SOL    HW279932   6.422   3.370   9.103
59367SOL     OW79933   8.169   4.522   8.334
59367SOL    HW179934   8.207   4.552   8.252
59367SOL    HW279935   8.167   4.599   8.390
59368SOL     OW79936  11.469   3.774   7.537
59368SOL    HW179937  11.456   3.867   7.558
59368SOL    HW279938  11.442   3.766   7.446
59369SOL     OW79939  13.424   8.517  14.639
59369SOL    HW179940  13.436   8.612  14.642
59369SOL    HW279941  13.350   8.505  14.579
59370SOL     OW79942   4.820  10.665   7.851
59370SOL    HW179943   4.825  10.750   7.809
59370SOL    HW279944   4.764  10.680   7.928
59371SOL     OW79945  11.781  10.206   0.001
59371SOL    HW179946  11.778  10.115   0.029
59371SOL    HW279947  11.859  10.242   0.044
59372SOL     OW79948  13.946   2.350  10.182
59372SOL    HW179949  13.857   2.357  10.147
59372SOL    HW279950  13.938   2.373  10.274
59373SOL     OW79951  12.754   0.305  10.073
59373SOL    HW179952  12.691   0.373  10.098
59373SOL    HW279953  12.798   0.341   9.995
59374SOL     OW79954   3.579   7.729   5.273
59374SOL    HW179955   3.646   7.759   5.335
59374SOL    HW279956   3.527   7.808   5.255
59375SOL     OW79957   9.768   5.117  12.002
59375SOL    HW179958   9.674   5.129  11.993
59375SOL    HW279959   9.802   5.132  11.913
59376SOL     OW79960   2.046   3.975   6.953
59376SOL    HW179961   2.110   3.934   7.012
59376SOL    HW279962   2.093   4.048   6.913
59377SOL     OW79963   7.219   3.010  14.360
59377SOL    HW179964   7.163   2.997  14.283
59377SOL    HW279965   7.242   2.921  14.387
59378SOL     OW79966   5.732   8.935   6.214
59378SOL    HW179967   5.751   9.014   6.163
59378SOL    HW279968   5.815   8.913   6.256
59379SOL     OW79969   0.520   3.695   2.821
59379SOL    HW179970   0.600   3.656   2.857
59379SOL    HW279971   0.534   3.789   2.827
59380SOL     OW79972  10.437   9.360  14.424
59380SOL    HW179973  10.482   9.408  14.354
59380SOL    HW279974  10.401   9.283  14.380
59381SOL     OW79975   7.580  12.327  12.062
59381SOL    HW179976   7.647  12.267  12.095
59381SOL    HW279977   7.531  12.275  11.998
59382SOL     OW79978  13.418   1.937  14.308
59382SOL    HW179979  13.491   1.988  14.272
59382SOL    HW279980  13.453   1.849  14.320
59383SOL     OW79981   4.781  11.877  12.677
59383SOL    HW179982   4.818  11.848  12.760
59383SOL    HW279983   4.857  11.907  12.627
59384SOL     OW79984   9.541  12.235   9.925
59384SOL    HW179985   9.606  12.304   9.937
59384SOL    HW279986   9.570  12.165   9.983
59385SOL     OW79987  13.604   6.449  11.317
59385SOL    HW179988  13.527   6.487  11.275
59385SOL    HW279989  13.668   6.521  11.320
59386SOL     OW79990  13.066  11.543   3.485
59386SOL    HW179991  13.010  11.473   3.451
59386SOL    HW279992  13.013  11.622   3.474
59387SOL     OW79993  11.637   3.211   2.605
59387SOL    HW179994  11.632   3.116   2.619
59387SOL    HW279995  11.722   3.225   2.563
59388SOL     OW79996   8.349   2.897   4.016
59388SOL    HW179997   8.311   2.899   3.928
59388SOL    HW279998   8.410   2.971   4.017
59389SOL     OW79999   2.673   0.987   7.152
59389SOL    HW180000   2.762   0.993   7.185
59389SOL    HW280001   2.643   0.899   7.176
59390SOL     OW80002   4.674  10.848   6.874
59390SOL    HW180003   4.622  10.928   6.878
59390SOL    HW280004   4.695  10.828   6.965
59391SOL     OW80005   6.587   7.817   5.141
59391SOL    HW180006   6.663   7.857   5.100
59391SOL    HW280007   6.565   7.875   5.213
59392SOL     OW80008   6.048   3.933  11.951
59392SOL    HW180009   5.987   3.983  11.897
59392SOL    HW280010   6.079   3.996  12.016
59393SOL     OW80011  14.364  12.179   0.902
59393SOL    HW180012  14.364  12.274   0.912
59393SOL    HW280013  14.311  12.147   0.974
59394SOL     OW80014   0.094   5.295   0.992
59394SOL    HW180015   0.102   5.221   1.052
59394SOL    HW280016   0.111   5.257   0.905
59395SOL     OW80017  11.360   7.309   9.565
59395SOL    HW180018  11.308   7.328   9.487
59395SOL    HW280019  11.296   7.300   9.635
59396SOL     OW80020   4.118   9.046   4.861
59396SOL    HW180021   4.197   9.090   4.828
59396SOL    HW280022   4.055   9.117   4.875
59397SOL     OW80023   8.979   2.380   9.987
59397SOL    HW180024   8.935   2.349  10.066
59397SOL    HW280025   9.033   2.453  10.017
59398SOL     OW80026   3.454  12.955   5.640
59398SOL    HW180027   3.431  12.990   5.554
59398SOL    HW280028   3.406  13.010   5.702
59399SOL     OW80029  13.386  12.714   4.241
59399SOL    HW180030  13.475  12.733   4.209
59399SOL    HW280031  13.329  12.763   4.182
59400SOL     OW80032   0.628  11.123  13.842
59400SOL    HW180033   0.578  11.184  13.897
59400SOL    HW280034   0.710  11.168  13.824
59401SOL     OW80035  11.772   9.323   8.527
59401SOL    HW180036  11.764   9.304   8.434
59401SOL    HW280037  11.716   9.257   8.569
59402SOL     OW80038   6.977   1.157   2.175
59402SOL    HW180039   6.953   1.238   2.221
59402SOL    HW280040   6.955   1.087   2.237
59403SOL     OW80041   9.026  11.585  13.453
59403SOL    HW180042   9.098  11.553  13.508
59403SOL    HW280043   8.997  11.665  13.496
59404SOL     OW80044   3.736  12.540   7.539
59404SOL    HW180045   3.717  12.624   7.581
59404SOL    HW280046   3.746  12.561   7.446
59405SOL     OW80047   6.523   6.513   1.992
59405SOL    HW180048   6.546   6.466   1.912
59405SOL    HW280049   6.502   6.444   2.055
59406SOL     OW80050   0.137   3.319  10.873
59406SOL    HW180051   0.223   3.361  10.869
59406SOL    HW280052   0.110   3.311  10.782
59407SOL     OW80053  12.987   3.965   8.520
59407SOL    HW180054  12.899   3.928   8.512
59407SOL    HW280055  13.032   3.908   8.582
59408SOL     OW80056   2.381   4.329   3.246
59408SOL    HW180057   2.472   4.349   3.226
59408SOL    HW280058   2.363   4.377   3.327
59409SOL     OW80059  13.631  13.832  10.027
59409SOL    HW180060  13.684  13.871  10.097
59409SOL    HW280061  13.541  13.854  10.051
59410SOL     OW80062   3.126  10.567   5.184
59410SOL    HW180063   3.136  10.476   5.212
59410SOL    HW280064   3.210  10.588   5.144
59411SOL     OW80065  12.636   7.570   5.012
59411SOL    HW180066  12.587   7.623   5.075
59411SOL    HW280067  12.578   7.562   4.937
59412SOL     OW80068   8.143   6.205   1.999
59412SOL    HW180069   8.048   6.198   1.986
59412SOL    HW280070   8.178   6.123   1.964
59413SOL     OW80071   8.991   4.396   7.379
59413SOL    HW180072   8.944   4.359   7.453
59413SOL    HW280073   9.068   4.340   7.369
59414SOL     OW80074   6.229   7.383   3.570
59414SOL    HW180075   6.227   7.330   3.490
59414SOL    HW280076   6.209   7.472   3.541
59415SOL     OW80077   5.119   1.980  14.364
59415SOL    HW180078   5.143   1.976  14.272
59415SOL    HW280079   5.037   1.931  14.371
59416SOL     OW80080  11.341   7.269   7.087
59416SOL    HW180081  11.298   7.251   7.004
59416SOL    HW280082  11.271   7.298   7.145
59417SOL     OW80083  14.070   5.689   5.740
59417SOL    HW180084  14.027   5.749   5.678
59417SOL    HW280085  14.122   5.747   5.796
59418SOL     OW80086  10.478  10.665  11.578
59418SOL    HW180087  10.456  10.575  11.558
59418SOL    HW280088  10.573  10.663  11.594
59419SOL     OW80089  11.994  12.310  12.702
59419SOL    HW180090  12.026  12.373  12.637
59419SOL    HW280091  12.042  12.229  12.682
59420SOL     OW80092  12.151   8.012   3.517
59420SOL    HW180093  12.167   7.928   3.559
59420SOL    HW280094  12.060   8.033   3.539
59421SOL     OW80095   4.216  14.568  11.313
59421SOL    HW180096   4.182  14.514  11.241
59421SOL    HW280097   4.139  14.616  11.344
59422SOL     OW80098  12.096  10.857   9.097
59422SOL    HW180099  12.148  10.872   9.018
59422SOL    HW280100  12.039  10.783   9.073
59423SOL     OW80101  14.108   3.107  12.125
59423SOL    HW180102  14.085   3.014  12.125
59423SOL    HW280103  14.045   3.148  12.065
59424SOL     OW80104  10.413  11.724   1.317
59424SOL    HW180105  10.502  11.760   1.323
59424SOL    HW280106  10.357  11.801   1.304
59425SOL     OW80107   1.848  13.546  14.256
59425SOL    HW180108   1.895  13.546  14.340
59425SOL    HW280109   1.759  13.572  14.278
59426SOL     OW80110   3.942   3.022  14.057
59426SOL    HW180111   4.005   3.093  14.064
59426SOL    HW280112   3.940   3.001  13.963
59427SOL     OW80113  12.397  10.350  10.583
59427SOL    HW180114  12.333  10.338  10.513
59427SOL    HW280115  12.480  10.363  10.537
59428SOL     OW80116  10.950   7.271   9.560
59428SOL    HW180117  10.954   7.302   9.470
59428SOL    HW280118  10.872   7.314   9.597
59429SOL     OW80119   2.814  13.656  13.920
59429SOL    HW180120   2.731  13.675  13.878
59429SOL    HW280121   2.871  13.730  13.896
59430SOL     OW80122   6.886  12.235  11.007
59430SOL    HW180123   6.873  12.200  10.919
59430SOL    HW280124   6.980  12.256  11.010
59431SOL     OW80125   7.652   8.748   3.937
59431SOL    HW180126   7.606   8.723   4.018
59431SOL    HW280127   7.602   8.824   3.904
59432SOL     OW80128   0.861   4.014   0.846
59432SOL    HW180129   0.877   3.969   0.929
59432SOL    HW280130   0.920   4.089   0.848
59433SOL     OW80131   9.231  10.293  12.766
59433SOL    HW180132   9.305  10.251  12.722
59433SOL    HW280133   9.154  10.247  12.733
59434SOL     OW80134  11.414  13.925   4.413
59434SOL    HW180135  11.345  13.871   4.451
59434SOL    HW280136  11.397  14.013   4.448
59435SOL     OW80137   1.112   7.830  14.761
59435SOL    HW180138   1.072   7.911  14.729
59435SOL    HW280139   1.205   7.849  14.766
59436SOL     OW80140  11.940   1.574  13.207
59436SOL    HW180141  11.851   1.565  13.175
59436SOL    HW280142  11.956   1.668  13.209
59437SOL     OW80143   6.077   9.272  10.755
59437SOL    HW180144   6.041   9.340  10.812
59437SOL    HW280145   6.154   9.313  10.715
59438SOL     OW80146   7.600  10.189  13.800
59438SOL    HW180147   7.613  10.104  13.759
59438SOL    HW280148   7.685  10.212  13.837
59439SOL     OW80149   6.313  14.625   8.290
59439SOL    HW180150   6.224  14.604   8.318
59439SOL    HW280151   6.301  14.676   8.210
59440SOL     OW80152  14.641   1.605   4.991
59440SOL    HW180153  14.636   1.662   5.067
59440SOL    HW280154  14.721   1.554   5.004
59441SOL     OW80155  11.734  14.053   8.558
59441SOL    HW180156  11.728  14.001   8.638
59441SOL    HW280157  11.797  14.006   8.503
59442SOL     OW80158   3.390   5.704  10.823
59442SOL    HW180159   3.452   5.640  10.857
59442SOL    HW280160   3.420   5.720  10.733
59443SOL     OW80161   6.207  11.988  13.471
59443SOL    HW180162   6.207  11.895  13.448
59443SOL    HW280163   6.233  11.989  13.564
59444SOL     OW80164   0.825   8.025  12.977
59444SOL    HW180165   0.739   8.029  13.019
59444SOL    HW280166   0.882   7.986  13.043
59445SOL     OW80167  13.106   6.845  11.881
59445SOL    HW180168  13.135   6.767  11.928
59445SOL    HW280169  13.186   6.884  11.846
59446SOL     OW80170  12.969  11.496  11.569
59446SOL    HW180171  12.971  11.410  11.527
59446SOL    HW280172  12.892  11.493  11.626
59447SOL     OW80173   0.802   0.074  10.768
59447SOL    HW180174   0.883   0.026  10.782
59447SOL    HW280175   0.786   0.067  10.674
59448SOL     OW80176   1.300   8.154  10.260
59448SOL    HW180177   1.316   8.150  10.354
59448SOL    HW280178   1.214   8.197  10.252
59449SOL     OW80179   3.553  14.662  11.779
59449SOL    HW180180   3.580  14.633  11.691
59449SOL    HW280181   3.486  14.729  11.762
59450SOL     OW80182   4.265  13.055   7.677
59450SOL    HW180183   4.350  13.083   7.710
59450SOL    HW280184   4.229  13.133   7.634
59451SOL     OW80185   3.248  11.303   4.984
59451SOL    HW180186   3.159  11.337   4.997
59451SOL    HW280187   3.242  11.211   5.010
59452SOL     OW80188   9.650   7.625   2.886
59452SOL    HW180189   9.601   7.562   2.834
59452SOL    HW280190   9.590   7.699   2.897
59453SOL     OW80191  14.021  14.428   3.973
59453SOL    HW180192  14.029  14.348   4.025
59453SOL    HW280193  14.024  14.499   4.037
59454SOL     OW80194   0.847   1.944  13.254
59454SOL    HW180195   0.914   1.930  13.321
59454SOL    HW280196   0.862   2.035  13.224
59455SOL     OW80197   5.760  12.098  13.654
59455SOL    HW180198   5.791  12.175  13.607
59455SOL    HW280199   5.840  12.057  13.688
59456SOL     OW80200  14.014   2.613  14.747
59456SOL    HW180201  13.983   2.523  14.759
59456SOL    HW280202  14.038   2.618  14.655
59457SOL     OW80203  12.204   7.290   2.712
59457SOL    HW180204  12.282   7.326   2.669
59457SOL    HW280205  12.150   7.258   2.640
59458SOL     OW80206   8.179   5.820   5.483
59458SOL    HW180207   8.117   5.890   5.463
59458SOL    HW280208   8.131   5.740   5.464
59459SOL     OW80209   8.774   9.556  10.415
59459SOL    HW180210   8.753   9.462  10.415
59459SOL    HW280211   8.740   9.588  10.332
59460SOL     OW80212   8.520   0.476   2.833
59460SOL    HW180213   8.469   0.434   2.902
59460SOL    HW280214   8.576   0.406   2.798
59461SOL     OW80215  12.717  10.353  10.081
59461SOL    HW180216  12.642  10.411  10.094
59461SOL    HW280217  12.723  10.341   9.986
59462SOL     OW80218   7.887  12.002   0.271
59462SOL    HW180219   7.889  11.981   0.178
59462SOL    HW280220   7.809  11.959   0.305
59463SOL     OW80221   6.445  14.741   6.414
59463SOL    HW180222   6.450  14.770   6.505
59463SOL    HW280223   6.388  14.804   6.371
59464SOL     OW80224  13.581   9.367   2.695
59464SOL    HW180225  13.598   9.446   2.642
59464SOL    HW280226  13.640   9.375   2.769
59465SOL     OW80227  13.231  11.410   6.636
59465SOL    HW180228  13.280  11.342   6.590
59465SOL    HW280229  13.272  11.492   6.609
59466SOL     OW80230  10.355  13.068  13.830
59466SOL    HW180231  10.269  13.045  13.867
59466SOL    HW280232  10.367  13.160  13.856
59467SOL     OW80233   9.951  11.438  12.579
59467SOL    HW180234   9.881  11.372  12.577
59467SOL    HW280235  10.025  11.393  12.620
59468SOL     OW80236  10.194  14.006  10.612
59468SOL    HW180237  10.261  14.043  10.669
59468SOL    HW280238  10.160  13.930  10.660
59469SOL     OW80239   3.801   0.891  14.067
59469SOL    HW180240   3.844   0.805  14.068
59469SOL    HW280241   3.830   0.932  14.149
59470SOL     OW80242   7.697   6.194  11.678
59470SOL    HW180243   7.666   6.104  11.690
59470SOL    HW280244   7.624   6.239  11.635
59471SOL     OW80245   0.355  13.363   3.649
59471SOL    HW180246   0.438  13.347   3.694
59471SOL    HW280247   0.337  13.281   3.603
59472SOL     OW80248   0.254   4.203  10.189
59472SOL    HW180249   0.243   4.114  10.223
59472SOL    HW280250   0.275   4.256  10.265
59473SOL     OW80251   9.510   9.790  12.146
59473SOL    HW180252   9.585   9.827  12.099
59473SOL    HW280253   9.540   9.784  12.237
59474SOL     OW80254  10.503  14.253   5.349
59474SOL    HW180255  10.595  14.243   5.371
59474SOL    HW280256  10.489  14.195   5.274
59475SOL     OW80257  11.991  10.124   1.022
59475SOL    HW180258  12.024  10.209   1.052
59475SOL    HW280259  11.896  10.131   1.031
59476SOL     OW80260   6.329   3.402   5.437
59476SOL    HW180261   6.408   3.383   5.488
59476SOL    HW280262   6.282   3.466   5.490
59477SOL     OW80263   2.562   9.989   8.702
59477SOL    HW180264   2.608  10.046   8.641
59477SOL    HW280265   2.603  10.007   8.787
59478SOL     OW80266  13.545   5.221  14.372
59478SOL    HW180267  13.562   5.134  14.336
59478SOL    HW280268  13.609   5.278  14.328
59479SOL     OW80269  13.926  12.749   5.974
59479SOL    HW180270  14.010  12.705   5.987
59479SOL    HW280271  13.865  12.679   5.950
59480SOL     OW80272  14.457   9.467   0.712
59480SOL    HW180273  14.452   9.540   0.774
59480SOL    HW280274  14.423   9.502   0.630
59481SOL     OW80275  12.087  13.588  10.558
59481SOL    HW180276  12.139  13.609  10.481
59481SOL    HW280277  12.133  13.514  10.598
59482SOL     OW80278   2.648   1.633  11.868
59482SOL    HW180279   2.594   1.560  11.837
59482SOL    HW280280   2.593   1.710  11.856
59483SOL     OW80281   1.896   0.845  12.884
59483SOL    HW180282   1.853   0.930  12.892
59483SOL    HW280283   1.971   0.850  12.944
59484SOL     OW80284   1.215   8.859  11.175
59484SOL    HW180285   1.311   8.867  11.182
59484SOL    HW280286   1.200   8.841  11.082
59485SOL     OW80287  12.203  12.137   9.453
59485SOL    HW180288  12.215  12.071   9.384
59485SOL    HW280289  12.291  12.172   9.468
59486SOL     OW80290   2.888   0.354   3.788
59486SOL    HW180291   2.968   0.403   3.806
59486SOL    HW280292   2.878   0.358   3.693
59487SOL     OW80293  10.787   2.551   3.744
59487SOL    HW180294  10.843   2.617   3.786
59487SOL    HW280295  10.812   2.469   3.786
59488SOL     OW80296   2.094   0.492   3.093
59488SOL    HW180297   2.054   0.579   3.087
59488SOL    HW280298   2.073   0.461   3.181
59489SOL     OW80299   1.625  14.858   9.839
59489SOL    HW180300   1.688  14.797   9.879
59489SOL    HW280301   1.575  14.805   9.777
59490SOL     OW80302   0.096  10.179  14.843
59490SOL    HW180303   0.164  10.230   0.007
59490SOL    HW280304   0.017  10.195   0.015
59491SOL     OW80305  13.528   9.872  10.205
59491SOL    HW180306  13.532   9.915  10.120
59491SOL    HW280307  13.466   9.926  10.256
59492SOL     OW80308   9.266  12.977   1.035
59492SOL    HW180309   9.261  12.992   1.129
59492SOL    HW280310   9.317  13.050   1.001
59493SOL     OW80311   8.181  10.563  11.071
59493SOL    HW180312   8.232  10.563  10.990
59493SOL    HW280313   8.107  10.505  11.052
59494SOL     OW80314  12.981   3.493  13.019
59494SOL    HW180315  12.887   3.479  13.032
59494SOL    HW280316  13.015   3.407  12.995
59495SOL     OW80317   6.192   6.740   8.852
59495SOL    HW180318   6.128   6.712   8.786
59495SOL    HW280319   6.270   6.762   8.801
59496SOL     OW80320   9.935  14.501   3.422
59496SOL    HW180321   9.995  14.450   3.477
59496SOL    HW280322   9.952  14.469   3.333
59497SOL     OW80323   3.404   2.103   7.483
59497SOL    HW180324   3.405   2.055   7.566
59497SOL    HW280325   3.355   2.046   7.423
59498SOL     OW80326  11.275   7.159   6.285
59498SOL    HW180327  11.307   7.228   6.227
59498SOL    HW280328  11.274   7.080   6.230
59499SOL     OW80329   0.916   5.493   0.748
59499SOL    HW180330   0.888   5.511   0.838
59499SOL    HW280331   0.840   5.519   0.695
59500SOL     OW80332   3.004   8.597  10.288
59500SOL    HW180333   3.003   8.632  10.377
59500SOL    HW280334   3.063   8.523  10.292
59501SOL     OW80335  12.977   3.378  12.514
59501SOL    HW180336  12.896   3.354  12.468
59501SOL    HW280337  12.954   3.456  12.564
59502SOL     OW80338   9.946   1.718   9.326
59502SOL    HW180339   9.996   1.799   9.311
59502SOL    HW280340   9.967   1.693   9.416
59503SOL     OW80341  13.319   1.612   9.877
59503SOL    HW180342  13.406   1.578   9.896
59503SOL    HW280343  13.313   1.609   9.781
59504SOL     OW80344  14.317   7.134  10.844
59504SOL    HW180345  14.375   7.165  10.914
59504SOL    HW280346  14.254   7.077  10.889
59505SOL     OW80347   7.502  13.740  11.399
59505SOL    HW180348   7.585  13.781  11.424
59505SOL    HW280349   7.497  13.661  11.454
59506SOL     OW80350  10.144   3.400   9.759
59506SOL    HW180351  10.106   3.452   9.689
59506SOL    HW280352  10.098   3.427   9.838
59507SOL     OW80353   6.032   7.794   2.596
59507SOL    HW180354   6.123   7.794   2.567
59507SOL    HW280355   5.989   7.861   2.542
59508SOL     OW80356   9.595   5.214   7.351
59508SOL    HW180357   9.580   5.217   7.446
59508SOL    HW280358   9.544   5.138   7.322
59509SOL     OW80359   9.607   8.343   0.645
59509SOL    HW180360   9.695   8.362   0.678
59509SOL    HW280361   9.620   8.329   0.551
59510SOL     OW80362  11.165  12.356  10.024
59510SOL    HW180363  11.099  12.330  10.088
59510SOL    HW280364  11.231  12.287  10.028
59511SOL     OW80365  14.498   2.270  13.367
59511SOL    HW180366  14.427   2.243  13.308
59511SOL    HW280367  14.468   2.352  13.405
59512SOL     OW80368   4.457  14.866   4.301
59512SOL    HW180369   4.388   0.038   4.342
59512SOL    HW280370   4.415  14.784   4.276
59513SOL     OW80371   5.032  13.185   4.793
59513SOL    HW180372   5.006  13.136   4.870
59513SOL    HW280373   4.965  13.254   4.785
59514SOL     OW80374   2.574  13.402   7.439
59514SOL    HW180375   2.602  13.485   7.400
59514SOL    HW280376   2.631  13.392   7.516
59515SOL     OW80377   8.590   8.431   0.194
59515SOL    HW180378   8.562   8.369   0.262
59515SOL    HW280379   8.510   8.450   0.145
59516SOL     OW80380   9.965   2.772   7.034
59516SOL    HW180381  10.011   2.773   6.951
59516SOL    HW280382   9.923   2.858   7.039
59517SOL     OW80383   4.434   2.921   1.297
59517SOL    HW180384   4.433   2.856   1.367
59517SOL    HW280385   4.344   2.951   1.290
59518SOL     OW80386   3.710   4.536   6.143
59518SOL    HW180387   3.636   4.479   6.123
59518SOL    HW280388   3.684   4.582   6.223
59519SOL     OW80389   1.925   7.349   7.687
59519SOL    HW180390   2.000   7.298   7.720
59519SOL    HW280391   1.875   7.287   7.635
59520SOL     OW80392   7.814   7.467  12.267
59520SOL    HW180393   7.740   7.412  12.293
59520SOL    HW280394   7.891   7.420  12.299
59521SOL     OW80395   7.387   7.429   5.104
59521SOL    HW180396   7.457   7.484   5.068
59521SOL    HW280397   7.345   7.391   5.027
59522SOL     OW80398   5.282  11.528   6.200
59522SOL    HW180399   5.305  11.618   6.179
59522SOL    HW280400   5.191  11.533   6.231
59523SOL     OW80401  14.398   6.574  12.166
59523SOL    HW180402  14.431   6.653  12.123
59523SOL    HW280403  14.435   6.577  12.254
59524SOL     OW80404  10.370   4.591  12.070
59524SOL    HW180405  10.381   4.682  12.042
59524SOL    HW280406  10.277   4.573  12.059
59525SOL     OW80407  12.477   8.692  12.041
59525SOL    HW180408  12.547   8.668  12.102
59525SOL    HW280409  12.514   8.762  11.988
59526SOL     OW80410  11.434   0.781   0.523
59526SOL    HW180411  11.391   0.698   0.544
59526SOL    HW280412  11.509   0.755   0.468
59527SOL     OW80413   9.295  12.428   8.854
59527SOL    HW180414   9.243  12.348   8.843
59527SOL    HW280415   9.309  12.435   8.948
59528SOL     OW80416   8.844   5.340   7.199
59528SOL    HW180417   8.775   5.354   7.135
59528SOL    HW280418   8.801   5.352   7.284
59529SOL     OW80419   3.105   5.393  10.261
59529SOL    HW180420   3.199   5.377  10.251
59529SOL    HW280421   3.069   5.309  10.288
59530SOL     OW80422   6.330   5.968   2.566
59530SOL    HW180423   6.307   5.909   2.637
59530SOL    HW280424   6.406   6.016   2.598
59531SOL     OW80425  12.840   3.781  13.081
59531SOL    HW180426  12.792   3.786  12.999
59531SOL    HW280427  12.847   3.687  13.099
59532SOL     OW80428   1.949   8.180  10.434
59532SOL    HW180429   1.956   8.088  10.458
59532SOL    HW280430   1.890   8.217  10.500
59533SOL     OW80431  13.062   9.147   4.524
59533SOL    HW180432  13.150   9.119   4.548
59533SOL    HW280433  13.014   9.066   4.509
59534SOL     OW80434   8.055   7.236   6.445
59534SOL    HW180435   7.999   7.314   6.452
59534SOL    HW280436   8.123   7.250   6.511
59535SOL     OW80437  12.227   6.518   2.390
59535SOL    HW180438  12.232   6.447   2.326
59535SOL    HW280439  12.237   6.474   2.475
59536SOL     OW80440   3.846  11.858   8.765
59536SOL    HW180441   3.845  11.797   8.838
59536SOL    HW280442   3.925  11.910   8.779
59537SOL     OW80443   4.161   4.292   7.192
59537SOL    HW180444   4.130   4.220   7.137
59537SOL    HW280445   4.132   4.270   7.280
59538SOL     OW80446  14.449   6.881   3.062
59538SOL    HW180447  14.477   6.906   3.150
59538SOL    HW280448  14.419   6.964   3.023
59539SOL     OW80449  10.821   7.748   8.683
59539SOL    HW180450  10.851   7.793   8.605
59539SOL    HW280451  10.901   7.722   8.728
59540SOL     OW80452   8.275  11.548   3.688
59540SOL    HW180453   8.251  11.595   3.608
59540SOL    HW280454   8.191  11.523   3.727
59541SOL     OW80455   6.701  14.272   7.494
59541SOL    HW180456   6.671  14.283   7.404
59541SOL    HW280457   6.786  14.229   7.486
59542SOL     OW80458  11.924   0.561   0.975
59542SOL    HW180459  11.928   0.650   0.940
59542SOL    HW280460  11.830   0.540   0.974
59543SOL     OW80461  14.312  14.820  11.996
59543SOL    HW180462  14.305  14.725  11.983
59543SOL    HW280463  14.221  14.851  11.997
59544SOL     OW80464   3.915  12.939   7.359
59544SOL    HW180465   3.955  12.879   7.295
59544SOL    HW280466   3.822  12.939   7.337
59545SOL     OW80467   8.735   7.491   5.160
59545SOL    HW180468   8.655   7.529   5.196
59545SOL    HW280469   8.803   7.515   5.224
59546SOL     OW80470   6.418   1.781   1.777
59546SOL    HW180471   6.359   1.855   1.762
59546SOL    HW280472   6.498   1.821   1.811
59547SOL     OW80473   3.147   5.606   6.433
59547SOL    HW180474   3.157   5.634   6.342
59547SOL    HW280475   3.236   5.606   6.469
59548SOL     OW80476  14.179   7.479  13.931
59548SOL    HW180477  14.273   7.493  13.946
59548SOL    HW280478  14.147   7.442  14.013
59549SOL     OW80479  12.436   0.411   0.984
59549SOL    HW180480  12.517   0.451   0.954
59549SOL    HW280481  12.459   0.368   1.067
59550SOL     OW80482   6.000   8.142  12.195
59550SOL    HW180483   6.034   8.053  12.187
59550SOL    HW280484   5.924   8.133  12.253
59551SOL     OW80485   3.262   2.092   2.778
59551SOL    HW180486   3.331   2.038   2.741
59551SOL    HW280487   3.213   2.031   2.835
59552SOL     OW80488   7.776  10.226  10.713
59552SOL    HW180489   7.717  10.197  10.783
59552SOL    HW280490   7.808  10.312  10.742
59553SOL     OW80491  13.378   5.325  12.758
59553SOL    HW180492  13.404   5.299  12.846
59553SOL    HW280493  13.459   5.356  12.717
59554SOL     OW80494   0.607  12.301   1.622
59554SOL    HW180495   0.694  12.266   1.644
59554SOL    HW280496   0.614  12.326   1.530
59555SOL     OW80497   4.038   8.389  11.480
59555SOL    HW180498   3.980   8.334  11.533
59555SOL    HW280499   3.979   8.450  11.435
59556SOL     OW80500  12.230   0.189   3.251
59556SOL    HW180501  12.307   0.134   3.261
59556SOL    HW280502  12.164   0.150   3.308
59557SOL     OW80503   3.612   5.219   6.066
59557SOL    HW180504   3.561   5.274   6.006
59557SOL    HW280505   3.695   5.265   6.075
59558SOL     OW80506  13.505   9.759   6.758
59558SOL    HW180507  13.424   9.738   6.711
59558SOL    HW280508  13.570   9.701   6.721
59559SOL     OW80509   9.649  12.815   4.972
59559SOL    HW180510   9.742  12.795   4.980
59559SOL    HW280511   9.607  12.762   5.040
59560SOL     OW80512   1.995  10.664   2.482
59560SOL    HW180513   2.030  10.736   2.429
59560SOL    HW280514   1.942  10.708   2.549
59561SOL     OW80515  13.224   4.242  12.175
59561SOL    HW180516  13.190   4.204  12.256
59561SOL    HW280517  13.147   4.255  12.120
59562SOL     OW80518   7.349   6.730  14.479
59562SOL    HW180519   7.385   6.714  14.566
59562SOL    HW280520   7.307   6.648  14.455
59563SOL     OW80521   4.599   6.805   8.846
59563SOL    HW180522   4.669   6.740   8.839
59563SOL    HW280523   4.612   6.845   8.932
59564SOL     OW80524   5.136  11.852   1.651
59564SOL    HW180525   5.164  11.828   1.562
59564SOL    HW280526   5.043  11.829   1.653
59565SOL     OW80527   0.577  14.063   5.894
59565SOL    HW180528   0.638  14.003   5.936
59565SOL    HW280529   0.547  14.017   5.816
59566SOL     OW80530   6.603  11.703   6.555
59566SOL    HW180531   6.693  11.673   6.565
59566SOL    HW280532   6.551  11.635   6.599
59567SOL     OW80533   8.777  13.771  11.874
59567SOL    HW180534   8.736  13.694  11.834
59567SOL    HW280535   8.818  13.817  11.801
59568SOL     OW80536  11.810  13.916  14.859
59568SOL    HW180537  11.857  13.999  14.854
59568SOL    HW280538  11.794  13.891  14.768
59569SOL     OW80539   3.828   9.164   3.785
59569SOL    HW180540   3.840   9.137   3.694
59569SOL    HW280541   3.834   9.083   3.835
59570SOL     OW80542   0.334   5.333   4.792
59570SOL    HW180543   0.334   5.269   4.720
59570SOL    HW280544   0.423   5.331   4.826
59571SOL     OW80545   9.389  12.841   3.780
59571SOL    HW180546   9.446  12.781   3.733
59571SOL    HW280547   9.384  12.805   3.869
59572SOL     OW80548   7.068   0.302   7.661
59572SOL    HW180549   6.977   0.329   7.647
59572SOL    HW280550   7.072   0.212   7.629
59573SOL     OW80551   5.528   1.412   7.427
59573SOL    HW180552   5.445   1.399   7.382
59573SOL    HW280553   5.589   1.352   7.383
59574SOL     OW80554  14.318   7.707   2.521
59574SOL    HW180555  14.315   7.626   2.573
59574SOL    HW280556  14.408   7.740   2.533
59575SOL     OW80557   3.036   5.097   9.075
59575SOL    HW180558   2.957   5.045   9.088
59575SOL    HW280559   3.102   5.053   9.128
59576SOL     OW80560   3.463   0.954  12.607
59576SOL    HW180561   3.484   1.043  12.637
59576SOL    HW280562   3.491   0.952  12.516
59577SOL     OW80563   9.163   3.209   6.319
59577SOL    HW180564   9.251   3.246   6.310
59577SOL    HW280565   9.153   3.153   6.242
59578SOL     OW80566  12.007   4.247  14.266
59578SOL    HW180567  12.079   4.310  14.259
59578SOL    HW280568  12.004   4.205  14.180
59579SOL     OW80569   6.548  13.175   4.475
59579SOL    HW180570   6.544  13.120   4.553
59579SOL    HW280571   6.463  13.163   4.433
59580SOL     OW80572   8.120  12.139   3.447
59580SOL    HW180573   8.191  12.095   3.401
59580SOL    HW280574   8.086  12.203   3.384
59581SOL     OW80575   7.438   3.038  13.476
59581SOL    HW180576   7.416   2.970  13.539
59581SOL    HW280577   7.387   3.015  13.398
59582SOL     OW80578   2.889   5.408   4.284
59582SOL    HW180579   2.924   5.490   4.320
59582SOL    HW280580   2.803   5.433   4.249
59583SOL     OW80581  13.806   7.669   0.822
59583SOL    HW180582  13.735   7.687   0.759
59583SOL    HW280583  13.764   7.618   0.891
59584SOL     OW80584  12.918  13.041  13.821
59584SOL    HW180585  12.828  13.027  13.791
59584SOL    HW280586  12.924  13.136  13.835
59585SOL     OW80587   8.967   4.176   0.296
59585SOL    HW180588   8.961   4.151   0.388
59585SOL    HW280589   8.881   4.156   0.260
59586SOL     OW80590  13.936   7.592   4.748
59586SOL    HW180591  14.012   7.626   4.701
59586SOL    HW280592  13.864   7.596   4.685
59587SOL     OW80593  11.087   4.090  10.679
59587SOL    HW180594  11.073   4.185  10.685
59587SOL    HW280595  11.009   4.052  10.718
59588SOL     OW80596   4.694  12.647   1.048
59588SOL    HW180597   4.613  12.670   1.003
59588SOL    HW280598   4.704  12.713   1.116
59589SOL     OW80599  10.685   1.056  11.463
59589SOL    HW180600  10.729   1.064  11.548
59589SOL    HW280601  10.732   1.117  11.406
59590SOL     OW80602  14.737  13.571   3.886
59590SOL    HW180603  14.788  13.600   3.961
59590SOL    HW280604  14.775  13.617   3.811
59591SOL     OW80605   2.910   2.031   7.390
59591SOL    HW180606   2.923   2.024   7.295
59591SOL    HW280607   2.995   2.008   7.427
59592SOL     OW80608   5.065  14.151   6.741
59592SOL    HW180609   5.047  14.235   6.699
59592SOL    HW280610   5.148  14.164   6.787
59593SOL     OW80611   0.726   4.906  14.052
59593SOL    HW180612   0.705   4.859  13.972
59593SOL    HW280613   0.769   4.986  14.022
59594SOL     OW80614  14.582   8.199  13.014
59594SOL    HW180615  14.618   8.117  12.981
59594SOL    HW280616  14.634   8.267  12.972
59595SOL     OW80617  14.564  13.016   7.723
59595SOL    HW180618  14.635  13.075   7.699
59595SOL    HW280619  14.541  12.970   7.642
59596SOL     OW80620   8.561   6.096  11.639
59596SOL    HW180621   8.551   6.187  11.668
59596SOL    HW280622   8.565   6.046  11.720
59597SOL     OW80623  14.034  12.800   6.699
59597SOL    HW180624  14.020  12.720   6.749
59597SOL    HW280625  14.003  12.779   6.611
59598SOL     OW80626   4.550   3.852  10.495
59598SOL    HW180627   4.478   3.851  10.431
59598SOL    HW280628   4.627   3.825  10.445
59599SOL     OW80629  12.524   6.806   2.771
59599SOL    HW180630  12.588   6.855   2.719
59599SOL    HW280631  12.527   6.846   2.858
59600SOL     OW80632   7.577   2.968  14.369
59600SOL    HW180633   7.492   2.972  14.324
59600SOL    HW280634   7.635   3.021  14.315
59601SOL     OW80635   1.146  13.980   5.475
59601SOL    HW180636   1.110  13.962   5.561
59601SOL    HW280637   1.173  14.072   5.479
59602SOL     OW80638   4.763   2.685   0.621
59602SOL    HW180639   4.750   2.771   0.581
59602SOL    HW280640   4.791   2.704   0.711
59603SOL     OW80641   2.908   5.145   4.742
59603SOL    HW180642   2.972   5.165   4.811
59603SOL    HW280643   2.961   5.116   4.668
59604SOL     OW80644  10.194   4.297   6.103
59604SOL    HW180645  10.236   4.270   6.021
59604SOL    HW280646  10.108   4.256   6.101
59605SOL     OW80647   0.623   4.065   9.877
59605SOL    HW180648   0.591   4.049   9.966
59605SOL    HW280649   0.557   4.122   9.837
59606SOL     OW80650   7.255   5.196  11.854
59606SOL    HW180651   7.170   5.239  11.849
59606SOL    HW280652   7.245   5.116  11.802
59607SOL     OW80653   0.150  11.037  10.695
59607SOL    HW180654   0.125  11.094  10.768
59607SOL    HW280655   0.072  10.985  10.678
59608SOL     OW80656   6.096   1.922   7.366
59608SOL    HW180657   6.019   1.866   7.370
59608SOL    HW280658   6.134   1.917   7.454
59609SOL     OW80659  14.172   8.189  13.357
59609SOL    HW180660  14.097   8.230  13.314
59609SOL    HW280661  14.234   8.172  13.287
59610SOL     OW80662   3.109   1.120   0.640
59610SOL    HW180663   3.086   1.178   0.712
59610SOL    HW280664   3.043   1.138   0.572
59611SOL     OW80665  11.322   6.357   3.895
59611SOL    HW180666  11.409   6.322   3.874
59611SOL    HW280667  11.298   6.315   3.977
59612SOL     OW80668   7.810   1.026   3.069
59612SOL    HW180669   7.760   1.040   2.988
59612SOL    HW280670   7.745   1.035   3.139
59613SOL     OW80671   2.006   8.738   7.408
59613SOL    HW180672   1.920   8.761   7.374
59613SOL    HW280673   2.041   8.821   7.441
59614SOL     OW80674  11.659   0.443   8.347
59614SOL    HW180675  11.686   0.415   8.434
59614SOL    HW280676  11.566   0.465   8.356
59615SOL     OW80677   7.810  10.426   9.527
59615SOL    HW180678   7.813  10.498   9.464
59615SOL    HW280679   7.722  10.429   9.563
59616SOL     OW80680  14.729   9.350   6.236
59616SOL    HW180681  14.648   9.350   6.184
59616SOL    HW280682  14.798   9.334   6.172
59617SOL     OW80683  12.087   8.295   2.470
59617SOL    HW180684  12.153   8.318   2.405
59617SOL    HW280685  12.046   8.215   2.434
59618SOL     OW80686   1.286   1.187  11.263
59618SOL    HW180687   1.207   1.241  11.262
59618SOL    HW280688   1.256   1.101  11.291
59619SOL     OW80689   0.615  10.819  13.231
59619SOL    HW180690   0.555  10.744  13.229
59619SOL    HW280691   0.668  10.810  13.152
59620SOL     OW80692   8.690   8.938   5.388
59620SOL    HW180693   8.764   8.982   5.347
59620SOL    HW280694   8.706   8.947   5.482
59621SOL     OW80695   4.321  11.535   4.044
59621SOL    HW180696   4.329  11.443   4.019
59621SOL    HW280697   4.246  11.537   4.102
59622SOL     OW80698   2.421   2.953   2.286
59622SOL    HW180699   2.462   2.908   2.212
59622SOL    HW280700   2.476   3.030   2.301
59623SOL     OW80701  12.845   7.643   2.345
59623SOL    HW180702  12.825   7.674   2.257
59623SOL    HW280703  12.760   7.629   2.386
59624SOL     OW80704  13.962   9.475   1.133
59624SOL    HW180705  13.925   9.536   1.070
59624SOL    HW280706  13.897   9.405   1.142
59625SOL     OW80707  10.586   4.275   7.826
59625SOL    HW180708  10.586   4.222   7.746
59625SOL    HW280709  10.669   4.253   7.869
59626SOL     OW80710  14.081   9.711  14.071
59626SOL    HW180711  14.031   9.746  14.145
59626SOL    HW280712  14.028   9.637  14.040
59627SOL     OW80713  12.189   7.472  13.411
59627SOL    HW180714  12.194   7.546  13.471
59627SOL    HW280715  12.104   7.483  13.366
59628SOL     OW80716   1.641  11.889  14.222
59628SOL    HW180717   1.680  11.858  14.140
59628SOL    HW280718   1.549  11.905  14.200
59629SOL     OW80719   3.000   0.694   8.306
59629SOL    HW180720   2.953   0.773   8.335
59629SOL    HW280721   2.934   0.625   8.310
59630SOL     OW80722   5.205   6.223  10.284
59630SOL    HW180723   5.137   6.201  10.347
59630SOL    HW280724   5.281   6.170  10.310
59631SOL     OW80725   2.376  13.946   8.894
59631SOL    HW180726   2.447  13.886   8.872
59631SOL    HW280727   2.307  13.927   8.830
59632SOL     OW80728  10.313   6.620   0.301
59632SOL    HW180729  10.369   6.690   0.268
59632SOL    HW280730  10.248   6.665   0.355
59633SOL     OW80731   2.984   6.453   4.552
59633SOL    HW180732   3.069   6.485   4.522
59633SOL    HW280733   2.950   6.404   4.478
59634SOL     OW80734  11.133   5.095  10.994
59634SOL    HW180735  11.069   5.138  11.050
59634SOL    HW280736  11.081   5.058  10.922
59635SOL     OW80737   1.173  11.735   4.851
59635SOL    HW180738   1.104  11.768   4.794
59635SOL    HW280739   1.224  11.677   4.795
59636SOL     OW80740  12.775  13.211  14.796
59636SOL    HW180741  12.864  13.245  14.804
59636SOL    HW280742  12.784  13.126  14.755
59637SOL     OW80743   5.195   6.044  14.836
59637SOL    HW180744   5.190   6.083  14.749
59637SOL    HW280745   5.277   5.993  14.835
59638SOL     OW80746   1.276  11.096   0.968
59638SOL    HW180747   1.323  11.097   0.885
59638SOL    HW280748   1.293  11.009   1.005
59639SOL     OW80749   2.263  10.866   4.903
59639SOL    HW180750   2.284  10.959   4.916
59639SOL    HW280751   2.201  10.846   4.973
59640SOL     OW80752   7.664  13.010  12.153
59640SOL    HW180753   7.606  13.020  12.077
59640SOL    HW280754   7.625  13.066  12.220
59641SOL     OW80755   6.052  12.794  13.703
59641SOL    HW180756   5.990  12.857  13.666
59641SOL    HW280757   6.100  12.843  13.770
59642SOL     OW80758  13.869  13.644   1.848
59642SOL    HW180759  13.943  13.698   1.818
59642SOL    HW280760  13.854  13.673   1.938
59643SOL     OW80761   2.563  11.426   3.858
59643SOL    HW180762   2.611  11.399   3.779
59643SOL    HW280763   2.508  11.498   3.828
59644SOL     OW80764   1.276   6.465   7.443
59644SOL    HW180765   1.315   6.419   7.517
59644SOL    HW280766   1.231   6.540   7.482
59645SOL     OW80767   1.824   9.109   7.619
59645SOL    HW180768   1.782   9.051   7.683
59645SOL    HW280769   1.889   9.054   7.576
59646SOL     OW80770   1.822   5.376   2.525
59646SOL    HW180771   1.893   5.412   2.471
59646SOL    HW280772   1.864   5.305   2.575
59647SOL     OW80773   3.073   1.619  13.278
59647SOL    HW180774   3.163   1.587  13.279
59647SOL    HW280775   3.080   1.712  13.301
59648SOL     OW80776   1.209  14.798   8.977
59648SOL    HW180777   1.193  14.749   9.058
59648SOL    HW280778   1.221  14.730   8.910
59649SOL     OW80779   3.139  12.201   7.356
59649SOL    HW180780   3.127  12.258   7.280
59649SOL    HW280781   3.065  12.141   7.352
59650SOL     OW80782   2.206   8.359   2.421
59650SOL    HW180783   2.248   8.276   2.445
59650SOL    HW280784   2.262   8.426   2.461
59651SOL     OW80785   5.361  13.625   3.195
59651SOL    HW180786   5.400  13.605   3.280
59651SOL    HW280787   5.267  13.614   3.209
59652SOL     OW80788  14.691   3.331  10.788
59652SOL    HW180789  14.699   3.246  10.830
59652SOL    HW280790  14.721   3.394  10.853
59653SOL     OW80791   1.443   7.771   2.172
59653SOL    HW180792   1.373   7.707   2.181
59653SOL    HW280793   1.399   7.851   2.143
59654SOL     OW80794   2.127   0.123   9.414
59654SOL    HW180795   2.209   0.095   9.456
59654SOL    HW280796   2.156   0.177   9.340
59655SOL     OW80797   9.278   7.897   5.558
59655SOL    HW180798   9.327   7.943   5.490
59655SOL    HW280799   9.285   7.953   5.635
59656SOL     OW80800   2.260   1.956   7.422
59656SOL    HW180801   2.229   1.915   7.341
59656SOL    HW280802   2.180   1.988   7.464
59657SOL     OW80803   7.398   4.546   0.100
59657SOL    HW180804   7.440   4.469   0.138
59657SOL    HW280805   7.421   4.618   0.159
59658SOL     OW80806  13.135   5.384   3.572
59658SOL    HW180807  13.191   5.308   3.557
59658SOL    HW280808  13.196   5.454   3.598
59659SOL     OW80809   9.429   9.433  11.203
59659SOL    HW180810   9.342   9.447  11.166
59659SOL    HW280811   9.463   9.357  11.156
59660SOL     OW80812  12.386   3.224  10.547
59660SOL    HW180813  12.365   3.293  10.610
59660SOL    HW280814  12.331   3.150  10.572
59661SOL     OW80815   7.108   4.972   9.687
59661SOL    HW180816   7.123   5.008   9.774
59661SOL    HW280817   7.013   4.971   9.677
59662SOL     OW80818  14.760   3.383   8.483
59662SOL    HW180819  14.747   3.445   8.556
59662SOL    HW280820  14.690   3.404   8.422
59663SOL     OW80821   3.152   2.399   8.363
59663SOL    HW180822   3.101   2.321   8.338
59663SOL    HW280823   3.087   2.470   8.364
59664SOL     OW80824   4.826  10.789   6.651
59664SOL    HW180825   4.801  10.817   6.739
59664SOL    HW280826   4.873  10.706   6.666
59665SOL     OW80827   7.864  14.743  11.122
59665SOL    HW180828   7.948  14.745  11.167
59665SOL    HW280829   7.885  14.755  11.030
59666SOL     OW80830  13.270  13.024   9.037
59666SOL    HW180831  13.316  13.067   8.965
59666SOL    HW280832  13.229  12.948   8.998
59667SOL     OW80833   6.758  13.628   4.494
59667SOL    HW180834   6.794  13.600   4.578
59667SOL    HW280835   6.663  13.628   4.507
59668SOL     OW80836   0.569   4.216   3.571
59668SOL    HW180837   0.547   4.131   3.609
59668SOL    HW280838   0.625   4.257   3.637
59669SOL     OW80839  11.930   9.328  10.946
59669SOL    HW180840  11.950   9.395  10.880
59669SOL    HW280841  11.913   9.249  10.896
59670SOL     OW80842   5.397   8.663   3.443
59670SOL    HW180843   5.363   8.634   3.528
59670SOL    HW280844   5.474   8.608   3.429
59671SOL     OW80845   7.248   8.819   3.174
59671SOL    HW180846   7.178   8.809   3.109
59671SOL    HW280847   7.210   8.786   3.255
59672SOL     OW80848  13.763   6.248   8.197
59672SOL    HW180849  13.750   6.259   8.103
59672SOL    HW280850  13.826   6.177   8.205
59673SOL     OW80851  11.860  14.653  11.352
59673SOL    HW180852  11.841  14.560  11.364
59673SOL    HW280853  11.870  14.663  11.258
59674SOL     OW80854   3.576   2.910  10.716
59674SOL    HW180855   3.513   2.851  10.758
59674SOL    HW280856   3.647   2.852  10.688
59675SOL     OW80857   2.063   3.853   4.520
59675SOL    HW180858   2.034   3.809   4.440
59675SOL    HW280859   2.119   3.925   4.489
59676SOL     OW80860  14.361  14.049  11.450
59676SOL    HW180861  14.435  14.003  11.409
59676SOL    HW280862  14.389  14.064  11.540
59677SOL     OW80863   7.917   2.707  11.543
59677SOL    HW180864   7.911   2.708  11.639
59677SOL    HW280865   7.934   2.616  11.521
59678SOL     OW80866   8.835  10.621   7.826
59678SOL    HW180867   8.836  10.576   7.742
59678SOL    HW280868   8.747  10.655   7.834
59679SOL     OW80869  13.470  13.670   8.082
59679SOL    HW180870  13.495  13.623   8.161
59679SOL    HW280871  13.535  13.740   8.074
59680SOL     OW80872   6.257   7.108  13.026
59680SOL    HW180873   6.213   7.135  13.106
59680SOL    HW280874   6.215   7.160  12.957
59681SOL     OW80875   9.588   6.708   1.862
59681SOL    HW180876   9.612   6.705   1.769
59681SOL    HW280877   9.494   6.690   1.863
59682SOL     OW80878  12.429   8.182   1.816
59682SOL    HW180879  12.451   8.093   1.845
59682SOL    HW280880  12.450   8.183   1.723
59683SOL     OW80881   5.434   8.253  11.956
59683SOL    HW180882   5.520   8.250  11.913
59683SOL    HW280883   5.441   8.189  12.027
59684SOL     OW80884   1.044  10.785  10.522
59684SOL    HW180885   1.098  10.805  10.446
59684SOL    HW280886   1.052  10.863  10.578
59685SOL     OW80887  12.688   6.888   4.766
59685SOL    HW180888  12.599   6.883   4.799
59685SOL    HW280889  12.679   6.921   4.676
59686SOL     OW80890   4.379   1.770   2.993
59686SOL    HW180891   4.328   1.750   3.072
59686SOL    HW280892   4.325   1.833   2.945
59687SOL     OW80893   9.836  11.898   3.083
59687SOL    HW180894   9.820  11.891   2.989
59687SOL    HW280895   9.763  11.951   3.117
59688SOL     OW80896  14.778  12.285  13.088
59688SOL    HW180897  14.717  12.341  13.040
59688SOL    HW280898  14.733  12.201  13.095
59689SOL     OW80899  13.877  14.817   8.264
59689SOL    HW180900  13.910  14.823   8.353
59689SOL    HW280901  13.949  14.779   8.214
59690SOL     OW80902   8.387   2.480   9.173
59690SOL    HW180903   8.388   2.521   9.260
59690SOL    HW280904   8.418   2.391   9.189
59691SOL     OW80905  12.617  13.059   2.689
59691SOL    HW180906  12.689  13.097   2.739
59691SOL    HW280907  12.542  13.115   2.706
59692SOL     OW80908   1.827   3.217  14.579
59692SOL    HW180909   1.784   3.246  14.659
59692SOL    HW280910   1.789   3.131  14.561
59693SOL     OW80911   1.866  14.499   4.036
59693SOL    HW180912   1.797  14.546   4.083
59693SOL    HW280913   1.856  14.408   4.064
59694SOL     OW80914  12.133   0.301   6.889
59694SOL    HW180915  12.173   0.240   6.827
59694SOL    HW280916  12.136   0.386   6.844
59695SOL     OW80917   8.800  14.280   9.141
59695SOL    HW180918   8.728  14.307   9.199
59695SOL    HW280919   8.789  14.334   9.063
59696SOL     OW80920   5.870   2.424   8.672
59696SOL    HW180921   5.877   2.497   8.734
59696SOL    HW280922   5.958   2.418   8.634
59697SOL     OW80923   3.143   2.580   2.965
59697SOL    HW180924   3.153   2.675   2.957
59697SOL    HW280925   3.221   2.551   3.012
59698SOL     OW80926  10.522  10.711   6.004
59698SOL    HW180927  10.605  10.679   6.039
59698SOL    HW280928  10.514  10.800   6.039
59699SOL     OW80929   3.722   5.212   5.065
59699SOL    HW180930   3.729   5.307   5.072
59699SOL    HW280931   3.685   5.197   4.978
59700SOL     OW80932   1.901   4.474   5.489
59700SOL    HW180933   1.982   4.434   5.520
59700SOL    HW280934   1.848   4.400   5.459
59701SOL     OW80935  13.331  12.755   4.509
59701SOL    HW180936  13.299  12.666   4.524
59701SOL    HW280937  13.314  12.771   4.416
59702SOL     OW80938  10.137   2.521  13.774
59702SOL    HW180939  10.067   2.525  13.708
59702SOL    HW280940  10.211   2.481  13.729
59703SOL     OW80941   9.692   4.033  12.708
59703SOL    HW180942   9.644   4.097  12.655
59703SOL    HW280943   9.634   3.956  12.710
59704SOL     OW80944  10.950   5.540  13.856
59704SOL    HW180945  10.998   5.458  13.855
59704SOL    HW280946  10.858   5.515  13.848
59705SOL     OW80947   2.941   8.723   0.665
59705SOL    HW180948   2.878   8.778   0.712
59705SOL    HW280949   2.905   8.634   0.674
59706SOL     OW80950   1.404   7.437  12.147
59706SOL    HW180951   1.410   7.499  12.073
59706SOL    HW280952   1.378   7.491  12.221
59707SOL     OW80953   5.572   2.114   6.306
59707SOL    HW180954   5.547   2.088   6.394
59707SOL    HW280955   5.535   2.202   6.295
59708SOL     OW80956  12.540   4.845   2.300
59708SOL    HW180957  12.539   4.827   2.206
59708SOL    HW280958  12.448   4.858   2.323
59709SOL     OW80959  10.388  12.449   6.252
59709SOL    HW180960  10.400  12.387   6.323
59709SOL    HW280961  10.476  12.470   6.222
59710SOL     OW80962   7.560   7.141  11.961
59710SOL    HW180963   7.519   7.058  11.936
59710SOL    HW280964   7.652   7.129  11.940
59711SOL     OW80965   3.749   5.945  13.601
59711SOL    HW180966   3.838   5.910  13.603
59711SOL    HW280967   3.760   6.040  13.606
59712SOL     OW80968   9.552   0.251   7.333
59712SOL    HW180969   9.621   0.271   7.396
59712SOL    HW280970   9.537   0.157   7.344
59713SOL     OW80971   4.548   2.119   2.146
59713SOL    HW180972   4.614   2.064   2.187
59713SOL    HW280973   4.588   2.205   2.139
59714SOL     OW80974   2.892   5.897  11.394
59714SOL    HW180975   2.915   5.912  11.485
59714SOL    HW280976   2.862   5.982  11.362
59715SOL     OW80977  10.057   9.105   5.821
59715SOL    HW180978  10.027   9.183   5.774
59715SOL    HW280979   9.984   9.044   5.813
59716SOL     OW80980   8.299   4.332  13.123
59716SOL    HW180981   8.270   4.421  13.146
59716SOL    HW280982   8.232   4.275  13.160
59717SOL     OW80983   8.457   0.518  12.065
59717SOL    HW180984   8.493   0.607  12.076
59717SOL    HW280985   8.398   0.526  11.991
59718SOL     OW80986  14.301  10.683   8.163
59718SOL    HW180987  14.376  10.729   8.200
59718SOL    HW280988  14.241  10.752   8.135
59719SOL     OW80989   9.248   0.391  13.918
59719SOL    HW180990   9.293   0.344  13.848
59719SOL    HW280991   9.307   0.385  13.993
59720SOL     OW80992   0.883   2.519  10.170
59720SOL    HW180993   0.793   2.501  10.196
59720SOL    HW280994   0.917   2.574  10.241
59721SOL     OW80995  10.637   2.124   2.832
59721SOL    HW180996  10.596   2.122   2.918
59721SOL    HW280997  10.619   2.037   2.795
59722SOL     OW80998   1.156   2.683  13.040
59722SOL    HW180999   1.157   2.671  12.946
59722SOL    HW281000   1.069   2.653  13.067
59723SOL     OW81001  14.638   1.263  14.161
59723SOL    HW181002  14.603   1.343  14.121
59723SOL    HW281003  14.733   1.270  14.148
59724SOL     OW81004  11.366   8.682  10.963
59724SOL    HW181005  11.398   8.743  11.029
59724SOL    HW281006  11.431   8.612  10.962
59725SOL     OW81007   5.262  14.795   0.280
59725SOL    HW181008   5.235  14.730   0.345
59725SOL    HW281009   5.350  14.821   0.307
59726SOL     OW81010   1.423  11.584   8.432
59726SOL    HW181011   1.502  11.564   8.482
59726SOL    HW281012   1.405  11.676   8.452
59727SOL     OW81013   3.322  13.892   3.037
59727SOL    HW181014   3.240  13.932   3.062
59727SOL    HW281015   3.354  13.946   2.965
59728SOL     OW81016  14.037   9.126   1.387
59728SOL    HW181017  14.058   9.109   1.479
59728SOL    HW281018  14.068   9.215   1.370
59729SOL     OW81019   4.777  11.974   1.444
59729SOL    HW181020   4.811  12.050   1.491
59729SOL    HW281021   4.751  11.913   1.512
59730SOL     OW81022  13.345   9.771   1.379
59730SOL    HW181023  13.302   9.688   1.400
59730SOL    HW281024  13.438   9.748   1.368
59731SOL     OW81025  11.745   4.416   4.085
59731SOL    HW181026  11.804   4.480   4.046
59731SOL    HW281027  11.799   4.338   4.098
59732SOL     OW81028   6.704  11.085   4.310
59732SOL    HW181029   6.634  11.028   4.339
59732SOL    HW281030   6.772  11.026   4.278
59733SOL     OW81031   3.120  13.046  12.944
59733SOL    HW181032   3.085  13.134  12.956
59733SOL    HW281033   3.185  13.055  12.874
59734SOL     OW81034   7.558  13.237   6.459
59734SOL    HW181035   7.527  13.167   6.401
59734SOL    HW281036   7.511  13.315   6.430
59735SOL     OW81037  14.274  10.362  12.423
59735SOL    HW181038  14.215  10.345  12.496
59735SOL    HW281039  14.237  10.439  12.379
59736SOL     OW81040  10.862  14.188   9.485
59736SOL    HW181041  10.776  14.216   9.455
59736SOL    HW281042  10.883  14.249   9.556
59737SOL     OW81043  14.363   4.458   3.281
59737SOL    HW181044  14.428   4.496   3.341
59737SOL    HW281045  14.318   4.534   3.244
59738SOL     OW81046   7.257   2.153  11.128
59738SOL    HW181047   7.280   2.148  11.035
59738SOL    HW281048   7.303   2.231  11.159
59739SOL     OW81049   5.800   2.874  11.041
59739SOL    HW181050   5.799   2.953  10.987
59739SOL    HW281051   5.738   2.893  11.111
59740SOL     OW81052   0.359  13.265  10.525
59740SOL    HW181053   0.398  13.276  10.611
59740SOL    HW281054   0.309  13.346  10.511
59741SOL     OW81055   5.583   9.715   9.341
59741SOL    HW181056   5.517   9.783   9.332
59741SOL    HW281057   5.550   9.643   9.287
59742SOL     OW81058  12.384   3.978   6.813
59742SOL    HW181059  12.456   3.916   6.804
59742SOL    HW281060  12.386   4.028   6.731
59743SOL     OW81061  12.439   9.022   4.714
59743SOL    HW181062  12.498   8.948   4.728
59743SOL    HW281063  12.474   9.092   4.770
59744SOL     OW81064   2.919  14.451   6.038
59744SOL    HW181065   2.854  14.420   5.975
59744SOL    HW281066   2.871  14.456   6.121
59745SOL     OW81067  11.050  14.522   8.989
59745SOL    HW181068  11.058  14.482   9.076
59745SOL    HW281069  10.970  14.485   8.952
59746SOL     OW81070   5.623   5.585   8.810
59746SOL    HW181071   5.575   5.505   8.793
59746SOL    HW281072   5.676   5.599   8.732
59747SOL     OW81073  10.370   5.606   1.974
59747SOL    HW181074  10.413   5.615   2.059
59747SOL    HW281075  10.386   5.690   1.930
59748SOL     OW81076   2.451   3.129  12.306
59748SOL    HW181077   2.373   3.081  12.334
59748SOL    HW281078   2.439   3.217  12.342
59749SOL     OW81079   6.264   2.187  12.376
59749SOL    HW181080   6.258   2.278  12.403
59749SOL    HW281081   6.250   2.189  12.281
59750SOL     OW81082   2.021   3.244   4.328
59750SOL    HW181083   1.945   3.265   4.275
59750SOL    HW281084   1.990   3.255   4.418
59751SOL     OW81085   7.534   1.572   2.097
59751SOL    HW181086   7.549   1.507   2.029
59751SOL    HW281087   7.460   1.539   2.147
59752SOL     OW81088   0.909   1.228   6.471
59752SOL    HW181089   0.917   1.143   6.516
59752SOL    HW281090   0.841   1.274   6.520
59753SOL     OW81091   2.163   1.936   8.765
59753SOL    HW181092   2.077   1.904   8.736
59753SOL    HW281093   2.221   1.861   8.756
59754SOL     OW81094   4.977   1.383   1.615
59754SOL    HW181095   5.019   1.368   1.700
59754SOL    HW281096   4.918   1.457   1.630
59755SOL     OW81097   1.890  12.530   6.605
59755SOL    HW181098   1.831  12.467   6.646
59755SOL    HW281099   1.975  12.515   6.647
59756SOL     OW81100  13.824  14.534  12.992
59756SOL    HW181101  13.917  14.545  12.971
59756SOL    HW281102  13.791  14.624  12.998
59757SOL     OW81103  13.823   7.059   3.709
59757SOL    HW181104  13.776   6.980   3.684
59757SOL    HW281105  13.854   7.041   3.798
59758SOL     OW81106   8.032   2.743   6.144
59758SOL    HW181107   7.994   2.805   6.206
59758SOL    HW281108   7.958   2.694   6.109
59759SOL     OW81109  11.006   8.525   9.574
59759SOL    HW181110  11.092   8.508   9.535
59759SOL    HW281111  11.024   8.549   9.665
59760SOL     OW81112  12.375   2.060  14.432
59760SOL    HW181113  12.375   1.990  14.497
59760SOL    HW281114  12.445   2.036  14.371
59761SOL     OW81115  12.350   5.062   5.871
59761SOL    HW181116  12.444   5.041   5.875
59761SOL    HW281117  12.319   5.052   5.960
59762SOL     OW81118   1.575  11.518  10.399
59762SOL    HW181119   1.671  11.518  10.401
59762SOL    HW281120   1.551  11.607  10.373
59763SOL     OW81121   6.103  13.296   9.057
59763SOL    HW181122   6.120  13.226   9.119
59763SOL    HW281123   6.189  13.321   9.023
59764SOL     OW81124   4.540   0.173   2.487
59764SOL    HW181125   4.568   0.254   2.445
59764SOL    HW281126   4.553   0.105   2.421
59765SOL     OW81127  12.198   5.100   9.864
59765SOL    HW181128  12.156   5.183   9.884
59765SOL    HW281129  12.237   5.072   9.947
59766SOL     OW81130   5.957   3.375  11.741
59766SOL    HW181131   5.914   3.460  11.731
59766SOL    HW281132   5.939   3.329  11.660
59767SOL     OW81133  10.169  10.069   8.244
59767SOL    HW181134  10.086  10.026   8.228
59767SOL    HW281135  10.159  10.156   8.204
59768SOL     OW81136  13.381  10.740   9.426
59768SOL    HW181137  13.381  10.818   9.481
59768SOL    HW281138  13.334  10.767   9.347
59769SOL     OW81139   4.165  13.964   1.466
59769SOL    HW181140   4.235  13.986   1.404
59769SOL    HW281141   4.155  13.869   1.458
59770SOL     OW81142  14.192   3.858   9.170
59770SOL    HW181143  14.143   3.930   9.208
59770SOL    HW281144  14.193   3.791   9.238
59771SOL     OW81145   1.584  13.299   2.938
59771SOL    HW181146   1.648  13.232   2.915
59771SOL    HW281147   1.630  13.382   2.924
59772SOL     OW81148  10.783   1.206   4.914
59772SOL    HW181149  10.856   1.245   4.962
59772SOL    HW281150  10.731   1.163   4.981
59773SOL     OW81151   3.123   3.172  12.984
59773SOL    HW181152   3.205   3.217  13.005
59773SOL    HW281153   3.113   3.107  13.053
59774SOL     OW81154  13.358   4.896   7.273
59774SOL    HW181155  13.373   4.972   7.329
59774SOL    HW281156  13.436   4.842   7.284
59775SOL     OW81157  10.122   9.834   9.860
59775SOL    HW181158  10.158   9.755   9.898
59775SOL    HW281159  10.182   9.857   9.789
59776SOL     OW81160   7.806  10.855   8.308
59776SOL    HW181161   7.767  10.794   8.371
59776SOL    HW281162   7.772  10.941   8.334
59777SOL     OW81163   2.845  12.415   7.521
59777SOL    HW181164   2.781  12.477   7.485
59777SOL    HW281165   2.827  12.333   7.476
59778SOL     OW81166   5.895   0.237   6.406
59778SOL    HW181167   5.969   0.207   6.459
59778SOL    HW281168   5.924   0.225   6.316
59779SOL     OW81169   5.264   5.030  11.162
59779SOL    HW181170   5.202   4.979  11.111
59779SOL    HW281171   5.306   4.967  11.220
59780SOL     OW81172   9.253  13.836   6.687
59780SOL    HW181173   9.203  13.780   6.627
59780SOL    HW281174   9.205  13.919   6.686
59781SOL     OW81175   1.055  14.065  12.645
59781SOL    HW181176   1.015  14.125  12.709
59781SOL    HW281177   1.148  14.066  12.667
59782SOL     OW81178   1.751  10.261   4.829
59782SOL    HW181179   1.782  10.261   4.920
59782SOL    HW281180   1.830  10.248   4.777
59783SOL     OW81181   8.598  13.632  13.787
59783SOL    HW181182   8.516  13.584  13.784
59783SOL    HW281183   8.589  13.700  13.720
59784SOL     OW81184   6.378   6.996  13.712
59784SOL    HW181185   6.332   6.934  13.655
59784SOL    HW281186   6.470   6.988  13.688
59785SOL     OW81187  14.820  12.181  14.173
59785SOL    HW181188   0.017  12.163  14.118
59785SOL    HW281189  14.844  12.147  14.260
59786SOL     OW81190  13.743   2.515  12.980
59786SOL    HW181191  13.701   2.504  12.895
59786SOL    HW281192  13.809   2.584  12.965
59787SOL     OW81193   4.255   0.479   4.839
59787SOL    HW181194   4.289   0.529   4.764
59787SOL    HW281195   4.168   0.516   4.854
59788SOL     OW81196   1.246   6.170  11.696
59788SOL    HW181197   1.261   6.095  11.754
59788SOL    HW281198   1.238   6.131  11.609
59789SOL     OW81199  14.753   5.248   1.960
59789SOL    HW181200  14.733   5.304   1.886
59789SOL    HW281201  14.844   5.268   1.982
59790SOL     OW81202   8.607   1.491   5.651
59790SOL    HW181203   8.643   1.418   5.703
59790SOL    HW281204   8.681   1.523   5.600
59791SOL     OW81205   1.064  12.379   6.771
59791SOL    HW181206   0.978  12.374   6.812
59791SOL    HW281207   1.109  12.450   6.818
59792SOL     OW81208   5.863  10.258   1.391
59792SOL    HW181209   5.840  10.340   1.348
59792SOL    HW281210   5.823  10.190   1.337
59793SOL     OW81211   3.818   6.185   8.105
59793SOL    HW181212   3.823   6.135   8.187
59793SOL    HW281213   3.886   6.252   8.113
59794SOL     OW81214   8.120   7.602   9.517
59794SOL    HW181215   8.114   7.640   9.429
59794SOL    HW281216   8.209   7.623   9.546
59795SOL     OW81217   8.460   0.736   4.471
59795SOL    HW181218   8.484   0.687   4.550
59795SOL    HW281219   8.482   0.827   4.492
59796SOL     OW81220  10.055   7.277   9.997
59796SOL    HW181221  10.116   7.321   9.937
59796SOL    HW281222  10.023   7.348  10.054
59797SOL     OW81223  13.558   3.581   8.972
59797SOL    HW181224  13.565   3.676   8.962
59797SOL    HW281225  13.564   3.547   8.883
59798SOL     OW81226  12.638   2.800  11.467
59798SOL    HW181227  12.714   2.746  11.489
59798SOL    HW281228  12.575   2.782  11.536
59799SOL     OW81229  13.971  12.490   4.252
59799SOL    HW181230  14.064  12.487   4.274
59799SOL    HW281231  13.966  12.446   4.167
59800SOL     OW81232  10.125  10.025  13.462
59800SOL    HW181233  10.081   9.953  13.508
59800SOL    HW281234  10.213  10.027  13.501
59801SOL     OW81235  14.109   0.107   2.668
59801SOL    HW181236  14.110   0.142   2.579
59801SOL    HW281237  14.017   0.110   2.694
59802SOL     OW81238  12.734   7.942  13.463
59802SOL    HW181239  12.708   7.956  13.554
59802SOL    HW281240  12.715   7.850  13.445
59803SOL     OW81241  13.393   9.991   8.684
59803SOL    HW181242  13.323   9.926   8.685
59803SOL    HW281243  13.457   9.958   8.746
59804SOL     OW81244   0.600   1.754   7.903
59804SOL    HW181245   0.688   1.790   7.909
59804SOL    HW281246   0.590   1.699   7.980
59805SOL     OW81247   5.424   8.285   4.772
59805SOL    HW181248   5.518   8.288   4.751
59805SOL    HW281249   5.398   8.377   4.779
59806SOL     OW81250   2.362   3.486  14.760
59806SOL    HW181251   2.416   3.512  14.834
59806SOL    HW281252   2.273   3.482  14.795
59807SOL     OW81253   4.198  13.531  14.872
59807SOL    HW181254   4.283  13.497  14.844
59807SOL    HW281255   4.141  13.454  14.874
59808SOL     OW81256   8.252   6.455   0.402
59808SOL    HW181257   8.211   6.515   0.464
59808SOL    HW281258   8.308   6.510   0.347
59809SOL     OW81259   7.115   4.761  10.381
59809SOL    HW181260   7.186   4.776  10.443
59809SOL    HW281261   7.157   4.764  10.295
59810SOL     OW81262   4.833  13.725  10.305
59810SOL    HW181263   4.864  13.734  10.395
59810SOL    HW281264   4.761  13.788  10.298
59811SOL     OW81265  14.398  10.323   9.029
59811SOL    HW181266  14.401  10.365   9.114
59811SOL    HW281267  14.413  10.394   8.966
59812SOL     OW81268   5.058   8.491  12.182
59812SOL    HW181269   5.146   8.487  12.144
59812SOL    HW281270   5.072   8.494  12.276
59813SOL     OW81271   5.220   2.649  11.699
59813SOL    HW181272   5.302   2.658  11.747
59813SOL    HW281273   5.226   2.564  11.655
59814SOL     OW81274  14.249   7.569  13.579
59814SOL    HW181275  14.240   7.664  13.567
59814SOL    HW281276  14.343   7.554  13.576
59815SOL     OW81277   7.832   3.489  10.616
59815SOL    HW181278   7.895   3.553  10.583
59815SOL    HW281279   7.867   3.404  10.588
59816SOL     OW81280   6.272   9.428  13.459
59816SOL    HW181281   6.209   9.464  13.521
59816SOL    HW281282   6.272   9.490  13.386
59817SOL     OW81283   9.358   6.993  12.942
59817SOL    HW181284   9.414   7.064  12.972
59817SOL    HW281285   9.413   6.915  12.945
59818SOL     OW81286   4.781   1.576   1.669
59818SOL    HW181287   4.708   1.533   1.713
59818SOL    HW281288   4.795   1.656   1.720
59819SOL     OW81289   7.324   2.793   0.941
59819SOL    HW181290   7.374   2.733   0.997
59819SOL    HW281291   7.365   2.878   0.955
59820SOL     OW81292  14.578  13.837   8.682
59820SOL    HW181293  14.549  13.926   8.664
59820SOL    HW281294  14.558  13.824   8.775
59821SOL     OW81295   0.695   7.502   1.926
59821SOL    HW181296   0.705   7.576   1.866
59821SOL    HW281297   0.611   7.517   1.969
59822SOL     OW81298   6.301  11.971   8.022
59822SOL    HW181299   6.352  11.895   7.994
59822SOL    HW281300   6.356  12.046   8.000
59823SOL     OW81301   8.810   6.409   4.001
59823SOL    HW181302   8.780   6.329   3.958
59823SOL    HW281303   8.734   6.441   4.050
59824SOL     OW81304   6.304  12.623   9.933
59824SOL    HW181305   6.288  12.608   9.840
59824SOL    HW281306   6.391  12.663   9.936
59825SOL     OW81307  14.163   7.644   9.955
59825SOL    HW181308  14.087   7.604   9.914
59825SOL    HW281309  14.167   7.604  10.042
59826SOL     OW81310   7.568   7.196   8.535
59826SOL    HW181311   7.575   7.148   8.617
59826SOL    HW281312   7.506   7.267   8.553
59827SOL     OW81313   3.880  12.379  13.862
59827SOL    HW181314   3.946  12.440  13.828
59827SOL    HW281315   3.862  12.410  13.950
59828SOL     OW81316   5.177   7.276   1.805
59828SOL    HW181317   5.131   7.195   1.827
59828SOL    HW281318   5.196   7.316   1.890
59829SOL     OW81319   5.864   8.606   4.490
59829SOL    HW181320   5.955   8.576   4.480
59829SOL    HW281321   5.866   8.663   4.567
59830SOL     OW81322   9.435   4.887   2.552
59830SOL    HW181323   9.414   4.944   2.478
59830SOL    HW281324   9.499   4.825   2.518
59831SOL     OW81325   9.817  12.172   7.015
59831SOL    HW181326   9.756  12.240   7.043
59831SOL    HW281327   9.762  12.096   6.996
59832SOL     OW81328   4.867   5.152   6.486
59832SOL    HW181329   4.925   5.142   6.561
59832SOL    HW281330   4.792   5.095   6.505
59833SOL     OW81331  10.653   7.062   6.649
59833SOL    HW181332  10.652   7.005   6.726
59833SOL    HW281333  10.580   7.123   6.663
59834SOL     OW81334  13.299   4.744  11.281
59834SOL    HW181335  13.250   4.809  11.332
59834SOL    HW281336  13.317   4.674  11.344
59835SOL     OW81337   3.953  14.087   8.901
59835SOL    HW181338   3.968  14.174   8.939
59835SOL    HW281339   3.861  14.069   8.919
59836SOL     OW81340   5.403   9.923  13.801
59836SOL    HW181341   5.391   9.835  13.838
59836SOL    HW281342   5.314   9.959  13.797
59837SOL     OW81343   6.544   2.278  10.851
59837SOL    HW181344   6.580   2.295  10.764
59837SOL    HW281345   6.535   2.365  10.890
59838SOL     OW81346   4.076   9.777   5.140
59838SOL    HW181347   4.072   9.862   5.097
59838SOL    HW281348   3.988   9.762   5.173
59839SOL     OW81349  11.690  12.864   2.464
59839SOL    HW181350  11.619  12.817   2.510
59839SOL    HW281351  11.770  12.826   2.500
59840SOL     OW81352  14.099  12.959   0.264
59840SOL    HW181353  14.042  12.915   0.201
59840SOL    HW281354  14.079  12.918   0.348
59841SOL     OW81355   1.974   1.487   1.521
59841SOL    HW181356   1.904   1.551   1.514
59841SOL    HW281357   2.054   1.537   1.504
59842SOL     OW81358  10.516   8.649  10.503
59842SOL    HW181359  10.519   8.645  10.598
59842SOL    HW281360  10.422   8.645  10.482
59843SOL     OW81361   3.821  11.876   4.680
59843SOL    HW181362   3.856  11.843   4.763
59843SOL    HW281363   3.798  11.798   4.630
59844SOL     OW81364   8.236   8.833   4.633
59844SOL    HW181365   8.152   8.806   4.669
59844SOL    HW281366   8.281   8.878   4.705
59845SOL     OW81367   8.615   6.169  11.175
59845SOL    HW181368   8.705   6.201  11.172
59845SOL    HW281369   8.613   6.109  11.249
59846SOL     OW81370   2.890   5.461  12.521
59846SOL    HW181371   2.848   5.460  12.607
59846SOL    HW281372   2.921   5.372  12.507
59847SOL     OW81373   9.695  12.448   3.169
59847SOL    HW181374   9.635  12.386   3.128
59847SOL    HW281375   9.655  12.469   3.253
59848SOL     OW81376   3.540  12.105  12.839
59848SOL    HW181377   3.629  12.077  12.858
59848SOL    HW281378   3.550  12.182  12.783
59849SOL     OW81379  11.640   7.460   6.022
59849SOL    HW181380  11.664   7.546   6.057
59849SOL    HW281381  11.721   7.427   5.984
59850SOL     OW81382   3.853   0.631   2.130
59850SOL    HW181383   3.852   0.610   2.037
59850SOL    HW281384   3.847   0.545   2.173
59851SOL     OW81385   7.320   4.559   6.546
59851SOL    HW181386   7.274   4.626   6.496
59851SOL    HW281387   7.347   4.603   6.626
59852SOL     OW81388   0.207  12.155  11.870
59852SOL    HW181389   0.121  12.117  11.852
59852SOL    HW281390   0.239  12.107  11.946
59853SOL     OW81391   1.778   6.337   5.446
59853SOL    HW181392   1.800   6.316   5.537
59853SOL    HW281393   1.727   6.417   5.451
59854SOL     OW81394   9.817  10.178   0.539
59854SOL    HW181395   9.786  10.095   0.503
59854SOL    HW281396   9.748  10.205   0.600
59855SOL     OW81397   0.573  14.381  12.284
59855SOL    HW181398   0.514  14.389  12.209
59855SOL    HW281399   0.661  14.389  12.246
59856SOL     OW81400  10.060   5.764   0.398
59856SOL    HW181401  10.071   5.767   0.303
59856SOL    HW281402  10.131   5.818   0.432
59857SOL     OW81403   3.422   6.605   6.044
59857SOL    HW181404   3.414   6.570   6.133
59857SOL    HW281405   3.389   6.536   5.988
59858SOL     OW81406   1.676   0.393   4.449
59858SOL    HW181407   1.711   0.481   4.463
59858SOL    HW281408   1.613   0.381   4.520
59859SOL     OW81409   3.923   4.414   3.688
59859SOL    HW181410   4.010   4.432   3.651
59859SOL    HW281411   3.901   4.493   3.737
59860SOL     OW81412   5.863   3.310   8.246
59860SOL    HW181413   5.850   3.375   8.315
59860SOL    HW281414   5.958   3.303   8.237
59861SOL     OW81415   4.892   8.963   7.452
59861SOL    HW181416   4.885   8.903   7.377
59861SOL    HW281417   4.949   9.033   7.421
59862SOL     OW81418   4.051   5.120  13.790
59862SOL    HW181419   4.044   5.104  13.696
59862SOL    HW281420   3.963   5.105  13.824
59863SOL     OW81421   6.090  10.414  10.499
59863SOL    HW181422   6.104  10.321  10.479
59863SOL    HW281423   6.159  10.436  10.561
59864SOL     OW81424  14.296   7.877   1.481
59864SOL    HW181425  14.283   7.808   1.546
59864SOL    HW281426  14.340   7.947   1.529
59865SOL     OW81427  11.878   6.557  11.382
59865SOL    HW181428  11.862   6.578  11.474
59865SOL    HW281429  11.970   6.531  11.378
59866SOL     OW81430  10.771   4.702  14.510
59866SOL    HW181431  10.717   4.632  14.545
59866SOL    HW281432  10.829   4.726  14.582
59867SOL     OW81433   6.597  14.341   4.178
59867SOL    HW181434   6.517  14.296   4.205
59867SOL    HW281435   6.626  14.293   4.100
59868SOL     OW81436   8.283  11.989  12.277
59868SOL    HW181437   8.320  11.978  12.190
59868SOL    HW281438   8.188  11.990  12.263
59869SOL     OW81439   5.883   8.665   4.137
59869SOL    HW181440   5.902   8.682   4.229
59869SOL    HW281441   5.844   8.577   4.136
59870SOL     OW81442   9.247   7.743  13.792
59870SOL    HW181443   9.219   7.823  13.748
59870SOL    HW281444   9.318   7.709  13.737
59871SOL     OW81445   7.756   1.556   5.721
59871SOL    HW181446   7.680   1.500   5.705
59871SOL    HW281447   7.815   1.539   5.647
59872SOL     OW81448   5.757  13.450   1.191
59872SOL    HW181449   5.853  13.460   1.191
59872SOL    HW281450   5.737  13.410   1.276
59873SOL     OW81451   2.186  12.973   1.033
59873SOL    HW181452   2.173  12.996   0.941
59873SOL    HW281453   2.278  12.991   1.050
59874SOL     OW81454   4.495  12.613  10.323
59874SOL    HW181455   4.412  12.581  10.358
59874SOL    HW281456   4.552  12.620  10.400
59875SOL     OW81457   1.235   5.988  10.434
59875SOL    HW181458   1.141   5.999  10.447
59875SOL    HW281459   1.258   6.054  10.368
59876SOL     OW81460   1.762   8.151   4.717
59876SOL    HW181461   1.759   8.055   4.717
59876SOL    HW281462   1.830   8.172   4.782
59877SOL     OW81463   5.655   7.852   6.312
59877SOL    HW181464   5.673   7.775   6.367
59877SOL    HW281465   5.561   7.865   6.320
59878SOL     OW81466  10.546  13.449   4.168
59878SOL    HW181467  10.625  13.432   4.219
59878SOL    HW281468  10.474  13.416   4.222
59879SOL     OW81469  10.544   1.847   0.143
59879SOL    HW181470  10.474   1.902   0.108
59879SOL    HW281471  10.622   1.875   0.094
59880SOL     OW81472   9.122   6.923  13.798
59880SOL    HW181473   9.197   6.889  13.848
59880SOL    HW281474   9.073   6.975  13.862
59881SOL     OW81475  13.829   7.092  12.160
59881SOL    HW181476  13.911   7.073  12.115
59881SOL    HW281477  13.762   7.090  12.091
59882SOL     OW81478   8.240   3.616  14.049
59882SOL    HW181479   8.184   3.688  14.022
59882SOL    HW281480   8.194   3.576  14.123
59883SOL     OW81481   9.650  11.082   8.249
59883SOL    HW181482   9.593  11.005   8.245
59883SOL    HW281483   9.737  11.047   8.268
59884SOL     OW81484   8.960   9.856   4.948
59884SOL    HW181485   8.943   9.869   4.855
59884SOL    HW281486   8.906   9.781   4.972
59885SOL     OW81487   4.984   6.409   3.311
59885SOL    HW181488   4.897   6.442   3.333
59885SOL    HW281489   5.042   6.483   3.330
59886SOL     OW81490   6.643  11.564   2.393
59886SOL    HW181491   6.670  11.654   2.378
59886SOL    HW281492   6.657  11.550   2.487
59887SOL     OW81493   1.441  11.885   3.681
59887SOL    HW181494   1.429  11.958   3.742
59887SOL    HW281495   1.354  11.847   3.670
59888SOL     OW81496   0.395   2.305   2.141
59888SOL    HW181497   0.347   2.256   2.074
59888SOL    HW281498   0.393   2.249   2.219
59889SOL     OW81499  12.808   6.058  10.506
59889SOL    HW181500  12.841   6.147  10.496
59889SOL    HW281501  12.885   6.006  10.527
59890SOL     OW81502   9.312  12.277  11.769
59890SOL    HW181503   9.247  12.343  11.793
59890SOL    HW281504   9.390  12.300  11.819
59891SOL     OW81505  10.972   5.739   8.189
59891SOL    HW181506  10.886   5.714   8.154
59891SOL    HW281507  11.015   5.783   8.116
59892SOL     OW81508   0.412   9.025  13.102
59892SOL    HW181509   0.329   9.012  13.148
59892SOL    HW281510   0.479   8.991  13.162
59893SOL     OW81511   5.530   1.409  10.523
59893SOL    HW181512   5.603   1.373  10.574
59893SOL    HW281513   5.553   1.392  10.432
59894SOL     OW81514   5.470   0.856   9.833
59894SOL    HW181515   5.531   0.923   9.803
59894SOL    HW281516   5.464   0.871   9.928
59895SOL     OW81517   6.776   7.597   0.818
59895SOL    HW181518   6.846   7.537   0.845
59895SOL    HW281519   6.751   7.567   0.731
59896SOL     OW81520  10.717  11.640   7.691
59896SOL    HW181521  10.713  11.732   7.716
59896SOL    HW281522  10.628  11.619   7.662
59897SOL     OW81523   4.460  11.214   1.842
59897SOL    HW181524   4.552  11.189   1.835
59897SOL    HW281525   4.440  11.204   1.935
59898SOL     OW81526   7.387   0.738   4.199
59898SOL    HW181527   7.473   0.724   4.238
59898SOL    HW281528   7.364   0.829   4.220
59899SOL     OW81529   9.914   0.339   4.521
59899SOL    HW181530   9.920   0.345   4.616
59899SOL    HW281531   9.865   0.259   4.504
59900SOL     OW81532   7.129  14.434   5.292
59900SOL    HW181533   7.059  14.499   5.293
59900SOL    HW281534   7.097  14.365   5.233
59901SOL     OW81535  11.792  10.997  10.615
59901SOL    HW181536  11.835  11.081  10.598
59901SOL    HW281537  11.700  11.013  10.597
59902SOL     OW81538  13.723  14.758   1.317
59902SOL    HW181539  13.667  14.835   1.315
59902SOL    HW281540  13.667  14.688   1.351
59903SOL     OW81541  13.589   3.423  13.785
59903SOL    HW181542  13.531   3.407  13.859
59903SOL    HW281543  13.630   3.339  13.767
59904SOL     OW81544   2.383  10.806  10.224
59904SOL    HW181545   2.292  10.777  10.211
59904SOL    HW281546   2.422  10.800  10.137
59905SOL     OW81547   5.549   5.658   3.678
59905SOL    HW181548   5.550   5.729   3.742
59905SOL    HW281549   5.477   5.679   3.619
59906SOL     OW81550   9.050   9.127   3.246
59906SOL    HW181551   9.141   9.151   3.260
59906SOL    HW281552   9.046   9.097   3.155
59907SOL     OW81553   3.517  12.731   7.443
59907SOL    HW181554   3.580  12.802   7.427
59907SOL    HW281555   3.534  12.668   7.373
59908SOL     OW81556   9.794   4.036  10.181
59908SOL    HW181557   9.843   3.954  10.179
59908SOL    HW281558   9.746   4.037  10.098
59909SOL     OW81559   1.660  10.926   2.855
59909SOL    HW181560   1.652  10.864   2.782
59909SOL    HW281561   1.733  10.983   2.830
59910SOL     OW81562   0.051   8.011   3.566
59910SOL    HW181563  14.836   7.998   3.579
59910SOL    HW281564   0.091   7.930   3.598
59911SOL     OW81565   3.092  12.773  12.236
59911SOL    HW181566   3.179  12.799  12.206
59911SOL    HW281567   3.042  12.855  12.240
59912SOL     OW81568   5.170   8.829   8.044
59912SOL    HW181569   5.081   8.860   8.057
59912SOL    HW281570   5.216   8.854   8.124
59913SOL     OW81571   9.948  11.508   3.192
59913SOL    HW181572  10.026  11.482   3.242
59913SOL    HW281573   9.883  11.529   3.259
59914SOL     OW81574   2.943   9.579   7.158
59914SOL    HW181575   3.019   9.542   7.113
59914SOL    HW281576   2.898   9.503   7.195
59915SOL     OW81577   4.658  10.806   8.884
59915SOL    HW181578   4.725  10.753   8.842
59915SOL    HW281579   4.697  10.831   8.968
59916SOL     OW81580   9.423  10.221  13.566
59916SOL    HW181581   9.333  10.192  13.576
59916SOL    HW281582   9.430  10.297  13.624
59917SOL     OW81583   2.401   9.347  13.671
59917SOL    HW181584   2.327   9.390  13.712
59917SOL    HW281585   2.384   9.253  13.683
59918SOL     OW81586   5.882   5.728   1.487
59918SOL    HW181587   5.910   5.687   1.569
59918SOL    HW281588   5.939   5.804   1.477
59919SOL     OW81589   4.319   5.229  14.136
59919SOL    HW181590   4.299   5.156  14.194
59919SOL    HW281591   4.260   5.299  14.166
59920SOL     OW81592  14.839   1.602  10.637
59920SOL    HW181593  14.818   1.664  10.568
59920SOL    HW281594  14.755   1.559  10.657
59921SOL     OW81595   0.014  14.439  13.581
59921SOL    HW181596   0.068  14.461  13.657
59921SOL    HW281597   0.051  14.491  13.509
59922SOL     OW81598  12.443  10.566   2.301
59922SOL    HW181599  12.464  10.646   2.253
59922SOL    HW281600  12.521  10.549   2.354
59923SOL     OW81601   3.010  14.820  12.713
59923SOL    HW181602   3.044  14.769  12.786
59923SOL    HW281603   3.030   0.032  12.735
59924SOL     OW81604   4.447   2.691   4.105
59924SOL    HW181605   4.537   2.663   4.093
59924SOL    HW281606   4.396   2.633   4.048
59925SOL     OW81607  10.962   8.808  10.657
59925SOL    HW181608  11.050   8.772  10.670
59925SOL    HW281609  10.909   8.732  10.634
59926SOL     OW81610  14.126   8.146   9.147
59926SOL    HW181611  14.082   8.179   9.069
59926SOL    HW281612  14.146   8.224   9.198
59927SOL     OW81613  12.859   0.970   0.491
59927SOL    HW181614  12.937   0.916   0.482
59927SOL    HW281615  12.866   1.008   0.578
59928SOL     OW81616   9.013   8.174  10.025
59928SOL    HW181617   9.034   8.169   9.932
59928SOL    HW281618   9.096   8.197  10.067
59929SOL     OW81619   0.948  12.348  10.654
59929SOL    HW181620   0.976  12.257  10.663
59929SOL    HW281621   1.026  12.399  10.674
59930SOL     OW81622  12.499   9.200   5.185
59930SOL    HW181623  12.466   9.111   5.199
59930SOL    HW281624  12.451   9.253   5.249
59931SOL     OW81625  12.542  11.968   9.342
59931SOL    HW181626  12.514  11.891   9.293
59931SOL    HW281627  12.551  11.937   9.432
59932SOL     OW81628   4.001   7.918   8.733
59932SOL    HW181629   4.073   7.868   8.694
59932SOL    HW281630   3.938   7.851   8.760
59933SOL     OW81631   4.403  10.294   7.160
59933SOL    HW181632   4.414  10.246   7.078
59933SOL    HW281633   4.431  10.383   7.139
59934SOL     OW81634   6.847   6.346   2.114
59934SOL    HW181635   6.915   6.409   2.137
59934SOL    HW281636   6.834   6.358   2.020
59935SOL     OW81637   0.959   7.381   9.029
59935SOL    HW181638   0.887   7.445   9.031
59935SOL    HW281639   1.038   7.434   9.033
59936SOL     OW81640   0.152   0.653  14.232
59936SOL    HW181641   0.091   0.602  14.179
59936SOL    HW281642   0.214   0.690  14.169
59937SOL     OW81643  12.476   1.617   9.753
59937SOL    HW181644  12.512   1.702   9.776
59937SOL    HW281645  12.495   1.561   9.828
59938SOL     OW81646   2.372   6.428   5.893
59938SOL    HW181647   2.395   6.407   5.803
59938SOL    HW281648   2.316   6.505   5.886
59939SOL     OW81649   0.904   5.678   6.204
59939SOL    HW181650   0.924   5.595   6.246
59939SOL    HW281651   0.839   5.656   6.136
59940SOL     OW81652   5.560  14.862   8.892
59940SOL    HW181653   5.496   0.013   8.827
59940SOL    HW281654   5.578  14.771   8.868
59941SOL     OW81655  14.192  11.480   9.004
59941SOL    HW181656  14.287  11.463   9.001
59941SOL    HW281657  14.155  11.400   9.039
59942SOL     OW81658  14.469  12.647   6.513
59942SOL    HW181659  14.543  12.655   6.573
59942SOL    HW281660  14.415  12.577   6.549
59943SOL     OW81661   9.912   4.823   2.408
59943SOL    HW181662   9.845   4.841   2.342
59943SOL    HW281663   9.994   4.849   2.366
59944SOL     OW81664   2.936   5.967   8.593
59944SOL    HW181665   3.026   5.978   8.623
59944SOL    HW281666   2.946   5.943   8.500
59945SOL     OW81667  10.149  13.128   1.435
59945SOL    HW181668  10.062  13.111   1.398
59945SOL    HW281669  10.137  13.206   1.489
59946SOL     OW81670   8.169   0.057  10.560
59946SOL    HW181671   8.254   0.027  10.528
59946SOL    HW281672   8.121  14.856  10.578
59947SOL     OW81673  13.549   8.781   2.774
59947SOL    HW181674  13.468   8.832   2.781
59947SOL    HW281675  13.594   8.817   2.698
59948SOL     OW81676   8.445   2.743   2.026
59948SOL    HW181677   8.432   2.670   2.086
59948SOL    HW281678   8.415   2.820   2.075
59949SOL     OW81679   3.425  13.212   7.858
59949SOL    HW181680   3.444  13.269   7.783
59949SOL    HW281681   3.491  13.236   7.923
59950SOL     OW81682   3.637   8.255  13.791
59950SOL    HW181683   3.605   8.167  13.770
59950SOL    HW281684   3.661   8.251  13.884
59951SOL     OW81685   8.068   9.898   9.710
59951SOL    HW181686   7.995   9.951   9.742
59951SOL    HW281687   8.027   9.835   9.651
59952SOL     OW81688   1.963   8.979   1.619
59952SOL    HW181689   1.998   8.894   1.589
59952SOL    HW281690   1.991   9.041   1.551
59953SOL     OW81691  10.547  14.487   1.823
59953SOL    HW181692  10.492  14.436   1.883
59953SOL    HW281693  10.526  14.453   1.736
59954SOL     OW81694  14.562   5.730   7.905
59954SOL    HW181695  14.493   5.676   7.865
59954SOL    HW281696  14.611   5.669   7.960
59955SOL     OW81697   6.684  10.663   6.246
59955SOL    HW181698   6.697  10.745   6.294
59955SOL    HW281699   6.744  10.601   6.289
59956SOL     OW81700  10.651   8.107   2.355
59956SOL    HW181701  10.631   8.057   2.276
59956SOL    HW281702  10.744   8.092   2.370
59957SOL     OW81703   2.320   1.368  13.183
59957SOL    HW181704   2.262   1.299  13.213
59957SOL    HW281705   2.376   1.387  13.258
59958SOL     OW81706   9.863   1.916   1.471
59958SOL    HW181707   9.888   1.985   1.532
59958SOL    HW281708   9.801   1.959   1.411
59959SOL     OW81709   1.140   2.220   2.741
59959SOL    HW181710   1.050   2.236   2.772
59959SOL    HW281711   1.135   2.135   2.697
59960SOL     OW81712   4.064   0.749   9.723
59960SOL    HW181713   4.106   0.833   9.740
59960SOL    HW281714   4.119   0.707   9.657
59961SOL     OW81715   8.480  10.556  14.024
59961SOL    HW181716   8.453  10.636  13.978
59961SOL    HW281717   8.401  10.528  14.071
59962SOL     OW81718  11.818   4.135  14.839
59962SOL    HW181719  11.817   4.045  14.807
59962SOL    HW281720  11.818   4.127   0.055
59963SOL     OW81721  12.095   8.477   9.724
59963SOL    HW181722  12.136   8.405   9.772
59963SOL    HW281723  12.018   8.499   9.776
59964SOL     OW81724  12.657   4.273   0.618
59964SOL    HW181725  12.657   4.333   0.693
59964SOL    HW281726  12.598   4.314   0.555
59965SOL     OW81727  10.884   0.930   2.015
59965SOL    HW181728  10.875   0.836   2.030
59965SOL    HW281729  10.796   0.959   1.991
59966SOL     OW81730  13.369   5.922   0.895
59966SOL    HW181731  13.324   5.883   0.970
59966SOL    HW281732  13.404   5.847   0.847
59967SOL     OW81733   7.834   8.289   7.046
59967SOL    HW181734   7.826   8.212   6.989
59967SOL    HW281735   7.771   8.352   7.011
59968SOL     OW81736   6.977   7.984  10.729
59968SOL    HW181737   6.953   8.032  10.808
59968SOL    HW281738   6.942   8.037  10.657
59969SOL     OW81739  10.430  11.598  14.012
59969SOL    HW181740  10.482  11.677  14.022
59969SOL    HW281741  10.364  11.621  13.946
59970SOL     OW81742  13.054   4.166   1.855
59970SOL    HW181743  13.090   4.171   1.943
59970SOL    HW281744  13.129   4.145   1.799
59971SOL     OW81745  10.453   4.999   2.443
59971SOL    HW181746  10.425   4.921   2.395
59971SOL    HW281747  10.498   5.053   2.378
59972SOL     OW81748  14.170  14.542   7.762
59972SOL    HW181749  14.185  14.594   7.683
59972SOL    HW281750  14.249  14.488   7.771
59973SOL     OW81751  12.623   2.629   1.452
59973SOL    HW181752  12.599   2.536   1.457
59973SOL    HW281753  12.674   2.636   1.371
59974SOL     OW81754   0.813  11.098  11.967
59974SOL    HW181755   0.854  11.083  11.881
59974SOL    HW281756   0.883  11.137  12.020
59975SOL     OW81757   6.318   5.239   6.920
59975SOL    HW181758   6.395   5.257   6.867
59975SOL    HW281759   6.353   5.205   7.003
59976SOL     OW81760   0.433   3.056   5.663
59976SOL    HW181761   0.362   3.102   5.709
59976SOL    HW281762   0.403   3.050   5.573
59977SOL     OW81763   9.171   5.766   2.228
59977SOL    HW181764   9.146   5.858   2.226
59977SOL    HW281765   9.266   5.767   2.241
59978SOL     OW81766  11.501   4.970   6.532
59978SOL    HW181767  11.492   5.027   6.456
59978SOL    HW281768  11.595   4.959   6.544
59979SOL     OW81769   9.738   7.972   9.208
59979SOL    HW181770   9.787   7.988   9.128
59979SOL    HW281771   9.660   8.028   9.201
59980SOL     OW81772   9.049  13.674   1.829
59980SOL    HW181773   9.052  13.664   1.924
59980SOL    HW281774   9.035  13.768   1.816
59981SOL     OW81775  12.451  10.218  11.797
59981SOL    HW181776  12.366  10.232  11.754
59981SOL    HW281777  12.430  10.219  11.890
59982SOL     OW81778   9.956  10.412   5.269
59982SOL    HW181779  10.018  10.358   5.220
59982SOL    HW281780   9.884  10.353   5.291
59983SOL     OW81781   9.314   6.569   0.395
59983SOL    HW181782   9.368   6.508   0.444
59983SOL    HW281783   9.275   6.626   0.461
59984SOL     OW81784   2.542   0.783   1.684
59984SOL    HW181785   2.556   0.752   1.595
59984SOL    HW281786   2.467   0.842   1.677
59985SOL     OW81787  12.481  13.152  11.637
59985SOL    HW181788  12.573  13.165  11.616
59985SOL    HW281789  12.461  13.064  11.605
59986SOL     OW81790   8.352   7.350  14.471
59986SOL    HW181791   8.356   7.398  14.388
59986SOL    HW281792   8.324   7.416  14.535
59987SOL     OW81793  11.598   9.724   3.862
59987SOL    HW181794  11.685   9.764   3.865
59987SOL    HW281795  11.555   9.767   3.787
59988SOL     OW81796   2.390   7.599   2.129
59988SOL    HW181797   2.337   7.563   2.058
59988SOL    HW281798   2.469   7.630   2.085
59989SOL     OW81799   8.581  13.205   9.018
59989SOL    HW181800   8.544  13.247   8.940
59989SOL    HW281801   8.524  13.231   9.090
59990SOL     OW81802   5.789   5.931  10.501
59990SOL    HW181803   5.841   5.851  10.514
59990SOL    HW281804   5.723   5.906  10.437
59991SOL     OW81805   5.145   9.662   8.760
59991SOL    HW181806   5.223   9.654   8.814
59991SOL    HW281807   5.178   9.692   8.675
59992SOL     OW81808   2.498   9.639   9.212
59992SOL    HW181809   2.579   9.600   9.179
59992SOL    HW281810   2.511   9.733   9.204
59993SOL     OW81811  12.204  10.379  14.230
59993SOL    HW181812  12.142  10.434  14.278
59993SOL    HW281813  12.151  10.305  14.200
59994SOL     OW81814   7.971  13.922   0.002
59994SOL    HW181815   7.976  14.016   0.015
59994SOL    HW281816   7.930  13.889   0.082
59995SOL     OW81817  11.985   7.725   9.971
59995SOL    HW181818  12.069   7.688   9.998
59995SOL    HW281819  11.933   7.726  10.052
59996SOL     OW81820   6.089   9.534   4.643
59996SOL    HW181821   6.121   9.616   4.681
59996SOL    HW281822   6.036   9.562   4.568
59997SOL     OW81823   8.911   9.320   2.379
59997SOL    HW181824   8.829   9.363   2.402
59997SOL    HW281825   8.926   9.256   2.448
59998SOL     OW81826  12.019   2.853   1.566
59998SOL    HW181827  11.927   2.831   1.582
59998SOL    HW281828  12.056   2.869   1.653
59999SOL     OW81829  14.053  13.108  13.340
59999SOL    HW181830  14.071  13.171  13.409
59999SOL    HW281831  14.114  13.036  13.357
60000SOL     OW81832  13.149  11.733   9.524
60000SOL    HW181833  13.229  11.695   9.562
60000SOL    HW281834  13.169  11.827   9.517
60001SOL     OW81835   6.461   5.214   8.413
60001SOL    HW181836   6.427   5.198   8.501
60001SOL    HW281837   6.519   5.141   8.396
60002SOL     OW81838   0.727   2.944  14.187
60002SOL    HW181839   0.766   3.030  14.196
60002SOL    HW281840   0.744   2.900  14.270
60003SOL     OW81841  14.028   2.389   2.952
60003SOL    HW181842  14.089   2.441   2.899
60003SOL    HW281843  13.942   2.411   2.918
60004SOL     OW81844   7.233   2.459  14.293
60004SOL    HW181845   7.311   2.490  14.339
60004SOL    HW281846   7.265   2.388  14.237
60005SOL     OW81847  12.107   4.603   6.857
60005SOL    HW181848  12.107   4.612   6.762
60005SOL    HW281849  12.055   4.678   6.888
60006SOL     OW81850   2.649   5.679  12.619
60006SOL    HW181851   2.620   5.588  12.612
60006SOL    HW281852   2.703   5.682  12.697
60007SOL     OW81853   9.400   4.348   8.568
60007SOL    HW181854   9.349   4.364   8.648
60007SOL    HW281855   9.359   4.404   8.502
60008SOL     OW81856   2.157   3.542   8.132
60008SOL    HW181857   2.129   3.528   8.223
60008SOL    HW281858   2.075   3.536   8.082
60009SOL     OW81859  11.262  14.176   6.717
60009SOL    HW181860  11.266  14.204   6.808
60009SOL    HW281861  11.354  14.165   6.691
60010SOL     OW81862   3.539   5.522   5.421
60010SOL    HW181863   3.578   5.562   5.498
60010SOL    HW281864   3.597   5.547   5.349
60011SOL     OW81865   4.583   6.994   9.606
60011SOL    HW181866   4.605   6.913   9.652
60011SOL    HW281867   4.491   7.009   9.626
60012SOL     OW81868   9.641  12.448   7.776
60012SOL    HW181869   9.547  12.448   7.794
60012SOL    HW281870   9.656  12.525   7.722
60013SOL     OW81871   8.006   3.705  12.403
60013SOL    HW181872   8.061   3.780  12.382
60013SOL    HW281873   7.921   3.726  12.364
60014SOL     OW81874  14.194  13.128  11.469
60014SOL    HW181875  14.268  13.170  11.425
60014SOL    HW281876  14.228  13.043  11.497
60015SOL     OW81877  11.620   4.323   8.384
60015SOL    HW181878  11.686   4.280   8.438
60015SOL    HW281879  11.640   4.295   8.294
60016SOL     OW81880   3.637   3.184  12.039
60016SOL    HW181881   3.732   3.175  12.036
60016SOL    HW281882   3.619   3.234  12.119
60017SOL     OW81883   6.504   5.818   7.736
60017SOL    HW181884   6.463   5.796   7.653
60017SOL    HW281885   6.449   5.887   7.773
60018SOL     OW81886  11.975  11.604   3.662
60018SOL    HW181887  12.015  11.517   3.669
60018SOL    HW281888  11.884  11.590   3.688
60019SOL     OW81889   9.698  12.011   3.509
60019SOL    HW181890   9.785  11.978   3.529
60019SOL    HW281891   9.701  12.034   3.416
60020SOL     OW81892   3.798   8.766   4.652
60020SOL    HW181893   3.721   8.823   4.650
60020SOL    HW281894   3.830   8.765   4.562
60021SOL     OW81895   3.924   2.036  10.135
60021SOL    HW181896   3.855   2.101  10.124
60021SOL    HW281897   3.994   2.083  10.180
60022SOL     OW81898   7.555  10.730   9.621
60022SOL    HW181899   7.508  10.811   9.606
60022SOL    HW281900   7.646  10.750   9.600
60023SOL     OW81901   7.206   5.617   5.554
60023SOL    HW181902   7.138   5.553   5.533
60023SOL    HW281903   7.171   5.701   5.525
60024SOL     OW81904   5.567   1.672   3.261
60024SOL    HW181905   5.531   1.673   3.350
60024SOL    HW281906   5.574   1.579   3.240
60025SOL     OW81907  13.827   9.305  11.618
60025SOL    HW181908  13.853   9.265  11.701
60025SOL    HW281909  13.845   9.399  11.629
60026SOL     OW81910   5.607   4.698   1.336
60026SOL    HW181911   5.699   4.712   1.317
60026SOL    HW281912   5.562   4.772   1.293
60027SOL     OW81913   3.132   5.785   1.070
60027SOL    HW181914   3.088   5.712   1.113
60027SOL    HW281915   3.183   5.745   1.000
60028SOL     OW81916  13.668   7.844  12.895
60028SOL    HW181917  13.728   7.916  12.911
60028SOL    HW281918  13.660   7.799  12.980
60029SOL     OW81919   8.050  11.991  11.736
60029SOL    HW181920   8.042  11.975  11.642
60029SOL    HW281921   8.140  11.966  11.756
60030SOL     OW81922   5.398  14.269   9.003
60030SOL    HW181923   5.434  14.293   9.088
60030SOL    HW281924   5.474  14.259   8.946
60031SOL     OW81925  14.258   7.424   4.673
60031SOL    HW181926  14.289   7.422   4.763
60031SOL    HW281927  14.209   7.506   4.666
60032SOL     OW81928  13.001  11.235   9.820
60032SOL    HW181929  12.964  11.160   9.868
60032SOL    HW281930  13.003  11.306   9.885
60033SOL     OW81931   9.144  13.136   7.984
60033SOL    HW181932   9.118  13.194   7.913
60033SOL    HW281933   9.137  13.048   7.946
60034SOL     OW81934   8.577   1.570  14.733
60034SOL    HW181935   8.497   1.517  14.732
60034SOL    HW281936   8.546   1.660  14.725
60035SOL     OW81937  13.364   9.853  14.577
60035SOL    HW181938  13.331   9.808  14.499
60035SOL    HW281939  13.445   9.806  14.600
60036SOL     OW81940   1.554   2.844   8.862
60036SOL    HW181941   1.611   2.918   8.879
60036SOL    HW281942   1.613   2.773   8.836
60037SOL     OW81943   2.164  13.253   9.756
60037SOL    HW181944   2.102  13.288   9.691
60037SOL    HW281945   2.146  13.303   9.835
60038SOL     OW81946   6.759   6.020  10.627
60038SOL    HW181947   6.783   5.981  10.543
60038SOL    HW281948   6.759   5.946  10.688
60039SOL     OW81949  10.892  13.565   6.790
60039SOL    HW181950  10.857  13.609   6.713
60039SOL    HW281951  10.871  13.472   6.776
60040SOL     OW81952   7.702   7.361  12.992
60040SOL    HW181953   7.699   7.351  13.087
60040SOL    HW281954   7.795   7.364  12.971
60041SOL     OW81955   6.585   9.852  13.402
60041SOL    HW181956   6.600   9.919  13.468
60041SOL    HW281957   6.497   9.868  13.370
60042SOL     OW81958   9.623   8.464   1.797
60042SOL    HW181959   9.681   8.413   1.852
60042SOL    HW281960   9.682   8.507   1.734
60043SOL     OW81961   1.357   7.801   9.349
60043SOL    HW181962   1.440   7.777   9.388
60043SOL    HW281963   1.369   7.891   9.318
60044SOL     OW81964   0.992   4.210  12.385
60044SOL    HW181965   0.915   4.215  12.441
60044SOL    HW281966   1.013   4.117  12.380
60045SOL     OW81967   6.666   0.929   9.697
60045SOL    HW181968   6.719   0.866   9.747
60045SOL    HW281969   6.730   0.989   9.660
60046SOL     OW81970   3.509  13.649  10.078
60046SOL    HW181971   3.570  13.580  10.052
60046SOL    HW281972   3.423  13.615  10.057
60047SOL     OW81973   4.307   7.961   4.307
60047SOL    HW181974   4.301   7.979   4.213
60047SOL    HW281975   4.301   8.047   4.349
60048SOL     OW81976   8.095  11.642  10.240
60048SOL    HW181977   8.030  11.595  10.187
60048SOL    HW281978   8.054  11.650  10.326
60049SOL     OW81979  11.068   5.417   0.512
60049SOL    HW181980  11.018   5.495   0.536
60049SOL    HW281981  11.020   5.344   0.550
60050SOL     OW81982   8.463  10.637   3.679
60050SOL    HW181983   8.373  10.608   3.689
60050SOL    HW281984   8.456  10.730   3.655
60051SOL     OW81985  12.170   9.693   5.762
60051SOL    HW181986  12.139   9.652   5.843
60051SOL    HW281987  12.245   9.639   5.736
60052SOL     OW81988   9.750   4.314  11.265
60052SOL    HW181989   9.681   4.279  11.208
60052SOL    HW281990   9.705   4.337  11.346
60053SOL     OW81991   9.309   4.667   7.350
60053SOL    HW181992   9.403   4.668   7.370
60053SOL    HW281993   9.305   4.662   7.255
60054SOL     OW81994   7.992   7.764  10.048
60054SOL    HW181995   7.915   7.819  10.058
60054SOL    HW281996   7.977   7.714   9.968
60055SOL     OW81997  11.538   4.672   1.595
60055SOL    HW181998  11.569   4.749   1.642
60055SOL    HW281999  11.445   4.666   1.616
60056SOL     OW82000   8.190  10.004  13.746
60056SOL    HW182001   8.241   9.944  13.801
60056SOL    HW282002   8.254  10.041  13.685
60057SOL     OW82003   3.623   0.883   1.779
60057SOL    HW182004   3.685   0.949   1.809
60057SOL    HW282005   3.539   0.912   1.815
60058SOL     OW82006   1.072   1.128   8.786
60058SOL    HW182007   1.058   1.216   8.821
60058SOL    HW282008   1.072   1.139   8.691
60059SOL     OW82009   9.032   6.181  13.701
60059SOL    HW182010   9.028   6.111  13.766
60059SOL    HW282011   8.943   6.186  13.666
60060SOL     OW82012   8.046   8.975  13.442
60060SOL    HW182013   7.989   8.902  13.464
60060SOL    HW282014   8.096   8.991  13.522
60061SOL     OW82015   2.406  12.242   9.072
60061SOL    HW182016   2.397  12.158   9.118
60061SOL    HW282017   2.416  12.306   9.142
60062SOL     OW82018   3.150  13.906   2.310
60062SOL    HW182019   3.058  13.932   2.310
60062SOL    HW282020   3.187  13.952   2.235
60063SOL     OW82021  11.674   7.144  13.537
60063SOL    HW182022  11.684   7.055  13.572
60063SOL    HW282023  11.609   7.184  13.595
60064SOL     OW82024   7.748   5.980  12.529
60064SOL    HW182025   7.706   5.932  12.457
60064SOL    HW282026   7.791   6.054  12.486
60065SOL     OW82027  13.016  13.579   7.238
60065SOL    HW182028  13.044  13.584   7.329
60065SOL    HW282029  12.945  13.642   7.231
60066SOL     OW82030   9.157   4.852  12.623
60066SOL    HW182031   9.201   4.786  12.676
60066SOL    HW282032   9.224   4.916  12.602
60067SOL     OW82033   9.026   8.120   5.995
60067SOL    HW182034   9.027   8.075   6.080
60067SOL    HW282035   9.115   8.111   5.962
60068SOL     OW82036  13.423   7.091   2.573
60068SOL    HW182037  13.506   7.134   2.553
60068SOL    HW282038  13.435   7.054   2.661
60069SOL     OW82039   4.397   4.807  13.036
60069SOL    HW182040   4.442   4.890  13.049
60069SOL    HW282041   4.431   4.773  12.953
60070SOL     OW82042  13.684   2.400   4.748
60070SOL    HW182043  13.639   2.485   4.746
60070SOL    HW282044  13.754   2.411   4.812
60071SOL     OW82045   4.717   0.639   1.400
60071SOL    HW182046   4.649   0.706   1.403
60071SOL    HW282047   4.740   0.622   1.491
60072SOL     OW82048   4.091  13.770   2.357
60072SOL    HW182049   4.047  13.685   2.366
60072SOL    HW282050   4.020  13.834   2.357
60073SOL     OW82051   8.448  10.063   6.143
60073SOL    HW182052   8.370  10.119   6.133
60073SOL    HW282053   8.498  10.105   6.213
60074SOL     OW82054   8.242  12.970   1.175
60074SOL    HW182055   8.201  12.887   1.148
60074SOL    HW282056   8.317  12.979   1.116
60075SOL     OW82057   2.988   8.723  10.589
60075SOL    HW182058   2.897   8.753  10.586
60075SOL    HW282059   3.012   8.728  10.681
60076SOL     OW82060   0.977   1.987   4.714
60076SOL    HW182061   0.904   2.049   4.723
60076SOL    HW282062   1.049   2.040   4.681
60077SOL     OW82063  12.719   0.667   5.535
60077SOL    HW182064  12.624   0.659   5.540
60077SOL    HW282065  12.734   0.746   5.483
60078SOL     OW82066   3.956  12.347   4.272
60078SOL    HW182067   3.997  12.274   4.225
60078SOL    HW282068   3.948  12.316   4.362
60079SOL     OW82069  10.286  13.547   2.070
60079SOL    HW182070  10.215  13.511   2.123
60079SOL    HW282071  10.321  13.473   2.022
60080SOL     OW82072  12.038   5.992   7.379
60080SOL    HW182073  12.095   6.067   7.400
60080SOL    HW282074  11.950   6.028   7.381
60081SOL     OW82075   4.145   3.891   1.241
60081SOL    HW182076   4.222   3.874   1.296
60081SOL    HW282077   4.118   3.980   1.265
60082SOL     OW82078  14.400   5.154  12.832
60082SOL    HW182079  14.318   5.128  12.792
60082SOL    HW282080  14.393   5.126  12.923
60083SOL     OW82081   8.447   3.904  10.493
60083SOL    HW182082   8.450   3.893  10.398
60083SOL    HW282083   8.386   3.976  10.507
60084SOL     OW82084   0.882  11.511   7.256
60084SOL    HW182085   0.938  11.512   7.179
60084SOL    HW282086   0.922  11.574   7.316
60085SOL     OW82087   9.113  10.281   6.822
60085SOL    HW182088   9.049  10.351   6.831
60085SOL    HW282089   9.143  10.287   6.731
60086SOL     OW82090   7.781   1.796  12.989
60086SOL    HW182091   7.815   1.736  13.056
60086SOL    HW282092   7.844   1.868  12.989
60087SOL     OW82093   2.404   2.661   3.090
60087SOL    HW182094   2.470   2.730   3.094
60087SOL    HW282095   2.322   2.704   3.115
60088SOL     OW82096  14.520   9.751   6.585
60088SOL    HW182097  14.557   9.669   6.552
60088SOL    HW282098  14.425   9.736   6.587
60089SOL     OW82099   5.912  11.570   8.538
60089SOL    HW182100   5.931  11.663   8.527
60089SOL    HW282101   5.919  11.555   8.632
60090SOL     OW82102   1.378  13.124   5.219
60090SOL    HW182103   1.286  13.095   5.222
60090SOL    HW282104   1.423  13.057   5.168
60091SOL     OW82105   9.949   8.368  12.776
60091SOL    HW182106   9.879   8.315  12.814
60091SOL    HW282107   9.911   8.455  12.764
60092SOL     OW82108  11.714   1.131   2.864
60092SOL    HW182109  11.788   1.099   2.812
60092SOL    HW282110  11.746   1.128   2.954
60093SOL     OW82111  13.841   1.308   7.679
60093SOL    HW182112  13.927   1.293   7.642
60093SOL    HW282113  13.844   1.398   7.712
60094SOL     OW82114   1.522  14.750  14.042
60094SOL    HW182115   1.529  14.724  14.133
60094SOL    HW282116   1.469  14.830  14.044
60095SOL     OW82117   4.763   6.629   0.745
60095SOL    HW182118   4.791   6.610   0.656
60095SOL    HW282119   4.721   6.715   0.739
60096SOL     OW82120  11.407   6.622   3.978
60096SOL    HW182121  11.382   6.542   3.931
60096SOL    HW282122  11.498   6.637   3.954
60097SOL     OW82123   0.196  13.582  11.946
60097SOL    HW182124   0.278  13.630  11.938
60097SOL    HW282125   0.187  13.565  12.040
60098SOL     OW82126   2.543  11.662   9.815
60098SOL    HW182127   2.558  11.583   9.867
60098SOL    HW282128   2.590  11.731   9.861
60099SOL     OW82129  13.915  12.301   2.777
60099SOL    HW182130  13.829  12.299   2.735
60099SOL    HW282131  13.927  12.213   2.813
60100SOL     OW82132  13.015   8.046   7.199
60100SOL    HW182133  13.057   8.110   7.256
60100SOL    HW282134  13.060   7.964   7.218
60101SOL     OW82135   0.858   2.566   3.128
60101SOL    HW182136   0.940   2.589   3.173
60101SOL    HW282137   0.874   2.478   3.093
60102SOL     OW82138   6.734  12.562   6.714
60102SOL    HW182139   6.750  12.515   6.796
60102SOL    HW282140   6.640  12.556   6.701
60103SOL     OW82141   4.153   8.166   8.551
60103SOL    HW182142   4.114   8.144   8.635
60103SOL    HW282143   4.095   8.232   8.513
60104SOL     OW82144   3.265  12.413   4.418
60104SOL    HW182145   3.311  12.419   4.501
60104SOL    HW282146   3.259  12.319   4.400
60105SOL     OW82147   2.665   4.510   6.416
60105SOL    HW182148   2.737   4.449   6.432
60105SOL    HW282149   2.586   4.459   6.430
60106SOL     OW82150  11.450  12.198   6.045
60106SOL    HW182151  11.532  12.230   6.007
60106SOL    HW282152  11.471  12.111   6.079
60107SOL     OW82153   2.357   8.721  10.083
60107SOL    HW182154   2.356   8.663  10.008
60107SOL    HW282155   2.421   8.682  10.143
60108SOL     OW82156  14.279   2.299  12.182
60108SOL    HW182157  14.333   2.355  12.237
60108SOL    HW282158  14.243   2.234  12.242
60109SOL     OW82159   8.969  14.055  10.682
60109SOL    HW182160   9.058  14.060  10.647
60109SOL    HW282161   8.918  14.014  10.612
60110SOL     OW82162   5.560  10.622   6.237
60110SOL    HW182163   5.509  10.575   6.171
60110SOL    HW282164   5.651  10.595   6.221
60111SOL     OW82165   6.878   1.700  14.763
60111SOL    HW182166   6.898   1.724  14.853
60111SOL    HW282167   6.788   1.728  14.749
60112SOL     OW82168   6.578   2.885  12.662
60112SOL    HW182169   6.568   2.807  12.717
60112SOL    HW282170   6.602   2.851  12.576
60113SOL     OW82171   2.642   1.407   1.874
60113SOL    HW182172   2.596   1.399   1.790
60113SOL    HW282173   2.719   1.350   1.865
60114SOL     OW82174   5.040   6.457  12.471
60114SOL    HW182175   5.125   6.463  12.513
60114SOL    HW282176   4.978   6.448  12.543
60115SOL     OW82177  12.526  12.164  13.044
60115SOL    HW182178  12.543  12.245  12.995
60115SOL    HW282179  12.476  12.192  13.120
60116SOL     OW82180   5.480   2.577   0.181
60116SOL    HW182181   5.541   2.584   0.254
60116SOL    HW282182   5.397   2.610   0.215
60117SOL     OW82183   2.081  14.758   3.722
60117SOL    HW182184   2.041  14.779   3.806
60117SOL    HW282185   2.090  14.843   3.678
60118SOL     OW82186   2.315  13.087   2.297
60118SOL    HW182187   2.331  13.156   2.361
60118SOL    HW282188   2.324  13.006   2.346
60119SOL     OW82189   4.418   7.693  12.869
60119SOL    HW182190   4.380   7.616  12.912
60119SOL    HW282191   4.344   7.753  12.857
60120SOL     OW82192  13.811   4.019   9.677
60120SOL    HW182193  13.782   4.063   9.597
60120SOL    HW282194  13.734   3.971   9.707
60121SOL     OW82195   5.969  13.834  13.641
60121SOL    HW182196   5.981  13.878  13.725
60121SOL    HW282197   5.951  13.904  13.579
60122SOL     OW82198   6.872   7.563   5.925
60122SOL    HW182199   6.849   7.650   5.891
60122SOL    HW282200   6.832   7.559   6.012
60123SOL     OW82201   4.102   8.092  10.899
60123SOL    HW182202   4.148   8.059  10.822
60123SOL    HW282203   4.122   8.186  10.900
60124SOL     OW82204   9.215  10.254   6.569
60124SOL    HW182205   9.226  10.282   6.478
60124SOL    HW282206   9.208  10.159   6.564
60125SOL     OW82207   0.107   9.552   5.015
60125SOL    HW182208   0.161   9.619   4.973
60125SOL    HW282209   0.028   9.598   5.043
60126SOL     OW82210   4.748   3.621   1.902
60126SOL    HW182211   4.665   3.668   1.893
60126SOL    HW282212   4.792   3.634   1.818
60127SOL     OW82213   2.584   0.729  14.295
60127SOL    HW182214   2.594   0.792  14.367
60127SOL    HW282215   2.663   0.676  14.299
60128SOL     OW82216  14.311   9.076  12.347
60128SOL    HW182217  14.218   9.096  12.333
60128SOL    HW282218  14.311   9.006  12.412
60129SOL     OW82219   7.785  12.614   7.594
60129SOL    HW182220   7.850  12.574   7.651
60129SOL    HW282221   7.823  12.609   7.506
60130SOL     OW82222   7.681   3.822   0.425
60130SOL    HW182223   7.751   3.880   0.455
60130SOL    HW282224   7.620   3.880   0.379
60131SOL     OW82225   9.866   3.888   4.481
60131SOL    HW182226   9.931   3.848   4.538
60131SOL    HW282227   9.885   3.850   4.394
60132SOL     OW82228   5.339   1.489  14.625
60132SOL    HW182229   5.251   1.524  14.639
60132SOL    HW282230   5.397   1.561  14.650
60133SOL     OW82231   0.805   1.417   4.048
60133SOL    HW182232   0.894   1.414   4.013
60133SOL    HW282233   0.748   1.417   3.971
60134SOL     OW82234  12.024  11.647   1.771
60134SOL    HW182235  12.076  11.618   1.697
60134SOL    HW282236  11.955  11.582   1.780
60135SOL     OW82237   2.895  12.429   5.375
60135SOL    HW182238   2.851  12.382   5.304
60135SOL    HW282239   2.959  12.486   5.330
60136SOL     OW82240   1.719  11.179  14.425
60136SOL    HW182241   1.685  11.261  14.390
60136SOL    HW282242   1.676  11.111  14.373
60137SOL     OW82243  13.172   5.893  11.145
60137SOL    HW182244  13.203   5.898  11.236
60137SOL    HW282245  13.250   5.913  11.093
60138SOL     OW82246   6.832   2.221   7.839
60138SOL    HW182247   6.756   2.216   7.781
60138SOL    HW282248   6.819   2.148   7.901
60139SOL     OW82249  12.192   1.878   8.045
60139SOL    HW182250  12.159   1.921   8.124
60139SOL    HW282251  12.148   1.923   7.973
60140SOL     OW82252  13.541   1.702   3.180
60140SOL    HW182253  13.616   1.653   3.211
60140SOL    HW282254  13.493   1.727   3.260
60141SOL     OW82255  14.700   3.400   3.372
60141SOL    HW182256  14.745   3.362   3.447
60141SOL    HW282257  14.694   3.494   3.392
60142SOL     OW82258   2.984   3.787   7.034
60142SOL    HW182259   3.004   3.752   6.947
60142SOL    HW282260   2.905   3.740   7.061
60143SOL     OW82261  14.518  11.264  14.807
60143SOL    HW182262  14.507  11.175  14.838
60143SOL    HW282263  14.613  11.279  14.812
60144SOL     OW82264   2.826   7.469   8.027
60144SOL    HW182265   2.795   7.378   8.024
60144SOL    HW282266   2.762   7.513   8.082
60145SOL     OW82267   8.728  12.958   1.129
60145SOL    HW182268   8.759  12.869   1.145
60145SOL    HW282269   8.808  13.011   1.126
60146SOL     OW82270   0.353   6.549   2.818
60146SOL    HW182271   0.427   6.502   2.782
60146SOL    HW282272   0.276   6.501   2.787
60147SOL     OW82273  12.974  11.019  10.011
60147SOL    HW182274  12.924  11.055  10.085
60147SOL    HW282275  12.972  10.925  10.024
60148SOL     OW82276   1.702   7.552   4.008
60148SOL    HW182277   1.717   7.518   3.919
60148SOL    HW282278   1.785   7.535   4.053
60149SOL     OW82279  14.280  13.609   8.432
60149SOL    HW182280  14.287  13.629   8.339
60149SOL    HW282281  14.368  13.625   8.466
60150SOL     OW82282  14.387   5.140   6.627
60150SOL    HW182283  14.306   5.098   6.599
60150SOL    HW282284  14.359   5.214   6.681
60151SOL     OW82285   0.042   9.072   1.887
60151SOL    HW182286   0.034   9.095   1.795
60151SOL    HW282287  14.837   9.034   1.910
60152SOL     OW82288  12.701   4.586   3.611
60152SOL    HW182289  12.661   4.673   3.612
60152SOL    HW282290  12.719   4.569   3.518
60153SOL     OW82291   5.901   1.147  12.767
60153SOL    HW182292   5.988   1.132  12.805
60153SOL    HW282293   5.883   1.239  12.785
60154SOL     OW82294   6.742  14.636  10.354
60154SOL    HW182295   6.816  14.643  10.294
60154SOL    HW282296   6.693  14.718  10.342
60155SOL     OW82297   8.222   7.382   5.471
60155SOL    HW182298   8.281   7.414   5.540
60155SOL    HW282299   8.178   7.307   5.510
60156SOL     OW82300   4.330   0.505   3.538
60156SOL    HW182301   4.326   0.497   3.443
60156SOL    HW282302   4.318   0.415   3.570
60157SOL     OW82303   9.196   8.100  12.243
60157SOL    HW182304   9.127   8.098  12.176
60157SOL    HW282305   9.232   8.188  12.238
60158SOL     OW82306  13.611  13.914  13.169
60158SOL    HW182307  13.705  13.907  13.150
60158SOL    HW282308  13.605  13.986  13.232
60159SOL     OW82309  13.999   4.999  13.450
60159SOL    HW182310  13.995   5.069  13.385
60159SOL    HW282311  13.972   5.040  13.532
60160SOL     OW82312   3.457   6.780  10.682
60160SOL    HW182313   3.468   6.859  10.630
60160SOL    HW282314   3.392   6.728  10.634
60161SOL     OW82315   7.082  13.099   9.314
60161SOL    HW182316   7.154  13.162   9.304
60161SOL    HW282317   7.110  13.042   9.386
60162SOL     OW82318   5.557   7.331   0.292
60162SOL    HW182319   5.524   7.328   0.202
60162SOL    HW282320   5.494   7.388   0.338
60163SOL     OW82321   1.058  14.493   2.162
60163SOL    HW182322   1.062  14.490   2.258
60163SOL    HW282323   1.003  14.569   2.143
60164SOL     OW82324   8.820  10.185  11.921
60164SOL    HW182325   8.781  10.249  11.862
60164SOL    HW282326   8.745  10.138  11.959
60165SOL     OW82327  10.870  14.853   6.010
60165SOL    HW182328  10.838   0.063   6.024
60165SOL    HW282329  10.915  14.831   6.092
60166SOL     OW82330   3.106   0.625   9.669
60166SOL    HW182331   3.085   0.701   9.615
60166SOL    HW282332   3.065   0.551   9.625
60167SOL     OW82333   1.939  12.850  14.346
60167SOL    HW182334   1.898  12.813  14.267
60167SOL    HW282335   1.887  12.928  14.365
60168SOL     OW82336   1.175  10.203   6.713
60168SOL    HW182337   1.174  10.280   6.657
60168SOL    HW282338   1.222  10.137   6.662
60169SOL     OW82339   3.036   0.264   4.248
60169SOL    HW182340   3.099   0.336   4.243
60169SOL    HW282341   3.008   0.251   4.158
60170SOL     OW82342   9.164  13.856  14.518
60170SOL    HW182343   9.149  13.866  14.424
60170SOL    HW282344   9.259  13.863  14.527
60171SOL     OW82345  11.270  14.076   0.538
60171SOL    HW182346  11.306  14.018   0.471
60171SOL    HW282347  11.189  14.033   0.566
60172SOL     OW82348   0.709   8.829  12.949
60172SOL    HW182349   0.741   8.749  12.907
60172SOL    HW282350   0.626   8.803  12.989
60173SOL     OW82351   8.848   3.753   1.668
60173SOL    HW182352   8.876   3.709   1.587
60173SOL    HW282353   8.929   3.768   1.716
60174SOL     OW82354   8.445   4.343   9.868
60174SOL    HW182355   8.370   4.303   9.914
60174SOL    HW282356   8.425   4.436   9.868
60175SOL     OW82357   4.541  11.414  10.015
60175SOL    HW182358   4.497  11.400  10.099
60175SOL    HW282359   4.564  11.507  10.016
60176SOL     OW82360   6.017   2.266   4.154
60176SOL    HW182361   6.026   2.295   4.245
60176SOL    HW282362   6.005   2.171   4.160
60177SOL     OW82363   8.350   8.579   4.534
60177SOL    HW182364   8.372   8.518   4.604
60177SOL    HW282365   8.299   8.648   4.576
60178SOL     OW82366   1.862  10.294  14.664
60178SOL    HW182367   1.796  10.251  14.610
60178SOL    HW282368   1.869  10.239  14.742
60179SOL     OW82369   5.111   4.340   2.306
60179SOL    HW182370   5.162   4.262   2.327
60179SOL    HW282371   5.030   4.330   2.356
60180SOL     OW82372   2.857   3.540   4.057
60180SOL    HW182373   2.874   3.573   3.969
60180SOL    HW282374   2.768   3.504   4.052
60181SOL     OW82375  10.391  13.339   4.934
60181SOL    HW182376  10.442  13.414   4.904
60181SOL    HW282377  10.455  13.269   4.944
60182SOL     OW82378  10.737   3.981   0.529
60182SOL    HW182379  10.707   3.916   0.466
60182SOL    HW282380  10.668   3.985   0.595
60183SOL     OW82381   1.909   2.930  11.257
60183SOL    HW182382   1.890   3.019  11.286
60183SOL    HW282383   1.985   2.904  11.309
60184SOL     OW82384   0.340   9.424   7.542
60184SOL    HW182385   0.300   9.500   7.586
60184SOL    HW282386   0.296   9.420   7.457
60185SOL     OW82387   9.831   5.253   4.292
60185SOL    HW182388   9.871   5.279   4.208
60185SOL    HW282389   9.741   5.285   4.286
60186SOL     OW82390   0.894   8.404   4.624
60186SOL    HW182391   0.961   8.454   4.669
60186SOL    HW282392   0.899   8.434   4.533
60187SOL     OW82393   8.183   9.904   6.376
60187SOL    HW182394   8.108   9.921   6.434
60187SOL    HW282395   8.157   9.827   6.325
60188SOL     OW82396   4.715   3.269   6.516
60188SOL    HW182397   4.747   3.325   6.445
60188SOL    HW282398   4.794   3.250   6.568
60189SOL     OW82399   8.540   7.393   6.628
60189SOL    HW182400   8.568   7.450   6.556
60189SOL    HW282401   8.514   7.453   6.697
60190SOL     OW82402   0.461   8.236   2.392
60190SOL    HW182403   0.478   8.156   2.343
60190SOL    HW282404   0.512   8.227   2.473
60191SOL     OW82405   1.495   1.937   7.126
60191SOL    HW182406   1.572   1.940   7.183
60191SOL    HW282407   1.491   2.024   7.085
60192SOL     OW82408  10.656  11.631   8.884
60192SOL    HW182409  10.692  11.690   8.818
60192SOL    HW282410  10.591  11.684   8.930
60193SOL     OW82411  11.220  10.481   1.551
60193SOL    HW182412  11.297  10.509   1.600
60193SOL    HW282413  11.249  10.480   1.460
60194SOL     OW82414   7.029   3.085   9.648
60194SOL    HW182415   6.979   3.007   9.624
60194SOL    HW282416   6.963   3.148   9.678
60195SOL     OW82417  13.977   4.676  10.473
60195SOL    HW182418  14.068   4.660  10.496
60195SOL    HW282419  13.947   4.595  10.432
60196SOL     OW82420  11.430   0.919   3.327
60196SOL    HW182421  11.490   0.973   3.276
60196SOL    HW282422  11.343   0.952   3.303
60197SOL     OW82423   7.586   6.180   2.373
60197SOL    HW182424   7.652   6.241   2.405
60197SOL    HW282425   7.637   6.109   2.333
60198SOL     OW82426   7.457  10.809   7.120
60198SOL    HW182427   7.444  10.896   7.159
60198SOL    HW282428   7.507  10.761   7.185
60199SOL     OW82429  13.810   6.578  10.509
60199SOL    HW182430  13.738   6.604  10.453
60199SOL    HW282431  13.792   6.620  10.593
60200SOL     OW82432  13.169  14.460  11.477
60200SOL    HW182433  13.230  14.441  11.548
60200SOL    HW282434  13.220  14.509  11.413
60201SOL     OW82435  10.979  14.429   3.968
60201SOL    HW182436  10.986  14.334   3.976
60201SOL    HW282437  10.923  14.443   3.891
60202SOL     OW82438  13.454   1.480   0.323
60202SOL    HW182439  13.396   1.536   0.375
60202SOL    HW282440  13.466   1.528   0.241
60203SOL     OW82441  13.888   9.904  12.327
60203SOL    HW182442  13.956   9.890  12.394
60203SOL    HW282443  13.806   9.900  12.375
60204SOL     OW82444   5.600   7.363   8.938
60204SOL    HW182445   5.665   7.393   8.874
60204SOL    HW282446   5.629   7.401   9.021
60205SOL     OW82447   3.074   7.924   2.038
60205SOL    HW182448   3.163   7.931   2.002
60205SOL    HW282449   3.019   7.966   1.973
60206SOL     OW82450   0.765  11.623   4.277
60206SOL    HW182451   0.822  11.546   4.273
60206SOL    HW282452   0.740  11.638   4.186
60207SOL     OW82453  14.475   7.909  12.615
60207SOL    HW182454  14.384   7.887  12.597
60207SOL    HW282455  14.506   7.839  12.673
60208SOL     OW82456   8.662   2.583   6.339
60208SOL    HW182457   8.744   2.539   6.317
60208SOL    HW282458   8.607   2.571   6.261
60209SOL     OW82459   3.269  10.024   6.549
60209SOL    HW182460   3.348  10.073   6.526
60209SOL    HW282461   3.266   9.953   6.484
60210SOL     OW82462   5.817   0.089  10.547
60210SOL    HW182463   5.782   0.042  10.471
60210SOL    HW282464   5.895   0.134  10.514
60211SOL     OW82465   3.004   2.543  14.184
60211SOL    HW182466   2.944   2.562  14.112
60211SOL    HW282467   2.948   2.518  14.257
60212SOL     OW82468   1.848  14.740  13.416
60212SOL    HW182469   1.780  14.783  13.364
60212SOL    HW282470   1.923  14.734  13.358
60213SOL     OW82471   3.338  12.227  10.327
60213SOL    HW182472   3.379  12.171  10.261
60213SOL    HW282473   3.244  12.210  10.318
60214SOL     OW82474   5.579   2.315  12.204
60214SOL    HW182475   5.591   2.344  12.295
60214SOL    HW282476   5.574   2.396  12.153
60215SOL     OW82477  13.071   9.251   4.267
60215SOL    HW182478  12.980   9.264   4.241
60215SOL    HW282479  13.067   9.229   4.360
60216SOL     OW82480  11.103   9.270   8.872
60216SOL    HW182481  11.084   9.272   8.966
60216SOL    HW282482  11.017   9.264   8.830
60217SOL     OW82483  11.104  12.082   9.686
60217SOL    HW182484  11.021  12.038   9.701
60217SOL    HW282485  11.096  12.166   9.731
60218SOL     OW82486   4.463  11.924   4.534
60218SOL    HW182487   4.425  11.986   4.596
60218SOL    HW282488   4.497  11.978   4.463
60219SOL     OW82489  10.135   7.447   9.273
60219SOL    HW182490  10.204   7.489   9.325
60219SOL    HW282491  10.060   7.443   9.332
60220SOL     OW82492   3.202   5.125   0.436
60220SOL    HW182493   3.136   5.110   0.504
60220SOL    HW282494   3.160   5.184   0.374
60221SOL     OW82495   3.896   7.372  14.507
60221SOL    HW182496   3.912   7.460  14.543
60221SOL    HW282497   3.802   7.370  14.490
60222SOL     OW82498   7.922   6.624  14.134
60222SOL    HW182499   7.938   6.709  14.093
60222SOL    HW282500   7.946   6.560  14.066
60223SOL     OW82501   6.978  10.098  13.516
60223SOL    HW182502   6.947  10.022  13.465
60223SOL    HW282503   7.064  10.072  13.547
60224SOL     OW82504   3.791   7.289   8.312
60224SOL    HW182505   3.806   7.271   8.219
60224SOL    HW282506   3.797   7.204   8.355
60225SOL     OW82507   8.136  13.590   2.211
60225SOL    HW182508   8.102  13.574   2.299
60225SOL    HW282509   8.168  13.680   2.214
60226SOL     OW82510   8.383  11.446  14.579
60226SOL    HW182511   8.382  11.377  14.646
60226SOL    HW282512   8.299  11.490  14.590
60227SOL     OW82513  14.205   8.944  13.256
60227SOL    HW182514  14.271   9.009  13.230
60227SOL    HW282515  14.213   8.874  13.190
60228SOL     OW82516   2.396  10.931   5.880
60228SOL    HW182517   2.311  10.974   5.878
60228SOL    HW282518   2.456  10.996   5.916
60229SOL     OW82519   2.000   9.405   9.705
60229SOL    HW182520   2.041   9.468   9.645
60229SOL    HW282521   2.052   9.325   9.694
60230SOL     OW82522   3.695  10.807  14.634
60230SOL    HW182523   3.677  10.887  14.682
60230SOL    HW282524   3.674  10.736  14.695
60231SOL     OW82525   7.998   3.802   9.066
60231SOL    HW182526   8.061   3.757   9.122
60231SOL    HW282527   7.976   3.882   9.113
60232SOL     OW82528   4.416   0.364  12.810
60232SOL    HW182529   4.470   0.413  12.747
60232SOL    HW282530   4.380   0.430  12.868
60233SOL     OW82531  11.282  11.193   4.629
60233SOL    HW182532  11.319  11.217   4.544
60233SOL    HW282533  11.188  11.198   4.617
60234SOL     OW82534   5.047  11.702   0.868
60234SOL    HW182535   5.020  11.701   0.776
60234SOL    HW282536   4.965  11.692   0.916
60235SOL     OW82537   7.621   6.555   5.000
60235SOL    HW182538   7.610   6.570   5.094
60235SOL    HW282539   7.680   6.625   4.971
60236SOL     OW82540   2.971   6.512   6.750
60236SOL    HW182541   3.047   6.480   6.799
60236SOL    HW282542   2.944   6.592   6.795
60237SOL     OW82543  10.782  11.889  10.022
60237SOL    HW182544  10.714  11.842   9.975
60237SOL    HW282545  10.813  11.827  10.089
60238SOL     OW82546  12.522   6.412   3.692
60238SOL    HW182547  12.509   6.487   3.749
60238SOL    HW282548  12.497   6.443   3.605
60239SOL     OW82549   5.909   0.401   1.850
60239SOL    HW182550   5.969   0.420   1.777
60239SOL    HW282551   5.946   0.323   1.891
60240SOL     OW82552   0.985   2.733   1.992
60240SOL    HW182553   1.026   2.662   1.943
60240SOL    HW282554   0.980   2.700   2.082
60241SOL     OW82555  12.478   9.818   1.804
60241SOL    HW182556  12.406   9.813   1.867
60241SOL    HW282557  12.454   9.755   1.736
60242SOL     OW82558   5.456   5.605   3.975
60242SOL    HW182559   5.472   5.514   3.949
60242SOL    HW282560   5.541   5.636   4.008
60243SOL     OW82561  11.079  13.442   4.265
60243SOL    HW182562  11.155  13.498   4.249
60243SOL    HW282563  11.059  13.455   4.358
60244SOL     OW82564  10.092   8.777   2.470
60244SOL    HW182565  10.147   8.724   2.412
60244SOL    HW282566  10.011   8.726   2.479
60245SOL     OW82567  13.400  11.531   9.601
60245SOL    HW182568  13.422  11.505   9.512
60245SOL    HW282569  13.337  11.465   9.630
60246SOL     OW82570   2.814   1.507  10.573
60246SOL    HW182571   2.787   1.427  10.528
60246SOL    HW282572   2.758   1.575  10.536
60247SOL     OW82573  10.062  14.244   3.127
60247SOL    HW182574   9.985  14.300   3.131
60247SOL    HW282575  10.065  14.214   3.036
60248SOL     OW82576   0.203   7.861  12.384
60248SOL    HW182577   0.222   7.880  12.475
60248SOL    HW282578   0.119   7.814  12.386
60249SOL     OW82579   8.458  14.198   5.480
60249SOL    HW182580   8.363  14.198   5.467
60249SOL    HW282581   8.483  14.290   5.470
60250SOL     OW82582  10.507   0.092   0.915
60250SOL    HW182583  10.582   0.083   0.857
60250SOL    HW282584  10.499   0.186   0.930
60251SOL     OW82585  11.459  14.646  10.228
60251SOL    HW182586  11.518  14.715  10.258
60251SOL    HW282587  11.516  14.573  10.205
60252SOL     OW82588   1.595   4.964   2.633
60252SOL    HW182589   1.565   4.877   2.662
60252SOL    HW282590   1.652   4.994   2.703
60253SOL     OW82591  13.489  12.291   4.708
60253SOL    HW182592  13.436  12.235   4.651
60253SOL    HW282593  13.575  12.249   4.710
60254SOL     OW82594   6.104   4.691  11.169
60254SOL    HW182595   6.197   4.677  11.148
60254SOL    HW282596   6.098   4.674  11.263
60255SOL     OW82597  11.690   1.736  12.105
60255SOL    HW182598  11.663   1.799  12.038
60255SOL    HW282599  11.611   1.720  12.157
60256SOL     OW82600  12.626   1.174   5.157
60256SOL    HW182601  12.577   1.234   5.101
60256SOL    HW282602  12.566   1.154   5.229
60257SOL     OW82603   7.589  10.105   7.244
60257SOL    HW182604   7.640  10.110   7.325
60257SOL    HW282605   7.542  10.022   7.250
60258SOL     OW82606   3.190  11.948   3.041
60258SOL    HW182607   3.199  11.971   2.949
60258SOL    HW282608   3.251  11.875   3.054
60259SOL     OW82609  14.577   1.181   0.816
60259SOL    HW182610  14.599   1.104   0.869
60259SOL    HW282611  14.536   1.241   0.878
60260SOL     OW82612   7.275  14.472   1.096
60260SOL    HW182613   7.293  14.405   1.029
60260SOL    HW282614   7.273  14.423   1.178
60261SOL     OW82615  11.536   3.391   7.759
60261SOL    HW182616  11.534   3.300   7.730
60261SOL    HW282617  11.505   3.442   7.684
60262SOL     OW82618   7.642   3.455   5.707
60262SOL    HW182619   7.617   3.376   5.659
60262SOL    HW282620   7.565   3.511   5.701
60263SOL     OW82621  10.267   4.847   4.289
60263SOL    HW182622  10.204   4.919   4.296
60263SOL    HW282623  10.308   4.842   4.375
60264SOL     OW82624   5.229   5.409   0.568
60264SOL    HW182625   5.182   5.336   0.608
60264SOL    HW282626   5.300   5.368   0.518
60265SOL     OW82627   8.829   8.019   4.573
60265SOL    HW182628   8.913   7.974   4.578
60265SOL    HW282629   8.835   8.073   4.494
60266SOL     OW82630  13.222  12.266  12.433
60266SOL    HW182631  13.311  12.252  12.464
60266SOL    HW282632  13.221  12.357  12.402
60267SOL     OW82633  10.160  10.549  13.444
60267SOL    HW182634  10.139  10.637  13.412
60267SOL    HW282635  10.181  10.562  13.537
60268SOL     OW82636  14.152   8.247   8.305
60268SOL    HW182637  14.128   8.318   8.245
60268SOL    HW282638  14.199   8.291   8.376
60269SOL     OW82639   9.062  10.308  11.868
60269SOL    HW182640   8.989  10.254  11.899
60269SOL    HW282641   9.062  10.384  11.926
60270SOL     OW82642   4.946  14.446   2.783
60270SOL    HW182643   4.875  14.437   2.719
60270SOL    HW282644   5.000  14.518   2.749
60271SOL     OW82645   4.439  14.288   5.019
60271SOL    HW182646   4.380  14.310   4.947
60271SOL    HW282647   4.381  14.278   5.095
60272SOL     OW82648   2.194   0.017   7.470
60272SOL    HW182649   2.240  14.855   7.397
60272SOL    HW282650   2.180  14.825   7.533
60273SOL     OW82651   8.901  14.420  10.702
60273SOL    HW182652   8.859  14.424  10.616
60273SOL    HW282653   8.885  14.330  10.732
60274SOL     OW82654   5.733   7.735  12.481
60274SOL    HW182655   5.667   7.716  12.547
60274SOL    HW282656   5.694   7.705  12.399
60275SOL     OW82657   8.204   7.936   7.321
60275SOL    HW182658   8.172   7.895   7.241
60275SOL    HW282659   8.133   7.995   7.348
60276SOL     OW82660  10.350  13.964   9.511
60276SOL    HW182661  10.300  14.045   9.518
60276SOL    HW282662  10.320  13.923   9.430
60277SOL     OW82663  10.046  12.361   3.776
60277SOL    HW182664  10.023  12.419   3.703
60277SOL    HW282665  10.040  12.417   3.853
60278SOL     OW82666   0.885   6.578   3.266
60278SOL    HW182667   0.930   6.570   3.183
60278SOL    HW282668   0.936   6.524   3.327
60279SOL     OW82669   6.451   3.405  12.952
60279SOL    HW182670   6.427   3.372  12.865
60279SOL    HW282671   6.385   3.368  13.010
60280SOL     OW82672   5.712  13.580   0.209
60280SOL    HW182673   5.649  13.547   0.145
60280SOL    HW282674   5.797  13.552   0.176
60281SOL     OW82675  10.883   7.467  10.983
60281SOL    HW182676  10.859   7.538  11.041
60281SOL    HW282677  10.809   7.458  10.923
60282SOL     OW82678   2.438   1.316   0.123
60282SOL    HW182679   2.376   1.252   0.088
60282SOL    HW282680   2.448   1.292   0.215
60283SOL     OW82681   8.572  13.820   3.989
60283SOL    HW182682   8.587  13.913   4.011
60283SOL    HW282683   8.538  13.782   4.070
60284SOL     OW82684  12.200  14.433   9.915
60284SOL    HW182685  12.261  14.412   9.986
60284SOL    HW282686  12.200  14.355   9.859
60285SOL     OW82687   2.280   2.095  10.233
60285SOL    HW182688   2.283   2.000  10.228
60285SOL    HW282689   2.187   2.116  10.226
60286SOL     OW82690   1.627   3.667   5.568
60286SOL    HW182691   1.630   3.593   5.506
60286SOL    HW282692   1.709   3.663   5.615
60287SOL     OW82693   7.785  11.135  10.321
60287SOL    HW182694   7.818  11.085  10.396
60287SOL    HW282695   7.774  11.070  10.252
60288SOL     OW82696   3.015   3.950  11.842
60288SOL    HW182697   3.015   4.002  11.922
60288SOL    HW282698   2.996   3.861  11.871
60289SOL     OW82699   3.301  10.368   8.195
60289SOL    HW182700   3.347  10.397   8.116
60289SOL    HW282701   3.318  10.274   8.200
60290SOL     OW82702  10.289   1.893   5.523
60290SOL    HW182703  10.225   1.946   5.476
60290SOL    HW282704  10.305   1.941   5.605
60291SOL     OW82705   6.024  14.166   4.544
60291SOL    HW182706   6.010  14.261   4.554
60291SOL    HW282707   6.119  14.156   4.542
60292SOL     OW82708  12.777  11.376   9.419
60292SOL    HW182709  12.779  11.291   9.374
60292SOL    HW282710  12.742  11.355   9.506
60293SOL     OW82711  11.114   8.709  14.643
60293SOL    HW182712  11.062   8.630  14.653
60293SOL    HW282713  11.202   8.677  14.622
60294SOL     OW82714   4.853  10.542   9.249
60294SOL    HW182715   4.918  10.494   9.301
60294SOL    HW282716   4.811  10.601   9.312
60295SOL     OW82717  12.303  12.369   7.812
60295SOL    HW182718  12.225  12.404   7.856
60295SOL    HW282719  12.372  12.432   7.834
60296SOL     OW82720   7.347  10.025  13.814
60296SOL    HW182721   7.387  10.108  13.842
60296SOL    HW282722   7.346   9.971  13.892
60297SOL     OW82723   1.843   9.862   6.841
60297SOL    HW182724   1.763   9.913   6.851
60297SOL    HW282725   1.814   9.777   6.808
60298SOL     OW82726  10.681   1.663  10.310
60298SOL    HW182727  10.646   1.621  10.231
60298SOL    HW282728  10.751   1.720  10.277
60299SOL     OW82729   2.360  11.320   3.994
60299SOL    HW182730   2.445  11.356   3.967
60299SOL    HW282731   2.320  11.388   4.047
60300SOL     OW82732   9.832   7.702   3.898
60300SOL    HW182733   9.784   7.620   3.906
60300SOL    HW282734   9.887   7.691   3.821
60301SOL     OW82735   8.826  12.673  11.434
60301SOL    HW182736   8.801  12.698  11.345
60301SOL    HW282737   8.863  12.585  11.425
60302SOL     OW82738   9.386   1.227   6.755
60302SOL    HW182739   9.300   1.244   6.792
60302SOL    HW282740   9.370   1.161   6.687
60303SOL     OW82741   0.710  12.978   0.387
60303SOL    HW182742   0.805  12.988   0.377
60303SOL    HW282743   0.690  13.022   0.470
60304SOL     OW82744   4.868   5.165   7.902
60304SOL    HW182745   4.794   5.118   7.942
60304SOL    HW282746   4.829   5.213   7.828
60305SOL     OW82747   4.917   7.630   6.614
60305SOL    HW182748   4.867   7.555   6.582
60305SOL    HW282749   4.912   7.624   6.710
60306SOL     OW82750   4.894   9.953   5.540
60306SOL    HW182751   4.806   9.933   5.510
60306SOL    HW282752   4.884   9.974   5.633
60307SOL     OW82753   4.882   6.972   8.668
60307SOL    HW182754   4.970   6.938   8.686
60307SOL    HW282755   4.856   7.015   8.749
60308SOL     OW82756   5.807   6.725  10.996
60308SOL    HW182757   5.842   6.638  11.018
60308SOL    HW282758   5.797   6.723  10.900
60309SOL     OW82759   7.623   8.653  11.436
60309SOL    HW182760   7.570   8.615  11.507
60309SOL    HW282761   7.587   8.740  11.423
60310SOL     OW82762  13.448   5.938  13.758
60310SOL    HW182763  13.542   5.954  13.750
60310SOL    HW282764  13.410   5.979  13.679
60311SOL     OW82765  11.423  12.284   3.193
60311SOL    HW182766  11.475  12.358   3.225
60311SOL    HW282767  11.333  12.305   3.221
60312SOL     OW82768  10.428  14.134  14.740
60312SOL    HW182769  10.391  14.092  14.663
60312SOL    HW282770  10.518  14.155  14.715
60313SOL     OW82771   7.576  10.442  10.400
60313SOL    HW182772   7.575  10.538  10.402
60313SOL    HW282773   7.484  10.417  10.408
60314SOL     OW82774   4.228   7.400  14.218
60314SOL    HW182775   4.133   7.398  14.212
60314SOL    HW282776   4.246   7.377  14.310
60315SOL     OW82777   6.639   3.920   3.368
60315SOL    HW182778   6.692   3.999   3.373
60315SOL    HW282779   6.593   3.927   3.285
60316SOL     OW82780  14.176  11.690  14.782
60316SOL    HW182781  14.194  11.603  14.818
60316SOL    HW282782  14.259  11.737  14.792
60317SOL     OW82783   7.829   5.662   6.781
60317SOL    HW182784   7.873   5.747   6.768
60317SOL    HW282785   7.889   5.598   6.742
60318SOL     OW82786   9.206   1.304   0.135
60318SOL    HW182787   9.155   1.385   0.142
60318SOL    HW282788   9.255   1.314   0.053
60319SOL     OW82789   8.542   4.866   7.598
60319SOL    HW182790   8.598   4.792   7.575
60319SOL    HW282791   8.464   4.855   7.544
60320SOL     OW82792   6.488  13.641   8.154
60320SOL    HW182793   6.475  13.699   8.078
60320SOL    HW282794   6.409  13.654   8.207
60321SOL     OW82795   5.074   6.307  11.528
60321SOL    HW182796   5.136   6.255  11.476
60321SOL    HW282797   5.022   6.354  11.462
60322SOL     OW82798  12.656   3.050  13.029
60322SOL    HW182799  12.568   3.086  13.015
60322SOL    HW282800  12.674   2.999  12.950
60323SOL     OW82801   3.735   2.592  10.790
60323SOL    HW182802   3.810   2.581  10.732
60323SOL    HW282803   3.674   2.524  10.762
60324SOL     OW82804   0.564   8.486   2.011
60324SOL    HW182805   0.570   8.581   2.014
60324SOL    HW282806   0.655   8.456   2.012
60325SOL     OW82807   1.604   5.870   1.365
60325SOL    HW182808   1.673   5.924   1.327
60325SOL    HW282809   1.651   5.804   1.415
60326SOL     OW82810   0.987   0.860   8.616
60326SOL    HW182811   0.914   0.798   8.614
60326SOL    HW282812   0.953   0.937   8.661
60327SOL     OW82813   4.047   3.681  13.382
60327SOL    HW182814   4.118   3.726  13.336
60327SOL    HW282815   4.056   3.710  13.473
60328SOL     OW82816  12.935  13.363   8.269
60328SOL    HW182817  12.939  13.294   8.335
60328SOL    HW282818  13.020  13.360   8.226
60329SOL     OW82819   0.966   2.744   4.325
60329SOL    HW182820   0.876   2.757   4.354
60329SOL    HW282821   1.008   2.699   4.399
60330SOL     OW82822  11.826   0.111   1.305
60330SOL    HW182823  11.787   0.039   1.256
60330SOL    HW282824  11.819   0.187   1.248
60331SOL     OW82825   8.019  13.843  13.168
60331SOL    HW182826   7.989  13.918  13.117
60331SOL    HW282827   8.063  13.787  13.104
60332SOL     OW82828  10.747   2.230   6.186
60332SOL    HW182829  10.722   2.315   6.149
60332SOL    HW282830  10.842   2.227   6.176
60333SOL     OW82831   6.623   0.721   7.973
60333SOL    HW182832   6.633   0.777   8.050
60333SOL    HW282833   6.684   0.649   7.989
60334SOL     OW82834   6.731   5.128   8.163
60334SOL    HW182835   6.673   5.201   8.183
60334SOL    HW282836   6.763   5.147   8.074
60335SOL     OW82837  10.031   8.278   4.816
60335SOL    HW182838   9.940   8.280   4.786
60335SOL    HW282839  10.082   8.268   4.735
60336SOL     OW82840   0.394   6.397   0.200
60336SOL    HW182841   0.378   6.491   0.193
60336SOL    HW282842   0.489   6.388   0.194
60337SOL     OW82843   0.790   5.190   2.791
60337SOL    HW182844   0.730   5.121   2.761
60337SOL    HW282845   0.829   5.154   2.871
60338SOL     OW82846   0.843   9.852   5.173
60338SOL    HW182847   0.836   9.832   5.267
60338SOL    HW282848   0.932   9.825   5.150
60339SOL     OW82849   6.001  10.104  12.644
60339SOL    HW182850   5.965  10.179  12.598
60339SOL    HW282851   6.066  10.140  12.704
60340SOL     OW82852   3.113  11.846  12.785
60340SOL    HW182853   3.128  11.782  12.855
60340SOL    HW282854   3.151  11.927  12.818
60341SOL     OW82855   1.052   8.539   0.042
60341SOL    HW182856   0.975   8.489   0.069
60341SOL    HW282857   1.025   8.582  14.840
60342SOL     OW82858  13.001   3.218  10.593
60342SOL    HW182859  12.938   3.271  10.642
60342SOL    HW282860  13.045   3.165  10.659
60343SOL     OW82861   2.548   3.267   1.341
60343SOL    HW182862   2.560   3.186   1.291
60343SOL    HW282863   2.470   3.251   1.394
60344SOL     OW82864  14.447  10.226  10.991
60344SOL    HW182865  14.429  10.147  11.042
60344SOL    HW282866  14.496  10.282  11.051
60345SOL     OW82867  10.288   5.745  10.526
60345SOL    HW182868  10.212   5.696  10.496
60345SOL    HW282869  10.297   5.721  10.618
60346SOL     OW82870  12.152   2.798   8.573
60346SOL    HW182871  12.127   2.848   8.495
60346SOL    HW282872  12.230   2.843   8.606
60347SOL     OW82873   7.113   3.060   2.437
60347SOL    HW182874   7.061   3.078   2.515
60347SOL    HW282875   7.063   3.100   2.366
60348SOL     OW82876   9.865   3.745   3.487
60348SOL    HW182877   9.896   3.708   3.405
60348SOL    HW282878   9.943   3.785   3.526
60349SOL     OW82879   3.581   3.373  12.800
60349SOL    HW182880   3.515   3.316  12.759
60349SOL    HW282881   3.573   3.455  12.752
60350SOL     OW82882  11.023   0.813  11.585
60350SOL    HW182883  11.090   0.746  11.600
60350SOL    HW282884  10.970   0.813  11.665
60351SOL     OW82885   9.743  12.115  10.161
60351SOL    HW182886   9.775  12.066  10.085
60351SOL    HW282887   9.798  12.084  10.233
60352SOL     OW82888   5.519   9.369   8.224
60352SOL    HW182889   5.614   9.356   8.217
60352SOL    HW282890   5.482   9.316   8.154
60353SOL     OW82891  12.285   3.507  11.912
60353SOL    HW182892  12.308   3.492  12.004
60353SOL    HW282893  12.190   3.501  11.909
60354SOL     OW82894  10.481   5.037  10.790
60354SOL    HW182895  10.398   5.060  10.750
60354SOL    HW282896  10.481   4.941  10.793
60355SOL     OW82897  10.032   1.917   5.680
60355SOL    HW182898  10.022   1.981   5.751
60355SOL    HW282899  10.074   1.842   5.722
60356SOL     OW82900   4.388  13.128   5.846
60356SOL    HW182901   4.427  13.056   5.796
60356SOL    HW282902   4.301  13.095   5.871
60357SOL     OW82903   5.854  11.038   2.756
60357SOL    HW182904   5.851  11.024   2.661
60357SOL    HW282905   5.874  10.952   2.792
60358SOL     OW82906   1.438   9.356   3.478
60358SOL    HW182907   1.414   9.432   3.425
60358SOL    HW282908   1.394   9.371   3.562
60359SOL     OW82909   2.012   5.049   3.412
60359SOL    HW182910   2.101   5.082   3.398
60359SOL    HW282911   1.960   5.090   3.343
60360SOL     OW82912   7.204   8.215   1.483
60360SOL    HW182913   7.184   8.174   1.567
60360SOL    HW282914   7.129   8.272   1.467
60361SOL     OW82915   1.319   0.034   2.241
60361SOL    HW182916   1.244   0.054   2.298
60361SOL    HW282917   1.323   0.107   2.180
60362SOL     OW82918   1.491  13.038   1.310
60362SOL    HW182919   1.475  12.977   1.239
60362SOL    HW282920   1.575  13.079   1.288
60363SOL     OW82921   2.148   2.093   1.167
60363SOL    HW182922   2.151   2.152   1.242
60363SOL    HW282923   2.088   2.023   1.193
60364SOL     OW82924   9.668   5.081   0.269
60364SOL    HW182925   9.609   5.032   0.325
60364SOL    HW282926   9.617   5.099   0.190
60365SOL     OW82927   4.291   8.700   7.923
60365SOL    HW182928   4.271   8.673   8.012
60365SOL    HW282929   4.251   8.787   7.914
60366SOL     OW82930  14.032   2.983  12.887
60366SOL    HW182931  14.074   2.898  12.891
60366SOL    HW282932  13.938   2.964  12.892
60367SOL     OW82933   4.239  13.946  12.864
60367SOL    HW182934   4.323  13.992  12.861
60367SOL    HW282935   4.255  13.865  12.814
60368SOL     OW82936  13.124   4.876  12.881
60368SOL    HW182937  13.185   4.826  12.827
60368SOL    HW282938  13.050   4.817  12.894
60369SOL     OW82939   6.300  11.141   2.273
60369SOL    HW182940   6.325  11.214   2.329
60369SOL    HW282941   6.364  11.144   2.201
60370SOL     OW82942   5.769  12.243   9.760
60370SOL    HW182943   5.810  12.326   9.785
60370SOL    HW282944   5.700  12.230   9.824
60371SOL     OW82945   6.970  11.881   8.413
60371SOL    HW182946   6.879  11.865   8.437
60371SOL    HW282947   6.970  11.969   8.375
60372SOL     OW82948  12.067   5.126  13.734
60372SOL    HW182949  12.157   5.092  13.730
60372SOL    HW282950  12.074   5.215  13.700
60373SOL     OW82951   5.546  13.304   2.446
60373SOL    HW182952   5.553  13.398   2.432
60373SOL    HW282953   5.597  13.288   2.525
60374SOL     OW82954   8.400   5.896   3.574
60374SOL    HW182955   8.453   5.885   3.495
60374SOL    HW282956   8.440   5.838   3.638
60375SOL     OW82957   2.579   0.726   5.075
60375SOL    HW182958   2.609   0.635   5.077
60375SOL    HW282959   2.492   0.724   5.113
60376SOL     OW82960   5.620   5.070  13.540
60376SOL    HW182961   5.630   5.064  13.445
60376SOL    HW282962   5.571   4.991  13.564
60377SOL     OW82963   0.715  10.634   3.436
60377SOL    HW182964   0.700  10.592   3.351
60377SOL    HW282965   0.808  10.616   3.454
60378SOL     OW82966   3.767   7.782  11.014
60378SOL    HW182967   3.806   7.695  11.009
60378SOL    HW282968   3.701   7.783  10.946
60379SOL     OW82969   2.827  14.591   3.777
60379SOL    HW182970   2.824  14.658   3.708
60379SOL    HW282971   2.737  14.560   3.784
60380SOL     OW82972   8.326   4.018   0.937
60380SOL    HW182973   8.403   4.024   0.995
60380SOL    HW282974   8.296   4.108   0.929
60381SOL     OW82975  11.355  14.869   8.727
60381SOL    HW182976  11.270   0.013   8.765
60381SOL    HW282977  11.404  14.830   8.800
60382SOL     OW82978  11.178   4.550   2.583
60382SOL    HW182979  11.191   4.595   2.667
60382SOL    HW282980  11.186   4.457   2.605
60383SOL     OW82981   7.607   1.807  12.763
60383SOL    HW182982   7.663   1.814  12.841
60383SOL    HW282983   7.557   1.727  12.776
60384SOL     OW82984   4.291  14.264  12.741
60384SOL    HW182985   4.334  14.226  12.818
60384SOL    HW282986   4.197  14.259  12.762
60385SOL     OW82987   7.073  10.942  10.844
60385SOL    HW182988   6.980  10.933  10.867
60385SOL    HW282989   7.074  11.012  10.778
60386SOL     OW82990  11.941  14.659  11.854
60386SOL    HW182991  11.970  14.629  11.769
60386SOL    HW282992  11.883  14.734  11.836
60387SOL     OW82993   6.280   8.001   1.645
60387SOL    HW182994   6.267   8.093   1.666
60387SOL    HW282995   6.208   7.956   1.689
60388SOL     OW82996   0.628   1.677   1.574
60388SOL    HW182997   0.655   1.585   1.572
60388SOL    HW282998   0.673   1.717   1.499
60389SOL     OW82999   4.152   4.561   6.781
60389SOL    HW183000   4.129   4.572   6.874
60389SOL    HW283001   4.211   4.486   6.780
60390SOL     OW83002   4.631   7.171   5.402
60390SOL    HW183003   4.707   7.124   5.368
60390SOL    HW283004   4.666   7.227   5.471
60391SOL     OW83005  13.754   3.276  12.581
60391SOL    HW183006  13.727   3.184  12.577
60391SOL    HW283007  13.839   3.277  12.536
60392SOL     OW83008   9.908   8.871   9.156
60392SOL    HW183009   9.967   8.933   9.115
60392SOL    HW283010   9.953   8.787   9.151
60393SOL     OW83011   1.550  12.290   0.016
60393SOL    HW183012   1.507  12.229   0.074
60393SOL    HW283013   1.577  12.362   0.072
60394SOL     OW83014   5.875   2.370  11.267
60394SOL    HW183015   5.846   2.285  11.235
60394SOL    HW283016   5.914   2.352  11.352
60395SOL     OW83017   3.074  11.185   4.226
60395SOL    HW183018   3.070  11.178   4.131
60395SOL    HW283019   3.046  11.274   4.245
60396SOL     OW83020   9.259   0.973   8.477
60396SOL    HW183021   9.260   1.026   8.557
60396SOL    HW283022   9.271   0.883   8.507
60397SOL     OW83023  12.522   6.416  10.055
60397SOL    HW183024  12.572   6.461  10.123
60397SOL    HW283025  12.439   6.392  10.097
60398SOL     OW83026   8.017  10.737   5.652
60398SOL    HW183027   7.976  10.657   5.685
60398SOL    HW283028   7.958  10.807   5.677
60399SOL     OW83029   1.299   7.418  14.570
60399SOL    HW183030   1.386   7.382  14.588
60399SOL    HW283031   1.283   7.477  14.644
60400SOL     OW83032   0.177   6.988   6.567
60400SOL    HW183033   0.109   6.968   6.631
60400SOL    HW283034   0.133   6.982   6.483
60401SOL     OW83035  14.081   5.461   0.403
60401SOL    HW183036  14.156   5.415   0.366
60401SOL    HW283037  14.063   5.532   0.341
60402SOL     OW83038   9.931  13.431   2.991
60402SOL    HW183039   9.835  13.425   2.990
60402SOL    HW283040   9.957  13.414   2.901
60403SOL     OW83041  12.302   0.887   7.508
60403SOL    HW183042  12.355   0.808   7.512
60403SOL    HW283043  12.314   0.920   7.419
60404SOL     OW83044   5.449  10.976   8.143
60404SOL    HW183045   5.415  10.903   8.091
60404SOL    HW283046   5.481  10.935   8.223
60405SOL     OW83047  11.909   3.832   6.016
60405SOL    HW183048  11.860   3.912   5.997
60405SOL    HW283049  11.994   3.846   5.974
60406SOL     OW83050   9.885   6.960  11.583
60406SOL    HW183051   9.863   7.040  11.632
60406SOL    HW283052   9.806   6.907  11.588
60407SOL     OW83053   9.280  11.587   0.791
60407SOL    HW183054   9.369  11.564   0.764
60407SOL    HW283055   9.288  11.613   0.883
60408SOL     OW83056   4.128  11.661   1.813
60408SOL    HW183057   4.058  11.678   1.750
60408SOL    HW283058   4.197  11.621   1.760
60409SOL     OW83059   0.111   9.386   1.934
60409SOL    HW183060   0.163   9.438   1.996
60409SOL    HW283061   0.091   9.305   1.982
60410SOL     OW83062  14.368   1.684  11.293
60410SOL    HW183063  14.446   1.645  11.333
60410SOL    HW283064  14.295   1.639  11.336
60411SOL     OW83065   2.482   3.202  11.298
60411SOL    HW183066   2.424   3.276  11.315
60411SOL    HW283067   2.463   3.177  11.207
60412SOL     OW83068   8.183   7.417  11.824
60412SOL    HW183069   8.223   7.432  11.738
60412SOL    HW283070   8.249   7.367  11.873
60413SOL     OW83071   3.416  14.651  12.045
60413SOL    HW183072   3.434  14.687  11.958
60413SOL    HW283073   3.407  14.557  12.032
60414SOL     OW83074  11.364   9.377  11.842
60414SOL    HW183075  11.294   9.437  11.818
60414SOL    HW283076  11.417   9.368  11.763
60415SOL     OW83077  10.956  10.663   6.779
60415SOL    HW183078  10.888  10.613   6.825
60415SOL    HW283079  10.977  10.610   6.702
60416SOL     OW83080  12.986  12.798  12.933
60416SOL    HW183081  13.057  12.858  12.911
60416SOL    HW283082  12.912  12.829  12.881
60417SOL     OW83083  13.038   3.321   4.991
60417SOL    HW183084  13.102   3.317   4.920
60417SOL    HW283085  13.088   3.301   5.070
60418SOL     OW83086   9.021   5.889   0.641
60418SOL    HW183087   8.984   5.886   0.553
60418SOL    HW283088   8.993   5.807   0.681
60419SOL     OW83089   3.440   6.804  13.418
60419SOL    HW183090   3.366   6.854  13.451
60419SOL    HW283091   3.513   6.866  13.419
60420SOL     OW83092   5.260   8.765   1.498
60420SOL    HW183093   5.340   8.736   1.454
60420SOL    HW283094   5.202   8.790   1.426
60421SOL     OW83095  11.323  11.507  12.957
60421SOL    HW183096  11.235  11.541  12.942
60421SOL    HW283097  11.375  11.585  12.980
60422SOL     OW83098   7.000  11.546   2.466
60422SOL    HW183099   7.091  11.565   2.443
60422SOL    HW283100   6.967  11.496   2.391
60423SOL     OW83101   9.904   8.354   4.178
60423SOL    HW183102   9.951   8.287   4.127
60423SOL    HW283103   9.898   8.429   4.119
60424SOL     OW83104   9.097   3.470   6.398
60424SOL    HW183105   9.101   3.387   6.350
60424SOL    HW283106   9.167   3.463   6.463
60425SOL     OW83107  13.230   6.516   0.173
60425SOL    HW183108  13.310   6.493   0.220
60425SOL    HW283109  13.173   6.440   0.183
60426SOL     OW83110   7.115  13.666   6.981
60426SOL    HW183111   7.090  13.583   6.942
60426SOL    HW283112   7.174  13.642   7.053
60427SOL     OW83113   9.697   8.149   0.903
60427SOL    HW183114   9.785   8.120   0.881
60427SOL    HW283115   9.641   8.109   0.837
60428SOL     OW83116   9.214   1.595   3.756
60428SOL    HW183117   9.190   1.670   3.702
60428SOL    HW283118   9.147   1.591   3.824
60429SOL     OW83119   8.919   4.258   9.379
60429SOL    HW183120   8.918   4.285   9.470
60429SOL    HW283121   8.878   4.171   9.379
60430SOL     OW83122   7.839   2.399   4.716
60430SOL    HW183123   7.908   2.465   4.708
60430SOL    HW283124   7.787   2.428   4.791
60431SOL     OW83125   6.954   7.998   7.611
60431SOL    HW183126   7.038   8.023   7.573
60431SOL    HW283127   6.969   7.910   7.647
60432SOL     OW83128  12.019  12.531   3.247
60432SOL    HW183129  12.037  12.593   3.177
60432SOL    HW283130  11.928  12.506   3.234
60433SOL     OW83131   2.164  10.398   6.415
60433SOL    HW183132   2.144  10.305   6.400
60433SOL    HW283133   2.148  10.411   6.508
60434SOL     OW83134  11.247   1.932   5.656
60434SOL    HW183135  11.279   1.942   5.745
60434SOL    HW283136  11.265   1.841   5.634
60435SOL     OW83137  13.297   8.981   6.629
60435SOL    HW183138  13.308   8.999   6.723
60435SOL    HW283139  13.243   9.053   6.597
60436SOL     OW83140   2.540   6.744   3.974
60436SOL    HW183141   2.463   6.723   3.922
60436SOL    HW283142   2.521   6.709   4.061
60437SOL     OW83143   2.343   6.928   7.606
60437SOL    HW183144   2.430   6.967   7.615
60437SOL    HW283145   2.339   6.897   7.516
60438SOL     OW83146  10.256  10.089  10.730
60438SOL    HW183147  10.170  10.083  10.689
60438SOL    HW283148  10.305  10.151  10.675
60439SOL     OW83149   6.083   2.849  13.595
60439SOL    HW183150   6.158   2.832  13.538
60439SOL    HW283151   6.098   2.938  13.629
60440SOL     OW83152   7.413  14.310   5.882
60440SOL    HW183153   7.387  14.229   5.925
60440SOL    HW283154   7.409  14.376   5.951
60441SOL     OW83155  12.692   8.646   6.694
60441SOL    HW183156  12.766   8.659   6.635
60441SOL    HW283157  12.725   8.668   6.781
60442SOL     OW83158  10.758   8.767   3.169
60442SOL    HW183159  10.784   8.799   3.255
60442SOL    HW283160  10.677   8.718   3.185
60443SOL     OW83161   9.691   8.386   2.658
60443SOL    HW183162   9.679   8.463   2.713
60443SOL    HW283163   9.731   8.321   2.716
60444SOL     OW83164   9.278   1.773   2.948
60444SOL    HW183165   9.191   1.748   2.978
60444SOL    HW283166   9.266   1.798   2.857
60445SOL     OW83167  13.602  14.177   3.877
60445SOL    HW183168  13.672  14.191   3.814
60445SOL    HW283169  13.643  14.129   3.949
60446SOL     OW83170  13.944   5.637   4.840
60446SOL    HW183171  13.966   5.560   4.894
60446SOL    HW283172  13.853   5.622   4.815
60447SOL     OW83173   4.534   3.729  13.021
60447SOL    HW183174   4.536   3.719  12.926
60447SOL    HW283175   4.549   3.822  13.036
60448SOL     OW83176  13.226   7.472   2.003
60448SOL    HW183177  13.298   7.413   2.025
60448SOL    HW283178  13.157   7.451   2.066
60449SOL     OW83179   9.765  12.777  12.730
60449SOL    HW183180   9.707  12.823  12.791
60449SOL    HW283181   9.770  12.688  12.764
60450SOL     OW83182   4.007   2.614   5.971
60450SOL    HW183183   3.919   2.607   6.008
60450SOL    HW283184   4.062   2.562   6.030
60451SOL     OW83185   0.621   8.166  13.129
60451SOL    HW183186   0.539   8.118  13.136
60451SOL    HW283187   0.631   8.208  13.214
60452SOL     OW83188  13.325  12.794  10.909
60452SOL    HW183189  13.310  12.758  10.821
60452SOL    HW283190  13.298  12.885  10.902
60453SOL     OW83191  14.129   8.848   2.124
60453SOL    HW183192  14.154   8.869   2.214
60453SOL    HW283193  14.209   8.859   2.073
60454SOL     OW83194   5.821  11.828   8.748
60454SOL    HW183195   5.825  11.737   8.777
60454SOL    HW283196   5.909  11.847   8.714
60455SOL     OW83197   2.945   8.395   0.499
60455SOL    HW183198   2.933   8.316   0.551
60455SOL    HW283199   2.875   8.391   0.433
60456SOL     OW83200   2.145  13.871  12.127
60456SOL    HW183201   2.154  13.844  12.218
60456SOL    HW283202   2.069  13.823  12.094
60457SOL     OW83203   8.076   1.181   8.833
60457SOL    HW183204   8.030   1.110   8.788
60457SOL    HW283205   8.088   1.148   8.923
60458SOL     OW83206  12.847  12.239   8.788
60458SOL    HW183207  12.864  12.173   8.722
60458SOL    HW283208  12.809  12.191   8.862
60459SOL     OW83209  14.658  13.474  11.341
60459SOL    HW183210  14.746  13.484  11.375
60459SOL    HW283211  14.645  13.551  11.285
60460SOL     OW83212   9.876  12.615   7.665
60460SOL    HW183213   9.928  12.674   7.720
60460SOL    HW283214   9.788  12.653   7.665
60461SOL     OW83215   0.643   6.872   0.861
60461SOL    HW183216   0.588   6.856   0.937
60461SOL    HW283217   0.728   6.833   0.883
60462SOL     OW83218   0.170   5.123   6.703
60462SOL    HW183219   0.170   5.093   6.794
60462SOL    HW283220   0.091   5.176   6.695
60463SOL     OW83221   8.077   3.016   0.190
60463SOL    HW183222   8.067   3.033   0.284
60463SOL    HW283223   8.033   2.932   0.176
60464SOL     OW83224   2.177   1.301   2.387
60464SOL    HW183225   2.135   1.221   2.354
60464SOL    HW283226   2.211   1.344   2.308
60465SOL     OW83227   4.669  14.528  10.204
60465SOL    HW183228   4.717  14.531  10.287
60465SOL    HW283229   4.664  14.619  10.176
60466SOL     OW83230   7.037  13.745  10.931
60466SOL    HW183231   7.106  13.789  10.881
60466SOL    HW283232   6.956  13.783  10.898
60467SOL     OW83233   1.372   8.757   4.281
60467SOL    HW183234   1.427   8.688   4.245
60467SOL    HW283235   1.405   8.838   4.241
60468SOL     OW83236   7.560   3.570   4.785
60468SOL    HW183237   7.498   3.608   4.723
60468SOL    HW283238   7.512   3.569   4.868
60469SOL     OW83239  11.280   6.156   5.319
60469SOL    HW183240  11.191   6.191   5.327
60469SOL    HW283241  11.334   6.212   5.375
60470SOL     OW83242   3.265  11.299   7.363
60470SOL    HW183243   3.275  11.299   7.267
60470SOL    HW283244   3.208  11.225   7.381
60471SOL     OW83245  10.003   2.397   2.752
60471SOL    HW183246   9.976   2.307   2.730
60471SOL    HW283247  10.092   2.387   2.785
60472SOL     OW83248   6.230   5.027   6.739
60472SOL    HW183249   6.136   5.031   6.756
60472SOL    HW283250   6.271   5.062   6.818
60473SOL     OW83251   7.894   9.218   6.590
60473SOL    HW183252   7.942   9.229   6.508
60473SOL    HW283253   7.900   9.124   6.607
60474SOL     OW83254   1.053   7.977   2.222
60474SOL    HW183255   1.105   7.964   2.301
60474SOL    HW283256   0.993   7.903   2.220
60475SOL     OW83257   9.043  14.492  13.954
60475SOL    HW183258   9.053  14.497  13.859
60475SOL    HW283259   8.982  14.419  13.969
60476SOL     OW83260   1.917  14.247  12.166
60476SOL    HW183261   2.008  14.263  12.191
60476SOL    HW283262   1.866  14.293  12.233
60477SOL     OW83263   4.240   8.323   5.668
60477SOL    HW183264   4.258   8.261   5.598
60477SOL    HW283265   4.246   8.409   5.627
60478SOL     OW83266  13.141  14.494  13.014
60478SOL    HW183267  13.068  14.442  12.982
60478SOL    HW283268  13.162  14.553  12.941
60479SOL     OW83269   3.367   9.313   5.668
60479SOL    HW183270   3.359   9.401   5.632
60479SOL    HW283271   3.398   9.326   5.758
60480SOL     OW83272   2.615  11.039   7.088
60480SOL    HW183273   2.611  11.092   7.167
60480SOL    HW283274   2.540  11.068   7.035
60481SOL     OW83275   7.074   2.625   2.187
60481SOL    HW183276   7.085   2.647   2.280
60481SOL    HW283277   7.163   2.610   2.155
60482SOL     OW83278  12.015   6.219   5.540
60482SOL    HW183279  11.970   6.135   5.553
60482SOL    HW283280  11.971   6.258   5.464
60483SOL     OW83281   9.894  12.720   6.937
60483SOL    HW183282   9.818  12.698   6.883
60483SOL    HW283283   9.894  12.655   7.007
60484SOL     OW83284  13.476   0.625   8.446
60484SOL    HW183285  13.497   0.552   8.387
60484SOL    HW283286  13.559   0.645   8.489
60485SOL     OW83287  11.058  14.461   6.241
60485SOL    HW183288  11.087  14.414   6.319
60485SOL    HW283289  10.967  14.434   6.228
60486SOL     OW83290   8.041  10.171  12.947
60486SOL    HW183291   8.004  10.198  12.863
60486SOL    HW283292   8.016  10.240  13.007
60487SOL     OW83293  12.197  14.181  10.602
60487SOL    HW183294  12.216  14.099  10.647
60487SOL    HW283295  12.222  14.165  10.511
60488SOL     OW83296   7.113   1.711   4.504
60488SOL    HW183297   7.098   1.658   4.426
60488SOL    HW283298   7.203   1.691   4.530
60489SOL     OW83299   8.960   0.474   0.209
60489SOL    HW183300   9.000   0.389   0.190
60489SOL    HW283301   8.924   0.503   0.125
60490SOL     OW83302  11.917   3.676  14.576
60490SOL    HW183303  11.861   3.649  14.648
60490SOL    HW283304  11.888   3.623  14.501
60491SOL     OW83305   1.902  14.356   0.203
60491SOL    HW183306   1.975  14.390   0.151
60491SOL    HW283307   1.922  14.263   0.214
60492SOL     OW83308   2.577  11.012   7.656
60492SOL    HW183309   2.590  10.970   7.572
60492SOL    HW283310   2.587  11.105   7.638
60493SOL     OW83311   2.501   2.556  13.747
60493SOL    HW183312   2.449   2.530  13.671
60493SOL    HW283313   2.586   2.514  13.733
60494SOL     OW83314   5.820   7.450  12.064
60494SOL    HW183315   5.861   7.367  12.041
60494SOL    HW283316   5.892   7.504  12.096
60495SOL     OW83317   5.561   2.784  10.258
60495SOL    HW183318   5.578   2.790  10.164
60495SOL    HW283319   5.497   2.714  10.267
60496SOL     OW83320   3.592   6.403   6.865
60496SOL    HW183321   3.547   6.355   6.934
60496SOL    HW283322   3.521   6.436   6.809
60497SOL     OW83323  12.934   4.542  11.119
60497SOL    HW183324  12.983   4.603  11.063
60497SOL    HW283325  12.924   4.464  11.065
60498SOL     OW83326   8.440   8.123   2.716
60498SOL    HW183327   8.460   8.029   2.714
60498SOL    HW283328   8.477   8.153   2.799
60499SOL     OW83329   3.790   0.987   4.220
60499SOL    HW183330   3.785   1.083   4.221
60499SOL    HW283331   3.881   0.968   4.242
60500SOL     OW83332  14.317  14.768  11.049
60500SOL    HW183333  14.296  14.730  11.134
60500SOL    HW283334  14.245  14.740  10.992
60501SOL     OW83335  11.826   7.245   0.571
60501SOL    HW183336  11.914   7.275   0.549
60501SOL    HW283337  11.840   7.163   0.619
60502SOL     OW83338   2.100   7.554   0.765
60502SOL    HW183339   2.088   7.496   0.690
60502SOL    HW283340   2.155   7.505   0.826
60503SOL     OW83341  10.951   6.081   6.709
60503SOL    HW183342  10.914   6.008   6.758
60503SOL    HW283343  11.012   6.122   6.770
60504SOL     OW83344   6.717   2.673   0.843
60504SOL    HW183345   6.722   2.661   0.938
60504SOL    HW283346   6.737   2.586   0.808
60505SOL     OW83347  11.681   8.659   9.540
60505SOL    HW183348  11.697   8.669   9.446
60505SOL    HW283349  11.640   8.741   9.566
60506SOL     OW83350   6.249   3.408  11.104
60506SOL    HW183351   6.190   3.334  11.089
60506SOL    HW283352   6.205   3.482  11.061
60507SOL     OW83353  12.209   7.453  12.671
60507SOL    HW183354  12.292   7.431  12.629
60507SOL    HW283355  12.180   7.372  12.710
60508SOL     OW83356   2.854  10.618   8.197
60508SOL    HW183357   2.947  10.600   8.210
60508SOL    HW283358   2.810  10.559   8.258
60509SOL     OW83359   5.901   7.462  10.668
60509SOL    HW183360   5.832   7.503  10.615
60509SOL    HW283361   5.854   7.400  10.724
60510SOL     OW83362   8.055   0.767   2.690
60510SOL    HW183363   7.989   0.720   2.742
60510SOL    HW283364   8.098   0.825   2.754
60511SOL     OW83365  12.371   3.377   4.432
60511SOL    HW183366  12.377   3.437   4.358
60511SOL    HW283367  12.408   3.294   4.400
60512SOL     OW83368  11.055   6.743  12.781
60512SOL    HW183369  11.034   6.703  12.866
60512SOL    HW283370  11.116   6.814  12.802
60513SOL     OW83371   3.172   0.268   5.989
60513SOL    HW183372   3.155   0.361   6.008
60513SOL    HW283373   3.251   0.248   6.040
60514SOL     OW83374   9.536   6.249   6.907
60514SOL    HW183375   9.446   6.231   6.879
60514SOL    HW283376   9.584   6.263   6.826
60515SOL     OW83377  12.662   0.141   7.352
60515SOL    HW183378  12.669   0.051   7.321
60515SOL    HW283379  12.753   0.169   7.365
60516SOL     OW83380   9.170   8.830  13.981
60516SOL    HW183381   9.227   8.798  13.912
60516SOL    HW283382   9.166   8.925  13.968
60517SOL     OW83383   5.386   0.277  13.352
60517SOL    HW183384   5.321   0.305  13.417
60517SOL    HW283385   5.338   0.218  13.294
60518SOL     OW83386   6.820  11.199   6.840
60518SOL    HW183387   6.826  11.288   6.876
60518SOL    HW283388   6.800  11.144   6.915
60519SOL     OW83389  11.241  12.755   0.291
60519SOL    HW183390  11.208  12.782   0.377
60519SOL    HW283391  11.265  12.837   0.249
60520SOL     OW83392   1.617  14.287   7.337
60520SOL    HW183393   1.574  14.244   7.411
60520SOL    HW283394   1.616  14.380   7.358
60521SOL     OW83395  11.064   1.023   7.767
60521SOL    HW183396  11.150   1.052   7.797
60521SOL    HW283397  11.075   1.009   7.673
60522SOL     OW83398   2.212   9.925  13.116
60522SOL    HW183399   2.217   9.858  13.185
60522SOL    HW283400   2.291   9.912  13.064
60523SOL     OW83401  14.123   3.994   6.058
60523SOL    HW183402  14.167   4.040   5.987
60523SOL    HW283403  14.115   4.059   6.128
60524SOL     OW83404  14.514   4.741  13.838
60524SOL    HW183405  14.547   4.747  13.928
60524SOL    HW283406  14.420   4.756  13.847
60525SOL     OW83407   3.102   5.405  10.614
60525SOL    HW183408   3.106   5.312  10.636
60525SOL    HW283409   3.134   5.410  10.524
60526SOL     OW83410  13.344  11.498   2.753
60526SOL    HW183411  13.434  11.477   2.779
60526SOL    HW283412  13.354  11.558   2.678
60527SOL     OW83413   6.638  13.544   7.064
60527SOL    HW183414   6.646  13.638   7.079
60527SOL    HW283415   6.584  13.513   7.137
60528SOL     OW83416   2.667  12.515  12.567
60528SOL    HW183417   2.720  12.495  12.644
60528SOL    HW283418   2.686  12.443  12.506
60529SOL     OW83419   9.403  13.230   9.591
60529SOL    HW183420   9.365  13.183   9.666
60529SOL    HW283421   9.347  13.207   9.517
60530SOL     OW83422   9.935   8.222   9.413
60530SOL    HW183423   9.841   8.216   9.399
60530SOL    HW283424   9.973   8.190   9.331
60531SOL     OW83425   1.059   9.344   3.537
60531SOL    HW183426   1.062   9.249   3.546
60531SOL    HW283427   0.966   9.365   3.534
60532SOL     OW83428  14.431  13.405   1.579
60532SOL    HW183429  14.505  13.431   1.524
60532SOL    HW283430  14.357  13.400   1.518
60533SOL     OW83431   9.444   4.165   6.167
60533SOL    HW183432   9.422   4.078   6.201
60533SOL    HW283433   9.402   4.226   6.227
60534SOL     OW83434  10.621   3.869  11.931
60534SOL    HW183435  10.561   3.876  12.005
60534SOL    HW283436  10.569   3.830  11.861
60535SOL     OW83437  13.672   5.458  12.411
60535SOL    HW183438  13.620   5.536  12.425
60535SOL    HW283439  13.756   5.490  12.379
60536SOL     OW83440  11.196   5.686   6.319
60536SOL    HW183441  11.108   5.649   6.319
60536SOL    HW283442  11.196   5.747   6.245
60537SOL     OW83443  12.961   3.217   8.826
60537SOL    HW183444  13.050   3.226   8.860
60537SOL    HW283445  12.904   3.247   8.898
60538SOL     OW83446   1.848   5.983   7.317
60538SOL    HW183447   1.936   6.002   7.349
60538SOL    HW283448   1.861   5.918   7.248
60539SOL     OW83449  13.331  14.474   2.499
60539SOL    HW183450  13.396  14.467   2.569
60539SOL    HW283451  13.370  14.425   2.426
60540SOL     OW83452  10.124   6.237   5.961
60540SOL    HW183453  10.169   6.272   5.885
60540SOL    HW283454  10.152   6.145   5.965
60541SOL     OW83455  14.114   7.051   4.750
60541SOL    HW183456  14.085   7.139   4.772
60541SOL    HW283457  14.054   6.993   4.796
60542SOL     OW83458  11.174   6.089   2.968
60542SOL    HW183459  11.167   6.049   2.881
60542SOL    HW283460  11.086   6.079   3.006
60543SOL     OW83461  11.805  14.463   9.129
60543SOL    HW183462  11.890  14.500   9.105
60543SOL    HW283463  11.801  14.468   9.224
60544SOL     OW83464   8.538   5.719  14.452
60544SOL    HW183465   8.534   5.749  14.542
60544SOL    HW283466   8.526   5.624  14.458
60545SOL     OW83467   9.395   2.939  10.009
60545SOL    HW183468   9.487   2.962   9.997
60545SOL    HW283469   9.361   2.928   9.920
60546SOL     OW83470   3.702   4.048  12.618
60546SOL    HW183471   3.720   4.077  12.707
60546SOL    HW283472   3.702   3.952  12.623
60547SOL     OW83473  13.975   0.205   7.823
60547SOL    HW183474  13.929   0.212   7.740
60547SOL    HW283475  14.029   0.284   7.827
60548SOL     OW83476   2.211   2.209   5.005
60548SOL    HW183477   2.239   2.153   4.933
60548SOL    HW283478   2.262   2.290   4.994
60549SOL     OW83479   7.750   8.236   2.772
60549SOL    HW183480   7.708   8.321   2.785
60549SOL    HW283481   7.843   8.256   2.764
60550SOL     OW83482   5.056  12.325  12.093
60550SOL    HW183483   5.066  12.420  12.097
60550SOL    HW283484   4.963  12.310  12.112
60551SOL     OW83485  13.715   1.654   3.983
60551SOL    HW183486  13.737   1.635   4.074
60551SOL    HW283487  13.702   1.568   3.943
60552SOL     OW83488   0.433  12.499   7.909
60552SOL    HW183489   0.441  12.541   7.995
60552SOL    HW283490   0.417  12.406   7.929
60553SOL     OW83491   9.923   3.895   7.897
60553SOL    HW183492   9.837   3.855   7.909
60553SOL    HW283493   9.909   3.963   7.831
60554SOL     OW83494   7.257   0.227  13.004
60554SOL    HW183495   7.266   0.247  13.097
60554SOL    HW283496   7.316   0.289  12.961
60555SOL     OW83497   0.320  10.388  14.511
60555SOL    HW183498   0.252  10.327  14.542
60555SOL    HW283499   0.369  10.338  14.446
60556SOL     OW83500   8.649  11.443   4.906
60556SOL    HW183501   8.744  11.436   4.896
60556SOL    HW283502   8.625  11.368   4.960
60557SOL     OW83503  14.724  12.261   2.177
60557SOL    HW183504  14.728  12.330   2.244
60557SOL    HW283505  14.688  12.185   2.223
60558SOL     OW83506  10.638  12.264  13.178
60558SOL    HW183507  10.551  12.225  13.190
60558SOL    HW283508  10.620  12.356  13.161
60559SOL     OW83509   5.128   4.627   5.719
60559SOL    HW183510   5.113   4.590   5.632
60559SOL    HW283511   5.222   4.619   5.733
60560SOL     OW83512   1.169   7.275   1.579
60560SOL    HW183513   1.247   7.300   1.530
60560SOL    HW283514   1.115   7.229   1.515
60561SOL     OW83515   9.067   9.835   3.924
60561SOL    HW183516   9.042   9.861   3.835
60561SOL    HW283517   9.003   9.769   3.949
60562SOL     OW83518   0.031  12.641   8.360
60562SOL    HW183519   0.095  12.655   8.289
60562SOL    HW283520  14.841  12.588   8.320
60563SOL     OW83521  10.699  10.215   9.906
60563SOL    HW183522  10.712  10.255   9.992
60563SOL    HW283523  10.786  10.185   9.880
60564SOL     OW83524  12.325   3.056   5.990
60564SOL    HW183525  12.332   2.983   5.930
60564SOL    HW283526  12.376   3.126   5.949
60565SOL     OW83527   9.267   4.701   3.314
60565SOL    HW183528   9.199   4.635   3.330
60565SOL    HW283529   9.241   4.776   3.367
60566SOL     OW83530   8.052   7.002   3.425
60566SOL    HW183531   8.087   7.068   3.485
60566SOL    HW283532   8.046   7.047   3.341
60567SOL     OW83533  10.104   4.901   1.374
60567SOL    HW183534  10.014   4.927   1.354
60567SOL    HW283535  10.104   4.887   1.469
60568SOL     OW83536  12.428  12.927   3.552
60568SOL    HW183537  12.457  12.867   3.620
60568SOL    HW283538  12.368  12.988   3.596
60569SOL     OW83539  11.991   9.392   0.480
60569SOL    HW183540  11.982   9.428   0.392
60569SOL    HW283541  12.077   9.351   0.481
60570SOL     OW83542   4.567  11.615   0.338
60570SOL    HW183543   4.660  11.603   0.357
60570SOL    HW283544   4.561  11.604   0.243
60571SOL     OW83545   2.070   5.218   6.875
60571SOL    HW183546   2.009   5.203   6.803
60571SOL    HW283547   2.152   5.176   6.846
60572SOL     OW83548   9.233   9.839   1.378
60572SOL    HW183549   9.229   9.802   1.466
60572SOL    HW283550   9.142   9.859   1.356
60573SOL     OW83551   7.158   3.857   3.756
60573SOL    HW183552   7.166   3.782   3.815
60573SOL    HW283553   7.140   3.817   3.670
60574SOL     OW83554  10.698  13.198  13.167
60574SOL    HW183555  10.778  13.212  13.218
60574SOL    HW283556  10.708  13.112  13.128
60575SOL     OW83557   4.001   3.485  11.519
60575SOL    HW183558   3.906   3.493  11.511
60575SOL    HW283559   4.015   3.411  11.577
60576SOL     OW83560   2.306   4.520   0.024
60576SOL    HW183561   2.353   4.450  14.858
60576SOL    HW283562   2.342   4.520   0.112
60577SOL     OW83563  13.515   2.800   4.635
60577SOL    HW183564  13.567   2.853   4.695
60577SOL    HW283565  13.579   2.767   4.571
60578SOL     OW83566  10.183  11.553   0.064
60578SOL    HW183567  10.128  11.519   0.134
60578SOL    HW283568  10.267  11.572   0.107
60579SOL     OW83569   1.064   9.032   1.651
60579SOL    HW183570   1.058   9.056   1.559
60579SOL    HW283571   1.021   8.947   1.657
60580SOL     OW83572  14.677  10.217  11.592
60580SOL    HW183573  14.641  10.228  11.681
60580SOL    HW283574  14.727  10.135  11.596
60581SOL     OW83575   7.751   7.827   1.624
60581SOL    HW183576   7.803   7.746   1.622
60581SOL    HW283577   7.730   7.843   1.532
60582SOL     OW83578  10.972   3.867   6.372
60582SOL    HW183579  10.975   3.779   6.409
60582SOL    HW283580  11.040   3.915   6.420
60583SOL     OW83581   2.570   5.212  14.142
60583SOL    HW183582   2.530   5.286  14.096
60583SOL    HW283583   2.497   5.155  14.165
60584SOL     OW83584  13.443  10.113  11.167
60584SOL    HW183585  13.486  10.194  11.141
60584SOL    HW283586  13.492  10.082  11.243
60585SOL     OW83587  10.899  14.782   1.611
60585SOL    HW183588  10.993  14.768   1.617
60585SOL    HW283589  10.860  14.702   1.646
60586SOL     OW83590   5.472   0.061   7.734
60586SOL    HW183591   5.412   0.121   7.689
60586SOL    HW283592   5.447   0.067   7.826
60587SOL     OW83593   5.761   6.577   2.080
60587SOL    HW183594   5.781   6.518   2.153
60587SOL    HW283595   5.724   6.655   2.120
60588SOL     OW83596   2.571  10.051   9.828
60588SOL    HW183597   2.617  10.042   9.745
60588SOL    HW283598   2.638  10.082   9.890
60589SOL     OW83599   6.278   1.241  13.383
60589SOL    HW183600   6.262   1.238  13.289
60589SOL    HW283601   6.213   1.182  13.421
60590SOL     OW83602   3.429   1.179  12.380
60590SOL    HW183603   3.344   1.135  12.385
60590SOL    HW283604   3.460   1.179  12.471
60591SOL     OW83605   0.375   2.442   6.465
60591SOL    HW183606   0.359   2.487   6.548
60591SOL    HW283607   0.341   2.502   6.398
60592SOL     OW83608  10.106   3.925   0.570
60592SOL    HW183609  10.063   3.934   0.485
60592SOL    HW283610  10.048   3.968   0.632
60593SOL     OW83611   8.419   7.762  14.832
60593SOL    HW183612   8.428   7.795   0.043
60593SOL    HW283613   8.344   7.810  14.797
60594SOL     OW83614   9.861  10.287   0.180
60594SOL    HW183615   9.849  10.192   0.189
60594SOL    HW283616   9.780  10.318   0.140
60595SOL     OW83617   4.861   3.780   3.268
60595SOL    HW183618   4.767   3.800   3.266
60595SOL    HW283619   4.871   3.714   3.337
60596SOL     OW83620   1.901   8.474   0.750
60596SOL    HW183621   1.986   8.462   0.708
60596SOL    HW283622   1.866   8.554   0.710
60597SOL     OW83623   8.381   3.156   6.497
60597SOL    HW183624   8.320   3.118   6.560
60597SOL    HW283625   8.363   3.250   6.500
60598SOL     OW83626   2.674   3.984   5.555
60598SOL    HW183627   2.765   4.008   5.575
60598SOL    HW283628   2.680   3.921   5.484
60599SOL     OW83629  10.880  10.546   7.666
60599SOL    HW183630  10.795  10.516   7.697
60599SOL    HW283631  10.861  10.623   7.614
60600SOL     OW83632  11.455   0.372   1.606
60600SOL    HW183633  11.483   0.303   1.666
60600SOL    HW283634  11.418   0.440   1.662
60601SOL     OW83635   8.047   5.506  12.235
60601SOL    HW183636   8.021   5.540  12.320
60601SOL    HW283637   8.096   5.578  12.194
60602SOL     OW83638   9.034   2.377   1.917
60602SOL    HW183639   9.029   2.467   1.886
60602SOL    HW283640   9.080   2.330   1.847
60603SOL     OW83641   9.487   3.147  14.079
60603SOL    HW183642   9.440   3.065  14.093
60603SOL    HW283643   9.430   3.197  14.020
60604SOL     OW83644  10.058   2.221   9.774
60604SOL    HW183645  10.044   2.271   9.694
60604SOL    HW283646   9.993   2.256   9.836
60605SOL     OW83647   0.011   8.694  11.987
60605SOL    HW183648  14.879   8.710  12.081
60605SOL    HW283649  14.818   8.741  11.946
60606SOL     OW83650  13.447  11.363   3.130
60606SOL    HW183651  13.381  11.316   3.079
60606SOL    HW283652  13.398  11.433   3.174
60607SOL     OW83653   5.014   3.132  14.503
60607SOL    HW183654   5.100   3.142  14.462
60607SOL    HW283655   4.952   3.146  14.431
60608SOL     OW83656   7.191  13.172   1.411
60608SOL    HW183657   7.197  13.192   1.504
60608SOL    HW283658   7.282  13.178   1.380
60609SOL     OW83659   6.134   4.746   2.712
60609SOL    HW183660   6.049   4.704   2.701
60609SOL    HW283661   6.149   4.792   2.630
60610SOL     OW83662   9.792  11.082   5.423
60610SOL    HW183663   9.836  11.092   5.339
60610SOL    HW283664   9.709  11.038   5.402
60611SOL     OW83665   1.685   2.758   4.150
60611SOL    HW183666   1.619   2.705   4.106
60611SOL    HW283667   1.744   2.695   4.191
60612SOL     OW83668   8.883  13.972   9.436
60612SOL    HW183669   8.836  14.054   9.453
60612SOL    HW283670   8.973  13.989   9.463
60613SOL     OW83671   3.675   1.723   0.767
60613SOL    HW183672   3.596   1.669   0.773
60613SOL    HW283673   3.712   1.702   0.681
60614SOL     OW83674   9.766  12.666   0.911
60614SOL    HW183675   9.744  12.581   0.950
60614SOL    HW283676   9.855  12.655   0.878
60615SOL     OW83677   8.756  11.786   7.912
60615SOL    HW183678   8.845  11.755   7.930
60615SOL    HW283679   8.768  11.878   7.888
60616SOL     OW83680   9.696   8.764  12.300
60616SOL    HW183681   9.651   8.844  12.273
60616SOL    HW283682   9.766   8.794  12.358
60617SOL     OW83683   1.227   2.223   6.901
60617SOL    HW183684   1.182   2.285   6.958
60617SOL    HW283685   1.191   2.138   6.925
60618SOL     OW83686   7.206   3.278   1.909
60618SOL    HW183687   7.172   3.273   1.819
60618SOL    HW283688   7.172   3.362   1.942
60619SOL     OW83689  10.252   6.599   7.052
60619SOL    HW183690  10.332   6.572   7.097
60619SOL    HW283691  10.184   6.541   7.087
60620SOL     OW83692   4.242   5.610   3.174
60620SOL    HW183693   4.309   5.560   3.221
60620SOL    HW283694   4.225   5.557   3.096
60621SOL     OW83695   1.360  10.388   7.699
60621SOL    HW183696   1.411  10.313   7.668
60621SOL    HW283697   1.421  10.436   7.756
60622SOL     OW83698  14.337   7.691   9.224
60622SOL    HW183699  14.343   7.786   9.219
60622SOL    HW283700  14.421   7.663   9.261
60623SOL     OW83701   6.508  13.140   6.765
60623SOL    HW183702   6.496  13.230   6.796
60623SOL    HW283703   6.590  13.111   6.807
60624SOL     OW83704   5.575  10.994   1.095
60624SOL    HW183705   5.650  11.053   1.107
60624SOL    HW283706   5.598  10.941   1.018
60625SOL     OW83707  10.641  10.561   4.884
60625SOL    HW183708  10.734  10.556   4.909
60625SOL    HW283709  10.626  10.482   4.833
60626SOL     OW83710   3.353   7.322  11.813
60626SOL    HW183711   3.365   7.399  11.758
60626SOL    HW283712   3.440   7.305  11.850
60627SOL     OW83713   7.206  14.418   3.617
60627SOL    HW183714   7.160  14.403   3.535
60627SOL    HW283715   7.139  14.455   3.675
60628SOL     OW83716   5.589   4.194   3.673
60628SOL    HW183717   5.572   4.132   3.744
60628SOL    HW283718   5.632   4.269   3.716
60629SOL     OW83719   2.702   9.072   4.217
60629SOL    HW183720   2.708   9.066   4.312
60629SOL    HW283721   2.612   9.102   4.200
60630SOL     OW83722   6.706  13.332   3.883
60630SOL    HW183723   6.699  13.288   3.967
60630SOL    HW283724   6.799  13.325   3.859
60631SOL     OW83725   0.469   8.657  12.195
60631SOL    HW183726   0.423   8.741  12.196
60631SOL    HW283727   0.546   8.672  12.249
60632SOL     OW83728   4.039   1.780   4.114
60632SOL    HW183729   4.005   1.820   4.194
60632SOL    HW283730   4.076   1.697   4.143
60633SOL     OW83731  14.039  11.704   7.189
60633SOL    HW183732  13.960  11.714   7.136
60633SOL    HW283733  14.086  11.631   7.149
60634SOL     OW83734  11.229   6.148  14.860
60634SOL    HW183735  11.226   6.243  14.871
60634SOL    HW283736  11.144   6.126  14.821
60635SOL     OW83737   0.429  11.230  12.901
60635SOL    HW183738   0.369  11.297  12.935
60635SOL    HW283739   0.481  11.204  12.977
60636SOL     OW83740   5.092  10.433   2.266
60636SOL    HW183741   5.177  10.473   2.244
60636SOL    HW283742   5.046  10.502   2.314
60637SOL     OW83743  11.431  14.572  14.436
60637SOL    HW183744  11.384  14.650  14.407
60637SOL    HW283745  11.444  14.584  14.530
60638SOL     OW83746  12.474  13.413   7.988
60638SOL    HW183747  12.566  13.441   7.985
60638SOL    HW283748  12.459  13.373   7.902
60639SOL     OW83749   2.548   4.842  11.390
60639SOL    HW183750   2.456   4.856  11.411
60639SOL    HW283751   2.589   4.928  11.404
60640SOL     OW83752   5.152   8.112  11.900
60640SOL    HW183753   5.248   8.109  11.905
60640SOL    HW283754   5.133   8.102  11.807
60641SOL     OW83755   6.221   3.654   1.121
60641SOL    HW183756   6.243   3.585   1.184
60641SOL    HW283757   6.241   3.616   1.035
60642SOL     OW83758   6.832   0.166   5.743
60642SOL    HW183759   6.838   0.101   5.813
60642SOL    HW283760   6.914   0.215   5.749
60643SOL     OW83761   2.795  13.380   2.147
60643SOL    HW183762   2.815  13.305   2.202
60643SOL    HW283763   2.866  13.442   2.165
60644SOL     OW83764  11.416  11.377   2.542
60644SOL    HW183765  11.470  11.329   2.605
60644SOL    HW283766  11.359  11.311   2.504
60645SOL     OW83767   9.472   6.706  14.179
60645SOL    HW183768   9.546   6.744  14.132
60645SOL    HW283769   9.418   6.665  14.112
60646SOL     OW83770   3.037  13.290   5.666
60646SOL    HW183771   2.986  13.263   5.589
60646SOL    HW283772   2.972  13.322   5.728
60647SOL     OW83773   3.657   1.158   3.423
60647SOL    HW183774   3.673   1.233   3.480
60647SOL    HW283775   3.642   1.196   3.336
60648SOL     OW83776   5.424   9.637  10.076
60648SOL    HW183777   5.341   9.621  10.032
60648SOL    HW283778   5.422   9.731  10.097
60649SOL     OW83779  14.337   9.802   4.323
60649SOL    HW183780  14.268   9.750   4.280
60649SOL    HW283781  14.401   9.737   4.351
60650SOL     OW83782  14.877  13.432   6.868
60650SOL    HW183783  14.796  13.383   6.853
60650SOL    HW283784  14.851  13.504   6.926
60651SOL     OW83785   0.854   0.252  12.661
60651SOL    HW183786   0.939   0.266  12.702
60651SOL    HW283787   0.861   0.165  12.622
60652SOL     OW83788  11.498  11.870   4.973
60652SOL    HW183789  11.568  11.925   5.010
60652SOL    HW283790  11.532  11.844   4.887
60653SOL     OW83791   6.291   4.270   0.139
60653SOL    HW183792   6.223   4.213   0.173
60653SOL    HW283793   6.311   4.234   0.052
60654SOL     OW83794  13.161   1.665   3.430
60654SOL    HW183795  13.224   1.595   3.411
60654SOL    HW283796  13.076   1.622   3.430
60655SOL     OW83797   4.347   8.876  12.318
60655SOL    HW183798   4.342   8.788  12.282
60655SOL    HW283799   4.293   8.873  12.398
60656SOL     OW83800  10.224   3.875  12.654
60656SOL    HW183801  10.175   3.863  12.735
60656SOL    HW283802  10.168   3.931  12.600
60657SOL     OW83803  10.660  12.334  11.235
60657SOL    HW183804  10.631  12.396  11.168
60657SOL    HW283805  10.580  12.309  11.281
60658SOL     OW83806  12.811   7.890   3.691
60658SOL    HW183807  12.730   7.915   3.735
60658SOL    HW283808  12.809   7.937   3.608
60659SOL     OW83809   7.471   6.965   8.788
60659SOL    HW183810   7.398   7.008   8.834
60659SOL    HW283811   7.430   6.919   8.716
60660SOL     OW83812  11.636   5.569   5.741
60660SOL    HW183813  11.656   5.477   5.724
60660SOL    HW283814  11.603   5.602   5.658
60661SOL     OW83815   9.616   4.737   6.844
60661SOL    HW183816   9.542   4.719   6.787
60661SOL    HW283817   9.582   4.798   6.909
60662SOL     OW83818  10.348  11.581   7.434
60662SOL    HW183819  10.415  11.523   7.470
60662SOL    HW283820  10.266  11.547   7.468
60663SOL     OW83821   0.431   0.090  10.383
60663SOL    HW183822   0.459   0.034  10.310
60663SOL    HW283823   0.509   0.141  10.404
60664SOL     OW83824  10.672   1.686   7.065
60664SOL    HW183825  10.722   1.672   7.145
60664SOL    HW283826  10.673   1.781   7.052
60665SOL     OW83827  14.841   6.055   9.328
60665SOL    HW183828  14.807   6.028   9.243
60665SOL    HW283829  14.795   5.999   9.391
60666SOL     OW83830   2.721   3.200   6.247
60666SOL    HW183831   2.748   3.244   6.166
60666SOL    HW283832   2.737   3.264   6.316
60667SOL     OW83833  10.051   9.870   6.618
60667SOL    HW183834  10.079   9.950   6.663
60667SOL    HW283835  10.066   9.800   6.681
60668SOL     OW83836  12.641   1.596   1.238
60668SOL    HW183837  12.626   1.625   1.148
60668SOL    HW283838  12.566   1.540   1.258
60669SOL     OW83839  13.644   5.252   6.737
60669SOL    HW183840  13.658   5.161   6.711
60669SOL    HW283841  13.666   5.254   6.830
60670SOL     OW83842   7.403   6.664  12.944
60670SOL    HW183843   7.433   6.736  13.001
60670SOL    HW283844   7.483   6.622  12.915
60671SOL     OW83845   3.377   1.473  13.573
60671SOL    HW183846   3.376   1.422  13.492
60671SOL    HW283847   3.466   1.466  13.605
60672SOL     OW83848  13.265   0.133   0.637
60672SOL    HW183849  13.176   0.097   0.631
60672SOL    HW283850  13.283   0.170   0.551
60673SOL     OW83851  10.638   8.886   5.871
60673SOL    HW183852  10.543   8.876   5.865
60673SOL    HW283853  10.673   8.801   5.846
60674SOL     OW83854   9.682   8.588   5.990
60674SOL    HW183855   9.701   8.599   6.084
60674SOL    HW283856   9.607   8.645   5.974
60675SOL     OW83857  14.069   3.231   4.006
60675SOL    HW183858  14.085   3.318   4.041
60675SOL    HW283859  13.977   3.233   3.978
60676SOL     OW83860   1.949  12.127  12.475
60676SOL    HW183861   2.026  12.103  12.422
60676SOL    HW283862   1.976  12.111  12.565
60677SOL     OW83863   2.619   9.131   9.091
60677SOL    HW183864   2.550   9.121   9.025
60677SOL    HW283865   2.700   9.115   9.043
60678SOL     OW83866  10.431  12.824  10.156
60678SOL    HW183867  10.458  12.868  10.076
60678SOL    HW283868  10.401  12.737  10.127
60679SOL     OW83869   1.824  10.225  14.256
60679SOL    HW183870   1.878  10.289  14.209
60679SOL    HW283871   1.886  10.160  14.288
60680SOL     OW83872   5.951  13.052   8.778
60680SOL    HW183873   5.929  12.959   8.769
60680SOL    HW283874   6.046  13.055   8.772
60681SOL     OW83875  10.597   6.228   8.107
60681SOL    HW183876  10.532   6.263   8.168
60681SOL    HW283877  10.574   6.267   8.023
60682SOL     OW83878   0.113   5.375  11.938
60682SOL    HW183879   0.134   5.430  12.014
60682SOL    HW283880   0.153   5.290  11.958
60683SOL     OW83881   0.545   9.050  11.475
60683SOL    HW183882   0.471   9.078  11.422
60683SOL    HW283883   0.589   9.132  11.500
60684SOL     OW83884   7.713  14.464   5.081
60684SOL    HW183885   7.638  14.523   5.090
60684SOL    HW283886   7.766  14.504   5.012
60685SOL     OW83887   0.954  14.082   6.457
60685SOL    HW183888   1.028  14.103   6.400
60685SOL    HW283889   0.993  14.038   6.532
60686SOL     OW83890   5.969   6.732  12.698
60686SOL    HW183891   5.898   6.790  12.671
60686SOL    HW283892   6.023   6.722  12.619
60687SOL     OW83893   9.576   3.297   0.620
60687SOL    HW183894   9.572   3.376   0.675
60687SOL    HW283895   9.663   3.261   0.638
60688SOL     OW83896   5.161  10.856  13.947
60688SOL    HW183897   5.069  10.871  13.968
60688SOL    HW283898   5.200  10.828  14.031
60689SOL     OW83899  14.392  12.972   6.430
60689SOL    HW183900  14.387  12.878   6.448
60689SOL    HW283901  14.308  12.993   6.389
60690SOL     OW83902   5.255   5.233   6.696
60690SOL    HW183903   5.232   5.239   6.789
60690SOL    HW283904   5.344   5.269   6.691
60691SOL     OW83905  10.726   7.768  14.829
60691SOL    HW183906  10.738   7.783   0.044
60691SOL    HW283907  10.633   7.783  14.814
60692SOL     OW83908   5.511   0.781  14.204
60692SOL    HW183909   5.544   0.867  14.179
60692SOL    HW283910   5.589   0.731  14.227
60693SOL     OW83911   9.860  10.429  14.107
60693SOL    HW183912   9.851  10.435  14.012
60693SOL    HW283913   9.906  10.347  14.122
60694SOL     OW83914  13.638  10.179   0.751
60694SOL    HW183915  13.692  10.217   0.820
60694SOL    HW283916  13.550  10.213   0.768
60695SOL     OW83917  13.682   3.219   7.757
60695SOL    HW183918  13.715   3.220   7.847
60695SOL    HW283919  13.586   3.220   7.767
60696SOL     OW83920   4.877   9.332   7.540
60696SOL    HW183921   4.814   9.393   7.501
60696SOL    HW283922   4.838   9.309   7.625
60697SOL     OW83923   4.619   6.121   0.434
60697SOL    HW183924   4.648   6.033   0.459
60697SOL    HW283925   4.616   6.169   0.517
60698SOL     OW83926   0.639   8.338   8.367
60698SOL    HW183927   0.628   8.346   8.272
60698SOL    HW283928   0.727   8.301   8.378
60699SOL     OW83929  10.692  11.866   3.724
60699SOL    HW183930  10.637  11.788   3.726
60699SOL    HW283931  10.734  11.863   3.637
60700SOL     OW83932   6.127   5.786   4.907
60700SOL    HW183933   6.184   5.863   4.913
60700SOL    HW283934   6.089   5.778   4.994
60701SOL     OW83935   5.728  13.006  11.521
60701SOL    HW183936   5.633  13.009  11.511
60701SOL    HW283937   5.759  13.089  11.483
60702SOL     OW83938   5.480   8.190  13.965
60702SOL    HW183939   5.568   8.168  13.996
60702SOL    HW283940   5.494   8.250  13.892
60703SOL     OW83941   5.245   6.060   8.396
60703SOL    HW183942   5.160   6.103   8.405
60703SOL    HW283943   5.292   6.114   8.333
60704SOL     OW83944   0.509   5.023  10.493
60704SOL    HW183945   0.421   5.005  10.525
60704SOL    HW283946   0.559   5.048  10.571
60705SOL     OW83947  11.017   7.883   3.917
60705SOL    HW183948  10.997   7.938   3.841
60705SOL    HW283949  10.974   7.927   3.990
60706SOL     OW83950   9.957   9.114   7.929
60706SOL    HW183951   9.973   9.075   8.015
60706SOL    HW283952   9.862   9.110   7.918
60707SOL     OW83953  13.581  13.990  13.769
60707SOL    HW183954  13.579  14.070  13.716
60707SOL    HW283955  13.627  14.017  13.849
60708SOL     OW83956  12.004   8.060   7.865
60708SOL    HW183957  11.946   8.035   7.936
60708SOL    HW283958  12.012   7.982   7.810
60709SOL     OW83959   6.473  11.733   7.258
60709SOL    HW183960   6.392  11.687   7.278
60709SOL    HW283961   6.456  11.776   7.174
60710SOL     OW83962  11.122  13.918   8.947
60710SOL    HW183963  11.117  13.919   9.043
60710SOL    HW283964  11.119  13.825   8.923
60711SOL     OW83965   9.143  10.823   6.782
60711SOL    HW183966   9.202  10.862   6.847
60711SOL    HW283967   9.175  10.855   6.698
60712SOL     OW83968   4.459  13.300   9.946
60712SOL    HW183969   4.408  13.246  10.006
60712SOL    HW283970   4.456  13.253   9.863
60713SOL     OW83971  13.052   6.387  14.397
60713SOL    HW183972  12.987   6.451  14.366
60713SOL    HW283973  13.128   6.440  14.420
60714SOL     OW83974   3.883   6.853   2.351
60714SOL    HW183975   3.965   6.889   2.386
60714SOL    HW283976   3.840   6.814   2.427
60715SOL     OW83977   1.524   6.693   7.628
60715SOL    HW183978   1.504   6.664   7.539
60715SOL    HW283979   1.471   6.637   7.685
60716SOL     OW83980   3.002   8.878  13.996
60716SOL    HW183981   3.033   8.962  14.030
60716SOL    HW283982   2.947   8.901  13.922
60717SOL     OW83983   8.764  13.890   1.459
60717SOL    HW183984   8.760  13.892   1.555
60717SOL    HW283985   8.672  13.893   1.431
60718SOL     OW83986   9.797   2.676   4.697
60718SOL    HW183987   9.856   2.637   4.632
60718SOL    HW283988   9.717   2.695   4.648
60719SOL     OW83989   2.559   1.576  14.043
60719SOL    HW183990   2.546   1.524  14.123
60719SOL    HW283991   2.562   1.511  13.973
60720SOL     OW83992   1.166   3.069   9.632
60720SOL    HW183993   1.182   3.135   9.565
60720SOL    HW283994   1.213   3.102   9.709
60721SOL     OW83995  11.341  10.957   7.929
60721SOL    HW183996  11.421  10.991   7.889
60721SOL    HW283997  11.353  10.971   8.023
60722SOL     OW83998   4.364   1.077   4.694
60722SOL    HW183999   4.284   1.024   4.688
60722SOL    HW284000   4.336   1.165   4.669
60723SOL     OW84001   8.290   9.975  12.713
60723SOL    HW184002   8.318   9.896  12.758
60723SOL    HW284003   8.272   9.947  12.624
60724SOL     OW84004  12.821   6.380   8.312
60724SOL    HW184005  12.865   6.398   8.395
60724SOL    HW284006  12.892   6.372   8.248
60725SOL     OW84007  14.600   2.599   9.280
60725SOL    HW184008  14.541   2.621   9.208
60725SOL    HW284009  14.586   2.505   9.294
60726SOL     OW84010  12.348   8.752  11.293
60726SOL    HW184011  12.355   8.844  11.265
60726SOL    HW284012  12.408   8.745  11.367
60727SOL     OW84013   4.619  10.544   4.534
60727SOL    HW184014   4.566  10.624   4.534
60727SOL    HW284015   4.701  10.568   4.491
60728SOL     OW84016   9.384   5.934   2.492
60728SOL    HW184017   9.309   5.964   2.544
60728SOL    HW284018   9.418   6.013   2.451
60729SOL     OW84019   2.226   3.481   4.416
60729SOL    HW184020   2.248   3.388   4.413
60729SOL    HW284021   2.161   3.493   4.348
60730SOL     OW84022   1.915   9.096   6.810
60730SOL    HW184023   1.879   9.137   6.732
60730SOL    HW284024   1.999   9.141   6.824
60731SOL     OW84025   4.876  11.703   1.652
60731SOL    HW184026   4.843  11.661   1.572
60731SOL    HW284027   4.799  11.744   1.691
60732SOL     OW84028  13.135   6.947   8.974
60732SOL    HW184029  13.209   6.983   9.023
60732SOL    HW284030  13.058   6.972   9.024
60733SOL     OW84031   3.210  13.798   4.664
60733SOL    HW184032   3.120  13.804   4.630
60733SOL    HW284033   3.204  13.829   4.754
60734SOL     OW84034   0.764  11.836  10.622
60734SOL    HW184035   0.804  11.749  10.624
60734SOL    HW284036   0.675  11.822  10.655
60735SOL     OW84037   3.454   8.666   1.902
60735SOL    HW184038   3.513   8.612   1.954
60735SOL    HW284039   3.372   8.617   1.901
60736SOL     OW84040  13.639  12.314   5.435
60736SOL    HW184041  13.713  12.308   5.496
60736SOL    HW284042  13.566  12.343   5.490
60737SOL     OW84043   1.992   6.730   2.376
60737SOL    HW184044   2.037   6.768   2.452
60737SOL    HW284045   1.979   6.803   2.316
60738SOL     OW84046   1.239   6.689  10.703
60738SOL    HW184047   1.267   6.597  10.703
60738SOL    HW284048   1.277   6.726  10.783
60739SOL     OW84049   3.073   5.986   6.580
60739SOL    HW184050   3.082   6.079   6.604
60739SOL    HW284051   3.125   5.940   6.646
60740SOL     OW84052   6.431   3.036   9.834
60740SOL    HW184053   6.337   3.052   9.843
60740SOL    HW284054   6.451   2.967   9.897
60741SOL     OW84055   9.895   4.990  10.923
60741SOL    HW184056   9.882   4.969  10.831
60741SOL    HW284057   9.988   4.976  10.938
60742SOL     OW84058   3.600   4.470   8.538
60742SOL    HW184059   3.601   4.525   8.617
60742SOL    HW284060   3.583   4.382   8.570
60743SOL     OW84061   9.920  13.972   5.008
60743SOL    HW184062   9.882  13.929   4.931
60743SOL    HW284063   9.911  13.907   5.078
60744SOL     OW84064   2.573   0.003   2.191
60744SOL    HW184065   2.555  14.875   2.285
60744SOL    HW284066   2.627  14.807   2.171
60745SOL     OW84067   2.561   3.395   7.367
60745SOL    HW184068   2.488   3.435   7.319
60745SOL    HW284069   2.536   3.303   7.378
60746SOL     OW84070   8.237   8.690  14.136
60746SOL    HW184071   8.299   8.731  14.074
60746SOL    HW284072   8.289   8.677  14.215
60747SOL     OW84073   0.896  11.102  11.208
60747SOL    HW184074   0.981  11.145  11.196
60747SOL    HW284075   0.913  11.010  11.190
60748SOL     OW84076   3.038  13.177   7.098
60748SOL    HW184077   3.008  13.135   7.018
60748SOL    HW284078   3.001  13.125   7.169
60749SOL     OW84079  13.330   1.004  10.625
60749SOL    HW184080  13.391   0.990  10.698
60749SOL    HW284081  13.251   1.037  10.667
60750SOL     OW84082   8.724   6.339   2.212
60750SOL    HW184083   8.782   6.399   2.165
60750SOL    HW284084   8.693   6.390   2.287
60751SOL     OW84085  12.077   3.200  13.113
60751SOL    HW184086  12.073   3.217  13.019
60751SOL    HW284087  12.020   3.124  13.127
60752SOL     OW84088   2.868   1.082  13.600
60752SOL    HW184089   2.833   0.993  13.596
60752SOL    HW284090   2.902   1.090  13.689
60753SOL     OW84091   0.502   5.434  12.066
60753SOL    HW184092   0.571   5.494  12.097
60753SOL    HW284093   0.517   5.428  11.972
60754SOL     OW84094   8.679   5.487   9.749
60754SOL    HW184095   8.634   5.422   9.696
60754SOL    HW284096   8.763   5.447   9.770
60755SOL     OW84097   8.515  12.380   4.969
60755SOL    HW184098   8.469  12.300   4.994
60755SOL    HW284099   8.506  12.384   4.874
60756SOL     OW84100   6.640  11.584   0.017
60756SOL    HW184101   6.621  11.574   0.111
60756SOL    HW284102   6.629  11.495  14.861
60757SOL     OW84103  12.399   6.949   5.625
60757SOL    HW184104  12.483   6.915   5.657
60757SOL    HW284105  12.405   6.938   5.530
60758SOL     OW84106   7.429   5.368  12.377
60758SOL    HW184107   7.403   5.395  12.289
60758SOL    HW284108   7.364   5.303  12.403
60759SOL     OW84109   5.676  10.034   1.532
60759SOL    HW184110   5.585  10.027   1.505
60759SOL    HW284111   5.673  10.078   1.617
60760SOL     OW84112   4.686   6.507   9.095
60760SOL    HW184113   4.649   6.419   9.098
60760SOL    HW284114   4.614   6.564   9.121
60761SOL     OW84115   6.202  14.773  14.765
60761SOL    HW184116   6.269  14.839  14.749
60761SOL    HW284117   6.231  14.728  14.845
60762SOL     OW84118   6.343   4.039   2.580
60762SOL    HW184119   6.416   4.051   2.519
60762SOL    HW284120   6.300   3.959   2.550
60763SOL     OW84121   9.002  10.721   0.368
60763SOL    HW184122   9.027  10.756   0.282
60763SOL    HW284123   8.924  10.669   0.350
60764SOL     OW84124   0.384   2.481   1.508
60764SOL    HW184125   0.404   2.504   1.598
60764SOL    HW284126   0.288   2.473   1.505
60765SOL     OW84127  12.939   0.421   1.768
60765SOL    HW184128  13.024   0.446   1.805
60765SOL    HW284129  12.877   0.482   1.808
60766SOL     OW84130   6.058  11.971   5.172
60766SOL    HW184131   6.052  11.948   5.265
60766SOL    HW284132   6.152  11.977   5.156
60767SOL     OW84133  11.450   5.701   9.184
60767SOL    HW184134  11.473   5.738   9.099
60767SOL    HW284135  11.376   5.753   9.214
60768SOL     OW84136  14.805  14.739  12.306
60768SOL    HW184137  14.860  14.664  12.281
60768SOL    HW284138  14.849  14.815  12.267
60769SOL     OW84139   4.646  13.783  12.888
60769SOL    HW184140   4.730  13.749  12.856
60769SOL    HW284141   4.593  13.793  12.809
60770SOL     OW84142   1.452   3.452   2.227
60770SOL    HW184143   1.399   3.430   2.151
60770SOL    HW284144   1.398   3.512   2.278
60771SOL     OW84145   7.086   3.346   9.862
60771SOL    HW184146   7.114   3.430   9.826
60771SOL    HW284147   6.998   3.333   9.827
60772SOL     OW84148   5.824   1.541   7.785
60772SOL    HW184149   5.740   1.563   7.744
60772SOL    HW284150   5.863   1.477   7.725
60773SOL     OW84151   0.607   5.561  13.083
60773SOL    HW184152   0.651   5.484  13.118
60773SOL    HW284153   0.602   5.622  13.157
60774SOL     OW84154   0.163   9.366  10.855
60774SOL    HW184155   0.217   9.290  10.834
60774SOL    HW284156   0.079   9.329  10.881
60775SOL     OW84157   5.891   3.869  12.337
60775SOL    HW184158   5.936   3.810  12.277
60775SOL    HW284159   5.862   3.813  12.409
60776SOL     OW84160   4.676   3.759   5.768
60776SOL    HW184161   4.732   3.770   5.845
60776SOL    HW284162   4.687   3.667   5.744
60777SOL     OW84163  10.090  12.748   9.035
60777SOL    HW184164  10.068  12.674   9.092
60777SOL    HW284165  10.139  12.709   8.962
60778SOL     OW84166   8.893   4.573  11.713
60778SOL    HW184167   8.964   4.638  11.710
60778SOL    HW284168   8.830   4.610  11.775
60779SOL     OW84169   5.827  11.180   3.796
60779SOL    HW184170   5.866  11.140   3.719
60779SOL    HW284171   5.733  11.169   3.783
60780SOL     OW84172  13.520   7.251  10.481
60780SOL    HW184173  13.603   7.204  10.472
60780SOL    HW284174  13.514   7.302  10.400
60781SOL     OW84175   5.934   8.599   9.115
60781SOL    HW184176   6.015   8.630   9.156
60781SOL    HW284177   5.902   8.531   9.174
60782SOL     OW84178   2.872   1.135   5.393
60782SOL    HW184179   2.906   1.114   5.306
60782SOL    HW284180   2.814   1.209   5.379
60783SOL     OW84181  12.643  10.905  14.848
60783SOL    HW184182  12.707  10.956  14.799
60783SOL    HW284183  12.603  10.847  14.783
60784SOL     OW84184   1.439   9.476   1.382
60784SOL    HW184185   1.439   9.427   1.464
60784SOL    HW284186   1.484   9.418   1.320
60785SOL     OW84187   1.585   2.232   4.427
60785SOL    HW184188   1.507   2.243   4.480
60785SOL    HW284189   1.658   2.252   4.486
60786SOL     OW84190  11.301   9.372   1.931
60786SOL    HW184191  11.333   9.378   1.841
60786SOL    HW284192  11.350   9.300   1.970
60787SOL     OW84193   2.175   2.292  12.144
60787SOL    HW184194   2.211   2.305  12.056
60787SOL    HW284195   2.183   2.378  12.186
60788SOL     OW84196  10.741   2.109   5.465
60788SOL    HW184197  10.723   2.186   5.519
60788SOL    HW284198  10.820   2.070   5.504
60789SOL     OW84199   2.436  12.519  14.363
60789SOL    HW184200   2.394  12.600  14.336
60789SOL    HW284201   2.384  12.489  14.438
60790SOL     OW84202   1.938   1.400  12.732
60790SOL    HW184203   1.960   1.482  12.776
60790SOL    HW284204   2.009   1.341  12.756
60791SOL     OW84205   1.555  11.455   8.843
60791SOL    HW184206   1.490  11.526   8.835
60791SOL    HW284207   1.502  11.375   8.843
60792SOL     OW84208   3.166   3.618  11.314
60792SOL    HW184209   3.183   3.710  11.334
60792SOL    HW284210   3.075   3.616  11.284
60793SOL     OW84211  12.450   0.675   0.407
60793SOL    HW184212  12.406   0.604   0.453
60793SOL    HW284213  12.380   0.728   0.370
60794SOL     OW84214   9.666   8.720   9.217
60794SOL    HW184215   9.635   8.763   9.137
60794SOL    HW284216   9.741   8.771   9.245
60795SOL     OW84217   2.285   0.421  10.398
60795SOL    HW184218   2.289   0.475  10.477
60795SOL    HW284219   2.192   0.403  10.387
60796SOL     OW84220   3.182   6.365  12.454
60796SOL    HW184221   3.223   6.340  12.371
60796SOL    HW284222   3.122   6.293  12.474
60797SOL     OW84223   6.284   1.287  13.734
60797SOL    HW184224   6.292   1.345  13.810
60797SOL    HW284225   6.199   1.308  13.696
60798SOL     OW84226   4.643   5.964  11.858
60798SOL    HW184227   4.681   6.024  11.794
60798SOL    HW284228   4.549   5.981  11.855
60799SOL     OW84229  11.662  10.439  11.245
60799SOL    HW184230  11.574  10.402  11.257
60799SOL    HW284231  11.720  10.380  11.294
60800SOL     OW84232   0.697  12.290   3.578
60800SOL    HW184233   0.727  12.379   3.560
60800SOL    HW284234   0.653  12.296   3.663
60801SOL     OW84235   8.268   6.379  13.374
60801SOL    HW184236   8.275   6.445  13.443
60801SOL    HW284237   8.192   6.327  13.399
60802SOL     OW84238  13.876   6.917   2.277
60802SOL    HW184239  13.886   6.897   2.370
60802SOL    HW284240  13.863   6.831   2.235
60803SOL     OW84241   9.430  11.813   5.130
60803SOL    HW184242   9.477  11.887   5.089
60803SOL    HW284243   9.338  11.839   5.128
60804SOL     OW84244  10.640  12.466  10.330
60804SOL    HW184245  10.679  12.551  10.306
60804SOL    HW284246  10.679  12.445  10.415
60805SOL     OW84247   9.955   7.145   2.625
60805SOL    HW184248   9.893   7.167   2.694
60805SOL    HW284249   9.904   7.147   2.545
60806SOL     OW84250   7.364   3.443  11.642
60806SOL    HW184251   7.353   3.512  11.576
60806SOL    HW284252   7.385   3.490  11.723
60807SOL     OW84253  12.876   4.138   7.136
60807SOL    HW184254  12.836   4.225   7.138
60807SOL    HW284255  12.835   4.094   7.061
60808SOL     OW84256  10.729  12.306   7.207
60808SOL    HW184257  10.790  12.234   7.192
60808SOL    HW284258  10.721  12.348   7.121
60809SOL     OW84259   3.586   1.140  11.424
60809SOL    HW184260   3.627   1.078  11.484
60809SOL    HW284261   3.493   1.117  11.424
60810SOL     OW84262  11.597   8.311   9.744
60810SOL    HW184263  11.598   8.215   9.743
60810SOL    HW284264  11.538   8.333   9.816
60811SOL     OW84265   3.896   8.796   8.405
60811SOL    HW184266   3.889   8.809   8.310
60811SOL    HW284267   3.896   8.885   8.441
60812SOL     OW84268  12.778  12.791   3.927
60812SOL    HW184269  12.742  12.719   3.979
60812SOL    HW284270  12.713  12.805   3.858
60813SOL     OW84271  13.638   0.161   7.825
60813SOL    HW184272  13.676   0.168   7.737
60813SOL    HW284273  13.682   0.085   7.864
60814SOL     OW84274  12.313   9.930   4.456
60814SOL    HW184275  12.219   9.949   4.458
60814SOL    HW284276  12.326   9.868   4.527
60815SOL     OW84277   6.101   2.839  10.845
60815SOL    HW184278   6.161   2.908  10.872
60815SOL    HW284279   6.060   2.873  10.765
60816SOL     OW84280  10.261   3.374  14.487
60816SOL    HW184281  10.293   3.463  14.501
60816SOL    HW284282  10.335   3.329  14.446
60817SOL     OW84283   5.322   7.718  11.289
60817SOL    HW184284   5.236   7.754  11.309
60817SOL    HW284285   5.341   7.750  11.201
60818SOL     OW84286   6.802  13.013  10.175
60818SOL    HW184287   6.794  13.108  10.170
60818SOL    HW284288   6.857  12.997  10.251
60819SOL     OW84289   4.695   7.760   2.482
60819SOL    HW184290   4.750   7.689   2.514
60819SOL    HW284291   4.675   7.735   2.391
60820SOL     OW84292  13.768   2.242   8.428
60820SOL    HW184293  13.768   2.288   8.512
60820SOL    HW284294  13.679   2.207   8.420
60821SOL     OW84295   2.215   6.739  10.096
60821SOL    HW184296   2.138   6.791  10.122
60821SOL    HW284297   2.179   6.658  10.060
60822SOL     OW84298   8.305   9.536  10.574
60822SOL    HW184299   8.227   9.527  10.520
60822SOL    HW284300   8.311   9.630  10.592
60823SOL     OW84301  13.153  12.824   7.019
60823SOL    HW184302  13.080  12.884   7.036
60823SOL    HW284303  13.183  12.798   7.105
60824SOL     OW84304   5.053   4.743   5.943
60824SOL    HW184305   5.089   4.702   5.865
60824SOL    HW284306   5.047   4.836   5.921
60825SOL     OW84307   2.700   8.561   9.222
60825SOL    HW184308   2.763   8.570   9.151
60825SOL    HW284309   2.655   8.645   9.226
60826SOL     OW84310   0.483   7.067  10.604
60826SOL    HW184311   0.572   7.087  10.634
60826SOL    HW284312   0.443   7.022  10.679
60827SOL     OW84313   3.399  10.700  12.714
60827SOL    HW184314   3.407  10.610  12.743
60827SOL    HW284315   3.463  10.708  12.642
60828SOL     OW84316   5.375   7.015   5.753
60828SOL    HW184317   5.387   6.941   5.693
60828SOL    HW284318   5.447   7.008   5.815
60829SOL     OW84319   1.718  12.617   4.622
60829SOL    HW184320   1.716  12.675   4.697
60829SOL    HW284321   1.750  12.533   4.657
60830SOL     OW84322   1.185  11.318  13.961
60830SOL    HW184323   1.198  11.250  13.894
60830SOL    HW284324   1.194  11.272  14.044
60831SOL     OW84325   6.600   5.837   1.345
60831SOL    HW184326   6.695   5.827   1.353
60831SOL    HW284327   6.572   5.764   1.290
60832SOL     OW84328   1.615   5.411   2.707
60832SOL    HW184329   1.613   5.506   2.724
60832SOL    HW284330   1.688   5.400   2.645
60833SOL     OW84331  11.508   6.735   8.895
60833SOL    HW184332  11.554   6.761   8.975
60833SOL    HW284333  11.421   6.774   8.903
60834SOL     OW84334   6.439  13.432  10.586
60834SOL    HW184335   6.526  13.458  10.556
60834SOL    HW284336   6.442  13.442  10.681
60835SOL     OW84337   9.048   9.790  10.027
60835SOL    HW184338   9.032   9.712  10.079
60835SOL    HW284339   8.963   9.811   9.988
60836SOL     OW84340   7.963  14.151   8.556
60836SOL    HW184341   7.879  14.127   8.595
60836SOL    HW284342   8.022  14.079   8.581
60837SOL     OW84343  11.920   4.164  10.135
60837SOL    HW184344  12.008   4.182  10.166
60837SOL    HW284345  11.871   4.138  10.213
60838SOL     OW84346   7.189   2.754   3.307
60838SOL    HW184347   7.098   2.737   3.283
60838SOL    HW284348   7.219   2.820   3.246
60839SOL     OW84349   1.454   6.542  12.249
60839SOL    HW184350   1.508   6.468  12.276
60839SOL    HW284351   1.447   6.597  12.327
60840SOL     OW84352   5.861   2.299   0.598
60840SOL    HW184353   5.896   2.357   0.667
60840SOL    HW284354   5.766   2.312   0.602
60841SOL     OW84355   5.477   4.803   4.921
60841SOL    HW184356   5.515   4.891   4.922
60841SOL    HW284357   5.383   4.817   4.906
60842SOL     OW84358  11.630   3.253  10.806
60842SOL    HW184359  11.725   3.243  10.818
60842SOL    HW284360  11.594   3.244  10.893
60843SOL     OW84361   9.842  13.390   0.384
60843SOL    HW184362   9.792  13.327   0.435
60843SOL    HW284363   9.829  13.363   0.293
60844SOL     OW84364  12.893   3.153  11.023
60844SOL    HW184365  12.828   3.088  10.998
60844SOL    HW284366  12.881   3.164  11.117
60845SOL     OW84367   7.654   9.666  14.049
60845SOL    HW184368   7.727   9.622  14.092
60845SOL    HW284369   7.577   9.615  14.073
60846SOL     OW84370  13.637   8.302  10.032
60846SOL    HW184371  13.596   8.216  10.024
60846SOL    HW284372  13.569   8.358  10.071
60847SOL     OW84373  13.310   6.784   7.128
60847SOL    HW184374  13.290   6.693   7.147
60847SOL    HW284375  13.337   6.821   7.212
60848SOL     OW84376   4.422   9.086   1.902
60848SOL    HW184377   4.504   9.057   1.863
60848SOL    HW284378   4.449   9.140   1.977
60849SOL     OW84379   2.156   4.368   9.816
60849SOL    HW184380   2.098   4.438   9.847
60849SOL    HW284381   2.169   4.387   9.723
60850SOL     OW84382   4.329   1.083   7.276
60850SOL    HW184383   4.298   0.993   7.289
60850SOL    HW284384   4.407   1.090   7.331
60851SOL     OW84385  11.557  14.292  12.509
60851SOL    HW184386  11.606  14.373  12.501
60851SOL    HW284387  11.617  14.224  12.476
60852SOL     OW84388   8.594   0.462  14.432
60852SOL    HW184389   8.609   0.448  14.339
60852SOL    HW284390   8.647   0.539  14.453
60853SOL     OW84391   8.084   2.762   1.246
60853SOL    HW184392   7.995   2.775   1.212
60853SOL    HW284393   8.103   2.843   1.294
60854SOL     OW84394   6.922  10.033  14.846
60854SOL    HW184395   6.850  10.083  14.810
60854SOL    HW284396   6.974  10.096   0.016
60855SOL     OW84397  13.903   6.505   0.494
60855SOL    HW184398  13.921   6.594   0.465
60855SOL    HW284399  13.859   6.515   0.578
60856SOL     OW84400   7.671   9.673  13.508
60856SOL    HW184401   7.576   9.684  13.502
60856SOL    HW284402   7.684   9.579  13.492
60857SOL     OW84403  14.850   4.624   4.429
60857SOL    HW184404   0.059   4.646   4.457
60857SOL    HW284405  14.804   4.601   4.510
60858SOL     OW84406   2.425  12.707   4.515
60858SOL    HW184407   2.418  12.677   4.605
60858SOL    HW284408   2.439  12.801   4.521
60859SOL     OW84409  13.472   1.129  11.363
60859SOL    HW184410  13.401   1.192  11.354
60859SOL    HW284411  13.430   1.049  11.394
60860SOL     OW84412  12.973   8.256  14.292
60860SOL    HW184413  13.012   8.187  14.345
60860SOL    HW284414  12.888   8.273  14.333
60861SOL     OW84415   9.770   0.167   1.212
60861SOL    HW184416   9.775   0.219   1.292
60861SOL    HW284417   9.741   0.229   1.145
60862SOL     OW84418   0.579   4.725   5.066
60862SOL    HW184419   0.642   4.750   5.133
60862SOL    HW284420   0.630   4.725   4.985
60863SOL     OW84421  12.234  12.432  11.046
60863SOL    HW184422  12.151  12.468  11.076
60863SOL    HW284423  12.292  12.437  11.122
60864SOL     OW84424   5.347   6.772  14.301
60864SOL    HW184425   5.434   6.739  14.324
60864SOL    HW284426   5.362   6.862  14.274
60865SOL     OW84427   5.464  12.660   1.432
60865SOL    HW184428   5.396  12.670   1.366
60865SOL    HW284429   5.444  12.727   1.498
60866SOL     OW84430  10.849  13.986   4.462
60866SOL    HW184431  10.874  14.056   4.401
60866SOL    HW284432  10.796  14.030   4.529
60867SOL     OW84433  14.477   4.615   7.367
60867SOL    HW184434  14.489   4.642   7.458
60867SOL    HW284435  14.566   4.607   7.332
60868SOL     OW84436   0.834  12.184   3.099
60868SOL    HW184437   0.861  12.122   3.166
60868SOL    HW284438   0.766  12.139   3.050
60869SOL     OW84439   0.623   8.835   2.651
60869SOL    HW184440   0.561   8.850   2.722
60869SOL    HW284441   0.706   8.816   2.696
60870SOL     OW84442   2.477  13.446   7.092
60870SOL    HW184443   2.563  13.411   7.118
60870SOL    HW284444   2.487  13.541   7.097
60871SOL     OW84445   1.191   1.264   2.482
60871SOL    HW184446   1.168   1.188   2.535
60871SOL    HW284447   1.204   1.229   2.394
60872SOL     OW84448   5.743   1.193   7.953
60872SOL    HW184449   5.833   1.171   7.930
60872SOL    HW284450   5.690   1.132   7.901
60873SOL     OW84451   1.520   4.696   6.589
60873SOL    HW184452   1.444   4.715   6.534
60873SOL    HW284453   1.502   4.740   6.672
60874SOL     OW84454  12.128   6.963   2.844
60874SOL    HW184455  12.148   6.877   2.881
60874SOL    HW284456  12.182   6.969   2.765
60875SOL     OW84457   8.955   9.607   6.121
60875SOL    HW184458   8.902   9.664   6.178
60875SOL    HW284459   9.038   9.652   6.112
60876SOL     OW84460   5.270   7.636   9.692
60876SOL    HW184461   5.255   7.708   9.754
60876SOL    HW284462   5.345   7.664   9.640
60877SOL     OW84463   3.595  11.925   9.643
60877SOL    HW184464   3.542  12.003   9.658
60877SOL    HW284465   3.603  11.919   9.548
60878SOL     OW84466   4.118  10.519  11.891
60878SOL    HW184467   4.209  10.524  11.921
60878SOL    HW284468   4.102  10.425  11.881
60879SOL     OW84469   4.480  12.614   2.213
60879SOL    HW184470   4.408  12.639   2.270
60879SOL    HW284471   4.465  12.522   2.193
60880SOL     OW84472   2.801   6.381   6.549
60880SOL    HW184473   2.852   6.429   6.485
60880SOL    HW284474   2.827   6.418   6.634
60881SOL     OW84475  13.259   2.727  14.127
60881SOL    HW184476  13.175   2.748  14.086
60881SOL    HW284477  13.319   2.715  14.053
60882SOL     OW84478   4.304  14.242  14.757
60882SOL    HW184479   4.306  14.200  14.670
60882SOL    HW284480   4.323  14.170  14.818
60883SOL     OW84481  13.939   0.921  10.420
60883SOL    HW184482  13.931   1.016  10.426
60883SOL    HW284483  13.913   0.900  10.330
60884SOL     OW84484   6.012   2.245  10.315
60884SOL    HW184485   5.991   2.184  10.243
60884SOL    HW284486   5.968   2.207  10.391
60885SOL     OW84487   0.213   4.760   8.705
60885SOL    HW184488   0.166   4.701   8.645
60885SOL    HW284489   0.154   4.769   8.779
60886SOL     OW84490  13.329   9.296   4.781
60886SOL    HW184491  13.358   9.252   4.861
60886SOL    HW284492  13.317   9.225   4.718
60887SOL     OW84493  10.182   8.342   8.351
60887SOL    HW184494  10.161   8.404   8.280
60887SOL    HW284495  10.193   8.258   8.307
60888SOL     OW84496   9.447   5.803   3.603
60888SOL    HW184497   9.353   5.782   3.597
60888SOL    HW284498   9.451   5.875   3.665
60889SOL     OW84499  12.957   1.383  13.961
60889SOL    HW184500  12.876   1.332  13.971
60889SOL    HW284501  12.930   1.461  13.914
60890SOL     OW84502   0.490  10.455   5.320
60890SOL    HW184503   0.470  10.387   5.255
60890SOL    HW284504   0.585  10.455   5.327
60891SOL     OW84505   6.191  13.047  11.721
60891SOL    HW184506   6.161  12.998  11.644
60891SOL    HW284507   6.229  13.127  11.686
60892SOL     OW84508   8.391   6.726  10.167
60892SOL    HW184509   8.462   6.766  10.118
60892SOL    HW284510   8.382   6.781  10.245
60893SOL     OW84511   6.612  12.935   0.762
60893SOL    HW184512   6.653  12.866   0.815
60893SOL    HW284513   6.658  12.930   0.678
60894SOL     OW84514  11.939   9.092   5.390
60894SOL    HW184515  11.855   9.084   5.436
60894SOL    HW284516  11.960   9.186   5.395
60895SOL     OW84517   4.100   8.629  11.758
60895SOL    HW184518   4.161   8.624  11.685
60895SOL    HW284519   4.053   8.711  11.745
60896SOL     OW84520  11.519  12.265   4.723
60896SOL    HW184521  11.494  12.332   4.659
60896SOL    HW284522  11.611  12.247   4.705
60897SOL     OW84523   2.246   5.625   5.376
60897SOL    HW184524   2.227   5.535   5.352
60897SOL    HW284525   2.177   5.677   5.334
60898SOL     OW84526   2.587   1.664   8.246
60898SOL    HW184527   2.571   1.661   8.152
60898SOL    HW284528   2.660   1.603   8.260
60899SOL     OW84529   4.334   1.148   1.462
60899SOL    HW184530   4.311   1.056   1.466
60899SOL    HW284531   4.270   1.187   1.403
60900SOL     OW84532   4.055   3.044   9.213
60900SOL    HW184533   3.996   3.118   9.223
60900SOL    HW284534   4.143   3.081   9.225
60901SOL     OW84535   6.707   2.559  12.689
60901SOL    HW184536   6.718   2.465  12.677
60901SOL    HW284537   6.652   2.567  12.767
60902SOL     OW84538   0.165   7.896   9.062
60902SOL    HW184539   0.103   7.937   9.001
60902SOL    HW284540   0.251   7.916   9.025
60903SOL     OW84541  14.246   4.929   3.962
60903SOL    HW184542  14.217   5.020   3.955
60903SOL    HW284543  14.339   4.932   3.937
60904SOL     OW84544   1.870   0.868   8.989
60904SOL    HW184545   1.844   0.937   9.051
60904SOL    HW284546   1.878   0.913   8.905
60905SOL     OW84547   5.379   2.415   7.135
60905SOL    HW184548   5.416   2.428   7.048
60905SOL    HW284549   5.425   2.478   7.190
60906SOL     OW84550  11.555  11.469  12.045
60906SOL    HW184551  11.533  11.503  12.132
60906SOL    HW284552  11.476  11.484  11.993
60907SOL     OW84553   4.181  10.264   0.547
60907SOL    HW184554   4.220  10.324   0.609
60907SOL    HW284555   4.136  10.321   0.484
60908SOL     OW84556   9.745   5.188  10.017
60908SOL    HW184557   9.746   5.243   9.939
60908SOL    HW284558   9.829   5.206  10.060
60909SOL     OW84559   2.749   1.933  11.396
60909SOL    HW184560   2.664   1.972  11.377
60909SOL    HW284561   2.759   1.944  11.491
60910SOL     OW84562   7.198  13.868  10.373
60910SOL    HW184563   7.196  13.807  10.300
60910SOL    HW284564   7.216  13.814  10.450
60911SOL     OW84565  13.362  10.189   9.000
60911SOL    HW184566  13.342  10.226   9.086
60911SOL    HW284567  13.445  10.144   9.011
60912SOL     OW84568  10.715  11.167   6.483
60912SOL    HW184569  10.666  11.193   6.405
60912SOL    HW284570  10.790  11.227   6.486
60913SOL     OW84571   0.551   8.426   6.632
60913SOL    HW184572   0.462   8.430   6.598
60913SOL    HW284573   0.541   8.391   6.721
60914SOL     OW84574  14.863   9.545   5.607
60914SOL    HW184575  14.860   9.638   5.627
60914SOL    HW284576   0.023   9.541   5.519
60915SOL     OW84577   2.325   4.670   9.302
60915SOL    HW184578   2.349   4.587   9.343
60915SOL    HW284579   2.318   4.650   9.209
60916SOL     OW84580   2.397   1.875   2.320
60916SOL    HW184581   2.371   1.966   2.308
60916SOL    HW284582   2.325   1.825   2.281
60917SOL     OW84583  14.497   7.526  11.932
60917SOL    HW184584  14.534   7.438  11.927
60917SOL    HW284585  14.417   7.515  11.983
60918SOL     OW84586   1.498   2.992  14.829
60918SOL    HW184587   1.559   2.918  14.824
60918SOL    HW284588   1.549   3.066  14.797
60919SOL     OW84589   3.306   3.849   2.899
60919SOL    HW184590   3.272   3.776   2.847
60919SOL    HW284591   3.397   3.826   2.917
60920SOL     OW84592   0.045  13.503   8.489
60920SOL    HW184593   0.087  13.452   8.559
60920SOL    HW284594   0.010  13.580   8.533
60921SOL     OW84595   7.045   3.153   7.539
60921SOL    HW184596   6.988   3.103   7.597
60921SOL    HW284597   7.099   3.206   7.598
60922SOL     OW84598   4.327   2.570   3.423
60922SOL    HW184599   4.346   2.496   3.365
60922SOL    HW284600   4.233   2.582   3.416
60923SOL     OW84601   3.422  13.482   0.548
60923SOL    HW184602   3.417  13.570   0.585
60923SOL    HW284603   3.483  13.491   0.474
60924SOL     OW84604   6.083   7.634   5.830
60924SOL    HW184605   6.123   7.555   5.793
60924SOL    HW284606   6.053   7.684   5.754
60925SOL     OW84607   0.041   9.823   7.418
60925SOL    HW184608  14.840   9.790   7.377
60925SOL    HW284609   0.016   9.908   7.454
60926SOL     OW84610   1.960   3.569   9.794
60926SOL    HW184611   2.051   3.558   9.821
60926SOL    HW284612   1.949   3.507   9.722
60927SOL     OW84613   5.883  13.769   2.379
60927SOL    HW184614   5.924  13.705   2.320
60927SOL    HW284615   5.868  13.721   2.460
60928SOL     OW84616   0.543   0.065   6.766
60928SOL    HW184617   0.583   0.052   6.680
60928SOL    HW284618   0.609   0.114   6.815
60929SOL     OW84619   7.510   0.840   5.475
60929SOL    HW184620   7.541   0.781   5.544
60929SOL    HW284621   7.463   0.908   5.522
60930SOL     OW84622   8.156   2.917   3.161
60930SOL    HW184623   8.093   2.979   3.197
60930SOL    HW284624   8.109   2.833   3.159
60931SOL     OW84625   6.453   2.147   2.841
60931SOL    HW184626   6.525   2.113   2.787
60931SOL    HW284627   6.376   2.101   2.809
60932SOL     OW84628  10.121   9.173   2.852
60932SOL    HW184629  10.032   9.138   2.846
60932SOL    HW284630  10.161   9.151   2.768
60933SOL     OW84631  14.610  11.478  11.718
60933SOL    HW184632  14.555  11.492  11.641
60933SOL    HW284633  14.678  11.545  11.712
60934SOL     OW84634   9.513   6.262   8.453
60934SOL    HW184635   9.592   6.214   8.429
60934SOL    HW284636   9.545   6.339   8.499
60935SOL     OW84637   1.122  11.807   1.157
60935SOL    HW184638   1.067  11.850   1.223
60935SOL    HW284639   1.072  11.816   1.075
60936SOL     OW84640   4.579   6.167  14.135
60936SOL    HW184641   4.655   6.176  14.078
60936SOL    HW284642   4.570   6.073  14.149
60937SOL     OW84643  13.268   9.124   6.199
60937SOL    HW184644  13.244   9.083   6.115
60937SOL    HW284645  13.293   9.213   6.176
60938SOL     OW84646   1.380  11.144   5.186
60938SOL    HW184647   1.428  11.107   5.259
60938SOL    HW284648   1.402  11.238   5.187
60939SOL     OW84649   1.190   1.569   9.036
60939SOL    HW184650   1.216   1.619   9.114
60939SOL    HW284651   1.243   1.606   8.965
60940SOL     OW84652  13.162  14.280  12.148
60940SOL    HW184653  13.152  14.238  12.062
60940SOL    HW284654  13.221  14.221  12.196
60941SOL     OW84655   2.174  14.527  14.009
60941SOL    HW184656   2.196  14.585  13.936
60941SOL    HW284657   2.186  14.439  13.974
60942SOL     OW84658  12.148   1.581  13.479
60942SOL    HW184659  12.191   1.554  13.398
60942SOL    HW284660  12.187   1.525  13.546
60943SOL     OW84661   4.977   8.301  10.346
60943SOL    HW184662   5.062   8.292  10.303
60943SOL    HW284663   4.968   8.394  10.364
60944SOL     OW84664   3.287  12.677  11.260
60944SOL    HW184665   3.282  12.661  11.354
60944SOL    HW284666   3.204  12.644  11.225
60945SOL     OW84667   6.952  11.076   9.537
60945SOL    HW184668   6.888  11.090   9.468
60945SOL    HW284669   7.036  11.093   9.496
60946SOL     OW84670  12.711   7.135   4.186
60946SOL    HW184671  12.632   7.086   4.210
60946SOL    HW284672  12.678   7.209   4.135
60947SOL     OW84673  14.031   4.958   4.953
60947SOL    HW184674  14.053   4.912   5.034
60947SOL    HW284675  13.996   5.042   4.983
60948SOL     OW84676  13.486   8.535   9.686
60948SOL    HW184677  13.505   8.609   9.743
60948SOL    HW284678  13.569   8.489   9.678
60949SOL     OW84679   8.451   8.760   5.998
60949SOL    HW184680   8.359   8.770   5.971
60949SOL    HW284681   8.447   8.743   6.092
60950SOL     OW84682   5.089   3.352   0.412
60950SOL    HW184683   5.120   3.427   0.361
60950SOL    HW284684   4.995   3.366   0.421
60951SOL     OW84685  12.445   4.038   2.412
60951SOL    HW184686  12.410   3.973   2.351
60951SOL    HW284687  12.453   4.118   2.360
60952SOL     OW84688  11.322   1.739   3.498
60952SOL    HW184689  11.296   1.748   3.407
60952SOL    HW284690  11.417   1.751   3.497
60953SOL     OW84691   0.068   5.922   8.983
60953SOL    HW184692   0.063   5.854   9.050
60953SOL    HW284693   0.012   5.890   8.912
60954SOL     OW84694  12.793   8.044   1.838
60954SOL    HW184695  12.878   8.025   1.797
60954SOL    HW284696  12.729   8.030   1.768
60955SOL     OW84697   2.277  10.648  11.652
60955SOL    HW184698   2.308  10.722  11.704
60955SOL    HW284699   2.191  10.627  11.688
60956SOL     OW84700   1.142  14.438  11.837
60956SOL    HW184701   1.198  14.399  11.904
60956SOL    HW284702   1.198  14.505  11.795
60957SOL     OW84703   4.788  12.825   9.598
60957SOL    HW184704   4.734  12.769   9.543
60957SOL    HW284705   4.735  12.904   9.612
60958SOL     OW84706  11.143  12.526   8.685
60958SOL    HW184707  11.154  12.574   8.767
60958SOL    HW284708  11.213  12.560   8.629
60959SOL     OW84709   3.105   4.867  11.300
60959SOL    HW184710   3.018   4.903  11.282
60959SOL    HW284711   3.107   4.784  11.252
60960SOL     OW84712  12.270   8.588   4.138
60960SOL    HW184713  12.208   8.592   4.065
60960SOL    HW284714  12.272   8.496   4.163
60961SOL     OW84715  14.461   5.211  14.260
60961SOL    HW184716  14.454   5.116  14.255
60961SOL    HW284717  14.510   5.236  14.181
60962SOL     OW84718  14.100   8.229   1.378
60962SOL    HW184719  14.115   8.301   1.439
60962SOL    HW284720  14.044   8.267   1.309
60963SOL     OW84721   7.924  13.042   9.110
60963SOL    HW184722   7.994  12.981   9.088
60963SOL    HW284723   7.900  13.019   9.200
60964SOL     OW84724   4.104  11.245  14.222
60964SOL    HW184725   4.066  11.172  14.175
60964SOL    HW284726   4.032  11.307  14.233
60965SOL     OW84727   5.631   4.332   9.416
60965SOL    HW184728   5.567   4.274   9.375
60965SOL    HW284729   5.585   4.416   9.425
60966SOL     OW84730   5.553   4.777  12.936
60966SOL    HW184731   5.617   4.843  12.913
60966SOL    HW284732   5.601   4.712  12.987
60967SOL     OW84733   6.047  10.803   4.306
60967SOL    HW184734   6.077  10.853   4.381
60967SOL    HW284735   6.126  10.759   4.272
60968SOL     OW84736  13.824   0.125   3.974
60968SOL    HW184737  13.739   0.093   3.944
60968SOL    HW284738  13.869   0.046   4.006
60969SOL     OW84739   0.931  10.920   2.727
60969SOL    HW184740   0.863  10.887   2.786
60969SOL    HW284741   0.980  10.842   2.701
60970SOL     OW84742   2.749  14.048  14.173
60970SOL    HW184743   2.842  14.068  14.178
60970SOL    HW284744   2.706  14.133  14.176
60971SOL     OW84745  10.800   9.725   0.982
60971SOL    HW184746  10.708   9.732   0.958
60971SOL    HW284747  10.799   9.711   1.077
60972SOL     OW84748   1.914   8.970   2.501
60972SOL    HW184749   1.828   8.958   2.460
60972SOL    HW284750   1.896   9.015   2.583
60973SOL     OW84751  11.284   2.778   9.945
60973SOL    HW184752  11.188   2.781   9.943
60973SOL    HW284753  11.307   2.790  10.037
60974SOL     OW84754   2.424  14.106   2.473
60974SOL    HW184755   2.460  14.163   2.406
60974SOL    HW284756   2.497  14.050   2.499
60975SOL     OW84757   3.109  14.214   7.969
60975SOL    HW184758   3.183  14.189   8.025
60975SOL    HW284759   3.144  14.210   7.880
60976SOL     OW84760   1.705  13.043   2.930
60976SOL    HW184761   1.629  12.985   2.920
60976SOL    HW284762   1.774  12.986   2.963
60977SOL     OW84763   5.896   6.298   8.303
60977SOL    HW184764   5.886   6.365   8.236
60977SOL    HW284765   5.848   6.333   8.379
60978SOL     OW84766   2.894  13.569   0.592
60978SOL    HW184767   2.978  13.546   0.633
60978SOL    HW284768   2.919  13.614   0.512
60979SOL     OW84769   7.849   4.758  14.387
60979SOL    HW184770   7.897   4.754  14.304
60979SOL    HW284771   7.792   4.681  14.385
60980SOL     OW84772   0.227   3.158  11.062
60980SOL    HW184773   0.320   3.156  11.039
60980SOL    HW284774   0.185   3.200  10.987
60981SOL     OW84775   2.468  10.842   1.767
60981SOL    HW184776   2.489  10.935   1.756
60981SOL    HW284777   2.506  10.800   1.691
60982SOL     OW84778   9.631   6.034   7.591
60982SOL    HW184779   9.571   6.015   7.663
60982SOL    HW284780   9.609   6.123   7.564
60983SOL     OW84781   4.499   3.224   5.883
60983SOL    HW184782   4.561   3.254   5.949
60983SOL    HW284783   4.413   3.245   5.920
60984SOL     OW84784  11.424  11.477   9.357
60984SOL    HW184785  11.363  11.478   9.430
60984SOL    HW284786  11.399  11.552   9.303
60985SOL     OW84787  11.212   4.597  14.573
60985SOL    HW184788  11.288   4.592  14.631
60985SOL    HW284789  11.140   4.623  14.631
60986SOL     OW84790   5.886   1.485   9.210
60986SOL    HW184791   5.845   1.410   9.167
60986SOL    HW284792   5.979   1.465   9.210
60987SOL     OW84793   3.584  11.801   0.139
60987SOL    HW184794   3.554  11.710   0.141
60987SOL    HW284795   3.646  11.804   0.066
60988SOL     OW84796   2.988  12.699  14.379
60988SOL    HW184797   3.018  12.776  14.428
60988SOL    HW284798   2.991  12.726  14.288
60989SOL     OW84799  14.222   0.858   5.130
60989SOL    HW184800  14.272   0.939   5.123
60989SOL    HW284801  14.268   0.796   5.073
60990SOL     OW84802   7.695   3.354  14.392
60990SOL    HW184803   7.748   3.381  14.317
60990SOL    HW284804   7.758   3.313  14.451
60991SOL     OW84805   6.292   5.903   2.248
60991SOL    HW184806   6.323   5.941   2.166
60991SOL    HW284807   6.365   5.911   2.308
60992SOL     OW84808   3.362  14.061   8.731
60992SOL    HW184809   3.372  14.137   8.673
60992SOL    HW284810   3.267  14.056   8.747
60993SOL     OW84811  14.214  13.837  11.528
60993SOL    HW184812  14.157  13.834  11.451
60993SOL    HW284813  14.285  13.897  11.503
60994SOL     OW84814   0.564   9.242  11.874
60994SOL    HW184815   0.501   9.241  11.802
60994SOL    HW284816   0.595   9.332  11.878
60995SOL     OW84817  14.419  14.414   9.944
60995SOL    HW184818  14.489  14.365   9.901
60995SOL    HW284819  14.338  14.375   9.909
60996SOL     OW84820   4.264   6.846  12.824
60996SOL    HW184821   4.347   6.893  12.817
60996SOL    HW284822   4.288   6.757  12.849
60997SOL     OW84823   0.398   3.071  10.366
60997SOL    HW184824   0.399   3.120  10.284
60997SOL    HW284825   0.305   3.055  10.383
60998SOL     OW84826  10.062  14.803   3.642
60998SOL    HW184827   9.969  14.827   3.644
60998SOL    HW284828  10.078  14.777   3.551
60999SOL     OW84829   4.405  10.185  10.117
60999SOL    HW184830   4.328  10.197  10.173
60999SOL    HW284831   4.471  10.244  10.154
61000SOL     OW84832   4.970   5.973   2.214
61000SOL    HW184833   4.900   6.018   2.167
61000SOL    HW284834   5.050   6.017   2.185
61001SOL     OW84835   5.723   3.153   0.319
61001SOL    HW184836   5.628   3.148   0.318
61001SOL    HW284837   5.743   3.242   0.289
61002SOL     OW84838   9.516   2.215   6.651
61002SOL    HW184839   9.459   2.151   6.608
61002SOL    HW284840   9.473   2.300   6.635
61003SOL     OW84841  14.214   6.933  14.284
61003SOL    HW184842  14.215   6.871  14.357
61003SOL    HW284843  14.120   6.948  14.268
61004SOL     OW84844   6.785   0.919  12.037
61004SOL    HW184845   6.858   0.862  12.010
61004SOL    HW284846   6.786   0.916  12.133
61005SOL     OW84847   9.302   3.011   6.928
61005SOL    HW184848   9.368   3.078   6.947
61005SOL    HW284849   9.352   2.929   6.923
61006SOL     OW84850   7.263   5.126   3.578
61006SOL    HW184851   7.179   5.164   3.605
61006SOL    HW284852   7.253   5.109   3.484
61007SOL     OW84853   9.370   5.105   2.365
61007SOL    HW184854   9.358   5.114   2.271
61007SOL    HW284855   9.453   5.149   2.383
61008SOL     OW84856   7.201   6.561  12.424
61008SOL    HW184857   7.296   6.560  12.415
61008SOL    HW284858   7.171   6.611  12.348
61009SOL     OW84859   8.080  12.726  11.934
61009SOL    HW184860   8.054  12.818  11.943
61009SOL    HW284861   8.172  12.730  11.908
61010SOL     OW84862   7.099   6.702  12.154
61010SOL    HW184863   7.045   6.781  12.162
61010SOL    HW284864   7.189   6.735  12.162
61011SOL     OW84865   0.684   1.923  13.507
61011SOL    HW184866   0.689   1.869  13.587
61011SOL    HW284867   0.766   1.973  13.508
61012SOL     OW84868   4.158   6.426   3.884
61012SOL    HW184869   4.107   6.507   3.881
61012SOL    HW284870   4.102   6.365   3.932
61013SOL     OW84871   9.699  14.316   4.928
61013SOL    HW184872   9.783  14.310   4.974
61013SOL    HW284873   9.709  14.259   4.852
61014SOL     OW84874  14.546   3.552  14.391
61014SOL    HW184875  14.542   3.484  14.323
61014SOL    HW284876  14.455   3.576  14.405
61015SOL     OW84877  11.294   2.914   8.892
61015SOL    HW184878  11.214   2.944   8.849
61015SOL    HW284879  11.339   2.994   8.917
61016SOL     OW84880  11.083   6.904  14.444
61016SOL    HW184881  11.063   6.811  14.430
61016SOL    HW284882  11.001   6.949  14.424
61017SOL     OW84883  11.086   5.800  10.171
61017SOL    HW184884  11.007   5.748  10.186
61017SOL    HW284885  11.085   5.865  10.241
61018SOL     OW84886   0.068  10.343   0.352
61018SOL    HW184887   0.149  10.316   0.309
61018SOL    HW284888   0.011  10.374   0.281
61019SOL     OW84889  14.064   9.272   4.547
61019SOL    HW184890  14.096   9.339   4.607
61019SOL    HW284891  14.109   9.192   4.574
61020SOL     OW84892   7.946   7.615   1.662
61020SOL    HW184893   7.968   7.609   1.570
61020SOL    HW284894   8.016   7.668   1.700
61021SOL     OW84895   1.542   6.298   9.002
61021SOL    HW184896   1.481   6.276   8.932
61021SOL    HW284897   1.629   6.290   8.962
61022SOL     OW84898   8.961   4.351   1.758
61022SOL    HW184899   9.008   4.400   1.825
61022SOL    HW284900   8.874   4.391   1.755
61023SOL     OW84901   0.234   2.136  11.945
61023SOL    HW184902   0.327   2.134  11.966
61023SOL    HW284903   0.201   2.216  11.986
61024SOL     OW84904   5.736   1.971  13.707
61024SOL    HW184905   5.711   1.906  13.773
61024SOL    HW284906   5.726   2.055  13.752
61025SOL     OW84907   6.773  14.485   3.999
61025SOL    HW184908   6.717  14.470   4.075
61025SOL    HW284909   6.757  14.411   3.942
61026SOL     OW84910   7.523   9.464   6.443
61026SOL    HW184911   7.481   9.394   6.493
61026SOL    HW284912   7.614   9.436   6.434
61027SOL     OW84913  14.344   1.652   4.090
61027SOL    HW184914  14.358   1.746   4.101
61027SOL    HW284915  14.426   1.612   4.119
61028SOL     OW84916  13.108  14.361   8.285
61028SOL    HW184917  13.013  14.353   8.287
61028SOL    HW284918  13.129  14.419   8.357
61029SOL     OW84919   1.707   4.070   2.779
61029SOL    HW184920   1.638   4.116   2.827
61029SOL    HW284921   1.787   4.084   2.831
61030SOL     OW84922   2.156   9.023   5.748
61030SOL    HW184923   2.088   9.088   5.764
61030SOL    HW284924   2.172   9.028   5.653
61031SOL     OW84925  11.681  14.707   7.970
61031SOL    HW184926  11.718  14.774   8.027
61031SOL    HW284927  11.718  14.726   7.884
61032SOL     OW84928  13.695   9.147  13.870
61032SOL    HW184929  13.667   9.195  13.948
61032SOL    HW284930  13.615   9.136  13.819
61033SOL     OW84931   9.920   1.235  10.193
61033SOL    HW184932   9.949   1.212  10.105
61033SOL    HW284933   9.841   1.182  10.207
61034SOL     OW84934   3.473  10.462  11.754
61034SOL    HW184935   3.451  10.396  11.819
61034SOL    HW284936   3.469  10.545  11.801
61035SOL     OW84937  12.211  10.900  13.913
61035SOL    HW184938  12.208  10.810  13.880
61035SOL    HW284939  12.174  10.953  13.842
61036SOL     OW84940   2.711   6.992   2.505
61036SOL    HW184941   2.729   6.898   2.502
61036SOL    HW284942   2.684   7.014   2.416
61037SOL     OW84943   6.701   6.399   1.350
61037SOL    HW184944   6.713   6.311   1.383
61037SOL    HW284945   6.619   6.429   1.390
61038SOL     OW84946   0.689   3.792   1.041
61038SOL    HW184947   0.769   3.837   1.066
61038SOL    HW284948   0.620   3.835   1.093
61039SOL     OW84949   4.358  11.362   5.799
61039SOL    HW184950   4.371  11.419   5.723
61039SOL    HW284951   4.267  11.333   5.792
61040SOL     OW84952   1.738  13.029  12.437
61040SOL    HW184953   1.758  12.946  12.480
61040SOL    HW284954   1.645  13.043  12.455
61041SOL     OW84955  10.530  10.081   3.221
61041SOL    HW184956  10.534  10.153   3.157
61041SOL    HW284957  10.464  10.110   3.284
61042SOL     OW84958  10.761   2.770   2.235
61042SOL    HW184959  10.839   2.779   2.289
61042SOL    HW284960  10.775   2.829   2.161
61043SOL     OW84961   8.893   3.975   5.307
61043SOL    HW184962   8.902   3.950   5.215
61043SOL    HW284963   8.823   4.040   5.308
61044SOL     OW84964   9.310   2.779   8.136
61044SOL    HW184965   9.221   2.744   8.140
61044SOL    HW284966   9.304   2.864   8.181
61045SOL     OW84967  10.467  12.917  14.636
61045SOL    HW184968  10.511  12.995  14.603
61045SOL    HW284969  10.453  12.863  14.559
61046SOL     OW84970   7.852  13.242   7.501
61046SOL    HW184971   7.819  13.194   7.426
61046SOL    HW284972   7.937  13.276   7.473
61047SOL     OW84973  10.985   9.117  12.639
61047SOL    HW184974  10.961   9.097  12.729
61047SOL    HW284975  10.916   9.076  12.586
61048SOL     OW84976   1.172   8.765  10.582
61048SOL    HW184977   1.097   8.771  10.523
61048SOL    HW284978   1.243   8.810  10.535
61049SOL     OW84979   8.942  12.718   9.580
61049SOL    HW184980   8.920  12.763   9.499
61049SOL    HW284981   9.017  12.662   9.557
61050SOL     OW84982  11.790   2.318   9.213
61050SOL    HW184983  11.754   2.232   9.234
61050SOL    HW284984  11.778   2.369   9.294
61051SOL     OW84985  11.718  12.090  14.494
61051SOL    HW184986  11.684  12.126  14.412
61051SOL    HW284987  11.783  12.025  14.466
61052SOL     OW84988  12.761   5.591   0.140
61052SOL    HW184989  12.762   5.552   0.053
61052SOL    HW284990  12.846   5.635   0.147
61053SOL     OW84991  10.970   7.592   0.171
61053SOL    HW184992  11.044   7.536   0.194
61053SOL    HW284993  11.001   7.643   0.097
61054SOL     OW84994  14.470  13.148   3.546
61054SOL    HW184995  14.389  13.190   3.518
61054SOL    HW284996  14.446  13.096   3.622
61055SOL     OW84997   5.994   2.727   9.914
61055SOL    HW184998   5.907   2.715   9.876
61055SOL    HW284999   5.978   2.747  10.006
61056SOL     OW85000  12.372   2.780   4.388
61056SOL    HW185001  12.356   2.689   4.411
61056SOL    HW285002  12.446   2.806   4.444
61057SOL     OW85003  13.877   1.221   0.205
61057SOL    HW185004  13.944   1.268   0.255
61057SOL    HW285005  13.795   1.268   0.225
61058SOL     OW85006   6.948   5.177  10.926
61058SOL    HW185007   6.948   5.175  11.021
61058SOL    HW285008   6.903   5.258  10.903
61059SOL     OW85009   8.646   7.200   3.344
61059SOL    HW185010   8.647   7.138   3.417
61059SOL    HW285011   8.555   7.202   3.316
61060SOL     OW85012  12.538   9.243   0.691
61060SOL    HW185013  12.608   9.185   0.660
61060SOL    HW285014  12.512   9.292   0.614
61061SOL     OW85015   7.696   9.064   8.180
61061SOL    HW185016   7.736   8.985   8.144
61061SOL    HW285017   7.625   9.085   8.120
61062SOL     OW85018   1.946  11.216  11.218
61062SOL    HW185019   2.004  11.200  11.144
61062SOL    HW285020   1.924  11.309  11.211
61063SOL     OW85021  12.951   0.128  13.841
61063SOL    HW185022  13.030   0.138  13.893
61063SOL    HW285023  12.895   0.202  13.867
61064SOL     OW85024  12.619   4.815   7.368
61064SOL    HW185025  12.666   4.782   7.291
61064SOL    HW285026  12.573   4.739   7.402
61065SOL     OW85027  10.484   3.754   2.473
61065SOL    HW185028  10.490   3.669   2.430
61065SOL    HW285029  10.492   3.735   2.566
61066SOL     OW85030   9.121   7.736  14.088
61066SOL    HW185031   9.195   7.697  14.040
61066SOL    HW285032   9.063   7.768  14.019
61067SOL     OW85033   2.882   3.692  13.423
61067SOL    HW185034   2.921   3.714  13.507
61067SOL    HW285035   2.903   3.766  13.366
61068SOL     OW85036   8.337   9.941   1.518
61068SOL    HW185037   8.351   9.988   1.600
61068SOL    HW285038   8.249   9.903   1.527
61069SOL     OW85039   6.329  10.354   8.178
61069SOL    HW185040   6.363  10.265   8.181
61069SOL    HW285041   6.259  10.351   8.112
61070SOL     OW85042  11.795  11.842  12.109
61070SOL    HW185043  11.772  11.853  12.017
61070SOL    HW285044  11.875  11.894  12.120
61071SOL     OW85045   9.628   2.982   0.502
61071SOL    HW185046   9.689   3.039   0.550
61071SOL    HW285047   9.683   2.938   0.436
61072SOL     OW85048   7.577   5.853  12.042
61072SOL    HW185049   7.670   5.868  12.056
61072SOL    HW285050   7.539   5.855  12.130
61073SOL     OW85051   8.228   3.634   5.041
61073SOL    HW185052   8.152   3.685   5.069
61073SOL    HW285053   8.252   3.670   4.956
61074SOL     OW85054  13.644   0.246  12.846
61074SOL    HW185055  13.699   0.220  12.773
61074SOL    HW285056  13.558   0.262  12.806
61075SOL     OW85057   1.137   3.008   5.660
61075SOL    HW185058   1.102   2.925   5.694
61075SOL    HW285059   1.060   3.052   5.623
61076SOL     OW85060   0.599  13.645   6.163
61076SOL    HW185061   0.689  13.612   6.171
61076SOL    HW285062   0.598  13.724   6.217
61077SOL     OW85063   5.510   0.713  13.467
61077SOL    HW185064   5.424   0.728  13.507
61077SOL    HW285065   5.507   0.763  13.385
61078SOL     OW85066   1.177  13.689   1.778
61078SOL    HW185067   1.147  13.703   1.688
61078SOL    HW285068   1.209  13.599   1.780
61079SOL     OW85069  13.320   7.367  14.319
61079SOL    HW185070  13.262   7.313  14.266
61079SOL    HW285071  13.268   7.393  14.394
61080SOL     OW85072   4.368   0.584   4.377
61080SOL    HW185073   4.312   0.657   4.352
61080SOL    HW285074   4.411   0.612   4.458
61081SOL     OW85075  10.436   1.370   7.025
61081SOL    HW185076  10.377   1.421   6.970
61081SOL    HW285077  10.444   1.286   6.981
61082SOL     OW85078  12.022   9.509   1.120
61082SOL    HW185079  12.085   9.538   1.055
61082SOL    HW285080  11.974   9.589   1.144
61083SOL     OW85081   8.939  14.767  11.584
61083SOL    HW185082   8.992  14.703  11.631
61083SOL    HW285083   8.855  14.767  11.631
61084SOL     OW85084   5.830  10.148   9.253
61084SOL    HW185085   5.808  10.192   9.334
61084SOL    HW285086   5.746  10.125   9.214
61085SOL     OW85087   5.172   0.901   9.534
61085SOL    HW185088   5.216   0.958   9.598
61085SOL    HW285089   5.204   0.932   9.449
61086SOL     OW85090   8.684   9.596   4.889
61086SOL    HW185091   8.710   9.626   4.975
61086SOL    HW285092   8.617   9.530   4.906
61087SOL     OW85093   9.154   8.927   1.470
61087SOL    HW185094   9.133   8.838   1.500
61087SOL    HW285095   9.234   8.917   1.420
61088SOL     OW85096   2.299   2.442  11.628
61088SOL    HW185097   2.206   2.423  11.639
61088SOL    HW285098   2.306   2.473  11.537
61089SOL     OW85099   4.458   5.276  13.885
61089SOL    HW185100   4.443   5.257  13.978
61089SOL    HW285101   4.376   5.250  13.842
61090SOL     OW85102  13.914   3.909   8.170
61090SOL    HW185103  13.926   3.938   8.080
61090SOL    HW285104  13.983   3.954   8.219
61091SOL     OW85105   0.087  10.095   5.991
61091SOL    HW185106   0.030  10.136   6.057
61091SOL    HW285107   0.125  10.020   6.036
61092SOL     OW85108   3.935   5.371   8.966
61092SOL    HW185109   3.845   5.402   8.972
61092SOL    HW285110   3.949   5.356   8.873
61093SOL     OW85111   2.469   5.849   0.385
61093SOL    HW185112   2.473   5.944   0.371
61093SOL    HW285113   2.431   5.814   0.305
61094SOL     OW85114  10.667   2.358  10.067
61094SOL    HW185115  10.583   2.320  10.091
61094SOL    HW285116  10.653   2.396   9.981
61095SOL     OW85117  11.291   1.037   6.800
61095SOL    HW185118  11.297   1.047   6.705
61095SOL    HW285119  11.325   0.948   6.817
61096SOL     OW85120  14.831   1.258   6.407
61096SOL    HW185121   0.031   1.221   6.368
61096SOL    HW285122  14.861   1.338   6.451
61097SOL     OW85123   5.396   7.584   7.022
61097SOL    HW185124   5.474   7.596   6.968
61097SOL    HW285125   5.430   7.577   7.111
61098SOL     OW85126  10.940  14.217  13.188
61098SOL    HW185127  10.891  14.205  13.107
61098SOL    HW285128  10.907  14.300  13.224
61099SOL     OW85129   5.926   1.340   1.035
61099SOL    HW185130   5.886   1.349   0.949
61099SOL    HW285131   5.890   1.413   1.086
61100SOL     OW85132   7.437  10.639   7.702
61100SOL    HW185133   7.456  10.641   7.795
61100SOL    HW285134   7.479  10.559   7.670
61101SOL     OW85135   2.436   1.308   4.535
61101SOL    HW185136   2.350   1.299   4.492
61101SOL    HW285137   2.499   1.294   4.464
61102SOL     OW85138  10.373  12.451  12.478
61102SOL    HW185139  10.280  12.437  12.460
61102SOL    HW285140  10.401  12.513  12.411
61103SOL     OW85141  13.930  11.323  11.713
61103SOL    HW185142  13.868  11.304  11.783
61103SOL    HW285143  13.877  11.323  11.633
61104SOL     OW85144   8.453   9.191   3.984
61104SOL    HW185145   8.420   9.242   3.910
61104SOL    HW285146   8.402   9.222   4.059
61105SOL     OW85147  13.570   8.802  11.216
61105SOL    HW185148  13.520   8.743  11.160
61105SOL    HW285149  13.510   8.875  11.234
61106SOL     OW85150   3.866   2.638   0.921
61106SOL    HW185151   3.859   2.732   0.904
61106SOL    HW285152   3.942   2.610   0.870
61107SOL     OW85153   6.237  13.037   8.802
61107SOL    HW185154   6.315  13.085   8.829
61107SOL    HW285155   6.272  12.960   8.756
61108SOL     OW85156   4.417   6.080  13.595
61108SOL    HW185157   4.324   6.081  13.570
61108SOL    HW285158   4.457   6.149  13.542
61109SOL     OW85159   5.632   8.347   7.157
61109SOL    HW185160   5.632   8.440   7.132
61109SOL    HW285161   5.717   8.334   7.200
61110SOL     OW85162   9.617   5.823   4.776
61110SOL    HW185163   9.600   5.866   4.692
61110SOL    HW285164   9.664   5.742   4.753
61111SOL     OW85165   6.660   3.734  13.107
61111SOL    HW185166   6.724   3.665  13.123
61111SOL    HW285167   6.708   3.816  13.118
61112SOL     OW85168   0.557   6.083  12.057
61112SOL    HW185169   0.546   6.162  12.003
61112SOL    HW285170   0.556   6.012  11.994
61113SOL     OW85171  12.378   6.466   5.078
61113SOL    HW185172  12.324   6.387   5.084
61113SOL    HW285173  12.401   6.472   4.985
61114SOL     OW85174   5.510   5.028   0.568
61114SOL    HW185175   5.494   5.111   0.524
61114SOL    HW285176   5.532   5.053   0.658
61115SOL     OW85177  14.670   7.377   7.799
61115SOL    HW185178  14.638   7.360   7.888
61115SOL    HW285179  14.593   7.374   7.744
61116SOL     OW85180   4.969   2.268   5.404
61116SOL    HW185181   5.006   2.338   5.350
61116SOL    HW285182   4.974   2.301   5.493
61117SOL     OW85183  14.164   0.476  14.323
61117SOL    HW185184  14.194   0.513  14.406
61117SOL    HW285185  14.148   0.552  14.267
61118SOL     OW85186  10.832   5.883   6.852
61118SOL    HW185187  10.762   5.925   6.901
61118SOL    HW285188  10.901   5.868   6.917
61119SOL     OW85189   3.323   4.279  12.119
61119SOL    HW185190   3.237   4.318  12.132
61119SOL    HW285191   3.338   4.285  12.024
61120SOL     OW85192   8.092   0.116  12.194
61120SOL    HW185193   8.131   0.201  12.173
61120SOL    HW285194   8.009   0.115  12.147
61121SOL     OW85195  10.390   9.423  13.804
61121SOL    HW185196  10.328   9.398  13.735
61121SOL    HW285197  10.476   9.399  13.769
61122SOL     OW85198  12.337  14.240   5.186
61122SOL    HW185199  12.250  14.275   5.206
61122SOL    HW285200  12.398  14.304   5.223
61123SOL     OW85201   6.859  14.093   8.637
61123SOL    HW185202   6.809  14.155   8.691
61123SOL    HW285203   6.793  14.035   8.599
61124SOL     OW85204   5.893  11.955  11.684
61124SOL    HW185205   5.868  11.867  11.712
61124SOL    HW285206   5.857  12.012  11.752
61125SOL     OW85207   0.429   5.003   9.656
61125SOL    HW185208   0.412   4.979   9.747
61125SOL    HW285209   0.402   5.095   9.650
61126SOL     OW85210   7.332   8.886   7.861
61126SOL    HW185211   7.285   8.967   7.843
61126SOL    HW285212   7.264   8.819   7.870
61127SOL     OW85213   5.894  12.974   7.884
61127SOL    HW185214   5.964  12.949   7.824
61127SOL    HW285215   5.836  13.030   7.831
61128SOL     OW85216   6.689   8.262  13.289
61128SOL    HW185217   6.666   8.353  13.309
61128SOL    HW285218   6.771   8.247  13.337
61129SOL     OW85219   0.411   2.670   3.807
61129SOL    HW185220   0.380   2.633   3.890
61129SOL    HW285221   0.475   2.607   3.774
61130SOL     OW85222  12.104   1.530   8.734
61130SOL    HW185223  12.159   1.466   8.689
61130SOL    HW285224  12.015   1.496   8.725
61131SOL     OW85225   1.895  12.080  12.078
61131SOL    HW185226   1.950  12.128  12.140
61131SOL    HW285227   1.911  11.988  12.099
61132SOL     OW85228   4.473  11.525   2.230
61132SOL    HW185229   4.526  11.575   2.292
61132SOL    HW285230   4.386  11.519   2.271
61133SOL     OW85231   8.633  12.730   7.796
61133SOL    HW185232   8.683  12.727   7.877
61133SOL    HW285233   8.541  12.735   7.824
61134SOL     OW85234   6.379   4.471  13.166
61134SOL    HW185235   6.318   4.510  13.229
61134SOL    HW285236   6.323   4.424  13.105
61135SOL     OW85237  11.943   3.984   2.849
61135SOL    HW185238  11.898   4.031   2.919
61135SOL    HW285239  12.008   4.045   2.816
61136SOL     OW85240   7.335   7.723   6.420
61136SOL    HW185241   7.387   7.748   6.344
61136SOL    HW285242   7.379   7.764   6.494
61137SOL     OW85243  11.406   3.361   2.526
61137SOL    HW185244  11.456   3.443   2.533
61137SOL    HW285245  11.472   3.292   2.532
61138SOL     OW85246   6.485   0.739   3.698
61138SOL    HW185247   6.481   0.659   3.750
61138SOL    HW285248   6.479   0.709   3.608
61139SOL     OW85249   7.778   7.140   3.451
61139SOL    HW185250   7.759   7.046   3.456
61139SOL    HW285251   7.825   7.159   3.532
61140SOL     OW85252  12.767  14.225  10.225
61140SOL    HW185253  12.723  14.165  10.165
61140SOL    HW285254  12.805  14.292  10.167
61141SOL     OW85255  11.677   4.274  13.664
61141SOL    HW185256  11.650   4.280  13.756
61141SOL    HW285257  11.764   4.314  13.662
61142SOL     OW85258   7.794  14.438   2.073
61142SOL    HW185259   7.726  14.380   2.038
61142SOL    HW285260   7.771  14.448   2.166
61143SOL     OW85261   7.248   6.533  11.666
61143SOL    HW185262   7.234   6.557  11.574
61143SOL    HW285263   7.210   6.445  11.673
61144SOL     OW85264   0.153   5.441   5.275
61144SOL    HW185265   0.060   5.460   5.283
61144SOL    HW285266   0.158   5.346   5.266
61145SOL     OW85267   2.572   4.237   2.901
61145SOL    HW185268   2.624   4.260   2.978
61145SOL    HW285269   2.583   4.311   2.842
61146SOL     OW85270   7.336  11.333   5.736
61146SOL    HW185271   7.410  11.356   5.792
61146SOL    HW285272   7.286  11.414   5.728
61147SOL     OW85273   0.401  14.052  11.084
61147SOL    HW185274   0.372  14.143  11.074
61147SOL    HW285275   0.465  14.055  11.155
61148SOL     OW85276   3.515   3.840   6.353
61148SOL    HW185277   3.585   3.799   6.404
61148SOL    HW285278   3.558   3.911   6.305
61149SOL     OW85279   1.971  10.671   9.519
61149SOL    HW185280   2.000  10.580   9.520
61149SOL    HW285281   2.051  10.722   9.506
61150SOL     OW85282  11.423   7.741  14.474
61150SOL    HW185283  11.462   7.654  14.478
61150SOL    HW285284  11.497   7.801  14.485
61151SOL     OW85285   7.607   9.720   7.864
61151SOL    HW185286   7.551   9.675   7.801
61151SOL    HW285287   7.556   9.720   7.946
61152SOL     OW85288   9.460   0.482   1.777
61152SOL    HW185289   9.426   0.472   1.866
61152SOL    HW285290   9.445   0.397   1.736
61153SOL     OW85291   2.321  13.097   9.929
61153SOL    HW185292   2.401  13.059   9.893
61153SOL    HW285293   2.280  13.143   9.855
61154SOL     OW85294   6.731  13.736   0.933
61154SOL    HW185295   6.815  13.742   0.888
61154SOL    HW285296   6.670  13.707   0.865
61155SOL     OW85297  10.912  11.589   3.152
61155SOL    HW185298  10.917  11.495   3.135
61155SOL    HW285299  10.936  11.629   3.068
61156SOL     OW85300   9.064   4.809   7.807
61156SOL    HW185301   9.140   4.756   7.827
61156SOL    HW285302   9.040   4.851   7.890
61157SOL     OW85303   5.185  10.004  11.628
61157SOL    HW185304   5.208   9.932  11.569
61157SOL    HW285305   5.262  10.015  11.683
61158SOL     OW85306  11.883   2.623  14.142
61158SOL    HW185307  11.972   2.627  14.107
61158SOL    HW285308  11.848   2.540  14.110
61159SOL     OW85309  10.880   8.019  14.454
61159SOL    HW185310  10.857   8.000  14.545
61159SOL    HW285311  10.803   8.064  14.419
61160SOL     OW85312   7.652  13.723  13.624
61160SOL    HW185313   7.609  13.644  13.657
61160SOL    HW285314   7.704  13.693  13.550
61161SOL     OW85315   7.631   3.595  10.785
61161SOL    HW185316   7.649   3.545  10.706
61161SOL    HW285317   7.544   3.566  10.813
61162SOL     OW85318   2.150  13.493   9.112
61162SOL    HW185319   2.120  13.403   9.124
61162SOL    HW285320   2.213  13.507   9.182
61163SOL     OW85321  14.261   9.350  10.796
61163SOL    HW185322  14.191   9.301  10.753
61163SOL    HW285323  14.232   9.358  10.887
61164SOL     OW85324  14.657  10.959  10.464
61164SOL    HW185325  14.690  10.960  10.374
61164SOL    HW285326  14.724  10.915  10.515
61165SOL     OW85327  12.204  14.179   9.755
61165SOL    HW185328  12.278  14.169   9.695
61165SOL    HW285329  12.196  14.094   9.797
61166SOL     OW85330  13.890  12.061   2.472
61166SOL    HW185331  13.848  11.986   2.429
61166SOL    HW285332  13.819  12.124   2.486
61167SOL     OW85333   8.528  14.527   2.613
61167SOL    HW185334   8.437  14.552   2.597
61167SOL    HW285335   8.554  14.480   2.533
61168SOL     OW85336  10.530   8.181  11.605
61168SOL    HW185337  10.454   8.130  11.580
61168SOL    HW285338  10.520   8.264  11.559
61169SOL     OW85339   8.651  13.327   5.005
61169SOL    HW185340   8.734  13.282   5.023
61169SOL    HW285341   8.678  13.406   4.959
61170SOL     OW85342  13.456   6.683   8.364
61170SOL    HW185343  13.542   6.657   8.334
61170SOL    HW285344  13.397   6.658   8.293
61171SOL     OW85345   4.135  14.162  12.209
61171SOL    HW185346   4.138  14.253  12.239
61171SOL    HW285347   4.043  14.148  12.185
61172SOL     OW85348   6.629  14.732   8.571
61172SOL    HW185349   6.651  14.687   8.652
61172SOL    HW285350   6.658  14.672   8.502
61173SOL     OW85351  11.381   0.393   1.111
61173SOL    HW185352  11.363   0.299   1.119
61173SOL    HW285353  11.402   0.421   1.200
61174SOL     OW85354   4.566  12.518   2.583
61174SOL    HW185355   4.553  12.540   2.675
61174SOL    HW285356   4.498  12.453   2.564
61175SOL     OW85357   9.109  14.004   0.576
61175SOL    HW185358   9.124  14.098   0.576
61175SOL    HW285359   9.015  13.994   0.559
61176SOL     OW85360  11.945   9.644   5.182
61176SOL    HW185361  11.880   9.708   5.212
61176SOL    HW285362  11.948   9.657   5.087
61177SOL     OW85363  10.394   5.169   0.518
61177SOL    HW185364  10.340   5.246   0.500
61177SOL    HW285365  10.403   5.125   0.433
61178SOL     OW85366   1.676   7.193  13.085
61178SOL    HW185367   1.725   7.275  13.082
61178SOL    HW285368   1.725   7.138  13.146
61179SOL     OW85369  13.435   9.198   5.045
61179SOL    HW185370  13.527   9.222   5.057
61179SOL    HW285371  13.429   9.110   5.082
61180SOL     OW85372   6.180   5.784   2.833
61180SOL    HW185373   6.163   5.878   2.827
61180SOL    HW285374   6.270   5.777   2.866
61181SOL     OW85375  10.153   3.637   5.532
61181SOL    HW185376  10.088   3.669   5.593
61181SOL    HW285377  10.236   3.670   5.566
61182SOL     OW85378   6.497  11.956  11.815
61182SOL    HW185379   6.491  11.938  11.909
61182SOL    HW285380   6.454  12.040  11.803
61183SOL     OW85381   1.560  12.138   8.943
61183SOL    HW185382   1.525  12.206   8.885
61183SOL    HW285383   1.491  12.125   9.008
61184SOL     OW85384   7.170  11.490  10.189
61184SOL    HW185385   7.166  11.481  10.094
61184SOL    HW285386   7.079  11.492  10.218
61185SOL     OW85387   3.409   9.192  11.219
61185SOL    HW185388   3.347   9.156  11.156
61185SOL    HW285389   3.493   9.191  11.174
61186SOL     OW85390   0.845   6.900   5.826
61186SOL    HW185391   0.777   6.842   5.860
61186SOL    HW285392   0.837   6.980   5.878
61187SOL     OW85393   0.310  12.410  13.821
61187SOL    HW185394   0.367  12.341  13.856
61187SOL    HW285395   0.293  12.383  13.731
61188SOL     OW85396   9.709  11.696  12.753
61188SOL    HW185397   9.646  11.758  12.788
61188SOL    HW285398   9.787  11.707  12.807
61189SOL     OW85399   7.889   2.437   3.816
61189SOL    HW185400   7.884   2.495   3.892
61189SOL    HW285401   7.836   2.361   3.841
61190SOL     OW85402  12.046   7.623   1.268
61190SOL    HW185403  11.984   7.689   1.238
61190SOL    HW285404  12.073   7.652   1.355
61191SOL     OW85405  10.196   1.573   3.625
61191SOL    HW185406  10.246   1.511   3.678
61191SOL    HW285407  10.256   1.646   3.612
61192SOL     OW85408   9.369   0.960   9.473
61192SOL    HW185409   9.440   1.007   9.429
61192SOL    HW285410   9.351   1.010   9.552
61193SOL     OW85411  13.517  13.657  12.844
61193SOL    HW185412  13.568  13.702  12.776
61193SOL    HW285413  13.476  13.727  12.894
61194SOL     OW85414  12.421  10.132  14.168
61194SOL    HW185415  12.418  10.097  14.079
61194SOL    HW285416  12.365  10.210  14.165
61195SOL     OW85417   7.278   2.847   1.458
61195SOL    HW185418   7.363   2.887   1.439
61195SOL    HW285419   7.285   2.821   1.550
61196SOL     OW85420  11.446   2.226   4.407
61196SOL    HW185421  11.492   2.157   4.454
61196SOL    HW285422  11.450   2.200   4.315
61197SOL     OW85423   9.199   5.746   1.345
61197SOL    HW185424   9.288   5.711   1.332
61197SOL    HW285425   9.150   5.672   1.382
61198SOL     OW85426   8.622   8.598  11.525
61198SOL    HW185427   8.604   8.657  11.451
61198SOL    HW285428   8.555   8.531  11.519
61199SOL     OW85429   0.820   5.815  10.358
61199SOL    HW185430   0.842   5.902  10.390
61199SOL    HW285431   0.800   5.765  10.436
61200SOL     OW85432   5.646   3.675   5.964
61200SOL    HW185433   5.632   3.652   5.872
61200SOL    HW285434   5.703   3.605   5.997
61201SOL     OW85435   3.901  11.488  10.935
61201SOL    HW185436   3.989  11.522  10.951
61201SOL    HW285437   3.846  11.536  10.997
61202SOL     OW85438   2.097  11.662   0.307
61202SOL    HW185439   2.136  11.744   0.338
61202SOL    HW285440   2.147  11.639   0.229
61203SOL     OW85441  11.762   7.214  10.366
61203SOL    HW185442  11.776   7.191  10.274
61203SOL    HW285443  11.683   7.167  10.391
61204SOL     OW85444   4.548  10.210  14.719
61204SOL    HW185445   4.528  10.289  14.668
61204SOL    HW285446   4.476  10.205  14.782
61205SOL     OW85447   3.911   5.237   7.788
61205SOL    HW185448   3.898   5.289   7.867
61205SOL    HW285449   3.854   5.278   7.723
61206SOL     OW85450  10.966   7.601   3.110
61206SOL    HW185451  11.041   7.542   3.098
61206SOL    HW285452  10.964   7.619   3.204
61207SOL     OW85453   1.194  13.671  14.735
61207SOL    HW185454   1.287  13.687  14.721
61207SOL    HW285455   1.152  13.755  14.719
61208SOL     OW85456  13.238  10.042   2.691
61208SOL    HW185457  13.264   9.962   2.647
61208SOL    HW285458  13.231  10.018   2.784
61209SOL     OW85459   3.108  13.871  10.907
61209SOL    HW185460   3.076  13.788  10.872
61209SOL    HW285461   3.150  13.847  10.990
61210SOL     OW85462  10.934   5.403   7.411
61210SOL    HW185463  11.007   5.456   7.443
61210SOL    HW285464  10.874   5.466   7.371
61211SOL     OW85465   4.123   2.589   5.720
61211SOL    HW185466   4.154   2.500   5.741
61211SOL    HW285467   4.087   2.622   5.802
61212SOL     OW85468   5.099   8.412  11.582
61212SOL    HW185469   5.071   8.454  11.501
61212SOL    HW285470   5.184   8.451  11.601
61213SOL     OW85471   7.198   5.953   2.674
61213SOL    HW185472   7.235   5.874   2.715
61213SOL    HW285473   7.261   5.975   2.605
61214SOL     OW85474   4.267   4.731   4.970
61214SOL    HW185475   4.201   4.745   5.038
61214SOL    HW285476   4.349   4.756   5.011
61215SOL     OW85477  11.797   4.512   9.638
61215SOL    HW185478  11.785   4.556   9.553
61215SOL    HW285479  11.744   4.432   9.631
61216SOL     OW85480   9.637   3.754   5.348
61216SOL    HW185481   9.674   3.670   5.376
61216SOL    HW285482   9.702   3.819   5.375
61217SOL     OW85483  14.862   3.679   8.954
61217SOL    HW185484  14.851   3.587   8.975
61217SOL    HW285485  14.788   3.723   8.995
61218SOL     OW85486   6.056   0.626   6.530
61218SOL    HW185487   6.132   0.661   6.483
61218SOL    HW285488   5.991   0.696   6.528
61219SOL     OW85489   8.046   4.255   6.773
61219SOL    HW185490   7.950   4.253   6.780
61219SOL    HW285491   8.076   4.284   6.859
61220SOL     OW85492   4.595   7.395   7.648
61220SOL    HW185493   4.555   7.371   7.564
61220SOL    HW285494   4.541   7.466   7.681
61221SOL     OW85495   2.352   6.898   1.498
61221SOL    HW185496   2.304   6.862   1.573
61221SOL    HW285497   2.293   6.964   1.461
61222SOL     OW85498   2.338  10.152  12.761
61222SOL    HW185499   2.255  10.113  12.787
61222SOL    HW285500   2.357  10.216  12.830
61223SOL     OW85501   7.424   0.858   7.307
61223SOL    HW185502   7.364   0.873   7.235
61223SOL    HW285503   7.404   0.769   7.338
61224SOL     OW85504   4.195  10.036  14.209
61224SOL    HW185505   4.234  10.103  14.265
61224SOL    HW285506   4.268   9.978  14.188
61225SOL     OW85507  12.669   7.851   7.438
61225SOL    HW185508  12.750   7.821   7.480
61225SOL    HW285509  12.634   7.917   7.498
61226SOL     OW85510  10.672  11.569   3.824
61226SOL    HW185511  10.728  11.498   3.791
61226SOL    HW285512  10.720  11.604   3.899
61227SOL     OW85513   2.817   6.277   1.836
61227SOL    HW185514   2.799   6.371   1.832
61227SOL    HW285515   2.781   6.242   1.754
61228SOL     OW85516   3.502   2.603  11.860
61228SOL    HW185517   3.469   2.516  11.838
61228SOL    HW285518   3.467   2.620  11.947
61229SOL     OW85519  12.592  11.915  11.755
61229SOL    HW185520  12.598  11.903  11.850
61229SOL    HW285521  12.556  11.832  11.723
61230SOL     OW85522  12.040   6.675   8.611
61230SOL    HW185523  11.956   6.694   8.568
61230SOL    HW285524  12.100   6.656   8.539
61231SOL     OW85525   3.851  10.418  12.982
61231SOL    HW185526   3.845  10.479  12.908
61231SOL    HW285527   3.856  10.332  12.940
61232SOL     OW85528   5.989   5.542   8.294
61232SOL    HW185529   6.034   5.540   8.378
61232SOL    HW285530   5.904   5.499   8.311
61233SOL     OW85531   6.975   3.759  12.455
61233SOL    HW185532   6.913   3.690  12.477
61233SOL    HW285533   6.924   3.821  12.402
61234SOL     OW85534   7.744  13.062  12.483
61234SOL    HW185535   7.731  13.129  12.416
61234SOL    HW285536   7.657  13.050  12.522
61235SOL     OW85537   2.412  11.893   5.446
61235SOL    HW185538   2.451  11.885   5.533
61235SOL    HW285539   2.485  11.916   5.389
61236SOL     OW85540   9.979   5.519  14.018
61236SOL    HW185541  10.033   5.581  14.066
61236SOL    HW285542  10.003   5.433  14.053
61237SOL     OW85543   6.537  11.869  13.267
61237SOL    HW185544   6.619  11.911  13.293
61237SOL    HW285545   6.475  11.941  13.257
61238SOL     OW85546   4.603  14.280   5.311
61238SOL    HW185547   4.684  14.303   5.265
61238SOL    HW285548   4.533  14.305   5.251
61239SOL     OW85549  11.511   3.682   4.192
61239SOL    HW185550  11.518   3.770   4.230
61239SOL    HW285551  11.424   3.679   4.154
61240SOL     OW85552   1.767   4.136   2.345
61240SOL    HW185553   1.833   4.205   2.355
61240SOL    HW285554   1.699   4.157   2.409
61241SOL     OW85555   8.391   0.228   9.791
61241SOL    HW185556   8.478   0.247   9.828
61241SOL    HW285557   8.332   0.287   9.837
61242SOL     OW85558   4.278  11.879   9.397
61242SOL    HW185559   4.299  11.827   9.475
61242SOL    HW285560   4.220  11.948   9.430
61243SOL     OW85561   2.000   6.560   7.046
61243SOL    HW185562   2.094   6.578   7.054
61243SOL    HW285563   1.995   6.468   7.021
61244SOL     OW85564   3.273   3.606   6.508
61244SOL    HW185565   3.224   3.524   6.512
61244SOL    HW285566   3.262   3.636   6.418
61245SOL     OW85567   9.942   6.907   9.804
61245SOL    HW185568   9.917   6.995   9.774
61245SOL    HW285569   9.887   6.848   9.753
61246SOL     OW85570   4.854  14.046  14.861
61246SOL    HW185571   4.825  13.955  14.853
61246SOL    HW285572   4.862  14.077  14.771
61247SOL     OW85573   4.740  12.541   6.714
61247SOL    HW185574   4.706  12.545   6.804
61247SOL    HW285575   4.662  12.525   6.661
61248SOL     OW85576   9.259   4.162   5.961
61248SOL    HW185577   9.325   4.175   6.029
61248SOL    HW285578   9.290   4.215   5.887
61249SOL     OW85579   5.934  12.193   2.650
61249SOL    HW185580   5.909  12.284   2.663
61249SOL    HW285581   5.990  12.173   2.725
61250SOL     OW85582   3.246  12.883   1.970
61250SOL    HW185583   3.300  12.845   1.901
61250SOL    HW285584   3.242  12.815   2.038
61251SOL     OW85585   3.189   4.296   2.364
61251SOL    HW185586   3.175   4.230   2.431
61251SOL    HW285587   3.206   4.246   2.284
61252SOL     OW85588  10.039   9.082  12.586
61252SOL    HW185589  10.074   9.136  12.657
61252SOL    HW285590  10.041   9.139  12.509
61253SOL     OW85591   1.762   5.911   6.250
61253SOL    HW185592   1.804   5.997   6.242
61253SOL    HW285593   1.835   5.848   6.246
61254SOL     OW85594  13.140   9.645   9.731
61254SOL    HW185595  13.173   9.555   9.742
61254SOL    HW285596  13.047   9.639   9.755
61255SOL     OW85597  12.485  11.477  14.370
61255SOL    HW185598  12.480  11.483  14.274
61255SOL    HW285599  12.395  11.490  14.399
61256SOL     OW85600   6.415  12.120  13.285
61256SOL    HW185601   6.332  12.095  13.324
61256SOL    HW285602   6.463  12.163  13.355
61257SOL     OW85603   8.363   1.370   6.996
61257SOL    HW185604   8.402   1.339   6.915
61257SOL    HW285605   8.304   1.300   7.023
61258SOL     OW85606  14.244   9.888  14.726
61258SOL    HW185607  14.252   9.971  14.773
61258SOL    HW285608  14.322   9.839  14.752
61259SOL     OW85609   7.335   9.833   6.570
61259SOL    HW185610   7.415   9.781   6.569
61259SOL    HW285611   7.365   9.924   6.565
61260SOL     OW85612   6.511   2.075  12.159
61260SOL    HW185613   6.569   1.999  12.164
61260SOL    HW285614   6.446   2.051  12.094
61261SOL     OW85615   7.492   4.126  10.740
61261SOL    HW185616   7.398   4.115  10.724
61261SOL    HW285617   7.507   4.086  10.825
61262SOL     OW85618  13.447   2.340   0.091
61262SOL    HW185619  13.503   2.330   0.168
61262SOL    HW285620  13.466   2.262   0.038
61263SOL     OW85621   3.567  11.007   6.293
61263SOL    HW185622   3.541  11.092   6.328
61263SOL    HW285623   3.661  11.002   6.307
61264SOL     OW85624   4.247   6.909   2.583
61264SOL    HW185625   4.316   6.937   2.522
61264SOL    HW285626   4.289   6.843   2.638
61265SOL     OW85627   0.716  12.077   1.200
61265SOL    HW185628   0.645  12.086   1.263
61265SOL    HW285629   0.727  12.164   1.163
61266SOL     OW85630   2.537   7.305  13.151
61266SOL    HW185631   2.578   7.295  13.236
61266SOL    HW285632   2.464   7.366  13.166
61267SOL     OW85633  12.292   6.392   8.915
61267SOL    HW185634  12.261   6.482   8.901
61267SOL    HW285635  12.312   6.360   8.827
61268SOL     OW85636   8.316   6.314  14.778
61268SOL    HW185637   8.253   6.361  14.724
61268SOL    HW285638   8.397   6.364  14.770
61269SOL     OW85639   4.591   2.960   6.554
61269SOL    HW185640   4.606   2.983   6.645
61269SOL    HW285641   4.615   3.038   6.504
61270SOL     OW85642  10.756   1.011  10.679
61270SOL    HW185643  10.755   1.106  10.667
61270SOL    HW285644  10.665   0.988  10.699
61271SOL     OW85645   6.433  13.089   2.497
61271SOL    HW185646   6.484  13.010   2.517
61271SOL    HW285647   6.459  13.152   2.564
61272SOL     OW85648  11.736   6.238   6.177
61272SOL    HW185649  11.797   6.310   6.158
61272SOL    HW285650  11.791   6.171   6.217
61273SOL     OW85651   9.122   8.606   4.878
61273SOL    HW185652   9.214   8.607   4.905
61273SOL    HW285653   9.124   8.631   4.785
61274SOL     OW85654   1.847  11.409   5.206
61274SOL    HW185655   1.808  11.401   5.293
61274SOL    HW285656   1.939  11.385   5.219
61275SOL     OW85657   8.043   7.915   0.040
61275SOL    HW185658   7.949   7.929   0.055
61275SOL    HW285659   8.051   7.906  14.824
61276SOL     OW85660   3.315   8.420   3.798
61276SOL    HW185661   3.330   8.504   3.754
61276SOL    HW285662   3.396   8.370   3.783
61277SOL     OW85663   0.570   8.573  13.531
61277SOL    HW185664   0.630   8.617  13.591
61277SOL    HW285665   0.491   8.629  13.530
61278SOL     OW85666   9.793   0.495   8.336
61278SOL    HW185667   9.807   0.537   8.251
61278SOL    HW285668   9.873   0.444   8.351
61279SOL     OW85669   2.960   0.346   1.861
61279SOL    HW185670   2.929   0.359   1.950
61279SOL    HW285671   3.052   0.371   1.863
61280SOL     OW85672   3.526  10.486  12.210
61280SOL    HW185673   3.515  10.519  12.121
61280SOL    HW285674   3.437  10.471  12.242
61281SOL     OW85675   9.310  12.806  12.219
61281SOL    HW185676   9.283  12.760  12.299
61281SOL    HW285677   9.243  12.873  12.205
61282SOL     OW85678   5.362   3.582   0.758
61282SOL    HW185679   5.455   3.558   0.769
61282SOL    HW285680   5.315   3.499   0.770
61283SOL     OW85681  13.009   6.569   0.435
61283SOL    HW185682  12.988   6.633   0.504
61283SOL    HW285683  13.088   6.525   0.467
61284SOL     OW85684   6.390   1.288  11.069
61284SOL    HW185685   6.367   1.207  11.115
61284SOL    HW285686   6.371   1.357  11.132
61285SOL     OW85687   6.421   7.857  14.644
61285SOL    HW185688   6.505   7.856  14.690
61285SOL    HW285689   6.433   7.922  14.574
61286SOL     OW85690   1.024   4.545   0.494
61286SOL    HW185691   1.034   4.451   0.505
61286SOL    HW285692   0.958   4.570   0.559
61287SOL     OW85693  11.338   9.850  11.378
61287SOL    HW185694  11.250   9.834  11.343
61287SOL    HW285695  11.361   9.770  11.424
61288SOL     OW85696   5.948   6.373   3.790
61288SOL    HW185697   6.041   6.397   3.781
61288SOL    HW285698   5.920   6.351   3.701
61289SOL     OW85699   1.508   1.099   7.898
61289SOL    HW185700   1.459   1.104   7.981
61289SOL    HW285701   1.446   1.131   7.832
61290SOL     OW85702  11.558   9.907   9.258
61290SOL    HW185703  11.614   9.864   9.194
61290SOL    HW285704  11.469   9.895   9.225
61291SOL     OW85705   4.528   3.838   3.914
61291SOL    HW185706   4.585   3.892   3.969
61291SOL    HW285707   4.521   3.756   3.962
61292SOL     OW85708   6.132  11.612  12.077
61292SOL    HW185709   6.053  11.595  12.130
61292SOL    HW285710   6.203  11.570  12.125
61293SOL     OW85711  12.166  12.956   6.408
61293SOL    HW185712  12.113  12.891   6.361
61293SOL    HW285713  12.161  13.034   6.353
61294SOL     OW85714  12.726  13.367   8.595
61294SOL    HW185715  12.815  13.334   8.588
61294SOL    HW285716  12.692  13.332   8.677
61295SOL     OW85717  10.400   5.239   4.283
61295SOL    HW185718  10.418   5.147   4.263
61295SOL    HW285719  10.352   5.271   4.207
61296SOL     OW85720  14.342   6.746   9.131
61296SOL    HW185721  14.423   6.696   9.117
61296SOL    HW285722  14.300   6.748   9.045
61297SOL     OW85723   5.382   2.082  11.235
61297SOL    HW185724   5.403   2.166  11.193
61297SOL    HW285725   5.289   2.090  11.257
61298SOL     OW85726   4.924   0.127  12.511
61298SOL    HW185727   4.996   0.190  12.503
61298SOL    HW285728   4.845   0.180  12.506
61299SOL     OW85729   1.442  12.913   8.369
61299SOL    HW185730   1.482  12.990   8.329
61299SOL    HW285731   1.377  12.949   8.430
61300SOL     OW85732   9.053   1.668   8.449
61300SOL    HW185733   9.129   1.673   8.507
61300SOL    HW285734   8.991   1.612   8.496
61301SOL     OW85735   8.441   0.060   7.674
61301SOL    HW185736   8.433   0.025   7.763
61301SOL    HW285737   8.477  14.867   7.623
61302SOL     OW85738   0.340   8.341   3.296
61302SOL    HW185739   0.385   8.299   3.369
61302SOL    HW285740   0.258   8.293   3.288
61303SOL     OW85741   8.766  10.593   0.350
61303SOL    HW185742   8.805  10.515   0.312
61303SOL    HW285743   8.786  10.587   0.443
61304SOL     OW85744   3.702   1.745  13.999
61304SOL    HW185745   3.751   1.741  14.081
61304SOL    HW285746   3.642   1.818  14.010
61305SOL     OW85747   8.165  12.977   2.944
61305SOL    HW185748   8.178  12.887   2.974
61305SOL    HW285749   8.087  13.007   2.989
61306SOL     OW85750   8.157   3.660  11.210
61306SOL    HW185751   8.224   3.660  11.142
61306SOL    HW285752   8.102   3.736  11.190
61307SOL     OW85753   2.525  14.508   7.357
61307SOL    HW185754   2.442  14.552   7.373
61307SOL    HW285755   2.518  14.425   7.404
61308SOL     OW85756   8.782   6.547   0.329
61308SOL    HW185757   8.780   6.613   0.399
61308SOL    HW285758   8.787   6.597   0.248
61309SOL     OW85759  13.807   4.173   5.829
61309SOL    HW185760  13.840   4.204   5.745
61309SOL    HW285761  13.788   4.081   5.815
61310SOL     OW85762   3.922   1.799   9.039
61310SOL    HW185763   3.872   1.745   8.978
61310SOL    HW285764   3.856   1.839   9.095
61311SOL     OW85765  10.551   5.190  13.802
61311SOL    HW185766  10.526   5.104  13.835
61311SOL    HW285767  10.507   5.251  13.861
61312SOL     OW85768   0.579   9.827   4.642
61312SOL    HW185769   0.527   9.776   4.704
61312SOL    HW285770   0.534   9.816   4.558
61313SOL     OW85771   9.570   0.291  11.291
61313SOL    HW185772   9.665   0.300  11.281
61313SOL    HW285773   9.551   0.333  11.375
61314SOL     OW85774  14.221   4.040   9.440
61314SOL    HW185775  14.305   4.077   9.468
61314SOL    HW285776  14.168   4.116   9.417
61315SOL     OW85777   1.215   3.328   9.502
61315SOL    HW185778   1.198   3.386   9.575
61315SOL    HW285779   1.179   3.373   9.426
61316SOL     OW85780  11.818  10.577  13.489
61316SOL    HW185781  11.877  10.642  13.451
61316SOL    HW285782  11.815  10.507  13.424
61317SOL     OW85783   7.524  13.405  10.756
61317SOL    HW185784   7.513  13.469  10.685
61317SOL    HW285785   7.568  13.331  10.714
61318SOL     OW85786   1.456   1.437  13.977
61318SOL    HW185787   1.424   1.402  13.894
61318SOL    HW285788   1.549   1.416  13.978
61319SOL     OW85789  13.673  12.400  13.852
61319SOL    HW185790  13.717  12.400  13.937
61319SOL    HW285791  13.657  12.492  13.833
61320SOL     OW85792   1.313   5.472   9.180
61320SOL    HW185793   1.320   5.558   9.139
61320SOL    HW285794   1.401   5.455   9.214
61321SOL     OW85795  11.309  11.647   5.443
61321SOL    HW185796  11.391  11.655   5.396
61321SOL    HW285797  11.328  11.680   5.531
61322SOL     OW85798  12.648   7.843  13.991
61322SOL    HW185799  12.719   7.808  14.045
61322SOL    HW285800  12.665   7.807  13.904
61323SOL     OW85801   8.243   3.976  14.560
61323SOL    HW185802   8.338   3.984  14.554
61323SOL    HW285803   8.221   3.902  14.504
61324SOL     OW85804   7.994  10.317   1.397
61324SOL    HW185805   7.990  10.408   1.370
61324SOL    HW285806   8.073  10.311   1.450
61325SOL     OW85807   9.920   4.794   9.989
61325SOL    HW185808   9.991   4.730   9.988
61325SOL    HW285809   9.895   4.801  10.082
61326SOL     OW85810  10.591   7.593  11.039
61326SOL    HW185811  10.545   7.673  11.013
61326SOL    HW285812  10.560   7.575  11.127
61327SOL     OW85813   2.783   5.362  11.558
61327SOL    HW185814   2.864   5.377  11.510
61327SOL    HW285815   2.735   5.445  11.550
61328SOL     OW85816   8.347  10.276   3.136
61328SOL    HW185817   8.272  10.220   3.112
61328SOL    HW285818   8.424  10.221   3.121
61329SOL     OW85819   0.572  11.257   6.837
61329SOL    HW185820   0.479  11.255   6.813
61329SOL    HW285821   0.617  11.225   6.760
61330SOL     OW85822   3.255   6.311  10.189
61330SOL    HW185823   3.311   6.234  10.177
61330SOL    HW285824   3.169   6.275  10.211
61331SOL     OW85825   8.337   9.720   1.127
61331SOL    HW185826   8.251   9.686   1.153
61331SOL    HW285827   8.317   9.788   1.062
61332SOL     OW85828  14.428   0.228   9.474
61332SOL    HW185829  14.415   0.134   9.457
61332SOL    HW285830  14.367   0.248   9.545
61333SOL     OW85831   8.181   6.756  11.995
61333SOL    HW185832   8.126   6.678  11.991
61333SOL    HW285833   8.271   6.722  12.000
61334SOL     OW85834   0.313  10.668  11.926
61334SOL    HW185835   0.255  10.595  11.904
61334SOL    HW285836   0.391  10.627  11.962
61335SOL     OW85837  12.025   3.482   2.781
61335SOL    HW185838  12.040   3.575   2.767
61335SOL    HW285839  11.987   3.451   2.699
61336SOL     OW85840   4.321   1.731   5.875
61336SOL    HW185841   4.414   1.708   5.874
61336SOL    HW285842   4.300   1.751   5.784
61337SOL     OW85843   9.099  10.126  12.340
61337SOL    HW185844   9.047  10.112  12.261
61337SOL    HW285845   9.063  10.064  12.404
61338SOL     OW85846   7.670   1.431   8.611
61338SOL    HW185847   7.627   1.501   8.561
61338SOL    HW285848   7.692   1.472   8.695
61339SOL     OW85849   8.136  10.923  10.979
61339SOL    HW185850   8.042  10.911  10.970
61339SOL    HW285851   8.156  10.892  11.067
61340SOL     OW85852   8.205   5.284   1.811
61340SOL    HW185853   8.252   5.341   1.872
61340SOL    HW285854   8.198   5.200   1.857
61341SOL     OW85855  13.832  14.643  11.723
61341SOL    HW185856  13.806  14.726  11.762
61341SOL    HW285857  13.753  14.611  11.680
61342SOL     OW85858   1.120   1.845   6.708
61342SOL    HW185859   1.185   1.857   6.777
61342SOL    HW285860   1.105   1.934   6.674
61343SOL     OW85861  11.080   7.488  11.263
61343SOL    HW185862  11.151   7.479  11.326
61343SOL    HW285863  11.104   7.431  11.191
61344SOL     OW85864  13.183  14.369   9.322
61344SOL    HW185865  13.232  14.450   9.305
61344SOL    HW285866  13.100  14.399   9.358
61345SOL     OW85867   7.816   1.653  11.260
61345SOL    HW185868   7.789   1.565  11.287
61345SOL    HW285869   7.740   1.708  11.279
61346SOL     OW85870   9.016   5.087   5.093
61346SOL    HW185871   8.980   5.132   5.169
61346SOL    HW285872   9.040   5.001   5.126
61347SOL     OW85873   8.297   8.943   1.351
61347SOL    HW185874   8.373   8.942   1.292
61347SOL    HW285875   8.291   9.034   1.381
61348SOL     OW85876  12.296   0.534  14.483
61348SOL    HW185877  12.357   0.584  14.428
61348SOL    HW285878  12.297   0.580  14.567
61349SOL     OW85879  14.355   5.778   0.321
61349SOL    HW185880  14.279   5.821   0.360
61349SOL    HW285881  14.354   5.689   0.357
61350SOL     OW85882  13.613  14.700   8.358
61350SOL    HW185883  13.571  14.749   8.287
61350SOL    HW285884  13.705  14.723   8.351
61351SOL     OW85885   2.779  14.165   4.493
61351SOL    HW185886   2.758  14.078   4.528
61351SOL    HW285887   2.720  14.174   4.418
61352SOL     OW85888   3.173   6.872   3.141
61352SOL    HW185889   3.118   6.940   3.100
61352SOL    HW285890   3.154   6.793   3.090
61353SOL     OW85891  13.287   5.573   4.423
61353SOL    HW185892  13.207   5.626   4.426
61353SOL    HW285893  13.290   5.528   4.507
61354SOL     OW85894   5.296   9.091  14.054
61354SOL    HW185895   5.283   9.162  14.117
61354SOL    HW285896   5.208   9.060  14.035
61355SOL     OW85897   6.194   1.389   3.517
61355SOL    HW185898   6.137   1.342   3.578
61355SOL    HW285899   6.271   1.333   3.509
61356SOL     OW85900  11.787   0.912  13.735
61356SOL    HW185901  11.850   0.840  13.739
61356SOL    HW285902  11.787   0.949  13.823
61357SOL     OW85903   0.328   9.910   0.180
61357SOL    HW185904   0.409   9.953   0.152
61357SOL    HW285905   0.319   9.933   0.272
61358SOL     OW85906   5.109   1.324   2.153
61358SOL    HW185907   5.137   1.322   2.245
61358SOL    HW285908   5.056   1.245   2.143
61359SOL     OW85909   2.053  12.330  12.921
61359SOL    HW185910   2.065  12.315  12.827
61359SOL    HW285911   1.961  12.307  12.937
61360SOL     OW85912   7.268   2.037  11.651
61360SOL    HW185913   7.237   2.127  11.641
61360SOL    HW285914   7.339   2.043  11.716
61361SOL     OW85915   1.303   2.200  13.411
61361SOL    HW185916   1.317   2.295  13.414
61361SOL    HW285917   1.323   2.170  13.499
61362SOL     OW85918   1.053  14.037  12.381
61362SOL    HW185919   0.975  13.984  12.368
61362SOL    HW285920   1.049  14.063  12.473
61363SOL     OW85921   9.266  14.528  13.275
61363SOL    HW185922   9.176  14.503  13.258
61363SOL    HW285923   9.274  14.528  13.370
61364SOL     OW85924  14.326  12.643   7.910
61364SOL    HW185925  14.248  12.588   7.915
61364SOL    HW285926  14.304  12.711   7.846
61365SOL     OW85927   5.735   7.362  12.955
61365SOL    HW185928   5.664   7.386  13.014
61365SOL    HW285929   5.767   7.446  12.921
61366SOL     OW85930   2.658   4.239   5.449
61366SOL    HW185931   2.664   4.156   5.496
61366SOL    HW285932   2.745   4.253   5.412
61367SOL     OW85933  14.100   6.326  14.293
61367SOL    HW185934  14.109   6.408  14.245
61367SOL    HW285935  14.157   6.265  14.248
61368SOL     OW85936  14.031  10.316   8.253
61368SOL    HW185937  13.944  10.317   8.294
61368SOL    HW285938  14.075  10.394   8.288
61369SOL     OW85939   7.687  11.723  12.321
61369SOL    HW185940   7.734  11.639  12.313
61369SOL    HW285941   7.700  11.749  12.413
61370SOL     OW85942  14.557  13.959   1.075
61370SOL    HW185943  14.549  13.889   1.139
61370SOL    HW285944  14.561  13.915   0.990
61371SOL     OW85945   7.552  11.899   2.460
61371SOL    HW185946   7.585  11.828   2.515
61371SOL    HW285947   7.512  11.855   2.385
61372SOL     OW85948   2.703  14.548   6.565
61372SOL    HW185949   2.619  14.513   6.536
61372SOL    HW285950   2.683  14.600   6.642
61373SOL     OW85951   5.000   7.473   5.861
61373SOL    HW185952   5.084   7.516   5.842
61373SOL    HW285953   5.008   7.387   5.819
61374SOL     OW85954  12.853   2.715   4.518
61374SOL    HW185955  12.759   2.731   4.519
61374SOL    HW285956  12.868   2.670   4.434
61375SOL     OW85957   5.808  10.812   3.750
61375SOL    HW185958   5.800  10.767   3.665
61375SOL    HW285959   5.901  10.806   3.770
61376SOL     OW85960   2.153   2.870  14.114
61376SOL    HW185961   2.242   2.899  14.132
61376SOL    HW285962   2.156   2.835  14.025
61377SOL     OW85963  14.415  10.499  12.739
61377SOL    HW185964  14.408  10.531  12.650
61377SOL    HW285965  14.509  10.497  12.756
61378SOL     OW85966  11.065   7.204  14.157
61378SOL    HW185967  11.090   7.218  14.248
61378SOL    HW285968  11.004   7.275  14.138
61379SOL     OW85969   0.918  14.107  10.793
61379SOL    HW185970   1.010  14.092  10.769
61379SOL    HW285971   0.922  14.153  10.877
61380SOL     OW85972   6.858   2.228   5.366
61380SOL    HW185973   6.873   2.313   5.326
61380SOL    HW285974   6.915   2.168   5.317
61381SOL     OW85975  11.033   9.206   2.306
61381SOL    HW185976  11.002   9.293   2.332
61381SOL    HW285977  11.107   9.189   2.364
61382SOL     OW85978   1.727   9.566  13.211
61382SOL    HW185979   1.722   9.645  13.266
61382SOL    HW285980   1.678   9.500  13.260
61383SOL     OW85981   9.587   0.331  13.205
61383SOL    HW185982   9.662   0.390  13.199
61383SOL    HW285983   9.515   0.386  13.234
61384SOL     OW85984   4.037  13.799  12.224
61384SOL    HW185985   3.944  13.780  12.207
61384SOL    HW285986   4.050  13.886  12.188
61385SOL     OW85987  14.849   9.161   6.870
61385SOL    HW185988   0.064   9.147   6.876
61385SOL    HW285989  14.827   9.212   6.949
61386SOL     OW85990   3.928   9.732   7.263
61386SOL    HW185991   3.965   9.746   7.176
61386SOL    HW285992   3.848   9.785   7.263
61387SOL     OW85993   7.019  12.147   0.351
61387SOL    HW185994   6.987  12.060   0.373
61387SOL    HW285995   7.115  12.140   0.356
61388SOL     OW85996   3.605  14.025   8.213
61388SOL    HW185997   3.564  13.939   8.223
61388SOL    HW285998   3.698  14.010   8.232
61389SOL     OW85999   8.539  13.539  12.779
61389SOL    HW186000   8.614  13.508  12.830
61389SOL    HW286001   8.491  13.596  12.840
61390SOL     OW86002  10.283   8.135  12.923
61390SOL    HW186003  10.268   8.227  12.901
61390SOL    HW286004  10.195   8.099  12.935
61391SOL     OW86005   5.551   1.725  11.883
61391SOL    HW186006   5.546   1.639  11.842
61391SOL    HW286007   5.640   1.756  11.864
61392SOL     OW86008   9.273   4.039   2.002
61392SOL    HW186009   9.363   4.069   1.996
61392SOL    HW286010   9.279   3.949   2.032
61393SOL     OW86011   6.124   6.923  13.979
61393SOL    HW186012   6.104   6.875  13.899
61393SOL    HW286013   6.047   6.978  13.993
61394SOL     OW86014   0.702  11.828   6.448
61394SOL    HW186015   0.640  11.758   6.465
61394SOL    HW286016   0.656  11.886   6.386
61395SOL     OW86017  10.006  11.100   2.313
61395SOL    HW186018   9.964  11.053   2.384
61395SOL    HW286019   9.957  11.074   2.235
61396SOL     OW86020   2.782  13.599   2.546
61396SOL    HW186021   2.687  13.602   2.532
61396SOL    HW286022   2.798  13.509   2.576
61397SOL     OW86023   5.582   0.260  14.132
61397SOL    HW186024   5.506   0.202  14.136
61397SOL    HW286025   5.643   0.224  14.197
61398SOL     OW86026   1.430   6.889  13.310
61398SOL    HW186027   1.356   6.924  13.359
61398SOL    HW286028   1.394   6.817  13.258
61399SOL     OW86029  10.019   0.520   3.729
61399SOL    HW186030   9.988   0.480   3.648
61399SOL    HW286031  10.061   0.448   3.777
61400SOL     OW86032  14.305  12.156  12.253
61400SOL    HW186033  14.312  12.070  12.213
61400SOL    HW286034  14.324  12.141  12.346
61401SOL     OW86035   5.284   9.268   7.510
61401SOL    HW186036   5.304   9.279   7.417
61401SOL    HW286037   5.275   9.357   7.544
61402SOL     OW86038   8.829   8.575  13.943
61402SOL    HW186039   8.881   8.605  13.868
61402SOL    HW286040   8.890   8.578  14.017
61403SOL     OW86041   7.323   0.204   1.065
61403SOL    HW186042   7.251   0.238   1.012
61403SOL    HW286043   7.291   0.119   1.097
61404SOL     OW86044   9.350   8.943  14.761
61404SOL    HW186045   9.365   8.861  14.808
61404SOL    HW286046   9.428   8.996  14.779
61405SOL     OW86047   1.650   1.956   0.516
61405SOL    HW186048   1.555   1.955   0.506
61405SOL    HW286049   1.684   1.923   0.433
61406SOL     OW86050   9.980  11.447   7.976
61406SOL    HW186051   9.944  11.394   8.048
61406SOL    HW286052  10.074  11.429   7.979
61407SOL     OW86053   1.484  14.039   4.453
61407SOL    HW186054   1.560  14.074   4.500
61407SOL    HW286055   1.413  14.042   4.517
61408SOL     OW86056   9.872   1.194   8.371
61408SOL    HW186057   9.853   1.237   8.288
61408SOL    HW286058   9.789   1.195   8.418
61409SOL     OW86059   4.956   0.490   8.972
61409SOL    HW186060   4.976   0.432   8.899
61409SOL    HW286061   5.006   0.455   9.046
61410SOL     OW86062  10.052   0.552  11.015
61410SOL    HW186063  10.051   0.525  10.923
61410SOL    HW286064  10.145   0.564  11.036
61411SOL     OW86065   2.571   2.244   4.537
61411SOL    HW186066   2.637   2.302   4.576
61411SOL    HW286067   2.487   2.285   4.559
61412SOL     OW86068   4.996   3.120  11.723
61412SOL    HW186069   5.084   3.145  11.695
61412SOL    HW286070   4.938   3.158  11.657
61413SOL     OW86071   1.416   7.735  14.046
61413SOL    HW186072   1.425   7.648  14.084
61413SOL    HW286073   1.479   7.789  14.094
61414SOL     OW86074   5.737   2.628  14.102
61414SOL    HW186075   5.832   2.627  14.104
61414SOL    HW286076   5.715   2.633  14.009
61415SOL     OW86077   9.360   1.979   4.407
61415SOL    HW186078   9.321   2.060   4.376
61415SOL    HW286079   9.439   2.006   4.454
61416SOL     OW86080  13.511   9.814  14.275
61416SOL    HW186081  13.446   9.783  14.338
61416SOL    HW286082  13.505   9.909  14.278
61417SOL     OW86083   7.327  11.112  13.005
61417SOL    HW186084   7.259  11.178  12.993
61417SOL    HW286085   7.407  11.153  12.971
61418SOL     OW86086  12.579  10.304   5.172
61418SOL    HW186087  12.541  10.294   5.259
61418SOL    HW286088  12.662  10.348   5.187
61419SOL     OW86089   5.800   9.057   8.795
61419SOL    HW186090   5.860   8.984   8.810
61419SOL    HW286091   5.855   9.135   8.804
61420SOL     OW86092   6.690   1.218   6.862
61420SOL    HW186093   6.710   1.139   6.812
61420SOL    HW286094   6.710   1.194   6.953
61421SOL     OW86095   7.690   4.441  13.959
61421SOL    HW186096   7.619   4.389  13.920
61421SOL    HW286097   7.754   4.451  13.889
61422SOL     OW86098   3.890   0.902   6.437
61422SOL    HW186099   3.926   0.832   6.492
61422SOL    HW286100   3.948   0.977   6.452
61423SOL     OW86101   9.486  13.295   8.512
61423SOL    HW186102   9.439  13.217   8.484
61423SOL    HW286103   9.425  13.367   8.498
61424SOL     OW86104  13.430  12.229   4.341
61424SOL    HW186105  13.523  12.211   4.328
61424SOL    HW286106  13.406  12.286   4.268
61425SOL     OW86107   3.224  13.212  13.959
61425SOL    HW186108   3.129  13.217  13.958
61425SOL    HW286109   3.250  13.214  13.867
61426SOL     OW86110   3.278   4.625   1.862
61426SOL    HW186111   3.275   4.643   1.956
61426SOL    HW286112   3.367   4.647   1.835
61427SOL     OW86113   2.299   4.534   9.074
61427SOL    HW186114   2.288   4.529   8.979
61427SOL    HW286115   2.389   4.508   9.089
61428SOL     OW86116  12.209   6.591   5.362
61428SOL    HW186117  12.202   6.614   5.270
61428SOL    HW286118  12.131   6.538   5.379
61429SOL     OW86119   8.934  14.059   9.700
61429SOL    HW186120   8.859  14.101   9.658
61429SOL    HW286121   8.913  14.059   9.793
61430SOL     OW86122   8.072   6.781   6.941
61430SOL    HW186123   8.008   6.853   6.943
61430SOL    HW286124   8.024   6.707   6.906
61431SOL     OW86125   0.712   8.628  11.694
61431SOL    HW186126   0.761   8.635  11.776
61431SOL    HW286127   0.621   8.640  11.719
61432SOL     OW86128   6.247   0.589   6.038
61432SOL    HW186129   6.183   0.549   6.097
61432SOL    HW286130   6.201   0.665   6.001
61433SOL     OW86131   6.911  11.624   0.032
61433SOL    HW186132   6.968  11.576   0.091
61433SOL    HW286133   6.823  11.599   0.058
61434SOL     OW86134   4.802   5.331  14.411
61434SOL    HW186135   4.892   5.298  14.406
61434SOL    HW286136   4.760   5.297  14.333
61435SOL     OW86137   0.106   9.618   7.656
61435SOL    HW186138   0.174   9.684   7.666
61435SOL    HW286139   0.049   9.654   7.587
61436SOL     OW86140   9.001  13.770   0.902
61436SOL    HW186141   8.949  13.737   0.975
61436SOL    HW286142   9.062  13.700   0.881
61437SOL     OW86143  14.559  14.270   7.627
61437SOL    HW186144  14.616  14.323   7.571
61437SOL    HW286145  14.480  14.257   7.575
61438SOL     OW86146   3.822  14.214  10.509
61438SOL    HW186147   3.913  14.190  10.528
61438SOL    HW286148   3.772  14.136  10.531
61439SOL     OW86149   2.841   8.620   0.356
61439SOL    HW186150   2.854   8.714   0.370
61439SOL    HW286151   2.893   8.578   0.424
61440SOL     OW86152  13.906   3.904   0.034
61440SOL    HW186153  13.852   3.928  14.838
61440SOL    HW286154  13.890   3.811   0.047
61441SOL     OW86155   9.796   6.261   8.632
61441SOL    HW186156   9.737   6.270   8.557
61441SOL    HW286157   9.834   6.348   8.644
61442SOL     OW86158   7.122  12.164  13.721
61442SOL    HW186159   7.050  12.155  13.783
61442SOL    HW286160   7.095  12.238  13.665
61443SOL     OW86161   2.414   8.605   0.029
61443SOL    HW186162   2.389   8.545   0.099
61443SOL    HW286163   2.423   8.690   0.071
61444SOL     OW86164  13.449   7.240  14.633
61444SOL    HW186165  13.466   7.226  14.540
61444SOL    HW286166  13.385   7.311  14.635
61445SOL     OW86167   9.527   7.071  12.148
61445SOL    HW186168   9.596   7.016  12.185
61445SOL    HW286169   9.567   7.158  12.140
61446SOL     OW86170  10.075  10.609   9.321
61446SOL    HW186171  10.015  10.613   9.246
61446SOL    HW286172  10.019  10.584   9.395
61447SOL     OW86173  10.116   5.476   9.131
61447SOL    HW186174  10.165   5.549   9.094
61447SOL    HW286175  10.072   5.514   9.208
61448SOL     OW86176   1.023  10.792   3.342
61448SOL    HW186177   1.056  10.881   3.328
61448SOL    HW286178   1.007  10.786   3.436
61449SOL     OW86179   0.979   8.042   2.960
61449SOL    HW186180   1.001   7.954   2.928
61449SOL    HW286181   1.045   8.060   3.027
61450SOL     OW86182  13.779  10.046   8.142
61450SOL    HW186183  13.707  10.107   8.125
61450SOL    HW286184  13.754  10.001   8.223
61451SOL     OW86185  14.294  12.906  12.662
61451SOL    HW186186  14.346  12.986  12.659
61451SOL    HW286187  14.217  12.925  12.608
61452SOL     OW86188   7.393   2.454   0.786
61452SOL    HW186189   7.464   2.517   0.781
61452SOL    HW286190   7.330   2.483   0.719
61453SOL     OW86191   2.918  14.458   4.008
61453SOL    HW186192   2.866  14.514   4.066
61453SOL    HW286193   2.906  14.497   3.921
61454SOL     OW86194   7.402  14.688  11.009
61454SOL    HW186195   7.324  14.726  10.969
61454SOL    HW286196   7.436  14.627  10.942
61455SOL     OW86197  11.355   8.631  13.624
61455SOL    HW186198  11.269   8.603  13.594
61455SOL    HW286199  11.377   8.570  13.695
61456SOL     OW86200   4.117   2.614  12.700
61456SOL    HW186201   4.195   2.581  12.655
61456SOL    HW286202   4.119   2.569  12.785
61457SOL     OW86203   5.519   5.989   1.949
61457SOL    HW186204   5.534   6.083   1.931
61457SOL    HW286205   5.606   5.956   1.970
61458SOL     OW86206   5.982   1.462  12.857
61458SOL    HW186207   5.960   1.552  12.883
61458SOL    HW286208   6.017   1.422  12.937
61459SOL     OW86209  14.270   5.890  10.344
61459SOL    HW186210  14.208   5.906  10.274
61459SOL    HW286211  14.271   5.794  10.353
61460SOL     OW86212   2.780   9.583  13.537
61460SOL    HW186213   2.865   9.570  13.497
61460SOL    HW286214   2.778   9.676  13.560
61461SOL     OW86215  13.583   5.191   4.344
61461SOL    HW186216  13.606   5.105   4.309
61461SOL    HW286217  13.645   5.251   4.301
61462SOL     OW86218  11.050   0.452   2.120
61462SOL    HW186219  11.085   0.403   2.195
61462SOL    HW286220  10.976   0.400   2.090
61463SOL     OW86221  10.284   2.403   1.849
61463SOL    HW186222  10.372   2.367   1.859
61463SOL    HW286223  10.278   2.471   1.917
61464SOL     OW86224  12.293   7.829   3.745
61464SOL    HW186225  12.260   7.744   3.716
61464SOL    HW286226  12.315   7.816   3.837
61465SOL     OW86227   9.396   3.776   8.252
61465SOL    HW186228   9.353   3.700   8.291
61465SOL    HW286229   9.461   3.803   8.317
61466SOL     OW86230   6.923  10.521   2.185
61466SOL    HW186231   6.980  10.598   2.178
61466SOL    HW286232   6.982  10.448   2.200
61467SOL     OW86233   4.070  14.385   8.915
61467SOL    HW186234   4.090  14.330   8.991
61467SOL    HW286235   4.149  14.438   8.903
61468SOL     OW86236  13.938  12.860  12.928
61468SOL    HW186237  14.032  12.877  12.924
61468SOL    HW286238  13.906  12.918  12.996
61469SOL     OW86239  13.219   6.651   4.169
61469SOL    HW186240  13.301   6.669   4.215
61469SOL    HW286241  13.244   6.642   4.077
61470SOL     OW86242   9.330  11.314   2.465
61470SOL    HW186243   9.259  11.268   2.510
61470SOL    HW286244   9.290  11.348   2.385
61471SOL     OW86245   8.846  14.227   0.988
61471SOL    HW186246   8.882  14.304   1.033
61471SOL    HW286247   8.752  14.243   0.984
61472SOL     OW86248   2.767   1.163  10.882
61472SOL    HW186249   2.747   1.255  10.865
61472SOL    HW286250   2.861   1.161  10.898
61473SOL     OW86251   1.640  14.310   6.660
61473SOL    HW186252   1.722  14.318   6.709
61473SOL    HW286253   1.619  14.400   6.634
61474SOL     OW86254   9.269   1.095  11.273
61474SOL    HW186255   9.299   1.163  11.334
61474SOL    HW286256   9.173   1.100  11.278
61475SOL     OW86257   4.051   5.246   5.655
61475SOL    HW186258   4.005   5.198   5.724
61475SOL    HW286259   3.985   5.259   5.586
61476SOL     OW86260   2.413   6.761   0.874
61476SOL    HW186261   2.427   6.690   0.811
61476SOL    HW286262   2.405   6.717   0.958
61477SOL     OW86263   9.826   7.140  13.439
61477SOL    HW186264   9.829   7.051  13.404
61477SOL    HW286265   9.883   7.137  13.516
61478SOL     OW86266   3.874   0.778   1.613
61478SOL    HW186267   3.839   0.765   1.525
61478SOL    HW286268   3.799   0.803   1.666
61479SOL     OW86269   1.654   7.216  13.877
61479SOL    HW186270   1.664   7.132  13.922
61479SOL    HW286271   1.661   7.194  13.784
61480SOL     OW86272  13.119  12.166  10.159
61480SOL    HW186273  13.157  12.222  10.228
61480SOL    HW286274  13.070  12.099  10.207
61481SOL     OW86275  13.734   7.163  14.092
61481SOL    HW186276  13.771   7.093  14.038
61481SOL    HW286277  13.642   7.138  14.103
61482SOL     OW86278   3.969   9.474  10.786
61482SOL    HW186279   3.917   9.552  10.764
61482SOL    HW286280   3.927   9.439  10.865
61483SOL     OW86281  12.002   4.433   7.167
61483SOL    HW186282  11.970   4.415   7.078
61483SOL    HW286283  12.091   4.464   7.154
61484SOL     OW86284   9.572  12.558  10.305
61484SOL    HW186285   9.593  12.465  10.305
61484SOL    HW286286   9.607  12.591  10.223
61485SOL     OW86287   3.311  11.589   1.890
61485SOL    HW186288   3.261  11.578   1.971
61485SOL    HW286289   3.262  11.655   1.841
61486SOL     OW86290  11.206   6.130   1.841
61486SOL    HW186291  11.136   6.086   1.890
61486SOL    HW286292  11.176   6.220   1.831
61487SOL     OW86293  12.152   7.678   0.685
61487SOL    HW186294  12.183   7.744   0.623
61487SOL    HW286295  12.220   7.674   0.752
61488SOL     OW86296  14.190   1.138  13.524
61488SOL    HW186297  14.124   1.207  13.517
61488SOL    HW286298  14.179   1.105  13.614
61489SOL     OW86299   0.119  14.547   8.468
61489SOL    HW186300   0.205  14.576   8.440
61489SOL    HW286301   0.068  14.627   8.480
61490SOL     OW86302   0.161   5.092   1.195
61490SOL    HW186303   0.161   5.079   1.290
61490SOL    HW286304   0.220   5.166   1.181
61491SOL     OW86305  11.094   5.169   6.550
61491SOL    HW186306  11.104   5.116   6.470
61491SOL    HW286307  11.041   5.244   6.522
61492SOL     OW86308  13.691   3.859   2.000
61492SOL    HW186309  13.768   3.849   2.057
61492SOL    HW286310  13.726   3.848   1.911
61493SOL     OW86311   8.350   0.911   7.734
61493SOL    HW186312   8.363   0.826   7.774
61493SOL    HW286313   8.430   0.961   7.756
61494SOL     OW86314  14.275  13.777   8.169
61494SOL    HW186315  14.359  13.819   8.189
61494SOL    HW286316  14.264  13.788   8.075
61495SOL     OW86317   6.919  12.653  11.768
61495SOL    HW186318   6.835  12.613  11.744
61495SOL    HW286319   6.903  12.692  11.854
61496SOL     OW86320  10.499  11.130   7.265
61496SOL    HW186321  10.493  11.068   7.191
61496SOL    HW286322  10.459  11.210   7.232
61497SOL     OW86323   1.709  12.691   2.829
61497SOL    HW186324   1.703  12.738   2.746
61497SOL    HW286325   1.631  12.717   2.878
61498SOL     OW86326   1.007   9.520   4.921
61498SOL    HW186327   0.925   9.534   4.874
61498SOL    HW286328   1.075   9.528   4.854
61499SOL     OW86329  11.916   5.451   0.209
61499SOL    HW186330  11.844   5.508   0.236
61499SOL    HW286331  11.963   5.431   0.290
61500SOL     OW86332   3.002   1.601   5.417
61500SOL    HW186333   3.049   1.571   5.339
61500SOL    HW286334   2.934   1.660   5.383
61501SOL     OW86335  12.697   3.445   0.191
61501SOL    HW186336  12.727   3.536   0.196
61501SOL    HW286337  12.605   3.449   0.217
61502SOL     OW86338   1.270   0.973   2.686
61502SOL    HW186339   1.201   1.019   2.733
61502SOL    HW286340   1.223   0.915   2.626
61503SOL     OW86341   2.958  11.655  14.434
61503SOL    HW186342   2.995  11.589  14.494
61503SOL    HW286343   2.864  11.640  14.437
61504SOL     OW86344   9.357   0.879   9.090
61504SOL    HW186345   9.379   0.960   9.044
61504SOL    HW286346   9.435   0.857   9.140
61505SOL     OW86347   0.394   2.845   9.880
61505SOL    HW186348   0.318   2.845   9.938
61505SOL    HW286349   0.469   2.840   9.939
61506SOL     OW86350  11.839   4.929  11.256
61506SOL    HW186351  11.835   4.892  11.168
61506SOL    HW286352  11.750   4.958  11.274
61507SOL     OW86353   0.685   2.351  14.812
61507SOL    HW186354   0.592   2.341  14.831
61507SOL    HW286355   0.724   2.379   0.016
61508SOL     OW86356   1.962   3.427  12.839
61508SOL    HW186357   1.871   3.440  12.813
61508SOL    HW286358   1.988   3.346  12.796
61509SOL     OW86359  11.268   8.446   5.069
61509SOL    HW186360  11.318   8.436   5.150
61509SOL    HW286361  11.334   8.445   5.000
61510SOL     OW86362   8.668   9.888   1.003
61510SOL    HW186363   8.755   9.888   0.963
61510SOL    HW286364   8.649   9.981   1.017
61511SOL     OW86365   7.248  14.722   1.176
61511SOL    HW186366   7.286  14.635   1.161
61511SOL    HW286367   7.214  14.718   1.266
61512SOL     OW86368   4.777   0.448  13.265
61512SOL    HW186369   4.758   0.537  13.296
61512SOL    HW286370   4.864   0.454  13.226
61513SOL     OW86371   3.120   2.079   0.124
61513SOL    HW186372   3.093   2.068   0.033
61513SOL    HW286373   3.215   2.074   0.122
61514SOL     OW86374   9.313   9.891  10.021
61514SOL    HW186375   9.306   9.985  10.005
61514SOL    HW286376   9.223   9.864  10.040
61515SOL     OW86377   7.308   0.029   6.920
61515SOL    HW186378   7.248   0.029   6.995
61515SOL    HW286379   7.388   0.069   6.953
61516SOL     OW86380   3.376  11.886   8.693
61516SOL    HW186381   3.461  11.862   8.656
61516SOL    HW286382   3.339  11.802   8.721
61517SOL     OW86383   2.791   8.500   5.071
61517SOL    HW186384   2.715   8.553   5.046
61517SOL    HW286385   2.757   8.411   5.079
61518SOL     OW86386  11.284   0.689   3.393
61518SOL    HW186387  11.334   0.637   3.456
61518SOL    HW286388  11.341   0.763   3.372
61519SOL     OW86389  10.864   3.086  10.911
61519SOL    HW186390  10.926   3.071  10.840
61519SOL    HW286391  10.798   3.018  10.900
61520SOL     OW86392  12.809   8.520   7.521
61520SOL    HW186393  12.819   8.470   7.440
61520SOL    HW286394  12.761   8.462   7.579
61521SOL     OW86395  12.781   9.705   5.534
61521SOL    HW186396  12.873   9.728   5.519
61521SOL    HW286397  12.763   9.736   5.623
61522SOL     OW86398  13.196   0.417  11.818
61522SOL    HW186399  13.178   0.507  11.843
61522SOL    HW286400  13.117   0.388  11.771
61523SOL     OW86401  14.353   7.795   8.318
61523SOL    HW186402  14.318   7.880   8.342
61523SOL    HW286403  14.303   7.732   8.371
61524SOL     OW86404  13.898   7.413  12.261
61524SOL    HW186405  13.852   7.329  12.255
61524SOL    HW286406  13.908   7.442  12.171
61525SOL     OW86407   8.270   6.465   1.962
61525SOL    HW186408   8.234   6.380   1.989
61525SOL    HW286409   8.200   6.505   1.911
61526SOL     OW86410   1.259  13.872   7.556
61526SOL    HW186411   1.297  13.921   7.629
61526SOL    HW286412   1.168  13.859   7.582
61527SOL     OW86413  10.257   6.410   8.170
61527SOL    HW186414  10.333   6.393   8.225
61527SOL    HW286415  10.293   6.438   8.086
61528SOL     OW86416  12.969   2.994   6.855
61528SOL    HW186417  12.973   3.053   6.780
61528SOL    HW286418  12.934   3.048   6.926
61529SOL     OW86419   3.649   0.455  11.721
61529SOL    HW186420   3.714   0.522  11.701
61529SOL    HW286421   3.567   0.489  11.685
61530SOL     OW86422  14.866   3.194  13.428
61530SOL    HW186423   0.056   3.255  13.406
61530SOL    HW286424  14.795   3.248  13.461
61531SOL     OW86425   3.991  11.455   8.539
61531SOL    HW186426   4.064  11.509   8.506
61531SOL    HW286427   4.031  11.398   8.604
61532SOL     OW86428  12.834   7.059   3.889
61532SOL    HW186429  12.872   6.986   3.839
61532SOL    HW286430  12.874   7.052   3.975
61533SOL     OW86431   0.722   2.066   4.489
61533SOL    HW186432   0.692   2.148   4.449
61533SOL    HW286433   0.715   2.082   4.583
61534SOL     OW86434   5.168   8.757   2.948
61534SOL    HW186435   5.168   8.803   3.032
61534SOL    HW286436   5.096   8.797   2.898
61535SOL     OW86437   6.021  14.789   0.792
61535SOL    HW186438   6.112  14.819   0.794
61535SOL    HW286439   5.990  14.813   0.705
61536SOL     OW86440   2.758  10.739   7.665
61536SOL    HW186441   2.809  10.819   7.683
61536SOL    HW286442   2.760  10.691   7.748
61537SOL     OW86443  11.790  10.995   5.332
61537SOL    HW186444  11.790  10.935   5.257
61537SOL    HW286445  11.745  11.073   5.299
61538SOL     OW86446  11.812   9.607   4.241
61538SOL    HW186447  11.751   9.562   4.299
61538SOL    HW286448  11.798   9.566   4.156
61539SOL     OW86449  11.918  10.322   0.325
61539SOL    HW186450  11.870  10.243   0.352
61539SOL    HW286451  11.860  10.394   0.349
61540SOL     OW86452  12.188   1.745  10.764
61540SOL    HW186453  12.186   1.765  10.858
61540SOL    HW286454  12.127   1.807  10.725
61541SOL     OW86455   3.653  13.451   9.510
61541SOL    HW186456   3.639  13.456   9.416
61541SOL    HW286457   3.569  13.425   9.546
61542SOL     OW86458   7.989   6.882   3.982
61542SOL    HW186459   7.939   6.814   3.938
61542SOL    HW286460   7.950   6.888   4.069
61543SOL     OW86461  14.783   4.501   1.758
61543SOL    HW186462  14.867   4.502   1.712
61543SOL    HW286463  14.735   4.428   1.719
61544SOL     OW86464   6.278  14.466   9.226
61544SOL    HW186465   6.331  14.459   9.146
61544SOL    HW286466   6.212  14.398   9.217
61545SOL     OW86467   1.580  11.527   6.039
61545SOL    HW186468   1.571  11.609   5.990
61545SOL    HW286469   1.521  11.466   5.994
61546SOL     OW86470   4.306   1.292   6.143
61546SOL    HW186471   4.216   1.324   6.139
61546SOL    HW286472   4.346   1.323   6.061
61547SOL     OW86473   6.553   5.940  14.759
61547SOL    HW186474   6.593   6.002  14.819
61547SOL    HW286475   6.576   5.854  14.794
61548SOL     OW86476   1.513  12.887   9.197
61548SOL    HW186477   1.506  12.875   9.103
61548SOL    HW286478   1.590  12.837   9.223
61549SOL     OW86479  13.281   7.716  10.944
61549SOL    HW186480  13.208   7.663  10.912
61549SOL    HW286481  13.329   7.658  11.003
61550SOL     OW86482   0.976  11.996   4.445
61550SOL    HW186483   0.917  12.067   4.470
61550SOL    HW286484   1.057  12.041   4.420
61551SOL     OW86485  12.769   9.157   0.306
61551SOL    HW186486  12.753   9.249   0.326
61551SOL    HW286487  12.690   9.127   0.262
61552SOL     OW86488   9.196   4.845   5.197
61552SOL    HW186489   9.147   4.763   5.204
61552SOL    HW286490   9.184   4.887   5.282
61553SOL     OW86491   8.827  14.446  12.876
61553SOL    HW186492   8.856  14.431  12.786
61553SOL    HW286493   8.798  14.360  12.907
61554SOL     OW86494   1.396   7.293   1.795
61554SOL    HW186495   1.317   7.246   1.821
61554SOL    HW286496   1.363   7.376   1.760
61555SOL     OW86497   4.527   0.301   0.531
61555SOL    HW186498   4.593   0.368   0.514
61555SOL    HW286499   4.467   0.342   0.593
61556SOL     OW86500   0.699  13.244  11.430
61556SOL    HW186501   0.746  13.289  11.501
61556SOL    HW286502   0.615  13.219  11.469
61557SOL     OW86503  12.345   4.246  10.428
61557SOL    HW186504  12.435   4.222  10.452
61557SOL    HW286505  12.355   4.318  10.366
61558SOL     OW86506   6.147  11.898  12.054
61558SOL    HW186507   6.145  11.803  12.066
61558SOL    HW286508   6.184  11.911  11.967
61559SOL     OW86509   5.936  13.692  14.108
61559SOL    HW186510   5.848  13.657  14.091
61559SOL    HW286511   5.921  13.773  14.156
61560SOL     OW86512  14.318  12.220   7.345
61560SOL    HW186513  14.343  12.163   7.418
61560SOL    HW286514  14.397  12.224   7.291
61561SOL     OW86515   3.050   1.663  10.476
61561SOL    HW186516   2.982   1.617  10.524
61561SOL    HW286517   3.122   1.671  10.538
61562SOL     OW86518   1.330   7.902   6.207
61562SOL    HW186519   1.278   7.982   6.210
61562SOL    HW286520   1.363   7.898   6.117
61563SOL     OW86521   6.005   1.674   9.838
61563SOL    HW186522   5.928   1.731   9.844
61563SOL    HW286523   5.998   1.634   9.751
61564SOL     OW86524   0.933   4.681   6.434
61564SOL    HW186525   0.880   4.638   6.367
61564SOL    HW286526   0.946   4.615   6.501
61565SOL     OW86527  12.540   4.799   8.505
61565SOL    HW186528  12.463   4.744   8.492
61565SOL    HW286529  12.614   4.739   8.503
61566SOL     OW86530   7.642   2.910   7.625
61566SOL    HW186531   7.691   2.965   7.564
61566SOL    HW286532   7.620   2.969   7.697
61567SOL     OW86533   1.860   3.996  11.330
61567SOL    HW186534   1.950   3.975  11.306
61567SOL    HW286535   1.818   4.021  11.247
61568SOL     OW86536  10.476   6.270   9.944
61568SOL    HW186537  10.428   6.190   9.924
61568SOL    HW286538  10.503   6.303   9.858
61569SOL     OW86539   5.261   8.776  10.012
61569SOL    HW186540   5.291   8.701  10.064
61569SOL    HW286541   5.171   8.753   9.987
61570SOL     OW86542  12.648  12.939   6.112
61570SOL    HW186543  12.734  12.964   6.146
61570SOL    HW286544  12.663  12.855   6.069
61571SOL     OW86545   9.379   5.591   7.883
61571SOL    HW186546   9.390   5.499   7.858
61571SOL    HW286547   9.346   5.588   7.972
61572SOL     OW86548  13.657   1.883  13.824
61572SOL    HW186549  13.705   1.856  13.902
61572SOL    HW286550  13.582   1.931  13.857
61573SOL     OW86551   4.785   0.602   6.941
61573SOL    HW186552   4.693   0.626   6.950
61573SOL    HW286553   4.828   0.681   6.908
61574SOL     OW86554   9.823   4.540   8.425
61574SOL    HW186555   9.849   4.467   8.369
61574SOL    HW286556   9.733   4.521   8.451
61575SOL     OW86557   4.203   6.028  13.996
61575SOL    HW186558   4.286   6.028  14.043
61575SOL    HW286559   4.223   5.989  13.911
61576SOL     OW86560  14.726   3.633  10.890
61576SOL    HW186561  14.797   3.657  10.830
61576SOL    HW286562  14.646   3.648  10.839
61577SOL     OW86563   2.303  13.705   6.785
61577SOL    HW186564   2.316  13.625   6.735
61577SOL    HW286565   2.208  13.717   6.785
61578SOL     OW86566  12.045  12.504   0.534
61578SOL    HW186567  12.024  12.420   0.574
61578SOL    HW286568  12.038  12.488   0.439
61579SOL     OW86569   1.553   9.927   9.568
61579SOL    HW186570   1.553   9.991   9.496
61579SOL    HW286571   1.460   9.914   9.587
61580SOL     OW86572   1.562   5.596   3.081
61580SOL    HW186573   1.542   5.685   3.051
61580SOL    HW286574   1.645   5.606   3.129
61581SOL     OW86575  12.033   6.361   4.321
61581SOL    HW186576  12.030   6.268   4.298
61581SOL    HW286577  12.100   6.398   4.264
61582SOL     OW86578  14.096  12.528   1.403
61582SOL    HW186579  14.108  12.507   1.310
61582SOL    HW286580  14.049  12.453   1.439
61583SOL     OW86581   0.482  12.896   1.783
61583SOL    HW186582   0.546  12.925   1.848
61583SOL    HW286583   0.465  12.805   1.806
61584SOL     OW86584  11.420  10.992  10.899
61584SOL    HW186585  11.418  10.920  10.836
61584SOL    HW286586  11.509  11.028  10.891
61585SOL     OW86587   2.797  10.584   6.329
61585SOL    HW186588   2.736  10.646   6.368
61585SOL    HW286589   2.880  10.631   6.327
61586SOL     OW86590   8.062  10.066  12.140
61586SOL    HW186591   8.047   9.978  12.174
61586SOL    HW286592   8.085  10.118  12.217
61587SOL     OW86593   1.408   2.082   4.910
61587SOL    HW186594   1.329   2.130   4.934
61587SOL    HW286595   1.407   2.004   4.965
61588SOL     OW86596  11.118   2.467  12.890
61588SOL    HW186597  11.197   2.422  12.919
61588SOL    HW286598  11.146   2.557  12.871
61589SOL     OW86599  12.256  13.700  10.359
61589SOL    HW186600  12.336  13.663  10.321
61589SOL    HW286601  12.285  13.742  10.440
61590SOL     OW86602   9.077  13.882   5.940
61590SOL    HW186603   9.020  13.810   5.914
61590SOL    HW286604   9.032  13.923   6.014
61591SOL     OW86605  11.663  10.311   6.965
61591SOL    HW186606  11.755  10.328   6.946
61591SOL    HW286607  11.626  10.279   6.883
61592SOL     OW86608   4.937  14.748  12.421
61592SOL    HW186609   5.024  14.772  12.452
61592SOL    HW286610   4.882  14.823  12.445
61593SOL     OW86611   3.470   9.416   1.557
61593SOL    HW186612   3.561   9.389   1.543
61593SOL    HW286613   3.419   9.358   1.500
61594SOL     OW86614  13.216   2.277  12.278
61594SOL    HW186615  13.307   2.292  12.254
61594SOL    HW286616  13.186   2.208  12.219
61595SOL     OW86617  14.665   7.216   7.482
61595SOL    HW186618  14.741   7.273   7.494
61595SOL    HW286619  14.634   7.236   7.394
61596SOL     OW86620   3.947  12.855   0.333
61596SOL    HW186621   3.964  12.931   0.277
61596SOL    HW286622   3.854  12.859   0.352
61597SOL     OW86623  11.488  13.676   0.245
61597SOL    HW186624  11.433  13.753   0.232
61597SOL    HW286625  11.546  13.699   0.318
61598SOL     OW86626  12.894   4.384  10.013
61598SOL    HW186627  12.946   4.456   9.977
61598SOL    HW286628  12.955   4.311  10.020
61599SOL     OW86629  10.120  11.477   1.198
61599SOL    HW186630  10.076  11.488   1.282
61599SOL    HW286631  10.062  11.520   1.135
61600SOL     OW86632   7.108   1.427   6.301
61600SOL    HW186633   7.014   1.414   6.307
61600SOL    HW286634   7.144   1.341   6.279
61601SOL     OW86635  10.760   2.834   6.637
61601SOL    HW186636  10.773   2.865   6.726
61601SOL    HW286637  10.841   2.859   6.591
61602SOL     OW86638   6.832   2.468   1.754
61602SOL    HW186639   6.825   2.513   1.838
61602SOL    HW286640   6.834   2.538   1.689
61603SOL     OW86641   8.032   7.651   1.961
61603SOL    HW186642   8.107   7.618   2.009
61603SOL    HW286643   7.961   7.655   2.026
61604SOL     OW86644   0.542   1.841   5.089
61604SOL    HW186645   0.571   1.762   5.043
61604SOL    HW286646   0.507   1.809   5.173
61605SOL     OW86647   6.998  10.699  11.535
61605SOL    HW186648   7.023  10.791  11.544
61605SOL    HW286649   6.912  10.692  11.576
61606SOL     OW86650   9.591  13.386   7.569
61606SOL    HW186651   9.675  13.341   7.565
61606SOL    HW286652   9.585  13.434   7.487
61607SOL     OW86653  12.349   2.445  10.762
61607SOL    HW186654  12.265   2.488  10.753
61607SOL    HW286655  12.371   2.452  10.855
61608SOL     OW86656   4.337   4.960  12.410
61608SOL    HW186657   4.318   5.053  12.409
61608SOL    HW286658   4.351   4.939  12.502
61609SOL     OW86659   3.161  14.241   5.262
61609SOL    HW186660   3.161  14.293   5.342
61609SOL    HW286661   3.082  14.188   5.269
61610SOL     OW86662   9.423   7.230   2.282
61610SOL    HW186663   9.343   7.265   2.243
61610SOL    HW286664   9.393   7.189   2.363
61611SOL     OW86665   4.802  11.261   7.979
61611SOL    HW186666   4.735  11.253   7.912
61611SOL    HW286667   4.755  11.293   8.056
61612SOL     OW86668  12.612   9.060   9.152
61612SOL    HW186669  12.576   9.095   9.070
61612SOL    HW286670  12.648   8.975   9.128
61613SOL     OW86671  11.396   9.875   5.401
61613SOL    HW186672  11.315   9.846   5.444
61613SOL    HW286673  11.372   9.957   5.358
61614SOL     OW86674  14.039   9.406   0.755
61614SOL    HW186675  14.045   9.330   0.814
61614SOL    HW286676  14.049   9.482   0.813
61615SOL     OW86677   8.766  11.184   7.800
61615SOL    HW186678   8.798  11.133   7.875
61615SOL    HW286679   8.670  11.174   7.804
61616SOL     OW86680   3.615  11.416   4.861
61616SOL    HW186681   3.580  11.486   4.806
61616SOL    HW286682   3.610  11.451   4.950
61617SOL     OW86683   0.062  12.976   1.453
61617SOL    HW186684   0.080  12.933   1.369
61617SOL    HW286685   0.050  13.068   1.431
61618SOL     OW86686   2.408   5.030   5.693
61618SOL    HW186687   2.435   4.950   5.737
61618SOL    HW286688   2.460   5.099   5.735
61619SOL     OW86689  10.409  10.774   2.433
61619SOL    HW186690  10.422  10.854   2.383
61619SOL    HW286691  10.498  10.745   2.454
61620SOL     OW86692   8.548   9.796   0.178
61620SOL    HW186693   8.545   9.842   0.262
61620SOL    HW286694   8.630   9.746   0.180
61621SOL     OW86695   3.250   1.934   4.282
61621SOL    HW186696   3.236   1.982   4.200
61621SOL    HW286697   3.288   1.998   4.342
61622SOL     OW86698   3.586   3.376   9.029
61622SOL    HW186699   3.574   3.454   9.083
61622SOL    HW286700   3.676   3.349   9.046
61623SOL     OW86701   1.344  12.135   0.662
61623SOL    HW186702   1.369  12.048   0.695
61623SOL    HW286703   1.249  12.131   0.652
61624SOL     OW86704   7.620   3.985  14.488
61624SOL    HW186705   7.624   3.938  14.571
61624SOL    HW286706   7.688   4.052  14.495
61625SOL     OW86707  13.482  11.896  14.652
61625SOL    HW186708  13.427  11.944  14.714
61625SOL    HW286709  13.560  11.951  14.643
61626SOL     OW86710   5.255  10.217  13.856
61626SOL    HW186711   5.226  10.254  13.939
61626SOL    HW286712   5.184  10.158  13.830
61627SOL     OW86713   8.638   3.936   3.009
61627SOL    HW186714   8.638   3.973   3.097
61627SOL    HW286715   8.601   4.005   2.954
61628SOL     OW86716   7.953   6.792   5.243
61628SOL    HW186717   7.955   6.768   5.336
61628SOL    HW286718   7.992   6.717   5.198
61629SOL     OW86719   1.162  13.830   2.607
61629SOL    HW186720   1.067  13.834   2.605
61629SOL    HW286721   1.188  13.830   2.515
61630SOL     OW86722  10.239   0.471  12.705
61630SOL    HW186723  10.250   0.389  12.657
61630SOL    HW286724  10.145   0.488  12.701
61631SOL     OW86725   7.111   9.980   2.047
61631SOL    HW186726   7.113   9.936   1.962
61631SOL    HW286727   7.152   9.917   2.107
61632SOL     OW86728  11.888  10.715   4.759
61632SOL    HW186729  11.919  10.656   4.690
61632SOL    HW286730  11.819  10.767   4.717
61633SOL     OW86731   4.039   9.500   5.977
61633SOL    HW186732   4.022   9.414   5.938
61633SOL    HW286733   3.987   9.501   6.057
61634SOL     OW86734   1.236   5.756  12.286
61634SOL    HW186735   1.220   5.845  12.320
61634SOL    HW286736   1.301   5.719  12.346
61635SOL     OW86737   2.141  12.880  12.379
61635SOL    HW186738   2.052  12.847  12.370
61635SOL    HW286739   2.180  12.826  12.448
61636SOL     OW86740  10.445   4.300   8.407
61636SOL    HW186741  10.510   4.231   8.391
61636SOL    HW286742  10.383   4.262   8.469
61637SOL     OW86743   5.646   8.632   7.175
61637SOL    HW186744   5.708   8.700   7.149
61637SOL    HW286745   5.626   8.651   7.267
61638SOL     OW86746  13.153   3.269   3.293
61638SOL    HW186747  13.181   3.357   3.318
61638SOL    HW286748  13.068   3.283   3.251
61639SOL     OW86749   5.126   1.442   0.550
61639SOL    HW186750   5.068   1.485   0.487
61639SOL    HW286751   5.157   1.513   0.606
61640SOL     OW86752   9.200  13.782   7.286
61640SOL    HW186753   9.291  13.757   7.298
61640SOL    HW286754   9.198  13.876   7.306
61641SOL     OW86755   8.002   3.531   6.506
61641SOL    HW186756   8.084   3.554   6.462
61641SOL    HW286757   8.028   3.497   6.591
61642SOL     OW86758   7.516  11.579  12.108
61642SOL    HW186759   7.609  11.578  12.130
61642SOL    HW286760   7.502  11.663  12.065
61643SOL     OW86761   6.244   7.411  11.959
61643SOL    HW186762   6.303   7.346  11.998
61643SOL    HW286763   6.206   7.367  11.883
61644SOL     OW86764   5.478   0.488   3.632
61644SOL    HW186765   5.528   0.447   3.561
61644SOL    HW286766   5.393   0.445   3.630
61645SOL     OW86767   6.790   6.420   5.815
61645SOL    HW186768   6.782   6.464   5.730
61645SOL    HW286769   6.787   6.327   5.794
61646SOL     OW86770   2.122   2.264   1.406
61646SOL    HW186771   2.173   2.272   1.487
61646SOL    HW286772   2.031   2.259   1.434
61647SOL     OW86773   9.028   9.601  11.801
61647SOL    HW186774   8.939   9.568  11.796
61647SOL    HW286775   9.036   9.660  11.726
61648SOL     OW86776   4.918  11.797  14.166
61648SOL    HW186777   4.905  11.707  14.135
61648SOL    HW286778   4.930  11.848  14.086
61649SOL     OW86779   1.476   7.894   5.161
61649SOL    HW186780   1.434   7.929   5.239
61649SOL    HW286781   1.545   7.957   5.140
61650SOL     OW86782   7.973   5.701   0.975
61650SOL    HW186783   7.953   5.791   0.952
61650SOL    HW286784   7.889   5.664   1.004
61651SOL     OW86785   2.822   8.456   3.933
61651SOL    HW186786   2.917   8.455   3.945
61651SOL    HW286787   2.795   8.365   3.946
61652SOL     OW86788   9.790   9.386  14.042
61652SOL    HW186789   9.805   9.330  14.118
61652SOL    HW286790   9.854   9.457  14.052
61653SOL     OW86791   2.472  10.856  14.030
61653SOL    HW186792   2.411  10.882  14.099
61653SOL    HW286793   2.526  10.934  14.016
61654SOL     OW86794   0.092   6.020   1.925
61654SOL    HW186795   0.040   6.085   1.878
61654SOL    HW286796   0.055   5.936   1.898
61655SOL     OW86797   5.798   8.066   1.968
61655SOL    HW186798   5.867   8.129   1.948
61655SOL    HW286799   5.765   8.093   2.054
61656SOL     OW86800   8.736  10.111   1.906
61656SOL    HW186801   8.825  10.080   1.923
61656SOL    HW286802   8.735  10.201   1.936
61657SOL     OW86803   8.159  12.079  14.384
61657SOL    HW186804   8.156  12.126  14.302
61657SOL    HW286805   8.142  11.987  14.360
61658SOL     OW86806   5.361   0.769   6.499
61658SOL    HW186807   5.371   0.864   6.494
61658SOL    HW286808   5.289   0.750   6.438
61659SOL     OW86809  14.710   8.802  11.819
61659SOL    HW186810  14.767   8.791  11.743
61659SOL    HW286811  14.708   8.896  11.834
61660SOL     OW86812  12.555  11.691   1.352
61660SOL    HW186813  12.610  11.668   1.427
61660SOL    HW286814  12.606  11.757   1.305
61661SOL     OW86815   1.826  14.345  11.249
61661SOL    HW186816   1.736  14.318  11.265
61661SOL    HW286817   1.875  14.313  11.325
61662SOL     OW86818   1.743   1.635   6.167
61662SOL    HW186819   1.710   1.548   6.190
61662SOL    HW286820   1.728   1.641   6.072
61663SOL     OW86821   1.125   7.841   0.880
61663SOL    HW186822   1.035   7.831   0.850
61663SOL    HW286823   1.178   7.792   0.817
61664SOL     OW86824  11.074  13.377  10.064
61664SOL    HW186825  11.135  13.451  10.064
61664SOL    HW286826  10.999  13.408  10.116
61665SOL     OW86827   0.858   9.089   8.291
61665SOL    HW186828   0.953   9.098   8.299
61665SOL    HW286829   0.828   9.077   8.381
61666SOL     OW86830   8.467   6.207   8.385
61666SOL    HW186831   8.513   6.268   8.442
61666SOL    HW286832   8.536   6.154   8.345
61667SOL     OW86833  12.791  12.746   4.554
61667SOL    HW186834  12.800  12.705   4.640
61667SOL    HW286835  12.709  12.711   4.519
61668SOL     OW86836  11.510  14.149  10.850
61668SOL    HW186837  11.492  14.056  10.838
61668SOL    HW286838  11.427  14.192  10.826
61669SOL     OW86839   5.178  14.528   4.191
61669SOL    HW186840   5.099  14.477   4.203
61669SOL    HW286841   5.190  14.573   4.275
61670SOL     OW86842  14.299   7.716   7.164
61670SOL    HW186843  14.227   7.763   7.123
61670SOL    HW286844  14.351   7.785   7.208
61671SOL     OW86845   5.751  12.671   2.583
61671SOL    HW186846   5.798  12.599   2.542
61671SOL    HW286847   5.716  12.722   2.510
61672SOL     OW86848   7.539   7.553  12.508
61672SOL    HW186849   7.510   7.622  12.448
61672SOL    HW286850   7.589   7.598  12.575
61673SOL     OW86851   4.179  10.690  14.595
61673SOL    HW186852   4.143  10.773  14.626
61673SOL    HW286853   4.250  10.670  14.655
61674SOL     OW86854  14.852   7.520   2.073
61674SOL    HW186855   0.061   7.558   2.070
61674SOL    HW286856  14.820   7.526   1.983
61675SOL     OW86857  10.430  10.612  13.922
61675SOL    HW186858  10.350  10.577  13.962
61675SOL    HW286859  10.461  10.677  13.985
61676SOL     OW86860   4.468   4.671  12.025
61676SOL    HW186861   4.436   4.631  11.945
61676SOL    HW286862   4.418   4.753  12.032
61677SOL     OW86863   0.288   9.659  14.848
61677SOL    HW186864   0.366   9.678   0.020
61677SOL    HW286865   0.319   9.607  14.774
61678SOL     OW86866   2.063   4.257  14.500
61678SOL    HW186867   2.113   4.316  14.442
61678SOL    HW286868   1.978   4.247  14.456
61679SOL     OW86869   7.668   7.246   4.169
61679SOL    HW186870   7.640   7.309   4.102
61679SOL    HW286871   7.588   7.199   4.192
61680SOL     OW86872  10.029   3.367   2.951
61680SOL    HW186873  10.097   3.345   3.014
61680SOL    HW286874   9.947   3.348   2.996
61681SOL     OW86875  12.196  12.480   1.249
61681SOL    HW186876  12.275  12.524   1.216
61681SOL    HW286877  12.124  12.537   1.224
61682SOL     OW86878   4.903  13.765  12.784
61682SOL    HW186879   4.938  13.853  12.802
61682SOL    HW286880   4.904  13.759  12.688
61683SOL     OW86881  11.893   1.380   2.405
61683SOL    HW186882  11.879   1.376   2.499
61683SOL    HW286883  11.983   1.348   2.393
61684SOL     OW86884   6.028   2.992   9.090
61684SOL    HW186885   5.955   2.968   9.033
61684SOL    HW286886   6.102   3.004   9.031
61685SOL     OW86887  10.818   8.877   3.425
61685SOL    HW186888  10.905   8.918   3.423
61685SOL    HW286889  10.790   8.886   3.516
61686SOL     OW86890   4.960  11.593   5.373
61686SOL    HW186891   5.029  11.613   5.309
61686SOL    HW286892   4.994  11.626   5.456
61687SOL     OW86893   8.853  11.539   9.551
61687SOL    HW186894   8.809  11.482   9.615
61687SOL    HW286895   8.932  11.568   9.596
61688SOL     OW86896  13.691   9.229   6.609
61688SOL    HW186897  13.607   9.260   6.577
61688SOL    HW286898  13.702   9.271   6.694
61689SOL     OW86899  13.726   4.212  10.779
61689SOL    HW186900  13.770   4.139  10.823
61689SOL    HW286901  13.775   4.290  10.808
61690SOL     OW86902   9.152   9.738   1.643
61690SOL    HW186903   9.138   9.800   1.714
61690SOL    HW286904   9.212   9.673   1.679
61691SOL     OW86905   6.329   6.496   7.763
61691SOL    HW186906   6.422   6.472   7.768
61691SOL    HW286907   6.311   6.535   7.848
61692SOL     OW86908   4.002  14.258  14.795
61692SOL    HW186909   3.964  14.316  14.860
61692SOL    HW286910   4.078  14.220  14.838
61693SOL     OW86911   4.244  12.716   3.823
61693SOL    HW186912   4.308  12.685   3.758
61693SOL    HW286913   4.162  12.720   3.775
61694SOL     OW86914   7.982   6.707   3.386
61694SOL    HW186915   7.969   6.801   3.401
61694SOL    HW286916   7.968   6.667   3.471
61695SOL     OW86917  11.167   2.005   2.910
61695SOL    HW186918  11.182   1.931   2.852
61695SOL    HW286919  11.234   2.069   2.885
61696SOL     OW86920   7.334  13.959   8.908
61696SOL    HW186921   7.312  13.924   8.822
61696SOL    HW286922   7.250  13.966   8.953
61697SOL     OW86923   8.430  11.935  11.104
61697SOL    HW186924   8.362  11.980  11.153
61697SOL    HW286925   8.494  11.909  11.170
61698SOL     OW86926  13.196   7.908   0.422
61698SOL    HW186927  13.210   7.816   0.402
61698SOL    HW286928  13.248   7.925   0.500
61699SOL     OW86929  10.207   4.920   7.833
61699SOL    HW186930  10.194   4.983   7.762
61699SOL    HW286931  10.224   4.837   7.789
61700SOL     OW86932   8.949  12.089  10.802
61700SOL    HW186933   8.886  12.136  10.857
61700SOL    HW286934   8.924  11.997  10.809
61701SOL     OW86935   7.582   2.876   9.208
61701SOL    HW186936   7.625   2.800   9.169
61701SOL    HW286937   7.640   2.903   9.279
61702SOL     OW86938   4.028   1.261  10.896
61702SOL    HW186939   4.012   1.348  10.934
61702SOL    HW286940   3.951   1.245  10.842
61703SOL     OW86941   9.955  12.640  10.241
61703SOL    HW186942  10.032  12.650  10.184
61703SOL    HW286943   9.984  12.579  10.310
61704SOL     OW86944   2.170   5.619   0.712
61704SOL    HW186945   2.126   5.687   0.763
61704SOL    HW286946   2.219   5.568   0.776
61705SOL     OW86947   0.987  10.522  11.711
61705SOL    HW186948   0.975  10.567  11.794
61705SOL    HW286949   0.964  10.430  11.730
61706SOL     OW86950   7.108   2.856   7.394
61706SOL    HW186951   7.173   2.850   7.324
61706SOL    HW286952   7.102   2.949   7.414
61707SOL     OW86953  10.324   3.391   9.221
61707SOL    HW186954  10.285   3.476   9.243
61707SOL    HW286955  10.288   3.331   9.286
61708SOL     OW86956   4.973   9.071  12.447
61708SOL    HW186957   5.032   9.001  12.417
61708SOL    HW286958   5.002   9.090  12.536
61709SOL     OW86959  11.880  10.175  12.669
61709SOL    HW186960  11.826  10.239  12.715
61709SOL    HW286961  11.851  10.179  12.578
61710SOL     OW86962   9.872   5.350   4.046
61710SOL    HW186963   9.837   5.322   3.961
61710SOL    HW286964   9.826   5.431   4.065
61711SOL     OW86965   3.207   1.092  11.749
61711SOL    HW186966   3.291   1.045  11.757
61711SOL    HW286967   3.229   1.171  11.700
61712SOL     OW86968  12.633   9.572   8.244
61712SOL    HW186969  12.705   9.592   8.304
61712SOL    HW286970  12.643   9.635   8.173
61713SOL     OW86971  10.450   7.622   3.161
61713SOL    HW186972  10.523   7.682   3.162
61713SOL    HW286973  10.376   7.673   3.127
61714SOL     OW86974  11.642   7.495   6.576
61714SOL    HW186975  11.690   7.420   6.539
61714SOL    HW286976  11.551   7.477   6.555
61715SOL     OW86977   0.633   1.426   1.172
61715SOL    HW186978   0.539   1.406   1.166
61715SOL    HW286979   0.672   1.378   1.099
61716SOL     OW86980   5.031  14.760  11.183
61716SOL    HW186981   5.052  14.671  11.211
61716SOL    HW286982   4.962  14.788  11.244
61717SOL     OW86983   9.706   1.943   8.712
61717SOL    HW186984   9.666   1.961   8.797
61717SOL    HW286985   9.800   1.956   8.726
61718SOL     OW86986  13.004   1.394  10.876
61718SOL    HW186987  13.042   1.427  10.958
61718SOL    HW286988  12.958   1.314  10.902
61719SOL     OW86989   1.008   6.210  11.997
61719SOL    HW186990   1.010   6.229  12.091
61719SOL    HW286991   0.949   6.275  11.961
61720SOL     OW86992   7.999  13.206  11.152
61720SOL    HW186993   8.048  13.224  11.072
61720SOL    HW286994   7.912  13.180  11.122
61721SOL     OW86995   3.749   8.434   3.801
61721SOL    HW186996   3.739   8.515   3.851
61721SOL    HW286997   3.838   8.438   3.766
61722SOL     OW86998   0.713   1.836   3.079
61722SOL    HW186999   0.643   1.811   3.020
61722SOL    HW287000   0.793   1.831   3.026
61723SOL     OW87001   3.860  14.214  11.079
61723SOL    HW187002   3.822  14.157  11.146
61723SOL    HW287003   3.785  14.258  11.039
61724SOL     OW87004  13.330  14.347   8.091
61724SOL    HW187005  13.405  14.325   8.146
61724SOL    HW287006  13.254  14.324   8.144
61725SOL     OW87007  12.376   2.977   4.186
61725SOL    HW187008  12.470   2.957   4.193
61725SOL    HW287009  12.333   2.907   4.234
61726SOL     OW87010   8.322  11.117   9.474
61726SOL    HW187011   8.354  11.030   9.496
61726SOL    HW287012   8.342  11.128   9.381
61727SOL     OW87013  12.410  14.494  11.396
61727SOL    HW187014  12.368  14.530  11.474
61727SOL    HW287015  12.438  14.407  11.422
61728SOL     OW87016   9.489  12.617   1.760
61728SOL    HW187017   9.449  12.656   1.682
61728SOL    HW287018   9.567  12.670   1.775
61729SOL     OW87019   1.046   2.411   5.181
61729SOL    HW187020   1.054   2.488   5.124
61729SOL    HW287021   0.990   2.440   5.253
61730SOL     OW87022   5.842   7.044  11.432
61730SOL    HW187023   5.801   6.980  11.374
61730SOL    HW287024   5.796   7.126  11.413
61731SOL     OW87025   4.399   5.634  14.023
61731SOL    HW187026   4.340   5.605  14.092
61731SOL    HW287027   4.348   5.629  13.942
61732SOL     OW87028   9.530   4.884   9.018
61732SOL    HW187029   9.583   4.904   9.095
61732SOL    HW287030   9.503   4.793   9.031
61733SOL     OW87031   9.861  12.434   5.564
61733SOL    HW187032   9.802  12.450   5.490
61733SOL    HW287033   9.944  12.473   5.536
61734SOL     OW87034  10.749  12.844  11.139
61734SOL    HW187035  10.738  12.916  11.077
61734SOL    HW287036  10.669  12.846  11.192
61735SOL     OW87037   9.461   5.503  10.830
61735SOL    HW187038   9.526   5.440  10.799
61735SOL    HW287039   9.456   5.568  10.761
61736SOL     OW87040   1.370   2.281   1.073
61736SOL    HW187041   1.279   2.284   1.104
61736SOL    HW287042   1.422   2.302   1.150
61737SOL     OW87043   4.972   7.910   6.059
61737SOL    HW187044   4.940   7.943   5.976
61737SOL    HW287045   4.930   7.825   6.069
61738SOL     OW87046  12.914   4.961   5.024
61738SOL    HW187047  12.965   5.042   5.030
61738SOL    HW287048  12.950   4.916   4.947
61739SOL     OW87049   1.722   6.987   1.264
61739SOL    HW187050   1.761   6.913   1.310
61739SOL    HW287051   1.709   6.956   1.175
61740SOL     OW87052  14.457  13.264   1.829
61740SOL    HW187053  14.432  13.174   1.807
61740SOL    HW287054  14.457  13.310   1.745
61741SOL     OW87055   3.280   0.100   4.079
61741SOL    HW187056   3.188   0.103   4.051
61741SOL    HW287057   3.318   0.180   4.043
61742SOL     OW87058   0.838  10.516   4.239
61742SOL    HW187059   0.811  10.476   4.157
61742SOL    HW287060   0.781  10.593   4.248
61743SOL     OW87061  12.559   1.788  11.052
61743SOL    HW187062  12.649   1.791  11.018
61743SOL    HW287063  12.552   1.702  11.093
61744SOL     OW87064   3.238  12.401   8.611
61744SOL    HW187065   3.275  12.332   8.555
61744SOL    HW287066   3.302  12.411   8.681
61745SOL     OW87067   7.837   7.578   8.300
61745SOL    HW187068   7.835   7.633   8.222
61745SOL    HW287069   7.922   7.534   8.296
61746SOL     OW87070  10.042  12.510   8.612
61746SOL    HW187071   9.989  12.567   8.667
61746SOL    HW287072   9.979  12.457   8.563
61747SOL     OW87073   1.078   9.345   0.891
61747SOL    HW187074   1.041   9.421   0.847
61747SOL    HW287075   1.093   9.282   0.821
61748SOL     OW87076   8.477   2.558   6.146
61748SOL    HW187077   8.485   2.631   6.084
61748SOL    HW287078   8.397   2.514   6.121
61749SOL     OW87079   6.751   3.816   6.882
61749SOL    HW187080   6.722   3.752   6.816
61749SOL    HW287081   6.823   3.771   6.927
61750SOL     OW87082   0.953   7.877   1.215
61750SOL    HW187083   1.043   7.866   1.183
61750SOL    HW287084   0.900   7.878   1.135
61751SOL     OW87085   9.524   5.622   9.358
61751SOL    HW187086   9.547   5.602   9.268
61751SOL    HW287087   9.584   5.691   9.384
61752SOL     OW87088   8.621   4.917   9.640
61752SOL    HW187089   8.645   4.891   9.551
61752SOL    HW287090   8.600   4.835   9.684
61753SOL     OW87091   0.631  14.408  14.547
61753SOL    HW187092   0.648  14.425  14.454
61753SOL    HW287093   0.543  14.370  14.548
61754SOL     OW87094  10.361  11.616   4.486
61754SOL    HW187095  10.438  11.643   4.436
61754SOL    HW287096  10.304  11.573   4.422
61755SOL     OW87097  13.026   0.040  10.433
61755SOL    HW187098  12.964   0.071  10.499
61755SOL    HW287099  12.982   0.055  10.350
61756SOL     OW87100   5.342   1.733   4.871
61756SOL    HW187101   5.253   1.715   4.842
61756SOL    HW287102   5.392   1.744   4.790
61757SOL     OW87103  11.608  14.601   9.576
61757SOL    HW187104  11.533  14.649   9.542
61757SOL    HW287105  11.684  14.647   9.541
61758SOL     OW87106  12.164   7.113   9.172
61758SOL    HW187107  12.260   7.116   9.176
61758SOL    HW287108  12.144   7.110   9.079
61759SOL     OW87109   9.475  13.604   4.632
61759SOL    HW187110   9.399  13.593   4.574
61759SOL    HW287111   9.437  13.612   4.719
61760SOL     OW87112   0.076  12.122  13.584
61760SOL    HW187113  14.869  12.164  13.575
61760SOL    HW287114   0.080  12.061  13.511
61761SOL     OW87115  10.453  14.779  14.770
61761SOL    HW187116  10.532  14.728  14.755
61761SOL    HW287117  10.414  14.790  14.684
61762SOL     OW87118  11.131  10.875  12.621
61762SOL    HW187119  11.090  10.810  12.678
61762SOL    HW287120  11.223  10.875  12.647
61763SOL     OW87121   1.588   2.373   7.491
61763SOL    HW187122   1.525   2.326   7.547
61763SOL    HW287123   1.635   2.431   7.551
61764SOL     OW87124  11.711  13.175  12.812
61764SOL    HW187125  11.734  13.260  12.775
61764SOL    HW287126  11.783  13.154  12.870
61765SOL     OW87127  10.219   9.201  12.185
61765SOL    HW187128  10.281   9.271  12.163
61765SOL    HW287129  10.252   9.165  12.267
61766SOL     OW87130   8.985   8.901   6.234
61766SOL    HW187131   8.989   8.818   6.281
61766SOL    HW287132   9.001   8.968   6.300
61767SOL     OW87133  13.799   8.845   3.834
61767SOL    HW187134  13.841   8.759   3.837
61767SOL    HW287135  13.736   8.844   3.907
61768SOL     OW87136  11.210   5.127   1.199
61768SOL    HW187137  11.243   5.208   1.160
61768SOL    HW287138  11.282   5.095   1.254
61769SOL     OW87139   7.716   9.671  12.043
61769SOL    HW187140   7.625   9.683  12.016
61769SOL    HW287141   7.733   9.742  12.105
61770SOL     OW87142  14.565  13.350   5.511
61770SOL    HW187143  14.607  13.348   5.597
61770SOL    HW287144  14.635  13.378   5.451
61771SOL     OW87145   5.980   5.013   3.272
61771SOL    HW187146   6.044   5.082   3.252
61771SOL    HW287147   6.032   4.934   3.285
61772SOL     OW87148   9.685   8.647  11.045
61772SOL    HW187149   9.619   8.708  11.012
61772SOL    HW287150   9.753   8.647  10.978
61773SOL     OW87151  14.130  11.172   5.166
61773SOL    HW187152  14.172  11.090   5.140
61773SOL    HW287153  14.081  11.149   5.245
61774SOL     OW87154  13.496  14.438  10.491
61774SOL    HW187155  13.450  14.418  10.572
61774SOL    HW287156  13.449  14.513  10.455
61775SOL     OW87157   8.283  11.003   3.266
61775SOL    HW187158   8.234  11.083   3.286
61775SOL    HW287159   8.229  10.958   3.201
61776SOL     OW87160  10.511  10.222   3.886
61776SOL    HW187161  10.506  10.281   3.961
61776SOL    HW287162  10.438  10.249   3.830
61777SOL     OW87163   4.859  10.156   8.198
61777SOL    HW187164   4.871  10.102   8.119
61777SOL    HW287165   4.948  10.183   8.222
61778SOL     OW87166  13.174  12.353   9.940
61778SOL    HW187167  13.137  12.300  10.011
61778SOL    HW287168  13.174  12.442   9.974
61779SOL     OW87169   2.211  14.336  10.524
61779SOL    HW187170   2.204  14.354  10.430
61779SOL    HW287171   2.126  14.365  10.560
61780SOL     OW87172   6.437   3.106  12.796
61780SOL    HW187173   6.445   3.046  12.870
61780SOL    HW287174   6.491   3.067  12.727
61781SOL     OW87175   0.024   8.239  10.623
61781SOL    HW187176   0.090   8.191  10.672
61781SOL    HW287177   0.038   8.331  10.649
61782SOL     OW87178   7.997  11.128  12.074
61782SOL    HW187179   7.934  11.074  12.123
61782SOL    HW287180   8.045  11.176  12.142
61783SOL     OW87181   9.803   5.015  14.157
61783SOL    HW187182   9.739   5.070  14.112
61783SOL    HW287183   9.770   5.009  14.247
61784SOL     OW87184  11.559   8.113   6.058
61784SOL    HW187185  11.626   8.104   5.990
61784SOL    HW287186  11.529   8.204   6.051
61785SOL     OW87187   9.570   3.466  12.023
61785SOL    HW187188   9.530   3.516  12.094
61785SOL    HW287189   9.498   3.450  11.962
61786SOL     OW87190  12.005   7.868  12.483
61786SOL    HW187191  12.092   7.871  12.443
61786SOL    HW287192  11.945   7.890  12.411
61787SOL     OW87193  13.348   7.748   8.966
61787SOL    HW187194  13.277   7.810   8.950
61787SOL    HW287195  13.321   7.668   8.921
61788SOL     OW87196   0.561   5.613   4.069
61788SOL    HW187197   0.605   5.668   4.004
61788SOL    HW287198   0.468   5.624   4.051
61789SOL     OW87199   7.051  13.172   9.594
61789SOL    HW187200   7.117  13.213   9.650
61789SOL    HW287201   7.079  13.082   9.585
61790SOL     OW87202   5.162   5.441   6.491
61790SOL    HW187203   5.240   5.439   6.436
61790SOL    HW287204   5.174   5.368   6.552
61791SOL     OW87205   5.247   8.865   9.211
61791SOL    HW187206   5.335   8.904   9.208
61791SOL    HW287207   5.241   8.812   9.132
61792SOL     OW87208   9.409   2.637   2.498
61792SOL    HW187209   9.421   2.576   2.425
61792SOL    HW287210   9.327   2.608   2.540
61793SOL     OW87211   5.607  10.719  11.551
61793SOL    HW187212   5.585  10.626  11.545
61793SOL    HW287213   5.702  10.722  11.542
61794SOL     OW87214   0.365  14.830   0.202
61794SOL    HW187215   0.356   0.037   0.242
61794SOL    HW287216   0.447  14.795   0.237
61795SOL     OW87217   2.401   7.590   5.183
61795SOL    HW187218   2.383   7.646   5.107
61795SOL    HW287219   2.425   7.506   5.145
61796SOL     OW87220   5.424   1.058   2.597
61796SOL    HW187221   5.353   1.084   2.539
61796SOL    HW287222   5.389   1.067   2.685
61797SOL     OW87223   6.738  13.741   0.659
61797SOL    HW187224   6.779  13.725   0.573
61797SOL    HW287225   6.666  13.679   0.663
61798SOL     OW87226   0.952  10.123   1.114
61798SOL    HW187227   0.956  10.178   1.192
61798SOL    HW287228   1.041  10.126   1.078
61799SOL     OW87229   3.322   3.216  12.426
61799SOL    HW187230   3.305   3.310  12.431
61799SOL    HW287231   3.288   3.190  12.340
61800SOL     OW87232  11.350   5.388   1.111
61800SOL    HW187233  11.438   5.392   1.149
61800SOL    HW287234  11.364   5.399   1.017
61801SOL     OW87235   3.168   8.491   0.675
61801SOL    HW187236   3.078   8.491   0.641
61801SOL    HW287237   3.176   8.575   0.720
61802SOL     OW87238   6.428   1.944   4.423
61802SOL    HW187239   6.503   1.908   4.471
61802SOL    HW287240   6.412   2.029   4.463
61803SOL     OW87241   7.878   2.965   6.018
61803SOL    HW187242   7.806   3.019   6.049
61803SOL    HW287243   7.931   3.025   5.965
61804SOL     OW87244   7.881   1.374   1.928
61804SOL    HW187245   7.890   1.404   2.018
61804SOL    HW287246   7.894   1.452   1.874
61805SOL     OW87247   7.191  10.851   3.844
61805SOL    HW187248   7.270  10.800   3.861
61805SOL    HW287249   7.136  10.793   3.791
61806SOL     OW87250   0.744  13.273  10.553
61806SOL    HW187251   0.669  13.236  10.600
61806SOL    HW287252   0.724  13.367  10.547
61807SOL     OW87253   2.833   4.779   5.887
61807SOL    HW187254   2.877   4.772   5.803
61807SOL    HW287255   2.859   4.700   5.934
61808SOL     OW87256   8.863   5.951   8.725
61808SOL    HW187257   8.772   5.978   8.718
61808SOL    HW287258   8.874   5.883   8.659
61809SOL     OW87259   7.963   3.337   6.017
61809SOL    HW187260   7.888   3.334   6.076
61809SOL    HW287261   7.925   3.339   5.929
61810SOL     OW87262  11.007   3.085  13.816
61810SOL    HW187263  10.937   3.071  13.752
61810SOL    HW287264  11.038   2.997  13.838
61811SOL     OW87265   2.762   5.675  10.839
61811SOL    HW187266   2.779   5.656  10.747
61811SOL    HW287267   2.845   5.709  10.872
61812SOL     OW87268   2.598   0.242  12.611
61812SOL    HW187269   2.509   0.257  12.643
61812SOL    HW287270   2.646   0.321  12.637
61813SOL     OW87271   6.865   4.574   3.038
61813SOL    HW187272   6.826   4.648   3.084
61813SOL    HW287273   6.865   4.600   2.946
61814SOL     OW87274  14.532  10.033   7.514
61814SOL    HW187275  14.583  10.097   7.564
61814SOL    HW287276  14.501   9.970   7.579
61815SOL     OW87277  11.304   8.379   8.119
61815SOL    HW187278  11.366   8.412   8.185
61815SOL    HW287279  11.335   8.417   8.037
61816SOL     OW87280  12.440   6.349  13.436
61816SOL    HW187281  12.354   6.330  13.472
61816SOL    HW287282  12.444   6.445  13.431
61817SOL     OW87283   0.583   7.053   2.271
61817SOL    HW187284   0.585   7.137   2.227
61817SOL    HW287285   0.639   6.996   2.218
61818SOL     OW87286   1.749  10.283   3.276
61818SOL    HW187287   1.671  10.299   3.330
61818SOL    HW287288   1.795  10.367   3.277
61819SOL     OW87289   0.228   0.282  10.314
61819SOL    HW187290   0.295   0.216  10.297
61819SOL    HW287291   0.146   0.233  10.319
61820SOL     OW87292   1.636   3.356   8.980
61820SOL    HW187293   1.557   3.385   9.024
61820SOL    HW287294   1.612   3.350   8.887
61821SOL     OW87295   5.277   5.980   1.870
61821SOL    HW187296   5.247   6.000   1.958
61821SOL    HW287297   5.369   5.956   1.881
61822SOL     OW87298   7.960  14.544   9.017
61822SOL    HW187299   8.054  14.552   8.999
61822SOL    HW287300   7.951  14.457   9.057
61823SOL     OW87301   0.259   1.676   5.285
61823SOL    HW187302   0.354   1.670   5.302
61823SOL    HW287303   0.219   1.659   5.371
61824SOL     OW87304   9.751  10.262  10.043
61824SOL    HW187305   9.777  10.199   9.975
61824SOL    HW287306   9.765  10.348  10.002
61825SOL     OW87307  13.830  12.692   3.945
61825SOL    HW187308  13.862  12.781   3.925
61825SOL    HW287309  13.871  12.637   3.879
61826SOL     OW87310   0.855   2.365   0.181
61826SOL    HW187311   0.904   2.341   0.260
61826SOL    HW287312   0.879   2.456   0.164
61827SOL     OW87313   5.619   7.002   2.649
61827SOL    HW187314   5.528   7.031   2.661
61827SOL    HW287315   5.613   6.926   2.593
61828SOL     OW87316   9.235   7.678   6.116
61828SOL    HW187317   9.313   7.632   6.146
61828SOL    HW287318   9.263   7.722   6.035
61829SOL     OW87319   9.175   9.334   4.883
61829SOL    HW187320   9.097   9.281   4.868
61829SOL    HW287321   9.176   9.350   4.977
61830SOL     OW87322  11.838   5.991  14.866
61830SOL    HW187323  11.854   6.025   0.075
61830SOL    HW287324  11.915   5.938  14.846
61831SOL     OW87325   8.781  11.000  14.133
61831SOL    HW187326   8.782  11.091  14.162
61831SOL    HW287327   8.862  10.989  14.084
61832SOL     OW87328   8.348   5.646   7.706
61832SOL    HW187329   8.400   5.569   7.684
61832SOL    HW287330   8.412   5.715   7.722
61833SOL     OW87331  11.678  11.837   4.754
61833SOL    HW187332  11.732  11.890   4.696
61833SOL    HW287333  11.741  11.788   4.807
61834SOL     OW87334  13.808  10.929   6.338
61834SOL    HW187335  13.783  10.876   6.413
61834SOL    HW287336  13.744  10.907   6.271
61835SOL     OW87337   0.547   8.721   2.878
61835SOL    HW187338   0.597   8.712   2.959
61835SOL    HW287339   0.483   8.650   2.881
61836SOL     OW87340  10.423   7.269  11.430
61836SOL    HW187341  10.512   7.235  11.423
61836SOL    HW287342  10.373   7.196  11.466
61837SOL     OW87343   1.181  12.444   4.466
61837SOL    HW187344   1.235  12.496   4.526
61837SOL    HW287345   1.091  12.471   4.485
61838SOL     OW87346  13.903   7.498   6.174
61838SOL    HW187347  13.963   7.500   6.100
61838SOL    HW287348  13.941   7.433   6.234
61839SOL     OW87349  10.346  13.338  14.396
61839SOL    HW187350  10.370  13.406  14.459
61839SOL    HW287351  10.429  13.300  14.368
61840SOL     OW87352   7.899   7.808   4.407
61840SOL    HW187353   7.820   7.791   4.356
61840SOL    HW287354   7.870   7.806   4.498
61841SOL     OW87355   8.514   5.470  14.424
61841SOL    HW187356   8.567   5.407  14.375
61841SOL    HW287357   8.495   5.426  14.507
61842SOL     OW87358  14.839   1.162   1.574
61842SOL    HW187359  14.852   1.074   1.609
61842SOL    HW287360   0.025   1.215   1.618
61843SOL     OW87361   9.578   3.620  10.084
61843SOL    HW187362   9.526   3.664  10.017
61843SOL    HW287363   9.519   3.612  10.159
61844SOL     OW87364   1.973  12.790   5.730
61844SOL    HW187365   2.004  12.866   5.778
61844SOL    HW287366   2.049  12.759   5.681
61845SOL     OW87367   1.282   3.968  13.901
61845SOL    HW187368   1.243   3.906  13.962
61845SOL    HW287369   1.211   3.993  13.843
61846SOL     OW87370   4.843  11.940   6.833
61846SOL    HW187371   4.874  11.967   6.747
61846SOL    HW287372   4.786  11.865   6.816
61847SOL     OW87373  13.457   5.742  12.729
61847SOL    HW187374  13.468   5.695  12.646
61847SOL    HW287375  13.363   5.737  12.747
61848SOL     OW87376   5.253  12.766   7.432
61848SOL    HW187377   5.328  12.709   7.449
61848SOL    HW287378   5.236  12.756   7.339
61849SOL     OW87379  14.484   8.916   9.781
61849SOL    HW187380  14.551   8.927   9.714
61849SOL    HW287381  14.472   8.821   9.788
61850SOL     OW87382   3.335   9.937   6.083
61850SOL    HW187383   3.386  10.017   6.087
61850SOL    HW287384   3.267   9.955   6.018
61851SOL     OW87385   0.690  11.886   3.364
61851SOL    HW187386   0.667  11.878   3.271
61851SOL    HW287387   0.649  11.809   3.405
61852SOL     OW87388   7.067  14.077  14.541
61852SOL    HW187389   7.002  14.130  14.495
61852SOL    HW287390   7.019  14.040  14.615
61853SOL     OW87391   2.605   3.210   5.664
61853SOL    HW187392   2.689   3.226   5.707
61853SOL    HW287393   2.621   3.231   5.572
61854SOL     OW87394  13.133   7.070  10.003
61854SOL    HW187395  13.078   7.004   9.960
61854SOL    HW287396  13.218   7.061   9.961
61855SOL     OW87397  11.463   4.724  12.273
61855SOL    HW187398  11.530   4.791  12.260
61855SOL    HW287399  11.490   4.650  12.219
61856SOL     OW87400  12.753   0.823  10.139
61856SOL    HW187401  12.743   0.762  10.213
61856SOL    HW287402  12.847   0.822  10.121
61857SOL     OW87403   8.586  12.764   5.724
61857SOL    HW187404   8.576  12.791   5.815
61857SOL    HW287405   8.577  12.845   5.674
61858SOL     OW87406   0.114   8.153   4.911
61858SOL    HW187407   0.164   8.224   4.872
61858SOL    HW287408   0.071   8.110   4.837
61859SOL     OW87409  12.437   3.388   8.829
61859SOL    HW187410  12.448   3.413   8.737
61859SOL    HW287411  12.435   3.471   8.876
61860SOL     OW87412  14.290  10.482   2.570
61860SOL    HW187413  14.329  10.466   2.655
61860SOL    HW287414  14.200  10.509   2.589
61861SOL     OW87415  10.506   4.656   6.052
61861SOL    HW187416  10.513   4.640   6.146
61861SOL    HW287417  10.578   4.606   6.014
61862SOL     OW87418   7.650  12.664   5.620
61862SOL    HW187419   7.682  12.589   5.670
61862SOL    HW287420   7.712  12.734   5.641
61863SOL     OW87421   8.055   8.398   9.548
61863SOL    HW187422   8.005   8.392   9.630
61863SOL    HW287423   7.993   8.434   9.485
61864SOL     OW87424  11.327   2.421   5.073
61864SOL    HW187425  11.364   2.483   5.137
61864SOL    HW287426  11.397   2.407   5.010
61865SOL     OW87427   6.453   7.690   1.739
61865SOL    HW187428   6.375   7.690   1.794
61865SOL    HW287429   6.422   7.659   1.654
61866SOL     OW87430  13.902   3.058   8.897
61866SOL    HW187431  13.849   2.994   8.946
61866SOL    HW287432  13.889   3.034   8.806
61867SOL     OW87433   1.951   5.281  10.619
61867SOL    HW187434   1.942   5.223  10.694
61867SOL    HW287435   2.041   5.268  10.590
61868SOL     OW87436   4.020  11.863   8.521
61868SOL    HW187437   4.071  11.943   8.534
61868SOL    HW287438   3.987  11.841   8.607
61869SOL     OW87439  11.269   4.731  12.946
61869SOL    HW187440  11.303   4.663  13.004
61869SOL    HW287441  11.327   4.729  12.870
61870SOL     OW87442   6.094   5.076   4.563
61870SOL    HW187443   6.064   4.987   4.545
61870SOL    HW287444   6.177   5.083   4.515
61871SOL     OW87445   1.985  13.623   3.646
61871SOL    HW187446   1.941  13.548   3.608
61871SOL    HW287447   2.015  13.592   3.732
61872SOL     OW87448   9.298  13.264  10.498
61872SOL    HW187449   9.235  13.316  10.549
61872SOL    HW287450   9.244  13.217  10.435
61873SOL     OW87451   8.946   7.427  10.126
61873SOL    HW187452   8.857   7.460  10.140
61873SOL    HW287453   8.995   7.460  10.201
61874SOL     OW87454  11.759   1.291   4.752
61874SOL    HW187455  11.779   1.225   4.686
61874SOL    HW287456  11.761   1.374   4.705
61875SOL     OW87457   7.567  12.971  13.795
61875SOL    HW187458   7.571  12.893  13.849
61875SOL    HW287459   7.475  12.976  13.767
61876SOL     OW87460  14.465  11.840  12.961
61876SOL    HW187461  14.458  11.814  13.053
61876SOL    HW287462  14.394  11.792  12.918
61877SOL     OW87463   5.245   5.502  12.603
61877SOL    HW187464   5.335   5.497  12.570
61877SOL    HW287465   5.235   5.591  12.634
61878SOL     OW87466   0.515  12.192   0.842
61878SOL    HW187467   0.489  12.122   0.902
61878SOL    HW287468   0.453  12.263   0.860
61879SOL     OW87469   7.996  11.507   2.612
61879SOL    HW187470   7.943  11.428   2.622
61879SOL    HW287471   8.051  11.490   2.536
61880SOL     OW87472   7.671  14.484  13.350
61880SOL    HW187473   7.641  14.513  13.436
61880SOL    HW287474   7.613  14.528  13.288
61881SOL     OW87475   2.528   8.603   1.485
61881SOL    HW187476   2.502   8.650   1.564
61881SOL    HW287477   2.595   8.541   1.514
61882SOL     OW87478   8.673   6.440   3.560
61882SOL    HW187479   8.663   6.345   3.558
61882SOL    HW287480   8.615   6.469   3.630
61883SOL     OW87481  13.897  13.048  13.138
61883SOL    HW187482  13.945  13.037  13.220
61883SOL    HW287483  13.893  13.142  13.124
61884SOL     OW87484   9.055  11.134   5.328
61884SOL    HW187485   9.150  11.127   5.340
61884SOL    HW287486   9.043  11.127   5.233
61885SOL     OW87487   5.416   6.371  13.582
61885SOL    HW187488   5.416   6.276  13.591
61885SOL    HW287489   5.476   6.389  13.509
61886SOL     OW87490   3.588   9.246  10.131
61886SOL    HW187491   3.601   9.155  10.103
61886SOL    HW287492   3.587   9.296  10.050
61887SOL     OW87493   2.174   5.865  13.383
61887SOL    HW187494   2.208   5.900  13.300
61887SOL    HW287495   2.079   5.875  13.376
61888SOL     OW87496  13.372   7.843   7.743
61888SOL    HW187497  13.434   7.907   7.779
61888SOL    HW287498  13.309   7.829   7.814
61889SOL     OW87499   8.067  12.416   8.335
61889SOL    HW187500   8.159  12.440   8.325
61889SOL    HW287501   8.035  12.473   8.404
61890SOL     OW87502   2.108   2.766   4.117
61890SOL    HW187503   2.124   2.844   4.170
61890SOL    HW287504   2.039   2.792   4.056
61891SOL     OW87505   0.655  12.187  14.456
61891SOL    HW187506   0.653  12.150  14.544
61891SOL    HW287507   0.623  12.277  14.467
61892SOL     OW87508   8.836   4.874   6.547
61892SOL    HW187509   8.855   4.947   6.605
61892SOL    HW287510   8.849   4.796   6.601
61893SOL     OW87511   7.855  13.829   8.540
61893SOL    HW187512   7.941  13.865   8.560
61893SOL    HW287513   7.795  13.903   8.551
61894SOL     OW87514  13.001  12.674   7.277
61894SOL    HW187515  12.992  12.721   7.360
61894SOL    HW287516  12.987  12.582   7.301
61895SOL     OW87517   1.231   5.036  12.802
61895SOL    HW187518   1.264   4.951  12.773
61895SOL    HW287519   1.290   5.099  12.762
61896SOL     OW87520   8.803   4.590  12.774
61896SOL    HW187521   8.871   4.609  12.709
61896SOL    HW287522   8.833   4.636  12.853
61897SOL     OW87523   1.051  11.931   4.685
61897SOL    HW187524   1.037  11.947   4.591
61897SOL    HW287525   1.034  12.016   4.727
61898SOL     OW87526   4.467  14.445   2.606
61898SOL    HW187527   4.448  14.354   2.581
61898SOL    HW287528   4.477  14.442   2.701
61899SOL     OW87529  12.535   8.459   4.890
61899SOL    HW187530  12.571   8.371   4.886
61899SOL    HW287531  12.485   8.468   4.809
61900SOL     OW87532   0.615   0.157   1.541
61900SOL    HW187533   0.682   0.225   1.536
61900SOL    HW287534   0.558   0.186   1.612
61901SOL     OW87535   4.759   8.299  12.358
61901SOL    HW187536   4.688   8.314  12.420
61901SOL    HW287537   4.838   8.322  12.406
61902SOL     OW87538  14.538  11.656   8.544
61902SOL    HW187539  14.620  11.624   8.506
61902SOL    HW287540  14.545  11.752   8.540
61903SOL     OW87541   0.805  10.547   1.123
61903SOL    HW187542   0.745  10.506   1.061
61903SOL    HW287543   0.754  10.557   1.203
61904SOL     OW87544   3.077  13.020   5.925
61904SOL    HW187545   3.057  12.950   5.986
61904SOL    HW287546   3.129  13.083   5.976
61905SOL     OW87547   6.445  11.120  13.017
61905SOL    HW187548   6.503  11.048  13.042
61905SOL    HW287549   6.441  11.115  12.921
61906SOL     OW87550   6.182   0.257   5.923
61906SOL    HW187551   6.254   0.194   5.930
61906SOL    HW287552   6.218   0.338   5.958
61907SOL     OW87553   9.180   0.038  13.191
61907SOL    HW187554   9.234   0.080  13.124
61907SOL    HW287555   9.242  14.873  13.248
61908SOL     OW87556  12.030   1.825  14.263
61908SOL    HW187557  12.051   1.900  14.206
61908SOL    HW287558  11.964   1.776  14.214
61909SOL     OW87559  10.429   0.648  12.815
61909SOL    HW187560  10.364   0.593  12.770
61909SOL    HW287561  10.388   0.669  12.899
61910SOL     OW87562   9.867   8.878   8.833
61910SOL    HW187563   9.916   8.897   8.753
61910SOL    HW287564   9.883   8.785   8.849
61911SOL     OW87565  12.259  10.459   3.062
61911SOL    HW187566  12.354  10.464   3.053
61911SOL    HW287567  12.225  10.504   2.985
61912SOL     OW87568  10.065  14.808   6.878
61912SOL    HW187569  10.141  14.799   6.821
61912SOL    HW287570  10.101  14.810   6.967
61913SOL     OW87571   8.864  11.058   7.571
61913SOL    HW187572   8.812  11.092   7.644
61913SOL    HW287573   8.911  10.983   7.608
61914SOL     OW87574   7.229   5.282   1.963
61914SOL    HW187575   7.259   5.322   2.045
61914SOL    HW287576   7.181   5.352   1.918
61915SOL     OW87577  12.043  12.588  11.237
61915SOL    HW187578  12.060  12.510  11.289
61915SOL    HW287579  12.094  12.657  11.279
61916SOL     OW87580   4.979   0.800   8.811
61916SOL    HW187581   4.998   0.736   8.879
61916SOL    HW287582   4.890   0.780   8.782
61917SOL     OW87583   3.881   2.946  11.087
61917SOL    HW187584   3.877   3.026  11.035
61917SOL    HW287585   3.956   2.898  11.052
61918SOL     OW87586  12.472  13.140   4.147
61918SOL    HW187587  12.515  13.221   4.174
61918SOL    HW287588  12.538  13.072   4.164
61919SOL     OW87589   3.878   8.590  11.361
61919SOL    HW187590   3.843   8.671  11.398
61919SOL    HW287591   3.803   8.549  11.316
61920SOL     OW87592   2.786   5.762  13.954
61920SOL    HW187593   2.856   5.822  13.977
61920SOL    HW287594   2.748   5.799  13.874
61921SOL     OW87595   7.535   4.481  13.138
61921SOL    HW187596   7.586   4.535  13.077
61921SOL    HW287597   7.586   4.400  13.146
61922SOL     OW87598  11.145   5.442   8.674
61922SOL    HW187599  11.061   5.399   8.691
61922SOL    HW287600  11.178   5.400   8.595
61923SOL     OW87601  10.725  13.641   3.666
61923SOL    HW187602  10.767  13.556   3.675
61923SOL    HW287603  10.737  13.683   3.751
61924SOL     OW87604   7.251   3.559   4.889
61924SOL    HW187605   7.165   3.552   4.847
61924SOL    HW287606   7.240   3.629   4.953
61925SOL     OW87607   8.741   3.564   8.574
61925SOL    HW187608   8.796   3.584   8.499
61925SOL    HW287609   8.756   3.636   8.635
61926SOL     OW87610   8.334   8.665   9.006
61926SOL    HW187611   8.281   8.653   9.085
61926SOL    HW287612   8.400   8.596   9.010
61927SOL     OW87613   2.342   9.423   7.535
61927SOL    HW187614   2.403   9.496   7.545
61927SOL    HW287615   2.381   9.352   7.585
61928SOL     OW87616  10.856  14.236   4.333
61928SOL    HW187617  10.883  14.259   4.422
61928SOL    HW287618  10.764  14.260   4.329
61929SOL     OW87619   0.865   4.095   4.189
61929SOL    HW187620   0.815   4.128   4.115
61929SOL    HW287621   0.801   4.050   4.243
61930SOL     OW87622  11.232   6.441  14.233
61930SOL    HW187623  11.192   6.486  14.159
61930SOL    HW287624  11.253   6.354  14.199
61931SOL     OW87625   6.541  14.442  13.698
61931SOL    HW187626   6.599  14.433  13.622
61931SOL    HW287627   6.465  14.490  13.665
61932SOL     OW87628   7.270   6.262  14.101
61932SOL    HW187629   7.178   6.277  14.121
61932SOL    HW287630   7.293   6.184  14.151
61933SOL     OW87631  11.912   5.863   4.622
61933SOL    HW187632  11.838   5.896   4.675
61933SOL    HW287633  11.871   5.825   4.545
61934SOL     OW87634   0.460  12.851  12.052
61934SOL    HW187635   0.532  12.877  12.110
61934SOL    HW287636   0.473  12.902  11.973
61935SOL     OW87637  14.743   2.243  12.415
61935SOL    HW187638  14.820   2.194  12.384
61935SOL    HW287639  14.737   2.221  12.508
61936SOL     OW87640   5.100   3.305   3.474
61936SOL    HW187641   5.170   3.296   3.539
61936SOL    HW287642   5.036   3.361   3.517
61937SOL     OW87643  13.195   7.144   0.849
61937SOL    HW187644  13.249   7.159   0.772
61937SOL    HW287645  13.255   7.150   0.923
61938SOL     OW87646  13.934   8.984  13.886
61938SOL    HW187647  13.852   9.032  13.870
61938SOL    HW287648  13.906   8.899  13.918
61939SOL     OW87649   0.590   9.207   3.459
61939SOL    HW187650   0.640   9.151   3.518
61939SOL    HW287651   0.511   9.230   3.508
61940SOL     OW87652  11.484   3.829   6.148
61940SOL    HW187653  11.511   3.920   6.161
61940SOL    HW287654  11.392   3.828   6.171
61941SOL     OW87655   4.244   3.776  13.017
61941SOL    HW187656   4.327   3.769  12.971
61941SOL    HW287657   4.202   3.691  13.003
61942SOL     OW87658  14.655  10.928   4.649
61942SOL    HW187659  14.573  10.969   4.678
61942SOL    HW287660  14.700  10.997   4.601
61943SOL     OW87661   9.789   8.810  10.418
61943SOL    HW187662   9.868   8.864  10.423
61943SOL    HW287663   9.810   8.745  10.351
61944SOL     OW87664   5.399  10.827  12.622
61944SOL    HW187665   5.384  10.906  12.674
61944SOL    HW287666   5.381  10.854  12.532
61945SOL     OW87667  11.117   5.333   7.169
61945SOL    HW187668  11.078   5.265   7.114
61945SOL    HW287669  11.194   5.291   7.208
61946SOL     OW87670   0.826   6.918   5.316
61946SOL    HW187671   0.836   6.885   5.227
61946SOL    HW287672   0.877   6.856   5.370
61947SOL     OW87673  10.028   9.612   1.586
61947SOL    HW187674  10.086   9.537   1.602
61947SOL    HW287675  10.081   9.672   1.534
61948SOL     OW87676  10.604  13.657   9.240
61948SOL    HW187677  10.652  13.641   9.321
61948SOL    HW287678  10.586  13.570   9.205
61949SOL     OW87679   4.577  14.580  14.419
61949SOL    HW187680   4.662  14.544  14.392
61949SOL    HW287681   4.519  14.504  14.426
61950SOL     OW87682   7.970   7.468   2.400
61950SOL    HW187683   7.902   7.459   2.467
61950SOL    HW287684   7.957   7.556   2.364
61951SOL     OW87685   8.856   3.640   4.619
61951SOL    HW187686   8.831   3.656   4.528
61951SOL    HW287687   8.951   3.628   4.615
61952SOL     OW87688   6.595  11.164   4.725
61952SOL    HW187689   6.684  11.199   4.719
61952SOL    HW287690   6.566  11.155   4.634
61953SOL     OW87691  11.820   3.671  11.675
61953SOL    HW187692  11.798   3.648  11.584
61953SOL    HW287693  11.914   3.654  11.682
61954SOL     OW87694   5.384   3.301   3.848
61954SOL    HW187695   5.363   3.328   3.938
61954SOL    HW287696   5.357   3.209   3.844
61955SOL     OW87697   6.279   4.468   5.222
61955SOL    HW187698   6.200   4.473   5.275
61955SOL    HW287699   6.328   4.548   5.245
61956SOL     OW87700   9.426   2.988   4.281
61956SOL    HW187701   9.420   2.893   4.286
61956SOL    HW287702   9.444   3.006   4.189
61957SOL     OW87703   5.099   5.486   2.642
61957SOL    HW187704   5.025   5.542   2.667
61957SOL    HW287705   5.090   5.476   2.547
61958SOL     OW87706   0.117   2.990   9.173
61958SOL    HW187707   0.213   3.000   9.175
61958SOL    HW287708   0.097   2.944   9.255
61959SOL     OW87709  14.060  14.534  11.824
61959SOL    HW187710  13.995  14.595  11.791
61959SOL    HW287711  14.028  14.448  11.797
61960SOL     OW87712   4.831  10.417   2.473
61960SOL    HW187713   4.921  10.447   2.460
61960SOL    HW287714   4.779  10.497   2.472
61961SOL     OW87715   6.784  12.518   4.955
61961SOL    HW187716   6.723  12.506   5.028
61961SOL    HW287717   6.755  12.456   4.889
61962SOL     OW87718   6.856   0.299  14.293
61962SOL    HW187719   6.841   0.389  14.324
61962SOL    HW287720   6.876   0.310  14.200
61963SOL     OW87721  14.426  11.499  12.862
61963SOL    HW187722  14.399  11.538  12.779
61963SOL    HW287723  14.353  11.442  12.887
61964SOL     OW87724   5.052  11.881   2.592
61964SOL    HW187725   5.142  11.915   2.599
61964SOL    HW287726   5.023  11.870   2.682
61965SOL     OW87727  11.418   5.177   4.054
61965SOL    HW187728  11.358   5.210   3.987
61965SOL    HW287729  11.419   5.244   4.122
61966SOL     OW87730   0.449   7.579   9.592
61966SOL    HW187731   0.432   7.648   9.528
61966SOL    HW287732   0.414   7.499   9.551
61967SOL     OW87733   1.233  13.146   8.962
61967SOL    HW187734   1.268  13.228   8.926
61967SOL    HW287735   1.146  13.138   8.922
61968SOL     OW87736   5.985   3.424   6.685
61968SOL    HW187737   6.035   3.469   6.617
61968SOL    HW287738   6.029   3.340   6.696
61969SOL     OW87739  11.910   3.329  10.845
61969SOL    HW187740  11.966   3.356  10.772
61969SOL    HW287741  11.899   3.408  10.897
61970SOL     OW87742   0.188   0.723   3.986
61970SOL    HW187743   0.130   0.729   4.062
61970SOL    HW287744   0.245   0.800   3.994
61971SOL     OW87745   0.259   2.503   4.459
61971SOL    HW187746   0.232   2.493   4.368
61971SOL    HW287747   0.207   2.438   4.506
61972SOL     OW87748  14.852   0.238  13.579
61972SOL    HW187749  14.845   0.236  13.484
61972SOL    HW287750  14.780   0.182  13.610
61973SOL     OW87751  14.265   0.183   2.883
61973SOL    HW187752  14.213   0.124   2.827
61973SOL    HW287753  14.314   0.124   2.941
61974SOL     OW87754   9.973  13.076   0.789
61974SOL    HW187755   9.921  13.068   0.709
61974SOL    HW287756  10.016  12.990   0.798
61975SOL     OW87757   8.215   9.271  12.105
61975SOL    HW187758   8.134   9.263  12.155
61975SOL    HW287759   8.190   9.315  12.024
61976SOL     OW87760   2.137   9.857   8.215
61976SOL    HW187761   2.053   9.841   8.172
61976SOL    HW287762   2.165   9.942   8.181
61977SOL     OW87763   9.793  10.100   8.539
61977SOL    HW187764   9.784  10.028   8.601
61977SOL    HW287765   9.794  10.179   8.593
61978SOL     OW87766   2.361  10.178  10.950
61978SOL    HW187767   2.322  10.217  10.871
61978SOL    HW287768   2.301  10.107  10.973
61979SOL     OW87769  14.097   2.514   5.572
61979SOL    HW187770  14.054   2.555   5.647
61979SOL    HW287771  14.175   2.567   5.557
61980SOL     OW87772   2.790  11.844   3.406
61980SOL    HW187773   2.852  11.846   3.333
61980SOL    HW287774   2.843  11.864   3.483
61981SOL     OW87775   8.778  13.859   7.237
61981SOL    HW187776   8.813  13.784   7.189
61981SOL    HW287777   8.713  13.897   7.177
61982SOL     OW87778  14.155   9.465   4.713
61982SOL    HW187779  14.152   9.560   4.729
61982SOL    HW287780  14.248   9.444   4.714
61983SOL     OW87781  10.788   1.189   9.935
61983SOL    HW187782  10.860   1.216   9.878
61983SOL    HW287783  10.831   1.139  10.005
61984SOL     OW87784   4.883  13.111   0.326
61984SOL    HW187785   4.855  13.202   0.316
61984SOL    HW287786   4.895  13.101   0.420
61985SOL     OW87787   3.732   6.323  14.325
61985SOL    HW187788   3.801   6.387  14.310
61985SOL    HW287789   3.656   6.358  14.278
61986SOL     OW87790   4.059   1.186   2.441
61986SOL    HW187791   4.114   1.259   2.414
61986SOL    HW287792   4.051   1.132   2.362
61987SOL     OW87793  12.464   7.439  12.571
61987SOL    HW187794  12.450   7.532  12.590
61987SOL    HW287795  12.539   7.437  12.512
61988SOL     OW87796   5.827   1.658   6.705
61988SOL    HW187797   5.781   1.582   6.741
61988SOL    HW287798   5.839   1.716   6.780
61989SOL     OW87799   9.268   4.650   1.357
61989SOL    HW187800   9.310   4.567   1.380
61989SOL    HW287801   9.175   4.630   1.357
61990SOL     OW87802   7.505   2.686   1.153
61990SOL    HW187803   7.579   2.664   1.209
61990SOL    HW287804   7.429   2.649   1.198
61991SOL     OW87805   3.729  14.639  14.403
61991SOL    HW187806   3.767  14.567  14.352
61991SOL    HW287807   3.800  14.666  14.461
61992SOL     OW87808   0.181  11.217  13.659
61992SOL    HW187809   0.139  11.273  13.724
61992SOL    HW287810   0.138  11.132  13.669
61993SOL     OW87811  11.940   8.226  13.729
61993SOL    HW187812  11.990   8.265  13.657
61993SOL    HW287813  12.003   8.220  13.801
61994SOL     OW87814  10.027   2.844   4.485
61994SOL    HW187815  10.016   2.752   4.464
61994SOL    HW287816  10.062   2.844   4.574
61995SOL     OW87817   7.568  14.213  13.464
61995SOL    HW187818   7.594  14.297  13.428
61995SOL    HW287819   7.648  14.176  13.501
61996SOL     OW87820   9.302  12.041  14.743
61996SOL    HW187821   9.228  12.056  14.683
61996SOL    HW287822   9.289  12.105  14.812
61997SOL     OW87823   1.549  14.457   5.261
61997SOL    HW187824   1.535  14.398   5.335
61997SOL    HW287825   1.583  14.401   5.192
61998SOL     OW87826   8.409  13.978  10.080
61998SOL    HW187827   8.336  14.038  10.072
61998SOL    HW287828   8.430  13.953   9.990
61999SOL     OW87829   1.623  14.778   4.057
61999SOL    HW187830   1.529  14.777   4.037
61999SOL    HW287831   1.660  14.706   4.006
62000SOL     OW87832  14.757   6.892   9.629
62000SOL    HW187833  14.705   6.957   9.582
62000SOL    HW287834  14.716   6.808   9.607
62001SOL     OW87835  14.560   5.451  11.501
62001SOL    HW187836  14.518   5.368  11.478
62001SOL    HW287837  14.595   5.438  11.588
62002SOL     OW87838   8.714   8.832   0.781
62002SOL    HW187839   8.789   8.806   0.728
62002SOL    HW287840   8.735   8.799   0.869
62003SOL     OW87841   7.944   3.909  14.317
62003SOL    HW187842   7.951   3.879  14.407
62003SOL    HW287843   8.033   3.939  14.295
62004SOL     OW87844  11.464   5.671  10.317
62004SOL    HW187845  11.410   5.656  10.239
62004SOL    HW287846  11.540   5.719  10.284
62005SOL     OW87847  12.530   5.786   7.384
62005SOL    HW187848  12.616   5.808   7.350
62005SOL    HW287849  12.537   5.800   7.479
62006SOL     OW87850   6.627  13.640  10.251
62006SOL    HW187851   6.627  13.701  10.325
62006SOL    HW287852   6.545  13.659  10.205
62007SOL     OW87853   9.374   9.655  14.349
62007SOL    HW187854   9.347   9.736  14.390
62007SOL    HW287855   9.306   9.592  14.372
62008SOL     OW87856   7.921   1.841  13.331
62008SOL    HW187857   7.921   1.756  13.375
62008SOL    HW287858   7.865   1.897  13.386
62009SOL     OW87859  14.439   5.369  10.602
62009SOL    HW187860  14.423   5.318  10.522
62009SOL    HW287861  14.533   5.356  10.620
62010SOL     OW87862   7.619   4.790   1.429
62010SOL    HW187863   7.582   4.846   1.498
62010SOL    HW287864   7.678   4.848   1.381
62011SOL     OW87865   5.944   1.949  14.175
62011SOL    HW187866   5.985   2.022  14.222
62011SOL    HW287867   5.850   1.965  14.183
62012SOL     OW87868   1.185   7.546   9.035
62012SOL    HW187869   1.280   7.545   9.024
62012SOL    HW287870   1.165   7.633   9.068
62013SOL     OW87871  13.128   9.760  10.177
62013SOL    HW187872  13.169   9.843  10.152
62013SOL    HW287873  13.034   9.780  10.183
62014SOL     OW87874   3.561   7.995   3.544
62014SOL    HW187875   3.549   7.939   3.467
62014SOL    HW287876   3.646   8.037   3.530
62015SOL     OW87877   6.300   5.685   3.934
62015SOL    HW187878   6.207   5.704   3.946
62015SOL    HW287879   6.328   5.744   3.865
62016SOL     OW87880   2.823   8.906   9.314
62016SOL    HW187881   2.846   8.900   9.221
62016SOL    HW287882   2.908   8.905   9.359
62017SOL     OW87883   0.197   8.070   3.788
62017SOL    HW187884   0.143   8.084   3.709
62017SOL    HW287885   0.134   8.046   3.856
62018SOL     OW87886   8.140  11.856  13.235
62018SOL    HW187887   8.131  11.898  13.321
62018SOL    HW287888   8.218  11.896  13.197
62019SOL     OW87889  14.464   7.777   5.046
62019SOL    HW187890  14.398   7.710   5.026
62019SOL    HW287891  14.440   7.808   5.134
62020SOL     OW87892   0.571   1.193   0.217
62020SOL    HW187893   0.545   1.137   0.290
62020SOL    HW287894   0.665   1.205   0.228
62021SOL     OW87895  14.202   9.291   4.001
62021SOL    HW187896  14.203   9.286   3.905
62021SOL    HW287897  14.181   9.382   4.020
62022SOL     OW87898   9.649  11.290  10.677
62022SOL    HW187899   9.556  11.297  10.656
62022SOL    HW287900   9.664  11.357  10.744
62023SOL     OW87901   2.388   7.219   0.635
62023SOL    HW187902   2.392   7.127   0.663
62023SOL    HW287903   2.316   7.257   0.686
62024SOL     OW87904   4.910   8.870  11.805
62024SOL    HW187905   4.866   8.785  11.805
62024SOL    HW287906   4.994   8.855  11.762
62025SOL     OW87907   8.563   5.903  10.923
62025SOL    HW187908   8.610   5.987  10.920
62025SOL    HW287909   8.521   5.897  10.838
62026SOL     OW87910   1.907   5.976  12.270
62026SOL    HW187911   1.910   6.050  12.210
62026SOL    HW287912   1.891   6.016  12.356
62027SOL     OW87913  11.836   0.591   5.771
62027SOL    HW187914  11.745   0.563   5.771
62027SOL    HW287915  11.832   0.686   5.785
62028SOL     OW87916   8.903   1.707  14.802
62028SOL    HW187917   8.822   1.728  14.848
62028SOL    HW287918   8.972   1.745  14.856
62029SOL     OW87919   8.269   9.014   6.671
62029SOL    HW187920   8.320   8.960   6.731
62029SOL    HW287921   8.184   9.023   6.714
62030SOL     OW87922   3.028  14.808   1.388
62030SOL    HW187923   2.974  14.730   1.404
62030SOL    HW287924   3.062  14.832   1.474
62031SOL     OW87925   3.253   1.193  14.440
62031SOL    HW187926   3.337   1.237  14.448
62031SOL    HW287927   3.191   1.264  14.422
62032SOL     OW87928  11.361   1.974   6.389
62032SOL    HW187929  11.348   1.901   6.449
62032SOL    HW287930  11.287   2.033   6.407
62033SOL     OW87931   7.248   0.559  12.253
62033SOL    HW187932   7.153   0.566  12.262
62033SOL    HW287933   7.280   0.546  12.342
62034SOL     OW87934   2.293   5.327   4.950
62034SOL    HW187935   2.310   5.255   5.011
62034SOL    HW287936   2.201   5.348   4.961
62035SOL     OW87937  12.008   4.497  14.483
62035SOL    HW187938  12.093   4.459  14.459
62035SOL    HW287939  11.962   4.425  14.525
62036SOL     OW87940   2.285   2.527   3.961
62036SOL    HW187941   2.295   2.602   4.019
62036SOL    HW287942   2.368   2.480   3.968
62037SOL     OW87943  14.048  14.844   7.699
62037SOL    HW187944  14.051   0.049   7.744
62037SOL    HW287945  14.045  14.779   7.769
62038SOL     OW87946  10.972  13.677   8.903
62038SOL    HW187947  10.965  13.654   8.995
62038SOL    HW287948  10.943  13.599   8.855
62039SOL     OW87949   3.666   7.204   5.721
62039SOL    HW187950   3.617   7.282   5.696
62039SOL    HW287951   3.732   7.235   5.783
62040SOL     OW87952   9.372   6.284   4.969
62040SOL    HW187953   9.317   6.271   4.892
62040SOL    HW287954   9.341   6.218   5.031
62041SOL     OW87955   5.301   0.241  11.762
62041SOL    HW187956   5.225   0.202  11.806
62041SOL    HW287957   5.373   0.231  11.824
62042SOL     OW87958   4.479   0.820  12.332
62042SOL    HW187959   4.451   0.889  12.391
62042SOL    HW287960   4.516   0.752  12.390
62043SOL     OW87961   2.333   9.373  11.848
62043SOL    HW187962   2.359   9.330  11.929
62043SOL    HW287963   2.416   9.403  11.810
62044SOL     OW87964   4.118   3.210  11.199
62044SOL    HW187965   4.092   3.192  11.109
62044SOL    HW287966   4.040   3.247  11.240
62045SOL     OW87967   4.634  13.595  12.636
62045SOL    HW187968   4.660  13.509  12.668
62045SOL    HW287969   4.543  13.604  12.663
62046SOL     OW87970   6.667   2.810   5.888
62046SOL    HW187971   6.745   2.803   5.943
62046SOL    HW287972   6.635   2.899   5.904
62047SOL     OW87973   7.471   6.774   2.155
62047SOL    HW187974   7.444   6.862   2.130
62047SOL    HW287975   7.565   6.782   2.175
62048SOL     OW87976  12.228  11.467  11.065
62048SOL    HW187977  12.267  11.550  11.091
62048SOL    HW287978  12.300  11.417  11.028
62049SOL     OW87979  12.003   4.584   9.039
62049SOL    HW187980  11.920   4.539   9.025
62049SOL    HW287981  11.982   4.659   9.094
62050SOL     OW87982   3.615   0.265   7.403
62050SOL    HW187983   3.638   0.343   7.453
62050SOL    HW287984   3.677   0.262   7.331
62051SOL     OW87985  13.294   0.380  12.062
62051SOL    HW187986  13.237   0.421  12.128
62051SOL    HW287987  13.250   0.396  11.979
62052SOL     OW87988   1.067   7.056   1.154
62052SOL    HW187989   1.027   7.104   1.082
62052SOL    HW287990   1.119   6.988   1.112
62053SOL     OW87991   6.912   1.108   5.626
62053SOL    HW187992   6.892   1.064   5.543
62053SOL    HW287993   6.916   1.037   5.690
62054SOL     OW87994   9.967   9.741   0.915
62054SOL    HW187995  10.028   9.814   0.924
62054SOL    HW287996   9.942   9.742   0.823
62055SOL     OW87997   2.539  10.107   7.415
62055SOL    HW187998   2.524  10.185   7.362
62055SOL    HW287999   2.451  10.074   7.434
62056SOL     OW88000   8.042  13.545  13.868
62056SOL    HW188001   8.086  13.554  13.953
62056SOL    HW288002   7.958  13.504  13.889
62057SOL     OW88003   9.155  10.353   0.192
62057SOL    HW188004   9.195  10.323   0.110
62057SOL    HW288005   9.216  10.418   0.227
62058SOL     OW88006   3.759   0.973  13.605
62058SOL    HW188007   3.689   1.008  13.660
62058SOL    HW288008   3.715   0.907  13.551
62059SOL     OW88009   1.008   7.685   5.116
62059SOL    HW188010   1.016   7.726   5.030
62059SOL    HW288011   0.940   7.736   5.161
62060SOL     OW88012   6.265   4.737   7.429
62060SOL    HW188013   6.335   4.800   7.443
62060SOL    HW288014   6.201   4.784   7.375
62061SOL     OW88015   0.689  11.484   6.609
62061SOL    HW188016   0.745  11.423   6.656
62061SOL    HW288017   0.627  11.516   6.675
62062SOL     OW88018  13.442  10.060   8.430
62062SOL    HW188019  13.441  10.031   8.521
62062SOL    HW288020  13.351  10.083   8.411
62063SOL     OW88021  10.960   9.111  11.304
62063SOL    HW188022  10.969   9.189  11.249
62063SOL    HW288023  10.989   9.139  11.391
62064SOL     OW88024  13.531  10.307   6.285
62064SOL    HW188025  13.530  10.316   6.190
62064SOL    HW288026  13.615  10.345   6.312
62065SOL     OW88027  13.044   0.344   9.555
62065SOL    HW188028  12.983   0.321   9.485
62065SOL    HW288029  13.130   0.322   9.519
62066SOL     OW88030   5.670   7.405   4.130
62066SOL    HW188031   5.641   7.316   4.148
62066SOL    HW288032   5.596   7.460   4.156
62067SOL     OW88033  11.085  13.824   5.073
62067SOL    HW188034  11.153  13.874   5.029
62067SOL    HW288035  11.009  13.829   5.015
62068SOL     OW88036  13.036  12.272  11.115
62068SOL    HW188037  13.076  12.257  11.201
62068SOL    HW288038  12.973  12.201  11.105
62069SOL     OW88039  12.080   5.238   0.157
62069SOL    HW188040  12.096   5.203   0.069
62069SOL    HW288041  12.041   5.324   0.142
62070SOL     OW88042   4.963   0.853  12.665
62070SOL    HW188043   4.956   0.914  12.592
62070SOL    HW288044   5.029   0.789  12.637
62071SOL     OW88045  11.180   7.113   0.595
62071SOL    HW188046  11.091   7.112   0.560
62071SOL    HW288047  11.185   7.034   0.650
62072SOL     OW88048   9.207  13.980   3.545
62072SOL    HW188049   9.173  13.897   3.514
62072SOL    HW288050   9.300  13.965   3.559
62073SOL     OW88051   2.380   0.873  13.474
62073SOL    HW188052   2.373   0.808  13.544
62073SOL    HW288053   2.422   0.949  13.516
62074SOL     OW88054   9.366   0.761  13.183
62074SOL    HW188055   9.459   0.782  13.173
62074SOL    HW288056   9.325   0.798  13.105
62075SOL     OW88057  10.037  10.009   6.361
62075SOL    HW188058   9.956  10.016   6.411
62075SOL    HW288059  10.046  10.093   6.317
62076SOL     OW88060   5.230   1.546   1.740
62076SOL    HW188061   5.207   1.459   1.771
62076SOL    HW288062   5.209   1.604   1.814
62077SOL     OW88063   6.625   5.217   9.313
62077SOL    HW188064   6.564   5.255   9.249
62077SOL    HW288065   6.706   5.267   9.300
62078SOL     OW88066  12.514   6.979  10.589
62078SOL    HW188067  12.566   7.045  10.636
62078SOL    HW288068  12.577   6.909  10.570
62079SOL     OW88069   4.329   6.353  11.764
62079SOL    HW188070   4.347   6.275  11.711
62079SOL    HW288071   4.301   6.319  11.848
62080SOL     OW88072   5.337   4.289   4.101
62080SOL    HW188073   5.370   4.329   4.021
62080SOL    HW288074   5.329   4.362   4.163
62081SOL     OW88075  12.383   5.427   2.707
62081SOL    HW188076  12.440   5.462   2.639
62081SOL    HW288077  12.435   5.434   2.787
62082SOL     OW88078  11.527   6.147   3.890
62082SOL    HW188079  11.585   6.092   3.837
62082SOL    HW288080  11.526   6.104   3.976
62083SOL     OW88081   6.424   6.965   5.442
62083SOL    HW188082   6.507   6.935   5.406
62083SOL    HW288083   6.379   7.007   5.369
62084SOL     OW88084  11.324  10.035  14.730
62084SOL    HW188085  11.247  10.043  14.786
62084SOL    HW288086  11.350  10.126  14.711
62085SOL     OW88087   0.098   2.552  13.771
62085SOL    HW188088   0.029   2.486  13.780
62085SOL    HW288089   0.052   2.635  13.758
62086SOL     OW88090   4.238  13.132   8.236
62086SOL    HW188091   4.315  13.079   8.256
62086SOL    HW288092   4.198  13.088   8.160
62087SOL     OW88093   9.149   5.131  11.039
62087SOL    HW188094   9.142   5.085  11.123
62087SOL    HW288095   9.084   5.200  11.045
62088SOL     OW88096   9.857   2.083  11.013
62088SOL    HW188097   9.776   2.134  11.010
62088SOL    HW288098   9.849   2.029  11.092
62089SOL     OW88099   7.047   9.302   0.371
62089SOL    HW188100   7.089   9.290   0.285
62089SOL    HW288101   6.994   9.223   0.382
62090SOL     OW88102   5.575   5.435   6.953
62090SOL    HW188103   5.654   5.390   6.982
62090SOL    HW288104   5.605   5.525   6.935
62091SOL     OW88105   9.298   9.021   1.009
62091SOL    HW188106   9.374   9.079   1.009
62091SOL    HW288107   9.224   9.079   0.990
62092SOL     OW88108   5.474   4.435  11.201
62092SOL    HW188109   5.540   4.411  11.136
62092SOL    HW288110   5.466   4.358  11.257
62093SOL     OW88111   0.073  12.691   7.427
62093SOL    HW188112   0.094  12.768   7.375
62093SOL    HW288113   0.098  12.617   7.372
62094SOL     OW88114   1.103   8.180   6.376
62094SOL    HW188115   1.079   8.089   6.362
62094SOL    HW288116   1.043   8.210   6.444
62095SOL     OW88117  10.376   3.648  10.473
62095SOL    HW188118  10.471   3.656  10.464
62095SOL    HW288119  10.356   3.684  10.559
62096SOL     OW88120   4.574   7.773   6.035
62096SOL    HW188121   4.661   7.737   6.019
62096SOL    HW288122   4.578   7.863   6.001
62097SOL     OW88123   2.706   9.441   3.670
62097SOL    HW188124   2.618   9.479   3.680
62097SOL    HW288125   2.758   9.485   3.738
62098SOL     OW88126   9.187  11.587   6.163
62098SOL    HW188127   9.245  11.541   6.223
62098SOL    HW288128   9.233  11.668   6.142
62099SOL     OW88129   2.704   0.660   3.689
62099SOL    HW188130   2.669   0.573   3.705
62099SOL    HW288131   2.760   0.650   3.612
62100SOL     OW88132   3.599  12.836   6.792
62100SOL    HW188133   3.653  12.766   6.756
62100SOL    HW288134   3.662  12.901   6.823
62101SOL     OW88135  10.613  13.895   0.691
62101SOL    HW188136  10.585  13.983   0.717
62101SOL    HW288137  10.535  13.856   0.651
62102SOL     OW88138   0.106   7.371   5.368
62102SOL    HW188139   0.136   7.281   5.372
62102SOL    HW288140   0.170   7.421   5.418
62103SOL     OW88141   6.435   6.863   8.266
62103SOL    HW188142   6.502   6.891   8.328
62103SOL    HW288143   6.416   6.942   8.214
62104SOL     OW88144   2.021  10.395  11.789
62104SOL    HW188145   2.063  10.386  11.704
62104SOL    HW288146   2.011  10.489  11.802
62105SOL     OW88147  10.980   1.760   7.087
62105SOL    HW188148  11.009   1.813   7.161
62105SOL    HW288149  10.903   1.806   7.053
62106SOL     OW88150   7.043  14.021   0.662
62106SOL    HW188151   7.016  13.968   0.588
62106SOL    HW288152   7.127  14.059   0.636
62107SOL     OW88153   4.337   7.348   7.151
62107SOL    HW188154   4.354   7.380   7.240
62107SOL    HW288155   4.371   7.258   7.151
62108SOL     OW88156  14.140   2.934   6.860
62108SOL    HW188157  14.136   2.849   6.817
62108SOL    HW288158  14.204   2.922   6.930
62109SOL     OW88159   5.887   4.570   0.975
62109SOL    HW188160   5.797   4.586   0.947
62109SOL    HW288161   5.887   4.594   1.068
62110SOL     OW88162   7.998   7.074   9.241
62110SOL    HW188163   7.963   7.090   9.329
62110SOL    HW288164   7.940   7.008   9.203
62111SOL     OW88165   6.932   2.692   7.879
62111SOL    HW188166   6.853   2.668   7.832
62111SOL    HW288167   6.963   2.609   7.917
62112SOL     OW88168  14.635   8.927   5.412
62112SOL    HW188169  14.647   9.009   5.365
62112SOL    HW288170  14.549   8.896   5.385
62113SOL     OW88171  14.282  11.413  12.150
62113SOL    HW188172  14.218  11.373  12.091
62113SOL    HW288173  14.289  11.350  12.223
62114SOL     OW88174  12.542   1.315   4.583
62114SOL    HW188175  12.602   1.388   4.570
62114SOL    HW288176  12.475   1.349   4.642
62115SOL     OW88177  10.701  14.502  11.839
62115SOL    HW188178  10.702  14.438  11.768
62115SOL    HW288179  10.685  14.450  11.918
62116SOL     OW88180   2.912  10.323  14.735
62116SOL    HW188181   2.908  10.335  14.830
62116SOL    HW288182   2.849  10.254  14.716
62117SOL     OW88183   8.182   5.485   8.429
62117SOL    HW188184   8.150   5.536   8.503
62117SOL    HW288185   8.247   5.541   8.387
62118SOL     OW88186   7.398  12.080   3.522
62118SOL    HW188187   7.323  12.055   3.575
62118SOL    HW288188   7.363  12.146   3.461
62119SOL     OW88189   4.324   0.698  11.941
62119SOL    HW188190   4.401   0.737  11.899
62119SOL    HW288191   4.334   0.720  12.033
62120SOL     OW88192   1.168   0.012  12.529
62120SOL    HW188193   1.172  14.798  12.508
62120SOL    HW288194   1.109   0.017  12.604
62121SOL     OW88195   0.272   0.786   5.323
62121SOL    HW188196   0.237   0.737   5.398
62121SOL    HW288197   0.308   0.866   5.362
62122SOL     OW88198   3.202   9.700  12.044
62122SOL    HW188199   3.187   9.621  12.096
62122SOL    HW288200   3.292   9.725  12.063
62123SOL     OW88201   4.490   3.756  10.725
62123SOL    HW188202   4.518   3.781  10.637
62123SOL    HW288203   4.453   3.837  10.761
62124SOL     OW88204  11.277   9.961   7.867
62124SOL    HW188205  11.228   9.984   7.946
62124SOL    HW288206  11.353   9.913   7.900
62125SOL     OW88207  12.726   0.816   1.735
62125SOL    HW188208  12.641   0.860   1.733
62125SOL    HW288209  12.781   0.873   1.789
62126SOL     OW88210   7.609  10.333   0.148
62126SOL    HW188211   7.698  10.301   0.163
62126SOL    HW288212   7.555  10.282   0.207
62127SOL     OW88213  12.844  14.851  10.211
62127SOL    HW188214  12.766   0.026  10.206
62127SOL    HW288215  12.812  14.761  10.198
62128SOL     OW88216   1.706   2.066  11.580
62128SOL    HW188217   1.757   1.985  11.567
62128SOL    HW288218   1.619   2.035  11.604
62129SOL     OW88219   9.715   6.331   6.682
62129SOL    HW188220   9.802   6.334   6.722
62129SOL    HW288221   9.731   6.298   6.593
62130SOL     OW88222   1.622  12.017   3.332
62130SOL    HW188223   1.551  12.053   3.384
62130SOL    HW288224   1.659  11.947   3.385
62131SOL     OW88225  10.595   4.245  13.098
62131SOL    HW188226  10.637   4.316  13.050
62131SOL    HW288227  10.505   4.274  13.112
62132SOL     OW88228   4.446  10.078  13.161
62132SOL    HW188229   4.498  10.094  13.082
62132SOL    HW288230   4.357  10.103  13.136
62133SOL     OW88231  12.179   8.943   8.553
62133SOL    HW188232  12.105   8.940   8.493
62133SOL    HW288233  12.144   8.913   8.637
62134SOL     OW88234   1.386   4.271   4.497
62134SOL    HW188235   1.305   4.248   4.542
62134SOL    HW288236   1.430   4.332   4.557
62135SOL     OW88237   8.115   5.456  11.668
62135SOL    HW188238   8.119   5.374  11.717
62135SOL    HW288239   8.149   5.522  11.728
62136SOL     OW88240   4.633   6.944  13.892
62136SOL    HW188241   4.688   6.868  13.872
62136SOL    HW288242   4.657   7.008  13.825
62137SOL     OW88243   6.429   2.705   1.403
62137SOL    HW188244   6.412   2.785   1.353
62137SOL    HW288245   6.512   2.673   1.369
62138SOL     OW88246  12.918  13.528  12.535
62138SOL    HW188247  12.906  13.433  12.531
62138SOL    HW288248  12.951  13.544  12.623
62139SOL     OW88249   5.539   9.069  11.478
62139SOL    HW188250   5.520   9.033  11.564
62139SOL    HW288251   5.458   9.111  11.450
62140SOL     OW88252  13.489   5.841   4.853
62140SOL    HW188253  13.396   5.851   4.876
62140SOL    HW288254  13.534   5.899   4.915
62141SOL     OW88255   6.352   5.326   3.729
62141SOL    HW188256   6.378   5.247   3.776
62141SOL    HW288257   6.306   5.378   3.794
62142SOL     OW88258   8.112   0.091  10.843
62142SOL    HW188259   8.153   0.089  10.757
62142SOL    HW288260   8.074   0.004  10.853
62143SOL     OW88261  10.529   0.436  10.187
62143SOL    HW188262  10.606   0.493  10.176
62143SOL    HW288263  10.492   0.429  10.099
62144SOL     OW88264  12.506   0.310   9.484
62144SOL    HW188265  12.579   0.248   9.477
62144SOL    HW288266  12.430   0.255   9.502
62145SOL     OW88267  11.820   4.131   7.165
62145SOL    HW188268  11.830   4.161   7.255
62145SOL    HW288269  11.739   4.081   7.165
62146SOL     OW88270   6.280   3.069  10.849
62146SOL    HW188271   6.265   3.148  10.797
62146SOL    HW288272   6.364   3.084  10.893
62147SOL     OW88273   3.116  14.108   4.620
62147SOL    HW188274   3.053  14.164   4.664
62147SOL    HW288275   3.063  14.050   4.565
62148SOL     OW88276  13.133   4.806   4.138
62148SOL    HW188277  13.102   4.812   4.048
62148SOL    HW288278  13.054   4.806   4.192
62149SOL     OW88279   9.324   5.293  13.178
62149SOL    HW188280   9.258   5.227  13.199
62149SOL    HW288281   9.303   5.368  13.234
62150SOL     OW88282   0.054  13.601  14.561
62150SOL    HW188283  14.845  13.620  14.594
62150SOL    HW288284   0.112  13.654  14.615
62151SOL     OW88285   9.122  12.135   5.410
62151SOL    HW188286   9.122  12.152   5.315
62151SOL    HW288287   9.072  12.208   5.447
62152SOL     OW88288  10.810   0.680   2.060
62152SOL    HW188289  10.832   0.588   2.072
62152SOL    HW288290  10.735   0.679   2.000
62153SOL     OW88291  13.062   0.856  13.641
62153SOL    HW188292  13.031   0.807  13.565
62153SOL    HW288293  13.017   0.940  13.635
62154SOL     OW88294   9.327  13.870  11.266
62154SOL    HW188295   9.397  13.806  11.278
62154SOL    HW288296   9.298  13.857  11.176
62155SOL     OW88297   3.545   5.437  11.131
62155SOL    HW188298   3.484   5.501  11.168
62155SOL    HW288299   3.526   5.355  11.177
62156SOL     OW88300   6.770   6.770  14.614
62156SOL    HW188301   6.855   6.734  14.639
62156SOL    HW288302   6.761   6.850  14.665
62157SOL     OW88303   5.709  11.352  11.726
62157SOL    HW188304   5.739  11.272  11.684
62157SOL    HW288305   5.787  11.409  11.727
62158SOL     OW88306  11.368   7.937   7.769
62158SOL    HW188307  11.454   7.979   7.779
62158SOL    HW288308  11.318   7.967   7.845
62159SOL     OW88309   5.096   2.068   4.088
62159SOL    HW188310   5.014   2.019   4.095
62159SOL    HW288311   5.120   2.060   3.996
62160SOL     OW88312   1.714  11.165   9.187
62160SOL    HW188313   1.691  11.255   9.209
62160SOL    HW288314   1.798  11.149   9.231
62161SOL     OW88315   0.970  12.437  13.819
62161SOL    HW188316   0.879  12.427  13.850
62161SOL    HW288317   1.015  12.359  13.851
62162SOL     OW88318  13.137  11.051   2.355
62162SOL    HW188319  13.121  10.978   2.296
62162SOL    HW288320  13.165  11.122   2.298
62163SOL     OW88321  13.220   8.986  13.879
62163SOL    HW188322  13.263   8.957  13.960
62163SOL    HW288323  13.159   8.916  13.858
62164SOL     OW88324   0.387   4.789  12.701
62164SOL    HW188325   0.394   4.882  12.681
62164SOL    HW288326   0.370   4.748  12.616
62165SOL     OW88327  10.299  14.307   8.885
62165SOL    HW188328  10.317  14.290   8.977
62165SOL    HW288329  10.332  14.229   8.840
62166SOL     OW88330   6.868   0.776   4.750
62166SOL    HW188331   6.806   0.751   4.819
62166SOL    HW288332   6.839   0.864   4.722
62167SOL     OW88333   6.311   6.612   5.225
62167SOL    HW188334   6.376   6.671   5.187
62167SOL    HW288335   6.298   6.544   5.159
62168SOL     OW88336  13.904  10.136   2.417
62168SOL    HW188337  13.970  10.130   2.486
62168SOL    HW288338  13.954  10.151   2.337
62169SOL     OW88339   4.780   6.761   1.308
62169SOL    HW188340   4.875   6.767   1.301
62169SOL    HW288341   4.751   6.850   1.329
62170SOL     OW88342   5.106   2.990   0.052
62170SOL    HW188343   5.144   2.933  14.864
62170SOL    HW288344   5.059   3.057   0.002
62171SOL     OW88345   5.387   4.345   3.839
62171SOL    HW188346   5.383   4.433   3.876
62171SOL    HW288347   5.478   4.335   3.810
62172SOL     OW88348  12.243   7.355   9.335
62172SOL    HW188349  12.180   7.412   9.292
62172SOL    HW288350  12.282   7.303   9.265
62173SOL     OW88351  14.222   1.584  12.235
62173SOL    HW188352  14.291   1.570  12.300
62173SOL    HW288353  14.235   1.513  12.171
62174SOL     OW88354  10.198   4.161   1.882
62174SOL    HW188355  10.261   4.128   1.947
62174SOL    HW288356  10.185   4.252   1.906
62175SOL     OW88357   7.145   5.081   4.599
62175SOL    HW188358   7.132   5.167   4.559
62175SOL    HW288359   7.222   5.092   4.655
62176SOL     OW88360  10.304   5.756  12.397
62176SOL    HW188361  10.230   5.718  12.443
62176SOL    HW288362  10.318   5.698  12.323
62177SOL     OW88363   2.415   9.301  10.941
62177SOL    HW188364   2.386   9.384  10.903
62177SOL    HW288365   2.385   9.305  11.032
62178SOL     OW88366   1.232  14.858   3.424
62178SOL    HW188367   1.155  14.805   3.407
62178SOL    HW288368   1.203   0.069   3.411
62179SOL     OW88369   9.003   2.364  14.792
62179SOL    HW188370   8.958   2.344  14.874
62179SOL    HW288371   8.933   2.393  14.733
62180SOL     OW88372   5.023   4.301  10.505
62180SOL    HW188373   4.933   4.303  10.471
62180SOL    HW288374   5.078   4.313  10.428
62181SOL     OW88375  12.935   3.163   4.792
62181SOL    HW188376  12.977   3.208   4.865
62181SOL    HW288377  12.930   3.228   4.722
62182SOL     OW88378   4.893  14.583   9.047
62182SOL    HW188379   4.841  14.555   9.122
62182SOL    HW288380   4.965  14.520   9.042
62183SOL     OW88381   2.938  14.164  11.797
62183SOL    HW188382   2.987  14.082  11.798
62183SOL    HW288383   2.851  14.140  11.829
62184SOL     OW88384   0.442  10.524   8.561
62184SOL    HW188385   0.460  10.448   8.617
62184SOL    HW288386   0.478  10.598   8.609
62185SOL     OW88387  11.295   4.021   5.305
62185SOL    HW188388  11.231   3.963   5.347
62185SOL    HW288389  11.374   4.013   5.359
62186SOL     OW88390  12.485   7.217   7.360
62186SOL    HW188391  12.464   7.125   7.338
62186SOL    HW288392  12.402   7.253   7.392
62187SOL     OW88393   4.737   7.963   0.289
62187SOL    HW188394   4.827   7.948   0.259
62187SOL    HW288395   4.736   8.055   0.316
62188SOL     OW88396   3.825   2.581   4.189
62188SOL    HW188397   3.746   2.539   4.154
62188SOL    HW288398   3.895   2.551   4.132
62189SOL     OW88399   7.386   4.551   2.579
62189SOL    HW188400   7.448   4.484   2.554
62189SOL    HW288401   7.361   4.593   2.497
62190SOL     OW88402   0.852   8.479   2.251
62190SOL    HW188403   0.779   8.536   2.275
62190SOL    HW288404   0.866   8.424   2.328
62191SOL     OW88405   1.070   9.326  13.910
62191SOL    HW188406   1.123   9.382  13.966
62191SOL    HW288407   1.015   9.276  13.971
62192SOL     OW88408   3.111   0.349   9.571
62192SOL    HW188409   3.192   0.360   9.620
62192SOL    HW288410   3.110   0.256   9.548
62193SOL     OW88411   4.702   9.988  10.562
62193SOL    HW188412   4.735   9.953  10.645
62193SOL    HW288413   4.763  10.058  10.539
62194SOL     OW88414   6.573  11.974   5.218
62194SOL    HW188415   6.577  12.031   5.142
62194SOL    HW288416   6.644  12.005   5.275
62195SOL     OW88417   8.196   7.342  10.877
62195SOL    HW188418   8.214   7.382  10.792
62195SOL    HW288419   8.243   7.258  10.874
62196SOL     OW88420   8.900  13.580  11.539
62196SOL    HW188421   8.882  13.669  11.569
62196SOL    HW288422   8.886  13.582  11.445
62197SOL     OW88423  12.615   5.088   5.889
62197SOL    HW188424  12.604   5.175   5.850
62197SOL    HW288425  12.690   5.097   5.947
62198SOL     OW88426  13.076  13.443  11.343
62198SOL    HW188427  13.003  13.422  11.284
62198SOL    HW288428  13.133  13.500  11.291
62199SOL     OW88429  12.956  12.848  11.218
62199SOL    HW188430  13.032  12.887  11.261
62199SOL    HW288431  12.966  12.753  11.232
62200SOL     OW88432   9.239  14.773  13.689
62200SOL    HW188433   9.327  14.779  13.725
62200SOL    HW288434   9.194  14.850  13.725
62201SOL     OW88435  11.782   8.208   0.895
62201SOL    HW188436  11.810   8.297   0.874
62201SOL    HW288437  11.696   8.200   0.853
62202SOL     OW88438  14.852  12.884   3.276
62202SOL    HW188439  14.768  12.913   3.241
62202SOL    HW288440  14.854  12.790   3.260
62203SOL     OW88441  11.088   6.752   5.265
62203SOL    HW188442  11.019   6.714   5.320
62203SOL    HW288443  11.061   6.843   5.253
62204SOL     OW88444  10.335   6.262   6.448
62204SOL    HW188445  10.429   6.281   6.445
62204SOL    HW288446  10.307   6.292   6.534
62205SOL     OW88447  10.291   3.207   5.633
62205SOL    HW188448  10.229   3.245   5.571
62205SOL    HW288449  10.303   3.275   5.700
62206SOL     OW88450  14.419   9.171   6.153
62206SOL    HW188451  14.432   9.135   6.241
62206SOL    HW288452  14.458   9.107   6.095
62207SOL     OW88453   0.272  13.203   8.163
62207SOL    HW188454   0.214  13.269   8.203
62207SOL    HW288455   0.316  13.250   8.092
62208SOL     OW88456   2.079   0.861   1.205
62208SOL    HW188457   1.984   0.861   1.219
62208SOL    HW288458   2.097   0.944   1.163
62209SOL     OW88459   8.053   9.467   0.928
62209SOL    HW188460   8.004   9.534   0.881
62209SOL    HW288461   8.140   9.467   0.887
62210SOL     OW88462   9.237   6.292   4.280
62210SOL    HW188463   9.141   6.291   4.276
62210SOL    HW288464   9.265   6.251   4.198
62211SOL     OW88465  11.115  10.737  14.357
62211SOL    HW188466  11.156  10.705  14.277
62211SOL    HW288467  11.038  10.682  14.370
62212SOL     OW88468   9.977   9.402  14.470
62212SOL    HW188469   9.973   9.353  14.388
62212SOL    HW288470  10.040   9.472  14.453
62213SOL     OW88471   9.104   5.815  14.377
62213SOL    HW188472   9.074   5.777  14.459
62213SOL    HW288473   9.063   5.762  14.309
62214SOL     OW88474  12.214   9.336   0.015
62214SOL    HW188475  12.289   9.306  14.843
62214SOL    HW288476  12.147   9.268   0.002
62215SOL     OW88477  12.734   5.456   0.416
62215SOL    HW188478  12.731   5.506   0.334
62215SOL    HW288479  12.691   5.373   0.395
62216SOL     OW88480  13.883  14.355   1.020
62216SOL    HW188481  13.944  14.308   1.077
62216SOL    HW288482  13.854  14.430   1.072
62217SOL     OW88483   6.836   8.365  13.853
62217SOL    HW188484   6.824   8.416  13.933
62217SOL    HW288485   6.812   8.425  13.782
62218SOL     OW88486   0.187   9.406   6.217
62218SOL    HW188487   0.163   9.323   6.175
62218SOL    HW288488   0.209   9.465   6.145
62219SOL     OW88489   6.340   3.115   7.260
62219SOL    HW188490   6.344   3.210   7.249
62219SOL    HW288491   6.428   3.091   7.287
62220SOL     OW88492  11.657  11.048   5.771
62220SOL    HW188493  11.584  10.995   5.804
62220SOL    HW288494  11.712  11.064   5.848
62221SOL     OW88495   1.532  14.224   4.816
62221SOL    HW188496   1.527  14.268   4.731
62221SOL    HW288497   1.550  14.132   4.793
62222SOL     OW88498  13.279   2.780  10.379
62222SOL    HW188499  13.235   2.789  10.294
62222SOL    HW288500  13.368   2.754  10.357
62223SOL     OW88501  14.675   0.811  11.344
62223SOL    HW188502  14.638   0.876  11.283
62223SOL    HW288503  14.599   0.771  11.386
62224SOL     OW88504   1.673   4.178   1.925
62224SOL    HW188505   1.586   4.209   1.900
62224SOL    HW288506   1.656   4.105   1.985
62225SOL     OW88507   9.029  10.693   2.489
62225SOL    HW188508   8.964  10.658   2.550
62225SOL    HW288509   9.045  10.782   2.519
62226SOL     OW88510  10.207   2.230   9.396
62226SOL    HW188511  10.241   2.319   9.389
62226SOL    HW288512  10.275   2.181   9.442
62227SOL     OW88513   1.177  12.604  12.835
62227SOL    HW188514   1.273  12.598  12.831
62227SOL    HW288515   1.147  12.514  12.839
62228SOL     OW88516   0.207   8.695  14.323
62228SOL    HW188517   0.139   8.635  14.291
62228SOL    HW288518   0.253   8.645  14.390
62229SOL     OW88519  12.930  14.785   0.200
62229SOL    HW188520  12.916  14.755   0.290
62229SOL    HW288521  12.893  14.874   0.198
62230SOL     OW88522  14.255   8.481  11.896
62230SOL    HW188523  14.322   8.515  11.838
62230SOL    HW288524  14.189   8.443  11.838
62231SOL     OW88525   0.741   7.910  14.396
62231SOL    HW188526   0.824   7.894  14.442
62231SOL    HW288527   0.675   7.868  14.451
62232SOL     OW88528   8.976  11.986   6.296
62232SOL    HW188529   8.940  11.899   6.278
62232SOL    HW288530   8.945  12.040   6.224
62233SOL     OW88531  10.531   2.407   2.783
62233SOL    HW188532  10.601   2.345   2.802
62233SOL    HW288533  10.565   2.492   2.812
62234SOL     OW88534   8.773   4.922  12.997
62234SOL    HW188535   8.792   4.831  13.017
62234SOL    HW288536   8.700   4.944  13.054
62235SOL     OW88537   4.592  10.814   5.437
62235SOL    HW188538   4.668  10.867   5.461
62235SOL    HW288539   4.545  10.868   5.373
62236SOL     OW88540   5.486   5.463   4.531
62236SOL    HW188541   5.528   5.439   4.448
62236SOL    HW288542   5.485   5.381   4.582
62237SOL     OW88543  13.343   1.730   7.219
62237SOL    HW188544  13.425   1.726   7.268
62237SOL    HW288545  13.299   1.647   7.238
62238SOL     OW88546  10.710   6.174   0.715
62238SOL    HW188547  10.682   6.088   0.744
62238SOL    HW288548  10.742   6.160   0.625
62239SOL     OW88549  11.478   2.852  13.753
62239SOL    HW188550  11.427   2.889  13.825
62239SOL    HW288551  11.560   2.902  13.753
62240SOL     OW88552   5.728   5.615   6.616
62240SOL    HW188553   5.729   5.520   6.619
62240SOL    HW288554   5.768   5.637   6.532
62241SOL     OW88555   7.774  12.865  10.803
62241SOL    HW188556   7.801  12.949  10.840
62241SOL    HW288557   7.814  12.864  10.716
62242SOL     OW88558   4.504   5.615  11.442
62242SOL    HW188559   4.564   5.675  11.488
62242SOL    HW288560   4.439   5.591  11.508
62243SOL     OW88561  13.819   7.976   0.664
62243SOL    HW188562  13.849   7.887   0.647
62243SOL    HW288563  13.821   7.985   0.759
62244SOL     OW88564   9.799   8.305   4.424
62244SOL    HW188565   9.846   8.333   4.345
62244SOL    HW288566   9.714   8.348   4.416
62245SOL     OW88567   3.544   7.229  13.641
62245SOL    HW188568   3.589   7.156  13.599
62245SOL    HW288569   3.451   7.212  13.627
62246SOL     OW88570  12.944   1.963   7.035
62246SOL    HW188571  12.911   1.886   6.989
62246SOL    HW288572  13.027   1.983   6.992
62247SOL     OW88573   9.086  14.113  12.412
62247SOL    HW188574   9.142  14.177  12.369
62247SOL    HW288575   9.002  14.158  12.424
62248SOL     OW88576   2.772   3.271   7.791
62248SOL    HW188577   2.776   3.197   7.730
62248SOL    HW288578   2.754   3.231   7.876
62249SOL     OW88579  11.187  13.853  10.432
62249SOL    HW188580  11.281  13.848  10.447
62249SOL    HW288581  11.152  13.896  10.510
62250SOL     OW88582  12.685   9.547   1.750
62250SOL    HW188583  12.645   9.610   1.689
62250SOL    HW288584  12.706   9.599   1.828
62251SOL     OW88585   4.471   3.177  11.023
62251SOL    HW188586   4.497   3.239  10.955
62251SOL    HW288587   4.431   3.231  11.092
62252SOL     OW88588   8.960   6.522   9.091
62252SOL    HW188589   8.888   6.579   9.065
62252SOL    HW288590   8.974   6.466   9.015
62253SOL     OW88591   4.138   7.004   8.384
62253SOL    HW188592   4.182   6.920   8.394
62253SOL    HW288593   4.187   7.064   8.440
62254SOL     OW88594   4.506   5.149  14.371
62254SOL    HW188595   4.499   5.245  14.371
62254SOL    HW288596   4.594   5.131  14.338
62255SOL     OW88597   7.361  10.236   1.946
62255SOL    HW188598   7.402  10.194   2.022
62255SOL    HW288599   7.362  10.169   1.878
62256SOL     OW88600   2.258   0.918   1.434
62256SOL    HW188601   2.288   0.840   1.386
62256SOL    HW288602   2.284   0.901   1.525
62257SOL     OW88603  13.519   9.032   9.399
62257SOL    HW188604  13.506   9.013   9.492
62257SOL    HW288605  13.449   9.094   9.378
62258SOL     OW88606   5.567   9.304   1.643
62258SOL    HW188607   5.583   9.246   1.569
62258SOL    HW288608   5.654   9.321   1.679
62259SOL     OW88609   6.294  14.524  14.369
62259SOL    HW188610   6.314  14.466  14.443
62259SOL    HW288611   6.292  14.612  14.407
62260SOL     OW88612   5.510   9.016   5.677
62260SOL    HW188613   5.541   8.952   5.741
62260SOL    HW288614   5.511   9.099   5.724
62261SOL     OW88615   5.771   4.356   4.107
62261SOL    HW188616   5.747   4.327   4.195
62261SOL    HW288617   5.697   4.410   4.079
62262SOL     OW88618   6.707   6.471   3.981
62262SOL    HW188619   6.778   6.410   3.999
62262SOL    HW288620   6.627   6.419   3.994
62263SOL     OW88621   6.959   6.109   2.103
62263SOL    HW188622   6.999   6.125   2.018
62263SOL    HW288623   6.924   6.194   2.130
62264SOL     OW88624   9.616   7.160  10.840
62264SOL    HW188625   9.598   7.175  10.933
62264SOL    HW288626   9.697   7.108  10.840
62265SOL     OW88627   8.912   9.744  12.458
62265SOL    HW188628   8.852   9.704  12.521
62265SOL    HW288629   8.854   9.788  12.395
62266SOL     OW88630   5.408   5.159   2.704
62266SOL    HW188631   5.475   5.139   2.639
62266SOL    HW288632   5.384   5.074   2.741
62267SOL     OW88633   3.004   1.146   3.639
62267SOL    HW188634   3.015   1.232   3.678
62267SOL    HW288635   3.090   1.104   3.649
62268SOL     OW88636   3.704  13.944   0.990
62268SOL    HW188637   3.744  13.859   0.970
62268SOL    HW288638   3.756  14.007   0.941
62269SOL     OW88639  11.732   6.195   4.894
62269SOL    HW188640  11.647   6.169   4.930
62269SOL    HW288641  11.750   6.130   4.826
62270SOL     OW88642   1.084   7.574  14.705
62270SOL    HW188643   1.128   7.523  14.773
62270SOL    HW288644   1.075   7.662  14.742
62271SOL     OW88645   9.687   6.101   6.051
62271SOL    HW188646   9.662   6.017   6.088
62271SOL    HW288647   9.684   6.088   5.956
62272SOL     OW88648   3.302  13.411   2.308
62272SOL    HW188649   3.305  13.505   2.328
62272SOL    HW288650   3.289  13.407   2.213
62273SOL     OW88651   3.031  10.171   6.493
62273SOL    HW188652   3.108  10.120   6.519
62273SOL    HW288653   2.961  10.138   6.550
62274SOL     OW88654   7.639  12.769  14.370
62274SOL    HW188655   7.680  12.814  14.296
62274SOL    HW288656   7.617  12.682  14.336
62275SOL     OW88657  10.069  14.530   2.648
62275SOL    HW188658   9.980  14.496   2.648
62275SOL    HW288659  10.102  14.510   2.736
62276SOL     OW88660   2.815  10.046   8.841
62276SOL    HW188661   2.867  10.125   8.857
62276SOL    HW288662   2.834  10.022   8.750
62277SOL     OW88663  14.278   9.258   7.444
62277SOL    HW188664  14.365   9.217   7.444
62277SOL    HW288665  14.227   9.206   7.506
62278SOL     OW88666  12.055   2.067  10.883
62278SOL    HW188667  11.962   2.086  10.900
62278SOL    HW288668  12.073   1.988  10.933
62279SOL     OW88669  13.234  11.296   7.432
62279SOL    HW188670  13.325  11.264   7.424
62279SOL    HW288671  13.210  11.323   7.344
62280SOL     OW88672  10.472   5.108   0.075
62280SOL    HW188673  10.440   5.141  14.870
62280SOL    HW288674  10.564   5.133   0.077
62281SOL     OW88675   7.197  13.235   3.219
62281SOL    HW188676   7.128  13.171   3.203
62281SOL    HW288677   7.244  13.242   3.136
62282SOL     OW88678  14.836   7.182   0.857
62282SOL    HW188679  14.766   7.176   0.922
62282SOL    HW288680   0.036   7.202   0.907
62283SOL     OW88681   3.597   8.757   5.715
62283SOL    HW188682   3.650   8.739   5.637
62283SOL    HW288683   3.658   8.749   5.788
62284SOL     OW88684   3.720  14.751   5.360
62284SOL    HW188685   3.785  14.714   5.420
62284SOL    HW288686   3.746  14.717   5.274
62285SOL     OW88687   5.148  12.651   4.951
62285SOL    HW188688   5.240  12.674   4.963
62285SOL    HW288689   5.120  12.621   5.037
62286SOL     OW88690   6.833   8.460   6.308
62286SOL    HW188691   6.894   8.387   6.292
62286SOL    HW288692   6.880   8.517   6.368
62287SOL     OW88693  11.323   7.264   3.085
62287SOL    HW188694  11.323   7.312   3.002
62287SOL    HW288695  11.397   7.300   3.133
62288SOL     OW88696   1.631   0.455   3.058
62288SOL    HW188697   1.669   0.409   3.133
62288SOL    HW288698   1.665   0.544   3.064
62289SOL     OW88699   1.772   9.258   5.464
62289SOL    HW188700   1.766   9.317   5.539
62289SOL    HW288701   1.681   9.242   5.439
62290SOL     OW88702   6.508   4.287  11.453
62290SOL    HW188703   6.446   4.219  11.424
62290SOL    HW288704   6.560   4.306  11.375
62291SOL     OW88705   5.146   3.098   7.457
62291SOL    HW188706   5.119   3.185   7.485
62291SOL    HW288707   5.224   3.114   7.403
62292SOL     OW88708   7.560   1.350   2.950
62292SOL    HW188709   7.551   1.272   3.005
62292SOL    HW288710   7.655   1.360   2.939
62293SOL     OW88711  11.679   3.422  11.165
62293SOL    HW188712  11.654   3.411  11.257
62293SOL    HW288713  11.632   3.352  11.119
62294SOL     OW88714   7.426   0.444   1.569
62294SOL    HW188715   7.410   0.450   1.475
62294SOL    HW288716   7.457   0.531   1.594
62295SOL     OW88717  11.048   1.850   8.057
62295SOL    HW188718  11.022   1.781   7.997
62295SOL    HW288719  11.142   1.859   8.044
62296SOL     OW88720   3.120   7.649   8.697
62296SOL    HW188721   3.210   7.629   8.723
62296SOL    HW288722   3.129   7.712   8.626
62297SOL     OW88723   7.692  12.513  13.161
62297SOL    HW188724   7.630  12.541  13.093
62297SOL    HW288725   7.714  12.593  13.209
62298SOL     OW88726   5.344  12.413   8.418
62298SOL    HW188727   5.272  12.349   8.425
62298SOL    HW288728   5.320  12.467   8.343
62299SOL     OW88729  10.925   6.493   1.631
62299SOL    HW188730  10.978   6.523   1.557
62299SOL    HW288731  10.989   6.479   1.701
62300SOL     OW88732   3.774   2.342   1.309
62300SOL    HW188733   3.750   2.323   1.400
62300SOL    HW288734   3.691   2.348   1.263
62301SOL     OW88735   0.624   5.267   4.382
62301SOL    HW188736   0.626   5.360   4.359
62301SOL    HW288737   0.534   5.240   4.367
62302SOL     OW88738   2.541   4.570   0.864
62302SOL    HW188739   2.488   4.607   0.934
62302SOL    HW288740   2.533   4.633   0.792
62303SOL     OW88741   1.480  13.439   9.400
62303SOL    HW188742   1.535  13.513   9.371
62303SOL    HW288743   1.533  13.362   9.383
62304SOL     OW88744  14.317   3.518   4.182
62304SOL    HW188745  14.389   3.535   4.121
62304SOL    HW288746  14.355   3.537   4.268
62305SOL     OW88747   6.648   1.613   1.853
62305SOL    HW188748   6.735   1.582   1.827
62305SOL    HW288749   6.623   1.675   1.785
62306SOL     OW88750   3.887   2.926   0.867
62306SOL    HW188751   3.810   2.972   0.900
62306SOL    HW288752   3.962   2.978   0.897
62307SOL     OW88753  14.760   1.147  13.457
62307SOL    HW188754  14.817   1.111  13.525
62307SOL    HW288755  14.679   1.098  13.465
62308SOL     OW88756  13.149   6.675   8.330
62308SOL    HW188757  13.140   6.614   8.257
62308SOL    HW288758  13.185   6.622   8.401
62309SOL     OW88759   8.608   6.596   9.934
62309SOL    HW188760   8.546   6.556   9.995
62309SOL    HW288761   8.592   6.551   9.851
62310SOL     OW88762  12.316  13.847  12.833
62310SOL    HW188763  12.390  13.793  12.858
62310SOL    HW288764  12.340  13.936  12.861
62311SOL     OW88765   1.373   4.509  13.537
62311SOL    HW188766   1.352   4.462  13.457
62311SOL    HW288767   1.336   4.597  13.523
62312SOL     OW88768   8.135  12.015  14.108
62312SOL    HW188769   8.224  12.043  14.091
62312SOL    HW288770   8.135  11.921  14.088
62313SOL     OW88771   9.834   4.924  11.623
62313SOL    HW188772   9.807   4.832  11.631
62313SOL    HW288773   9.865   4.932  11.533
62314SOL     OW88774   3.230   1.948   4.841
62314SOL    HW188775   3.297   2.006   4.878
62314SOL    HW288776   3.203   1.893   4.914
62315SOL     OW88777  13.438  10.654  14.179
62315SOL    HW188778  13.505  10.603  14.133
62315SOL    HW288779  13.391  10.699  14.109
62316SOL     OW88780  13.010   0.498   8.712
62316SOL    HW188781  12.974   0.431   8.654
62316SOL    HW288782  12.938   0.519   8.772
62317SOL     OW88783   6.894  11.584   2.068
62317SOL    HW188784   6.890  11.522   2.141
62317SOL    HW288785   6.971  11.639   2.087
62318SOL     OW88786   9.581  11.458  12.714
62318SOL    HW188787   9.610  11.388  12.655
62318SOL    HW288788   9.661  11.502  12.740
62319SOL     OW88789   9.772  12.607   6.011
62319SOL    HW188790   9.737  12.623   5.924
62319SOL    HW288791   9.712  12.543   6.050
62320SOL     OW88792   4.502  13.175  10.275
62320SOL    HW188793   4.495  13.101  10.334
62320SOL    HW288794   4.587  13.215  10.296
62321SOL     OW88795  13.053   8.446   7.939
62321SOL    HW188796  12.997   8.476   8.010
62321SOL    HW288797  13.140   8.475   7.963
62322SOL     OW88798  14.376  14.833   9.468
62322SOL    HW188799  14.410  14.781   9.541
62322SOL    HW288800  14.337  14.768   9.409
62323SOL     OW88801  13.275  11.362  10.555
62323SOL    HW188802  13.204  11.338  10.495
62323SOL    HW288803  13.254  11.452  10.582
62324SOL     OW88804   0.921  10.437  13.239
62324SOL    HW188805   0.893  10.483  13.318
62324SOL    HW288806   0.893  10.346  13.254
62325SOL     OW88807   4.122  14.874  10.865
62325SOL    HW188808   4.199  14.844  10.816
62325SOL    HW288809   4.096   0.076  10.821
62326SOL     OW88810   7.842   6.056   0.557
62326SOL    HW188811   7.827   6.134   0.609
62326SOL    HW288812   7.832   6.085   0.466
62327SOL     OW88813   8.826  11.809   7.186
62327SOL    HW188814   8.846  11.900   7.206
62327SOL    HW288815   8.751  11.813   7.126
62328SOL     OW88816   5.390   7.560  14.775
62328SOL    HW188817   5.405   7.640  14.725
62328SOL    HW288818   5.477   7.535  14.806
62329SOL     OW88819  13.642   6.182   1.123
62329SOL    HW188820  13.623   6.103   1.073
62329SOL    HW288821  13.676   6.244   1.059
62330SOL     OW88822   0.826   4.048  13.193
62330SOL    HW188823   0.825   4.051  13.288
62330SOL    HW288824   0.750   3.995  13.169
62331SOL     OW88825   3.208  13.178   6.106
62331SOL    HW188826   3.243  13.109   6.162
62331SOL    HW288827   3.276  13.246   6.107
62332SOL     OW88828  14.652   3.912  12.861
62332SOL    HW188829  14.741   3.886  12.837
62332SOL    HW288830  14.655   3.924  12.956
62333SOL     OW88831  12.844   0.294  13.052
62333SOL    HW188832  12.817   0.381  13.082
62333SOL    HW288833  12.786   0.234  13.098
62334SOL     OW88834   6.568   1.744   4.615
62334SOL    HW188835   6.493   1.696   4.650
62334SOL    HW288836   6.628   1.676   4.585
62335SOL     OW88837  12.813   4.474   1.536
62335SOL    HW188838  12.872   4.528   1.589
62335SOL    HW288839  12.823   4.507   1.447
62336SOL     OW88840   7.549   6.925   9.676
62336SOL    HW188841   7.463   6.951   9.709
62336SOL    HW288842   7.554   6.964   9.589
62337SOL     OW88843   4.187   8.294   1.198
62337SOL    HW188844   4.162   8.362   1.136
62337SOL    HW288845   4.179   8.212   1.149
62338SOL     OW88846   7.686  10.727   6.073
62338SOL    HW188847   7.679  10.634   6.094
62338SOL    HW288848   7.692  10.730   5.978
62339SOL     OW88849  12.384  11.480   0.046
62339SOL    HW188850  12.473  11.454   0.020
62339SOL    HW288851  12.335  11.398   0.046
62340SOL     OW88852   8.025  12.332   7.481
62340SOL    HW188853   7.948  12.295   7.439
62340SOL    HW288854   8.040  12.276   7.558
62341SOL     OW88855   3.615   0.043   2.154
62341SOL    HW188856   3.615   0.112   2.221
62341SOL    HW288857   3.558  14.854   2.190
62342SOL     OW88858   9.795  14.248  10.365
62342SOL    HW188859   9.708  14.211  10.376
62342SOL    HW288860   9.850  14.200  10.426
62343SOL     OW88861   3.678   9.780  13.018
62343SOL    HW188862   3.601   9.837  13.009
62343SOL    HW288863   3.660   9.707  12.960
62344SOL     OW88864   0.346  10.175   6.460
62344SOL    HW188865   0.391  10.091   6.469
62344SOL    HW288866   0.390  10.218   6.386
62345SOL     OW88867  13.621  12.147  14.745
62345SOL    HW188868  13.693  12.084  14.758
62345SOL    HW288869  13.561  12.129  14.817
62346SOL     OW88870   5.197   1.699   5.840
62346SOL    HW188871   5.199   1.784   5.797
62346SOL    HW288872   5.178   1.637   5.770
62347SOL     OW88873   0.105   7.879   7.905
62347SOL    HW188874   0.098   7.889   7.810
62347SOL    HW288875   0.035   7.818   7.928
62348SOL     OW88876  13.078   3.556  14.229
62348SOL    HW188877  13.061   3.644  14.262
62348SOL    HW288878  12.997   3.508  14.247
62349SOL     OW88879   5.040   6.736  13.003
62349SOL    HW188880   4.963   6.720  13.056
62349SOL    HW288881   5.111   6.692  13.050
62350SOL     OW88882  14.843   7.672  12.322
62350SOL    HW188883  14.749   7.685  12.319
62350SOL    HW288884  14.855   7.593  12.375
62351SOL     OW88885   3.784  10.640   4.977
62351SOL    HW188886   3.822  10.593   4.902
62351SOL    HW288887   3.722  10.702   4.938
62352SOL     OW88888  13.715  11.928   7.222
62352SOL    HW188889  13.760  12.004   7.259
62352SOL    HW288890  13.682  11.958   7.138
62353SOL     OW88891   0.091  12.085  13.092
62353SOL    HW188892   0.069  12.032  13.016
62353SOL    HW288893   0.033  12.161  13.086
62354SOL     OW88894  12.772   8.282  12.945
62354SOL    HW188895  12.709   8.243  13.006
62354SOL    HW288896  12.776   8.220  12.872
62355SOL     OW88897   1.497  12.823   3.771
62355SOL    HW188898   1.468  12.914   3.783
62355SOL    HW288899   1.417  12.774   3.754
62356SOL     OW88900   4.136   2.945  12.388
62356SOL    HW188901   4.143   2.964  12.295
62356SOL    HW288902   4.080   2.867  12.393
62357SOL     OW88903  10.215   8.303  11.966
62357SOL    HW188904  10.226   8.234  11.900
62357SOL    HW288905  10.124   8.330  11.957
62358SOL     OW88906   2.277   6.324   0.873
62358SOL    HW188907   2.281   6.291   0.963
62358SOL    HW288908   2.343   6.275   0.826
62359SOL     OW88909   3.334   6.073   9.029
62359SOL    HW188910   3.283   6.153   9.044
62359SOL    HW288911   3.283   6.025   8.963
62360SOL     OW88912  11.989  12.267   4.635
62360SOL    HW188913  12.041  12.223   4.702
62360SOL    HW288914  12.052  12.290   4.567
62361SOL     OW88915  10.373   5.810   6.052
62361SOL    HW188916  10.323   5.829   5.973
62361SOL    HW288917  10.448   5.869   6.048
62362SOL     OW88918   3.317   8.974   6.490
62362SOL    HW188919   3.273   9.050   6.527
62362SOL    HW288920   3.266   8.952   6.412
62363SOL     OW88921   0.667  10.748  11.080
62363SOL    HW188922   0.613  10.827  11.074
62363SOL    HW288923   0.610  10.678  11.048
62364SOL     OW88924   3.295   0.921  12.876
62364SOL    HW188925   3.341   0.862  12.816
62364SOL    HW288926   3.267   0.994  12.820
62365SOL     OW88927  13.843  12.234   5.934
62365SOL    HW188928  13.798  12.159   5.896
62365SOL    HW288929  13.867  12.206   6.022
62366SOL     OW88930  11.858   7.745   1.002
62366SOL    HW188931  11.837   7.714   1.090
62366SOL    HW288932  11.931   7.805   1.014
62367SOL     OW88933  13.235   1.986   1.442
62367SOL    HW188934  13.185   2.068   1.442
62367SOL    HW288935  13.170   1.917   1.454
62368SOL     OW88936   8.317   0.218   5.286
62368SOL    HW188937   8.394   0.201   5.340
62368SOL    HW288938   8.343   0.191   5.198
62369SOL     OW88939   8.371   8.561  11.200
62369SOL    HW188940   8.294   8.575  11.255
62369SOL    HW288941   8.404   8.474  11.226
62370SOL     OW88942   2.506   9.709  13.227
62370SOL    HW188943   2.537   9.619  13.233
62370SOL    HW288944   2.563   9.758  13.286
62371SOL     OW88945   7.735  14.796   2.736
62371SOL    HW188946   7.753  14.879   2.780
62371SOL    HW288947   7.670  14.753   2.792
62372SOL     OW88948   5.875   7.487  14.857
62372SOL    HW188949   5.935   7.464  14.786
62372SOL    HW288950   5.803   7.425  14.850
62373SOL     OW88951  13.724  10.269   0.992
62373SOL    HW188952  13.643  10.299   1.032
62373SOL    HW288953  13.788  10.271   1.062
62374SOL     OW88954   9.778  14.443   7.403
62374SOL    HW188955   9.759  14.350   7.410
62374SOL    HW288956   9.841  14.460   7.474
62375SOL     OW88957  10.769  11.589   6.835
62375SOL    HW188958  10.783  11.683   6.845
62375SOL    HW288959  10.839  11.549   6.887
62376SOL     OW88960  13.159   1.349   4.169
62376SOL    HW188961  13.143   1.272   4.115
62376SOL    HW288962  13.074   1.390   4.179
62377SOL     OW88963  10.920   7.866   7.239
62377SOL    HW188964  10.922   7.958   7.212
62377SOL    HW288965  10.828   7.841   7.230
62378SOL     OW88966   8.866   5.000   1.743
62378SOL    HW188967   8.797   4.965   1.687
62378SOL    HW288968   8.823   5.018   1.826
62379SOL     OW88969   6.072   9.404  10.360
62379SOL    HW188970   6.112   9.479  10.316
62379SOL    HW288971   5.993   9.385  10.309
62380SOL     OW88972  13.871   3.482   6.527
62380SOL    HW188973  13.853   3.567   6.487
62380SOL    HW288974  13.948   3.449   6.480
62381SOL     OW88975   1.368   6.695   4.620
62381SOL    HW188976   1.348   6.644   4.542
62381SOL    HW288977   1.360   6.786   4.592
62382SOL     OW88978   0.371  10.561   8.096
62382SOL    HW188979   0.417  10.478   8.102
62382SOL    HW288980   0.411  10.606   8.021
62383SOL     OW88981   0.725  12.280   0.404
62383SOL    HW188982   0.647  12.248   0.358
62383SOL    HW288983   0.694  12.295   0.494
62384SOL     OW88984   8.002  12.471   0.488
62384SOL    HW188985   7.992  12.411   0.563
62384SOL    HW288986   8.094  12.496   0.490
62385SOL     OW88987   0.031   6.506   7.861
62385SOL    HW188988   0.028   6.545   7.948
62385SOL    HW288989   0.100   6.554   7.816
62386SOL     OW88990  12.462   0.852  11.472
62386SOL    HW188991  12.389   0.887  11.422
62386SOL    HW288992  12.434   0.764  11.498
62387SOL     OW88993  14.445   6.086  10.168
62387SOL    HW188994  14.459   6.007  10.220
62387SOL    HW288995  14.403   6.055  10.088
62388SOL     OW88996   0.380  12.463   3.520
62388SOL    HW188997   0.459  12.516   3.520
62388SOL    HW288998   0.309  12.526   3.509
62389SOL     OW88999  11.050  13.892   3.584
62389SOL    HW189000  11.090  13.805   3.590
62389SOL    HW289001  11.091  13.932   3.508
62390SOL     OW89002   7.971   3.772   0.785
62390SOL    HW189003   8.022   3.846   0.817
62390SOL    HW289004   8.025   3.734   0.715
62391SOL     OW89005   5.190  10.820   7.490
62391SOL    HW189006   5.123  10.787   7.430
62391SOL    HW289007   5.272  10.813   7.441
62392SOL     OW89008   6.616  10.697  10.954
62392SOL    HW189009   6.708  10.723  10.944
62392SOL    HW289010   6.611  10.611  10.912
62393SOL     OW89011   0.300   5.773  13.763
62393SOL    HW189012   0.353   5.698  13.735
62393SOL    HW289013   0.280   5.819  13.681
62394SOL     OW89014   9.277   3.879   3.754
62394SOL    HW189015   9.244   3.857   3.667
62394SOL    HW289016   9.199   3.901   3.804
62395SOL     OW89017  13.911  10.782   7.638
62395SOL    HW189018  13.904  10.767   7.733
62395SOL    HW289019  13.938  10.874   7.631
62396SOL     OW89020   6.223  13.772   6.011
62396SOL    HW189021   6.196  13.742   5.924
62396SOL    HW289022   6.205  13.698   6.069
62397SOL     OW89023  10.301  11.310   9.362
62397SOL    HW189024  10.240  11.311   9.436
62397SOL    HW289025  10.384  11.339   9.398
62398SOL     OW89026  10.840   6.514  13.999
62398SOL    HW189027  10.878   6.596  13.964
62398SOL    HW289028  10.878   6.446  13.944
62399SOL     OW89029   6.874   9.630  14.161
62399SOL    HW189030   6.853   9.556  14.104
62399SOL    HW289031   6.969   9.637  14.157
62400SOL     OW89032  12.601   3.218  13.407
62400SOL    HW189033  12.540   3.267  13.351
62400SOL    HW289034  12.594   3.128  13.377
62401SOL     OW89035  14.771  11.604   2.246
62401SOL    HW189036  14.792  11.694   2.271
62401SOL    HW289037  14.685  11.611   2.205
62402SOL     OW89038  13.107  11.422  12.324
62402SOL    HW189039  13.122  11.471  12.243
62402SOL    HW289040  13.105  11.489  12.393
62403SOL     OW89041   8.179   1.094  13.811
62403SOL    HW189042   8.109   1.158  13.802
62403SOL    HW289043   8.139   1.010  13.789
62404SOL     OW89044  11.434   8.865  11.166
62404SOL    HW189045  11.509   8.922  11.182
62404SOL    HW289046  11.458   8.781  11.205
62405SOL     OW89047   0.635   5.103   7.626
62405SOL    HW189048   0.570   5.156   7.673
62405SOL    HW289049   0.720   5.138   7.655
62406SOL     OW89050   1.539  10.541   3.007
62406SOL    HW189051   1.629  10.557   2.978
62406SOL    HW289052   1.484  10.581   2.940
62407SOL     OW89053  12.916   0.286  14.697
62407SOL    HW189054  12.826   0.254  14.688
62407SOL    HW289055  12.907   0.381  14.700
62408SOL     OW89056  13.392   7.075  10.996
62408SOL    HW189057  13.299   7.095  11.007
62408SOL    HW289058  13.393   6.982  10.972
62409SOL     OW89059   8.468   7.223   8.428
62409SOL    HW189060   8.421   7.209   8.510
62409SOL    HW289061   8.501   7.137   8.403
62410SOL     OW89062  14.148   0.427   0.653
62410SOL    HW189063  14.157   0.459   0.564
62410SOL    HW289064  14.086   0.354   0.647
62411SOL     OW89065   9.269  11.062   4.290
62411SOL    HW189066   9.201  10.996   4.278
62411SOL    HW289067   9.313  11.037   4.371
62412SOL     OW89068   6.226   4.278  11.057
62412SOL    HW189069   6.145   4.317  11.090
62412SOL    HW289070   6.228   4.300  10.964
62413SOL     OW89071  12.990   1.550   0.838
62413SOL    HW189072  13.011   1.643   0.838
62413SOL    HW289073  12.912   1.542   0.784
62414SOL     OW89074   3.042   9.743  10.926
62414SOL    HW189075   3.112   9.683  10.953
62414SOL    HW289076   3.052   9.819  10.984
62415SOL     OW89077   1.904  11.224  13.395
62415SOL    HW189078   1.947  11.140  13.378
62415SOL    HW289079   1.947  11.257  13.474
62416SOL     OW89080   8.743  12.050   5.708
62416SOL    HW189081   8.837  12.035   5.715
62416SOL    HW289082   8.720  12.090   5.792
62417SOL     OW89083  10.558  11.041  14.158
62417SOL    HW189084  10.584  11.072  14.071
62417SOL    HW289085  10.640  11.026  14.204
62418SOL     OW89086   0.637   2.709   7.370
62418SOL    HW189087   0.630   2.784   7.310
62418SOL    HW289088   0.724   2.717   7.409
62419SOL     OW89089  13.877   4.885   6.268
62419SOL    HW189090  13.804   4.947   6.272
62419SOL    HW289091  13.839   4.802   6.295
62420SOL     OW89092   6.106  11.389   7.642
62420SOL    HW189093   6.078  11.447   7.571
62420SOL    HW289094   6.050  11.312   7.634
62421SOL     OW89095   9.543   9.709  11.201
62421SOL    HW189096   9.513   9.619  11.210
62421SOL    HW289097   9.622   9.703  11.147
62422SOL     OW89098   0.747   1.613  14.408
62422SOL    HW189099   0.695   1.631  14.330
62422SOL    HW289100   0.745   1.694  14.458
62423SOL     OW89101   5.555   9.279  13.831
62423SOL    HW189102   5.532   9.187  13.835
62423SOL    HW289103   5.588   9.300  13.918
62424SOL     OW89104  14.487   9.023   4.811
62424SOL    HW189105  14.486   8.940   4.763
62424SOL    HW289106  14.526   9.001   4.895
62425SOL     OW89107   3.020   0.153   5.811
62425SOL    HW189108   3.063   0.168   5.727
62425SOL    HW289109   3.076   0.197   5.875
62426SOL     OW89110  11.098   1.744   2.477
62426SOL    HW189111  11.057   1.766   2.394
62426SOL    HW289112  11.117   1.650   2.470
62427SOL     OW89113   9.048   2.056   4.587
62427SOL    HW189114   9.036   1.970   4.628
62427SOL    HW289115   9.057   2.037   4.494
62428SOL     OW89116   8.240  11.092   3.576
62428SOL    HW189117   8.235  11.158   3.506
62428SOL    HW289118   8.197  11.134   3.651
62429SOL     OW89119  10.583   0.140   2.507
62429SOL    HW189120  10.663   0.165   2.554
62429SOL    HW289121  10.515   0.141   2.574
62430SOL     OW89122  10.959  12.314   8.678
62430SOL    HW189123  11.033  12.372   8.660
62430SOL    HW289124  10.937  12.331   8.770
62431SOL     OW89125   1.656  14.064   8.711
62431SOL    HW189126   1.575  14.014   8.697
62431SOL    HW289127   1.717  14.000   8.748
62432SOL     OW89128  11.714   5.274   4.340
62432SOL    HW189129  11.795   5.283   4.390
62432SOL    HW289130  11.712   5.183   4.311
62433SOL     OW89131   0.789   7.388  10.034
62433SOL    HW189132   0.879   7.373  10.003
62433SOL    HW289133   0.759   7.463   9.983
62434SOL     OW89134   3.868   7.353   6.736
62434SOL    HW189135   3.815   7.296   6.792
62434SOL    HW289136   3.880   7.303   6.655
62435SOL     OW89137   5.036   5.010  11.703
62435SOL    HW189138   5.131   5.024  11.709
62435SOL    HW289139   4.998   5.085  11.748
62436SOL     OW89140   3.244   7.450   2.607
62436SOL    HW189141   3.261   7.448   2.701
62436SOL    HW289142   3.149   7.457   2.600
62437SOL     OW89143   2.796   2.126   2.410
62437SOL    HW189144   2.879   2.171   2.392
62437SOL    HW289145   2.802   2.102   2.502
62438SOL     OW89146  13.710   9.905  12.044
62438SOL    HW189147  13.674   9.879  12.129
62438SOL    HW289148  13.636   9.942  11.997
62439SOL     OW89149   5.261  12.084   9.388
62439SOL    HW189150   5.254  12.018   9.457
62439SOL    HW289151   5.314  12.153   9.427
62440SOL     OW89152   1.872   1.804   5.367
62440SOL    HW189153   1.883   1.719   5.409
62440SOL    HW289154   1.838   1.861   5.437
62441SOL     OW89155   3.599   9.248  12.368
62441SOL    HW189156   3.663   9.177  12.367
62441SOL    HW289157   3.551   9.238  12.286
62442SOL     OW89158   4.796  12.951  13.311
62442SOL    HW189159   4.763  12.880  13.256
62442SOL    HW289160   4.796  13.027  13.253
62443SOL     OW89161   5.281  13.038   8.230
62443SOL    HW189162   5.345  13.056   8.162
62443SOL    HW289163   5.217  12.980   8.188
62444SOL     OW89164   0.682   7.421  10.495
62444SOL    HW189165   0.662   7.407  10.403
62444SOL    HW289166   0.605   7.387  10.542
62445SOL     OW89167   0.980   3.778   5.929
62445SOL    HW189168   1.026   3.713   5.876
62445SOL    HW289169   1.020   3.862   5.905
62446SOL     OW89170   7.866   1.817  14.731
62446SOL    HW189171   7.852   1.907  14.760
62446SOL    HW289172   7.778   1.781  14.724
62447SOL     OW89173   5.797   2.929  10.182
62447SOL    HW189174   5.830   2.839  10.194
62447SOL    HW289175   5.710   2.928  10.223
62448SOL     OW89176   8.605   7.500   8.418
62448SOL    HW189177   8.533   7.501   8.481
62448SOL    HW289178   8.607   7.410   8.385
62449SOL     OW89179   2.210   6.913   2.481
62449SOL    HW189180   2.295   6.899   2.440
62449SOL    HW289181   2.231   6.950   2.567
62450SOL     OW89182  12.939   2.984  14.351
62450SOL    HW189183  12.928   3.072  14.386
62450SOL    HW289184  12.928   2.995  14.256
62451SOL     OW89185  10.522   8.611   8.637
62451SOL    HW189186  10.560   8.559   8.566
62451SOL    HW289187  10.432   8.628   8.610
62452SOL     OW89188  10.408   9.882   4.869
62452SOL    HW189189  10.408   9.873   4.774
62452SOL    HW289190  10.371   9.969   4.885
62453SOL     OW89191  11.968  10.007   2.349
62453SOL    HW189192  12.060   9.995   2.370
62453SOL    HW289193  11.922   9.981   2.429
62454SOL     OW89194  11.104  11.844   5.392
62454SOL    HW189195  11.172  11.776   5.400
62454SOL    HW289196  11.062  11.845   5.478
62455SOL     OW89197  12.737   5.801  11.976
62455SOL    HW189198  12.774   5.872  12.028
62455SOL    HW289199  12.645   5.826  11.964
62456SOL     OW89200   7.844  10.802   0.808
62456SOL    HW189201   7.844  10.898   0.808
62456SOL    HW289202   7.769  10.778   0.753
62457SOL     OW89203  12.614  12.641  12.484
62457SOL    HW189204  12.687  12.701  12.503
62457SOL    HW289205  12.538  12.699  12.477
62458SOL     OW89206   5.038   6.271  11.037
62458SOL    HW189207   5.123   6.260  11.078
62458SOL    HW289208   4.981   6.208  11.082
62459SOL     OW89209   2.306   8.201   0.378
62459SOL    HW189210   2.273   8.260   0.311
62459SOL    HW289211   2.356   8.135   0.330
62460SOL     OW89212   4.115   3.455   2.957
62460SOL    HW189213   4.178   3.460   2.885
62460SOL    HW289214   4.168   3.465   3.036
62461SOL     OW89215   3.237   0.866  13.705
62461SOL    HW189216   3.235   0.954  13.743
62461SOL    HW289217   3.253   0.880  13.612
62462SOL     OW89218  13.011  10.678   6.685
62462SOL    HW189219  12.936  10.622   6.705
62462SOL    HW289220  13.087  10.630   6.718
62463SOL     OW89221  13.669  10.203   8.652
62463SOL    HW189222  13.721  10.137   8.699
62463SOL    HW289223  13.642  10.159   8.572
62464SOL     OW89224   3.101   7.377   8.602
62464SOL    HW189225   3.022   7.417   8.565
62464SOL    HW289226   3.140   7.446   8.655
62465SOL     OW89227   1.862  11.523   5.674
62465SOL    HW189228   1.804  11.514   5.598
62465SOL    HW289229   1.942  11.562   5.637
62466SOL     OW89230   1.888   1.713  11.180
62466SOL    HW189231   1.870   1.621  11.199
62466SOL    HW289232   1.823   1.736  11.113
62467SOL     OW89233   9.559   1.796  14.819
62467SOL    HW189234   9.644   1.793  14.862
62467SOL    HW289235   9.496   1.782   0.011
62468SOL     OW89236   2.393   4.262   5.508
62468SOL    HW189237   2.389   4.227   5.597
62468SOL    HW289238   2.486   4.257   5.485
62469SOL     OW89239   8.910   7.605   4.838
62469SOL    HW189240   8.815   7.609   4.829
62469SOL    HW289241   8.930   7.668   4.908
62470SOL     OW89242   4.628   0.703   1.924
62470SOL    HW189243   4.658   0.653   2.000
62470SOL    HW289244   4.637   0.794   1.951
62471SOL     OW89245   9.153   4.395  13.130
62471SOL    HW189246   9.188   4.321  13.179
62471SOL    HW289247   9.167   4.471  13.186
62472SOL     OW89248   6.030  14.572   8.432
62472SOL    HW189249   5.977  14.632   8.484
62472SOL    HW289250   6.047  14.498   8.490
62473SOL     OW89251  13.318   4.244  10.423
62473SOL    HW189252  13.266   4.170  10.452
62473SOL    HW289253  13.305   4.247  10.328
62474SOL     OW89254   6.348   9.012   9.977
62474SOL    HW189255   6.346   8.938  10.037
62474SOL    HW289256   6.403   8.982   9.904
62475SOL     OW89257  12.813  14.228   7.031
62475SOL    HW189258  12.899  14.243   7.071
62475SOL    HW289259  12.821  14.143   6.989
62476SOL     OW89260   1.338   0.350   3.468
62476SOL    HW189261   1.330   0.439   3.434
62476SOL    HW289262   1.247   0.320   3.478
62477SOL     OW89263  14.205   0.392  11.607
62477SOL    HW189264  14.217   0.433  11.522
62477SOL    HW289265  14.171   0.462  11.663
62478SOL     OW89266   7.057   4.867  13.968
62478SOL    HW189267   6.982   4.831  13.920
62478SOL    HW289268   7.121   4.796  13.969
62479SOL     OW89269  11.560  10.020  10.191
62479SOL    HW189270  11.519   9.934  10.202
62479SOL    HW289271  11.587  10.022  10.099
62480SOL     OW89272  13.327   8.085  13.756
62480SOL    HW189273  13.287   8.146  13.818
62480SOL    HW289274  13.255   8.052  13.703
62481SOL     OW89275   2.877   0.333   4.456
62481SOL    HW189276   2.930   0.334   4.376
62481SOL    HW289277   2.862   0.425   4.477
62482SOL     OW89278  13.765  11.769  11.352
62482SOL    HW189279  13.676  11.790  11.325
62482SOL    HW289280  13.798  11.850  11.390
62483SOL     OW89281   1.526   7.950   1.478
62483SOL    HW189282   1.604   8.004   1.487
62483SOL    HW289283   1.454   8.007   1.506
62484SOL     OW89284   0.883   2.433   2.310
62484SOL    HW189285   0.857   2.392   2.392
62484SOL    HW289286   0.815   2.408   2.248
62485SOL     OW89287   1.904   7.049  10.390
62485SOL    HW189288   1.819   7.038  10.346
62485SOL    HW289289   1.884   7.098  10.469
62486SOL     OW89290  12.112   9.805   3.569
62486SOL    HW189291  12.029   9.758   3.571
62486SOL    HW289292  12.107   9.866   3.642
62487SOL     OW89293  13.727  12.544  12.179
62487SOL    HW189294  13.647  12.571  12.223
62487SOL    HW289295  13.796  12.597  12.219
62488SOL     OW89296  11.530   0.882   7.851
62488SOL    HW189297  11.511   0.824   7.925
62488SOL    HW289298  11.623   0.904   7.862
62489SOL     OW89299   4.075   0.355   1.388
62489SOL    HW189300   4.170   0.351   1.390
62489SOL    HW289301   4.049   0.349   1.480
62490SOL     OW89302   0.327  10.206   9.379
62490SOL    HW189303   0.340  10.301   9.383
62490SOL    HW289304   0.322  10.178   9.470
62491SOL     OW89305   1.305   5.466   0.097
62491SOL    HW189306   1.398   5.475   0.077
62491SOL    HW289307   1.285   5.375   0.076
62492SOL     OW89308   2.173  10.802  12.055
62492SOL    HW189309   2.165  10.763  12.142
62492SOL    HW289310   2.083  10.825  12.031
62493SOL     OW89311  12.903   5.810   0.351
62493SOL    HW189312  12.837   5.788   0.416
62493SOL    HW289313  12.949   5.886   0.387
62494SOL     OW89314  14.601   2.430   0.015
62494SOL    HW189315  14.662   2.441   0.088
62494SOL    HW289316  14.579   2.519  14.868
62495SOL     OW89317   5.632   4.220  11.082
62495SOL    HW189318   5.666   4.141  11.122
62495SOL    HW289319   5.706   4.281  11.081
62496SOL     OW89320   6.360   4.908  14.247
62496SOL    HW189321   6.407   4.880  14.169
62496SOL    HW289322   6.417   4.975  14.287
62497SOL     OW89323   0.782   0.118   6.211
62497SOL    HW189324   0.855   0.057   6.197
62497SOL    HW289325   0.819   0.188   6.264
62498SOL     OW89326  10.741   1.962   7.044
62498SOL    HW189327  10.685   2.037   7.061
62498SOL    HW289328  10.823   2.000   7.011
62499SOL     OW89329   8.414  13.620   0.647
62499SOL    HW189330   8.353  13.584   0.712
62499SOL    HW289331   8.470  13.679   0.696
62500SOL     OW89332   1.517  10.210   6.839
62500SOL    HW189333   1.454  10.159   6.789
62500SOL    HW289334   1.469  10.289   6.865
62501SOL     OW89335   7.074   2.583   9.422
62501SOL    HW189336   7.098   2.585   9.515
62501SOL    HW289337   7.153   2.553   9.378
62502SOL     OW89338   2.573   9.486  10.346
62502SOL    HW189339   2.595   9.478  10.439
62502SOL    HW289340   2.650   9.453  10.300
62503SOL     OW89341  13.135  12.811  10.466
62503SOL    HW189342  13.207  12.804  10.404
62503SOL    HW289343  13.080  12.735  10.449
62504SOL     OW89344   8.876   8.323   5.892
62504SOL    HW189345   8.911   8.246   5.937
62504SOL    HW289346   8.788   8.297   5.866
62505SOL     OW89347  11.240   1.737  13.149
62505SOL    HW189348  11.183   1.749  13.225
62505SOL    HW289349  11.189   1.772  13.076
62506SOL     OW89350  12.667   7.283  13.726
62506SOL    HW189351  12.655   7.333  13.807
62506SOL    HW289352  12.663   7.191  13.754
62507SOL     OW89353   1.945  10.824   8.357
62507SOL    HW189354   2.017  10.865   8.309
62507SOL    HW289355   1.925  10.885   8.427
62508SOL     OW89356  14.036  13.950   8.964
62508SOL    HW189357  14.119  13.966   8.920
62508SOL    HW289358  13.974  14.006   8.918
62509SOL     OW89359  13.126   6.908   2.432
62509SOL    HW189360  13.087   6.830   2.394
62509SOL    HW289361  13.158   6.880   2.518
62510SOL     OW89362   2.003   1.145   7.114
62510SOL    HW189363   1.940   1.118   7.181
62510SOL    HW289364   2.088   1.117   7.148
62511SOL     OW89365   3.643  10.557   9.956
62511SOL    HW189366   3.677  10.481   9.908
62511SOL    HW289367   3.709  10.573  10.024
62512SOL     OW89368   6.629  13.770  12.584
62512SOL    HW189369   6.590  13.712  12.518
62512SOL    HW289370   6.612  13.726  12.667
62513SOL     OW89371   3.500   1.184   5.914
62513SOL    HW189372   3.438   1.156   5.846
62513SOL    HW289373   3.456   1.167   5.997
62514SOL     OW89374   9.761   4.548   8.873
62514SOL    HW189375   9.699   4.498   8.925
62514SOL    HW289376   9.788   4.488   8.803
62515SOL     OW89377  11.750  12.662  11.774
62515SOL    HW189378  11.683  12.715  11.732
62515SOL    HW289379  11.829  12.717  11.773
62516SOL     OW89380  10.290   1.120   4.364
62516SOL    HW189381  10.197   1.122   4.344
62516SOL    HW289382  10.312   1.027   4.365
62517SOL     OW89383  12.082   5.562   8.039
62517SOL    HW189384  12.072   5.596   8.128
62517SOL    HW289385  12.009   5.601   7.990
62518SOL     OW89386   4.134   0.128   3.231
62518SOL    HW189387   4.052   0.086   3.259
62518SOL    HW289388   4.114   0.164   3.145
62519SOL     OW89389   5.149   9.195   1.178
62519SOL    HW189390   5.070   9.148   1.150
62519SOL    HW289391   5.124   9.288   1.173
62520SOL     OW89392  12.722  10.130  10.631
62520SOL    HW189393  12.809  10.150  10.596
62520SOL    HW289394  12.680  10.216  10.642
62521SOL     OW89395  12.477   1.319  12.831
62521SOL    HW189396  12.529   1.398  12.845
62521SOL    HW289397  12.430   1.335  12.749
62522SOL     OW89398  14.773  14.713  13.131
62522SOL    HW189399  14.700  14.657  13.104
62522SOL    HW289400  14.747  14.801  13.105
62523SOL     OW89401   4.477   9.873   0.565
62523SOL    HW189402   4.553   9.833   0.522
62523SOL    HW289403   4.405   9.859   0.504
62524SOL     OW89404  11.781  12.177   9.047
62524SOL    HW189405  11.845  12.159   8.979
62524SOL    HW289406  11.767  12.092   9.089
62525SOL     OW89407   5.993   8.643  11.732
62525SOL    HW189408   5.910   8.692  11.726
62525SOL    HW289409   5.966   8.555  11.760
62526SOL     OW89410   6.714   1.764   7.040
62526SOL    HW189411   6.703   1.705   6.965
62526SOL    HW289412   6.630   1.760   7.086
62527SOL     OW89413  12.124   1.140   6.095
62527SOL    HW189414  12.087   1.127   6.007
62527SOL    HW289415  12.198   1.199   6.082
62528SOL     OW89416  10.709  13.962   3.002
62528SOL    HW189417  10.757  14.010   3.069
62528SOL    HW289418  10.733  14.005   2.920
62529SOL     OW89419  12.325   0.623  11.554
62529SOL    HW189420  12.236   0.650  11.575
62529SOL    HW289421  12.334   0.536  11.593
62530SOL     OW89422  13.816   5.846  12.819
62530SOL    HW189423  13.787   5.790  12.891
62530SOL    HW289424  13.868   5.788  12.763
62531SOL     OW89425  12.432   9.829   6.934
62531SOL    HW189426  12.391   9.785   6.860
62531SOL    HW289427  12.425   9.767   7.006
62532SOL     OW89428  10.440   1.681   1.094
62532SOL    HW189429  10.344   1.676   1.095
62532SOL    HW289430  10.467   1.609   1.036
62533SOL     OW89431   5.143   2.065  12.345
62533SOL    HW189432   5.119   2.109  12.427
62533SOL    HW289433   5.129   1.972  12.362
62534SOL     OW89434   4.660   6.110   0.738
62534SOL    HW189435   4.748   6.142   0.759
62534SOL    HW289436   4.674   6.019   0.711
62535SOL     OW89437  14.639   2.126   6.218
62535SOL    HW189438  14.612   2.207   6.176
62535SOL    HW289439  14.717   2.150   6.269
62536SOL     OW89440   2.435   1.771  11.225
62536SOL    HW189441   2.344   1.777  11.197
62536SOL    HW289442   2.455   1.857  11.260
62537SOL     OW89443   5.223   3.175   0.608
62537SOL    HW189444   5.195   3.236   0.540
62537SOL    HW289445   5.150   3.172   0.670
62538SOL     OW89446  13.049   3.475   6.730
62538SOL    HW189447  13.099   3.552   6.703
62538SOL    HW289448  13.115   3.408   6.750
62539SOL     OW89449   5.552  12.551  13.968
62539SOL    HW189450   5.627  12.580  13.918
62539SOL    HW289451   5.586  12.482  14.025
62540SOL     OW89452   2.339   8.833   5.024
62540SOL    HW189453   2.369   8.868   5.108
62540SOL    HW289454   2.349   8.906   4.963
62541SOL     OW89455   9.801   9.520   0.907
62541SOL    HW189456   9.856   9.597   0.917
62541SOL    HW289457   9.854   9.459   0.854
62542SOL     OW89458   2.656   1.793  14.139
62542SOL    HW189459   2.629   1.706  14.109
62542SOL    HW289460   2.606   1.807  14.219
62543SOL     OW89461   9.262   7.835   1.248
62543SOL    HW189462   9.282   7.912   1.195
62543SOL    HW289463   9.197   7.866   1.312
62544SOL     OW89464   5.613   6.206   2.386
62544SOL    HW189465   5.570   6.136   2.337
62544SOL    HW289466   5.547   6.274   2.393
62545SOL     OW89467   4.164   4.750  12.359
62545SOL    HW189468   4.098   4.777  12.296
62545SOL    HW289469   4.226   4.823  12.362
62546SOL     OW89470   7.343   3.214   3.500
62546SOL    HW189471   7.359   3.247   3.412
62546SOL    HW289472   7.353   3.119   3.492
62547SOL     OW89473   0.214  12.318   6.439
62547SOL    HW189474   0.281  12.295   6.504
62547SOL    HW289475   0.137  12.266   6.464
62548SOL     OW89476   3.250   7.477   0.102
62548SOL    HW189477   3.331   7.430   0.122
62548SOL    HW289478   3.212   7.429   0.028
62549SOL     OW89479   7.778   4.009  10.407
62549SOL    HW189480   7.763   3.915  10.393
62549SOL    HW289481   7.806   4.015  10.498
62550SOL     OW89482   9.159   1.134   9.059
62550SOL    HW189483   9.252   1.115   9.053
62550SOL    HW289484   9.126   1.075   9.126
62551SOL     OW89485   8.653   8.746   9.917
62551SOL    HW189486   8.744   8.733   9.944
62551SOL    HW289487   8.603   8.737   9.997
62552SOL     OW89488   0.062   9.658   6.482
62552SOL    HW189489  14.872   9.601   6.450
62552SOL    HW289490   0.143   9.608   6.466
62553SOL     OW89491  13.431   1.556   8.285
62553SOL    HW189492  13.527   1.553   8.293
62553SOL    HW289493  13.405   1.629   8.342
62554SOL     OW89494   0.151   3.697   6.963
62554SOL    HW189495   0.100   3.649   6.898
62554SOL    HW289496   0.093   3.705   7.038
62555SOL     OW89497  10.635  14.320   2.790
62555SOL    HW189498  10.580  14.263   2.735
62555SOL    HW289499  10.715  14.269   2.805
62556SOL     OW89500   5.213   3.943   1.540
62556SOL    HW189501   5.201   3.848   1.541
62556SOL    HW289502   5.178   3.972   1.625
62557SOL     OW89503  11.532   4.232   2.699
62557SOL    HW189504  11.572   4.146   2.716
62557SOL    HW289505  11.589   4.272   2.633
62558SOL     OW89506   7.465   3.265  11.239
62558SOL    HW189507   7.409   3.191  11.262
62558SOL    HW289508   7.553   3.237  11.265
62559SOL     OW89509   0.283   0.203   1.326
62559SOL    HW189510   0.275   0.126   1.381
62559SOL    HW289511   0.205   0.255   1.346
62560SOL     OW89512   0.487  10.953   7.026
62560SOL    HW189513   0.573  10.925   6.993
62560SOL    HW289514   0.438  10.872   7.035
62561SOL     OW89515   9.143  12.329   2.027
62561SOL    HW189516   9.056  12.365   2.045
62561SOL    HW289517   9.194  12.348   2.106
62562SOL     OW89518   7.786   3.001   6.614
62562SOL    HW189519   7.812   2.928   6.669
62562SOL    HW289520   7.841   2.992   6.535
62563SOL     OW89521   5.572   3.417   5.794
62563SOL    HW189522   5.536   3.390   5.878
62563SOL    HW289523   5.521   3.494   5.770
62564SOL     OW89524  12.114   2.070   7.410
62564SOL    HW189525  12.087   1.989   7.367
62564SOL    HW289526  12.036   2.099   7.457
62565SOL     OW89527  14.802  14.545   4.261
62565SOL    HW189528  14.823  14.500   4.342
62565SOL    HW289529  14.822  14.637   4.279
62566SOL     OW89530  13.110   6.113   5.909
62566SOL    HW189531  13.190   6.164   5.902
62566SOL    HW289532  13.085   6.119   6.001
62567SOL     OW89533  14.357   1.065   3.187
62567SOL    HW189534  14.380   1.157   3.200
62567SOL    HW289535  14.314   1.064   3.101
62568SOL     OW89536   0.764   1.369  13.077
62568SOL    HW189537   0.709   1.447  13.068
62568SOL    HW289538   0.702   1.296  13.074
62569SOL     OW89539  10.650  12.188   7.707
62569SOL    HW189540  10.558  12.199   7.734
62569SOL    HW289541  10.656  12.238   7.626
62570SOL     OW89542   8.304   8.459   0.545
62570SOL    HW189543   8.241   8.459   0.618
62570SOL    HW289544   8.390   8.454   0.587
62571SOL     OW89545   4.372   3.756   9.196
62571SOL    HW189546   4.278   3.746   9.209
62571SOL    HW289547   4.407   3.667   9.203
62572SOL     OW89548   9.270  14.362   9.519
62572SOL    HW189549   9.298  14.291   9.461
62572SOL    HW289550   9.287  14.442   9.470
62573SOL     OW89551   7.711   0.135   6.030
62573SOL    HW189552   7.673   0.048   6.037
62573SOL    HW289553   7.666   0.175   5.955
62574SOL     OW89554   0.666   1.921  10.388
62574SOL    HW189555   0.702   1.835  10.413
62574SOL    HW289556   0.732   1.983  10.419
62575SOL     OW89557   3.328  14.064  12.806
62575SOL    HW189558   3.324  14.050  12.901
62575SOL    HW289559   3.285  13.988  12.768
62576SOL     OW89560  13.595   3.850   3.829
62576SOL    HW189561  13.600   3.894   3.744
62576SOL    HW289562  13.508   3.872   3.862
62577SOL     OW89563   0.348   2.379  11.615
62577SOL    HW189564   0.383   2.292  11.631
62577SOL    HW289565   0.280   2.367  11.549
62578SOL     OW89566   4.745  14.465   2.599
62578SOL    HW189567   4.655  14.496   2.592
62578SOL    HW289568   4.777  14.462   2.509
62579SOL     OW89569   7.051   4.079  13.762
62579SOL    HW189570   6.959   4.097  13.741
62579SOL    HW289571   7.047   4.012  13.830
62580SOL     OW89572  13.979   2.265   2.211
62580SOL    HW189573  13.925   2.230   2.140
62580SOL    HW289574  13.951   2.218   2.289
62581SOL     OW89575   8.145   1.288   2.224
62581SOL    HW189576   8.218   1.278   2.286
62581SOL    HW289577   8.187   1.286   2.138
62582SOL     OW89578   5.726   4.872  11.403
62582SOL    HW189579   5.751   4.847  11.314
62582SOL    HW289580   5.805   4.909  11.441
62583SOL     OW89581   6.430   6.292   8.581
62583SOL    HW189582   6.384   6.212   8.605
62583SOL    HW289583   6.392   6.318   8.497
62584SOL     OW89584  14.146   2.131   5.069
62584SOL    HW189585  14.143   2.194   5.141
62584SOL    HW289586  14.163   2.185   4.992
62585SOL     OW89587   3.241   6.863  13.647
62585SOL    HW189588   3.238   6.930  13.716
62585SOL    HW289589   3.153   6.826  13.645
62586SOL     OW89590   9.703   7.550   6.141
62586SOL    HW189591   9.695   7.482   6.074
62586SOL    HW289592   9.617   7.593   6.140
62587SOL     OW89593   8.366   7.880  12.698
62587SOL    HW189594   8.290   7.838  12.737
62587SOL    HW289595   8.438   7.818  12.712
62588SOL     OW89596  12.292   0.348  11.610
62588SOL    HW189597  12.237   0.286  11.659
62588SOL    HW289598  12.319   0.299  11.533
62589SOL     OW89599   9.878   6.382   0.180
62589SOL    HW189600   9.973   6.385   0.193
62589SOL    HW289601   9.864   6.428   0.097
62590SOL     OW89602   0.626   8.589   8.465
62590SOL    HW189603   0.657   8.638   8.389
62590SOL    HW289604   0.629   8.497   8.438
62591SOL     OW89605   9.570   1.000   4.171
62591SOL    HW189606   9.634   0.942   4.129
62591SOL    HW289607   9.489   0.985   4.123
62592SOL     OW89608  14.457   3.027  11.897
62592SOL    HW189609  14.499   3.009  11.981
62592SOL    HW289610  14.520   2.997  11.832
62593SOL     OW89611   3.366   3.626  14.394
62593SOL    HW189612   3.270   3.620  14.392
62593SOL    HW289613   3.385   3.672  14.475
62594SOL     OW89614  11.696   7.287  11.844
62594SOL    HW189615  11.663   7.272  11.932
62594SOL    HW289616  11.649   7.222  11.790
62595SOL     OW89617   9.251   8.749   2.526
62595SOL    HW189618   9.280   8.811   2.459
62595SOL    HW289619   9.331   8.727   2.574
62596SOL     OW89620  10.292   7.731   6.017
62596SOL    HW189621  10.238   7.696   6.087
62596SOL    HW289622  10.249   7.702   5.936
62597SOL     OW89623   9.282   9.437  13.363
62597SOL    HW189624   9.268   9.522  13.322
62597SOL    HW289625   9.327   9.385  13.296
62598SOL     OW89626   7.039  14.558  13.233
62598SOL    HW189627   7.064  14.467  13.251
62598SOL    HW289628   7.121  14.601  13.208
62599SOL     OW89629   6.096  13.358   8.766
62599SOL    HW189630   6.047  13.286   8.806
62599SOL    HW289631   6.083  13.348   8.672
62600SOL     OW89632  13.843   4.225  11.685
62600SOL    HW189633  13.804   4.162  11.624
62600SOL    HW289634  13.781   4.229  11.758
62601SOL     OW89635  11.900  13.475   8.972
62601SOL    HW189636  11.913  13.498   8.879
62601SOL    HW289637  11.973  13.417   8.992
62602SOL     OW89638  12.603   9.635  11.491
62602SOL    HW189639  12.546   9.690  11.545
62602SOL    HW289640  12.689   9.677  11.498
62603SOL     OW89641   3.445  11.119   2.131
62603SOL    HW189642   3.376  11.185   2.136
62603SOL    HW289643   3.526  11.170   2.121
62604SOL     OW89644   3.250   0.772   1.084
62604SOL    HW189645   3.173   0.718   1.067
62604SOL    HW289646   3.291   0.783   0.998
62605SOL     OW89647   6.976   2.530   4.160
62605SOL    HW189648   6.991   2.623   4.146
62605SOL    HW289649   6.880   2.522   4.167
62606SOL     OW89650   1.062   5.879  13.737
62606SOL    HW189651   1.087   5.971  13.729
62606SOL    HW289652   1.136   5.838  13.782
62607SOL     OW89653   7.706   4.028   9.462
62607SOL    HW189654   7.667   3.976   9.392
62607SOL    HW289655   7.695   4.119   9.434
62608SOL     OW89656   3.440   1.484  10.445
62608SOL    HW189657   3.484   1.486  10.530
62608SOL    HW289658   3.411   1.574  10.430
62609SOL     OW89659   8.958  14.108   2.027
62609SOL    HW189660   8.995  14.196   2.037
62609SOL    HW289661   8.863  14.122   2.022
62610SOL     OW89662   4.028  10.533   8.991
62610SOL    HW189663   4.046  10.581   9.072
62610SOL    HW289664   4.067  10.446   9.006
62611SOL     OW89665  11.025  11.607  11.976
62611SOL    HW189666  11.012  11.637  12.067
62611SOL    HW289667  11.062  11.520  11.985
62612SOL     OW89668  14.622   5.521   3.674
62612SOL    HW189669  14.643   5.597   3.619
62612SOL    HW289670  14.699   5.464   3.668
62613SOL     OW89671  10.449   0.140  13.233
62613SOL    HW189672  10.429   0.214  13.175
62613SOL    HW289673  10.482   0.180  13.313
62614SOL     OW89674  14.709   3.604   2.074
62614SOL    HW189675  14.779   3.540   2.065
62614SOL    HW289676  14.752   3.681   2.112
62615SOL     OW89677   6.024  10.451  12.960
62615SOL    HW189678   5.979  10.517  12.908
62615SOL    HW289679   6.043  10.380  12.899
62616SOL     OW89680   6.428   5.053   0.349
62616SOL    HW189681   6.377   5.021   0.274
62616SOL    HW289682   6.491   4.983   0.366
62617SOL     OW89683  13.491  14.401   1.861
62617SOL    HW189684  13.545  14.431   1.788
62617SOL    HW289685  13.551  14.349   1.915
62618SOL     OW89686   8.014   2.970  13.182
62618SOL    HW189687   8.063   3.051  13.194
62618SOL    HW289688   7.942   2.994  13.124
62619SOL     OW89689   3.744   4.177   2.372
62619SOL    HW189690   3.809   4.230   2.418
62619SOL    HW289691   3.795   4.118   2.317
62620SOL     OW89692  10.048   5.566   9.736
62620SOL    HW189693   9.996   5.628   9.786
62620SOL    HW289694   9.985   5.498   9.710
62621SOL     OW89695   0.222  14.481   4.467
62621SOL    HW189696   0.178  14.414   4.521
62621SOL    HW289697   0.209  14.451   4.377
62622SOL     OW89698  12.412  14.052   7.087
62622SOL    HW189699  12.340  14.115   7.085
62622SOL    HW289700  12.448  14.055   6.999
62623SOL     OW89701   5.729   1.544  11.632
62623SOL    HW189702   5.714   1.466  11.685
62623SOL    HW289703   5.730   1.512  11.542
62624SOL     OW89704   7.554   8.124   3.779
62624SOL    HW189705   7.636   8.173   3.773
62624SOL    HW289706   7.522   8.120   3.689
62625SOL     OW89707   5.807   6.850   6.251
62625SOL    HW189708   5.723   6.804   6.256
62625SOL    HW289709   5.820   6.887   6.338
62626SOL     OW89710  13.655  13.416   3.321
62626SOL    HW189711  13.611  13.363   3.255
62626SOL    HW289712  13.685  13.353   3.387
62627SOL     OW89713  11.309   5.162   1.875
62627SOL    HW189714  11.380   5.206   1.923
62627SOL    HW289715  11.343   5.154   1.786
62628SOL     OW89716  11.809  11.210   0.499
62628SOL    HW189717  11.735  11.197   0.557
62628SOL    HW289718  11.812  11.130   0.446
62629SOL     OW89719   2.268   4.993   3.871
62629SOL    HW189720   2.228   5.073   3.837
62629SOL    HW289721   2.317   5.023   3.948
62630SOL     OW89722   8.596  11.838   5.808
62630SOL    HW189723   8.624  11.782   5.736
62630SOL    HW289724   8.630  11.925   5.787
62631SOL     OW89725  11.452  13.904  12.376
62631SOL    HW189726  11.496  13.988  12.392
62631SOL    HW289727  11.464  13.855  12.458
62632SOL     OW89728   7.858   6.667  10.780
62632SOL    HW189729   7.925   6.655  10.846
62632SOL    HW289730   7.804   6.739  10.813
62633SOL     OW89731   4.994  11.893  11.937
62633SOL    HW189732   4.962  11.818  11.987
62633SOL    HW289733   4.957  11.969  11.982
62634SOL     OW89734   6.421   0.220   5.538
62634SOL    HW189735   6.365   0.213   5.616
62634SOL    HW289736   6.509   0.232   5.573
62635SOL     OW89737   9.144   6.033   7.728
62635SOL    HW189738   9.055   6.052   7.758
62635SOL    HW289739   9.157   5.941   7.750
62636SOL     OW89740  12.402   1.162  14.418
62636SOL    HW189741  12.447   1.218  14.354
62636SOL    HW289742  12.441   1.075  14.406
62637SOL     OW89743   0.556   6.546   2.008
62637SOL    HW189744   0.626   6.528   2.071
62637SOL    HW289745   0.585   6.503   1.927
62638SOL     OW89746   6.120  11.400  14.274
62638SOL    HW189747   6.191  11.343  14.301
62638SOL    HW289748   6.090  11.364  14.191
62639SOL     OW89749  12.935   7.840   1.236
62639SOL    HW189750  12.840   7.830   1.243
62639SOL    HW289751  12.949   7.935   1.237
62640SOL     OW89752   7.954  10.922   8.628
62640SOL    HW189753   8.049  10.914   8.625
62640SOL    HW289754   7.932  10.982   8.557
62641SOL     OW89755   5.755   9.986   7.475
62641SOL    HW189756   5.850   9.982   7.490
62641SOL    HW289757   5.724   9.897   7.491
62642SOL     OW89758  14.506  14.835   9.846
62642SOL    HW189759  14.505  14.781   9.767
62642SOL    HW289760  14.507  14.772   9.918
62643SOL     OW89761   6.201   1.770   5.952
62643SOL    HW189762   6.264   1.805   5.890
62643SOL    HW289763   6.180   1.843   6.010
62644SOL     OW89764   9.244  13.762  10.692
62644SOL    HW189765   9.175  13.718  10.741
62644SOL    HW289766   9.316  13.699  10.689
62645SOL     OW89767  12.897  11.018   4.938
62645SOL    HW189768  12.884  10.923   4.945
62645SOL    HW289769  12.812  11.055   4.963
62646SOL     OW89770   7.313   9.832   1.069
62646SOL    HW189771   7.284   9.787   0.990
62646SOL    HW289772   7.360   9.909   1.036
62647SOL     OW89773   8.274  12.752  14.169
62647SOL    HW189774   8.294  12.697  14.245
62647SOL    HW289775   8.337  12.724  14.102
62648SOL     OW89776   3.407  11.199   9.971
62648SOL    HW189777   3.374  11.261   9.906
62648SOL    HW289778   3.484  11.242  10.009
62649SOL     OW89779  14.587  14.855   7.298
62649SOL    HW189780  14.654  14.806   7.344
62649SOL    HW289781  14.520  14.790   7.276
62650SOL     OW89782   3.037  12.065  11.447
62650SOL    HW189783   3.128  12.045  11.469
62650SOL    HW289784   2.989  11.984  11.463
62651SOL     OW89785   4.553   1.031   5.663
62651SOL    HW189786   4.561   1.081   5.744
62651SOL    HW289787   4.462   1.045   5.635
62652SOL     OW89788   6.818   5.400  14.878
62652SOL    HW189789   6.746   5.349  14.841
62652SOL    HW289790   6.789   5.491  14.869
62653SOL     OW89791   7.651   7.120  10.282
62653SOL    HW189792   7.582   7.163  10.231
62653SOL    HW289793   7.635   7.150  10.372
62654SOL     OW89794  11.895   6.461  13.171
62654SOL    HW189795  11.868   6.537  13.119
62654SOL    HW289796  11.963   6.496  13.229
62655SOL     OW89797   9.329   2.120   0.488
62655SOL    HW189798   9.272   2.049   0.458
62655SOL    HW289799   9.418   2.089   0.469
62656SOL     OW89800  12.412   7.512   1.298
62656SOL    HW189801  12.425   7.597   1.340
62656SOL    HW289802  12.386   7.533   1.209
62657SOL     OW89803   5.625   0.688   6.421
62657SOL    HW189804   5.532   0.701   6.442
62657SOL    HW289805   5.627   0.606   6.373
62658SOL     OW89806   2.410   7.120   2.943
62658SOL    HW189807   2.449   7.110   3.030
62658SOL    HW289808   2.343   7.188   2.954
62659SOL     OW89809   8.483   9.901  13.625
62659SOL    HW189810   8.507   9.861  13.708
62659SOL    HW289811   8.526   9.847  13.559
62660SOL     OW89812   0.367  12.622   6.544
62660SOL    HW189813   0.358  12.533   6.578
62660SOL    HW289814   0.280  12.660   6.555
62661SOL     OW89815   1.090   1.162  10.944
62661SOL    HW189816   1.111   1.205  11.027
62661SOL    HW289817   1.168   1.175  10.890
62662SOL     OW89818   7.252  13.757   3.966
62662SOL    HW189819   7.178  13.695   3.970
62662SOL    HW289820   7.213  13.842   3.988
62663SOL     OW89821   4.044   3.546   4.893
62663SOL    HW189822   4.120   3.488   4.883
62663SOL    HW289823   4.066   3.601   4.968
62664SOL     OW89824   5.951   5.184   1.816
62664SOL    HW189825   5.927   5.103   1.860
62664SOL    HW289826   5.988   5.156   1.732
62665SOL     OW89827   3.464  11.890   6.620
62665SOL    HW189828   3.400  11.835   6.576
62665SOL    HW289829   3.413  11.944   6.679
62666SOL     OW89830   4.142   7.627  13.291
62666SOL    HW189831   4.118   7.636  13.199
62666SOL    HW289832   4.180   7.712  13.314
62667SOL     OW89833  12.021   9.886   5.602
62667SOL    HW189834  11.978   9.911   5.683
62667SOL    HW289835  12.095   9.832   5.630
62668SOL     OW89836  13.387   4.515   1.718
62668SOL    HW189837  13.475   4.537   1.689
62668SOL    HW289838  13.399   4.480   1.807
62669SOL     OW89839  14.482   1.274   2.208
62669SOL    HW189840  14.575   1.262   2.226
62669SOL    HW289841  14.442   1.192   2.236
62670SOL     OW89842  10.151   0.229  10.480
62670SOL    HW189843  10.240   0.250  10.452
62670SOL    HW289844  10.153   0.241  10.575
62671SOL     OW89845   6.304   4.572   8.713
62671SOL    HW189846   6.291   4.667   8.721
62671SOL    HW289847   6.367   4.551   8.781
62672SOL     OW89848   2.089   1.359   0.643
62672SOL    HW189849   2.001   1.370   0.607
62672SOL    HW289850   2.137   1.312   0.574
62673SOL     OW89851   1.614  10.308  12.578
62673SOL    HW189852   1.691  10.286  12.525
62673SOL    HW289853   1.628  10.260  12.660
62674SOL     OW89854   6.115   6.403   8.757
62674SOL    HW189855   6.146   6.331   8.702
62674SOL    HW289856   6.165   6.395   8.838
62675SOL     OW89857   4.170   2.667   9.622
62675SOL    HW189858   4.093   2.723   9.613
62675SOL    HW289859   4.198   2.649   9.532
62676SOL     OW89860   7.928  10.356   9.779
62676SOL    HW189861   7.856  10.403   9.822
62676SOL    HW289862   7.923  10.382   9.687
62677SOL     OW89863   8.749   4.069   3.241
62677SOL    HW189864   8.839   4.047   3.215
62677SOL    HW289865   8.757   4.152   3.287
62678SOL     OW89866  12.808   3.042   4.463
62678SOL    HW189867  12.818   3.083   4.377
62678SOL    HW289868  12.895   3.008   4.484
62679SOL     OW89869  11.109   8.229  10.444
62679SOL    HW189870  11.029   8.183  10.470
62679SOL    HW289871  11.173   8.207  10.511
62680SOL     OW89872  10.754   0.351   4.665
62680SOL    HW189873  10.766   0.444   4.683
62680SOL    HW289874  10.779   0.341   4.573
62681SOL     OW89875   5.917   9.390  14.336
62681SOL    HW189876   5.981   9.454  14.304
62681SOL    HW289877   5.901   9.415  14.427
62682SOL     OW89878   8.647   2.142   6.664
62682SOL    HW189879   8.570   2.105   6.707
62682SOL    HW289880   8.718   2.130   6.728
62683SOL     OW89881   3.753   5.370   0.670
62683SOL    HW189882   3.764   5.348   0.763
62683SOL    HW289883   3.709   5.454   0.670
62684SOL     OW89884   7.046  12.444   4.923
62684SOL    HW189885   6.958  12.473   4.946
62684SOL    HW289886   7.060  12.475   4.834
62685SOL     OW89887   7.209   6.046  12.844
62685SOL    HW189888   7.248   6.132  12.861
62685SOL    HW289889   7.240   5.991  12.917
62686SOL     OW89890   8.332   6.867   3.491
62686SOL    HW189891   8.288   6.890   3.573
62686SOL    HW289892   8.403   6.808   3.517
62687SOL     OW89893  12.108   8.693  14.558
62687SOL    HW189894  12.150   8.769  14.519
62687SOL    HW289895  12.023   8.725  14.588
62688SOL     OW89896   7.009  11.765   1.490
62688SOL    HW189897   6.938  11.708   1.519
62688SOL    HW289898   7.022  11.825   1.564
62689SOL     OW89899  10.111   6.406  12.710
62689SOL    HW189900  10.103   6.414  12.805
62689SOL    HW289901  10.155   6.322  12.697
62690SOL     OW89902   7.903  13.281   5.705
62690SOL    HW189903   7.947  13.280   5.621
62690SOL    HW289904   7.874  13.372   5.716
62691SOL     OW89905  10.078   7.005  13.097
62691SOL    HW189906  10.149   6.941  13.108
62691SOL    HW289907  10.002   6.954  13.070
62692SOL     OW89908   1.229  10.034   1.318
62692SOL    HW189909   1.213  10.117   1.363
62692SOL    HW289910   1.240  10.057   1.226
62693SOL     OW89911   1.705   0.189  13.815
62693SOL    HW189912   1.772   0.209  13.750
62693SOL    HW289913   1.662   0.272  13.832
62694SOL     OW89914   0.194   1.114  10.860
62694SOL    HW189915   0.278   1.100  10.816
62694SOL    HW289916   0.146   1.173  10.801
62695SOL     OW89917   9.334   5.149   3.888
62695SOL    HW189918   9.327   5.132   3.982
62695SOL    HW289919   9.427   5.134   3.868
62696SOL     OW89920   2.218  13.905   5.084
62696SOL    HW189921   2.207  13.824   5.134
62696SOL    HW289922   2.256  13.877   5.001
62697SOL     OW89923   4.753   7.508   6.205
62697SOL    HW189924   4.662   7.490   6.181
62697SOL    HW289925   4.795   7.422   6.210
62698SOL     OW89926  10.973   8.053   3.684
62698SOL    HW189927  10.962   8.065   3.590
62698SOL    HW289928  10.995   8.141   3.717
62699SOL     OW89929   5.782  12.482   3.373
62699SOL    HW189930   5.782  12.484   3.277
62699SOL    HW289931   5.764  12.390   3.394
62700SOL     OW89932  12.660   9.061   7.897
62700SOL    HW189933  12.658   9.076   7.802
62700SOL    HW289934  12.635   9.145   7.935
62701SOL     OW89935  10.770  12.619   8.675
62701SOL    HW189936  10.865  12.623   8.684
62701SOL    HW289937  10.738  12.594   8.761
62702SOL     OW89938  12.192   3.276  11.162
62702SOL    HW189939  12.145   3.344  11.210
62702SOL    HW289940  12.266   3.321  11.123
62703SOL     OW89941  12.476   5.883   2.453
62703SOL    HW189942  12.429   5.806   2.421
62703SOL    HW289943  12.542   5.849   2.513
62704SOL     OW89944   7.127  11.541   9.931
62704SOL    HW189945   7.054  11.480   9.920
62704SOL    HW289946   7.086  11.627   9.936
62705SOL     OW89947   7.777   7.910   4.938
62705SOL    HW189948   7.756   7.899   4.845
62705SOL    HW289949   7.849   7.973   4.938
62706SOL     OW89950  11.876  11.445   0.263
62706SOL    HW189951  11.806  11.380   0.255
62706SOL    HW289952  11.891  11.452   0.357
62707SOL     OW89953   4.849  13.667   0.648
62707SOL    HW189954   4.851  13.723   0.725
62707SOL    HW289955   4.789  13.711   0.587
62708SOL     OW89956   9.762   0.844  11.316
62708SOL    HW189957   9.687   0.789  11.339
62708SOL    HW289958   9.763   0.845  11.221
62709SOL     OW89959   9.708   4.083   8.330
62709SOL    HW189960   9.667   4.007   8.288
62709SOL    HW289961   9.781   4.106   8.272
62710SOL     OW89962   1.026   4.857  14.803
62710SOL    HW189963   0.973   4.782  14.828
62710SOL    HW289964   0.965   4.914  14.756
62711SOL     OW89965  12.521  14.783   7.602
62711SOL    HW189966  12.558  14.864   7.637
62711SOL    HW289967  12.427  14.792   7.614
62712SOL     OW89968   9.562  10.050  10.976
62712SOL    HW189969   9.601  10.135  10.993
62712SOL    HW289970   9.498  10.039  11.046
62713SOL     OW89971   9.373   4.022   3.343
62713SOL    HW189972   9.393   3.929   3.331
62713SOL    HW289973   9.429   4.067   3.280
62714SOL     OW89974   7.225  10.833  12.907
62714SOL    HW189975   7.276  10.914  12.901
62714SOL    HW289976   7.204  10.812  12.816
62715SOL     OW89977  10.413   6.863   3.524
62715SOL    HW189978  10.470   6.891   3.595
62715SOL    HW289979  10.344   6.930   3.521
62716SOL     OW89980   5.208  12.117   4.433
62716SOL    HW189981   5.194  12.200   4.388
62716SOL    HW289982   5.249  12.060   4.367
62717SOL     OW89983  10.567   6.876   6.086
62717SOL    HW189984  10.515   6.939   6.134
62717SOL    HW289985  10.585   6.806   6.149
62718SOL     OW89986   5.145   0.842  11.288
62718SOL    HW189987   5.115   0.848  11.378
62718SOL    HW289988   5.210   0.771  11.289
62719SOL     OW89989   4.951  11.095  11.008
62719SOL    HW189990   5.016  11.102  11.078
62719SOL    HW289991   4.984  11.027  10.950
62720SOL     OW89992  13.497  13.254   1.208
62720SOL    HW189993  13.461  13.297   1.286
62720SOL    HW289994  13.575  13.305   1.186
62721SOL     OW89995   2.588   7.693  13.828
62721SOL    HW189996   2.651   7.630  13.863
62721SOL    HW289997   2.626   7.779  13.848
62722SOL     OW89998  10.703  12.368   3.738
62722SOL    HW189999  10.745  12.380   3.654
62722SOL    HW290000  10.611  12.390   3.723
62723SOL     OW90001   4.332  14.464  10.978
62723SOL    HW190002   4.253  14.514  10.999
62723SOL    HW290003   4.308  14.412  10.901
62724SOL     OW90004   3.739  13.057   5.650
62724SOL    HW190005   3.733  13.058   5.746
62724SOL    HW290006   3.651  13.035   5.621
62725SOL     OW90007   5.584   0.320   8.571
62725SOL    HW190008   5.496   0.301   8.540
62725SOL    HW290009   5.637   0.324   8.491
62726SOL     OW90010   8.892   9.182  12.553
62726SOL    HW190011   8.879   9.118  12.623
62726SOL    HW290012   8.977   9.223  12.574
62727SOL     OW90013   0.074   3.971  13.908
62727SOL    HW190014   0.101   4.051  13.862
62727SOL    HW290015   0.021   3.924  13.844
62728SOL     OW90016   3.330  13.488  13.334
62728SOL    HW190017   3.273  13.536  13.394
62728SOL    HW290018   3.411  13.539  13.331
62729SOL     OW90019   1.304   0.556   9.798
62729SOL    HW190020   1.265   0.542   9.885
62729SOL    HW290021   1.229   0.559   9.739
62730SOL     OW90022  14.693  10.292   1.956
62730SOL    HW190023  14.681  10.386   1.947
62730SOL    HW290024  14.703  10.277   2.050
62731SOL     OW90025   5.686   5.619   4.588
62731SOL    HW190026   5.714   5.593   4.675
62731SOL    HW290027   5.602   5.574   4.575
62732SOL     OW90028  10.210  12.166   4.987
62732SOL    HW190029  10.153  12.106   5.034
62732SOL    HW290030  10.160  12.192   4.909
62733SOL     OW90031   3.140   1.765   9.381
62733SOL    HW190032   3.190   1.742   9.460
62733SOL    HW290033   3.206   1.772   9.312
62734SOL     OW90034  12.891   2.230   1.060
62734SOL    HW190035  12.896   2.182   1.142
62734SOL    HW290036  12.821   2.294   1.074
62735SOL     OW90037   6.484   7.311   5.858
62735SOL    HW190038   6.535   7.240   5.897
62735SOL    HW290039   6.415   7.267   5.808
62736SOL     OW90040   8.788  14.404  13.249
62736SOL    HW190041   8.759  14.396  13.340
62736SOL    HW290042   8.851  14.476  13.251
62737SOL     OW90043   2.194   6.480  14.288
62737SOL    HW190044   2.274   6.523  14.319
62737SOL    HW290045   2.131   6.493  14.359
62738SOL     OW90046   0.623  14.275  10.237
62738SOL    HW190047   0.705  14.227  10.245
62738SOL    HW290048   0.556  14.207  10.228
62739SOL     OW90049   2.701  12.578   7.380
62739SOL    HW190050   2.647  12.601   7.455
62739SOL    HW290051   2.673  12.638   7.311
62740SOL     OW90052   9.783   1.550   6.044
62740SOL    HW190053   9.878   1.554   6.055
62740SOL    HW290054   9.749   1.614   6.107
62741SOL     OW90055  13.736   7.646   4.551
62741SOL    HW190056  13.661   7.619   4.603
62741SOL    HW290057  13.703   7.717   4.497
62742SOL     OW90058   1.142   0.746   6.572
62742SOL    HW190059   1.131   0.664   6.523
62742SOL    HW290060   1.227   0.780   6.543
62743SOL     OW90061   7.395   0.034   5.135
62743SOL    HW190062   7.451   0.111   5.125
62743SOL    HW290063   7.403   0.011   5.228
62744SOL     OW90064  14.547  10.645  14.140
62744SOL    HW190065  14.595  10.629  14.222
62744SOL    HW290066  14.566  10.568  14.086
62745SOL     OW90067  14.416  11.131   5.353
62745SOL    HW190068  14.399  11.048   5.397
62745SOL    HW290069  14.364  11.126   5.273
62746SOL     OW90070  12.861  14.359   4.174
62746SOL    HW190071  12.883  14.305   4.250
62746SOL    HW290072  12.765  14.363   4.174
62747SOL     OW90073   0.553   0.195  14.425
62747SOL    HW190074   0.573   0.289  14.416
62747SOL    HW290075   0.484   0.192  14.491
62748SOL     OW90076   3.544   2.964   5.761
62748SOL    HW190077   3.466   2.957   5.816
62748SOL    HW290078   3.519   2.923   5.678
62749SOL     OW90079   0.235   1.856   8.058
62749SOL    HW190080   0.154   1.838   8.105
62749SOL    HW290081   0.304   1.823   8.115
62750SOL     OW90082  10.752  13.755  10.666
62750SOL    HW190083  10.800  13.785  10.743
62750SOL    HW290084  10.703  13.832  10.637
62751SOL     OW90085   8.121   6.361  12.553
62751SOL    HW190086   8.118   6.294  12.622
62751SOL    HW290087   8.075   6.436  12.590
62752SOL     OW90088  14.378   8.652   0.803
62752SOL    HW190089  14.334   8.693   0.729
62752SOL    HW290090  14.328   8.572   0.819
62753SOL     OW90091  10.793   9.106   0.446
62753SOL    HW190092  10.775   9.020   0.484
62753SOL    HW290093  10.707   9.136   0.414
62754SOL     OW90094   9.663   0.616  12.061
62754SOL    HW190095   9.752   0.651  12.064
62754SOL    HW290096   9.672   0.529  12.024
62755SOL     OW90097   5.806   2.327  14.226
62755SOL    HW190098   5.761   2.376  14.294
62755SOL    HW290099   5.748   2.253  14.207
62756SOL     OW90100   1.873   2.747   4.881
62756SOL    HW190101   1.887   2.815   4.815
62756SOL    HW290102   1.804   2.692   4.845
62757SOL     OW90103   0.584   0.539  14.030
62757SOL    HW190104   0.512   0.601  14.029
62757SOL    HW290105   0.662   0.593  14.038
62758SOL     OW90106   8.216   1.284  10.363
62758SOL    HW190107   8.244   1.206  10.316
62758SOL    HW290108   8.220   1.259  10.455
62759SOL     OW90109   2.907   7.493   0.896
62759SOL    HW190110   2.936   7.566   0.950
62759SOL    HW290111   2.985   7.465   0.849
62760SOL     OW90112   5.784   0.993   4.455
62760SOL    HW190113   5.841   0.995   4.532
62760SOL    HW290114   5.842   1.013   4.382
62761SOL     OW90115  11.005  14.020   5.606
62761SOL    HW190116  10.980  13.930   5.587
62761SOL    HW290117  11.054  14.048   5.528
62762SOL     OW90118   9.901   8.410  13.914
62762SOL    HW190119   9.838   8.338  13.916
62762SOL    HW290120   9.944   8.407  13.999
62763SOL     OW90121   0.688   6.740   8.837
62763SOL    HW190122   0.700   6.818   8.784
62763SOL    HW290123   0.727   6.669   8.785
62764SOL     OW90124   0.585   2.562   4.224
62764SOL    HW190125   0.501   2.604   4.209
62764SOL    HW290126   0.566   2.468   4.223
62765SOL     OW90127   0.508  11.829  13.176
62765SOL    HW190128   0.593  11.784  13.178
62765SOL    HW290129   0.469  11.810  13.261
62766SOL     OW90130   9.772   4.322   2.661
62766SOL    HW190131   9.749   4.369   2.581
62766SOL    HW290132   9.841   4.374   2.701
62767SOL     OW90133  10.382   5.686  13.643
62767SOL    HW190134  10.442   5.753  13.611
62767SOL    HW290135  10.404   5.607  13.593
62768SOL     OW90136   5.147  13.024   4.226
62768SOL    HW190137   5.125  13.026   4.319
62768SOL    HW290138   5.153  13.117   4.201
62769SOL     OW90139  13.285   1.606   4.130
62769SOL    HW190140  13.240   1.524   4.110
62769SOL    HW290141  13.246   1.634   4.214
62770SOL     OW90142  10.974   0.928  12.873
62770SOL    HW190143  10.912   0.864  12.837
62770SOL    HW290144  11.049   0.876  12.900
62771SOL     OW90145   8.158   7.540   8.388
62771SOL    HW190146   8.160   7.629   8.422
62771SOL    HW290147   8.237   7.533   8.334
62772SOL     OW90148  13.946   8.417   9.328
62772SOL    HW190149  14.032   8.390   9.296
62772SOL    HW290150  13.900   8.448   9.250
62773SOL     OW90151  10.346  14.628   6.993
62773SOL    HW190152  10.381  14.707   6.953
62773SOL    HW290153  10.297  14.585   6.923
62774SOL     OW90154   5.303  14.636   9.326
62774SOL    HW190155   5.307  14.548   9.289
62774SOL    HW290156   5.364  14.635   9.399
62775SOL     OW90157  10.278   0.371  14.046
62775SOL    HW190158  10.250   0.439  14.107
62775SOL    HW290159  10.340   0.318  14.095
62776SOL     OW90160   0.846   5.532  11.216
62776SOL    HW190161   0.765   5.481  11.220
62776SOL    HW290162   0.883   5.524  11.304
62777SOL     OW90163   0.680  12.695  10.157
62777SOL    HW190164   0.664  12.684  10.251
62777SOL    HW290165   0.594  12.719  10.122
62778SOL     OW90166  11.614  14.465   8.225
62778SOL    HW190167  11.684  14.413   8.186
62778SOL    HW290168  11.659  14.529   8.281
62779SOL     OW90169   0.264   8.223   7.028
62779SOL    HW190170   0.266   8.317   7.009
62779SOL    HW290171   0.345   8.189   6.989
62780SOL     OW90172  14.199   7.572  11.712
62780SOL    HW190173  14.210   7.505  11.644
62780SOL    HW290174  14.218   7.655  11.668
62781SOL     OW90175   4.793   8.883   1.597
62781SOL    HW190176   4.741   8.892   1.517
62781SOL    HW290177   4.736   8.918   1.666
62782SOL     OW90178   0.886   5.047  10.920
62782SOL    HW190179   0.885   5.123  10.861
62782SOL    HW290180   0.970   5.005  10.902
62783SOL     OW90181   1.888  13.912   8.644
62783SOL    HW190182   1.967  13.962   8.663
62783SOL    HW290183   1.838  13.968   8.584
62784SOL     OW90184   4.297   9.655   8.218
62784SOL    HW190185   4.374   9.712   8.214
62784SOL    HW290186   4.228   9.705   8.175
62785SOL     OW90187   0.794  11.376  10.798
62785SOL    HW190188   0.741  11.365  10.877
62785SOL    HW290189   0.764  11.307  10.739
62786SOL     OW90190   5.818   8.749   0.002
62786SOL    HW190191   5.876   8.825  14.879
62786SOL    HW290192   5.750   8.773   0.065
62787SOL     OW90193   7.777  11.460   1.446
62787SOL    HW190194   7.839  11.398   1.407
62787SOL    HW290195   7.695  11.411   1.451
62788SOL     OW90196  14.158  11.209   3.873
62788SOL    HW190197  14.126  11.158   3.949
62788SOL    HW290198  14.078  11.234   3.827
62789SOL     OW90199  14.022   1.082  12.259
62789SOL    HW190200  13.975   1.148  12.309
62789SOL    HW290201  14.064   1.026  12.325
62790SOL     OW90202   4.264  10.785  10.341
62790SOL    HW190203   4.176  10.799  10.306
62790SOL    HW290204   4.271  10.690  10.354
62791SOL     OW90205   6.186   1.455   9.190
62791SOL    HW190206   6.246   1.440   9.117
62791SOL    HW290207   6.223   1.402   9.261
62792SOL     OW90208   3.485   0.689  12.652
62792SOL    HW190209   3.486   0.784  12.639
62792SOL    HW290210   3.531   0.654  12.576
62793SOL     OW90211  12.726   6.843   8.884
62793SOL    HW190212  12.748   6.752   8.863
62793SOL    HW290213  12.644   6.838   8.932
62794SOL     OW90214   6.323   6.146  12.277
62794SOL    HW190215   6.363   6.223  12.237
62794SOL    HW290216   6.373   6.132  12.357
62795SOL     OW90217   1.252  13.424   2.657
62795SOL    HW190218   1.173  13.458   2.700
62795SOL    HW290219   1.307  13.501   2.643
62796SOL     OW90220  14.656   8.366   3.725
62796SOL    HW190221  14.725   8.395   3.785
62796SOL    HW290222  14.701   8.353   3.641
62797SOL     OW90223   4.874   1.647   3.730
62797SOL    HW190224   4.785   1.670   3.756
62797SOL    HW290225   4.928   1.718   3.765
62798SOL     OW90226   5.303   3.466   8.785
62798SOL    HW190227   5.350   3.545   8.812
62798SOL    HW290228   5.225   3.498   8.740
62799SOL     OW90229   3.510   8.849   6.636
62799SOL    HW190230   3.438   8.902   6.600
62799SOL    HW290231   3.577   8.851   6.567
62800SOL     OW90232   3.244   8.340   7.877
62800SOL    HW190233   3.330   8.328   7.918
62800SOL    HW290234   3.203   8.411   7.927
62801SOL     OW90235  10.397   0.343  10.415
62801SOL    HW190236  10.458   0.383  10.353
62801SOL    HW290237  10.439   0.355  10.500
62802SOL     OW90238   8.827   2.732   7.942
62802SOL    HW190239   8.800   2.658   7.996
62802SOL    HW290240   8.921   2.719   7.930
62803SOL     OW90241   6.534   2.364  11.211
62803SOL    HW190242   6.579   2.280  11.222
62803SOL    HW290243   6.479   2.373  11.289
62804SOL     OW90244   8.730   3.571  11.267
62804SOL    HW190245   8.733   3.475  11.274
62804SOL    HW290246   8.651   3.589  11.217
62805SOL     OW90247   2.507   2.712  14.277
62805SOL    HW190248   2.500   2.665  14.194
62805SOL    HW290249   2.440   2.672  14.333
62806SOL     OW90250   3.380   3.830   1.497
62806SOL    HW190251   3.463   3.845   1.543
62806SOL    HW290252   3.389   3.878   1.415
62807SOL     OW90253   1.429  12.952   7.081
62807SOL    HW190254   1.342  12.964   7.119
62807SOL    HW290255   1.489  12.984   7.148
62808SOL     OW90256   1.533   5.361   4.646
62808SOL    HW190257   1.456   5.409   4.615
62808SOL    HW290258   1.520   5.353   4.740
62809SOL     OW90259   6.755   5.953  14.336
62809SOL    HW190260   6.720   5.877  14.383
62809SOL    HW290261   6.726   6.029  14.387
62810SOL     OW90262   0.485   1.157   8.951
62810SOL    HW190263   0.396   1.173   8.920
62810SOL    HW290264   0.484   1.066   8.980
62811SOL     OW90265   6.871   0.154   0.512
62811SOL    HW190266   6.811   0.080   0.516
62811SOL    HW290267   6.954   0.116   0.483
62812SOL     OW90268   5.353   3.740  14.656
62812SOL    HW190269   5.446   3.731  14.677
62812SOL    HW290270   5.336   3.671  14.592
62813SOL     OW90271   7.516   9.656  12.626
62813SOL    HW190272   7.486   9.662  12.717
62813SOL    HW290273   7.457   9.593  12.585
62814SOL     OW90274   9.082  10.439  10.906
62814SOL    HW190275   9.149  10.495  10.944
62814SOL    HW290276   9.102  10.352  10.939
62815SOL     OW90277  13.893   3.122  14.371
62815SOL    HW190278  13.968   3.107  14.313
62815SOL    HW290279  13.902   3.214  14.396
62816SOL     OW90280   5.128  10.528   4.490
62816SOL    HW190281   5.179  10.499   4.566
62816SOL    HW290282   5.168  10.611   4.465
62817SOL     OW90283  11.270  11.476   9.574
62817SOL    HW190284  11.204  11.546   9.576
62817SOL    HW290285  11.252  11.425   9.653
62818SOL     OW90286   4.198   6.112   5.133
62818SOL    HW190287   4.174   6.020   5.123
62818SOL    HW290288   4.273   6.124   5.074
62819SOL     OW90289  13.952   3.048  14.867
62819SOL    HW190290  13.962   3.118  14.802
62819SOL    HW290291  14.033   2.997  14.858
62820SOL     OW90292   2.877   6.445   3.640
62820SOL    HW190293   2.793   6.449   3.595
62820SOL    HW290294   2.942   6.451   3.570
62821SOL     OW90295   7.804   4.304   5.311
62821SOL    HW190296   7.789   4.315   5.218
62821SOL    HW290297   7.745   4.366   5.353
62822SOL     OW90298   6.406   0.761   1.426
62822SOL    HW190299   6.325   0.784   1.380
62822SOL    HW290300   6.391   0.672   1.457
62823SOL     OW90301   1.763   7.128   9.492
62823SOL    HW190302   1.730   7.146   9.580
62823SOL    HW290303   1.735   7.038   9.474
62824SOL     OW90304   6.248   7.388  12.355
62824SOL    HW190305   6.329   7.349  12.322
62824SOL    HW290306   6.228   7.458  12.294
62825SOL     OW90307   0.354   7.958   7.961
62825SOL    HW190308   0.401   7.894   7.908
62825SOL    HW290309   0.262   7.946   7.938
62826SOL     OW90310  14.707   3.198  11.298
62826SOL    HW190311  14.648   3.246  11.356
62826SOL    HW290312  14.689   3.233  11.211
62827SOL     OW90313  14.230   8.218  11.713
62827SOL    HW190314  14.280   8.280  11.660
62827SOL    HW290315  14.141   8.225  11.681
62828SOL     OW90316   8.345   1.777   5.277
62828SOL    HW190317   8.365   1.687   5.254
62828SOL    HW290318   8.295   1.811   5.203
62829SOL     OW90319   3.190   4.325   9.149
62829SOL    HW190320   3.122   4.272   9.109
62829SOL    HW290321   3.185   4.306   9.242
62830SOL     OW90322  14.216   4.042   2.803
62830SOL    HW190323  14.207   3.994   2.885
62830SOL    HW290324  14.234   3.974   2.737
62831SOL     OW90325  12.731   5.786   0.579
62831SOL    HW190326  12.672   5.822   0.645
62831SOL    HW290327  12.800   5.742   0.629
62832SOL     OW90328   6.137   3.783   7.140
62832SOL    HW190329   6.226   3.756   7.119
62832SOL    HW290330   6.087   3.763   7.061
62833SOL     OW90331  13.473   3.284  12.614
62833SOL    HW190332  13.563   3.316  12.627
62833SOL    HW290333  13.457   3.294  12.520
62834SOL     OW90334   0.793   3.400   8.503
62834SOL    HW190335   0.815   3.491   8.519
62834SOL    HW290336   0.717   3.404   8.444
62835SOL     OW90337   6.216   5.653   4.681
62835SOL    HW190338   6.206   5.718   4.612
62835SOL    HW290339   6.163   5.686   4.753
62836SOL     OW90340   9.144   7.660  11.365
62836SOL    HW190341   9.192   7.643  11.284
62836SOL    HW290342   9.106   7.575  11.388
62837SOL     OW90343  11.039   5.731   8.956
62837SOL    HW190344  10.982   5.806   8.938
62837SOL    HW290345  10.997   5.657   8.911
62838SOL     OW90346  10.251   6.312   0.456
62838SOL    HW190347  10.280   6.263   0.379
62838SOL    HW290348  10.267   6.253   0.529
62839SOL     OW90349   6.176  13.060  11.277
62839SOL    HW190350   6.150  13.149  11.302
62839SOL    HW290351   6.188  13.064  11.182
62840SOL     OW90352   6.844   1.378   2.750
62840SOL    HW190353   6.924   1.430   2.760
62840SOL    HW290354   6.870   1.289   2.772
62841SOL     OW90355   4.125  12.335   8.852
62841SOL    HW190356   4.032  12.358   8.843
62841SOL    HW290357   4.171  12.394   8.793
62842SOL     OW90358  13.876   7.205   8.586
62842SOL    HW190359  13.789   7.176   8.559
62842SOL    HW290360  13.872   7.209   8.681
62843SOL     OW90361   9.149   2.784   3.957
62843SOL    HW190362   9.241   2.767   3.977
62843SOL    HW290363   9.131   2.869   3.996
62844SOL     OW90364   2.724  13.372   3.358
62844SOL    HW190365   2.665  13.395   3.287
62844SOL    HW290366   2.669  13.371   3.436
62845SOL     OW90367   2.838   0.273   5.069
62845SOL    HW190368   2.850   0.362   5.037
62845SOL    HW290369   2.915   0.225   5.038
62846SOL     OW90370   4.910   5.049   2.562
62846SOL    HW190371   4.982   5.101   2.599
62846SOL    HW290372   4.901   4.974   2.622
62847SOL     OW90373   8.553   1.407  13.874
62847SOL    HW190374   8.517   1.323  13.903
62847SOL    HW290375   8.595   1.443  13.952
62848SOL     OW90376   2.967  11.257   4.807
62848SOL    HW190377   3.011  11.179   4.841
62848SOL    HW290378   2.909  11.284   4.877
62849SOL     OW90379   9.001   0.791   1.263
62849SOL    HW190380   8.950   0.785   1.344
62849SOL    HW290381   9.064   0.861   1.279
62850SOL     OW90382  10.994   6.832   6.278
62850SOL    HW190383  10.924   6.895   6.260
62850SOL    HW290384  11.045   6.829   6.198
62851SOL     OW90385   8.029  14.283   5.996
62851SOL    HW190386   8.011  14.296   5.903
62851SOL    HW290387   7.948  14.307   6.039
62852SOL     OW90388   6.907   8.921   0.329
62852SOL    HW190389   6.845   8.977   0.377
62852SOL    HW290390   6.878   8.926   0.238
62853SOL     OW90391   8.996   9.438  13.975
62853SOL    HW190392   8.980   9.508  13.911
62853SOL    HW290393   9.057   9.379  13.930
62854SOL     OW90394   7.561   2.926  11.612
62854SOL    HW190395   7.602   2.959  11.532
62854SOL    HW290396   7.599   2.839  11.624
62855SOL     OW90397   1.152   1.690   6.020
62855SOL    HW190398   1.183   1.600   6.013
62855SOL    HW290399   1.154   1.709   6.114
62856SOL     OW90400   6.117   4.466   5.713
62856SOL    HW190401   6.138   4.473   5.806
62856SOL    HW290402   6.120   4.372   5.694
62857SOL     OW90403   3.613   8.103  13.311
62857SOL    HW190404   3.684   8.039  13.312
62857SOL    HW290405   3.567   8.088  13.393
62858SOL     OW90406  13.755  13.122   0.608
62858SOL    HW190407  13.802  13.194   0.651
62858SOL    HW290408  13.722  13.068   0.680
62859SOL     OW90409   1.401  10.196   0.768
62859SOL    HW190410   1.329  10.253   0.795
62859SOL    HW290411   1.443  10.244   0.696
62860SOL     OW90412  13.055   5.613  11.318
62860SOL    HW190413  13.045   5.617  11.223
62860SOL    HW290414  13.146   5.639  11.333
62861SOL     OW90415   0.847  10.615   2.888
62861SOL    HW190416   0.782  10.651   2.827
62861SOL    HW290417   0.865  10.687   2.949
62862SOL     OW90418   2.770  14.389  14.373
62862SOL    HW190419   2.822  14.433  14.306
62862SOL    HW290420   2.693  14.357  14.327
62863SOL     OW90421  12.738   5.312   4.960
62863SOL    HW190422  12.798   5.361   5.016
62863SOL    HW290423  12.676   5.377   4.929
62864SOL     OW90424   9.090   6.833   6.008
62864SOL    HW190425   8.999   6.834   6.038
62864SOL    HW290426   9.111   6.926   5.995
62865SOL     OW90427   2.038  11.791   7.214
62865SOL    HW190428   2.023  11.879   7.179
62865SOL    HW290429   1.950  11.752   7.218
62866SOL     OW90430   6.018  11.211   3.995
62866SOL    HW190431   6.071  11.260   3.933
62866SOL    HW290432   5.955  11.163   3.941
62867SOL     OW90433   1.179   4.403   5.805
62867SOL    HW190434   1.117   4.446   5.864
62867SOL    HW290435   1.252   4.377   5.861
62868SOL     OW90436  10.132  14.102   0.358
62868SOL    HW190437  10.041  14.131   0.349
62868SOL    HW290438  10.182  14.184   0.369
62869SOL     OW90439   1.728   0.830   6.083
62869SOL    HW190440   1.703   0.786   6.001
62869SOL    HW290441   1.796   0.892   6.056
62870SOL     OW90442   0.801   1.889   3.361
62870SOL    HW190443   0.717   1.927   3.388
62870SOL    HW290444   0.786   1.861   3.271
62871SOL     OW90445   9.372   6.568  11.172
62871SOL    HW190446   9.323   6.530  11.098
62871SOL    HW290447   9.453   6.600  11.134
62872SOL     OW90448  10.624  13.966   9.529
62872SOL    HW190449  10.534  13.951   9.557
62872SOL    HW290450  10.673  13.983   9.609
62873SOL     OW90451   1.995  10.534   0.880
62873SOL    HW190452   2.088  10.545   0.859
62873SOL    HW290453   1.954  10.614   0.849
62874SOL     OW90454   2.348   3.705   7.247
62874SOL    HW190455   2.334   3.690   7.341
62874SOL    HW290456   2.321   3.623   7.206
62875SOL     OW90457   2.177   9.158   9.283
62875SOL    HW190458   2.220   9.175   9.367
62875SOL    HW290459   2.150   9.244   9.252
62876SOL     OW90460   3.415   3.880  10.278
62876SOL    HW190461   3.322   3.873  10.300
62876SOL    HW290462   3.457   3.906  10.359
62877SOL     OW90463   5.112   8.180   1.590
62877SOL    HW190464   5.156   8.231   1.522
62877SOL    HW290465   5.091   8.244   1.658
62878SOL     OW90466   5.829   8.005  12.383
62878SOL    HW190467   5.783   7.922  12.391
62878SOL    HW290468   5.774   8.067  12.432
62879SOL     OW90469  13.496   7.960   9.731
62879SOL    HW190470  13.551   8.010   9.672
62879SOL    HW290471  13.462   8.024   9.793
62880SOL     OW90472  10.459   1.561   7.216
62880SOL    HW190473  10.508   1.619   7.158
62880SOL    HW290474  10.449   1.480   7.165
62881SOL     OW90475   7.262   6.234   8.518
62881SOL    HW190476   7.190   6.183   8.481
62881SOL    HW290477   7.275   6.306   8.456
62882SOL     OW90478   3.828  10.019  14.494
62882SOL    HW190479   3.798  10.095  14.443
62882SOL    HW290480   3.758   9.954  14.483
62883SOL     OW90481  14.737   7.215   0.599
62883SOL    HW190482  14.786   7.197   0.679
62883SOL    HW290483  14.725   7.310   0.600
62884SOL     OW90484  14.802  14.839   6.309
62884SOL    HW190485   0.003   0.012   6.309
62884SOL    HW290486  14.762  14.857   6.394
62885SOL     OW90487   2.901   9.923  10.778
62885SOL    HW190488   2.969   9.856  10.776
62885SOL    HW290489   2.894   9.953  10.688
62886SOL     OW90490  13.926  10.072   1.611
62886SOL    HW190491  13.994  10.129   1.575
62886SOL    HW290492  13.971   9.990   1.631
62887SOL     OW90493   9.144  11.548   8.441
62887SOL    HW190494   9.228  11.533   8.485
62887SOL    HW290495   9.138  11.478   8.376
62888SOL     OW90496   3.495   1.059  10.946
62888SOL    HW190497   3.426   1.005  10.983
62888SOL    HW290498   3.460   1.089  10.862
62889SOL     OW90499   9.316  10.692  11.313
62889SOL    HW190500   9.253  10.633  11.353
62889SOL    HW290501   9.376  10.715  11.385
62890SOL     OW90502   1.636  10.714  13.198
62890SOL    HW190503   1.624  10.806  13.174
62890SOL    HW290504   1.602  10.665  13.123
62891SOL     OW90505  11.351  12.799   1.639
62891SOL    HW190506  11.284  12.863   1.612
62891SOL    HW290507  11.402  12.845   1.705
62892SOL     OW90508   7.524   4.693   9.603
62892SOL    HW190509   7.480   4.740   9.533
62892SOL    HW290510   7.538   4.760   9.671
62893SOL     OW90511   9.489  13.913   8.858
62893SOL    HW190512   9.448  13.969   8.924
62893SOL    HW290513   9.577  13.949   8.848
62894SOL     OW90514   9.062  10.323   9.799
62894SOL    HW190515   9.032  10.257   9.862
62894SOL    HW290516   9.147  10.352   9.833
62895SOL     OW90517   0.166   2.495   4.217
62895SOL    HW190518   0.207   2.558   4.158
62895SOL    HW290519   0.181   2.410   4.175
62896SOL     OW90520  10.004   9.383  11.237
62896SOL    HW190521  10.045   9.355  11.319
62896SOL    HW290522   9.928   9.325  11.226
62897SOL     OW90523   2.559   3.167   3.396
62897SOL    HW190524   2.539   3.256   3.367
62897SOL    HW290525   2.588   3.122   3.316
62898SOL     OW90526  10.938   5.499  10.099
62898SOL    HW190527  10.917   5.468  10.011
62898SOL    HW290528  11.013   5.446  10.125
62899SOL     OW90529   4.396   4.262  11.473
62899SOL    HW190530   4.466   4.283  11.411
62899SOL    HW290531   4.373   4.346  11.513
62900SOL     OW90532   3.822   2.062   9.377
62900SOL    HW190533   3.850   2.002   9.446
62900SOL    HW290534   3.785   2.137   9.425
62901SOL     OW90535  11.508   3.952   8.321
62901SOL    HW190536  11.555   3.873   8.296
62901SOL    HW290537  11.550   4.022   8.270
62902SOL     OW90538   1.760   3.396   2.519
62902SOL    HW190539   1.706   3.337   2.465
62902SOL    HW290540   1.722   3.389   2.606
62903SOL     OW90541   5.845  12.834  13.940
62903SOL    HW190542   5.820  12.759  13.887
62903SOL    HW290543   5.888  12.894  13.880
62904SOL     OW90544   1.609  11.441   3.713
62904SOL    HW190545   1.552  11.401   3.647
62904SOL    HW290546   1.621  11.373   3.779
62905SOL     OW90547   1.796  10.819  13.392
62905SOL    HW190548   1.798  10.741  13.337
62905SOL    HW290549   1.759  10.887  13.335
62906SOL     OW90550  12.753   8.409   6.438
62906SOL    HW190551  12.760   8.475   6.506
62906SOL    HW290552  12.837   8.362   6.441
62907SOL     OW90553   5.225   4.654   1.491
62907SOL    HW190554   5.272   4.574   1.467
62907SOL    HW290555   5.201   4.694   1.408
62908SOL     OW90556   3.361  14.132   9.676
62908SOL    HW190557   3.385  14.059   9.733
62908SOL    HW290558   3.292  14.097   9.619
62909SOL     OW90559  10.496   6.330   0.766
62909SOL    HW190560  10.579   6.289   0.745
62909SOL    HW290561  10.437   6.257   0.785
62910SOL     OW90562   1.099   9.170   0.679
62910SOL    HW190563   1.052   9.109   0.736
62910SOL    HW290564   1.128   9.117   0.605
62911SOL     OW90565  11.918   1.138   3.494
62911SOL    HW190566  11.879   1.053   3.513
62911SOL    HW290567  11.846   1.200   3.503
62912SOL     OW90568   1.207   6.245   8.522
62912SOL    HW190569   1.286   6.256   8.469
62912SOL    HW290570   1.175   6.158   8.500
62913SOL     OW90571  12.443  11.969  11.241
62913SOL    HW190572  12.489  11.983  11.324
62913SOL    HW290573  12.499  12.011  11.175
62914SOL     OW90574  13.593  13.417   2.206
62914SOL    HW190575  13.583  13.322   2.195
62914SOL    HW290576  13.531  13.455   2.143
62915SOL     OW90577   9.949  12.914   6.765
62915SOL    HW190578  10.011  12.954   6.826
62915SOL    HW290579   9.915  12.838   6.812
62916SOL     OW90580   9.478  11.962   3.096
62916SOL    HW190581   9.448  11.922   3.177
62916SOL    HW290582   9.513  11.890   3.044
62917SOL     OW90583   1.588   4.695   1.103
62917SOL    HW190584   1.539   4.740   1.172
62917SOL    HW290585   1.593   4.759   1.032
62918SOL     OW90586  13.694   8.110   0.424
62918SOL    HW190587  13.740   8.066   0.353
62918SOL    HW290588  13.734   8.075   0.504
62919SOL     OW90589   7.327   5.284   9.055
62919SOL    HW190590   7.332   5.379   9.061
62919SOL    HW290591   7.280   5.268   8.973
62920SOL     OW90592  14.027   7.343   6.388
62920SOL    HW190593  14.005   7.401   6.461
62920SOL    HW290594  14.120   7.356   6.373
62921SOL     OW90595  12.557  14.500   6.862
62921SOL    HW190596  12.653  14.506   6.857
62921SOL    HW290597  12.528  14.505   6.771
62922SOL     OW90598   4.720   6.145   6.357
62922SOL    HW190599   4.688   6.089   6.286
62922SOL    HW290600   4.752   6.084   6.423
62923SOL     OW90601  10.882   6.584  12.393
62923SOL    HW190602  10.810   6.605  12.453
62923SOL    HW290603  10.919   6.503  12.428
62924SOL     OW90604  12.162  11.812   0.597
62924SOL    HW190605  12.174  11.782   0.507
62924SOL    HW290606  12.182  11.906   0.595
62925SOL     OW90607  10.953   0.281  11.123
62925SOL    HW190608  10.859   0.290  11.104
62925SOL    HW290609  10.966   0.188  11.137
62926SOL     OW90610  10.204  13.748   7.452
62926SOL    HW190611  10.127  13.799   7.474
62926SOL    HW290612  10.197  13.734   7.357
62927SOL     OW90613  13.712   4.793  13.566
62927SOL    HW190614  13.638   4.829  13.614
62927SOL    HW290615  13.690   4.806  13.474
62928SOL     OW90616   2.889   2.818  12.300
62928SOL    HW190617   2.878   2.819  12.395
62928SOL    HW290618   2.968   2.765  12.286
62929SOL     OW90619   3.479   1.617   7.810
62929SOL    HW190620   3.483   1.568   7.729
62929SOL    HW290621   3.464   1.551   7.878
62930SOL     OW90622   2.183   0.184   1.475
62930SOL    HW190623   2.188   0.275   1.448
62930SOL    HW290624   2.268   0.147   1.452
62931SOL     OW90625   5.557   0.566   5.458
62931SOL    HW190626   5.516   0.556   5.543
62931SOL    HW290627   5.568   0.660   5.447
62932SOL     OW90628  11.680   9.790   4.842
62932SOL    HW190629  11.615   9.730   4.808
62932SOL    HW290630  11.638   9.831   4.918
62933SOL     OW90631   5.578   0.385   1.469
62933SOL    HW190632   5.488   0.389   1.438
62933SOL    HW290633   5.577   0.320   1.539
62934SOL     OW90634  10.469   5.281  13.167
62934SOL    HW190635  10.454   5.359  13.113
62934SOL    HW290636  10.430   5.303  13.252
62935SOL     OW90637   0.359   2.488  12.981
62935SOL    HW190638   0.345   2.468  12.888
62935SOL    HW290639   0.408   2.413  13.014
62936SOL     OW90640   8.010  10.332   6.205
62936SOL    HW190641   7.925  10.296   6.180
62936SOL    HW290642   7.991  10.421   6.234
62937SOL     OW90643   8.637   7.656   2.708
62937SOL    HW190644   8.607   7.696   2.790
62937SOL    HW290645   8.687   7.580   2.736
62938SOL     OW90646   1.747   5.488   3.875
62938SOL    HW190647   1.661   5.476   3.915
62938SOL    HW290648   1.807   5.438   3.931
62939SOL     OW90649   0.748   8.940   2.012
62939SOL    HW190650   0.833   8.940   2.057
62939SOL    HW290651   0.690   8.988   2.071
62940SOL     OW90652   9.713  10.206   7.612
62940SOL    HW190653   9.639  10.205   7.551
62940SOL    HW290654   9.689  10.143   7.680
62941SOL     OW90655  14.205  10.096   8.212
62941SOL    HW190656  14.134  10.159   8.220
62941SOL    HW290657  14.163  10.016   8.183
62942SOL     OW90658   5.258   1.943   5.660
62942SOL    HW190659   5.339   1.995   5.655
62942SOL    HW290660   5.239   1.919   5.570
62943SOL     OW90661   2.251   4.486   0.433
62943SOL    HW190662   2.184   4.428   0.399
62943SOL    HW290663   2.321   4.485   0.368
62944SOL     OW90664  13.955  10.253  13.935
62944SOL    HW190665  13.945  10.217  13.847
62944SOL    HW290666  13.879  10.221  13.983
62945SOL     OW90667   5.270   1.676   3.666
62945SOL    HW190668   5.286   1.656   3.574
62945SOL    HW290669   5.314   1.759   3.681
62946SOL     OW90670  10.279   8.792  10.320
62946SOL    HW190671  10.254   8.700  10.312
62946SOL    HW290672  10.196   8.840  10.311
62947SOL     OW90673   2.633  14.447  13.496
62947SOL    HW190674   2.718  14.475  13.529
62947SOL    HW290675   2.572  14.515  13.526
62948SOL     OW90676   4.879   0.783   7.358
62948SOL    HW190677   4.954   0.738   7.321
62948SOL    HW290678   4.903   0.800   7.449
62949SOL     OW90679  12.192  14.568  13.393
62949SOL    HW190680  12.248  14.580  13.469
62949SOL    HW290681  12.193  14.653  13.349
62950SOL     OW90682   5.744   4.404  13.771
62950SOL    HW190683   5.755   4.423  13.864
62950SOL    HW290684   5.684   4.470  13.739
62951SOL     OW90685   6.970   8.364  12.996
62951SOL    HW190686   6.905   8.341  12.930
62951SOL    HW290687   7.048   8.386  12.946
62952SOL     OW90688  14.027   9.877   0.967
62952SOL    HW190689  14.021   9.933   1.044
62952SOL    HW290690  14.044   9.938   0.895
62953SOL     OW90691  14.607   5.086   2.790
62953SOL    HW190692  14.539   5.146   2.821
62953SOL    HW290693  14.569   5.043   2.714
62954SOL     OW90694   1.815  12.178   3.618
62954SOL    HW190695   1.856  12.258   3.585
62954SOL    HW290696   1.795  12.197   3.709
62955SOL     OW90697  12.883  13.990   6.932
62955SOL    HW190698  12.839  13.907   6.914
62955SOL    HW290699  12.920  14.017   6.848
62956SOL     OW90700   9.464   6.376  13.619
62956SOL    HW190701   9.536   6.391  13.558
62956SOL    HW290702   9.492   6.415  13.701
62957SOL     OW90703   0.612  10.481   2.695
62957SOL    HW190704   0.575  10.523   2.772
62957SOL    HW290705   0.641  10.553   2.639
62958SOL     OW90706  13.814   2.711   9.514
62958SOL    HW190707  13.778   2.695   9.427
62958SOL    HW290708  13.737   2.716   9.571
62959SOL     OW90709  10.803  10.364   8.046
62959SOL    HW190710  10.770  10.449   8.075
62959SOL    HW290711  10.757  10.300   8.100
62960SOL     OW90712  11.163   2.433  11.442
62960SOL    HW190713  11.209   2.352  11.423
62960SOL    HW290714  11.070   2.409  11.437
62961SOL     OW90715   7.211   0.247   4.243
62961SOL    HW190716   7.271   0.319   4.223
62961SOL    HW290717   7.158   0.238   4.164
62962SOL     OW90718   9.152  11.520  10.480
62962SOL    HW190719   9.134  11.478  10.565
62962SOL    HW290720   9.220  11.585  10.500
62963SOL     OW90721   6.041   4.887  14.530
62963SOL    HW190722   6.038   4.939  14.450
62963SOL    HW290723   6.047   4.952  14.600
62964SOL     OW90724   0.277   6.904   0.619
62964SOL    HW190725   0.275   6.809   0.617
62964SOL    HW290726   0.229   6.931   0.540
62965SOL     OW90727  14.384   3.249   8.463
62965SOL    HW190728  14.290   3.238   8.480
62965SOL    HW290729  14.387   3.309   8.389
62966SOL     OW90730   7.040  14.132   1.367
62966SOL    HW190731   7.124  14.086   1.364
62966SOL    HW290732   6.989  14.093   1.296
62967SOL     OW90733   4.927   4.564   3.990
62967SOL    HW190734   5.011   4.518   3.987
62967SOL    HW290735   4.877   4.525   3.918
62968SOL     OW90736   2.772   6.670  12.079
62968SOL    HW190737   2.794   6.760  12.099
62968SOL    HW290738   2.752   6.670  11.985
62969SOL     OW90739   8.625   8.293   5.798
62969SOL    HW190740   8.531   8.285   5.811
62969SOL    HW290741   8.636   8.299   5.703
62970SOL     OW90742   9.712   8.995  10.157
62970SOL    HW190743   9.720   8.959  10.245
62970SOL    HW290744   9.789   8.963  10.110
62971SOL     OW90745   9.713   1.506   8.159
62971SOL    HW190746   9.687   1.569   8.092
62971SOL    HW290747   9.650   1.518   8.230
62972SOL     OW90748  10.665   4.698   9.080
62972SOL    HW190749  10.688   4.761   9.012
62972SOL    HW290750  10.570   4.701   9.085
62973SOL     OW90751   3.526   5.774   6.802
62973SOL    HW190752   3.610   5.820   6.794
62973SOL    HW290753   3.491   5.774   6.713
62974SOL     OW90754  12.261   7.883  12.359
62974SOL    HW190755  12.227   7.883  12.269
62974SOL    HW290756  12.354   7.902  12.350
62975SOL     OW90757   6.214   1.945  13.786
62975SOL    HW190758   6.148   1.966  13.852
62975SOL    HW290759   6.178   1.870  13.739
62976SOL     OW90760   7.738   6.167   0.321
62976SOL    HW190761   7.775   6.233   0.262
62976SOL    HW290762   7.643   6.180   0.314
62977SOL     OW90763   9.985   2.847   3.636
62977SOL    HW190764   9.895   2.817   3.653
62977SOL    HW290765  10.040   2.785   3.685
62978SOL     OW90766  13.025   6.259   7.801
62978SOL    HW190767  12.976   6.221   7.874
62978SOL    HW290768  13.108   6.287   7.840
62979SOL     OW90769   7.770   4.345   4.424
62979SOL    HW190770   7.770   4.249   4.420
62979SOL    HW290771   7.839   4.371   4.363
62980SOL     OW90772   2.441  10.884   4.589
62980SOL    HW190773   2.402  10.968   4.565
62980SOL    HW290774   2.392  10.857   4.667
62981SOL     OW90775   3.808   6.115   5.977
62981SOL    HW190776   3.751   6.118   5.900
62981SOL    HW290777   3.870   6.044   5.959
62982SOL     OW90778   3.182   5.199   7.249
62982SOL    HW190779   3.217   5.269   7.193
62982SOL    HW290780   3.249   5.188   7.317
62983SOL     OW90781   7.025   6.761  14.656
62983SOL    HW190782   7.090   6.794  14.594
62983SOL    HW290783   7.055   6.792  14.741
62984SOL     OW90784  13.828  12.353  14.419
62984SOL    HW190785  13.769  12.424  14.397
62984SOL    HW290786  13.916  12.390  14.407
62985SOL     OW90787   9.811  12.747   2.840
62985SOL    HW190788   9.738  12.752   2.778
62985SOL    HW290789   9.819  12.654   2.860
62986SOL     OW90790  13.362  13.912  13.419
62986SOL    HW190791  13.409  13.991  13.394
62986SOL    HW290792  13.274  13.924  13.383
62987SOL     OW90793   5.841   7.780  11.768
62987SOL    HW190794   5.760   7.820  11.799
62987SOL    HW290795   5.821   7.687  11.762
62988SOL     OW90796  14.073   5.300   7.486
62988SOL    HW190797  14.120   5.287   7.404
62988SOL    HW290798  14.029   5.217   7.502
62989SOL     OW90799   3.359  12.926   3.909
62989SOL    HW190800   3.418  12.883   3.971
62989SOL    HW290801   3.281  12.870   3.908
62990SOL     OW90802   2.104  13.601   5.612
62990SOL    HW190803   2.101  13.601   5.707
62990SOL    HW290804   2.186  13.647   5.590
62991SOL     OW90805  10.390  11.489  14.702
62991SOL    HW190806  10.295  11.488  14.694
62991SOL    HW290807  10.418  11.404  14.669
62992SOL     OW90808  11.569   8.086   7.888
62992SOL    HW190809  11.585   8.171   7.929
62992SOL    HW290810  11.650   8.037   7.902
62993SOL     OW90811   8.896   2.657   9.070
62993SOL    HW190812   8.839   2.689   9.140
62993SOL    HW290813   8.878   2.563   9.066
62994SOL     OW90814   8.808   2.480   6.632
62994SOL    HW190815   8.861   2.556   6.607
62994SOL    HW290816   8.831   2.412   6.568
62995SOL     OW90817   3.946   5.814   9.288
62995SOL    HW190818   3.919   5.741   9.344
62995SOL    HW290819   3.871   5.874   9.289
62996SOL     OW90820   7.586   7.852  13.129
62996SOL    HW190821   7.552   7.773  13.086
62996SOL    HW290822   7.653   7.885  13.069
62997SOL     OW90823   3.150  12.865   2.691
62997SOL    HW190824   3.132  12.849   2.784
62997SOL    HW290825   3.138  12.779   2.650
62998SOL     OW90826   0.604   9.779   3.540
62998SOL    HW190827   0.552   9.700   3.527
62998SOL    HW290828   0.558   9.827   3.608
62999SOL     OW90829   6.621  11.112   0.603
62999SOL    HW190830   6.620  11.114   0.699
62999SOL    HW290831   6.532  11.086   0.579
63000SOL     OW90832   5.485   1.696   6.171
63000SOL    HW190833   5.555   1.759   6.154
63000SOL    HW290834   5.466   1.706   6.264
63001SOL     OW90835   4.944   9.750   8.926
63001SOL    HW190836   5.009   9.710   8.869
63001SOL    HW290837   4.942   9.693   9.003
63002SOL     OW90838  12.195  14.361   8.512
63002SOL    HW190839  12.242  14.392   8.590
63002SOL    HW290840  12.234  14.410   8.440
63003SOL     OW90841  13.932   3.866   0.855
63003SOL    HW190842  13.994   3.853   0.927
63003SOL    HW290843  13.985   3.853   0.776
63004SOL     OW90844  13.757   7.168   5.015
63004SOL    HW190845  13.724   7.099   5.072
63004SOL    HW290846  13.819   7.217   5.070
63005SOL     OW90847   3.252   9.956  14.819
63005SOL    HW190848   3.329   9.986  14.770
63005SOL    HW290849   3.240  10.021   0.009
63006SOL     OW90850  14.081   5.733   1.242
63006SOL    HW190851  14.087   5.663   1.308
63006SOL    HW290852  13.987   5.742   1.225
63007SOL     OW90853   4.668  13.471   9.995
63007SOL    HW190854   4.610  13.403   9.961
63007SOL    HW290855   4.609  13.541  10.024
63008SOL     OW90856  14.807  11.645   7.559
63008SOL    HW190857  14.717  11.664   7.586
63008SOL    HW290858  14.800  11.615   7.469
63009SOL     OW90859  14.272   7.220   1.299
63009SOL    HW190860  14.266   7.142   1.244
63009SOL    HW290861  14.353   7.263   1.269
63010SOL     OW90862  10.849   1.549   0.685
63010SOL    HW190863  10.764   1.588   0.702
63010SOL    HW290864  10.830   1.459   0.660
63011SOL     OW90865   0.097  11.707  14.492
63011SOL    HW190866   0.133  11.678  14.576
63011SOL    HW290867   0.142  11.789  14.473
63012SOL     OW90868   7.152   0.419   0.452
63012SOL    HW190869   7.127   0.459   0.369
63012SOL    HW290870   7.203   0.342   0.427
63013SOL     OW90871  11.357   8.750   0.733
63013SOL    HW190872  11.279   8.710   0.772
63013SOL    HW290873  11.429   8.694   0.763
63014SOL     OW90874   5.111   0.331  12.475
63014SOL    HW190875   5.186   0.344  12.534
63014SOL    HW290876   5.131   0.385  12.399
63015SOL     OW90877   6.319  11.219   8.584
63015SOL    HW190878   6.340  11.266   8.503
63015SOL    HW290879   6.323  11.286   8.652
63016SOL     OW90880  12.677  11.603   4.183
63016SOL    HW190881  12.646  11.605   4.092
63016SOL    HW290882  12.762  11.560   4.178
63017SOL     OW90883  12.005   7.069  14.532
63017SOL    HW190884  11.910   7.076  14.528
63017SOL    HW290885  12.025   6.987  14.489
63018SOL     OW90886  12.813   2.538   7.664
63018SOL    HW190887  12.786   2.492   7.585
63018SOL    HW290888  12.900   2.502   7.684
63019SOL     OW90889  10.844   6.368   2.009
63019SOL    HW190890  10.810   6.286   2.044
63019SOL    HW290891  10.785   6.391   1.937
63020SOL     OW90892   8.451   2.673   7.704
63020SOL    HW190893   8.519   2.617   7.742
63020SOL    HW290894   8.424   2.626   7.624
63021SOL     OW90895   4.492  12.742   9.719
63021SOL    HW190896   4.432  12.724   9.791
63021SOL    HW290897   4.573  12.769   9.761
63022SOL     OW90898   1.978  12.824   9.268
63022SOL    HW190899   2.051  12.771   9.235
63022SOL    HW290900   1.994  12.911   9.230
63023SOL     OW90901   7.727   9.301  14.494
63023SOL    HW190902   7.713   9.366  14.563
63023SOL    HW290903   7.674   9.226  14.521
63024SOL     OW90904   1.793  12.688  11.371
63024SOL    HW190905   1.766  12.662  11.459
63024SOL    HW290906   1.718  12.665  11.316
63025SOL     OW90907  10.345   0.554  10.904
63025SOL    HW190908  10.293   0.538  10.825
63025SOL    HW290909  10.425   0.503  10.890
63026SOL     OW90910  11.341   7.581  10.197
63026SOL    HW190911  11.285   7.507  10.220
63026SOL    HW290912  11.427   7.542  10.178
63027SOL     OW90913   7.871   6.950   7.269
63027SOL    HW190914   7.914   6.865   7.272
63027SOL    HW290915   7.934   7.011   7.307
63028SOL     OW90916   8.259  11.103   6.324
63028SOL    HW190917   8.286  11.077   6.412
63028SOL    HW290918   8.205  11.031   6.292
63029SOL     OW90919  12.937  12.251  11.379
63029SOL    HW190920  12.914  12.333  11.334
63029SOL    HW290921  12.902  12.262  11.467
63030SOL     OW90922   0.303   7.901  13.389
63030SOL    HW190923   0.288   7.987  13.349
63030SOL    HW290924   0.377   7.865  13.340
63031SOL     OW90925  11.779   7.760  11.679
63031SOL    HW190926  11.812   7.670  11.678
63031SOL    HW290927  11.752   7.777  11.589
63032SOL     OW90928  10.259  11.141   8.798
63032SOL    HW190929  10.252  11.220   8.744
63032SOL    HW290930  10.206  11.076   8.752
63033SOL     OW90931  11.441  14.007   9.198
63033SOL    HW190932  11.460  13.955   9.120
63033SOL    HW290933  11.408  14.090   9.164
63034SOL     OW90934   8.052   6.052  12.257
63034SOL    HW190935   8.094   6.118  12.202
63034SOL    HW290936   8.113   5.979  12.257
63035SOL     OW90937   1.939   8.440  13.664
63035SOL    HW190938   1.915   8.514  13.720
63035SOL    HW290939   1.860   8.386  13.661
63036SOL     OW90940   9.403   2.341  13.601
63036SOL    HW190941   9.337   2.302  13.543
63036SOL    HW290942   9.394   2.293  13.683
63037SOL     OW90943   4.003   1.649   6.106
63037SOL    HW190944   3.953   1.722   6.070
63037SOL    HW290945   3.981   1.647   6.199
63038SOL     OW90946   1.927   6.783   5.889
63038SOL    HW190947   1.993   6.850   5.902
63038SOL    HW290948   1.935   6.758   5.796
63039SOL     OW90949  12.692   3.554   2.458
63039SOL    HW190950  12.782   3.582   2.471
63039SOL    HW290951  12.697   3.483   2.394
63040SOL     OW90952   1.327   1.612   8.783
63040SOL    HW190953   1.284   1.534   8.747
63040SOL    HW290954   1.367   1.654   8.706
63041SOL     OW90955   7.436  10.445  11.963
63041SOL    HW190956   7.341  10.453  11.969
63041SOL    HW290957   7.465  10.528  11.924
63042SOL     OW90958  11.278   9.127   4.315
63042SOL    HW190959  11.224   9.158   4.388
63042SOL    HW290960  11.223   9.141   4.238
63043SOL     OW90961  12.747   0.734   7.779
63043SOL    HW190962  12.829   0.686   7.776
63043SOL    HW290963  12.759   0.806   7.716
63044SOL     OW90964  11.612  13.040   9.467
63044SOL    HW190965  11.570  13.122   9.491
63044SOL    HW290966  11.547  12.995   9.412
63045SOL     OW90967  13.670   0.728   5.831
63045SOL    HW190968  13.732   0.798   5.811
63045SOL    HW290969  13.635   0.750   5.917
63046SOL     OW90970  13.970   4.282  12.709
63046SOL    HW190971  14.004   4.368  12.688
63046SOL    HW290972  14.033   4.221  12.671
63047SOL     OW90973  11.437   9.167   7.403
63047SOL    HW190974  11.463   9.159   7.495
63047SOL    HW290975  11.489   9.100   7.358
63048SOL     OW90976   0.342  13.363  11.802
63048SOL    HW190977   0.356  13.457  11.813
63048SOL    HW290978   0.373  13.345  11.713
63049SOL     OW90979   7.763  14.506  12.656
63049SOL    HW190980   7.797  14.584  12.701
63049SOL    HW290981   7.799  14.513  12.568
63050SOL     OW90982   2.216  12.921   0.363
63050SOL    HW190983   2.152  12.876   0.418
63050SOL    HW290984   2.205  13.014   0.386
63051SOL     OW90985   6.728   6.284   4.315
63051SOL    HW190986   6.790   6.354   4.295
63051SOL    HW290987   6.669   6.322   4.381
63052SOL     OW90988   5.411   7.779   5.720
63052SOL    HW190989   5.405   7.874   5.733
63052SOL    HW290990   5.505   7.762   5.712
63053SOL     OW90991   2.767   0.379  12.815
63053SOL    HW190992   2.732   0.406  12.900
63053SOL    HW290993   2.803   0.460  12.778
63054SOL     OW90994   3.686  13.097   8.600
63054SOL    HW190995   3.698  13.014   8.553
63054SOL    HW290996   3.742  13.159   8.553
63055SOL     OW90997   0.066  10.075   0.457
63055SOL    HW190998   0.071  10.146   0.394
63055SOL    HW290999  14.872  10.099   0.514
63056SOL     OW91000   1.646  13.682  13.631
63056SOL    HW191001   1.654  13.630  13.551
63056SOL    HW291002   1.554  13.709  13.633
63057SOL     OW91003  13.736   8.664   2.572
63057SOL    HW191004  13.678   8.589   2.583
63057SOL    HW291005  13.818   8.627   2.540
63058SOL     OW91006   8.567   8.309   1.788
63058SOL    HW191007   8.561   8.400   1.816
63058SOL    HW291008   8.552   8.258   1.868
63059SOL     OW91009   5.390   4.748  10.820
63059SOL    HW191010   5.471   4.729  10.866
63059SOL    HW291011   5.321   4.726  10.883
63060SOL     OW91012   9.226  14.050  14.758
63060SOL    HW191013   9.266  13.983  14.814
63060SOL    HW291014   9.286  14.060  14.685
63061SOL     OW91015   8.315   8.051   3.179
63061SOL    HW191016   8.279   8.006   3.103
63061SOL    HW291017   8.302   7.991   3.252
63062SOL     OW91018  13.641   7.560   9.386
63062SOL    HW191019  13.652   7.649   9.353
63062SOL    HW291020  13.607   7.511   9.312
63063SOL     OW91021  14.842   3.423  11.994
63063SOL    HW191022  14.784   3.365  11.945
63063SOL    HW291023  14.784   3.478  12.046
63064SOL     OW91024  14.047  11.725   0.424
63064SOL    HW191025  14.047  11.819   0.410
63064SOL    HW291026  14.098  11.690   0.351
63065SOL     OW91027   5.409   1.001   5.023
63065SOL    HW191028   5.360   0.922   5.001
63065SOL    HW291029   5.376   1.026   5.110
63066SOL     OW91030  13.139   5.036   2.076
63066SOL    HW191031  13.229   5.068   2.079
63066SOL    HW291032  13.116   5.037   1.984
63067SOL     OW91033   8.607   0.749  10.323
63067SOL    HW191034   8.632   0.660  10.348
63067SOL    HW291035   8.513   0.753  10.341
63068SOL     OW91036  12.953  11.661   4.979
63068SOL    HW191037  12.967  11.752   4.952
63068SOL    HW291038  12.985  11.609   4.906
63069SOL     OW91039   4.489   9.259  13.883
63069SOL    HW191040   4.426   9.216  13.825
63069SOL    HW291041   4.469   9.352  13.875
63070SOL     OW91042  14.017   5.061  14.553
63070SOL    HW191043  13.987   5.064  14.644
63070SOL    HW291044  14.071   4.982  14.548
63071SOL     OW91045  11.014   8.055   6.364
63071SOL    HW191046  10.957   8.005   6.422
63071SOL    HW291047  10.963   8.133   6.340
63072SOL     OW91048  11.861  11.033   1.712
63072SOL    HW191049  11.804  11.083   1.654
63072SOL    HW291050  11.903  11.099   1.768
63073SOL     OW91051   3.685   7.734  13.517
63073SOL    HW191052   3.738   7.812  13.497
63073SOL    HW291053   3.604   7.748  13.468
63074SOL     OW91054   9.204  13.475  13.681
63074SOL    HW191055   9.186  13.524  13.601
63074SOL    HW291056   9.220  13.543  13.747
63075SOL     OW91057  10.683   0.578   4.193
63075SOL    HW191058  10.688   0.653   4.135
63075SOL    HW291059  10.676   0.503   4.134
63076SOL     OW91060   9.812   2.018   4.226
63076SOL    HW191061   9.724   1.988   4.249
63076SOL    HW291062   9.863   1.937   4.214
63077SOL     OW91063   5.403   4.901   7.743
63077SOL    HW191064   5.362   4.951   7.672
63077SOL    HW291065   5.434   4.821   7.700
63078SOL     OW91066   9.551   1.626   2.843
63078SOL    HW191067   9.473   1.614   2.789
63078SOL    HW291068   9.519   1.617   2.933
63079SOL     OW91069   1.949   5.095   2.306
63079SOL    HW191070   1.856   5.094   2.330
63079SOL    HW291071   1.995   5.099   2.389
63080SOL     OW91072  11.719   1.006   7.490
63080SOL    HW191073  11.623   1.012   7.484
63080SOL    HW291074  11.742   0.937   7.427
63081SOL     OW91075  13.985   5.237  11.330
63081SOL    HW191076  14.064   5.184  11.320
63081SOL    HW291077  13.967   5.271  11.243
63082SOL     OW91078   7.741  13.857   6.249
63082SOL    HW191079   7.744  13.888   6.159
63082SOL    HW291080   7.663  13.898   6.286
63083SOL     OW91081   4.833   0.064   6.582
63083SOL    HW191082   4.926   0.079   6.599
63083SOL    HW291083   4.797   0.152   6.571
63084SOL     OW91084   3.238   1.710  13.909
63084SOL    HW191085   3.209   1.799  13.929
63084SOL    HW291086   3.248   1.710  13.814
63085SOL     OW91087   3.084   2.172  10.269
63085SOL    HW191088   3.156   2.109  10.264
63085SOL    HW291089   3.119   2.243  10.322
63086SOL     OW91090   1.740  10.156  10.101
63086SOL    HW191091   1.682  10.081  10.091
63086SOL    HW291092   1.763  10.157  10.194
63087SOL     OW91093  12.906  10.736   7.226
63087SOL    HW191094  12.973  10.792   7.187
63087SOL    HW291095  12.917  10.748   7.321
63088SOL     OW91096   6.169   6.590  12.249
63088SOL    HW191097   6.204   6.506  12.220
63088SOL    HW291098   6.195   6.651  12.180
63089SOL     OW91099   9.654   8.393   8.755
63089SOL    HW191100   9.585   8.389   8.688
63089SOL    HW291101   9.734   8.370   8.708
63090SOL     OW91102  10.059   2.430   1.641
63090SOL    HW191103  10.104   2.432   1.725
63090SOL    HW291104  10.064   2.519   1.608
63091SOL     OW91105   9.801   2.855  10.563
63091SOL    HW191106   9.723   2.817  10.604
63091SOL    HW291107   9.872   2.833  10.623
63092SOL     OW91108  11.189   4.359   7.576
63092SOL    HW191109  11.255   4.305   7.534
63092SOL    HW291110  11.179   4.322   7.664
63093SOL     OW91111   2.565  13.026   1.323
63093SOL    HW191112   2.652  13.050   1.292
63093SOL    HW291113   2.579  12.948   1.377
63094SOL     OW91114   5.312   1.815   3.047
63094SOL    HW191115   5.322   1.903   3.082
63094SOL    HW291116   5.220   1.809   3.022
63095SOL     OW91117   7.292   2.163  10.244
63095SOL    HW191118   7.343   2.228  10.292
63095SOL    HW291119   7.214   2.209  10.215
63096SOL     OW91120   3.347   3.212   2.249
63096SOL    HW191121   3.381   3.127   2.279
63096SOL    HW291122   3.421   3.272   2.260
63097SOL     OW91123  13.994   3.473  10.081
63097SOL    HW191124  13.955   3.386  10.083
63097SOL    HW291125  14.056   3.472  10.154
63098SOL     OW91126  14.751   0.745  10.795
63098SOL    HW191127  14.803   0.665  10.791
63098SOL    HW291128  14.689   0.729  10.866
63099SOL     OW91129   9.498   5.948  12.441
63099SOL    HW191130   9.429   5.883  12.430
63099SOL    HW291131   9.566   5.921  12.379
63100SOL     OW91132   0.608  14.318   4.104
63100SOL    HW191133   0.577  14.304   4.193
63100SOL    HW291134   0.629  14.230   4.071
63101SOL     OW91135  12.720   7.313   5.334
63101SOL    HW191136  12.778   7.354   5.270
63101SOL    HW291137  12.751   7.344   5.419
63102SOL     OW91138   4.673   4.109  11.109
63102SOL    HW191139   4.665   4.167  11.185
63102SOL    HW291140   4.760   4.127  11.074
63103SOL     OW91141   9.914  12.774  11.685
63103SOL    HW191142   9.856  12.736  11.750
63103SOL    HW291143   9.942  12.699  11.631
63104SOL     OW91144   7.321   3.603  14.320
63104SOL    HW191145   7.256   3.547  14.362
63104SOL    HW291146   7.282   3.627  14.236
63105SOL     OW91147   4.898   0.113   1.803
63105SOL    HW191148   4.832   0.086   1.866
63105SOL    HW291149   4.979   0.072   1.833
63106SOL     OW91150  10.525  11.775   8.054
63106SOL    HW191151  10.559  11.690   8.082
63106SOL    HW291152  10.544  11.779   7.960
63107SOL     OW91153   3.341   7.627   1.213
63107SOL    HW191154   3.321   7.689   1.142
63107SOL    HW291155   3.376   7.550   1.168
63108SOL     OW91156   2.521  12.592   2.470
63108SOL    HW191157   2.527  12.502   2.436
63108SOL    HW291158   2.599  12.602   2.525
63109SOL     OW91159   3.570   3.204  11.767
63109SOL    HW191160   3.505   3.137  11.787
63109SOL    HW291161   3.619   3.215  11.848
63110SOL     OW91162   1.687   1.472  10.963
63110SOL    HW191163   1.710   1.474  11.056
63110SOL    HW291164   1.630   1.547  10.950
63111SOL     OW91165  13.334   4.402   5.010
63111SOL    HW191166  13.356   4.310   5.028
63111SOL    HW291167  13.390   4.451   5.070
63112SOL     OW91168   6.199   3.645   4.016
63112SOL    HW191169   6.186   3.725   4.066
63112SOL    HW291170   6.273   3.664   3.958
63113SOL     OW91171   8.619   3.921   1.640
63113SOL    HW191172   8.701   3.874   1.627
63113SOL    HW291173   8.626   3.956   1.729
63114SOL     OW91174   0.456  12.999   9.220
63114SOL    HW191175   0.489  12.952   9.297
63114SOL    HW291176   0.531  13.004   9.161
63115SOL     OW91177  13.831   4.049  10.133
63115SOL    HW191178  13.816   3.985  10.063
63115SOL    HW291179  13.789   4.012  10.210
63116SOL     OW91180   5.077   2.152   9.929
63116SOL    HW191181   5.047   2.233   9.969
63116SOL    HW291182   5.173   2.159   9.929
63117SOL     OW91183   6.764   9.102   9.695
63117SOL    HW191184   6.797   9.029   9.643
63117SOL    HW291185   6.684   9.067   9.736
63118SOL     OW91186   9.698  14.116   4.740
63118SOL    HW191187   9.744  14.032   4.746
63118SOL    HW291188   9.616  14.103   4.786
63119SOL     OW91189   6.058   2.418   8.360
63119SOL    HW191190   6.093   2.344   8.310
63119SOL    HW291191   5.993   2.457   8.302
63120SOL     OW91192   1.667   6.941   0.068
63120SOL    HW191193   1.652   6.999   0.143
63120SOL    HW291194   1.717   6.994   0.006
63121SOL     OW91195  12.732   5.569   7.577
63121SOL    HW191196  12.677   5.492   7.563
63121SOL    HW291197  12.689   5.638   7.526
63122SOL     OW91198   9.851  13.403   1.812
63122SOL    HW191199   9.935  13.358   1.820
63122SOL    HW291200   9.795  13.359   1.876
63123SOL     OW91201  14.713   6.065   3.293
63123SOL    HW191202  14.774   6.033   3.226
63123SOL    HW291203  14.660   5.988   3.315
63124SOL     OW91204   9.458  12.744   5.144
63124SOL    HW191205   9.398  12.748   5.218
63124SOL    HW291206   9.402  12.721   5.070
63125SOL     OW91207   8.751  12.919  10.702
63125SOL    HW191208   8.761  13.014  10.694
63125SOL    HW291209   8.722  12.891  10.615
63126SOL     OW91210   3.574  12.945   0.949
63126SOL    HW191211   3.620  12.885   0.890
63126SOL    HW291212   3.596  13.032   0.916
63127SOL     OW91213  10.945  10.976   0.732
63127SOL    HW191214  10.988  10.893   0.752
63127SOL    HW291215  10.880  10.987   0.801
63128SOL     OW91216  14.464  13.995  12.227
63128SOL    HW191217  14.479  14.085  12.198
63128SOL    HW291218  14.501  13.992  12.315
63129SOL     OW91219   3.548  13.136   3.153
63129SOL    HW191220   3.471  13.160   3.205
63129SOL    HW291221   3.619  13.190   3.190
63130SOL     OW91222   2.591   8.912   1.394
63130SOL    HW191223   2.575   8.822   1.365
63130SOL    HW291224   2.631   8.902   1.481
63131SOL     OW91225   8.717   6.870   2.213
63131SOL    HW191226   8.709   6.819   2.293
63131SOL    HW291227   8.627   6.888   2.186
63132SOL     OW91228   4.404  12.491  12.656
63132SOL    HW191229   4.352  12.460  12.730
63132SOL    HW291230   4.493  12.464  12.676
63133SOL     OW91231   0.336   2.838   2.137
63133SOL    HW191232   0.275   2.861   2.067
63133SOL    HW291233   0.341   2.743   2.135
63134SOL     OW91234   9.236   5.148  11.928
63134SOL    HW191235   9.221   5.209  12.000
63134SOL    HW291236   9.148   5.124  11.898
63135SOL     OW91237   2.062  11.960  13.994
63135SOL    HW191238   2.143  11.943  14.043
63135SOL    HW291239   2.082  11.933  13.905
63136SOL     OW91240   9.007   3.604   8.433
63136SOL    HW191241   9.012   3.565   8.521
63136SOL    HW291242   9.098   3.609   8.404
63137SOL     OW91243   5.777  10.137   2.121
63137SOL    HW191244   5.688  10.104   2.125
63137SOL    HW291245   5.819  10.104   2.201
63138SOL     OW91246   3.706   3.896  14.312
63138SOL    HW191247   3.732   3.933  14.397
63138SOL    HW291248   3.613   3.915  14.305
63139SOL     OW91249   3.673   9.309   7.345
63139SOL    HW191250   3.758   9.316   7.388
63139SOL    HW291251   3.674   9.379   7.279
63140SOL     OW91252  13.081  11.516  13.071
63140SOL    HW191253  13.008  11.507  13.134
63140SOL    HW291254  13.115  11.604  13.088
63141SOL     OW91255   3.258  13.858   7.267
63141SOL    HW191256   3.232  13.930   7.210
63141SOL    HW291257   3.346  13.883   7.298
63142SOL     OW91258   7.356   0.996  10.817
63142SOL    HW191259   7.413   0.949  10.757
63142SOL    HW291260   7.270   0.954  10.807
63143SOL     OW91261   4.205   3.931  14.717
63143SOL    HW191262   4.281   3.886  14.753
63143SOL    HW291263   4.238   4.017  14.691
63144SOL     OW91264  13.587  11.088   2.596
63144SOL    HW191265  13.492  11.099   2.604
63144SOL    HW291266  13.601  10.994   2.607
63145SOL     OW91267  12.031   1.034   7.728
63145SOL    HW191268  11.985   1.041   7.811
63145SOL    HW291269  12.117   0.998   7.751
63146SOL     OW91270   9.787   6.700   8.525
63146SOL    HW191271   9.728   6.738   8.460
63146SOL    HW291272   9.837   6.774   8.560
63147SOL     OW91273   1.710  10.163   9.686
63147SOL    HW191274   1.636  10.139   9.742
63147SOL    HW291275   1.686  10.247   9.649
63148SOL     OW91276   2.144  10.908   4.521
63148SOL    HW191277   2.100  10.940   4.443
63148SOL    HW291278   2.211  10.974   4.540
63149SOL     OW91279   5.959   1.800   4.387
63149SOL    HW191280   5.969   1.863   4.315
63149SOL    HW291281   6.039   1.808   4.438
63150SOL     OW91282  13.056  12.553   9.427
63150SOL    HW191283  12.961  12.544   9.432
63150SOL    HW291284  13.086  12.529   9.515
63151SOL     OW91285   8.935   0.570   5.409
63151SOL    HW191286   8.991   0.553   5.333
63151SOL    HW291287   8.953   0.661   5.432
63152SOL     OW91288   8.559   5.586   6.179
63152SOL    HW191289   8.599   5.673   6.183
63152SOL    HW291290   8.607   5.535   6.244
63153SOL     OW91291   1.616   6.167  10.315
63153SOL    HW191292   1.524   6.170  10.342
63153SOL    HW291293   1.627   6.242  10.257
63154SOL     OW91294   2.403   1.417   6.018
63154SOL    HW191295   2.478   1.404   6.075
63154SOL    HW291296   2.355   1.490   6.058
63155SOL     OW91297   7.689  11.104   5.597
63155SOL    HW191298   7.664  11.182   5.647
63155SOL    HW291299   7.606  11.059   5.580
63156SOL     OW91300   8.422   1.444   3.915
63156SOL    HW191301   8.369   1.497   3.855
63156SOL    HW291302   8.464   1.508   3.972
63157SOL     OW91303   3.600  13.866  10.340
63157SOL    HW191304   3.513  13.833  10.363
63157SOL    HW291305   3.642  13.794  10.293
63158SOL     OW91306   3.592  13.148   8.859
63158SOL    HW191307   3.545  13.231   8.860
63158SOL    HW291308   3.624  13.139   8.769
63159SOL     OW91309   1.278   9.581   2.881
63159SOL    HW191310   1.338   9.526   2.830
63159SOL    HW291311   1.335   9.645   2.924
63160SOL     OW91312   2.356  14.157  14.066
63160SOL    HW191313   2.315  14.170  14.152
63160SOL    HW291314   2.296  14.198  14.005
63161SOL     OW91315  11.121   5.742   5.262
63161SOL    HW191316  11.061   5.678   5.224
63161SOL    HW291317  11.080   5.765   5.346
63162SOL     OW91318   2.022  14.777   2.415
63162SOL    HW191319   2.079  14.854   2.424
63162SOL    HW291320   1.940  14.803   2.456
63163SOL     OW91321   0.603  13.302   6.179
63163SOL    HW191322   0.553  13.374   6.139
63163SOL    HW291323   0.542  13.229   6.183
63164SOL     OW91324   7.237   3.849   1.142
63164SOL    HW191325   7.260   3.764   1.105
63164SOL    HW291326   7.318   3.900   1.136
63165SOL     OW91327  12.587   2.410  12.081
63165SOL    HW191328  12.507   2.432  12.130
63165SOL    HW291329  12.556   2.362  12.005
63166SOL     OW91330   8.686   0.313  10.979
63166SOL    HW191331   8.726   0.240  11.026
63166SOL    HW291332   8.759   0.369  10.954
63167SOL     OW91333  11.388   3.156   1.162
63167SOL    HW191334  11.475   3.117   1.156
63167SOL    HW291335  11.400   3.236   1.212
63168SOL     OW91336   2.620   7.381   7.487
63168SOL    HW191337   2.689   7.314   7.491
63168SOL    HW291338   2.667   7.463   7.503
63169SOL     OW91339  12.549  11.907   9.624
63169SOL    HW191340  12.485  11.940   9.688
63169SOL    HW291341  12.624  11.880   9.677
63170SOL     OW91342   7.483   0.421  14.655
63170SOL    HW191343   7.567   0.376  14.650
63170SOL    HW291344   7.501   0.503  14.702
63171SOL     OW91345   1.909   3.122   6.522
63171SOL    HW191346   1.962   3.175   6.582
63171SOL    HW291347   1.971   3.060   6.483
63172SOL     OW91348   5.807  12.758   0.397
63172SOL    HW191349   5.790  12.794   0.484
63172SOL    HW291350   5.721  12.727   0.367
63173SOL     OW91351  14.172   2.918   3.029
63173SOL    HW191352  14.151   3.000   2.985
63173SOL    HW291353  14.267   2.910   3.022
63174SOL     OW91354  10.082   3.389  14.230
63174SOL    HW191355  10.120   3.387  14.318
63174SOL    HW291356  10.156   3.371  14.171
63175SOL     OW91357  12.552   7.863   6.504
63175SOL    HW191358  12.566   7.956   6.488
63175SOL    HW291359  12.589   7.847   6.590
63176SOL     OW91360   8.642   5.869  12.141
63176SOL    HW191361   8.646   5.964  12.151
63176SOL    HW291362   8.665   5.834  12.227
63177SOL     OW91363   0.348   2.912   9.481
63177SOL    HW191364   0.267   2.866   9.461
63177SOL    HW291365   0.396   2.853   9.540
63178SOL     OW91366   3.096   8.527   3.992
63178SOL    HW191367   3.061   8.612   3.966
63178SOL    HW291368   3.167   8.510   3.931
63179SOL     OW91369   2.979   9.458   1.837
63179SOL    HW191370   2.931   9.539   1.821
63179SOL    HW291371   3.016   9.435   1.752
63180SOL     OW91372  12.817  14.088  14.388
63180SOL    HW191373  12.737  14.071  14.337
63180SOL    HW291374  12.787  14.090  14.479
63181SOL     OW91375   0.432   8.378   0.743
63181SOL    HW191376   0.430   8.463   0.788
63181SOL    HW291377   0.359   8.383   0.680
63182SOL     OW91378  14.174   5.378  14.089
63182SOL    HW191379  14.269   5.364  14.084
63182SOL    HW291380  14.160   5.417  14.175
63183SOL     OW91381   0.968   7.013   2.495
63183SOL    HW191382   0.955   7.103   2.526
63183SOL    HW291383   1.059   6.993   2.516
63184SOL     OW91384   6.717   2.578  12.069
63184SOL    HW191385   6.724   2.493  12.115
63184SOL    HW291386   6.724   2.643  12.139
63185SOL     OW91387   1.753   1.327  11.999
63185SOL    HW191388   1.721   1.237  12.002
63185SOL    HW291389   1.803   1.336  12.080
63186SOL     OW91390   3.194   9.191   6.617
63186SOL    HW191391   3.193   9.257   6.547
63186SOL    HW291392   3.138   9.227   6.685
63187SOL     OW91393  10.405  12.829   0.303
63187SOL    HW191394  10.411  12.918   0.269
63187SOL    HW291395  10.311  12.809   0.299
63188SOL     OW91396   8.089   2.430   3.405
63188SOL    HW191397   8.177   2.452   3.373
63188SOL    HW291398   8.078   2.482   3.484
63189SOL     OW91399  14.200  14.005   3.913
63189SOL    HW191400  14.235  13.977   3.829
63189SOL    HW291401  14.108  13.978   3.912
63190SOL     OW91402   7.535   5.293   4.936
63190SOL    HW191403   7.607   5.307   4.998
63190SOL    HW291404   7.456   5.318   4.984
63191SOL     OW91405   6.045   1.057  13.496
63191SOL    HW191406   6.077   0.967  13.492
63191SOL    HW291407   6.074   1.088  13.581
63192SOL     OW91408   3.640  12.169   3.180
63192SOL    HW191409   3.571  12.217   3.135
63192SOL    HW291410   3.623  12.185   3.273
63193SOL     OW91411   1.658  10.254   7.986
63193SOL    HW191412   1.699  10.292   7.908
63193SOL    HW291413   1.731  10.233   8.044
63194SOL     OW91414  14.187   6.489   6.617
63194SOL    HW191415  14.105   6.506   6.571
63194SOL    HW291416  14.211   6.400   6.592
63195SOL     OW91417   8.138  12.885   7.190
63195SOL    HW191418   8.187  12.932   7.123
63195SOL    HW291419   8.100  12.810   7.145
63196SOL     OW91420  12.872  11.490  13.258
63196SOL    HW191421  12.793  11.543  13.263
63196SOL    HW291422  12.907  11.490  13.347
63197SOL     OW91423   9.896   7.952   8.976
63197SOL    HW191424   9.959   7.949   8.905
63197SOL    HW291425   9.811   7.934   8.935
63198SOL     OW91426   2.566   7.197  14.587
63198SOL    HW191427   2.586   7.272  14.643
63198SOL    HW291428   2.512   7.234  14.517
63199SOL     OW91429   6.904  13.944   2.472
63199SOL    HW191430   6.840  14.007   2.506
63199SOL    HW291431   6.941  13.903   2.550
63200SOL     OW91432  12.270  12.262  10.597
63200SOL    HW191433  12.330  12.254  10.671
63200SOL    HW291434  12.306  12.333  10.544
63201SOL     OW91435  14.745   6.068   2.728
63201SOL    HW191436  14.660   6.112   2.732
63201SOL    HW291437  14.777   6.084   2.639
63202SOL     OW91438   0.687   8.228  13.497
63202SOL    HW191439   0.629   8.249  13.570
63202SOL    HW291440   0.661   8.140  13.470
63203SOL     OW91441  13.540  13.057  11.407
63203SOL    HW191442  13.563  13.145  11.379
63203SOL    HW291443  13.483  13.023  11.338
63204SOL     OW91444   3.036   8.559   9.445
63204SOL    HW191445   2.973   8.610   9.495
63204SOL    HW291446   2.983   8.509   9.383
63205SOL     OW91447  13.413   4.646  10.201
63205SOL    HW191448  13.360   4.679  10.273
63205SOL    HW291449  13.501   4.676  10.220
63206SOL     OW91450   1.719   6.362   5.081
63206SOL    HW191451   1.735   6.450   5.115
63206SOL    HW291452   1.651   6.326   5.138
63207SOL     OW91453  10.260   1.406  14.315
63207SOL    HW191454  10.262   1.501  14.327
63207SOL    HW291455  10.176   1.379  14.353
63208SOL     OW91456  12.859   9.799  14.307
63208SOL    HW191457  12.793   9.808  14.375
63208SOL    HW291458  12.810   9.776  14.228
63209SOL     OW91459  12.878  13.169   6.489
63209SOL    HW191460  12.947  13.111   6.521
63209SOL    HW291461  12.813  13.111   6.451
63210SOL     OW91462   1.523   0.820   4.785
63210SOL    HW191463   1.499   0.727   4.785
63210SOL    HW291464   1.446   0.865   4.751
63211SOL     OW91465  14.000  10.632  14.500
63211SOL    HW191466  14.095  10.622  14.500
63211SOL    HW291467  13.985  10.721  14.531
63212SOL     OW91468   3.591   3.684  10.067
63212SOL    HW191469   3.521   3.666  10.004
63212SOL    HW291470   3.638   3.758  10.029
63213SOL     OW91471   2.991   5.303  10.912
63213SOL    HW191472   3.024   5.266  10.830
63213SOL    HW291473   3.069   5.321  10.963
63214SOL     OW91474   6.963  14.007   4.788
63214SOL    HW191475   6.921  13.966   4.712
63214SOL    HW291476   6.919  14.091   4.798
63215SOL     OW91477   0.076   6.418  11.087
63215SOL    HW191478   0.159   6.371  11.082
63215SOL    HW291479   0.021   6.378  11.020
63216SOL     OW91480   9.449   1.671  10.277
63216SOL    HW191481   9.523   1.612  10.265
63216SOL    HW291482   9.409   1.678  10.190
63217SOL     OW91483  13.011  11.164  13.406
63217SOL    HW191484  13.014  11.191  13.497
63217SOL    HW291485  13.094  11.118  13.392
63218SOL     OW91486   3.166  13.454  13.134
63218SOL    HW191487   3.227  13.437  13.062
63218SOL    HW291488   3.222  13.476  13.208
63219SOL     OW91489   6.249  13.649  10.897
63219SOL    HW191490   6.175  13.599  10.931
63219SOL    HW291491   6.216  13.688  10.816
63220SOL     OW91492   8.670   2.177  11.374
63220SOL    HW191493   8.622   2.232  11.311
63220SOL    HW291494   8.602   2.134  11.424
63221SOL     OW91495   7.489   8.652   2.598
63221SOL    HW191496   7.440   8.660   2.680
63221SOL    HW291497   7.450   8.718   2.541
63222SOL     OW91498   1.549   0.710  12.244
63222SOL    HW191499   1.480   0.644  12.239
63222SOL    HW291500   1.569   0.718  12.337
63223SOL     OW91501   6.641   3.827   4.067
63223SOL    HW191502   6.684   3.811   4.151
63223SOL    HW291503   6.678   3.910   4.036
63224SOL     OW91504  11.029  14.430   1.960
63224SOL    HW191505  11.102  14.393   1.910
63224SOL    HW291506  11.008  14.362   2.024
63225SOL     OW91507  12.178   8.274  14.565
63225SOL    HW191508  12.191   8.226  14.646
63225SOL    HW291509  12.185   8.366  14.590
63226SOL     OW91510   3.820   4.215   1.747
63226SOL    HW191511   3.782   4.286   1.800
63226SOL    HW291512   3.754   4.198   1.679
63227SOL     OW91513   6.013   1.381   2.229
63227SOL    HW191514   6.010   1.409   2.320
63227SOL    HW291515   5.923   1.389   2.198
63228SOL     OW91516   5.407  12.957   9.624
63228SOL    HW191517   5.422  13.031   9.683
63228SOL    HW291518   5.314  12.962   9.602
63229SOL     OW91519  12.124   5.530   7.724
63229SOL    HW191520  12.161   5.445   7.745
63229SOL    HW291521  12.104   5.526   7.631
63230SOL     OW91522  14.366   3.025   8.233
63230SOL    HW191523  14.460   3.023   8.250
63230SOL    HW291524  14.344   2.935   8.209
63231SOL     OW91525   2.764   9.712   2.529
63231SOL    HW191526   2.815   9.749   2.457
63231SOL    HW291527   2.673   9.719   2.500
63232SOL     OW91528   2.740   1.480   5.900
63232SOL    HW191529   2.738   1.553   5.962
63232SOL    HW291530   2.684   1.507   5.828
63233SOL     OW91531  13.216   1.542   2.411
63233SOL    HW191532  13.155   1.508   2.345
63233SOL    HW291533  13.187   1.632   2.426
63234SOL     OW91534   5.887   3.644  11.616
63234SOL    HW191535   5.805   3.652  11.567
63234SOL    HW291536   5.949   3.607  11.553
63235SOL     OW91537   9.697   0.335   5.405
63235SOL    HW191538   9.711   0.263   5.467
63235SOL    HW291539   9.762   0.321   5.336
63236SOL     OW91540  12.736   6.134   7.778
63236SOL    HW191541  12.664   6.076   7.802
63236SOL    HW291542  12.814   6.091   7.814
63237SOL     OW91543   1.731  14.416   9.256
63237SOL    HW191544   1.722  14.495   9.310
63237SOL    HW291545   1.823  14.416   9.230
63238SOL     OW91546   8.585   5.781   3.428
63238SOL    HW191547   8.607   5.692   3.401
63238SOL    HW291548   8.667   5.829   3.421
63239SOL     OW91549  10.888   7.593   9.918
63239SOL    HW191550  10.918   7.676   9.882
63239SOL    HW291551  10.949   7.528   9.883
63240SOL     OW91552   4.089   5.789  13.288
63240SOL    HW191553   4.126   5.759  13.371
63240SOL    HW291554   4.011   5.735  13.276
63241SOL     OW91555   5.820   4.400  14.033
63241SOL    HW191556   5.859   4.478  14.070
63241SOL    HW291557   5.861   4.327  14.079
63242SOL     OW91558  13.153   7.042   5.967
63242SOL    HW191559  13.156   7.138   5.975
63242SOL    HW291560  13.087   7.015   6.032
63243SOL     OW91561   0.220   8.794   3.193
63243SOL    HW191562   0.301   8.744   3.202
63243SOL    HW291563   0.215   8.816   3.100
63244SOL     OW91564   2.460   8.688   6.473
63244SOL    HW191565   2.492   8.706   6.385
63244SOL    HW291566   2.539   8.679   6.526
63245SOL     OW91567   7.046   8.718  10.241
63245SOL    HW191568   7.090   8.735  10.324
63245SOL    HW291569   7.117   8.701  10.179
63246SOL     OW91570   9.495   9.175  10.820
63246SOL    HW191571   9.584   9.183  10.785
63246SOL    HW291572   9.442   9.150  10.744
63247SOL     OW91573   1.856   4.492   9.516
63247SOL    HW191574   1.826   4.583   9.506
63247SOL    HW291575   1.845   4.454   9.429
63248SOL     OW91576   8.922  14.042   6.129
63248SOL    HW191577   8.865  14.004   6.196
63248SOL    HW291578   8.945  14.129   6.164
63249SOL     OW91579   6.498   8.227   0.264
63249SOL    HW191580   6.487   8.191   0.176
63249SOL    HW291581   6.551   8.161   0.310
63250SOL     OW91582   2.114   8.316   2.147
63250SOL    HW191583   2.122   8.354   2.235
63250SOL    HW291584   2.100   8.223   2.162
63251SOL     OW91585   3.683   2.782  11.174
63251SOL    HW191586   3.624   2.837  11.226
63251SOL    HW291587   3.737   2.844  11.125
63252SOL     OW91588   7.985   3.859   4.187
63252SOL    HW191589   7.896   3.842   4.156
63252SOL    HW291590   8.004   3.948   4.158
63253SOL     OW91591  12.265  10.872   2.917
63253SOL    HW191592  12.209  10.827   2.854
63253SOL    HW291593  12.286  10.956   2.874
63254SOL     OW91594   1.080  10.322   2.341
63254SOL    HW191595   1.135  10.385   2.387
63254SOL    HW291596   0.993  10.364   2.340
63255SOL     OW91597   8.805   3.990   9.484
63255SOL    HW191598   8.816   3.898   9.458
63255SOL    HW291599   8.826   3.990   9.578
63256SOL     OW91600   0.039  12.574  14.578
63256SOL    HW191601  14.860  12.500  14.600
63256SOL    HW291602   0.062  12.612  14.663
63257SOL     OW91603   5.575   2.178   9.645
63257SOL    HW191604   5.646   2.114   9.641
63257SOL    HW291605   5.583   2.218   9.731
63258SOL     OW91606   0.663   9.032   9.611
63258SOL    HW191607   0.674   9.116   9.655
63258SOL    HW291608   0.680   9.052   9.519
63259SOL     OW91609   5.417   5.534   1.430
63259SOL    HW191610   5.450   5.541   1.519
63259SOL    HW291611   5.481   5.580   1.376
63260SOL     OW91612   0.065  10.840  12.614
63260SOL    HW191613   0.148  10.793  12.612
63260SOL    HW291614   0.088  10.931  12.596
63261SOL     OW91615  14.607   5.922   5.215
63261SOL    HW191616  14.682   5.929   5.157
63261SOL    HW291617  14.615   5.997   5.274
63262SOL     OW91618  11.244  13.626   0.541
63262SOL    HW191619  11.294  13.609   0.461
63262SOL    HW291620  11.155  13.643   0.509
63263SOL     OW91621   9.913  11.680   4.494
63263SOL    HW191622   9.995  11.702   4.539
63263SOL    HW291623   9.887  11.761   4.450
63264SOL     OW91624  14.643   7.659   8.992
63264SOL    HW191625  14.600   7.578   9.018
63264SOL    HW291626  14.591   7.690   8.917
63265SOL     OW91627   0.807   1.564   5.170
63265SOL    HW191628   0.880   1.547   5.229
63265SOL    HW291629   0.830   1.520   5.089
63266SOL     OW91630   8.206  11.927   3.799
63266SOL    HW191631   8.268  11.870   3.753
63266SOL    HW291632   8.126  11.923   3.746
63267SOL     OW91633  12.999  14.868   1.886
63267SOL    HW191634  13.019   0.036   1.967
63267SOL    HW291635  12.907   0.009   1.869
63268SOL     OW91636  13.235   5.009   7.058
63268SOL    HW191637  13.286   5.090   7.051
63268SOL    HW291638  13.281   4.959   7.126
63269SOL     OW91639  12.722  12.146  13.441
63269SOL    HW191640  12.780  12.101  13.503
63269SOL    HW291641  12.781  12.190  13.381
63270SOL     OW91642   8.228   8.607   3.704
63270SOL    HW191643   8.254   8.615   3.796
63270SOL    HW291644   8.286   8.540   3.668
63271SOL     OW91645   3.885   2.323   8.018
63271SOL    HW191646   3.920   2.341   8.105
63271SOL    HW291647   3.928   2.241   7.991
63272SOL     OW91648   5.740   8.669   2.824
63272SOL    HW191649   5.784   8.675   2.909
63272SOL    HW291650   5.779   8.592   2.782
63273SOL     OW91651   0.101   0.310   8.190
63273SOL    HW191652   0.121   0.240   8.252
63273SOL    HW291653   0.064   0.264   8.114
63274SOL     OW91654   6.162  12.343  14.858
63274SOL    HW191655   6.212  12.412   0.020
63274SOL    HW291656   6.181  12.265   0.030
63275SOL     OW91657   5.490   4.221   0.958
63275SOL    HW191658   5.411   4.197   0.910
63275SOL    HW291659   5.545   4.266   0.894
63276SOL     OW91660   3.441  14.720  13.617
63276SOL    HW191661   3.475  14.789  13.673
63276SOL    HW291662   3.353  14.749  13.592
63277SOL     OW91663   0.096   8.766  13.258
63277SOL    HW191664   0.084   8.704  13.330
63277SOL    HW291665   0.047   8.729  13.185
63278SOL     OW91666  10.298   6.450   2.344
63278SOL    HW191667  10.307   6.545   2.337
63278SOL    HW291668  10.208   6.433   2.316
63279SOL     OW91669   4.675  12.691   0.131
63279SOL    HW191670   4.711  12.652   0.051
63279SOL    HW291671   4.747  12.685   0.195
63280SOL     OW91672   9.617   1.313  14.807
63280SOL    HW191673   9.585   1.403  14.805
63280SOL    HW291674   9.543   1.262  14.839
63281SOL     OW91675   6.479  11.690   8.577
63281SOL    HW191676   6.484  11.601   8.544
63281SOL    HW291677   6.563  11.729   8.555
63282SOL     OW91678   1.615   5.645  12.934
63282SOL    HW191679   1.606   5.701  13.012
63282SOL    HW291680   1.708   5.626  12.930
63283SOL     OW91681   7.037   7.145   2.375
63283SOL    HW191682   7.026   7.083   2.447
63283SOL    HW291683   6.950   7.180   2.359
63284SOL     OW91684   6.252   6.573  11.728
63284SOL    HW191685   6.239   6.658  11.771
63284SOL    HW291686   6.312   6.592  11.656
63285SOL     OW91687   0.045   0.767   1.151
63285SOL    HW191688   0.118   0.779   1.091
63285SOL    HW291689  14.858   0.721   1.099
63286SOL     OW91690   3.011   0.641   0.102
63286SOL    HW191691   3.014   0.621   0.009
63286SOL    HW291692   2.927   0.606   0.132
63287SOL     OW91693  14.842  11.718   9.066
63287SOL    HW191694  14.811  11.749   8.981
63287SOL    HW291695   0.046  11.765   9.079
63288SOL     OW91696  11.044   3.108   5.621
63288SOL    HW191697  11.138   3.125   5.609
63288SOL    HW291698  11.003   3.146   5.543
63289SOL     OW91699  11.986   7.892   7.170
63289SOL    HW191700  12.032   7.812   7.146
63289SOL    HW291701  12.000   7.902   7.264
63290SOL     OW91702  12.748   2.185   6.525
63290SOL    HW191703  12.795   2.198   6.607
63290SOL    HW291704  12.765   2.093   6.503
63291SOL     OW91705   7.926   2.546   8.650
63291SOL    HW191706   7.864   2.603   8.605
63291SOL    HW291707   7.898   2.548   8.742
63292SOL     OW91708   4.857  11.861   9.060
63292SOL    HW191709   4.807  11.809   9.124
63292SOL    HW291710   4.823  11.950   9.071
63293SOL     OW91711   7.414  14.624   3.924
63293SOL    HW191712   7.332  14.649   3.967
63293SOL    HW291713   7.411  14.528   3.921
63294SOL     OW91714   2.138   1.334  11.571
63294SOL    HW191715   2.208   1.270  11.558
63294SOL    HW291716   2.154   1.369  11.659
63295SOL     OW91717   5.762  14.253   2.287
63295SOL    HW191718   5.833  14.245   2.223
63295SOL    HW291719   5.764  14.170   2.335
63296SOL     OW91720  13.229   8.218  13.024
63296SOL    HW191721  13.217   8.182  13.112
63296SOL    HW291722  13.186   8.155  12.967
63297SOL     OW91723  13.337   6.967   4.596
63297SOL    HW191724  13.394   6.906   4.643
63297SOL    HW291725  13.294   6.913   4.530
63298SOL     OW91726  10.280   0.109   1.142
63298SOL    HW191727  10.323   0.117   1.057
63298SOL    HW291728  10.260   0.016   1.150
63299SOL     OW91729  11.754   1.192  10.351
63299SOL    HW191730  11.669   1.233  10.364
63299SOL    HW291731  11.817   1.250  10.394
63300SOL     OW91732   9.616   6.556  13.375
63300SOL    HW191733   9.707   6.571  13.351
63300SOL    HW291734   9.604   6.461  13.367
63301SOL     OW91735  10.470   2.477   4.292
63301SOL    HW191736  10.517   2.440   4.218
63301SOL    HW291737  10.456   2.569   4.267
63302SOL     OW91738   1.188   3.540   9.281
63302SOL    HW191739   1.101   3.532   9.241
63302SOL    HW291740   1.206   3.633   9.279
63303SOL     OW91741   5.250  12.278   0.330
63303SOL    HW191742   5.267  12.242   0.417
63303SOL    HW291743   5.273  12.370   0.337
63304SOL     OW91744   2.909   2.811  13.646
63304SOL    HW191745   2.884   2.755  13.572
63304SOL    HW291746   3.005   2.809  13.646
63305SOL     OW91747   7.016   9.563   4.287
63305SOL    HW191748   7.075   9.489   4.305
63305SOL    HW291749   6.938   9.544   4.339
63306SOL     OW91750  10.043  10.369   7.343
63306SOL    HW191751  10.103  10.392   7.273
63306SOL    HW291752  10.091  10.305   7.396
63307SOL     OW91753   1.649  13.586   5.409
63307SOL    HW191754   1.654  13.676   5.441
63307SOL    HW291755   1.718  13.540   5.459
63308SOL     OW91756   4.412   0.549   2.387
63308SOL    HW191757   4.355   0.478   2.417
63308SOL    HW291758   4.498   0.508   2.378
63309SOL     OW91759   5.240  11.500   9.824
63309SOL    HW191760   5.175  11.567   9.848
63309SOL    HW291761   5.224  11.483   9.731
63310SOL     OW91762   6.617   8.387   2.072
63310SOL    HW191763   6.648   8.434   2.150
63310SOL    HW291764   6.688   8.327   2.051
63311SOL     OW91765  12.539  10.103   6.893
63311SOL    HW191766  12.524  10.152   6.974
63311SOL    HW291767  12.499  10.018   6.908
63312SOL     OW91768   5.487   3.275  11.652
63312SOL    HW191769   5.547   3.331  11.700
63312SOL    HW291770   5.523   3.271  11.563
63313SOL     OW91771   8.022  10.215   7.935
63313SOL    HW191772   8.081  10.162   7.989
63313SOL    HW291773   8.027  10.174   7.848
63314SOL     OW91774   7.128   7.565   5.193
63314SOL    HW191775   7.214   7.529   5.172
63314SOL    HW291776   7.113   7.540   5.284
63315SOL     OW91777  14.280   3.929   5.189
63315SOL    HW191778  14.226   3.875   5.247
63315SOL    HW291779  14.229   4.009   5.177
63316SOL     OW91780  10.226  10.785   0.569
63316SOL    HW191781  10.218  10.693   0.594
63316SOL    HW291782  10.268  10.783   0.483
63317SOL     OW91783   1.160   8.434   1.576
63317SOL    HW191784   1.196   8.517   1.606
63317SOL    HW291785   1.128   8.392   1.656
63318SOL     OW91786   6.306  10.716   6.434
63318SOL    HW191787   6.353  10.799   6.435
63318SOL    HW291788   6.372  10.650   6.451
63319SOL     OW91789   7.315   7.047   4.999
63319SOL    HW191790   7.341   7.097   4.922
63319SOL    HW291791   7.380   7.071   5.066
63320SOL     OW91792   5.991   5.571   2.424
63320SOL    HW191793   5.906   5.586   2.466
63320SOL    HW291794   6.052   5.559   2.497
63321SOL     OW91795   4.488   1.151  10.940
63321SOL    HW191796   4.433   1.079  10.971
63321SOL    HW291797   4.425   1.212  10.900
63322SOL     OW91798   3.561   8.030  14.742
63322SOL    HW191799   3.498   8.054  14.675
63322SOL    HW291800   3.564   7.934  14.740
63323SOL     OW91801  12.860   6.648   1.169
63323SOL    HW191802  12.772   6.622   1.142
63323SOL    HW291803  12.869   6.737   1.134
63324SOL     OW91804  11.325   0.234  10.677
63324SOL    HW191805  11.405   0.230  10.624
63324SOL    HW291806  11.282   0.315  10.650
63325SOL     OW91807  13.684  10.240  11.999
63325SOL    HW191808  13.734  10.204  12.072
63325SOL    HW291809  13.658  10.328  12.028
63326SOL     OW91810   0.829  11.675  11.293
63326SOL    HW191811   0.741  11.681  11.254
63326SOL    HW291812   0.881  11.632  11.226
63327SOL     OW91813  10.189   2.885   9.010
63327SOL    HW191814  10.146   2.971   9.017
63327SOL    HW291815  10.117   2.822   9.017
63328SOL     OW91816   4.449  14.618  13.427
63328SOL    HW191817   4.503  14.697  13.433
63328SOL    HW291818   4.509  14.546  13.447
63329SOL     OW91819  12.755  11.010   4.671
63329SOL    HW191820  12.689  11.068   4.708
63329SOL    HW291821  12.776  10.948   4.741
63330SOL     OW91822  10.086  11.964  13.818
63330SOL    HW191823  10.072  11.889  13.877
63330SOL    HW291824  10.038  12.035  13.860
63331SOL     OW91825   2.865   4.120   6.648
63331SOL    HW191826   2.801   4.104   6.717
63331SOL    HW291827   2.948   4.091   6.684
63332SOL     OW91828   7.749   2.520   1.865
63332SOL    HW191829   7.728   2.432   1.897
63332SOL    HW291830   7.665   2.555   1.834
63333SOL     OW91831  10.895   4.764   7.010
63333SOL    HW191832  10.886   4.799   6.921
63333SOL    HW291833  10.808   4.728   7.031
63334SOL     OW91834  11.400   4.979  12.948
63334SOL    HW191835  11.364   4.902  12.992
63334SOL    HW291836  11.465   4.944  12.887
63335SOL     OW91837   2.958  11.851   3.167
63335SOL    HW191838   2.932  11.798   3.091
63335SOL    HW291839   3.046  11.882   3.145
63336SOL     OW91840   3.434   5.397   9.298
63336SOL    HW191841   3.350   5.422   9.338
63336SOL    HW291842   3.448   5.307   9.329
63337SOL     OW91843  13.377  11.663   2.191
63337SOL    HW191844  13.470  11.648   2.175
63337SOL    HW291845  13.335  11.646   2.106
63338SOL     OW91846   7.255   5.577   6.288
63338SOL    HW191847   7.250   5.655   6.343
63338SOL    HW291848   7.175   5.580   6.235
63339SOL     OW91849  11.022  14.248   2.137
63339SOL    HW191850  11.074  14.262   2.216
63339SOL    HW291851  10.944  14.202   2.167
63340SOL     OW91852   8.353   4.419   4.273
63340SOL    HW191853   8.419   4.456   4.332
63340SOL    HW291854   8.332   4.334   4.311
63341SOL     OW91855   6.280   2.429   7.170
63341SOL    HW191856   6.215   2.362   7.192
63341SOL    HW291857   6.329   2.393   7.097
63342SOL     OW91858  14.539   7.269   1.289
63342SOL    HW191859  14.578   7.183   1.298
63342SOL    HW291860  14.548   7.309   1.375
63343SOL     OW91861   9.735   5.547  10.324
63343SOL    HW191862   9.644   5.518  10.333
63343SOL    HW291863   9.767   5.501  10.247
63344SOL     OW91864   8.444   2.957   8.326
63344SOL    HW191865   8.425   3.004   8.245
63344SOL    HW291866   8.538   2.970   8.339
63345SOL     OW91867   9.307   0.064  10.956
63345SOL    HW191868   9.221   0.043  10.993
63345SOL    HW291869   9.337   0.141  11.005
63346SOL     OW91870   3.698  11.146   7.012
63346SOL    HW191871   3.656  11.217   7.061
63346SOL    HW291872   3.792  11.161   7.023
63347SOL     OW91873   4.784  11.712   8.408
63347SOL    HW191874   4.856  11.723   8.471
63347SOL    HW291875   4.716  11.666   8.457
63348SOL     OW91876  11.020   9.311  12.427
63348SOL    HW191877  11.052   9.238  12.479
63348SOL    HW291878  11.094   9.370  12.419
63349SOL     OW91879  12.200   9.226   8.004
63349SOL    HW191880  12.262   9.172   8.053
63349SOL    HW291881  12.144   9.163   7.959
63350SOL     OW91882   3.408   4.114   5.824
63350SOL    HW191883   3.322   4.074   5.814
63350SOL    HW291884   3.394   4.188   5.884
63351SOL     OW91885  12.575   5.142   7.033
63351SOL    HW191886  12.532   5.082   6.972
63351SOL    HW291887  12.541   5.117   7.119
63352SOL     OW91888   5.382   4.618   3.956
63352SOL    HW191889   5.361   4.689   3.895
63352SOL    HW291890   5.423   4.662   4.031
63353SOL     OW91891   4.327   1.405   8.992
63353SOL    HW191892   4.267   1.342   8.953
63353SOL    HW291893   4.351   1.463   8.920
63354SOL     OW91894   0.240   8.121   0.953
63354SOL    HW191895   0.310   8.176   0.921
63354SOL    HW291896   0.273   8.031   0.944
63355SOL     OW91897   6.722   7.059   1.124
63355SOL    HW191898   6.731   6.971   1.089
63355SOL    HW291899   6.748   7.117   1.052
63356SOL     OW91900   3.369  14.098  14.612
63356SOL    HW191901   3.301  14.039  14.645
63356SOL    HW291902   3.429  14.110  14.686
63357SOL     OW91903   4.073   9.395  14.013
63357SOL    HW191904   4.074   9.474  14.068
63357SOL    HW291905   4.076   9.323  14.076
63358SOL     OW91906  14.195  12.237  11.479
63358SOL    HW191907  14.212  12.145  11.458
63358SOL    HW291908  14.265  12.260  11.541
63359SOL     OW91909   8.512  14.038   6.459
63359SOL    HW191910   8.466  14.113   6.421
63359SOL    HW291911   8.512  14.055   6.553
63360SOL     OW91912   9.823   7.305  12.589
63360SOL    HW191913   9.816   7.258  12.673
63360SOL    HW291914   9.850   7.393  12.614
63361SOL     OW91915  13.842   0.282   8.094
63361SOL    HW191916  13.877   0.245   8.013
63361SOL    HW291917  13.856   0.376   8.085
63362SOL     OW91918  14.624   9.921   0.028
63362SOL    HW191919  14.682   9.969   0.087
63362SOL    HW291920  14.668   9.924  14.822
63363SOL     OW91921   8.122   0.386  11.200
63363SOL    HW191922   8.090   0.335  11.275
63363SOL    HW291923   8.078   0.346  11.125
63364SOL     OW91924   0.612  11.450  14.613
63364SOL    HW191925   0.612  11.506  14.690
63364SOL    HW291926   0.701  11.456  14.579
63365SOL     OW91927   5.265   6.677   9.269
63365SOL    HW191928   5.309   6.760   9.284
63365SOL    HW291929   5.191   6.678   9.330
63366SOL     OW91930  13.371   7.137   0.632
63366SOL    HW191931  13.358   7.044   0.613
63366SOL    HW291932  13.453   7.159   0.588
63367SOL     OW91933   0.856   6.914   1.457
63367SOL    HW191934   0.819   6.934   1.543
63367SOL    HW291935   0.924   6.849   1.474
63368SOL     OW91936   1.073   7.420   1.798
63368SOL    HW191937   1.066   7.350   1.863
63368SOL    HW291938   1.106   7.377   1.719
63369SOL     OW91939   2.430   9.959   1.353
63369SOL    HW191940   2.463  10.038   1.396
63369SOL    HW291941   2.496   9.938   1.287
63370SOL     OW91942  12.207   3.864  12.590
63370SOL    HW191943  12.302   3.876  12.585
63370SOL    HW291944  12.178   3.867  12.498
63371SOL     OW91945   5.062  11.403   2.567
63371SOL    HW191946   5.140  11.380   2.618
63371SOL    HW291947   5.009  11.454   2.627
63372SOL     OW91948  12.811   9.430  11.770
63372SOL    HW191949  12.746   9.498  11.789
63372SOL    HW291950  12.884   9.477  11.729
63373SOL     OW91951  11.825   4.229  11.189
63373SOL    HW191952  11.892   4.264  11.247
63373SOL    HW291953  11.762   4.300  11.178
63374SOL     OW91954   4.171  13.836  10.904
63374SOL    HW191955   4.104  13.878  10.957
63374SOL    HW291956   4.140  13.845  10.814
63375SOL     OW91957  11.712   5.283   0.887
63375SOL    HW191958  11.801   5.277   0.920
63375SOL    HW291959  11.709   5.366   0.840
63376SOL     OW91960  10.208  13.107   4.985
63376SOL    HW191961  10.245  13.191   4.957
63376SOL    HW291962  10.121  13.106   4.945
63377SOL     OW91963  10.070  11.363   5.953
63377SOL    HW191964   9.990  11.330   5.912
63377SOL    HW291965  10.060  11.458   5.953
63378SOL     OW91966   3.034   6.692  10.623
63378SOL    HW191967   3.080   6.771  10.596
63378SOL    HW291968   2.942   6.708  10.601
63379SOL     OW91969   5.545   8.793  13.954
63379SOL    HW191970   5.616   8.776  13.891
63379SOL    HW291971   5.513   8.880  13.931
63380SOL     OW91972  12.707   0.276  13.622
63380SOL    HW191973  12.629   0.226  13.643
63380SOL    HW291974  12.767   0.259  13.695
63381SOL     OW91975   0.799   1.791   9.691
63381SOL    HW191976   0.790   1.842   9.772
63381SOL    HW291977   0.827   1.855   9.625
63382SOL     OW91978   3.094  11.003   2.416
63382SOL    HW191979   3.039  11.038   2.486
63382SOL    HW291980   3.149  10.938   2.459
63383SOL     OW91981  11.092   0.280  11.688
63383SOL    HW191982  11.186   0.289  11.672
63383SOL    HW291983  11.063   0.211  11.628
63384SOL     OW91984   3.960  11.673   1.003
63384SOL    HW191985   3.896  11.662   0.933
63384SOL    HW291986   3.928  11.750   1.052
63385SOL     OW91987   0.835   3.162   0.444
63385SOL    HW191988   0.885   3.083   0.463
63385SOL    HW291989   0.748   3.144   0.479
63386SOL     OW91990   7.718   2.040   7.379
63386SOL    HW191991   7.755   1.952   7.375
63386SOL    HW291992   7.628   2.030   7.347
63387SOL     OW91993   8.142   5.610   1.666
63387SOL    HW191994   8.099   5.571   1.591
63387SOL    HW291995   8.215   5.550   1.686
63388SOL     OW91996   1.519   6.025  13.233
63388SOL    HW191997   1.577   6.040  13.308
63388SOL    HW291998   1.524   6.107  13.183
63389SOL     OW91999   4.066   6.186   1.762
63389SOL    HW192000   4.082   6.247   1.690
63389SOL    HW292001   4.008   6.120   1.725
63390SOL     OW92002   2.079   3.101   5.691
63390SOL    HW192003   2.098   3.126   5.601
63390SOL    HW292004   2.141   3.152   5.744
63391SOL     OW92005   5.647   8.281   2.624
63391SOL    HW192006   5.724   8.331   2.652
63391SOL    HW292007   5.591   8.277   2.702
63392SOL     OW92008   8.984   4.769   9.368
63392SOL    HW192009   8.992   4.862   9.346
63392SOL    HW292010   8.924   4.734   9.302
63393SOL     OW92011   9.188   2.634   4.842
63393SOL    HW192012   9.244   2.661   4.914
63393SOL    HW292013   9.099   2.643   4.876
63394SOL     OW92014   6.172   6.515   4.832
63394SOL    HW192015   6.186   6.596   4.880
63394SOL    HW292016   6.185   6.539   4.740
63395SOL     OW92017  12.853   9.481   9.559
63395SOL    HW192018  12.824   9.427   9.632
63395SOL    HW292019  12.905   9.422   9.504
63396SOL     OW92020   3.952   3.868  13.006
63396SOL    HW192021   4.041   3.866  13.040
63396SOL    HW292022   3.903   3.921  13.069
63397SOL     OW92023   7.275  10.627   0.372
63397SOL    HW192024   7.255  10.583   0.455
63397SOL    HW292025   7.322  10.706   0.398
63398SOL     OW92026   3.436   6.823   8.019
63398SOL    HW192027   3.416   6.739   8.061
63398SOL    HW292028   3.465   6.799   7.931
63399SOL     OW92029   3.826   9.726   3.333
63399SOL    HW192030   3.894   9.665   3.362
63399SOL    HW292031   3.776   9.746   3.412
63400SOL     OW92032   0.161  10.882  14.651
63400SOL    HW192033   0.213  10.805  14.674
63400SOL    HW292034   0.106  10.853  14.579
63401SOL     OW92035   9.907   9.707  12.787
63401SOL    HW192036   9.925   9.776  12.851
63401SOL    HW292037   9.854   9.643  12.835
63402SOL     OW92038   9.502   4.447  12.234
63402SOL    HW192039   9.516   4.541  12.226
63402SOL    HW292040   9.554   4.421  12.311
63403SOL     OW92041   7.404   3.506   1.905
63403SOL    HW192042   7.321   3.551   1.894
63403SOL    HW292043   7.461   3.543   1.838
63404SOL     OW92044   3.645   3.902   5.674
63404SOL    HW192045   3.702   3.943   5.609
63404SOL    HW292046   3.583   3.970   5.699
63405SOL     OW92047  12.039   9.977   4.469
63405SOL    HW192048  11.952   9.996   4.434
63405SOL    HW292049  12.025   9.905   4.530
63406SOL     OW92050  11.272   5.962   1.388
63406SOL    HW192051  11.183   5.967   1.421
63406SOL    HW292052  11.266   5.987   1.296
63407SOL     OW92053   2.315   4.604   5.778
63407SOL    HW192054   2.243   4.661   5.803
63407SOL    HW292055   2.393   4.658   5.788
63408SOL     OW92056  14.006   9.997   9.097
63408SOL    HW192057  14.097  10.027   9.103
63408SOL    HW292058  13.954  10.074   9.118
63409SOL     OW92059   8.223  11.035   9.873
63409SOL    HW192060   8.140  10.989   9.877
63409SOL    HW292061   8.282  10.975   9.827
63410SOL     OW92062  13.107  12.011   8.966
63410SOL    HW192063  13.029  11.977   8.922
63410SOL    HW292064  13.124  11.947   9.036
63411SOL     OW92065   0.420  11.258  13.362
63411SOL    HW192066   0.326  11.269  13.379
63411SOL    HW292067   0.462  11.272  13.447
63412SOL     OW92068   1.398   5.546   8.245
63412SOL    HW192069   1.464   5.604   8.281
63412SOL    HW292070   1.444   5.495   8.178
63413SOL     OW92071  12.994   6.407   6.702
63413SOL    HW192072  13.015   6.500   6.715
63413SOL    HW292073  13.063   6.360   6.749
63414SOL     OW92074   2.870   8.684   9.684
63414SOL    HW192075   2.794   8.723   9.639
63414SOL    HW292076   2.913   8.759   9.726
63415SOL     OW92077   0.699   8.973   6.965
63415SOL    HW192078   0.779   8.921   6.972
63415SOL    HW292079   0.723   9.048   6.911
63416SOL     OW92080   6.313   7.212   2.205
63416SOL    HW192081   6.386   7.251   2.253
63416SOL    HW292082   6.338   7.120   2.194
63417SOL     OW92083   1.105   8.036   0.149
63417SOL    HW192084   1.124   8.062   0.059
63417SOL    HW292085   1.084   8.118   0.194
63418SOL     OW92086   8.250   2.135   0.134
63418SOL    HW192087   8.263   2.170   0.222
63418SOL    HW292088   8.165   2.092   0.138
63419SOL     OW92089  14.467   6.226  14.083
63419SOL    HW192090  14.427   6.310  14.062
63419SOL    HW292091  14.532   6.247  14.150
63420SOL     OW92092   4.757   5.730  11.764
63420SOL    HW192093   4.737   5.813  11.807
63420SOL    HW292094   4.741   5.747  11.671
63421SOL     OW92095   8.657   6.084   7.231
63421SOL    HW192096   8.690   6.024   7.298
63421SOL    HW292097   8.688   6.170   7.258
63422SOL     OW92098  14.100   7.894  11.864
63422SOL    HW192099  14.184   7.937  11.848
63422SOL    HW292100  14.070   7.868  11.777
63423SOL     OW92101   1.089   4.682   8.416
63423SOL    HW192102   1.152   4.748   8.445
63423SOL    HW292103   1.045   4.654   8.496
63424SOL     OW92104  10.587   6.183   9.319
63424SOL    HW192105  10.559   6.103   9.275
63424SOL    HW292106  10.681   6.172   9.331
63425SOL     OW92107   6.234  12.339  10.511
63425SOL    HW192108   6.233  12.416  10.454
63425SOL    HW292109   6.251  12.266  10.452
63426SOL     OW92110   8.732  11.466   5.262
63426SOL    HW192111   8.762  11.479   5.172
63426SOL    HW292112   8.643  11.433   5.253
63427SOL     OW92113  14.235  12.616   5.425
63427SOL    HW192114  14.291  12.550   5.467
63427SOL    HW292115  14.200  12.571   5.348
63428SOL     OW92116  14.717   8.498  13.523
63428SOL    HW192117  14.755   8.488  13.436
63428SOL    HW292118  14.701   8.408  13.552
63429SOL     OW92119   8.392   9.547  10.949
63429SOL    HW192120   8.406   9.461  10.911
63429SOL    HW292121   8.307   9.575  10.916
63430SOL     OW92122   4.978  12.064   0.014
63430SOL    HW192123   5.067  12.029   0.009
63430SOL    HW292124   4.966  12.086   0.106
63431SOL     OW92125  11.245   3.826  10.051
63431SOL    HW192126  11.246   3.869  10.137
63431SOL    HW292127  11.263   3.897   9.989
63432SOL     OW92128   0.172   9.788   2.651
63432SOL    HW192129   0.234   9.727   2.612
63432SOL    HW292130   0.207   9.807   2.738
63433SOL     OW92131  11.420  11.346  12.760
63433SOL    HW192132  11.343  11.371  12.812
63433SOL    HW292133  11.490  11.403  12.793
63434SOL     OW92134   6.522   1.397  12.547
63434SOL    HW192135   6.614   1.406  12.574
63434SOL    HW292136   6.523   1.327  12.482
63435SOL     OW92137  11.661   9.957   2.847
63435SOL    HW192138  11.747   9.999   2.839
63435SOL    HW292139  11.635   9.971   2.938
63436SOL     OW92140   7.909  11.669   5.025
63436SOL    HW192141   7.940  11.675   5.116
63436SOL    HW292142   7.907  11.575   5.007
63437SOL     OW92143   5.191   8.079   6.509
63437SOL    HW192144   5.172   8.014   6.576
63437SOL    HW292145   5.149   8.159   6.541
63438SOL     OW92146   8.775   5.823   2.255
63438SOL    HW192147   8.834   5.788   2.321
63438SOL    HW292148   8.797   5.776   2.175
63439SOL     OW92149  12.509   1.118   4.315
63439SOL    HW192150  12.587   1.152   4.359
63439SOL    HW292151  12.438   1.174   4.347
63440SOL     OW92152   9.005   1.036   1.034
63440SOL    HW192153   8.969   0.947   1.037
63440SOL    HW292154   9.039   1.050   1.123
63441SOL     OW92155   9.356  13.745   1.720
63441SOL    HW192156   9.374  13.679   1.653
63441SOL    HW292157   9.330  13.694   1.797
63442SOL     OW92158   6.454   4.886   4.423
63442SOL    HW192159   6.363   4.906   4.401
63442SOL    HW292160   6.490   4.846   4.344
63443SOL     OW92161  12.602   3.818  11.498
63443SOL    HW192162  12.578   3.842  11.588
63443SOL    HW292163  12.526   3.771  11.465
63444SOL     OW92164  12.791   7.332   5.839
63444SOL    HW192165  12.698   7.337   5.819
63444SOL    HW292166  12.806   7.239   5.860
63445SOL     OW92167   3.025   1.479   9.641
63445SOL    HW192168   2.989   1.506   9.557
63445SOL    HW292169   3.096   1.419   9.619
63446SOL     OW92170   9.163  12.498   3.020
63446SOL    HW192171   9.165  12.403   3.006
63446SOL    HW292172   9.223  12.533   2.954
63447SOL     OW92173   1.226  10.052   5.041
63447SOL    HW192174   1.287  10.054   5.114
63447SOL    HW292175   1.281  10.050   4.963
63448SOL     OW92176   4.963   3.418   3.686
63448SOL    HW192177   4.912   3.469   3.750
63448SOL    HW292178   5.035   3.381   3.736
63449SOL     OW92179  12.229  10.266   1.589
63449SOL    HW192180  12.290  10.196   1.614
63449SOL    HW292181  12.192  10.237   1.506
63450SOL     OW92182   4.511  11.060   8.518
63450SOL    HW192183   4.515  10.964   8.525
63450SOL    HW292184   4.578  11.091   8.579
63451SOL     OW92185   7.252  12.070   9.508
63451SOL    HW192186   7.300  11.993   9.537
63451SOL    HW292187   7.271  12.077   9.414
63452SOL     OW92188   6.724   5.445  10.611
63452SOL    HW192189   6.640   5.488  10.628
63452SOL    HW292190   6.779   5.512  10.572
63453SOL     OW92191  11.828   0.413  11.145
63453SOL    HW192192  11.757   0.397  11.208
63453SOL    HW292193  11.832   0.508  11.137
63454SOL     OW92194  10.351   4.295   5.180
63454SOL    HW192195  10.394   4.268   5.261
63454SOL    HW292196  10.258   4.295   5.203
63455SOL     OW92197  12.445  10.272  13.223
63455SOL    HW192198  12.460  10.188  13.267
63455SOL    HW292199  12.484  10.337  13.283
63456SOL     OW92200   8.385   3.220   7.221
63456SOL    HW192201   8.383   3.211   7.316
63456SOL    HW292202   8.411   3.133   7.190
63457SOL     OW92203  13.919  13.595   4.607
63457SOL    HW192204  13.895  13.503   4.594
63457SOL    HW292205  14.005  13.592   4.647
63458SOL     OW92206   0.009   1.109   7.059
63458SOL    HW192207  14.854   1.105   7.148
63458SOL    HW292208  14.817   1.075   7.004
63459SOL     OW92209   9.634   7.101   5.638
63459SOL    HW192210   9.698   7.036   5.667
63459SOL    HW292211   9.684   7.161   5.583
63460SOL     OW92212  10.310   5.853  13.249
63460SOL    HW192213  10.381   5.793  13.270
63460SOL    HW292214  10.233   5.817  13.291
63461SOL     OW92215  14.607   8.558   5.366
63461SOL    HW192216  14.514   8.565   5.343
63461SOL    HW292217  14.607   8.504   5.445
63462SOL     OW92218   5.008  13.245  10.955
63462SOL    HW192219   4.964  13.328  10.937
63462SOL    HW292220   5.018  13.204  10.869
63463SOL     OW92221   2.142   7.545   3.590
63463SOL    HW192222   2.122   7.598   3.666
63463SOL    HW292223   2.084   7.577   3.522
63464SOL     OW92224   8.617   7.403   5.876
63464SOL    HW192225   8.640   7.478   5.821
63464SOL    HW292226   8.701   7.365   5.902
63465SOL     OW92227   5.681  11.630   3.674
63465SOL    HW192228   5.655  11.567   3.741
63465SOL    HW292229   5.670  11.716   3.715
63466SOL     OW92230   2.347  11.651   4.349
63466SOL    HW192231   2.438  11.624   4.360
63466SOL    HW292232   2.348  11.746   4.365
63467SOL     OW92233   2.954   2.385  14.570
63467SOL    HW192234   2.887   2.381  14.502
63467SOL    HW292235   3.014   2.314  14.548
63468SOL     OW92236  14.594  10.860   1.224
63468SOL    HW192237  14.598  10.825   1.313
63468SOL    HW292238  14.683  10.890   1.206
63469SOL     OW92239   3.685   7.992   0.691
63469SOL    HW192240   3.780   7.979   0.701
63469SOL    HW292241   3.646   7.923   0.744
63470SOL     OW92242  12.990   3.786  13.546
63470SOL    HW192243  12.986   3.692  13.564
63470SOL    HW292244  13.029   3.791  13.459
63471SOL     OW92245  11.402   2.037   4.713
63471SOL    HW192246  11.415   1.962   4.771
63471SOL    HW292247  11.454   2.017   4.635
63472SOL     OW92248   5.710   2.658   1.520
63472SOL    HW192249   5.773   2.693   1.457
63472SOL    HW292250   5.657   2.596   1.469
63473SOL     OW92251   1.174   5.303   4.152
63473SOL    HW192252   1.147   5.272   4.066
63473SOL    HW292253   1.190   5.397   4.140
63474SOL     OW92254   6.285   2.176   4.620
63474SOL    HW192255   6.240   2.197   4.701
63474SOL    HW292256   6.220   2.192   4.551
63475SOL     OW92257  12.206  14.142   2.503
63475SOL    HW192258  12.166  14.220   2.542
63475SOL    HW292259  12.134  14.080   2.493
63476SOL     OW92260   0.668  11.847  10.356
63476SOL    HW192261   0.697  11.807  10.438
63476SOL    HW292262   0.609  11.917  10.383
63477SOL     OW92263  11.802  12.773   0.319
63477SOL    HW192264  11.783  12.680   0.304
63477SOL    HW292265  11.794  12.784   0.414
63478SOL     OW92266   5.554   7.284   6.857
63478SOL    HW192267   5.620   7.347   6.829
63478SOL    HW292268   5.502   7.266   6.778
63479SOL     OW92269   3.840  11.833   5.942
63479SOL    HW192270   3.896  11.801   5.872
63479SOL    HW292271   3.861  11.777   6.017
63480SOL     OW92272   7.399   0.195  12.589
63480SOL    HW192273   7.413   0.200  12.684
63480SOL    HW292274   7.326   0.134  12.579
63481SOL     OW92275   9.048   0.530   5.171
63481SOL    HW192276   9.041   0.452   5.115
63481SOL    HW292277   9.090   0.596   5.115
63482SOL     OW92278   7.891   9.476  14.115
63482SOL    HW192279   7.868   9.386  14.139
63482SOL    HW292280   7.921   9.516  14.196
63483SOL     OW92281   4.442   3.335   4.340
63483SOL    HW192282   4.534   3.349   4.318
63483SOL    HW292283   4.434   3.240   4.349
63484SOL     OW92284  14.693   7.850   7.513
63484SOL    HW192285  14.623   7.914   7.501
63484SOL    HW292286  14.694   7.834   7.607
63485SOL     OW92287   7.827   5.926   6.544
63485SOL    HW192288   7.800   5.846   6.499
63485SOL    HW292289   7.788   5.997   6.493
63486SOL     OW92290  12.979   6.365  13.758
63486SOL    HW192291  12.980   6.450  13.715
63486SOL    HW292292  13.040   6.374  13.831
63487SOL     OW92293   2.863   0.725  11.578
63487SOL    HW192294   2.934   0.774  11.537
63487SOL    HW292295   2.785   0.778  11.562
63488SOL     OW92296   3.252   1.384  12.048
63488SOL    HW192297   3.235   1.290  12.035
63488SOL    HW292298   3.344   1.394  12.025
63489SOL     OW92299  13.527   7.671  13.072
63489SOL    HW192300  13.541   7.585  13.113
63489SOL    HW292301  13.435   7.690  13.087
63490SOL     OW92302  14.498   2.241  14.712
63490SOL    HW192303  14.574   2.190  14.683
63490SOL    HW292304  14.533   2.299  14.780
63491SOL     OW92305   0.280   9.032   9.464
63491SOL    HW192306   0.328   9.016   9.546
63491SOL    HW292307   0.247   8.946   9.439
63492SOL     OW92308  10.565  12.641   4.185
63492SOL    HW192309  10.510  12.666   4.111
63492SOL    HW292310  10.592  12.723   4.224
63493SOL     OW92311   5.958   7.991   0.146
63493SOL    HW192312   5.914   7.947   0.073
63493SOL    HW292313   5.896   8.057   0.176
63494SOL     OW92314  12.855   7.538   7.811
63494SOL    HW192315  12.760   7.524   7.814
63494SOL    HW292316  12.879   7.519   7.720
63495SOL     OW92317   0.251   8.702   7.201
63495SOL    HW192318   0.326   8.761   7.203
63495SOL    HW292319   0.214   8.707   7.289
63496SOL     OW92320   3.547   4.123   5.393
63496SOL    HW192321   3.573   4.180   5.465
63496SOL    HW292322   3.607   4.143   5.322
63497SOL     OW92323   5.206   7.266   3.401
63497SOL    HW192324   5.278   7.205   3.412
63497SOL    HW292325   5.147   7.246   3.474
63498SOL     OW92326   2.303   8.713   7.421
63498SOL    HW192327   2.214   8.695   7.391
63498SOL    HW292328   2.358   8.695   7.345
63499SOL     OW92329   9.432   3.972   7.028
63499SOL    HW192330   9.443   4.063   7.056
63499SOL    HW292331   9.486   3.965   6.949
63500SOL     OW92332   7.805   2.929   8.629
63500SOL    HW192333   7.875   2.992   8.611
63500SOL    HW292334   7.806   2.918   8.724
63501SOL     OW92335   5.892   8.812   0.819
63501SOL    HW192336   5.910   8.752   0.747
63501SOL    HW292337   5.898   8.758   0.898
63502SOL     OW92338  10.730   1.390   7.006
63502SOL    HW192339  10.645   1.366   7.044
63502SOL    HW292340  10.718   1.478   6.973
63503SOL     OW92341  12.578   7.645   9.998
63503SOL    HW192342  12.656   7.640   9.942
63503SOL    HW292343  12.584   7.567  10.054
63504SOL     OW92344  10.139   7.969   2.807
63504SOL    HW192345  10.067   7.959   2.870
63504SOL    HW292346  10.190   8.043   2.841
63505SOL     OW92347   5.203  12.299   8.018
63505SOL    HW192348   5.150  12.265   7.945
63505SOL    HW292349   5.161  12.382   8.040
63506SOL     OW92350   4.764   3.843   8.385
63506SOL    HW192351   4.759   3.918   8.445
63506SOL    HW292352   4.827   3.869   8.318
63507SOL     OW92353   0.461   6.264   2.976
63507SOL    HW192354   0.512   6.282   2.897
63507SOL    HW292355   0.485   6.333   3.037
63508SOL     OW92356   5.658   7.751   9.053
63508SOL    HW192357   5.737   7.805   9.064
63508SOL    HW292358   5.585   7.812   9.063
63509SOL     OW92359   0.540   0.714   3.160
63509SOL    HW192360   0.576   0.725   3.072
63509SOL    HW292361   0.473   0.647   3.152
63510SOL     OW92362   0.188   1.352   7.104
63510SOL    HW192363   0.136   1.274   7.087
63510SOL    HW292364   0.273   1.335   7.063
63511SOL     OW92365   4.893   7.440  14.736
63511SOL    HW192366   4.870   7.491  14.814
63511SOL    HW292367   4.810   7.417  14.696
63512SOL     OW92368  11.703  10.150  11.042
63512SOL    HW192369  11.648  10.076  11.067
63512SOL    HW292370  11.701  10.209  11.118
63513SOL     OW92371   7.903   0.124   3.439
63513SOL    HW192372   7.865   0.048   3.484
63513SOL    HW292373   7.841   0.144   3.369
63514SOL     OW92374   4.386  13.748   2.001
63514SOL    HW192375   4.347  13.697   2.072
63514SOL    HW292376   4.401  13.835   2.040
63515SOL     OW92377   4.484   8.883  11.351
63515SOL    HW192378   4.514   8.863  11.440
63515SOL    HW292379   4.458   8.799  11.315
63516SOL     OW92380   6.419   0.689   2.703
63516SOL    HW192381   6.458   0.739   2.774
63516SOL    HW292382   6.344   0.741   2.674
63517SOL     OW92383  11.021   2.536   5.191
63517SOL    HW192384  11.100   2.589   5.179
63517SOL    HW292385  11.053   2.446   5.195
63518SOL     OW92386   0.176   0.036  10.539
63518SOL    HW192387   0.187   0.023  10.634
63518SOL    HW292388   0.265   0.029  10.504
63519SOL     OW92389   9.434   8.723  13.224
63519SOL    HW192390   9.511   8.675  13.251
63519SOL    HW292391   9.360   8.668  13.249
63520SOL     OW92392   1.688   4.524   6.750
63520SOL    HW192393   1.642   4.566   6.678
63520SOL    HW292394   1.761   4.584   6.770
63521SOL     OW92395  10.713  12.918   1.163
63521SOL    HW192396  10.673  12.888   1.245
63521SOL    HW292397  10.658  12.880   1.094
63522SOL     OW92398   7.275  10.126  10.392
63522SOL    HW192399   7.278  10.050  10.335
63522SOL    HW292400   7.182  10.134  10.416
63523SOL     OW92401  13.606  10.296   0.508
63523SOL    HW192402  13.517  10.261   0.504
63523SOL    HW292403  13.637  10.274   0.596
63524SOL     OW92404   8.733  13.075  12.870
63524SOL    HW192405   8.675  13.076  12.794
63524SOL    HW292406   8.686  13.125  12.937
63525SOL     OW92407  11.418   7.744  12.785
63525SOL    HW192408  11.446   7.705  12.702
63525SOL    HW292409  11.326   7.719  12.793
63526SOL     OW92410   8.285   2.752   9.189
63526SOL    HW192411   8.296   2.664   9.153
63526SOL    HW292412   8.221   2.794   9.131
63527SOL     OW92413   4.633  10.943   9.262
63527SOL    HW192414   4.606  10.943   9.354
63527SOL    HW292415   4.594  10.863   9.227
63528SOL     OW92416   0.356   5.821   8.855
63528SOL    HW192417   0.317   5.735   8.841
63528SOL    HW292418   0.282   5.879   8.870
63529SOL     OW92419   2.226  14.727   1.885
63529SOL    HW192420   2.160  14.748   1.951
63529SOL    HW292421   2.177  14.713   1.805
63530SOL     OW92422  11.337   1.396   3.870
63530SOL    HW192423  11.302   1.351   3.793
63530SOL    HW292424  11.425   1.360   3.881
63531SOL     OW92425   4.294   9.276   1.717
63531SOL    HW192426   4.301   9.222   1.796
63531SOL    HW292427   4.324   9.219   1.646
63532SOL     OW92428   3.407   6.685   3.657
63532SOL    HW192429   3.483   6.742   3.665
63532SOL    HW292430   3.342   6.737   3.609
63533SOL     OW92431   2.470  10.478   5.664
63533SOL    HW192432   2.453  10.569   5.690
63533SOL    HW292433   2.448  10.427   5.742
63534SOL     OW92434   4.794   9.755   6.167
63534SOL    HW192435   4.887   9.739   6.151
63534SOL    HW292436   4.781   9.847   6.146
63535SOL     OW92437  13.275   3.351  12.828
63535SOL    HW192438  13.211   3.282  12.810
63535SOL    HW292439  13.346   3.336  12.765
63536SOL     OW92440   2.876   1.734   0.290
63536SOL    HW192441   2.835   1.666   0.342
63536SOL    HW292442   2.876   1.811   0.347
63537SOL     OW92443   9.127   2.563  13.465
63537SOL    HW192444   9.115   2.482  13.514
63537SOL    HW292445   9.151   2.535  13.377
63538SOL     OW92446   1.674   0.703   3.935
63538SOL    HW192447   1.594   0.664   3.899
63538SOL    HW292448   1.713   0.634   3.987
63539SOL     OW92449   8.432  12.019   8.042
63539SOL    HW192450   8.420  11.933   8.081
63539SOL    HW292451   8.356  12.069   8.071
63540SOL     OW92452   4.629   7.360  13.927
63540SOL    HW192453   4.555   7.309  13.893
63540SOL    HW292454   4.600   7.390  14.013
63541SOL     OW92455   0.345   5.452  13.881
63541SOL    HW192456   0.392   5.373  13.909
63541SOL    HW292457   0.397   5.484  13.807
63542SOL     OW92458   2.590  10.152   6.382
63542SOL    HW192459   2.507  10.121   6.418
63542SOL    HW292460   2.649  10.078   6.392
63543SOL     OW92461   9.033  14.212   1.229
63543SOL    HW192462   9.020  14.147   1.160
63543SOL    HW292463   9.057  14.161   1.306
63544SOL     OW92464   3.333   4.612  14.034
63544SOL    HW192465   3.391   4.536  14.029
63544SOL    HW292466   3.247   4.579  14.007
63545SOL     OW92467  10.974  10.377   0.798
63545SOL    HW192468  10.943  10.298   0.754
63545SOL    HW292469  11.069  10.367   0.799
63546SOL     OW92470   0.341   1.862  13.231
63546SOL    HW192471   0.346   1.776  13.273
63546SOL    HW292472   0.261   1.858  13.179
63547SOL     OW92473   1.693  13.009  10.653
63547SOL    HW192474   1.733  13.091  10.622
63547SOL    HW292475   1.711  12.946  10.583
63548SOL     OW92476  13.558  13.178   6.170
63548SOL    HW192477  13.525  13.263   6.141
63548SOL    HW292478  13.595  13.194   6.257
63549SOL     OW92479   0.993   3.628   4.295
63549SOL    HW192480   1.079   3.654   4.327
63549SOL    HW292481   1.006   3.609   4.203
63550SOL     OW92482  12.749   1.783   3.366
63550SOL    HW192483  12.678   1.830   3.409
63550SOL    HW292484  12.738   1.692   3.394
63551SOL     OW92485   5.414   3.113   9.655
63551SOL    HW192486   5.330   3.144   9.622
63551SOL    HW292487   5.449   3.186   9.706
63552SOL     OW92488  10.473   2.808   9.335
63552SOL    HW192489  10.453   2.898   9.310
63552SOL    HW292490  10.387   2.767   9.346
63553SOL     OW92491   3.489  11.134   1.160
63553SOL    HW192492   3.571  11.086   1.149
63553SOL    HW292493   3.429  11.070   1.198
63554SOL     OW92494   9.598   4.264   4.311
63554SOL    HW192495   9.617   4.211   4.388
63554SOL    HW292496   9.666   4.333   4.313
63555SOL     OW92497  12.320   1.712   0.948
63555SOL    HW192498  12.266   1.735   1.024
63555SOL    HW292499  12.276   1.751   0.873
63556SOL     OW92500   3.237   8.748   9.408
63556SOL    HW192501   3.208   8.792   9.488
63556SOL    HW292502   3.179   8.672   9.401
63557SOL     OW92503  11.515   8.793  14.215
63557SOL    HW192504  11.534   8.702  14.195
63557SOL    HW292505  11.466   8.790  14.298
63558SOL     OW92506   5.366   4.603  12.073
63558SOL    HW192507   5.315   4.667  12.122
63558SOL    HW292508   5.452   4.644  12.061
63559SOL     OW92509  11.562   1.934   0.546
63559SOL    HW192510  11.615   1.936   0.626
63559SOL    HW292511  11.509   1.854   0.554
63560SOL     OW92512  11.949  12.803   0.079
63560SOL    HW192513  12.043  12.802   0.064
63560SOL    HW292514  11.940  12.819   0.173
63561SOL     OW92515   3.591   8.227   9.694
63561SOL    HW192516   3.667   8.197   9.743
63561SOL    HW292517   3.595   8.180   9.611
63562SOL     OW92518   9.964   0.344  14.121
63562SOL    HW192519  10.053   0.336  14.086
63562SOL    HW292520   9.932   0.254  14.124
63563SOL     OW92521   7.731   0.625   7.766
63563SOL    HW192522   7.804   0.573   7.735
63563SOL    HW292523   7.735   0.617   7.861
63564SOL     OW92524   6.470   8.097   4.882
63564SOL    HW192525   6.521   8.145   4.948
63564SOL    HW292526   6.519   8.016   4.868
63565SOL     OW92527   1.061   2.361  14.051
63565SOL    HW192528   1.018   2.445  14.065
63565SOL    HW292529   1.053   2.315  14.134
63566SOL     OW92530   8.809  11.882   7.459
63566SOL    HW192531   8.722  11.911   7.431
63566SOL    HW292532   8.836  11.821   7.391
63567SOL     OW92533   7.077  13.671   0.002
63567SOL    HW192534   7.090  13.597   0.062
63567SOL    HW292535   6.996  13.712   0.033
63568SOL     OW92536  10.264   3.387   7.075
63568SOL    HW192537  10.231   3.301   7.102
63568SOL    HW292538  10.225   3.401   6.988
63569SOL     OW92539   7.172  12.304  10.404
63569SOL    HW192540   7.131  12.307  10.491
63569SOL    HW292541   7.260  12.337  10.418
63570SOL     OW92542   9.572   3.064   7.019
63570SOL    HW192543   9.655   3.030   7.053
63570SOL    HW292544   9.556   3.144   7.070
63571SOL     OW92545   3.586   9.869   7.548
63571SOL    HW192546   3.554   9.922   7.621
63571SOL    HW292547   3.649   9.809   7.588
63572SOL     OW92548   3.952   5.100   9.040
63572SOL    HW192549   3.999   5.097   9.123
63572SOL    HW292550   3.950   5.193   9.016
63573SOL     OW92551  11.979   7.108   7.675
63573SOL    HW192552  12.073   7.122   7.669
63573SOL    HW292553  11.955   7.065   7.593
63574SOL     OW92554   2.797   6.990   9.282
63574SOL    HW192555   2.775   7.080   9.257
63574SOL    HW292556   2.724   6.938   9.250
63575SOL     OW92557   8.583   6.347   2.687
63575SOL    HW192558   8.532   6.425   2.663
63575SOL    HW292559   8.672   6.366   2.657
63576SOL     OW92560  14.778   2.958  13.571
63576SOL    HW192561  14.814   3.039  13.536
63576SOL    HW292562  14.851   2.896  13.568
63577SOL     OW92563   3.580   8.473   8.448
63577SOL    HW192564   3.619   8.523   8.519
63577SOL    HW292565   3.491   8.508   8.439
63578SOL     OW92566   0.906  14.281   0.688
63578SOL    HW192567   0.875  14.351   0.630
63578SOL    HW292568   0.844  14.209   0.673
63579SOL     OW92569   7.863   7.446   6.475
63579SOL    HW192570   7.888   7.521   6.529
63579SOL    HW292571   7.768   7.444   6.478
63580SOL     OW92572   6.963   6.591   0.590
63580SOL    HW192573   7.015   6.531   0.643
63580SOL    HW292574   6.910   6.535   0.535
63581SOL     OW92575  11.937   0.584   6.103
63581SOL    HW192576  11.986   0.664   6.083
63581SOL    HW292577  11.848   0.614   6.123
63582SOL     OW92578   4.586  11.295   2.117
63582SOL    HW192579   4.551  11.373   2.159
63582SOL    HW292580   4.517  11.229   2.127
63583SOL     OW92581  12.183   2.526   5.055
63583SOL    HW192582  12.088   2.513   5.060
63583SOL    HW292583  12.204   2.580   5.131
63584SOL     OW92584  14.482   6.032   6.496
63584SOL    HW192585  14.573   6.012   6.517
63584SOL    HW292586  14.465   5.981   6.417
63585SOL     OW92587   0.043  13.118   6.005
63585SOL    HW192588   0.080  13.032   6.027
63585SOL    HW292589   0.081  13.177   6.069
63586SOL     OW92590   1.028  12.382  10.035
63586SOL    HW192591   0.934  12.383  10.053
63586SOL    HW292592   1.056  12.295  10.062
63587SOL     OW92593   0.097   2.188   5.412
63587SOL    HW192594   0.157   2.133   5.362
63587SOL    HW292595   0.113   2.277   5.380
63588SOL     OW92596   5.019   3.667   9.324
63588SOL    HW192597   4.945   3.726   9.337
63588SOL    HW292598   4.979   3.582   9.304
63589SOL     OW92599   9.603   4.135   4.754
63589SOL    HW192600   9.627   4.118   4.663
63589SOL    HW292601   9.632   4.057   4.801
63590SOL     OW92602  12.009   9.007  10.293
63590SOL    HW192603  12.004   9.088  10.242
63590SOL    HW292604  12.076   9.025  10.360
63591SOL     OW92605   1.848   2.133  12.442
63591SOL    HW192606   1.847   2.212  12.389
63591SOL    HW292607   1.757   2.120  12.469
63592SOL     OW92608   2.997   3.245  14.512
63592SOL    HW192609   2.906   3.217  14.528
63592SOL    HW292610   3.045   3.164  14.498
63593SOL     OW92611   9.499   6.466   7.348
63593SOL    HW192612   9.553   6.543   7.367
63593SOL    HW292613   9.537   6.429   7.268
63594SOL     OW92614   7.085   4.070  11.511
63594SOL    HW192615   7.034   4.057  11.431
63594SOL    HW292616   7.169   4.105  11.480
63595SOL     OW92617   6.646   8.619   0.291
63595SOL    HW192618   6.631   8.689   0.356
63595SOL    HW292619   6.670   8.543   0.343
63596SOL     OW92620   4.621   1.980   2.998
63596SOL    HW192621   4.584   1.917   3.060
63596SOL    HW292622   4.581   1.955   2.914
63597SOL     OW92623   3.869  10.622  11.975
63597SOL    HW192624   3.868  10.640  12.069
63597SOL    HW292625   3.956  10.583  11.959
63598SOL     OW92626   8.384   0.140  14.452
63598SOL    HW192627   8.420   0.207  14.511
63598SOL    HW292628   8.329   0.086  14.508
63599SOL     OW92629   7.945  13.866  12.605
63599SOL    HW192630   7.869  13.917  12.631
63599SOL    HW292631   7.997  13.926  12.551
63600SOL     OW92632   1.783   3.155  11.362
63600SOL    HW192633   1.788   3.246  11.392
63600SOL    HW292634   1.789   3.103  11.442
63601SOL     OW92635   4.487   2.023   7.945
63601SOL    HW192636   4.435   2.061   7.874
63601SOL    HW292637   4.423   1.996   8.010
63602SOL     OW92638   7.941   4.823  14.102
63602SOL    HW192639   7.913   4.733  14.116
63602SOL    HW292640   7.863   4.868  14.069
63603SOL     OW92641  10.965   6.919  12.575
63603SOL    HW192642  10.960   6.880  12.662
63603SOL    HW292643  10.881   6.897  12.533
63604SOL     OW92644   7.721   4.956  13.986
63604SOL    HW192645   7.630   4.934  14.007
63604SOL    HW292646   7.715   5.042  13.944
63605SOL     OW92647   6.697   2.827  13.942
63605SOL    HW192648   6.725   2.850  13.853
63605SOL    HW292649   6.680   2.911  13.985
63606SOL     OW92650   1.266  14.860   7.196
63606SOL    HW192651   1.189  14.805   7.180
63606SOL    HW292652   1.272   0.037   7.119
63607SOL     OW92653  14.770   4.999   2.044
63607SOL    HW192654  14.754   5.087   2.011
63607SOL    HW292655  14.866   4.992   2.049
63608SOL     OW92656  13.308   1.318   5.534
63608SOL    HW192657  13.369   1.334   5.606
63608SOL    HW292658  13.359   1.335   5.455
63609SOL     OW92659   2.671   4.120   6.044
63609SOL    HW192660   2.705   4.147   6.130
63609SOL    HW292661   2.631   4.200   6.008
63610SOL     OW92662  10.514   4.267  11.260
63610SOL    HW192663  10.471   4.352  11.263
63610SOL    HW292664  10.442   4.204  11.259
63611SOL     OW92665   2.066  14.436  12.313
63611SOL    HW192666   2.154  14.474  12.310
63611SOL    HW292667   2.046  14.428  12.406
63612SOL     OW92668  11.716   3.377   3.577
63612SOL    HW192669  11.681   3.450   3.628
63612SOL    HW292670  11.644   3.351   3.519
63613SOL     OW92671   4.869  12.029  11.544
63613SOL    HW192672   4.850  11.952  11.491
63613SOL    HW292673   4.907  12.091  11.483
63614SOL     OW92674   7.058  12.071   7.290
63614SOL    HW192675   7.015  11.994   7.327
63614SOL    HW292676   7.126  12.036   7.232
63615SOL     OW92677  13.820   8.223   5.272
63615SOL    HW192678  13.882   8.205   5.202
63615SOL    HW292679  13.825   8.146   5.329
63616SOL     OW92680   0.089   0.524   4.438
63616SOL    HW192681   0.067   0.529   4.531
63616SOL    HW292682   0.103   0.431   4.422
63617SOL     OW92683  11.414   8.386  11.946
63617SOL    HW192684  11.385   8.438  11.871
63617SOL    HW292685  11.416   8.296  11.913
63618SOL     OW92686   5.091   3.385   0.020
63618SOL    HW192687   5.182   3.379  14.870
63618SOL    HW292688   5.097   3.423   0.108
63619SOL     OW92689   7.044   7.268  12.881
63619SOL    HW192690   7.092   7.225  12.810
63619SOL    HW292691   6.992   7.335  12.838
63620SOL     OW92692   3.420   1.959   6.061
63620SOL    HW192693   3.461   1.937   6.145
63620SOL    HW292694   3.328   1.935   6.073
63621SOL     OW92695  11.223   6.987   4.838
63621SOL    HW192696  11.175   6.912   4.873
63621SOL    HW292697  11.271   6.952   4.763
63622SOL     OW92698   7.098   4.556  11.365
63622SOL    HW192699   7.048   4.631  11.395
63622SOL    HW292700   7.132   4.581  11.279
63623SOL     OW92701   7.002  12.459   8.934
63623SOL    HW192702   7.015  12.516   8.858
63623SOL    HW292703   6.931  12.401   8.908
63624SOL     OW92704   8.534  12.587   3.763
63624SOL    HW192705   8.543  12.671   3.808
63624SOL    HW292706   8.570  12.602   3.675
63625SOL     OW92707   3.338   3.500   3.903
63625SOL    HW192708   3.252   3.469   3.930
63625SOL    HW292709   3.365   3.440   3.833
63626SOL     OW92710  14.382   5.085  10.070
63626SOL    HW192711  14.476   5.099  10.056
63626SOL    HW292712  14.378   5.006  10.124
63627SOL     OW92713   0.329   4.807   9.334
63627SOL    HW192714   0.368   4.892   9.354
63627SOL    HW292715   0.280   4.822   9.253
63628SOL     OW92716   1.794  14.671  11.501
63628SOL    HW192717   1.797  14.640  11.410
63628SOL    HW292718   1.884  14.694  11.522
63629SOL     OW92719   9.999   0.493  12.597
63629SOL    HW192720  10.043   0.434  12.536
63629SOL    HW292721   9.924   0.526  12.549
63630SOL     OW92722   0.984   0.652   9.868
63630SOL    HW192723   0.976   0.594   9.792
63630SOL    HW292724   0.996   0.739   9.831
63631SOL     OW92725   8.456   3.459  12.540
63631SOL    HW192726   8.440   3.500  12.455
63631SOL    HW292727   8.397   3.505  12.600
63632SOL     OW92728   9.302   2.955   2.800
63632SOL    HW192729   9.394   2.976   2.782
63632SOL    HW292730   9.253   3.015   2.745
63633SOL     OW92731  14.090   9.832  12.481
63633SOL    HW192732  14.114   9.924  12.495
63633SOL    HW292733  14.057   9.803  12.566
63634SOL     OW92734   7.972   3.906  11.682
63634SOL    HW192735   8.044   3.864  11.635
63634SOL    HW292736   7.894   3.879  11.635
63635SOL     OW92737   7.967   2.153   4.458
63635SOL    HW192738   7.928   2.111   4.381
63635SOL    HW292739   7.892   2.177   4.513
63636SOL     OW92740   6.575   7.435   2.718
63636SOL    HW192741   6.640   7.378   2.759
63636SOL    HW292742   6.604   7.446   2.628
63637SOL     OW92743   4.388  12.826   1.483
63637SOL    HW192744   4.365  12.738   1.454
63637SOL    HW292745   4.439  12.813   1.563
63638SOL     OW92746  14.220   5.198   3.926
63638SOL    HW192747  14.304   5.243   3.926
63638SOL    HW292748  14.167   5.244   3.861
63639SOL     OW92749  13.683   2.228   1.456
63639SOL    HW192750  13.716   2.150   1.501
63639SOL    HW292751  13.588   2.226   1.469
63640SOL     OW92752  10.457   2.291  11.807
63640SOL    HW192753  10.542   2.323  11.838
63640SOL    HW292754  10.477   2.244  11.726
63641SOL     OW92755   2.856   3.056   9.412
63641SOL    HW192756   2.884   2.979   9.462
63641SOL    HW292757   2.810   3.111   9.476
63642SOL     OW92758  14.351   7.538   3.674
63642SOL    HW192759  14.392   7.573   3.753
63642SOL    HW292760  14.400   7.458   3.655
63643SOL     OW92761   5.275   2.359  10.710
63643SOL    HW192762   5.331   2.436  10.721
63643SOL    HW292763   5.238   2.367  10.622
63644SOL     OW92764  11.504  14.559   3.477
63644SOL    HW192765  11.499  14.492   3.545
63644SOL    HW292766  11.495  14.511   3.395
63645SOL     OW92767  11.720  10.508  14.859
63645SOL    HW192768  11.780  10.558   0.034
63645SOL    HW292769  11.771  10.432  14.830
63646SOL     OW92770  12.824   0.708  14.097
63646SOL    HW192771  12.782   0.771  14.038
63646SOL    HW292772  12.876   0.652  14.040
63647SOL     OW92773   2.092   1.041  13.320
63647SOL    HW192774   2.080   1.082  13.234
63647SOL    HW292775   2.165   0.981  13.308
63648SOL     OW92776   0.669  12.401   3.062
63648SOL    HW192777   0.599  12.338   3.077
63648SOL    HW292778   0.733  12.384   3.131
63649SOL     OW92779  11.986  11.661   6.644
63649SOL    HW192780  11.987  11.567   6.626
63649SOL    HW292781  11.930  11.670   6.721
63650SOL     OW92782  12.355   8.376   6.034
63650SOL    HW192783  12.439   8.333   6.012
63650SOL    HW292784  12.319   8.323   6.105
63651SOL     OW92785   4.074  11.275   0.516
63651SOL    HW192786   4.107  11.324   0.441
63651SOL    HW292787   3.999  11.325   0.547
63652SOL     OW92788   7.692  11.912   0.890
63652SOL    HW192789   7.657  11.998   0.910
63652SOL    HW292790   7.711  11.873   0.976
63653SOL     OW92791   6.011   2.498  11.509
63653SOL    HW192792   5.980   2.545  11.431
63653SOL    HW292793   6.067   2.561  11.554
63654SOL     OW92794   8.594   3.619   2.595
63654SOL    HW192795   8.564   3.531   2.570
63654SOL    HW292796   8.568   3.627   2.687
63655SOL     OW92797   1.634   1.477   3.284
63655SOL    HW192798   1.681   1.480   3.201
63655SOL    HW292799   1.662   1.556   3.330
63656SOL     OW92800  12.950  12.086   3.761
63656SOL    HW192801  12.900  12.059   3.839
63656SOL    HW292802  12.998  12.164   3.789
63657SOL     OW92803  11.177  11.976   5.676
63657SOL    HW192804  11.189  12.040   5.746
63657SOL    HW292805  11.158  11.894   5.721
63658SOL     OW92806   3.611   9.558   5.965
63658SOL    HW192807   3.667   9.503   5.911
63658SOL    HW292808   3.596   9.508   6.045
63659SOL     OW92809  11.653   6.217   5.916
63659SOL    HW192810  11.706   6.142   5.890
63659SOL    HW292811  11.671   6.228   6.009
63660SOL     OW92812   4.074   1.676  11.267
63660SOL    HW192813   4.169   1.680  11.280
63660SOL    HW292814   4.039   1.732  11.336
63661SOL     OW92815   8.937   6.832   1.198
63661SOL    HW192816   8.876   6.877   1.256
63661SOL    HW292817   8.914   6.863   1.110
63662SOL     OW92818   0.618   2.453   4.791
63662SOL    HW192819   0.573   2.523   4.745
63662SOL    HW292820   0.702   2.445   4.746
63663SOL     OW92821   0.615  10.265  12.874
63663SOL    HW192822   0.559  10.188  12.863
63663SOL    HW292823   0.593  10.321  12.800
63664SOL     OW92824  10.404   8.093  10.914
63664SOL    HW192825  10.389   8.074  10.821
63664SOL    HW292826  10.366   8.179  10.928
63665SOL     OW92827   1.893   6.332   0.291
63665SOL    HW192828   1.843   6.256   0.261
63665SOL    HW292829   1.983   6.312   0.269
63666SOL     OW92830   2.736   2.477   1.628
63666SOL    HW192831   2.742   2.560   1.580
63666SOL    HW292832   2.650   2.481   1.671
63667SOL     OW92833   0.197   9.403  13.349
63667SOL    HW192834   0.291   9.421  13.355
63667SOL    HW292835   0.187   9.358  13.264
63668SOL     OW92836  11.443  12.823  13.545
63668SOL    HW192837  11.536  12.835  13.526
63668SOL    HW292838  11.441  12.758  13.615
63669SOL     OW92839   2.540  11.683   7.358
63669SOL    HW192840   2.452  11.670   7.323
63669SOL    HW292841   2.526  11.727   7.442
63670SOL     OW92842  10.332   0.390  13.175
63670SOL    HW192843  10.408   0.445  13.153
63670SOL    HW292844  10.311   0.414  13.265
63671SOL     OW92845   0.221  12.417   4.960
63671SOL    HW192846   0.224  12.502   4.915
63671SOL    HW292847   0.215  12.440   5.053
63672SOL     OW92848  12.058  12.239  11.584
63672SOL    HW192849  11.981  12.191  11.555
63672SOL    HW292850  12.050  12.244  11.679
63673SOL     OW92851  14.308   1.881   6.174
63673SOL    HW192852  14.251   1.845   6.106
63673SOL    HW292853  14.328   1.807   6.231
63674SOL     OW92854   3.603  13.892   9.237
63674SOL    HW192855   3.630  13.837   9.310
63674SOL    HW292856   3.522  13.933   9.266
63675SOL     OW92857  14.454   8.428   5.590
63675SOL    HW192858  14.408   8.399   5.669
63675SOL    HW292859  14.447   8.523   5.593
63676SOL     OW92860  11.209   4.077  10.979
63676SOL    HW192861  11.213   3.985  10.952
63676SOL    HW292862  11.292   4.092  11.024
63677SOL     OW92863  13.345   2.670   1.789
63677SOL    HW192864  13.276   2.608   1.812
63677SOL    HW292865  13.301   2.739   1.739
63678SOL     OW92866   3.572   7.216   7.591
63678SOL    HW192867   3.551   7.293   7.539
63678SOL    HW292868   3.629   7.248   7.660
63679SOL     OW92869  13.011  13.185  10.392
63679SOL    HW192870  12.955  13.108  10.387
63679SOL    HW292871  12.950  13.259  10.399
63680SOL     OW92872   7.154  10.665   7.731
63680SOL    HW192873   7.188  10.639   7.817
63680SOL    HW292874   7.231  10.666   7.674
63681SOL     OW92875   3.197   0.566   6.549
63681SOL    HW192876   3.288   0.543   6.569
63681SOL    HW292877   3.147   0.489   6.574
63682SOL     OW92878   4.723   4.286   9.191
63682SOL    HW192879   4.676   4.222   9.137
63682SOL    HW292880   4.701   4.370   9.153
63683SOL     OW92881   5.962   8.977   0.012
63683SOL    HW192882   5.894   9.013  14.834
63683SOL    HW292883   5.952   9.025   0.095
63684SOL     OW92884   0.505  10.208  11.320
63684SOL    HW192885   0.517  10.272  11.249
63684SOL    HW292886   0.477  10.128  11.275
63685SOL     OW92887   5.864  12.498   6.767
63685SOL    HW192888   5.815  12.509   6.848
63685SOL    HW292889   5.873  12.404   6.756
63686SOL     OW92890   5.914   4.690   3.145
63686SOL    HW192891   5.820   4.704   3.136
63686SOL    HW292892   5.926   4.660   3.235
63687SOL     OW92893   5.093   0.924  10.691
63687SOL    HW192894   5.097   1.001  10.634
63687SOL    HW292895   5.026   0.946  10.757
63688SOL     OW92896   1.771  11.582   6.505
63688SOL    HW192897   1.724  11.582   6.422
63688SOL    HW292898   1.729  11.651   6.556
63689SOL     OW92899   9.271  10.124   3.651
63689SOL    HW192900   9.356  10.167   3.650
63689SOL    HW292901   9.222  10.169   3.720
63690SOL     OW92902   7.914   6.200  12.438
63690SOL    HW192903   7.959   6.151  12.369
63690SOL    HW292904   7.973   6.274  12.457
63691SOL     OW92905   8.640  14.287   5.793
63691SOL    HW192906   8.549  14.307   5.818
63691SOL    HW292907   8.676  14.243   5.870
63692SOL     OW92908   0.270   9.488   6.437
63692SOL    HW192909   0.356   9.515   6.404
63692SOL    HW292910   0.225   9.452   6.360
63693SOL     OW92911   4.018   1.255   8.510
63693SOL    HW192912   4.099   1.223   8.470
63693SOL    HW292913   4.034   1.348   8.525
63694SOL     OW92914   6.086   2.595   8.925
63694SOL    HW192915   6.049   2.628   8.843
63694SOL    HW292916   6.146   2.525   8.898
63695SOL     OW92917  13.839   6.807   8.338
63695SOL    HW192918  13.883   6.888   8.365
63695SOL    HW292919  13.896   6.737   8.369
63696SOL     OW92920   0.264   9.250   1.713
63696SOL    HW192921   0.339   9.231   1.769
63696SOL    HW292922   0.215   9.316   1.761
63697SOL     OW92923   6.241  13.794  13.971
63697SOL    HW192924   6.196  13.724  13.924
63697SOL    HW292925   6.305  13.749  14.027
63698SOL     OW92926  11.707   2.971  13.785
63698SOL    HW192927  11.751   2.888  13.803
63698SOL    HW292928  11.700   3.014  13.870
63699SOL     OW92929  10.204   3.052   7.460
63699SOL    HW192930  10.133   3.007   7.505
63699SOL    HW292931  10.270   2.985   7.446
63700SOL     OW92932   9.319   1.380   5.013
63700SOL    HW192933   9.383   1.449   5.027
63700SOL    HW292934   9.367   1.299   5.030
63701SOL     OW92935  14.638  12.349  12.641
63701SOL    HW192936  14.543  12.343  12.653
63701SOL    HW292937  14.673  12.276  12.692
63702SOL     OW92938   4.098  11.203  12.178
63702SOL    HW192939   4.184  11.161  12.171
63702SOL    HW292940   4.063  11.172  12.261
63703SOL     OW92941   3.295  10.513  12.334
63703SOL    HW192942   3.219  10.461  12.307
63703SOL    HW292943   3.264  10.603  12.333
63704SOL     OW92944  12.199   8.554   0.460
63704SOL    HW192945  12.237   8.472   0.430
63704SOL    HW292946  12.129   8.529   0.520
63705SOL     OW92947   9.042  13.054   7.136
63705SOL    HW192948   9.025  13.120   7.204
63705SOL    HW292949   8.961  13.004   7.130
63706SOL     OW92950   6.476   1.276  10.622
63706SOL    HW192951   6.476   1.234  10.537
63706SOL    HW292952   6.565   1.309  10.633
63707SOL     OW92953   9.096   8.001   9.476
63707SOL    HW192954   9.125   8.070   9.417
63707SOL    HW292955   9.162   7.999   9.546
63708SOL     OW92956   3.907  14.796  14.845
63708SOL    HW192957   3.850  14.774   0.040
63708SOL    HW292958   3.993  14.809   0.005
63709SOL     OW92959   5.634   2.368   3.203
63709SOL    HW192960   5.675   2.441   3.158
63709SOL    HW292961   5.707   2.312   3.230
63710SOL     OW92962  11.756   2.194   8.866
63710SOL    HW192963  11.677   2.191   8.920
63710SOL    HW292964  11.725   2.179   8.777
63711SOL     OW92965   3.622  14.056   0.232
63711SOL    HW192966   3.619  13.962   0.246
63711SOL    HW292967   3.713  14.075   0.210
63712SOL     OW92968  13.709  11.106   0.635
63712SOL    HW192969  13.623  11.074   0.606
63712SOL    HW292970  13.753  11.133   0.554
63713SOL     OW92971   1.164  10.452   4.165
63713SOL    HW192972   1.106  10.499   4.224
63713SOL    HW292973   1.106  10.395   4.114
63714SOL     OW92974  13.837  12.420   4.480
63714SOL    HW192975  13.754  12.458   4.451
63714SOL    HW292976  13.899  12.440   4.410
63715SOL     OW92977   0.968   1.451   3.186
63715SOL    HW192978   0.881   1.491   3.187
63715SOL    HW292979   0.973   1.404   3.269
63716SOL     OW92980   3.328   1.882  12.337
63716SOL    HW192981   3.308   1.799  12.381
63716SOL    HW292982   3.422   1.895  12.351
63717SOL     OW92983   1.062   7.116  14.830
63717SOL    HW192984   1.054   7.173  14.754
63717SOL    HW292985   1.006   7.041  14.810
63718SOL     OW92986  13.818   3.956   5.259
63718SOL    HW192987  13.791   3.931   5.347
63718SOL    HW292988  13.739   3.946   5.206
63719SOL     OW92989   1.846   2.197  11.116
63719SOL    HW192990   1.761   2.173  11.081
63719SOL    HW292991   1.850   2.156  11.203
63720SOL     OW92992   5.326   3.854   2.260
63720SOL    HW192993   5.384   3.803   2.316
63720SOL    HW292994   5.341   3.821   2.172
63721SOL     OW92995   7.597   8.122  10.743
63721SOL    HW192996   7.625   8.115  10.652
63721SOL    HW292997   7.520   8.179  10.740
63722SOL     OW92998  12.906  14.760   2.930
63722SOL    HW192999  12.845  14.780   2.859
63722SOL    HW293000  12.931  14.846   2.964
63723SOL     OW93001   1.059  10.810  13.620
63723SOL    HW193002   0.998  10.742  13.649
63723SOL    HW293003   1.049  10.812  13.525
63724SOL     OW93004   2.391   0.572   7.191
63724SOL    HW193005   2.464   0.511   7.200
63724SOL    HW293006   2.339   0.559   7.270
63725SOL     OW93007   3.959  11.985   7.872
63725SOL    HW193008   3.970  11.980   7.777
63725SOL    HW293009   3.934  11.897   7.898
63726SOL     OW93010   1.096  14.446   3.917
63726SOL    HW193011   1.120  14.493   3.997
63726SOL    HW293012   1.001  14.439   3.921
63727SOL     OW93013  12.463   0.661  10.270
63727SOL    HW193014  12.461   0.757  10.262
63727SOL    HW293015  12.487   0.631  10.182
63728SOL     OW93016   4.512   3.377   6.683
63728SOL    HW193017   4.558   3.313   6.629
63728SOL    HW293018   4.456   3.325   6.741
63729SOL     OW93019   2.360  10.812  13.492
63729SOL    HW193020   2.321  10.884  13.541
63729SOL    HW293021   2.446  10.799  13.532
63730SOL     OW93022  13.536  13.665   3.292
63730SOL    HW193023  13.566  13.579   3.321
63730SOL    HW293024  13.441  13.660   3.297
63731SOL     OW93025   9.518  13.940  13.703
63731SOL    HW193026   9.502  13.849  13.680
63731SOL    HW293027   9.433  13.983  13.693
63732SOL     OW93028  14.442   3.553   8.986
63732SOL    HW193029  14.356   3.594   8.982
63732SOL    HW293030  14.504   3.626   8.989
63733SOL     OW93031  12.282   6.608   1.403
63733SOL    HW193032  12.207   6.549   1.414
63733SOL    HW293033  12.310   6.595   1.312
63734SOL     OW93034   6.658   3.945   8.286
63734SOL    HW193035   6.704   3.865   8.263
63734SOL    HW293036   6.612   3.970   8.205
63735SOL     OW93037   6.071   0.116   6.840
63735SOL    HW193038   6.081   0.167   6.920
63735SOL    HW293039   6.006   0.049   6.863
63736SOL     OW93040  10.157   6.594  11.054
63736SOL    HW193041  10.169   6.549  10.971
63736SOL    HW293042  10.201   6.678  11.043
63737SOL     OW93043   3.978   9.290  13.376
63737SOL    HW193044   3.958   9.377  13.410
63737SOL    HW293045   4.024   9.306  13.294
63738SOL     OW93046   2.423   8.673  11.163
63738SOL    HW193047   2.458   8.584  11.165
63738SOL    HW293048   2.490   8.727  11.204
63739SOL     OW93049   2.100   9.802   9.791
63739SOL    HW193050   2.024   9.838   9.836
63739SOL    HW293051   2.171   9.863   9.812
63740SOL     OW93052   5.551   3.898   0.374
63740SOL    HW193053   5.476   3.933   0.421
63740SOL    HW293054   5.517   3.876   0.288
63741SOL     OW93055   3.991   7.725  13.081
63741SOL    HW193056   3.997   7.697  12.990
63741SOL    HW293057   3.901   7.704  13.107
63742SOL     OW93058   4.509  10.413   4.327
63742SOL    HW193059   4.545  10.441   4.411
63742SOL    HW293060   4.518  10.489   4.270
63743SOL     OW93061  12.364  11.271   4.866
63743SOL    HW193062  12.366  11.349   4.921
63743SOL    HW293063  12.318  11.298   4.787
63744SOL     OW93064   8.971   8.763   8.057
63744SOL    HW193065   8.949   8.807   7.974
63744SOL    HW293066   8.956   8.670   8.039
63745SOL     OW93067   0.301   0.895   1.791
63745SOL    HW193068   0.375   0.841   1.819
63745SOL    HW293069   0.312   0.977   1.839
63746SOL     OW93070   9.325   6.372   8.298
63746SOL    HW193071   9.281   6.422   8.367
63746SOL    HW293072   9.401   6.334   8.341
63747SOL     OW93073   4.040  11.073   1.177
63747SOL    HW193074   4.034  11.023   1.258
63747SOL    HW293075   4.134  11.080   1.161
63748SOL     OW93076  11.619   1.451  14.151
63748SOL    HW193077  11.584   1.366  14.125
63748SOL    HW293078  11.548   1.492  14.201
63749SOL     OW93079   0.981   3.517  10.938
63749SOL    HW193080   0.966   3.522  11.032
63749SOL    HW293081   1.027   3.598  10.916
63750SOL     OW93082   7.567   8.756   7.237
63750SOL    HW193083   7.528   8.669   7.233
63750SOL    HW293084   7.499   8.815   7.207
63751SOL     OW93085  14.157  14.205   4.094
63751SOL    HW193086  14.171  14.141   4.024
63751SOL    HW293087  14.094  14.162   4.152
63752SOL     OW93088  11.939   2.318  12.815
63752SOL    HW193089  11.923   2.411  12.832
63752SOL    HW293090  12.034   2.308  12.822
63753SOL     OW93091   3.690   2.770   1.088
63753SOL    HW193092   3.738   2.704   1.039
63753SOL    HW293093   3.604   2.731   1.105
63754SOL     OW93094   6.359  14.303   4.326
63754SOL    HW193095   6.325  14.265   4.407
63754SOL    HW293096   6.358  14.397   4.342
63755SOL     OW93097   4.288   3.519   8.951
63755SOL    HW193098   4.217   3.566   8.907
63755SOL    HW293099   4.310   3.574   9.026
63756SOL     OW93100   2.860   9.723   1.762
63756SOL    HW193101   2.907   9.736   1.679
63756SOL    HW293102   2.777   9.769   1.750
63757SOL     OW93103   5.116   0.055  10.963
63757SOL    HW193104   5.094   0.008  11.044
63757SOL    HW293105   5.194   0.010  10.930
63758SOL     OW93106   0.336  13.743   9.110
63758SOL    HW193107   0.392  13.694   9.171
63758SOL    HW293108   0.312  13.679   9.043
63759SOL     OW93109   9.520  11.506   1.491
63759SOL    HW193110   9.505  11.593   1.454
63759SOL    HW293111   9.478  11.446   1.430
63760SOL     OW93112   0.372   1.687   7.726
63760SOL    HW193113   0.459   1.714   7.757
63760SOL    HW293114   0.384   1.598   7.695
63761SOL     OW93115  13.843   4.017   3.423
63761SOL    HW193116  13.885   3.946   3.376
63761SOL    HW293117  13.906   4.089   3.421
63762SOL     OW93118   4.770  13.898   6.198
63762SOL    HW193119   4.676  13.908   6.208
63762SOL    HW293120   4.802  13.881   6.287
63763SOL     OW93121  14.676   7.099   5.844
63763SOL    HW193122  14.752   7.041   5.839
63763SOL    HW293123  14.665   7.116   5.938
63764SOL     OW93124   8.966  12.968   3.819
63764SOL    HW193125   8.899  12.907   3.848
63764SOL    HW293126   8.917  13.046   3.791
63765SOL     OW93127   7.971   0.659   6.608
63765SOL    HW193128   7.937   0.653   6.519
63765SOL    HW293129   7.932   0.738   6.645
63766SOL     OW93130   6.381   9.962   8.783
63766SOL    HW193131   6.406   9.873   8.806
63766SOL    HW293132   6.296   9.952   8.740
63767SOL     OW93133   4.529   0.575   7.909
63767SOL    HW193134   4.578   0.566   7.991
63767SOL    HW293135   4.538   0.490   7.866
63768SOL     OW93136   9.428   8.170   5.320
63768SOL    HW193137   9.509   8.198   5.277
63768SOL    HW293138   9.374   8.136   5.249
63769SOL     OW93139   2.591  12.057  10.951
63769SOL    HW193140   2.498  12.071  10.934
63769SOL    HW293141   2.604  11.963  10.940
63770SOL     OW93142  14.725   6.066   1.246
63770SOL    HW193143  14.646   6.044   1.294
63770SOL    HW293144  14.725   6.008   1.170
63771SOL     OW93145   1.205   1.357   0.575
63771SOL    HW193146   1.272   1.402   0.524
63771SOL    HW293147   1.142   1.426   0.598
63772SOL     OW93148   9.115   9.467   9.342
63772SOL    HW193149   9.174   9.538   9.366
63772SOL    HW293150   9.034   9.511   9.316
63773SOL     OW93151   1.951  12.766   9.536
63773SOL    HW193152   1.954  12.772   9.440
63773SOL    HW293153   1.998  12.685   9.556
63774SOL     OW93154   2.062  10.198   5.714
63774SOL    HW193155   2.023  10.284   5.726
63774SOL    HW293156   2.076  10.191   5.619
63775SOL     OW93157   4.267   5.600   2.745
63775SOL    HW193158   4.361   5.586   2.735
63775SOL    HW293159   4.255   5.694   2.731
63776SOL     OW93160   8.814   1.572   8.533
63776SOL    HW193161   8.817   1.478   8.550
63776SOL    HW293162   8.777   1.610   8.612
63777SOL     OW93163   1.304   8.290  11.973
63777SOL    HW193164   1.384   8.286  12.025
63777SOL    HW293165   1.278   8.198  11.961
63778SOL     OW93166   6.114   4.493  13.984
63778SOL    HW193167   6.081   4.468  13.898
63778SOL    HW293168   6.198   4.447  13.991
63779SOL     OW93169  11.403   2.776  10.584
63779SOL    HW193170  11.489   2.809  10.558
63779SOL    HW293171  11.352   2.855  10.605
63780SOL     OW93172   9.934   2.807   6.045
63780SOL    HW193173  10.012   2.849   6.008
63780SOL    HW293174   9.863   2.869   6.027
63781SOL     OW93175   7.893   1.127   1.411
63781SOL    HW193176   7.836   1.050   1.409
63781SOL    HW293177   7.865   1.180   1.336
63782SOL     OW93178  14.267  13.259   9.191
63782SOL    HW193179  14.321  13.228   9.264
63782SOL    HW293180  14.177  13.253   9.224
63783SOL     OW93181   7.510   4.589   2.149
63783SOL    HW193182   7.558   4.635   2.080
63783SOL    HW293183   7.577   4.570   2.215
63784SOL     OW93184   8.894   9.268   7.766
63784SOL    HW193185   8.985   9.290   7.745
63784SOL    HW293186   8.868   9.334   7.830
63785SOL     OW93187   9.532   9.021   9.849
63785SOL    HW193188   9.503   9.097   9.798
63785SOL    HW293189   9.501   9.039   9.938
63786SOL     OW93190   4.278  12.592   7.074
63786SOL    HW193191   4.218  12.656   7.111
63786SOL    HW293192   4.305  12.538   7.148
63787SOL     OW93193   3.433  14.639   8.586
63787SOL    HW193194   3.497  14.650   8.657
63787SOL    HW293195   3.417  14.545   8.583
63788SOL     OW93196  11.586   1.123  13.094
63788SOL    HW193197  11.668   1.167  13.115
63788SOL    HW293198  11.540   1.185  13.036
63789SOL     OW93199   9.943  11.250   5.575
63789SOL    HW193200  10.027  11.205   5.567
63789SOL    HW293201   9.881  11.193   5.529
63790SOL     OW93202   0.734   9.042   3.664
63790SOL    HW193203   0.721   8.955   3.701
63790SOL    HW293204   0.827   9.044   3.640
63791SOL     OW93205   1.276   2.782  11.649
63791SOL    HW193206   1.215   2.813  11.583
63791SOL    HW293207   1.257   2.835  11.726
63792SOL     OW93208  11.183  11.359  14.243
63792SOL    HW193209  11.278  11.348  14.241
63792SOL    HW293210  11.151  11.300  14.176
63793SOL     OW93211  10.678   1.351   0.849
63793SOL    HW193212  10.604   1.386   0.899
63793SOL    HW293213  10.744   1.332   0.915
63794SOL     OW93214  13.188  12.489  10.175
63794SOL    HW193215  13.110  12.514  10.225
63794SOL    HW293216  13.250  12.461  10.242
63795SOL     OW93217   8.568   8.071   2.425
63795SOL    HW193218   8.522   8.108   2.500
63795SOL    HW293219   8.579   8.145   2.365
63796SOL     OW93220   2.255   5.098   5.493
63796SOL    HW193221   2.309   5.071   5.567
63796SOL    HW293222   2.233   5.017   5.449
63797SOL     OW93223   3.209   8.778   6.112
63797SOL    HW193224   3.190   8.854   6.167
63797SOL    HW293225   3.206   8.813   6.023
63798SOL     OW93226  10.656   0.745  14.361
63798SOL    HW193227  10.639   0.811  14.428
63798SOL    HW293228  10.701   0.792  14.291
63799SOL     OW93229   8.685  13.836  13.077
63799SOL    HW193230   8.674  13.823  12.983
63799SOL    HW293231   8.614  13.895  13.102
63800SOL     OW93232   9.649  11.898   2.036
63800SOL    HW193233   9.611  11.949   2.108
63800SOL    HW293234   9.590  11.913   1.963
63801SOL     OW93235   7.634   0.487   8.053
63801SOL    HW193236   7.617   0.436   7.974
63801SOL    HW293237   7.661   0.423   8.119
63802SOL     OW93238   5.852   9.757   8.297
63802SOL    HW193239   5.888   9.764   8.208
63802SOL    HW293240   5.858   9.664   8.318
63803SOL     OW93241  12.680  14.682  14.470
63803SOL    HW193242  12.696  14.642  14.385
63803SOL    HW293243  12.765  14.718  14.496
63804SOL     OW93244  14.025  14.092   2.436
63804SOL    HW193245  14.047  14.063   2.525
63804SOL    HW293246  13.931  14.079   2.429
63805SOL     OW93247   8.999   0.474   6.889
63805SOL    HW193248   8.925   0.513   6.842
63805SOL    HW293249   9.076   0.499   6.837
63806SOL     OW93250   5.714   9.448   0.950
63806SOL    HW193251   5.656   9.372   0.948
63806SOL    HW293252   5.727   9.467   1.043
63807SOL     OW93253   3.853  11.347  14.726
63807SOL    HW193254   3.801  11.282  14.679
63807SOL    HW293255   3.939  11.343  14.685
63808SOL     OW93256  11.260   4.244   2.630
63808SOL    HW193257  11.227   4.229   2.719
63808SOL    HW293258  11.354   4.227   2.636
63809SOL     OW93259   5.009   2.416   7.243
63809SOL    HW193260   5.031   2.491   7.299
63809SOL    HW293261   5.052   2.435   7.159
63810SOL     OW93262   1.321   8.094   3.798
63810SOL    HW193263   1.295   8.186   3.799
63810SOL    HW293264   1.240   8.047   3.775
63811SOL     OW93265   1.669   4.151  12.226
63811SOL    HW193266   1.703   4.158  12.315
63811SOL    HW293267   1.712   4.073  12.190
63812SOL     OW93268   3.921   3.397  11.225
63812SOL    HW193269   3.966   3.461  11.280
63812SOL    HW293270   3.956   3.414  11.137
63813SOL     OW93271  10.536   1.551   6.206
63813SOL    HW193272  10.602   1.568   6.138
63813SOL    HW293273  10.458   1.597   6.176
63814SOL     OW93274   8.752  14.465   3.365
63814SOL    HW193275   8.662  14.497   3.372
63814SOL    HW293276   8.800  14.538   3.326
63815SOL     OW93277   4.714  12.754  13.142
63815SOL    HW193278   4.707  12.661  13.120
63815SOL    HW293279   4.671  12.800  13.070
63816SOL     OW93280   4.475   4.500   7.783
63816SOL    HW193281   4.491   4.414   7.744
63816SOL    HW293282   4.563   4.535   7.802
63817SOL     OW93283   5.937   7.759   6.159
63817SOL    HW193284   6.022   7.718   6.180
63817SOL    HW293285   5.898   7.777   6.244
63818SOL     OW93286   4.923   1.402  10.428
63818SOL    HW193287   4.992   1.469  10.436
63818SOL    HW293288   4.860   1.440  10.367
63819SOL     OW93289   3.372   8.843  13.565
63819SOL    HW193290   3.316   8.865  13.490
63819SOL    HW293291   3.328   8.769  13.606
63820SOL     OW93292   7.213   8.104   6.120
63820SOL    HW193293   7.299   8.129   6.153
63820SOL    HW293294   7.229   8.076   6.030
63821SOL     OW93295  12.387   6.655  10.680
63821SOL    HW193296  12.435   6.621  10.604
63821SOL    HW293297  12.418   6.746  10.689
63822SOL     OW93298  14.082  11.710   8.885
63822SOL    HW193299  13.991  11.683   8.875
63822SOL    HW293300  14.128  11.630   8.910
63823SOL     OW93301   0.728   0.388   6.056
63823SOL    HW193302   0.633   0.389   6.066
63823SOL    HW293303   0.757   0.315   6.112
63824SOL     OW93304   3.383   4.119  14.089
63824SOL    HW193305   3.332   4.200  14.082
63824SOL    HW293306   3.318   4.051  14.106
63825SOL     OW93307   2.844   9.674   7.890
63825SOL    HW193308   2.920   9.635   7.935
63825SOL    HW293309   2.812   9.740   7.951
63826SOL     OW93310   2.404  13.730   7.038
63826SOL    HW193311   2.384  13.724   6.944
63826SOL    HW293312   2.492  13.766   7.041
63827SOL     OW93313  11.256   2.655  12.610
63827SOL    HW193314  11.210   2.715  12.551
63827SOL    HW293315  11.261   2.573  12.561
63828SOL     OW93316   1.470   7.515   3.296
63828SOL    HW193317   1.418   7.485   3.371
63828SOL    HW293318   1.492   7.606   3.317
63829SOL     OW93319  14.150  14.448   6.527
63829SOL    HW193320  14.125  14.490   6.609
63829SOL    HW293321  14.177  14.520   6.470
63830SOL     OW93322   7.139  13.212   1.679
63830SOL    HW193323   7.158  13.208   1.773
63830SOL    HW293324   7.057  13.164   1.670
63831SOL     OW93325  12.093   8.594   3.894
63831SOL    HW193326  12.104   8.561   3.805
63831SOL    HW293327  11.999   8.611   3.901
63832SOL     OW93328   5.018  14.292  14.333
63832SOL    HW193329   4.926  14.313  14.316
63832SOL    HW293330   5.036  14.333  14.418
63833SOL     OW93331   4.646  12.688  10.935
63833SOL    HW193332   4.644  12.781  10.956
63833SOL    HW293333   4.576  12.650  10.989
63834SOL     OW93334  14.272   3.291  14.230
63834SOL    HW193335  14.348   3.344  14.206
63834SOL    HW293336  14.196   3.346  14.211
63835SOL     OW93337   6.237  10.018   8.045
63835SOL    HW193338   6.300  10.035   8.116
63835SOL    HW293339   6.240   9.923   8.033
63836SOL     OW93340   0.886  13.130   8.047
63836SOL    HW193341   0.887  13.123   8.143
63836SOL    HW293342   0.968  13.175   8.025
63837SOL     OW93343  11.947   9.530   2.147
63837SOL    HW193344  12.031   9.572   2.165
63837SOL    HW293345  11.971   9.446   2.107
63838SOL     OW93346  12.518  11.044   9.114
63838SOL    HW193347  12.473  10.976   9.065
63838SOL    HW293348  12.449  11.090   9.161
63839SOL     OW93349  12.007   5.876   2.319
63839SOL    HW193350  12.091   5.903   2.356
63839SOL    HW293351  11.947   5.874   2.394
63840SOL     OW93352   9.225   1.071   7.398
63840SOL    HW193353   9.215   1.156   7.356
63840SOL    HW293354   9.291   1.026   7.344
63841SOL     OW93355   2.442   8.631   4.596
63841SOL    HW193356   2.386   8.587   4.532
63841SOL    HW293357   2.397   8.713   4.616
63842SOL     OW93358  11.988  10.162  13.028
63842SOL    HW193359  11.931  10.232  12.998
63842SOL    HW293360  12.023  10.124  12.947
63843SOL     OW93361  14.294   2.736  11.041
63843SOL    HW193362  14.265   2.778  11.122
63843SOL    HW293363  14.379   2.776  11.023
63844SOL     OW93364   3.079   0.842   8.018
63844SOL    HW193365   3.162   0.854   8.065
63844SOL    HW293366   3.061   0.748   8.024
63845SOL     OW93367   7.591   0.309   4.588
63845SOL    HW193368   7.654   0.240   4.607
63845SOL    HW293369   7.538   0.275   4.516
63846SOL     OW93370   4.138   7.091   2.143
63846SOL    HW193371   4.054   7.089   2.099
63846SOL    HW293372   4.118   7.072   2.235
63847SOL     OW93373   2.703  11.982  12.458
63847SOL    HW193374   2.680  11.895  12.490
63847SOL    HW293375   2.777  12.010  12.513
63848SOL     OW93376   4.930  12.288  14.185
63848SOL    HW193377   4.845  12.247  14.172
63848SOL    HW293378   4.934  12.306  14.279
63849SOL     OW93379   1.820   5.723   3.763
63849SOL    HW193380   1.905   5.723   3.719
63849SOL    HW293381   1.810   5.634   3.796
63850SOL     OW93382   3.702   7.190   0.914
63850SOL    HW193383   3.706   7.202   1.009
63850SOL    HW293384   3.774   7.243   0.880
63851SOL     OW93385  11.287  10.502   2.053
63851SOL    HW193386  11.300  10.407   2.055
63851SOL    HW293387  11.373  10.538   2.073
63852SOL     OW93388   7.371   6.043  13.129
63852SOL    HW193389   7.423   5.992  13.067
63852SOL    HW293390   7.435   6.085  13.186
63853SOL     OW93391   5.047  11.702   6.137
63853SOL    HW193392   5.017  11.780   6.090
63853SOL    HW293393   4.998  11.630   6.098
63854SOL     OW93394   7.549   1.175   4.278
63854SOL    HW193395   7.633   1.172   4.325
63854SOL    HW293396   7.569   1.141   4.191
63855SOL     OW93397   9.852  14.542   4.160
63855SOL    HW193398   9.848  14.455   4.199
63855SOL    HW293399   9.913  14.533   4.087
63856SOL     OW93400  12.556   7.214   2.226
63856SOL    HW193401  12.502   7.158   2.171
63856SOL    HW293402  12.509   7.297   2.230
63857SOL     OW93403   0.463   8.638   7.576
63857SOL    HW193404   0.377   8.670   7.603
63857SOL    HW293405   0.455   8.543   7.575
63858SOL     OW93406   1.619   5.758   2.793
63858SOL    HW193407   1.546   5.717   2.747
63858SOL    HW293408   1.693   5.752   2.732
63859SOL     OW93409  14.076   5.549  12.506
63859SOL    HW193410  14.133   5.617  12.473
63859SOL    HW293411  14.110   5.468  12.468
63860SOL     OW93412  13.275   9.664  11.039
63860SOL    HW193413  13.295   9.659  11.132
63860SOL    HW293414  13.303   9.751  11.012
63861SOL     OW93415  11.548   8.689   8.932
63861SOL    HW193416  11.500   8.728   9.004
63861SOL    HW293417  11.634   8.733   8.934
63862SOL     OW93418   4.787   1.230   8.944
63862SOL    HW193419   4.838   1.150   8.956
63862SOL    HW293420   4.748   1.247   9.029
63863SOL     OW93421   9.298  10.177  11.548
63863SOL    HW193422   9.213  10.188  11.506
63863SOL    HW293423   9.349  10.252  11.519
63864SOL     OW93424   0.894   6.083   1.867
63864SOL    HW193425   0.811   6.041   1.890
63864SOL    HW293426   0.929   6.113   1.951
63865SOL     OW93427   4.176  12.576  11.434
63865SOL    HW193428   4.136  12.499  11.473
63865SOL    HW293429   4.244  12.541  11.376
63866SOL     OW93430  10.097   9.084  14.042
63866SOL    HW193431  10.135   8.996  14.042
63866SOL    HW293432  10.041   9.085  13.965
63867SOL     OW93433   6.050   3.708   3.113
63867SOL    HW193434   5.955   3.721   3.107
63867SOL    HW293435   6.063   3.614   3.102
63868SOL     OW93436   6.993   9.438   7.182
63868SOL    HW193437   7.070   9.389   7.210
63868SOL    HW293438   6.919   9.391   7.221
63869SOL     OW93439  11.828  14.203  12.693
63869SOL    HW193440  11.809  14.187  12.601
63869SOL    HW293441  11.745  14.230  12.731
63870SOL     OW93442   9.492   7.033  13.915
63870SOL    HW193443   9.479   7.084  13.995
63870SOL    HW293444   9.487   7.097  13.844
63871SOL     OW93445   0.663  12.954  10.407
63871SOL    HW193446   0.586  12.953  10.464
63871SOL    HW293447   0.725  12.895  10.449
63872SOL     OW93448  14.368   4.358   6.042
63872SOL    HW193449  14.300   4.312   6.091
63872SOL    HW293450  14.425   4.396   6.110
63873SOL     OW93451   0.312   2.014   7.288
63873SOL    HW193452   0.309   1.935   7.341
63873SOL    HW293453   0.279   2.083   7.345
63874SOL     OW93454   9.691   8.978   5.722
63874SOL    HW193455   9.729   9.022   5.646
63874SOL    HW293456   9.754   8.993   5.792
63875SOL     OW93457   8.194  10.735   6.686
63875SOL    HW193458   8.113  10.764   6.729
63875SOL    HW293459   8.168  10.657   6.637
63876SOL     OW93460  13.327   3.840   4.599
63876SOL    HW193461  13.382   3.883   4.533
63876SOL    HW293462  13.337   3.894   4.677
63877SOL     OW93463   2.025   7.122   9.564
63877SOL    HW193464   1.933   7.128   9.537
63877SOL    HW293465   2.031   7.036   9.606
63878SOL     OW93466   6.052   2.583   1.848
63878SOL    HW193467   6.134   2.536   1.833
63878SOL    HW293468   5.988   2.538   1.792
63879SOL     OW93469  11.872   2.683  11.489
63879SOL    HW193470  11.811   2.756  11.504
63879SOL    HW293471  11.850   2.650  11.402
63880SOL     OW93472   9.853  11.852   7.797
63880SOL    HW193473   9.796  11.777   7.815
63880SOL    HW293474   9.810  11.927   7.838
63881SOL     OW93475   0.591  13.698  10.051
63881SOL    HW193476   0.665  13.759  10.041
63881SOL    HW293477   0.623  13.616  10.013
63882SOL     OW93478   8.306   6.194   8.716
63882SOL    HW193479   8.351   6.278   8.700
63882SOL    HW293480   8.298   6.154   8.630
63883SOL     OW93481  11.885   5.593   7.075
63883SOL    HW193482  11.954   5.659   7.085
63883SOL    HW293483  11.911   5.522   7.135
63884SOL     OW93484  14.484   4.439  13.285
63884SOL    HW193485  14.569   4.482  13.274
63884SOL    HW293486  14.444   4.442  13.198
63885SOL     OW93487   3.726   0.112   8.835
63885SOL    HW193488   3.813   0.074   8.821
63885SOL    HW293489   3.727   0.138   8.928
63886SOL     OW93490   5.124   0.249   4.603
63886SOL    HW193491   5.213   0.221   4.581
63886SOL    HW293492   5.127   0.345   4.599
63887SOL     OW93493   3.786   5.070  13.815
63887SOL    HW193494   3.770   5.033  13.729
63887SOL    HW293495   3.727   5.022  13.874
63888SOL     OW93496  14.182   0.044  10.275
63888SOL    HW193497  14.134  14.854  10.230
63888SOL    HW293498  14.251   0.069  10.213
63889SOL     OW93499   9.044   0.677   1.963
63889SOL    HW193500   8.990   0.634   1.897
63889SOL    HW293501   8.995   0.666   2.045
63890SOL     OW93502  10.280   2.977  11.656
63890SOL    HW193503  10.320   2.934  11.580
63890SOL    HW293504  10.314   3.066  11.653
63891SOL     OW93505   1.503  11.547   0.492
63891SOL    HW193506   1.426  11.591   0.528
63891SOL    HW293507   1.475  11.516   0.406
63892SOL     OW93508  11.760  10.574   2.163
63892SOL    HW193509  11.809  10.533   2.234
63892SOL    HW293510  11.672  10.536   2.169
63893SOL     OW93511   4.259   2.016   3.225
63893SOL    HW193512   4.252   2.060   3.309
63893SOL    HW293513   4.267   1.923   3.247
63894SOL     OW93514   8.763  12.226   3.063
63894SOL    HW193515   8.802  12.139   3.063
63894SOL    HW293516   8.831  12.283   3.098
63895SOL     OW93517   0.521  10.149  10.242
63895SOL    HW193518   0.533  10.151  10.147
63895SOL    HW293519   0.426  10.140  10.254
63896SOL     OW93520   1.053   3.397  11.944
63896SOL    HW193521   0.992   3.470  11.943
63896SOL    HW293522   1.010   3.331  11.999
63897SOL     OW93523  12.207  14.840   3.616
63897SOL    HW193524  12.207  14.748   3.640
63897SOL    HW293525  12.263   0.003   3.681
63898SOL     OW93526   5.224   9.718  10.745
63898SOL    HW193527   5.241   9.791  10.685
63898SOL    HW293528   5.197   9.646  10.689
63899SOL     OW93529   6.524   7.467   9.847
63899SOL    HW193530   6.571   7.503   9.922
63899SOL    HW293531   6.576   7.391   9.820
63900SOL     OW93532   6.565   4.964  14.815
63900SOL    HW193533   6.661   4.963  14.821
63900SOL    HW293534   6.543   4.884  14.767
63901SOL     OW93535  12.681   9.642  10.081
63901SOL    HW193536  12.661   9.552  10.108
63901SOL    HW293537  12.618   9.661  10.012
63902SOL     OW93538   5.323   7.555   6.165
63902SOL    HW193539   5.301   7.645   6.187
63902SOL    HW293540   5.399   7.562   6.106
63903SOL     OW93541   0.390   9.078   9.746
63903SOL    HW193542   0.469   9.122   9.716
63903SOL    HW293543   0.324   9.146   9.751
63904SOL     OW93544  14.691   8.029   4.864
63904SOL    HW193545  14.742   8.020   4.944
63904SOL    HW293546  14.602   8.006   4.890
63905SOL     OW93547   7.323   1.768   7.105
63905SOL    HW193548   7.312   1.825   7.029
63905SOL    HW293549   7.310   1.679   7.071
63906SOL     OW93550   3.481   2.451   4.539
63906SOL    HW193551   3.388   2.433   4.554
63906SOL    HW293552   3.527   2.382   4.587
63907SOL     OW93553   2.736   5.826   7.236
63907SOL    HW193554   2.727   5.907   7.186
63907SOL    HW293555   2.662   5.772   7.208
63908SOL     OW93556   5.430   0.060   9.105
63908SOL    HW193557   5.486   0.041   9.030
63908SOL    HW293558   5.360  14.873   9.100
63909SOL     OW93559   4.528  13.371  11.992
63909SOL    HW193560   4.573  13.407  11.915
63909SOL    HW293561   4.594  13.316  12.034
63910SOL     OW93562  10.514  13.109  14.294
63910SOL    HW193563  10.590  13.081  14.345
63910SOL    HW293564  10.544  13.107  14.203
63911SOL     OW93565   1.777  11.829   0.723
63911SOL    HW193566   1.816  11.833   0.635
63911SOL    HW293567   1.688  11.797   0.708
63912SOL     OW93568   2.706  11.805   8.490
63912SOL    HW193569   2.703  11.898   8.467
63912SOL    HW293570   2.618  11.773   8.475
63913SOL     OW93571   6.179  14.655  14.036
63913SOL    HW193572   6.237  14.731  14.043
63913SOL    HW293573   6.116  14.667  14.106
63914SOL     OW93574  11.682   9.394   1.126
63914SOL    HW193575  11.607   9.406   1.184
63914SOL    HW293576  11.673   9.304   1.093
63915SOL     OW93577   8.633  10.123   1.216
63915SOL    HW193578   8.629  10.169   1.132
63915SOL    HW293579   8.547  10.082   1.225
63916SOL     OW93580   4.819   5.046   0.802
63916SOL    HW193581   4.837   4.984   0.731
63916SOL    HW293582   4.824   4.993   0.882
63917SOL     OW93583   5.316   6.813   7.236
63917SOL    HW193584   5.395   6.820   7.184
63917SOL    HW293585   5.270   6.896   7.221
63918SOL     OW93586   1.908   6.732  12.988
63918SOL    HW193587   1.840   6.726  12.920
63918SOL    HW293588   1.860   6.755  13.068
63919SOL     OW93589   5.612   8.052  14.456
63919SOL    HW193590   5.560   7.986  14.409
63919SOL    HW293591   5.597   8.133  14.407
63920SOL     OW93592   0.025  13.162  13.549
63920SOL    HW193593   0.012  13.069  13.565
63920SOL    HW293594  14.841  13.184  13.480
63921SOL     OW93595  10.213   7.137   2.702
63921SOL    HW193596  10.214   7.178   2.789
63921SOL    HW293597  10.121   7.132   2.678
63922SOL     OW93598   2.734   4.835  10.288
63922SOL    HW193599   2.656   4.854  10.236
63922SOL    HW293600   2.804   4.884  10.244
63923SOL     OW93601   7.624   2.547   4.161
63923SOL    HW193602   7.659   2.471   4.208
63923SOL    HW293603   7.573   2.509   4.090
63924SOL     OW93604  14.702   5.804   3.475
63924SOL    HW193605  14.686   5.785   3.383
63924SOL    HW293606  14.793   5.775   3.490
63925SOL     OW93607  10.019   1.265   9.246
63925SOL    HW193608  10.022   1.360   9.238
63925SOL    HW293609   9.968   1.249   9.326
63926SOL     OW93610  14.146  14.832  11.255
63926SOL    HW193611  14.128   0.045  11.234
63926SOL    HW293612  14.164  14.831  11.349
63927SOL     OW93613   5.934  11.036   0.207
63927SOL    HW193614   5.976  10.987   0.136
63927SOL    HW293615   5.982  11.119   0.211
63928SOL     OW93616  11.974   4.278   0.257
63928SOL    HW193617  11.997   4.216   0.188
63928SOL    HW293618  11.939   4.223   0.328
63929SOL     OW93619   3.057  10.713   7.397
63929SOL    HW193620   3.084  10.669   7.317
63929SOL    HW293621   2.962  10.725   7.387
63930SOL     OW93622   7.519   5.031  12.542
63930SOL    HW193623   7.434   5.030  12.499
63930SOL    HW293624   7.500   5.044  12.634
63931SOL     OW93625   2.014  11.406  14.456
63931SOL    HW193626   1.972  11.403  14.370
63931SOL    HW293627   2.013  11.499  14.480
63932SOL     OW93628   3.716  10.395  13.206
63932SOL    HW193629   3.760  10.420  13.125
63932SOL    HW293630   3.755  10.310  13.229
63933SOL     OW93631   7.548  12.930   0.922
63933SOL    HW193632   7.497  12.859   0.959
63933SOL    HW293633   7.483  12.990   0.886
63934SOL     OW93634   9.827   5.555   5.728
63934SOL    HW193635   9.775   5.611   5.671
63934SOL    HW293636   9.792   5.467   5.715
63935SOL     OW93637   2.101   6.886  11.026
63935SOL    HW193638   2.008   6.904  11.016
63935SOL    HW293639   2.122   6.827  10.954
63936SOL     OW93640   3.394  12.565   7.649
63936SOL    HW193641   3.304  12.570   7.617
63936SOL    HW293642   3.447  12.600   7.578
63937SOL     OW93643  13.796  11.137   3.039
63937SOL    HW193644  13.712  11.121   2.996
63937SOL    HW293645  13.860  11.137   2.968
63938SOL     OW93646  12.103  11.812   1.967
63938SOL    HW193647  12.129  11.899   1.937
63938SOL    HW293648  12.061  11.772   1.891
63939SOL     OW93649  13.443   4.461   4.539
63939SOL    HW193650  13.376   4.435   4.602
63939SOL    HW293651  13.406   4.537   4.493
63940SOL     OW93652  14.388   7.409   2.201
63940SOL    HW193653  14.474   7.383   2.235
63940SOL    HW293654  14.379   7.361   2.118
63941SOL     OW93655   3.011   9.028   6.011
63941SOL    HW193656   2.967   8.951   6.047
63941SOL    HW293657   2.943   9.071   5.958
63942SOL     OW93658   5.010   7.571   0.788
63942SOL    HW193659   5.083   7.590   0.846
63942SOL    HW293660   4.975   7.488   0.820
63943SOL     OW93661   5.060   1.537   6.302
63943SOL    HW193662   5.133   1.528   6.364
63943SOL    HW293663   5.090   1.602   6.238
63944SOL     OW93664   4.348  13.503   6.087
63944SOL    HW193665   4.291  13.468   6.018
63944SOL    HW293666   4.437  13.488   6.055
63945SOL     OW93667   1.704   9.374   5.959
63945SOL    HW193668   1.687   9.463   5.927
63945SOL    HW293669   1.629   9.323   5.930
63946SOL     OW93670   6.170  11.224   0.475
63946SOL    HW193671   6.091  11.258   0.517
63946SOL    HW293672   6.160  11.249   0.383
63947SOL     OW93673   5.795   1.513  12.559
63947SOL    HW193674   5.734   1.494  12.487
63947SOL    HW293675   5.752   1.479  12.637
63948SOL     OW93676   4.420   2.024   5.868
63948SOL    HW193677   4.462   2.109   5.881
63948SOL    HW293678   4.486   1.960   5.897
63949SOL     OW93679   2.385  12.476  12.796
63949SOL    HW193680   2.469  12.455  12.836
63949SOL    HW293681   2.372  12.408  12.730
63950SOL     OW93682   6.502  11.450  12.284
63950SOL    HW193683   6.568  11.508  12.321
63950SOL    HW293684   6.484  11.387  12.354
63951SOL     OW93685  10.306   8.609   6.939
63951SOL    HW193686  10.292   8.518   6.914
63951SOL    HW293687  10.260   8.619   7.023
63952SOL     OW93688  11.961  12.249   1.324
63952SOL    HW193689  12.002  12.336   1.322
63952SOL    HW293690  11.876  12.263   1.366
63953SOL     OW93691   0.030  14.520   3.005
63953SOL    HW193692   0.058  14.451   2.945
63953SOL    HW293693  14.821  14.494   3.033
63954SOL     OW93694   3.609   1.179   9.010
63954SOL    HW193695   3.699   1.213   9.006
63954SOL    HW293696   3.581   1.177   8.918
63955SOL     OW93697  13.520   8.825  10.414
63955SOL    HW193698  13.606   8.797  10.382
63955SOL    HW293699  13.526   8.815  10.509
63956SOL     OW93700   6.646   1.260   8.161
63956SOL    HW193701   6.557   1.279   8.190
63956SOL    HW293702   6.684   1.345   8.140
63957SOL     OW93703   5.082   7.859  11.440
63957SOL    HW193704   5.016   7.863  11.370
63957SOL    HW293705   5.032   7.849  11.520
63958SOL     OW93706  13.758   7.369   1.732
63958SOL    HW193707  13.815   7.382   1.656
63958SOL    HW293708  13.780   7.282   1.765
63959SOL     OW93709   5.978   2.279   7.331
63959SOL    HW193710   6.041   2.238   7.272
63959SOL    HW293711   6.019   2.274   7.417
63960SOL     OW93712  10.829   0.002   2.046
63960SOL    HW193713  10.795  14.792   2.047
63960SOL    HW293714  10.894   0.003   1.976
63961SOL     OW93715   9.810   9.608  10.477
63961SOL    HW193716   9.730   9.648  10.510
63961SOL    HW293717   9.848   9.565  10.554
63962SOL     OW93718  14.536  13.161  13.429
63962SOL    HW193719  14.538  13.103  13.505
63962SOL    HW293720  14.544  13.102  13.354
63963SOL     OW93721  13.183  14.325   2.747
63963SOL    HW193722  13.268  14.283   2.755
63963SOL    HW293723  13.194  14.390   2.677
63964SOL     OW93724   1.434  10.883   4.742
63964SOL    HW193725   1.397  10.940   4.809
63964SOL    HW293726   1.528  10.887   4.757
63965SOL     OW93727  11.513   2.410  12.833
63965SOL    HW193728  11.460   2.379  12.906
63965SOL    HW293729  11.585   2.458  12.873
63966SOL     OW93730   7.858   4.875   8.785
63966SOL    HW193731   7.892   4.942   8.845
63966SOL    HW293732   7.844   4.922   8.703
63967SOL     OW93733  14.224  13.037   8.268
63967SOL    HW193734  14.243  13.096   8.194
63967SOL    HW293735  14.303  13.039   8.321
63968SOL     OW93736  13.705   4.708   1.892
63968SOL    HW193737  13.635   4.674   1.948
63968SOL    HW293738  13.777   4.647   1.904
63969SOL     OW93739  10.857   2.978  14.297
63969SOL    HW193740  10.833   3.068  14.317
63969SOL    HW293741  10.949   2.982  14.272
63970SOL     OW93742  11.787   1.092   4.558
63970SOL    HW193743  11.750   1.014   4.600
63970SOL    HW293744  11.776   1.076   4.464
63971SOL     OW93745   3.003   0.343   7.891
63971SOL    HW193746   2.941   0.271   7.900
63971SOL    HW293747   3.084   0.311   7.930
63972SOL     OW93748  12.732   0.945  13.912
63972SOL    HW193749  12.772   1.009  13.971
63972SOL    HW293750  12.638   0.960  13.921
63973SOL     OW93751  11.989  14.375  14.345
63973SOL    HW193752  11.928  14.448  14.340
63973SOL    HW293753  11.938  14.303  14.382
63974SOL     OW93754  13.800   5.125   9.971
63974SOL    HW193755  13.827   5.160   9.886
63974SOL    HW293756  13.713   5.163   9.986
63975SOL     OW93757   6.607   6.164  13.940
63975SOL    HW193758   6.626   6.167  13.847
63975SOL    HW293759   6.654   6.087  13.972
63976SOL     OW93760  10.561   5.992   2.921
63976SOL    HW193761  10.540   6.071   2.971
63976SOL    HW293762  10.616   5.941   2.979
63977SOL     OW93763   0.478   0.395  10.381
63977SOL    HW193764   0.390   0.359  10.386
63977SOL    HW293765   0.471   0.467  10.318
63978SOL     OW93766   9.200   7.266  12.745
63978SOL    HW193767   9.285   7.228  12.768
63978SOL    HW293768   9.151   7.193  12.706
63979SOL     OW93769   8.299  13.281  10.644
63979SOL    HW193770   8.275  13.203  10.695
63979SOL    HW293771   8.366  13.325  10.698
63980SOL     OW93772   1.145   2.273  10.945
63980SOL    HW193773   1.222   2.298  10.996
63980SOL    HW293774   1.097   2.213  11.003
63981SOL     OW93775  11.373  10.937   0.368
63981SOL    HW193776  11.369  10.899   0.280
63981SOL    HW293777  11.351  11.029   0.355
63982SOL     OW93778   9.096   0.976  11.785
63982SOL    HW193779   9.107   0.896  11.836
63982SOL    HW293780   9.164   1.036  11.818
63983SOL     OW93781   5.637  14.561   4.250
63983SOL    HW193782   5.618  14.468   4.258
63983SOL    HW293783   5.708  14.565   4.186
63984SOL     OW93784   4.655   2.595  13.027
63984SOL    HW193785   4.744   2.562  13.038
63984SOL    HW293786   4.636   2.583  12.934
63985SOL     OW93787   1.911  12.765   0.843
63985SOL    HW193788   1.952  12.710   0.910
63985SOL    HW293789   1.856  12.705   0.792
63986SOL     OW93790  10.698  11.351  12.871
63986SOL    HW193791  10.791  11.330  12.858
63986SOL    HW293792  10.655  11.318  12.792
63987SOL     OW93793  14.712   8.794  11.280
63987SOL    HW193794  14.752   8.745  11.209
63987SOL    HW293795  14.640   8.739  11.310
63988SOL     OW93796   5.718   3.283   2.928
63988SOL    HW193797   5.778   3.237   2.987
63988SOL    HW293798   5.631   3.260   2.961
63989SOL     OW93799   1.446  13.793   9.318
63989SOL    HW193800   1.523  13.736   9.316
63989SOL    HW293801   1.442  13.831   9.230
63990SOL     OW93802   4.388  11.591   5.946
63990SOL    HW193803   4.392  11.505   5.905
63990SOL    HW293804   4.473  11.630   5.928
63991SOL     OW93805  13.522   8.980   9.677
63991SOL    HW193806  13.588   9.011   9.739
63991SOL    HW293807  13.513   8.887   9.696
63992SOL     OW93808   8.008  11.594  12.445
63992SOL    HW193809   8.020  11.661  12.377
63992SOL    HW293810   7.974  11.518  12.397
63993SOL     OW93811   3.581   3.124  13.947
63993SOL    HW193812   3.664   3.122  13.994
63993SOL    HW293813   3.520   3.163  14.009
63994SOL     OW93814  14.268  12.611   0.275
63994SOL    HW193815  14.175  12.631   0.269
63994SOL    HW293816  14.311  12.681   0.225
63995SOL     OW93817  11.153   7.508  14.322
63995SOL    HW193818  11.093   7.578  14.297
63995SOL    HW293819  11.111   7.468  14.399
63996SOL     OW93820   6.210  10.738  10.678
63996SOL    HW193821   6.232  10.829  10.696
63996SOL    HW293822   6.138  10.742  10.614
63997SOL     OW93823   1.156  13.736   7.082
63997SOL    HW193824   1.125  13.748   7.172
63997SOL    HW293825   1.102  13.664   7.048
63998SOL     OW93826   7.095  12.030   5.877
63998SOL    HW193827   7.012  12.068   5.850
63998SOL    HW293828   7.156  12.051   5.806
63999SOL     OW93829  11.237   0.396   6.701
63999SOL    HW193830  11.142   0.383   6.700
63999SOL    HW293831  11.265   0.368   6.614
64000SOL     OW93832   0.939  12.505   6.467
64000SOL    HW193833   0.944  12.479   6.559
64000SOL    HW293834   0.864  12.457   6.432
64001SOL     OW93835  14.350   5.270   9.520
64001SOL    HW193836  14.408   5.225   9.460
64001SOL    HW293837  14.391   5.356   9.533
64002SOL     OW93838   9.580   9.152  12.960
64002SOL    HW193839   9.541   9.070  12.929
64002SOL    HW293840   9.644   9.174  12.893
64003SOL     OW93841  10.964   5.776   2.002
64003SOL    HW193842  10.872   5.765   1.977
64003SOL    HW293843  11.001   5.688   1.997
64004SOL     OW93844  10.802  10.788   7.039
64004SOL    HW193845  10.775  10.834   6.961
64004SOL    HW293846  10.797  10.695   7.016
64005SOL     OW93847   8.530  10.923   4.576
64005SOL    HW193848   8.458  10.869   4.609
64005SOL    HW293849   8.597  10.919   4.645
64006SOL     OW93850  12.423  10.111   8.803
64006SOL    HW193851  12.432  10.200   8.836
64006SOL    HW293852  12.488  10.104   8.733
64007SOL     OW93853   1.135   9.070  10.378
64007SOL    HW193854   1.066   9.013  10.414
64007SOL    HW293855   1.210   9.011  10.365
64008SOL     OW93856   3.020   9.891  10.066
64008SOL    HW193857   2.939   9.841  10.080
64008SOL    HW293858   3.089   9.824  10.063
64009SOL     OW93859  10.728  12.170   9.031
64009SOL    HW193860  10.765  12.174   9.119
64009SOL    HW293861  10.633  12.171   9.044
64010SOL     OW93862  14.699   9.218   4.946
64010SOL    HW193863  14.715   9.129   4.913
64010SOL    HW293864  14.780   9.241   4.991
64011SOL     OW93865   5.429  12.778  11.995
64011SOL    HW193866   5.493  12.738  11.936
64011SOL    HW293867   5.347  12.730  11.977
64012SOL     OW93868   1.497   0.220   9.864
64012SOL    HW193869   1.534   0.132   9.866
64012SOL    HW293870   1.443   0.225   9.943
64013SOL     OW93871   1.769  13.307  13.102
64013SOL    HW193872   1.704  13.241  13.124
64013SOL    HW293873   1.799  13.340  13.187
64014SOL     OW93874   3.463  10.765   6.256
64014SOL    HW193875   3.506  10.848   6.279
64014SOL    HW293876   3.469  10.712   6.335
64015SOL     OW93877   7.397   3.852  13.127
64015SOL    HW193878   7.398   3.945  13.101
64015SOL    HW293879   7.454   3.849  13.204
64016SOL     OW93880   9.027  10.636   4.499
64016SOL    HW193881   9.014  10.731   4.492
64016SOL    HW293882   8.990  10.601   4.418
64017SOL     OW93883   9.269   5.513  11.022
64017SOL    HW193884   9.314   5.499  10.938
64017SOL    HW293885   9.331   5.483  11.088
64018SOL     OW93886   8.157   9.218  14.052
64018SOL    HW193887   8.184   9.293  14.105
64018SOL    HW293888   8.204   9.229  13.970
64019SOL     OW93889   1.388   8.805  13.108
64019SOL    HW193890   1.404   8.898  13.091
64019SOL    HW293891   1.468   8.775  13.153
64020SOL     OW93892   8.107  14.250   3.054
64020SOL    HW193893   8.137  14.205   2.975
64020SOL    HW293894   8.042  14.191   3.092
64021SOL     OW93895  13.472  13.440   0.534
64021SOL    HW193896  13.471  13.399   0.621
64021SOL    HW293897  13.550  13.404   0.491
64022SOL     OW93898   4.563   6.729   5.315
64022SOL    HW193899   4.500   6.665   5.283
64022SOL    HW293900   4.510   6.804   5.340
64023SOL     OW93901   7.912  12.705   9.701
64023SOL    HW193902   7.985  12.649   9.730
64023SOL    HW293903   7.913  12.697   9.606
64024SOL     OW93904  13.820   4.507   0.563
64024SOL    HW193905  13.867   4.591   0.569
64024SOL    HW293906  13.860   4.463   0.488
64025SOL     OW93907   2.949  11.587   5.548
64025SOL    HW193908   2.933  11.532   5.472
64025SOL    HW293909   3.038  11.563   5.577
64026SOL     OW93910   6.272  12.357   6.886
64026SOL    HW193911   6.264  12.343   6.792
64026SOL    HW293912   6.308  12.275   6.919
64027SOL     OW93913   4.393   8.003   1.977
64027SOL    HW193914   4.397   8.081   1.922
64027SOL    HW293915   4.317   7.955   1.945
64028SOL     OW93916   7.833   2.028  11.741
64028SOL    HW193917   7.782   1.974  11.681
64028SOL    HW293918   7.768   2.085  11.783
64029SOL     OW93919   0.574  13.885   3.507
64029SOL    HW193920   0.592  13.939   3.430
64029SOL    HW293921   0.480  13.869   3.504
64030SOL     OW93922  10.877  13.091   4.374
64030SOL    HW193923  10.891  13.011   4.323
64030SOL    HW293924  10.876  13.062   4.465
64031SOL     OW93925   4.632  11.713  11.682
64031SOL    HW193926   4.648  11.800  11.720
64031SOL    HW293927   4.706  11.699  11.623
64032SOL     OW93928   9.381   2.981  14.431
64032SOL    HW193929   9.453   3.025  14.476
64032SOL    HW293930   9.308   3.043  14.437
64033SOL     OW93931   7.460   5.919   3.906
64033SOL    HW193932   7.495   6.007   3.919
64033SOL    HW293933   7.383   5.931   3.851
64034SOL     OW93934   9.647   4.493  10.103
64034SOL    HW193935   9.689   4.440  10.034
64034SOL    HW293936   9.718   4.549  10.136
64035SOL     OW93937   2.135   0.288  13.237
64035SOL    HW193938   2.212   0.345  13.241
64035SOL    HW293939   2.164   0.212  13.186
64036SOL     OW93940   5.084   7.917   1.539
64036SOL    HW193941   5.132   7.883   1.614
64036SOL    HW293942   5.087   8.012   1.549
64037SOL     OW93943  14.407   6.493   9.451
64037SOL    HW193944  14.315   6.476   9.472
64037SOL    HW293945  14.425   6.434   9.377
64038SOL     OW93946   5.991  10.838  13.934
64038SOL    HW193947   5.939  10.806  14.008
64038SOL    HW293948   5.964  10.929  13.923
64039SOL     OW93949  10.394   4.634   2.048
64039SOL    HW193950  10.356   4.644   2.135
64039SOL    HW293951  10.318   4.625   1.990
64040SOL     OW93952  13.539  12.733   1.147
64040SOL    HW193953  13.533  12.651   1.195
64040SOL    HW293954  13.584  12.711   1.066
64041SOL     OW93955   9.267   7.314  13.768
64041SOL    HW193956   9.229   7.387  13.816
64041SOL    HW293957   9.193   7.273  13.724
64042SOL     OW93958   5.306   5.078   9.823
64042SOL    HW193959   5.214   5.096   9.842
64042SOL    HW293960   5.316   4.984   9.836
64043SOL     OW93961   7.434   4.809   9.336
64043SOL    HW193962   7.393   4.875   9.392
64043SOL    HW293963   7.490   4.860   9.277
64044SOL     OW93964   9.456   2.276   3.153
64044SOL    HW193965   9.486   2.232   3.233
64044SOL    HW293966   9.532   2.327   3.124
64045SOL     OW93967   9.356  11.708  10.542
64045SOL    HW193968   9.425  11.758  10.498
64045SOL    HW293969   9.399  11.672  10.620
64046SOL     OW93970   6.143   1.969   0.302
64046SOL    HW193971   6.080   2.041   0.312
64046SOL    HW293972   6.126   1.912   0.377
64047SOL     OW93973  10.118  14.348  13.241
64047SOL    HW193974  10.026  14.344  13.216
64047SOL    HW293975  10.117  14.374  13.333
64048SOL     OW93976   2.971   5.325   2.882
64048SOL    HW193977   3.036   5.266   2.920
64048SOL    HW293978   2.971   5.302   2.789
64049SOL     OW93979   3.167  11.510   9.781
64049SOL    HW193980   3.206  11.520   9.868
64049SOL    HW293981   3.209  11.577   9.728
64050SOL     OW93982   5.853  14.422  14.100
64050SOL    HW193983   5.835  14.442  14.008
64050SOL    HW293984   5.895  14.336  14.098
64051SOL     OW93985   9.280   1.711   8.627
64051SOL    HW193986   9.319   1.762   8.556
64051SOL    HW293987   9.339   1.722   8.701
64052SOL     OW93988  14.859  10.495   5.049
64052SOL    HW193989   0.021  10.516   5.133
64052SOL    HW293990   0.005  10.567   4.992
64053SOL     OW93991   3.826   5.234  10.169
64053SOL    HW193992   3.903   5.269  10.124
64053SOL    HW293993   3.753   5.284  10.134
64054SOL     OW93994   0.338  10.018   1.881
64054SOL    HW193995   0.330  10.016   1.976
64054SOL    HW293996   0.418  10.069   1.865
64055SOL     OW93997   4.960  13.518  12.917
64055SOL    HW193998   5.011  13.438  12.901
64055SOL    HW293999   4.969  13.568  12.836
64056SOL     OW94000  13.764   3.902   1.738
64056SOL    HW194001  13.818   3.971   1.700
64056SOL    HW294002  13.674   3.924   1.711
64057SOL     OW94003   5.219   0.503   1.914
64057SOL    HW194004   5.222   0.469   2.004
64057SOL    HW294005   5.144   0.458   1.874
64058SOL     OW94006   3.473   9.958  11.584
64058SOL    HW194007   3.423   9.959  11.666
64058SOL    HW294008   3.553  10.006  11.604
64059SOL     OW94009   0.329   3.183   9.617
64059SOL    HW194010   0.339   3.099   9.572
64059SOL    HW294011   0.301   3.160   9.706
64060SOL     OW94012   9.107   6.562   8.783
64060SOL    HW194013   9.028   6.613   8.768
64060SOL    HW294014   9.177   6.613   8.743
64061SOL     OW94015   8.841   9.703  10.637
64061SOL    HW194016   8.801   9.789  10.629
64061SOL    HW294017   8.822   9.660  10.554
64062SOL     OW94018   4.826   5.119   9.273
64062SOL    HW194019   4.840   5.182   9.344
64062SOL    HW294020   4.887   5.145   9.204
64063SOL     OW94021   6.853   4.860   1.965
64063SOL    HW194022   6.774   4.856   1.910
64063SOL    HW294023   6.915   4.802   1.921
64064SOL     OW94024   9.334   6.095   2.751
64064SOL    HW194025   9.314   6.147   2.673
64064SOL    HW294026   9.388   6.154   2.805
64065SOL     OW94027  10.223  11.979   1.246
64065SOL    HW194028  10.167  11.901   1.246
64065SOL    HW294029  10.167  12.050   1.277
64066SOL     OW94030   1.879   5.618  14.776
64066SOL    HW194031   1.907   5.654  14.692
64066SOL    HW294032   1.787   5.595  14.763
64067SOL     OW94033   9.608   2.260   4.309
64067SOL    HW194034   9.563   2.249   4.225
64067SOL    HW294035   9.699   2.277   4.286
64068SOL     OW94036   0.025   4.495   0.059
64068SOL    HW194037   0.107   4.505   0.012
64068SOL    HW294038  14.859   4.579   0.048
64069SOL     OW94039   5.624  11.978  14.034
64069SOL    HW194040   5.615  11.993  14.128
64069SOL    HW294041   5.608  11.884  14.024
64070SOL     OW94042   9.384   8.920   7.178
64070SOL    HW194043   9.301   8.897   7.135
64070SOL    HW294044   9.384   9.016   7.180
64071SOL     OW94045   7.204   5.116   1.718
64071SOL    HW194046   7.233   5.151   1.802
64071SOL    HW294047   7.125   5.066   1.739
64072SOL     OW94048  14.163   1.363  11.806
64072SOL    HW194049  14.068   1.361  11.810
64072SOL    HW294050  14.191   1.313  11.883
64073SOL     OW94051  13.516  13.503  11.636
64073SOL    HW194052  13.585  13.481  11.698
64073SOL    HW294053  13.462  13.424  11.631
64074SOL     OW94054  12.210   7.137   3.801
64074SOL    HW194055  12.186   7.044   3.793
64074SOL    HW294056  12.202   7.171   3.712
64075SOL     OW94057   1.396   2.538   7.727
64075SOL    HW194058   1.375   2.446   7.745
64075SOL    HW294059   1.317   2.586   7.755
64076SOL     OW94060  14.737   5.687  11.430
64076SOL    HW194061  14.663   5.629  11.446
64076SOL    HW294062  14.814   5.630  11.436
64077SOL     OW94063  10.945   3.019  12.329
64077SOL    HW194064  10.918   3.066  12.250
64077SOL    HW294065  10.881   2.949  12.338
64078SOL     OW94066  14.009   5.564   5.361
64078SOL    HW194067  14.061   5.514   5.424
64078SOL    HW294068  13.934   5.594   5.411
64079SOL     OW94069   3.147  10.573  14.014
64079SOL    HW194070   3.179  10.648  14.064
64079SOL    HW294071   3.187  10.583  13.928
64080SOL     OW94072   4.262   5.069  14.367
64080SOL    HW194073   4.352   5.098  14.382
64080SOL    HW294074   4.234   5.031  14.450
64081SOL     OW94075   9.096  10.797   0.134
64081SOL    HW194076   9.179  10.831   0.168
64081SOL    HW294077   9.115  10.772   0.044
64082SOL     OW94078   1.450   5.970   7.643
64082SOL    HW194079   1.503   6.031   7.694
64082SOL    HW294080   1.499   5.959   7.561
64083SOL     OW94081   6.945  14.591   9.463
64083SOL    HW194082   6.943  14.521   9.528
64083SOL    HW294083   6.925  14.670   9.512
64084SOL     OW94084   9.930  14.769  10.214
64084SOL    HW194085   9.852  14.783  10.268
64084SOL    HW294086  10.003  14.793  10.271
64085SOL     OW94087  12.911   1.362   2.777
64085SOL    HW194088  12.927   1.295   2.844
64085SOL    HW294089  12.941   1.443   2.816
64086SOL     OW94090  14.009  14.259   1.256
64086SOL    HW194091  14.075  14.289   1.319
64086SOL    HW294092  13.938  14.225   1.310
64087SOL     OW94093   7.426   8.466   1.072
64087SOL    HW194094   7.359   8.518   1.028
64087SOL    HW294095   7.380   8.389   1.104
64088SOL     OW94096   1.428   7.628  11.979
64088SOL    HW194097   1.467   7.567  11.917
64088SOL    HW294098   1.347   7.657  11.938
64089SOL     OW94099   9.839  10.025   3.012
64089SOL    HW194100   9.918  10.002   2.962
64089SOL    HW294101   9.811  10.109   2.976
64090SOL     OW94102   6.072  12.579  12.608
64090SOL    HW194103   6.001  12.593  12.670
64090SOL    HW294104   6.028  12.560  12.525
64091SOL     OW94105   5.488   3.175   0.547
64091SOL    HW194106   5.404   3.192   0.590
64091SOL    HW294107   5.467   3.173   0.453
64092SOL     OW94108   4.847   0.143  11.721
64092SOL    HW194109   4.932   0.118  11.756
64092SOL    HW294110   4.806   0.194  11.791
64093SOL     OW94111   7.933   1.482   0.912
64093SOL    HW194112   7.988   1.487   0.990
64093SOL    HW294113   7.988   1.517   0.841
64094SOL     OW94114   8.438   9.446   5.721
64094SOL    HW194115   8.526   9.483   5.713
64094SOL    HW294116   8.411   9.467   5.810
64095SOL     OW94117   9.735  14.552   1.104
64095SOL    HW194118   9.684  14.630   1.125
64095SOL    HW294119   9.686  14.508   1.035
64096SOL     OW94120   1.614   3.422   1.128
64096SOL    HW194121   1.632   3.516   1.138
64096SOL    HW294122   1.694   3.387   1.089
64097SOL     OW94123   8.750  14.785  12.596
64097SOL    HW194124   8.782  14.867  12.633
64097SOL    HW294125   8.665  14.806  12.559
64098SOL     OW94126   3.967  11.394   6.575
64098SOL    HW194127   4.032  11.403   6.505
64098SOL    HW294128   3.961  11.299   6.590
64099SOL     OW94129  14.442   7.645   9.681
64099SOL    HW194130  14.366   7.664   9.626
64099SOL    HW294131  14.488   7.729   9.686
64100SOL     OW94132  12.168   0.014   2.113
64100SOL    HW194133  12.184  14.853   2.028
64100SOL    HW294134  12.255   0.016   2.155
64101SOL     OW94135  13.082   9.456   3.911
64101SOL    HW194136  13.149   9.520   3.884
64101SOL    HW294137  13.125   9.371   3.900
64102SOL     OW94138   3.280   9.789   7.130
64102SOL    HW194139   3.292   9.775   7.224
64102SOL    HW294140   3.186   9.784   7.117
64103SOL     OW94141  13.802   1.837   8.205
64103SOL    HW194142  13.866   1.899   8.240
64103SOL    HW294143  13.731   1.891   8.171
64104SOL     OW94144   3.658   2.824   2.281
64104SOL    HW194145   3.709   2.747   2.306
64104SOL    HW294146   3.719   2.897   2.288
64105SOL     OW94147   5.876   7.081   9.315
64105SOL    HW194148   5.964   7.117   9.320
64105SOL    HW294149   5.886   7.001   9.263
64106SOL     OW94150   2.936  12.685   3.699
64106SOL    HW194151   2.904  12.595   3.698
64106SOL    HW294152   2.945  12.709   3.607
64107SOL     OW94153   9.040   7.099   8.634
64107SOL    HW194154   8.987   7.160   8.584
64107SOL    HW294155   9.062   7.146   8.714
64108SOL     OW94156   6.405   2.815  10.359
64108SOL    HW194157   6.347   2.859  10.422
64108SOL    HW294158   6.411   2.725  10.392
64109SOL     OW94159  13.322   6.066   3.494
64109SOL    HW194160  13.234   6.051   3.530
64109SOL    HW294161  13.370   5.986   3.514
64110SOL     OW94162  13.015   1.013   2.943
64110SOL    HW194163  13.097   0.964   2.943
64110SOL    HW294164  12.947   0.945   2.942
64111SOL     OW94165   0.265   5.826   1.449
64111SOL    HW194166   0.189   5.872   1.487
64111SOL    HW294167   0.270   5.859   1.359
64112SOL     OW94168  11.324   8.112   2.142
64112SOL    HW194169  11.379   8.039   2.116
64112SOL    HW294170  11.246   8.071   2.180
64113SOL     OW94171   7.487   5.915   1.084
64113SOL    HW194172   7.472   6.002   1.121
64113SOL    HW294173   7.404   5.870   1.093
64114SOL     OW94174   9.758   0.391   9.924
64114SOL    HW194175   9.803   0.327   9.979
64114SOL    HW294176   9.758   0.471   9.976
64115SOL     OW94177  14.294  13.270   2.460
64115SOL    HW194178  14.363  13.277   2.526
64115SOL    HW294179  14.288  13.357   2.421
64116SOL     OW94180  12.857   2.489   9.671
64116SOL    HW194181  12.840   2.583   9.670
64116SOL    HW294182  12.787   2.452   9.725
64117SOL     OW94183   4.190   4.694   8.866
64117SOL    HW194184   4.161   4.747   8.940
64117SOL    HW294185   4.216   4.758   8.799
64118SOL     OW94186   0.791   9.357  10.379
64118SOL    HW194187   0.734   9.298  10.330
64118SOL    HW294188   0.855   9.300  10.422
64119SOL     OW94189   7.876   9.724   7.936
64119SOL    HW194190   7.850   9.679   7.856
64119SOL    HW294191   7.809   9.791   7.949
64120SOL     OW94192   6.282  12.844   8.595
64120SOL    HW194193   6.295  12.750   8.610
64120SOL    HW294194   6.353  12.869   8.536
64121SOL     OW94195  10.117   8.230   1.056
64121SOL    HW194196  10.031   8.228   1.099
64121SOL    HW294197  10.179   8.211   1.126
64122SOL     OW94198   7.044   8.041  10.417
64122SOL    HW194199   6.951   8.060  10.408
64122SOL    HW294200   7.086   8.127  10.418
64123SOL     OW94201  10.229   3.044   1.676
64123SOL    HW194202  10.254   3.134   1.697
64123SOL    HW294203  10.260   3.031   1.586
64124SOL     OW94204   1.629   1.802  11.065
64124SOL    HW194205   1.660   1.883  11.025
64124SOL    HW294206   1.537   1.796  11.040
64125SOL     OW94207  12.229  12.284  12.026
64125SOL    HW194208  12.308  12.260  12.075
64125SOL    HW294209  12.197  12.363  12.069
64126SOL     OW94210   4.374   7.551   7.799
64126SOL    HW194211   4.323   7.473   7.777
64126SOL    HW294212   4.317   7.602   7.855
64127SOL     OW94213   1.246  11.834   7.760
64127SOL    HW194214   1.245  11.804   7.851
64127SOL    HW294215   1.232  11.755   7.708
64128SOL     OW94216  13.441  12.770   2.006
64128SOL    HW194217  13.395  12.746   2.086
64128SOL    HW294218  13.451  12.687   1.958
64129SOL     OW94219   9.509   3.397   3.687
64129SOL    HW194220   9.502   3.492   3.695
64129SOL    HW294221   9.501   3.381   3.593
64130SOL     OW94222   3.666  12.552   6.318
64130SOL    HW194223   3.607  12.597   6.379
64130SOL    HW294224   3.741  12.611   6.309
64131SOL     OW94225   9.056   3.907   9.663
64131SOL    HW194226   9.034   3.814   9.649
64131SOL    HW294227   9.063   3.916   9.758
64132SOL     OW94228   8.368  14.047   4.058
64132SOL    HW194229   8.305  13.991   4.103
64132SOL    HW294230   8.334  14.055   3.969
64133SOL     OW94231   5.617  11.886   9.959
64133SOL    HW194232   5.557  11.811   9.965
64133SOL    HW294233   5.698  11.855   9.999
64134SOL     OW94234   7.419   1.893   5.628
64134SOL    HW194235   7.481   1.862   5.694
64134SOL    HW294236   7.395   1.815   5.579
64135SOL     OW94237  14.045   1.775   5.470
64135SOL    HW194238  14.046   1.842   5.538
64135SOL    HW294239  14.054   1.824   5.388
64136SOL     OW94240   8.476  14.228   7.890
64136SOL    HW194241   8.403  14.277   7.929
64136SOL    HW294242   8.553  14.279   7.912
64137SOL     OW94243   7.510   2.098   9.617
64137SOL    HW194244   7.528   2.066   9.706
64137SOL    HW294245   7.510   2.019   9.563
64138SOL     OW94246   2.443   0.592  14.743
64138SOL    HW194247   2.399   0.653  14.684
64138SOL    HW294248   2.375   0.526  14.763
64139SOL     OW94249   9.236   7.378   5.582
64139SOL    HW194250   9.296   7.447   5.555
64139SOL    HW294251   9.282   7.296   5.561
64140SOL     OW94252   2.289   8.812  13.910
64140SOL    HW194253   2.324   8.765  13.985
64140SOL    HW294254   2.345   8.787  13.836
64141SOL     OW94255   3.746   2.937   1.838
64141SOL    HW194256   3.815   2.937   1.904
64141SOL    HW294257   3.786   2.977   1.761
64142SOL     OW94258   9.898  10.644   6.010
64142SOL    HW194259   9.849  10.621   6.090
64142SOL    HW294260   9.983  10.674   6.043
64143SOL     OW94261   5.415   0.433   6.893
64143SOL    HW194262   5.397   0.517   6.851
64143SOL    HW294263   5.408   0.369   6.822
64144SOL     OW94264   2.791   7.537   9.691
64144SOL    HW194265   2.701   7.519   9.718
64144SOL    HW294266   2.844   7.505   9.764
64145SOL     OW94267  13.565   4.288  12.910
64145SOL    HW194268  13.543   4.330  12.993
64145SOL    HW294269  13.660   4.277  12.913
64146SOL     OW94270   5.702  11.493  10.726
64146SOL    HW194271   5.689  11.464  10.816
64146SOL    HW294272   5.794  11.521  10.722
64147SOL     OW94273   0.176  11.245   8.265
64147SOL    HW194274   0.191  11.270   8.356
64147SOL    HW294275   0.206  11.155   8.260
64148SOL     OW94276  14.246   1.686   6.612
64148SOL    HW194277  14.218   1.598   6.638
64148SOL    HW294278  14.165   1.736   6.608
64149SOL     OW94279   0.633   1.425  14.601
64149SOL    HW194280   0.557   1.403  14.547
64149SOL    HW294281   0.683   1.487  14.547
64150SOL     OW94282   8.625  10.013  12.016
64150SOL    HW194283   8.538  10.050  12.028
64150SOL    HW294284   8.611   9.934  11.963
64151SOL     OW94285  14.448   0.602  12.675
64151SOL    HW194286  14.421   0.512  12.656
64151SOL    HW294287  14.372   0.655  12.651
64152SOL     OW94288   0.001  14.348   7.278
64152SOL    HW194289   0.026  14.314   7.364
64152SOL    HW294290   0.049  14.431   7.271
64153SOL     OW94291  13.373   4.152   5.128
64153SOL    HW194292  13.358   4.072   5.077
64153SOL    HW294293  13.334   4.133   5.214
64154SOL     OW94294   9.344  14.603  10.245
64154SOL    HW194295   9.420  14.660  10.249
64154SOL    HW294296   9.271  14.659  10.270
64155SOL     OW94297   5.910  11.107  11.043
64155SOL    HW194298   5.920  11.197  11.075
64155SOL    HW294299   5.876  11.058  11.117
64156SOL     OW94300   9.094   8.441  12.467
64156SOL    HW194301   9.070   8.405  12.552
64156SOL    HW294302   9.033   8.399  12.406
64157SOL     OW94303   2.477   8.128  13.233
64157SOL    HW194304   2.564   8.102  13.204
64157SOL    HW294305   2.464   8.215  13.195
64158SOL     OW94306  13.143  11.798   1.483
64158SOL    HW194307  13.120  11.841   1.401
64158SOL    HW294308  13.175  11.712   1.457
64159SOL     OW94309  14.506   5.557   5.702
64159SOL    HW194310  14.584   5.609   5.682
64159SOL    HW294311  14.458   5.609   5.766
64160SOL     OW94312   7.644   4.820   3.496
64160SOL    HW194313   7.604   4.898   3.536
64160SOL    HW294314   7.577   4.788   3.435
64161SOL     OW94315   7.547   8.426   2.841
64161SOL    HW194316   7.498   8.498   2.801
64161SOL    HW294317   7.623   8.469   2.882
64162SOL     OW94318   9.304   1.311  11.418
64162SOL    HW194319   9.263   1.312  11.505
64162SOL    HW294320   9.269   1.389  11.375
64163SOL     OW94321  12.949   8.905   4.557
64163SOL    HW194322  12.979   8.838   4.496
64163SOL    HW294323  12.900   8.857   4.623
64164SOL     OW94324   5.400   5.706   1.695
64164SOL    HW194325   5.376   5.740   1.781
64164SOL    HW294326   5.415   5.613   1.710
64165SOL     OW94327  11.662   1.167   9.007
64165SOL    HW194328  11.600   1.109   8.962
64165SOL    HW294329  11.725   1.107   9.047
64166SOL     OW94330   7.405  14.386   5.335
64166SOL    HW194331   7.309  14.390   5.341
64166SOL    HW294332   7.423  14.371   5.243
64167SOL     OW94333   1.048   9.265   4.528
64167SOL    HW194334   1.139   9.237   4.516
64167SOL    HW294335   1.037   9.268   4.623
64168SOL     OW94336   1.621   2.742   6.030
64168SOL    HW194337   1.580   2.691   6.100
64168SOL    HW294338   1.662   2.816   6.075
64169SOL     OW94339  11.960   5.108   1.427
64169SOL    HW194340  11.867   5.126   1.440
64169SOL    HW294341  12.001   5.132   1.510
64170SOL     OW94342   2.195   7.936  10.640
64170SOL    HW194343   2.253   7.929  10.564
64170SOL    HW294344   2.108   7.918  10.606
64171SOL     OW94345   5.792   3.795   8.098
64171SOL    HW194346   5.750   3.814   8.181
64171SOL    HW294347   5.863   3.734   8.121
64172SOL     OW94348   1.797   0.905   5.657
64172SOL    HW194349   1.846   0.986   5.663
64172SOL    HW294350   1.706   0.930   5.674
64173SOL     OW94351   5.221   4.361  12.042
64173SOL    HW194352   5.248   4.298  12.109
64173SOL    HW294353   5.276   4.438  12.059
64174SOL     OW94354  10.895   3.570  13.563
64174SOL    HW194355  10.932   3.658  13.569
64174SOL    HW294356  10.842   3.561  13.642
64175SOL     OW94357  12.966   1.218   5.750
64175SOL    HW194358  13.000   1.131   5.768
64175SOL    HW294359  12.953   1.220   5.655
64176SOL     OW94360   1.796  13.804  11.821
64176SOL    HW194361   1.761  13.860  11.891
64176SOL    HW294362   1.884  13.838  11.806
64177SOL     OW94363   5.096   3.794   6.816
64177SOL    HW194364   5.104   3.706   6.853
64177SOL    HW294365   5.002   3.813   6.818
64178SOL     OW94366  12.216   6.963   0.924
64178SOL    HW194367  12.299   6.986   0.965
64178SOL    HW294368  12.154   7.028   0.957
64179SOL     OW94369   4.148   9.689   5.779
64179SOL    HW194370   4.123   9.653   5.694
64179SOL    HW294371   4.148   9.613   5.838
64180SOL     OW94372  12.640   2.265  13.953
64180SOL    HW194373  12.608   2.284  13.865
64180SOL    HW294374  12.717   2.322  13.964
64181SOL     OW94375  13.412   8.747   2.086
64181SOL    HW194376  13.334   8.695   2.102
64181SOL    HW294377  13.476   8.685   2.053
64182SOL     OW94378   9.457  10.134  12.661
64182SOL    HW194379   9.542  10.118  12.701
64182SOL    HW294380   9.445  10.062  12.600
64183SOL     OW94381   5.643   7.506   9.199
64183SOL    HW194382   5.655   7.593   9.159
64183SOL    HW294383   5.724   7.490   9.247
64184SOL     OW94384  10.222  11.119   5.928
64184SOL    HW194385  10.194  11.199   5.972
64184SOL    HW294386  10.190  11.129   5.838
64185SOL     OW94387   9.412   6.965  10.522
64185SOL    HW194388   9.444   7.047  10.560
64185SOL    HW294389   9.443   6.897  10.581
64186SOL     OW94390  11.441   4.864   3.900
64186SOL    HW194391  11.402   4.941   3.859
64186SOL    HW294392  11.376   4.833   3.962
64187SOL     OW94393   5.706   7.104  13.197
64187SOL    HW194394   5.622   7.068  13.168
64187SOL    HW294395   5.772   7.057  13.145
64188SOL     OW94396   8.752  12.014  12.446
64188SOL    HW194397   8.769  12.096  12.492
64188SOL    HW294398   8.750  11.947  12.515
64189SOL     OW94399  10.716  11.316   2.682
64189SOL    HW194400  10.792  11.329   2.625
64189SOL    HW294401  10.678  11.403   2.692
64190SOL     OW94402   5.408   1.929   8.648
64190SOL    HW194403   5.357   1.969   8.577
64190SOL    HW294404   5.412   1.836   8.625
64191SOL     OW94405   2.559   2.781   9.584
64191SOL    HW194406   2.644   2.738   9.592
64191SOL    HW294407   2.539   2.777   9.490
64192SOL     OW94408  12.485   0.811   2.343
64192SOL    HW194409  12.564   0.844   2.387
64192SOL    HW294410  12.518   0.751   2.277
64193SOL     OW94411   3.791  14.533  14.021
64193SOL    HW194412   3.859  14.600  14.010
64193SOL    HW294413   3.720  14.562  13.964
64194SOL     OW94414   6.726   7.489   0.321
64194SOL    HW194415   6.710   7.562   0.261
64194SOL    HW294416   6.735   7.412   0.264
64195SOL     OW94417   2.752  14.215   9.563
64195SOL    HW194418   2.826  14.219   9.622
64195SOL    HW294419   2.759  14.294   9.510
64196SOL     OW94420   5.103   5.403   5.904
64196SOL    HW194421   5.074   5.450   5.826
64196SOL    HW294422   5.023   5.375   5.947
64197SOL     OW94423   4.072   3.943   5.740
64197SOL    HW194424   4.056   3.948   5.834
64197SOL    HW294425   4.024   3.865   5.712
64198SOL     OW94426   5.319   8.887   5.520
64198SOL    HW194427   5.373   8.949   5.569
64198SOL    HW294428   5.276   8.833   5.587
64199SOL     OW94429   3.080   2.982  13.200
64199SOL    HW194430   3.013   2.987  13.267
64199SOL    HW294431   3.108   2.891  13.201
64200SOL     OW94432  10.890   6.128  14.275
64200SOL    HW194433  10.831   6.075  14.222
64200SOL    HW294434  10.863   6.218  14.259
64201SOL     OW94435   9.140   5.836   3.718
64201SOL    HW194436   9.213   5.845   3.779
64201SOL    HW294437   9.138   5.742   3.698
64202SOL     OW94438   5.990   7.223   7.636
64202SOL    HW194439   5.990   7.247   7.543
64202SOL    HW294440   5.974   7.129   7.637
64203SOL     OW94441   9.586  13.057   2.114
64203SOL    HW194442   9.639  12.998   2.167
64203SOL    HW294443   9.649  13.106   2.061
64204SOL     OW94444   9.042  12.361   6.974
64204SOL    HW194445   8.960  12.318   6.951
64204SOL    HW294446   9.030  12.387   7.065
64205SOL     OW94447  13.529   0.405   7.442
64205SOL    HW194448  13.523   0.313   7.417
64205SOL    HW294449  13.527   0.403   7.538
64206SOL     OW94450   2.216   2.753  13.874
64206SOL    HW194451   2.293   2.792  13.832
64206SOL    HW294452   2.192   2.680  13.816
64207SOL     OW94453   9.579   0.110  13.454
64207SOL    HW194454   9.549   0.199  13.473
64207SOL    HW294455   9.608   0.113  13.363
64208SOL     OW94456   6.615   2.016   1.023
64208SOL    HW194457   6.591   2.007   1.116
64208SOL    HW294458   6.637   1.926   0.995
64209SOL     OW94459  13.233  10.653  14.410
64209SOL    HW194460  13.287  10.687  14.338
64209SOL    HW294461  13.262  10.702  14.487
64210SOL     OW94462   9.294   0.423   8.661
64210SOL    HW194463   9.218   0.374   8.693
64210SOL    HW294464   9.310   0.489   8.728
64211SOL     OW94465  13.641   0.347  11.581
64211SOL    HW194466  13.680   0.260  11.596
64211SOL    HW294467  13.564   0.349  11.638
64212SOL     OW94468   4.843   4.918  12.071
64212SOL    HW194469   4.800   4.841  12.033
64212SOL    HW294470   4.825   4.988  12.008
64213SOL     OW94471   1.315   0.851   7.299
64213SOL    HW194472   1.299   0.868   7.207
64213SOL    HW294473   1.368   0.925   7.329
64214SOL     OW94474   5.240   7.916   0.794
64214SOL    HW194475   5.285   7.953   0.870
64214SOL    HW294476   5.308   7.909   0.727
64215SOL     OW94477  14.232   2.992  13.171
64215SOL    HW194478  14.226   2.912  13.120
64215SOL    HW294479  14.299   3.044  13.128
64216SOL     OW94480  14.708   0.942   2.483
64216SOL    HW194481  14.649   1.016   2.469
64216SOL    HW294482  14.743   0.955   2.571
64217SOL     OW94483   3.052  11.802  10.187
64217SOL    HW194484   3.067  11.708  10.192
64217SOL    HW294485   3.065  11.833  10.277
64218SOL     OW94486   0.093  13.287  12.805
64218SOL    HW194487   0.013  13.249  12.769
64218SOL    HW294488   0.128  13.341  12.734
64219SOL     OW94489   9.607  12.270   6.537
64219SOL    HW194490   9.526  12.226   6.512
64219SOL    HW294491   9.606  12.271   6.633
64220SOL     OW94492   8.566  12.944  13.670
64220SOL    HW194493   8.518  12.885  13.611
64220SOL    HW294494   8.649  12.960  13.626
64221SOL     OW94495  14.245  12.845   3.565
64221SOL    HW194496  14.298  12.879   3.638
64221SOL    HW294497  14.279  12.891   3.488
64222SOL     OW94498   0.589   8.706   9.522
64222SOL    HW194499   0.505   8.716   9.567
64222SOL    HW294500   0.641   8.781   9.553
64223SOL     OW94501  11.121   1.932   8.401
64223SOL    HW194502  11.094   2.022   8.387
64223SOL    HW294503  11.165   1.907   8.320
64224SOL     OW94504   5.280  12.008   2.613
64224SOL    HW194505   5.319  12.095   2.616
64224SOL    HW294506   5.314  11.970   2.532
64225SOL     OW94507   4.859   2.675   9.893
64225SOL    HW194508   4.906   2.753   9.922
64225SOL    HW294509   4.800   2.707   9.824
64226SOL     OW94510   4.122   4.203   4.426
64226SOL    HW194511   4.129   4.169   4.337
64226SOL    HW294512   4.046   4.262   4.423
64227SOL     OW94513  10.836   8.678   9.410
64227SOL    HW194514  10.907   8.713   9.356
64227SOL    HW294515  10.881   8.632   9.481
64228SOL     OW94516   5.905  11.089  13.908
64228SOL    HW194517   5.828  11.066  13.960
64228SOL    HW294518   5.872  11.152  13.844
64229SOL     OW94519  14.823   9.848  12.543
64229SOL    HW194520  14.834   9.837  12.637
64229SOL    HW294521  14.734   9.882  12.533
64230SOL     OW94522   0.013  11.881  10.209
64230SOL    HW194523  14.815  11.898  10.154
64230SOL    HW294524   0.007  11.788  10.229
64231SOL     OW94525  13.942   7.411  12.686
64231SOL    HW194526  13.928   7.339  12.624
64231SOL    HW294527  13.859   7.417  12.734
64232SOL     OW94528  13.685   1.049   9.919
64232SOL    HW194529  13.697   1.075  10.011
64232SOL    HW294530  13.604   0.999   9.919
64233SOL     OW94531   4.136  12.213   3.578
64233SOL    HW194532   4.081  12.161   3.519
64233SOL    HW294533   4.209  12.241   3.523
64234SOL     OW94534   1.387   0.055  13.829
64234SOL    HW194535   1.361   0.064  13.738
64234SOL    HW294536   1.482   0.056  13.827
64235SOL     OW94537   7.216   0.668  10.203
64235SOL    HW194538   7.271   0.746  10.193
64235SOL    HW294539   7.277   0.595  10.204
64236SOL     OW94540  13.703   7.061   6.867
64236SOL    HW194541  13.756   7.000   6.816
64236SOL    HW294542  13.655   7.006   6.929
64237SOL     OW94543   1.242   9.898   8.823
64237SOL    HW194544   1.273   9.987   8.840
64237SOL    HW294545   1.148   9.907   8.809
64238SOL     OW94546   3.393  12.286   5.798
64238SOL    HW194547   3.330  12.217   5.779
64238SOL    HW294548   3.388  12.344   5.721
64239SOL     OW94549  11.384   7.732   8.078
64239SOL    HW194550  11.444   7.788   8.028
64239SOL    HW294551  11.330   7.690   8.011
64240SOL     OW94552   7.751   5.628   1.603
64240SOL    HW194553   7.661   5.600   1.588
64240SOL    HW294554   7.771   5.596   1.691
64241SOL     OW94555   0.131   7.895   1.568
64241SOL    HW194556   0.084   7.887   1.485
64241SOL    HW294557   0.089   7.968   1.613
64242SOL     OW94558   7.216   6.196  10.658
64242SOL    HW194559   7.165   6.122  10.692
64242SOL    HW294560   7.249   6.165  10.573
64243SOL     OW94561   7.991  11.499   5.970
64243SOL    HW194562   7.972  11.592   5.964
64243SOL    HW294563   7.905  11.457   5.963
64244SOL     OW94564   9.927   2.624  10.165
64244SOL    HW194565   9.981   2.671  10.102
64244SOL    HW294566   9.850   2.679  10.178
64245SOL     OW94567   1.448   7.187  14.677
64245SOL    HW194568   1.379   7.140  14.629
64245SOL    HW294569   1.526   7.177  14.622
64246SOL     OW94570  10.683   9.336   0.606
64246SOL    HW194571  10.663   9.425   0.576
64246SOL    HW294572  10.778   9.331   0.605
64247SOL     OW94573  14.516   5.997  11.637
64247SOL    HW194574  14.480   6.077  11.676
64247SOL    HW294575  14.543   6.024  11.549
64248SOL     OW94576   7.010  13.839   0.456
64248SOL    HW194577   6.925  13.820   0.416
64248SOL    HW294578   7.074  13.808   0.391
64249SOL     OW94579   3.773   0.494   8.030
64249SOL    HW194580   3.807   0.531   8.112
64249SOL    HW294581   3.741   0.407   8.054
64250SOL     OW94582  14.527  11.114   2.844
64250SOL    HW194583  14.471  11.072   2.778
64250SOL    HW294584  14.512  11.062   2.924
64251SOL     OW94585   1.163  13.166  14.351
64251SOL    HW194586   1.086  13.216  14.326
64251SOL    HW294587   1.236  13.228  14.343
64252SOL     OW94588   1.628   4.477  10.554
64252SOL    HW194589   1.637   4.394  10.600
64252SOL    HW294590   1.535   4.482  10.530
64253SOL     OW94591   5.022  11.570   2.789
64253SOL    HW194592   5.005  11.662   2.812
64253SOL    HW294593   4.958  11.521   2.840
64254SOL     OW94594   7.635   0.341  13.261
64254SOL    HW194595   7.630   0.390  13.343
64254SOL    HW294596   7.582   0.263  13.276
64255SOL     OW94597   8.623   2.484   8.727
64255SOL    HW194598   8.585   2.503   8.813
64255SOL    HW294599   8.548   2.482   8.668
64256SOL     OW94600   4.936  12.617  12.251
64256SOL    HW194601   4.925  12.549  12.317
64256SOL    HW294602   5.021  12.657  12.272
64257SOL     OW94603   6.944   4.837  12.438
64257SOL    HW194604   6.961   4.743  12.435
64257SOL    HW294605   7.020   4.874  12.482
64258SOL     OW94606   0.760   2.619   9.901
64258SOL    HW194607   0.777   2.676   9.826
64258SOL    HW294608   0.803   2.663   9.974
64259SOL     OW94609   5.775   3.226   8.790
64259SOL    HW194610   5.846   3.257   8.846
64259SOL    HW294611   5.696   3.235   8.843
64260SOL     OW94612   8.805   1.291   7.017
64260SOL    HW194613   8.900   1.295   7.030
64260SOL    HW294614   8.794   1.281   6.922
64261SOL     OW94615   4.828  11.210   8.621
64261SOL    HW194616   4.820  11.115   8.621
64261SOL    HW294617   4.868  11.231   8.537
64262SOL     OW94618   0.939  14.678  12.991
64262SOL    HW194619   0.927  14.728  13.073
64262SOL    HW294620   0.969  14.592  13.020
64263SOL     OW94621   4.336   8.568   1.477
64263SOL    HW194622   4.340   8.477   1.449
64263SOL    HW294623   4.339   8.619   1.396
64264SOL     OW94624  11.693  10.182   3.841
64264SOL    HW194625  11.674  10.258   3.786
64264SOL    HW294626  11.714  10.112   3.779
64265SOL     OW94627   7.010   9.107  12.612
64265SOL    HW194628   6.951   9.142  12.678
64265SOL    HW294629   7.081   9.065  12.662
64266SOL     OW94630   6.492   3.096  10.297
64266SOL    HW194631   6.485   3.001  10.305
64266SOL    HW294632   6.568   3.119  10.351
64267SOL     OW94633   0.131   7.706   5.516
64267SOL    HW194634   0.147   7.773   5.583
64267SOL    HW294635   0.101   7.755   5.440
64268SOL     OW94636   2.577   5.186   5.846
64268SOL    HW194637   2.610   5.272   5.876
64268SOL    HW294638   2.587   5.129   5.922
64269SOL     OW94639   4.256   7.052   1.582
64269SOL    HW194640   4.269   7.121   1.518
64269SOL    HW294641   4.296   7.085   1.662
64270SOL     OW94642  11.306   1.026  12.116
64270SOL    HW194643  11.277   1.030  12.207
64270SOL    HW294644  11.265   0.946  12.082
64271SOL     OW94645  10.648   8.199   6.539
64271SOL    HW194646  10.554   8.195   6.557
64271SOL    HW294647  10.673   8.288   6.561
64272SOL     OW94648   9.240   6.445   6.738
64272SOL    HW194649   9.174   6.512   6.756
64272SOL    HW294650   9.252   6.449   6.643
64273SOL     OW94651   4.708   6.245   8.929
64273SOL    HW194652   4.630   6.233   8.984
64273SOL    HW294653   4.699   6.180   8.860
64274SOL     OW94654   0.139   2.524   7.847
64274SOL    HW194655   0.079   2.572   7.790
64274SOL    HW294656   0.082   2.477   7.908
64275SOL     OW94657   6.893  12.883  14.839
64275SOL    HW194658   6.849  12.856   0.040
64275SOL    HW294659   6.980  12.911  14.868
64276SOL     OW94660   1.435   2.519   4.848
64276SOL    HW194661   1.448   2.465   4.926
64276SOL    HW294662   1.439   2.609   4.880
64277SOL     OW94663   1.198  10.986   9.933
64277SOL    HW194664   1.191  10.905   9.983
64277SOL    HW294665   1.121  10.987   9.877
64278SOL     OW94666   0.439   2.307   1.061
64278SOL    HW194667   0.491   2.349   1.129
64278SOL    HW294668   0.348   2.332   1.082
64279SOL     OW94669   4.325   8.405  13.486
64279SOL    HW194670   4.255   8.433  13.427
64279SOL    HW294671   4.315   8.461  13.563
64280SOL     OW94672   1.997   5.806   0.144
64280SOL    HW194673   2.020   5.828   0.234
64280SOL    HW294674   1.972   5.714   0.148
64281SOL     OW94675  10.653   4.534   5.587
64281SOL    HW194676  10.709   4.468   5.548
64281SOL    HW294677  10.645   4.601   5.520
64282SOL     OW94678   8.930   6.776  11.871
64282SOL    HW194679   8.948   6.854  11.819
64282SOL    HW294680   9.013   6.728  11.873
64283SOL     OW94681   6.526   3.915   7.011
64283SOL    HW194682   6.542   3.935   7.103
64283SOL    HW294683   6.608   3.877   6.980
64284SOL     OW94684   4.741   0.939   9.233
64284SOL    HW194685   4.690   0.997   9.290
64284SOL    HW294686   4.817   0.991   9.208
64285SOL     OW94687   3.557   8.588  13.178
64285SOL    HW194688   3.559   8.513  13.237
64285SOL    HW294689   3.526   8.661  13.233
64286SOL     OW94690   7.947   1.511   2.172
64286SOL    HW194691   7.978   1.597   2.201
64286SOL    HW294692   8.026   1.457   2.170
64287SOL     OW94693   5.370   5.381  13.468
64287SOL    HW194694   5.379   5.293  13.506
64287SOL    HW294695   5.300   5.421  13.519
64288SOL     OW94696  10.891  14.403   6.716
64288SOL    HW194697  10.942  14.379   6.793
64288SOL    HW294698  10.813  14.446   6.751
64289SOL     OW94699   7.219   8.096   1.029
64289SOL    HW194700   7.274   8.030   0.987
64289SOL    HW294701   7.225   8.172   0.970
64290SOL     OW94702   2.266   4.845   8.498
64290SOL    HW194703   2.319   4.875   8.572
64290SOL    HW294704   2.327   4.845   8.424
64291SOL     OW94705  13.416   0.744   7.988
64291SOL    HW194706  13.373   0.775   7.908
64291SOL    HW294707  13.353   0.683   8.026
64292SOL     OW94708   4.974  11.957  12.508
64292SOL    HW194709   4.949  11.948  12.416
64292SOL    HW294710   4.965  12.051  12.526
64293SOL     OW94711   8.184  13.194   0.978
64293SOL    HW194712   8.170  13.107   1.015
64293SOL    HW294713   8.198  13.179   0.885
64294SOL     OW94714   0.505  11.837  14.398
64294SOL    HW194715   0.474  11.878  14.317
64294SOL    HW294716   0.495  11.743  14.382
64295SOL     OW94717   9.366   1.073  12.645
64295SOL    HW194718   9.370   1.032  12.559
64295SOL    HW294719   9.275   1.065  12.671
64296SOL     OW94720   5.708   3.669  10.837
64296SOL    HW194721   5.705   3.763  10.853
64296SOL    HW294722   5.755   3.660  10.754
64297SOL     OW94723   2.064   9.473   2.104
64297SOL    HW194724   2.062   9.404   2.038
64297SOL    HW294725   2.084   9.426   2.186
64298SOL     OW94726  14.063   6.894   6.399
64298SOL    HW194727  14.120   6.879   6.475
64298SOL    HW294728  14.008   6.967   6.425
64299SOL     OW94729   2.286  10.872   4.118
64299SOL    HW194730   2.249  10.926   4.048
64299SOL    HW294731   2.214  10.814   4.144
64300SOL     OW94732   0.669  12.246   2.402
64300SOL    HW194733   0.760  12.235   2.431
64300SOL    HW294734   0.663  12.191   2.324
64301SOL     OW94735   0.952   6.073  14.025
64301SOL    HW194736   0.966   6.085  13.931
64301SOL    HW294737   0.866   6.030  14.031
64302SOL     OW94738  12.679  13.092   1.169
64302SOL    HW194739  12.770  13.120   1.182
64302SOL    HW294740  12.628  13.157   1.217
64303SOL     OW94741   6.388  14.001  14.048
64303SOL    HW194742   6.473  13.962  14.068
64303SOL    HW294743   6.339  13.930  14.006
64304SOL     OW94744  11.982   3.645   7.848
64304SOL    HW194745  12.016   3.652   7.759
64304SOL    HW294746  11.964   3.552   7.860
64305SOL     OW94747   8.175   5.284   4.416
64305SOL    HW194748   8.161   5.190   4.427
64305SOL    HW294749   8.269   5.294   4.407
64306SOL     OW94750  12.532   8.346  13.587
64306SOL    HW194751  12.554   8.260  13.622
64306SOL    HW294752  12.507   8.329  13.496
64307SOL     OW94753   4.896   4.612  14.423
64307SOL    HW194754   4.908   4.570  14.508
64307SOL    HW294755   4.801   4.612  14.409
64308SOL     OW94756   1.525  13.072   6.754
64308SOL    HW194757   1.459  13.003   6.749
64308SOL    HW294758   1.512  13.124   6.674
64309SOL     OW94759   2.378   4.654   5.142
64309SOL    HW194760   2.398   4.562   5.124
64309SOL    HW294761   2.378   4.661   5.237
64310SOL     OW94762   8.365  11.002  10.304
64310SOL    HW194763   8.394  11.003  10.395
64310SOL    HW294764   8.372  10.910  10.277
64311SOL     OW94765   3.996  14.158   2.939
64311SOL    HW194766   3.996  14.241   2.893
64311SOL    HW294767   3.955  14.096   2.879
64312SOL     OW94768  12.580   9.533   7.702
64312SOL    HW194769  12.633   9.454   7.707
64312SOL    HW294770  12.549   9.547   7.791
64313SOL     OW94771  13.402  12.288   7.304
64313SOL    HW194772  13.498  12.289   7.299
64313SOL    HW294773  13.373  12.278   7.214
64314SOL     OW94774   7.022   6.375   8.810
64314SOL    HW194775   6.937   6.419   8.803
64314SOL    HW294776   7.004   6.283   8.788
64315SOL     OW94777  13.745  12.525   2.862
64315SOL    HW194778  13.806  12.483   2.922
64315SOL    HW294779  13.691  12.581   2.917
64316SOL     OW94780   7.589  13.947   0.370
64316SOL    HW194781   7.560  13.885   0.437
64316SOL    HW294782   7.615  14.025   0.420
64317SOL     OW94783   4.811  10.455   6.094
64317SOL    HW194784   4.801  10.486   6.184
64317SOL    HW294785   4.875  10.516   6.056
64318SOL     OW94786   8.728  13.378  10.249
64318SOL    HW194787   8.658  13.421  10.200
64318SOL    HW294788   8.694  13.369  10.337
64319SOL     OW94789   1.621  12.005   7.364
64319SOL    HW194790   1.532  12.029   7.340
64319SOL    HW294791   1.632  12.039   7.453
64320SOL     OW94792   1.303   5.082   6.412
64320SOL    HW194793   1.219   5.092   6.367
64320SOL    HW294794   1.368   5.105   6.346
64321SOL     OW94795   7.758   4.829  13.178
64321SOL    HW194796   7.790   4.872  13.098
64321SOL    HW294797   7.687   4.886  13.208
64322SOL     OW94798   9.011   9.656   1.071
64322SOL    HW194799   9.030   9.720   1.140
64322SOL    HW294800   9.097   9.617   1.051
64323SOL     OW94801   7.489   4.399  14.193
64323SOL    HW194802   7.548   4.410  14.119
64323SOL    HW294803   7.481   4.304  14.204
64324SOL     OW94804  13.706   6.127   5.832
64324SOL    HW194805  13.726   6.221   5.827
64324SOL    HW294806  13.731   6.103   5.921
64325SOL     OW94807   4.420   7.338   0.150
64325SOL    HW194808   4.389   7.379   0.230
64325SOL    HW294809   4.508   7.374   0.137
64326SOL     OW94810   2.453  10.600   8.940
64326SOL    HW194811   2.370  10.572   8.901
64326SOL    HW294812   2.516  10.533   8.914
64327SOL     OW94813   1.956  11.768  13.791
64327SOL    HW194814   1.934  11.701  13.726
64327SOL    HW294815   2.048  11.751  13.812
64328SOL     OW94816   9.328  12.599   6.902
64328SOL    HW194817   9.326  12.684   6.946
64328SOL    HW294818   9.247  12.596   6.852
64329SOL     OW94819   0.671  14.320  11.015
64329SOL    HW194820   0.649  14.235  10.976
64329SOL    HW294821   0.743  14.301  11.075
64330SOL     OW94822   0.169   4.184   9.432
64330SOL    HW194823   0.155   4.151   9.521
64330SOL    HW294824   0.229   4.258   9.443
64331SOL     OW94825   5.608   8.695   4.492
64331SOL    HW194826   5.559   8.652   4.423
64331SOL    HW294827   5.683   8.638   4.508
64332SOL     OW94828   0.743   8.304   8.724
64332SOL    HW194829   0.751   8.400   8.728
64332SOL    HW294830   0.752   8.276   8.815
64333SOL     OW94831   5.420  12.514   8.628
64333SOL    HW194832   5.332  12.541   8.654
64333SOL    HW294833   5.407  12.470   8.544
64334SOL     OW94834  12.324  12.354   9.904
64334SOL    HW194835  12.261  12.298   9.859
64334SOL    HW294836  12.285  12.371   9.989
64335SOL     OW94837   4.672   5.444  12.725
64335SOL    HW194838   4.668   5.533  12.690
64335SOL    HW294839   4.586   5.407  12.705
64336SOL     OW94840   5.165   4.735   2.971
64336SOL    HW194841   5.102   4.665   2.985
64336SOL    HW294842   5.249   4.690   2.959
64337SOL     OW94843   1.329   6.117   6.817
64337SOL    HW194844   1.371   6.138   6.734
64337SOL    HW294845   1.390   6.150   6.883
64338SOL     OW94846   6.334   8.951   0.797
64338SOL    HW194847   6.363   9.038   0.770
64338SOL    HW294848   6.253   8.967   0.845
64339SOL     OW94849   6.195   7.308  10.910
64339SOL    HW194850   6.168   7.317  11.001
64339SOL    HW294851   6.274   7.254  10.914
64340SOL     OW94852  13.701   4.406   5.348
64340SOL    HW194853  13.711   4.342   5.277
64340SOL    HW294854  13.622   4.377   5.395
64341SOL     OW94855  13.787   3.366   3.208
64341SOL    HW194856  13.808   3.321   3.126
64341SOL    HW294857  13.720   3.311   3.249
64342SOL     OW94858   4.729   7.903  11.245
64342SOL    HW194859   4.645   7.861  11.226
64342SOL    HW294860   4.741   7.892  11.339
64343SOL     OW94861   0.955  11.289   1.847
64343SOL    HW194862   1.031  11.231   1.855
64343SOL    HW294863   0.981  11.368   1.893
64344SOL     OW94864   2.276   9.058   2.649
64344SOL    HW194865   2.193   9.060   2.697
64344SOL    HW294866   2.253   9.030   2.561
64345SOL     OW94867  12.256   3.878   9.122
64345SOL    HW194868  12.228   3.955   9.174
64345SOL    HW294869  12.296   3.820   9.187
64346SOL     OW94870   3.397   6.257   7.883
64346SOL    HW194871   3.351   6.282   7.963
64346SOL    HW294872   3.328   6.244   7.819
64347SOL     OW94873  14.584   0.791   9.539
64347SOL    HW194874  14.510   0.782   9.600
64347SOL    HW294875  14.660   0.804   9.596
64348SOL     OW94876  12.943   5.945  12.267
64348SOL    HW194877  12.979   6.009  12.207
64348SOL    HW294878  13.013   5.881  12.281
64349SOL     OW94879   5.671   6.097   8.097
64349SOL    HW194880   5.656   6.034   8.026
64349SOL    HW294881   5.725   6.165   8.058
64350SOL     OW94882   2.511   9.780  12.008
64350SOL    HW194883   2.493   9.818  12.094
64350SOL    HW294884   2.585   9.721  12.022
64351SOL     OW94885  10.974   8.272   8.309
64351SOL    HW194886  11.069   8.279   8.299
64351SOL    HW294887  10.955   8.180   8.290
64352SOL     OW94888  12.322   8.669   9.908
64352SOL    HW194889  12.286   8.674   9.820
64352SOL    HW294890  12.296   8.582   9.940
64353SOL     OW94891  10.195   9.091  13.719
64353SOL    HW194892  10.250   9.033  13.772
64353SOL    HW294893  10.109   9.087  13.762
64354SOL     OW94894   1.019   6.041   4.573
64354SOL    HW194895   0.952   6.055   4.506
64354SOL    HW294896   1.101   6.030   4.524
64355SOL     OW94897  11.822   1.100   9.498
64355SOL    HW194898  11.872   1.145   9.567
64355SOL    HW294899  11.772   1.169   9.456
64356SOL     OW94900   2.489  12.939  13.911
64356SOL    HW194901   2.562  12.993  13.943
64356SOL    HW294902   2.425  12.940  13.982
64357SOL     OW94903   7.884  13.560   2.082
64357SOL    HW194904   7.961  13.613   2.065
64357SOL    HW294905   7.915  13.489   2.137
64358SOL     OW94906   5.490   7.120   8.564
64358SOL    HW194907   5.455   7.163   8.486
64358SOL    HW294908   5.522   7.193   8.618
64359SOL     OW94909   9.769   8.763   0.441
64359SOL    HW194910   9.780   8.768   0.536
64359SOL    HW294911   9.675   8.752   0.428
64360SOL     OW94912   4.836  13.516   3.826
64360SOL    HW194913   4.789  13.527   3.909
64360SOL    HW294914   4.796  13.579   3.767
64361SOL     OW94915   5.536  13.302  12.237
64361SOL    HW194916   5.479  13.362  12.287
64361SOL    HW294917   5.551  13.229  12.297
64362SOL     OW94918   2.871  12.404   7.199
64362SOL    HW194919   2.825  12.432   7.278
64362SOL    HW294920   2.804  12.407   7.130
64363SOL     OW94921  11.037  14.078  13.390
64363SOL    HW194922  11.047  13.991  13.353
64363SOL    HW294923  10.988  14.127  13.324
64364SOL     OW94924   2.427  12.633   0.172
64364SOL    HW194925   2.433  12.538   0.173
64364SOL    HW294926   2.339  12.652   0.140
64365SOL     OW94927  11.022   2.704   2.855
64365SOL    HW194928  10.956   2.772   2.841
64365SOL    HW294929  10.973   2.629   2.889
64366SOL     OW94930   2.364   5.271   1.487
64366SOL    HW194931   2.312   5.201   1.448
64366SOL    HW294932   2.419   5.302   1.415
64367SOL     OW94933   4.611  12.900   7.642
64367SOL    HW194934   4.675  12.955   7.598
64367SOL    HW294935   4.573  12.847   7.572
64368SOL     OW94936   1.676   5.899   8.706
64368SOL    HW194937   1.666   5.806   8.724
64368SOL    HW294938   1.601   5.920   8.650
64369SOL     OW94939   0.016   7.672   8.257
64369SOL    HW194940   0.068   7.600   8.291
64369SOL    HW294941   0.080   7.736   8.227
64370SOL     OW94942   4.178   6.456  14.106
64370SOL    HW194943   4.104   6.397  14.090
64370SOL    HW294944   4.146   6.543  14.083
64371SOL     OW94945   7.261   5.364   5.354
64371SOL    HW194946   7.275   5.360   5.448
64371SOL    HW294947   7.228   5.277   5.331
64372SOL     OW94948   3.477   5.165  13.751
64372SOL    HW194949   3.432   5.087  13.782
64372SOL    HW294950   3.548   5.178  13.814
64373SOL     OW94951   7.581   8.175  13.509
64373SOL    HW194952   7.509   8.232  13.482
64373SOL    HW294953   7.541   8.088  13.515
64374SOL     OW94954  12.694  14.866   5.003
64374SOL    HW194955  12.660  14.777   4.998
64374SOL    HW294956  12.767  14.861   5.064
64375SOL     OW94957   0.606   2.404  10.159
64375SOL    HW194958   0.606   2.399  10.063
64375SOL    HW294959   0.636   2.318  10.187
64376SOL     OW94960   0.419   0.916   3.683
64376SOL    HW194961   0.415   0.885   3.773
64376SOL    HW294962   0.416   1.011   3.689
64377SOL     OW94963   1.608   3.030  10.339
64377SOL    HW194964   1.656   2.954  10.371
64377SOL    HW294965   1.599   3.015  10.245
64378SOL     OW94966   4.956   9.735  14.519
64378SOL    HW194967   4.970   9.732  14.425
64378SOL    HW294968   5.034   9.695  14.557
64379SOL     OW94969   2.075   3.134   3.696
64379SOL    HW194970   2.042   3.187   3.624
64379SOL    HW294971   2.026   3.163   3.773
64380SOL     OW94972   2.350   6.605   4.959
64380SOL    HW194973   2.321   6.515   4.950
64380SOL    HW294974   2.274   6.652   4.992
64381SOL     OW94975   9.365  13.603   1.951
64381SOL    HW194976   9.443  13.610   2.006
64381SOL    HW294977   9.299  13.563   2.008
64382SOL     OW94978   8.414   9.563  11.548
64382SOL    HW194979   8.431   9.486  11.493
64382SOL    HW294980   8.380   9.629  11.487
64383SOL     OW94981   6.992   1.096   8.762
64383SOL    HW194982   6.915   1.046   8.791
64383SOL    HW294983   6.955   1.167   8.709
64384SOL     OW94984  13.764   9.094   1.539
64384SOL    HW194985  13.806   9.164   1.489
64384SOL    HW294986  13.832   9.065   1.601
64385SOL     OW94987   6.783   7.841  10.536
64385SOL    HW194988   6.867   7.860  10.495
64385SOL    HW294989   6.769   7.913  10.598
64386SOL     OW94990   0.636  14.866   9.184
64386SOL    HW194991   0.601   0.045   9.116
64386SOL    HW294992   0.558  14.833   9.229
64387SOL     OW94993  11.187   9.671   1.021
64387SOL    HW194994  11.247   9.702   0.953
64387SOL    HW294995  11.237   9.605   1.069
64388SOL     OW94996  10.704   4.411  10.902
64388SOL    HW194997  10.710   4.380  10.992
64388SOL    HW294998  10.698   4.506  10.910
64389SOL     OW94999   1.775  13.486   9.022
64389SOL    HW195000   1.780  13.482   8.926
64389SOL    HW295001   1.776  13.395   9.050
64390SOL     OW95002  12.030   4.601   7.747
64390SOL    HW195003  12.095   4.612   7.677
64390SOL    HW295004  12.052   4.517   7.787
64391SOL     OW95005   6.417   6.163  11.104
64391SOL    HW195006   6.446   6.072  11.112
64391SOL    HW295007   6.497   6.213  11.087
64392SOL     OW95008  10.415  11.320  14.014
64392SOL    HW195009  10.411  11.411  14.042
64392SOL    HW295010  10.387  11.270  14.092
64393SOL     OW95011   9.451   6.756  10.695
64393SOL    HW195012   9.451   6.662  10.713
64393SOL    HW295013   9.493   6.795  10.771
64394SOL     OW95014   6.122  14.749   9.131
64394SOL    HW195015   6.217  14.754   9.142
64394SOL    HW295016   6.090  14.718   9.216
64395SOL     OW95017   9.724   2.154   8.936
64395SOL    HW195018   9.650   2.204   8.901
64395SOL    HW295019   9.778   2.219   8.981
64396SOL     OW95020   3.319   0.294   3.251
64396SOL    HW195021   3.375   0.238   3.197
64396SOL    HW295022   3.251   0.325   3.191
64397SOL     OW95023   0.746   4.105   4.607
64397SOL    HW195024   0.693   4.057   4.669
64397SOL    HW295025   0.801   4.039   4.564
64398SOL     OW95026   3.763   1.558  14.687
64398SOL    HW195027   3.857   1.565  14.703
64398SOL    HW295028   3.722   1.593  14.766
64399SOL     OW95029   9.396   9.827   8.496
64399SOL    HW195030   9.351   9.810   8.579
64399SOL    HW295031   9.482   9.788   8.506
64400SOL     OW95032   2.756  11.368   4.430
64400SOL    HW195033   2.728  11.287   4.386
64400SOL    HW295034   2.709  11.367   4.514
64401SOL     OW95035   3.191   8.538  10.913
64401SOL    HW195036   3.146   8.620  10.894
64401SOL    HW295037   3.270   8.541  10.859
64402SOL     OW95038   7.537   9.465   8.190
64402SOL    HW195039   7.466   9.524   8.216
64402SOL    HW295040   7.501   9.417   8.115
64403SOL     OW95041  12.834   9.365   1.570
64403SOL    HW195042  12.885   9.311   1.631
64403SOL    HW295043  12.766   9.403   1.625
64404SOL     OW95044   4.780  13.730   1.660
64404SOL    HW195045   4.811  13.661   1.601
64404SOL    HW295046   4.771  13.686   1.745
64405SOL     OW95047   1.994  11.900   5.485
64405SOL    HW195048   2.053  11.830   5.456
64405SOL    HW295049   2.032  11.931   5.568
64406SOL     OW95050   8.636   1.624  13.189
64406SOL    HW195051   8.571   1.580  13.134
64406SOL    HW295052   8.601   1.619  13.277
64407SOL     OW95053  12.472  10.919   8.310
64407SOL    HW195054  12.534  10.970   8.362
64407SOL    HW295055  12.482  10.953   8.221
64408SOL     OW95056   5.543   2.226   2.398
64408SOL    HW195057   5.595   2.247   2.475
64408SOL    HW295058   5.490   2.150   2.425
64409SOL     OW95059   6.865   1.024   1.942
64409SOL    HW195060   6.807   1.004   2.015
64409SOL    HW295061   6.934   1.079   1.981
64410SOL     OW95062  11.297  11.917  10.380
64410SOL    HW195063  11.232  11.901  10.311
64410SOL    HW295064  11.250  11.970  10.444
64411SOL     OW95065   5.682   7.384   4.950
64411SOL    HW195066   5.683   7.472   4.911
64411SOL    HW295067   5.723   7.395   5.036
64412SOL     OW95068  11.640   2.635  12.634
64412SOL    HW195069  11.692   2.668  12.708
64412SOL    HW295070  11.607   2.550  12.665
64413SOL     OW95071   1.155   1.440   8.162
64413SOL    HW195072   1.120   1.365   8.210
64413SOL    HW295073   1.144   1.514   8.222
64414SOL     OW95074  13.169  10.060   4.607
64414SOL    HW195075  13.092  10.112   4.583
64414SOL    HW295076  13.205  10.030   4.524
64415SOL     OW95077  11.437  14.081  13.356
64415SOL    HW195078  11.485  14.012  13.401
64415SOL    HW295079  11.481  14.089  13.271
64416SOL     OW95080   8.426   8.129   5.519
64416SOL    HW195081   8.494   8.128   5.452
64416SOL    HW295082   8.353   8.176   5.478
64417SOL     OW95083   7.196   5.987   8.397
64417SOL    HW195084   7.246   5.973   8.316
64417SOL    HW295085   7.238   5.929   8.461
64418SOL     OW95086  14.534   4.318   1.303
64418SOL    HW195087  14.535   4.402   1.257
64418SOL    HW295088  14.575   4.257   1.243
64419SOL     OW95089   4.858   3.994   9.023
64419SOL    HW195090   4.894   3.935   8.956
64419SOL    HW295091   4.777   4.027   8.985
64420SOL     OW95092   6.020  14.528   0.895
64420SOL    HW195093   6.033  14.623   0.891
64420SOL    HW295094   6.107  14.492   0.911
64421SOL     OW95095  14.165   4.996  14.289
64421SOL    HW195096  14.148   4.953  14.373
64421SOL    HW295097  14.095   5.061  14.281
64422SOL     OW95098   6.946   7.637  12.940
64422SOL    HW195099   6.917   7.566  12.883
64422SOL    HW295100   6.881   7.706  12.928
64423SOL     OW95101  11.648   8.271   5.006
64423SOL    HW195102  11.689   8.192   5.043
64423SOL    HW295103  11.556   8.248   4.997
64424SOL     OW95104   5.453   1.793   9.425
64424SOL    HW195105   5.507   1.844   9.366
64424SOL    HW295106   5.427   1.716   9.374
64425SOL     OW95107   3.205   4.496   0.636
64425SOL    HW195108   3.275   4.507   0.700
64425SOL    HW295109   3.125   4.513   0.684
64426SOL     OW95110   8.879  14.651   9.057
64426SOL    HW195111   8.935  14.583   9.019
64426SOL    HW295112   8.793  14.637   9.018
64427SOL     OW95113   2.135  11.720  11.529
64427SOL    HW195114   2.142  11.664  11.607
64427SOL    HW295115   2.225  11.742  11.507
64428SOL     OW95116   9.791   6.418  10.925
64428SOL    HW195117   9.747   6.341  10.889
64428SOL    HW295118   9.801   6.399  11.018
64429SOL     OW95119   3.644   6.461  11.864
64429SOL    HW195120   3.624   6.544  11.907
64429SOL    HW295121   3.729   6.435  11.900
64430SOL     OW95122  13.678   4.791   2.468
64430SOL    HW195123  13.683   4.885   2.455
64430SOL    HW295124  13.732   4.754   2.397
64431SOL     OW95125   5.095   7.380   4.271
64431SOL    HW195126   5.151   7.445   4.228
64431SOL    HW295127   5.016   7.429   4.293
64432SOL     OW95128  12.512   9.833   5.340
64432SOL    HW195129  12.602   9.830   5.308
64432SOL    HW295130  12.520   9.850   5.433
64433SOL     OW95131   2.891   3.763   9.643
64433SOL    HW195132   2.941   3.826   9.694
64433SOL    HW295133   2.928   3.678   9.666
64434SOL     OW95134   7.754  12.394   4.645
64434SOL    HW195135   7.665  12.429   4.642
64434SOL    HW295136   7.809  12.465   4.610
64435SOL     OW95137  12.461   7.705  10.404
64435SOL    HW195138  12.461   7.648  10.327
64435SOL    HW295139  12.384   7.760  10.392
64436SOL     OW95140  14.670   9.343   5.606
64436SOL    HW195141  14.716   9.425   5.624
64436SOL    HW295142  14.619   9.325   5.685
64437SOL     OW95143   3.809   2.655   5.729
64437SOL    HW195144   3.880   2.639   5.667
64437SOL    HW295145   3.843   2.624   5.813
64438SOL     OW95146   2.205   8.419  13.522
64438SOL    HW195147   2.125   8.414  13.574
64438SOL    HW295148   2.205   8.339  13.470
64439SOL     OW95149   1.529  13.271   8.602
64439SOL    HW195150   1.451  13.248   8.652
64439SOL    HW295151   1.561  13.351   8.643
64440SOL     OW95152  11.906   8.051   2.332
64440SOL    HW195153  11.891   7.962   2.299
64440SOL    HW295154  11.849   8.106   2.278
64441SOL     OW95155  13.909   1.287  13.861
64441SOL    HW195156  13.906   1.221  13.930
64441SOL    HW295157  13.925   1.369  13.908
64442SOL     OW95158   3.365   4.563   2.381
64442SOL    HW195159   3.444   4.510   2.372
64442SOL    HW295160   3.294   4.499   2.391
64443SOL     OW95161   3.682   2.825  10.404
64443SOL    HW195162   3.682   2.732  10.427
64443SOL    HW295163   3.741   2.866  10.466
64444SOL     OW95164   9.883  12.088  11.657
64444SOL    HW195165   9.902  11.997  11.677
64444SOL    HW295166   9.788  12.092  11.649
64445SOL     OW95167   0.810  13.584   1.300
64445SOL    HW195168   0.742  13.651   1.311
64445SOL    HW295169   0.836  13.591   1.208
64446SOL     OW95170   4.308   1.424   2.174
64446SOL    HW195171   4.303   1.330   2.191
64446SOL    HW295172   4.222   1.458   2.199
64447SOL     OW95173  10.592   9.484   4.890
64447SOL    HW195174  10.631   9.438   4.815
64447SOL    HW295175  10.637   9.448   4.966
64448SOL     OW95176  10.794   5.031  10.062
64448SOL    HW195177  10.853   4.967  10.021
64448SOL    HW295178  10.779   5.096   9.994
64449SOL     OW95179  10.672   9.071   2.140
64449SOL    HW195180  10.596   9.019   2.168
64449SOL    HW295181  10.736   9.059   2.210
64450SOL     OW95182  14.606   3.713  13.577
64450SOL    HW195183  14.564   3.800  13.577
64450SOL    HW295184  14.538   3.654  13.545
64451SOL     OW95185   4.168   8.228   7.838
64451SOL    HW195186   4.114   8.289   7.889
64451SOL    HW295187   4.199   8.164   7.902
64452SOL     OW95188  12.902   1.146   6.694
64452SOL    HW195189  12.852   1.187   6.764
64452SOL    HW295190  12.874   1.193   6.615
64453SOL     OW95191   8.489   9.739   5.879
64453SOL    HW195192   8.511   9.742   5.786
64453SOL    HW295193   8.561   9.690   5.919
64454SOL     OW95194  10.669  12.859   5.624
64454SOL    HW195195  10.743  12.824   5.574
64454SOL    HW295196  10.596  12.858   5.562
64455SOL     OW95197   5.709   7.181   1.806
64455SOL    HW195198   5.652   7.111   1.838
64455SOL    HW295199   5.655   7.232   1.746
64456SOL     OW95200   7.405   9.386   0.321
64456SOL    HW195201   7.339   9.416   0.383
64456SOL    HW295202   7.463   9.462   0.309
64457SOL     OW95203   4.970   5.987   4.573
64457SOL    HW195204   5.053   5.948   4.544
64457SOL    HW295205   4.994   6.074   4.604
64458SOL     OW95206   2.403  14.405   2.720
64458SOL    HW195207   2.330  14.412   2.782
64458SOL    HW295208   2.424  14.312   2.717
64459SOL     OW95209  12.692   6.143   8.476
64459SOL    HW195210  12.733   6.076   8.531
64459SOL    HW295211  12.761   6.208   8.462
64460SOL     OW95212   8.547   0.354  13.972
64460SOL    HW195213   8.630   0.316  14.004
64460SOL    HW295214   8.499   0.375  14.052
64461SOL     OW95215  12.767   3.835   3.692
64461SOL    HW195216  12.837   3.840   3.626
64461SOL    HW295217  12.756   3.926   3.721
64462SOL     OW95218   3.987  10.371  10.604
64462SOL    HW195219   4.058  10.329  10.653
64462SOL    HW295220   3.951  10.436  10.665
64463SOL     OW95221   4.815   2.127  11.755
64463SOL    HW195222   4.854   2.064  11.695
64463SOL    HW295223   4.808   2.080  11.838
64464SOL     OW95224   9.775  11.136  11.305
64464SOL    HW195225   9.724  11.078  11.248
64464SOL    HW295226   9.845  11.080  11.339
64465SOL     OW95227   8.816  14.282   5.236
64465SOL    HW195228   8.740  14.230   5.263
64465SOL    HW295229   8.830  14.256   5.144
64466SOL     OW95230   4.015   1.066  10.279
64466SOL    HW195231   4.011   1.155  10.245
64466SOL    HW295232   4.024   1.011  10.201
64467SOL     OW95233   5.773   5.364  14.169
64467SOL    HW195234   5.735   5.439  14.124
64467SOL    HW295235   5.836   5.328  14.107
64468SOL     OW95236  14.572   7.002  13.779
64468SOL    HW195237  14.653   7.049  13.800
64468SOL    HW295238  14.502   7.059  13.811
64469SOL     OW95239   1.177  11.770   8.051
64469SOL    HW195240   1.140  11.683   8.064
64469SOL    HW295241   1.262  11.767   8.094
64470SOL     OW95242  11.368   6.445   5.019
64470SOL    HW195243  11.389   6.530   4.979
64470SOL    HW295244  11.324   6.468   5.101
64471SOL     OW95245   5.032   0.743  12.030
64471SOL    HW195246   5.110   0.706  11.988
64471SOL    HW295247   4.963   0.736  11.964
64472SOL     OW95248   4.992   1.384   9.423
64472SOL    HW195249   5.010   1.295   9.455
64472SOL    HW295250   5.034   1.388   9.337
64473SOL     OW95251   8.896   3.385   0.005
64473SOL    HW195252   8.878   3.296  14.856
64473SOL    HW295253   8.989   3.397  14.868
64474SOL     OW95254   3.642   3.581  11.189
64474SOL    HW195255   3.605   3.539  11.112
64474SOL    HW295256   3.609   3.531  11.263
64475SOL     OW95257  10.827   9.391   4.064
64475SOL    HW195258  10.749   9.423   4.018
64475SOL    HW295259  10.890   9.375   3.994
64476SOL     OW95260   7.681   6.499   8.967
64476SOL    HW195261   7.718   6.441   8.901
64476SOL    HW295262   7.677   6.446   9.046
64477SOL     OW95263   7.112  10.505   9.305
64477SOL    HW195264   7.152  10.450   9.372
64477SOL    HW295265   7.030  10.535   9.344
64478SOL     OW95266   6.018  12.291  10.238
64478SOL    HW195267   6.007  12.214  10.294
64478SOL    HW295268   6.112  12.309  10.240
64479SOL     OW95269   2.650   2.114   9.859
64479SOL    HW195270   2.574   2.083   9.907
64479SOL    HW295271   2.721   2.055   9.884
64480SOL     OW95272   8.794  14.794  10.218
64480SOL    HW195273   8.812  14.783  10.311
64480SOL    HW295274   8.864  14.746  10.174
64481SOL     OW95275   5.260   9.402  10.769
64481SOL    HW195276   5.342   9.368  10.803
64481SOL    HW295277   5.281   9.430  10.680
64482SOL     OW95278   9.511   8.136   6.048
64482SOL    HW195279   9.519   8.201   6.117
64482SOL    HW295280   9.593   8.086   6.052
64483SOL     OW95281   5.556   6.585   4.508
64483SOL    HW195282   5.473   6.591   4.555
64483SOL    HW295283   5.623   6.597   4.576
64484SOL     OW95284   7.231   3.054   3.781
64484SOL    HW195285   7.304   3.005   3.819
64484SOL    HW295286   7.244   3.047   3.686
64485SOL     OW95287  12.314  13.122   6.730
64485SOL    HW195288  12.361  13.087   6.806
64485SOL    HW295289  12.363  13.089   6.655
64486SOL     OW95290   2.489   8.960  11.524
64486SOL    HW195291   2.467   9.053  11.525
64486SOL    HW295292   2.438   8.923  11.596
64487SOL     OW95293  11.213   3.406   3.942
64487SOL    HW195294  11.153   3.460   3.994
64487SOL    HW295295  11.157   3.337   3.906
64488SOL     OW95296   6.880   1.508  11.016
64488SOL    HW195297   6.925   1.531  11.098
64488SOL    HW295298   6.945   1.527  10.948
64489SOL     OW95299  13.586   5.054  11.970
64489SOL    HW195300  13.523   5.108  11.922
64489SOL    HW295301  13.615   5.110  12.042
64490SOL     OW95302   6.496   4.207   9.661
64490SOL    HW195303   6.434   4.261   9.710
64490SOL    HW295304   6.519   4.137   9.721
64491SOL     OW95305   0.894   6.951  10.912
64491SOL    HW195306   0.817   6.974  10.965
64491SOL    HW295307   0.909   6.858  10.931
64492SOL     OW95308  11.940   7.714   0.414
64492SOL    HW195309  12.004   7.698   0.483
64492SOL    HW295310  11.909   7.626   0.389
64493SOL     OW95311  11.125   8.106  14.391
64493SOL    HW195312  11.132   8.023  14.439
64493SOL    HW295313  11.043   8.100  14.343
64494SOL     OW95314   5.569  11.284   2.413
64494SOL    HW195315   5.665  11.292   2.418
64494SOL    HW295316   5.537  11.336   2.487
64495SOL     OW95317   1.938   3.013  13.419
64495SOL    HW195318   2.033   3.015  13.408
64495SOL    HW295319   1.910   3.102  13.399
64496SOL     OW95320   0.253  10.259   8.405
64496SOL    HW195321   0.343  10.250   8.436
64496SOL    HW295322   0.258  10.245   8.311
64497SOL     OW95323   0.882   5.665   9.243
64497SOL    HW195324   0.856   5.645   9.153
64497SOL    HW295325   0.875   5.582   9.290
64498SOL     OW95326  11.842   9.505   2.997
64498SOL    HW195327  11.756   9.525   3.034
64498SOL    HW295328  11.872   9.589   2.962
64499SOL     OW95329   0.563  13.389   6.965
64499SOL    HW195330   0.569  13.482   6.983
64499SOL    HW295331   0.558  13.383   6.869
64500SOL     OW95332  12.926   4.859  12.089
64500SOL    HW195333  12.831   4.848  12.088
64500SOL    HW295334  12.939   4.953  12.096
64501SOL     OW95335   0.661   2.472   9.369
64501SOL    HW195336   0.677   2.563   9.348
64501SOL    HW295337   0.566   2.466   9.383
64502SOL     OW95338  14.469   7.135   9.871
64502SOL    HW195339  14.448   7.050   9.911
64502SOL    HW295340  14.384   7.176   9.854
64503SOL     OW95341  13.199   1.748   4.359
64503SOL    HW195342  13.138   1.806   4.314
64503SOL    HW295343  13.271   1.805   4.386
64504SOL     OW95344   3.922   6.471   2.851
64504SOL    HW195345   3.922   6.557   2.808
64504SOL    HW295346   4.009   6.435   2.833
64505SOL     OW95347   4.600   6.960   8.599
64505SOL    HW195348   4.645   7.039   8.627
64505SOL    HW295349   4.632   6.891   8.657
64506SOL     OW95350  11.008   0.838   9.350
64506SOL    HW195351  10.930   0.885   9.380
64506SOL    HW295352  10.979   0.792   9.271
64507SOL     OW95353  11.517   5.410   1.705
64507SOL    HW195354  11.493   5.479   1.768
64507SOL    HW295355  11.589   5.363   1.747
64508SOL     OW95356   4.126   6.035  13.198
64508SOL    HW195357   4.124   6.087  13.278
64508SOL    HW295358   4.125   5.945  13.228
64509SOL     OW95359   8.133   8.766  10.876
64509SOL    HW195360   8.069   8.702  10.906
64509SOL    HW295361   8.085   8.821  10.814
64510SOL     OW95362   6.472  12.667   5.482
64510SOL    HW195363   6.397  12.644   5.537
64510SOL    HW295364   6.448  12.636   5.395
64511SOL     OW95365   4.655   2.760   9.726
64511SOL    HW195366   4.686   2.850   9.737
64511SOL    HW295367   4.601   2.763   9.646
64512SOL     OW95368   7.448   9.735  13.332
64512SOL    HW195369   7.361   9.721  13.294
64512SOL    HW295370   7.450   9.828  13.353
64513SOL     OW95371   4.457  11.169   7.993
64513SOL    HW195372   4.371  11.147   8.029
64513SOL    HW295373   4.518  11.111   8.039
64514SOL     OW95374   0.526   0.676   1.874
64514SOL    HW195375   0.486   0.645   1.792
64514SOL    HW295376   0.605   0.722   1.845
64515SOL     OW95377  12.249   1.814   0.659
64515SOL    HW195378  12.259   1.853   0.572
64515SOL    HW295379  12.232   1.722   0.642
64516SOL     OW95380   5.496  14.665   9.516
64516SOL    HW195381   5.532  14.753   9.510
64516SOL    HW295382   5.569  14.607   9.496
64517SOL     OW95383  12.494   2.982   9.084
64517SOL    HW195384  12.551   3.034   9.028
64517SOL    HW295385  12.461   3.044   9.150
64518SOL     OW95386   8.130   1.057  12.619
64518SOL    HW195387   8.088   0.974  12.643
64518SOL    HW295388   8.081   1.123  12.668
64519SOL     OW95389   7.836   5.317  11.587
64519SOL    HW195390   7.905   5.373  11.622
64519SOL    HW295391   7.877   5.231  11.578
64520SOL     OW95392   5.924  12.050   5.721
64520SOL    HW195393   5.900  12.019   5.634
64520SOL    HW295394   5.860  12.009   5.779
64521SOL     OW95395   5.807  12.802   5.052
64521SOL    HW195396   5.855  12.755   5.120
64521SOL    HW295397   5.866  12.873   5.027
64522SOL     OW95398  10.180   7.926   5.039
64522SOL    HW195399  10.090   7.903   5.013
64522SOL    HW295400  10.176   8.019   5.059
64523SOL     OW95401   8.615  11.183  13.230
64523SOL    HW195402   8.647  11.100  13.266
64523SOL    HW295403   8.644  11.249  13.291
64524SOL     OW95404  14.714   4.982  14.788
64524SOL    HW195405  14.715   5.067  14.832
64524SOL    HW295406  14.630   4.943  14.811
64525SOL     OW95407   4.879  13.111   9.508
64525SOL    HW195408   4.796  13.150   9.482
64525SOL    HW295409   4.892  13.138   9.598
64526SOL     OW95410   0.218   2.911  12.557
64526SOL    HW195411   0.159   2.917  12.481
64526SOL    HW295412   0.256   2.999  12.564
64527SOL     OW95413   6.444  13.473   4.069
64527SOL    HW195414   6.520  13.468   4.011
64527SOL    HW295415   6.477  13.440   4.153
64528SOL     OW95416   5.505  14.143  13.840
64528SOL    HW195417   5.474  14.176  13.756
64528SOL    HW295418   5.433  14.088  13.872
64529SOL     OW95419   5.736   6.350   7.967
64529SOL    HW195420   5.795   6.416   8.004
64529SOL    HW295421   5.717   6.382   7.879
64530SOL     OW95422  10.270  12.194  11.925
64530SOL    HW195423  10.254  12.220  12.016
64530SOL    HW295424  10.357  12.230  11.905
64531SOL     OW95425   6.124  13.005  10.306
64531SOL    HW195426   6.203  13.039  10.348
64531SOL    HW295427   6.154  12.929  10.256
64532SOL     OW95428   3.174   1.051  12.487
64532SOL    HW195429   3.219   1.069  12.570
64532SOL    HW295430   3.129   1.133  12.466
64533SOL     OW95431   3.276   5.420   8.900
64533SOL    HW195432   3.282   5.328   8.925
64533SOL    HW295433   3.289   5.420   8.806
64534SOL     OW95434   8.644  11.272   7.136
64534SOL    HW195435   8.549  11.271   7.144
64534SOL    HW295436   8.674  11.197   7.186
64535SOL     OW95437   2.170  14.425   9.460
64535SOL    HW195438   2.131  14.481   9.394
64535SOL    HW295439   2.260  14.411   9.430
64536SOL     OW95440   9.500   9.226   8.094
64536SOL    HW195441   9.423   9.210   8.149
64536SOL    HW295442   9.464   9.265   8.014
64537SOL     OW95443  14.051  12.384  12.425
64537SOL    HW195444  14.099  12.413  12.348
64537SOL    HW295445  14.099  12.422  12.499
64538SOL     OW95446  13.649   1.347   3.106
64538SOL    HW195447  13.571   1.382   3.063
64538SOL    HW295448  13.618   1.313   3.190
64539SOL     OW95449  14.031  13.652   2.730
64539SOL    HW195450  13.972  13.664   2.804
64539SOL    HW295451  13.976  13.668   2.653
64540SOL     OW95452   6.442   0.547   5.252
64540SOL    HW195453   6.430   0.629   5.204
64540SOL    HW295454   6.370   0.491   5.223
64541SOL     OW95455   3.482  11.780   5.212
64541SOL    HW195456   3.415  11.722   5.173
64541SOL    HW295457   3.536  11.722   5.265
64542SOL     OW95458   9.424   5.799   1.049
64542SOL    HW195459   9.365   5.848   1.107
64542SOL    HW295460   9.366   5.752   0.989
64543SOL     OW95461  12.143  10.428   9.659
64543SOL    HW195462  12.212  10.388   9.712
64543SOL    HW295463  12.177  10.428   9.570
64544SOL     OW95464   8.518  11.230   5.040
64544SOL    HW195465   8.476  11.268   5.117
64544SOL    HW295466   8.491  11.138   5.041
64545SOL     OW95467   4.942   0.768  13.607
64545SOL    HW195468   4.917   0.704  13.674
64545SOL    HW295469   4.858   0.799  13.572
64546SOL     OW95470   1.410  12.545  10.629
64546SOL    HW195471   1.505  12.542  10.622
64546SOL    HW295472   1.379  12.534  10.539
64547SOL     OW95473   1.774  13.043   9.736
64547SOL    HW195474   1.698  13.091   9.769
64547SOL    HW295475   1.831  13.111   9.699
64548SOL     OW95476   7.812   1.125  14.058
64548SOL    HW195477   7.746   1.080  14.005
64548SOL    HW295478   7.763   1.165  14.129
64549SOL     OW95479   1.819   8.155  12.528
64549SOL    HW195480   1.732   8.194  12.523
64549SOL    HW295481   1.837   8.123  12.440
64550SOL     OW95482  10.061   1.703  10.890
64550SOL    HW195483   9.978   1.718  10.846
64550SOL    HW295484  10.113   1.652  10.827
64551SOL     OW95485   6.639   2.790  14.314
64551SOL    HW195486   6.561   2.745  14.282
64551SOL    HW295487   6.619   2.811  14.405
64552SOL     OW95488   6.951   8.500   4.243
64552SOL    HW195489   7.032   8.542   4.217
64552SOL    HW295490   6.953   8.414   4.200
64553SOL     OW95491  14.784   8.480   9.014
64553SOL    HW195492  14.747   8.391   9.010
64553SOL    HW295493  14.725   8.527   9.073
64554SOL     OW95494   2.800  10.956  13.786
64554SOL    HW195495   2.724  11.009  13.762
64554SOL    HW295496   2.775  10.914  13.869
64555SOL     OW95497   4.298  10.058   0.354
64555SOL    HW195498   4.388  10.086   0.338
64555SOL    HW295499   4.259  10.131   0.402
64556SOL     OW95500   1.287   0.802   2.407
64556SOL    HW195501   1.331   0.834   2.329
64556SOL    HW295502   1.234   0.877   2.437
64557SOL     OW95503   2.059  10.411   7.015
64557SOL    HW195504   2.119  10.478   7.046
64557SOL    HW295505   2.114  10.335   6.999
64558SOL     OW95506   7.726   2.379  10.292
64558SOL    HW195507   7.716   2.445  10.362
64558SOL    HW295508   7.793   2.320  10.325
64559SOL     OW95509   0.295  14.039   5.343
64559SOL    HW195510   0.303  14.133   5.359
64559SOL    HW295511   0.256  14.004   5.423
64560SOL     OW95512   3.859   3.966  13.937
64560SOL    HW195513   3.901   4.042  13.978
64560SOL    HW295514   3.766   3.988  13.936
64561SOL     OW95515   8.935   4.625   0.806
64561SOL    HW195516   8.905   4.712   0.833
64561SOL    HW295517   9.025   4.620   0.837
64562SOL     OW95518   3.860   7.612   4.153
64562SOL    HW195519   3.830   7.691   4.108
64562SOL    HW295520   3.812   7.612   4.235
64563SOL     OW95521   1.337   8.821   7.348
64563SOL    HW195522   1.363   8.816   7.440
64563SOL    HW295523   1.403   8.877   7.307
64564SOL     OW95524   0.478   1.367  11.748
64564SOL    HW195525   0.450   1.326  11.830
64564SOL    HW295526   0.549   1.427  11.773
64565SOL     OW95527   6.134  10.138   3.323
64565SOL    HW195528   6.066  10.185   3.276
64565SOL    HW295529   6.150  10.192   3.401
64566SOL     OW95530   5.113  13.814   1.046
64566SOL    HW195531   5.056  13.814   0.969
64566SOL    HW295532   5.177  13.883   1.028
64567SOL     OW95533  13.450   8.296  11.936
64567SOL    HW195534  13.420   8.355  12.005
64567SOL    HW295535  13.469   8.213  11.982
64568SOL     OW95536  11.613   1.909  10.036
64568SOL    HW195537  11.635   1.962   9.960
64568SOL    HW295538  11.534   1.949  10.073
64569SOL     OW95539   1.984   0.170   8.707
64569SOL    HW195540   2.070   0.210   8.718
64569SOL    HW295541   1.930   0.240   8.671
64570SOL     OW95542   3.538  10.093  14.258
64570SOL    HW195543   3.598  10.167  14.247
64570SOL    HW295544   3.559  10.035  14.185
64571SOL     OW95545   5.564   6.162   1.585
64571SOL    HW195546   5.631   6.229   1.569
64571SOL    HW295547   5.612   6.079   1.581
64572SOL     OW95548   1.852   3.077   6.884
64572SOL    HW195549   1.777   3.026   6.916
64572SOL    HW295550   1.816   3.133   6.815
64573SOL     OW95551   1.957  10.569   8.485
64573SOL    HW195552   1.919  10.640   8.433
64573SOL    HW295553   1.893  10.552   8.554
64574SOL     OW95554   2.509  13.729   8.808
64574SOL    HW195555   2.577  13.664   8.788
64574SOL    HW295556   2.438  13.678   8.848
64575SOL     OW95557   1.777   7.054  12.864
64575SOL    HW195558   1.737   7.104  12.934
64575SOL    HW295559   1.871   7.068  12.874
64576SOL     OW95560   9.249   9.051   2.012
64576SOL    HW195561   9.221   8.969   1.972
64576SOL    HW295562   9.168   9.092   2.042
64577SOL     OW95563   4.772  11.147  11.259
64577SOL    HW195564   4.804  11.152  11.168
64577SOL    HW295565   4.715  11.070  11.259
64578SOL     OW95566  12.906   6.436   1.360
64578SOL    HW195567  12.952   6.464   1.439
64578SOL    HW295568  12.906   6.514   1.304
64579SOL     OW95569   1.673  13.948  13.855
64579SOL    HW195570   1.654  14.000  13.776
64579SOL    HW295571   1.764  13.968  13.876
64580SOL     OW95572   5.226   4.539   9.861
64580SOL    HW195573   5.259   4.450   9.845
64580SOL    HW295574   5.179   4.533   9.944
64581SOL     OW95575   8.875   7.689   8.123
64581SOL    HW195576   8.885   7.595   8.136
64581SOL    HW295577   8.794   7.711   8.170
64582SOL     OW95578   7.815   6.308   8.841
64582SOL    HW195579   7.879   6.268   8.782
64582SOL    HW295580   7.740   6.248   8.839
64583SOL     OW95581  12.153  11.568   3.225
64583SOL    HW195582  12.162  11.663   3.228
64583SOL    HW295583  12.235  11.534   3.260
64584SOL     OW95584   4.996  10.107  10.616
64584SOL    HW195585   5.026  10.085  10.704
64584SOL    HW295586   5.040  10.044  10.558
64585SOL     OW95587   2.649  11.240   2.501
64585SOL    HW195588   2.630  11.149   2.478
64585SOL    HW295589   2.628  11.245   2.594
64586SOL     OW95590  13.234  13.404  13.055
64586SOL    HW195591  13.291  13.380  13.128
64586SOL    HW295592  13.244  13.333  12.992
64587SOL     OW95593   3.179  12.824  10.507
64587SOL    HW195594   3.155  12.832  10.599
64587SOL    HW295595   3.132  12.746  10.476
64588SOL     OW95596   3.031  10.162   0.274
64588SOL    HW195597   3.109  10.216   0.271
64588SOL    HW295598   3.061  10.078   0.310
64589SOL     OW95599   4.965   1.917  10.035
64589SOL    HW195600   4.998   1.999   9.998
64589SOL    HW295601   4.908   1.944  10.107
64590SOL     OW95602   4.322   1.719  14.148
64590SOL    HW195603   4.374   1.639  14.153
64590SOL    HW295604   4.240   1.693  14.107
64591SOL     OW95605  10.501   2.375  10.452
64591SOL    HW195606  10.472   2.439  10.387
64591SOL    HW295607  10.594   2.392  10.463
64592SOL     OW95608  11.317   0.328  10.189
64592SOL    HW195609  11.337   0.419  10.209
64592SOL    HW295610  11.237   0.331  10.138
64593SOL     OW95611  11.331   4.439   6.070
64593SOL    HW195612  11.407   4.390   6.038
64593SOL    HW295613  11.275   4.450   5.993
64594SOL     OW95614  12.887   2.369   4.695
64594SOL    HW195615  12.809   2.422   4.710
64594SOL    HW295616  12.877   2.336   4.606
64595SOL     OW95617  13.340  10.386   2.119
64595SOL    HW195618  13.431  10.380   2.091
64595SOL    HW295619  13.294  10.323   2.063
64596SOL     OW95620   8.989  10.038   1.977
64596SOL    HW195621   9.039  10.103   2.027
64596SOL    HW295622   8.955   9.978   2.044
64597SOL     OW95623   9.802   5.544  14.455
64597SOL    HW195624   9.895   5.533  14.436
64597SOL    HW295625   9.795   5.634  14.488
64598SOL     OW95626   7.868   4.001   2.917
64598SOL    HW195627   7.834   4.059   2.985
64598SOL    HW295628   7.960   3.989   2.940
64599SOL     OW95629   2.407   6.821  12.455
64599SOL    HW195630   2.399   6.820  12.551
64599SOL    HW295631   2.495   6.855  12.439
64600SOL     OW95632   6.367  10.043   1.816
64600SOL    HW195633   6.460  10.056   1.833
64600SOL    HW295634   6.363  10.011   1.726
64601SOL     OW95635  13.168   2.107   8.354
64601SOL    HW195636  13.173   2.163   8.432
64601SOL    HW295637  13.075   2.105   8.332
64602SOL     OW95638   1.663   6.147   2.730
64602SOL    HW195639   1.742   6.175   2.683
64602SOL    HW295640   1.678   6.175   2.820
64603SOL     OW95641  12.476   0.518   5.617
64603SOL    HW195642  12.509   0.439   5.658
64603SOL    HW295643  12.423   0.560   5.684
64604SOL     OW95644   1.108   8.158  10.900
64604SOL    HW195645   1.146   8.243  10.925
64604SOL    HW295646   1.174   8.117  10.845
64605SOL     OW95647   5.322  10.068   2.246
64605SOL    HW195648   5.417  10.076   2.259
64605SOL    HW295649   5.313  10.041   2.155
64606SOL     OW95650   0.100   0.015   1.920
64606SOL    HW195651   0.021   0.048   1.963
64606SOL    HW295652   0.068  14.820   1.867
64607SOL     OW95653   5.607   6.134   5.464
64607SOL    HW195654   5.653   6.052   5.479
64607SOL    HW295655   5.515   6.109   5.456
64608SOL     OW95656   7.491   3.237   5.535
64608SOL    HW195657   7.422   3.218   5.471
64608SOL    HW295658   7.445   3.244   5.618
64609SOL     OW95659   0.623   4.723  12.893
64609SOL    HW195660   0.583   4.651  12.942
64609SOL    HW295661   0.550   4.769  12.854
64610SOL     OW95662   4.999   8.518   1.837
64610SOL    HW195663   4.928   8.543   1.777
64610SOL    HW295664   4.985   8.424   1.852
64611SOL     OW95665  11.930   3.235  13.989
64611SOL    HW195666  11.858   3.299  13.996
64611SOL    HW295667  11.956   3.218  14.080
64612SOL     OW95668   3.316   8.590  10.151
64612SOL    HW195669   3.311   8.541  10.233
64612SOL    HW295670   3.263   8.538  10.089
64613SOL     OW95671   9.836  10.638   2.213
64613SOL    HW195672   9.867  10.724   2.241
64613SOL    HW295673   9.911  10.580   2.227
64614SOL     OW95674  13.341   5.221   6.868
64614SOL    HW195675  13.318   5.307   6.834
64614SOL    HW295676  13.319   5.160   6.798
64615SOL     OW95677   1.498   1.243   2.118
64615SOL    HW195678   1.587   1.208   2.108
64615SOL    HW295679   1.511   1.334   2.145
64616SOL     OW95680   7.007   5.220   0.056
64616SOL    HW195681   6.984   5.152  14.871
64616SOL    HW295682   6.947   5.292   0.037
64617SOL     OW95683  11.904   0.528  14.365
64617SOL    HW195684  11.966   0.466  14.326
64617SOL    HW295685  11.880   0.488  14.448
64618SOL     OW95686  12.923   9.051   2.954
64618SOL    HW195687  12.881   9.009   3.028
64618SOL    HW295688  12.878   9.016   2.877
64619SOL     OW95689   3.689   6.608   6.101
64619SOL    HW195690   3.601   6.611   6.062
64619SOL    HW295691   3.687   6.676   6.169
64620SOL     OW95692   1.278   3.983  12.690
64620SOL    HW195693   1.250   4.070  12.718
64620SOL    HW295694   1.338   3.999  12.617
64621SOL     OW95695   9.701  14.673   2.736
64621SOL    HW195696   9.608  14.651   2.735
64621SOL    HW295697   9.742  14.608   2.679
64622SOL     OW95698   4.528   8.401   8.096
64622SOL    HW195699   4.610   8.448   8.112
64622SOL    HW295700   4.494   8.438   8.015
64623SOL     OW95701  11.387   3.771  13.912
64623SOL    HW195702  11.310   3.826  13.904
64623SOL    HW295703  11.424   3.768  13.824
64624SOL     OW95704   3.431   0.608   1.350
64624SOL    HW195705   3.345   0.578   1.321
64624SOL    HW295706   3.479   0.528   1.370
64625SOL     OW95707   3.060  10.846   2.927
64625SOL    HW195708   3.113  10.900   2.986
64625SOL    HW295709   2.979  10.895   2.916
64626SOL     OW95710  12.734  11.206   4.473
64626SOL    HW195711  12.751  11.125   4.521
64626SOL    HW295712  12.643  11.228   4.495
64627SOL     OW95713   0.162  14.145   1.916
64627SOL    HW195714   0.208  14.163   1.998
64627SOL    HW295715   0.111  14.224   1.898
64628SOL     OW95716  12.115   8.483   9.079
64628SOL    HW195717  12.085   8.407   9.031
64628SOL    HW295718  12.210   8.482   9.069
64629SOL     OW95719   9.040   9.864   9.699
64629SOL    HW195720   8.995   9.791   9.740
64629SOL    HW295721   8.970   9.917   9.660
64630SOL     OW95722   7.718   0.452  14.357
64630SOL    HW195723   7.626   0.467  14.336
64630SOL    HW295724   7.731   0.499  14.440
64631SOL     OW95725  13.750  13.447  11.080
64631SOL    HW195726  13.731  13.389  11.006
64631SOL    HW295727  13.836  13.485  11.059
64632SOL     OW95728   6.752   0.707   0.514
64632SOL    HW195729   6.718   0.750   0.435
64632SOL    HW295730   6.792   0.626   0.482
64633SOL     OW95731  13.230   2.377   5.812
64633SOL    HW195732  13.154   2.435   5.818
64633SOL    HW295733  13.196   2.297   5.774
64634SOL     OW95734   9.004   5.579  10.959
64634SOL    HW195735   9.023   5.619  10.874
64634SOL    HW295736   9.089   5.551  10.993
64635SOL     OW95737   5.452   5.705   2.707
64635SOL    HW195738   5.450   5.612   2.730
64635SOL    HW295739   5.466   5.706   2.612
64636SOL     OW95740   5.520  13.298  13.577
64636SOL    HW195741   5.513  13.388  13.543
64636SOL    HW295742   5.483  13.244  13.507
64637SOL     OW95743   3.116   7.301  14.819
64637SOL    HW195744   3.069   7.342  14.746
64637SOL    HW295745   3.061   7.226  14.843
64638SOL     OW95746   2.845   5.200   7.969
64638SOL    HW195747   2.773   5.237   7.919
64638SOL    HW295748   2.835   5.105   7.959
64639SOL     OW95749   5.887   5.169  11.573
64639SOL    HW195750   5.918   5.080  11.589
64639SOL    HW295751   5.966   5.222  11.572
64640SOL     OW95752  12.889   8.498  11.658
64640SOL    HW195753  12.936   8.414  11.658
64640SOL    HW295754  12.881   8.520  11.751
64641SOL     OW95755   6.835   0.388   0.389
64641SOL    HW195756   6.915   0.385   0.336
64641SOL    HW295757   6.824   0.299   0.420
64642SOL     OW95758  13.234   8.362  11.426
64642SOL    HW195759  13.298   8.406  11.483
64642SOL    HW295760  13.276   8.279  11.403
64643SOL     OW95761   9.863   4.750   4.684
64643SOL    HW195762   9.810   4.809   4.630
64643SOL    HW295763   9.953   4.777   4.667
64644SOL     OW95764   1.288   8.320  13.446
64644SOL    HW195765   1.275   8.305  13.540
64644SOL    HW295766   1.221   8.384  13.422
64645SOL     OW95767   4.931  14.723  11.922
64645SOL    HW195768   4.859  14.663  11.904
64645SOL    HW295769   4.911  14.760  12.008
64646SOL     OW95770   3.975  11.067   9.561
64646SOL    HW195771   3.894  11.018   9.545
64646SOL    HW295772   3.989  11.117   9.480
64647SOL     OW95773   7.221  11.826   6.443
64647SOL    HW195774   7.209  11.740   6.402
64647SOL    HW295775   7.315  11.832   6.459
64648SOL     OW95776   5.062   4.975   8.439
64648SOL    HW195777   5.115   4.905   8.476
64648SOL    HW295778   5.020   4.935   8.362
64649SOL     OW95779  11.133   6.767  12.139
64649SOL    HW195780  11.043   6.753  12.111
64649SOL    HW295781  11.126   6.786  12.233
64650SOL     OW95782  14.535   2.522   5.883
64650SOL    HW195783  14.549   2.615   5.900
64650SOL    HW295784  14.549   2.513   5.789
64651SOL     OW95785   3.181   7.988  10.907
64651SOL    HW195786   3.165   7.919  10.971
64651SOL    HW295787   3.262   7.962  10.863
64652SOL     OW95788   4.066   5.875  10.908
64652SOL    HW195789   4.153   5.839  10.928
64652SOL    HW295790   4.028   5.892  10.994
64653SOL     OW95791   5.625  10.194   1.751
64653SOL    HW195792   5.714  10.188   1.785
64653SOL    HW295793   5.587  10.269   1.797
64654SOL     OW95794   1.794   1.279   4.988
64654SOL    HW195795   1.706   1.284   5.024
64654SOL    HW295796   1.849   1.251   5.061
64655SOL     OW95797  11.641   3.012   1.076
64655SOL    HW195798  11.597   2.929   1.058
64655SOL    HW295799  11.730   2.986   1.101
64656SOL     OW95800   4.249   4.862   5.316
64656SOL    HW195801   4.177   4.806   5.289
64656SOL    HW295802   4.318   4.846   5.251
64657SOL     OW95803   4.986   4.263   9.087
64657SOL    HW195804   4.945   4.180   9.061
64657SOL    HW295805   4.913   4.317   9.117
64658SOL     OW95806   8.617  13.184   7.503
64658SOL    HW195807   8.614  13.089   7.516
64658SOL    HW295808   8.601  13.221   7.590
64659SOL     OW95809   1.629   6.290   8.185
64659SOL    HW195810   1.590   6.363   8.233
64659SOL    HW295811   1.704   6.329   8.139
64660SOL     OW95812   1.186   6.963   6.813
64660SOL    HW195813   1.252   6.974   6.881
64660SOL    HW295814   1.236   6.951   6.732
64661SOL     OW95815   4.347   1.877   3.582
64661SOL    HW195816   4.421   1.908   3.530
64661SOL    HW295817   4.270   1.903   3.532
64662SOL     OW95818   7.627  14.385   5.716
64662SOL    HW195819   7.540  14.375   5.754
64662SOL    HW295820   7.622  14.467   5.666
64663SOL     OW95821  11.440   8.029  14.631
64663SOL    HW195822  11.443   8.124  14.626
64663SOL    HW295823  11.346   8.008  14.635
64664SOL     OW95824  12.724   0.086  11.376
64664SOL    HW195825  12.718   0.018  11.309
64664SOL    HW295826  12.799   0.061  11.429
64665SOL     OW95827   9.464   6.262   8.810
64665SOL    HW195828   9.380   6.269   8.766
64665SOL    HW295829   9.485   6.351   8.837
64666SOL     OW95830   7.113   1.226   0.177
64666SOL    HW195831   7.055   1.187   0.243
64666SOL    HW295832   7.081   1.315   0.168
64667SOL     OW95833   3.077  11.920   6.982
64667SOL    HW195834   3.061  12.006   7.021
64667SOL    HW295835   2.991  11.877   6.984
64668SOL     OW95836   6.581   3.041   7.373
64668SOL    HW195837   6.648   3.038   7.305
64668SOL    HW295838   6.625   3.079   7.449
64669SOL     OW95839   4.393   2.392  14.530
64669SOL    HW195840   4.314   2.356  14.489
64669SOL    HW295841   4.438   2.317  14.567
64670SOL     OW95842   9.901   7.951   1.683
64670SOL    HW195843   9.845   7.880   1.716
64670SOL    HW295844   9.989   7.912   1.681
64671SOL     OW95845  11.591  10.068  12.551
64671SOL    HW195846  11.534  10.138  12.583
64671SOL    HW295847  11.609  10.015  12.629
64672SOL     OW95848   7.279  12.204   9.237
64672SOL    HW195849   7.245  12.266   9.172
64672SOL    HW295850   7.373  12.199   9.219
64673SOL     OW95851   3.200   1.664   8.258
64673SOL    HW195852   3.221   1.601   8.188
64673SOL    HW295853   3.184   1.746   8.212
64674SOL     OW95854   5.499  10.943   2.005
64674SOL    HW195855   5.441  11.018   2.013
64674SOL    HW295856   5.584  10.975   2.036
64675SOL     OW95857  13.154   4.724   5.863
64675SOL    HW195858  13.233   4.694   5.908
64675SOL    HW295859  13.181   4.739   5.773
64676SOL     OW95860   9.944   1.123   5.379
64676SOL    HW195861   9.995   1.113   5.299
64676SOL    HW295862   9.964   1.212   5.410
64677SOL     OW95863  11.946   5.936   9.359
64677SOL    HW195864  11.941   5.848   9.398
64677SOL    HW295865  12.021   5.932   9.301
64678SOL     OW95866  11.390   0.453   7.205
64678SOL    HW195867  11.302   0.453   7.168
64678SOL    HW295868  11.377   0.458   7.300
64679SOL     OW95869   9.966   9.064   3.320
64679SOL    HW195870   9.983   9.131   3.253
64679SOL    HW295871   9.912   8.999   3.274
64680SOL     OW95872   2.314   3.326  13.518
64680SOL    HW195873   2.234   3.363  13.554
64680SOL    HW295874   2.310   3.346  13.424
64681SOL     OW95875   2.242  10.229   5.261
64681SOL    HW195876   2.328  10.188   5.254
64681SOL    HW295877   2.253  10.297   5.327
64682SOL     OW95878   3.898  11.122   5.938
64682SOL    HW195879   3.820  11.178   5.945
64682SOL    HW295880   3.865  11.040   5.902
64683SOL     OW95881   5.858   5.797   2.712
64683SOL    HW195882   5.773   5.765   2.682
64683SOL    HW295883   5.921   5.735   2.677
64684SOL     OW95884   2.880   0.060   2.511
64684SOL    HW195885   2.908   0.090   2.424
64684SOL    HW295886   2.909  14.848   2.515
64685SOL     OW95887   6.162   9.185  10.131
64685SOL    HW195888   6.206   9.121  10.075
64685SOL    HW295889   6.112   9.239  10.070
64686SOL     OW95890   7.454   5.077   0.336
64686SOL    HW195891   7.365   5.043   0.328
64686SOL    HW295892   7.503   5.004   0.375
64687SOL     OW95893  13.594   4.826   3.795
64687SOL    HW195894  13.689   4.819   3.802
64687SOL    HW295895  13.560   4.758   3.853
64688SOL     OW95896   2.914   6.665   0.067
64688SOL    HW195897   2.985   6.610   0.033
64688SOL    HW295898   2.954   6.716   0.138
64689SOL     OW95899   9.747   9.283   6.231
64689SOL    HW195900   9.723   9.371   6.203
64689SOL    HW295901   9.757   9.290   6.326
64690SOL     OW95902   6.824   4.765  10.895
64690SOL    HW195903   6.815   4.767  10.990
64690SOL    HW295904   6.775   4.688  10.868
64691SOL     OW95905   4.072   2.664   2.050
64691SOL    HW195906   4.123   2.644   2.128
64691SOL    HW295907   4.010   2.592   2.043
64692SOL     OW95908   5.266   4.291   9.909
64692SOL    HW195909   5.212   4.217   9.882
64692SOL    HW295910   5.302   4.266   9.994
64693SOL     OW95911   7.462   9.040  10.746
64693SOL    HW195912   7.475   9.069  10.836
64693SOL    HW295913   7.392   8.975  10.751
64694SOL     OW95914   8.661  10.879   8.341
64694SOL    HW195915   8.698  10.879   8.429
64694SOL    HW295916   8.592  10.813   8.344
64695SOL     OW95917  11.814   4.340   4.404
64695SOL    HW195918  11.726   4.321   4.370
64695SOL    HW295919  11.840   4.260   4.449
64696SOL     OW95920  12.221   2.817   6.450
64696SOL    HW195921  12.233   2.911   6.462
64696SOL    HW295922  12.304   2.787   6.414
64697SOL     OW95923   4.642   5.100  13.750
64697SOL    HW195924   4.560   5.137  13.784
64697SOL    HW295925   4.701   5.175  13.746
64698SOL     OW95926  14.619   7.024  14.124
64698SOL    HW195927  14.617   7.057  14.214
64698SOL    HW295928  14.624   6.929  14.133
64699SOL     OW95929   6.666   5.539   6.982
64699SOL    HW195930   6.733   5.581   7.038
64699SOL    HW295931   6.661   5.596   6.905
64700SOL     OW95932   7.996  12.625   7.091
64700SOL    HW195933   7.937  12.688   7.049
64700SOL    HW295934   7.939  12.552   7.115
64701SOL     OW95935  14.052  12.155   1.264
64701SOL    HW195936  13.983  12.221   1.262
64701SOL    HW295937  14.052  12.118   1.176
64702SOL     OW95938  10.652   6.560   7.399
64702SOL    HW195939  10.620   6.470   7.398
64702SOL    HW295940  10.663   6.583   7.307
64703SOL     OW95941  14.078   6.613   9.768
64703SOL    HW195942  13.997   6.585   9.811
64703SOL    HW295943  14.085   6.706   9.789
64704SOL     OW95944   9.605   0.532   8.753
64704SOL    HW195945   9.689   0.507   8.793
64704SOL    HW295946   9.598   0.475   8.676
64705SOL     OW95947   5.824  13.208   7.133
64705SOL    HW195948   5.735  13.211   7.169
64705SOL    HW295949   5.866  13.287   7.166
64706SOL     OW95950  13.429   1.822   3.564
64706SOL    HW195951  13.513   1.777   3.555
64706SOL    HW295952  13.385   1.775   3.636
64707SOL     OW95953   5.800  13.594   7.758
64707SOL    HW195954   5.832  13.585   7.848
64707SOL    HW295955   5.729  13.531   7.752
64708SOL     OW95956   4.351   6.952   4.308
64708SOL    HW195957   4.356   6.996   4.393
64708SOL    HW295958   4.352   6.859   4.329
64709SOL     OW95959   8.364  10.565  12.300
64709SOL    HW195960   8.315  10.494  12.257
64709SOL    HW295961   8.407  10.522  12.374
64710SOL     OW95962   9.523   7.125  11.119
64710SOL    HW195963   9.561   7.176  11.190
64710SOL    HW295964   9.430   7.118  11.142
64711SOL     OW95965  10.263   2.141   9.112
64711SOL    HW195966  10.294   2.231   9.103
64711SOL    HW295967  10.340   2.087   9.097
64712SOL     OW95968   5.972   4.549   5.316
64712SOL    HW195969   6.026   4.601   5.376
64712SOL    HW295970   5.911   4.502   5.373
64713SOL     OW95971   8.250   9.128  12.513
64713SOL    HW195972   8.216   9.136  12.602
64713SOL    HW295973   8.202   9.195  12.463
64714SOL     OW95974   0.343   7.735   8.885
64714SOL    HW195975   0.320   7.747   8.793
64714SOL    HW295976   0.429   7.777   8.894
64715SOL     OW95977  14.608   4.651  11.319
64715SOL    HW195978  14.665   4.660  11.395
64715SOL    HW295979  14.582   4.741  11.298
64716SOL     OW95980  14.603   1.842   9.616
64716SOL    HW195981  14.537   1.790   9.663
64716SOL    HW295982  14.686   1.815   9.655
64717SOL     OW95983  10.720  11.521   9.227
64717SOL    HW195984  10.783  11.486   9.290
64717SOL    HW295985  10.768  11.588   9.179
64718SOL     OW95986   4.332   5.360   3.830
64718SOL    HW195987   4.424   5.386   3.843
64718SOL    HW295988   4.299   5.422   3.765
64719SOL     OW95989  10.086   3.142   6.734
64719SOL    HW195990  10.083   3.047   6.744
64719SOL    HW295991  10.159   3.157   6.674
64720SOL     OW95992  12.626  12.853   4.981
64720SOL    HW195993  12.612  12.900   5.063
64720SOL    HW295994  12.612  12.918   4.913
64721SOL     OW95995   3.176  14.515   9.203
64721SOL    HW195996   3.173  14.420   9.216
64721SOL    HW295997   3.142  14.528   9.115
64722SOL     OW95998   5.511   6.162   4.276
64722SOL    HW195999   5.522   6.242   4.327
64722SOL    HW296000   5.435   6.180   4.221
64723SOL     OW96001  11.326  10.292  13.576
64723SOL    HW196002  11.334  10.312  13.669
64723SOL    HW296003  11.314  10.377  13.534
64724SOL     OW96004   9.272   5.062   3.635
64724SOL    HW196005   9.276   5.087   3.727
64724SOL    HW296006   9.274   5.146   3.588
64725SOL     OW96007   1.665   7.291   4.306
64725SOL    HW196008   1.634   7.255   4.223
64725SOL    HW296009   1.668   7.216   4.365
64726SOL     OW96010   6.432   0.089   3.290
64726SOL    HW196011   6.384   0.041   3.222
64726SOL    HW296012   6.376   0.082   3.368
64727SOL     OW96013  13.963  10.413   7.681
64727SOL    HW196014  13.909  10.338   7.703
64727SOL    HW296015  13.901  10.482   7.659
64728SOL     OW96016   9.220  13.093   4.194
64728SOL    HW196017   9.235  13.181   4.160
64728SOL    HW296018   9.140  13.100   4.247
64729SOL     OW96019  11.355  10.074   6.073
64729SOL    HW196020  11.278  10.126   6.098
64729SOL    HW296021  11.425  10.105   6.131
64730SOL     OW96022   7.171   7.159   6.700
64730SOL    HW196023   7.141   7.171   6.610
64730SOL    HW296024   7.094   7.126   6.747
64731SOL     OW96025  12.120   5.498   2.403
64731SOL    HW196026  12.075   5.476   2.485
64731SOL    HW296027  12.051   5.499   2.337
64732SOL     OW96028   6.089   6.852   7.249
64732SOL    HW196029   6.172   6.871   7.293
64732SOL    HW296030   6.030   6.825   7.319
64733SOL     OW96031   6.119  14.306  12.069
64733SOL    HW196032   6.120  14.316  12.165
64733SOL    HW296033   6.067  14.227  12.054
64734SOL     OW96034   1.585   7.941   8.286
64734SOL    HW196035   1.564   7.849   8.303
64734SOL    HW296036   1.526   7.989   8.343
64735SOL     OW96037   1.619  11.791  10.290
64735SOL    HW196038   1.598  11.732  10.218
64735SOL    HW296039   1.673  11.860  10.249
64736SOL     OW96040  12.254   6.237   3.163
64736SOL    HW196041  12.304   6.155   3.159
64736SOL    HW296042  12.198   6.227   3.240
64737SOL     OW96043   4.440  11.530   1.895
64737SOL    HW196044   4.528  11.567   1.902
64737SOL    HW296045   4.453  11.436   1.897
64738SOL     OW96046   6.108   3.323   4.501
64738SOL    HW196047   6.168   3.394   4.478
64738SOL    HW296048   6.129   3.303   4.593
64739SOL     OW96049   2.368   3.406   2.997
64739SOL    HW196050   2.420   3.486   2.990
64739SOL    HW296051   2.400   3.349   2.927
64740SOL     OW96052   7.859   7.210  12.525
64740SOL    HW196053   7.871   7.211  12.430
64740SOL    HW296054   7.766   7.188  12.537
64741SOL     OW96055   5.534   4.324  11.705
64741SOL    HW196056   5.549   4.344  11.797
64741SOL    HW296057   5.468   4.254  11.706
64742SOL     OW96058   5.999   5.559   3.458
64742SOL    HW196059   6.045   5.639   3.484
64742SOL    HW296060   5.907   5.576   3.478
64743SOL     OW96061   6.510   0.526  12.191
64743SOL    HW196062   6.499   0.608  12.240
64743SOL    HW296063   6.583   0.544  12.131
64744SOL     OW96064   7.352   5.438   5.968
64744SOL    HW196065   7.265   5.400   5.979
64744SOL    HW296066   7.337   5.524   5.931
64745SOL     OW96067   4.713   1.046  10.372
64745SOL    HW196068   4.779   1.089  10.318
64745SOL    HW296069   4.756   0.968  10.405
64746SOL     OW96070  10.976   5.579   6.279
64746SOL    HW196071  10.898   5.549   6.325
64746SOL    HW296072  10.946   5.600   6.190
64747SOL     OW96073   2.706   7.055   0.053
64747SOL    HW196074   2.747   7.103   0.124
64747SOL    HW296075   2.656   7.121   0.004
64748SOL     OW96076   9.312   0.052  10.679
64748SOL    HW196077   9.310   0.046  10.775
64748SOL    HW296078   9.267  14.852  10.650
64749SOL     OW96079  13.486   2.087   7.021
64749SOL    HW196080  13.405   2.062   6.978
64749SOL    HW296081  13.537   2.006   7.025
64750SOL     OW96082   1.235   9.813   9.366
64750SOL    HW196083   1.306   9.771   9.319
64750SOL    HW296084   1.170   9.833   9.299
64751SOL     OW96085   2.797  10.930   6.111
64751SOL    HW196086   2.861  10.870   6.074
64751SOL    HW296087   2.713  10.903   6.073
64752SOL     OW96088   6.593   1.314   4.990
64752SOL    HW196089   6.677   1.275   5.016
64752SOL    HW296090   6.531   1.282   5.055
64753SOL     OW96091  12.504   2.510   5.882
64753SOL    HW196092  12.595   2.483   5.886
64753SOL    HW296093  12.470   2.472   5.802
64754SOL     OW96094  12.524   3.709   5.229
64754SOL    HW196095  12.431   3.729   5.220
64754SOL    HW296096  12.569   3.784   5.190
64755SOL     OW96097   3.294   0.973   8.994
64755SOL    HW196098   3.323   1.040   9.055
64755SOL    HW296099   3.255   0.905   9.049
64756SOL     OW96100   9.827   2.107   9.210
64756SOL    HW196101   9.853   2.038   9.149
64756SOL    HW296102   9.888   2.178   9.193
64757SOL     OW96103   7.911   2.543  12.063
64757SOL    HW196104   7.923   2.589  12.146
64757SOL    HW296105   7.955   2.599  11.998
64758SOL     OW96106  14.582  11.587   0.017
64758SOL    HW196107  14.618  11.675   0.026
64758SOL    HW296108  14.506  11.597  14.839
64759SOL     OW96109  13.449   0.433   5.119
64759SOL    HW196110  13.537   0.467   5.099
64759SOL    HW296111  13.411   0.499   5.178
64760SOL     OW96112   1.841  11.185   5.752
64760SOL    HW196113   1.900  11.110   5.746
64760SOL    HW296114   1.806  11.181   5.841
64761SOL     OW96115   8.784   0.997  14.687
64761SOL    HW196116   8.770   0.902  14.680
64761SOL    HW296117   8.752   1.032  14.604
64762SOL     OW96118  12.722   2.552   5.506
64762SOL    HW196119  12.724   2.620   5.573
64762SOL    HW296120  12.775   2.587   5.434
64763SOL     OW96121   1.530  10.441   2.089
64763SOL    HW196122   1.603  10.497   2.063
64763SOL    HW296123   1.521  10.378   2.018
64764SOL     OW96124  13.083   4.819   0.647
64764SOL    HW196125  13.018   4.854   0.585
64764SOL    HW296126  13.112   4.895   0.696
64765SOL     OW96127   5.284   1.180  13.417
64765SOL    HW196128   5.251   1.140  13.336
64765SOL    HW296129   5.365   1.134  13.435
64766SOL     OW96130   7.791   7.911   3.379
64766SOL    HW196131   7.778   7.833   3.326
64766SOL    HW296132   7.742   7.979   3.333
64767SOL     OW96133   4.041   2.258   9.374
64767SOL    HW196134   3.975   2.328   9.380
64767SOL    HW296135   3.990   2.178   9.363
64768SOL     OW96136  14.182  14.796   5.587
64768SOL    HW196137  14.153  14.767   5.674
64768SOL    HW296138  14.275  14.815   5.598
64769SOL     OW96139   0.481   7.649   6.492
64769SOL    HW196140   0.521   7.734   6.473
64769SOL    HW296141   0.432   7.627   6.413
64770SOL     OW96142  13.468   9.670   7.353
64770SOL    HW196143  13.409   9.634   7.418
64770SOL    HW296144  13.550   9.685   7.401
64771SOL     OW96145   1.060  10.947  10.723
64771SOL    HW196146   0.974  10.952  10.765
64771SOL    HW296147   1.116  11.003  10.777
64772SOL     OW96148   8.685   0.572   3.112
64772SOL    HW196149   8.705   0.486   3.148
64772SOL    HW296150   8.589   0.574   3.106
64773SOL     OW96151   3.014  13.597   6.697
64773SOL    HW196152   2.922  13.613   6.677
64773SOL    HW296153   3.041  13.532   6.633
64774SOL     OW96154   7.350   8.043   9.326
64774SOL    HW196155   7.375   8.003   9.409
64774SOL    HW296156   7.309   7.972   9.276
64775SOL     OW96157  13.041   9.316   9.443
64775SOL    HW196158  13.107   9.339   9.378
64775SOL    HW296159  13.029   9.221   9.433
64776SOL     OW96160  12.456  10.348  14.351
64776SOL    HW196161  12.375  10.392  14.327
64776SOL    HW296162  12.488  10.309  14.270
64777SOL     OW96163  12.259   3.041   4.571
64777SOL    HW196164  12.219   2.958   4.543
64777SOL    HW296165  12.320   3.062   4.500
64778SOL     OW96166   5.896   5.677  10.454
64778SOL    HW196167   5.810   5.635  10.462
64778SOL    HW296168   5.938   5.631  10.381
64779SOL     OW96169   7.341  11.999   0.110
64779SOL    HW196170   7.258  11.993   0.064
64779SOL    HW296171   7.408  11.985   0.043
64780SOL     OW96172   9.964  14.640   9.436
64780SOL    HW196173  10.024  14.677   9.501
64780SOL    HW296174   9.903  14.587   9.486
64781SOL     OW96175  12.219   8.096  14.785
64781SOL    HW196176  12.222   8.091   0.002
64781SOL    HW296177  12.234   8.006  14.756
64782SOL     OW96178   7.107   2.851   3.584
64782SOL    HW196179   7.202   2.842   3.585
64782SOL    HW296180   7.079   2.801   3.507
64783SOL     OW96181   1.489   2.184   6.982
64783SOL    HW196182   1.397   2.202   6.960
64783SOL    HW296183   1.532   2.269   6.976
64784SOL     OW96184   2.094  13.902  13.475
64784SOL    HW196185   2.010  13.892  13.521
64784SOL    HW296186   2.076  13.872  13.386
64785SOL     OW96187   0.248   9.575  12.414
64785SOL    HW196188   0.244   9.522  12.335
64785SOL    HW296189   0.276   9.661  12.384
64786SOL     OW96190   9.812   7.271  11.052
64786SOL    HW196191   9.826   7.322  10.972
64786SOL    HW296192   9.832   7.332  11.123
64787SOL     OW96193   8.298   4.538   9.113
64787SOL    HW196194   8.285   4.534   9.018
64787SOL    HW296195   8.242   4.611   9.142
64788SOL     OW96196   9.964   3.012   1.607
64788SOL    HW196197   9.968   3.075   1.535
64788SOL    HW296198  10.049   3.021   1.651
64789SOL     OW96199   7.441   0.757  12.954
64789SOL    HW196200   7.523   0.800  12.978
64789SOL    HW296201   7.373   0.816  12.988
64790SOL     OW96202   2.389  10.756   2.230
64790SOL    HW196203   2.456  10.702   2.271
64790SOL    HW296204   2.400  10.743   2.136
64791SOL     OW96205   7.250  10.237   8.733
64791SOL    HW196206   7.335  10.279   8.742
64791SOL    HW296207   7.190  10.308   8.710
64792SOL     OW96208  11.582   2.611  11.464
64792SOL    HW196209  11.557   2.700  11.440
64792SOL    HW296210  11.508   2.577  11.514
64793SOL     OW96211   1.806  12.384   6.359
64793SOL    HW196212   1.779  12.435   6.435
64793SOL    HW296213   1.744  12.310   6.357
64794SOL     OW96214   4.919   5.037   1.069
64794SOL    HW196215   4.999   4.990   1.047
64794SOL    HW296216   4.949   5.123   1.099
64795SOL     OW96217   3.182   3.868   5.081
64795SOL    HW196218   3.262   3.826   5.113
64795SOL    HW296219   3.123   3.868   5.156
64796SOL     OW96220  12.328   3.619  10.273
64796SOL    HW196221  12.339   3.525  10.289
64796SOL    HW296222  12.390   3.660  10.333
64797SOL     OW96223  14.040  11.108   6.284
64797SOL    HW196224  13.968  11.050   6.309
64797SOL    HW296225  14.017  11.138   6.196
64798SOL     OW96226  10.196  13.674   0.204
64798SOL    HW196227  10.134  13.601   0.209
64798SOL    HW296228  10.185  13.721   0.286
64799SOL     OW96229   4.857   5.527  14.070
64799SOL    HW196230   4.872   5.618  14.094
64799SOL    HW296231   4.774   5.528  14.023
64800SOL     OW96232   0.552   9.011   0.066
64800SOL    HW196233   0.614   9.072   0.026
64800SOL    HW296234   0.535   9.047   0.153
64801SOL     OW96235   9.001  14.612  11.376
64801SOL    HW196236   8.947  14.679  11.417
64801SOL    HW296237   8.948  14.579  11.303
64802SOL     OW96238  10.617   3.817  14.081
64802SOL    HW196239  10.613   3.851  14.170
64802SOL    HW296240  10.711   3.812  14.062
64803SOL     OW96241  11.285  11.498  10.758
64803SOL    HW196242  11.343  11.574  10.768
64803SOL    HW296243  11.344  11.423  10.758
64804SOL     OW96244   2.103  11.673   4.653
64804SOL    HW196245   2.187  11.717   4.665
64804SOL    HW296246   2.060  11.722   4.583
64805SOL     OW96247   7.062  11.013   8.083
64805SOL    HW196248   7.056  10.918   8.070
64805SOL    HW296249   6.975  11.045   8.059
64806SOL     OW96250   3.281  14.274   7.388
64806SOL    HW196251   3.234  14.195   7.362
64806SOL    HW296252   3.225  14.346   7.359
64807SOL     OW96253   2.775  12.359  11.586
64807SOL    HW196254   2.731  12.295  11.642
64807SOL    HW296255   2.748  12.444  11.621
64808SOL     OW96256   6.401   2.576   4.156
64808SOL    HW196257   6.365   2.662   4.176
64808SOL    HW296258   6.456   2.590   4.078
64809SOL     OW96259   4.873   3.959   4.667
64809SOL    HW196260   4.850   3.984   4.757
64809SOL    HW296261   4.949   3.902   4.677
64810SOL     OW96262   1.991   3.419   6.175
64810SOL    HW196263   2.065   3.392   6.120
64810SOL    HW296264   2.031   3.443   6.258
64811SOL     OW96265   2.901   0.916  10.963
64811SOL    HW196266   2.861   0.995  11.000
64811SOL    HW296267   2.953   0.880  11.035
64812SOL     OW96268   3.255   2.964   1.389
64812SOL    HW196269   3.206   2.994   1.466
64812SOL    HW296270   3.328   2.914   1.425
64813SOL     OW96271   1.172   3.667   5.768
64813SOL    HW196272   1.130   3.687   5.684
64813SOL    HW296273   1.196   3.574   5.760
64814SOL     OW96274   9.573  13.060   9.041
64814SOL    HW196275   9.615  13.147   9.041
64814SOL    HW296276   9.550  13.045   8.950
64815SOL     OW96277   1.784   5.531  11.626
64815SOL    HW196278   1.834   5.609  11.603
64815SOL    HW296279   1.706   5.535  11.571
64816SOL     OW96280  11.281   5.487   4.731
64816SOL    HW196281  11.255   5.562   4.785
64816SOL    HW296282  11.199   5.449   4.700
64817SOL     OW96283   6.703  12.742   2.053
64817SOL    HW196284   6.693  12.661   2.103
64817SOL    HW296285   6.733  12.713   1.966
64818SOL     OW96286  12.946  14.658   0.449
64818SOL    HW196287  13.030  14.617   0.426
64818SOL    HW296288  12.948  14.662   0.545
64819SOL     OW96289   8.116  13.938   6.730
64819SOL    HW196290   8.145  13.966   6.643
64819SOL    HW296291   8.021  13.950   6.728
64820SOL     OW96292   7.294  14.230  11.886
64820SOL    HW196293   7.256  14.142  11.876
64820SOL    HW296294   7.226  14.280  11.932
64821SOL     OW96295   5.107   5.756   8.503
64821SOL    HW196296   5.099   5.784   8.594
64821SOL    HW296297   5.018   5.730   8.478
64822SOL     OW96298  14.009   6.186   6.752
64822SOL    HW196299  13.995   6.092   6.741
64822SOL    HW296300  13.966   6.207   6.835
64823SOL     OW96301   9.268  10.868   9.931
64823SOL    HW196302   9.262  10.959   9.902
64823SOL    HW296303   9.243  10.870  10.023
64824SOL     OW96304  12.157   0.987   9.410
64824SOL    HW196305  12.145   1.002   9.504
64824SOL    HW296306  12.111   1.061   9.369
64825SOL     OW96307  14.861   1.979   8.586
64825SOL    HW196308  14.852   2.067   8.623
64825SOL    HW296309  14.777   1.937   8.600
64826SOL     OW96310   3.709  14.539  13.450
64826SOL    HW196311   3.772  14.587  13.396
64826SOL    HW296312   3.624  14.561  13.413
64827SOL     OW96313   2.763  12.755   6.598
64827SOL    HW196314   2.731  12.835   6.640
64827SOL    HW296315   2.854  12.748   6.628
64828SOL     OW96316  14.020   5.822  11.298
64828SOL    HW196317  13.998   5.760  11.228
64828SOL    HW296318  14.107   5.796  11.327
64829SOL     OW96319  14.377  14.387  11.661
64829SOL    HW196320  14.408  14.371  11.751
64829SOL    HW296321  14.283  14.403  11.670
64830SOL     OW96322   7.304  14.151  12.472
64830SOL    HW196323   7.328  14.064  12.441
64830SOL    HW296324   7.315  14.208  12.396
64831SOL     OW96325   2.572   1.091  12.133
64831SOL    HW196326   2.628   1.047  12.069
64831SOL    HW296327   2.597   1.183  12.127
64832SOL     OW96328   5.346   0.235   9.360
64832SOL    HW196329   5.261   0.196   9.380
64832SOL    HW296330   5.378   0.186   9.284
64833SOL     OW96331   7.482   0.627  12.023
64833SOL    HW196332   7.410   0.592  12.075
64833SOL    HW296333   7.459   0.718  12.007
64834SOL     OW96334   8.332   8.968  10.750
64834SOL    HW196335   8.354   8.902  10.815
64834SOL    HW296336   8.295   8.919  10.677
64835SOL     OW96337   6.675  13.455   1.359
64835SOL    HW196338   6.723  13.413   1.430
64835SOL    HW296339   6.635  13.384   1.311
64836SOL     OW96340   2.547  12.460   6.188
64836SOL    HW196341   2.617  12.462   6.254
64836SOL    HW296342   2.472  12.501   6.231
64837SOL     OW96343   7.295  12.090  12.117
64837SOL    HW196344   7.349  12.069  12.193
64837SOL    HW296345   7.357  12.098  12.044
64838SOL     OW96346  13.592  13.051   4.940
64838SOL    HW196347  13.588  13.126   4.999
64838SOL    HW296348  13.539  12.984   4.984
64839SOL     OW96349   6.840  11.013   3.666
64839SOL    HW196350   6.892  10.989   3.589
64839SOL    HW296351   6.845  10.935   3.723
64840SOL     OW96352   5.681   4.915   9.634
64840SOL    HW196353   5.768   4.891   9.665
64840SOL    HW296354   5.678   5.011   9.640
64841SOL     OW96355   2.396  12.813   4.166
64841SOL    HW196356   2.480  12.788   4.127
64841SOL    HW296357   2.352  12.730   4.184
64842SOL     OW96358   8.604  13.261   8.167
64842SOL    HW196359   8.590  13.345   8.212
64842SOL    HW296360   8.605  13.196   8.238
64843SOL     OW96361   3.958   1.800   3.253
64843SOL    HW196362   3.992   1.807   3.342
64843SOL    HW296363   4.033   1.772   3.201
64844SOL     OW96364  12.677  13.430  14.663
64844SOL    HW196365  12.768  13.426  14.633
64844SOL    HW296366  12.674  13.372  14.739
64845SOL     OW96367  14.192   2.774   9.314
64845SOL    HW196368  14.221   2.821   9.393
64845SOL    HW296369  14.142   2.838   9.265
64846SOL     OW96370   0.111   2.257   9.253
64846SOL    HW196371   0.070   2.254   9.339
64846SOL    HW296372   0.115   2.351   9.231
64847SOL     OW96373   6.629   8.985   2.270
64847SOL    HW196374   6.549   8.961   2.223
64847SOL    HW296375   6.698   8.931   2.231
64848SOL     OW96376   1.357   9.421  14.331
64848SOL    HW196377   1.425   9.487  14.317
64848SOL    HW296378   1.276   9.471  14.339
64849SOL     OW96379   6.336   7.551   1.408
64849SOL    HW196380   6.313   7.630   1.458
64849SOL    HW296381   6.302   7.568   1.320
64850SOL     OW96382   1.422  10.504   6.370
64850SOL    HW196383   1.508  10.465   6.353
64850SOL    HW296384   1.439  10.597   6.385
64851SOL     OW96385  13.258  13.363  11.816
64851SOL    HW196386  13.277  13.344  11.724
64851SOL    HW296387  13.220  13.451  11.814
64852SOL     OW96388   0.881  11.156   3.533
64852SOL    HW196389   0.907  11.206   3.456
64852SOL    HW296390   0.850  11.073   3.497
64853SOL     OW96391   0.233   0.788  12.141
64853SOL    HW196392   0.158   0.771  12.198
64853SOL    HW296393   0.229   0.718  12.075
64854SOL     OW96394   4.940   4.389   2.486
64854SOL    HW196395   4.966   4.405   2.576
64854SOL    HW296396   4.905   4.472   2.455
64855SOL     OW96397   6.279   4.947   2.826
64855SOL    HW196398   6.205   4.888   2.814
64855SOL    HW296399   6.247   5.033   2.796
64856SOL     OW96400   7.599   5.805   9.304
64856SOL    HW196401   7.621   5.740   9.237
64856SOL    HW296402   7.619   5.761   9.387
64857SOL     OW96403   9.427  11.524   7.714
64857SOL    HW196404   9.383  11.446   7.746
64857SOL    HW296405   9.503  11.490   7.666
64858SOL     OW96406   4.571  13.153   9.437
64858SOL    HW196407   4.518  13.165   9.358
64858SOL    HW296408   4.560  13.061   9.459
64859SOL     OW96409   6.712   0.522   5.074
64859SOL    HW196410   6.655   0.527   5.151
64859SOL    HW296411   6.696   0.436   5.038
64860SOL     OW96412   2.319  11.622   1.039
64860SOL    HW196413   2.357  11.678   0.971
64860SOL    HW296414   2.343  11.533   1.013
64861SOL     OW96415  13.226  14.189   5.087
64861SOL    HW196416  13.263  14.239   5.160
64861SOL    HW296417  13.274  14.220   5.010
64862SOL     OW96418   1.854  13.088   7.440
64862SOL    HW196419   1.859  13.014   7.379
64862SOL    HW296420   1.931  13.141   7.420
64863SOL     OW96421  12.872   8.197   9.277
64863SOL    HW196422  12.934   8.258   9.318
64863SOL    HW296423  12.916   8.112   9.282
64864SOL     OW96424  14.813   4.021   9.741
64864SOL    HW196425   0.025   4.043   9.720
64864SOL    HW296426  14.793   3.946   9.685
64865SOL     OW96427   0.763  13.203  14.158
64865SOL    HW196428   0.832  13.234  14.217
64865SOL    HW296429   0.777  13.250  14.077
64866SOL     OW96430  12.087   3.038  11.680
64866SOL    HW196431  12.169   2.989  11.678
64866SOL    HW296432  12.047   3.015  11.763
64867SOL     OW96433   2.313   2.406   2.680
64867SOL    HW196434   2.311   2.345   2.754
64867SOL    HW296435   2.325   2.492   2.720
64868SOL     OW96436  12.341   7.321  13.611
64868SOL    HW196437  12.294   7.347  13.532
64868SOL    HW296438  12.420   7.278  13.579
64869SOL     OW96439  11.754   8.737   8.411
64869SOL    HW196440  11.769   8.668   8.476
64869SOL    HW296441  11.784   8.817   8.454
64870SOL     OW96442   5.731   4.755   7.494
64870SOL    HW196443   5.803   4.693   7.503
64870SOL    HW296444   5.733   4.806   7.575
64871SOL     OW96445   2.736   7.268   6.956
64871SOL    HW196446   2.724   7.186   7.005
64871SOL    HW296447   2.652   7.313   6.965
64872SOL     OW96448  11.408   8.974  12.816
64872SOL    HW196449  11.351   9.049  12.836
64872SOL    HW296450  11.483   8.984  12.875
64873SOL     OW96451  14.619   3.800   9.003
64873SOL    HW196452  14.573   3.862   9.059
64873SOL    HW296453  14.621   3.843   8.917
64874SOL     OW96454   2.758  13.082  11.170
64874SOL    HW196455   2.733  13.049  11.256
64874SOL    HW296456   2.775  13.175  11.184
64875SOL     OW96457  11.389  10.500   3.805
64875SOL    HW196458  11.367  10.593   3.797
64875SOL    HW296459  11.422  10.490   3.894
64876SOL     OW96460  13.712   5.770   6.462
64876SOL    HW196461  13.637   5.828   6.473
64876SOL    HW296462  13.675   5.691   6.422
64877SOL     OW96463  10.092   1.616   8.202
64877SOL    HW196464  10.114   1.534   8.247
64877SOL    HW296465  10.045   1.589   8.123
64878SOL     OW96466   2.914  10.091   4.441
64878SOL    HW196467   2.855  10.093   4.516
64878SOL    HW296468   2.998  10.120   4.476
64879SOL     OW96469   1.965   2.579   7.324
64879SOL    HW196470   1.972   2.607   7.233
64879SOL    HW296471   2.041   2.619   7.367
64880SOL     OW96472  13.184   3.626  12.801
64880SOL    HW196473  13.093   3.598  12.809
64880SOL    HW296474  13.234   3.545  12.801
64881SOL     OW96475   0.092   0.837   2.013
64881SOL    HW196476   0.007   0.879   2.026
64881SOL    HW296477   0.154   0.910   2.005
64882SOL     OW96478  12.031   7.642   7.051
64882SOL    HW196479  12.040   7.610   6.962
64882SOL    HW296480  11.939   7.626   7.073
64883SOL     OW96481   9.441   8.523   5.464
64883SOL    HW196482   9.410   8.505   5.375
64883SOL    HW296483   9.493   8.604   5.456
64884SOL     OW96484   6.734   1.751  11.047
64884SOL    HW196485   6.761   1.745  10.956
64884SOL    HW296486   6.783   1.682  11.091
64885SOL     OW96487  10.905   3.667  12.414
64885SOL    HW196488  10.939   3.715  12.489
64885SOL    HW296489  10.858   3.733  12.363
64886SOL     OW96490   9.579   7.807  12.151
64886SOL    HW196491   9.600   7.867  12.222
64886SOL    HW296492   9.542   7.862  12.083
64887SOL     OW96493  12.408  10.622   5.005
64887SOL    HW196494  12.481  10.586   4.955
64887SOL    HW296495  12.445  10.695   5.054
64888SOL     OW96496   5.992   8.998  13.120
64888SOL    HW196497   5.948   8.922  13.081
64888SOL    HW296498   6.084   8.972  13.126
64889SOL     OW96499  14.144   6.685   9.316
64889SOL    HW196500  14.093   6.636   9.252
64889SOL    HW296501  14.223   6.712   9.268
64890SOL     OW96502   3.944   7.254   6.116
64890SOL    HW196503   3.992   7.228   6.195
64890SOL    HW296504   4.006   7.239   6.045
64891SOL     OW96505  11.473  14.480   5.964
64891SOL    HW196506  11.551  14.425   5.958
64891SOL    HW296507  11.413  14.430   6.020
64892SOL     OW96508   0.368  14.621  11.508
64892SOL    HW196509   0.402  14.556  11.569
64892SOL    HW296510   0.376  14.580  11.422
64893SOL     OW96511  10.475   1.056   3.931
64893SOL    HW196512  10.555   1.081   3.885
64893SOL    HW296513  10.486   1.090   4.019
64894SOL     OW96514  11.734  13.040   4.844
64894SOL    HW196515  11.743  12.955   4.887
64894SOL    HW296516  11.824  13.072   4.836
64895SOL     OW96517   8.597   4.181  10.136
64895SOL    HW196518   8.561   4.247  10.076
64895SOL    HW296519   8.538   4.182  10.211
64896SOL     OW96520   3.538   5.602  12.390
64896SOL    HW196521   3.474   5.671  12.409
64896SOL    HW296522   3.618   5.648  12.367
64897SOL     OW96523   0.656  11.911   4.376
64897SOL    HW196524   0.710  11.833   4.363
64897SOL    HW296525   0.598  11.889   4.449
64898SOL     OW96526   1.753   2.668   1.335
64898SOL    HW196527   1.735   2.594   1.393
64898SOL    HW296528   1.683   2.664   1.269
64899SOL     OW96529  13.944   1.616   6.394
64899SOL    HW196530  13.981   1.662   6.469
64899SOL    HW296531  13.864   1.575   6.428
64900SOL     OW96532   8.577   7.984   4.756
64900SOL    HW196533   8.592   7.890   4.770
64900SOL    HW296534   8.664   8.021   4.748
64901SOL     OW96535   7.331   6.785   0.899
64901SOL    HW196536   7.271   6.716   0.928
64901SOL    HW296537   7.412   6.768   0.948
64902SOL     OW96538   8.258   9.277   1.191
64902SOL    HW196539   8.251   9.262   1.285
64902SOL    HW296540   8.205   9.355   1.175
64903SOL     OW96541   6.399   0.799   5.127
64903SOL    HW196542   6.386   0.892   5.110
64903SOL    HW296543   6.406   0.760   5.040
64904SOL     OW96544   0.491  14.718   7.992
64904SOL    HW196545   0.448  14.799   7.965
64904SOL    HW296546   0.486  14.718   8.088
64905SOL     OW96547   2.699   7.774  12.968
64905SOL    HW196548   2.667   7.813  12.887
64905SOL    HW296549   2.770   7.716  12.940
64906SOL     OW96550   0.892   5.091  11.191
64906SOL    HW196551   0.884   5.095  11.096
64906SOL    HW296552   0.935   5.007  11.208
64907SOL     OW96553   2.213   7.058   6.830
64907SOL    HW196554   2.260   7.134   6.797
64907SOL    HW296555   2.134   7.095   6.870
64908SOL     OW96556   4.804  13.749   3.659
64908SOL    HW196557   4.883  13.721   3.614
64908SOL    HW296558   4.738  13.756   3.591
64909SOL     OW96559   4.111   0.826   2.192
64909SOL    HW196560   4.198   0.803   2.159
64909SOL    HW296561   4.112   0.797   2.284
64910SOL     OW96562  13.926   8.957   8.206
64910SOL    HW196563  13.909   8.865   8.185
64910SOL    HW296564  13.841   9.000   8.196
64911SOL     OW96565   1.819   3.205   5.448
64911SOL    HW196566   1.751   3.175   5.508
64911SOL    HW296567   1.868   3.270   5.497
64912SOL     OW96568  14.061   8.160   2.510
64912SOL    HW196569  14.113   8.204   2.578
64912SOL    HW296570  14.087   8.068   2.516
64913SOL     OW96571   2.925  13.999   1.941
64913SOL    HW196572   2.829  13.992   1.938
64913SOL    HW296573   2.944  14.026   2.031
64914SOL     OW96574   0.908   6.097  10.326
64914SOL    HW196575   0.831   6.147  10.298
64914SOL    HW296576   0.959   6.086  10.246
64915SOL     OW96577   7.377  13.932  12.331
64915SOL    HW196578   7.321  13.856  12.349
64915SOL    HW296579   7.460  13.911  12.374
64916SOL     OW96580   5.648   4.849   3.916
64916SOL    HW196581   5.556   4.831   3.898
64916SOL    HW296582   5.669   4.923   3.859
64917SOL     OW96583  13.957   4.167  11.211
64917SOL    HW196584  13.992   4.189  11.298
64917SOL    HW296585  13.863   4.186  11.217
64918SOL     OW96586   8.324   5.166   8.579
64918SOL    HW196587   8.283   5.150   8.664
64918SOL    HW296588   8.267   5.122   8.516
64919SOL     OW96589  13.393   8.447   3.467
64919SOL    HW196590  13.416   8.391   3.393
64919SOL    HW296591  13.447   8.414   3.539
64920SOL     OW96592   0.271  10.725   1.746
64920SOL    HW196593   0.246  10.668   1.673
64920SOL    HW296594   0.309  10.666   1.811
64921SOL     OW96595   9.982  10.571  12.598
64921SOL    HW196596  10.047  10.550  12.531
64921SOL    HW296597  10.019  10.646  12.645
64922SOL     OW96598  10.683  14.253  11.392
64922SOL    HW196599  10.667  14.167  11.352
64922SOL    HW296600  10.681  14.314  11.318
64923SOL     OW96601   2.741   2.647   9.817
64923SOL    HW196602   2.748   2.553   9.806
64923SOL    HW296603   2.813   2.684   9.766
64924SOL     OW96604  14.744  12.799  14.104
64924SOL    HW196605  14.671  12.830  14.158
64924SOL    HW296606  14.715  12.716  14.068
64925SOL     OW96607   3.432  12.239   6.790
64925SOL    HW196608   3.398  12.149   6.789
64925SOL    HW296609   3.488  12.244   6.713
64926SOL     OW96610  10.551   0.542  13.710
64926SOL    HW196611  10.459   0.568  13.702
64926SOL    HW296612  10.555   0.496  13.794
64927SOL     OW96613   5.639   1.160   4.913
64927SOL    HW196614   5.594   1.087   4.954
64927SOL    HW296615   5.614   1.156   4.821
64928SOL     OW96616   8.246  11.513   5.385
64928SOL    HW196617   8.238  11.519   5.480
64928SOL    HW296618   8.169  11.463   5.357
64929SOL     OW96619   4.130  10.915  11.278
64929SOL    HW196620   4.203  10.944  11.223
64929SOL    HW296621   4.060  10.897  11.216
64930SOL     OW96622   5.855   3.751  13.144
64930SOL    HW196623   5.869   3.815  13.074
64930SOL    HW296624   5.925   3.688  13.133
64931SOL     OW96625   5.035  10.299   7.488
64931SOL    HW196626   5.039  10.374   7.547
64931SOL    HW296627   5.095  10.235   7.527
64932SOL     OW96628  13.254  12.707   4.828
64932SOL    HW196629  13.341  12.679   4.859
64932SOL    HW296630  13.213  12.626   4.799
64933SOL     OW96631  14.318  12.587  11.480
64933SOL    HW196632  14.334  12.514  11.421
64933SOL    HW296633  14.363  12.662  11.441
64934SOL     OW96634   4.769  14.204   9.059
64934SOL    HW196635   4.823  14.238   8.988
64934SOL    HW296636   4.694  14.164   9.015
64935SOL     OW96637   4.261   4.301   2.551
64935SOL    HW196638   4.292   4.391   2.557
64935SOL    HW296639   4.197   4.302   2.479
64936SOL     OW96640  10.648  11.985  10.695
64936SOL    HW196641  10.741  11.982  10.672
64936SOL    HW296642  10.604  11.939  10.624
64937SOL     OW96643   6.557   3.723  12.573
64937SOL    HW196644   6.571   3.636  12.534
64937SOL    HW296645   6.546   3.705  12.666
64938SOL     OW96646   2.687  14.222  14.748
64938SOL    HW196647   2.697  14.231  14.653
64938SOL    HW296648   2.659  14.131  14.760
64939SOL     OW96649   8.254   4.778   9.716
64939SOL    HW196650   8.215   4.738   9.639
64939SOL    HW296651   8.229   4.870   9.710
64940SOL     OW96652   6.174   0.192   4.897
64940SOL    HW196653   6.143   0.124   4.837
64940SOL    HW296654   6.113   0.265   4.885
64941SOL     OW96655  13.535  12.579  14.585
64941SOL    HW196656  13.542  12.507  14.522
64941SOL    HW296657  13.564  12.540  14.668
64942SOL     OW96658   0.435  13.395   9.222
64942SOL    HW196659   0.489  13.470   9.244
64942SOL    HW296660   0.429  13.345   9.304
64943SOL     OW96661   2.351   1.398   9.964
64943SOL    HW196662   2.376   1.312   9.998
64943SOL    HW296663   2.256   1.394   9.955
64944SOL     OW96664   1.552   2.749   3.207
64944SOL    HW196665   1.521   2.698   3.281
64944SOL    HW296666   1.594   2.685   3.150
64945SOL     OW96667  13.923   5.159   9.720
64945SOL    HW196668  14.007   5.192   9.750
64945SOL    HW296669  13.926   5.169   9.625
64946SOL     OW96670   1.743  10.485   8.313
64946SOL    HW196671   1.695  10.412   8.274
64946SOL    HW296672   1.822  10.445   8.349
64947SOL     OW96673   2.636   1.150   8.387
64947SOL    HW196674   2.703   1.156   8.455
64947SOL    HW296675   2.557   1.185   8.428
64948SOL     OW96676   3.477  11.857   7.778
64948SOL    HW196677   3.429  11.911   7.840
64948SOL    HW296678   3.526  11.920   7.724
64949SOL     OW96679   3.996   5.054  12.587
64949SOL    HW196680   3.974   4.964  12.609
64949SOL    HW296681   3.915   5.090  12.551
64950SOL     OW96682  10.055  10.828  11.699
64950SOL    HW196683  10.041  10.758  11.762
64950SOL    HW296684  10.024  10.907  11.743
64951SOL     OW96685   0.550   4.618   5.578
64951SOL    HW196686   0.522   4.709   5.579
64951SOL    HW296687   0.497   4.577   5.509
64952SOL     OW96688   5.589  13.681   9.743
64952SOL    HW196689   5.605  13.773   9.723
64952SOL    HW296690   5.511  13.682   9.799
64953SOL     OW96691   0.154   1.680   7.868
64953SOL    HW196692   0.179   1.754   7.924
64953SOL    HW296693   0.223   1.675   7.802
64954SOL     OW96694  14.730   7.164   3.369
64954SOL    HW196695  14.737   7.086   3.424
64954SOL    HW296696  14.636   7.179   3.359
64955SOL     OW96697   5.435   6.178   0.622
64955SOL    HW196698   5.501   6.125   0.577
64955SOL    HW296699   5.486   6.249   0.662
64956SOL     OW96700   1.782   7.914  12.685
64956SOL    HW196701   1.787   8.007  12.663
64956SOL    HW296702   1.688   7.894  12.685
64957SOL     OW96703   9.131  13.526   1.050
64957SOL    HW196704   9.154  13.438   1.081
64957SOL    HW296705   9.105  13.573   1.129
64958SOL     OW96706  11.473   4.868   1.818
64958SOL    HW196707  11.453   4.792   1.872
64958SOL    HW296708  11.397   4.877   1.760
64959SOL     OW96709   0.631  13.458   4.307
64959SOL    HW196710   0.577  13.483   4.382
64959SOL    HW296711   0.699  13.402   4.345
64960SOL     OW96712   1.078   9.490  12.899
64960SOL    HW196713   1.062   9.421  12.834
64960SOL    HW296714   1.125   9.558  12.851
64961SOL     OW96715  13.202  10.324  12.744
64961SOL    HW196716  13.244  10.309  12.829
64961SOL    HW296717  13.136  10.254  12.737
64962SOL     OW96718  12.185   2.424   4.546
64962SOL    HW196719  12.151   2.443   4.634
64962SOL    HW296720  12.159   2.333   4.531
64963SOL     OW96721  12.383  13.903   9.601
64963SOL    HW196722  12.365  13.933   9.512
64963SOL    HW296723  12.300  13.864   9.631
64964SOL     OW96724   8.864   5.262   3.349
64964SOL    HW196725   8.831   5.276   3.261
64964SOL    HW296726   8.794   5.214   3.394
64965SOL     OW96727   3.856  10.748  10.729
64965SOL    HW196728   3.813  10.664  10.747
64965SOL    HW296729   3.789  10.800  10.685
64966SOL     OW96730   3.381  14.512  11.159
64966SOL    HW196731   3.475  14.494  11.158
64966SOL    HW296732   3.356  14.516  11.066
64967SOL     OW96733  14.604  12.311   0.331
64967SOL    HW196734  14.620  12.262   0.412
64967SOL    HW296735  14.677  12.373   0.326
64968SOL     OW96736   3.825   0.680  11.703
64968SOL    HW196737   3.907   0.688  11.752
64968SOL    HW296738   3.853   0.685  11.611
64969SOL     OW96739  14.867   0.406  11.437
64969SOL    HW196740   0.063   0.401  11.497
64969SOL    HW296741   0.007   0.482  11.382
64970SOL     OW96742  12.821  14.145   6.270
64970SOL    HW196743  12.900  14.136   6.324
64970SOL    HW296744  12.768  14.068   6.292
64971SOL     OW96745  12.749   7.587  10.748
64971SOL    HW196746  12.748   7.682  10.760
64971SOL    HW296747  12.678   7.556  10.804
64972SOL     OW96748   8.515  13.405  11.202
64972SOL    HW196749   8.600  13.416  11.159
64972SOL    HW296750   8.482  13.321  11.170
64973SOL     OW96751   1.689   3.226  12.922
64973SOL    HW196752   1.714   3.172  12.848
64973SOL    HW296753   1.648   3.166  12.984
64974SOL     OW96754   2.236   9.693   7.063
64974SOL    HW196755   2.331   9.681   7.065
64974SOL    HW296756   2.218   9.726   6.975
64975SOL     OW96757   4.354   3.941   4.173
64975SOL    HW196758   4.381   3.903   4.257
64975SOL    HW296759   4.350   3.866   4.114
64976SOL     OW96760   0.460  11.271   4.630
64976SOL    HW196761   0.425  11.182   4.631
64976SOL    HW296762   0.498  11.281   4.543
64977SOL     OW96763  11.151   1.592   7.678
64977SOL    HW196764  11.160   1.537   7.600
64977SOL    HW296765  11.239   1.591   7.717
64978SOL     OW96766  14.431   8.555   1.262
64978SOL    HW196767  14.416   8.615   1.189
64978SOL    HW296768  14.395   8.472   1.233
64979SOL     OW96769   8.941   9.665   3.447
64979SOL    HW196770   8.991   9.677   3.528
64979SOL    HW296771   8.855   9.702   3.467
64980SOL     OW96772   1.802  11.327  13.871
64980SOL    HW196773   1.794  11.255  13.933
64980SOL    HW296774   1.737  11.391  13.900
64981SOL     OW96775   5.555   6.402   0.808
64981SOL    HW196776   5.645   6.432   0.813
64981SOL    HW296777   5.527   6.391   0.899
64982SOL     OW96778  13.252   0.470   0.286
64982SOL    HW196779  13.337   0.497   0.320
64982SOL    HW296780  13.215   0.550   0.248
64983SOL     OW96781   7.425  11.473   0.087
64983SOL    HW196782   7.335  11.445   0.101
64983SOL    HW296783   7.466  11.399   0.041
64984SOL     OW96784   1.573   9.543   0.367
64984SOL    HW196785   1.485   9.577   0.348
64984SOL    HW296786   1.577   9.538   0.463
64985SOL     OW96787   5.071   7.215  14.757
64985SOL    HW196788   5.016   7.136  14.750
64985SOL    HW296789   5.008   7.287  14.763
64986SOL     OW96790   2.148  12.307  11.431
64986SOL    HW196791   2.118  12.217  11.441
64986SOL    HW296792   2.226  12.301  11.376
64987SOL     OW96793   5.159   1.782  11.444
64987SOL    HW196794   5.172   1.876  11.452
64987SOL    HW296795   5.171   1.749  11.534
64988SOL     OW96796  13.081   6.261   4.011
64988SOL    HW196797  13.072   6.179   3.964
64988SOL    HW296798  13.150   6.308   3.963
64989SOL     OW96799   4.402  11.363   3.222
64989SOL    HW196800   4.432  11.301   3.156
64989SOL    HW296801   4.350  11.310   3.282
64990SOL     OW96802   7.526   0.645   2.569
64990SOL    HW196803   7.477   0.727   2.563
64990SOL    HW296804   7.591   0.651   2.498
64991SOL     OW96805   1.018   1.383   7.641
64991SOL    HW196806   1.058   1.449   7.584
64991SOL    HW296807   1.007   1.306   7.585
64992SOL     OW96808   3.414   5.874   7.134
64992SOL    HW196809   3.431   5.909   7.221
64992SOL    HW296810   3.500   5.873   7.091
64993SOL     OW96811   1.583   7.723   6.963
64993SOL    HW196812   1.612   7.749   7.051
64993SOL    HW296813   1.594   7.803   6.911
64994SOL     OW96814   9.936   5.543  13.145
64994SOL    HW196815   9.936   5.552  13.050
64994SOL    HW296816   9.985   5.462  13.162
64995SOL     OW96817  14.496   5.490   0.956
64995SOL    HW196818  14.438   5.510   1.030
64995SOL    HW296819  14.565   5.436   0.994
64996SOL     OW96820  11.180  14.782  11.274
64996SOL    HW196821  11.183  14.718  11.346
64996SOL    HW296822  11.263  14.769  11.228
64997SOL     OW96823   1.405   2.915   3.488
64997SOL    HW196824   1.319   2.953   3.472
64997SOL    HW296825   1.391   2.821   3.483
64998SOL     OW96826   5.153   7.611   3.118
64998SOL    HW196827   5.122   7.663   3.192
64998SOL    HW296828   5.115   7.524   3.133
64999SOL     OW96829  14.050   8.087   3.494
64999SOL    HW196830  14.014   8.075   3.582
64999SOL    HW296831  14.031   8.005   3.449
65000SOL     OW96832   0.933   6.677   5.675
65000SOL    HW196833   0.927   6.761   5.720
65000SOL    HW296834   0.947   6.613   5.745
65001SOL     OW96835  11.161   4.472   5.437
65001SOL    HW196836  11.103   4.490   5.511
65001SOL    HW296837  11.125   4.393   5.397
65002SOL     OW96838  13.946   5.817   7.153
65002SOL    HW196839  14.006   5.743   7.146
65002SOL    HW296840  13.923   5.838   7.063
65003SOL     OW96841   0.002  12.170   5.246
65003SOL    HW196842  14.831  12.192   5.324
65003SOL    HW296843   0.019  12.254   5.203
65004SOL     OW96844   4.563   3.520  11.781
65004SOL    HW196845   4.475   3.557  11.789
65004SOL    HW296846   4.587   3.496  11.870
65005SOL     OW96847  14.841   6.764  12.331
65005SOL    HW196848  14.769   6.808  12.287
65005SOL    HW296849  14.800   6.710  12.398
65006SOL     OW96850  14.649   3.103  10.481
65006SOL    HW196851  14.711   3.066  10.417
65006SOL    HW296852  14.643   3.036  10.548
65007SOL     OW96853   2.301   5.903   6.280
65007SOL    HW196854   2.392   5.879   6.259
65007SOL    HW296855   2.285   5.980   6.225
65008SOL     OW96856   2.759  10.284  12.046
65008SOL    HW196857   2.809  10.204  12.062
65008SOL    HW296858   2.826  10.348  12.019
65009SOL     OW96859   7.772   2.465   4.964
65009SOL    HW196860   7.866   2.467   4.981
65009SOL    HW296861   7.742   2.383   5.002
65010SOL     OW96862   7.668   0.632   9.063
65010SOL    HW196863   7.731   0.576   9.108
65010SOL    HW296864   7.721   0.681   8.999
65011SOL     OW96865   8.957   4.184  12.473
65011SOL    HW196866   8.965   4.273  12.439
65011SOL    HW296867   8.866   4.179  12.503
65012SOL     OW96868   4.526  13.103   2.314
65012SOL    HW196869   4.586  13.177   2.304
65012SOL    HW296870   4.454  13.137   2.366
65013SOL     OW96871   7.344   2.596  12.537
65013SOL    HW196872   7.344   2.501  12.552
65013SOL    HW296873   7.369   2.634  12.621
65014SOL     OW96874  13.521   8.866   5.500
65014SOL    HW196875  13.446   8.924   5.488
65014SOL    HW296876  13.594   8.925   5.521
65015SOL     OW96877   5.930   9.735  11.301
65015SOL    HW196878   6.010   9.759  11.254
65015SOL    HW296879   5.899   9.817  11.339
65016SOL     OW96880   0.124   8.631   0.983
65016SOL    HW196881   0.196   8.617   1.044
65016SOL    HW296882   0.166   8.665   0.903
65017SOL     OW96883  12.548   4.182  11.704
65017SOL    HW196884  12.498   4.242  11.759
65017SOL    HW296885  12.631   4.170  11.750
65018SOL     OW96886  11.416   3.062   6.083
65018SOL    HW196887  11.412   3.080   5.989
65018SOL    HW296888  11.452   3.143   6.121
65019SOL     OW96889  11.381   7.360  12.480
65019SOL    HW196890  11.463   7.408  12.486
65019SOL    HW296891  11.318   7.425  12.448
65020SOL     OW96892   3.278   1.990  14.460
65020SOL    HW196893   3.294   1.969  14.552
65020SOL    HW296894   3.229   1.916  14.427
65021SOL     OW96895   7.423  11.457  10.667
65021SOL    HW196896   7.441  11.429  10.757
65021SOL    HW296897   7.391  11.378  10.623
65022SOL     OW96898   2.035   6.310   9.486
65022SOL    HW196899   1.945   6.277   9.494
65022SOL    HW296900   2.042   6.335   9.394
65023SOL     OW96901   8.529  12.128  14.787
65023SOL    HW196902   8.599  12.064  14.774
65023SOL    HW296903   8.572  12.203  14.826
65024SOL     OW96904   0.143  10.218  13.187
65024SOL    HW196905   0.122  10.214  13.280
65024SOL    HW296906   0.235  10.192  13.182
65025SOL     OW96907   2.078   6.418   4.567
65025SOL    HW196908   2.043   6.338   4.607
65025SOL    HW296909   2.056   6.487   4.629
65026SOL     OW96910  14.732  13.844   8.378
65026SOL    HW196911  14.752  13.775   8.440
65026SOL    HW296912  14.668  13.900   8.422
65027SOL     OW96913   3.778  14.642  13.020
65027SOL    HW196914   3.830  14.566  12.996
65027SOL    HW296915   3.814  14.671  13.104
65028SOL     OW96916  10.606  13.860  14.137
65028SOL    HW196917  10.552  13.854  14.216
65028SOL    HW296918  10.563  13.801  14.075
65029SOL     OW96919  13.673   2.552   3.583
65029SOL    HW196920  13.616   2.479   3.559
65029SOL    HW296921  13.726   2.519   3.655
65030SOL     OW96922   9.082   1.355  12.709
65030SOL    HW196923   9.073   1.260  12.717
65030SOL    HW296924   9.144   1.379  12.778
65031SOL     OW96925   6.907  13.584   3.648
65031SOL    HW196926   6.994  13.555   3.621
65031SOL    HW296927   6.847  13.542   3.585
65032SOL     OW96928   4.836   2.598  10.187
65032SOL    HW196929   4.866   2.615  10.276
65032SOL    HW296930   4.873   2.669  10.135
65033SOL     OW96931   8.382   0.614   9.613
65033SOL    HW196932   8.474   0.596   9.594
65033SOL    HW296933   8.369   0.704   9.583
65034SOL     OW96934  12.472  11.025   5.166
65034SOL    HW196935  12.490  11.096   5.228
65034SOL    HW296936  12.377  11.030   5.151
65035SOL     OW96937  10.173   7.176   5.135
65035SOL    HW196938  10.152   7.148   5.046
65035SOL    HW296939  10.111   7.246   5.153
65036SOL     OW96940   9.184   7.923  11.847
65036SOL    HW196941   9.170   7.954  11.758
65036SOL    HW296942   9.114   7.964  11.898
65037SOL     OW96943   8.989   5.575   0.357
65037SOL    HW196944   9.043   5.623   0.420
65037SOL    HW296945   8.926   5.527   0.411
65038SOL     OW96946   0.353   1.579  10.881
65038SOL    HW196947   0.366   1.490  10.914
65038SOL    HW296948   0.298   1.621  10.947
65039SOL     OW96949   5.771  10.858   8.944
65039SOL    HW196950   5.698  10.840   9.003
65039SOL    HW296951   5.737  10.837   8.857
65040SOL     OW96952  10.097   1.424  11.717
65040SOL    HW196953  10.052   1.396  11.636
65040SOL    HW296954  10.117   1.342  11.762
65041SOL     OW96955   8.943   2.671   5.661
65041SOL    HW196956   8.885   2.600   5.634
65041SOL    HW296957   9.025   2.653   5.617
65042SOL     OW96958   4.011   8.155   1.711
65042SOL    HW196959   3.922   8.181   1.689
65042SOL    HW296960   4.054   8.144   1.626
65043SOL     OW96961  14.166   1.833   3.551
65043SOL    HW196962  14.164   1.872   3.463
65043SOL    HW296963  14.171   1.908   3.610
65044SOL     OW96964  14.594   4.983   6.672
65044SOL    HW196965  14.513   5.023   6.642
65044SOL    HW296966  14.659   5.053   6.668
65045SOL     OW96967   0.358  10.163   6.753
65045SOL    HW196968   0.398  10.245   6.781
65045SOL    HW296969   0.368  10.163   6.658
65046SOL     OW96970   4.513   8.152   5.519
65046SOL    HW196971   4.437   8.205   5.495
65046SOL    HW296972   4.556   8.132   5.436
65047SOL     OW96973   2.182  12.569  12.957
65047SOL    HW196974   2.261  12.543  12.910
65047SOL    HW296975   2.120  12.498  12.943
65048SOL     OW96976   1.718  13.430   1.221
65048SOL    HW196977   1.693  13.428   1.128
65048SOL    HW296978   1.715  13.338   1.248
65049SOL     OW96979   8.402  11.168   6.081
65049SOL    HW196980   8.347  11.132   6.151
65049SOL    HW296981   8.459  11.095   6.056
65050SOL     OW96982   4.493   5.969   7.997
65050SOL    HW196983   4.546   5.928   8.065
65050SOL    HW296984   4.428   6.021   8.044
65051SOL     OW96985   9.874   0.606  14.174
65051SOL    HW196986   9.911   0.520  14.155
65051SOL    HW296987   9.917   0.665  14.112
65052SOL     OW96988   9.183  11.616   9.403
65052SOL    HW196989   9.170  11.547   9.338
65052SOL    HW296990   9.231  11.684   9.356
65053SOL     OW96991   8.784  14.822  14.192
65053SOL    HW196992   8.779  14.734  14.229
65053SOL    HW296993   8.761   0.001  14.264
65054SOL     OW96994  10.133   5.631   2.147
65054SOL    HW196995  10.195   5.663   2.213
65054SOL    HW296996  10.108   5.709   2.098
65055SOL     OW96997   9.118   1.056   5.827
65055SOL    HW196998   9.147   1.005   5.903
65055SOL    HW296999   9.188   1.120   5.813
65056SOL     OW97000   7.534   6.934  13.564
65056SOL    HW197001   7.624   6.903  13.559
65056SOL    HW297002   7.532   7.011  13.507
65057SOL     OW97003   7.666   9.528   7.148
65057SOL    HW197004   7.702   9.617   7.139
65057SOL    HW297005   7.572   9.541   7.158
65058SOL     OW97006   4.348  12.008  14.592
65058SOL    HW197007   4.321  12.093  14.558
65058SOL    HW297008   4.432  12.024  14.635
65059SOL     OW97009   5.144  13.045  11.809
65059SOL    HW197010   5.129  13.131  11.849
65059SOL    HW297011   5.220  13.059  11.752
65060SOL     OW97012   8.701  11.893   6.619
65060SOL    HW197013   8.780  11.932   6.582
65060SOL    HW297014   8.733  11.820   6.672
65061SOL     OW97015   8.428  14.672   0.183
65061SOL    HW197016   8.438  14.581   0.156
65061SOL    HW297017   8.410  14.719   0.102
65062SOL     OW97018  14.319  11.873   0.594
65062SOL    HW197019  14.349  11.813   0.663
65062SOL    HW297020  14.265  11.937   0.639
65063SOL     OW97021   0.569   8.930   9.868
65063SOL    HW197022   0.618   8.943   9.787
65063SOL    HW297023   0.483   8.969   9.851
65064SOL     OW97024  14.604  10.446   6.178
65064SOL    HW197025  14.518  10.432   6.219
65064SOL    HW297026  14.646  10.511   6.233
65065SOL     OW97027  13.724   5.958  10.542
65065SOL    HW197028  13.640   5.949  10.496
65065SOL    HW297029  13.759   6.042  10.512
65066SOL     OW97030   1.691  11.458   2.952
65066SOL    HW197031   1.606  11.487   2.917
65066SOL    HW297032   1.712  11.521   3.020
65067SOL     OW97033   6.933  10.696  12.616
65067SOL    HW197034   7.021  10.733  12.626
65067SOL    HW297035   6.875  10.770  12.630
65068SOL     OW97036  10.192   9.737   5.255
65068SOL    HW197037  10.188   9.832   5.269
65068SOL    HW297038  10.280   9.722   5.219
65069SOL     OW97039   0.038   0.879   4.643
65069SOL    HW197040   0.024   0.903   4.552
65069SOL    HW297041  14.829   0.872   4.680
65070SOL     OW97042   1.607  11.741   6.680
65070SOL    HW197043   1.660  11.728   6.758
65070SOL    HW297044   1.535  11.798   6.708
65071SOL     OW97045   8.838  13.598  10.649
65071SOL    HW197046   8.746  13.579  10.630
65071SOL    HW297047   8.866  13.655  10.578
65072SOL     OW97048   3.005   8.198   8.250
65072SOL    HW197049   2.963   8.267   8.199
65072SOL    HW297050   3.081   8.241   8.291
65073SOL     OW97051   1.338   4.137   6.392
65073SOL    HW197052   1.249   4.129   6.358
65073SOL    HW297053   1.327   4.182   6.476
65074SOL     OW97054  13.651   3.505   5.004
65074SOL    HW197055  13.707   3.575   5.039
65074SOL    HW297056  13.693   3.424   5.034
65075SOL     OW97057   7.112   0.721   6.785
65075SOL    HW197058   7.065   0.712   6.702
65075SOL    HW297059   7.205   0.717   6.761
65076SOL     OW97060  11.480  14.745   5.139
65076SOL    HW197061  11.522  14.699   5.066
65076SOL    HW297062  11.390  14.710   5.141
65077SOL     OW97063  14.544   4.747   8.031
65077SOL    HW197064  14.551   4.836   7.996
65077SOL    HW297065  14.632   4.727   8.063
65078SOL     OW97066   8.152   4.081   1.525
65078SOL    HW197067   8.141   4.163   1.573
65078SOL    HW297068   8.218   4.033   1.575
65079SOL     OW97069   8.434   8.156   9.668
65079SOL    HW197070   8.373   8.125   9.601
65079SOL    HW297071   8.396   8.127   9.751
65080SOL     OW97072  12.293   9.198   4.263
65080SOL    HW197073  12.339   9.153   4.334
65080SOL    HW297074  12.298   9.139   4.188
65081SOL     OW97075   8.471   5.675  12.010
65081SOL    HW197076   8.538   5.722  12.060
65081SOL    HW297077   8.512   5.660  11.925
65082SOL     OW97078   7.489   6.382   8.628
65082SOL    HW197079   7.451   6.314   8.571
65082SOL    HW297080   7.413   6.427   8.665
65083SOL     OW97081   3.033   8.345   1.602
65083SOL    HW197082   3.100   8.346   1.533
65083SOL    HW297083   3.058   8.418   1.659
65084SOL     OW97084   9.143  11.164   5.053
65084SOL    HW197085   9.234  11.138   5.064
65084SOL    HW297086   9.126  11.155   4.959
65085SOL     OW97087  11.754   6.924   6.242
65085SOL    HW197088  11.708   6.949   6.322
65085SOL    HW297089  11.744   6.999   6.184
65086SOL     OW97090   8.584   2.117  13.566
65086SOL    HW197091   8.561   2.024  13.568
65086SOL    HW297092   8.576   2.146  13.656
65087SOL     OW97093   5.902   2.611   7.348
65087SOL    HW197094   5.931   2.520   7.346
65087SOL    HW297095   5.983   2.661   7.362
65088SOL     OW97096   5.920   0.023   4.869
65088SOL    HW197097   5.882  14.818   4.842
65088SOL    HW297098   5.911   0.024   4.964
65089SOL     OW97099  10.152   6.099   1.800
65089SOL    HW197100  10.198   6.154   1.863
65089SOL    HW297101  10.218   6.078   1.734
65090SOL     OW97102   1.530  12.043   8.410
65090SOL    HW197103   1.588  12.030   8.335
65090SOL    HW297104   1.586  12.080   8.477
65091SOL     OW97105  12.098  11.256   6.416
65091SOL    HW197106  12.004  11.264   6.431
65091SOL    HW297107  12.132  11.345   6.426
65092SOL     OW97108  10.285   4.874  12.077
65092SOL    HW197109  10.210   4.928  12.050
65092SOL    HW297110  10.252   4.824  12.152
65093SOL     OW97111   4.474  10.999   5.293
65093SOL    HW197112   4.389  11.007   5.249
65093SOL    HW297113   4.473  11.067   5.360
65094SOL     OW97114  14.084   6.547   4.004
65094SOL    HW197115  14.139   6.478   4.041
65094SOL    HW297116  14.005   6.547   4.059
65095SOL     OW97117   9.434  10.358   3.045
65095SOL    HW197118   9.422  10.428   3.110
65095SOL    HW297119   9.368  10.292   3.067
65096SOL     OW97120   9.665   2.634   1.173
65096SOL    HW197121   9.691   2.708   1.228
65096SOL    HW297122   9.744   2.612   1.124
65097SOL     OW97123   8.729  11.850  11.811
65097SOL    HW197124   8.747  11.796  11.888
65097SOL    HW297125   8.784  11.927  11.823
65098SOL     OW97126  13.131   9.103   0.995
65098SOL    HW197127  13.079   9.183   0.990
65098SOL    HW297128  13.176   9.110   1.080
65099SOL     OW97129  10.572   7.527   6.741
65099SOL    HW197130  10.505   7.487   6.796
65099SOL    HW297131  10.622   7.453   6.707
65100SOL     OW97132   1.942  13.394   6.447
65100SOL    HW197133   1.890  13.317   6.471
65100SOL    HW297134   1.893  13.468   6.483
65101SOL     OW97135   6.822   7.049   8.733
65101SOL    HW197136   6.843   7.140   8.715
65101SOL    HW297137   6.788   7.015   8.651
65102SOL     OW97138  10.079  12.496   7.996
65102SOL    HW197139  10.023  12.448   7.935
65102SOL    HW297140  10.029  12.500   8.077
65103SOL     OW97141   1.578   5.457   9.315
65103SOL    HW197142   1.545   5.544   9.337
65103SOL    HW297143   1.671   5.471   9.296
65104SOL     OW97144   6.964   8.281   4.106
65104SOL    HW197145   6.898   8.239   4.051
65104SOL    HW297146   7.016   8.208   4.140
65105SOL     OW97147   4.208   5.003  13.154
65105SOL    HW197148   4.273   4.935  13.136
65105SOL    HW297149   4.170   5.023  13.068
65106SOL     OW97150   6.738   7.059   3.671
65106SOL    HW197151   6.819   7.079   3.718
65106SOL    HW297152   6.733   7.126   3.603
65107SOL     OW97153  13.160  12.443   3.158
65107SOL    HW197154  13.199  12.468   3.242
65107SOL    HW297155  13.157  12.525   3.108
65108SOL     OW97156   1.737  11.590   3.243
65108SOL    HW197157   1.650  11.601   3.283
65108SOL    HW297158   1.781  11.526   3.299
65109SOL     OW97159   1.934   5.247   6.630
65109SOL    HW197160   2.004   5.302   6.593
65109SOL    HW297161   1.865   5.249   6.564
65110SOL     OW97162  10.604   9.310   5.910
65110SOL    HW197163  10.538   9.323   5.842
65110SOL    HW297164  10.683   9.282   5.863
65111SOL     OW97165   2.920   7.773   0.422
65111SOL    HW197166   2.876   7.719   0.488
65111SOL    HW297167   2.937   7.712   0.350
65112SOL     OW97168   9.667   3.043   9.939
65112SOL    HW197169   9.701   3.103   9.873
65112SOL    HW297170   9.663   3.096  10.019
65113SOL     OW97171   3.430  14.530   7.182
65113SOL    HW197172   3.442  14.525   7.087
65113SOL    HW297173   3.518  14.527   7.218
65114SOL     OW97174   2.098   1.236   4.988
65114SOL    HW197175   2.035   1.230   5.060
65114SOL    HW297176   2.070   1.168   4.926
65115SOL     OW97177   1.427  10.425   0.578
65115SOL    HW197178   1.498  10.484   0.600
65115SOL    HW297179   1.403  10.449   0.488
65116SOL     OW97180   1.617  10.731   2.331
65116SOL    HW197181   1.536  10.766   2.368
65116SOL    HW297182   1.679  10.803   2.337
65117SOL     OW97183  14.505   3.806   1.925
65117SOL    HW197184  14.538   3.742   1.988
65117SOL    HW297185  14.584   3.842   1.885
65118SOL     OW97186   5.539   2.089   9.125
65118SOL    HW197187   5.444   2.093   9.138
65118SOL    HW297188   5.572   2.041   9.201
65119SOL     OW97189   1.067  13.105   3.617
65119SOL    HW197190   1.012  13.108   3.696
65119SOL    HW297191   1.111  13.191   3.616
65120SOL     OW97192  11.634   3.718   3.957
65120SOL    HW197193  11.625   3.700   4.051
65120SOL    HW297194  11.695   3.651   3.926
65121SOL     OW97195   0.134   0.100   8.415
65121SOL    HW197196   0.228   0.118   8.418
65121SOL    HW297197   0.100   0.132   8.499
65122SOL     OW97198  13.072   7.266   4.457
65122SOL    HW197199  13.153   7.285   4.410
65122SOL    HW297200  13.099   7.252   4.548
65123SOL     OW97201  14.485   5.622  14.084
65123SOL    HW197202  14.547   5.665  14.024
65123SOL    HW297203  14.541   5.583  14.151
65124SOL     OW97204   5.344   4.326   6.810
65124SOL    HW197205   5.408   4.397   6.811
65124SOL    HW297206   5.260   4.370   6.793
65125SOL     OW97207   9.944   1.478   5.190
65125SOL    HW197208   9.950   1.560   5.239
65125SOL    HW297209   9.985   1.413   5.247
65126SOL     OW97210   1.553   3.763   2.187
65126SOL    HW197211   1.596   3.724   2.263
65126SOL    HW297212   1.494   3.829   2.224
65127SOL     OW97213  12.196  14.413  12.208
65127SOL    HW197214  12.184  14.508  12.213
65127SOL    HW297215  12.198  14.384  12.299
65128SOL     OW97216   9.716  12.648  11.361
65128SOL    HW197217   9.648  12.653  11.294
65128SOL    HW297218   9.668  12.651  11.444
65129SOL     OW97219   0.726   9.668   6.911
65129SOL    HW197220   0.666   9.605   6.870
65129SOL    HW297221   0.707   9.661   7.004
65130SOL     OW97222  13.123  12.164   9.271
65130SOL    HW197223  13.120  12.208   9.186
65130SOL    HW297224  13.167  12.226   9.328
65131SOL     OW97225   0.088   4.109   1.021
65131SOL    HW197226   0.012   4.075   1.068
65131SOL    HW297227   0.150   4.133   1.089
65132SOL     OW97228  14.434   7.386   9.605
65132SOL    HW197229  14.353   7.352   9.643
65132SOL    HW297230  14.445   7.472   9.645
65133SOL     OW97231   1.644   1.080  13.765
65133SOL    HW197232   1.704   1.009  13.787
65133SOL    HW297233   1.560   1.052  13.801
65134SOL     OW97234   2.870  11.494   0.049
65134SOL    HW197235   2.894  11.408   0.084
65134SOL    HW297236   2.929  11.555   0.095
65135SOL     OW97237   6.913   2.092   0.193
65135SOL    HW197238   6.841   2.103   0.256
65135SOL    HW297239   6.913   2.172   0.142
65136SOL     OW97240  10.333  14.693   1.168
65136SOL    HW197241  10.381  14.632   1.112
65136SOL    HW297242  10.394  14.718   1.237
65137SOL     OW97243   1.131  11.945   9.602
65137SOL    HW197244   1.043  11.982   9.603
65137SOL    HW297245   1.147  11.919   9.693
65138SOL     OW97246  12.264   0.573   2.636
65138SOL    HW197247  12.188   0.630   2.645
65138SOL    HW297248  12.337   0.625   2.671
65139SOL     OW97249  14.267  11.103   0.330
65139SOL    HW197250  14.360  11.101   0.308
65139SOL    HW297251  14.248  11.195   0.347
65140SOL     OW97252  13.255   6.517  10.967
65140SOL    HW197253  13.247   6.479  10.880
65140SOL    HW297254  13.165   6.525  10.998
65141SOL     OW97255  14.071  10.611   7.511
65141SOL    HW197256  14.035  10.532   7.551
65141SOL    HW297257  14.012  10.681   7.541
65142SOL     OW97258   3.039   4.989   3.539
65142SOL    HW197259   2.984   5.066   3.523
65142SOL    HW297260   2.987   4.915   3.507
65143SOL     OW97261  10.346   1.327   4.544
65143SOL    HW197262  10.356   1.290   4.631
65143SOL    HW297263  10.349   1.252   4.485
65144SOL     OW97264   7.245  10.616   4.321
65144SOL    HW197265   7.340  10.620   4.323
65144SOL    HW297266   7.220  10.579   4.405
65145SOL     OW97267   2.705  13.713  10.990
65145SOL    HW197268   2.611  13.697  10.985
65145SOL    HW297269   2.730  13.685  11.078
65146SOL     OW97270   6.827  13.480   6.375
65146SOL    HW197271   6.840  13.509   6.284
65146SOL    HW297272   6.903  13.425   6.394
65147SOL     OW97273  11.732  10.040   3.401
65147SOL    HW197274  11.818  10.009   3.372
65147SOL    HW297275  11.673  10.015   3.329
65148SOL     OW97276  11.963   9.445   0.760
65148SOL    HW197277  11.986   9.407   0.675
65148SOL    HW297278  12.040   9.428   0.814
65149SOL     OW97279   3.650  10.565   4.353
65149SOL    HW197280   3.667  10.529   4.440
65149SOL    HW297281   3.563  10.605   4.360
65150SOL     OW97282  10.079   3.939  10.876
65150SOL    HW197283  10.074   3.988  10.958
65150SOL    HW297284  10.112   4.003  10.812
65151SOL     OW97285   5.055   5.574   9.628
65151SOL    HW197286   4.977   5.627   9.610
65151SOL    HW297287   5.036   5.529   9.710
65152SOL     OW97288  14.170   6.654  11.302
65152SOL    HW197289  14.150   6.563  11.279
65152SOL    HW297290  14.186   6.697  11.218
65153SOL     OW97291   7.377  12.036  11.210
65153SOL    HW197292   7.408  12.082  11.133
65153SOL    HW297293   7.401  12.093  11.283
65154SOL     OW97294   5.238   0.032   5.968
65154SOL    HW197295   5.219   0.123   5.947
65154SOL    HW297296   5.206   0.021   6.058
65155SOL     OW97297  14.230   0.151   5.988
65155SOL    HW197298  14.262   0.062   6.002
65155SOL    HW297299  14.310   0.201   5.969
65156SOL     OW97300  13.055   3.797  14.757
65156SOL    HW197301  13.045   3.718  14.810
65156SOL    HW297302  13.057   3.869  14.820
65157SOL     OW97303   9.968  12.837   4.020
65157SOL    HW197304  10.021  12.881   3.954
65157SOL    HW297305   9.890  12.892   4.028
65158SOL     OW97306   3.898  12.125   0.410
65158SOL    HW197307   3.885  12.146   0.503
65158SOL    HW297308   3.864  12.036   0.400
65159SOL     OW97309   6.987   7.660   8.940
65159SOL    HW197310   7.032   7.698   8.865
65159SOL    HW297311   6.984   7.730   9.005
65160SOL     OW97312   5.391  11.935   7.446
65160SOL    HW197313   5.305  11.896   7.436
65160SOL    HW297314   5.446  11.890   7.382
65161SOL     OW97315  11.207   6.246   5.813
65161SOL    HW197316  11.239   6.252   5.904
65161SOL    HW297317  11.251   6.318   5.768
65162SOL     OW97318  12.692   7.182   9.778
65162SOL    HW197319  12.689   7.248   9.709
65162SOL    HW297320  12.780   7.145   9.772
65163SOL     OW97321  14.568   4.044   6.101
65163SOL    HW197322  14.479   4.077   6.102
65163SOL    HW297323  14.600   4.056   6.190
65164SOL     OW97324   1.236  10.858   1.102
65164SOL    HW197325   1.214  10.943   1.142
65164SOL    HW297326   1.153  10.812   1.095
65165SOL     OW97327   5.368  12.197   6.150
65165SOL    HW197328   5.406  12.152   6.075
65165SOL    HW297329   5.424  12.274   6.162
65166SOL     OW97330   9.267   4.923   8.202
65166SOL    HW197331   9.183   4.920   8.247
65166SOL    HW297332   9.332   4.909   8.271
65167SOL     OW97333   5.601   7.472   7.196
65167SOL    HW197334   5.596   7.378   7.179
65167SOL    HW297335   5.694   7.493   7.189
65168SOL     OW97336   8.101   9.067  13.190
65168SOL    HW197337   8.083   8.993  13.132
65168SOL    HW297338   8.074   9.036  13.277
65169SOL     OW97339  12.119   6.078  13.302
65169SOL    HW197340  12.077   5.996  13.277
65169SOL    HW297341  12.077   6.144  13.246
65170SOL     OW97342   4.336   1.271   7.624
65170SOL    HW197343   4.250   1.313   7.619
65170SOL    HW297344   4.383   1.322   7.690
65171SOL     OW97345  13.493  14.543   4.915
65171SOL    HW197346  13.487  14.498   4.830
65171SOL    HW297347  13.540  14.481   4.971
65172SOL     OW97348  14.314   7.436  10.303
65172SOL    HW197349  14.225   7.436  10.268
65172SOL    HW297350  14.363   7.380  10.242
65173SOL     OW97351   6.538  10.748   9.542
65173SOL    HW197352   6.613  10.745   9.601
65173SOL    HW297353   6.575  10.769   9.457
65174SOL     OW97354   0.516   0.032   6.139
65174SOL    HW197355   0.605   0.060   6.162
65174SOL    HW297356   0.467   0.114   6.132
65175SOL     OW97357   2.437  12.956   2.869
65175SOL    HW197358   2.487  12.876   2.883
65175SOL    HW297359   2.346  12.928   2.864
65176SOL     OW97360   0.769  13.662   7.623
65176SOL    HW197361   0.678  13.685   7.640
65176SOL    HW297362   0.773  13.568   7.641
65177SOL     OW97363  12.917   2.307   6.220
65177SOL    HW197364  12.890   2.223   6.184
65177SOL    HW297365  12.851   2.327   6.287
65178SOL     OW97366   6.155   1.693   2.498
65178SOL    HW197367   6.147   1.787   2.512
65178SOL    HW297368   6.240   1.682   2.456
65179SOL     OW97369   1.131  10.103   3.208
65179SOL    HW197370   1.116  10.051   3.129
65179SOL    HW297371   1.109  10.193   3.182
65180SOL     OW97372  14.719   1.449  10.356
65180SOL    HW197373  14.730   1.477  10.265
65180SOL    HW297374  14.798   1.480  10.400
65181SOL     OW97375   4.846  12.858   4.600
65181SOL    HW197376   4.865  12.786   4.540
65181SOL    HW297377   4.920  12.859   4.660
65182SOL     OW97378   1.818  12.961   4.585
65182SOL    HW197379   1.846  13.050   4.562
65182SOL    HW297380   1.767  12.973   4.666
65183SOL     OW97381  13.416   8.183   2.343
65183SOL    HW197382  13.372   8.238   2.279
65183SOL    HW297383  13.346   8.126   2.377
65184SOL     OW97384   9.686   7.357   4.979
65184SOL    HW197385   9.612   7.314   5.020
65184SOL    HW297386   9.650   7.437   4.942
65185SOL     OW97387  12.234   2.208   6.494
65185SOL    HW197388  12.319   2.234   6.531
65185SOL    HW297389  12.219   2.120   6.528
65186SOL     OW97390  11.359  11.445   8.661
65186SOL    HW197391  11.310  11.488   8.731
65186SOL    HW297392  11.438  11.413   8.703
65187SOL     OW97393   7.368   1.950  12.294
65187SOL    HW197394   7.345   1.857  12.288
65187SOL    HW297395   7.286   1.996  12.275
65188SOL     OW97396   6.173   0.778   0.720
65188SOL    HW197397   6.247   0.721   0.743
65188SOL    HW297398   6.166   0.770   0.624
65189SOL     OW97399   8.745  11.619  11.197
65189SOL    HW197400   8.732  11.710  11.173
65189SOL    HW297401   8.752  11.620  11.293
65190SOL     OW97402   4.353  12.912  10.826
65190SOL    HW197403   4.317  12.891  10.912
65190SOL    HW297404   4.385  12.828  10.792
65191SOL     OW97405   1.576   7.611  14.294
65191SOL    HW197406   1.615   7.599  14.380
65191SOL    HW297407   1.568   7.522  14.259
65192SOL     OW97408   2.438   1.175  11.284
65192SOL    HW197409   2.505   1.226  11.329
65192SOL    HW297410   2.385   1.136  11.354
65193SOL     OW97411  13.329  12.648   6.405
65193SOL    HW197412  13.322  12.727   6.353
65193SOL    HW297413  13.391  12.670   6.475
65194SOL     OW97414   9.010  14.502   4.205
65194SOL    HW197415   9.009  14.422   4.154
65194SOL    HW297416   9.095  14.542   4.187
65195SOL     OW97417   7.584  12.997  13.372
65195SOL    HW197418   7.585  13.052  13.450
65195SOL    HW297419   7.581  13.058  13.299
65196SOL     OW97420   8.560  11.160   5.434
65196SOL    HW197421   8.626  11.211   5.480
65196SOL    HW297422   8.561  11.074   5.477
65197SOL     OW97423  10.792   5.005  13.740
65197SOL    HW197424  10.824   4.916  13.722
65197SOL    HW297425  10.796   5.049  13.655
65198SOL     OW97426  13.587   1.303  14.768
65198SOL    HW197427  13.508   1.278  14.815
65198SOL    HW297428  13.643   1.342  14.835
65199SOL     OW97429   3.261   2.609  14.108
65199SOL    HW197430   3.180   2.578  14.149
65199SOL    HW297431   3.269   2.700  14.136
65200SOL     OW97432  12.071  14.061   5.318
65200SOL    HW197433  12.163  14.060   5.342
65200SOL    HW297434  12.046  13.969   5.316
65201SOL     OW97435   5.528   3.738  11.904
65201SOL    HW197436   5.496   3.816  11.948
65201SOL    HW297437   5.621   3.757  11.887
65202SOL     OW97438  14.845   4.563  14.021
65202SOL    HW197439  14.841   4.488  13.962
65202SOL    HW297440  14.816   4.529  14.106
65203SOL     OW97441   2.730  11.573   7.698
65203SOL    HW197442   2.679  11.652   7.681
65203SOL    HW297443   2.760  11.582   7.789
65204SOL     OW97444   1.052   2.334   6.511
65204SOL    HW197445   0.975   2.339   6.454
65204SOL    HW297446   1.120   2.381   6.463
65205SOL     OW97447  10.004   5.839  12.948
65205SOL    HW197448   9.966   5.761  12.908
65205SOL    HW297449   9.930   5.898  12.963
65206SOL     OW97450   3.023   9.342   1.353
65206SOL    HW197451   2.992   9.257   1.322
65206SOL    HW297452   2.964   9.405   1.312
65207SOL     OW97453  11.307  11.657  10.492
65207SOL    HW197454  11.308  11.738  10.441
65207SOL    HW297455  11.339  11.682  10.579
65208SOL     OW97456   0.686   9.232   3.198
65208SOL    HW197457   0.646   9.221   3.284
65208SOL    HW297458   0.626   9.290   3.151
65209SOL     OW97459  13.571   5.835   1.404
65209SOL    HW197460  13.574   5.857   1.497
65209SOL    HW297461  13.495   5.882   1.370
65210SOL     OW97462   2.613   6.303  14.231
65210SOL    HW197463   2.553   6.255  14.174
65210SOL    HW297464   2.700   6.275  14.203
65211SOL     OW97465   3.182  11.207   7.113
65211SOL    HW197466   3.096  11.176   7.142
65211SOL    HW297467   3.197  11.162   7.030
65212SOL     OW97468  14.458  10.718   0.001
65212SOL    HW197469  14.444  10.779   0.073
65212SOL    HW297470  14.443  10.631   0.039
65213SOL     OW97471   8.593   1.210   1.828
65213SOL    HW197472   8.553   1.246   1.907
65213SOL    HW297473   8.545   1.129   1.811
65214SOL     OW97474  10.954  11.752   0.498
65214SOL    HW197475  10.878  11.735   0.442
65214SOL    HW297476  11.003  11.669   0.498
65215SOL     OW97477   0.049   6.434  12.840
65215SOL    HW197478   0.116   6.371  12.815
65215SOL    HW297479  14.845   6.390  12.822
65216SOL     OW97480   5.410   9.023   4.063
65216SOL    HW197481   5.392   9.084   3.992
65216SOL    HW297482   5.441   9.079   4.135
65217SOL     OW97483  10.451   3.134   0.153
65217SOL    HW197484  10.422   3.054   0.197
65217SOL    HW297485  10.395   3.138   0.075
65218SOL     OW97486   6.483   4.922   7.481
65218SOL    HW197487   6.567   4.904   7.440
65218SOL    HW297488   6.477   5.018   7.481
65219SOL     OW97489   5.044   8.198   5.905
65219SOL    HW197490   5.013   8.114   5.872
65219SOL    HW297491   5.107   8.228   5.839
65220SOL     OW97492  13.934  12.395   9.961
65220SOL    HW197493  13.909  12.483   9.932
65220SOL    HW297494  14.026  12.387   9.937
65221SOL     OW97495  11.006   9.265   3.856
65221SOL    HW197496  11.024   9.318   3.779
65221SOL    HW297497  11.028   9.175   3.830
65222SOL     OW97498  11.507  10.676   2.602
65222SOL    HW197499  11.561  10.722   2.537
65222SOL    HW297500  11.439  10.634   2.550
65223SOL     OW97501  10.489   6.507  14.642
65223SOL    HW197502  10.425   6.446  14.679
65223SOL    HW297503  10.511   6.566  14.714
65224SOL     OW97504   4.707   3.675   9.060
65224SOL    HW197505   4.739   3.728   9.132
65224SOL    HW297506   4.666   3.599   9.102
65225SOL     OW97507  10.513  10.876   0.869
65225SOL    HW197508  10.420  10.897   0.866
65225SOL    HW297509  10.557  10.961   0.869
65226SOL     OW97510   0.531   1.496   5.184
65226SOL    HW197511   0.602   1.557   5.206
65226SOL    HW297512   0.566   1.410   5.207
65227SOL     OW97513   3.246   9.438   4.932
65227SOL    HW197514   3.288   9.422   4.847
65227SOL    HW297515   3.307   9.400   4.996
65228SOL     OW97516  14.440   3.880   0.431
65228SOL    HW197517  14.455   3.911   0.521
65228SOL    HW297518  14.459   3.956   0.376
65229SOL     OW97519  11.523   3.661   2.453
65229SOL    HW197520  11.519   3.754   2.478
65229SOL    HW297521  11.617   3.643   2.444
65230SOL     OW97522   6.927   5.054  12.757
65230SOL    HW197523   6.899   5.044  12.848
65230SOL    HW297524   6.847   5.042  12.706
65231SOL     OW97525  13.634   8.636  11.448
65231SOL    HW197526  13.631   8.708  11.385
65231SOL    HW297527  13.683   8.567  11.404
65232SOL     OW97528  11.135   1.291  14.149
65232SOL    HW197529  11.230   1.297  14.136
65232SOL    HW297530  11.102   1.252  14.069
65233SOL     OW97531   7.382   5.975   3.435
65233SOL    HW197532   7.382   6.028   3.355
65233SOL    HW297533   7.392   6.039   3.506
65234SOL     OW97534   1.056   0.074   2.073
65234SOL    HW197535   1.030   0.101   2.161
65234SOL    HW297536   1.143   0.111   2.061
65235SOL     OW97537  14.552  14.631   9.625
65235SOL    HW197538  14.548  14.570   9.551
65235SOL    HW297539  14.646  14.642   9.642
65236SOL     OW97540   2.753  12.821   9.964
65236SOL    HW197541   2.807  12.885   9.918
65236SOL    HW297542   2.750  12.853  10.055
65237SOL     OW97543   6.128   0.894   9.717
65237SOL    HW197544   6.197   0.899   9.651
65237SOL    HW297545   6.168   0.845   9.789
65238SOL     OW97546   3.543   4.427   2.098
65238SOL    HW197547   3.466   4.427   2.040
65238SOL    HW297548   3.509   4.395   2.182
65239SOL     OW97549  10.716   9.423   5.161
65239SOL    HW197550  10.631   9.385   5.181
65239SOL    HW297551  10.717   9.505   5.210
65240SOL     OW97552   2.513   1.989   4.573
65240SOL    HW197553   2.470   1.957   4.494
65240SOL    HW297554   2.552   2.072   4.547
65241SOL     OW97555  11.248   7.579   3.060
65241SOL    HW197556  11.315   7.528   3.014
65241SOL    HW297557  11.298   7.638   3.117
65242SOL     OW97558   8.861  10.824   6.818
65242SOL    HW197559   8.955  10.809   6.815
65242SOL    HW297560   8.841  10.836   6.911
65243SOL     OW97561   2.836   2.879   7.972
65243SOL    HW197562   2.820   2.972   7.989
65243SOL    HW297563   2.808   2.835   8.053
65244SOL     OW97564   3.909   7.109   2.931
65244SOL    HW197565   3.894   7.150   3.017
65244SOL    HW297566   3.990   7.059   2.943
65245SOL     OW97567   3.410   9.433   7.264
65245SOL    HW197568   3.327   9.424   7.311
65245SOL    HW297569   3.465   9.487   7.322
65246SOL     OW97570   6.684   2.169   2.492
65246SOL    HW197571   6.746   2.201   2.427
65246SOL    HW297572   6.735   2.106   2.544
65247SOL     OW97573  11.929   2.211   6.457
65247SOL    HW197574  12.022   2.215   6.435
65247SOL    HW297575  11.918   2.274   6.529
65248SOL     OW97576   0.816   4.575   0.662
65248SOL    HW197577   0.741   4.539   0.710
65248SOL    HW297578   0.829   4.662   0.701
65249SOL     OW97579   0.861   0.663  13.552
65249SOL    HW197580   0.824   0.680  13.638
65249SOL    HW297581   0.956   0.668  13.565
65250SOL     OW97582   5.025   6.425  14.644
65250SOL    HW197583   4.952   6.473  14.682
65250SOL    HW297584   5.066   6.488  14.584
65251SOL     OW97585   8.250  14.627  14.407
65251SOL    HW197586   8.340  14.659  14.393
65251SOL    HW297587   8.211  14.692  14.465
65252SOL     OW97588   4.872   4.067   7.330
65252SOL    HW197589   4.951   4.058   7.384
65252SOL    HW297590   4.800   4.065   7.392
65253SOL     OW97591   7.386  10.282  13.972
65253SOL    HW197592   7.389  10.229  14.052
65253SOL    HW297593   7.468  10.260  13.927
65254SOL     OW97594   9.758  10.260   0.849
65254SOL    HW197595   9.798  10.174   0.860
65254SOL    HW297596   9.700  10.251   0.774
65255SOL     OW97597   0.169  14.667  13.080
65255SOL    HW197598   0.192  14.718  13.157
65255SOL    HW297599   0.075  14.678  13.071
65256SOL     OW97600   8.132  13.554  13.139
65256SOL    HW197601   8.113  13.535  13.231
65256SOL    HW297602   8.047  13.547  13.095
65257SOL     OW97603   8.200   2.463   8.657
65257SOL    HW197604   8.227   2.378   8.621
65257SOL    HW297605   8.111   2.475   8.622
65258SOL     OW97606   7.172   0.562   7.695
65258SOL    HW197607   7.139   0.482   7.655
65258SOL    HW297608   7.153   0.630   7.631
65259SOL     OW97609   6.148  14.498   2.367
65259SOL    HW197610   6.103  14.580   2.390
65259SOL    HW297611   6.101  14.430   2.416
65260SOL     OW97612  14.296   4.785   5.557
65260SOL    HW197613  14.269   4.693   5.567
65260SOL    HW297614  14.250   4.831   5.626
65261SOL     OW97615   6.481   0.779   2.290
65261SOL    HW197616   6.399   0.828   2.293
65261SOL    HW297617   6.530   0.809   2.367
65262SOL     OW97618  14.665   1.085   5.759
65262SOL    HW197619  14.723   1.018   5.796
65262SOL    HW297620  14.607   1.036   5.701
65263SOL     OW97621  10.352   5.470  10.735
65263SOL    HW197622  10.446   5.453  10.741
65263SOL    HW297623  10.324   5.482  10.826
65264SOL     OW97624   1.067  10.247   1.428
65264SOL    HW197625   1.047  10.339   1.447
65264SOL    HW297626   1.020  10.198   1.495
65265SOL     OW97627   1.922   8.610  11.209
65265SOL    HW197628   1.966   8.530  11.181
65265SOL    HW297629   1.986   8.655  11.264
65266SOL     OW97630   5.550   6.752   7.531
65266SOL    HW197631   5.489   6.693   7.575
65266SOL    HW297632   5.493   6.820   7.493
65267SOL     OW97633  12.893  14.175   3.983
65267SOL    HW197634  12.882  14.260   4.025
65267SOL    HW297635  12.849  14.113   4.040
65268SOL     OW97636  11.372  11.144  11.826
65268SOL    HW197637  11.380  11.086  11.751
65268SOL    HW297638  11.460  11.178  11.840
65269SOL     OW97639   4.865   5.688  11.285
65269SOL    HW197640   4.842   5.731  11.203
65269SOL    HW297641   4.806   5.727  11.350
65270SOL     OW97642   6.390   9.393   4.060
65270SOL    HW197643   6.412   9.446   3.983
65270SOL    HW297644   6.381   9.457   4.131
65271SOL     OW97645   9.754  12.748   1.825
65271SOL    HW197646   9.848  12.761   1.836
65271SOL    HW297647   9.713  12.809   1.887
65272SOL     OW97648  13.418   9.159   1.875
65272SOL    HW197649  13.438   9.191   1.963
65272SOL    HW297650  13.497   9.178   1.824
65273SOL     OW97651  13.965  13.676   0.164
65273SOL    HW197652  13.997  13.766   0.155
65273SOL    HW297653  13.936  13.670   0.255
65274SOL     OW97654  12.823  13.522   9.381
65274SOL    HW197655  12.856  13.560   9.300
65274SOL    HW297656  12.877  13.444   9.394
65275SOL     OW97657  12.673   1.560   0.727
65275SOL    HW197658  12.634   1.606   0.801
65275SOL    HW297659  12.598   1.530   0.675
65276SOL     OW97660   1.177   4.625   4.374
65276SOL    HW197661   1.199   4.716   4.357
65276SOL    HW297662   1.093   4.611   4.331
65277SOL     OW97663   9.287   8.787   7.945
65277SOL    HW197664   9.332   8.869   7.926
65277SOL    HW297665   9.281   8.784   8.041
65278SOL     OW97666  13.536   6.017  14.485
65278SOL    HW197667  13.613   5.961  14.480
65278SOL    HW297668  13.556   6.090  14.426
65279SOL     OW97669  13.907   4.626   1.611
65279SOL    HW197670  13.959   4.606   1.533
65279SOL    HW297671  13.968   4.664   1.673
65280SOL     OW97672   5.223  11.366   8.084
65280SOL    HW197673   5.313  11.396   8.072
65280SOL    HW297674   5.171  11.423   8.028
65281SOL     OW97675   3.751   7.372  14.080
65281SOL    HW197676   3.739   7.341  13.990
65281SOL    HW297677   3.687   7.321  14.130
65282SOL     OW97678   8.583  14.175  12.151
65282SOL    HW197679   8.569  14.122  12.230
65282SOL    HW297680   8.496  14.179  12.111
65283SOL     OW97681   8.529  10.630  10.993
65283SOL    HW197682   8.462  10.597  10.932
65283SOL    HW297683   8.606  10.576  10.974
65284SOL     OW97684   8.400  12.133   5.015
65284SOL    HW197685   8.350  12.058   4.982
65284SOL    HW297686   8.455  12.097   5.085
65285SOL     OW97687   2.496   3.742  13.793
65285SOL    HW197688   2.458   3.830  13.800
65285SOL    HW297689   2.510   3.729  13.699
65286SOL     OW97690   5.606   7.655   7.841
65286SOL    HW197691   5.583   7.746   7.860
65286SOL    HW297692   5.615   7.653   7.746
65287SOL     OW97693   3.112  14.324   1.494
65287SOL    HW197694   3.113  14.397   1.557
65287SOL    HW297695   3.177  14.262   1.527
65288SOL     OW97696   0.180   0.473   6.823
65288SOL    HW197697   0.155   0.444   6.910
65288SOL    HW297698   0.191   0.392   6.773
65289SOL     OW97699   5.419   9.895   3.864
65289SOL    HW197700   5.470   9.952   3.922
65289SOL    HW297701   5.473   9.817   3.853
65290SOL     OW97702   0.578  10.366  14.612
65290SOL    HW197703   0.601  10.280  14.577
65290SOL    HW297704   0.494  10.387  14.572
65291SOL     OW97705  11.906   3.259   3.411
65291SOL    HW197706  11.861   3.280   3.330
65291SOL    HW297707  11.835   3.249   3.476
65292SOL     OW97708  13.305   9.949  13.174
65292SOL    HW197709  13.301   9.885  13.244
65292SOL    HW297710  13.238  10.014  13.197
65293SOL     OW97711   9.136   7.512   1.915
65293SOL    HW197712   9.127   7.488   2.008
65293SOL    HW297713   9.194   7.588   1.916
65294SOL     OW97714  13.629   8.497   9.319
65294SOL    HW197715  13.670   8.471   9.236
65294SOL    HW297716  13.670   8.440   9.384
65295SOL     OW97717   8.875   1.596  12.949
65295SOL    HW197718   8.821   1.670  12.977
65295SOL    HW297719   8.878   1.604  12.853
65296SOL     OW97720  10.724   6.649   7.943
65296SOL    HW197721  10.648   6.706   7.959
65296SOL    HW297722  10.799   6.708   7.945
65297SOL     OW97723   8.325   2.014  10.089
65297SOL    HW197724   8.362   1.943  10.036
65297SOL    HW297725   8.385   2.087  10.075
65298SOL     OW97726   2.395   3.935   6.870
65298SOL    HW197727   2.439   3.911   6.952
65298SOL    HW297728   2.415   4.027   6.858
65299SOL     OW97729  11.664   3.732   1.112
65299SOL    HW197730  11.749   3.687   1.109
65299SOL    HW297731  11.627   3.719   1.025
65300SOL     OW97732   6.880   4.686   4.807
65300SOL    HW197733   6.805   4.694   4.747
65300SOL    HW297734   6.903   4.777   4.827
65301SOL     OW97735   2.133   3.837   8.286
65301SOL    HW197736   2.163   3.826   8.376
65301SOL    HW297737   2.154   3.754   8.243
65302SOL     OW97738   0.839   1.513   6.829
65302SOL    HW197739   0.845   1.544   6.920
65302SOL    HW297740   0.924   1.473   6.812
65303SOL     OW97741  11.147   7.692   4.800
65303SOL    HW197742  11.140   7.781   4.835
65303SOL    HW297743  11.228   7.657   4.838
65304SOL     OW97744   8.930   9.874   0.901
65304SOL    HW197745   8.971   9.788   0.906
65304SOL    HW297746   8.963   9.922   0.977
65305SOL     OW97747   4.630   7.097  13.643
65305SOL    HW197748   4.567   7.029  13.620
65305SOL    HW297749   4.575   7.170  13.672
65306SOL     OW97750  14.220   9.101   6.465
65306SOL    HW197751  14.315   9.091   6.467
65306SOL    HW297752  14.187   9.022   6.507
65307SOL     OW97753   2.559   7.450   1.791
65307SOL    HW197754   2.631   7.436   1.853
65307SOL    HW297755   2.581   7.394   1.717
65308SOL     OW97756   2.497  12.752   2.119
65308SOL    HW197757   2.426  12.701   2.081
65308SOL    HW297758   2.460  12.785   2.202
65309SOL     OW97759  10.715  13.614   2.883
65309SOL    HW197760  10.708  13.653   2.970
65309SOL    HW297761  10.655  13.540   2.886
65310SOL     OW97762  11.035   9.058  10.634
65310SOL    HW197763  11.009   8.969  10.657
65310SOL    HW297764  11.068   9.052  10.545
65311SOL     OW97765   4.652  11.383   6.606
65311SOL    HW197766   4.654  11.466   6.558
65311SOL    HW297767   4.608  11.405   6.688
65312SOL     OW97768   1.464   0.038  11.764
65312SOL    HW197769   1.525   0.090  11.711
65312SOL    HW297770   1.383   0.089  11.764
65313SOL     OW97771   3.732  13.644   7.767
65313SOL    HW197772   3.734  13.662   7.673
65313SOL    HW297773   3.654  13.590   7.779
65314SOL     OW97774  12.594   0.337   7.958
65314SOL    HW197775  12.555   0.288   8.030
65314SOL    HW297776  12.686   0.313   7.958
65315SOL     OW97777   8.114   2.809  12.694
65315SOL    HW197778   8.151   2.877  12.750
65315SOL    HW297779   8.129   2.841  12.605
65316SOL     OW97780   2.375   1.251   7.609
65316SOL    HW197781   2.303   1.208   7.562
65316SOL    HW297782   2.454   1.226   7.561
65317SOL     OW97783   7.624   7.613   5.495
65317SOL    HW197784   7.555   7.662   5.451
65317SOL    HW297785   7.614   7.636   5.587
65318SOL     OW97786  10.505  11.707   6.121
65318SOL    HW197787  10.593  11.672   6.108
65318SOL    HW297788  10.449  11.652   6.066
65319SOL     OW97789  14.700  12.986   5.816
65319SOL    HW197790  14.771  13.038   5.854
65319SOL    HW297791  14.738  12.949   5.737
65320SOL     OW97792  13.918   9.776   5.554
65320SOL    HW197793  13.845   9.749   5.609
65320SOL    HW297794  13.911   9.872   5.551
65321SOL     OW97795  14.411   8.725   2.350
65321SOL    HW197796  14.365   8.809   2.339
65321SOL    HW297797  14.504   8.748   2.350
65322SOL     OW97798   2.277   1.878   9.358
65322SOL    HW197799   2.360   1.830   9.354
65322SOL    HW297800   2.288   1.939   9.431
65323SOL     OW97801  11.843   1.755   9.419
65323SOL    HW197802  11.898   1.806   9.360
65323SOL    HW297803  11.805   1.687   9.363
65324SOL     OW97804  10.859  11.428   8.892
65324SOL    HW197805  10.883  11.438   8.800
65324SOL    HW297806  10.772  11.467   8.898
65325SOL     OW97807   0.979   8.813  10.415
65325SOL    HW197808   0.970   8.762  10.334
65325SOL    HW297809   0.905   8.874  10.413
65326SOL     OW97810   2.053   6.262   9.786
65326SOL    HW197811   1.958   6.245   9.783
65326SOL    HW297812   2.061   6.354   9.763
65327SOL     OW97813   2.857   4.934   7.928
65327SOL    HW197814   2.810   4.895   8.002
65327SOL    HW297815   2.940   4.886   7.924
65328SOL     OW97816  13.311  14.266  13.648
65328SOL    HW197817  13.405  14.249  13.654
65328SOL    HW297818  13.275  14.232  13.730
65329SOL     OW97819   4.453   4.000   6.613
65329SOL    HW197820   4.408   4.064   6.558
65329SOL    HW297821   4.512   4.052   6.667
65330SOL     OW97822  10.180  10.628   2.059
65330SOL    HW197823  10.132  10.566   2.115
65330SOL    HW297824  10.137  10.622   1.974
65331SOL     OW97825   3.724   6.456  12.309
65331SOL    HW197826   3.632   6.463  12.333
65331SOL    HW297827   3.739   6.362  12.298
65332SOL     OW97828  10.484  14.852   0.167
65332SOL    HW197829  10.394  14.823   0.181
65332SOL    HW297830  10.498  14.843   0.072
65333SOL     OW97831   9.275   7.474   0.916
65333SOL    HW197832   9.367   7.489   0.937
65333SOL    HW297833   9.270   7.486   0.821
65334SOL     OW97834  12.421   0.264   2.447
65334SOL    HW197835  12.429   0.174   2.413
65334SOL    HW297836  12.358   0.306   2.388
65335SOL     OW97837  12.654  12.935   4.233
65335SOL    HW197838  12.662  12.877   4.157
65335SOL    HW297839  12.612  12.882   4.300
65336SOL     OW97840   6.785  13.121   3.433
65336SOL    HW197841   6.727  13.051   3.461
65336SOL    HW297842   6.748  13.152   3.351
65337SOL     OW97843   0.676  11.739   2.961
65337SOL    HW197844   0.589  11.746   3.002
65337SOL    HW297845   0.682  11.647   2.936
65338SOL     OW97846   7.737  14.014  13.913
65338SOL    HW197847   7.752  13.920  13.925
65338SOL    HW297848   7.804  14.041  13.851
65339SOL     OW97849  13.882   9.088  10.329
65339SOL    HW197850  13.944   9.101  10.258
65339SOL    HW297851  13.887   9.169  10.380
65340SOL     OW97852   6.910   7.803  13.199
65340SOL    HW197853   6.922   7.851  13.117
65340SOL    HW297854   6.998   7.800  13.238
65341SOL     OW97855   3.870  13.443  14.082
65341SOL    HW197856   3.801  13.408  14.138
65341SOL    HW297857   3.946  13.451  14.140
65342SOL     OW97858   3.765  12.103   5.196
65342SOL    HW197859   3.723  12.030   5.151
65342SOL    HW297860   3.858  12.092   5.177
65343SOL     OW97861   0.756   6.927   9.081
65343SOL    HW197862   0.694   6.861   9.050
65343SOL    HW297863   0.827   6.876   9.120
65344SOL     OW97864  13.687   9.138   3.151
65344SOL    HW197865  13.592   9.122   3.154
65344SOL    HW297866  13.726   9.053   3.167
65345SOL     OW97867   6.189   2.436  12.445
65345SOL    HW197868   6.110   2.423  12.393
65345SOL    HW297869   6.233   2.510  12.404
65346SOL     OW97870   0.077   7.838   4.184
65346SOL    HW197871   0.147   7.884   4.139
65346SOL    HW297872  14.877   7.863   4.136
65347SOL     OW97873   2.727   7.987  14.389
65347SOL    HW197874   2.736   8.035  14.472
65347SOL    HW297875   2.727   7.895  14.415
65348SOL     OW97876   6.500  10.894   3.035
65348SOL    HW197877   6.504  10.950   2.957
65348SOL    HW297878   6.534  10.949   3.106
65349SOL     OW97879   0.082   8.103   8.267
65349SOL    HW197880   0.095   8.030   8.327
65349SOL    HW297881   0.120   8.178   8.312
65350SOL     OW97882   4.596  14.547   1.162
65350SOL    HW197883   4.659  14.481   1.191
65350SOL    HW297884   4.628  14.629   1.201
65351SOL     OW97885   8.434   0.206   2.535
65351SOL    HW197886   8.357   0.258   2.512
65351SOL    HW297887   8.470   0.177   2.452
65352SOL     OW97888   4.617   0.376   9.689
65352SOL    HW197889   4.644   0.421   9.610
65352SOL    HW297890   4.609   0.445   9.755
65353SOL     OW97891   5.860  10.609   0.029
65353SOL    HW197892   5.952  10.631   0.045
65353SOL    HW297893   5.853  10.517   0.052
65354SOL     OW97894   8.177  10.915   5.875
65354SOL    HW197895   8.248  10.924   5.812
65354SOL    HW297896   8.098  10.914   5.820
65355SOL     OW97897   9.626   8.447   0.025
65355SOL    HW197898   9.696   8.442   0.090
65355SOL    HW297899   9.663   8.408  14.826
65356SOL     OW97900   3.592   6.418  11.606
65356SOL    HW197901   3.638   6.424  11.690
65356SOL    HW297902   3.525   6.486  11.610
65357SOL     OW97903   5.429   8.057   7.251
65357SOL    HW197904   5.337   8.079   7.235
65357SOL    HW297905   5.475   8.141   7.246
65358SOL     OW97906   1.636   2.421   7.105
65358SOL    HW197907   1.579   2.462   7.039
65358SOL    HW297908   1.713   2.477   7.107
65359SOL     OW97909  11.898  14.309   0.136
65359SOL    HW197910  11.871  14.319   0.045
65359SOL    HW297911  11.884  14.395   0.176
65360SOL     OW97912  10.878   9.717   3.998
65360SOL    HW197913  10.804   9.657   3.983
65360SOL    HW297914  10.888   9.763   3.914
65361SOL     OW97915   1.511   7.978   4.321
65361SOL    HW197916   1.476   7.912   4.260
65361SOL    HW297917   1.521   7.931   4.404
65362SOL     OW97918  14.853   4.178   1.630
65362SOL    HW197919  14.774   4.154   1.582
65362SOL    HW297920   0.045   4.141   1.579
65363SOL     OW97921  13.981  14.457  12.528
65363SOL    HW197922  14.039  14.384  12.507
65363SOL    HW297923  14.031  14.509  12.591
65364SOL     OW97924  10.479  11.768   0.942
65364SOL    HW197925  10.421  11.711   0.891
65364SOL    HW297926  10.499  11.719   1.021
65365SOL     OW97927  12.201   9.316  12.782
65365SOL    HW197928  12.211   9.221  12.772
65365SOL    HW297929  12.120   9.327  12.831
65366SOL     OW97930  14.430   4.847   1.042
65366SOL    HW197931  14.410   4.935   1.075
65366SOL    HW297932  14.522   4.851   1.018
65367SOL     OW97933   1.287   3.252  11.634
65367SOL    HW197934   1.213   3.308  11.658
65367SOL    HW297935   1.336   3.242  11.716
65368SOL     OW97936   6.274   1.980   8.588
65368SOL    HW197937   6.249   1.965   8.497
65368SOL    HW297938   6.252   1.899   8.633
65369SOL     OW97939  13.790   7.749  11.934
65369SOL    HW197940  13.701   7.737  11.968
65369SOL    HW297941  13.800   7.843  11.925
65370SOL     OW97942  10.071   8.663   9.903
65370SOL    HW197943  10.057   8.569   9.893
65370SOL    HW297944  10.137   8.671   9.971
65371SOL     OW97945  11.276   2.446   6.717
65371SOL    HW197946  11.364   2.428   6.750
65371SOL    HW297947  11.242   2.360   6.691
65372SOL     OW97948   6.121  13.547   7.247
65372SOL    HW197949   6.160  13.523   7.163
65372SOL    HW297950   6.195  13.556   7.307
65373SOL     OW97951  14.218   9.305   6.006
65373SOL    HW197952  14.194   9.370   6.072
65373SOL    HW297953  14.278   9.245   6.051
65374SOL     OW97954   7.761   7.511  10.404
65374SOL    HW197955   7.744   7.552  10.319
65374SOL    HW297956   7.754   7.582  10.467
65375SOL     OW97957  10.764   7.646   5.777
65375SOL    HW197958  10.845   7.659   5.827
65375SOL    HW297959  10.697   7.630   5.844
65376SOL     OW97960   9.402   9.642   9.671
65376SOL    HW197961   9.417   9.726   9.626
65376SOL    HW297962   9.443   9.653   9.757
65377SOL     OW97963  14.554  13.471  14.823
65377SOL    HW197964  14.483  13.494   0.004
65377SOL    HW297965  14.605  13.405  14.871
65378SOL     OW97966   1.010   7.145   1.419
65378SOL    HW197967   0.948   7.081   1.454
65378SOL    HW297968   1.038   7.107   1.336
65379SOL     OW97969  10.539   0.495   7.803
65379SOL    HW197970  10.582   0.410   7.798
65379SOL    HW297971  10.597   0.548   7.858
65380SOL     OW97972   0.486  10.252  10.893
65380SOL    HW197973   0.461  10.171  10.848
65380SOL    HW297974   0.575  10.235  10.925
65381SOL     OW97975  12.401  13.884   5.824
65381SOL    HW197976  12.422  13.967   5.867
65381SOL    HW297977  12.479  13.830   5.835
65382SOL     OW97978  12.483   6.238  14.806
65382SOL    HW197979  12.479   6.257  14.712
65382SOL    HW297980  12.572   6.205  14.819
65383SOL     OW97981   2.177   8.794  11.161
65383SOL    HW197982   2.244   8.728  11.175
65383SOL    HW297983   2.124   8.792  11.241
65384SOL     OW97984   9.362   3.509   2.850
65384SOL    HW197985   9.286   3.567   2.848
65384SOL    HW297986   9.358   3.467   2.936
65385SOL     OW97987   8.278   8.591   3.206
65385SOL    HW197988   8.352   8.530   3.213
65385SOL    HW297989   8.255   8.610   3.297
65386SOL     OW97990   4.578  13.273   8.100
65386SOL    HW197991   4.545  13.347   8.151
65386SOL    HW297992   4.660  13.304   8.064
65387SOL     OW97993   9.407  14.725  14.805
65387SOL    HW197994   9.351  14.647  14.808
65387SOL    HW297995   9.494  14.693  14.828
65388SOL     OW97996   6.435  14.372   2.065
65388SOL    HW197997   6.456  14.392   1.974
65388SOL    HW297998   6.383  14.447   2.094
65389SOL     OW97999   4.305   1.179  13.851
65389SOL    HW198000   4.343   1.122  13.918
65389SOL    HW298001   4.257   1.245  13.901
65390SOL     OW98002  12.602   8.150   5.383
65390SOL    HW198003  12.570   8.064   5.411
65390SOL    HW298004  12.638   8.189   5.462
65391SOL     OW98005  11.031  14.019   9.659
65391SOL    HW198006  11.036  14.098   9.605
65391SOL    HW298007  11.079  13.953   9.608
65392SOL     OW98008  13.119   1.967  11.822
65392SOL    HW198009  13.127   1.948  11.729
65392SOL    HW298010  13.043   1.916  11.850
65393SOL     OW98011  10.066   9.456   2.276
65393SOL    HW198012   9.989   9.472   2.329
65393SOL    HW298013  10.034   9.458   2.185
65394SOL     OW98014   8.091  10.446   5.213
65394SOL    HW198015   7.999  10.472   5.209
65394SOL    HW298016   8.114  10.453   5.306
65395SOL     OW98017   2.088   2.510   4.545
65395SOL    HW198018   1.998   2.540   4.532
65395SOL    HW298019   2.125   2.509   4.457
65396SOL     OW98020   4.273   0.257   1.166
65396SOL    HW198021   4.186   0.282   1.135
65396SOL    HW298022   4.290   0.315   1.240
65397SOL     OW98023   3.146  13.507   6.905
65397SOL    HW198024   3.077  13.492   6.969
65397SOL    HW298025   3.100  13.523   6.823
65398SOL     OW98026   7.336  13.444  12.720
65398SOL    HW198027   7.385  13.449  12.638
65398SOL    HW298028   7.389  13.494  12.782
65399SOL     OW98029   2.792   6.453   5.911
65399SOL    HW198030   2.863   6.515   5.925
65399SOL    HW298031   2.718   6.507   5.884
65400SOL     OW98032   1.393   1.148  12.037
65400SOL    HW198033   1.396   1.236  12.075
65400SOL    HW298034   1.374   1.091  12.112
65401SOL     OW98035   4.608  13.590   2.199
65401SOL    HW198036   4.526  13.540   2.194
65401SOL    HW298037   4.587  13.666   2.252
65402SOL     OW98038   2.415   6.577   2.788
65402SOL    HW198039   2.442   6.492   2.823
65402SOL    HW298040   2.323   6.585   2.811
65403SOL     OW98041   6.218  10.795   9.899
65403SOL    HW198042   6.252  10.706   9.911
65403SOL    HW298043   6.159  10.788   9.824
65404SOL     OW98044   5.540   9.850   0.818
65404SOL    HW198045   5.487   9.777   0.786
65404SOL    HW298046   5.478   9.906   0.864
65405SOL     OW98047   4.244  11.326   6.709
65405SOL    HW198048   4.260  11.420   6.715
65405SOL    HW298049   4.244  11.308   6.615
65406SOL     OW98050  13.196   6.177   1.929
65406SOL    HW198051  13.213   6.147   1.840
65406SOL    HW298052  13.172   6.269   1.919
65407SOL     OW98053  14.391   0.308  12.652
65407SOL    HW198054  14.427   0.285  12.566
65407SOL    HW298055  14.406   0.230  12.706
65408SOL     OW98056   3.348   6.061  10.128
65408SOL    HW198057   3.287   5.989  10.112
65408SOL    HW298058   3.400   6.066  10.048
65409SOL     OW98059  12.020   9.629   5.982
65409SOL    HW198060  12.014   9.717   6.020
65409SOL    HW298061  12.000   9.571   6.055
65410SOL     OW98062  12.076  13.963   1.717
65410SOL    HW198063  12.130  13.889   1.689
65410SOL    HW298064  12.022  13.928   1.788
65411SOL     OW98065   7.496   8.455  13.787
65411SOL    HW198066   7.456   8.516  13.849
65411SOL    HW298067   7.443   8.462  13.708
65412SOL     OW98068   5.813   8.164  11.209
65412SOL    HW198069   5.856   8.158  11.124
65412SOL    HW298070   5.793   8.257  11.219
65413SOL     OW98071   6.432   4.099  14.047
65413SOL    HW198072   6.441   4.191  14.024
65413SOL    HW298073   6.352   4.071  14.004
65414SOL     OW98074   3.304   4.553   6.752
65414SOL    HW198075   3.223   4.592   6.721
65414SOL    HW298076   3.290   4.459   6.745
65415SOL     OW98077   9.601   3.676  14.387
65415SOL    HW198078   9.528   3.638  14.339
65415SOL    HW298079   9.638   3.741  14.327
65416SOL     OW98080   4.275   4.889  11.128
65416SOL    HW198081   4.368   4.898  11.150
65416SOL    HW298082   4.241   4.826  11.192
65417SOL     OW98083   3.156   9.766  13.520
65417SOL    HW198084   3.184   9.853  13.490
65417SOL    HW298085   3.130   9.779  13.611
65418SOL     OW98086  12.944   7.610  13.795
65418SOL    HW198087  12.979   7.697  13.817
65418SOL    HW298088  12.857   7.628  13.761
65419SOL     OW98089   1.990   6.832   7.073
65419SOL    HW198090   1.963   6.845   7.164
65419SOL    HW298091   1.989   6.737   7.061
65420SOL     OW98092   9.953   2.385  10.272
65420SOL    HW198093   9.950   2.461  10.213
65420SOL    HW298094   9.992   2.419  10.353
65421SOL     OW98095   6.515   2.402   2.881
65421SOL    HW198096   6.608   2.424   2.882
65421SOL    HW298097   6.513   2.308   2.867
65422SOL     OW98098   1.007   7.036   5.581
65422SOL    HW198099   1.078   6.976   5.559
65422SOL    HW298100   0.984   7.014   5.671
65423SOL     OW98101  11.975   2.470  11.827
65423SOL    HW198102  12.020   2.537  11.775
65423SOL    HW298103  11.924   2.520  11.891
65424SOL     OW98104  11.465   0.648  12.928
65424SOL    HW198105  11.552   0.686  12.914
65424SOL    HW298106  11.483   0.560  12.962
65425SOL     OW98107   2.894   3.466   6.902
65425SOL    HW198108   2.935   3.404   6.961
65425SOL    HW298109   2.964   3.526   6.877
65426SOL     OW98110   6.393   7.160  10.283
65426SOL    HW198111   6.340   7.222  10.333
65426SOL    HW298112   6.436   7.213  10.216
65427SOL     OW98113   4.400   3.138  11.675
65427SOL    HW198114   4.426   3.093  11.594
65427SOL    HW298115   4.479   3.184  11.703
65428SOL     OW98116   8.235   2.548   6.569
65428SOL    HW198117   8.309   2.491   6.549
65428SOL    HW298118   8.158   2.493   6.557
65429SOL     OW98119   0.838  13.906   4.196
65429SOL    HW198120   0.864  13.837   4.257
65429SOL    HW298121   0.919  13.930   4.150
65430SOL     OW98122  14.646  13.417   4.822
65430SOL    HW198123  14.583  13.386   4.885
65430SOL    HW298124  14.708  13.345   4.811
65431SOL     OW98125   4.743  11.716  10.159
65431SOL    HW198126   4.824  11.725  10.209
65431SOL    HW298127   4.770  11.720  10.067
65432SOL     OW98128   5.371  11.985   1.190
65432SOL    HW198129   5.456  11.941   1.193
65432SOL    HW298130   5.320  11.934   1.128
65433SOL     OW98131   9.452   4.216   0.912
65433SOL    HW198132   9.498   4.294   0.881
65433SOL    HW298133   9.374   4.210   0.856
65434SOL     OW98134   2.882   0.234   4.716
65434SOL    HW198135   2.921   0.269   4.635
65434SOL    HW298136   2.881   0.308   4.776
65435SOL     OW98137   1.227  13.505   5.945
65435SOL    HW198138   1.208  13.417   5.979
65435SOL    HW298139   1.298  13.491   5.882
65436SOL     OW98140   7.208   8.532  13.968
65436SOL    HW198141   7.146   8.493  14.030
65436SOL    HW298142   7.275   8.572  14.024
65437SOL     OW98143   9.810  10.755   4.609
65437SOL    HW198144   9.771  10.719   4.529
65437SOL    HW298145   9.849  10.680   4.653
65438SOL     OW98146  10.938   4.365   6.237
65438SOL    HW198147  10.857   4.348   6.189
65438SOL    HW298148  10.991   4.417   6.176
65439SOL     OW98149   8.066  11.400   4.177
65439SOL    HW198150   8.026  11.437   4.256
65439SOL    HW298151   8.150  11.444   4.170
65440SOL     OW98152   8.764  11.427  13.844
65440SOL    HW198153   8.682  11.432  13.895
65440SOL    HW298154   8.820  11.370  13.896
65441SOL     OW98155   6.321   8.880   0.205
65441SOL    HW198156   6.371   8.872   0.286
65441SOL    HW298157   6.385   8.864   0.136
65442SOL     OW98158   0.932  10.426   3.509
65442SOL    HW198159   0.876  10.365   3.557
65442SOL    HW298160   1.018  10.384   3.511
65443SOL     OW98161  11.685   2.176   2.852
65443SOL    HW198162  11.708   2.269   2.850
65443SOL    HW298163  11.701   2.145   2.763
65444SOL     OW98164   3.243  14.619   0.204
65444SOL    HW198165   3.289  14.663   0.133
65444SOL    HW298166   3.235  14.685   0.273
65445SOL     OW98167  12.206   2.511   2.417
65445SOL    HW198168  12.295   2.493   2.448
65445SOL    HW298169  12.163   2.425   2.416
65446SOL     OW98170   4.162   1.477   0.381
65446SOL    HW198171   4.210   1.394   0.392
65446SOL    HW298172   4.170   1.521   0.465
65447SOL     OW98173  10.864  10.007   8.174
65447SOL    HW198174  10.789   9.966   8.216
65447SOL    HW298175  10.833  10.095   8.149
65448SOL     OW98176   9.932   6.030  10.510
65448SOL    HW198177   9.847   6.067  10.536
65448SOL    HW298178   9.997   6.091  10.544
65449SOL     OW98179   0.826   2.798   9.708
65449SOL    HW198180   0.900   2.789   9.648
65449SOL    HW298181   0.750   2.812   9.652
65450SOL     OW98182   0.959   3.415   4.625
65450SOL    HW198183   0.882   3.372   4.587
65450SOL    HW298184   0.926   3.498   4.659
65451SOL     OW98185   9.476   4.905  14.045
65451SOL    HW198186   9.428   4.985  14.020
65451SOL    HW298187   9.495   4.917  14.138
65452SOL     OW98188   0.626  11.980   7.503
65452SOL    HW198189   0.538  12.016   7.514
65452SOL    HW298190   0.622  11.931   7.421
65453SOL     OW98191   4.391  11.854   0.115
65453SOL    HW198192   4.340  11.931   0.091
65453SOL    HW298193   4.407  11.863   0.209
65454SOL     OW98194   0.311   7.292   0.114
65454SOL    HW198195   0.339   7.382   0.096
65454SOL    HW298196   0.385   7.253   0.160
65455SOL     OW98197  12.755   7.120   2.056
65455SOL    HW198198  12.719   7.139   2.143
65455SOL    HW298199  12.732   7.196   2.003
65456SOL     OW98200   5.221   9.532   2.511
65456SOL    HW198201   5.137   9.504   2.475
65456SOL    HW298202   5.207   9.535   2.606
65457SOL     OW98203   8.600   7.471  11.160
65457SOL    HW198204   8.604   7.507  11.249
65457SOL    HW298205   8.508   7.480  11.135
65458SOL     OW98206  14.842   0.830   9.356
65458SOL    HW198207   0.041   0.776   9.372
65458SOL    HW298208  14.842   0.893   9.428
65459SOL     OW98209  11.815  12.835   1.620
65459SOL    HW198210  11.734  12.886   1.625
65459SOL    HW298211  11.789  12.746   1.645
65460SOL     OW98212   5.872   5.116   1.168
65460SOL    HW198213   5.841   5.202   1.198
65460SOL    HW298214   5.966   5.130   1.151
65461SOL     OW98215  12.909   5.260  13.596
65461SOL    HW198216  12.946   5.349  13.601
65461SOL    HW298217  12.945   5.224  13.515
65462SOL     OW98218   0.063  14.379  12.500
65462SOL    HW198219   0.075  14.422  12.585
65462SOL    HW298220   0.134  14.316  12.494
65463SOL     OW98221  12.088  13.156   5.575
65463SOL    HW198222  12.071  13.228   5.635
65463SOL    HW298223  12.149  13.099   5.622
65464SOL     OW98224   5.208   6.577   9.912
65464SOL    HW198225   5.195   6.538   9.998
65464SOL    HW298226   5.302   6.595   9.907
65465SOL     OW98227  12.395  14.480   3.542
65465SOL    HW198228  12.487  14.497   3.558
65465SOL    HW298229  12.389  14.467   3.447
65466SOL     OW98230   4.646   2.922   5.508
65466SOL    HW198231   4.591   2.970   5.570
65466SOL    HW298232   4.649   2.977   5.431
65467SOL     OW98233   3.735   6.113   7.193
65467SOL    HW198234   3.764   6.177   7.128
65467SOL    HW298235   3.733   6.162   7.276
65468SOL     OW98236   6.289  13.664   0.001
65468SOL    HW198237   6.258  13.669  14.789
65468SOL    HW298238   6.384  13.653  14.873
65469SOL     OW98239  13.482   8.997   8.438
65469SOL    HW198240  13.403   8.984   8.385
65469SOL    HW298241  13.519   8.909   8.446
65470SOL     OW98242  12.177   3.166   8.207
65470SOL    HW198243  12.242   3.097   8.224
65470SOL    HW298244  12.195   3.194   8.117
65471SOL     OW98245  14.262  11.851   1.877
65471SOL    HW198246  14.267  11.776   1.937
65471SOL    HW298247  14.187  11.902   1.909
65472SOL     OW98248   6.165   6.170   8.943
65472SOL    HW198249   6.152   6.160   9.037
65472SOL    HW298250   6.079   6.149   8.905
65473SOL     OW98251   8.442   5.999  10.029
65473SOL    HW198252   8.409   5.921  10.074
65473SOL    HW298253   8.452   5.972   9.938
65474SOL     OW98254   6.207   9.174  14.304
65474SOL    HW198255   6.260   9.131  14.237
65474SOL    HW298256   6.266   9.186  14.378
65475SOL     OW98257  14.472   4.803   0.485
65475SOL    HW198258  14.470   4.715   0.446
65475SOL    HW298259  14.443   4.790   0.575
65476SOL     OW98260   5.506   5.467  11.891
65476SOL    HW198261   5.428   5.509  11.855
65476SOL    HW298262   5.529   5.401  11.826
65477SOL     OW98263   7.159   4.111   5.053
65477SOL    HW198264   7.246   4.077   5.032
65477SOL    HW298265   7.109   4.035   5.081
65478SOL     OW98266   0.454   7.743  11.954
65478SOL    HW198267   0.522   7.717  11.892
65478SOL    HW298268   0.372   7.721  11.911
65479SOL     OW98269   2.230   2.824  10.590
65479SOL    HW198270   2.211   2.738  10.628
65479SOL    HW298271   2.151   2.847  10.540
65480SOL     OW98272   6.219  11.493   4.034
65480SOL    HW198273   6.285  11.540   3.983
65480SOL    HW298274   6.149  11.473   3.971
65481SOL     OW98275   0.249   8.034   1.223
65481SOL    HW198276   0.251   8.112   1.278
65481SOL    HW298277   0.245   8.069   1.134
65482SOL     OW98278  10.096   7.747   2.585
65482SOL    HW198279  10.041   7.733   2.508
65482SOL    HW298280  10.035   7.748   2.659
65483SOL     OW98281   6.502  12.338  11.790
65483SOL    HW198282   6.418  12.292  11.800
65483SOL    HW298283   6.542  12.335  11.876
65484SOL     OW98284  11.678   9.358   9.421
65484SOL    HW198285  11.622   9.425   9.381
65484SOL    HW298286  11.752   9.408   9.457
65485SOL     OW98287  10.292   4.985  13.943
65485SOL    HW198288  10.252   4.902  13.919
65485SOL    HW298289  10.385   4.965  13.955
65486SOL     OW98290   4.112   2.204   8.744
65486SOL    HW198291   4.191   2.253   8.763
65486SOL    HW298292   4.098   2.150   8.823
65487SOL     OW98293  13.871   1.963   1.090
65487SOL    HW198294  13.856   2.040   1.145
65487SOL    HW298295  13.963   1.940   1.105
65488SOL     OW98296  11.458   5.029   2.517
65488SOL    HW198297  11.441   5.062   2.429
65488SOL    HW298298  11.371   5.016   2.555
65489SOL     OW98299  13.798  13.473  14.702
65489SOL    HW198300  13.754  13.532  14.763
65489SOL    HW298301  13.799  13.521  14.619
65490SOL     OW98302   6.354   5.941   4.955
65490SOL    HW198303   6.419   5.872   4.938
65490SOL    HW298304   6.356   5.995   4.876
65491SOL     OW98305   4.360   7.890   3.980
65491SOL    HW198306   4.371   7.819   3.916
65491SOL    HW298307   4.449   7.911   4.008
65492SOL     OW98308   3.635   6.946   5.038
65492SOL    HW198309   3.542   6.970   5.039
65492SOL    HW298310   3.676   7.012   4.982
65493SOL     OW98311  14.222   0.003  14.676
65493SOL    HW198312  14.303   0.015  14.726
65493SOL    HW298313  14.166  14.829  14.734
65494SOL     OW98314  13.359   3.971   0.887
65494SOL    HW198315  13.313   3.898   0.929
65494SOL    HW298316  13.326   4.049   0.931
65495SOL     OW98317  11.009  13.192   6.180
65495SOL    HW198318  10.980  13.175   6.269
65495SOL    HW298319  10.932  13.170   6.126
65496SOL     OW98320  12.768  11.912   7.606
65496SOL    HW198321  12.823  11.937   7.680
65496SOL    HW298322  12.809  11.832   7.571
65497SOL     OW98323   6.387  10.705   7.279
65497SOL    HW198324   6.378  10.655   7.360
65497SOL    HW298325   6.315  10.675   7.224
65498SOL     OW98326  12.237   7.646   3.379
65498SOL    HW198327  12.271   7.731   3.350
65498SOL    HW298328  12.159   7.632   3.326
65499SOL     OW98329   9.658   3.054   9.151
65499SOL    HW198330   9.602   3.119   9.192
65499SOL    HW298331   9.598   2.991   9.112
65500SOL     OW98332  11.240   2.897   5.693
65500SOL    HW198333  11.219   2.919   5.603
65500SOL    HW298334  11.331   2.924   5.704
65501SOL     OW98335  10.119  13.019   1.944
65501SOL    HW198336  10.142  12.991   1.855
65501SOL    HW298337  10.050  12.959   1.971
65502SOL     OW98338   5.731  10.104  11.673
65502SOL    HW198339   5.765  10.140  11.755
65502SOL    HW298340   5.663  10.166  11.645
65503SOL     OW98341   2.522   8.417   3.055
65503SOL    HW198342   2.470   8.423   2.975
65503SOL    HW298343   2.612   8.433   3.027
65504SOL     OW98344   5.581   2.108   1.400
65504SOL    HW198345   5.612   2.018   1.408
65504SOL    HW298346   5.533   2.125   1.481
65505SOL     OW98347   4.248  14.669   6.670
65505SOL    HW198348   4.161  14.696   6.699
65505SOL    HW298349   4.307  14.734   6.707
65506SOL     OW98350   1.404   8.336   7.427
65506SOL    HW198351   1.406   8.335   7.331
65506SOL    HW298352   1.348   8.410   7.450
65507SOL     OW98353  12.498  12.568  13.831
65507SOL    HW198354  12.444  12.643  13.805
65507SOL    HW298355  12.485  12.503  13.763
65508SOL     OW98356   4.595   8.212  14.394
65508SOL    HW198357   4.631   8.240  14.478
65508SOL    HW298358   4.668   8.170  14.349
65509SOL     OW98359  10.318   4.244   5.877
65509SOL    HW198360  10.391   4.281   5.828
65509SOL    HW298361  10.324   4.150   5.862
65510SOL     OW98362  12.047  14.246  14.653
65510SOL    HW198363  11.976  14.260  14.715
65510SOL    HW298364  12.051  14.327  14.602
65511SOL     OW98365   1.207   8.282   2.427
65511SOL    HW198366   1.213   8.370   2.391
65511SOL    HW298367   1.280   8.277   2.489
65512SOL     OW98368   2.558   4.667   8.967
65512SOL    HW198369   2.510   4.748   8.982
65512SOL    HW298370   2.586   4.673   8.876
65513SOL     OW98371   6.455   3.600  14.579
65513SOL    HW198372   6.470   3.670  14.516
65513SOL    HW298373   6.524   3.536  14.561
65514SOL     OW98374   1.470   6.495  13.365
65514SOL    HW198375   1.560   6.491  13.397
65514SOL    HW298376   1.417   6.469  13.440
65515SOL     OW98377  13.478  11.877  13.639
65515SOL    HW198378  13.544  11.932  13.595
65515SOL    HW298379  13.495  11.789  13.606
65516SOL     OW98380  12.953   6.055  12.861
65516SOL    HW198381  13.014   6.121  12.894
65516SOL    HW298382  12.996   5.972  12.880
65517SOL     OW98383   9.771   3.054  13.302
65517SOL    HW198384   9.702   2.995  13.271
65517SOL    HW298385   9.801   3.100  13.223
65518SOL     OW98386  10.095  10.155   3.358
65518SOL    HW198387  10.037  10.210   3.305
65518SOL    HW298388  10.038  10.113   3.422
65519SOL     OW98389   7.297   8.855   2.499
65519SOL    HW198390   7.329   8.945   2.508
65519SOL    HW298391   7.283   8.843   2.405
65520SOL     OW98392  11.340   1.892   3.742
65520SOL    HW198393  11.413   1.849   3.696
65520SOL    HW298394  11.263   1.839   3.719
65521SOL     OW98395  10.304   6.494   5.991
65521SOL    HW198396  10.341   6.444   5.918
65521SOL    HW298397  10.264   6.428   6.048
65522SOL     OW98398   3.218  10.275   5.734
65522SOL    HW198399   3.190  10.305   5.820
65522SOL    HW298400   3.236  10.182   5.745
65523SOL     OW98401   2.277   6.918   4.507
65523SOL    HW198402   2.310   6.828   4.503
65523SOL    HW298403   2.331   6.960   4.574
65524SOL     OW98404   7.431  11.816  14.512
65524SOL    HW198405   7.369  11.763  14.562
65524SOL    HW298406   7.425  11.783  14.422
65525SOL     OW98407  14.790  14.516  10.235
65525SOL    HW198408  14.800  14.464  10.315
65525SOL    HW298409  14.794  14.607  10.264
65526SOL     OW98410   1.459  10.082   8.569
65526SOL    HW198411   1.537  10.056   8.618
65526SOL    HW298412   1.431  10.163   8.610
65527SOL     OW98413   2.485  12.678   6.626
65527SOL    HW198414   2.442  12.759   6.598
65527SOL    HW298415   2.574  12.704   6.649
65528SOL     OW98416   6.784   7.037   0.616
65528SOL    HW198417   6.842   7.061   0.544
65528SOL    HW298418   6.699   7.074   0.592
65529SOL     OW98419   1.151   9.171  12.856
65529SOL    HW198420   1.231   9.133  12.819
65529SOL    HW298421   1.177   9.258  12.887
65530SOL     OW98422   8.483   7.811   1.270
65530SOL    HW198423   8.504   7.723   1.239
65530SOL    HW298424   8.474   7.801   1.365
65531SOL     OW98425  13.820   4.463   4.919
65531SOL    HW198426  13.801   4.482   4.827
65531SOL    HW298427  13.795   4.372   4.931
65532SOL     OW98428  14.589   3.860   1.562
65532SOL    HW198429  14.626   3.888   1.646
65532SOL    HW298430  14.576   3.941   1.513
65533SOL     OW98431  12.198   4.341   5.266
65533SOL    HW198432  12.166   4.365   5.353
65533SOL    HW298433  12.138   4.384   5.205
65534SOL     OW98434   2.140   6.095   9.604
65534SOL    HW198435   2.105   6.179   9.573
65534SOL    HW298436   2.130   6.099   9.699
65535SOL     OW98437   9.253   6.235   0.065
65535SOL    HW198438   9.255   6.146   0.029
65535SOL    HW298439   9.179   6.277   0.022
65536SOL     OW98440   2.393   9.396   4.847
65536SOL    HW198441   2.413   9.305   4.868
65536SOL    HW298442   2.461   9.447   4.892
65537SOL     OW98443   5.769   5.386  12.735
65537SOL    HW198444   5.749   5.369  12.643
65537SOL    HW298445   5.728   5.471  12.754
65538SOL     OW98446  11.411   9.996   2.033
65538SOL    HW198447  11.493  10.027   2.072
65538SOL    HW298448  11.436   9.966   1.946
65539SOL     OW98449   3.390   2.972  13.275
65539SOL    HW198450   3.375   2.984  13.369
65539SOL    HW298451   3.403   2.878  13.265
65540SOL     OW98452   4.989   0.425  14.364
65540SOL    HW198453   4.991   0.516  14.392
65540SOL    HW298454   5.043   0.422  14.285
65541SOL     OW98455  12.909   2.815   3.700
65541SOL    HW198456  12.934   2.726   3.722
65541SOL    HW298457  12.814   2.814   3.698
65542SOL     OW98458   4.874  10.277  14.863
65542SOL    HW198459   4.830  10.355  14.830
65542SOL    HW298460   4.886  10.222  14.785
65543SOL     OW98461   3.738   8.442   5.738
65543SOL    HW198462   3.779   8.521   5.703
65543SOL    HW298463   3.796   8.371   5.711
65544SOL     OW98464   9.165  12.260  10.769
65544SOL    HW198465   9.115  12.179  10.771
65544SOL    HW298466   9.149  12.301  10.854
65545SOL     OW98467   3.275   2.480  12.382
65545SOL    HW198468   3.351   2.436  12.420
65545SOL    HW298469   3.200   2.425  12.405
65546SOL     OW98470  14.625   2.180   1.375
65546SOL    HW198471  14.588   2.267   1.390
65546SOL    HW298472  14.654   2.181   1.284
65547SOL     OW98473   3.305   5.632  13.142
65547SOL    HW198474   3.291   5.724  13.166
65547SOL    HW298475   3.390   5.610  13.179
65548SOL     OW98476   5.353  12.271  13.085
65548SOL    HW198477   5.345  12.214  13.161
65548SOL    HW298478   5.384  12.214  13.015
65549SOL     OW98479   9.231   2.357   8.734
65549SOL    HW198480   9.215   2.452   8.733
65549SOL    HW298481   9.144   2.318   8.741
65550SOL     OW98482   0.453   9.844   5.358
65550SOL    HW198483   0.362   9.869   5.374
65550SOL    HW298484   0.456   9.751   5.380
65551SOL     OW98485   1.709   1.290   6.223
65551SOL    HW198486   1.665   1.209   6.198
65551SOL    HW298487   1.796   1.262   6.251
65552SOL     OW98488   8.550   3.558  12.805
65552SOL    HW198489   8.469   3.583  12.760
65552SOL    HW298490   8.578   3.478  12.760
65553SOL     OW98491   3.674  12.732   7.772
65553SOL    HW198492   3.696  12.640   7.788
65553SOL    HW298493   3.588  12.742   7.813
65554SOL     OW98494  12.064  10.601  13.979
65554SOL    HW198495  12.073  10.585  14.073
65554SOL    HW298496  12.153  10.599  13.945
65555SOL     OW98497   8.601   7.144   0.843
65555SOL    HW198498   8.552   7.128   0.924
65555SOL    HW298499   8.679   7.192   0.871
65556SOL     OW98500   3.905   6.336   2.274
65556SOL    HW198501   3.893   6.328   2.179
65556SOL    HW298502   3.894   6.247   2.307
65557SOL     OW98503  13.974   4.655   5.716
65557SOL    HW198504  13.931   4.622   5.637
65557SOL    HW298505  13.923   4.731   5.743
65558SOL     OW98506   9.044   2.428   1.081
65558SOL    HW198507   8.984   2.466   1.146
65558SOL    HW298508   9.091   2.361   1.130
65559SOL     OW98509   6.987   4.324   0.820
65559SOL    HW198510   6.968   4.306   0.912
65559SOL    HW298511   6.986   4.420   0.814
65560SOL     OW98512   0.524   0.320   1.036
65560SOL    HW198513   0.462   0.272   0.980
65560SOL    HW298514   0.600   0.263   1.043
65561SOL     OW98515   2.802  11.125   9.079
65561SOL    HW198516   2.709  11.105   9.068
65561SOL    HW298517   2.840  11.109   8.993
65562SOL     OW98518  14.165  10.558   8.862
65562SOL    HW198519  14.245  10.610   8.857
65562SOL    HW298520  14.096  10.616   8.831
65563SOL     OW98521   1.797   1.127  12.914
65563SOL    HW198522   1.822   1.175  12.835
65563SOL    HW298523   1.706   1.100  12.898
65564SOL     OW98524  12.033   5.018  12.361
65564SOL    HW198525  11.942   4.990  12.361
65564SOL    HW298526  12.066   4.993  12.448
65565SOL     OW98527   7.334   6.967  12.423
65565SOL    HW198528   7.343   6.911  12.346
65565SOL    HW298529   7.272   7.035  12.396
65566SOL     OW98530   8.220   3.024   8.495
65566SOL    HW198531   8.295   3.021   8.436
65566SOL    HW298532   8.201   3.117   8.506
65567SOL     OW98533   1.835   5.667   0.895
65567SOL    HW198534   1.848   5.625   0.811
65567SOL    HW298535   1.920   5.704   0.918
65568SOL     OW98536   8.098   5.082   4.926
65568SOL    HW198537   8.093   5.137   4.847
65568SOL    HW298538   8.170   5.120   4.977
65569SOL     OW98539   7.075  12.667   8.484
65569SOL    HW198540   7.157  12.648   8.439
65569SOL    HW298541   7.022  12.714   8.419
65570SOL     OW98542   3.553  12.829   8.036
65570SOL    HW198543   3.486  12.768   8.067
65570SOL    HW298544   3.517  12.867   7.956
65571SOL     OW98545   2.658  11.149   0.153
65571SOL    HW198546   2.568  11.121   0.135
65571SOL    HW298547   2.690  11.087   0.218
65572SOL     OW98548   5.766   6.008   3.983
65572SOL    HW198549   5.749   6.102   3.986
65572SOL    HW298550   5.838   5.999   3.921
65573SOL     OW98551  13.277   2.703   7.586
65573SOL    HW198552  13.205   2.728   7.528
65573SOL    HW298553  13.345   2.769   7.570
65574SOL     OW98554   4.217   6.723  14.002
65574SOL    HW198555   4.295   6.672  13.977
65574SOL    HW298556   4.219   6.799  13.944
65575SOL     OW98557   9.921   2.803  11.913
65575SOL    HW198558   9.959   2.874  11.861
65575SOL    HW298559   9.982   2.730  11.902
65576SOL     OW98560   8.352   4.638   6.973
65576SOL    HW198561   8.404   4.627   7.052
65576SOL    HW298562   8.378   4.564   6.917
65577SOL     OW98563  11.389   7.320   1.187
65577SOL    HW198564  11.294   7.312   1.176
65577SOL    HW298565  11.401   7.406   1.227
65578SOL     OW98566   0.886   0.944  14.303
65578SOL    HW198567   0.827   0.878  14.339
65578SOL    HW298568   0.830   0.999  14.248
65579SOL     OW98569   4.171   8.711   8.832
65579SOL    HW198570   4.136   8.681   8.748
65579SOL    HW298571   4.095   8.749   8.877
65580SOL     OW98572  10.465   3.484  12.109
65580SOL    HW198573  10.534   3.549  12.094
65580SOL    HW298574  10.417   3.517  12.185
65581SOL     OW98575   1.780   7.440  11.942
65581SOL    HW198576   1.767   7.392  12.023
65581SOL    HW298577   1.812   7.375  11.880
65582SOL     OW98578  11.980  12.049   4.360
65582SOL    HW198579  12.037  11.978   4.392
65582SOL    HW298580  11.891  12.018   4.378
65583SOL     OW98581   7.674  13.678  13.118
65583SOL    HW198582   7.614  13.627  13.173
65583SOL    HW298583   7.634  13.765  13.113
65584SOL     OW98584   8.021   2.766  14.650
65584SOL    HW198585   7.973   2.825  14.708
65584SOL    HW298586   8.082   2.720  14.708
65585SOL     OW98587   0.968  10.923  12.375
65585SOL    HW198588   0.941  10.840  12.336
65585SOL    HW298589   1.063  10.916  12.385
65586SOL     OW98590  10.237   8.947   3.059
65586SOL    HW198591  10.221   8.939   2.965
65586SOL    HW298592  10.299   8.876   3.079
65587SOL     OW98593  13.621   9.204  10.642
65587SOL    HW198594  13.711   9.204  10.609
65587SOL    HW298595  13.598   9.296  10.649
65588SOL     OW98596  13.983   7.336   4.808
65588SOL    HW198597  13.983   7.412   4.750
65588SOL    HW298598  13.907   7.285   4.780
65589SOL     OW98599  14.230  10.935   1.387
65589SOL    HW198600  14.310  10.961   1.433
65589SOL    HW298601  14.173  11.011   1.393
65590SOL     OW98602  10.423   8.672   4.923
65590SOL    HW198603  10.475   8.607   4.877
65590SOL    HW298604  10.440   8.754   4.876
65591SOL     OW98605   5.700   8.782   5.069
65591SOL    HW198606   5.639   8.710   5.086
65591SOL    HW298607   5.785   8.749   5.100
65592SOL     OW98608   0.922   4.078  14.457
65592SOL    HW198609   0.872   4.086  14.376
65592SOL    HW298610   0.920   3.984  14.478
65593SOL     OW98611   9.692   5.291  14.550
65593SOL    HW198612   9.704   5.385  14.546
65593SOL    HW298613   9.679   5.273  14.644
65594SOL     OW98614   4.995   0.061   5.586
65594SOL    HW198615   4.907   0.082   5.618
65594SOL    HW298616   4.986  14.855   5.544
65595SOL     OW98617   5.197  13.290   1.453
65595SOL    HW198618   5.212  13.196   1.443
65595SOL    HW298619   5.148  13.315   1.375
65596SOL     OW98620  10.047  11.697   0.468
65596SOL    HW198621  10.006  11.611   0.459
65596SOL    HW298622  10.077  11.700   0.559
65597SOL     OW98623  13.309  12.990   6.747
65597SOL    HW198624  13.306  12.964   6.839
65597SOL    HW298625  13.356  13.073   6.746
65598SOL     OW98626   2.854  11.699   4.767
65598SOL    HW198627   2.913  11.625   4.755
65598SOL    HW298628   2.773  11.674   4.723
65599SOL     OW98629   9.214   2.634   9.346
65599SOL    HW198630   9.128   2.595   9.363
65599SOL    HW298631   9.213   2.654   9.253
65600SOL     OW98632   0.473   0.249   2.186
65600SOL    HW198633   0.495   0.329   2.137
65600SOL    HW298634   0.544   0.240   2.249
65601SOL     OW98635   1.836   3.810  11.553
65601SOL    HW198636   1.888   3.856  11.488
65601SOL    HW298637   1.809   3.729  11.509
65602SOL     OW98638   2.143   2.573   9.253
65602SOL    HW198639   2.088   2.611   9.322
65602SOL    HW298640   2.123   2.480   9.254
65603SOL     OW98641  10.746   9.791   7.863
65603SOL    HW198642  10.663   9.802   7.909
65603SOL    HW298643  10.811   9.783   7.932
65604SOL     OW98644  10.524   6.419  10.818
65604SOL    HW198645  10.562   6.494  10.772
65604SOL    HW298646  10.429   6.433  10.811
65605SOL     OW98647   7.755   0.484  10.426
65605SOL    HW198648   7.800   0.457  10.506
65605SOL    HW298649   7.816   0.464  10.356
65606SOL     OW98650   1.634  10.057   4.485
65606SOL    HW198651   1.689  10.019   4.554
65606SOL    HW298652   1.640  10.151   4.500
65607SOL     OW98653   8.412   7.705   4.124
65607SOL    HW198654   8.455   7.674   4.203
65607SOL    HW298655   8.466   7.778   4.094
65608SOL     OW98656   9.449   3.861  12.013
65608SOL    HW198657   9.532   3.846  12.059
65608SOL    HW298658   9.451   3.955  11.993
65609SOL     OW98659  13.759  10.338   8.319
65609SOL    HW198660  13.702  10.263   8.337
65609SOL    HW298661  13.736  10.365   8.230
65610SOL     OW98662   7.698   7.769  12.699
65610SOL    HW198663   7.755   7.692  12.701
65610SOL    HW298664   7.740   7.827  12.634
65611SOL     OW98665   2.980   7.354   6.006
65611SOL    HW198666   3.048   7.420   5.993
65611SOL    HW298667   2.994   7.291   5.935
65612SOL     OW98668   6.808   2.958  10.646
65612SOL    HW198669   6.739   3.023  10.634
65612SOL    HW298670   6.886   3.010  10.668
65613SOL     OW98671   1.412  10.174  12.426
65613SOL    HW198672   1.440  10.203  12.339
65613SOL    HW298673   1.450  10.238  12.486
65614SOL     OW98674  14.195  12.640   3.411
65614SOL    HW198675  14.280  12.596   3.410
65614SOL    HW298676  14.206  12.711   3.475
65615SOL     OW98677  14.477   8.617  11.814
65615SOL    HW198678  14.404   8.677  11.799
65615SOL    HW298679  14.553   8.674  11.826
65616SOL     OW98680   5.545  10.673   9.686
65616SOL    HW198681   5.544  10.749   9.628
65616SOL    HW298682   5.453  10.662   9.713
65617SOL     OW98683   5.572  13.451  14.872
65617SOL    HW198684   5.488  13.453  14.826
65617SOL    HW298685   5.630  13.400  14.816
65618SOL     OW98686   5.154   9.973  13.743
65618SOL    HW198687   5.180   9.967  13.652
65618SOL    HW298688   5.059   9.972  13.741
65619SOL     OW98689   1.349   5.964   8.068
65619SOL    HW198690   1.283   5.984   8.134
65619SOL    HW298691   1.314   5.890   8.020
65620SOL     OW98692  10.386  13.298  10.606
65620SOL    HW198693  10.446  13.373  10.608
65620SOL    HW298694  10.371  13.282  10.513
65621SOL     OW98695   0.303   7.289   9.852
65621SOL    HW198696   0.388   7.273   9.809
65621SOL    HW298697   0.241   7.293   9.780
65622SOL     OW98698   7.991  13.766   9.381
65622SOL    HW198699   8.079  13.730   9.395
65622SOL    HW298700   7.937  13.689   9.361
65623SOL     OW98701   8.539  12.514   5.861
65623SOL    HW198702   8.549  12.598   5.816
65623SOL    HW298703   8.596  12.520   5.937
65624SOL     OW98704   2.683   3.746  14.131
65624SOL    HW198705   2.742   3.798  14.185
65624SOL    HW298706   2.601   3.796  14.130
65625SOL     OW98707  11.101  13.848   4.171
65625SOL    HW198708  11.062  13.781   4.115
65625SOL    HW298709  11.123  13.802   4.252
65626SOL     OW98710  13.814  14.871  12.294
65626SOL    HW198711  13.745  14.822  12.249
65626SOL    HW298712  13.778   0.009  12.381
65627SOL     OW98713   1.719   6.437   3.632
65627SOL    HW198714   1.768   6.355   3.623
65627SOL    HW298715   1.705   6.466   3.542
65628SOL     OW98716   3.200  13.282   0.545
65628SOL    HW198717   3.150  13.333   0.610
65628SOL    HW298718   3.287  13.321   0.547
65629SOL     OW98719  13.204  10.421   7.918
65629SOL    HW198720  13.146  10.352   7.883
65629SOL    HW298721  13.158  10.503   7.899
65630SOL     OW98722  11.078  11.050  10.011
65630SOL    HW198723  11.164  11.030  10.049
65630SOL    HW298724  11.091  11.041   9.917
65631SOL     OW98725   0.805  10.919   1.843
65631SOL    HW198726   0.723  10.884   1.876
65631SOL    HW298727   0.853  10.945   1.922
65632SOL     OW98728  10.008  13.556   5.849
65632SOL    HW198729  10.088  13.581   5.803
65632SOL    HW298730   9.973  13.482   5.799
65633SOL     OW98731   8.677  10.533   3.204
65633SOL    HW198732   8.669  10.496   3.292
65633SOL    HW298733   8.588  10.530   3.169
65634SOL     OW98734   2.950   5.571   1.438
65634SOL    HW198735   3.012   5.538   1.372
65634SOL    HW298736   2.998   5.565   1.521
65635SOL     OW98737   5.348   4.555   8.827
65635SOL    HW198738   5.291   4.489   8.866
65635SOL    HW298739   5.432   4.511   8.817
65636SOL     OW98740   1.405   2.331   9.876
65636SOL    HW198741   1.360   2.265   9.824
65636SOL    HW298742   1.345   2.405   9.879
65637SOL     OW98743  10.813   3.103   0.663
65637SOL    HW198744  10.723   3.089   0.695
65637SOL    HW298745  10.861   3.134   0.740
65638SOL     OW98746  11.332   2.641   5.239
65638SOL    HW198747  11.373   2.607   5.319
65638SOL    HW298748  11.396   2.701   5.203
65639SOL     OW98749  12.407  14.746   4.236
65639SOL    HW198750  12.472  14.773   4.301
65639SOL    HW298751  12.426  14.801   4.160
65640SOL     OW98752   1.184  14.802   0.869
65640SOL    HW198753   1.186  14.709   0.890
65640SOL    HW298754   1.094  14.819   0.843
65641SOL     OW98755   4.993   2.567   2.900
65641SOL    HW198756   5.070   2.586   2.954
65641SOL    HW298757   4.982   2.472   2.907
65642SOL     OW98758   3.466   8.159   0.730
65642SOL    HW198759   3.557   8.131   0.741
65642SOL    HW298760   3.444   8.132   0.641
65643SOL     OW98761   6.298   4.053  11.395
65643SOL    HW198762   6.248   4.084  11.470
65643SOL    HW298763   6.264   3.965  11.378
65644SOL     OW98764   2.715   6.039   1.062
65644SOL    HW198765   2.646   5.973   1.052
65644SOL    HW298766   2.669   6.120   1.083
65645SOL     OW98767   4.899  11.301   3.924
65645SOL    HW198768   4.852  11.322   3.844
65645SOL    HW298769   4.936  11.214   3.908
65646SOL     OW98770   0.744   4.403  11.481
65646SOL    HW198771   0.689   4.390  11.559
65646SOL    HW298772   0.722   4.330  11.424
65647SOL     OW98773   4.501   4.121   4.781
65647SOL    HW198774   4.443   4.046   4.769
65647SOL    HW298775   4.509   4.160   4.694
65648SOL     OW98776  14.205   2.431  11.549
65648SOL    HW198777  14.133   2.393  11.498
65648SOL    HW298778  14.248   2.355  11.589
65649SOL     OW98779  13.994   9.691   1.907
65649SOL    HW198780  14.070   9.655   1.952
65649SOL    HW298781  14.025   9.708   1.818
65650SOL     OW98782  14.806  13.604  11.560
65650SOL    HW198783  14.756  13.548  11.619
65650SOL    HW298784  14.846  13.670  11.617
65651SOL     OW98785   2.400   8.860   5.804
65651SOL    HW198786   2.326   8.919   5.788
65651SOL    HW298787   2.474   8.901   5.761
65652SOL     OW98788   0.096  13.230   5.761
65652SOL    HW198789   0.065  13.181   5.838
65652SOL    HW298790   0.169  13.282   5.793
65653SOL     OW98791  14.491   4.414   4.724
65653SOL    HW198792  14.531   4.350   4.665
65653SOL    HW298793  14.508   4.380   4.811
65654SOL     OW98794   0.597   6.387   3.808
65654SOL    HW198795   0.539   6.316   3.834
65654SOL    HW298796   0.538   6.458   3.782
65655SOL     OW98797   3.712   0.074  12.069
65655SOL    HW198798   3.802   0.048  12.092
65655SOL    HW298799   3.698   0.039  11.981
65656SOL     OW98800   7.496  10.939  10.813
65656SOL    HW198801   7.511  11.026  10.776
65656SOL    HW298802   7.413  10.912  10.776
65657SOL     OW98803   9.505   7.941   1.122
65657SOL    HW198804   9.529   8.034   1.120
65657SOL    HW298805   9.511   7.913   1.030
65658SOL     OW98806   7.303   3.706  11.402
65658SOL    HW198807   7.242   3.660  11.344
65658SOL    HW298808   7.249   3.734  11.476
65659SOL     OW98809   4.199   2.427   7.392
65659SOL    HW198810   4.117   2.423   7.441
65659SOL    HW298811   4.179   2.479   7.314
65660SOL     OW98812  10.987  11.140  13.269
65660SOL    HW198813  10.891  11.143  13.262
65660SOL    HW298814  11.019  11.156  13.181
65661SOL     OW98815   8.161  13.380   1.187
65661SOL    HW198816   8.193  13.303   1.235
65661SOL    HW298817   8.155  13.351   1.096
65662SOL     OW98818  10.022   5.460   4.726
65662SOL    HW198819   9.929   5.481   4.731
65662SOL    HW298820  10.045   5.478   4.634
65663SOL     OW98821  10.678   4.527   2.919
65663SOL    HW198822  10.635   4.445   2.896
65663SOL    HW298823  10.758   4.528   2.867
65664SOL     OW98824   8.129   8.933  14.446
65664SOL    HW198825   8.190   8.930  14.519
65664SOL    HW298826   8.085   8.848  14.448
65665SOL     OW98827   0.738  11.379   4.616
65665SOL    HW198828   0.696  11.346   4.537
65665SOL    HW298829   0.681  11.351   4.687
65666SOL     OW98830   2.950   2.698   7.278
65666SOL    HW198831   2.950   2.650   7.361
65666SOL    HW298832   2.918   2.634   7.214
65667SOL     OW98833  11.487   8.448  10.251
65667SOL    HW198834  11.453   8.362  10.275
65667SOL    HW298835  11.575   8.450  10.289
65668SOL     OW98836   3.665   4.906  10.338
65668SOL    HW198837   3.640   4.887  10.247
65668SOL    HW298838   3.589   4.952  10.374
65669SOL     OW98839  10.625   2.282  10.850
65669SOL    HW198840  10.640   2.355  10.910
65669SOL    HW298841  10.530   2.268  10.853
65670SOL     OW98842   9.972  10.117   7.645
65670SOL    HW198843  10.010  10.170   7.715
65670SOL    HW298844   9.900  10.170   7.612
65671SOL     OW98845  11.028   1.965  10.691
65671SOL    HW198846  10.983   1.882  10.670
65671SOL    HW298847  10.962   2.016  10.737
65672SOL     OW98848  11.274   1.328  10.160
65672SOL    HW198849  11.232   1.402  10.116
65672SOL    HW298850  11.261   1.254  10.101
65673SOL     OW98851  10.742   5.477  11.146
65673SOL    HW198852  10.820   5.531  11.140
65673SOL    HW298853  10.706   5.476  11.057
65674SOL     OW98854  10.638  10.160  11.356
65674SOL    HW198855  10.673  10.204  11.433
65674SOL    HW298856  10.569  10.104  11.389
65675SOL     OW98857   0.917  10.785   1.330
65675SOL    HW198858   0.949  10.698   1.309
65675SOL    HW298859   0.949  10.840   1.258
65676SOL     OW98860   0.089   2.459   3.107
65676SOL    HW198861   0.142   2.512   3.048
65676SOL    HW298862   0.084   2.510   3.188
65677SOL     OW98863   4.010   7.990  13.799
65677SOL    HW198864   4.050   8.069  13.835
65677SOL    HW298865   4.084   7.937  13.767
65678SOL     OW98866   9.333  14.115   5.599
65678SOL    HW198867   9.375  14.050   5.655
65678SOL    HW298868   9.248  14.077   5.578
65679SOL     OW98869  14.711   8.741   4.347
65679SOL    HW198870  14.737   8.778   4.431
65679SOL    HW298871  14.669   8.814   4.300
65680SOL     OW98872  14.405  14.803   3.729
65680SOL    HW198873  14.418  14.735   3.662
65680SOL    HW298874  14.311  14.823   3.725
65681SOL     OW98875  14.024   5.374   3.737
65681SOL    HW198876  13.935   5.340   3.735
65681SOL    HW298877  14.019   5.456   3.787
65682SOL     OW98878  14.672   8.820  13.253
65682SOL    HW198879  14.624   8.759  13.197
65682SOL    HW298880  14.709   8.884  13.193
65683SOL     OW98881   7.286   1.420   0.394
65683SOL    HW198882   7.219   1.469   0.442
65683SOL    HW298883   7.314   1.351   0.454
65684SOL     OW98884  11.577   9.870  12.342
65684SOL    HW198885  11.567   9.872  12.247
65684SOL    HW298886  11.502   9.920  12.376
65685SOL     OW98887   5.743   3.361  14.835
65685SOL    HW198888   5.746   3.265  14.830
65685SOL    HW298889   5.829   3.386  14.869
65686SOL     OW98890   1.340  13.160   0.579
65686SOL    HW198891   1.411  13.131   0.636
65686SOL    HW298892   1.360  13.120   0.494
65687SOL     OW98893  13.618   6.601   0.925
65687SOL    HW198894  13.588   6.686   0.893
65687SOL    HW298895  13.605   6.605   1.020
65688SOL     OW98896  10.964   9.709  14.053
65688SOL    HW198897  10.934   9.716  14.144
65688SOL    HW298898  10.974   9.615  14.038
65689SOL     OW98899   5.145   3.262   8.880
65689SOL    HW198900   5.202   3.338   8.872
65689SOL    HW298901   5.121   3.240   8.790
65690SOL     OW98902   5.997  10.506   3.739
65690SOL    HW198903   6.076  10.455   3.759
65690SOL    HW298904   6.009  10.588   3.786
65691SOL     OW98905   2.160   2.185  14.653
65691SOL    HW198906   2.146   2.094  14.630
65691SOL    HW298907   2.076   2.228  14.636
65692SOL     OW98908   6.017  13.763  11.562
65692SOL    HW198909   5.967  13.745  11.482
65692SOL    HW298910   6.072  13.838  11.540
65693SOL     OW98911   9.966   7.624  13.533
65693SOL    HW198912   9.887   7.571  13.530
65693SOL    HW298913   9.942   7.705  13.488
65694SOL     OW98914   9.405   3.324   6.794
65694SOL    HW198915   9.495   3.292   6.786
65694SOL    HW298916   9.385   3.318   6.887
65695SOL     OW98917   2.442   3.326   5.058
65695SOL    HW198918   2.369   3.376   5.023
65695SOL    HW298919   2.512   3.337   4.994
65696SOL     OW98920   2.358  14.705  13.351
65696SOL    HW198921   2.360  14.781  13.293
65696SOL    HW298922   2.424  14.646  13.316
65697SOL     OW98923  10.013   7.928   3.363
65697SOL    HW198924  10.002   7.982   3.286
65697SOL    HW298925  10.082   7.970   3.414
65698SOL     OW98926   3.138   6.937  10.600
65698SOL    HW198927   3.134   6.949  10.505
65698SOL    HW298928   3.124   7.025  10.635
65699SOL     OW98929   1.342  13.609  10.572
65699SOL    HW198930   1.298  13.601  10.656
65699SOL    HW298931   1.431  13.578  10.589
65700SOL     OW98932   2.244  12.010   5.697
65700SOL    HW198933   2.272  12.059   5.775
65700SOL    HW298934   2.190  12.072   5.648
65701SOL     OW98935   9.887   6.652  11.574
65701SOL    HW198936   9.823   6.714  11.610
65701SOL    HW298937   9.912   6.597  11.648
65702SOL     OW98938   5.615   1.453  12.305
65702SOL    HW198939   5.539   1.493  12.263
65702SOL    HW298940   5.683   1.454  12.238
65703SOL     OW98941   0.839  14.139  11.745
65703SOL    HW198942   0.893  14.179  11.813
65703SOL    HW298943   0.801  14.062  11.786
65704SOL     OW98944  10.740   4.435   1.721
65704SOL    HW198945  10.645   4.425   1.728
65704SOL    HW298946  10.753   4.528   1.701
65705SOL     OW98947   2.043   4.941   4.310
65705SOL    HW198948   2.132   4.911   4.289
65705SOL    HW298949   2.041   4.945   4.405
65706SOL     OW98950   1.861   8.001   5.024
65706SOL    HW198951   1.855   7.925   4.965
65706SOL    HW298952   1.941   7.986   5.074
65707SOL     OW98953   3.745  10.307  10.100
65707SOL    HW198954   3.802  10.252  10.154
65707SOL    HW298955   3.801  10.379  10.072
65708SOL     OW98956   1.476   5.229   3.477
65708SOL    HW198957   1.464   5.276   3.394
65708SOL    HW298958   1.391   5.190   3.495
65709SOL     OW98959  13.149  13.754   0.470
65709SOL    HW198960  13.056  13.770   0.485
65709SOL    HW298961  13.156  13.659   0.461
65710SOL     OW98962   4.988   5.303   1.120
65710SOL    HW198963   5.042   5.368   1.075
65710SOL    HW298964   4.994   5.327   1.212
65711SOL     OW98965   7.392   1.858   9.865
65711SOL    HW198966   7.352   1.772   9.880
65711SOL    HW298967   7.328   1.920   9.901
65712SOL     OW98968   1.753   4.807  14.533
65712SOL    HW198969   1.678   4.754  14.559
65712SOL    HW298970   1.771   4.863  14.609
65713SOL     OW98971   8.385  10.361  14.768
65713SOL    HW198972   8.354  10.287  14.717
65713SOL    HW298973   8.319  10.373  14.836
65714SOL     OW98974   3.568  11.638   7.882
65714SOL    HW198975   3.536  11.709   7.827
65714SOL    HW298976   3.508  11.565   7.866
65715SOL     OW98977   1.756  11.961  11.425
65715SOL    HW198978   1.725  11.992  11.340
65715SOL    HW298979   1.702  11.885  11.444
65716SOL     OW98980   5.401   2.332   7.615
65716SOL    HW198981   5.348   2.275   7.560
65716SOL    HW298982   5.337   2.386   7.662
65717SOL     OW98983  10.545   9.084   1.415
65717SOL    HW198984  10.625   9.049   1.454
65717SOL    HW298985  10.491   9.111   1.490
65718SOL     OW98986   0.362   4.058   7.093
65718SOL    HW198987   0.354   4.151   7.076
65718SOL    HW298988   0.350   4.049   7.188
65719SOL     OW98989   7.819   4.246   7.135
65719SOL    HW198990   7.732   4.284   7.124
65719SOL    HW298991   7.876   4.300   7.081
65720SOL     OW98992   4.103   1.930   6.998
65720SOL    HW198993   4.036   1.871   7.032
65720SOL    HW298994   4.060   2.015   6.992
65721SOL     OW98995  11.850  10.572   6.950
65721SOL    HW198996  11.904  10.509   6.904
65721SOL    HW298997  11.909  10.609   7.017
65722SOL     OW98998  14.245   7.419  14.233
65722SOL    HW198999  14.236   7.401  14.326
65722SOL    HW299000  14.216   7.510  14.223
65723SOL     OW99001   5.454  14.797   1.917
65723SOL    HW199002   5.374  14.790   1.865
65723SOL    HW299003   5.483  14.707   1.929
65724SOL     OW99004  13.345   6.509   9.403
65724SOL    HW199005  13.320   6.523   9.311
65724SOL    HW299006  13.413   6.441   9.398
65725SOL     OW99007  10.258   4.199  10.638
65725SOL    HW199008  10.347   4.223  10.614
65725SOL    HW299009  10.241   4.119  10.588
65726SOL     OW99010   2.550   7.109   8.194
65726SOL    HW199011   2.635   7.149   8.172
65726SOL    HW299012   2.541   7.122   8.288
65727SOL     OW99013   9.457   6.670   8.383
65727SOL    HW199014   9.477   6.582   8.416
65727SOL    HW299015   9.437   6.721   8.461
65728SOL     OW99016   2.724   7.263   6.066
65728SOL    HW199017   2.802   7.318   6.078
65728SOL    HW299018   2.754   7.192   6.009
65729SOL     OW99019   5.510   0.549   7.969
65729SOL    HW199020   5.466   0.631   7.991
65729SOL    HW299021   5.443   0.482   7.984
65730SOL     OW99022   5.957  13.926   8.187
65730SOL    HW199023   5.946  13.869   8.264
65730SOL    HW299024   5.893  13.893   8.124
65731SOL     OW99025   8.753   0.365  14.191
65731SOL    HW199026   8.777   0.292  14.248
65731SOL    HW299027   8.826   0.372  14.130
65732SOL     OW99028   2.829   6.728   2.611
65732SOL    HW199029   2.904   6.786   2.598
65732SOL    HW299030   2.804   6.740   2.703
65733SOL     OW99031  13.888   8.571  12.514
65733SOL    HW199032  13.909   8.664  12.515
65733SOL    HW299033  13.846   8.555  12.599
65734SOL     OW99034  14.639   4.269   8.203
65734SOL    HW199035  14.557   4.301   8.166
65734SOL    HW299036  14.643   4.177   8.177
65735SOL     OW99037  12.350   2.222   4.911
65735SOL    HW199038  12.274   2.209   4.854
65735SOL    HW299039  12.317   2.203   4.999
65736SOL     OW99040  10.555   9.526  14.250
65736SOL    HW199041  10.603   9.483  14.179
65736SOL    HW299042  10.539   9.615  14.218
65737SOL     OW99043   8.623   7.274  11.380
65737SOL    HW199044   8.687   7.316  11.438
65737SOL    HW299045   8.625   7.327  11.300
65738SOL     OW99046   9.661   5.165   2.300
65738SOL    HW199047   9.679   5.147   2.392
65738SOL    HW299048   9.701   5.092   2.253
65739SOL     OW99049  11.898   6.372   9.851
65739SOL    HW199050  11.812   6.350   9.889
65739SOL    HW299051  11.953   6.392   9.927
65740SOL     OW99052  13.196   5.039  10.685
65740SOL    HW199053  13.130   5.048  10.616
65740SOL    HW299054  13.160   5.089  10.759
65741SOL     OW99055   4.974  12.514   2.596
65741SOL    HW199056   4.914  12.480   2.530
65741SOL    HW299057   5.023  12.582   2.551
65742SOL     OW99058  14.021  12.760   1.154
65742SOL    HW199059  13.984  12.847   1.170
65742SOL    HW299060  14.107  12.762   1.196
65743SOL     OW99061   1.878   2.177   1.488
65743SOL    HW199062   1.835   2.183   1.573
65743SOL    HW299063   1.867   2.086   1.461
65744SOL     OW99064   0.356   4.841  14.223
65744SOL    HW199065   0.314   4.921  14.256
65744SOL    HW299066   0.313   4.770  14.270
65745SOL     OW99067   7.848   8.875  13.815
65745SOL    HW199068   7.879   8.919  13.894
65745SOL    HW299069   7.822   8.788  13.845
65746SOL     OW99070   3.594   0.116  14.171
65746SOL    HW199071   3.530   0.134  14.102
65746SOL    HW299072   3.597   0.021  14.177
65747SOL     OW99073  11.520  14.621  12.845
65747SOL    HW199074  11.542  14.548  12.902
65747SOL    HW299075  11.605  14.651  12.810
65748SOL     OW99076   7.890   8.213  12.778
65748SOL    HW199077   7.897   8.235  12.685
65748SOL    HW299078   7.843   8.129  12.779
65749SOL     OW99079  10.741  12.619   7.624
65749SOL    HW199080  10.760  12.525   7.628
65749SOL    HW299081  10.651  12.626   7.657
65750SOL     OW99082  14.507   0.741   1.523
65750SOL    HW199083  14.514   0.828   1.562
65750SOL    HW299084  14.479   0.685   1.595
65751SOL     OW99085   5.834   7.434   4.708
65751SOL    HW199086   5.805   7.508   4.762
65751SOL    HW299087   5.907   7.395   4.757
65752SOL     OW99088  11.773   8.060   4.496
65752SOL    HW199089  11.816   7.995   4.440
65752SOL    HW299090  11.729   8.008   4.563
65753SOL     OW99091   4.432  12.282   4.431
65753SOL    HW199092   4.499  12.218   4.454
65753SOL    HW299093   4.480  12.364   4.419
65754SOL     OW99094   1.432  14.136  11.755
65754SOL    HW199095   1.337  14.139  11.742
65754SOL    HW299096   1.449  14.046  11.783
65755SOL     OW99097  10.267  12.539  14.612
65755SOL    HW199098  10.211  12.462  14.609
65755SOL    HW299099  10.320  12.527  14.692
65756SOL     OW99100  12.269   0.700   9.047
65756SOL    HW199101  12.328   0.755   8.995
65756SOL    HW299102  12.235   0.636   8.983
65757SOL     OW99103   6.355   1.605   8.065
65757SOL    HW199104   6.405   1.597   7.984
65757SOL    HW299105   6.275   1.652   8.040
65758SOL     OW99106  13.293   8.925   8.233
65758SOL    HW199107  13.335   8.852   8.188
65758SOL    HW299108  13.204   8.893   8.251
65759SOL     OW99109  12.526   7.920  11.289
65759SOL    HW199110  12.576   7.956  11.215
65759SOL    HW299111  12.437   7.908  11.254
65760SOL     OW99112   2.139   4.303  10.576
65760SOL    HW199113   2.193   4.382  10.568
65760SOL    HW299114   2.072   4.313  10.509
65761SOL     OW99115   8.063  13.909   8.307
65761SOL    HW199116   8.147  13.882   8.344
65761SOL    HW299117   8.055  14.002   8.330
65762SOL     OW99118   1.764  11.059   4.451
65762SOL    HW199119   1.729  11.012   4.527
65762SOL    HW299120   1.794  11.143   4.486
65763SOL     OW99121  10.321  11.842   9.821
65763SOL    HW199122  10.393  11.781   9.839
65763SOL    HW299123  10.248  11.785   9.795
65764SOL     OW99124  11.388  11.082   6.872
65764SOL    HW199125  11.330  11.006   6.867
65764SOL    HW299126  11.418  11.095   6.782
65765SOL     OW99127   6.562  14.519   8.337
65765SOL    HW199128   6.553  14.476   8.422
65765SOL    HW299129   6.473  14.546   8.314
65766SOL     OW99130   0.278  10.979   8.304
65766SOL    HW199131   0.271  10.884   8.293
65766SOL    HW299132   0.360  10.992   8.352
65767SOL     OW99133  12.439   3.644  10.897
65767SOL    HW199134  12.498   3.623  10.824
65767SOL    HW299135  12.443   3.739  10.904
65768SOL     OW99136   9.603  14.231  13.404
65768SOL    HW199137   9.526  14.221  13.350
65768SOL    HW299138   9.625  14.143  13.433
65769SOL     OW99139  12.274   2.209   5.169
65769SOL    HW199140  12.349   2.243   5.217
65769SOL    HW299141  12.198   2.254   5.207
65770SOL     OW99142   6.294   3.737  11.051
65770SOL    HW199143   6.226   3.775  10.997
65770SOL    HW299144   6.365   3.801  11.050
65771SOL     OW99145   9.458  10.837  14.735
65771SOL    HW199146   9.505  10.783  14.671
65771SOL    HW299147   9.409  10.899  14.682
65772SOL     OW99148   4.111  12.086   1.169
65772SOL    HW199149   4.195  12.114   1.134
65772SOL    HW299150   4.113  11.991   1.164
65773SOL     OW99151   2.166  10.603  11.164
65773SOL    HW199152   2.174  10.508  11.158
65773SOL    HW299153   2.222  10.627  11.238
65774SOL     OW99154  10.660   3.782   9.582
65774SOL    HW199155  10.688   3.861   9.629
65774SOL    HW299156  10.702   3.710   9.630
65775SOL     OW99157   2.670   1.313   6.115
65775SOL    HW199158   2.702   1.363   6.040
65775SOL    HW299159   2.745   1.258   6.141
65776SOL     OW99160   0.424   5.567   1.156
65776SOL    HW199161   0.426   5.472   1.152
65776SOL    HW299162   0.337   5.591   1.124
65777SOL     OW99163  14.758   6.746   7.553
65777SOL    HW199164  14.689   6.791   7.503
65777SOL    HW299165  14.800   6.816   7.603
65778SOL     OW99166   7.535   8.062   7.856
65778SOL    HW199167   7.521   8.108   7.938
65778SOL    HW299168   7.452   8.016   7.840
65779SOL     OW99169  13.322   5.109  12.268
65779SOL    HW199170  13.253   5.053  12.303
65779SOL    HW299171  13.344   5.168  12.340
65780SOL     OW99172  11.747  12.595   1.835
65780SOL    HW199173  11.664  12.639   1.852
65780SOL    HW299174  11.800  12.611   1.914
65781SOL     OW99175   7.018  11.189   0.166
65781SOL    HW199176   6.933  11.154   0.195
65781SOL    HW299177   7.060  11.116   0.121
65782SOL     OW99178   2.005  11.015   9.217
65782SOL    HW199179   2.067  11.002   9.288
65782SOL    HW299180   2.033  10.954   9.149
65783SOL     OW99181   2.934   1.212   8.922
65783SOL    HW199182   2.954   1.297   8.883
65783SOL    HW299183   2.985   1.209   9.002
65784SOL     OW99184  12.436  10.391  10.311
65784SOL    HW199185  12.358  10.338  10.323
65784SOL    HW299186  12.449  10.395  10.216
65785SOL     OW99187  12.739  14.653   6.667
65785SOL    HW199188  12.801  14.596   6.710
65785SOL    HW299189  12.755  14.641   6.573
65786SOL     OW99190   7.130   6.901   3.597
65786SOL    HW199191   7.183   6.828   3.565
65786SOL    HW299192   7.051   6.860   3.632
65787SOL     OW99193  10.210   3.861  13.963
65787SOL    HW199194  10.289   3.848  13.911
65787SOL    HW299195  10.153   3.913  13.906
65788SOL     OW99196   4.507   5.184   5.677
65788SOL    HW199197   4.552   5.182   5.593
65788SOL    HW299198   4.551   5.116   5.729
65789SOL     OW99199   2.013   6.706   4.665
65789SOL    HW199200   2.002   6.757   4.585
65789SOL    HW299201   2.055   6.766   4.727
65790SOL     OW99202   7.475   6.884  11.870
65790SOL    HW199203   7.460   6.793  11.895
65790SOL    HW299204   7.480   6.881  11.774
65791SOL     OW99205   8.501   2.240   8.381
65791SOL    HW199206   8.499   2.243   8.477
65791SOL    HW299207   8.457   2.321   8.354
65792SOL     OW99208   0.324  13.244   5.368
65792SOL    HW199209   0.237  13.231   5.330
65792SOL    HW299210   0.319  13.201   5.453
65793SOL     OW99211  14.618  13.838   3.511
65793SOL    HW199212  14.544  13.878   3.466
65793SOL    HW299213  14.588  13.749   3.532
65794SOL     OW99214   7.111  13.006   7.822
65794SOL    HW199215   7.023  12.985   7.854
65794SOL    HW299216   7.101  13.093   7.782
65795SOL     OW99217   6.273  10.776   1.881
65795SOL    HW199218   6.274  10.742   1.970
65795SOL    HW299219   6.272  10.698   1.825
65796SOL     OW99220   5.868   2.535  14.848
65796SOL    HW199221   5.906   2.455  14.813
65796SOL    HW299222   5.886   2.602  14.782
65797SOL     OW99223  12.122  14.356   7.611
65797SOL    HW199224  12.029  14.346   7.629
65797SOL    HW299225  12.162  14.273   7.640
65798SOL     OW99226   9.919   1.514   5.674
65798SOL    HW199227   9.896   1.551   5.589
65798SOL    HW299228   9.836   1.501   5.719
65799SOL     OW99229  10.019   9.336  13.118
65799SOL    HW199230  10.049   9.253  13.080
65799SOL    HW299231   9.940   9.312  13.167
65800SOL     OW99232   7.779   0.470  10.927
65800SOL    HW199233   7.698   0.502  10.966
65800SOL    HW299234   7.826   0.428  10.999
65801SOL     OW99235   7.686   4.809   3.900
65801SOL    HW199236   7.755   4.871   3.927
65801SOL    HW299237   7.722   4.765   3.823
65802SOL     OW99238  13.405  10.024   6.325
65802SOL    HW199239  13.389   9.943   6.373
65802SOL    HW299240  13.323  10.072   6.330
65803SOL     OW99241  14.335  13.851   7.048
65803SOL    HW199242  14.348  13.769   7.096
65803SOL    HW299243  14.422  13.875   7.017
65804SOL     OW99244   2.143  12.644  13.225
65804SOL    HW199245   2.172  12.609  13.141
65804SOL    HW299246   2.186  12.729  13.232
65805SOL     OW99247   1.741  14.539   3.141
65805SOL    HW199248   1.744  14.493   3.057
65805SOL    HW299249   1.665  14.503   3.186
65806SOL     OW99250   4.812  14.520   4.564
65806SOL    HW199251   4.812  14.593   4.626
65806SOL    HW299252   4.724  14.482   4.573
65807SOL     OW99253   7.457   4.450  12.626
65807SOL    HW199254   7.431   4.541  12.633
65807SOL    HW299255   7.440   4.413  12.713
65808SOL     OW99256   1.747   8.423   6.124
65808SOL    HW199257   1.702   8.356   6.175
65808SOL    HW299258   1.838   8.420   6.154
65809SOL     OW99259   2.324   0.057   3.977
65809SOL    HW199260   2.335  14.843   3.998
65809SOL    HW299261   2.274   0.092   4.051
65810SOL     OW99262   8.576  14.104  11.010
65810SOL    HW199263   8.553  14.038  10.943
65810SOL    HW299264   8.653  14.148  10.975
65811SOL     OW99265   1.069  12.780  11.238
65811SOL    HW199266   1.132  12.798  11.168
65811SOL    HW299267   0.986  12.813  11.205
65812SOL     OW99268  12.795   2.474  13.980
65812SOL    HW199269  12.846   2.506  13.905
65812SOL    HW299270  12.763   2.554  14.023
65813SOL     OW99271   4.259   0.308   4.254
65813SOL    HW199272   4.296   0.382   4.301
65813SOL    HW299273   4.171   0.297   4.292
65814SOL     OW99274  13.759  14.172   0.588
65814SOL    HW199275  13.742  14.174   0.682
65814SOL    HW299276  13.806  14.254   0.571
65815SOL     OW99277   0.383  14.337   8.867
65815SOL    HW199278   0.411  14.247   8.853
65815SOL    HW299279   0.328  14.334   8.945
65816SOL     OW99280   9.663   9.506   8.863
65816SOL    HW199281   9.637   9.416   8.883
65816SOL    HW299282   9.687   9.544   8.947
65817SOL     OW99283   1.926  12.186   6.567
65817SOL    HW199284   1.844  12.196   6.616
65817SOL    HW299285   1.937  12.270   6.522
65818SOL     OW99286  11.417   2.878   6.522
65818SOL    HW199287  11.503   2.840   6.506
65818SOL    HW299288  11.378   2.887   6.435
65819SOL     OW99289   4.015  12.406  12.839
65819SOL    HW199290   3.978  12.359  12.765
65819SOL    HW299291   3.960  12.485  12.848
65820SOL     OW99292   9.480   4.759  13.257
65820SOL    HW199293   9.550   4.824  13.260
65820SOL    HW299294   9.459   4.742  13.349
65821SOL     OW99295  13.901   4.064   3.758
65821SOL    HW199296  13.971   4.113   3.714
65821SOL    HW299297  13.866   4.006   3.690
65822SOL     OW99298  13.281   3.370   9.984
65822SOL    HW199299  13.350   3.412   9.933
65822SOL    HW299300  13.206   3.429   9.975
65823SOL     OW99301  13.757   1.972   5.118
65823SOL    HW199302  13.747   2.029   5.042
65823SOL    HW299303  13.801   1.894   5.084
65824SOL     OW99304   1.877   5.443   8.493
65824SOL    HW199305   1.926   5.513   8.537
65824SOL    HW299306   1.910   5.363   8.533
65825SOL     OW99307   3.221   3.772   7.276
65825SOL    HW199308   3.172   3.696   7.244
65825SOL    HW299309   3.174   3.798   7.355
65826SOL     OW99310  12.276  10.353   7.401
65826SOL    HW199311  12.215  10.422   7.428
65826SOL    HW299312  12.220  10.283   7.369
65827SOL     OW99313  12.112   9.731  10.214
65827SOL    HW199314  12.048   9.769  10.154
65827SOL    HW299315  12.195   9.773  10.190
65828SOL     OW99316   3.876   3.369   3.851
65828SOL    HW199317   3.795   3.420   3.858
65828SOL    HW299318   3.913   3.394   3.766
65829SOL     OW99319   3.692  10.381   3.332
65829SOL    HW199320   3.722  10.314   3.270
65829SOL    HW299321   3.657  10.451   3.276
65830SOL     OW99322   0.903  12.802   4.126
65830SOL    HW199323   0.907  12.771   4.217
65830SOL    HW299324   0.817  12.843   4.119
65831SOL     OW99325  14.781   4.370   7.479
65831SOL    HW199326  14.761   4.462   7.495
65831SOL    HW299327  14.724   4.346   7.405
65832SOL     OW99328   3.054   8.399   8.841
65832SOL    HW199329   3.126   8.390   8.904
65832SOL    HW299330   3.044   8.311   8.804
65833SOL     OW99331   5.936  11.241  12.159
65833SOL    HW199332   5.990  11.205  12.088
65833SOL    HW299333   5.967  11.195  12.237
65834SOL     OW99334  12.485   5.866   3.623
65834SOL    HW199335  12.488   5.910   3.538
65834SOL    HW299336  12.475   5.937   3.686
65835SOL     OW99337   0.777  12.939  11.587
65835SOL    HW199338   0.834  13.015  11.592
65835SOL    HW299339   0.783  12.898  11.673
65836SOL     OW99340   8.035   5.154   5.812
65836SOL    HW199341   7.967   5.189   5.753
65836SOL    HW299342   8.112   5.207   5.794
65837SOL     OW99343   5.423   9.052  10.618
65837SOL    HW199344   5.485   9.124  10.629
65837SOL    HW299345   5.372   9.076  10.541
65838SOL     OW99346  14.355  10.735   7.850
65838SOL    HW199347  14.294  10.680   7.802
65838SOL    HW299348  14.426  10.676   7.874
65839SOL     OW99349  11.818   5.325  11.766
65839SOL    HW199350  11.841   5.273  11.689
65839SOL    HW299351  11.799   5.261  11.834
65840SOL     OW99352  13.689   8.404  12.288
65840SOL    HW199353  13.721   8.371  12.205
65840SOL    HW299354  13.705   8.498  12.285
65841SOL     OW99355   4.671   5.298   3.155
65841SOL    HW199356   4.743   5.238   3.173
65841SOL    HW299357   4.675   5.312   3.060
65842SOL     OW99358  13.388   7.987  11.250
65842SOL    HW199359  13.321   7.997  11.183
65842SOL    HW299360  13.461   7.945  11.205
65843SOL     OW99361   7.972   3.108   3.202
65843SOL    HW199362   8.027   3.183   3.224
65843SOL    HW299363   7.882   3.141   3.206
65844SOL     OW99364   6.832   2.011   4.372
65844SOL    HW199365   6.792   1.932   4.336
65844SOL    HW299366   6.759   2.073   4.379
65845SOL     OW99367   2.474  14.426  11.840
65845SOL    HW199368   2.417  14.492  11.799
65845SOL    HW299369   2.543  14.478  11.882
65846SOL     OW99370   1.047  12.929   1.161
65846SOL    HW199371   1.061  12.872   1.237
65846SOL    HW299372   0.975  12.889   1.113
65847SOL     OW99373   1.309   8.852   1.977
65847SOL    HW199374   1.242   8.786   1.999
65847SOL    HW299375   1.387   8.824   2.026
65848SOL     OW99376   2.534   6.569  10.351
65848SOL    HW199377   2.538   6.614  10.267
65848SOL    HW299378   2.532   6.476  10.329
65849SOL     OW99379   1.592   0.757   9.236
65849SOL    HW199380   1.595   0.838   9.185
65849SOL    HW299381   1.557   0.692   9.176
65850SOL     OW99382   1.117   1.129   2.247
65850SOL    HW199383   1.143   1.114   2.157
65850SOL    HW299384   1.045   1.192   2.241
65851SOL     OW99385   6.458   2.598  10.748
65851SOL    HW199386   6.454   2.693  10.748
65851SOL    HW299387   6.374   2.570  10.784
65852SOL     OW99388   3.620   6.163   9.674
65852SOL    HW199389   3.714   6.184   9.673
65852SOL    HW299390   3.577   6.245   9.699
65853SOL     OW99391   7.197   4.133   3.054
65853SOL    HW199392   7.148   4.078   2.992
65853SOL    HW299393   7.134   4.199   3.081
65854SOL     OW99394  12.946  11.059  14.672
65854SOL    HW199395  12.945  11.061  14.576
65854SOL    HW299396  13.037  11.076  14.695
65855SOL     OW99397  14.671  13.741   6.573
65855SOL    HW199398  14.756  13.719   6.612
65855SOL    HW299399  14.607  13.694   6.627
65856SOL     OW99400   7.390   2.693   2.482
65856SOL    HW199401   7.332   2.745   2.538
65856SOL    HW299402   7.367   2.718   2.393
65857SOL     OW99403  11.999   1.834  14.565
65857SOL    HW199404  12.006   1.823  14.470
65857SOL    HW299405  12.077   1.793  14.600
65858SOL     OW99406   5.466  12.392  10.450
65858SOL    HW199407   5.512  12.434  10.377
65858SOL    HW299408   5.442  12.464  10.508
65859SOL     OW99409   9.014  10.846  12.122
65859SOL    HW199410   9.106  10.822  12.126
65859SOL    HW299411   8.967  10.771  12.159
65860SOL     OW99412   9.460   2.227  14.292
65860SOL    HW199413   9.533   2.279  14.329
65860SOL    HW299414   9.413   2.289  14.237
65861SOL     OW99415   1.303  12.812   6.617
65861SOL    HW199416   1.317  12.776   6.705
65861SOL    HW299417   1.210  12.796   6.600
65862SOL     OW99418  13.290   9.942   6.912
65862SOL    HW199419  13.263   9.861   6.955
65862SOL    HW299420  13.386   9.937   6.910
65863SOL     OW99421   1.918   4.668  14.055
65863SOL    HW199422   1.860   4.741  14.076
65863SOL    HW299423   1.911   4.609  14.130
65864SOL     OW99424   4.113   4.923  11.456
65864SOL    HW199425   4.025   4.959  11.464
65864SOL    HW299426   4.138   4.900  11.546
65865SOL     OW99427   6.368   0.122  14.665
65865SOL    HW199428   6.296   0.184  14.679
65865SOL    HW299429   6.445   0.166  14.703
65866SOL     OW99430   5.944   4.830  13.975
65866SOL    HW199431   6.011   4.765  13.957
65866SOL    HW299432   5.862   4.788  13.951
65867SOL     OW99433   3.848   3.141   8.323
65867SOL    HW199434   3.932   3.133   8.278
65867SOL    HW299435   3.850   3.075   8.391
65868SOL     OW99436  13.202   1.759  12.654
65868SOL    HW199437  13.239   1.825  12.595
65868SOL    HW299438  13.140   1.710  12.600
65869SOL     OW99439   1.407  14.171   8.134
65869SOL    HW199440   1.458  14.109   8.186
65869SOL    HW299441   1.373  14.118   8.062
65870SOL     OW99442   0.846   0.818  11.153
65870SOL    HW199443   0.819   0.896  11.201
65870SOL    HW299444   0.768   0.791  11.104
65871SOL     OW99445   9.267  14.430   3.768
65871SOL    HW199446   9.334  14.439   3.836
65871SOL    HW299447   9.260  14.335   3.755
65872SOL     OW99448  14.216  11.368  14.397
65872SOL    HW199449  14.174  11.289  14.363
65872SOL    HW299450  14.305  11.341  14.417
65873SOL     OW99451  14.188  12.809   2.803
65873SOL    HW199452  14.101  12.788   2.837
65873SOL    HW299453  14.173  12.875   2.736
65874SOL     OW99454  13.744   1.112  11.255
65874SOL    HW199455  13.673   1.082  11.312
65874SOL    HW299456  13.794   1.033  11.234
65875SOL     OW99457   6.834   8.171  11.678
65875SOL    HW199458   6.847   8.183  11.772
65875SOL    HW299459   6.922   8.167  11.641
65876SOL     OW99460   9.293   4.757   6.131
65876SOL    HW199461   9.370   4.736   6.080
65876SOL    HW299462   9.221   4.712   6.086
65877SOL     OW99463  14.444   1.632   0.699
65877SOL    HW199464  14.500   1.570   0.746
65877SOL    HW299465  14.486   1.642   0.613
65878SOL     OW99466  14.320  12.495  10.468
65878SOL    HW199467  14.265  12.567  10.435
65878SOL    HW299468  14.400  12.537  10.497
65879SOL     OW99469   9.997  10.639  14.234
65879SOL    HW199470   9.993  10.584  14.312
65879SOL    HW299471   9.917  10.617  14.185
65880SOL     OW99472   4.018   3.788  11.326
65880SOL    HW199473   3.925   3.803  11.337
65880SOL    HW299474   4.046   3.856  11.264
65881SOL     OW99475   7.389   6.824   7.055
65881SOL    HW199476   7.412   6.893   7.117
65881SOL    HW299477   7.413   6.743   7.101
65882SOL     OW99478   3.044   2.239   4.538
65882SOL    HW199479   3.038   2.146   4.558
65882SOL    HW299480   3.056   2.243   4.443
65883SOL     OW99481   5.642   9.412  11.541
65883SOL    HW199482   5.735   9.431  11.529
65883SOL    HW299483   5.640   9.340  11.604
65884SOL     OW99484  11.714   1.232   5.322
65884SOL    HW199485  11.683   1.311   5.277
65884SOL    HW299486  11.743   1.262   5.408
65885SOL     OW99487  13.181  10.149  11.791
65885SOL    HW199488  13.120  10.183  11.725
65885SOL    HW299489  13.170  10.208  11.866
65886SOL     OW99490   5.944   9.738   2.439
65886SOL    HW199491   5.897   9.654   2.437
65886SOL    HW299492   5.986   9.741   2.525
65887SOL     OW99493   0.904   7.385   3.603
65887SOL    HW199494   0.934   7.297   3.627
65887SOL    HW299495   0.810   7.375   3.587
65888SOL     OW99496  10.904   1.634   6.402
65888SOL    HW199497  10.934   1.638   6.311
65888SOL    HW299498  10.835   1.567   6.402
65889SOL     OW99499   2.344  12.246   4.457
65889SOL    HW199500   2.272  12.216   4.401
65889SOL    HW299501   2.398  12.299   4.398
65890SOL     OW99502  11.342   5.901   4.446
65890SOL    HW199503  11.378   5.832   4.390
65890SOL    HW299504  11.261   5.864   4.481
65891SOL     OW99505   4.672   0.300   7.538
65891SOL    HW199506   4.694   0.379   7.489
65891SOL    HW299507   4.579   0.309   7.558
65892SOL     OW99508  12.938  11.783  14.837
65892SOL    HW199509  12.851  11.824  14.838
65892SOL    HW299510  12.932  11.715  14.770
65893SOL     OW99511   3.764  13.033   5.925
65893SOL    HW199512   3.778  13.093   5.999
65893SOL    HW299513   3.746  12.949   5.966
65894SOL     OW99514   6.672   7.142   2.544
65894SOL    HW199515   6.701   7.097   2.624
65894SOL    HW299516   6.744   7.130   2.483
65895SOL     OW99517  12.343   1.312  13.672
65895SOL    HW199518  12.305   1.386  13.720
65895SOL    HW299519  12.386   1.353  13.597
65896SOL     OW99520  10.864  13.808   4.867
65896SOL    HW199521  10.770  13.827   4.863
65896SOL    HW299522  10.875  13.729   4.815
65897SOL     OW99523   5.900   5.279   2.929
65897SOL    HW199524   5.993   5.275   2.952
65897SOL    HW299525   5.857   5.227   2.997
65898SOL     OW99526  13.992  11.703   2.836
65898SOL    HW199527  14.054  11.761   2.879
65898SOL    HW299528  13.912  11.755   2.827
65899SOL     OW99529  12.667   8.573   0.368
65899SOL    HW199530  12.607   8.613   0.304
65899SOL    HW299531  12.728   8.522   0.314
65900SOL     OW99532  12.082   2.915  11.104
65900SOL    HW199533  12.063   3.004  11.075
65900SOL    HW299534  12.175   2.915  11.124
65901SOL     OW99535  12.471   2.464   0.681
65901SOL    HW199536  12.418   2.543   0.670
65901SOL    HW299537  12.475   2.426   0.594
65902SOL     OW99538   0.151   2.733  11.834
65902SOL    HW199539   0.110   2.763  11.915
65902SOL    HW299540   0.099   2.656  11.808
65903SOL     OW99541   2.948   9.746   8.593
65903SOL    HW199542   2.973   9.659   8.562
65903SOL    HW299543   2.852   9.748   8.584
65904SOL     OW99544  11.241  10.287   5.571
65904SOL    HW199545  11.319  10.233   5.569
65904SOL    HW299546  11.271  10.372   5.605
65905SOL     OW99547   9.417   0.396   8.420
65905SOL    HW199548   9.361   0.404   8.498
65905SOL    HW299549   9.504   0.376   8.455
65906SOL     OW99550   5.286  11.788   8.759
65906SOL    HW199551   5.307  11.880   8.773
65906SOL    HW299552   5.203  11.775   8.803
65907SOL     OW99553  10.517   3.552   8.701
65907SOL    HW199554  10.509   3.613   8.775
65907SOL    HW299555  10.435   3.563   8.653
65908SOL     OW99556  11.386   5.911   5.324
65908SOL    HW199557  11.351   6.000   5.318
65908SOL    HW299558  11.387   5.880   5.233
65909SOL     OW99559   0.935   6.767  14.696
65909SOL    HW199560   0.890   6.847  14.722
65909SOL    HW299561   0.890   6.697  14.744
65910SOL     OW99562   4.426   9.758   5.552
65910SOL    HW199563   4.347   9.762   5.497
65910SOL    HW299564   4.436   9.665   5.572
65911SOL     OW99565   1.885   8.312   0.106
65911SOL    HW199566   1.918   8.399   0.124
65911SOL    HW299567   1.832   8.322   0.027
65912SOL     OW99568  11.144   3.439  11.554
65912SOL    HW199569  11.069   3.469  11.604
65912SOL    HW299570  11.148   3.345  11.571
65913SOL     OW99571   6.468   5.140  10.868
65913SOL    HW199572   6.497   5.160  10.779
65913SOL    HW299573   6.533   5.183  10.925
65914SOL     OW99574   7.937  12.970  11.706
65914SOL    HW199575   8.020  12.926  11.688
65914SOL    HW299576   7.935  12.980  11.801
65915SOL     OW99577   6.625  12.844   0.020
65915SOL    HW199578   6.647  12.937   0.025
65915SOL    HW299579   6.680  12.803   0.087
65916SOL     OW99580   5.635   4.322   8.248
65916SOL    HW199581   5.626   4.382   8.175
65916SOL    HW299582   5.728   4.298   8.248
65917SOL     OW99583   6.159  14.739   6.643
65917SOL    HW199584   6.200  14.652   6.638
65917SOL    HW299585   6.153  14.757   6.736
65918SOL     OW99586  10.950  13.081   9.445
65918SOL    HW199587  10.928  13.110   9.533
65918SOL    HW299588  11.037  13.116   9.429
65919SOL     OW99589   4.198   8.981   8.307
65919SOL    HW199590   4.199   8.963   8.401
65919SOL    HW299591   4.268   9.045   8.293
65920SOL     OW99592   7.403   3.726   7.101
65920SOL    HW199593   7.462   3.693   7.169
65920SOL    HW299594   7.407   3.661   7.031
65921SOL     OW99595   8.902   1.030   9.674
65921SOL    HW199596   8.815   1.011   9.638
65921SOL    HW299597   8.915   0.963   9.741
65922SOL     OW99598   9.396   4.962   1.609
65922SOL    HW199599   9.403   4.961   1.705
65922SOL    HW299600   9.351   5.045   1.590
65923SOL     OW99601   4.496   2.571  13.418
65923SOL    HW199602   4.464   2.558  13.328
65923SOL    HW299603   4.498   2.666  13.429
65924SOL     OW99604   8.021   3.915   1.035
65924SOL    HW199605   8.011   3.822   1.054
65924SOL    HW299606   8.079   3.948   1.103
65925SOL     OW99607  10.703   7.380   9.681
65925SOL    HW199608  10.701   7.381   9.777
65925SOL    HW299609  10.661   7.462   9.656
65926SOL     OW99610  10.407   0.193  11.889
65926SOL    HW199611  10.392   0.100  11.907
65926SOL    HW299612  10.320   0.228  11.870
65927SOL     OW99613  10.770   7.764   0.848
65927SOL    HW199614  10.832   7.692   0.836
65927SOL    HW299615  10.768   7.808   0.763
65928SOL     OW99616   1.736   9.874  11.650
65928SOL    HW199617   1.721   9.914  11.736
65928SOL    HW299618   1.792   9.799  11.668
65929SOL     OW99619   4.686   7.641   9.647
65929SOL    HW199620   4.747   7.612   9.715
65929SOL    HW299621   4.698   7.578   9.576
65930SOL     OW99622   3.636   0.686   4.223
65930SOL    HW199623   3.719   0.662   4.266
65930SOL    HW299624   3.657   0.766   4.175
65931SOL     OW99625   0.622   9.632   8.163
65931SOL    HW199626   0.649   9.705   8.220
65931SOL    HW299627   0.689   9.565   8.176
65932SOL     OW99628   3.917  12.404   1.698
65932SOL    HW199629   3.958  12.392   1.613
65932SOL    HW299630   3.913  12.499   1.710
65933SOL     OW99631   7.675   7.253   7.255
65933SOL    HW199632   7.734   7.247   7.180
65933SOL    HW299633   7.693   7.339   7.293
65934SOL     OW99634   2.135   5.653   1.142
65934SOL    HW199635   2.187   5.580   1.108
65934SOL    HW299636   2.156   5.655   1.236
65935SOL     OW99637   5.189   4.807   2.043
65935SOL    HW199638   5.187   4.794   2.138
65935SOL    HW299639   5.169   4.721   2.006
65936SOL     OW99640   1.976  10.421   5.882
65936SOL    HW199641   2.059  10.469   5.879
65936SOL    HW299642   1.931  10.456   5.959
65937SOL     OW99643   4.387   0.516   1.922
65937SOL    HW199644   4.462   0.556   1.879
65937SOL    HW299645   4.315   0.528   1.860
65938SOL     OW99646   1.639  11.521  13.978
65938SOL    HW199647   1.568  11.523  13.915
65938SOL    HW299648   1.672  11.611  13.980
65939SOL     OW99649   8.653   8.553  14.578
65939SOL    HW199650   8.733   8.584  14.620
65939SOL    HW299651   8.664   8.578  14.486
65940SOL     OW99652   6.471  11.814   2.901
65940SOL    HW199653   6.552  11.780   2.939
65940SOL    HW299654   6.498  11.893   2.854
65941SOL     OW99655   0.216   4.986   8.230
65941SOL    HW199656   0.162   5.064   8.241
65941SOL    HW299657   0.153   4.914   8.232
65942SOL     OW99658   6.908   0.386  14.718
65942SOL    HW199659   6.909   0.480  14.698
65942SOL    HW299660   6.876   0.381  14.808
65943SOL     OW99661   5.947   7.064   1.143
65943SOL    HW199662   6.013   7.116   1.188
65943SOL    HW299663   5.981   7.053   1.054
65944SOL     OW99664   6.294   0.726   1.105
65944SOL    HW199665   6.278   0.633   1.120
65944SOL    HW299666   6.390   0.734   1.101
65945SOL     OW99667  14.474   5.204   7.090
65945SOL    HW199668  14.522   5.171   7.165
65945SOL    HW299669  14.434   5.127   7.050
65946SOL     OW99670  11.767   0.295   9.381
65946SOL    HW199671  11.727   0.355   9.318
65946SOL    HW299672  11.855   0.279   9.346
65947SOL     OW99673   4.769   8.204   5.651
65947SOL    HW199674   4.743   8.251   5.731
65947SOL    HW299675   4.686   8.185   5.607
65948SOL     OW99676  14.203   6.965  14.631
65948SOL    HW199677  14.167   6.912  14.702
65948SOL    HW299678  14.240   6.901  14.570
65949SOL     OW99679   3.959   8.183   3.730
65949SOL    HW199680   4.039   8.233   3.714
65949SOL    HW299681   3.937   8.145   3.645
65950SOL     OW99682  11.533   5.018  10.412
65950SOL    HW199683  11.596   4.956  10.447
65950SOL    HW299684  11.521   4.992  10.321
65951SOL     OW99685   6.804   2.296   5.873
65951SOL    HW199686   6.875   2.233   5.859
65951SOL    HW299687   6.761   2.303   5.788
65952SOL     OW99688   8.350   5.975   4.702
65952SOL    HW199689   8.444   5.984   4.682
65952SOL    HW299690   8.345   5.897   4.757
65953SOL     OW99691   4.369   4.219   6.419
65953SOL    HW199692   4.304   4.264   6.473
65953SOL    HW299693   4.318   4.183   6.345
65954SOL     OW99694   5.877   2.674  10.156
65954SOL    HW199695   5.955   2.618  10.161
65954SOL    HW299696   5.812   2.631  10.211
65955SOL     OW99697   0.423   8.407   2.619
65955SOL    HW199698   0.442   8.444   2.533
65955SOL    HW299699   0.495   8.346   2.634
65956SOL     OW99700   8.679  10.399  11.711
65956SOL    HW199701   8.728  10.453  11.650
65956SOL    HW299702   8.654  10.458  11.782
65957SOL     OW99703  10.154  13.222  11.858
65957SOL    HW199704  10.209  13.297  11.880
65957SOL    HW299705  10.096  13.254  11.789
65958SOL     OW99706   6.637  11.960   2.298
65958SOL    HW199707   6.545  11.972   2.274
65958SOL    HW299708   6.667  11.887   2.244
65959SOL     OW99709  13.699   6.710  10.733
65959SOL    HW199710  13.611   6.727  10.768
65959SOL    HW299711  13.754   6.701  10.811
65960SOL     OW99712   4.849  14.190  10.801
65960SOL    HW199713   4.852  14.121  10.868
65960SOL    HW299714   4.761  14.227  10.808
65961SOL     OW99715   6.710   0.978   7.364
65961SOL    HW199716   6.769   1.031   7.311
65961SOL    HW299717   6.703   0.895   7.317
65962SOL     OW99718  12.448   1.079   7.994
65962SOL    HW199719  12.457   1.115   8.082
65962SOL    HW299720  12.527   1.025   7.982
65963SOL     OW99721   4.719   4.448   2.263
65963SOL    HW199722   4.807   4.473   2.292
65963SOL    HW299723   4.734   4.398   2.183
65964SOL     OW99724   0.455   8.830  10.945
65964SOL    HW199725   0.451   8.851  10.852
65964SOL    HW299726   0.458   8.735  10.948
65965SOL     OW99727  12.134   0.969  13.393
65965SOL    HW199728  12.044   0.937  13.381
65965SOL    HW299729  12.180   0.942  13.313
65966SOL     OW99730   9.520   9.129  12.493
65966SOL    HW199731   9.519   9.206  12.436
65966SOL    HW299732   9.533   9.055  12.434
65967SOL     OW99733  14.324   5.617   5.515
65967SOL    HW199734  14.404   5.589   5.560
65967SOL    HW299735  14.265   5.542   5.523
65968SOL     OW99736   5.342   9.708   5.281
65968SOL    HW199737   5.349   9.728   5.375
65968SOL    HW299738   5.355   9.792   5.237
65969SOL     OW99739  11.739   5.773  10.199
65969SOL    HW199740  11.818   5.814  10.236
65969SOL    HW299741  11.684   5.847  10.172
65970SOL     OW99742   3.797   4.900  12.442
65970SOL    HW199743   3.816   4.979  12.391
65970SOL    HW299744   3.703   4.888  12.432
65971SOL     OW99745   4.785   1.604   4.874
65971SOL    HW199746   4.851   1.637   4.935
65971SOL    HW299747   4.757   1.682   4.825
65972SOL     OW99748  13.463   8.496   6.440
65972SOL    HW199749  13.407   8.574   6.431
65972SOL    HW299750  13.444   8.463   6.528
65973SOL     OW99751  10.126   7.255  11.659
65973SOL    HW199752  10.209   7.218  11.688
65973SOL    HW299753  10.144   7.348  11.647
65974SOL     OW99754   7.188   5.371   2.715
65974SOL    HW199755   7.144   5.301   2.667
65974SOL    HW299756   7.262   5.327   2.758
65975SOL     OW99757  11.345  12.167   6.341
65975SOL    HW199758  11.346  12.166   6.246
65975SOL    HW299759  11.290  12.242   6.364
65976SOL     OW99760   4.063   4.394  12.281
65976SOL    HW199761   4.150   4.395  12.241
65976SOL    HW299762   4.066   4.462  12.348
65977SOL     OW99763   0.230   0.750  10.867
65977SOL    HW199764   0.183   0.672  10.897
65977SOL    HW299765   0.193   0.821  10.918
65978SOL     OW99766   8.590  12.096   5.193
65978SOL    HW199767   8.630  12.183   5.192
65978SOL    HW299768   8.646  12.045   5.253
65979SOL     OW99769   2.711   7.372   9.389
65979SOL    HW199770   2.782   7.428   9.356
65979SOL    HW299771   2.631   7.418   9.363
65980SOL     OW99772   9.768   2.365  14.217
65980SOL    HW199773   9.735   2.349  14.129
65980SOL    HW299774   9.843   2.423  14.204
65981SOL     OW99775   2.913   3.093  10.926
65981SOL    HW199776   2.972   3.141  10.984
65981SOL    HW299777   2.919   3.140  10.842
65982SOL     OW99778   1.515   5.090   0.636
65982SOL    HW199779   1.530   4.998   0.617
65982SOL    HW299780   1.450   5.117   0.571
65983SOL     OW99781   1.101   0.031   4.799
65983SOL    HW199782   1.161   0.104   4.810
65983SOL    HW299783   1.152  14.844   4.751
65984SOL     OW99784   4.812  13.872  10.909
65984SOL    HW199785   4.770  13.951  10.941
65984SOL    HW299786   4.740  13.809  10.897
65985SOL     OW99787   5.907   9.073   3.473
65985SOL    HW199788   5.971   9.142   3.453
65985SOL    HW299789   5.847   9.074   3.398
65986SOL     OW99790  13.418   9.020   1.618
65986SOL    HW199791  13.354   8.999   1.687
65986SOL    HW299792  13.452   9.106   1.642
65987SOL     OW99793   9.803   6.928  13.056
65987SOL    HW199794   9.744   6.992  13.098
65987SOL    HW299795   9.808   6.857  13.120
65988SOL     OW99796   6.980   4.191   0.016
65988SOL    HW199797   6.915   4.128   0.044
65988SOL    HW299798   6.994   4.172  14.802
65989SOL     OW99799  11.729  14.209   6.244
65989SOL    HW199800  11.751  14.276   6.179
65989SOL    HW299801  11.634  14.217   6.255
65990SOL     OW99802   2.217   1.444   4.857
65990SOL    HW199803   2.160   1.473   4.786
65990SOL    HW299804   2.167   1.376   4.901
65991SOL     OW99805  13.834   6.090  12.002
65991SOL    HW199806  13.833   6.004  11.960
65991SOL    HW299807  13.813   6.071  12.094
65992SOL     OW99808  12.818   5.808  14.121
65992SOL    HW199809  12.744   5.840  14.069
65992SOL    HW299810  12.895   5.847  14.080
65993SOL     OW99811   3.787  12.122   4.431
65993SOL    HW199812   3.784  12.197   4.491
65993SOL    HW299813   3.823  12.051   4.484
65994SOL     OW99814  13.201   0.252  10.063
65994SOL    HW199815  13.279   0.204  10.093
65994SOL    HW299816  13.216   0.265   9.970
65995SOL     OW99817   8.948   0.830  12.792
65995SOL    HW199818   8.914   0.759  12.737
65995SOL    HW299819   8.986   0.786  12.867
65996SOL     OW99820   6.295  12.594  10.889
65996SOL    HW199821   6.330  12.679  10.913
65996SOL    HW299822   6.349  12.565  10.815
65997SOL     OW99823   8.675   5.386  13.265
65997SOL    HW199824   8.729   5.438  13.205
65997SOL    HW299825   8.593   5.372  13.218
65998SOL     OW99826   6.088   9.747   5.088
65998SOL    HW199827   6.138   9.694   5.150
65998SOL    HW299828   5.997   9.723   5.104
65999SOL     OW99829   5.103   2.025  14.806
65999SOL    HW199830   5.123   2.076   0.005
65999SOL    HW299831   5.181   1.972  14.791
66000SOL     OW99832   3.114   3.399   3.372
66000SOL    HW199833   3.136   3.308   3.351
66000SOL    HW299834   3.025   3.395   3.406
66001SOL     OW99835   7.724   9.109   7.821
66001SOL    HW199836   7.684   9.029   7.788
66001SOL    HW299837   7.653   9.173   7.824
66002SOL     OW99838  13.687   6.985  11.635
66002SOL    HW199839  13.710   7.042  11.561
66002SOL    HW299840  13.695   7.041  11.712
66003SOL     OW99841  12.438  11.778   4.234
66003SOL    HW199842  12.417  11.734   4.152
66003SOL    HW299843  12.508  11.724   4.273
66004SOL     OW99844   8.878   4.762   8.448
66004SOL    HW199845   8.938   4.691   8.469
66004SOL    HW299846   8.928   4.818   8.388
66005SOL     OW99847   5.755   0.946   9.914
66005SOL    HW199848   5.756   0.852   9.934
66005SOL    HW299849   5.814   0.985   9.979
66006SOL     OW99850   3.218   2.422   7.943
66006SOL    HW199851   3.159   2.461   8.008
66006SOL    HW299852   3.181   2.448   7.859
66007SOL     OW99853   7.931   9.709   8.987
66007SOL    HW199854   7.858   9.762   9.021
66007SOL    HW299855   8.000   9.773   8.968
66008SOL     OW99856   2.344   0.474   2.921
66008SOL    HW199857   2.267   0.530   2.930
66008SOL    HW299858   2.351   0.428   3.005
66009SOL     OW99859  10.644   6.947   3.367
66009SOL    HW199860  10.605   6.975   3.450
66009SOL    HW299861  10.677   7.028   3.328
66010SOL     OW99862   5.509   2.004   8.311
66010SOL    HW199863   5.521   1.909   8.299
66010SOL    HW299864   5.424   2.012   8.355
66011SOL     OW99865   2.174  14.584   3.244
66011SOL    HW199866   2.092  14.626   3.220
66011SOL    HW299867   2.150  14.520   3.311
66012SOL     OW99868  10.076   7.257  12.376
66012SOL    HW199869  10.126   7.202  12.315
66012SOL    HW299870   9.986   7.250  12.347
66013SOL     OW99871   6.293   7.476   7.402
66013SOL    HW199872   6.223   7.491   7.339
66013SOL    HW299873   6.299   7.557   7.452
66014SOL     OW99874   1.566  12.614   6.510
66014SOL    HW199875   1.496  12.597   6.447
66014SOL    HW299876   1.528  12.593   6.595
66015SOL     OW99877   0.578   0.903   9.757
66015SOL    HW199878   0.621   0.911   9.842
66015SOL    HW299879   0.635   0.951   9.697
66016SOL     OW99880  10.745   7.339  14.554
66016SOL    HW199881  10.720   7.395  14.627
66016SOL    HW299882  10.674   7.347  14.492
66017SOL     OW99883   4.687  11.126  10.864
66017SOL    HW199884   4.774  11.147  10.897
66017SOL    HW299885   4.703  11.065  10.792
66018SOL     OW99886   4.645  10.864   5.089
66018SOL    HW199887   4.582  10.922   5.131
66018SOL    HW299888   4.728  10.883   5.132
66019SOL     OW99889   4.348  11.115   8.769
66019SOL    HW199890   4.355  11.032   8.815
66019SOL    HW299891   4.438  11.141   8.750
66020SOL     OW99892   2.541  11.586  12.986
66020SOL    HW199893   2.467  11.638  13.020
66020SOL    HW299894   2.571  11.535  13.061
66021SOL     OW99895  11.716   1.558   7.920
66021SOL    HW199896  11.690   1.541   7.830
66021SOL    HW299897  11.670   1.492   7.972
66022SOL     OW99898   5.318   8.967  11.894
66022SOL    HW199899   5.269   9.002  11.819
66022SOL    HW299900   5.310   9.035  11.961
66023SOL     OW99901   0.420   1.368   6.952
66023SOL    HW199902   0.460   1.448   6.920
66023SOL    HW299903   0.482   1.299   6.929
66024SOL     OW99904  13.439   0.149   5.208
66024SOL    HW199905  13.352   0.187   5.198
66024SOL    HW299906  13.499   0.223   5.199
66025SOL     OW99907  11.315   9.700   2.776
66025SOL    HW199908  11.314   9.606   2.761
66025SOL    HW299909  11.244   9.734   2.721
66026SOL     OW99910  12.641   5.512   2.871
66026SOL    HW199911  12.729   5.550   2.872
66026SOL    HW299912  12.583   5.584   2.898
66027SOL     OW99913   0.463   9.734   2.055
66027SOL    HW199914   0.376   9.761   2.086
66027SOL    HW299915   0.520   9.743   2.131
66028SOL     OW99916  11.475  14.874   2.518
66028SOL    HW199917  11.542   0.042   2.568
66028SOL    HW299918  11.451   0.055   2.447
66029SOL     OW99919  14.680   9.247  13.236
66029SOL    HW199920  14.614   9.251  13.305
66029SOL    HW299921  14.670   9.160  13.198
66030SOL     OW99922   3.274  10.931  10.349
66030SOL    HW199923   3.209  10.938  10.419
66030SOL    HW299924   3.255  11.005  10.291
66031SOL     OW99925   9.266  11.931   3.965
66031SOL    HW199926   9.290  11.984   4.041
66031SOL    HW299927   9.171  11.940   3.958
66032SOL     OW99928   5.743   2.751   9.324
66032SOL    HW199929   5.691   2.681   9.363
66032SOL    HW299930   5.767   2.718   9.237
66033SOL     OW99931   3.519   3.049   6.157
66033SOL    HW199932   3.588   3.079   6.098
66033SOL    HW299933   3.438   3.077   6.115
66034SOL     OW99934  12.204   7.183   6.228
66034SOL    HW199935  12.118   7.198   6.189
66034SOL    HW299936  12.246   7.121   6.168
66035SOL     OW99937   2.046   8.267   5.141
66035SOL    HW199938   2.124   8.321   5.124
66035SOL    HW299939   2.079   8.177   5.139
66036SOL     OW99940  12.504   5.952   0.670
66036SOL    HW199941  12.522   6.043   0.693
66036SOL    HW299942  12.412   5.940   0.694
66037SOL     OW99943   8.844   0.360   8.925
66037SOL    HW199944   8.797   0.327   8.849
66037SOL    HW299945   8.873   0.448   8.899
66038SOL     OW99946   7.414  14.425   7.653
66038SOL    HW199947   7.359  14.349   7.633
66038SOL    HW299948   7.484  14.390   7.709
66039SOL     OW99949   3.226   5.416  11.033
66039SOL    HW199950   3.283   5.384  10.963
66039SOL    HW299951   3.246   5.509  11.039
66040SOL     OW99952   2.194   5.344   0.126
66040SOL    HW199953   2.131   5.405   0.166
66040SOL    HW299954   2.256   5.325   0.197
66041SOL     OW99955  11.089  14.097   1.912
66041SOL    HW199956  11.092  14.125   2.004
66041SOL    HW299957  11.147  14.158   1.867
66042SOL     OW99958   5.276   2.034   4.796
66042SOL    HW199959   5.240   2.043   4.708
66042SOL    HW299960   5.274   1.940   4.814
66043SOL     OW99961   9.387   2.167   2.315
66043SOL    HW199962   9.348   2.200   2.233
66043SOL    HW299963   9.400   2.246   2.367
66044SOL     OW99964  13.001  11.988   9.914
66044SOL    HW199965  13.069  11.948   9.860
66044SOL    HW299966  13.039  12.071   9.942
66045SOL     OW99967  13.365   2.057  11.576
66045SOL    HW199968  13.335   2.110  11.503
66045SOL    HW299969  13.296   1.990  11.587
66046SOL     OW99970   2.349  13.573   9.283
66046SOL    HW199971   2.362  13.652   9.336
66046SOL    HW299972   2.435  13.530   9.284
66047SOL     OW99973   9.968  13.760   7.908
66047SOL    HW199974  10.054  13.733   7.938
66047SOL    HW299975   9.954  13.711   7.827
66048SOL     OW99976   5.712  11.261  13.110
66048SOL    HW199977   5.674  11.253  13.022
66048SOL    HW299978   5.769  11.185  13.119
66049SOL     OW99979   3.108   9.837  11.279
66049SOL    HW199980   3.033   9.874  11.231
66049SOL    HW299981   3.088   9.852  11.371
66050SOL     OW99982  10.471  12.625  12.270
66050SOL    HW199983  10.408  12.588  12.209
66050SOL    HW299984  10.520  12.689  12.219
66051SOL     OW99985  14.284   8.661   5.921
66051SOL    HW199986  14.341   8.584   5.921
66051SOL    HW299987  14.316   8.715   5.993
66052SOL     OW99988   2.372   4.239  11.103
66052SOL    HW199989   2.276   4.241  11.095
66052SOL    HW299990   2.395   4.149  11.081
66053SOL     OW99991  11.942   9.357   5.319
66053SOL    HW199992  12.016   9.417   5.313
66053SOL    HW299993  11.870   9.412   5.350
66054SOL     OW99994  11.117   0.258  13.215
66054SOL    HW199995  11.048   0.289  13.275
66054SOL    HW299996  11.119   0.163  13.229
66055SOL     OW99997   1.660   7.827   7.250
66055SOL    HW199998   1.667   7.922   7.250
66055SOL    HW299999   1.745   7.797   7.216
66056SOL     OW    0   4.893   6.787   9.343
66056SOL    HW1    1   4.970   6.811   9.395
66056SOL    HW2    2   4.905   6.693   9.324
66057SOL     OW    3   6.088  11.419   7.899
66057SOL    HW1    4   6.093  11.411   7.803
66057SOL    HW2    5   6.122  11.507   7.917
66058SOL     OW    6   1.191   4.883  11.471
66058SOL    HW1    7   1.232   4.801  11.444
66058SOL    HW2    8   1.130   4.858  11.541
66059SOL     OW    9   3.456   4.884  12.554
66059SOL    HW1   10   3.426   4.916  12.468
66059SOL    HW2   11   3.471   4.963  12.605
66060SOL     OW   12   4.100  14.218   8.281
66060SOL    HW1   13   4.151  14.268   8.218
66060SOL    HW2   14   4.106  14.127   8.251
66061SOL     OW   15  10.381  13.776  11.494
66061SOL    HW1   16  10.392  13.824  11.576
66061SOL    HW2   17  10.325  13.702  11.517
66062SOL     OW   18   0.843   2.719   8.159
66062SOL    HW1   19   0.931   2.684   8.145
66062SOL    HW2   20   0.785   2.644   8.148
66063SOL     OW   21   0.588   5.244   9.880
66063SOL    HW1   22   0.502   5.254   9.841
66063SOL    HW2   23   0.648   5.237   9.806
66064SOL     OW   24  12.644  12.880   7.312
66064SOL    HW1   25  12.714  12.944   7.323
66064SOL    HW2   26  12.628  12.877   7.218
66065SOL     OW   27  13.315   7.693  13.269
66065SOL    HW1   28  13.383   7.737  13.319
66065SOL    HW2   29  13.233   7.733  13.299
66066SOL     OW   30   9.472   6.966   4.960
66066SOL    HW1   31   9.379   6.960   4.936
66066SOL    HW2   32   9.482   7.054   4.996
66067SOL     OW   33  14.218  10.461   1.880
66067SOL    HW1   34  14.261  10.427   1.958
66067SOL    HW2   35  14.276  10.531   1.850
66068SOL     OW   36   4.998  12.411   4.034
66068SOL    HW1   37   4.931  12.356   3.993
66068SOL    HW2   38   4.975  12.500   4.008
66069SOL     OW   39   6.097   6.332  12.314
66069SOL    HW1   40   6.179   6.286  12.295
66069SOL    HW2   41   6.100   6.347  12.409
66070SOL     OW   42   2.977  12.627   0.788
66070SOL    HW1   43   2.964  12.698   0.725
66070SOL    HW2   44   3.007  12.553   0.736
66071SOL     OW   45  11.460   9.832   4.096
66071SOL    HW1   46  11.514   9.773   4.044
66071SOL    HW2   47  11.491   9.919   4.073
66072SOL     OW   48  11.193  13.477   9.452
66072SOL    HW1   49  11.217  13.434   9.534
66072SOL    HW2   50  11.144  13.410   9.404
66073SOL     OW   51   1.678  11.793   2.974
66073SOL    HW1   52   1.608  11.766   3.034
66073SOL    HW2   53   1.709  11.876   3.009
66074SOL     OW   54   0.558  12.685   6.357
66074SOL    HW1   55   0.537  12.776   6.336
66074SOL    HW2   56   0.501  12.664   6.432
66075SOL     OW   57  13.169   6.519  13.287
66075SOL    HW1   58  13.253   6.472  13.276
66075SOL    HW2   59  13.193   6.598  13.335
66076SOL     OW   60  11.233   9.768  10.455
66076SOL    HW1   61  11.279   9.796  10.375
66076SOL    HW2   62  11.205   9.679  10.437
66077SOL     OW   63   3.145   1.232  13.239
66077SOL    HW1   64   3.088   1.188  13.176
66077SOL    HW2   65   3.086   1.265  13.306
66078SOL     OW   66   2.936  10.339   4.641
66078SOL    HW1   67   2.991  10.415   4.657
66078SOL    HW2   68   2.855  10.358   4.689
66079SOL     OW   69  12.600   0.910  12.745
66079SOL    HW1   70  12.674   0.884  12.690
66079SOL    HW2   71  12.631   0.987  12.792
66080SOL     OW   72   3.628   9.261  11.080
66080SOL    HW1   73   3.624   9.340  11.026
66080SOL    HW2   74   3.721   9.244  11.091
66081SOL     OW   75   7.170   4.811   0.829
66081SOL    HW1   76   7.108   4.739   0.840
66081SOL    HW2   77   7.214   4.818   0.914
66082SOL     OW   78   2.045   2.356   3.970
66082SOL    HW1   79   2.117   2.411   4.000
66082SOL    HW2   80   2.016   2.397   3.888
66083SOL     OW   81   9.609   9.601   7.714
66083SOL    HW1   82   9.625   9.645   7.631
66083SOL    HW2   83   9.626   9.668   7.781
66084SOL     OW   84   4.342   2.430   2.846
66084SOL    HW1   85   4.291   2.429   2.928
66084SOL    HW2   86   4.392   2.349   2.848
66085SOL     OW   87  12.218   5.684   6.016
66085SOL    HW1   88  12.276   5.642   6.080
66085SOL    HW2   89  12.178   5.612   5.968
66086SOL     OW   90   1.852   1.427  10.460
66086SOL    HW1   91   1.934   1.472  10.440
66086SOL    HW2   92   1.817   1.473  10.536
66087SOL     OW   93   4.119   1.857   9.739
66087SOL    HW1   94   4.146   1.792   9.804
66087SOL    HW2   95   4.115   1.809   9.657
66088SOL     OW   96   9.126  12.277  13.022
66088SOL    HW1   97   9.166  12.236  13.098
66088SOL    HW2   98   9.071  12.209  12.984
66089SOL     OW   99  10.189   7.815   9.204
66089SOL    HW1  100  10.281   7.843   9.209
66089SOL    HW2  101  10.180   7.752   9.275
66090SOL     OW  102   7.478   9.054   8.012
66090SOL    HW1  103   7.460   9.004   7.932
66090SOL    HW2  104   7.398   9.044   8.065
66091SOL     OW  105  11.192  12.896  13.459
66091SOL    HW1  106  11.178  12.900  13.553
66091SOL    HW2  107  11.287  12.890  13.448
66092SOL     OW  108   6.027   0.770  13.449
66092SOL    HW1  109   6.018   0.692  13.394
66092SOL    HW2  110   5.938   0.798  13.466
66093SOL     OW  111  14.578   9.402  11.842
66093SOL    HW1  112  14.549   9.446  11.922
66093SOL    HW2  113  14.563   9.309  11.859
66094SOL     OW  114   7.759   9.458   3.266
66094SOL    HW1  115   7.677   9.496   3.297
66094SOL    HW2  116   7.742   9.435   3.175
66095SOL     OW  117   7.515  10.002  12.306
66095SOL    HW1  118   7.484   9.913  12.291
66095SOL    HW2  119   7.490  10.021  12.396
66096SOL     OW  120   0.077   0.574  12.916
66096SOL    HW1  121  14.879   0.622  12.944
66096SOL    HW2  122   0.068   0.567  12.821
66097SOL     OW  123  11.605   7.041   7.335
66097SOL    HW1  124  11.562   6.992   7.265
66097SOL    HW2  125  11.653   7.111   7.290
66098SOL     OW  126   5.355   5.696   4.307
66098SOL    HW1  127   5.421   5.762   4.327
66098SOL    HW2  128   5.404   5.625   4.265
66099SOL     OW  129   0.209   7.680  11.489
66099SOL    HW1  130   0.209   7.668  11.584
66099SOL    HW2  131   0.298   7.656  11.462
66100SOL     OW  132  14.296   5.929  10.005
66100SOL    HW1  133  14.263   5.851  10.049
66100SOL    HW2  134  14.347   5.895   9.931
66101SOL     OW  135   6.479  11.631   5.128
66101SOL    HW1  136   6.481  11.706   5.187
66101SOL    HW2  137   6.422  11.568   5.173
66102SOL     OW  138   0.640   1.365  11.337
66102SOL    HW1  139   0.702   1.303  11.377
66102SOL    HW2  140   0.554   1.333  11.363
66103SOL     OW  141   7.802   8.974   3.744
66103SOL    HW1  142   7.742   8.976   3.818
66103SOL    HW2  143   7.869   8.909   3.769
66104SOL     OW  144   4.201   9.202   6.662
66104SOL    HW1  145   4.226   9.114   6.688
66104SOL    HW2  146   4.106   9.200   6.656
66105SOL     OW  147   1.343  10.569   2.762
66105SOL    HW1  148   1.280  10.586   2.832
66105SOL    HW2  149   1.328  10.477   2.738
66106SOL     OW  150  11.732   9.493   0.601
66106SOL    HW1  151  11.768   9.533   0.680
66106SOL    HW2  152  11.807   9.458   0.555
66107SOL     OW  153   4.062   6.703   4.165
66107SOL    HW1  154   4.089   6.666   4.249
66107SOL    HW2  155   3.984   6.654   4.142
66108SOL     OW  156  12.257  10.752   0.405
66108SOL    HW1  157  12.289  10.833   0.366
66108SOL    HW2  158  12.335  10.713   0.446
66109SOL     OW  159   7.830   9.015   5.632
66109SOL    HW1  160   7.787   8.938   5.595
66109SOL    HW2  161   7.922   9.005   5.608
66110SOL     OW  162  11.508   4.646   4.078
66110SOL    HW1  163  11.474   4.722   4.125
66110SOL    HW2  164  11.430   4.594   4.058
66111SOL     OW  165   4.245   2.581   5.354
66111SOL    HW1  166   4.256   2.656   5.295
66111SOL    HW2  167   4.289   2.607   5.435
66112SOL     OW  168   0.035   7.000   5.878
66112SOL    HW1  169   0.031   6.916   5.925
66112SOL    HW2  170   0.111   7.044   5.916
66113SOL     OW  171   4.402   0.320  13.758
66113SOL    HW1  172   4.320   0.371  13.755
66113SOL    HW2  173   4.448   0.346  13.678
66114SOL     OW  174   4.186   6.591   4.394
66114SOL    HW1  175   4.275   6.595   4.358
66114SOL    HW2  176   4.198   6.572   4.487
66115SOL     OW  177  10.572  13.724   6.506
66115SOL    HW1  178  10.630  13.741   6.431
66115SOL    HW2  179  10.484  13.720   6.468
66116SOL     OW  180  11.792   2.438   0.327
66116SOL    HW1  181  11.702   2.407   0.319
66116SOL    HW2  182  11.830   2.425   0.240
66117SOL     OW  183   3.320  14.370  10.850
66117SOL    HW1  184   3.406  14.355  10.811
66117SOL    HW2  185   3.311  14.465  10.855
66118SOL     OW  186   6.032  11.144  10.529
66118SOL    HW1  187   6.001  11.096  10.605
66118SOL    HW2  188   6.121  11.173  10.553
66119SOL     OW  189   1.378   1.510  11.045
66119SOL    HW1  190   1.426   1.521  10.963
66119SOL    HW2  191   1.286   1.504  11.019
66120SOL     OW  192   8.468  13.566   8.636
66120SOL    HW1  193   8.438  13.538   8.723
66120SOL    HW2  194   8.449  13.660   8.633
66121SOL     OW  195   6.115   2.489  14.282
66121SOL    HW1  196   6.103   2.543  14.361
66121SOL    HW2  197   6.168   2.415  14.311
66122SOL     OW  198   2.752   7.869   3.484
66122SOL    HW1  199   2.719   7.789   3.526
66122SOL    HW2  200   2.755   7.848   3.391
66123SOL     OW  201   0.251   3.063   6.775
66123SOL    HW1  202   0.236   3.057   6.870
66123SOL    HW2  203   0.265   2.972   6.747
66124SOL     OW  204   8.221   5.155  12.593
66124SOL    HW1  205   8.258   5.206  12.522
66124SOL    HW2  206   8.157   5.098  12.551
66125SOL     OW  207   0.860   9.175  11.636
66125SOL    HW1  208   0.848   9.262  11.674
66125SOL    HW2  209   0.883   9.191  11.545
66126SOL     OW  210   4.292  13.413  13.589
66126SOL    HW1  211   4.241  13.482  13.630
66126SOL    HW2  212   4.291  13.341  13.652
66127SOL     OW  213   2.390   0.108   9.542
66127SOL    HW1  214   2.472   0.116   9.591
66127SOL    HW2  215   2.388   0.017   9.512
66128SOL     OW  216  10.382   7.214   9.740
66128SOL    HW1  217  10.463   7.203   9.790
66128SOL    HW2  218  10.338   7.130   9.747
66129SOL     OW  219   1.385  13.316   1.330
66129SOL    HW1  220   1.299  13.275   1.325
66129SOL    HW2  221   1.446  13.243   1.339
66130SOL     OW  222   8.291   5.230   9.351
66130SOL    HW1  223   8.221   5.239   9.286
66130SOL    HW2  224   8.371   5.222   9.300
66131SOL     OW  225  11.790   9.760   7.486
66131SOL    HW1  226  11.792   9.674   7.443
66131SOL    HW2  227  11.796   9.823   7.413
66132SOL     OW  228   8.612   1.226  11.729
66132SOL    HW1  229   8.614   1.230  11.824
66132SOL    HW2  230   8.593   1.316  11.701
66133SOL     OW  231   0.704  13.270  12.531
66133SOL    HW1  232   0.668  13.225  12.455
66133SOL    HW2  233   0.682  13.214  12.605
66134SOL     OW  234  12.058  14.765   5.577
66134SOL    HW1  235  12.097  14.697   5.522
66134SOL    HW2  236  11.982  14.796   5.527
66135SOL     OW  237   6.956   2.845   5.778
66135SOL    HW1  238   6.927   2.812   5.693
66135SOL    HW2  239   6.967   2.767   5.831
66136SOL     OW  240   6.676  11.063   1.414
66136SOL    HW1  241   6.581  11.069   1.420
66136SOL    HW2  242   6.698  10.984   1.462
66137SOL     OW  243   3.085  14.620  12.356
66137SOL    HW1  244   3.064  14.711  12.379
66137SOL    HW2  245   3.175  14.609  12.385
66138SOL     OW  246   8.351   5.557   5.110
66138SOL    HW1  247   8.328   5.505   5.188
66138SOL    HW2  248   8.430   5.605   5.137
66139SOL     OW  249   6.947  13.761   8.562
66139SOL    HW1  250   6.959  13.666   8.560
66139SOL    HW2  251   6.920  13.784   8.473
66140SOL     OW  252  13.498   8.245   7.245
66140SOL    HW1  253  13.436   8.269   7.176
66140SOL    HW2  254  13.519   8.329   7.287
66141SOL     OW  255   7.909  14.779   4.723
66141SOL    HW1  256   7.954  14.819   4.797
66141SOL    HW2  257   7.976  14.728   4.678
66142SOL     OW  258   2.107   1.020   3.098
66142SOL    HW1  259   2.100   0.961   3.173
66142SOL    HW2  260   2.197   1.011   3.068
66143SOL     OW  261   2.952   8.359   1.913
66143SOL    HW1  262   2.862   8.327   1.911
66143SOL    HW2  263   2.990   8.328   1.830
66144SOL     OW  264  11.383   9.291   7.740
66144SOL    HW1  265  11.399   9.358   7.673
66144SOL    HW2  266  11.456   9.230   7.731
66145SOL     OW  267  10.491  14.009   2.102
66145SOL    HW1  268  10.410  14.011   2.152
66145SOL    HW2  269  10.547  14.075   2.143
66146SOL     OW  270   2.965   6.474   6.262
66146SOL    HW1  271   2.911   6.528   6.205
66146SOL    HW2  272   3.042   6.453   6.211
66147SOL     OW  273   7.608   0.507   0.957
66147SOL    HW1  274   7.704   0.505   0.961
66147SOL    HW2  275   7.583   0.419   0.928
66148SOL     OW  276   8.985   6.814   2.875
66148SOL    HW1  277   9.003   6.732   2.829
66148SOL    HW2  278   9.000   6.794   2.968
66149SOL     OW  279   3.466   2.884   4.294
66149SOL    HW1  280   3.489   2.977   4.291
66149SOL    HW2  281   3.400   2.878   4.364
66150SOL     OW  282  12.468   5.698  11.479
66150SOL    HW1  283  12.487   5.681  11.571
66150SOL    HW2  284  12.402   5.767  11.480
66151SOL     OW  285   3.529   6.243   5.872
66151SOL    HW1  286   3.466   6.311   5.848
66151SOL    HW2  287   3.573   6.221   5.790
66152SOL     OW  288   2.769   7.653   8.311
66152SOL    HW1  289   2.677   7.660   8.285
66152SOL    HW2  290   2.814   7.717   8.256
66153SOL     OW  291   9.292   2.873   0.887
66153SOL    HW1  292   9.352   2.855   0.814
66153SOL    HW2  293   9.205   2.856   0.851
66154SOL     OW  294   7.929   1.057   2.514
66154SOL    HW1  295   7.883   1.104   2.584
66154SOL    HW2  296   7.952   1.125   2.450
66155SOL     OW  297   8.236  13.087   5.344
66155SOL    HW1  298   8.250  12.992   5.343
66155SOL    HW2  299   8.305  13.120   5.401
66156SOL     OW  300   6.810   7.120  13.428
66156SOL    HW1  301   6.832   7.068  13.350
66156SOL    HW2  302   6.808   7.211  13.397
66157SOL     OW  303   8.022   4.000  12.499
66157SOL    HW1  304   8.081   4.075  12.493
66157SOL    HW2  305   7.970   4.005  12.418
66158SOL     OW  306   1.695  13.761  10.261
66158SOL    HW1  307   1.678  13.684  10.206
66158SOL    HW2  308   1.725  13.724  10.344
66159SOL     OW  309   1.768  14.450   5.545
66159SOL    HW1  310   1.689  14.427   5.594
66159SOL    HW2  311   1.800  14.366   5.512
66160SOL     OW  312   3.203   2.404  13.389
66160SOL    HW1  313   3.123   2.386  13.439
66160SOL    HW2  314   3.265   2.437  13.454
66161SOL     OW  315   2.105   4.290  11.065
66161SOL    HW1  316   2.093   4.354  10.995
66161SOL    HW2  317   2.059   4.212  11.034
66162SOL     OW  318  13.819   9.435   1.533
66162SOL    HW1  319  13.849   9.471   1.450
66162SOL    HW2  320  13.724   9.425   1.523
66163SOL     OW  321  13.685   6.956   7.304
66163SOL    HW1  322  13.674   7.046   7.337
66163SOL    HW2  323  13.650   6.959   7.215
66164SOL     OW  324   3.683   6.858  10.377
66164SOL    HW1  325   3.653   6.859  10.286
66164SOL    HW2  326   3.613   6.901  10.426
66165SOL     OW  327   5.172   1.363  10.262
66165SOL    HW1  328   5.190   1.411  10.343
66165SOL    HW2  329   5.254   1.319  10.242
66166SOL     OW  330  13.228  11.026  10.551
66166SOL    HW1  331  13.208  11.119  10.541
66166SOL    HW2  332  13.150  10.990  10.594
66167SOL     OW  333  13.603   5.467   2.827
66167SOL    HW1  334  13.672   5.406   2.801
66167SOL    HW2  335  13.523   5.414   2.830
66168SOL     OW  336  12.843   6.532   7.325
66168SOL    HW1  337  12.782   6.464   7.356
66168SOL    HW2  338  12.919   6.522   7.382
66169SOL     OW  339   7.246   9.197   3.147
66169SOL    HW1  340   7.295   9.243   3.215
66169SOL    HW2  341   7.291   9.114   3.135
66170SOL     OW  342  14.278   0.354   6.846
66170SOL    HW1  343  14.304   0.443   6.823
66170SOL    HW2  344  14.286   0.305   6.764
66171SOL     OW  345   6.038  14.692  11.418
66171SOL    HW1  346   5.978  14.758  11.383
66171SOL    HW2  347   6.012  14.682  11.510
66172SOL     OW  348  13.776   0.660   6.422
66172SOL    HW1  349  13.686   0.634   6.399
66172SOL    HW2  350  13.772   0.756   6.431
66173SOL     OW  351   2.380   6.380   1.601
66173SOL    HW1  352   2.379   6.412   1.511
66173SOL    HW2  353   2.449   6.430   1.644
66174SOL     OW  354  12.197  10.521   2.408
66174SOL    HW1  355  12.281  10.527   2.362
66174SOL    HW2  356  12.209  10.576   2.486
66175SOL     OW  357   9.339   3.258  12.800
66175SOL    HW1  358   9.354   3.239  12.893
66175SOL    HW2  359   9.345   3.353  12.793
66176SOL     OW  360   3.912   1.725   4.716
66176SOL    HW1  361   4.002   1.740   4.746
66176SOL    HW2  362   3.871   1.811   4.720
66177SOL     OW  363  13.289   2.492  11.330
66177SOL    HW1  364  13.321   2.560  11.272
66177SOL    HW2  365  13.309   2.524  11.418
66178SOL     OW  366  14.703  12.879  10.333
66178SOL    HW1  367  14.639  12.910  10.398
66178SOL    HW2  368  14.787  12.913  10.364
66179SOL     OW  369   7.613   7.790   0.186
66179SOL    HW1  370   7.548   7.757   0.248
66179SOL    HW2  371   7.597   7.884   0.182
66180SOL     OW  372   9.434  10.636   9.820
66180SOL    HW1  373   9.372  10.696   9.860
66180SOL    HW2  374   9.404  10.549   9.848
66181SOL     OW  375   1.899   9.597   8.705
66181SOL    HW1  376   1.985   9.555   8.705
66181SOL    HW2  377   1.882   9.617   8.797
66182SOL     OW  378  12.682   8.353   1.279
66182SOL    HW1  379  12.595   8.380   1.248
66182SOL    HW2  380  12.703   8.416   1.348
66183SOL     OW  381   2.797   9.724  12.405
66183SOL    HW1  382   2.885   9.697  12.431
66183SOL    HW2  383   2.743   9.706  12.481
66184SOL     OW  384  13.110  11.216   9.033
66184SOL    HW1  385  13.072  11.212   8.945
66184SOL    HW2  386  13.204  11.208   9.020
66185SOL     OW  387   7.403  12.839  10.393
66185SOL    HW1  388   7.324  12.792  10.419
66185SOL    HW2  389   7.373  12.906  10.332
66186SOL     OW  390   3.710  14.158  11.556
66186SOL    HW1  391   3.625  14.159  11.512
66186SOL    HW2  392   3.739  14.067  11.549
66187SOL     OW  393   8.287   8.324  13.305
66187SOL    HW1  394   8.231   8.379  13.359
66187SOL    HW2  395   8.345   8.385  13.260
66188SOL     OW  396   1.749   5.586  10.904
66188SOL    HW1  397   1.688   5.561  10.835
66188SOL    HW2  398   1.703   5.653  10.954
66189SOL     OW  399  14.320  13.849  12.044
66189SOL    HW1  400  14.295  13.759  12.065
66189SOL    HW2  401  14.356  13.883  12.125
66190SOL     OW  402  12.441   0.890  12.492
66190SOL    HW1  403  12.460   0.928  12.578
66190SOL    HW2  404  12.345   0.887  12.488
66191SOL     OW  405   7.002  14.451   7.931
66191SOL    HW1  406   6.992  14.545   7.948
66191SOL    HW2  407   6.981  14.441   7.838
66192SOL     OW  408   7.456  11.131   9.038
66192SOL    HW1  409   7.529  11.115   9.098
66192SOL    HW2  410   7.475  11.215   8.998
66193SOL     OW  411   3.468   1.388   5.086
66193SOL    HW1  412   3.429   1.396   5.173
66193SOL    HW2  413   3.559   1.365   5.103
66194SOL     OW  414   2.031   9.216  13.466
66194SOL    HW1  415   1.949   9.227  13.515
66194SOL    HW2  416   2.090   9.174  13.527
66195SOL     OW  417   4.200   9.972  10.084
66195SOL    HW1  418   4.163  10.021  10.011
66195SOL    HW2  419   4.268  10.029  10.120
66196SOL     OW  420  13.388   6.552  11.194
66196SOL    HW1  421  13.332   6.546  11.272
66196SOL    HW2  422  13.333   6.521  11.122
66197SOL     OW  423  14.389   4.285  11.862
66197SOL    HW1  424  14.340   4.321  11.936
66197SOL    HW2  425  14.325   4.230  11.816
66198SOL     OW  426   3.472  10.627  11.966
66198SOL    HW1  427   3.401  10.664  12.018
66198SOL    HW2  428   3.535  10.698  11.957
66199SOL     OW  429   8.237  13.730   6.886
66199SOL    HW1  430   8.193  13.800   6.839
66199SOL    HW2  431   8.305  13.700   6.826
66200SOL     OW  432   8.120   9.686   8.072
66200SOL    HW1  433   8.030   9.693   8.040
66200SOL    HW2  434   8.125   9.600   8.112
66201SOL     OW  435  10.177   1.994   2.861
66201SOL    HW1  436  10.232   1.925   2.897
66201SOL    HW2  437  10.169   2.058   2.931
66202SOL     OW  438   3.021   6.577  12.580
66202SOL    HW1  439   3.061   6.491  12.588
66202SOL    HW2  440   2.985   6.579  12.491
66203SOL     OW  441  10.854   7.588   1.980
66203SOL    HW1  442  10.829   7.630   2.062
66203SOL    HW2  443  10.795   7.513   1.972
66204SOL     OW  444  11.651   8.393   5.970
66204SOL    HW1  445  11.676   8.437   5.889
66204SOL    HW2  446  11.731   8.349   5.999
66205SOL     OW  447   1.857   5.012   6.705
66205SOL    HW1  448   1.769   5.028   6.739
66205SOL    HW2  449   1.890   5.099   6.681
66206SOL     OW  450   0.474  11.360   0.077
66206SOL    HW1  451   0.404  11.307   0.038
66206SOL    HW2  452   0.554  11.330   0.034
66207SOL     OW  453  10.912   2.736  12.727
66207SOL    HW1  454  10.907   2.802  12.657
66207SOL    HW2  455  11.004   2.713  12.731
66208SOL     OW  456   0.489   7.419   7.125
66208SOL    HW1  457   0.424   7.388   7.063
66208SOL    HW2  458   0.442   7.423   7.209
66209SOL     OW  459  13.364  11.671   8.563
66209SOL    HW1  460  13.290  11.706   8.612
66209SOL    HW2  461  13.354  11.706   8.475
66210SOL     OW  462   6.383   5.581  11.921
66210SOL    HW1  463   6.329   5.503  11.935
66210SOL    HW2  464   6.457   5.551  11.868
66211SOL     OW  465  10.465   7.233   5.848
66211SOL    HW1  466  10.501   7.145   5.849
66211SOL    HW2  467  10.459   7.255   5.755
66212SOL     OW  468  13.818   9.116   2.155
66212SOL    HW1  469  13.869   9.080   2.228
66212SOL    HW2  470  13.784   9.199   2.189
66213SOL     OW  471   5.579   6.238   3.559
66213SOL    HW1  472   5.582   6.155   3.607
66213SOL    HW2  473   5.629   6.222   3.479
66214SOL     OW  474  12.671   1.571   9.458
66214SOL    HW1  475  12.620   1.507   9.506
66214SOL    HW2  476  12.636   1.568   9.369
66215SOL     OW  477   0.092   7.735  14.534
66215SOL    HW1  478   0.024   7.718  14.599
66215SOL    HW2  479   0.103   7.830  14.535
66216SOL     OW  480   0.082   1.920  11.940
66216SOL    HW1  481   0.130   1.837  11.934
66216SOL    HW2  482   0.151   1.987  11.940
66217SOL     OW  483   4.162  13.167   6.893
66217SOL    HW1  484   4.158  13.250   6.847
66217SOL    HW2  485   4.203  13.107   6.831
66218SOL     OW  486   8.754   0.122  11.449
66218SOL    HW1  487   8.815   0.117  11.522
66218SOL    HW2  488   8.670   0.098  11.486
66219SOL     OW  489  12.696   3.991  14.512
66219SOL    HW1  490  12.785   3.963  14.488
66219SOL    HW2  491  12.652   4.003  14.428
66220SOL     OW  492   7.353   1.204   3.896
66220SOL    HW1  493   7.401   1.159   3.825
66220SOL    HW2  494   7.379   1.296   3.888
66221SOL     OW  495   8.649   7.129   1.609
66221SOL    HW1  496   8.627   7.055   1.666
66221SOL    HW2  497   8.574   7.138   1.551
66222SOL     OW  498   0.972  11.299   6.330
66222SOL    HW1  499   1.038  11.273   6.393
66222SOL    HW2  500   0.975  11.395   6.331
66223SOL     OW  501   2.648   9.205   7.481
66223SOL    HW1  502   2.667   9.156   7.401
66223SOL    HW2  503   2.731   9.243   7.507
66224SOL     OW  504   8.566  14.159   4.958
66224SOL    HW1  505   8.476  14.127   4.949
66224SOL    HW2  506   8.556  14.248   4.993
66225SOL     OW  507   5.428   9.055   4.986
66225SOL    HW1  508   5.514   9.045   4.945
66225SOL    HW2  509   5.445   9.042   5.079
66226SOL     OW  510   1.587   8.664  10.664
66226SOL    HW1  511   1.546   8.750  10.669
66226SOL    HW2  512   1.681   8.681  10.678
66227SOL     OW  513  10.013  11.269  11.693
66227SOL    HW1  514  10.094  11.242  11.649
66227SOL    HW2  515  10.040  11.343  11.748
66228SOL     OW  516   6.187   7.316   0.919
66228SOL    HW1  517   6.155   7.352   1.002
66228SOL    HW2  518   6.209   7.392   0.866
66229SOL     OW  519  11.459  12.155   3.994
66229SOL    HW1  520  11.539  12.105   4.006
66229SOL    HW2  521  11.424  12.125   3.911
66230SOL     OW  522   9.642   9.290   7.400
66230SOL    HW1  523   9.711   9.351   7.373
66230SOL    HW2  524   9.647   9.219   7.336
66231SOL     OW  525  13.872  10.827   9.954
66231SOL    HW1  526  13.835  10.911   9.981
66231SOL    HW2  527  13.795  10.769   9.945
66232SOL     OW  528   9.483   1.329   7.316
66232SOL    HW1  529   9.519   1.310   7.402
66232SOL    HW2  530   9.560   1.349   7.262
66233SOL     OW  531   3.466   4.773   3.441
66233SOL    HW1  532   3.478   4.731   3.356
66233SOL    HW2  533   3.392   4.833   3.429
66234SOL     OW  534   1.559  11.073   2.126
66234SOL    HW1  535   1.535  11.049   2.036
66234SOL    HW2  536   1.551  11.169   2.128
66235SOL     OW  537   8.350   3.118   5.768
66235SOL    HW1  538   8.368   3.171   5.846
66235SOL    HW2  539   8.313   3.037   5.802
66236SOL     OW  540   1.579   4.089   4.937
66236SOL    HW1  541   1.579   4.025   5.008
66236SOL    HW2  542   1.500   4.068   4.886
66237SOL     OW  543  10.903   5.185   7.958
66237SOL    HW1  544  10.811   5.194   7.930
66237SOL    HW2  545  10.914   5.092   7.974
66238SOL     OW  546   8.741   7.001  11.562
66238SOL    HW1  547   8.705   7.087  11.538
66238SOL    HW2  548   8.794   6.976  11.486
66239SOL     OW  549   1.598  12.057   0.893
66239SOL    HW1  550   1.612  11.967   0.862
66239SOL    HW2  551   1.661  12.109   0.844
66240SOL     OW  552  12.240   9.337  14.107
66240SOL    HW1  553  12.312   9.379  14.061
66240SOL    HW2  554  12.172   9.404  14.112
66241SOL     OW  555   8.740  11.475   7.292
66241SOL    HW1  556   8.830  11.508   7.280
66241SOL    HW2  557   8.723  11.423   7.213
66242SOL     OW  558   5.150   9.144   2.536
66242SOL    HW1  559   5.070   9.117   2.582
66242SOL    HW2  560   5.208   9.174   2.606
66243SOL     OW  561  14.359   6.091  12.777
66243SOL    HW1  562  14.268   6.111  12.756
66243SOL    HW2  563  14.387   6.164  12.831
66244SOL     OW  564   5.017  11.768  10.524
66244SOL    HW1  565   5.039  11.811  10.607
66244SOL    HW2  566   5.017  11.674  10.546
66245SOL     OW  567   8.741   4.173   3.710
66245SOL    HW1  568   8.678   4.106   3.685
66245SOL    HW2  569   8.690   4.254   3.712
66246SOL     OW  570  11.843   4.765   2.179
66246SOL    HW1  571  11.857   4.847   2.226
66246SOL    HW2  572  11.874   4.697   2.241
66247SOL     OW  573   9.859  13.272   4.051
66247SOL    HW1  574   9.927  13.328   4.089
66247SOL    HW2  575   9.883  13.184   4.081
66248SOL     OW  576   5.258   1.479  14.369
66248SOL    HW1  577   5.302   1.475  14.454
66248SOL    HW2  578   5.289   1.560  14.329
66249SOL     OW  579   1.475  11.758   1.661
66249SOL    HW1  580   1.431  11.740   1.578
66249SOL    HW2  581   1.541  11.689   1.669
66250SOL     OW  582   3.501  11.219   9.624
66250SOL    HW1  583   3.492  11.125   9.637
66250SOL    HW2  584   3.545  11.251   9.702
66251SOL     OW  585   5.999   8.225   8.125
66251SOL    HW1  586   6.013   8.171   8.203
66251SOL    HW2  587   6.075   8.283   8.123
66252SOL     OW  588   6.506  12.288  13.662
66252SOL    HW1  589   6.461  12.364  13.699
66252SOL    HW2  590   6.448  12.214  13.680
66253SOL     OW  591   0.710  11.849   0.173
66253SOL    HW1  592   0.657  11.928   0.168
66253SOL    HW2  593   0.715  11.828   0.266
66254SOL     OW  594   3.126   8.649  12.832
66254SOL    HW1  595   3.100   8.629  12.922
66254SOL    HW2  596   3.217   8.620  12.826
66255SOL     OW  597   8.406   2.392   1.717
66255SOL    HW1  598   8.446   2.304   1.721
66255SOL    HW2  599   8.374   2.399   1.628
66256SOL     OW  600   1.405   8.948   7.835
66256SOL    HW1  601   1.432   8.875   7.891
66256SOL    HW2  602   1.462   9.020   7.861
66257SOL     OW  603   4.068   2.692   3.157
66257SOL    HW1  604   4.103   2.781   3.157
66257SOL    HW2  605   4.044   2.676   3.065
66258SOL     OW  606  11.750  10.208   8.379
66258SOL    HW1  607  11.772  10.299   8.357
66258SOL    HW2  608  11.686  10.182   8.313
66259SOL     OW  609   3.278   9.781   8.210
66259SOL    HW1  610   3.300   9.706   8.266
66259SOL    HW2  611   3.183   9.792   8.220
66260SOL     OW  612   7.501   6.855   4.821
66260SOL    HW1  613   7.565   6.784   4.815
66260SOL    HW2  614   7.540   6.918   4.880
66261SOL     OW  615   6.581   7.759   0.422
66261SOL    HW1  616   6.581   7.682   0.478
66261SOL    HW2  617   6.610   7.831   0.478
66262SOL     OW  618   6.157  14.428  11.473
66262SOL    HW1  619   6.157  14.404  11.380
66262SOL    HW2  620   6.137  14.522  11.474
66263SOL     OW  621   1.312   4.541   6.434
66263SOL    HW1  622   1.306   4.637   6.436
66263SOL    HW2  623   1.403   4.523   6.409
66264SOL     OW  624  13.540   4.614   9.040
66264SOL    HW1  625  13.568   4.523   9.035
66264SOL    HW2  626  13.453   4.611   9.079
66265SOL     OW  627   9.024   6.381   3.290
66265SOL    HW1  628   9.058   6.464   3.323
66265SOL    HW2  629   9.103   6.329   3.272
66266SOL     OW  630   2.171   1.353   2.728
66266SOL    HW1  631   2.079   1.347   2.755
66266SOL    HW2  632   2.167   1.394   2.641
66267SOL     OW  633   3.698   4.054   3.803
66267SOL    HW1  634   3.717   4.059   3.896
66267SOL    HW2  635   3.645   3.975   3.794
66268SOL     OW  636   6.113  11.030  13.526
66268SOL    HW1  637   6.145  10.942  13.544
66268SOL    HW2  638   6.099  11.031  13.431
66269SOL     OW  639  11.070   5.038   8.633
66269SOL    HW1  640  11.101   5.047   8.543
66269SOL    HW2  641  11.045   5.127   8.659
66270SOL     OW  642  14.755   6.182  14.220
66270SOL    HW1  643  14.760   6.113  14.154
66270SOL    HW2  644  14.827   6.164  14.280
66271SOL     OW  645  10.922   6.104   0.187
66271SOL    HW1  646  10.969   6.166   0.242
66271SOL    HW2  647  10.860   6.157   0.138
66272SOL     OW  648   8.632   3.912   3.649
66272SOL    HW1  649   8.598   3.899   3.560
66272SOL    HW2  650   8.569   3.866   3.705
66273SOL     OW  651   7.528   3.420   8.319
66273SOL    HW1  652   7.574   3.504   8.326
66273SOL    HW2  653   7.482   3.411   8.402
66274SOL     OW  654   5.916  12.987   7.076
66274SOL    HW1  655   5.898  13.079   7.091
66274SOL    HW2  656   5.835  12.942   7.099
66275SOL     OW  657   1.773  10.568  11.638
66275SOL    HW1  658   1.777  10.575  11.543
66275SOL    HW2  659   1.859  10.597  11.668
66276SOL     OW  660  13.759  10.666  11.300
66276SOL    HW1  661  13.727  10.576  11.300
66276SOL    HW2  662  13.772  10.686  11.208
66277SOL     OW  663  14.397   4.331   9.679
66277SOL    HW1  664  14.441   4.338   9.764
66277SOL    HW2  665  14.304   4.340   9.700
66278SOL     OW  666   4.874  14.463   1.538
66278SOL    HW1  667   4.803  14.456   1.474
66278SOL    HW2  668   4.949  14.421   1.495
66279SOL     OW  669  14.413  11.561   3.950
66279SOL    HW1  670  14.434  11.570   4.043
66279SOL    HW2  671  14.421  11.650   3.915
66280SOL     OW  672   2.223   6.073   6.082
66280SOL    HW1  673   2.151   6.056   6.021
66280SOL    HW2  674   2.300   6.085   6.027
66281SOL     OW  675  14.818   5.624  13.605
66281SOL    HW1  676   0.014   5.569  13.581
66281SOL    HW2  677  14.835   5.647  13.697
66282SOL     OW  678   6.889   2.239  13.502
66282SOL    HW1  679   6.959   2.184  13.536
66282SOL    HW2  680   6.852   2.282  13.579
66283SOL     OW  681  10.200   3.305   7.734
66283SOL    HW1  682  10.251   3.300   7.653
66283SOL    HW2  683  10.183   3.214   7.757
66284SOL     OW  684   9.269   7.054  14.221
66284SOL    HW1  685   9.310   7.098  14.146
66284SOL    HW2  686   9.225   7.123  14.268
66285SOL     OW  687  12.281   8.228  13.946
66285SOL    HW1  688  12.215   8.283  13.988
66285SOL    HW2  689  12.324   8.181  14.018
66286SOL     OW  690   5.606  10.911   0.587
66286SOL    HW1  691   5.631  10.943   0.674
66286SOL    HW2  692   5.670  10.951   0.528
66287SOL     OW  693   0.620  12.399   8.817
66287SOL    HW1  694   0.676  12.323   8.805
66287SOL    HW2  695   0.606  12.405   8.912
66288SOL     OW  696  13.999   2.496   2.435
66288SOL    HW1  697  13.927   2.549   2.469
66288SOL    HW2  698  13.961   2.446   2.364
66289SOL     OW  699   3.075   5.750  10.568
66289SOL    HW1  700   3.062   5.682  10.502
66289SOL    HW2  701   3.068   5.704  10.652
66290SOL     OW  702  12.197   6.082  11.424
66290SOL    HW1  703  12.200   6.066  11.330
66290SOL    HW2  704  12.238   6.005  11.463
66291SOL     OW  705  13.141   1.511  11.100
66291SOL    HW1  706  13.116   1.602  11.117
66291SOL    HW2  707  13.208   1.517  11.032
66292SOL     OW  708   7.631   2.729   3.855
66292SOL    HW1  709   7.683   2.755   3.778
66292SOL    HW2  710   7.673   2.648   3.885
66293SOL     OW  711  10.637   5.454  11.724
66293SOL    HW1  712  10.639   5.525  11.788
66293SOL    HW2  713  10.559   5.470  11.671
66294SOL     OW  714  10.737  13.247   8.916
66294SOL    HW1  715  10.703  13.218   8.832
66294SOL    HW2  716  10.706  13.182   8.979
66295SOL     OW  717  14.546   3.351   5.550
66295SOL    HW1  718  14.612   3.412   5.584
66295SOL    HW2  719  14.561   3.270   5.600
66296SOL     OW  720  12.361   7.613   1.670
66296SOL    HW1  721  12.286   7.556   1.683
66296SOL    HW2  722  12.390   7.635   1.759
66297SOL     OW  723  12.211  14.364   2.907
66297SOL    HW1  724  12.236  14.275   2.882
66297SOL    HW2  725  12.293  14.411   2.916
66298SOL     OW  726   0.780   9.191   3.898
66298SOL    HW1  727   0.800   9.156   3.811
66298SOL    HW2  728   0.724   9.125   3.939
66299SOL     OW  729   2.374  12.300  12.598
66299SOL    HW1  730   2.332  12.215  12.608
66299SOL    HW2  731   2.357  12.325  12.508
66300SOL     OW  732   7.804   6.242   9.458
66300SOL    HW1  733   7.886   6.271   9.498
66300SOL    HW2  734   7.778   6.313   9.399
66301SOL     OW  735  11.546   2.411   3.341
66301SOL    HW1  736  11.559   2.348   3.412
66301SOL    HW2  737  11.453   2.431   3.344
66302SOL     OW  738  12.649   5.787   5.736
66302SOL    HW1  739  12.743   5.804   5.741
66302SOL    HW2  740  12.611   5.869   5.705
66303SOL     OW  741   3.202   2.443   4.633
66303SOL    HW1  742   3.145   2.371   4.607
66303SOL    HW2  743   3.219   2.428   4.726
66304SOL     OW  744   7.022  13.217   9.995
66304SOL    HW1  745   6.974  13.296   9.969
66304SOL    HW2  746   6.969  13.145   9.964
66305SOL     OW  747   9.068   2.766   2.674
66305SOL    HW1  748   9.096   2.845   2.627
66305SOL    HW2  749   9.104   2.694   2.623
66306SOL     OW  750   9.219   4.177  14.811
66306SOL    HW1  751   9.147   4.113  14.811
66306SOL    HW2  752   9.298   4.123  14.802
66307SOL     OW  753   3.160  11.936   0.360
66307SOL    HW1  754   3.082  11.892   0.396
66307SOL    HW2  755   3.161  11.912   0.268
66308SOL     OW  756   0.598   3.569  12.748
66308SOL    HW1  757   0.512   3.604  12.771
66308SOL    HW2  758   0.636   3.544  12.832
66309SOL     OW  759  13.730   9.375   2.253
66309SOL    HW1  760  13.735   9.469   2.271
66309SOL    HW2  761  13.711   9.335   2.338
66310SOL     OW  762  11.637   4.257  14.547
66310SOL    HW1  763  11.650   4.185  14.486
66310SOL    HW2  764  11.542   4.265  14.555
66311SOL     OW  765   5.885  10.471   7.480
66311SOL    HW1  766   5.854  10.464   7.570
66311SOL    HW2  767   5.922  10.384   7.461
66312SOL     OW  768   0.940   2.397   7.337
66312SOL    HW1  769   0.879   2.397   7.411
66312SOL    HW2  770   0.986   2.481   7.343
66313SOL     OW  771  11.819   4.956   1.984
66313SOL    HW1  772  11.855   4.923   1.902
66313SOL    HW2  773  11.818   4.879   2.041
66314SOL     OW  774   7.983   7.143   4.337
66314SOL    HW1  775   7.997   7.218   4.279
66314SOL    HW2  776   8.059   7.144   4.397
66315SOL     OW  777  11.027   4.899   9.220
66315SOL    HW1  778  11.010   4.971   9.158
66315SOL    HW2  779  10.988   4.929   9.302
66316SOL     OW  780   3.730  10.133   7.727
66316SOL    HW1  781   3.807  10.189   7.711
66316SOL    HW2  782   3.760  10.045   7.705
66317SOL     OW  783   9.298   1.785   7.181
66317SOL    HW1  784   9.293   1.728   7.258
66317SOL    HW2  785   9.294   1.725   7.106
66318SOL     OW  786  14.144   6.824   1.191
66318SOL    HW1  787  14.094   6.839   1.110
66318SOL    HW2  788  14.171   6.732   1.186
66319SOL     OW  789   0.480  11.238  13.642
66319SOL    HW1  790   0.522  11.190  13.713
66319SOL    HW2  791   0.387  11.225  13.657
66320SOL     OW  792  14.784  10.368   6.936
66320SOL    HW1  793  14.733  10.295   6.902
66320SOL    HW2  794  14.860  10.373   6.878
66321SOL     OW  795   8.969   8.971  10.360
66321SOL    HW1  796   8.877   8.951  10.345
66321SOL    HW2  797   8.997   9.016  10.281
66322SOL     OW  798   1.606   6.382  14.306
66322SOL    HW1  799   1.544   6.423  14.366
66322SOL    HW2  800   1.689   6.427  14.322
66323SOL     OW  801   5.159   1.257   1.444
66323SOL    HW1  802   5.174   1.177   1.493
66323SOL    HW2  803   5.085   1.299   1.488
66324SOL     OW  804   7.348   2.845   8.281
66324SOL    HW1  805   7.272   2.798   8.246
66324SOL    HW2  806   7.311   2.908   8.342
66325SOL     OW  807  11.365  10.253   1.926
66325SOL    HW1  808  11.389  10.164   1.953
66325SOL    HW2  809  11.319  10.241   1.843
66326SOL     OW  810   1.462   0.278   4.616
66326SOL    HW1  811   1.377   0.302   4.579
66326SOL    HW2  812   1.448   0.278   4.711
66327SOL     OW  813  10.965  13.301  11.643
66327SOL    HW1  814  11.003  13.244  11.709
66327SOL    HW2  815  10.920  13.369  11.693
66328SOL     OW  816  10.823   7.678   8.951
66328SOL    HW1  817  10.763   7.641   8.887
66328SOL    HW2  818  10.809   7.773   8.946
66329SOL     OW  819   8.169   1.656   9.980
66329SOL    HW1  820   8.205   1.596  10.045
66329SOL    HW2  821   8.102   1.705  10.027
66330SOL     OW  822   1.755  12.932   6.129
66330SOL    HW1  823   1.768  13.001   6.064
66330SOL    HW2  824   1.690  12.968   6.190
66331SOL     OW  825   1.302   6.183   3.441
66331SOL    HW1  826   1.296   6.194   3.535
66331SOL    HW2  827   1.322   6.270   3.407
66332SOL     OW  828   4.387   1.415  11.840
66332SOL    HW1  829   4.443   1.483  11.879
66332SOL    HW2  830   4.322   1.463  11.790
66333SOL     OW  831  12.100   1.490  14.579
66333SOL    HW1  832  12.125   1.478  14.670
66333SOL    HW2  833  12.026   1.431  14.566
66334SOL     OW  834   6.724   4.669  10.167
66334SOL    HW1  835   6.773   4.629  10.096
66334SOL    HW2  836   6.648   4.710  10.124
66335SOL     OW  837   2.780  11.283   1.765
66335SOL    HW1  838   2.752  11.243   1.683
66335SOL    HW2  839   2.801  11.374   1.741
66336SOL     OW  840   8.427  12.750  13.554
66336SOL    HW1  841   8.473  12.722  13.475
66336SOL    HW2  842   8.336  12.758  13.528
66337SOL     OW  843   3.459  14.525   0.588
66337SOL    HW1  844   3.426  14.442   0.556
66337SOL    HW2  845   3.530  14.501   0.648
66338SOL     OW  846   8.640  12.528   8.792
66338SOL    HW1  847   8.681  12.503   8.709
66338SOL    HW2  848   8.562  12.473   8.797
66339SOL     OW  849   9.289  13.417  12.466
66339SOL    HW1  850   9.292  13.512  12.459
66339SOL    HW2  851   9.339  13.397  12.545
66340SOL     OW  852   9.729  12.543   8.403
66340SOL    HW1  853   9.679  12.608   8.453
66340SOL    HW2  854   9.734  12.578   8.315
66341SOL     OW  855   9.580   1.910   7.832
66341SOL    HW1  856   9.499   1.944   7.870
66341SOL    HW2  857   9.551   1.855   7.759
66342SOL     OW  858   6.031  10.526  14.351
66342SOL    HW1  859   5.972  10.524  14.427
66342SOL    HW2  860   6.064  10.436  14.345
66343SOL     OW  861  14.264   8.962   4.260
66343SOL    HW1  862  14.340   9.015   4.234
66343SOL    HW2  863  14.291   8.872   4.243
66344SOL     OW  864  12.686   8.143   8.283
66344SOL    HW1  865  12.696   8.237   8.267
66344SOL    HW2  866  12.608   8.119   8.232
66345SOL     OW  867   9.844  13.009   4.198
66345SOL    HW1  868   9.931  12.991   4.234
66345SOL    HW2  869   9.789  12.937   4.228
66346SOL     OW  870   0.264  10.374   9.086
66346SOL    HW1  871   0.214  10.303   9.125
66346SOL    HW2  872   0.355  10.353   9.105
66347SOL     OW  873   6.126   0.868   4.929
66347SOL    HW1  874   6.048   0.851   4.982
66347SOL    HW2  875   6.188   0.799   4.954
66348SOL     OW  876  10.354   1.030   1.727
66348SOL    HW1  877  10.340   0.950   1.777
66348SOL    HW2  878  10.329   1.007   1.637
66349SOL     OW  879  13.275   4.756   4.784
66349SOL    HW1  880  13.364   4.789   4.771
66349SOL    HW2  881  13.252   4.785   4.873
66350SOL     OW  882   5.652  13.657   6.092
66350SOL    HW1  883   5.619  13.570   6.114
66350SOL    HW2  884   5.660  13.656   5.996
66351SOL     OW  885   3.444   6.943   3.100
66351SOL    HW1  886   3.385   6.869   3.114
66351SOL    HW2  887   3.392   7.006   3.050
66352SOL     OW  888   1.997   1.232   0.893
66352SOL    HW1  889   2.030   1.319   0.868
66352SOL    HW2  890   1.903   1.246   0.908
66353SOL     OW  891   9.251  12.197   5.142
66353SOL    HW1  892   9.220  12.113   5.109
66353SOL    HW2  893   9.345  12.185   5.153
66354SOL     OW  894   0.052   3.821   4.414
66354SOL    HW1  895  14.855   3.803   4.359
66354SOL    HW2  896   0.048   3.916   4.430
66355SOL     OW  897   8.122  12.705  13.378
66355SOL    HW1  898   8.058  12.705  13.308
66355SOL    HW2  899   8.206  12.687  13.335
66356SOL     OW  900   0.534  13.093   6.436
66356SOL    HW1  901   0.557  13.138   6.517
66356SOL    HW2  902   0.459  13.039   6.459
66357SOL     OW  903   8.637   9.760  11.209
66357SOL    HW1  904   8.551   9.770  11.251
66357SOL    HW2  905   8.622   9.787  11.118
66358SOL     OW  906   8.309   7.312  12.348
66358SOL    HW1  907   8.355   7.232  12.322
66358SOL    HW2  908   8.379   7.374  12.370
66359SOL     OW  909   6.892   7.447  12.759
66359SOL    HW1  910   6.878   7.505  12.684
66359SOL    HW2  911   6.803   7.420  12.784
66360SOL     OW  912  14.386  11.063   6.049
66360SOL    HW1  913  14.424  11.021   6.126
66360SOL    HW2  914  14.440  11.141   6.036
66361SOL     OW  915  13.143   3.333   6.434
66361SOL    HW1  916  13.205   3.271   6.472
66361SOL    HW2  917  13.193   3.414   6.425
66362SOL     OW  918   4.345   1.391   3.095
66362SOL    HW1  919   4.296   1.376   3.176
66362SOL    HW2  920   4.435   1.406   3.123
66363SOL     OW  921   0.926  14.493  11.655
66363SOL    HW1  922   0.951  14.546  11.579
66363SOL    HW2  923   1.007  14.486  11.707
66364SOL     OW  924  10.075  13.726   9.353
66364SOL    HW1  925  10.168  13.743   9.341
66364SOL    HW2  926  10.046  13.689   9.270
66365SOL     OW  927   1.565   6.708   7.323
66365SOL    HW1  928   1.607   6.622   7.324
66365SOL    HW2  929   1.604   6.753   7.248
66366SOL     OW  930   8.564   1.132  12.995
66366SOL    HW1  931   8.576   1.225  13.013
66366SOL    HW2  932   8.577   1.123  12.901
66367SOL     OW  933   3.270  10.122   9.889
66367SOL    HW1  934   3.233  10.189   9.946
66367SOL    HW2  935   3.364  10.124   9.906
66368SOL     OW  936   2.191   4.695  11.894
66368SOL    HW1  937   2.232   4.615  11.863
66368SOL    HW2  938   2.186   4.685  11.989
66369SOL     OW  939   5.214   5.989   3.524
66369SOL    HW1  940   5.173   5.914   3.565
66369SOL    HW2  941   5.307   5.966   3.519
66370SOL     OW  942  14.480   8.649  13.137
66370SOL    HW1  943  14.433   8.606  13.209
66370SOL    HW2  944  14.412   8.697  13.089
66371SOL     OW  945  11.180   5.688   9.710
66371SOL    HW1  946  11.215   5.774   9.733
66371SOL    HW2  947  11.217   5.629   9.775
66372SOL     OW  948   3.629   8.107  10.750
66372SOL    HW1  949   3.636   8.143  10.838
66372SOL    HW2  950   3.716   8.120  10.712
66373SOL     OW  951  14.145   7.232   8.395
66373SOL    HW1  952  14.216   7.184   8.439
66373SOL    HW2  953  14.128   7.307   8.451
66374SOL     OW  954   2.416  10.455   4.069
66374SOL    HW1  955   2.457  10.542   4.077
66374SOL    HW2  956   2.355  10.465   3.996
66375SOL     OW  957   6.004   7.261   0.359
66375SOL    HW1  958   5.914   7.229   0.351
66375SOL    HW2  959   5.999   7.335   0.419
66376SOL     OW  960  12.973   2.180  11.136
66376SOL    HW1  961  12.999   2.207  11.048
66376SOL    HW2  962  12.962   2.262  11.185
66377SOL     OW  963   2.103  13.579  10.826
66377SOL    HW1  964   2.129  13.614  10.741
66377SOL    HW2  965   2.185  13.576  10.877
66378SOL     OW  966   0.195  11.184   0.359
66378SOL    HW1  967   0.274  11.227   0.392
66378SOL    HW2  968   0.125  11.247   0.372
66379SOL     OW  969   2.243   5.032  11.101
66379SOL    HW1  970   2.157   5.067  11.081
66379SOL    HW2  971   2.290   5.104  11.143
66380SOL     OW  972   2.612   4.197   7.696
66380SOL    HW1  973   2.551   4.270   7.680
66380SOL    HW2  974   2.572   4.149   7.769
66381SOL     OW  975  12.833   2.776   1.549
66381SOL    HW1  976  12.909   2.766   1.491
66381SOL    HW2  977  12.768   2.715   1.515
66382SOL     OW  978   1.695   0.566   6.762
66382SOL    HW1  979   1.762   0.588   6.698
66382SOL    HW2  980   1.665   0.651   6.795
66383SOL     OW  981   6.562  12.331   0.443
66383SOL    HW1  982   6.516  12.349   0.361
66383SOL    HW2  983   6.653  12.354   0.424
66384SOL     OW  984  12.763   5.047  14.080
66384SOL    HW1  985  12.690   4.984  14.074
66384SOL    HW2  986  12.721   5.133  14.067
66385SOL     OW  987  12.720   6.173   9.265
66385SOL    HW1  988  12.673   6.138   9.190
66385SOL    HW2  989  12.652   6.214   9.319
66386SOL     OW  990  11.766   9.307   6.243
66386SOL    HW1  991  11.759   9.303   6.148
66386SOL    HW2  992  11.723   9.228   6.275
66387SOL     OW  993   0.482   4.022   3.752
66387SOL    HW1  994   0.431   4.005   3.831
66387SOL    HW2  995   0.573   4.013   3.780
66388SOL     OW  996  13.472   7.670   5.086
66388SOL    HW1  997  13.511   7.700   5.168
66388SOL    HW2  998  13.438   7.750   5.045
66389SOL     OW  999   9.521   0.552  14.410
66389SOL    HW1 1000   9.527   0.457  14.419
66389SOL    HW2 1001   9.479   0.581  14.491
66390SOL     OW 1002   3.861   7.027   8.431
66390SOL    HW1 1003   3.839   7.035   8.524
66390SOL    HW2 1004   3.956   7.015   8.430
66391SOL     OW 1005   2.515   7.046  11.024
66391SOL    HW1 1006   2.570   6.970  11.005
66391SOL    HW2 1007   2.572   7.106  11.071
66392SOL     OW 1008  14.389  11.426   7.408
66392SOL    HW1 1009  14.347  11.342   7.424
66392SOL    HW2 1010  14.358  11.453   7.322
66393SOL     OW 1011   2.978   6.648   3.815
66393SOL    HW1 1012   2.922   6.599   3.755
66393SOL    HW2 1013   2.980   6.737   3.781
66394SOL     OW 1014  11.797  10.795   3.213
66394SOL    HW1 1015  11.842  10.784   3.129
66394SOL    HW2 1016  11.847  10.863   3.258
66395SOL     OW 1017   0.580   7.102  11.282
66395SOL    HW1 1018   0.647   7.171  11.288
66395SOL    HW2 1019   0.536   7.104  11.368
66396SOL     OW 1020   9.730  11.348   2.967
66396SOL    HW1 1021   9.705  11.305   2.886
66396SOL    HW2 1022   9.821  11.374   2.954
66397SOL     OW 1023  14.098  12.652  10.804
66397SOL    HW1 1024  14.071  12.564  10.780
66397SOL    HW2 1025  14.163  12.640  10.873
66398SOL     OW 1026  10.710   0.782  13.656
66398SOL    HW1 1027  10.675   0.821  13.576
66398SOL    HW2 1028  10.679   0.692  13.654
66399SOL     OW 1029   5.944   9.790   9.198
66399SOL    HW1 1030   5.864   9.842   9.201
66399SOL    HW2 1031   5.996   9.830   9.130
66400SOL     OW 1032   7.901   1.544   5.490
66400SOL    HW1 1033   7.972   1.485   5.464
66400SOL    HW2 1034   7.884   1.596   5.412
66401SOL     OW 1035   4.850   6.836   4.652
66401SOL    HW1 1036   4.927   6.807   4.701
66401SOL    HW2 1037   4.885   6.870   4.570
66402SOL     OW 1038   5.812  11.104   9.050
66402SOL    HW1 1039   5.853  11.021   9.026
66402SOL    HW2 1040   5.744  11.118   8.983
66403SOL     OW 1041   3.323   5.992   3.417
66403SOL    HW1 1042   3.269   6.029   3.488
66403SOL    HW2 1043   3.284   6.026   3.337
66404SOL     OW 1044   6.421   8.593   4.636
66404SOL    HW1 1045   6.358   8.555   4.697
66404SOL    HW2 1046   6.372   8.661   4.590
66405SOL     OW 1047   8.149  13.755   4.682
66405SOL    HW1 1048   8.168  13.815   4.755
66405SOL    HW2 1049   8.105  13.681   4.723
66406SOL     OW 1050   9.214  11.241  11.706
66406SOL    HW1 1051   9.225  11.262  11.799
66406SOL    HW2 1052   9.120  11.229  11.696
66407SOL     OW 1053   1.857  14.120   6.570
66407SOL    HW1 1054   1.766  14.146   6.555
66407SOL    HW2 1055   1.890  14.097   6.483
66408SOL     OW 1056   0.712  13.586  12.213
66408SOL    HW1 1057   0.728  13.628  12.128
66408SOL    HW2 1058   0.799  13.558  12.242
66409SOL     OW 1059   3.567   9.141   6.683
66409SOL    HW1 1060   3.602   9.137   6.594
66409SOL    HW2 1061   3.596   9.059   6.723
66410SOL     OW 1062  14.423  11.176  11.434
66410SOL    HW1 1063  14.434  11.258  11.482
66410SOL    HW2 1064  14.421  11.203  11.342
66411SOL     OW 1065  11.681   2.986   4.849
66411SOL    HW1 1066  11.771   3.017   4.838
66411SOL    HW2 1067  11.654   2.956   4.762
66412SOL     OW 1068   7.583  11.508   5.874
66412SOL    HW1 1069   7.583  11.507   5.970
66412SOL    HW2 1070   7.659  11.455   5.850
66413SOL     OW 1071   5.652  11.748  11.416
66413SOL    HW1 1072   5.711  11.807  11.368
66413SOL    HW2 1073   5.700  11.666  11.422
66414SOL     OW 1074  11.403  11.730  12.150
66414SOL    HW1 1075  11.368  11.819  12.151
66414SOL    HW2 1076  11.488  11.738  12.106
66415SOL     OW 1077   2.572  13.378   5.142
66415SOL    HW1 1078   2.521  13.355   5.064
66415SOL    HW2 1079   2.508  13.377   5.213
66416SOL     OW 1080  13.221   1.344   6.842
66416SOL    HW1 1081  13.301   1.356   6.893
66416SOL    HW2 1082  13.229   1.406   6.769
66417SOL     OW 1083   6.405   7.644   5.222
66417SOL    HW1 1084   6.363   7.707   5.280
66417SOL    HW2 1085   6.484   7.688   5.192
66418SOL     OW 1086   5.394   8.298  11.485
66418SOL    HW1 1087   5.483   8.292  11.519
66418SOL    HW2 1088   5.364   8.385  11.512
66419SOL     OW 1089  13.345   6.098   2.160
66419SOL    HW1 1090  13.399   6.176   2.178
66419SOL    HW2 1091  13.291   6.123   2.085
66420SOL     OW 1092  12.776   8.706   6.935
66420SOL    HW1 1093  12.839   8.775   6.956
66420SOL    HW2 1094  12.710   8.711   7.004
66421SOL     OW 1095   3.207   3.902   2.030
66421SOL    HW1 1096   3.227   3.882   1.939
66421SOL    HW2 1097   3.203   3.817   2.073
66422SOL     OW 1098  11.748  12.765   2.861
66422SOL    HW1 1099  11.799  12.845   2.844
66422SOL    HW2 1100  11.687  12.790   2.930
66423SOL     OW 1101   4.602   6.213  13.822
66423SOL    HW1 1102   4.523   6.231  13.873
66423SOL    HW2 1103   4.574   6.223  13.731
66424SOL     OW 1104  10.867   4.015  12.459
66424SOL    HW1 1105  10.900   4.105  12.453
66424SOL    HW2 1106  10.926   3.972  12.521
66425SOL     OW 1107   7.304   4.953   2.227
66425SOL    HW1 1108   7.231   5.014   2.238
66425SOL    HW2 1109   7.298   4.925   2.136
66426SOL     OW 1110   9.307   6.367   2.966
66426SOL    HW1 1111   9.321   6.434   3.032
66426SOL    HW2 1112   9.390   6.320   2.959
66427SOL     OW 1113   8.832  10.604   8.722
66427SOL    HW1 1114   8.763  10.553   8.765
66427SOL    HW2 1115   8.894  10.538   8.691
66428SOL     OW 1116  14.701   7.529   1.218
66428SOL    HW1 1117  14.666   7.441   1.205
66428SOL    HW2 1118  14.644   7.567   1.285
66429SOL     OW 1119   1.730  13.103   0.199
66429SOL    HW1 1120   1.759  13.095   0.289
66429SOL    HW2 1121   1.810  13.112   0.148
66430SOL     OW 1122   2.032  10.293   4.216
66430SOL    HW1 1123   2.006  10.217   4.268
66430SOL    HW2 1124   2.039  10.260   4.127
66431SOL     OW 1125   4.084  12.228  10.845
66431SOL    HW1 1126   4.140  12.151  10.856
66431SOL    HW2 1127   4.134  12.287  10.788
66432SOL     OW 1128  13.841   6.351   2.821
66432SOL    HW1 1129  13.899   6.426   2.806
66432SOL    HW2 1130  13.758   6.391   2.847
66433SOL     OW 1131  11.082   2.535   1.447
66433SOL    HW1 1132  11.048   2.526   1.358
66433SOL    HW2 1133  11.005   2.557   1.500
66434SOL     OW 1134   5.410   3.574  11.402
66434SOL    HW1 1135   5.376   3.653  11.360
66434SOL    HW2 1136   5.350   3.505  11.377
66435SOL     OW 1137   2.044   8.930  12.530
66435SOL    HW1 1138   2.038   9.001  12.594
66435SOL    HW2 1139   2.061   8.975  12.446
66436SOL     OW 1140   5.472   5.907  13.401
66436SOL    HW1 1141   5.432   5.831  13.443
66436SOL    HW2 1142   5.557   5.915  13.443
66437SOL     OW 1143  13.416  10.800   5.064
66437SOL    HW1 1144  13.354  10.835   5.000
66437SOL    HW2 1145  13.395  10.707   5.069
66438SOL     OW 1146   6.773  13.179   8.197
66438SOL    HW1 1147   6.697  13.214   8.151
66438SOL    HW2 1148   6.845  13.189   8.135
66439SOL     OW 1149   7.044   4.049  12.625
66439SOL    HW1 1150   6.981   3.977  12.626
66439SOL    HW2 1151   7.036   4.086  12.537
66440SOL     OW 1152  13.779  14.601   2.793
66440SOL    HW1 1153  13.790  14.538   2.864
66440SOL    HW2 1154  13.806  14.554   2.714
66441SOL     OW 1155   3.521   5.121   5.299
66441SOL    HW1 1156   3.515   5.175   5.220
66441SOL    HW2 1157   3.473   5.041   5.276
66442SOL     OW 1158   2.226  14.302   3.243
66442SOL    HW1 1159   2.247  14.230   3.302
66442SOL    HW2 1160   2.139  14.281   3.209
66443SOL     OW 1161   0.935   9.844   3.132
66443SOL    HW1 1162   0.959   9.815   3.044
66443SOL    HW2 1163   0.897   9.931   3.118
66444SOL     OW 1164   2.847   9.179   5.122
66444SOL    HW1 1165   2.899   9.175   5.202
66444SOL    HW2 1166   2.837   9.088   5.095
66445SOL     OW 1167  14.737   7.675  10.001
66445SOL    HW1 1168  14.718   7.736   9.930
66445SOL    HW2 1169  14.827   7.697  10.028
66446SOL     OW 1170   1.006   6.590  12.522
66446SOL    HW1 1171   1.047   6.596  12.435
66446SOL    HW2 1172   0.927   6.643  12.515
66447SOL     OW 1173   9.313   5.011  10.266
66447SOL    HW1 1174   9.300   5.078  10.199
66447SOL    HW2 1175   9.408   5.005  10.276
66448SOL     OW 1176   0.277  11.997   5.757
66448SOL    HW1 1177   0.308  11.942   5.685
66448SOL    HW2 1178   0.185  11.973   5.767
66449SOL     OW 1179   2.346   2.847   3.955
66449SOL    HW1 1180   2.341   2.931   3.909
66449SOL    HW2 1181   2.255   2.818   3.962
66450SOL     OW 1182   8.695  10.564   9.884
66450SOL    HW1 1183   8.611  10.567   9.928
66450SOL    HW2 1184   8.734  10.480   9.910
66451SOL     OW 1185   3.768  10.867  11.268
66451SOL    HW1 1186   3.781  10.852  11.174
66451SOL    HW2 1187   3.690  10.815  11.289
66452SOL     OW 1188   4.729  14.628   3.585
66452SOL    HW1 1189   4.812  14.581   3.592
66452SOL    HW2 1190   4.741  14.685   3.509
66453SOL     OW 1191   7.632   7.995   9.257
66453SOL    HW1 1192   7.542   8.023   9.274
66453SOL    HW2 1193   7.680   8.077   9.243
66454SOL     OW 1194   8.034  13.471   3.914
66454SOL    HW1 1195   8.062  13.403   3.854
66454SOL    HW2 1196   8.091  13.545   3.895
66455SOL     OW 1197   8.413  11.639   2.485
66455SOL    HW1 1198   8.411  11.662   2.392
66455SOL    HW2 1199   8.413  11.543   2.486
66456SOL     OW 1200  13.433   4.900  10.677
66456SOL    HW1 1201  13.448   4.889  10.771
66456SOL    HW2 1202  13.347   4.942  10.671
66457SOL     OW 1203   8.233  11.617   7.611
66457SOL    HW1 1204   8.245  11.688   7.673
66457SOL    HW2 1205   8.156  11.570   7.643
66458SOL     OW 1206   8.114   1.945   5.734
66458SOL    HW1 1207   8.126   1.933   5.640
66458SOL    HW2 1208   8.067   1.867   5.763
66459SOL     OW 1209  13.271   9.187  10.241
66459SOL    HW1 1210  13.310   9.263  10.197
66459SOL    HW2 1211  13.334   9.165  10.311
66460SOL     OW 1212  11.486   9.835   6.135
66460SOL    HW1 1213  11.415   9.899   6.137
66460SOL    HW2 1214  11.444   9.751   6.152
66461SOL     OW 1215   9.066  12.439  14.029
66461SOL    HW1 1216   9.011  12.435  14.107
66461SOL    HW2 1217   9.013  12.397  13.961
66462SOL     OW 1218   8.928  12.733   1.202
66462SOL    HW1 1219   8.921  12.719   1.296
66462SOL    HW2 1220   9.022  12.727   1.184
66463SOL     OW 1221  13.090  10.407   0.990
66463SOL    HW1 1222  13.114  10.314   0.983
66463SOL    HW2 1223  13.087  10.424   1.084
66464SOL     OW 1224   5.086  14.717   7.825
66464SOL    HW1 1225   5.109  14.662   7.750
66464SOL    HW2 1226   4.991  14.709   7.831
66465SOL     OW 1227  14.271   1.411  14.071
66465SOL    HW1 1228  14.276   1.340  14.136
66465SOL    HW2 1229  14.358   1.450  14.073
66466SOL     OW 1230   3.581   6.122  13.986
66466SOL    HW1 1231   3.565   6.115  14.081
66466SOL    HW2 1232   3.547   6.208  13.963
66467SOL     OW 1233   2.600   4.822  14.252
66467SOL    HW1 1234   2.640   4.799  14.168
66467SOL    HW2 1235   2.515   4.859  14.228
66468SOL     OW 1236  14.015   9.490  14.773
66468SOL    HW1 1237  14.087   9.449  14.821
66468SOL    HW2 1238  13.973   9.418  14.726
66469SOL     OW 1239   2.705  13.199   8.308
66469SOL    HW1 1240   2.669  13.278   8.268
66469SOL    HW2 1241   2.800  13.213   8.308
66470SOL     OW 1242  13.560   7.649   0.513
66470SOL    HW1 1243  13.477   7.677   0.552
66470SOL    HW2 1244  13.580   7.566   0.557
66471SOL     OW 1245   5.237   0.274  10.304
66471SOL    HW1 1246   5.249   0.179  10.301
66471SOL    HW2 1247   5.308   0.309  10.251
66472SOL     OW 1248   4.526  14.865  10.722
66472SOL    HW1 1249   4.463   0.050  10.689
66472SOL    HW2 1250   4.582  14.844  10.647
66473SOL     OW 1251  14.190   1.626   8.894
66473SOL    HW1 1252  14.194   1.716   8.927
66473SOL    HW2 1253  14.264   1.619   8.834
66474SOL     OW 1254   7.861   3.309   6.302
66474SOL    HW1 1255   7.946   3.351   6.317
66474SOL    HW2 1256   7.801   3.382   6.287
66475SOL     OW 1257   3.488   7.879   3.290
66475SOL    HW1 1258   3.422   7.871   3.221
66475SOL    HW2 1259   3.544   7.950   3.262
66476SOL     OW 1260  12.763  10.654   9.304
66476SOL    HW1 1261  12.781  10.560   9.308
66476SOL    HW2 1262  12.744  10.671   9.212
66477SOL     OW 1263   1.586   6.078   8.035
66477SOL    HW1 1264   1.498   6.041   8.046
66477SOL    HW2 1265   1.595   6.138   8.110
66478SOL     OW 1266   8.073   1.590  12.359
66478SOL    HW1 1267   8.023   1.632  12.290
66478SOL    HW2 1268   8.009   1.566  12.426
66479SOL     OW 1269   0.486   9.017   8.518
66479SOL    HW1 1270   0.443   9.004   8.602
66479SOL    HW2 1271   0.578   8.996   8.535
66480SOL     OW 1272   7.355   1.604   4.604
66480SOL    HW1 1273   7.371   1.525   4.553
66480SOL    HW2 1274   7.326   1.573   4.690
66481SOL     OW 1275   2.193   6.105  14.714
66481SOL    HW1 1276   2.209   6.196  14.689
66481SOL    HW2 1277   2.281   6.069  14.727
66482SOL     OW 1278   9.144   1.403  13.818
66482SOL    HW1 1279   9.172   1.366  13.902
66482SOL    HW2 1280   9.060   1.444  13.837
66483SOL     OW 1281   0.521   3.623   5.015
66483SOL    HW1 1282   0.490   3.586   5.098
66483SOL    HW2 1283   0.597   3.569   4.992
66484SOL     OW 1284   0.947   4.248   6.975
66484SOL    HW1 1285   0.884   4.297   6.921
66484SOL    HW2 1286   1.014   4.218   6.913
66485SOL     OW 1287  13.317   9.188   9.293
66485SOL    HW1 1288  13.240   9.146   9.333
66485SOL    HW2 1289  13.288   9.277   9.274
66486SOL     OW 1290   2.492   8.019  12.400
66486SOL    HW1 1291   2.465   7.929  12.417
66486SOL    HW2 1292   2.444   8.044  12.322
66487SOL     OW 1293   7.564  12.276  13.248
66487SOL    HW1 1294   7.632  12.214  13.225
66487SOL    HW2 1295   7.592  12.359  13.211
66488SOL     OW 1296   7.233   5.749  13.985
66488SOL    HW1 1297   7.200   5.833  13.954
66488SOL    HW2 1298   7.254   5.700  13.905
66489SOL     OW 1299  11.486  13.111  10.875
66489SOL    HW1 1300  11.508  13.171  10.805
66489SOL    HW2 1301  11.477  13.166  10.953
66490SOL     OW 1302   5.261  14.588   3.932
66490SOL    HW1 1303   5.223  14.585   4.020
66490SOL    HW2 1304   5.192  14.556   3.875
66491SOL     OW 1305   2.395  11.718  11.538
66491SOL    HW1 1306   2.436  11.659  11.601
66491SOL    HW2 1307   2.428  11.687  11.453
66492SOL     OW 1308  12.089   5.999  14.402
66492SOL    HW1 1309  12.177   6.035  14.412
66492SOL    HW2 1310  12.042   6.030  14.480
66493SOL     OW 1311  10.221   0.907  13.625
66493SOL    HW1 1312  10.143   0.961  13.633
66493SOL    HW2 1313  10.288   0.954  13.674
66494SOL     OW 1314  11.315  10.583   4.105
66494SOL    HW1 1315  11.254  10.510   4.110
66494SOL    HW2 1316  11.361  10.582   4.189
66495SOL     OW 1317   4.244   5.511  14.211
66495SOL    HW1 1318   4.149   5.499  14.209
66495SOL    HW2 1319   4.259   5.574  14.282
66496SOL     OW 1320   1.967  14.021   6.000
66496SOL    HW1 1321   2.049  13.974   6.017
66496SOL    HW2 1322   1.996  14.105   5.964
66497SOL     OW 1323   6.968  12.539  13.240
66497SOL    HW1 1324   6.971  12.485  13.318
66497SOL    HW2 1325   6.999  12.625  13.269
66498SOL     OW 1326   2.497  11.322  13.134
66498SOL    HW1 1327   2.510  11.319  13.039
66498SOL    HW2 1328   2.585  11.338  13.169
66499SOL     OW 1329   3.241   9.109   2.099
66499SOL    HW1 1330   3.234   9.200   2.068
66499SOL    HW2 1331   3.293   9.065   2.031
66500SOL     OW 1332  11.289   6.303  12.962
66500SOL    HW1 1333  11.234   6.276  12.889
66500SOL    HW2 1334  11.261   6.393  12.980
66501SOL     OW 1335   8.498  11.773   8.773
66501SOL    HW1 1336   8.582  11.739   8.741
66501SOL    HW2 1337   8.511  11.784   8.867
66502SOL     OW 1338   7.737  10.726  14.068
66502SOL    HW1 1339   7.685  10.721  14.148
66502SOL    HW2 1340   7.699  10.660  14.010
66503SOL     OW 1341   4.091   1.599  11.701
66503SOL    HW1 1342   4.016   1.591  11.761
66503SOL    HW2 1343   4.160   1.638  11.754
66504SOL     OW 1344   7.369   6.599   1.275
66504SOL    HW1 1345   7.354   6.655   1.351
66504SOL    HW2 1346   7.413   6.522   1.310
66505SOL     OW 1347   1.618   1.069   9.730
66505SOL    HW1 1348   1.544   1.018   9.763
66505SOL    HW2 1349   1.669   1.008   9.677
66506SOL     OW 1350   4.086  14.782   5.075
66506SOL    HW1 1351   4.044  14.799   5.160
66506SOL    HW2 1352   4.111  14.690   5.079
66507SOL     OW 1353  10.386   6.753   6.390
66507SOL    HW1 1354  10.293   6.733   6.388
66507SOL    HW2 1355  10.424   6.702   6.318
66508SOL     OW 1356  14.411  10.253   4.397
66508SOL    HW1 1357  14.463  10.186   4.443
66508SOL    HW2 1358  14.329  10.257   4.445
66509SOL     OW 1359  13.993   6.305  12.274
66509SOL    HW1 1360  13.926   6.373  12.268
66509SOL    HW2 1361  14.059   6.331  12.210
66510SOL     OW 1362   1.417  11.378   0.271
66510SOL    HW1 1363   1.427  11.319   0.196
66510SOL    HW2 1364   1.349  11.440   0.244
66511SOL     OW 1365   4.652  11.177   0.121
66511SOL    HW1 1366   4.734  11.129   0.132
66511SOL    HW2 1367   4.661  11.222   0.037
66512SOL     OW 1368   2.213   7.758   9.141
66512SOL    HW1 1369   2.256   7.734   9.223
66512SOL    HW2 1370   2.119   7.752   9.160
66513SOL     OW 1371   0.565  14.121  13.488
66513SOL    HW1 1372   0.585  14.121  13.395
66513SOL    HW2 1373   0.477  14.157  13.494
66514SOL     OW 1374   7.636   1.311  11.438
66514SOL    HW1 1375   7.663   1.378  11.501
66514SOL    HW2 1376   7.685   1.331  11.359
66515SOL     OW 1377  14.511  13.862   3.859
66515SOL    HW1 1378  14.597  13.838   3.824
66515SOL    HW2 1379  14.465  13.900   3.785
66516SOL     OW 1380  10.046   0.137   6.718
66516SOL    HW1 1381  10.039   0.062   6.776
66516SOL    HW2 1382   9.963   0.183   6.727
66517SOL     OW 1383  14.074   0.505   8.263
66517SOL    HW1 1384  14.035   0.437   8.318
66517SOL    HW2 1385  14.129   0.556   8.323
66518SOL     OW 1386   7.027   4.597   8.715
66518SOL    HW1 1387   6.971   4.559   8.647
66518SOL    HW2 1388   7.082   4.660   8.667
66519SOL     OW 1389  11.164   5.251   2.330
66519SOL    HW1 1390  11.095   5.296   2.378
66519SOL    HW2 1391  11.222   5.321   2.299
66520SOL     OW 1392  10.301   8.441   7.313
66520SOL    HW1 1393  10.302   8.512   7.377
66520SOL    HW2 1394  10.216   8.448   7.271
66521SOL     OW 1395  13.181   8.794   7.870
66521SOL    HW1 1396  13.112   8.832   7.925
66521SOL    HW2 1397  13.152   8.704   7.854
66522SOL     OW 1398  13.950   6.899   5.543
66522SOL    HW1 1399  14.001   6.823   5.515
66522SOL    HW2 1400  13.936   6.884   5.637
66523SOL     OW 1401   2.173  13.930   7.681
66523SOL    HW1 1402   2.264  13.948   7.702
66523SOL    HW2 1403   2.142  14.011   7.639
66524SOL     OW 1404  14.661  11.945   5.278
66524SOL    HW1 1405  14.572  11.937   5.312
66524SOL    HW2 1406  14.691  11.854   5.270
66525SOL     OW 1407   8.516  12.581   4.358
66525SOL    HW1 1408   8.434  12.542   4.329
66525SOL    HW2 1409   8.521  12.559   4.452
66526SOL     OW 1410   2.274   0.813   4.935
66526SOL    HW1 1411   2.229   0.835   5.017
66526SOL    HW2 1412   2.222   0.742   4.897
66527SOL     OW 1413  12.020   1.873   2.327
66527SOL    HW1 1414  12.052   1.798   2.277
66527SOL    HW2 1415  11.925   1.861   2.329
66528SOL     OW 1416   0.993  13.417   9.150
66528SOL    HW1 1417   0.942  13.419   9.231
66528SOL    HW2 1418   1.075  13.462   9.173
66529SOL     OW 1419   5.587  11.313   5.422
66529SOL    HW1 1420   5.540  11.363   5.355
66529SOL    HW2 1421   5.669  11.362   5.434
66530SOL     OW 1422   6.117   8.146  13.778
66530SOL    HW1 1423   6.092   8.238  13.787
66530SOL    HW2 1424   6.212   8.147  13.777
66531SOL     OW 1425  11.135  12.234   7.022
66531SOL    HW1 1426  11.198  12.166   6.997
66531SOL    HW2 1427  11.103  12.205   7.108
66532SOL     OW 1428  10.016   7.277   1.590
66532SOL    HW1 1429   9.974   7.355   1.555
66532SOL    HW2 1430  10.107   7.283   1.560
66533SOL     OW 1431   9.191   5.392   3.245
66533SOL    HW1 1432   9.168   5.480   3.276
66533SOL    HW2 1433   9.128   5.374   3.175
66534SOL     OW 1434  14.007   3.243   5.934
66534SOL    HW1 1435  13.934   3.229   5.994
66534SOL    HW2 1436  14.055   3.316   5.972
66535SOL     OW 1437  13.948   2.681   0.134
66535SOL    HW1 1438  13.852   2.677   0.126
66535SOL    HW2 1439  13.979   2.685   0.043
66536SOL     OW 1440  12.078   3.651  11.551
66536SOL    HW1 1441  12.124   3.567  11.546
66536SOL    HW2 1442  12.146   3.716  11.533
66537SOL     OW 1443   1.543   0.981   4.517
66537SOL    HW1 1444   1.500   1.043   4.576
66537SOL    HW2 1445   1.629   1.019   4.500
66538SOL     OW 1446   1.393   1.296   8.938
66538SOL    HW1 1447   1.348   1.375   8.908
66538SOL    HW2 1448   1.451   1.327   9.008
66539SOL     OW 1449   7.659   1.562  11.940
66539SOL    HW1 1450   7.596   1.576  12.010
66539SOL    HW2 1451   7.717   1.638  11.944
66540SOL     OW 1452   0.729   4.122   1.632
66540SOL    HW1 1453   0.660   4.151   1.692
66540SOL    HW2 1454   0.799   4.092   1.689
66541SOL     OW 1455  10.859   3.150  12.892
66541SOL    HW1 1456  10.808   3.228  12.915
66541SOL    HW2 1457  10.875   3.159  12.798
66542SOL     OW 1458  13.286   0.464  14.199
66542SOL    HW1 1459  13.298   0.471  14.294
66542SOL    HW2 1460  13.244   0.546  14.174
66543SOL     OW 1461  12.695  13.621   7.978
66543SOL    HW1 1462  12.645  13.699   7.955
66543SOL    HW2 1463  12.737  13.643   8.061
66544SOL     OW 1464  13.712  12.963  11.649
66544SOL    HW1 1465  13.724  12.907  11.726
66544SOL    HW2 1466  13.660  12.909  11.589
66545SOL     OW 1467   1.083   1.449   3.991
66545SOL    HW1 1468   1.119   1.476   4.075
66545SOL    HW2 1469   1.144   1.382   3.959
66546SOL     OW 1470  14.209   1.259   3.893
66546SOL    HW1 1471  14.187   1.285   3.983
66546SOL    HW2 1472  14.295   1.297   3.877
66547SOL     OW 1473  13.832   6.085   6.107
66547SOL    HW1 1474  13.811   6.146   6.178
66547SOL    HW2 1475  13.804   5.999   6.140
66548SOL     OW 1476   0.909   4.134   8.728
66548SOL    HW1 1477   0.867   4.193   8.665
66548SOL    HW2 1478   0.877   4.163   8.813
66549SOL     OW 1479  11.743   4.878  11.656
66549SOL    HW1 1480  11.712   4.829  11.732
66549SOL    HW2 1481  11.701   4.836  11.581
66550SOL     OW 1482   7.489   8.853   9.966
66550SOL    HW1 1483   7.529   8.888   9.886
66550SOL    HW2 1484   7.563   8.835  10.023
66551SOL     OW 1485  11.287  12.079   5.250
66551SOL    HW1 1486  11.305  12.138   5.177
66551SOL    HW2 1487  11.200  12.103   5.281
66552SOL     OW 1488   7.851   7.369   3.311
66552SOL    HW1 1489   7.822   7.289   3.353
66552SOL    HW2 1490   7.945   7.358   3.300
66553SOL     OW 1491   7.700  14.508  13.644
66553SOL    HW1 1492   7.647  14.459  13.706
66553SOL    HW2 1493   7.791  14.491  13.670
66554SOL     OW 1494   5.552   3.295   4.646
66554SOL    HW1 1495   5.632   3.277   4.597
66554SOL    HW2 1496   5.482   3.288   4.580
66555SOL     OW 1497   1.045   4.273   9.250
66555SOL    HW1 1498   1.020   4.195   9.202
66555SOL    HW2 1499   1.139   4.282   9.235
66556SOL     OW 1500   4.786   5.049   3.696
66556SOL    HW1 1501   4.740   5.089   3.623
66556SOL    HW2 1502   4.731   4.975   3.722
66557SOL     OW 1503   8.061  13.885  11.286
66557SOL    HW1 1504   8.090  13.797  11.262
66557SOL    HW2 1505   8.020  13.919  11.207
66558SOL     OW 1506   2.599   8.559   9.916
66558SOL    HW1 1507   2.607   8.519  10.002
66558SOL    HW2 1508   2.675   8.527   9.867
66559SOL     OW 1509  14.413  13.491  11.508
66559SOL    HW1 1510  14.371  13.446  11.435
66559SOL    HW2 1511  14.505  13.467  11.502
66560SOL     OW 1512  10.029   2.580   1.348
66560SOL    HW1 1513  10.070   2.645   1.291
66560SOL    HW2 1514  10.084   2.579   1.427
66561SOL     OW 1515   5.080  12.173  10.470
66561SOL    HW1 1516   5.174  12.158  10.461
66561SOL    HW2 1517   5.073  12.262  10.506
66562SOL     OW 1518  14.101  14.620   4.159
66562SOL    HW1 1519  14.112  14.659   4.245
66562SOL    HW2 1520  14.182  14.641   4.112
66563SOL     OW 1521   2.440   3.678  12.723
66563SOL    HW1 1522   2.522   3.698  12.678
66563SOL    HW2 1523   2.447   3.586  12.747
66564SOL     OW 1524  12.955   7.723   4.449
66564SOL    HW1 1525  12.961   7.647   4.391
66564SOL    HW2 1526  12.903   7.693   4.523
66565SOL     OW 1527   6.426   9.701  10.110
66565SOL    HW1 1528   6.346   9.754  10.115
66565SOL    HW2 1529   6.463   9.723  10.024
66566SOL     OW 1530   9.451   3.855   0.126
66566SOL    HW1 1531   9.459   3.921   0.058
66566SOL    HW2 1532   9.516   3.789   0.104
66567SOL     OW 1533   4.028   5.448  14.330
66567SOL    HW1 1534   3.946   5.493  14.311
66567SOL    HW2 1535   4.002   5.359  14.352
66568SOL     OW 1536  13.462  12.753   9.421
66568SOL    HW1 1537  13.546  12.787   9.392
66568SOL    HW2 1538  13.483  12.691   9.491
66569SOL     OW 1539  12.947   0.402   6.829
66569SOL    HW1 1540  12.909   0.320   6.862
66569SOL    HW2 1541  12.918   0.468   6.891
66570SOL     OW 1542  12.346   2.908   1.316
66570SOL    HW1 1543  12.346   3.001   1.341
66570SOL    HW2 1544  12.429   2.896   1.269
66571SOL     OW 1545   1.808   6.055   9.753
66571SOL    HW1 1546   1.796   6.086   9.663
66571SOL    HW2 1547   1.852   5.970   9.743
66572SOL     OW 1548   0.950  10.203   4.754
66572SOL    HW1 1549   0.925  10.112   4.764
66572SOL    HW2 1550   0.903  10.233   4.676
66573SOL     OW 1551  10.581   2.368   1.417
66573SOL    HW1 1552  10.626   2.407   1.342
66573SOL    HW2 1553  10.488   2.380   1.398
66574SOL     OW 1554   0.680   5.465   2.184
66574SOL    HW1 1555   0.630   5.536   2.143
66574SOL    HW2 1556   0.619   5.391   2.187
66575SOL     OW 1557   2.948  13.623   4.452
66575SOL    HW1 1558   2.970  13.660   4.367
66575SOL    HW2 1559   3.016  13.654   4.511
66576SOL     OW 1560   4.303   6.360   3.023
66576SOL    HW1 1561   4.363   6.351   3.096
66576SOL    HW2 1562   4.297   6.273   2.985
66577SOL     OW 1563   2.676   9.145   6.415
66577SOL    HW1 1564   2.693   9.145   6.509
66577SOL    HW2 1565   2.628   9.227   6.399
66578SOL     OW 1566  12.322   0.317   5.161
66578SOL    HW1 1567  12.338   0.359   5.245
66578SOL    HW2 1568  12.370   0.234   5.165
66579SOL     OW 1569  12.939  13.976  10.767
66579SOL    HW1 1570  12.910  13.974  10.676
66579SOL    HW2 1571  12.870  14.022  10.814
66580SOL     OW 1572  12.618   9.883   3.357
66580SOL    HW1 1573  12.566   9.911   3.432
66580SOL    HW2 1574  12.570   9.809   3.320
66581SOL     OW 1575   6.371   0.444  14.206
66581SOL    HW1 1576   6.401   0.535  14.202
66581SOL    HW2 1577   6.404   0.412  14.290
66582SOL     OW 1578   9.053   1.632   7.816
66582SOL    HW1 1579   9.030   1.572   7.887
66582SOL    HW2 1580   8.968   1.659   7.780
66583SOL     OW 1581   8.218  10.515  13.220
66583SOL    HW1 1582   8.181  10.490  13.135
66583SOL    HW2 1583   8.287  10.451  13.237
66584SOL     OW 1584   4.895   8.820   7.179
66584SOL    HW1 1585   4.952   8.872   7.122
66584SOL    HW2 1586   4.908   8.730   7.151
66585SOL     OW 1587  10.267  10.232  13.119
66585SOL    HW1 1588  10.352  10.215  13.078
66585SOL    HW2 1589  10.207  10.247  13.047
66586SOL     OW 1590   5.718  13.084   2.140
66586SOL    HW1 1591   5.721  13.090   2.045
66586SOL    HW2 1592   5.804  13.114   2.169
66587SOL     OW 1593  13.006  13.482  12.064
66587SOL    HW1 1594  13.060  13.558  12.084
66587SOL    HW2 1595  12.988  13.489  11.970
66588SOL     OW 1596   3.548  10.718   9.720
66588SOL    HW1 1597   3.554  10.793   9.779
66588SOL    HW2 1598   3.576  10.643   9.774
66589SOL     OW 1599   7.880   7.029   0.181
66589SOL    HW1 1600   7.822   6.987   0.117
66589SOL    HW2 1601   7.920   7.102   0.133
66590SOL     OW 1602   8.974  13.669   2.117
66590SOL    HW1 1603   9.026  13.589   2.115
66590SOL    HW2 1604   8.955  13.683   2.210
66591SOL     OW 1605   3.830   4.722  11.808
66591SOL    HW1 1606   3.789   4.746  11.725
66591SOL    HW2 1607   3.788   4.640  11.834
66592SOL     OW 1608   3.519   7.778  14.791
66592SOL    HW1 1609   3.462   7.780  14.868
66592SOL    HW2 1610   3.469   7.732  14.724
66593SOL     OW 1611  14.484   9.052   6.418
66593SOL    HW1 1612  14.492   8.971   6.469
66593SOL    HW2 1613  14.547   9.112   6.459
66594SOL     OW 1614   1.303   5.968   9.425
66594SOL    HW1 1615   1.357   6.040   9.457
66594SOL    HW2 1616   1.275   5.996   9.338
66595SOL     OW 1617   0.335   5.610   5.987
66595SOL    HW1 1618   0.370   5.678   6.044
66595SOL    HW2 1619   0.267   5.654   5.936
66596SOL     OW 1620  13.932   6.062   0.833
66596SOL    HW1 1621  13.865   6.023   0.890
66596SOL    HW2 1622  13.947   6.149   0.870
66597SOL     OW 1623   1.217  11.547   2.222
66597SOL    HW1 1624   1.231  11.576   2.312
66597SOL    HW2 1625   1.151  11.606   2.187
66598SOL     OW 1626   0.140  10.421  12.008
66598SOL    HW1 1627   0.070  10.477  11.973
66598SOL    HW2 1628   0.152  10.353  11.942
66599SOL     OW 1629   3.152   5.161   9.734
66599SOL    HW1 1630   3.201   5.241   9.715
66599SOL    HW2 1631   3.218   5.093   9.737
66600SOL     OW 1632   7.398  11.287   5.475
66600SOL    HW1 1633   7.403  11.201   5.517
66600SOL    HW2 1634   7.350  11.341   5.539
66601SOL     OW 1635  13.175   5.659  14.586
66601SOL    HW1 1636  13.208   5.569  14.597
66601SOL    HW2 1637  13.178   5.674  14.491
66602SOL     OW 1638   2.672  12.188  11.207
66602SOL    HW1 1639   2.648  12.164  11.118
66602SOL    HW2 1640   2.662  12.107  11.257
66603SOL     OW 1641   0.877  10.070   7.563
66603SOL    HW1 1642   0.789  10.069   7.525
66603SOL    HW2 1643   0.923   9.997   7.520
66604SOL     OW 1644   9.848  14.311   4.297
66604SOL    HW1 1645   9.904  14.286   4.371
66604SOL    HW2 1646   9.802  14.230   4.274
66605SOL     OW 1647   6.103   4.907   7.288
66605SOL    HW1 1648   6.184   4.913   7.237
66605SOL    HW2 1649   6.055   4.987   7.266
66606SOL     OW 1650  10.092  12.400  12.418
66606SOL    HW1 1651  10.011  12.431  12.459
66606SOL    HW2 1652  10.074  12.309  12.395
66607SOL     OW 1653   2.356   1.513   0.996
66607SOL    HW1 1654   2.338   1.420   1.012
66607SOL    HW2 1655   2.442   1.528   1.035
66608SOL     OW 1656   3.257   3.487  13.425
66608SOL    HW1 1657   3.246   3.530  13.510
66608SOL    HW2 1658   3.298   3.554  13.370
66609SOL     OW 1659   7.962   7.592   1.386
66609SOL    HW1 1660   7.917   7.636   1.315
66609SOL    HW2 1661   8.052   7.579   1.354
66610SOL     OW 1662  10.470   7.307   0.009
66610SOL    HW1 1663  10.524   7.367  14.837
66610SOL    HW2 1664  10.387   7.353   0.021
66611SOL     OW 1665  11.079  11.911  12.286
66611SOL    HW1 1666  11.158  11.911  12.232
66611SOL    HW2 1667  11.033  11.831  12.262
66612SOL     OW 1668   9.841   9.773   5.540
66612SOL    HW1 1669   9.763   9.814   5.503
66612SOL    HW2 1670   9.914   9.820   5.500
66613SOL     OW 1671   8.938  11.397   2.332
66613SOL    HW1 1672   8.914  11.440   2.414
66613SOL    HW2 1673   8.854  11.373   2.292
66614SOL     OW 1674  11.159   5.114   7.585
66614SOL    HW1 1675  11.176   5.180   7.652
66614SOL    HW2 1676  11.168   5.030   7.631
66615SOL     OW 1677  13.879  11.683   2.421
66615SOL    HW1 1678  13.958  11.702   2.472
66615SOL    HW2 1679  13.882  11.589   2.406
66616SOL     OW 1680   4.697   8.867  13.609
66616SOL    HW1 1681   4.631   8.808  13.643
66616SOL    HW2 1682   4.649   8.927  13.552
66617SOL     OW 1683  13.137   7.196   2.675
66617SOL    HW1 1684  13.083   7.247   2.616
66617SOL    HW2 1685  13.167   7.121   2.623
66618SOL     OW 1686   9.734   9.169   9.274
66618SOL    HW1 1687   9.782   9.162   9.192
66618SOL    HW2 1688   9.649   9.129   9.256
66619SOL     OW 1689  12.104  13.223  13.187
66619SOL    HW1 1690  12.062  13.215  13.101
66619SOL    HW2 1691  12.178  13.162  13.184
66620SOL     OW 1692   5.633  12.247   4.479
66620SOL    HW1 1693   5.599  12.222   4.393
66620SOL    HW2 1694   5.556  12.257   4.534
66621SOL     OW 1695  14.430   4.870   3.729
66621SOL    HW1 1696  14.364   4.808   3.702
66621SOL    HW2 1697  14.388   4.956   3.722
66622SOL     OW 1698  12.893   2.823  13.349
66622SOL    HW1 1699  12.976   2.782  13.322
66622SOL    HW2 1700  12.919   2.885  13.418
66623SOL     OW 1701   9.404   2.597   7.766
66623SOL    HW1 1702   9.472   2.625   7.706
66623SOL    HW2 1703   9.411   2.657   7.841
66624SOL     OW 1704   0.010  11.142   9.407
66624SOL    HW1 1705  14.834  11.067   9.430
66624SOL    HW2 1706   0.062  11.159   9.486
66625SOL     OW 1707   9.148   5.470   6.281
66625SOL    HW1 1708   9.167   5.483   6.374
66625SOL    HW2 1709   9.077   5.532   6.263
66626SOL     OW 1710  10.313   7.596   2.465
66626SOL    HW1 1711  10.246   7.656   2.495
66626SOL    HW2 1712  10.316   7.527   2.531
66627SOL     OW 1713  11.285  12.129  13.875
66627SOL    HW1 1714  11.261  12.221  13.885
66627SOL    HW2 1715  11.207  12.080  13.903
66628SOL     OW 1716  14.597   5.098   3.087
66628SOL    HW1 1717  14.610   5.069   2.997
66628SOL    HW2 1718  14.507   5.072   3.108
66629SOL     OW 1719   4.309  14.572  12.581
66629SOL    HW1 1720   4.352  14.487  12.583
66629SOL    HW2 1721   4.323  14.604  12.491
66630SOL     OW 1722   2.832   9.667   1.467
66630SOL    HW1 1723   2.755   9.644   1.414
66630SOL    HW2 1724   2.847   9.760   1.448
66631SOL     OW 1725   7.226  11.015   3.614
66631SOL    HW1 1726   7.179  10.960   3.552
66631SOL    HW2 1727   7.208  10.976   3.699
66632SOL     OW 1728   0.308   2.518   6.183
66632SOL    HW1 1729   0.338   2.428   6.190
66632SOL    HW2 1730   0.245   2.517   6.112
66633SOL     OW 1731   2.598   3.123  10.614
66633SOL    HW1 1732   2.563   3.180  10.682
66633SOL    HW2 1733   2.553   3.039  10.627
66634SOL     OW 1734   7.260   1.470   3.810
66634SOL    HW1 1735   7.229   1.532   3.744
66634SOL    HW2 1736   7.354   1.487   3.817
66635SOL     OW 1737   3.316  10.901  10.979
66635SOL    HW1 1738   3.407  10.877  10.958
66635SOL    HW2 1739   3.317  10.919  11.073
66636SOL     OW 1740   5.136   2.404  11.557
66636SOL    HW1 1741   5.044   2.408  11.583
66636SOL    HW2 1742   5.134   2.373  11.466
66637SOL     OW 1743   2.093   5.464   4.271
66637SOL    HW1 1744   2.110   5.394   4.334
66637SOL    HW2 1745   2.177   5.480   4.230
66638SOL     OW 1746   8.787   9.336  14.099
66638SOL    HW1 1747   8.785   9.240  14.094
66638SOL    HW2 1748   8.866   9.361  14.051
66639SOL     OW 1749  13.684  10.446   5.617
66639SOL    HW1 1750  13.596  10.468   5.649
66639SOL    HW2 1751  13.733  10.528   5.624
66640SOL     OW 1752   2.951  11.219   0.169
66640SOL    HW1 1753   2.866  11.177   0.162
66640SOL    HW2 1754   2.969  11.222   0.263
66641SOL     OW 1755   8.607   1.031   7.747
66641SOL    HW1 1756   8.642   1.080   7.673
66641SOL    HW2 1757   8.659   0.950   7.750
66642SOL     OW 1758   6.117   9.949   6.693
66642SOL    HW1 1759   6.151   9.885   6.631
66642SOL    HW2 1760   6.032   9.974   6.657
66643SOL     OW 1761   0.113   7.604   3.939
66643SOL    HW1 1762   0.180   7.536   3.933
66643SOL    HW2 1763   0.142   7.660   4.012
66644SOL     OW 1764   2.402   5.690  14.155
66644SOL    HW1 1765   2.323   5.716  14.109
66644SOL    HW2 1766   2.426   5.766  14.207
66645SOL     OW 1767  10.260  11.377   2.162
66645SOL    HW1 1768  10.232  11.339   2.245
66645SOL    HW2 1769  10.313  11.309   2.120
66646SOL     OW 1770  11.339   0.800   3.013
66646SOL    HW1 1771  11.416   0.757   3.050
66646SOL    HW2 1772  11.281   0.729   2.987
66647SOL     OW 1773  14.632  11.040  13.323
66647SOL    HW1 1774  14.542  11.036  13.291
66647SOL    HW2 1775  14.679  11.088  13.255
66648SOL     OW 1776  10.246  10.209   5.795
66648SOL    HW1 1777  10.299  10.196   5.716
66648SOL    HW2 1778  10.157  10.223   5.762
66649SOL     OW 1779   0.691   3.884  12.481
66649SOL    HW1 1780   0.770   3.853  12.526
66649SOL    HW2 1781   0.643   3.933  12.547
66650SOL     OW 1782   1.113   6.495   1.551
66650SOL    HW1 1783   1.124   6.519   1.643
66650SOL    HW2 1784   1.173   6.422   1.538
66651SOL     OW 1785  10.946   0.564   0.767
66651SOL    HW1 1786  10.999   0.602   0.837
66651SOL    HW2 1787  10.992   0.587   0.687
66652SOL     OW 1788   0.752  11.117   9.202
66652SOL    HW1 1789   0.711  11.190   9.248
66652SOL    HW2 1790   0.687  11.046   9.208
66653SOL     OW 1791   2.969   5.682   7.123
66653SOL    HW1 1792   2.885   5.716   7.155
66653SOL    HW2 1793   2.959   5.587   7.127
66654SOL     OW 1794   6.794   3.893   7.791
66654SOL    HW1 1795   6.798   3.928   7.702
66654SOL    HW2 1796   6.823   3.966   7.847
66655SOL     OW 1797  12.960   5.057   4.525
66655SOL    HW1 1798  12.988   5.139   4.485
66655SOL    HW2 1799  12.944   5.079   4.617
66656SOL     OW 1800   4.679   2.320   5.582
66656SOL    HW1 1801   4.701   2.283   5.668
66656SOL    HW2 1802   4.729   2.401   5.577
66657SOL     OW 1803  13.198   3.495  11.219
66657SOL    HW1 1804  13.213   3.462  11.131
66657SOL    HW2 1805  13.245   3.434  11.276
66658SOL     OW 1806   4.830   9.292  14.623
66658SOL    HW1 1807   4.876   9.211  14.604
66658SOL    HW2 1808   4.866   9.356  14.561
66659SOL     OW 1809  12.826   4.339   3.046
66659SOL    HW1 1810  12.835   4.246   3.025
66659SOL    HW2 1811  12.911   4.377   3.027
66660SOL     OW 1812   5.866   2.231  12.497
66660SOL    HW1 1813   5.883   2.303  12.557
66660SOL    HW2 1814   5.771   2.217  12.501
66661SOL     OW 1815   7.876   6.158   1.987
66661SOL    HW1 1816   7.836   6.241   2.012
66661SOL    HW2 1817   7.839   6.094   2.047
66662SOL     OW 1818   7.100   9.715   3.144
66662SOL    HW1 1819   7.089   9.636   3.091
66662SOL    HW2 1820   7.077   9.787   3.085
66663SOL     OW 1821  14.351   7.679   2.167
66663SOL    HW1 1822  14.426   7.727   2.202
66663SOL    HW2 1823  14.368   7.588   2.189
66664SOL     OW 1824   9.611   8.472  12.944
66664SOL    HW1 1825   9.692   8.467  12.994
66664SOL    HW2 1826   9.625   8.417  12.868
66665SOL     OW 1827  12.875   8.451   9.111
66665SOL    HW1 1828  12.791   8.492   9.130
66665SOL    HW2 1829  12.863   8.359   9.138
66666SOL     OW 1830   1.028   6.035  11.782
66666SOL    HW1 1831   1.011   6.082  11.864
66666SOL    HW2 1832   1.079   6.097  11.730
66667SOL     OW 1833  10.802  11.524   5.797
66667SOL    HW1 1834  10.815  11.604   5.746
66667SOL    HW2 1835  10.805  11.454   5.732
66668SOL     OW 1836   9.869   1.309   3.306
66668SOL    HW1 1837   9.882   1.404   3.298
66668SOL    HW2 1838   9.804   1.300   3.375
66669SOL     OW 1839   3.445  12.410  11.868
66669SOL    HW1 1840   3.486  12.403  11.954
66669SOL    HW2 1841   3.377  12.343  11.868
66670SOL     OW 1842  13.800  10.913   3.233
66670SOL    HW1 1843  13.833  10.966   3.160
66670SOL    HW2 1844  13.777  10.829   3.193
66671SOL     OW 1845   3.822   1.629   9.921
66671SOL    HW1 1846   3.839   1.657  10.011
66671SOL    HW2 1847   3.831   1.534   9.923
66672SOL     OW 1848  12.116  13.339   2.153
66672SOL    HW1 1849  12.084  13.342   2.063
66672SOL    HW2 1850  12.042  13.370   2.205
66673SOL     OW 1851  12.794   1.991   3.153
66673SOL    HW1 1852  12.783   1.920   3.216
66673SOL    HW2 1853  12.872   2.038   3.183
66674SOL     OW 1854   1.830   2.095  11.951
66674SOL    HW1 1855   1.865   2.101  12.039
66674SOL    HW2 1856   1.903   2.120  11.894
66675SOL     OW 1857   3.484   0.402   9.929
66675SOL    HW1 1858   3.548   0.415   9.859
66675SOL    HW2 1859   3.403   0.438   9.894
66676SOL     OW 1860  13.731  13.921   4.686
66676SOL    HW1 1861  13.684  13.975   4.750
66676SOL    HW2 1862  13.663  13.872   4.640
66677SOL     OW 1863   2.027   2.130  10.147
66677SOL    HW1 1864   2.066   2.122  10.060
66677SOL    HW2 1865   1.963   2.059  10.151
66678SOL     OW 1866   6.027   9.460  12.737
66678SOL    HW1 1867   5.977   9.410  12.801
66678SOL    HW2 1868   5.970   9.464  12.660
66679SOL     OW 1869   8.321  13.776  14.421
66679SOL    HW1 1870   8.387  13.822  14.369
66679SOL    HW2 1871   8.326  13.685  14.391
66680SOL     OW 1872   1.218  10.561  11.542
66680SOL    HW1 1873   1.269  10.486  11.571
66680SOL    HW2 1874   1.149  10.570  11.607
66681SOL     OW 1875   0.432   3.890   5.092
66681SOL    HW1 1876   0.484   3.815   5.064
66681SOL    HW2 1877   0.497   3.951   5.128
66682SOL     OW 1878  12.996   7.569   8.039
66682SOL    HW1 1879  12.922   7.551   7.981
66682SOL    HW2 1880  13.073   7.555   7.984
66683SOL     OW 1881   2.865  14.815   6.185
66683SOL    HW1 1882   2.776  14.812   6.150
66683SOL    HW2 1883   2.854  14.802   6.280
66684SOL     OW 1884  12.644  10.198   1.046
66684SOL    HW1 1885  12.623  10.244   0.965
66684SOL    HW2 1886  12.596  10.246   1.114
66685SOL     OW 1887   6.601  12.994  13.390
66685SOL    HW1 1888   6.607  13.034  13.304
66685SOL    HW2 1889   6.513  12.956  13.393
66686SOL     OW 1890   7.920  11.617   5.364
66686SOL    HW1 1891   7.830  11.649   5.369
66686SOL    HW2 1892   7.914  11.536   5.313
66687SOL     OW 1893   2.030   0.174   9.775
66687SOL    HW1 1894   2.038   0.227   9.696
66687SOL    HW2 1895   1.966   0.221   9.829
66688SOL     OW 1896  11.051   7.919   0.501
66688SOL    HW1 1897  11.135   7.915   0.547
66688SOL    HW2 1898  11.058   7.994   0.443
66689SOL     OW 1899   9.163  10.616   0.820
66689SOL    HW1 1900   9.128  10.673   0.752
66689SOL    HW2 1901   9.135  10.656   0.902
66690SOL     OW 1902   1.650   8.263   2.577
66690SOL    HW1 1903   1.679   8.324   2.509
66690SOL    HW2 1904   1.555   8.276   2.581
66691SOL     OW 1905   3.108   2.963  14.528
66691SOL    HW1 1906   3.196   2.940  14.499
66691SOL    HW2 1907   3.050   2.909  14.475
66692SOL     OW 1908   4.649   3.013   9.085
66692SOL    HW1 1909   4.632   2.991   8.993
66692SOL    HW2 1910   4.598   2.948   9.134
66693SOL     OW 1911  12.151   7.419  13.093
66693SOL    HW1 1912  12.072   7.399  13.043
66693SOL    HW2 1913  12.222   7.379  13.044
66694SOL     OW 1914  13.158  14.380   0.681
66694SOL    HW1 1915  13.228  14.377   0.616
66694SOL    HW2 1916  13.201  14.411   0.761
66695SOL     OW 1917   8.319  12.994  10.005
66695SOL    HW1 1918   8.407  13.011   9.971
66695SOL    HW2 1919   8.296  13.074  10.053
66696SOL     OW 1920   3.981   1.815   9.309
66696SOL    HW1 1921   3.949   1.817   9.219
66696SOL    HW2 1922   4.073   1.843   9.303
66697SOL     OW 1923  12.571  12.779   2.950
66697SOL    HW1 1924  12.624  12.821   2.883
66697SOL    HW2 1925  12.507  12.727   2.901
66698SOL     OW 1926  12.834  14.670  10.951
66698SOL    HW1 1927  12.908  14.701  10.900
66698SOL    HW2 1928  12.759  14.676  10.891
66699SOL     OW 1929   8.615  14.852   8.616
66699SOL    HW1 1930   8.657  14.807   8.543
66699SOL    HW2 1931   8.538   0.015   8.579
66700SOL     OW 1932   6.487   8.360  10.717
66700SOL    HW1 1933   6.416   8.297  10.711
66700SOL    HW2 1934   6.513   8.376  10.626
66701SOL     OW 1935   1.808   6.528   9.806
66701SOL    HW1 1936   1.801   6.480   9.724
66701SOL    HW2 1937   1.780   6.617   9.785
66702SOL     OW 1938  14.856   7.887   1.352
66702SOL    HW1 1939  14.803   7.826   1.302
66702SOL    HW2 1940   0.014   7.946   1.286
66703SOL     OW 1941   2.554   9.109   3.278
66703SOL    HW1 1942   2.611   9.186   3.288
66703SOL    HW2 1943   2.606   9.036   3.311
66704SOL     OW 1944   0.573   6.902   7.607
66704SOL    HW1 1945   0.547   6.987   7.571
66704SOL    HW2 1946   0.579   6.844   7.531
66705SOL     OW 1947   0.640   7.560   1.187
66705SOL    HW1 1948   0.652   7.549   1.281
66705SOL    HW2 1949   0.623   7.654   1.176
66706SOL     OW 1950   1.469   6.443  12.596
66706SOL    HW1 1951   1.430   6.371  12.647
66706SOL    HW2 1952   1.455   6.417  12.505
66707SOL     OW 1953   4.547   0.030   6.222
66707SOL    HW1 1954   4.480   0.000   6.160
66707SOL    HW2 1955   4.502   0.095   6.276
66708SOL     OW 1956  14.129  12.051   2.200
66708SOL    HW1 1957  14.101  12.000   2.124
66708SOL    HW2 1958  14.211  12.092   2.172
66709SOL     OW 1959   1.101   0.727  11.250
66709SOL    HW1 1960   1.096   0.664  11.322
66709SOL    HW2 1961   1.013   0.728  11.212
66710SOL     OW 1962   8.930   2.133   2.047
66710SOL    HW1 1963   8.970   2.214   2.016
66710SOL    HW2 1964   9.002   2.070   2.051
66711SOL     OW 1965  13.171   9.266   6.513
66711SOL    HW1 1966  13.095   9.285   6.458
66711SOL    HW2 1967  13.146   9.298   6.600
66712SOL     OW 1968  12.248   9.336   2.414
66712SOL    HW1 1969  12.245   9.240   2.417
66712SOL    HW2 1970  12.158   9.363   2.429
66713SOL     OW 1971  11.216   9.783   4.229
66713SOL    HW1 1972  11.157   9.857   4.214
66713SOL    HW2 1973  11.295   9.805   4.180
66714SOL     OW 1974   9.279   5.694   8.389
66714SOL    HW1 1975   9.212   5.762   8.398
66714SOL    HW2 1976   9.306   5.675   8.479
66715SOL     OW 1977   5.326   7.916   3.988
66715SOL    HW1 1978   5.401   7.965   4.020
66715SOL    HW2 1979   5.354   7.880   3.904
66716SOL     OW 1980   7.688  10.665  11.140
66716SOL    HW1 1981   7.751  10.594  11.149
66716SOL    HW2 1982   7.631  10.637  11.067
66717SOL     OW 1983   5.141   4.422   0.657
66717SOL    HW1 1984   5.230   4.446   0.685
66717SOL    HW2 1985   5.152   4.337   0.614
66718SOL     OW 1986  13.847   4.414   1.143
66718SOL    HW1 1987  13.753   4.412   1.161
66718SOL    HW2 1988  13.853   4.457   1.057
66719SOL     OW 1989   2.401   1.556   2.315
66719SOL    HW1 1990   2.411   1.569   2.409
66719SOL    HW2 1991   2.462   1.619   2.276
66720SOL     OW 1992   9.232   9.748   6.749
66720SOL    HW1 1993   9.300   9.688   6.718
66720SOL    HW2 1994   9.179   9.767   6.671
66721SOL     OW 1995   1.403   0.603  11.920
66721SOL    HW1 1996   1.445   0.681  11.883
66721SOL    HW2 1997   1.456   0.530  11.888
66722SOL     OW 1998   7.149   1.154   3.440
66722SOL    HW1 1999   7.138   1.106   3.522
66722SOL    HW2 2000   7.229   1.119   3.402
66723SOL     OW 2001   9.364   8.220   8.134
66723SOL    HW1 2002   9.359   8.186   8.224
66723SOL    HW2 2003   9.273   8.228   8.106
66724SOL     OW 2004   0.076   4.080   7.005
66724SOL    HW1 2005   0.170   4.085   7.025
66724SOL    HW2 2006   0.043   4.168   7.022
66725SOL     OW 2007  11.563   7.337   5.339
66725SOL    HW1 2008  11.480   7.384   5.337
66725SOL    HW2 2009  11.540   7.249   5.369
66726SOL     OW 2010   2.801   9.416   9.827
66726SOL    HW1 2011   2.813   9.422   9.732
66726SOL    HW2 2012   2.713   9.450   9.842
66727SOL     OW 2013   6.644   4.530   0.078
66727SOL    HW1 2014   6.710   4.526   0.008
66727SOL    HW2 2015   6.691   4.505   0.157
66728SOL     OW 2016   4.707  13.038  11.474
66728SOL    HW1 2017   4.740  13.118  11.432
66728SOL    HW2 2018   4.734  13.048  11.566
66729SOL     OW 2019   5.723  10.311  13.783
66729SOL    HW1 2020   5.638  10.333  13.822
66729SOL    HW2 2021   5.787  10.341  13.848
66730SOL     OW 2022   2.507   3.058   6.591
66730SOL    HW1 2023   2.476   3.144   6.562
66730SOL    HW2 2024   2.556   3.023   6.517
66731SOL     OW 2025   4.957  13.425   9.299
66731SOL    HW1 2026   4.885  13.409   9.238
66731SOL    HW2 2027   5.036  13.415   9.246
66732SOL     OW 2028   9.506   6.842   3.192
66732SOL    HW1 2029   9.577   6.898   3.163
66732SOL    HW2 2030   9.434   6.902   3.211
66733SOL     OW 2031   6.706   0.099   7.881
66733SOL    HW1 2032   6.727   0.005   7.883
66733SOL    HW2 2033   6.747   0.135   7.959
66734SOL     OW 2034   7.958  11.027   5.083
66734SOL    HW1 2035   7.961  10.940   5.043
66734SOL    HW2 2036   7.865  11.044   5.098
66735SOL     OW 2037   2.351  12.747   1.298
66735SOL    HW1 2038   2.426  12.776   1.247
66735SOL    HW2 2039   2.389  12.696   1.370
66736SOL     OW 2040  13.433   5.801   6.453
66736SOL    HW1 2041  13.372   5.871   6.428
66736SOL    HW2 2042  13.449   5.816   6.546
66737SOL     OW 2043   8.962  14.438   3.899
66737SOL    HW1 2044   8.928  14.349   3.900
66737SOL    HW2 2045   9.052  14.430   3.867
66738SOL     OW 2046   8.019  11.452   7.737
66738SOL    HW1 2047   7.928  11.446   7.707
66738SOL    HW2 2048   8.055  11.365   7.720
66739SOL     OW 2049   5.883   9.403   0.164
66739SOL    HW1 2050   5.796   9.373   0.194
66739SOL    HW2 2051   5.928   9.429   0.244
66740SOL     OW 2052   5.635   3.637   0.563
66740SOL    HW1 2053   5.581   3.594   0.496
66740SOL    HW2 2054   5.579   3.705   0.599
66741SOL     OW 2055   5.229   1.432   5.316
66741SOL    HW1 2056   5.243   1.515   5.270
66741SOL    HW2 2057   5.206   1.370   5.246
66742SOL     OW 2058   0.771   1.816   2.133
66742SOL    HW1 2059   0.843   1.787   2.189
66742SOL    HW2 2060   0.698   1.832   2.193
66743SOL     OW 2061   1.503   3.306   8.381
66743SOL    HW1 2062   1.588   3.346   8.365
66743SOL    HW2 2063   1.524   3.221   8.420
66744SOL     OW 2064  12.333   3.698   1.923
66744SOL    HW1 2065  12.428   3.690   1.911
66744SOL    HW2 2066  12.305   3.611   1.950
66745SOL     OW 2067   5.052  11.886   7.018
66745SOL    HW1 2068   4.970  11.902   6.972
66745SOL    HW2 2069   5.105  11.836   6.957
66746SOL     OW 2070   8.019   0.570   4.424
66746SOL    HW1 2071   8.037   0.504   4.356
66746SOL    HW2 2072   7.924   0.570   4.433
66747SOL     OW 2073   3.166  11.973   6.259
66747SOL    HW1 2074   3.159  12.051   6.204
66747SOL    HW2 2075   3.229  11.917   6.213
66748SOL     OW 2076   5.665   5.131   1.519
66748SOL    HW1 2077   5.632   5.073   1.588
66748SOL    HW2 2078   5.588   5.182   1.493
66749SOL     OW 2079   2.080   4.709   5.000
66749SOL    HW1 2080   2.060   4.626   5.043
66749SOL    HW2 2081   2.166   4.695   4.961
66750SOL     OW 2082   5.055  14.620   4.985
66750SOL    HW1 2083   5.137  14.651   5.024
66750SOL    HW2 2084   5.003  14.700   4.974
66751SOL     OW 2085  12.265  12.743  11.990
66751SOL    HW1 2086  12.350  12.733  12.032
66751SOL    HW2 2087  12.237  12.832  12.013
66752SOL     OW 2088   7.373   6.770  12.602
66752SOL    HW1 2089   7.369   6.835  12.532
66752SOL    HW2 2090   7.302   6.794  12.661
66753SOL     OW 2091   8.677  12.977  14.082
66753SOL    HW1 2092   8.742  12.978  14.012
66753SOL    HW2 2093   8.593  12.988  14.037
66754SOL     OW 2094   8.696   1.683   8.276
66754SOL    HW1 2095   8.741   1.614   8.228
66754SOL    HW2 2096   8.718   1.666   8.368
66755SOL     OW 2097  14.011  10.405   6.526
66755SOL    HW1 2098  14.025  10.484   6.579
66755SOL    HW2 2099  13.991  10.336   6.590
66756SOL     OW 2100   8.427   3.509   5.937
66756SOL    HW1 2101   8.409   3.418   5.960
66756SOL    HW2 2102   8.445   3.506   5.843
66757SOL     OW 2103  13.358   2.485  13.637
66757SOL    HW1 2104  13.425   2.416  13.634
66757SOL    HW2 2105  13.338   2.495  13.730
66758SOL     OW 2106   3.000   5.914  14.610
66758SOL    HW1 2107   2.911   5.908  14.646
66758SOL    HW2 2108   2.987   5.923  14.516
66759SOL     OW 2109   9.075   6.300   3.926
66759SOL    HW1 2110   9.035   6.230   3.978
66759SOL    HW2 2111   9.047   6.381   3.968
66760SOL     OW 2112   9.376   8.109   8.415
66760SOL    HW1 2113   9.395   8.202   8.431
66760SOL    HW2 2114   9.449   8.063   8.454
66761SOL     OW 2115   7.520  10.839  14.589
66761SOL    HW1 2116   7.535  10.744  14.591
66761SOL    HW2 2117   7.535  10.863  14.497
66762SOL     OW 2118   8.888  12.380   5.635
66762SOL    HW1 2119   8.896  12.440   5.561
66762SOL    HW2 2120   8.978  12.364   5.662
66763SOL     OW 2121   0.187   7.511   1.799
66763SOL    HW1 2122   0.228   7.471   1.875
66763SOL    HW2 2123   0.200   7.605   1.811
66764SOL     OW 2124   3.109  11.856   3.806
66764SOL    HW1 2125   3.131  11.887   3.894
66764SOL    HW2 2126   3.146  11.768   3.801
66765SOL     OW 2127   1.108   8.653   9.283
66765SOL    HW1 2128   1.143   8.736   9.249
66765SOL    HW2 2129   1.119   8.591   9.211
66766SOL     OW 2130  12.717  11.405  12.370
66766SOL    HW1 2131  12.643  11.370  12.420
66766SOL    HW2 2132  12.781  11.431  12.436
66767SOL     OW 2133  13.754   5.989   2.137
66767SOL    HW1 2134  13.807   5.938   2.198
66767SOL    HW2 2135  13.705   6.049   2.192
66768SOL     OW 2136   5.002   2.416  13.369
66768SOL    HW1 2137   4.945   2.351  13.327
66768SOL    HW2 2138   5.079   2.421  13.312
66769SOL     OW 2139  11.138   3.749   4.938
66769SOL    HW1 2140  11.052   3.770   4.901
66769SOL    HW2 2141  11.198   3.763   4.865
66770SOL     OW 2142   6.088   5.083  10.098
66770SOL    HW1 2143   6.056   4.997  10.123
66770SOL    HW2 2144   6.016   5.123  10.050
66771SOL     OW 2145   0.120  11.093   1.430
66771SOL    HW1 2146   0.054  11.113   1.364
66771SOL    HW2 2147   0.191  11.052   1.382
66772SOL     OW 2148  11.586   4.418   6.355
66772SOL    HW1 2149  11.500   4.449   6.384
66772SOL    HW2 2150  11.566   4.356   6.284
66773SOL     OW 2151   5.896  10.350   9.927
66773SOL    HW1 2152   5.865  10.364  10.017
66773SOL    HW2 2153   5.860  10.265   9.903
66774SOL     OW 2154  11.747   5.396   6.482
66774SOL    HW1 2155  11.748   5.489   6.503
66774SOL    HW2 2156  11.758   5.392   6.387
66775SOL     OW 2157  11.189  14.115  13.093
66775SOL    HW1 2158  11.168  14.035  13.141
66775SOL    HW2 2159  11.109  14.166  13.094
66776SOL     OW 2160   6.179   5.056  12.632
66776SOL    HW1 2161   6.194   5.097  12.547
66776SOL    HW2 2162   6.131   4.976  12.611
66777SOL     OW 2163   3.893   1.920  14.395
66777SOL    HW1 2164   3.879   1.988  14.462
66777SOL    HW2 2165   3.933   1.967  14.322
66778SOL     OW 2166  11.671   5.017   3.998
66778SOL    HW1 2167  11.588   5.052   4.030
66778SOL    HW2 2168  11.691   5.070   3.921
66779SOL     OW 2169   0.194  10.575   0.528
66779SOL    HW1 2170   0.151  10.505   0.479
66779SOL    HW2 2171   0.164  10.656   0.487
66780SOL     OW 2172   1.134  11.972   3.189
66780SOL    HW1 2173   1.120  12.031   3.115
66780SOL    HW2 2174   1.072  12.003   3.256
66781SOL     OW 2175   2.850  14.408   7.244
66781SOL    HW1 2176   2.816  14.496   7.255
66781SOL    HW2 2177   2.908  14.414   7.168
66782SOL     OW 2178   2.390  14.056  13.409
66782SOL    HW1 2179   2.310  14.097  13.375
66782SOL    HW2 2180   2.422  14.116  13.476
66783SOL     OW 2181   2.502  12.407  11.694
66783SOL    HW1 2182   2.499  12.379  11.602
66783SOL    HW2 2183   2.553  12.488  11.693
66784SOL     OW 2184  12.280   8.290  12.059
66784SOL    HW1 2185  12.294   8.220  11.995
66784SOL    HW2 2186  12.216   8.348  12.019
66785SOL     OW 2187   0.309  11.724   1.805
66785SOL    HW1 2188   0.351  11.806   1.832
66785SOL    HW2 2189   0.221  11.751   1.779
66786SOL     OW 2190   8.212  14.139   0.433
66786SOL    HW1 2191   8.156  14.063   0.417
66786SOL    HW2 2192   8.299  14.102   0.451
66787SOL     OW 2193  14.350  13.333  12.251
66787SOL    HW1 2194  14.306  13.314  12.334
66787SOL    HW2 2195  14.317  13.266  12.191
66788SOL     OW 2196  10.800   3.017   3.731
66788SOL    HW1 2197  10.770   3.012   3.640
66788SOL    HW2 2198  10.730   2.975   3.782
66789SOL     OW 2199   6.074   3.704   6.168
66789SOL    HW1 2200   6.144   3.764   6.194
66789SOL    HW2 2201   6.024   3.689   6.248
66790SOL     OW 2202   1.645  13.855  12.833
66790SOL    HW1 2203   1.613  13.934  12.791
66790SOL    HW2 2204   1.651  13.877  12.926
66791SOL     OW 2205   1.541   7.936   0.975
66791SOL    HW1 2206   1.517   7.999   1.043
66791SOL    HW2 2207   1.551   7.853   1.021
66792SOL     OW 2208  10.874   4.996   4.602
66792SOL    HW1 2209  10.932   4.939   4.652
66792SOL    HW2 2210  10.809   4.937   4.564
66793SOL     OW 2211   8.406   8.251  14.523
66793SOL    HW1 2212   8.432   8.203  14.445
66793SOL    HW2 2213   8.363   8.330  14.490
66794SOL     OW 2214  10.045   5.196  10.561
66794SOL    HW1 2215   9.995   5.255  10.618
66794SOL    HW2 2216  10.111   5.253  10.521
66795SOL     OW 2217  12.168   7.186   3.003
66795SOL    HW1 2218  12.083   7.228   3.020
66795SOL    HW2 2219  12.149   7.120   2.936
66796SOL     OW 2220   7.779   2.401  10.920
66796SOL    HW1 2221   7.787   2.309  10.945
66796SOL    HW2 2222   7.714   2.437  10.980
66797SOL     OW 2223   8.178   5.397   5.829
66797SOL    HW1 2224   8.147   5.483   5.802
66797SOL    HW2 2225   8.214   5.409   5.916
66798SOL     OW 2226   6.301   7.715  14.153
66798SOL    HW1 2227   6.370   7.653  14.132
66798SOL    HW2 2228   6.332   7.799  14.119
66799SOL     OW 2229  10.488   9.573   4.234
66799SOL    HW1 2230  10.468   9.529   4.152
66799SOL    HW2 2231  10.527   9.504   4.289
66800SOL     OW 2232   3.224   6.342  11.317
66800SOL    HW1 2233   3.196   6.258  11.281
66800SOL    HW2 2234   3.194   6.340  11.408
66801SOL     OW 2235   4.772   9.729   6.870
66801SOL    HW1 2236   4.791   9.781   6.948
66801SOL    HW2 2237   4.745   9.794   6.804
66802SOL     OW 2238   3.912   8.669   6.757
66802SOL    HW1 2239   3.823   8.635   6.746
66802SOL    HW2 2240   3.936   8.645   6.846
66803SOL     OW 2241   0.279   1.866  12.334
66803SOL    HW1 2242   0.264   1.884  12.427
66803SOL    HW2 2243   0.369   1.896  12.318
66804SOL     OW 2244   5.182   4.581   0.948
66804SOL    HW1 2245   5.253   4.545   0.894
66804SOL    HW2 2246   5.104   4.572   0.894
66805SOL     OW 2247   3.714  13.280  13.373
66805SOL    HW1 2248   3.631  13.243  13.404
66805SOL    HW2 2249   3.688  13.352  13.316
66806SOL     OW 2250   2.481  13.432  13.358
66806SOL    HW1 2251   2.564  13.456  13.317
66806SOL    HW2 2252   2.492  13.455  13.450
66807SOL     OW 2253  14.817  11.925   4.090
66807SOL    HW1 2254  14.779  11.956   4.008
66807SOL    HW2 2255  14.829  11.831   4.077
66808SOL     OW 2256   8.207  10.222  13.282
66808SOL    HW1 2257   8.233  10.161  13.351
66808SOL    HW2 2258   8.261  10.197  13.207
66809SOL     OW 2259   2.114   5.141   5.072
66809SOL    HW1 2260   2.106   5.061   5.124
66809SOL    HW2 2261   2.027   5.180   5.074
66810SOL     OW 2262  14.734  12.912  14.619
66810SOL    HW1 2263  14.652  12.871  14.592
66810SOL    HW2 2264  14.796  12.891  14.549
66811SOL     OW 2265   0.926   0.932  10.880
66811SOL    HW1 2266   0.912   0.901  10.969
66811SOL    HW2 2267   0.970   1.016  10.890
66812SOL     OW 2268   5.804   1.436   4.235
66812SOL    HW1 2269   5.899   1.436   4.239
66812SOL    HW2 2270   5.777   1.491   4.310
66813SOL     OW 2271   3.683  12.269   2.415
66813SOL    HW1 2272   3.749  12.242   2.479
66813SOL    HW2 2273   3.725  12.254   2.330
66814SOL     OW 2274   7.718   1.162   8.586
66814SOL    HW1 2275   7.697   1.255   8.591
66814SOL    HW2 2276   7.689   1.135   8.499
66815SOL     OW 2277  10.039   8.973  13.512
66815SOL    HW1 2278  10.049   9.028  13.435
66815SOL    HW2 2279  10.098   9.012  13.577
66816SOL     OW 2280   1.732  11.198   5.985
66816SOL    HW1 2281   1.681  11.188   6.065
66816SOL    HW2 2282   1.768  11.287   5.990
66817SOL     OW 2283   8.758   4.597  10.491
66817SOL    HW1 2284   8.745   4.672  10.550
66817SOL    HW2 2285   8.830   4.622  10.435
66818SOL     OW 2286   2.211   5.956   1.994
66818SOL    HW1 2287   2.219   5.883   1.932
66818SOL    HW2 2288   2.118   5.979   1.992
66819SOL     OW 2289  10.641  14.412   3.764
66819SOL    HW1 2290  10.656  14.470   3.689
66819SOL    HW2 2291  10.546  14.410   3.774
66820SOL     OW 2292   0.761   8.112  14.767
66820SOL    HW1 2293   0.735   8.057  14.841
66820SOL    HW2 2294   0.683   8.164  14.748
66821SOL     OW 2295   0.253  13.936   5.593
66821SOL    HW1 2296   0.164  13.929   5.558
66821SOL    HW2 2297   0.248  14.007   5.658
66822SOL     OW 2298   0.700  11.996   2.936
66822SOL    HW1 2299   0.681  12.010   2.843
66822SOL    HW2 2300   0.693  11.901   2.947
66823SOL     OW 2301   6.977  10.164   3.741
66823SOL    HW1 2302   6.947  10.155   3.651
66823SOL    HW2 2303   6.967  10.077   3.779
66824SOL     OW 2304   8.855   4.688   0.561
66824SOL    HW1 2305   8.908   4.663   0.485
66824SOL    HW2 2306   8.898   4.646   0.635
66825SOL     OW 2307  10.382   2.646  12.857
66825SOL    HW1 2308  10.364   2.643  12.763
66825SOL    HW2 2309  10.329   2.720  12.889
66826SOL     OW 2310   3.532   5.782   5.150
66826SOL    HW1 2311   3.487   5.758   5.069
66826SOL    HW2 2312   3.580   5.703   5.175
66827SOL     OW 2313   6.245   8.252  14.109
66827SOL    HW1 2314   6.177   8.185  14.101
66827SOL    HW2 2315   6.199   8.335  14.094
66828SOL     OW 2316   1.037   2.261  13.538
66828SOL    HW1 2317   1.096   2.264  13.462
66828SOL    HW2 2318   0.959   2.217  13.505
66829SOL     OW 2319   1.085  13.312   8.029
66829SOL    HW1 2320   1.174  13.277   8.038
66829SOL    HW2 2321   1.083  13.389   8.085
66830SOL     OW 2322  13.687   4.216  13.539
66830SOL    HW1 2323  13.720   4.190  13.453
66830SOL    HW2 2324  13.601   4.256  13.521
66831SOL     OW 2325   0.749   2.313  13.957
66831SOL    HW1 2326   0.842   2.321  13.937
66831SOL    HW2 2327   0.705   2.344  13.877
66832SOL     OW 2328   9.769  14.694   3.956
66832SOL    HW1 2329   9.740  14.624   3.898
66832SOL    HW2 2330   9.768  14.655   4.043
66833SOL     OW 2331   3.865   4.087   2.131
66833SOL    HW1 2332   3.929   4.129   2.073
66833SOL    HW2 2333   3.794   4.060   2.072
66834SOL     OW 2334   6.238   5.037   8.596
66834SOL    HW1 2335   6.179   4.962   8.595
66834SOL    HW2 2336   6.198   5.100   8.535
66835SOL     OW 2337  13.121   6.496   7.418
66835SOL    HW1 2338  13.186   6.556   7.455
66835SOL    HW2 2339  13.144   6.488   7.326
66836SOL     OW 2340   3.575   2.346  10.773
66836SOL    HW1 2341   3.527   2.374  10.851
66836SOL    HW2 2342   3.583   2.251  10.782
66837SOL     OW 2343   0.619  11.867   9.064
66837SOL    HW1 2344   0.660  11.871   8.978
66837SOL    HW2 2345   0.562  11.790   9.060
66838SOL     OW 2346   0.990  13.615  11.473
66838SOL    HW1 2347   0.995  13.692  11.416
66838SOL    HW2 2348   1.039  13.547  11.427
66839SOL     OW 2349   6.120   0.942   6.276
66839SOL    HW1 2350   6.051   0.969   6.216
66839SOL    HW2 2351   6.152   1.024   6.315
66840SOL     OW 2352   6.540   7.815  13.085
66840SOL    HW1 2353   6.533   7.738  13.141
66840SOL    HW2 2354   6.530   7.890  13.145
66841SOL     OW 2355   0.777  10.462   5.358
66841SOL    HW1 2356   0.827  10.535   5.394
66841SOL    HW2 2357   0.840  10.413   5.307
66842SOL     OW 2358   6.772   2.875   0.665
66842SOL    HW1 2359   6.800   2.950   0.717
66842SOL    HW2 2360   6.751   2.807   0.730
66843SOL     OW 2361   4.197   5.223  12.344
66843SOL    HW1 2362   4.164   5.202  12.257
66843SOL    HW2 2363   4.167   5.313  12.360
66844SOL     OW 2364   9.404   9.153  13.584
66844SOL    HW1 2365   9.418   9.238  13.543
66844SOL    HW2 2366   9.452   9.091  13.529
66845SOL     OW 2367  13.664   5.508  11.477
66845SOL    HW1 2368  13.747   5.500  11.524
66845SOL    HW2 2369  13.678   5.580  11.415
66846SOL     OW 2370   6.203  14.053  13.650
66846SOL    HW1 2371   6.115  14.084  13.669
66846SOL    HW2 2372   6.241  14.036  13.736
66847SOL     OW 2373  14.089  12.865  14.586
66847SOL    HW1 2374  14.096  12.806  14.511
66847SOL    HW2 2375  14.072  12.807  14.660
66848SOL     OW 2376   6.446   6.453   3.550
66848SOL    HW1 2377   6.380   6.476   3.484
66848SOL    HW2 2378   6.520   6.511   3.531
66849SOL     OW 2379   9.269   2.607   5.760
66849SOL    HW1 2380   9.322   2.528   5.766
66849SOL    HW2 2381   9.247   2.615   5.667
66850SOL     OW 2382  13.971   2.289  11.514
66850SOL    HW1 2383  14.004   2.214  11.564
66850SOL    HW2 2384  13.923   2.341  11.578
66851SOL     OW 2385  10.230   0.821   2.242
66851SOL    HW1 2386  10.189   0.906   2.225
66851SOL    HW2 2387  10.164   0.757   2.216
66852SOL     OW 2388   4.882   3.375  10.432
66852SOL    HW1 2389   4.805   3.432  10.431
66852SOL    HW2 2390   4.956   3.435  10.420
66853SOL     OW 2391  14.591  10.643   7.934
66853SOL    HW1 2392  14.649  10.640   7.858
66853SOL    HW2 2393  14.631  10.708   7.992
66854SOL     OW 2394   3.995   9.090   4.526
66854SOL    HW1 2395   4.053   9.072   4.452
66854SOL    HW2 2396   4.010   9.017   4.586
66855SOL     OW 2397   5.612   7.727   3.283
66855SOL    HW1 2398   5.553   7.669   3.236
66855SOL    HW2 2399   5.643   7.789   3.217
66856SOL     OW 2400   5.691   7.917  13.778
66856SOL    HW1 2401   5.770   7.891  13.826
66856SOL    HW2 2402   5.629   7.846  13.794
66857SOL     OW 2403   5.866   2.703   8.775
66857SOL    HW1 2404   5.868   2.762   8.850
66857SOL    HW2 2405   5.773   2.684   8.763
66858SOL     OW 2406   8.306   6.555   2.370
66858SOL    HW1 2407   8.250   6.631   2.352
66858SOL    HW2 2408   8.263   6.482   2.325
66859SOL     OW 2409  11.896   8.779  10.156
66859SOL    HW1 2410  11.874   8.715  10.223
66859SOL    HW2 2411  11.901   8.862  10.202
66860SOL     OW 2412   8.238   0.248   0.263
66860SOL    HW1 2413   8.245   0.280   0.353
66860SOL    HW2 2414   8.325   0.265   0.225
66861SOL     OW 2415   4.419   3.229   4.986
66861SOL    HW1 2416   4.405   3.230   5.081
66861SOL    HW2 2417   4.460   3.144   4.969
66862SOL     OW 2418   0.158  13.587   4.818
66862SOL    HW1 2419   0.088  13.537   4.859
66862SOL    HW2 2420   0.238  13.544   4.848
66863SOL     OW 2421  12.582   0.263   3.330
66863SOL    HW1 2422  12.588   0.214   3.248
66863SOL    HW2 2423  12.510   0.324   3.317
66864SOL     OW 2424   2.622   7.786   6.500
66864SOL    HW1 2425   2.532   7.809   6.526
66864SOL    HW2 2426   2.610   7.730   6.424
66865SOL     OW 2427  11.683  10.631   6.261
66865SOL    HW1 2428  11.617  10.693   6.231
66865SOL    HW2 2429  11.731  10.606   6.182
66866SOL     OW 2430   9.036   7.254  11.050
66866SOL    HW1 2431   8.959   7.204  11.079
66866SOL    HW2 2432   9.000   7.334  11.013
66867SOL     OW 2433   1.109   1.267   9.201
66867SOL    HW1 2434   1.160   1.249   9.122
66867SOL    HW2 2435   1.021   1.285   9.168
66868SOL     OW 2436  10.394   2.481   0.476
66868SOL    HW1 2437  10.404   2.576   0.477
66868SOL    HW2 2438  10.481   2.448   0.452
66869SOL     OW 2439   0.668  12.934   2.004
66869SOL    HW1 2440   0.663  12.846   1.967
66869SOL    HW2 2441   0.720  12.924   2.083
66870SOL     OW 2442  13.547  12.939   9.060
66870SOL    HW1 2443  13.456  12.941   9.089
66870SOL    HW2 2444  13.569  12.846   9.056
66871SOL     OW 2445   7.062  13.558   3.927
66871SOL    HW1 2446   7.047  13.471   3.891
66871SOL    HW2 2447   7.010  13.560   4.008
66872SOL     OW 2448   4.610  12.151   9.447
66872SOL    HW1 2449   4.569  12.117   9.367
66872SOL    HW2 2450   4.597  12.081   9.511
66873SOL     OW 2451   8.821  10.308   9.656
66873SOL    HW1 2452   8.902  10.336   9.698
66873SOL    HW2 2453   8.757  10.374   9.679
66874SOL     OW 2454   9.917   0.691   5.407
66874SOL    HW1 2455   9.859   0.616   5.419
66874SOL    HW2 2456   9.955   0.677   5.320
66875SOL     OW 2457   1.001  13.467   5.795
66875SOL    HW1 2458   1.033  13.497   5.709
66875SOL    HW2 2459   1.080  13.459   5.849
66876SOL     OW 2460   6.234   5.434   3.293
66876SOL    HW1 2461   6.211   5.358   3.241
66876SOL    HW2 2462   6.160   5.494   3.284
66877SOL     OW 2463   2.488  13.857   8.537
66877SOL    HW1 2464   2.538  13.789   8.582
66877SOL    HW2 2465   2.398  13.844   8.566
66878SOL     OW 2466  14.281   6.914   2.442
66878SOL    HW1 2467  14.364   6.936   2.483
66878SOL    HW2 2468  14.291   6.940   2.351
66879SOL     OW 2469   9.118   4.711   5.750
66879SOL    HW1 2470   9.031   4.680   5.725
66879SOL    HW2 2471   9.102   4.769   5.825
66880SOL     OW 2472   0.388  13.022   0.460
66880SOL    HW1 2473   0.364  12.937   0.422
66880SOL    HW2 2474   0.366  13.086   0.391
66881SOL     OW 2475   4.130  12.037   8.242
66881SOL    HW1 2476   4.040  12.007   8.248
66881SOL    HW2 2477   4.154  12.059   8.332
66882SOL     OW 2478   9.914   6.129   7.809
66882SOL    HW1 2479   9.905   6.034   7.811
66882SOL    HW2 2480   9.831   6.162   7.843
66883SOL     OW 2481   1.404   1.480  12.939
66883SOL    HW1 2482   1.464   1.495  12.865
66883SOL    HW2 2483   1.452   1.420  12.996
66884SOL     OW 2484   9.482  14.245   6.939
66884SOL    HW1 2485   9.437  14.326   6.915
66884SOL    HW2 2486   9.553  14.237   6.876
66885SOL     OW 2487   6.177   2.085   2.880
66885SOL    HW1 2488   6.092   2.050   2.854
66885SOL    HW2 2489   6.158   2.176   2.903
66886SOL     OW 2490   7.576   2.274   6.101
66886SOL    HW1 2491   7.571   2.199   6.160
66886SOL    HW2 2492   7.665   2.270   6.065
66887SOL     OW 2493   7.313   7.544  10.841
66887SOL    HW1 2494   7.358   7.542  10.756
66887SOL    HW2 2495   7.381   7.525  10.905
66888SOL     OW 2496  12.511   5.159  12.284
66888SOL    HW1 2497  12.575   5.206  12.338
66888SOL    HW2 2498  12.466   5.101  12.345
66889SOL     OW 2499   2.578  10.640   1.014
66889SOL    HW1 2500   2.668  10.665   1.033
66889SOL    HW2 2501   2.529  10.663   1.093
66890SOL     OW 2502  10.778   3.376   8.975
66890SOL    HW1 2503  10.763   3.370   9.070
66890SOL    HW2 2504  10.795   3.469   8.959
66891SOL     OW 2505   7.728   5.145   2.143
66891SOL    HW1 2506   7.650   5.195   2.170
66891SOL    HW2 2507   7.780   5.136   2.222
66892SOL     OW 2508   7.128   3.872  13.609
66892SOL    HW1 2509   7.039   3.838  13.615
66892SOL    HW2 2510   7.119   3.964  13.634
66893SOL     OW 2511   6.187  12.871   9.609
66893SOL    HW1 2512   6.220  12.872   9.519
66893SOL    HW2 2513   6.093  12.888   9.601
66894SOL     OW 2514   1.953  12.494   4.826
66894SOL    HW1 2515   1.986  12.493   4.736
66894SOL    HW2 2516   2.031  12.487   4.880
66895SOL     OW 2517  14.292  11.954   9.962
66895SOL    HW1 2518  14.325  11.889  10.025
66895SOL    HW2 2519  14.350  11.944   9.886
66896SOL     OW 2520   8.871  11.119   6.972
66896SOL    HW1 2521   8.835  11.051   7.029
66896SOL    HW2 2522   8.873  11.198   7.027
66897SOL     OW 2523   5.692   8.577  11.519
66897SOL    HW1 2524   5.653   8.661  11.495
66897SOL    HW2 2525   5.769   8.569  11.464
66898SOL     OW 2526   6.778  10.746   4.724
66898SOL    HW1 2527   6.718  10.706   4.787
66898SOL    HW2 2528   6.826  10.672   4.687
66899SOL     OW 2529   4.987  11.259  13.420
66899SOL    HW1 2530   4.915  11.251  13.357
66899SOL    HW2 2531   5.064  11.225  13.374
66900SOL     OW 2532   7.563   9.306  12.737
66900SOL    HW1 2533   7.587   9.236  12.798
66900SOL    HW2 2534   7.545   9.381  12.793
66901SOL     OW 2535   9.263  13.943   2.549
66901SOL    HW1 2536   9.207  13.882   2.597
66901SOL    HW2 2537   9.203  14.012   2.519
66902SOL     OW 2538  12.524  13.207  14.487
66902SOL    HW1 2539  12.572  13.160  14.555
66902SOL    HW2 2540  12.576  13.285  14.470
66903SOL     OW 2541   2.068   4.148   1.338
66903SOL    HW1 2542   2.097   4.194   1.259
66903SOL    HW2 2543   2.145   4.146   1.395
66904SOL     OW 2544   9.478   2.863   8.733
66904SOL    HW1 2545   9.458   2.917   8.809
66904SOL    HW2 2546   9.418   2.894   8.665
66905SOL     OW 2547  10.773  12.368   7.494
66905SOL    HW1 2548  10.774  12.364   7.398
66905SOL    HW2 2549  10.865  12.362   7.520
66906SOL     OW 2550   2.794  13.761   2.304
66906SOL    HW1 2551   2.837  13.719   2.379
66906SOL    HW2 2552   2.859  13.755   2.233
66907SOL     OW 2553   0.491   1.789   6.331
66907SOL    HW1 2554   0.523   1.824   6.414
66907SOL    HW2 2555   0.541   1.835   6.264
66908SOL     OW 2556  10.164   1.738  11.704
66908SOL    HW1 2557  10.126   1.811  11.753
66908SOL    HW2 2558  10.088   1.689  11.672
66909SOL     OW 2559   1.221   6.471   2.456
66909SOL    HW1 2560   1.275   6.534   2.504
66909SOL    HW2 2561   1.214   6.396   2.515
66910SOL     OW 2562  10.837  14.216  11.617
66910SOL    HW1 2563  10.924  14.223  11.578
66910SOL    HW2 2564  10.777  14.234  11.544
66911SOL     OW 2565   4.195  13.649  12.383
66911SOL    HW1 2566   4.178  13.709  12.310
66911SOL    HW2 2567   4.176  13.701  12.461
66912SOL     OW 2568   8.778  13.528   1.544
66912SOL    HW1 2569   8.716  13.527   1.472
66912SOL    HW2 2570   8.740  13.587   1.608
66913SOL     OW 2571  11.684   9.126   0.703
66913SOL    HW1 2572  11.745   9.178   0.755
66913SOL    HW2 2573  11.685   9.040   0.743
66914SOL     OW 2574  12.379   9.742   0.716
66914SOL    HW1 2575  12.324   9.821   0.712
66914SOL    HW2 2576  12.320   9.671   0.691
66915SOL     OW 2577  13.344   7.127   3.423
66915SOL    HW1 2578  13.255   7.123   3.458
66915SOL    HW2 2579  13.354   7.218   3.394
66916SOL     OW 2580  10.134  12.778  14.389
66916SOL    HW1 2581  10.149  12.868  14.359
66916SOL    HW2 2582  10.219  12.750  14.424
66917SOL     OW 2583   5.530  10.301   4.301
66917SOL    HW1 2584   5.588  10.370   4.268
66917SOL    HW2 2585   5.570  10.272   4.383
66918SOL     OW 2586   9.755   2.784   5.164
66918SOL    HW1 2587   9.843   2.823   5.163
66918SOL    HW2 2588   9.729   2.780   5.072
66919SOL     OW 2589  12.314  11.036  12.162
66919SOL    HW1 2590  12.281  10.946  12.167
66919SOL    HW2 2591  12.394  11.029  12.111
66920SOL     OW 2592  13.730   6.545   9.523
66920SOL    HW1 2593  13.674   6.517   9.450
66920SOL    HW2 2594  13.819   6.532   9.490
66921SOL     OW 2595   1.333   4.516   9.254
66921SOL    HW1 2596   1.254   4.562   9.224
66921SOL    HW2 2597   1.401   4.540   9.191
66922SOL     OW 2598   4.495  12.211   0.164
66922SOL    HW1 2599   4.533  12.277   0.106
66922SOL    HW2 2600   4.571  12.166   0.201
66923SOL     OW 2601  13.755   7.248   5.435
66923SOL    HW1 2602  13.700   7.196   5.494
66923SOL    HW2 2603  13.722   7.337   5.445
66924SOL     OW 2604  11.889   1.160  12.117
66924SOL    HW1 2605  11.956   1.160  12.050
66924SOL    HW2 2606  11.817   1.210  12.079
66925SOL     OW 2607  10.226   2.134   3.486
66925SOL    HW1 2608  10.305   2.084   3.468
66925SOL    HW2 2609  10.157   2.068   3.493
66926SOL     OW 2610   0.748   1.614   1.962
66926SOL    HW1 2611   0.767   1.688   2.019
66926SOL    HW2 2612   0.683   1.647   1.900
66927SOL     OW 2613   7.652   8.368   8.935
66927SOL    HW1 2614   7.596   8.317   8.993
66927SOL    HW2 2615   7.613   8.455   8.933
66928SOL     OW 2616   9.719  12.143   8.225
66928SOL    HW1 2617   9.756  12.214   8.173
66928SOL    HW2 2618   9.795  12.094   8.257
66929SOL     OW 2619   3.656   4.967  12.187
66929SOL    HW1 2620   3.617   5.034  12.132
66929SOL    HW2 2621   3.581   4.916  12.219
66930SOL     OW 2622  10.759   2.424  12.668
66930SOL    HW1 2623  10.702   2.352  12.642
66930SOL    HW2 2624  10.734   2.496  12.610
66931SOL     OW 2625   8.867  12.674   1.777
66931SOL    HW1 2626   8.939  12.687   1.715
66931SOL    HW2 2627   8.888  12.731   1.851
66932SOL     OW 2628   7.521  11.493  10.137
66932SOL    HW1 2629   7.608  11.531  10.144
66932SOL    HW2 2630   7.462  11.560  10.172
66933SOL     OW 2631   0.381  12.061  10.712
66933SOL    HW1 2632   0.470  12.092  10.729
66933SOL    HW2 2633   0.330  12.094  10.786
66934SOL     OW 2634   3.742   1.024   6.716
66934SOL    HW1 2635   3.752   0.930   6.734
66934SOL    HW2 2636   3.649   1.041   6.733
66935SOL     OW 2637   1.633   1.426   8.891
66935SOL    HW1 2638   1.690   1.501   8.876
66935SOL    HW2 2639   1.616   1.427   8.985
66936SOL     OW 2640   9.576   0.600   6.805
66936SOL    HW1 2641   9.569   0.607   6.710
66936SOL    HW2 2642   9.668   0.620   6.824
66937SOL     OW 2643   5.942   3.161   5.291
66937SOL    HW1 2644   5.858   3.195   5.261
66937SOL    HW2 2645   6.007   3.211   5.242
66938SOL     OW 2646  13.859   2.366  10.458
66938SOL    HW1 2647  13.799   2.428  10.499
66938SOL    HW2 2648  13.808   2.285  10.451
66939SOL     OW 2649   9.728   2.461   7.398
66939SOL    HW1 2650   9.737   2.406   7.476
66939SOL    HW2 2651   9.664   2.527   7.423
66940SOL     OW 2652   5.825   1.893   8.673
66940SOL    HW1 2653   5.752   1.918   8.729
66940SOL    HW2 2654   5.822   1.797   8.671
66941SOL     OW 2655   3.473   8.609  11.476
66941SOL    HW1 2656   3.418   8.647  11.407
66941SOL    HW2 2657   3.410   8.569  11.536
66942SOL     OW 2658   8.119  12.011   6.842
66942SOL    HW1 2659   8.109  11.923   6.805
66942SOL    HW2 2660   8.053  12.064   6.797
66943SOL     OW 2661  12.599   0.079  12.946
66943SOL    HW1 2662  12.687   0.063  12.910
66943SOL    HW2 2663  12.566   0.154  12.896
66944SOL     OW 2664   7.029   0.822  11.107
66944SOL    HW1 2665   7.033   0.786  11.195
66944SOL    HW2 2666   6.949   0.875  11.107
66945SOL     OW 2667   9.176   2.794  10.727
66945SOL    HW1 2668   9.262   2.791  10.684
66945SOL    HW2 2669   9.129   2.720  10.689
66946SOL     OW 2670   7.175   3.365   7.635
66946SOL    HW1 2671   7.252   3.318   7.603
66946SOL    HW2 2672   7.209   3.421   7.705
66947SOL     OW 2673  11.688   0.378   4.111
66947SOL    HW1 2674  11.596   0.402   4.124
66947SOL    HW2 2675  11.683   0.295   4.062
66948SOL     OW 2676  12.763   6.532   6.264
66948SOL    HW1 2677  12.842   6.482   6.285
66948SOL    HW2 2678  12.709   6.526   6.343
66949SOL     OW 2679  10.352   2.902   7.887
66949SOL    HW1 2680  10.434   2.938   7.853
66949SOL    HW2 2681  10.380   2.833   7.948
66950SOL     OW 2682   1.768   1.941   8.087
66950SOL    HW1 2683   1.673   1.948   8.078
66950SOL    HW2 2684   1.790   1.858   8.044
66951SOL     OW 2685   6.841   0.354   2.553
66951SOL    HW1 2686   6.848   0.262   2.579
66951SOL    HW2 2687   6.771   0.355   2.488
66952SOL     OW 2688  10.437   1.849   0.429
66952SOL    HW1 2689  10.344   1.837   0.452
66952SOL    HW2 2690  10.442   1.828   0.336
66953SOL     OW 2691  14.244   1.918   5.776
66953SOL    HW1 2692  14.294   1.865   5.714
66953SOL    HW2 2693  14.300   1.995   5.791
66954SOL     OW 2694  12.601  10.647   9.072
66954SOL    HW1 2695  12.619  10.715   9.007
66954SOL    HW2 2696  12.607  10.565   9.024
66955SOL     OW 2697   0.579   9.819  10.593
66955SOL    HW1 2698   0.626   9.737  10.578
66955SOL    HW2 2699   0.503   9.816  10.535
66956SOL     OW 2700  14.167  10.371  10.841
66956SOL    HW1 2701  14.162  10.422  10.760
66956SOL    HW2 2702  14.261  10.356  10.854
66957SOL     OW 2703   4.618  10.945  13.125
66957SOL    HW1 2704   4.599  10.940  13.032
66957SOL    HW2 2705   4.532  10.942  13.168
66958SOL     OW 2706   2.278   7.762  12.332
66958SOL    HW1 2707   2.215   7.815  12.381
66958SOL    HW2 2708   2.343   7.737  12.397
66959SOL     OW 2709   7.703   8.883  10.794
66959SOL    HW1 2710   7.644   8.832  10.849
66959SOL    HW2 2711   7.667   8.972  10.796
66960SOL     OW 2712   6.641   2.913   7.747
66960SOL    HW1 2713   6.602   2.988   7.704
66960SOL    HW2 2714   6.706   2.881   7.685
66961SOL     OW 2715  14.752   8.782  10.027
66961SOL    HW1 2716  14.662   8.815  10.033
66961SOL    HW2 2717  14.769   8.777   9.932
66962SOL     OW 2718   6.826   7.668  14.586
66962SOL    HW1 2719   6.868   7.738  14.536
66962SOL    HW2 2720   6.805   7.601  14.521
66963SOL     OW 2721   2.603  10.795   5.985
66963SOL    HW1 2722   2.583  10.703   5.967
66963SOL    HW2 2723   2.522  10.841   5.961
66964SOL     OW 2724  11.729   8.519   5.426
66964SOL    HW1 2725  11.780   8.483   5.353
66964SOL    HW2 2726  11.638   8.507   5.400
66965SOL     OW 2727  14.585   1.500   1.651
66965SOL    HW1 2728  14.549   1.430   1.596
66965SOL    HW2 2729  14.613   1.456   1.731
66966SOL     OW 2730  14.405   6.246   5.107
66966SOL    HW1 2731  14.494   6.212   5.119
66966SOL    HW2 2732  14.379   6.276   5.194
66967SOL     OW 2733   3.537  11.058  10.409
66967SOL    HW1 2734   3.465  11.007  10.372
66967SOL    HW2 2735   3.498  11.143  10.428
66968SOL     OW 2736  14.498   4.060   9.554
66968SOL    HW1 2737  14.508   4.134   9.613
66968SOL    HW2 2738  14.548   4.084   9.476
66969SOL     OW 2739   4.497   0.868   9.570
66969SOL    HW1 2740   4.466   0.882   9.480
66969SOL    HW2 2741   4.552   0.790   9.563
66970SOL     OW 2742   6.999   4.616   6.982
66970SOL    HW1 2743   7.055   4.586   6.910
66970SOL    HW2 2744   7.017   4.556   7.054
66971SOL     OW 2745  12.793   4.017   9.473
66971SOL    HW1 2746  12.742   3.955   9.524
66971SOL    HW2 2747  12.852   4.059   9.536
66972SOL     OW 2748   0.414  14.069  13.033
66972SOL    HW1 2749   0.369  14.003  12.980
66972SOL    HW2 2750   0.398  14.151  12.986
66973SOL     OW 2751   3.629   9.880   2.781
66973SOL    HW1 2752   3.586   9.870   2.866
66973SOL    HW2 2753   3.696   9.811   2.780
66974SOL     OW 2754   5.193   0.952   8.967
66974SOL    HW1 2755   5.192   0.860   8.993
66974SOL    HW2 2756   5.204   0.950   8.872
66975SOL     OW 2757  10.274   9.503   0.439
66975SOL    HW1 2758  10.204   9.538   0.493
66975SOL    HW2 2759  10.281   9.411   0.465
66976SOL     OW 2760  11.749  10.424  12.056
66976SOL    HW1 2761  11.696  10.442  11.979
66976SOL    HW2 2762  11.686  10.391  12.121
66977SOL     OW 2763  10.369  11.136   7.763
66977SOL    HW1 2764  10.448  11.171   7.802
66977SOL    HW2 2765  10.360  11.048   7.800
66978SOL     OW 2766  10.843   6.997  14.355
66978SOL    HW1 2767  10.854   7.080  14.308
66978SOL    HW2 2768  10.866   6.930  14.291
66979SOL     OW 2769   8.398   4.412   6.825
66979SOL    HW1 2770   8.367   4.434   6.737
66979SOL    HW2 2771   8.373   4.321   6.838
66980SOL     OW 2772   2.744   5.530  13.856
66980SOL    HW1 2773   2.768   5.605  13.911
66980SOL    HW2 2774   2.805   5.461  13.881
66981SOL     OW 2775   3.286  14.053   2.576
66981SOL    HW1 2776   3.321  14.109   2.507
66981SOL    HW2 2777   3.191  14.069   2.574
66982SOL     OW 2778   8.285  11.769  11.674
66982SOL    HW1 2779   8.260  11.786  11.583
66982SOL    HW2 2780   8.227  11.698  11.702
66983SOL     OW 2781  11.616   3.317  10.544
66983SOL    HW1 2782  11.649   3.406  10.540
66983SOL    HW2 2783  11.621   3.293  10.637
66984SOL     OW 2784  12.201  10.746   3.131
66984SOL    HW1 2785  12.215  10.788   3.046
66984SOL    HW2 2786  12.274  10.685   3.139
66985SOL     OW 2787   2.533   0.651  13.217
66985SOL    HW1 2788   2.612   0.688  13.256
66985SOL    HW2 2789   2.476   0.727  13.203
66986SOL     OW 2790   9.659   0.119   1.495
66986SOL    HW1 2791   9.581   0.151   1.449
66986SOL    HW2 2792   9.642   0.137   1.587
66987SOL     OW 2793   4.821  12.637   7.361
66987SOL    HW1 2794   4.743  12.683   7.392
66987SOL    HW2 2795   4.838  12.675   7.275
66988SOL     OW 2796   8.388   1.796   2.033
66988SOL    HW1 2797   8.427   1.877   1.999
66988SOL    HW2 2798   8.333   1.764   1.961
66989SOL     OW 2799   6.542   2.598  13.955
66989SOL    HW1 2800   6.509   2.609  14.044
66989SOL    HW2 2801   6.576   2.684  13.931
66990SOL     OW 2802  14.456   9.648  13.774
66990SOL    HW1 2803  14.514   9.572  13.775
66990SOL    HW2 2804  14.381   9.622  13.827
66991SOL     OW 2805   5.861   8.770   7.077
66991SOL    HW1 2806   5.877   8.841   7.016
66991SOL    HW2 2807   5.937   8.713   7.070
66992SOL     OW 2808   6.322  11.260   5.326
66992SOL    HW1 2809   6.284  11.253   5.413
66992SOL    HW2 2810   6.407  11.217   5.333
66993SOL     OW 2811   7.053   5.007  14.737
66993SOL    HW1 2812   7.087   5.035  14.652
66993SOL    HW2 2813   7.073   4.914  14.742
66994SOL     OW 2814  11.788   0.677   7.423
66994SOL    HW1 2815  11.849   0.735   7.380
66994SOL    HW2 2816  11.786   0.706   7.514
66995SOL     OW 2817   1.335   0.156   5.698
66995SOL    HW1 2818   1.248   0.195   5.710
66995SOL    HW2 2819   1.326   0.068   5.736
66996SOL     OW 2820   6.174  13.017   4.515
66996SOL    HW1 2821   6.209  13.098   4.479
66996SOL    HW2 2822   6.247  12.955   4.510
66997SOL     OW 2823   1.213   8.723   3.241
66997SOL    HW1 2824   1.234   8.798   3.296
66997SOL    HW2 2825   1.180   8.657   3.303
66998SOL     OW 2826  11.154   3.251   7.868
66998SOL    HW1 2827  11.181   3.266   7.777
66998SOL    HW2 2828  11.146   3.339   7.906
66999SOL     OW 2829  14.543   4.694   3.141
66999SOL    HW1 2830  14.548   4.758   3.211
66999SOL    HW2 2831  14.634   4.667   3.127
67000SOL     OW 2832   2.345   4.630   7.422
67000SOL    HW1 2833   2.272   4.645   7.482
67000SOL    HW2 2834   2.417   4.681   7.458
67001SOL     OW 2835  14.139   1.895   5.260
67001SOL    HW1 2836  14.143   1.966   5.197
67001SOL    HW2 2837  14.227   1.857   5.260
67002SOL     OW 2838   3.879   6.657  12.262
67002SOL    HW1 2839   3.814   6.587  12.257
67002SOL    HW2 2840   3.963   6.613  12.253
67003SOL     OW 2841   4.512  11.935   6.105
67003SOL    HW1 2842   4.559  12.001   6.157
67003SOL    HW2 2843   4.579  11.897   6.048
67004SOL     OW 2844   4.559   9.213  12.472
67004SOL    HW1 2845   4.601   9.272  12.410
67004SOL    HW2 2846   4.603   9.129  12.460
67005SOL     OW 2847   6.035   2.155  14.660
67005SOL    HW1 2848   6.008   2.107  14.739
67005SOL    HW2 2849   6.129   2.141  14.653
67006SOL     OW 2850  10.594  14.745   5.125
67006SOL    HW1 2851  10.604  14.698   5.042
67006SOL    HW2 2852  10.682  14.745   5.163
67007SOL     OW 2853   4.020   2.481  10.530
67007SOL    HW1 2854   3.966   2.437  10.464
67007SOL    HW2 2855   4.061   2.409  10.578
67008SOL     OW 2856   5.964  11.613   4.153
67008SOL    HW1 2857   5.982  11.695   4.107
67008SOL    HW2 2858   6.042  11.560   4.138
67009SOL     OW 2859   9.435   6.451   0.030
67009SOL    HW1 2860   9.425   6.522   0.092
67009SOL    HW2 2861   9.402   6.374   0.075
67010SOL     OW 2862  13.368   4.727   4.426
67010SOL    HW1 2863  13.293   4.774   4.463
67010SOL    HW2 2864  13.333   4.686   4.346
67011SOL     OW 2865  10.778   6.557   0.248
67011SOL    HW1 2866  10.798   6.651   0.243
67011SOL    HW2 2867  10.748   6.534   0.160
67012SOL     OW 2868   0.462  10.590  10.134
67012SOL    HW1 2869   0.446  10.598  10.228
67012SOL    HW2 2870   0.442  10.498  10.114
67013SOL     OW 2871   5.850   0.719  12.824
67013SOL    HW1 2872   5.946   0.722  12.826
67013SOL    HW2 2873   5.829   0.686  12.737
67014SOL     OW 2874   5.161   2.488  12.640
67014SOL    HW1 2875   5.178   2.400  12.674
67014SOL    HW2 2876   5.183   2.546  12.713
67015SOL     OW 2877   1.530   0.827  12.870
67015SOL    HW1 2878   1.534   0.819  12.774
67015SOL    HW2 2879   1.577   0.751  12.903
67016SOL     OW 2880   7.936   6.795   0.340
67016SOL    HW1 2881   7.903   6.873   0.296
67016SOL    HW2 2882   7.900   6.721   0.290
67017SOL     OW 2883  10.880   2.360   6.647
67017SOL    HW1 2884  10.873   2.274   6.604
67017SOL    HW2 2885  10.857   2.423   6.578
67018SOL     OW 2886  14.130  10.493  13.850
67018SOL    HW1 2887  14.160  10.406  13.875
67018SOL    HW2 2888  14.130  10.543  13.931
67019SOL     OW 2889   1.644   9.911   9.996
67019SOL    HW1 2890   1.672   9.819  10.001
67019SOL    HW2 2891   1.552   9.909  10.024
67020SOL     OW 2892   4.404   8.554   0.989
67020SOL    HW1 2893   4.359   8.552   0.905
67020SOL    HW2 2894   4.495   8.573   0.967
67021SOL     OW 2895   9.778  10.143   2.705
67021SOL    HW1 2896   9.851  10.116   2.649
67021SOL    HW2 2897   9.808  10.223   2.747
67022SOL     OW 2898   4.140   6.189  10.637
67022SOL    HW1 2899   4.172   6.271  10.599
67022SOL    HW2 2900   4.117   6.212  10.727
67023SOL     OW 2901   9.161  13.623   8.515
67023SOL    HW1 2902   9.159  13.598   8.607
67023SOL    HW2 2903   9.190  13.544   8.469
67024SOL     OW 2904   5.224   2.002  12.779
67024SOL    HW1 2905   5.263   1.954  12.705
67024SOL    HW2 2906   5.260   1.958  12.857
67025SOL     OW 2907   6.794   3.688   1.853
67025SOL    HW1 2908   6.821   3.717   1.940
67025SOL    HW2 2909   6.873   3.693   1.800
67026SOL     OW 2910  14.604   7.463  13.600
67026SOL    HW1 2911  14.585   7.369  13.599
67026SOL    HW2 2912  14.615   7.484  13.692
67027SOL     OW 2913   5.241   0.163  13.810
67027SOL    HW1 2914   5.331   0.132  13.810
67027SOL    HW2 2915   5.229   0.204  13.725
67028SOL     OW 2916   9.617   6.608   1.620
67028SOL    HW1 2917   9.563   6.659   1.561
67028SOL    HW2 2918   9.564   6.530   1.638
67029SOL     OW 2919   6.797  11.914   3.937
67029SOL    HW1 2920   6.749  11.924   4.019
67029SOL    HW2 2921   6.779  11.824   3.910
67030SOL     OW 2922   8.850   0.538   1.798
67030SOL    HW1 2923   8.862   0.512   1.707
67030SOL    HW2 2924   8.762   0.576   1.800
67031SOL     OW 2925  11.909   6.221   4.010
67031SOL    HW1 2926  11.885   6.214   3.918
67031SOL    HW2 2927  11.921   6.131   4.039
67032SOL     OW 2928   0.387   7.315  12.578
67032SOL    HW1 2929   0.332   7.384  12.615
67032SOL    HW2 2930   0.334   7.276  12.508
67033SOL     OW 2931  10.628   9.544  11.705
67033SOL    HW1 2932  10.567   9.485  11.660
67033SOL    HW2 2933  10.679   9.486  11.762
67034SOL     OW 2934  13.757   7.947  12.232
67034SOL    HW1 2935  13.841   7.988  12.255
67034SOL    HW2 2936  13.764   7.858  12.265
67035SOL     OW 2937  13.571   4.740   9.306
67035SOL    HW1 2938  13.507   4.786   9.252
67035SOL    HW2 2939  13.632   4.702   9.243
67036SOL     OW 2940   8.000   6.842  11.649
67036SOL    HW1 2941   8.091   6.835  11.622
67036SOL    HW2 2942   7.964   6.754  11.636
67037SOL     OW 2943   9.406   1.469   7.929
67037SOL    HW1 2944   9.419   1.398   7.866
67037SOL    HW2 2945   9.343   1.435   7.991
67038SOL     OW 2946  11.306   3.840   6.352
67038SOL    HW1 2947  11.309   3.935   6.343
67038SOL    HW2 2948  11.362   3.821   6.427
67039SOL     OW 2949  11.965  10.834  12.973
67039SOL    HW1 2950  11.958  10.834  13.069
67039SOL    HW2 2951  11.979  10.925  12.950
67040SOL     OW 2952   8.925   6.656   6.287
67040SOL    HW1 2953   8.878   6.725   6.241
67040SOL    HW2 2954   8.984   6.619   6.221
67041SOL     OW 2955  14.654   3.846   0.128
67041SOL    HW1 2956  14.612   3.845   0.214
67041SOL    HW2 2957  14.747   3.856   0.147
67042SOL     OW 2958   2.060   9.877  14.877
67042SOL    HW1 2959   2.039   9.885   0.091
67042SOL    HW2 2960   2.080   9.784  14.866
67043SOL     OW 2961   1.287   5.139  11.597
67043SOL    HW1 2962   1.270   5.146  11.691
67043SOL    HW2 2963   1.231   5.066  11.568
67044SOL     OW 2964  14.399   5.829   3.273
67044SOL    HW1 2965  14.373   5.767   3.342
67044SOL    HW2 2966  14.425   5.773   3.200
67045SOL     OW 2967   2.785   4.325  14.483
67045SOL    HW1 2968   2.707   4.276  14.508
67045SOL    HW2 2969   2.803   4.381  14.559
67046SOL     OW 2970   9.188   2.066   2.508
67046SOL    HW1 2971   9.249   2.082   2.436
67046SOL    HW2 2972   9.184   2.149   2.555
67047SOL     OW 2973   6.391  11.152  14.086
67047SOL    HW1 2974   6.316  11.118  14.136
67047SOL    HW2 2975   6.411  11.236  14.129
67048SOL     OW 2976   0.706  10.375   7.858
67048SOL    HW1 2977   0.773  10.310   7.840
67048SOL    HW2 2978   0.742  10.457   7.825
67049SOL     OW 2979   7.918   7.974   8.319
67049SOL    HW1 2980   7.881   8.059   8.295
67049SOL    HW2 2981   7.888   7.915   8.251
67050SOL     OW 2982   6.504   8.899  13.544
67050SOL    HW1 2983   6.436   8.918  13.479
67050SOL    HW2 2984   6.469   8.936  13.625
67051SOL     OW 2985   0.991   4.401   7.452
67051SOL    HW1 2986   0.980   4.404   7.357
67051SOL    HW2 2987   1.056   4.332   7.467
67052SOL     OW 2988   8.270   0.263   3.914
67052SOL    HW1 2989   8.295   0.171   3.907
67052SOL    HW2 2990   8.279   0.283   4.007
67053SOL     OW 2991  11.409   7.652  12.058
67053SOL    HW1 2992  11.411   7.705  11.979
67053SOL    HW2 2993  11.396   7.715  12.129
67054SOL     OW 2994   5.069   0.400   3.823
67054SOL    HW1 2995   5.158   0.413   3.790
67054SOL    HW2 2996   5.060   0.305   3.830
67055SOL     OW 2997   5.247   9.478   5.695
67055SOL    HW1 2998   5.237   9.431   5.777
67055SOL    HW2 2999   5.238   9.410   5.627
67056SOL     OW 3000   2.741  12.624   0.980
67056SOL    HW1 3001   2.809  12.636   0.915
67056SOL    HW2 3002   2.659  12.647   0.935
67057SOL     OW 3003  10.000   3.576  12.612
67057SOL    HW1 3004  10.072   3.632  12.642
67057SOL    HW2 3005   9.945   3.634  12.560
67058SOL     OW 3006   3.772  11.536   5.791
67058SOL    HW1 3007   3.781  11.457   5.738
67058SOL    HW2 3008   3.846  11.591   5.766
67059SOL     OW 3009   0.441   5.651  10.106
67059SOL    HW1 3010   0.418   5.690  10.191
67059SOL    HW2 3011   0.440   5.725  10.045
67060SOL     OW 3012   7.431   2.521   5.381
67060SOL    HW1 3013   7.461   2.431   5.386
67060SOL    HW2 3014   7.510   2.572   5.360
67061SOL     OW 3015   9.487   9.751   5.659
67061SOL    HW1 3016   9.520   9.661   5.662
67061SOL    HW2 3017   9.541   9.794   5.592
67062SOL     OW 3018   0.107   0.505   6.158
67062SOL    HW1 3019   0.076   0.595   6.171
67062SOL    HW2 3020   0.157   0.508   6.076
67063SOL     OW 3021   5.961  13.635   0.637
67063SOL    HW1 3022   6.043  13.675   0.607
67063SOL    HW2 3023   5.910  13.708   0.672
67064SOL     OW 3024   4.493   4.904  13.926
67064SOL    HW1 3025   4.568   4.916  13.867
67064SOL    HW2 3026   4.530   4.913  14.014
67065SOL     OW 3027  11.473   0.783   9.495
67065SOL    HW1 3028  11.551   0.733   9.520
67065SOL    HW2 3029  11.504   0.845   9.430
67066SOL     OW 3030   8.846   5.494  14.615
67066SOL    HW1 3031   8.758   5.529  14.617
67066SOL    HW2 3032   8.835   5.402  14.589
67067SOL     OW 3033  11.747  14.807  12.523
67067SOL    HW1 3034  11.752  14.871  12.452
67067SOL    HW2 3035  11.714  14.856  12.598
67068SOL     OW 3036   2.291   3.176   9.673
67068SOL    HW1 3037   2.370   3.124   9.684
67068SOL    HW2 3038   2.281   3.224   9.755
67069SOL     OW 3039  10.056   3.174   8.185
67069SOL    HW1 3040  10.071   3.094   8.235
67069SOL    HW2 3041  10.129   3.177   8.123
67070SOL     OW 3042   6.032  10.799  10.501
67070SOL    HW1 3043   6.076  10.842  10.427
67070SOL    HW2 3044   5.952  10.763  10.463
67071SOL     OW 3045   1.188   6.465   7.183
67071SOL    HW1 3046   1.255   6.460   7.251
67071SOL    HW2 3047   1.176   6.559   7.168
67072SOL     OW 3048  11.577   5.696  12.839
67072SOL    HW1 3049  11.652   5.648  12.874
67072SOL    HW2 3050  11.530   5.631  12.786
67073SOL     OW 3051   0.707   0.215   8.273
67073SOL    HW1 3052   0.736   0.227   8.183
67073SOL    HW2 3053   0.614   0.240   8.272
67074SOL     OW 3054  14.298   8.031   8.422
67074SOL    HW1 3055  14.244   8.019   8.500
67074SOL    HW2 3056  14.277   8.119   8.392
67075SOL     OW 3057   4.747   8.394   2.304
67075SOL    HW1 3058   4.682   8.345   2.253
67075SOL    HW2 3059   4.714   8.392   2.393
67076SOL     OW 3060   8.854  12.803   6.867
67076SOL    HW1 3061   8.798  12.881   6.880
67076SOL    HW2 3062   8.821  12.764   6.786
67077SOL     OW 3063  13.931   9.931  11.858
67077SOL    HW1 3064  13.928  10.024  11.838
67077SOL    HW2 3065  13.861   9.917  11.922
67078SOL     OW 3066   3.899   2.438   0.183
67078SOL    HW1 3067   3.910   2.530   0.160
67078SOL    HW2 3068   3.822   2.437   0.240
67079SOL     OW 3069   1.669  12.114  12.389
67079SOL    HW1 3070   1.630  12.181  12.334
67079SOL    HW2 3071   1.760  12.109  12.361
67080SOL     OW 3072  14.331   7.881   6.351
67080SOL    HW1 3073  14.364   7.841   6.270
67080SOL    HW2 3074  14.324   7.974   6.332
67081SOL     OW 3075   5.367   6.277   9.975
67081SOL    HW1 3076   5.293   6.216   9.973
67081SOL    HW2 3077   5.329   6.360  10.004
67082SOL     OW 3078   7.953   6.876  12.805
67082SOL    HW1 3079   7.954   6.964  12.766
67082SOL    HW2 3080   7.880   6.832  12.763
67083SOL     OW 3081   5.214   5.555   4.601
67083SOL    HW1 3082   5.301   5.541   4.563
67083SOL    HW2 3083   5.226   5.544   4.695
67084SOL     OW 3084  11.308   4.662   1.252
67084SOL    HW1 3085  11.305   4.574   1.291
67084SOL    HW2 3086  11.231   4.706   1.286
67085SOL     OW 3087   8.247   2.959  13.847
67085SOL    HW1 3088   8.336   2.938  13.877
67085SOL    HW2 3089   8.238   3.053  13.865
67086SOL     OW 3090   9.460  14.694   5.150
67086SOL    HW1 3091   9.426  14.611   5.182
67086SOL    HW2 3092   9.446  14.755   5.223
67087SOL     OW 3093   7.239   2.279   2.883
67087SOL    HW1 3094   7.283   2.204   2.923
67087SOL    HW2 3095   7.167   2.240   2.834
67088SOL     OW 3096   8.524   7.213   4.065
67088SOL    HW1 3097   8.570   7.291   4.033
67088SOL    HW2 3098   8.581   7.177   4.132
67089SOL     OW 3099   7.564   6.043   0.004
67089SOL    HW1 3100   7.623   6.110  14.849
67089SOL    HW2 3101   7.594   5.962  14.842
67090SOL     OW 3102   3.100   2.947  11.653
67090SOL    HW1 3103   3.163   2.875  11.651
67090SOL    HW2 3104   3.104   2.985  11.565
67091SOL     OW 3105   5.341   2.626  10.201
67091SOL    HW1 3106   5.371   2.550  10.152
67091SOL    HW2 3107   5.337   2.697  10.137
67092SOL     OW 3108   0.907   0.374   6.773
67092SOL    HW1 3109   0.896   0.329   6.690
67092SOL    HW2 3110   0.996   0.354   6.800
67093SOL     OW 3111  10.233   0.254  13.783
67093SOL    HW1 3112  10.249   0.309  13.859
67093SOL    HW2 3113  10.285   0.175  13.799
67094SOL     OW 3114   4.056   2.644  10.981
67094SOL    HW1 3115   4.134   2.610  11.025
67094SOL    HW2 3116   3.984   2.596  11.021
67095SOL     OW 3117  13.307  13.817   8.653
67095SOL    HW1 3118  13.353  13.876   8.713
67095SOL    HW2 3119  13.223  13.801   8.694
67096SOL     OW 3120  12.048  13.750   0.353
67096SOL    HW1 3121  12.049  13.800   0.435
67096SOL    HW2 3122  11.981  13.793   0.300
67097SOL     OW 3123   2.421   6.163   8.858
67097SOL    HW1 3124   2.408   6.167   8.763
67097SOL    HW2 3125   2.360   6.227   8.894
67098SOL     OW 3126   3.356   7.584   9.620
67098SOL    HW1 3127   3.432   7.643   9.615
67098SOL    HW2 3128   3.309   7.599   9.538
67099SOL     OW 3129  12.210   6.798   9.041
67099SOL    HW1 3130  12.208   6.734   8.969
67099SOL    HW2 3131  12.141   6.861   9.020
67100SOL     OW 3132   6.256   7.819  12.484
67100SOL    HW1 3133   6.214   7.905  12.472
67100SOL    HW2 3134   6.185   7.756  12.472
67101SOL     OW 3135   2.436   2.029   3.015
67101SOL    HW1 3136   2.378   2.031   2.939
67101SOL    HW2 3137   2.411   1.949   3.062
67102SOL     OW 3138   1.237   1.798  12.732
67102SOL    HW1 3139   1.165   1.840  12.781
67102SOL    HW2 3140   1.283   1.746  12.797
67103SOL     OW 3141   5.276   8.450   0.229
67103SOL    HW1 3142   5.359   8.404   0.241
67103SOL    HW2 3143   5.230   8.438   0.311
67104SOL     OW 3144  14.336   5.728  10.789
67104SOL    HW1 3145  14.244   5.723  10.817
67104SOL    HW2 3146  14.381   5.663  10.843
67105SOL     OW 3147  13.110   7.778  12.319
67105SOL    HW1 3148  13.104   7.754  12.227
67105SOL    HW2 3149  13.111   7.694  12.365
67106SOL     OW 3150   0.707   3.605   6.573
67106SOL    HW1 3151   0.793   3.562   6.570
67106SOL    HW2 3152   0.714   3.677   6.511
67107SOL     OW 3153  12.660  10.581   3.824
67107SOL    HW1 3154  12.657  10.567   3.918
67107SOL    HW2 3155  12.585  10.637   3.805
67108SOL     OW 3156   9.913   5.360   9.643
67108SOL    HW1 3157   9.966   5.280   9.633
67108SOL    HW2 3158   9.837   5.345   9.585
67109SOL     OW 3159   3.139  12.501  10.465
67109SOL    HW1 3160   3.161  12.482  10.556
67109SOL    HW2 3161   3.043  12.500  10.463
67110SOL     OW 3162   0.007   8.895   6.337
67110SOL    HW1 3163   0.059   8.973   6.318
67110SOL    HW2 3164   0.010   8.887   6.432
67111SOL     OW 3165   1.391  10.029  12.855
67111SOL    HW1 3166   1.308   9.987  12.831
67111SOL    HW2 3167   1.368  10.121  12.867
67112SOL     OW 3168   1.816   3.676  13.053
67112SOL    HW1 3169   1.729   3.655  13.019
67112SOL    HW2 3170   1.807   3.763  13.092
67113SOL     OW 3171   6.652  10.783  13.587
67113SOL    HW1 3172   6.590  10.851  13.613
67113SOL    HW2 3173   6.737  10.826  13.589
67114SOL     OW 3174   9.081  10.408  13.490
67114SOL    HW1 3175   9.155  10.448  13.444
67114SOL    HW2 3176   9.120  10.346  13.551
67115SOL     OW 3177   9.167   6.659  11.975
67115SOL    HW1 3178   9.263   6.660  11.971
67115SOL    HW2 3179   9.146   6.718  12.048
67116SOL     OW 3180   6.695   1.962   1.745
67116SOL    HW1 3181   6.651   2.025   1.688
67116SOL    HW2 3182   6.788   1.983   1.736
67117SOL     OW 3183   6.905   2.094   3.310
67117SOL    HW1 3184   6.899   2.007   3.350
67117SOL    HW2 3185   6.999   2.113   3.306
67118SOL     OW 3186   8.779   4.313   3.384
67118SOL    HW1 3187   8.686   4.326   3.404
67118SOL    HW2 3188   8.825   4.352   3.459
67119SOL     OW 3189   4.733  14.538   9.271
67119SOL    HW1 3190   4.705  14.602   9.336
67119SOL    HW2 3191   4.783  14.473   9.321
67120SOL     OW 3192   3.387   1.190   6.172
67120SOL    HW1 3193   3.444   1.242   6.228
67120SOL    HW2 3194   3.327   1.146   6.232
67121SOL     OW 3195   7.027   2.309   8.928
67121SOL    HW1 3196   6.955   2.273   8.877
67121SOL    HW2 3197   6.991   2.389   8.967
67122SOL     OW 3198   8.714  13.383   8.652
67122SOL    HW1 3199   8.641  13.439   8.677
67122SOL    HW2 3200   8.698  13.301   8.697
67123SOL     OW 3201  11.340   0.254   0.167
67123SOL    HW1 3202  11.280   0.203   0.222
67123SOL    HW2 3203  11.283   0.316   0.120
67124SOL     OW 3204  11.550   6.820   1.026
67124SOL    HW1 3205  11.598   6.843   0.946
67124SOL    HW2 3206  11.526   6.905   1.064
67125SOL     OW 3207   8.508   9.549  14.040
67125SOL    HW1 3208   8.428   9.500  14.018
67125SOL    HW2 3209   8.564   9.485  14.084
67126SOL     OW 3210   7.807   0.050   2.196
67126SOL    HW1 3211   7.853  14.874   2.132
67126SOL    HW2 3212   7.743  14.870   2.237
67127SOL     OW 3213   3.905   4.145  14.186
67127SOL    HW1 3214   3.815   4.171  14.165
67127SOL    HW2 3215   3.895   4.075  14.251
67128SOL     OW 3216  12.744   7.456  13.983
67128SOL    HW1 3217  12.704   7.523  14.038
67128SOL    HW2 3218  12.810   7.503  13.932
67129SOL     OW 3219   8.257   1.425  11.268
67129SOL    HW1 3220   8.337   1.375  11.252
67129SOL    HW2 3221   8.189   1.377  11.221
67130SOL     OW 3222   8.289   2.158   3.947
67130SOL    HW1 3223   8.198   2.187   3.946
67130SOL    HW2 3224   8.323   2.184   3.861
67131SOL     OW 3225   4.537  13.166  10.954
67131SOL    HW1 3226   4.477  13.200  10.888
67131SOL    HW2 3227   4.591  13.241  10.979
67132SOL     OW 3228   8.251   7.396   8.929
67132SOL    HW1 3229   8.201   7.330   8.978
67132SOL    HW2 3230   8.243   7.369   8.838
67133SOL     OW 3231   7.873   7.772   3.047
67133SOL    HW1 3232   7.838   7.827   2.976
67133SOL    HW2 3233   7.796   7.752   3.101
67134SOL     OW 3234   9.314   4.359   1.128
67134SOL    HW1 3235   9.303   4.319   1.041
67134SOL    HW2 3236   9.396   4.408   1.121
67135SOL     OW 3237   0.995   9.825   3.713
67135SOL    HW1 3238   1.083   9.795   3.692
67135SOL    HW2 3239   1.008   9.906   3.763
67136SOL     OW 3240   9.387   5.169  13.934
67136SOL    HW1 3241   9.401   5.242  13.874
67136SOL    HW2 3242   9.456   5.179  14.000
67137SOL     OW 3243   6.505   4.678  13.761
67137SOL    HW1 3244   6.593   4.639  13.767
67137SOL    HW2 3245   6.499   4.710  13.671
67138SOL     OW 3246   8.037  13.825  13.434
67138SOL    HW1 3247   7.959  13.772  13.448
67138SOL    HW2 3248   8.033  13.848  13.341
67139SOL     OW 3249   7.532  11.581  10.435
67139SOL    HW1 3250   7.463  11.563  10.499
67139SOL    HW2 3251   7.572  11.496  10.418
67140SOL     OW 3252   2.106   3.559   0.161
67140SOL    HW1 3253   2.081   3.599   0.245
67140SOL    HW2 3254   2.028   3.510   0.134
67141SOL     OW 3255   1.755   7.165   6.730
67141SOL    HW1 3256   1.820   7.108   6.689
67141SOL    HW2 3257   1.746   7.132   6.819
67142SOL     OW 3258   8.623   3.312   8.337
67142SOL    HW1 3259   8.620   3.404   8.363
67142SOL    HW2 3260   8.553   3.303   8.271
67143SOL     OW 3261  13.772   0.749  14.735
67143SOL    HW1 3262  13.750   0.816  14.799
67143SOL    HW2 3263  13.688   0.720  14.699
67144SOL     OW 3264  10.191   5.118   6.180
67144SOL    HW1 3265  10.170   5.045   6.121
67144SOL    HW2 3266  10.263   5.164   6.137
67145SOL     OW 3267   0.370  10.147   1.533
67145SOL    HW1 3268   0.348  10.065   1.577
67145SOL    HW2 3269   0.412  10.200   1.601
67146SOL     OW 3270  10.005   7.783  12.253
67146SOL    HW1 3271   9.966   7.753  12.171
67146SOL    HW2 3272  10.061   7.710  12.281
67147SOL     OW 3273   6.576   6.649   9.305
67147SOL    HW1 3274   6.486   6.665   9.332
67147SOL    HW2 3275   6.621   6.620   9.384
67148SOL     OW 3276  13.340   3.972  11.300
67148SOL    HW1 3277  13.268   4.025  11.335
67148SOL    HW2 3278  13.417   4.028  11.307
67149SOL     OW 3279   4.087   8.773   7.430
67149SOL    HW1 3280   4.016   8.714   7.405
67149SOL    HW2 3281   4.157   8.753   7.367
67150SOL     OW 3282   6.237   7.235   3.045
67150SOL    HW1 3283   6.224   7.183   2.966
67150SOL    HW2 3284   6.330   7.261   3.041
67151SOL     OW 3285   6.104   4.563  10.234
67151SOL    HW1 3286   6.122   4.505  10.308
67151SOL    HW2 3287   6.013   4.590  10.247
67152SOL     OW 3288  14.205   3.500   8.211
67152SOL    HW1 3289  14.202   3.539   8.124
67152SOL    HW2 3290  14.127   3.533   8.255
67153SOL     OW 3291   3.350  11.002   6.561
67153SOL    HW1 3292   3.432  10.955   6.574
67153SOL    HW2 3293   3.354  11.076   6.621
67154SOL     OW 3294  13.623   4.229   2.445
67154SOL    HW1 3295  13.666   4.220   2.360
67154SOL    HW2 3296  13.562   4.155   2.449
67155SOL     OW 3297  11.436  13.016   1.876
67155SOL    HW1 3298  11.436  13.005   1.971
67155SOL    HW2 3299  11.354  12.977   1.846
67156SOL     OW 3300  12.663   2.484  12.406
67156SOL    HW1 3301  12.743   2.444  12.439
67156SOL    HW2 3302  12.664   2.466  12.312
67157SOL     OW 3303  11.335   9.295   8.738
67157SOL    HW1 3304  11.402   9.259   8.797
67157SOL    HW2 3305  11.253   9.284   8.786
67158SOL     OW 3306   0.909  11.184  13.287
67158SOL    HW1 3307   0.855  11.112  13.319
67158SOL    HW2 3308   0.978  11.193  13.353
67159SOL     OW 3309   2.629   4.710   6.828
67159SOL    HW1 3310   2.715   4.672   6.815
67159SOL    HW2 3311   2.588   4.708   6.741
67160SOL     OW 3312  14.403  11.665  14.072
67160SOL    HW1 3313  14.317  11.688  14.107
67160SOL    HW2 3314  14.446  11.617  14.142
67161SOL     OW 3315   6.226   9.754   0.264
67161SOL    HW1 3316   6.144   9.757   0.215
67161SOL    HW2 3317   6.274   9.681   0.226
67162SOL     OW 3318   6.736   0.949   6.812
67162SOL    HW1 3319   6.783   0.974   6.732
67162SOL    HW2 3320   6.653   0.912   6.781
67163SOL     OW 3321   7.869  11.749   9.876
67163SOL    HW1 3322   7.894  11.724   9.787
67163SOL    HW2 3323   7.948  11.785   9.914
67164SOL     OW 3324   2.865   4.535  10.631
67164SOL    HW1 3325   2.808   4.461  10.613
67164SOL    HW2 3326   2.812   4.612  10.610
67165SOL     OW 3327   4.851   2.080  12.654
67165SOL    HW1 3328   4.834   2.021  12.728
67165SOL    HW2 3329   4.860   2.021  12.578
67166SOL     OW 3330  12.533   6.503   0.305
67166SOL    HW1 3331  12.549   6.480   0.397
67166SOL    HW2 3332  12.578   6.435   0.255
67167SOL     OW 3333  11.929   9.663  11.281
67167SOL    HW1 3334  11.988   9.738  11.285
67167SOL    HW2 3335  11.965   9.608  11.211
67168SOL     OW 3336   8.975   5.010   3.743
67168SOL    HW1 3337   8.884   5.018   3.770
67168SOL    HW2 3338   8.987   5.080   3.679
67169SOL     OW 3339   2.059  10.146   2.487
67169SOL    HW1 3340   2.023  10.169   2.401
67169SOL    HW2 3341   1.993  10.176   2.549
67170SOL     OW 3342   8.312  14.796  12.126
67170SOL    HW1 3343   8.235  14.848  12.151
67170SOL    HW2 3344   8.328  14.819  12.034
67171SOL     OW 3345   8.643   4.939   1.608
67171SOL    HW1 3346   8.558   4.960   1.570
67171SOL    HW2 3347   8.642   4.844   1.621
67172SOL     OW 3348   2.660   9.372  12.654
67172SOL    HW1 3349   2.744   9.413  12.634
67172SOL    HW2 3350   2.637   9.405  12.741
67173SOL     OW 3351  11.295   7.462  11.466
67173SOL    HW1 3352  11.314   7.474  11.559
67173SOL    HW2 3353  11.281   7.367  11.457
67174SOL     OW 3354   7.700   6.866  14.406
67174SOL    HW1 3355   7.788   6.829  14.412
67174SOL    HW2 3356   7.652   6.806  14.350
67175SOL     OW 3357   1.530   8.248  10.149
67175SOL    HW1 3358   1.443   8.211  10.168
67175SOL    HW2 3359   1.583   8.225  10.225
67176SOL     OW 3360  11.374   0.455  14.619
67176SOL    HW1 3361  11.438   0.461  14.548
67176SOL    HW2 3362  11.326   0.537  14.615
67177SOL     OW 3363   8.768   0.994   6.751
67177SOL    HW1 3364   8.706   0.968   6.683
67177SOL    HW2 3365   8.798   1.081   6.725
67178SOL     OW 3366   8.938   6.553  10.023
67178SOL    HW1 3367   8.963   6.462  10.035
67178SOL    HW2 3368   8.848   6.550   9.993
67179SOL     OW 3369  11.656   3.412   0.987
67179SOL    HW1 3370  11.562   3.425   1.000
67179SOL    HW2 3371  11.665   3.321   0.960
67180SOL     OW 3372   6.828  10.771  10.433
67180SOL    HW1 3373   6.895  10.810  10.376
67180SOL    HW2 3374   6.805  10.689  10.389
67181SOL     OW 3375  12.920  11.081   5.476
67181SOL    HW1 3376  12.927  11.177   5.472
67181SOL    HW2 3377  12.871  11.064   5.556
67182SOL     OW 3378   2.157   6.580  10.456
67182SOL    HW1 3379   2.082   6.601  10.401
67182SOL    HW2 3380   2.211   6.659  10.455
67183SOL     OW 3381   2.963   0.796  12.210
67183SOL    HW1 3382   3.031   0.747  12.165
67183SOL    HW2 3383   2.891   0.733  12.222
67184SOL     OW 3384   3.565   0.781   7.657
67184SOL    HW1 3385   3.654   0.751   7.676
67184SOL    HW2 3386   3.508   0.716   7.696
67185SOL     OW 3387  13.238   8.775   1.515
67185SOL    HW1 3388  13.207   8.685   1.505
67185SOL    HW2 3389  13.331   8.766   1.535
67186SOL     OW 3390   2.647  14.096   8.990
67186SOL    HW1 3391   2.593  14.030   9.036
67186SOL    HW2 3392   2.586  14.166   8.969
67187SOL     OW 3393   6.650  13.773   4.014
67187SOL    HW1 3394   6.672  13.693   3.966
67187SOL    HW2 3395   6.583  13.744   4.077
67188SOL     OW 3396   9.346  14.796  12.911
67188SOL    HW1 3397   9.412  14.787  12.842
67188SOL    HW2 3398   9.263  14.785  12.866
67189SOL     OW 3399   6.811   5.268   4.355
67189SOL    HW1 3400   6.720   5.295   4.345
67189SOL    HW2 3401   6.809   5.201   4.423
67190SOL     OW 3402   2.698  13.592   1.058
67190SOL    HW1 3403   2.719  13.503   1.028
67190SOL    HW2 3404   2.781  13.626   1.091
67191SOL     OW 3405  11.161  14.307   9.693
67191SOL    HW1 3406  11.196  14.287   9.607
67191SOL    HW2 3407  11.237  14.332   9.745
67192SOL     OW 3408  13.985   3.304   5.201
67192SOL    HW1 3409  14.066   3.265   5.233
67192SOL    HW2 3410  13.953   3.241   5.136
67193SOL     OW 3411  13.139   7.079  11.115
67193SOL    HW1 3412  13.123   7.160  11.164
67193SOL    HW2 3413  13.175   7.018  11.179
67194SOL     OW 3414   8.061  11.300   6.278
67194SOL    HW1 3415   8.126  11.234   6.303
67194SOL    HW2 3416   8.112  11.374   6.248
67195SOL     OW 3417   1.232  11.367   4.241
67195SOL    HW1 3418   1.230  11.338   4.150
67195SOL    HW2 3419   1.325  11.360   4.266
67196SOL     OW 3420  13.130  13.552   7.962
67196SOL    HW1 3421  13.200  13.573   7.901
67196SOL    HW2 3422  13.051  13.546   7.908
67197SOL     OW 3423  13.796   9.852   8.716
67197SOL    HW1 3424  13.872   9.899   8.750
67197SOL    HW2 3425  13.832   9.771   8.680
67198SOL     OW 3426  12.293   8.298  11.540
67198SOL    HW1 3427  12.312   8.391  11.552
67198SOL    HW2 3428  12.365   8.266  11.485
67199SOL     OW 3429   6.663   4.766   0.923
67199SOL    HW1 3430   6.663   4.682   0.877
67199SOL    HW2 3431   6.582   4.809   0.894
67200SOL     OW 3432   6.372   4.735   9.742
67200SOL    HW1 3433   6.404   4.664   9.797
67200SOL    HW2 3434   6.299   4.773   9.792
67201SOL     OW 3435   6.220  10.170  10.321
67201SOL    HW1 3436   6.162  10.106  10.364
67201SOL    HW2 3437   6.216  10.147  10.228
67202SOL     OW 3438   4.576   1.928  12.672
67202SOL    HW1 3439   4.642   1.942  12.740
67202SOL    HW2 3440   4.602   1.846  12.631
67203SOL     OW 3441   5.332   0.514  11.566
67203SOL    HW1 3442   5.347   0.426  11.530
67203SOL    HW2 3443   5.349   0.573  11.493
67204SOL     OW 3444  12.850   3.153   4.213
67204SOL    HW1 3445  12.904   3.232   4.211
67204SOL    HW2 3446  12.901   3.088   4.164
67205SOL     OW 3447  14.514  12.153   4.226
67205SOL    HW1 3448  14.459  12.108   4.163
67205SOL    HW2 3449  14.452  12.190   4.290
67206SOL     OW 3450   0.983   9.799   1.999
67206SOL    HW1 3451   0.965   9.714   1.959
67206SOL    HW2 3452   0.987   9.859   1.924
67207SOL     OW 3453   1.962   7.752  12.193
67207SOL    HW1 3454   1.880   7.704  12.204
67207SOL    HW2 3455   1.975   7.796  12.277
67208SOL     OW 3456   4.165  13.190   1.399
67208SOL    HW1 3457   4.116  13.225   1.473
67208SOL    HW2 3458   4.146  13.250   1.327
67209SOL     OW 3459   8.949  11.421  11.235
67209SOL    HW1 3460   8.865  11.411  11.191
67209SOL    HW2 3461   8.927  11.428  11.328
67210SOL     OW 3462   1.570  10.657   0.648
67210SOL    HW1 3463   1.637  10.683   0.711
67210SOL    HW2 3464   1.488  10.687   0.686
67211SOL     OW 3465   9.980   2.974   7.648
67211SOL    HW1 3466   9.968   2.880   7.636
67211SOL    HW2 3467  10.009   2.984   7.739
67212SOL     OW 3468   0.036  12.369   3.282
67212SOL    HW1 3469   0.026  12.280   3.247
67212SOL    HW2 3470  14.850  12.376   3.351
67213SOL     OW 3471   6.678   7.208   3.218
67213SOL    HW1 3472   6.740   7.154   3.267
67213SOL    HW2 3473   6.596   7.202   3.267
67214SOL     OW 3474   2.036   4.963   0.673
67214SOL    HW1 3475   2.000   5.047   0.702
67214SOL    HW2 3476   1.965   4.922   0.624
67215SOL     OW 3477   0.163   9.067   3.232
67215SOL    HW1 3478   0.172   8.973   3.215
67215SOL    HW2 3479   0.101   9.097   3.167
67216SOL     OW 3480  13.587  11.195  11.797
67216SOL    HW1 3481  13.539  11.212  11.877
67216SOL    HW2 3482  13.557  11.262  11.736
67217SOL     OW 3483  14.555  13.394   3.785
67217SOL    HW1 3484  14.610  13.318   3.769
67217SOL    HW2 3485  14.615  13.464   3.809
67218SOL     OW 3486   4.166  11.318   8.809
67218SOL    HW1 3487   4.103  11.278   8.869
67218SOL    HW2 3488   4.232  11.250   8.796
67219SOL     OW 3489  14.693  12.964   4.190
67219SOL    HW1 3490  14.727  13.044   4.152
67219SOL    HW2 3491  14.739  12.894   4.144
67220SOL     OW 3492   7.264   7.794   9.195
67220SOL    HW1 3493   7.226   7.804   9.107
67220SOL    HW2 3494   7.200   7.741   9.243
67221SOL     OW 3495  12.169   3.820   8.884
67221SOL    HW1 3496  12.086   3.867   8.883
67221SOL    HW2 3497  12.206   3.839   8.971
67222SOL     OW 3498   5.271  12.040  14.531
67222SOL    HW1 3499   5.252  11.986  14.455
67222SOL    HW2 3500   5.192  12.092  14.544
67223SOL     OW 3501  10.372   6.749   8.877
67223SOL    HW1 3502  10.413   6.662   8.882
67223SOL    HW2 3503  10.353   6.771   8.968
67224SOL     OW 3504   8.156   1.511   1.819
67224SOL    HW1 3505   8.203   1.593   1.836
67224SOL    HW2 3506   8.172   1.493   1.726
67225SOL     OW 3507  12.390   2.531   8.117
67225SOL    HW1 3508  12.457   2.520   8.185
67225SOL    HW2 3509  12.331   2.598   8.152
67226SOL     OW 3510  11.702   7.814  14.520
67226SOL    HW1 3511  11.796   7.809  14.537
67226SOL    HW2 3512  11.688   7.760  14.443
67227SOL     OW 3513   2.972  12.559  10.864
67227SOL    HW1 3514   2.956  12.491  10.798
67227SOL    HW2 3515   3.032  12.518  10.926
67228SOL     OW 3516   6.561   1.515  10.373
67228SOL    HW1 3517   6.570   1.583  10.306
67228SOL    HW2 3518   6.645   1.516  10.419
67229SOL     OW 3519   9.165   4.785   4.304
67229SOL    HW1 3520   9.195   4.811   4.217
67229SOL    HW2 3521   9.246   4.773   4.354
67230SOL     OW 3522   4.120  10.941   7.430
67230SOL    HW1 3523   4.185  10.889   7.383
67230SOL    HW2 3524   4.038  10.923   7.384
67231SOL     OW 3525  12.580   3.591   9.120
67231SOL    HW1 3526  12.630   3.665   9.154
67231SOL    HW2 3527  12.605   3.517   9.176
67232SOL     OW 3528  10.905   5.439   9.826
67232SOL    HW1 3529  11.000   5.453   9.826
67232SOL    HW2 3530  10.894   5.346   9.805
67233SOL     OW 3531   1.906  10.620  13.053
67233SOL    HW1 3532   1.982  10.562  13.062
67233SOL    HW2 3533   1.840  10.566  13.008
67234SOL     OW 3534  11.081  10.768  11.493
67234SOL    HW1 3535  11.068  10.680  11.458
67234SOL    HW2 3536  11.009  10.819  11.457
67235SOL     OW 3537   8.947  12.855   1.989
67235SOL    HW1 3538   8.981  12.854   2.078
67235SOL    HW2 3539   8.853  12.865   1.999
67236SOL     OW 3540   0.038   7.802  11.229
67236SOL    HW1 3541   0.119   7.851  11.214
67236SOL    HW2 3542   0.015   7.822  11.320
67237SOL     OW 3543   2.533  10.709  11.055
67237SOL    HW1 3544   2.446  10.747  11.040
67237SOL    HW2 3545   2.522  10.655  11.133
67238SOL     OW 3546   0.810   6.963   8.115
67238SOL    HW1 3547   0.884   6.944   8.057
67238SOL    HW2 3548   0.838   7.039   8.166
67239SOL     OW 3549  10.156  13.859  13.275
67239SOL    HW1 3550  10.086  13.919  13.250
67239SOL    HW2 3551  10.234  13.893  13.230
67240SOL     OW 3552   2.683   4.032   4.762
67240SOL    HW1 3553   2.725   3.951   4.732
67240SOL    HW2 3554   2.615   4.002   4.823
67241SOL     OW 3555   1.981   4.459   6.633
67241SOL    HW1 3556   2.070   4.490   6.621
67241SOL    HW2 3557   1.935   4.532   6.674
67242SOL     OW 3558  13.562   0.064   4.012
67242SOL    HW1 3559  13.506  14.873   4.046
67242SOL    HW2 3560  13.571   0.125   4.086
67243SOL     OW 3561   1.857   5.680  10.596
67243SOL    HW1 3562   1.854   5.697  10.502
67243SOL    HW2 3563   1.766   5.687  10.625
67244SOL     OW 3564   8.551   5.965   9.630
67244SOL    HW1 3565   8.592   5.879   9.635
67244SOL    HW2 3566   8.620   6.023   9.599
67245SOL     OW 3567   5.391   2.922  14.650
67245SOL    HW1 3568   5.477   2.903  14.687
67245SOL    HW2 3569   5.330   2.893  14.718
67246SOL     OW 3570   9.990   8.815   3.136
67246SOL    HW1 3571  10.060   8.870   3.100
67246SOL    HW2 3572  10.002   8.730   3.094
67247SOL     OW 3573  10.142  14.662   5.377
67247SOL    HW1 3574  10.049  14.637   5.371
67247SOL    HW2 3575  10.168  14.679   5.286
67248SOL     OW 3576  11.805   0.344   0.777
67248SOL    HW1 3577  11.883   0.296   0.747
67248SOL    HW2 3578  11.813   0.430   0.737
67249SOL     OW 3579   9.416   1.073   8.286
67249SOL    HW1 3580   9.350   1.040   8.348
67249SOL    HW2 3581   9.446   0.994   8.240
67250SOL     OW 3582  13.858   8.620   8.709
67250SOL    HW1 3583  13.865   8.524   8.706
67250SOL    HW2 3584  13.895   8.649   8.626
67251SOL     OW 3585   1.815   0.478  11.038
67251SOL    HW1 3586   1.894   0.513  10.997
67251SOL    HW2 3587   1.749   0.546  11.026
67252SOL     OW 3588   7.181   5.518   3.353
67252SOL    HW1 3589   7.241   5.445   3.340
67252SOL    HW2 3590   7.207   5.557   3.436
67253SOL     OW 3591   4.338   7.077  14.163
67253SOL    HW1 3592   4.348   7.161  14.208
67253SOL    HW2 3593   4.252   7.045  14.191
67254SOL     OW 3594   5.103  10.250   2.684
67254SOL    HW1 3595   5.016  10.274   2.714
67254SOL    HW2 3596   5.094  10.242   2.589
67255SOL     OW 3597  13.911   7.406   0.694
67255SOL    HW1 3598  13.940   7.354   0.619
67255SOL    HW2 3599  13.988   7.457   0.719
67256SOL     OW 3600  12.774   4.130   4.898
67256SOL    HW1 3601  12.683   4.112   4.875
67256SOL    HW2 3602  12.823   4.117   4.817
67257SOL     OW 3603  10.851   5.911   8.890
67257SOL    HW1 3604  10.837   5.993   8.936
67257SOL    HW2 3605  10.780   5.853   8.921
67258SOL     OW 3606   5.215  10.377  11.912
67258SOL    HW1 3607   5.144  10.342  11.858
67258SOL    HW2 3608   5.225  10.467  11.882
67259SOL     OW 3609   6.410   4.742  14.682
67259SOL    HW1 3610   6.340   4.791  14.639
67259SOL    HW2 3611   6.369   4.705  14.760
67260SOL     OW 3612   5.620   1.153  13.725
67260SOL    HW1 3613   5.573   1.236  13.739
67260SOL    HW2 3614   5.701   1.163  13.775
67261SOL     OW 3615  10.878   0.177   1.498
67261SOL    HW1 3616  10.885   0.096   1.548
67261SOL    HW2 3617  10.920   0.157   1.414
67262SOL     OW 3618  13.859   5.300   8.618
67262SOL    HW1 3619  13.916   5.224   8.606
67262SOL    HW2 3620  13.812   5.281   8.699
67263SOL     OW 3621   1.389   1.128   8.126
67263SOL    HW1 3622   1.471   1.118   8.176
67263SOL    HW2 3623   1.320   1.107   8.189
67264SOL     OW 3624   5.717   0.470   4.773
67264SOL    HW1 3625   5.768   0.547   4.749
67264SOL    HW2 3626   5.782   0.407   4.804
67265SOL     OW 3627   4.795   3.552   6.436
67265SOL    HW1 3628   4.777   3.628   6.381
67265SOL    HW2 3629   4.768   3.579   6.524
67266SOL     OW 3630  10.506  14.496   1.098
67266SOL    HW1 3631  10.531  14.416   1.052
67266SOL    HW2 3632  10.587  14.547   1.101
67267SOL     OW 3633   2.113  11.274   1.932
67267SOL    HW1 3634   2.020  11.253   1.932
67267SOL    HW2 3635   2.123  11.339   1.863
67268SOL     OW 3636   2.039   9.880  13.452
67268SOL    HW1 3637   2.112   9.837  13.407
67268SOL    HW2 3638   2.006   9.813  13.512
67269SOL     OW 3639  14.497  12.884   5.077
67269SOL    HW1 3640  14.409  12.890   5.039
67269SOL    HW2 3641  14.539  12.812   5.030
67270SOL     OW 3642  14.817   5.365   9.493
67270SOL    HW1 3643  14.850   5.392   9.579
67270SOL    HW2 3644   0.005   5.398   9.432
67271SOL     OW 3645   9.700   9.577  12.586
67271SOL    HW1 3646   9.780   9.577  12.638
67271SOL    HW2 3647   9.646   9.508  12.624
67272SOL     OW 3648  12.587  11.312   1.594
67272SOL    HW1 3649  12.603  11.406   1.599
67272SOL    HW2 3650  12.563  11.287   1.683
67273SOL     OW 3651   2.278   6.784   6.106
67273SOL    HW1 3652   2.319   6.742   6.030
67273SOL    HW2 3653   2.306   6.731   6.180
67274SOL     OW 3654  14.516   0.906   8.659
67274SOL    HW1 3655  14.531   0.946   8.744
67274SOL    HW2 3656  14.428   0.867   8.666
67275SOL     OW 3657   9.598   7.895   6.304
67275SOL    HW1 3658   9.637   7.938   6.228
67275SOL    HW2 3659   9.667   7.897   6.371
67276SOL     OW 3660   5.448   9.654   3.509
67276SOL    HW1 3661   5.444   9.579   3.449
67276SOL    HW2 3662   5.525   9.703   3.481
67277SOL     OW 3663  13.469  11.496  12.762
67277SOL    HW1 3664  13.404  11.539  12.707
67277SOL    HW2 3665  13.433  11.409  12.779
67278SOL     OW 3666  11.719   7.168   1.930
67278SOL    HW1 3667  11.800   7.149   1.882
67278SOL    HW2 3668  11.688   7.250   1.892
67279SOL     OW 3669  10.116   0.361   1.188
67279SOL    HW1 3670  10.133   0.455   1.197
67279SOL    HW2 3671  10.203   0.323   1.173
67280SOL     OW 3672  10.791   7.734  12.388
67280SOL    HW1 3673  10.718   7.732  12.451
67280SOL    HW2 3674  10.862   7.778  12.435
67281SOL     OW 3675   8.705   7.214   9.380
67281SOL    HW1 3676   8.768   7.198   9.309
67281SOL    HW2 3677   8.717   7.306   9.402
67282SOL     OW 3678   4.173   2.632   6.878
67282SOL    HW1 3679   4.234   2.619   6.806
67282SOL    HW2 3680   4.218   2.692   6.937
67283SOL     OW 3681   0.373   0.179   0.348
67283SOL    HW1 3682   0.353   0.201   0.439
67283SOL    HW2 3683   0.447   0.234   0.325
67284SOL     OW 3684   2.602   6.389  12.818
67284SOL    HW1 3685   2.616   6.430  12.903
67284SOL    HW2 3686   2.663   6.434  12.759
67285SOL     OW 3687  14.194   4.514  13.079
67285SOL    HW1 3688  14.260   4.501  13.011
67285SOL    HW2 3689  14.211   4.602  13.113
67286SOL     OW 3690  10.481   9.474  13.239
67286SOL    HW1 3691  10.402   9.425  13.262
67286SOL    HW2 3692  10.513   9.432  13.159
67287SOL     OW 3693   3.085  14.010   3.073
67287SOL    HW1 3694   3.074  14.093   3.119
67287SOL    HW2 3695   3.044  13.945   3.130
67288SOL     OW 3696  11.770   0.852   1.758
67288SOL    HW1 3697  11.768   0.907   1.679
67288SOL    HW2 3698  11.782   0.914   1.830
67289SOL     OW 3699   1.163   2.704  10.208
67289SOL    HW1 3700   1.150   2.760  10.132
67289SOL    HW2 3701   1.082   2.711  10.258
67290SOL     OW 3702   7.930   8.199  12.513
67290SOL    HW1 3703   7.935   8.174  12.421
67290SOL    HW2 3704   8.002   8.152  12.555
67291SOL     OW 3705   5.519  10.581   3.474
67291SOL    HW1 3706   5.511  10.676   3.461
67291SOL    HW2 3707   5.586  10.571   3.542
67292SOL     OW 3708   9.888   7.958   2.975
67292SOL    HW1 3709   9.837   8.018   2.921
67292SOL    HW2 3710   9.905   8.007   3.055
67293SOL     OW 3711  11.577  10.218  11.692
67293SOL    HW1 3712  11.587  10.267  11.774
67293SOL    HW2 3713  11.620  10.273  11.627
67294SOL     OW 3714  11.272  10.566   9.741
67294SOL    HW1 3715  11.249  10.645   9.790
67294SOL    HW2 3716  11.328  10.516   9.800
67295SOL     OW 3717  12.072   2.466   0.378
67295SOL    HW1 3718  11.979   2.468   0.356
67295SOL    HW2 3719  12.074   2.457   0.474
67296SOL     OW 3720   0.549  10.676   7.922
67296SOL    HW1 3721   0.623  10.733   7.947
67296SOL    HW2 3722   0.574  10.641   7.837
67297SOL     OW 3723  10.553  11.943   5.295
67297SOL    HW1 3724  10.570  11.882   5.223
67297SOL    HW2 3725  10.479  11.904   5.342
67298SOL     OW 3726   8.312  10.574  12.799
67298SOL    HW1 3727   8.317  10.564  12.704
67298SOL    HW2 3728   8.403  10.584  12.827
67299SOL     OW 3729   5.861   8.448   8.881
67299SOL    HW1 3730   5.893   8.502   8.952
67299SOL    HW2 3731   5.939   8.429   8.828
67300SOL     OW 3732   3.834   5.636  11.821
67300SOL    HW1 3733   3.740   5.625  11.803
67300SOL    HW2 3734   3.876   5.631  11.735
67301SOL     OW 3735   5.933   3.659   4.690
67301SOL    HW1 3736   5.956   3.629   4.778
67301SOL    HW2 3737   6.017   3.670   4.646
67302SOL     OW 3738   4.360   6.613  14.712
67302SOL    HW1 3739   4.399   6.542  14.764
67302SOL    HW2 3740   4.305   6.661  14.774
67303SOL     OW 3741  14.751  14.003  11.669
67303SOL    HW1 3742  14.755  13.970  11.579
67303SOL    HW2 3743  14.759  13.925  11.724
67304SOL     OW 3744   2.759   1.154   2.495
67304SOL    HW1 3745   2.761   1.120   2.585
67304SOL    HW2 3746   2.841   1.202   2.486
67305SOL     OW 3747   5.514   3.319   9.817
67305SOL    HW1 3748   5.452   3.373   9.865
67305SOL    HW2 3749   5.566   3.276   9.885
67306SOL     OW 3750   3.266  10.903  14.641
67306SOL    HW1 3751   3.256  10.809  14.656
67306SOL    HW2 3752   3.350  10.912  14.595
67307SOL     OW 3753  10.950  11.783   2.465
67307SOL    HW1 3754  11.023  11.741   2.420
67307SOL    HW2 3755  10.902  11.711   2.506
67308SOL     OW 3756   7.125   3.585  13.294
67308SOL    HW1 3757   7.215   3.597  13.324
67308SOL    HW2 3758   7.133   3.542  13.209
67309SOL     OW 3759   9.500  11.958   0.043
67309SOL    HW1 3760   9.422  11.992  14.879
67309SOL    HW2 3761   9.562  12.031   0.042
67310SOL     OW 3762   5.883   6.911   7.869
67310SOL    HW1 3763   5.919   6.960   7.795
67310SOL    HW2 3764   5.955   6.906   7.932
67311SOL     OW 3765  14.644  13.299   7.546
67311SOL    HW1 3766  14.714  13.313   7.610
67311SOL    HW2 3767  14.690  13.290   7.463
67312SOL     OW 3768  11.234   9.262   6.947
67312SOL    HW1 3769  11.199   9.335   6.897
67312SOL    HW2 3770  11.276   9.303   7.023
67313SOL     OW 3771  10.645   0.573  10.831
67313SOL    HW1 3772  10.698   0.619  10.896
67313SOL    HW2 3773  10.623   0.490  10.873
67314SOL     OW 3774   3.893   1.772   8.056
67314SOL    HW1 3775   3.907   1.790   8.149
67314SOL    HW2 3776   3.960   1.708   8.034
67315SOL     OW 3777   5.521  10.620   1.338
67315SOL    HW1 3778   5.545  10.690   1.398
67315SOL    HW2 3779   5.458  10.567   1.387
67316SOL     OW 3780   7.878   8.236   8.498
67316SOL    HW1 3781   7.872   8.288   8.578
67316SOL    HW2 3782   7.812   8.167   8.509
67317SOL     OW 3783  14.230  10.173   2.522
67317SOL    HW1 3784  14.193  10.172   2.610
67317SOL    HW2 3785  14.191  10.250   2.480
67318SOL     OW 3786   0.207   5.794   6.765
67318SOL    HW1 3787   0.266   5.867   6.779
67318SOL    HW2 3788   0.254   5.718   6.798
67319SOL     OW 3789   8.204   5.830   1.157
67319SOL    HW1 3790   8.121   5.803   1.198
67319SOL    HW2 3791   8.264   5.758   1.176
67320SOL     OW 3792  14.681   1.707   6.814
67320SOL    HW1 3793  14.606   1.761   6.837
67320SOL    HW2 3794  14.755   1.750   6.859
67321SOL     OW 3795  10.110  13.767   2.457
67321SOL    HW1 3796  10.085  13.689   2.408
67321SOL    HW2 3797  10.161  13.734   2.530
67322SOL     OW 3798  10.396  11.840   4.153
67322SOL    HW1 3799  10.464  11.773   4.158
67322SOL    HW2 3800  10.422  11.906   4.218
67323SOL     OW 3801   1.814   3.486   7.132
67323SOL    HW1 3802   1.727   3.447   7.143
67323SOL    HW2 3803   1.870   3.413   7.107
67324SOL     OW 3804   8.010  13.796  12.849
67324SOL    HW1 3805   8.000  13.806  12.754
67324SOL    HW2 3806   7.992  13.883  12.884
67325SOL     OW 3807  13.233   0.316   9.783
67325SOL    HW1 3808  13.229   0.221   9.777
67325SOL    HW2 3809  13.204   0.348   9.698
67326SOL     OW 3810  10.513   2.306   7.250
67326SOL    HW1 3811  10.589   2.285   7.196
67326SOL    HW2 3812  10.471   2.222   7.265
67327SOL     OW 3813   8.128   0.872  11.074
67327SOL    HW1 3814   8.127   0.793  11.127
67327SOL    HW2 3815   8.132   0.840  10.984
67328SOL     OW 3816  14.238   1.098  10.965
67328SOL    HW1 3817  14.179   1.103  10.890
67328SOL    HW2 3818  14.324   1.077  10.927
67329SOL     OW 3819   7.463   4.958   0.749
67329SOL    HW1 3820   7.449   4.871   0.787
67329SOL    HW2 3821   7.523   5.001   0.809
67330SOL     OW 3822   6.313   8.289   4.708
67330SOL    HW1 3823   6.289   8.297   4.616
67330SOL    HW2 3824   6.294   8.198   4.730
67331SOL     OW 3825   6.196  10.395   9.090
67331SOL    HW1 3826   6.279  10.419   9.050
67331SOL    HW2 3827   6.209  10.307   9.124
67332SOL     OW 3828   4.899   4.188  12.447
67332SOL    HW1 3829   4.956   4.111  12.451
67332SOL    HW2 3830   4.844   4.174  12.370
67333SOL     OW 3831   0.734   0.819  11.763
67333SOL    HW1 3832   0.714   0.789  11.852
67333SOL    HW2 3833   0.713   0.912  11.764
67334SOL     OW 3834  10.886   2.342   8.893
67334SOL    HW1 3835  10.823   2.356   8.964
67334SOL    HW2 3836  10.836   2.361   8.813
67335SOL     OW 3837   6.066   4.095  10.470
67335SOL    HW1 3838   6.149   4.129  10.437
67335SOL    HW2 3839   6.016   4.173  10.494
67336SOL     OW 3840  12.365   7.578   4.452
67336SOL    HW1 3841  12.310   7.649   4.486
67336SOL    HW2 3842  12.304   7.519   4.409
67337SOL     OW 3843  12.379   2.564   5.586
67337SOL    HW1 3844  12.438   2.570   5.512
67337SOL    HW2 3845  12.308   2.507   5.556
67338SOL     OW 3846  10.646   5.152   7.854
67338SOL    HW1 3847  10.611   5.206   7.925
67338SOL    HW2 3848  10.612   5.064   7.872
67339SOL     OW 3849   6.839   3.840   4.243
67339SOL    HW1 3850   6.921   3.808   4.206
67339SOL    HW2 3851   6.812   3.772   4.305
67340SOL     OW 3852   2.269   7.624  14.416
67340SOL    HW1 3853   2.222   7.642  14.335
67340SOL    HW2 3854   2.219   7.555  14.459
67341SOL     OW 3855   3.944  13.652   4.342
67341SOL    HW1 3856   3.849  13.643   4.351
67341SOL    HW2 3857   3.967  13.722   4.404
67342SOL     OW 3858   1.750   7.487   4.507
67342SOL    HW1 3859   1.814   7.558   4.509
67342SOL    HW2 3860   1.802   7.408   4.494
67343SOL     OW 3861   1.076   2.394  11.285
67343SOL    HW1 3862   1.037   2.331  11.225
67343SOL    HW2 3863   1.012   2.466  11.288
67344SOL     OW 3864   4.732   4.039  10.708
67344SOL    HW1 3865   4.641   4.056  10.683
67344SOL    HW2 3866   4.725   3.977  10.780
67345SOL     OW 3867  14.362  10.821   8.953
67345SOL    HW1 3868  14.278  10.858   8.928
67345SOL    HW2 3869  14.342  10.759   9.023
67346SOL     OW 3870  12.789   4.002   0.684
67346SOL    HW1 3871  12.775   4.096   0.672
67346SOL    HW2 3872  12.779   3.965   0.596
67347SOL     OW 3873   9.397   2.174   8.096
67347SOL    HW1 3874   9.386   2.129   8.012
67347SOL    HW2 3875   9.327   2.141   8.151
67348SOL     OW 3876  13.315   0.907  13.664
67348SOL    HW1 3877  13.227   0.871  13.672
67348SOL    HW2 3878  13.373   0.834  13.684
67349SOL     OW 3879   5.820  10.567   6.694
67349SOL    HW1 3880   5.830  10.525   6.779
67349SOL    HW2 3881   5.892  10.630   6.689
67350SOL     OW 3882   0.011   6.367  10.673
67350SOL    HW1 3883  14.859   6.296  10.728
67350SOL    HW2 3884   0.097   6.337  10.642
67351SOL     OW 3885  14.784   4.228  10.569
67351SOL    HW1 3886  14.798   4.319  10.595
67351SOL    HW2 3887  14.809   4.176  10.646
67352SOL     OW 3888   7.793  13.266  10.649
67352SOL    HW1 3889   7.788  13.361  10.663
67352SOL    HW2 3890   7.716  13.246  10.596
67353SOL     OW 3891   5.902   6.009   6.601
67353SOL    HW1 3892   5.858   6.088   6.633
67353SOL    HW2 3893   5.942   6.036   6.518
67354SOL     OW 3894  11.180   9.822   1.846
67354SOL    HW1 3895  11.120   9.881   1.801
67354SOL    HW2 3896  11.266   9.843   1.810
67355SOL     OW 3897   1.765   7.403   9.109
67355SOL    HW1 3898   1.761   7.403   9.205
67355SOL    HW2 3899   1.846   7.357   9.088
67356SOL     OW 3900  10.710  10.903   6.446
67356SOL    HW1 3901  10.710  10.997   6.462
67356SOL    HW2 3902  10.697  10.894   6.352
67357SOL     OW 3903   3.653  11.783   6.233
67357SOL    HW1 3904   3.686  11.867   6.263
67357SOL    HW2 3905   3.732  11.733   6.210
67358SOL     OW 3906  14.495   9.868   3.097
67358SOL    HW1 3907  14.403   9.855   3.120
67358SOL    HW2 3908  14.515   9.795   3.038
67359SOL     OW 3909   9.312   7.126   7.423
67359SOL    HW1 3910   9.260   7.205   7.413
67359SOL    HW2 3911   9.263   7.058   7.377
67360SOL     OW 3912   6.497   3.790  10.214
67360SOL    HW1 3913   6.434   3.861  10.218
67360SOL    HW2 3914   6.501   3.766  10.121
67361SOL     OW 3915  14.478   3.941  13.509
67361SOL    HW1 3916  14.494   3.910  13.420
67361SOL    HW2 3917  14.470   4.036  13.500
67362SOL     OW 3918  14.721  12.270   8.634
67362SOL    HW1 3919  14.688  12.344   8.583
67362SOL    HW2 3920  14.686  12.282   8.722
67363SOL     OW 3921   6.291   9.005  13.375
67363SOL    HW1 3922   6.204   9.000  13.415
67363SOL    HW2 3923   6.297   9.095  13.343
67364SOL     OW 3924   0.938  10.536  12.840
67364SOL    HW1 3925   1.024  10.577  12.825
67364SOL    HW2 3926   0.910  10.507  12.753
67365SOL     OW 3927   9.113   1.822   1.427
67365SOL    HW1 3928   9.158   1.903   1.450
67365SOL    HW2 3929   9.060   1.801   1.504
67366SOL     OW 3930  12.675   2.417   5.003
67366SOL    HW1 3931  12.693   2.326   4.977
67366SOL    HW2 3932  12.761   2.460   5.001
67367SOL     OW 3933  11.832   4.968  13.722
67367SOL    HW1 3934  11.919   5.008  13.713
67367SOL    HW2 3935  11.778   5.037  13.761
67368SOL     OW 3936   2.398   5.371   8.643
67368SOL    HW1 3937   2.435   5.292   8.683
67368SOL    HW2 3938   2.459   5.441   8.668
67369SOL     OW 3939   4.956   9.003  10.993
67369SOL    HW1 3940   4.879   9.032  11.040
67369SOL    HW2 3941   4.937   9.022  10.901
67370SOL     OW 3942   0.793   8.987  10.308
67370SOL    HW1 3943   0.741   9.066  10.296
67370SOL    HW2 3944   0.729   8.916  10.312
67371SOL     OW 3945   4.823   6.638   8.165
67371SOL    HW1 3946   4.777   6.699   8.223
67371SOL    HW2 3947   4.910   6.676   8.153
67372SOL     OW 3948   9.797  11.370   8.503
67372SOL    HW1 3949   9.709  11.344   8.477
67372SOL    HW2 3950   9.806  11.340   8.593
67373SOL     OW 3951  12.061  13.318  12.941
67373SOL    HW1 3952  12.067  13.306  12.846
67373SOL    HW2 3953  12.051  13.413  12.952
67374SOL     OW 3954  14.499   9.129  12.180
67374SOL    HW1 3955  14.578   9.123  12.235
67374SOL    HW2 3956  14.427   9.137  12.242
67375SOL     OW 3957   9.752   8.965  11.141
67375SOL    HW1 3958   9.827   8.922  11.100
67375SOL    HW2 3959   9.677   8.909  11.117
67376SOL     OW 3960  10.175  11.403   8.691
67376SOL    HW1 3961  10.178  11.461   8.767
67376SOL    HW2 3962  10.221  11.451   8.622
67377SOL     OW 3963   6.355  14.806   1.059
67377SOL    HW1 3964   6.313  14.778   0.977
67377SOL    HW2 3965   6.443  14.831   1.033
67378SOL     OW 3966   9.199   0.652   9.031
67378SOL    HW1 3967   9.271   0.607   8.986
67378SOL    HW2 3968   9.229   0.742   9.041
67379SOL     OW 3969   6.901   0.076   5.982
67379SOL    HW1 3970   6.923   0.003   6.040
67379SOL    HW2 3971   6.984   0.122   5.968
67380SOL     OW 3972  13.922   8.887   5.193
67380SOL    HW1 3973  13.931   8.979   5.168
67380SOL    HW2 3974  13.916   8.888   5.289
67381SOL     OW 3975   8.905   8.191   1.823
67381SOL    HW1 3976   8.822   8.193   1.869
67381SOL    HW2 3977   8.971   8.193   1.892
67382SOL     OW 3978   7.401   6.215  11.505
67382SOL    HW1 3979   7.306   6.221  11.519
67382SOL    HW2 3980   7.414   6.127  11.469
67383SOL     OW 3981   7.233  11.839   2.767
67383SOL    HW1 3982   7.244  11.921   2.719
67383SOL    HW2 3983   7.321  11.818   2.799
67384SOL     OW 3984  14.217   5.024   6.999
67384SOL    HW1 3985  14.158   5.098   6.983
67384SOL    HW2 3986  14.236   4.990   6.912
67385SOL     OW 3987   9.611  10.020   7.759
67385SOL    HW1 3988   9.606  10.061   7.846
67385SOL    HW2 3989   9.599   9.927   7.777
67386SOL     OW 3990  14.624   9.939  12.159
67386SOL    HW1 3991  14.629  10.012  12.220
67386SOL    HW2 3992  14.611   9.862  12.215
67387SOL     OW 3993   9.736   2.151   5.201
67387SOL    HW1 3994   9.822   2.161   5.160
67387SOL    HW2 3995   9.682   2.110   5.134
67388SOL     OW 3996  14.198   2.799   5.120
67388SOL    HW1 3997  14.230   2.843   5.199
67388SOL    HW2 3998  14.116   2.756   5.147
67389SOL     OW 3999   4.469   9.686  10.550
67389SOL    HW1 4000   4.491   9.631  10.476
67389SOL    HW2 4001   4.486   9.775  10.520
67390SOL     OW 4002  11.033   3.462   2.985
67390SOL    HW1 4003  11.062   3.514   2.910
67390SOL    HW2 4004  11.107   3.466   3.046
67391SOL     OW 4005   0.264   5.841   0.775
67391SOL    HW1 4006   0.178   5.820   0.811
67391SOL    HW2 4007   0.324   5.832   0.849
67392SOL     OW 4008   4.492  12.043   1.372
67392SOL    HW1 4009   4.558  12.098   1.330
67392SOL    HW2 4010   4.452  11.995   1.299
67393SOL     OW 4011   7.112   0.677  11.358
67393SOL    HW1 4012   7.019   0.694  11.377
67393SOL    HW2 4013   7.159   0.721  11.428
67394SOL     OW 4014   7.232   7.644   7.630
67394SOL    HW1 4015   7.192   7.597   7.557
67394SOL    HW2 4016   7.162   7.702   7.662
67395SOL     OW 4017   8.821  10.919   4.676
67395SOL    HW1 4018   8.798  10.831   4.646
67395SOL    HW2 4019   8.907  10.935   4.637
67396SOL     OW 4020  12.310   8.384   7.684
67396SOL    HW1 4021  12.319   8.293   7.712
67396SOL    HW2 4022  12.400   8.416   7.679
67397SOL     OW 4023   8.013  10.193  12.663
67397SOL    HW1 4024   7.993  10.146  12.582
67397SOL    HW2 4025   8.089  10.147  12.699
67398SOL     OW 4026  12.231  11.152   4.281
67398SOL    HW1 4027  12.218  11.101   4.361
67398SOL    HW2 4028  12.144  11.158   4.242
67399SOL     OW 4029   0.536   0.124   8.962
67399SOL    HW1 4030   0.595   0.070   8.910
67399SOL    HW2 4031   0.465   0.146   8.902
67400SOL     OW 4032   0.337   1.151   7.576
67400SOL    HW1 4033   0.330   1.065   7.535
67400SOL    HW2 4034   0.295   1.211   7.514
67401SOL     OW 4035   7.862   3.173  11.431
67401SOL    HW1 4036   7.846   3.247  11.373
67401SOL    HW2 4037   7.904   3.212  11.508
67402SOL     OW 4038  14.090   0.944  11.156
67402SOL    HW1 4039  13.998   0.941  11.133
67402SOL    HW2 4040  14.130   0.998  11.088
67403SOL     OW 4041   9.962   6.763   1.122
67403SOL    HW1 4042   9.918   6.756   1.037
67403SOL    HW2 4043  10.006   6.679   1.133
67404SOL     OW 4044   8.133   8.799   7.313
67404SOL    HW1 4045   8.056   8.744   7.323
67404SOL    HW2 4046   8.104   8.870   7.256
67405SOL     OW 4047   0.334  12.232   6.695
67405SOL    HW1 4048   0.255  12.230   6.750
67405SOL    HW2 4049   0.345  12.142   6.665
67406SOL     OW 4050   8.378   8.114   4.091
67406SOL    HW1 4051   8.440   8.045   4.065
67406SOL    HW2 4052   8.410   8.145   4.175
67407SOL     OW 4053   6.001  10.798   1.442
67407SOL    HW1 4054   6.025  10.706   1.451
67407SOL    HW2 4055   6.039  10.840   1.520
67408SOL     OW 4056   0.503   1.055   6.383
67408SOL    HW1 4057   0.450   1.134   6.392
67408SOL    HW2 4058   0.516   1.025   6.473
67409SOL     OW 4059  11.823   9.212   0.919
67409SOL    HW1 4060  11.855   9.302   0.912
67409SOL    HW2 4061  11.903   9.159   0.919
67410SOL     OW 4062   2.015   9.121   0.094
67410SOL    HW1 4063   2.044   9.127   0.003
67410SOL    HW2 4064   1.970   9.204   0.110
67411SOL     OW 4065   2.338   0.272   8.282
67411SOL    HW1 4066   2.403   0.290   8.215
67411SOL    HW2 4067   2.372   0.316   8.360
67412SOL     OW 4068   7.082  13.976   9.054
67412SOL    HW1 4069   7.036  13.902   9.093
67412SOL    HW2 4070   7.035  13.992   8.972
67413SOL     OW 4071  11.645  11.828  13.792
67413SOL    HW1 4072  11.658  11.908  13.741
67413SOL    HW2 4073  11.731  11.785  13.792
67414SOL     OW 4074  14.137   9.919  13.906
67414SOL    HW1 4075  14.049   9.933  13.871
67414SOL    HW2 4076  14.132   9.835  13.950
67415SOL     OW 4077  11.369  10.824   3.786
67415SOL    HW1 4078  11.429  10.832   3.860
67415SOL    HW2 4079  11.325  10.909   3.780
67416SOL     OW 4080   2.439   8.067   6.454
67416SOL    HW1 4081   2.527   8.036   6.433
67416SOL    HW2 4082   2.381   8.017   6.396
67417SOL     OW 4083   3.260   6.646   1.495
67417SOL    HW1 4084   3.260   6.580   1.565
67417SOL    HW2 4085   3.257   6.730   1.541
67418SOL     OW 4086   7.549  10.734  14.291
67418SOL    HW1 4087   7.493  10.657  14.296
67418SOL    HW2 4088   7.490  10.806  14.270
67419SOL     OW 4089   2.493  12.444   4.326
67419SOL    HW1 4090   2.434  12.481   4.260
67419SOL    HW2 4091   2.501  12.513   4.392
67420SOL     OW 4092   7.073   4.685   1.902
67420SOL    HW1 4093   7.150   4.742   1.895
67420SOL    HW2 4094   7.091   4.614   1.840
67421SOL     OW 4095   8.053   4.977   1.273
67421SOL    HW1 4096   8.098   4.912   1.219
67421SOL    HW2 4097   8.121   5.040   1.297
67422SOL     OW 4098   3.992   4.269  13.959
67422SOL    HW1 4099   4.042   4.196  13.923
67422SOL    HW2 4100   3.977   4.245  14.050
67423SOL     OW 4101  10.693  11.778   1.260
67423SOL    HW1 4102  10.715  11.857   1.210
67423SOL    HW2 4103  10.775  11.753   1.301
67424SOL     OW 4104  13.888   7.568   7.939
67424SOL    HW1 4105  13.895   7.661   7.959
67424SOL    HW2 4106  13.951   7.526   7.998
67425SOL     OW 4107  13.659  10.769   2.640
67425SOL    HW1 4108  13.645  10.675   2.647
67425SOL    HW2 4109  13.672  10.785   2.547
67426SOL     OW 4110   6.334   0.001   7.588
67426SOL    HW1 4111   6.372  14.824   7.656
67426SOL    HW2 4112   6.297   0.075   7.637
67427SOL     OW 4113   5.222   3.797  12.200
67427SOL    HW1 4114   5.178   3.720  12.165
67427SOL    HW2 4115   5.170   3.871  12.168
67428SOL     OW 4116   6.171   0.723   9.930
67428SOL    HW1 4117   6.239   0.681   9.983
67428SOL    HW2 4118   6.130   0.786   9.989
67429SOL     OW 4119  14.363   6.251   2.394
67429SOL    HW1 4120  14.361   6.194   2.318
67429SOL    HW2 4121  14.434   6.313   2.376
67430SOL     OW 4122  13.832   2.300   8.915
67430SOL    HW1 4123  13.749   2.292   8.961
67430SOL    HW2 4124  13.808   2.314   8.823
67431SOL     OW 4125  12.779   5.004  14.869
67431SOL    HW1 4126  12.686   4.989  14.856
67431SOL    HW2 4127  12.815   4.917   0.007
67432SOL     OW 4128   2.263  13.414   5.091
67432SOL    HW1 4129   2.207  13.492   5.087
67432SOL    HW2 4130   2.268  13.392   5.184
67433SOL     OW 4131   4.828   2.278   7.421
67433SOL    HW1 4132   4.905   2.316   7.380
67433SOL    HW2 4133   4.808   2.336   7.494
67434SOL     OW 4134   9.952   6.954   6.865
67434SOL    HW1 4135   9.991   6.868   6.848
67434SOL    HW2 4136   9.954   6.962   6.960
67435SOL     OW 4137  12.040   0.799  14.800
67435SOL    HW1 4138  12.007   0.878  14.759
67435SOL    HW2 4139  12.113   0.772  14.744
67436SOL     OW 4140   4.179  11.663   8.470
67436SOL    HW1 4141   4.269  11.695   8.472
67436SOL    HW2 4142   4.125  11.742   8.477
67437SOL     OW 4143   4.603   8.107   0.587
67437SOL    HW1 4144   4.625   8.175   0.524
67437SOL    HW2 4145   4.519   8.073   0.557
67438SOL     OW 4146  13.748   8.283  12.782
67438SOL    HW1 4147  13.722   8.302  12.692
67438SOL    HW2 4148  13.712   8.355  12.833
67439SOL     OW 4149   3.417   7.953   2.428
67439SOL    HW1 4150   3.342   7.934   2.484
67439SOL    HW2 4151   3.383   7.945   2.339
67440SOL     OW 4152  13.021   8.113   3.878
67440SOL    HW1 4153  12.959   8.171   3.836
67440SOL    HW2 4154  12.967   8.045   3.918
67441SOL     OW 4155   4.655  13.920  13.812
67441SOL    HW1 4156   4.705  13.842  13.839
67441SOL    HW2 4157   4.614  13.895  13.730
67442SOL     OW 4158   3.194  13.829  12.773
67442SOL    HW1 4159   3.208  13.742  12.736
67442SOL    HW2 4160   3.098  13.839  12.773
67443SOL     OW 4161   8.128   6.693   0.502
67443SOL    HW1 4162   8.073   6.701   0.580
67443SOL    HW2 4163   8.071   6.718   0.429
67444SOL     OW 4164  14.143  13.708   0.438
67444SOL    HW1 4165  14.207  13.651   0.398
67444SOL    HW2 4166  14.127  13.777   0.373
67445SOL     OW 4167   0.219  13.332   2.576
67445SOL    HW1 4168   0.201  13.242   2.549
67445SOL    HW2 4169   0.136  13.364   2.610
67446SOL     OW 4170   8.569  14.036  12.365
67446SOL    HW1 4171   8.482  14.014  12.397
67446SOL    HW2 4172   8.600  13.956  12.323
67447SOL     OW 4173   8.224  12.280   2.246
67447SOL    HW1 4174   8.293  12.285   2.313
67447SOL    HW2 4175   8.143  12.271   2.296
67448SOL     OW 4176   8.566   9.001  13.263
67448SOL    HW1 4177   8.591   9.091  13.244
67448SOL    HW2 4178   8.507   9.008  13.338
67449SOL     OW 4179  14.837   7.929  11.455
67449SOL    HW1 4180   0.014   8.000  11.425
67449SOL    HW2 4181  14.805   7.958  11.540
67450SOL     OW 4182   0.407   7.586   6.242
67450SOL    HW1 4183   0.335   7.605   6.183
67450SOL    HW2 4184   0.424   7.492   6.229
67451SOL     OW 4185   9.254   8.208  11.243
67451SOL    HW1 4186   9.304   8.148  11.187
67451SOL    HW2 4187   9.194   8.252  11.183
67452SOL     OW 4188  13.177   1.088   6.973
67452SOL    HW1 4189  13.187   1.177   6.938
67452SOL    HW2 4190  13.138   1.039   6.901
67453SOL     OW 4191  13.553  11.098   2.948
67453SOL    HW1 4192  13.466  11.118   2.916
67453SOL    HW2 4193  13.554  11.002   2.956
67454SOL     OW 4194  11.025   9.463  13.123
67454SOL    HW1 4195  11.094   9.480  13.059
67454SOL    HW2 4196  10.955   9.523  13.099
67455SOL     OW 4197  11.801   6.653   6.396
67455SOL    HW1 4198  11.893   6.626   6.395
67455SOL    HW2 4199  11.803   6.745   6.369
67456SOL     OW 4200   3.131   6.272   5.759
67456SOL    HW1 4201   3.079   6.330   5.703
67456SOL    HW2 4202   3.067   6.230   5.816
67457SOL     OW 4203  12.278  11.675   8.208
67457SOL    HW1 4204  12.235  11.620   8.143
67457SOL    HW2 4205  12.210  11.737   8.236
67458SOL     OW 4206   3.122   6.000  11.207
67458SOL    HW1 4207   3.074   5.937  11.154
67458SOL    HW2 4208   3.060   6.026  11.275
67459SOL     OW 4209   9.713   0.561  10.135
67459SOL    HW1 4210   9.696   0.520  10.220
67459SOL    HW2 4211   9.753   0.646  10.156
67460SOL     OW 4212  11.447   5.834  14.289
67460SOL    HW1 4213  11.407   5.871  14.210
67460SOL    HW2 4214  11.412   5.887  14.361
67461SOL     OW 4215   9.030  12.039   2.972
67461SOL    HW1 4216   8.948  12.002   3.004
67461SOL    HW2 4217   9.054  11.983   2.898
67462SOL     OW 4218   9.241   6.221   3.329
67462SOL    HW1 4219   9.240   6.142   3.383
67462SOL    HW2 4220   9.320   6.212   3.275
67463SOL     OW 4221  11.085   8.376   2.177
67463SOL    HW1 4222  11.161   8.350   2.124
67463SOL    HW2 4223  11.089   8.471   2.179
67464SOL     OW 4224   5.190   8.267  10.137
67464SOL    HW1 4225   5.105   8.246  10.099
67464SOL    HW2 4226   5.253   8.242  10.069
67465SOL     OW 4227   9.490  12.450   6.359
67465SOL    HW1 4228   9.531  12.367   6.385
67465SOL    HW2 4229   9.430  12.470   6.431
67466SOL     OW 4230  12.228  13.524  10.106
67466SOL    HW1 4231  12.276  13.596  10.147
67466SOL    HW2 4232  12.248  13.532  10.013
67467SOL     OW 4233  12.572  13.366   0.535
67467SOL    HW1 4234  12.620  13.413   0.603
67467SOL    HW2 4235  12.564  13.277   0.568
67468SOL     OW 4236  13.827   9.452   7.705
67468SOL    HW1 4237  13.737   9.442   7.674
67468SOL    HW2 4238  13.825   9.532   7.757
67469SOL     OW 4239   2.353  11.733  12.678
67469SOL    HW1 4240   2.349  11.705  12.587
67469SOL    HW2 4241   2.262  11.748  12.703
67470SOL     OW 4242   9.547   7.987   2.911
67470SOL    HW1 4243   9.535   8.073   2.953
67470SOL    HW2 4244   9.550   8.007   2.818
67471SOL     OW 4245  13.589  10.476  12.085
67471SOL    HW1 4246  13.505  10.435  12.068
67471SOL    HW2 4247  13.571  10.570  12.084
67472SOL     OW 4248   9.581   7.365   9.551
67472SOL    HW1 4249   9.503   7.395   9.597
67472SOL    HW2 4250   9.618   7.444   9.512
67473SOL     OW 4251   8.455  12.116   8.986
67473SOL    HW1 4252   8.431  12.071   9.067
67473SOL    HW2 4253   8.429  12.207   9.001
67474SOL     OW 4254   5.668   7.435   4.463
67474SOL    HW1 4255   5.689   7.449   4.556
67474SOL    HW2 4256   5.725   7.496   4.417
67475SOL     OW 4257  13.543  11.643   5.622
67475SOL    HW1 4258  13.632  11.654   5.590
67475SOL    HW2 4259  13.493  11.714   5.582
67476SOL     OW 4260  12.102  14.408  13.775
67476SOL    HW1 4261  12.007  14.411  13.765
67476SOL    HW2 4262  12.125  14.317  13.757
67477SOL     OW 4263   5.865  13.312   8.189
67477SOL    HW1 4264   5.902  13.322   8.277
67477SOL    HW2 4265   5.870  13.218   8.171
67478SOL     OW 4266   3.024  12.116   8.846
67478SOL    HW1 4267   2.983  12.041   8.803
67478SOL    HW2 4268   3.059  12.081   8.928
67479SOL     OW 4269   4.956   0.473   8.574
67479SOL    HW1 4270   4.862   0.486   8.587
67479SOL    HW2 4271   4.987   0.439   8.658
67480SOL     OW 4272   4.172   9.971   6.157
67480SOL    HW1 4273   4.198  10.016   6.077
67480SOL    HW2 4274   4.181   9.878   6.137
67481SOL     OW 4275  10.819   2.996   4.429
67481SOL    HW1 4276  10.778   2.912   4.450
67481SOL    HW2 4277  10.908   2.988   4.464
67482SOL     OW 4278  13.002   0.677   6.489
67482SOL    HW1 4279  12.924   0.732   6.482
67482SOL    HW2 4280  12.988   0.607   6.426
67483SOL     OW 4281  10.478   7.888   8.467
67483SOL    HW1 4282  10.555   7.930   8.427
67483SOL    HW2 4283  10.467   7.933   8.550
67484SOL     OW 4284   1.514   7.965   0.696
67484SOL    HW1 4285   1.569   8.027   0.649
67484SOL    HW2 4286   1.551   7.961   0.784
67485SOL     OW 4287   0.068   3.251   6.676
67485SOL    HW1 4288   0.127   3.192   6.724
67485SOL    HW2 4289   0.103   3.253   6.587
67486SOL     OW 4290   5.317   3.510  10.033
67486SOL    HW1 4291   5.397   3.559  10.014
67486SOL    HW2 4292   5.341   3.452  10.106
67487SOL     OW 4293   1.036   9.848   0.228
67487SOL    HW1 4294   1.123   9.856   0.266
67487SOL    HW2 4295   1.039   9.901   0.149
67488SOL     OW 4296  10.029   2.516  11.097
67488SOL    HW1 4297  10.003   2.608  11.107
67488SOL    HW2 4298   9.954   2.466  11.129
67489SOL     OW 4299  10.476   7.321   8.358
67489SOL    HW1 4300  10.539   7.363   8.415
67489SOL    HW2 4301  10.467   7.232   8.392
67490SOL     OW 4302   3.684  13.137   5.251
67490SOL    HW1 4303   3.742  13.200   5.293
67490SOL    HW2 4304   3.675  13.168   5.161
67491SOL     OW 4305   0.942   5.717  12.544
67491SOL    HW1 4306   0.929   5.728  12.450
67491SOL    HW2 4307   0.853   5.706  12.579
67492SOL     OW 4308  13.215   8.099  11.796
67492SOL    HW1 4309  13.270   8.162  11.751
67492SOL    HW2 4310  13.126   8.135  11.789
67493SOL     OW 4311   1.902   1.012   4.267
67493SOL    HW1 4312   1.975   1.026   4.328
67493SOL    HW2 4313   1.945   0.990   4.184
67494SOL     OW 4314  11.679   6.868  13.087
67494SOL    HW1 4315  11.653   6.914  13.167
67494SOL    HW2 4316  11.708   6.937  13.027
67495SOL     OW 4317   1.045   4.524   9.669
67495SOL    HW1 4318   0.950   4.532   9.678
67495SOL    HW2 4319   1.058   4.439   9.625
67496SOL     OW 4320   9.962   7.335   5.992
67496SOL    HW1 4321   9.868   7.346   5.982
67496SOL    HW2 4322   9.971   7.260   6.050
67497SOL     OW 4323   3.060   8.496   6.534
67497SOL    HW1 4324   3.120   8.533   6.599
67497SOL    HW2 4325   2.983   8.469   6.584
67498SOL     OW 4326   5.371   6.568  12.248
67498SOL    HW1 4327   5.404   6.596  12.162
67498SOL    HW2 4328   5.294   6.623  12.263
67499SOL     OW 4329   4.549   6.339   5.968
67499SOL    HW1 4330   4.453   6.343   5.977
67499SOL    HW2 4331   4.568   6.397   5.894
67500SOL     OW 4332   6.504   6.853   2.387
67500SOL    HW1 4333   6.553   6.772   2.386
67500SOL    HW2 4334   6.519   6.890   2.474
67501SOL     OW 4335   5.404  10.178  12.314
67501SOL    HW1 4336   5.362  10.233  12.381
67501SOL    HW2 4337   5.331  10.134  12.271
67502SOL     OW 4338   4.492   5.185  12.328
67502SOL    HW1 4339   4.424   5.244  12.294
67502SOL    HW2 4340   4.488   5.109  12.270
67503SOL     OW 4341   2.901  12.675  10.549
67503SOL    HW1 4342   2.881  12.586  10.578
67503SOL    HW2 4343   2.957  12.711  10.617
67504SOL     OW 4344   3.285   5.208   8.314
67504SOL    HW1 4345   3.299   5.144   8.245
67504SOL    HW2 4346   3.215   5.265   8.281
67505SOL     OW 4347   6.634  12.480  12.558
67505SOL    HW1 4348   6.546  12.481  12.596
67505SOL    HW2 4349   6.620  12.460  12.466
67506SOL     OW 4350   7.242   3.924   6.153
67506SOL    HW1 4351   7.199   3.970   6.081
67506SOL    HW2 4352   7.264   3.993   6.215
67507SOL     OW 4353  13.044   0.114   2.113
67507SOL    HW1 4354  12.986   0.185   2.140
67507SOL    HW2 4355  13.069   0.071   2.195
67508SOL     OW 4356   5.601  10.947  14.035
67508SOL    HW1 4357   5.545  11.023  14.050
67508SOL    HW2 4358   5.578  10.918  13.947
67509SOL     OW 4359   6.299   6.082   2.028
67509SOL    HW1 4360   6.289   6.133   1.947
67509SOL    HW2 4361   6.223   6.106   2.081
67510SOL     OW 4362   8.250  10.478   8.802
67510SOL    HW1 4363   8.202  10.547   8.756
67510SOL    HW2 4364   8.342  10.493   8.778
67511SOL     OW 4365   0.120   6.715  13.968
67511SOL    HW1 4366   0.212   6.690  13.957
67511SOL    HW2 4367   0.101   6.770  13.892
67512SOL     OW 4368   7.141   5.797  11.444
67512SOL    HW1 4369   7.216   5.790  11.504
67512SOL    HW2 4370   7.178   5.833  11.363
67513SOL     OW 4371  10.099  10.546   5.003
67513SOL    HW1 4372  10.043  10.531   5.079
67513SOL    HW2 4373  10.086  10.638   4.981
67514SOL     OW 4374   0.652  12.081  10.785
67514SOL    HW1 4375   0.662  12.018  10.856
67514SOL    HW2 4376   0.718  12.056  10.720
67515SOL     OW 4377  13.280   7.578   7.112
67515SOL    HW1 4378  13.213   7.625   7.062
67515SOL    HW2 4379  13.349   7.560   7.048
67516SOL     OW 4380  11.915   6.932   9.077
67516SOL    HW1 4381  11.976   6.968   9.141
67516SOL    HW2 4382  11.829   6.941   9.117
67517SOL     OW 4383   6.203  13.749   4.374
67517SOL    HW1 4384   6.170  13.704   4.297
67517SOL    HW2 4385   6.137  13.733   4.442
67518SOL     OW 4386   5.856  10.328  12.571
67518SOL    HW1 4387   5.822  10.418  12.575
67518SOL    HW2 4388   5.778  10.273  12.565
67519SOL     OW 4389   6.387   2.204   5.966
67519SOL    HW1 4390   6.374   2.179   5.875
67519SOL    HW2 4391   6.364   2.126   6.016
67520SOL     OW 4392   6.005   5.112   5.061
67520SOL    HW1 4393   6.005   5.020   5.086
67520SOL    HW2 4394   6.058   5.117   4.982
67521SOL     OW 4395   9.013   7.913  10.846
67521SOL    HW1 4396   8.952   7.840  10.858
67521SOL    HW2 4397   8.967   7.973  10.788
67522SOL     OW 4398  12.691   9.847   6.606
67522SOL    HW1 4399  12.598   9.862   6.589
67522SOL    HW2 4400  12.736   9.905   6.545
67523SOL     OW 4401   8.515   5.833   2.220
67523SOL    HW1 4402   8.508   5.917   2.175
67523SOL    HW2 4403   8.609   5.820   2.232
67524SOL     OW 4404  10.108   5.562  14.485
67524SOL    HW1 4405  10.175   5.510  14.442
67524SOL    HW2 4406  10.154   5.609  14.555
67525SOL     OW 4407  10.960  12.060   2.425
67525SOL    HW1 4408  10.938  11.968   2.432
67525SOL    HW2 4409  11.027  12.074   2.493
67526SOL     OW 4410   3.601  11.503  13.428
67526SOL    HW1 4411   3.603  11.536  13.339
67526SOL    HW2 4412   3.652  11.567  13.478
67527SOL     OW 4413   3.964  13.672   6.887
67527SOL    HW1 4414   3.929  13.714   6.808
67527SOL    HW2 4415   3.887  13.657   6.942
67528SOL     OW 4416   3.662   4.606  14.315
67528SOL    HW1 4417   3.628   4.654  14.390
67528SOL    HW2 4418   3.756   4.625  14.314
67529SOL     OW 4419   7.142  10.707   1.682
67529SOL    HW1 4420   7.099  10.631   1.643
67529SOL    HW2 4421   7.168  10.678   1.769
67530SOL     OW 4422  11.535  12.462   6.563
67530SOL    HW1 4423  11.623  12.436   6.535
67530SOL    HW2 4424  11.497  12.382   6.599
67531SOL     OW 4425  10.695   7.733  12.637
67531SOL    HW1 4426  10.731   7.644  12.631
67531SOL    HW2 4427  10.749   7.777  12.702
67532SOL     OW 4428   8.803   0.577  13.919
67532SOL    HW1 4429   8.853   0.611  13.994
67532SOL    HW2 4430   8.845   0.618  13.843
67533SOL     OW 4431   5.895   6.810   0.848
67533SOL    HW1 4432   5.900   6.735   0.907
67533SOL    HW2 4433   5.972   6.863   0.869
67534SOL     OW 4434   9.549   5.221   3.496
67534SOL    HW1 4435   9.572   5.216   3.589
67534SOL    HW2 4436   9.587   5.142   3.457
67535SOL     OW 4437   5.652   7.586  10.186
67535SOL    HW1 4438   5.633   7.499  10.153
67535SOL    HW2 4439   5.578   7.640  10.158
67536SOL     OW 4440   2.295   8.932   8.313
67536SOL    HW1 4441   2.287   9.022   8.347
67536SOL    HW2 4442   2.300   8.878   8.392
67537SOL     OW 4443  14.256   5.606   3.416
67537SOL    HW1 4444  14.251   5.518   3.452
67537SOL    HW2 4445  14.269   5.663   3.492
67538SOL     OW 4446   8.221   5.093  11.184
67538SOL    HW1 4447   8.307   5.097  11.141
67538SOL    HW2 4448   8.225   5.163  11.250
67539SOL     OW 4449   7.449   1.245   0.827
67539SOL    HW1 4450   7.416   1.334   0.835
67539SOL    HW2 4451   7.458   1.231   0.733
67540SOL     OW 4452   9.938   5.015   1.109
67540SOL    HW1 4453   9.930   5.003   1.014
67540SOL    HW2 4454   9.969   5.105   1.119
67541SOL     OW 4455  13.441  13.484   5.678
67541SOL    HW1 4456  13.522  13.456   5.635
67541SOL    HW2 4457  13.371  13.449   5.623
67542SOL     OW 4458  12.125   5.515   7.451
67542SOL    HW1 4459  12.153   5.607   7.450
67542SOL    HW2 4460  12.048   5.512   7.394
67543SOL     OW 4461   9.917   5.553  10.938
67543SOL    HW1 4462   9.963   5.612  10.998
67543SOL    HW2 4463   9.825   5.561  10.963
67544SOL     OW 4464   9.280   0.606   1.237
67544SOL    HW1 4465   9.350   0.582   1.298
67544SOL    HW2 4466   9.209   0.544   1.257
67545SOL     OW 4467  10.837  12.427   6.082
67545SOL    HW1 4468  10.929  12.405   6.074
67545SOL    HW2 4469  10.801  12.359   6.139
67546SOL     OW 4470  13.021  10.335   1.989
67546SOL    HW1 4471  12.950  10.302   1.935
67546SOL    HW2 4472  13.099  10.291   1.955
67547SOL     OW 4473   6.014   5.286   3.602
67547SOL    HW1 4474   6.001   5.355   3.537
67547SOL    HW2 4475   6.015   5.332   3.686
67548SOL     OW 4476   2.062   4.481  13.315
67548SOL    HW1 4477   2.125   4.409  13.320
67548SOL    HW2 4478   2.026   4.487  13.404
67549SOL     OW 4479  10.006   4.718   5.413
67549SOL    HW1 4480   9.971   4.803   5.438
67549SOL    HW2 4481   9.929   4.662   5.401
67550SOL     OW 4482  10.688  11.972   3.987
67550SOL    HW1 4483  10.709  11.915   3.913
67550SOL    HW2 4484  10.724  12.058   3.963
67551SOL     OW 4485  10.967  14.593  10.059
67551SOL    HW1 4486  11.028  14.530  10.098
67551SOL    HW2 4487  11.000  14.606   9.971
67552SOL     OW 4488  10.524   4.932   9.395
67552SOL    HW1 4489  10.469   4.950   9.472
67552SOL    HW2 4490  10.476   4.864   9.347
67553SOL     OW 4491   0.241  12.753  12.144
67553SOL    HW1 4492   0.307  12.810  12.104
67553SOL    HW2 4493   0.282  12.667  12.147
67554SOL     OW 4494   6.140   8.802  14.749
67554SOL    HW1 4495   6.142   8.722  14.803
67554SOL    HW2 4496   6.086   8.863  14.800
67555SOL     OW 4497   3.650  12.313   1.095
67555SOL    HW1 4498   3.716  12.262   1.141
67555SOL    HW2 4499   3.699  12.381   1.050
67556SOL     OW 4500  13.817   2.044  13.637
67556SOL    HW1 4501  13.910   2.053  13.661
67556SOL    HW2 4502  13.775   2.009  13.716
67557SOL     OW 4503  14.603  13.982   7.657
67557SOL    HW1 4504  14.605  14.077   7.655
67557SOL    HW2 4505  14.695  13.956   7.667
67558SOL     OW 4506   5.577   3.522   8.452
67558SOL    HW1 4507   5.618   3.542   8.368
67558SOL    HW2 4508   5.650   3.514   8.513
67559SOL     OW 4509   6.393  14.766   4.181
67559SOL    HW1 4510   6.424  14.758   4.271
67559SOL    HW2 4511   6.401  14.678   4.145
67560SOL     OW 4512   9.132   2.637   8.739
67560SOL    HW1 4513   9.042   2.612   8.718
67560SOL    HW2 4514   9.124   2.692   8.817
67561SOL     OW 4515   4.365  13.511  14.044
67561SOL    HW1 4516   4.431  13.578  14.063
67561SOL    HW2 4517   4.385  13.439  14.103
67562SOL     OW 4518   2.135   3.673   6.695
67562SOL    HW1 4519   2.223   3.688   6.662
67562SOL    HW2 4520   2.086   3.752   6.671
67563SOL     OW 4521   9.476  11.574   0.563
67563SOL    HW1 4522   9.424  11.579   0.483
67563SOL    HW2 4523   9.513  11.486   0.562
67564SOL     OW 4524   3.799   7.860  13.893
67564SOL    HW1 4525   3.868   7.910  13.849
67564SOL    HW2 4526   3.807   7.885  13.985
67565SOL     OW 4527   4.689  11.876   9.577
67565SOL    HW1 4528   4.673  11.783   9.560
67565SOL    HW2 4529   4.608  11.906   9.619
67566SOL     OW 4530  14.677   0.522   7.727
67566SOL    HW1 4531  14.671   0.529   7.632
67566SOL    HW2 4532  14.709   0.607   7.756
67567SOL     OW 4533  13.824   3.957   4.491
67567SOL    HW1 4534  13.799   4.044   4.520
67567SOL    HW2 4535  13.856   3.969   4.401
67568SOL     OW 4536  14.059  12.029   0.083
67568SOL    HW1 4537  14.063  11.999  14.872
67568SOL    HW2 4538  14.140  11.996   0.123
67569SOL     OW 4539   8.100  14.021  10.027
67569SOL    HW1 4540   8.039  14.075  10.078
67569SOL    HW2 4541   8.109  13.941  10.078
67570SOL     OW 4542  10.512   5.826  11.169
67570SOL    HW1 4543  10.488   5.799  11.081
67570SOL    HW2 4544  10.467   5.910  11.181
67571SOL     OW 4545   1.421   2.048   9.447
67571SOL    HW1 4546   1.482   1.987   9.407
67571SOL    HW2 4547   1.345   2.048   9.388
67572SOL     OW 4548   5.811  12.326   0.621
67572SOL    HW1 4549   5.902  12.356   0.626
67572SOL    HW2 4550   5.771  12.359   0.701
67573SOL     OW 4551  10.398   5.347   8.887
67573SOL    HW1 4552  10.377   5.407   8.815
67573SOL    HW2 4553  10.329   5.281   8.883
67574SOL     OW 4554  13.337   2.681   8.146
67574SOL    HW1 4555  13.433   2.685   8.140
67574SOL    HW2 4556  13.308   2.679   8.055
67575SOL     OW 4557   8.148   7.807  11.402
67575SOL    HW1 4558   8.109   7.858  11.472
67575SOL    HW2 4559   8.112   7.844  11.322
67576SOL     OW 4560   0.427  11.187   9.725
67576SOL    HW1 4561   0.440  11.169   9.632
67576SOL    HW2 4562   0.509  11.229   9.753
67577SOL     OW 4563  14.133   5.860  12.795
67577SOL    HW1 4564  14.080   5.784  12.818
67577SOL    HW2 4565  14.071   5.924  12.760
67578SOL     OW 4566   1.335   7.737   4.367
67578SOL    HW1 4567   1.347   7.685   4.446
67578SOL    HW2 4568   1.397   7.702   4.304
67579SOL     OW 4569   0.930   3.805   8.351
67579SOL    HW1 4570   1.004   3.864   8.362
67579SOL    HW2 4571   0.857   3.862   8.329
67580SOL     OW 4572  11.090   5.393  13.055
67580SOL    HW1 4573  11.028   5.333  13.013
67580SOL    HW2 4574  11.128   5.343  13.126
67581SOL     OW 4575   0.293   7.386   6.932
67581SOL    HW1 4576   0.282   7.337   6.851
67581SOL    HW2 4577   0.213   7.438   6.940
67582SOL     OW 4578  13.473  14.268  10.046
67582SOL    HW1 4579  13.416  14.260  10.122
67582SOL    HW2 4580  13.525  14.346  10.063
67583SOL     OW 4581   7.429  11.803  12.403
67583SOL    HW1 4582   7.501  11.768  12.350
67583SOL    HW2 4583   7.453  11.783  12.493
67584SOL     OW 4584   1.816  11.703   4.540
67584SOL    HW1 4585   1.840  11.614   4.513
67584SOL    HW2 4586   1.721  11.701   4.548
67585SOL     OW 4587   5.819   2.548  12.794
67585SOL    HW1 4588   5.833   2.586  12.881
67585SOL    HW2 4589   5.729   2.571  12.772
67586SOL     OW 4590   9.477   8.651   4.174
67586SOL    HW1 4591   9.383   8.648   4.154
67586SOL    HW2 4592   9.481   8.659   4.269
67587SOL     OW 4593  14.017   9.595  12.657
67587SOL    HW1 4594  13.943   9.654  12.642
67587SOL    HW2 4595  13.986   9.533  12.723
67588SOL     OW 4596   9.419   9.900   4.107
67588SOL    HW1 4597   9.466   9.917   4.189
67588SOL    HW2 4598   9.414   9.986   4.065
67589SOL     OW 4599  14.437  10.944   9.367
67589SOL    HW1 4600  14.407  10.946   9.458
67589SOL    HW2 4601  14.386  10.873   9.328
67590SOL     OW 4602   1.733   6.364   3.960
67590SOL    HW1 4603   1.801   6.389   3.898
67590SOL    HW2 4604   1.659   6.421   3.938
67591SOL     OW 4605  14.031   2.206   1.748
67591SOL    HW1 4606  14.105   2.236   1.801
67591SOL    HW2 4607  13.980   2.152   1.809
67592SOL     OW 4608  14.369  14.007   6.390
67592SOL    HW1 4609  14.455  13.977   6.421
67592SOL    HW2 4610  14.340  14.071   6.455
67593SOL     OW 4611   8.168   9.134   4.187
67593SOL    HW1 4612   8.202   9.222   4.204
67593SOL    HW2 4613   8.109   9.118   4.260
67594SOL     OW 4614  12.858  14.149  12.761
67594SOL    HW1 4615  12.798  14.116  12.694
67594SOL    HW2 4616  12.946  14.134  12.724
67595SOL     OW 4617  13.824   9.977  10.460
67595SOL    HW1 4618  13.804   9.966  10.553
67595SOL    HW2 4619  13.790   9.898  10.418
67596SOL     OW 4620  12.686   2.591  13.643
67596SOL    HW1 4621  12.694   2.683  13.666
67596SOL    HW2 4622  12.775   2.556  13.653
67597SOL     OW 4623  12.057   3.745   9.805
67597SOL    HW1 4624  12.076   3.775   9.894
67597SOL    HW2 4625  12.041   3.651   9.813
67598SOL     OW 4626   8.442   0.762  14.656
67598SOL    HW1 4627   8.442   0.824  14.583
67598SOL    HW2 4628   8.383   0.692  14.627
67599SOL     OW 4629  11.431  11.470   2.072
67599SOL    HW1 4630  11.340  11.475   2.100
67599SOL    HW2 4631  11.481  11.504   2.146
67600SOL     OW 4632   8.469  13.332   0.637
67600SOL    HW1 4633   8.459  13.424   0.613
67600SOL    HW2 4634   8.419  13.284   0.571
67601SOL     OW 4635   4.098   0.383   8.536
67601SOL    HW1 4636   4.157   0.429   8.595
67601SOL    HW2 4637   4.155   0.348   8.467
67602SOL     OW 4638   0.898  11.569   6.408
67602SOL    HW1 4639   0.942  11.572   6.493
67602SOL    HW2 4640   0.805  11.579   6.430
67603SOL     OW 4641   9.643   5.497  12.901
67603SOL    HW1 4642   9.606   5.536  12.822
67603SOL    HW2 4643   9.610   5.406  12.900
67604SOL     OW 4644   1.755   1.198   8.495
67604SOL    HW1 4645   1.764   1.201   8.590
67604SOL    HW2 4646   1.839   1.167   8.463
67605SOL     OW 4647  11.881  11.703  13.853
67605SOL    HW1 4648  11.915  11.639  13.915
67605SOL    HW2 4649  11.933  11.690  13.773
67606SOL     OW 4650  13.091   2.937  11.295
67606SOL    HW1 4651  13.162   2.899  11.346
67606SOL    HW2 4652  13.015   2.933  11.353
67607SOL     OW 4653   5.748  13.255   0.521
67607SOL    HW1 4654   5.832  13.263   0.565
67607SOL    HW2 4655   5.723  13.345   0.500
67608SOL     OW 4656  13.785   2.709   2.231
67608SOL    HW1 4657  13.712   2.745   2.180
67608SOL    HW2 4658  13.862   2.753   2.195
67609SOL     OW 4659   0.214   6.507   7.174
67609SOL    HW1 4660   0.233   6.540   7.262
67609SOL    HW2 4661   0.275   6.553   7.117
67610SOL     OW 4662   4.309   8.062  11.782
67610SOL    HW1 4663   4.256   8.129  11.739
67610SOL    HW2 4664   4.367   8.111  11.841
67611SOL     OW 4665   4.592  13.714  12.303
67611SOL    HW1 4666   4.599  13.776  12.231
67611SOL    HW2 4667   4.557  13.766  12.376
67612SOL     OW 4668  13.273   3.513   5.715
67612SOL    HW1 4669  13.281   3.448   5.785
67612SOL    HW2 4670  13.179   3.531   5.710
67613SOL     OW 4671   2.162  13.909   4.311
67613SOL    HW1 4672   2.165  13.881   4.403
67613SOL    HW2 4673   2.077  13.879   4.280
67614SOL     OW 4674   2.230   0.820  10.464
67614SOL    HW1 4675   2.204   0.766  10.539
67614SOL    HW2 4676   2.282   0.891  10.503
67615SOL     OW 4677   9.899  10.678   9.066
67615SOL    HW1 4678   9.847  10.757   9.083
67615SOL    HW2 4679   9.967  10.706   9.006
67616SOL     OW 4680   3.409  13.647   0.091
67616SOL    HW1 4681   3.382  13.734   0.061
67616SOL    HW2 4682   3.503  13.644   0.073
67617SOL     OW 4683   2.961   7.717   5.255
67617SOL    HW1 4684   2.985   7.809   5.256
67617SOL    HW2 4685   2.972   7.691   5.163
67618SOL     OW 4686  11.543  11.385   8.371
67618SOL    HW1 4687  11.484  11.393   8.446
67618SOL    HW2 4688  11.567  11.475   8.349
67619SOL     OW 4689   7.012   2.531   2.700
67619SOL    HW1 4690   7.023   2.602   2.764
67619SOL    HW2 4691   7.060   2.457   2.737
67620SOL     OW 4692   8.644   4.427  11.378
67620SOL    HW1 4693   8.632   4.340  11.339
67620SOL    HW2 4694   8.571   4.437  11.438
67621SOL     OW 4695   8.711   2.266  13.367
67621SOL    HW1 4696   8.663   2.205  13.423
67621SOL    HW2 4697   8.767   2.315  13.427
67622SOL     OW 4698   8.899   4.673   7.640
67622SOL    HW1 4699   8.956   4.661   7.565
67622SOL    HW2 4700   8.953   4.719   7.704
67623SOL     OW 4701  12.059  10.827   2.712
67623SOL    HW1 4702  11.996  10.837   2.640
67623SOL    HW2 4703  12.122  10.762   2.680
67624SOL     OW 4704  13.195   1.110  14.205
67624SOL    HW1 4705  13.148   1.053  14.143
67624SOL    HW2 4706  13.146   1.191  14.205
67625SOL     OW 4707  14.694  13.376  11.697
67625SOL    HW1 4708  14.769  13.326  11.664
67625SOL    HW2 4709  14.620  13.316  11.689
67626SOL     OW 4710  12.627  14.507   2.547
67626SOL    HW1 4711  12.688  14.580   2.552
67626SOL    HW2 4712  12.681  14.430   2.565
67627SOL     OW 4713   3.155   8.659  14.700
67627SOL    HW1 4714   3.159   8.618  14.614
67627SOL    HW2 4715   3.165   8.587  14.762
67628SOL     OW 4716   1.124  10.580   3.194
67628SOL    HW1 4717   1.209  10.544   3.218
67628SOL    HW2 4718   1.114  10.657   3.249
67629SOL     OW 4719   6.243   6.729   2.303
67629SOL    HW1 4720   6.252   6.701   2.212
67629SOL    HW2 4721   6.332   6.755   2.329
67630SOL     OW 4722  10.521   1.323  13.748
67630SOL    HW1 4723  10.608   1.310  13.785
67630SOL    HW2 4724  10.484   1.396  13.799
67631SOL     OW 4725   1.053  11.656   4.491
67631SOL    HW1 4726   0.999  11.587   4.453
67631SOL    HW2 4727   1.001  11.691   4.563
67632SOL     OW 4728   4.876   2.960   0.430
67632SOL    HW1 4729   4.792   2.979   0.470
67632SOL    HW2 4730   4.889   3.030   0.366
67633SOL     OW 4731  11.318   0.297  11.869
67633SOL    HW1 4732  11.322   0.202  11.861
67633SOL    HW2 4733  11.408   0.327  11.853
67634SOL     OW 4734   2.663  10.085   9.397
67634SOL    HW1 4735   2.614  10.015   9.354
67634SOL    HW2 4736   2.679  10.052   9.485
67635SOL     OW 4737  10.321   0.544  12.435
67635SOL    HW1 4738  10.237   0.576  12.467
67635SOL    HW2 4739  10.312   0.448  12.436
67636SOL     OW 4740   7.645   1.808   4.176
67636SOL    HW1 4741   7.690   1.765   4.249
67636SOL    HW2 4742   7.556   1.773   4.179
67637SOL     OW 4743   9.048   8.941   6.659
67637SOL    HW1 4744   9.076   8.852   6.678
67637SOL    HW2 4745   9.029   8.980   6.744
67638SOL     OW 4746   3.934   5.717   7.088
67638SOL    HW1 4747   3.995   5.737   7.159
67638SOL    HW2 4748   3.936   5.622   7.081
67639SOL     OW 4749   0.637   0.198   9.459
67639SOL    HW1 4750   0.687   0.187   9.378
67639SOL    HW2 4751   0.701   0.231   9.522
67640SOL     OW 4752  12.865  12.670   7.019
67640SOL    HW1 4753  12.877  12.576   7.020
67640SOL    HW2 4754  12.921  12.703   7.089
67641SOL     OW 4755   0.278   5.597   3.596
67641SOL    HW1 4756   0.208   5.647   3.553
67641SOL    HW2 4757   0.241   5.575   3.682
67642SOL     OW 4758   5.591   6.861   8.815
67642SOL    HW1 4759   5.621   6.880   8.726
67642SOL    HW2 4760   5.564   6.946   8.851
67643SOL     OW 4761   8.022  13.872   4.933
67643SOL    HW1 4762   7.929  13.854   4.919
67643SOL    HW2 4763   8.023  13.945   4.995
67644SOL     OW 4764  14.107   4.923   4.315
67644SOL    HW1 4765  14.138   4.911   4.405
67644SOL    HW2 4766  14.093   5.018   4.307
67645SOL     OW 4767   7.937   5.328   8.425
67645SOL    HW1 4768   8.026   5.355   8.404
67645SOL    HW2 4769   7.899   5.303   8.341
67646SOL     OW 4770   0.729   8.776   9.054
67646SOL    HW1 4771   0.662   8.727   9.102
67646SOL    HW2 4772   0.680   8.825   8.988
67647SOL     OW 4773  13.806   4.314   9.046
67647SOL    HW1 4774  13.856   4.321   9.127
67647SOL    HW2 4775  13.733   4.375   9.056
67648SOL     OW 4776   9.565   6.748   4.094
67648SOL    HW1 4777   9.535   6.780   4.010
67648SOL    HW2 4778   9.600   6.661   4.075
67649SOL     OW 4779   8.343  12.867  10.967
67649SOL    HW1 4780   8.416  12.854  10.907
67649SOL    HW2 4781   8.293  12.939  10.928
67650SOL     OW 4782  11.796   5.200  11.108
67650SOL    HW1 4783  11.803   5.106  11.128
67650SOL    HW2 4784  11.815   5.244  11.191
67651SOL     OW 4785   7.687   2.654   2.327
67651SOL    HW1 4786   7.642   2.736   2.348
67651SOL    HW2 4787   7.617   2.591   2.310
67652SOL     OW 4788   9.236  10.277   2.667
67652SOL    HW1 4789   9.223  10.182   2.665
67652SOL    HW2 4790   9.206  10.304   2.753
67653SOL     OW 4791  13.564  10.737  11.472
67653SOL    HW1 4792  13.633  10.724  11.407
67653SOL    HW2 4793  13.611  10.740  11.555
67654SOL     OW 4794  12.532  13.756   9.928
67654SOL    HW1 4795  12.498  13.842   9.904
67654SOL    HW2 4796  12.565  13.719   9.846
67655SOL     OW 4797   8.872   2.508   6.886
67655SOL    HW1 4798   8.829   2.496   6.801
67655SOL    HW2 4799   8.837   2.438   6.941
67656SOL     OW 4800  14.862  13.759  11.784
67656SOL    HW1 4801  14.856  13.676  11.831
67656SOL    HW2 4802   0.039  13.814  11.839
67657SOL     OW 4803   0.059   4.448  12.758
67657SOL    HW1 4804   0.042   4.534  12.719
67657SOL    HW2 4805  14.878   4.444  12.833
67658SOL     OW 4806   6.805   7.596   6.505
67658SOL    HW1 4807   6.744   7.634   6.443
67658SOL    HW2 4808   6.877   7.659   6.510
67659SOL     OW 4809   9.318   3.681   9.631
67659SOL    HW1 4810   9.288   3.752   9.687
67659SOL    HW2 4811   9.388   3.638   9.680
67660SOL     OW 4812  12.496  14.158   0.640
67660SOL    HW1 4813  12.552  14.203   0.577
67660SOL    HW2 4814  12.408  14.165   0.603
67661SOL     OW 4815   9.141   4.918   5.464
67661SOL    HW1 4816   9.162   4.829   5.494
67661SOL    HW2 4817   9.190   4.975   5.523
67662SOL     OW 4818  11.156   4.424   9.879
67662SOL    HW1 4819  11.164   4.408   9.973
67662SOL    HW2 4820  11.212   4.357   9.839
67663SOL     OW 4821   7.564   9.597  11.566
67663SOL    HW1 4822   7.471   9.608  11.583
67663SOL    HW2 4823   7.603   9.681  11.590
67664SOL     OW 4824   0.182   4.981   7.747
67664SOL    HW1 4825   0.264   4.985   7.698
67664SOL    HW2 4826   0.132   4.912   7.704
67665SOL     OW 4827   9.356   7.892  13.448
67665SOL    HW1 4828   9.290   7.848  13.394
67665SOL    HW2 4829   9.306   7.937  13.516
67666SOL     OW 4830   0.533   4.163  13.806
67666SOL    HW1 4831   0.461   4.112  13.769
67666SOL    HW2 4832   0.493   4.244  13.836
67667SOL     OW 4833   3.815  10.262   1.387
67667SOL    HW1 4834   3.836  10.330   1.450
67667SOL    HW2 4835   3.720  10.257   1.388
67668SOL     OW 4836   4.342   8.275   2.371
67668SOL    HW1 4837   4.277   8.205   2.364
67668SOL    HW2 4838   4.362   8.280   2.464
67669SOL     OW 4839   4.167   4.268   0.810
67669SOL    HW1 4840   4.090   4.229   0.770
67669SOL    HW2 4841   4.236   4.202   0.800
67670SOL     OW 4842   6.752  12.313   8.605
67670SOL    HW1 4843   6.666  12.324   8.566
67670SOL    HW2 4844   6.750  12.226   8.646
67671SOL     OW 4845  12.628  13.715   5.844
67671SOL    HW1 4846  12.684  13.700   5.921
67671SOL    HW2 4847  12.686  13.756   5.780
67672SOL     OW 4848   8.210  12.279  12.092
67672SOL    HW1 4849   8.139  12.246  12.037
67672SOL    HW2 4850   8.166  12.326  12.163
67673SOL     OW 4851   0.239  10.324  12.264
67673SOL    HW1 4852   0.203  10.356  12.181
67673SOL    HW2 4853   0.165  10.281  12.307
67674SOL     OW 4854  14.617   8.045   6.269
67674SOL    HW1 4855  14.568   8.107   6.324
67674SOL    HW2 4856  14.664   8.100   6.206
67675SOL     OW 4857   5.991   2.106   8.422
67675SOL    HW1 4858   5.989   2.100   8.517
67675SOL    HW2 4859   5.900   2.116   8.396
67676SOL     OW 4860   6.060  14.599   5.870
67676SOL    HW1 4861   6.155  14.595   5.853
67676SOL    HW2 4862   6.020  14.582   5.785
67677SOL     OW 4863  10.122   1.336   7.291
67677SOL    HW1 4864  10.162   1.317   7.206
67677SOL    HW2 4865  10.092   1.251   7.322
67678SOL     OW 4866  14.607  14.403  14.266
67678SOL    HW1 4867  14.653  14.442  14.192
67678SOL    HW2 4868  14.596  14.475  14.328
67679SOL     OW 4869   4.875  10.932   1.248
67679SOL    HW1 4870   4.955  10.927   1.301
67679SOL    HW2 4871   4.829  11.008   1.283
67680SOL     OW 4872   0.807  13.250   6.926
67680SOL    HW1 4873   0.737  13.314   6.930
67680SOL    HW2 4874   0.763  13.165   6.925
67681SOL     OW 4875  14.287  13.387   7.334
67681SOL    HW1 4876  14.252  13.329   7.266
67681SOL    HW2 4877  14.258  13.348   7.416
67682SOL     OW 4878  11.710   9.227   7.175
67682SOL    HW1 4879  11.658   9.150   7.199
67682SOL    HW2 4880  11.664   9.300   7.216
67683SOL     OW 4881  12.794   2.195   7.212
67683SOL    HW1 4882  12.810   2.260   7.144
67683SOL    HW2 4883  12.819   2.112   7.173
67684SOL     OW 4884  13.678   7.159   7.755
67684SOL    HW1 4885  13.675   7.204   7.671
67684SOL    HW2 4886  13.767   7.176   7.788
67685SOL     OW 4887  10.303   6.807   6.887
67685SOL    HW1 4888  10.259   6.743   6.944
67685SOL    HW2 4889  10.375   6.841   6.941
67686SOL     OW 4890   9.649   5.755   2.487
67686SOL    HW1 4891   9.720   5.717   2.539
67686SOL    HW2 4892   9.579   5.769   2.550
67687SOL     OW 4893   0.786   4.335  12.565
67687SOL    HW1 4894   0.769   4.430  12.568
67687SOL    HW2 4895   0.713   4.296  12.612
67688SOL     OW 4896   0.574   2.511   9.721
67688SOL    HW1 4897   0.639   2.511   9.791
67688SOL    HW2 4898   0.602   2.440   9.662
67689SOL     OW 4899   7.486   8.042   4.666
67689SOL    HW1 4900   7.433   8.120   4.658
67689SOL    HW2 4901   7.444   7.990   4.735
67690SOL     OW 4902   4.450   8.171  11.496
67690SOL    HW1 4903   4.451   8.088  11.449
67690SOL    HW2 4904   4.492   8.151  11.580
67691SOL     OW 4905   6.816   7.555  13.803
67691SOL    HW1 4906   6.909   7.571  13.814
67691SOL    HW2 4907   6.776   7.587  13.884
67692SOL     OW 4908   5.445   7.269   4.440
67692SOL    HW1 4909   5.465   7.243   4.350
67692SOL    HW2 4910   5.505   7.341   4.459
67693SOL     OW 4911  14.454   4.745  13.254
67693SOL    HW1 4912  14.518   4.811  13.228
67693SOL    HW2 4913  14.371   4.793  13.258
67694SOL     OW 4914   2.377  11.135   4.200
67694SOL    HW1 4915   2.346  11.047   4.177
67694SOL    HW2 4916   2.357  11.188   4.123
67695SOL     OW 4917   2.081  14.546   0.556
67695SOL    HW1 4918   2.087  14.635   0.521
67695SOL    HW2 4919   1.994  14.516   0.529
67696SOL     OW 4920   6.489   7.087  10.715
67696SOL    HW1 4921   6.399   7.058  10.704
67696SOL    HW2 4922   6.530   7.017  10.767
67697SOL     OW 4923   5.435   6.265   1.893
67697SOL    HW1 4924   5.368   6.329   1.916
67697SOL    HW2 4925   5.392   6.207   1.830
67698SOL     OW 4926   8.687   2.523   4.526
67698SOL    HW1 4927   8.681   2.513   4.431
67698SOL    HW2 4928   8.727   2.441   4.556
67699SOL     OW 4929  13.854   9.066  14.498
67699SOL    HW1 4930  13.882   9.026  14.581
67699SOL    HW2 4931  13.836   9.157  14.521
67700SOL     OW 4932   8.092   2.126  12.477
67700SOL    HW1 4933   8.124   2.214  12.458
67700SOL    HW2 4934   8.021   2.140  12.541
67701SOL     OW 4935   8.373   2.096   8.175
67701SOL    HW1 4936   8.396   2.004   8.164
67701SOL    HW2 4937   8.429   2.126   8.247
67702SOL     OW 4938   3.178   4.571  12.668
67702SOL    HW1 4939   3.204   4.509  12.600
67702SOL    HW2 4940   3.194   4.657  12.630
67703SOL     OW 4941  13.439   7.840  13.457
67703SOL    HW1 4942  13.521   7.888  13.462
67703SOL    HW2 4943  13.438   7.785  13.536
67704SOL     OW 4944   9.004  14.649   4.955
67704SOL    HW1 4945   8.996  14.621   5.046
67704SOL    HW2 4946   9.079  14.709   4.955
67705SOL     OW 4947   4.411   8.366   5.173
67705SOL    HW1 4948   4.360   8.413   5.107
67705SOL    HW2 4949   4.498   8.358   5.135
67706SOL     OW 4950   6.604   5.788   3.747
67706SOL    HW1 4951   6.543   5.854   3.779
67706SOL    HW2 4952   6.558   5.745   3.675
67707SOL     OW 4953   0.622   4.739  10.107
67707SOL    HW1 4954   0.687   4.680  10.145
67707SOL    HW2 4955   0.665   4.775  10.029
67708SOL     OW 4956   4.426   4.094  10.644
67708SOL    HW1 4957   4.374   4.174  10.653
67708SOL    HW2 4958   4.406   4.043  10.722
67709SOL     OW 4959   0.823   1.396  11.038
67709SOL    HW1 4960   0.823   1.489  11.060
67709SOL    HW2 4961   0.849   1.393  10.946
67710SOL     OW 4962   7.314  10.396  10.411
67710SOL    HW1 4963   7.251  10.458  10.375
67710SOL    HW2 4964   7.286  10.310  10.379
67711SOL     OW 4965  14.106   2.265  10.985
67711SOL    HW1 4966  14.110   2.172  11.007
67711SOL    HW2 4967  14.091   2.309  11.068
67712SOL     OW 4968  12.294  13.751   0.745
67712SOL    HW1 4969  12.338  13.728   0.663
67712SOL    HW2 4970  12.228  13.814   0.719
67713SOL     OW 4971   0.590   9.568   8.800
67713SOL    HW1 4972   0.584   9.543   8.893
67713SOL    HW2 4973   0.499   9.571   8.771
67714SOL     OW 4974  14.671   4.084   5.374
67714SOL    HW1 4975  14.747   4.135   5.402
67714SOL    HW2 4976  14.602   4.149   5.360
67715SOL     OW 4977   1.388   1.593  13.645
67715SOL    HW1 4978   1.357   1.504  13.631
67715SOL    HW2 4979   1.313   1.638  13.685
67716SOL     OW 4980   3.505   0.265   4.469
67716SOL    HW1 4981   3.414   0.261   4.498
67716SOL    HW2 4982   3.507   0.213   4.389
67717SOL     OW 4983   6.382  12.948  11.498
67717SOL    HW1 4984   6.316  12.891  11.537
67717SOL    HW2 4985   6.464  12.922  11.539
67718SOL     OW 4986   4.040  11.372   3.022
67718SOL    HW1 4987   4.096  11.417   2.958
67718SOL    HW2 4988   4.024  11.286   2.983
67719SOL     OW 4989   1.601   3.180   1.732
67719SOL    HW1 4990   1.669   3.118   1.704
67719SOL    HW2 4991   1.529   3.125   1.762
67720SOL     OW 4992  14.401  10.397   0.913
67720SOL    HW1 4993  14.470  10.460   0.937
67720SOL    HW2 4994  14.326  10.452   0.890
67721SOL     OW 4995  14.036   9.746   2.925
67721SOL    HW1 4996  14.030   9.824   2.870
67721SOL    HW2 4997  14.118   9.704   2.898
67722SOL     OW 4998   2.705  13.604   5.116
67722SOL    HW1 4999   2.660  13.521   5.129
67722SOL    HW2 5000   2.789  13.580   5.077
67723SOL     OW 5001   0.417   5.285   4.155
67723SOL    HW1 5002   0.495   5.309   4.104
67723SOL    HW2 5003   0.388   5.368   4.193
67724SOL     OW 5004  14.640   3.698  13.053
67724SOL    HW1 5005  14.573   3.645  13.011
67724SOL    HW2 5006  14.719   3.686  13.000
67725SOL     OW 5007   1.358   3.584   8.709
67725SOL    HW1 5008   1.326   3.666   8.673
67725SOL    HW2 5009   1.347   3.520   8.639
67726SOL     OW 5010   0.042   2.539   5.724
67726SOL    HW1 5011   0.001   2.622   5.699
67726SOL    HW2 5012  14.862   2.472   5.689
67727SOL     OW 5013  10.192   6.026   3.810
67727SOL    HW1 5014  10.207   6.118   3.830
67727SOL    HW2 5015  10.125   6.027   3.741
67728SOL     OW 5016   1.461   0.989   3.374
67728SOL    HW1 5017   1.540   1.032   3.343
67728SOL    HW2 5018   1.455   0.909   3.322
67729SOL     OW 5019   0.582  11.599   9.141
67729SOL    HW1 5020   0.521  11.562   9.077
67729SOL    HW2 5021   0.548  11.571   9.226
67730SOL     OW 5022  13.150   6.916  13.310
67730SOL    HW1 5023  13.177   6.888  13.398
67730SOL    HW2 5024  13.196   6.856  13.251
67731SOL     OW 5025  11.409  10.480  14.042
67731SOL    HW1 5026  11.485  10.489  13.985
67731SOL    HW2 5027  11.444  10.487  14.130
67732SOL     OW 5028   7.788   0.119  10.946
67732SOL    HW1 5029   7.748   0.076  11.022
67732SOL    HW2 5030   7.762   0.064  10.872
67733SOL     OW 5031   1.842  10.810   3.208
67733SOL    HW1 5032   1.764  10.827   3.154
67733SOL    HW2 5033   1.914  10.852   3.160
67734SOL     OW 5034   4.690  10.738   0.739
67734SOL    HW1 5035   4.769  10.775   0.778
67734SOL    HW2 5036   4.687  10.648   0.772
67735SOL     OW 5037   3.257  14.493   7.965
67735SOL    HW1 5038   3.345  14.457   7.961
67735SOL    HW2 5039   3.222  14.461   8.048
67736SOL     OW 5040   5.081  14.148   8.673
67736SOL    HW1 5041   5.107  14.155   8.765
67736SOL    HW2 5042   4.988  14.169   8.673
67737SOL     OW 5043   6.273   6.066   5.943
67737SOL    HW1 5044   6.264   6.027   6.031
67737SOL    HW2 5045   6.302   5.993   5.888
67738SOL     OW 5046   4.401   2.845   9.203
67738SOL    HW1 5047   4.316   2.803   9.220
67738SOL    HW2 5048   4.386   2.937   9.225
67739SOL     OW 5049   8.790   0.406  11.323
67739SOL    HW1 5050   8.744   0.341  11.376
67739SOL    HW2 5051   8.751   0.490  11.348
67740SOL     OW 5052   4.803   7.973  14.403
67740SOL    HW1 5053   4.820   7.898  14.460
67740SOL    HW2 5054   4.862   7.961  14.328
67741SOL     OW 5055  12.779   5.550   1.966
67741SOL    HW1 5056  12.830   5.595   1.900
67741SOL    HW2 5057  12.843   5.527   2.034
67742SOL     OW 5058   0.188  14.643   9.934
67742SOL    HW1 5059   0.120  14.698   9.972
67742SOL    HW2 5060   0.210  14.581  10.003
67743SOL     OW 5061  12.553   1.690   8.973
67743SOL    HW1 5062  12.600   1.651   8.899
67743SOL    HW2 5063  12.465   1.707   8.940
67744SOL     OW 5064   3.704  13.436   0.594
67744SOL    HW1 5065   3.648  13.512   0.586
67744SOL    HW2 5066   3.793  13.472   0.604
67745SOL     OW 5067   5.600  14.636  10.048
67745SOL    HW1 5068   5.654  14.562  10.076
67745SOL    HW2 5069   5.547  14.600   9.976
67746SOL     OW 5070  13.635   9.197   4.765
67746SOL    HW1 5071  13.565   9.230   4.709
67746SOL    HW2 5072  13.706   9.175   4.704
67747SOL     OW 5073   2.714   7.934   6.799
67747SOL    HW1 5074   2.638   7.982   6.766
67747SOL    HW2 5075   2.755   7.897   6.720
67748SOL     OW 5076  14.577  11.824   7.682
67748SOL    HW1 5077  14.567  11.782   7.768
67748SOL    HW2 5078  14.493  11.868   7.668
67749SOL     OW 5079  13.655   5.597   2.252
67749SOL    HW1 5080  13.593   5.641   2.311
67749SOL    HW2 5081  13.628   5.505   2.253
67750SOL     OW 5082  14.554  10.692   7.540
67750SOL    HW1 5083  14.497  10.616   7.554
67750SOL    HW2 5084  14.612  10.665   7.468
67751SOL     OW 5085   2.337  10.897  11.766
67751SOL    HW1 5086   2.244  10.906  11.789
67751SOL    HW2 5087   2.355  10.972  11.710
67752SOL     OW 5088   8.912  14.710   3.871
67752SOL    HW1 5089   8.854  14.718   3.795
67752SOL    HW2 5090   8.920  14.615   3.885
67753SOL     OW 5091  12.863   8.793  10.299
67753SOL    HW1 5092  12.798   8.732  10.335
67753SOL    HW2 5093  12.932   8.737  10.264
67754SOL     OW 5094  14.073   2.581   9.751
67754SOL    HW1 5095  14.128   2.633   9.691
67754SOL    HW2 5096  14.128   2.567   9.828
67755SOL     OW 5097   7.367  10.799  11.562
67755SOL    HW1 5098   7.317  10.739  11.618
67755SOL    HW2 5099   7.420  10.741  11.507
67756SOL     OW 5100   2.572   7.499   7.831
67756SOL    HW1 5101   2.534   7.574   7.786
67756SOL    HW2 5102   2.524   7.494   7.914
67757SOL     OW 5103   4.961  14.414   3.318
67757SOL    HW1 5104   5.052  14.442   3.313
67757SOL    HW2 5105   4.946  14.366   3.236
67758SOL     OW 5106  10.782  14.754   2.506
67758SOL    HW1 5107  10.708  14.768   2.565
67758SOL    HW2 5108  10.786  14.659   2.494
67759SOL     OW 5109   5.243   8.181  10.919
67759SOL    HW1 5110   5.323   8.219  10.953
67759SOL    HW2 5111   5.180   8.253  10.920
67760SOL     OW 5112   8.492  13.876  14.245
67760SOL    HW1 5113   8.501  13.959  14.292
67760SOL    HW2 5114   8.480  13.901  14.154
67761SOL     OW 5115  14.616  14.815   3.891
67761SOL    HW1 5116  14.601  14.751   3.961
67761SOL    HW2 5117  14.533  14.818   3.844
67762SOL     OW 5118   5.976   7.083   1.721
67762SOL    HW1 5119   6.008   7.159   1.672
67762SOL    HW2 5120   5.890   7.110   1.754
67763SOL     OW 5121   1.096   4.873   2.621
67763SOL    HW1 5122   1.164   4.937   2.601
67763SOL    HW2 5123   1.015   4.913   2.590
67764SOL     OW 5124   2.939   7.485   2.830
67764SOL    HW1 5125   2.962   7.414   2.890
67764SOL    HW2 5126   2.946   7.446   2.743
67765SOL     OW 5127   1.153   2.921   1.065
67765SOL    HW1 5128   1.123   3.009   1.042
67765SOL    HW2 5129   1.148   2.872   0.983
67766SOL     OW 5130   5.892   4.739   3.518
67766SOL    HW1 5131   5.900   4.657   3.471
67766SOL    HW2 5132   5.800   4.764   3.509
67767SOL     OW 5133   4.385  13.344   3.296
67767SOL    HW1 5134   4.437  13.418   3.330
67767SOL    HW2 5135   4.294  13.369   3.312
67768SOL     OW 5136  13.619   8.939   3.458
67768SOL    HW1 5137  13.584   8.883   3.389
67768SOL    HW2 5138  13.560   8.926   3.532
67769SOL     OW 5139   1.969   3.475   7.576
67769SOL    HW1 5140   1.982   3.473   7.481
67769SOL    HW2 5141   1.903   3.543   7.590
67770SOL     OW 5142   5.743   0.242   1.179
67770SOL    HW1 5143   5.741   0.304   1.252
67770SOL    HW2 5144   5.654   0.209   1.173
67771SOL     OW 5145   0.986   1.996  12.609
67771SOL    HW1 5146   1.050   2.065  12.592
67771SOL    HW2 5147   1.007   1.965  12.697
67772SOL     OW 5148   4.041   4.784  13.832
67772SOL    HW1 5149   3.988   4.747  13.903
67772SOL    HW2 5150   4.093   4.852  13.874
67773SOL     OW 5151  13.229   0.297   8.002
67773SOL    HW1 5152  13.208   0.230   8.067
67773SOL    HW2 5153  13.279   0.250   7.935
67774SOL     OW 5154   0.843   4.581   2.445
67774SOL    HW1 5155   0.855   4.673   2.469
67774SOL    HW2 5156   0.789   4.584   2.365
67775SOL     OW 5157   5.363  14.019  13.380
67775SOL    HW1 5158   5.385  14.084  13.446
67775SOL    HW2 5159   5.347  14.069  13.300
67776SOL     OW 5160  10.422  14.348  12.830
67776SOL    HW1 5161  10.387  14.410  12.893
67776SOL    HW2 5162  10.507  14.384  12.805
67777SOL     OW 5163   9.960   2.816   8.200
67777SOL    HW1 5164   9.956   2.778   8.112
67777SOL    HW2 5165   9.871   2.844   8.218
67778SOL     OW 5166  11.965   5.308  12.459
67778SOL    HW1 5167  11.909   5.383  12.439
67778SOL    HW2 5168  11.920   5.264  12.531
67779SOL     OW 5169   9.012  13.691  12.002
67779SOL    HW1 5170   8.936  13.710  11.946
67779SOL    HW2 5171   9.039  13.777  12.035
67780SOL     OW 5172   2.338   2.440   4.960
67780SOL    HW1 5173   2.298   2.492   4.891
67780SOL    HW2 5174   2.418   2.488   4.983
67781SOL     OW 5175   4.335   0.779   3.420
67781SOL    HW1 5176   4.424   0.759   3.391
67781SOL    HW2 5177   4.307   0.701   3.468
67782SOL     OW 5178   7.968   2.323   1.836
67782SOL    HW1 5179   7.960   2.302   1.929
67782SOL    HW2 5180   7.891   2.376   1.817
67783SOL     OW 5181  12.329   3.370   5.701
67783SOL    HW1 5182  12.333   3.399   5.609
67783SOL    HW2 5183  12.337   3.275   5.696
67784SOL     OW 5184   6.345  13.874   2.162
67784SOL    HW1 5185   6.403  13.950   2.159
67784SOL    HW2 5186   6.391  13.812   2.219
67785SOL     OW 5187  14.841  10.562  10.502
67785SOL    HW1 5188  14.848  10.618  10.424
67785SOL    HW2 5189   0.050  10.560  10.538
67786SOL     OW 5190   5.565   3.846   8.346
67786SOL    HW1 5191   5.608   3.930   8.328
67786SOL    HW2 5192   5.546   3.848   8.440
67787SOL     OW 5193   9.960   5.680  11.588
67787SOL    HW1 5194   9.982   5.596  11.627
67787SOL    HW2 5195  10.036   5.703  11.535
67788SOL     OW 5196   9.312   6.592  12.956
67788SOL    HW1 5197   9.346   6.631  12.876
67788SOL    HW2 5198   9.310   6.498  12.939
67789SOL     OW 5199   6.578   5.729  13.991
67789SOL    HW1 5200   6.550   5.672  13.920
67789SOL    HW2 5201   6.615   5.670  14.057
67790SOL     OW 5202  13.104  10.865   2.176
67790SOL    HW1 5203  13.175  10.885   2.115
67790SOL    HW2 5204  13.118  10.774   2.200
67791SOL     OW 5205   4.424   0.498   5.481
67791SOL    HW1 5206   4.498   0.523   5.536
67791SOL    HW2 5207   4.377   0.579   5.465
67792SOL     OW 5208   0.450   8.437  12.594
67792SOL    HW1 5209   0.519   8.500  12.573
67792SOL    HW2 5210   0.463   8.416  12.687
67793SOL     OW 5211  10.115   5.275   5.468
67793SOL    HW1 5212  10.200   5.316   5.451
67793SOL    HW2 5213  10.125   5.234   5.554
67794SOL     OW 5214   2.589  11.213   7.324
67794SOL    HW1 5215   2.529  11.280   7.290
67794SOL    HW2 5216   2.593  11.230   7.418
67795SOL     OW 5217   4.152   5.537  13.103
67795SOL    HW1 5218   4.175   5.629  13.107
67795SOL    HW2 5219   4.170   5.503  13.190
67796SOL     OW 5220  11.165  12.059   9.193
67796SOL    HW1 5221  11.208  12.029   9.273
67796SOL    HW2 5222  11.182  11.990   9.129
67797SOL     OW 5223  14.720  14.807  11.141
67797SOL    HW1 5224  14.719  14.870  11.069
67797SOL    HW2 5225  14.738  14.723  11.100
67798SOL     OW 5226   6.348   6.935   7.348
67798SOL    HW1 5227   6.383   7.024   7.354
67798SOL    HW2 5228   6.419   6.879   7.379
67799SOL     OW 5229  14.428  14.752   9.018
67799SOL    HW1 5230  14.448  14.658   9.017
67799SOL    HW2 5231  14.419  14.775   8.925
67800SOL     OW 5232   3.481  11.551  10.717
67800SOL    HW1 5233   3.568  11.516  10.696
67800SOL    HW2 5234   3.495  11.607  10.794
67801SOL     OW 5235   3.396  12.944   7.818
67801SOL    HW1 5236   3.416  13.034   7.843
67801SOL    HW2 5237   3.373  12.950   7.725
67802SOL     OW 5238  14.868   4.597   4.856
67802SOL    HW1 5239  14.846   4.689   4.876
67802SOL    HW2 5240   0.017   4.599   4.764
67803SOL     OW 5241   6.477  12.198   7.995
67803SOL    HW1 5242   6.558  12.170   7.954
67803SOL    HW2 5243   6.431  12.246   7.926
67804SOL     OW 5244  12.560  14.658  11.730
67804SOL    HW1 5245  12.619  14.643  11.656
67804SOL    HW2 5246  12.613  14.638  11.807
67805SOL     OW 5247   4.566   4.893   3.224
67805SOL    HW1 5248   4.601   4.859   3.141
67805SOL    HW2 5249   4.477   4.858   3.228
67806SOL     OW 5250   6.989   9.965   5.773
67806SOL    HW1 5251   6.947  10.034   5.722
67806SOL    HW2 5252   7.044  10.011   5.837
67807SOL     OW 5253   9.418   1.173   1.311
67807SOL    HW1 5254   9.482   1.136   1.372
67807SOL    HW2 5255   9.443   1.136   1.226
67808SOL     OW 5256   4.392  13.610  11.193
67808SOL    HW1 5257   4.342  13.587  11.115
67808SOL    HW2 5258   4.361  13.697  11.217
67809SOL     OW 5259   7.432  11.781  13.366
67809SOL    HW1 5260   7.522  11.806  13.386
67809SOL    HW2 5261   7.440  11.712  13.300
67810SOL     OW 5262  14.448  11.424   9.031
67810SOL    HW1 5263  14.462  11.406   8.938
67810SOL    HW2 5264  14.429  11.339   9.070
67811SOL     OW 5265  11.817  13.371   1.156
67811SOL    HW1 5266  11.814  13.278   1.178
67811SOL    HW2 5267  11.776  13.377   1.070
67812SOL     OW 5268  11.490  11.557   0.407
67812SOL    HW1 5269  11.566  11.544   0.351
67812SOL    HW2 5270  11.525  11.554   0.496
67813SOL     OW 5271   9.216   2.058   6.695
67813SOL    HW1 5272   9.191   2.142   6.657
67813SOL    HW2 5273   9.158   1.995   6.654
67814SOL     OW 5274   9.318   9.968   0.898
67814SOL    HW1 5275   9.340   9.968   0.992
67814SOL    HW2 5276   9.305   9.876   0.876
67815SOL     OW 5277   1.146   2.501   4.747
67815SOL    HW1 5278   1.238   2.528   4.745
67815SOL    HW2 5279   1.098   2.577   4.714
67816SOL     OW 5280   5.885   8.685   2.383
67816SOL    HW1 5281   5.803   8.673   2.432
67816SOL    HW2 5282   5.858   8.718   2.298
67817SOL     OW 5283  11.348   9.489   7.533
67817SOL    HW1 5284  11.316   9.574   7.502
67817SOL    HW2 5285  11.277   9.428   7.514
67818SOL     OW 5286   3.281   0.240   2.814
67818SOL    HW1 5287   3.323   0.156   2.832
67818SOL    HW2 5288   3.353   0.297   2.784
67819SOL     OW 5289   9.591  13.583   2.128
67819SOL    HW1 5290   9.605  13.503   2.180
67819SOL    HW2 5291   9.665  13.585   2.067
67820SOL     OW 5292   9.162   7.357  12.267
67820SOL    HW1 5293   9.219   7.368  12.343
67820SOL    HW2 5294   9.105   7.434  12.268
67821SOL     OW 5295   6.946   4.408   5.435
67821SOL    HW1 5296   6.962   4.470   5.506
67821SOL    HW2 5297   7.015   4.427   5.371
67822SOL     OW 5298   8.021   4.069  14.742
67822SOL    HW1 5299   7.966   3.991  14.753
67822SOL    HW2 5300   8.086   4.044  14.676
67823SOL     OW 5301  13.468  14.421  10.767
67823SOL    HW1 5302  13.373  14.430  10.773
67823SOL    HW2 5303  13.503  14.492  10.821
67824SOL     OW 5304   5.892  13.436  11.204
67824SOL    HW1 5305   5.879  13.388  11.122
67824SOL    HW2 5306   5.874  13.372  11.273
67825SOL     OW 5307   8.023   0.901  14.733
67825SOL    HW1 5308   7.993   0.815  14.764
67825SOL    HW2 5309   7.978   0.914  14.650
67826SOL     OW 5310  11.889  11.064   9.965
67826SOL    HW1 5311  11.833  11.007  10.017
67826SOL    HW2 5312  11.959  11.007   9.933
67827SOL     OW 5313  10.190   0.455   9.399
67827SOL    HW1 5314  10.138   0.531   9.422
67827SOL    HW2 5315  10.135   0.380   9.421
67828SOL     OW 5316   8.490  14.571   1.244
67828SOL    HW1 5317   8.407  14.567   1.197
67828SOL    HW2 5318   8.484  14.650   1.297
67829SOL     OW 5319   4.162   5.666   3.428
67829SOL    HW1 5320   4.171   5.649   3.334
67829SOL    HW2 5321   4.180   5.760   3.437
67830SOL     OW 5322   3.210   1.118   2.362
67830SOL    HW1 5323   3.203   1.036   2.312
67830SOL    HW2 5324   3.129   1.121   2.413
67831SOL     OW 5325   5.708  11.950   2.824
67831SOL    HW1 5326   5.773  11.955   2.894
67831SOL    HW2 5327   5.645  12.019   2.845
67832SOL     OW 5328   4.153   0.164   2.465
67832SOL    HW1 5329   4.067   0.124   2.477
67832SOL    HW2 5330   4.209   0.119   2.528
67833SOL     OW 5331   3.504   3.285  14.734
67833SOL    HW1 5332   3.513   3.190  14.733
67833SOL    HW2 5333   3.411   3.300  14.749
67834SOL     OW 5334   0.187  10.261   3.171
67834SOL    HW1 5335   0.189  10.347   3.128
67834SOL    HW2 5336   0.095  10.249   3.196
67835SOL     OW 5337   8.431   8.787   2.192
67835SOL    HW1 5338   8.474   8.702   2.197
67835SOL    HW2 5339   8.338   8.767   2.191
67836SOL     OW 5340   4.329   1.164   1.912
67836SOL    HW1 5341   4.256   1.226   1.922
67836SOL    HW2 5342   4.331   1.117   1.995
67837SOL     OW 5343   2.735   8.168   1.670
67837SOL    HW1 5344   2.713   8.255   1.635
67837SOL    HW2 5345   2.661   8.145   1.725
67838SOL     OW 5346   6.377   1.111   3.959
67838SOL    HW1 5347   6.449   1.174   3.959
67838SOL    HW2 5348   6.396   1.052   4.032
67839SOL     OW 5349   8.724  12.600   7.566
67839SOL    HW1 5350   8.718  12.504   7.565
67839SOL    HW2 5351   8.704  12.624   7.656
67840SOL     OW 5352   0.224   5.996   9.694
67840SOL    HW1 5353   0.277   6.066   9.656
67840SOL    HW2 5354   0.142   6.039   9.718
67841SOL     OW 5355  11.514   5.345   9.638
67841SOL    HW1 5356  11.452   5.404   9.595
67841SOL    HW2 5357  11.541   5.392   9.717
67842SOL     OW 5358   1.169   3.723  13.665
67842SOL    HW1 5359   1.216   3.660  13.720
67842SOL    HW2 5360   1.180   3.807  13.708
67843SOL     OW 5361   1.727  11.320   7.016
67843SOL    HW1 5362   1.770  11.275   6.943
67843SOL    HW2 5363   1.786  11.393   7.037
67844SOL     OW 5364   3.757  13.095   1.772
67844SOL    HW1 5365   3.790  13.042   1.699
67844SOL    HW2 5366   3.835  13.128   1.815
67845SOL     OW 5367   8.228   7.302  14.074
67845SOL    HW1 5368   8.268   7.389  14.076
67845SOL    HW2 5369   8.291   7.245  14.118
67846SOL     OW 5370   1.510  10.182  11.947
67846SOL    HW1 5371   1.433  10.188  11.891
67846SOL    HW2 5372   1.583  10.207  11.891
67847SOL     OW 5373   7.328   0.634  10.959
67847SOL    HW1 5374   7.260   0.695  10.988
67847SOL    HW2 5375   7.356   0.590  11.039
67848SOL     OW 5376   5.301   6.446   3.228
67848SOL    HW1 5377   5.283   6.539   3.212
67848SOL    HW2 5378   5.238   6.400   3.173
67849SOL     OW 5379   3.561  12.875   8.417
67849SOL    HW1 5380   3.508  12.804   8.452
67849SOL    HW2 5381   3.632  12.832   8.369
67850SOL     OW 5382   3.708   2.224   6.292
67850SOL    HW1 5383   3.722   2.130   6.282
67850SOL    HW2 5384   3.747   2.245   6.377
67851SOL     OW 5385   6.904  13.706   4.277
67851SOL    HW1 5386   6.864  13.695   4.363
67851SOL    HW2 5387   6.919  13.616   4.247
67852SOL     OW 5388  14.415   4.885   2.603
67852SOL    HW1 5389  14.502   4.850   2.625
67852SOL    HW2 5390  14.433   4.968   2.559
67853SOL     OW 5391  12.670   9.163  14.221
67853SOL    HW1 5392  12.705   9.153  14.132
67853SOL    HW2 5393  12.580   9.192  14.208
67854SOL     OW 5394  11.519   6.775   3.373
67854SOL    HW1 5395  11.431   6.793   3.341
67854SOL    HW2 5396  11.577   6.807   3.303
67855SOL     OW 5397  12.233   7.270   5.046
67855SOL    HW1 5398  12.227   7.231   4.959
67855SOL    HW2 5399  12.318   7.242   5.079
67856SOL     OW 5400   6.000  14.813  10.073
67856SOL    HW1 5401   6.071  14.768  10.118
67856SOL    HW2 5402   6.010   0.026  10.099
67857SOL     OW 5403   2.162  10.077  12.060
67857SOL    HW1 5404   2.217  10.077  11.982
67857SOL    HW2 5405   2.118   9.992  12.058
67858SOL     OW 5406  11.552   0.480  13.239
67858SOL    HW1 5407  11.545   0.574  13.253
67858SOL    HW2 5408  11.631   0.454  13.286
67859SOL     OW 5409  13.034   4.059  12.747
67859SOL    HW1 5410  13.102   3.995  12.725
67859SOL    HW2 5411  12.954   4.020  12.714
67860SOL     OW 5412  13.990   1.308   7.407
67860SOL    HW1 5413  13.917   1.249   7.386
67860SOL    HW2 5414  14.057   1.251   7.444
67861SOL     OW 5415  10.151   9.424  12.562
67861SOL    HW1 5416  10.145   9.489  12.492
67861SOL    HW2 5417  10.141   9.340  12.517
67862SOL     OW 5418   2.907   8.007  11.355
67862SOL    HW1 5419   2.906   7.993  11.450
67862SOL    HW2 5420   2.902   8.102  11.345
67863SOL     OW 5421  13.762   4.636   3.566
67863SOL    HW1 5422  13.727   4.553   3.600
67863SOL    HW2 5423  13.686   4.680   3.528
67864SOL     OW 5424  12.177   7.678   2.708
67864SOL    HW1 5425  12.198   7.620   2.781
67864SOL    HW2 5426  12.100   7.726   2.737
67865SOL     OW 5427   3.200   1.304   4.567
67865SOL    HW1 5428   3.205   1.211   4.591
67865SOL    HW2 5429   3.196   1.350   4.650
67866SOL     OW 5430   3.360  10.215   0.537
67866SOL    HW1 5431   3.305  10.270   0.592
67866SOL    HW2 5432   3.430  10.185   0.596
67867SOL     OW 5433   5.786   6.876  11.215
67867SOL    HW1 5434   5.803   6.845  11.126
67867SOL    HW2 5435   5.819   6.805  11.271
67868SOL     OW 5436   0.974   6.291   0.521
67868SOL    HW1 5437   1.013   6.375   0.500
67868SOL    HW2 5438   1.035   6.251   0.584
67869SOL     OW 5439   0.981  10.353   4.379
67869SOL    HW1 5440   0.904  10.394   4.339
67869SOL    HW2 5441   1.022  10.424   4.429
67870SOL     OW 5442  11.472   2.036   9.412
67870SOL    HW1 5443  11.462   2.130   9.399
67870SOL    HW2 5444  11.537   2.028   9.482
67871SOL     OW 5445   7.428  11.034   6.626
67871SOL    HW1 5446   7.513  11.001   6.598
67871SOL    HW2 5447   7.412  10.991   6.710
67872SOL     OW 5448   1.880  14.728   1.507
67872SOL    HW1 5449   1.797  14.690   1.538
67872SOL    HW2 5450   1.858  14.818   1.484
67873SOL     OW 5451   2.313   8.965  12.777
67873SOL    HW1 5452   2.229   8.920  12.791
67873SOL    HW2 5453   2.308   9.043  12.832
67874SOL     OW 5454   4.318   8.549  13.717
67874SOL    HW1 5455   4.387   8.612  13.736
67874SOL    HW2 5456   4.259   8.553  13.792
67875SOL     OW 5457  10.068  13.718  10.038
67875SOL    HW1 5458  10.080  13.809  10.014
67875SOL    HW2 5459   9.997  13.719  10.103
67876SOL     OW 5460  10.271   2.123   7.299
67876SOL    HW1 5461  10.278   2.093   7.390
67876SOL    HW2 5462  10.214   2.058   7.257
67877SOL     OW 5463   1.671   1.128   0.526
67877SOL    HW1 5464   1.692   1.207   0.575
67877SOL    HW2 5465   1.576   1.123   0.527
67878SOL     OW 5466   8.779  12.200   2.335
67878SOL    HW1 5467   8.768  12.203   2.430
67878SOL    HW2 5468   8.714  12.261   2.301
67879SOL     OW 5469   2.622  11.417   5.873
67879SOL    HW1 5470   2.700  11.361   5.875
67879SOL    HW2 5471   2.634  11.471   5.795
67880SOL     OW 5472  12.833  11.446   2.203
67880SOL    HW1 5473  12.838  11.406   2.289
67880SOL    HW2 5474  12.747  11.420   2.169
67881SOL     OW 5475   5.533   1.158   5.311
67881SOL    HW1 5476   5.540   1.205   5.394
67881SOL    HW2 5477   5.442   1.171   5.284
67882SOL     OW 5478   3.156   1.927   0.939
67882SOL    HW1 5479   3.154   1.973   0.855
67882SOL    HW2 5480   3.249   1.920   0.960
67883SOL     OW 5481  13.559  11.020  12.289
67883SOL    HW1 5482  13.577  10.950  12.352
67883SOL    HW2 5483  13.567  11.101  12.341
67884SOL     OW 5484   5.467   0.427   2.271
67884SOL    HW1 5485   5.550   0.407   2.227
67884SOL    HW2 5486   5.493   0.462   2.356
67885SOL     OW 5487   4.505   8.432   7.248
67885SOL    HW1 5488   4.472   8.522   7.248
67885SOL    HW2 5489   4.576   8.433   7.313
67886SOL     OW 5490  12.557   3.357   7.772
67886SOL    HW1 5491  12.575   3.441   7.729
67886SOL    HW2 5492  12.475   3.328   7.734
67887SOL     OW 5493   4.999   4.308   0.070
67887SOL    HW1 5494   5.070   4.297   0.134
67887SOL    HW2 5495   4.956   4.223   0.067
67888SOL     OW 5496   3.444   9.153   4.084
67888SOL    HW1 5497   3.492   9.218   4.033
67888SOL    HW2 5498   3.459   9.179   4.175
67889SOL     OW 5499   6.366   1.552   4.052
67889SOL    HW1 5500   6.424   1.477   4.042
67889SOL    HW2 5501   6.331   1.567   3.964
67890SOL     OW 5502  12.333  10.553  13.946
67890SOL    HW1 5503  12.354  10.462  13.927
67890SOL    HW2 5504  12.350  10.599  13.864
67891SOL     OW 5505   5.372  13.118   1.305
67891SOL    HW1 5506   5.467  13.104   1.301
67891SOL    HW2 5507   5.335  13.031   1.289
67892SOL     OW 5508   1.431   3.682   9.964
67892SOL    HW1 5509   1.468   3.741  10.031
67892SOL    HW2 5510   1.446   3.728   9.881
67893SOL     OW 5511  13.108  13.021   9.755
67893SOL    HW1 5512  13.072  13.102   9.719
67893SOL    HW2 5513  13.197  13.017   9.721
67894SOL     OW 5514  12.669  14.088   5.218
67894SOL    HW1 5515  12.642  14.180   5.224
67894SOL    HW2 5516  12.757  14.092   5.180
67895SOL     OW 5517  10.689   5.484   8.279
67895SOL    HW1 5518  10.596   5.464   8.273
67895SOL    HW2 5519  10.692   5.577   8.303
67896SOL     OW 5520   8.296   2.344   0.835
67896SOL    HW1 5521   8.293   2.274   0.899
67896SOL    HW2 5522   8.385   2.379   0.841
67897SOL     OW 5523   5.907   5.329   9.386
67897SOL    HW1 5524   5.993   5.335   9.426
67897SOL    HW2 5525   5.892   5.415   9.347
67898SOL     OW 5526   9.015   1.539   3.975
67898SOL    HW1 5527   8.992   1.493   4.056
67898SOL    HW2 5528   8.937   1.592   3.955
67899SOL     OW 5529   8.875  13.997   7.762
67899SOL    HW1 5530   8.858  13.925   7.823
67899SOL    HW2 5531   8.801  13.995   7.702
67900SOL     OW 5532   4.083   1.326   5.188
67900SOL    HW1 5533   4.042   1.337   5.273
67900SOL    HW2 5534   4.074   1.412   5.146
67901SOL     OW 5535  12.439   2.377   0.387
67901SOL    HW1 5536  12.456   2.300   0.332
67901SOL    HW2 5537  12.383   2.432   0.332
67902SOL     OW 5538   8.519   7.823   5.784
67902SOL    HW1 5539   8.572   7.893   5.822
67902SOL    HW2 5540   8.577   7.747   5.784
67903SOL     OW 5541  11.205   4.777  13.309
67903SOL    HW1 5542  11.219   4.725  13.230
67903SOL    HW2 5543  11.288   4.824  13.321
67904SOL     OW 5544  11.965   3.511   4.081
67904SOL    HW1 5545  12.028   3.450   4.121
67904SOL    HW2 5546  11.941   3.469   3.999
67905SOL     OW 5547   3.796   3.341   3.246
67905SOL    HW1 5548   3.867   3.400   3.272
67905SOL    HW2 5549   3.813   3.322   3.154
67906SOL     OW 5550  13.593   5.740   4.600
67906SOL    HW1 5551  13.587   5.761   4.693
67906SOL    HW2 5552  13.518   5.784   4.560
67907SOL     OW 5553   4.866   9.195  12.912
67907SOL    HW1 5554   4.829   9.233  12.992
67907SOL    HW2 5555   4.916   9.267  12.873
67908SOL     OW 5556   1.706   3.252   2.997
67908SOL    HW1 5557   1.691   3.310   2.923
67908SOL    HW2 5558   1.630   3.194   2.998
67909SOL     OW 5559   2.821   3.661   8.988
67909SOL    HW1 5560   2.789   3.652   9.078
67909SOL    HW2 5561   2.771   3.597   8.939
67910SOL     OW 5562   3.705  11.138   3.758
67910SOL    HW1 5563   3.757  11.213   3.731
67910SOL    HW2 5564   3.644  11.124   3.685
67911SOL     OW 5565  14.368   0.092  10.499
67911SOL    HW1 5566  14.290   0.075  10.446
67911SOL    HW2 5567  14.426   0.019  10.481
67912SOL     OW 5568   3.564  14.875   7.434
67912SOL    HW1 5569   3.553   0.085   7.401
67912SOL    HW2 5570   3.627   0.005   7.506
67913SOL     OW 5571  11.182   4.661   2.827
67913SOL    HW1 5572  11.116   4.602   2.863
67913SOL    HW2 5573  11.265   4.629   2.861
67914SOL     OW 5574  10.219   5.434   6.290
67914SOL    HW1 5575  10.131   5.405   6.264
67914SOL    HW2 5576  10.215   5.529   6.283
67915SOL     OW 5577   8.397   8.098   4.599
67915SOL    HW1 5578   8.314   8.064   4.632
67915SOL    HW2 5579   8.464   8.045   4.642
67916SOL     OW 5580   6.512   3.377  10.197
67916SOL    HW1 5581   6.511   3.285  10.222
67916SOL    HW2 5582   6.481   3.377  10.106
67917SOL     OW 5583  12.555   6.748   7.174
67917SOL    HW1 5584  12.638   6.771   7.215
67917SOL    HW2 5585  12.580   6.711   7.089
67918SOL     OW 5586   4.508  10.462  14.648
67918SOL    HW1 5587   4.475  10.540  14.694
67918SOL    HW2 5588   4.535  10.495  14.562
67919SOL     OW 5589   4.181  13.732  11.411
67919SOL    HW1 5590   4.267  13.761  11.383
67919SOL    HW2 5591   4.151  13.799  11.472
67920SOL     OW 5592  11.189   1.118   7.043
67920SOL    HW1 5593  11.108   1.165   7.021
67920SOL    HW2 5594  11.219   1.082   6.960
67921SOL     OW 5595  11.551   7.687  12.552
67921SOL    HW1 5596  11.597   7.764  12.517
67921SOL    HW2 5597  11.609   7.613  12.533
67922SOL     OW 5598   4.259   3.879   4.992
67922SOL    HW1 5599   4.207   3.955   4.966
67922SOL    HW2 5600   4.197   3.822   5.038
67923SOL     OW 5601  10.167  12.148   9.915
67923SOL    HW1 5602  10.250  12.174   9.874
67923SOL    HW2 5603  10.109  12.222   9.899
67924SOL     OW 5604   4.345  11.675  10.345
67924SOL    HW1 5605   4.308  11.613  10.281
67924SOL    HW2 5606   4.414  11.721  10.296
67925SOL     OW 5607  11.920   8.157   6.112
67925SOL    HW1 5608  11.945   8.151   6.205
67925SOL    HW2 5609  11.929   8.251   6.092
67926SOL     OW 5610  13.957   0.968   7.077
67926SOL    HW1 5611  13.983   1.058   7.057
67926SOL    HW2 5612  14.004   0.914   7.013
67927SOL     OW 5613   7.645   3.887   5.748
67927SOL    HW1 5614   7.730   3.843   5.754
67927SOL    HW2 5615   7.666   3.980   5.758
67928SOL     OW 5616   3.322   4.600   1.576
67928SOL    HW1 5617   3.286   4.635   1.657
67928SOL    HW2 5618   3.269   4.523   1.557
67929SOL     OW 5619   7.991   9.918   0.763
67929SOL    HW1 5620   8.023  10.005   0.740
67929SOL    HW2 5621   8.064   9.878   0.811
67930SOL     OW 5622   8.709  11.363   2.230
67930SOL    HW1 5623   8.670  11.275   2.233
67930SOL    HW2 5624   8.678  11.401   2.148
67931SOL     OW 5625   3.908   3.470   8.409
67931SOL    HW1 5626   3.914   3.550   8.461
67931SOL    HW2 5627   3.865   3.497   8.328
67932SOL     OW 5628   2.029   9.336   8.548
67932SOL    HW1 5629   2.114   9.371   8.574
67932SOL    HW2 5630   1.971   9.358   8.622
67933SOL     OW 5631   0.449   6.045   1.302
67933SOL    HW1 5632   0.371   6.062   1.356
67933SOL    HW2 5633   0.497   5.978   1.351
67934SOL     OW 5634  13.648  12.620  12.668
67934SOL    HW1 5635  13.649  12.577  12.753
67934SOL    HW2 5636  13.662  12.713  12.687
67935SOL     OW 5637  10.376  12.565   2.342
67935SOL    HW1 5638  10.396  12.604   2.257
67935SOL    HW2 5639  10.352  12.475   2.322
67936SOL     OW 5640  11.735   9.975   5.484
67936SOL    HW1 5641  11.711  10.011   5.569
67936SOL    HW2 5642  11.820   9.932   5.499
67937SOL     OW 5643  11.487  14.629  10.850
67937SOL    HW1 5644  11.523  14.714  10.875
67937SOL    HW2 5645  11.394  14.647  10.833
67938SOL     OW 5646   6.062   1.976   4.175
67938SOL    HW1 5647   6.143   1.927   4.191
67938SOL    HW2 5648   6.028   1.940   4.093
67939SOL     OW 5649  14.074  11.146  13.023
67939SOL    HW1 5650  14.025  11.076  12.979
67939SOL    HW2 5651  14.007  11.208  13.051
67940SOL     OW 5652   3.760  10.373   4.188
67940SOL    HW1 5653   3.705  10.430   4.242
67940SOL    HW2 5654   3.804  10.315   4.250
67941SOL     OW 5655  10.965  13.551   7.726
67941SOL    HW1 5656  10.873  13.565   7.704
67941SOL    HW2 5657  10.965  13.528   7.819
67942SOL     OW 5658  13.566   5.949   1.681
67942SOL    HW1 5659  13.575   5.921   1.773
67942SOL    HW2 5660  13.562   6.045   1.686
67943SOL     OW 5661  10.933  10.741  11.098
67943SOL    HW1 5662  11.019  10.769  11.130
67943SOL    HW2 5663  10.899  10.817  11.052
67944SOL     OW 5664  13.646   3.645  12.109
67944SOL    HW1 5665  13.724   3.690  12.075
67944SOL    HW2 5666  13.673   3.614  12.196
67945SOL     OW 5667   6.252  12.911   0.093
67945SOL    HW1 5668   6.162  12.904   0.060
67945SOL    HW2 5669   6.304  12.857   0.034
67946SOL     OW 5670   0.566  11.506   8.531
67946SOL    HW1 5671   0.634  11.485   8.596
67946SOL    HW2 5672   0.528  11.588   8.562
67947SOL     OW 5673   6.486  14.779   9.819
67947SOL    HW1 5674   6.572  14.752   9.852
67947SOL    HW2 5675   6.433  14.700   9.823
67948SOL     OW 5676   6.634   3.685   6.139
67948SOL    HW1 5677   6.599   3.626   6.073
67948SOL    HW2 5678   6.720   3.711   6.106
67949SOL     OW 5679   7.609   7.856   3.889
67949SOL    HW1 5680   7.611   7.943   3.848
67949SOL    HW2 5681   7.587   7.796   3.817
67950SOL     OW 5682   6.386   4.364   5.769
67950SOL    HW1 5683   6.337   4.329   5.694
67950SOL    HW2 5684   6.408   4.287   5.821
67951SOL     OW 5685   6.579   0.411   9.371
67951SOL    HW1 5686   6.567   0.490   9.318
67951SOL    HW2 5687   6.663   0.424   9.415
67952SOL     OW 5688  10.532   0.489   6.272
67952SOL    HW1 5689  10.478   0.566   6.290
67952SOL    HW2 5690  10.519   0.471   6.179
67953SOL     OW 5691  11.892  13.601  12.154
67953SOL    HW1 5692  11.811  13.633  12.114
67953SOL    HW2 5693  11.923  13.674  12.207
67954SOL     OW 5694   1.509   2.617   1.734
67954SOL    HW1 5695   1.597   2.582   1.746
67954SOL    HW2 5696   1.522   2.702   1.693
67955SOL     OW 5697   0.672   9.814   1.356
67955SOL    HW1 5698   0.663   9.720   1.336
67955SOL    HW2 5699   0.663   9.856   1.270
67956SOL     OW 5700   1.547  14.832   0.305
67956SOL    HW1 5701   1.483  14.778   0.258
67956SOL    HW2 5702   1.522  14.825   0.397
67957SOL     OW 5703   0.225  11.424   9.413
67957SOL    HW1 5704   0.166  11.382   9.476
67957SOL    HW2 5705   0.167  11.457   9.345
67958SOL     OW 5706   6.529  14.771   5.682
67958SOL    HW1 5707   6.540  14.773   5.587
67958SOL    HW2 5708   6.440  14.804   5.697
67959SOL     OW 5709  11.337  10.525   5.710
67959SOL    HW1 5710  11.427  10.553   5.691
67959SOL    HW2 5711  11.299  10.599   5.757
67960SOL     OW 5712  14.212   7.666   6.211
67960SOL    HW1 5713  14.283   7.614   6.249
67960SOL    HW2 5714  14.256   7.740   6.170
67961SOL     OW 5715  11.915   2.482   5.061
67961SOL    HW1 5716  11.853   2.480   4.988
67961SOL    HW2 5717  11.860   2.492   5.139
67962SOL     OW 5718   1.658   9.918   1.788
67962SOL    HW1 5719   1.709   9.857   1.734
67962SOL    HW2 5720   1.643   9.871   1.870
67963SOL     OW 5721  10.861   9.596   0.233
67963SOL    HW1 5722  10.789   9.650   0.202
67963SOL    HW2 5723  10.861   9.520   0.176
67964SOL     OW 5724  12.563   3.600   4.840
67964SOL    HW1 5725  12.544   3.544   4.764
67964SOL    HW2 5726  12.604   3.678   4.802
67965SOL     OW 5727  12.685   6.157  11.258
67965SOL    HW1 5728  12.664   6.087  11.197
67965SOL    HW2 5729  12.780   6.166  11.252
67966SOL     OW 5730  13.907   6.601   1.323
67966SOL    HW1 5731  13.891   6.507   1.320
67966SOL    HW2 5732  13.921   6.626   1.231
67967SOL     OW 5733   2.408   4.234   9.888
67967SOL    HW1 5734   2.322   4.263   9.859
67967SOL    HW2 5735   2.423   4.281   9.970
67968SOL     OW 5736   1.411  14.233   3.756
67968SOL    HW1 5737   1.428  14.325   3.735
67968SOL    HW2 5738   1.464  14.216   3.834
67969SOL     OW 5739   1.924   1.064   3.872
67969SOL    HW1 5740   1.917   1.133   3.806
67969SOL    HW2 5741   2.018   1.057   3.890
67970SOL     OW 5742   5.567  11.514   8.832
67970SOL    HW1 5743   5.528  11.496   8.746
67970SOL    HW2 5744   5.493  11.533   8.889
67971SOL     OW 5745   2.012   7.230   8.998
67971SOL    HW1 5746   2.015   7.321   8.966
67971SOL    HW2 5747   2.091   7.189   8.961
67972SOL     OW 5748   3.935   3.555   3.244
67972SOL    HW1 5749   3.951   3.619   3.175
67972SOL    HW2 5750   3.987   3.588   3.318
67973SOL     OW 5751   2.712  12.546   9.274
67973SOL    HW1 5752   2.728  12.619   9.214
67973SOL    HW2 5753   2.750  12.575   9.357
67974SOL     OW 5754  10.166   4.153  11.742
67974SOL    HW1 5755  10.074   4.173  11.760
67974SOL    HW2 5756  10.215   4.210  11.801
67975SOL     OW 5757  11.417   2.004   5.014
67975SOL    HW1 5758  11.323   2.022   5.008
67975SOL    HW2 5759  11.433   1.985   5.107
67976SOL     OW 5760   4.441  11.955   7.998
67976SOL    HW1 5761   4.370  12.002   7.954
67976SOL    HW2 5762   4.466  11.886   7.936
67977SOL     OW 5763   6.604  13.523   9.750
67977SOL    HW1 5764   6.517  13.484   9.737
67977SOL    HW2 5765   6.641  13.529   9.662
67978SOL     OW 5766   4.203   2.410  10.284
67978SOL    HW1 5767   4.225   2.483  10.226
67978SOL    HW2 5768   4.239   2.436  10.369
67979SOL     OW 5769  13.888   8.455  13.661
67979SOL    HW1 5770  13.916   8.537  13.703
67979SOL    HW2 5771  13.967   8.422  13.618
67980SOL     OW 5772   2.089  14.151  13.644
67980SOL    HW1 5773   2.138  14.110  13.573
67980SOL    HW2 5774   2.058  14.077  13.697
67981SOL     OW 5775   6.195   9.611  13.252
67981SOL    HW1 5776   6.226   9.588  13.164
67981SOL    HW2 5777   6.251   9.683  13.280
67982SOL     OW 5778   6.766   4.516   5.169
67982SOL    HW1 5779   6.824   4.560   5.231
67982SOL    HW2 5780   6.816   4.514   5.087
67983SOL     OW 5781   7.096  12.529   9.711
67983SOL    HW1 5782   7.086  12.523   9.806
67983SOL    HW2 5783   7.036  12.463   9.676
67984SOL     OW 5784   0.369   7.917   6.060
67984SOL    HW1 5785   0.420   7.989   6.096
67984SOL    HW2 5786   0.338   7.948   5.975
67985SOL     OW 5787   3.703  11.519   6.659
67985SOL    HW1 5788   3.632  11.489   6.716
67985SOL    HW2 5789   3.775  11.459   6.676
67986SOL     OW 5790  12.559  10.007   1.519
67986SOL    HW1 5791  12.526  10.051   1.441
67986SOL    HW2 5792  12.492  10.026   1.586
67987SOL     OW 5793  14.126  11.662  12.703
67987SOL    HW1 5794  14.104  11.744  12.658
67987SOL    HW2 5795  14.081  11.595  12.652
67988SOL     OW 5796  13.214  11.775   0.448
67988SOL    HW1 5797  13.127  11.812   0.434
67988SOL    HW2 5798  13.204  11.682   0.428
67989SOL     OW 5799   8.686   7.025  12.981
67989SOL    HW1 5800   8.614   7.044  13.042
67989SOL    HW2 5801   8.657   7.063  12.898
67990SOL     OW 5802   2.706  14.739   4.492
67990SOL    HW1 5803   2.714  14.820   4.441
67990SOL    HW2 5804   2.761  14.676   4.445
67991SOL     OW 5805   8.518  14.472   4.747
67991SOL    HW1 5806   8.567  14.509   4.673
67991SOL    HW2 5807   8.586  14.445   4.809
67992SOL     OW 5808   1.001  11.033   0.859
67992SOL    HW1 5809   1.015  10.949   0.815
67992SOL    HW2 5810   1.085  11.053   0.900
67993SOL     OW 5811  11.618   3.241   8.023
67993SOL    HW1 5812  11.531   3.217   7.993
67993SOL    HW2 5813  11.621   3.215   8.115
67994SOL     OW 5814   5.443   3.703   5.764
67994SOL    HW1 5815   5.386   3.667   5.832
67994SOL    HW2 5816   5.384   3.732   5.695
67995SOL     OW 5817  13.623   6.151   5.397
67995SOL    HW1 5818  13.672   6.081   5.355
67995SOL    HW2 5819  13.531   6.133   5.375
67996SOL     OW 5820   8.156   0.230  11.952
67996SOL    HW1 5821   8.139   0.138  11.931
67996SOL    HW2 5822   8.214   0.260  11.882
67997SOL     OW 5823  13.616  13.777   9.767
67997SOL    HW1 5824  13.547  13.836   9.737
67997SOL    HW2 5825  13.622  13.793   9.861
67998SOL     OW 5826  11.775   0.872  12.199
67998SOL    HW1 5827  11.687   0.837  12.190
67998SOL    HW2 5828  11.777   0.947  12.140
67999SOL     OW 5829  12.567  11.518   7.949
67999SOL    HW1 5830  12.518  11.570   8.014
67999SOL    HW2 5831  12.630  11.579   7.911
68000SOL     OW 5832   2.673   2.374   6.979
68000SOL    HW1 5833   2.598   2.350   7.033
68000SOL    HW2 5834   2.688   2.467   6.997
68001SOL     OW 5835  13.330   1.280   2.419
68001SOL    HW1 5836  13.407   1.298   2.472
68001SOL    HW2 5837  13.275   1.357   2.431
68002SOL     OW 5838   9.351  12.827   1.589
68002SOL    HW1 5839   9.286  12.796   1.652
68002SOL    HW2 5840   9.337  12.922   1.585
68003SOL     OW 5841   3.498  10.378   9.130
68003SOL    HW1 5842   3.461  10.332   9.055
68003SOL    HW2 5843   3.444  10.456   9.140
68004SOL     OW 5844  10.523   3.244  12.999
68004SOL    HW1 5845  10.462   3.317  13.005
68004SOL    HW2 5846  10.565   3.241  13.085
68005SOL     OW 5847   4.445  11.163   3.042
68005SOL    HW1 5848   4.356  11.131   3.058
68005SOL    HW2 5849   4.467  11.131   2.954
68006SOL     OW 5850   2.571   8.381   7.614
68006SOL    HW1 5851   2.649   8.379   7.670
68006SOL    HW2 5852   2.540   8.471   7.619
68007SOL     OW 5853   7.550  11.375   8.984
68007SOL    HW1 5854   7.507  11.398   8.902
68007SOL    HW2 5855   7.508  11.431   9.050
68008SOL     OW 5856   4.845  13.378   8.061
68008SOL    HW1 5857   4.840  13.468   8.094
68008SOL    HW2 5858   4.939  13.363   8.046
68009SOL     OW 5859   9.833   6.548   2.649
68009SOL    HW1 5860   9.882   6.468   2.630
68009SOL    HW2 5861   9.810   6.541   2.741
68010SOL     OW 5862  14.626   8.763   2.569
68010SOL    HW1 5863  14.562   8.825   2.603
68010SOL    HW2 5864  14.618   8.686   2.625
68011SOL     OW 5865   5.437  14.714   5.893
68011SOL    HW1 5866   5.372  14.780   5.918
68011SOL    HW2 5867   5.399  14.671   5.816
68012SOL     OW 5868  14.817   7.264   7.092
68012SOL    HW1 5869  14.862   7.248   7.175
68012SOL    HW2 5870  14.745   7.200   7.091
68013SOL     OW 5871   1.796   2.538   4.249
68013SOL    HW1 5872   1.819   2.452   4.213
68013SOL    HW2 5873   1.832   2.536   4.338
68014SOL     OW 5874  12.402   2.907  13.652
68014SOL    HW1 5875  12.497   2.908  13.644
68014SOL    HW2 5876  12.377   2.816  13.638
68015SOL     OW 5877   5.931   4.309   7.176
68015SOL    HW1 5878   5.979   4.228   7.163
68015SOL    HW2 5879   5.994   4.367   7.219
68016SOL     OW 5880   0.156   7.321   9.066
68016SOL    HW1 5881   0.211   7.382   9.016
68016SOL    HW2 5882   0.071   7.324   9.022
68017SOL     OW 5883   3.673  10.040   3.252
68017SOL    HW1 5884   3.593  10.079   3.287
68017SOL    HW2 5885   3.665  10.050   3.157
68018SOL     OW 5886   3.783   1.280   4.194
68018SOL    HW1 5887   3.738   1.363   4.208
68018SOL    HW2 5888   3.876   1.302   4.199
68019SOL     OW 5889  11.864   7.081  12.932
68019SOL    HW1 5890  11.881   7.174  12.941
68019SOL    HW2 5891  11.937   7.039  12.978
68020SOL     OW 5892  11.437   7.561   7.423
68020SOL    HW1 5893  11.448   7.619   7.498
68020SOL    HW2 5894  11.519   7.512   7.418
68021SOL     OW 5895   5.836   7.623   3.697
68021SOL    HW1 5896   5.761   7.636   3.638
68021SOL    HW2 5897   5.892   7.561   3.650
68022SOL     OW 5898   9.226   4.104   9.193
68022SOL    HW1 5899   9.143   4.150   9.178
68022SOL    HW2 5900   9.206   4.041   9.262
68023SOL     OW 5901  10.066  10.509  10.054
68023SOL    HW1 5902  10.121  10.583  10.029
68023SOL    HW2 5903  10.124  10.433  10.048
68024SOL     OW 5904  13.281   1.417  13.038
68024SOL    HW1 5905  13.313   1.505  13.017
68024SOL    HW2 5906  13.281   1.414  13.134
68025SOL     OW 5907   6.920   1.124   7.264
68025SOL    HW1 5908   6.953   1.165   7.343
68025SOL    HW2 5909   6.911   1.196   7.201
68026SOL     OW 5910   4.771   9.321   0.869
68026SOL    HW1 5911   4.771   9.261   0.794
68026SOL    HW2 5912   4.719   9.396   0.840
68027SOL     OW 5913   2.119   5.609   7.507
68027SOL    HW1 5914   2.212   5.586   7.514
68027SOL    HW2 5915   2.095   5.586   7.418
68028SOL     OW 5916  12.007  10.437  10.512
68028SOL    HW1 5917  11.950  10.449  10.587
68028SOL    HW2 5918  12.024  10.526  10.480
68029SOL     OW 5919   8.845   4.286   7.599
68029SOL    HW1 5920   8.862   4.339   7.677
68029SOL    HW2 5921   8.786   4.217   7.629
68030SOL     OW 5922   1.258   5.845  13.002
68030SOL    HW1 5923   1.221   5.866  12.916
68030SOL    HW2 5924   1.250   5.927  13.052
68031SOL     OW 5925  12.092   9.779  13.453
68031SOL    HW1 5926  12.016   9.721  13.452
68031SOL    HW2 5927  12.054   9.867  13.462
68032SOL     OW 5928  13.198   8.660  14.017
68032SOL    HW1 5929  13.174   8.585  14.071
68032SOL    HW2 5930  13.274   8.630  13.967
68033SOL     OW 5931   7.595   8.359  11.085
68033SOL    HW1 5932   7.508   8.400  11.090
68033SOL    HW2 5933   7.651   8.416  11.137
68034SOL     OW 5934   8.263   1.832   5.530
68034SOL    HW1 5935   8.294   1.766   5.592
68034SOL    HW2 5936   8.312   1.816   5.450
68035SOL     OW 5937   3.730   5.626   8.540
68035SOL    HW1 5938   3.688   5.703   8.502
68035SOL    HW2 5939   3.674   5.602   8.614
68036SOL     OW 5940  14.813   2.514  12.459
68036SOL    HW1 5941  14.804   2.425  12.491
68036SOL    HW2 5942   0.014   2.513  12.406
68037SOL     OW 5943   8.626  14.774  12.017
68037SOL    HW1 5944   8.564  14.843  11.993
68037SOL    HW2 5945   8.574  14.694  12.019
68038SOL     OW 5946   7.036   0.070  12.994
68038SOL    HW1 5947   7.069  14.872  13.040
68038SOL    HW2 5948   7.112   0.128  12.987
68039SOL     OW 5949  12.300  10.166  13.542
68039SOL    HW1 5950  12.384  10.213  13.539
68039SOL    HW2 5951  12.275  10.156  13.450
68040SOL     OW 5952  10.907   2.579   9.472
68040SOL    HW1 5953  10.850   2.624   9.409
68040SOL    HW2 5954  10.993   2.578   9.430
68041SOL     OW 5955  12.028  10.440   5.274
68041SOL    HW1 5956  12.096  10.379   5.244
68041SOL    HW2 5957  12.069  10.526   5.270
68042SOL     OW 5958   2.689   3.267  12.761
68042SOL    HW1 5959   2.742   3.253  12.839
68042SOL    HW2 5960   2.607   3.303  12.793
68043SOL     OW 5961   4.932  12.268  11.321
68043SOL    HW1 5962   4.973  12.311  11.396
68043SOL    HW2 5963   4.893  12.340  11.271
68044SOL     OW 5964  11.171   2.983   5.949
68044SOL    HW1 5965  11.176   2.953   5.858
68044SOL    HW2 5966  11.258   2.965   5.984
68045SOL     OW 5967   5.549   9.730   2.777
68045SOL    HW1 5968   5.565   9.790   2.705
68045SOL    HW2 5969   5.629   9.735   2.830
68046SOL     OW 5970  12.668   1.751   8.149
68046SOL    HW1 5971  12.724   1.793   8.083
68046SOL    HW2 5972  12.628   1.677   8.102
68047SOL     OW 5973   5.765   0.166   8.836
68047SOL    HW1 5974   5.751   0.170   8.742
68047SOL    HW2 5975   5.721   0.085   8.863
68048SOL     OW 5976   5.649   0.539  14.465
68048SOL    HW1 5977   5.674   0.529  14.374
68048SOL    HW2 5978   5.571   0.485  14.476
68049SOL     OW 5979   6.418  11.759  12.423
68049SOL    HW1 5980   6.347  11.697  12.442
68049SOL    HW2 5981   6.481  11.709  12.371
68050SOL     OW 5982   1.321   4.616   6.051
68050SOL    HW1 5983   1.383   4.557   6.010
68050SOL    HW2 5984   1.356   4.703   6.034
68051SOL     OW 5985   7.586   8.809   5.778
68051SOL    HW1 5986   7.533   8.769   5.710
68051SOL    HW2 5987   7.619   8.735   5.829
68052SOL     OW 5988   0.004  14.462   4.976
68052SOL    HW1 5989   0.045  14.447   5.062
68052SOL    HW2 5990  14.818  14.393   4.967
68053SOL     OW 5991   1.922  11.912  13.107
68053SOL    HW1 5992   1.924  11.924  13.202
68053SOL    HW2 5993   1.989  11.972  13.073
68054SOL     OW 5994   0.588   1.258  11.053
68054SOL    HW1 5995   0.502   1.298  11.064
68054SOL    HW2 5996   0.649   1.322  11.090
68055SOL     OW 5997  11.696  12.504   6.876
68055SOL    HW1 5998  11.710  12.411   6.895
68055SOL    HW2 5999  11.625  12.530   6.935
68056SOL     OW 6000  11.941   4.644   6.392
68056SOL    HW1 6001  11.952   4.695   6.472
68056SOL    HW2 6002  11.981   4.559   6.411
68057SOL     OW 6003  10.061   4.295   5.201
68057SOL    HW1 6004  10.060   4.374   5.146
68057SOL    HW2 6005   9.969   4.269   5.207
68058SOL     OW 6006  14.827   9.654   2.810
68058SOL    HW1 6007   0.021   9.700   2.768
68058SOL    HW2 6008  14.794   9.716   2.875
68059SOL     OW 6009   2.259   7.058   3.286
68059SOL    HW1 6010   2.345   7.025   3.308
68059SOL    HW2 6011   2.227   7.099   3.366
68060SOL     OW 6012   5.199   2.819   6.468
68060SOL    HW1 6013   5.232   2.851   6.552
68060SOL    HW2 6014   5.183   2.899   6.417
68061SOL     OW 6015   3.753  14.229  14.582
68061SOL    HW1 6016   3.687  14.243  14.515
68061SOL    HW2 6017   3.719  14.274  14.659
68062SOL     OW 6018  14.840   5.155   5.430
68062SOL    HW1 6019   0.024   5.146   5.359
68062SOL    HW2 6020  14.758   5.121   5.394
68063SOL     OW 6021   5.854   2.278   6.541
68063SOL    HW1 6022   5.944   2.307   6.559
68063SOL    HW2 6023   5.864   2.202   6.484
68064SOL     OW 6024   9.222   7.676  13.360
68064SOL    HW1 6025   9.134   7.675  13.323
68064SOL    HW2 6026   9.274   7.624  13.300
68065SOL     OW 6027   1.299   1.764  13.257
68065SOL    HW1 6028   1.373   1.716  13.293
68065SOL    HW2 6029   1.223   1.727  13.301
68066SOL     OW 6030   3.753   6.156   4.923
68066SOL    HW1 6031   3.817   6.172   4.853
68066SOL    HW2 6032   3.689   6.226   4.913
68067SOL     OW 6033   1.495  11.963   9.319
68067SOL    HW1 6034   1.550  11.941   9.394
68067SOL    HW2 6035   1.414  11.915   9.333
68068SOL     OW 6036   8.858   9.540  14.343
68068SOL    HW1 6037   8.926   9.606  14.353
68068SOL    HW2 6038   8.884   9.468  14.401
68069SOL     OW 6039  12.871  14.603   1.652
68069SOL    HW1 6040  12.895  14.560   1.734
68069SOL    HW2 6041  12.842  14.691   1.680
68070SOL     OW 6042  10.739   3.289   7.358
68070SOL    HW1 6043  10.739   3.253   7.447
68070SOL    HW2 6044  10.740   3.212   7.301
68071SOL     OW 6045   8.499   2.527   7.185
68071SOL    HW1 6046   8.471   2.444   7.146
68071SOL    HW2 6047   8.490   2.591   7.114
68072SOL     OW 6048   7.835   4.441  12.459
68072SOL    HW1 6049   7.825   4.473  12.549
68072SOL    HW2 6050   7.906   4.493  12.423
68073SOL     OW 6051  14.450   5.824   1.948
68073SOL    HW1 6052  14.530   5.771   1.939
68073SOL    HW2 6053  14.481   5.914   1.943
68074SOL     OW 6054  12.658  11.654  12.532
68074SOL    HW1 6055  12.705  11.615  12.606
68074SOL    HW2 6056  12.712  11.730  12.508
68075SOL     OW 6057  12.946  14.448   9.421
68075SOL    HW1 6058  12.914  14.531   9.457
68075SOL    HW2 6059  12.869  14.406   9.383
68076SOL     OW 6060  11.016   3.451  14.641
68076SOL    HW1 6061  10.994   3.372  14.591
68076SOL    HW2 6062  10.931   3.492  14.659
68077SOL     OW 6063   5.530   9.495  11.309
68077SOL    HW1 6064   5.592   9.500  11.236
68077SOL    HW2 6065   5.582   9.469  11.384
68078SOL     OW 6066   8.111   1.322  11.020
68078SOL    HW1 6067   8.150   1.258  11.079
68078SOL    HW2 6068   8.019   1.297  11.014
68079SOL     OW 6069   1.612   8.752   1.968
68079SOL    HW1 6070   1.658   8.669   1.983
68079SOL    HW2 6071   1.605   8.792   2.055
68080SOL     OW 6072   4.416   0.735  13.311
68080SOL    HW1 6073   4.510   0.727  13.330
68080SOL    HW2 6074   4.374   0.675  13.372
68081SOL     OW 6075   0.236   6.029   9.363
68081SOL    HW1 6076   0.269   6.092   9.298
68081SOL    HW2 6077   0.141   6.029   9.350
68082SOL     OW 6078  10.824   5.467  12.138
68082SOL    HW1 6079  10.878   5.451  12.215
68082SOL    HW2 6080  10.819   5.381  12.095
68083SOL     OW 6081   3.938  14.010  10.853
68083SOL    HW1 6082   3.851  14.046  10.835
68083SOL    HW2 6083   3.949  13.942  10.786
68084SOL     OW 6084   0.817  10.829  13.411
68084SOL    HW1 6085   0.765  10.872  13.479
68084SOL    HW2 6086   0.758  10.826  13.335
68085SOL     OW 6087   9.799  12.863  12.153
68085SOL    HW1 6088   9.715  12.904  12.175
68085SOL    HW2 6089   9.818  12.807  12.228
68086SOL     OW 6090   3.946   2.321   8.557
68086SOL    HW1 6091   4.006   2.317   8.632
68086SOL    HW2 6092   3.922   2.229   8.542
68087SOL     OW 6093   4.527  13.983   5.320
68087SOL    HW1 6094   4.621  13.999   5.335
68087SOL    HW2 6095   4.491  14.070   5.300
68088SOL     OW 6096   6.737   7.873   7.783
68088SOL    HW1 6097   6.696   7.923   7.712
68088SOL    HW2 6098   6.725   7.782   7.758
68089SOL     OW 6099   9.559   2.619   4.518
68089SOL    HW1 6100   9.528   2.529   4.535
68089SOL    HW2 6101   9.490   2.675   4.553
68090SOL     OW 6102   8.198  13.546   2.703
68090SOL    HW1 6103   8.252  13.601   2.760
68090SOL    HW2 6104   8.260  13.485   2.662
68091SOL     OW 6105  10.210  12.418   6.008
68091SOL    HW1 6106  10.122  12.401   6.041
68091SOL    HW2 6107  10.253  12.467   6.078
68092SOL     OW 6108   6.650  12.714   4.376
68092SOL    HW1 6109   6.721  12.667   4.419
68092SOL    HW2 6110   6.674  12.714   4.284
68093SOL     OW 6111   2.649   3.056  13.001
68093SOL    HW1 6112   2.656   3.040  13.095
68093SOL    HW2 6113   2.730   3.021  12.965
68094SOL     OW 6114  14.831  14.368   4.460
68094SOL    HW1 6115   0.010  14.337   4.529
68094SOL    HW2 6116  14.779  14.292   4.435
68095SOL     OW 6117   6.655   7.284   2.067
68095SOL    HW1 6118   6.564   7.314   2.071
68095SOL    HW2 6119   6.659   7.233   1.986
68096SOL     OW 6120   5.681   3.662   2.062
68096SOL    HW1 6121   5.742   3.700   1.999
68096SOL    HW2 6122   5.694   3.711   2.142
68097SOL     OW 6123  13.807  13.859   9.151
68097SOL    HW1 6124  13.776  13.771   9.170
68097SOL    HW2 6125  13.892  13.847   9.108
68098SOL     OW 6126  13.130   4.806   8.299
68098SOL    HW1 6127  13.058   4.759   8.341
68098SOL    HW2 6128  13.088   4.855   8.228
68099SOL     OW 6129   0.703   7.457   6.365
68099SOL    HW1 6130   0.750   7.374   6.364
68099SOL    HW2 6131   0.618   7.437   6.403
68100SOL     OW 6132   6.276  11.346  14.798
68100SOL    HW1 6133   6.316  11.284  14.859
68100SOL    HW2 6134   6.347  11.370  14.738
68101SOL     OW 6135   0.894   3.192   2.197
68101SOL    HW1 6136   0.914   3.101   2.177
68101SOL    HW2 6137   0.957   3.243   2.146
68102SOL     OW 6138   1.042   3.332   5.204
68102SOL    HW1 6139   1.075   3.347   5.292
68102SOL    HW2 6140   0.947   3.323   5.216
68103SOL     OW 6141   8.813   5.640   8.264
68103SOL    HW1 6142   8.858   5.557   8.279
68103SOL    HW2 6143   8.721   5.620   8.277
68104SOL     OW 6144   6.268  13.500   3.797
68104SOL    HW1 6145   6.244  13.523   3.887
68104SOL    HW2 6146   6.325  13.571   3.769
68105SOL     OW 6147   2.609   8.419   4.416
68105SOL    HW1 6148   2.568   8.333   4.422
68105SOL    HW2 6149   2.625   8.431   4.322
68106SOL     OW 6150  11.328   5.743   5.104
68106SOL    HW1 6151  11.285   5.767   5.022
68106SOL    HW2 6152  11.256   5.732   5.166
68107SOL     OW 6153   7.107   3.580  14.539
68107SOL    HW1 6154   7.086   3.490  14.560
68107SOL    HW2 6155   7.143   3.616  14.620
68108SOL     OW 6156  11.326   8.791   3.790
68108SOL    HW1 6157  11.305   8.854   3.859
68108SOL    HW2 6158  11.421   8.785   3.791
68109SOL     OW 6159   2.815  13.926   0.067
68109SOL    HW1 6160   2.830  13.941  14.853
68109SOL    HW2 6161   2.824  13.832   0.079
68110SOL     OW 6162  11.951   0.730   4.830
68110SOL    HW1 6163  11.976   0.666   4.762
68110SOL    HW2 6164  11.998   0.701   4.908
68111SOL     OW 6165  10.092   7.920   5.805
68111SOL    HW1 6166  10.034   7.966   5.744
68111SOL    HW2 6167  10.163   7.982   5.822
68112SOL     OW 6168  12.288  14.109  13.263
68112SOL    HW1 6169  12.255  14.199  13.267
68112SOL    HW2 6170  12.363  14.109  13.323
68113SOL     OW 6171   6.972   2.885   6.228
68113SOL    HW1 6172   7.056   2.915   6.193
68113SOL    HW2 6173   6.982   2.892   6.323
68114SOL     OW 6174   5.415   5.899   1.042
68114SOL    HW1 6175   5.389   5.969   0.981
68114SOL    HW2 6176   5.399   5.818   0.993
68115SOL     OW 6177   7.183  13.191   5.088
68115SOL    HW1 6178   7.159  13.152   5.172
68115SOL    HW2 6179   7.257  13.248   5.108
68116SOL     OW 6180  12.712   9.638   7.125
68116SOL    HW1 6181  12.768   9.665   7.198
68116SOL    HW2 6182  12.774   9.613   7.056
68117SOL     OW 6183  13.921  10.951  11.840
68117SOL    HW1 6184  13.964  11.000  11.910
68117SOL    HW2 6185  13.929  10.859  11.865
68118SOL     OW 6186   2.530  13.639   2.551
68118SOL    HW1 6187   2.487  13.559   2.584
68118SOL    HW2 6188   2.460  13.688   2.509
68119SOL     OW 6189   1.730   1.365   9.773
68119SOL    HW1 6190   1.674   1.296   9.738
68119SOL    HW2 6191   1.724   1.355   9.868
68120SOL     OW 6192  13.695   1.620   8.335
68120SOL    HW1 6193  13.781   1.607   8.374
68120SOL    HW2 6194  13.698   1.708   8.298
68121SOL     OW 6195   5.432   1.973   0.398
68121SOL    HW1 6196   5.480   1.941   0.474
68121SOL    HW2 6197   5.395   1.894   0.358
68122SOL     OW 6198   9.254  11.885   7.915
68122SOL    HW1 6199   9.238  11.837   7.997
68122SOL    HW2 6200   9.198  11.962   7.921
68123SOL     OW 6201   4.993  10.446   5.812
68123SOL    HW1 6202   5.056  10.451   5.741
68123SOL    HW2 6203   4.944  10.365   5.796
68124SOL     OW 6204   8.613   3.908   0.357
68124SOL    HW1 6205   8.642   3.896   0.447
68124SOL    HW2 6206   8.643   3.995   0.333
68125SOL     OW 6207   9.965   8.063   8.026
68125SOL    HW1 6208  10.035   8.015   7.982
68125SOL    HW2 6209   9.889   8.005   8.022
68126SOL     OW 6210  12.807   2.252  13.090
68126SOL    HW1 6211  12.800   2.228  12.998
68126SOL    HW2 6212  12.876   2.318  13.094
68127SOL     OW 6213  14.696   5.099  10.487
68127SOL    HW1 6214  14.762   5.092  10.418
68127SOL    HW2 6215  14.622   5.143  10.444
68128SOL     OW 6216   5.403   1.226   3.493
68128SOL    HW1 6217   5.447   1.222   3.409
68128SOL    HW2 6218   5.335   1.292   3.482
68129SOL     OW 6219   6.088   5.968   8.242
68129SOL    HW1 6220   6.080   6.004   8.331
68129SOL    HW2 6221   6.008   5.918   8.230
68130SOL     OW 6222   4.175   4.158   8.330
68130SOL    HW1 6223   4.136   4.172   8.416
68130SOL    HW2 6224   4.205   4.244   8.302
68131SOL     OW 6225   0.267  10.670   0.785
68131SOL    HW1 6226   0.236  10.641   0.699
68131SOL    HW2 6227   0.295  10.760   0.771
68132SOL     OW 6228  11.002   8.879   4.468
68132SOL    HW1 6229  11.068   8.823   4.510
68132SOL    HW2 6230  11.046   8.963   4.458
68133SOL     OW 6231   6.130   3.393   5.107
68133SOL    HW1 6232   6.211   3.436   5.132
68133SOL    HW2 6233   6.157   3.308   5.073
68134SOL     OW 6234   4.086   3.941  11.694
68134SOL    HW1 6235   4.014   3.984  11.648
68134SOL    HW2 6236   4.079   3.849  11.668
68135SOL     OW 6237   5.455  14.372   2.365
68135SOL    HW1 6238   5.431  14.313   2.294
68135SOL    HW2 6239   5.503  14.317   2.428
68136SOL     OW 6240   1.454   9.039   3.767
68136SOL    HW1 6241   1.499   9.099   3.707
68136SOL    HW2 6242   1.511   8.962   3.770
68137SOL     OW 6243  14.850   7.084   2.579
68137SOL    HW1 6244  14.850   7.161   2.636
68137SOL    HW2 6245   0.063   7.061   2.569
68138SOL     OW 6246   5.292   8.347   4.303
68138SOL    HW1 6247   5.275   8.307   4.389
68138SOL    HW2 6248   5.242   8.294   4.241
68139SOL     OW 6249  12.003   8.647  10.378
68139SOL    HW1 6250  11.976   8.583  10.444
68139SOL    HW2 6251  12.085   8.683  10.411
68140SOL     OW 6252   3.727   2.648  11.675
68140SOL    HW1 6253   3.763   2.725  11.720
68140SOL    HW2 6254   3.661   2.614  11.736
68141SOL     OW 6255   3.133   1.028   8.517
68141SOL    HW1 6256   3.139   0.974   8.595
68141SOL    HW2 6257   3.220   1.022   8.476
68142SOL     OW 6258   6.835  13.253  10.549
68142SOL    HW1 6259   6.842  13.180  10.487
68142SOL    HW2 6260   6.856  13.215  10.634
68143SOL     OW 6261  12.670   7.279  11.466
68143SOL    HW1 6262  12.633   7.269  11.378
68143SOL    HW2 6263  12.742   7.340  11.455
68144SOL     OW 6264   4.746  10.744   7.372
68144SOL    HW1 6265   4.727  10.664   7.422
68144SOL    HW2 6266   4.692  10.811   7.414
68145SOL     OW 6267  11.307   0.302   9.519
68145SOL    HW1 6268  11.391   0.342   9.539
68145SOL    HW2 6269  11.307   0.219   9.566
68146SOL     OW 6270  14.598  13.902  12.488
68146SOL    HW1 6271  14.630  13.846  12.559
68146SOL    HW2 6272  14.677  13.925  12.439
68147SOL     OW 6273   6.361  12.518  14.627
68147SOL    HW1 6274   6.409  12.515  14.544
68147SOL    HW2 6275   6.424  12.483  14.691
68148SOL     OW 6276  10.085  14.629   7.393
68148SOL    HW1 6277  10.103  14.704   7.450
68148SOL    HW2 6278  10.085  14.553   7.452
68149SOL     OW 6279   7.074  11.542  12.621
68149SOL    HW1 6280   6.997  11.586  12.585
68149SOL    HW2 6281   7.072  11.455  12.582
68150SOL     OW 6282  12.132   5.166   5.094
68150SOL    HW1 6283  12.151   5.248   5.141
68150SOL    HW2 6284  12.137   5.191   5.001
68151SOL     OW 6285  11.770   3.091  14.390
68151SOL    HW1 6286  11.832   3.082  14.318
68151SOL    HW2 6287  11.807   3.038  14.460
68152SOL     OW 6288   9.758  10.418   4.737
68152SOL    HW1 6289   9.682  10.467   4.707
68152SOL    HW2 6290   9.766  10.439   4.830
68153SOL     OW 6291  10.005   3.499   9.996
68153SOL    HW1 6292  10.006   3.504  10.092
68153SOL    HW2 6293   9.914   3.476   9.974
68154SOL     OW 6294   5.086   2.884   3.113
68154SOL    HW1 6295   5.095   2.947   3.185
68154SOL    HW2 6296   5.114   2.933   3.035
68155SOL     OW 6297   2.405   5.549   9.755
68155SOL    HW1 6298   2.441   5.615   9.813
68155SOL    HW2 6299   2.391   5.472   9.812
68156SOL     OW 6300   5.178   5.466  13.630
68156SOL    HW1 6301   5.237   5.468  13.706
68156SOL    HW2 6302   5.117   5.395  13.650
68157SOL     OW 6303   4.773   2.928   6.103
68157SOL    HW1 6304   4.747   3.020   6.108
68157SOL    HW2 6305   4.849   2.928   6.045
68158SOL     OW 6306   5.895   8.316   2.302
68158SOL    HW1 6307   5.908   8.309   2.207
68158SOL    HW2 6308   5.983   8.303   2.339
68159SOL     OW 6309   6.086   7.568  10.912
68159SOL    HW1 6310   6.104   7.484  10.870
68159SOL    HW2 6311   6.005   7.598  10.869
68160SOL     OW 6312  12.020   0.574  11.906
68160SOL    HW1 6313  12.031   0.582  12.001
68160SOL    HW2 6314  12.032   0.480  11.889
68161SOL     OW 6315   6.404  12.815  10.968
68161SOL    HW1 6316   6.409  12.881  10.898
68161SOL    HW2 6317   6.494  12.808  11.000
68162SOL     OW 6318   5.639  14.674   7.038
68162SOL    HW1 6319   5.709  14.738   7.023
68162SOL    HW2 6320   5.574  14.693   6.971
68163SOL     OW 6321   4.910  11.767  12.917
68163SOL    HW1 6322   5.003  11.773  12.940
68163SOL    HW2 6323   4.870  11.720  12.990
68164SOL     OW 6324  12.614   7.015   8.374
68164SOL    HW1 6325  12.543   7.067   8.336
68164SOL    HW2 6326  12.631   6.947   8.308
68165SOL     OW 6327   7.858   1.796  11.945
68165SOL    HW1 6328   7.887   1.774  11.856
68165SOL    HW2 6329   7.872   1.890  11.952
68166SOL     OW 6330   8.478   2.850  10.132
68166SOL    HW1 6331   8.454   2.903  10.056
68166SOL    HW2 6332   8.529   2.778  10.096
68167SOL     OW 6333  12.365   1.662  12.329
68167SOL    HW1 6334  12.306   1.695  12.396
68167SOL    HW2 6335  12.313   1.664  12.248
68168SOL     OW 6336   4.488   4.174  13.160
68168SOL    HW1 6337   4.416   4.184  13.098
68168SOL    HW2 6338   4.543   4.252  13.146
68169SOL     OW 6339  12.925   5.664   8.282
68169SOL    HW1 6340  12.957   5.623   8.362
68169SOL    HW2 6341  12.836   5.632   8.272
68170SOL     OW 6342  12.819  14.354  10.852
68170SOL    HW1 6343  12.898  14.381  10.806
68170SOL    HW2 6344  12.800  14.426  10.912
68171SOL     OW 6345   1.926   7.539   5.002
68171SOL    HW1 6346   1.910   7.561   5.094
68171SOL    HW2 6347   1.848   7.490   4.975
68172SOL     OW 6348  10.950   8.356   3.307
68172SOL    HW1 6349  10.968   8.438   3.352
68172SOL    HW2 6350  10.933   8.381   3.216
68173SOL     OW 6351  13.849  12.167   5.063
68173SOL    HW1 6352  13.806  12.237   5.112
68173SOL    HW2 6353  13.777  12.110   5.035
68174SOL     OW 6354  14.170   3.209   8.859
68174SOL    HW1 6355  14.074   3.204   8.865
68174SOL    HW2 6356  14.197   3.123   8.828
68175SOL     OW 6357  11.835  11.397   5.251
68175SOL    HW1 6358  11.880  11.327   5.204
68175SOL    HW2 6359  11.798  11.452   5.183
68176SOL     OW 6360   3.029   6.547   5.962
68176SOL    HW1 6361   3.106   6.495   5.983
68176SOL    HW2 6362   3.063   6.628   5.925
68177SOL     OW 6363   9.465   2.470  12.144
68177SOL    HW1 6364   9.391   2.519  12.108
68177SOL    HW2 6365   9.503   2.425  12.069
68178SOL     OW 6366   8.576   0.876   5.769
68178SOL    HW1 6367   8.568   0.841   5.857
68178SOL    HW2 6368   8.552   0.803   5.712
68179SOL     OW 6369  12.663  13.797   6.852
68179SOL    HW1 6370  12.640  13.724   6.795
68179SOL    HW2 6371  12.586  13.855   6.848
68180SOL     OW 6372  14.216   2.303   8.762
68180SOL    HW1 6373  14.262   2.386   8.776
68180SOL    HW2 6374  14.179   2.310   8.674
68181SOL     OW 6375  12.503  14.027   2.761
68181SOL    HW1 6376  12.489  13.932   2.763
68181SOL    HW2 6377  12.540  14.044   2.675
68182SOL     OW 6378   5.544   6.510   9.591
68182SOL    HW1 6379   5.493   6.437   9.557
68182SOL    HW2 6380   5.622   6.512   9.537
68183SOL     OW 6381  13.429  11.317   1.904
68183SOL    HW1 6382  13.421  11.341   1.811
68183SOL    HW2 6383  13.411  11.399   1.951
68184SOL     OW 6384   7.054   4.326   9.313
68184SOL    HW1 6385   7.038   4.278   9.395
68184SOL    HW2 6386   6.968   4.328   9.270
68185SOL     OW 6387  12.466   0.207   1.784
68185SOL    HW1 6388  12.433   0.250   1.705
68185SOL    HW2 6389  12.444   0.114   1.771
68186SOL     OW 6390   1.619   6.561  13.979
68186SOL    HW1 6391   1.633   6.469  14.001
68186SOL    HW2 6392   1.572   6.559  13.896
68187SOL     OW 6393  13.758  10.995   5.588
68187SOL    HW1 6394  13.677  10.998   5.536
68187SOL    HW2 6395  13.815  11.061   5.549
68188SOL     OW 6396   6.903  10.919  13.515
68188SOL    HW1 6397   6.865  10.988  13.461
68188SOL    HW2 6398   6.929  10.851  13.453
68189SOL     OW 6399   5.207  13.483   5.468
68189SOL    HW1 6400   5.119  13.493   5.432
68189SOL    HW2 6401   5.227  13.567   5.509
68190SOL     OW 6402   7.483   4.521   5.055
68190SOL    HW1 6403   7.413   4.469   5.095
68190SOL    HW2 6404   7.440   4.604   5.032
68191SOL     OW 6405   1.371   3.671   3.057
68191SOL    HW1 6406   1.383   3.711   3.143
68191SOL    HW2 6407   1.429   3.595   3.058
68192SOL     OW 6408   7.680   1.046   7.153
68192SOL    HW1 6409   7.615   0.979   7.175
68192SOL    HW2 6410   7.730   1.058   7.234
68193SOL     OW 6411  14.836   0.994   9.142
68193SOL    HW1 6412  14.849   0.931   9.213
68193SOL    HW2 6413  14.753   1.037   9.163
68194SOL     OW 6414   8.771   4.009   7.632
68194SOL    HW1 6415   8.736   3.942   7.573
68194SOL    HW2 6416   8.862   4.018   7.606
68195SOL     OW 6417   3.387   9.098  10.794
68195SOL    HW1 6418   3.479   9.076  10.809
68195SOL    HW2 6419   3.389   9.190  10.768
68196SOL     OW 6420   4.939  12.209  12.621
68196SOL    HW1 6421   4.870  12.192  12.685
68196SOL    HW2 6422   5.010  12.248  12.672
68197SOL     OW 6423   4.398   4.390   5.458
68197SOL    HW1 6424   4.304   4.406   5.461
68197SOL    HW2 6425   4.419   4.380   5.365
68198SOL     OW 6426   0.600   5.222   1.314
68198SOL    HW1 6427   0.680   5.264   1.348
68198SOL    HW2 6428   0.603   5.238   1.220
68199SOL     OW 6429   5.106  13.384   4.419
68199SOL    HW1 6430   5.182  13.360   4.366
68199SOL    HW2 6431   5.051  13.436   4.361
68200SOL     OW 6432  10.667   4.286   2.075
68200SOL    HW1 6433  10.754   4.277   2.114
68200SOL    HW2 6434  10.662   4.217   2.009
68201SOL     OW 6435  14.770   3.358   4.426
68201SOL    HW1 6436  14.710   3.415   4.474
68201SOL    HW2 6437  14.770   3.393   4.337
68202SOL     OW 6438   5.770   3.036  10.467
68202SOL    HW1 6439   5.842   3.062  10.409
68202SOL    HW2 6440   5.691   3.050  10.415
68203SOL     OW 6441   6.320   5.972  10.371
68203SOL    HW1 6442   6.248   5.909  10.385
68203SOL    HW2 6443   6.313   5.997  10.279
68204SOL     OW 6444  11.852   9.639  13.366
68204SOL    HW1 6445  11.846   9.576  13.294
68204SOL    HW2 6446  11.801   9.714  13.336
68205SOL     OW 6447   0.701   1.685  13.354
68205SOL    HW1 6448   0.772   1.668  13.292
68205SOL    HW2 6449   0.680   1.778  13.342
68206SOL     OW 6450   2.563   9.583   6.134
68206SOL    HW1 6451   2.635   9.521   6.147
68206SOL    HW2 6452   2.539   9.572   6.042
68207SOL     OW 6453   2.969  14.229  14.495
68207SOL    HW1 6454   2.903  14.293  14.470
68207SOL    HW2 6455   2.994  14.255  14.584
68208SOL     OW 6456   3.470   8.564  14.518
68208SOL    HW1 6457   3.394   8.603  14.475
68208SOL    HW2 6458   3.503   8.632  14.577
68209SOL     OW 6459   5.733   8.124  14.036
68209SOL    HW1 6460   5.753   8.102  14.127
68209SOL    HW2 6461   5.781   8.059  13.985
68210SOL     OW 6462   7.049   9.929  11.444
68210SOL    HW1 6463   6.959   9.937  11.413
68210SOL    HW2 6464   7.055   9.990  11.518
68211SOL     OW 6465   2.718   8.457   3.423
68211SOL    HW1 6466   2.663   8.397   3.373
68211SOL    HW2 6467   2.803   8.413   3.428
68212SOL     OW 6468  10.715   5.069   4.103
68212SOL    HW1 6469  10.714   4.994   4.162
68212SOL    HW2 6470  10.640   5.056   4.045
68213SOL     OW 6471  12.924  13.931  12.985
68213SOL    HW1 6472  12.841  13.972  12.960
68213SOL    HW2 6473  12.912  13.838  12.964
68214SOL     OW 6474   9.002   2.874   5.843
68214SOL    HW1 6475   9.092   2.846   5.859
68214SOL    HW2 6476   8.969   2.811   5.778
68215SOL     OW 6477   2.601  14.354   4.207
68215SOL    HW1 6478   2.531  14.322   4.151
68215SOL    HW2 6479   2.555  14.398   4.279
68216SOL     OW 6480   2.162   8.944   2.390
68216SOL    HW1 6481   2.073   8.964   2.418
68216SOL    HW2 6482   2.153   8.873   2.327
68217SOL     OW 6483   1.776   2.818  13.399
68217SOL    HW1 6484   1.844   2.776  13.346
68217SOL    HW2 6485   1.815   2.901  13.426
68218SOL     OW 6486   2.129   2.398  12.558
68218SOL    HW1 6487   2.165   2.454  12.627
68218SOL    HW2 6488   2.107   2.316  12.603
68219SOL     OW 6489   4.149   0.770   4.284
68219SOL    HW1 6490   4.197   0.846   4.319
68219SOL    HW2 6491   4.181   0.760   4.195
68220SOL     OW 6492  13.618   1.316   1.411
68220SOL    HW1 6493  13.537   1.345   1.454
68220SOL    HW2 6494  13.687   1.333   1.476
68221SOL     OW 6495  10.549   8.664   1.081
68221SOL    HW1 6496  10.454   8.664   1.088
68221SOL    HW2 6497  10.567   8.722   1.007
68222SOL     OW 6498  12.535   0.578   0.037
68222SOL    HW1 6499  12.552   0.616   0.123
68222SOL    HW2 6500  12.593   0.501   0.032
68223SOL     OW 6501   9.404   5.940   9.529
68223SOL    HW1 6502   9.402   5.870   9.595
68223SOL    HW2 6503   9.495   5.944   9.501
68224SOL     OW 6504   0.314   6.621   0.516
68224SOL    HW1 6505   0.378   6.672   0.467
68224SOL    HW2 6506   0.361   6.542   0.542
68225SOL     OW 6507   3.381   5.050  12.314
68225SOL    HW1 6508   3.301   5.085  12.274
68225SOL    HW2 6509   3.390   4.962  12.277
68226SOL     OW 6510   9.379   0.969  14.606
68226SOL    HW1 6511   9.368   1.037  14.539
68226SOL    HW2 6512   9.467   0.935  14.591
68227SOL     OW 6513   3.066   6.430   0.046
68227SOL    HW1 6514   3.016   6.354   0.074
68227SOL    HW2 6515   3.105   6.404  14.841
68228SOL     OW 6516  10.001  11.995   7.629
68228SOL    HW1 6517   9.939  12.052   7.584
68228SOL    HW2 6518   9.946  11.937   7.681
68229SOL     OW 6519  13.521   5.889   8.129
68229SOL    HW1 6520  13.435   5.926   8.110
68229SOL    HW2 6521  13.503   5.801   8.163
68230SOL     OW 6522   6.038   5.166   7.282
68230SOL    HW1 6523   6.051   5.223   7.358
68230SOL    HW2 6524   6.054   5.222   7.206
68231SOL     OW 6525  12.845   9.833  10.179
68231SOL    HW1 6526  12.806   9.847  10.265
68231SOL    HW2 6527  12.791   9.764  10.139
68232SOL     OW 6528   2.513  11.755   2.294
68232SOL    HW1 6529   2.427  11.733   2.329
68232SOL    HW2 6530   2.495  11.801   2.212
68233SOL     OW 6531   5.159  14.242  13.883
68233SOL    HW1 6532   5.206  14.160  13.896
68233SOL    HW2 6533   5.124  14.264  13.969
68234SOL     OW 6534   1.974   5.779   5.133
68234SOL    HW1 6535   2.014   5.824   5.208
68234SOL    HW2 6536   1.961   5.689   5.164
68235SOL     OW 6537  12.186  12.676  13.217
68235SOL    HW1 6538  12.126  12.687  13.291
68235SOL    HW2 6539  12.272  12.700  13.251
68236SOL     OW 6540   3.570  10.308   6.960
68236SOL    HW1 6541   3.482  10.279   6.984
68236SOL    HW2 6542   3.618  10.309   7.044
68237SOL     OW 6543   6.437   7.387  13.000
68237SOL    HW1 6544   6.456   7.365  13.091
68237SOL    HW2 6545   6.348   7.424  13.002
68238SOL     OW 6546   6.711   7.766   1.444
68238SOL    HW1 6547   6.667   7.780   1.360
68238SOL    HW2 6548   6.682   7.840   1.498
68239SOL     OW 6549   8.765   5.530   1.221
68239SOL    HW1 6550   8.699   5.490   1.164
68239SOL    HW2 6551   8.839   5.548   1.162
68240SOL     OW 6552  10.587   4.250   8.782
68240SOL    HW1 6553  10.600   4.228   8.874
68240SOL    HW2 6554  10.668   4.295   8.757
68241SOL     OW 6555   8.193  13.644   7.758
68241SOL    HW1 6556   8.281  13.639   7.794
68241SOL    HW2 6557   8.154  13.722   7.798
68242SOL     OW 6558   4.756   7.115   8.855
68242SOL    HW1 6559   4.715   7.194   8.821
68242SOL    HW2 6560   4.690   7.076   8.912
68243SOL     OW 6561   3.157   7.217   3.482
68243SOL    HW1 6562   3.155   7.281   3.553
68243SOL    HW2 6563   3.241   7.173   3.491
68244SOL     OW 6564  12.690   0.666   8.513
68244SOL    HW1 6565  12.761   0.656   8.577
68244SOL    HW2 6566  12.711   0.747   8.466
68245SOL     OW 6567   3.497  12.442   8.724
68245SOL    HW1 6568   3.547  12.431   8.804
68245SOL    HW2 6569   3.503  12.358   8.679
68246SOL     OW 6570   6.509   8.401   7.326
68246SOL    HW1 6571   6.547   8.313   7.321
68246SOL    HW2 6572   6.583   8.459   7.311
68247SOL     OW 6573   0.818   7.440  13.678
68247SOL    HW1 6574   0.820   7.402  13.766
68247SOL    HW2 6575   0.756   7.512  13.685
68248SOL     OW 6576  10.802  12.106  11.366
68248SOL    HW1 6577  10.825  12.055  11.289
68248SOL    HW2 6578  10.758  12.183  11.332
68249SOL     OW 6579  10.405   9.059   7.011
68249SOL    HW1 6580  10.388   9.054   6.917
68249SOL    HW2 6581  10.482   9.116   7.018
68250SOL     OW 6582  11.410  13.261   7.547
68250SOL    HW1 6583  11.424  13.276   7.640
68250SOL    HW2 6584  11.495  13.280   7.507
68251SOL     OW 6585   2.483   6.449   0.032
68251SOL    HW1 6586   2.410   6.441   0.094
68251SOL    HW2 6587   2.521   6.534   0.051
68252SOL     OW 6588   3.744  10.289   7.185
68252SOL    HW1 6589   3.716  10.249   7.267
68252SOL    HW2 6590   3.829  10.248   7.166
68253SOL     OW 6591   0.710   0.692   7.458
68253SOL    HW1 6592   0.772   0.681   7.386
68253SOL    HW2 6593   0.684   0.784   7.454
68254SOL     OW 6594  14.557  10.909   8.535
68254SOL    HW1 6595  14.551  10.830   8.589
68254SOL    HW2 6596  14.485  10.965   8.567
68255SOL     OW 6597  12.592  12.447  11.161
68255SOL    HW1 6598  12.658  12.487  11.219
68255SOL    HW2 6599  12.530  12.405  11.221
68256SOL     OW 6600  11.875  11.865   9.440
68256SOL    HW1 6601  11.817  11.825   9.506
68256SOL    HW2 6602  11.912  11.790   9.393
68257SOL     OW 6603  14.054  10.591   2.674
68257SOL    HW1 6604  13.997  10.548   2.738
68257SOL    HW2 6605  14.014  10.573   2.590
68258SOL     OW 6606   6.884   1.749   2.571
68258SOL    HW1 6607   6.960   1.702   2.537
68258SOL    HW2 6608   6.809   1.695   2.546
68259SOL     OW 6609  11.567   2.452  11.122
68259SOL    HW1 6610  11.534   2.393  11.190
68259SOL    HW2 6611  11.553   2.405  11.040
68260SOL     OW 6612   1.258   5.249   2.171
68260SOL    HW1 6613   1.333   5.196   2.143
68260SOL    HW2 6614   1.246   5.312   2.100
68261SOL     OW 6615  14.535   7.389  14.264
68261SOL    HW1 6616  14.568   7.422  14.181
68261SOL    HW2 6617  14.446   7.423  14.270
68262SOL     OW 6618  10.490   1.955   4.853
68262SOL    HW1 6619  10.585   1.958   4.852
68262SOL    HW2 6620  10.468   1.908   4.934
68263SOL     OW 6621  14.372   0.788  13.336
68263SOL    HW1 6622  14.464   0.814  13.324
68263SOL    HW2 6623  14.323   0.870  13.331
68264SOL     OW 6624   1.530   9.388   2.173
68264SOL    HW1 6625   1.593   9.456   2.198
68264SOL    HW2 6626   1.556   9.363   2.084
68265SOL     OW 6627   4.561   9.086   7.117
68265SOL    HW1 6628   4.575   9.180   7.107
68265SOL    HW2 6629   4.557   9.053   7.028
68266SOL     OW 6630   3.002   8.597  11.238
68266SOL    HW1 6631   3.071   8.532  11.252
68266SOL    HW2 6632   2.955   8.565  11.161
68267SOL     OW 6633   6.449   1.806   6.790
68267SOL    HW1 6634   6.512   1.740   6.761
68267SOL    HW2 6635   6.367   1.758   6.801
68268SOL     OW 6636   1.457   6.028  10.073
68268SOL    HW1 6637   1.525   6.035  10.006
68268SOL    HW2 6638   1.460   5.937  10.101
68269SOL     OW 6639   5.452  13.108   3.952
68269SOL    HW1 6640   5.414  13.026   3.921
68269SOL    HW2 6641   5.467  13.094   4.046
68270SOL     OW 6642   1.222   9.645   8.661
68270SOL    HW1 6643   1.294   9.609   8.713
68270SOL    HW2 6644   1.173   9.701   8.722
68271SOL     OW 6645   5.459  11.533   5.757
68271SOL    HW1 6646   5.431  11.502   5.844
68271SOL    HW2 6647   5.387  11.509   5.699
68272SOL     OW 6648   3.772   9.662  10.822
68272SOL    HW1 6649   3.801   9.705  10.902
68272SOL    HW2 6650   3.677   9.655  10.831
68273SOL     OW 6651   7.155   5.608  11.150
68273SOL    HW1 6652   7.089   5.616  11.081
68273SOL    HW2 6653   7.215   5.541  11.118
68274SOL     OW 6654   9.140   1.526  10.507
68274SOL    HW1 6655   9.184   1.498  10.587
68274SOL    HW2 6656   9.185   1.607  10.483
68275SOL     OW 6657   1.374  12.078  12.591
68275SOL    HW1 6658   1.415  12.162  12.573
68275SOL    HW2 6659   1.442  12.027  12.636
68276SOL     OW 6660   9.609   7.885  13.562
68276SOL    HW1 6661   9.530   7.884  13.508
68276SOL    HW2 6662   9.591   7.953  13.627
68277SOL     OW 6663  13.517  14.539  10.061
68277SOL    HW1 6664  13.549  14.591   9.987
68277SOL    HW2 6665  13.500  14.603  10.130
68278SOL     OW 6666   2.970   0.225   6.315
68278SOL    HW1 6667   2.906   0.205   6.246
68278SOL    HW2 6668   3.045   0.260   6.268
68279SOL     OW 6669  10.829  14.855   3.227
68279SOL    HW1 6670  10.922  14.877   3.221
68279SOL    HW2 6671  10.825  14.763   3.200
68280SOL     OW 6672  10.749   6.647   7.628
68280SOL    HW1 6673  10.739   6.607   7.542
68280SOL    HW2 6674  10.826   6.605   7.666
68281SOL     OW 6675  11.423  11.743  13.522
68281SOL    HW1 6676  11.377  11.810  13.574
68281SOL    HW2 6677  11.492  11.791  13.477
68282SOL     OW 6678   0.835   0.759   7.739
68282SOL    HW1 6679   0.852   0.678   7.786
68282SOL    HW2 6680   0.793   0.731   7.658
68283SOL     OW 6681  14.054   7.009   3.931
68283SOL    HW1 6682  14.139   7.020   3.888
68283SOL    HW2 6683  14.041   7.091   3.979
68284SOL     OW 6684   4.069   5.048   1.391
68284SOL    HW1 6685   4.141   5.099   1.354
68284SOL    HW2 6686   4.101   5.020   1.477
68285SOL     OW 6687   9.636   2.620   0.593
68285SOL    HW1 6688   9.593   2.674   0.659
68285SOL    HW2 6689   9.569   2.605   0.527
68286SOL     OW 6690   3.534  13.857   7.335
68286SOL    HW1 6691   3.602  13.881   7.272
68286SOL    HW2 6692   3.578  13.795   7.394
68287SOL     OW 6693  10.797   8.160  11.646
68287SOL    HW1 6694  10.810   8.119  11.731
68287SOL    HW2 6695  10.702   8.162  11.635
68288SOL     OW 6696   1.244   9.640  13.074
68288SOL    HW1 6697   1.219   9.571  13.012
68288SOL    HW2 6698   1.334   9.662  13.050
68289SOL     OW 6699   4.951   7.685  12.375
68289SOL    HW1 6700   5.012   7.744  12.331
68289SOL    HW2 6701   4.979   7.688  12.467
68290SOL     OW 6702   2.692   4.747   5.310
68290SOL    HW1 6703   2.677   4.840   5.290
68290SOL    HW2 6704   2.730   4.711   5.230
68291SOL     OW 6705  13.428   9.784  11.630
68291SOL    HW1 6706  13.350   9.833  11.654
68291SOL    HW2 6707  13.500   9.836  11.666
68292SOL     OW 6708   7.061  14.351  12.468
68292SOL    HW1 6709   6.992  14.314  12.524
68292SOL    HW2 6710   7.110  14.275  12.436
68293SOL     OW 6711   9.854   0.865   2.080
68293SOL    HW1 6712   9.765   0.892   2.106
68293SOL    HW2 6713   9.867   0.907   1.996
68294SOL     OW 6714   1.079   0.969   2.468
68294SOL    HW1 6715   0.990   0.988   2.497
68294SOL    HW2 6716   1.074   0.970   2.373
68295SOL     OW 6717  14.845   0.608   3.823
68295SOL    HW1 6718  14.771   0.668   3.834
68295SOL    HW2 6719   0.040   0.656   3.859
68296SOL     OW 6720   2.744  14.348   5.881
68296SOL    HW1 6721   2.687  14.281   5.920
68296SOL    HW2 6722   2.699  14.374   5.800
68297SOL     OW 6723  12.889   5.367   3.064
68297SOL    HW1 6724  12.945   5.392   2.991
68297SOL    HW2 6725  12.896   5.271   3.067
68298SOL     OW 6726   0.571  10.000  11.811
68298SOL    HW1 6727   0.559  10.038  11.898
68298SOL    HW2 6728   0.574  10.075  11.752
68299SOL     OW 6729   1.734   7.095   4.103
68299SOL    HW1 6730   1.816   7.137   4.130
68299SOL    HW2 6731   1.760   7.033   4.035
68300SOL     OW 6732   1.967   8.227   9.844
68300SOL    HW1 6733   1.969   8.131   9.843
68300SOL    HW2 6734   1.965   8.250   9.937
68301SOL     OW 6735   6.801  11.272   3.505
68301SOL    HW1 6736   6.788  11.181   3.533
68301SOL    HW2 6737   6.896  11.280   3.492
68302SOL     OW 6738   4.398   0.105   3.842
68302SOL    HW1 6739   4.466   0.039   3.825
68302SOL    HW2 6740   4.421   0.141   3.928
68303SOL     OW 6741   8.546  13.821   8.323
68303SOL    HW1 6742   8.635  13.838   8.353
68303SOL    HW2 6743   8.549  13.730   8.291
68304SOL     OW 6744   0.696   8.783  13.875
68304SOL    HW1 6745   0.706   8.858  13.934
68304SOL    HW2 6746   0.771   8.727  13.896
68305SOL     OW 6747  11.327  11.255   7.720
68305SOL    HW1 6748  11.331  11.194   7.647
68305SOL    HW2 6749  11.385  11.218   7.786
68306SOL     OW 6750   9.152   4.382  14.249
68306SOL    HW1 6751   9.200   4.416  14.173
68306SOL    HW2 6752   9.085   4.448  14.266
68307SOL     OW 6753   5.336  10.743   6.670
68307SOL    HW1 6754   5.362  10.828   6.706
68307SOL    HW2 6755   5.419  10.699   6.649
68308SOL     OW 6756  12.493   3.662   3.885
68308SOL    HW1 6757  12.573   3.703   3.920
68308SOL    HW2 6758  12.498   3.677   3.791
68309SOL     OW 6759   9.273  14.286  11.198
68309SOL    HW1 6760   9.293  14.376  11.172
68309SOL    HW2 6761   9.320  14.233  11.134
68310SOL     OW 6762   2.297  11.119   4.625
68310SOL    HW1 6763   2.337  11.163   4.550
68310SOL    HW2 6764   2.344  11.154   4.701
68311SOL     OW 6765  10.409   5.103   5.976
68311SOL    HW1 6766  10.368   5.038   5.919
68311SOL    HW2 6767  10.494   5.066   5.998
68312SOL     OW 6768   3.281   2.087  10.636
68312SOL    HW1 6769   3.336   2.011  10.652
68312SOL    HW2 6770   3.302   2.114  10.546
68313SOL     OW 6771   0.996   7.220   6.711
68313SOL    HW1 6772   0.957   7.225   6.624
68313SOL    HW2 6773   1.061   7.150   6.705
68314SOL     OW 6774  12.720   9.824  11.896
68314SOL    HW1 6775  12.814   9.816  11.916
68314SOL    HW2 6776  12.693   9.736  11.872
68315SOL     OW 6777   0.944   8.803   5.972
68315SOL    HW1 6778   0.883   8.832   5.904
68315SOL    HW2 6779   1.023   8.856   5.956
68316SOL     OW 6780   0.717  14.581   6.500
68316SOL    HW1 6781   0.720  14.606   6.407
68316SOL    HW2 6782   0.735  14.487   6.500
68317SOL     OW 6783   8.630  10.424   5.690
68317SOL    HW1 6784   8.620  10.352   5.629
68317SOL    HW2 6785   8.555  10.481   5.672
68318SOL     OW 6786   4.200  11.776   2.807
68318SOL    HW1 6787   4.239  11.839   2.867
68318SOL    HW2 6788   4.110  11.807   2.794
68319SOL     OW 6789   6.552   9.724   9.853
68319SOL    HW1 6790   6.585   9.639   9.882
68319SOL    HW2 6791   6.552   9.718   9.757
68320SOL     OW 6792   7.468   0.429  10.589
68320SOL    HW1 6793   7.494   0.518  10.568
68320SOL    HW2 6794   7.544   0.390  10.632
68321SOL     OW 6795   8.745   2.927   9.498
68321SOL    HW1 6796   8.744   3.015   9.462
68321SOL    HW2 6797   8.795   2.934   9.579
68322SOL     OW 6798  12.627  14.608   4.996
68322SOL    HW1 6799  12.562  14.591   4.928
68322SOL    HW2 6800  12.652  14.521   5.027
68323SOL     OW 6801  12.520  11.887   7.132
68323SOL    HW1 6802  12.543  11.824   7.065
68323SOL    HW2 6803  12.495  11.966   7.084
68324SOL     OW 6804   4.625   7.721  14.795
68324SOL    HW1 6805   4.564   7.668  14.744
68324SOL    HW2 6806   4.672   7.658  14.850
68325SOL     OW 6807  11.871  11.162   7.378
68325SOL    HW1 6808  11.800  11.164   7.313
68325SOL    HW2 6809  11.895  11.069   7.384
68326SOL     OW 6810  12.955   0.876  10.626
68326SOL    HW1 6811  12.999   0.845  10.705
68326SOL    HW2 6812  12.968   0.970  10.626
68327SOL     OW 6813   1.071   3.386   8.175
68327SOL    HW1 6814   0.995   3.342   8.211
68327SOL    HW2 6815   1.099   3.446   8.244
68328SOL     OW 6816   0.420   8.378   7.628
68328SOL    HW1 6817   0.401   8.320   7.555
68328SOL    HW2 6818   0.335   8.399   7.666
68329SOL     OW 6819  11.838   0.684   3.345
68329SOL    HW1 6820  11.857   0.656   3.256
68329SOL    HW2 6821  11.762   0.631   3.370
68330SOL     OW 6822   6.644   7.832   3.978
68330SOL    HW1 6823   6.563   7.845   4.026
68330SOL    HW2 6824   6.713   7.866   4.036
68331SOL     OW 6825   8.826   3.309  12.165
68331SOL    HW1 6826   8.737   3.301  12.199
68331SOL    HW2 6827   8.818   3.368  12.089
68332SOL     OW 6828   4.733  10.841   6.124
68332SOL    HW1 6829   4.668  10.817   6.058
68332SOL    HW2 6830   4.813  10.795   6.097
68333SOL     OW 6831  10.394   7.255  12.124
68333SOL    HW1 6832  10.394   7.261  12.028
68333SOL    HW2 6833  10.343   7.330  12.153
68334SOL     OW 6834  10.274   6.826  14.658
68334SOL    HW1 6835  10.252   6.772  14.734
68334SOL    HW2 6836  10.360   6.862  14.678
68335SOL     OW 6837   4.830   1.254  13.561
68335SOL    HW1 6838   4.896   1.320  13.584
68335SOL    HW2 6839   4.799   1.280  13.474
68336SOL     OW 6840   2.093  12.840   0.583
68336SOL    HW1 6841   2.014  12.849   0.635
68336SOL    HW2 6842   2.095  12.748   0.557
68337SOL     OW 6843   2.977   8.863   8.280
68337SOL    HW1 6844   2.925   8.850   8.200
68337SOL    HW2 6845   3.054   8.808   8.266
68338SOL     OW 6846  11.246  14.273   0.071
68338SOL    HW1 6847  11.201  14.358   0.063
68338SOL    HW2 6848  11.326  14.284   0.019
68339SOL     OW 6849   3.422  12.275  11.273
68339SOL    HW1 6850   3.438  12.183  11.252
68339SOL    HW2 6851   3.331  12.291  11.249
68340SOL     OW 6852   1.893   2.595   7.019
68340SOL    HW1 6853   1.922   2.637   6.939
68340SOL    HW2 6854   1.948   2.517   7.026
68341SOL     OW 6855   2.153   6.467   2.319
68341SOL    HW1 6856   2.092   6.524   2.364
68341SOL    HW2 6857   2.122   6.464   2.228
68342SOL     OW 6858   7.345   2.716   7.071
68342SOL    HW1 6859   7.350   2.810   7.085
68342SOL    HW2 6860   7.255   2.693   7.093
68343SOL     OW 6861  11.722   4.970   5.367
68343SOL    HW1 6862  11.711   4.875   5.361
68343SOL    HW2 6863  11.817   4.983   5.365
68344SOL     OW 6864   4.796   9.250   9.846
68344SOL    HW1 6865   4.840   9.180   9.797
68344SOL    HW2 6866   4.760   9.205   9.923
68345SOL     OW 6867   7.858  11.277   2.646
68345SOL    HW1 6868   7.903  11.205   2.691
68345SOL    HW2 6869   7.874  11.260   2.553
68346SOL     OW 6870  14.493   6.760  12.600
68346SOL    HW1 6871  14.420   6.802  12.555
68346SOL    HW2 6872  14.543   6.833  12.637
68347SOL     OW 6873   1.676   9.180  14.683
68347SOL    HW1 6874   1.702   9.251  14.742
68347SOL    HW2 6875   1.650   9.225  14.603
68348SOL     OW 6876   1.059   7.511   0.209
68348SOL    HW1 6877   1.148   7.509   0.175
68348SOL    HW2 6878   1.023   7.594   0.177
68349SOL     OW 6879   3.692   5.850   7.061
68349SOL    HW1 6880   3.696   5.904   7.140
68349SOL    HW2 6881   3.765   5.790   7.068
68350SOL     OW 6882   3.072  10.623   1.927
68350SOL    HW1 6883   3.043  10.672   2.004
68350SOL    HW2 6884   3.167  10.629   1.928
68351SOL     OW 6885  10.820  10.234   8.376
68351SOL    HW1 6886  10.807  10.145   8.344
68351SOL    HW2 6887  10.732  10.264   8.401
68352SOL     OW 6888   5.988   1.324  14.072
68352SOL    HW1 6889   6.033   1.394  14.024
68352SOL    HW2 6890   6.057   1.283  14.124
68353SOL     OW 6891  11.989  13.086  11.568
68353SOL    HW1 6892  12.008  13.046  11.483
68353SOL    HW2 6893  11.898  13.062  11.585
68354SOL     OW 6894   3.701   1.998   9.656
68354SOL    HW1 6895   3.619   1.988   9.607
68354SOL    HW2 6896   3.719   2.092   9.653
68355SOL     OW 6897   1.563   4.226   3.779
68355SOL    HW1 6898   1.633   4.277   3.820
68355SOL    HW2 6899   1.518   4.183   3.852
68356SOL     OW 6900  10.598   0.086   3.105
68356SOL    HW1 6901  10.674   0.045   3.147
68356SOL    HW2 6902  10.622   0.092   3.013
68357SOL     OW 6903   5.193   9.602   9.925
68357SOL    HW1 6904   5.204   9.525   9.870
68357SOL    HW2 6905   5.110   9.640   9.896
68358SOL     OW 6906   4.187   6.578  12.030
68358SOL    HW1 6907   4.155   6.488  12.042
68358SOL    HW2 6908   4.268   6.567  11.980
68359SOL     OW 6909   1.078   5.363   0.537
68359SOL    HW1 6910   1.057   5.397   0.624
68359SOL    HW2 6911   1.171   5.381   0.527
68360SOL     OW 6912   0.742  11.294   3.757
68360SOL    HW1 6913   0.795  11.256   3.686
68360SOL    HW2 6914   0.713  11.218   3.808
68361SOL     OW 6915   3.784  14.168   9.929
68361SOL    HW1 6916   3.719  14.148   9.996
68361SOL    HW2 6917   3.798  14.262   9.935
68362SOL     OW 6918   8.693  12.750   9.654
68362SOL    HW1 6919   8.643  12.688   9.601
68362SOL    HW2 6920   8.780  12.713   9.659
68363SOL     OW 6921   9.393   7.782   2.353
68363SOL    HW1 6922   9.325   7.719   2.378
68363SOL    HW2 6923   9.364   7.865   2.390
68364SOL     OW 6924   9.980   6.337   9.004
68364SOL    HW1 6925  10.044   6.386   8.953
68364SOL    HW2 6926   9.900   6.340   8.952
68365SOL     OW 6927   4.846   9.167  11.808
68365SOL    HW1 6928   4.829   9.073  11.815
68365SOL    HW2 6929   4.818   9.202  11.893
68366SOL     OW 6930  11.485   7.384   0.781
68366SOL    HW1 6931  11.537   7.359   0.857
68366SOL    HW2 6932  11.541   7.445   0.733
68367SOL     OW 6933  10.955   6.053  12.736
68367SOL    HW1 6934  10.900   6.052  12.814
68367SOL    HW2 6935  10.997   5.967  12.735
68368SOL     OW 6936  12.724  14.353   2.091
68368SOL    HW1 6937  12.817  14.358   2.109
68368SOL    HW2 6938  12.702  14.439   2.054
68369SOL     OW 6939   1.568   0.402   0.510
68369SOL    HW1 6940   1.547   0.328   0.567
68369SOL    HW2 6941   1.597   0.471   0.570
68370SOL     OW 6942   4.122   6.743  11.347
68370SOL    HW1 6943   4.111   6.749  11.252
68370SOL    HW2 6944   4.207   6.784  11.364
68371SOL     OW 6945  12.083   6.609   6.433
68371SOL    HW1 6946  12.058   6.519   6.452
68371SOL    HW2 6947  12.089   6.651   6.519
68372SOL     OW 6948   1.233   5.034  11.110
68372SOL    HW1 6949   1.148   4.995  11.132
68372SOL    HW2 6950   1.220   5.071  11.023
68373SOL     OW 6951  13.917   2.700  12.842
68373SOL    HW1 6952  13.964   2.636  12.789
68373SOL    HW2 6953  13.857   2.743  12.780
68374SOL     OW 6954  13.408   4.625   2.543
68374SOL    HW1 6955  13.431   4.661   2.458
68374SOL    HW2 6956  13.360   4.544   2.524
68375SOL     OW 6957   8.579  13.629  14.360
68375SOL    HW1 6958   8.504  13.571  14.347
68375SOL    HW2 6959   8.553  13.712  14.319
68376SOL     OW 6960   1.890   5.400   2.857
68376SOL    HW1 6961   1.847   5.369   2.937
68376SOL    HW2 6962   1.845   5.353   2.787
68377SOL     OW 6963  12.935   2.957   2.963
68377SOL    HW1 6964  12.998   3.023   2.935
68377SOL    HW2 6965  12.989   2.883   2.993
68378SOL     OW 6966   7.872   1.653   8.179
68378SOL    HW1 6967   7.830   1.572   8.151
68378SOL    HW2 6968   7.946   1.624   8.232
68379SOL     OW 6969  12.164   2.926   7.037
68379SOL    HW1 6970  12.091   2.986   7.022
68379SOL    HW2 6971  12.228   2.978   7.085
68380SOL     OW 6972   6.857   1.716   0.392
68380SOL    HW1 6973   6.898   1.775   0.456
68380SOL    HW2 6974   6.896   1.630   0.410
68381SOL     OW 6975   0.414  12.192   7.821
68381SOL    HW1 6976   0.439  12.156   7.736
68381SOL    HW2 6977   0.452  12.132   7.884
68382SOL     OW 6978  14.075   6.808   6.978
68382SOL    HW1 6979  14.155   6.770   6.942
68382SOL    HW2 6980  14.030   6.734   7.019
68383SOL     OW 6981  14.430  13.546   1.303
68383SOL    HW1 6982  14.499  13.573   1.242
68383SOL    HW2 6983  14.416  13.623   1.358
68384SOL     OW 6984  11.228  10.050   6.540
68384SOL    HW1 6985  11.248  10.069   6.632
68384SOL    HW2 6986  11.208   9.956   6.539
68385SOL     OW 6987  12.515   2.353   8.348
68385SOL    HW1 6988  12.455   2.294   8.302
68385SOL    HW2 6989  12.468   2.436   8.352
68386SOL     OW 6990   8.403   9.622  12.400
68386SOL    HW1 6991   8.399   9.583  12.312
68386SOL    HW2 6992   8.474   9.576  12.444
68387SOL     OW 6993   5.520   5.685   8.315
68387SOL    HW1 6994   5.442   5.736   8.296
68387SOL    HW2 6995   5.593   5.746   8.304
68388SOL     OW 6996   1.977   0.448  11.597
68388SOL    HW1 6997   1.924   0.494  11.532
68388SOL    HW2 6998   1.993   0.362  11.559
68389SOL     OW 6999   8.783  10.775   6.088
68389SOL    HW1 7000   8.791  10.787   5.993
68389SOL    HW2 7001   8.786  10.864   6.124
68390SOL     OW 7002   0.475   6.057  10.542
68390SOL    HW1 7003   0.549   6.089  10.491
68390SOL    HW2 7004   0.448   5.976  10.498
68391SOL     OW 7005   4.651   6.529   4.150
68391SOL    HW1 7006   4.560   6.549   4.129
68391SOL    HW2 7007   4.690   6.614   4.171
68392SOL     OW 7008  10.242   1.813   2.165
68392SOL    HW1 7009  10.285   1.790   2.248
68392SOL    HW2 7010  10.167   1.754   2.160
68393SOL     OW 7011   8.983  12.547   3.380
68393SOL    HW1 7012   9.052  12.488   3.409
68393SOL    HW2 7013   8.946  12.505   3.303
68394SOL     OW 7014   9.748   6.193   8.353
68394SOL    HW1 7015   9.711   6.137   8.285
68394SOL    HW2 7016   9.840   6.165   8.359
68395SOL     OW 7017  13.306   8.777   9.605
68395SOL    HW1 7018  13.234   8.834   9.579
68395SOL    HW2 7019  13.274   8.732   9.684
68396SOL     OW 7020   0.396  12.905   1.257
68396SOL    HW1 7021   0.369  12.877   1.344
68396SOL    HW2 7022   0.327  12.965   1.228
68397SOL     OW 7023  13.472  13.922  10.569
68397SOL    HW1 7024  13.514  14.006  10.552
68397SOL    HW2 7025  13.512  13.892  10.651
68398SOL     OW 7026   9.254   3.615   7.621
68398SOL    HW1 7027   9.225   3.624   7.530
68398SOL    HW2 7028   9.176   3.635   7.673
68399SOL     OW 7029  11.705   7.078  14.561
68399SOL    HW1 7030  11.676   6.989  14.583
68399SOL    HW2 7031  11.624   7.125  14.542
68400SOL     OW 7032   7.590   4.703   8.466
68400SOL    HW1 7033   7.527   4.652   8.517
68400SOL    HW2 7034   7.676   4.669   8.492
68401SOL     OW 7035   3.959  13.547   4.610
68401SOL    HW1 7036   3.992  13.634   4.587
68401SOL    HW2 7037   4.015  13.487   4.561
68402SOL     OW 7038   1.341   1.928   1.403
68402SOL    HW1 7039   1.299   1.894   1.482
68402SOL    HW2 7040   1.335   2.023   1.412
68403SOL     OW 7041   4.395   9.523   2.209
68403SOL    HW1 7042   4.465   9.572   2.253
68403SOL    HW2 7043   4.315   9.565   2.238
68404SOL     OW 7044  10.416   5.851   1.878
68404SOL    HW1 7045  10.413   5.870   1.784
68404SOL    HW2 7046  10.474   5.918   1.914
68405SOL     OW 7047   5.452   7.546  13.082
68405SOL    HW1 7048   5.422   7.635  13.062
68405SOL    HW2 7049   5.478   7.549  13.174
68406SOL     OW 7050  13.844   0.808   0.559
68406SOL    HW1 7051  13.868   0.772   0.474
68406SOL    HW2 7052  13.920   0.793   0.614
68407SOL     OW 7053  13.073   3.546   9.987
68407SOL    HW1 7054  13.046   3.613   9.925
68407SOL    HW2 7055  13.041   3.578  10.072
68408SOL     OW 7056   6.887   6.279  14.016
68408SOL    HW1 7057   6.794   6.297  14.006
68408SOL    HW2 7058   6.904   6.290  14.109
68409SOL     OW 7059   0.932  14.072   5.175
68409SOL    HW1 7060   0.933  14.075   5.079
68409SOL    HW2 7061   1.016  14.030   5.198
68410SOL     OW 7062   9.578  12.234  14.854
68410SOL    HW1 7063   9.485  12.242  14.872
68410SOL    HW2 7064   9.622  12.265   0.054
68411SOL     OW 7065   9.966  14.732  11.084
68411SOL    HW1 7066   9.883  14.740  11.131
68411SOL    HW2 7067   9.997  14.644  11.104
68412SOL     OW 7068  12.806   8.514  11.926
68412SOL    HW1 7069  12.723   8.466  11.926
68412SOL    HW2 7070  12.850   8.485  12.006
68413SOL     OW 7071   7.244   0.323  13.577
68413SOL    HW1 7072   7.197   0.305  13.496
68413SOL    HW2 7073   7.202   0.267  13.643
68414SOL     OW 7074  12.475  11.053   3.097
68414SOL    HW1 7075  12.568  11.074   3.082
68414SOL    HW2 7076  12.474  10.960   3.120
68415SOL     OW 7077   7.644  12.344   5.543
68415SOL    HW1 7078   7.711  12.411   5.554
68415SOL    HW2 7079   7.603  12.366   5.459
68416SOL     OW 7080  13.317   6.166   9.321
68416SOL    HW1 7081  13.409   6.148   9.337
68416SOL    HW2 7082  13.317   6.238   9.259
68417SOL     OW 7083   5.956   2.453  12.303
68417SOL    HW1 7084   5.941   2.424  12.213
68417SOL    HW2 7085   5.901   2.396  12.356
68418SOL     OW 7086  10.539   6.390   3.960
68418SOL    HW1 7087  10.552   6.374   3.867
68418SOL    HW2 7088  10.619   6.433   3.990
68419SOL     OW 7089   2.448  13.876   8.193
68419SOL    HW1 7090   2.484  13.891   8.281
68419SOL    HW2 7091   2.356  13.853   8.209
68420SOL     OW 7092  14.671  13.258   6.803
68420SOL    HW1 7093  14.655  13.225   6.891
68420SOL    HW2 7094  14.641  13.188   6.745
68421SOL     OW 7095  10.334   2.121   8.563
68421SOL    HW1 7096  10.354   2.159   8.649
68421SOL    HW2 7097  10.274   2.183   8.523
68422SOL     OW 7098   8.040   6.077   9.055
68422SOL    HW1 7099   8.131   6.051   9.041
68422SOL    HW2 7100   8.039   6.172   9.042
68423SOL     OW 7101   3.341  13.641   7.819
68423SOL    HW1 7102   3.375  13.717   7.772
68423SOL    HW2 7103   3.251  13.632   7.788
68424SOL     OW 7104   6.188  13.359   3.107
68424SOL    HW1 7105   6.218  13.304   3.180
68424SOL    HW2 7106   6.092  13.359   3.116
68425SOL     OW 7107  10.414  10.149   1.187
68425SOL    HW1 7108  10.487  10.115   1.238
68425SOL    HW2 7109  10.382  10.224   1.238
68426SOL     OW 7110   4.905   3.174   8.477
68426SOL    HW1 7111   4.903   3.151   8.385
68426SOL    HW2 7112   4.825   3.136   8.513
68427SOL     OW 7113   4.474  10.092  10.473
68427SOL    HW1 7114   4.556  10.066  10.515
68427SOL    HW2 7115   4.484  10.186  10.456
68428SOL     OW 7116   1.964   7.776   7.372
68428SOL    HW1 7117   1.936   7.758   7.282
68428SOL    HW2 7118   2.000   7.864   7.368
68429SOL     OW 7119   5.891  11.373   9.706
68429SOL    HW1 7120   5.910  11.466   9.691
68429SOL    HW2 7121   5.952  11.348   9.775
68430SOL     OW 7122  12.784  11.900   1.629
68430SOL    HW1 7123  12.700  11.883   1.672
68430SOL    HW2 7124  12.838  11.824   1.651
68431SOL     OW 7125   0.656  13.425  10.035
68431SOL    HW1 7126   0.583  13.409  10.095
68431SOL    HW2 7127   0.723  13.361  10.062
68432SOL     OW 7128  11.172  11.732  12.887
68432SOL    HW1 7129  11.257  11.739  12.843
68432SOL    HW2 7130  11.156  11.819  12.922
68433SOL     OW 7131  14.448   3.700  10.831
68433SOL    HW1 7132  14.389   3.746  10.891
68433SOL    HW2 7133  14.425   3.733  10.745
68434SOL     OW 7134  13.038   5.804   8.661
68434SOL    HW1 7135  12.999   5.806   8.749
68434SOL    HW2 7136  13.028   5.713   8.633
68435SOL     OW 7137  13.676   9.898   0.627
68435SOL    HW1 7138  13.591   9.873   0.593
68435SOL    HW2 7139  13.662   9.984   0.667
68436SOL     OW 7140   3.084  13.840   6.437
68436SOL    HW1 7141   3.069  13.808   6.348
68436SOL    HW2 7142   3.130  13.768   6.481
68437SOL     OW 7143   6.398   7.459   6.743
68437SOL    HW1 7144   6.388   7.408   6.823
68437SOL    HW2 7145   6.486   7.497   6.749
68438SOL     OW 7146   8.206  10.736   7.679
68438SOL    HW1 7147   8.291  10.726   7.636
68438SOL    HW2 7148   8.173  10.646   7.688
68439SOL     OW 7149   5.453   6.168  10.757
68439SOL    HW1 7150   5.518   6.099  10.744
68439SOL    HW2 7151   5.372   6.122  10.777
68440SOL     OW 7152   8.779  10.625  10.389
68440SOL    HW1 7153   8.784  10.704  10.336
68440SOL    HW2 7154   8.773  10.656  10.479
68441SOL     OW 7155   1.762  10.357   9.915
68441SOL    HW1 7156   1.770  10.286   9.979
68441SOL    HW2 7157   1.781  10.315   9.831
68442SOL     OW 7158   1.981  13.167   5.086
68442SOL    HW1 7159   2.060  13.181   5.138
68442SOL    HW2 7160   1.948  13.081   5.114
68443SOL     OW 7161   8.437   0.064  13.215
68443SOL    HW1 7162   8.528   0.034  13.203
68443SOL    HW2 7163   8.402   0.073  13.127
68444SOL     OW 7164  12.049   8.265   3.403
68444SOL    HW1 7165  12.103   8.187   3.412
68444SOL    HW2 7166  12.087   8.328   3.466
68445SOL     OW 7167  11.850   6.456   2.524
68445SOL    HW1 7168  11.914   6.508   2.476
68445SOL    HW2 7169  11.767   6.502   2.511
68446SOL     OW 7170   1.468   4.727  11.596
68446SOL    HW1 7171   1.456   4.822  11.585
68446SOL    HW2 7172   1.421   4.688  11.523
68447SOL     OW 7173  12.873   1.964   4.513
68447SOL    HW1 7174  12.862   1.925   4.600
68447SOL    HW2 7175  12.954   2.014   4.519
68448SOL     OW 7176   8.851  13.203  12.536
68448SOL    HW1 7177   8.870  13.253  12.615
68448SOL    HW2 7178   8.925  13.143  12.527
68449SOL     OW 7179   8.894  14.645   0.698
68449SOL    HW1 7180   8.884  14.735   0.665
68449SOL    HW2 7181   8.921  14.656   0.789
68450SOL     OW 7182   5.937   6.391   1.955
68450SOL    HW1 7183   5.995   6.406   2.030
68450SOL    HW2 7184   5.862   6.448   1.970
68451SOL     OW 7185   5.738  10.396  13.095
68451SOL    HW1 7186   5.765  10.345  13.018
68451SOL    HW2 7187   5.719  10.330  13.161
68452SOL     OW 7188   3.818   8.874   8.141
68452SOL    HW1 7189   3.804   8.789   8.101
68452SOL    HW2 7190   3.736   8.922   8.125
68453SOL     OW 7191   1.325  13.109   2.081
68453SOL    HW1 7192   1.420  13.118   2.087
68453SOL    HW2 7193   1.312  13.029   2.030
68454SOL     OW 7194   0.506  10.387   5.723
68454SOL    HW1 7195   0.573  10.330   5.685
68454SOL    HW2 7196   0.463  10.332   5.789
68455SOL     OW 7197  12.153  11.129  13.448
68455SOL    HW1 7198  12.087  11.098  13.510
68455SOL    HW2 7199  12.104  11.150  13.369
68456SOL     OW 7200  14.753   7.064  14.605
68456SOL    HW1 7201  14.679   7.003  14.596
68456SOL    HW2 7202  14.743   7.125  14.533
68457SOL     OW 7203   8.848   4.749   2.778
68457SOL    HW1 7204   8.923   4.771   2.832
68457SOL    HW2 7205   8.854   4.808   2.703
68458SOL     OW 7206   2.892   8.664   4.872
68458SOL    HW1 7207   2.843   8.606   4.814
68458SOL    HW2 7208   2.882   8.624   4.959
68459SOL     OW 7209  10.929   6.519  10.022
68459SOL    HW1 7210  10.969   6.604  10.042
68459SOL    HW2 7211  10.970   6.491   9.941
68460SOL     OW 7212  12.109   8.022  10.149
68460SOL    HW1 7213  12.049   8.022  10.075
68460SOL    HW2 7214  12.057   7.990  10.223
68461SOL     OW 7215   6.965   6.688   7.427
68461SOL    HW1 7216   6.947   6.771   7.471
68461SOL    HW2 7217   6.937   6.703   7.336
68462SOL     OW 7218  10.187   5.885   9.784
68462SOL    HW1 7219  10.266   5.857   9.736
68462SOL    HW2 7220  10.210   5.971   9.819
68463SOL     OW 7221   7.927   3.550   8.330
68463SOL    HW1 7222   7.951   3.594   8.249
68463SOL    HW2 7223   7.918   3.458   8.306
68464SOL     OW 7224  10.289   7.634   2.180
68464SOL    HW1 7225  10.326   7.613   2.266
68464SOL    HW2 7226  10.215   7.573   2.170
68465SOL     OW 7227   7.864   5.651  13.297
68465SOL    HW1 7228   7.871   5.668  13.391
68465SOL    HW2 7229   7.815   5.726  13.263
68466SOL     OW 7230   4.746   4.890   4.219
68466SOL    HW1 7231   4.827   4.893   4.169
68466SOL    HW2 7232   4.770   4.850   4.303
68467SOL     OW 7233   1.588   9.240   2.402
68467SOL    HW1 7234   1.515   9.179   2.402
68467SOL    HW2 7235   1.579   9.287   2.319
68468SOL     OW 7236  10.039  12.699   3.585
68468SOL    HW1 7237   9.968  12.763   3.575
68468SOL    HW2 7238  10.049  12.690   3.680
68469SOL     OW 7239   9.172   5.452   5.613
68469SOL    HW1 7240   9.215   5.470   5.697
68469SOL    HW2 7241   9.150   5.539   5.579
68470SOL     OW 7242   9.395   8.295  10.398
68470SOL    HW1 7243   9.436   8.379  10.417
68470SOL    HW2 7244   9.351   8.270  10.479
68471SOL     OW 7245   5.632   5.722  11.252
68471SOL    HW1 7246   5.654   5.730  11.159
68471SOL    HW2 7247   5.604   5.631  11.262
68472SOL     OW 7248  13.404   4.946   2.666
68472SOL    HW1 7249  13.394   4.966   2.759
68472SOL    HW2 7250  13.382   4.853   2.659
68473SOL     OW 7251  11.054   9.187   9.380
68473SOL    HW1 7252  11.150   9.183   9.379
68473SOL    HW2 7253  11.026   9.107   9.336
68474SOL     OW 7254   8.870  11.790   9.904
68474SOL    HW1 7255   8.835  11.878   9.890
68474SOL    HW2 7256   8.959  11.804   9.937
68475SOL     OW 7257  11.670  12.325   5.962
68475SOL    HW1 7258  11.732  12.387   6.001
68475SOL    HW2 7259  11.719  12.284   5.891
68476SOL     OW 7260   8.233   0.977   6.555
68476SOL    HW1 7261   8.209   1.055   6.604
68476SOL    HW2 7262   8.181   0.982   6.474
68477SOL     OW 7263   7.172  12.787   0.161
68477SOL    HW1 7264   7.186  12.820   0.250
68477SOL    HW2 7265   7.168  12.866   0.107
68478SOL     OW 7266  11.232   6.589   9.563
68478SOL    HW1 7267  11.224   6.670   9.614
68478SOL    HW2 7268  11.242   6.619   9.472
68479SOL     OW 7269   1.435  12.703  13.845
68479SOL    HW1 7270   1.388  12.786  13.857
68479SOL    HW2 7271   1.430  12.687  13.750
68480SOL     OW 7272  13.705   3.381   8.714
68480SOL    HW1 7273  13.636   3.448   8.718
68480SOL    HW2 7274  13.779   3.420   8.759
68481SOL     OW 7275   8.412  14.322   1.711
68481SOL    HW1 7276   8.490  14.329   1.655
68481SOL    HW2 7277   8.421  14.237   1.754
68482SOL     OW 7278   0.715   4.608   8.015
68482SOL    HW1 7279   0.673   4.527   8.043
68482SOL    HW2 7280   0.787   4.621   8.077
68483SOL     OW 7281   2.255   2.158   5.757
68483SOL    HW1 7282   2.163   2.183   5.771
68483SOL    HW2 7283   2.259   2.135   5.664
68484SOL     OW 7284   1.048   2.290   3.084
68484SOL    HW1 7285   1.115   2.358   3.068
68484SOL    HW2 7286   1.005   2.279   2.999
68485SOL     OW 7287   1.812   3.422  11.455
68485SOL    HW1 7288   1.884   3.408  11.394
68485SOL    HW2 7289   1.746   3.470  11.404
68486SOL     OW 7290   9.905   0.212  11.662
68486SOL    HW1 7291   9.946   0.252  11.585
68486SOL    HW2 7292   9.827   0.169  11.629
68487SOL     OW 7293   8.879   4.697   3.339
68487SOL    HW1 7294   8.886   4.709   3.433
68487SOL    HW2 7295   8.942   4.627   3.319
68488SOL     OW 7296   7.893   7.079   3.791
68488SOL    HW1 7297   7.928   7.018   3.856
68488SOL    HW2 7298   7.803   7.095   3.820
68489SOL     OW 7299   5.083   8.890   0.244
68489SOL    HW1 7300   5.004   8.871   0.195
68489SOL    HW2 7301   5.150   8.904   0.177
68490SOL     OW 7302   3.722   0.479   6.038
68490SOL    HW1 7303   3.677   0.422   6.101
68490SOL    HW2 7304   3.808   0.494   6.076
68491SOL     OW 7305  11.590   9.523   3.627
68491SOL    HW1 7306  11.574   9.570   3.709
68491SOL    HW2 7307  11.658   9.459   3.650
68492SOL     OW 7308   3.432   4.467   5.336
68492SOL    HW1 7309   3.501   4.527   5.307
68492SOL    HW2 7310   3.444   4.461   5.431
68493SOL     OW 7311   2.082   1.506  10.704
68493SOL    HW1 7312   2.102   1.577  10.643
68493SOL    HW2 7313   1.991   1.519  10.729
68494SOL     OW 7314  10.388  11.933   7.688
68494SOL    HW1 7315  10.338  11.986   7.749
68494SOL    HW2 7316  10.358  11.843   7.705
68495SOL     OW 7317   1.438  11.105   6.101
68495SOL    HW1 7318   1.357  11.097   6.152
68495SOL    HW2 7319   1.464  11.014   6.084
68496SOL     OW 7320   8.124   8.334   1.438
68496SOL    HW1 7321   8.204   8.385   1.446
68496SOL    HW2 7322   8.150   8.244   1.460
68497SOL     OW 7323   0.877   1.848   1.348
68497SOL    HW1 7324   0.923   1.765   1.335
68497SOL    HW2 7325   0.788   1.832   1.318
68498SOL     OW 7326   1.564   4.978   8.413
68498SOL    HW1 7327   1.494   5.009   8.471
68498SOL    HW2 7328   1.540   5.012   8.327
68499SOL     OW 7329  14.529   2.772  11.719
68499SOL    HW1 7330  14.477   2.693  11.711
68499SOL    HW2 7331  14.536   2.806  11.629
68500SOL     OW 7332  13.086   2.955   9.314
68500SOL    HW1 7333  13.036   2.908   9.248
68500SOL    HW2 7334  13.025   3.020   9.349
68501SOL     OW 7335  12.537   0.825   6.904
68501SOL    HW1 7336  12.604   0.845   6.838
68501SOL    HW2 7337  12.454   0.848   6.862
68502SOL     OW 7338  10.409   4.643   1.645
68502SOL    HW1 7339  10.457   4.656   1.564
68502SOL    HW2 7340  10.437   4.557   1.677
68503SOL     OW 7341   4.511   9.713   2.670
68503SOL    HW1 7342   4.415   9.717   2.672
68503SOL    HW2 7343   4.539   9.805   2.666
68504SOL     OW 7344  11.625   2.935  12.069
68504SOL    HW1 7345  11.705   2.916  12.118
68504SOL    HW2 7346  11.652   2.934  11.977
68505SOL     OW 7347   5.255   8.874   6.841
68505SOL    HW1 7348   5.304   8.886   6.759
68505SOL    HW2 7349   5.320   8.840   6.903
68506SOL     OW 7350   6.860   5.029   9.822
68506SOL    HW1 7351   6.801   4.964   9.784
68506SOL    HW2 7352   6.803   5.099   9.852
68507SOL     OW 7353   4.315   7.218   5.584
68507SOL    HW1 7354   4.343   7.276   5.513
68507SOL    HW2 7355   4.219   7.222   5.582
68508SOL     OW 7356   7.702  13.093   6.776
68508SOL    HW1 7357   7.709  13.021   6.714
68508SOL    HW2 7358   7.647  13.059   6.847
68509SOL     OW 7359   8.121   3.927   3.040
68509SOL    HW1 7360   8.171   3.977   2.976
68509SOL    HW2 7361   8.150   3.960   3.125
68510SOL     OW 7362  10.437   2.181   8.258
68510SOL    HW1 7363  10.451   2.152   8.348
68510SOL    HW2 7364  10.443   2.276   8.262
68511SOL     OW 7365  13.809  10.743   1.944
68511SOL    HW1 7366  13.870  10.717   1.875
68511SOL    HW2 7367  13.774  10.661   1.978
68512SOL     OW 7368   4.182  12.131   0.696
68512SOL    HW1 7369   4.256  12.073   0.715
68512SOL    HW2 7370   4.109  12.094   0.746
68513SOL     OW 7371   1.063  10.015   5.577
68513SOL    HW1 7372   1.085  10.096   5.532
68513SOL    HW2 7373   0.994  10.040   5.639
68514SOL     OW 7374   2.287  11.281  14.250
68514SOL    HW1 7375   2.268  11.231  14.171
68514SOL    HW2 7376   2.259  11.223  14.322
68515SOL     OW 7377   5.961   8.195   1.746
68515SOL    HW1 7378   5.913   8.267   1.706
68515SOL    HW2 7379   6.051   8.206   1.717
68516SOL     OW 7380  14.090   8.565  13.476
68516SOL    HW1 7381  14.125   8.549  13.389
68516SOL    HW2 7382  14.108   8.658  13.492
68517SOL     OW 7383  13.830   8.850   0.998
68517SOL    HW1 7384  13.834   8.900   1.080
68517SOL    HW2 7385  13.804   8.762   1.026
68518SOL     OW 7386   3.589  14.423  12.314
68518SOL    HW1 7387   3.533  14.355  12.276
68518SOL    HW2 7388   3.632  14.464  12.238
68519SOL     OW 7389   7.915   2.843  14.033
68519SOL    HW1 7390   7.823   2.860  14.013
68519SOL    HW2 7391   7.960   2.924  14.008
68520SOL     OW 7392   5.974   0.613   2.476
68520SOL    HW1 7393   5.901   0.636   2.533
68520SOL    HW2 7394   5.937   0.550   2.414
68521SOL     OW 7395   0.631  12.776   5.153
68521SOL    HW1 7396   0.597  12.859   5.187
68521SOL    HW2 7397   0.588  12.709   5.206
68522SOL     OW 7398  11.435   8.656   9.856
68522SOL    HW1 7399  11.505   8.646   9.921
68522SOL    HW2 7400  11.440   8.748   9.829
68523SOL     OW 7401  12.840   1.596  13.837
68523SOL    HW1 7402  12.840   1.665  13.903
68523SOL    HW2 7403  12.844   1.643  13.753
68524SOL     OW 7404   6.630   9.870   4.344
68524SOL    HW1 7405   6.574   9.948   4.339
68524SOL    HW2 7406   6.717   9.904   4.366
68525SOL     OW 7407   0.185   6.047   6.998
68525SOL    HW1 7408   0.249   6.013   6.935
68525SOL    HW2 7409   0.228   6.037   7.083
68526SOL     OW 7410   5.116   5.509   4.902
68526SOL    HW1 7411   5.189   5.518   4.963
68526SOL    HW2 7412   5.097   5.415   4.902
68527SOL     OW 7413   2.735   5.823  10.254
68527SOL    HW1 7414   2.747   5.730  10.234
68527SOL    HW2 7415   2.643   5.840  10.234
68528SOL     OW 7416   8.900  12.417   6.584
68528SOL    HW1 7417   8.825  12.472   6.561
68528SOL    HW2 7418   8.890  12.339   6.530
68529SOL     OW 7419   5.226   2.099   7.553
68529SOL    HW1 7420   5.139   2.059   7.549
68529SOL    HW2 7421   5.231   2.152   7.473
68530SOL     OW 7422   6.348   1.208   2.622
68530SOL    HW1 7423   6.327   1.233   2.532
68530SOL    HW2 7424   6.278   1.148   2.647
68531SOL     OW 7425   7.156   4.311   8.155
68531SOL    HW1 7426   7.193   4.317   8.066
68531SOL    HW2 7427   7.081   4.252   8.146
68532SOL     OW 7428  13.910   3.528  14.110
68532SOL    HW1 7429  13.913   3.621  14.130
68532SOL    HW2 7430  13.998   3.506  14.081
68533SOL     OW 7431   0.966   7.951   9.335
68533SOL    HW1 7432   0.976   7.899   9.415
68533SOL    HW2 7433   0.872   7.946   9.316
68534SOL     OW 7434  12.599   0.217   3.841
68534SOL    HW1 7435  12.602   0.122   3.850
68534SOL    HW2 7436  12.549   0.232   3.760
68535SOL     OW 7437   4.954  13.818  11.938
68535SOL    HW1 7438   4.953  13.795  11.846
68535SOL    HW2 7439   4.996  13.744  11.982
68536SOL     OW 7440  13.508  11.367  10.403
68536SOL    HW1 7441  13.423  11.326  10.421
68536SOL    HW2 7442  13.522  11.426  10.477
68537SOL     OW 7443   3.385  13.024   1.724
68537SOL    HW1 7444   3.295  12.998   1.706
68537SOL    HW2 7445   3.438  12.954   1.687
68538SOL     OW 7446   3.352   5.511   0.159
68538SOL    HW1 7447   3.418   5.580   0.152
68538SOL    HW2 7448   3.312   5.508   0.072
68539SOL     OW 7449  13.284   1.327   6.369
68539SOL    HW1 7450  13.321   1.294   6.287
68539SOL    HW2 7451  13.202   1.368   6.344
68540SOL     OW 7452   7.222  11.540   2.830
68540SOL    HW1 7453   7.212  11.628   2.867
68540SOL    HW2 7454   7.247  11.486   2.905
68541SOL     OW 7455  11.702  10.041  13.675
68541SOL    HW1 7456  11.712  10.019  13.582
68541SOL    HW2 7457  11.726  10.133  13.680
68542SOL     OW 7458   9.671  11.046  12.860
68542SOL    HW1 7459   9.587  11.063  12.818
68542SOL    HW2 7460   9.694  11.129  12.901
68543SOL     OW 7461   2.201   6.148   1.580
68543SOL    HW1 7462   2.238   6.061   1.585
68543SOL    HW2 7463   2.258   6.202   1.635
68544SOL     OW 7464   8.084  14.757   1.662
68544SOL    HW1 7465   8.130  14.683   1.702
68544SOL    HW2 7466   8.032  14.719   1.591
68545SOL     OW 7467   6.208   9.546   7.607
68545SOL    HW1 7468   6.254   9.613   7.657
68545SOL    HW2 7469   6.152   9.594   7.547
68546SOL     OW 7470  10.671  10.694   8.530
68546SOL    HW1 7471  10.674  10.698   8.434
68546SOL    HW2 7472  10.750  10.647   8.555
68547SOL     OW 7473   2.223   0.437   1.353
68547SOL    HW1 7474   2.312   0.429   1.320
68547SOL    HW2 7475   2.230   0.495   1.428
68548SOL     OW 7476   3.126  11.872  14.324
68548SOL    HW1 7477   3.077  11.793  14.348
68548SOL    HW2 7478   3.087  11.901  14.242
68549SOL     OW 7479  12.223   7.948   9.334
68549SOL    HW1 7480  12.132   7.918   9.320
68549SOL    HW2 7481  12.242   7.925   9.425
68550SOL     OW 7482   0.522  10.317  12.277
68550SOL    HW1 7483   0.564  10.304  12.192
68550SOL    HW2 7484   0.429  10.325  12.257
68551SOL     OW 7485   5.965  11.388  11.101
68551SOL    HW1 7486   5.992  11.434  11.180
68551SOL    HW2 7487   6.047  11.369  11.055
68552SOL     OW 7488   3.226   0.819  14.037
68552SOL    HW1 7489   3.206   0.885  13.970
68552SOL    HW2 7490   3.321   0.828  14.050
68553SOL     OW 7491   9.191  12.406  11.059
68553SOL    HW1 7492   9.201  12.423  11.153
68553SOL    HW2 7493   9.179  12.311  11.053
68554SOL     OW 7494   5.026   0.680  14.457
68554SOL    HW1 7495   5.008   0.770  14.431
68554SOL    HW2 7496   5.120   0.669  14.439
68555SOL     OW 7497   7.092  14.332   0.762
68555SOL    HW1 7498   7.172  14.292   0.796
68555SOL    HW2 7499   7.084  14.415   0.810
68556SOL     OW 7500  10.441   7.207   6.692
68556SOL    HW1 7501  10.371   7.149   6.720
68556SOL    HW2 7502  10.426   7.288   6.741
68557SOL     OW 7503   4.351   4.069  11.259
68557SOL    HW1 7504   4.272   4.074  11.205
68557SOL    HW2 7505   4.344   4.143  11.319
68558SOL     OW 7506  13.748   0.266   5.069
68558SOL    HW1 7507  13.835   0.302   5.050
68558SOL    HW2 7508  13.761   0.210   5.145
68559SOL     OW 7509  11.566  14.831   5.386
68559SOL    HW1 7510  11.532  14.808   5.300
68559SOL    HW2 7511  11.660  14.815   5.379
68560SOL     OW 7512  14.215   1.223  11.500
68560SOL    HW1 7513  14.152   1.211  11.572
68560SOL    HW2 7514  14.298   1.192  11.536
68561SOL     OW 7515   2.476   1.455   0.461
68561SOL    HW1 7516   2.451   1.462   0.553
68561SOL    HW2 7517   2.495   1.362   0.448
68562SOL     OW 7518  14.162   3.487   9.096
68562SOL    HW1 7519  14.082   3.490   9.149
68562SOL    HW2 7520  14.143   3.543   9.021
68563SOL     OW 7521   2.654   5.973   8.961
68563SOL    HW1 7522   2.573   6.021   8.943
68563SOL    HW2 7523   2.654   5.902   8.897
68564SOL     OW 7524   2.681   3.056   8.461
68564SOL    HW1 7525   2.641   3.139   8.487
68564SOL    HW2 7526   2.651   2.993   8.526
68565SOL     OW 7527   1.830   8.343   1.737
68565SOL    HW1 7528   1.899   8.309   1.795
68565SOL    HW2 7529   1.774   8.395   1.794
68566SOL     OW 7530  11.295   7.850   5.435
68566SOL    HW1 7531  11.373   7.818   5.481
68566SOL    HW2 7532  11.225   7.844   5.501
68567SOL     OW 7533   4.859  13.879   7.305
68567SOL    HW1 7534   4.838  13.883   7.398
68567SOL    HW2 7535   4.954  13.865   7.303
68568SOL     OW 7536  10.432  12.155   8.064
68568SOL    HW1 7537  10.398  12.067   8.050
68568SOL    HW2 7538  10.409  12.174   8.155
68569SOL     OW 7539   4.930  10.562   8.820
68569SOL    HW1 7540   4.994  10.494   8.800
68569SOL    HW2 7541   4.910  10.601   8.735
68570SOL     OW 7542   7.152   8.304   3.542
68570SOL    HW1 7543   7.142   8.397   3.521
68570SOL    HW2 7544   7.218   8.302   3.612
68571SOL     OW 7545  11.090  12.793  11.419
68571SOL    HW1 7546  11.042  12.875  11.426
68571SOL    HW2 7547  11.106  12.767  11.510
68572SOL     OW 7548   9.268   1.754   4.540
68572SOL    HW1 7549   9.349   1.748   4.589
68572SOL    HW2 7550   9.274   1.838   4.493
68573SOL     OW 7551  13.787  11.886   0.152
68573SOL    HW1 7552  13.721  11.840   0.203
68573SOL    HW2 7553  13.866  11.832   0.161
68574SOL     OW 7554   0.382   8.236   7.399
68574SOL    HW1 7555   0.301   8.260   7.354
68574SOL    HW2 7556   0.418   8.164   7.347
68575SOL     OW 7557   0.330   7.382   1.144
68575SOL    HW1 7558   0.387   7.397   1.069
68575SOL    HW2 7559   0.378   7.320   1.198
68576SOL     OW 7560  11.277   0.130   8.354
68576SOL    HW1 7561  11.329   0.110   8.432
68576SOL    HW2 7562  11.199   0.174   8.388
68577SOL     OW 7563   1.851   1.117  13.413
68577SOL    HW1 7564   1.879   1.125  13.504
68577SOL    HW2 7565   1.929   1.085  13.367
68578SOL     OW 7566  14.323  12.212   4.695
68578SOL    HW1 7567  14.378  12.227   4.772
68578SOL    HW2 7568  14.286  12.125   4.709
68579SOL     OW 7569   7.031   1.256   6.677
68579SOL    HW1 7570   6.979   1.178   6.657
68579SOL    HW2 7571   7.110   1.246   6.624
68580SOL     OW 7572  13.661   2.776   9.754
68580SOL    HW1 7573  13.581   2.791   9.804
68580SOL    HW2 7574  13.714   2.719   9.811
68581SOL     OW 7575  12.426   6.074  13.619
68581SOL    HW1 7576  12.508   6.120  13.600
68581SOL    HW2 7577  12.396   6.042  13.534
68582SOL     OW 7578   9.555   6.800   7.830
68582SOL    HW1 7579   9.478   6.752   7.799
68582SOL    HW2 7580   9.546   6.887   7.791
68583SOL     OW 7581   6.975  11.787   2.783
68583SOL    HW1 7582   6.949  11.876   2.758
68583SOL    HW2 7583   7.068  11.783   2.764
68584SOL     OW 7584   1.144  13.496   1.345
68584SOL    HW1 7585   1.188  13.411   1.344
68584SOL    HW2 7586   1.141  13.523   1.253
68585SOL     OW 7587   9.069   3.021   6.088
68585SOL    HW1 7588   9.016   2.961   6.035
68585SOL    HW2 7589   9.155   3.019   6.047
68586SOL     OW 7590   2.575   1.528   1.368
68586SOL    HW1 7591   2.606   1.437   1.369
68586SOL    HW2 7592   2.598   1.560   1.280
68587SOL     OW 7593  14.182  11.407   9.791
68587SOL    HW1 7594  14.245  11.445   9.730
68587SOL    HW2 7595  14.235  11.381   9.867
68588SOL     OW 7596   9.597   5.430   1.148
68588SOL    HW1 7597   9.586   5.411   1.055
68588SOL    HW2 7598   9.571   5.350   1.193
68589SOL     OW 7599  14.710   4.034   4.733
68589SOL    HW1 7600  14.616   4.042   4.751
68589SOL    HW2 7601  14.721   3.944   4.705
68590SOL     OW 7602  10.102   0.831  12.221
68590SOL    HW1 7603  10.197   0.821  12.223
68590SOL    HW2 7604  10.071   0.782  12.297
68591SOL     OW 7605   6.725  11.549   6.298
68591SOL    HW1 7606   6.665  11.485   6.336
68591SOL    HW2 7607   6.749  11.607   6.371
68592SOL     OW 7608   6.393   8.136   3.036
68592SOL    HW1 7609   6.454   8.168   2.970
68592SOL    HW2 7610   6.369   8.048   3.005
68593SOL     OW 7611  11.093   9.673   5.688
68593SOL    HW1 7612  11.030   9.722   5.741
68593SOL    HW2 7613  11.163   9.651   5.749
68594SOL     OW 7614   8.554   0.193   7.132
68594SOL    HW1 7615   8.607   0.259   7.178
68594SOL    HW2 7616   8.546   0.122   7.195
68595SOL     OW 7617  10.423  11.331  12.114
68595SOL    HW1 7618  10.374  11.305  12.036
68595SOL    HW2 7619  10.435  11.425  12.105
68596SOL     OW 7620   4.359   1.070   0.017
68596SOL    HW1 7621   4.442   1.115   0.033
68596SOL    HW2 7622   4.383   0.978   0.009
68597SOL     OW 7623  10.364  11.874   6.293
68597SOL    HW1 7624  10.405  11.826   6.221
68597SOL    HW2 7625  10.273  11.885   6.266
68598SOL     OW 7626   7.355   5.432   1.647
68598SOL    HW1 7627   7.430   5.467   1.695
68598SOL    HW2 7628   7.281   5.443   1.707
68599SOL     OW 7629   7.290  10.661  13.131
68599SOL    HW1 7630   7.205  10.617  13.138
68599SOL    HW2 7631   7.290  10.700  13.044
68600SOL     OW 7632   8.954   7.772   5.928
68600SOL    HW1 7633   9.013   7.707   5.890
68600SOL    HW2 7634   8.921   7.732   6.007
68601SOL     OW 7635  12.912  12.548   8.501
68601SOL    HW1 7636  12.952  12.503   8.574
68601SOL    HW2 7637  12.982  12.557   8.436
68602SOL     OW 7638  11.884   0.418   5.089
68602SOL    HW1 7639  11.844   0.442   5.173
68602SOL    HW2 7640  11.924   0.499   5.057
68603SOL     OW 7641   9.209   2.672   1.868
68603SOL    HW1 7642   9.215   2.641   1.778
68603SOL    HW2 7643   9.208   2.767   1.861
68604SOL     OW 7644   8.592  12.400   9.678
68604SOL    HW1 7645   8.517  12.392   9.736
68604SOL    HW2 7646   8.668  12.382   9.733
68605SOL     OW 7647   9.708  11.086   6.136
68605SOL    HW1 7648   9.641  11.139   6.179
68605SOL    HW2 7649   9.785  11.093   6.193
68606SOL     OW 7650  13.141   0.687   1.841
68606SOL    HW1 7651  13.228   0.704   1.877
68606SOL    HW2 7652  13.148   0.714   1.749
68607SOL     OW 7653  14.430   1.834   3.676
68607SOL    HW1 7654  14.458   1.925   3.671
68607SOL    HW2 7655  14.426   1.806   3.584
68608SOL     OW 7656  13.660  12.906   1.333
68608SOL    HW1 7657  13.622  12.853   1.263
68608SOL    HW2 7658  13.743  12.938   1.296
68609SOL     OW 7659   3.234  12.775   7.454
68609SOL    HW1 7660   3.314  12.723   7.462
68609SOL    HW2 7661   3.172  12.717   7.410
68610SOL     OW 7662   1.815  11.146   8.020
68610SOL    HW1 7663   1.792  11.054   8.028
68610SOL    HW2 7664   1.771  11.176   7.940
68611SOL     OW 7665   4.232  12.022   6.129
68611SOL    HW1 7666   4.300  11.961   6.157
68611SOL    HW2 7667   4.257  12.106   6.166
68612SOL     OW 7668   7.441   1.326  13.660
68612SOL    HW1 7669   7.423   1.301  13.750
68612SOL    HW2 7670   7.356   1.351  13.624
68613SOL     OW 7671   1.194  10.923  13.352
68613SOL    HW1 7672   1.180  10.994  13.414
68613SOL    HW2 7673   1.248  10.962  13.283
68614SOL     OW 7674   9.002   7.956  13.571
68614SOL    HW1 7675   9.005   7.952  13.475
68614SOL    HW2 7676   8.942   7.886  13.596
68615SOL     OW 7677   3.722   3.254   0.863
68615SOL    HW1 7678   3.690   3.165   0.878
68615SOL    HW2 7679   3.809   3.256   0.904
68616SOL     OW 7680  12.272   2.539  13.254
68616SOL    HW1 7681  12.335   2.493  13.199
68616SOL    HW2 7682  12.317   2.619  13.281
68617SOL     OW 7683  11.128   4.679   3.834
68617SOL    HW1 7684  11.118   4.772   3.815
68617SOL    HW2 7685  11.195   4.649   3.772
68618SOL     OW 7686   6.597   7.419   4.239
68618SOL    HW1 7687   6.527   7.467   4.195
68618SOL    HW2 7688   6.645   7.485   4.289
68619SOL     OW 7689   9.589  14.222   6.669
68619SOL    HW1 7690   9.531  14.297   6.682
68619SOL    HW2 7691   9.531  14.153   6.637
68620SOL     OW 7692  12.776   5.955   8.635
68620SOL    HW1 7693  12.847   5.891   8.640
68620SOL    HW2 7694  12.696   5.902   8.639
68621SOL     OW 7695   7.160   1.569   2.668
68621SOL    HW1 7696   7.177   1.476   2.685
68621SOL    HW2 7697   7.246   1.606   2.648
68622SOL     OW 7698  14.090   8.493   5.463
68622SOL    HW1 7699  14.016   8.523   5.412
68622SOL    HW2 7700  14.115   8.569   5.516
68623SOL     OW 7701  10.709   6.949   0.659
68623SOL    HW1 7702  10.626   6.902   0.667
68623SOL    HW2 7703  10.690   7.020   0.597
68624SOL     OW 7704   8.505   1.464   4.886
68624SOL    HW1 7705   8.551   1.445   4.803
68624SOL    HW2 7706   8.574   1.466   4.952
68625SOL     OW 7707   3.997  12.598   8.218
68625SOL    HW1 7708   3.975  12.671   8.160
68625SOL    HW2 7709   4.036  12.532   8.160
68626SOL     OW 7710   1.165   0.538   2.438
68626SOL    HW1 7711   1.210   0.622   2.429
68626SOL    HW2 7712   1.163   0.523   2.533
68627SOL     OW 7713   2.202   1.312   5.800
68627SOL    HW1 7714   2.139   1.378   5.770
68627SOL    HW2 7715   2.220   1.336   5.891
68628SOL     OW 7716  14.052  12.992   9.161
68628SOL    HW1 7717  14.037  12.897   9.163
68628SOL    HW2 7718  13.983  13.026   9.104
68629SOL     OW 7719  14.750   6.857  12.849
68629SOL    HW1 7720  14.779   6.844  12.939
68629SOL    HW2 7721  14.785   6.782  12.801
68630SOL     OW 7722  14.461   0.224   0.200
68630SOL    HW1 7723  14.493   0.134   0.192
68630SOL    HW2 7724  14.528   0.269   0.251
68631SOL     OW 7725   8.325   3.683  12.691
68631SOL    HW1 7726   8.333   3.772  12.658
68631SOL    HW2 7727   8.249   3.685  12.749
68632SOL     OW 7728  12.927   8.081   8.409
68632SOL    HW1 7729  12.849   8.078   8.354
68632SOL    HW2 7730  12.915   8.010   8.472
68633SOL     OW 7731   6.167   5.429   4.075
68633SOL    HW1 7732   6.241   5.370   4.077
68633SOL    HW2 7733   6.166   5.471   4.161
68634SOL     OW 7734  14.175  10.319  12.674
68634SOL    HW1 7735  14.238  10.371  12.724
68634SOL    HW2 7736  14.092  10.333  12.719
68635SOL     OW 7737  14.459   4.249   0.312
68635SOL    HW1 7738  14.465   4.315   0.243
68635SOL    HW2 7739  14.439   4.168   0.265
68636SOL     OW 7740   9.383   7.513  10.496
68636SOL    HW1 7741   9.432   7.441  10.455
68636SOL    HW2 7742   9.298   7.474  10.517
68637SOL     OW 7743   4.243  13.516   8.199
68637SOL    HW1 7744   4.193  13.441   8.168
68637SOL    HW2 7745   4.224  13.519   8.293
68638SOL     OW 7746   8.333  12.524   5.697
68638SOL    HW1 7747   8.406  12.494   5.751
68638SOL    HW2 7748   8.277  12.574   5.756
68639SOL     OW 7749   4.010  12.620   6.704
68639SOL    HW1 7750   4.000  12.698   6.651
68639SOL    HW2 7751   4.081  12.641   6.765
68640SOL     OW 7752  11.165   5.746  14.713
68640SOL    HW1 7753  11.108   5.673  14.688
68640SOL    HW2 7754  11.127   5.779  14.795
68641SOL     OW 7755   1.076   3.720   9.028
68641SOL    HW1 7756   1.166   3.715   8.997
68641SOL    HW2 7757   1.039   3.633   9.011
68642SOL     OW 7758   4.711   3.485   0.724
68642SOL    HW1 7759   4.628   3.501   0.770
68642SOL    HW2 7760   4.698   3.528   0.639
68643SOL     OW 7761   6.668   6.778   2.107
68643SOL    HW1 7762   6.722   6.743   2.177
68643SOL    HW2 7763   6.630   6.702   2.065
68644SOL     OW 7764   3.104   6.863   8.074
68644SOL    HW1 7765   3.184   6.914   8.057
68644SOL    HW2 7766   3.113   6.836   8.166
68645SOL     OW 7767   6.843  14.502  11.826
68645SOL    HW1 7768   6.836  14.578  11.768
68645SOL    HW2 7769   6.753  14.475  11.842
68646SOL     OW 7770   9.039  10.589  14.064
68646SOL    HW1 7771   9.133  10.606  14.053
68646SOL    HW2 7772   9.016  10.634  14.145
68647SOL     OW 7773  12.020  14.530   7.408
68647SOL    HW1 7774  12.036  14.471   7.482
68647SOL    HW2 7775  11.933  14.566   7.423
68648SOL     OW 7776   8.279   0.409  10.725
68648SOL    HW1 7777   8.306   0.376  10.811
68648SOL    HW2 7778   8.197   0.456  10.742
68649SOL     OW 7779   6.326   9.281   9.782
68649SOL    HW1 7780   6.370   9.201   9.754
68649SOL    HW2 7781   6.393   9.349   9.774
68650SOL     OW 7782  14.610   8.323   1.423
68650SOL    HW1 7783  14.618   8.368   1.338
68650SOL    HW2 7784  14.699   8.293   1.441
68651SOL     OW 7785   5.124  14.184  11.920
68651SOL    HW1 7786   5.032  14.160  11.912
68651SOL    HW2 7787   5.143  14.235  11.842
68652SOL     OW 7788   0.729   9.440   1.025
68652SOL    HW1 7789   0.669   9.418   1.096
68652SOL    HW2 7790   0.708   9.378   0.955
68653SOL     OW 7791   6.763  13.587   6.089
68653SOL    HW1 7792   6.734  13.655   6.028
68653SOL    HW2 7793   6.822  13.532   6.037
68654SOL     OW 7794   7.017   5.685   2.178
68654SOL    HW1 7795   7.009   5.729   2.093
68654SOL    HW2 7796   6.965   5.738   2.238
68655SOL     OW 7797  10.580   8.503   3.947
68655SOL    HW1 7798  10.552   8.422   3.989
68655SOL    HW2 7799  10.647   8.538   4.004
68656SOL     OW 7800   5.389   7.973   3.385
68656SOL    HW1 7801   5.354   7.895   3.428
68656SOL    HW2 7802   5.312   8.025   3.360
68657SOL     OW 7803   3.379   5.130   0.004
68657SOL    HW1 7804   3.407   5.123   0.095
68657SOL    HW2 7805   3.314   5.061  14.872
68658SOL     OW 7806  11.300   4.508   8.150
68658SOL    HW1 7807  11.283   4.416   8.167
68658SOL    HW2 7808  11.247   4.555   8.215
68659SOL     OW 7809  13.920   0.015   7.468
68659SOL    HW1 7810  13.884   0.103   7.467
68659SOL    HW2 7811  13.960   0.005   7.555
68660SOL     OW 7812   0.237   3.123   1.656
68660SOL    HW1 7813   0.164   3.062   1.661
68660SOL    HW2 7814   0.268   3.117   1.565
68661SOL     OW 7815  10.562   6.541   8.544
68661SOL    HW1 7816  10.630   6.571   8.604
68661SOL    HW2 7817  10.515   6.474   8.594
68662SOL     OW 7818   0.199  11.084   7.148
68662SOL    HW1 7819   0.267  11.051   7.089
68662SOL    HW2 7820   0.246  11.135   7.214
68663SOL     OW 7821   6.977   7.667  14.141
68663SOL    HW1 7822   6.999   7.748  14.187
68663SOL    HW2 7823   6.999   7.597  14.204
68664SOL     OW 7824   8.763   8.926   6.476
68664SOL    HW1 7825   8.758   8.942   6.381
68664SOL    HW2 7826   8.753   8.831   6.484
68665SOL     OW 7827  13.995  10.208  10.355
68665SOL    HW1 7828  13.963  10.118  10.360
68665SOL    HW2 7829  13.972  10.236  10.267
68666SOL     OW 7830   9.303   9.555   9.946
68666SOL    HW1 7831   9.221   9.524   9.983
68666SOL    HW2 7832   9.280   9.634   9.898
68667SOL     OW 7833   3.511  10.417  12.814
68667SOL    HW1 7834   3.531  10.332  12.773
68667SOL    HW2 7835   3.516  10.400  12.908
68668SOL     OW 7836   1.773  13.366   5.004
68668SOL    HW1 7837   1.695  13.349   5.058
68668SOL    HW2 7838   1.835  13.298   5.030
68669SOL     OW 7839  14.228   2.980   3.538
68669SOL    HW1 7840  14.157   2.947   3.593
68669SOL    HW2 7841  14.307   2.967   3.591
68670SOL     OW 7842   4.754   3.098  11.145
68670SOL    HW1 7843   4.669   3.102  11.101
68670SOL    HW2 7844   4.757   3.011  11.184
68671SOL     OW 7845   9.424   2.615   7.319
68671SOL    HW1 7846   9.418   2.524   7.349
68671SOL    HW2 7847   9.344   2.629   7.269
68672SOL     OW 7848   8.540   9.219   2.345
68672SOL    HW1 7849   8.578   9.271   2.274
68672SOL    HW2 7850   8.449   9.206   2.320
68673SOL     OW 7851   5.999   5.608  11.123
68673SOL    HW1 7852   6.044   5.555  11.057
68673SOL    HW2 7853   5.964   5.544  11.186
68674SOL     OW 7854  10.643   0.331  11.978
68674SOL    HW1 7855  10.570   0.271  11.960
68674SOL    HW2 7856  10.702   0.318  11.903
68675SOL     OW 7857   9.080   7.185  13.625
68675SOL    HW1 7858   9.073   7.107  13.680
68675SOL    HW2 7859   8.993   7.224  13.627
68676SOL     OW 7860   7.797  13.493   9.552
68676SOL    HW1 7861   7.874  13.486   9.495
68676SOL    HW2 7862   7.733  13.434   9.513
68677SOL     OW 7863   3.094  12.309   9.535
68677SOL    HW1 7864   3.070  12.398   9.560
68677SOL    HW2 7865   3.010  12.262   9.532
68678SOL     OW 7866   9.486   7.512  10.188
68678SOL    HW1 7867   9.515   7.444  10.249
68678SOL    HW2 7868   9.548   7.584  10.200
68679SOL     OW 7869   2.033  14.574   3.522
68679SOL    HW1 7870   2.061  14.654   3.566
68679SOL    HW2 7871   2.019  14.511   3.594
68680SOL     OW 7872   1.230   9.911  12.005
68680SOL    HW1 7873   1.314   9.900  12.050
68680SOL    HW2 7874   1.210  10.004  12.014
68681SOL     OW 7875   3.395   6.451   8.643
68681SOL    HW1 7876   3.424   6.373   8.691
68681SOL    HW2 7877   3.454   6.521   8.672
68682SOL     OW 7878   5.750   4.461  13.094
68682SOL    HW1 7879   5.837   4.421  13.101
68682SOL    HW2 7880   5.701   4.421  13.166
68683SOL     OW 7881   8.257   3.386   4.335
68683SOL    HW1 7882   8.293   3.401   4.247
68683SOL    HW2 7883   8.170   3.426   4.333
68684SOL     OW 7884  14.732  13.172   0.941
68684SOL    HW1 7885  14.769  13.255   0.969
68684SOL    HW2 7886  14.808  13.115   0.929
68685SOL     OW 7887   1.200   4.471   6.917
68685SOL    HW1 7888   1.197   4.558   6.957
68685SOL    HW2 7889   1.109   4.441   6.917
68686SOL     OW 7890   7.607  10.783   5.296
68686SOL    HW1 7891   7.689  10.743   5.267
68686SOL    HW2 7892   7.612  10.873   5.266
68687SOL     OW 7893  13.639   9.956   3.286
68687SOL    HW1 7894  13.696  10.028   3.313
68687SOL    HW2 7895  13.551   9.993   3.286
68688SOL     OW 7896  14.363   5.469   7.107
68688SOL    HW1 7897  14.389   5.382   7.076
68688SOL    HW2 7898  14.415   5.482   7.187
68689SOL     OW 7899   3.245   5.388  13.008
68689SOL    HW1 7900   3.298   5.449  13.061
68689SOL    HW2 7901   3.255   5.304  13.051
68690SOL     OW 7902  14.781   3.548  14.521
68690SOL    HW1 7903  14.704   3.567  14.468
68690SOL    HW2 7904  14.746   3.506  14.599
68691SOL     OW 7905  13.311  14.548  12.135
68691SOL    HW1 7906  13.232  14.596  12.109
68691SOL    HW2 7907  13.278  14.469  12.179
68692SOL     OW 7908   6.749   5.683   1.107
68692SOL    HW1 7909   6.658   5.651   1.109
68692SOL    HW2 7910   6.800   5.605   1.083
68693SOL     OW 7911   1.030  12.816  10.921
68693SOL    HW1 7912   0.998  12.729  10.947
68693SOL    HW2 7913   1.050  12.806  10.827
68694SOL     OW 7914   5.851  10.069   6.693
68694SOL    HW1 7915   5.770  10.087   6.644
68694SOL    HW2 7916   5.835  10.108   6.779
68695SOL     OW 7917   6.978  13.097  11.071
68695SOL    HW1 7918   7.055  13.042  11.054
68695SOL    HW2 7919   6.947  13.122  10.985
68696SOL     OW 7920   8.247  13.142   2.357
68696SOL    HW1 7921   8.307  13.071   2.380
68696SOL    HW2 7922   8.180  13.099   2.303
68697SOL     OW 7923  10.526  10.512   0.266
68697SOL    HW1 7924  10.600  10.519   0.326
68697SOL    HW2 7925  10.455  10.475   0.319
68698SOL     OW 7926   9.375   7.354   2.747
68698SOL    HW1 7927   9.326   7.413   2.803
68698SOL    HW2 7928   9.309   7.313   2.690
68699SOL     OW 7929  10.306   7.055  10.076
68699SOL    HW1 7930  10.216   7.045  10.044
68699SOL    HW2 7931  10.361   7.034  10.000
68700SOL     OW 7932  10.558   9.815   4.357
68700SOL    HW1 7933  10.542   9.726   4.327
68700SOL    HW2 7934  10.577   9.864   4.277
68701SOL     OW 7935   0.714   8.410  10.995
68701SOL    HW1 7936   0.715   8.348  10.921
68701SOL    HW2 7937   0.755   8.362  11.067
68702SOL     OW 7938   0.169   4.096   0.630
68702SOL    HW1 7939   0.128   4.056   0.553
68702SOL    HW2 7940   0.262   4.099   0.609
68703SOL     OW 7941  13.496  13.117  14.691
68703SOL    HW1 7942  13.495  13.027  14.659
68703SOL    HW2 7943  13.554  13.115  14.767
68704SOL     OW 7944   0.441  14.565   5.815
68704SOL    HW1 7945   0.345  14.569   5.817
68704SOL    HW2 7946   0.463  14.545   5.724
68705SOL     OW 7947   4.271   3.998   9.978
68705SOL    HW1 7948   4.295   4.023   9.889
68705SOL    HW2 7949   4.309   4.067  10.033
68706SOL     OW 7950  10.116  10.719   6.301
68706SOL    HW1 7951  10.154  10.778   6.236
68706SOL    HW2 7952  10.022  10.727   6.289
68707SOL     OW 7953  13.793   8.587  11.738
68707SOL    HW1 7954  13.768   8.609  11.648
68707SOL    HW2 7955  13.746   8.506  11.757
68708SOL     OW 7956  10.981   5.946   9.681
68708SOL    HW1 7957  11.006   5.982   9.596
68708SOL    HW2 7958  11.062   5.911   9.718
68709SOL     OW 7959  11.990  12.772   3.442
68709SOL    HW1 7960  11.987  12.704   3.376
68709SOL    HW2 7961  12.081  12.802   3.442
68710SOL     OW 7962   6.890  11.267  14.621
68710SOL    HW1 7963   6.937  11.197  14.575
68710SOL    HW2 7964   6.925  11.348  14.584
68711SOL     OW 7965   1.562  10.428   1.252
68711SOL    HW1 7966   1.641  10.381   1.226
68711SOL    HW2 7967   1.518  10.450   1.170
68712SOL     OW 7968   6.078   1.587   5.577
68712SOL    HW1 7969   6.152   1.581   5.637
68712SOL    HW2 7970   6.119   1.599   5.491
68713SOL     OW 7971   2.034  14.417   1.681
68713SOL    HW1 7972   1.977  14.458   1.746
68713SOL    HW2 7973   2.026  14.323   1.698
68714SOL     OW 7974  12.584   4.025  14.267
68714SOL    HW1 7975  12.641   4.052  14.195
68714SOL    HW2 7976  12.498   4.013  14.226
68715SOL     OW 7977   4.825   4.466   0.216
68715SOL    HW1 7978   4.892   4.401   0.195
68715SOL    HW2 7979   4.742   4.421   0.199
68716SOL     OW 7980   2.992  11.778   7.956
68716SOL    HW1 7981   3.067  11.750   8.007
68716SOL    HW2 7982   3.029  11.833   7.887
68717SOL     OW 7983   1.149   0.364   7.933
68717SOL    HW1 7984   1.118   0.299   7.996
68717SOL    HW2 7985   1.069   0.399   7.893
68718SOL     OW 7986   6.665   4.177   5.735
68718SOL    HW1 7987   6.593   4.120   5.706
68718SOL    HW2 7988   6.722   4.184   5.659
68719SOL     OW 7989   0.995   4.755  10.573
68719SOL    HW1 7990   0.970   4.847  10.580
68719SOL    HW2 7991   1.090   4.755  10.580
68720SOL     OW 7992   6.681   8.325  11.254
68720SOL    HW1 7993   6.617   8.396  11.250
68720SOL    HW2 7994   6.656   8.266  11.183
68721SOL     OW 7995  11.826   0.973   4.976
68721SOL    HW1 7996  11.735   0.949   4.963
68721SOL    HW2 7997  11.876   0.903   4.932
68722SOL     OW 7998   6.180   8.788  11.357
68722SOL    HW1 7999   6.214   8.759  11.273
68722SOL    HW2 8000   6.113   8.852  11.335
68723SOL     OW 8001   0.610  11.256   8.188
68723SOL    HW1 8002   0.581  11.347   8.187
68723SOL    HW2 8003   0.570  11.217   8.111
68724SOL     OW 8004   1.968   4.764  10.096
68724SOL    HW1 8005   1.946   4.827  10.027
68724SOL    HW2 8006   1.891   4.706  10.101
68725SOL     OW 8007  11.837   3.512   4.729
68725SOL    HW1 8008  11.812   3.596   4.769
68725SOL    HW2 8009  11.774   3.449   4.766
68726SOL     OW 8010   9.655   9.975   8.192
68726SOL    HW1 8011   9.589   9.926   8.143
68726SOL    HW2 8012   9.614   9.995   8.276
68727SOL     OW 8013   6.991   6.102   8.782
68727SOL    HW1 8014   7.056   6.044   8.822
68727SOL    HW2 8015   6.958   6.052   8.707
68728SOL     OW 8016  11.883   3.455   1.743
68728SOL    HW1 8017  11.855   3.522   1.680
68728SOL    HW2 8018  11.949   3.499   1.797
68729SOL     OW 8019   9.998   4.698   8.579
68729SOL    HW1 8020  10.024   4.637   8.648
68729SOL    HW2 8021   9.940   4.647   8.523
68730SOL     OW 8022  10.870  12.819  12.716
68730SOL    HW1 8023  10.948  12.767  12.737
68730SOL    HW2 8024  10.834  12.777  12.638
68731SOL     OW 8025   5.538   7.598   5.248
68731SOL    HW1 8026   5.513   7.655   5.176
68731SOL    HW2 8027   5.586   7.654   5.308
68732SOL     OW 8028   5.879   1.681   6.203
68732SOL    HW1 8029   5.880   1.668   6.298
68732SOL    HW2 8030   5.811   1.747   6.189
68733SOL     OW 8031   3.324  10.311   8.922
68733SOL    HW1 8032   3.252  10.355   8.878
68733SOL    HW2 8033   3.401  10.331   8.868
68734SOL     OW 8034   5.443   1.296  10.017
68734SOL    HW1 8035   5.417   1.273  10.106
68734SOL    HW2 8036   5.426   1.390  10.010
68735SOL     OW 8037   2.380   1.299  14.110
68735SOL    HW1 8038   2.443   1.340  14.169
68735SOL    HW2 8039   2.430   1.283  14.030
68736SOL     OW 8040  10.319  14.263   9.154
68736SOL    HW1 8041  10.393  14.228   9.203
68736SOL    HW2 8042  10.252  14.279   9.221
68737SOL     OW 8043  12.377   1.026  12.988
68737SOL    HW1 8044  12.386   0.950  12.930
68737SOL    HW2 8045  12.292   1.063  12.966
68738SOL     OW 8046   9.772  11.072   1.022
68738SOL    HW1 8047   9.761  11.016   0.945
68738SOL    HW2 8048   9.771  11.012   1.096
68739SOL     OW 8049   7.961   1.061   3.299
68739SOL    HW1 8050   8.054   1.079   3.311
68739SOL    HW2 8051   7.953   1.041   3.205
68740SOL     OW 8052   4.711   1.438   4.310
68740SOL    HW1 8053   4.637   1.429   4.371
68740SOL    HW2 8054   4.785   1.462   4.365
68741SOL     OW 8055   2.862  14.312   9.043
68741SOL    HW1 8056   2.792  14.248   9.032
68741SOL    HW2 8057   2.820  14.397   9.032
68742SOL     OW 8058   3.939  11.770  14.130
68742SOL    HW1 8059   3.959  11.843  14.071
68742SOL    HW2 8060   3.844  11.771  14.138
68743SOL     OW 8061   5.932  12.124  13.064
68743SOL    HW1 8062   5.853  12.072  13.082
68743SOL    HW2 8063   5.999  12.059  13.043
68744SOL     OW 8064   6.565   3.753   8.652
68744SOL    HW1 8065   6.485   3.728   8.606
68744SOL    HW2 8066   6.540   3.754   8.745
68745SOL     OW 8067  14.124   2.691  11.631
68745SOL    HW1 8068  14.090   2.677  11.720
68745SOL    HW2 8069  14.160   2.606  11.606
68746SOL     OW 8070   2.086  12.958   7.201
68746SOL    HW1 8071   2.148  13.023   7.235
68746SOL    HW2 8072   2.058  12.908   7.277
68747SOL     OW 8073  12.880  12.172   6.936
68747SOL    HW1 8074  12.850  12.082   6.928
68747SOL    HW2 8075  12.926  12.174   7.020
68748SOL     OW 8076   0.671  10.974  10.199
68748SOL    HW1 8077   0.643  11.050  10.251
68748SOL    HW2 8078   0.766  10.971  10.211
68749SOL     OW 8079   7.703   2.215  12.357
68749SOL    HW1 8080   7.681   2.131  12.316
68749SOL    HW2 8081   7.765   2.192  12.426
68750SOL     OW 8082   0.373  13.843   0.198
68750SOL    HW1 8083   0.300  13.904   0.208
68750SOL    HW2 8084   0.365  13.784   0.273
68751SOL     OW 8085   3.595  13.843   9.723
68751SOL    HW1 8086   3.503  13.857   9.744
68751SOL    HW2 8087   3.635  13.816   9.806
68752SOL     OW 8088   7.722   5.137   8.831
68752SOL    HW1 8089   7.640   5.140   8.781
68752SOL    HW2 8090   7.780   5.199   8.787
68753SOL     OW 8091   8.978   6.474   4.875
68753SOL    HW1 8092   9.064   6.494   4.837
68753SOL    HW2 8093   8.994   6.398   4.931
68754SOL     OW 8094  12.725  12.694   0.265
68754SOL    HW1 8095  12.714  12.789   0.274
68754SOL    HW2 8096  12.793  12.672   0.328
68755SOL     OW 8097   7.196   1.805  10.931
68755SOL    HW1 8098   7.189   1.872  10.863
68755SOL    HW2 8099   7.152   1.728  10.895
68756SOL     OW 8100  12.447  12.173   9.567
68756SOL    HW1 8101  12.480  12.217   9.645
68756SOL    HW2 8102  12.462  12.080   9.584
68757SOL     OW 8103  12.617   9.104   7.601
68757SOL    HW1 8104  12.552   9.136   7.538
68757SOL    HW2 8105  12.591   9.014   7.619
68758SOL     OW 8106   7.438  12.284  12.326
68758SOL    HW1 8107   7.492  12.363  12.318
68758SOL    HW2 8108   7.483  12.218  12.274
68759SOL     OW 8109   0.562   3.666   3.759
68759SOL    HW1 8110   0.588   3.574   3.754
68759SOL    HW2 8111   0.628   3.708   3.814
68760SOL     OW 8112  11.216   2.548  13.831
68760SOL    HW1 8113  11.159   2.481  13.793
68760SOL    HW2 8114  11.297   2.542  13.780
68761SOL     OW 8115   1.737   5.419  12.208
68761SOL    HW1 8116   1.688   5.368  12.144
68761SOL    HW2 8117   1.800   5.357  12.245
68762SOL     OW 8118  11.535   3.948   5.418
68762SOL    HW1 8119  11.594   3.973   5.347
68762SOL    HW2 8120  11.572   3.867   5.454
68763SOL     OW 8121   7.130   2.113   0.351
68763SOL    HW1 8122   7.039   2.121   0.325
68763SOL    HW2 8123   7.129   2.050   0.423
68764SOL     OW 8124   4.173   0.476  11.862
68764SOL    HW1 8125   4.180   0.562  11.904
68764SOL    HW2 8126   4.218   0.486  11.779
68765SOL     OW 8127   7.139   0.600   5.366
68765SOL    HW1 8128   7.051   0.562   5.372
68765SOL    HW2 8129   7.133   0.664   5.296
68766SOL     OW 8130  14.368  10.018  12.318
68766SOL    HW1 8131  14.384  10.112  12.318
68766SOL    HW2 8132  14.273  10.009  12.311
68767SOL     OW 8133   3.946   9.767  11.935
68767SOL    HW1 8134   3.948   9.776  12.030
68767SOL    HW2 8135   3.875   9.825  11.906
68768SOL     OW 8136   4.085  10.599   5.773
68768SOL    HW1 8137   4.075  10.618   5.680
68768SOL    HW2 8138   4.177  10.575   5.783
68769SOL     OW 8139  14.666   6.943   1.409
68769SOL    HW1 8140  14.695   6.975   1.324
68769SOL    HW2 8141  14.741   6.896   1.444
68770SOL     OW 8142   6.393   9.863  12.299
68770SOL    HW1 8143   6.340   9.939  12.321
68770SOL    HW2 8144   6.456   9.855  12.370
68771SOL     OW 8145   6.317  12.610   9.071
68771SOL    HW1 8146   6.304  12.551   8.997
68771SOL    HW2 8147   6.235  12.659   9.078
68772SOL     OW 8148   5.576   3.980  11.335
68772SOL    HW1 8149   5.648   3.979  11.271
68772SOL    HW2 8150   5.509   4.036  11.295
68773SOL     OW 8151  12.074  10.219  11.404
68773SOL    HW1 8152  12.132  10.202  11.330
68773SOL    HW2 8153  12.117  10.175  11.478
68774SOL     OW 8154  10.055  14.425  12.782
68774SOL    HW1 8155  10.016  14.444  12.867
68774SOL    HW2 8156  10.120  14.494  12.769
68775SOL     OW 8157   7.773   0.144  14.267
68775SOL    HW1 8158   7.681   0.129  14.287
68775SOL    HW2 8159   7.784   0.239  14.276
68776SOL     OW 8160   7.227  11.192   6.546
68776SOL    HW1 8161   7.304  11.141   6.572
68776SOL    HW2 8162   7.157  11.159   6.603
68777SOL     OW 8163  12.787   1.550   5.207
68777SOL    HW1 8164  12.873   1.573   5.241
68777SOL    HW2 8165  12.804   1.490   5.135
68778SOL     OW 8166  11.259   1.541   2.891
68778SOL    HW1 8167  11.165   1.526   2.889
68778SOL    HW2 8168  11.297   1.461   2.854
68779SOL     OW 8169   8.486   2.768   8.873
68779SOL    HW1 8170   8.396   2.740   8.887
68779SOL    HW2 8171   8.485   2.810   8.787
68780SOL     OW 8172   8.462  14.055   1.760
68780SOL    HW1 8173   8.374  14.023   1.779
68780SOL    HW2 8174   8.488  14.008   1.680
68781SOL     OW 8175   2.889  10.864   8.256
68781SOL    HW1 8176   2.889  10.901   8.168
68781SOL    HW2 8177   2.855  10.775   8.245
68782SOL     OW 8178   5.200  14.026   7.549
68782SOL    HW1 8179   5.251  14.105   7.566
68782SOL    HW2 8180   5.266  13.957   7.542
68783SOL     OW 8181   8.578   7.166   5.470
68783SOL    HW1 8182   8.617   7.158   5.384
68783SOL    HW2 8183   8.638   7.119   5.529
68784SOL     OW 8184   3.738  13.335   4.324
68784SOL    HW1 8185   3.695  13.341   4.410
68784SOL    HW2 8186   3.748  13.425   4.296
68785SOL     OW 8187  10.714   7.084   5.628
68785SOL    HW1 8188  10.696   7.060   5.719
68785SOL    HW2 8189  10.631   7.121   5.597
68786SOL     OW 8190   6.474  13.095  11.112
68786SOL    HW1 8191   6.558  13.068  11.150
68786SOL    HW2 8192   6.452  13.175  11.158
68787SOL     OW 8193  13.924   9.005  14.785
68787SOL    HW1 8194  13.994   8.990  14.849
68787SOL    HW2 8195  13.905   9.098  14.792
68788SOL     OW 8196   3.175  14.540   7.281
68788SOL    HW1 8197   3.266  14.526   7.258
68788SOL    HW2 8198   3.141  14.599   7.213
68789SOL     OW 8199  10.626   7.914  14.043
68789SOL    HW1 8200  10.685   7.843  14.067
68789SOL    HW2 8201  10.682   7.991  14.039
68790SOL     OW 8202   4.751   2.002  10.176
68790SOL    HW1 8203   4.749   2.044  10.090
68790SOL    HW2 8204   4.713   2.066  10.235
68791SOL     OW 8205   8.469  12.923   1.902
68791SOL    HW1 8206   8.406  12.938   1.832
68791SOL    HW2 8207   8.470  12.828   1.913
68792SOL     OW 8208   6.329   1.629   5.700
68792SOL    HW1 8209   6.333   1.715   5.742
68792SOL    HW2 8210   6.378   1.571   5.758
68793SOL     OW 8211   2.816   2.653  13.994
68793SOL    HW1 8212   2.861   2.610  13.922
68793SOL    HW2 8213   2.819   2.746  13.972
68794SOL     OW 8214  14.416   4.928  14.245
68794SOL    HW1 8215  14.434   4.887  14.329
68794SOL    HW2 8216  14.325   4.957  14.252
68795SOL     OW 8217  14.098   6.579   0.262
68795SOL    HW1 8218  14.082   6.644   0.330
68795SOL    HW2 8219  14.124   6.630   0.185
68796SOL     OW 8220   1.568  13.885   5.661
68796SOL    HW1 8221   1.524  13.813   5.706
68796SOL    HW2 8222   1.517  13.963   5.684
68797SOL     OW 8223   6.126   2.495   3.279
68797SOL    HW1 8224   6.118   2.400   3.289
68797SOL    HW2 8225   6.189   2.521   3.347
68798SOL     OW 8226   9.450   9.044   5.811
68798SOL    HW1 8227   9.530   9.000   5.781
68798SOL    HW2 8228   9.476   9.136   5.822
68799SOL     OW 8229   6.306  10.138   4.805
68799SOL    HW1 8230   6.277  10.222   4.769
68799SOL    HW2 8231   6.378  10.160   4.864
68800SOL     OW 8232   1.698  10.408   6.404
68800SOL    HW1 8233   1.780  10.367   6.377
68800SOL    HW2 8234   1.681  10.373   6.492
68801SOL     OW 8235  10.276   3.136   8.055
68801SOL    HW1 8236  10.332   3.210   8.029
68801SOL    HW2 8237  10.320   3.059   8.018
68802SOL     OW 8238   2.339   2.449  10.786
68802SOL    HW1 8239   2.253   2.466  10.823
68802SOL    HW2 8240   2.351   2.355  10.796
68803SOL     OW 8241  12.628   0.366   8.596
68803SOL    HW1 8242  12.655   0.442   8.647
68803SOL    HW2 8243  12.710   0.325   8.569
68804SOL     OW 8244   5.970  10.052  14.202
68804SOL    HW1 8245   5.924  10.132  14.229
68804SOL    HW2 8246   6.041  10.082  14.145
68805SOL     OW 8247   9.938  10.214  14.744
68805SOL    HW1 8248   9.955  10.240  14.835
68805SOL    HW2 8249   9.854  10.256  14.723
68806SOL     OW 8250  11.126  10.474  10.733
68806SOL    HW1 8251  11.167  10.387  10.734
68806SOL    HW2 8252  11.175  10.524  10.798
68807SOL     OW 8253   3.363   4.897   5.215
68807SOL    HW1 8254   3.343   4.898   5.121
68807SOL    HW2 8255   3.284   4.933   5.257
68808SOL     OW 8256   4.314   7.327  10.758
68808SOL    HW1 8257   4.338   7.353  10.669
68808SOL    HW2 8258   4.306   7.410  10.806
68809SOL     OW 8259   1.019   0.888   3.032
68809SOL    HW1 8260   0.982   0.942   3.101
68809SOL    HW2 8261   1.084   0.944   2.990
68810SOL     OW 8262   0.806   1.832   0.641
68810SOL    HW1 8263   0.781   1.742   0.623
68810SOL    HW2 8264   0.738   1.864   0.701
68811SOL     OW 8265   6.402   0.589   0.795
68811SOL    HW1 8266   6.416   0.562   0.704
68811SOL    HW2 8267   6.469   0.541   0.844
68812SOL     OW 8268   4.419   2.461   2.358
68812SOL    HW1 8269   4.426   2.411   2.440
68812SOL    HW2 8270   4.490   2.525   2.363
68813SOL     OW 8271   6.858   9.462  13.675
68813SOL    HW1 8272   6.808   9.530  13.630
68813SOL    HW2 8273   6.949   9.483  13.658
68814SOL     OW 8274   6.560  14.026  10.647
68814SOL    HW1 8275   6.523  14.089  10.585
68814SOL    HW2 8276   6.651  14.055  10.659
68815SOL     OW 8277   3.458   9.603   2.426
68815SOL    HW1 8278   3.542   9.637   2.457
68815SOL    HW2 8279   3.456   9.627   2.333
68816SOL     OW 8280  13.343   3.117   1.882
68816SOL    HW1 8281  13.404   3.190   1.895
68816SOL    HW2 8282  13.303   3.103   1.967
68817SOL     OW 8283   7.268  14.094   4.484
68817SOL    HW1 8284   7.334  14.153   4.447
68817SOL    HW2 8285   7.186  14.124   4.445
68818SOL     OW 8286   4.156   6.235   3.302
68818SOL    HW1 8287   4.144   6.289   3.380
68818SOL    HW2 8288   4.109   6.281   3.233
68819SOL     OW 8289   2.422   8.231  12.882
68819SOL    HW1 8290   2.499   8.231  12.938
68819SOL    HW2 8291   2.456   8.253  12.795
68820SOL     OW 8292   2.471  13.988   1.684
68820SOL    HW1 8293   2.391  14.037   1.670
68820SOL    HW2 8294   2.489  13.946   1.599
68821SOL     OW 8295   2.604   9.808   4.657
68821SOL    HW1 8296   2.601   9.901   4.636
68821SOL    HW2 8297   2.656   9.802   4.737
68822SOL     OW 8298   1.803   3.661  11.129
68822SOL    HW1 8299   1.770   3.658  11.219
68822SOL    HW2 8300   1.733   3.622  11.077
68823SOL     OW 8301  13.855  11.514  11.361
68823SOL    HW1 8302  13.776  11.460  11.363
68823SOL    HW2 8303  13.823  11.604  11.368
68824SOL     OW 8304   6.115  12.438  11.582
68824SOL    HW1 8305   6.159  12.471  11.660
68824SOL    HW2 8306   6.054  12.372  11.615
68825SOL     OW 8307   4.546   4.145   6.807
68825SOL    HW1 8308   4.504   4.148   6.893
68825SOL    HW2 8309   4.638   4.160   6.825
68826SOL     OW 8310   4.631  12.309   3.342
68826SOL    HW1 8311   4.690  12.384   3.346
68826SOL    HW2 8312   4.646  12.271   3.256
68827SOL     OW 8313   7.008  11.820   5.640
68827SOL    HW1 8314   6.955  11.853   5.713
68827SOL    HW2 8315   6.975  11.731   5.625
68828SOL     OW 8316  12.766  12.023  11.278
68828SOL    HW1 8317  12.751  12.042  11.185
68828SOL    HW2 8318  12.847  12.071  11.299
68829SOL     OW 8319   4.238  10.802   1.228
68829SOL    HW1 8320   4.304  10.811   1.296
68829SOL    HW2 8321   4.272  10.855   1.155
68830SOL     OW 8322   7.053   9.304   3.436
68830SOL    HW1 8323   7.028   9.380   3.488
68830SOL    HW2 8324   7.099   9.340   3.361
68831SOL     OW 8325  13.165   7.845   7.935
68831SOL    HW1 8326  13.180   7.756   7.967
68831SOL    HW2 8327  13.075   7.845   7.904
68832SOL     OW 8328   1.867  13.227   4.498
68832SOL    HW1 8329   1.880  13.294   4.565
68832SOL    HW2 8330   1.942  13.236   4.439
68833SOL     OW 8331   7.019  11.898  10.495
68833SOL    HW1 8332   6.942  11.895  10.439
68833SOL    HW2 8333   6.994  11.848  10.573
68834SOL     OW 8334  10.128  11.764  14.283
68834SOL    HW1 8335  10.185  11.698  14.322
68834SOL    HW2 8336  10.134  11.839  14.342
68835SOL     OW 8337  13.325   5.687   3.353
68835SOL    HW1 8338  13.284   5.772   3.338
68835SOL    HW2 8339  13.268   5.624   3.310
68836SOL     OW 8340  10.936   4.708  11.343
68836SOL    HW1 8341  10.977   4.793  11.358
68836SOL    HW2 8342  10.985   4.669  11.271
68837SOL     OW 8343  10.551  11.099   6.684
68837SOL    HW1 8344  10.463  11.097   6.646
68837SOL    HW2 8345  10.606  11.135   6.614
68838SOL     OW 8346  10.046  14.874  10.693
68838SOL    HW1 8347   9.980   0.059  10.723
68838SOL    HW2 8348  10.123   0.013  10.747
68839SOL     OW 8349   9.828  13.690   6.705
68839SOL    HW1 8350   9.890  13.717   6.638
68839SOL    HW2 8351   9.758  13.646   6.657
68840SOL     OW 8352   6.394   2.477   1.255
68840SOL    HW1 8353   6.401   2.546   1.322
68840SOL    HW2 8354   6.338   2.515   1.188
68841SOL     OW 8355  11.083   7.830  10.318
68841SOL    HW1 8356  11.027   7.753  10.307
68841SOL    HW2 8357  11.075   7.852  10.411
68842SOL     OW 8358   0.336  13.732  10.433
68842SOL    HW1 8359   0.338  13.732  10.337
68842SOL    HW2 8360   0.283  13.655  10.455
68843SOL     OW 8361   1.512   5.106   6.247
68843SOL    HW1 8362   1.523   5.181   6.187
68843SOL    HW2 8363   1.596   5.100   6.292
68844SOL     OW 8364   8.498  14.690   7.540
68844SOL    HW1 8365   8.464  14.640   7.614
68844SOL    HW2 8366   8.558  14.630   7.495
68845SOL     OW 8367   1.898   6.571  10.913
68845SOL    HW1 8368   1.878   6.479  10.899
68845SOL    HW2 8369   1.967   6.571  10.979
68846SOL     OW 8370   9.427   6.260   1.857
68846SOL    HW1 8371   9.505   6.275   1.804
68846SOL    HW2 8372   9.387   6.182   1.817
68847SOL     OW 8373  12.228   4.308  13.625
68847SOL    HW1 8374  12.314   4.268  13.614
68847SOL    HW2 8375  12.229   4.343  13.714
68848SOL     OW 8376   1.533  13.951  11.477
68848SOL    HW1 8377   1.529  13.954  11.381
68848SOL    HW2 8378   1.472  13.881  11.501
68849SOL     OW 8379  12.954   0.606   7.993
68849SOL    HW1 8380  13.009   0.684   7.988
68849SOL    HW2 8381  12.956   0.569   7.904
68850SOL     OW 8382   7.642   0.154  11.420
68850SOL    HW1 8383   7.555   0.126  11.449
68850SOL    HW2 8384   7.662   0.096  11.347
68851SOL     OW 8385   7.919   0.760  11.606
68851SOL    HW1 8386   7.925   0.792  11.696
68851SOL    HW2 8387   7.901   0.839  11.554
68852SOL     OW 8388   2.807  14.105  12.838
68852SOL    HW1 8389   2.890  14.113  12.792
68852SOL    HW2 8390   2.783  14.013  12.828
68853SOL     OW 8391   5.576   1.240   4.436
68853SOL    HW1 8392   5.635   1.165   4.436
68853SOL    HW2 8393   5.587   1.279   4.350
68854SOL     OW 8394   3.796  11.399  11.683
68854SOL    HW1 8395   3.797  11.471  11.619
68854SOL    HW2 8396   3.839  11.327  11.638
68855SOL     OW 8397   3.371   4.016  12.226
68855SOL    HW1 8398   3.326   4.088  12.181
68855SOL    HW2 8399   3.442   4.059  12.275
68856SOL     OW 8400   3.664   8.505  11.226
68856SOL    HW1 8401   3.711   8.422  11.226
68856SOL    HW2 8402   3.598   8.496  11.295
68857SOL     OW 8403  14.676  11.108  13.595
68857SOL    HW1 8404  14.591  11.150  13.605
68857SOL    HW2 8405  14.689  11.103  13.500
68858SOL     OW 8406   5.360   1.410   7.640
68858SOL    HW1 8407   5.409   1.383   7.563
68858SOL    HW2 8408   5.351   1.330   7.692
68859SOL     OW 8409   7.376   4.578   8.045
68859SOL    HW1 8410   7.339   4.491   8.029
68859SOL    HW2 8411   7.300   4.635   8.056
68860SOL     OW 8412   0.535   0.378   5.185
68860SOL    HW1 8413   0.509   0.385   5.277
68860SOL    HW2 8414   0.486   0.447   5.141
68861SOL     OW 8415  11.820   3.238   7.509
68861SOL    HW1 8416  11.860   3.325   7.501
68861SOL    HW2 8417  11.879   3.189   7.565
68862SOL     OW 8418  13.985   9.758   5.297
68862SOL    HW1 8419  13.962   9.751   5.390
68862SOL    HW2 8420  13.933   9.689   5.255
68863SOL     OW 8421   1.312  13.886   3.883
68863SOL    HW1 8422   1.354  13.806   3.913
68863SOL    HW2 8423   1.299  13.873   3.789
68864SOL     OW 8424   2.698  11.386   2.969
68864SOL    HW1 8425   2.764  11.429   3.024
68864SOL    HW2 8426   2.614  11.417   3.002
68865SOL     OW 8427   7.133   6.387  10.081
68865SOL    HW1 8428   7.193   6.322  10.043
68865SOL    HW2 8429   7.104   6.438  10.006
68866SOL     OW 8430   8.155   8.286  12.806
68866SOL    HW1 8431   8.137   8.237  12.726
68866SOL    HW2 8432   8.069   8.313  12.838
68867SOL     OW 8433  13.054  10.524   9.181
68867SOL    HW1 8434  13.146  10.500   9.166
68867SOL    HW2 8435  13.049  10.615   9.153
68868SOL     OW 8436   0.640  12.747   1.434
68868SOL    HW1 8437   0.630  12.827   1.485
68868SOL    HW2 8438   0.616  12.773   1.345
68869SOL     OW 8439   1.275   3.375  10.142
68869SOL    HW1 8440   1.252   3.287  10.173
68869SOL    HW2 8441   1.303   3.361  10.051
68870SOL     OW 8442   0.116  11.451  11.167
68870SOL    HW1 8443   0.159  11.426  11.249
68870SOL    HW2 8444   0.029  11.481  11.194
68871SOL     OW 8445   8.544  13.279   6.007
68871SOL    HW1 8446   8.487  13.313   5.938
68871SOL    HW2 8447   8.575  13.195   5.974
68872SOL     OW 8448   9.552  14.090   9.056
68872SOL    HW1 8449   9.635  14.101   9.010
68872SOL    HW2 8450   9.563  14.010   9.107
68873SOL     OW 8451   3.128  10.597   0.368
68873SOL    HW1 8452   3.154  10.596   0.460
68873SOL    HW2 8453   3.038  10.628   0.369
68874SOL     OW 8454   4.021  10.221   7.669
68874SOL    HW1 8455   4.055  10.136   7.641
68874SOL    HW2 8456   4.092  10.282   7.652
68875SOL     OW 8457  11.757  14.257   1.188
68875SOL    HW1 8458  11.773  14.272   1.095
68875SOL    HW2 8459  11.815  14.186   1.212
68876SOL     OW 8460  13.113  10.775  14.830
68876SOL    HW1 8461  13.044  10.764  14.764
68876SOL    HW2 8462  13.102  10.701   0.011
68877SOL     OW 8463   1.554  11.013  14.285
68877SOL    HW1 8464   1.587  10.989  14.199
68877SOL    HW2 8465   1.534  10.929  14.327
68878SOL     OW 8466   7.115   9.576   9.980
68878SOL    HW1 8467   7.188   9.515   9.975
68878SOL    HW2 8468   7.080   9.564  10.069
68879SOL     OW 8469   4.724   6.896   4.895
68879SOL    HW1 8470   4.767   6.875   4.812
68879SOL    HW2 8471   4.689   6.984   4.882
68880SOL     OW 8472  12.583   1.228  11.795
68880SOL    HW1 8473  12.504   1.242  11.848
68880SOL    HW2 8474  12.552   1.230  11.705
68881SOL     OW 8475   7.506   7.694  12.274
68881SOL    HW1 8476   7.414   7.667  12.272
68881SOL    HW2 8477   7.546   7.647  12.201
68882SOL     OW 8478   9.024   9.135  11.478
68882SOL    HW1 8479   9.005   9.221  11.514
68882SOL    HW2 8480   9.068   9.088  11.549
68883SOL     OW 8481   5.778  11.280  10.508
68883SOL    HW1 8482   5.817  11.320  10.586
68883SOL    HW2 8483   5.830  11.313  10.435
68884SOL     OW 8484  13.541   7.075   0.911
68884SOL    HW1 8485  13.572   7.028   0.988
68884SOL    HW2 8486  13.480   7.140   0.945
68885SOL     OW 8487   5.336   3.832  11.325
68885SOL    HW1 8488   5.418   3.877  11.344
68885SOL    HW2 8489   5.268   3.898  11.342
68886SOL     OW 8490  10.400   1.656  12.250
68886SOL    HW1 8491  10.351   1.736  12.268
68886SOL    HW2 8492  10.455   1.644  12.327
68887SOL     OW 8493   3.977  11.847   9.884
68887SOL    HW1 8494   4.056  11.840   9.938
68887SOL    HW2 8495   3.912  11.889   9.940
68888SOL     OW 8496   4.045   5.366  13.656
68888SOL    HW1 8497   3.961   5.370  13.611
68888SOL    HW2 8498   4.036   5.293  13.718
68889SOL     OW 8499   3.272   3.665   9.329
68889SOL    HW1 8500   3.190   3.685   9.284
68889SOL    HW2 8501   3.254   3.586   9.379
68890SOL     OW 8502   0.505   7.441   9.097
68890SOL    HW1 8503   0.575   7.505   9.084
68890SOL    HW2 8504   0.541   7.378   9.159
68891SOL     OW 8505   9.911   9.132   7.229
68891SOL    HW1 8506   9.828   9.092   7.204
68891SOL    HW2 8507   9.940   9.082   7.306
68892SOL     OW 8508   9.473   8.667  14.877
68892SOL    HW1 8509   9.484   8.715   0.080
68892SOL    HW2 8510   9.529   8.590   0.008
68893SOL     OW 8511   6.843  10.931   0.541
68893SOL    HW1 8512   6.769  10.971   0.587
68893SOL    HW2 8513   6.816  10.840   0.527
68894SOL     OW 8514   5.557   6.687   1.034
68894SOL    HW1 8515   5.501   6.733   0.972
68894SOL    HW2 8516   5.608   6.756   1.076
68895SOL     OW 8517   6.234  14.276   2.214
68895SOL    HW1 8518   6.297  14.287   2.143
68895SOL    HW2 8519   6.230  14.363   2.256
68896SOL     OW 8520  12.670   7.559  14.210
68896SOL    HW1 8521  12.752   7.563  14.259
68896SOL    HW2 8522  12.603   7.579  14.275
68897SOL     OW 8523   3.780   2.302   4.823
68897SOL    HW1 8524   3.814   2.383   4.784
68897SOL    HW2 8525   3.840   2.284   4.895
68898SOL     OW 8526   0.407  13.551   2.958
68898SOL    HW1 8527   0.471  13.614   2.925
68898SOL    HW2 8528   0.432  13.538   3.050
68899SOL     OW 8529   7.576   7.155   1.092
68899SOL    HW1 8530   7.522   7.076   1.092
68899SOL    HW2 8531   7.665   7.123   1.076
68900SOL     OW 8532   2.018   6.624  11.608
68900SOL    HW1 8533   2.015   6.716  11.582
68900SOL    HW2 8534   2.106   6.611  11.642
68901SOL     OW 8535   8.467  11.518  10.690
68901SOL    HW1 8536   8.487  11.425  10.686
68901SOL    HW2 8537   8.394  11.530  10.631
68902SOL     OW 8538   7.631   9.567  10.951
68902SOL    HW1 8539   7.680   9.643  10.920
68902SOL    HW2 8540   7.585   9.534  10.874
68903SOL     OW 8541  11.642   3.689   5.140
68903SOL    HW1 8542  11.664   3.761   5.199
68903SOL    HW2 8543  11.709   3.623   5.156
68904SOL     OW 8544  12.639  14.682  10.427
68904SOL    HW1 8545  12.555  14.695  10.383
68904SOL    HW2 8546  12.696  14.645  10.360
68905SOL     OW 8547   3.792  14.186   5.913
68905SOL    HW1 8548   3.774  14.094   5.893
68905SOL    HW2 8549   3.729  14.234   5.859
68906SOL     OW 8550  10.051   9.201   1.822
68906SOL    HW1 8551  10.075   9.179   1.912
68906SOL    HW2 8552  10.021   9.119   1.784
68907SOL     OW 8553   6.065   6.280   4.368
68907SOL    HW1 8554   5.989   6.338   4.375
68907SOL    HW2 8555   6.030   6.192   4.383
68908SOL     OW 8556   0.291   6.535  10.139
68908SOL    HW1 8557   0.329   6.523  10.226
68908SOL    HW2 8558   0.327   6.618  10.108
68909SOL     OW 8559   6.187  10.019  11.675
68909SOL    HW1 8560   6.093  10.005  11.662
68909SOL    HW2 8561   6.226   9.933  11.658
68910SOL     OW 8562   3.238   8.908   9.638
68910SOL    HW1 8563   3.192   8.992   9.643
68910SOL    HW2 8564   3.279   8.898   9.723
68911SOL     OW 8565   6.104   2.445   9.243
68911SOL    HW1 8566   6.082   2.535   9.218
68911SOL    HW2 8567   6.200   2.444   9.247
68912SOL     OW 8568   8.365   6.272   3.382
68912SOL    HW1 8569   8.392   6.355   3.421
68912SOL    HW2 8570   8.307   6.297   3.310
68913SOL     OW 8571  11.457   1.860   7.226
68913SOL    HW1 8572  11.494   1.828   7.308
68913SOL    HW2 8573  11.457   1.783   7.168
68914SOL     OW 8574  10.401   7.445  12.468
68914SOL    HW1 8575  10.414   7.397  12.549
68914SOL    HW2 8576  10.486   7.441  12.423
68915SOL     OW 8577   0.645   2.933   9.497
68915SOL    HW1 8578   0.671   3.015   9.539
68915SOL    HW2 8579   0.552   2.945   9.477
68916SOL     OW 8580   4.063   1.103   0.652
68916SOL    HW1 8581   4.018   1.112   0.568
68916SOL    HW2 8582   4.002   1.054   0.707
68917SOL     OW 8583   0.709   1.845   8.922
68917SOL    HW1 8584   0.640   1.836   8.856
68917SOL    HW2 8585   0.661   1.854   9.005
68918SOL     OW 8586   7.421   4.980  12.224
68918SOL    HW1 8587   7.516   4.970  12.221
68918SOL    HW2 8588   7.406   5.071  12.196
68919SOL     OW 8589   4.752   5.976  14.701
68919SOL    HW1 8590   4.735   6.001  14.610
68919SOL    HW2 8591   4.833   5.926  14.698
68920SOL     OW 8592  11.311  14.872  11.817
68920SOL    HW1 8593  11.329  14.788  11.775
68920SOL    HW2 8594  11.218   0.007  11.803
68921SOL     OW 8595  10.308  12.083  14.795
68921SOL    HW1 8596  10.303  12.079   0.012
68921SOL    HW2 8597  10.394  12.047  14.774
68922SOL     OW 8598   8.932   9.724  13.769
68922SOL    HW1 8599   8.863   9.715  13.704
68922SOL    HW2 8600   8.912   9.807  13.814
68923SOL     OW 8601  12.141   6.348  10.788
68923SOL    HW1 8602  12.079   6.276  10.790
68923SOL    HW2 8603  12.094   6.420  10.745
68924SOL     OW 8604  14.609   1.351   5.564
68924SOL    HW1 8605  14.643   1.428   5.609
68924SOL    HW2 8606  14.595   1.287   5.633
68925SOL     OW 8607  13.257  14.281   2.119
68925SOL    HW1 8608  13.340  14.236   2.133
68925SOL    HW2 8609  13.213  14.229   2.052
68926SOL     OW 8610   8.930   0.642   2.219
68926SOL    HW1 8611   8.844   0.663   2.254
68926SOL    HW2 8612   8.940   0.548   2.232
68927SOL     OW 8613   3.675  14.748   8.999
68927SOL    HW1 8614   3.597  14.741   9.053
68927SOL    HW2 8615   3.729  14.673   9.023
68928SOL     OW 8616  11.474   0.219   5.427
68928SOL    HW1 8617  11.536   0.233   5.356
68928SOL    HW2 8618  11.478   0.125   5.443
68929SOL     OW 8619   1.057  13.536   8.909
68929SOL    HW1 8620   1.052  13.541   9.005
68929SOL    HW2 8621   1.054  13.442   8.890
68930SOL     OW 8622  12.717   8.776   1.868
68930SOL    HW1 8623  12.776   8.844   1.901
68930SOL    HW2 8624  12.760   8.744   1.789
68931SOL     OW 8625  11.989  10.983   3.033
68931SOL    HW1 8626  12.058  10.996   3.098
68931SOL    HW2 8627  11.997  11.058   2.975
68932SOL     OW 8628  12.643   4.950   9.413
68932SOL    HW1 8629  12.694   4.980   9.339
68932SOL    HW2 8630  12.645   4.854   9.407
68933SOL     OW 8631   0.870  13.741   3.901
68933SOL    HW1 8632   0.835  13.745   3.812
68933SOL    HW2 8633   0.793  13.725   3.956
68934SOL     OW 8634   9.171   8.663   6.104
68934SOL    HW1 8635   9.163   8.572   6.073
68934SOL    HW2 8636   9.092   8.706   6.073
68935SOL     OW 8637  11.280   9.405   3.312
68935SOL    HW1 8638  11.186   9.424   3.304
68935SOL    HW2 8639  11.312   9.409   3.222
68936SOL     OW 8640   5.487   7.624   8.180
68936SOL    HW1 8641   5.428   7.675   8.126
68936SOL    HW2 8642   5.567   7.615   8.128
68937SOL     OW 8643   3.218   4.929  10.732
68937SOL    HW1 8644   3.243   4.937  10.824
68937SOL    HW2 8645   3.299   4.903  10.688
68938SOL     OW 8646   1.508   1.452   4.047
68938SOL    HW1 8647   1.589   1.408   4.070
68938SOL    HW2 8648   1.441   1.384   4.055
68939SOL     OW 8649  14.410  13.089  11.204
68939SOL    HW1 8650  14.481  13.143  11.239
68939SOL    HW2 8651  14.442  13.059  11.118
68940SOL     OW 8652   5.720  14.064   6.355
68940SOL    HW1 8653   5.666  14.135   6.391
68940SOL    HW2 8654   5.710  13.993   6.418
68941SOL     OW 8655   0.722   8.858  11.354
68941SOL    HW1 8656   0.655   8.911  11.398
68941SOL    HW2 8657   0.752   8.913  11.281
68942SOL     OW 8658   1.637  12.785  13.360
68942SOL    HW1 8659   1.658  12.862  13.412
68942SOL    HW2 8660   1.692  12.793  13.282
68943SOL     OW 8661   8.761   9.294  10.026
68943SOL    HW1 8662   8.735   9.329   9.941
68943SOL    HW2 8663   8.679   9.285  10.074
68944SOL     OW 8664  11.634  12.089   4.980
68944SOL    HW1 8665  11.606  12.122   4.895
68944SOL    HW2 8666  11.578  12.136   5.043
68945SOL     OW 8667   0.118   4.937  11.576
68945SOL    HW1 8668   0.181   4.953  11.506
68945SOL    HW2 8669   0.077   5.022  11.591
68946SOL     OW 8670   2.738   9.308  13.476
68946SOL    HW1 8671   2.796   9.381  13.496
68946SOL    HW2 8672   2.708   9.324  13.387
68947SOL     OW 8673  11.373   6.369   9.686
68947SOL    HW1 8674  11.324   6.438   9.641
68947SOL    HW2 8675  11.462   6.378   9.653
68948SOL     OW 8676  11.608   9.227   0.454
68948SOL    HW1 8677  11.686   9.253   0.406
68948SOL    HW2 8678  11.632   9.237   0.546
68949SOL     OW 8679  14.736   8.343   4.719
68949SOL    HW1 8680  14.746   8.255   4.756
68949SOL    HW2 8681  14.648   8.370   4.745
68950SOL     OW 8682   0.985  11.821   2.393
68950SOL    HW1 8683   0.915  11.847   2.333
68950SOL    HW2 8684   1.007  11.901   2.441
68951SOL     OW 8685  14.874   7.655  13.370
68951SOL    HW1 8686  14.779   7.651  13.364
68951SOL    HW2 8687   0.013   7.714  13.443
68952SOL     OW 8688   6.891   5.365  14.625
68952SOL    HW1 8689   6.874   5.392  14.715
68952SOL    HW2 8690   6.977   5.322  14.629
68953SOL     OW 8691   2.391   3.868   3.179
68953SOL    HW1 8692   2.399   3.868   3.274
68953SOL    HW2 8693   2.473   3.907   3.148
68954SOL     OW 8694  14.064   8.991   4.952
68954SOL    HW1 8695  14.007   9.065   4.935
68954SOL    HW2 8696  14.131   9.026   5.012
68955SOL     OW 8697  14.732   3.205   3.983
68955SOL    HW1 8698  14.658   3.222   3.925
68955SOL    HW2 8699  14.798   3.269   3.956
68956SOL     OW 8700  13.377   1.421  10.482
68956SOL    HW1 8701  13.286   1.437  10.460
68956SOL    HW2 8702  13.385   1.448  10.574
68957SOL     OW 8703   5.959  10.015   1.554
68957SOL    HW1 8704   5.967  10.057   1.640
68957SOL    HW2 8705   5.867  10.026   1.531
68958SOL     OW 8706   0.470   0.246   7.293
68958SOL    HW1 8707   0.528   0.207   7.228
68958SOL    HW2 8708   0.442   0.329   7.254
68959SOL     OW 8709   2.571   6.258   4.280
68959SOL    HW1 8710   2.552   6.215   4.364
68959SOL    HW2 8711   2.621   6.192   4.231
68960SOL     OW 8712   4.410  14.479   9.847
68960SOL    HW1 8713   4.491  14.469   9.797
68960SOL    HW2 8714   4.408  14.570   9.873
68961SOL     OW 8715   3.873   7.044  11.418
68961SOL    HW1 8716   3.853   6.953  11.439
68961SOL    HW2 8717   3.933   7.072  11.486
68962SOL     OW 8718  12.379  13.438  11.989
68962SOL    HW1 8719  12.409  13.486  11.912
68962SOL    HW2 8720  12.295  13.401  11.962
68963SOL     OW 8721  10.578   1.423   0.477
68963SOL    HW1 8722  10.557   1.487   0.546
68963SOL    HW2 8723  10.640   1.469   0.420
68964SOL     OW 8724   9.112   8.368   6.077
68964SOL    HW1 8725   9.066   8.316   6.011
68964SOL    HW2 8726   9.204   8.366   6.048
68965SOL     OW 8727   4.260   8.450   6.678
68965SOL    HW1 8728   4.211   8.368   6.676
68965SOL    HW2 8729   4.254   8.479   6.769
68966SOL     OW 8730   3.218  10.957   3.129
68966SOL    HW1 8731   3.264  10.980   3.210
68966SOL    HW2 8732   3.254  11.016   3.063
68967SOL     OW 8733   9.890   7.963   6.584
68967SOL    HW1 8734   9.955   7.997   6.521
68967SOL    HW2 8735   9.852   7.887   6.540
68968SOL     OW 8736   7.135   8.231   8.107
68968SOL    HW1 8737   7.222   8.211   8.140
68968SOL    HW2 8738   7.110   8.154   8.055
68969SOL     OW 8739   4.411   9.349  13.205
68969SOL    HW1 8740   4.372   9.325  13.290
68969SOL    HW2 8741   4.458   9.271  13.178
68970SOL     OW 8742   3.579  11.810   1.933
68970SOL    HW1 8743   3.660  11.838   1.891
68970SOL    HW2 8744   3.518  11.883   1.918
68971SOL     OW 8745   0.868   3.209   1.552
68971SOL    HW1 8746   0.877   3.127   1.602
68971SOL    HW2 8747   0.957   3.236   1.534
68972SOL     OW 8748   9.740   0.255   7.120
68972SOL    HW1 8749   9.693   0.290   7.196
68972SOL    HW2 8750   9.675   0.255   7.049
68973SOL     OW 8751   7.332  10.186  10.652
68973SOL    HW1 8752   7.300  10.276  10.658
68973SOL    HW2 8753   7.326  10.165  10.559
68974SOL     OW 8754   4.312  11.054   9.875
68974SOL    HW1 8755   4.293  11.026   9.785
68974SOL    HW2 8756   4.362  10.982   9.913
68975SOL     OW 8757  12.707  14.263   6.045
68975SOL    HW1 8758  12.743  14.234   6.129
68975SOL    HW2 8759  12.781  14.256   5.984
68976SOL     OW 8760  13.110   9.049   9.372
68976SOL    HW1 8761  13.085   8.968   9.416
68976SOL    HW2 8762  13.094   9.032   9.279
68977SOL     OW 8763   6.018   8.733  12.776
68977SOL    HW1 8764   5.969   8.797  12.725
68977SOL    HW2 8765   6.054   8.672  12.711
68978SOL     OW 8766   9.571   3.777   8.871
68978SOL    HW1 8767   9.574   3.867   8.905
68978SOL    HW2 8768   9.482   3.766   8.840
68979SOL     OW 8769   2.631   3.346   7.072
68979SOL    HW1 8770   2.684   3.356   7.151
68979SOL    HW2 8771   2.541   3.342   7.105
68980SOL     OW 8772   0.794  13.537  14.832
68980SOL    HW1 8773   0.798  13.444  14.812
68980SOL    HW2 8774   0.880  13.558  14.869
68981SOL     OW 8775   7.891  10.291  11.782
68981SOL    HW1 8776   7.884  10.322  11.691
68981SOL    HW2 8777   7.883  10.196  11.776
68982SOL     OW 8778  10.116   0.004  14.555
68982SOL    HW1 8779  10.106  14.789  14.570
68982SOL    HW2 8780  10.042   0.028  14.500
68983SOL     OW 8781  12.845   0.822   9.062
68983SOL    HW1 8782  12.761   0.867   9.073
68983SOL    HW2 8783  12.852   0.764   9.138
68984SOL     OW 8784  12.156   5.867   3.603
68984SOL    HW1 8785  12.100   5.839   3.675
68984SOL    HW2 8786  12.245   5.855   3.636
68985SOL     OW 8787   1.555   2.248  10.103
68985SOL    HW1 8788   1.470   2.265  10.063
68985SOL    HW2 8789   1.605   2.328  10.090
68986SOL     OW 8790  11.399   8.125   4.992
68986SOL    HW1 8791  11.384   8.055   5.056
68986SOL    HW2 8792  11.357   8.095   4.912
68987SOL     OW 8793   9.256  14.295  13.614
68987SOL    HW1 8794   9.189  14.363  13.618
68987SOL    HW2 8795   9.339  14.342  13.617
68988SOL     OW 8796   7.079  10.921   7.772
68988SOL    HW1 8797   7.058  10.878   7.856
68988SOL    HW2 8798   7.099  10.848   7.713
68989SOL     OW 8799   7.907   8.521   8.160
68989SOL    HW1 8800   7.867   8.539   8.246
68989SOL    HW2 8801   7.835   8.488   8.107
68990SOL     OW 8802   7.053  12.227   6.146
68990SOL    HW1 8803   7.048  12.167   6.071
68990SOL    HW2 8804   7.101  12.178   6.212
68991SOL     OW 8805  13.455  11.886   5.555
68991SOL    HW1 8806  13.372  11.922   5.525
68991SOL    HW2 8807  13.520  11.950   5.528
68992SOL     OW 8808   5.652   2.848   4.266
68992SOL    HW1 8809   5.676   2.775   4.209
68992SOL    HW2 8810   5.730   2.902   4.270
68993SOL     OW 8811   9.002   0.522   3.698
68993SOL    HW1 8812   8.966   0.582   3.633
68993SOL    HW2 8813   8.936   0.520   3.768
68994SOL     OW 8814   1.836   7.017   6.940
68994SOL    HW1 8815   1.902   7.072   6.982
68994SOL    HW2 8816   1.880   6.933   6.926
68995SOL     OW 8817   1.847  11.467   5.957
68995SOL    HW1 8818   1.769  11.521   5.970
68995SOL    HW2 8819   1.850  11.451   5.862
68996SOL     OW 8820   1.256  10.544   2.186
68996SOL    HW1 8821   1.317  10.500   2.127
68996SOL    HW2 8822   1.202  10.473   2.222
68997SOL     OW 8823   2.730  10.552  12.009
68997SOL    HW1 8824   2.785  10.567  12.087
68997SOL    HW2 8825   2.671  10.481  12.034
68998SOL     OW 8826   9.498  11.677   0.049
68998SOL    HW1 8827   9.558  11.663  14.854
68998SOL    HW2 8828   9.514  11.768   0.076
68999SOL     OW 8829  11.082  14.103   5.360
68999SOL    HW1 8830  11.141  14.153   5.305
68999SOL    HW2 8831  11.022  14.061   5.298
69000SOL     OW 8832  12.853   0.047  12.868
69000SOL    HW1 8833  12.909   0.012  12.938
69000SOL    HW2 8834  12.902   0.121  12.833
69001SOL     OW 8835   4.089  10.464   6.229
69001SOL    HW1 8836   4.163  10.419   6.189
69001SOL    HW2 8837   4.063  10.408   6.302
69002SOL     OW 8838   4.253  14.041  10.013
69002SOL    HW1 8839   4.318  14.107  10.034
69002SOL    HW2 8840   4.272  14.016   9.923
69003SOL     OW 8841   6.594   6.816  13.894
69003SOL    HW1 8842   6.544   6.763  13.832
69003SOL    HW2 8843   6.531   6.838  13.962
69004SOL     OW 8844   9.608   9.216  13.366
69004SOL    HW1 8845   9.609   9.297  13.417
69004SOL    HW2 8846   9.537   9.228  13.303
69005SOL     OW 8847   4.581   4.518   0.880
69005SOL    HW1 8848   4.589   4.457   0.807
69005SOL    HW2 8849   4.558   4.601   0.839
69006SOL     OW 8850   0.404   2.539   1.801
69006SOL    HW1 8851   0.457   2.460   1.799
69006SOL    HW2 8852   0.456   2.604   1.753
69007SOL     OW 8853   1.263   9.773  13.324
69007SOL    HW1 8854   1.218   9.852  13.352
69007SOL    HW2 8855   1.208   9.737  13.255
69008SOL     OW 8856  13.961   2.175   4.484
69008SOL    HW1 8857  13.972   2.106   4.418
69008SOL    HW2 8858  14.049   2.188   4.519
69009SOL     OW 8859   1.295  10.167   7.308
69009SOL    HW1 8860   1.225  10.184   7.245
69009SOL    HW2 8861   1.251  10.162   7.392
69010SOL     OW 8862   5.452   6.112  12.766
69010SOL    HW1 8863   5.487   6.164  12.838
69010SOL    HW2 8864   5.461   6.168  12.689
69011SOL     OW 8865   6.670  13.615  12.810
69011SOL    HW1 8866   6.702  13.678  12.875
69011SOL    HW2 8867   6.638  13.542  12.862
69012SOL     OW 8868   9.392   6.026   9.961
69012SOL    HW1 8869   9.387   6.038   9.866
69012SOL    HW2 8870   9.481   5.993   9.977
69013SOL     OW 8871  10.875   3.500  11.392
69013SOL    HW1 8872  10.832   3.585  11.382
69013SOL    HW2 8873  10.955   3.507  11.340
69014SOL     OW 8874   9.953   2.572   4.477
69014SOL    HW1 8875  10.024   2.538   4.424
69014SOL    HW2 8876   9.880   2.584   4.416
69015SOL     OW 8877  12.081   2.129   7.081
69015SOL    HW1 8878  12.152   2.153   7.021
69015SOL    HW2 8879  12.081   2.197   7.148
69016SOL     OW 8880   2.953  11.638  13.554
69016SOL    HW1 8881   2.959  11.651  13.649
69016SOL    HW2 8882   3.042  11.612  13.528
69017SOL     OW 8883   8.086  11.212   9.576
69017SOL    HW1 8884   8.092  11.208   9.671
69017SOL    HW2 8885   8.173  11.189   9.545
69018SOL     OW 8886   1.642  13.040   7.197
69018SOL    HW1 8887   1.699  13.086   7.134
69018SOL    HW2 8888   1.666  13.077   7.282
69019SOL     OW 8889   0.383   7.393  11.222
69019SOL    HW1 8890   0.421   7.372  11.137
69019SOL    HW2 8891   0.309   7.451  11.201
69020SOL     OW 8892   2.472   3.280   6.833
69020SOL    HW1 8893   2.469   3.234   6.749
69020SOL    HW2 8894   2.530   3.355   6.818
69021SOL     OW 8895   7.323  13.219   7.969
69021SOL    HW1 8896   7.373  13.194   7.891
69021SOL    HW2 8897   7.373  13.184   8.042
69022SOL     OW 8898   0.296   3.374  13.875
69022SOL    HW1 8899   0.287   3.282  13.900
69022SOL    HW2 8900   0.267   3.377  13.784
69023SOL     OW 8901  10.242  14.226   9.501
69023SOL    HW1 8902  10.327  14.269   9.515
69023SOL    HW2 8903  10.208  14.266   9.421
69024SOL     OW 8904   3.650  10.037   9.026
69024SOL    HW1 8905   3.710  10.107   9.051
69024SOL    HW2 8906   3.672  10.018   8.935
69025SOL     OW 8907   0.231   8.260   6.037
69025SOL    HW1 8908   0.148   8.261   6.083
69025SOL    HW2 8909   0.295   8.293   6.101
69026SOL     OW 8910  10.761   7.866   6.062
69026SOL    HW1 8911  10.719   7.839   6.144
69026SOL    HW2 8912  10.688   7.890   6.005
69027SOL     OW 8913   4.935   8.291  10.055
69027SOL    HW1 8914   4.920   8.196  10.053
69027SOL    HW2 8915   4.887   8.321  10.132
69028SOL     OW 8916  14.737   2.068   0.531
69028SOL    HW1 8917  14.710   2.023   0.612
69028SOL    HW2 8918  14.813   2.120   0.557
69029SOL     OW 8919   4.380   7.120   9.139
69029SOL    HW1 8920   4.380   7.146   9.047
69029SOL    HW2 8921   4.444   7.178   9.180
69030SOL     OW 8922  11.003   0.051  14.342
69030SOL    HW1 8923  11.065   0.104  14.393
69030SOL    HW2 8924  11.058  14.878  14.284
69031SOL     OW 8925   8.975   4.815   2.177
69031SOL    HW1 8926   9.031   4.738   2.191
69031SOL    HW2 8927   8.995   4.872   2.251
69032SOL     OW 8928   1.750   2.308   1.149
69032SOL    HW1 8929   1.690   2.381   1.161
69032SOL    HW2 8930   1.832   2.349   1.119
69033SOL     OW 8931   9.625   4.575   2.903
69033SOL    HW1 8932   9.690   4.612   2.843
69033SOL    HW2 8933   9.543   4.620   2.880
69034SOL     OW 8934   7.935   8.119  14.218
69034SOL    HW1 8935   7.963   8.150  14.132
69034SOL    HW2 8936   7.971   8.183  14.280
69035SOL     OW 8937   8.041   9.165   6.348
69035SOL    HW1 8938   8.027   9.206   6.262
69035SOL    HW2 8939   7.991   9.084   6.344
69036SOL     OW 8940   3.742  11.731  14.819
69036SOL    HW1 8941   3.696  11.647  14.828
69036SOL    HW2 8942   3.834  11.707  14.809
69037SOL     OW 8943   8.642   0.059   1.100
69037SOL    HW1 8944   8.570   0.106   1.058
69037SOL    HW2 8945   8.633   0.080   1.193
69038SOL     OW 8946   5.119   6.412   0.734
69038SOL    HW1 8947   5.108   6.507   0.742
69038SOL    HW2 8948   5.187   6.402   0.667
69039SOL     OW 8949  13.953   7.290  10.783
69039SOL    HW1 8950  13.942   7.366  10.840
69039SOL    HW2 8951  13.868   7.245  10.787
69040SOL     OW 8952   0.013  14.325   8.302
69040SOL    HW1 8953   0.064  14.347   8.224
69040SOL    HW2 8954   0.068  14.356   8.375
69041SOL     OW 8955   9.763   1.437   3.675
69041SOL    HW1 8956   9.848   1.424   3.718
69041SOL    HW2 8957   9.704   1.460   3.746
69042SOL     OW 8958   1.108   7.180   3.597
69042SOL    HW1 8959   1.193   7.199   3.637
69042SOL    HW2 8960   1.124   7.187   3.503
69043SOL     OW 8961  11.831   6.960   7.836
69043SOL    HW1 8962  11.882   6.999   7.766
69043SOL    HW2 8963  11.810   7.033   7.894
69044SOL     OW 8964  12.759   9.592  13.389
69044SOL    HW1 8965  12.789   9.557  13.472
69044SOL    HW2 8966  12.840   9.611  13.340
69045SOL     OW 8967  14.080   4.743   3.329
69045SOL    HW1 8968  14.149   4.752   3.263
69045SOL    HW2 8969  14.127   4.738   3.412
69046SOL     OW 8970   4.522   8.799   2.720
69046SOL    HW1 8971   4.593   8.863   2.730
69046SOL    HW2 8972   4.501   8.773   2.809
69047SOL     OW 8973  11.327   8.742  13.001
69047SOL    HW1 8974  11.304   8.824  13.044
69047SOL    HW2 8975  11.331   8.763  12.908
69048SOL     OW 8976  13.493   0.526  10.016
69048SOL    HW1 8977  13.405   0.540   9.980
69048SOL    HW2 8978  13.537   0.610  10.006
69049SOL     OW 8979   2.790  14.750   9.806
69049SOL    HW1 8980   2.764  14.660   9.785
69049SOL    HW2 8981   2.869  14.765   9.753
69050SOL     OW 8982  14.004   3.259  12.476
69050SOL    HW1 8983  14.062   3.221  12.543
69050SOL    HW2 8984  14.036   3.223  12.394
69051SOL     OW 8985   0.965   3.807   1.390
69051SOL    HW1 8986   0.908   3.776   1.461
69051SOL    HW2 8987   0.995   3.893   1.420
69052SOL     OW 8988   2.944   9.440   5.954
69052SOL    HW1 8989   2.854   9.427   5.925
69052SOL    HW2 8990   2.996   9.386   5.895
69053SOL     OW 8991   0.989   0.837  12.658
69053SOL    HW1 8992   0.957   0.765  12.712
69053SOL    HW2 8993   1.030   0.794  12.583
69054SOL     OW 8994   2.670   4.876   2.541
69054SOL    HW1 8995   2.764   4.894   2.548
69054SOL    HW2 8996   2.631   4.918   2.618
69055SOL     OW 8997   7.215  14.378   3.134
69055SOL    HW1 8998   7.274  14.444   3.099
69055SOL    HW2 8999   7.191  14.325   3.059
69056SOL     OW 9000  14.447   9.020  14.795
69056SOL    HW1 9001  14.467   8.930  14.821
69056SOL    HW2 9002  14.437   9.067  14.878
69057SOL     OW 9003   7.796   7.068  11.807
69057SOL    HW1 9004   7.785   7.046  11.715
69057SOL    HW2 9005   7.857   7.142  11.806
69058SOL     OW 9006   8.086  12.540   2.704
69058SOL    HW1 9007   8.123  12.457   2.733
69058SOL    HW2 9008   8.039  12.519   2.623
69059SOL     OW 9009  14.069   5.989  10.190
69059SOL    HW1 9010  14.094   6.053  10.124
69059SOL    HW2 9011  13.988   5.951  10.157
69060SOL     OW 9012  11.642   1.225   7.121
69060SOL    HW1 9013  11.561   1.222   7.173
69060SOL    HW2 9014  11.684   1.140   7.138
69061SOL     OW 9015   6.464   2.909  10.711
69061SOL    HW1 9016   6.474   2.976  10.645
69061SOL    HW2 9017   6.416   2.951  10.782
69062SOL     OW 9018   5.167   2.415   0.825
69062SOL    HW1 9019   5.138   2.503   0.800
69062SOL    HW2 9020   5.192   2.424   0.917
69063SOL     OW 9021  12.723   4.572   4.179
69063SOL    HW1 9022  12.726   4.583   4.084
69063SOL    HW2 9023  12.631   4.556   4.198
69064SOL     OW 9024  13.432   1.147   9.512
69064SOL    HW1 9025  13.386   1.067   9.485
69064SOL    HW2 9026  13.396   1.216   9.457
69065SOL     OW 9027  12.045  14.440   7.932
69065SOL    HW1 9028  12.020  14.451   8.024
69065SOL    HW2 9029  12.120  14.382   7.934
69066SOL     OW 9030   2.309   2.846   9.894
69066SOL    HW1 9031   2.362   2.781   9.940
69066SOL    HW2 9032   2.373   2.910   9.861
69067SOL     OW 9033   2.136   9.178  12.053
69067SOL    HW1 9034   2.079   9.138  11.987
69067SOL    HW2 9035   2.128   9.272  12.036
69068SOL     OW 9036   5.888   4.639   4.382
69068SOL    HW1 9037   5.840   4.581   4.441
69068SOL    HW2 9038   5.844   4.630   4.298
69069SOL     OW 9039  10.738   6.126  11.866
69069SOL    HW1 9040  10.695   6.117  11.951
69069SOL    HW2 9041  10.714   6.214  11.836
69070SOL     OW 9042  14.004  12.500  11.097
69070SOL    HW1 9043  14.005  12.540  11.184
69070SOL    HW2 9044  14.055  12.420  11.106
69071SOL     OW 9045   9.683   2.887   8.139
69071SOL    HW1 9046   9.613   2.821   8.131
69071SOL    HW2 9047   9.681   2.934   8.056
69072SOL     OW 9048   4.611   5.422  10.081
69072SOL    HW1 9049   4.574   5.443  10.167
69072SOL    HW2 9050   4.627   5.506  10.040
69073SOL     OW 9051   6.954  13.457  14.021
69073SOL    HW1 9052   6.954  13.515  14.096
69073SOL    HW2 9053   6.885  13.393  14.039
69074SOL     OW 9054   9.597   1.783   3.333
69074SOL    HW1 9055   9.625   1.875   3.331
69074SOL    HW2 9056   9.514   1.782   3.285
69075SOL     OW 9057   5.458  13.362  10.551
69075SOL    HW1 9058   5.463  13.368  10.647
69075SOL    HW2 9059   5.540  13.320  10.525
69076SOL     OW 9060  13.268   3.485   2.739
69076SOL    HW1 9061  13.187   3.476   2.790
69076SOL    HW2 9062  13.272   3.405   2.687
69077SOL     OW 9063   0.870   8.185   2.318
69077SOL    HW1 9064   0.962   8.161   2.333
69077SOL    HW2 9065   0.855   8.257   2.380
69078SOL     OW 9066   8.897   8.452   3.579
69078SOL    HW1 9067   8.834   8.518   3.551
69078SOL    HW2 9068   8.845   8.373   3.593
69079SOL     OW 9069   8.922  12.562   8.187
69079SOL    HW1 9070   9.008  12.522   8.199
69079SOL    HW2 9071   8.860  12.493   8.209
69080SOL     OW 9072   7.004   8.216  14.213
69080SOL    HW1 9073   7.018   8.301  14.173
69080SOL    HW2 9074   7.015   8.231  14.306
69081SOL     OW 9075   2.948  13.305   7.513
69081SOL    HW1 9076   2.863  13.327   7.552
69081SOL    HW2 9077   2.995  13.260   7.583
69082SOL     OW 9078  11.930  13.381   6.114
69082SOL    HW1 9079  11.960  13.469   6.089
69082SOL    HW2 9080  11.839  13.394   6.141
69083SOL     OW 9081   2.548   0.508   0.714
69083SOL    HW1 9082   2.590   0.472   0.636
69083SOL    HW2 9083   2.468   0.457   0.724
69084SOL     OW 9084   1.437   6.799  10.006
69084SOL    HW1 9085   1.517   6.803  10.058
69084SOL    HW2 9086   1.421   6.890   9.981
69085SOL     OW 9087   0.820  11.693   6.798
69085SOL    HW1 9088   0.771  11.737   6.867
69085SOL    HW2 9089   0.754  11.660   6.738
69086SOL     OW 9090   3.345   0.870  12.336
69086SOL    HW1 9091   3.323   0.779  12.321
69086SOL    HW2 9092   3.265   0.909  12.371
69087SOL     OW 9093   1.571  13.630   3.601
69087SOL    HW1 9094   1.539  13.654   3.514
69087SOL    HW2 9095   1.500  13.580   3.640
69088SOL     OW 9096   2.000   1.294   3.500
69088SOL    HW1 9097   1.950   1.271   3.578
69088SOL    HW2 9098   2.085   1.324   3.533
69089SOL     OW 9099   6.941   5.888   6.902
69089SOL    HW1 9100   7.033   5.886   6.925
69089SOL    HW2 9101   6.921   5.980   6.886
69090SOL     OW 9102  11.844   2.247   0.917
69090SOL    HW1 9103  11.816   2.243   0.826
69090SOL    HW2 9104  11.763   2.240   0.968
69091SOL     OW 9105   7.378  11.559   2.594
69091SOL    HW1 9106   7.468  11.541   2.617
69091SOL    HW2 9107   7.332  11.566   2.677
69092SOL     OW 9108   6.636   7.027   9.816
69092SOL    HW1 9109   6.619   6.960   9.882
69092SOL    HW2 9110   6.617   6.983   9.733
69093SOL     OW 9111  14.640  14.510   5.507
69093SOL    HW1 9112  14.594  14.540   5.429
69093SOL    HW2 9113  14.591  14.433   5.536
69094SOL     OW 9114   0.580   4.761   2.165
69094SOL    HW1 9115   0.592   4.830   2.230
69094SOL    HW2 9116   0.562   4.682   2.216
69095SOL     OW 9117   4.749   4.090   6.341
69095SOL    HW1 9118   4.836   4.087   6.301
69095SOL    HW2 9119   4.765   4.082   6.435
69096SOL     OW 9120   5.483   6.033  10.080
69096SOL    HW1 9121   5.404   6.002  10.037
69096SOL    HW2 9122   5.478   6.128  10.074
69097SOL     OW 9123   7.386   2.294   5.002
69097SOL    HW1 9124   7.307   2.337   5.033
69097SOL    HW2 9125   7.364   2.264   4.914
69098SOL     OW 9126  10.306   6.042  12.414
69098SOL    HW1 9127  10.358   6.078  12.342
69098SOL    HW2 9128  10.297   5.949  12.393
69099SOL     OW 9129  11.233  10.769   5.783
69099SOL    HW1 9130  11.152  10.750   5.831
69099SOL    HW2 9131  11.204  10.826   5.711
69100SOL     OW 9132  12.941  11.703   2.513
69100SOL    HW1 9133  12.949  11.639   2.584
69100SOL    HW2 9134  13.021  11.755   2.518
69101SOL     OW 9135   4.081  13.511  14.261
69101SOL    HW1 9136   4.168  13.525  14.223
69101SOL    HW2 9137   4.075  13.577  14.330
69102SOL     OW 9138  13.462   0.936   6.276
69102SOL    HW1 9139  13.396   0.866   6.280
69102SOL    HW2 9140  13.416   1.009   6.235
69103SOL     OW 9141   9.608  12.457   0.439
69103SOL    HW1 9142   9.651  12.389   0.491
69103SOL    HW2 9143   9.611  12.535   0.494
69104SOL     OW 9144  14.193   5.044   3.544
69104SOL    HW1 9145  14.101   5.067   3.556
69104SOL    HW2 9146  14.192   4.949   3.536
69105SOL     OW 9147   5.256   6.143  11.119
69105SOL    HW1 9148   5.234   6.067  11.065
69105SOL    HW2 9149   5.341   6.172  11.086
69106SOL     OW 9150  14.781  11.339   4.101
69106SOL    HW1 9151  14.752  11.396   4.173
69106SOL    HW2 9152  14.875  11.328   4.116
69107SOL     OW 9153   5.352   1.448  13.992
69107SOL    HW1 9154   5.317   1.521  14.043
69107SOL    HW2 9155   5.342   1.371  14.049
69108SOL     OW 9156   9.688  13.046   5.124
69108SOL    HW1 9157   9.768  13.010   5.162
69108SOL    HW2 9158   9.634  12.969   5.104
69109SOL     OW 9159   7.594   9.298  13.727
69109SOL    HW1 9160   7.667   9.331  13.780
69109SOL    HW2 9161   7.578   9.367  13.662
69110SOL     OW 9162  13.466   2.029   2.877
69110SOL    HW1 9163  13.530   1.959   2.890
69110SOL    HW2 9164  13.423   2.038   2.962
69111SOL     OW 9165   4.747   5.005   1.682
69111SOL    HW1 9166   4.742   5.031   1.590
69111SOL    HW2 9167   4.839   5.017   1.705
69112SOL     OW 9168  12.124   0.149   2.931
69112SOL    HW1 9169  12.070   0.108   2.998
69112SOL    HW2 9170  12.213   0.119   2.949
69113SOL     OW 9171   2.690   2.637   3.261
69113SOL    HW1 9172   2.674   2.732   3.255
69113SOL    HW2 9173   2.698   2.620   3.355
69114SOL     OW 9174   5.487  12.838   5.795
69114SOL    HW1 9175   5.571  12.858   5.835
69114SOL    HW2 9176   5.427  12.904   5.830
69115SOL     OW 9177  14.587   0.819   6.147
69115SOL    HW1 9178  14.553   0.862   6.069
69115SOL    HW2 9179  14.573   0.882   6.217
69116SOL     OW 9180   2.540   2.600  10.648
69116SOL    HW1 9181   2.493   2.591  10.566
69116SOL    HW2 9182   2.496   2.539  10.708
69117SOL     OW 9183  13.079   2.174   0.622
69117SOL    HW1 9184  13.059   2.162   0.715
69117SOL    HW2 9185  13.000   2.214   0.585
69118SOL     OW 9186  13.164   8.073   8.727
69118SOL    HW1 9187  13.171   8.055   8.821
69118SOL    HW2 9188  13.086   8.129   8.718
69119SOL     OW 9189   7.380  12.419   5.793
69119SOL    HW1 9190   7.310  12.382   5.739
69119SOL    HW2 9191   7.370  12.375   5.878
69120SOL     OW 9192   3.263  10.708   7.919
69120SOL    HW1 9193   3.350  10.744   7.902
69120SOL    HW2 9194   3.220  10.705   7.834
69121SOL     OW 9195   0.748   1.651  10.473
69121SOL    HW1 9196   0.730   1.675  10.564
69121SOL    HW2 9197   0.767   1.557  10.476
69122SOL     OW 9198   5.817  12.384   2.791
69122SOL    HW1 9199   5.759  12.456   2.815
69122SOL    HW2 9200   5.844  12.346   2.875
69123SOL     OW 9201  11.506  12.203  12.713
69123SOL    HW1 9202  11.583  12.254  12.688
69123SOL    HW2 9203  11.440  12.227  12.648
69124SOL     OW 9204   0.859   1.409  14.279
69124SOL    HW1 9205   0.932   1.435  14.223
69124SOL    HW2 9206   0.827   1.491  14.317
69125SOL     OW 9207   3.286   8.494   1.244
69125SOL    HW1 9208   3.336   8.562   1.199
69125SOL    HW2 9209   3.203   8.536   1.268
69126SOL     OW 9210   1.699   3.458  13.999
69126SOL    HW1 9211   1.650   3.462  14.080
69126SOL    HW2 9212   1.776   3.513  14.015
69127SOL     OW 9213   4.883   3.163  12.423
69127SOL    HW1 9214   4.963   3.173  12.475
69127SOL    HW2 9215   4.880   3.242  12.368
69128SOL     OW 9216  14.374   1.137  12.295
69128SOL    HW1 9217  14.302   1.192  12.324
69128SOL    HW2 9218  14.344   1.099  12.212
69129SOL     OW 9219   2.207  12.098   6.978
69129SOL    HW1 9220   2.286  12.053   6.947
69129SOL    HW2 9221   2.238  12.164   7.039
69130SOL     OW 9222  11.131   0.938   8.747
69130SOL    HW1 9223  11.157   1.029   8.760
69130SOL    HW2 9224  11.181   0.910   8.671
69131SOL     OW 9225   5.977   9.046   0.283
69131SOL    HW1 9226   5.945   9.135   0.300
69131SOL    HW2 9227   6.001   9.012   0.369
69132SOL     OW 9228   4.461   8.007  12.467
69132SOL    HW1 9229   4.404   7.930  12.470
69132SOL    HW2 9230   4.533   7.981  12.409
69133SOL     OW 9231   3.186   0.516   4.751
69133SOL    HW1 9232   3.229   0.473   4.825
69133SOL    HW2 9233   3.101   0.544   4.785
69134SOL     OW 9234  10.457  14.015  10.207
69134SOL    HW1 9235  10.485  14.021  10.299
69134SOL    HW2 9236  10.385  13.953  10.209
69135SOL     OW 9237   6.266   6.823   9.648
69135SOL    HW1 9238   6.212   6.847   9.573
69135SOL    HW2 9239   6.219   6.859   9.724
69136SOL     OW 9240  14.419  13.855   9.171
69136SOL    HW1 9241  14.457  13.798   9.239
69136SOL    HW2 9242  14.455  13.942   9.189
69137SOL     OW 9243   5.546  10.164   2.364
69137SOL    HW1 9244   5.625  10.212   2.386
69137SOL    HW2 9245   5.474  10.225   2.383
69138SOL     OW 9246   9.522  10.676  11.493
69138SOL    HW1 9247   9.590  10.715  11.438
69138SOL    HW2 9248   9.508  10.741  11.562
69139SOL     OW 9249  13.675   6.430   2.614
69139SOL    HW1 9250  13.672   6.338   2.640
69139SOL    HW2 9251  13.714   6.475   2.689
69140SOL     OW 9252   6.415   2.172  14.064
69140SOL    HW1 9253   6.457   2.099  14.109
69140SOL    HW2 9254   6.488   2.230  14.040
69141SOL     OW 9255   1.235   4.288  14.839
69141SOL    HW1 9256   1.324   4.323  14.850
69141SOL    HW2 9257   1.208   4.264   0.049
69142SOL     OW 9258  12.200   7.632   1.044
69142SOL    HW1 9259  12.135   7.593   1.104
69142SOL    HW2 9260  12.167   7.720   1.027
69143SOL     OW 9261   8.697   7.969   6.790
69143SOL    HW1 9262   8.655   7.970   6.876
69143SOL    HW2 9263   8.625   7.963   6.727
69144SOL     OW 9264   3.312  13.708   0.670
69144SOL    HW1 9265   3.363  13.755   0.737
69144SOL    HW2 9266   3.281  13.777   0.612
69145SOL     OW 9267  13.886   2.234  14.160
69145SOL    HW1 9268  13.934   2.238  14.243
69145SOL    HW2 9269  13.876   2.325  14.133
69146SOL     OW 9270  13.028   8.896   1.422
69146SOL    HW1 9271  13.028   8.895   1.326
69146SOL    HW2 9272  13.111   8.856   1.447
69147SOL     OW 9273  10.418   0.467   9.921
69147SOL    HW1 9274  10.457   0.518   9.850
69147SOL    HW2 9275  10.327   0.497   9.926
69148SOL     OW 9276   7.335   4.778   3.716
69148SOL    HW1 9277   7.382   4.696   3.701
69148SOL    HW2 9278   7.404   4.843   3.729
69149SOL     OW 9279   7.481   9.172   1.732
69149SOL    HW1 9280   7.446   9.200   1.647
69149SOL    HW2 9281   7.566   9.215   1.738
69150SOL     OW 9282   7.896   8.557   6.812
69150SOL    HW1 9283   7.803   8.535   6.808
69150SOL    HW2 9284   7.905   8.634   6.757
69151SOL     OW 9285   2.607  11.280   8.736
69151SOL    HW1 9286   2.696  11.314   8.737
69151SOL    HW2 9287   2.574  11.295   8.825
69152SOL     OW 9288  12.977   4.228   7.458
69152SOL    HW1 9289  12.891   4.196   7.430
69152SOL    HW2 9290  13.003   4.290   7.390
69153SOL     OW 9291  13.667  13.696   8.573
69153SOL    HW1 9292  13.587  13.722   8.528
69153SOL    HW2 9293  13.662  13.739   8.658
69154SOL     OW 9294   3.743   4.762  11.044
69154SOL    HW1 9295   3.803   4.825  11.082
69154SOL    HW2 9296   3.764   4.763  10.950
69155SOL     OW 9297   8.556   1.768   0.467
69155SOL    HW1 9298   8.499   1.832   0.510
69155SOL    HW2 9299   8.644   1.803   0.478
69156SOL     OW 9300   8.627   4.260   7.045
69156SOL    HW1 9301   8.625   4.318   7.121
69156SOL    HW2 9302   8.720   4.242   7.030
69157SOL     OW 9303  13.553   3.323  14.802
69157SOL    HW1 9304  13.510   3.239  14.822
69157SOL    HW2 9305  13.521   3.346  14.715
69158SOL     OW 9306  12.830   7.734   5.277
69158SOL    HW1 9307  12.915   7.707   5.243
69158SOL    HW2 9308  12.828   7.700   5.367
69159SOL     OW 9309   1.778  10.310   0.293
69159SOL    HW1 9310   1.702  10.265   0.329
69159SOL    HW2 9311   1.845  10.241   0.287
69160SOL     OW 9312   9.148   7.879   8.108
69160SOL    HW1 9313   9.102   7.956   8.140
69160SOL    HW2 9314   9.087   7.807   8.123
69161SOL     OW 9315  12.197   2.867   9.010
69161SOL    HW1 9316  12.181   2.804   8.940
69161SOL    HW2 9317  12.192   2.815   9.090
69162SOL     OW 9318   6.464   8.504   8.196
69162SOL    HW1 9319   6.507   8.582   8.164
69162SOL    HW2 9320   6.383   8.536   8.237
69163SOL     OW 9321   7.122   5.121   5.370
69163SOL    HW1 9322   7.064   5.076   5.309
69163SOL    HW2 9323   7.178   5.052   5.406
69164SOL     OW 9324  11.822  12.622   6.669
69164SOL    HW1 9325  11.796  12.711   6.691
69164SOL    HW2 9326  11.764  12.566   6.722
69165SOL     OW 9327   8.724   6.221  13.871
69165SOL    HW1 9328   8.750   6.257  13.956
69165SOL    HW2 9329   8.644   6.172  13.889
69166SOL     OW 9330  10.136   4.462   7.526
69166SOL    HW1 9331  10.178   4.377   7.513
69166SOL    HW2 9332  10.156   4.511   7.446
69167SOL     OW 9333   2.501   2.867  10.667
69167SOL    HW1 9334   2.550   2.787  10.648
69167SOL    HW2 9335   2.421   2.859  10.617
69168SOL     OW 9336  12.344  13.582   1.450
69168SOL    HW1 9337  12.358  13.613   1.361
69168SOL    HW2 9338  12.315  13.491   1.440
69169SOL     OW 9339  10.032  12.742   7.899
69169SOL    HW1 9340  10.069  12.657   7.922
69169SOL    HW2 9341  10.108  12.798   7.883
69170SOL     OW 9342  10.695  12.582   5.254
69170SOL    HW1 9343  10.683  12.521   5.327
69170SOL    HW2 9344  10.622  12.564   5.195
69171SOL     OW 9345  11.857  12.550   5.027
69171SOL    HW1 9346  11.796  12.560   5.100
69171SOL    HW2 9347  11.911  12.474   5.050
69172SOL     OW 9348  10.772   1.009  12.589
69172SOL    HW1 9349  10.838   0.946  12.618
69172SOL    HW2 9350  10.759   0.988  12.497
69173SOL     OW 9351   0.832   6.212   3.797
69173SOL    HW1 9352   0.792   6.297   3.814
69173SOL    HW2 9353   0.917   6.216   3.841
69174SOL     OW 9354   4.610  10.060  14.042
69174SOL    HW1 9355   4.696  10.085  14.010
69174SOL    HW2 9356   4.548  10.108  13.987
69175SOL     OW 9357   5.645   0.778   4.363
69175SOL    HW1 9358   5.593   0.830   4.302
69175SOL    HW2 9359   5.706   0.840   4.402
69176SOL     OW 9360   6.483   6.855   7.108
69176SOL    HW1 9361   6.442   6.773   7.082
69176SOL    HW2 9362   6.442   6.877   7.192
69177SOL     OW 9363   3.364  11.835  13.552
69177SOL    HW1 9364   3.407  11.893  13.490
69177SOL    HW2 9365   3.400  11.860  13.637
69178SOL     OW 9366   1.178   4.624   0.268
69178SOL    HW1 9367   1.089   4.637   0.233
69178SOL    HW2 9368   1.165   4.576   0.350
69179SOL     OW 9369   4.870   4.099   2.352
69179SOL    HW1 9370   4.811   4.026   2.367
69179SOL    HW2 9371   4.957   4.060   2.348
69180SOL     OW 9372   0.802   7.634   9.182
69180SOL    HW1 9373   0.730   7.687   9.217
69180SOL    HW2 9374   0.804   7.655   9.089
69181SOL     OW 9375  12.706  12.404   4.597
69181SOL    HW1 9376  12.630  12.348   4.608
69181SOL    HW2 9377  12.710  12.457   4.677
69182SOL     OW 9378   2.042   6.051  12.983
69182SOL    HW1 9379   1.961   6.023  13.024
69182SOL    HW2 9380   2.028   6.036  12.890
69183SOL     OW 9381  13.558  10.544  12.545
69183SOL    HW1 9382  13.629  10.482  12.525
69183SOL    HW2 9383  13.481  10.506  12.505
69184SOL     OW 9384   8.292   5.317  12.394
69184SOL    HW1 9385   8.226   5.324  12.326
69184SOL    HW2 9386   8.306   5.407  12.424
69185SOL     OW 9387   5.536  10.669   0.284
69185SOL    HW1 9388   5.531  10.628   0.198
69185SOL    HW2 9389   5.570  10.757   0.267
69186SOL     OW 9390   0.367   8.425  12.338
69186SOL    HW1 9391   0.391   8.431  12.431
69186SOL    HW2 9392   0.380   8.514  12.305
69187SOL     OW 9393   2.667   0.212  12.253
69187SOL    HW1 9394   2.641   0.177  12.168
69187SOL    HW2 9395   2.762   0.203  12.255
69188SOL     OW 9396   2.621   9.754  14.655
69188SOL    HW1 9397   2.551   9.815  14.631
69188SOL    HW2 9398   2.578   9.668  14.655
69189SOL     OW 9399   2.530   2.219   1.736
69189SOL    HW1 9400   2.448   2.177   1.709
69189SOL    HW2 9401   2.567   2.160   1.801
69190SOL     OW 9402  13.130  10.855   1.812
69190SOL    HW1 9403  13.037  10.844   1.832
69190SOL    HW2 9404  13.140  10.948   1.790
69191SOL     OW 9405   0.753   2.695  11.773
69191SOL    HW1 9406   0.808   2.618  11.790
69191SOL    HW2 9407   0.685   2.663  11.715
69192SOL     OW 9408   7.924  13.749  11.908
69192SOL    HW1 9409   7.828  13.751  11.904
69192SOL    HW2 9410   7.951  13.731  11.818
69193SOL     OW 9411   4.517  11.965   6.791
69193SOL    HW1 9412   4.497  12.049   6.750
69193SOL    HW2 9413   4.436  11.939   6.833
69194SOL     OW 9414   1.683   6.725  11.450
69194SOL    HW1 9415   1.720   6.799  11.403
69194SOL    HW2 9416   1.669   6.757  11.539
69195SOL     OW 9417   4.344   0.670  11.197
69195SOL    HW1 9418   4.332   0.581  11.231
69195SOL    HW2 9419   4.321   0.664  11.105
69196SOL     OW 9420   8.489  13.782   5.912
69196SOL    HW1 9421   8.550  13.853   5.891
69196SOL    HW2 9422   8.407  13.826   5.930
69197SOL     OW 9423  10.766   0.650  10.493
69197SOL    HW1 9424  10.778   0.701  10.413
69197SOL    HW2 9425  10.835   0.681  10.552
69198SOL     OW 9426   0.852   3.862   1.812
69198SOL    HW1 9427   0.801   3.885   1.890
69198SOL    HW2 9428   0.923   3.926   1.810
69199SOL     OW 9429  13.962   8.563   9.922
69199SOL    HW1 9430  14.053   8.533   9.920
69199SOL    HW2 9431  13.944   8.589   9.831
69200SOL     OW 9432   8.964  13.318   2.426
69200SOL    HW1 9433   8.890  13.362   2.468
69200SOL    HW2 9434   8.938  13.312   2.333
69201SOL     OW 9435   1.121   6.399  13.352
69201SOL    HW1 9436   1.199   6.402  13.296
69201SOL    HW2 9437   1.102   6.306  13.360
69202SOL     OW 9438  10.474   0.458  11.468
69202SOL    HW1 9439  10.509   0.515  11.536
69202SOL    HW2 9440  10.407   0.406  11.512
69203SOL     OW 9441  11.776  12.484   9.813
69203SOL    HW1 9442  11.869  12.485   9.838
69203SOL    HW2 9443  11.737  12.555   9.864
69204SOL     OW 9444  10.082   3.477   2.099
69204SOL    HW1 9445  10.016   3.415   2.129
69204SOL    HW2 9446  10.033   3.556   2.078
69205SOL     OW 9447   4.060   2.115   1.516
69205SOL    HW1 9448   4.135   2.116   1.575
69205SOL    HW2 9449   4.090   2.065   1.440
69206SOL     OW 9450   3.470  12.560   4.249
69206SOL    HW1 9451   3.409  12.525   4.314
69206SOL    HW2 9452   3.494  12.484   4.195
69207SOL     OW 9453  11.435  12.236   0.884
69207SOL    HW1 9454  11.420  12.206   0.973
69207SOL    HW2 9455  11.525  12.267   0.883
69208SOL     OW 9456   1.794   6.119   0.721
69208SOL    HW1 9457   1.726   6.171   0.678
69208SOL    HW2 9458   1.752   6.035   0.738
69209SOL     OW 9459   3.273  13.080  11.851
69209SOL    HW1 9460   3.317  13.103  11.933
69209SOL    HW2 9461   3.299  13.149  11.789
69210SOL     OW 9462  13.815   4.419   7.977
69210SOL    HW1 9463  13.745   4.353   7.977
69210SOL    HW2 9464  13.855   4.411   7.890
69211SOL     OW 9465   7.728  11.902  12.537
69211SOL    HW1 9466   7.783  11.879  12.612
69211SOL    HW2 9467   7.767  11.982  12.503
69212SOL     OW 9468   7.005   0.457   5.733
69212SOL    HW1 9469   7.025   0.414   5.650
69212SOL    HW2 9470   7.050   0.404   5.799
69213SOL     OW 9471   5.112  13.996   7.816
69213SOL    HW1 9472   5.129  13.987   7.722
69213SOL    HW2 9473   5.188  14.044   7.849
69214SOL     OW 9474   4.116   4.516   0.695
69214SOL    HW1 9475   4.168   4.524   0.616
69214SOL    HW2 9476   4.163   4.452   0.749
69215SOL     OW 9477   7.257   1.028  14.567
69215SOL    HW1 9478   7.232   1.110  14.610
69215SOL    HW2 9479   7.193   1.018  14.497
69216SOL     OW 9480   8.626   8.116  12.007
69216SOL    HW1 9481   8.718   8.125  11.982
69216SOL    HW2 9482   8.602   8.028  11.980
69217SOL     OW 9483  10.944   6.911   4.881
69217SOL    HW1 9484  10.877   6.910   4.812
69217SOL    HW2 9485  10.944   7.001   4.913
69218SOL     OW 9486  10.480   6.815  12.380
69218SOL    HW1 9487  10.412   6.747  12.378
69218SOL    HW2 9488  10.481   6.849  12.291
69219SOL     OW 9489   6.307   7.240   3.328
69219SOL    HW1 9490   6.286   7.166   3.385
69219SOL    HW2 9491   6.256   7.225   3.249
69220SOL     OW 9492  11.904  12.014   3.937
69220SOL    HW1 9493  11.918  12.106   3.962
69220SOL    HW2 9494  11.814  11.996   3.963
69221SOL     OW 9495  10.586   4.607   4.985
69221SOL    HW1 9496  10.669   4.654   4.996
69221SOL    HW2 9497  10.595   4.560   4.902
69222SOL     OW 9498   2.754   0.629   2.998
69222SOL    HW1 9499   2.719   0.690   3.063
69222SOL    HW2 9500   2.688   0.626   2.929
69223SOL     OW 9501  13.536  14.262   6.951
69223SOL    HW1 9502  13.553  14.280   7.043
69223SOL    HW2 9503  13.620  14.232   6.917
69224SOL     OW 9504   8.154  13.023   6.332
69224SOL    HW1 9505   8.213  13.098   6.322
69224SOL    HW2 9506   8.094  13.030   6.257
69225SOL     OW 9507   3.460   4.170   1.830
69225SOL    HW1 9508   3.423   4.227   1.763
69225SOL    HW2 9509   3.430   4.206   1.913
69226SOL     OW 9510  13.649  13.063  12.107
69226SOL    HW1 9511  13.583  13.078  12.039
69226SOL    HW2 9512  13.607  13.004  12.169
69227SOL     OW 9513   2.549   9.877   7.191
69227SOL    HW1 9514   2.564   9.964   7.154
69227SOL    HW2 9515   2.497   9.893   7.269
69228SOL     OW 9516   0.176   4.611   2.181
69228SOL    HW1 9517   0.157   4.666   2.257
69228SOL    HW2 9518   0.183   4.523   2.217
69229SOL     OW 9519   3.025   1.604   3.025
69229SOL    HW1 9520   3.084   1.538   2.988
69229SOL    HW2 9521   2.981   1.643   2.949
69230SOL     OW 9522   8.604   0.569   9.263
69230SOL    HW1 9523   8.603   0.485   9.218
69230SOL    HW2 9524   8.520   0.609   9.242
69231SOL     OW 9525   0.138  12.957   9.599
69231SOL    HW1 9526   0.059  12.975   9.548
69231SOL    HW2 9527   0.167  12.871   9.568
69232SOL     OW 9528  11.033  12.515   2.676
69232SOL    HW1 9529  11.031  12.492   2.769
69232SOL    HW2 9530  10.991  12.441   2.633
69233SOL     OW 9531   0.984   0.346   5.269
69233SOL    HW1 9532   0.927   0.384   5.336
69233SOL    HW2 9533   0.994   0.254   5.296
69234SOL     OW 9534   6.071   6.908   8.323
69234SOL    HW1 9535   6.035   6.929   8.410
69234SOL    HW2 9536   6.063   6.813   8.317
69235SOL     OW 9537  12.673  12.416   8.160
69235SOL    HW1 9538  12.709  12.377   8.239
69235SOL    HW2 9539  12.586  12.376   8.151
69236SOL     OW 9540   1.497   1.969  14.550
69236SOL    HW1 9541   1.539   1.969  14.636
69236SOL    HW2 9542   1.406   1.993  14.568
69237SOL     OW 9543   7.901   6.662  12.410
69237SOL    HW1 9544   7.818   6.703  12.385
69237SOL    HW2 9545   7.892   6.646  12.504
69238SOL     OW 9546  12.987   7.915   0.075
69238SOL    HW1 9547  13.045   7.980   0.115
69238SOL    HW2 9548  12.920   7.967   0.031
69239SOL     OW 9549   2.558   4.735   6.559
69239SOL    HW1 9550   2.550   4.806   6.495
69239SOL    HW2 9551   2.600   4.664   6.510
69240SOL     OW 9552  14.159   6.027  13.191
69240SOL    HW1 9553  14.229   6.007  13.129
69240SOL    HW2 9554  14.090   5.964  13.171
69241SOL     OW 9555  11.029   3.516  12.769
69241SOL    HW1 9556  11.085   3.440  12.787
69241SOL    HW2 9557  11.078   3.568  12.706
69242SOL     OW 9558  10.844  14.300   5.944
69242SOL    HW1 9559  10.909  14.365   5.917
69242SOL    HW2 9560  10.822  14.253   5.864
69243SOL     OW 9561   7.277  12.954   5.209
69243SOL    HW1 9562   7.322  12.874   5.237
69243SOL    HW2 9563   7.314  12.974   5.123
69244SOL     OW 9564   5.048   8.435   4.681
69244SOL    HW1 9565   5.080   8.372   4.747
69244SOL    HW2 9566   5.125   8.487   4.658
69245SOL     OW 9567  10.705   1.967  13.210
69245SOL    HW1 9568  10.750   2.051  13.217
69245SOL    HW2 9569  10.623   1.987  13.165
69246SOL     OW 9570   8.876   3.388   1.519
69246SOL    HW1 9571   8.795   3.339   1.509
69246SOL    HW2 9572   8.852   3.479   1.500
69247SOL     OW 9573   1.350  10.853  13.837
69247SOL    HW1 9574   1.379  10.842  13.746
69247SOL    HW2 9575   1.431  10.851  13.888
69248SOL     OW 9576   6.286  13.291  14.647
69248SOL    HW1 9577   6.251  13.204  14.627
69248SOL    HW2 9578   6.290  13.336  14.563
69249SOL     OW 9579  14.743  11.164   7.297
69249SOL    HW1 9580  14.662  11.145   7.343
69249SOL    HW2 9581  14.780  11.079   7.276
69250SOL     OW 9582   7.719  13.080  11.148
69250SOL    HW1 9583   7.728  12.987  11.125
69250SOL    HW2 9584   7.675  13.079  11.233
69251SOL     OW 9585   2.456  11.531  12.295
69251SOL    HW1 9586   2.361  11.538  12.293
69251SOL    HW2 9587   2.472  11.440  12.322
69252SOL     OW 9588   4.281   3.982   5.566
69252SOL    HW1 9589   4.244   4.070   5.581
69252SOL    HW2 9590   4.242   3.928   5.634
69253SOL     OW 9591   6.248  11.930   3.966
69253SOL    HW1 9592   6.187  11.996   3.999
69253SOL    HW2 9593   6.276  11.964   3.881
69254SOL     OW 9594   1.710   0.722   3.092
69254SOL    HW1 9595   1.725   0.757   3.004
69254SOL    HW2 9596   1.665   0.793   3.139
69255SOL     OW 9597  14.117   4.254   9.747
69255SOL    HW1 9598  14.150   4.182   9.800
69255SOL    HW2 9599  14.023   4.255   9.763
69256SOL     OW 9600   2.336  14.287   2.224
69256SOL    HW1 9601   2.264  14.305   2.164
69256SOL    HW2 9602   2.320  14.345   2.299
69257SOL     OW 9603  11.465   6.901   4.210
69257SOL    HW1 9604  11.479   6.959   4.134
69257SOL    HW2 9605  11.371   6.900   4.223
69258SOL     OW 9606  10.622  13.324   1.279
69258SOL    HW1 9607  10.541  13.366   1.309
69258SOL    HW2 9608  10.679  13.324   1.356
69259SOL     OW 9609  13.141   9.586  10.370
69259SOL    HW1 9610  13.145   9.627  10.283
69259SOL    HW2 9611  13.058   9.614  10.407
69260SOL     OW 9612   2.808   9.304   0.222
69260SOL    HW1 9613   2.881   9.247   0.198
69260SOL    HW2 9614   2.849   9.375   0.272
69261SOL     OW 9615   1.614   7.064   0.288
69261SOL    HW1 9616   1.609   7.150   0.330
69261SOL    HW2 9617   1.656   7.008   0.353
69262SOL     OW 9618   8.044   7.008  13.632
69262SOL    HW1 9619   7.974   7.072  13.644
69262SOL    HW2 9620   8.104   7.049  13.569
69263SOL     OW 9621  13.023  13.400  13.691
69263SOL    HW1 9622  12.971  13.374  13.767
69263SOL    HW2 9623  13.105  13.434  13.728
69264SOL     OW 9624   1.744  14.827   7.871
69264SOL    HW1 9625   1.707   0.008   7.937
69264SOL    HW2 9626   1.717  14.740   7.901
69265SOL     OW 9627   2.718   9.313   1.902
69265SOL    HW1 9628   2.813   9.320   1.899
69265SOL    HW2 9629   2.701   9.226   1.937
69266SOL     OW 9630   7.281   5.733   7.943
69266SOL    HW1 9631   7.305   5.825   7.927
69266SOL    HW2 9632   7.336   5.683   7.883
69267SOL     OW 9633   8.890   6.318   0.225
69267SOL    HW1 9634   8.819   6.381   0.238
69267SOL    HW2 9635   8.934   6.313   0.309
69268SOL     OW 9636   2.307   9.567  10.851
69268SOL    HW1 9637   2.301   9.626  10.927
69268SOL    HW2 9638   2.294   9.624  10.775
69269SOL     OW 9639   4.544   7.409  12.040
69269SOL    HW1 9640   4.605   7.410  12.113
69269SOL    HW2 9641   4.599   7.390  11.963
69270SOL     OW 9642   2.806   2.812   2.259
69270SOL    HW1 9643   2.828   2.721   2.240
69270SOL    HW2 9644   2.716   2.809   2.292
69271SOL     OW 9645   8.330   0.989  13.345
69271SOL    HW1 9646   8.425   0.991  13.329
69271SOL    HW2 9647   8.320   1.023  13.434
69272SOL     OW 9648   5.363   1.100   9.615
69272SOL    HW1 9649   5.310   1.157   9.670
69272SOL    HW2 9650   5.449   1.100   9.657
69273SOL     OW 9651   2.326   4.571  11.523
69273SOL    HW1 9652   2.406   4.559  11.573
69273SOL    HW2 9653   2.343   4.527  11.440
69274SOL     OW 9654   1.960   0.350   0.461
69274SOL    HW1 9655   1.979   0.425   0.405
69274SOL    HW2 9656   1.885   0.307   0.420
69275SOL     OW 9657   8.426  12.321   4.101
69275SOL    HW1 9658   8.409  12.254   4.035
69275SOL    HW2 9659   8.491  12.282   4.159
69276SOL     OW 9660   0.935   8.899   1.046
69276SOL    HW1 9661   0.944   8.805   1.036
69276SOL    HW2 9662   0.867   8.911   1.112
69277SOL     OW 9663   7.293  10.108   5.500
69277SOL    HW1 9664   7.363  10.084   5.439
69277SOL    HW2 9665   7.293  10.037   5.565
69278SOL     OW 9666  12.754   9.825   1.569
69278SOL    HW1 9667  12.750   9.774   1.489
69278SOL    HW2 9668  12.672   9.875   1.570
69279SOL     OW 9669   3.454  12.484   0.714
69279SOL    HW1 9670   3.445  12.394   0.682
69279SOL    HW2 9671   3.433  12.538   0.638
69280SOL     OW 9672  10.845   9.579   1.534
69280SOL    HW1 9673  10.857   9.671   1.559
69280SOL    HW2 9674  10.918   9.560   1.475
69281SOL     OW 9675  13.036  13.382   4.148
69281SOL    HW1 9676  13.123  13.383   4.107
69281SOL    HW2 9677  13.003  13.294   4.131
69282SOL     OW 9678   6.531   3.337   3.050
69282SOL    HW1 9679   6.471   3.291   3.109
69282SOL    HW2 9680   6.574   3.403   3.105
69283SOL     OW 9681   7.772  11.710  12.871
69283SOL    HW1 9682   7.814  11.792  12.898
69283SOL    HW2 9683   7.793  11.703  12.778
69284SOL     OW 9684   8.413  10.623   8.058
69284SOL    HW1 9685   8.444  10.536   8.080
69284SOL    HW2 9686   8.318  10.615   8.056
69285SOL     OW 9687   6.474  12.219  14.491
69285SOL    HW1 9688   6.452  12.265  14.572
69285SOL    HW2 9689   6.463  12.284  14.422
69286SOL     OW 9690   3.358  14.395   3.501
69286SOL    HW1 9691   3.355  14.356   3.413
69286SOL    HW2 9692   3.421  14.467   3.493
69287SOL     OW 9693   9.497   4.870   9.765
69287SOL    HW1 9694   9.433   4.804   9.794
69287SOL    HW2 9695   9.563   4.870   9.834
69288SOL     OW 9696   4.542   6.028  11.449
69288SOL    HW1 9697   4.452   6.000  11.440
69288SOL    HW2 9698   4.544   6.116  11.412
69289SOL     OW 9699   1.560   6.400   2.779
69289SOL    HW1 9700   1.552   6.321   2.725
69289SOL    HW2 9701   1.504   6.382   2.855
69290SOL     OW 9702   6.990   8.753  13.372
69290SOL    HW1 9703   6.901   8.790  13.372
69290SOL    HW2 9704   6.977   8.662  13.343
69291SOL     OW 9705   6.389  13.302  13.442
69291SOL    HW1 9706   6.364  13.233  13.503
69291SOL    HW2 9707   6.477  13.327  13.469
69292SOL     OW 9708   7.699   5.115   9.526
69292SOL    HW1 9709   7.668   5.130   9.616
69292SOL    HW2 9710   7.620   5.121   9.472
69293SOL     OW 9711   4.123   3.674   9.176
69293SOL    HW1 9712   4.063   3.620   9.228
69293SOL    HW2 9713   4.074   3.692   9.096
69294SOL     OW 9714   4.313   0.131   5.239
69294SOL    HW1 9715   4.230   0.174   5.260
69294SOL    HW2 9716   4.341   0.091   5.321
69295SOL     OW 9717  14.356   8.545   9.203
69295SOL    HW1 9718  14.343   8.450   9.207
69295SOL    HW2 9719  14.279   8.578   9.157
69296SOL     OW 9720   2.070  12.011   1.066
69296SOL    HW1 9721   2.107  11.963   1.140
69296SOL    HW2 9722   2.038  11.942   1.007
69297SOL     OW 9723  12.108   5.700   4.716
69297SOL    HW1 9724  12.098   5.613   4.680
69297SOL    HW2 9725  12.039   5.752   4.674
69298SOL     OW 9726   8.060   7.197   2.345
69298SOL    HW1 9727   8.032   7.288   2.339
69298SOL    HW2 9728   8.108   7.192   2.428
69299SOL     OW 9729  14.469   3.493   4.836
69299SOL    HW1 9730  14.454   3.400   4.853
69299SOL    HW2 9731  14.400   3.538   4.884
69300SOL     OW 9732   6.149  12.361  12.738
69300SOL    HW1 9733   6.214  12.348  12.807
69300SOL    HW2 9734   6.130  12.454  12.740
69301SOL     OW 9735  10.201   1.554  14.726
69301SOL    HW1 9736  10.250   1.613  14.668
69301SOL    HW2 9737  10.136   1.512  14.669
69302SOL     OW 9738   7.662   4.199  11.441
69302SOL    HW1 9739   7.698   4.262  11.379
69302SOL    HW2 9740   7.653   4.118  11.390
69303SOL     OW 9741  13.680   1.625   8.696
69303SOL    HW1 9742  13.757   1.616   8.754
69303SOL    HW2 9743  13.672   1.540   8.654
69304SOL     OW 9744  10.528   7.372  11.846
69304SOL    HW1 9745  10.520   7.453  11.896
69304SOL    HW2 9746  10.617   7.342  11.863
69305SOL     OW 9747   0.332   8.275   4.130
69305SOL    HW1 9748   0.243   8.310   4.139
69305SOL    HW2 9749   0.386   8.333   4.183
69306SOL     OW 9750   5.149  14.430   9.074
69306SOL    HW1 9751   5.206  14.422   8.997
69306SOL    HW2 9752   5.209  14.425   9.148
69307SOL     OW 9753   6.450   6.288  13.470
69307SOL    HW1 9754   6.514   6.329  13.412
69307SOL    HW2 9755   6.366   6.308  13.430
69308SOL     OW 9756   3.285   9.126  14.774
69308SOL    HW1 9757   3.224   9.200  14.769
69308SOL    HW2 9758   3.294   9.109  14.868
69309SOL     OW 9759   9.886   0.382   5.204
69309SOL    HW1 9760   9.803   0.393   5.158
69309SOL    HW2 9761   9.945   0.346   5.138
69310SOL     OW 9762   6.292   8.420  13.262
69310SOL    HW1 9763   6.284   8.337  13.215
69310SOL    HW2 9764   6.222   8.417  13.328
69311SOL     OW 9765   0.991  11.978   6.976
69311SOL    HW1 9766   1.033  11.892   6.969
69311SOL    HW2 9767   0.900  11.962   6.953
69312SOL     OW 9768  10.740   9.800   9.034
69312SOL    HW1 9769  10.808   9.757   8.983
69312SOL    HW2 9770  10.739   9.753   9.118
69313SOL     OW 9771   4.857   1.416   8.558
69313SOL    HW1 9772   4.923   1.410   8.489
69313SOL    HW2 9773   4.824   1.505   8.551
69314SOL     OW 9774   7.482   6.628  11.796
69314SOL    HW1 9775   7.553   6.651  11.736
69314SOL    HW2 9776   7.408   6.606  11.739
69315SOL     OW 9777   6.203   1.394   8.579
69315SOL    HW1 9778   6.178   1.487   8.580
69315SOL    HW2 9779   6.125   1.348   8.549
69316SOL     OW 9780  12.189   4.018   2.576
69316SOL    HW1 9781  12.266   3.990   2.528
69316SOL    HW2 9782  12.214   4.101   2.616
69317SOL     OW 9783  13.166   4.392  14.176
69317SOL    HW1 9784  13.202   4.421  14.260
69317SOL    HW2 9785  13.141   4.473  14.131
69318SOL     OW 9786  13.163   9.656   2.909
69318SOL    HW1 9787  13.212   9.617   2.836
69318SOL    HW2 9788  13.089   9.597   2.923
69319SOL     OW 9789  12.986   4.402   9.622
69319SOL    HW1 9790  13.018   4.471   9.680
69319SOL    HW2 9791  12.913   4.442   9.575
69320SOL     OW 9792   8.513   7.165  11.098
69320SOL    HW1 9793   8.455   7.089  11.087
69320SOL    HW2 9794   8.467   7.223  11.158
69321SOL     OW 9795   1.608   9.782  13.948
69321SOL    HW1 9796   1.639   9.691  13.952
69321SOL    HW2 9797   1.619   9.815  14.037
69322SOL     OW 9798  12.625   8.790  11.054
69322SOL    HW1 9799  12.711   8.833  11.057
69322SOL    HW2 9800  12.597   8.785  11.145
69323SOL     OW 9801   0.831  14.644  12.379
69323SOL    HW1 9802   0.885  14.666  12.303
69323SOL    HW2 9803   0.741  14.665  12.351
69324SOL     OW 9804   3.134   6.028   0.790
69324SOL    HW1 9805   3.080   6.029   0.870
69324SOL    HW2 9806   3.076   5.992   0.723
69325SOL     OW 9807  10.627   1.616   9.696
69325SOL    HW1 9808  10.540   1.654   9.689
69325SOL    HW2 9809  10.649   1.623   9.789
69326SOL     OW 9810   3.383   8.294   8.705
69326SOL    HW1 9811   3.405   8.375   8.657
69326SOL    HW2 9812   3.324   8.322   8.774
69327SOL     OW 9813   3.926   4.725  10.772
69327SOL    HW1 9814   3.932   4.753  10.680
69327SOL    HW2 9815   4.005   4.759  10.813
69328SOL     OW 9816  14.250   1.798   0.561
69328SOL    HW1 9817  14.215   1.742   0.492
69328SOL    HW2 9818  14.318   1.745   0.603
69329SOL     OW 9819   3.783  14.630   5.128
69329SOL    HW1 9820   3.852  14.643   5.064
69329SOL    HW2 9821   3.733  14.555   5.095
69330SOL     OW 9822   5.717   2.914   3.432
69330SOL    HW1 9823   5.723   2.996   3.384
69330SOL    HW2 9824   5.798   2.868   3.411
69331SOL     OW 9825  14.178  12.918   6.205
69331SOL    HW1 9826  14.113  12.879   6.148
69331SOL    HW2 9827  14.241  12.847   6.222
69332SOL     OW 9828   7.904  10.614   9.277
69332SOL    HW1 9829   7.937  10.586   9.191
69332SOL    HW2 9830   7.846  10.688   9.257
69333SOL     OW 9831  13.718   5.356  10.977
69333SOL    HW1 9832  13.677   5.433  10.940
69333SOL    HW2 9833  13.693   5.285  10.918
69334SOL     OW 9834   7.335   2.572  11.845
69334SOL    HW1 9835   7.279   2.622  11.904
69334SOL    HW2 9836   7.318   2.480  11.867
69335SOL     OW 9837   4.719   0.715   6.430
69335SOL    HW1 9838   4.745   0.747   6.516
69335SOL    HW2 9839   4.796   0.667   6.398
69336SOL     OW 9840   3.212   8.616  14.433
69336SOL    HW1 9841   3.176   8.535  14.398
69336SOL    HW2 9842   3.172   8.685  14.380
69337SOL     OW 9843   4.712  11.881   7.265
69337SOL    HW1 9844   4.745  11.949   7.207
69337SOL    HW2 9845   4.780  11.814   7.264
69338SOL     OW 9846  10.431   6.018   5.596
69338SOL    HW1 9847  10.402   5.942   5.546
69338SOL    HW2 9848  10.352   6.069   5.610
69339SOL     OW 9849   9.504   6.951   4.516
69339SOL    HW1 9850   9.593   6.984   4.524
69339SOL    HW2 9851   9.500   6.916   4.427
69340SOL     OW 9852   3.461  13.770   8.137
69340SOL    HW1 9853   3.469  13.676   8.149
69340SOL    HW2 9854   3.532  13.792   8.076
69341SOL     OW 9855   6.852  12.620   7.760
69341SOL    HW1 9856   6.855  12.599   7.666
69341SOL    HW2 9857   6.882  12.540   7.803
69342SOL     OW 9858  11.142   5.986  11.816
69342SOL    HW1 9859  11.048   5.985  11.798
69342SOL    HW2 9860  11.183   5.953  11.736
69343SOL     OW 9861  12.413  12.381   5.182
69343SOL    HW1 9862  12.378  12.428   5.106
69343SOL    HW2 9863  12.409  12.289   5.157
69344SOL     OW 9864  10.421   2.492   2.183
69344SOL    HW1 9865  10.353   2.447   2.133
69344SOL    HW2 9866  10.374   2.557   2.235
69345SOL     OW 9867  12.672   4.231   3.807
69345SOL    HW1 9868  12.752   4.183   3.786
69345SOL    HW2 9869  12.703   4.315   3.842
69346SOL     OW 9870  14.768   6.987  12.488
69346SOL    HW1 9871  14.819   7.005  12.567
69346SOL    HW2 9872  14.813   6.913  12.446
69347SOL     OW 9873   1.697   3.625   0.275
69347SOL    HW1 9874   1.773   3.655   0.325
69347SOL    HW2 9875   1.629   3.690   0.293
69348SOL     OW 9876   8.581   6.272   4.195
69348SOL    HW1 9877   8.603   6.196   4.248
69348SOL    HW2 9878   8.534   6.236   4.120
69349SOL     OW 9879   4.975   9.103  13.189
69349SOL    HW1 9880   5.051   9.045  13.191
69349SOL    HW2 9881   4.907   9.052  13.146
69350SOL     OW 9882   3.499   1.435  10.166
69350SOL    HW1 9883   3.594   1.437  10.173
69350SOL    HW2 9884   3.468   1.442  10.256
69351SOL     OW 9885  13.484  12.879  10.633
69351SOL    HW1 9886  13.460  12.790  10.658
69351SOL    HW2 9887  13.401  12.923  10.616
69352SOL     OW 9888   6.232   5.253   2.057
69352SOL    HW1 9889   6.222   5.206   2.140
69352SOL    HW2 9890   6.142   5.267   2.027
69353SOL     OW 9891  11.009  12.340   0.324
69353SOL    HW1 9892  10.921  12.324   0.359
69353SOL    HW2 9893  10.999  12.332   0.229
69354SOL     OW 9894  12.166  10.827   1.998
69354SOL    HW1 9895  12.085  10.778   1.993
69354SOL    HW2 9896  12.173  10.874   1.915
69355SOL     OW 9897   1.180   0.773   4.949
69355SOL    HW1 9898   1.234   0.710   4.995
69355SOL    HW2 9899   1.184   0.746   4.857
69356SOL     OW 9900   3.456  11.396  10.339
69356SOL    HW1 9901   3.538  11.393  10.289
69356SOL    HW2 9902   3.409  11.471  10.302
69357SOL     OW 9903  12.942   3.172  11.313
69357SOL    HW1 9904  13.031   3.154  11.343
69357SOL    HW2 9905  12.928   3.265  11.331
69358SOL     OW 9906  13.545  12.390  11.035
69358SOL    HW1 9907  13.453  12.372  11.015
69358SOL    HW2 9908  13.593  12.323  10.987
69359SOL     OW 9909  12.209   9.216   6.561
69359SOL    HW1 9910  12.292   9.186   6.523
69359SOL    HW2 9911  12.147   9.215   6.488
69360SOL     OW 9912   4.701   1.761   1.444
69360SOL    HW1 9913   4.793   1.780   1.427
69360SOL    HW2 9914   4.703   1.677   1.490
69361SOL     OW 9915   7.080   3.350  14.070
69361SOL    HW1 9916   7.135   3.315  14.000
69361SOL    HW2 9917   6.993   3.317  14.052
69362SOL     OW 9918   9.492  12.176   4.668
69362SOL    HW1 9919   9.526  12.192   4.756
69362SOL    HW2 9920   9.440  12.096   4.677
69363SOL     OW 9921   2.339   8.824   3.491
69363SOL    HW1 9922   2.377   8.912   3.495
69363SOL    HW2 9923   2.319   8.811   3.399
69364SOL     OW 9924  13.737  10.111  12.248
69364SOL    HW1 9925  13.793  10.034  12.236
69364SOL    HW2 9926  13.648  10.079  12.232
69365SOL     OW 9927  11.756   6.574   8.078
69365SOL    HW1 9928  11.695   6.507   8.109
69365SOL    HW2 9929  11.837   6.526   8.061
69366SOL     OW 9930   8.140   0.900  13.126
69366SOL    HW1 9931   8.221   0.918  13.174
69366SOL    HW2 9932   8.144   0.806  13.106
69367SOL     OW 9933   5.013   6.809   5.767
69367SOL    HW1 9934   5.033   6.716   5.777
69367SOL    HW2 9935   4.929   6.821   5.810
69368SOL     OW 9936   2.403   7.850   2.353
69368SOL    HW1 9937   2.363   7.789   2.292
69368SOL    HW2 9938   2.382   7.936   2.319
69369SOL     OW 9939   0.222   9.439   8.448
69369SOL    HW1 9940   0.174   9.511   8.489
69369SOL    HW2 9941   0.273   9.401   8.520
69370SOL     OW 9942  13.946   0.837   2.999
69370SOL    HW1 9943  13.952   0.747   2.967
69370SOL    HW2 9944  13.900   0.884   2.930
69371SOL     OW 9945   4.205  13.571   8.921
69371SOL    HW1 9946   4.282  13.606   8.967
69371SOL    HW2 9947   4.139  13.640   8.928
69372SOL     OW 9948   2.978   8.775   6.971
69372SOL    HW1 9949   3.070   8.800   6.961
69372SOL    HW2 9950   2.982   8.684   7.000
69373SOL     OW 9951  14.484   4.250   4.485
69373SOL    HW1 9952  14.393   4.245   4.515
69373SOL    HW2 9953  14.482   4.313   4.413
69374SOL     OW 9954  10.488   8.459   7.879
69374SOL    HW1 9955  10.520   8.426   7.795
69374SOL    HW2 9956  10.465   8.381   7.929
69375SOL     OW 9957   3.889  12.975  14.189
69375SOL    HW1 9958   3.977  12.956  14.222
69375SOL    HW2 9959   3.883  12.925  14.107
69376SOL     OW 9960   7.093   8.104   3.100
69376SOL    HW1 9961   7.143   8.036   3.056
69376SOL    HW2 9962   7.159   8.169   3.126
69377SOL     OW 9963   9.249   7.997  13.671
69377SOL    HW1 9964   9.155   7.995  13.653
69377SOL    HW2 9965   9.271   8.090  13.671
69378SOL     OW 9966  13.902  12.658   9.649
69378SOL    HW1 9967  13.945  12.616   9.575
69378SOL    HW2 9968  13.939  12.746   9.652
69379SOL     OW 9969   5.320   7.289  13.956
69379SOL    HW1 9970   5.278   7.327  14.034
69379SOL    HW2 9971   5.250   7.241  13.913
69380SOL     OW 9972  13.466   3.757   8.550
69380SOL    HW1 9973  13.403   3.710   8.495
69380SOL    HW2 9974  13.551   3.728   8.518
69381SOL     OW 9975  11.200   9.701   0.369
69381SOL    HW1 9976  11.150   9.698   0.288
69381SOL    HW2 9977  11.172   9.623   0.417
69382SOL     OW 9978   9.551   5.888   0.714
69382SOL    HW1 9979   9.604   5.810   0.695
69382SOL    HW2 9980   9.602   5.936   0.780
69383SOL     OW 9981  13.237  12.952  11.274
69383SOL    HW1 9982  13.273  12.922  11.190
69383SOL    HW2 9983  13.191  13.033  11.253
69384SOL     OW 9984   6.882  10.339   2.953
69384SOL    HW1 9985   6.842  10.291   2.880
69384SOL    HW2 9986   6.951  10.391   2.913
69385SOL     OW 9987   0.356  14.626  12.242
69385SOL    HW1 9988   0.348  14.544  12.193
69385SOL    HW2 9989   0.450  14.637  12.256
69386SOL     OW 9990   2.776   6.805   6.535
69386SOL    HW1 9991   2.822   6.889   6.542
69386SOL    HW2 9992   2.813   6.764   6.457
69387SOL     OW 9993  14.005   6.829   4.157
69387SOL    HW1 9994  14.038   6.872   4.077
69387SOL    HW2 9995  13.912   6.818   4.142
69388SOL     OW 9996   9.509   9.419  10.110
69388SOL    HW1 9997   9.446   9.460  10.051
69388SOL    HW2 9998   9.570   9.489  10.132
69389SOL     OW 9999  11.540   8.218   1.506
69389SOL    HW110000  11.600   8.279   1.550
69389SOL    HW210001  11.593   8.174   1.440
69390SOL     OW10002   8.323   5.571   3.483
69390SOL    HW110003   8.403   5.587   3.432
69390SOL    HW210004   8.262   5.640   3.454
69391SOL     OW10005   6.162   9.263  12.044
69391SOL    HW110006   6.245   9.238  12.084
69391SOL    HW210007   6.132   9.338  12.095
69392SOL     OW10008   4.803   9.182   1.955
69392SOL    HW110009   4.835   9.138   2.034
69392SOL    HW210010   4.743   9.249   1.988
69393SOL     OW10011   3.736  12.768  10.895
69393SOL    HW110012   3.735  12.767  10.991
69393SOL    HW210013   3.817  12.814  10.872
69394SOL     OW10014   6.375  12.072   2.177
69394SOL    HW110015   6.314  12.089   2.249
69394SOL    HW210016   6.369  12.150   2.122
69395SOL     OW10017   5.129  11.068  10.247
69395SOL    HW110018   5.034  11.056  10.243
69395SOL    HW210019   5.148  11.077  10.340
69396SOL     OW10020   8.826   9.625   2.306
69396SOL    HW110021   8.891   9.626   2.377
69396SOL    HW210022   8.743   9.606   2.350
69397SOL     OW10023   3.003  12.756  14.101
69397SOL    HW110024   3.030  12.808  14.025
69397SOL    HW210025   2.908  12.754  14.096
69398SOL     OW10026   9.786   6.872   2.330
69398SOL    HW110027   9.765   6.779   2.337
69398SOL    HW210028   9.703   6.914   2.305
69399SOL     OW10029   7.902   8.697  10.736
69399SOL    HW110030   7.849   8.622  10.764
69399SOL    HW210031   7.852   8.774  10.765
69400SOL     OW10032   9.169   6.731   0.558
69400SOL    HW110033   9.165   6.767   0.647
69400SOL    HW210034   9.105   6.782   0.508
69401SOL     OW10035  14.443  13.251   2.149
69401SOL    HW110036  14.462  13.157   2.152
69401SOL    HW210037  14.438  13.271   2.056
69402SOL     OW10038   9.479  12.647   1.404
69402SOL    HW110039   9.517  12.708   1.340
69402SOL    HW210040   9.459  12.703   1.480
69403SOL     OW10041  10.845   1.507   1.097
69403SOL    HW110042  10.853   1.598   1.070
69403SOL    HW210043  10.783   1.509   1.170
69404SOL     OW10044  12.982  13.135   1.699
69404SOL    HW110045  12.993  13.086   1.781
69404SOL    HW210046  12.963  13.068   1.633
69405SOL     OW10047  10.712   5.723   0.265
69405SOL    HW110048  10.649   5.737   0.194
69405SOL    HW210049  10.661   5.684   0.335
69406SOL     OW10050   4.797  10.922   3.090
69406SOL    HW110051   4.820  10.983   3.161
69406SOL    HW210052   4.863  10.937   3.023
69407SOL     OW10053   2.419  14.028  12.781
69407SOL    HW110054   2.433  14.122  12.793
69407SOL    HW210055   2.487  13.986  12.833
69408SOL     OW10056   7.340   2.542   3.087
69408SOL    HW110057   7.385   2.614   3.132
69408SOL    HW210058   7.410   2.480   3.066
69409SOL     OW10059   9.830  10.699   7.887
69409SOL    HW110060   9.767  10.630   7.867
69409SOL    HW210061   9.903  10.683   7.826
69410SOL     OW10062   7.949   2.845   8.892
69410SOL    HW110063   7.972   2.901   8.966
69410SOL    HW210064   7.958   2.756   8.925
69411SOL     OW10065   4.481   9.086   9.866
69411SOL    HW110066   4.508   9.087   9.774
69411SOL    HW210067   4.539   9.149   9.908
69412SOL     OW10068   6.286   9.624   4.330
69412SOL    HW110069   6.354   9.630   4.397
69412SOL    HW210070   6.258   9.533   4.332
69413SOL     OW10071   8.205   6.587   4.172
69413SOL    HW110072   8.161   6.504   4.188
69413SOL    HW210073   8.261   6.600   4.248
69414SOL     OW10074   9.064   1.655   5.686
69414SOL    HW110075   9.134   1.634   5.625
69414SOL    HW210076   9.065   1.751   5.691
69415SOL     OW10077   6.784   0.721   9.908
69415SOL    HW110078   6.878   0.732   9.923
69415SOL    HW210079   6.776   0.632   9.874
69416SOL     OW10080  13.501   7.095   8.109
69416SOL    HW110081  13.533   7.057   8.191
69416SOL    HW210082  13.579   7.105   8.055
69417SOL     OW10083   4.844   6.585   2.025
69417SOL    HW110084   4.909   6.655   2.031
69417SOL    HW210085   4.887   6.509   2.064
69418SOL     OW10086  10.283  13.962   4.195
69418SOL    HW110087  10.281  13.927   4.106
69418SOL    HW210088  10.259  13.887   4.250
69419SOL     OW10089  14.264   6.105  14.244
69419SOL    HW110090  14.289   6.014  14.258
69419SOL    HW210091  14.333   6.141  14.189
69420SOL     OW10092   8.744   7.978   5.268
69420SOL    HW110093   8.691   7.955   5.345
69420SOL    HW210094   8.830   8.000   5.305
69421SOL     OW10095   5.023  12.453  13.979
69421SOL    HW110096   5.111  12.426  13.956
69421SOL    HW210097   5.002  12.403  14.057
69422SOL     OW10098   7.857   6.197   4.583
69422SOL    HW110099   7.835   6.223   4.673
69422SOL    HW210100   7.816   6.264   4.528
69423SOL     OW10101  10.515   5.402   6.233
69423SOL    HW110102  10.423   5.423   6.250
69423SOL    HW210103  10.531   5.322   6.285
69424SOL     OW10104   9.401   1.641  13.180
69424SOL    HW110105   9.328   1.649  13.118
69424SOL    HW210106   9.362   1.665  13.264
69425SOL     OW10107   4.091   1.026   6.010
69425SOL    HW110108   4.136   1.021   6.094
69425SOL    HW210109   4.141   0.967   5.953
69426SOL     OW10110  11.449  10.269  11.256
69426SOL    HW110111  11.429  10.270  11.349
69426SOL    HW210112  11.495  10.187  11.242
69427SOL     OW10113  14.163   4.954   7.683
69427SOL    HW110114  14.186   4.981   7.594
69427SOL    HW210115  14.244   4.917   7.718
69428SOL     OW10116  14.294   5.590  13.060
69428SOL    HW110117  14.299   5.685  13.050
69428SOL    HW210118  14.272   5.576  13.152
69429SOL     OW10119  14.646  12.331  12.302
69429SOL    HW110120  14.583  12.378  12.357
69429SOL    HW210121  14.717  12.306  12.362
69430SOL     OW10122  13.436  13.132  10.420
69430SOL    HW110123  13.368  13.133  10.487
69430SOL    HW210124  13.493  13.206  10.442
69431SOL     OW10125  10.876  13.537  11.745
69431SOL    HW110126  10.856  13.570  11.833
69431SOL    HW210127  10.873  13.615  11.689
69432SOL     OW10128   0.889   3.408   9.425
69432SOL    HW110129   0.884   3.351   9.349
69432SOL    HW210130   0.862   3.354   9.499
69433SOL     OW10131  10.463   1.671   9.088
69433SOL    HW110132  10.428   1.587   9.117
69433SOL    HW210133  10.557   1.656   9.077
69434SOL     OW10134   8.708   5.713   6.744
69434SOL    HW110135   8.685   5.697   6.835
69434SOL    HW210136   8.627   5.697   6.696
69435SOL     OW10137  10.032   3.342  13.216
69435SOL    HW110138  10.053   3.308  13.303
69435SOL    HW210139   9.965   3.282  13.182
69436SOL     OW10140   7.284  14.085   2.225
69436SOL    HW110141   7.207  14.067   2.171
69436SOL    HW210142   7.332  14.003   2.225
69437SOL     OW10143  12.702  13.006  14.632
69437SOL    HW110144  12.649  12.963  14.700
69437SOL    HW210145  12.729  12.934  14.574
69438SOL     OW10146  10.755   2.267  12.916
69438SOL    HW110147  10.769   2.175  12.896
69438SOL    HW210148  10.751   2.310  12.830
69439SOL     OW10149  12.218   2.227  14.324
69439SOL    HW110150  12.279   2.187  14.385
69439SOL    HW210151  12.151   2.161  14.309
69440SOL     OW10152   1.405   8.444  14.684
69440SOL    HW110153   1.419   8.415  14.774
69440SOL    HW210154   1.424   8.537  14.686
69441SOL     OW10155   8.885   5.083   1.027
69441SOL    HW110156   8.970   5.127   1.016
69441SOL    HW210157   8.890   5.041   1.112
69442SOL     OW10158   3.893   7.408   5.377
69442SOL    HW110159   3.958   7.465   5.337
69442SOL    HW210160   3.858   7.460   5.449
69443SOL     OW10161   3.534   9.016  12.791
69443SOL    HW110162   3.593   9.077  12.835
69443SOL    HW210163   3.520   9.054  12.704
69444SOL     OW10164  13.878  14.165  12.752
69444SOL    HW110165  13.837  14.203  12.829
69444SOL    HW210166  13.968  14.200  12.753
69445SOL     OW10167  10.331   1.249   4.841
69445SOL    HW110168  10.361   1.211   4.924
69445SOL    HW210169  10.240   1.274   4.858
69446SOL     OW10170   7.400   7.842   5.247
69446SOL    HW110171   7.479   7.892   5.226
69446SOL    HW210172   7.339   7.907   5.282
69447SOL     OW10173  12.019   3.125   1.491
69447SOL    HW110174  12.047   3.035   1.506
69447SOL    HW210175  12.080   3.178   1.541
69448SOL     OW10176   5.569   3.143   4.125
69448SOL    HW110177   5.577   3.062   4.074
69448SOL    HW210178   5.641   3.198   4.093
69449SOL     OW10179  10.259  10.111   0.177
69449SOL    HW110180  10.223  10.198   0.162
69449SOL    HW210181  10.188  10.062   0.218
69450SOL     OW10182   5.286   9.957   9.718
69450SOL    HW110183   5.367   9.976   9.766
69450SOL    HW210184   5.313   9.959   9.626
69451SOL     OW10185   5.318  13.803   9.288
69451SOL    HW110186   5.365  13.724   9.317
69451SOL    HW210187   5.249  13.770   9.230
69452SOL     OW10188  12.202  10.064   7.654
69452SOL    HW110189  12.131  10.009   7.622
69452SOL    HW210190  12.158  10.135   7.700
69453SOL     OW10191   6.231   8.724  12.059
69453SOL    HW110192   6.299   8.661  12.035
69453SOL    HW210193   6.269   8.810  12.040
69454SOL     OW10194   9.375  12.500   7.174
69454SOL    HW110195   9.349  12.499   7.082
69454SOL    HW210196   9.297  12.529   7.221
69455SOL     OW10197  12.322   1.431   4.711
69455SOL    HW110198  12.366   1.512   4.735
69455SOL    HW210199  12.242   1.430   4.764
69456SOL     OW10200  12.290   1.057  13.608
69456SOL    HW110201  12.304   1.143  13.646
69456SOL    HW210202  12.256   1.075  13.520
69457SOL     OW10203   8.294  13.712   5.010
69457SOL    HW110204   8.216  13.673   5.050
69457SOL    HW210205   8.285  13.806   5.026
69458SOL     OW10206   6.349   6.613   7.269
69458SOL    HW110207   6.420   6.632   7.331
69458SOL    HW210208   6.275   6.588   7.325
69459SOL     OW10209   8.127   6.314  14.535
69459SOL    HW110210   8.120   6.402  14.497
69459SOL    HW210211   8.204   6.277  14.493
69460SOL     OW10212   0.571   6.796   5.579
69460SOL    HW110213   0.614   6.818   5.661
69460SOL    HW210214   0.580   6.875   5.525
69461SOL     OW10215   7.976   0.833   4.395
69461SOL    HW110216   7.881   0.844   4.384
69461SOL    HW210217   7.988   0.739   4.404
69462SOL     OW10218   1.594  13.934   4.815
69462SOL    HW110219   1.643  13.889   4.884
69462SOL    HW210220   1.624  13.893   4.734
69463SOL     OW10221   3.372  12.211  13.885
69463SOL    HW110222   3.399  12.126  13.851
69463SOL    HW210223   3.388  12.272  13.813
69464SOL     OW10224  13.534   5.452   4.392
69464SOL    HW110225  13.442   5.470   4.412
69464SOL    HW210226  13.539   5.357   4.383
69465SOL     OW10227   7.121  11.410   3.833
69465SOL    HW110228   7.156  11.475   3.894
69465SOL    HW210229   7.180  11.411   3.759
69466SOL     OW10230  13.176   9.393  13.666
69466SOL    HW110231  13.234   9.453  13.713
69466SOL    HW210232  13.207   9.396  13.575
69467SOL     OW10233  11.114  13.443   3.441
69467SOL    HW110234  11.180  13.443   3.371
69467SOL    HW210235  11.119  13.355   3.479
69468SOL     OW10236   4.669   1.547  10.807
69468SOL    HW110237   4.637   1.464  10.772
69468SOL    HW210238   4.650   1.543  10.901
69469SOL     OW10239   2.192  12.109  12.262
69469SOL    HW110240   2.215  12.103  12.169
69469SOL    HW210241   2.276  12.114  12.307
69470SOL     OW10242   7.830  13.833   2.193
69470SOL    HW110243   7.807  13.814   2.284
69470SOL    HW210244   7.841  13.747   2.153
69471SOL     OW10245   0.171   1.583   5.537
69471SOL    HW110246   0.254   1.550   5.572
69471SOL    HW210247   0.110   1.510   5.550
69472SOL     OW10248   8.685   7.178   6.297
69472SOL    HW110249   8.720   7.245   6.238
69472SOL    HW210250   8.747   7.174   6.369
69473SOL     OW10251   3.443  14.568  13.398
69473SOL    HW110252   3.388  14.499  13.435
69473SOL    HW210253   3.455  14.630  13.470
69474SOL     OW10254  14.130   2.700  11.342
69474SOL    HW110255  14.061   2.734  11.286
69474SOL    HW210256  14.089   2.689  11.428
69475SOL     OW10257  12.005   1.236   8.696
69475SOL    HW110258  12.048   1.160   8.737
69475SOL    HW210259  12.076   1.281   8.650
69476SOL     OW10260   1.986   7.618   7.607
69476SOL    HW110261   1.934   7.668   7.544
69476SOL    HW210262   1.946   7.531   7.607
69477SOL     OW10263   6.593   9.960  10.033
69477SOL    HW110264   6.587   9.875   9.989
69477SOL    HW210265   6.525  10.014   9.993
69478SOL     OW10266   4.569   0.408  12.483
69478SOL    HW110267   4.485   0.366  12.467
69478SOL    HW210268   4.624   0.381  12.409
69479SOL     OW10269   4.214   1.419   2.450
69479SOL    HW110270   4.195   1.488   2.513
69479SOL    HW210271   4.300   1.442   2.414
69480SOL     OW10272  12.026  11.584  10.040
69480SOL    HW110273  12.079  11.510  10.012
69480SOL    HW210274  11.937  11.549  10.045
69481SOL     OW10275   0.989  14.592   7.004
69481SOL    HW110276   0.952  14.568   6.919
69481SOL    HW210277   1.069  14.540   7.010
69482SOL     OW10278   5.503   5.658  12.530
69482SOL    HW110279   5.458   5.734  12.492
69482SOL    HW210280   5.535   5.609  12.454
69483SOL     OW10281   2.060   7.279  12.241
69483SOL    HW110282   2.085   7.362  12.282
69483SOL    HW210283   2.094   7.212  12.300
69484SOL     OW10284   0.129   3.804   3.108
69484SOL    HW110285   0.055   3.828   3.164
69484SOL    HW210286   0.157   3.718   3.139
69485SOL     OW10287   0.994   9.375  13.132
69485SOL    HW110288   0.961   9.298  13.086
69485SOL    HW210289   1.038   9.427  13.064
69486SOL     OW10290  13.417   1.667  13.242
69486SOL    HW110291  13.435   1.754  13.206
69486SOL    HW210292  13.484   1.655  13.310
69487SOL     OW10293   8.252   4.305   5.814
69487SOL    HW110294   8.220   4.222   5.777
69487SOL    HW210295   8.290   4.352   5.740
69488SOL     OW10296  10.106   9.902   5.662
69488SOL    HW110297  10.165   9.976   5.679
69488SOL    HW210298  10.044   9.936   5.598
69489SOL     OW10299  12.195   0.119   4.298
69489SOL    HW110300  12.132   0.049   4.313
69489SOL    HW210301  12.259   0.081   4.238
69490SOL     OW10302   3.264   6.289  12.195
69490SOL    HW110303   3.339   6.230  12.186
69490SOL    HW210304   3.291   6.369  12.150
69491SOL     OW10305  11.687  12.881   8.440
69491SOL    HW110306  11.688  12.911   8.531
69491SOL    HW210307  11.671  12.787   8.446
69492SOL     OW10308  13.170  13.353  14.517
69492SOL    HW110309  13.213  13.371  14.433
69492SOL    HW210310  13.086  13.314  14.492
69493SOL     OW10311   7.619   4.117  10.198
69493SOL    HW110312   7.529   4.091  10.213
69493SOL    HW210313   7.671   4.057  10.251
69494SOL     OW10314   2.149   4.806   6.816
69494SOL    HW110315   2.179   4.892   6.789
69494SOL    HW210316   2.208   4.780   6.887
69495SOL     OW10317  12.440   2.052   1.058
69495SOL    HW110318  12.413   2.064   1.149
69495SOL    HW210319  12.359   2.030   1.012
69496SOL     OW10320   2.728   0.381   5.587
69496SOL    HW110321   2.717   0.330   5.667
69496SOL    HW210322   2.734   0.316   5.517
69497SOL     OW10323  12.530  14.219   6.830
69497SOL    HW110324  12.536  14.312   6.808
69497SOL    HW210325  12.602  14.204   6.891
69498SOL     OW10326  13.790  14.078   2.993
69498SOL    HW110327  13.745  14.118   3.067
69498SOL    HW210328  13.829  13.998   3.028
69499SOL     OW10329   8.495   1.867  11.208
69499SOL    HW110330   8.486   1.928  11.281
69499SOL    HW210331   8.511   1.782  11.249
69500SOL     OW10332   2.516   0.841   2.633
69500SOL    HW110333   2.563   0.832   2.550
69500SOL    HW210334   2.522   0.754   2.674
69501SOL     OW10335  10.331  14.809   5.136
69501SOL    HW110336  10.426  14.799   5.129
69501SOL    HW210337  10.317  14.854   5.219
69502SOL     OW10338   2.974  11.655  13.187
69502SOL    HW110339   3.056  11.661  13.235
69502SOL    HW210340   2.937  11.743  13.192
69503SOL     OW10341   2.090   6.421  14.837
69503SOL    HW110342   2.091   6.472  14.756
69503SOL    HW210343   2.034   6.346  14.817
69504SOL     OW10344   9.975  13.935  14.632
69504SOL    HW110345   9.939  13.921  14.719
69504SOL    HW210346   9.980  14.030  14.623
69505SOL     OW10347  13.488  14.878   5.758
69505SOL    HW110348  13.488   0.009   5.663
69505SOL    HW210349  13.544  14.802   5.774
69506SOL     OW10350  10.225   4.440   2.255
69506SOL    HW110351  10.301   4.382   2.264
69506SOL    HW210352  10.162   4.389   2.204
69507SOL     OW10353   8.426  13.895   7.648
69507SOL    HW110354   8.494  13.958   7.673
69507SOL    HW210355   8.405  13.849   7.728
69508SOL     OW10356   8.434   2.255   7.284
69508SOL    HW110357   8.512   2.301   7.316
69508SOL    HW210358   8.459   2.162   7.285
69509SOL     OW10359   3.931   2.629   6.792
69509SOL    HW110360   4.021   2.618   6.821
69509SOL    HW210361   3.935   2.699   6.726
69510SOL     OW10362  11.000  14.333   8.182
69510SOL    HW110363  11.067  14.377   8.234
69510SOL    HW210364  11.013  14.365   8.093
69511SOL     OW10365   4.649   6.128   6.790
69511SOL    HW110366   4.584   6.174   6.736
69511SOL    HW210367   4.630   6.035   6.777
69512SOL     OW10368   8.113  12.187  14.820
69512SOL    HW110369   8.116  12.106  14.869
69512SOL    HW210370   8.058  12.168  14.744
69513SOL     OW10371   1.629   0.896  11.270
69513SOL    HW110372   1.665   0.983  11.254
69513SOL    HW210373   1.705   0.838  11.265
69514SOL     OW10374   1.566   9.470   5.298
69514SOL    HW110375   1.583   9.537   5.364
69514SOL    HW210376   1.490   9.421   5.332
69515SOL     OW10377  14.874   6.015  10.561
69515SOL    HW110378   0.085   6.024  10.532
69515SOL    HW210379  14.828   5.975  10.488
69516SOL     OW10380   3.884  10.185   4.370
69516SOL    HW110381   3.863  10.139   4.451
69516SOL    HW210382   3.929  10.120   4.317
69517SOL     OW10383   6.312  13.317  11.684
69517SOL    HW110384   6.353  13.403  11.693
69517SOL    HW210385   6.330  13.291  11.594
69518SOL     OW10386   0.427   5.031  12.174
69518SOL    HW110387   0.511   4.985  12.186
69518SOL    HW210388   0.366   4.986  12.232
69519SOL     OW10389  11.193   6.651   8.740
69519SOL    HW110390  11.191   6.737   8.782
69519SOL    HW210391  11.250   6.662   8.665
69520SOL     OW10392  10.272   7.083   2.417
69520SOL    HW110393  10.234   7.002   2.451
69520SOL    HW210394  10.334   7.111   2.485
69521SOL     OW10395   4.652   7.459   0.209
69521SOL    HW110396   4.605   7.527   0.257
69521SOL    HW210397   4.681   7.397   0.276
69522SOL     OW10398   8.951  12.913   4.528
69522SOL    HW110399   8.938  12.982   4.463
69522SOL    HW210400   9.045  12.894   4.524
69523SOL     OW10401  10.584  10.549   7.696
69523SOL    HW110402  10.599  10.585   7.608
69523SOL    HW210403  10.490  10.535   7.700
69524SOL     OW10404   3.653   1.362   9.652
69524SOL    HW110405   3.603   1.399   9.580
69524SOL    HW210406   3.744   1.384   9.632
69525SOL     OW10407   4.165   0.188   2.180
69525SOL    HW110408   4.176   0.098   2.148
69525SOL    HW210409   4.173   0.180   2.276
69526SOL     OW10410  11.873  12.569  10.452
69526SOL    HW110411  11.788  12.612  10.445
69526SOL    HW210412  11.871  12.501  10.385
69527SOL     OW10413  11.511  12.178  11.013
69527SOL    HW110414  11.495  12.094  10.970
69527SOL    HW210415  11.538  12.237  10.943
69528SOL     OW10416   6.995  13.427  11.985
69528SOL    HW110417   7.080  13.453  12.021
69528SOL    HW210418   6.932  13.449  12.054
69529SOL     OW10419  12.195   1.875   0.143
69529SOL    HW110420  12.274   1.853   0.094
69529SOL    HW210421  12.222   1.874   0.234
69530SOL     OW10422   3.741   8.460  12.153
69530SOL    HW110423   3.752   8.492  12.064
69530SOL    HW210424   3.829   8.435  12.181
69531SOL     OW10425  12.169  11.374   0.686
69531SOL    HW110426  12.157  11.422   0.767
69531SOL    HW210427  12.107  11.302   0.691
69532SOL     OW10428  10.471  14.489   6.337
69532SOL    HW110429  10.446  14.581   6.333
69532SOL    HW210430  10.431  14.450   6.259
69533SOL     OW10431   1.168  11.513   0.845
69533SOL    HW110432   1.153  11.441   0.906
69533SOL    HW210433   1.134  11.591   0.890
69534SOL     OW10434  10.459   9.721  14.805
69534SOL    HW110435  10.459   9.686  14.716
69534SOL    HW210436  10.368   9.713  14.833
69535SOL     OW10437   2.884  14.285   1.358
69535SOL    HW110438   2.939  14.286   1.436
69535SOL    HW210439   2.918  14.357   1.304
69536SOL     OW10440  14.593   0.141  11.856
69536SOL    HW110441  14.609   0.139  11.761
69536SOL    HW210442  14.511   0.189  11.866
69537SOL     OW10443   9.083   4.112  14.069
69537SOL    HW110444   9.116   4.155  14.147
69537SOL    HW210445   9.045   4.030  14.100
69538SOL     OW10446   7.739  12.037   6.015
69538SOL    HW110447   7.810  12.074   5.962
69538SOL    HW210448   7.673  12.106   6.018
69539SOL     OW10449  10.160   6.449  10.417
69539SOL    HW110450  10.124   6.536  10.436
69539SOL    HW210451  10.228   6.465  10.351
69540SOL     OW10452   6.037   5.136   0.398
69540SOL    HW110453   5.942   5.147   0.397
69540SOL    HW210454   6.072   5.224   0.412
69541SOL     OW10455  11.557   1.708  14.856
69541SOL    HW110456  11.620   1.660  14.801
69541SOL    HW210457  11.535   1.646   0.047
69542SOL     OW10458  12.102   0.129   1.445
69542SOL    HW110459  12.099   0.036   1.469
69542SOL    HW210460  12.065   0.132   1.357
69543SOL     OW10461   2.647  11.309  13.539
69543SOL    HW110462   2.614  11.265  13.617
69543SOL    HW210463   2.646  11.242  13.471
69544SOL     OW10464  14.262   3.785   6.246
69544SOL    HW110465  14.231   3.854   6.188
69544SOL    HW210466  14.291   3.715   6.187
69545SOL     OW10467  13.514   3.369   4.816
69545SOL    HW110468  13.586   3.326   4.771
69545SOL    HW210469  13.555   3.428   4.878
69546SOL     OW10470  12.774  13.259  13.644
69546SOL    HW110471  12.703  13.322  13.649
69546SOL    HW210472  12.847  13.308  13.605
69547SOL     OW10473   9.835   7.193   5.436
69547SOL    HW110474   9.858   7.237   5.355
69547SOL    HW210475   9.912   7.203   5.492
69548SOL     OW10476  12.886   3.589  10.219
69548SOL    HW110477  12.868   3.667  10.271
69548SOL    HW210478  12.902   3.520  10.284
69549SOL     OW10479   7.264   8.250  11.154
69549SOL    HW110480   7.277   8.324  11.215
69549SOL    HW210481   7.223   8.289  11.077
69550SOL     OW10482   3.629  10.858   1.655
69550SOL    HW110483   3.537  10.835   1.665
69550SOL    HW210484   3.631  10.916   1.578
69551SOL     OW10485  12.334   9.020  10.221
69551SOL    HW110486  12.293   8.952  10.166
69551SOL    HW210487  12.428   9.003  10.214
69552SOL     OW10488   6.108   6.920   9.850
69552SOL    HW110489   6.033   6.974   9.826
69552SOL    HW210490   6.134   6.951   9.936
69553SOL     OW10491   4.509   1.893   0.361
69553SOL    HW110492   4.566   1.855   0.429
69553SOL    HW210493   4.426   1.845   0.371
69554SOL     OW10494  14.009   7.000  10.644
69554SOL    HW110495  13.979   7.071  10.701
69554SOL    HW210496  13.933   6.979  10.590
69555SOL     OW10497   0.445  10.728   1.093
69555SOL    HW110498   0.356  10.763   1.089
69555SOL    HW210499   0.501  10.806   1.099
69556SOL     OW10500   6.590   7.408   7.299
69556SOL    HW110501   6.672   7.447   7.270
69556SOL    HW210502   6.541   7.481   7.336
69557SOL     OW10503  13.591  12.644   6.140
69557SOL    HW110504  13.600  12.617   6.231
69557SOL    HW210505  13.657  12.711   6.128
69558SOL     OW10506  12.934   6.087   2.676
69558SOL    HW110507  12.928   6.097   2.771
69558SOL    HW210508  13.020   6.046   2.662
69559SOL     OW10509   6.921   2.205  14.106
69559SOL    HW110510   6.959   2.257  14.177
69559SOL    HW210511   6.843   2.253  14.080
69560SOL     OW10512   4.407   7.181  13.861
69560SOL    HW110513   4.313   7.197  13.868
69560SOL    HW210514   4.423   7.109  13.922
69561SOL     OW10515   0.502  12.080  12.158
69561SOL    HW110516   0.410  12.062  12.142
69561SOL    HW210517   0.510  12.080  12.253
69562SOL     OW10518   5.530   9.862   8.007
69562SOL    HW110519   5.490   9.858   7.920
69562SOL    HW210520   5.565   9.775   8.022
69563SOL     OW10521   6.235   6.243  13.939
69563SOL    HW110522   6.258   6.218  13.850
69563SOL    HW210523   6.294   6.192  13.994
69564SOL     OW10524  13.356  11.097   5.159
69564SOL    HW110525  13.443  11.104   5.120
69564SOL    HW210526  13.296  11.119   5.087
69565SOL     OW10527   5.219  13.236  14.692
69565SOL    HW110528   5.219  13.207  14.600
69565SOL    HW210529   5.287  13.304  14.695
69566SOL     OW10530   7.774  13.391   8.364
69566SOL    HW110531   7.814  13.414   8.448
69566SOL    HW210532   7.814  13.451   8.301
69567SOL     OW10533   8.549   5.167   9.708
69567SOL    HW110534   8.564   5.095   9.647
69567SOL    HW210535   8.616   5.156   9.775
69568SOL     OW10536   8.070  14.305   8.760
69568SOL    HW110537   8.020  14.255   8.694
69568SOL    HW210538   8.106  14.379   8.711
69569SOL     OW10539   3.894  11.479   3.234
69569SOL    HW110540   3.937  11.455   3.152
69569SOL    HW210541   3.827  11.412   3.247
69570SOL     OW10542  14.116   5.774   1.612
69570SOL    HW110543  14.047   5.839   1.622
69570SOL    HW210544  14.115   5.723   1.693
69571SOL     OW10545   8.292  13.453   3.487
69571SOL    HW110546   8.365  13.408   3.442
69571SOL    HW210547   8.215  13.429   3.436
69572SOL     OW10548   9.885   4.618   9.797
69572SOL    HW110549   9.800   4.618   9.751
69572SOL    HW210550   9.878   4.690   9.859
69573SOL     OW10551   7.614  12.302  12.782
69573SOL    HW110552   7.587  12.235  12.720
69573SOL    HW210553   7.615  12.383  12.731
69574SOL     OW10554  12.625   4.767   9.731
69574SOL    HW110555  12.675   4.701   9.780
69574SOL    HW210556  12.542   4.774   9.777
69575SOL     OW10557  11.474  13.273  13.513
69575SOL    HW110558  11.532  13.277  13.588
69575SOL    HW210559  11.515  13.329  13.447
69576SOL     OW10560   3.329   0.090  12.305
69576SOL    HW110561   3.330   0.135  12.390
69576SOL    HW210562   3.365   0.004  12.323
69577SOL     OW10563  12.335   0.244   0.788
69577SOL    HW110564  12.405   0.214   0.730
69577SOL    HW210565  12.364   0.331   0.816
69578SOL     OW10566   2.815   4.135   3.460
69578SOL    HW110567   2.902   4.152   3.423
69578SOL    HW210568   2.823   4.157   3.553
69579SOL     OW10569   2.998   7.482   9.863
69579SOL    HW110570   3.030   7.535   9.936
69579SOL    HW210571   3.063   7.414   9.852
69580SOL     OW10572   6.762   8.083   8.125
69580SOL    HW110573   6.666   8.084   8.115
69580SOL    HW210574   6.788   7.996   8.094
69581SOL     OW10575   7.926   9.729  11.670
69581SOL    HW110576   7.952   9.695  11.756
69581SOL    HW210577   7.830   9.732  11.674
69582SOL     OW10578   7.850   5.517   8.067
69582SOL    HW110579   7.799   5.559   8.136
69582SOL    HW210580   7.845   5.423   8.087
69583SOL     OW10581   6.947   3.414  13.462
69583SOL    HW110582   7.010   3.463  13.407
69583SOL    HW210583   6.998   3.388  13.538
69584SOL     OW10584   4.126   0.824   1.716
69584SOL    HW110585   4.050   0.811   1.658
69584SOL    HW210586   4.087   0.842   1.802
69585SOL     OW10587   1.738  10.907   5.451
69585SOL    HW110588   1.712  10.819   5.423
69585SOL    HW210589   1.824  10.920   5.410
69586SOL     OW10590  11.000   4.915   0.052
69586SOL    HW110591  10.980   5.005   0.077
69586SOL    HW210592  10.961   4.861   0.121
69587SOL     OW10593  13.977   1.147   4.973
69587SOL    HW110594  14.034   1.212   5.013
69587SOL    HW210595  13.888   1.180   4.989
69588SOL     OW10596  13.892   4.632   0.966
69588SOL    HW110597  13.889   4.715   0.918
69588SOL    HW210598  13.971   4.637   1.018
69589SOL     OW10599   4.996   5.144   9.728
69589SOL    HW110600   5.031   5.232   9.712
69589SOL    HW210601   4.909   5.160   9.765
69590SOL     OW10602  12.125  14.157   1.469
69590SOL    HW110603  12.061  14.204   1.522
69590SOL    HW210604  12.201  14.147   1.527
69591SOL     OW10605  14.431   3.931  12.204
69591SOL    HW110606  14.368   3.958  12.271
69591SOL    HW210607  14.489   4.007  12.194
69592SOL     OW10608   6.798   3.639   0.167
69592SOL    HW110609   6.885   3.654   0.132
69592SOL    HW210610   6.775   3.722   0.210
69593SOL     OW10611  11.381   7.090   8.682
69593SOL    HW110612  11.418   7.173   8.652
69593SOL    HW210613  11.456   7.041   8.718
69594SOL     OW10614  11.454  13.264   1.555
69594SOL    HW110615  11.410  13.307   1.482
69594SOL    HW210616  11.436  13.320   1.631
69595SOL     OW10617   8.697  13.373   6.918
69595SOL    HW110618   8.747  13.442   6.874
69595SOL    HW210619   8.748  13.352   6.996
69596SOL     OW10620  11.489   7.228   5.671
69596SOL    HW110621  11.398   7.253   5.652
69596SOL    HW210622  11.523   7.196   5.587
69597SOL     OW10623  11.318  13.556  12.373
69597SOL    HW110624  11.267  13.606  12.437
69597SOL    HW210625  11.350  13.480  12.422
69598SOL     OW10626  14.001   0.840  13.391
69598SOL    HW110627  14.073   0.901  13.378
69598SOL    HW210628  13.962   0.830  13.304
69599SOL     OW10629   2.569  13.482   0.305
69599SOL    HW110630   2.493  13.539   0.314
69599SOL    HW210631   2.577  13.438   0.389
69600SOL     OW10632  13.323   1.498  14.165
69600SOL    HW110633  13.409   1.456  14.175
69600SOL    HW210634  13.312   1.507  14.071
69601SOL     OW10635   9.168   8.796  11.691
69601SOL    HW110636   9.198   8.876  11.648
69601SOL    HW210637   9.099   8.763  11.634
69602SOL     OW10638   2.697   1.320  11.175
69602SOL    HW110639   2.699   1.227  11.154
69602SOL    HW210640   2.683   1.364  11.091
69603SOL     OW10641   3.496   2.415  12.757
69603SOL    HW110642   3.573   2.358  12.753
69603SOL    HW210643   3.435   2.376  12.694
69604SOL     OW10644  12.592  11.740  14.328
69604SOL    HW110645  12.592  11.726  14.234
69604SOL    HW210646  12.528  11.677  14.361
69605SOL     OW10647   8.460   2.639   5.251
69605SOL    HW110648   8.549   2.629   5.284
69605SOL    HW210649   8.440   2.732   5.263
69606SOL     OW10650   6.726  14.009   8.233
69606SOL    HW110651   6.807  14.038   8.191
69606SOL    HW210652   6.661  14.073   8.204
69607SOL     OW10653   3.083   7.057   7.403
69607SOL    HW110654   3.090   7.006   7.322
69607SOL    HW210655   3.141   7.132   7.389
69608SOL     OW10656  12.443   9.259   9.953
69608SOL    HW110657  12.510   9.192   9.944
69608SOL    HW210658  12.412   9.250  10.043
69609SOL     OW10659  12.458  11.592   0.293
69609SOL    HW110660  12.524  11.525   0.308
69609SOL    HW210661  12.416  11.565   0.211
69610SOL     OW10662   9.940   6.058  14.085
69610SOL    HW110663  10.022   6.085  14.043
69610SOL    HW210664   9.871   6.086  14.024
69611SOL     OW10665   9.672   8.958   0.859
69611SOL    HW110666   9.661   8.956   0.954
69611SOL    HW210667   9.607   9.021   0.829
69612SOL     OW10668  11.896   6.747   7.634
69612SOL    HW110669  11.830   6.737   7.703
69612SOL    HW210670  11.849   6.725   7.553
69613SOL     OW10671  13.669   8.785   7.460
69613SOL    HW110672  13.751   8.737   7.475
69613SOL    HW210673  13.687   8.874   7.490
69614SOL     OW10674   1.393   3.591   9.634
69614SOL    HW110675   1.435   3.667   9.674
69614SOL    HW210676   1.299   3.610   9.640
69615SOL     OW10677  11.339   0.171  14.066
69615SOL    HW110678  11.255   0.217  14.067
69615SOL    HW210679  11.351   0.145  13.975
69616SOL     OW10680   7.042   8.893   4.917
69616SOL    HW110681   6.970   8.940   4.875
69616SOL    HW210682   7.116   8.954   4.914
69617SOL     OW10683   7.069   3.859  14.676
69617SOL    HW110684   6.976   3.872  14.695
69617SOL    HW210685   7.073   3.844  14.582
69618SOL     OW10686  14.458  11.928   2.991
69618SOL    HW110687  14.388  11.868   2.964
69618SOL    HW210688  14.525  11.917   2.924
69619SOL     OW10689   1.065  10.131   6.408
69619SOL    HW110690   1.078  10.225   6.418
69619SOL    HW210691   1.150  10.093   6.428
69620SOL     OW10692   1.121  13.768   5.073
69620SOL    HW110693   1.178  13.815   5.013
69620SOL    HW210694   1.139  13.676   5.055
69621SOL     OW10695  14.477  12.638   9.542
69621SOL    HW110696  14.569  12.655   9.559
69621SOL    HW210697  14.477  12.575   9.470
69622SOL     OW10698  12.001  13.512   4.718
69622SOL    HW110699  11.955  13.450   4.774
69622SOL    HW210700  11.988  13.477   4.629
69623SOL     OW10701   6.390   9.488  14.418
69623SOL    HW110702   6.387   9.513  14.325
69623SOL    HW210703   6.366   9.568  14.465
69624SOL     OW10704   0.689  12.171   4.365
69624SOL    HW110705   0.736  12.195   4.445
69624SOL    HW210706   0.691  12.075   4.364
69625SOL     OW10707   1.581  12.073  13.122
69625SOL    HW110708   1.664  12.043  13.086
69625SOL    HW210709   1.530  11.993  13.135
69626SOL     OW10710  12.641   9.223  10.879
69626SOL    HW110711  12.711   9.214  10.813
69626SOL    HW210712  12.600   9.307  10.858
69627SOL     OW10713   7.355  12.938   8.147
69627SOL    HW110714   7.437  12.986   8.140
69627SOL    HW210715   7.361  12.870   8.080
69628SOL     OW10716   4.507  11.566   9.056
69628SOL    HW110717   4.421  11.579   9.097
69628SOL    HW210718   4.488  11.548   8.964
69629SOL     OW10719   5.241   6.109   6.186
69629SOL    HW110720   5.221   6.091   6.278
69629SOL    HW210721   5.293   6.035   6.157
69630SOL     OW10722   7.892  10.462  11.211
69630SOL    HW110723   7.876  10.367  11.207
69630SOL    HW210724   7.966  10.470  11.271
69631SOL     OW10725   4.027  11.695  14.755
69631SOL    HW110726   4.122  11.685  14.763
69631SOL    HW210727   4.015  11.779  14.710
69632SOL     OW10728   8.725   3.905  10.340
69632SOL    HW110729   8.726   3.979  10.402
69632SOL    HW210730   8.693   3.831  10.392
69633SOL     OW10731   6.719   5.003  12.567
69633SOL    HW110732   6.705   4.966  12.480
69633SOL    HW210733   6.632   5.005  12.607
69634SOL     OW10734   2.801   4.839  14.000
69634SOL    HW110735   2.795   4.888  13.919
69634SOL    HW210736   2.894   4.841  14.023
69635SOL     OW10737  13.455  10.456   3.488
69635SOL    HW110738  13.394  10.382   3.490
69635SOL    HW210739  13.475  10.474   3.580
69636SOL     OW10740   1.474   5.380   1.242
69636SOL    HW110741   1.399   5.440   1.246
69636SOL    HW210742   1.536   5.424   1.184
69637SOL     OW10743  12.105  13.593   2.882
69637SOL    HW110744  12.059  13.517   2.847
69637SOL    HW210745  12.071  13.603   2.971
69638SOL     OW10746   9.884  11.016   8.390
69638SOL    HW110747   9.952  11.074   8.423
69638SOL    HW210748   9.879  10.946   8.454
69639SOL     OW10749   6.974   1.364   1.187
69639SOL    HW110750   7.033   1.367   1.262
69639SOL    HW210751   6.886   1.361   1.226
69640SOL     OW10752  10.760   4.808   0.199
69640SOL    HW110753  10.709   4.869   0.254
69640SOL    HW210754  10.716   4.724   0.210
69641SOL     OW10755  13.803   1.916   5.992
69641SOL    HW110756  13.856   1.932   5.913
69641SOL    HW210757  13.800   1.821   5.999
69642SOL     OW10758   0.174   3.877  10.199
69642SOL    HW110759   0.263   3.880  10.234
69642SOL    HW210760   0.123   3.928  10.261
69643SOL     OW10761   9.607   0.135   7.942
69643SOL    HW110762   9.638   0.148   8.032
69643SOL    HW210763   9.582   0.043   7.938
69644SOL     OW10764   2.432   7.538   6.443
69644SOL    HW110765   2.483   7.499   6.372
69644SOL    HW210766   2.471   7.500   6.523
69645SOL     OW10767   1.025  10.669   8.662
69645SOL    HW110768   1.027  10.714   8.578
69645SOL    HW210769   1.063  10.731   8.724
69646SOL     OW10770   1.321  10.108  10.501
69646SOL    HW110771   1.226  10.101  10.500
69646SOL    HW210772   1.342  10.152  10.583
69647SOL     OW10773  14.658   1.436   9.683
69647SOL    HW110774  14.710   1.416   9.606
69647SOL    HW210775  14.721   1.471   9.747
69648SOL     OW10776   9.241   3.493   7.280
69648SOL    HW110777   9.170   3.454   7.330
69648SOL    HW210778   9.227   3.587   7.286
69649SOL     OW10779   4.564  13.964  14.555
69649SOL    HW110780   4.633  13.960  14.488
69649SOL    HW210781   4.543  13.872  14.574
69650SOL     OW10782   2.022   0.474   2.800
69650SOL    HW110783   2.024   0.445   2.892
69650SOL    HW210784   2.041   0.568   2.804
69651SOL     OW10785   4.360   2.431  10.497
69651SOL    HW110786   4.441   2.433  10.547
69651SOL    HW210787   4.302   2.374  10.548
69652SOL     OW10788   0.758  11.679  10.174
69652SOL    HW110789   0.725  11.735  10.244
69652SOL    HW210790   0.692  11.610  10.167
69653SOL     OW10791   4.375  11.119  12.208
69653SOL    HW110792   4.409  11.065  12.136
69653SOL    HW210793   4.346  11.055  12.274
69654SOL     OW10794  12.394   3.448   0.154
69654SOL    HW110795  12.307   3.432   0.190
69654SOL    HW210796  12.409   3.375   0.095
69655SOL     OW10797  10.639   2.674  12.619
69655SOL    HW110798  10.570   2.669  12.553
69655SOL    HW210799  10.634   2.763  12.653
69656SOL     OW10800  12.228   1.371   0.207
69656SOL    HW110801  12.274   1.430   0.148
69656SOL    HW210802  12.284   1.366   0.285
69657SOL     OW10803   1.519  11.740   0.054
69657SOL    HW110804   1.581  11.697   0.113
69657SOL    HW210805   1.451  11.775   0.111
69658SOL     OW10806  10.698   6.238   8.460
69658SOL    HW110807  10.616   6.284   8.478
69658SOL    HW210808  10.747   6.297   8.402
69659SOL     OW10809   4.581   6.095   3.657
69659SOL    HW110810   4.675   6.094   3.675
69659SOL    HW210811   4.567   6.017   3.604
69660SOL     OW10812  14.485   1.383  10.952
69660SOL    HW110813  14.456   1.327  11.023
69660SOL    HW210814  14.410   1.440  10.934
69661SOL     OW10815   1.120  14.200   5.852
69661SOL    HW110816   1.115  14.288   5.889
69661SOL    HW210817   1.103  14.213   5.759
69662SOL     OW10818  11.854  11.714   5.787
69662SOL    HW110819  11.868  11.622   5.769
69662SOL    HW210820  11.784  11.716   5.852
69663SOL     OW10821   3.543   6.600   0.188
69663SOL    HW110822   3.583   6.531   0.135
69663SOL    HW210823   3.450   6.575   0.193
69664SOL     OW10824  13.825   4.460   6.756
69664SOL    HW110825  13.809   4.417   6.840
69664SOL    HW210826  13.909   4.426   6.727
69665SOL     OW10827   1.033   9.286   2.139
69665SOL    HW110828   1.050   9.245   2.224
69665SOL    HW210829   0.962   9.348   2.156
69666SOL     OW10830   6.385   1.387  13.034
69666SOL    HW110831   6.352   1.381  12.944
69666SOL    HW210832   6.399   1.296  13.060
69667SOL     OW10833  14.658   4.624   0.159
69667SOL    HW110834  14.677   4.708   0.200
69667SOL    HW210835  14.647   4.563   0.232
69668SOL     OW10836  11.185  14.773   5.403
69668SOL    HW110837  11.237  14.693   5.400
69668SOL    HW210838  11.236  14.832   5.459
69669SOL     OW10839  14.458  13.395  10.038
69669SOL    HW110840  14.450  13.475   9.986
69669SOL    HW210841  14.404  13.331   9.992
69670SOL     OW10842   9.678   7.100   8.986
69670SOL    HW110843   9.630   7.127   9.064
69670SOL    HW210844   9.701   7.183   8.942
69671SOL     OW10845  13.584   1.333   2.598
69671SOL    HW110846  13.615   1.335   2.689
69671SOL    HW210847  13.629   1.259   2.559
69672SOL     OW10848  11.468   7.902   2.058
69672SOL    HW110849  11.512   7.914   1.974
69672SOL    HW210850  11.396   7.842   2.039
69673SOL     OW10851   5.331   5.705  13.502
69673SOL    HW110852   5.256   5.753  13.536
69673SOL    HW210853   5.302   5.669  13.419
69674SOL     OW10854  11.070   2.107   2.333
69674SOL    HW110855  11.029   2.046   2.271
69674SOL    HW210856  11.129   2.160   2.279
69675SOL     OW10857  11.409   8.768   4.936
69675SOL    HW110858  11.459   8.710   4.994
69675SOL    HW210859  11.475   8.808   4.879
69676SOL     OW10860  12.616  13.528   2.576
69676SOL    HW110861  12.641  13.620   2.586
69676SOL    HW210862  12.624  13.491   2.664
69677SOL     OW10863   6.081  10.269   8.419
69677SOL    HW110864   6.132  10.190   8.404
69677SOL    HW210865   6.007  10.240   8.472
69678SOL     OW10866   6.895   2.710  14.082
69678SOL    HW110867   6.849   2.690  14.164
69678SOL    HW210868   6.833   2.766  14.034
69679SOL     OW10869   2.849   7.206   7.472
69679SOL    HW110870   2.890   7.145   7.410
69679SOL    HW210871   2.883   7.292   7.447
69680SOL     OW10872   4.040   1.615   6.921
69680SOL    HW110873   3.967   1.656   6.967
69680SOL    HW210874   3.999   1.548   6.866
69681SOL     OW10875   2.436  11.181   2.168
69681SOL    HW110876   2.468  11.118   2.231
69681SOL    HW210877   2.501  11.181   2.098
69682SOL     OW10878  14.432  13.293   4.418
69682SOL    HW110879  14.500  13.226   4.427
69682SOL    HW210880  14.467  13.370   4.461
69683SOL     OW10881   1.970   7.677   4.524
69683SOL    HW110882   2.027   7.722   4.461
69683SOL    HW210883   2.026   7.610   4.563
69684SOL     OW10884  12.990  11.762   8.447
69684SOL    HW110885  13.042  11.758   8.367
69684SOL    HW210886  12.899  11.766   8.417
69685SOL     OW10887  14.001  11.124   2.877
69685SOL    HW110888  13.959  11.047   2.837
69685SOL    HW210889  14.089  11.094   2.900
69686SOL     OW10890   4.695   3.003   9.801
69686SOL    HW110891   4.696   3.061   9.725
69686SOL    HW210892   4.700   3.063   9.876
69687SOL     OW10893   5.720   1.194   7.607
69687SOL    HW110894   5.739   1.120   7.665
69687SOL    HW210895   5.624   1.196   7.602
69688SOL     OW10896   5.672  10.393   2.186
69688SOL    HW110897   5.706  10.312   2.223
69688SOL    HW210898   5.722  10.462   2.229
69689SOL     OW10899   5.569   3.565   5.109
69689SOL    HW110900   5.482   3.582   5.073
69689SOL    HW210901   5.622   3.539   5.034
69690SOL     OW10902  14.706   3.234  13.039
69690SOL    HW110903  14.682   3.319  13.078
69690SOL    HW210904  14.801   3.230  13.046
69691SOL     OW10905  14.060   4.154  10.535
69691SOL    HW110906  14.033   4.065  10.560
69691SOL    HW210907  14.070   4.200  10.619
69692SOL     OW10908   3.210  12.072   2.795
69692SOL    HW110909   3.294  12.095   2.755
69692SOL    HW210910   3.147  12.078   2.723
69693SOL     OW10911   2.087  10.547  11.451
69693SOL    HW110912   2.169  10.572  11.491
69693SOL    HW210913   2.089  10.451  11.451
69694SOL     OW10914  10.565   3.375   0.154
69694SOL    HW110915  10.660   3.371   0.147
69694SOL    HW210916  10.536   3.284   0.148
69695SOL     OW10917   0.449   2.969   4.009
69695SOL    HW110918   0.516   2.918   3.963
69695SOL    HW210919   0.484   2.978   4.098
69696SOL     OW10920   8.997   9.881   1.256
69696SOL    HW110921   8.997   9.959   1.200
69696SOL    HW210922   8.934   9.901   1.325
69697SOL     OW10923  14.092   8.369   9.583
69697SOL    HW110924  14.065   8.307   9.651
69697SOL    HW210925  14.089   8.454   9.626
69698SOL     OW10926   9.028  10.764   0.652
69698SOL    HW110927   8.984  10.844   0.681
69698SOL    HW210928   9.023  10.766   0.557
69699SOL     OW10929  11.661  10.097   1.740
69699SOL    HW110930  11.733  10.080   1.801
69699SOL    HW210931  11.643  10.191   1.750
69700SOL     OW10932   2.787   5.250   6.246
69700SOL    HW110933   2.847   5.224   6.176
69700SOL    HW210934   2.837   5.312   6.299
69701SOL     OW10935   4.077   3.971  11.142
69701SOL    HW110936   4.076   4.033  11.069
69701SOL    HW210937   4.100   3.887  11.102
69702SOL     OW10938  11.314   6.955  14.362
69702SOL    HW110939  11.227   6.934  14.397
69702SOL    HW210940  11.368   6.966  14.440
69703SOL     OW10941  10.537   8.425  13.901
69703SOL    HW110942  10.526   8.360  13.832
69703SOL    HW210943  10.480   8.498  13.876
69704SOL     OW10944  13.671   9.052   9.907
69704SOL    HW110945  13.640   9.052   9.998
69704SOL    HW210946  13.749   8.998   9.908
69705SOL     OW10947   5.933  14.136   3.564
69705SOL    HW110948   5.855  14.189   3.584
69705SOL    HW210949   5.996  14.162   3.631
69706SOL     OW10950   1.178   9.884  10.754
69706SOL    HW110951   1.269   9.908  10.739
69706SOL    HW210952   1.135   9.901  10.670
69707SOL     OW10953  12.388   5.428   3.386
69707SOL    HW110954  12.374   5.337   3.410
69707SOL    HW210955  12.448   5.424   3.311
69708SOL     OW10956  11.160  10.319  12.661
69708SOL    HW110957  11.157  10.326  12.756
69708SOL    HW210958  11.249  10.288  12.642
69709SOL     OW10959   1.031  11.294   0.357
69709SOL    HW110960   1.058  11.247   0.278
69709SOL    HW210961   1.080  11.251   0.427
69710SOL     OW10962  14.398  11.781   5.826
69710SOL    HW110963  14.372  11.752   5.913
69710SOL    HW210964  14.440  11.705   5.787
69711SOL     OW10965   2.991   8.583   2.833
69711SOL    HW110966   2.990   8.678   2.820
69711SOL    HW210967   2.954   8.547   2.752
69712SOL     OW10968   6.004   8.828  14.267
69712SOL    HW110969   6.010   8.923  14.262
69712SOL    HW210970   5.940   8.804  14.201
69713SOL     OW10971   0.131  12.616   9.577
69713SOL    HW110972   0.188  12.605   9.501
69713SOL    HW210973   0.190  12.623   9.652
69714SOL     OW10974   9.590  11.958   3.906
69714SOL    HW110975   9.606  11.948   3.812
69714SOL    HW210976   9.498  11.937   3.917
69715SOL     OW10977  11.814  12.538   2.732
69715SOL    HW110978  11.784  12.617   2.778
69715SOL    HW210979  11.764  12.467   2.772
69716SOL     OW10980  13.314   2.077  10.344
69716SOL    HW110981  13.224   2.108  10.360
69716SOL    HW210982  13.302   1.994  10.297
69717SOL     OW10983   0.791   2.230  10.296
69717SOL    HW110984   0.838   2.167  10.351
69717SOL    HW210985   0.834   2.223  10.211
69718SOL     OW10986  12.088   6.412   7.709
69718SOL    HW110987  12.162   6.363   7.745
69718SOL    HW210988  12.060   6.361   7.633
69719SOL     OW10989  13.480   6.834   9.066
69719SOL    HW110990  13.462   6.847   8.973
69719SOL    HW210991  13.395   6.842   9.108
69720SOL     OW10992  12.893   2.492   2.778
69720SOL    HW110993  12.829   2.425   2.752
69720SOL    HW210994  12.949   2.448   2.842
69721SOL     OW10995   2.062  12.443   9.035
69721SOL    HW110996   2.053  12.489   9.119
69721SOL    HW210997   1.991  12.378   9.036
69722SOL     OW10998  13.879  12.315   0.497
69722SOL    HW110999  13.869  12.405   0.528
69722SOL    HW211000  13.972  12.296   0.505
69723SOL     OW11001  11.701   8.476  10.675
69723SOL    HW111002  11.741   8.528  10.744
69723SOL    HW211003  11.734   8.387  10.690
69724SOL     OW11004  13.057   8.034  14.449
69724SOL    HW111005  13.104   7.967  14.401
69724SOL    HW211006  12.974   7.993  14.474
69725SOL     OW11007  13.618   5.768   8.540
69725SOL    HW111008  13.679   5.826   8.495
69725SOL    HW211009  13.536   5.775   8.490
69726SOL     OW11010  10.566   9.986  14.758
69726SOL    HW111011  10.549   9.980  14.852
69726SOL    HW211012  10.579   9.895  14.731
69727SOL     OW11013  14.728   9.504   0.772
69727SOL    HW111014  14.750   9.507   0.679
69727SOL    HW211015  14.647   9.454   0.776
69728SOL     OW11016   5.104   0.330  11.029
69728SOL    HW111017   5.122   0.242  10.997
69728SOL    HW211018   5.125   0.387  10.956
69729SOL     OW11019  14.540   2.930  14.489
69729SOL    HW111020  14.467   2.868  14.485
69729SOL    HW211021  14.497   3.015  14.503
69730SOL     OW11022   6.106   1.965  10.879
69730SOL    HW111023   6.174   1.900  10.863
69730SOL    HW211024   6.104   1.976  10.974
69731SOL     OW11025   7.194   7.007  11.047
69731SOL    HW111026   7.183   7.030  10.955
69731SOL    HW211027   7.122   7.052  11.092
69732SOL     OW11028  10.859   0.544   7.163
69732SOL    HW111029  10.806   0.472   7.129
69732SOL    HW211030  10.885   0.516   7.251
69733SOL     OW11031   7.152   8.474  13.387
69733SOL    HW111032   7.152   8.478  13.292
69733SOL    HW211033   7.065   8.440  13.409
69734SOL     OW11034   6.935   4.864   7.548
69734SOL    HW111035   6.899   4.802   7.611
69734SOL    HW211036   7.005   4.816   7.504
69735SOL     OW11037  13.786   1.525   5.280
69735SOL    HW111038  13.748   1.500   5.196
69735SOL    HW211039  13.878   1.544   5.260
69736SOL     OW11040   6.473   4.825  13.520
69736SOL    HW111041   6.510   4.757  13.464
69736SOL    HW211042   6.379   4.823  13.501
69737SOL     OW11043  10.212  11.514   4.291
69737SOL    HW111044  10.289  11.538   4.239
69737SOL    HW211045  10.140  11.514   4.228
69738SOL     OW11046  13.066   2.018   9.927
69738SOL    HW111047  13.155   1.992   9.904
69738SOL    HW211048  13.055   2.105   9.888
69739SOL     OW11049   3.487   2.314   2.551
69739SOL    HW111050   3.484   2.264   2.469
69739SOL    HW211051   3.402   2.358   2.555
69740SOL     OW11052   4.758   8.350   6.681
69740SOL    HW111053   4.686   8.312   6.730
69740SOL    HW211054   4.812   8.394   6.747
69741SOL     OW11055  14.163   7.683  10.625
69741SOL    HW111056  14.089   7.628  10.651
69741SOL    HW211057  14.145   7.769  10.663
69742SOL     OW11058   5.166   7.785   4.745
69742SOL    HW111059   5.097   7.740   4.793
69742SOL    HW211060   5.247   7.753   4.785
69743SOL     OW11061  13.204   7.971  11.051
69743SOL    HW111062  13.192   8.020  10.970
69743SOL    HW211063  13.228   7.883  11.022
69744SOL     OW11064   3.454   2.985   2.375
69744SOL    HW111065   3.444   3.018   2.465
69744SOL    HW211066   3.533   2.932   2.377
69745SOL     OW11067   3.379   3.672   5.626
69745SOL    HW111068   3.463   3.698   5.664
69745SOL    HW211069   3.366   3.582   5.656
69746SOL     OW11070   0.606  11.869   3.810
69746SOL    HW111071   0.612  11.963   3.791
69746SOL    HW211072   0.570  11.864   3.898
69747SOL     OW11073   0.601  12.215   6.101
69747SOL    HW111074   0.631  12.235   6.011
69747SOL    HW211075   0.541  12.286   6.122
69748SOL     OW11076   6.653   3.732  12.195
69748SOL    HW111077   6.680   3.649  12.233
69748SOL    HW211078   6.711   3.797  12.233
69749SOL     OW11079   7.350  13.342   2.260
69749SOL    HW111080   7.320  13.261   2.220
69749SOL    HW211081   7.332  13.331   2.354
69750SOL     OW11082  11.599  13.270   6.651
69750SOL    HW111083  11.604  13.328   6.728
69750SOL    HW211084  11.523  13.215   6.667
69751SOL     OW11085   1.860   4.126  10.238
69751SOL    HW111086   1.809   4.094  10.164
69751SOL    HW211087   1.947   4.143  10.202
69752SOL     OW11088   1.814   0.277   1.202
69752SOL    HW111089   1.869   0.355   1.195
69752SOL    HW211090   1.743   0.293   1.139
69753SOL     OW11091  12.062   5.477   5.952
69753SOL    HW111092  11.997   5.418   5.915
69753SOL    HW211093  12.071   5.448   6.043
69754SOL     OW11094   6.356  10.535  14.700
69754SOL    HW111095   6.275  10.552  14.748
69754SOL    HW211096   6.402  10.469  14.752
69755SOL     OW11097   5.423   3.852   8.567
69755SOL    HW111098   5.482   3.903   8.623
69755SOL    HW211099   5.388   3.784   8.625
69756SOL     OW11100  10.067   3.898   2.367
69756SOL    HW111101   9.986   3.847   2.370
69756SOL    HW211102  10.105   3.878   2.281
69757SOL     OW11103  11.969   3.396  11.302
69757SOL    HW111104  11.905   3.459  11.335
69757SOL    HW211105  11.952   3.316  11.352
69758SOL     OW11106   8.111   5.592   0.352
69758SOL    HW111107   8.079   5.681   0.342
69758SOL    HW211108   8.195   5.602   0.398
69759SOL     OW11109  13.953   5.373  11.122
69759SOL    HW111110  13.862   5.376  11.093
69759SOL    HW211111  14.002   5.412  11.050
69760SOL     OW11112   7.563  11.242   0.410
69760SOL    HW111113   7.543  11.233   0.317
69760SOL    HW211114   7.585  11.154   0.440
69761SOL     OW11115  10.446   7.249   8.770
69761SOL    HW111116  10.515   7.206   8.720
69761SOL    HW211117  10.474   7.341   8.776
69762SOL     OW11118  13.512  12.525   4.864
69762SOL    HW111119  13.568  12.577   4.807
69762SOL    HW211120  13.499  12.443   4.816
69763SOL     OW11121   3.068   0.360   6.660
69763SOL    HW111122   2.978   0.327   6.656
69763SOL    HW211123   3.113   0.299   6.720
69764SOL     OW11124   4.744   5.182  13.183
69764SOL    HW111125   4.826   5.155  13.140
69764SOL    HW211126   4.720   5.107  13.237
69765SOL     OW11127   1.738   1.111   2.138
69765SOL    HW111128   1.739   1.097   2.043
69765SOL    HW211129   1.747   1.024   2.175
69766SOL     OW11130  10.127   8.042   6.099
69766SOL    HW111131  10.079   8.086   6.029
69766SOL    HW211132  10.157   7.960   6.059
69767SOL     OW11133   2.459  14.586  13.647
69767SOL    HW111134   2.420  14.668  13.677
69767SOL    HW211135   2.392  14.520  13.666
69768SOL     OW11136  10.344  11.540   4.753
69768SOL    HW111137  10.361  11.497   4.670
69768SOL    HW211138  10.392  11.623   4.748
69769SOL     OW11139  11.943  12.108   3.660
69769SOL    HW111140  12.004  12.179   3.677
69769SOL    HW211141  11.931  12.065   3.745
69770SOL     OW11142   5.997  13.920   4.186
69770SOL    HW111143   6.073  13.930   4.244
69770SOL    HW211144   6.035  13.898   4.101
69771SOL     OW11145   9.984  12.501  13.002
69771SOL    HW111146   9.952  12.578  13.049
69771SOL    HW211147   9.905  12.451  12.981
69772SOL     OW11148   7.349   3.594   1.450
69772SOL    HW111149   7.407   3.659   1.410
69772SOL    HW211150   7.403   3.516   1.460
69773SOL     OW11151   1.138  13.869   9.913
69773SOL    HW111152   1.061  13.841   9.862
69773SOL    HW211153   1.191  13.918   9.850
69774SOL     OW11154   3.077   5.152   6.780
69774SOL    HW111155   3.028   5.115   6.707
69774SOL    HW211156   3.137   5.214   6.740
69775SOL     OW11157   8.290   2.022   7.765
69775SOL    HW111158   8.213   1.968   7.784
69775SOL    HW211159   8.295   2.024   7.669
69776SOL     OW11160   3.104   5.856   5.805
69776SOL    HW111161   3.031   5.890   5.754
69776SOL    HW211162   3.080   5.873   5.896
69777SOL     OW11163  10.390   1.340   6.672
69777SOL    HW111164  10.442   1.275   6.625
69777SOL    HW211165  10.416   1.424   6.634
69778SOL     OW11166  10.619  11.246   5.697
69778SOL    HW111167  10.633  11.245   5.602
69778SOL    HW211168  10.535  11.290   5.708
69779SOL     OW11169   4.366   5.817   8.465
69779SOL    HW111170   4.315   5.867   8.401
69779SOL    HW211171   4.332   5.846   8.550
69780SOL     OW11172   8.081   0.076  14.851
69780SOL    HW111173   8.129   0.025   0.037
69780SOL    HW211174   8.119   0.164  14.857
69781SOL     OW11175   6.721  11.955   4.351
69781SOL    HW111176   6.673  12.022   4.400
69781SOL    HW211177   6.656  11.886   4.337
69782SOL     OW11178  14.268  13.562  14.629
69782SOL    HW111179  14.211  13.630  14.667
69782SOL    HW211180  14.353  13.606  14.620
69783SOL     OW11181  13.123   7.953   5.046
69783SOL    HW111182  13.101   8.015   5.114
69783SOL    HW211183  13.059   7.968   4.977
69784SOL     OW11184   5.992   4.938  14.799
69784SOL    HW111185   6.017   4.938   0.013
69784SOL    HW211186   5.932   4.864  14.791
69785SOL     OW11187   2.015   4.611  14.620
69785SOL    HW111188   2.017   4.695  14.666
69785SOL    HW211189   1.923   4.596  14.600
69786SOL     OW11190   9.911   1.190   6.157
69786SOL    HW111191   9.851   1.118   6.178
69786SOL    HW211192   9.902   1.250   6.231
69787SOL     OW11193   2.957   9.520   0.302
69787SOL    HW111194   2.926   9.593   0.356
69787SOL    HW211195   3.037   9.552   0.260
69788SOL     OW11196   8.609   9.067   0.404
69788SOL    HW111197   8.578   9.146   0.360
69788SOL    HW211198   8.670   9.026   0.342
69789SOL     OW11199   7.819   0.047  14.833
69789SOL    HW111200   7.912   0.052  14.813
69789SOL    HW211201   7.798  14.833  14.829
69790SOL     OW11202  13.970  14.586   8.078
69790SOL    HW111203  13.887  14.552   8.110
69790SOL    HW211204  14.011  14.512   8.034
69791SOL     OW11205   7.042  12.195  13.103
69791SOL    HW111206   7.107  12.265  13.112
69791SOL    HW211207   7.054  12.162  13.014
69792SOL     OW11208  10.183  13.269   0.620
69792SOL    HW111209  10.177  13.217   0.540
69792SOL    HW211210  10.124  13.343   0.604
69793SOL     OW11211   0.922   2.711   2.274
69793SOL    HW111212   0.908   2.620   2.300
69793SOL    HW211213   0.990   2.743   2.334
69794SOL     OW11214  10.921  12.198   9.525
69794SOL    HW111215  10.996  12.166   9.575
69794SOL    HW211216  10.948  12.284   9.493
69795SOL     OW11217   1.700   0.737   1.525
69795SOL    HW111218   1.717   0.785   1.606
69795SOL    HW211219   1.787   0.719   1.489
69796SOL     OW11220   2.715   3.083  12.394
69796SOL    HW111221   2.686   3.068  12.484
69796SOL    HW211222   2.641   3.057  12.340
69797SOL     OW11223   8.662   8.130   2.889
69797SOL    HW111224   8.716   8.057   2.921
69797SOL    HW211225   8.723   8.186   2.841
69798SOL     OW11226   4.697   0.153   9.431
69798SOL    HW111227   4.728   0.112   9.350
69798SOL    HW211228   4.733   0.242   9.428
69799SOL     OW11229   1.058   4.219   2.410
69799SOL    HW111230   1.108   4.278   2.466
69799SOL    HW211231   1.051   4.138   2.460
69800SOL     OW11232   8.567   1.747   2.489
69800SOL    HW111233   8.655   1.712   2.480
69800SOL    HW211234   8.561   1.814   2.422
69801SOL     OW11235  13.417  13.201  10.160
69801SOL    HW111236  13.448  13.150  10.234
69801SOL    HW211237  13.440  13.291  10.181
69802SOL     OW11238  14.597   8.945  10.428
69802SOL    HW111239  14.647   8.867  10.450
69802SOL    HW211240  14.514   8.935  10.474
69803SOL     OW11241  12.865  10.651  13.403
69803SOL    HW111242  12.924  10.598  13.349
69803SOL    HW211243  12.821  10.588  13.459
69804SOL     OW11244   1.558   1.355   5.108
69804SOL    HW111245   1.501   1.432   5.103
69804SOL    HW211246   1.499   1.281   5.111
69805SOL     OW11247   2.474  10.598   3.492
69805SOL    HW111248   2.510  10.675   3.448
69805SOL    HW211249   2.491  10.526   3.431
69806SOL     OW11250   3.334   7.017   1.095
69806SOL    HW111251   3.381   6.933   1.103
69806SOL    HW211252   3.261   7.009   1.156
69807SOL     OW11253   5.575  11.292  11.354
69807SOL    HW111254   5.587  11.199  11.334
69807SOL    HW211255   5.543  11.330  11.273
69808SOL     OW11256  10.608  14.765   2.714
69808SOL    HW111257  10.570  14.818   2.783
69808SOL    HW211258  10.533  14.729   2.666
69809SOL     OW11259  11.504   6.492   1.690
69809SOL    HW111260  11.516   6.534   1.605
69809SOL    HW211261  11.453   6.413   1.670
69810SOL     OW11262   1.516  12.582   1.915
69810SOL    HW111263   1.523  12.487   1.908
69810SOL    HW211264   1.594  12.615   1.870
69811SOL     OW11265  10.184   6.713   0.043
69811SOL    HW111266  10.246   6.676   0.106
69811SOL    HW211267  10.130   6.773   0.094
69812SOL     OW11268  12.989   4.515   7.397
69812SOL    HW111269  12.956   4.605   7.401
69812SOL    HW211270  12.987   4.485   7.488
69813SOL     OW11271   1.114   3.087   1.607
69813SOL    HW111272   1.068   3.036   1.674
69813SOL    HW211273   1.126   3.026   1.534
69814SOL     OW11274   1.143  11.565   2.624
69814SOL    HW111275   1.166  11.642   2.572
69814SOL    HW211276   1.172  11.586   2.713
69815SOL     OW11277   8.427   9.752  12.865
69815SOL    HW111278   8.454   9.676  12.812
69815SOL    HW211279   8.370   9.715  12.932
69816SOL     OW11280   9.859  12.229   0.816
69816SOL    HW111281   9.830  12.138   0.827
69816SOL    HW211282   9.811  12.278   0.883
69817SOL     OW11283   5.195   5.896  10.193
69817SOL    HW111284   5.194   5.973  10.138
69817SOL    HW211285   5.111   5.852  10.175
69818SOL     OW11286  13.548   1.751   2.296
69818SOL    HW111287  13.530   1.658   2.282
69818SOL    HW211288  13.550   1.760   2.392
69819SOL     OW11289  13.705   3.969   1.315
69819SOL    HW111290  13.787   3.924   1.336
69819SOL    HW211291  13.706   3.976   1.219
69820SOL     OW11292   6.757  12.370  12.881
69820SOL    HW111293   6.735  12.416  12.800
69820SOL    HW211294   6.834  12.416  12.915
69821SOL     OW11295   6.500  14.508   6.104
69821SOL    HW111296   6.510  14.413   6.112
69821SOL    HW211297   6.525  14.541   6.190
69822SOL     OW11298  11.248   8.468   9.777
69822SOL    HW111299  11.261   8.446   9.685
69822SOL    HW211300  11.315   8.533   9.796
69823SOL     OW11301  14.761   9.200   6.460
69823SOL    HW111302  14.851   9.170   6.449
69823SOL    HW211303  14.740   9.244   6.377
69824SOL     OW11304   8.888   9.978   0.341
69824SOL    HW111305   8.943   9.902   0.325
69824SOL    HW211306   8.930  10.049   0.292
69825SOL     OW11307   5.452   0.087   2.330
69825SOL    HW111308   5.383   0.146   2.361
69825SOL    HW211309   5.472   0.118   2.242
69826SOL     OW11310   3.158   4.917   3.784
69826SOL    HW111311   3.123   4.964   3.709
69826SOL    HW211312   3.094   4.932   3.854
69827SOL     OW11313  11.825   1.583  10.280
69827SOL    HW111314  11.788   1.539  10.356
69827SOL    HW211315  11.914   1.548  10.272
69828SOL     OW11316   0.784   6.205   5.624
69828SOL    HW111317   0.751   6.294   5.633
69828SOL    HW211318   0.872   6.208   5.663
69829SOL     OW11319   9.081  10.485  14.451
69829SOL    HW111320   9.155  10.479  14.391
69829SOL    HW211321   9.040  10.399  14.447
69830SOL     OW11322  10.465   3.903  12.834
69830SOL    HW111323  10.399   3.896  12.766
69830SOL    HW211324  10.525   3.971  12.803
69831SOL     OW11325   8.715   2.803  10.742
69831SOL    HW111326   8.704   2.878  10.801
69831SOL    HW211327   8.751   2.841  10.662
69832SOL     OW11328   7.631   9.149   4.723
69832SOL    HW111329   7.688   9.094   4.668
69832SOL    HW211330   7.549   9.154   4.675
69833SOL     OW11331  14.091   9.515   0.507
69833SOL    HW111332  14.087   9.493   0.600
69833SOL    HW211333  14.049   9.601   0.502
69834SOL     OW11334   9.142   8.270  13.278
69834SOL    HW111335   9.232   8.298  13.265
69834SOL    HW211336   9.130   8.270  13.373
69835SOL     OW11337  12.871  13.602   9.109
69835SOL    HW111338  12.959  13.573   9.085
69835SOL    HW211339  12.864  13.690   9.070
69836SOL     OW11340  10.605  11.595   2.732
69836SOL    HW111341  10.568  11.668   2.781
69836SOL    HW211342  10.529  11.542   2.707
69837SOL     OW11343  10.828   3.062  10.004
69837SOL    HW111344  10.742   3.025   9.987
69837SOL    HW211345  10.844   3.044  10.096
69838SOL     OW11346   6.743   2.912   3.955
69838SOL    HW111347   6.784   2.838   3.910
69838SOL    HW211348   6.689   2.955   3.889
69839SOL     OW11349  11.813   9.947  11.318
69839SOL    HW111350  11.830   9.907  11.403
69839SOL    HW211351  11.860   9.892  11.255
69840SOL     OW11352   2.314   5.581   5.904
69840SOL    HW111353   2.265   5.499   5.896
69840SOL    HW211354   2.363   5.573   5.986
69841SOL     OW11355  10.369   2.136   3.749
69841SOL    HW111356  10.442   2.150   3.689
69841SOL    HW211357  10.369   2.041   3.764
69842SOL     OW11358   3.238  10.753   4.880
69842SOL    HW111359   3.154  10.767   4.837
69842SOL    HW211360   3.231  10.800   4.964
69843SOL     OW11361   2.251   9.382  13.175
69843SOL    HW111362   2.288   9.421  13.255
69843SOL    HW211363   2.161   9.359  13.199
69844SOL     OW11364   0.046   3.772   0.223
69844SOL    HW111365   0.138   3.748   0.215
69844SOL    HW211366   0.004   3.693   0.257
69845SOL     OW11367  14.289   6.272  10.285
69845SOL    HW111368  14.235   6.272  10.206
69845SOL    HW211369  14.348   6.197  10.275
69846SOL     OW11370   5.342   4.380  13.759
69846SOL    HW111371   5.288   4.453  13.729
69846SOL    HW211372   5.279   4.317  13.794
69847SOL     OW11373   9.927  13.150   1.721
69847SOL    HW111374  10.001  13.199   1.685
69847SOL    HW211375   9.887  13.107   1.646
69848SOL     OW11376  12.934  11.321   4.919
69848SOL    HW111377  12.967  11.249   4.866
69848SOL    HW211378  12.848  11.341   4.883
69849SOL     OW11379  13.510   5.338   3.512
69849SOL    HW111380  13.583   5.277   3.520
69849SOL    HW211381  13.515   5.393   3.590
69850SOL     OW11382   2.428  13.684   4.004
69850SOL    HW111383   2.499  13.742   3.978
69850SOL    HW211384   2.349  13.726   3.970
69851SOL     OW11385   5.231   5.448  13.908
69851SOL    HW111386   5.165   5.401  13.960
69851SOL    HW211387   5.315   5.422  13.946
69852SOL     OW11388   5.686   5.459   8.291
69852SOL    HW111389   5.621   5.527   8.304
69852SOL    HW211390   5.697   5.454   8.196
69853SOL     OW11391  10.145   5.239   4.054
69853SOL    HW111392  10.067   5.283   4.019
69853SOL    HW211393  10.193   5.307   4.101
69854SOL     OW11394  14.756  10.308  12.101
69854SOL    HW111395  14.739  10.372  12.032
69854SOL    HW211396  14.826  10.254  12.065
69855SOL     OW11397  10.111   2.041  12.083
69855SOL    HW111398  10.161   2.123  12.074
69855SOL    HW211399  10.038   2.065  12.140
69856SOL     OW11400  14.299   5.413   3.035
69856SOL    HW111401  14.242   5.402   2.958
69856SOL    HW211402  14.252   5.368   3.106
69857SOL     OW11403  10.421  11.492   4.067
69857SOL    HW111404  10.422  11.515   3.974
69857SOL    HW211405  10.370  11.411   4.071
69858SOL     OW11406  11.261   9.138  11.033
69858SOL    HW111407  11.304   9.208  11.083
69858SOL    HW211408  11.284   9.058  11.079
69859SOL     OW11409  14.467   7.160   3.279
69859SOL    HW111410  14.509   7.076   3.258
69859SOL    HW211411  14.392   7.136   3.332
69860SOL     OW11412   3.582   6.087  14.268
69860SOL    HW111413   3.525   6.080  14.344
69860SOL    HW211414   3.659   6.134  14.300
69861SOL     OW11415   3.041   6.722  11.578
69861SOL    HW111416   3.004   6.810  11.569
69861SOL    HW211417   3.109   6.732  11.645
69862SOL     OW11418  11.918   9.125  13.773
69862SOL    HW111419  11.895   9.172  13.853
69862SOL    HW211420  12.008   9.096  13.787
69863SOL     OW11421   7.363  14.843  14.197
69863SOL    HW111422   7.452  14.840  14.163
69863SOL    HW211423   7.359  14.774  14.263
69864SOL     OW11424   1.267   0.967   0.731
69864SOL    HW111425   1.329   1.028   0.771
69864SOL    HW211426   1.282   0.884   0.777
69865SOL     OW11427  10.773  10.634   2.354
69865SOL    HW111428  10.867  10.648   2.361
69865SOL    HW211429  10.738  10.717   2.322
69866SOL     OW11430  14.620  14.444   8.016
69866SOL    HW111431  14.670  14.369   7.984
69866SOL    HW211432  14.560  14.464   7.945
69867SOL     OW11433  12.870   0.318   5.634
69867SOL    HW111434  12.804   0.262   5.595
69867SOL    HW211435  12.820   0.380   5.688
69868SOL     OW11436  10.975   5.886  13.260
69868SOL    HW111437  11.008   5.797  13.254
69868SOL    HW211438  11.015   5.932  13.187
69869SOL     OW11439   2.587   7.973  11.712
69869SOL    HW111440   2.572   7.961  11.618
69869SOL    HW211441   2.513   7.930  11.754
69870SOL     OW11442  11.591  11.041   4.907
69870SOL    HW111443  11.535  11.025   4.831
69870SOL    HW211444  11.601  11.136   4.910
69871SOL     OW11445  10.062  10.474  12.306
69871SOL    HW111446  10.026  10.393  12.343
69871SOL    HW211447  10.149  10.450  12.274
69872SOL     OW11448   3.899   4.553   4.165
69872SOL    HW111449   3.942   4.605   4.234
69872SOL    HW211450   3.855   4.618   4.110
69873SOL     OW11451   2.315  14.551  12.715
69873SOL    HW111452   2.345  14.639  12.736
69873SOL    HW211453   2.245  14.533  12.778
69874SOL     OW11454   9.424  12.918   4.233
69874SOL    HW111455   9.480  12.990   4.260
69874SOL    HW211456   9.338  12.958   4.220
69875SOL     OW11457   2.113  12.135   5.009
69875SOL    HW111458   2.107  12.130   4.914
69875SOL    HW211459   2.023  12.128   5.039
69876SOL     OW11460   9.310  14.003   1.017
69876SOL    HW111461   9.288  13.943   1.089
69876SOL    HW211462   9.284  13.955   0.938
69877SOL     OW11463   8.729   1.513  10.308
69877SOL    HW111464   8.765   1.542  10.224
69877SOL    HW211465   8.637   1.496  10.290
69878SOL     OW11466  11.467   9.169   3.736
69878SOL    HW111467  11.561   9.172   3.715
69878SOL    HW211468  11.464   9.129   3.823
69879SOL     OW11469  11.770  13.526   9.972
69879SOL    HW111470  11.701  13.479   9.926
69879SOL    HW211471  11.835  13.460   9.994
69880SOL     OW11472  13.723  12.198   1.029
69880SOL    HW111473  13.638  12.190   0.986
69880SOL    HW211474  13.731  12.119   1.082
69881SOL     OW11475   4.781   0.579   1.670
69881SOL    HW111476   4.849   0.643   1.691
69881SOL    HW211477   4.699   0.625   1.688
69882SOL     OW11478  10.677   7.291   9.183
69882SOL    HW111479  10.612   7.348   9.224
69882SOL    HW211480  10.659   7.298   9.089
69883SOL     OW11481   1.134   5.953   7.697
69883SOL    HW111482   1.212   5.967   7.750
69883SOL    HW211483   1.126   5.857   7.691
69884SOL     OW11484  14.618  10.852  12.142
69884SOL    HW111485  14.669  10.933  12.136
69884SOL    HW211486  14.676  10.784  12.109
69885SOL     OW11487   8.572   8.596   4.297
69885SOL    HW111488   8.613   8.513   4.273
69885SOL    HW211489   8.499   8.572   4.354
69886SOL     OW11490   5.720  13.114   9.567
69886SOL    HW111491   5.698  13.192   9.618
69886SOL    HW211492   5.718  13.143   9.476
69887SOL     OW11493  10.614  10.750   8.095
69887SOL    HW111494  10.655  10.681   8.148
69887SOL    HW211495  10.681  10.773   8.031
69888SOL     OW11496  13.299   0.240   8.628
69888SOL    HW111497  13.240   0.256   8.555
69888SOL    HW211498  13.254   0.275   8.704
69889SOL     OW11499   9.630   8.320  11.950
69889SOL    HW111500   9.537   8.319  11.969
69889SOL    HW211501   9.654   8.412  11.945
69890SOL     OW11502   4.946  11.471   9.255
69890SOL    HW111503   4.943  11.403   9.322
69890SOL    HW211504   4.866  11.458   9.204
69891SOL     OW11505   8.903  14.054   2.790
69891SOL    HW111506   8.916  14.137   2.835
69891SOL    HW211507   8.828  14.068   2.733
69892SOL     OW11508  12.998   2.424   3.573
69892SOL    HW111509  12.915   2.448   3.615
69892SOL    HW211510  13.056   2.498   3.591
69893SOL     OW11511   2.421  11.758   6.178
69893SOL    HW111512   2.329  11.776   6.198
69893SOL    HW211513   2.418  11.691   6.110
69894SOL     OW11514  13.121  11.207   1.205
69894SOL    HW111515  13.059  11.245   1.267
69894SOL    HW211516  13.139  11.277   1.143
69895SOL     OW11517  12.852  13.759  11.768
69895SOL    HW111518  12.872  13.816  11.842
69895SOL    HW211519  12.852  13.817  11.692
69896SOL     OW11520   6.714  14.470  10.562
69896SOL    HW111521   6.668  14.389  10.545
69896SOL    HW211522   6.716  14.515  10.478
69897SOL     OW11523   8.210   6.000   7.913
69897SOL    HW111524   8.228   6.094   7.905
69897SOL    HW211525   8.297   5.960   7.921
69898SOL     OW11526  11.133  12.027   4.656
69898SOL    HW111527  11.169  12.114   4.641
69898SOL    HW211528  11.072  12.014   4.583
69899SOL     OW11529  12.598   0.682  14.241
69899SOL    HW111530  12.621   0.601  14.288
69899SOL    HW211531  12.675   0.701  14.188
69900SOL     OW11532   4.652   7.682   5.727
69900SOL    HW111533   4.616   7.761   5.687
69900SOL    HW211534   4.689   7.712   5.810
69901SOL     OW11535   4.452   1.725   4.473
69901SOL    HW111536   4.470   1.659   4.406
69901SOL    HW211537   4.492   1.689   4.553
69902SOL     OW11538  13.776   4.896   1.698
69902SOL    HW111539  13.751   4.836   1.628
69902SOL    HW211540  13.759   4.847   1.779
69903SOL     OW11541   4.025   0.602   9.005
69903SOL    HW111542   4.104   0.612   8.950
69903SOL    HW211543   4.005   0.691   9.034
69904SOL     OW11544   5.533   4.660  14.678
69904SOL    HW111545   5.468   4.594  14.702
69904SOL    HW211546   5.496   4.705  14.603
69905SOL     OW11547  13.404  13.133   0.967
69905SOL    HW111548  13.447  13.148   1.051
69905SOL    HW211549  13.331  13.075   0.987
69906SOL     OW11550  13.356   9.353   2.963
69906SOL    HW111551  13.370   9.259   2.979
69906SOL    HW211552  13.280   9.375   3.016
69907SOL     OW11553   2.986   6.462  14.124
69907SOL    HW111554   2.973   6.556  14.114
69907SOL    HW211555   3.007   6.431  14.036
69908SOL     OW11556   0.326   6.203  13.629
69908SOL    HW111557   0.241   6.218  13.669
69908SOL    HW211558   0.321   6.114  13.593
69909SOL     OW11559   4.630   6.163   3.080
69909SOL    HW111560   4.638   6.072   3.052
69909SOL    HW211561   4.550   6.165   3.132
69910SOL     OW11562   3.221   8.821   7.958
69910SOL    HW111563   3.236   8.744   8.013
69910SOL    HW211564   3.169   8.789   7.884
69911SOL     OW11565   0.859  11.398   8.297
69911SOL    HW111566   0.814  11.348   8.365
69911SOL    HW211567   0.821  11.367   8.215
69912SOL     OW11568   5.683  12.330  12.672
69912SOL    HW111569   5.738  12.354  12.746
69912SOL    HW211570   5.735  12.352  12.595
69913SOL     OW11571   4.295   7.767   9.431
69913SOL    HW111572   4.374   7.803   9.391
69913SOL    HW211573   4.324   7.729   9.514
69914SOL     OW11574  11.004   0.861   4.844
69914SOL    HW111575  11.071   0.793   4.840
69914SOL    HW211576  10.948   0.843   4.768
69915SOL     OW11577   5.779   9.311  13.441
69915SOL    HW111578   5.781   9.308  13.345
69915SOL    HW211579   5.687   9.328  13.462
69916SOL     OW11580   8.257  11.838  13.654
69916SOL    HW111581   8.179  11.884  13.685
69916SOL    HW211582   8.246  11.748  13.686
69917SOL     OW11583   1.018   1.278   5.420
69917SOL    HW111584   0.995   1.370   5.435
69917SOL    HW211585   1.025   1.270   5.324
69918SOL     OW11586   8.851   7.843  11.869
69918SOL    HW111587   8.759   7.838  11.896
69918SOL    HW211588   8.896   7.779  11.924
69919SOL     OW11589   7.215  14.622  13.469
69919SOL    HW111590   7.245  14.554  13.529
69919SOL    HW211591   7.264  14.607  13.388
69920SOL     OW11592   7.055   1.037   1.137
69920SOL    HW111593   6.996   1.029   1.212
69920SOL    HW211594   7.133   1.080   1.173
69921SOL     OW11595   8.748  13.836   7.515
69921SOL    HW111596   8.744  13.877   7.428
69921SOL    HW211597   8.833  13.794   7.517
69922SOL     OW11598   1.098   9.421   0.532
69922SOL    HW111599   1.035   9.436   0.603
69922SOL    HW211600   1.060   9.348   0.482
69923SOL     OW11601   2.089   5.069   8.433
69923SOL    HW111602   2.151   5.000   8.456
69923SOL    HW211603   2.021   5.024   8.383
69924SOL     OW11604   6.240   8.548   7.824
69924SOL    HW111605   6.192   8.552   7.906
69924SOL    HW211606   6.317   8.496   7.843
69925SOL     OW11607   9.212   8.869  14.546
69925SOL    HW111608   9.120   8.882  14.568
69925SOL    HW211609   9.260   8.919  14.612
69926SOL     OW11610   3.746  12.184   0.031
69926SOL    HW111611   3.832  12.142   0.024
69926SOL    HW211612   3.714  12.159   0.117
69927SOL     OW11613  13.540  13.309   5.041
69927SOL    HW111614  13.479  13.367   4.995
69927SOL    HW211615  13.625  13.351   5.029
69928SOL     OW11616   4.693   6.688   5.903
69928SOL    HW111617   4.753   6.641   5.960
69928SOL    HW211618   4.704   6.780   5.927
69929SOL     OW11619  10.147  12.559   3.047
69929SOL    HW111620  10.054  12.563   3.025
69929SOL    HW211621  10.148  12.527   3.138
69930SOL     OW11622   1.527   2.082   0.234
69930SOL    HW111623   1.535   1.990   0.208
69930SOL    HW211624   1.468   2.081   0.309
69931SOL     OW11625  14.503   1.700   5.853
69931SOL    HW111626  14.506   1.668   5.943
69931SOL    HW211627  14.530   1.791   5.858
69932SOL     OW11628   9.492   8.645   3.391
69932SOL    HW111629   9.426   8.684   3.333
69932SOL    HW211630   9.441   8.603   3.460
69933SOL     OW11631   6.636   5.886  10.316
69933SOL    HW111632   6.592   5.971  10.312
69933SOL    HW211633   6.565   5.823  10.329
69934SOL     OW11634  10.041  10.651   0.246
69934SOL    HW111635   9.998  10.725   0.205
69934SOL    HW211636   9.984  10.625   0.317
69935SOL     OW11637  10.171   8.117   8.221
69935SOL    HW111638  10.214   8.037   8.252
69935SOL    HW211639  10.082   8.088   8.196
69936SOL     OW11640   9.711   6.658   3.831
69936SOL    HW111641   9.726   6.707   3.751
69936SOL    HW211642   9.641   6.597   3.809
69937SOL     OW11643   0.634   3.552   5.962
69937SOL    HW111644   0.611   3.460   5.971
69937SOL    HW211645   0.602   3.576   5.874
69938SOL     OW11646   5.369   9.514   4.909
69938SOL    HW111647   5.297   9.464   4.870
69938SOL    HW211648   5.410   9.453   4.970
69939SOL     OW11649  14.601   5.523   8.865
69939SOL    HW111650  14.574   5.525   8.956
69939SOL    HW211651  14.535   5.575   8.819
69940SOL     OW11652  10.654   5.277   8.879
69940SOL    HW111653  10.573   5.327   8.869
69940SOL    HW211654  10.628   5.186   8.865
69941SOL     OW11655  11.531   6.950  12.008
69941SOL    HW111656  11.503   6.918  12.094
69941SOL    HW211657  11.626   6.945  12.011
69942SOL     OW11658  13.195   0.383   1.612
69942SOL    HW111659  13.154   0.299   1.632
69942SOL    HW211660  13.288   0.363   1.604
69943SOL     OW11661   4.004   9.442   0.657
69943SOL    HW111662   4.009   9.536   0.673
69943SOL    HW211663   4.092   9.418   0.627
69944SOL     OW11664   0.249   8.798  10.439
69944SOL    HW111665   0.242   8.734  10.368
69944SOL    HW211666   0.220   8.881  10.401
69945SOL     OW11667  14.271   4.296   2.967
69945SOL    HW111668  14.245   4.218   2.918
69945SOL    HW211669  14.197   4.313   3.025
69946SOL     OW11670   2.618  13.079   5.439
69946SOL    HW111671   2.563  13.154   5.459
69946SOL    HW211672   2.603  13.017   5.510
69947SOL     OW11673   7.095   0.474  12.947
69947SOL    HW111674   7.180   0.475  12.902
69947SOL    HW211675   7.033   0.507  12.881
69948SOL     OW11676  13.874   0.271   7.542
69948SOL    HW111677  13.873   0.359   7.506
69948SOL    HW211678  13.783   0.242   7.537
69949SOL     OW11679  10.044   3.428   8.300
69949SOL    HW111680  10.126   3.448   8.256
69949SOL    HW211681  10.038   3.332   8.298
69950SOL     OW11682  10.599   8.860   7.316
69950SOL    HW111683  10.629   8.876   7.227
69950SOL    HW211684  10.679   8.851   7.367
69951SOL     OW11685  13.723  12.337  11.516
69951SOL    HW111686  13.655  12.281  11.554
69951SOL    HW211687  13.716  12.323  11.422
69952SOL     OW11688  14.155   0.351   8.958
69952SOL    HW111689  14.099   0.375   9.032
69952SOL    HW211690  14.126   0.264   8.933
69953SOL     OW11691   0.550   3.803   4.201
69953SOL    HW111692   0.525   3.832   4.288
69953SOL    HW211693   0.493   3.852   4.142
69954SOL     OW11694  10.493  10.879   4.435
69954SOL    HW111695  10.430  10.922   4.494
69954SOL    HW211696  10.439  10.848   4.362
69955SOL     OW11697   9.369   7.585   1.227
69955SOL    HW111698   9.345   7.677   1.238
69955SOL    HW211699   9.286   7.538   1.234
69956SOL     OW11700   0.152   5.083   0.385
69956SOL    HW111701   0.223   5.133   0.345
69956SOL    HW211702   0.072   5.126   0.355
69957SOL     OW11703  14.409  14.839   1.618
69957SOL    HW111704  14.450  14.753   1.617
69957SOL    HW211705  14.315  14.820   1.623
69958SOL     OW11706   2.033   3.896   1.211
69958SOL    HW111707   2.113   3.860   1.249
69958SOL    HW211708   2.019   3.978   1.257
69959SOL     OW11709   9.649   1.851   5.592
69959SOL    HW111710   9.734   1.820   5.562
69959SOL    HW211711   9.587   1.819   5.527
69960SOL     OW11712  12.394   1.934   3.946
69960SOL    HW111713  12.325   1.872   3.924
69960SOL    HW211714  12.402   1.930   4.041
69961SOL     OW11715   9.026   9.096  14.782
69961SOL    HW111716   9.076   9.123  14.705
69961SOL    HW211717   8.993   9.009  14.760
69962SOL     OW11718   5.317   0.242   4.887
69962SOL    HW111719   5.354   0.273   4.805
69962SOL    HW211720   5.392   0.208   4.936
69963SOL     OW11721   4.858   8.992  13.815
69963SOL    HW111722   4.881   9.070  13.763
69963SOL    HW211723   4.820   8.931  13.752
69964SOL     OW11724  10.917   3.527  11.739
69964SOL    HW111725  10.860   3.593  11.701
69964SOL    HW211726  10.935   3.559  11.828
69965SOL     OW11727   3.619   8.879  13.251
69965SOL    HW111728   3.632   8.883  13.346
69965SOL    HW211729   3.664   8.799  13.224
69966SOL     OW11730  12.155  11.697   8.867
69966SOL    HW111731  12.162  11.604   8.844
69966SOL    HW211732  12.193  11.742   8.791
69967SOL     OW11733   7.027   5.310  13.945
69967SOL    HW111734   7.075   5.375  13.997
69967SOL    HW211735   6.952   5.358  13.910
69968SOL     OW11736   8.475  10.816   8.980
69968SOL    HW111737   8.567  10.841   8.973
69968SOL    HW211738   8.476  10.734   9.029
69969SOL     OW11739   9.193   9.881   1.869
69969SOL    HW111740   9.140   9.928   1.934
69969SOL    HW211741   9.266   9.844   1.919
69970SOL     OW11742   4.773   8.133  11.075
69970SOL    HW111743   4.722   8.105  10.999
69970SOL    HW211744   4.763   8.063  11.139
69971SOL     OW11745   6.201   2.994   0.754
69971SOL    HW111746   6.115   3.022   0.721
69971SOL    HW211747   6.208   2.902   0.727
69972SOL     OW11748   9.702  13.668   4.808
69972SOL    HW111749   9.608  13.688   4.809
69972SOL    HW211750   9.706  13.574   4.791
69973SOL     OW11751   4.935   3.896   9.917
69973SOL    HW111752   4.843   3.870   9.916
69973SOL    HW211753   4.974   3.844   9.846
69974SOL     OW11754   0.045   9.062   4.564
69974SOL    HW111755   0.136   9.093   4.568
69974SOL    HW211756   0.011   9.100   4.482
69975SOL     OW11757   1.072   2.441   3.706
69975SOL    HW111758   1.050   2.502   3.776
69975SOL    HW211759   0.987   2.412   3.672
69976SOL     OW11760  13.322   1.287   0.090
69976SOL    HW111761  13.267   1.253   0.160
69976SOL    HW211762  13.382   1.348   0.133
69977SOL     OW11763  13.523  11.251  12.493
69977SOL    HW111764  13.440  11.249  12.447
69977SOL    HW211765  13.500  11.242  12.585
69978SOL     OW11766   0.221   2.419  12.038
69978SOL    HW111767   0.270   2.456  11.965
69978SOL    HW211768   0.129   2.428  12.014
69979SOL     OW11769   7.111   8.044   4.191
69979SOL    HW111770   7.134   8.073   4.280
69979SOL    HW211771   7.182   7.985   4.166
69980SOL     OW11772   1.020  10.230   5.853
69980SOL    HW111773   1.016  10.233   5.948
69980SOL    HW211774   0.975  10.148   5.830
69981SOL     OW11775   1.633  13.898   4.283
69981SOL    HW111776   1.572  13.947   4.337
69981SOL    HW211777   1.619  13.807   4.307
69982SOL     OW11778   5.989   5.381   2.170
69982SOL    HW111779   5.947   5.315   2.225
69982SOL    HW211780   6.006   5.454   2.229
69983SOL     OW11781  11.401   4.634  14.754
69983SOL    HW111782  11.452   4.601  14.828
69983SOL    HW211783  11.358   4.713  14.787
69984SOL     OW11784   4.025   7.095  14.211
69984SOL    HW111785   4.002   7.188  14.213
69984SOL    HW211786   4.039   7.072  14.303
69985SOL     OW11787  10.695  13.145   8.668
69985SOL    HW111788  10.674  13.051   8.672
69985SOL    HW211789  10.767  13.150   8.605
69986SOL     OW11790   6.327  12.020   5.650
69986SOL    HW111791   6.279  11.937   5.654
69986SOL    HW211792   6.415  11.998   5.679
69987SOL     OW11793   5.388   7.487   2.320
69987SOL    HW111794   5.317   7.540   2.354
69987SOL    HW211795   5.464   7.511   2.372
69988SOL     OW11796   9.572  14.434  12.415
69988SOL    HW111797   9.564  14.449  12.510
69988SOL    HW211798   9.661  14.462  12.394
69989SOL     OW11799  14.327  13.041   1.800
69989SOL    HW111800  14.312  12.952   1.832
69989SOL    HW211801  14.243  13.067   1.761
69990SOL     OW11802   9.035   1.079   7.822
69990SOL    HW111803   9.049   1.171   7.801
69990SOL    HW211804   9.008   1.039   7.739
69991SOL     OW11805  12.792   5.627   9.529
69991SOL    HW111806  12.775   5.569   9.455
69991SOL    HW211807  12.785   5.571   9.606
69992SOL     OW11808  13.927   0.045   4.928
69992SOL    HW111809  13.930   0.137   4.902
69992SOL    HW211810  13.857   0.040   4.993
69993SOL     OW11811  11.987   7.716   6.647
69993SOL    HW111812  12.013   7.790   6.701
69993SOL    HW211813  11.996   7.639   6.704
69994SOL     OW11814   5.404   8.395   5.434
69994SOL    HW111815   5.323   8.404   5.484
69994SOL    HW211816   5.429   8.484   5.411
69995SOL     OW11817   5.561  13.490  14.540
69995SOL    HW111818   5.636  13.463  14.593
69995SOL    HW211819   5.551  13.583  14.559
69996SOL     OW11820   9.598   0.305  12.014
69996SOL    HW111821   9.640   0.355  11.943
69996SOL    HW211822   9.628   0.215  12.002
69997SOL     OW11823   4.409  11.823  12.557
69997SOL    HW111824   4.347  11.754  12.581
69997SOL    HW211825   4.438  11.859  12.641
69998SOL     OW11826   9.941  11.084  13.111
69998SOL    HW111827  10.025  11.129  13.123
69998SOL    HW211828   9.896  11.095  13.195
69999SOL     OW11829  13.920   2.874  10.018
69999SOL    HW111830  14.007   2.841   9.993
69999SOL    HW211831  13.859   2.827   9.961
70000SOL     OW11832   0.726   6.926  11.683
70000SOL    HW111833   0.731   6.924  11.779
70000SOL    HW211834   0.729   6.834  11.657
70001SOL     OW11835   9.787   9.622  13.325
70001SOL    HW111836   9.881   9.602  13.320
70001SOL    HW211837   9.783   9.711  13.358
70002SOL     OW11838   4.392  14.379  14.419
70002SOL    HW111839   4.404  14.340  14.505
70002SOL    HW211840   4.357  14.309  14.365
70003SOL     OW11841   8.040   0.863   4.716
70003SOL    HW111842   7.957   0.851   4.669
70003SOL    HW211843   8.048   0.784   4.770
70004SOL     OW11844  13.788   1.163   1.798
70004SOL    HW111845  13.697   1.170   1.829
70004SOL    HW211846  13.797   1.236   1.736
70005SOL     OW11847   5.182   4.904   9.391
70005SOL    HW111848   5.199   4.997   9.375
70005SOL    HW211849   5.247   4.878   9.455
70006SOL     OW11850   2.724   0.246   6.132
70006SOL    HW111851   2.720   0.328   6.083
70006SOL    HW211852   2.723   0.178   6.066
70007SOL     OW11853   1.877  10.136  11.815
70007SOL    HW111854   1.932  10.210  11.840
70007SOL    HW211855   1.929  10.088  11.750
70008SOL     OW11856   3.068  14.500  12.058
70008SOL    HW111857   3.020  14.551  11.993
70008SOL    HW211858   3.058  14.549  12.139
70009SOL     OW11859   6.536   9.187   2.444
70009SOL    HW111860   6.542   9.274   2.403
70009SOL    HW211861   6.553   9.126   2.372
70010SOL     OW11862   8.031   3.344   4.880
70010SOL    HW111863   7.938   3.325   4.868
70010SOL    HW211864   8.075   3.260   4.868
70011SOL     OW11865  11.396   8.254  12.590
70011SOL    HW111866  11.411   8.278  12.498
70011SOL    HW211867  11.354   8.168  12.585
70012SOL     OW11868   2.174   3.696   4.800
70012SOL    HW111869   2.185   3.759   4.871
70012SOL    HW211870   2.220   3.735   4.726
70013SOL     OW11871  11.372   5.042   1.395
70013SOL    HW111872  11.460   5.052   1.359
70013SOL    HW211873  11.363   4.948   1.411
70014SOL     OW11874   4.698  14.305   4.891
70014SOL    HW111875   4.765  14.339   4.950
70014SOL    HW211876   4.623  14.287   4.948
70015SOL     OW11877   1.680   2.025   8.751
70015SOL    HW111878   1.626   2.072   8.688
70015SOL    HW211879   1.667   2.072   8.834
70016SOL     OW11880   4.925   9.154   2.697
70016SOL    HW111881   4.858   9.123   2.636
70016SOL    HW211882   4.881   9.218   2.752
70017SOL     OW11883   6.463   6.718   1.798
70017SOL    HW111884   6.487   6.627   1.814
70017SOL    HW211885   6.491   6.735   1.708
70018SOL     OW11886   6.590  12.355   1.627
70018SOL    HW111887   6.652  12.291   1.664
70018SOL    HW211888   6.568  12.321   1.541
70019SOL     OW11889  12.632   6.442   1.821
70019SOL    HW111890  12.549   6.436   1.868
70019SOL    HW211891  12.607   6.438   1.729
70020SOL     OW11892   8.738   1.567   1.480
70020SOL    HW111893   8.654   1.581   1.524
70020SOL    HW211894   8.726   1.605   1.393
70021SOL     OW11895   5.948   4.511   2.916
70021SOL    HW111896   6.026   4.468   2.951
70021SOL    HW211897   5.928   4.579   2.980
70022SOL     OW11898   8.369   8.301   2.437
70022SOL    HW111899   8.325   8.237   2.493
70022SOL    HW211900   8.305   8.321   2.369
70023SOL     OW11901  11.889  12.059   9.854
70023SOL    HW111902  11.939  11.993   9.903
70023SOL    HW211903  11.941  12.074   9.775
70024SOL     OW11904   6.717  10.748   8.616
70024SOL    HW111905   6.703  10.824   8.561
70024SOL    HW211906   6.679  10.675   8.567
70025SOL     OW11907   4.894   4.506  11.875
70025SOL    HW111908   4.989   4.517  11.880
70025SOL    HW211909   4.870   4.466  11.958
70026SOL     OW11910   0.170   7.788   4.445
70026SOL    HW111911   0.144   7.826   4.361
70026SOL    HW211912   0.129   7.702   4.446
70027SOL     OW11913  11.179   3.826  10.888
70027SOL    HW111914  11.182   3.754  10.951
70027SOL    HW211915  11.218   3.789  10.808
70028SOL     OW11916   0.432  12.395   2.509
70028SOL    HW111917   0.423  12.440   2.424
70028SOL    HW211918   0.521  12.359   2.508
70029SOL     OW11919   1.862   2.899   5.445
70029SOL    HW111920   1.880   2.993   5.437
70029SOL    HW211921   1.862   2.867   5.355
70030SOL     OW11922   5.969   9.804  12.727
70030SOL    HW111923   5.972   9.892  12.690
70030SOL    HW211924   5.879   9.775  12.711
70031SOL     OW11925   6.234   9.707   7.016
70031SOL    HW111926   6.262   9.616   7.006
70031SOL    HW211927   6.203   9.731   6.928
70032SOL     OW11928   4.461   4.571  14.552
70032SOL    HW111929   4.452   4.506  14.623
70032SOL    HW211930   4.489   4.651  14.597
70033SOL     OW11931   2.718   1.783   7.101
70033SOL    HW111932   2.651   1.842   7.136
70033SOL    HW211933   2.675   1.738   7.029
70034SOL     OW11934   4.617   6.999  14.158
70034SOL    HW111935   4.641   6.973  14.069
70034SOL    HW211936   4.524   7.022  14.152
70035SOL     OW11937  11.238   6.563   3.705
70035SOL    HW111938  11.193   6.535   3.785
70035SOL    HW211939  11.260   6.482   3.660
70036SOL     OW11940   0.280  13.863  12.903
70036SOL    HW111941   0.350  13.798  12.913
70036SOL    HW211942   0.215  13.838  12.969
70037SOL     OW11943  13.690   7.277  11.791
70037SOL    HW111944  13.615   7.327  11.826
70037SOL    HW211945  13.762   7.339  11.793
70038SOL     OW11946   4.881  13.723   0.231
70038SOL    HW111947   4.923  13.805   0.258
70038SOL    HW211948   4.936  13.655   0.270
70039SOL     OW11949  14.728   4.356   3.854
70039SOL    HW111950  14.693   4.394   3.934
70039SOL    HW211951  14.810   4.315   3.880
70040SOL     OW11952  11.884   5.422   9.172
70040SOL    HW111953  11.804   5.372   9.188
70040SOL    HW211954  11.931   5.372   9.106
70041SOL     OW11955  10.746   6.223  10.277
70041SOL    HW111956  10.737   6.220  10.182
70041SOL    HW211957  10.755   6.132  10.304
70042SOL     OW11958  11.060   0.664   5.366
70042SOL    HW111959  11.141   0.671   5.417
70042SOL    HW211960  11.089   0.644   5.277
70043SOL     OW11961  11.973  10.832   9.416
70043SOL    HW111962  12.048  10.882   9.385
70043SOL    HW211963  11.903  10.852   9.353
70044SOL     OW11964   2.188   5.148   7.547
70044SOL    HW111965   2.162   5.179   7.634
70044SOL    HW211966   2.121   5.183   7.488
70045SOL     OW11967   9.181  13.997   8.168
70045SOL    HW111968   9.093  14.033   8.152
70045SOL    HW211969   9.172  13.945   8.248
70046SOL     OW11970  14.420  11.019   1.818
70046SOL    HW111971  14.352  10.952   1.821
70046SOL    HW211972  14.471  11.004   1.897
70047SOL     OW11973   1.383  11.023   7.533
70047SOL    HW111974   1.375  11.074   7.614
70047SOL    HW211975   1.474  10.995   7.531
70048SOL     OW11976   1.894   1.559  12.475
70048SOL    HW111977   1.929   1.500  12.542
70048SOL    HW211978   1.840   1.621  12.524
70049SOL     OW11979  11.690  14.253  11.033
70049SOL    HW111980  11.635  14.205  10.971
70049SOL    HW211981  11.635  14.327  11.060
70050SOL     OW11982   8.893   4.903   8.877
70050SOL    HW111983   8.910   4.819   8.920
70050SOL    HW211984   8.851   4.879   8.795
70051SOL     OW11985   2.661  10.314   6.057
70051SOL    HW111986   2.625  10.330   6.145
70051SOL    HW211987   2.731  10.379   6.048
70052SOL     OW11988   2.014  11.662  13.012
70052SOL    HW111989   1.972  11.724  13.072
70052SOL    HW211990   1.942  11.612  12.975
70053SOL     OW11991  11.927   7.476  12.764
70053SOL    HW111992  11.944   7.570  12.763
70053SOL    HW211993  11.980   7.441  12.692
70054SOL     OW11994   7.116  13.496   9.769
70054SOL    HW111995   7.029  13.493   9.730
70054SOL    HW211996   7.109  13.560   9.840
70055SOL     OW11997  14.852   0.945   7.994
70055SOL    HW111998  14.778   0.888   8.018
70055SOL    HW211999  14.871   0.994   8.074
70056SOL     OW12000  12.299   7.128   5.352
70056SOL    HW112001  12.229   7.073   5.316
70056SOL    HW212002  12.375   7.070   5.355
70057SOL     OW12003   4.231   0.146   5.689
70057SOL    HW112004   4.315   0.101   5.680
70057SOL    HW212005   4.233   0.215   5.622
70058SOL     OW12006  12.080   0.367  10.751
70058SOL    HW112007  12.062   0.273  10.762
70058SOL    HW212008  12.103   0.376  10.658
70059SOL     OW12009  12.212   9.191   1.210
70059SOL    HW112010  12.222   9.097   1.197
70059SOL    HW212011  12.122   9.202   1.238
70060SOL     OW12012   8.998   2.321   2.540
70060SOL    HW112013   8.903   2.317   2.545
70060SOL    HW212014   9.017   2.323   2.447
70061SOL     OW12015   2.597   0.282   6.342
70061SOL    HW112016   2.636   0.355   6.389
70061SOL    HW212017   2.656   0.266   6.268
70062SOL     OW12018   1.232  14.608   1.775
70062SOL    HW112019   1.144  14.573   1.786
70062SOL    HW212020   1.219  14.695   1.738
70063SOL     OW12021   5.167   1.742  12.230
70063SOL    HW112022   5.080   1.712  12.253
70063SOL    HW212023   5.153   1.804  12.157
70064SOL     OW12024   2.685  12.879   6.022
70064SOL    HW112025   2.615  12.842   6.076
70064SOL    HW212026   2.758  12.817   6.030
70065SOL     OW12027   6.190   4.703   3.053
70065SOL    HW112028   6.215   4.771   3.115
70065SOL    HW212029   6.098   4.684   3.074
70066SOL     OW12030   3.284   3.710  14.128
70066SOL    HW112031   3.234   3.791  14.140
70066SOL    HW212032   3.334   3.700  14.209
70067SOL     OW12033   3.677   0.707  14.471
70067SOL    HW112034   3.751   0.741  14.521
70067SOL    HW212035   3.707   0.621  14.440
70068SOL     OW12036   7.973   8.056  10.349
70068SOL    HW112037   7.945   8.147  10.357
70068SOL    HW212038   8.009   8.050  10.261
70069SOL     OW12039   2.908  12.252   6.006
70069SOL    HW112040   2.959  12.316   5.956
70069SOL    HW212041   2.821  12.292   6.013
70070SOL     OW12042  14.824   6.370   7.161
70070SOL    HW112043  14.774   6.442   7.199
70070SOL    HW212044   0.024   6.411   7.127
70071SOL     OW12045   2.602   2.938  14.015
70071SOL    HW112046   2.559   2.907  13.935
70071SOL    HW212047   2.680   2.883  14.023
70072SOL     OW12048  11.113   6.329   4.885
70072SOL    HW112049  11.127   6.343   4.791
70072SOL    HW212050  11.183   6.380   4.927
70073SOL     OW12051   9.370  12.369  11.505
70073SOL    HW112052   9.355  12.324  11.588
70073SOL    HW212053   9.451  12.331  11.472
70074SOL     OW12054  13.999   5.725   6.057
70074SOL    HW112055  14.066   5.790   6.035
70074SOL    HW212056  13.998   5.722   6.152
70075SOL     OW12057  14.438   9.070  10.002
70075SOL    HW112058  14.390   9.007  10.055
70075SOL    HW212059  14.442   9.031   9.915
70076SOL     OW12060  14.616   1.996  13.240
70076SOL    HW112061  14.559   1.976  13.166
70076SOL    HW212062  14.576   1.951  13.315
70077SOL     OW12063   9.366   3.015  12.008
70077SOL    HW112064   9.440   3.053  12.055
70077SOL    HW212065   9.375   3.048  11.919
70078SOL     OW12066   4.129   8.599  13.395
70078SOL    HW112067   4.070   8.529  13.424
70078SOL    HW212068   4.132   8.660  13.468
70079SOL     OW12069   6.943  13.259  13.373
70079SOL    HW112070   6.877  13.254  13.441
70079SOL    HW212071   6.898  13.232  13.293
70080SOL     OW12072  11.013   9.183  14.395
70080SOL    HW112073  10.993   9.091  14.379
70080SOL    HW212074  11.100   9.195  14.356
70081SOL     OW12075   9.222  10.554   0.365
70081SOL    HW112076   9.255  10.516   0.446
70081SOL    HW212077   9.134  10.585   0.387
70082SOL     OW12078   4.328   2.827   8.810
70082SOL    HW112079   4.271   2.856   8.882
70082SOL    HW212080   4.288   2.747   8.778
70083SOL     OW12081   2.414  12.252   5.003
70083SOL    HW112082   2.453  12.322   4.952
70083SOL    HW212083   2.365  12.200   4.939
70084SOL     OW12084  11.486   4.728   7.105
70084SOL    HW112085  11.413   4.789   7.114
70084SOL    HW212086  11.483   4.700   7.014
70085SOL     OW12087   8.375   1.736  13.043
70085SOL    HW112088   8.329   1.743  12.959
70085SOL    HW212089   8.467   1.728  13.019
70086SOL     OW12090  11.261   2.567   8.080
70086SOL    HW112091  11.325   2.514   8.033
70086SOL    HW212092  11.184   2.568   8.023
70087SOL     OW12093  11.206  13.800   1.498
70087SOL    HW112094  11.124  13.846   1.478
70087SOL    HW212095  11.264  13.822   1.425
70088SOL     OW12096   2.043   6.108   2.301
70088SOL    HW112097   1.990   6.168   2.249
70088SOL    HW212098   2.088   6.164   2.364
70089SOL     OW12099  11.005  10.829  12.412
70089SOL    HW112100  11.046  10.748  12.380
70089SOL    HW212101  11.047  10.846  12.496
70090SOL     OW12102   6.763   1.094   2.413
70090SOL    HW112103   6.770   1.049   2.497
70090SOL    HW212104   6.669   1.112   2.403
70091SOL     OW12105   7.842   6.932   5.052
70091SOL    HW112106   7.932   6.965   5.060
70091SOL    HW212107   7.843   6.847   5.096
70092SOL     OW12108  13.070   3.811   6.942
70092SOL    HW112109  13.111   3.770   6.866
70092SOL    HW212110  13.010   3.876   6.905
70093SOL     OW12111   8.508   3.545   3.679
70093SOL    HW112112   8.441   3.612   3.662
70093SOL    HW212113   8.554   3.536   3.596
70094SOL     OW12114   9.864  10.472   3.515
70094SOL    HW112115   9.891  10.391   3.558
70094SOL    HW212116   9.803  10.513   3.577
70095SOL     OW12117  10.319   2.101   5.709
70095SOL    HW112118  10.252   2.168   5.698
70095SOL    HW212119  10.312   2.076   5.802
70096SOL     OW12120   6.241  12.683  14.219
70096SOL    HW112121   6.154  12.696  14.181
70096SOL    HW212122   6.225  12.631  14.298
70097SOL     OW12123   6.437  10.562   6.211
70097SOL    HW112124   6.441  10.468   6.193
70097SOL    HW212125   6.528  10.587   6.227
70098SOL     OW12126   5.690   2.765   7.430
70098SOL    HW112127   5.633   2.726   7.496
70098SOL    HW212128   5.775   2.721   7.442
70099SOL     OW12129  12.931  12.893   1.926
70099SOL    HW112130  13.005  12.873   1.868
70099SOL    HW212131  12.916  12.811   1.974
70100SOL     OW12132   0.369  14.365   8.421
70100SOL    HW112133   0.388  14.392   8.511
70100SOL    HW212134   0.320  14.438   8.383
70101SOL     OW12135   3.625   7.052  11.090
70101SOL    HW112136   3.706   7.031  11.042
70101SOL    HW212137   3.612   6.977  11.148
70102SOL     OW12138   7.187   0.857   0.441
70102SOL    HW112139   7.199   0.852   0.346
70102SOL    HW212140   7.246   0.927   0.469
70103SOL     OW12141   7.625   5.841   2.435
70103SOL    HW112142   7.643   5.875   2.347
70103SOL    HW212143   7.694   5.878   2.489
70104SOL     OW12144  11.203  11.191   3.438
70104SOL    HW112145  11.147  11.134   3.490
70104SOL    HW212146  11.201  11.152   3.350
70105SOL     OW12147   6.579  10.910   1.810
70105SOL    HW112148   6.673  10.921   1.793
70105SOL    HW212149   6.575  10.858   1.890
70106SOL     OW12150  11.808   1.537   4.583
70106SOL    HW112151  11.858   1.604   4.629
70106SOL    HW212152  11.717   1.563   4.594
70107SOL     OW12153   3.526   6.455  14.229
70107SOL    HW112154   3.461   6.392  14.197
70107SOL    HW212155   3.528   6.524  14.162
70108SOL     OW12156   6.682  10.714   0.484
70108SOL    HW112157   6.728  10.659   0.547
70108SOL    HW212158   6.595  10.727   0.522
70109SOL     OW12159  12.683  10.992   9.567
70109SOL    HW112160  12.748  10.939   9.520
70109SOL    HW212161  12.599  10.956   9.541
70110SOL     OW12162  14.474  11.628  10.380
70110SOL    HW112163  14.383  11.611  10.402
70110SOL    HW212164  14.512  11.660  10.462
70111SOL     OW12165   7.863   5.509   4.659
70111SOL    HW112166   7.874   5.575   4.591
70111SOL    HW212167   7.920   5.539   4.730
70112SOL     OW12168   8.217   1.541  14.046
70112SOL    HW112169   8.244   1.493  14.125
70112SOL    HW212170   8.277   1.616  14.043
70113SOL     OW12171   6.331  14.475   7.474
70113SOL    HW112172   6.420  14.509   7.469
70113SOL    HW212173   6.312  14.466   7.567
70114SOL     OW12174  12.057  13.012  14.624
70114SOL    HW112175  12.014  12.931  14.595
70114SOL    HW212176  12.146  12.985  14.646
70115SOL     OW12177   3.327   3.134   2.889
70115SOL    HW112178   3.290   3.206   2.941
70115SOL    HW212179   3.322   3.058   2.947
70116SOL     OW12180   5.703   6.716  10.718
70116SOL    HW112181   5.667   6.735  10.631
70116SOL    HW212182   5.748   6.632  10.709
70117SOL     OW12183   7.605  12.504   3.959
70117SOL    HW112184   7.512  12.489   3.941
70117SOL    HW212185   7.608  12.526   4.052
70118SOL     OW12186   6.958   1.520   4.880
70118SOL    HW112187   6.983   1.613   4.889
70118SOL    HW212188   7.041   1.473   4.881
70119SOL     OW12189   1.018   1.645  13.676
70119SOL    HW112190   1.033   1.722  13.730
70119SOL    HW212191   1.035   1.571  13.734
70120SOL     OW12192  13.595  12.039   5.063
70120SOL    HW112193  13.521  12.099   5.048
70120SOL    HW212194  13.561  11.975   5.126
70121SOL     OW12195   9.570   7.083   2.628
70121SOL    HW112196   9.632   7.145   2.589
70121SOL    HW212197   9.614   6.998   2.623
70122SOL     OW12198   4.791   1.310   4.097
70122SOL    HW112199   4.829   1.376   4.039
70122SOL    HW212200   4.788   1.352   4.183
70123SOL     OW12201   6.427  13.128   3.898
70123SOL    HW112202   6.477  13.195   3.852
70123SOL    HW212203   6.431  13.051   3.842
70124SOL     OW12204  14.714   7.644   5.118
70124SOL    HW112205  14.657   7.701   5.066
70124SOL    HW212206  14.778   7.704   5.156
70125SOL     OW12207  11.820   2.165   6.775
70125SOL    HW112208  11.880   2.235   6.749
70125SOL    HW212209  11.801   2.182   6.868
70126SOL     OW12210   6.851   2.129  10.819
70126SOL    HW112211   6.839   2.202  10.880
70126SOL    HW212212   6.864   2.171  10.734
70127SOL     OW12213  13.915   0.537  10.155
70127SOL    HW112214  13.997   0.546  10.204
70127SOL    HW212215  13.847   0.559  10.219
70128SOL     OW12216   5.903  12.193   6.820
70128SOL    HW112217   5.960  12.210   6.896
70128SOL    HW212218   5.898  12.098   6.815
70129SOL     OW12219   2.299   0.972   5.827
70129SOL    HW112220   2.386   1.004   5.849
70129SOL    HW212221   2.310   0.878   5.813
70130SOL     OW12222   7.257  10.817   5.385
70130SOL    HW112223   7.246  10.877   5.311
70130SOL    HW212224   7.194  10.848   5.451
70131SOL     OW12225  12.885  11.082  10.275
70131SOL    HW112226  12.945  11.145  10.315
70131SOL    HW212227  12.805  11.088  10.327
70132SOL     OW12228   2.686   8.756   9.478
70132SOL    HW112229   2.722   8.819   9.416
70132SOL    HW212230   2.591   8.766   9.470
70133SOL     OW12231   2.233   4.064   4.518
70133SOL    HW112232   2.208   4.112   4.597
70133SOL    HW212233   2.258   4.132   4.455
70134SOL     OW12234  11.162  12.931  14.668
70134SOL    HW112235  11.095  12.868  14.695
70134SOL    HW212236  11.195  12.896  14.585
70135SOL     OW12237  11.223   7.701   4.535
70135SOL    HW112238  11.185   7.677   4.620
70135SOL    HW212239  11.293   7.637   4.521
70136SOL     OW12240  13.737  12.507  10.189
70136SOL    HW112241  13.719  12.590  10.234
70136SOL    HW212242  13.692  12.514  10.105
70137SOL     OW12243  13.831   0.448  14.491
70137SOL    HW112244  13.885   0.460  14.570
70137SOL    HW212245  13.872   0.374  14.445
70138SOL     OW12246  13.740   5.521  10.161
70138SOL    HW112247  13.707   5.536  10.249
70138SOL    HW212248  13.793   5.598  10.142
70139SOL     OW12249   4.971   0.878   7.122
70139SOL    HW112250   4.961   0.951   7.182
70139SOL    HW212251   4.929   0.804   7.165
70140SOL     OW12252   2.695   4.791  10.562
70140SOL    HW112253   2.711   4.803  10.469
70140SOL    HW212254   2.757   4.851  10.604
70141SOL     OW12255  13.896  12.530   8.830
70141SOL    HW112256  13.920  12.615   8.867
70141SOL    HW212257  13.937  12.530   8.743
70142SOL     OW12258  10.632   6.955  12.785
70142SOL    HW112259  10.689   6.924  12.855
70142SOL    HW212260  10.631   7.050  12.795
70143SOL     OW12261   0.316  14.491  10.124
70143SOL    HW112262   0.384  14.448  10.072
70143SOL    HW212263   0.262  14.419  10.156
70144SOL     OW12264   9.918   3.810   9.812
70144SOL    HW112265   9.863   3.788   9.887
70144SOL    HW212266  10.001   3.838   9.851
70145SOL     OW12267   2.689   1.662  10.203
70145SOL    HW112268   2.646   1.698  10.124
70145SOL    HW212269   2.743   1.590  10.170
70146SOL     OW12270  10.438   4.683  11.722
70146SOL    HW112271  10.476   4.751  11.667
70146SOL    HW212272  10.509   4.657  11.780
70147SOL     OW12273   4.713   0.526   0.483
70147SOL    HW112274   4.647   0.587   0.518
70147SOL    HW212275   4.756   0.575   0.413
70148SOL     OW12276   7.594   7.006   7.146
70148SOL    HW112277   7.668   6.980   7.201
70148SOL    HW212278   7.567   7.091   7.181
70149SOL     OW12279   0.699   5.556   8.927
70149SOL    HW112280   0.763   5.500   8.970
70149SOL    HW212281   0.711   5.538   8.834
70150SOL     OW12282   3.283  14.628   3.310
70150SOL    HW112283   3.312  14.688   3.378
70150SOL    HW212284   3.287  14.680   3.229
70151SOL     OW12285  11.911  13.606   7.656
70151SOL    HW112286  11.842  13.560   7.608
70151SOL    HW212287  11.907  13.568   7.744
70152SOL     OW12288  12.224  12.581  11.712
70152SOL    HW112289  12.251  12.628  11.791
70152SOL    HW212290  12.144  12.535  11.737
70153SOL     OW12291   8.198   1.151  14.112
70153SOL    HW112292   8.159   1.203  14.042
70153SOL    HW212293   8.139   1.076  14.121
70154SOL     OW12294   1.203   1.847  10.875
70154SOL    HW112295   1.144   1.914  10.842
70154SOL    HW212296   1.235   1.882  10.958
70155SOL     OW12297  13.834   0.362   0.003
70155SOL    HW112298  13.877   0.431  14.832
70155SOL    HW212299  13.884   0.283  14.860
70156SOL     OW12300  13.227   6.564  12.697
70156SOL    HW112301  13.134   6.545  12.684
70156SOL    HW212302  13.272   6.486  12.662
70157SOL     OW12303   5.023  12.557   7.054
70157SOL    HW112304   5.087  12.604   7.106
70157SOL    HW212305   4.997  12.483   7.108
70158SOL     OW12306   6.516   8.232   4.122
70158SOL    HW112307   6.552   8.283   4.049
70158SOL    HW212308   6.466   8.295   4.174
70159SOL     OW12309   8.979   2.846   7.420
70159SOL    HW112310   9.069   2.880   7.418
70159SOL    HW212311   8.949   2.862   7.509
70160SOL     OW12312   8.150   3.408   5.189
70160SOL    HW112313   8.240   3.389   5.162
70160SOL    HW212314   8.111   3.452   5.114
70161SOL     OW12315   1.191   4.484   4.103
70161SOL    HW112316   1.177   4.390   4.092
70161SOL    HW212317   1.194   4.497   4.198
70162SOL     OW12318  14.861  10.899   0.655
70162SOL    HW112319  14.838  10.985   0.620
70162SOL    HW212320   0.034  10.857   0.586
70163SOL     OW12321  10.757  10.483   0.450
70163SOL    HW112322  10.838  10.432   0.452
70163SOL    HW212323  10.701  10.440   0.514
70164SOL     OW12324  13.293   8.546   6.725
70164SOL    HW112325  13.278   8.476   6.788
70164SOL    HW212326  13.345   8.611   6.773
70165SOL     OW12327   1.216  10.316   4.782
70165SOL    HW112328   1.129  10.279   4.771
70165SOL    HW212329   1.206  10.381   4.852
70166SOL     OW12330   6.704   3.891   9.469
70166SOL    HW112331   6.704   3.840   9.550
70166SOL    HW212332   6.793   3.924   9.461
70167SOL     OW12333   6.342  12.128  10.368
70167SOL    HW112334   6.375  12.079  10.293
70167SOL    HW212335   6.394  12.097  10.442
70168SOL     OW12336  12.037  12.330  10.744
70168SOL    HW112337  12.038  12.276  10.823
70168SOL    HW212338  12.112  12.299  10.693
70169SOL     OW12339   3.571   3.014   3.944
70169SOL    HW112340   3.605   3.077   4.007
70169SOL    HW212341   3.490   3.054   3.911
70170SOL     OW12342  11.006   3.949   2.099
70170SOL    HW112343  11.006   3.876   2.161
70170SOL    HW212344  11.096   3.981   2.099
70171SOL     OW12345   2.727   3.294  14.375
70171SOL    HW112346   2.710   3.224  14.438
70171SOL    HW212347   2.732   3.250  14.290
70172SOL     OW12348   4.694   9.424  10.830
70172SOL    HW112349   4.615   9.473  10.849
70172SOL    HW212350   4.672   9.333  10.849
70173SOL     OW12351   4.722   2.389   5.261
70173SOL    HW112352   4.692   2.314   5.210
70173SOL    HW212353   4.777   2.351   5.330
70174SOL     OW12354   3.204   0.129   9.926
70174SOL    HW112355   3.157   0.204   9.962
70174SOL    HW212356   3.135   0.071   9.893
70175SOL     OW12357   4.565   3.498  14.043
70175SOL    HW112358   4.528   3.572  14.091
70175SOL    HW212359   4.516   3.496  13.961
70176SOL     OW12360  12.501   2.737  11.982
70176SOL    HW112361  12.456   2.666  11.936
70176SOL    HW212362  12.434   2.804  11.995
70177SOL     OW12363  10.520   4.210  13.843
70177SOL    HW112364  10.551   4.300  13.835
70177SOL    HW212365  10.441   4.208  13.789
70178SOL     OW12366   9.790  14.684   9.868
70178SOL    HW112367   9.833  14.643   9.943
70178SOL    HW212368   9.838  14.766   9.854
70179SOL     OW12369  13.681  12.809   8.115
70179SOL    HW112370  13.612  12.800   8.049
70179SOL    HW212371  13.762  12.801   8.065
70180SOL     OW12372   9.517   0.018   3.530
70180SOL    HW112373   9.488  14.861   3.446
70180SOL    HW212374   9.453  14.865   3.593
70181SOL     OW12375   3.415   5.382   8.091
70181SOL    HW112376   3.490   5.417   8.139
70181SOL    HW212377   3.374   5.320   8.152
70182SOL     OW12378   7.126  10.550   4.562
70182SOL    HW112379   7.058  10.483   4.565
70182SOL    HW212380   7.100  10.615   4.627
70183SOL     OW12381   8.917  11.594   4.310
70183SOL    HW112382   8.862  11.599   4.232
70183SOL    HW212383   8.863  11.632   4.380
70184SOL     OW12384   0.005   2.762   2.677
70184SOL    HW112385  14.817   2.817   2.717
70184SOL    HW212386   0.050   2.821   2.615
70185SOL     OW12387  13.204   8.100  10.795
70185SOL    HW112388  13.111   8.081  10.803
70185SOL    HW212389  13.209   8.196  10.796
70186SOL     OW12390  12.861   2.242   7.966
70186SOL    HW112391  12.888   2.205   8.050
70186SOL    HW212392  12.932   2.220   7.906
70187SOL     OW12393   4.345  10.539   9.021
70187SOL    HW112394   4.265  10.487   9.008
70187SOL    HW212395   4.398  10.485   9.080
70188SOL     OW12396  13.351   5.159   8.761
70188SOL    HW112397  13.402   5.219   8.815
70188SOL    HW212398  13.386   5.170   8.673
70189SOL     OW12399   3.379   0.010   1.612
70189SOL    HW112400   3.287  14.862   1.616
70189SOL    HW212401   3.391   0.068   1.687
70190SOL     OW12402   2.148   4.188   7.420
70190SOL    HW112403   2.117   4.271   7.458
70190SOL    HW212404   2.079   4.125   7.442
70191SOL     OW12405   7.034   5.789   1.929
70191SOL    HW112406   7.104   5.827   1.876
70191SOL    HW212407   6.954   5.833   1.899
70192SOL     OW12408   0.398   1.716   2.667
70192SOL    HW112409   0.305   1.736   2.655
70192SOL    HW212410   0.444   1.793   2.634
70193SOL     OW12411   6.199  13.306  12.071
70193SOL    HW112412   6.154  13.351  12.143
70193SOL    HW212413   6.129  13.285  12.009
70194SOL     OW12414   1.850   7.449  13.064
70194SOL    HW112415   1.906   7.497  13.124
70194SOL    HW212416   1.793   7.516  13.025
70195SOL     OW12417  10.655   5.728   4.503
70195SOL    HW112418  10.709   5.795   4.462
70195SOL    HW212419  10.573   5.730   4.453
70196SOL     OW12420  10.212   3.006   1.415
70196SOL    HW112421  10.285   3.015   1.353
70196SOL    HW212422  10.147   3.069   1.385
70197SOL     OW12423   7.744  13.986   6.001
70197SOL    HW112424   7.763  14.069   6.045
70197SOL    HW212425   7.700  14.012   5.920
70198SOL     OW12426  14.265   9.723   2.530
70198SOL    HW112427  14.203   9.715   2.458
70198SOL    HW212428  14.331   9.785   2.498
70199SOL     OW12429   7.594   2.061   6.281
70199SOL    HW112430   7.550   1.976   6.282
70199SOL    HW212431   7.616   2.078   6.373
70200SOL     OW12432   4.885   0.709  11.684
70200SOL    HW112433   4.818   0.735  11.622
70200SOL    HW212434   4.868   0.616  11.702
70201SOL     OW12435  13.714   5.499   9.800
70201SOL    HW112436  13.670   5.453   9.872
70201SOL    HW212437  13.684   5.454   9.721
70202SOL     OW12438  14.488   7.910  12.946
70202SOL    HW112439  14.483   7.828  12.896
70202SOL    HW212440  14.422   7.900  13.014
70203SOL     OW12441  10.758   9.383  11.038
70203SOL    HW112442  10.744   9.399  11.132
70203SOL    HW212443  10.853   9.375  11.029
70204SOL     OW12444  13.265   0.709   4.461
70204SOL    HW112445  13.318   0.634   4.490
70204SOL    HW212446  13.249   0.692   4.368
70205SOL     OW12447   7.233   1.897   8.848
70205SOL    HW112448   7.203   1.874   8.760
70205SOL    HW212449   7.238   1.992   8.848
70206SOL     OW12450   7.537   2.266   5.229
70206SOL    HW112451   7.482   2.286   5.154
70206SOL    HW212452   7.617   2.229   5.192
70207SOL     OW12453   4.610  12.535   0.374
70207SOL    HW112454   4.517  12.557   0.369
70207SOL    HW212455   4.653  12.601   0.319
70208SOL     OW12456   0.861   5.734  14.063
70208SOL    HW112457   0.844   5.713  13.971
70208SOL    HW212458   0.788   5.696  14.111
70209SOL     OW12459  10.195  11.409   3.348
70209SOL    HW112460  10.127  11.394   3.414
70209SOL    HW212461  10.181  11.340   3.283
70210SOL     OW12462   5.067  13.442   2.178
70210SOL    HW112463   5.041  13.354   2.151
70210SOL    HW212464   5.155  13.431   2.214
70211SOL     OW12465  11.509   6.409  14.770
70211SOL    HW112466  11.519   6.436  14.679
70211SOL    HW212467  11.552   6.324  14.774
70212SOL     OW12468  12.354   8.231  10.812
70212SOL    HW112469  12.351   8.162  10.745
70212SOL    HW212470  12.334   8.186  10.894
70213SOL     OW12471  11.849   9.976   1.505
70213SOL    HW112472  11.883  10.029   1.433
70213SOL    HW212473  11.879  10.021   1.584
70214SOL     OW12474   0.728   7.184   8.970
70214SOL    HW112475   0.813   7.227   8.982
70214SOL    HW212476   0.735   7.103   9.020
70215SOL     OW12477  13.001   5.209   1.845
70215SOL    HW112478  12.952   5.264   1.784
70215SOL    HW212479  13.075   5.177   1.794
70216SOL     OW12480   6.733  12.748  13.042
70216SOL    HW112481   6.761  12.702  13.121
70216SOL    HW212482   6.652  12.704  13.017
70217SOL     OW12483   9.484  13.026   2.969
70217SOL    HW112484   9.512  13.074   2.891
70217SOL    HW212485   9.423  13.084   3.013
70218SOL     OW12486   3.831   2.600   2.311
70218SOL    HW112487   3.858   2.552   2.232
70218SOL    HW212488   3.910   2.600   2.366
70219SOL     OW12489   0.457   9.866   1.533
70219SOL    HW112490   0.497   9.837   1.615
70219SOL    HW212491   0.524   9.853   1.467
70220SOL     OW12492   5.658   9.085   5.463
70220SOL    HW112493   5.620   9.049   5.544
70220SOL    HW212494   5.748   9.053   5.463
70221SOL     OW12495  11.593   9.578   2.548
70221SOL    HW112496  11.606   9.483   2.551
70221SOL    HW212497  11.589   9.605   2.640
70222SOL     OW12498  14.585   2.987  13.779
70222SOL    HW112499  14.630   2.931  13.842
70222SOL    HW212500  14.638   2.980  13.699
70223SOL     OW12501  10.535  13.531  10.643
70223SOL    HW112502  10.622  13.568  10.625
70223SOL    HW212503  10.531  13.526  10.738
70224SOL     OW12504   3.438   7.398   4.146
70224SOL    HW112505   3.518   7.349   4.128
70224SOL    HW212506   3.373   7.330   4.165
70225SOL     OW12507   9.089  12.843  11.953
70225SOL    HW112508   9.143  12.921  11.959
70225SOL    HW212509   9.063  12.838  11.861
70226SOL     OW12510  14.609   0.307  13.302
70226SOL    HW112511  14.687   0.258  13.328
70226SOL    HW212512  14.635   0.399  13.308
70227SOL     OW12513  11.687   1.310  14.843
70227SOL    HW112514  11.737   1.315  14.761
70227SOL    HW212515  11.753   1.292   0.031
70228SOL     OW12516   6.363   5.362  12.225
70228SOL    HW112517   6.294   5.359  12.159
70228SOL    HW212518   6.409   5.278  12.216
70229SOL     OW12519  12.527   4.054   4.808
70229SOL    HW112520  12.481   4.016   4.883
70229SOL    HW212521  12.542   3.980   4.749
70230SOL     OW12522  11.232   0.945   3.929
70230SOL    HW112523  11.247   0.890   3.852
70230SOL    HW212524  11.165   0.898   3.979
70231SOL     OW12525   8.534   0.490  13.338
70231SOL    HW112526   8.566   0.579  13.350
70231SOL    HW212527   8.554   0.468  13.247
70232SOL     OW12528   2.233   3.382  13.262
70232SOL    HW112529   2.152   3.431  13.278
70232SOL    HW212530   2.262   3.412  13.177
70233SOL     OW12531  11.727   1.677   3.323
70233SOL    HW112532  11.701   1.769   3.321
70233SOL    HW212533  11.648   1.631   3.351
70234SOL     OW12534  14.000   0.324   3.248
70234SOL    HW112535  13.932   0.328   3.181
70234SOL    HW212536  14.064   0.391   3.223
70235SOL     OW12537   7.999   6.534   2.218
70235SOL    HW112538   8.076   6.479   2.233
70235SOL    HW212539   7.971   6.563   2.305
70236SOL     OW12540   8.836   0.207  12.409
70236SOL    HW112541   8.816   0.226  12.501
70236SOL    HW212542   8.753   0.176  12.373
70237SOL     OW12543  13.374   6.809   0.371
70237SOL    HW112544  13.342   6.834   0.458
70237SOL    HW212545  13.298   6.816   0.314
70238SOL     OW12546  13.005  12.923   3.755
70238SOL    HW112547  12.967  12.900   3.840
70238SOL    HW212548  12.980  12.852   3.696
70239SOL     OW12549  13.749  14.622   0.138
70239SOL    HW112550  13.804  14.547   0.163
70239SOL    HW212551  13.698  14.591   0.063
70240SOL     OW12552   8.413  13.581   7.321
70240SOL    HW112553   8.377  13.659   7.278
70240SOL    HW212554   8.350  13.561   7.391
70241SOL     OW12555   4.901  10.449   4.893
70241SOL    HW112556   4.868  10.523   4.943
70241SOL    HW212557   4.996  10.456   4.899
70242SOL     OW12558   4.198   3.035   9.931
70242SOL    HW112559   4.199   3.096  10.005
70242SOL    HW212560   4.286   2.996   9.932
70243SOL     OW12561   0.682   3.511   9.987
70243SOL    HW112562   0.759   3.548   9.944
70243SOL    HW212563   0.693   3.532  10.080
70244SOL     OW12564   5.963   6.110  10.679
70244SOL    HW112565   6.055   6.088  10.695
70244SOL    HW212566   5.952   6.100  10.585
70245SOL     OW12567  12.606   6.904   9.669
70245SOL    HW112568  12.619   6.993   9.701
70245SOL    HW212569  12.515   6.883   9.690
70246SOL     OW12570  10.252   1.140   8.097
70246SOL    HW112571  10.290   1.205   8.155
70246SOL    HW212572  10.327   1.091   8.063
70247SOL     OW12573   2.580   5.225   1.817
70247SOL    HW112574   2.598   5.137   1.785
70247SOL    HW212575   2.666   5.261   1.840
70248SOL     OW12576   0.321   5.152   3.232
70248SOL    HW112577   0.389   5.145   3.165
70248SOL    HW212578   0.239   5.136   3.185
70249SOL     OW12579   0.504  10.537   7.088
70249SOL    HW112580   0.575  10.569   7.033
70249SOL    HW212581   0.544  10.470   7.143
70250SOL     OW12582  13.946   8.225  14.326
70250SOL    HW112583  13.980   8.170  14.396
70250SOL    HW212584  13.906   8.299  14.372
70251SOL     OW12585   0.317  14.064   7.206
70251SOL    HW112586   0.288  14.056   7.115
70251SOL    HW212587   0.340  14.156   7.216
70252SOL     OW12588   2.180  14.306   0.472
70252SOL    HW112589   2.233  14.326   0.395
70252SOL    HW212590   2.149  14.390   0.503
70253SOL     OW12591   0.139   3.839   1.768
70253SOL    HW112592   0.146   3.749   1.800
70253SOL    HW212593   0.182   3.837   1.682
70254SOL     OW12594   7.788   8.265   3.498
70254SOL    HW112595   7.741   8.312   3.567
70254SOL    HW212596   7.772   8.173   3.516
70255SOL     OW12597   4.312  10.680  13.317
70255SOL    HW112598   4.337  10.750  13.256
70255SOL    HW212599   4.218  10.669  13.304
70256SOL     OW12600   2.502   7.476   2.699
70256SOL    HW112601   2.497   7.399   2.643
70256SOL    HW212602   2.411   7.496   2.720
70257SOL     OW12603   3.373   2.072  10.388
70257SOL    HW112604   3.299   2.012  10.382
70257SOL    HW212605   3.431   2.047  10.315
70258SOL     OW12606   8.884   2.710  13.291
70258SOL    HW112607   8.937   2.676  13.362
70258SOL    HW212608   8.872   2.635  13.232
70259SOL     OW12609  13.984  11.020  14.061
70259SOL    HW112610  13.910  10.971  14.025
70259SOL    HW212611  14.014  10.967  14.135
70260SOL     OW12612  12.808  10.045   0.800
70260SOL    HW112613  12.882   9.986   0.789
70260SOL    HW212614  12.847  10.128   0.828
70261SOL     OW12615   4.563   4.115   9.021
70261SOL    HW112616   4.582   4.111   8.927
70261SOL    HW212617   4.500   4.045   9.036
70262SOL     OW12618  12.122   0.271  11.111
70262SOL    HW112619  12.104   0.363  11.092
70262SOL    HW212620  12.035   0.229  11.113
70263SOL     OW12621   9.825   3.340   8.509
70263SOL    HW112622   9.856   3.253   8.481
70263SOL    HW212623   9.743   3.322   8.555
70264SOL     OW12624   4.954   1.159  10.248
70264SOL    HW112625   4.902   1.239  10.246
70264SOL    HW212626   5.037   1.184  10.288
70265SOL     OW12627  13.528   0.130  13.409
70265SOL    HW112628  13.595   0.062  13.399
70265SOL    HW212629  13.472   0.098  13.480
70266SOL     OW12630  13.634  11.165  14.502
70266SOL    HW112631  13.578  11.207  14.436
70266SOL    HW212632  13.721  11.201  14.486
70267SOL     OW12633   6.699   0.627  13.960
70267SOL    HW112634   6.635   0.582  13.904
70267SOL    HW212635   6.658   0.712  13.979
70268SOL     OW12636   6.092   2.659   1.269
70268SOL    HW112637   6.078   2.566   1.290
70268SOL    HW212638   6.178   2.661   1.225
70269SOL     OW12639  12.413  12.402   3.367
70269SOL    HW112640  12.327  12.411   3.407
70269SOL    HW212641  12.446  12.491   3.359
70270SOL     OW12642   8.595   3.759  11.056
70270SOL    HW112643   8.621   3.696  10.989
70270SOL    HW212644   8.589   3.842  11.010
70271SOL     OW12645   7.593   9.696   3.576
70271SOL    HW112646   7.558   9.656   3.656
70271SOL    HW212647   7.557   9.644   3.505
70272SOL     OW12648   7.884   7.714   3.608
70272SOL    HW112649   7.923   7.655   3.673
70272SOL    HW212650   7.953   7.777   3.589
70273SOL     OW12651   6.112   5.120   1.402
70273SOL    HW112652   6.025   5.102   1.436
70273SOL    HW212653   6.097   5.151   1.312
70274SOL     OW12654  12.937  10.748  10.118
70274SOL    HW112655  12.844  10.770  10.122
70274SOL    HW212656  12.943  10.689  10.042
70275SOL     OW12657   9.807  11.113   9.177
70275SOL    HW112658   9.858  11.175   9.230
70275SOL    HW212659   9.859  11.103   9.097
70276SOL     OW12660  14.001   8.828   9.169
70276SOL    HW112661  13.962   8.765   9.229
70276SOL    HW212662  13.954   8.816   9.087
70277SOL     OW12663  13.113   4.831  11.484
70277SOL    HW112664  13.132   4.917  11.520
70277SOL    HW212665  13.094   4.776  11.560
70278SOL     OW12666   4.760   3.752  10.352
70278SOL    HW112667   4.801   3.711  10.276
70278SOL    HW212668   4.829   3.754  10.418
70279SOL     OW12669   7.351   6.780   0.564
70279SOL    HW112670   7.444   6.785   0.586
70279SOL    HW212671   7.307   6.790   0.648
70280SOL     OW12672   3.161   3.786   8.928
70280SOL    HW112673   3.159   3.793   9.024
70280SOL    HW212674   3.072   3.808   8.900
70281SOL     OW12675   4.498  14.299  13.186
70281SOL    HW112676   4.417  14.317  13.234
70281SOL    HW212677   4.561  14.274  13.254
70282SOL     OW12678  11.829  11.595   1.100
70282SOL    HW112679  11.849  11.676   1.146
70282SOL    HW212680  11.760  11.618   1.038
70283SOL     OW12681   6.131  13.990  11.477
70283SOL    HW112682   6.211  13.970  11.428
70283SOL    HW212683   6.159  14.056  11.541
70284SOL     OW12684  14.802  10.327   1.715
70284SOL    HW112685  14.843  10.248   1.681
70284SOL    HW212686  14.787  10.308   1.808
70285SOL     OW12687   3.715   1.182   5.400
70285SOL    HW112688   3.698   1.260   5.453
70285SOL    HW212689   3.664   1.113   5.443
70286SOL     OW12690  13.764   8.130  11.705
70286SOL    HW112691  13.827   8.122  11.777
70286SOL    HW212692  13.724   8.043  11.698
70287SOL     OW12693  13.826  14.114   8.839
70287SOL    HW112694  13.868  14.200   8.831
70287SOL    HW212695  13.733  14.135   8.851
70288SOL     OW12696   1.063   7.301   5.680
70288SOL    HW112697   1.076   7.216   5.637
70288SOL    HW212698   0.968   7.316   5.674
70289SOL     OW12699   7.670   1.834   8.289
70289SOL    HW112700   7.757   1.818   8.252
70289SOL    HW212701   7.628   1.894   8.228
70290SOL     OW12702  11.622   8.973  14.617
70290SOL    HW112703  11.542   9.019  14.642
70290SOL    HW212704  11.613   8.958  14.523
70291SOL     OW12705   6.804  11.158   9.306
70291SOL    HW112706   6.721  11.111   9.318
70291SOL    HW212707   6.783  11.227   9.242
70292SOL     OW12708   3.532  12.196   3.765
70292SOL    HW112709   3.453  12.160   3.806
70292SOL    HW212710   3.533  12.288   3.790
70293SOL     OW12711  13.584  11.402  13.910
70293SOL    HW112712  13.597  11.361  13.996
70293SOL    HW212713  13.493  11.382  13.887
70294SOL     OW12714   0.644  13.495   1.588
70294SOL    HW112715   0.686  13.578   1.608
70294SOL    HW212716   0.699  13.430   1.633
70295SOL     OW12717   3.755  12.428  13.060
70295SOL    HW112718   3.789  12.471  12.982
70295SOL    HW212719   3.665  12.460  13.069
70296SOL     OW12720   8.723  14.206   0.467
70296SOL    HW112721   8.737  14.239   0.378
70296SOL    HW212722   8.755  14.276   0.523
70297SOL     OW12723   6.588   1.090  13.463
70297SOL    HW112724   6.554   1.125  13.381
70297SOL    HW212725   6.681   1.113  13.462
70298SOL     OW12726   1.864  10.212   2.655
70298SOL    HW112727   1.791  10.271   2.635
70298SOL    HW212728   1.849  10.185   2.745
70299SOL     OW12729  14.658   6.645   7.830
70299SOL    HW112730  14.732   6.586   7.844
70299SOL    HW212731  14.664   6.671   7.738
70300SOL     OW12732  11.209   4.881  11.206
70300SOL    HW112733  11.206   4.931  11.124
70300SOL    HW212734  11.193   4.790  11.179
70301SOL     OW12735   8.435   0.490  12.862
70301SOL    HW112736   8.361   0.437  12.891
70301SOL    HW212737   8.396   0.574  12.836
70302SOL     OW12738  10.041   1.133   0.694
70302SOL    HW112739   9.976   1.076   0.653
70302SOL    HW212740  10.078   1.079   0.765
70303SOL     OW12741   4.607  12.782  14.678
70303SOL    HW112742   4.630  12.698  14.639
70303SOL    HW212743   4.559  12.759  14.758
70304SOL     OW12744   2.398   2.428   7.470
70304SOL    HW112745   2.307   2.446   7.444
70304SOL    HW212746   2.428   2.362   7.408
70305SOL     OW12747   9.115   1.221  13.390
70305SOL    HW112748   9.137   1.229  13.298
70305SOL    HW212749   9.199   1.213  13.435
70306SOL     OW12750   0.128   6.183   0.833
70306SOL    HW112751   0.187   6.211   0.902
70306SOL    HW212752   0.170   6.213   0.752
70307SOL     OW12753   3.880  14.164   5.598
70307SOL    HW112754   3.884  14.090   5.537
70307SOL    HW212755   3.933  14.137   5.673
70308SOL     OW12756   6.397   7.733   4.353
70308SOL    HW112757   6.315   7.686   4.335
70308SOL    HW212758   6.423   7.768   4.268
70309SOL     OW12759   2.527   9.217  10.702
70309SOL    HW112760   2.501   9.283  10.638
70309SOL    HW212761   2.497   9.252  10.786
70310SOL     OW12762   9.949   9.529   2.545
70310SOL    HW112763   9.874   9.477   2.575
70310SOL    HW212764  10.022   9.499   2.599
70311SOL     OW12765   7.751   3.586   2.957
70311SOL    HW112766   7.783   3.589   2.867
70311SOL    HW212767   7.830   3.597   3.011
70312SOL     OW12768   0.908  13.097   1.462
70312SOL    HW112769   0.876  13.173   1.414
70312SOL    HW212770   0.849  13.026   1.435
70313SOL     OW12771   7.224   9.100  12.129
70313SOL    HW112772   7.135   9.076  12.153
70313SOL    HW212773   7.280   9.047  12.187
70314SOL     OW12774  10.965   8.632   1.858
70314SOL    HW112775  11.001   8.720   1.868
70314SOL    HW212776  10.877   8.645   1.824
70315SOL     OW12777   5.850  10.654  13.146
70315SOL    HW112778   5.850  10.560  13.129
70315SOL    HW212779   5.885  10.693  13.065
70316SOL     OW12780   6.215   9.285   3.830
70316SOL    HW112781   6.259   9.241   3.758
70316SOL    HW212782   6.280   9.287   3.900
70317SOL     OW12783   5.019   4.263   6.579
70317SOL    HW112784   5.101   4.217   6.595
70317SOL    HW212785   4.957   4.194   6.557
70318SOL     OW12786  14.613  11.282  10.311
70318SOL    HW112787  14.592  11.201  10.265
70318SOL    HW212788  14.528  11.325  10.323
70319SOL     OW12789   0.645  13.393   8.685
70319SOL    HW112790   0.618  13.418   8.774
70319SOL    HW212791   0.563  13.370   8.641
70320SOL     OW12792   1.985  13.371   8.773
70320SOL    HW112793   1.912  13.327   8.729
70320SOL    HW212794   2.002  13.317   8.850
70321SOL     OW12795  13.695   3.226  13.225
70321SOL    HW112796  13.679   3.292  13.293
70321SOL    HW212797  13.784   3.195  13.242
70322SOL     OW12798   8.202   0.832   7.525
70322SOL    HW112799   8.231   0.859   7.612
70322SOL    HW212800   8.166   0.744   7.537
70323SOL     OW12801  13.478  10.992  11.447
70323SOL    HW112802  13.532  10.927  11.494
70323SOL    HW212803  13.474  10.960  11.357
70324SOL     OW12804   5.748   0.420  13.961
70324SOL    HW112805   5.758   0.345  13.902
70324SOL    HW212806   5.678   0.394  14.021
70325SOL     OW12807   3.256  12.653   6.954
70325SOL    HW112808   3.285  12.603   7.030
70325SOL    HW212809   3.237  12.586   6.888
70326SOL     OW12810  12.821  11.224   1.105
70326SOL    HW112811  12.785  11.265   1.183
70326SOL    HW212812  12.762  11.150   1.087
70327SOL     OW12813   4.361  10.352   1.980
70327SOL    HW112814   4.386  10.363   2.071
70327SOL    HW212815   4.383  10.261   1.960
70328SOL     OW12816   1.009   7.012   7.553
70328SOL    HW112817   1.014   7.082   7.488
70328SOL    HW212818   0.922   7.021   7.591
70329SOL     OW12819   4.237   7.502   9.625
70329SOL    HW112820   4.325   7.498   9.589
70329SOL    HW212821   4.226   7.419   9.673
70330SOL     OW12822  13.994   1.941   0.263
70330SOL    HW112823  14.047   1.929   0.341
70330SOL    HW212824  14.032   1.881   0.199
70331SOL     OW12825  13.352   6.914  13.850
70331SOL    HW112826  13.406   6.844  13.813
70331SOL    HW212827  13.271   6.872  13.877
70332SOL     OW12828   6.321   0.818  10.558
70332SOL    HW112829   6.401   0.846  10.514
70332SOL    HW212830   6.334   0.843  10.650
70333SOL     OW12831   7.081   6.931   8.277
70333SOL    HW112832   7.099   6.940   8.183
70333SOL    HW212833   7.064   7.021   8.306
70334SOL     OW12834   9.447   0.663   1.046
70334SOL    HW112835   9.368   0.647   1.097
70334SOL    HW212836   9.518   0.657   1.109
70335SOL     OW12837   8.541   3.878  14.367
70335SOL    HW112838   8.510   3.794  14.334
70335SOL    HW212839   8.608   3.905  14.304
70336SOL     OW12840  14.600   5.486   0.225
70336SOL    HW112841  14.623   5.525   0.141
70336SOL    HW212842  14.504   5.493   0.229
70337SOL     OW12843  11.267   3.456  13.421
70337SOL    HW112844  11.260   3.526  13.356
70337SOL    HW212845  11.311   3.384  13.375
70338SOL     OW12846   0.031   8.067   6.862
70338SOL    HW112847   0.087   7.991   6.846
70338SOL    HW212848  14.829   8.048   6.815
70339SOL     OW12849   8.660  12.820   1.677
70339SOL    HW112850   8.583  12.781   1.637
70339SOL    HW212851   8.699  12.749   1.727
70340SOL     OW12852   5.783  10.087   9.872
70340SOL    HW112853   5.784  10.045   9.958
70340SOL    HW212854   5.733  10.028   9.817
70341SOL     OW12855  11.892   9.888  12.405
70341SOL    HW112856  11.808   9.873  12.449
70341SOL    HW212857  11.948   9.817  12.436
70342SOL     OW12858   4.950   2.684   2.660
70342SOL    HW112859   4.972   2.666   2.751
70342SOL    HW212860   5.026   2.651   2.610
70343SOL     OW12861   0.059   4.852   0.875
70343SOL    HW112862   0.149   4.821   0.885
70343SOL    HW212863   0.063   4.945   0.894
70344SOL     OW12864  13.623   3.840   9.710
70344SOL    HW112865  13.682   3.776   9.749
70344SOL    HW212866  13.562   3.789   9.658
70345SOL     OW12867  13.063   4.989   9.251
70345SOL    HW112868  13.094   5.041   9.325
70345SOL    HW212869  13.101   5.030   9.174
70346SOL     OW12870  11.413   4.013   9.924
70346SOL    HW112871  11.464   3.935   9.947
70346SOL    HW212872  11.436   4.031   9.833
70347SOL     OW12873  10.243   2.118  14.396
70347SOL    HW112874  10.308   2.167  14.445
70347SOL    HW212875  10.227   2.171  14.318
70348SOL     OW12876   2.597   4.143   2.552
70348SOL    HW112877   2.531   4.085   2.516
70348SOL    HW212878   2.548   4.220   2.582
70349SOL     OW12879   9.567   7.269   9.884
70349SOL    HW112880   9.488   7.244   9.836
70349SOL    HW212881   9.585   7.359   9.855
70350SOL     OW12882   7.336  13.373   2.537
70350SOL    HW112883   7.380  13.296   2.572
70350SOL    HW212884   7.249  13.371   2.578
70351SOL     OW12885  11.725   8.923   1.644
70351SOL    HW112886  11.805   8.921   1.697
70351SOL    HW212887  11.747   8.876   1.564
70352SOL     OW12888  14.114  14.364   4.945
70352SOL    HW112889  14.108  14.434   4.881
70352SOL    HW212890  14.141  14.408   5.026
70353SOL     OW12891  14.291   2.899  11.616
70353SOL    HW112892  14.328   2.913  11.704
70353SOL    HW212893  14.223   2.833  11.629
70354SOL     OW12894  11.526  10.233   9.859
70354SOL    HW112895  11.568  10.151   9.837
70354SOL    HW212896  11.560  10.255   9.946
70355SOL     OW12897   8.380   0.080   1.230
70355SOL    HW112898   8.394   0.032   1.312
70355SOL    HW212899   8.293   0.119   1.239
70356SOL     OW12900  14.704   4.069   4.446
70356SOL    HW112901  14.655   4.151   4.453
70356SOL    HW212902  14.743   4.057   4.532
70357SOL     OW12903   5.417   0.364  14.464
70357SOL    HW112904   5.412   0.401  14.376
70357SOL    HW212905   5.333   0.320  14.476
70358SOL     OW12906   5.120   7.946   3.085
70358SOL    HW112907   5.081   8.016   3.033
70358SOL    HW212908   5.197   7.919   3.035
70359SOL     OW12909  13.781  11.160  10.356
70359SOL    HW112910  13.809  11.187  10.443
70359SOL    HW212911  13.704  11.213  10.338
70360SOL     OW12912   8.628   2.690  12.338
70360SOL    HW112913   8.666   2.758  12.395
70360SOL    HW212914   8.539   2.721  12.322
70361SOL     OW12915   9.917  10.910   6.915
70361SOL    HW112916   9.973  10.880   6.844
70361SOL    HW212917   9.852  10.967   6.873
70362SOL     OW12918   2.224   2.431  13.940
70362SOL    HW112919   2.196   2.468  14.024
70362SOL    HW212920   2.319   2.425  13.947
70363SOL     OW12921  12.382   8.152   6.756
70363SOL    HW112922  12.298   8.109   6.771
70363SOL    HW212923  12.434   8.129   6.834
70364SOL     OW12924   1.874  12.236   2.305
70364SOL    HW112925   1.827  12.313   2.336
70364SOL    HW212926   1.896  12.256   2.215
70365SOL     OW12927   0.021   0.113   9.341
70365SOL    HW112928  14.840   0.172   9.386
70365SOL    HW212929  14.847   0.038   9.316
70366SOL     OW12930  12.514   6.129  12.092
70366SOL    HW112931  12.578   6.157  12.026
70366SOL    HW212932  12.564   6.072  12.151
70367SOL     OW12933   7.120  12.486   6.254
70367SOL    HW112934   7.114  12.393   6.229
70367SOL    HW212935   7.108  12.487   6.348
70368SOL     OW12936   8.877   0.989   2.890
70368SOL    HW112937   8.822   0.924   2.934
70368SOL    HW212938   8.909   1.046   2.960
70369SOL     OW12939   9.901   6.808   3.205
70369SOL    HW112940   9.957   6.760   3.144
70369SOL    HW212941   9.827   6.837   3.152
70370SOL     OW12942   4.034   6.291   8.869
70370SOL    HW112943   4.118   6.331   8.893
70370SOL    HW212944   4.058   6.210   8.825
70371SOL     OW12945   7.289  11.979   3.191
70371SOL    HW112946   7.241  12.048   3.146
70371SOL    HW212947   7.336  12.025   3.261
70372SOL     OW12948  13.202  14.643  12.787
70372SOL    HW112949  13.184  14.706  12.858
70372SOL    HW212950  13.280  14.677  12.743
70373SOL     OW12951   3.647   1.974  13.527
70373SOL    HW112952   3.665   2.054  13.576
70373SOL    HW212953   3.644   1.905  13.594
70374SOL     OW12954   1.125   0.668   3.916
70374SOL    HW112955   1.075   0.615   3.978
70374SOL    HW212956   1.162   0.739   3.969
70375SOL     OW12957   9.956  11.557   4.962
70375SOL    HW112958   9.965  11.541   4.868
70375SOL    HW212959   9.891  11.492   4.991
70376SOL     OW12960   0.747   0.378   1.219
70376SOL    HW112961   0.661   0.382   1.261
70376SOL    HW212962   0.809   0.395   1.290
70377SOL     OW12963   7.552   0.279   6.220
70377SOL    HW112964   7.610   0.245   6.152
70377SOL    HW212965   7.566   0.373   6.219
70378SOL     OW12966  12.683   5.071   8.251
70378SOL    HW112967  12.590   5.056   8.273
70378SOL    HW212968  12.711   4.988   8.212
70379SOL     OW12969   4.631   1.083   4.795
70379SOL    HW112970   4.539   1.089   4.770
70379SOL    HW212971   4.676   1.148   4.740
70380SOL     OW12972   8.153  10.969  10.547
70380SOL    HW112973   8.188  11.018  10.473
70380SOL    HW212974   8.215  10.898  10.561
70381SOL     OW12975   8.959  14.352   1.655
70381SOL    HW112976   8.893  14.375   1.721
70381SOL    HW212977   9.006  14.278   1.693
70382SOL     OW12978   0.852  10.115   1.952
70382SOL    HW112979   0.898  10.039   1.916
70382SOL    HW212980   0.910  10.147   2.021
70383SOL     OW12981   9.953   2.309  13.334
70383SOL    HW112982  10.036   2.312  13.381
70383SOL    HW212983   9.897   2.251  13.386
70384SOL     OW12984  12.658  11.116   7.324
70384SOL    HW112985  12.581  11.092   7.272
70384SOL    HW212986  12.731  11.073   7.279
70385SOL     OW12987  10.569   2.894   1.964
70385SOL    HW112988  10.658   2.868   1.989
70385SOL    HW212989  10.544   2.831   1.896
70386SOL     OW12990   8.351   2.380  13.702
70386SOL    HW112991   8.277   2.321  13.686
70386SOL    HW212992   8.312   2.467  13.706
70387SOL     OW12993   4.579   7.395  13.621
70387SOL    HW112994   4.662   7.422  13.582
70387SOL    HW212995   4.520   7.381  13.547
70388SOL     OW12996   8.983   0.772  11.331
70388SOL    HW112997   9.008   0.836  11.398
70388SOL    HW212998   9.059   0.714  11.324
70389SOL     OW12999  12.305  13.007  13.201
70389SOL    HW113000  12.342  12.923  13.172
70389SOL    HW213001  12.326  13.011  13.294
70390SOL     OW13002  13.814   8.027   5.918
70390SOL    HW113003  13.851   8.060   6.000
70390SOL    HW213004  13.721   8.049   5.923
70391SOL     OW13005  11.774  14.434   3.377
70391SOL    HW113006  11.691  14.414   3.334
70391SOL    HW213007  11.837  14.439   3.305
70392SOL     OW13008   3.022  13.872  13.092
70392SOL    HW113009   3.113  13.901  13.093
70392SOL    HW213010   2.990  13.889  13.181
70393SOL     OW13011   2.596   4.902   7.269
70393SOL    HW113012   2.632   4.963   7.204
70393SOL    HW213013   2.616   4.815   7.234
70394SOL     OW13014  13.269   0.678   1.280
70394SOL    HW113015  13.227   0.751   1.233
70394SOL    HW213016  13.199   0.638   1.330
70395SOL     OW13017   2.077  13.455   1.513
70395SOL    HW113018   2.114  13.391   1.454
70395SOL    HW213019   2.086  13.539   1.467
70396SOL     OW13020   5.017  14.296   6.151
70396SOL    HW113021   5.053  14.259   6.232
70396SOL    HW213022   4.943  14.349   6.180
70397SOL     OW13023   3.015  11.804  11.178
70397SOL    HW113024   3.029  11.801  11.084
70397SOL    HW213025   2.980  11.891  11.195
70398SOL     OW13026   8.069   4.416  12.680
70398SOL    HW113027   8.011   4.490  12.665
70398SOL    HW213028   8.025   4.364  12.747
70399SOL     OW13029   2.827   8.603  13.732
70399SOL    HW113030   2.738   8.568  13.737
70399SOL    HW213031   2.828   8.653  13.651
70400SOL     OW13032  14.808   8.965   9.214
70400SOL    HW113033  14.847   9.018   9.282
70400SOL    HW213034  14.715   8.962   9.236
70401SOL     OW13035   0.765  10.937  10.517
70401SOL    HW113036   0.788  10.844  10.516
70401SOL    HW213037   0.823  10.976  10.452
70402SOL     OW13038  12.372   7.488  10.249
70402SOL    HW113039  12.322   7.432  10.191
70402SOL    HW213040  12.307   7.529  10.306
70403SOL     OW13041   0.309  12.042   4.746
70403SOL    HW113042   0.228  12.001   4.716
70403SOL    HW213043   0.331  11.994   4.826
70404SOL     OW13044   4.219   5.216  10.727
70404SOL    HW113045   4.167   5.256  10.797
70404SOL    HW213046   4.159   5.210  10.653
70405SOL     OW13047   9.636   7.035   0.609
70405SOL    HW113048   9.595   6.949   0.620
70405SOL    HW213049   9.563   7.096   0.609
70406SOL     OW13050  14.083   6.976  12.071
70406SOL    HW113051  14.134   7.046  12.112
70406SOL    HW213052  14.121   6.895  12.106
70407SOL     OW13053  12.296  12.448   7.218
70407SOL    HW113054  12.289  12.466   7.312
70407SOL    HW213055  12.356  12.374   7.212
70408SOL     OW13056   3.294  11.989  10.674
70408SOL    HW113057   3.379  12.013  10.711
70408SOL    HW213058   3.299  12.017  10.583
70409SOL     OW13059  12.369  14.224   1.564
70409SOL    HW113060  12.463  14.237   1.553
70409SOL    HW213061  12.335  14.310   1.588
70410SOL     OW13062  12.970   2.549  13.763
70410SOL    HW113063  12.992   2.641  13.748
70410SOL    HW213064  12.959   2.512  13.676
70411SOL     OW13065  13.399   2.608  13.090
70411SOL    HW113066  13.478   2.602  13.144
70411SOL    HW213067  13.362   2.694  13.112
70412SOL     OW13068  10.877  14.595  10.688
70412SOL    HW113069  10.940  14.633  10.749
70412SOL    HW213070  10.805  14.658  10.687
70413SOL     OW13071   0.495  12.625   8.139
70413SOL    HW113072   0.575  12.677   8.124
70413SOL    HW213073   0.518  12.567   8.211
70414SOL     OW13074   5.536   8.000   9.016
70414SOL    HW113075   5.600   8.071   9.014
70414SOL    HW213076   5.469   8.029   9.077
70415SOL     OW13077  14.875   9.421   7.400
70415SOL    HW113078  14.846   9.465   7.480
70415SOL    HW213079  14.795   9.412   7.348
70416SOL     OW13080  14.405   3.553  12.933
70416SOL    HW113081  14.329   3.587  12.979
70416SOL    HW213082  14.386   3.460  12.921
70417SOL     OW13083  13.647  13.305   8.651
70417SOL    HW113084  13.665  13.248   8.726
70417SOL    HW213085  13.722  13.363   8.646
70418SOL     OW13086   5.185   8.746   7.789
70418SOL    HW113087   5.181   8.834   7.751
70418SOL    HW213088   5.160   8.759   7.881
70419SOL     OW13089   0.277  11.065   6.413
70419SOL    HW113090   0.241  10.977   6.410
70419SOL    HW213091   0.236  11.106   6.489
70420SOL     OW13092   1.157   3.892   0.050
70420SOL    HW113093   1.229   3.955   0.058
70420SOL    HW213094   1.095   3.935  14.871
70421SOL     OW13095   7.250   1.386  11.048
70421SOL    HW113096   7.228   1.430  10.966
70421SOL    HW213097   7.252   1.293  11.025
70422SOL     OW13098   5.587   7.176   5.983
70422SOL    HW113099   5.628   7.186   6.069
70422SOL    HW213100   5.560   7.085   5.980
70423SOL     OW13101  14.120  14.692   6.735
70423SOL    HW113102  14.133  14.625   6.803
70423SOL    HW213103  14.202  14.741   6.735
70424SOL     OW13104   5.784   4.041   8.429
70424SOL    HW113105   5.787   4.058   8.523
70424SOL    HW213106   5.816   4.122   8.389
70425SOL     OW13107   5.344  13.605  13.600
70425SOL    HW113108   5.253  13.624  13.620
70425SOL    HW213109   5.359  13.644  13.514
70426SOL     OW13110  13.650  14.687   4.656
70426SOL    HW113111  13.664  14.665   4.749
70426SOL    HW213112  13.583  14.756   4.658
70427SOL     OW13113   8.579   3.253  11.581
70427SOL    HW113114   8.666   3.258  11.622
70427SOL    HW213115   8.594   3.205  11.500
70428SOL     OW13116   5.889   9.105   1.947
70428SOL    HW113117   5.807   9.116   1.995
70428SOL    HW213118   5.901   9.188   1.902
70429SOL     OW13119   4.382  10.857   8.864
70429SOL    HW113120   4.372  10.809   8.782
70429SOL    HW213121   4.476  10.872   8.872
70430SOL     OW13122   1.927   1.496  14.604
70430SOL    HW113123   1.847   1.545  14.624
70430SOL    HW213124   1.900   1.405  14.605
70431SOL     OW13125  13.484   0.788   5.185
70431SOL    HW113126  13.569   0.826   5.209
70431SOL    HW213127  13.495   0.760   5.094
70432SOL     OW13128   1.387   6.884   3.051
70432SOL    HW113129   1.349   6.859   2.967
70432SOL    HW213130   1.337   6.834   3.116
70433SOL     OW13131  13.327   7.838  12.951
70433SOL    HW113132  13.413   7.817  12.917
70433SOL    HW213133  13.305   7.923  12.912
70434SOL     OW13134  14.133  13.227   0.228
70434SOL    HW113135  14.222  13.231   0.195
70434SOL    HW213136  14.126  13.141   0.270
70435SOL     OW13137   0.797   0.862  12.070
70435SOL    HW113138   0.719   0.886  12.119
70435SOL    HW213139   0.821   0.942  12.023
70436SOL     OW13140   4.743   3.476   3.123
70436SOL    HW113141   4.688   3.552   3.110
70436SOL    HW213142   4.774   3.483   3.213
70437SOL     OW13143  10.393  14.461  12.296
70437SOL    HW113144  10.400  14.428  12.385
70437SOL    HW213145  10.360  14.386  12.245
70438SOL     OW13146  11.540   2.736  14.085
70438SOL    HW113147  11.473   2.678  14.122
70438SOL    HW213148  11.579   2.685  14.014
70439SOL     OW13149   4.273  11.082   6.118
70439SOL    HW113150   4.338  11.134   6.071
70439SOL    HW213151   4.316  11.054   6.198
70440SOL     OW13152   9.281  12.898   9.643
70440SOL    HW113153   9.200  12.949   9.654
70440SOL    HW213154   9.282  12.874   9.551
70441SOL     OW13155   1.777   1.029   1.021
70441SOL    HW113156   1.852   1.003   0.968
70441SOL    HW213157   1.798   1.117   1.051
70442SOL     OW13158  11.831   5.268   4.583
70442SOL    HW113159  11.866   5.179   4.579
70442SOL    HW213160  11.813   5.283   4.676
70443SOL     OW13161   0.303   6.128   9.075
70443SOL    HW113162   0.285   6.186   9.000
70443SOL    HW213163   0.231   6.065   9.074
70444SOL     OW13164   9.977  11.779   8.518
70444SOL    HW113165  10.001  11.713   8.454
70444SOL    HW213166  10.007  11.743   8.602
70445SOL     OW13167  12.896   1.805   9.818
70445SOL    HW113168  12.964   1.862   9.855
70445SOL    HW213169  12.814   1.843   9.849
70446SOL     OW13170   6.716  10.128   7.102
70446SOL    HW113171   6.730  10.110   7.195
70446SOL    HW213172   6.799  10.163   7.071
70447SOL     OW13173   8.542   4.065   2.780
70447SOL    HW113174   8.611   4.125   2.750
70447SOL    HW213175   8.551   3.988   2.722
70448SOL     OW13176  11.281   6.651   1.305
70448SOL    HW113177  11.349   6.669   1.370
70448SOL    HW213178  11.238   6.735   1.291
70449SOL     OW13179   8.581   2.397   2.112
70449SOL    HW113180   8.637   2.395   2.190
70449SOL    HW213181   8.500   2.437   2.142
70450SOL     OW13182   3.807   5.688  13.008
70450SOL    HW113183   3.867   5.734  12.950
70450SOL    HW213184   3.820   5.596  12.989
70451SOL     OW13185   7.831  12.887   7.464
70451SOL    HW113186   7.745  12.847   7.479
70451SOL    HW213187   7.880  12.819   7.416
70452SOL     OW13188  14.180  13.326  11.878
70452SOL    HW113189  14.224  13.298  11.798
70452SOL    HW213190  14.112  13.260  11.892
70453SOL     OW13191   7.224  13.820  13.713
70453SOL    HW113192   7.316  13.818  13.741
70453SOL    HW213193   7.186  13.741  13.753
70454SOL     OW13194   9.956   9.484  13.644
70454SOL    HW113195   9.902   9.498  13.566
70454SOL    HW213196   9.954   9.568  13.690
70455SOL     OW13197   6.861   0.646  14.626
70455SOL    HW113198   6.874   0.696  14.706
70455SOL    HW213199   6.883   0.708  14.556
70456SOL     OW13200   4.617   9.915  11.884
70456SOL    HW113201   4.555   9.912  11.958
70456SOL    HW213202   4.566   9.949  11.811
70457SOL     OW13203   4.919   4.303  13.138
70457SOL    HW113204   4.871   4.288  13.220
70457SOL    HW213205   4.948   4.394  13.144
70458SOL     OW13206  10.681   5.854  12.879
70458SOL    HW113207  10.752   5.799  12.913
70458SOL    HW213208  10.701   5.942  12.912
70459SOL     OW13209   8.271   4.039   8.707
70459SOL    HW113210   8.312   4.124   8.721
70459SOL    HW213211   8.329   3.994   8.645
70460SOL     OW13212  13.230   4.362  13.702
70460SOL    HW113213  13.253   4.340  13.793
70460SOL    HW213214  13.142   4.401  13.709
70461SOL     OW13215  13.359  10.664   6.044
70461SOL    HW113216  13.319  10.579   6.023
70461SOL    HW213217  13.440  10.642   6.091
70462SOL     OW13218  11.413   1.453   5.035
70462SOL    HW113219  11.385   1.398   5.109
70462SOL    HW213220  11.342   1.445   4.971
70463SOL     OW13221   8.687  10.484   6.883
70463SOL    HW113222   8.746  10.505   6.955
70463SOL    HW213223   8.603  10.523   6.907
70464SOL     OW13224   1.416   0.063  14.621
70464SOL    HW113225   1.360   0.094  14.549
70464SOL    HW213226   1.466  14.870  14.584
70465SOL     OW13227   2.043   7.161  13.684
70465SOL    HW113228   2.116   7.168  13.622
70465SOL    HW213229   2.023   7.068  13.688
70466SOL     OW13230   5.160  14.838   1.804
70466SOL    HW113231   5.096  14.791   1.858
70466SOL    HW213232   5.165  14.788   1.723
70467SOL     OW13233  10.213  14.042  13.465
70467SOL    HW113234  10.253  14.016  13.548
70467SOL    HW213235  10.162  13.966  13.438
70468SOL     OW13236  12.578   3.977   5.621
70468SOL    HW113237  12.590   4.048   5.684
70468SOL    HW213238  12.645   3.991   5.555
70469SOL     OW13239   4.758   6.694   5.091
70469SOL    HW113240   4.683   6.690   5.152
70469SOL    HW213241   4.730   6.754   5.023
70470SOL     OW13242   5.386   4.226  12.564
70470SOL    HW113243   5.430   4.309  12.545
70470SOL    HW213244   5.293   4.249  12.563
70471SOL     OW13245  10.786   2.816  13.392
70471SOL    HW113246  10.750   2.730  13.416
70471SOL    HW213247  10.751   2.832  13.305
70472SOL     OW13248  11.617   7.589   0.395
70472SOL    HW113249  11.684   7.652   0.366
70472SOL    HW213250  11.658   7.543   0.468
70473SOL     OW13251  13.651   6.391   9.743
70473SOL    HW113252  13.723   6.328   9.742
70473SOL    HW213253  13.673   6.454   9.675
70474SOL     OW13254  13.870   7.965   0.149
70474SOL    HW113255  13.798   7.905   0.167
70474SOL    HW213256  13.896   7.944   0.059
70475SOL     OW13257   8.380   6.160   5.786
70475SOL    HW113258   8.289   6.159   5.816
70475SOL    HW213259   8.410   6.249   5.805
70476SOL     OW13260   3.478  11.213   8.542
70476SOL    HW113261   3.427  11.224   8.462
70476SOL    HW213262   3.472  11.298   8.586
70477SOL     OW13263  11.456   3.865   5.797
70477SOL    HW113264  11.409   3.794   5.753
70477SOL    HW213265  11.467   3.834   5.887
70478SOL     OW13266   4.340   3.054   8.143
70478SOL    HW113267   4.340   3.011   8.057
70478SOL    HW213268   4.421   3.106   8.142
70479SOL     OW13269   5.617   9.080   2.604
70479SOL    HW113270   5.599   9.060   2.512
70479SOL    HW213271   5.686   9.019   2.629
70480SOL     OW13272   6.818   9.858   5.562
70480SOL    HW113273   6.751   9.800   5.525
70480SOL    HW213274   6.859   9.899   5.486
70481SOL     OW13275  10.817   1.274  12.566
70481SOL    HW113276  10.799   1.181  12.554
70481SOL    HW213277  10.736   1.310  12.600
70482SOL     OW13278  12.693   0.398   5.160
70482SOL    HW113279  12.689   0.491   5.136
70482SOL    HW213280  12.640   0.391   5.239
70483SOL     OW13281   4.144   5.957   3.390
70483SOL    HW113282   4.132   5.984   3.481
70483SOL    HW213283   4.139   6.039   3.340
70484SOL     OW13284  10.312  14.848  12.354
70484SOL    HW113285  10.366  14.821  12.428
70484SOL    HW213286  10.225  14.863  12.393
70485SOL     OW13287  14.330  12.085   1.192
70485SOL    HW113288  14.259  12.082   1.256
70485SOL    HW213289  14.396  12.141   1.232
70486SOL     OW13290   3.554   8.188   2.485
70486SOL    HW113291   3.526   8.099   2.467
70486SOL    HW213292   3.649   8.183   2.496
70487SOL     OW13293  10.737   1.017   7.623
70487SOL    HW113294  10.803   1.037   7.690
70487SOL    HW213295  10.653   1.027   7.669
70488SOL     OW13296  13.479  14.827   6.240
70488SOL    HW113297  13.432   0.028   6.217
70488SOL    HW213298  13.525  14.849   6.321
70489SOL     OW13299   9.268  12.384   5.446
70489SOL    HW113300   9.353  12.424   5.424
70489SOL    HW213301   9.277  12.293   5.418
70490SOL     OW13302  12.982  11.795  12.342
70490SOL    HW113303  13.050  11.742  12.385
70490SOL    HW213304  12.937  11.839  12.415
70491SOL     OW13305   5.240   2.406  13.693
70491SOL    HW113306   5.322   2.433  13.652
70491SOL    HW213307   5.245   2.440  13.783
70492SOL     OW13308  10.062  14.410   6.058
70492SOL    HW113309   9.986  14.383   6.007
70492SOL    HW213310  10.028  14.476   6.119
70493SOL     OW13311   5.195  13.297  11.699
70493SOL    HW113312   5.107  13.335  11.699
70493SOL    HW213313   5.253  13.373  11.689
70494SOL     OW13314   5.252   7.333   1.271
70494SOL    HW113315   5.260   7.323   1.366
70494SOL    HW213316   5.311   7.266   1.235
70495SOL     OW13317  10.654   1.114   8.967
70495SOL    HW113318  10.590   1.063   9.017
70495SOL    HW213319  10.736   1.066   8.977
70496SOL     OW13320  12.832   7.780   3.187
70496SOL    HW113321  12.851   7.691   3.216
70496SOL    HW213322  12.917   7.824   3.185
70497SOL     OW13323   7.045  11.116  10.663
70497SOL    HW113324   6.977  11.182  10.676
70497SOL    HW213325   7.079  11.135  10.576
70498SOL     OW13326   4.249   6.849  12.077
70498SOL    HW113327   4.212   6.849  11.989
70498SOL    HW213328   4.255   6.756  12.101
70499SOL     OW13329   2.098   3.630   0.622
70499SOL    HW113330   2.137   3.671   0.700
70499SOL    HW213331   2.173   3.608   0.567
70500SOL     OW13332  10.673   9.565   7.719
70500SOL    HW113333  10.672   9.648   7.765
70500SOL    HW213334  10.761   9.530   7.734
70501SOL     OW13335  12.241  13.937   9.388
70501SOL    HW113336  12.267  13.958   9.299
70501SOL    HW213337  12.151  13.968   9.395
70502SOL     OW13338   4.763   0.984  12.367
70502SOL    HW113339   4.693   0.933  12.328
70502SOL    HW213340   4.842   0.931  12.352
70503SOL     OW13341  12.959   6.828   0.545
70503SOL    HW113342  12.877   6.801   0.586
70503SOL    HW213343  12.944   6.919   0.519
70504SOL     OW13344  10.658   6.352   9.136
70504SOL    HW113345  10.650   6.324   9.227
70504SOL    HW213346  10.567   6.359   9.106
70505SOL     OW13347   1.696  14.239   6.373
70505SOL    HW113348   1.764  14.288   6.327
70505SOL    HW213349   1.624  14.302   6.382
70506SOL     OW13350   1.059  14.137   4.793
70506SOL    HW113351   1.129  14.169   4.850
70506SOL    HW213352   0.989  14.113   4.853
70507SOL     OW13353   6.571   6.674   5.760
70507SOL    HW113354   6.476   6.661   5.759
70507SOL    HW213355   6.599   6.641   5.845
70508SOL     OW13356   1.158   6.770  13.916
70508SOL    HW113357   1.174   6.758  13.823
70508SOL    HW213358   1.246   6.780  13.954
70509SOL     OW13359   5.559   8.434   8.744
70509SOL    HW113360   5.629   8.454   8.806
70509SOL    HW213361   5.512   8.361   8.784
70510SOL     OW13362   7.294   5.512   2.138
70510SOL    HW113363   7.354   5.585   2.121
70510SOL    HW213364   7.207   5.549   2.128
70511SOL     OW13365   5.998  11.306   3.488
70511SOL    HW113366   5.919  11.360   3.495
70511SOL    HW213367   5.973  11.222   3.528
70512SOL     OW13368   3.886   7.532   4.891
70512SOL    HW113369   3.931   7.471   4.949
70512SOL    HW213370   3.955   7.567   4.835
70513SOL     OW13371   9.550   3.622   4.030
70513SOL    HW113372   9.589   3.651   4.113
70513SOL    HW213373   9.516   3.534   4.049
70514SOL     OW13374   0.570  13.773  10.811
70514SOL    HW113375   0.645  13.784  10.753
70514SOL    HW213376   0.505  13.836  10.779
70515SOL     OW13377   2.382   0.691   4.301
70515SOL    HW113378   2.359   0.621   4.362
70515SOL    HW213379   2.352   0.659   4.216
70516SOL     OW13380   6.595   8.427   2.395
70516SOL    HW113381   6.625   8.511   2.428
70516SOL    HW213382   6.500   8.429   2.405
70517SOL     OW13383   9.999   8.699   0.234
70517SOL    HW113384   9.935   8.741   0.292
70517SOL    HW213385  10.051   8.771   0.199
70518SOL     OW13386  10.151   9.604   3.957
70518SOL    HW113387  10.175   9.686   3.914
70518SOL    HW213388  10.208   9.538   3.917
70519SOL     OW13389   9.215  13.307   4.392
70519SOL    HW113390   9.151  13.239   4.373
70519SOL    HW213391   9.279  13.300   4.321
70520SOL     OW13392  13.379   9.109   6.953
70520SOL    HW113393  13.353   9.198   6.928
70520SOL    HW213394  13.435   9.122   7.030
70521SOL     OW13395   5.113  13.804   6.178
70521SOL    HW113396   5.026  13.790   6.216
70521SOL    HW213397   5.167  13.834   6.252
70522SOL     OW13398   3.733   3.444   7.354
70522SOL    HW113399   3.785   3.424   7.432
70522SOL    HW213400   3.754   3.373   7.293
70523SOL     OW13401   0.594  13.170  12.789
70523SOL    HW113402   0.640  13.191  12.870
70523SOL    HW213403   0.508  13.139  12.816
70524SOL     OW13404   5.561  14.301   0.246
70524SOL    HW113405   5.591  14.265   0.163
70524SOL    HW213406   5.480  14.255   0.266
70525SOL     OW13407   7.843  14.331  10.803
70525SOL    HW113408   7.897  14.369  10.734
70525SOL    HW213409   7.863  14.237  10.800
70526SOL     OW13410  12.787   6.765   9.256
70526SOL    HW113411  12.724   6.804   9.315
70526SOL    HW213412  12.745   6.683   9.228
70527SOL     OW13413  12.897   4.147   9.119
70527SOL    HW113414  12.884   4.185   9.032
70527SOL    HW213415  12.886   4.053   9.106
70528SOL     OW13416   1.953   5.664  14.515
70528SOL    HW113417   1.892   5.692  14.447
70528SOL    HW213418   2.039   5.669  14.473
70529SOL     OW13419   0.030   3.709   8.679
70529SOL    HW113420   0.121   3.677   8.673
70529SOL    HW213421   0.004   3.689   8.769
70530SOL     OW13422   7.187   8.329   4.945
70530SOL    HW113423   7.153   8.299   5.030
70530SOL    HW213424   7.170   8.423   4.946
70531SOL     OW13425   9.560  13.371   2.303
70531SOL    HW113426   9.556  13.305   2.372
70531SOL    HW213427   9.512  13.446   2.339
70532SOL     OW13428  11.531   5.251  13.302
70532SOL    HW113429  11.571   5.191  13.239
70532SOL    HW213430  11.523   5.201  13.382
70533SOL     OW13431   7.091   3.115  10.456
70533SOL    HW113432   7.098   3.134  10.549
70533SOL    HW213433   7.106   3.199  10.413
70534SOL     OW13434  12.240  14.556   4.294
70534SOL    HW113435  12.275  14.645   4.289
70534SOL    HW213436  12.224  14.531   4.202
70535SOL     OW13437  10.258  10.749  11.393
70535SOL    HW113438  10.275  10.812  11.323
70535SOL    HW213439  10.324  10.768  11.459
70536SOL     OW13440   1.653   2.170  10.576
70536SOL    HW113441   1.562   2.146  10.594
70536SOL    HW213442   1.665   2.150  10.483
70537SOL     OW13443  14.201  14.342   2.095
70537SOL    HW113444  14.293  14.356   2.072
70537SOL    HW213445  14.185  14.250   2.072
70538SOL     OW13446   0.825  13.609   5.933
70538SOL    HW113447   0.833  13.569   6.019
70538SOL    HW213448   0.866  13.546   5.873
70539SOL     OW13449  14.713  10.468   8.632
70539SOL    HW113450  14.691  10.530   8.563
70539SOL    HW213451  14.729  10.385   8.586
70540SOL     OW13452   4.271   2.202  10.872
70540SOL    HW113453   4.276   2.114  10.909
70540SOL    HW213454   4.260   2.259  10.948
70541SOL     OW13455  14.852   4.148   6.368
70541SOL    HW113456  14.758   4.141   6.381
70541SOL    HW213457  14.870   4.091   6.293
70542SOL     OW13458  10.860   1.627  11.083
70542SOL    HW113459  10.768   1.652  11.075
70542SOL    HW213460  10.904   1.675  11.012
70543SOL     OW13461   2.185   2.845  10.256
70543SOL    HW113462   2.255   2.907  10.239
70543SOL    HW213463   2.104   2.893  10.236
70544SOL     OW13464   6.048   3.350  12.021
70544SOL    HW113465   6.028   3.442  12.035
70544SOL    HW213466   6.023   3.333  11.931
70545SOL     OW13467  14.436   5.252  13.859
70545SOL    HW113468  14.419   5.176  13.913
70545SOL    HW213469  14.365   5.252  13.794
70546SOL     OW13470   0.715  13.517   7.960
70546SOL    HW113471   0.760  13.467   7.892
70546SOL    HW213472   0.629  13.476   7.966
70547SOL     OW13473   3.551   8.322  11.563
70547SOL    HW113474   3.461   8.351  11.549
70547SOL    HW213475   3.553   8.293  11.654
70548SOL     OW13476   9.301   9.363   6.881
70548SOL    HW113477   9.220   9.393   6.840
70548SOL    HW213478   9.368   9.422   6.848
70549SOL     OW13479  13.163   5.020   5.696
70549SOL    HW113480  13.124   4.933   5.692
70549SOL    HW213481  13.230   5.014   5.764
70550SOL     OW13482  13.001   1.861   2.017
70550SOL    HW113483  13.072   1.924   2.032
70550SOL    HW213484  12.987   1.864   1.922
70551SOL     OW13485   3.798   2.180   0.873
70551SOL    HW113486   3.734   2.109   0.880
70551SOL    HW213487   3.748   2.260   0.887
70552SOL     OW13488   1.166   8.267   6.800
70552SOL    HW113489   1.166   8.355   6.836
70552SOL    HW213490   1.078   8.255   6.764
70553SOL     OW13491  11.276  14.587   3.112
70553SOL    HW113492  11.240  14.633   3.188
70553SOL    HW213493  11.327  14.654   3.066
70554SOL     OW13494   9.740  12.405   2.175
70554SOL    HW113495   9.774  12.493   2.194
70554SOL    HW213496   9.811  12.363   2.126
70555SOL     OW13497   9.369   2.195   5.751
70555SOL    HW113498   9.461   2.193   5.778
70555SOL    HW213499   9.370   2.239   5.666
70556SOL     OW13500   6.038   8.490  10.769
70556SOL    HW113501   6.044   8.569  10.823
70556SOL    HW213502   6.006   8.521  10.685
70557SOL     OW13503   3.998  12.971   7.078
70557SOL    HW113504   3.971  13.057   7.110
70557SOL    HW213505   4.001  12.981   6.982
70558SOL     OW13506   5.029   8.278   6.639
70558SOL    HW113507   4.935   8.277   6.622
70558SOL    HW213508   5.040   8.218   6.713
70559SOL     OW13509   4.094   6.211   9.449
70559SOL    HW113510   4.028   6.258   9.500
70559SOL    HW213511   4.087   6.248   9.361
70560SOL     OW13512  13.777   3.119  10.514
70560SOL    HW113513  13.803   3.072  10.435
70560SOL    HW213514  13.696   3.163  10.490
70561SOL     OW13515  10.486   8.685  12.512
70561SOL    HW113516  10.443   8.650  12.434
70561SOL    HW213517  10.577   8.656  12.505
70562SOL     OW13518   2.000   4.595   9.808
70562SOL    HW113519   1.954   4.566   9.728
70562SOL    HW213520   1.929   4.621   9.867
70563SOL     OW13521   3.276  11.127   8.326
70563SOL    HW113522   3.184  11.104   8.319
70563SOL    HW213523   3.322  11.043   8.315
70564SOL     OW13524  11.729   9.109   2.420
70564SOL    HW113525  11.681   9.035   2.457
70564SOL    HW213526  11.810   9.114   2.472
70565SOL     OW13527   0.374   9.816  11.824
70565SOL    HW113528   0.400   9.773  11.905
70565SOL    HW213529   0.426   9.896  11.821
70566SOL     OW13530  12.117   9.977   9.410
70566SOL    HW113531  12.151  10.006   9.325
70566SOL    HW213532  12.130   9.883   9.410
70567SOL     OW13533   7.777   0.873   1.721
70567SOL    HW113534   7.795   0.850   1.812
70567SOL    HW213535   7.797   0.794   1.671
70568SOL     OW13536   4.839  10.893   5.497
70568SOL    HW113537   4.870  10.812   5.537
70568SOL    HW213538   4.859  10.961   5.562
70569SOL     OW13539   9.131  14.470   2.907
70569SOL    HW113540   9.146  14.532   2.835
70569SOL    HW213541   9.048  14.498   2.946
70570SOL     OW13542   3.725   1.330   4.620
70570SOL    HW113543   3.806   1.368   4.585
70570SOL    HW213544   3.656   1.380   4.576
70571SOL     OW13545  10.391  10.703   1.852
70571SOL    HW113546  10.375  10.615   1.886
70571SOL    HW213547  10.345  10.705   1.768
70572SOL     OW13548   2.836   6.818  13.945
70572SOL    HW113549   2.860   6.777  14.028
70572SOL    HW213550   2.749   6.783  13.924
70573SOL     OW13551  10.005   8.609  14.340
70573SOL    HW113552   9.931   8.560  14.376
70573SOL    HW213553  10.031   8.669  14.409
70574SOL     OW13554  12.593  12.849   5.415
70574SOL    HW113555  12.534  12.779   5.387
70574SOL    HW213556  12.573  12.861   5.508
70575SOL     OW13557  14.433   6.051   1.246
70575SOL    HW113558  14.405   6.106   1.173
70575SOL    HW213559  14.445   5.964   1.207
70576SOL     OW13560   9.833  12.216  12.082
70576SOL    HW113561   9.899  12.218  12.013
70576SOL    HW213562   9.784  12.298  12.071
70577SOL     OW13563   9.437  14.212   0.547
70577SOL    HW113564   9.421  14.130   0.593
70577SOL    HW213565   9.362  14.267   0.569
70578SOL     OW13566   5.243  14.058   8.891
70578SOL    HW113567   5.176  14.040   8.957
70578SOL    HW213568   5.286  14.138   8.921
70579SOL     OW13569   1.171   6.687  10.057
70579SOL    HW113570   1.255   6.702  10.014
70579SOL    HW213571   1.137   6.775  10.075
70580SOL     OW13572  14.389   6.447  11.190
70580SOL    HW113573  14.387   6.516  11.124
70580SOL    HW213574  14.482   6.437  11.211
70581SOL     OW13575   5.449   1.182   1.960
70581SOL    HW113576   5.535   1.156   1.927
70581SOL    HW213577   5.448   1.278   1.952
70582SOL     OW13578  11.254   4.820   0.012
70582SOL    HW113579  11.174   4.871   0.021
70582SOL    HW213580  11.322   4.884  14.873
70583SOL     OW13581  14.198   3.814   6.498
70583SOL    HW113582  14.213   3.726   6.533
70583SOL    HW213583  14.219   3.806   6.405
70584SOL     OW13584  11.710   8.286   7.430
70584SOL    HW113585  11.706   8.337   7.511
70584SOL    HW213586  11.624   8.245   7.423
70585SOL     OW13587  14.155   2.456  10.552
70585SOL    HW113588  14.102   2.446  10.472
70585SOL    HW213589  14.154   2.369  10.592
70586SOL     OW13590   4.528   6.468   5.484
70586SOL    HW113591   4.603   6.508   5.441
70586SOL    HW213592   4.558   6.451   5.573
70587SOL     OW13593   2.297  11.675  13.063
70587SOL    HW113594   2.203  11.662  13.058
70587SOL    HW213595   2.316  11.681  13.157
70588SOL     OW13596  11.976   1.902   4.747
70588SOL    HW113597  12.048   1.882   4.688
70588SOL    HW213598  11.984   1.838   4.818
70589SOL     OW13599   9.445   4.299   9.567
70589SOL    HW113600   9.350   4.291   9.579
70589SOL    HW213601   9.455   4.365   9.499
70590SOL     OW13602   6.497   5.344  11.781
70590SOL    HW113603   6.465   5.268  11.830
70590SOL    HW213604   6.551   5.307  11.711
70591SOL     OW13605   5.074   6.808   2.650
70591SOL    HW113606   5.010   6.744   2.618
70591SOL    HW213607   5.157   6.760   2.650
70592SOL     OW13608   0.321   5.281   9.728
70592SOL    HW113609   0.382   5.345   9.692
70592SOL    HW213610   0.281   5.240   9.651
70593SOL     OW13611   1.534   3.344   1.526
70593SOL    HW113612   1.470   3.414   1.540
70593SOL    HW213613   1.542   3.301   1.611
70594SOL     OW13614   9.908  13.588  12.516
70594SOL    HW113615   9.984  13.553  12.562
70594SOL    HW213616   9.871  13.512  12.470
70595SOL     OW13617  10.280  10.935   7.535
70595SOL    HW113618  10.302  10.843   7.522
70595SOL    HW213619  10.285  10.947   7.630
70596SOL     OW13620   2.188   4.572   2.058
70596SOL    HW113621   2.188   4.485   2.019
70596SOL    HW213622   2.259   4.618   2.012
70597SOL     OW13623   2.064   0.273   5.140
70597SOL    HW113624   1.980   0.313   5.117
70597SOL    HW213625   2.108   0.260   5.056
70598SOL     OW13626  13.127   7.149   4.707
70598SOL    HW113627  13.051   7.095   4.731
70598SOL    HW213628  13.182   7.090   4.656
70599SOL     OW13629   1.466  14.862   4.518
70599SOL    HW113630   1.477   0.057   4.578
70599SOL    HW213631   1.425   0.021   4.440
70600SOL     OW13632  12.868   1.428  11.253
70600SOL    HW113633  12.943   1.440  11.311
70600SOL    HW213634  12.892   1.354  11.197
70601SOL     OW13635  13.636  10.809  14.294
70601SOL    HW113636  13.555  10.758  14.287
70601SOL    HW213637  13.612  10.896  14.262
70602SOL     OW13638   0.741   0.297   2.948
70602SOL    HW113639   0.734   0.215   2.900
70602SOL    HW213640   0.683   0.285   3.024
70603SOL     OW13641   0.829  12.213   8.833
70603SOL    HW113642   0.870  12.290   8.873
70603SOL    HW213643   0.890  12.186   8.765
70604SOL     OW13644   3.478   5.567   1.112
70604SOL    HW113645   3.422   5.494   1.141
70604SOL    HW213646   3.562   5.550   1.155
70605SOL     OW13647   7.957   7.736   2.402
70605SOL    HW113648   7.958   7.728   2.497
70605SOL    HW213649   7.866   7.724   2.377
70606SOL     OW13650  13.203   9.482  11.945
70606SOL    HW113651  13.275   9.440  11.898
70606SOL    HW213652  13.205   9.443  12.033
70607SOL     OW13653  12.129   3.175   3.097
70607SOL    HW113654  12.055   3.177   3.035
70607SOL    HW213655  12.150   3.082   3.105
70608SOL     OW13656  13.052   8.034  14.108
70608SOL    HW113657  13.081   7.982  14.033
70608SOL    HW213658  13.088   8.121  14.092
70609SOL     OW13659   3.349   9.208  10.243
70609SOL    HW113660   3.344   9.292  10.289
70609SOL    HW213661   3.439   9.203  10.212
70610SOL     OW13662   7.513   4.414   6.422
70610SOL    HW113663   7.587   4.374   6.466
70610SOL    HW213664   7.461   4.453   6.492
70611SOL     OW13665   3.035   0.896   0.082
70611SOL    HW113666   3.122   0.935   0.087
70611SOL    HW213667   3.048   0.805   0.109
70612SOL     OW13668   0.610   2.981   2.592
70612SOL    HW113669   0.523   3.008   2.563
70612SOL    HW213670   0.621   3.022   2.677
70613SOL     OW13671   2.130   9.962   4.111
70613SOL    HW113672   2.185  10.030   4.071
70613SOL    HW213673   2.085   9.921   4.037
70614SOL     OW13674   6.798   3.414   3.858
70614SOL    HW113675   6.840   3.387   3.940
70614SOL    HW213676   6.870   3.438   3.800
70615SOL     OW13677   4.591   2.058  13.705
70615SOL    HW113678   4.498   2.038  13.706
70615SOL    HW213679   4.610   2.087  13.795
70616SOL     OW13680  12.082   4.201   9.522
70616SOL    HW113681  12.049   4.124   9.567
70616SOL    HW213682  12.087   4.269   9.590
70617SOL     OW13683   9.433   6.354   9.822
70617SOL    HW113684   9.432   6.441   9.781
70617SOL    HW213685   9.394   6.296   9.756
70618SOL     OW13686   5.546   8.933   8.985
70618SOL    HW113687   5.594   8.855   8.956
70618SOL    HW213688   5.530   8.918   9.078
70619SOL     OW13689   5.826   3.675  14.572
70619SOL    HW113690   5.863   3.587  14.563
70619SOL    HW213691   5.817   3.706  14.482
70620SOL     OW13692  10.171  14.339   4.484
70620SOL    HW113693  10.109  14.409   4.507
70620SOL    HW213694  10.171  14.337   4.389
70621SOL     OW13695   0.008   4.484   3.428
70621SOL    HW113696   0.083   4.538   3.454
70621SOL    HW213697  14.822   4.499   3.497
70622SOL     OW13698   6.411   7.092   4.421
70622SOL    HW113699   6.318   7.098   4.445
70622SOL    HW213700   6.456   7.075   4.504
70623SOL     OW13701  14.715   5.175  14.172
70623SOL    HW113702  14.706   5.128  14.255
70623SOL    HW213703  14.809   5.190  14.163
70624SOL     OW13704   5.024  11.627   1.894
70624SOL    HW113705   5.097  11.579   1.854
70624SOL    HW213706   4.972  11.658   1.820
70625SOL     OW13707  14.257   4.554  13.735
70625SOL    HW113708  14.193   4.491  13.702
70625SOL    HW213709  14.311   4.576  13.659
70626SOL     OW13710   2.925   5.962  14.032
70626SOL    HW113711   2.986   5.972  13.959
70626SOL    HW213712   2.892   6.051  14.047
70627SOL     OW13713   7.030   6.551   8.545
70627SOL    HW113714   7.004   6.463   8.520
70627SOL    HW213715   7.021   6.553   8.640
70628SOL     OW13716  11.593  13.581  12.558
70628SOL    HW113717  11.545  13.509  12.518
70628SOL    HW213718  11.531  13.654  12.558
70629SOL     OW13719   7.876   3.072   9.410
70629SOL    HW113720   7.801   3.056   9.466
70629SOL    HW213721   7.841   3.123   9.336
70630SOL     OW13722  11.636   6.428   3.176
70630SOL    HW113723  11.656   6.411   3.268
70630SOL    HW213724  11.564   6.490   3.178
70631SOL     OW13725  13.418   5.909  11.340
70631SOL    HW113726  13.502   5.934  11.302
70631SOL    HW213727  13.427   5.929  11.434
70632SOL     OW13728  11.923   5.013   4.499
70632SOL    HW113729  11.888   4.925   4.488
70632SOL    HW213730  11.915   5.053   4.412
70633SOL     OW13731   1.885   5.375  13.007
70633SOL    HW113732   1.933   5.304  13.050
70633SOL    HW213733   1.835   5.331  12.938
70634SOL     OW13734  12.494   1.774   7.442
70634SOL    HW113735  12.412   1.776   7.393
70634SOL    HW213736  12.472   1.811   7.527
70635SOL     OW13737  10.196   7.949  14.565
70635SOL    HW113738  10.202   8.032  14.612
70635SOL    HW213739  10.221   7.882  14.629
70636SOL     OW13740   1.261  13.700   4.599
70636SOL    HW113741   1.307  13.670   4.677
70636SOL    HW213742   1.327  13.700   4.530
70637SOL     OW13743  11.899   9.521  14.608
70637SOL    HW113744  11.821   9.510  14.663
70637SOL    HW213745  11.920   9.614  14.616
70638SOL     OW13746  10.162   1.220   6.990
70638SOL    HW113747  10.148   1.173   6.908
70638SOL    HW213748  10.228   1.287   6.968
70639SOL     OW13749   7.532  11.991   4.637
70639SOL    HW113750   7.463  11.974   4.701
70639SOL    HW213751   7.606  11.939   4.667
70640SOL     OW13752   3.435  10.415  14.569
70640SOL    HW113753   3.421  10.417  14.663
70640SOL    HW213754   3.392  10.334  14.540
70641SOL     OW13755   8.387  13.327   4.362
70641SOL    HW113756   8.438  13.319   4.443
70641SOL    HW213757   8.424  13.403   4.318
70642SOL     OW13758   8.374  12.364   6.058
70642SOL    HW113759   8.451  12.387   6.109
70642SOL    HW213760   8.372  12.427   5.987
70643SOL     OW13761   0.916  11.814   9.984
70643SOL    HW113762   0.923  11.727   9.945
70643SOL    HW213763   0.879  11.798  10.071
70644SOL     OW13764   5.435   4.330   8.452
70644SOL    HW113765   5.503   4.334   8.385
70644SOL    HW213766   5.378   4.405   8.432
70645SOL     OW13767   4.422   6.507  12.631
70645SOL    HW113768   4.494   6.462  12.586
70645SOL    HW213769   4.412   6.589  12.585
70646SOL     OW13770   2.131   2.667   8.190
70646SOL    HW113771   2.175   2.743   8.229
70646SOL    HW213772   2.202   2.610   8.163
70647SOL     OW13773  11.333   7.691  10.854
70647SOL    HW113774  11.262   7.742  10.814
70647SOL    HW213775  11.348   7.735  10.938
70648SOL     OW13776  14.688   3.022   0.380
70648SOL    HW113777  14.780   3.046   0.368
70648SOL    HW213778  14.667   3.052   0.468
70649SOL     OW13779   7.868   4.872  14.629
70649SOL    HW113780   7.838   4.789  14.667
70649SOL    HW213781   7.854   4.861  14.535
70650SOL     OW13782  14.286   8.350   5.123
70650SOL    HW113783  14.318   8.421   5.179
70650SOL    HW213784  14.216   8.391   5.071
70651SOL     OW13785  13.171  11.484   0.434
70651SOL    HW113786  13.085  11.475   0.476
70651SOL    HW213787  13.234  11.459   0.502
70652SOL     OW13788  10.333   5.060   0.757
70652SOL    HW113789  10.417   5.033   0.794
70652SOL    HW213790  10.352   5.088   0.668
70653SOL     OW13791  12.332   3.996  14.112
70653SOL    HW113792  12.313   4.028  14.024
70653SOL    HW213793  12.258   3.938  14.132
70654SOL     OW13794  14.523   7.207   6.846
70654SOL    HW113795  14.438   7.218   6.803
70654SOL    HW213796  14.573   7.152   6.787
70655SOL     OW13797   6.927   8.878  12.871
70655SOL    HW113798   7.001   8.854  12.815
70655SOL    HW213799   6.888   8.954  12.828
70656SOL     OW13800   7.615   9.307   5.499
70656SOL    HW113801   7.528   9.302   5.538
70656SOL    HW213802   7.612   9.385   5.444
70657SOL     OW13803   9.766   4.210   6.833
70657SOL    HW113804   9.745   4.301   6.814
70657SOL    HW213805   9.770   4.206   6.929
70658SOL     OW13806   0.454  14.649   4.252
70658SOL    HW113807   0.421  14.686   4.334
70658SOL    HW213808   0.377  14.613   4.209
70659SOL     OW13809   5.606  11.796  14.775
70659SOL    HW113810   5.624  11.751  14.693
70659SOL    HW213811   5.672  11.865  14.780
70660SOL     OW13812   9.338   6.589   7.081
70660SOL    HW113813   9.297   6.578   6.995
70660SOL    HW213814   9.405   6.656   7.068
70661SOL     OW13815   4.455  11.733   4.177
70661SOL    HW113816   4.537  11.749   4.130
70661SOL    HW213817   4.413  11.662   4.127
70662SOL     OW13818   9.519  10.479   3.750
70662SOL    HW113819   9.457  10.551   3.736
70662SOL    HW213820   9.498  10.416   3.682
70663SOL     OW13821   3.957   5.910   4.019
70663SOL    HW113822   3.974   5.817   4.036
70663SOL    HW213823   3.874   5.910   3.972
70664SOL     OW13824   4.746   7.585   1.357
70664SOL    HW113825   4.784   7.626   1.279
70664SOL    HW213826   4.761   7.649   1.427
70665SOL     OW13827   3.161  12.965   2.985
70665SOL    HW113828   3.092  13.031   2.991
70665SOL    HW213829   3.227  13.004   2.928
70666SOL     OW13830   8.801   8.859  13.326
70666SOL    HW113831   8.800   8.932  13.264
70666SOL    HW213832   8.840   8.896  13.405
70667SOL     OW13833  12.557   0.292  10.690
70667SOL    HW113834  12.503   0.351  10.637
70667SOL    HW213835  12.595   0.349  10.757
70668SOL     OW13836  13.774  14.736   4.311
70668SOL    HW113837  13.765  14.830   4.324
70668SOL    HW213838  13.781  14.700   4.400
70669SOL     OW13839  13.927  14.193   4.256
70669SOL    HW113840  13.846  14.181   4.208
70669SOL    HW213841  13.908  14.158   4.344
70670SOL     OW13842   1.486   0.162   0.625
70670SOL    HW113843   1.431   0.086   0.604
70670SOL    HW213844   1.566   0.124   0.662
70671SOL     OW13845  10.493  13.881   5.580
70671SOL    HW113846  10.582  13.898   5.550
70671SOL    HW213847  10.443  13.957   5.551
70672SOL     OW13848   5.635  10.831  11.797
70672SOL    HW113849   5.716  10.782  11.814
70672SOL    HW213850   5.598  10.789  11.719
70673SOL     OW13851  14.762   9.088   2.399
70673SOL    HW113852  14.733   9.080   2.490
70673SOL    HW213853  14.847   9.131   2.404
70674SOL     OW13854   7.989   3.295  12.068
70674SOL    HW113855   8.068   3.279  12.016
70674SOL    HW213856   7.992   3.228  12.137
70675SOL     OW13857   1.690   4.527  13.802
70675SOL    HW113858   1.646   4.531  13.717
70675SOL    HW213859   1.768   4.581  13.790
70676SOL     OW13860  14.540   9.153   1.887
70676SOL    HW113861  14.521   9.225   1.947
70676SOL    HW213862  14.550   9.076   1.943
70677SOL     OW13863  14.359  14.272  12.668
70677SOL    HW113864  14.425  14.215  12.709
70677SOL    HW213865  14.409  14.325  12.606
70678SOL     OW13866   2.886   0.675  12.974
70678SOL    HW113867   2.966   0.626  12.957
70678SOL    HW213868   2.902   0.761  12.936
70679SOL     OW13869   5.892  13.465   3.344
70679SOL    HW113870   5.883  13.377   3.307
70679SOL    HW213871   5.830  13.467   3.417
70680SOL     OW13872   9.458   2.710  13.376
70680SOL    HW113873   9.518   2.771  13.333
70680SOL    HW213874   9.388   2.696  13.311
70681SOL     OW13875   5.039   0.416   0.772
70681SOL    HW113876   5.034   0.412   0.676
70681SOL    HW213877   4.971   0.356   0.802
70682SOL     OW13878   7.872  14.460   0.766
70682SOL    HW113879   7.808  14.529   0.784
70682SOL    HW213880   7.883  14.463   0.671
70683SOL     OW13881  13.932   0.867   9.527
70683SOL    HW113882  13.954   0.951   9.487
70683SOL    HW213883  13.924   0.886   9.621
70684SOL     OW13884   6.517  10.227   1.072
70684SOL    HW113885   6.458  10.278   1.127
70684SOL    HW213886   6.491  10.248   0.982
70685SOL     OW13887  14.580   7.138   0.967
70685SOL    HW113888  14.499   7.109   1.010
70685SOL    HW213889  14.563   7.228   0.940
70686SOL     OW13890  10.646   0.685   1.624
70686SOL    HW113891  10.711   0.616   1.617
70686SOL    HW213892  10.687   0.752   1.679
70687SOL     OW13893  10.049   0.297   0.276
70687SOL    HW113894  10.065   0.340   0.193
70687SOL    HW213895  10.114   0.226   0.280
70688SOL     OW13896  13.015  12.641   2.728
70688SOL    HW113897  13.084  12.707   2.736
70688SOL    HW213898  13.030  12.581   2.801
70689SOL     OW13899  14.299   7.059   7.184
70689SOL    HW113900  14.323   7.098   7.268
70689SOL    HW213901  14.341   6.973   7.185
70690SOL     OW13902   0.366   7.455   8.876
70690SOL    HW113903   0.354   7.550   8.876
70690SOL    HW213904   0.407   7.435   8.960
70691SOL     OW13905  13.708   8.709   4.660
70691SOL    HW113906  13.729   8.739   4.749
70691SOL    HW213907  13.618   8.677   4.667
70692SOL     OW13908   5.690   6.721   5.561
70692SOL    HW113909   5.783   6.710   5.577
70692SOL    HW213910   5.675   6.679   5.476
70693SOL     OW13911   7.951  10.977   5.735
70693SOL    HW113912   7.949  11.030   5.655
70693SOL    HW213913   7.879  11.009   5.788
70694SOL     OW13914   5.094   2.450   4.783
70694SOL    HW113915   5.179   2.493   4.781
70694SOL    HW213916   5.108   2.372   4.838
70695SOL     OW13917  10.693   9.503   9.670
70695SOL    HW113918  10.630   9.434   9.648
70695SOL    HW213919  10.716   9.486   9.761
70696SOL     OW13920   5.806   0.361  11.309
70696SOL    HW113921   5.813   0.447  11.350
70696SOL    HW213922   5.862   0.304  11.363
70697SOL     OW13923  13.821   8.721   8.160
70697SOL    HW113924  13.829   8.707   8.066
70697SOL    HW213925  13.732   8.691   8.181
70698SOL     OW13926  11.365   6.422   7.557
70698SOL    HW113927  11.399   6.415   7.467
70698SOL    HW213928  11.277   6.384   7.552
70699SOL     OW13929   4.733   1.284   9.206
70699SOL    HW113930   4.655   1.337   9.191
70699SOL    HW213931   4.710   1.228   9.281
70700SOL     OW13932  11.283   3.277  14.060
70700SOL    HW113933  11.320   3.295  14.146
70700SOL    HW213934  11.308   3.353  14.007
70701SOL     OW13935   0.251  10.385   1.899
70701SOL    HW113936   0.311  10.390   1.824
70701SOL    HW213937   0.308  10.382   1.976
70702SOL     OW13938   9.984   0.904   9.202
70702SOL    HW113939   9.911   0.873   9.148
70702SOL    HW213940  10.052   0.927   9.140
70703SOL     OW13941  12.309  14.518   0.182
70703SOL    HW113942  12.230  14.558   0.218
70703SOL    HW213943  12.373  14.525   0.253
70704SOL     OW13944   7.812   1.541   4.580
70704SOL    HW113945   7.830   1.523   4.487
70704SOL    HW213946   7.818   1.455   4.622
70705SOL     OW13947   7.114   6.489  14.576
70705SOL    HW113948   7.023   6.508  14.600
70705SOL    HW213949   7.121   6.516  14.484
70706SOL     OW13950   3.760  14.520   1.160
70706SOL    HW113951   3.671  14.496   1.135
70706SOL    HW213952   3.806  14.531   1.077
70707SOL     OW13953  14.417   7.295  10.115
70707SOL    HW113954  14.394   7.361  10.051
70707SOL    HW213955  14.451   7.222  10.063
70708SOL     OW13956  11.259   7.427  12.025
70708SOL    HW113957  11.295   7.343  12.056
70708SOL    HW213958  11.319   7.493  12.061
70709SOL     OW13959   1.348   6.377  14.164
70709SOL    HW113960   1.319   6.468  14.173
70709SOL    HW213961   1.430   6.373  14.214
70710SOL     OW13962  10.529   8.006  12.147
70710SOL    HW113963  10.438   8.034  12.146
70710SOL    HW213964  10.567   8.044  12.068
70711SOL     OW13965   5.123  14.752  10.105
70711SOL    HW113966   5.032  14.773  10.126
70711SOL    HW213967   5.173  14.783  10.180
70712SOL     OW13968   4.615   9.775   7.614
70712SOL    HW113969   4.690   9.783   7.672
70712SOL    HW213970   4.553   9.721   7.662
70713SOL     OW13971   5.564   4.249  14.031
70713SOL    HW113972   5.548   4.221  13.941
70713SOL    HW213973   5.639   4.308  14.025
70714SOL     OW13974  10.771  12.383   6.495
70714SOL    HW113975  10.769  12.335   6.578
70714SOL    HW213976  10.789  12.474   6.521
70715SOL     OW13977   3.623  12.499   3.581
70715SOL    HW113978   3.616  12.492   3.676
70715SOL    HW213979   3.641  12.592   3.565
70716SOL     OW13980  11.554   2.967  10.951
70716SOL    HW113981  11.528   2.888  10.999
70716SOL    HW213982  11.649   2.969  10.956
70717SOL     OW13983   3.728   0.552   1.700
70717SOL    HW113984   3.769   0.573   1.616
70717SOL    HW213985   3.637   0.581   1.690
70718SOL     OW13986   2.159   1.818   4.904
70718SOL    HW113987   2.127   1.899   4.865
70718SOL    HW213988   2.250   1.812   4.876
70719SOL     OW13989   3.009   5.596   8.247
70719SOL    HW113990   3.029   5.549   8.328
70719SOL    HW213991   3.079   5.569   8.186
70720SOL     OW13992   8.953  11.412  12.127
70720SOL    HW113993   8.897  11.467  12.182
70720SOL    HW213994   8.894  11.375  12.062
70721SOL     OW13995   4.475   1.039  13.987
70721SOL    HW113996   4.497   0.997  14.070
70721SOL    HW213997   4.480   0.969  13.922
70722SOL     OW13998   8.352   5.621   2.281
70722SOL    HW113999   8.272   5.657   2.321
70722SOL    HW214000   8.397   5.698   2.244
70723SOL     OW14001   2.407   2.118   2.601
70723SOL    HW114002   2.453   2.200   2.620
70723SOL    HW214003   2.356   2.137   2.522
70724SOL     OW14004   3.249  13.163   3.261
70724SOL    HW114005   3.156  13.141   3.265
70724SOL    HW214006   3.258  13.220   3.185
70725SOL     OW14007  11.200   6.247  11.258
70725SOL    HW114008  11.228   6.334  11.286
70725SOL    HW214009  11.272   6.189  11.283
70726SOL     OW14010   1.740   1.010  10.902
70726SOL    HW114011   1.830   1.014  10.869
70726SOL    HW214012   1.733   0.924  10.941
70727SOL     OW14013   1.785   0.577   0.621
70727SOL    HW114014   1.836   0.506   0.660
70727SOL    HW214015   1.786   0.646   0.688
70728SOL     OW14016  10.511   7.424   4.106
70728SOL    HW114017  10.494   7.452   4.196
70728SOL    HW214018  10.445   7.469   4.054
70729SOL     OW14019  12.433   1.837   2.839
70729SOL    HW114020  12.384   1.760   2.868
70729SOL    HW214021  12.366   1.901   2.815
70730SOL     OW14022  11.043   9.934   4.062
70730SOL    HW114023  10.973   9.875   4.035
70730SOL    HW214024  11.013  10.021   4.036
70731SOL     OW14025   1.631   4.163   4.315
70731SOL    HW114026   1.653   4.230   4.251
70731SOL    HW214027   1.562   4.202   4.369
70732SOL     OW14028   2.145   1.800  10.657
70732SOL    HW114029   2.227   1.789  10.610
70732SOL    HW214030   2.081   1.820  10.589
70733SOL     OW14031  12.406  12.485   4.681
70733SOL    HW114032  12.448  12.529   4.755
70733SOL    HW214033  12.427  12.392   4.693
70734SOL     OW14034   1.749  14.702  10.579
70734SOL    HW114035   1.777  14.681  10.490
70734SOL    HW214036   1.771  14.624  10.630
70735SOL     OW14037  13.518   9.614   4.452
70735SOL    HW114038  13.513   9.547   4.384
70735SOL    HW214039  13.482   9.571   4.530
70736SOL     OW14040   4.597   9.835  11.291
70736SOL    HW114041   4.577   9.924  11.260
70736SOL    HW214042   4.608   9.784  11.211
70737SOL     OW14043   5.681   2.530   6.797
70737SOL    HW114044   5.699   2.503   6.887
70737SOL    HW214045   5.767   2.528   6.754
70738SOL     OW14046   2.522   3.887   7.141
70738SOL    HW114047   2.491   3.798   7.157
70738SOL    HW214048   2.466   3.942   7.197
70739SOL     OW14049   6.977   0.288  10.742
70739SOL    HW114050   7.013   0.361  10.690
70739SOL    HW214051   6.895   0.323  10.778
70740SOL     OW14052  12.745   6.233   3.639
70740SOL    HW114053  12.813   6.297   3.619
70740SOL    HW214054  12.673   6.285   3.675
70741SOL     OW14055  13.520   5.904   7.689
70741SOL    HW114056  13.434   5.867   7.669
70741SOL    HW214057  13.561   5.919   7.603
70742SOL     OW14058   6.521  13.345   3.681
70742SOL    HW114059   6.523  13.440   3.666
70742SOL    HW214060   6.576  13.331   3.757
70743SOL     OW14061   7.390  13.746   0.908
70743SOL    HW114062   7.402  13.729   0.815
70743SOL    HW214063   7.389  13.659   0.949
70744SOL     OW14064  14.803  14.267   1.493
70744SOL    HW114065  14.853  14.278   1.574
70744SOL    HW214066  14.755  14.185   1.505
70745SOL     OW14067   7.540   5.400   2.886
70745SOL    HW114068   7.568   5.481   2.928
70745SOL    HW214069   7.618   5.368   2.840
70746SOL     OW14070   7.318   3.365  10.769
70746SOL    HW114071   7.384   3.331  10.709
70746SOL    HW214072   7.266   3.426  10.716
70747SOL     OW14073   2.008  14.054   2.143
70747SOL    HW114074   2.051  14.054   2.229
70747SOL    HW214075   1.934  14.114   2.153
70748SOL     OW14076  11.929   9.741   4.587
70748SOL    HW114077  11.947   9.650   4.565
70748SOL    HW214078  11.834   9.748   4.587
70749SOL     OW14079  10.437   5.781   3.386
70749SOL    HW114080  10.520   5.828   3.397
70749SOL    HW214081  10.462   5.696   3.349
70750SOL     OW14082   6.394   8.637  10.809
70750SOL    HW114083   6.471   8.692  10.793
70750SOL    HW214084   6.424   8.548  10.793
70751SOL     OW14085  10.945   3.640   9.968
70751SOL    HW114086  11.000   3.678  10.037
70751SOL    HW214087  10.900   3.568  10.011
70752SOL     OW14088   8.812   7.254   6.701
70752SOL    HW114089   8.731   7.303   6.686
70752SOL    HW214090   8.801   7.217   6.789
70753SOL     OW14091   2.190   1.276   8.140
70753SOL    HW114092   2.286   1.273   8.149
70753SOL    HW214093   2.168   1.192   8.098
70754SOL     OW14094   4.030   0.411   9.775
70754SOL    HW114095   4.082   0.342   9.732
70754SOL    HW214096   4.077   0.492   9.754
70755SOL     OW14097   0.309  13.389  14.869
70755SOL    HW114098   0.363  13.466   0.010
70755SOL    HW214099   0.296  13.394  14.774
70756SOL     OW14100   6.372   7.401  10.454
70756SOL    HW114101   6.286   7.417  10.493
70756SOL    HW214102   6.435   7.430  10.520
70757SOL     OW14103   4.325   4.008  11.606
70757SOL    HW114104   4.321   4.100  11.578
70757SOL    HW214105   4.237   3.990  11.640
70758SOL     OW14106  14.522  13.293   2.643
70758SOL    HW114107  14.562  13.361   2.698
70758SOL    HW214108  14.596  13.244   2.607
70759SOL     OW14109   0.582   4.428  10.707
70759SOL    HW114110   0.657   4.471  10.666
70759SOL    HW214111   0.618   4.351  10.749
70760SOL     OW14112  12.690   3.807  11.850
70760SOL    HW114113  12.603   3.833  11.821
70760SOL    HW214114  12.676   3.725  11.897
70761SOL     OW14115  11.864  14.382   4.173
70761SOL    HW114116  11.824  14.452   4.121
70761SOL    HW214117  11.902  14.428   4.248
70762SOL     OW14118   9.369   0.245  11.131
70762SOL    HW114119   9.450   0.244  11.181
70762SOL    HW214120   9.312   0.306  11.178
70763SOL     OW14121   1.033  14.030   9.049
70763SOL    HW114122   0.954  14.083   9.037
70763SOL    HW214123   1.105  14.093   9.046
70764SOL     OW14124   0.181  13.863   3.740
70764SOL    HW114125   0.256  13.811   3.713
70764SOL    HW214126   0.218  13.947   3.769
70765SOL     OW14127   8.236   7.832   6.764
70765SOL    HW114128   8.177   7.856   6.692
70765SOL    HW214129   8.190   7.861   6.843
70766SOL     OW14130   9.317   1.969  13.195
70766SOL    HW114131   9.240   1.944  13.247
70766SOL    HW214132   9.390   1.967  13.257
70767SOL     OW14133   9.676  14.196  12.363
70767SOL    HW114134   9.667  14.170  12.455
70767SOL    HW214135   9.610  14.264  12.351
70768SOL     OW14136   6.132   4.378   6.503
70768SOL    HW114137   6.185   4.428   6.565
70768SOL    HW214138   6.147   4.421   6.419
70769SOL     OW14139   5.638   7.368   0.655
70769SOL    HW114140   5.652   7.388   0.562
70769SOL    HW214141   5.643   7.453   0.698
70770SOL     OW14142   9.540  11.492  13.400
70770SOL    HW114143   9.502  11.414  13.360
70770SOL    HW214144   9.614  11.515  13.343
70771SOL     OW14145   4.342  13.937   7.395
70771SOL    HW114146   4.418  13.934   7.452
70771SOL    HW214147   4.267  13.922   7.453
70772SOL     OW14148  14.338  12.476   0.943
70772SOL    HW114149  14.405  12.543   0.954
70772SOL    HW214150  14.322  12.473   0.848
70773SOL     OW14151   5.663  12.909  10.611
70773SOL    HW114152   5.720  12.835  10.589
70773SOL    HW214153   5.586  12.869  10.651
70774SOL     OW14154  11.652   0.564   0.967
70774SOL    HW114155  11.616   0.618   0.896
70774SOL    HW214156  11.632   0.613   1.046
70775SOL     OW14157   4.502  13.028   8.202
70775SOL    HW114158   4.532  13.112   8.169
70775SOL    HW214159   4.547  13.017   8.286
70776SOL     OW14160   8.051   2.023   6.477
70776SOL    HW114161   8.145   2.037   6.486
70776SOL    HW214162   8.022   2.089   6.414
70777SOL     OW14163   0.405   5.784   1.012
70777SOL    HW114164   0.488   5.811   0.972
70777SOL    HW214165   0.420   5.693   1.038
70778SOL     OW14166   0.559   3.474  14.608
70778SOL    HW114167   0.477   3.425  14.605
70778SOL    HW214168   0.532   3.566  14.597
70779SOL     OW14169   1.605  12.466  10.891
70779SOL    HW114170   1.515  12.485  10.865
70779SOL    HW214171   1.612  12.371  10.887
70780SOL     OW14172   5.196  11.522  13.929
70780SOL    HW114173   5.208  11.611  13.960
70780SOL    HW214174   5.180  11.530  13.835
70781SOL     OW14175   3.712   3.677  10.515
70781SOL    HW114176   3.643   3.651  10.577
70781SOL    HW214177   3.687   3.634  10.433
70782SOL     OW14178  14.601   6.018   0.824
70782SOL    HW114179  14.576   6.079   0.755
70782SOL    HW214180  14.523   5.965   0.838
70783SOL     OW14181   7.554   7.440  10.193
70783SOL    HW114182   7.596   7.498  10.129
70783SOL    HW214183   7.542   7.357  10.147
70784SOL     OW14184   6.150  10.229  10.738
70784SOL    HW114185   6.188  10.143  10.721
70784SOL    HW214186   6.204  10.289  10.687
70785SOL     OW14187   9.291   3.613   0.914
70785SOL    HW114188   9.241   3.587   0.837
70785SOL    HW214189   9.334   3.695   0.889
70786SOL     OW14190  12.524  14.091   0.902
70786SOL    HW114191  12.528  14.112   0.809
70786SOL    HW214192  12.439  14.124   0.931
70787SOL     OW14193   2.858   4.841   4.624
70787SOL    HW114194   2.863   4.770   4.560
70787SOL    HW214195   2.927   4.902   4.598
70788SOL     OW14196   1.660   0.323   5.008
70788SOL    HW114197   1.638   0.264   5.080
70788SOL    HW214198   1.723   0.385   5.047
70789SOL     OW14199  13.148  11.540   7.891
70789SOL    HW114200  13.135  11.487   7.813
70789SOL    HW214201  13.060  11.563   7.920
70790SOL     OW14202   8.925  13.071   6.297
70790SOL    HW114203   8.858  13.136   6.278
70790SOL    HW214204   8.930  13.018   6.217
70791SOL     OW14205   3.815   8.026   9.651
70791SOL    HW114206   3.808   8.057   9.561
70791SOL    HW214207   3.809   7.931   9.645
70792SOL     OW14208   1.502  13.248   6.038
70792SOL    HW114209   1.541  13.240   6.125
70792SOL    HW214210   1.512  13.341   6.016
70793SOL     OW14211   8.845   0.063  13.741
70793SOL    HW114212   8.787   0.021  13.677
70793SOL    HW214213   8.803   0.147  13.760
70794SOL     OW14214  13.250   2.205   7.433
70794SOL    HW114215  13.302   2.227   7.355
70794SOL    HW214216  13.245   2.109   7.432
70795SOL     OW14217  10.574   6.322   1.395
70795SOL    HW114218  10.584   6.240   1.444
70795SOL    HW214219  10.616   6.305   1.311
70796SOL     OW14220   9.536  12.129   2.300
70796SOL    HW114221   9.520  12.150   2.208
70796SOL    HW214222   9.449  12.113   2.337
70797SOL     OW14223   5.150   3.828   8.789
70797SOL    HW114224   5.089   3.757   8.811
70797SOL    HW214225   5.098   3.886   8.733
70798SOL     OW14226   0.609   9.724  14.442
70798SOL    HW114227   0.538   9.664  14.418
70798SOL    HW214228   0.591   9.746  14.534
70799SOL     OW14229  14.612  12.474  12.041
70799SOL    HW114230  14.617  12.447  12.132
70799SOL    HW214231  14.595  12.569  12.045
70800SOL     OW14232  12.376   5.764   3.316
70800SOL    HW114233  12.444   5.710   3.356
70800SOL    HW214234  12.299   5.708   3.313
70801SOL     OW14235  12.815   6.872   5.405
70801SOL    HW114236  12.831   6.809   5.334
70801SOL    HW214237  12.869   6.842   5.477
70802SOL     OW14238   6.664  10.518  11.536
70802SOL    HW114239   6.678  10.424  11.544
70802SOL    HW214240   6.752  10.555  11.529
70803SOL     OW14241   0.912   3.068   4.747
70803SOL    HW114242   0.954   3.090   4.830
70803SOL    HW214243   0.982   3.031   4.694
70804SOL     OW14244   2.123   9.732   5.331
70804SOL    HW114245   2.055   9.749   5.265
70804SOL    HW214246   2.080   9.750   5.414
70805SOL     OW14247   5.448  12.902   8.414
70805SOL    HW114248   5.499  12.982   8.425
70805SOL    HW214249   5.383  12.923   8.347
70806SOL     OW14250   6.818   2.094  12.317
70806SOL    HW114251   6.796   2.014  12.271
70806SOL    HW214252   6.853   2.064  12.402
70807SOL     OW14253   2.873   9.496   3.471
70807SOL    HW114254   2.821   9.479   3.549
70807SOL    HW214255   2.881   9.591   3.467
70808SOL     OW14256   8.031  14.064   5.138
70808SOL    HW114257   8.010  14.158   5.134
70808SOL    HW214258   7.961  14.027   5.193
70809SOL     OW14259   4.109   2.746   5.093
70809SOL    HW114260   4.068   2.822   5.051
70809SOL    HW214261   4.194   2.737   5.049
70810SOL     OW14262   5.852  12.061   0.507
70810SOL    HW114263   5.913  12.024   0.572
70810SOL    HW214264   5.837  12.151   0.537
70811SOL     OW14265  12.262  13.719   5.262
70811SOL    HW114266  12.328  13.766   5.212
70811SOL    HW214267  12.235  13.779   5.331
70812SOL     OW14268   0.844   9.889  11.755
70812SOL    HW114269   0.828   9.895  11.661
70812SOL    HW214270   0.769   9.934  11.795
70813SOL     OW14271  14.441   4.792   9.044
70813SOL    HW114272  14.376   4.727   9.071
70813SOL    HW214273  14.392   4.874   9.037
70814SOL     OW14274   8.968   0.854  12.242
70814SOL    HW114275   8.918   0.785  12.286
70814SOL    HW214276   9.011   0.902  12.314
70815SOL     OW14277   8.683   8.369  10.040
70815SOL    HW114278   8.659   8.279  10.062
70815SOL    HW214279   8.655   8.421  10.115
70816SOL     OW14280  12.114  10.115   7.312
70816SOL    HW114281  12.031  10.094   7.355
70816SOL    HW214282  12.147  10.031   7.282
70817SOL     OW14283   9.932  10.482  10.293
70817SOL    HW114284   9.990  10.532  10.350
70817SOL    HW214285   9.966  10.496  10.205
70818SOL     OW14286   1.447   7.953   2.874
70818SOL    HW114287   1.423   7.904   2.795
70818SOL    HW214288   1.395   8.033   2.868
70819SOL     OW14289   6.368  13.566   3.362
70819SOL    HW114290   6.356  13.549   3.455
70819SOL    HW214291   6.281  13.558   3.324
70820SOL     OW14292   9.155  11.942   7.473
70820SOL    HW114293   9.223  11.905   7.529
70820SOL    HW214294   9.106  11.866   7.441
70821SOL     OW14295   7.613   1.611   2.784
70821SOL    HW114296   7.681   1.552   2.817
70821SOL    HW214297   7.595   1.579   2.695
70822SOL     OW14298   4.623  11.798  13.450
70822SOL    HW114299   4.620  11.812  13.356
70822SOL    HW214300   4.580  11.875  13.488
70823SOL     OW14301   9.029   8.020   8.322
70823SOL    HW114302   8.948   8.069   8.310
70823SOL    HW214303   9.097   8.086   8.322
70824SOL     OW14304   7.431   0.047   8.996
70824SOL    HW114305   7.430  14.831   9.009
70824SOL    HW214306   7.356   0.064   8.939
70825SOL     OW14307   4.252  13.612   0.251
70825SOL    HW114308   4.307  13.538   0.278
70825SOL    HW214309   4.234  13.594   0.158
70826SOL     OW14310   0.092   2.814  12.120
70826SOL    HW114311   0.048   2.812  12.205
70826SOL    HW214312   0.175   2.857  12.137
70827SOL     OW14313   7.927   3.980  12.193
70827SOL    HW114314   7.912   4.070  12.221
70827SOL    HW214315   7.978   3.988  12.113
70828SOL     OW14316   8.381   1.435   8.046
70828SOL    HW114317   8.363   1.459   8.137
70828SOL    HW214318   8.475   1.447   8.036
70829SOL     OW14319  12.544   0.177   2.909
70829SOL    HW114320  12.476   0.244   2.918
70829SOL    HW214321  12.551   0.138   2.996
70830SOL     OW14322  12.949   7.711   7.168
70830SOL    HW114323  12.862   7.686   7.138
70830SOL    HW214324  12.942   7.712   7.264
70831SOL     OW14325   4.454   0.758   5.737
70831SOL    HW114326   4.531   0.812   5.725
70831SOL    HW214327   4.414   0.753   5.650
70832SOL     OW14328  13.981   9.237   0.478
70832SOL    HW114329  14.041   9.294   0.524
70832SOL    HW214330  13.894   9.260   0.512
70833SOL     OW14331   4.265   6.540   0.483
70833SOL    HW114332   4.237   6.448   0.482
70833SOL    HW214333   4.280   6.560   0.575
70834SOL     OW14334   7.903   9.596   0.761
70834SOL    HW114335   7.948   9.622   0.681
70834SOL    HW214336   7.862   9.513   0.739
70835SOL     OW14337   9.937   7.963   1.987
70835SOL    HW114338  10.028   7.963   2.018
70835SOL    HW214339   9.944   7.945   1.893
70836SOL     OW14340   3.474  13.762   5.894
70836SOL    HW114341   3.556  13.738   5.850
70836SOL    HW214342   3.466  13.856   5.879
70837SOL     OW14343   5.016  11.901   7.494
70837SOL    HW114344   4.934  11.888   7.541
70837SOL    HW214345   5.079  11.923   7.563
70838SOL     OW14346  13.501  10.981  14.817
70838SOL    HW114347  13.550  10.899  14.806
70838SOL    HW214348  13.476  11.007  14.729
70839SOL     OW14349   1.996  11.789   2.277
70839SOL    HW114350   1.948  11.814   2.355
70839SOL    HW214351   2.073  11.743   2.310
70840SOL     OW14352   0.498   2.422  14.145
70840SOL    HW114353   0.538   2.394  14.227
70840SOL    HW214354   0.568   2.470  14.100
70841SOL     OW14355   2.407   8.319   1.665
70841SOL    HW114356   2.312   8.330   1.656
70841SOL    HW214357   2.438   8.405   1.693
70842SOL     OW14358   3.170   3.217  13.423
70842SOL    HW114359   3.167   3.171  13.339
70842SOL    HW214360   3.211   3.301  13.403
70843SOL     OW14361   4.049   9.456   0.013
70843SOL    HW114362   4.066   9.543  14.855
70843SOL    HW214363   4.042   9.472   0.107
70844SOL     OW14364   7.246  11.072  11.939
70844SOL    HW114365   7.224  10.997  11.994
70844SOL    HW214366   7.276  11.139  12.000
70845SOL     OW14367   4.525   3.588  13.281
70845SOL    HW114368   4.443   3.539  13.288
70845SOL    HW214369   4.522   3.627  13.194
70846SOL     OW14370  14.852   1.521   3.320
70846SOL    HW114371  14.815   1.491   3.403
70846SOL    HW214372  14.790   1.492   3.254
70847SOL     OW14373  12.464  13.826   5.112
70847SOL    HW114374  12.500  13.847   5.025
70847SOL    HW214375  12.537  13.842   5.172
70848SOL     OW14376   2.460  12.638   5.155
70848SOL    HW114377   2.505  12.645   5.240
70848SOL    HW214378   2.444  12.545   5.144
70849SOL     OW14379   7.612   0.800   3.913
70849SOL    HW114380   7.684   0.752   3.872
70849SOL    HW214381   7.654   0.848   3.985
70850SOL     OW14382   0.421   0.859  11.253
70850SOL    HW114383   0.362   0.898  11.188
70850SOL    HW214384   0.507   0.895  11.231
70851SOL     OW14385   8.878   8.626  14.719
70851SOL    HW114386   8.968   8.593  14.715
70851SOL    HW214387   8.860   8.633  14.813
70852SOL     OW14388   0.940  12.501   4.964
70852SOL    HW114389   0.935  12.436   5.034
70852SOL    HW214390   0.863  12.556   4.977
70853SOL     OW14391   3.326  10.406  13.537
70853SOL    HW114392   3.349  10.499  13.539
70853SOL    HW214393   3.231  10.405  13.546
70854SOL     OW14394  10.545   8.048   0.962
70854SOL    HW114395  10.463   8.002   0.945
70854SOL    HW214396  10.520   8.138   0.978
70855SOL     OW14397   0.512   7.683   7.258
70855SOL    HW114398   0.443   7.668   7.193
70855SOL    HW214399   0.591   7.698   7.206
70856SOL     OW14400  10.504  11.421   7.197
70856SOL    HW114401  10.447  11.484   7.242
70856SOL    HW214402  10.458  11.402   7.115
70857SOL     OW14403   6.536  10.819   3.897
70857SOL    HW114404   6.491  10.867   3.967
70857SOL    HW214405   6.628  10.843   3.907
70858SOL     OW14406   3.870   4.271   5.469
70858SOL    HW114407   3.860   4.194   5.412
70858SOL    HW214408   3.920   4.239   5.544
70859SOL     OW14409   7.156  11.625   6.287
70859SOL    HW114410   7.205  11.545   6.267
70859SOL    HW214411   7.121  11.653   6.202
70860SOL     OW14412  11.298   0.173   4.845
70860SOL    HW114413  11.251   0.211   4.919
70860SOL    HW214414  11.361   0.240   4.819
70861SOL     OW14415   9.572   7.672   8.997
70861SOL    HW114416   9.572   7.639   9.087
70861SOL    HW214417   9.486   7.647   8.962
70862SOL     OW14418   5.894   3.159   4.779
70862SOL    HW114419   5.940   3.237   4.809
70862SOL    HW214420   5.832   3.191   4.713
70863SOL     OW14421   1.936   4.334   8.251
70863SOL    HW114422   1.991   4.265   8.213
70863SOL    HW214423   1.855   4.290   8.275
70864SOL     OW14424  12.472  13.284   1.540
70864SOL    HW114425  12.537  13.231   1.587
70864SOL    HW214426  12.491  13.268   1.447
70865SOL     OW14427   9.410   9.858  13.237
70865SOL    HW114428   9.453   9.894  13.160
70865SOL    HW214429   9.442   9.912  13.310
70866SOL     OW14430   5.977   1.607  11.045
70866SOL    HW114431   5.896   1.656  11.059
70866SOL    HW214432   6.027   1.620  11.125
70867SOL     OW14433   9.315   6.053   5.921
70867SOL    HW114434   9.394   6.043   5.974
70867SOL    HW214435   9.291   6.146   5.931
70868SOL     OW14436   4.322   8.344   0.634
70868SOL    HW114437   4.318   8.434   0.601
70868SOL    HW214438   4.374   8.350   0.714
70869SOL     OW14439   1.164   6.519   2.815
70869SOL    HW114440   1.147   6.451   2.749
70869SOL    HW214441   1.231   6.481   2.871
70870SOL     OW14442   0.601  11.016   7.291
70870SOL    HW114443   0.530  11.080   7.302
70870SOL    HW214444   0.596  10.990   7.199
70871SOL     OW14445   3.783   1.034  11.259
70871SOL    HW114446   3.721   1.086  11.310
70871SOL    HW214447   3.803   1.087  11.183
70872SOL     OW14448   5.369   4.222   4.495
70872SOL    HW114449   5.280   4.198   4.468
70872SOL    HW214450   5.405   4.142   4.533
70873SOL     OW14451   3.994  13.119   3.627
70873SOL    HW114452   3.963  13.111   3.718
70873SOL    HW214453   4.015  13.029   3.601
70874SOL     OW14454  13.871   6.053  12.281
70874SOL    HW114455  13.936   6.007  12.335
70874SOL    HW214456  13.911   6.139  12.264
70875SOL     OW14457   7.539   8.353  14.128
70875SOL    HW114458   7.530   8.447  14.144
70875SOL    HW214459   7.469   8.314  14.181
70876SOL     OW14460   4.998  12.420   4.859
70876SOL    HW114461   4.986  12.514   4.868
70876SOL    HW214462   4.912  12.382   4.877
70877SOL     OW14463   5.675  14.874   7.980
70877SOL    HW114464   5.750   0.036   8.023
70877SOL    HW214465   5.713  14.804   7.927
70878SOL     OW14466  13.518   7.426   3.461
70878SOL    HW114467  13.605   7.425   3.421
70878SOL    HW214468  13.472   7.496   3.415
70879SOL     OW14469  10.439   1.495  11.457
70879SOL    HW114470  10.490   1.486  11.537
70879SOL    HW214471  10.503   1.483  11.387
70880SOL     OW14472  13.465   0.467  11.247
70880SOL    HW114473  13.401   0.397  11.261
70880SOL    HW214474  13.456   0.490  11.154
70881SOL     OW14475   6.447   5.582   4.887
70881SOL    HW114476   6.362   5.594   4.843
70881SOL    HW214477   6.509   5.630   4.832
70882SOL     OW14478   5.196   2.031  11.535
70882SOL    HW114479   5.245   1.992  11.608
70882SOL    HW214480   5.245   2.109  11.512
70883SOL     OW14481  12.966  12.645  13.560
70883SOL    HW114482  12.924  12.559  13.557
70883SOL    HW214483  12.912  12.695  13.621
70884SOL     OW14484   6.282  10.272   5.653
70884SOL    HW114485   6.288  10.187   5.609
70884SOL    HW214486   6.347  10.326   5.608
70885SOL     OW14487   0.959   9.522   1.889
70885SOL    HW114488   1.012   9.443   1.883
70885SOL    HW214489   0.933   9.527   1.981
70886SOL     OW14490  13.688   9.364   9.869
70886SOL    HW114491  13.697   9.268   9.870
70886SOL    HW214492  13.668   9.387   9.959
70887SOL     OW14493   7.634  12.054   9.683
70887SOL    HW114494   7.646  11.992   9.756
70887SOL    HW214495   7.564  12.112   9.713
70888SOL     OW14496   7.836   1.122   5.514
70888SOL    HW114497   7.743   1.101   5.511
70888SOL    HW214498   7.861   1.136   5.422
70889SOL     OW14499   1.845   9.797   5.778
70889SOL    HW114500   1.868   9.833   5.863
70889SOL    HW214501   1.750   9.809   5.771
70890SOL     OW14502  12.507  12.751   1.433
70890SOL    HW114503  12.519  12.706   1.350
70890SOL    HW214504  12.415  12.741   1.454
70891SOL     OW14505   9.153  11.330  11.096
70891SOL    HW114506   9.195  11.267  11.155
70891SOL    HW214507   9.092  11.378  11.151
70892SOL     OW14508   2.827  13.020  11.758
70892SOL    HW114509   2.922  13.017  11.766
70892SOL    HW214510   2.811  13.037  11.666
70893SOL     OW14511   8.531   4.692   9.765
70893SOL    HW114512   8.446   4.732   9.744
70893SOL    HW214513   8.543   4.710   9.858
70894SOL     OW14514   2.108   7.632   1.530
70894SOL    HW114515   2.041   7.698   1.517
70894SOL    HW214516   2.086   7.591   1.614
70895SOL     OW14517  11.799  10.472   3.054
70895SOL    HW114518  11.815  10.473   3.148
70895SOL    HW214519  11.836  10.554   3.022
70896SOL     OW14520   0.375   8.043  13.085
70896SOL    HW114521   0.281   8.044  13.070
70896SOL    HW214522   0.412   8.005  13.005
70897SOL     OW14523   9.996   2.311   8.713
70897SOL    HW114524   9.911   2.348   8.690
70897SOL    HW214525   9.983   2.216   8.708
70898SOL     OW14526  10.616  11.896   9.739
70898SOL    HW114527  10.542  11.842   9.767
70898SOL    HW214528  10.629  11.874   9.646
70899SOL     OW14529   9.589   0.043   0.729
70899SOL    HW114530   9.546   0.128   0.728
70899SOL    HW214531   9.537  14.870   0.790
70900SOL     OW14532   9.534   0.817   1.740
70900SOL    HW114533   9.484   0.872   1.801
70900SOL    HW214534   9.467   0.772   1.688
70901SOL     OW14535  14.868   1.493  11.535
70901SOL    HW114536  14.817   1.572  11.518
70901SOL    HW214537   0.015   1.501  11.626
70902SOL     OW14538   1.280   2.335  14.436
70902SOL    HW114539   1.350   2.394  14.464
70902SOL    HW214540   1.318   2.284  14.364
70903SOL     OW14541  10.490   6.224   4.338
70903SOL    HW114542  10.519   6.185   4.421
70903SOL    HW214543  10.431   6.158   4.301
70904SOL     OW14544   6.506   9.570   5.757
70904SOL    HW114545   6.431   9.559   5.817
70904SOL    HW214546   6.550   9.486   5.758
70905SOL     OW14547   5.947   1.586   8.268
70905SOL    HW114548   5.915   1.553   8.184
70905SOL    HW214549   5.895   1.665   8.284
70906SOL     OW14550  12.074  14.075   6.302
70906SOL    HW114551  11.989  14.059   6.262
70906SOL    HW214552  12.066  14.163   6.339
70907SOL     OW14553   4.144  13.739   7.979
70907SOL    HW114554   4.061  13.745   8.025
70907SOL    HW214555   4.157  13.645   7.965
70908SOL     OW14556  12.986  14.820  11.198
70908SOL    HW114557  13.060  14.823  11.138
70908SOL    HW214558  13.025  14.836  11.284
70909SOL     OW14559   0.095  12.886   7.225
70909SOL    HW114560   0.005  12.919   7.222
70909SOL    HW214561   0.145  12.958   7.263
70910SOL     OW14562   7.416  11.328   9.402
70910SOL    HW114563   7.430  11.402   9.461
70910SOL    HW214564   7.503  11.289   9.392
70911SOL     OW14565  13.884   2.505  10.799
70911SOL    HW114566  13.833   2.539  10.725
70911SOL    HW214567  13.927   2.427  10.764
70912SOL     OW14568  10.965   4.322   2.135
70912SOL    HW114569  10.957   4.340   2.041
70912SOL    HW214570  10.977   4.227   2.141
70913SOL     OW14571   6.292   8.836   1.695
70913SOL    HW114572   6.310   8.909   1.755
70913SOL    HW214573   6.360   8.842   1.629
70914SOL     OW14574   9.725  12.024   7.977
70914SOL    HW114575   9.633  12.045   7.989
70914SOL    HW214576   9.755  12.000   8.065
70915SOL     OW14577  13.875  11.903  14.770
70915SOL    HW114578  13.817  11.888  14.844
70915SOL    HW214579  13.915  11.818  14.753
70916SOL     OW14580   8.181   3.759   2.733
70916SOL    HW114581   8.214   3.839   2.774
70916SOL    HW214582   8.187   3.693   2.802
70917SOL     OW14583   1.933  13.544   0.088
70917SOL    HW114584   1.943  13.468   0.146
70917SOL    HW214585   1.930  13.619   0.147
70918SOL     OW14586  13.072   6.620   1.524
70918SOL    HW114587  13.122   6.620   1.605
70918SOL    HW214588  12.989   6.661   1.548
70919SOL     OW14589   1.829   1.182   9.363
70919SOL    HW114590   1.738   1.200   9.385
70919SOL    HW214591   1.879   1.226   9.432
70920SOL     OW14592  11.460   2.300  12.178
70920SOL    HW114593  11.365   2.293  12.184
70920SOL    HW214594  11.476   2.337  12.092
70921SOL     OW14595   6.610  14.277   0.074
70921SOL    HW114596   6.664  14.248   0.148
70921SOL    HW214597   6.590  14.369   0.092
70922SOL     OW14598   4.045   9.713   0.666
70922SOL    HW114599   3.964   9.763   0.679
70922SOL    HW214600   4.078   9.742   0.581
70923SOL     OW14601  11.811   8.112  13.276
70923SOL    HW114602  11.775   8.197  13.301
70923SOL    HW214603  11.817   8.063  13.358
70924SOL     OW14604   0.608   7.296   1.725
70924SOL    HW114605   0.645   7.377   1.758
70924SOL    HW214606   0.516   7.317   1.706
70925SOL     OW14607  11.783  14.551   2.016
70925SOL    HW114608  11.811  14.618   1.954
70925SOL    HW214609  11.718  14.595   2.071
70926SOL     OW14610   6.397   5.195   7.453
70926SOL    HW114611   6.433   5.280   7.480
70926SOL    HW214612   6.350   5.163   7.530
70927SOL     OW14613  12.840   1.865  11.881
70927SOL    HW114614  12.758   1.833  11.918
70927SOL    HW214615  12.857   1.808  11.806
70928SOL     OW14616   8.973   5.468   0.620
70928SOL    HW114617   9.046   5.407   0.624
70928SOL    HW214618   8.897   5.412   0.601
70929SOL     OW14619   9.037   1.986   3.901
70929SOL    HW114620   9.083   2.048   3.844
70929SOL    HW214621   9.079   1.998   3.987
70930SOL     OW14622   4.157   1.021   0.261
70930SOL    HW114623   4.196   1.023   0.174
70930SOL    HW214624   4.134   0.929   0.275
70931SOL     OW14625  13.297  12.657   2.243
70931SOL    HW114626  13.202  12.643   2.244
70931SOL    HW214627  13.334  12.570   2.228
70932SOL     OW14628   5.914   7.856  11.473
70932SOL    HW114629   5.824   7.849  11.442
70932SOL    HW214630   5.910   7.835  11.566
70933SOL     OW14631   2.164   8.499   0.682
70933SOL    HW114632   2.236   8.514   0.621
70933SOL    HW214633   2.157   8.581   0.730
70934SOL     OW14634   4.924   0.027  14.312
70934SOL    HW114635   4.861   0.037  14.383
70934SOL    HW214636   4.987  14.842  14.345
70935SOL     OW14637  11.054   0.379   4.469
70935SOL    HW114638  11.102   0.300   4.495
70935SOL    HW214639  10.982   0.347   4.416
70936SOL     OW14640  13.922   7.061  10.348
70936SOL    HW114641  13.925   6.972  10.382
70936SOL    HW214642  14.010   7.076  10.313
70937SOL     OW14643   7.422   2.646  13.866
70937SOL    HW114644   7.399   2.648  13.959
70937SOL    HW214645   7.503   2.595  13.863
70938SOL     OW14646  11.694   2.125   1.794
70938SOL    HW114647  11.643   2.044   1.791
70938SOL    HW214648  11.770   2.108   1.738
70939SOL     OW14649  10.910  13.901  14.389
70939SOL    HW114650  10.969  13.904  14.464
70939SOL    HW214651  10.835  13.955  14.416
70940SOL     OW14652   8.397   5.474   9.152
70940SOL    HW114653   8.346   5.532   9.209
70940SOL    HW214654   8.487   5.505   9.160
70941SOL     OW14655  12.943   4.390  11.602
70941SOL    HW114656  12.852   4.404  11.577
70941SOL    HW214657  12.993   4.423  11.527
70942SOL     OW14658   7.614   0.207   5.096
70942SOL    HW114659   7.657   0.206   5.011
70942SOL    HW214660   7.679   0.170   5.156
70943SOL     OW14661   8.785   1.357  14.750
70943SOL    HW114662   8.740   1.405  14.819
70943SOL    HW214663   8.714   1.327  14.692
70944SOL     OW14664   3.825  13.343   7.734
70944SOL    HW114665   3.758  13.405   7.705
70944SOL    HW214666   3.858  13.303   7.654
70945SOL     OW14667   8.166   3.743   2.442
70945SOL    HW114668   8.259   3.755   2.426
70945SOL    HW214669   8.154   3.761   2.536
70946SOL     OW14670  10.201  14.161   1.538
70946SOL    HW114671  10.238  14.073   1.537
70946SOL    HW214672  10.114  14.150   1.577
70947SOL     OW14673  14.877  14.228   5.346
70947SOL    HW114674  14.816  14.202   5.415
70947SOL    HW214675   0.036  14.146   5.316
70948SOL     OW14676  10.895   4.200  13.337
70948SOL    HW114677  10.837   4.165  13.404
70948SOL    HW214678  10.873   4.150  13.258
70949SOL     OW14679   2.668   8.781   4.696
70949SOL    HW114680   2.739   8.754   4.638
70949SOL    HW214681   2.590   8.737   4.662
70950SOL     OW14682  11.996   0.345  12.464
70950SOL    HW114683  12.040   0.288  12.527
70950SOL    HW214684  12.031   0.319  12.379
70951SOL     OW14685   2.303   0.352  13.639
70951SOL    HW114686   2.266   0.429  13.682
70951SOL    HW214687   2.324   0.292  13.710
70952SOL     OW14688  11.864  10.092  10.109
70952SOL    HW114689  11.943  10.068  10.158
70952SOL    HW214690  11.815  10.148  10.169
70953SOL     OW14691   8.126   1.148  13.003
70953SOL    HW114692   8.102   1.185  13.088
70953SOL    HW214693   8.116   1.053  13.014
70954SOL     OW14694  11.847   7.814   2.232
70954SOL    HW114695  11.836   7.821   2.137
70954SOL    HW214696  11.758   7.805   2.266
70955SOL     OW14697  11.969  12.114   8.858
70955SOL    HW114698  12.063  12.094   8.865
70955SOL    HW214699  11.960  12.155   8.772
70956SOL     OW14700  13.699   1.908   4.484
70956SOL    HW114701  13.772   1.882   4.429
70956SOL    HW214702  13.710   2.002   4.496
70957SOL     OW14703  11.725   4.328  14.276
70957SOL    HW114704  11.719   4.249  14.223
70957SOL    HW214705  11.812   4.326  14.314
70958SOL     OW14706   5.447   5.999  12.120
70958SOL    HW114707   5.451   6.067  12.187
70958SOL    HW214708   5.373   6.024  12.065
70959SOL     OW14709   0.329  12.255   8.129
70959SOL    HW114710   0.272  12.322   8.167
70959SOL    HW214711   0.416  12.276   8.162
70960SOL     OW14712   0.476  11.530   9.376
70960SOL    HW114713   0.494  11.578   9.457
70960SOL    HW214714   0.390  11.490   9.390
70961SOL     OW14715   3.961  14.858   2.534
70961SOL    HW114716   4.002  14.784   2.490
70961SOL    HW214717   3.867  14.838   2.534
70962SOL     OW14718   8.826   8.664   2.765
70962SOL    HW114719   8.802   8.734   2.704
70962SOL    HW214720   8.874   8.601   2.711
70963SOL     OW14721   5.729   6.922   1.101
70963SOL    HW114722   5.808   6.967   1.128
70963SOL    HW214723   5.696   6.972   1.026
70964SOL     OW14724   5.740  10.181   4.501
70964SOL    HW114725   5.751  10.086   4.496
70964SOL    HW214726   5.688  10.195   4.580
70965SOL     OW14727  10.049   8.762  12.204
70965SOL    HW114728  10.028   8.856  12.208
70965SOL    HW214729  10.051   8.735  12.296
70966SOL     OW14730   8.884   5.414  10.673
70966SOL    HW114731   8.950   5.483  10.670
70966SOL    HW214732   8.933   5.332  10.664
70967SOL     OW14733  12.508  11.240   1.850
70967SOL    HW114734  12.507  11.160   1.903
70967SOL    HW214735  12.498  11.311   1.914
70968SOL     OW14736  14.141   4.719   9.873
70968SOL    HW114737  14.074   4.784   9.854
70968SOL    HW214738  14.096   4.635   9.863
70969SOL     OW14739   0.096  14.670   5.441
70969SOL    HW114740   0.135  14.734   5.381
70969SOL    HW214741   0.053  14.606   5.384
70970SOL     OW14742   9.214  14.043   1.477
70970SOL    HW114743   9.142  13.980   1.475
70970SOL    HW214744   9.231  14.058   1.570
70971SOL     OW14745   9.682   4.766   7.136
70971SOL    HW114746   9.597   4.769   7.093
70971SOL    HW214747   9.675   4.696   7.200
70972SOL     OW14748  11.933  11.376  11.401
70972SOL    HW114749  11.941  11.294  11.450
70972SOL    HW214750  11.971  11.357  11.315
70973SOL     OW14751   8.004  14.506   2.476
70973SOL    HW114752   8.017  14.590   2.433
70973SOL    HW214753   7.964  14.528   2.561
70974SOL     OW14754   0.583   3.732   9.592
70974SOL    HW114755   0.573   3.680   9.671
70974SOL    HW214756   0.493   3.746   9.561
70975SOL     OW14757   0.834  13.609   2.179
70975SOL    HW114758   0.883  13.534   2.212
70975SOL    HW214759   0.832  13.596   2.084
70976SOL     OW14760   1.601  14.619   8.733
70976SOL    HW114761   1.591  14.525   8.747
70976SOL    HW214762   1.676  14.643   8.788
70977SOL     OW14763   6.802  12.765  10.608
70977SOL    HW114764   6.845  12.682  10.625
70977SOL    HW214765   6.711  12.751  10.637
70978SOL     OW14766   7.576  13.980   9.009
70978SOL    HW114767   7.489  13.982   8.969
70978SOL    HW214768   7.610  13.893   8.988
70979SOL     OW14769   6.707   7.741   5.741
70979SOL    HW114770   6.628   7.757   5.792
70979SOL    HW214771   6.686   7.667   5.685
70980SOL     OW14772   4.167  11.017   7.031
70980SOL    HW114773   4.160  11.037   6.937
70980SOL    HW214774   4.154  10.922   7.036
70981SOL     OW14775   0.440  13.716   2.445
70981SOL    HW114776   0.438  13.620   2.448
70981SOL    HW214777   0.489  13.736   2.366
70982SOL     OW14778   4.628  10.161  12.973
70982SOL    HW114779   4.703  10.160  13.032
70982SOL    HW214780   4.662  10.128  12.891
70983SOL     OW14781  10.759   4.567   2.361
70983SOL    HW114782  10.719   4.558   2.275
70983SOL    HW214783  10.739   4.657   2.388
70984SOL     OW14784  13.940   7.229   5.232
70984SOL    HW114785  13.870   7.221   5.297
70984SOL    HW214786  14.005   7.164   5.259
70985SOL     OW14787   1.968   8.129   7.669
70985SOL    HW114788   1.894   8.105   7.613
70985SOL    HW214789   1.932   8.125   7.758
70986SOL     OW14790   8.289   5.020   2.305
70986SOL    HW114791   8.379   5.016   2.274
70986SOL    HW214792   8.296   5.016   2.400
70987SOL     OW14793   6.413   7.423   5.530
70987SOL    HW114794   6.448   7.509   5.506
70987SOL    HW214795   6.485   7.362   5.512
70988SOL     OW14796  10.237  13.859   1.547
70988SOL    HW114797  10.259  13.804   1.622
70988SOL    HW214798  10.142  13.874   1.555
70989SOL     OW14799  11.047   0.086  13.824
70989SOL    HW114800  11.126   0.116  13.778
70989SOL    HW214801  10.978   0.087  13.758
70990SOL     OW14802  13.548  11.030   4.184
70990SOL    HW114803  13.614  11.071   4.240
70990SOL    HW214804  13.468  11.029   4.237
70991SOL     OW14805  10.350   8.611  12.266
70991SOL    HW114806  10.303   8.534  12.235
70991SOL    HW214807  10.284   8.680  12.270
70992SOL     OW14808  10.174   7.988  11.197
70992SOL    HW114809  10.242   8.048  11.227
70992SOL    HW214810  10.187   7.908  11.248
70993SOL     OW14811   4.471   1.785  10.931
70993SOL    HW114812   4.448   1.720  10.998
70993SOL    HW214813   4.566   1.777  10.921
70994SOL     OW14814   4.635  11.291   3.764
70994SOL    HW114815   4.558  11.265   3.814
70994SOL    HW214816   4.603  11.353   3.698
70995SOL     OW14817   8.502   4.166  14.407
70995SOL    HW114818   8.538   4.229  14.469
70995SOL    HW214819   8.556   4.088  14.418
70996SOL     OW14820   2.690  11.495   9.223
70996SOL    HW114821   2.697  11.514   9.130
70996SOL    HW214822   2.775  11.459   9.247
70997SOL     OW14823   0.715  11.833  11.581
70997SOL    HW114824   0.622  11.832  11.601
70997SOL    HW214825   0.753  11.894  11.645
70998SOL     OW14826  14.192  10.504   8.339
70998SOL    HW114827  14.209  10.572   8.274
70998SOL    HW214828  14.247  10.529   8.414
70999SOL     OW14829  13.267  14.147   6.281
70999SOL    HW114830  13.312  14.223   6.245
70999SOL    HW214831  13.337  14.088   6.309
71000SOL     OW14832  10.809   1.772   1.020
71000SOL    HW114833  10.794   1.804   0.930
71000SOL    HW214834  10.737   1.809   1.070
71001SOL     OW14835  13.803   8.391  10.315
71001SOL    HW114836  13.897   8.403  10.305
71001SOL    HW214837  13.772   8.473  10.355
71002SOL     OW14838  13.721   1.001   9.194
71002SOL    HW114839  13.628   1.024   9.188
71002SOL    HW214840  13.721   0.914   9.233
71003SOL     OW14841  14.055   8.207  12.426
71003SOL    HW114842  14.093   8.170  12.506
71003SOL    HW214843  13.960   8.202  12.441
71004SOL     OW14844   2.773  12.394   2.850
71004SOL    HW114845   2.688  12.408   2.890
71004SOL    HW214846   2.761  12.315   2.796
71005SOL     OW14847  12.855  13.232   5.794
71005SOL    HW114848  12.792  13.225   5.866
71005SOL    HW214849  12.908  13.153   5.800
71006SOL     OW14850   6.826   2.397  13.268
71006SOL    HW114851   6.886   2.346  13.323
71006SOL    HW214852   6.742   2.394  13.315
71007SOL     OW14853  10.179   8.096   9.645
71007SOL    HW114854  10.255   8.147   9.617
71007SOL    HW214855  10.114   8.162   9.670
71008SOL     OW14856  10.858  12.681  11.795
71008SOL    HW114857  10.841  12.593  11.827
71008SOL    HW214858  10.872  12.733  11.874
71009SOL     OW14859  11.794  10.608   1.007
71009SOL    HW114860  11.760  10.533   1.057
71009SOL    HW214861  11.716  10.657   0.982
71010SOL     OW14862   8.648   7.564  11.427
71010SOL    HW114863   8.671   7.534  11.515
71010SOL    HW214864   8.702   7.643  11.415
71011SOL     OW14865  13.009   8.246   6.775
71011SOL    HW114866  12.935   8.296   6.809
71011SOL    HW214867  13.015   8.270   6.683
71012SOL     OW14868   5.425   9.497  14.761
71012SOL    HW114869   5.395   9.439  14.831
71012SOL    HW214870   5.472   9.567  14.806
71013SOL     OW14871  11.676   0.982   5.805
71013SOL    HW114872  11.757   0.938   5.829
71013SOL    HW214873  11.697   1.075   5.809
71014SOL     OW14874   0.207   8.737   3.944
71014SOL    HW114875   0.200   8.721   4.038
71014SOL    HW214876   0.117   8.729   3.912
71015SOL     OW14877  11.408   8.467   6.083
71015SOL    HW114878  11.377   8.517   6.008
71015SOL    HW214879  11.500   8.449   6.064
71016SOL     OW14880   0.809  11.342  12.753
71016SOL    HW114881   0.820  11.273  12.819
71016SOL    HW214882   0.724  11.323  12.713
71017SOL     OW14883  13.482   1.805   7.546
71017SOL    HW114884  13.439   1.720   7.536
71017SOL    HW214885  13.542   1.811   7.472
71018SOL     OW14886  12.834  13.986  10.536
71018SOL    HW114887  12.862  13.917  10.476
71018SOL    HW214888  12.817  14.062  10.479
71019SOL     OW14889  14.655  10.276   2.243
71019SOL    HW114890  14.596  10.337   2.288
71019SOL    HW214891  14.732  10.271   2.300
71020SOL     OW14892   3.809   7.756   7.838
71020SOL    HW114893   3.749   7.791   7.903
71020SOL    HW214894   3.814   7.663   7.857
71021SOL     OW14895   7.595   8.862   4.226
71021SOL    HW114896   7.534   8.798   4.190
71021SOL    HW214897   7.575   8.943   4.180
71022SOL     OW14898  10.221   8.725  11.957
71022SOL    HW114899  10.271   8.806  11.970
71022SOL    HW214900  10.137   8.742  12.000
71023SOL     OW14901   1.466   8.169   6.083
71023SOL    HW114902   1.391   8.210   6.126
71023SOL    HW214903   1.532   8.162   6.152
71024SOL     OW14904  11.191   8.681   5.125
71024SOL    HW114905  11.216   8.593   5.095
71024SOL    HW214906  11.235   8.740   5.064
71025SOL     OW14907  13.247   0.209  10.496
71025SOL    HW114908  13.159   0.180  10.475
71025SOL    HW214909  13.271   0.267  10.423
71026SOL     OW14910  11.675   3.564   0.543
71026SOL    HW114911  11.729   3.485   0.539
71026SOL    HW214912  11.738   3.636   0.544
71027SOL     OW14913   4.716   2.922   1.475
71027SOL    HW114914   4.630   2.959   1.457
71027SOL    HW214915   4.734   2.944   1.566
71028SOL     OW14916   2.386   7.196  12.213
71028SOL    HW114917   2.319   7.130  12.199
71028SOL    HW214918   2.441   7.160  12.283
71029SOL     OW14919   4.475  10.446  12.311
71029SOL    HW114920   4.535  10.520  12.324
71029SOL    HW214921   4.479  10.398  12.394
71030SOL     OW14922   2.182   3.345   9.515
71030SOL    HW114923   2.226   3.287   9.577
71030SOL    HW214924   2.236   3.340   9.436
71031SOL     OW14925   7.778   6.423   4.438
71031SOL    HW114926   7.824   6.505   4.420
71031SOL    HW214927   7.697   6.451   4.481
71032SOL     OW14928  11.369   4.697   0.232
71032SOL    HW114929  11.341   4.741   0.151
71032SOL    HW214930  11.293   4.703   0.290
71033SOL     OW14931  12.079   1.108   6.374
71033SOL    HW114932  12.079   1.128   6.281
71033SOL    HW214933  12.000   1.057   6.388
71034SOL     OW14934   6.283   9.163   0.324
71034SOL    HW114935   6.308   9.086   0.273
71034SOL    HW214936   6.222   9.130   0.390
71035SOL     OW14937   4.025   3.577  10.689
71035SOL    HW114938   3.963   3.609  10.623
71035SOL    HW214939   4.110   3.611  10.661
71036SOL     OW14940  13.639  14.514   6.342
71036SOL    HW114941  13.626  14.420   6.328
71036SOL    HW214942  13.711  14.520   6.405
71037SOL     OW14943   0.511   0.029   3.293
71037SOL    HW114944   0.563  14.869   3.364
71037SOL    HW214945   0.426  14.864   3.299
71038SOL     OW14946  12.377  12.001  10.492
71038SOL    HW114947  12.299  11.973  10.443
71038SOL    HW214948  12.349  12.080  10.537
71039SOL     OW14949   2.226  12.699   9.302
71039SOL    HW114950   2.263  12.742   9.379
71039SOL    HW214951   2.209  12.610   9.330
71040SOL     OW14952  10.229  11.125   4.277
71040SOL    HW114953  10.159  11.173   4.232
71040SOL    HW214954  10.267  11.190   4.336
71041SOL     OW14955   6.255  10.115   0.845
71041SOL    HW114956   6.242  10.072   0.929
71041SOL    HW214957   6.348  10.137   0.842
71042SOL     OW14958   4.658   9.240   2.878
71042SOL    HW114959   4.735   9.276   2.922
71042SOL    HW214960   4.590   9.240   2.945
71043SOL     OW14961   7.945   0.311   5.786
71043SOL    HW114962   7.975   0.279   5.871
71043SOL    HW214963   7.971   0.403   5.784
71044SOL     OW14964   0.697   3.316   8.744
71044SOL    HW114965   0.604   3.338   8.746
71044SOL    HW214966   0.726   3.344   8.657
71045SOL     OW14967  11.141  10.626   1.839
71045SOL    HW114968  11.202  10.572   1.790
71045SOL    HW214969  11.184  10.642   1.923
71046SOL     OW14970   9.204   8.400  14.183
71046SOL    HW114971   9.147   8.425  14.111
71046SOL    HW214972   9.262   8.475  14.195
71047SOL     OW14973   4.262  11.829  14.419
71047SOL    HW114974   4.316  11.869  14.487
71047SOL    HW214975   4.320  11.826  14.342
71048SOL     OW14976  12.136  11.696   4.051
71048SOL    HW114977  12.052  11.691   4.098
71048SOL    HW214978  12.124  11.769   3.990
71049SOL     OW14979   7.300   0.517  11.225
71049SOL    HW114980   7.329   0.453  11.289
71049SOL    HW214981   7.230   0.566  11.269
71050SOL     OW14982  13.216   2.971  13.401
71050SOL    HW114983  13.310   2.966  13.389
71050SOL    HW214984  13.205   3.011  13.487
71051SOL     OW14985   5.557  11.105  11.742
71051SOL    HW114986   5.617  11.033  11.759
71051SOL    HW214987   5.593  11.179  11.791
71052SOL     OW14988   4.457  12.232   9.798
71052SOL    HW114989   4.398  12.250   9.871
71052SOL    HW214990   4.500  12.316   9.780
71053SOL     OW14991   7.576   7.790   3.589
71053SOL    HW114992   7.644   7.744   3.539
71053SOL    HW214993   7.568   7.875   3.545
71054SOL     OW14994  13.350   2.581   5.931
71054SOL    HW114995  13.327   2.496   5.893
71054SOL    HW214996  13.333   2.644   5.861
71055SOL     OW14997  14.127   8.246   6.085
71055SOL    HW114998  14.038   8.274   6.106
71055SOL    HW214999  14.121   8.151   6.078
71056SOL     OW15000   3.876  12.124   2.675
71056SOL    HW115001   3.962  12.115   2.718
71056SOL    HW215002   3.846  12.035   2.662
71057SOL     OW15003  13.106   2.232   1.407
71057SOL    HW115004  13.125   2.305   1.349
71057SOL    HW215005  13.083   2.273   1.491
71058SOL     OW15006   3.552  13.446   7.712
71058SOL    HW115007   3.464  13.469   7.741
71058SOL    HW215008   3.543  13.430   7.618
71059SOL     OW15009   6.137   1.430   1.639
71059SOL    HW115010   6.146   1.369   1.566
71059SOL    HW215011   6.043   1.433   1.657
71060SOL     OW15012  12.663   4.781   6.318
71060SOL    HW115013  12.626   4.744   6.398
71060SOL    HW215014  12.655   4.711   6.253
71061SOL     OW15015   1.133   5.450  14.031
71061SOL    HW115016   1.078   5.527  14.012
71061SOL    HW215017   1.101   5.383  13.971
71062SOL     OW15018   8.523  10.018  12.914
71062SOL    HW115019   8.527   9.923  12.903
71062SOL    HW215020   8.566  10.053  12.836
71063SOL     OW15021   1.987   0.918   1.490
71063SOL    HW115022   2.074   0.949   1.465
71063SOL    HW215023   1.953   0.875   1.412
71064SOL     OW15024   1.341  13.445   0.960
71064SOL    HW115025   1.276  13.486   1.018
71064SOL    HW215026   1.339  13.352   0.984
71065SOL     OW15027   1.194   6.145   5.360
71065SOL    HW115028   1.204   6.140   5.455
71065SOL    HW215029   1.169   6.237   5.343
71066SOL     OW15030  11.518   4.511  10.124
71066SOL    HW115031  11.506   4.524  10.030
71066SOL    HW215032  11.604   4.470  10.131
71067SOL     OW15033   5.859   2.572  11.961
71067SOL    HW115034   5.936   2.627  11.973
71067SOL    HW215035   5.889   2.483  11.983
71068SOL     OW15036   4.609  12.882   2.854
71068SOL    HW115037   4.570  12.801   2.819
71068SOL    HW215038   4.703  12.871   2.838
71069SOL     OW15039   7.249   6.529   8.741
71069SOL    HW115040   7.199   6.611   8.751
71069SOL    HW215041   7.182   6.461   8.743
71070SOL     OW15042  13.032  11.963   8.096
71070SOL    HW115043  13.048  12.031   8.161
71070SOL    HW215044  13.088  11.890   8.123
71071SOL     OW15045  13.371   0.733   7.201
71071SOL    HW115046  13.441   0.698   7.256
71071SOL    HW215047  13.410   0.739   7.114
71072SOL     OW15048   0.713  10.352   8.720
71072SOL    HW115049   0.623  10.319   8.720
71072SOL    HW215050   0.714  10.417   8.791
71073SOL     OW15051   9.171   0.154   3.584
71073SOL    HW115052   9.171   0.062   3.609
71073SOL    HW215053   9.094   0.191   3.628
71074SOL     OW15054   0.384  11.083  10.350
71074SOL    HW115055   0.386  11.105  10.257
71074SOL    HW215056   0.349  10.994  10.353
71075SOL     OW15057   0.714   3.657  11.183
71075SOL    HW115058   0.701   3.700  11.268
71075SOL    HW215059   0.797   3.611  11.192
71076SOL     OW15060  12.724   4.421  13.160
71076SOL    HW115061  12.734   4.345  13.103
71076SOL    HW215062  12.813   4.450  13.178
71077SOL     OW15063  12.505   1.518   3.115
71077SOL    HW115064  12.445   1.576   3.069
71077SOL    HW215065  12.590   1.535   3.077
71078SOL     OW15066   5.221   0.087  12.850
71078SOL    HW115067   5.164   0.050  12.783
71078SOL    HW215068   5.252   0.169  12.812
71079SOL     OW15069   2.127   7.118   1.425
71079SOL    HW115070   2.202   7.177   1.434
71079SOL    HW215071   2.095   7.135   1.337
71080SOL     OW15072  13.168   8.530   3.749
71080SOL    HW115073  13.220   8.549   3.671
71080SOL    HW215074  13.222   8.469   3.800
71081SOL     OW15075   7.484   0.407  13.510
71081SOL    HW115076   7.403   0.391  13.560
71081SOL    HW215077   7.553   0.368  13.564
71082SOL     OW15078   8.754  10.457   4.347
71082SOL    HW115079   8.799  10.402   4.411
71082SOL    HW215080   8.687  10.400   4.308
71083SOL     OW15081  12.337   6.299   2.561
71083SOL    HW115082  12.357   6.237   2.632
71083SOL    HW215083  12.268   6.256   2.511
71084SOL     OW15084  13.547   2.674  10.405
71084SOL    HW115085  13.469   2.619  10.405
71084SOL    HW215086  13.581   2.669  10.316
71085SOL     OW15087   7.127   5.081  12.131
71085SOL    HW115088   7.188   5.125  12.071
71085SOL    HW215089   7.073   5.027  12.073
71086SOL     OW15090  13.360  11.565  11.501
71086SOL    HW115091  13.337  11.658  11.510
71086SOL    HW215092  13.379  11.555  11.408
71087SOL     OW15093   6.538   3.336  13.970
71087SOL    HW115094   6.565   3.293  13.889
71087SOL    HW215095   6.592   3.416  13.974
71088SOL     OW15096   1.760   1.738  12.636
71088SOL    HW115097   1.774   1.705  12.725
71088SOL    HW215098   1.830   1.802  12.624
71089SOL     OW15099   2.485  13.787  11.153
71089SOL    HW115100   2.550  13.852  11.180
71089SOL    HW215101   2.419  13.838  11.105
71090SOL     OW15102  13.553  14.230   1.367
71090SOL    HW115103  13.513  14.300   1.418
71090SOL    HW215104  13.488  14.210   1.299
71091SOL     OW15105   9.692  14.548  13.948
71091SOL    HW115106   9.643  14.466  13.958
71091SOL    HW215107   9.630  14.616  13.973
71092SOL     OW15108   8.372  12.033   8.754
71092SOL    HW115109   8.417  11.950   8.763
71092SOL    HW215110   8.385  12.077   8.838
71093SOL     OW15111  10.709   5.280   0.035
71093SOL    HW115112  10.682   5.290   0.127
71093SOL    HW215113  10.718   5.370   0.004
71094SOL     OW15114   2.634   4.447  12.094
71094SOL    HW115115   2.558   4.414  12.141
71094SOL    HW215116   2.637   4.540  12.116
71095SOL     OW15117   6.274  10.491  11.772
71095SOL    HW115118   6.181  10.492  11.794
71095SOL    HW215119   6.318  10.485  11.857
71096SOL     OW15120   9.773  14.852   7.108
71096SOL    HW115121   9.726  14.845   7.025
71096SOL    HW215122   9.775   0.067   7.126
71097SOL     OW15123  14.846   8.423  11.917
71097SOL    HW115124  14.822   8.377  11.997
71097SOL    HW215125  14.864   8.513  11.946
71098SOL     OW15126  11.796  13.685   4.066
71098SOL    HW115127  11.755  13.765   4.035
71098SOL    HW215128  11.828  13.705   4.154
71099SOL     OW15129   1.836  14.762   6.847
71099SOL    HW115130   1.819  14.818   6.771
71099SOL    HW215131   1.752  14.720   6.865
71100SOL     OW15132  11.481   9.582   5.658
71100SOL    HW115133  11.507   9.650   5.597
71100SOL    HW215134  11.559   9.567   5.711
71101SOL     OW15135   7.096   7.795   3.363
71101SOL    HW115136   7.119   7.782   3.271
71101SOL    HW215137   7.102   7.708   3.402
71102SOL     OW15138   3.091  11.156  10.635
71102SOL    HW115139   3.137  11.073  10.619
71102SOL    HW215140   3.116  11.179  10.725
71103SOL     OW15141   2.824   3.033   7.594
71103SOL    HW115142   2.741   3.008   7.634
71103SOL    HW215143   2.836   2.972   7.522
71104SOL     OW15144   8.747  11.139   9.522
71104SOL    HW115145   8.711  11.098   9.443
71104SOL    HW215146   8.842  11.139   9.508
71105SOL     OW15147   9.706  10.660   9.727
71105SOL    HW115148   9.612  10.677   9.737
71105SOL    HW215149   9.724  10.592   9.792
71106SOL     OW15150   8.993   1.202  10.570
71106SOL    HW115151   8.963   1.207  10.661
71106SOL    HW215152   9.018   1.292  10.549
71107SOL     OW15153   2.328  13.424   1.627
71107SOL    HW115154   2.384  13.499   1.610
71107SOL    HW215155   2.240  13.454   1.606
71108SOL     OW15156   7.424  10.982   0.720
71108SOL    HW115157   7.403  11.069   0.753
71108SOL    HW215158   7.452  10.996   0.629
71109SOL     OW15159   0.486   1.521  13.053
71109SOL    HW115160   0.427   1.454  13.019
71109SOL    HW215161   0.515   1.486  13.138
71110SOL     OW15162   0.493   7.287  11.934
71110SOL    HW115163   0.471   7.317  11.846
71110SOL    HW215164   0.570   7.338  11.959
71111SOL     OW15165  10.981   9.693   3.095
71111SOL    HW115166  11.019   9.680   3.008
71111SOL    HW215167  11.054   9.723   3.149
71112SOL     OW15168   2.777  12.201  14.298
71112SOL    HW115169   2.793  12.293  14.318
71112SOL    HW215170   2.683  12.195  14.281
71113SOL     OW15171   3.235  12.930  11.479
71113SOL    HW115172   3.224  12.961  11.389
71113SOL    HW215173   3.234  12.834  11.471
71114SOL     OW15174   1.888   1.450   7.364
71114SOL    HW115175   1.844   1.525   7.403
71114SOL    HW215176   1.864   1.454   7.271
71115SOL     OW15177   6.004   6.964   7.596
71115SOL    HW115178   5.938   6.915   7.548
71115SOL    HW215179   6.071   6.899   7.618
71116SOL     OW15180  11.897  11.249  13.752
71116SOL    HW115181  11.924  11.166  13.712
71116SOL    HW215182  11.911  11.314  13.684
71117SOL     OW15183   6.174  11.310  10.925
71117SOL    HW115184   6.229  11.234  10.908
71117SOL    HW215185   6.217  11.381  10.877
71118SOL     OW15186   9.426   9.259  13.195
71118SOL    HW115187   9.361   9.191  13.179
71118SOL    HW215188   9.457   9.284  13.108
71119SOL     OW15189  11.215   9.423   5.540
71119SOL    HW115190  11.134   9.453   5.582
71119SOL    HW215191  11.269   9.501   5.531
71120SOL     OW15192   1.683   2.311   5.786
71120SOL    HW115193   1.757   2.251   5.794
71120SOL    HW215194   1.719   2.388   5.743
71121SOL     OW15195   4.158   6.941   4.573
71121SOL    HW115196   4.065   6.921   4.588
71121SOL    HW215197   4.174   7.020   4.624
71122SOL     OW15198   9.049  11.813   8.484
71122SOL    HW115199   8.984  11.851   8.425
71122SOL    HW215200   9.061  11.723   8.453
71123SOL     OW15201  14.351   3.673   7.520
71123SOL    HW115202  14.412   3.602   7.541
71123SOL    HW215203  14.276   3.658   7.577
71124SOL     OW15204   0.237   5.293  12.575
71124SOL    HW115205   0.217   5.369  12.630
71124SOL    HW215206   0.330   5.302  12.554
71125SOL     OW15207   8.378  10.578  11.937
71125SOL    HW115208   8.378  10.670  11.963
71125SOL    HW215209   8.322  10.535  12.001
71126SOL     OW15210  11.796  11.372   6.889
71126SOL    HW115211  11.709  11.333   6.880
71126SOL    HW215212  11.804  11.389   6.983
71127SOL     OW15213  10.797   3.100  12.113
71127SOL    HW115214  10.728   3.079  12.049
71127SOL    HW215215  10.795   3.195  12.120
71128SOL     OW15216   6.654   2.926   1.141
71128SOL    HW115217   6.694   2.984   1.076
71128SOL    HW215218   6.726   2.872   1.173
71129SOL     OW15219   8.646   0.351   9.122
71129SOL    HW115220   8.673   0.299   9.197
71129SOL    HW215221   8.727   0.364   9.072
71130SOL     OW15222   3.016  12.894   4.928
71130SOL    HW115223   2.947  12.900   4.994
71130SOL    HW215224   2.973  12.852   4.853
71131SOL     OW15225  13.489   3.371   5.593
71131SOL    HW115226  13.532   3.384   5.677
71131SOL    HW215227  13.402   3.409   5.604
71132SOL     OW15228   4.306  14.237  11.153
71132SOL    HW115229   4.285  14.322  11.114
71132SOL    HW215230   4.277  14.246  11.244
71133SOL     OW15231   1.218   4.020  10.501
71133SOL    HW115232   1.289   4.081  10.481
71133SOL    HW215233   1.251   3.934  10.474
71134SOL     OW15234   2.610   0.180  14.330
71134SOL    HW115235   2.697   0.189  14.369
71134SOL    HW215236   2.570   0.267  14.340
71135SOL     OW15237  10.225  12.733   4.278
71135SOL    HW115238  10.240  12.758   4.187
71135SOL    HW215239  10.135  12.701   4.279
71136SOL     OW15240   2.250   3.698   9.095
71136SOL    HW115241   2.160   3.666   9.089
71136SOL    HW215242   2.242   3.786   9.130
71137SOL     OW15243   7.671   2.235   1.917
71137SOL    HW115244   7.699   2.175   1.986
71137SOL    HW215245   7.591   2.195   1.881
71138SOL     OW15246   4.531  14.047  14.841
71138SOL    HW115247   4.531  13.960   0.000
71138SOL    HW215248   4.555  14.033  14.749
71139SOL     OW15249   3.505   1.514  12.536
71139SOL    HW115250   3.585   1.462  12.530
71139SOL    HW215251   3.534   1.602  12.557
71140SOL     OW15252   7.010   2.377  11.750
71140SOL    HW115253   7.004   2.384  11.655
71140SOL    HW215254   6.925   2.342  11.777
71141SOL     OW15255   8.886   9.165  13.856
71141SOL    HW115256   8.829   9.088  13.845
71141SOL    HW215257   8.827   9.240  13.851
71142SOL     OW15258  11.602   9.917   7.670
71142SOL    HW115259  11.634   9.860   7.600
71142SOL    HW215260  11.666   9.909   7.740
71143SOL     OW15261  14.304   0.723   8.101
71143SOL    HW115262  14.219   0.734   8.145
71143SOL    HW215263  14.285   0.663   8.029
71144SOL     OW15264   9.967   0.003   1.124
71144SOL    HW115265   9.918  14.839   1.054
71144SOL    HW215266   9.906   0.068   1.160
71145SOL     OW15267   1.219   6.930   3.518
71145SOL    HW115268   1.262   7.009   3.485
71145SOL    HW215269   1.181   6.958   3.602
71146SOL     OW15270   4.201   2.613  11.813
71146SOL    HW115271   4.140   2.685  11.797
71146SOL    HW215272   4.180   2.582  11.901
71147SOL     OW15273  10.424   6.320  11.112
71147SOL    HW115274  10.392   6.312  11.202
71147SOL    HW215275  10.345   6.320  11.059
71148SOL     OW15276   0.351   3.346  10.575
71148SOL    HW115277   0.308   3.306  10.500
71148SOL    HW215278   0.382   3.271  10.627
71149SOL     OW15279   2.283   8.462   7.089
71149SOL    HW115280   2.278   8.375   7.129
71149SOL    HW215281   2.192   8.491   7.082
71150SOL     OW15282  14.286  12.055   8.027
71150SOL    HW115283  14.311  12.039   8.118
71150SOL    HW215284  14.215  12.119   8.033
71151SOL     OW15285  12.773   5.138   6.086
71151SOL    HW115286  12.813   5.214   6.129
71151SOL    HW215287  12.692   5.123   6.136
71152SOL     OW15288   5.515   1.429   5.087
71152SOL    HW115289   5.474   1.456   5.004
71152SOL    HW215290   5.544   1.339   5.072
71153SOL     OW15291   9.051  10.419   4.690
71153SOL    HW115292   8.968  10.374   4.674
71153SOL    HW215293   9.051  10.492   4.628
71154SOL     OW15294   9.247  10.393   8.390
71154SOL    HW115295   9.167  10.361   8.348
71154SOL    HW215296   9.217  10.457   8.454
71155SOL     OW15297   7.045  13.853  13.332
71155SOL    HW115298   7.016  13.762  13.335
71155SOL    HW215299   6.965  13.904  13.336
71156SOL     OW15300   2.289  12.645   7.417
71156SOL    HW115301   2.223  12.684   7.475
71156SOL    HW215302   2.373  12.668   7.458
71157SOL     OW15303   8.071   7.768   7.153
71157SOL    HW115304   7.982   7.751   7.182
71157SOL    HW215305   8.061   7.816   7.071
71158SOL     OW15306  14.583   4.093   6.368
71158SOL    HW115307  14.504   4.098   6.422
71158SOL    HW215308  14.610   4.002   6.372
71159SOL     OW15309   8.193   6.432   8.616
71159SOL    HW115310   8.121   6.370   8.622
71159SOL    HW215311   8.218   6.450   8.707
71160SOL     OW15312   0.439   9.927   7.067
71160SOL    HW115313   0.367   9.974   7.108
71160SOL    HW215314   0.410   9.836   7.066
71161SOL     OW15315  10.806   1.782  11.913
71161SOL    HW115316  10.747   1.831  11.856
71161SOL    HW215317  10.757   1.769  11.994
71162SOL     OW15318   7.884   6.941   6.710
71162SOL    HW115319   7.913   7.032   6.715
71162SOL    HW215320   7.804   6.938   6.763
71163SOL     OW15321  12.999   6.868  13.866
71163SOL    HW115322  12.918   6.822  13.885
71163SOL    HW215323  13.006   6.865  13.770
71164SOL     OW15324   0.966  14.090  13.225
71164SOL    HW115325   0.913  14.053  13.154
71164SOL    HW215326   1.048  14.117  13.184
71165SOL     OW15327   0.874   4.266  10.083
71165SOL    HW115328   0.901   4.239   9.995
71165SOL    HW215329   0.778   4.266  10.079
71166SOL     OW15330   6.312   5.301  12.969
71166SOL    HW115331   6.272   5.384  12.993
71166SOL    HW215332   6.362   5.320  12.890
71167SOL     OW15333  12.526  12.866  10.175
71167SOL    HW115334  12.486  12.948  10.204
71167SOL    HW215335  12.619  12.877  10.191
71168SOL     OW15336   1.228   3.604  11.888
71168SOL    HW115337   1.185   3.539  11.943
71168SOL    HW215338   1.264   3.669  11.949
71169SOL     OW15339   4.112  10.714   4.810
71169SOL    HW115340   4.040  10.684   4.864
71169SOL    HW215341   4.074  10.726   4.723
71170SOL     OW15342  14.202  13.835   0.761
71170SOL    HW115343  14.217  13.909   0.821
71170SOL    HW215344  14.108  13.836   0.745
71171SOL     OW15345   2.083   1.024   4.831
71171SOL    HW115346   2.045   0.985   4.752
71171SOL    HW215347   2.161   0.971   4.849
71172SOL     OW15348   1.306   3.678  11.642
71172SOL    HW115349   1.394   3.661  11.676
71172SOL    HW215350   1.248   3.653  11.713
71173SOL     OW15351  14.356   6.706   8.175
71173SOL    HW115352  14.380   6.782   8.228
71173SOL    HW215353  14.270   6.728   8.138
71174SOL     OW15354   6.288   3.414   5.830
71174SOL    HW115355   6.259   3.324   5.816
71174SOL    HW215356   6.236   3.466   5.769
71175SOL     OW15357   5.371  13.183  13.896
71175SOL    HW115358   5.429  13.230  13.956
71175SOL    HW215359   5.317  13.251  13.857
71176SOL     OW15360  10.184   0.094  13.105
71176SOL    HW115361  10.237   0.081  13.026
71176SOL    HW215362  10.247   0.123  13.171
71177SOL     OW15363   6.989  13.774   3.446
71177SOL    HW115364   6.960  13.704   3.387
71177SOL    HW215365   6.916  13.785   3.507
71178SOL     OW15366   6.075   0.953   7.499
71178SOL    HW115367   5.985   0.945   7.469
71178SOL    HW215368   6.070   0.938   7.594
71179SOL     OW15369   8.460  11.718   8.386
71179SOL    HW115370   8.409  11.750   8.312
71179SOL    HW215371   8.492  11.632   8.358
71180SOL     OW15372  11.199  13.526  13.921
71180SOL    HW115373  11.261  13.597  13.933
71180SOL    HW215374  11.253  13.448  13.910
71181SOL     OW15375   4.022   0.196  10.651
71181SOL    HW115376   4.091   0.230  10.595
71181SOL    HW215377   3.974   0.134  10.595
71182SOL     OW15378  10.321   9.073  10.825
71182SOL    HW115379  10.373   9.153  10.817
71182SOL    HW215380  10.304   9.046  10.735
71183SOL     OW15381   3.073   5.150  11.623
71183SOL    HW115382   3.128   5.127  11.698
71183SOL    HW215383   3.134   5.169  11.552
71184SOL     OW15384   1.418   8.425   0.619
71184SOL    HW115385   1.405   8.496   0.683
71184SOL    HW215386   1.512   8.407   0.622
71185SOL     OW15387   9.342  11.880   5.701
71185SOL    HW115388   9.331  11.791   5.735
71185SOL    HW215389   9.264  11.895   5.647
71186SOL     OW15390   1.593   2.310   9.663
71186SOL    HW115391   1.540   2.370   9.609
71186SOL    HW215392   1.562   2.325   9.752
71187SOL     OW15393   2.899   5.585   7.525
71187SOL    HW115394   2.838   5.552   7.592
71187SOL    HW215395   2.959   5.512   7.509
71188SOL     OW15396  13.377  14.402   1.532
71188SOL    HW115397  13.300  14.380   1.586
71188SOL    HW215398  13.440  14.437   1.594
71189SOL     OW15399   2.450   9.048   7.895
71189SOL    HW115400   2.488   8.961   7.894
71189SOL    HW215401   2.460   9.080   7.805
71190SOL     OW15402   5.275   4.049   7.880
71190SOL    HW115403   5.208   4.049   7.812
71190SOL    HW215404   5.227   4.063   7.961
71191SOL     OW15405  14.522   5.883   4.919
71191SOL    HW115406  14.446   5.888   4.861
71191SOL    HW215407  14.485   5.873   5.006
71192SOL     OW15408   5.407   0.266  11.495
71192SOL    HW115409   5.373   0.267  11.585
71192SOL    HW215410   5.343   0.213  11.447
71193SOL     OW15411   6.912  11.533  10.539
71193SOL    HW115412   6.997  11.576  10.530
71193SOL    HW215413   6.851  11.605  10.560
71194SOL     OW15414  13.996   8.895   6.164
71194SOL    HW115415  14.028   8.979   6.132
71194SOL    HW215416  13.913   8.915   6.207
71195SOL     OW15417   3.155   4.135   4.284
71195SOL    HW115418   3.175   4.123   4.377
71195SOL    HW215419   3.069   4.176   4.283
71196SOL     OW15420   5.336   2.265   8.260
71196SOL    HW115421   5.392   2.331   8.219
71196SOL    HW215422   5.271   2.244   8.192
71197SOL     OW15423   7.166   2.405   5.148
71197SOL    HW115424   7.087   2.431   5.195
71197SOL    HW215425   7.229   2.474   5.166
71198SOL     OW15426   3.738   3.640   5.084
71198SOL    HW115427   3.770   3.551   5.072
71198SOL    HW215428   3.709   3.643   5.176
71199SOL     OW15429  10.607  13.975   4.258
71199SOL    HW115430  10.684  13.920   4.275
71199SOL    HW215431  10.537  13.912   4.241
71200SOL     OW15432  14.358  14.734   7.214
71200SOL    HW115433  14.263  14.731   7.202
71200SOL    HW215434  14.393  14.707   7.130
71201SOL     OW15435   2.047   1.580   0.234
71201SOL    HW115436   2.030   1.631   0.155
71201SOL    HW215437   2.142   1.581   0.243
71202SOL     OW15438  13.630   3.117   5.782
71202SOL    HW115439  13.556   3.106   5.722
71202SOL    HW215440  13.604   3.191   5.838
71203SOL     OW15441  14.006  10.425   5.785
71203SOL    HW115442  14.032  10.476   5.708
71203SOL    HW215443  13.954  10.353   5.749
71204SOL     OW15444  10.282   5.726   0.793
71204SOL    HW115445  10.343   5.791   0.828
71204SOL    HW215446  10.250   5.680   0.870
71205SOL     OW15447   6.732   0.814   9.052
71205SOL    HW115448   6.784   0.872   8.997
71205SOL    HW215449   6.646   0.856   9.057
71206SOL     OW15450  12.899   5.629   5.481
71206SOL    HW115451  12.815   5.599   5.448
71206SOL    HW215452  12.879   5.710   5.527
71207SOL     OW15453   0.720   4.378   7.516
71207SOL    HW115454   0.724   4.420   7.602
71207SOL    HW215455   0.810   4.379   7.484
71208SOL     OW15456   4.110   4.496   1.309
71208SOL    HW115457   4.186   4.440   1.294
71208SOL    HW215458   4.141   4.584   1.291
71209SOL     OW15459  12.617   9.745   3.642
71209SOL    HW115460  12.625   9.712   3.731
71209SOL    HW215461  12.707   9.748   3.609
71210SOL     OW15462  12.898   7.809   7.858
71210SOL    HW115463  12.892   7.714   7.849
71210SOL    HW215464  12.844   7.830   7.934
71211SOL     OW15465   2.085  14.651   5.791
71211SOL    HW115466   2.028  14.577   5.771
71211SOL    HW215467   2.152  14.648   5.723
71212SOL     OW15468   5.296  12.525  11.835
71212SOL    HW115469   5.264  12.439  11.808
71212SOL    HW215470   5.392  12.516  11.836
71213SOL     OW15471   3.768   9.039  12.438
71213SOL    HW115472   3.855   9.042  12.397
71213SOL    HW215473   3.779   9.085  12.521
71214SOL     OW15474   2.055   2.069  13.102
71214SOL    HW115475   2.026   2.077  13.193
71214SOL    HW215476   2.124   2.135  13.093
71215SOL     OW15477  12.976  10.218   9.409
71215SOL    HW115478  13.058  10.199   9.454
71215SOL    HW215479  12.927  10.135   9.414
71216SOL     OW15480  14.196   5.154   7.272
71216SOL    HW115481  14.114   5.105   7.273
71216SOL    HW215482  14.213   5.172   7.180
71217SOL     OW15483   2.519   7.650  14.554
71217SOL    HW115484   2.568   7.578  14.594
71217SOL    HW215485   2.441   7.609  14.518
71218SOL     OW15486   2.280   4.107   3.084
71218SOL    HW115487   2.306   4.044   3.152
71218SOL    HW215488   2.309   4.192   3.117
71219SOL     OW15489  13.120   0.676  11.798
71219SOL    HW115490  13.093   0.709  11.713
71219SOL    HW215491  13.048   0.700  11.857
71220SOL     OW15492   1.330   0.981   9.886
71220SOL    HW115493   1.388   0.909   9.909
71220SOL    HW215494   1.279   0.949   9.812
71221SOL     OW15495  13.563   3.825   9.344
71221SOL    HW115496  13.556   3.746   9.398
71221SOL    HW215497  13.501   3.886   9.382
71222SOL     OW15498   8.497   5.024   0.399
71222SOL    HW115499   8.420   5.036   0.456
71222SOL    HW215500   8.521   5.113   0.373
71223SOL     OW15501   0.216   6.476   4.732
71223SOL    HW115502   0.125   6.507   4.730
71223SOL    HW215503   0.209   6.382   4.748
71224SOL     OW15504   3.283   9.113   4.688
71224SOL    HW115505   3.213   9.117   4.754
71224SOL    HW215506   3.299   9.020   4.675
71225SOL     OW15507  13.005   9.354   0.959
71225SOL    HW115508  13.022   9.441   0.921
71225SOL    HW215509  12.951   9.372   1.036
71226SOL     OW15510   5.740  10.225   6.158
71226SOL    HW115511   5.739  10.149   6.216
71226SOL    HW215512   5.763  10.190   6.072
71227SOL     OW15513   5.308   6.273   1.582
71227SOL    HW115514   5.301   6.290   1.488
71227SOL    HW215515   5.400   6.254   1.596
71228SOL     OW15516  13.065  11.848   3.661
71228SOL    HW115517  12.989  11.794   3.640
71228SOL    HW215518  13.031  11.937   3.667
71229SOL     OW15519   8.455   7.111   4.950
71229SOL    HW115520   8.360   7.103   4.964
71229SOL    HW215521   8.488   7.146   5.033
71230SOL     OW15522   0.249  10.101   0.963
71230SOL    HW115523   0.158  10.089   0.991
71230SOL    HW215524   0.275  10.014   0.931
71231SOL     OW15525  13.386  14.538   2.061
71231SOL    HW115526  13.333  14.469   2.100
71231SOL    HW215527  13.435  14.494   1.990
71232SOL     OW15528  14.597   2.919  12.955
71232SOL    HW115529  14.608   2.894  13.046
71232SOL    HW215530  14.686   2.918  12.919
71233SOL     OW15531  10.914   5.601   6.011
71233SOL    HW115532  10.918   5.667   5.942
71233SOL    HW215533  10.827   5.563   6.002
71234SOL     OW15534   2.894  12.692   1.366
71234SOL    HW115535   2.858  12.605   1.386
71234SOL    HW215536   2.972  12.674   1.314
71235SOL     OW15537   2.479   7.325   2.161
71235SOL    HW115538   2.562   7.343   2.117
71235SOL    HW215539   2.415   7.383   2.118
71236SOL     OW15540  13.422  13.361   5.297
71236SOL    HW115541  13.501  13.411   5.276
71236SOL    HW215542  13.392  13.326   5.213
71237SOL     OW15543   3.044   3.354   8.073
71237SOL    HW115544   3.082   3.381   7.989
71237SOL    HW215545   3.120   3.332   8.127
71238SOL     OW15546  14.867   1.191  13.201
71238SOL    HW115547   0.013   1.119  13.144
71238SOL    HW215548  14.822   1.150  13.275
71239SOL     OW15549   6.487  14.102   2.140
71239SOL    HW115550   6.454  14.191   2.129
71239SOL    HW215551   6.576  14.104   2.105
71240SOL     OW15552  12.511   5.660  12.903
71240SOL    HW115553  12.480   5.672  12.993
71240SOL    HW215554  12.607   5.663  12.911
71241SOL     OW15555   3.221  13.635   7.446
71241SOL    HW115556   3.169  13.608   7.371
71241SOL    HW215557   3.263  13.716   7.417
71242SOL     OW15558   8.425   6.875  14.719
71242SOL    HW115559   8.499   6.825  14.685
71242SOL    HW215560   8.432   6.961  14.677
71243SOL     OW15561   2.551   9.293   5.314
71243SOL    HW115562   2.498   9.281   5.235
71243SOL    HW215563   2.499   9.353   5.369
71244SOL     OW15564  12.874   1.919   6.213
71244SOL    HW115565  12.812   1.906   6.284
71244SOL    HW215566  12.834   1.986   6.157
71245SOL     OW15567   5.446   5.355   3.145
71245SOL    HW115568   5.416   5.287   3.084
71245SOL    HW215569   5.413   5.437   3.109
71246SOL     OW15570   0.901  13.797   8.954
71246SOL    HW115571   0.937  13.717   8.915
71246SOL    HW215572   0.977  13.854   8.966
71247SOL     OW15573  11.194   4.616  11.825
71247SOL    HW115574  11.128   4.591  11.889
71247SOL    HW215575  11.247   4.681  11.870
71248SOL     OW15576   5.521   6.502  14.081
71248SOL    HW115577   5.574   6.562  14.133
71248SOL    HW215578   5.459   6.559  14.034
71249SOL     OW15579   7.921   6.547  10.550
71249SOL    HW115580   7.833   6.513  10.535
71249SOL    HW215581   7.917   6.586  10.637
71250SOL     OW15582  12.774   8.428   2.719
71250SOL    HW115583  12.811   8.500   2.668
71250SOL    HW215584  12.699   8.399   2.669
71251SOL     OW15585   0.123   3.738   9.577
71251SOL    HW115586   0.189   3.739   9.646
71251SOL    HW215587   0.080   3.653   9.585
71252SOL     OW15588   7.545   1.003   9.980
71252SOL    HW115589   7.562   1.089   9.942
71252SOL    HW215590   7.464   0.974   9.938
71253SOL     OW15591   4.270  12.318   0.358
71253SOL    HW115592   4.342  12.296   0.298
71253SOL    HW215593   4.192  12.282   0.316
71254SOL     OW15594   8.489   2.583  14.870
71254SOL    HW115595   8.439   2.557   0.068
71254SOL    HW215596   8.423   2.595  14.802
71255SOL     OW15597   0.605  10.983   5.048
71255SOL    HW115598   0.651  10.911   5.090
71255SOL    HW215599   0.560  10.943   4.974
71256SOL     OW15600  12.054   0.776   1.694
71256SOL    HW115601  11.987   0.845   1.694
71256SOL    HW215602  12.005   0.696   1.715
71257SOL     OW15603   7.691   2.775  14.539
71257SOL    HW115604   7.778   2.736  14.540
71257SOL    HW215605   7.692   2.834  14.463
71258SOL     OW15606   9.160   2.158  10.115
71258SOL    HW115607   9.086   2.199  10.161
71258SOL    HW215608   9.123   2.130  10.032
71259SOL     OW15609   2.624   1.139   4.005
71259SOL    HW115610   2.560   1.071   3.986
71259SOL    HW215611   2.618   1.153   4.099
71260SOL     OW15612   2.199   1.496  14.059
71260SOL    HW115613   2.252   1.423  14.092
71260SOL    HW215614   2.117   1.491  14.110
71261SOL     OW15615  12.048  10.011   5.383
71261SOL    HW115616  12.130   9.980   5.345
71261SOL    HW215617  12.041   9.965   5.466
71262SOL     OW15618   4.405   7.347   6.313
71262SOL    HW115619   4.434   7.316   6.399
71262SOL    HW215620   4.408   7.443   6.319
71263SOL     OW15621   5.061   3.189   1.367
71263SOL    HW115622   5.026   3.125   1.429
71263SOL    HW215623   5.031   3.273   1.400
71264SOL     OW15624   9.703   6.935   4.207
71264SOL    HW115625   9.622   6.979   4.233
71264SOL    HW215626   9.674   6.860   4.154
71265SOL     OW15627   6.540   6.452  11.813
71265SOL    HW115628   6.552   6.359  11.795
71265SOL    HW215629   6.459   6.475  11.768
71266SOL     OW15630   5.051  14.677   2.663
71266SOL    HW115631   5.068  14.746   2.599
71266SOL    HW215632   5.039  14.598   2.610
71267SOL     OW15633   7.869   0.881   2.287
71267SOL    HW115634   7.872   0.959   2.232
71267SOL    HW215635   7.849   0.914   2.375
71268SOL     OW15636   6.321   9.685  12.108
71268SOL    HW115637   6.280   9.618  12.163
71268SOL    HW215638   6.349   9.752  12.169
71269SOL     OW15639  11.800   4.165  11.753
71269SOL    HW115640  11.838   4.144  11.839
71269SOL    HW215641  11.713   4.198  11.773
71270SOL     OW15642  12.894   3.519   0.793
71270SOL    HW115643  12.988   3.502   0.800
71270SOL    HW215644  12.884   3.609   0.824
71271SOL     OW15645   7.410   5.711  12.756
71271SOL    HW115646   7.479   5.663  12.803
71271SOL    HW215647   7.400   5.663  12.674
71272SOL     OW15648   4.917  12.621   7.605
71272SOL    HW115649   4.889  12.591   7.518
71272SOL    HW215650   4.916  12.542   7.658
71273SOL     OW15651  13.292   7.974   3.349
71273SOL    HW115652  13.287   8.059   3.393
71273SOL    HW215653  13.228   7.920   3.395
71274SOL     OW15654   8.655  12.957   7.648
71274SOL    HW115655   8.731  12.984   7.699
71274SOL    HW215656   8.634  12.869   7.680
71275SOL     OW15657   1.329   8.703  11.699
71275SOL    HW115658   1.279   8.639  11.749
71275SOL    HW215659   1.307   8.683  11.607
71276SOL     OW15660  14.190   3.574   0.946
71276SOL    HW115661  14.226   3.631   0.878
71276SOL    HW215662  14.128   3.629   0.994
71277SOL     OW15663  10.830  14.441   0.870
71277SOL    HW115664  10.920  14.473   0.879
71277SOL    HW215665  10.834  14.349   0.895
71278SOL     OW15666   9.147   2.312   9.574
71278SOL    HW115667   9.116   2.283   9.659
71278SOL    HW215668   9.201   2.389   9.593
71279SOL     OW15669   4.821  14.428   5.112
71279SOL    HW115670   4.909  14.466   5.103
71279SOL    HW215671   4.774  14.490   5.168
71280SOL     OW15672   4.116   9.489   9.451
71280SOL    HW115673   4.074   9.403   9.459
71280SOL    HW215674   4.048   9.551   9.475
71281SOL     OW15675  13.000   4.070  11.212
71281SOL    HW115676  12.917   4.104  11.246
71281SOL    HW215677  13.063   4.085  11.283
71282SOL     OW15678   8.826  14.035  10.259
71282SOL    HW115679   8.839  14.031  10.354
71282SOL    HW215680   8.740  14.075  10.248
71283SOL     OW15681   1.077   1.528   0.182
71283SOL    HW115682   1.110   1.446   0.145
71283SOL    HW215683   0.999   1.502   0.231
71284SOL     OW15684   2.550   9.011   1.813
71284SOL    HW115685   2.534   9.086   1.756
71284SOL    HW215686   2.588   8.945   1.755
71285SOL     OW15687   6.305   6.874  12.461
71285SOL    HW115688   6.237   6.816  12.494
71285SOL    HW215689   6.369   6.816  12.421
71286SOL     OW15690  13.192   3.350  13.531
71286SOL    HW115691  13.119   3.380  13.476
71286SOL    HW215692  13.174   3.387  13.617
71287SOL     OW15693  13.189   9.909   3.563
71287SOL    HW115694  13.122   9.886   3.627
71287SOL    HW215695  13.139   9.936   3.485
71288SOL     OW15696   8.821   9.447  11.071
71288SOL    HW115697   8.761   9.496  11.126
71288SOL    HW215698   8.769   9.375  11.035
71289SOL     OW15699  13.927   7.569  13.009
71289SOL    HW115700  13.953   7.656  13.042
71289SOL    HW215701  13.989   7.551  12.939
71290SOL     OW15702  12.874  11.901  14.217
71290SOL    HW115703  12.968  11.893  14.206
71290SOL    HW215704  12.856  11.858  14.301
71291SOL     OW15705  13.155  13.484   9.090
71291SOL    HW115706  13.235  13.479   9.038
71291SOL    HW215707  13.185  13.492   9.180
71292SOL     OW15708  13.298   7.102   9.115
71292SOL    HW115709  13.312   7.087   9.208
71292SOL    HW215710  13.275   7.195   9.108
71293SOL     OW15711  14.064  10.916   0.225
71293SOL    HW115712  14.113  10.973   0.285
71293SOL    HW215713  14.127  10.851   0.197
71294SOL     OW15714   2.102   5.991  10.096
71294SOL    HW115715   2.059   5.958  10.017
71294SOL    HW215716   2.057   5.947  10.168
71295SOL     OW15717   9.058   3.605  11.749
71295SOL    HW115718   9.047   3.546  11.674
71295SOL    HW215719   9.152   3.618  11.757
71296SOL     OW15720   1.284  12.182   9.620
71296SOL    HW115721   1.376  12.157   9.629
71296SOL    HW215722   1.237  12.099   9.617
71297SOL     OW15723   5.485   8.782  14.749
71297SOL    HW115724   5.464   8.876  14.747
71297SOL    HW215725   5.560   8.773  14.690
71298SOL     OW15726   0.067  10.633  14.206
71298SOL    HW115727   0.056  10.594  14.120
71298SOL    HW215728   0.006  10.707  14.207
71299SOL     OW15729   5.562   2.616   7.600
71299SOL    HW115730   5.504   2.545   7.572
71299SOL    HW215731   5.504   2.677   7.646
71300SOL     OW15732  14.821   8.272  12.126
71300SOL    HW115733  14.869   8.224  12.193
71300SOL    HW215734  14.732   8.280  12.160
71301SOL     OW15735   7.679   5.487   7.201
71301SOL    HW115736   7.753   5.425   7.200
71301SOL    HW215737   7.708   5.560   7.146
71302SOL     OW15738   7.066   5.796   3.921
71302SOL    HW115739   7.107   5.878   3.896
71302SOL    HW215740   7.072   5.741   3.842
71303SOL     OW15741   7.088  13.267   4.093
71303SOL    HW115742   7.107  13.230   4.007
71303SOL    HW215743   7.109  13.197   4.154
71304SOL     OW15744  14.412  11.262   3.932
71304SOL    HW115745  14.327  11.223   3.913
71304SOL    HW215746  14.398  11.356   3.923
71305SOL     OW15747  14.696   5.903   6.627
71305SOL    HW115748  14.755   5.833   6.601
71305SOL    HW215749  14.652   5.870   6.706
71306SOL     OW15750   6.333  14.460  12.784
71306SOL    HW115751   6.416  14.492  12.818
71306SOL    HW215752   6.276  14.455  12.860
71307SOL     OW15753  12.241   0.796  10.033
71307SOL    HW115754  12.309   0.796   9.966
71307SOL    HW215755  12.194   0.713  10.019
71308SOL     OW15756   6.845   5.392   9.376
71308SOL    HW115757   6.867   5.462   9.314
71308SOL    HW215758   6.930   5.356   9.402
71309SOL     OW15759   0.692   7.550   4.347
71309SOL    HW115760   0.659   7.601   4.421
71309SOL    HW215761   0.745   7.612   4.297
71310SOL     OW15762  13.700  11.283   1.615
71310SOL    HW115763  13.748  11.257   1.537
71310SOL    HW215764  13.699  11.379   1.613
71311SOL     OW15765   0.303   4.430  12.642
71311SOL    HW115766   0.288   4.511  12.593
71311SOL    HW215767   0.217   4.389  12.647
71312SOL     OW15768   9.861   2.837  13.573
71312SOL    HW115769   9.887   2.747  13.593
71312SOL    HW215770   9.858   2.840  13.477
71313SOL     OW15771   6.046  10.532   5.561
71313SOL    HW115772   5.969  10.589   5.568
71313SOL    HW215773   6.028  10.461   5.623
71314SOL     OW15774   1.159   8.244  13.926
71314SOL    HW115775   1.199   8.253  14.013
71314SOL    HW215776   1.084   8.187  13.940
71315SOL     OW15777  10.333  14.385  10.773
71315SOL    HW115778  10.373  14.457  10.724
71315SOL    HW215779  10.241  14.409  10.781
71316SOL     OW15780  11.716   9.294   1.915
71316SOL    HW115781  11.770   9.215   1.904
71316SOL    HW215782  11.715   9.309   2.009
71317SOL     OW15783   1.447   6.270   9.843
71317SOL    HW115784   1.512   6.304   9.904
71317SOL    HW215785   1.363   6.290   9.883
71318SOL     OW15786  14.188  13.802  14.295
71318SOL    HW115787  14.212  13.709  14.301
71318SOL    HW215788  14.200  13.835  14.384
71319SOL     OW15789  10.274   8.008   3.208
71319SOL    HW115790  10.370   8.013   3.212
71319SOL    HW215791  10.248   8.080   3.150
71320SOL     OW15792  13.371   1.690   7.880
71320SOL    HW115793  13.340   1.622   7.821
71320SOL    HW215794  13.367   1.771   7.828
71321SOL     OW15795   8.874  13.862  11.604
71321SOL    HW115796   8.948  13.921  11.615
71321SOL    HW215797   8.837  13.886  11.519
71322SOL     OW15798  11.226   7.459   3.449
71322SOL    HW115799  11.140   7.483   3.482
71322SOL    HW215800  11.279   7.538   3.460
71323SOL     OW15801   8.839  10.092   6.479
71323SOL    HW115802   8.754  10.105   6.520
71323SOL    HW215803   8.858  10.176   6.438
71324SOL     OW15804  11.087   7.069   4.439
71324SOL    HW115805  10.994   7.071   4.415
71324SOL    HW215806  11.104   7.156   4.475
71325SOL     OW15807  14.159   4.789  10.716
71325SOL    HW115808  14.213   4.869  10.721
71325SOL    HW215809  14.190   4.744  10.638
71326SOL     OW15810   4.221  11.561   9.113
71326SOL    HW115811   4.226  11.575   9.019
71326SOL    HW215812   4.151  11.620   9.143
71327SOL     OW15813  12.605   0.198   9.008
71327SOL    HW115814  12.583   0.261   9.076
71327SOL    HW215815  12.697   0.177   9.023
71328SOL     OW15816  10.817  14.237   7.659
71328SOL    HW115817  10.842  14.146   7.673
71328SOL    HW215818  10.741  14.232   7.601
71329SOL     OW15819   9.524   4.973  14.565
71329SOL    HW115820   9.578   4.947  14.640
71329SOL    HW215821   9.467   5.041  14.599
71330SOL     OW15822   5.960   4.893   5.370
71330SOL    HW115823   5.873   4.859   5.387
71330SOL    HW215824   5.995   4.836   5.301
71331SOL     OW15825   2.330   7.914  10.878
71331SOL    HW115826   2.282   7.899  10.797
71331SOL    HW215827   2.419   7.935  10.850
71332SOL     OW15828   2.872   3.663  11.464
71332SOL    HW115829   2.810   3.647  11.535
71332SOL    HW215830   2.865   3.757  11.447
71333SOL     OW15831  12.133   4.413   9.195
71333SOL    HW115832  12.049   4.375   9.223
71333SOL    HW215833  12.108   4.478   9.129
71334SOL     OW15834  11.162  11.920   4.931
71334SOL    HW115835  11.253  11.894   4.943
71334SOL    HW215836  11.157  11.947   4.839
71335SOL     OW15837   9.479   2.865  12.500
71335SOL    HW115838   9.533   2.943  12.495
71335SOL    HW215839   9.541   2.792  12.502
71336SOL     OW15840   8.762   2.296   8.309
71336SOL    HW115841   8.811   2.232   8.361
71336SOL    HW215842   8.671   2.271   8.322
71337SOL     OW15843   1.925   9.692  14.033
71337SOL    HW115844   1.940   9.680  13.939
71337SOL    HW215845   1.964   9.777  14.053
71338SOL     OW15846   0.220  14.792   1.450
71338SOL    HW115847   0.197  14.786   1.542
71338SOL    HW215848   0.291  14.728   1.439
71339SOL     OW15849   4.722   3.300   1.797
71339SOL    HW115850   4.813   3.326   1.816
71339SOL    HW215851   4.729   3.217   1.751
71340SOL     OW15852   3.661   6.505   2.274
71340SOL    HW115853   3.621   6.525   2.358
71340SOL    HW215854   3.746   6.467   2.297
71341SOL     OW15855   2.068   0.862   6.182
71341SOL    HW115856   2.132   0.805   6.224
71341SOL    HW215857   2.045   0.926   6.250
71342SOL     OW15858  12.228  11.337   1.595
71342SOL    HW115859  12.280  11.322   1.674
71342SOL    HW215860  12.269  11.412   1.553
71343SOL     OW15861  11.628  12.691   8.950
71343SOL    HW115862  11.559  12.676   9.014
71343SOL    HW215863  11.697  12.629   8.975
71344SOL     OW15864  11.317   2.660  13.368
71344SOL    HW115865  11.227   2.629  13.361
71344SOL    HW215866  11.315   2.728  13.435
71345SOL     OW15867   9.493   9.514   8.655
71345SOL    HW115868   9.552   9.542   8.724
71345SOL    HW215869   9.504   9.419   8.650
71346SOL     OW15870   8.498   2.131   2.699
71346SOL    HW115871   8.560   2.087   2.758
71346SOL    HW215872   8.458   2.059   2.650
71347SOL     OW15873  11.947   2.848   5.999
71347SOL    HW115874  11.916   2.776   6.054
71347SOL    HW215875  11.992   2.907   6.060
71348SOL     OW15876   6.069   7.533  11.731
71348SOL    HW115877   6.027   7.531  11.817
71348SOL    HW215878   6.109   7.619  11.726
71349SOL     OW15879   9.667  10.207   3.768
71349SOL    HW115880   9.643  10.280   3.711
71349SOL    HW215881   9.705  10.142   3.710
71350SOL     OW15882   7.447   6.382   8.079
71350SOL    HW115883   7.366   6.383   8.130
71350SOL    HW215884   7.516   6.369   8.143
71351SOL     OW15885   8.197   3.269  11.848
71351SOL    HW115886   8.269   3.331  11.839
71351SOL    HW215887   8.166   3.255  11.758
71352SOL     OW15888   2.139   4.028   1.976
71352SOL    HW115889   2.206   3.968   2.009
71352SOL    HW215890   2.103   3.984   1.899
71353SOL     OW15891   7.814   9.589  10.578
71353SOL    HW115892   7.724   9.560  10.570
71353SOL    HW215893   7.809   9.685  10.573
71354SOL     OW15894   3.149  13.974   6.883
71354SOL    HW115895   3.193  13.890   6.894
71354SOL    HW215896   3.057  13.951   6.872
71355SOL     OW15897  12.518  12.249   4.282
71355SOL    HW115898  12.450  12.316   4.288
71355SOL    HW215899  12.599  12.298   4.273
71356SOL     OW15900   4.760   6.518   5.362
71356SOL    HW115901   4.855   6.529   5.366
71356SOL    HW215902   4.725   6.607   5.365
71357SOL     OW15903  12.635  12.396   2.844
71357SOL    HW115904  12.687  12.422   2.919
71357SOL    HW215905  12.563  12.459   2.840
71358SOL     OW15906  14.279  11.540   9.324
71358SOL    HW115907  14.248  11.554   9.235
71358SOL    HW215908  14.374  11.548   9.319
71359SOL     OW15909   6.102   4.538   9.801
71359SOL    HW115910   6.181   4.564   9.849
71359SOL    HW215911   6.134   4.501   9.719
71360SOL     OW15912   2.449   0.086  13.202
71360SOL    HW115913   2.531   0.054  13.165
71360SOL    HW215914   2.470   0.110  13.292
71361SOL     OW15915  12.076  11.687   6.232
71361SOL    HW115916  12.142  11.757   6.236
71361SOL    HW215917  12.018  11.705   6.306
71362SOL     OW15918   1.891  14.445   5.811
71362SOL    HW115919   1.893  14.408   5.723
71362SOL    HW215920   1.798  14.456   5.830
71363SOL     OW15921   6.136   9.430   5.582
71363SOL    HW115922   6.142   9.525   5.586
71363SOL    HW215923   6.212   9.399   5.632
71364SOL     OW15924   8.318   4.311  12.741
71364SOL    HW115925   8.347   4.391  12.785
71364SOL    HW215926   8.232   4.333  12.705
71365SOL     OW15927   4.837   3.441  13.663
71365SOL    HW115928   4.861   3.504  13.595
71365SOL    HW215929   4.749   3.468  13.691
71366SOL     OW15930  14.665  14.300   1.814
71366SOL    HW115931  14.757  14.306   1.837
71366SOL    HW215932  14.625  14.249   1.885
71367SOL     OW15933   5.067  13.236   1.946
71367SOL    HW115934   5.142  13.176   1.944
71367SOL    HW215935   5.098  13.315   1.902
71368SOL     OW15936   9.497   2.057   2.893
71368SOL    HW115937   9.496   1.987   2.828
71368SOL    HW215938   9.444   2.024   2.965
71369SOL     OW15939   2.608   2.424   1.166
71369SOL    HW115940   2.545   2.426   1.093
71369SOL    HW215941   2.558   2.455   1.241
71370SOL     OW15942  14.475   3.490   8.342
71370SOL    HW115943  14.395   3.533   8.311
71370SOL    HW215944  14.512   3.450   8.263
71371SOL     OW15945   4.534  12.549   6.536
71371SOL    HW115946   4.462  12.612   6.529
71371SOL    HW215947   4.494  12.466   6.511
71372SOL     OW15948   8.014   1.904   5.418
71372SOL    HW115949   7.984   1.819   5.384
71372SOL    HW215950   8.106   1.890   5.441
71373SOL     OW15951   3.279  12.064  12.867
71373SOL    HW115952   3.253  12.084  12.777
71373SOL    HW215953   3.371  12.088  12.871
71374SOL     OW15954   2.355   6.545   6.265
71374SOL    HW115955   2.442   6.534   6.227
71374SOL    HW215956   2.336   6.461   6.308
71375SOL     OW15957   1.882  14.828   9.248
71375SOL    HW115958   1.953   0.007   9.219
71375SOL    HW215959   1.860  14.777   9.171
71376SOL     OW15960   5.350   6.767   8.488
71376SOL    HW115961   5.377   6.845   8.441
71376SOL    HW215962   5.260   6.786   8.517
71377SOL     OW15963  11.102  10.432  13.769
71377SOL    HW115964  11.137  10.483  13.842
71377SOL    HW215965  11.168  10.363  13.755
71378SOL     OW15966   0.274  10.469   2.453
71378SOL    HW115967   0.206  10.515   2.503
71378SOL    HW215968   0.228  10.396   2.412
71379SOL     OW15969  14.194   7.273   9.650
71379SOL    HW115970  14.153   7.245   9.732
71379SOL    HW215971  14.217   7.192   9.606
71380SOL     OW15972  10.924  11.322   0.843
71380SOL    HW115973  10.873  11.402   0.857
71380SOL    HW215974  10.903  11.295   0.754
71381SOL     OW15975   5.139  11.142   9.001
71381SOL    HW115976   5.098  11.227   9.014
71381SOL    HW215977   5.232  11.157   9.021
71382SOL     OW15978   8.714   5.647   1.770
71382SOL    HW115979   8.637   5.640   1.714
71382SOL    HW215980   8.788   5.627   1.714
71383SOL     OW15981   0.457   9.939  13.787
71383SOL    HW115982   0.524   9.995  13.826
71383SOL    HW215983   0.406   9.998  13.732
71384SOL     OW15984   8.300   0.900   0.567
71384SOL    HW115985   8.316   0.809   0.592
71384SOL    HW215986   8.211   0.900   0.532
71385SOL     OW15987  13.145  14.189   0.909
71385SOL    HW115988  13.157  14.217   0.819
71385SOL    HW215989  13.088  14.255   0.948
71386SOL     OW15990   7.690   2.329   9.648
71386SOL    HW115991   7.710   2.369   9.563
71386SOL    HW215992   7.635   2.254   9.627
71387SOL     OW15993  11.312   3.120   1.498
71387SOL    HW115994  11.364   3.192   1.464
71387SOL    HW215995  11.361   3.041   1.475
71388SOL     OW15996  11.994   9.275   7.527
71388SOL    HW115997  12.031   9.190   7.502
71388SOL    HW215998  12.009   9.330   7.450
71389SOL     OW15999  12.021   0.883   6.609
71389SOL    HW116000  12.034   0.952   6.674
71389SOL    HW216001  11.966   0.924   6.542
71390SOL     OW16002   1.665   5.956  11.436
71390SOL    HW116003   1.579   5.962  11.477
71390SOL    HW216004   1.699   5.870  11.462
71391SOL     OW16005  13.654   1.392   3.899
71391SOL    HW116006  13.635   1.299   3.912
71391SOL    HW216007  13.629   1.408   3.808
71392SOL     OW16008   0.545   9.995  12.613
71392SOL    HW116009   0.561  10.088  12.597
71392SOL    HW216010   0.451   9.984  12.598
71393SOL     OW16011  12.208   6.605   1.872
71393SOL    HW116012  12.155   6.640   1.944
71393SOL    HW216013  12.153   6.616   1.794
71394SOL     OW16014   0.503   2.322   3.444
71394SOL    HW116015   0.461   2.366   3.371
71394SOL    HW216016   0.587   2.366   3.454
71395SOL     OW16017   4.423   4.690   5.724
71395SOL    HW116018   4.390   4.751   5.657
71395SOL    HW216019   4.349   4.679   5.784
71396SOL     OW16020   4.333   1.615   3.492
71396SOL    HW116021   4.376   1.673   3.554
71396SOL    HW216022   4.391   1.539   3.485
71397SOL     OW16023   7.086   2.321   6.041
71397SOL    HW116024   7.009   2.319   6.098
71397SOL    HW216025   7.125   2.234   6.050
71398SOL     OW16026   4.457  12.256   6.126
71398SOL    HW116027   4.509  12.296   6.056
71398SOL    HW216028   4.518  12.197   6.170
71399SOL     OW16029   2.686   5.944  12.912
71399SOL    HW116030   2.609   5.892  12.931
71399SOL    HW216031   2.757   5.900  12.959
71400SOL     OW16032   2.498  14.407   1.445
71400SOL    HW116033   2.412  14.409   1.405
71400SOL    HW216034   2.555  14.368   1.378
71401SOL     OW16035  10.823   0.201   5.727
71401SOL    HW116036  10.801   0.177   5.637
71401SOL    HW216037  10.839   0.117   5.770
71402SOL     OW16038  11.465  13.353   6.397
71402SOL    HW116039  11.403  13.282   6.413
71402SOL    HW216040  11.511  13.365   6.480
71403SOL     OW16041  13.646  14.876  10.634
71403SOL    HW116042  13.663  14.786  10.663
71403SOL    HW216043  13.719   0.018  10.576
71404SOL     OW16044   0.801  12.267   2.162
71404SOL    HW116045   0.733  12.329   2.136
71404SOL    HW216046   0.866  12.272   2.091
71405SOL     OW16047   1.330  11.708  12.526
71405SOL    HW116048   1.414  11.753  12.530
71405SOL    HW216049   1.267  11.771  12.561
71406SOL     OW16050  13.189   4.827  13.622
71406SOL    HW116051  13.121   4.800  13.559
71406SOL    HW216052  13.240   4.893  13.574
71407SOL     OW16053   3.171   8.584  13.128
71407SOL    HW116054   3.157   8.607  13.220
71407SOL    HW216055   3.222   8.657  13.093
71408SOL     OW16056   0.115  14.040   5.866
71408SOL    HW116057   0.062  14.068   5.791
71408SOL    HW216058   0.176  14.112   5.881
71409SOL     OW16059   3.359  14.061   4.757
71409SOL    HW116060   3.364  13.966   4.745
71409SOL    HW216061   3.277  14.086   4.715
71410SOL     OW16062   0.327   1.576   4.974
71410SOL    HW116063   0.272   1.498   4.961
71410SOL    HW216064   0.383   1.554   5.048
71411SOL     OW16065  12.015  13.784  14.586
71411SOL    HW116066  12.110  13.781  14.602
71411SOL    HW216067  11.976  13.763  14.671
71412SOL     OW16068   5.580   4.513  10.158
71412SOL    HW116069   5.522   4.459  10.212
71412SOL    HW216070   5.607   4.455  10.086
71413SOL     OW16071  14.514   2.705  14.817
71413SOL    HW116072  14.543   2.794  14.834
71413SOL    HW216073  14.419   2.708  14.827
71414SOL     OW16074  12.521   9.472   2.596
71414SOL    HW116075  12.492   9.391   2.553
71414SOL    HW216076  12.440   9.516   2.620
71415SOL     OW16077   1.643   5.243   4.159
71415SOL    HW116078   1.731   5.270   4.135
71415SOL    HW216079   1.655   5.188   4.237
71416SOL     OW16080   3.418   6.330  13.976
71416SOL    HW116081   3.348   6.332  14.041
71416SOL    HW216082   3.382   6.376  13.900
71417SOL     OW16083   1.623  12.216   5.227
71417SOL    HW116084   1.572  12.135   5.235
71417SOL    HW216085   1.559  12.282   5.202
71418SOL     OW16086   2.873  13.195   5.450
71418SOL    HW116087   2.789  13.149   5.451
71418SOL    HW216088   2.891  13.210   5.357
71419SOL     OW16089   3.431   0.100   2.545
71419SOL    HW116090   3.352   0.077   2.594
71419SOL    HW216091   3.398   0.144   2.467
71420SOL     OW16092  13.393   6.778  14.300
71420SOL    HW116093  13.439   6.702  14.336
71420SOL    HW216094  13.396   6.765  14.205
71421SOL     OW16095   4.394   0.398  10.348
71421SOL    HW116096   4.464   0.457  10.377
71421SOL    HW216097   4.369   0.350  10.427
71422SOL     OW16098   3.933   8.070   4.067
71422SOL    HW116099   3.870   8.140   4.045
71422SOL    HW216100   3.885   8.013   4.127
71423SOL     OW16101   1.977  12.950   3.019
71423SOL    HW116102   2.026  12.968   3.099
71423SOL    HW216103   2.042  12.910   2.961
71424SOL     OW16104   8.164   4.839   5.500
71424SOL    HW116105   8.139   4.915   5.448
71424SOL    HW216106   8.084   4.815   5.548
71425SOL     OW16107   2.984   8.806   9.118
71425SOL    HW116108   2.960   8.713   9.113
71425SOL    HW216109   3.077   8.808   9.093
71426SOL     OW16110   0.167   1.847   2.611
71426SOL    HW116111   0.079   1.814   2.628
71426SOL    HW216112   0.153   1.936   2.578
71427SOL     OW16113   2.907  10.668   5.477
71427SOL    HW116114   2.959  10.588   5.488
71427SOL    HW216115   2.874  10.687   5.565
71428SOL     OW16116   6.137   7.783  14.650
71428SOL    HW116117   6.136   7.784  14.555
71428SOL    HW216118   6.222   7.820  14.674
71429SOL     OW16119   0.813  12.828   6.354
71429SOL    HW116120   0.732  12.789   6.389
71429SOL    HW216121   0.792  12.920   6.339
71430SOL     OW16122   1.958   6.195  11.145
71430SOL    HW116123   2.053   6.202  11.139
71430SOL    HW216124   1.929   6.172  11.057
71431SOL     OW16125  14.323   0.446   8.622
71431SOL    HW116126  14.418   0.461   8.622
71431SOL    HW216127  14.288   0.520   8.672
71432SOL     OW16128  13.664   7.103   9.339
71432SOL    HW116129  13.702   7.074   9.423
71432SOL    HW216130  13.571   7.081   9.346
71433SOL     OW16131   1.913   8.045  11.625
71433SOL    HW116132   1.867   8.110  11.678
71433SOL    HW216133   1.857   7.968  11.627
71434SOL     OW16134   6.571  10.795   9.240
71434SOL    HW116135   6.665  10.808   9.248
71434SOL    HW216136   6.557  10.779   9.147
71435SOL     OW16137   6.723  10.563  14.751
71435SOL    HW116138   6.647  10.532  14.800
71435SOL    HW216139   6.738  10.652  14.783
71436SOL     OW16140  12.344  11.416   7.787
71436SOL    HW116141  12.368  11.440   7.697
71436SOL    HW216142  12.414  11.454   7.840
71437SOL     OW16143   2.280  12.761   9.781
71437SOL    HW116144   2.196  12.808   9.776
71437SOL    HW216145   2.284  12.709   9.701
71438SOL     OW16146  12.500  11.837   0.154
71438SOL    HW116147  12.438  11.907   0.132
71438SOL    HW216148  12.459  11.789   0.225
71439SOL     OW16149   8.178  12.098  10.095
71439SOL    HW116150   8.213  12.059  10.175
71439SOL    HW216151   8.113  12.161  10.125
71440SOL     OW16152   5.954   4.912   0.210
71440SOL    HW116153   5.863   4.885   0.218
71440SOL    HW216154   5.968   4.971   0.284
71441SOL     OW16155  10.138   4.370   0.752
71441SOL    HW116156  10.162   4.452   0.710
71441SOL    HW216157  10.173   4.377   0.841
71442SOL     OW16158  13.835   1.385   1.606
71442SOL    HW116159  13.831   1.477   1.580
71442SOL    HW216160  13.888   1.344   1.538
71443SOL     OW16161   6.485  10.920  11.028
71443SOL    HW116162   6.413  10.870  11.067
71443SOL    HW216163   6.538  10.855  10.983
71444SOL     OW16164  11.572   8.712  13.837
71444SOL    HW116165  11.630   8.782  13.867
71444SOL    HW216166  11.623   8.632  13.846
71445SOL     OW16167   8.553   0.397   7.379
71445SOL    HW116168   8.611   0.337   7.425
71445SOL    HW216169   8.468   0.385   7.420
71446SOL     OW16170   4.236  10.092   2.313
71446SOL    HW116171   4.156  10.060   2.354
71446SOL    HW216172   4.269  10.160   2.373
71447SOL     OW16173  14.146   2.641   8.142
71447SOL    HW116174  14.170   2.549   8.152
71447SOL    HW216175  14.219   2.689   8.182
71448SOL     OW16176   7.946  12.137  14.585
71448SOL    HW116177   7.857  12.147  14.553
71448SOL    HW216178   7.996  12.104  14.510
71449SOL     OW16179  11.904  11.098   6.565
71449SOL    HW116180  11.813  11.074   6.582
71449SOL    HW216181  11.938  11.026   6.512
71450SOL     OW16182   5.450  11.519  11.723
71450SOL    HW116183   5.540  11.517  11.754
71450SOL    HW216184   5.445  11.447  11.660
71451SOL     OW16185  13.523  10.994   6.737
71451SOL    HW116186  13.524  11.024   6.646
71451SOL    HW216187  13.440  10.948   6.746
71452SOL     OW16188   9.793   7.366   6.836
71452SOL    HW116189   9.833   7.362   6.924
71452SOL    HW216190   9.764   7.276   6.819
71453SOL     OW16191   6.069   1.628   7.349
71453SOL    HW116192   6.029   1.676   7.422
71453SOL    HW216193   6.008   1.555   7.334
71454SOL     OW16194   0.947  13.389  14.290
71454SOL    HW116195   0.978  13.452  14.355
71454SOL    HW216196   0.959  13.433  14.206
71455SOL     OW16197   0.960  13.809   6.290
71455SOL    HW116198   1.040  13.850   6.325
71455SOL    HW216199   0.930  13.870   6.223
71456SOL     OW16200  12.943   5.766   2.256
71456SOL    HW116201  12.898   5.684   2.276
71456SOL    HW216202  12.873   5.832   2.256
71457SOL     OW16203   7.538  13.442   8.214
71457SOL    HW116204   7.527  13.363   8.161
71457SOL    HW216205   7.616  13.424   8.267
71458SOL     OW16206   4.871   2.365   0.230
71458SOL    HW116207   4.794   2.354   0.175
71458SOL    HW216208   4.878   2.460   0.241
71459SOL     OW16209  11.172   9.713  10.999
71459SOL    HW116210  11.100   9.751  10.948
71459SOL    HW216211  11.218   9.656  10.938
71460SOL     OW16212  11.892   4.765   7.489
71460SOL    HW116213  11.852   4.681   7.464
71460SOL    HW216214  11.818   4.825   7.496
71461SOL     OW16215   6.414   7.284   8.427
71461SOL    HW116216   6.341   7.223   8.417
71461SOL    HW216217   6.373   7.368   8.446
71462SOL     OW16218   5.013   1.422  14.057
71462SOL    HW116219   4.936   1.367  14.039
71462SOL    HW216220   5.083   1.383  14.005
71463SOL     OW16221  14.047   9.207   8.336
71463SOL    HW116222  14.044   9.166   8.423
71463SOL    HW216223  14.000   9.146   8.280
71464SOL     OW16224   7.976   9.834   6.893
71464SOL    HW116225   8.017   9.918   6.913
71464SOL    HW216226   7.920   9.853   6.817
71465SOL     OW16227   5.210   3.578   7.438
71465SOL    HW116228   5.298   3.540   7.436
71465SOL    HW216229   5.225   3.671   7.454
71466SOL     OW16230   4.097  11.787   9.196
71466SOL    HW116231   4.034  11.858   9.201
71466SOL    HW216232   4.171  11.816   9.250
71467SOL     OW16233  14.797  11.678   1.345
71467SOL    HW116234  14.822  11.704   1.433
71467SOL    HW216235  14.791  11.582   1.349
71468SOL     OW16236   2.650   5.165  10.143
71468SOL    HW116237   2.585   5.219  10.188
71468SOL    HW216238   2.600   5.122  10.073
71469SOL     OW16239   7.950   1.439   3.845
71469SOL    HW116240   8.026   1.497   3.841
71469SOL    HW216241   7.900   1.470   3.921
71470SOL     OW16242  14.837   9.787   2.477
71470SOL    HW116243   0.027   9.802   2.541
71470SOL    HW216244  14.870   9.827   2.397
71471SOL     OW16245   0.077   4.730   7.918
71471SOL    HW116246   0.066   4.825   7.925
71471SOL    HW216247   0.093   4.715   7.825
71472SOL     OW16248  10.476   9.648   9.174
71472SOL    HW116249  10.541   9.596   9.222
71472SOL    HW216250  10.496   9.739   9.199
71473SOL     OW16251   9.967  13.902  13.534
71473SOL    HW116252   9.936  13.819  13.497
71473SOL    HW216253   9.928  13.969  13.478
71474SOL     OW16254   7.762   4.560   1.408
71474SOL    HW116255   7.712   4.642   1.407
71474SOL    HW216256   7.792   4.549   1.318
71475SOL     OW16257   3.092   9.112   7.718
71475SOL    HW116258   3.147   9.041   7.687
71475SOL    HW216259   3.105   9.182   7.654
71476SOL     OW16260   9.772   5.339   4.958
71476SOL    HW116261   9.856   5.372   4.989
71476SOL    HW216262   9.790   5.249   4.929
71477SOL     OW16263  10.755   2.312   9.566
71477SOL    HW116264  10.781   2.274   9.483
71477SOL    HW216265  10.831   2.301   9.623
71478SOL     OW16266  11.329   8.737   7.809
71478SOL    HW116267  11.246   8.743   7.761
71478SOL    HW216268  11.323   8.807   7.875
71479SOL     OW16269   5.936   0.966   3.410
71479SOL    HW116270   6.008   0.974   3.471
71479SOL    HW216271   5.858   0.986   3.462
71480SOL     OW16272  14.186   6.707   1.781
71480SOL    HW116273  14.136   6.689   1.702
71480SOL    HW216274  14.133   6.770   1.829
71481SOL     OW16275  11.823  14.182   2.945
71481SOL    HW116276  11.793  14.091   2.940
71481SOL    HW216277  11.779  14.226   2.871
71482SOL     OW16278  14.288   5.369   4.266
71482SOL    HW116279  14.281   5.281   4.230
71482SOL    HW216280  14.292   5.427   4.190
71483SOL     OW16281   3.962   3.481   4.081
71483SOL    HW116282   3.918   3.417   4.024
71483SOL    HW216283   4.016   3.532   4.021
71484SOL     OW16284   0.661  13.095  11.900
71484SOL    HW116285   0.666  13.012  11.852
71484SOL    HW216286   0.747  13.103  11.942
71485SOL     OW16287   1.642   7.472   1.136
71485SOL    HW116288   1.723   7.515   1.165
71485SOL    HW216289   1.665   7.379   1.132
71486SOL     OW16290   2.037   0.196  10.320
71486SOL    HW116291   2.111   0.135  10.312
71486SOL    HW216292   2.056   0.246  10.399
71487SOL     OW16293   1.360   8.520   8.586
71487SOL    HW116294   1.412   8.600   8.587
71487SOL    HW216295   1.417   8.454   8.547
71488SOL     OW16296   0.866   9.586  10.077
71488SOL    HW116297   0.811   9.508  10.080
71488SOL    HW216298   0.952   9.553  10.049
71489SOL     OW16299  10.270  14.237  13.949
71489SOL    HW116300  10.208  14.203  13.884
71489SOL    HW216301  10.221  14.235  14.032
71490SOL     OW16302   3.266   2.076  13.183
71490SOL    HW116303   3.264   2.035  13.097
71490SOL    HW216304   3.204   2.024  13.235
71491SOL     OW16305  10.910   8.921  12.054
71491SOL    HW116306  10.878   8.847  12.106
71491SOL    HW216307  10.981   8.959  12.107
71492SOL     OW16308  12.378   1.138  10.575
71492SOL    HW116309  12.305   1.165  10.519
71492SOL    HW216310  12.430   1.218  10.587
71493SOL     OW16311   8.313   7.248   3.292
71493SOL    HW116312   8.253   7.177   3.268
71493SOL    HW216313   8.348   7.222   3.378
71494SOL     OW16314  11.360   9.434  10.281
71494SOL    HW116315  11.276   9.474  10.301
71494SOL    HW216316  11.399   9.415  10.366
71495SOL     OW16317  13.184   3.160  12.192
71495SOL    HW116318  13.162   3.071  12.165
71495SOL    HW216319  13.152   3.216  12.121
71496SOL     OW16320   4.001   6.438   8.583
71496SOL    HW116321   3.961   6.524   8.584
71496SOL    HW216322   3.959   6.391   8.655
71497SOL     OW16323  13.468   8.254  12.570
71497SOL    HW116324  13.511   8.340  12.566
71497SOL    HW216325  13.386   8.271  12.615
71498SOL     OW16326   9.097   3.084   0.133
71498SOL    HW116327   9.069   2.993   0.128
71498SOL    HW216328   9.111   3.100   0.227
71499SOL     OW16329  13.477   7.456   9.867
71499SOL    HW116330  13.476   7.364   9.892
71499SOL    HW216331  13.401   7.493   9.912
71500SOL     OW16332   2.218   5.881   3.869
71500SOL    HW116333   2.205   5.830   3.948
71500SOL    HW216334   2.163   5.959   3.880
71501SOL     OW16335  11.821  14.645   3.749
71501SOL    HW116336  11.902  14.601   3.776
71501SOL    HW216337  11.770  14.576   3.707
71502SOL     OW16338  12.316  10.349   5.504
71502SOL    HW116339  12.223  10.327   5.495
71502SOL    HW216340  12.331  10.414   5.436
71503SOL     OW16341  14.744  12.732   9.596
71503SOL    HW116342  14.747  12.759   9.687
71503SOL    HW216343  14.835  12.714   9.573
71504SOL     OW16344   5.450   4.942   7.272
71504SOL    HW116345   5.427   4.876   7.208
71504SOL    HW216346   5.462   5.022   7.221
71505SOL     OW16347   7.365  13.258   3.015
71505SOL    HW116348   7.415  13.236   2.936
71505SOL    HW216349   7.362  13.354   3.016
71506SOL     OW16350   2.240   2.880   8.317
71506SOL    HW116351   2.171   2.926   8.365
71506SOL    HW216352   2.290   2.949   8.274
71507SOL     OW16353   2.557   3.096   9.340
71507SOL    HW116354   2.476   3.053   9.366
71507SOL    HW216355   2.610   3.098   9.420
71508SOL     OW16356   0.255   2.675   1.322
71508SOL    HW116357   0.225   2.584   1.330
71508SOL    HW216358   0.293   2.679   1.235
71509SOL     OW16359   4.080   5.862   6.616
71509SOL    HW116360   4.130   5.790   6.656
71509SOL    HW216361   4.005   5.875   6.675
71510SOL     OW16362  12.486   8.060   4.474
71510SOL    HW116363  12.520   7.973   4.454
71510SOL    HW216364  12.467   8.058   4.567
71511SOL     OW16365   9.766  14.040   2.795
71511SOL    HW116366   9.699  14.082   2.741
71511SOL    HW216367   9.822  13.995   2.732
71512SOL     OW16368   8.423   3.220   1.611
71512SOL    HW116369   8.463   3.133   1.603
71512SOL    HW216370   8.465   3.258   1.688
71513SOL     OW16371   0.974   7.936  13.197
71513SOL    HW116372   0.999   8.018  13.240
71513SOL    HW216373   0.977   7.870  13.266
71514SOL     OW16374  14.491   5.747  10.120
71514SOL    HW116375  14.484   5.655  10.146
71514SOL    HW216376  14.568   5.779  10.169
71515SOL     OW16377   7.682   7.138   1.385
71515SOL    HW116378   7.761   7.135   1.439
71515SOL    HW216379   7.670   7.231   1.367
71516SOL     OW16380   9.251   6.317   9.244
71516SOL    HW116381   9.205   6.388   9.198
71516SOL    HW216382   9.182   6.254   9.265
71517SOL     OW16383   2.892   2.108   4.860
71517SOL    HW116384   2.819   2.168   4.874
71517SOL    HW216385   2.970   2.161   4.877
71518SOL     OW16386   7.433  11.782  10.953
71518SOL    HW116387   7.505  11.826  10.997
71518SOL    HW216388   7.374  11.852  10.926
71519SOL     OW16389   0.280   4.570  12.144
71519SOL    HW116390   0.255   4.479  12.124
71519SOL    HW216391   0.274   4.615  12.060
71520SOL     OW16392  10.549   2.156  14.426
71520SOL    HW116393  10.582   2.088  14.484
71520SOL    HW216394  10.493   2.211  14.481
71521SOL     OW16395  12.095   4.955   3.146
71521SOL    HW116396  12.115   5.002   3.064
71521SOL    HW216397  12.110   5.020   3.215
71522SOL     OW16398   7.778   7.296   0.666
71522SOL    HW116399   7.739   7.376   0.630
71522SOL    HW216400   7.870   7.302   0.640
71523SOL     OW16401  14.427   7.982   4.877
71523SOL    HW116402  14.409   7.904   4.929
71523SOL    HW216403  14.342   8.009   4.842
71524SOL     OW16404  12.644   5.572   5.399
71524SOL    HW116405  12.567   5.606   5.352
71524SOL    HW216406  12.654   5.482   5.367
71525SOL     OW16407  10.837  14.046   8.553
71525SOL    HW116408  10.750  14.006   8.546
71525SOL    HW216409  10.830  14.126   8.501
71526SOL     OW16410   3.782   5.338   6.258
71526SOL    HW116411   3.735   5.419   6.237
71526SOL    HW216412   3.795   5.342   6.352
71527SOL     OW16413   2.823  11.228   5.820
71527SOL    HW116414   2.865  11.142   5.826
71527SOL    HW216415   2.832  11.252   5.727
71528SOL     OW16416   0.951   8.104   1.980
71528SOL    HW116417   0.970   8.062   2.064
71528SOL    HW216418   0.994   8.049   1.915
71529SOL     OW16419   8.411   5.002  12.684
71529SOL    HW116420   8.336   5.058  12.665
71529SOL    HW216421   8.425   4.953  12.603
71530SOL     OW16422   6.976  12.093  13.346
71530SOL    HW116423   7.028  12.019  13.378
71530SOL    HW216424   6.998  12.099  13.253
71531SOL     OW16425   1.969   2.747  13.044
71531SOL    HW116426   1.919   2.667  13.059
71531SOL    HW216427   2.033   2.749  13.115
71532SOL     OW16428   0.472   5.351  10.168
71532SOL    HW116429   0.401   5.315  10.116
71532SOL    HW216430   0.480   5.441  10.138
71533SOL     OW16431  11.033   3.028  14.788
71533SOL    HW116432  11.024   3.089  14.715
71533SOL    HW216433  11.107   2.972  14.763
71534SOL     OW16434  11.506   7.785   5.950
71534SOL    HW116435  11.524   7.878   5.938
71534SOL    HW216436  11.570   7.756   6.016
71535SOL     OW16437   5.468   1.883  10.552
71535SOL    HW116438   5.409   1.941  10.504
71535SOL    HW216439   5.540   1.865  10.491
71536SOL     OW16440  12.940  12.688   0.421
71536SOL    HW116441  12.968  12.779   0.428
71536SOL    HW216442  13.000  12.649   0.358
71537SOL     OW16443   9.069  11.006   4.578
71537SOL    HW116444   9.044  11.082   4.527
71537SOL    HW216445   9.164  11.001   4.570
71538SOL     OW16446   1.115  13.476   5.544
71538SOL    HW116447   1.201  13.487   5.503
71538SOL    HW216448   1.119  13.390   5.586
71539SOL     OW16449  11.272  12.626  11.280
71539SOL    HW116450  11.236  12.626  11.192
71539SOL    HW216451  11.220  12.690  11.328
71540SOL     OW16452   0.592  14.257   1.278
71540SOL    HW116453   0.659  14.325   1.287
71540SOL    HW216454   0.578  14.249   1.184
71541SOL     OW16455   2.877   4.842   0.953
71541SOL    HW116456   2.849   4.921   1.000
71541SOL    HW216457   2.831   4.771   0.997
71542SOL     OW16458   5.154  12.058   9.155
71542SOL    HW116459   5.185  12.073   9.244
71542SOL    HW216460   5.096  11.982   9.162
71543SOL     OW16461   9.116   0.213   1.492
71543SOL    HW116462   9.136   0.259   1.574
71543SOL    HW216463   9.149   0.124   1.506
71544SOL     OW16464  13.516   2.233  13.318
71544SOL    HW116465  13.603   2.268  13.338
71544SOL    HW216466  13.486   2.284  13.243
71545SOL     OW16467   1.698  14.479   4.939
71545SOL    HW116468   1.720  14.460   4.847
71545SOL    HW216469   1.749  14.415   4.989
71546SOL     OW16470  12.950   6.111  11.177
71546SOL    HW116471  13.006   6.041  11.211
71546SOL    HW216472  12.976   6.119  11.085
71547SOL     OW16473  13.990  13.010   0.630
71547SOL    HW116474  13.909  13.052   0.602
71547SOL    HW216475  14.011  12.949   0.559
71548SOL     OW16476  12.176   3.338  12.652
71548SOL    HW116477  12.108   3.390  12.610
71548SOL    HW216478  12.250   3.398  12.662
71549SOL     OW16479  10.895  10.050   2.085
71549SOL    HW116480  10.940   9.989   2.025
71549SOL    HW216481  10.826  10.088   2.031
71550SOL     OW16482  10.878   1.504   0.004
71550SOL    HW116483  10.967   1.475  14.863
71550SOL    HW216484  10.822   1.447  14.832
71551SOL     OW16485   8.727  11.915  14.563
71551SOL    HW116486   8.677  11.943  14.486
71551SOL    HW216487   8.735  11.995  14.616
71552SOL     OW16488  11.182   6.270   0.869
71552SOL    HW116489  11.203   6.351   0.822
71552SOL    HW216490  11.092   6.282   0.899
71553SOL     OW16491   2.447   8.607   1.206
71553SOL    HW116492   2.440   8.584   1.299
71553SOL    HW216493   2.374   8.560   1.165
71554SOL     OW16494   5.426   1.702  10.771
71554SOL    HW116495   5.331   1.693  10.779
71554SOL    HW216496   5.439   1.748  10.688
71555SOL     OW16497   1.800   9.645   0.595
71555SOL    HW116498   1.734   9.577   0.609
71555SOL    HW216499   1.883   9.597   0.597
71556SOL     OW16500   4.701   6.309  14.363
71556SOL    HW116501   4.668   6.298  14.273
71556SOL    HW216502   4.721   6.402  14.370
71557SOL     OW16503  14.700   5.020  14.431
71557SOL    HW116504  14.742   4.942  14.465
71557SOL    HW216505  14.704   5.083  14.502
71558SOL     OW16506  11.221   0.676   7.651
71558SOL    HW116507  11.174   0.601   7.687
71558SOL    HW216508  11.308   0.670   7.689
71559SOL     OW16509   1.753   8.863   8.812
71559SOL    HW116510   1.769   8.776   8.850
71559SOL    HW216511   1.669   8.890   8.849
71560SOL     OW16512   8.486   4.850  13.616
71560SOL    HW116513   8.520   4.813  13.698
71560SOL    HW216514   8.405   4.894  13.642
71561SOL     OW16515   6.425  12.385  14.037
71561SOL    HW116516   6.404  12.298  14.005
71561SOL    HW216517   6.362  12.443  13.994
71562SOL     OW16518   2.454   0.976   6.175
71562SOL    HW116519   2.473   1.032   6.100
71562SOL    HW216520   2.477   0.888   6.146
71563SOL     OW16521   7.033  12.806   0.473
71563SOL    HW116522   7.080  12.878   0.430
71563SOL    HW216523   7.077  12.795   0.557
71564SOL     OW16524   0.073  11.131   5.452
71564SOL    HW116525   0.019  11.052   5.462
71564SOL    HW216526   0.017  11.202   5.481
71565SOL     OW16527  14.830   3.337   3.614
71565SOL    HW116528   0.021   3.286   3.654
71565SOL    HW216529  14.822   3.415   3.668
71566SOL     OW16530   8.275   5.293   3.107
71566SOL    HW116531   8.197   5.255   3.146
71566SOL    HW216532   8.291   5.372   3.159
71567SOL     OW16533   8.225   8.547   4.936
71567SOL    HW116534   8.183   8.626   4.903
71567SOL    HW216535   8.304   8.579   4.980
71568SOL     OW16536   2.506   5.853  14.871
71568SOL    HW116537   2.559   5.895   0.059
71568SOL    HW216538   2.424   5.831   0.037
71569SOL     OW16539   4.264   0.714   4.011
71569SOL    HW116540   4.239   0.621   4.006
71569SOL    HW216541   4.263   0.744   3.920
71570SOL     OW16542  10.589   5.948  12.581
71570SOL    HW116543  10.636   5.887  12.637
71570SOL    HW216544  10.500   5.950  12.616
71571SOL     OW16545   7.200   7.898   8.934
71571SOL    HW116546   7.267   7.963   8.911
71571SOL    HW216547   7.117   7.945   8.925
71572SOL     OW16548   1.819   9.859   8.593
71572SOL    HW116549   1.908   9.853   8.627
71572SOL    HW216550   1.815   9.792   8.525
71573SOL     OW16551   8.451   2.061  13.311
71573SOL    HW116552   8.460   2.111  13.392
71573SOL    HW216553   8.373   2.097  13.270
71574SOL     OW16554   1.160   7.210   3.139
71574SOL    HW116555   1.071   7.188   3.166
71574SOL    HW216556   1.149   7.280   3.075
71575SOL     OW16557   1.374  13.991   8.773
71575SOL    HW116558   1.297  13.980   8.718
71575SOL    HW216559   1.381  14.086   8.785
71576SOL     OW16560   1.954   1.612   4.878
71576SOL    HW116561   1.914   1.654   4.954
71576SOL    HW216562   2.029   1.667   4.856
71577SOL     OW16563   7.549  12.517  10.128
71577SOL    HW116564   7.490  12.442  10.127
71577SOL    HW216565   7.588  12.518  10.040
71578SOL     OW16566   2.349   3.520  10.315
71578SOL    HW116567   2.333   3.599  10.367
71578SOL    HW216568   2.336   3.448  10.376
71579SOL     OW16569  14.779   4.632  10.922
71579SOL    HW116570  14.790   4.716  10.877
71579SOL    HW216571  14.845   4.575  10.882
71580SOL     OW16572   5.157   6.753   4.738
71580SOL    HW116573   5.119   6.713   4.660
71580SOL    HW216574   5.252   6.743   4.726
71581SOL     OW16575   0.245   6.216   1.554
71581SOL    HW116576   0.341   6.215   1.545
71581SOL    HW216577   0.213   6.164   1.480
71582SOL     OW16578   5.049   2.847  10.020
71582SOL    HW116579   5.054   2.937  10.052
71582SOL    HW216580   5.140   2.820  10.009
71583SOL     OW16581   5.385   0.235   4.527
71583SOL    HW116582   5.460   0.175   4.530
71583SOL    HW216583   5.411   0.308   4.582
71584SOL     OW16584  10.804   4.018  12.889
71584SOL    HW116585  10.768   3.991  12.974
71584SOL    HW216586  10.736   4.076  12.853
71585SOL     OW16587  10.327   5.255   7.590
71585SOL    HW116588  10.422   5.246   7.592
71585SOL    HW216589  10.308   5.294   7.504
71586SOL     OW16590   9.598   2.988   7.510
71586SOL    HW116591   9.526   3.013   7.452
71586SOL    HW216592   9.596   2.892   7.510
71587SOL     OW16593   0.213   9.229   2.348
71587SOL    HW116594   0.279   9.175   2.390
71587SOL    HW216595   0.169   9.169   2.286
71588SOL     OW16596   7.870  10.075   9.852
71588SOL    HW116597   7.902  10.165   9.850
71588SOL    HW216598   7.802  10.073   9.784
71589SOL     OW16599   5.907   8.798  10.704
71589SOL    HW116600   5.944   8.743  10.635
71589SOL    HW216601   5.938   8.886  10.683
71590SOL     OW16602  13.208  14.810   3.324
71590SOL    HW116603  13.258  14.822   3.405
71590SOL    HW216604  13.247  14.871   3.262
71591SOL     OW16605  10.907   0.492   5.945
71591SOL    HW116606  10.843   0.489   5.873
71591SOL    HW216607  10.969   0.560   5.919
71592SOL     OW16608  10.969  10.987   2.958
71592SOL    HW116609  10.918  10.940   2.893
71592SOL    HW216610  11.007  11.060   2.910
71593SOL     OW16611   1.644  12.340   4.769
71593SOL    HW116612   1.675  12.367   4.856
71593SOL    HW216613   1.683  12.254   4.755
71594SOL     OW16614   9.738  13.439  14.077
71594SOL    HW116615   9.774  13.485  14.153
71594SOL    HW216616   9.709  13.508  14.018
71595SOL     OW16617  12.531   2.331   6.981
71595SOL    HW116618  12.495   2.384   7.052
71595SOL    HW216619  12.532   2.390   6.905
71596SOL     OW16620   3.217   4.135   2.156
71596SOL    HW116621   3.312   4.134   2.152
71596SOL    HW216622   3.190   4.060   2.102
71597SOL     OW16623   0.610  11.437  11.885
71597SOL    HW116624   0.540  11.372  11.888
71597SOL    HW216625   0.603  11.476  11.798
71598SOL     OW16626  12.471   1.232   0.957
71598SOL    HW116627  12.463   1.188   0.872
71598SOL    HW216628  12.381   1.238   0.989
71599SOL     OW16629   5.755   2.516   7.117
71599SOL    HW116630   5.756   2.550   7.207
71599SOL    HW216631   5.795   2.585   7.064
71600SOL     OW16632   5.915  11.764   4.959
71600SOL    HW116633   5.960  11.807   5.031
71600SOL    HW216634   5.825  11.794   4.965
71601SOL     OW16635   8.032   0.948  14.163
71601SOL    HW116636   7.945   0.987  14.158
71601SOL    HW216637   8.040   0.919  14.255
71602SOL     OW16638   0.523   3.768   7.933
71602SOL    HW116639   0.611   3.806   7.938
71602SOL    HW216640   0.496   3.783   7.843
71603SOL     OW16641  14.819   3.998  14.132
71603SOL    HW116642  14.854   3.971  14.047
71603SOL    HW216643  14.854   3.935  14.194
71604SOL     OW16644   5.236   1.210   6.835
71604SOL    HW116645   5.185   1.215   6.916
71604SOL    HW216646   5.185   1.153   6.778
71605SOL     OW16647   7.605   7.643  13.774
71605SOL    HW116648   7.591   7.670  13.865
71605SOL    HW216649   7.694   7.607  13.773
71606SOL     OW16650  14.082   7.109   6.759
71606SOL    HW116651  14.044   7.197   6.754
71606SOL    HW216652  14.056   7.077   6.845
71607SOL     OW16653  13.908  10.339   0.482
71607SOL    HW116654  13.812  10.337   0.476
71607SOL    HW216655  13.928  10.427   0.513
71608SOL     OW16656   6.640   9.520  13.893
71608SOL    HW116657   6.723   9.485  13.923
71608SOL    HW216658   6.657   9.552  13.804
71609SOL     OW16659   0.506   8.025   2.843
71609SOL    HW116660   0.507   7.935   2.874
71609SOL    HW216661   0.565   8.072   2.902
71610SOL     OW16662   9.541   3.390   1.395
71610SOL    HW116663   9.473   3.456   1.381
71610SOL    HW216664   9.493   3.312   1.424
71611SOL     OW16665   8.143  13.281   1.634
71611SOL    HW116666   8.091  13.205   1.661
71611SOL    HW216667   8.092  13.356   1.663
71612SOL     OW16668  14.769  11.919   6.856
71612SOL    HW116669  14.704  11.883   6.915
71612SOL    HW216670  14.755  11.872   6.774
71613SOL     OW16671   0.771   5.940   4.365
71613SOL    HW116672   0.812   5.920   4.281
71613SOL    HW216673   0.780   5.859   4.416
71614SOL     OW16674   2.249   4.742  10.463
71614SOL    HW116675   2.271   4.658  10.502
71614SOL    HW216676   2.189   4.721  10.392
71615SOL     OW16677  11.216  13.376   6.150
71615SOL    HW116678  11.150  13.445   6.147
71615SOL    HW216679  11.166  13.296   6.166
71616SOL     OW16680  11.337   8.522   5.769
71616SOL    HW116681  11.276   8.595   5.764
71616SOL    HW216682  11.284   8.447   5.797
71617SOL     OW16683  13.084  14.083   5.998
71617SOL    HW116684  13.128  14.004   5.967
71617SOL    HW216685  13.147  14.124   6.058
71618SOL     OW16686  12.899   4.308  11.010
71618SOL    HW116687  12.842   4.240  11.046
71618SOL    HW216688  12.979   4.262  10.985
71619SOL     OW16689   5.221   7.786   0.313
71619SOL    HW116690   5.244   7.728   0.386
71619SOL    HW216691   5.306   7.810   0.274
71620SOL     OW16692   1.910   1.232  14.592
71620SOL    HW116693   1.933   1.186  14.672
71620SOL    HW216694   1.816   1.217  14.583
71621SOL     OW16695  11.115   2.321  10.970
71621SOL    HW116696  11.077   2.247  11.017
71621SOL    HW216697  11.182   2.355  11.030
71622SOL     OW16698  10.693   8.308  10.665
71622SOL    HW116699  10.645   8.232  10.632
71622SOL    HW216700  10.625   8.373  10.685
71623SOL     OW16701   8.375   1.508   4.589
71623SOL    HW116702   8.303   1.446   4.577
71623SOL    HW216703   8.453   1.453   4.594
71624SOL     OW16704   9.371   4.449   0.533
71624SOL    HW116705   9.294   4.415   0.487
71624SOL    HW216706   9.442   4.389   0.510
71625SOL     OW16707  11.930   9.940  14.006
71625SOL    HW116708  12.009   9.911  13.962
71625SOL    HW216709  11.873   9.863  14.008
71626SOL     OW16710   7.615  11.277   6.738
71626SOL    HW116711   7.677  11.336   6.780
71626SOL    HW216712   7.669  11.206   6.703
71627SOL     OW16713  14.527   0.791  12.237
71627SOL    HW116714  14.594   0.853  12.263
71627SOL    HW216715  14.454   0.807  12.297
71628SOL     OW16716   4.008   0.030  11.721
71628SOL    HW116717   4.072   0.050  11.789
71628SOL    HW216718   4.040   0.077  11.643
71629SOL     OW16719  10.437   6.314   8.630
71629SOL    HW116720  10.473   6.266   8.704
71629SOL    HW216721  10.376   6.252   8.589
71630SOL     OW16722   2.262   8.163   5.012
71630SOL    HW116723   2.350   8.133   4.990
71630SOL    HW216724   2.246   8.234   4.949
71631SOL     OW16725   7.889   4.829   7.822
71631SOL    HW116726   7.820   4.769   7.851
71631SOL    HW216727   7.881   4.904   7.881
71632SOL     OW16728   3.965  10.104   3.210
71632SOL    HW116729   3.920  10.161   3.148
71632SOL    HW216730   3.952  10.145   3.295
71633SOL     OW16731   3.747   2.391  12.142
71633SOL    HW116732   3.739   2.456  12.212
71633SOL    HW216733   3.796   2.436  12.073
71634SOL     OW16734   3.246   7.014  13.383
71634SOL    HW116735   3.152   6.997  13.387
71634SOL    HW216736   3.262   7.079  13.452
71635SOL     OW16737   3.745   1.176   8.178
71635SOL    HW116738   3.705   1.101   8.223
71635SOL    HW216739   3.731   1.159   8.085
71636SOL     OW16740   7.330   2.713   3.698
71636SOL    HW116741   7.387   2.672   3.763
71636SOL    HW216742   7.251   2.735   3.747
71637SOL     OW16743   5.876   3.170  14.200
71637SOL    HW116744   5.817   3.184  14.273
71637SOL    HW216745   5.864   3.078  14.176
71638SOL     OW16746  11.100   1.088   4.297
71638SOL    HW116747  11.011   1.122   4.312
71638SOL    HW216748  11.088   1.018   4.233
71639SOL     OW16749  11.257  14.666  10.709
71639SOL    HW116750  11.298  14.633  10.629
71639SOL    HW216751  11.233  14.756  10.688
71640SOL     OW16752   9.981   3.741  10.430
71640SOL    HW116753   9.898   3.771  10.395
71640SOL    HW216754   9.975   3.645  10.429
71641SOL     OW16755   6.287   9.947   2.242
71641SOL    HW116756   6.310   9.924   2.152
71641SOL    HW216757   6.192   9.940   2.245
71642SOL     OW16758  10.180   8.136   2.107
71642SOL    HW116759  10.255   8.095   2.064
71642SOL    HW216760  10.217   8.180   2.183
71643SOL     OW16761  11.932  11.543  10.495
71643SOL    HW116762  11.918  11.601  10.420
71643SOL    HW216763  11.960  11.603  10.565
71644SOL     OW16764  12.073   7.197   3.561
71644SOL    HW116765  12.005   7.222   3.623
71644SOL    HW216766  12.026   7.178   3.480
71645SOL     OW16767   2.606   0.891   9.582
71645SOL    HW116768   2.519   0.931   9.575
71645SOL    HW216769   2.589   0.797   9.589
71646SOL     OW16770   9.335   2.058   8.930
71646SOL    HW116771   9.368   2.092   8.847
71646SOL    HW216772   9.401   1.994   8.958
71647SOL     OW16773  14.692   2.777   9.470
71647SOL    HW116774  14.648   2.755   9.552
71647SOL    HW216775  14.667   2.706   9.410
71648SOL     OW16776  12.639   6.770  13.578
71648SOL    HW116777  12.548   6.759  13.604
71648SOL    HW216778  12.644   6.730  13.491
71649SOL     OW16779  11.037  12.906   4.972
71649SOL    HW116780  10.945  12.921   4.995
71649SOL    HW216781  11.064  12.985   4.926
71650SOL     OW16782   6.779   6.177   7.318
71650SOL    HW116783   6.754   6.228   7.241
71650SOL    HW216784   6.700   6.170   7.370
71651SOL     OW16785   0.811  12.394  14.202
71651SOL    HW116786   0.807  12.308  14.245
71651SOL    HW216787   0.902  12.421  14.211
71652SOL     OW16788   1.946  10.339   9.063
71652SOL    HW116789   1.896  10.302   9.135
71652SOL    HW216790   2.031  10.362   9.102
71653SOL     OW16791  12.575   8.393  11.882
71653SOL    HW116792  12.490   8.434  11.896
71653SOL    HW216793  12.559   8.326  11.815
71654SOL     OW16794  13.826   3.014  13.595
71654SOL    HW116795  13.890   3.058  13.651
71654SOL    HW216796  13.746   3.065  13.605
71655SOL     OW16797   0.792   1.361   8.564
71655SOL    HW116798   0.745   1.439   8.534
71655SOL    HW216799   0.746   1.335   8.644
71656SOL     OW16800   4.877   5.147  10.415
71656SOL    HW116801   4.903   5.222  10.361
71656SOL    HW216802   4.856   5.186  10.501
71657SOL     OW16803  13.523   8.090   7.820
71657SOL    HW116804  13.616   8.071   7.807
71657SOL    HW216805  13.509   8.080   7.914
71658SOL     OW16806  10.431   1.883   7.991
71658SOL    HW116807  10.484   1.821   8.040
71658SOL    HW216808  10.341   1.865   8.019
71659SOL     OW16809   0.400  13.887   7.585
71659SOL    HW116810   0.307  13.872   7.569
71659SOL    HW216811   0.443  13.858   7.504
71660SOL     OW16812  14.301   5.002   6.200
71660SOL    HW116813  14.272   4.913   6.184
71660SOL    HW216814  14.249   5.031   6.275
71661SOL     OW16815  13.056   7.042   6.734
71661SOL    HW116816  13.148   7.040   6.706
71661SOL    HW216817  13.059   7.025   6.828
71662SOL     OW16818   0.325   9.164   3.018
71662SOL    HW116819   0.312   9.139   3.110
71662SOL    HW216820   0.362   9.253   3.022
71663SOL     OW16821   8.963   2.523   9.385
71663SOL    HW116822   8.918   2.440   9.402
71663SOL    HW216823   8.894   2.588   9.382
71664SOL     OW16824   0.710   3.443   0.235
71664SOL    HW116825   0.695   3.538   0.239
71664SOL    HW216826   0.628   3.407   0.200
71665SOL     OW16827  14.039   0.233  10.416
71665SOL    HW116828  13.965   0.265  10.365
71665SOL    HW216829  14.071   0.158  10.366
71666SOL     OW16830  14.037   4.164   8.785
71666SOL    HW116831  13.980   4.112   8.841
71666SOL    HW216832  14.061   4.104   8.713
71667SOL     OW16833   8.280   6.203  11.862
71667SOL    HW116834   8.198   6.239  11.827
71667SOL    HW216835   8.347   6.232  11.800
71668SOL     OW16836  10.069   0.704   1.493
71668SOL    HW116837  10.131   0.641   1.531
71668SOL    HW216838   9.996   0.707   1.554
71669SOL     OW16839   6.583  12.908   7.995
71669SOL    HW116840   6.542  12.954   7.922
71669SOL    HW216841   6.561  12.960   8.072
71670SOL     OW16842  14.079   8.434   7.548
71670SOL    HW116843  14.036   8.351   7.569
71670SOL    HW216844  14.087   8.478   7.633
71671SOL     OW16845  12.173  13.738   1.571
71671SOL    HW116846  12.101  13.676   1.568
71671SOL    HW216847  12.247  13.690   1.534
71672SOL     OW16848  11.223   1.253   0.436
71672SOL    HW116849  11.214   1.171   0.388
71672SOL    HW216850  11.197   1.321   0.373
71673SOL     OW16851  11.972   0.231  10.029
71673SOL    HW116852  11.888   0.223   9.986
71673SOL    HW216853  11.985   0.325  10.042
71674SOL     OW16854  12.903  13.012   5.129
71674SOL    HW116855  12.814  13.012   5.095
71674SOL    HW216856  12.930  13.104   5.126
71675SOL     OW16857   6.648   6.255  11.500
71675SOL    HW116858   6.714   6.306  11.548
71675SOL    HW216859   6.576   6.317  11.486
71676SOL     OW16860   6.942   8.296  10.544
71676SOL    HW116861   6.934   8.309  10.450
71676SOL    HW216862   6.938   8.384  10.581
71677SOL     OW16863   9.557   3.518   0.805
71677SOL    HW116864   9.473   3.547   0.842
71677SOL    HW216865   9.615   3.509   0.881
71678SOL     OW16866   8.137   3.246  14.652
71678SOL    HW116867   8.198   3.224  14.723
71678SOL    HW216868   8.062   3.286  14.696
71679SOL     OW16869   5.546   9.826   4.967
71679SOL    HW116870   5.590   9.902   4.931
71679SOL    HW216871   5.608   9.754   4.955
71680SOL     OW16872  13.048   3.712   1.502
71680SOL    HW116873  13.113   3.646   1.523
71680SOL    HW216874  12.968   3.681   1.544
71681SOL     OW16875   5.611   1.071   0.448
71681SOL    HW116876   5.700   1.087   0.417
71681SOL    HW216877   5.617   0.993   0.502
71682SOL     OW16878  14.289  13.373   4.011
71682SOL    HW116879  14.320  13.463   4.005
71682SOL    HW216880  14.263  13.350   3.922
71683SOL     OW16881  12.806   9.456  12.401
71683SOL    HW116882  12.719   9.417  12.399
71683SOL    HW216883  12.851   9.412  12.473
71684SOL     OW16884   0.230   1.303   4.625
71684SOL    HW116885   0.305   1.340   4.578
71684SOL    HW216886   0.187   1.246   4.562
71685SOL     OW16887   2.837   2.401  10.706
71685SOL    HW116888   2.889   2.343  10.762
71685SOL    HW216889   2.817   2.477  10.761
71686SOL     OW16890   9.585   7.859   0.883
71686SOL    HW116891   9.626   7.883   0.800
71686SOL    HW216892   9.498   7.828   0.859
71687SOL     OW16893   2.814   7.018   5.905
71687SOL    HW116894   2.905   7.011   5.932
71687SOL    HW216895   2.816   7.011   5.810
71688SOL     OW16896   9.018   2.054   4.198
71688SOL    HW116897   9.043   2.135   4.154
71688SOL    HW216898   9.101   2.007   4.211
71689SOL     OW16899   4.967  12.941   6.641
71689SOL    HW116900   4.913  12.992   6.580
71689SOL    HW216901   5.034  12.902   6.586
71690SOL     OW16902   0.609   0.126   7.818
71690SOL    HW116903   0.611   0.220   7.834
71690SOL    HW216904   0.516   0.105   7.812
71691SOL     OW16905  14.454  11.766  13.223
71691SOL    HW116906  14.525  11.794  13.280
71691SOL    HW216907  14.377  11.762  13.280
71692SOL     OW16908  14.607  13.774  13.787
71692SOL    HW116909  14.621  13.769  13.881
71692SOL    HW216910  14.514  13.754  13.775
71693SOL     OW16911  10.372   2.952   0.589
71693SOL    HW116912  10.306   3.015   0.620
71693SOL    HW216913  10.446   3.005   0.562
71694SOL     OW16914   2.259   3.910   7.900
71694SOL    HW116915   2.240   3.970   7.972
71694SOL    HW216916   2.295   3.832   7.942
71695SOL     OW16917   3.401   5.873   8.753
71695SOL    HW116918   3.372   5.840   8.838
71695SOL    HW216919   3.470   5.813   8.725
71696SOL     OW16920   8.107   9.364   5.233
71696SOL    HW116921   8.043   9.294   5.242
71696SOL    HW216922   8.153   9.345   5.151
71697SOL     OW16923  11.073  12.341   0.614
71697SOL    HW116924  11.070  12.297   0.529
71697SOL    HW216925  11.100  12.272   0.675
71698SOL     OW16926   7.749   2.424  14.672
71698SOL    HW116927   7.678   2.484  14.696
71698SOL    HW216928   7.729   2.397  14.582
71699SOL     OW16929  14.667  14.074   5.914
71699SOL    HW116930  14.702  13.993   5.878
71699SOL    HW216931  14.616  14.047   5.990
71700SOL     OW16932   5.492   8.217   5.238
71700SOL    HW116933   5.457   8.266   5.312
71700SOL    HW216934   5.434   8.240   5.165
71701SOL     OW16935   3.260   8.564   4.263
71701SOL    HW116936   3.168   8.562   4.237
71701SOL    HW216937   3.308   8.531   4.187
71702SOL     OW16938   3.739   7.286  11.284
71702SOL    HW116939   3.764   7.205  11.328
71702SOL    HW216940   3.653   7.266  11.246
71703SOL     OW16941  12.785   7.485   0.519
71703SOL    HW116942  12.729   7.529   0.455
71703SOL    HW216943  12.728   7.472   0.595
71704SOL     OW16944   6.286  13.561  12.577
71704SOL    HW116945   6.287  13.590  12.668
71704SOL    HW216946   6.280  13.642  12.526
71705SOL     OW16947   9.387   7.594  13.603
71705SOL    HW116948   9.347   7.512  13.572
71705SOL    HW216949   9.366   7.658  13.536
71706SOL     OW16950  13.278  13.937   0.295
71706SOL    HW116951  13.213  13.913   0.229
71706SOL    HW216952  13.267  13.872   0.364
71707SOL     OW16953  12.268   5.060   2.723
71707SOL    HW116954  12.337   5.126   2.715
71707SOL    HW216955  12.199   5.104   2.773
71708SOL     OW16956  12.733  12.546   6.802
71708SOL    HW116957  12.669  12.562   6.871
71708SOL    HW216958  12.684  12.500   6.734
71709SOL     OW16959   8.959  10.413  10.286
71709SOL    HW116960   8.955  10.320  10.309
71709SOL    HW216961   8.902  10.455  10.350
71710SOL     OW16962   4.049   6.467  11.445
71710SOL    HW116963   4.051   6.403  11.374
71710SOL    HW216964   4.104   6.539  11.414
71711SOL     OW16965   7.157  11.482  10.784
71711SOL    HW116966   7.195  11.544  10.846
71711SOL    HW216967   7.217  11.484  10.709
71712SOL     OW16968   6.825  12.078   0.039
71712SOL    HW116969   6.829  12.163   0.083
71712SOL    HW216970   6.742  12.039   0.069
71713SOL     OW16971  10.815   2.533  14.538
71713SOL    HW116972  10.883   2.600  14.533
71713SOL    HW216973  10.735   2.582  14.557
71714SOL     OW16974  12.300   6.209   6.163
71714SOL    HW116975  12.315   6.168   6.077
71714SOL    HW216976  12.240   6.282   6.145
71715SOL     OW16977   0.189   5.912   1.137
71715SOL    HW116978   0.129   5.838   1.142
71715SOL    HW216979   0.267   5.876   1.095
71716SOL     OW16980   0.557  13.809   0.490
71716SOL    HW116981   0.562  13.714   0.498
71716SOL    HW216982   0.621  13.831   0.423
71717SOL     OW16983   9.524   4.726   1.510
71717SOL    HW116984   9.515   4.818   1.535
71717SOL    HW216985   9.445   4.707   1.459
71718SOL     OW16986   8.064   3.216  11.625
71718SOL    HW116987   8.133   3.202  11.560
71718SOL    HW216988   8.038   3.128  11.651
71719SOL     OW16989   0.746   8.180  11.205
71719SOL    HW116990   0.817   8.243  11.219
71719SOL    HW216991   0.791   8.097  11.187
71720SOL     OW16992  10.594   6.165  10.926
71720SOL    HW116993  10.548   6.181  11.008
71720SOL    HW216994  10.583   6.245  10.875
71721SOL     OW16995  13.272   7.461  11.496
71721SOL    HW116996  13.345   7.435  11.441
71721SOL    HW216997  13.236   7.539  11.453
71722SOL     OW16998   6.347   9.406  11.429
71722SOL    HW116999   6.334   9.446  11.515
71722SOL    HW217000   6.335   9.477  11.367
71723SOL     OW17001   8.834   8.445  10.334
71723SOL    HW117002   8.743   8.459  10.308
71723SOL    HW217003   8.880   8.522  10.302
71724SOL     OW17004   2.073   8.327   9.265
71724SOL    HW117005   2.116   8.359   9.344
71724SOL    HW217006   2.096   8.234   9.261
71725SOL     OW17007   9.523   1.620   4.403
71725SOL    HW117008   9.546   1.691   4.345
71725SOL    HW217009   9.443   1.583   4.366
71726SOL     OW17010   1.667  10.740   9.657
71726SOL    HW117011   1.731  10.771   9.593
71726SOL    HW217012   1.689  10.787   9.737
71727SOL     OW17013   4.858   3.567   8.060
71727SOL    HW117014   4.883   3.642   8.007
71727SOL    HW217015   4.819   3.506   7.998
71728SOL     OW17016  10.409   9.541   4.682
71728SOL    HW117017  10.455   9.531   4.765
71728SOL    HW217018  10.433   9.629   4.652
71729SOL     OW17019   7.060   3.419  13.078
71729SOL    HW117020   7.036   3.471  13.002
71729SOL    HW217021   6.978   3.380  13.109
71730SOL     OW17022   9.193  11.864  10.274
71730SOL    HW117023   9.115  11.914  10.298
71730SOL    HW217024   9.258  11.889  10.339
71731SOL     OW17025  11.435   9.741  14.313
71731SOL    HW117026  11.399   9.780  14.392
71731SOL    HW217027  11.372   9.764  14.244
71732SOL     OW17028   8.160   4.342   7.014
71732SOL    HW117029   8.254   4.351   6.999
71732SOL    HW217030   8.153   4.272   7.080
71733SOL     OW17031  13.086   4.200   1.245
71733SOL    HW117032  13.122   4.134   1.305
71733SOL    HW217033  13.028   4.253   1.300
71734SOL     OW17034   6.952   2.675  12.307
71734SOL    HW117035   6.940   2.758  12.261
71734SOL    HW217036   6.885   2.675  12.376
71735SOL     OW17037   0.938   6.315  11.097
71735SOL    HW117038   0.857   6.355  11.065
71735SOL    HW217039   0.985   6.387  11.140
71736SOL     OW17040   3.911   6.198   7.541
71736SOL    HW117041   3.974   6.241   7.483
71736SOL    HW217042   3.947   6.211   7.629
71737SOL     OW17043   9.959   9.502  12.108
71737SOL    HW117044  10.040   9.525  12.153
71737SOL    HW217045   9.942   9.575  12.048
71738SOL     OW17046   0.792  11.165   8.895
71738SOL    HW117047   0.856  11.103   8.861
71738SOL    HW217048   0.809  11.168   8.989
71739SOL     OW17049  14.369   3.138   9.771
71739SOL    HW117050  14.445   3.195   9.781
71739SOL    HW217051  14.296   3.197   9.752
71740SOL     OW17052   5.107   1.932   0.386
71740SOL    HW117053   5.181   1.877   0.361
71740SOL    HW217054   5.030   1.888   0.350
71741SOL     OW17055   4.663  12.311   1.811
71741SOL    HW117056   4.749  12.269   1.807
71741SOL    HW217057   4.610  12.264   1.746
71742SOL     OW17058   6.885   1.328   8.581
71742SOL    HW117059   6.907   1.369   8.497
71742SOL    HW217060   6.848   1.399   8.633
71743SOL     OW17061   1.691   5.893   0.799
71743SOL    HW117062   1.757   5.833   0.767
71743SOL    HW217063   1.720   5.917   0.886
71744SOL     OW17064   1.253   9.397  12.088
71744SOL    HW117065   1.240   9.303  12.081
71744SOL    HW217066   1.309   9.419  12.013
71745SOL     OW17067  13.907  14.844   0.203
71745SOL    HW117068  13.848  14.785   0.156
71745SOL    HW217069  13.866  14.856   0.288
71746SOL     OW17070   7.616   2.248   0.971
71746SOL    HW117071   7.618   2.176   0.908
71746SOL    HW217072   7.677   2.313   0.935
71747SOL     OW17073   7.682   1.117   3.392
71747SOL    HW117074   7.713   1.144   3.479
71747SOL    HW217075   7.746   1.052   3.362
71748SOL     OW17076  11.525   5.400  11.006
71748SOL    HW117077  11.613   5.427  11.031
71748SOL    HW217078  11.533   5.373  10.915
71749SOL     OW17079   0.799   0.088  10.266
71749SOL    HW117080   0.805   0.100  10.172
71749SOL    HW217081   0.736   0.016  10.277
71750SOL     OW17082   4.033  14.698   7.855
71750SOL    HW117083   4.103  14.681   7.793
71750SOL    HW217084   3.952  14.689   7.804
71751SOL     OW17085  11.682   7.707  12.287
71751SOL    HW117086  11.591   7.723  12.259
71751SOL    HW217087  11.718   7.794  12.303
71752SOL     OW17088  13.131   1.205  12.314
71752SOL    HW117089  13.040   1.209  12.345
71752SOL    HW217090  13.128   1.144  12.240
71753SOL     OW17091  14.237   5.979  11.572
71753SOL    HW117092  14.205   5.890  11.557
71753SOL    HW217093  14.324   5.968  11.611
71754SOL     OW17094   1.498  11.807   2.238
71754SOL    HW117095   1.427  11.861   2.274
71754SOL    HW217096   1.569  11.817   2.301
71755SOL     OW17097   1.369   6.401   2.988
71755SOL    HW117098   1.318   6.340   3.041
71755SOL    HW217099   1.404   6.465   3.050
71756SOL     OW17100  13.794   3.667   3.893
71756SOL    HW117101  13.733   3.734   3.861
71756SOL    HW217102  13.740   3.608   3.946
71757SOL     OW17103   4.893   3.438   8.570
71757SOL    HW117104   4.926   3.350   8.552
71757SOL    HW217105   4.800   3.425   8.587
71758SOL     OW17106   2.688  13.544  14.174
71758SOL    HW117107   2.650  13.456  14.167
71758SOL    HW217108   2.726  13.559  14.087
71759SOL     OW17109   7.922   4.665   4.112
71759SOL    HW117110   8.010   4.635   4.133
71759SOL    HW217111   7.885   4.689   4.197
71760SOL     OW17112  12.906   7.778  14.112
71760SOL    HW117113  12.915   7.854  14.170
71760SOL    HW217114  12.985   7.727  14.127
71761SOL     OW17115   0.452   9.127   6.954
71761SOL    HW117116   0.492   9.213   6.939
71761SOL    HW217117   0.523   9.074   6.990
71762SOL     OW17118  13.137  14.750   2.562
71762SOL    HW117119  13.211  14.755   2.623
71762SOL    HW217120  13.103  14.661   2.573
71763SOL     OW17121   3.371   2.340   4.857
71763SOL    HW117122   3.395   2.249   4.873
71763SOL    HW217123   3.454   2.382   4.833
71764SOL     OW17124   5.906  10.436  11.023
71764SOL    HW117125   5.904  10.408  10.931
71764SOL    HW217126   5.992  10.476  11.033
71765SOL     OW17127  10.724   2.986   2.510
71765SOL    HW117128  10.705   3.080   2.510
71765SOL    HW217129  10.754   2.967   2.421
71766SOL     OW17130   0.747   5.378   3.649
71766SOL    HW117131   0.661   5.365   3.689
71766SOL    HW217132   0.791   5.293   3.657
71767SOL     OW17133   1.992   0.669   3.483
71767SOL    HW117134   2.029   0.747   3.441
71767SOL    HW217135   1.987   0.693   3.576
71768SOL     OW17136   3.318  13.194   3.911
71768SOL    HW117137   3.357  13.225   3.992
71768SOL    HW217138   3.328  13.098   3.915
71769SOL     OW17139  13.265   1.446  13.305
71769SOL    HW117140  13.173   1.467  13.314
71769SOL    HW217141  13.309   1.531  13.297
71770SOL     OW17142   3.345  11.308   0.427
71770SOL    HW117143   3.342  11.403   0.421
71770SOL    HW217144   3.427  11.289   0.472
71771SOL     OW17145   8.629   9.056   7.661
71771SOL    HW117146   8.652   8.970   7.627
71771SOL    HW217147   8.696   9.115   7.627
71772SOL     OW17148  14.089   7.335   7.123
71772SOL    HW117149  14.179   7.364   7.106
71772SOL    HW217150  14.086   7.246   7.087
71773SOL     OW17151   0.095   5.116   6.988
71773SOL    HW117152   0.072   5.206   6.964
71773SOL    HW217153   0.061   5.105   7.077
71774SOL     OW17154  14.012   5.228   5.917
71774SOL    HW117155  13.957   5.219   5.839
71774SOL    HW217156  14.012   5.322   5.936
71775SOL     OW17157   7.936  10.012   8.260
71775SOL    HW117158   8.025  10.020   8.225
71775SOL    HW217159   7.915  10.098   8.294
71776SOL     OW17160   5.153  13.770   5.286
71776SOL    HW117161   5.166  13.820   5.366
71776SOL    HW217162   5.086  13.706   5.308
71777SOL     OW17163   2.015   3.031  14.716
71777SOL    HW117164   1.936   3.056  14.667
71777SOL    HW217165   2.034   3.108  14.770
71778SOL     OW17166   7.173  11.897  12.990
71778SOL    HW117167   7.223  11.977  13.007
71778SOL    HW217168   7.157  11.860  13.077
71779SOL     OW17169  14.565   7.624   3.140
71779SOL    HW117170  14.541   7.693   3.078
71779SOL    HW217171  14.638   7.659   3.189
71780SOL     OW17172   2.200   7.112  11.420
71780SOL    HW117173   2.245   7.130  11.338
71780SOL    HW217174   2.267   7.073  11.477
71781SOL     OW17175  12.261  10.922   5.563
71781SOL    HW117176  12.187  10.915   5.503
71781SOL    HW217177  12.224  10.903   5.649
71782SOL     OW17178  12.685   8.780   1.177
71782SOL    HW117179  12.623   8.717   1.142
71782SOL    HW217180  12.709   8.745   1.263
71783SOL     OW17181   5.901   7.102   4.705
71783SOL    HW117182   5.862   7.132   4.622
71783SOL    HW217183   5.831   7.115   4.769
71784SOL     OW17184  10.251   9.406   1.370
71784SOL    HW117185  10.296   9.470   1.424
71784SOL    HW217186  10.162   9.400   1.406
71785SOL     OW17187  10.132   5.607   4.927
71785SOL    HW117188  10.083   5.563   4.858
71785SOL    HW217189  10.201   5.544   4.950
71786SOL     OW17190   9.724   7.266   7.529
71786SOL    HW117191   9.716   7.202   7.600
71786SOL    HW217192   9.656   7.331   7.548
71787SOL     OW17193   4.068   9.702   2.893
71787SOL    HW117194   4.078   9.611   2.920
71787SOL    HW217195   4.011   9.741   2.959
71788SOL     OW17196   1.405   8.172  11.367
71788SOL    HW117197   1.422   8.266  11.365
71788SOL    HW217198   1.476   8.134  11.314
71789SOL     OW17199   8.062   9.529  10.420
71789SOL    HW117200   7.996   9.521  10.489
71789SOL    HW217201   8.047   9.615  10.381
71790SOL     OW17202  13.029  11.755   4.333
71790SOL    HW117203  13.079  11.780   4.410
71790SOL    HW217204  13.060  11.667   4.311
71791SOL     OW17205   0.426   7.530   0.129
71791SOL    HW117206   0.431   7.587   0.206
71791SOL    HW217207   0.516   7.525   0.097
71792SOL     OW17208  13.480  13.731  10.360
71792SOL    HW117209  13.465  13.765  10.272
71792SOL    HW217210  13.483  13.808  10.417
71793SOL     OW17211   1.751   5.019   4.308
71793SOL    HW117212   1.677   4.990   4.254
71793SOL    HW217213   1.827   4.974   4.272
71794SOL     OW17214   0.739   5.295  10.778
71794SOL    HW117215   0.785   5.342  10.847
71794SOL    HW217216   0.743   5.353  10.702
71795SOL     OW17217   3.479   4.114   2.168
71795SOL    HW117218   3.483   4.029   2.211
71795SOL    HW217219   3.498   4.177   2.238
71796SOL     OW17220   6.372   4.134   6.005
71796SOL    HW117221   6.321   4.159   6.083
71796SOL    HW217222   6.461   4.161   6.025
71797SOL     OW17223   4.265   7.166  13.334
71797SOL    HW117224   4.200   7.098  13.311
71797SOL    HW217225   4.253   7.179  13.428
71798SOL     OW17226  12.870   8.700  14.260
71798SOL    HW117227  12.808   8.767  14.288
71798SOL    HW217228  12.942   8.749  14.219
71799SOL     OW17229   1.284  11.024  11.619
71799SOL    HW117230   1.264  11.039  11.711
71799SOL    HW217231   1.362  10.969  11.620
71800SOL     OW17232   1.086   1.583  14.158
71800SOL    HW117233   1.143   1.511  14.184
71800SOL    HW217234   1.112   1.655  14.216
71801SOL     OW17235   0.240   9.037   3.870
71801SOL    HW117236   0.146   9.051   3.856
71801SOL    HW217237   0.246   8.947   3.904
71802SOL     OW17238  11.426   8.623  11.251
71802SOL    HW117239  11.475   8.548  11.285
71802SOL    HW217240  11.337   8.591  11.242
71803SOL     OW17241  12.107   1.855   7.068
71803SOL    HW117242  12.114   1.946   7.042
71803SOL    HW217243  12.014   1.842   7.086
71804SOL     OW17244   5.044   9.192   4.646
71804SOL    HW117245   5.100   9.233   4.711
71804SOL    HW217246   5.004   9.118   4.692
71805SOL     OW17247   5.297   5.513   6.032
71805SOL    HW117248   5.236   5.485   5.963
71805SOL    HW217249   5.246   5.575   6.084
71806SOL     OW17250   8.453   2.457   3.736
71806SOL    HW117251   8.444   2.463   3.831
71806SOL    HW217252   8.506   2.532   3.711
71807SOL     OW17253   9.612   3.459  10.959
71807SOL    HW117254   9.584   3.534  10.907
71807SOL    HW217255   9.547   3.391  10.941
71808SOL     OW17256   3.215  12.199   8.239
71808SOL    HW117257   3.295  12.173   8.194
71808SOL    HW217258   3.204  12.292   8.218
71809SOL     OW17259  11.557  11.343   3.174
71809SOL    HW117260  11.505  11.286   3.117
71809SOL    HW217261  11.551  11.301   3.260
71810SOL     OW17262   5.900  11.653   3.357
71810SOL    HW117263   5.878  11.575   3.408
71810SOL    HW217264   5.943  11.620   3.279
71811SOL     OW17265  14.420  14.805  13.147
71811SOL    HW117266  14.492  14.846  13.100
71811SOL    HW217267  14.422  14.844  13.235
71812SOL     OW17268   0.844   9.990   7.232
71812SOL    HW117269   0.781   9.956   7.295
71812SOL    HW217270   0.792  10.017   7.157
71813SOL     OW17271   5.849   8.755   4.717
71813SOL    HW117272   5.927   8.719   4.758
71813SOL    HW217273   5.800   8.795   4.790
71814SOL     OW17274   6.096   4.515   1.726
71814SOL    HW117275   6.094   4.482   1.816
71814SOL    HW217276   6.186   4.544   1.713
71815SOL     OW17277  10.275   5.801   2.375
71815SOL    HW117278  10.202   5.835   2.428
71815SOL    HW217279  10.340   5.773   2.440
71816SOL     OW17280   9.010   9.695   8.798
71816SOL    HW117281   9.019   9.671   8.705
71816SOL    HW217282   8.980   9.786   8.796
71817SOL     OW17283  12.357   6.993  13.766
71817SOL    HW117284  12.382   7.002  13.858
71817SOL    HW217285  12.268   7.028  13.762
71818SOL     OW17286   9.800   2.151  14.399
71818SOL    HW117287   9.742   2.207  14.451
71818SOL    HW217288   9.813   2.200  14.318
71819SOL     OW17289  14.184   8.180   1.696
71819SOL    HW117290  14.267   8.148   1.659
71819SOL    HW217291  14.187   8.275   1.683
71820SOL     OW17292  14.770   2.255   2.089
71820SOL    HW117293  14.693   2.237   2.143
71820SOL    HW217294  14.750   2.216   2.004
71821SOL     OW17295   5.555   1.729   8.256
71821SOL    HW117296   5.646   1.728   8.284
71821SOL    HW217297   5.556   1.696   8.167
71822SOL     OW17298   2.041   0.158   7.082
71822SOL    HW117299   1.975   0.114   7.136
71822SOL    HW217300   1.996   0.234   7.046
71823SOL     OW17301  13.027   7.224  14.694
71823SOL    HW117302  12.994   7.222  14.784
71823SOL    HW217303  12.984   7.150  14.651
71824SOL     OW17304   5.544   1.682  14.640
71824SOL    HW117305   5.574   1.598  14.673
71824SOL    HW217306   5.594   1.747  14.689
71825SOL     OW17307  13.971   5.068   1.326
71825SOL    HW117308  13.936   4.980   1.338
71825SOL    HW217309  14.033   5.079   1.398
71826SOL     OW17310   7.102  13.178   4.555
71826SOL    HW117311   7.181  13.183   4.609
71826SOL    HW217312   7.097  13.262   4.510
71827SOL     OW17313   0.851   1.474   0.366
71827SOL    HW117314   0.809   1.389   0.354
71827SOL    HW217315   0.829   1.500   0.455
71828SOL     OW17316   4.384   9.321  12.017
71828SOL    HW117317   4.474   9.352  12.012
71828SOL    HW217318   4.392   9.229  12.040
71829SOL     OW17319   8.368   1.604   5.651
71829SOL    HW117320   8.463   1.587   5.645
71829SOL    HW217321   8.328   1.519   5.632
71830SOL     OW17322   8.047   2.574   8.323
71830SOL    HW117323   8.047   2.621   8.406
71830SOL    HW217324   8.139   2.572   8.297
71831SOL     OW17325  13.048   5.069   0.497
71831SOL    HW117326  13.042   5.140   0.433
71831SOL    HW217327  13.142   5.055   0.509
71832SOL     OW17328  12.244   1.059   0.141
71832SOL    HW117329  12.293   1.136   0.113
71832SOL    HW217330  12.311   0.993   0.161
71833SOL     OW17331   5.095   3.777   3.554
71833SOL    HW117332   5.145   3.799   3.476
71833SOL    HW217333   5.151   3.716   3.602
71834SOL     OW17334   7.206  11.450   0.768
71834SOL    HW117335   7.130  11.463   0.824
71834SOL    HW217336   7.205  11.525   0.709
71835SOL     OW17337   9.830   8.929   4.803
71835SOL    HW117338   9.916   8.901   4.773
71835SOL    HW217339   9.776   8.850   4.798
71836SOL     OW17340   2.995   5.713   6.725
71836SOL    HW117341   3.043   5.771   6.785
71836SOL    HW217342   2.964   5.771   6.656
71837SOL     OW17343  10.263   1.498   4.330
71837SOL    HW117344  10.181   1.454   4.306
71837SOL    HW217345  10.293   1.451   4.407
71838SOL     OW17346  11.369  10.313   9.647
71838SOL    HW117347  11.441  10.280   9.700
71838SOL    HW217348  11.290  10.284   9.692
71839SOL     OW17349  12.357  10.079   9.598
71839SOL    HW117350  12.375  10.173   9.595
71839SOL    HW217351  12.322  10.059   9.511
71840SOL     OW17352   8.178  13.738   9.958
71840SOL    HW117353   8.201  13.761   9.868
71840SOL    HW217354   8.250  13.770  10.011
71841SOL     OW17355   2.133   7.473   4.640
71841SOL    HW117356   2.190   7.544   4.667
71841SOL    HW217357   2.187   7.419   4.583
71842SOL     OW17358   9.811   2.436   4.120
71842SOL    HW117359   9.783   2.505   4.180
71842SOL    HW217360   9.806   2.476   4.033
71843SOL     OW17361   3.212  13.020   8.954
71843SOL    HW117362   3.208  12.944   8.895
71843SOL    HW217363   3.120  13.047   8.964
71844SOL     OW17364   5.367  10.579   7.893
71844SOL    HW117365   5.314  10.539   7.962
71844SOL    HW217366   5.431  10.513   7.869
71845SOL     OW17367   7.584  11.768  10.734
71845SOL    HW117368   7.541  11.688  10.704
71845SOL    HW217369   7.528  11.800  10.805
71846SOL     OW17370  10.595   7.152   9.890
71846SOL    HW117371  10.647   7.197   9.956
71846SOL    HW217372  10.652   7.082   9.859
71847SOL     OW17373   6.661  10.560   1.632
71847SOL    HW117374   6.598  10.540   1.701
71847SOL    HW217375   6.724  10.488   1.636
71848SOL     OW17376  10.776   9.800   9.551
71848SOL    HW117377  10.778   9.708   9.577
71848SOL    HW217378  10.720   9.843   9.616
71849SOL     OW17379  11.274   4.376  11.732
71849SOL    HW117380  11.244   4.466  11.746
71849SOL    HW217381  11.195   4.323  11.736
71850SOL     OW17382   5.461   0.320  12.871
71850SOL    HW117383   5.470   0.414  12.861
71850SOL    HW217384   5.499   0.300  12.956
71851SOL     OW17385  10.503   6.794   0.607
71851SOL    HW117386  10.481   6.727   0.672
71851SOL    HW217387  10.420   6.836   0.586
71852SOL     OW17388   6.436   4.241   7.185
71852SOL    HW117389   6.442   4.336   7.194
71852SOL    HW217390   6.418   4.226   7.092
71853SOL     OW17391  11.641  13.476  13.386
71853SOL    HW117392  11.549  13.500  13.376
71853SOL    HW217393  11.688  13.542  13.334
71854SOL     OW17394   9.522  13.922   2.483
71854SOL    HW117395   9.549  13.861   2.552
71854SOL    HW217396   9.432  13.946   2.506
71855SOL     OW17397  10.895   0.524   8.659
71855SOL    HW117398  10.879   0.613   8.627
71855SOL    HW217399  10.821   0.505   8.716
71856SOL     OW17400   9.823  10.442  13.284
71856SOL    HW117401   9.909  10.484  13.293
71856SOL    HW217402   9.838  10.351  13.309
71857SOL     OW17403   4.554   1.439   2.082
71857SOL    HW117404   4.538   1.521   2.035
71857SOL    HW217405   4.469   1.416   2.119
71858SOL     OW17406  13.735   4.431   8.672
71858SOL    HW117407  13.736   4.417   8.578
71858SOL    HW217408  13.780   4.515   8.685
71859SOL     OW17409  11.539  13.048   1.033
71859SOL    HW117410  11.571  13.034   1.122
71859SOL    HW217411  11.487  13.128   1.039
71860SOL     OW17412  11.014  12.345   1.084
71860SOL    HW117413  11.094  12.397   1.078
71860SOL    HW217414  10.944  12.404   1.056
71861SOL     OW17415   5.745   7.470   6.794
71861SOL    HW117416   5.748   7.563   6.814
71861SOL    HW217417   5.836   7.446   6.777
71862SOL     OW17418  12.027  13.613  11.868
71862SOL    HW117419  12.092  13.544  11.852
71862SOL    HW217420  12.008  13.606  11.961
71863SOL     OW17421   2.214   0.719   9.710
71863SOL    HW117422   2.151   0.653   9.738
71863SOL    HW217423   2.190   0.737   9.619
71864SOL     OW17424  12.316   2.911  12.079
71864SOL    HW117425  12.224   2.933  12.090
71864SOL    HW217426  12.364   2.987  12.112
71865SOL     OW17427  11.356   6.673   8.548
71865SOL    HW117428  11.352   6.763   8.515
71865SOL    HW217429  11.371   6.620   8.470
71866SOL     OW17430   8.186   3.675   8.408
71866SOL    HW117431   8.187   3.687   8.503
71866SOL    HW217432   8.102   3.633   8.390
71867SOL     OW17433  13.954  14.641   3.782
71867SOL    HW117434  13.963  14.582   3.857
71867SOL    HW217435  13.860  14.645   3.765
71868SOL     OW17436  11.318  14.165   1.608
71868SOL    HW117437  11.303  14.232   1.674
71868SOL    HW217438  11.333  14.085   1.659
71869SOL     OW17439  12.025   6.198   0.162
71869SOL    HW117440  11.965   6.144   0.212
71869SOL    HW217441  12.104   6.144   0.152
71870SOL     OW17442   1.355   4.425  14.266
71870SOL    HW117443   1.344   4.466  14.352
71870SOL    HW217444   1.357   4.499  14.205
71871SOL     OW17445   6.115  14.441   2.820
71871SOL    HW117446   6.054  14.494   2.872
71871SOL    HW217447   6.193  14.497   2.810
71872SOL     OW17448   3.360   4.483  11.842
71872SOL    HW117449   3.329   4.460  11.754
71872SOL    HW217450   3.281   4.481  11.896
71873SOL     OW17451   4.494   0.371   8.439
71873SOL    HW117452   4.415   0.352   8.388
71873SOL    HW217453   4.506   0.466   8.430
71874SOL     OW17454   6.163   2.476   5.423
71874SOL    HW117455   6.139   2.551   5.476
71874SOL    HW217456   6.256   2.490   5.402
71875SOL     OW17457   4.256   8.294  11.647
71875SOL    HW117458   4.322   8.256  11.590
71875SOL    HW217459   4.204   8.350  11.589
71876SOL     OW17460   2.978   6.890  13.400
71876SOL    HW117461   2.921   6.908  13.325
71876SOL    HW217462   2.965   6.798  13.419
71877SOL     OW17463  10.460   5.806   8.775
71877SOL    HW117464  10.492   5.717   8.765
71877SOL    HW217465  10.365   5.799   8.760
71878SOL     OW17466   1.279  12.636   7.514
71878SOL    HW117467   1.337  12.706   7.483
71878SOL    HW217468   1.253  12.590   7.434
71879SOL     OW17469   2.385   9.317   6.103
71879SOL    HW117470   2.338   9.366   6.170
71879SOL    HW217471   2.336   9.335   6.022
71880SOL     OW17472   9.403  14.461  14.207
71880SOL    HW117473   9.333  14.397  14.198
71880SOL    HW217474   9.407  14.506  14.122
71881SOL     OW17475   6.182   7.203   7.975
71881SOL    HW117476   6.222   7.203   7.888
71881SOL    HW217477   6.104   7.258   7.966
71882SOL     OW17478   9.405   8.427   6.628
71882SOL    HW117479   9.370   8.388   6.708
71882SOL    HW217480   9.400   8.522   6.644
71883SOL     OW17481  13.954  12.845   9.401
71883SOL    HW117482  14.018  12.774   9.397
71883SOL    HW217483  14.005  12.925   9.392
71884SOL     OW17484   2.952  13.158  12.513
71884SOL    HW117485   2.957  13.221  12.442
71884SOL    HW217486   2.859  13.151  12.534
71885SOL     OW17487   5.928   6.815   4.704
71885SOL    HW117488   6.023   6.818   4.708
71885SOL    HW217489   5.901   6.907   4.694
71886SOL     OW17490   1.105  13.457  11.160
71886SOL    HW117491   1.028  13.405  11.139
71886SOL    HW217492   1.132  13.427  11.246
71887SOL     OW17493   9.768   3.382  13.678
71887SOL    HW117494   9.762   3.376  13.773
71887SOL    HW217495   9.821   3.306  13.653
71888SOL     OW17496  13.955  10.591   9.051
71888SOL    HW117497  13.928  10.542   9.128
71888SOL    HW217498  14.018  10.533   9.007
71889SOL     OW17499   3.802   6.036  12.497
71889SOL    HW117500   3.711   6.062  12.483
71889SOL    HW217501   3.849   6.118  12.512
71890SOL     OW17502   4.434   9.009   5.425
71890SOL    HW117503   4.448   9.002   5.519
71890SOL    HW217504   4.477   9.091   5.400
71891SOL     OW17505   5.486   0.872   8.860
71891SOL    HW117506   5.474   0.965   8.844
71891SOL    HW217507   5.526   0.838   8.780
71892SOL     OW17508   3.135   2.361  13.705
71892SOL    HW117509   3.228   2.380  13.692
71892SOL    HW217510   3.132   2.267  13.723
71893SOL     OW17511   3.499  12.772   1.345
71893SOL    HW117512   3.550  12.704   1.300
71893SOL    HW217513   3.531  12.854   1.307
71894SOL     OW17514  12.855   6.925  13.494
71894SOL    HW117515  12.792   6.853  13.497
71894SOL    HW217516  12.860   6.949  13.402
71895SOL     OW17517   7.593  14.803   3.278
71895SOL    HW117518   7.564  14.747   3.351
71895SOL    HW217519   7.623   0.004   3.321
71896SOL     OW17520  10.750   0.546  14.535
71896SOL    HW117521  10.689   0.610  14.498
71896SOL    HW217522  10.813   0.529  14.465
71897SOL     OW17523  10.602  14.427  14.297
71897SOL    HW117524  10.585  14.337  14.266
71897SOL    HW217525  10.654  14.416  14.376
71898SOL     OW17526   0.740   8.527   3.382
71898SOL    HW117527   0.780   8.455   3.332
71898SOL    HW217528   0.807   8.554   3.444
71899SOL     OW17529   1.217   6.306   5.067
71899SOL    HW117530   1.206   6.393   5.030
71899SOL    HW217531   1.129   6.279   5.092
71900SOL     OW17532  11.423  10.974   4.676
71900SOL    HW117533  11.350  10.914   4.661
71900SOL    HW217534  11.392  11.059   4.645
71901SOL     OW17535   8.581  10.166  13.312
71901SOL    HW117536   8.658  10.204  13.355
71901SOL    HW217537   8.616  10.096  13.257
71902SOL     OW17538  12.462   5.547   0.100
71902SOL    HW117539  12.549   5.514   0.080
71902SOL    HW217540  12.417   5.551   0.015
71903SOL     OW17541  12.494  11.058   5.677
71903SOL    HW117542  12.410  11.017   5.656
71903SOL    HW217543  12.475  11.114   5.752
71904SOL     OW17544   1.531   0.478   7.609
71904SOL    HW117545   1.519   0.401   7.554
71904SOL    HW217546   1.531   0.552   7.548
71905SOL     OW17547   5.810   4.943   0.685
71905SOL    HW117548   5.869   4.979   0.751
71905SOL    HW217549   5.735   4.910   0.736
71906SOL     OW17550   9.723   4.125   4.508
71906SOL    HW117551   9.804   4.173   4.526
71906SOL    HW217552   9.753   4.044   4.467
71907SOL     OW17553  14.463   3.994   9.114
71907SOL    HW117554  14.496   4.078   9.147
71907SOL    HW217555  14.376   4.016   9.079
71908SOL     OW17556   3.967  10.045   8.646
71908SOL    HW117557   4.057  10.023   8.622
71908SOL    HW217558   3.963  10.141   8.642
71909SOL     OW17559   0.054   1.707  10.880
71909SOL    HW117560   0.037   1.709  10.786
71909SOL    HW217561  14.847   1.706  10.921
71910SOL     OW17562  12.458   8.033   5.613
71910SOL    HW117563  12.364   8.032   5.630
71910SOL    HW217564  12.485   8.124   5.630
71911SOL     OW17565   9.299  14.525  12.423
71911SOL    HW117566   9.376  14.470  12.430
71911SOL    HW217567   9.333  14.613  12.403
71912SOL     OW17568   1.661   5.534   6.077
71912SOL    HW117569   1.724   5.516   6.006
71912SOL    HW217570   1.619   5.616   6.051
71913SOL     OW17571   1.201   7.935   9.887
71913SOL    HW117572   1.179   7.860   9.832
71913SOL    HW217573   1.270   7.981   9.840
71914SOL     OW17574   1.164   5.778   4.069
71914SOL    HW117575   1.220   5.808   4.141
71914SOL    HW217576   1.207   5.699   4.037
71915SOL     OW17577  13.956  14.825   6.521
71915SOL    HW117578  14.024  14.782   6.573
71915SOL    HW217579  14.004  14.876   6.456
71916SOL     OW17580  12.692   1.772   6.613
71916SOL    HW117581  12.641   1.771   6.694
71916SOL    HW217582  12.757   1.702   6.625
71917SOL     OW17583   4.837   5.708  13.102
71917SOL    HW117584   4.758   5.654  13.107
71917SOL    HW217585   4.867   5.697  13.012
71918SOL     OW17586   6.352   9.956   0.105
71918SOL    HW117587   6.318   9.957   0.016
71918SOL    HW217588   6.291   9.899   0.153
71919SOL     OW17589   9.795   2.090   6.047
71919SOL    HW117590   9.809   2.044   6.130
71919SOL    HW217591   9.758   2.023   5.989
71920SOL     OW17592   8.694  14.484  14.666
71920SOL    HW117593   8.778  14.439  14.656
71920SOL    HW217594   8.629  14.413  14.670
71921SOL     OW17595  13.257   1.319  11.347
71921SOL    HW117596  13.261   1.398  11.292
71921SOL    HW217597  13.262   1.352  11.436
71922SOL     OW17598   7.703  13.311  11.850
71922SOL    HW117599   7.755  13.251  11.796
71922SOL    HW217600   7.736  13.398  11.827
71923SOL     OW17601   3.150   2.649  13.654
71923SOL    HW117602   3.129   2.559  13.681
71923SOL    HW217603   3.166   2.696  13.735
71924SOL     OW17604   6.068   7.382   2.780
71924SOL    HW117605   6.131   7.410   2.847
71924SOL    HW217606   6.117   7.384   2.698
71925SOL     OW17607   8.133   5.774   3.395
71925SOL    HW117608   8.093   5.808   3.475
71925SOL    HW217609   8.184   5.848   3.360
71926SOL     OW17610   9.938   4.683   7.210
71926SOL    HW117611  10.031   4.683   7.184
71926SOL    HW217612   9.905   4.767   7.180
71927SOL     OW17613   0.374   0.542  14.450
71927SOL    HW117614   0.305   0.478  14.434
71927SOL    HW217615   0.343   0.623  14.408
71928SOL     OW17616  14.251   6.134  14.522
71928SOL    HW117617  14.334   6.162  14.561
71928SOL    HW217618  14.265   6.142  14.427
71929SOL     OW17619  11.768   3.586   2.342
71929SOL    HW117620  11.761   3.544   2.256
71929SOL    HW217621  11.813   3.668   2.325
71930SOL     OW17622  12.016  10.296   3.014
71930SOL    HW117623  11.935  10.343   3.033
71930SOL    HW217624  12.085  10.359   3.034
71931SOL     OW17625   0.296  10.951   0.956
71931SOL    HW117626   0.351  11.016   0.998
71931SOL    HW217627   0.314  10.961   0.863
71932SOL     OW17628   2.458   1.057   7.332
71932SOL    HW117629   2.517   1.097   7.396
71932SOL    HW217630   2.516   1.014   7.270
71933SOL     OW17631   2.077  10.752  14.133
71933SOL    HW117632   2.032  10.828  14.170
71933SOL    HW217633   2.059  10.681  14.196
71934SOL     OW17634   9.755   7.234   3.791
71934SOL    HW117635   9.840   7.276   3.807
71934SOL    HW217636   9.767   7.187   3.709
71935SOL     OW17637   5.446   2.602   6.566
71935SOL    HW117638   5.372   2.614   6.506
71935SOL    HW217639   5.492   2.525   6.531
71936SOL     OW17640  13.624   0.755   3.515
71936SOL    HW117641  13.589   0.679   3.467
71936SOL    HW217642  13.700   0.782   3.464
71937SOL     OW17643   2.533  12.096   7.903
71937SOL    HW117644   2.474  12.025   7.927
71937SOL    HW217645   2.610  12.052   7.866
71938SOL     OW17646   8.002   6.805   7.595
71938SOL    HW117647   8.023   6.896   7.573
71938SOL    HW217648   7.951   6.774   7.521
71939SOL     OW17649  14.298   7.234   6.613
71939SOL    HW117650  14.271   7.274   6.531
71939SOL    HW217651  14.226   7.177   6.637
71940SOL     OW17652   2.515  10.748   7.504
71940SOL    HW117653   2.579  10.757   7.574
71940SOL    HW217654   2.430  10.760   7.547
71941SOL     OW17655   5.378   5.104  10.163
71941SOL    HW117656   5.320   5.038  10.127
71941SOL    HW217657   5.347   5.116  10.253
71942SOL     OW17658   9.795  11.236   3.421
71942SOL    HW117659   9.707  11.261   3.447
71942SOL    HW217660   9.848  11.314   3.437
71943SOL     OW17661  12.505   8.550  14.529
71943SOL    HW117662  12.558   8.471  14.517
71943SOL    HW217663  12.416   8.518  14.542
71944SOL     OW17664   2.784   7.327   3.394
71944SOL    HW117665   2.689   7.316   3.401
71944SOL    HW217666   2.798   7.362   3.306
71945SOL     OW17667   0.301   4.031  13.694
71945SOL    HW117668   0.217   4.065  13.725
71945SOL    HW217669   0.279   3.948  13.650
71946SOL     OW17670  14.480   2.899  10.825
71946SOL    HW117671  14.486   2.876  10.733
71946SOL    HW217672  14.398   2.858  10.855
71947SOL     OW17673  14.281   9.508  13.926
71947SOL    HW117674  14.234   9.560  13.992
71947SOL    HW217675  14.339   9.451  13.978
71948SOL     OW17676   5.540   4.306  13.202
71948SOL    HW117677   5.556   4.234  13.262
71948SOL    HW217678   5.561   4.270  13.115
71949SOL     OW17679   3.160   7.051   0.501
71949SOL    HW117680   3.124   7.061   0.413
71949SOL    HW217681   3.091   7.083   0.559
71950SOL     OW17682   0.367   0.223   4.558
71950SOL    HW117683   0.455   0.260   4.569
71950SOL    HW217684   0.330   0.269   4.482
71951SOL     OW17685   3.947   2.650   9.120
71951SOL    HW117686   3.886   2.644   9.193
71951SOL    HW217687   3.901   2.700   9.053
71952SOL     OW17688   6.247  12.358   1.500
71952SOL    HW117689   6.309  12.345   1.428
71952SOL    HW217690   6.290  12.319   1.576
71953SOL     OW17691   8.366  12.249   7.179
71953SOL    HW117692   8.432  12.220   7.116
71953SOL    HW217693   8.300  12.180   7.178
71954SOL     OW17694   3.379  11.378   8.330
71954SOL    HW117695   3.340  11.293   8.308
71954SOL    HW217696   3.439  11.395   8.257
71955SOL     OW17697   0.022   7.897   6.483
71955SOL    HW117698  14.851   7.936   6.555
71955SOL    HW217699  14.870   7.807   6.477
71956SOL     OW17700   3.632   5.428   4.613
71956SOL    HW117701   3.682   5.495   4.660
71956SOL    HW217702   3.618   5.358   4.677
71957SOL     OW17703   1.192   6.527   8.836
71957SOL    HW117704   1.272   6.542   8.885
71957SOL    HW217705   1.133   6.598   8.864
71958SOL     OW17706   6.401  13.455  11.290
71958SOL    HW117707   6.357  13.502  11.360
71958SOL    HW217708   6.427  13.371  11.329
71959SOL     OW17709   1.744   5.016   1.067
71959SOL    HW117710   1.660   5.049   1.099
71959SOL    HW217711   1.779   4.966   1.141
71960SOL     OW17712  11.621   3.568   3.005
71960SOL    HW117713  11.578   3.576   2.919
71960SOL    HW217714  11.598   3.649   3.051
71961SOL     OW17715   2.085   7.758   7.820
71961SOL    HW117716   2.047   7.699   7.754
71961SOL    HW217717   2.137   7.820   7.769
71962SOL     OW17718  12.692   4.564   9.883
71962SOL    HW117719  12.769   4.527   9.927
71962SOL    HW217720  12.659   4.492   9.828
71963SOL     OW17721   6.935   3.531   8.983
71963SOL    HW117722   6.845   3.562   8.982
71963SOL    HW217723   6.949   3.500   9.072
71964SOL     OW17724   7.745   5.805   1.125
71964SOL    HW117725   7.683   5.733   1.137
71964SOL    HW217726   7.690   5.881   1.103
71965SOL     OW17727  13.848   9.949   1.960
71965SOL    HW117728  13.868   9.860   1.932
71965SOL    HW217729  13.769   9.941   2.013
71966SOL     OW17730  14.409  11.836  13.809
71966SOL    HW117731  14.391  11.788  13.890
71966SOL    HW217732  14.402  11.928  13.835
71967SOL     OW17733   1.398   7.350  13.416
71967SOL    HW117734   1.388   7.445  13.424
71967SOL    HW217735   1.338   7.315  13.482
71968SOL     OW17736   0.085   5.664   0.377
71968SOL    HW117737   0.167   5.693   0.417
71968SOL    HW217738   0.019   5.725   0.410
71969SOL     OW17739  14.610  10.645   9.142
71969SOL    HW117740  14.518  10.646   9.167
71969SOL    HW217741  14.643  10.731   9.170
71970SOL     OW17742   3.708  11.178  11.873
71970SOL    HW117743   3.670  11.120  11.808
71970SOL    HW217744   3.737  11.254  11.823
71971SOL     OW17745   9.758   4.062   2.662
71971SOL    HW117746   9.675   4.024   2.633
71971SOL    HW217747   9.745   4.156   2.654
71972SOL     OW17748  10.626   9.065   2.561
71972SOL    HW117749  10.715   9.076   2.595
71972SOL    HW217750  10.634   9.002   2.490
71973SOL     OW17751   0.967  14.657   2.948
71973SOL    HW117752   0.939  14.676   3.037
71973SOL    HW217753   1.011  14.737   2.919
71974SOL     OW17754  14.252   3.336   3.238
71974SOL    HW117755  14.206   3.255   3.259
71974SOL    HW217756  14.233   3.394   3.312
71975SOL     OW17757  11.810   0.455   7.567
71975SOL    HW117758  11.826   0.542   7.531
71975SOL    HW217759  11.717   0.438   7.551
71976SOL     OW17760   6.636  13.616   0.117
71976SOL    HW117761   6.570  13.605   0.187
71976SOL    HW217762   6.675  13.529   0.108
71977SOL     OW17763  14.759   1.173   8.647
71977SOL    HW117764  14.678   1.204   8.608
71977SOL    HW217765  14.744   1.178   8.742
71978SOL     OW17766   8.476   3.029  12.515
71978SOL    HW117767   8.516   3.116  12.505
71978SOL    HW217768   8.549   2.968  12.507
71979SOL     OW17769   8.120   5.315   3.856
71979SOL    HW117770   8.055   5.254   3.890
71979SOL    HW217771   8.139   5.373   3.930
71980SOL     OW17772  10.551  12.562  13.212
71980SOL    HW117773  10.561  12.603  13.126
71980SOL    HW217774  10.457  12.548  13.221
71981SOL     OW17775  14.313   9.861   1.532
71981SOL    HW117776  14.394   9.912   1.543
71981SOL    HW217777  14.322   9.788   1.593
71982SOL     OW17778  11.669   4.968   5.963
71982SOL    HW117779  11.732   4.996   5.897
71982SOL    HW217780  11.674   4.873   5.962
71983SOL     OW17781   7.198   8.875  14.005
71983SOL    HW117782   7.126   8.823  13.968
71983SOL    HW217783   7.276   8.842  13.961
71984SOL     OW17784  14.050  12.564   5.241
71984SOL    HW117785  14.005  12.504   5.301
71984SOL    HW217786  14.035  12.527   5.154
71985SOL     OW17787   6.790   8.673   9.449
71985SOL    HW117788   6.695   8.681   9.451
71985SOL    HW217789   6.809   8.602   9.510
71986SOL     OW17790   5.911   8.781  12.421
71986SOL    HW117791   5.943   8.844  12.484
71986SOL    HW217792   5.869   8.834  12.352
71987SOL     OW17793   7.297   4.272  10.166
71987SOL    HW117794   7.301   4.333  10.093
71987SOL    HW217795   7.221   4.300  10.217
71988SOL     OW17796   1.938   2.587   6.245
71988SOL    HW117797   1.850   2.551   6.255
71988SOL    HW217798   1.992   2.540   6.308
71989SOL     OW17799   8.007   0.584  14.451
71989SOL    HW117800   7.996   0.529  14.374
71989SOL    HW217801   7.922   0.582  14.495
71990SOL     OW17802  14.013   2.082   9.619
71990SOL    HW117803  14.059   2.063   9.701
71990SOL    HW217804  14.046   2.018   9.557
71991SOL     OW17805   7.558  12.693   9.579
71991SOL    HW117806   7.594  12.605   9.588
71991SOL    HW217807   7.470  12.687   9.618
71992SOL     OW17808  11.850   6.481   8.774
71992SOL    HW117809  11.923   6.513   8.720
71992SOL    HW217810  11.818   6.559   8.819
71993SOL     OW17811  12.689   6.081   4.976
71993SOL    HW117812  12.668   6.122   4.893
71993SOL    HW217813  12.718   6.153   5.032
71994SOL     OW17814   5.949  12.022   0.105
71994SOL    HW117815   5.996  12.092   0.151
71994SOL    HW217816   5.859  12.029   0.136
71995SOL     OW17817   7.579  11.230   7.795
71995SOL    HW117818   7.640  11.157   7.779
71995SOL    HW217819   7.613  11.273   7.873
71996SOL     OW17820   4.531   2.689  10.199
71996SOL    HW117821   4.583   2.718  10.124
71996SOL    HW217822   4.565   2.740  10.273
71997SOL     OW17823   1.860   9.234  11.275
71997SOL    HW117824   1.784   9.177  11.261
71997SOL    HW217825   1.896   9.207  11.359
71998SOL     OW17826   5.605   5.365   5.779
71998SOL    HW117827   5.664   5.325   5.843
71998SOL    HW217828   5.519   5.328   5.799
71999SOL     OW17829   6.164   3.129   8.850
71999SOL    HW117830   6.226   3.151   8.920
71999SOL    HW217831   6.099   3.199   8.853
72000SOL     OW17832   0.915  10.933   2.107
72000SOL    HW117833   1.001  10.897   2.130
72000SOL    HW217834   0.925  11.028   2.118
72001SOL     OW17835   5.649  10.297   7.865
72001SOL    HW117836   5.714  10.253   7.811
72001SOL    HW217837   5.693  10.309   7.949
72002SOL     OW17838   9.477   7.110   9.240
72002SOL    HW117839   9.421   7.142   9.312
72002SOL    HW217840   9.427   7.129   9.161
72003SOL     OW17841  10.121   7.627   3.397
72003SOL    HW117842  10.063   7.676   3.456
72003SOL    HW217843  10.197   7.685   3.386
72004SOL     OW17844   1.160  12.102  12.403
72004SOL    HW117845   1.228  12.061  12.457
72004SOL    HW217846   1.148  12.189  12.440
72005SOL     OW17847  11.370  11.740  12.660
72005SOL    HW117848  11.304  11.808  12.649
72005SOL    HW217849  11.351  11.676  12.591
72006SOL     OW17850   5.261  11.468   1.679
72006SOL    HW117851   5.203  11.499   1.609
72006SOL    HW217852   5.320  11.407   1.635
72007SOL     OW17853   2.094  11.415   7.066
72007SOL    HW117854   2.034  11.449   7.132
72007SOL    HW217855   2.132  11.336   7.106
72008SOL     OW17856   4.055   2.107   6.100
72008SOL    HW117857   4.109   2.038   6.139
72008SOL    HW217858   4.089   2.188   6.137
72009SOL     OW17859   8.225   3.252   2.399
72009SOL    HW117860   8.129   3.256   2.400
72009SOL    HW217861   8.247   3.239   2.307
72010SOL     OW17862  13.902  11.729   1.315
72010SOL    HW117863  13.950  11.711   1.234
72010SOL    HW217864  13.870  11.819   1.305
72011SOL     OW17865   0.081   0.417  10.098
72011SOL    HW117866   0.137   0.383  10.167
72011SOL    HW217867   0.034   0.490  10.138
72012SOL     OW17868   1.075  13.240  10.624
72012SOL    HW117869   1.065  13.190  10.704
72012SOL    HW217870   1.076  13.175  10.554
72013SOL     OW17871   6.085   4.252   7.648
72013SOL    HW117872   6.087   4.190   7.720
72013SOL    HW217873   6.072   4.337   7.691
72014SOL     OW17874   0.140  12.681   6.677
72014SOL    HW117875   0.144  12.715   6.766
72014SOL    HW217876   0.098  12.596   6.686
72015SOL     OW17877  14.196   3.320  13.644
72015SOL    HW117878  14.185   3.353  13.555
72015SOL    HW217879  14.291   3.311  13.655
72016SOL     OW17880  13.649   1.849   9.069
72016SOL    HW117881  13.603   1.765   9.059
72016SOL    HW217882  13.739   1.823   9.090
72017SOL     OW17883   6.161   6.939   6.978
72017SOL    HW117884   6.212   7.020   6.979
72017SOL    HW217885   6.156   6.912   7.069
72018SOL     OW17886   2.151  12.044  13.003
72018SOL    HW117887   2.164  12.132  12.967
72018SOL    HW217888   2.240  12.011  13.016
72019SOL     OW17889   3.108   3.808   9.914
72019SOL    HW117890   3.094   3.901   9.935
72019SOL    HW217891   3.177   3.780   9.974
72020SOL     OW17892   4.750  11.905   7.823
72020SOL    HW117893   4.689  11.832   7.836
72020SOL    HW217894   4.768  11.904   7.729
72021SOL     OW17895   5.394   9.804   5.556
72021SOL    HW117896   5.301   9.786   5.570
72021SOL    HW217897   5.403   9.898   5.574
72022SOL     OW17898  14.861   1.219   3.487
72022SOL    HW117899  14.807   1.198   3.410
72022SOL    HW217900  14.824   1.301   3.520
72023SOL     OW17901   2.002   5.026  10.299
72023SOL    HW117902   1.933   5.070  10.250
72023SOL    HW217903   2.052   5.098  10.339
72024SOL     OW17904   7.103   1.766  11.426
72024SOL    HW117905   7.137   1.812  11.349
72024SOL    HW217906   7.088   1.834  11.491
72025SOL     OW17907   0.877   2.110   1.490
72025SOL    HW117908   0.916   2.157   1.417
72025SOL    HW217909   0.887   2.018   1.467
72026SOL     OW17910   0.315   7.846   0.966
72026SOL    HW117911   0.410   7.840   0.957
72026SOL    HW217912   0.301   7.846   1.061
72027SOL     OW17913   8.172  14.082  12.619
72027SOL    HW117914   8.164  14.113  12.709
72027SOL    HW217915   8.202  14.158  12.570
72028SOL     OW17916   2.834  14.320   8.316
72028SOL    HW117917   2.893  14.244   8.321
72028SOL    HW217918   2.846  14.354   8.227
72029SOL     OW17919  11.818  13.086   5.187
72029SOL    HW117920  11.866  13.163   5.155
72029SOL    HW217921  11.863  13.063   5.269
72030SOL     OW17922   0.183   0.650  11.878
72030SOL    HW117923   0.215   0.570  11.836
72030SOL    HW217924   0.096   0.664  11.839
72031SOL     OW17925   5.463   7.924   5.288
72031SOL    HW117926   5.526   7.892   5.353
72031SOL    HW217927   5.468   8.020   5.296
72032SOL     OW17928   5.938   0.694  11.799
72032SOL    HW117929   5.981   0.692  11.714
72032SOL    HW217930   5.860   0.748  11.786
72033SOL     OW17931   9.007   8.052   2.313
72033SOL    HW117932   8.953   8.006   2.378
72033SOL    HW217933   9.016   7.990   2.241
72034SOL     OW17934   2.655   9.299   0.947
72034SOL    HW117935   2.615   9.229   0.895
72034SOL    HW217936   2.744   9.307   0.911
72035SOL     OW17937   3.780   1.045   1.940
72035SOL    HW117938   3.728   0.999   2.006
72035SOL    HW217939   3.861   0.995   1.935
72036SOL     OW17940   5.930   2.105   5.738
72036SOL    HW117941   5.959   2.036   5.679
72036SOL    HW217942   5.990   2.178   5.720
72037SOL     OW17943  11.007  10.099   5.101
72037SOL    HW117944  10.938  10.115   5.165
72037SOL    HW217945  11.087  10.133   5.141
72038SOL     OW17946   9.287   1.569  11.937
72038SOL    HW117947   9.337   1.532  12.010
72038SOL    HW217948   9.331   1.651  11.917
72039SOL     OW17949   1.677  10.094   2.331
72039SOL    HW117950   1.739  10.167   2.328
72039SOL    HW217951   1.614  10.118   2.398
72040SOL     OW17952   1.666   3.848  13.990
72040SOL    HW117953   1.753   3.868  13.954
72040SOL    HW217954   1.614   3.823  13.914
72041SOL     OW17955  12.736   7.099   4.475
72041SOL    HW117956  12.712   7.051   4.395
72041SOL    HW217957  12.798   7.041   4.520
72042SOL     OW17958   3.490  11.448   8.646
72042SOL    HW117959   3.427  11.512   8.678
72042SOL    HW217960   3.545  11.428   8.721
72043SOL     OW17961  10.823   5.173  10.320
72043SOL    HW117962  10.746   5.130  10.357
72043SOL    HW217963  10.811   5.163  10.225
72044SOL     OW17964   6.463  14.643   9.442
72044SOL    HW117965   6.371  14.649   9.468
72044SOL    HW217966   6.463  14.582   9.368
72045SOL     OW17967   1.899   6.811   4.417
72045SOL    HW117968   1.929   6.902   4.427
72045SOL    HW217969   1.807   6.819   4.394
72046SOL     OW17970   7.796   0.195   2.537
72046SOL    HW117971   7.751   0.208   2.621
72046SOL    HW217972   7.833   0.107   2.543
72047SOL     OW17973  13.417   8.413   0.011
72047SOL    HW117974  13.447   8.332  14.849
72047SOL    HW217975  13.403   8.473  14.816
72048SOL     OW17976   6.612   1.470   3.554
72048SOL    HW117977   6.549   1.399   3.570
72048SOL    HW217978   6.695   1.437   3.588
72049SOL     OW17979   0.767   7.216   0.421
72049SOL    HW117980   0.771   7.121   0.434
72049SOL    HW217981   0.842   7.250   0.469
72050SOL     OW17982  14.325   7.499   6.791
72050SOL    HW117983  14.265   7.432   6.758
72050SOL    HW217984  14.267   7.569   6.821
72051SOL     OW17985   3.668   1.525   4.252
72051SOL    HW117986   3.637   1.601   4.202
72051SOL    HW217987   3.594   1.502   4.309
72052SOL     OW17988   1.052   7.158   5.909
72052SOL    HW117989   1.038   7.245   5.871
72052SOL    HW217990   0.966   7.134   5.943
72053SOL     OW17991   1.745   8.819  13.616
72053SOL    HW117992   1.718   8.798  13.705
72053SOL    HW217993   1.711   8.747  13.563
72054SOL     OW17994  12.133   0.194  13.557
72054SOL    HW117995  12.224   0.172  13.535
72054SOL    HW217996  12.082   0.160  13.484
72055SOL     OW17997   1.726   3.123   7.394
72055SOL    HW117998   1.809   3.159   7.426
72055SOL    HW217999   1.723   3.035   7.432
72056SOL     OW18000   3.724   7.811  12.690
72056SOL    HW118001   3.750   7.846  12.605
72056SOL    HW218002   3.630   7.826  12.695
72057SOL     OW18003  10.746   6.114  12.942
72057SOL    HW118004  10.739   6.171  13.019
72057SOL    HW218005  10.719   6.169  12.869
72058SOL     OW18006   6.564  10.521   9.293
72058SOL    HW118007   6.535  10.612   9.282
72058SOL    HW218008   6.489  10.478   9.335
72059SOL     OW18009  11.296   9.969  12.334
72059SOL    HW118010  11.305   9.935  12.245
72059SOL    HW218011  11.301  10.064  12.324
72060SOL     OW18012   3.239   0.744  10.057
72060SOL    HW118013   3.192   0.826  10.066
72060SOL    HW218014   3.325   0.768  10.022
72061SOL     OW18015  12.382   8.025  10.494
72061SOL    HW118016  12.363   8.091  10.428
72061SOL    HW218017  12.472   7.999  10.477
72062SOL     OW18018  13.166   8.802   9.907
72062SOL    HW118019  13.205   8.848   9.981
72062SOL    HW218020  13.089   8.758   9.944
72063SOL     OW18021   4.931  12.409   0.849
72063SOL    HW118022   4.942  12.504   0.845
72063SOL    HW218023   4.836  12.396   0.843
72064SOL     OW18024   4.206  13.457   6.307
72064SOL    HW118025   4.251  13.494   6.231
72064SOL    HW218026   4.210  13.527   6.373
72065SOL     OW18027  14.506   7.261  13.978
72065SOL    HW118028  14.593   7.238  14.012
72065SOL    HW218029  14.446   7.205  14.028
72066SOL     OW18030   6.590   4.455   0.510
72066SOL    HW118031   6.576   4.398   0.435
72066SOL    HW218032   6.600   4.542   0.472
72067SOL     OW18033   4.855   6.296   6.776
72067SOL    HW118034   4.797   6.239   6.827
72067SOL    HW218035   4.893   6.239   6.709
72068SOL     OW18036   6.770   8.547  11.991
72068SOL    HW118037   6.749   8.639  12.007
72068SOL    HW218038   6.805   8.546  11.902
72069SOL     OW18039  13.095  12.482   5.569
72069SOL    HW118040  13.109  12.420   5.498
72069SOL    HW218041  13.021  12.535   5.540
72070SOL     OW18042   1.687  14.086  13.407
72070SOL    HW118043   1.616  14.045  13.358
72070SOL    HW218044   1.660  14.077  13.499
72071SOL     OW18045  12.259   9.419  14.512
72071SOL    HW118046  12.218   9.484  14.455
72071SOL    HW218047  12.353   9.429  14.496
72072SOL     OW18048   8.794  11.012   6.205
72072SOL    HW118049   8.782  11.045   6.295
72072SOL    HW218050   8.757  11.080   6.150
72073SOL     OW18051  10.352   6.001  12.096
72073SOL    HW118052  10.423   5.985  12.158
72073SOL    HW218053  10.274   6.007  12.151
72074SOL     OW18054  11.367  12.127   2.478
72074SOL    HW118055  11.385  12.096   2.389
72074SOL    HW218056  11.314  12.206   2.466
72075SOL     OW18057  14.468  12.013   2.013
72075SOL    HW118058  14.533  11.943   2.021
72075SOL    HW218059  14.394  11.972   1.969
72076SOL     OW18060  13.600   1.746   7.309
72076SOL    HW118061  13.652   1.667   7.320
72076SOL    HW218062  13.663   1.813   7.281
72077SOL     OW18063  14.244   2.035   1.969
72077SOL    HW118064  14.205   1.980   1.901
72077SOL    HW218065  14.208   2.001   2.051
72078SOL     OW18066   8.056   0.236   2.480
72078SOL    HW118067   7.965   0.224   2.508
72078SOL    HW218068   8.081   0.321   2.516
72079SOL     OW18069   6.495  11.760   0.734
72079SOL    HW118070   6.562  11.697   0.707
72079SOL    HW218071   6.497  11.757   0.829
72080SOL     OW18072   9.758   1.888   0.838
72080SOL    HW118073   9.793   1.815   0.787
72080SOL    HW218074   9.778   1.865   0.929
72081SOL     OW18075   5.062  11.071  14.605
72081SOL    HW118076   5.144  11.102  14.644
72081SOL    HW218077   5.019  11.150  14.574
72082SOL     OW18078  12.669   1.847   1.329
72082SOL    HW118079  12.671   1.752   1.322
72082SOL    HW218080  12.651   1.877   1.240
72083SOL     OW18081  11.524   5.338   6.604
72083SOL    HW118082  11.463   5.410   6.587
72083SOL    HW218083  11.608   5.370   6.569
72084SOL     OW18084  10.206   7.772  13.436
72084SOL    HW118085  10.287   7.744  13.478
72084SOL    HW218086  10.136   7.739  13.493
72085SOL     OW18087   9.077   7.784  12.939
72085SOL    HW118088   9.039   7.718  12.880
72085SOL    HW218089   9.007   7.803  13.001
72086SOL     OW18090  10.541  13.164  10.155
72086SOL    HW118091  10.510  13.241  10.203
72086SOL    HW218092  10.577  13.106  10.222
72087SOL     OW18093   6.594   5.717  11.627
72087SOL    HW118094   6.655   5.696  11.698
72087SOL    HW218095   6.577   5.811  11.637
72088SOL     OW18096   5.468  13.989   5.189
72088SOL    HW118097   5.534  14.034   5.137
72088SOL    HW218098   5.467  13.900   5.154
72089SOL     OW18099  13.860  12.696  14.720
72089SOL    HW118100  13.777  12.698  14.766
72089SOL    HW218101  13.875  12.604  14.699
72090SOL     OW18102   6.771   7.292   2.852
72090SOL    HW118103   6.828   7.304   2.928
72090SOL    HW218104   6.755   7.198   2.849
72091SOL     OW18105   3.219   2.663   8.941
72091SOL    HW118106   3.145   2.612   8.975
72091SOL    HW218107   3.222   2.642   8.848
72092SOL     OW18108   8.698   0.508   5.779
72092SOL    HW118109   8.760   0.580   5.766
72092SOL    HW218110   8.724   0.442   5.713
72093SOL     OW18111   3.671   4.642   9.436
72093SOL    HW118112   3.725   4.589   9.378
72093SOL    HW218113   3.581   4.618   9.413
72094SOL     OW18114   2.114   8.438  10.463
72094SOL    HW118115   2.038   8.488  10.436
72094SOL    HW218116   2.083   8.347  10.467
72095SOL     OW18117  14.479   1.053   4.714
72095SOL    HW118118  14.535   0.982   4.744
72095SOL    HW218119  14.526   1.133   4.737
72096SOL     OW18120   4.633   1.731   3.822
72096SOL    HW118121   4.558   1.686   3.862
72096SOL    HW218122   4.605   1.823   3.815
72097SOL     OW18123   0.688  13.068   4.527
72097SOL    HW118124   0.617  13.034   4.474
72097SOL    HW218125   0.753  12.998   4.528
72098SOL     OW18126   3.100   9.617   5.685
72098SOL    HW118127   3.055   9.535   5.707
72098SOL    HW218128   3.184   9.590   5.648
72099SOL     OW18129   9.226   1.569   2.429
72099SOL    HW118130   9.226   1.635   2.359
72099SOL    HW218131   9.308   1.522   2.416
72100SOL     OW18132   4.764  14.488   7.215
72100SOL    HW118133   4.702  14.442   7.158
72100SOL    HW218134   4.813  14.546   7.157
72101SOL     OW18135   5.815  10.180   5.286
72101SOL    HW118136   5.767  10.262   5.296
72101SOL    HW218137   5.885  10.185   5.351
72102SOL     OW18138  13.287  11.279   1.674
72102SOL    HW118139  13.293  11.276   1.579
72102SOL    HW218140  13.248  11.195   1.699
72103SOL     OW18141   5.959  12.761  14.171
72103SOL    HW118142   5.879  12.755  14.223
72103SOL    HW218143   5.931  12.748  14.081
72104SOL     OW18144  13.507   7.426   2.935
72104SOL    HW118145  13.597   7.428   2.903
72104SOL    HW218146  13.453   7.438   2.857
72105SOL     OW18147   9.209   2.085  13.512
72105SOL    HW118148   9.282   2.036  13.551
72105SOL    HW218149   9.155   2.019  13.470
72106SOL     OW18150   0.800  13.490   8.475
72106SOL    HW118151   0.736  13.465   8.542
72106SOL    HW218152   0.757  13.561   8.427
72107SOL     OW18153   6.692   8.140   0.499
72107SOL    HW118154   6.614   8.160   0.550
72107SOL    HW218155   6.732   8.065   0.543
72108SOL     OW18156   5.179   3.926   4.655
72108SOL    HW118157   5.182   3.852   4.714
72108SOL    HW218158   5.231   3.994   4.698
72109SOL     OW18159   9.172  11.623   3.892
72109SOL    HW118160   9.262  11.653   3.902
72109SOL    HW218161   9.137  11.675   3.819
72110SOL     OW18162   6.106   5.794   0.354
72110SOL    HW118163   6.116   5.723   0.291
72110SOL    HW218164   6.174   5.857   0.330
72111SOL     OW18165   8.139   6.146  12.693
72111SOL    HW118166   8.201   6.144  12.766
72111SOL    HW218167   8.192   6.121  12.617
72112SOL     OW18168  13.690   3.433   2.067
72112SOL    HW118169  13.750   3.359   2.076
72112SOL    HW218170  13.725   3.483   1.993
72113SOL     OW18171   4.804  12.830  11.344
72113SOL    HW118172   4.761  12.770  11.404
72113SOL    HW218173   4.762  12.915  11.360
72114SOL     OW18174   0.940   1.028   0.904
72114SOL    HW118175   0.955   1.020   0.810
72114SOL    HW218176   0.865   0.972   0.921
72115SOL     OW18177   3.381  10.966   8.611
72115SOL    HW118178   3.290  10.970   8.581
72115SOL    HW218179   3.418  11.050   8.587
72116SOL     OW18180  13.128   5.686  11.758
72116SOL    HW118181  13.127   5.597  11.724
72116SOL    HW218182  13.203   5.688  11.818
72117SOL     OW18183   6.542   6.921  10.397
72117SOL    HW118184   6.483   6.849  10.373
72117SOL    HW218185   6.483   6.994  10.417
72118SOL     OW18186   4.249   2.656   2.707
72118SOL    HW118187   4.227   2.719   2.775
72118SOL    HW218188   4.312   2.597   2.748
72119SOL     OW18189   5.843   4.058  11.822
72119SOL    HW118190   5.801   4.085  11.740
72119SOL    HW218191   5.773   4.056  11.886
72120SOL     OW18192  11.420   2.749   0.784
72120SOL    HW118193  11.443   2.806   0.710
72120SOL    HW218194  11.335   2.712   0.760
72121SOL     OW18195   0.711   6.872   4.464
72121SOL    HW118196   0.721   6.791   4.414
72121SOL    HW218197   0.769   6.861   4.539
72122SOL     OW18198   6.149   8.470   5.517
72122SOL    HW118199   6.061   8.478   5.479
72122SOL    HW218200   6.195   8.547   5.484
72123SOL     OW18201  13.385  10.870  11.198
72123SOL    HW118202  13.353  10.782  11.217
72123SOL    HW218203  13.388  10.874  11.102
72124SOL     OW18204  10.468  13.554   2.380
72124SOL    HW118205  10.481  13.645   2.406
72124SOL    HW218206  10.549  13.510   2.407
72125SOL     OW18207  13.356   4.274   6.987
72125SOL    HW118208  13.295   4.245   7.055
72125SOL    HW218209  13.408   4.196   6.966
72126SOL     OW18210   9.017  14.070   5.012
72126SOL    HW118211   9.092  14.037   4.962
72126SOL    HW218212   8.987  13.995   5.063
72127SOL     OW18213   0.733   4.009   5.354
72127SOL    HW118214   0.827   4.024   5.367
72127SOL    HW218215   0.727   3.917   5.327
72128SOL     OW18216   4.274  11.617   0.458
72128SOL    HW118217   4.315  11.566   0.388
72128SOL    HW218218   4.180  11.613   0.439
72129SOL     OW18219   2.549   0.262   9.919
72129SOL    HW118220   2.598   0.284   9.998
72129SOL    HW218221   2.458   0.253   9.948
72130SOL     OW18222  10.661  11.477  11.835
72130SOL    HW118223  10.639  11.529  11.912
72130SOL    HW218224  10.602  11.510  11.767
72131SOL     OW18225   2.754   0.965   5.671
72131SOL    HW118226   2.807   1.039   5.702
72131SOL    HW218227   2.742   0.910   5.748
72132SOL     OW18228   3.587   8.144   8.817
72132SOL    HW118229   3.512   8.205   8.818
72132SOL    HW218230   3.571   8.089   8.741
72133SOL     OW18231  10.239   3.504   1.832
72133SOL    HW118232  10.315   3.542   1.876
72133SOL    HW218233  10.168   3.513   1.895
72134SOL     OW18234   5.602   6.956   9.929
72134SOL    HW118235   5.521   6.953   9.980
72134SOL    HW218236   5.617   6.866   9.902
72135SOL     OW18237   9.246   6.456   5.316
72135SOL    HW118238   9.275   6.424   5.401
72135SOL    HW218239   9.153   6.433   5.312
72136SOL     OW18240   7.248   6.677   0.168
72136SOL    HW118241   7.256   6.608   0.103
72136SOL    HW218242   7.211   6.633   0.245
72137SOL     OW18243   9.021  11.596  12.400
72137SOL    HW118244   9.074  11.675  12.394
72137SOL    HW218245   9.074  11.529  12.356
72138SOL     OW18246   9.620  10.742   0.212
72138SOL    HW118247   9.689  10.777   0.155
72138SOL    HW218248   9.626  10.794   0.292
72139SOL     OW18249  10.338   1.655  11.883
72139SOL    HW118250  10.389   1.734  11.895
72139SOL    HW218251  10.274   1.677  11.815
72140SOL     OW18252  11.516   4.304   5.877
72140SOL    HW118253  11.499   4.378   5.818
72140SOL    HW218254  11.485   4.227   5.830
72141SOL     OW18255   7.275   0.474   7.937
72141SOL    HW118256   7.241   0.489   7.848
72141SOL    HW218257   7.292   0.562   7.971
72142SOL     OW18258   3.037   9.722  11.790
72142SOL    HW118259   2.962   9.781  11.803
72142SOL    HW218260   3.068   9.703  11.878
72143SOL     OW18261   3.268   4.801   6.336
72143SOL    HW118262   3.220   4.718   6.335
72143SOL    HW218263   3.200   4.868   6.327
72144SOL     OW18264   6.461   8.851  13.945
72144SOL    HW118265   6.467   8.760  13.916
72144SOL    HW218266   6.549   8.887  13.928
72145SOL     OW18267  10.461  13.287   5.461
72145SOL    HW118268  10.438  13.256   5.549
72145SOL    HW218269  10.555  13.303   5.465
72146SOL     OW18270   4.345   3.100  10.753
72146SOL    HW118271   4.349   3.066  10.843
72146SOL    HW218272   4.375   3.027  10.699
72147SOL     OW18273   8.968   1.699   5.273
72147SOL    HW118274   8.932   1.764   5.213
72147SOL    HW218275   9.003   1.630   5.215
72148SOL     OW18276   4.882   5.486   4.476
72148SOL    HW118277   4.887   5.504   4.570
72148SOL    HW218278   4.944   5.547   4.437
72149SOL     OW18279  10.692  12.348  12.446
72149SOL    HW118280  10.635  12.332  12.370
72149SOL    HW218281  10.780  12.332  12.413
72150SOL     OW18282   3.972  11.455  11.322
72150SOL    HW118283   4.029  11.520  11.279
72150SOL    HW218284   3.962  11.385  11.258
72151SOL     OW18285  11.479   1.195   4.354
72151SOL    HW118286  11.398   1.176   4.402
72151SOL    HW218287  11.487   1.290   4.357
72152SOL     OW18288   0.739  11.047   3.936
72152SOL    HW118289   0.714  11.126   3.984
72152SOL    HW218290   0.706  10.975   3.990
72153SOL     OW18291   7.688  11.232   0.819
72153SOL    HW118292   7.646  11.224   0.905
72153SOL    HW218293   7.627  11.284   0.767
72154SOL     OW18294   4.000   4.278   6.892
72154SOL    HW118295   4.093   4.263   6.911
72154SOL    HW218296   3.976   4.351   6.950
72155SOL     OW18297  12.609   4.221   1.202
72155SOL    HW118298  12.653   4.184   1.278
72155SOL    HW218299  12.518   4.191   1.209
72156SOL     OW18300   5.580   1.153  12.446
72156SOL    HW118301   5.622   1.216  12.387
72156SOL    HW218302   5.513   1.203  12.491
72157SOL     OW18303   0.947   9.642   1.043
72157SOL    HW118304   1.006   9.657   1.117
72157SOL    HW218305   0.896   9.564   1.068
72158SOL     OW18306   7.820   0.656   6.901
72158SOL    HW118307   7.891   0.623   6.957
72158SOL    HW218308   7.841   0.622   6.814
72159SOL     OW18309   5.776   1.499   3.622
72159SOL    HW118310   5.869   1.508   3.644
72159SOL    HW218311   5.753   1.412   3.654
72160SOL     OW18312  13.721   5.142  13.570
72160SOL    HW118313  13.796   5.123  13.627
72160SOL    HW218314  13.679   5.057  13.558
72161SOL     OW18315   2.668  14.292   2.312
72161SOL    HW118316   2.682  14.362   2.248
72161SOL    HW218317   2.634  14.337   2.390
72162SOL     OW18318   6.247   6.232   8.363
72162SOL    HW118319   6.216   6.317   8.331
72162SOL    HW218320   6.176   6.200   8.419
72163SOL     OW18321   2.306   7.148  10.448
72163SOL    HW118322   2.211   7.163  10.456
72163SOL    HW218323   2.344   7.204  10.515
72164SOL     OW18324   8.734  10.849   3.696
72164SOL    HW118325   8.775  10.775   3.652
72164SOL    HW218326   8.732  10.824   3.788
72165SOL     OW18327   5.378   7.391  10.590
72165SOL    HW118328   5.433   7.351  10.659
72165SOL    HW218329   5.323   7.454  10.637
72166SOL     OW18330   5.212   3.716  13.277
72166SOL    HW118331   5.153   3.645  13.250
72166SOL    HW218332   5.283   3.671  13.324
72167SOL     OW18333   9.623   7.720   6.729
72167SOL    HW118334   9.577   7.803   6.734
72167SOL    HW218335   9.622   7.686   6.819
72168SOL     OW18336   0.312  14.077   4.275
72168SOL    HW118337   0.345  14.025   4.348
72168SOL    HW218338   0.313  14.017   4.200
72169SOL     OW18339  10.542  12.918  11.371
72169SOL    HW118340  10.533  13.011  11.392
72169SOL    HW218341  10.456  12.880  11.393
72170SOL     OW18342  12.397  12.617   0.128
72170SOL    HW118343  12.393  12.673   0.205
72170SOL    HW218344  12.320  12.641   0.076
72171SOL     OW18345   7.547   1.700  11.733
72171SOL    HW118346   7.586   1.653  11.807
72171SOL    HW218347   7.613   1.694  11.664
72172SOL     OW18348  14.352   2.063   4.398
72172SOL    HW118349  14.432   2.044   4.349
72172SOL    HW218350  14.382   2.071   4.489
72173SOL     OW18351   0.339   2.090   6.296
72173SOL    HW118352   0.351   2.119   6.386
72173SOL    HW218353   0.352   1.995   6.299
72174SOL     OW18354   6.651   7.625   0.078
72174SOL    HW118355   6.663   7.572  14.878
72174SOL    HW218356   6.557   7.624   0.094
72175SOL     OW18357   6.157   3.536  12.799
72175SOL    HW118358   6.112   3.462  12.840
72175SOL    HW218359   6.167   3.511  12.708
72176SOL     OW18360  10.126   8.078   0.111
72176SOL    HW118361  10.197   8.093   0.174
72176SOL    HW218362  10.046   8.097   0.161
72177SOL     OW18363   0.924   3.590   1.881
72177SOL    HW118364   0.859   3.540   1.832
72177SOL    HW218365   0.903   3.682   1.862
72178SOL     OW18366   7.263  14.502  11.487
72178SOL    HW118367   7.174  14.470  11.502
72178SOL    HW218368   7.310  14.478  11.567
72179SOL     OW18369   7.046  12.306  11.925
72179SOL    HW118370   7.072  12.341  11.840
72179SOL    HW218371   7.110  12.341  11.987
72180SOL     OW18372   2.076   2.863  14.376
72180SOL    HW118373   2.096   2.861  14.283
72180SOL    HW218374   2.136   2.928  14.413
72181SOL     OW18375   3.544   2.184   8.520
72181SOL    HW118376   3.456   2.212   8.498
72181SOL    HW218377   3.592   2.185   8.437
72182SOL     OW18378  13.692  12.727   9.117
72182SOL    HW118379  13.765  12.669   9.137
72182SOL    HW218380  13.690  12.789   9.190
72183SOL     OW18381  13.854  11.248  12.570
72183SOL    HW118382  13.782  11.300  12.607
72183SOL    HW218383  13.832  11.157  12.593
72184SOL     OW18384  11.399   7.272  10.547
72184SOL    HW118385  11.411   7.364  10.571
72184SOL    HW218386  11.321   7.245  10.595
72185SOL     OW18387  10.045  12.597  12.226
72185SOL    HW118388   9.955  12.567  12.230
72185SOL    HW218389  10.091  12.546  12.292
72186SOL     OW18390   2.130   4.491  10.875
72186SOL    HW118391   2.222   4.517  10.871
72186SOL    HW218392   2.089   4.531  10.799
72187SOL     OW18393   6.776   9.401  10.207
72187SOL    HW118394   6.783   9.451  10.288
72187SOL    HW218395   6.807   9.313  10.231
72188SOL     OW18396   6.735  12.070  12.813
72188SOL    HW118397   6.784  12.028  12.884
72188SOL    HW218398   6.711  12.156  12.848
72189SOL     OW18399  13.349  10.874   6.513
72189SOL    HW118400  13.303  10.842   6.436
72189SOL    HW218401  13.346  10.969   6.505
72190SOL     OW18402   5.166   4.554  11.844
72190SOL    HW118403   5.177   4.639  11.887
72190SOL    HW218404   5.229   4.497  11.888
72191SOL     OW18405   0.211   4.071   1.454
72191SOL    HW118406   0.275   4.117   1.509
72191SOL    HW218407   0.230   3.978   1.468
72192SOL     OW18408   7.199   8.691   9.433
72192SOL    HW118409   7.147   8.623   9.476
72192SOL    HW218410   7.236   8.742   9.504
72193SOL     OW18411   5.968   4.227  13.254
72193SOL    HW118412   5.889   4.244  13.305
72193SOL    HW218413   5.990   4.136  13.273
72194SOL     OW18414   4.767  12.200  13.147
72194SOL    HW118415   4.755  12.105  13.140
72194SOL    HW218416   4.856  12.210  13.181
72195SOL     OW18417   3.190  13.848  11.171
72195SOL    HW118418   3.178  13.919  11.234
72195SOL    HW218419   3.221  13.775  11.223
72196SOL     OW18420   8.826   5.858   9.180
72196SOL    HW118421   8.815   5.816   9.094
72196SOL    HW218422   8.762   5.930   9.179
72197SOL     OW18423   6.318   5.870   5.573
72197SOL    HW118424   6.290   5.956   5.543
72197SOL    HW218425   6.390   5.888   5.634
72198SOL     OW18426   0.181  14.455   0.959
72198SOL    HW118427   0.179  14.546   0.930
72198SOL    HW218428   0.139  14.457   1.045
72199SOL     OW18429   3.085   4.350   4.966
72199SOL    HW118430   3.149   4.412   5.003
72199SOL    HW218431   3.135   4.272   4.947
72200SOL     OW18432  10.594   5.180   7.597
72200SOL    HW118433  10.680   5.204   7.563
72200SOL    HW218434  10.607   5.176   7.692
72201SOL     OW18435   7.899   1.591   3.414
72201SOL    HW118436   7.821   1.583   3.360
72201SOL    HW218437   7.877   1.659   3.478
72202SOL     OW18438  11.902   0.344   3.316
72202SOL    HW118439  11.858   0.341   3.401
72202SOL    HW218440  11.970   0.411   3.327
72203SOL     OW18441   2.115   1.809   4.542
72203SOL    HW118442   2.134   1.885   4.598
72203SOL    HW218443   2.019   1.809   4.534
72204SOL     OW18444  13.409   0.858   0.484
72204SOL    HW118445  13.376   0.895   0.402
72204SOL    HW218446  13.372   0.771   0.488
72205SOL     OW18447   9.260  10.144  10.026
72205SOL    HW118448   9.310  10.175  10.102
72205SOL    HW218449   9.181  10.105  10.063
72206SOL     OW18450   6.625  11.462   1.183
72206SOL    HW118451   6.718  11.483   1.195
72206SOL    HW218452   6.582  11.502   1.259
72207SOL     OW18453   1.881   2.012  12.866
72207SOL    HW118454   1.791   1.983  12.876
72207SOL    HW218455   1.912   2.024  12.956
72208SOL     OW18456   9.361  12.340  12.052
72208SOL    HW118457   9.337  12.251  12.075
72208SOL    HW218458   9.317  12.395  12.117
72209SOL     OW18459   8.364   0.770   0.971
72209SOL    HW118460   8.300   0.777   0.900
72209SOL    HW218461   8.415   0.852   0.966
72210SOL     OW18462   2.270  10.764  13.238
72210SOL    HW118463   2.210  10.699  13.273
72210SOL    HW218464   2.301  10.812  13.316
72211SOL     OW18465  13.047  13.437   3.774
72211SOL    HW118466  13.105  13.475   3.840
72211SOL    HW218467  12.999  13.368   3.821
72212SOL     OW18468  10.759   3.238  10.657
72212SOL    HW118469  10.672   3.274  10.640
72212SOL    HW218470  10.781   3.269  10.744
72213SOL     OW18471   7.944  11.970   6.383
72213SOL    HW118472   7.969  12.002   6.470
72213SOL    HW218473   8.021  11.921   6.353
72214SOL     OW18474   8.337   3.844  12.288
72214SOL    HW118475   8.342   3.938  12.273
72214SOL    HW218476   8.293   3.809  12.210
72215SOL     OW18477   7.384   3.706   9.183
72215SOL    HW118478   7.354   3.618   9.203
72215SOL    HW218479   7.317   3.742   9.125
72216SOL     OW18480   3.834   9.032   1.177
72216SOL    HW118481   3.881   9.088   1.116
72216SOL    HW218482   3.816   8.952   1.128
72217SOL     OW18483   9.304   7.849   8.673
72217SOL    HW118484   9.289   7.782   8.740
72217SOL    HW218485   9.295   7.932   8.719
72218SOL     OW18486  10.092   2.583  11.941
72218SOL    HW118487  10.118   2.556  12.029
72218SOL    HW218488  10.122   2.512  11.884
72219SOL     OW18489  11.017  11.919   7.844
72219SOL    HW118490  10.946  11.952   7.899
72219SOL    HW218491  10.985  11.835   7.812
72220SOL     OW18492   9.770   5.954   3.403
72220SOL    HW118493   9.730   5.868   3.386
72220SOL    HW218494   9.808   5.979   3.319
72221SOL     OW18495  13.813   3.807   4.736
72221SOL    HW118496  13.808   3.842   4.647
72221SOL    HW218497  13.832   3.714   4.725
72222SOL     OW18498   0.337   3.812   3.407
72222SOL    HW118499   0.374   3.747   3.347
72222SOL    HW218500   0.409   3.830   3.468
72223SOL     OW18501   2.986   5.586   5.560
72223SOL    HW118502   3.048   5.641   5.512
72223SOL    HW218503   2.903   5.597   5.514
72224SOL     OW18504   1.556  14.292   1.533
72224SOL    HW118505   1.615  14.220   1.510
72224SOL    HW218506   1.536  14.278   1.626
72225SOL     OW18507   0.901  11.619  14.255
72225SOL    HW118508   0.878  11.710  14.238
72225SOL    HW218509   0.996  11.615  14.238
72226SOL     OW18510   5.048  12.712   6.068
72226SOL    HW118511   5.028  12.804   6.047
72226SOL    HW218512   4.968  12.680   6.109
72227SOL     OW18513   2.086  10.286  10.299
72227SOL    HW118514   2.047  10.200  10.316
72227SOL    HW218515   2.170  10.284  10.345
72228SOL     OW18516  12.778   6.939  10.302
72228SOL    HW118517  12.729   6.857  10.302
72228SOL    HW218518  12.816   6.943  10.390
72229SOL     OW18519   1.005   9.581  11.015
72229SOL    HW118520   1.081   9.632  10.988
72229SOL    HW218521   0.941   9.596  10.945
72230SOL     OW18522   4.265  14.211   2.590
72230SOL    HW118523   4.208  14.137   2.572
72230SOL    HW218524   4.294  14.241   2.504
72231SOL     OW18525   4.275  10.310   2.520
72231SOL    HW118526   4.214  10.324   2.592
72231SOL    HW218527   4.350  10.365   2.541
72232SOL     OW18528   3.450   1.288   2.082
72232SOL    HW118529   3.411   1.298   2.168
72232SOL    HW218530   3.497   1.205   2.085
72233SOL     OW18531   6.073  11.103   8.129
72233SOL    HW118532   6.079  11.064   8.042
72233SOL    HW218533   6.145  11.166   8.132
72234SOL     OW18534  12.180  10.280  10.380
72234SOL    HW118535  12.134  10.269  10.296
72234SOL    HW218536  12.117  10.327  10.435
72235SOL     OW18537   0.844  13.366   9.412
72235SOL    HW118538   0.772  13.428   9.401
72235SOL    HW218539   0.803  13.280   9.403
72236SOL     OW18540   6.099   1.456  12.179
72236SOL    HW118541   6.193   1.439  12.189
72236SOL    HW218542   6.087   1.471  12.086
72237SOL     OW18543   4.834   1.184   9.742
72237SOL    HW118544   4.765   1.119   9.752
72237SOL    HW218545   4.896   1.163   9.812
72238SOL     OW18546  14.033   5.913   6.742
72238SOL    HW118547  14.064   5.849   6.679
72238SOL    HW218548  14.107   5.926   6.801
72239SOL     OW18549   9.645   3.105  12.416
72239SOL    HW118550   9.614   3.153  12.339
72239SOL    HW218551   9.642   3.169  12.487
72240SOL     OW18552  14.440   8.712   7.607
72240SOL    HW118553  14.499   8.760   7.549
72240SOL    HW218554  14.476   8.623   7.610
72241SOL     OW18555   4.830  12.271   5.156
72241SOL    HW118556   4.823  12.216   5.078
72241SOL    HW218557   4.924  12.287   5.166
72242SOL     OW18558   1.633   5.785  13.181
72242SOL    HW118559   1.591   5.869  13.200
72242SOL    HW218560   1.613   5.731  13.257
72243SOL     OW18561   2.405  12.517   5.634
72243SOL    HW118562   2.461  12.576   5.686
72243SOL    HW218563   2.466  12.462   5.586
72244SOL     OW18564   7.347  12.295   6.596
72244SOL    HW118565   7.364  12.283   6.503
72244SOL    HW218566   7.347  12.206   6.632
72245SOL     OW18567   8.232  13.867   9.000
72245SOL    HW118568   8.228  13.804   8.928
72245SOL    HW218569   8.283  13.822   9.068
72246SOL     OW18570   6.190   9.375   4.321
72246SOL    HW118571   6.236   9.297   4.290
72246SOL    HW218572   6.108   9.377   4.271
72247SOL     OW18573  11.183  12.776   8.156
72247SOL    HW118574  11.089  12.758   8.144
72247SOL    HW218575  11.216  12.699   8.204
72248SOL     OW18576   2.467   6.857   8.443
72248SOL    HW118577   2.423   6.941   8.453
72248SOL    HW218578   2.456   6.835   8.351
72249SOL     OW18579  14.036  12.095   7.090
72249SOL    HW118580  13.990  12.027   7.041
72249SOL    HW218581  13.983  12.108   7.168
72250SOL     OW18582  11.331  11.439   5.801
72250SOL    HW118583  11.305  11.529   5.819
72250SOL    HW218584  11.425  11.437   5.819
72251SOL     OW18585   4.295  12.631  10.764
72251SOL    HW118586   4.315  12.625  10.858
72251SOL    HW218587   4.200  12.629  10.759
72252SOL     OW18588   3.625   7.409  13.823
72252SOL    HW118589   3.696   7.452  13.775
72252SOL    HW218590   3.599   7.335  13.768
72253SOL     OW18591   8.734   1.466   2.634
72253SOL    HW118592   8.814   1.513   2.612
72253SOL    HW218593   8.762   1.378   2.657
72254SOL     OW18594  13.973   4.719  12.465
72254SOL    HW118595  13.892   4.675  12.439
72254SOL    HW218596  14.025   4.723  12.384
72255SOL     OW18597  14.041   3.451   4.167
72255SOL    HW118598  13.981   3.521   4.142
72255SOL    HW218599  14.121   3.496   4.194
72256SOL     OW18600  13.350   2.209   2.428
72256SOL    HW118601  13.256   2.226   2.432
72256SOL    HW218602  13.365   2.140   2.493
72257SOL     OW18603   9.627   9.141   4.015
72257SOL    HW118604   9.579   9.213   4.056
72257SOL    HW218605   9.572   9.064   4.029
72258SOL     OW18606   0.617  10.392  11.757
72258SOL    HW118607   0.530  10.422  11.780
72258SOL    HW218608   0.658  10.466  11.712
72259SOL     OW18609   4.242   7.258  11.304
72259SOL    HW118610   4.277   7.289  11.220
72259SOL    HW218611   4.178   7.190  11.280
72260SOL     OW18612   9.680  12.087  11.890
72260SOL    HW118613   9.622  12.086  11.966
72260SOL    HW218614   9.762  12.123  11.923
72261SOL     OW18615   8.170   2.596  13.671
72261SOL    HW118616   8.116   2.626  13.598
72261SOL    HW218617   8.141   2.650  13.745
72262SOL     OW18618   7.206   7.481   4.094
72262SOL    HW118619   7.183   7.569   4.065
72262SOL    HW218620   7.127   7.429   4.077
72263SOL     OW18621   6.447  13.966   5.259
72263SOL    HW118622   6.381  13.897   5.260
72263SOL    HW218623   6.432  14.014   5.341
72264SOL     OW18624   5.217   7.060   0.060
72264SOL    HW118625   5.142   7.065   0.118
72264SOL    HW218626   5.183   7.085  14.853
72265SOL     OW18627  13.273   0.755  12.487
72265SOL    HW118628  13.250   0.839  12.527
72265SOL    HW218629  13.207   0.742  12.419
72266SOL     OW18630   1.470  10.775  14.414
72266SOL    HW118631   1.403  10.726  14.462
72266SOL    HW218632   1.551  10.758  14.462
72267SOL     OW18633   4.469   0.899   2.057
72267SOL    HW118634   4.526   0.919   2.132
72267SOL    HW218635   4.449   0.806   2.067
72268SOL     OW18636   3.624   2.409   5.355
72268SOL    HW118637   3.535   2.429   5.384
72268SOL    HW218638   3.671   2.390   5.436
72269SOL     OW18639   6.846   2.035   2.241
72269SOL    HW118640   6.767   1.986   2.218
72269SOL    HW218641   6.830   2.124   2.207
72270SOL     OW18642  11.502   6.910  11.588
72270SOL    HW118643  11.540   6.823  11.601
72270SOL    HW218644  11.408   6.898  11.603
72271SOL     OW18645   0.671   4.265  11.270
72271SOL    HW118646   0.708   4.199  11.211
72271SOL    HW218647   0.576   4.252  11.263
72272SOL     OW18648   1.354  12.844   0.625
72272SOL    HW118649   1.309  12.910   0.571
72272SOL    HW218650   1.293  12.771   0.630
72273SOL     OW18651   2.456   9.923  12.972
72273SOL    HW118652   2.412   9.924  12.887
72273SOL    HW218653   2.534   9.870  12.959
72274SOL     OW18654  13.966   6.721  13.463
72274SOL    HW118655  13.918   6.747  13.542
72274SOL    HW218656  13.938   6.783  13.396
72275SOL     OW18657   7.344   5.903   9.368
72275SOL    HW118658   7.340   5.910   9.273
72275SOL    HW218659   7.437   5.887   9.387
72276SOL     OW18660   4.102   4.871   9.032
72276SOL    HW118661   4.039   4.938   9.006
72276SOL    HW218662   4.056   4.820   9.099
72277SOL     OW18663   2.649   1.267   1.339
72277SOL    HW118664   2.681   1.266   1.249
72277SOL    HW218665   2.656   1.176   1.368
72278SOL     OW18666   7.919  13.740   6.939
72278SOL    HW118667   7.875  13.701   6.863
72278SOL    HW218668   7.981  13.802   6.902
72279SOL     OW18669  13.117   4.909  12.321
72279SOL    HW118670  13.081   4.872  12.402
72279SOL    HW218671  13.056   4.880  12.253
72280SOL     OW18672   4.911  11.693   7.329
72280SOL    HW118673   4.952  11.754   7.390
72280SOL    HW218674   4.871  11.627   7.385
72281SOL     OW18675  13.930   6.458   6.124
72281SOL    HW118676  13.942   6.494   6.036
72281SOL    HW218677  14.017   6.460   6.163
72282SOL     OW18678   6.169   0.881   4.189
72282SOL    HW118679   6.254   0.918   4.216
72282SOL    HW218680   6.185   0.787   4.183
72283SOL     OW18681  14.523  14.358   0.991
72283SOL    HW118682  14.566  14.441   1.012
72283SOL    HW218683  14.580  14.291   1.028
72284SOL     OW18684  13.667  10.167  10.224
72284SOL    HW118685  13.617  10.153  10.143
72284SOL    HW218686  13.603  10.201  10.286
72285SOL     OW18687   9.068   9.038   2.984
72285SOL    HW118688   8.983   9.061   2.948
72285SOL    HW218689   9.131   9.070   2.920
72286SOL     OW18690   5.433   2.661   4.202
72286SOL    HW118691   5.394   2.623   4.281
72286SOL    HW218692   5.498   2.723   4.236
72287SOL     OW18693  12.048   4.062   6.203
72287SOL    HW118694  12.022   3.976   6.237
72287SOL    HW218695  12.019   4.061   6.112
72288SOL     OW18696   5.907  11.729  14.200
72288SOL    HW118697   5.829  11.689  14.238
72288SOL    HW218698   5.960  11.756  14.275
72289SOL     OW18699   7.233  14.067   0.183
72289SOL    HW118700   7.273  14.023   0.108
72289SOL    HW218701   7.176  14.001   0.222
72290SOL     OW18702   8.761   3.059  14.029
72290SOL    HW118703   8.703   3.027  14.099
72290SOL    HW218704   8.716   3.036  13.948
72291SOL     OW18705  10.689   6.397  11.479
72291SOL    HW118706  10.658   6.393  11.569
72291SOL    HW218707  10.773   6.349  11.480
72292SOL     OW18708  12.077  11.366   9.576
72292SOL    HW118709  12.104  11.449   9.616
72292SOL    HW218710  11.996  11.343   9.620
72293SOL     OW18711   8.333   0.566  10.026
72293SOL    HW118712   8.268   0.564  10.095
72293SOL    HW218713   8.282   0.565   9.945
72294SOL     OW18714   3.133   1.103   4.227
72294SOL    HW118715   3.107   1.037   4.163
72294SOL    HW218716   3.131   1.056   4.311
72295SOL     OW18717  10.733   2.029   8.932
72295SOL    HW118718  10.756   1.977   8.856
72295SOL    HW218719  10.691   2.107   8.897
72296SOL     OW18720   2.150   3.086   1.691
72296SOL    HW118721   2.062   3.070   1.724
72296SOL    HW218722   2.184   3.156   1.747
72297SOL     OW18723   4.217   0.864   8.689
72297SOL    HW118724   4.261   0.886   8.607
72297SOL    HW218725   4.124   0.875   8.670
72298SOL     OW18726   9.695   1.424  11.009
72298SOL    HW118727   9.723   1.423  10.918
72298SOL    HW218728   9.754   1.486  11.052
72299SOL     OW18729   1.099  13.899   3.101
72299SOL    HW118730   1.079  13.992   3.087
72299SOL    HW218731   1.155  13.874   3.028
72300SOL     OW18732   3.085  13.930   9.267
72300SOL    HW118733   3.012  13.881   9.305
72300SOL    HW218734   3.122  13.870   9.202
72301SOL     OW18735   6.012  12.821   2.585
72301SOL    HW118736   5.927  12.793   2.550
72301SOL    HW218737   6.029  12.760   2.657
72302SOL     OW18738   0.313   9.834  12.338
72302SOL    HW118739   0.314   9.875  12.425
72302SOL    HW218740   0.392   9.867  12.295
72303SOL     OW18741   4.358   1.096   6.925
72303SOL    HW118742   4.354   1.124   7.017
72303SOL    HW218743   4.307   1.161   6.877
72304SOL     OW18744   6.286   6.288   3.312
72304SOL    HW118745   6.193   6.269   3.295
72304SOL    HW218746   6.289   6.382   3.327
72305SOL     OW18747   4.737   6.001  10.100
72305SOL    HW118748   4.781   6.083  10.125
72305SOL    HW218749   4.653   6.005  10.145
72306SOL     OW18750  13.463   9.715   7.683
72306SOL    HW118751  13.395   9.669   7.633
72306SOL    HW218752  13.509   9.768   7.618
72307SOL     OW18753   5.169  14.594  10.521
72307SOL    HW118754   5.159  14.537  10.597
72307SOL    HW218755   5.182  14.681  10.558
72308SOL     OW18756  13.223   7.563   7.909
72308SOL    HW118757  13.234   7.544   7.816
72308SOL    HW218758  13.313   7.568   7.943
72309SOL     OW18759  11.598   8.869   5.558
72309SOL    HW118760  11.576   8.846   5.468
72309SOL    HW218761  11.649   8.795   5.590
72310SOL     OW18762   1.117  10.997   1.660
72310SOL    HW118763   1.024  10.974   1.660
72310SOL    HW218764   1.125  11.068   1.723
72311SOL     OW18765  14.143   7.310   4.439
72311SOL    HW118766  14.194   7.364   4.500
72311SOL    HW218767  14.064   7.361   4.422
72312SOL     OW18768  14.766  13.160   2.212
72312SOL    HW118769  14.825  13.129   2.145
72312SOL    HW218770  14.714  13.084   2.237
72313SOL     OW18771   5.292   4.112   2.253
72313SOL    HW118772   5.310   4.018   2.262
72313SOL    HW218773   5.378   4.153   2.257
72314SOL     OW18774   5.272   8.210   2.732
72314SOL    HW118775   5.341   8.244   2.790
72314SOL    HW218776   5.319   8.182   2.653
72315SOL     OW18777   6.067  10.752  14.236
72315SOL    HW118778   6.106  10.689  14.297
72315SOL    HW218779   5.973  10.730  14.236
72316SOL     OW18780   5.088   3.083  11.052
72316SOL    HW118781   5.000   3.073  11.015
72316SOL    HW218782   5.076   3.142  11.126
72317SOL     OW18783   5.194   4.693   9.213
72317SOL    HW118784   5.192   4.623   9.278
72317SOL    HW218785   5.191   4.774   9.264
72318SOL     OW18786  13.014   8.479  13.284
72318SOL    HW118787  13.003   8.386  13.268
72318SOL    HW218788  12.969   8.496  13.367
72319SOL     OW18789   8.167   6.761  10.688
72319SOL    HW118790   8.221   6.719  10.755
72319SOL    HW218791   8.117   6.827  10.736
72320SOL     OW18792  13.135   0.770   7.021
72320SOL    HW118793  13.190   0.720   7.081
72320SOL    HW218794  13.164   0.743   6.934
72321SOL     OW18795  13.089   1.058  11.326
72321SOL    HW118796  13.117   1.149  11.338
72321SOL    HW218797  13.171   1.008  11.326
72322SOL     OW18798   5.114   4.374   3.882
72322SOL    HW118799   5.071   4.298   3.922
72322SOL    HW218800   5.207   4.349   3.877
72323SOL     OW18801   6.553   3.522   7.181
72323SOL    HW118802   6.624   3.573   7.219
72323SOL    HW218803   6.596   3.457   7.127
72324SOL     OW18804   5.353   3.136   5.389
72324SOL    HW118805   5.423   3.095   5.439
72324SOL    HW218806   5.272   3.108   5.432
72325SOL     OW18807   3.243   6.148   3.157
72325SOL    HW118808   3.298   6.207   3.105
72325SOL    HW218809   3.154   6.179   3.142
72326SOL     OW18810   6.521   6.937  11.412
72326SOL    HW118811   6.509   7.029  11.390
72326SOL    HW218812   6.434   6.899  11.406
72327SOL     OW18813   2.541  10.912  13.086
72327SOL    HW118814   2.480  10.968  13.134
72327SOL    HW218815   2.612  10.895  13.149
72328SOL     OW18816  13.122  13.869   7.933
72328SOL    HW118817  13.165  13.954   7.933
72328SOL    HW218818  13.191  13.808   7.961
72329SOL     OW18819   2.467   6.037  13.314
72329SOL    HW118820   2.450   6.061  13.405
72329SOL    HW218821   2.426   6.107  13.263
72330SOL     OW18822   6.115  12.297  11.985
72330SOL    HW118823   6.068  12.250  12.053
72330SOL    HW218824   6.069  12.381  11.978
72331SOL     OW18825  10.094   2.146   6.957
72331SOL    HW118826  10.067   2.063   6.996
72331SOL    HW218827  10.120   2.200   7.032
72332SOL     OW18828   9.309   5.170   3.346
72332SOL    HW118829   9.251   5.238   3.312
72332SOL    HW218830   9.375   5.218   3.396
72333SOL     OW18831  14.298   9.358   4.355
72333SOL    HW118832  14.379   9.393   4.319
72333SOL    HW218833  14.320   9.271   4.386
72334SOL     OW18834  11.744   3.458   7.917
72334SOL    HW118835  11.715   3.475   7.828
72334SOL    HW218836  11.696   3.380   7.944
72335SOL     OW18837   8.819   7.910   2.934
72335SOL    HW118838   8.817   7.896   3.029
72335SOL    HW218839   8.832   7.823   2.897
72336SOL     OW18840   0.705  14.706  11.463
72336SOL    HW118841   0.627  14.760  11.468
72336SOL    HW218842   0.687  14.644  11.391
72337SOL     OW18843  12.893   0.988   1.933
72337SOL    HW118844  12.828   1.039   1.982
72337SOL    HW218845  12.912   0.914   1.990
72338SOL     OW18846   0.863  14.286   6.074
72338SOL    HW118847   0.771  14.304   6.095
72338SOL    HW218848   0.893  14.230   6.146
72339SOL     OW18849   4.448   6.683   6.721
72339SOL    HW118850   4.403   6.703   6.639
72339SOL    HW218851   4.418   6.752   6.781
72340SOL     OW18852   1.306   1.777   3.363
72340SOL    HW118853   1.272   1.866   3.356
72340SOL    HW218854   1.280   1.735   3.281
72341SOL     OW18855   6.798   8.470  14.356
72341SOL    HW118856   6.785   8.454  14.263
72341SOL    HW218857   6.783   8.385  14.397
72342SOL     OW18858   8.582   9.326   2.677
72342SOL    HW118859   8.491   9.334   2.650
72342SOL    HW218860   8.588   9.239   2.716
72343SOL     OW18861   5.171  13.286  12.109
72343SOL    HW118862   5.232  13.267  12.038
72343SOL    HW218863   5.106  13.215  12.104
72344SOL     OW18864   6.105   0.482  11.258
72344SOL    HW118865   6.066   0.541  11.193
72344SOL    HW218866   6.082   0.394  11.227
72345SOL     OW18867  13.561   6.728  12.174
72345SOL    HW118868  13.497   6.795  12.196
72345SOL    HW218869  13.526   6.648  12.211
72346SOL     OW18870   2.872  14.506  11.312
72346SOL    HW118871   2.794  14.561  11.300
72346SOL    HW218872   2.944  14.559  11.276
72347SOL     OW18873   5.313  13.969   3.370
72347SOL    HW118874   5.239  13.925   3.410
72347SOL    HW218875   5.367  13.898   3.334
72348SOL     OW18876   8.657  14.228   3.125
72348SOL    HW118877   8.705  14.224   3.208
72348SOL    HW218878   8.574  14.270   3.149
72349SOL     OW18879   6.709  12.967   4.152
72349SOL    HW118880   6.783  12.921   4.191
72349SOL    HW218881   6.657  12.898   4.111
72350SOL     OW18882   8.491   1.523   1.934
72350SOL    HW118883   8.490   1.484   2.021
72350SOL    HW218884   8.505   1.616   1.950
72351SOL     OW18885   0.287  10.399  10.022
72351SOL    HW118886   0.274  10.494  10.020
72351SOL    HW218887   0.222  10.364   9.961
72352SOL     OW18888   1.552   9.512   0.635
72352SOL    HW118889   1.604   9.511   0.715
72352SOL    HW218890   1.486   9.443   0.649
72353SOL     OW18891  10.256   8.730   5.455
72353SOL    HW118892  10.350   8.739   5.468
72353SOL    HW218893  10.217   8.759   5.537
72354SOL     OW18894  14.424   6.277   1.991
72354SOL    HW118895  14.372   6.336   2.046
72354SOL    HW218896  14.377   6.273   1.908
72355SOL     OW18897   6.921   7.800   7.181
72355SOL    HW118898   7.008   7.820   7.214
72355SOL    HW218899   6.913   7.851   7.100
72356SOL     OW18900   1.216   4.002   8.321
72356SOL    HW118901   1.150   4.006   8.252
72356SOL    HW218902   1.204   4.083   8.371
72357SOL     OW18903   7.210   3.652  10.780
72357SOL    HW118904   7.286   3.706  10.803
72357SOL    HW218905   7.231   3.617  10.693
72358SOL     OW18906   9.356   8.612   1.339
72358SOL    HW118907   9.426   8.555   1.372
72358SOL    HW218908   9.402   8.690   1.309
72359SOL     OW18909   4.915   5.606  13.470
72359SOL    HW118910   4.983   5.544  13.496
72359SOL    HW218911   4.959   5.665  13.408
72360SOL     OW18912   2.258  12.134   5.250
72360SOL    HW118913   2.211  12.127   5.167
72360SOL    HW218914   2.194  12.170   5.311
72361SOL     OW18915  11.341   1.881   8.179
72361SOL    HW118916  11.403   1.917   8.243
72361SOL    HW218917  11.341   1.787   8.195
72362SOL     OW18918   2.474   6.836  12.031
72362SOL    HW118919   2.447   6.923  12.061
72362SOL    HW218920   2.426   6.775  12.087
72363SOL     OW18921  10.494   9.412   7.867
72363SOL    HW118922  10.538   9.328   7.884
72363SOL    HW218923  10.553   9.458   7.807
72364SOL     OW18924   4.513   8.452  11.491
72364SOL    HW118925   4.485   8.360  11.498
72364SOL    HW218926   4.608   8.448  11.492
72365SOL     OW18927   9.129   2.688  11.692
72365SOL    HW118928   9.038   2.662  11.685
72365SOL    HW218929   9.179   2.610  11.667
72366SOL     OW18930   2.837   8.173   0.585
72366SOL    HW118931   2.755   8.130   0.560
72366SOL    HW218932   2.834   8.175   0.681
72367SOL     OW18933  14.021   4.979   6.003
72367SOL    HW118934  14.026   5.074   5.993
72367SOL    HW218935  13.984   4.966   6.090
72368SOL     OW18936  14.857   0.117   4.571
72368SOL    HW118937   0.004   0.025   4.577
72368SOL    HW218938  14.762   0.114   4.563
72369SOL     OW18939  14.438  13.174   1.301
72369SOL    HW118940  14.457  13.198   1.392
72369SOL    HW218941  14.385  13.094   1.309
72370SOL     OW18942  13.171   7.827  13.867
72370SOL    HW118943  13.173   7.752  13.927
72370SOL    HW218944  13.257   7.825  13.824
72371SOL     OW18945   1.350  14.874  12.221
72371SOL    HW118946   1.330  14.857  12.128
72371SOL    HW218947   1.298  14.809  12.268
72372SOL     OW18948  13.847   8.725   9.382
72372SOL    HW118949  13.759   8.688   9.389
72372SOL    HW218950  13.840   8.812   9.421
72373SOL     OW18951  13.052   2.276  10.876
72373SOL    HW118952  12.987   2.344  10.859
72373SOL    HW218953  13.134   2.323  10.890
72374SOL     OW18954   4.488   3.769  14.539
72374SOL    HW118955   4.546   3.700  14.571
72374SOL    HW218956   4.515   3.847  14.587
72375SOL     OW18957   6.786   9.935   6.573
72375SOL    HW118958   6.782  10.026   6.543
72375SOL    HW218959   6.695   9.907   6.579
72376SOL     OW18960   9.289   4.526   8.393
72376SOL    HW118961   9.324   4.494   8.310
72376SOL    HW218962   9.292   4.622   8.385
72377SOL     OW18963   5.751  13.068   6.286
72377SOL    HW118964   5.773  12.976   6.277
72377SOL    HW218965   5.824  13.106   6.336
72378SOL     OW18966  10.110   0.330   1.733
72378SOL    HW118967  10.079   0.240   1.722
72378SOL    HW218968  10.133   0.335   1.826
72379SOL     OW18969   5.949   3.469  10.302
72379SOL    HW118970   5.997   3.527  10.360
72379SOL    HW218971   6.015   3.437  10.240
72380SOL     OW18972  10.243   8.227   3.773
72380SOL    HW118973  10.164   8.279   3.758
72380SOL    HW218974  10.213   8.153   3.826
72381SOL     OW18975  12.235  12.714   0.558
72381SOL    HW118976  12.164  12.651   0.551
72381SOL    HW218977  12.191  12.799   0.559
72382SOL     OW18978  11.240   9.720   7.461
72382SOL    HW118979  11.215   9.702   7.370
72382SOL    HW218980  11.273   9.810   7.460
72383SOL     OW18981   8.988   7.863   2.535
72383SOL    HW118982   9.027   7.827   2.615
72383SOL    HW218983   8.894   7.865   2.554
72384SOL     OW18984  13.267   7.233   9.441
72384SOL    HW118985  13.183   7.197   9.470
72384SOL    HW218986  13.257   7.328   9.450
72385SOL     OW18987  12.131   9.363  10.706
72385SOL    HW118988  12.155   9.422  10.635
72385SOL    HW218989  12.118   9.278  10.662
72386SOL     OW18990   0.533  14.792   5.123
72386SOL    HW118991   0.483  14.872   5.115
72386SOL    HW218992   0.595  14.794   5.050
72387SOL     OW18993   0.205   1.578   1.462
72387SOL    HW118994   0.244   1.574   1.549
72387SOL    HW218995   0.221   1.492   1.424
72388SOL     OW18996   0.238  11.330  10.249
72388SOL    HW118997   0.146  11.316  10.224
72388SOL    HW218998   0.257  11.419  10.220
72389SOL     OW18999  11.243  13.411   7.311
72389SOL    HW119000  11.174  13.468   7.343
72389SOL    HW219001  11.297  13.394   7.388
72390SOL     OW19002   0.173   2.276   9.735
72390SOL    HW119003   0.235   2.204   9.750
72390SOL    HW219004   0.179   2.329   9.816
72391SOL     OW19005  12.746   7.787   5.539
72391SOL    HW119006  12.798   7.861   5.507
72391SOL    HW219007  12.779   7.772   5.628
72392SOL     OW19008   0.675   2.008   0.431
72392SOL    HW119009   0.752   1.960   0.462
72392SOL    HW219010   0.608   1.992   0.497
72393SOL     OW19011   7.042  11.605  13.362
72393SOL    HW119012   7.028  11.510  13.352
72393SOL    HW219013   7.070  11.616  13.453
72394SOL     OW19014  10.266   5.427   3.745
72394SOL    HW119015  10.183   5.385   3.723
72394SOL    HW219016  10.244   5.518   3.761
72395SOL     OW19017  13.744   1.191   7.342
72395SOL    HW119018  13.672   1.176   7.404
72395SOL    HW219019  13.708   1.167   7.257
72396SOL     OW19020  12.737  14.558   5.304
72396SOL    HW119021  12.670  14.581   5.369
72396SOL    HW219022  12.716  14.468   5.279
72397SOL     OW19023  12.185   7.046   8.194
72397SOL    HW119024  12.144   7.020   8.277
72397SOL    HW219025  12.265   7.092   8.220
72398SOL     OW19026  13.946  10.627   0.478
72398SOL    HW119027  14.025  10.681   0.483
72398SOL    HW219028  13.874  10.689   0.485
72399SOL     OW19029   8.081   6.368   4.249
72399SOL    HW119030   7.993   6.357   4.211
72399SOL    HW219031   8.081   6.312   4.326
72400SOL     OW19032  12.971   5.524  14.823
72400SOL    HW119033  13.023   5.590  14.868
72400SOL    HW219034  12.906   5.574  14.774
72401SOL     OW19035   7.225  13.572   2.312
72401SOL    HW119036   7.281  13.496   2.300
72401SOL    HW219037   7.198  13.569   2.403
72402SOL     OW19038  13.886   5.963   1.652
72402SOL    HW119039  13.797   5.939   1.680
72402SOL    HW219040  13.933   5.980   1.734
72403SOL     OW19041   1.824   6.342   8.917
72403SOL    HW119042   1.855   6.411   8.858
72403SOL    HW219043   1.833   6.261   8.866
72404SOL     OW19044   3.640   5.611   3.298
72404SOL    HW119045   3.716   5.655   3.336
72404SOL    HW219046   3.644   5.522   3.331
72405SOL     OW19047   6.309   3.554  11.470
72405SOL    HW119048   6.379   3.619  11.471
72405SOL    HW219049   6.306   3.520  11.560
72406SOL     OW19050  10.696   4.573   9.696
72406SOL    HW119051  10.686   4.556   9.602
72406SOL    HW219052  10.783   4.612   9.703
72407SOL     OW19053   5.006   1.455   9.093
72407SOL    HW119054   5.042   1.374   9.127
72407SOL    HW219055   4.961   1.430   9.013
72408SOL     OW19056  11.771   6.461  13.451
72408SOL    HW119057  11.756   6.448  13.545
72408SOL    HW219058  11.754   6.554  13.436
72409SOL     OW19059  11.592  14.023  10.581
72409SOL    HW119060  11.669  13.990  10.627
72409SOL    HW219061  11.568  14.102  10.629
72410SOL     OW19062   4.778   3.603   2.184
72410SOL    HW119063   4.771   3.619   2.089
72410SOL    HW219064   4.698   3.640   2.221
72411SOL     OW19065  11.876   8.499   0.852
72411SOL    HW119066  11.866   8.521   0.760
72411SOL    HW219067  11.963   8.531   0.876
72412SOL     OW19068  10.674   4.558   9.419
72412SOL    HW119069  10.741   4.586   9.357
72412SOL    HW219070  10.609   4.629   9.417
72413SOL     OW19071  12.835   5.997   7.038
72413SOL    HW119072  12.790   5.932   7.092
72413SOL    HW219073  12.770   6.066   7.024
72414SOL     OW19074   5.229  14.306  12.804
72414SOL    HW119075   5.309  14.340  12.764
72414SOL    HW219076   5.251  14.295  12.896
72415SOL     OW19077   4.461   0.332  13.183
72415SOL    HW119078   4.524   0.319  13.254
72415SOL    HW219079   4.385   0.370  13.226
72416SOL     OW19080   5.507  12.976   7.294
72416SOL    HW119081   5.504  12.945   7.203
72416SOL    HW219082   5.512  12.897   7.347
72417SOL     OW19083   9.341   5.090   8.546
72417SOL    HW119084   9.394   5.034   8.489
72417SOL    HW219085   9.272   5.123   8.488
72418SOL     OW19086  13.854   5.110   3.359
72418SOL    HW119087  13.903   5.126   3.278
72418SOL    HW219088  13.778   5.169   3.353
72419SOL     OW19089  13.151   2.162   4.560
72419SOL    HW119090  13.243   2.187   4.552
72419SOL    HW219091  13.128   2.182   4.651
72420SOL     OW19092   3.422   8.927   8.417
72420SOL    HW119093   3.410   8.918   8.323
72420SOL    HW219094   3.353   8.988   8.444
72421SOL     OW19095  12.210   1.526   8.375
72421SOL    HW119096  12.292   1.483   8.397
72421SOL    HW219097  12.214   1.537   8.280
72422SOL     OW19098  13.966   8.374   6.644
72422SOL    HW119099  13.974   8.403   6.554
72422SOL    HW219100  13.878   8.400   6.670
72423SOL     OW19101  11.185   9.082   0.243
72423SOL    HW119102  11.160   8.993   0.219
72423SOL    HW219103  11.272   9.073   0.283
72424SOL     OW19104  13.021  12.941  14.398
72424SOL    HW119105  12.948  12.894  14.440
72424SOL    HW219106  12.995  12.949  14.307
72425SOL     OW19107   4.147   3.115  13.396
72425SOL    HW119108   4.231   3.106  13.351
72425SOL    HW219109   4.089   3.152  13.330
72426SOL     OW19110   0.130   4.122  11.531
72426SOL    HW119111   0.045   4.124  11.487
72426SOL    HW219112   0.130   4.199  11.587
72427SOL     OW19113   5.828  10.860  11.509
72427SOL    HW119114   5.894  10.819  11.565
72427SOL    HW219115   5.877  10.885  11.430
72428SOL     OW19116   0.939   7.443  11.608
72428SOL    HW119117   0.988   7.502  11.551
72428SOL    HW219118   0.986   7.445  11.691
72429SOL     OW19119   2.688   8.971   0.183
72429SOL    HW119120   2.681   8.881   0.154
72429SOL    HW219121   2.778   8.979   0.214
72430SOL     OW19122   0.405  12.611  13.517
72430SOL    HW119123   0.456  12.561  13.453
72430SOL    HW219124   0.343  12.548  13.554
72431SOL     OW19125   3.844   3.404   6.682
72431SOL    HW119126   3.925   3.437   6.642
72431SOL    HW219127   3.785   3.480   6.683
72432SOL     OW19128   4.016   3.988   6.010
72432SOL    HW119129   3.941   4.044   6.030
72432SOL    HW219130   4.090   4.032   6.053
72433SOL     OW19131  13.150   1.291  10.060
72433SOL    HW119132  13.101   1.210  10.075
72433SOL    HW219133  13.224   1.285  10.121
72434SOL     OW19134   6.927   0.945  14.568
72434SOL    HW119135   6.953   0.989  14.649
72434SOL    HW219136   6.869   1.007  14.525
72435SOL     OW19137   0.215   2.658   3.271
72435SOL    HW119138   0.218   2.730   3.208
72435SOL    HW219139   0.156   2.689   3.340
72436SOL     OW19140  14.423   9.703  11.965
72436SOL    HW119141  14.351   9.766  11.973
72436SOL    HW219142  14.468   9.728  11.884
72437SOL     OW19143  14.349   9.616  11.237
72437SOL    HW119144  14.322   9.525  11.253
72437SOL    HW219145  14.335   9.660  11.320
72438SOL     OW19146  12.248  11.857   8.645
72438SOL    HW119147  12.312  11.890   8.582
72438SOL    HW219148  12.234  11.930   8.705
72439SOL     OW19149   9.236   1.405  11.103
72439SOL    HW119150   9.245   1.319  11.062
72439SOL    HW219151   9.142   1.417  11.114
72440SOL     OW19152  12.895   0.619   9.473
72440SOL    HW119153  12.948   0.653   9.401
72440SOL    HW219154  12.958   0.600   9.542
72441SOL     OW19155   4.332   0.381   8.017
72441SOL    HW119156   4.272   0.337   7.958
72441SOL    HW219157   4.344   0.468   7.979
72442SOL     OW19158   5.097   7.135   0.506
72442SOL    HW119159   5.192   7.131   0.496
72442SOL    HW219160   5.070   7.044   0.519
72443SOL     OW19161   2.403  14.381   1.694
72443SOL    HW119162   2.321  14.351   1.655
72443SOL    HW219163   2.469  14.361   1.628
72444SOL     OW19164   0.872   9.760  14.417
72444SOL    HW119165   0.903   9.839  14.372
72444SOL    HW219166   0.786   9.785  14.452
72445SOL     OW19167   3.693  13.386   8.345
72445SOL    HW119168   3.770  13.334   8.366
72445SOL    HW219169   3.634  13.372   8.419
72446SOL     OW19170  12.495   9.466  14.370
72446SOL    HW119171  12.574   9.413  14.368
72446SOL    HW219172  12.507   9.530  14.300
72447SOL     OW19173   6.717  13.974   1.856
72447SOL    HW119174   6.675  13.888   1.865
72447SOL    HW219175   6.778  13.963   1.783
72448SOL     OW19176   9.366   5.028   7.743
72448SOL    HW119177   9.437   5.049   7.682
72448SOL    HW219178   9.407   5.026   7.829
72449SOL     OW19179   1.837  11.825  12.659
72449SOL    HW119180   1.857  11.745  12.610
72449SOL    HW219181   1.779  11.875  12.602
72450SOL     OW19182  14.721   9.996   9.852
72450SOL    HW119183  14.658   9.985   9.924
72450SOL    HW219184  14.797  10.036   9.894
72451SOL     OW19185   6.569  14.414  10.119
72451SOL    HW119186   6.515  14.449  10.190
72451SOL    HW219187   6.515  14.426  10.041
72452SOL     OW19188   1.478   1.579   9.328
72452SOL    HW119189   1.389   1.555   9.300
72452SOL    HW219190   1.476   1.571   9.423
72453SOL     OW19191   8.747   5.743   7.635
72453SOL    HW119192   8.834   5.770   7.605
72453SOL    HW219193   8.687   5.784   7.573
72454SOL     OW19194  11.425  11.285   9.996
72454SOL    HW119195  11.395  11.198  10.023
72454SOL    HW219196  11.521  11.276   9.992
72455SOL     OW19197  12.633   1.393   0.082
72455SOL    HW119198  12.598   1.416   0.168
72455SOL    HW219199  12.558   1.397   0.023
72456SOL     OW19200  10.188  11.108  11.531
72456SOL    HW119201  10.268  11.056  11.541
72456SOL    HW219202  10.207  11.168  11.459
72457SOL     OW19203   2.565   6.881  11.776
72457SOL    HW119204   2.527   6.857  11.860
72457SOL    HW219205   2.623   6.954  11.796
72458SOL     OW19206   7.995   1.262   8.156
72458SOL    HW119207   7.932   1.250   8.086
72458SOL    HW219208   7.943   1.291   8.231
72459SOL     OW19209   8.480  14.112   8.323
72459SOL    HW119210   8.461  14.055   8.398
72459SOL    HW219211   8.493  14.052   8.250
72460SOL     OW19212   7.152  10.997   5.220
72460SOL    HW119213   7.061  11.025   5.230
72460SOL    HW219214   7.154  10.956   5.133
72461SOL     OW19215  12.311   5.904   7.889
72461SOL    HW119216  12.333   5.814   7.915
72461SOL    HW219217  12.311   5.902   7.793
72462SOL     OW19218   0.842   4.750  10.332
72462SOL    HW119219   0.898   4.734  10.408
72462SOL    HW219220   0.860   4.676  10.273
72463SOL     OW19221   2.293  12.094   7.699
72463SOL    HW119222   2.352  12.104   7.774
72463SOL    HW219223   2.236  12.171   7.704
72464SOL     OW19224  11.088   4.368   0.184
72464SOL    HW119225  11.081   4.370   0.280
72464SOL    HW219226  11.181   4.385   0.166
72465SOL     OW19227   3.238   8.063  13.306
72465SOL    HW119228   3.304   8.131  13.295
72465SOL    HW219229   3.266   7.993  13.247
72466SOL     OW19230  11.650   6.227   5.616
72466SOL    HW119231  11.668   6.244   5.709
72466SOL    HW219232  11.640   6.132   5.610
72467SOL     OW19233   2.215   6.702   3.221
72467SOL    HW119234   2.310   6.714   3.224
72467SOL    HW219235   2.179   6.783   3.259
72468SOL     OW19236  12.629   6.607   5.351
72468SOL    HW119237  12.569   6.642   5.285
72468SOL    HW219238  12.716   6.623   5.315
72469SOL     OW19239   2.869  14.661   3.004
72469SOL    HW119240   2.774  14.664   2.994
72469SOL    HW219241   2.882  14.640   3.097
72470SOL     OW19242   9.082   7.154   2.793
72470SOL    HW119243   9.089   7.222   2.860
72470SOL    HW219244   8.992   7.122   2.801
72471SOL     OW19245   5.397   3.948   9.383
72471SOL    HW119246   5.406   4.034   9.341
72471SOL    HW219247   5.351   3.894   9.318
72472SOL     OW19248   6.030  12.073   1.644
72472SOL    HW119249   6.046  12.116   1.729
72472SOL    HW219250   5.943  12.034   1.652
72473SOL     OW19251   9.810  12.144   5.483
72473SOL    HW119252   9.890  12.171   5.528
72473SOL    HW219253   9.820  12.176   5.394
72474SOL     OW19254  10.253   6.208  14.731
72474SOL    HW119255  10.223   6.299  14.732
72474SOL    HW219256  10.345   6.213  14.756
72475SOL     OW19257  11.632   5.402  13.776
72475SOL    HW119258  11.629   5.447  13.691
72475SOL    HW219259  11.675   5.465  13.835
72476SOL     OW19260   0.653   2.698   6.695
72476SOL    HW119261   0.589   2.678   6.763
72476SOL    HW219262   0.738   2.689   6.738
72477SOL     OW19263   1.283  14.107  14.008
72477SOL    HW119264   1.335  14.186  13.999
72477SOL    HW219265   1.298  14.079  14.098
72478SOL     OW19266   1.973   0.436   4.709
72478SOL    HW119267   1.881   0.458   4.721
72478SOL    HW219268   1.989   0.452   4.616
72479SOL     OW19269   4.694   9.947   8.364
72479SOL    HW119270   4.724   9.864   8.326
72479SOL    HW219271   4.768   9.975   8.418
72480SOL     OW19272   1.582   6.113   6.378
72480SOL    HW119273   1.553   6.183   6.319
72480SOL    HW219274   1.597   6.038   6.321
72481SOL     OW19275   1.073   4.731   6.115
72481SOL    HW119276   1.053   4.714   6.207
72481SOL    HW219277   1.162   4.696   6.103
72482SOL     OW19278  12.142   2.114  12.905
72482SOL    HW119279  12.179   2.076  12.825
72482SOL    HW219280  12.215   2.113  12.967
72483SOL     OW19281   6.606   2.456  13.449
72483SOL    HW119282   6.515   2.461  13.479
72483SOL    HW219283   6.657   2.490  13.522
72484SOL     OW19284   1.983   6.917  11.583
72484SOL    HW119285   2.028   6.955  11.659
72484SOL    HW219286   1.890   6.928  11.603
72485SOL     OW19287   2.946  10.957   3.232
72485SOL    HW119288   2.942  11.006   3.150
72485SOL    HW219289   3.039  10.952   3.253
72486SOL     OW19290  10.863   0.494   1.618
72486SOL    HW119291  10.811   0.458   1.690
72486SOL    HW219292  10.910   0.419   1.583
72487SOL     OW19293   1.729   8.213   1.000
72487SOL    HW119294   1.785   8.148   0.958
72487SOL    HW219295   1.674   8.162   1.060
72488SOL     OW19296   8.358  10.971   5.466
72488SOL    HW119297   8.386  11.058   5.438
72488SOL    HW219298   8.268  10.963   5.435
72489SOL     OW19299   1.587  11.556  13.229
72489SOL    HW119300   1.614  11.466  13.246
72489SOL    HW219301   1.496  11.549  13.199
72490SOL     OW19302   8.963  13.411  13.412
72490SOL    HW119303   8.916  13.447  13.488
72490SOL    HW219304   8.894  13.389  13.350
72491SOL     OW19305  13.594   3.858   3.302
72491SOL    HW119306  13.574   3.885   3.392
72491SOL    HW219307  13.583   3.763   3.303
72492SOL     OW19308   5.840   8.090   9.322
72492SOL    HW119309   5.898   8.155   9.361
72492SOL    HW219310   5.767   8.083   9.383
72493SOL     OW19311  10.111   7.610  10.709
72493SOL    HW119312  10.036   7.550  10.712
72493SOL    HW219313  10.168   7.580  10.780
72494SOL     OW19314   0.756   2.646  11.165
72494SOL    HW119315   0.713   2.563  11.184
72494SOL    HW219316   0.765   2.648  11.070
72495SOL     OW19317   0.667   8.741  14.860
72495SOL    HW119318   0.615   8.661  14.868
72495SOL    HW219319   0.601   8.811  14.854
72496SOL     OW19320   9.164   8.275   3.345
72496SOL    HW119321   9.151   8.360   3.303
72496SOL    HW219322   9.220   8.227   3.284
72497SOL     OW19323   0.035   9.768  10.830
72497SOL    HW119324   0.009   9.834  10.766
72497SOL    HW219325  14.867   9.689  10.803
72498SOL     OW19326   5.003  12.144   9.648
72498SOL    HW119327   5.084  12.193   9.637
72498SOL    HW219328   4.935  12.211   9.656
72499SOL     OW19329  10.491   9.301   5.196
72499SOL    HW119330  10.513   9.255   5.277
72499SOL    HW219331  10.395   9.299   5.192
72500SOL     OW19332  13.997  14.306   7.806
72500SOL    HW119333  13.982  14.291   7.899
72500SOL    HW219334  14.045  14.389   7.803
72501SOL     OW19335   3.885   3.141   4.400
72501SOL    HW119336   3.799   3.127   4.442
72501SOL    HW219337   3.887   3.077   4.329
72502SOL     OW19338   5.459   3.022  11.598
72502SOL    HW119339   5.469   3.116  11.614
72502SOL    HW219340   5.547   2.990  11.581
72503SOL     OW19341   4.683   4.037   4.037
72503SOL    HW119342   4.673   4.128   4.066
72503SOL    HW219343   4.777   4.018   4.048
72504SOL     OW19344   2.993   4.149   7.864
72504SOL    HW119345   3.016   4.227   7.813
72504SOL    HW219346   3.067   4.136   7.923
72505SOL     OW19347  13.362   0.144   7.826
72505SOL    HW119348  13.330   0.055   7.840
72505SOL    HW219349  13.454   0.133   7.803
72506SOL     OW19350   2.916   1.066   5.125
72506SOL    HW119351   2.879   0.986   5.087
72506SOL    HW219352   2.894   1.135   5.063
72507SOL     OW19353  10.017   8.054  14.315
72507SOL    HW119354  10.105   8.076  14.347
72507SOL    HW219355  10.021   7.960  14.298
72508SOL     OW19356   8.293   9.097   8.062
72508SOL    HW119357   8.205   9.062   8.077
72508SOL    HW219358   8.296   9.114   7.968
72509SOL     OW19359   4.148  14.510  10.618
72509SOL    HW119360   4.136  14.434  10.561
72509SOL    HW219361   4.119  14.584  10.565
72510SOL     OW19362   0.806  14.347   2.763
72510SOL    HW119363   0.749  14.345   2.840
72510SOL    HW219364   0.757  14.396   2.698
72511SOL     OW19365   8.125   1.225  14.514
72511SOL    HW119366   8.184   1.294  14.483
72511SOL    HW219367   8.184   1.162  14.557
72512SOL     OW19368   0.753   7.063  12.814
72512SOL    HW119369   0.824   7.073  12.878
72512SOL    HW219370   0.719   6.974  12.830
72513SOL     OW19371  11.748   4.553  13.781
72513SOL    HW119372  11.656   4.543  13.806
72513SOL    HW219373  11.792   4.579  13.862
72514SOL     OW19374   6.830   3.957   6.194
72514SOL    HW119375   6.888   4.031   6.178
72514SOL    HW219376   6.787   3.942   6.110
72515SOL     OW19377   2.172  13.357   9.420
72515SOL    HW119378   2.254  13.318   9.448
72515SOL    HW219379   2.197  13.441   9.381
72516SOL     OW19380  10.425   2.823   3.038
72516SOL    HW119381  10.398   2.840   3.129
72516SOL    HW219382  10.343   2.815   2.990
72517SOL     OW19383  13.535   6.306   0.161
72517SOL    HW119384  13.605   6.263   0.111
72517SOL    HW219385  13.570   6.392   0.183
72518SOL     OW19386  10.374   5.421   0.901
72518SOL    HW119387  10.370   5.332   0.936
72518SOL    HW219388  10.321   5.473   0.962
72519SOL     OW19389  10.385   8.702   7.462
72519SOL    HW119390  10.455   8.695   7.526
72519SOL    HW219391  10.425   8.749   7.388
72520SOL     OW19392   7.870  10.657  11.527
72520SOL    HW119393   7.932  10.585  11.513
72520SOL    HW219394   7.863  10.699  11.441
72521SOL     OW19395   7.586   2.646   0.333
72521SOL    HW119396   7.594   2.733   0.294
72521SOL    HW219397   7.591   2.586   0.259
72522SOL     OW19398   8.382  11.066  12.474
72522SOL    HW119399   8.345  11.144  12.515
72522SOL    HW219400   8.388  11.087  12.381
72523SOL     OW19401  14.403  13.127  14.123
72523SOL    HW119402  14.318  13.141  14.165
72523SOL    HW219403  14.453  13.076  14.187
72524SOL     OW19404   5.733   5.217   2.205
72524SOL    HW119405   5.700   5.268   2.131
72524SOL    HW219406   5.689   5.255   2.281
72525SOL     OW19407   0.744   9.268   8.684
72525SOL    HW119408   0.662   9.249   8.731
72525SOL    HW219409   0.717   9.318   8.607
72526SOL     OW19410   2.316   6.498  10.850
72526SOL    HW119411   2.352   6.481  10.763
72526SOL    HW219412   2.293   6.591  10.849
72527SOL     OW19413   5.771   2.963   5.701
72527SOL    HW119414   5.715   3.017   5.757
72527SOL    HW219415   5.843   3.021   5.675
72528SOL     OW19416   3.990   4.685   8.626
72528SOL    HW119417   3.992   4.620   8.555
72528SOL    HW219418   3.998   4.632   8.705
72529SOL     OW19419  14.671   3.537   3.844
72529SOL    HW119420  14.762   3.558   3.823
72529SOL    HW219421  14.662   3.559   3.937
72530SOL     OW19422  12.763   2.876  10.646
72530SOL    HW119423  12.755   2.807  10.580
72530SOL    HW219424  12.730   2.954  10.603
72531SOL     OW19425  12.932   3.953   5.251
72531SOL    HW119426  12.922   3.873   5.200
72531SOL    HW219427  13.013   3.940   5.301
72532SOL     OW19428   0.250  10.778   4.222
72532SOL    HW119429   0.218  10.728   4.297
72532SOL    HW219430   0.180  10.773   4.158
72533SOL     OW19431   8.102  14.159   9.793
72533SOL    HW119432   8.132  14.097   9.727
72533SOL    HW219433   8.097  14.108   9.874
72534SOL     OW19434   1.662   2.007   6.807
72534SOL    HW119435   1.739   2.003   6.863
72534SOL    HW219436   1.592   2.040   6.864
72535SOL     OW19437   2.701  11.457  13.886
72535SOL    HW119438   2.610  11.426  13.879
72535SOL    HW219439   2.693  11.548  13.916
72536SOL     OW19440   9.003  13.989   4.688
72536SOL    HW119441   9.055  14.058   4.729
72536SOL    HW219442   9.054  13.962   4.612
72537SOL     OW19443  11.034   4.146   4.357
72537SOL    HW119444  10.957   4.199   4.339
72537SOL    HW219445  11.007   4.056   4.337
72538SOL     OW19446  14.216  13.185  12.867
72538SOL    HW119447  14.150  13.150  12.806
72538SOL    HW219448  14.174  13.263  12.905
72539SOL     OW19449  11.217   6.287   3.599
72539SOL    HW119450  11.196   6.201   3.561
72539SOL    HW219451  11.148   6.302   3.664
72540SOL     OW19452   7.202  10.312  11.976
72540SOL    HW119453   7.145  10.338  11.904
72540SOL    HW219454   7.145  10.313  12.053
72541SOL     OW19455  12.456   0.274   4.889
72541SOL    HW119456  12.444   0.279   4.984
72541SOL    HW219457  12.487   0.185   4.873
72542SOL     OW19458   8.152   6.705  13.366
72542SOL    HW119459   8.207   6.659  13.430
72542SOL    HW219460   8.157   6.797  13.394
72543SOL     OW19461   2.383   8.055   8.721
72543SOL    HW119462   2.295   8.023   8.704
72543SOL    HW219463   2.419   8.074   8.634
72544SOL     OW19464  10.674   5.883   7.281
72544SOL    HW119465  10.596   5.882   7.226
72544SOL    HW219466  10.722   5.804   7.257
72545SOL     OW19467  10.906   4.624  11.693
72545SOL    HW119468  10.882   4.535  11.669
72545SOL    HW219469  10.977   4.646  11.633
72546SOL     OW19470   6.550   7.993   8.566
72546SOL    HW119471   6.645   7.999   8.576
72546SOL    HW219472   6.526   7.911   8.609
72547SOL     OW19473   2.150  10.438   2.501
72547SOL    HW119474   2.138  10.400   2.414
72547SOL    HW219475   2.116  10.527   2.494
72548SOL     OW19476   4.992   1.921   6.477
72548SOL    HW119477   4.996   1.999   6.533
72548SOL    HW219478   5.037   1.853   6.527
72549SOL     OW19479   2.760   1.758  14.620
72549SOL    HW119480   2.672   1.792  14.636
72549SOL    HW219481   2.747   1.665  14.604
72550SOL     OW19482   1.643  12.732  12.332
72550SOL    HW119483   1.554  12.705  12.309
72550SOL    HW219484   1.633  12.786  12.410
72551SOL     OW19485  14.036   0.102   9.332
72551SOL    HW119486  14.091   0.072   9.261
72551SOL    HW219487  14.046   0.036   9.400
72552SOL     OW19488  11.841  12.725  11.027
72552SOL    HW119489  11.852  12.811  11.068
72552SOL    HW219490  11.911  12.672  11.063
72553SOL     OW19491   2.680  11.405   0.432
72553SOL    HW119492   2.640  11.427   0.516
72553SOL    HW219493   2.616  11.348   0.389
72554SOL     OW19494  13.601   3.848   0.578
72554SOL    HW119495  13.558   3.839   0.663
72554SOL    HW219496  13.533   3.823   0.515
72555SOL     OW19497   7.065   7.447  11.191
72555SOL    HW119498   7.073   7.429  11.098
72555SOL    HW219499   6.981   7.410  11.216
72556SOL     OW19500   5.343   6.952  12.536
72556SOL    HW119501   5.248   6.938  12.541
72556SOL    HW219502   5.357   7.039  12.574
72557SOL     OW19503  14.499  13.862   4.712
72557SOL    HW119504  14.475  13.803   4.641
72557SOL    HW219505  14.498  13.807   4.790
72558SOL     OW19506  12.453   3.932  10.905
72558SOL    HW119507  12.385   3.940  10.971
72558SOL    HW219508  12.409   3.952  10.822
72559SOL     OW19509   5.764   0.507   0.506
72559SOL    HW119510   5.719   0.477   0.427
72559SOL    HW219511   5.733   0.597   0.519
72560SOL     OW19512   4.842   3.124   7.226
72560SOL    HW119513   4.869   3.208   7.263
72560SOL    HW219514   4.923   3.075   7.215
72561SOL     OW19515  12.589   5.675   6.090
72561SOL    HW119516  12.527   5.742   6.120
72561SOL    HW219517  12.615   5.703   6.003
72562SOL     OW19518   0.534  10.635   2.926
72562SOL    HW119519   0.573  10.710   2.882
72562SOL    HW219520   0.520  10.664   3.016
72563SOL     OW19521   0.997   8.986   5.348
72563SOL    HW119522   1.024   8.944   5.430
72563SOL    HW219523   1.055   8.950   5.282
72564SOL     OW19524   3.857  13.762  10.067
72564SOL    HW119525   3.881  13.815   9.992
72564SOL    HW219526   3.864  13.672  10.037
72565SOL     OW19527  11.297   5.941   7.138
72565SOL    HW119528  11.359   5.893   7.193
72565SOL    HW219529  11.347   5.968   7.062
72566SOL     OW19530   4.819  11.898  14.403
72566SOL    HW119531   4.766  11.830  14.445
72566SOL    HW219532   4.836  11.866  14.315
72567SOL     OW19533   4.322   8.580   2.323
72567SOL    HW119534   4.397   8.612   2.273
72567SOL    HW219535   4.360   8.546   2.404
72568SOL     OW19536  14.205   9.372   2.220
72568SOL    HW119537  14.139   9.343   2.156
72568SOL    HW219538  14.157   9.377   2.303
72569SOL     OW19539   7.283   5.394  10.981
72569SOL    HW119540   7.260   5.378  10.890
72569SOL    HW219541   7.336   5.473  10.979
72570SOL     OW19542  11.323  11.724  14.175
72570SOL    HW119543  11.349  11.748  14.086
72570SOL    HW219544  11.272  11.643  14.165
72571SOL     OW19545  13.159   5.495   2.222
72571SOL    HW119546  13.078   5.444   2.217
72571SOL    HW219547  13.138   5.577   2.178
72572SOL     OW19548  13.497  12.122   0.326
72572SOL    HW119549  13.414  12.168   0.338
72572SOL    HW219550  13.471  12.034   0.297
72573SOL     OW19551   4.578   2.405   6.868
72573SOL    HW119552   4.628   2.353   6.805
72573SOL    HW219553   4.640   2.426   6.937
72574SOL     OW19554   4.939   0.013   8.625
72574SOL    HW119555   4.965   0.027   8.534
72574SOL    HW219556   5.014  14.849   8.665
72575SOL     OW19557   3.673  12.039   6.327
72575SOL    HW119558   3.606  12.093   6.284
72575SOL    HW219559   3.752  12.054   6.276
72576SOL     OW19560   4.346   8.810   8.652
72576SOL    HW119561   4.276   8.866   8.619
72576SOL    HW219562   4.318   8.786   8.740
72577SOL     OW19563   3.352   3.957   8.384
72577SOL    HW119564   3.438   3.996   8.394
72577SOL    HW219565   3.348   3.889   8.451
72578SOL     OW19566   8.201   7.648   0.368
72578SOL    HW119567   8.157   7.622   0.287
72578SOL    HW219568   8.133   7.691   0.420
72579SOL     OW19569   2.724   1.880   4.805
72579SOL    HW119570   2.797   1.939   4.824
72579SOL    HW219571   2.696   1.905   4.717
72580SOL     OW19572   9.049  13.185   1.947
72580SOL    HW119573   9.130  13.233   1.930
72580SOL    HW219574   9.009  13.176   1.860
72581SOL     OW19575   0.628   5.780  12.594
72581SOL    HW119576   0.587   5.794  12.679
72581SOL    HW219577   0.583   5.840  12.535
72582SOL     OW19578   3.991   0.738   0.822
72582SOL    HW119579   3.940   0.818   0.811
72582SOL    HW219580   3.980   0.715   0.915
72583SOL     OW19581  14.193   9.292   3.714
72583SOL    HW119582  14.253   9.366   3.704
72583SOL    HW219583  14.107   9.332   3.729
72584SOL     OW19584   6.113   7.222   8.302
72584SOL    HW119585   6.027   7.219   8.262
72584SOL    HW219586   6.145   7.132   8.299
72585SOL     OW19587   6.195  11.644   8.738
72585SOL    HW119588   6.207  11.658   8.644
72585SOL    HW219589   6.159  11.726   8.771
72586SOL     OW19590  12.164   0.185   7.141
72586SOL    HW119591  12.144   0.224   7.056
72586SOL    HW219592  12.257   0.203   7.155
72587SOL     OW19593   5.277  13.020   1.965
72587SOL    HW119594   5.342  13.043   2.031
72587SOL    HW219595   5.295  12.928   1.945
72588SOL     OW19596  12.036   9.346   8.185
72588SOL    HW119597  11.980   9.413   8.147
72588SOL    HW219598  12.084   9.309   8.110
72589SOL     OW19599   6.341  13.920  11.305
72589SOL    HW119600   6.373  13.994  11.253
72589SOL    HW219601   6.414  13.899  11.363
72590SOL     OW19602  14.303   8.138   8.026
72590SOL    HW119603  14.396   8.116   8.029
72590SOL    HW219604  14.275   8.135   8.118
72591SOL     OW19605   9.239   9.691   3.045
72591SOL    HW119606   9.189   9.720   3.122
72591SOL    HW219607   9.181   9.628   3.002
72592SOL     OW19608   5.467  14.177   4.635
72592SOL    HW119609   5.435  14.239   4.700
72592SOL    HW219610   5.389  14.129   4.607
72593SOL     OW19611   4.069   8.944   0.206
72593SOL    HW119612   4.143   8.889   0.231
72593SOL    HW219613   4.093   9.032   0.234
72594SOL     OW19614   1.857   8.025  14.585
72594SOL    HW119615   1.821   8.089  14.523
72594SOL    HW219616   1.801   7.948  14.573
72595SOL     OW19617   6.007   9.644  10.557
72595SOL    HW119618   5.936   9.624  10.619
72595SOL    HW219619   6.016   9.564  10.505
72596SOL     OW19620   0.908  10.809   3.063
72596SOL    HW119621   0.822  10.838   3.093
72596SOL    HW219622   0.955  10.785   3.142
72597SOL     OW19623   1.758   5.197   7.445
72597SOL    HW119624   1.809   5.123   7.410
72597SOL    HW219625   1.822   5.268   7.451
72598SOL     OW19626  14.222  10.710   2.287
72598SOL    HW119627  14.215  10.736   2.195
72598SOL    HW219628  14.316  10.716   2.306
72599SOL     OW19629   6.249  10.988   8.727
72599SOL    HW119630   6.281  11.065   8.682
72599SOL    HW219631   6.292  10.990   8.812
72600SOL     OW19632  13.963  11.451   1.117
72600SOL    HW119633  13.942  11.428   1.027
72600SOL    HW219634  13.993  11.370   1.157
72601SOL     OW19635   8.109   4.294   0.563
72601SOL    HW119636   8.151   4.357   0.504
72601SOL    HW219637   8.015   4.306   0.547
72602SOL     OW19638   7.084   3.723   4.157
72602SOL    HW119639   7.082   3.721   4.061
72602SOL    HW219640   7.114   3.635   4.181
72603SOL     OW19641   3.348  14.462   6.394
72603SOL    HW119642   3.270  14.492   6.348
72603SOL    HW219643   3.388  14.541   6.429
72604SOL     OW19644   2.990   0.610  14.689
72604SOL    HW119645   3.077   0.595  14.652
72604SOL    HW219646   2.956   0.685  14.641
72605SOL     OW19647   9.654  10.457  13.054
72605SOL    HW119648   9.707  10.445  13.132
72605SOL    HW219649   9.718  10.462  12.982
72606SOL     OW19650   3.209   0.757   3.843
72606SOL    HW119651   3.177   0.793   3.760
72606SOL    HW219652   3.296   0.794   3.853
72607SOL     OW19653  11.546   7.911   7.393
72607SOL    HW119654  11.463   7.915   7.440
72607SOL    HW219655  11.561   8.000   7.362
72608SOL     OW19656   8.827  14.715   9.865
72608SOL    HW119657   8.821  14.730   9.771
72608SOL    HW219658   8.919  14.728   9.886
72609SOL     OW19659   4.318   1.388  10.900
72609SOL    HW119660   4.225   1.381  10.880
72609SOL    HW219661   4.324   1.372  10.994
72610SOL     OW19662   8.984   5.448   1.395
72610SOL    HW119663   9.062   5.419   1.348
72610SOL    HW219664   8.915   5.453   1.328
72611SOL     OW19665   6.109  13.299  11.376
72611SOL    HW119666   6.160  13.372  11.411
72611SOL    HW219667   6.018  13.322  11.394
72612SOL     OW19668   7.202  12.230   7.110
72612SOL    HW119669   7.201  12.247   7.204
72612SOL    HW219670   7.242  12.309   7.071
72613SOL     OW19671  13.955  10.405  12.800
72613SOL    HW119672  13.979  10.493  12.827
72613SOL    HW219673  13.914  10.367  12.878
72614SOL     OW19674  11.862   4.065   3.120
72614SOL    HW119675  11.770   4.068   3.146
72614SOL    HW219676  11.909   4.105   3.193
72615SOL     OW19677   3.373   7.218   4.893
72615SOL    HW119678   3.412   7.298   4.929
72615SOL    HW219679   3.424   7.201   4.814
72616SOL     OW19680   1.033   6.090   2.313
72616SOL    HW119681   1.128   6.098   2.316
72616SOL    HW219682   1.015   6.008   2.361
72617SOL     OW19683   1.910  11.704   8.304
72617SOL    HW119684   1.923  11.629   8.246
72617SOL    HW219685   1.826  11.742   8.277
72618SOL     OW19686   8.505  13.055   4.335
72618SOL    HW119687   8.539  13.099   4.257
72618SOL    HW219688   8.515  13.118   4.406
72619SOL     OW19689   7.701   4.403  11.694
72619SOL    HW119690   7.733   4.368  11.611
72619SOL    HW219691   7.623   4.351  11.713
72620SOL     OW19692   2.590   9.386   2.143
72620SOL    HW119693   2.650   9.347   2.080
72620SOL    HW219694   2.508   9.398   2.095
72621SOL     OW19695  12.163   8.694  11.774
72621SOL    HW119696  12.164   8.637  11.851
72621SOL    HW219697  12.071   8.713  11.759
72622SOL     OW19698   3.124   6.133   5.082
72622SOL    HW119699   3.030   6.129   5.067
72622SOL    HW219700   3.160   6.169   5.001
72623SOL     OW19701   2.366  10.039   6.483
72623SOL    HW119702   2.281  10.080   6.499
72623SOL    HW219703   2.347   9.971   6.418
72624SOL     OW19704   9.628   2.096   6.872
72624SOL    HW119705   9.710   2.141   6.892
72624SOL    HW219706   9.578   2.159   6.820
72625SOL     OW19707  10.139   3.417  11.686
72625SOL    HW119708  10.079   3.355  11.727
72625SOL    HW219709  10.183   3.460  11.759
72626SOL     OW19710   8.521   1.114   0.222
72626SOL    HW119711   8.500   1.034   0.270
72626SOL    HW219712   8.548   1.176   0.290
72627SOL     OW19713   7.179   2.020   8.590
72627SOL    HW119714   7.160   2.046   8.500
72627SOL    HW219715   7.196   2.102   8.635
72628SOL     OW19716   2.099   6.348   4.276
72628SOL    HW119717   2.070   6.405   4.347
72628SOL    HW219718   2.021   6.338   4.220
72629SOL     OW19719  11.620   7.091  10.774
72629SOL    HW119720  11.700   7.051  10.809
72629SOL    HW219721  11.570   7.017  10.739
72630SOL     OW19722  14.198   5.583   9.850
72630SOL    HW119723  14.178   5.618   9.936
72630SOL    HW219724  14.293   5.591   9.842
72631SOL     OW19725   0.492   9.496  12.664
72631SOL    HW119726   0.554   9.429  12.635
72631SOL    HW219727   0.407   9.467  12.632
72632SOL     OW19728   0.071   1.222  14.216
72632SOL    HW119729   0.079   1.205  14.309
72632SOL    HW219730   0.155   1.259  14.191
72633SOL     OW19731  12.365   3.728   9.313
72633SOL    HW119732  12.413   3.679   9.380
72633SOL    HW219733  12.398   3.817   9.321
72634SOL     OW19734  11.903   7.469  12.423
72634SOL    HW119735  11.958   7.521  12.365
72634SOL    HW219736  11.826   7.522  12.438
72635SOL     OW19737   4.385   5.121   2.049
72635SOL    HW119738   4.477   5.109   2.025
72635SOL    HW219739   4.342   5.143   1.966
72636SOL     OW19740   0.574   5.314   4.945
72636SOL    HW119741   0.540   5.381   5.004
72636SOL    HW219742   0.580   5.235   5.000
72637SOL     OW19743   5.642   5.932   6.815
72637SOL    HW119744   5.574   5.972   6.869
72637SOL    HW219745   5.721   5.982   6.835
72638SOL     OW19746  13.152  11.908   1.776
72638SOL    HW119747  13.177  11.891   1.686
72638SOL    HW219748  13.170  12.000   1.790
72639SOL     OW19749  12.327  14.103   4.896
72639SOL    HW119750  12.379  14.119   4.974
72639SOL    HW219751  12.258  14.044   4.924
72640SOL     OW19752  10.794  11.663  14.210
72640SOL    HW119753  10.768  11.727  14.143
72640SOL    HW219754  10.836  11.715  14.278
72641SOL     OW19755   7.824   4.559   8.564
72641SOL    HW119756   7.745   4.511   8.590
72641SOL    HW219757   7.880   4.556   8.641
72642SOL     OW19758   1.336   6.715  14.300
72642SOL    HW119759   1.358   6.780  14.367
72642SOL    HW219760   1.271   6.658  14.342
72643SOL     OW19761  12.095   4.435   6.253
72643SOL    HW119762  12.169   4.445   6.313
72643SOL    HW219763  12.066   4.344   6.266
72644SOL     OW19764   4.644   9.146   3.407
72644SOL    HW119765   4.622   9.239   3.399
72644SOL    HW219766   4.739   9.145   3.418
72645SOL     OW19767  10.258   3.234  12.458
72645SOL    HW119768  10.195   3.283  12.512
72645SOL    HW219769  10.222   3.238  12.370
72646SOL     OW19770   4.097   6.147   6.524
72646SOL    HW119771   4.007   6.118   6.533
72646SOL    HW219772   4.090   6.237   6.492
72647SOL     OW19773   2.790   8.451   2.976
72647SOL    HW119774   2.819   8.363   2.952
72647SOL    HW219775   2.868   8.506   2.968
72648SOL     OW19776   5.369   6.658   7.714
72648SOL    HW119777   5.312   6.581   7.709
72648SOL    HW219778   5.383   6.671   7.808
72649SOL     OW19779   4.623   8.342   1.644
72649SOL    HW119780   4.608   8.434   1.626
72649SOL    HW219781   4.658   8.306   1.563
72650SOL     OW19782   2.589   4.196  14.204
72650SOL    HW119783   2.513   4.172  14.151
72650SOL    HW219784   2.606   4.288  14.181
72651SOL     OW19785   8.724   7.612   1.250
72651SOL    HW119786   8.690   7.604   1.339
72651SOL    HW219787   8.777   7.691   1.252
72652SOL     OW19788   1.892   2.235  10.727
72652SOL    HW119789   1.890   2.146  10.763
72652SOL    HW219790   1.874   2.224  10.634
72653SOL     OW19791   2.288   7.733   1.058
72653SOL    HW119792   2.259   7.641   1.056
72653SOL    HW219793   2.313   7.748   1.149
72654SOL     OW19794  11.888   6.479   1.914
72654SOL    HW119795  11.861   6.547   1.975
72654SOL    HW219796  11.974   6.451   1.945
72655SOL     OW19797   0.321   4.265   6.052
72655SOL    HW119798   0.357   4.227   5.972
72655SOL    HW219799   0.314   4.359   6.033
72656SOL     OW19800   0.672  10.075   7.039
72656SOL    HW119801   0.590  10.031   7.059
72656SOL    HW219802   0.682  10.065   6.944
72657SOL     OW19803   1.640   1.130  12.400
72657SOL    HW119804   1.664   1.164  12.486
72657SOL    HW219805   1.545   1.130  12.400
72658SOL     OW19806   0.167   0.184  14.519
72658SOL    HW119807   0.146   0.247  14.588
72658SOL    HW219808   0.137   0.226  14.438
72659SOL     OW19809  13.439   9.752  12.799
72659SOL    HW119810  13.459   9.682  12.738
72659SOL    HW219811  13.519   9.804  12.803
72660SOL     OW19812   7.868   3.155   2.031
72660SOL    HW119813   7.893   3.225   1.970
72660SOL    HW219814   7.949   3.106   2.046
72661SOL     OW19815   4.005   1.531   8.858
72661SOL    HW119816   4.021   1.544   8.765
72661SOL    HW219817   4.060   1.456   8.882
72662SOL     OW19818   0.399   8.596   4.816
72662SOL    HW119819   0.415   8.580   4.909
72662SOL    HW219820   0.484   8.583   4.774
72663SOL     OW19821  12.770  11.438   8.271
72663SOL    HW119822  12.687  11.391   8.269
72663SOL    HW219823  12.798  11.443   8.180
72664SOL     OW19824   4.724   2.631  11.487
72664SOL    HW119825   4.795   2.599  11.542
72664SOL    HW219826   4.645   2.589  11.523
72665SOL     OW19827  14.854  14.468   3.641
72665SOL    HW119828  14.838  14.562   3.651
72665SOL    HW219829  14.875  14.438   3.729
72666SOL     OW19830   3.124   3.391  11.900
72666SOL    HW119831   3.179   3.428  11.969
72666SOL    HW219832   3.132   3.454  11.828
72667SOL     OW19833  14.202  12.463   6.488
72667SOL    HW119834  14.283  12.414   6.502
72667SOL    HW219835  14.152  12.448   6.569
72668SOL     OW19836  10.633   5.008   1.783
72668SOL    HW119837  10.620   4.916   1.809
72668SOL    HW219838  10.684   5.046   1.855
72669SOL     OW19839   8.624  11.636   8.093
72669SOL    HW119840   8.697  11.581   8.121
72669SOL    HW219841   8.666  11.709   8.046
72670SOL     OW19842   3.850   5.428  11.037
72670SOL    HW119843   3.769   5.395  11.076
72670SOL    HW219844   3.839   5.523  11.036
72671SOL     OW19845   3.731   4.207  12.847
72671SOL    HW119846   3.735   4.226  12.941
72671SOL    HW219847   3.682   4.281  12.810
72672SOL     OW19848  11.637  14.812   6.699
72672SOL    HW119849  11.629  14.759   6.778
72672SOL    HW219850  11.677   0.015   6.729
72673SOL     OW19851   4.256   2.032   1.685
72673SOL    HW119852   4.210   1.949   1.676
72673SOL    HW219853   4.295   2.029   1.772
72674SOL     OW19854   8.379  12.971   9.464
72674SOL    HW119855   8.432  12.953   9.542
72674SOL    HW219856   8.441  13.012   9.403
72675SOL     OW19857  13.206   6.531  10.126
72675SOL    HW119858  13.127   6.564  10.083
72675SOL    HW219859  13.198   6.435  10.122
72676SOL     OW19860  10.892  12.267  10.291
72676SOL    HW119861  10.935  12.223  10.218
72676SOL    HW219862  10.831  12.201  10.326
72677SOL     OW19863   9.166   6.957   8.438
72677SOL    HW119864   9.192   7.012   8.364
72677SOL    HW219865   9.149   7.018   8.509
72678SOL     OW19866  10.321   3.358  14.084
72678SOL    HW119867  10.387   3.422  14.057
72678SOL    HW219868  10.323   3.291  14.015
72679SOL     OW19869   6.638  13.353   2.091
72679SOL    HW119870   6.689  13.300   2.030
72679SOL    HW219871   6.640  13.441   2.054
72680SOL     OW19872   2.144  10.784   6.074
72680SOL    HW119873   2.162  10.878   6.074
72680SOL    HW219874   2.145  10.758   6.166
72681SOL     OW19875  10.397   3.974   9.051
72681SOL    HW119876  10.304   3.988   9.034
72681SOL    HW219877  10.423   4.049   9.105
72682SOL     OW19878   7.717  13.665   0.152
72682SOL    HW119879   7.760  13.744   0.182
72682SOL    HW219880   7.784  13.596   0.158
72683SOL     OW19881   3.177   0.368   3.052
72683SOL    HW119882   3.210   0.314   2.980
72683SOL    HW219883   3.117   0.430   3.010
72684SOL     OW19884   4.418   1.622   9.261
72684SOL    HW119885   4.431   1.700   9.315
72684SOL    HW219886   4.325   1.601   9.270
72685SOL     OW19887  11.708  10.989  14.623
72685SOL    HW119888  11.632  11.038  14.656
72685SOL    HW219889  11.681  10.898  14.627
72686SOL     OW19890   1.611   6.101   2.240
72686SOL    HW119891   1.615   6.195   2.255
72686SOL    HW219892   1.520   6.085   2.214
72687SOL     OW19893   5.996   4.957   6.329
72687SOL    HW119894   5.961   4.898   6.396
72687SOL    HW219895   6.031   5.031   6.378
72688SOL     OW19896   9.873   0.440   3.490
72688SOL    HW119897   9.872   0.349   3.462
72688SOL    HW219898   9.796   0.479   3.447
72689SOL     OW19899   8.520  10.422   7.644
72689SOL    HW119900   8.499  10.330   7.627
72689SOL    HW219901   8.467  10.446   7.720
72690SOL     OW19902   0.748   5.718   2.906
72690SOL    HW119903   0.682   5.786   2.894
72690SOL    HW219904   0.700   5.644   2.942
72691SOL     OW19905  13.645   5.756  11.861
72691SOL    HW119906  13.581   5.827  11.863
72691SOL    HW219907  13.724   5.797  11.824
72692SOL     OW19908   8.976   1.744   9.511
72692SOL    HW119909   8.880   1.752   9.509
72692SOL    HW219910   8.994   1.665   9.460
72693SOL     OW19911   7.979  13.125   3.077
72693SOL    HW119912   7.926  13.096   3.004
72693SOL    HW219913   7.991  13.219   3.063
72694SOL     OW19914   7.880   8.666   9.051
72694SOL    HW119915   7.829   8.643   8.974
72694SOL    HW219916   7.886   8.762   9.049
72695SOL     OW19917   3.524  14.576  13.122
72695SOL    HW119918   3.507  14.553  13.214
72695SOL    HW219919   3.619  14.582  13.116
72696SOL     OW19920   5.556   3.471   5.376
72696SOL    HW119921   5.552   3.507   5.287
72696SOL    HW219922   5.483   3.511   5.422
72697SOL     OW19923  12.686   6.077  10.985
72697SOL    HW119924  12.765   6.132  10.983
72697SOL    HW219925  12.649   6.085  10.897
72698SOL     OW19926  10.098   8.276   3.483
72698SOL    HW119927  10.045   8.279   3.403
72698SOL    HW219928  10.102   8.184   3.506
72699SOL     OW19929  12.281  10.507   1.112
72699SOL    HW119930  12.350  10.563   1.147
72699SOL    HW219931  12.319  10.470   1.032
72700SOL     OW19932   8.041  13.393   7.361
72700SOL    HW119933   8.082  13.326   7.307
72700SOL    HW219934   8.113  13.448   7.391
72701SOL     OW19935   7.587  11.370   4.196
72701SOL    HW119936   7.641  11.319   4.136
72701SOL    HW219937   7.534  11.305   4.243
72702SOL     OW19938   7.123  13.550   2.545
72702SOL    HW119939   7.114  13.606   2.622
72702SOL    HW219940   7.070  13.473   2.565
72703SOL     OW19941   0.136  10.991  13.326
72703SOL    HW119942   0.089  10.931  13.385
72703SOL    HW219943   0.226  10.991  13.359
72704SOL     OW19944   0.945  14.179  12.007
72704SOL    HW119945   1.021  14.124  12.026
72704SOL    HW219946   0.930  14.228  12.088
72705SOL     OW19947   7.329   4.795  11.844
72705SOL    HW119948   7.388   4.837  11.781
72705SOL    HW219949   7.254   4.853  11.850
72706SOL     OW19950  12.087   7.618   3.143
72706SOL    HW119951  12.143   7.545   3.117
72706SOL    HW219952  12.092   7.680   3.070
72707SOL     OW19953  14.051   5.054   8.190
72707SOL    HW119954  14.035   5.148   8.192
72707SOL    HW219955  14.043   5.030   8.098
72708SOL     OW19956   2.462  13.118   4.117
72708SOL    HW119957   2.478  13.043   4.060
72708SOL    HW219958   2.480  13.085   4.205
72709SOL     OW19959   4.669  11.916   7.529
72709SOL    HW119960   4.640  11.831   7.563
72709SOL    HW219961   4.666  11.905   7.434
72710SOL     OW19962  11.778   9.165   3.374
72710SOL    HW119963  11.696   9.148   3.327
72710SOL    HW219964  11.847   9.132   3.317
72711SOL     OW19965   7.480   2.234   5.528
72711SOL    HW119966   7.484   2.238   5.624
72711SOL    HW219967   7.499   2.143   5.507
72712SOL     OW19968   4.161  13.015   1.062
72712SOL    HW119969   4.214  13.009   1.142
72712SOL    HW219970   4.193  13.093   1.018
72713SOL     OW19971  14.154   1.087   0.732
72713SOL    HW119972  14.067   1.081   0.693
72713SOL    HW219973  14.145   1.154   0.801
72714SOL     OW19974   2.362  10.155   8.831
72714SOL    HW119975   2.427  10.225   8.828
72714SOL    HW219976   2.358  10.122   8.741
72715SOL     OW19977  13.604   8.194   2.544
72715SOL    HW119978  13.541   8.200   2.473
72715SOL    HW219979  13.552   8.208   2.623
72716SOL     OW19980   2.720  10.179   5.078
72716SOL    HW119981   2.732  10.274   5.082
72716SOL    HW219982   2.747  10.154   4.990
72717SOL     OW19983  10.020   0.744   4.519
72717SOL    HW119984   9.954   0.810   4.494
72717SOL    HW219985  10.087   0.750   4.451
72718SOL     OW19986   8.285   9.702  13.427
72718SOL    HW119987   8.338   9.631  13.392
72718SOL    HW219988   8.347   9.758  13.473
72719SOL     OW19989   4.868   9.111   9.400
72719SOL    HW119990   4.774   9.123   9.385
72719SOL    HW219991   4.883   9.017   9.388
72720SOL     OW19992  10.228   3.836   1.372
72720SOL    HW119993  10.232   3.797   1.285
72720SOL    HW219994  10.318   3.860   1.392
72721SOL     OW19995   0.377   0.461  13.607
72721SOL    HW119996   0.420   0.540  13.637
72721SOL    HW219997   0.344   0.484  13.520
72722SOL     OW19998   0.985   6.469   4.003
72722SOL    HW119999   0.938   6.512   3.931
72722SOL    HW220000   1.055   6.421   3.960
72723SOL     OW20001   1.722   1.535  10.017
72723SOL    HW120002   1.727   1.457  10.073
72723SOL    HW220003   1.721   1.608  10.079
72724SOL     OW20004   4.646  14.759   1.313
72724SOL    HW120005   4.715  14.825   1.307
72724SOL    HW220006   4.569  14.808   1.342
72725SOL     OW20007   3.128  11.415   8.566
72725SOL    HW120008   3.129  11.409   8.470
72725SOL    HW220009   3.117  11.325   8.596
72726SOL     OW20010   4.183   3.149   2.346
72726SOL    HW120011   4.240   3.114   2.277
72726SOL    HW220012   4.137   3.072   2.380
72727SOL     OW20013  12.349  11.130   7.841
72727SOL    HW120014  12.435  11.094   7.861
72727SOL    HW220015  12.360  11.225   7.847
72728SOL     OW20016   2.902   0.753   4.153
72728SOL    HW120017   2.853   0.732   4.232
72728SOL    HW220018   2.839   0.746   4.082
72729SOL     OW20019   8.877   7.304   8.531
72729SOL    HW120020   8.886   7.399   8.536
72729SOL    HW220021   8.791   7.287   8.569
72730SOL     OW20022   6.791   0.349  14.008
72730SOL    HW120023   6.805   0.437  13.972
72730SOL    HW220024   6.696   0.342  14.018
72731SOL     OW20025   0.398   6.063   2.722
72731SOL    HW120026   0.456   6.115   2.667
72731SOL    HW220027   0.323   6.120   2.740
72732SOL     OW20028   1.410   8.662   3.043
72732SOL    HW120029   1.502   8.675   3.064
72732SOL    HW220030   1.372   8.629   3.125
72733SOL     OW20031   8.616   2.448  11.626
72733SOL    HW120032   8.583   2.363  11.655
72733SOL    HW220033   8.587   2.455  11.535
72734SOL     OW20034   0.589   0.338   0.270
72734SOL    HW120035   0.546   0.420   0.249
72734SOL    HW220036   0.625   0.307   0.186
72735SOL     OW20037  11.676   5.906   9.203
72735SOL    HW120038  11.601   5.853   9.175
72735SOL    HW220039  11.735   5.844   9.245
72736SOL     OW20040   0.214   5.856   4.317
72736SOL    HW120041   0.152   5.886   4.384
72736SOL    HW220042   0.298   5.895   4.343
72737SOL     OW20043   8.023   6.872  10.168
72737SOL    HW120044   8.104   6.842  10.126
72737SOL    HW220045   8.010   6.811  10.240
72738SOL     OW20046  13.905  11.066   9.693
72738SOL    HW120047  13.913  11.125   9.768
72738SOL    HW220048  13.946  11.113   9.620
72739SOL     OW20049  12.614   1.770  10.399
72739SOL    HW120050  12.586   1.862  10.400
72739SOL    HW220051  12.665   1.760  10.480
72740SOL     OW20052  11.995  12.270   6.343
72740SOL    HW120053  12.075  12.322   6.336
72740SOL    HW220054  11.979  12.238   6.255
72741SOL     OW20055  10.102  10.853  10.544
72741SOL    HW120056  10.041  10.881  10.475
72741SOL    HW220057  10.060  10.879  10.625
72742SOL     OW20058  14.787   5.993   4.796
72742SOL    HW120059  14.708   5.999   4.742
72742SOL    HW220060  14.794   5.900   4.817
72743SOL     OW20061   9.938   9.666  13.964
72743SOL    HW120062   9.871   9.663  13.895
72743SOL    HW220063  10.012   9.712  13.923
72744SOL     OW20064   1.135   5.670   5.134
72744SOL    HW120065   1.137   5.601   5.067
72744SOL    HW220066   1.221   5.664   5.176
72745SOL     OW20067   8.824  14.172  10.869
72745SOL    HW120068   8.886  14.209  10.932
72745SOL    HW220069   8.878  14.120  10.809
72746SOL     OW20070   9.368   0.526  13.059
72746SOL    HW120071   9.285   0.515  13.012
72746SOL    HW220072   9.355   0.604  13.113
72747SOL     OW20073   5.426   0.111   7.250
72747SOL    HW120074   5.476   0.102   7.168
72747SOL    HW220075   5.387   0.025   7.264
72748SOL     OW20076   7.388   0.148   3.696
72748SOL    HW120077   7.318   0.170   3.757
72748SOL    HW220078   7.364   0.062   3.663
72749SOL     OW20079   0.730   1.452   1.411
72749SOL    HW120080   0.680   1.452   1.329
72749SOL    HW220081   0.805   1.395   1.394
72750SOL     OW20082   1.050  10.754   4.015
72750SOL    HW120083   1.093  10.679   3.974
72750SOL    HW220084   0.968  10.764   3.967
72751SOL     OW20085  12.333   4.646  13.255
72751SOL    HW120086  12.425   4.639  13.230
72751SOL    HW220087  12.321   4.739  13.274
72752SOL     OW20088   4.969   6.384  12.977
72752SOL    HW120089   4.969   6.305  13.031
72752SOL    HW220090   4.876   6.405  12.964
72753SOL     OW20091   9.588  13.852   4.545
72753SOL    HW120092   9.608  13.785   4.479
72753SOL    HW220093   9.552  13.803   4.618
72754SOL     OW20094   7.666   1.005   5.310
72754SOL    HW120095   7.633   0.928   5.356
72754SOL    HW220096   7.588   1.050   5.278
72755SOL     OW20097  14.839   7.499   9.210
72755SOL    HW120098   0.054   7.499   9.228
72755SOL    HW220099  14.831   7.450   9.128
72756SOL     OW20100   8.913  12.265   3.728
72756SOL    HW120101   8.956  12.350   3.740
72756SOL    HW220102   8.820  12.283   3.737
72757SOL     OW20103   8.907  10.592  14.796
72757SOL    HW120104   8.911  10.508  14.751
72757SOL    HW220105   8.998  10.616  14.812
72758SOL     OW20106   6.235   7.590   0.341
72758SOL    HW120107   6.192   7.547   0.415
72758SOL    HW220108   6.237   7.523   0.272
72759SOL     OW20109   3.112  13.640   1.571
72759SOL    HW120110   3.081  13.568   1.516
72759SOL    HW220111   3.156  13.699   1.510
72760SOL     OW20112  13.960   8.396   1.196
72760SOL    HW120113  13.922   8.379   1.110
72760SOL    HW220114  13.923   8.480   1.223
72761SOL     OW20115  13.301   3.273  11.344
72761SOL    HW120116  13.278   3.185  11.315
72761SOL    HW220117  13.344   3.260  11.429
72762SOL     OW20118  11.828  14.302  10.017
72762SOL    HW120119  11.884  14.334  10.088
72762SOL    HW220120  11.861  14.214   9.999
72763SOL     OW20121   1.459   0.639   0.149
72763SOL    HW120122   1.431   0.576   0.082
72763SOL    HW220123   1.462   0.587   0.230
72764SOL     OW20124   4.037   2.711  12.475
72764SOL    HW120125   4.063   2.670  12.558
72764SOL    HW220126   3.942   2.721  12.483
72765SOL     OW20127   8.127   7.821  12.372
72765SOL    HW120128   8.136   7.884  12.301
72765SOL    HW220129   8.036   7.790  12.365
72766SOL     OW20130   1.221   5.696   2.404
72766SOL    HW120131   1.220   5.604   2.378
72766SOL    HW220132   1.143   5.707   2.458
72767SOL     OW20133   9.738   8.696   1.195
72767SOL    HW120134   9.704   8.654   1.273
72767SOL    HW220135   9.736   8.627   1.128
72768SOL     OW20136   2.916   7.466   7.389
72768SOL    HW120137   2.865   7.525   7.445
72768SOL    HW220138   3.007   7.492   7.405
72769SOL     OW20139   2.507   5.513   5.031
72769SOL    HW120140   2.564   5.445   4.996
72769SOL    HW220141   2.420   5.491   4.998
72770SOL     OW20142   4.731   2.707   8.984
72770SOL    HW120143   4.729   2.734   9.076
72770SOL    HW220144   4.821   2.722   8.956
72771SOL     OW20145   2.904   1.802   1.332
72771SOL    HW120146   2.826   1.852   1.307
72771SOL    HW220147   2.926   1.750   1.255
72772SOL     OW20148   5.951   4.908   1.894
72772SOL    HW120149   5.961   4.829   1.841
72772SOL    HW220150   5.916   4.877   1.978
72773SOL     OW20151   3.836  10.782   3.963
72773SOL    HW120152   3.861  10.755   4.051
72773SOL    HW220153   3.740  10.788   3.966
72774SOL     OW20154   7.326   9.784   1.566
72774SOL    HW120155   7.405   9.740   1.535
72774SOL    HW220156   7.325   9.867   1.518
72775SOL     OW20157   0.065  14.535   0.560
72775SOL    HW120158   0.050  14.442   0.573
72775SOL    HW220159   0.010  14.578   0.625
72776SOL     OW20160   4.959   9.109  10.267
72776SOL    HW120161   4.965   9.117  10.172
72776SOL    HW220162   4.883   9.052  10.282
72777SOL     OW20163  11.591  10.995   8.809
72777SOL    HW120164  11.559  10.996   8.900
72777SOL    HW220165  11.635  10.910   8.800
72778SOL     OW20166  12.968  12.765  12.190
72778SOL    HW120167  12.927  12.852  12.191
72778SOL    HW220168  12.906  12.710  12.141
72779SOL     OW20169   4.271   1.738   3.246
72779SOL    HW120170   4.242   1.661   3.196
72779SOL    HW220171   4.288   1.704   3.334
72780SOL     OW20172   9.054   6.402  10.342
72780SOL    HW120173   9.042   6.494  10.368
72780SOL    HW220174   9.134   6.375  10.387
72781SOL     OW20175   8.443   6.166   0.939
72781SOL    HW120176   8.461   6.081   0.899
72781SOL    HW220177   8.487   6.162   1.024
72782SOL     OW20178   9.952  13.819  12.349
72782SOL    HW120179  10.043  13.809  12.377
72782SOL    HW220180   9.907  13.743  12.386
72783SOL     OW20181   5.835   6.033   6.005
72783SOL    HW120182   5.803   6.117   6.036
72783SOL    HW220183   5.879   6.053   5.922
72784SOL     OW20184   7.123   7.843   2.439
72784SOL    HW120185   7.213   7.839   2.408
72784SOL    HW220186   7.076   7.777   2.387
72785SOL     OW20187  13.348  13.271   6.894
72785SOL    HW120188  13.253  13.267   6.907
72785SOL    HW220189  13.382  13.298   6.979
72786SOL     OW20190   7.123   7.387   5.898
72786SOL    HW120191   7.157   7.452   5.959
72786SOL    HW220192   7.038   7.421   5.871
72787SOL     OW20193   9.598   4.388  10.556
72787SOL    HW120194   9.624   4.340  10.477
72787SOL    HW220195   9.555   4.322  10.611
72788SOL     OW20196   3.152  14.837  11.235
72788SOL    HW120197   3.083  14.849  11.300
72788SOL    HW220198   3.231  14.822  11.287
72789SOL     OW20199  10.518   7.919   4.102
72789SOL    HW120200  10.470   7.881   4.176
72789SOL    HW220201  10.600   7.950   4.139
72790SOL     OW20202  11.949  10.627   0.603
72790SOL    HW120203  12.032  10.582   0.620
72790SOL    HW220204  11.882  10.564   0.629
72791SOL     OW20205   7.455  12.808  14.701
72791SOL    HW120206   7.467  12.819  14.795
72791SOL    HW220207   7.396  12.733  14.693
72792SOL     OW20208  14.829  10.572   6.479
72792SOL    HW120209  14.754  10.513   6.472
72792SOL    HW220210   0.026  10.514   6.479
72793SOL     OW20211  11.841   5.163  14.507
72793SOL    HW120212  11.815   5.255  14.504
72793SOL    HW220213  11.930   5.164  14.542
72794SOL     OW20214   0.439  10.069   0.423
72794SOL    HW120215   0.440  10.112   0.338
72794SOL    HW220216   0.521  10.096   0.465
72795SOL     OW20217   8.936   1.219   8.295
72795SOL    HW120218   8.960   1.199   8.385
72795SOL    HW220219   8.967   1.143   8.245
72796SOL     OW20220  11.844  11.518   0.780
72796SOL    HW120221  11.759  11.560   0.767
72796SOL    HW220222  11.837  11.476   0.866
72797SOL     OW20223  10.081   8.382  14.530
72797SOL    HW120224  10.064   8.451  14.466
72797SOL    HW220225  10.167   8.348  14.504
72798SOL     OW20226  12.826   8.198   0.226
72798SOL    HW120227  12.854   8.164   0.141
72798SOL    HW220228  12.828   8.294   0.215
72799SOL     OW20229  10.112   1.130   5.135
72799SOL    HW120230  10.098   1.052   5.081
72799SOL    HW220231  10.199   1.116   5.174
72800SOL     OW20232  13.775   5.148   7.933
72800SOL    HW120233  13.687   5.112   7.945
72800SOL    HW220234  13.809   5.158   8.022
72801SOL     OW20235   5.966   8.249   1.323
72801SOL    HW120236   6.056   8.278   1.335
72801SOL    HW220237   5.932   8.302   1.251
72802SOL     OW20238   9.911   3.888  11.550
72802SOL    HW120239   9.863   3.962  11.515
72802SOL    HW220240   9.916   3.826  11.477
72803SOL     OW20241  10.315   6.396   9.405
72803SOL    HW120242  10.321   6.459   9.333
72803SOL    HW220243  10.335   6.448   9.483
72804SOL     OW20244  12.998   1.450   7.621
72804SOL    HW120245  12.964   1.516   7.561
72804SOL    HW220246  12.945   1.460   7.701
72805SOL     OW20247   2.034   0.966   0.558
72805SOL    HW120248   2.055   0.875   0.537
72805SOL    HW220249   1.938   0.968   0.560
72806SOL     OW20250  13.260  10.750  13.651
72806SOL    HW120251  13.237  10.790  13.567
72806SOL    HW220252  13.294  10.663  13.629
72807SOL     OW20253  13.894   0.517   7.441
72807SOL    HW120254  13.914   0.486   7.353
72807SOL    HW220255  13.885   0.612   7.431
72808SOL     OW20256   1.160   1.488  12.005
72808SOL    HW120257   1.255   1.486  12.016
72808SOL    HW220258   1.125   1.476  12.093
72809SOL     OW20259   0.346   0.485   7.158
72809SOL    HW120260   0.280   0.542   7.198
72809SOL    HW220261   0.420   0.543   7.140
72810SOL     OW20262   9.341   7.535   5.041
72810SOL    HW120263   9.335   7.465   4.977
72810SOL    HW220264   9.429   7.527   5.078
72811SOL     OW20265   3.736   1.607  12.349
72811SOL    HW120266   3.707   1.581  12.261
72811SOL    HW220267   3.813   1.662  12.333
72812SOL     OW20268  10.730  13.949   5.412
72812SOL    HW120269  10.707  13.937   5.320
72812SOL    HW220270  10.769  14.036   5.416
72813SOL     OW20271  11.148   7.852   6.281
72813SOL    HW120272  11.098   7.926   6.315
72813SOL    HW220273  11.239   7.874   6.298
72814SOL     OW20274   3.317  14.154   6.684
72814SOL    HW120275   3.249  14.151   6.752
72814SOL    HW220276   3.275  14.118   6.606
72815SOL     OW20277   2.908   0.280   0.567
72815SOL    HW120278   2.966   0.248   0.498
72815SOL    HW220279   2.946   0.245   0.648
72816SOL     OW20280   1.742  13.868   0.438
72816SOL    HW120281   1.738  13.882   0.533
72816SOL    HW220282   1.725  13.955   0.401
72817SOL     OW20283   7.813  12.244   9.599
72817SOL    HW120284   7.754  12.171   9.619
72817SOL    HW220285   7.763  12.299   9.539
72818SOL     OW20286  11.415   9.356  11.568
72818SOL    HW120287  11.482   9.366  11.500
72818SOL    HW220288  11.388   9.265  11.563
72819SOL     OW20289   1.323   5.655   1.523
72819SOL    HW120290   1.327   5.748   1.547
72819SOL    HW220291   1.389   5.613   1.578
72820SOL     OW20292   0.564  10.823   4.000
72820SOL    HW120293   0.471  10.819   3.979
72820SOL    HW220294   0.568  10.816   4.096
72821SOL     OW20295  11.930   7.311   7.375
72821SOL    HW120296  11.912   7.217   7.382
72821SOL    HW220297  11.975   7.320   7.291
72822SOL     OW20298   0.797   7.997   3.351
72822SOL    HW120299   0.886   7.962   3.354
72822SOL    HW220300   0.754   7.962   3.430
72823SOL     OW20301  13.048   0.127   2.878
72823SOL    HW120302  13.086   0.164   2.958
72823SOL    HW220303  12.987   0.193   2.847
72824SOL     OW20304   4.290   4.335   6.770
72824SOL    HW120305   4.238   4.292   6.702
72824SOL    HW220306   4.380   4.310   6.751
72825SOL     OW20307   4.149   3.714   4.675
72825SOL    HW120308   4.110   3.680   4.756
72825SOL    HW220309   4.243   3.716   4.693
72826SOL     OW20310   5.897   5.811   4.620
72826SOL    HW120311   5.969   5.748   4.618
72826SOL    HW220312   5.824   5.764   4.580
72827SOL     OW20313   4.547   1.655   0.215
72827SOL    HW120314   4.507   1.618   0.294
72827SOL    HW220315   4.569   1.745   0.238
72828SOL     OW20316   8.735  11.018   5.092
72828SOL    HW120317   8.704  11.098   5.135
72828SOL    HW220318   8.684  10.948   5.131
72829SOL     OW20319  11.644   3.343  14.092
72829SOL    HW120320  11.640   3.301  14.006
72829SOL    HW220321  11.599   3.282  14.151
72830SOL     OW20322   0.818  12.244   6.309
72830SOL    HW120323   0.772  12.263   6.227
72830SOL    HW220324   0.749  12.219   6.370
72831SOL     OW20325   5.790  11.827   7.588
72831SOL    HW120326   5.786  11.783   7.504
72831SOL    HW220327   5.754  11.763   7.650
72832SOL     OW20328   4.664  10.610  11.310
72832SOL    HW120329   4.657  10.625  11.404
72832SOL    HW220330   4.581  10.643  11.274
72833SOL     OW20331   2.832   4.586   8.381
72833SOL    HW120332   2.842   4.648   8.453
72833SOL    HW220333   2.922   4.565   8.355
72834SOL     OW20334  11.097   5.896   0.054
72834SOL    HW120335  11.058   5.957   0.117
72834SOL    HW220336  11.191   5.911   0.062
72835SOL     OW20337   1.142   7.709   4.190
72835SOL    HW120338   1.209   7.732   4.254
72835SOL    HW220339   1.155   7.615   4.175
72836SOL     OW20340   6.693   9.412  14.356
72836SOL    HW120341   6.682   9.343  14.290
72836SOL    HW220342   6.649   9.488  14.319
72837SOL     OW20343  10.526  13.701   1.158
72837SOL    HW120344  10.454  13.725   1.099
72837SOL    HW220345  10.484  13.650   1.227
72838SOL     OW20346   7.217   4.450   8.374
72838SOL    HW120347   7.202   4.545   8.369
72838SOL    HW220348   7.197   4.418   8.286
72839SOL     OW20349   9.623   8.636   9.765
72839SOL    HW120350   9.664   8.722   9.763
72839SOL    HW220351   9.554   8.641   9.698
72840SOL     OW20352   7.947   1.602   3.056
72840SOL    HW120353   7.954   1.690   3.017
72840SOL    HW220354   7.875   1.611   3.120
72841SOL     OW20355   0.009   8.569   8.050
72841SOL    HW120356   0.022   8.600   8.140
72841SOL    HW220357   0.004   8.649   7.998
72842SOL     OW20358   6.149  14.265   6.875
72842SOL    HW120359   6.066  14.315   6.875
72842SOL    HW220360   6.137  14.200   6.806
72843SOL     OW20361   9.680   8.880   9.676
72843SOL    HW120362   9.642   8.908   9.593
72843SOL    HW220363   9.632   8.930   9.742
72844SOL     OW20364   8.441   4.483   2.163
72844SOL    HW120365   8.490   4.540   2.222
72844SOL    HW220366   8.450   4.524   2.077
72845SOL     OW20367   3.684   0.044   6.376
72845SOL    HW120368   3.729  14.841   6.395
72845SOL    HW220369   3.706   0.063   6.285
72846SOL     OW20370   4.159  10.642   7.945
72846SOL    HW120371   4.171  10.644   7.850
72846SOL    HW220372   4.085  10.701   7.961
72847SOL     OW20373   7.175   6.633   6.997
72847SOL    HW120374   7.223   6.595   6.924
72847SOL    HW220375   7.215   6.720   7.008
72848SOL     OW20376  13.181   4.714  14.064
72848SOL    HW120377  13.130   4.738  14.141
72848SOL    HW220378  13.131   4.748  13.990
72849SOL     OW20379   6.005   0.982   0.787
72849SOL    HW120380   6.038   0.987   0.876
72849SOL    HW220381   6.074   0.937   0.738
72850SOL     OW20382   9.104   9.597   7.853
72850SOL    HW120383   9.014   9.583   7.826
72850SOL    HW220384   9.148   9.628   7.774
72851SOL     OW20385   5.719  11.913   5.497
72851SOL    HW120386   5.681  11.887   5.413
72851SOL    HW220387   5.717  11.833   5.550
72852SOL     OW20388  12.675   0.512  12.742
72852SOL    HW120389  12.626   0.551  12.669
72852SOL    HW220390  12.767   0.534  12.723
72853SOL     OW20391   6.072  13.981  10.466
72853SOL    HW120392   6.101  14.031  10.542
72853SOL    HW220393   5.987  14.019  10.444
72854SOL     OW20394  13.284  13.062   3.719
72854SOL    HW120395  13.331  12.978   3.719
72854SOL    HW220396  13.343  13.122   3.674
72855SOL     OW20397  14.847  10.216   4.262
72855SOL    HW120398   0.053  10.196   4.221
72855SOL    HW220399  14.832  10.308   4.241
72856SOL     OW20400  12.842   9.080   5.098
72856SOL    HW120401  12.866   9.172   5.107
72856SOL    HW220402  12.888   9.050   5.020
72857SOL     OW20403   9.537   0.024   2.779
72857SOL    HW120404   9.536  14.846   2.856
72857SOL    HW220405   9.550  14.844   2.705
72858SOL     OW20406   3.335   2.666   8.070
72858SOL    HW120407   3.367   2.643   7.983
72858SOL    HW220408   3.248   2.704   8.054
72859SOL     OW20409  10.521   5.641   6.542
72859SOL    HW120410  10.443   5.649   6.487
72859SOL    HW220411  10.486   5.628   6.630
72860SOL     OW20412   5.385   0.817   3.930
72860SOL    HW120413   5.433   0.871   3.993
72860SOL    HW220414   5.324   0.879   3.887
72861SOL     OW20415  14.038   6.221  10.421
72861SOL    HW120416  14.039   6.162  10.496
72861SOL    HW220417  14.130   6.239  10.403
72862SOL     OW20418   1.866   8.985   5.130
72862SOL    HW120419   1.929   9.057   5.121
72862SOL    HW220420   1.794   9.009   5.072
72863SOL     OW20421   5.758  11.960   8.074
72863SOL    HW120422   5.735  11.868   8.088
72863SOL    HW220423   5.699  11.989   8.004
72864SOL     OW20424   0.675   1.498   0.859
72864SOL    HW120425   0.714   1.410   0.866
72864SOL    HW220426   0.581   1.483   0.862
72865SOL     OW20427  10.988   3.970  12.067
72865SOL    HW120428  10.919   3.927  12.116
72865SOL    HW220429  11.062   3.910  12.070
72866SOL     OW20430   0.529   7.145   7.480
72866SOL    HW120431   0.620   7.174   7.474
72866SOL    HW220432   0.513   7.098   7.399
72867SOL     OW20433  13.573  12.145   0.804
72867SOL    HW120434  13.639  12.097   0.754
72867SOL    HW220435  13.493  12.137   0.751
72868SOL     OW20436  10.936   9.592   6.387
72868SOL    HW120437  11.021   9.549   6.388
72868SOL    HW220438  10.877   9.529   6.346
72869SOL     OW20439   8.242   9.913   2.593
72869SOL    HW120440   8.239   9.846   2.662
72869SOL    HW220441   8.179   9.882   2.528
72870SOL     OW20442  10.479  10.947   9.280
72870SOL    HW120443  10.529  10.943   9.362
72870SOL    HW220444  10.483  11.039   9.254
72871SOL     OW20445   2.021   8.653   4.680
72871SOL    HW120446   2.068   8.620   4.604
72871SOL    HW220447   2.085   8.653   4.751
72872SOL     OW20448   1.362   5.676   1.936
72872SOL    HW120449   1.428   5.649   1.873
72872SOL    HW220450   1.383   5.768   1.954
72873SOL     OW20451   9.135   9.464   6.624
72873SOL    HW120452   9.205   9.487   6.562
72873SOL    HW220453   9.058   9.509   6.591
72874SOL     OW20454   1.872   7.437   7.031
72874SOL    HW120455   1.779   7.425   7.015
72874SOL    HW220456   1.906   7.348   7.044
72875SOL     OW20457  13.069   8.753   8.291
72875SOL    HW120458  13.094   8.661   8.301
72875SOL    HW220459  13.074   8.788   8.380
72876SOL     OW20460  13.043   7.468   2.202
72876SOL    HW120461  13.014   7.382   2.172
72876SOL    HW220462  12.963   7.520   2.205
72877SOL     OW20463  14.440   4.523  10.180
72877SOL    HW120464  14.384   4.595  10.153
72877SOL    HW220465  14.419   4.452  10.119
72878SOL     OW20466   4.018   7.302  12.809
72878SOL    HW120467   4.041   7.209  12.818
72878SOL    HW220468   4.033   7.322  12.717
72879SOL     OW20469  11.521   9.521  13.263
72879SOL    HW120470  11.525   9.576  13.341
72879SOL    HW220471  11.481   9.440  13.292
72880SOL     OW20472  14.264   8.679  10.104
72880SOL    HW120473  14.354   8.689  10.136
72880SOL    HW220474  14.272   8.623  10.027
72881SOL     OW20475  13.599   3.087  11.283
72881SOL    HW120476  13.670   3.062  11.224
72881SOL    HW220477  13.529   3.116  11.225
72882SOL     OW20478   2.925   4.227  13.705
72882SOL    HW120479   2.838   4.263  13.724
72882SOL    HW220480   2.907   4.149  13.652
72883SOL     OW20481   9.358   2.518   9.622
72883SOL    HW120482   9.411   2.455   9.671
72883SOL    HW220483   9.401   2.524   9.537
72884SOL     OW20484  11.127   1.955   4.959
72884SOL    HW120485  11.065   1.929   4.891
72884SOL    HW220486  11.126   2.051   4.956
72885SOL     OW20487   1.457  14.824   8.084
72885SOL    HW120488   1.441   0.026   8.036
72885SOL    HW220489   1.550  14.828   8.107
72886SOL     OW20490  10.502   9.377  12.482
72886SOL    HW120491  10.583   9.352  12.528
72886SOL    HW220492  10.481   9.463  12.517
72887SOL     OW20493   1.477   5.782   6.796
72887SOL    HW120494   1.467   5.774   6.701
72887SOL    HW220495   1.403   5.836   6.823
72888SOL     OW20496   3.339   4.129  12.693
72888SOL    HW120497   3.393   4.208  12.700
72888SOL    HW220498   3.378   4.080  12.621
72889SOL     OW20499  10.118  13.278  14.294
72889SOL    HW120500  10.204  13.299  14.329
72889SOL    HW220501  10.076  13.363  14.279
72890SOL     OW20502   0.090   1.404   2.374
72890SOL    HW120503   0.124   1.400   2.463
72890SOL    HW220504   0.061   1.495   2.363
72891SOL     OW20505  14.174   2.518  14.465
72891SOL    HW120506  14.086   2.503  14.431
72891SOL    HW220507  14.195   2.438  14.513
72892SOL     OW20508   0.186   1.199   9.094
72892SOL    HW120509   0.116   1.136   9.112
72892SOL    HW220510   0.166   1.234   9.008
72893SOL     OW20511  10.623   4.158   4.818
72893SOL    HW120512  10.654   4.070   4.796
72893SOL    HW220513  10.529   4.155   4.803
72894SOL     OW20514   6.597  11.069   0.896
72894SOL    HW120515   6.598  10.991   0.951
72894SOL    HW220516   6.515  11.113   0.918
72895SOL     OW20517   4.811  13.424   7.346
72895SOL    HW120518   4.823  13.498   7.405
72895SOL    HW220519   4.748  13.367   7.391
72896SOL     OW20520   1.413   5.281   3.999
72896SOL    HW120521   1.356   5.223   4.049
72896SOL    HW220522   1.487   5.297   4.057
72897SOL     OW20523   5.490   5.186   7.152
72897SOL    HW120524   5.574   5.230   7.141
72897SOL    HW220525   5.440   5.243   7.210
72898SOL     OW20526   9.500  14.544   7.481
72898SOL    HW120527   9.547  14.535   7.398
72898SOL    HW220528   9.475  14.454   7.503
72899SOL     OW20529  12.573   9.672  12.133
72899SOL    HW120530  12.661   9.697  12.159
72899SOL    HW220531  12.520   9.680  12.212
72900SOL     OW20532   5.007   8.550   8.570
72900SOL    HW120533   4.947   8.625   8.570
72900SOL    HW220534   4.976   8.496   8.497
72901SOL     OW20535   4.425  10.799   0.648
72901SOL    HW120536   4.507  10.792   0.696
72901SOL    HW220537   4.450  10.830   0.561
72902SOL     OW20538   1.717   9.276   8.651
72902SOL    HW120539   1.740   9.344   8.588
72902SOL    HW220540   1.712   9.323   8.735
72903SOL     OW20541   1.389   5.130   5.212
72903SOL    HW120542   1.453   5.202   5.209
72903SOL    HW220543   1.304   5.174   5.219
72904SOL     OW20544  13.377   1.071   6.516
72904SOL    HW120545  13.320   1.133   6.469
72904SOL    HW220546  13.425   1.026   6.446
72905SOL     OW20547   4.741  11.070   1.949
72905SOL    HW120548   4.806  11.075   1.879
72905SOL    HW220549   4.769  11.137   2.012
72906SOL     OW20550  13.203   5.711   6.801
72906SOL    HW120551  13.125   5.739   6.850
72906SOL    HW220552  13.209   5.773   6.729
72907SOL     OW20553   2.362   7.361   3.635
72907SOL    HW120554   2.276   7.401   3.649
72907SOL    HW220555   2.398   7.351   3.723
72908SOL     OW20556   0.040   9.019   5.295
72908SOL    HW120557  14.838   8.973   5.313
72908SOL    HW220558   0.098   8.951   5.259
72909SOL     OW20559   9.944   8.118  13.347
72909SOL    HW120560  10.039   8.126  13.336
72909SOL    HW220561   9.909   8.133  13.259
72910SOL     OW20562   2.739   7.162   5.330
72910SOL    HW120563   2.771   7.201   5.412
72910SOL    HW220564   2.687   7.087   5.357
72911SOL     OW20565   2.803  11.687  14.727
72911SOL    HW120566   2.798  11.626  14.800
72911SOL    HW220567   2.875  11.653  14.673
72912SOL     OW20568  10.238   2.510   6.954
72912SOL    HW120569  10.232   2.427   7.002
72912SOL    HW220570  10.332   2.520   6.936
72913SOL     OW20571   4.174   2.070   9.251
72913SOL    HW120572   4.138   2.139   9.307
72913SOL    HW220573   4.153   2.099   9.162
72914SOL     OW20574   6.522  13.182  10.487
72914SOL    HW120575   6.461  13.252  10.510
72914SOL    HW220576   6.609  13.221  10.497
72915SOL     OW20577   0.354   2.700   4.087
72915SOL    HW120578   0.412   2.776   4.091
72915SOL    HW220579   0.286   2.725   4.024
72916SOL     OW20580   4.779   8.488   3.189
72916SOL    HW120581   4.844   8.555   3.169
72916SOL    HW220582   4.761   8.446   3.105
72917SOL     OW20583   7.856   7.996   0.880
72917SOL    HW120584   7.929   7.987   0.819
72917SOL    HW220585   7.778   7.999   0.824
72918SOL     OW20586  11.420   3.490   3.755
72918SOL    HW120587  11.352   3.473   3.819
72918SOL    HW220588  11.502   3.474   3.802
72919SOL     OW20589   9.931  12.669   1.590
72919SOL    HW120590   9.959  12.722   1.516
72919SOL    HW220591   9.842  12.699   1.609
72920SOL     OW20592  10.648   2.589   1.060
72920SOL    HW120593  10.558   2.556   1.054
72920SOL    HW220594  10.644   2.656   1.128
72921SOL     OW20595  14.295  13.400   0.824
72921SOL    HW120596  14.261  13.341   0.891
72921SOL    HW220597  14.330  13.342   0.756
72922SOL     OW20598  12.599   3.695   8.100
72922SOL    HW120599  12.673   3.728   8.150
72922SOL    HW220600  12.602   3.600   8.111
72923SOL     OW20601  10.251  10.590  12.556
72923SOL    HW120602  10.290  10.659  12.502
72923SOL    HW220603  10.323  10.529  12.574
72924SOL     OW20604   1.378   4.681  12.486
72924SOL    HW120605   1.382   4.775  12.467
72924SOL    HW220606   1.398   4.675  12.579
72925SOL     OW20607  13.758   9.570   0.623
72925SOL    HW120608  13.715   9.513   0.687
72925SOL    HW220609  13.777   9.650   0.671
72926SOL     OW20610   3.533   6.935   8.733
72926SOL    HW120611   3.473   6.999   8.772
72926SOL    HW220612   3.617   6.982   8.727
72927SOL     OW20613  12.732  13.974  13.624
72927SOL    HW120614  12.799  14.019  13.573
72927SOL    HW220615  12.751  13.999  13.715
72928SOL     OW20616   5.119   4.023  13.214
72928SOL    HW120617   5.154   3.940  13.246
72928SOL    HW220618   5.187   4.087  13.232
72929SOL     OW20619   3.591   1.731   1.913
72929SOL    HW120620   3.584   1.738   1.817
72929SOL    HW220621   3.597   1.637   1.929
72930SOL     OW20622   2.394  14.815   7.760
72930SOL    HW120623   2.452   0.004   7.725
72930SOL    HW220624   2.347  14.858   7.831
72931SOL     OW20625  10.034   2.637  13.316
72931SOL    HW120626   9.964   2.691  13.281
72931SOL    HW220627  10.046   2.567  13.252
72932SOL     OW20628   0.473   2.937  14.283
72932SOL    HW120629   0.552   2.926  14.231
72932SOL    HW220630   0.495   2.902  14.369
72933SOL     OW20631   3.953   5.487   3.316
72933SOL    HW120632   4.032   5.488   3.370
72933SOL    HW220633   3.907   5.568   3.340
72934SOL     OW20634   6.163   4.171  14.212
72934SOL    HW120635   6.250   4.156  14.176
72934SOL    HW220636   6.176   4.170  14.307
72935SOL     OW20637  12.119   0.698   7.842
72935SOL    HW120638  12.103   0.730   7.753
72935SOL    HW220639  12.034   0.706   7.886
72936SOL     OW20640   5.435  11.257   0.478
72936SOL    HW120641   5.360  11.200   0.458
72936SOL    HW220642   5.495  11.243   0.405
72937SOL     OW20643  12.407   7.201  14.421
72937SOL    HW120644  12.441   7.264  14.485
72937SOL    HW220645  12.441   7.232  14.337
72938SOL     OW20646   5.474  14.623  11.120
72938SOL    HW120647   5.489  14.686  11.190
72938SOL    HW220648   5.555  14.626  11.068
72939SOL     OW20649  11.393   6.607   2.631
72939SOL    HW120650  11.311   6.599   2.679
72939SOL    HW220651  11.423   6.696   2.648
72940SOL     OW20652   3.566   7.170  10.296
72940SOL    HW120653   3.510   7.245  10.278
72940SOL    HW220654   3.635   7.174  10.229
72941SOL     OW20655   0.453   0.319   4.124
72941SOL    HW120656   0.476   0.403   4.164
72941SOL    HW220657   0.369   0.336   4.080
72942SOL     OW20658   1.880   5.703  10.315
72942SOL    HW120659   1.902   5.656  10.235
72942SOL    HW220660   1.836   5.783  10.285
72943SOL     OW20661   4.016   8.043  11.509
72943SOL    HW120662   4.044   7.996  11.587
72943SOL    HW220663   3.981   8.126  11.541
72944SOL     OW20664  13.284   9.053  13.467
72944SOL    HW120665  13.278   9.140  13.427
72944SOL    HW220666  13.340   9.003  13.407
72945SOL     OW20667   1.242   1.941  11.130
72945SOL    HW120668   1.303   1.950  11.203
72945SOL    HW220669   1.158   1.970  11.165
72946SOL     OW20670   0.103   0.633   2.598
72946SOL    HW120671   0.017   0.624   2.640
72946SOL    HW220672   0.094   0.585   2.516
72947SOL     OW20673  13.661   2.403   7.246
72947SOL    HW120674  13.602   2.455   7.299
72947SOL    HW220675  13.734   2.382   7.304
72948SOL     OW20676  12.671   3.821   9.589
72948SOL    HW120677  12.577   3.800   9.588
72948SOL    HW220678  12.700   3.793   9.676
72949SOL     OW20679   2.059   1.806   7.293
72949SOL    HW120680   2.013   1.782   7.374
72949SOL    HW220681   2.006   1.875   7.255
72950SOL     OW20682   9.822   1.099   4.483
72950SOL    HW120683   9.755   1.161   4.453
72950SOL    HW220684   9.779   1.014   4.478
72951SOL     OW20685   4.232   9.745   3.143
72951SOL    HW120686   4.285   9.773   3.068
72951SOL    HW220687   4.145   9.780   3.125
72952SOL     OW20688   0.628   2.083   1.223
72952SOL    HW120689   0.557   2.021   1.208
72952SOL    HW220690   0.693   2.063   1.156
72953SOL     OW20691   0.812  14.063   3.349
72953SOL    HW120692   0.878  14.098   3.408
72953SOL    HW220693   0.734  14.115   3.367
72954SOL     OW20694  10.409  10.871  10.548
72954SOL    HW120695  10.315  10.889  10.550
72954SOL    HW220696  10.436  10.875  10.639
72955SOL     OW20697  13.537  14.444   7.794
72955SOL    HW120698  13.611  14.502   7.777
72955SOL    HW220699  13.497  14.430   7.708
72956SOL     OW20700   4.134   1.449  13.219
72956SOL    HW120701   4.048   1.421  13.252
72956SOL    HW220702   4.152   1.388  13.147
72957SOL     OW20703   7.953   9.379   0.075
72957SOL    HW120704   7.988   9.327   0.003
72957SOL    HW220705   8.015   9.367   0.146
72958SOL     OW20706   5.008   9.895   9.817
72958SOL    HW120707   5.080   9.904   9.754
72958SOL    HW220708   4.961   9.816   9.790
72959SOL     OW20709   8.768   6.470  13.729
72959SOL    HW120710   8.728   6.383  13.724
72959SOL    HW220711   8.798   6.476  13.820
72960SOL     OW20712   2.002   3.831   2.836
72960SOL    HW120713   2.077   3.825   2.895
72960SOL    HW220714   2.038   3.809   2.750
72961SOL     OW20715   5.480   2.944   2.932
72961SOL    HW120716   5.500   2.917   3.022
72961SOL    HW220717   5.385   2.940   2.926
72962SOL     OW20718  14.750  10.791   8.927
72962SOL    HW120719  14.692  10.750   8.992
72962SOL    HW220720  14.770  10.877   8.964
72963SOL     OW20721   8.097   6.110   7.191
72963SOL    HW120722   8.190   6.097   7.176
72963SOL    HW220723   8.085   6.205   7.187
72964SOL     OW20724   1.216   9.446   4.247
72964SOL    HW120725   1.173   9.364   4.270
72964SOL    HW220726   1.154   9.514   4.274
72965SOL     OW20727  13.319  10.714  10.643
72965SOL    HW120728  13.295  10.763  10.565
72965SOL    HW220729  13.259  10.639  10.644
72966SOL     OW20730   0.123  13.984   0.217
72966SOL    HW120731   0.073  14.058   0.249
72966SOL    HW220732   0.060  13.930   0.170
72967SOL     OW20733   7.432  12.631  13.042
72967SOL    HW120734   7.370  12.588  12.983
72967SOL    HW220735   7.385  12.639  13.124
72968SOL     OW20736   6.408   5.440   7.593
72968SOL    HW120737   6.503   5.453   7.594
72968SOL    HW220738   6.380   5.473   7.508
72969SOL     OW20739   2.079   3.790   6.277
72969SOL    HW120740   1.998   3.835   6.300
72969SOL    HW220741   2.091   3.725   6.346
72970SOL     OW20742   7.053  13.083   5.832
72970SOL    HW120743   7.148  13.088   5.824
72970SOL    HW220744   7.038  13.034   5.913
72971SOL     OW20745  14.786   7.780   3.222
72971SOL    HW120746  14.735   7.861   3.230
72971SOL    HW220747  14.819   7.764   3.310
72972SOL     OW20748   2.464   3.105   2.901
72972SOL    HW120749   2.517   3.090   2.823
72972SOL    HW220750   2.383   3.056   2.884
72973SOL     OW20751  11.470   6.654  13.650
72973SOL    HW120752  11.552   6.665  13.602
72973SOL    HW220753  11.495   6.608  13.730
72974SOL     OW20754   4.032  14.093   7.028
72974SOL    HW120755   3.959  14.083   6.966
72974SOL    HW220756   4.098  14.031   6.997
72975SOL     OW20757  10.526   3.547  11.780
72975SOL    HW120758  10.554   3.516  11.866
72975SOL    HW220759  10.546   3.475  11.720
72976SOL     OW20760   4.868  12.738  10.642
72976SOL    HW120761   4.775  12.738  10.620
72976SOL    HW220762   4.872  12.699  10.730
72977SOL     OW20763   4.298  10.448  10.825
72977SOL    HW120764   4.317  10.510  10.755
72977SOL    HW220765   4.251  10.377  10.781
72978SOL     OW20766   8.329   6.219  10.148
72978SOL    HW120767   8.368   6.299  10.111
72978SOL    HW220768   8.346   6.152  10.082
72979SOL     OW20769   5.689  12.116  12.164
72979SOL    HW120770   5.783  12.133  12.176
72979SOL    HW220771   5.654  12.111  12.252
72980SOL     OW20772   7.888   5.481   1.259
72980SOL    HW120773   7.794   5.463   1.252
72980SOL    HW220774   7.929   5.417   1.201
72981SOL     OW20775   3.598  12.033   8.428
72981SOL    HW120776   3.674  12.022   8.372
72981SOL    HW220777   3.578  11.945   8.459
72982SOL     OW20778   7.091  10.898   0.667
72982SOL    HW120779   7.108  10.824   0.725
72982SOL    HW220780   6.996  10.900   0.658
72983SOL     OW20781   1.177  13.542   6.676
72983SOL    HW120782   1.225  13.583   6.748
72983SOL    HW220783   1.143  13.461   6.712
72984SOL     OW20784  13.267   5.148  11.672
72984SOL    HW120785  13.243   5.085  11.740
72984SOL    HW220786  13.262   5.099  11.590
72985SOL     OW20787   2.279  11.315  10.907
72985SOL    HW120788   2.355  11.353  10.951
72985SOL    HW220789   2.305  11.226  10.886
72986SOL     OW20790   0.010   8.307   6.223
72986SOL    HW120791  14.845   8.383   6.262
72986SOL    HW220792   0.020   8.246   6.296
72987SOL     OW20793   5.658   7.257  10.427
72987SOL    HW120794   5.659   7.352  10.437
72987SOL    HW220795   5.745   7.229  10.457
72988SOL     OW20796   3.640  12.016   0.326
72988SOL    HW120797   3.633  11.948   0.259
72988SOL    HW220798   3.554  12.057   0.328
72989SOL     OW20799   1.923   9.901  10.971
72989SOL    HW120800   1.853   9.928  11.030
72989SOL    HW220801   1.908   9.807  10.957
72990SOL     OW20802  14.059  13.186   2.329
72990SOL    HW120803  14.056  13.231   2.244
72990SOL    HW220804  14.144  13.210   2.365
72991SOL     OW20805  14.868   2.062   4.548
72991SOL    HW120806  14.794   2.002   4.558
72991SOL    HW220807   0.061   2.007   4.519
72992SOL     OW20808   5.671   4.479   2.848
72992SOL    HW120809   5.767   4.476   2.855
72992SOL    HW220810   5.644   4.389   2.863
72993SOL     OW20811   4.086   4.049   4.204
72993SOL    HW120812   4.157   4.026   4.145
72993SOL    HW220813   4.065   3.968   4.251
72994SOL     OW20814  13.115   3.017   7.251
72994SOL    HW120815  13.190   3.050   7.202
72994SOL    HW220816  13.106   3.077   7.326
72995SOL     OW20817   6.364  11.519   7.692
72995SOL    HW120818   6.303  11.455   7.727
72995SOL    HW220819   6.393  11.481   7.609
72996SOL     OW20820   5.318  12.436  14.433
72996SOL    HW120821   5.383  12.476  14.375
72996SOL    HW220822   5.369  12.382  14.493
72997SOL     OW20823  10.239   1.126   3.807
72997SOL    HW120824  10.321   1.106   3.854
72997SOL    HW220825  10.185   1.048   3.819
72998SOL     OW20826  14.214   4.446   1.934
72998SOL    HW120827  14.220   4.403   1.848
72998SOL    HW220828  14.276   4.519   1.929
72999SOL     OW20829   8.643   9.401   4.065
72999SOL    HW120830   8.573   9.436   4.008
72999SOL    HW220831   8.620   9.433   4.152
73000SOL     OW20832   4.445   9.746  13.818
73000SOL    HW120833   4.488   9.763  13.734
73000SOL    HW220834   4.355   9.726  13.795
73001SOL     OW20835   9.139  14.352   5.459
73001SOL    HW120836   9.229  14.343   5.490
73001SOL    HW220837   9.136  14.300   5.378
73002SOL     OW20838   9.460   2.471   6.556
73002SOL    HW120839   9.552   2.490   6.572
73002SOL    HW220840   9.418   2.557   6.550
73003SOL     OW20841   6.990  14.789   6.630
73003SOL    HW120842   6.912  14.778   6.575
73003SOL    HW220843   7.063  14.761   6.575
73004SOL     OW20844   3.356  10.985  11.239
73004SOL    HW120845   3.310  10.993  11.322
73004SOL    HW220846   3.402  11.069  11.230
73005SOL     OW20847   9.430   4.465   2.314
73005SOL    HW120848   9.488   4.540   2.332
73005SOL    HW220849   9.474   4.417   2.244
73006SOL     OW20850   3.842   2.296  13.087
73006SOL    HW120851   3.777   2.227  13.071
73006SOL    HW220852   3.795   2.359  13.142
73007SOL     OW20853   7.311   8.324   3.754
73007SOL    HW120854   7.400   8.354   3.733
73007SOL    HW220855   7.317   8.296   3.846
73008SOL     OW20856   3.246  13.647   4.297
73008SOL    HW120857   3.327  13.666   4.344
73008SOL    HW220858   3.218  13.731   4.262
73009SOL     OW20859   8.322   1.393  14.227
73009SOL    HW120860   8.326   1.396  14.322
73009SOL    HW220861   8.271   1.315  14.207
73010SOL     OW20862  10.392   0.218  12.631
73010SOL    HW120863  10.466   0.254  12.681
73010SOL    HW220864  10.423   0.132  12.602
73011SOL     OW20865   2.033   5.070   9.133
73011SOL    HW120866   2.101   5.059   9.200
73011SOL    HW220867   1.987   4.986   9.131
73012SOL     OW20868   4.024  11.350  10.329
73012SOL    HW120869   3.959  11.373  10.395
73012SOL    HW220870   3.992  11.268  10.292
73013SOL     OW20871   7.633   1.100   1.768
73013SOL    HW120872   7.685   1.022   1.750
73013SOL    HW220873   7.696   1.165   1.801
73014SOL     OW20874   3.054   2.571   8.655
73014SOL    HW120875   3.045   2.480   8.681
73014SOL    HW220876   2.965   2.603   8.648
73015SOL     OW20877  12.885  10.049   3.177
73015SOL    HW120878  12.918  10.017   3.093
73015SOL    HW220879  12.802  10.093   3.155
73016SOL     OW20880   8.680   8.224   9.137
73016SOL    HW120881   8.719   8.311   9.138
73016SOL    HW220882   8.605   8.231   9.197
73017SOL     OW20883   6.686   9.274  12.085
73017SOL    HW120884   6.654   9.273  12.175
73017SOL    HW220885   6.648   9.353  12.047
73018SOL     OW20886   0.300   2.093   1.450
73018SOL    HW120887   0.379   2.092   1.397
73018SOL    HW220888   0.245   2.161   1.411
73019SOL     OW20889  12.256   1.368   5.685
73019SOL    HW120890  12.295   1.358   5.772
73019SOL    HW220891  12.277   1.459   5.660
73020SOL     OW20892   6.731  12.109  10.700
73020SOL    HW120893   6.663  12.161  10.744
73020SOL    HW220894   6.760  12.046  10.767
73021SOL     OW20895   9.215   1.301   6.485
73021SOL    HW120896   9.306   1.319   6.508
73021SOL    HW220897   9.217   1.214   6.446
73022SOL     OW20898   5.173   6.394   5.025
73022SOL    HW120899   5.161   6.303   5.054
73022SOL    HW220900   5.233   6.431   5.089
73023SOL     OW20901  10.728   3.847   3.129
73023SOL    HW120902  10.716   3.927   3.078
73023SOL    HW220903  10.645   3.835   3.175
73024SOL     OW20904  12.678  12.609  10.965
73024SOL    HW120905  12.646  12.698  10.980
73024SOL    HW220906  12.628  12.555  11.026
73025SOL     OW20907  11.692   9.272   6.900
73025SOL    HW120908  11.691   9.293   6.993
73025SOL    HW220909  11.640   9.191   6.894
73026SOL     OW20910  13.519   7.871  10.872
73026SOL    HW120911  13.448   7.837  10.927
73026SOL    HW220912  13.583   7.907  10.935
73027SOL     OW20913   9.957   2.804   6.347
73027SOL    HW120914   9.961   2.801   6.252
73027SOL    HW220915  10.048   2.810   6.375
73028SOL     OW20916  14.243  11.968   4.758
73028SOL    HW120917  14.158  12.009   4.769
73028SOL    HW220918  14.253  11.911   4.835
73029SOL     OW20919   0.135  12.864   5.158
73029SOL    HW120920   0.065  12.913   5.115
73029SOL    HW220921   0.100  12.841   5.244
73030SOL     OW20922  14.197  10.932   7.977
73030SOL    HW120923  14.252  11.008   7.994
73030SOL    HW220924  14.256  10.868   7.938
73031SOL     OW20925  11.081   0.014   3.167
73031SOL    HW120926  11.108  14.859   3.082
73031SOL    HW220927  11.073   0.109   3.153
73032SOL     OW20928   5.429   4.022   7.086
73032SOL    HW120929   5.487   3.954   7.051
73032SOL    HW220930   5.345   4.008   7.041
73033SOL     OW20931   7.458  13.599  11.810
73033SOL    HW120932   7.506  13.574  11.889
73033SOL    HW220933   7.496  13.545  11.741
73034SOL     OW20934   5.420   2.440   9.194
73034SOL    HW120935   5.332   2.472   9.172
73034SOL    HW220936   5.457   2.414   9.110
73035SOL     OW20937  14.777   6.582  10.832
73035SOL    HW120938  14.790   6.488  10.817
73035SOL    HW220939  14.717   6.609  10.763
73036SOL     OW20940  10.031  10.262   7.885
73036SOL    HW120941  10.109  10.316   7.874
73036SOL    HW220942  10.030  10.240   7.978
73037SOL     OW20943   5.382   3.224   7.781
73037SOL    HW120944   5.399   3.150   7.722
73037SOL    HW220945   5.463   3.275   7.780
73038SOL     OW20946   7.920   4.172  11.655
73038SOL    HW120947   7.960   4.085  11.656
73038SOL    HW220948   7.872   4.175  11.572
73039SOL     OW20949   1.003   2.607   3.909
73039SOL    HW120950   1.073   2.603   3.974
73039SOL    HW220951   0.922   2.600   3.959
73040SOL     OW20952  14.076   7.839   3.327
73040SOL    HW120953  14.154   7.874   3.286
73040SOL    HW220954  14.009   7.842   3.258
73041SOL     OW20955   8.958  11.213  11.637
73041SOL    HW120956   8.879  11.253  11.600
73041SOL    HW220957   8.998  11.167  11.564
73042SOL     OW20958   3.527  10.490  13.901
73042SOL    HW120959   3.503  10.499  13.993
73042SOL    HW220960   3.599  10.551  13.888
73043SOL     OW20961   3.314   8.237  14.328
73043SOL    HW120962   3.295   8.250  14.235
73043SOL    HW220963   3.273   8.311  14.372
73044SOL     OW20964   6.069  14.750   2.638
73044SOL    HW120965   5.997  14.762   2.699
73044SOL    HW220966   6.103  14.838   2.622
73045SOL     OW20967  13.604   2.259   4.111
73045SOL    HW120968  13.665   2.266   4.038
73045SOL    HW220969  13.562   2.174   4.099
73046SOL     OW20970   2.502   7.835   5.585
73046SOL    HW120971   2.418   7.865   5.617
73046SOL    HW220972   2.563   7.906   5.606
73047SOL     OW20973   0.319   1.565  11.606
73047SOL    HW120974   0.294   1.579  11.697
73047SOL    HW220975   0.353   1.476  11.603
73048SOL     OW20976   0.514   4.528  10.402
73048SOL    HW120977   0.514   4.612  10.355
73048SOL    HW220978   0.577   4.539  10.472
73049SOL     OW20979  10.209   1.334  10.606
73049SOL    HW120980  10.150   1.346  10.531
73049SOL    HW220981  10.198   1.242  10.630
73050SOL     OW20982   2.737   8.150   5.932
73050SOL    HW120983   2.770   8.071   5.975
73050SOL    HW220984   2.666   8.180   5.989
73051SOL     OW20985  11.779   4.324   6.561
73051SOL    HW120986  11.786   4.390   6.630
73051SOL    HW220987  11.743   4.370   6.486
73052SOL     OW20988   4.041  12.895  13.496
73052SOL    HW120989   3.950  12.923  13.481
73052SOL    HW220990   4.093  12.974  13.479
73053SOL     OW20991   2.361  10.035  11.900
73053SOL    HW120992   2.431   9.970  11.906
73053SOL    HW220993   2.407  10.119  11.893
73054SOL     OW20994   9.600   7.257   1.256
73054SOL    HW120995   9.672   7.308   1.293
73054SOL    HW220996   9.522   7.310   1.272
73055SOL     OW20997  11.173  14.704   3.321
73055SOL    HW120998  11.118  14.775   3.288
73055SOL    HW220999  11.197  14.733   3.409
73056SOL     OW21000  13.773   1.933   7.212
73056SOL    HW121001  13.858   1.964   7.245
73056SOL    HW221002  13.764   1.975   7.127
73057SOL     OW21003  12.205   4.125   9.223
73057SOL    HW121004  12.133   4.188   9.231
73057SOL    HW221005  12.264   4.147   9.295
73058SOL     OW21006   5.137   7.111  10.922
73058SOL    HW121007   5.127   7.095  10.828
73058SOL    HW221008   5.202   7.181  10.928
73059SOL     OW21009   6.482   8.460   2.900
73059SOL    HW121010   6.551   8.445   2.835
73059SOL    HW221011   6.525   8.508   2.970
73060SOL     OW21012   5.660   3.449   4.855
73060SOL    HW121013   5.612   3.402   4.788
73060SOL    HW221014   5.727   3.497   4.807
73061SOL     OW21015   4.580   0.951   8.664
73061SOL    HW121016   4.552   0.966   8.754
73061SOL    HW221017   4.507   0.980   8.610
73062SOL     OW21018   8.166  13.177  11.855
73062SOL    HW121019   8.180  13.266  11.886
73062SOL    HW221020   8.175  13.182  11.760
73063SOL     OW21021   9.604  11.280   4.095
73063SOL    HW121022   9.653  11.270   4.177
73063SOL    HW221023   9.595  11.375   4.084
73064SOL     OW21024   3.943   0.843   8.630
73064SOL    HW121025   3.922   0.808   8.543
73064SOL    HW221026   3.897   0.784   8.690
73065SOL     OW21027   6.192   4.314  13.377
73065SOL    HW121028   6.121   4.280  13.323
73065SOL    HW221029   6.175   4.408  13.384
73066SOL     OW21030   8.652   9.342   3.389
73066SOL    HW121031   8.628   9.425   3.431
73066SOL    HW221032   8.575   9.318   3.338
73067SOL     OW21033   0.512   4.675   9.794
73067SOL    HW121034   0.587   4.706   9.743
73067SOL    HW221035   0.495   4.745   9.857
73068SOL     OW21036   2.482   8.383  14.709
73068SOL    HW121037   2.571   8.381  14.675
73068SOL    HW221038   2.485   8.443  14.783
73069SOL     OW21039  14.561   6.903   3.328
73069SOL    HW121040  14.510   6.867   3.400
73069SOL    HW221041  14.650   6.870   3.342
73070SOL     OW21042  13.984   9.672   6.795
73070SOL    HW121043  14.049   9.629   6.851
73070SOL    HW221044  13.947   9.741   6.850
73071SOL     OW21045   5.200   2.094   3.821
73071SOL    HW121046   5.165   2.163   3.765
73071SOL    HW221047   5.267   2.051   3.767
73072SOL     OW21048   0.483   6.413  14.769
73072SOL    HW121049   0.484   6.327  14.813
73072SOL    HW221050   0.445   6.395  14.683
73073SOL     OW21051   9.831   2.439   5.052
73073SOL    HW121052   9.770   2.507   5.023
73073SOL    HW221053   9.827   2.372   4.984
73074SOL     OW21054  10.816   8.126  13.068
73074SOL    HW121055  10.773   8.051  13.111
73074SOL    HW221056  10.810   8.106  12.975
73075SOL     OW21057  13.789  12.073  10.509
73075SOL    HW121058  13.768  12.084  10.416
73075SOL    HW221059  13.871  12.121  10.521
73076SOL     OW21060   6.630  10.270   9.131
73076SOL    HW121061   6.677  10.230   9.204
73076SOL    HW221062   6.628  10.363   9.151
73077SOL     OW21063   3.879  10.451   4.770
73077SOL    HW121064   3.932  10.375   4.794
73077SOL    HW221065   3.880  10.453   4.674
73078SOL     OW21066   5.028   0.425   1.529
73078SOL    HW121067   5.026   0.443   1.435
73078SOL    HW221068   4.978   0.344   1.539
73079SOL     OW21069   3.782  12.681   0.051
73079SOL    HW121070   3.735  12.693   0.133
73079SOL    HW221071   3.829  12.599   0.062
73080SOL     OW21072  13.990   5.418   7.846
73080SOL    HW121073  14.048   5.348   7.876
73080SOL    HW221074  13.993   5.483   7.917
73081SOL     OW21075  12.229  11.756   9.385
73081SOL    HW121076  12.218  11.846   9.354
73081SOL    HW221077  12.235  11.763   9.480
73082SOL     OW21078   7.642   9.185   9.559
73082SOL    HW121079   7.587   9.162   9.484
73082SOL    HW221080   7.721   9.132   9.549
73083SOL     OW21081   4.827   0.504   7.807
73083SOL    HW121082   4.893   0.483   7.873
73083SOL    HW221083   4.754   0.445   7.826
73084SOL     OW21084   7.457   1.066  11.932
73084SOL    HW121085   7.413   1.150  11.920
73084SOL    HW221086   7.541   1.076  11.887
73085SOL     OW21087   8.292   6.454  12.742
73085SOL    HW121088   8.250   6.433  12.659
73085SOL    HW221089   8.281   6.549  12.752
73086SOL     OW21090   9.648   5.287  14.831
73086SOL    HW121091   9.553   5.292  14.842
73086SOL    HW221092   9.683   5.353   0.012
73087SOL     OW21093  13.770   5.827  13.322
73087SOL    HW121094  13.717   5.748  13.311
73087SOL    HW221095  13.742   5.862  13.407
73088SOL     OW21096   2.097  12.881  13.921
73088SOL    HW121097   2.036  12.825  13.969
73088SOL    HW221098   2.178  12.877  13.973
73089SOL     OW21099   4.727   4.723  11.940
73089SOL    HW121100   4.653   4.678  11.980
73089SOL    HW221101   4.779   4.654  11.900
73090SOL     OW21102  14.726  14.374  12.317
73090SOL    HW121103  14.752  14.370  12.225
73090SOL    HW221104  14.807  14.391  12.364
73091SOL     OW21105   8.672  11.240  12.056
73091SOL    HW121106   8.715  11.260  11.972
73091SOL    HW221107   8.741  11.197  12.108
73092SOL     OW21108   6.060  11.243  10.252
73092SOL    HW121109   6.033  11.190  10.178
73092SOL    HW221110   6.074  11.180  10.323
73093SOL     OW21111  13.302   1.670  12.899
73093SOL    HW121112  13.266   1.707  12.818
73093SOL    HW221113  13.377   1.619  12.871
73094SOL     OW21114   2.231   6.079  12.589
73094SOL    HW121115   2.267   6.167  12.602
73094SOL    HW221116   2.278   6.024  12.650
73095SOL     OW21117   9.649  11.421  14.506
73095SOL    HW121118   9.655  11.513  14.481
73095SOL    HW221119   9.736  11.386  14.490
73096SOL     OW21120  12.696   2.815   3.413
73096SOL    HW121121  12.708   2.910   3.424
73096SOL    HW221122  12.684   2.803   3.319
73097SOL     OW21123   8.120   6.128   4.808
73097SOL    HW121124   8.209   6.093   4.798
73097SOL    HW221125   8.128   6.220   4.784
73098SOL     OW21126   9.467   7.714  11.707
73098SOL    HW121127   9.497   7.633  11.666
73098SOL    HW221128   9.373   7.716  11.691
73099SOL     OW21129   8.279  10.061   2.333
73099SOL    HW121130   8.275  10.077   2.239
73099SOL    HW221131   8.222  10.128   2.371
73100SOL     OW21132  10.332  12.482  13.501
73100SOL    HW121133  10.343  12.523  13.415
73100SOL    HW221134  10.321  12.555  13.562
73101SOL     OW21135  10.043   8.761   1.758
73101SOL    HW121136  10.031   8.833   1.696
73101SOL    HW221137  10.137   8.752   1.766
73102SOL     OW21138   7.758  12.075  13.744
73102SOL    HW121139   7.706  12.155  13.749
73102SOL    HW221140   7.842  12.103  13.707
73103SOL     OW21141   1.197  13.615   9.631
73103SOL    HW121142   1.122  13.556   9.628
73103SOL    HW221143   1.175  13.684   9.567
73104SOL     OW21144   3.892   4.360   4.390
73104SOL    HW121145   3.797   4.348   4.392
73104SOL    HW221146   3.904   4.440   4.339
73105SOL     OW21147  14.319   9.418   8.073
73105SOL    HW121148  14.233   9.376   8.074
73105SOL    HW221149  14.302   9.507   8.105
73106SOL     OW21150   6.454  14.834   6.686
73106SOL    HW121151   6.540  14.821   6.727
73106SOL    HW221152   6.394  14.848   6.759
73107SOL     OW21153  14.170   4.598   2.300
73107SOL    HW121154  14.094   4.540   2.289
73107SOL    HW221155  14.229   4.549   2.358
73108SOL     OW21156   6.606   4.743   3.048
73108SOL    HW121157   6.672   4.812   3.049
73108SOL    HW221158   6.537   4.777   2.990
73109SOL     OW21159   0.675   3.534  13.453
73109SOL    HW121160   0.672   3.597  13.525
73109SOL    HW221161   0.615   3.464  13.480
73110SOL     OW21162   5.700   8.655  11.067
73110SOL    HW121163   5.647   8.720  11.113
73110SOL    HW221164   5.691   8.679  10.974
73111SOL     OW21165   1.060   8.210   3.666
73111SOL    HW121166   1.077   8.264   3.743
73111SOL    HW221167   0.982   8.159   3.690
73112SOL     OW21168   7.404   7.723   3.358
73112SOL    HW121169   7.474   7.708   3.421
73112SOL    HW221170   7.365   7.637   3.344
73113SOL     OW21171   2.615   3.652   1.703
73113SOL    HW121172   2.685   3.589   1.718
73113SOL    HW221173   2.544   3.600   1.665
73114SOL     OW21174   8.114   6.620   4.525
73114SOL    HW121175   8.149   6.654   4.443
73114SOL    HW221176   8.052   6.687   4.554
73115SOL     OW21177   2.521   8.911  14.758
73115SOL    HW121178   2.463   8.968  14.809
73115SOL    HW221179   2.510   8.941  14.668
73116SOL     OW21180  10.267   5.435   6.604
73116SOL    HW121181  10.254   5.530   6.597
73116SOL    HW221182  10.232   5.399   6.523
73117SOL     OW21183  12.925   1.540   1.671
73117SOL    HW121184  12.908   1.446   1.670
73117SOL    HW221185  12.848   1.578   1.713
73118SOL     OW21186  14.608  13.115   6.271
73118SOL    HW121187  14.680  13.058   6.247
73118SOL    HW221188  14.532  13.056   6.278
73119SOL     OW21189  14.457   0.771   3.275
73119SOL    HW121190  14.421   0.860   3.270
73119SOL    HW221191  14.406   0.729   3.345
73120SOL     OW21192   2.779   7.837   5.962
73120SOL    HW121193   2.802   7.745   5.955
73120SOL    HW221194   2.826   7.869   6.039
73121SOL     OW21195   6.599   7.939  13.551
73121SOL    HW121196   6.670   7.949  13.487
73121SOL    HW221197   6.596   7.845  13.568
73122SOL     OW21198  11.618   8.560   1.142
73122SOL    HW121199  11.708   8.535   1.122
73122SOL    HW221200  11.564   8.493   1.100
73123SOL     OW21201   3.639  13.157   3.647
73123SOL    HW121202   3.649  13.156   3.742
73123SOL    HW221203   3.546  13.170   3.632
73124SOL     OW21204  12.185   3.822   5.941
73124SOL    HW121205  12.260   3.815   6.000
73124SOL    HW221206  12.214   3.779   5.860
73125SOL     OW21207  12.009  10.494   4.040
73125SOL    HW121208  12.009  10.554   3.966
73125SOL    HW221209  12.057  10.540   4.109
73126SOL     OW21210  12.508   8.776   1.651
73126SOL    HW121211  12.568   8.780   1.725
73126SOL    HW221212  12.555   8.821   1.580
73127SOL     OW21213   1.748   1.740  14.306
73127SOL    HW121214   1.682   1.809  14.308
73127SOL    HW221215   1.739   1.700  14.220
73128SOL     OW21216   1.123   2.971   4.611
73128SOL    HW121217   1.203   2.918   4.611
73128SOL    HW221218   1.129   3.024   4.531
73129SOL     OW21219  14.783  11.540  13.281
73129SOL    HW121220  14.724  11.530  13.206
73129SOL    HW221221  14.732  11.508  13.355
73130SOL     OW21222   1.517  10.693  11.169
73130SOL    HW121223   1.571  10.698  11.090
73130SOL    HW221224   1.427  10.700  11.137
73131SOL     OW21225  12.804  12.895   5.676
73131SOL    HW121226  12.844  12.914   5.592
73131SOL    HW221227  12.868  12.924   5.741
73132SOL     OW21228   2.864   4.706   3.963
73132SOL    HW121229   2.809   4.637   4.000
73132SOL    HW221230   2.950   4.665   3.954
73133SOL     OW21231   4.258   7.319   2.692
73133SOL    HW121232   4.236   7.311   2.785
73133SOL    HW221233   4.353   7.331   2.691
73134SOL     OW21234   5.630  10.982   6.630
73134SOL    HW121235   5.592  10.939   6.553
73134SOL    HW221236   5.724  10.977   6.617
73135SOL     OW21237   5.867  12.658   1.155
73135SOL    HW121238   5.852  12.582   1.098
73135SOL    HW221239   5.899  12.726   1.097
73136SOL     OW21240  12.116   7.826   5.388
73136SOL    HW121241  12.114   7.745   5.440
73136SOL    HW221242  12.119   7.797   5.297
73137SOL     OW21243  11.254   7.734   5.815
73137SOL    HW121244  11.336   7.731   5.865
73137SOL    HW221245  11.186   7.750   5.881
73138SOL     OW21246   3.852   0.113  10.079
73138SOL    HW121247   3.817   0.118   9.990
73138SOL    HW221248   3.941   0.148  10.073
73139SOL     OW21249   6.350   6.791   6.043
73139SOL    HW121250   6.446   6.787   6.046
73139SOL    HW221251   6.325   6.829   6.127
73140SOL     OW21252  13.628   3.104   9.561
73140SOL    HW121253  13.573   3.058   9.624
73140SOL    HW221254  13.625   3.049   9.482
73141SOL     OW21255  10.817   1.560   5.398
73141SOL    HW121256  10.757   1.625   5.361
73141SOL    HW221257  10.897   1.609   5.417
73142SOL     OW21258  14.361  14.181   0.403
73142SOL    HW121259  14.439  14.136   0.372
73142SOL    HW221260  14.391  14.234   0.477
73143SOL     OW21261   3.411  11.179   1.817
73143SOL    HW121262   3.427  11.268   1.785
73143SOL    HW221263   3.370  11.192   1.903
73144SOL     OW21264   0.388  10.238   7.314
73144SOL    HW121265   0.476  10.269   7.293
73144SOL    HW221266   0.349  10.216   7.230
73145SOL     OW21267   0.380   9.494   5.205
73145SOL    HW121268   0.330   9.546   5.142
73145SOL    HW221269   0.385   9.407   5.165
73146SOL     OW21270   7.509   9.261   1.458
73146SOL    HW121271   7.493   9.188   1.398
73146SOL    HW221272   7.436   9.321   1.444
73147SOL     OW21273  11.727  10.389   8.945
73147SOL    HW121274  11.695  10.377   9.034
73147SOL    HW221275  11.705  10.480   8.924
73148SOL     OW21276  13.469  12.426   2.213
73148SOL    HW121277  13.501  12.373   2.140
73148SOL    HW221278  13.548  12.449   2.262
73149SOL     OW21279   4.922  12.769  10.039
73149SOL    HW121280   4.995  12.827  10.015
73149SOL    HW221281   4.915  12.777  10.134
73150SOL     OW21282  12.800  10.118  14.414
73150SOL    HW121283  12.888  10.112  14.378
73150SOL    HW221284  12.766  10.201  14.382
73151SOL     OW21285  13.957   6.800  10.390
73151SOL    HW121286  14.024   6.775  10.326
73151SOL    HW221287  13.906   6.720  10.403
73152SOL     OW21288  12.730  11.191   9.214
73152SOL    HW121289  12.744  11.202   9.120
73152SOL    HW221290  12.665  11.121   9.221
73153SOL     OW21291  14.714   3.175   5.799
73153SOL    HW121292  14.679   3.157   5.887
73153SOL    HW221293  14.757   3.260   5.808
73154SOL     OW21294   2.503   7.550   1.376
73154SOL    HW121295   2.557   7.625   1.351
73154SOL    HW221296   2.562   7.494   1.425
73155SOL     OW21297  10.105   9.576   4.620
73155SOL    HW121298  10.047   9.574   4.544
73155SOL    HW221299  10.185   9.533   4.590
73156SOL     OW21300  12.797   9.680   9.124
73156SOL    HW121301  12.872   9.622   9.112
73156SOL    HW221302  12.797   9.698   9.218
73157SOL     OW21303   4.024   1.079   5.482
73157SOL    HW121304   3.957   1.137   5.444
73157SOL    HW221305   3.980   1.035   5.554
73158SOL     OW21306  14.826  11.478   9.505
73158SOL    HW121307  14.869  11.561   9.527
73158SOL    HW221308  14.870  11.449   9.425
73159SOL     OW21309   4.636   0.767  13.987
73159SOL    HW121310   4.668   0.747  14.075
73159SOL    HW221311   4.560   0.710  13.975
73160SOL     OW21312  11.522   5.489  12.106
73160SOL    HW121313  11.452   5.539  12.148
73160SOL    HW221314  11.557   5.548  12.039
73161SOL     OW21315   1.898   3.721   5.694
73161SOL    HW121316   1.820   3.738   5.747
73161SOL    HW221317   1.950   3.800   5.702
73162SOL     OW21318   3.752   1.553   7.635
73162SOL    HW121319   3.660   1.538   7.613
73162SOL    HW221320   3.753   1.641   7.673
73163SOL     OW21321   1.679   4.368   9.077
73163SOL    HW121322   1.745   4.393   9.013
73163SOL    HW221323   1.597   4.363   9.027
73164SOL     OW21324  11.416   0.947   6.208
73164SOL    HW121325  11.366   0.877   6.168
73164SOL    HW221326  11.421   0.924   6.301
73165SOL     OW21327   2.752  13.852   7.485
73165SOL    HW121328   2.798  13.784   7.535
73165SOL    HW221329   2.822  13.912   7.458
73166SOL     OW21330  10.534   1.433  13.370
73166SOL    HW121331  10.490   1.471  13.294
73166SOL    HW221332  10.486   1.467  13.446
73167SOL     OW21333   8.730   9.219   1.186
73167SOL    HW121334   8.696   9.158   1.121
73167SOL    HW221335   8.661   9.284   1.197
73168SOL     OW21336   0.282   4.023  11.042
73168SOL    HW121337   0.198   3.978  11.036
73168SOL    HW221338   0.322   4.011  10.957
73169SOL     OW21339  11.298  13.141   4.692
73169SOL    HW121340  11.331  13.228   4.667
73169SOL    HW221341  11.344  13.121   4.773
73170SOL     OW21342   4.022   1.653  13.400
73170SOL    HW121343   4.003   1.729  13.345
73170SOL    HW221344   4.116   1.660  13.418
73171SOL     OW21345  10.274  14.733   9.447
73171SOL    HW121346  10.223  14.701   9.521
73171SOL    HW221347  10.315  14.813   9.479
73172SOL     OW21348   6.882   6.988  12.869
73172SOL    HW121349   6.906   6.978  12.776
73172SOL    HW221350   6.919   7.073  12.894
73173SOL     OW21351  14.644   3.068   8.276
73173SOL    HW121352  14.712   3.099   8.217
73173SOL    HW221353  14.685   3.066   8.362
73174SOL     OW21354  10.565   4.766   2.979
73174SOL    HW121355  10.563   4.813   2.896
73174SOL    HW221356  10.615   4.686   2.961
73175SOL     OW21357  11.409   5.628   9.859
73175SOL    HW121358  11.354   5.626   9.937
73175SOL    HW221359  11.498   5.638   9.893
73176SOL     OW21360   5.660   2.263  13.042
73176SOL    HW121361   5.693   2.186  13.087
73176SOL    HW221362   5.712   2.269  12.962
73177SOL     OW21363   7.772   4.698  12.303
73177SOL    HW121364   7.763   4.617  12.355
73177SOL    HW221365   7.866   4.705  12.286
73178SOL     OW21366   6.222   9.666   1.020
73178SOL    HW121367   6.313   9.696   1.031
73178SOL    HW221368   6.230   9.574   0.993
73179SOL     OW21369   6.286   1.908   3.055
73179SOL    HW121370   6.299   1.819   3.020
73179SOL    HW221371   6.249   1.957   2.982
73180SOL     OW21372   0.554   8.410   3.064
73180SOL    HW121373   0.563   8.367   3.150
73180SOL    HW221374   0.644   8.435   3.040
73181SOL     OW21375   7.967   2.022   2.544
73181SOL    HW121376   7.961   1.947   2.604
73181SOL    HW221377   7.949   2.098   2.600
73182SOL     OW21378   9.933  11.986   8.264
73182SOL    HW121379   9.958  11.918   8.202
73182SOL    HW221380  10.005  11.990   8.326
73183SOL     OW21381   7.134   0.742   8.451
73183SOL    HW121382   7.112   0.834   8.463
73183SOL    HW221383   7.160   0.711   8.538
73184SOL     OW21384   5.856   2.489   5.457
73184SOL    HW121385   5.887   2.425   5.392
73184SOL    HW221386   5.855   2.572   5.410
73185SOL     OW21387   4.400   2.456   8.655
73185SOL    HW121388   4.330   2.517   8.679
73185SOL    HW221389   4.466   2.467   8.724
73186SOL     OW21390   5.687   7.860   0.540
73186SOL    HW121391   5.763   7.917   0.527
73186SOL    HW221392   5.614   7.909   0.502
73187SOL     OW21393   2.180  11.527   5.097
73187SOL    HW121394   2.115  11.527   5.026
73187SOL    HW221395   2.147  11.462   5.160
73188SOL     OW21396   7.529  10.564  12.882
73188SOL    HW121397   7.531  10.659  12.873
73188SOL    HW221398   7.612  10.534  12.845
73189SOL     OW21399   4.067   4.830   7.157
73189SOL    HW121400   4.154   4.798   7.182
73189SOL    HW221401   4.007   4.760   7.182
73190SOL     OW21402   9.554  10.899  11.933
73190SOL    HW121403   9.622  10.859  11.879
73190SOL    HW221404   9.532  10.980  11.888
73191SOL     OW21405   0.862   2.014  10.895
73191SOL    HW121406   0.851   1.937  10.838
73191SOL    HW221407   0.820   2.085  10.848
73192SOL     OW21408   9.186   8.610  11.407
73192SOL    HW121409   9.101   8.606  11.450
73192SOL    HW221410   9.236   8.538  11.446
73193SOL     OW21411   8.475  12.394   0.103
73193SOL    HW121412   8.510  12.471   0.147
73193SOL    HW221413   8.469  12.327   0.171
73194SOL     OW21414  12.257   7.733   5.793
73194SOL    HW121415  12.278   7.684   5.714
73194SOL    HW221416  12.213   7.812   5.762
73195SOL     OW21417   4.715  12.014  11.762
73195SOL    HW121418   4.763  12.026  11.680
73195SOL    HW221419   4.768  12.061  11.827
73196SOL     OW21420   7.075  11.160  11.634
73196SOL    HW121421   7.034  11.160  11.721
73196SOL    HW221422   7.040  11.237  11.590
73197SOL     OW21423   1.013  10.220   2.742
73197SOL    HW121424   0.954  10.261   2.806
73197SOL    HW221425   0.957  10.160   2.693
73198SOL     OW21426   1.183  11.986  13.136
73198SOL    HW121427   1.097  11.945  13.125
73198SOL    HW221428   1.166  12.066  13.187
73199SOL     OW21429  12.531   7.985   8.119
73199SOL    HW121430  12.562   8.049   8.055
73199SOL    HW221431  12.444   7.960   8.088
73200SOL     OW21432   4.588  14.286  10.781
73200SOL    HW121433   4.545  14.347  10.720
73200SOL    HW221434   4.518  14.226  10.807
73201SOL     OW21435   6.715   5.619  12.161
73201SOL    HW121436   6.679   5.545  12.209
73201SOL    HW221437   6.648   5.687  12.168
73202SOL     OW21438  13.226  11.815  10.424
73202SOL    HW121439  13.243  11.863  10.504
73202SOL    HW221440  13.312  11.789  10.392
73203SOL     OW21441  11.370   3.866  11.238
73203SOL    HW121442  11.433   3.937  11.221
73203SOL    HW221443  11.310   3.903  11.303
73204SOL     OW21444   5.740   7.604  13.148
73204SOL    HW121445   5.736   7.690  13.106
73204SOL    HW221446   5.651   7.588  13.180
73205SOL     OW21447  14.185   5.317   5.257
73205SOL    HW121448  14.247   5.369   5.207
73205SOL    HW221449  14.187   5.354   5.345
73206SOL     OW21450  10.704   5.079  11.870
73206SOL    HW121451  10.719   5.075  11.775
73206SOL    HW221452  10.628   5.023  11.884
73207SOL     OW21453  12.372   0.095  13.527
73207SOL    HW121454  12.382  14.879  13.530
73207SOL    HW221455  12.409   0.126  13.609
73208SOL     OW21456   8.859  10.263  14.687
73208SOL    HW121457   8.781  10.214  14.713
73208SOL    HW221458   8.829  10.319  14.615
73209SOL     OW21459  11.796   1.245   7.627
73209SOL    HW121460  11.792   1.156   7.591
73209SOL    HW221461  11.810   1.301   7.550
73210SOL     OW21462   7.183  10.752  11.325
73210SOL    HW121463   7.193  10.679  11.386
73210SOL    HW221464   7.158  10.826  11.380
73211SOL     OW21465   7.515  11.436   6.991
73211SOL    HW121466   7.517  11.388   7.074
73211SOL    HW221467   7.555  11.377   6.928
73212SOL     OW21468  10.009   0.677   8.656
73212SOL    HW121469  10.056   0.672   8.573
73212SOL    HW221470   9.923   0.712   8.633
73213SOL     OW21471   9.772   3.815   5.900
73213SOL    HW121472   9.803   3.807   5.991
73213SOL    HW221473   9.676   3.811   5.908
73214SOL     OW21474   3.440   5.995   1.059
73214SOL    HW121475   3.442   5.929   0.989
73214SOL    HW221476   3.392   6.069   1.021
73215SOL     OW21477   4.559   0.791   7.109
73215SOL    HW121478   4.601   0.840   7.179
73215SOL    HW221479   4.483   0.751   7.150
73216SOL     OW21480   6.414   7.558   9.622
73216SOL    HW121481   6.459   7.536   9.703
73216SOL    HW221482   6.484   7.570   9.558
73217SOL     OW21483   6.614   9.836   0.821
73217SOL    HW121484   6.624   9.931   0.829
73217SOL    HW221485   6.689   9.809   0.768
73218SOL     OW21486   9.405   4.010   6.585
73218SOL    HW121487   9.438   3.960   6.510
73218SOL    HW221488   9.332   3.958   6.618
73219SOL     OW21489   3.917   9.338  11.051
73219SOL    HW121490   4.005   9.317  11.084
73219SOL    HW221491   3.892   9.416  11.100
73220SOL     OW21492  14.870  12.050   3.634
73220SOL    HW121493  14.837  12.062   3.546
73220SOL    HW221494   0.078  12.012   3.623
73221SOL     OW21495  14.858   7.107  14.043
73221SOL    HW121496   0.004   7.195  14.068
73221SOL    HW221497  14.775   7.092  14.087
73222SOL     OW21498   9.037  14.529  13.655
73222SOL    HW121499   8.998  14.473  13.587
73222SOL    HW221500   9.064  14.608  13.609
73223SOL     OW21501  11.712  11.200   8.108
73223SOL    HW121502  11.748  11.289   8.108
73223SOL    HW221503  11.782  11.146   8.144
73224SOL     OW21504   5.086   4.553   3.656
73224SOL    HW121505   5.020   4.511   3.602
73224SOL    HW221506   5.105   4.490   3.726
73225SOL     OW21507  13.906   5.136   2.320
73225SOL    HW121508  13.834   5.109   2.377
73225SOL    HW221509  13.983   5.137   2.377
73226SOL     OW21510  11.057   7.718   9.723
73226SOL    HW121511  11.104   7.791   9.763
73226SOL    HW221512  11.030   7.750   9.637
73227SOL     OW21513   3.825   2.135  14.539
73227SOL    HW121514   3.817   2.229  14.528
73227SOL    HW221515   3.778   2.116  14.621
73228SOL     OW21516  11.276  10.560   2.493
73228SOL    HW121517  11.273  10.471   2.458
73228SOL    HW221518  11.219  10.610   2.436
73229SOL     OW21519   5.584   5.910   0.643
73229SOL    HW121520   5.568   5.904   0.549
73229SOL    HW221521   5.545   5.994   0.669
73230SOL     OW21522   6.322   4.629   6.494
73230SOL    HW121523   6.334   4.667   6.581
73230SOL    HW221524   6.376   4.550   6.494
73231SOL     OW21525   4.754  10.045   9.258
73231SOL    HW121526   4.793  10.112   9.202
73231SOL    HW221527   4.688  10.003   9.203
73232SOL     OW21528   2.106  14.459   8.664
73232SOL    HW121529   2.172  14.518   8.700
73232SOL    HW221530   2.038  14.455   8.730
73233SOL     OW21531  10.286   9.123  14.873
73233SOL    HW121532  10.291   9.180   0.071
73233SOL    HW221533  10.266   9.181  14.800
73234SOL     OW21534   9.558   4.100   1.155
73234SOL    HW121535   9.538   4.157   1.080
73234SOL    HW221536   9.540   4.155   1.232
73235SOL     OW21537   2.457  10.880   9.852
73235SOL    HW121538   2.519  10.837   9.911
73235SOL    HW221539   2.371  10.849   9.880
73236SOL     OW21540   9.996   2.133   1.679
73236SOL    HW121541   9.929   2.199   1.697
73236SOL    HW221542  10.069   2.182   1.642
73237SOL     OW21543  11.780   7.106  13.879
73237SOL    HW121544  11.823   7.060  13.950
73237SOL    HW221545  11.705   7.150  13.919
73238SOL     OW21546   7.723   9.980  11.462
73238SOL    HW121547   7.700   9.908  11.404
73238SOL    HW221548   7.642  10.001  11.508
73239SOL     OW21549  10.236   7.614  13.835
73239SOL    HW121550  10.232   7.519  13.840
73239SOL    HW221551  10.285   7.631  13.755
73240SOL     OW21552  11.863   4.818   9.405
73240SOL    HW121553  11.849   4.908   9.433
73240SOL    HW221554  11.791   4.768   9.443
73241SOL     OW21555   6.988   6.987   2.587
73241SOL    HW121556   6.984   7.053   2.656
73241SOL    HW221557   7.075   6.948   2.596
73242SOL     OW21558  14.181  12.773  11.130
73242SOL    HW121559  14.169  12.728  11.046
73242SOL    HW221560  14.180  12.704  11.195
73243SOL     OW21561   2.074   1.831   2.142
73243SOL    HW121562   2.130   1.885   2.087
73243SOL    HW221563   2.012   1.792   2.081
73244SOL     OW21564  10.319  11.670   1.574
73244SOL    HW121565  10.367  11.683   1.492
73244SOL    HW221566  10.361  11.729   1.636
73245SOL     OW21567  14.019  11.921   4.313
73245SOL    HW121568  13.948  11.936   4.250
73245SOL    HW221569  14.012  11.994   4.374
73246SOL     OW21570  10.716   4.105   8.978
73246SOL    HW121571  10.764   4.147   9.050
73246SOL    HW221572  10.651   4.050   9.021
73247SOL     OW21573   4.754  11.612   6.188
73247SOL    HW121574   4.756  11.684   6.251
73247SOL    HW221575   4.729  11.535   6.239
73248SOL     OW21576  12.438   9.382   4.509
73248SOL    HW121577  12.404   9.329   4.437
73248SOL    HW221578  12.520   9.418   4.475
73249SOL     OW21579   1.636  11.400  13.635
73249SOL    HW121580   1.564  11.425  13.691
73249SOL    HW221581   1.688  11.339  13.688
73250SOL     OW21582   1.754   2.723   7.836
73250SOL    HW121583   1.671   2.770   7.827
73250SOL    HW221584   1.797   2.733   7.751
73251SOL     OW21585   0.600   6.136   2.468
73251SOL    HW121586   0.660   6.068   2.438
73251SOL    HW221587   0.624   6.214   2.417
73252SOL     OW21588  14.026   2.747   4.475
73252SOL    HW121589  14.091   2.737   4.405
73252SOL    HW221590  13.984   2.832   4.457
73253SOL     OW21591  10.985   2.602  13.313
73253SOL    HW121592  10.964   2.548  13.237
73253SOL    HW221593  10.941   2.686  13.296
73254SOL     OW21594  10.826   9.194  13.803
73254SOL    HW121595  10.826   9.176  13.708
73254SOL    HW221596  10.843   9.109  13.843
73255SOL     OW21597   0.925   7.094   4.840
73255SOL    HW121598   0.921   7.148   4.761
73255SOL    HW221599   0.918   7.156   4.912
73256SOL     OW21600   4.992   3.721   7.310
73256SOL    HW121601   4.929   3.690   7.375
73256SOL    HW221602   5.070   3.667   7.326
73257SOL     OW21603   9.178   8.316  10.803
73257SOL    HW121604   9.151   8.321  10.895
73257SOL    HW221605   9.144   8.396  10.763
73258SOL     OW21606   2.355   4.531   7.156
73258SOL    HW121607   2.344   4.437   7.168
73258SOL    HW221608   2.355   4.566   7.245
73259SOL     OW21609   5.753   0.596   8.571
73259SOL    HW121610   5.679   0.536   8.576
73259SOL    HW221611   5.830   0.540   8.581
73260SOL     OW21612   4.787   0.113  12.958
73260SOL    HW121613   4.712   0.060  12.930
73260SOL    HW221614   4.860   0.079  12.907
73261SOL     OW21615   5.216   7.446   8.631
73261SOL    HW121616   5.307   7.478   8.628
73261SOL    HW221617   5.165   7.516   8.591
73262SOL     OW21618   3.073   4.989   9.464
73262SOL    HW121619   3.016   4.938   9.522
73262SOL    HW221620   3.020   5.066   9.441
73263SOL     OW21621  13.212   7.625  14.524
73263SOL    HW121622  13.245   7.692  14.463
73263SOL    HW221623  13.198   7.672  14.606
73264SOL     OW21624  11.252   2.050   7.162
73264SOL    HW121625  11.209   2.014   7.240
73264SOL    HW221626  11.345   2.033   7.176
73265SOL     OW21627  13.886   9.854  10.723
73265SOL    HW121628  13.896   9.806  10.805
73265SOL    HW221629  13.947   9.811  10.662
73266SOL     OW21630   3.159   1.296   3.252
73266SOL    HW121631   3.085   1.345   3.216
73266SOL    HW221632   3.199   1.356   3.315
73267SOL     OW21633   4.594   4.879   2.904
73267SOL    HW121634   4.579   4.974   2.898
73267SOL    HW221635   4.529   4.841   2.845
73268SOL     OW21636   1.887   9.190   5.775
73268SOL    HW121637   1.808   9.140   5.757
73268SOL    HW221638   1.863   9.247   5.848
73269SOL     OW21639  13.610   5.771   8.815
73269SOL    HW121640  13.683   5.832   8.802
73269SOL    HW221641  13.565   5.770   8.731
73270SOL     OW21642   9.217   5.885  10.624
73270SOL    HW121643   9.181   5.912  10.540
73270SOL    HW221644   9.203   5.961  10.681
73271SOL     OW21645  14.650  10.121   6.373
73271SOL    HW121646  14.570  10.086   6.333
73271SOL    HW221647  14.693  10.044   6.410
73272SOL     OW21648  11.171   0.127  10.941
73272SOL    HW121649  11.194   0.155  10.852
73272SOL    HW221650  11.162   0.209  10.990
73273SOL     OW21651   8.529   2.619   1.779
73273SOL    HW121652   8.462   2.651   1.839
73273SOL    HW221653   8.505   2.527   1.764
73274SOL     OW21654  11.680   0.563  13.690
73274SOL    HW121655  11.749   0.499  13.672
73274SOL    HW221656  11.688   0.581  13.783
73275SOL     OW21657  12.685  13.794   2.633
73275SOL    HW121658  12.771  13.757   2.612
73275SOL    HW221659  12.689  13.884   2.602
73276SOL     OW21660  14.777   5.677  10.744
73276SOL    HW121661  14.804   5.697  10.833
73276SOL    HW221662  14.711   5.744  10.723
73277SOL     OW21663  12.569  10.307   1.713
73277SOL    HW121664  12.547  10.214   1.724
73277SOL    HW221665  12.539  10.328   1.624
73278SOL     OW21666  10.593  12.919  10.368
73278SOL    HW121667  10.662  12.853  10.378
73278SOL    HW221668  10.529  12.877  10.310
73279SOL     OW21669  14.466  11.550  11.260
73279SOL    HW121670  14.464  11.642  11.235
73279SOL    HW221671  14.558  11.532  11.279
73280SOL     OW21672   2.299   9.546   6.221
73280SOL    HW121673   2.311   9.575   6.312
73280SOL    HW221674   2.381   9.568   6.177
73281SOL     OW21675   2.574   6.554   3.642
73281SOL    HW121676   2.655   6.601   3.665
73281SOL    HW221677   2.511   6.580   3.709
73282SOL     OW21678  12.787   2.430  10.099
73282SOL    HW121679  12.763   2.520  10.077
73282SOL    HW221680  12.879   2.435  10.127
73283SOL     OW21681   3.966   1.098   6.235
73283SOL    HW121682   3.961   1.003   6.224
73283SOL    HW221683   3.961   1.133   6.146
73284SOL     OW21684  13.393  11.227   1.393
73284SOL    HW121685  13.318  11.255   1.341
73284SOL    HW221686  13.452  11.302   1.394
73285SOL     OW21687   5.604   4.557   1.008
73285SOL    HW121688   5.648   4.486   1.056
73285SOL    HW221689   5.511   4.542   1.025
73286SOL     OW21690  14.339  14.826   2.662
73286SOL    HW121691  14.275   0.003   2.706
73286SOL    HW221692  14.384   0.005   2.601
73287SOL     OW21693  13.232  12.892   7.714
73287SOL    HW121694  13.142  12.879   7.743
73287SOL    HW221695  13.275  12.808   7.730
73288SOL     OW21696   3.159   8.606   5.392
73288SOL    HW121697   3.254   8.602   5.404
73288SOL    HW221698   3.123   8.569   5.473
73289SOL     OW21699   7.814   2.745   1.184
73289SOL    HW121700   7.777   2.669   1.140
73289SOL    HW221701   7.769   2.748   1.269
73290SOL     OW21702   7.244   2.277  12.812
73290SOL    HW121703   7.265   2.278  12.718
73290SOL    HW221704   7.177   2.344  12.822
73291SOL     OW21705  12.503   5.415  10.823
73291SOL    HW121706  12.499   5.372  10.908
73291SOL    HW221707  12.483   5.346  10.760
73292SOL     OW21708   1.086   8.643   4.750
73292SOL    HW121709   1.163   8.601   4.788
73292SOL    HW221710   1.085   8.613   4.659
73293SOL     OW21711  13.001  13.305   5.554
73293SOL    HW121712  13.003  13.235   5.488
73293SOL    HW221713  12.930  13.281   5.613
73294SOL     OW21714   8.353   0.671   7.826
73294SOL    HW121715   8.423   0.679   7.890
73294SOL    HW221716   8.273   0.668   7.878
73295SOL     OW21717   8.357   2.688  13.383
73295SOL    HW121718   8.345   2.739  13.463
73295SOL    HW221719   8.379   2.753  13.316
73296SOL     OW21720   5.888   2.277  12.822
73296SOL    HW121721   5.872   2.361  12.864
73296SOL    HW221722   5.981   2.260  12.837
73297SOL     OW21723   0.732   2.952   6.337
73297SOL    HW121724   0.800   2.930   6.273
73297SOL    HW221725   0.743   3.045   6.353
73298SOL     OW21726   5.057   4.503   2.721
73298SOL    HW121727   4.976   4.534   2.763
73298SOL    HW221728   5.072   4.416   2.758
73299SOL     OW21729   1.977   5.026  14.171
73299SOL    HW121730   1.901   5.077  14.198
73299SOL    HW221731   1.993   4.966  14.244
73300SOL     OW21732   8.359   3.015   3.022
73300SOL    HW121733   8.350   3.106   3.049
73300SOL    HW221734   8.279   2.972   3.054
73301SOL     OW21735  11.192  12.643   6.494
73301SOL    HW121736  11.231  12.615   6.412
73301SOL    HW221737  11.122  12.704   6.469
73302SOL     OW21738   7.148  13.197  11.278
73302SOL    HW121739   7.143  13.292  11.285
73302SOL    HW221740   7.069  13.173  11.228
73303SOL     OW21741   8.357   7.036  13.022
73303SOL    HW121742   8.374   7.071  12.934
73303SOL    HW221743   8.368   6.942  13.013
73304SOL     OW21744  12.529  12.421   8.743
73304SOL    HW121745  12.543  12.438   8.650
73304SOL    HW221746  12.521  12.508   8.782
73305SOL     OW21747   0.155  12.079   9.278
73305SOL    HW121748   0.065  12.112   9.286
73305SOL    HW221749   0.184  12.066   9.368
73306SOL     OW21750   0.551   4.184   5.447
73306SOL    HW121751   0.613   4.139   5.389
73306SOL    HW221752   0.579   4.159   5.535
73307SOL     OW21753   0.045  14.771   7.069
73307SOL    HW121754   0.127  14.738   7.105
73307SOL    HW221755   0.072  14.846   7.015
73308SOL     OW21756  11.684   6.511   8.485
73308SOL    HW121757  11.674   6.561   8.404
73308SOL    HW221758  11.685   6.577   8.555
73309SOL     OW21759   7.946   2.794   0.095
73309SOL    HW121760   7.852   2.778   0.093
73309SOL    HW221761   7.984   2.713   0.129
73310SOL     OW21762  14.858   4.580   1.437
73310SOL    HW121763   0.049   4.544   1.491
73310SOL    HW221764   0.020   4.648   1.385
73311SOL     OW21765  11.321  11.063   1.152
73311SOL    HW121766  11.283  11.146   1.180
73311SOL    HW221767  11.397  11.051   1.209
73312SOL     OW21768   7.677   5.342   8.545
73312SOL    HW121769   7.770   5.338   8.523
73312SOL    HW221770   7.636   5.383   8.468
73313SOL     OW21771   5.730  12.515   4.513
73313SOL    HW121772   5.706  12.423   4.507
73313SOL    HW221773   5.811  12.522   4.462
73314SOL     OW21774   8.225   6.986   4.076
73314SOL    HW121775   8.224   7.064   4.132
73314SOL    HW221776   8.134   6.972   4.051
73315SOL     OW21777   2.429   6.768   8.172
73315SOL    HW121778   2.498   6.708   8.202
73315SOL    HW221779   2.458   6.796   8.085
73316SOL     OW21780   4.858  10.184   8.961
73316SOL    HW121781   4.821  10.272   8.951
73316SOL    HW221782   4.905  10.186   9.044
73317SOL     OW21783   5.419  11.285   6.120
73317SOL    HW121784   5.358  11.219   6.085
73317SOL    HW221785   5.363  11.355   6.152
73318SOL     OW21786   8.947   9.656   8.198
73318SOL    HW121787   8.930   9.640   8.290
73318SOL    HW221788   8.867   9.630   8.153
73319SOL     OW21789  11.704   6.460   7.606
73319SOL    HW121790  11.712   6.372   7.642
73319SOL    HW221791  11.729   6.518   7.678
73320SOL     OW21792   0.012   0.992  11.259
73320SOL    HW121793  14.866   1.064  11.317
73320SOL    HW221794   0.009   0.914  11.314
73321SOL     OW21795  12.534  12.102   5.864
73321SOL    HW121796  12.532  12.062   5.777
73321SOL    HW221797  12.609  12.162   5.861
73322SOL     OW21798  14.382   0.360  11.862
73322SOL    HW121799  14.394   0.445  11.903
73322SOL    HW221800  14.353   0.379  11.773
73323SOL     OW21801   8.074   9.725   5.857
73323SOL    HW121802   7.995   9.682   5.890
73323SOL    HW221803   8.089   9.687   5.771
73324SOL     OW21804   8.069  13.364   2.403
73324SOL    HW121805   7.989  13.344   2.353
73324SOL    HW221806   8.118  13.282   2.403
73325SOL     OW21807   3.557  11.283   0.590
73325SOL    HW121808   3.639  11.316   0.552
73325SOL    HW221809   3.538  11.343   0.662
73326SOL     OW21810   5.525   1.873   5.369
73326SOL    HW121811   5.448   1.816   5.367
73326SOL    HW221812   5.491   1.960   5.350
73327SOL     OW21813  13.263   4.669   0.500
73327SOL    HW121814  13.215   4.727   0.560
73327SOL    HW221815  13.293   4.597   0.555
73328SOL     OW21816   9.560  13.787  12.167
73328SOL    HW121817   9.472  13.784  12.130
73328SOL    HW221818   9.570  13.704  12.214
73329SOL     OW21819   8.364   9.124   8.945
73329SOL    HW121820   8.368   9.139   8.850
73329SOL    HW221821   8.417   9.046   8.959
73330SOL     OW21822  10.155   6.762  12.820
73330SOL    HW121823  10.170   6.682  12.871
73330SOL    HW221824  10.085   6.738  12.759
73331SOL     OW21825  13.869  12.517   5.003
73331SOL    HW121826  13.876  12.476   4.917
73331SOL    HW221827  13.803  12.465   5.049
73332SOL     OW21828   3.513   1.851   8.435
73332SOL    HW121829   3.483   1.915   8.500
73332SOL    HW221830   3.504   1.896   8.351
73333SOL     OW21831   8.476   1.674   6.089
73333SOL    HW121832   8.380   1.676   6.084
73333SOL    HW221833   8.498   1.582   6.075
73334SOL     OW21834   6.652   0.326   5.308
73334SOL    HW121835   6.687   0.295   5.392
73334SOL    HW221836   6.614   0.411   5.329
73335SOL     OW21837   7.170  13.545  14.651
73335SOL    HW121838   7.107  13.526  14.582
73335SOL    HW221839   7.118  13.578  14.724
73336SOL     OW21840   8.701   7.815   6.234
73336SOL    HW121841   8.718   7.724   6.206
73336SOL    HW221842   8.612   7.833   6.203
73337SOL     OW21843   1.654  11.917  11.884
73337SOL    HW121844   1.693  11.859  11.950
73337SOL    HW221845   1.621  11.991  11.934
73338SOL     OW21846  14.029   3.567   3.486
73338SOL    HW121847  14.113   3.525   3.506
73338SOL    HW221848  13.964   3.507   3.522
73339SOL     OW21849  11.391   5.266  12.432
73339SOL    HW121850  11.418   5.354  12.458
73339SOL    HW221851  11.450   5.243  12.360
73340SOL     OW21852   4.303   5.452   0.960
73340SOL    HW121853   4.372   5.387   0.973
73340SOL    HW221854   4.349   5.536   0.968
73341SOL     OW21855   0.584  11.491   1.829
73341SOL    HW121856   0.507  11.514   1.880
73341SOL    HW221857   0.550  11.472   1.741
73342SOL     OW21858  12.751   6.347  10.694
73342SOL    HW121859  12.803   6.333  10.614
73342SOL    HW221860  12.715   6.261  10.714
73343SOL     OW21861   7.409   1.644   5.528
73343SOL    HW121862   7.326   1.614   5.491
73343SOL    HW221863   7.475   1.617   5.463
73344SOL     OW21864   7.046   3.617   3.849
73344SOL    HW121865   6.959   3.651   3.828
73344SOL    HW221866   7.056   3.540   3.792
73345SOL     OW21867   9.692   9.264   5.649
73345SOL    HW121868   9.786   9.275   5.632
73345SOL    HW221869   9.685   9.264   5.744
73346SOL     OW21870  12.292  12.950   2.623
73346SOL    HW121871  12.268  12.984   2.537
73346SOL    HW221872  12.387  12.935   2.617
73347SOL     OW21873   8.738   9.298   5.054
73347SOL    HW121874   8.763   9.314   5.144
73347SOL    HW221875   8.651   9.338   5.045
73348SOL     OW21876  13.794  10.524  14.096
73348SOL    HW121877  13.883  10.498  14.120
73348SOL    HW221878  13.793  10.619  14.107
73349SOL     OW21879   7.184   4.886   0.574
73349SOL    HW121880   7.183   4.868   0.668
73349SOL    HW221881   7.236   4.816   0.536
73350SOL     OW21882   4.001   6.785   1.113
73350SOL    HW121883   4.009   6.768   1.207
73350SOL    HW221884   4.066   6.726   1.074
73351SOL     OW21885   1.150  12.084   8.481
73351SOL    HW121886   1.238  12.048   8.491
73351SOL    HW221887   1.164  12.179   8.476
73352SOL     OW21888   2.780  10.630   9.024
73352SOL    HW121889   2.857  10.580   9.048
73352SOL    HW221890   2.784  10.637   8.929
73353SOL     OW21891  14.256   6.162  12.019
73353SOL    HW121892  14.271   6.188  11.928
73353SOL    HW221893  14.161   6.165  12.030
73354SOL     OW21894   5.320   7.562  12.431
73354SOL    HW121895   5.279   7.480  12.403
73354SOL    HW221896   5.255   7.604  12.486
73355SOL     OW21897   7.668   2.113   6.551
73355SOL    HW121898   7.626   2.146   6.631
73355SOL    HW221899   7.729   2.046   6.581
73356SOL     OW21900   9.691   7.580   6.975
73356SOL    HW121901   9.691   7.514   6.905
73356SOL    HW221902   9.650   7.536   7.049
73357SOL     OW21903  10.740   0.370  13.911
73357SOL    HW121904  10.806   0.427  13.950
73357SOL    HW221905  10.727   0.300  13.975
73358SOL     OW21906  12.647   5.643   3.346
73358SOL    HW121907  12.652   5.647   3.442
73358SOL    HW221908  12.639   5.549   3.327
73359SOL     OW21909  13.521  12.553   5.585
73359SOL    HW121910  13.511  12.471   5.633
73359SOL    HW221911  13.549  12.617   5.651
73360SOL     OW21912   9.692   6.560   6.966
73360SOL    HW121913   9.660   6.493   7.026
73360SOL    HW221914   9.622   6.625   6.963
73361SOL     OW21915   9.341   6.182  11.444
73361SOL    HW121916   9.341   6.213  11.353
73361SOL    HW221917   9.250   6.190  11.472
73362SOL     OW21918   3.457  12.458   2.813
73362SOL    HW121919   3.466  12.388   2.749
73362SOL    HW221920   3.511  12.429   2.887
73363SOL     OW21921  13.616   7.004   5.188
73363SOL    HW121922  13.532   7.048   5.201
73363SOL    HW221923  13.644   6.979   5.277
73364SOL     OW21924  12.831   8.186   5.837
73364SOL    HW121925  12.773   8.231   5.898
73364SOL    HW221926  12.868   8.113   5.887
73365SOL     OW21927   4.718   9.928  12.355
73365SOL    HW121928   4.746  10.013  12.389
73365SOL    HW221929   4.633   9.946  12.313
73366SOL     OW21930  11.828   0.615   3.982
73366SOL    HW121931  11.790   0.534   4.016
73366SOL    HW221932  11.767   0.643   3.914
73367SOL     OW21933   3.460  13.347   9.950
73367SOL    HW121934   3.533  13.392   9.992
73367SOL    HW221935   3.408  13.313  10.023
73368SOL     OW21936   2.962   1.868   6.457
73368SOL    HW121937   2.916   1.927   6.516
73368SOL    HW221938   3.041   1.916   6.432
73369SOL     OW21939  14.026  13.948  11.713
73369SOL    HW121940  14.095  13.905  11.662
73369SOL    HW221941  13.968  13.877  11.741
73370SOL     OW21942   4.565   7.993   1.617
73370SOL    HW121943   4.656   8.014   1.639
73370SOL    HW221944   4.513   8.052   1.672
73371SOL     OW21945   4.020  13.879  11.605
73371SOL    HW121946   4.006  13.972  11.587
73371SOL    HW221947   3.932  13.845  11.624
73372SOL     OW21948   8.287   4.505   6.600
73372SOL    HW121949   8.255   4.593   6.580
73372SOL    HW221950   8.327   4.475   6.518
73373SOL     OW21951   9.753  10.679   2.605
73373SOL    HW121952   9.751  10.691   2.510
73373SOL    HW221953   9.661  10.681   2.631
73374SOL     OW21954  14.300   2.363   2.182
73374SOL    HW121955  14.336   2.337   2.267
73374SOL    HW221956  14.275   2.455   2.194
73375SOL     OW21957  14.162   3.129  12.654
73375SOL    HW121958  14.230   3.166  12.711
73375SOL    HW221959  14.095   3.098  12.714
73376SOL     OW21960  10.152   5.128   5.692
73376SOL    HW121961  10.194   5.056   5.740
73376SOL    HW221962  10.058   5.111   5.703
73377SOL     OW21963   7.290   4.387   7.595
73377SOL    HW121964   7.360   4.430   7.547
73377SOL    HW221965   7.334   4.325   7.652
73378SOL     OW21966   9.855  10.243  10.447
73378SOL    HW121967   9.816  10.308  10.506
73378SOL    HW221968   9.796  10.240  10.372
73379SOL     OW21969   6.137   6.536  13.160
73379SOL    HW121970   6.161   6.628  13.152
73379SOL    HW221971   6.165   6.496  13.077
73380SOL     OW21972   8.923   5.097   4.841
73380SOL    HW121973   8.893   5.008   4.823
73380SOL    HW221974   8.976   5.089   4.920
73381SOL     OW21975   8.596   0.579   4.700
73381SOL    HW121976   8.678   0.567   4.748
73381SOL    HW221977   8.528   0.553   4.762
73382SOL     OW21978   8.139   5.913  13.150
73382SOL    HW121979   8.163   5.842  13.210
73382SOL    HW221980   8.059   5.950  13.187
73383SOL     OW21981   8.397   4.902  14.536
73383SOL    HW121982   8.440   4.817  14.541
73383SOL    HW221983   8.305   4.885  14.554
73384SOL     OW21984  13.828   1.738   4.928
73384SOL    HW121985  13.904   1.682   4.916
73384SOL    HW221986  13.766   1.685   4.977
73385SOL     OW21987   7.279  14.311   2.629
73385SOL    HW121988   7.358  14.273   2.668
73385SOL    HW221989   7.311  14.381   2.573
73386SOL     OW21990   5.918   2.445   2.479
73386SOL    HW121991   5.932   2.350   2.481
73386SOL    HW221992   6.006   2.482   2.484
73387SOL     OW21993  10.112   0.346   5.750
73387SOL    HW121994  10.100   0.425   5.698
73387SOL    HW221995  10.122   0.377   5.840
73388SOL     OW21996   9.885  13.260  13.546
73388SOL    HW121997   9.834  13.313  13.606
73388SOL    HW221998   9.826  13.189  13.520
73389SOL     OW21999   0.023  12.659   9.114
73389SOL    HW122000   0.053  12.593   9.052
73389SOL    HW222001  14.813  12.633   9.136
73390SOL     OW22002   4.504  10.321   4.071
73390SOL    HW122003   4.596  10.297   4.063
73390SOL    HW222004   4.487  10.323   4.165
73391SOL     OW22005  10.056   1.131   3.444
73391SOL    HW122006  10.005   1.178   3.379
73391SOL    HW222007  10.136   1.182   3.455
73392SOL     OW22008  11.613   9.417   4.906
73392SOL    HW122009  11.703   9.417   4.874
73392SOL    HW222010  11.618   9.457   4.993
73393SOL     OW22011  13.673   1.405   0.927
73393SOL    HW122012  13.630   1.365   0.851
73393SOL    HW222013  13.629   1.366   1.003
73394SOL     OW22014  10.526   2.255   0.847
73394SOL    HW122015  10.483   2.169   0.842
73394SOL    HW222016  10.618   2.236   0.829
73395SOL     OW22017   5.376   7.768  14.555
73395SOL    HW122018   5.345   7.834  14.493
73395SOL    HW222019   5.307   7.701  14.556
73396SOL     OW22020   1.345   6.352   0.875
73396SOL    HW122021   1.284   6.323   0.807
73396SOL    HW222022   1.296   6.345   0.957
73397SOL     OW22023   8.685   8.625  14.310
73397SOL    HW122024   8.733   8.543  14.300
73397SOL    HW222025   8.621   8.625  14.239
73398SOL     OW22026  10.385  13.094   9.086
73398SOL    HW122027  10.477  13.069   9.086
73398SOL    HW222028  10.369  13.128   8.998
73399SOL     OW22029   4.528   6.600   7.189
73399SOL    HW122030   4.510   6.514   7.225
73399SOL    HW222031   4.516   6.591   7.095
73400SOL     OW22032  14.568  13.693   0.421
73400SOL    HW122033  14.643  13.637   0.398
73400SOL    HW222034  14.552  13.674   0.513
73401SOL     OW22035   4.361  12.742   6.234
73401SOL    HW122036   4.297  12.744   6.305
73401SOL    HW222037   4.340  12.820   6.181
73402SOL     OW22038   4.270  12.988   9.984
73402SOL    HW122039   4.273  12.943   9.900
73402SOL    HW222040   4.348  12.958  10.031
73403SOL     OW22041  12.311   4.537   6.403
73403SOL    HW122042  12.336   4.629   6.415
73403SOL    HW222043  12.239   4.524   6.466
73404SOL     OW22044  14.309   3.271  13.367
73404SOL    HW122045  14.253   3.193  13.374
73404SOL    HW222046  14.250   3.341  13.340
73405SOL     OW22047   5.557   9.724   0.458
73405SOL    HW122048   5.521   9.790   0.517
73405SOL    HW222049   5.596   9.659   0.516
73406SOL     OW22050  11.179  13.759   7.807
73406SOL    HW122051  11.087  13.758   7.831
73406SOL    HW222052  11.201  13.852   7.798
73407SOL     OW22053  11.902   9.196   3.740
73407SOL    HW122054  11.898   9.243   3.823
73407SOL    HW222055  11.883   9.263   3.674
73408SOL     OW22056   2.420  10.942   5.419
73408SOL    HW122057   2.429  11.037   5.404
73408SOL    HW222058   2.429  10.933   5.514
73409SOL     OW22059   4.484  12.825  11.611
73409SOL    HW122060   4.388  12.822  11.613
73409SOL    HW222061   4.505  12.902  11.559
73410SOL     OW22062   8.767   9.631   1.228
73410SOL    HW122063   8.848   9.679   1.210
73410SOL    HW222064   8.784   9.584   1.309
73411SOL     OW22065   6.364   1.049  11.507
73411SOL    HW122066   6.398   0.994  11.577
73411SOL    HW222067   6.442   1.073  11.456
73412SOL     OW22068   9.989  14.284   7.186
73412SOL    HW122069  10.004  14.363   7.134
73412SOL    HW222070  10.076  14.251   7.205
73413SOL     OW22071  13.895  10.484  13.519
73413SOL    HW122072  13.838  10.469  13.443
73413SOL    HW222073  13.966  10.421  13.509
73414SOL     OW22074  10.865  13.792  10.909
73414SOL    HW122075  10.910  13.743  10.978
73414SOL    HW222076  10.817  13.861  10.955
73415SOL     OW22077   6.014   6.958   8.604
73415SOL    HW122078   5.980   7.041   8.637
73415SOL    HW222079   5.974   6.891   8.660
73416SOL     OW22080   5.145   1.107   5.626
73416SOL    HW122081   5.107   1.059   5.552
73416SOL    HW222082   5.078   1.173   5.647
73417SOL     OW22083  11.864   6.781   3.037
73417SOL    HW122084  11.881   6.805   2.946
73417SOL    HW222085  11.867   6.686   3.038
73418SOL     OW22086  10.527   1.893   3.826
73418SOL    HW122087  10.622   1.880   3.818
73418SOL    HW222088  10.491   1.848   3.750
73419SOL     OW22089   0.047   9.499  11.512
73419SOL    HW122090  14.859   9.437  11.482
73419SOL    HW222091   0.013   9.533  11.595
73420SOL     OW22092  13.377  12.919  11.883
73420SOL    HW122093  13.463  12.879  11.899
73420SOL    HW222094  13.321  12.846  11.858
73421SOL     OW22095   3.908   6.031  13.003
73421SOL    HW122096   3.994   6.021  13.044
73421SOL    HW222097   3.912   6.114  12.956
73422SOL     OW22098   9.101   2.685   8.311
73422SOL    HW122099   9.053   2.750   8.260
73422SOL    HW222100   9.038   2.613   8.323
73423SOL     OW22101   5.965  11.233   5.802
73423SOL    HW122102   5.875  11.263   5.796
73423SOL    HW222103   6.011  11.303   5.849
73424SOL     OW22104   4.093   9.216   0.303
73424SOL    HW122105   4.015   9.243   0.254
73424SOL    HW222106   4.160   9.279   0.280
73425SOL     OW22107   0.683  13.323   3.217
73425SOL    HW122108   0.750  13.383   3.249
73425SOL    HW222109   0.603  13.350   3.261
73426SOL     OW22110  11.379   3.756  11.805
73426SOL    HW122111  11.451   3.809  11.771
73426SOL    HW222112  11.303   3.814  11.803
73427SOL     OW22113   2.239  11.107  13.761
73427SOL    HW122114   2.197  11.032  13.801
73427SOL    HW222115   2.244  11.085  13.668
73428SOL     OW22116  12.275  13.279   9.300
73428SOL    HW122117  12.230  13.273   9.215
73428SOL    HW222118  12.222  13.341   9.350
73429SOL     OW22119   5.553   9.980   8.663
73429SOL    HW122120   5.647   9.999   8.658
73429SOL    HW222121   5.534   9.938   8.579
73430SOL     OW22122   4.639   8.923   7.348
73430SOL    HW122123   4.722   8.958   7.381
73430SOL    HW222124   4.624   8.970   7.266
73431SOL     OW22125   3.051  12.074   5.829
73431SOL    HW122126   3.009  12.126   5.897
73431SOL    HW222127   3.032  11.983   5.852
73432SOL     OW22128  10.794  14.023   2.263
73432SOL    HW122129  10.798  13.951   2.325
73432SOL    HW222130  10.709  14.064   2.280
73433SOL     OW22131   6.044   5.299   8.585
73433SOL    HW122132   6.047   5.264   8.496
73433SOL    HW222133   5.950   5.302   8.606
73434SOL     OW22134   2.195  12.356   1.965
73434SOL    HW122135   2.149  12.396   1.892
73434SOL    HW222136   2.238  12.429   2.010
73435SOL     OW22137   6.987   3.369  10.837
73435SOL    HW122138   7.004   3.283  10.875
73435SOL    HW222139   7.071   3.414  10.841
73436SOL     OW22140  10.161   0.631   4.293
73436SOL    HW122141  10.131   0.542   4.313
73436SOL    HW222142  10.133   0.646   4.203
73437SOL     OW22143   5.837   0.347  14.772
73437SOL    HW122144   5.901   0.355  14.842
73437SOL    HW222145   5.876   0.284  14.711
73438SOL     OW22146   8.062   7.406  12.273
73438SOL    HW122147   8.135   7.352  12.303
73438SOL    HW222148   8.092   7.496  12.286
73439SOL     OW22149  10.586   8.093   4.312
73439SOL    HW122150  10.520   8.118   4.248
73439SOL    HW222151  10.536   8.067   4.389
73440SOL     OW22152  13.077   1.479   4.530
73440SOL    HW122153  13.103   1.562   4.490
73440SOL    HW222154  13.082   1.496   4.624
73441SOL     OW22155   3.185   7.782  12.778
73441SOL    HW122156   3.223   7.701  12.743
73441SOL    HW222157   3.132   7.816  12.706
73442SOL     OW22158   4.998   6.366  13.946
73442SOL    HW122159   5.020   6.393  14.035
73442SOL    HW222160   5.060   6.414  13.890
73443SOL     OW22161  12.520  14.217   1.957
73443SOL    HW122162  12.451  14.280   1.977
73443SOL    HW222163  12.598  14.252   2.000
73444SOL     OW22164  13.894   2.633   0.714
73444SOL    HW122165  13.951   2.558   0.699
73444SOL    HW222166  13.808   2.605   0.682
73445SOL     OW22167   9.953   1.965  12.957
73445SOL    HW122168  10.022   2.029  12.975
73445SOL    HW222169   9.988   1.912  12.885
73446SOL     OW22170  12.767  13.119   7.410
73446SOL    HW122171  12.819  13.185   7.365
73446SOL    HW222172  12.735  13.163   7.488
73447SOL     OW22173   6.572  13.931   0.319
73447SOL    HW122174   6.511  13.959   0.388
73447SOL    HW222175   6.518  13.924   0.240
73448SOL     OW22176   0.107   7.627  13.858
73448SOL    HW122177   0.173   7.687  13.892
73448SOL    HW222178   0.036   7.684  13.827
73449SOL     OW22179   5.407   7.543   1.501
73449SOL    HW122180   5.478   7.597   1.536
73449SOL    HW222181   5.383   7.586   1.419
73450SOL     OW22182   7.194   4.010   2.637
73450SOL    HW122183   7.255   4.084   2.633
73450SOL    HW222184   7.107   4.050   2.624
73451SOL     OW22185  12.111   2.164  10.093
73451SOL    HW122186  12.065   2.083  10.116
73451SOL    HW222187  12.130   2.206  10.177
73452SOL     OW22188  11.914   1.856  11.256
73452SOL    HW122189  11.979   1.927  11.262
73452SOL    HW222190  11.833   1.896  11.288
73453SOL     OW22191   1.568  13.010  14.246
73453SOL    HW122192   1.626  13.025  14.172
73453SOL    HW222193   1.573  12.915  14.261
73454SOL     OW22194   7.911  12.212   0.955
73454SOL    HW122195   7.904  12.219   1.051
73454SOL    HW222196   7.999  12.180   0.940
73455SOL     OW22197   9.933   1.159   7.098
73455SOL    HW122198  10.022   1.180   7.072
73455SOL    HW222199   9.942   1.124   7.187
73456SOL     OW22200   9.281   8.106   5.892
73456SOL    HW122201   9.305   8.140   5.806
73456SOL    HW222202   9.364   8.102   5.940
73457SOL     OW22203   9.811   2.886   5.663
73457SOL    HW122204   9.759   2.810   5.691
73457SOL    HW222205   9.754   2.961   5.676
73458SOL     OW22206   0.723  11.015   4.696
73458SOL    HW122207   0.719  10.940   4.637
73458SOL    HW222208   0.651  11.002   4.757
73459SOL     OW22209   5.214   4.129   8.135
73459SOL    HW122210   5.164   4.126   8.217
73459SOL    HW222211   5.303   4.152   8.162
73460SOL     OW22212  11.381   4.735   8.396
73460SOL    HW122213  11.438   4.792   8.345
73460SOL    HW222214  11.441   4.683   8.449
73461SOL     OW22215   5.452  13.868   6.990
73461SOL    HW122216   5.451  13.801   7.059
73461SOL    HW222217   5.363  13.868   6.955
73462SOL     OW22218  10.228  12.049   4.176
73462SOL    HW122219  10.296  12.109   4.144
73462SOL    HW222220  10.260  11.962   4.154
73463SOL     OW22221   2.927  12.718   3.202
73463SOL    HW122222   2.943  12.739   3.110
73463SOL    HW222223   2.995  12.767   3.249
73464SOL     OW22224   9.184  10.651  14.781
73464SOL    HW122225   9.244  10.579  14.763
73464SOL    HW222226   9.183  10.702  14.700
73465SOL     OW22227   2.283  11.276   0.092
73465SOL    HW122228   2.285  11.217   0.016
73465SOL    HW222229   2.203  11.251   0.139
73466SOL     OW22230   3.104   2.007   3.771
73466SOL    HW122231   3.113   1.934   3.710
73466SOL    HW222232   3.018   1.995   3.810
73467SOL     OW22233  11.168   9.231   5.354
73467SOL    HW122234  11.179   9.316   5.396
73467SOL    HW222235  11.073   9.219   5.349
73468SOL     OW22236   1.165  13.822  10.437
73468SOL    HW122237   1.216  13.773  10.502
73468SOL    HW222238   1.074  13.799  10.457
73469SOL     OW22239   6.056   6.162   3.559
73469SOL    HW122240   6.149   6.141   3.570
73469SOL    HW222241   6.046   6.177   3.465
73470SOL     OW22242   1.590   2.758  12.899
73470SOL    HW122243   1.522   2.813  12.939
73470SOL    HW222244   1.559   2.668  12.913
73471SOL     OW22245  11.598   9.023   6.886
73471SOL    HW122246  11.555   8.956   6.832
73471SOL    HW222247  11.683   8.986   6.907
73472SOL     OW22248  11.730   4.545   3.603
73472SOL    HW122249  11.773   4.483   3.662
73472SOL    HW222250  11.671   4.595   3.659
73473SOL     OW22251   5.252  11.146  10.735
73473SOL    HW122252   5.289  11.155  10.647
73473SOL    HW222253   5.179  11.207  10.737
73474SOL     OW22254   4.807   7.190   3.508
73474SOL    HW122255   4.890   7.198   3.554
73474SOL    HW222256   4.823   7.227   3.422
73475SOL     OW22257   6.183   0.406   8.946
73475SOL    HW122258   6.195   0.467   8.873
73475SOL    HW222259   6.156   0.462   9.019
73476SOL     OW22260   9.695   9.448   6.954
73476SOL    HW122261   9.698   9.352   6.961
73476SOL    HW222262   9.778   9.477   6.991
73477SOL     OW22263   3.075   4.680  14.644
73477SOL    HW122264   2.993   4.724  14.621
73477SOL    HW222265   3.084   4.611  14.578
73478SOL     OW22266   9.375   7.476   5.923
73478SOL    HW122267   9.437   7.545   5.900
73478SOL    HW222268   9.404   7.400   5.873
73479SOL     OW22269   3.005   5.462  11.778
73479SOL    HW122270   3.085   5.463  11.724
73479SOL    HW222271   2.935   5.444  11.715
73480SOL     OW22272   6.900   2.183   6.497
73480SOL    HW122273   6.815   2.157   6.532
73480SOL    HW222274   6.940   2.234   6.568
73481SOL     OW22275  11.140   8.961  13.607
73481SOL    HW122276  11.230   8.995  13.607
73481SOL    HW222277  11.112   8.968  13.516
73482SOL     OW22278   7.204   3.077  13.314
73482SOL    HW122279   7.137   3.057  13.380
73482SOL    HW222280   7.156   3.118  13.243
73483SOL     OW22281  11.309   4.585   6.604
73483SOL    HW122282  11.289   4.671   6.569
73483SOL    HW222283  11.328   4.531   6.527
73484SOL     OW22284   8.906   6.890   9.293
73484SOL    HW122285   8.934   6.799   9.292
73484SOL    HW222286   8.913   6.916   9.385
73485SOL     OW22287  14.067   3.430  13.370
73485SOL    HW122288  13.997   3.378  13.410
73485SOL    HW222289  14.025   3.513  13.349
73486SOL     OW22290   9.503   9.317   9.755
73486SOL    HW122291   9.539   9.284   9.672
73486SOL    HW222292   9.453   9.395   9.729
73487SOL     OW22293  13.267   9.708   9.026
73487SOL    HW122294  13.288   9.787   9.077
73487SOL    HW222295  13.352   9.670   9.006
73488SOL     OW22296   9.962  12.497  13.773
73488SOL    HW122297  10.033  12.537  13.824
73488SOL    HW222298   9.926  12.429  13.831
73489SOL     OW22299   9.801   9.233  10.257
73489SOL    HW122300   9.747   9.162  10.221
73489SOL    HW222301   9.742   9.307  10.264
73490SOL     OW22302   7.611   7.245   0.252
73490SOL    HW122303   7.598   7.158   0.289
73490SOL    HW222304   7.574   7.239   0.164
73491SOL     OW22305  10.048  11.487   6.723
73491SOL    HW122306  10.029  11.458   6.813
73491SOL    HW222307  10.142  11.478   6.714
73492SOL     OW22308   4.031   7.290  11.854
73492SOL    HW122309   3.969   7.262  11.787
73492SOL    HW222310   4.013   7.232  11.929
73493SOL     OW22311   8.108   4.554   7.385
73493SOL    HW122312   8.093   4.524   7.475
73493SOL    HW222313   8.192   4.516   7.361
73494SOL     OW22314   3.466   4.274  10.114
73494SOL    HW122315   3.509   4.189  10.129
73494SOL    HW222316   3.457   4.312  10.201
73495SOL     OW22317  10.490  13.718  13.385
73495SOL    HW122318  10.575  13.680  13.363
73495SOL    HW222319  10.481  13.793  13.326
73496SOL     OW22320   2.154   8.960  13.313
73496SOL    HW122321   2.102   8.922  13.384
73496SOL    HW222322   2.169   9.050  13.341
73497SOL     OW22323   1.952  11.769   0.915
73497SOL    HW122324   1.993  11.695   0.869
73497SOL    HW222325   1.877  11.793   0.861
73498SOL     OW22326   2.173  11.621   1.508
73498SOL    HW122327   2.227  11.687   1.465
73498SOL    HW222328   2.095  11.615   1.453
73499SOL     OW22329  12.109   2.079   1.322
73499SOL    HW122330  12.115   2.119   1.235
73499SOL    HW222331  12.110   2.153   1.383
73500SOL     OW22332   6.923   8.894   3.154
73500SOL    HW122333   6.946   8.902   3.062
73500SOL    HW222334   6.928   8.984   3.188
73501SOL     OW22335  10.591   9.456  14.719
73501SOL    HW122336  10.615   9.534  14.669
73501SOL    HW222337  10.630   9.383  14.671
73502SOL     OW22338   3.320  13.260   8.943
73502SOL    HW122339   3.264  13.185   8.923
73502SOL    HW222340   3.372  13.232   9.019
73503SOL     OW22341  11.128   9.615   9.565
73503SOL    HW122342  11.107   9.643   9.655
73503SOL    HW222343  11.130   9.520   9.570
73504SOL     OW22344   5.378   3.961   3.095
73504SOL    HW122345   5.347   4.031   3.038
73504SOL    HW222346   5.303   3.941   3.152
73505SOL     OW22347   2.732  12.498   3.940
73505SOL    HW122348   2.779  12.499   3.857
73505SOL    HW222349   2.796  12.469   4.005
73506SOL     OW22350  14.134   1.227   1.769
73506SOL    HW122351  14.199   1.213   1.838
73506SOL    HW222352  14.080   1.299   1.802
73507SOL     OW22353  12.614  10.678   9.876
73507SOL    HW122354  12.635  10.644   9.788
73507SOL    HW222355  12.597  10.771   9.862
73508SOL     OW22356   4.525   1.635  11.949
73508SOL    HW122357   4.555   1.726  11.956
73508SOL    HW222358   4.590   1.584  11.997
73509SOL     OW22359   6.423   3.139   0.663
73509SOL    HW122360   6.462   3.058   0.630
73509SOL    HW222361   6.333   3.115   0.684
73510SOL     OW22362   2.574  12.114   4.741
73510SOL    HW122363   2.479  12.107   4.743
73510SOL    HW222364   2.597  12.107   4.648
73511SOL     OW22365  13.423   6.287   7.236
73511SOL    HW122366  13.422   6.232   7.314
73511SOL    HW222367  13.339   6.270   7.193
73512SOL     OW22368   4.357  10.368  11.660
73512SOL    HW122369   4.340  10.290  11.713
73512SOL    HW222370   4.447  10.356  11.628
73513SOL     OW22371  13.439   1.823   1.725
73513SOL    HW122372  13.376   1.798   1.658
73513SOL    HW222373  13.421   1.915   1.741
73514SOL     OW22374   9.514   0.224   4.630
73514SOL    HW122375   9.541   0.315   4.619
73514SOL    HW222376   9.451   0.209   4.559
73515SOL     OW22377   6.639  14.773  13.761
73515SOL    HW122378   6.660  14.743  13.849
73515SOL    HW222379   6.543  14.780  13.760
73516SOL     OW22380   1.571  13.983   1.298
73516SOL    HW122381   1.582  13.919   1.228
73516SOL    HW222382   1.630  14.055   1.274
73517SOL     OW22383  11.019   3.180   9.846
73517SOL    HW122384  10.959   3.136   9.906
73517SOL    HW222385  11.062   3.246   9.900
73518SOL     OW22386  11.245   3.970   7.098
73518SOL    HW122387  11.152   3.992   7.099
73518SOL    HW222388  11.267   3.961   7.005
73519SOL     OW22389  10.813  11.188   7.669
73519SOL    HW122390  10.748  11.150   7.611
73519SOL    HW222391  10.837  11.271   7.629
73520SOL     OW22392   5.516  14.815  12.281
73520SOL    HW122393   5.507  14.723  12.304
73520SOL    HW222394   5.590  14.847  12.332
73521SOL     OW22395   8.023   8.046   5.903
73521SOL    HW122396   8.022   7.970   5.845
73521SOL    HW222397   7.971   8.019   5.979
73522SOL     OW22398  14.155   5.530  11.242
73522SOL    HW122399  14.070   5.488  11.228
73522SOL    HW222400  14.219   5.460  11.228
73523SOL     OW22401   6.119  11.468   9.391
73523SOL    HW122402   6.077  11.486   9.475
73523SOL    HW222403   6.177  11.543   9.377
73524SOL     OW22404   2.106   3.416   3.057
73524SOL    HW122405   2.057   3.382   2.982
73524SOL    HW222406   2.196   3.386   3.043
73525SOL     OW22407   2.078   9.088  12.325
73525SOL    HW122408   2.111   9.177  12.339
73525SOL    HW222409   2.086   9.074  12.231
73526SOL     OW22410   3.706   5.147  14.861
73526SOL    HW122411   3.770   5.124   0.049
73526SOL    HW222412   3.652   5.215   0.021
73527SOL     OW22413   0.837   1.934   9.398
73527SOL    HW122414   0.766   1.972   9.345
73527SOL    HW222415   0.876   1.867   9.341
73528SOL     OW22416  10.381  11.042   5.632
73528SOL    HW122417  10.429  10.975   5.681
73528SOL    HW222418  10.291  11.009   5.628
73529SOL     OW22419   1.311  12.858  11.044
73529SOL    HW122420   1.384  12.912  11.016
73529SOL    HW222421   1.246  12.866  10.973
73530SOL     OW22422   1.140   8.500   3.420
73530SOL    HW122423   1.220   8.476   3.467
73530SOL    HW222424   1.111   8.418   3.379
73531SOL     OW22425   9.282   5.963   0.005
73531SOL    HW122426   9.357   5.903   0.005
73531SOL    HW222427   9.279   5.996  14.794
73532SOL     OW22428   6.947   2.072   1.747
73532SOL    HW122429   6.957   2.157   1.705
73532SOL    HW222430   7.029   2.026   1.729
73533SOL     OW22431  13.863   3.398  10.494
73533SOL    HW122432  13.793   3.333  10.498
73533SOL    HW222433  13.942   3.346  10.480
73534SOL     OW22434   4.695  11.358   6.298
73534SOL    HW122435   4.610  11.347   6.342
73534SOL    HW222436   4.735  11.271   6.302
73535SOL     OW22437   7.594  11.649   8.314
73535SOL    HW122438   7.509  11.687   8.335
73535SOL    HW222439   7.576  11.556   8.298
73536SOL     OW22440   3.386  14.845   2.927
73536SOL    HW122441   3.310  14.835   2.985
73536SOL    HW222442   3.428  14.759   2.927
73537SOL     OW22443   8.858   6.125  14.875
73537SOL    HW122444   8.907   6.062   0.048
73537SOL    HW222445   8.865   6.207   0.044
73538SOL     OW22446   5.767   5.993   3.272
73538SOL    HW122447   5.861   5.977   3.263
73538SOL    HW222448   5.749   5.975   3.364
73539SOL     OW22449  11.173   6.138  14.130
73539SOL    HW122450  11.085   6.115  14.160
73539SOL    HW222451  11.163   6.225  14.091
73540SOL     OW22452   7.457   1.752   0.141
73540SOL    HW122453   7.488   1.726   0.228
73540SOL    HW222454   7.363   1.768   0.153
73541SOL     OW22455   7.094  13.087   0.625
73541SOL    HW122456   7.184  13.105   0.650
73541SOL    HW222457   7.075  13.001   0.664
73542SOL     OW22458   0.730   9.233   0.004
73542SOL    HW122459   0.726   9.292   0.080
73542SOL    HW222460   0.692   9.284  14.811
73543SOL     OW22461   1.833  12.779   0.446
73543SOL    HW122462   1.747  12.772   0.488
73543SOL    HW222463   1.860  12.869   0.462
73544SOL     OW22464  10.616  13.885  14.764
73544SOL    HW122465  10.531  13.853  14.734
73544SOL    HW222466  10.621  13.856  14.855
73545SOL     OW22467   1.461   6.704  12.507
73545SOL    HW122468   1.474   6.621  12.553
73545SOL    HW222469   1.550   6.730  12.480
73546SOL     OW22470  10.665  12.103   9.492
73546SOL    HW122471  10.658  12.008   9.487
73546SOL    HW222472  10.758  12.119   9.508
73547SOL     OW22473   8.215   1.830   4.718
73547SOL    HW122474   8.293   1.834   4.662
73547SOL    HW222475   8.147   1.872   4.666
73548SOL     OW22476  13.734  14.056   3.468
73548SOL    HW122477  13.724  14.149   3.486
73548SOL    HW222478  13.823  14.047   3.435
73549SOL     OW22479   6.824   4.492   0.272
73549SOL    HW122480   6.825   4.539   0.355
73549SOL    HW222481   6.849   4.402   0.295
73550SOL     OW22482  11.058   3.785  13.864
73550SOL    HW122483  11.097   3.714  13.814
73550SOL    HW222484  11.021   3.844  13.798
73551SOL     OW22485   5.507   5.064   3.746
73551SOL    HW122486   5.477   5.108   3.667
73551SOL    HW222487   5.590   5.107   3.767
73552SOL     OW22488  11.838  10.192   2.216
73552SOL    HW122489  11.876  10.278   2.232
73552SOL    HW222490  11.899  10.131   2.258
73553SOL     OW22491   7.657  12.343   1.714
73553SOL    HW122492   7.571  12.345   1.757
73553SOL    HW222493   7.690  12.255   1.731
73554SOL     OW22494  11.255   6.021   1.119
73554SOL    HW122495  11.232   6.110   1.146
73554SOL    HW222496  11.214   6.010   1.033
73555SOL     OW22497   2.776  10.162  14.256
73555SOL    HW122498   2.862  10.182  14.292
73555SOL    HW222499   2.743  10.091  14.310
73556SOL     OW22500   2.881   3.778  12.752
73556SOL    HW122501   2.893   3.833  12.830
73556SOL    HW222502   2.790   3.792  12.727
73557SOL     OW22503   0.886   5.381  12.065
73557SOL    HW122504   0.884   5.346  12.154
73557SOL    HW222505   0.979   5.383  12.042
73558SOL     OW22506   1.096   0.084   6.256
73558SOL    HW122507   1.137  14.877   6.259
73558SOL    HW222508   1.090   0.105   6.163
73559SOL     OW22509  10.824   3.858  12.255
73559SOL    HW122510  10.866   3.923  12.311
73559SOL    HW222511  10.731   3.880  12.258
73560SOL     OW22512   7.350   3.702  11.754
73560SOL    HW122513   7.267   3.749  11.747
73560SOL    HW222514   7.350   3.667  11.843
73561SOL     OW22515  13.111   1.475  14.571
73561SOL    HW122516  13.104   1.538  14.642
73561SOL    HW222517  13.154   1.399  14.611
73562SOL     OW22518   2.119   0.222   1.889
73562SOL    HW122519   2.094   0.181   1.807
73562SOL    HW222520   2.210   0.194   1.903
73563SOL     OW22521   5.381   1.760  10.185
73563SOL    HW122522   5.443   1.778  10.255
73563SOL    HW222523   5.295   1.776  10.224
73564SOL     OW22524  13.903   6.485  11.194
73564SOL    HW122525  13.869   6.530  11.272
73564SOL    HW222526  13.991   6.457  11.219
73565SOL     OW22527   2.062   8.469   8.865
73565SOL    HW122528   2.000   8.402   8.835
73565SOL    HW222529   2.100   8.432   8.944
73566SOL     OW22530   4.376   2.827   7.819
73566SOL    HW122531   4.470   2.810   7.821
73566SOL    HW222532   4.340   2.764   7.882
73567SOL     OW22533   8.193   9.393   2.006
73567SOL    HW122534   8.238   9.412   1.923
73567SOL    HW222535   8.132   9.322   1.985
73568SOL     OW22536   9.435   5.701  10.041
73568SOL    HW122537   9.458   5.753  10.118
73568SOL    HW222538   9.481   5.618  10.053
73569SOL     OW22539  10.217  12.467  13.973
73569SOL    HW122540  10.288  12.528  13.956
73569SOL    HW222541  10.153  12.518  14.023
73570SOL     OW22542  12.027  11.209   4.535
73570SOL    HW122543  11.995  11.231   4.448
73570SOL    HW222544  12.077  11.128   4.523
73571SOL     OW22545   5.716   1.482   5.712
73571SOL    HW122546   5.631   1.522   5.729
73571SOL    HW222547   5.766   1.497   5.793
73572SOL     OW22548  11.154   7.544  12.391
73572SOL    HW122549  11.121   7.574  12.475
73572SOL    HW222550  11.100   7.468  12.369
73573SOL     OW22551   9.123   6.321   7.830
73573SOL    HW122552   9.214   6.295   7.816
73573SOL    HW222553   9.128   6.382   7.903
73574SOL     OW22554   6.355   9.782  11.843
73574SOL    HW122555   6.330   9.721  11.913
73574SOL    HW222556   6.426   9.738  11.797
73575SOL     OW22557   9.777  13.227   0.156
73575SOL    HW122558   9.752  13.137   0.131
73575SOL    HW222559   9.744  13.281   0.084
73576SOL     OW22560  11.167   1.602   8.285
73576SOL    HW122561  11.151   1.527   8.343
73576SOL    HW222562  11.090   1.658   8.296
73577SOL     OW22563   8.566   7.744   7.292
73577SOL    HW122564   8.533   7.759   7.204
73577SOL    HW222565   8.548   7.652   7.310
73578SOL     OW22566   9.433  10.274   0.427
73578SOL    HW122567   9.473  10.303   0.345
73578SOL    HW222568   9.366  10.211   0.400
73579SOL     OW22569  10.742   6.535   8.324
73579SOL    HW122570  10.694   6.592   8.384
73579SOL    HW222571  10.834   6.555   8.340
73580SOL     OW22572  13.551  12.784   0.021
73580SOL    HW122573  13.531  12.691   0.006
73580SOL    HW222574  13.515  12.829  14.823
73581SOL     OW22575  11.461  13.931   7.197
73581SOL    HW122576  11.426  13.871   7.263
73581SOL    HW222577  11.421  13.903   7.115
73582SOL     OW22578   0.490   6.514   1.238
73582SOL    HW122579   0.414   6.486   1.289
73582SOL    HW222580   0.461   6.512   1.147
73583SOL     OW22581   1.581   4.511   6.347
73583SOL    HW122582   1.660   4.469   6.381
73583SOL    HW222583   1.610   4.598   6.320
73584SOL     OW22584   8.308   6.442  13.806
73584SOL    HW122585   8.256   6.367  13.837
73584SOL    HW222586   8.379   6.450  13.870
73585SOL     OW22587   3.000   8.506  11.861
73585SOL    HW122588   2.969   8.597  11.860
73585SOL    HW222589   3.089   8.510  11.825
73586SOL     OW22590   7.526   7.663   9.232
73586SOL    HW122591   7.436   7.689   9.213
73586SOL    HW222592   7.578   7.741   9.214
73587SOL     OW22593  10.392   3.964   7.499
73587SOL    HW122594  10.337   3.915   7.560
73587SOL    HW222595  10.450   3.898   7.461
73588SOL     OW22596   7.654   8.446   1.875
73588SOL    HW122597   7.599   8.524   1.875
73588SOL    HW222598   7.712   8.458   1.800
73589SOL     OW22599  14.828  14.430   6.460
73589SOL    HW122600   0.032  14.461   6.496
73589SOL    HW222601  14.853  14.360   6.399
73590SOL     OW22602   8.899  13.385   4.805
73590SOL    HW122603   8.897  13.289   4.807
73590SOL    HW222604   8.988  13.406   4.777
73591SOL     OW22605   2.514   3.489   6.093
73591SOL    HW122606   2.497   3.460   6.003
73591SOL    HW222607   2.601   3.454   6.113
73592SOL     OW22608   6.302  14.622   2.808
73592SOL    HW122609   6.389  14.660   2.796
73592SOL    HW222610   6.249  14.664   2.740
73593SOL     OW22611   2.628   4.264   0.231
73593SOL    HW122612   2.674   4.340   0.195
73593SOL    HW222613   2.681   4.189   0.204
73594SOL     OW22614  11.931  14.306   4.786
73594SOL    HW122615  11.936  14.211   4.777
73594SOL    HW222616  11.904  14.320   4.877
73595SOL     OW22617  12.932   6.454   9.012
73595SOL    HW122618  12.998   6.518   8.986
73595SOL    HW222619  12.859   6.470   8.953
73596SOL     OW22620   1.884   1.998  10.877
73596SOL    HW122621   1.953   1.931  10.881
73596SOL    HW222622   1.893   2.047  10.959
73597SOL     OW22623   4.641  14.807   5.490
73597SOL    HW122624   4.701  14.751   5.441
73597SOL    HW222625   4.688   0.012   5.496
73598SOL     OW22626   4.994   5.023   2.922
73598SOL    HW122627   5.061   5.091   2.914
73598SOL    HW222628   4.939   5.052   2.994
73599SOL     OW22629   1.544   4.745   4.474
73599SOL    HW122630   1.609   4.791   4.528
73599SOL    HW222631   1.582   4.742   4.387
73600SOL     OW22632   5.410   0.417   2.694
73600SOL    HW122633   5.335   0.476   2.690
73600SOL    HW222634   5.390   0.348   2.631
73601SOL     OW22635   4.353   6.157   6.318
73601SOL    HW122636   4.411   6.105   6.262
73601SOL    HW222637   4.337   6.101   6.394
73602SOL     OW22638   3.439   4.682   1.035
73602SOL    HW122639   3.419   4.647   1.122
73602SOL    HW222640   3.535   4.678   1.030
73603SOL     OW22641   6.890   3.105   5.833
73603SOL    HW122642   6.910   3.012   5.825
73603SOL    HW222643   6.970   3.144   5.868
73604SOL     OW22644   2.310   4.116  14.545
73604SOL    HW122645   2.236   4.175  14.558
73604SOL    HW222646   2.350   4.108  14.632
73605SOL     OW22647   6.455   7.832   5.857
73605SOL    HW122648   6.375   7.800   5.900
73605SOL    HW222649   6.426   7.902   5.800
73606SOL     OW22650   7.176   7.691  12.200
73606SOL    HW122651   7.148   7.613  12.247
73606SOL    HW222652   7.161   7.763  12.261
73607SOL     OW22653   6.366   5.153   4.148
73607SOL    HW122654   6.399   5.229   4.100
73607SOL    HW222655   6.406   5.078   4.104
73608SOL     OW22656   7.143   3.407   0.274
73608SOL    HW122657   7.192   3.324   0.279
73608SOL    HW222658   7.209   3.474   0.289
73609SOL     OW22659  12.285  10.791   7.752
73609SOL    HW122660  12.252  10.820   7.837
73609SOL    HW222661  12.355  10.729   7.773
73610SOL     OW22662   0.213  14.873  11.030
73610SOL    HW122663   0.200  14.787  11.071
73610SOL    HW222664   0.303   0.017  11.050
73611SOL     OW22665   7.910  12.663  13.580
73611SOL    HW122666   7.976  12.676  13.512
73611SOL    HW222667   7.955  12.685  13.661
73612SOL     OW22668   6.405   8.131   0.032
73612SOL    HW122669   6.334   8.075   0.061
73612SOL    HW222670   6.369   8.176  14.834
73613SOL     OW22671   3.041   5.521   1.131
73613SOL    HW122672   3.090   5.504   1.050
73613SOL    HW222673   3.048   5.440   1.181
73614SOL     OW22674   9.417  14.126   8.321
73614SOL    HW122675   9.507  14.111   8.290
73614SOL    HW222676   9.362  14.081   8.257
73615SOL     OW22677   7.529   5.952   6.763
73615SOL    HW122678   7.531   5.864   6.725
73615SOL    HW222679   7.484   6.005   6.698
73616SOL     OW22680   2.607  10.888  12.832
73616SOL    HW122681   2.533  10.858  12.779
73616SOL    HW222682   2.567  10.916  12.915
73617SOL     OW22683   0.762  10.415   2.057
73617SOL    HW122684   0.811  10.367   1.990
73617SOL    HW222685   0.798  10.503   2.055
73618SOL     OW22686   2.592  13.448   4.858
73618SOL    HW122687   2.624  13.503   4.787
73618SOL    HW222688   2.496  13.457   4.853
73619SOL     OW22689   2.357   1.004   2.371
73619SOL    HW122690   2.425   1.071   2.376
73619SOL    HW222691   2.377   0.943   2.441
73620SOL     OW22692  13.259  13.696   3.326
73620SOL    HW122693  13.251  13.790   3.311
73620SOL    HW222694  13.250  13.686   3.421
73621SOL     OW22695  12.328   9.739   1.156
73621SOL    HW122696  12.326   9.644   1.165
73621SOL    HW222697  12.237   9.766   1.172
73622SOL     OW22698   5.861   6.706   4.441
73622SOL    HW122699   5.947   6.702   4.399
73622SOL    HW222700   5.881   6.719   4.534
73623SOL     OW22701   1.007   3.661   5.549
73623SOL    HW122702   0.945   3.723   5.588
73623SOL    HW222703   1.045   3.707   5.475
73624SOL     OW22704  10.975  13.404  10.766
73624SOL    HW122705  10.893  13.359  10.749
73624SOL    HW222706  11.040  13.356  10.714
73625SOL     OW22707   0.163  10.069   2.599
73625SOL    HW122708   0.170   9.974   2.609
73625SOL    HW222709   0.110  10.097   2.673
73626SOL     OW22710   6.700   3.101   4.543
73626SOL    HW122711   6.712   3.132   4.633
73626SOL    HW222712   6.681   3.008   4.553
73627SOL     OW22713   9.376  12.043   2.810
73627SOL    HW122714   9.302  11.987   2.786
73627SOL    HW222715   9.353  12.078   2.896
73628SOL     OW22716  12.809   9.424  13.971
73628SOL    HW122717  12.760   9.413  13.889
73628SOL    HW222718  12.853   9.340  13.985
73629SOL     OW22719  11.658   2.545   6.693
73629SOL    HW122720  11.662   2.641   6.691
73629SOL    HW222721  11.670   2.523   6.785
73630SOL     OW22722   0.256   2.966   3.145
73630SOL    HW122723   0.208   3.042   3.111
73630SOL    HW222724   0.289   2.995   3.230
73631SOL     OW22725   7.175  11.572  13.622
73631SOL    HW122726   7.214  11.657  13.639
73631SOL    HW222727   7.249  11.512  13.618
73632SOL     OW22728   9.769   0.392   0.605
73632SOL    HW122729   9.789   0.299   0.592
73632SOL    HW222730   9.845   0.438   0.569
73633SOL     OW22731   6.967  10.497   1.575
73633SOL    HW122732   6.918  10.453   1.507
73633SOL    HW222733   7.007  10.427   1.627
73634SOL     OW22734   9.939   0.187   4.152
73634SOL    HW122735   9.897   0.272   4.140
73634SOL    HW222736   9.954   0.155   4.064
73635SOL     OW22737   8.287  10.527  10.814
73635SOL    HW122738   8.324  10.500  10.730
73635SOL    HW222739   8.232  10.603  10.792
73636SOL     OW22740   9.253  13.107   1.608
73636SOL    HW122741   9.165  13.109   1.646
73636SOL    HW222742   9.258  13.187   1.555
73637SOL     OW22743   7.963  13.379   1.438
73637SOL    HW122744   8.032  13.321   1.469
73637SOL    HW222745   8.008  13.461   1.416
73638SOL     OW22746   1.125  12.504   8.005
73638SOL    HW122747   1.079  12.588   8.002
73638SOL    HW222748   1.167  12.496   7.919
73639SOL     OW22749   8.308   1.483   5.276
73639SOL    HW122750   8.241   1.437   5.327
73639SOL    HW222751   8.349   1.414   5.223
73640SOL     OW22752   9.821  14.052   1.773
73640SOL    HW122753   9.751  13.989   1.760
73640SOL    HW222754   9.777  14.131   1.804
73641SOL     OW22755  12.616  11.136  11.470
73641SOL    HW122756  12.677  11.065  11.488
73641SOL    HW222757  12.600  11.132  11.376
73642SOL     OW22758   4.869  13.744   4.457
73642SOL    HW122759   4.813  13.732   4.533
73642SOL    HW222760   4.813  13.787   4.392
73643SOL     OW22761  13.189   4.834   9.879
73643SOL    HW122762  13.276   4.799   9.898
73643SOL    HW222763  13.205   4.909   9.822
73644SOL     OW22764   8.346   2.375   5.179
73644SOL    HW122765   8.386   2.376   5.092
73644SOL    HW222766   8.374   2.458   5.219
73645SOL     OW22767   5.123   4.081   7.455
73645SOL    HW122768   5.203   4.110   7.411
73645SOL    HW222769   5.114   4.139   7.530
73646SOL     OW22770   7.144  11.603   5.911
73646SOL    HW122771   7.160  11.610   5.817
73646SOL    HW222772   7.195  11.674   5.949
73647SOL     OW22773   4.980   2.828   6.974
73647SOL    HW122774   5.070   2.797   6.968
73647SOL    HW222775   4.949   2.832   6.884
73648SOL     OW22776   8.851  13.301  10.724
73648SOL    HW122777   8.899  13.359  10.665
73648SOL    HW222778   8.894  13.216  10.715
73649SOL     OW22779   9.715  11.219  10.193
73649SOL    HW122780   9.735  11.228  10.286
73649SOL    HW222781   9.726  11.308  10.158
73650SOL     OW22782  14.758   5.445   5.343
73650SOL    HW122783  14.682   5.452   5.285
73650SOL    HW222784  14.765   5.351   5.362
73651SOL     OW22785  12.055   9.354   5.671
73651SOL    HW122786  12.089   9.325   5.586
73651SOL    HW222787  12.132   9.354   5.728
73652SOL     OW22788   4.712  13.678   4.670
73652SOL    HW122789   4.659  13.757   4.684
73652SOL    HW222790   4.648  13.607   4.665
73653SOL     OW22791  13.450   1.681  11.733
73653SOL    HW122792  13.472   1.676  11.826
73653SOL    HW222793  13.478   1.596  11.697
73654SOL     OW22794  11.672   4.883   3.527
73654SOL    HW122795  11.761   4.870   3.493
73654SOL    HW222796  11.621   4.906   3.449
73655SOL     OW22797   7.403  11.270   2.459
73655SOL    HW122798   7.327  11.240   2.509
73655SOL    HW222799   7.366  11.302   2.377
73656SOL     OW22800   6.833   2.236   9.723
73656SOL    HW122801   6.923   2.267   9.709
73656SOL    HW222802   6.782   2.315   9.733
73657SOL     OW22803  12.771  11.847   4.281
73657SOL    HW122804  12.866  11.836   4.280
73657SOL    HW222805  12.737  11.773   4.230
73658SOL     OW22806   1.730   5.147   2.024
73658SOL    HW122807   1.698   5.206   1.956
73658SOL    HW222808   1.691   5.179   2.105
73659SOL     OW22809  12.411   5.956   4.101
73659SOL    HW122810  12.361   6.035   4.121
73659SOL    HW222811  12.493   5.988   4.062
73660SOL     OW22812   8.661   7.176   9.743
73660SOL    HW122813   8.750   7.153   9.769
73660SOL    HW222814   8.637   7.112   9.676
73661SOL     OW22815  12.635   6.656   6.874
73661SOL    HW122816  12.596   6.589   6.930
73661SOL    HW222817  12.591   6.646   6.790
73662SOL     OW22818  10.028   7.955  10.132
73662SOL    HW122819  10.123   7.946  10.136
73662SOL    HW222820  10.011   7.989  10.044
73663SOL     OW22821  14.867   8.562  14.285
73663SOL    HW122822  14.791   8.602  14.243
73663SOL    HW222823  14.832   8.485  14.330
73664SOL     OW22824   8.144   0.348   2.913
73664SOL    HW122825   8.110   0.408   2.847
73664SOL    HW222826   8.170   0.270   2.864
73665SOL     OW22827   5.657   4.212  10.373
73665SOL    HW122828   5.623   4.133  10.417
73665SOL    HW222829   5.592   4.279  10.391
73666SOL     OW22830   0.702   3.756   6.987
73666SOL    HW122831   0.731   3.831   7.039
73666SOL    HW222832   0.611   3.743   7.013
73667SOL     OW22833   1.228   4.966   7.425
73667SOL    HW122834   1.274   5.049   7.413
73667SOL    HW222835   1.298   4.902   7.437
73668SOL     OW22836   0.717   8.718   7.936
73668SOL    HW122837   0.628   8.705   7.905
73668SOL    HW222838   0.756   8.630   7.938
73669SOL     OW22839   2.479  13.897   6.148
73669SOL    HW122840   2.503  13.865   6.235
73669SOL    HW222841   2.543  13.857   6.089
73670SOL     OW22842   1.651   4.011   2.145
73670SOL    HW122843   1.681   3.921   2.139
73670SOL    HW222844   1.698   4.048   2.219
73671SOL     OW22845  11.146   2.419  12.052
73671SOL    HW122846  11.053   2.405  12.035
73671SOL    HW222847  11.153   2.418  12.148
73672SOL     OW22848   6.137   4.852   2.466
73672SOL    HW122849   6.126   4.944   2.443
73672SOL    HW222850   6.048   4.817   2.468
73673SOL     OW22851   7.178   2.348   3.661
73673SOL    HW122852   7.084   2.364   3.661
73673SOL    HW222853   7.207   2.376   3.748
73674SOL     OW22854   2.694   2.977  11.263
73674SOL    HW122855   2.784   2.974  11.229
73674SOL    HW222856   2.693   3.052  11.322
73675SOL     OW22857  14.550   2.797   2.408
73675SOL    HW122858  14.587   2.730   2.466
73675SOL    HW222859  14.575   2.880   2.447
73676SOL     OW22860  12.812   7.804  14.472
73676SOL    HW122861  12.766   7.844  14.398
73676SOL    HW222862  12.823   7.712  14.446
73677SOL     OW22863   5.461  10.849   8.854
73677SOL    HW122864   5.450  10.884   8.943
73677SOL    HW222865   5.377  10.866   8.811
73678SOL     OW22866  11.586   0.396   2.259
73678SOL    HW122867  11.506   0.444   2.279
73678SOL    HW222868  11.648   0.423   2.326
73679SOL     OW22869   4.445  12.265   8.891
73679SOL    HW122870   4.396  12.325   8.834
73679SOL    HW222871   4.393  12.261   8.971
73680SOL     OW22872   8.374  11.232   7.131
73680SOL    HW122873   8.353  11.287   7.055
73680SOL    HW222874   8.319  11.154   7.121
73681SOL     OW22875   7.330   0.460   3.814
73681SOL    HW122876   7.343   0.544   3.859
73681SOL    HW222877   7.237   0.441   3.827
73682SOL     OW22878   2.905  11.861   6.248
73682SOL    HW122879   2.927  11.768   6.242
73682SOL    HW222880   2.985  11.906   6.221
73683SOL     OW22881  11.519   0.015   6.464
73683SOL    HW122882  11.557  14.869   6.548
73683SOL    HW222883  11.593   0.048   6.413
73684SOL     OW22884   2.947   2.318  13.469
73684SOL    HW122885   2.897   2.318  13.388
73684SOL    HW222886   2.909   2.389  13.521
73685SOL     OW22887   5.746   1.984   5.923
73685SOL    HW122888   5.811   2.037   5.876
73685SOL    HW222889   5.685   1.956   5.854
73686SOL     OW22890   0.336   7.687   6.731
73686SOL    HW122891   0.406   7.672   6.794
73686SOL    HW222892   0.380   7.697   6.647
73687SOL     OW22893  10.092   7.529   8.401
73687SOL    HW122894  10.138   7.450   8.429
73687SOL    HW222895  10.023   7.497   8.343
73688SOL     OW22896   5.581   9.452   2.160
73688SOL    HW122897   5.506   9.441   2.218
73688SOL    HW222898   5.570   9.540   2.123
73689SOL     OW22899  10.633   7.384  12.255
73689SOL    HW122900  10.559   7.387  12.193
73689SOL    HW222901  10.708   7.415  12.203
73690SOL     OW22902  14.282  11.192   7.482
73690SOL    HW122903  14.239  11.138   7.415
73690SOL    HW222904  14.349  11.134   7.519
73691SOL     OW22905   8.722   5.134   9.897
73691SOL    HW122906   8.775   5.054   9.890
73691SOL    HW222907   8.785   5.202   9.921
73692SOL     OW22908   2.223   4.702   4.586
73692SOL    HW122909   2.245   4.662   4.670
73692SOL    HW222910   2.304   4.700   4.535
73693SOL     OW22911   4.557  14.330   1.893
73693SOL    HW122912   4.537  14.420   1.870
73693SOL    HW222913   4.620  14.301   1.827
73694SOL     OW22914  10.337   0.174   1.406
73694SOL    HW122915  10.244   0.177   1.428
73694SOL    HW222916  10.339   0.151   1.313
73695SOL     OW22917   7.396   8.378   6.934
73695SOL    HW122918   7.329   8.430   6.889
73695SOL    HW222919   7.398   8.295   6.888
73696SOL     OW22920   3.497   2.748  14.622
73696SOL    HW122921   3.535   2.682  14.564
73696SOL    HW222922   3.431   2.701  14.673
73697SOL     OW22923   3.860   3.056  11.342
73697SOL    HW122924   3.764   3.060  11.342
73697SOL    HW222925   3.883   3.035  11.252
73698SOL     OW22926  10.228   8.405  12.872
73698SOL    HW122927  10.231   8.449  12.957
73698SOL    HW222928  10.136   8.408  12.846
73699SOL     OW22929   4.270   4.673   2.046
73699SOL    HW122930   4.343   4.702   1.993
73699SOL    HW222931   4.307   4.659   2.133
73700SOL     OW22932   9.614   0.193   1.757
73700SOL    HW122933   9.659   0.198   1.841
73700SOL    HW222934   9.530   0.152   1.776
73701SOL     OW22935   5.155   7.604  13.972
73701SOL    HW122936   5.113   7.687  13.950
73701SOL    HW222937   5.085   7.539  13.965
73702SOL     OW22938   0.990   5.543   9.935
73702SOL    HW122939   0.934   5.581  10.002
73702SOL    HW222940   1.008   5.615   9.874
73703SOL     OW22941  11.774   2.301   6.144
73703SOL    HW122942  11.691   2.258   6.159
73703SOL    HW222943  11.836   2.257   6.202
73704SOL     OW22944  14.516   0.927   5.586
73704SOL    HW122945  14.510   0.851   5.643
73704SOL    HW222946  14.597   0.913   5.536
73705SOL     OW22947  11.319   1.642   0.350
73705SOL    HW122948  11.340   1.678   0.436
73705SOL    HW222949  11.401   1.651   0.300
73706SOL     OW22950   2.623  10.938   5.700
73706SOL    HW122951   2.701  10.962   5.749
73706SOL    HW222952   2.581  10.870   5.753
73707SOL     OW22953   5.709   0.772  14.853
73707SOL    HW122954   5.748   0.854   0.005
73707SOL    HW222955   5.756   0.704   0.022
73708SOL     OW22956  14.850  10.551   8.092
73708SOL    HW122957   0.051  10.543   8.040
73708SOL    HW222958  14.811  10.464   8.092
73709SOL     OW22959  14.756  10.770  14.870
73709SOL    HW122960  14.791  10.858  14.856
73709SOL    HW222961  14.661  10.783  14.877
73710SOL     OW22962   0.755  13.571   5.136
73710SOL    HW122963   0.730  13.480   5.156
73710SOL    HW222964   0.810  13.597   5.210
73711SOL     OW22965   6.753   8.398   3.072
73711SOL    HW122966   6.820   8.430   3.133
73711SOL    HW222967   6.800   8.335   3.017
73712SOL     OW22968   7.157  10.735  10.406
73712SOL    HW122969   7.239  10.700  10.441
73712SOL    HW222970   7.174  10.828  10.394
73713SOL     OW22971   2.467  13.249  10.370
73713SOL    HW122972   2.409  13.198  10.313
73713SOL    HW222973   2.551  13.204  10.366
73714SOL     OW22974   3.253   0.891  10.574
73714SOL    HW122975   3.324   0.831  10.598
73714SOL    HW222976   3.191   0.836  10.526
73715SOL     OW22977   7.052  11.244   2.936
73715SOL    HW122978   7.137  11.285   2.951
73715SOL    HW222979   7.016  11.231   3.024
73716SOL     OW22980   2.282  11.125   3.439
73716SOL    HW122981   2.320  11.098   3.522
73716SOL    HW222982   2.246  11.045   3.401
73717SOL     OW22983   6.345  10.537   9.898
73717SOL    HW122984   6.363  10.535   9.803
73717SOL    HW222985   6.431  10.523   9.938
73718SOL     OW22986   5.649  14.290  13.438
73718SOL    HW122987   5.617  14.303  13.348
73718SOL    HW222988   5.629  14.371  13.483
73719SOL     OW22989  10.804   0.095   0.126
73719SOL    HW122990  10.877   0.051   0.170
73719SOL    HW222991  10.733   0.092   0.190
73720SOL     OW22992   8.124   7.948   6.527
73720SOL    HW122993   8.039   7.930   6.487
73720SOL    HW222994   8.176   7.987   6.457
73721SOL     OW22995  10.949  10.292   7.588
73721SOL    HW122996  11.004  10.261   7.660
73721SOL    HW222997  10.919  10.379   7.617
73722SOL     OW22998  13.715  12.558  14.296
73722SOL    HW122999  13.687  12.649  14.289
73722SOL    HW223000  13.676  12.515  14.219
73723SOL     OW23001   1.365   8.738   6.270
73723SOL    HW123002   1.338   8.663   6.321
73723SOL    HW223003   1.446   8.711   6.227
73724SOL     OW23004   4.068   2.536   3.356
73724SOL    HW123005   4.070   2.595   3.281
73724SOL    HW223006   4.032   2.454   3.321
73725SOL     OW23007  12.113  12.568   9.866
73725SOL    HW123008  12.141  12.624   9.794
73725SOL    HW223009  12.140  12.480   9.840
73726SOL     OW23010   8.396  11.448   9.122
73726SOL    HW123011   8.469  11.395   9.090
73726SOL    HW223012   8.330  11.441   9.054
73727SOL     OW23013   6.682  10.737  14.240
73727SOL    HW123014   6.596  10.777  14.252
73727SOL    HW223015   6.744  10.806  14.261
73728SOL     OW23016  11.150   6.390   2.616
73728SOL    HW123017  11.143   6.482   2.642
73728SOL    HW223018  11.200   6.349   2.687
73729SOL     OW23019   1.726   9.252   8.212
73729SOL    HW123020   1.798   9.297   8.255
73729SOL    HW223021   1.724   9.288   8.124
73730SOL     OW23022   0.695   3.739   5.250
73730SOL    HW123023   0.702   3.713   5.158
73730SOL    HW223024   0.733   3.666   5.299
73731SOL     OW23025  12.770   8.537   2.020
73731SOL    HW123026  12.715   8.601   1.975
73731SOL    HW223027  12.715   8.459   2.028
73732SOL     OW23028   1.663  10.569  13.439
73732SOL    HW123029   1.658  10.610  13.353
73732SOL    HW223030   1.586  10.513  13.444
73733SOL     OW23031   6.748   5.170   2.283
73733SOL    HW123032   6.756   5.196   2.191
73733SOL    HW223033   6.766   5.251   2.332
73734SOL     OW23034   8.591   4.188   0.355
73734SOL    HW123035   8.538   4.258   0.317
73734SOL    HW223036   8.568   4.189   0.448
73735SOL     OW23037  11.280  11.271   5.476
73735SOL    HW123038  11.300  11.306   5.389
73735SOL    HW223039  11.355  11.215   5.497
73736SOL     OW23040  11.476   6.913   8.071
73736SOL    HW123041  11.410   6.922   8.139
73736SOL    HW223042  11.434   6.863   8.002
73737SOL     OW23043   2.949   3.612   8.412
73737SOL    HW123044   2.985   3.524   8.401
73737SOL    HW223045   2.967   3.635   8.503
73738SOL     OW23046   4.169  14.101   1.687
73738SOL    HW123047   4.197  14.187   1.655
73738SOL    HW223048   4.178  14.044   1.611
73739SOL     OW23049   2.294   0.333   0.467
73739SOL    HW123050   2.257   0.339   0.555
73739SOL    HW223051   2.251   0.403   0.418
73740SOL     OW23052   4.293   5.166  13.491
73740SOL    HW123053   4.327   5.129  13.573
73740SOL    HW223054   4.371   5.194  13.443
73741SOL     OW23055   0.449  14.684  14.523
73741SOL    HW123056   0.539  14.688  14.553
73741SOL    HW223057   0.398  14.665  14.603
73742SOL     OW23058   0.884   9.754  13.880
73742SOL    HW123059   0.947   9.760  13.952
73742SOL    HW223060   0.880   9.660  13.861
73743SOL     OW23061   0.722   2.415  12.811
73743SOL    HW123062   0.801   2.469  12.796
73743SOL    HW223063   0.701   2.429  12.903
73744SOL     OW23064  10.788   1.299   9.139
73744SOL    HW123065  10.742   1.267   9.216
73744SOL    HW223066  10.752   1.248   9.066
73745SOL     OW23067   3.806   1.165   2.667
73745SOL    HW123068   3.898   1.190   2.662
73745SOL    HW223069   3.804   1.072   2.642
73746SOL     OW23070   4.174  10.554  10.019
73746SOL    HW123071   4.132  10.616  10.079
73746SOL    HW223072   4.267  10.580  10.019
73747SOL     OW23073   6.372  14.083   5.487
73747SOL    HW123074   6.331  14.130   5.560
73747SOL    HW223075   6.333  13.995   5.491
73748SOL     OW23076  14.031   0.477  10.725
73748SOL    HW123077  14.034   0.532  10.803
73748SOL    HW223078  14.017   0.539  10.653
73749SOL     OW23079   9.587   7.865  12.515
73749SOL    HW123080   9.579   7.789  12.574
73749SOL    HW223081   9.661   7.915  12.550
73750SOL     OW23082   5.984  13.985   6.777
73750SOL    HW123083   6.008  14.052   6.712
73750SOL    HW223084   5.954  13.911   6.724
73751SOL     OW23085   3.194   1.512   2.380
73751SOL    HW123086   3.221   1.471   2.462
73751SOL    HW223087   3.277   1.534   2.337
73752SOL     OW23088  13.320   2.601   6.179
73752SOL    HW123089  13.321   2.605   6.083
73752SOL    HW223090  13.229   2.618   6.203
73753SOL     OW23091  10.580   2.307  13.125
73753SOL    HW123092  10.577   2.402  13.135
73753SOL    HW223093  10.641   2.292  13.053
73754SOL     OW23094   1.740  12.031   3.105
73754SOL    HW123095   1.701  12.004   3.188
73754SOL    HW223096   1.682  12.099   3.072
73755SOL     OW23097   4.334   8.115   0.291
73755SOL    HW123098   4.401   8.047   0.277
73755SOL    HW223099   4.297   8.095   0.376
73756SOL     OW23100   5.973   7.007   0.473
73756SOL    HW123101   6.013   7.088   0.443
73756SOL    HW223102   5.921   7.033   0.549
73757SOL     OW23103  13.279  14.605   3.793
73757SOL    HW123104  13.204  14.652   3.830
73757SOL    HW223105  13.250  14.514   3.788
73758SOL     OW23106  11.602  13.233   9.894
73758SOL    HW123107  11.662  13.164   9.865
73758SOL    HW223108  11.581  13.210   9.984
73759SOL     OW23109   1.566   3.102   4.438
73759SOL    HW123110   1.517   3.166   4.490
73759SOL    HW223111   1.592   3.035   4.500
73760SOL     OW23112  10.095  12.833   0.783
73760SOL    HW123113  10.070  12.752   0.827
73760SOL    HW223114  10.190  12.830   0.778
73761SOL     OW23115   1.856  11.253   3.081
73761SOL    HW123116   1.780  11.199   3.105
73761SOL    HW223117   1.819  11.327   3.034
73762SOL     OW23118  10.550   3.162  14.049
73762SOL    HW123119  10.613   3.178  13.978
73762SOL    HW223120  10.557   3.069  14.067
73763SOL     OW23121   0.004   4.496   1.076
73763SOL    HW123122  14.788   4.491   1.069
73763SOL    HW223123   0.029   4.426   1.135
73764SOL     OW23124  14.623  11.857   9.516
73764SOL    HW123125  14.599  11.818   9.432
73764SOL    HW223126  14.597  11.792   9.581
73765SOL     OW23127   3.470  11.436   9.834
73765SOL    HW123128   3.550  11.488   9.841
73765SOL    HW223129   3.401  11.491   9.872
73766SOL     OW23130   6.422  10.986   4.081
73766SOL    HW123131   6.333  11.012   4.104
73766SOL    HW223132   6.467  11.068   4.062
73767SOL     OW23133  11.979   2.025   0.008
73767SOL    HW123134  11.891   1.991   0.026
73767SOL    HW223135  12.038   1.956   0.036
73768SOL     OW23136  13.785   6.253  11.314
73768SOL    HW123137  13.703   6.301  11.323
73768SOL    HW223138  13.836   6.304  11.251
73769SOL     OW23139   7.055   9.123   1.860
73769SOL    HW123140   6.980   9.165   1.902
73769SOL    HW223141   7.127   9.135   1.922
73770SOL     OW23142   5.939   7.206  10.523
73770SOL    HW123143   6.003   7.157  10.577
73770SOL    HW223144   5.922   7.285  10.573
73771SOL     OW23145   0.875   9.665  10.800
73771SOL    HW123146   0.906   9.591  10.747
73771SOL    HW223147   0.886   9.741  10.743
73772SOL     OW23148  10.704   3.018   5.234
73772SOL    HW123149  10.699   2.925   5.212
73772SOL    HW223150  10.617   3.039   5.269
73773SOL     OW23151   3.057   1.415  10.192
73773SOL    HW123152   2.966   1.420  10.163
73773SOL    HW223153   3.054   1.362  10.271
73774SOL     OW23154   3.062   2.017  11.634
73774SOL    HW123155   2.972   1.987  11.619
73774SOL    HW223156   3.116   1.946  11.600
73775SOL     OW23157   6.574  13.032   5.242
73775SOL    HW123158   6.662  13.061   5.265
73775SOL    HW223159   6.551  12.969   5.311
73776SOL     OW23160   8.236   1.280   1.373
73776SOL    HW123161   8.328   1.260   1.391
73776SOL    HW223162   8.213   1.225   1.299
73777SOL     OW23163  10.892   9.088   8.827
73777SOL    HW123164  10.964   9.040   8.785
73777SOL    HW223165  10.819   9.082   8.766
73778SOL     OW23166   9.036   7.515   0.247
73778SOL    HW123167   8.943   7.506   0.268
73778SOL    HW223168   9.045   7.479   0.159
73779SOL     OW23169   1.817   5.409   1.275
73779SOL    HW123170   1.770   5.424   1.193
73779SOL    HW223171   1.894   5.359   1.250
73780SOL     OW23172  11.690   1.084  14.321
73780SOL    HW123173  11.680   1.023  14.248
73780SOL    HW223174  11.600   1.100  14.351
73781SOL     OW23175   9.616  10.678  12.600
73781SOL    HW123176   9.682  10.679  12.530
73781SOL    HW223177   9.550  10.740  12.571
73782SOL     OW23178  11.496  11.910  13.119
73782SOL    HW123179  11.546  11.902  13.200
73782SOL    HW223180  11.537  11.983  13.072
73783SOL     OW23181  10.074   7.273   1.101
73783SOL    HW123182  10.057   7.285   1.008
73783SOL    HW223183  10.151   7.216   1.104
73784SOL     OW23184   6.788  13.793  12.987
73784SOL    HW123185   6.845  13.833  12.922
73784SOL    HW223186   6.749  13.866  13.034
73785SOL     OW23187  13.936  10.789  14.239
73785SOL    HW123188  13.842  10.804  14.243
73785SOL    HW223189  13.958  10.750  14.324
73786SOL     OW23190  14.309  10.021   5.953
73786SOL    HW123191  14.358  10.102   5.942
73786SOL    HW223192  14.217  10.046   5.940
73787SOL     OW23193  10.418   3.747   4.836
73787SOL    HW123194  10.330   3.730   4.870
73787SOL    HW223195  10.403   3.784   4.749
73788SOL     OW23196   8.195   5.706   6.897
73788SOL    HW123197   8.220   5.641   6.831
73788SOL    HW223198   8.210   5.661   6.980
73789SOL     OW23199   8.599  14.652   6.313
73789SOL    HW123200   8.587  14.647   6.408
73789SOL    HW223201   8.556  14.572   6.280
73790SOL     OW23202  12.591   2.582   3.492
73790SOL    HW123203  12.656   2.512   3.503
73790SOL    HW223204  12.643   2.659   3.466
73791SOL     OW23205   3.311  10.724  13.380
73791SOL    HW123206   3.240  10.774  13.421
73791SOL    HW223207   3.378  10.716  13.448
73792SOL     OW23208   2.849   3.152   8.036
73792SOL    HW123209   2.932   3.196   8.049
73792SOL    HW223210   2.792   3.186   8.105
73793SOL     OW23211  14.495   8.596  10.278
73793SOL    HW123212  14.497   8.501  10.266
73793SOL    HW223213  14.444   8.610  10.358
73794SOL     OW23214   8.874   8.255  14.467
73794SOL    HW123215   8.787   8.258  14.507
73794SOL    HW223216   8.931   8.220  14.536
73795SOL     OW23217   5.161   9.323  13.853
73795SOL    HW123218   5.117   9.250  13.810
73795SOL    HW223219   5.240   9.285  13.891
73796SOL     OW23220  12.314   6.151  14.370
73796SOL    HW123221  12.332   6.179  14.460
73796SOL    HW223222  12.383   6.087  14.351
73797SOL     OW23223   5.339   1.431   0.022
73797SOL    HW123224   5.297   1.516   0.013
73797SOL    HW223225   5.356   1.403  14.811
73798SOL     OW23226   0.658  14.081   1.983
73798SOL    HW123227   0.734  14.093   2.041
73798SOL    HW223228   0.596  14.148   2.012
73799SOL     OW23229   9.851   4.904  10.239
73799SOL    HW123230   9.937   4.922  10.278
73799SOL    HW223231   9.798   4.980  10.261
73800SOL     OW23232   5.905   0.843  11.323
73800SOL    HW123233   5.899   0.931  11.286
73800SOL    HW223234   5.884   0.785  11.249
73801SOL     OW23235  11.558   8.916  10.102
73801SOL    HW123236  11.617   8.844  10.078
73801SOL    HW223237  11.615   8.992  10.113
73802SOL     OW23238   6.194   1.765   1.984
73802SOL    HW123239   6.205   1.827   2.056
73802SOL    HW223240   6.266   1.785   1.924
73803SOL     OW23241  11.481   0.764  13.195
73803SOL    HW123242  11.447   0.742  13.108
73803SOL    HW223243  11.550   0.828  13.177
73804SOL     OW23244  13.083  11.995   6.352
73804SOL    HW123245  12.995  11.963   6.335
73804SOL    HW223246  13.093  11.988   6.447
73805SOL     OW23247   8.804  13.257  14.263
73805SOL    HW123248   8.822  13.348  14.241
73805SOL    HW223249   8.853  13.207  14.197
73806SOL     OW23250   2.863  14.651  14.480
73806SOL    HW123251   2.798  14.720  14.477
73806SOL    HW223252   2.819  14.574  14.444
73807SOL     OW23253  13.061  12.234   7.908
73807SOL    HW123254  13.078  12.175   7.982
73807SOL    HW223255  13.002  12.300   7.944
73808SOL     OW23256   0.522   3.907   6.034
73808SOL    HW123257   0.592   3.862   6.081
73808SOL    HW223258   0.537   4.000   6.051
73809SOL     OW23259   0.833   5.222   0.608
73809SOL    HW123260   0.744   5.243   0.580
73809SOL    HW223261   0.875   5.307   0.620
73810SOL     OW23262   9.203   4.460   3.598
73810SOL    HW123263   9.277   4.520   3.609
73810SOL    HW223264   9.142   4.485   3.668
73811SOL     OW23265   9.941   1.974   5.418
73811SOL    HW123266   9.892   2.055   5.427
73811SOL    HW223267   9.982   1.960   5.504
73812SOL     OW23268  13.332  11.376  13.096
73812SOL    HW123269  13.399  11.439  13.121
73812SOL    HW223270  13.249  11.424  13.105
73813SOL     OW23271  11.342  13.548   4.204
73813SOL    HW123272  11.391  13.629   4.189
73813SOL    HW223273  11.406  13.488   4.242
73814SOL     OW23274  12.610  10.451   7.968
73814SOL    HW123275  12.702  10.474   7.962
73814SOL    HW223276  12.609  10.362   8.002
73815SOL     OW23277   3.919   5.034  14.687
73815SOL    HW123278   3.895   4.942  14.695
73815SOL    HW223279   3.855   5.080  14.741
73816SOL     OW23280   5.101   4.958  12.646
73816SOL    HW123281   5.059   4.975  12.730
73816SOL    HW223282   5.168   4.892  12.666
73817SOL     OW23283   0.232   6.046   8.631
73817SOL    HW123284   0.256   5.955   8.614
73817SOL    HW223285   0.136   6.047   8.625
73818SOL     OW23286  13.813  13.727   2.146
73818SOL    HW123287  13.805  13.798   2.210
73818SOL    HW223288  13.834  13.650   2.198
73819SOL     OW23289   6.614   7.557   2.460
73819SOL    HW123290   6.632   7.648   2.435
73819SOL    HW223291   6.679   7.506   2.412
73820SOL     OW23292  12.255   2.692   5.288
73820SOL    HW123293  12.328   2.652   5.335
73820SOL    HW223294  12.185   2.698   5.354
73821SOL     OW23295   9.824  12.742   9.505
73821SOL    HW123296   9.917  12.764   9.505
73821SOL    HW223297   9.808  12.701   9.420
73822SOL     OW23298   1.762   4.863  12.839
73822SOL    HW123299   1.809   4.941  12.868
73822SOL    HW223300   1.770   4.865  12.744
73823SOL     OW23301   5.808   2.342   9.107
73823SOL    HW123302   5.875   2.296   9.056
73823SOL    HW223303   5.808   2.298   9.192
73824SOL     OW23304  10.973   4.463   2.902
73824SOL    HW123305  10.975   4.396   2.834
73824SOL    HW223306  11.031   4.430   2.971
73825SOL     OW23307   7.501   1.499   7.946
73825SOL    HW123308   7.483   1.592   7.959
73825SOL    HW223309   7.579   1.482   7.998
73826SOL     OW23310   7.977   1.656   4.826
73826SOL    HW123311   7.929   1.646   4.744
73826SOL    HW223312   8.031   1.734   4.813
73827SOL     OW23313   0.979  11.330   9.138
73827SOL    HW123314   1.065  11.293   9.118
73827SOL    HW223315   0.939  11.266   9.197
73828SOL     OW23316   3.880   3.819   9.567
73828SOL    HW123317   3.806   3.768   9.600
73828SOL    HW223318   3.876   3.808   9.472
73829SOL     OW23319   6.834   6.155   2.424
73829SOL    HW123320   6.839   6.248   2.446
73829SOL    HW223321   6.845   6.110   2.508
73830SOL     OW23322  11.801  12.614   8.465
73830SOL    HW123323  11.851  12.556   8.407
73830SOL    HW223324  11.758  12.554   8.527
73831SOL     OW23325   2.150   5.735   8.506
73831SOL    HW123326   2.120   5.743   8.415
73831SOL    HW223327   2.112   5.653   8.537
73832SOL     OW23328  12.097   5.171   1.640
73832SOL    HW123329  12.021   5.159   1.698
73832SOL    HW223330  12.110   5.265   1.637
73833SOL     OW23331   9.250   0.294  13.470
73833SOL    HW123332   9.298   0.374  13.448
73833SOL    HW223333   9.170   0.325  13.512
73834SOL     OW23334   6.954   5.776   8.380
73834SOL    HW123335   6.876   5.768   8.324
73834SOL    HW223336   7.002   5.694   8.366
73835SOL     OW23337   0.274   4.807   5.853
73835SOL    HW123338   0.280   4.826   5.759
73835SOL    HW223339   0.203   4.862   5.884
73836SOL     OW23340   4.133   9.832  11.753
73836SOL    HW123341   4.064   9.793  11.807
73836SOL    HW223342   4.179   9.892  11.811
73837SOL     OW23343  12.609   8.054   6.948
73837SOL    HW123344  12.541   8.107   6.989
73837SOL    HW223345  12.656   8.014   7.022
73838SOL     OW23346   7.588   1.631  14.808
73838SOL    HW123347   7.513   1.593  14.763
73838SOL    HW223348   7.551   1.695  14.868
73839SOL     OW23349   7.956  10.030  12.465
73839SOL    HW123350   8.006   9.952  12.442
73839SOL    HW223351   7.867   9.998  12.484
73840SOL     OW23352   2.788   7.437   8.503
73840SOL    HW123353   2.812   7.501   8.436
73840SOL    HW223354   2.694   7.448   8.514
73841SOL     OW23355   9.102   8.548  10.712
73841SOL    HW123356   9.086   8.587  10.626
73841SOL    HW223357   9.162   8.610  10.755
73842SOL     OW23358   3.136  11.199   3.941
73842SOL    HW123359   3.101  11.285   3.918
73842SOL    HW223360   3.179  11.169   3.861
73843SOL     OW23361   7.284  11.846   4.580
73843SOL    HW123362   7.246  11.768   4.540
73843SOL    HW223363   7.378  11.831   4.577
73844SOL     OW23364  13.409   8.203   4.086
73844SOL    HW123365  13.436   8.240   4.170
73844SOL    HW223366  13.384   8.113   4.107
73845SOL     OW23367   8.429   4.115  14.140
73845SOL    HW123368   8.420   4.144  14.230
73845SOL    HW223369   8.493   4.175  14.102
73846SOL     OW23370   8.790  13.815   0.554
73846SOL    HW123371   8.808  13.844   0.644
73846SOL    HW223372   8.810  13.721   0.554
73847SOL     OW23373   5.042   2.888   4.535
73847SOL    HW123374   5.039   2.797   4.565
73847SOL    HW223375   5.059   2.882   4.441
73848SOL     OW23376   1.830   5.078   5.582
73848SOL    HW123377   1.896   5.013   5.606
73848SOL    HW223378   1.792   5.045   5.501
73849SOL     OW23379  11.942   3.936   4.083
73849SOL    HW123380  11.976   4.026   4.084
73849SOL    HW223381  11.955   3.905   4.173
73850SOL     OW23382  10.026  12.254   6.841
73850SOL    HW123383   9.991  12.334   6.802
73850SOL    HW223384   9.957  12.226   6.902
73851SOL     OW23385   8.041   4.530   8.744
73851SOL    HW123386   8.130   4.553   8.769
73851SOL    HW223387   8.019   4.456   8.801
73852SOL     OW23388   2.945  14.072  10.544
73852SOL    HW123389   2.851  14.082  10.558
73852SOL    HW223390   2.953  14.042  10.454
73853SOL     OW23391   2.849  10.473   5.223
73853SOL    HW123392   2.805  10.543   5.174
73853SOL    HW223393   2.918  10.517   5.272
73854SOL     OW23394  12.656   8.761   3.675
73854SOL    HW123395  12.646   8.805   3.590
73854SOL    HW223396  12.725   8.696   3.660
73855SOL     OW23397   6.076   4.642   0.067
73855SOL    HW123398   6.080   4.724   0.116
73855SOL    HW223399   6.165   4.629   0.034
73856SOL     OW23400   9.968  10.775   8.296
73856SOL    HW123401   9.922  10.853   8.266
73856SOL    HW223402   9.900  10.720   8.335
73857SOL     OW23403   3.586   2.132   3.939
73857SOL    HW123404   3.528   2.141   3.864
73857SOL    HW223405   3.672   2.160   3.907
73858SOL     OW23406   0.286   7.270  12.316
73858SOL    HW123407   0.326   7.210  12.253
73858SOL    HW223408   0.247   7.339  12.263
73859SOL     OW23409   3.440   7.810  13.405
73859SOL    HW123410   3.426   7.835  13.313
73859SOL    HW223411   3.400   7.881  13.455
73860SOL     OW23412  14.855   4.147   8.828
73860SOL    HW123413  14.815   4.080   8.772
73860SOL    HW223414   0.035   4.195   8.769
73861SOL     OW23415   6.034   7.900   5.665
73861SOL    HW123416   6.038   7.987   5.625
73861SOL    HW223417   5.991   7.845   5.599
73862SOL     OW23418  10.149   1.470   0.912
73862SOL    HW123419  10.173   1.401   0.975
73862SOL    HW223420  10.176   1.551   0.954
73863SOL     OW23421   6.840   4.500   9.438
73863SOL    HW123422   6.750   4.508   9.407
73863SOL    HW223423   6.867   4.589   9.459
73864SOL     OW23424  14.846  11.188   9.041
73864SOL    HW123425  14.779  11.196   9.109
73864SOL    HW223426  14.874  11.096   9.045
73865SOL     OW23427   4.215   1.855  10.892
73865SOL    HW123428   4.214   1.833  10.799
73865SOL    HW223429   4.304   1.834  10.921
73866SOL     OW23430  11.614   2.250  10.938
73866SOL    HW123431  11.526   2.239  10.901
73866SOL    HW223432  11.673   2.219  10.869
73867SOL     OW23433  12.090   1.215   5.578
73867SOL    HW123434  12.167   1.254   5.620
73867SOL    HW223435  12.015   1.256   5.622
73868SOL     OW23436   7.945   0.343   9.624
73868SOL    HW123437   7.955   0.438   9.634
73868SOL    HW223438   8.001   0.306   9.692
73869SOL     OW23439   5.288   7.633   3.645
73869SOL    HW123440   5.245   7.705   3.599
73869SOL    HW223441   5.312   7.571   3.576
73870SOL     OW23442   6.445   5.638  11.113
73870SOL    HW123443   6.372   5.590  11.152
73870SOL    HW223444   6.523   5.598  11.151
73871SOL     OW23445   1.236   0.880   1.226
73871SOL    HW123446   1.217   0.967   1.260
73871SOL    HW223447   1.315   0.853   1.273
73872SOL     OW23448   4.852   2.117   3.053
73872SOL    HW123449   4.865   2.088   3.144
73872SOL    HW223450   4.792   2.053   3.016
73873SOL     OW23451   5.564  10.681   2.025
73873SOL    HW123452   5.560  10.777   2.032
73873SOL    HW223453   5.614  10.654   2.102
73874SOL     OW23454   3.735  14.518   8.447
73874SOL    HW123455   3.792  14.506   8.370
73874SOL    HW223456   3.737  14.433   8.491
73875SOL     OW23457  11.685   5.152  13.853
73875SOL    HW123458  11.662   5.239  13.820
73875SOL    HW223459  11.764   5.167  13.906
73876SOL     OW23460  13.731   5.929   0.973
73876SOL    HW123461  13.718   5.837   0.996
73876SOL    HW223462  13.682   5.941   0.892
73877SOL     OW23463  10.412   0.654   1.188
73877SOL    HW123464  10.477   0.608   1.241
73877SOL    HW223465  10.328   0.624   1.221
73878SOL     OW23466  13.960   3.113   0.779
73878SOL    HW123467  13.888   3.116   0.842
73878SOL    HW223468  13.998   3.201   0.782
73879SOL     OW23469   8.521  14.245  13.863
73879SOL    HW123470   8.505  14.317  13.924
73879SOL    HW223471   8.527  14.287  13.778
73880SOL     OW23472   7.197   9.970  10.140
73880SOL    HW123473   7.222  10.061  10.122
73880SOL    HW223474   7.230   9.921  10.064
73881SOL     OW23475   9.693   6.393   3.439
73881SOL    HW123476   9.685   6.464   3.375
73881SOL    HW223477   9.752   6.428   3.506
73882SOL     OW23478   8.044   5.549   8.902
73882SOL    HW123479   8.060   5.623   8.960
73882SOL    HW223480   7.971   5.502   8.942
73883SOL     OW23481   8.457   9.502   9.670
73883SOL    HW123482   8.480   9.465   9.585
73883SOL    HW223483   8.362   9.516   9.665
73884SOL     OW23484   5.217  11.395   5.782
73884SOL    HW123485   5.170  11.441   5.852
73884SOL    HW223486   5.151  11.380   5.714
73885SOL     OW23487  14.157   1.893   4.609
73885SOL    HW123488  14.129   1.928   4.694
73885SOL    HW223489  14.103   1.814   4.597
73886SOL     OW23490   5.541  10.297   3.148
73886SOL    HW123491   5.487  10.218   3.145
73886SOL    HW223492   5.492  10.362   3.097
73887SOL     OW23493   1.742   3.919   4.381
73887SOL    HW123494   1.716   4.000   4.337
73887SOL    HW223495   1.816   3.887   4.330
73888SOL     OW23496   9.515   6.431  14.284
73888SOL    HW123497   9.501   6.367  14.214
73888SOL    HW223498   9.472   6.511  14.252
73889SOL     OW23499   5.569  12.918   2.570
73889SOL    HW123500   5.565  12.826   2.596
73889SOL    HW223501   5.559  12.916   2.475
73890SOL     OW23502  13.267   6.960   3.867
73890SOL    HW123503  13.317   7.041   3.871
73890SOL    HW223504  13.196   6.973   3.929
73891SOL     OW23505   5.253  11.915   9.608
73891SOL    HW123506   5.170  11.871   9.624
73891SOL    HW223507   5.289  11.931   9.695
73892SOL     OW23508   0.693   0.637   0.417
73892SOL    HW123509   0.765   0.671   0.364
73892SOL    HW223510   0.702   0.542   0.412
73893SOL     OW23511   3.869   1.423   3.045
73893SOL    HW123512   3.824   1.499   3.008
73893SOL    HW223513   3.828   1.411   3.131
73894SOL     OW23514  11.352   1.504  14.238
73894SOL    HW123515  11.344   1.598  14.254
73894SOL    HW223516  11.303   1.462  14.308
73895SOL     OW23517  12.672   0.149   2.113
73895SOL    HW123518  12.676   0.230   2.163
73895SOL    HW223519  12.697   0.174   2.024
73896SOL     OW23520   3.248   0.105  12.943
73896SOL    HW123521   3.330   0.118  12.897
73896SOL    HW223522   3.267   0.037  13.007
73897SOL     OW23523   0.945   1.890   8.168
73897SOL    HW123524   1.007   1.889   8.241
73897SOL    HW223525   0.888   1.815   8.184
73898SOL     OW23526   6.608   4.693   0.404
73898SOL    HW123527   6.583   4.697   0.311
73898SOL    HW223528   6.623   4.784   0.429
73899SOL     OW23529   9.470   2.839   1.159
73899SOL    HW123530   9.543   2.777   1.160
73899SOL    HW223531   9.397   2.790   1.123
73900SOL     OW23532   4.687   4.656  13.679
73900SOL    HW123533   4.610   4.599  13.685
73900SOL    HW223534   4.715   4.648  13.588
73901SOL     OW23535  10.013   3.793   8.276
73901SOL    HW123536  10.026   3.734   8.350
73901SOL    HW223537  10.101   3.826   8.256
73902SOL     OW23538   3.862   7.373   2.815
73902SOL    HW123539   3.875   7.281   2.835
73902SOL    HW223540   3.767   7.383   2.808
73903SOL     OW23541  11.752  12.808  12.405
73903SOL    HW123542  11.741  12.848  12.491
73903SOL    HW223543  11.693  12.733  12.406
73904SOL     OW23544   5.618  10.876   4.197
73904SOL    HW123545   5.660  10.911   4.275
73904SOL    HW223546   5.689  10.834   4.147
73905SOL     OW23547   6.724  14.200   7.030
73905SOL    HW123548   6.656  14.179   7.094
73905SOL    HW223549   6.682  14.184   6.945
73906SOL     OW23550   3.255   6.521  11.779
73906SOL    HW123551   3.179   6.567  11.816
73906SOL    HW223552   3.226   6.431  11.769
73907SOL     OW23553   9.256   0.072   7.931
73907SOL    HW123554   9.320   0.113   7.989
73907SOL    HW223555   9.198   0.144   7.905
73908SOL     OW23556  13.461   1.089   2.933
73908SOL    HW123557  13.519   1.155   2.896
73908SOL    HW223558  13.375   1.131   2.936
73909SOL     OW23559   1.778  14.402   6.962
73909SOL    HW123560   1.683  14.411   6.971
73909SOL    HW223561   1.806  14.362   7.044
73910SOL     OW23562   1.957   0.939   2.911
73910SOL    HW123563   1.975   0.995   2.835
73910SOL    HW223564   2.016   0.972   2.978
73911SOL     OW23565  10.761   9.980  13.886
73911SOL    HW123566  10.703  10.056  13.886
73911SOL    HW223567  10.702   9.905  13.889
73912SOL     OW23568   7.815  10.188  12.053
73912SOL    HW123569   7.900  10.166  12.091
73912SOL    HW223570   7.834  10.211  11.962
73913SOL     OW23571  12.360  14.578  12.587
73913SOL    HW123572  12.405  14.651  12.628
73913SOL    HW223573  12.429  14.514  12.568
73914SOL     OW23574   7.897   4.845  13.471
73914SOL    HW123575   7.872   4.861  13.380
73914SOL    HW223576   7.903   4.931  13.511
73915SOL     OW23577   8.272  10.075   7.519
73915SOL    HW123578   8.322  10.151   7.487
73915SOL    HW223579   8.336  10.004   7.521
73916SOL     OW23580   4.899   2.718   8.619
73916SOL    HW123581   4.952   2.785   8.662
73916SOL    HW223582   4.847   2.766   8.555
73917SOL     OW23583  13.356   3.060   5.602
73917SOL    HW123584  13.343   3.016   5.518
73917SOL    HW223585  13.380   3.150   5.578
73918SOL     OW23586  10.871   1.665   3.935
73918SOL    HW123587  10.792   1.675   3.988
73918SOL    HW223588  10.874   1.571   3.914
73919SOL     OW23589   2.593   4.941   6.386
73919SOL    HW123590   2.592   5.018   6.443
73919SOL    HW223591   2.667   4.956   6.328
73920SOL     OW23592  10.924   2.277   4.703
73920SOL    HW123593  10.893   2.310   4.787
73920SOL    HW223594  10.844   2.257   4.654
73921SOL     OW23595  10.902   4.903   9.859
73921SOL    HW123596  10.902   4.814   9.893
73921SOL    HW223597  10.829   4.906   9.798
73922SOL     OW23598   9.092   2.541  11.307
73922SOL    HW123599   9.067   2.575  11.221
73922SOL    HW223600   9.029   2.582  11.367
73923SOL     OW23601  12.655  12.198   3.820
73923SOL    HW123602  12.704  12.145   3.883
73923SOL    HW223603  12.604  12.134   3.770
73924SOL     OW23604   0.369   6.037   3.753
73924SOL    HW123605   0.451   6.015   3.709
73924SOL    HW223606   0.320   6.089   3.690
73925SOL     OW23607  14.762  14.509   3.401
73925SOL    HW123608  14.820  14.480   3.471
73925SOL    HW223609  14.761  14.605   3.408
73926SOL     OW23610   8.439   4.739  14.811
73926SOL    HW123611   8.346   4.751  14.831
73926SOL    HW223612   8.443   4.657  14.761
73927SOL     OW23613  10.554  13.364   2.183
73927SOL    HW123614  10.501  13.433   2.223
73927SOL    HW223615  10.638  13.368   2.230
73928SOL     OW23616   3.406   5.603   7.338
73928SOL    HW123617   3.471   5.652   7.388
73928SOL    HW223618   3.332   5.663   7.330
73929SOL     OW23619   3.626   1.051   9.622
73929SOL    HW123620   3.712   1.071   9.660
73929SOL    HW223621   3.628   1.094   9.536
73930SOL     OW23622   4.420  11.596   4.438
73930SOL    HW123623   4.327  11.607   4.461
73930SOL    HW223624   4.430  11.646   4.357
73931SOL     OW23625   2.329   0.035   8.009
73931SOL    HW123626   2.292   0.124   8.014
73931SOL    HW223627   2.404   0.037   8.068
73932SOL     OW23628   3.161   6.960  14.473
73932SOL    HW123629   3.210   6.923  14.399
73932SOL    HW223630   3.216   7.032  14.505
73933SOL     OW23631   4.261   1.426  10.045
73933SOL    HW123632   4.330   1.360  10.052
73933SOL    HW223633   4.289   1.497  10.103
73934SOL     OW23634   3.912  12.306  13.616
73934SOL    HW123635   4.007  12.304  13.607
73934SOL    HW223636   3.897  12.310  13.710
73935SOL     OW23637   0.104  11.465  10.878
73935SOL    HW123638   0.035  11.399  10.871
73935SOL    HW223639   0.121  11.472  10.972
73936SOL     OW23640  13.847   9.335   5.581
73936SOL    HW123641  13.915   9.373   5.637
73936SOL    HW223642  13.892   9.266   5.532
73937SOL     OW23643   1.978   9.061   2.814
73937SOL    HW123644   1.891   9.082   2.778
73937SOL    HW223645   1.993   9.129   2.880
73938SOL     OW23646   8.758   8.236   8.865
73938SOL    HW123647   8.831   8.268   8.917
73938SOL    HW223648   8.682   8.246   8.922
73939SOL     OW23649   0.599   9.057   4.292
73939SOL    HW123650   0.601   9.147   4.261
73939SOL    HW223651   0.617   9.063   4.386
73940SOL     OW23652  13.394  13.756   7.345
73940SOL    HW123653  13.377  13.849   7.358
73940SOL    HW223654  13.481  13.752   7.306
73941SOL     OW23655  10.275  10.796   2.666
73941SOL    HW123656  10.337  10.792   2.739
73941SOL    HW223657  10.330  10.793   2.588
73942SOL     OW23658   6.339   7.151   7.037
73942SOL    HW123659   6.370   7.241   7.033
73942SOL    HW223660   6.416   7.098   7.018
73943SOL     OW23661   6.126  14.432   6.410
73943SOL    HW123662   6.060  14.501   6.406
73943SOL    HW223663   6.176  14.442   6.329
73944SOL     OW23664   8.898   2.900   0.474
73944SOL    HW123665   8.916   2.806   0.475
73944SOL    HW223666   8.976   2.939   0.515
73945SOL     OW23667   0.199   9.902  10.041
73945SOL    HW123668   0.187   9.936  10.129
73945SOL    HW223669   0.119   9.852  10.023
73946SOL     OW23670   0.304   6.963   3.647
73946SOL    HW123671   0.274   6.883   3.603
73946SOL    HW223672   0.315   7.026   3.576
73947SOL     OW23673   2.204   5.735  14.354
73947SOL    HW123674   2.251   5.798  14.408
73947SOL    HW223675   2.272   5.676  14.320
73948SOL     OW23676   2.378   2.914  10.942
73948SOL    HW123677   2.441   2.869  10.885
73948SOL    HW223678   2.324   2.844  10.978
73949SOL     OW23679   4.583   6.886   0.026
73949SOL    HW123680   4.603   6.792   0.032
73949SOL    HW223681   4.564   6.912   0.116
73950SOL     OW23682   5.017   9.334  14.827
73950SOL    HW123683   4.953   9.388  14.780
73950SOL    HW223684   4.999   9.352   0.040
73951SOL     OW23685   9.797   7.096  14.114
73951SOL    HW123686   9.814   7.190  14.117
73951SOL    HW223687   9.884   7.056  14.114
73952SOL     OW23688  13.334   0.869  14.368
73952SOL    HW123689  13.423   0.860  14.334
73952SOL    HW223690  13.299   0.947  14.324
73953SOL     OW23691   3.748   7.265   2.204
73953SOL    HW123692   3.803   7.220   2.140
73953SOL    HW223693   3.806   7.327   2.247
73954SOL     OW23694   4.006  13.828  10.659
73954SOL    HW123695   3.935  13.768  10.636
73954SOL    HW223696   4.055  13.840  10.578
73955SOL     OW23697   3.983   6.237  14.518
73955SOL    HW123698   4.038   6.314  14.503
73955SOL    HW223699   3.980   6.227  14.613
73956SOL     OW23700   7.102   7.446  10.097
73956SOL    HW123701   7.103   7.357  10.130
73956SOL    HW223702   7.108   7.437  10.002
73957SOL     OW23703  14.116   9.040   4.688
73957SOL    HW123704  14.053   9.003   4.627
73957SOL    HW223705  14.098   8.997   4.771
73958SOL     OW23706   4.422   4.260   6.068
73958SOL    HW123707   4.428   4.354   6.084
73958SOL    HW223708   4.492   4.242   6.006
73959SOL     OW23709   8.450  13.956   9.516
73959SOL    HW123710   8.371  13.950   9.461
73959SOL    HW223711   8.522  13.942   9.454
73960SOL     OW23712   5.531   9.868   5.877
73960SOL    HW123713   5.481   9.925   5.818
73960SOL    HW223714   5.519   9.780   5.841
73961SOL     OW23715  13.926   8.069   8.277
73961SOL    HW123716  13.993   8.137   8.286
73961SOL    HW223717  13.953   8.019   8.200
73962SOL     OW23718   6.267   3.286   7.664
73962SOL    HW123719   6.192   3.267   7.608
73962SOL    HW223720   6.287   3.203   7.708
73963SOL     OW23721   1.935  10.758  10.553
73963SOL    HW123722   1.879  10.822  10.509
73963SOL    HW223723   1.945  10.687  10.490
73964SOL     OW23724   4.373  14.659  13.697
73964SOL    HW123725   4.391  14.639  13.605
73964SOL    HW223726   4.410  14.585  13.745
73965SOL     OW23727   8.840   2.959  12.898
73965SOL    HW123728   8.933   2.974  12.918
73965SOL    HW223729   8.797   3.042  12.921
73966SOL     OW23730  14.314   5.275   0.338
73966SOL    HW123731  14.352   5.331   0.406
73966SOL    HW223732  14.362   5.193   0.346
73967SOL     OW23733  12.652   4.647  11.733
73967SOL    HW123734  12.631   4.574  11.675
73967SOL    HW223735  12.737   4.678  11.702
73968SOL     OW23736   8.616  14.107   7.109
73968SOL    HW123737   8.624  14.148   7.196
73968SOL    HW223738   8.542  14.153   7.068
73969SOL     OW23739   4.406   1.555   0.939
73969SOL    HW123740   4.315   1.561   0.968
73969SOL    HW223741   4.402   1.504   0.858
73970SOL     OW23742   9.012  13.631   5.516
73970SOL    HW123743   8.959  13.704   5.548
73970SOL    HW223744   8.950  13.560   5.502
73971SOL     OW23745   6.682   3.552  11.943
73971SOL    HW123746   6.620   3.488  11.907
73971SOL    HW223747   6.689   3.529  12.036
73972SOL     OW23748  12.189   0.359   4.772
73972SOL    HW123749  12.278   0.331   4.796
73972SOL    HW223750  12.200   0.447   4.737
73973SOL     OW23751   9.707   6.408   0.399
73973SOL    HW123752   9.628   6.366   0.364
73973SOL    HW223753   9.769   6.405   0.326
73974SOL     OW23754   8.910  11.169   4.216
73974SOL    HW123755   8.881  11.112   4.145
73974SOL    HW223756   8.947  11.245   4.172
73975SOL     OW23757   2.937   3.615  10.023
73975SOL    HW123758   2.988   3.666   9.960
73975SOL    HW223759   3.002   3.571  10.077
73976SOL     OW23760   7.200  14.715   4.069
73976SOL    HW123761   7.111  14.747   4.057
73976SOL    HW223762   7.207  14.694   4.162
73977SOL     OW23763  14.716   4.475  14.283
73977SOL    HW123764  14.741   4.534  14.354
73977SOL    HW223765  14.624   4.455  14.301
73978SOL     OW23766   4.428   0.737   6.055
73978SOL    HW123767   4.363   0.689   6.005
73978SOL    HW223768   4.500   0.676   6.068
73979SOL     OW23769  11.948   7.475  12.013
73979SOL    HW123770  11.938   7.394  11.963
73979SOL    HW223771  11.860   7.495  12.045
73980SOL     OW23772   1.509  14.559   8.296
73980SOL    HW123773   1.415  14.537   8.299
73980SOL    HW223774   1.550  14.482   8.258
73981SOL     OW23775   5.172  10.465   6.951
73981SOL    HW123776   5.168  10.529   6.880
73981SOL    HW223777   5.242  10.497   7.009
73982SOL     OW23778   8.309   1.189   0.078
73982SOL    HW123779   8.248   1.118   0.099
73982SOL    HW223780   8.379   1.181   0.143
73983SOL     OW23781   4.777  12.958   3.103
73983SOL    HW123782   4.751  13.041   3.141
73983SOL    HW223783   4.705  12.936   3.043
73984SOL     OW23784   9.025   7.961   8.838
73984SOL    HW123785   9.041   7.893   8.903
73984SOL    HW223786   9.093   8.027   8.854
73985SOL     OW23787  12.811  13.816   5.647
73985SOL    HW123788  12.807  13.791   5.555
73985SOL    HW223789  12.885  13.766   5.683
73986SOL     OW23790  10.232   4.682   6.695
73986SOL    HW123791  10.166   4.700   6.761
73986SOL    HW223792  10.246   4.588   6.700
73987SOL     OW23793   5.770   6.351  10.432
73987SOL    HW123794   5.801   6.303  10.355
73987SOL    HW223795   5.692   6.304  10.460
73988SOL     OW23796   6.074   8.735   0.247
73988SOL    HW123797   6.149   8.675   0.252
73988SOL    HW223798   6.112   8.822   0.257
73989SOL     OW23799  12.701   5.432   6.647
73989SOL    HW123800  12.703   5.527   6.653
73989SOL    HW223801  12.690   5.414   6.554
73990SOL     OW23802  12.032  10.256  13.663
73990SOL    HW123803  11.938  10.265  13.672
73990SOL    HW223804  12.068  10.286  13.747
73991SOL     OW23805  12.877   9.378   6.690
73991SOL    HW123806  12.888   9.458   6.639
73991SOL    HW223807  12.786   9.354   6.678
73992SOL     OW23808   7.551   1.947   1.352
73992SOL    HW123809   7.512   1.884   1.293
73992SOL    HW223810   7.506   2.030   1.332
73993SOL     OW23811   7.484   4.099   6.605
73993SOL    HW123812   7.571   4.090   6.567
73993SOL    HW223813   7.453   4.009   6.616
73994SOL     OW23814   4.326  12.415   2.517
73994SOL    HW123815   4.327  12.342   2.455
73994SOL    HW223816   4.248  12.399   2.570
73995SOL     OW23817   2.415   4.377   6.315
73995SOL    HW123818   2.377   4.293   6.287
73995SOL    HW223819   2.374   4.441   6.257
73996SOL     OW23820  10.032  10.768   1.253
73996SOL    HW123821   9.972  10.757   1.179
73996SOL    HW223822   9.998  10.844   1.301
73997SOL     OW23823  11.357   0.565   2.308
73997SOL    HW123824  11.318   0.628   2.248
73997SOL    HW223825  11.423   0.615   2.356
73998SOL     OW23826   7.921   9.343   2.465
73998SOL    HW123827   7.888   9.433   2.473
73998SOL    HW223828   7.966   9.341   2.381
73999SOL     OW23829  13.418   4.649   7.683
73999SOL    HW123830  13.439   4.622   7.593
73999SOL    HW223831  13.421   4.568   7.734
74000SOL     OW23832   8.370   1.269   8.815
74000SOL    HW123833   8.383   1.209   8.742
74000SOL    HW223834   8.276   1.265   8.833
74001SOL     OW23835  14.733  13.138   2.571
74001SOL    HW123836  14.821  13.110   2.545
74001SOL    HW223837  14.724  13.108   2.662
74002SOL     OW23838  11.585  12.194   8.088
74002SOL    HW123839  11.641  12.118   8.108
74002SOL    HW223840  11.496  12.158   8.088
74003SOL     OW23841   0.092  13.147   5.266
74003SOL    HW123842   0.088  13.176   5.175
74003SOL    HW223843   0.004  13.165   5.300
74004SOL     OW23844   2.589   7.285   1.561
74004SOL    HW123845   2.619   7.194   1.555
74004SOL    HW223846   2.645   7.333   1.499
74005SOL     OW23847   5.855  12.000   3.063
74005SOL    HW123848   5.928  11.940   3.047
74005SOL    HW223849   5.814  11.967   3.143
74006SOL     OW23850   4.987   6.845  13.920
74006SOL    HW123851   4.914   6.794  13.953
74006SOL    HW223852   5.056   6.834  13.985
74007SOL     OW23853   2.862   5.605  11.983
74007SOL    HW123854   2.810   5.558  12.047
74007SOL    HW223855   2.900   5.536  11.928
74008SOL     OW23856   2.528  12.879   0.050
74008SOL    HW123857   2.522  12.787   0.076
74008SOL    HW223858   2.454  12.893  14.871
74009SOL     OW23859   4.099  11.316   4.504
74009SOL    HW123860   4.137  11.303   4.591
74009SOL    HW223861   4.071  11.408   4.504
74010SOL     OW23862   6.412  10.289   2.784
74010SOL    HW123863   6.438  10.326   2.700
74010SOL    HW223864   6.398  10.365   2.840
74011SOL     OW23865   7.473   7.407  13.717
74011SOL    HW123866   7.526   7.483  13.741
74011SOL    HW223867   7.483   7.346  13.790
74012SOL     OW23868   3.054  11.372   4.427
74012SOL    HW123869   3.070  11.428   4.503
74012SOL    HW223870   2.960  11.382   4.409
74013SOL     OW23871   1.076   2.951   9.292
74013SOL    HW123872   1.137   2.985   9.357
74013SOL    HW223873   1.089   2.857   9.292
74014SOL     OW23874   5.363   3.004  11.865
74014SOL    HW123875   5.370   3.017  11.770
74014SOL    HW223876   5.376   2.910  11.877
74015SOL     OW23877   7.119   1.269  10.069
74015SOL    HW123878   7.046   1.316  10.109
74015SOL    HW223879   7.080   1.219   9.998
74016SOL     OW23880   6.434  10.302   7.802
74016SOL    HW123881   6.442  10.266   7.891
74016SOL    HW223882   6.514  10.352   7.789
74017SOL     OW23883   7.183   9.373  11.204
74017SOL    HW123884   7.111   9.333  11.155
74017SOL    HW223885   7.154   9.462  11.221
74018SOL     OW23886   3.078  13.471  11.851
74018SOL    HW123887   3.021  13.482  11.775
74018SOL    HW223888   3.160  13.439  11.816
74019SOL     OW23889   6.041   5.843   2.400
74019SOL    HW123890   6.119   5.860   2.347
74019SOL    HW223891   6.037   5.747   2.407
74020SOL     OW23892   1.134   8.337   4.325
74020SOL    HW123893   1.067   8.273   4.348
74020SOL    HW223894   1.102   8.379   4.246
74021SOL     OW23895   1.677   0.191   3.814
74021SOL    HW123896   1.636   0.181   3.900
74021SOL    HW223897   1.744   0.122   3.812
74022SOL     OW23898   6.937  10.086   5.340
74022SOL    HW123899   7.028  10.090   5.367
74022SOL    HW223900   6.940  10.076   5.245
74023SOL     OW23901  13.708   9.371   3.315
74023SOL    HW123902  13.716   9.284   3.276
74023SOL    HW223903  13.787   9.382   3.367
74024SOL     OW23904   5.393   8.903  12.574
74024SOL    HW123905   5.341   8.837  12.528
74024SOL    HW223906   5.484   8.875  12.558
74025SOL     OW23907   5.184  14.201   9.463
74025SOL    HW123908   5.101  14.170   9.500
74025SOL    HW223909   5.249  14.183   9.530
74026SOL     OW23910   0.275   0.516   5.941
74026SOL    HW123911   0.309   0.429   5.963
74026SOL    HW223912   0.354   0.568   5.925
74027SOL     OW23913   2.127   1.893  12.797
74027SOL    HW123914   2.147   1.922  12.708
74027SOL    HW223915   2.052   1.947  12.824
74028SOL     OW23916   2.855   5.130   1.730
74028SOL    HW123917   2.826   5.210   1.685
74028SOL    HW223918   2.937   5.154   1.773
74029SOL     OW23919   3.559   7.666   4.989
74029SOL    HW123920   3.571   7.690   5.082
74029SOL    HW223921   3.559   7.571   4.988
74030SOL     OW23922   0.757   1.539   0.073
74030SOL    HW123923   0.762   1.510   0.164
74030SOL    HW223924   0.667   1.570   0.063
74031SOL     OW23925   9.206   2.692  12.638
74031SOL    HW123926   9.126   2.713  12.591
74031SOL    HW223927   9.262   2.769  12.627
74032SOL     OW23928   0.920   6.422   5.275
74032SOL    HW123929   0.928   6.349   5.213
74032SOL    HW223930   0.831   6.456   5.260
74033SOL     OW23931   4.620  10.274   5.036
74033SOL    HW123932   4.610  10.336   4.963
74033SOL    HW223933   4.652  10.194   4.996
74034SOL     OW23934   3.806   1.435  11.644
74034SOL    HW123935   3.843   1.450  11.731
74034SOL    HW223936   3.749   1.359  11.654
74035SOL     OW23937   6.070   6.905   4.215
74035SOL    HW123938   6.078   6.973   4.283
74035SOL    HW223939   6.036   6.952   4.139
74036SOL     OW23940  14.719  12.596   0.060
74036SOL    HW123941  14.646  12.582   0.001
74036SOL    HW223942  14.720  12.691   0.075
74037SOL     OW23943   2.105   2.365   1.844
74037SOL    HW123944   2.184   2.410   1.873
74037SOL    HW223945   2.136   2.290   1.794
74038SOL     OW23946   5.711   8.175   2.945
74038SOL    HW123947   5.793   8.221   2.929
74038SOL    HW223948   5.699   8.180   3.040
74039SOL     OW23949   9.504   3.187  10.414
74039SOL    HW123950   9.447   3.118  10.380
74039SOL    HW223951   9.520   3.163  10.505
74040SOL     OW23952  13.707  11.171   4.360
74040SOL    HW123953  13.765  11.247   4.357
74040SOL    HW223954  13.765  11.097   4.379
74041SOL     OW23955   7.404  14.135   3.387
74041SOL    HW123956   7.324  14.181   3.362
74041SOL    HW223957   7.439  14.185   3.461
74042SOL     OW23958   2.082   3.781   6.016
74042SOL    HW123959   2.076   3.782   6.111
74042SOL    HW223960   2.118   3.866   5.993
74043SOL     OW23961   8.264   0.582  14.587
74043SOL    HW123962   8.279   0.516  14.519
74043SOL    HW223963   8.172   0.609  14.575
74044SOL     OW23964  11.008   1.558   9.722
74044SOL    HW123965  10.985   1.546   9.814
74044SOL    HW223966  11.104   1.561   9.722
74045SOL     OW23967   8.467   9.765  14.792
74045SOL    HW123968   8.517   9.780  14.872
74045SOL    HW223969   8.418   9.846  14.780
74046SOL     OW23970  10.371  10.189   3.414
74046SOL    HW123971  10.375  10.285   3.411
74046SOL    HW223972  10.279  10.169   3.399
74047SOL     OW23973   1.781   9.141  13.827
74047SOL    HW123974   1.845   9.079  13.863
74047SOL    HW223975   1.696   9.104  13.849
74048SOL     OW23976   0.813   1.414   8.282
74048SOL    HW123977   0.838   1.335   8.234
74048SOL    HW223978   0.834   1.394   8.373
74049SOL     OW23979   0.585   2.099   9.150
74049SOL    HW123980   0.534   2.180   9.149
74049SOL    HW223981   0.549   2.049   9.223
74050SOL     OW23982  13.746   0.184   2.234
74050SOL    HW123983  13.784   0.161   2.150
74050SOL    HW223984  13.747   0.103   2.284
74051SOL     OW23985   6.930   0.669   2.435
74051SOL    HW123986   6.973   0.586   2.413
74051SOL    HW223987   6.838   0.654   2.415
74052SOL     OW23988   4.920  14.808   1.023
74052SOL    HW123989   4.924  14.803   1.119
74052SOL    HW223990   5.000  14.855   0.998
74053SOL     OW23991   8.715   7.852   2.522
74053SOL    HW123992   8.674   7.932   2.491
74053SOL    HW223993   8.650   7.813   2.581
74054SOL     OW23994   4.676   3.232  11.771
74054SOL    HW123995   4.744   3.250  11.706
74054SOL    HW223996   4.653   3.317  11.807
74055SOL     OW23997   7.458   5.255  10.432
74055SOL    HW123998   7.515   5.236  10.357
74055SOL    HW223999   7.518   5.272  10.504
74056SOL     OW24000  11.964   2.043   8.495
74056SOL    HW124001  11.937   1.976   8.432
74056SOL    HW224002  12.038   2.087   8.453
74057SOL     OW24003  14.815   5.478  14.516
74057SOL    HW124004  14.835   5.432  14.435
74057SOL    HW224005  14.806   5.570  14.490
74058SOL     OW24006   7.332  10.031   9.726
74058SOL    HW124007   7.279   9.983   9.663
74058SOL    HW224008   7.330   9.978   9.806
74059SOL     OW24009  12.070  10.856  11.958
74059SOL    HW124010  12.011  10.785  11.933
74059SOL    HW224011  12.013  10.933  11.965
74060SOL     OW24012   1.113   4.214   4.172
74060SOL    HW124013   1.021   4.193   4.187
74060SOL    HW224014   1.141   4.151   4.106
74061SOL     OW24015   5.841  14.644   4.787
74061SOL    HW124016   5.848  14.622   4.880
74061SOL    HW224017   5.760  14.602   4.758
74062SOL     OW24018  10.907   9.261   1.811
74062SOL    HW124019  10.953   9.208   1.876
74062SOL    HW224020  10.974   9.286   1.748
74063SOL     OW24021  11.055  10.226  11.487
74063SOL    HW124022  11.119  10.167  11.527
74063SOL    HW224023  11.031  10.184  11.405
74064SOL     OW24024  11.052  13.575   1.738
74064SOL    HW124025  11.101  13.552   1.659
74064SOL    HW224026  11.076  13.666   1.756
74065SOL     OW24027   2.109   1.933   3.332
74065SOL    HW124028   2.058   2.008   3.360
74065SOL    HW224029   2.122   1.881   3.411
74066SOL     OW24030   5.226   8.449   3.262
74066SOL    HW124031   5.206   8.526   3.315
74066SOL    HW224032   5.316   8.426   3.285
74067SOL     OW24033   1.114   4.738   1.901
74067SOL    HW124034   1.136   4.796   1.974
74067SOL    HW224035   1.070   4.663   1.941
74068SOL     OW24036   6.654   9.398  14.645
74068SOL    HW124037   6.615   9.484  14.664
74068SOL    HW224038   6.675   9.402  14.552
74069SOL     OW24039   8.406  13.307   8.576
74069SOL    HW124040   8.350  13.295   8.652
74069SOL    HW224041   8.427  13.400   8.576
74070SOL     OW24042   6.140   9.872   4.364
74070SOL    HW124043   6.207   9.810   4.336
74070SOL    HW224044   6.060   9.820   4.368
74071SOL     OW24045   9.301  12.691  14.569
74071SOL    HW124046   9.364  12.761  14.579
74071SOL    HW224047   9.319  12.632  14.642
74072SOL     OW24048   0.919   5.702   3.283
74072SOL    HW124049   0.960   5.789   3.283
74072SOL    HW224050   0.983   5.646   3.240
74073SOL     OW24051  13.184   2.067   2.072
74073SOL    HW124052  13.248   2.127   2.034
74073SOL    HW224053  13.232   2.023   2.143
74074SOL     OW24054  11.455  12.128   9.021
74074SOL    HW124055  11.537  12.081   9.032
74074SOL    HW224056  11.397  12.066   8.976
74075SOL     OW24057  10.478  14.249  10.541
74075SOL    HW124058  10.537  14.297  10.483
74075SOL    HW224059  10.455  14.313  10.609
74076SOL     OW24060   6.449   6.344   2.226
74076SOL    HW124061   6.467   6.385   2.310
74076SOL    HW224062   6.506   6.268   2.223
74077SOL     OW24063  11.516   2.710  11.054
74077SOL    HW124064  11.568   2.637  11.086
74077SOL    HW224065  11.463   2.673  10.983
74078SOL     OW24066   8.590   6.457   3.308
74078SOL    HW124067   8.581   6.548   3.277
74078SOL    HW224068   8.624   6.465   3.397
74079SOL     OW24069  12.173   6.104   4.193
74079SOL    HW124070  12.139   6.134   4.109
74079SOL    HW224071  12.113   6.034   4.219
74080SOL     OW24072   6.468   6.746   7.938
74080SOL    HW124073   6.538   6.747   8.004
74080SOL    HW224074   6.406   6.680   7.970
74081SOL     OW24075   8.968  14.581  13.113
74081SOL    HW124076   8.966  14.542  13.025
74081SOL    HW224077   8.974  14.675  13.097
74082SOL     OW24078  13.361  12.317  13.900
74082SOL    HW124079  13.389  12.317  13.809
74082SOL    HW224080  13.273  12.281  13.899
74083SOL     OW24081   1.150   6.603   8.135
74083SOL    HW124082   1.205   6.587   8.212
74083SOL    HW224083   1.206   6.584   8.060
74084SOL     OW24084   2.840   0.441   9.539
74084SOL    HW124085   2.922   0.394   9.555
74084SOL    HW224086   2.796   0.442   9.624
74085SOL     OW24087  14.617  11.906  10.951
74085SOL    HW124088  14.615  11.814  10.927
74085SOL    HW224089  14.680  11.912  11.023
74086SOL     OW24090   2.575   2.616   4.742
74086SOL    HW124091   2.654   2.573   4.774
74086SOL    HW224092   2.569   2.589   4.650
74087SOL     OW24093   4.698   1.223  11.129
74087SOL    HW124094   4.612   1.251  11.097
74087SOL    HW224095   4.679   1.153  11.191
74088SOL     OW24096   7.788  12.428   6.345
74088SOL    HW124097   7.780  12.504   6.287
74088SOL    HW224098   7.709  12.377   6.327
74089SOL     OW24099   5.227  13.983   2.863
74089SOL    HW124100   5.318  13.970   2.891
74089SOL    HW224101   5.204  14.070   2.895
74090SOL     OW24102  11.114   3.827   8.206
74090SOL    HW124103  11.124   3.891   8.277
74090SOL    HW224104  11.130   3.742   8.247
74091SOL     OW24105   4.941   2.649  10.429
74091SOL    HW124106   5.000   2.725  10.423
74091SOL    HW224107   4.947   2.621  10.521
74092SOL     OW24108  12.687   7.591  13.184
74092SOL    HW124109  12.745   7.621  13.114
74092SOL    HW224110  12.599   7.612  13.153
74093SOL     OW24111   4.952  14.380  12.853
74093SOL    HW124112   4.862  14.361  12.827
74093SOL    HW224113   5.005  14.350  12.779
74094SOL     OW24114   6.756  11.017   7.043
74094SOL    HW124115   6.753  10.923   7.057
74094SOL    HW224116   6.841  11.044   7.078
74095SOL     OW24117   5.267   1.665   0.657
74095SOL    HW124118   5.305   1.705   0.736
74095SOL    HW224119   5.334   1.677   0.590
74096SOL     OW24120   3.133   4.073  11.248
74096SOL    HW124121   3.177   4.158  11.253
74096SOL    HW224122   3.198   4.010  11.279
74097SOL     OW24123   7.321  14.588  12.681
74097SOL    HW124124   7.317  14.494  12.665
74097SOL    HW224125   7.396  14.600  12.739
74098SOL     OW24126   6.190  10.222  12.798
74098SOL    HW124127   6.256  10.155  12.817
74098SOL    HW224128   6.211  10.295  12.857
74099SOL     OW24129   0.649  11.337   9.316
74099SOL    HW124130   0.732  11.383   9.330
74099SOL    HW224131   0.582  11.398   9.348
74100SOL     OW24132   3.930   1.125   9.999
74100SOL    HW124133   4.001   1.060   9.997
74100SOL    HW224134   3.973   1.207  10.023
74101SOL     OW24135   5.044   9.166   6.553
74101SOL    HW124136   5.117   9.105   6.567
74101SOL    HW224137   5.021   9.155   6.461
74102SOL     OW24138  10.904  13.802  11.875
74102SOL    HW124139  10.813  13.784  11.851
74102SOL    HW224140  10.913  13.766  11.963
74103SOL     OW24141   0.628   3.858   3.488
74103SOL    HW124142   0.625   3.853   3.584
74103SOL    HW224143   0.656   3.770   3.461
74104SOL     OW24144   5.167  10.596   1.691
74104SOL    HW124145   5.218  10.649   1.752
74104SOL    HW224146   5.096  10.560   1.744
74105SOL     OW24147   9.097   8.687   1.364
74105SOL    HW124148   9.090   8.648   1.451
74105SOL    HW224149   9.189   8.676   1.339
74106SOL     OW24150   7.147   8.617   5.053
74106SOL    HW124151   7.151   8.630   5.148
74106SOL    HW224152   7.122   8.702   5.018
74107SOL     OW24153   7.263   2.177   8.853
74107SOL    HW124154   7.185   2.226   8.882
74107SOL    HW224155   7.333   2.210   8.909
74108SOL     OW24156   3.566   2.823   7.942
74108SOL    HW124157   3.567   2.914   7.910
74108SOL    HW224158   3.475   2.796   7.936
74109SOL     OW24159   8.680   9.251  10.354
74109SOL    HW124160   8.638   9.183  10.302
74109SOL    HW224161   8.671   9.221  10.445
74110SOL     OW24162   9.812  10.544  12.822
74110SOL    HW124163   9.842  10.579  12.738
74110SOL    HW224164   9.891  10.512  12.865
74111SOL     OW24165  10.862  11.443   7.555
74111SOL    HW124166  10.806  11.447   7.477
74111SOL    HW224167  10.821  11.504   7.617
74112SOL     OW24168  13.618   0.921   0.659
74112SOL    HW124169  13.553   0.897   0.593
74112SOL    HW224170  13.699   0.879   0.630
74113SOL     OW24171   1.129   2.586   3.226
74113SOL    HW124172   1.143   2.512   3.285
74113SOL    HW224173   1.207   2.585   3.169
74114SOL     OW24174  11.667   6.703  13.486
74114SOL    HW124175  11.622   6.760  13.423
74114SOL    HW224176  11.750   6.748  13.502
74115SOL     OW24177   2.556  10.351   8.924
74115SOL    HW124178   2.632  10.337   8.868
74115SOL    HW224179   2.590  10.340   9.013
74116SOL     OW24180   3.702   6.569  10.816
74116SOL    HW124181   3.628   6.519  10.850
74116SOL    HW224182   3.743   6.607  10.894
74117SOL     OW24183   8.275   7.886   3.405
74117SOL    HW124184   8.202   7.948   3.399
74117SOL    HW224185   8.242   7.807   3.362
74118SOL     OW24186   5.386   9.153   1.826
74118SOL    HW124187   5.406   9.197   1.744
74118SOL    HW224188   5.312   9.202   1.862
74119SOL     OW24189   9.671   5.588  11.015
74119SOL    HW124190   9.621   5.626  11.087
74119SOL    HW224191   9.605   5.544  10.961
74120SOL     OW24192   9.426   3.827   9.307
74120SOL    HW124193   9.518   3.799   9.313
74120SOL    HW224194   9.420   3.901   9.367
74121SOL     OW24195   7.470   2.046   2.084
74121SOL    HW124196   7.497   2.110   2.150
74121SOL    HW224197   7.550   1.997   2.064
74122SOL     OW24198   6.735  12.531   8.778
74122SOL    HW124199   6.722  12.474   8.702
74122SOL    HW224200   6.721  12.474   8.853
74123SOL     OW24201  13.544   0.900  13.385
74123SOL    HW124202  13.519   0.813  13.415
74123SOL    HW224203  13.603   0.933  13.453
74124SOL     OW24204   1.603   3.298   7.236
74124SOL    HW124205   1.661   3.261   7.302
74124SOL    HW224206   1.534   3.341   7.286
74125SOL     OW24207  10.828   6.288   4.798
74125SOL    HW124208  10.831   6.192   4.795
74125SOL    HW224209  10.916   6.314   4.824
74126SOL     OW24210   3.195   0.787   5.340
74126SOL    HW124211   3.102   0.782   5.362
74126SOL    HW224212   3.230   0.701   5.362
74127SOL     OW24213  10.446   0.125   4.248
74127SOL    HW124214  10.506   0.075   4.193
74127SOL    HW224215  10.359   0.097   4.220
74128SOL     OW24216   3.078   8.060   9.152
74128SOL    HW124217   3.030   7.980   9.174
74128SOL    HW224218   3.140   8.031   9.084
74129SOL     OW24219  12.838  11.089   1.763
74129SOL    HW124220  12.767  11.146   1.733
74129SOL    HW224221  12.796  11.005   1.778
74130SOL     OW24222  13.310   9.122   7.593
74130SOL    HW124223  13.353   9.045   7.557
74130SOL    HW224224  13.251   9.152   7.523
74131SOL     OW24225   1.585   4.133  12.731
74131SOL    HW124226   1.659   4.111  12.788
74131SOL    HW224227   1.550   4.215  12.768
74132SOL     OW24228   2.259   3.121  12.638
74132SOL    HW124229   2.325   3.109  12.707
74132SOL    HW224230   2.296   3.076  12.562
74133SOL     OW24231   4.570  11.565   3.950
74133SOL    HW124232   4.607  11.606   4.027
74133SOL    HW224233   4.480  11.542   3.975
74134SOL     OW24234   6.731   3.885   0.288
74134SOL    HW124235   6.792   3.899   0.360
74134SOL    HW224236   6.645   3.906   0.325
74135SOL     OW24237   2.675   3.964   9.723
74135SOL    HW124238   2.690   3.988   9.815
74135SOL    HW224239   2.700   3.872   9.718
74136SOL     OW24240  11.956  10.627  12.820
74136SOL    HW124241  11.991  10.688  12.885
74136SOL    HW224242  11.863  10.618  12.842
74137SOL     OW24243  13.773  13.887  10.825
74137SOL    HW124244  13.678  13.872  10.833
74137SOL    HW224245  13.786  13.912  10.734
74138SOL     OW24246   8.671   3.273  13.239
74138SOL    HW124247   8.704   3.341  13.179
74138SOL    HW224248   8.631   3.208  13.181
74139SOL     OW24249   8.931   7.693   8.763
74139SOL    HW124250   8.974   7.777   8.748
74139SOL    HW224251   8.863   7.688   8.695
74140SOL     OW24252   0.002   7.097  11.737
74140SOL    HW124253  14.850   7.173  11.787
74140SOL    HW224254   0.019   7.030  11.802
74141SOL     OW24255   6.093  13.917  14.496
74141SOL    HW124256   6.117  13.928  14.405
74141SOL    HW224257   6.028  13.986  14.513
74142SOL     OW24258   1.923  14.147   7.705
74142SOL    HW124259   1.976  14.148   7.625
74142SOL    HW224260   1.926  14.236   7.738
74143SOL     OW24261  13.738   0.802  10.869
74143SOL    HW124262  13.754   0.860  10.795
74143SOL    HW224263  13.810   0.738  10.865
74144SOL     OW24264   6.715  14.347   4.434
74144SOL    HW124265   6.668  14.282   4.487
74144SOL    HW224266   6.682  14.334   4.346
74145SOL     OW24267  13.797   7.894   6.966
74145SOL    HW124268  13.769   7.956   7.033
74145SOL    HW224269  13.837   7.822   7.015
74146SOL     OW24270   8.841   4.445   8.720
74146SOL    HW124271   8.909   4.508   8.695
74146SOL    HW224272   8.813   4.407   8.637
74147SOL     OW24273  12.665   7.717  13.731
74147SOL    HW124274  12.597   7.659  13.696
74147SOL    HW224275  12.628   7.805  13.723
74148SOL     OW24276   1.904  13.385   9.361
74148SOL    HW124277   1.867  13.321   9.301
74148SOL    HW224278   1.997  13.362   9.366
74149SOL     OW24279  13.565   5.384   6.102
74149SOL    HW124280  13.575   5.311   6.040
74149SOL    HW224281  13.484   5.427   6.075
74150SOL     OW24282  11.140   5.418   2.877
74150SOL    HW124283  11.155   5.477   2.952
74150SOL    HW224284  11.228   5.400   2.844
74151SOL     OW24285   7.712  14.161   5.602
74151SOL    HW124286   7.688  14.243   5.645
74151SOL    HW224287   7.658  14.095   5.646
74152SOL     OW24288   7.085   6.695   4.469
74152SOL    HW124289   7.017   6.739   4.520
74152SOL    HW224290   7.163   6.699   4.524
74153SOL     OW24291   1.713  14.109   5.777
74153SOL    HW124292   1.718  14.014   5.773
74153SOL    HW224293   1.752  14.131   5.862
74154SOL     OW24294   3.991   4.716   9.231
74154SOL    HW124295   3.921   4.651   9.230
74154SOL    HW224296   4.058   4.678   9.288
74155SOL     OW24297   0.265   9.398   7.013
74155SOL    HW124298   0.293   9.345   6.939
74155SOL    HW224299   0.170   9.391   7.013
74156SOL     OW24300   1.921   1.841   0.404
74156SOL    HW124301   1.993   1.785   0.433
74156SOL    HW224302   1.927   1.918   0.462
74157SOL     OW24303  10.762   9.641   1.815
74157SOL    HW124304  10.854   9.623   1.794
74157SOL    HW224305  10.758   9.737   1.819
74158SOL     OW24306   3.245  10.735  12.135
74158SOL    HW124307   3.173  10.690  12.090
74158SOL    HW224308   3.202  10.797  12.193
74159SOL     OW24309   2.867  12.497   6.197
74159SOL    HW124310   2.959  12.468   6.198
74159SOL    HW224311   2.842  12.496   6.290
74160SOL     OW24312   2.622   1.519   6.716
74160SOL    HW124313   2.679   1.453   6.756
74160SOL    HW224314   2.564   1.469   6.659
74161SOL     OW24315   9.820   9.213   3.101
74161SOL    HW124316   9.770   9.269   3.161
74161SOL    HW224317   9.767   9.134   3.092
74162SOL     OW24318   6.710   5.155   3.568
74162SOL    HW124319   6.776   5.102   3.524
74162SOL    HW224320   6.756   5.235   3.593
74163SOL     OW24321  11.574   2.652   9.703
74163SOL    HW124322  11.648   2.590   9.711
74163SOL    HW224323  11.608   2.722   9.647
74164SOL     OW24324   3.350   5.641  11.697
74164SOL    HW124325   3.278   5.695  11.729
74164SOL    HW224326   3.308   5.576  11.640
74165SOL     OW24327   3.082   4.772  12.447
74165SOL    HW124328   3.019   4.787  12.517
74165SOL    HW224329   3.067   4.844  12.386
74166SOL     OW24330  13.814   6.561  13.168
74166SOL    HW124331  13.777   6.535  13.252
74166SOL    HW224332  13.796   6.655  13.161
74167SOL     OW24333  13.436  13.411  12.029
74167SOL    HW124334  13.496  13.412  11.955
74167SOL    HW224335  13.352  13.383  11.993
74168SOL     OW24336  13.573   0.151   6.027
74168SOL    HW124337  13.536   0.239   6.036
74168SOL    HW224338  13.560   0.129   5.935
74169SOL     OW24339   3.915   4.690  12.744
74169SOL    HW124340   4.005   4.710  12.718
74169SOL    HW224341   3.881   4.638  12.671
74170SOL     OW24342   1.011  11.431   7.745
74170SOL    HW124343   0.940  11.480   7.705
74170SOL    HW224344   0.972  11.390   7.822
74171SOL     OW24345  13.081   4.421  11.334
74171SOL    HW124346  13.171   4.437  11.363
74171SOL    HW224347  13.078   4.452  11.244
74172SOL     OW24348   8.525   1.071   3.390
74172SOL    HW124349   8.495   1.068   3.481
74172SOL    HW224350   8.558   0.982   3.373
74173SOL     OW24351  10.364   3.916   3.980
74173SOL    HW124352  10.408   3.876   4.055
74173SOL    HW224353  10.402   3.872   3.904
74174SOL     OW24354   4.556   2.669   1.009
74174SOL    HW124355   4.555   2.613   1.086
74174SOL    HW224356   4.612   2.623   0.947
74175SOL     OW24357   9.505   3.050   8.417
74175SOL    HW124358   9.422   3.007   8.401
74175SOL    HW224359   9.516   3.109   8.343
74176SOL     OW24360   9.052   2.791   0.089
74176SOL    HW124361   9.010   2.749   0.014
74176SOL    HW224362   9.125   2.733   0.111
74177SOL     OW24363   4.008   6.129  11.751
74177SOL    HW124364   3.943   6.067  11.716
74177SOL    HW224365   3.969   6.215  11.740
74178SOL     OW24366   5.348   0.841   4.716
74178SOL    HW124367   5.442   0.860   4.721
74178SOL    HW224368   5.322   0.866   4.627
74179SOL     OW24369   2.141  11.565   5.604
74179SOL    HW124370   2.203  11.608   5.663
74179SOL    HW224371   2.167  11.594   5.517
74180SOL     OW24372  10.169   1.525  13.556
74180SOL    HW124373  10.116   1.523  13.635
74180SOL    HW224374  10.107   1.510  13.485
74181SOL     OW24375   8.276   4.135   5.380
74181SOL    HW124376   8.269   4.046   5.348
74181SOL    HW224377   8.187   4.171   5.371
74182SOL     OW24378  12.091  12.309   9.746
74182SOL    HW124379  12.102  12.352   9.661
74182SOL    HW224380  12.093  12.216   9.725
74183SOL     OW24381   0.726   0.441  10.707
74183SOL    HW124382   0.776   0.499  10.764
74183SOL    HW224383   0.688   0.498  10.641
74184SOL     OW24384   0.488  12.608   5.336
74184SOL    HW124385   0.465  12.634   5.425
74184SOL    HW224386   0.435  12.530   5.319
74185SOL     OW24387   7.687   5.337  14.235
74185SOL    HW124388   7.759   5.274  14.237
74185SOL    HW224389   7.631   5.309  14.163
74186SOL     OW24390   8.839  11.891   4.702
74186SOL    HW124391   8.754  11.923   4.734
74186SOL    HW224392   8.817  11.833   4.629
74187SOL     OW24393   9.914   4.529   0.483
74187SOL    HW124394   9.876   4.445   0.458
74187SOL    HW224395   9.917   4.579   0.401
74188SOL     OW24396  13.092   1.556  10.004
74188SOL    HW124397  13.177   1.589   9.975
74188SOL    HW224398  13.112   1.472  10.046
74189SOL     OW24399  10.443  10.130   4.235
74189SOL    HW124400  10.358  10.088   4.248
74189SOL    HW224401  10.492  10.109   4.315
74190SOL     OW24402  10.316   7.207   9.310
74190SOL    HW124403  10.287   7.295   9.285
74190SOL    HW224404  10.388   7.223   9.372
74191SOL     OW24405   1.841   9.351  11.014
74191SOL    HW124406   1.935   9.340  10.999
74191SOL    HW224407   1.828   9.321  11.104
74192SOL     OW24408   6.093   9.473  12.206
74192SOL    HW124409   6.028   9.447  12.271
74192SOL    HW224410   6.174   9.482  12.256
74193SOL     OW24411   6.630  10.317   4.125
74193SOL    HW124412   6.679  10.393   4.092
74193SOL    HW224413   6.695  10.247   4.130
74194SOL     OW24414   0.587   3.263   6.625
74194SOL    HW124415   0.618   3.286   6.537
74194SOL    HW224416   0.594   3.168   6.628
74195SOL     OW24417   4.023  14.717   6.819
74195SOL    HW124418   3.991  14.798   6.778
74195SOL    HW224419   3.947  14.660   6.823
74196SOL     OW24420  10.542   4.125  11.946
74196SOL    HW124421  10.552   4.049  11.888
74196SOL    HW224422  10.620   4.179  11.928
74197SOL     OW24423  13.862   0.939   1.957
74197SOL    HW124424  13.840   1.003   1.890
74197SOL    HW224425  13.778   0.902   1.985
74198SOL     OW24426   3.900   3.762   3.905
74198SOL    HW124427   3.974   3.810   3.868
74198SOL    HW224428   3.941   3.688   3.951
74199SOL     OW24429  11.465   2.276   6.867
74199SOL    HW124430  11.414   2.216   6.813
74199SOL    HW224431  11.467   2.234   6.953
74200SOL     OW24432  14.077  11.224   0.085
74200SOL    HW124433  14.148  11.229   0.021
74200SOL    HW224434  14.098  11.147   0.138
74201SOL     OW24435   8.625   8.550   9.264
74201SOL    HW124436   8.553   8.535   9.325
74201SOL    HW224437   8.602   8.497   9.187
74202SOL     OW24438   1.383   3.997   0.480
74202SOL    HW124439   1.298   3.955   0.489
74202SOL    HW224440   1.388   4.058   0.554
74203SOL     OW24441   9.359   5.571   8.168
74203SOL    HW124442   9.336   5.625   8.244
74203SOL    HW224443   9.448   5.541   8.186
74204SOL     OW24444   3.436   0.205   7.211
74204SOL    HW124445   3.481   0.239   7.289
74204SOL    HW224446   3.453   0.271   7.144
74205SOL     OW24447  10.194   7.224   5.819
74205SOL    HW124448  10.144   7.257   5.893
74205SOL    HW224449  10.284   7.221   5.850
74206SOL     OW24450   9.506  12.336   6.798
74206SOL    HW124451   9.443  12.290   6.853
74206SOL    HW224452   9.528  12.416   6.847
74207SOL     OW24453   1.691   8.378   5.856
74207SOL    HW124454   1.755   8.341   5.917
74207SOL    HW224455   1.707   8.332   5.774
74208SOL     OW24456   8.983   0.347  11.111
74208SOL    HW124457   8.913   0.378  11.170
74208SOL    HW224458   9.063   0.380  11.150
74209SOL     OW24459   3.696   3.301  14.538
74209SOL    HW124460   3.686   3.260  14.452
74209SOL    HW224461   3.610   3.293  14.578
74210SOL     OW24462   4.709  13.063  10.685
74210SOL    HW124463   4.799  13.054  10.717
74210SOL    HW224464   4.668  13.127  10.743
74211SOL     OW24465   5.941  14.727   0.463
74211SOL    HW124466   6.024  14.687   0.438
74211SOL    HW224467   5.902  14.666   0.526
74212SOL     OW24468   6.755   0.256  11.656
74212SOL    HW124469   6.792   0.187  11.601
74212SOL    HW224470   6.666   0.268  11.624
74213SOL     OW24471   1.168   0.771   2.046
74213SOL    HW124472   1.107   0.735   2.111
74213SOL    HW224473   1.119   0.843   2.005
74214SOL     OW24474  11.600  14.280  12.797
74214SOL    HW124475  11.539  14.272  12.724
74214SOL    HW224476  11.555  14.237  12.870
74215SOL     OW24477   4.771   5.305   2.607
74215SOL    HW124478   4.790   5.211   2.601
74215SOL    HW224479   4.796   5.340   2.521
74216SOL     OW24480   4.621   6.655  10.615
74216SOL    HW124481   4.708   6.642  10.653
74216SOL    HW224482   4.638   6.673  10.522
74217SOL     OW24483   6.903  13.232   0.774
74217SOL    HW124484   6.972  13.199   0.717
74217SOL    HW224485   6.916  13.186   0.857
74218SOL     OW24486  10.155   0.599   7.138
74218SOL    HW124487  10.113   0.531   7.191
74218SOL    HW224488  10.149   0.566   7.048
74219SOL     OW24489  14.849  13.697  10.817
74219SOL    HW124490   0.002  13.676  10.905
74219SOL    HW224491  14.755  13.711  10.828
74220SOL     OW24492   5.324  10.283   2.831
74220SOL    HW124493   5.343  10.211   2.891
74220SOL    HW224494   5.244  10.257   2.786
74221SOL     OW24495   2.570   5.112  13.594
74221SOL    HW124496   2.491   5.093  13.645
74221SOL    HW224497   2.568   5.207  13.582
74222SOL     OW24498   6.781  14.213  11.107
74222SOL    HW124499   6.770  14.278  11.176
74222SOL    HW224500   6.749  14.131  11.145
74223SOL     OW24501   7.835  10.325   0.361
74223SOL    HW124502   7.879  10.242   0.344
74223SOL    HW224503   7.895  10.372   0.419
74224SOL     OW24504  10.788  10.967   7.959
74224SOL    HW124505  10.854  11.002   8.019
74224SOL    HW224506  10.705  10.985   8.002
74225SOL     OW24507  10.005   2.327   0.706
74225SOL    HW124508   9.935   2.271   0.672
74225SOL    HW224509   9.961   2.409   0.729
74226SOL     OW24510   2.045  10.505   1.214
74226SOL    HW124511   2.075  10.444   1.281
74226SOL    HW224512   2.125  10.536   1.173
74227SOL     OW24513   7.373  14.563   2.524
74227SOL    HW124514   7.382  14.548   2.430
74227SOL    HW224515   7.366  14.658   2.533
74228SOL     OW24516   8.034   6.280  13.481
74228SOL    HW124517   7.998   6.267  13.569
74228SOL    HW224518   7.984   6.354  13.446
74229SOL     OW24519   7.351   6.504   6.515
74229SOL    HW124520   7.282   6.569   6.503
74229SOL    HW224521   7.305   6.425   6.542
74230SOL     OW24522   0.992   1.299   5.770
74230SOL    HW124523   1.030   1.218   5.806
74230SOL    HW224524   1.019   1.367   5.832
74231SOL     OW24525  11.634   2.667   8.260
74231SOL    HW124526  11.601   2.581   8.236
74231SOL    HW224527  11.572   2.729   8.220
74232SOL     OW24528   4.544   3.965   3.691
74232SOL    HW124529   4.535   3.895   3.756
74232SOL    HW224530   4.607   4.026   3.730
74233SOL     OW24531   3.591   7.192  11.885
74233SOL    HW124532   3.554   7.106  11.867
74233SOL    HW224533   3.683   7.184  11.860
74234SOL     OW24534   5.625  11.720   7.019
74234SOL    HW124535   5.566  11.666   7.071
74234SOL    HW224536   5.690  11.658   6.984
74235SOL     OW24537  12.428   7.583  13.590
74235SOL    HW124538  12.342   7.625  13.578
74235SOL    HW224539  12.407   7.490  13.601
74236SOL     OW24540  11.270   5.447   5.159
74236SOL    HW124541  11.280   5.439   5.254
74236SOL    HW224542  11.203   5.514   5.146
74237SOL     OW24543   3.462  13.840   7.672
74237SOL    HW124544   3.488  13.846   7.580
74237SOL    HW224545   3.500  13.918   7.712
74238SOL     OW24546   7.947   7.344   4.048
74238SOL    HW124547   7.869   7.348   4.103
74238SOL    HW224548   8.003   7.415   4.081
74239SOL     OW24549   9.163   2.291   3.559
74239SOL    HW124550   9.121   2.221   3.509
74239SOL    HW224551   9.092   2.330   3.610
74240SOL     OW24552   9.536  14.076  14.754
74240SOL    HW124553   9.569  14.166  14.757
74240SOL    HW224554   9.491  14.064  14.838
74241SOL     OW24555   8.302   1.441  14.798
74241SOL    HW124556   8.292   1.367  14.858
74241SOL    HW224557   8.267   1.516  14.846
74242SOL     OW24558   6.389   3.291   0.896
74242SOL    HW124559   6.405   3.243   0.815
74242SOL    HW224560   6.321   3.241   0.941
74243SOL     OW24561   2.614  11.674   4.665
74243SOL    HW124562   2.582  11.657   4.576
74243SOL    HW224563   2.544  11.726   4.706
74244SOL     OW24564   2.199   7.134  14.434
74244SOL    HW124565   2.276   7.191  14.429
74244SOL    HW224566   2.148   7.155  14.356
74245SOL     OW24567   0.930   7.511   9.386
74245SOL    HW124568   0.869   7.548   9.322
74245SOL    HW224569   1.016   7.535   9.353
74246SOL     OW24570   5.046   7.865  14.038
74246SOL    HW124571   4.975   7.808  14.070
74246SOL    HW224572   5.090   7.895  14.117
74247SOL     OW24573   1.522   9.542   0.037
74247SOL    HW124574   1.480   9.622   0.006
74247SOL    HW224575   1.451   9.478   0.043
74248SOL     OW24576  13.818  11.635   7.014
74248SOL    HW124577  13.850  11.588   6.936
74248SOL    HW224578  13.730  11.601   7.028
74249SOL     OW24579   9.361   7.458   9.039
74249SOL    HW124580   9.319   7.499   9.115
74249SOL    HW224581   9.345   7.365   9.051
74250SOL     OW24582   9.864  12.899   1.059
74250SOL    HW124583   9.952  12.878   1.091
74250SOL    HW224584   9.836  12.820   1.013
74251SOL     OW24585   3.845   4.886   3.750
74251SOL    HW124586   3.810   4.939   3.822
74251SOL    HW224587   3.788   4.907   3.676
74252SOL     OW24588   5.084  10.245   0.550
74252SOL    HW124589   5.176  10.223   0.535
74252SOL    HW224590   5.086  10.311   0.619
74253SOL     OW24591   3.192   3.297   1.351
74253SOL    HW124592   3.197   3.370   1.413
74253SOL    HW224593   3.282   3.284   1.321
74254SOL     OW24594  13.956  13.166   1.823
74254SOL    HW124595  13.992  13.150   1.736
74254SOL    HW224596  13.978  13.257   1.842
74255SOL     OW24597   5.546   3.490  14.299
74255SOL    HW124598   5.557   3.492  14.204
74255SOL    HW224599   5.584   3.407  14.326
74256SOL     OW24600   3.060  11.290  13.268
74256SOL    HW124601   3.128  11.353  13.290
74256SOL    HW224602   3.079  11.265  13.177
74257SOL     OW24603   7.958  14.598  14.563
74257SOL    HW124604   7.989  14.617  14.475
74257SOL    HW224605   7.878  14.547  14.549
74258SOL     OW24606   0.374  14.642  10.358
74258SOL    HW124607   0.468  14.640  10.373
74258SOL    HW224608   0.363  14.612  10.268
74259SOL     OW24609   9.490  12.840  14.683
74259SOL    HW124610   9.564  12.829  14.623
74259SOL    HW224611   9.522  12.806  14.767
74260SOL     OW24612   3.573  11.390   7.100
74260SOL    HW124613   3.571  11.484   7.079
74260SOL    HW224614   3.501  11.378   7.162
74261SOL     OW24615  11.258   9.118   6.245
74261SOL    HW124616  11.223   9.041   6.289
74261SOL    HW224617  11.253   9.098   6.152
74262SOL     OW24618  10.795   7.789   0.211
74262SOL    HW124619  10.775   7.794   0.304
74262SOL    HW224620  10.839   7.704   0.201
74263SOL     OW24621   3.064  14.001   8.716
74263SOL    HW124622   3.057  14.002   8.620
74263SOL    HW224623   3.137  13.942   8.734
74264SOL     OW24624  13.119   9.302   6.802
74264SOL    HW124625  13.032   9.339   6.788
74264SOL    HW224626  13.103   9.214   6.835
74265SOL     OW24627   0.407  12.525   4.000
74265SOL    HW124628   0.370  12.578   3.929
74265SOL    HW224629   0.394  12.435   3.971
74266SOL     OW24630   1.848   3.807  10.435
74266SOL    HW124631   1.761   3.769  10.438
74266SOL    HW224632   1.893   3.771  10.511
74267SOL     OW24633   2.921  12.577  13.669
74267SOL    HW124634   2.877  12.533  13.741
74267SOL    HW224635   2.863  12.564  13.594
74268SOL     OW24636  12.988   3.952   5.646
74268SOL    HW124637  12.911   3.999   5.613
74268SOL    HW224638  12.956   3.903   5.722
74269SOL     OW24639   5.796   1.197   5.244
74269SOL    HW124640   5.833   1.197   5.332
74269SOL    HW224641   5.702   1.187   5.256
74270SOL     OW24642  14.096   1.148   7.868
74270SOL    HW124643  14.093   1.056   7.894
74270SOL    HW224644  14.146   1.191   7.938
74271SOL     OW24645  10.392   7.147  12.874
74271SOL    HW124646  10.352   7.173  12.956
74271SOL    HW224647  10.324   7.096  12.829
74272SOL     OW24648  14.742   6.885   4.068
74272SOL    HW124649  14.743   6.915   4.158
74272SOL    HW224650  14.654   6.905   4.036
74273SOL     OW24651   7.224  13.224   1.021
74273SOL    HW124652   7.230  13.166   0.945
74273SOL    HW224653   7.131  13.225   1.043
74274SOL     OW24654   6.738   1.521   0.857
74274SOL    HW124655   6.684   1.444   0.874
74274SOL    HW224656   6.827   1.485   0.847
74275SOL     OW24657   1.744   1.641   4.078
74275SOL    HW124658   1.716   1.731   4.061
74275SOL    HW224659   1.663   1.593   4.093
74276SOL     OW24660  11.688  12.719  10.108
74276SOL    HW124661  11.646  12.762  10.034
74276SOL    HW224662  11.774  12.693  10.075
74277SOL     OW24663   3.188  14.215   9.905
74277SOL    HW124664   3.176  14.122   9.919
74277SOL    HW224665   3.283  14.227   9.901
74278SOL     OW24666  14.856   3.853   6.576
74278SOL    HW124667  14.872   3.885   6.665
74278SOL    HW224668   0.064   3.835   6.541
74279SOL     OW24669   0.467  12.526   1.508
74279SOL    HW124670   0.537  12.592   1.500
74279SOL    HW224671   0.440  12.510   1.417
74280SOL     OW24672   6.488   3.947   8.052
74280SOL    HW124673   6.486   4.042   8.057
74280SOL    HW224674   6.521   3.928   7.964
74281SOL     OW24675   9.435  11.777   1.465
74281SOL    HW124676   9.383  11.830   1.404
74281SOL    HW224677   9.376  11.758   1.537
74282SOL     OW24678  13.038   0.933   8.433
74282SOL    HW124679  13.050   0.910   8.525
74282SOL    HW224680  13.082   0.863   8.384
74283SOL     OW24681   0.328   5.768   6.484
74283SOL    HW124682   0.313   5.861   6.500
74283SOL    HW224683   0.245   5.735   6.451
74284SOL     OW24684   1.301   9.069   7.603
74284SOL    HW124685   1.347   9.052   7.685
74284SOL    HW224686   1.232   9.003   7.599
74285SOL     OW24687   2.453  12.355   2.117
74285SOL    HW124688   2.515  12.423   2.091
74285SOL    HW224689   2.468  12.342   2.210
74286SOL     OW24690   9.774  14.458   5.543
74286SOL    HW124691   9.717  14.393   5.584
74286SOL    HW224692   9.771  14.437   5.450
74287SOL     OW24693  12.376  11.566   8.446
74287SOL    HW124694  12.386  11.644   8.501
74287SOL    HW224695  12.333  11.599   8.367
74288SOL     OW24696  11.419   9.596  11.133
74288SOL    HW124697  11.461   9.655  11.196
74288SOL    HW224698  11.344   9.646  11.100
74289SOL     OW24699  10.973  12.355  12.323
74289SOL    HW124700  10.990  12.320  12.235
74289SOL    HW224701  10.942  12.444  12.308
74290SOL     OW24702   7.745   3.115  11.115
74290SOL    HW124703   7.717   3.126  11.024
74290SOL    HW224704   7.757   3.205  11.147
74291SOL     OW24705   2.229   5.241  13.913
74291SOL    HW124706   2.182   5.283  13.841
74291SOL    HW224707   2.305   5.297  13.928
74292SOL     OW24708   1.306  12.038   0.023
74292SOL    HW124709   1.260  12.104   0.075
74292SOL    HW224710   1.302  12.072  14.812
74293SOL     OW24711  13.058   2.741  14.751
74293SOL    HW124712  13.144   2.704  14.731
74293SOL    HW224713  13.015   2.749  14.666
74294SOL     OW24714  11.102  10.659   3.781
74294SOL    HW124715  11.123  10.614   3.699
74294SOL    HW224716  11.158  10.737   3.780
74295SOL     OW24717  13.100  11.915   7.675
74295SOL    HW124718  13.051  11.901   7.756
74295SOL    HW224719  13.081  12.005   7.650
74296SOL     OW24720  12.518  12.747  12.109
74296SOL    HW124721  12.544  12.816  12.170
74296SOL    HW224722  12.553  12.775  12.024
74297SOL     OW24723  11.876   0.960   2.035
74297SOL    HW124724  11.949   1.009   2.074
74297SOL    HW224725  11.900   0.868   2.047
74298SOL     OW24726  14.568   8.901   1.521
74298SOL    HW124727  14.631   8.966   1.491
74298SOL    HW224728  14.598   8.818   1.484
74299SOL     OW24729   7.818  12.046  10.599
74299SOL    HW124730   7.811  11.991  10.521
74299SOL    HW224731   7.873  12.119  10.571
74300SOL     OW24732  11.093   7.341  11.022
74300SOL    HW124733  11.143   7.386  10.954
74300SOL    HW224734  11.009   7.387  11.023
74301SOL     OW24735  13.044  14.345   3.261
74301SOL    HW124736  12.958  14.357   3.221
74301SOL    HW224737  13.035  14.380   3.349
74302SOL     OW24738   4.547  10.101   0.262
74302SOL    HW124739   4.588  10.184   0.287
74302SOL    HW224740   4.620  10.041   0.246
74303SOL     OW24741   9.689   8.773   5.217
74303SOL    HW124742   9.602   8.805   5.242
74303SOL    HW224743   9.725   8.841   5.161
74304SOL     OW24744   9.947   1.073  13.017
74304SOL    HW124745  10.037   1.092  12.992
74304SOL    HW224746   9.897   1.148  12.986
74305SOL     OW24747  12.298   2.181   9.900
74305SOL    HW124748  12.346   2.099   9.911
74305SOL    HW224749  12.224   2.174   9.960
74306SOL     OW24750   2.665  13.451   8.241
74306SOL    HW124751   2.630  13.504   8.170
74306SOL    HW224752   2.672  13.511   8.315
74307SOL     OW24753  12.609   4.428  10.623
74307SOL    HW124754  12.669   4.473  10.682
74307SOL    HW224755  12.593   4.491  10.553
74308SOL     OW24756   8.016   7.850   5.723
74308SOL    HW124757   8.111   7.845   5.709
74308SOL    HW224758   7.983   7.764   5.697
74309SOL     OW24759   4.016  10.924  14.665
74309SOL    HW124760   3.953  10.948  14.597
74309SOL    HW224761   3.984  10.968  14.744
74310SOL     OW24762   2.534   5.077  12.607
74310SOL    HW124763   2.537   5.172  12.594
74310SOL    HW224764   2.441   5.056  12.606
74311SOL     OW24765  12.327   6.026   1.633
74311SOL    HW124766  12.418   6.008   1.655
74311SOL    HW224767  12.302   6.099   1.690
74312SOL     OW24768   2.031   5.104   6.292
74312SOL    HW124769   1.968   5.118   6.220
74312SOL    HW224770   2.105   5.161   6.270
74313SOL     OW24771   8.210   6.456   5.919
74313SOL    HW124772   8.294   6.420   5.894
74313SOL    HW224773   8.231   6.539   5.963
74314SOL     OW24774   6.495   5.776  12.767
74314SOL    HW124775   6.570   5.719  12.754
74314SOL    HW224776   6.531   5.865  12.765
74315SOL     OW24777  14.087  10.065  12.839
74315SOL    HW124778  14.097  10.095  12.930
74315SOL    HW224779  14.012  10.006  12.841
74316SOL     OW24780   7.966   5.988   5.432
74316SOL    HW124781   7.928   6.009   5.518
74316SOL    HW224782   7.896   5.942   5.386
74317SOL     OW24783   5.782   3.080  14.854
74317SOL    HW124784   5.697   3.040  14.876
74317SOL    HW224785   5.844   3.037   0.033
74318SOL     OW24786   5.884   4.511   6.401
74318SOL    HW124787   5.907   4.477   6.487
74318SOL    HW224788   5.889   4.435   6.343
74319SOL     OW24789  14.360  12.228   2.142
74319SOL    HW124790  14.431  12.166   2.157
74319SOL    HW224791  14.362  12.286   2.218
74320SOL     OW24792   9.313   6.280  10.069
74320SOL    HW124793   9.373   6.300   9.998
74320SOL    HW224794   9.295   6.187  10.060
74321SOL     OW24795   0.363   8.282   3.832
74321SOL    HW124796   0.359   8.295   3.926
74321SOL    HW224797   0.325   8.196   3.817
74322SOL     OW24798   7.833   6.132   7.851
74322SOL    HW124799   7.921   6.121   7.815
74322SOL    HW224800   7.792   6.198   7.795
74323SOL     OW24801   0.696  10.694   9.445
74323SOL    HW124802   0.717  10.608   9.479
74323SOL    HW224803   0.661  10.742   9.520
74324SOL     OW24804  13.542   5.983  12.112
74324SOL    HW124805  13.510   5.894  12.124
74324SOL    HW224806  13.550   6.018  12.201
74325SOL     OW24807   5.768  12.163   6.344
74325SOL    HW124808   5.779  12.202   6.431
74325SOL    HW224809   5.679  12.128   6.344
74326SOL     OW24810   6.216  14.606   0.506
74326SOL    HW124811   6.305  14.571   0.503
74326SOL    HW224812   6.166  14.548   0.449
74327SOL     OW24813   8.780   2.158   7.735
74327SOL    HW124814   8.852   2.190   7.790
74327SOL    HW224815   8.716   2.228   7.735
74328SOL     OW24816  10.492   5.489   5.133
74328SOL    HW124817  10.444   5.491   5.051
74328SOL    HW224818  10.528   5.400   5.138
74329SOL     OW24819  13.624  12.292  10.556
74329SOL    HW124820  13.693  12.352  10.585
74329SOL    HW224821  13.664  12.205  10.562
74330SOL     OW24822   1.769   2.626  14.657
74330SOL    HW124823   1.805   2.550  14.702
74330SOL    HW224824   1.800   2.617  14.567
74331SOL     OW24825   8.702   1.840   0.032
74331SOL    HW124826   8.675   1.789   0.109
74331SOL    HW224827   8.630   1.901   0.018
74332SOL     OW24828  10.218   5.465  12.457
74332SOL    HW124829  10.211   5.389  12.515
74332SOL    HW224830  10.285   5.442  12.393
74333SOL     OW24831   9.022   7.522   1.019
74333SOL    HW124832   9.053   7.613   1.014
74333SOL    HW224833   9.093   7.470   0.981
74334SOL     OW24834   3.257   6.338  14.182
74334SOL    HW124835   3.226   6.248  14.173
74334SOL    HW224836   3.251   6.357  14.275
74335SOL     OW24837   5.846  13.620  11.837
74335SOL    HW124838   5.926  13.573  11.859
74335SOL    HW224839   5.806  13.567  11.767
74336SOL     OW24840   5.182  10.699   9.632
74336SOL    HW124841   5.113  10.726   9.572
74336SOL    HW224842   5.239  10.775   9.639
74337SOL     OW24843   5.412   6.143   8.203
74337SOL    HW124844   5.416   6.237   8.188
74337SOL    HW224845   5.497   6.110   8.173
74338SOL     OW24846   8.835   8.326   6.583
74338SOL    HW124847   8.745   8.358   6.593
74338SOL    HW224848   8.890   8.404   6.594
74339SOL     OW24849   0.277   5.325   0.530
74339SOL    HW124850   0.338   5.380   0.481
74339SOL    HW224851   0.191   5.350   0.498
74340SOL     OW24852   9.556   6.881   7.519
74340SOL    HW124853   9.649   6.879   7.544
74340SOL    HW224854   9.517   6.946   7.577
74341SOL     OW24855   3.475   2.765  12.499
74341SOL    HW124856   3.485   2.861  12.494
74341SOL    HW224857   3.400   2.752  12.557
74342SOL     OW24858   4.328   6.228  12.028
74342SOL    HW124859   4.334   6.149  12.082
74342SOL    HW224860   4.236   6.253  12.032
74343SOL     OW24861   9.535   5.530   9.090
74343SOL    HW124862   9.582   5.462   9.041
74343SOL    HW224863   9.453   5.541   9.042
74344SOL     OW24864   1.760   2.268  14.736
74344SOL    HW124865   1.804   2.192  14.774
74344SOL    HW224866   1.759   2.333  14.806
74345SOL     OW24867   2.167   8.175  12.899
74345SOL    HW124868   2.173   8.134  12.985
74345SOL    HW224869   2.255   8.212  12.884
74346SOL     OW24870   1.429   4.279   5.091
74346SOL    HW124871   1.446   4.327   5.010
74346SOL    HW224872   1.340   4.244   5.079
74347SOL     OW24873  12.115  10.722   6.017
74347SOL    HW124874  12.163  10.761   6.090
74347SOL    HW224875  12.023  10.730   6.043
74348SOL     OW24876   8.846   6.027  14.405
74348SOL    HW124877   8.866   5.989  14.490
74348SOL    HW224878   8.757   5.996  14.385
74349SOL     OW24879   5.930   0.707   2.832
74349SOL    HW124880   5.967   0.737   2.915
74349SOL    HW224881   5.991   0.639   2.803
74350SOL     OW24882   8.369   7.025   0.103
74350SOL    HW124883   8.462   7.005   0.101
74350SOL    HW224884   8.326   6.940   0.089
74351SOL     OW24885  11.839   9.381   3.990
74351SOL    HW124886  11.744   9.392   3.996
74351SOL    HW224887  11.867   9.450   3.930
74352SOL     OW24888   9.829   6.674  12.202
74352SOL    HW124889   9.875   6.704  12.124
74352SOL    HW224890   9.754   6.625  12.169
74353SOL     OW24891   1.582   5.758  13.543
74353SOL    HW124892   1.511   5.702  13.575
74353SOL    HW224893   1.662   5.710  13.566
74354SOL     OW24894   6.622   7.257   9.132
74354SOL    HW124895   6.641   7.290   9.220
74354SOL    HW224896   6.582   7.331   9.087
74355SOL     OW24897  10.299  12.306   2.331
74355SOL    HW124898  10.283  12.244   2.260
74355SOL    HW224899  10.288  12.254   2.411
74356SOL     OW24900  14.599  12.032  10.086
74356SOL    HW124901  14.641  12.017  10.001
74356SOL    HW224902  14.588  11.944  10.122
74357SOL     OW24903   1.282   8.752   1.280
74357SOL    HW124904   1.259   8.824   1.222
74357SOL    HW224905   1.297   8.793   1.365
74358SOL     OW24906  12.820  14.306   9.133
74358SOL    HW124907  12.847  14.338   9.047
74358SOL    HW224908  12.857  14.218   9.138
74359SOL     OW24909  13.751   7.255   7.182
74359SOL    HW124910  13.821   7.232   7.122
74359SOL    HW224911  13.673   7.262   7.127
74360SOL     OW24912  11.829  11.058  14.134
74360SOL    HW124913  11.832  10.963  14.118
74360SOL    HW224914  11.840  11.066  14.228
74361SOL     OW24915  12.935   0.282   9.301
74361SOL    HW124916  12.914   0.340   9.228
74361SOL    HW224917  12.851   0.262   9.341
74362SOL     OW24918  13.095   5.834  13.155
74362SOL    HW124919  13.077   5.811  13.064
74362SOL    HW224920  13.037   5.907  13.174
74363SOL     OW24921   9.268  10.956   6.578
74363SOL    HW124922   9.316  10.960   6.496
74363SOL    HW224923   9.205  11.027   6.573
74364SOL     OW24924  13.907  14.754   1.824
74364SOL    HW124925  13.995  14.745   1.862
74364SOL    HW224926  13.912  14.704   1.742
74365SOL     OW24927   6.312   8.512   4.876
74365SOL    HW124928   6.320   8.508   4.971
74365SOL    HW224929   6.298   8.421   4.849
74366SOL     OW24930   4.840   9.830  13.992
74366SOL    HW124931   4.748   9.810  14.007
74366SOL    HW224932   4.843   9.868  13.904
74367SOL     OW24933   3.535  14.119   7.818
74367SOL    HW124934   3.519  14.212   7.800
74367SOL    HW224935   3.460  14.091   7.870
74368SOL     OW24936  14.753   5.436   4.586
74368SOL    HW124937  14.764   5.342   4.596
74368SOL    HW224938  14.725   5.447   4.495
74369SOL     OW24939  10.477  12.387   4.794
74369SOL    HW124940  10.534  12.458   4.826
74369SOL    HW224941  10.537  12.315   4.775
74370SOL     OW24942   2.868   3.301  12.141
74370SOL    HW124943   2.829   3.217  12.120
74370SOL    HW224944   2.846   3.315  12.233
74371SOL     OW24945   2.513   6.291   6.451
74371SOL    HW124946   2.542   6.205   6.421
74371SOL    HW224947   2.582   6.321   6.510
74372SOL     OW24948   7.199  14.706   2.732
74372SOL    HW124949   7.142  14.780   2.711
74372SOL    HW224950   7.287  14.735   2.708
74373SOL     OW24951  13.127   6.154  14.044
74373SOL    HW124952  13.115   6.146  14.139
74373SOL    HW224953  13.202   6.212  14.034
74374SOL     OW24954   7.654  10.713  10.035
74374SOL    HW124955   7.574  10.703   9.983
74374SOL    HW224956   7.635  10.788  10.092
74375SOL     OW24957   8.222   3.100  11.444
74375SOL    HW124958   8.298   3.056  11.481
74375SOL    HW224959   8.169   3.030  11.405
74376SOL     OW24960  11.099  14.063   4.624
74376SOL    HW124961  11.065  14.015   4.548
74376SOL    HW224962  11.038  14.042   4.695
74377SOL     OW24963  14.578   1.734   2.792
74377SOL    HW124964  14.665   1.734   2.831
74377SOL    HW224965  14.570   1.821   2.752
74378SOL     OW24966   9.091   4.161  13.577
74378SOL    HW124967   8.996   4.160  13.582
74378SOL    HW224968   9.112   4.249  13.546
74379SOL     OW24969   4.664   1.140  14.657
74379SOL    HW124970   4.749   1.175  14.684
74379SOL    HW224971   4.600   1.187  14.711
74380SOL     OW24972  13.153  10.248   2.515
74380SOL    HW124973  13.122  10.189   2.446
74380SOL    HW224974  13.191  10.191   2.581
74381SOL     OW24975   0.364  11.439  10.501
74381SOL    HW124976   0.356  11.388  10.420
74381SOL    HW224977   0.382  11.375  10.569
74382SOL     OW24978   7.161   0.205  11.837
74382SOL    HW124979   7.236   0.236  11.786
74382SOL    HW224980   7.113   0.148  11.778
74383SOL     OW24981   9.760   5.087   4.822
74383SOL    HW124982   9.714   5.146   4.764
74383SOL    HW224983   9.693   5.054   4.882
74384SOL     OW24984  11.476  11.812  14.407
74384SOL    HW124985  11.423  11.757  14.349
74384SOL    HW224986  11.462  11.901  14.374
74385SOL     OW24987   6.075   7.088  10.743
74385SOL    HW124988   6.005   7.071  10.807
74385SOL    HW224989   6.135   7.147  10.789
74386SOL     OW24990  11.370  10.909   2.390
74386SOL    HW124991  11.341  10.867   2.309
74386SOL    HW224992  11.297  10.965   2.417
74387SOL     OW24993   7.493   2.877   1.613
74387SOL    HW124994   7.501   2.914   1.525
74387SOL    HW224995   7.454   2.946   1.665
74388SOL     OW24996   7.310   3.573  14.776
74388SOL    HW124997   7.395   3.535  14.799
74388SOL    HW224998   7.329   3.632  14.704
74389SOL     OW24999  13.325  10.028  12.705
74389SOL    HW125000  13.400  10.086  12.695
74389SOL    HW225001  13.333   9.966  12.633
74390SOL     OW25002   0.138   6.725   2.479
74390SOL    HW125003   0.081   6.696   2.407
74390SOL    HW225004   0.200   6.786   2.438
74391SOL     OW25005   9.105  11.570   2.565
74391SOL    HW125006   9.162  11.516   2.619
74391SOL    HW225007   9.017  11.552   2.597
74392SOL     OW25008   2.148  13.534   2.463
74392SOL    HW125009   2.110  13.618   2.491
74392SOL    HW225010   2.200  13.556   2.385
74393SOL     OW25011  14.478   1.229  11.908
74393SOL    HW125012  14.546   1.295  11.896
74393SOL    HW225013  14.521   1.158  11.956
74394SOL     OW25014   1.922  12.737   4.925
74394SOL    HW125015   1.981  12.778   4.862
74394SOL    HW225016   1.933  12.643   4.910
74395SOL     OW25017   0.144   1.830   3.740
74395SOL    HW125018   0.148   1.735   3.725
74395SOL    HW225019   0.158   1.840   3.834
74396SOL     OW25020   9.108   5.951  10.159
74396SOL    HW125021   9.196   5.961  10.196
74396SOL    HW225022   9.049   5.973  10.231
74397SOL     OW25023   7.326   1.630   1.615
74397SOL    HW125024   7.348   1.660   1.703
74397SOL    HW225025   7.410   1.623   1.570
74398SOL     OW25026   6.189   7.303   4.382
74398SOL    HW125027   6.237   7.373   4.426
74398SOL    HW225028   6.119   7.348   4.334
74399SOL     OW25029   8.425  10.275   7.853
74399SOL    HW125030   8.419  10.292   7.948
74399SOL    HW225031   8.394  10.185   7.843
74400SOL     OW25032   4.030   1.920   6.696
74400SOL    HW125033   4.089   1.875   6.636
74400SOL    HW225034   4.068   1.907   6.783
74401SOL     OW25035   0.102   1.781   1.261
74401SOL    HW125036   0.140   1.717   1.321
74401SOL    HW225037   0.018   1.743   1.235
74402SOL     OW25038   9.309   5.750   6.429
74402SOL    HW125039   9.300   5.805   6.350
74402SOL    HW225040   9.297   5.811   6.502
74403SOL     OW25041   7.456   4.538   8.985
74403SOL    HW125042   7.498   4.621   8.961
74403SOL    HW225043   7.367   4.545   8.949
74404SOL     OW25044   8.281   0.183   9.545
74404SOL    HW125045   8.254   0.264   9.503
74404SOL    HW225046   8.330   0.210   9.622
74405SOL     OW25047   5.395   4.160  12.179
74405SOL    HW125048   5.433   4.230  12.233
74405SOL    HW225049   5.422   4.079  12.222
74406SOL     OW25050   8.383  10.667   7.477
74406SOL    HW125051   8.473  10.682   7.506
74406SOL    HW225052   8.362  10.744   7.425
74407SOL     OW25053  12.566  13.084   9.792
74407SOL    HW125054  12.569  13.029   9.714
74407SOL    HW225055  12.473  13.091   9.813
74408SOL     OW25056  10.688  14.754  13.005
74408SOL    HW125057  10.728  14.841  12.996
74408SOL    HW225058  10.666  14.748  13.098
74409SOL     OW25059  13.392   6.074   7.433
74409SOL    HW125060  13.367   5.985   7.411
74409SOL    HW225061  13.330   6.099   7.502
74410SOL     OW25062  12.840  12.479  10.107
74410SOL    HW125063  12.748  12.475  10.132
74410SOL    HW225064  12.854  12.399  10.057
74411SOL     OW25065   0.744  10.888   8.794
74411SOL    HW125066   0.718  10.965   8.844
74411SOL    HW225067   0.778  10.923   8.712
74412SOL     OW25068  10.088   0.190   0.873
74412SOL    HW125069  10.061   0.121   0.933
74412SOL    HW225070  10.077   0.153   0.786
74413SOL     OW25071   1.648   7.512   8.440
74413SOL    HW125072   1.707   7.528   8.367
74413SOL    HW225073   1.596   7.437   8.413
74414SOL     OW25074   1.726   9.820   3.164
74414SOL    HW125075   1.676   9.902   3.169
74414SOL    HW225076   1.663   9.755   3.133
74415SOL     OW25077   8.777   5.050   2.981
74415SOL    HW125078   8.735   5.128   3.017
74415SOL    HW225079   8.706   4.986   2.973
74416SOL     OW25080   4.223   9.621   3.627
74416SOL    HW125081   4.232   9.526   3.639
74416SOL    HW225082   4.129   9.634   3.614
74417SOL     OW25083   2.209  14.112   1.646
74417SOL    HW125084   2.148  14.132   1.716
74417SOL    HW225085   2.166  14.145   1.567
74418SOL     OW25086   6.543   2.035   3.753
74418SOL    HW125087   6.599   1.957   3.745
74418SOL    HW225088   6.540   2.072   3.665
74419SOL     OW25089   2.555  14.465   2.129
74419SOL    HW125090   2.482  14.428   2.178
74419SOL    HW225091   2.517  14.489   2.044
74420SOL     OW25092  11.221   6.054  10.756
74420SOL    HW125093  11.210   6.130  10.814
74420SOL    HW225094  11.234   6.093  10.669
74421SOL     OW25095   0.868  10.361   0.122
74421SOL    HW125096   0.791  10.387   0.173
74421SOL    HW225097   0.852  10.269   0.099
74422SOL     OW25098   2.671  13.719   6.089
74422SOL    HW125099   2.694  13.631   6.121
74422SOL    HW225100   2.742  13.741   6.028
74423SOL     OW25101  10.038  10.448   2.226
74423SOL    HW125102  10.089  10.398   2.163
74423SOL    HW225103   9.960  10.394   2.242
74424SOL     OW25104   4.083   7.527   5.741
74424SOL    HW125105   4.134   7.598   5.702
74424SOL    HW225106   4.132   7.447   5.720
74425SOL     OW25107  11.535  10.794   6.112
74425SOL    HW125108  11.491  10.792   6.027
74425SOL    HW225109  11.559  10.885   6.125
74426SOL     OW25110   9.004   6.888   0.375
74426SOL    HW125111   9.058   6.964   0.400
74426SOL    HW225112   9.023   6.874   0.283
74427SOL     OW25113   0.678   5.895  11.072
74427SOL    HW125114   0.708   5.978  11.033
74427SOL    HW225115   0.740   5.830  11.038
74428SOL     OW25116   7.517  14.438   7.383
74428SOL    HW125117   7.463  14.385   7.442
74428SOL    HW225118   7.486  14.528   7.396
74429SOL     OW25119   5.154  13.330   8.264
74429SOL    HW125120   5.175  13.400   8.202
74429SOL    HW225121   5.183  13.250   8.221
74430SOL     OW25122  13.755  14.476   8.216
74430SOL    HW125123  13.691  14.501   8.283
74430SOL    HW225124  13.804  14.404   8.256
74431SOL     OW25125  11.342  12.242   2.003
74431SOL    HW125126  11.430  12.225   1.970
74431SOL    HW225127  11.343  12.335   2.027
74432SOL     OW25128  12.100  10.093  10.867
74432SOL    HW125129  12.033  10.160  10.857
74432SOL    HW225130  12.052  10.015  10.896
74433SOL     OW25131   2.655  12.360   5.968
74433SOL    HW125132   2.604  12.394   6.041
74433SOL    HW225133   2.630  12.416   5.894
74434SOL     OW25134  14.720   4.020   7.175
74434SOL    HW125135  14.794   4.052   7.123
74434SOL    HW225136  14.759   3.958   7.237
74435SOL     OW25137   0.743   1.812   0.248
74435SOL    HW125138   0.691   1.735   0.270
74435SOL    HW225139   0.702   1.884   0.297
74436SOL     OW25140   2.303   7.231   8.248
74436SOL    HW125141   2.287   7.258   8.338
74436SOL    HW225142   2.394   7.202   8.247
74437SOL     OW25143   1.052   0.964   7.126
74437SOL    HW125144   0.987   0.992   7.190
74437SOL    HW225145   1.004   0.910   7.063
74438SOL     OW25146   6.892  13.504   1.073
74438SOL    HW125147   6.816  13.489   1.017
74438SOL    HW225148   6.965  13.513   1.012
74439SOL     OW25149  14.323   3.251   0.757
74439SOL    HW125150  14.257   3.311   0.721
74439SOL    HW225151  14.327   3.179   0.695
74440SOL     OW25152   3.167   4.687   4.624
74440SOL    HW125153   3.107   4.617   4.600
74440SOL    HW225154   3.249   4.643   4.644
74441SOL     OW25155   9.608   4.920  11.318
74441SOL    HW125156   9.617   4.904  11.224
74441SOL    HW225157   9.693   4.956  11.344
74442SOL     OW25158  13.354   2.465   0.842
74442SOL    HW125159  13.309   2.459   0.758
74442SOL    HW225160  13.431   2.408   0.833
74443SOL     OW25161  11.221   6.522  10.269
74443SOL    HW125162  11.199   6.437  10.230
74443SOL    HW225163  11.294   6.502  10.328
74444SOL     OW25164  13.799   4.530   0.139
74444SOL    HW125165  13.873   4.483   0.177
74444SOL    HW225166  13.732   4.464   0.126
74445SOL     OW25167  11.290   6.054   6.468
74445SOL    HW125168  11.214   5.998   6.484
74445SOL    HW225169  11.264   6.139   6.504
74446SOL     OW25170  11.374   0.611   9.709
74446SOL    HW125171  11.287   0.648   9.725
74446SOL    HW225172  11.398   0.643   9.622
74447SOL     OW25173   9.334  13.724  12.376
74447SOL    HW125174   9.343  13.819  12.386
74447SOL    HW225175   9.293  13.712  12.291
74448SOL     OW25176   3.670  11.681   0.554
74448SOL    HW125177   3.677  11.777   0.558
74448SOL    HW225178   3.593  11.665   0.499
74449SOL     OW25179  10.333  13.394   4.324
74449SOL    HW125180  10.293  13.308   4.336
74449SOL    HW225181  10.298  13.447   4.396
74450SOL     OW25182   5.159   2.771  11.466
74450SOL    HW125183   5.169   2.712  11.541
74450SOL    HW225184   5.066   2.791  11.464
74451SOL     OW25185   1.561  13.786   6.508
74451SOL    HW125186   1.552  13.869   6.460
74451SOL    HW225187   1.477  13.774   6.552
74452SOL     OW25188   9.233  11.112  14.295
74452SOL    HW125189   9.152  11.155  14.323
74452SOL    HW225190   9.250  11.146  14.207
74453SOL     OW25191  10.274   9.103  11.708
74453SOL    HW125192  10.361   9.142  11.701
74453SOL    HW225193  10.277   9.054  11.790
74454SOL     OW25194   3.685   0.779   2.311
74454SOL    HW125195   3.744   0.722   2.262
74454SOL    HW225196   3.740   0.819   2.379
74455SOL     OW25197  14.249  11.010  10.467
74455SOL    HW125198  14.215  11.097  10.489
74455SOL    HW225199  14.325  10.998  10.524
74456SOL     OW25200   9.347  10.169  14.633
74456SOL    HW125201   9.408  10.221  14.581
74456SOL    HW225202   9.334  10.089  14.581
74457SOL     OW25203   9.676  14.420   3.487
74457SOL    HW125204   9.700  14.327   3.484
74457SOL    HW225205   9.759  14.466   3.475
74458SOL     OW25206   8.547   5.990   6.924
74458SOL    HW125207   8.635   6.006   6.959
74458SOL    HW225208   8.541   6.046   6.847
74459SOL     OW25209  14.441   3.250   7.348
74459SOL    HW125210  14.471   3.331   7.389
74459SOL    HW225211  14.348   3.244   7.373
74460SOL     OW25212   0.940  10.016  14.296
74460SOL    HW125213   0.971  10.051  14.379
74460SOL    HW225214   0.998  10.053  14.230
74461SOL     OW25215  13.986  14.156  13.276
74461SOL    HW125216  14.018  14.076  13.317
74461SOL    HW225217  14.061  14.216  13.279
74462SOL     OW25218   8.827  10.443   6.158
74462SOL    HW125219   8.829  10.375   6.090
74462SOL    HW225220   8.882  10.513   6.123
74463SOL     OW25221  14.648  10.958   6.718
74463SOL    HW125222  14.604  10.898   6.659
74463SOL    HW225223  14.582  11.025   6.738
74464SOL     OW25224  13.109  10.468   3.733
74464SOL    HW125225  13.050  10.510   3.670
74464SOL    HW225226  13.129  10.537   3.796
74465SOL     OW25227   5.492   7.550  11.411
74465SOL    HW125228   5.424   7.601  11.367
74465SOL    HW225229   5.445   7.504  11.481
74466SOL     OW25230  13.309  13.080  10.930
74466SOL    HW125231  13.311  13.173  10.953
74466SOL    HW225232  13.399  13.059  10.908
74467SOL     OW25233  13.498   0.142   3.731
74467SOL    HW125234  13.527   0.229   3.760
74467SOL    HW225235  13.571   0.084   3.750
74468SOL     OW25236   1.204   2.254   3.831
74468SOL    HW125237   1.162   2.175   3.798
74468SOL    HW225238   1.163   2.325   3.782
74469SOL     OW25239   5.403   7.242  13.118
74469SOL    HW125240   5.349   7.244  13.198
74469SOL    HW225241   5.342   7.264  13.048
74470SOL     OW25242   4.898  13.325   6.257
74470SOL    HW125243   4.990  13.327   6.230
74470SOL    HW225244   4.901  13.312   6.352
74471SOL     OW25245   8.528   5.962   1.353
74471SOL    HW125246   8.618   5.938   1.372
74471SOL    HW225247   8.490   5.984   1.438
74472SOL     OW25248   6.115  12.866   3.515
74472SOL    HW125249   6.090  12.946   3.561
74472SOL    HW225250   6.040  12.807   3.528
74473SOL     OW25251  12.650   8.556   2.412
74473SOL    HW125252  12.630   8.494   2.481
74473SOL    HW225253  12.586   8.538   2.344
74474SOL     OW25254   5.856   4.367   9.541
74474SOL    HW125255   5.770   4.334   9.514
74474SOL    HW225256   5.837   4.423   9.617
74475SOL     OW25257  10.508   5.508   7.236
74475SOL    HW125258  10.594   5.481   7.204
74475SOL    HW225259  10.453   5.509   7.158
74476SOL     OW25260  13.861   7.162   9.584
74476SOL    HW125261  13.892   7.185   9.671
74476SOL    HW225262  13.789   7.222   9.567
74477SOL     OW25263  11.701  10.107   5.753
74477SOL    HW125264  11.609  10.086   5.771
74477SOL    HW225265  11.717  10.189   5.799
74478SOL     OW25266  12.572  11.441   9.137
74478SOL    HW125267  12.627  11.382   9.086
74478SOL    HW225268  12.579  11.409   9.227
74479SOL     OW25269   2.572  13.916   0.733
74479SOL    HW125270   2.489  13.877   0.760
74479SOL    HW225271   2.634  13.890   0.801
74480SOL     OW25272   5.081   1.608  14.645
74480SOL    HW125273   5.048   1.521  14.624
74480SOL    HW225274   5.017   1.644  14.706
74481SOL     OW25275  10.595  10.888   7.703
74481SOL    HW125276  10.647  10.939   7.765
74481SOL    HW225277  10.520  10.857   7.755
74482SOL     OW25278   7.330  12.317   7.853
74482SOL    HW125279   7.307  12.338   7.943
74482SOL    HW225280   7.297  12.392   7.802
74483SOL     OW25281  11.012   2.748   2.365
74483SOL    HW125282  11.013   2.683   2.294
74483SOL    HW225283  11.027   2.696   2.445
74484SOL     OW25284  11.159   6.461   1.464
74484SOL    HW125285  11.134   6.375   1.429
74484SOL    HW225286  11.168   6.516   1.386
74485SOL     OW25287   3.264   3.548   4.610
74485SOL    HW125288   3.200   3.604   4.566
74485SOL    HW225289   3.303   3.604   4.677
74486SOL     OW25290   1.111   3.630  10.034
74486SOL    HW125291   1.194   3.677  10.027
74486SOL    HW225292   1.131   3.553  10.087
74487SOL     OW25293   4.333  11.955   7.019
74487SOL    HW125294   4.286  11.872   7.020
74487SOL    HW225295   4.280  12.013   7.074
74488SOL     OW25296   0.625   7.546   4.647
74488SOL    HW125297   0.546   7.595   4.622
74488SOL    HW225298   0.609   7.521   4.738
74489SOL     OW25299  11.491   3.087   6.908
74489SOL    HW125300  11.425   3.083   6.839
74489SOL    HW225301  11.441   3.100   6.988
74490SOL     OW25302   4.599   9.831   9.833
74490SOL    HW125303   4.661   9.799   9.898
74490SOL    HW225304   4.653   9.863   9.761
74491SOL     OW25305   9.084   0.889   4.643
74491SOL    HW125306   9.162   0.907   4.695
74491SOL    HW225307   9.032   0.829   4.697
74492SOL     OW25308   8.228   3.999  12.778
74492SOL    HW125309   8.244   3.977  12.686
74492SOL    HW225310   8.272   4.083  12.791
74493SOL     OW25311  10.488  14.828  14.256
74493SOL    HW125312  10.428   0.003  14.307
74493SOL    HW225313  10.575  14.850  14.291
74494SOL     OW25314   5.982  10.488   9.475
74494SOL    HW125315   5.986  10.543   9.553
74494SOL    HW225316   5.985  10.549   9.402
74495SOL     OW25317   9.162   3.979   5.619
74495SOL    HW125318   9.257   3.971   5.623
74495SOL    HW225319   9.133   3.899   5.575
74496SOL     OW25320   8.356   8.276   5.757
74496SOL    HW125321   8.378   8.220   5.683
74496SOL    HW225322   8.279   8.235   5.797
74497SOL     OW25323  14.113  10.072  12.205
74497SOL    HW125324  14.095  10.136  12.136
74497SOL    HW225325  14.027  10.042  12.233
74498SOL     OW25326   0.730  12.409  13.934
74498SOL    HW125327   0.669  12.346  13.898
74498SOL    HW225328   0.729  12.392  14.029
74499SOL     OW25329   8.828  10.262   4.566
74499SOL    HW125330   8.793  10.212   4.492
74499SOL    HW225331   8.771  10.240   4.640
74500SOL     OW25332   7.429   3.816   1.797
74500SOL    HW125333   7.412   3.858   1.712
74500SOL    HW225334   7.506   3.761   1.782
74501SOL     OW25335  11.658   2.234   7.353
74501SOL    HW125336  11.632   2.217   7.444
74501SOL    HW225337  11.754   2.241   7.357
74502SOL     OW25338  12.300  14.108  14.678
74502SOL    HW125339  12.362  14.151  14.619
74502SOL    HW225340  12.222  14.163  14.676
74503SOL     OW25341   3.430   7.863   6.716
74503SOL    HW125342   3.355   7.822   6.672
74503SOL    HW225343   3.506   7.834   6.665
74504SOL     OW25344   2.943   5.203  11.163
74504SOL    HW125345   2.903   5.284  11.130
74504SOL    HW225346   2.905   5.134  11.108
74505SOL     OW25347   6.741  11.645   9.709
74505SOL    HW125348   6.713  11.604   9.791
74505SOL    HW225349   6.684  11.721   9.699
74506SOL     OW25350   1.659   0.022   3.483
74506SOL    HW125351   1.617   0.072   3.414
74506SOL    HW225352   1.598   0.026   3.557
74507SOL     OW25353   6.563   5.486   3.589
74507SOL    HW125354   6.532   5.527   3.509
74507SOL    HW225355   6.484   5.458   3.635
74508SOL     OW25356  12.893  11.099  11.771
74508SOL    HW125357  12.925  11.140  11.690
74508SOL    HW225358  12.799  11.116  11.771
74509SOL     OW25359   5.405  10.291  13.629
74509SOL    HW125360   5.332  10.290  13.692
74509SOL    HW225361   5.438  10.381  13.632
74510SOL     OW25362  11.015   8.609   1.296
74510SOL    HW125363  10.958   8.541   1.261
74510SOL    HW225364  11.011   8.597   1.391
74511SOL     OW25365   6.808  10.638   0.238
74511SOL    HW125366   6.736  10.638   0.175
74511SOL    HW225367   6.770  10.675   0.318
74512SOL     OW25368   1.907   3.420   5.656
74512SOL    HW125369   1.985   3.409   5.711
74512SOL    HW225370   1.885   3.512   5.664
74513SOL     OW25371  14.467   8.531  13.983
74513SOL    HW125372  14.480   8.567  13.896
74513SOL    HW225373  14.552   8.497  14.009
74514SOL     OW25374  12.168   8.675   4.878
74514SOL    HW125375  12.167   8.735   4.804
74514SOL    HW225376  12.187   8.731   4.954
74515SOL     OW25377   8.932   2.508   3.094
74515SOL    HW125378   8.846   2.497   3.054
74515SOL    HW225379   8.991   2.520   3.019
74516SOL     OW25380   4.243   5.852   6.008
74516SOL    HW125381   4.333   5.865   5.980
74516SOL    HW225382   4.251   5.820   6.098
74517SOL     OW25383   4.498   5.934   1.761
74517SOL    HW125384   4.511   5.986   1.682
74517SOL    HW225385   4.440   5.988   1.815
74518SOL     OW25386   1.202   7.352   7.638
74518SOL    HW125387   1.205   7.432   7.690
74518SOL    HW225388   1.188   7.282   7.702
74519SOL     OW25389   0.141  14.359   6.730
74519SOL    HW125390   0.079  14.408   6.784
74519SOL    HW225391   0.168  14.420   6.661
74520SOL     OW25392  13.347   2.946   1.373
74520SOL    HW125393  13.291   2.982   1.304
74520SOL    HW225394  13.417   2.902   1.326
74521SOL     OW25395   2.706   9.150  14.621
74521SOL    HW125396   2.766   9.208  14.575
74521SOL    HW225397   2.687   9.195  14.704
74522SOL     OW25398   9.662  10.722  10.191
74522SOL    HW125399   9.751  10.744  10.163
74522SOL    HW225400   9.626  10.672  10.118
74523SOL     OW25401   2.778   2.055   8.039
74523SOL    HW125402   2.850   2.113   8.064
74523SOL    HW225403   2.815   1.967   8.046
74524SOL     OW25404   2.436  14.513   9.617
74524SOL    HW125405   2.521  14.513   9.661
74524SOL    HW225406   2.446  14.448   9.547
74525SOL     OW25407   8.199   3.555  14.625
74525SOL    HW125408   8.266   3.491  14.601
74525SOL    HW225409   8.201   3.620  14.555
74526SOL     OW25410  10.643  13.661   8.160
74526SOL    HW125411  10.695  13.621   8.230
74526SOL    HW225412  10.708  13.685   8.093
74527SOL     OW25413  13.090   5.787   5.246
74527SOL    HW125414  13.120   5.800   5.336
74527SOL    HW225415  13.013   5.843   5.237
74528SOL     OW25416   5.910   9.324   5.031
74528SOL    HW125417   5.999   9.347   5.005
74528SOL    HW225418   5.915   9.312   5.126
74529SOL     OW25419   8.044  10.323   8.570
74529SOL    HW125420   7.973  10.386   8.579
74529SOL    HW225421   8.085  10.320   8.657
74530SOL     OW25422   4.137   2.012   3.481
74530SOL    HW125423   4.045   1.989   3.491
74530SOL    HW225424   4.147   2.093   3.531
74531SOL     OW25425  10.968   3.715   8.506
74531SOL    HW125426  10.995   3.677   8.423
74531SOL    HW225427  11.022   3.794   8.515
74532SOL     OW25428   5.298  13.709   0.124
74532SOL    HW125429   5.270  13.786   0.074
74532SOL    HW225430   5.359  13.743   0.189
74533SOL     OW25431   9.978   5.561   5.968
74533SOL    HW125432  10.068   5.576   5.940
74533SOL    HW225433   9.926   5.575   5.889
74534SOL     OW25434  14.220   9.575  13.008
74534SOL    HW125435  14.285   9.596  13.075
74534SOL    HW225436  14.245   9.630  12.933
74535SOL     OW25437   9.407   0.170   6.323
74535SOL    HW125438   9.420   0.212   6.407
74535SOL    HW225439   9.333   0.110   6.337
74536SOL     OW25440  10.389   9.806   6.760
74536SOL    HW125441  10.383   9.766   6.673
74536SOL    HW225442  10.315   9.770   6.808
74537SOL     OW25443   5.173  13.530   1.587
74537SOL    HW125444   5.205  13.450   1.545
74537SOL    HW225445   5.207  13.601   1.533
74538SOL     OW25446   4.542   0.128   0.832
74538SOL    HW125447   4.527   0.217   0.865
74538SOL    HW225448   4.471   0.113   0.770
74539SOL     OW25449   7.756   3.749   4.659
74539SOL    HW125450   7.748   3.655   4.672
74539SOL    HW225451   7.847   3.769   4.680
74540SOL     OW25452   6.099   7.777   1.277
74540SOL    HW125453   6.065   7.825   1.201
74540SOL    HW225454   6.190   7.760   1.256
74541SOL     OW25455   4.230  12.671   5.194
74541SOL    HW125456   4.184  12.588   5.203
74541SOL    HW225457   4.183  12.732   5.251
74542SOL     OW25458   3.991  10.072  10.766
74542SOL    HW125459   4.039  10.016  10.827
74542SOL    HW225460   4.059  10.125  10.724
74543SOL     OW25461   8.856   7.180   0.934
74543SOL    HW125462   8.837   7.236   1.009
74543SOL    HW225463   8.950   7.161   0.942
74544SOL     OW25464   2.523   2.670   8.239
74544SOL    HW125465   2.598   2.728   8.233
74544SOL    HW225466   2.542   2.613   8.313
74545SOL     OW25467   5.655   4.649   9.448
74545SOL    HW125468   5.625   4.731   9.408
74545SOL    HW225469   5.623   4.653   9.538
74546SOL     OW25470  13.080  13.003   2.585
74546SOL    HW125471  13.062  12.982   2.493
74546SOL    HW225472  13.144  12.938   2.613
74547SOL     OW25473   6.747   7.091   4.234
74547SOL    HW125474   6.750   6.996   4.220
74547SOL    HW225475   6.668   7.119   4.187
74548SOL     OW25476  13.246   6.047   3.155
74548SOL    HW125477  13.326   5.994   3.167
74548SOL    HW225478  13.190   6.020   3.228
74549SOL     OW25479   5.157   9.797   4.549
74549SOL    HW125480   5.078   9.769   4.596
74549SOL    HW225481   5.226   9.799   4.615
74550SOL     OW25482   6.113   2.925   8.349
74550SOL    HW125483   6.033   2.913   8.297
74550SOL    HW225484   6.100   2.871   8.426
74551SOL     OW25485  10.275   3.891   6.056
74551SOL    HW125486  10.359   3.846   6.054
74551SOL    HW225487  10.273   3.943   5.976
74552SOL     OW25488   7.380   6.749   5.098
74552SOL    HW125489   7.388   6.828   5.044
74552SOL    HW225490   7.313   6.697   5.054
74553SOL     OW25491  13.795   0.997   4.791
74553SOL    HW125492  13.703   0.978   4.808
74553SOL    HW225493  13.818   1.064   4.855
74554SOL     OW25494  13.017   2.461   8.557
74554SOL    HW125495  12.931   2.455   8.516
74554SOL    HW225496  13.060   2.534   8.512
74555SOL     OW25497   8.711   1.672   9.464
74555SOL    HW125498   8.717   1.576   9.462
74555SOL    HW225499   8.646   1.693   9.398
74556SOL     OW25500  12.056   4.588  11.253
74556SOL    HW125501  12.121   4.649  11.219
74556SOL    HW225502  11.985   4.590  11.188
74557SOL     OW25503   4.251  10.168   9.616
74557SOL    HW125504   4.296  10.136   9.694
74557SOL    HW225505   4.162  10.188   9.646
74558SOL     OW25506   0.728   0.070   3.500
74558SOL    HW125507   0.750   0.163   3.497
74558SOL    HW225508   0.699   0.055   3.590
74559SOL     OW25509   9.879   8.567   9.358
74559SOL    HW125510   9.843   8.600   9.276
74559SOL    HW225511   9.874   8.472   9.350
74560SOL     OW25512   5.710   4.837  14.785
74560SOL    HW125513   5.681   4.755  14.745
74560SOL    HW225514   5.692   4.904  14.719
74561SOL     OW25515  13.671  12.008   2.055
74561SOL    HW125516  13.667  11.929   2.000
74561SOL    HW225517  13.646  11.977   2.142
74562SOL     OW25518   5.761  12.487   3.107
74562SOL    HW125519   5.829  12.423   3.086
74562SOL    HW225520   5.770  12.555   3.041
74563SOL     OW25521  14.760   4.277   6.961
74563SOL    HW125522  14.797   4.363   6.939
74563SOL    HW225523  14.669   4.294   6.982
74564SOL     OW25524   0.769   5.166  11.411
74564SOL    HW125525   0.675   5.169  11.390
74564SOL    HW225526   0.811   5.140  11.328
74565SOL     OW25527  12.440  13.497   4.396
74565SOL    HW125528  12.353  13.527   4.423
74565SOL    HW225529  12.492  13.577   4.389
74566SOL     OW25530  11.898  13.894   9.428
74566SOL    HW125531  11.826  13.940   9.384
74566SOL    HW225532  11.869  13.887   9.519
74567SOL     OW25533   8.714   5.764   4.049
74567SOL    HW125534   8.737   5.759   3.957
74567SOL    HW225535   8.654   5.838   4.055
74568SOL     OW25536   7.240  14.829  12.276
74568SOL    HW125537   7.227  14.785  12.192
74568SOL    HW225538   7.239   0.043  12.256
74569SOL     OW25539   1.793   1.157  10.547
74569SOL    HW125540   1.732   1.169  10.620
74569SOL    HW225541   1.841   1.240  10.542
74570SOL     OW25542   0.460   1.315   8.285
74570SOL    HW125543   0.468   1.250   8.214
74570SOL    HW225544   0.508   1.276   8.358
74571SOL     OW25545   7.061   9.809  13.873
74571SOL    HW125546   7.077   9.721  13.907
74571SOL    HW225547   7.083   9.804  13.780
74572SOL     OW25548   6.933  13.505   6.678
74572SOL    HW125549   6.882  13.555   6.742
74572SOL    HW225550   6.868  13.455   6.629
74573SOL     OW25551  12.717   3.341   2.284
74573SOL    HW125552  12.784   3.300   2.228
74573SOL    HW225553  12.661   3.268   2.311
74574SOL     OW25554   6.958   5.716  11.853
74574SOL    HW125555   6.875   5.693  11.810
74574SOL    HW225556   6.984   5.798  11.811
74575SOL     OW25557   6.108  10.805   9.428
74575SOL    HW125558   6.062  10.744   9.370
74575SOL    HW225559   6.170  10.850   9.371
74576SOL     OW25560  13.452   5.044   4.728
74576SOL    HW125561  13.388   5.079   4.666
74576SOL    HW225562  13.426   5.079   4.813
74577SOL     OW25563   6.213   2.701   3.114
74577SOL    HW125564   6.165   2.656   3.184
74577SOL    HW225565   6.218   2.636   3.044
74578SOL     OW25566   0.596  14.372   6.076
74578SOL    HW125567   0.526  14.337   6.022
74578SOL    HW225568   0.602  14.464   6.051
74579SOL     OW25569   8.463   4.530   3.947
74579SOL    HW125570   8.446   4.623   3.932
74579SOL    HW225571   8.382   4.496   3.984
74580SOL     OW25572  11.005   6.706   4.664
74580SOL    HW125573  11.048   6.789   4.646
74580SOL    HW225574  10.948   6.724   4.739
74581SOL     OW25575   3.041   6.925   0.165
74581SOL    HW125576   2.974   6.980   0.206
74581SOL    HW225577   3.047   6.958   0.075
74582SOL     OW25578  11.420  13.587   9.408
74582SOL    HW125579  11.459  13.526   9.346
74582SOL    HW225580  11.329  13.558   9.416
74583SOL     OW25581   6.210  12.648   1.770
74583SOL    HW125582   6.284  12.635   1.710
74583SOL    HW225583   6.250  12.665   1.855
74584SOL     OW25584   6.426  10.429  11.269
74584SOL    HW125585   6.506  10.466  11.232
74584SOL    HW225586   6.418  10.469  11.356
74585SOL     OW25587  10.786  11.859   8.767
74585SOL    HW125588  10.754  11.948   8.771
74585SOL    HW225589  10.797  11.842   8.673
74586SOL     OW25590   9.849   9.424  12.803
74586SOL    HW125591   9.844   9.329  12.792
74586SOL    HW225592   9.928   9.449  12.755
74587SOL     OW25593   3.375  11.940  14.247
74587SOL    HW125594   3.436  11.945  14.320
74587SOL    HW225595   3.291  11.919  14.287
74588SOL     OW25596   7.333  11.452   1.214
74588SOL    HW125597   7.268  11.500   1.266
74588SOL    HW225598   7.359  11.513   1.146
74589SOL     OW25599   2.922   4.510   4.818
74589SOL    HW125600   2.951   4.598   4.841
74589SOL    HW225601   2.962   4.453   4.884
74590SOL     OW25602   1.459  12.761   2.128
74590SOL    HW125603   1.469  12.842   2.079
74590SOL    HW225604   1.460  12.692   2.061
74591SOL     OW25605   3.343   1.821  10.672
74591SOL    HW125606   3.288   1.744  10.661
74591SOL    HW225607   3.421   1.789  10.717
74592SOL     OW25608   5.327   9.838   8.330
74592SOL    HW125609   5.405   9.894   8.327
74592SOL    HW225610   5.351   9.760   8.280
74593SOL     OW25611   8.501   0.854   0.337
74593SOL    HW125612   8.461   0.896   0.412
74593SOL    HW225613   8.492   0.760   0.354
74594SOL     OW25614  11.768   8.655   2.423
74594SOL    HW125615  11.839   8.704   2.381
74594SOL    HW225616  11.809   8.618   2.502
74595SOL     OW25617   5.953  14.638   8.177
74595SOL    HW125618   5.991  14.618   8.263
74595SOL    HW225619   6.023  14.620   8.115
74596SOL     OW25620   0.983   2.159  11.138
74596SOL    HW125621   0.942   2.124  11.059
74596SOL    HW225622   0.922   2.137  11.208
74597SOL     OW25623  13.247  14.631  13.800
74597SOL    HW125624  13.261  14.536  13.792
74597SOL    HW225625  13.160  14.645  13.763
74598SOL     OW25626   8.657   1.692   9.726
74598SOL    HW125627   8.609   1.774   9.723
74598SOL    HW225628   8.682   1.676   9.635
74599SOL     OW25629  11.103  10.996   8.938
74599SOL    HW125630  11.017  11.022   8.905
74599SOL    HW225631  11.138  11.076   8.978
74600SOL     OW25632  10.923   3.643   0.259
74600SOL    HW125633  10.975   3.723   0.264
74600SOL    HW225634  10.839   3.670   0.223
74601SOL     OW25635   8.151  10.569  12.510
74601SOL    HW125636   8.158  10.657  12.549
74601SOL    HW225637   8.215  10.570  12.439
74602SOL     OW25638   0.920   6.554  11.438
74602SOL    HW125639   0.885   6.506  11.513
74602SOL    HW225640   0.973   6.623  11.476
74603SOL     OW25641  13.553   8.358   6.196
74603SOL    HW125642  13.502   8.277   6.187
74603SOL    HW225643  13.520   8.399   6.275
74604SOL     OW25644  14.127   6.551   7.956
74604SOL    HW125645  14.085   6.530   7.872
74604SOL    HW225646  14.129   6.647   7.958
74605SOL     OW25647   0.439  10.856  10.099
74605SOL    HW125648   0.446  10.761  10.096
74605SOL    HW225649   0.522  10.886  10.136
74606SOL     OW25650   3.492  14.048  10.967
74606SOL    HW125651   3.530  13.960  10.968
74606SOL    HW225652   3.464  14.064  11.057
74607SOL     OW25653   5.496   0.295  12.527
74607SOL    HW125654   5.449   0.340  12.597
74607SOL    HW225655   5.530   0.216  12.569
74608SOL     OW25656   5.493  14.167   2.906
74608SOL    HW125657   5.574  14.210   2.933
74608SOL    HW225658   5.443  14.158   2.988
74609SOL     OW25659   1.231  14.857  11.960
74609SOL    HW125660   1.145  14.824  11.932
74609SOL    HW225661   1.291  14.826  11.893
74610SOL     OW25662   8.789   1.342  10.861
74610SOL    HW125663   8.719   1.353  10.797
74610SOL    HW225664   8.777   1.413  10.924
74611SOL     OW25665   6.159   5.529  13.797
74611SOL    HW125666   6.229   5.468  13.821
74611SOL    HW225667   6.172   5.544  13.703
74612SOL     OW25668   6.565   9.643   2.164
74612SOL    HW125669   6.619   9.720   2.183
74612SOL    HW225670   6.542   9.652   2.072
74613SOL     OW25671   3.611  14.226   5.632
74613SOL    HW125672   3.612  14.317   5.663
74613SOL    HW225673   3.700  14.211   5.598
74614SOL     OW25674   3.721   6.121   4.612
74614SOL    HW125675   3.692   6.030   4.621
74614SOL    HW225676   3.803   6.124   4.661
74615SOL     OW25677   0.912   9.193  12.968
74615SOL    HW125678   0.982   9.143  12.925
74615SOL    HW225679   0.878   9.133  13.034
74616SOL     OW25680   0.651  11.889   9.495
74616SOL    HW125681   0.622  11.806   9.532
74616SOL    HW225682   0.571  11.930   9.460
74617SOL     OW25683   5.442  10.210   3.422
74617SOL    HW125684   5.493  10.230   3.501
74617SOL    HW225685   5.418  10.295   3.387
74618SOL     OW25686   9.921   6.287   3.290
74618SOL    HW125687   9.976   6.358   3.258
74618SOL    HW225688   9.848   6.331   3.334
74619SOL     OW25689  11.803   4.891  12.465
74619SOL    HW125690  11.725   4.905  12.411
74619SOL    HW225691  11.819   4.797  12.460
74620SOL     OW25692  13.656  12.607   6.423
74620SOL    HW125693  13.739  12.561   6.409
74620SOL    HW225694  13.662  12.639   6.513
74621SOL     OW25695   2.623  12.924   5.669
74621SOL    HW125696   2.614  12.973   5.750
74621SOL    HW225697   2.673  12.846   5.694
74622SOL     OW25698   0.062   9.957   2.223
74622SOL    HW125699   0.110  10.026   2.177
74622SOL    HW225700  14.850   9.971   2.199
74623SOL     OW25701   8.141   6.409   3.660
74623SOL    HW125702   8.210   6.454   3.613
74623SOL    HW225703   8.136   6.322   3.619
74624SOL     OW25704   6.306   0.873  12.359
74624SOL    HW125705   6.295   0.921  12.440
74624SOL    HW225706   6.273   0.785  12.378
74625SOL     OW25707  12.249  12.826   3.378
74625SOL    HW125708  12.314  12.818   3.309
74625SOL    HW225709  12.299  12.815   3.459
74626SOL     OW25710  11.528   1.299  12.563
74626SOL    HW125711  11.444   1.310  12.609
74626SOL    HW225712  11.577   1.237  12.617
74627SOL     OW25713   2.415  10.769   9.143
74627SOL    HW125714   2.432  10.707   9.072
74627SOL    HW225715   2.407  10.714   9.221
74628SOL     OW25716   4.827  11.372  13.955
74628SOL    HW125717   4.785  11.288  13.942
74628SOL    HW225718   4.839  11.407  13.867
74629SOL     OW25719   1.460  14.220   7.005
74629SOL    HW125720   1.472  14.312   6.982
74629SOL    HW225721   1.480  14.216   7.098
74630SOL     OW25722  12.752   4.991  10.080
74630SOL    HW125723  12.807   4.917  10.105
74630SOL    HW225724  12.812   5.066  10.077
74631SOL     OW25725   2.757   3.486   2.826
74631SOL    HW125726   2.703   3.555   2.788
74631SOL    HW225727   2.830   3.532   2.868
74632SOL     OW25728  11.300   8.586  11.742
74632SOL    HW125729  11.365   8.656  11.746
74632SOL    HW225730  11.223   8.623  11.786
74633SOL     OW25731   6.906  14.481   1.877
74633SOL    HW125732   6.890  14.574   1.892
74633SOL    HW225733   6.869  14.438   1.954
74634SOL     OW25734   1.614   2.184   1.358
74634SOL    HW125735   1.546   2.243   1.391
74634SOL    HW225736   1.660   2.236   1.291
74635SOL     OW25737   0.660  11.456  13.398
74635SOL    HW125738   0.697  11.522  13.457
74635SOL    HW225739   0.731  11.435  13.338
74636SOL     OW25740  11.910   8.400  11.331
74636SOL    HW125741  11.952   8.361  11.255
74636SOL    HW225742  11.940   8.491  11.332
74637SOL     OW25743   0.041   5.036  10.252
74637SOL    HW125744   0.002   4.953  10.280
74637SOL    HW225745   0.053   5.026  10.158
74638SOL     OW25746   6.348   8.574  14.819
74638SOL    HW125747   6.357   8.479  14.830
74638SOL    HW225748   6.300   8.584  14.737
74639SOL     OW25749  14.629  10.628   1.024
74639SOL    HW125750  14.638  10.665   0.936
74639SOL    HW225751  14.552  10.671   1.060
74640SOL     OW25752   0.202  13.668   4.555
74640SOL    HW125753   0.206  13.630   4.643
74640SOL    HW225754   0.124  13.723   4.557
74641SOL     OW25755   8.756   6.295   1.744
74641SOL    HW125756   8.721   6.232   1.807
74641SOL    HW225757   8.828   6.248   1.701
74642SOL     OW25758   2.922   4.422  12.486
74642SOL    HW125759   2.925   4.496  12.426
74642SOL    HW225760   2.832   4.389  12.479
74643SOL     OW25761   8.696  12.922  12.314
74643SOL    HW125762   8.724  13.010  12.288
74643SOL    HW225763   8.601  12.930  12.325
74644SOL     OW25764   4.903  10.505   6.340
74644SOL    HW125765   4.982  10.556   6.357
74644SOL    HW225766   4.921  10.418   6.375
74645SOL     OW25767   0.400  11.619   6.262
74645SOL    HW125768   0.309  11.650   6.262
74645SOL    HW225769   0.416  11.594   6.171
74646SOL     OW25770   3.536  13.223  12.836
74646SOL    HW125771   3.623  13.256  12.815
74646SOL    HW225772   3.545  13.185  12.923
74647SOL     OW25773   2.602   8.522  10.945
74647SOL    HW125774   2.541   8.557  10.880
74647SOL    HW225775   2.586   8.428  10.944
74648SOL     OW25776  12.702  12.065   1.405
74648SOL    HW125777  12.742  12.013   1.336
74648SOL    HW225778  12.745  12.035   1.485
74649SOL     OW25779  11.824   3.313  12.257
74649SOL    HW125780  11.767   3.237  12.273
74649SOL    HW225781  11.770   3.388  12.283
74650SOL     OW25782  14.782   1.724   3.643
74650SOL    HW125783  14.720   1.791   3.613
74650SOL    HW225784  14.859   1.774   3.672
74651SOL     OW25785  14.749   4.081   3.653
74651SOL    HW125786  14.698   4.129   3.587
74651SOL    HW225787  14.840   4.091   3.626
74652SOL     OW25788   3.505   2.607   0.793
74652SOL    HW125789   3.422   2.645   0.762
74652SOL    HW225790   3.571   2.673   0.772
74653SOL     OW25791  14.418   2.136   0.240
74653SOL    HW125792  14.422   2.227   0.211
74653SOL    HW225793  14.376   2.089   0.167
74654SOL     OW25794   6.422   8.426   4.279
74654SOL    HW125795   6.476   8.430   4.358
74654SOL    HW225796   6.395   8.517   4.264
74655SOL     OW25797   7.922  11.233  13.350
74655SOL    HW125798   7.865  11.219  13.275
74655SOL    HW225799   8.010  11.218  13.317
74656SOL     OW25800  10.421   1.224   7.605
74656SOL    HW125801  10.422   1.212   7.700
74656SOL    HW225802  10.414   1.318   7.592
74657SOL     OW25803   0.947   3.654   8.059
74657SOL    HW125804   0.928   3.681   8.148
74657SOL    HW225805   0.984   3.566   8.068
74658SOL     OW25806   4.046   5.189   0.738
74658SOL    HW125807   3.963   5.159   0.701
74658SOL    HW225808   4.021   5.253   0.805
74659SOL     OW25809   5.370   1.422   1.546
74659SOL    HW125810   5.323   1.462   1.618
74659SOL    HW225811   5.303   1.373   1.498
74660SOL     OW25812  14.728   2.006  12.928
74660SOL    HW125813  14.686   2.070  12.985
74660SOL    HW225814  14.804   1.975  12.977
74661SOL     OW25815   2.547   7.902   9.466
74661SOL    HW125816   2.475   7.954   9.431
74661SOL    HW225817   2.510   7.859   9.543
74662SOL     OW25818  12.088   4.104  13.173
74662SOL    HW125819  12.122   4.059  13.250
74662SOL    HW225820  12.062   4.033  13.114
74663SOL     OW25821  12.403   3.366   5.436
74663SOL    HW125822  12.480   3.359   5.380
74663SOL    HW225823  12.330   3.343   5.379
74664SOL     OW25824   4.419  13.146  10.676
74664SOL    HW125825   4.414  13.063  10.724
74664SOL    HW225826   4.383  13.126  10.590
74665SOL     OW25827   9.003   9.809  12.062
74665SOL    HW125828   8.988   9.735  12.004
74665SOL    HW225829   9.093   9.837  12.042
74666SOL     OW25830  10.364  10.341  14.545
74666SOL    HW125831  10.459  10.330  14.552
74666SOL    HW225832  10.352  10.404  14.474
74667SOL     OW25833   6.745   4.790   5.422
74667SOL    HW125834   6.823   4.745   5.388
74667SOL    HW225835   6.685   4.719   5.445
74668SOL     OW25836   6.955   8.516  14.605
74668SOL    HW125837   6.952   8.434  14.555
74668SOL    HW225838   6.865   8.546  14.606
74669SOL     OW25839  13.274   4.180  14.488
74669SOL    HW125840  13.319   4.140  14.563
74669SOL    HW225841  13.340   4.237  14.449
74670SOL     OW25842   0.335  10.751   7.091
74670SOL    HW125843   0.259  10.720   7.139
74670SOL    HW225844   0.397  10.677   7.093
74671SOL     OW25845   0.250   4.678  10.461
74671SOL    HW125846   0.214   4.767  10.459
74671SOL    HW225847   0.327   4.681  10.405
74672SOL     OW25848  10.776  10.193   1.635
74672SOL    HW125849  10.830  10.229   1.564
74672SOL    HW225850  10.718  10.265   1.660
74673SOL     OW25851  10.696  12.746   7.315
74673SOL    HW125852  10.668  12.710   7.400
74673SOL    HW225853  10.774  12.798   7.336
74674SOL     OW25854   1.962   1.427  11.825
74674SOL    HW125855   2.045   1.383  11.845
74674SOL    HW225856   1.911   1.418  11.905
74675SOL     OW25857   1.449  14.653   1.920
74675SOL    HW125858   1.496  14.579   1.882
74675SOL    HW225859   1.364  14.654   1.876
74676SOL     OW25860  13.618  12.135   3.516
74676SOL    HW125861  13.601  12.152   3.608
74676SOL    HW225862  13.590  12.214   3.471
74677SOL     OW25863  11.055   4.967   1.033
74677SOL    HW125864  11.107   5.028   1.085
74677SOL    HW225865  11.096   4.967   0.947
74678SOL     OW25866   5.691  10.318  14.788
74678SOL    HW125867   5.665  10.387  14.727
74678SOL    HW225868   5.635  10.244  14.766
74679SOL     OW25869   5.106  12.323   5.186
74679SOL    HW125870   5.134  12.282   5.105
74679SOL    HW225871   5.150  12.408   5.187
74680SOL     OW25872  11.137   2.232   4.956
74680SOL    HW125873  11.080   2.308   4.965
74680SOL    HW225874  11.226   2.268   4.963
74681SOL     OW25875   6.423   3.855   8.403
74681SOL    HW125876   6.402   3.944   8.432
74681SOL    HW225877   6.515   3.859   8.377
74682SOL     OW25878   9.273  12.891  10.569
74682SOL    HW125879   9.212  12.898  10.495
74682SOL    HW225880   9.359  12.883  10.528
74683SOL     OW25881   5.362  14.523   6.571
74683SOL    HW125882   5.335  14.507   6.480
74683SOL    HW225883   5.452  14.491   6.576
74684SOL     OW25884   3.229  12.169  12.616
74684SOL    HW125885   3.168  12.242  12.611
74684SOL    HW225886   3.298  12.190  12.553
74685SOL     OW25887   2.282  11.677   7.259
74685SOL    HW125888   2.193  11.705   7.238
74685SOL    HW225889   2.302  11.610   7.194
74686SOL     OW25890   2.903   3.632   0.917
74686SOL    HW125891   2.875   3.711   0.870
74686SOL    HW225892   2.822   3.585   0.935
74687SOL     OW25893   8.855   2.689   6.140
74687SOL    HW125894   8.785   2.749   6.166
74687SOL    HW225895   8.819   2.641   6.066
74688SOL     OW25896  12.918   2.836   2.184
74688SOL    HW125897  12.880   2.846   2.271
74688SOL    HW225898  12.865   2.893   2.128
74689SOL     OW25899   3.025   1.035   2.933
74689SOL    HW125900   2.934   1.063   2.921
74689SOL    HW225901   3.034   0.958   2.877
74690SOL     OW25902  10.299   0.031  12.853
74690SOL    HW125903  10.336   0.088  12.786
74690SOL    HW225904  10.306  14.822  12.817
74691SOL     OW25905   5.356   6.722  11.666
74691SOL    HW125906   5.410   6.643  11.668
74691SOL    HW225907   5.419   6.793  11.679
74692SOL     OW25908   8.442  12.302   7.418
74692SOL    HW125909   8.376  12.286   7.351
74692SOL    HW225910   8.523  12.317   7.370
74693SOL     OW25911   9.458   8.378   8.461
74693SOL    HW125912   9.428   8.424   8.540
74693SOL    HW225913   9.423   8.431   8.389
74694SOL     OW25914   7.488   4.114  13.549
74694SOL    HW125915   7.527   4.201  13.559
74694SOL    HW225916   7.403   4.130  13.508
74695SOL     OW25917   8.868   3.691   3.357
74695SOL    HW125918   8.887   3.704   3.450
74695SOL    HW225919   8.910   3.765   3.313
74696SOL     OW25920   6.877   7.218  13.135
74696SOL    HW125921   6.936   7.236  13.062
74696SOL    HW225922   6.874   7.122  13.140
74697SOL     OW25923   4.364   7.966  14.044
74697SOL    HW125924   4.356   8.024  13.969
74697SOL    HW225925   4.441   7.998  14.091
74698SOL     OW25926   1.513   0.192   3.314
74698SOL    HW125927   1.439   0.174   3.255
74698SOL    HW225928   1.479   0.258   3.374
74699SOL     OW25929   8.440   6.188   9.399
74699SOL    HW125930   8.346   6.180   9.386
74699SOL    HW225931   8.466   6.258   9.339
74700SOL     OW25932  13.325   4.092  12.800
74700SOL    HW125933  13.386   4.021  12.777
74700SOL    HW225934  13.372   4.172  12.778
74701SOL     OW25935   1.095  12.750   5.620
74701SOL    HW125936   1.000  12.735   5.620
74701SOL    HW225937   1.130  12.681   5.563
74702SOL     OW25938   1.934   3.387   2.820
74702SOL    HW125939   1.906   3.470   2.859
74702SOL    HW225940   1.853   3.350   2.784
74703SOL     OW25941  11.052   9.990  12.952
74703SOL    HW125942  11.026  10.007  13.043
74703SOL    HW225943  11.145  10.009  12.950
74704SOL     OW25944   0.356   9.332   4.378
74704SOL    HW125945   0.425   9.325   4.312
74704SOL    HW225946   0.392   9.288   4.455
74705SOL     OW25947   5.887  14.131   5.105
74705SOL    HW125948   5.871  14.053   5.158
74705SOL    HW225949   5.801  14.171   5.093
74706SOL     OW25950   9.264   9.824  12.699
74706SOL    HW125951   9.235   9.795  12.612
74706SOL    HW225952   9.350   9.863  12.684
74707SOL     OW25953  14.187   3.928   7.505
74707SOL    HW125954  14.261   3.876   7.533
74707SOL    HW225955  14.114   3.898   7.558
74708SOL     OW25956   5.521   7.335   3.648
74708SOL    HW125957   5.571   7.386   3.584
74708SOL    HW225958   5.576   7.334   3.726
74709SOL     OW25959   6.618   8.675  11.129
74709SOL    HW125960   6.579   8.591  11.107
74709SOL    HW225961   6.594   8.732  11.056
74710SOL     OW25962  13.528  12.895   6.376
74710SOL    HW125963  13.573  12.918   6.295
74710SOL    HW225964  13.552  12.803   6.391
74711SOL     OW25965  12.906   7.301  14.395
74711SOL    HW125966  12.954   7.263  14.468
74711SOL    HW225967  12.909   7.234  14.326
74712SOL     OW25968  10.392   8.112  11.271
74712SOL    HW125969  10.456   8.182  11.286
74712SOL    HW225970  10.445   8.037  11.246
74713SOL     OW25971   0.067   0.413   7.074
74713SOL    HW125972   0.153   0.378   7.098
74713SOL    HW225973   0.005   0.353   7.115
74714SOL     OW25974   0.296   3.159   2.135
74714SOL    HW125975   0.233   3.167   2.064
74714SOL    HW225976   0.370   3.112   2.096
74715SOL     OW25977   1.650   0.165   0.020
74715SOL    HW125978   1.729   0.128  14.858
74715SOL    HW225979   1.659   0.143   0.113
74716SOL     OW25980   5.597   5.338   0.195
74716SOL    HW125981   5.647   5.404   0.243
74716SOL    HW225982   5.658   5.307   0.127
74717SOL     OW25983   9.378   7.318   3.297
74717SOL    HW125984   9.347   7.408   3.285
74717SOL    HW225985   9.299   7.268   3.317
74718SOL     OW25986   7.612   8.878   4.502
74718SOL    HW125987   7.683   8.939   4.523
74718SOL    HW225988   7.604   8.881   4.407
74719SOL     OW25989  12.914  10.981   2.502
74719SOL    HW125990  12.960  10.902   2.529
74719SOL    HW225991  12.975  11.027   2.445
74720SOL     OW25992   6.002   1.932   5.548
74720SOL    HW125993   6.069   1.923   5.480
74720SOL    HW225994   5.925   1.888   5.512
74721SOL     OW25995  10.731   5.706   1.411
74721SOL    HW125996  10.801   5.646   1.387
74721SOL    HW225997  10.743   5.721   1.504
74722SOL     OW25998  12.220   3.654   4.347
74722SOL    HW125999  12.242   3.698   4.265
74722SOL    HW226000  12.126   3.640   4.343
74723SOL     OW26001  12.314  12.815   4.858
74723SOL    HW126002  12.297  12.881   4.926
74723SOL    HW226003  12.398  12.842   4.819
74724SOL     OW26004   3.929   4.485   7.043
74724SOL    HW126005   3.924   4.491   7.139
74724SOL    HW226006   3.855   4.538   7.012
74725SOL     OW26007   6.587   5.325   8.011
74725SOL    HW126008   6.662   5.375   7.977
74725SOL    HW226009   6.511   5.367   7.971
74726SOL     OW26010   5.910   2.073   2.095
74726SOL    HW126011   5.820   2.084   2.126
74726SOL    HW226012   5.922   1.978   2.090
74727SOL     OW26013  14.699  13.278   3.469
74727SOL    HW126014  14.609  13.245   3.467
74727SOL    HW226015  14.753  13.200   3.486
74728SOL     OW26016   5.044  10.774  10.353
74728SOL    HW126017   5.131  10.757  10.317
74728SOL    HW226018   4.992  10.805  10.278
74729SOL     OW26019  14.120  10.562   7.962
74729SOL    HW126020  14.188  10.589   8.023
74729SOL    HW226021  14.100  10.472   7.985
74730SOL     OW26022   7.365   5.314   3.257
74730SOL    HW126023   7.352   5.220   3.271
74730SOL    HW226024   7.453   5.331   3.290
74731SOL     OW26025  12.501   7.273   0.263
74731SOL    HW126026  12.579   7.219   0.258
74731SOL    HW226027  12.513   7.339   0.195
74732SOL     OW26028   1.140   5.083   6.183
74732SOL    HW126029   1.051   5.056   6.158
74732SOL    HW226030   1.195   5.049   6.113
74733SOL     OW26031   9.464   1.536  11.171
74733SOL    HW126032   9.519   1.506  11.099
74733SOL    HW226033   9.381   1.490  11.160
74734SOL     OW26034  13.765   8.639   2.950
74734SOL    HW126035  13.693   8.661   2.890
74734SOL    HW226036  13.844   8.648   2.897
74735SOL     OW26037  12.812   6.514   4.937
74735SOL    HW126038  12.748   6.572   4.895
74735SOL    HW226039  12.892   6.525   4.885
74736SOL     OW26040   4.656   3.561  14.587
74736SOL    HW126041   4.749   3.567  14.569
74736SOL    HW226042   4.630   3.474  14.555
74737SOL     OW26043  11.570   3.026   4.046
74737SOL    HW126044  11.629   3.093   4.011
74737SOL    HW226045  11.589   2.948   3.994
74738SOL     OW26046   7.548   7.579   7.349
74738SOL    HW126047   7.483   7.627   7.298
74738SOL    HW226048   7.534   7.609   7.439
74739SOL     OW26049   5.319  11.185   8.432
74739SOL    HW126050   5.363  11.149   8.508
74739SOL    HW226051   5.239  11.133   8.424
74740SOL     OW26052   3.515  11.431   3.250
74740SOL    HW126053   3.585  11.367   3.264
74740SOL    HW226054   3.511  11.443   3.155
74741SOL     OW26055   7.588  14.089   1.513
74741SOL    HW126056   7.579  14.096   1.608
74741SOL    HW226057   7.499  14.070   1.482
74742SOL     OW26058   1.438  12.127   8.000
74742SOL    HW126059   1.382  12.137   7.923
74742SOL    HW226060   1.518  12.176   7.978
74743SOL     OW26061   0.044   7.279   5.900
74743SOL    HW126062   0.067   7.320   5.816
74743SOL    HW226063  14.869   7.203   5.875
74744SOL     OW26064   5.818   6.055   7.853
74744SOL    HW126065   5.904   6.021   7.878
74744SOL    HW226066   5.828   6.150   7.858
74745SOL     OW26067   4.234   8.622   6.112
74745SOL    HW126068   4.291   8.606   6.187
74745SOL    HW226069   4.292   8.616   6.036
74746SOL     OW26070  11.721   7.483   1.481
74746SOL    HW126071  11.655   7.431   1.528
74746SOL    HW226072  11.796   7.425   1.474
74747SOL     OW26073   0.793   6.261   4.708
74747SOL    HW126074   0.854   6.327   4.740
74747SOL    HW226075   0.819   6.246   4.617
74748SOL     OW26076  10.607   8.834   0.795
74748SOL    HW126077  10.625   8.905   0.733
74748SOL    HW226078  10.586   8.879   0.877
74749SOL     OW26079   0.645   9.506   5.274
74749SOL    HW126080   0.672   9.541   5.189
74749SOL    HW226081   0.552   9.490   5.264
74750SOL     OW26082  14.370  12.475   3.054
74750SOL    HW126083  14.291  12.496   3.004
74750SOL    HW226084  14.339  12.456   3.142
74751SOL     OW26085  14.238   1.872   1.525
74751SOL    HW126086  14.248   1.847   1.434
74751SOL    HW226087  14.327   1.891   1.555
74752SOL     OW26088   5.157   7.833   1.059
74752SOL    HW126089   5.146   7.790   0.974
74752SOL    HW226090   5.235   7.887   1.049
74753SOL     OW26091   6.937   8.536   0.740
74753SOL    HW126092   6.850   8.524   0.778
74753SOL    HW226093   6.953   8.630   0.744
74754SOL     OW26094   0.224   8.314  11.612
74754SOL    HW126095   0.289   8.373  11.650
74754SOL    HW226096   0.144   8.365  11.609
74755SOL     OW26097   8.465  10.837  12.308
74755SOL    HW126098   8.402  10.881  12.365
74755SOL    HW226099   8.419  10.759  12.277
74756SOL     OW26100  13.855  11.185   9.430
74756SOL    HW126101  13.776  11.145   9.395
74756SOL    HW226102  13.846  11.278   9.408
74757SOL     OW26103  12.773   6.300   4.777
74757SOL    HW126104  12.847   6.239   4.777
74757SOL    HW226105  12.781   6.349   4.858
74758SOL     OW26106  12.569  11.030  12.376
74758SOL    HW126107  12.532  11.091  12.440
74758SOL    HW226108  12.560  11.076  12.292
74759SOL     OW26109   8.325   7.031   5.515
74759SOL    HW126110   8.327   6.979   5.434
74759SOL    HW226111   8.405   7.084   5.511
74760SOL     OW26112   2.603   8.159  13.479
74760SOL    HW126113   2.579   8.099  13.549
74760SOL    HW226114   2.539   8.144  13.410
74761SOL     OW26115  13.769   6.397   7.869
74761SOL    HW126116  13.720   6.339   7.810
74761SOL    HW226117  13.712   6.473   7.879
74762SOL     OW26118   1.763   8.639   8.121
74762SOL    HW126119   1.769   8.618   8.215
74762SOL    HW226120   1.842   8.689   8.103
74763SOL     OW26121   1.978   4.081   9.714
74763SOL    HW126122   1.928   4.159   9.740
74763SOL    HW226123   1.916   4.028   9.665
74764SOL     OW26124  10.297   0.346   4.116
74764SOL    HW126125  10.249   0.346   4.199
74764SOL    HW226126  10.347   0.265   4.117
74765SOL     OW26127   7.100   6.257   5.596
74765SOL    HW126128   7.021   6.304   5.569
74765SOL    HW226129   7.172   6.309   5.560
74766SOL     OW26130  10.769   5.364  14.130
74766SOL    HW126131  10.730   5.375  14.043
74766SOL    HW226132  10.812   5.278  14.126
74767SOL     OW26133   2.661  11.528   5.624
74767SOL    HW126134   2.589  11.518   5.561
74767SOL    HW226135   2.706  11.607   5.597
74768SOL     OW26136   7.607   2.126  10.230
74768SOL    HW126137   7.645   2.213  10.245
74768SOL    HW226138   7.553   2.138  10.151
74769SOL     OW26139   4.328   4.862   7.561
74769SOL    HW126140   4.366   4.879   7.475
74769SOL    HW226141   4.331   4.767   7.570
74770SOL     OW26142  13.325   8.620   0.848
74770SOL    HW126143  13.237   8.655   0.862
74770SOL    HW226144  13.316   8.561   0.773
74771SOL     OW26145   1.990   8.409   3.213
74771SOL    HW126146   2.020   8.414   3.122
74771SOL    HW226147   2.036   8.333   3.249
74772SOL     OW26148   3.219  13.427   0.029
74772SOL    HW126149   3.306  13.402  14.879
74772SOL    HW226150   3.234  13.498   0.091
74773SOL     OW26151   0.250  11.304  11.396
74773SOL    HW126152   0.345  11.315  11.403
74773SOL    HW226153   0.226  11.254  11.475
74774SOL     OW26154  13.111   9.283   5.283
74774SOL    HW126155  13.176   9.271   5.214
74774SOL    HW226156  13.157   9.330   5.353
74775SOL     OW26157   8.794  14.193   4.815
74775SOL    HW126158   8.703  14.181   4.842
74775SOL    HW226159   8.834  14.107   4.826
74776SOL     OW26160   5.557  14.561   8.264
74776SOL    HW126161   5.489  14.493   8.255
74776SOL    HW226162   5.637  14.519   8.233
74777SOL     OW26163  11.809   5.104   9.388
74777SOL    HW126164  11.755   5.179   9.413
74777SOL    HW226165  11.805   5.102   9.292
74778SOL     OW26166  10.532   2.925  12.409
74778SOL    HW126167  10.441   2.936  12.437
74778SOL    HW226168  10.571   3.012  12.416
74779SOL     OW26169   8.576  11.831   6.335
74779SOL    HW126170   8.604  11.851   6.246
74779SOL    HW226171   8.632  11.758   6.362
74780SOL     OW26172   0.333   1.698   0.611
74780SOL    HW126173   0.288   1.636   0.668
74780SOL    HW226174   0.266   1.765   0.592
74781SOL     OW26175   8.654  14.300   0.187
74781SOL    HW126176   8.595  14.270   0.118
74781SOL    HW226177   8.685  14.385   0.156
74782SOL     OW26178  12.915   0.485   7.750
74782SOL    HW126179  12.951   0.524   7.671
74782SOL    HW226180  12.866   0.409   7.719
74783SOL     OW26181   1.276  13.639   9.974
74783SOL    HW126182   1.244  13.714   9.923
74783SOL    HW226183   1.260  13.564   9.918
74784SOL     OW26184   3.850   6.573   4.113
74784SOL    HW126185   3.844   6.478   4.126
74784SOL    HW226186   3.760   6.604   4.118
74785SOL     OW26187   8.894   9.942  11.703
74785SOL    HW126188   8.985   9.927  11.727
74785SOL    HW226189   8.894  10.029  11.663
74786SOL     OW26190   4.865   5.424   2.378
74786SOL    HW126191   4.833   5.470   2.300
74786SOL    HW226192   4.959   5.413   2.362
74787SOL     OW26193  12.537   8.646   8.611
74787SOL    HW126194  12.458   8.679   8.570
74787SOL    HW226195  12.572   8.582   8.549
74788SOL     OW26196  14.783  11.902   0.553
74788SOL    HW126197  14.844  11.877   0.622
74788SOL    HW226198  14.720  11.829   0.550
74789SOL     OW26199   2.649   5.750   8.355
74789SOL    HW126200   2.562   5.723   8.385
74789SOL    HW226201   2.647   5.739   8.260
74790SOL     OW26202   2.668  13.681   0.116
74790SOL    HW126203   2.618  13.763   0.106
74790SOL    HW226204   2.630  13.639   0.193
74791SOL     OW26205   4.090   5.361  12.793
74791SOL    HW126206   4.073   5.446  12.754
74791SOL    HW226207   4.161   5.324  12.741
74792SOL     OW26208  12.315   3.927   3.070
74792SOL    HW126209  12.229   3.909   3.108
74792SOL    HW226210  12.366   3.963   3.142
74793SOL     OW26211   7.165   5.749   6.480
74793SOL    HW126212   7.144   5.820   6.418
74793SOL    HW226213   7.186   5.794   6.562
74794SOL     OW26214   9.325  13.910   0.119
74794SOL    HW126215   9.300  13.826   0.081
74794SOL    HW226216   9.258  13.927   0.186
74795SOL     OW26217   2.934  10.944   5.817
74795SOL    HW126218   2.976  10.972   5.736
74795SOL    HW226219   2.982  10.865   5.842
74796SOL     OW26220   7.908   5.945   3.095
74796SOL    HW126221   8.002   5.958   3.086
74796SOL    HW226222   7.888   5.974   3.185
74797SOL     OW26223  13.527   2.530   0.408
74797SOL    HW126224  13.557   2.449   0.367
74797SOL    HW226225  13.584   2.541   0.484
74798SOL     OW26226   6.836  10.242  13.234
74798SOL    HW126227   6.902  10.179  13.205
74798SOL    HW226228   6.819  10.296  13.157
74799SOL     OW26229   1.947   0.931   9.384
74799SOL    HW126230   1.900   0.901   9.462
74799SOL    HW226231   1.933   1.025   9.382
74800SOL     OW26232   5.078   5.771   8.780
74800SOL    HW126233   4.983   5.763   8.766
74800SOL    HW226234   5.090   5.861   8.809
74801SOL     OW26235   7.688  12.809   2.649
74801SOL    HW126236   7.723  12.830   2.562
74801SOL    HW226237   7.766  12.805   2.705
74802SOL     OW26238   0.093   4.857   9.166
74802SOL    HW126239   0.019   4.873   9.225
74802SOL    HW226240   0.065   4.785   9.110
74803SOL     OW26241  14.668   8.343  11.128
74803SOL    HW126242  14.590   8.328  11.181
74803SOL    HW226243  14.668   8.270  11.066
74804SOL     OW26244  10.795   4.885   8.871
74804SOL    HW126245  10.732   4.898   8.800
74804SOL    HW226246  10.810   4.973   8.906
74805SOL     OW26247   0.088  10.957  13.057
74805SOL    HW126248   0.098  10.979  13.150
74805SOL    HW226249   0.166  10.906  13.036
74806SOL     OW26250  10.470   6.344  12.331
74806SOL    HW126251  10.565   6.339  12.337
74806SOL    HW226252  10.442   6.374  12.418
74807SOL     OW26253  10.737   2.448   9.114
74807SOL    HW126254  10.731   2.360   9.150
74807SOL    HW226255  10.704   2.506   9.183
74808SOL     OW26256   3.817  10.913   0.691
74808SOL    HW126257   3.724  10.935   0.690
74808SOL    HW226258   3.846  10.934   0.780
74809SOL     OW26259   1.367   4.755  10.864
74809SOL    HW126260   1.435   4.782  10.925
74809SOL    HW226261   1.327   4.678  10.905
74810SOL     OW26262   9.882   7.918   1.234
74810SOL    HW126263   9.801   7.875   1.261
74810SOL    HW226264   9.895   7.890   1.143
74811SOL     OW26265  13.118   5.620   4.123
74811SOL    HW126266  13.116   5.603   4.029
74811SOL    HW226267  13.210   5.639   4.143
74812SOL     OW26268   9.362  13.216   6.083
74812SOL    HW126269   9.365  13.267   6.164
74812SOL    HW226270   9.447  13.173   6.078
74813SOL     OW26271  11.383   1.036  10.413
74813SOL    HW126272  11.314   1.102  10.423
74813SOL    HW226273  11.462   1.085  10.392
74814SOL     OW26274   3.264   1.977  12.935
74814SOL    HW126275   3.264   1.881  12.931
74814SOL    HW226276   3.240   2.004  12.847
74815SOL     OW26277   7.104  12.795   0.737
74815SOL    HW126278   7.132  12.836   0.819
74815SOL    HW226279   7.165  12.721   0.726
74816SOL     OW26280   9.779  14.434   0.215
74816SOL    HW126281   9.692  14.405   0.242
74816SOL    HW226282   9.816  14.360   0.167
74817SOL     OW26283   5.724  12.405  11.150
74817SOL    HW126284   5.743  12.334  11.211
74817SOL    HW226285   5.808  12.450  11.138
74818SOL     OW26286   4.853  11.202  10.540
74818SOL    HW126287   4.878  11.230  10.628
74818SOL    HW226288   4.878  11.274  10.483
74819SOL     OW26289  10.366   5.855   7.915
74819SOL    HW126290  10.340   5.837   7.825
74819SOL    HW226291  10.302   5.918   7.947
74820SOL     OW26292   7.939   6.550   4.059
74820SOL    HW126293   7.865   6.522   4.113
74820SOL    HW226294   8.001   6.587   4.122
74821SOL     OW26295   8.810   7.378   3.124
74821SOL    HW126296   8.831   7.347   3.212
74821SOL    HW226297   8.736   7.438   3.138
74822SOL     OW26298  12.477   7.330   5.678
74822SOL    HW126299  12.557   7.281   5.654
74822SOL    HW226300  12.503   7.422   5.672
74823SOL     OW26301   7.467   4.690   4.030
74823SOL    HW126302   7.541   4.717   3.976
74823SOL    HW226303   7.501   4.694   4.120
74824SOL     OW26304   6.517   3.314   9.904
74824SOL    HW126305   6.435   3.355   9.877
74824SOL    HW226306   6.498   3.220   9.906
74825SOL     OW26307   2.072  12.962  10.720
74825SOL    HW126308   2.105  12.872  10.724
74825SOL    HW226309   1.996  12.962  10.778
74826SOL     OW26310  11.216   9.177  10.318
74826SOL    HW126311  11.250   9.131  10.242
74826SOL    HW226312  11.144   9.231  10.284
74827SOL     OW26313   2.170   0.825  14.125
74827SOL    HW126314   2.188   0.919  14.138
74827SOL    HW226315   2.212   0.782  14.200
74828SOL     OW26316   3.121   2.705  10.633
74828SOL    HW126317   3.143   2.755  10.554
74828SOL    HW226318   3.191   2.640  10.640
74829SOL     OW26319   0.651   3.096   6.963
74829SOL    HW126320   0.730   3.148   6.947
74829SOL    HW226321   0.579   3.154   6.937
74830SOL     OW26322   5.820   3.454   8.585
74830SOL    HW126323   5.809   3.395   8.659
74830SOL    HW226324   5.914   3.449   8.565
74831SOL     OW26325   9.270  12.239   6.892
74831SOL    HW126326   9.292  12.162   6.944
74831SOL    HW226327   9.197  12.280   6.938
74832SOL     OW26328  12.117   9.008   0.662
74832SOL    HW126329  12.034   8.983   0.623
74832SOL    HW226330  12.181   8.950   0.623
74833SOL     OW26331   0.792   4.152  11.622
74833SOL    HW126332   0.845   4.108  11.554
74833SOL    HW226333   0.854   4.207  11.669
74834SOL     OW26334   4.515   6.908  12.149
74834SOL    HW126335   4.425   6.900  12.117
74834SOL    HW226336   4.554   6.822  12.131
74835SOL     OW26337  10.274   9.101   6.011
74835SOL    HW126338  10.188   9.112   5.970
74835SOL    HW226339  10.295   9.187   6.047
74836SOL     OW26340   9.486  14.044   3.576
74836SOL    HW126341   9.558  13.982   3.591
74836SOL    HW226342   9.495  14.069   3.484
74837SOL     OW26343   7.868   1.495   7.457
74837SOL    HW126344   7.837   1.433   7.523
74837SOL    HW226345   7.963   1.492   7.464
74838SOL     OW26346   3.684   7.042   3.553
74838SOL    HW126347   3.651   7.021   3.466
74838SOL    HW226348   3.689   7.138   3.554
74839SOL     OW26349   6.357   8.637   3.911
74839SOL    HW126350   6.350   8.647   3.816
74839SOL    HW226351   6.268   8.647   3.944
74840SOL     OW26352  10.968   3.687   0.567
74840SOL    HW126353  10.973   3.643   0.652
74840SOL    HW226354  10.994   3.621   0.504
74841SOL     OW26355  13.413   2.170   1.485
74841SOL    HW126356  13.333   2.215   1.458
74841SOL    HW226357  13.392   2.077   1.478
74842SOL     OW26358   1.373  12.890  13.549
74842SOL    HW126359   1.464  12.916  13.562
74842SOL    HW226360   1.373  12.795  13.563
74843SOL     OW26361   2.785   9.429   1.214
74843SOL    HW126362   2.690   9.439   1.217
74843SOL    HW226363   2.799   9.334   1.215
74844SOL     OW26364   2.416   0.354   9.026
74844SOL    HW126365   2.469   0.290   8.978
74844SOL    HW226366   2.373   0.405   8.958
74845SOL     OW26367   1.619   5.987   2.492
74845SOL    HW126368   1.616   6.024   2.580
74845SOL    HW226369   1.649   6.059   2.437
74846SOL     OW26370   0.648  14.076   9.192
74846SOL    HW126371   0.721  14.123   9.151
74846SOL    HW226372   0.619  14.013   9.126
74847SOL     OW26373   4.460   1.579   2.449
74847SOL    HW126374   4.508   1.552   2.371
74847SOL    HW226375   4.473   1.674   2.453
74848SOL     OW26376  11.010   5.701   5.718
74848SOL    HW126377  10.925   5.667   5.688
74848SOL    HW226378  11.032   5.769   5.654
74849SOL     OW26379   8.805   5.436   7.765
74849SOL    HW126380   8.874   5.472   7.709
74849SOL    HW226381   8.845   5.430   7.852
74850SOL     OW26382   7.734  11.478  11.116
74850SOL    HW126383   7.773  11.564  11.104
74850SOL    HW226384   7.808  11.421  11.138
74851SOL     OW26385   2.030   5.414   4.862
74851SOL    HW126386   2.025   5.372   4.776
74851SOL    HW226387   2.005   5.505   4.846
74852SOL     OW26388  14.530   3.238   5.232
74852SOL    HW126389  14.525   3.146   5.257
74852SOL    HW226390  14.562   3.237   5.142
74853SOL     OW26391  13.343   9.430  14.605
74853SOL    HW126392  13.320   9.434  14.697
74853SOL    HW226393  13.298   9.352  14.572
74854SOL     OW26394   1.490   0.759   9.708
74854SOL    HW126395   1.566   0.748   9.765
74854SOL    HW226396   1.427   0.695   9.739
74855SOL     OW26397   6.007  10.363   2.681
74855SOL    HW126398   6.053  10.346   2.763
74855SOL    HW226399   6.077  10.378   2.618
74856SOL     OW26400   7.514  14.122   5.388
74856SOL    HW126401   7.560  14.156   5.465
74856SOL    HW226402   7.472  14.199   5.349
74857SOL     OW26403   0.664   8.005   7.387
74857SOL    HW126404   0.600   8.014   7.316
74857SOL    HW226405   0.747   7.986   7.344
74858SOL     OW26406   8.308   2.667  11.616
74858SOL    HW126407   8.331   2.598  11.678
74858SOL    HW226408   8.287   2.621  11.534
74859SOL     OW26409  11.438   6.310  11.994
74859SOL    HW126410  11.428   6.378  12.060
74859SOL    HW226411  11.489   6.351  11.925
74860SOL     OW26412   7.636   8.499   6.838
74860SOL    HW126413   7.563   8.450   6.876
74860SOL    HW226414   7.595   8.574   6.795
74861SOL     OW26415  14.336  12.273   4.421
74861SOL    HW126416  14.337  12.257   4.515
74861SOL    HW226417  14.397  12.346   4.408
74862SOL     OW26418  10.348   1.734   7.428
74862SOL    HW126419  10.398   1.814   7.447
74862SOL    HW226420  10.388   1.699   7.348
74863SOL     OW26421   7.973  12.860   3.285
74863SOL    HW126422   7.887  12.903   3.285
74863SOL    HW226423   8.021  12.900   3.357
74864SOL     OW26424   4.122  10.448   1.827
74864SOL    HW126425   4.198  10.420   1.878
74864SOL    HW226426   4.053  10.461   1.892
74865SOL     OW26427  12.852   3.534  12.094
74865SOL    HW126428  12.857   3.479  12.016
74865SOL    HW226429  12.774   3.588  12.081
74866SOL     OW26430   1.728  12.023  10.440
74866SOL    HW126431   1.766  11.936  10.454
74866SOL    HW226432   1.645  12.006  10.396
74867SOL     OW26433  11.603   1.794  13.709
74867SOL    HW126434  11.618   1.717  13.656
74867SOL    HW226435  11.615   1.868  13.649
74868SOL     OW26436   9.639   4.877   7.856
74868SOL    HW126437   9.589   4.843   7.930
74868SOL    HW226438   9.642   4.805   7.793
74869SOL     OW26439   8.534   6.227  13.562
74869SOL    HW126440   8.484   6.194  13.488
74869SOL    HW226441   8.574   6.308  13.529
74870SOL     OW26442   7.726   3.076   4.093
74870SOL    HW126443   7.687   2.990   4.108
74870SOL    HW226444   7.689   3.132   4.161
74871SOL     OW26445   2.794   2.554   1.053
74871SOL    HW126446   2.728   2.487   1.074
74871SOL    HW226447   2.837   2.572   1.136
74872SOL     OW26448   9.108   5.688   8.072
74872SOL    HW126449   9.131   5.779   8.090
74872SOL    HW226450   9.149   5.638   8.143
74873SOL     OW26451   1.847   8.806   9.900
74873SOL    HW126452   1.941   8.791   9.896
74873SOL    HW226453   1.811   8.728   9.942
74874SOL     OW26454  10.702   2.085   0.599
74874SOL    HW126455  10.634   2.023   0.627
74874SOL    HW226456  10.671   2.118   0.515
74875SOL     OW26457   4.280   0.997   6.273
74875SOL    HW126458   4.302   0.943   6.198
74875SOL    HW226459   4.362   1.040   6.297
74876SOL     OW26460   2.518   6.370  13.716
74876SOL    HW126461   2.488   6.430  13.648
74876SOL    HW226462   2.497   6.414  13.798
74877SOL     OW26463  13.929   0.649  10.561
74877SOL    HW126464  13.852   0.626  10.508
74877SOL    HW226465  13.929   0.744  10.562
74878SOL     OW26466  14.794   2.562  12.806
74878SOL    HW126467  14.835   2.478  12.786
74878SOL    HW226468  14.782   2.561  12.901
74879SOL     OW26469  11.211   0.044   7.187
74879SOL    HW126470  11.169   0.009   7.265
74879SOL    HW226471  11.140   0.080   7.135
74880SOL     OW26472   5.846  11.529   8.826
74880SOL    HW126473   5.752  11.534   8.841
74880SOL    HW226474   5.874  11.450   8.872
74881SOL     OW26475   6.044   0.561   6.221
74881SOL    HW126476   6.076   0.529   6.305
74881SOL    HW226477   5.951   0.540   6.220
74882SOL     OW26478  13.841   3.100   3.590
74882SOL    HW126479  13.879   3.038   3.527
74882SOL    HW226480  13.755   3.063   3.611
74883SOL     OW26481   3.523   3.645  12.726
74883SOL    HW126482   3.520   3.694  12.644
74883SOL    HW226483   3.612   3.658  12.759
74884SOL     OW26484  10.548   2.184   6.375
74884SOL    HW126485  10.570   2.248   6.442
74884SOL    HW226486  10.611   2.199   6.305
74885SOL     OW26487  11.751   9.267   8.242
74885SOL    HW126488  11.679   9.288   8.181
74885SOL    HW226489  11.829   9.300   8.198
74886SOL     OW26490   7.322   5.388   5.096
74886SOL    HW126491   7.240   5.412   5.054
74886SOL    HW226492   7.311   5.414   5.187
74887SOL     OW26493   0.399   9.713   5.592
74887SOL    HW126494   0.384   9.625   5.626
74887SOL    HW226495   0.313   9.755   5.594
74888SOL     OW26496   6.163  10.018   1.087
74888SOL    HW126497   6.137   9.942   1.140
74888SOL    HW226498   6.084  10.073   1.083
74889SOL     OW26499  13.150   1.310   9.546
74889SOL    HW126500  13.144   1.220   9.516
74889SOL    HW226501  13.063   1.347   9.530
74890SOL     OW26502   0.827   3.126  13.510
74890SOL    HW126503   0.908   3.175  13.519
74890SOL    HW226504   0.785   3.133  13.595
74891SOL     OW26505   7.411   7.765   1.620
74891SOL    HW126506   7.458   7.691   1.581
74891SOL    HW226507   7.444   7.769   1.710
74892SOL     OW26508   1.275   5.194   7.727
74892SOL    HW126509   1.311   5.200   7.639
74892SOL    HW226510   1.189   5.155   7.716
74893SOL     OW26511   1.242   3.234   0.497
74893SOL    HW126512   1.228   3.149   0.538
74893SOL    HW226513   1.318   3.271   0.541
74894SOL     OW26514   8.213  13.634   4.307
74894SOL    HW126515   8.263  13.601   4.232
74894SOL    HW226516   8.233  13.728   4.308
74895SOL     OW26517   4.164   9.335   7.813
74895SOL    HW126518   4.167   9.429   7.796
74895SOL    HW226519   4.254   9.306   7.800
74896SOL     OW26520   3.564   4.947   8.561
74896SOL    HW126521   3.496   4.949   8.629
74896SOL    HW226522   3.633   4.893   8.598
74897SOL     OW26523   0.248   5.532   2.067
74897SOL    HW126524   0.335   5.533   2.026
74897SOL    HW226525   0.240   5.618   2.107
74898SOL     OW26526  13.045   2.137   6.590
74898SOL    HW126527  12.983   2.131   6.662
74898SOL    HW226528  13.080   2.226   6.596
74899SOL     OW26529  11.157   1.442  14.852
74899SOL    HW126530  11.178   1.421   0.064
74899SOL    HW226531  11.242   1.450  14.809
74900SOL     OW26532   2.989  12.869  11.276
74900SOL    HW126533   2.943  12.945  11.311
74900SOL    HW226534   2.924  12.824  11.222
74901SOL     OW26535  12.583   2.841  14.551
74901SOL    HW126536  12.591   2.813  14.642
74901SOL    HW226537  12.671   2.832  14.515
74902SOL     OW26538   1.041  11.579  11.745
74902SOL    HW126539   1.010  11.618  11.664
74902SOL    HW226540   0.999  11.494  11.749
74903SOL     OW26541   3.534   1.861   3.478
74903SOL    HW126542   3.457   1.895   3.433
74903SOL    HW226543   3.552   1.778   3.434
74904SOL     OW26544   8.089   2.525   0.827
74904SOL    HW126545   8.164   2.467   0.819
74904SOL    HW226546   8.096   2.562   0.914
74905SOL     OW26547   4.811   8.195   2.620
74905SOL    HW126548   4.752   8.137   2.667
74905SOL    HW226549   4.757   8.271   2.596
74906SOL     OW26550   0.017  12.151  14.832
74906SOL    HW126551   0.085  12.094  14.867
74906SOL    HW226552  14.867  12.203   0.028
74907SOL     OW26553   6.630   6.042   8.713
74907SOL    HW126554   6.631   6.021   8.620
74907SOL    HW226555   6.720   6.032   8.742
74908SOL     OW26556   9.164   8.622  14.812
74908SOL    HW126557   9.257   8.598  14.818
74908SOL    HW226558   9.155   8.699  14.868
74909SOL     OW26559   0.300  12.891   4.940
74909SOL    HW126560   0.385  12.880   4.982
74909SOL    HW226561   0.238  12.895   5.013
74910SOL     OW26562   5.494   2.664   3.019
74910SOL    HW126563   5.498   2.704   2.932
74910SOL    HW226564   5.586   2.656   3.045
74911SOL     OW26565   0.373  14.606   9.073
74911SOL    HW126566   0.426  14.567   9.004
74911SOL    HW226567   0.320  14.672   9.028
74912SOL     OW26568   3.264  12.032   6.775
74912SOL    HW126569   3.189  11.991   6.819
74912SOL    HW226570   3.228  12.063   6.692
74913SOL     OW26571  14.410   9.999   2.049
74913SOL    HW126572  14.342   9.968   1.989
74913SOL    HW226573  14.466  10.055   1.995
74914SOL     OW26574   6.708   7.891   2.785
74914SOL    HW126575   6.627   7.896   2.734
74914SOL    HW226576   6.778   7.899   2.720
74915SOL     OW26577   9.054  12.690  10.976
74915SOL    HW126578   9.094  12.762  10.927
74915SOL    HW226579   9.125  12.656  11.031
74916SOL     OW26580  14.014   2.286   8.217
74916SOL    HW126581  13.928   2.310   8.252
74916SOL    HW226582  14.018   2.328   8.131
74917SOL     OW26583   5.499   6.050  14.011
74917SOL    HW126584   5.423   6.102  13.985
74917SOL    HW226585   5.518   5.996  13.933
74918SOL     OW26586   2.490   3.656   4.093
74918SOL    HW126587   2.578   3.691   4.076
74918SOL    HW226588   2.474   3.596   4.020
74919SOL     OW26589   8.219   3.350   7.044
74919SOL    HW126590   8.179   3.399   7.116
74919SOL    HW226591   8.265   3.278   7.086
74920SOL     OW26592   6.206   0.046   9.757
74920SOL    HW126593   6.263   0.033   9.682
74920SOL    HW226594   6.147  14.851   9.756
74921SOL     OW26595   1.477   8.073  14.230
74921SOL    HW126596   1.570   8.098  14.229
74921SOL    HW226597   1.475   7.991  14.280
74922SOL     OW26598   7.721   7.371  13.523
74922SOL    HW126599   7.676   7.313  13.461
74922SOL    HW226600   7.650   7.420  13.565
74923SOL     OW26601   0.321   4.406   3.565
74923SOL    HW126602   0.416   4.405   3.575
74923SOL    HW226603   0.295   4.497   3.583
74924SOL     OW26604   5.515  12.387   0.221
74924SOL    HW126605   5.547  12.322   0.158
74924SOL    HW226606   5.454  12.441   0.171
74925SOL     OW26607   4.875   0.677   9.278
74925SOL    HW126608   4.820   0.756   9.277
74925SOL    HW226609   4.942   0.695   9.343
74926SOL     OW26610  10.350  14.563   8.438
74926SOL    HW126611  10.442  14.539   8.431
74926SOL    HW226612  10.302  14.481   8.426
74927SOL     OW26613   1.350   1.300  10.209
74927SOL    HW126614   1.366   1.353  10.131
74927SOL    HW226615   1.284   1.348  10.258
74928SOL     OW26616  13.056   1.198   8.032
74928SOL    HW126617  13.005   1.189   8.113
74928SOL    HW226618  12.992   1.187   7.962
74929SOL     OW26619   9.638   1.086   1.508
74929SOL    HW126620   9.733   1.084   1.497
74929SOL    HW226621   9.624   1.149   1.579
74930SOL     OW26622   7.186   8.024   3.494
74930SOL    HW126623   7.156   8.113   3.473
74930SOL    HW226624   7.146   7.969   3.426
74931SOL     OW26625   6.741  12.197  11.244
74931SOL    HW126626   6.776  12.233  11.163
74931SOL    HW226627   6.818  12.182  11.299
74932SOL     OW26628   7.488  10.317   8.811
74932SOL    HW126629   7.513  10.368   8.734
74932SOL    HW226630   7.467  10.382   8.877
74933SOL     OW26631   3.783  10.883   9.504
74933SOL    HW126632   3.690  10.904   9.507
74933SOL    HW226633   3.804  10.884   9.410
74934SOL     OW26634  14.401   2.890  12.760
74934SOL    HW126635  14.465   2.928  12.820
74934SOL    HW226636  14.450   2.874  12.679
74935SOL     OW26637  12.648   5.403   6.989
74935SOL    HW126638  12.721   5.381   6.931
74935SOL    HW226639  12.607   5.318   7.008
74936SOL     OW26640   6.075  13.802  11.146
74936SOL    HW126641   6.112  13.718  11.118
74936SOL    HW226642   6.142  13.839  11.204
74937SOL     OW26643   1.944   2.450  11.394
74937SOL    HW126644   2.005   2.442  11.321
74937SOL    HW226645   1.899   2.533  11.378
74938SOL     OW26646   8.799   6.905   0.958
74938SOL    HW126647   8.710   6.871   0.971
74938SOL    HW226648   8.788   6.998   0.941
74939SOL     OW26649   5.469   1.466  13.146
74939SOL    HW126650   5.554   1.509  13.139
74939SOL    HW226651   5.443   1.479  13.237
74940SOL     OW26652   4.458  12.008   0.983
74940SOL    HW126653   4.435  12.084   1.037
74940SOL    HW226654   4.504  12.044   0.908
74941SOL     OW26655  13.074   4.497   2.709
74941SOL    HW126656  13.051   4.588   2.690
74941SOL    HW226657  13.103   4.498   2.800
74942SOL     OW26658   2.913  11.779  11.797
74942SOL    HW126659   2.997  11.821  11.784
74942SOL    HW226660   2.930  11.686  11.782
74943SOL     OW26661   2.764  10.388  13.708
74943SOL    HW126662   2.701  10.390  13.636
74943SOL    HW226663   2.711  10.375  13.787
74944SOL     OW26664  14.509   7.035   6.493
74944SOL    HW126665  14.560   7.036   6.573
74944SOL    HW226666  14.468   6.949   6.491
74945SOL     OW26667  11.806   2.246  13.398
74945SOL    HW126668  11.773   2.162  13.367
74945SOL    HW226669  11.881   2.265  13.341
74946SOL     OW26670   9.558  12.282   3.794
74946SOL    HW126671   9.532  12.209   3.850
74946SOL    HW226672   9.593  12.348   3.854
74947SOL     OW26673  13.957   6.245  12.552
74947SOL    HW126674  13.981   6.286  12.469
74947SOL    HW226675  13.964   6.151  12.535
74948SOL     OW26676   8.602   1.350   8.321
74948SOL    HW126677   8.674   1.395   8.277
74948SOL    HW226678   8.612   1.258   8.295
74949SOL     OW26679  12.799   0.672   0.713
74949SOL    HW126680  12.855   0.655   0.637
74949SOL    HW226681  12.846   0.740   0.762
74950SOL     OW26682   3.455  12.186  12.463
74950SOL    HW126683   3.531  12.160  12.412
74950SOL    HW226684   3.427  12.270  12.426
74951SOL     OW26685   6.808  13.014   3.733
74951SOL    HW126686   6.867  12.950   3.772
74951SOL    HW226687   6.824  13.094   3.783
74952SOL     OW26688   1.064   6.350   7.630
74952SOL    HW126689   1.104   6.433   7.607
74952SOL    HW226690   1.019   6.367   7.713
74953SOL     OW26691   1.019   0.822   5.672
74953SOL    HW126692   0.977   0.904   5.646
74953SOL    HW226693   1.040   0.778   5.590
74954SOL     OW26694   4.983  11.306  10.756
74954SOL    HW126695   4.980  11.296  10.851
74954SOL    HW226696   5.001  11.399  10.743
74955SOL     OW26697  12.481  10.831   3.743
74955SOL    HW126698  12.401  10.833   3.691
74955SOL    HW226699  12.530  10.909   3.715
74956SOL     OW26700   3.581   8.125  10.092
74956SOL    HW126701   3.636   8.166  10.025
74956SOL    HW226702   3.568   8.194  10.157
74957SOL     OW26703   8.962   6.099   6.875
74957SOL    HW126704   8.943   6.048   6.954
74957SOL    HW226705   8.900   6.069   6.810
74958SOL     OW26706   8.538   6.280  13.200
74958SOL    HW126707   8.477   6.303  13.129
74958SOL    HW226708   8.525   6.347  13.266
74959SOL     OW26709   4.059   3.123   8.158
74959SOL    HW126710   4.152   3.102   8.150
74959SOL    HW226711   4.039   3.177   8.081
74960SOL     OW26712   8.272   5.378  12.002
74960SOL    HW126713   8.244   5.451  12.057
74960SOL    HW226714   8.330   5.418  11.937
74961SOL     OW26715   4.813  14.344  12.032
74961SOL    HW126716   4.844  14.256  12.010
74961SOL    HW226717   4.718  14.335  12.037
74962SOL     OW26718   6.505   6.848  14.287
74962SOL    HW126719   6.470   6.782  14.348
74962SOL    HW226720   6.451   6.839  14.209
74963SOL     OW26721  14.878   0.635  11.258
74963SOL    HW126722  14.816   0.707  11.275
74963SOL    HW226723   0.084   0.670  11.284
74964SOL     OW26724   9.365   4.481  12.606
74964SOL    HW126725   9.370   4.464  12.700
74964SOL    HW226726   9.298   4.549  12.597
74965SOL     OW26727   2.892   7.673  12.796
74965SOL    HW126728   2.846   7.592  12.775
74965SOL    HW226729   2.901   7.718  12.712
74966SOL     OW26730  13.972   2.867   6.292
74966SOL    HW126731  13.941   2.838   6.206
74966SOL    HW226732  13.918   2.817   6.354
74967SOL     OW26733   1.659  12.564   4.134
74967SOL    HW126734   1.698  12.553   4.047
74967SOL    HW226735   1.660  12.477   4.173
74968SOL     OW26736   8.825   2.455   1.599
74968SOL    HW126737   8.798   2.407   1.677
74968SOL    HW226738   8.755   2.440   1.536
74969SOL     OW26739   7.045   1.725   5.948
74969SOL    HW126740   7.044   1.816   5.979
74969SOL    HW226741   7.064   1.733   5.854
74970SOL     OW26742   5.529  12.467   4.998
74970SOL    HW126743   5.590  12.497   4.930
74970SOL    HW226744   5.497  12.383   4.966
74971SOL     OW26745  11.389  11.060  11.386
74971SOL    HW126746  11.357  11.096  11.303
74971SOL    HW226747  11.480  11.035  11.367
74972SOL     OW26748  10.377   2.453  13.581
74972SOL    HW126749  10.434   2.518  13.539
74972SOL    HW226750  10.437   2.402  13.636
74973SOL     OW26751   1.851  13.046   0.492
74973SOL    HW126752   1.785  13.101   0.535
74973SOL    HW226753   1.930  13.100   0.491
74974SOL     OW26754   2.769  14.052   7.944
74974SOL    HW126755   2.860  14.065   7.969
74974SOL    HW226756   2.754  13.958   7.954
74975SOL     OW26757   6.846   3.393   1.512
74975SOL    HW126758   6.784   3.371   1.581
74975SOL    HW226759   6.871   3.484   1.530
74976SOL     OW26760   1.432   1.101   8.664
74976SOL    HW126761   1.381   1.020   8.659
74976SOL    HW226762   1.521   1.073   8.684
74977SOL     OW26763   7.666   7.049   4.908
74977SOL    HW126764   7.703   7.129   4.870
74977SOL    HW226765   7.735   7.016   4.965
74978SOL     OW26766  11.146   6.631  12.549
74978SOL    HW126767  11.111   6.665  12.631
74978SOL    HW226768  11.068   6.618  12.494
74979SOL     OW26769  12.589   9.686   9.805
74979SOL    HW126770  12.682   9.700   9.790
74979SOL    HW226771  12.578   9.591   9.801
74980SOL     OW26772  11.388  12.663  11.771
74980SOL    HW126773  11.411  12.626  11.686
74980SOL    HW226774  11.406  12.593  11.834
74981SOL     OW26775   9.108  13.137  12.759
74981SOL    HW126776   9.107  13.106  12.668
74981SOL    HW226777   9.054  13.216  12.758
74982SOL     OW26778  10.062   4.709   2.613
74982SOL    HW126779  10.143   4.760   2.614
74982SOL    HW226780  10.005   4.756   2.553
74983SOL     OW26781  12.336   0.185   7.637
74983SOL    HW126782  12.309   0.276   7.622
74983SOL    HW226783  12.289   0.135   7.570
74984SOL     OW26784   3.845   2.004   1.674
74984SOL    HW126785   3.926   2.028   1.629
74984SOL    HW226786   3.779   2.002   1.605
74985SOL     OW26787   0.543   9.486  12.976
74985SOL    HW126788   0.539   9.391  12.963
74985SOL    HW226789   0.590   9.496  13.059
74986SOL     OW26790  13.087  13.631  12.749
74986SOL    HW126791  13.109  13.716  12.788
74986SOL    HW226792  13.171  13.585  12.742
74987SOL     OW26793   6.236   6.846  10.408
74987SOL    HW126794   6.224   6.830  10.501
74987SOL    HW226795   6.166   6.906  10.384
74988SOL     OW26796   7.827   8.713   8.784
74988SOL    HW126797   7.908   8.757   8.757
74988SOL    HW226798   7.775   8.706   8.704
74989SOL     OW26799  13.138  12.641  13.870
74989SOL    HW126800  13.054  12.600  13.851
74989SOL    HW226801  13.137  12.723  13.820
74990SOL     OW26802   4.629   0.469  12.999
74990SOL    HW126803   4.592   0.397  13.051
74990SOL    HW226804   4.552   0.518  12.968
74991SOL     OW26805   7.045  14.224   5.909
74991SOL    HW126806   6.992  14.263   5.978
74991SOL    HW226807   7.020  14.131   5.909
74992SOL     OW26808   3.701   3.861  10.895
74992SOL    HW126809   3.721   3.813  10.976
74992SOL    HW226810   3.676   3.793  10.833
74993SOL     OW26811  14.705   0.387   6.270
74993SOL    HW126812  14.790   0.429   6.253
74993SOL    HW226813  14.642   0.458   6.269
74994SOL     OW26814   6.496  10.091  14.762
74994SOL    HW126815   6.487  10.036  14.840
74994SOL    HW226816   6.579  10.062  14.723
74995SOL     OW26817  11.710   4.022   2.671
74995SOL    HW126818  11.761   3.992   2.746
74995SOL    HW226819  11.772   4.073   2.619
74996SOL     OW26820   8.905   6.042   4.633
74996SOL    HW126821   8.919   6.137   4.639
74996SOL    HW226822   8.849   6.030   4.557
74997SOL     OW26823  14.760   2.007  12.109
74997SOL    HW126824  14.679   2.023  12.062
74997SOL    HW226825  14.808   1.946  12.053
74998SOL     OW26826   4.974   1.921   1.408
74998SOL    HW126827   4.988   1.890   1.497
74998SOL    HW226828   5.039   1.874   1.355
74999SOL     OW26829   7.146  14.043   3.992
74999SOL    HW126830   7.145  14.044   3.897
74999SOL    HW226831   7.056  14.067   4.017
75000SOL     OW26832   0.711   0.391   4.299
75000SOL    HW126833   0.733   0.338   4.222
75000SOL    HW226834   0.688   0.326   4.366
75001SOL     OW26835   9.670   5.152   1.878
75001SOL    HW126836   9.639   5.066   1.850
75001SOL    HW226837   9.763   5.152   1.854
75002SOL     OW26838   7.251   8.733  12.075
75002SOL    HW126839   7.213   8.646  12.065
75002SOL    HW226840   7.341   8.717  12.104
75003SOL     OW26841   0.491  10.642   4.659
75003SOL    HW126842   0.487  10.557   4.704
75003SOL    HW226843   0.582  10.669   4.665
75004SOL     OW26844  10.801   8.222   0.819
75004SOL    HW126845  10.768   8.253   0.735
75004SOL    HW226846  10.740   8.152   0.844
75005SOL     OW26847   0.646   2.519  12.471
75005SOL    HW126848   0.567   2.564  12.500
75005SOL    HW226849   0.637   2.512  12.376
75006SOL     OW26850  12.268  12.096  13.574
75006SOL    HW126851  12.179  12.131  13.578
75006SOL    HW226852  12.257  12.003  13.559
75007SOL     OW26853   0.213   4.379   9.099
75007SOL    HW126854   0.189   4.286   9.103
75007SOL    HW226855   0.308   4.378   9.086
75008SOL     OW26856  12.468   0.866   1.170
75008SOL    HW126857  12.530   0.934   1.146
75008SOL    HW226858  12.383   0.911   1.177
75009SOL     OW26859   0.427   3.272   9.894
75009SOL    HW126860   0.461   3.309   9.976
75009SOL    HW226861   0.496   3.213   9.864
75010SOL     OW26862  14.257   2.637  14.856
75010SOL    HW126863  14.187   2.595  14.807
75010SOL    HW226864  14.259   2.591   0.061
75011SOL     OW26865  10.146   3.626   8.945
75011SOL    HW126866  10.185   3.544   8.916
75011SOL    HW226867  10.107   3.663   8.866
75012SOL     OW26868  11.734   3.804   8.210
75012SOL    HW126869  11.824   3.817   8.183
75012SOL    HW226870  11.730   3.712   8.238
75013SOL     OW26871  14.443   6.652  13.393
75013SOL    HW126872  14.522   6.624  13.440
75013SOL    HW226873  14.474   6.676  13.306
75014SOL     OW26874   2.049   2.260   9.055
75014SOL    HW126875   1.991   2.278   9.129
75014SOL    HW226876   2.136   2.253   9.094
75015SOL     OW26877   5.323   4.075   4.845
75015SOL    HW126878   5.389   4.007   4.835
75015SOL    HW226879   5.310   4.082   4.940
75016SOL     OW26880   1.177   0.275   8.888
75016SOL    HW126881   1.104   0.220   8.914
75016SOL    HW226882   1.147   0.364   8.903
75017SOL     OW26883  10.451   8.314   0.172
75017SOL    HW126884  10.405   8.240   0.212
75017SOL    HW226885  10.409   8.325   0.087
75018SOL     OW26886   5.357   3.273   3.591
75018SOL    HW126887   5.380   3.296   3.682
75018SOL    HW226888   5.395   3.343   3.539
75019SOL     OW26889   2.187   9.371   8.173
75019SOL    HW126890   2.211   9.336   8.087
75019SOL    HW226891   2.240   9.450   8.182
75020SOL     OW26892   5.548   2.581  12.811
75020SOL    HW126893   5.497   2.657  12.840
75020SOL    HW226894   5.497   2.506  12.840
75021SOL     OW26895   1.462   2.247   5.325
75021SOL    HW126896   1.527   2.316   5.312
75021SOL    HW226897   1.388   2.291   5.367
75022SOL     OW26898  12.795   2.045   3.957
75022SOL    HW126899  12.844   2.125   3.939
75022SOL    HW226900  12.722   2.075   4.013
75023SOL     OW26901   3.498  12.089   7.411
75023SOL    HW126902   3.533  12.004   7.437
75023SOL    HW226903   3.510  12.144   7.489
75024SOL     OW26904   8.879   8.644   2.303
75024SOL    HW126905   8.962   8.615   2.267
75024SOL    HW226906   8.835   8.690   2.232
75025SOL     OW26907   6.850   8.612   9.905
75025SOL    HW126908   6.807   8.561   9.836
75025SOL    HW226909   6.798   8.692   9.912
75026SOL     OW26910   2.686   3.027   3.929
75026SOL    HW126911   2.630   3.040   3.852
75026SOL    HW226912   2.696   2.932   3.936
75027SOL     OW26913  11.210   7.327   9.339
75027SOL    HW126914  11.198   7.397   9.275
75027SOL    HW226915  11.133   7.271   9.329
75028SOL     OW26916   7.814   8.905   0.029
75028SOL    HW126917   7.823   8.994   0.062
75028SOL    HW226918   7.721   8.895   0.009
75029SOL     OW26919   5.134   5.435  11.133
75029SOL    HW126920   5.110   5.391  11.215
75029SOL    HW226921   5.206   5.382  11.099
75030SOL     OW26922  12.929   8.272   0.579
75030SOL    HW126923  12.962   8.241   0.663
75030SOL    HW226924  12.990   8.235   0.514
75031SOL     OW26925  10.781   8.893  12.731
75031SOL    HW126926  10.797   8.806  12.695
75031SOL    HW226927  10.751   8.945  12.656
75032SOL     OW26928   7.150   1.697  14.668
75032SOL    HW126929   7.054   1.696  14.670
75032SOL    HW226930   7.173   1.785  14.698
75033SOL     OW26931   1.386   2.978   0.816
75033SOL    HW126932   1.299   2.941   0.799
75033SOL    HW226933   1.408   2.948   0.905
75034SOL     OW26934   7.664  10.797  12.244
75034SOL    HW126935   7.591  10.823  12.188
75034SOL    HW226936   7.661  10.701  12.245
75035SOL     OW26937  11.518  12.318  13.827
75035SOL    HW126938  11.457  12.326  13.900
75035SOL    HW226939  11.463  12.317  13.749
75036SOL     OW26940   5.897  13.267  13.061
75036SOL    HW126941   5.832  13.336  13.048
75036SOL    HW226942   5.862  13.192  13.012
75037SOL     OW26943  11.057  13.811   1.888
75037SOL    HW126944  11.003  13.817   1.809
75037SOL    HW226945  11.082  13.901   1.906
75038SOL     OW26946   0.941   1.781   2.914
75038SOL    HW126947   1.001   1.723   2.868
75038SOL    HW226948   0.995   1.855   2.942
75039SOL     OW26949  14.638   9.019  13.054
75039SOL    HW126950  14.672   9.080  12.989
75039SOL    HW226951  14.583   8.959  13.003
75040SOL     OW26952   2.564   5.385   0.985
75040SOL    HW126953   2.562   5.305   1.036
75040SOL    HW226954   2.647   5.383   0.939
75041SOL     OW26955   1.802   3.295  10.103
75041SOL    HW126956   1.750   3.215  10.104
75041SOL    HW226957   1.748   3.360  10.149
75042SOL     OW26958  14.348   9.344   9.920
75042SOL    HW126959  14.443   9.350   9.926
75042SOL    HW226960  14.329   9.251   9.927
75043SOL     OW26961  12.228  11.881   5.301
75043SOL    HW126962  12.222  11.828   5.381
75043SOL    HW226963  12.155  11.942   5.308
75044SOL     OW26964   0.195   2.399  10.007
75044SOL    HW126965   0.120   2.384  10.065
75044SOL    HW226966   0.269   2.413  10.066
75045SOL     OW26967   4.720  11.332   4.517
75045SOL    HW126968   4.653  11.386   4.560
75045SOL    HW226969   4.720  11.251   4.567
75046SOL     OW26970   5.468   8.407   6.587
75046SOL    HW126971   5.501   8.456   6.512
75046SOL    HW226972   5.448   8.320   6.553
75047SOL     OW26973   8.709  12.131   7.214
75047SOL    HW126974   8.649  12.115   7.286
75047SOL    HW226975   8.677  12.078   7.142
75048SOL     OW26976  10.082   7.373   4.804
75048SOL    HW126977  10.151   7.308   4.796
75048SOL    HW226978  10.001   7.322   4.812
75049SOL     OW26979  11.168   2.276   3.177
75049SOL    HW126980  11.226   2.316   3.241
75049SOL    HW226981  11.222   2.263   3.099
75050SOL     OW26982  11.766  12.125   6.714
75050SOL    HW126983  11.702  12.096   6.778
75050SOL    HW226984  11.828  12.178   6.764
75051SOL     OW26985  14.775   8.329  14.423
75051SOL    HW126986  14.700   8.325  14.482
75051SOL    HW226987  14.851   8.313  14.479
75052SOL     OW26988   3.168  11.560   9.424
75052SOL    HW126989   3.158  11.533   9.333
75052SOL    HW226990   3.182  11.655   9.420
75053SOL     OW26991   2.717   1.444   2.291
75053SOL    HW126992   2.657   1.410   2.225
75053SOL    HW226993   2.733   1.535   2.264
75054SOL     OW26994  10.721   7.428   2.565
75054SOL    HW126995  10.634   7.417   2.603
75054SOL    HW226996  10.779   7.431   2.641
75055SOL     OW26997   1.528   1.723   6.844
75055SOL    HW126998   1.590   1.723   6.918
75055SOL    HW226999   1.455   1.776   6.874
75056SOL     OW27000   0.169   5.767   9.520
75056SOL    HW127001   0.190   5.840   9.577
75056SOL    HW227002   0.170   5.804   9.432
75057SOL     OW27003   4.335  12.997   6.105
75057SOL    HW127004   4.266  13.042   6.056
75057SOL    HW227005   4.349  13.053   6.182
75058SOL     OW27006  12.907  13.647   0.976
75058SOL    HW127007  12.820  13.670   0.944
75058SOL    HW227008  12.961  13.723   0.953
75059SOL     OW27009   0.242   5.666  14.297
75059SOL    HW127010   0.296   5.607  14.350
75059SOL    HW227011   0.280   5.660  14.209
75060SOL     OW27012  12.096  12.162  14.717
75060SOL    HW127013  12.128  12.084  14.761
75060SOL    HW227014  12.026  12.195  14.774
75061SOL     OW27015   9.354  13.895   5.158
75061SOL    HW127016   9.281  13.891   5.097
75061SOL    HW227017   9.367  13.988   5.175
75062SOL     OW27018   2.022  13.774  11.480
75062SOL    HW127019   1.932  13.807  11.476
75062SOL    HW227020   2.055  13.784  11.390
75063SOL     OW27021   6.381   1.942  11.704
75063SOL    HW127022   6.315   1.975  11.643
75063SOL    HW227023   6.418   1.865  11.662
75064SOL     OW27024  12.750  14.721   1.248
75064SOL    HW127025  12.714  14.777   1.179
75064SOL    HW227026  12.731  14.767   1.329
75065SOL     OW27027   0.915   8.205   8.151
75065SOL    HW127028   0.893   8.262   8.225
75065SOL    HW227029   0.973   8.258   8.097
75066SOL     OW27030   4.104   4.391   5.169
75066SOL    HW127031   4.199   4.390   5.152
75066SOL    HW227032   4.079   4.299   5.172
75067SOL     OW27033   8.013   2.554  12.618
75067SOL    HW127034   7.938   2.604  12.587
75067SOL    HW227035   8.044   2.602  12.695
75068SOL     OW27036  11.458   2.999   9.418
75068SOL    HW127037  11.489   3.053   9.491
75068SOL    HW227038  11.497   3.038   9.341
75069SOL     OW27039   8.792   7.422   0.772
75069SOL    HW127040   8.887   7.421   0.766
75069SOL    HW227041   8.773   7.475   0.849
75070SOL     OW27042   3.103  10.899  10.545
75070SOL    HW127043   3.034  10.849  10.588
75070SOL    HW227044   3.182  10.877  10.594
75071SOL     OW27045   2.736   9.722   5.376
75071SOL    HW127046   2.770   9.711   5.465
75071SOL    HW227047   2.747   9.636   5.336
75072SOL     OW27048   1.347  13.539   3.750
75072SOL    HW127049   1.374  13.583   3.830
75072SOL    HW227050   1.266  13.584   3.724
75073SOL     OW27051   8.961  14.335   6.258
75073SOL    HW127052   8.917  14.420   6.260
75073SOL    HW227053   9.053  14.355   6.240
75074SOL     OW27054   4.036   2.639   2.462
75074SOL    HW127055   4.090   2.626   2.540
75074SOL    HW227056   4.099   2.656   2.391
75075SOL     OW27057  13.188   5.654  13.702
75075SOL    HW127058  13.138   5.575  13.680
75075SOL    HW227059  13.187   5.657  13.797
75076SOL     OW27060   7.628  13.097   0.032
75076SOL    HW127061   7.597  13.153  14.840
75076SOL    HW227062   7.709  13.059  14.878
75077SOL     OW27063   1.824  12.310  14.545
75077SOL    HW127064   1.825  12.258  14.465
75077SOL    HW227065   1.795  12.248  14.613
75078SOL     OW27066  10.806   8.740  10.949
75078SOL    HW127067  10.867   8.812  10.968
75078SOL    HW227068  10.785   8.750  10.856
75079SOL     OW27069   9.856  12.536  10.919
75079SOL    HW127070   9.849  12.552  10.825
75079SOL    HW227071   9.905  12.611  10.953
75080SOL     OW27072   4.591  13.597   7.524
75080SOL    HW127073   4.640  13.591   7.607
75080SOL    HW227074   4.571  13.690   7.515
75081SOL     OW27075  14.205   7.776   9.585
75081SOL    HW127076  14.176   7.698   9.537
75081SOL    HW227077  14.126   7.807   9.630
75082SOL     OW27078   3.068  13.527   9.312
75082SOL    HW127079   3.091  13.448   9.262
75082SOL    HW227080   3.082  13.599   9.250
75083SOL     OW27081   0.741  12.844   3.718
75083SOL    HW127082   0.824  12.839   3.766
75083SOL    HW227083   0.763  12.886   3.635
75084SOL     OW27084   6.459   0.673  10.807
75084SOL    HW127085   6.396   0.744  10.820
75084SOL    HW227086   6.519   0.679  10.881
75085SOL     OW27087   3.290   1.468   4.067
75085SOL    HW127088   3.260   1.494   4.154
75085SOL    HW227089   3.209   1.451   4.018
75086SOL     OW27090  12.685   6.962   6.908
75086SOL    HW127091  12.698   6.876   6.868
75086SOL    HW227092  12.656   7.018   6.836
75087SOL     OW27093   7.290   2.710   6.327
75087SOL    HW127094   7.295   2.623   6.288
75087SOL    HW227095   7.352   2.706   6.400
75088SOL     OW27096  12.747  14.584  11.923
75088SOL    HW127097  12.767  14.498  11.886
75088SOL    HW227098  12.727  14.567  12.015
75089SOL     OW27099  14.445   0.538  10.559
75089SOL    HW127100  14.374   0.484  10.523
75089SOL    HW227101  14.436   0.528  10.654
75090SOL     OW27102  13.557   5.275   9.876
75090SOL    HW127103  13.504   5.306   9.803
75090SOL    HW227104  13.501   5.286   9.953
75091SOL     OW27105  10.292   8.277  14.384
75091SOL    HW127106  10.332   8.192  14.365
75091SOL    HW227107  10.295   8.324  14.300
75092SOL     OW27108  11.916   4.276   9.308
75092SOL    HW127109  11.944   4.206   9.367
75092SOL    HW227110  11.833   4.306   9.345
75093SOL     OW27111   3.464   2.154  14.266
75093SOL    HW127112   3.430   2.240  14.290
75093SOL    HW227113   3.402   2.092  14.304
75094SOL     OW27114   3.830   1.990  11.597
75094SOL    HW127115   3.771   1.941  11.539
75094SOL    HW227116   3.917   1.960  11.573
75095SOL     OW27117  13.058  14.190   7.654
75095SOL    HW127118  13.101  14.139   7.723
75095SOL    HW227119  12.965  14.181   7.672
75096SOL     OW27120   6.003  11.458   7.088
75096SOL    HW127121   6.030  11.540   7.048
75096SOL    HW227122   5.911  11.448   7.064
75097SOL     OW27123   8.170  11.420   8.662
75097SOL    HW127124   8.245  11.360   8.663
75097SOL    HW227125   8.210  11.506   8.652
75098SOL     OW27126  11.452   0.407   6.909
75098SOL    HW127127  11.414   0.409   6.997
75098SOL    HW227128  11.376   0.403   6.850
75099SOL     OW27129   0.341   1.952   6.994
75099SOL    HW127130   0.344   1.860   7.021
75099SOL    HW227131   0.321   2.000   7.075
75100SOL     OW27132   4.497   3.850  13.886
75100SOL    HW127133   4.427   3.865  13.823
75100SOL    HW227134   4.453   3.846  13.971
75101SOL     OW27135   9.692  10.303   7.022
75101SOL    HW127136   9.768  10.320   6.966
75101SOL    HW227137   9.670  10.212   7.005
75102SOL     OW27138   8.989   0.295  13.209
75102SOL    HW127139   8.940   0.255  13.282
75102SOL    HW227140   9.052   0.227  13.184
75103SOL     OW27141   9.301  10.882   1.333
75103SOL    HW127142   9.218  10.839   1.355
75103SOL    HW227143   9.357  10.810   1.303
75104SOL     OW27144  13.304   0.107  12.090
75104SOL    HW127145  13.291   0.202  12.089
75104SOL    HW227146  13.336   0.089  12.179
75105SOL     OW27147  11.292   5.387   5.693
75105SOL    HW127148  11.352   5.341   5.752
75105SOL    HW227149  11.261   5.462   5.745
75106SOL     OW27150   1.612   3.362   2.758
75106SOL    HW127151   1.547   3.332   2.695
75106SOL    HW227152   1.570   3.436   2.803
75107SOL     OW27153  10.990   7.909   7.780
75107SOL    HW127154  11.056   7.933   7.845
75107SOL    HW227155  10.986   7.985   7.721
75108SOL     OW27156   8.201  12.495   6.459
75108SOL    HW127157   8.149  12.549   6.519
75108SOL    HW227158   8.142  12.424   6.433
75109SOL     OW27159   0.570   1.100   6.067
75109SOL    HW127160   0.569   1.067   6.157
75109SOL    HW227161   0.621   1.182   6.072
75110SOL     OW27162   6.693   3.591   6.409
75110SOL    HW127163   6.672   3.581   6.316
75110SOL    HW227164   6.756   3.662   6.413
75111SOL     OW27165   1.295   6.517   7.927
75111SOL    HW127166   1.311   6.429   7.962
75111SOL    HW227167   1.310   6.509   7.833
75112SOL     OW27168   6.100  10.853  11.643
75112SOL    HW127169   6.103  10.935  11.693
75112SOL    HW227170   6.169  10.863  11.577
75113SOL     OW27171   6.114  12.483   2.450
75113SOL    HW127172   6.122  12.399   2.496
75113SOL    HW227173   6.023  12.486   2.421
75114SOL     OW27174   9.101  11.598   9.648
75114SOL    HW127175   9.140  11.676   9.687
75114SOL    HW227176   9.126  11.603   9.556
75115SOL     OW27177   2.504   4.545  11.699
75115SOL    HW127178   2.539   4.472  11.750
75115SOL    HW227179   2.574   4.610  11.700
75116SOL     OW27180  12.930   0.283   5.226
75116SOL    HW127181  12.845   0.326   5.236
75116SOL    HW227182  12.947   0.285   5.132
75117SOL     OW27183  11.557   2.703  13.248
75117SOL    HW127184  11.489   2.702  13.315
75117SOL    HW227185  11.545   2.621  13.200
75118SOL     OW27186   2.792   8.557   8.351
75118SOL    HW127187   2.815   8.512   8.269
75118SOL    HW227188   2.741   8.633   8.323
75119SOL     OW27189   8.030   0.034   4.959
75119SOL    HW127190   8.111  14.862   4.948
75119SOL    HW227191   8.035   0.066   5.050
75120SOL     OW27192  12.651   1.974  11.594
75120SOL    HW127193  12.686   2.056  11.559
75120SOL    HW227194  12.725   1.913  11.590
75121SOL     OW27195   3.549  14.587   7.740
75121SOL    HW127196   3.477  14.640   7.705
75121SOL    HW227197   3.509  14.501   7.755
75122SOL     OW27198  11.188   8.203  10.699
75122SOL    HW127199  11.262   8.226  10.755
75122SOL    HW227200  11.113   8.247  10.739
75123SOL     OW27201   0.210   7.193   6.732
75123SOL    HW127202   0.205   7.131   6.659
75123SOL    HW227203   0.120   7.225   6.742
75124SOL     OW27204   8.619  12.478  13.054
75124SOL    HW127205   8.668  12.420  13.112
75124SOL    HW227206   8.534  12.435  13.044
75125SOL     OW27207  14.338   5.444   1.568
75125SOL    HW127208  14.337   5.538   1.585
75125SOL    HW227209  14.266   5.430   1.507
75126SOL     OW27210  13.983  13.088  11.828
75126SOL    HW127211  13.898  13.067  11.865
75126SOL    HW227212  14.037  13.011  11.847
75127SOL     OW27213  12.050  12.306   7.177
75127SOL    HW127214  12.009  12.369   7.118
75127SOL    HW227215  12.137  12.341   7.194
75128SOL     OW27216   8.774   3.946   3.997
75128SOL    HW127217   8.750   3.937   4.089
75128SOL    HW227218   8.737   4.030   3.970
75129SOL     OW27219   5.754  14.461  13.830
75129SOL    HW127220   5.673  14.464  13.779
75129SOL    HW227221   5.823  14.468  13.764
75130SOL     OW27222   4.451  11.140   5.525
75130SOL    HW127223   4.507  11.160   5.600
75130SOL    HW227224   4.370  11.107   5.564
75131SOL     OW27225   1.344   1.781   0.541
75131SOL    HW127226   1.371   1.774   0.632
75131SOL    HW227227   1.353   1.692   0.506
75132SOL     OW27228   1.768   3.433  10.544
75132SOL    HW127229   1.702   3.377  10.503
75132SOL    HW227230   1.833   3.449  10.476
75133SOL     OW27231  12.917   8.655   2.349
75133SOL    HW127232  12.985   8.591   2.327
75133SOL    HW227233  12.838   8.602   2.358
75134SOL     OW27234  10.498   8.333  13.609
75134SOL    HW127235  10.439   8.409  13.607
75134SOL    HW227236  10.575   8.362  13.561
75135SOL     OW27237  13.588   4.617  10.619
75135SOL    HW127238  13.636   4.693  10.585
75135SOL    HW227239  13.579   4.559  10.544
75136SOL     OW27240  11.448  14.197  13.050
75136SOL    HW127241  11.354  14.181  13.049
75136SOL    HW227242  11.487  14.110  13.057
75137SOL     OW27243   7.738  10.718   5.787
75137SOL    HW127244   7.695  10.694   5.705
75137SOL    HW227245   7.800  10.647   5.803
75138SOL     OW27246   8.650   1.458   7.885
75138SOL    HW127247   8.728   1.513   7.892
75138SOL    HW227248   8.607   1.488   7.805
75139SOL     OW27249   1.428   6.848  11.799
75139SOL    HW127250   1.516   6.815  11.822
75139SOL    HW227251   1.375   6.832  11.877
75140SOL     OW27252   8.489   1.480  12.992
75140SOL    HW127253   8.528   1.558  12.954
75140SOL    HW227254   8.415   1.460  12.935
75141SOL     OW27255   0.745  11.687   8.284
75141SOL    HW127256   0.823  11.653   8.328
75141SOL    HW227257   0.779  11.735   8.208
75142SOL     OW27258  12.396  10.591   0.708
75142SOL    HW127259  12.316  10.540   0.697
75142SOL    HW227260  12.366  10.679   0.733
75143SOL     OW27261  14.017   6.440  13.445
75143SOL    HW127262  13.990   6.531  13.457
75143SOL    HW227263  14.015   6.403  13.533
75144SOL     OW27264   7.011   4.134  10.680
75144SOL    HW127265   6.956   4.179  10.616
75144SOL    HW227266   6.993   4.180  10.763
75145SOL     OW27267   4.408   1.377   4.816
75145SOL    HW127268   4.323   1.417   4.832
75145SOL    HW227269   4.427   1.328   4.896
75146SOL     OW27270   0.551  13.734  11.101
75146SOL    HW127271   0.505  13.688  11.031
75146SOL    HW227272   0.557  13.824  11.070
75147SOL     OW27273   6.061   5.715   6.924
75147SOL    HW127274   6.145   5.698   6.967
75147SOL    HW227275   6.083   5.727   6.832
75148SOL     OW27276   3.896   8.619   7.342
75148SOL    HW127277   3.881   8.538   7.391
75148SOL    HW227278   3.816   8.632   7.291
75149SOL     OW27279   3.835  13.256   4.807
75149SOL    HW127280   3.849  13.163   4.788
75149SOL    HW227281   3.916  13.284   4.849
75150SOL     OW27282  14.825   0.545   8.246
75150SOL    HW127283  14.792   0.535   8.157
75150SOL    HW227284  14.869   0.463   8.265
75151SOL     OW27285  11.310   7.080  14.047
75151SOL    HW127286  11.276   6.995  14.021
75151SOL    HW227287  11.233   7.129  14.076
75152SOL     OW27288   6.258   0.953   2.256
75152SOL    HW127289   6.227   0.891   2.190
75152SOL    HW227290   6.266   1.036   2.210
75153SOL     OW27291   7.765   5.056  14.312
75153SOL    HW127292   7.811   4.973  14.319
75153SOL    HW227293   7.673   5.031  14.303
75154SOL     OW27294  13.038  13.117   7.122
75154SOL    HW127295  13.052  13.165   7.041
75154SOL    HW227296  12.945  13.129   7.142
75155SOL     OW27297   5.986   4.152   5.720
75155SOL    HW127298   5.932   4.157   5.799
75155SOL    HW227299   6.069   4.115   5.750
75156SOL     OW27300   5.808  12.985   1.330
75156SOL    HW127301   5.777  13.028   1.409
75156SOL    HW227302   5.807  12.892   1.351
75157SOL     OW27303   5.099  13.136  13.091
75157SOL    HW127304   5.018  13.164  13.048
75157SOL    HW227305   5.073  13.119  13.181
75158SOL     OW27306   9.310   6.730   5.842
75158SOL    HW127307   9.245   6.753   5.909
75158SOL    HW227308   9.283   6.644   5.811
75159SOL     OW27309   0.254  10.822  13.933
75159SOL    HW127310   0.321  10.857  13.992
75159SOL    HW227311   0.303  10.779  13.863
75160SOL     OW27312   6.747   6.797   0.785
75160SOL    HW127313   6.711   6.718   0.743
75160SOL    HW227314   6.773   6.853   0.712
75161SOL     OW27315   4.841   4.756   4.451
75161SOL    HW127316   4.888   4.749   4.534
75161SOL    HW227317   4.783   4.679   4.450
75162SOL     OW27318  11.066   3.046  13.304
75162SOL    HW127319  11.151   3.064  13.344
75162SOL    HW227320  11.014   3.125  13.321
75163SOL     OW27321   3.963   5.255   5.377
75163SOL    HW127322   3.929   5.343   5.359
75163SOL    HW227323   3.935   5.203   5.302
75164SOL     OW27324   3.622  11.987   5.991
75164SOL    HW127325   3.639  12.021   5.903
75164SOL    HW227326   3.684  11.914   6.000
75165SOL     OW27327   1.617  14.026  13.058
75165SOL    HW127328   1.696  14.068  13.092
75165SOL    HW227329   1.556  14.027  13.131
75166SOL     OW27330  14.419   0.993   8.184
75166SOL    HW127331  14.453   1.029   8.103
75166SOL    HW227332  14.389   0.905   8.160
75167SOL     OW27333  10.321  11.427   6.633
75167SOL    HW127334  10.333  11.508   6.583
75167SOL    HW227335  10.410  11.397   6.650
75168SOL     OW27336   7.093   8.846   1.901
75168SOL    HW127337   7.149   8.830   1.825
75168SOL    HW227338   7.123   8.930   1.935
75169SOL     OW27339   5.633  13.569   8.446
75169SOL    HW127340   5.580  13.584   8.367
75169SOL    HW227341   5.574  13.589   8.519
75170SOL     OW27342  14.516  12.677   3.887
75170SOL    HW127343  14.588  12.696   3.948
75170SOL    HW227344  14.541  12.594   3.846
75171SOL     OW27345   1.934   6.749  10.452
75171SOL    HW127346   1.868   6.759  10.384
75171SOL    HW227347   1.982   6.832  10.452
75172SOL     OW27348   6.167   4.281  13.070
75172SOL    HW127349   6.102   4.267  13.139
75172SOL    HW227350   6.137   4.226  12.998
75173SOL     OW27351   0.342  13.623   8.593
75173SOL    HW127352   0.370  13.539   8.556
75173SOL    HW227353   0.310  13.672   8.518
75174SOL     OW27354   5.667   6.326  14.434
75174SOL    HW127355   5.617   6.294  14.358
75174SOL    HW227356   5.602   6.332  14.504
75175SOL     OW27357  12.459  13.803   0.941
75175SOL    HW127358  12.385  13.777   0.886
75175SOL    HW227359  12.458  13.899   0.936
75176SOL     OW27360   7.940   6.748   8.322
75176SOL    HW127361   7.929   6.817   8.387
75176SOL    HW227362   7.967   6.794   8.243
75177SOL     OW27363   3.691   6.278  13.036
75177SOL    HW127364   3.623   6.214  13.057
75177SOL    HW227365   3.678   6.298  12.944
75178SOL     OW27366  11.870   5.156  12.668
75178SOL    HW127367  11.819   5.076  12.652
75178SOL    HW227368  11.951   5.124  12.708
75179SOL     OW27369   8.980  10.857   4.997
75179SOL    HW127370   8.904  10.878   5.052
75179SOL    HW227371   8.986  10.931   4.936
75180SOL     OW27372  13.012  12.874   8.525
75180SOL    HW127373  12.978  12.817   8.594
75180SOL    HW227374  13.083  12.922   8.567
75181SOL     OW27375  12.322   4.444  14.875
75181SOL    HW127376  12.297   4.378  14.810
75181SOL    HW227377  12.242   4.462   0.045
75182SOL     OW27378  12.477   8.856  12.464
75182SOL    HW127379  12.572   8.847  12.470
75182SOL    HW227380  12.446   8.846  12.554
75183SOL     OW27381   3.559   9.989   1.553
75183SOL    HW127382   3.634   9.952   1.507
75183SOL    HW227383   3.496   9.917   1.557
75184SOL     OW27384   0.254  13.533  13.271
75184SOL    HW127385   0.225  13.524  13.180
75184SOL    HW227386   0.179  13.504  13.323
75185SOL     OW27387   3.492   8.689   8.063
75185SOL    HW127388   3.571   8.671   8.114
75185SOL    HW227389   3.523   8.694   7.973
75186SOL     OW27390   4.362  12.445   5.414
75186SOL    HW127391   4.346  12.362   5.458
75186SOL    HW227392   4.300  12.505   5.453
75187SOL     OW27393   5.911   8.201  14.691
75187SOL    HW127394   5.951   8.200  14.604
75187SOL    HW227395   5.972   8.153  14.747
75188SOL     OW27396   2.970   0.513   5.642
75188SOL    HW127397   2.885   0.481   5.612
75188SOL    HW227398   3.029   0.438   5.632
75189SOL     OW27399   8.897   2.435  13.178
75189SOL    HW127400   8.809   2.404  13.198
75189SOL    HW227401   8.954   2.363  13.202
75190SOL     OW27402   2.406  11.853  12.913
75190SOL    HW127403   2.360  11.792  12.970
75190SOL    HW227404   2.398  11.816  12.825
75191SOL     OW27405  10.516   4.324   5.712
75191SOL    HW127406  10.559   4.398   5.669
75191SOL    HW227407  10.486   4.269   5.640
75192SOL     OW27408   3.033  14.600  13.735
75192SOL    HW127409   3.107  14.573  13.789
75192SOL    HW227410   3.060  14.684  13.698
75193SOL     OW27411  14.570  12.664   5.436
75193SOL    HW127412  14.491  12.704   5.399
75193SOL    HW227413  14.579  12.706   5.522
75194SOL     OW27414   9.080   5.157  13.289
75194SOL    HW127415   9.083   5.153  13.384
75194SOL    HW227416   8.991   5.185  13.268
75195SOL     OW27417   1.532   0.406   6.550
75195SOL    HW127418   1.570   0.494   6.549
75195SOL    HW227419   1.483   0.403   6.632
75196SOL     OW27420  14.850  10.639  13.091
75196SOL    HW127421  14.815  10.664  13.005
75196SOL    HW227422  14.804  10.695  13.153
75197SOL     OW27423   0.335   3.683  14.543
75197SOL    HW127424   0.241   3.699  14.553
75197SOL    HW227425   0.341   3.624  14.468
75198SOL     OW27426  12.892   7.466   5.164
75198SOL    HW127427  12.817   7.514   5.129
75198SOL    HW227428  12.961   7.532   5.172
75199SOL     OW27429  12.651   3.644  10.051
75199SOL    HW127430  12.555   3.650  10.047
75199SOL    HW227431  12.671   3.651  10.145
75200SOL     OW27432   0.617  10.410  10.326
75200SOL    HW127433   0.596  10.318  10.309
75200SOL    HW227434   0.701  10.423  10.280
75201SOL     OW27435  13.001   1.023   3.815
75201SOL    HW127436  13.025   0.950   3.757
75201SOL    HW227437  12.909   1.041   3.793
75202SOL     OW27438  10.833   9.675  12.526
75202SOL    HW127439  10.788   9.665  12.443
75202SOL    HW227440  10.897   9.745  12.510
75203SOL     OW27441  12.509   7.837   5.437
75203SOL    HW127442  12.598   7.811   5.461
75203SOL    HW227443  12.489   7.910   5.495
75204SOL     OW27444   2.596   1.954   6.754
75204SOL    HW127445   2.617   1.945   6.661
75204SOL    HW227446   2.580   1.864   6.783
75205SOL     OW27447   7.239   5.151  12.384
75205SOL    HW127448   7.191   5.081  12.428
75205SOL    HW227449   7.220   5.138  12.291
75206SOL     OW27450   3.532   4.076   4.492
75206SOL    HW127451   3.585   4.017   4.439
75206SOL    HW227452   3.516   4.027   4.573
75207SOL     OW27453  13.068  12.973   6.618
75207SOL    HW127454  13.161  12.964   6.639
75207SOL    HW227455  13.025  12.902   6.667
75208SOL     OW27456  12.610   2.935   7.254
75208SOL    HW127457  12.659   2.874   7.199
75208SOL    HW227458  12.526   2.945   7.209
75209SOL     OW27459  13.513   2.967   4.166
75209SOL    HW127460  13.459   2.910   4.111
75209SOL    HW227461  13.464   2.973   4.248
75210SOL     OW27462   4.777   3.002   8.658
75210SOL    HW127463   4.715   3.007   8.732
75210SOL    HW227464   4.724   2.970   8.585
75211SOL     OW27465   5.957   9.586  13.867
75211SOL    HW127466   5.953   9.682  13.867
75211SOL    HW227467   6.035   9.566  13.815
75212SOL     OW27468  10.604   8.604   3.675
75212SOL    HW127469  10.514   8.634   3.659
75212SOL    HW227470  10.603   8.571   3.764
75213SOL     OW27471   3.241   3.076   4.462
75213SOL    HW127472   3.192   3.116   4.390
75213SOL    HW227473   3.188   3.001   4.488
75214SOL     OW27474   7.102   2.721   2.909
75214SOL    HW127475   7.044   2.733   2.984
75214SOL    HW227476   7.180   2.679   2.946
75215SOL     OW27477  11.474   9.166   2.045
75215SOL    HW127478  11.475   9.071   2.031
75215SOL    HW227479  11.563   9.187   2.074
75216SOL     OW27480   5.325  14.627  11.891
75216SOL    HW127481   5.400  14.669  11.932
75216SOL    HW227482   5.319  14.541  11.934
75217SOL     OW27483   2.265   3.229   0.820
75217SOL    HW127484   2.316   3.237   0.739
75217SOL    HW227485   2.254   3.134   0.832
75218SOL     OW27486  11.032   9.714   9.795
75218SOL    HW127487  11.023   9.807   9.818
75218SOL    HW227488  10.958   9.672   9.838
75219SOL     OW27489   2.008   5.503   2.377
75219SOL    HW127490   2.055   5.458   2.307
75219SOL    HW227491   1.942   5.556   2.331
75220SOL     OW27492  14.853  11.470   1.010
75220SOL    HW127493   0.022  11.549   1.034
75220SOL    HW227494   0.040  11.401   1.007
75221SOL     OW27495   8.347   3.630  10.507
75221SOL    HW127496   8.341   3.551  10.452
75221SOL    HW227497   8.334   3.702  10.445
75222SOL     OW27498  11.130   2.658   2.600
75222SOL    HW127499  11.107   2.684   2.689
75222SOL    HW227500  11.091   2.571   2.590
75223SOL     OW27501  12.848   6.534   2.460
75223SOL    HW127502  12.762   6.494   2.474
75223SOL    HW227503  12.868   6.576   2.544
75224SOL     OW27504   6.536   4.994   5.609
75224SOL    HW127505   6.607   5.005   5.546
75224SOL    HW227506   6.576   4.951   5.684
75225SOL     OW27507   1.694   7.698   8.633
75225SOL    HW127508   1.660   7.651   8.557
75225SOL    HW227509   1.672   7.643   8.708
75226SOL     OW27510   8.451  12.955  13.928
75226SOL    HW127511   8.446  12.860  13.940
75226SOL    HW227512   8.491  12.966  13.842
75227SOL     OW27513   4.291   4.879   5.587
75227SOL    HW127514   4.284   4.966   5.626
75227SOL    HW227515   4.275   4.893   5.494
75228SOL     OW27516  13.214  10.834   0.537
75228SOL    HW127517  13.231  10.829   0.443
75228SOL    HW227518  13.205  10.743   0.565
75229SOL     OW27519   2.701   5.502   3.310
75229SOL    HW127520   2.794   5.476   3.304
75229SOL    HW227521   2.666   5.445   3.379
75230SOL     OW27522  11.965   2.865   5.726
75230SOL    HW127523  12.027   2.931   5.698
75230SOL    HW227524  11.958   2.877   5.821
75231SOL     OW27525   0.314  12.284   8.906
75231SOL    HW127526   0.383  12.306   8.843
75231SOL    HW227527   0.352  12.214   8.959
75232SOL     OW27528   9.485   4.791   8.682
75232SOL    HW127529   9.441   4.778   8.766
75232SOL    HW227530   9.566   4.838   8.704
75233SOL     OW27531   8.026  12.314   6.992
75233SOL    HW127532   7.937  12.282   6.976
75233SOL    HW227533   8.046  12.283   7.081
75234SOL     OW27534   0.766   0.642   4.876
75234SOL    HW127535   0.671   0.647   4.887
75234SOL    HW227536   0.792   0.731   4.850
75235SOL     OW27537  14.414   8.171  12.468
75235SOL    HW127538  14.410   8.088  12.516
75235SOL    HW227539  14.403   8.238  12.535
75236SOL     OW27540   2.736  10.340   3.002
75236SOL    HW127541   2.661  10.300   3.047
75236SOL    HW227542   2.763  10.275   2.937
75237SOL     OW27543   4.688   5.009   2.423
75237SOL    HW127544   4.771   5.044   2.456
75237SOL    HW227545   4.714   4.936   2.366
75238SOL     OW27546   4.005  12.044   0.879
75238SOL    HW127547   3.926  12.031   0.931
75238SOL    HW227548   4.076  12.048   0.943
75239SOL     OW27549   4.213  11.350   5.175
75239SOL    HW127550   4.204  11.255   5.170
75239SOL    HW227551   4.124  11.382   5.192
75240SOL     OW27552   6.964   7.889   3.827
75240SOL    HW127553   6.988   7.976   3.796
75240SOL    HW227554   6.965   7.835   3.748
75241SOL     OW27555  13.925   2.618   9.195
75241SOL    HW127556  13.986   2.664   9.253
75241SOL    HW227557  13.981   2.566   9.137
75242SOL     OW27558   1.833   6.488   0.970
75242SOL    HW127559   1.810   6.489   0.877
75242SOL    HW227560   1.876   6.404   0.984
75243SOL     OW27561   6.895  14.289   6.461
75243SOL    HW127562   6.901  14.332   6.547
75243SOL    HW227563   6.898  14.195   6.481
75244SOL     OW27564   5.397  14.021  12.448
75244SOL    HW127565   5.347  14.015  12.530
75244SOL    HW227566   5.335  14.057  12.385
75245SOL     OW27567   6.628   2.613   0.489
75245SOL    HW127568   6.627   2.658   0.405
75245SOL    HW227569   6.704   2.555   0.485
75246SOL     OW27570  11.670   7.340  14.217
75246SOL    HW127571  11.762   7.325  14.197
75246SOL    HW227572  11.634   7.252  14.232
75247SOL     OW27573  10.349   7.262  13.653
75247SOL    HW127574  10.342   7.272  13.748
75247SOL    HW227575  10.264   7.290  13.619
75248SOL     OW27576  11.354   2.229  13.459
75248SOL    HW127577  11.324   2.309  13.417
75248SOL    HW227578  11.443   2.249  13.489
75249SOL     OW27579   6.551  11.592  12.652
75249SOL    HW127580   6.476  11.591  12.593
75249SOL    HW227581   6.551  11.680  12.689
75250SOL     OW27582   7.304  11.184  14.433
75250SOL    HW127583   7.210  11.178  14.451
75250SOL    HW227584   7.334  11.256  14.487
75251SOL     OW27585   0.806  11.899   2.202
75251SOL    HW127586   0.846  11.921   2.117
75251SOL    HW227587   0.717  11.874   2.181
75252SOL     OW27588  12.370   6.812   1.561
75252SOL    HW127589  12.318   6.772   1.491
75252SOL    HW227590  12.461   6.799   1.534
75253SOL     OW27591  13.137   8.510  14.552
75253SOL    HW127592  13.086   8.555  14.484
75253SOL    HW227593  13.119   8.559  14.632
75254SOL     OW27594  14.622   2.315   1.076
75254SOL    HW127595  14.573   2.312   0.994
75254SOL    HW227596  14.559   2.348   1.141
75255SOL     OW27597  13.836   0.149   2.713
75255SOL    HW127598  13.846   0.243   2.697
75255SOL    HW227599  13.746   0.130   2.684
75256SOL     OW27600   3.165  12.385  10.706
75256SOL    HW127601   3.180  12.382  10.801
75256SOL    HW227602   3.213  12.310  10.672
75257SOL     OW27603  11.174  11.987  14.628
75257SOL    HW127604  11.090  11.966  14.670
75257SOL    HW227605  11.239  11.973  14.696
75258SOL     OW27606   8.176   2.376  12.486
75258SOL    HW127607   8.110   2.428  12.531
75258SOL    HW227608   8.251   2.374  12.546
75259SOL     OW27609  13.081  14.103  13.304
75259SOL    HW127610  13.041  14.044  13.368
75259SOL    HW227611  13.008  14.137  13.253
75260SOL     OW27612   3.093  14.556   5.855
75260SOL    HW127613   3.075  14.609   5.778
75260SOL    HW227614   3.008  14.519   5.879
75261SOL     OW27615   2.896  14.289  12.207
75261SOL    HW127616   2.942  14.362  12.167
75261SOL    HW227617   2.810  14.323  12.230
75262SOL     OW27618  10.081   7.215   0.825
75262SOL    HW127619  10.153   7.156   0.803
75262SOL    HW227620  10.002   7.167   0.800
75263SOL     OW27621   0.395  10.088  13.201
75263SOL    HW127622   0.490  10.078  13.210
75263SOL    HW227623   0.368  10.012  13.149
75264SOL     OW27624   8.543   3.880   3.361
75264SOL    HW127625   8.496   3.962   3.378
75264SOL    HW227626   8.615   3.906   3.304
75265SOL     OW27627   3.221  13.393   1.776
75265SOL    HW127628   3.273  13.463   1.738
75265SOL    HW227629   3.264  13.312   1.746
75266SOL     OW27630   7.782   8.795   1.429
75266SOL    HW127631   7.851   8.728   1.429
75266SOL    HW227632   7.795   8.843   1.348
75267SOL     OW27633  14.367   6.724   4.282
75267SOL    HW127634  14.454   6.757   4.305
75267SOL    HW227635  14.307   6.792   4.313
75268SOL     OW27636  13.079   5.871   6.593
75268SOL    HW127637  13.107   5.820   6.518
75268SOL    HW227638  12.988   5.844   6.608
75269SOL     OW27639  10.964  13.173   1.187
75269SOL    HW127640  11.042  13.212   1.226
75269SOL    HW227641  10.991  13.148   1.098
75270SOL     OW27642   9.636   2.284   8.066
75270SOL    HW127643   9.552   2.242   8.084
75270SOL    HW227644   9.701   2.229   8.111
75271SOL     OW27645   6.399   0.126   7.963
75271SOL    HW127646   6.483   0.135   7.919
75271SOL    HW227647   6.372   0.216   7.983
75272SOL     OW27648   4.406   0.948   3.843
75272SOL    HW127649   4.417   0.965   3.936
75272SOL    HW227650   4.494   0.961   3.806
75273SOL     OW27651  12.028   8.309  11.621
75273SOL    HW127652  12.121   8.287  11.616
75273SOL    HW227653  12.001   8.321  11.530
75274SOL     OW27654   5.759  10.754  10.363
75274SOL    HW127655   5.767  10.755  10.268
75274SOL    HW227656   5.672  10.789  10.380
75275SOL     OW27657   7.434  12.970  10.746
75275SOL    HW127658   7.440  13.065  10.756
75275SOL    HW227659   7.425  12.956  10.652
75276SOL     OW27660   6.804   5.049   0.825
75276SOL    HW127661   6.763   5.030   0.741
75276SOL    HW227662   6.826   4.964   0.861
75277SOL     OW27663  14.590   4.714  14.116
75277SOL    HW127664  14.581   4.650  14.186
75277SOL    HW227665  14.561   4.797  14.156
75278SOL     OW27666   7.548   7.345   3.487
75278SOL    HW127667   7.617   7.402   3.523
75278SOL    HW227668   7.588   7.258   3.483
75279SOL     OW27669   5.299   4.083  13.618
75279SOL    HW127670   5.325   4.041  13.535
75279SOL    HW227671   5.205   4.067  13.624
75280SOL     OW27672  13.586   1.128   7.552
75280SOL    HW127673  13.525   1.085   7.611
75280SOL    HW227674  13.659   1.154   7.607
75281SOL     OW27675  12.628   3.860   1.271
75281SOL    HW127676  12.638   3.915   1.349
75281SOL    HW227677  12.533   3.849   1.262
75282SOL     OW27678  12.847   9.906  13.896
75282SOL    HW127679  12.844   9.977  13.960
75282SOL    HW227680  12.819   9.828  13.945
75283SOL     OW27681   5.602  11.499   6.149
75283SOL    HW127682   5.543  11.547   6.207
75283SOL    HW227683   5.548  11.430   6.111
75284SOL     OW27684  13.885   9.282   3.959
75284SOL    HW127685  13.947   9.230   3.907
75284SOL    HW227686  13.920   9.371   3.955
75285SOL     OW27687  13.679  13.372   9.153
75285SOL    HW127688  13.599  13.381   9.101
75285SOL    HW227689  13.746  13.347   9.089
75286SOL     OW27690   7.330   2.678   7.756
75286SOL    HW127691   7.320   2.764   7.715
75286SOL    HW227692   7.242   2.641   7.756
75287SOL     OW27693  12.207   3.559   0.787
75287SOL    HW127694  12.152   3.515   0.723
75287SOL    HW227695  12.193   3.652   0.772
75288SOL     OW27696   1.727  14.471   0.682
75288SOL    HW127697   1.769  14.461   0.597
75288SOL    HW227698   1.776  14.412   0.740
75289SOL     OW27699   7.481   4.078  12.978
75289SOL    HW127700   7.536   4.000  12.978
75289SOL    HW227701   7.410   4.058  12.917
75290SOL     OW27702   5.207   8.051   5.072
75290SOL    HW127703   5.258   8.117   5.119
75290SOL    HW227704   5.235   7.968   5.109
75291SOL     OW27705   7.848  10.659  10.529
75291SOL    HW127706   7.942  10.673  10.527
75291SOL    HW227707   7.824  10.645  10.437
75292SOL     OW27708  12.580   5.305   6.430
75292SOL    HW127709  12.509   5.284   6.491
75292SOL    HW227710  12.572   5.240   6.360
75293SOL     OW27711  13.024   1.435   6.269
75293SOL    HW127712  13.028   1.511   6.328
75293SOL    HW227713  12.953   1.381   6.305
75294SOL     OW27714   6.055   4.338   1.508
75294SOL    HW127715   6.045   4.273   1.578
75294SOL    HW227716   6.041   4.422   1.552
75295SOL     OW27717   6.569   4.965   2.592
75295SOL    HW127718   6.590   4.877   2.560
75295SOL    HW227719   6.609   5.024   2.529
75296SOL     OW27720   8.456   8.710   3.511
75296SOL    HW127721   8.433   8.790   3.556
75296SOL    HW227722   8.373   8.673   3.481
75297SOL     OW27723  13.414  13.739  11.870
75297SOL    HW127724  13.426  13.711  11.779
75297SOL    HW227725  13.485  13.802  11.885
75298SOL     OW27726  12.846  12.582   6.476
75298SOL    HW127727  12.862  12.646   6.407
75298SOL    HW227728  12.929  12.578   6.524
75299SOL     OW27729  10.858   9.360   8.617
75299SOL    HW127730  10.928   9.395   8.562
75299SOL    HW227731  10.779   9.367   8.562
75300SOL     OW27732   3.817   4.086   5.285
75300SOL    HW127733   3.812   4.015   5.348
75300SOL    HW227734   3.905   4.081   5.249
75301SOL     OW27735   9.579  11.632  13.040
75301SOL    HW127736   9.594  11.548  13.083
75301SOL    HW227737   9.505  11.617  12.982
75302SOL     OW27738  10.306   1.116   2.918
75302SOL    HW127739  10.307   1.197   2.867
75302SOL    HW227740  10.214   1.090   2.918
75303SOL     OW27741   3.308   0.635  12.212
75303SOL    HW127742   3.250   0.656  12.139
75303SOL    HW227743   3.350   0.553  12.185
75304SOL     OW27744   8.079   8.083   3.427
75304SOL    HW127745   8.089   8.150   3.359
75304SOL    HW227746   7.986   8.087   3.451
75305SOL     OW27747  12.448   2.932  14.818
75305SOL    HW127748  12.542   2.947  14.822
75305SOL    HW227749  12.437   2.844  14.854
75306SOL     OW27750   9.019   0.281   5.018
75306SOL    HW127751   8.931   0.254   5.043
75306SOL    HW227752   9.071   0.201   5.021
75307SOL     OW27753   1.729  13.826  10.957
75307SOL    HW127754   1.803  13.880  10.931
75307SOL    HW227755   1.732  13.826  11.053
75308SOL     OW27756   1.158   8.800  10.912
75308SOL    HW127757   1.154   8.794  10.817
75308SOL    HW227758   1.089   8.741  10.942
75309SOL     OW27759   9.438   2.684   6.161
75309SOL    HW127760   9.367   2.694   6.098
75309SOL    HW227761   9.423   2.599   6.202
75310SOL     OW27762   3.424  14.328   1.443
75310SOL    HW127763   3.407  14.413   1.483
75310SOL    HW227764   3.519  14.320   1.444
75311SOL     OW27765   8.997   5.719   9.841
75311SOL    HW127766   8.955   5.801   9.864
75311SOL    HW227767   9.079   5.745   9.798
75312SOL     OW27768  14.515  11.463  14.232
75312SOL    HW127769  14.603  11.429  14.242
75312SOL    HW227770  14.476  11.455  14.320
75313SOL     OW27771  10.292   7.773  14.364
75313SOL    HW127772  10.212   7.744  14.321
75313SOL    HW227773  10.263   7.831  14.434
75314SOL     OW27774   3.296   0.296  14.557
75314SOL    HW127775   3.275   0.389  14.548
75314SOL    HW227776   3.213   0.255  14.578
75315SOL     OW27777   3.948  13.003   9.267
75315SOL    HW127778   3.880  13.042   9.213
75315SOL    HW227779   3.999  12.949   9.207
75316SOL     OW27780   3.615   8.978   4.663
75316SOL    HW127781   3.563   8.998   4.585
75316SOL    HW227782   3.550   8.965   4.732
75317SOL     OW27783  10.328  11.696  12.251
75317SOL    HW127784  10.283  11.673  12.169
75317SOL    HW227785  10.300  11.786  12.269
75318SOL     OW27786   5.575   5.156  10.900
75318SOL    HW127787   5.644   5.091  10.884
75318SOL    HW227788   5.536   5.172  10.814
75319SOL     OW27789   3.267   1.011   6.347
75319SOL    HW127790   3.307   0.931   6.381
75319SOL    HW227791   3.174   0.991   6.340
75320SOL     OW27792   7.469   8.997   1.377
75320SOL    HW127793   7.521   8.941   1.434
75320SOL    HW227794   7.378   8.972   1.396
75321SOL     OW27795  13.840   1.341  11.857
75321SOL    HW127796  13.757   1.338  11.810
75321SOL    HW227797  13.821   1.393  11.936
75322SOL     OW27798   6.895  10.273   4.452
75322SOL    HW127799   6.971  10.220   4.476
75322SOL    HW227800   6.899  10.278   4.356
75323SOL     OW27801   5.066   7.744  13.326
75323SOL    HW127802   5.079   7.665  13.379
75323SOL    HW227803   5.127   7.808  13.363
75324SOL     OW27804   1.393   4.994   9.243
75324SOL    HW127805   1.411   4.918   9.187
75324SOL    HW227806   1.475   5.010   9.289
75325SOL     OW27807  11.881  13.460   6.744
75325SOL    HW127808  11.958  13.516   6.746
75325SOL    HW227809  11.808  13.519   6.763
75326SOL     OW27810   2.472  10.906  13.761
75326SOL    HW127811   2.456  11.001  13.753
75326SOL    HW227812   2.448  10.885  13.851
75327SOL     OW27813  14.652   6.910   0.793
75327SOL    HW127814  14.564   6.876   0.776
75327SOL    HW227815  14.638   6.992   0.839
75328SOL     OW27816   4.693  11.142   9.025
75328SOL    HW127817   4.694  11.229   9.064
75328SOL    HW227818   4.682  11.083   9.099
75329SOL     OW27819   2.629   2.072   9.566
75329SOL    HW127820   2.573   2.066   9.644
75329SOL    HW227821   2.646   1.981   9.542
75330SOL     OW27822   5.532   4.843   1.563
75330SOL    HW127823   5.466   4.785   1.602
75330SOL    HW227824   5.574   4.789   1.495
75331SOL     OW27825   8.838  13.056   7.840
75331SOL    HW127826   8.825  13.118   7.912
75331SOL    HW227827   8.877  12.979   7.881
75332SOL     OW27828   4.937   6.039   8.799
75332SOL    HW127829   4.974   6.088   8.872
75332SOL    HW227830   4.916   6.105   8.733
75333SOL     OW27831   4.891   8.834   2.539
75333SOL    HW127832   4.964   8.773   2.547
75333SOL    HW227833   4.857   8.844   2.628
75334SOL     OW27834   9.147  11.082   8.782
75334SOL    HW127835   9.139  11.100   8.688
75334SOL    HW227836   9.078  11.136   8.822
75335SOL     OW27837   6.670   7.872  14.747
75335SOL    HW127838   6.722   7.879  14.827
75335SOL    HW227839   6.706   7.797  14.701
75336SOL     OW27840  11.543   8.198   9.269
75336SOL    HW127841  11.582   8.266   9.323
75336SOL    HW227842  11.479   8.154   9.326
75337SOL     OW27843   5.314   5.348   2.073
75337SOL    HW127844   5.228   5.349   2.114
75337SOL    HW227845   5.322   5.260   2.036
75338SOL     OW27846   4.878  13.633   2.240
75338SOL    HW127847   4.932  13.554   2.249
75338SOL    HW227848   4.789  13.599   2.230
75339SOL     OW27849   8.132  11.878   8.883
75339SOL    HW127850   8.100  11.797   8.922
75339SOL    HW227851   8.196  11.850   8.818
75340SOL     OW27852  14.043   7.879  10.031
75340SOL    HW127853  14.094   7.875  10.112
75340SOL    HW227854  14.079   7.808   9.977
75341SOL     OW27855  10.836   4.255   4.643
75341SOL    HW127856  10.765   4.230   4.703
75341SOL    HW227857  10.792   4.297   4.569
75342SOL     OW27858   2.852  10.987   1.805
75342SOL    HW127859   2.886  11.007   1.892
75342SOL    HW227860   2.853  10.892   1.800
75343SOL     OW27861   6.269   3.515   8.846
75343SOL    HW127862   6.281   3.606   8.872
75343SOL    HW227863   6.285   3.465   8.926
75344SOL     OW27864   9.748   1.108   9.824
75344SOL    HW127865   9.696   1.169   9.876
75344SOL    HW227866   9.686   1.038   9.800
75345SOL     OW27867   7.592  11.840   9.856
75345SOL    HW127868   7.684  11.824   9.834
75345SOL    HW227869   7.594  11.872   9.947
75346SOL     OW27870   7.886   8.407   6.228
75346SOL    HW127871   7.921   8.491   6.256
75346SOL    HW227872   7.802   8.427   6.188
75347SOL     OW27873   1.656  12.225   7.883
75347SOL    HW127874   1.617  12.279   7.815
75347SOL    HW227875   1.696  12.288   7.944
75348SOL     OW27876   0.885   3.839   9.199
75348SOL    HW127877   0.959   3.787   9.168
75348SOL    HW227878   0.835   3.778   9.255
75349SOL     OW27879   3.341  10.708  13.791
75349SOL    HW127880   3.394  10.705  13.711
75349SOL    HW227881   3.297  10.793  13.787
75350SOL     OW27882   6.515   1.551  14.351
75350SOL    HW127883   6.582   1.496  14.310
75350SOL    HW227884   6.478   1.602  14.279
75351SOL     OW27885   6.140   9.390   6.775
75351SOL    HW127886   6.194   9.445   6.717
75351SOL    HW227887   6.051   9.398   6.739
75352SOL     OW27888   4.320   1.623  12.777
75352SOL    HW127889   4.323   1.718  12.768
75352SOL    HW227890   4.394   1.602  12.834
75353SOL     OW27891  12.563   7.623  12.312
75353SOL    HW127892  12.584   7.531  12.325
75353SOL    HW227893  12.473   7.623  12.279
75354SOL     OW27894   4.092  11.808   2.221
75354SOL    HW127895   4.109  11.861   2.143
75354SOL    HW227896   4.178  11.796   2.261
75355SOL     OW27897   9.807  10.662   1.783
75355SOL    HW127898   9.898  10.656   1.812
75355SOL    HW227899   9.756  10.668   1.864
75356SOL     OW27900   3.051  10.936  11.004
75356SOL    HW127901   3.142  10.906  11.005
75356SOL    HW227902   3.051  11.013  10.948
75357SOL     OW27903   7.974   1.859   2.738
75357SOL    HW127904   8.010   1.771   2.729
75357SOL    HW227905   7.954   1.867   2.831
75358SOL     OW27906   0.438   4.489   0.166
75358SOL    HW127907   0.412   4.399   0.148
75358SOL    HW227908   0.440   4.495   0.262
75359SOL     OW27909  11.562   9.534  14.122
75359SOL    HW127910  11.504   9.520  14.048
75359SOL    HW227911  11.542   9.623  14.151
75360SOL     OW27912   9.568  12.276   5.553
75360SOL    HW127913   9.546  12.300   5.463
75360SOL    HW227914   9.657  12.241   5.547
75361SOL     OW27915  12.581   8.384   8.130
75361SOL    HW127916  12.565   8.405   8.038
75361SOL    HW227917  12.619   8.464   8.167
75362SOL     OW27918  14.553   4.529   0.424
75362SOL    HW127919  14.621   4.497   0.483
75362SOL    HW227920  14.496   4.453   0.409
75363SOL     OW27921   2.338   0.496   7.723
75363SOL    HW127922   2.275   0.456   7.782
75363SOL    HW227923   2.327   0.449   7.641
75364SOL     OW27924  10.965   3.050  10.654
75364SOL    HW127925  11.013   3.061  10.572
75364SOL    HW227926  10.881   3.094  10.640
75365SOL     OW27927   5.926   0.152  11.469
75365SOL    HW127928   5.858   0.170  11.534
75365SOL    HW227929   5.902   0.067  11.432
75366SOL     OW27930  11.052   2.042   3.214
75366SOL    HW127931  11.097   2.123   3.191
75366SOL    HW227932  11.108   1.972   3.181
75367SOL     OW27933   0.037   5.769   7.843
75367SOL    HW127934  14.839   5.800   7.796
75367SOL    HW227935   0.106   5.766   7.775
75368SOL     OW27936   5.156  10.929   7.723
75368SOL    HW127937   5.231  10.931   7.783
75368SOL    HW227938   5.185  10.874   7.650
75369SOL     OW27939   2.604   6.627   9.650
75369SOL    HW127940   2.642   6.708   9.614
75369SOL    HW227941   2.671   6.561   9.635
75370SOL     OW27942  10.784   2.228   8.444
75370SOL    HW127943  10.855   2.211   8.381
75370SOL    HW227944  10.816   2.302   8.495
75371SOL     OW27945  11.422   0.422   4.130
75371SOL    HW127946  11.400   0.515   4.136
75371SOL    HW227947  11.339   0.378   4.112
75372SOL     OW27948   7.033   7.773   6.541
75372SOL    HW127949   7.042   7.791   6.447
75372SOL    HW227950   7.122   7.766   6.573
75373SOL     OW27951   9.593  13.648  12.584
75373SOL    HW127952   9.649  13.696  12.522
75373SOL    HW227953   9.526  13.711  12.610
75374SOL     OW27954   8.503   3.088   3.550
75374SOL    HW127955   8.557   3.090   3.471
75374SOL    HW227956   8.431   3.148   3.531
75375SOL     OW27957   8.222   5.800  13.391
75375SOL    HW127958   8.259   5.738  13.454
75375SOL    HW227959   8.211   5.881  13.440
75376SOL     OW27960   7.275  10.102  13.565
75376SOL    HW127961   7.322  10.182  13.542
75376SOL    HW227962   7.293  10.089  13.658
75377SOL     OW27963  12.496   1.099  13.246
75377SOL    HW127964  12.436   1.173  13.238
75377SOL    HW227965  12.487   1.052  13.164
75378SOL     OW27966   2.977   0.598  11.317
75378SOL    HW127967   2.905   0.594  11.380
75378SOL    HW227968   3.024   0.516  11.328
75379SOL     OW27969  14.436  11.573   5.019
75379SOL    HW127970  14.491  11.535   4.951
75379SOL    HW227971  14.356  11.520   5.017
75380SOL     OW27972   5.439   2.496   1.759
75380SOL    HW127973   5.349   2.474   1.736
75380SOL    HW227974   5.484   2.411   1.764
75381SOL     OW27975   8.094   2.491  14.291
75381SOL    HW127976   8.058   2.579  14.291
75381SOL    HW227977   8.109   2.471  14.199
75382SOL     OW27978   0.810  13.707   9.210
75382SOL    HW127979   0.843  13.792   9.239
75382SOL    HW227980   0.805  13.714   9.115
75383SOL     OW27981  13.144   1.572  10.413
75383SOL    HW127982  13.078   1.603  10.350
75383SOL    HW227983  13.134   1.630  10.489
75384SOL     OW27984   5.358   2.214  14.813
75384SOL    HW127985   5.287   2.278  14.809
75384SOL    HW227986   5.353   2.179   0.023
75385SOL     OW27987  11.577   5.359  14.301
75385SOL    HW127988  11.663   5.389  14.272
75385SOL    HW227989  11.532   5.440  14.327
75386SOL     OW27990  11.492  14.048   2.761
75386SOL    HW127991  11.550  13.973   2.747
75386SOL    HW227992  11.404  14.014   2.745
75387SOL     OW27993   3.201   4.575   9.298
75387SOL    HW127994   3.257   4.530   9.234
75387SOL    HW227995   3.261   4.618   9.357
75388SOL     OW27996   9.239   3.227   5.246
75388SOL    HW127997   9.245   3.225   5.341
75388SOL    HW227998   9.190   3.307   5.226
75389SOL     OW27999   9.229  11.072  13.449
75389SOL    HW128000   9.202  11.128  13.522
75389SOL    HW228001   9.209  10.983  13.479
75390SOL     OW28002  14.667  14.438   8.419
75390SOL    HW128003  14.596  14.378   8.395
75390SOL    HW228004  14.747  14.392   8.393
75391SOL     OW28005   0.938  12.452   4.703
75391SOL    HW128006   0.958  12.488   4.789
75391SOL    HW228007   0.859  12.499   4.675
75392SOL     OW28008   2.699  14.381  12.034
75392SOL    HW128009   2.755  14.424  11.969
75392SOL    HW228010   2.718  14.288  12.025
75393SOL     OW28011   8.152  12.435  10.189
75393SOL    HW128012   8.245  12.412  10.184
75393SOL    HW228013   8.122  12.431  10.098
75394SOL     OW28014   9.214   9.496  10.363
75394SOL    HW128015   9.140   9.446  10.329
75394SOL    HW228016   9.282   9.485  10.297
75395SOL     OW28017  12.819   1.357   0.520
75395SOL    HW128018  12.885   1.369   0.452
75395SOL    HW228019  12.796   1.446   0.548
75396SOL     OW28020   7.911   7.638   5.432
75396SOL    HW128021   7.823   7.600   5.422
75396SOL    HW228022   7.895   7.731   5.448
75397SOL     OW28023   1.265   1.365   6.303
75397SOL    HW128024   1.277   1.402   6.215
75397SOL    HW228025   1.176   1.391   6.327
75398SOL     OW28026  11.783   6.552   4.904
75398SOL    HW128027  11.763   6.508   4.987
75398SOL    HW228028  11.801   6.480   4.843
75399SOL     OW28029   4.601  11.331  11.672
75399SOL    HW128030   4.660  11.265  11.636
75399SOL    HW228031   4.596  11.398  11.604
75400SOL     OW28032   7.307   6.756   4.618
75400SOL    HW128033   7.321   6.817   4.690
75400SOL    HW228034   7.385   6.701   4.619
75401SOL     OW28035   6.710  12.571   1.127
75401SOL    HW128036   6.754  12.584   1.211
75401SOL    HW228037   6.618  12.592   1.144
75402SOL     OW28038   8.173   1.403   4.330
75402SOL    HW128039   8.233   1.383   4.258
75402SOL    HW228040   8.100   1.344   4.317
75403SOL     OW28041   8.781   6.983   2.807
75403SOL    HW128042   8.754   6.999   2.898
75403SOL    HW228043   8.836   6.904   2.812
75404SOL     OW28044   2.830   5.924  10.608
75404SOL    HW128045   2.905   5.864  10.600
75404SOL    HW228046   2.864   6.009  10.579
75405SOL     OW28047   6.999   4.341  11.821
75405SOL    HW128048   7.078   4.390  11.843
75405SOL    HW228049   7.029   4.252  11.807
75406SOL     OW28050  10.029   6.125   6.237
75406SOL    HW128051   9.990   6.058   6.181
75406SOL    HW228052  10.049   6.198   6.177
75407SOL     OW28053   6.181   2.730   5.249
75407SOL    HW128054   6.183   2.714   5.154
75407SOL    HW228055   6.243   2.667   5.285
75408SOL     OW28056  12.286   5.542   4.366
75408SOL    HW128057  12.317   5.494   4.289
75408SOL    HW228058  12.334   5.625   4.363
75409SOL     OW28059   5.443   9.014  13.854
75409SOL    HW128060   5.389   9.038  13.929
75409SOL    HW228061   5.383   9.012  13.780
75410SOL     OW28062  11.037   2.696   1.759
75410SOL    HW128063  10.989   2.655   1.687
75410SOL    HW228064  11.021   2.639   1.834
75411SOL     OW28065  12.603   5.691   6.952
75411SOL    HW128066  12.527   5.661   7.001
75411SOL    HW228067  12.663   5.617   6.952
75412SOL     OW28068  12.882   8.909  12.133
75412SOL    HW128069  12.888   8.971  12.060
75412SOL    HW228070  12.959   8.853  12.123
75413SOL     OW28071   2.128   5.792   7.213
75413SOL    HW128072   2.202   5.733   7.222
75413SOL    HW228073   2.057   5.750   7.262
75414SOL     OW28074   0.633   9.201   0.935
75414SOL    HW128075   0.630   9.120   0.885
75414SOL    HW228076   0.542   9.229   0.942
75415SOL     OW28077  10.003   4.271   3.366
75415SOL    HW128078   9.997   4.257   3.272
75415SOL    HW228079   9.979   4.187   3.405
75416SOL     OW28080   4.512   6.974  12.901
75416SOL    HW128081   4.510   7.064  12.934
75416SOL    HW228082   4.564   6.926  12.965
75417SOL     OW28083   0.998   4.279   0.548
75417SOL    HW128084   0.942   4.213   0.588
75417SOL    HW228085   1.049   4.232   0.483
75418SOL     OW28086   4.044   0.268  10.355
75418SOL    HW128087   4.031   0.361  10.333
75418SOL    HW228088   4.062   0.225  10.272
75419SOL     OW28089  11.657  11.988   9.714
75419SOL    HW128090  11.728  11.987   9.778
75419SOL    HW228091  11.631  12.080   9.708
75420SOL     OW28092   5.562  11.614   4.630
75420SOL    HW128093   5.577  11.580   4.718
75420SOL    HW228094   5.574  11.538   4.573
75421SOL     OW28095   5.139  14.585  11.668
75421SOL    HW128096   5.102  14.664  11.629
75421SOL    HW228097   5.182  14.616  11.748
75422SOL     OW28098  11.975   5.286  10.143
75422SOL    HW128099  11.945   5.304  10.055
75422SOL    HW228100  11.898   5.255  10.190
75423SOL     OW28101   6.025  11.550  11.298
75423SOL    HW128102   6.104  11.604  11.293
75423SOL    HW228103   5.970  11.593  11.363
75424SOL     OW28104   9.466   6.276  14.034
75424SOL    HW128105   9.521   6.304  13.962
75424SOL    HW228106   9.376   6.287  14.002
75425SOL     OW28107   1.837  13.157  13.656
75425SOL    HW128108   1.922  13.136  13.694
75425SOL    HW228109   1.794  13.212  13.722
75426SOL     OW28110   6.309   0.580   1.796
75426SOL    HW128111   6.387   0.560   1.744
75426SOL    HW228112   6.310   0.516   1.867
75427SOL     OW28113   4.416   7.415  10.507
75427SOL    HW128114   4.455   7.435  10.422
75427SOL    HW228115   4.386   7.499  10.540
75428SOL     OW28116   5.006  12.357  10.242
75428SOL    HW128117   5.009  12.261  10.246
75428SOL    HW228118   4.956  12.376  10.163
75429SOL     OW28119   3.508   2.339   1.140
75429SOL    HW128120   3.552   2.357   1.057
75429SOL    HW228121   3.494   2.425   1.179
75430SOL     OW28122   9.794   0.311   0.207
75430SOL    HW128123   9.744   0.234   0.233
75430SOL    HW228124   9.885   0.288   0.226
75431SOL     OW28125  10.546   9.180   0.351
75431SOL    HW128126  10.490   9.208   0.423
75431SOL    HW228127  10.538   9.250   0.286
75432SOL     OW28128   4.646   2.737   7.808
75432SOL    HW128129   4.626   2.726   7.716
75432SOL    HW228130   4.665   2.649   7.840
75433SOL     OW28131   9.570   7.861   5.703
75433SOL    HW128132   9.649   7.815   5.731
75433SOL    HW228133   9.603   7.933   5.648
75434SOL     OW28134   9.594  11.858   4.453
75434SOL    HW128135   9.502  11.884   4.447
75434SOL    HW228136   9.611  11.847   4.546
75435SOL     OW28137   9.434   7.721   9.690
75435SOL    HW128138   9.496   7.793   9.701
75435SOL    HW228139   9.398   7.734   9.602
75436SOL     OW28140   5.483   3.048  13.296
75436SOL    HW128141   5.531   3.061  13.214
75436SOL    HW228142   5.392   3.069  13.274
75437SOL     OW28143  13.434   1.066   9.130
75437SOL    HW128144  13.394   0.992   9.174
75437SOL    HW228145  13.424   1.048   9.037
75438SOL     OW28146  14.552   7.298   3.805
75438SOL    HW128147  14.635   7.343   3.823
75438SOL    HW228148  14.540   7.307   3.710
75439SOL     OW28149   7.232   5.767  13.566
75439SOL    HW128150   7.211   5.821  13.490
75439SOL    HW228151   7.226   5.827  13.640
75440SOL     OW28152   1.083   5.870   7.377
75440SOL    HW128153   1.066   5.895   7.286
75440SOL    HW228154   1.059   5.948   7.427
75441SOL     OW28155   8.859  10.279  10.788
75441SOL    HW128156   8.923  10.334  10.742
75441SOL    HW228157   8.912  10.212  10.831
75442SOL     OW28158  13.304  10.956  11.890
75442SOL    HW128159  13.348  11.041  11.889
75442SOL    HW228160  13.249  10.956  11.811
75443SOL     OW28161   7.858   7.883   7.594
75443SOL    HW128162   7.770   7.919   7.607
75443SOL    HW228163   7.889   7.863   7.683
75444SOL     OW28164   7.499   2.239   7.088
75444SOL    HW128165   7.450   2.160   7.062
75444SOL    HW228166   7.435   2.291   7.137
75445SOL     OW28167   4.830   2.613   0.356
75445SOL    HW128168   4.923   2.618   0.377
75445SOL    HW228169   4.785   2.632   0.438
75446SOL     OW28170  13.716   2.582   5.549
75446SOL    HW128171  13.626   2.552   5.539
75446SOL    HW228172  13.741   2.551   5.636
75447SOL     OW28173   4.478   8.236  11.947
75447SOL    HW128174   4.561   8.214  11.988
75447SOL    HW228175   4.489   8.326  11.916
75448SOL     OW28176  12.434   7.791  13.324
75448SOL    HW128177  12.488   7.856  13.369
75448SOL    HW228178  12.448   7.710  13.373
75449SOL     OW28179  14.248  12.891   4.959
75449SOL    HW128180  14.182  12.863   5.023
75449SOL    HW228181  14.210  12.869   4.874
75450SOL     OW28182   6.389   6.136   1.286
75450SOL    HW128183   6.381   6.054   1.336
75450SOL    HW228184   6.357   6.113   1.198
75451SOL     OW28185  13.754   6.714   7.911
75451SOL    HW128186  13.679   6.760   7.949
75451SOL    HW228187  13.829   6.772   7.929
75452SOL     OW28188   0.761   3.838   2.500
75452SOL    HW128189   0.834   3.898   2.491
75452SOL    HW228190   0.789   3.776   2.568
75453SOL     OW28191  14.075   5.999  12.513
75453SOL    HW128192  14.157   6.048  12.522
75453SOL    HW228193  14.099   5.923  12.460
75454SOL     OW28194   7.366   4.221   4.011
75454SOL    HW128195   7.363   4.248   4.103
75454SOL    HW228196   7.312   4.142   4.007
75455SOL     OW28197   6.788   5.294   8.873
75455SOL    HW128198   6.726   5.257   8.936
75455SOL    HW228199   6.844   5.221   8.849
75456SOL     OW28200   4.263  12.073  10.605
75456SOL    HW128201   4.255  11.984  10.572
75456SOL    HW228202   4.331  12.068  10.672
75457SOL     OW28203   2.579   1.742   0.208
75457SOL    HW128204   2.665   1.706   0.187
75457SOL    HW228205   2.592   1.791   0.289
75458SOL     OW28206   9.027  12.501   3.815
75458SOL    HW128207   9.051  12.586   3.779
75458SOL    HW228208   9.082  12.492   3.893
75459SOL     OW28209  14.443   7.776  14.236
75459SOL    HW128210  14.367   7.765  14.178
75459SOL    HW228211  14.510   7.816  14.181
75460SOL     OW28212   9.765   5.451   7.713
75460SOL    HW128213   9.781   5.525   7.655
75460SOL    HW228214   9.776   5.373   7.658
75461SOL     OW28215   9.822   5.664   9.341
75461SOL    HW128216   9.814   5.646   9.247
75461SOL    HW228217   9.910   5.634   9.363
75462SOL     OW28218   9.462   3.653   3.648
75462SOL    HW128219   9.381   3.674   3.694
75462SOL    HW228220   9.455   3.698   3.564
75463SOL     OW28221   6.613   8.845  10.883
75463SOL    HW128222   6.701   8.859  10.850
75463SOL    HW228223   6.587   8.930  10.919
75464SOL     OW28224   6.449   0.075  10.039
75464SOL    HW128225   6.443   0.018   9.962
75464SOL    HW228226   6.376   0.136  10.029
75465SOL     OW28227   7.949  11.354   9.195
75465SOL    HW128228   7.931  11.265   9.163
75465SOL    HW228229   7.936  11.409   9.118
75466SOL     OW28230   2.523   9.678   7.029
75466SOL    HW128231   2.600   9.631   6.998
75466SOL    HW228232   2.557   9.757   7.070
75467SOL     OW28233  10.991   4.392   0.871
75467SOL    HW128234  11.068   4.418   0.820
75467SOL    HW228235  10.987   4.455   0.943
75468SOL     OW28236   7.448  12.426   4.579
75468SOL    HW128237   7.475  12.376   4.502
75468SOL    HW228238   7.431  12.361   4.646
75469SOL     OW28239   5.795   3.773   0.375
75469SOL    HW128240   5.725   3.837   0.357
75469SOL    HW228241   5.756   3.713   0.439
75470SOL     OW28242   5.739   0.658   0.957
75470SOL    HW128243   5.663   0.613   0.995
75470SOL    HW228244   5.770   0.599   0.888
75471SOL     OW28245  11.497   0.999   5.280
75471SOL    HW128246  11.511   0.931   5.345
75471SOL    HW228247  11.584   1.037   5.266
75472SOL     OW28248   8.418   6.835   2.173
75472SOL    HW128249   8.336   6.825   2.124
75472SOL    HW228250   8.474   6.765   2.141
75473SOL     OW28251   8.267   2.742   4.537
75473SOL    HW128252   8.196   2.692   4.498
75473SOL    HW228253   8.344   2.686   4.526
75474SOL     OW28254   2.978   4.224   7.374
75474SOL    HW128255   2.924   4.190   7.446
75474SOL    HW228256   2.974   4.156   7.307
75475SOL     OW28257  14.194   7.558   4.170
75475SOL    HW128258  14.206   7.650   4.148
75475SOL    HW228259  14.277   7.531   4.207
75476SOL     OW28260  10.458   2.814   7.433
75476SOL    HW128261  10.410   2.796   7.514
75476SOL    HW228262  10.475   2.728   7.395
75477SOL     OW28263   0.370   2.427   8.828
75477SOL    HW128264   0.283   2.468   8.840
75477SOL    HW228265   0.407   2.472   8.752
75478SOL     OW28266   5.938   6.582   9.617
75478SOL    HW128267   5.859   6.531   9.603
75478SOL    HW228268   5.932   6.654   9.554
75479SOL     OW28269   6.482   1.049   9.957
75479SOL    HW128270   6.546   1.012  10.018
75479SOL    HW228271   6.514   1.021   9.870
75480SOL     OW28272   1.291  12.040   5.726
75480SOL    HW128273   1.335  11.969   5.771
75480SOL    HW228274   1.249  11.998   5.650
75481SOL     OW28275   0.949  14.589  10.891
75481SOL    HW128276   0.905  14.534  10.826
75481SOL    HW228277   0.877  14.628  10.941
75482SOL     OW28278  14.602   1.665   8.889
75482SOL    HW128279  14.678   1.623   8.850
75482SOL    HW228280  14.611   1.649   8.983
75483SOL     OW28281   7.653   6.338   1.053
75483SOL    HW128282   7.640   6.305   1.142
75483SOL    HW228283   7.716   6.276   1.014
75484SOL     OW28284   4.314  11.949   5.514
75484SOL    HW128285   4.304  11.871   5.569
75484SOL    HW228286   4.399  11.936   5.471
75485SOL     OW28287   2.197   4.434   3.916
75485SOL    HW128288   2.282   4.412   3.877
75485SOL    HW228289   2.162   4.502   3.859
75486SOL     OW28290  14.388   0.216  11.277
75486SOL    HW128291  14.456   0.275  11.244
75486SOL    HW228292  14.430   0.131  11.280
75487SOL     OW28293  13.776   7.664  12.317
75487SOL    HW128294  13.707   7.692  12.377
75487SOL    HW228295  13.792   7.572  12.339
75488SOL     OW28296   0.018  14.671   3.984
75488SOL    HW128297   0.029  14.584   3.945
75488SOL    HW228298  14.802  14.683   3.990
75489SOL     OW28299   1.209   5.539  11.178
75489SOL    HW128300   1.186   5.516  11.088
75489SOL    HW228301   1.169   5.471  11.232
75490SOL     OW28302  11.208   7.729   8.868
75490SOL    HW128303  11.209   7.679   8.950
75490SOL    HW228304  11.180   7.817   8.895
75491SOL     OW28305   2.287  12.318  10.083
75491SOL    HW128306   2.226  12.362  10.143
75491SOL    HW228307   2.230  12.282  10.015
75492SOL     OW28308   7.154   9.622  14.096
75492SOL    HW128309   7.191   9.536  14.078
75492SOL    HW228310   7.203   9.654  14.172
75493SOL     OW28311   7.658   9.966   7.715
75493SOL    HW128312   7.687   9.888   7.761
75493SOL    HW228313   7.562   9.961   7.718
75494SOL     OW28314   9.154   4.575   0.986
75494SOL    HW128315   9.171   4.486   0.955
75494SOL    HW228316   9.229   4.627   0.954
75495SOL     OW28317  14.616   1.402   7.560
75495SOL    HW128318  14.587   1.492   7.545
75495SOL    HW228319  14.648   1.402   7.650
75496SOL     OW28320   7.354  13.085   1.212
75496SOL    HW128321   7.322  13.132   1.134
75496SOL    HW228322   7.278  13.036   1.243
75497SOL     OW28323  10.230   5.558   5.832
75497SOL    HW128324  10.248   5.477   5.784
75497SOL    HW228325  10.314   5.584   5.868
75498SOL     OW28326   7.783   2.851   5.447
75498SOL    HW128327   7.806   2.841   5.539
75498SOL    HW228328   7.797   2.944   5.429
75499SOL     OW28329   1.382   9.545   7.487
75499SOL    HW128330   1.288   9.529   7.500
75499SOL    HW228331   1.408   9.482   7.421
75500SOL     OW28332   5.158   3.264   9.777
75500SOL    HW128333   5.134   3.332   9.840
75500SOL    HW228334   5.095   3.193   9.793
75501SOL     OW28335  13.536  12.203  11.665
75501SOL    HW128336  13.507  12.214  11.756
75501SOL    HW228337  13.468  12.148  11.626
75502SOL     OW28338   4.013   2.192  13.290
75502SOL    HW128339   3.959   2.214  13.214
75502SOL    HW228340   4.054   2.274  13.316
75503SOL     OW28341   0.548  12.805   6.781
75503SOL    HW128342   0.549  12.758   6.865
75503SOL    HW228343   0.488  12.755   6.726
75504SOL     OW28344   2.723   4.236   4.169
75504SOL    HW128345   2.756   4.287   4.095
75504SOL    HW228346   2.633   4.214   4.144
75505SOL     OW28347   8.990   9.259   1.214
75505SOL    HW128348   9.015   9.168   1.230
75505SOL    HW228349   8.895   9.261   1.229
75506SOL     OW28350   8.525  12.382  13.343
75506SOL    HW128351   8.616  12.393  13.373
75506SOL    HW228352   8.480  12.345  13.419
75507SOL     OW28353   4.396   1.923   6.901
75507SOL    HW128354   4.323   1.920   6.963
75507SOL    HW228355   4.416   1.831   6.883
75508SOL     OW28356  10.635   4.532  12.591
75508SOL    HW128357  10.722   4.494  12.598
75508SOL    HW228358  10.588   4.473  12.531
75509SOL     OW28359   6.215   4.816   4.356
75509SOL    HW128360   6.231   4.739   4.301
75509SOL    HW228361   6.185   4.780   4.439
75510SOL     OW28362   7.567  14.083  14.864
75510SOL    HW128363   7.634  14.051  14.804
75510SOL    HW228364   7.491  14.100  14.809
75511SOL     OW28365  10.864   2.195  13.271
75511SOL    HW128366  10.909   2.256  13.213
75511SOL    HW228367  10.909   2.205  13.355
75512SOL     OW28368   1.252   7.367  10.473
75512SOL    HW128369   1.240   7.449  10.521
75512SOL    HW228370   1.174   7.315  10.494
75513SOL     OW28371   9.695   3.738   9.275
75513SOL    HW128372   9.778   3.774   9.243
75513SOL    HW228373   9.714   3.709   9.364
75514SOL     OW28374   3.782  11.921  13.410
75514SOL    HW128375   3.853  11.859  13.427
75514SOL    HW228376   3.741  11.889  13.329
75515SOL     OW28377  10.092   8.780  14.530
75515SOL    HW128378  10.119   8.871  14.517
75515SOL    HW228379  10.030   8.782  14.603
75516SOL     OW28380  14.608   5.978   8.019
75516SOL    HW128381  14.580   5.889   7.999
75516SOL    HW228382  14.548   6.007   8.088
75517SOL     OW28383   5.658   5.307   3.272
75517SOL    HW128384   5.670   5.385   3.327
75517SOL    HW228385   5.574   5.320   3.229
75518SOL     OW28386   9.931  14.193   6.609
75518SOL    HW128387   9.872  14.214   6.681
75518SOL    HW228388   9.967  14.278   6.583
75519SOL     OW28389  10.620  14.498   7.988
75519SOL    HW128390  10.594  14.539   8.071
75519SOL    HW228391  10.659  14.569   7.938
75520SOL     OW28392   7.939   4.972   7.194
75520SOL    HW128393   7.921   4.879   7.208
75520SOL    HW228394   7.999   4.973   7.119
75521SOL     OW28395   4.721  12.618   1.641
75521SOL    HW128396   4.631  12.595   1.665
75521SOL    HW228397   4.752  12.670   1.715
75522SOL     OW28398   9.443  13.329   6.860
75522SOL    HW128399   9.363  13.337   6.912
75522SOL    HW228400   9.433  13.393   6.790
75523SOL     OW28401   2.547   1.548   3.711
75523SOL    HW128402   2.548   1.456   3.734
75523SOL    HW228403   2.466   1.582   3.748
75524SOL     OW28404   7.058  11.575   0.288
75524SOL    HW128405   7.111  11.525   0.225
75524SOL    HW228406   7.045  11.514   0.361
75525SOL     OW28407  14.589  11.066   7.517
75525SOL    HW128408  14.628  11.011   7.585
75525SOL    HW228409  14.619  11.155   7.538
75526SOL     OW28410   7.307   0.684  14.249
75526SOL    HW128411   7.213   0.688  14.264
75526SOL    HW228412   7.341   0.765  14.287
75527SOL     OW28413   1.504   5.875  12.295
75527SOL    HW128414   1.445   5.930  12.243
75527SOL    HW228415   1.513   5.922  12.378
75528SOL     OW28416   3.042   1.224  10.352
75528SOL    HW128417   3.066   1.188  10.267
75528SOL    HW228418   2.991   1.155  10.393
75529SOL     OW28419  12.618  12.903   7.909
75529SOL    HW128420  12.586  12.893   7.820
75529SOL    HW228421  12.700  12.852   7.911
75530SOL     OW28422   7.553   8.306  12.638
75530SOL    HW128423   7.588   8.219  12.619
75530SOL    HW228424   7.563   8.354  12.556
75531SOL     OW28425  11.423  12.886  12.332
75531SOL    HW128426  11.460  12.798  12.326
75531SOL    HW228427  11.493  12.944  12.300
75532SOL     OW28428   2.653  10.688  13.577
75532SOL    HW128429   2.697  10.773  13.583
75532SOL    HW228430   2.681  10.652  13.493
75533SOL     OW28431   0.208  11.785   4.100
75533SOL    HW128432   0.276  11.838   4.060
75533SOL    HW228433   0.153  11.757   4.027
75534SOL     OW28434  13.777   9.643   2.145
75534SOL    HW128435  13.797   9.623   2.236
75534SOL    HW228436  13.737   9.730   2.147
75535SOL     OW28437   1.469  12.921   6.334
75535SOL    HW128438   1.400  12.948   6.274
75535SOL    HW228439   1.424  12.864   6.398
75536SOL     OW28440   5.027  12.432  13.252
75536SOL    HW128441   5.061  12.520  13.268
75536SOL    HW228442   5.028  12.422  13.157
75537SOL     OW28443  14.182   6.316   8.093
75537SOL    HW128444  14.114   6.258   8.059
75537SOL    HW228445  14.154   6.404   8.066
75538SOL     OW28446  13.621  12.825   9.903
75538SOL    HW128447  13.707  12.810   9.862
75538SOL    HW228448  13.566  12.755   9.868
75539SOL     OW28449   2.267   2.304  13.051
75539SOL    HW128450   2.337   2.263  13.101
75539SOL    HW228451   2.273   2.397  13.071
75540SOL     OW28452  11.011  14.777   6.254
75540SOL    HW128453  10.954  14.834   6.305
75540SOL    HW228454  10.991  14.688   6.284
75541SOL     OW28455  13.777   7.283   0.192
75541SOL    HW128456  13.797   7.230   0.114
75541SOL    HW228457  13.710   7.344   0.162
75542SOL     OW28458  11.898   0.972  11.551
75542SOL    HW128459  11.931   0.899  11.603
75542SOL    HW228460  11.938   1.050  11.590
75543SOL     OW28461   4.059   2.995   3.119
75543SOL    HW128462   4.117   3.071   3.113
75543SOL    HW228463   3.972   3.028   3.098
75544SOL     OW28464   2.120   7.333   6.694
75544SOL    HW128465   2.092   7.421   6.722
75544SOL    HW228466   2.215   7.337   6.697
75545SOL     OW28467  10.110   7.091   6.551
75545SOL    HW128468  10.133   7.066   6.462
75545SOL    HW228469  10.148   7.178   6.562
75546SOL     OW28470   6.266   3.785   5.402
75546SOL    HW128471   6.287   3.879   5.397
75546SOL    HW228472   6.188   3.775   5.348
75547SOL     OW28473  14.727  10.810   5.529
75547SOL    HW128474  14.644  10.791   5.573
75547SOL    HW228475  14.717  10.899   5.495
75548SOL     OW28476   1.842  14.497  10.716
75548SOL    HW128477   1.877  14.442  10.645
75548SOL    HW228478   1.806  14.435  10.779
75549SOL     OW28479   3.358   7.563   1.503
75549SOL    HW128480   3.367   7.591   1.412
75549SOL    HW228481   3.363   7.468   1.500
75550SOL     OW28482  10.882   2.325   4.174
75550SOL    HW128483  10.943   2.329   4.248
75550SOL    HW228484  10.800   2.293   4.212
75551SOL     OW28485   6.875   0.795  14.852
75551SOL    HW128486   6.891   0.886  14.829
75551SOL    HW228487   6.960   0.760  14.877
75552SOL     OW28488  12.544  11.440   2.616
75552SOL    HW128489  12.582  11.527   2.607
75552SOL    HW228490  12.505  11.421   2.531
75553SOL     OW28491   8.031   2.019   8.906
75553SOL    HW128492   8.067   1.976   8.828
75553SOL    HW228493   7.939   2.033   8.886
75554SOL     OW28494   6.340   8.689   4.284
75554SOL    HW128495   6.367   8.742   4.359
75554SOL    HW228496   6.312   8.752   4.219
75555SOL     OW28497  13.179   5.366  11.393
75555SOL    HW128498  13.273   5.358  11.381
75555SOL    HW228499  13.163   5.461  11.393
75556SOL     OW28500  11.840   3.604   9.375
75556SOL    HW128501  11.759   3.645   9.406
75556SOL    HW228502  11.905   3.625   9.442
75557SOL     OW28503   6.339  12.868   0.782
75557SOL    HW128504   6.307  12.809   0.714
75557SOL    HW228505   6.409  12.917   0.740
75558SOL     OW28506   3.802  14.088   6.873
75558SOL    HW128507   3.816  14.102   6.779
75558SOL    HW228508   3.707  14.082   6.881
75559SOL     OW28509  12.722  11.068   3.212
75559SOL    HW128510  12.807  11.054   3.253
75559SOL    HW228511  12.673  10.988   3.229
75560SOL     OW28512  10.063   5.661   4.119
75560SOL    HW128513  10.022   5.670   4.033
75560SOL    HW228514  10.001   5.703   4.180
75561SOL     OW28515   6.465   0.907   8.477
75561SOL    HW128516   6.377   0.942   8.463
75561SOL    HW228517   6.473   0.838   8.411
75562SOL     OW28518  12.891   8.927   2.256
75562SOL    HW128519  12.894   8.838   2.292
75562SOL    HW228520  12.801   8.955   2.272
75563SOL     OW28521   9.534   8.863  10.993
75563SOL    HW128522   9.468   8.816  11.044
75563SOL    HW228523   9.485   8.932  10.949
75564SOL     OW28524   7.993  12.963   6.838
75564SOL    HW128525   7.974  13.053   6.815
75564SOL    HW228526   7.987  12.914   6.756
75565SOL     OW28527  13.183  13.114   6.127
75565SOL    HW128528  13.231  13.062   6.063
75565SOL    HW228529  13.233  13.104   6.208
75566SOL     OW28530   8.291   1.304  13.460
75566SOL    HW128531   8.316   1.236  13.523
75566SOL    HW228532   8.331   1.276  13.378
75567SOL     OW28533   5.331  11.596   6.668
75567SOL    HW128534   5.298  11.508   6.686
75567SOL    HW228535   5.424  11.592   6.688
75568SOL     OW28536   5.446   0.522   0.978
75568SOL    HW128537   5.432   0.605   0.932
75568SOL    HW228538   5.441   0.456   0.909
75569SOL     OW28539  12.890  14.222   9.894
75569SOL    HW128540  12.895  14.181   9.808
75569SOL    HW228541  12.797  14.241   9.906
75570SOL     OW28542  12.550   5.471   4.845
75570SOL    HW128543  12.482   5.536   4.826
75570SOL    HW228544  12.571   5.433   4.760
75571SOL     OW28545   9.781  11.237  12.649
75571SOL    HW128546   9.843  11.222  12.720
75571SOL    HW228547   9.733  11.154  12.641
75572SOL     OW28548  12.976   3.165   0.390
75572SOL    HW128549  12.959   3.238   0.450
75572SOL    HW228550  12.975   3.204   0.303
75573SOL     OW28551   7.558  14.627   2.880
75573SOL    HW128552   7.584  14.570   2.953
75573SOL    HW228553   7.573  14.574   2.802
75574SOL     OW28554  10.514   1.174   8.591
75574SOL    HW128555  10.456   1.248   8.609
75574SOL    HW228556  10.601   1.207   8.614
75575SOL     OW28557   0.323   0.976   1.514
75575SOL    HW128558   0.417   0.974   1.531
75575SOL    HW228559   0.284   0.953   1.599
75576SOL     OW28560   4.172   9.253  11.110
75576SOL    HW128561   4.229   9.199  11.055
75576SOL    HW228562   4.137   9.192  11.175
75577SOL     OW28563   1.773   3.651   4.892
75577SOL    HW128564   1.818   3.655   4.808
75577SOL    HW228565   1.776   3.558   4.916
75578SOL     OW28566   0.518   8.307  11.258
75578SOL    HW128567   0.560   8.387  11.289
75578SOL    HW228568   0.590   8.249  11.234
75579SOL     OW28569   3.033   2.397  11.452
75579SOL    HW128570   3.079   2.420  11.371
75579SOL    HW228571   2.950   2.445  11.446
75580SOL     OW28572   2.186  10.755   5.535
75580SOL    HW128573   2.139  10.756   5.451
75580SOL    HW228574   2.214  10.846   5.548
75581SOL     OW28575  13.385  10.117   3.637
75581SOL    HW128576  13.330  10.040   3.627
75581SOL    HW228577  13.343  10.184   3.583
75582SOL     OW28578  11.927   8.590   7.547
75582SOL    HW128579  11.994   8.523   7.535
75582SOL    HW228580  11.866   8.551   7.610
75583SOL     OW28581   8.109   1.272   7.541
75583SOL    HW128582   8.069   1.193   7.576
75583SOL    HW228583   8.202   1.262   7.560
75584SOL     OW28584   1.721   7.209   2.039
75584SOL    HW128585   1.726   7.150   2.114
75584SOL    HW228586   1.700   7.295   2.077
75585SOL     OW28587   5.602  11.200   0.269
75585SOL    HW128588   5.615  11.105   0.260
75585SOL    HW228589   5.690  11.234   0.287
75586SOL     OW28590   5.654   6.161   8.785
75586SOL    HW128591   5.626   6.071   8.800
75586SOL    HW228592   5.573   6.212   8.794
75587SOL     OW28593   0.996  14.368   8.010
75587SOL    HW128594   0.958  14.418   8.082
75587SOL    HW228595   1.091  14.382   8.018
75588SOL     OW28596  12.198   5.088  14.844
75588SOL    HW128597  12.261   5.033  14.797
75588SOL    HW228598  12.216   5.177  14.813
75589SOL     OW28599   4.020   8.564   4.118
75589SOL    HW128600   4.027   8.497   4.050
75589SOL    HW228601   4.108   8.572   4.153
75590SOL     OW28602   2.851   3.726   4.444
75590SOL    HW128603   2.844   3.802   4.386
75590SOL    HW228604   2.942   3.728   4.475
75591SOL     OW28605  11.034  14.604   6.511
75591SOL    HW128606  10.984  14.527   6.538
75591SOL    HW228607  11.117  14.569   6.479
75592SOL     OW28608   8.098   5.513   0.810
75592SOL    HW128609   8.031   5.533   0.876
75592SOL    HW228610   8.047   5.491   0.731
75593SOL     OW28611   4.797  10.595   2.726
75593SOL    HW128612   4.717  10.585   2.780
75593SOL    HW228613   4.827  10.506   2.712
75594SOL     OW28614  14.236   3.853   2.620
75594SOL    HW128615  14.247   3.764   2.586
75594SOL    HW228616  14.309   3.902   2.582
75595SOL     OW28617  14.340  11.882  12.153
75595SOL    HW128618  14.269  11.820  12.168
75595SOL    HW228619  14.347  11.888  12.057
75596SOL     OW28620   4.754  14.313   6.771
75596SOL    HW128621   4.772  14.327   6.678
75596SOL    HW228622   4.770  14.398   6.812
75597SOL     OW28623   0.471  11.176   5.790
75597SOL    HW128624   0.429  11.092   5.771
75597SOL    HW228625   0.432  11.203   5.873
75598SOL     OW28626   4.462  14.034   3.139
75598SOL    HW128627   4.398  14.094   3.177
75598SOL    HW228628   4.535  14.091   3.113
75599SOL     OW28629   2.569  12.615   9.950
75599SOL    HW128630   2.490  12.647   9.994
75599SOL    HW228631   2.618  12.694   9.926
75600SOL     OW28632   2.924   3.129   7.253
75600SOL    HW128633   2.916   3.222   7.232
75600SOL    HW228634   2.836   3.094   7.240
75601SOL     OW28635  13.786  13.708   9.494
75601SOL    HW128636  13.881  13.704   9.494
75601SOL    HW228637  13.759  13.658   9.417
75602SOL     OW28638   5.296   5.443   6.998
75602SOL    HW128639   5.388   5.453   6.974
75602SOL    HW228640   5.290   5.353   7.031
75603SOL     OW28641   4.337   9.754   9.791
75603SOL    HW128642   4.425   9.787   9.812
75603SOL    HW228643   4.337   9.745   9.696
75604SOL     OW28644   9.855   1.432  14.012
75604SOL    HW128645   9.897   1.467  14.090
75604SOL    HW228646   9.789   1.497  13.989
75605SOL     OW28647  13.087   8.605   4.609
75605SOL    HW128648  13.171   8.570   4.579
75605SOL    HW228649  13.021   8.559   4.557
75606SOL     OW28650   5.288  10.835   8.554
75606SOL    HW128651   5.363  10.780   8.536
75606SOL    HW228652   5.265  10.873   8.469
75607SOL     OW28653   9.209   0.958   8.777
75607SOL    HW128654   9.186   1.041   8.818
75607SOL    HW228655   9.304   0.962   8.767
75608SOL     OW28656  13.477  10.992   0.536
75608SOL    HW128657  13.386  10.990   0.506
75608SOL    HW228658  13.503  10.899   0.541
75609SOL     OW28659   8.906  12.383   0.118
75609SOL    HW128660   8.827  12.341   0.153
75609SOL    HW228661   8.874  12.463   0.076
75610SOL     OW28662   4.494   2.253  10.696
75610SOL    HW128663   4.427   2.249  10.765
75610SOL    HW228664   4.518   2.346  10.692
75611SOL     OW28665   9.567   7.996   1.782
75611SOL    HW128666   9.552   7.988   1.876
75611SOL    HW228667   9.652   7.953   1.767
75612SOL     OW28668   2.954  14.868  13.245
75612SOL    HW128669   2.925   0.037  13.168
75612SOL    HW228670   2.905   0.028  13.317
75613SOL     OW28671   4.932   5.121   4.352
75613SOL    HW128672   5.009   5.123   4.410
75613SOL    HW228673   4.860   5.093   4.409
75614SOL     OW28674   9.248  12.673   9.795
75614SOL    HW128675   9.304  12.608   9.752
75614SOL    HW228676   9.253  12.750   9.740
75615SOL     OW28677  12.369  14.189  10.942
75615SOL    HW128678  12.425  14.266  10.930
75615SOL    HW228679  12.367  14.147  10.856
75616SOL     OW28680  10.392   6.188  13.534
75616SOL    HW128681  10.481   6.189  13.498
75616SOL    HW228682  10.388   6.267  13.588
75617SOL     OW28683   7.589  12.695   3.533
75617SOL    HW128684   7.570  12.732   3.620
75617SOL    HW228685   7.543  12.611   3.532
75618SOL     OW28686   7.709  13.909  11.076
75618SOL    HW128687   7.614  13.898  11.072
75618SOL    HW228688   7.723  14.002  11.061
75619SOL     OW28689   2.982  13.996  12.474
75619SOL    HW128690   2.972  14.062  12.405
75619SOL    HW228691   3.031  14.040  12.543
75620SOL     OW28692   9.247   7.030   5.262
75620SOL    HW128693   9.181   7.081   5.215
75620SOL    HW228694   9.219   6.939   5.250
75621SOL     OW28695  13.128  14.225  10.399
75621SOL    HW128696  13.142  14.192  10.488
75621SOL    HW228697  13.039  14.197  10.377
75622SOL     OW28698   4.126   4.976   1.085
75622SOL    HW128699   4.165   5.060   1.106
75622SOL    HW228700   4.135   4.968   0.990
75623SOL     OW28701  10.241   7.997   2.547
75623SOL    HW128702  10.228   8.012   2.641
75623SOL    HW228703  10.216   7.906   2.534
75624SOL     OW28704  11.629   4.347   2.985
75624SOL    HW128705  11.548   4.296   2.984
75624SOL    HW228706  11.699   4.280   2.987
75625SOL     OW28707   2.324  11.421   4.558
75625SOL    HW128708   2.348  11.485   4.491
75625SOL    HW228709   2.245  11.379   4.523
75626SOL     OW28710   8.466   9.380   6.383
75626SOL    HW128711   8.437   9.407   6.295
75626SOL    HW228712   8.386   9.346   6.425
75627SOL     OW28713   4.290   9.509   6.898
75627SOL    HW128714   4.285   9.597   6.934
75627SOL    HW228715   4.379   9.500   6.865
75628SOL     OW28716   1.272   2.620  11.209
75628SOL    HW128717   1.272   2.558  11.136
75628SOL    HW228718   1.208   2.585  11.270
75629SOL     OW28719   2.893   8.501   7.036
75629SOL    HW128720   2.979   8.473   7.069
75629SOL    HW228721   2.834   8.428   7.057
75630SOL     OW28722   2.476   4.446   5.008
75630SOL    HW128723   2.419   4.374   4.981
75630SOL    HW228724   2.564   4.419   4.980
75631SOL     OW28725   4.541  12.010  14.378
75631SOL    HW128726   4.605  12.007  14.449
75631SOL    HW228727   4.547  11.925  14.336
75632SOL     OW28728   5.715  14.501   9.508
75632SOL    HW128729   5.746  14.412   9.495
75632SOL    HW228730   5.744  14.548   9.429
75633SOL     OW28731  14.673   2.977  12.085
75633SOL    HW128732  14.715   2.895  12.111
75633SOL    HW228733  14.746   3.035  12.060
75634SOL     OW28734  13.749  14.280  12.978
75634SOL    HW128735  13.655  14.294  12.969
75634SOL    HW228736  13.786  14.367  12.991
75635SOL     OW28737   2.122   3.339   8.553
75635SOL    HW128738   2.051   3.383   8.600
75635SOL    HW228739   2.136   3.392   8.475
75636SOL     OW28740   3.885   0.704   4.355
75636SOL    HW128741   3.869   0.689   4.448
75636SOL    HW228742   3.977   0.727   4.350
75637SOL     OW28743   5.113   9.236   7.108
75637SOL    HW128744   5.103   9.208   7.200
75637SOL    HW228745   5.102   9.155   7.058
75638SOL     OW28746   7.106   3.276  14.621
75638SOL    HW128747   7.013   3.298  14.634
75638SOL    HW228748   7.109   3.181  14.624
75639SOL     OW28749   3.358  14.330   4.840
75639SOL    HW128750   3.336  14.268   4.909
75639SOL    HW228751   3.444  14.302   4.809
75640SOL     OW28752   5.414   5.783  11.550
75640SOL    HW128753   5.509   5.774  11.563
75640SOL    HW228754   5.383   5.693  11.539
75641SOL     OW28755   2.835   3.332  12.985
75641SOL    HW128756   2.873   3.400  12.930
75641SOL    HW228757   2.909   3.293  13.030
75642SOL     OW28758   3.553   1.963   0.810
75642SOL    HW128759   3.615   1.894   0.784
75642SOL    HW228760   3.503   1.925   0.882
75643SOL     OW28761  13.334  12.609   7.705
75643SOL    HW128762  13.409  12.562   7.666
75643SOL    HW228763  13.261  12.548   7.695
75644SOL     OW28764   0.292   8.212  11.382
75644SOL    HW128765   0.257   8.224  11.471
75644SOL    HW228766   0.362   8.278  11.375
75645SOL     OW28767   3.417  14.456   2.989
75645SOL    HW128768   3.457  14.534   3.027
75645SOL    HW228769   3.326  14.457   3.020
75646SOL     OW28770  14.706   8.157   8.445
75646SOL    HW128771  14.795   8.149   8.409
75646SOL    HW228772  14.649   8.150   8.368
75647SOL     OW28773   8.614   9.127   6.055
75647SOL    HW128774   8.635   9.219   6.037
75647SOL    HW228775   8.537   9.131   6.111
75648SOL     OW28776  11.668   3.576  10.509
75648SOL    HW128777  11.653   3.574  10.415
75648SOL    HW228778  11.601   3.636  10.543
75649SOL     OW28779   1.879   5.643   4.219
75649SOL    HW128780   1.931   5.692   4.155
75649SOL    HW228781   1.943   5.586   4.263
75650SOL     OW28782  10.048   3.038  10.025
75650SOL    HW128783  10.137   3.041   9.989
75650SOL    HW228784  10.008   2.962   9.982
75651SOL     OW28785   0.848  13.663   6.621
75651SOL    HW128786   0.769  13.610   6.608
75651SOL    HW228787   0.919  13.608   6.589
75652SOL     OW28788   9.010  10.367   0.719
75652SOL    HW128789   8.987  10.353   0.627
75652SOL    HW228790   8.954  10.306   0.767
75653SOL     OW28791   7.715   7.580   7.650
75653SOL    HW128792   7.629   7.613   7.624
75653SOL    HW228793   7.776   7.650   7.628
75654SOL     OW28794   5.043   7.178   8.815
75654SOL    HW128795   4.952   7.159   8.836
75654SOL    HW228796   5.063   7.258   8.864
75655SOL     OW28797  13.752   5.247   6.288
75655SOL    HW128798  13.697   5.289   6.222
75655SOL    HW228799  13.841   5.280   6.270
75656SOL     OW28800   7.643  14.629   3.775
75656SOL    HW128801   7.580  14.680   3.825
75656SOL    HW228802   7.628  14.538   3.803
75657SOL     OW28803   3.973   8.880   8.890
75657SOL    HW128804   3.911   8.863   8.819
75657SOL    HW228805   3.985   8.975   8.890
75658SOL     OW28806   1.950  12.919  11.516
75658SOL    HW128807   1.859  12.925  11.544
75658SOL    HW228808   1.954  12.839  11.464
75659SOL     OW28809   9.691   3.635  13.640
75659SOL    HW128810   9.656   3.668  13.723
75659SOL    HW228811   9.701   3.541  13.654
75660SOL     OW28812  11.671   5.508   3.545
75660SOL    HW128813  11.606   5.450   3.504
75660SOL    HW228814  11.626   5.592   3.554
75661SOL     OW28815   2.340   1.295   8.563
75661SOL    HW128816   2.428   1.279   8.596
75661SOL    HW228817   2.318   1.383   8.593
75662SOL     OW28818   2.924  11.011   4.357
75662SOL    HW128819   2.972  11.083   4.315
75662SOL    HW228820   2.883  11.052   4.434
75663SOL     OW28821   5.690  11.894   3.884
75663SOL    HW128822   5.757  11.873   3.948
75663SOL    HW228823   5.608  11.892   3.934
75664SOL     OW28824  11.187   0.617   1.467
75664SOL    HW128825  11.136   0.563   1.406
75664SOL    HW228826  11.122   0.658   1.523
75665SOL     OW28827  11.656   3.034  13.078
75665SOL    HW128828  11.590   2.975  13.042
75665SOL    HW228829  11.609   3.116  13.091
75666SOL     OW28830  10.348   0.248   4.497
75666SOL    HW128831  10.285   0.199   4.548
75666SOL    HW228832  10.347   0.207   4.411
75667SOL     OW28833  13.238   8.409   7.620
75667SOL    HW128834  13.233   8.424   7.526
75667SOL    HW228835  13.183   8.478   7.658
75668SOL     OW28836   8.734  12.854   3.072
75668SOL    HW128837   8.668  12.786   3.087
75668SOL    HW228838   8.813  12.806   3.048
75669SOL     OW28839   8.792   5.388  11.238
75669SOL    HW128840   8.770   5.433  11.320
75669SOL    HW228841   8.750   5.441  11.170
75670SOL     OW28842  12.528   1.132   7.232
75670SOL    HW128843  12.470   1.058   7.213
75670SOL    HW228844  12.502   1.161   7.320
75671SOL     OW28845   1.455   9.836  14.472
75671SOL    HW128846   1.382   9.832  14.409
75671SOL    HW228847   1.533   9.839  14.417
75672SOL     OW28848   5.211   8.983   4.573
75672SOL    HW128849   5.274   8.954   4.640
75672SOL    HW228850   5.174   9.064   4.609
75673SOL     OW28851   8.288   7.514   3.214
75673SOL    HW128852   8.294   7.492   3.121
75673SOL    HW228853   8.292   7.429   3.259
75674SOL     OW28854  11.334   8.685   3.221
75674SOL    HW128855  11.366   8.742   3.151
75674SOL    HW228856  11.338   8.739   3.300
75675SOL     OW28857   3.617   9.985   5.910
75675SOL    HW128858   3.672   9.954   5.981
75675SOL    HW228859   3.631  10.080   5.908
75676SOL     OW28860  13.112   3.792  11.869
75676SOL    HW128861  13.084   3.776  11.959
75676SOL    HW228862  13.105   3.706  11.827
75677SOL     OW28863   8.848   6.751  12.952
75677SOL    HW128864   8.827   6.842  12.933
75677SOL    HW228865   8.943   6.748  12.952
75678SOL     OW28866   0.257  13.575   3.237
75678SOL    HW128867   0.213  13.620   3.310
75678SOL    HW228868   0.223  13.618   3.159
75679SOL     OW28869  13.248  10.390   6.112
75679SOL    HW128870  13.309  10.399   6.185
75679SOL    HW228871  13.166  10.426   6.145
75680SOL     OW28872  10.552  11.835  14.106
75680SOL    HW128873  10.546  11.845  14.201
75680SOL    HW228874  10.547  11.924  14.072
75681SOL     OW28875   1.355   2.057  13.651
75681SOL    HW128876   1.301   2.005  13.711
75681SOL    HW228877   1.400   2.120  13.708
75682SOL     OW28878   2.500   2.753   6.642
75682SOL    HW128879   2.505   2.849   6.643
75682SOL    HW228880   2.442   2.734   6.568
75683SOL     OW28881  13.234   5.059   9.723
75683SOL    HW128882  13.323   5.025   9.718
75683SOL    HW228883  13.245   5.151   9.746
75684SOL     OW28884   0.518   0.312   5.761
75684SOL    HW128885   0.506   0.287   5.669
75684SOL    HW228886   0.532   0.407   5.758
75685SOL     OW28887   0.348   1.197  11.564
75685SOL    HW128888   0.375   1.106  11.564
75685SOL    HW228889   0.405   1.239  11.628
75686SOL     OW28890   6.939   2.572   8.231
75686SOL    HW128891   6.867   2.561   8.293
75686SOL    HW228892   6.950   2.486   8.190
75687SOL     OW28893   0.965   1.044   8.069
75687SOL    HW128894   0.906   0.978   8.031
75687SOL    HW228895   1.011   1.081   7.993
75688SOL     OW28896   7.481  11.802  14.117
75688SOL    HW128897   7.496  11.825  14.026
75688SOL    HW228898   7.497  11.883  14.166
75689SOL     OW28899  10.660  10.712  14.188
75689SOL    HW128900  10.667  10.681  14.097
75689SOL    HW228901  10.663  10.807  14.181
75690SOL     OW28902  10.239   4.907   4.984
75690SOL    HW128903  10.152   4.930   4.952
75690SOL    HW228904  10.224   4.842   5.052
75691SOL     OW28905   3.379   0.329   9.667
75691SOL    HW128906   3.423   0.290   9.592
75691SOL    HW228907   3.430   0.299   9.743
75692SOL     OW28908   2.610   1.737   6.328
75692SOL    HW128909   2.598   1.642   6.334
75692SOL    HW228910   2.522   1.771   6.314
75693SOL     OW28911   1.169  10.687   2.934
75693SOL    HW128912   1.086  10.730   2.916
75693SOL    HW228913   1.155  10.640   3.016
75694SOL     OW28914   6.608   7.825   6.080
75694SOL    HW128915   6.538   7.834   6.017
75694SOL    HW228916   6.635   7.914   6.100
75695SOL     OW28917  13.689  11.450   8.560
75695SOL    HW128918  13.760  11.479   8.503
75695SOL    HW228919  13.618  11.427   8.500
75696SOL     OW28920   6.039   0.877  10.106
75696SOL    HW128921   6.003   0.963  10.084
75696SOL    HW228922   6.107   0.896  10.171
75697SOL     OW28923   6.198   1.290  11.686
75697SOL    HW128924   6.147   1.263  11.610
75697SOL    HW228925   6.289   1.286  11.657
75698SOL     OW28926  10.201   4.576   8.188
75698SOL    HW128927  10.123   4.522   8.198
75698SOL    HW228928  10.274   4.515   8.200
75699SOL     OW28929   9.024   2.649   0.684
75699SOL    HW128930   8.978   2.719   0.731
75699SOL    HW228931   9.084   2.612   0.749
75700SOL     OW28932   0.680   1.697  12.014
75700SOL    HW128933   0.611   1.712  11.949
75700SOL    HW228934   0.709   1.785  12.038
75701SOL     OW28935  14.696   3.175   6.653
75701SOL    HW128936  14.783   3.213   6.659
75701SOL    HW228937  14.649   3.231   6.591
75702SOL     OW28938   4.056   3.231  12.960
75702SOL    HW128939   3.978   3.234  12.905
75702SOL    HW228940   4.128   3.220  12.898
75703SOL     OW28941   7.691  11.767   5.428
75703SOL    HW128942   7.745  11.840   5.398
75703SOL    HW228943   7.607  11.780   5.384
75704SOL     OW28944   5.601   1.671   7.481
75704SOL    HW128945   5.587   1.586   7.439
75704SOL    HW228946   5.514   1.709   7.489
75705SOL     OW28947  12.465   1.910   7.897
75705SOL    HW128948  12.402   1.917   7.968
75705SOL    HW228949  12.546   1.947   7.932
75706SOL     OW28950  10.098  12.929   3.785
75706SOL    HW128951  10.110  12.936   3.690
75706SOL    HW228952  10.030  12.993   3.805
75707SOL     OW28953  14.877   8.692  13.012
75707SOL    HW128954  14.830   8.690  12.929
75707SOL    HW228955   0.042   8.608  13.017
75708SOL     OW28956   7.379   4.949   6.236
75708SOL    HW128957   7.386   4.897   6.315
75708SOL    HW228958   7.285   4.959   6.221
75709SOL     OW28959   2.734   6.032   7.491
75709SOL    HW128960   2.792   5.989   7.428
75709SOL    HW228961   2.765   6.123   7.494
75710SOL     OW28962   6.523   2.889  11.974
75710SOL    HW128963   6.555   2.869  11.886
75710SOL    HW228964   6.501   2.983  11.971
75711SOL     OW28965  11.426   5.365   4.958
75711SOL    HW128966  11.379   5.389   4.878
75711SOL    HW228967  11.363   5.382   5.028
75712SOL     OW28968   1.580   4.690   7.787
75712SOL    HW128969   1.616   4.640   7.714
75712SOL    HW228970   1.500   4.644   7.811
75713SOL     OW28971   0.840   5.182   4.834
75713SOL    HW128972   0.806   5.258   4.880
75713SOL    HW228973   0.849   5.211   4.743
75714SOL     OW28974  13.839   3.685   3.043
75714SOL    HW128975  13.769   3.622   3.061
75714SOL    HW228976  13.794   3.766   3.021
75715SOL     OW28977  13.569   2.172   1.123
75715SOL    HW128978  13.586   2.145   1.033
75715SOL    HW228979  13.525   2.096   1.163
75716SOL     OW28980   5.331  12.010   6.722
75716SOL    HW128981   5.294  11.954   6.654
75716SOL    HW228982   5.331  11.955   6.801
75717SOL     OW28983   6.823  11.969   0.579
75717SOL    HW128984   6.843  11.935   0.493
75717SOL    HW228985   6.728  11.979   0.580
75718SOL     OW28986   9.351  13.901   9.287
75718SOL    HW128987   9.288  13.863   9.226
75718SOL    HW228988   9.433  13.855   9.268
75719SOL     OW28989  10.054   4.590   3.910
75719SOL    HW128990  10.111   4.642   3.966
75719SOL    HW228991  10.094   4.596   3.823
75720SOL     OW28992   0.808   2.553   6.145
75720SOL    HW128993   0.834   2.630   6.095
75720SOL    HW228994   0.714   2.564   6.160
75721SOL     OW28995  11.755   2.962   7.741
75721SOL    HW128996  11.696   3.038   7.743
75721SOL    HW228997  11.713   2.900   7.682
75722SOL     OW28998   2.556  13.289   1.653
75722SOL    HW128999   2.474  13.336   1.635
75722SOL    HW229000   2.584  13.320   1.739
75723SOL     OW29001   4.245  11.679  13.713
75723SOL    HW129002   4.280  11.599  13.752
75723SOL    HW229003   4.150  11.668  13.715
75724SOL     OW29004  11.146   3.214   9.559
75724SOL    HW129005  11.051   3.207   9.547
75724SOL    HW229006  11.172   3.125   9.585
75725SOL     OW29007   2.769  12.790   4.790
75725SOL    HW129008   2.793  12.871   4.746
75725SOL    HW229009   2.700  12.814   4.851
75726SOL     OW29010   8.789   6.294   8.526
75726SOL    HW129011   8.823   6.247   8.449
75726SOL    HW229012   8.766   6.380   8.493
75727SOL     OW29013   6.749   6.301  12.356
75727SOL    HW129014   6.665   6.291  12.399
75727SOL    HW229015   6.786   6.381  12.395
75728SOL     OW29016   9.516   5.884   4.296
75728SOL    HW129017   9.480   5.818   4.238
75728SOL    HW229018   9.440   5.925   4.338
75729SOL     OW29019  11.989   6.097   5.279
75729SOL    HW129020  11.897   6.110   5.254
75729SOL    HW229021  11.996   6.003   5.296
75730SOL     OW29022   8.897  12.972   7.380
75730SOL    HW129023   8.965  12.905   7.371
75730SOL    HW229024   8.815  12.923   7.375
75731SOL     OW29025  14.560   4.816   9.893
75731SOL    HW129026  14.630   4.831   9.831
75731SOL    HW229027  14.560   4.722   9.908
75732SOL     OW29028  14.705  11.322  13.832
75732SOL    HW129029  14.663  11.280  13.757
75732SOL    HW229030  14.652  11.400  13.848
75733SOL     OW29031   3.407   9.733   8.720
75733SOL    HW129032   3.473   9.777   8.773
75733SOL    HW229033   3.458   9.686   8.654
75734SOL     OW29034   2.855   2.294  10.450
75734SOL    HW129035   2.937   2.324  10.411
75734SOL    HW229036   2.845   2.347  10.529
75735SOL     OW29037  13.061   7.939   4.294
75735SOL    HW129038  13.012   7.945   4.211
75735SOL    HW229039  13.008   7.880   4.348
75736SOL     OW29040  11.759   9.291  13.403
75736SOL    HW129041  11.671   9.294  13.443
75736SOL    HW229042  11.785   9.199  13.410
75737SOL     OW29043   6.892   3.504  12.783
75737SOL    HW129044   6.835   3.482  12.857
75737SOL    HW229045   6.911   3.597  12.794
75738SOL     OW29046  11.713  10.508   5.740
75738SOL    HW129047  11.679  10.456   5.814
75738SOL    HW229048  11.807  10.490   5.739
75739SOL     OW29049  14.344   3.016  10.154
75739SOL    HW129050  14.352   3.018  10.250
75739SOL    HW229051  14.383   3.099  10.125
75740SOL     OW29052   6.742  10.863   7.510
75740SOL    HW129053   6.785  10.845   7.426
75740SOL    HW229054   6.778  10.946   7.539
75741SOL     OW29055   5.896  14.595   8.690
75741SOL    HW129056   5.927  14.623   8.776
75741SOL    HW229057   5.941  14.512   8.673
75742SOL     OW29058   5.406  13.332  14.371
75742SOL    HW129059   5.435  13.423  14.376
75742SOL    HW229060   5.468  13.284  14.426
75743SOL     OW29061   3.464   8.355   7.318
75743SOL    HW129062   3.382   8.404   7.327
75743SOL    HW229063   3.455   8.283   7.380
75744SOL     OW29064   7.772   7.472   0.208
75744SOL    HW129065   7.722   7.516   0.139
75744SOL    HW229066   7.749   7.380   0.200
75745SOL     OW29067   1.007   8.735   8.295
75745SOL    HW129068   1.088   8.685   8.285
75745SOL    HW229069   0.994   8.775   8.208
75746SOL     OW29070   0.112  13.083   2.465
75746SOL    HW129071   0.134  13.090   2.372
75746SOL    HW229072   0.184  13.032   2.503
75747SOL     OW29073   8.684   5.006   3.847
75747SOL    HW129074   8.672   5.086   3.897
75747SOL    HW229075   8.608   5.002   3.789
75748SOL     OW29076  11.224   3.509   7.981
75748SOL    HW129077  11.315   3.515   8.011
75748SOL    HW229078  11.228   3.528   7.888
75749SOL     OW29079  12.562  11.438  11.241
75749SOL    HW129080  12.536  11.433  11.333
75749SOL    HW229081  12.603  11.524  11.233
75750SOL     OW29082  13.535   0.025   5.479
75750SOL    HW129083  13.523   0.048   5.386
75750SOL    HW229084  13.627   0.047   5.497
75751SOL     OW29085  13.386  12.017   8.601
75751SOL    HW129086  13.381  12.085   8.533
75751SOL    HW229087  13.480  12.006   8.617
75752SOL     OW29088   8.432   5.124   5.935
75752SOL    HW129089   8.442   5.182   6.010
75752SOL    HW229090   8.483   5.166   5.865
75753SOL     OW29091   2.414  10.202   4.299
75753SOL    HW129092   2.493  10.157   4.268
75753SOL    HW229093   2.403  10.276   4.239
75754SOL     OW29094   2.509  10.958   1.441
75754SOL    HW129095   2.428  10.994   1.478
75754SOL    HW229096   2.579  11.009   1.482
75755SOL     OW29097   9.919   0.703   6.132
75755SOL    HW129098   9.929   0.609   6.146
75755SOL    HW229099   9.874   0.734   6.210
75756SOL     OW29100   0.813  12.768   9.246
75756SOL    HW129101   0.864  12.849   9.235
75756SOL    HW229102   0.778  12.773   9.335
75757SOL     OW29103  10.582  10.928   3.673
75757SOL    HW129104  10.640  10.854   3.656
75757SOL    HW229105  10.496  10.888   3.690
75758SOL     OW29106   1.034  10.509   1.525
75758SOL    HW129107   0.959  10.569   1.523
75758SOL    HW229108   1.095  10.548   1.588
75759SOL     OW29109   7.985   4.281   8.895
75759SOL    HW129110   7.903   4.237   8.876
75759SOL    HW229111   8.039   4.264   8.818
75760SOL     OW29112  12.150   2.018  11.287
75760SOL    HW129113  12.227   2.019  11.229
75760SOL    HW229114  12.157   2.099  11.337
75761SOL     OW29115   8.428   9.788   8.488
75761SOL    HW129116   8.429   9.714   8.548
75761SOL    HW229117   8.336   9.817   8.487
75762SOL     OW29118   2.430   9.566   8.546
75762SOL    HW129119   2.470   9.480   8.557
75762SOL    HW229120   2.373   9.556   8.470
75763SOL     OW29121  10.457  14.598  11.336
75763SOL    HW129122  10.523  14.578  11.403
75763SOL    HW229123  10.419  14.514  11.312
75764SOL     OW29124  12.642  13.726  13.855
75764SOL    HW129125  12.613  13.816  13.842
75764SOL    HW229126  12.682  13.701  13.771
75765SOL     OW29127  10.982   5.959   1.409
75765SOL    HW129128  10.963   6.005   1.491
75765SOL    HW229129  10.974   5.866   1.432
75766SOL     OW29130   3.215   8.514   1.962
75766SOL    HW129131   3.126   8.480   1.954
75766SOL    HW229132   3.272   8.439   1.943
75767SOL     OW29133   3.151   7.433   0.803
75767SOL    HW129134   3.212   7.419   0.731
75767SOL    HW229135   3.196   7.399   0.880
75768SOL     OW29136  11.597   3.756   9.415
75768SOL    HW129137  11.573   3.776   9.324
75768SOL    HW229138  11.521   3.708   9.449
75769SOL     OW29139   7.991  10.876  14.402
75769SOL    HW129140   7.966  10.886  14.310
75769SOL    HW229141   7.944  10.945  14.447
75770SOL     OW29142   1.715   0.482   4.784
75770SOL    HW129143   1.644   0.498   4.721
75770SOL    HW229144   1.679   0.419   4.846
75771SOL     OW29145   1.572  13.131  13.191
75771SOL    HW129146   1.515  13.070  13.238
75771SOL    HW229147   1.542  13.127  13.101
75772SOL     OW29148   9.372  13.533   6.111
75772SOL    HW129149   9.366  13.471   6.184
75772SOL    HW229150   9.466  13.540   6.094
75773SOL     OW29151   3.402   7.310   7.850
75773SOL    HW129152   3.392   7.393   7.803
75773SOL    HW229153   3.350   7.248   7.800
75774SOL     OW29154   1.523   8.612   7.182
75774SOL    HW129155   1.610   8.621   7.142
75774SOL    HW229156   1.542   8.590   7.273
75775SOL     OW29157  12.085   2.987   6.683
75775SOL    HW129158  12.124   2.904   6.709
75775SOL    HW229159  12.153   3.031   6.631
75776SOL     OW29160  11.171   8.563   6.560
75776SOL    HW129161  11.226   8.584   6.635
75776SOL    HW229162  11.227   8.575   6.484
75777SOL     OW29163   0.502  14.440   4.591
75777SOL    HW129164   0.547  14.524   4.580
75777SOL    HW229165   0.417  14.453   4.547
75778SOL     OW29166   8.608   1.227   3.887
75778SOL    HW129167   8.550   1.304   3.891
75778SOL    HW229168   8.676   1.252   3.825
75779SOL     OW29169   1.895   1.874   3.631
75779SOL    HW129170   1.860   1.823   3.559
75779SOL    HW229171   1.903   1.812   3.704
75780SOL     OW29172  12.043  10.881   3.718
75780SOL    HW129173  11.961  10.849   3.681
75780SOL    HW229174  12.110  10.824   3.681
75781SOL     OW29175  12.589  11.310  12.943
75781SOL    HW129176  12.502  11.299  12.904
75781SOL    HW229177  12.640  11.237  12.909
75782SOL     OW29178  13.137  11.687   8.824
75782SOL    HW129179  13.150  11.765   8.769
75782SOL    HW229180  13.220  11.676   8.870
75783SOL     OW29181   4.469   8.437  12.285
75783SOL    HW129182   4.399   8.502  12.293
75783SOL    HW229183   4.546   8.481  12.320
75784SOL     OW29184   7.458   8.171  13.891
75784SOL    HW129185   7.429   8.180  13.800
75784SOL    HW229186   7.461   8.260  13.925
75785SOL     OW29187  12.234   3.965   4.093
75785SOL    HW129188  12.257   3.873   4.080
75785SOL    HW229189  12.195   3.968   4.180
75786SOL     OW29190   6.486   5.362  14.549
75786SOL    HW129191   6.402   5.399  14.575
75786SOL    HW229192   6.529   5.341  14.632
75787SOL     OW29193   8.867   0.101   2.328
75787SOL    HW129194   8.861   0.094   2.423
75787SOL    HW229195   8.939   0.043   2.304
75788SOL     OW29196   1.922   1.057  10.322
75788SOL    HW129197   1.862   1.090  10.389
75788SOL    HW229198   2.000   1.111  10.330
75789SOL     OW29199   8.227   5.650  11.826
75789SOL    HW129200   8.168   5.701  11.881
75789SOL    HW229201   8.285   5.714  11.785
75790SOL     OW29202  14.321  11.112   8.527
75790SOL    HW129203  14.257  11.112   8.456
75790SOL    HW229204  14.350  11.204   8.534
75791SOL     OW29205   6.185   1.918   7.622
75791SOL    HW129206   6.235   1.999   7.616
75791SOL    HW229207   6.240   1.859   7.674
75792SOL     OW29208  10.079  13.341   1.574
75792SOL    HW129209  10.122  13.387   1.647
75792SOL    HW229210  10.074  13.407   1.504
75793SOL     OW29211   7.082   2.467  12.149
75793SOL    HW129212   7.038   2.528  12.209
75793SOL    HW229213   7.100   2.518  12.071
75794SOL     OW29214   2.437   3.930   8.381
75794SOL    HW129215   2.437   3.846   8.334
75794SOL    HW229216   2.529   3.943   8.405
75795SOL     OW29217   3.883   8.572  13.928
75795SOL    HW129218   3.812   8.558  13.991
75795SOL    HW229219   3.862   8.514  13.855
75796SOL     OW29220   5.761   8.520   6.126
75796SOL    HW129221   5.853   8.542   6.139
75796SOL    HW229222   5.756   8.426   6.145
75797SOL     OW29223   0.818   2.093   9.002
75797SOL    HW129224   0.802   2.023   8.939
75797SOL    HW229225   0.736   2.104   9.049
75798SOL     OW29226   0.229   9.378   7.300
75798SOL    HW129227   0.214   9.391   7.206
75798SOL    HW229228   0.146   9.402   7.342
75799SOL     OW29229  14.289   4.990   0.355
75799SOL    HW129230  14.205   4.962   0.392
75799SOL    HW229231  14.339   4.909   0.343
75800SOL     OW29232   6.152  12.397   0.330
75800SOL    HW129233   6.095  12.469   0.303
75800SOL    HW229234   6.165  12.411   0.424
75801SOL     OW29235  10.341  14.291  14.411
75801SOL    HW129236  10.339  14.372  14.359
75801SOL    HW229237  10.343  14.322  14.502
75802SOL     OW29238   4.868  10.021   7.559
75802SOL    HW129239   4.809  10.062   7.496
75802SOL    HW229240   4.878  10.086   7.628
75803SOL     OW29241  11.124   7.303   7.239
75803SOL    HW129242  11.063   7.314   7.312
75803SOL    HW229243  11.137   7.391   7.205
75804SOL     OW29244   0.439  13.345   1.025
75804SOL    HW129245   0.385  13.367   0.949
75804SOL    HW229246   0.483  13.426   1.049
75805SOL     OW29247   8.135   3.157  12.610
75805SOL    HW129248   8.126   3.069  12.572
75805SOL    HW229249   8.046   3.192  12.608
75806SOL     OW29250   8.047   0.724   8.652
75806SOL    HW129251   8.075   0.784   8.720
75806SOL    HW229252   8.128   0.699   8.606
75807SOL     OW29253   6.967   7.702   7.644
75807SOL    HW129254   6.909   7.669   7.713
75807SOL    HW229255   6.952   7.643   7.570
75808SOL     OW29256   0.787   0.358  13.831
75808SOL    HW129257   0.723   0.396  13.892
75808SOL    HW229258   0.737   0.292  13.783
75809SOL     OW29259   6.698  10.649  13.346
75809SOL    HW129260   6.699  10.678  13.438
75809SOL    HW229261   6.663  10.560  13.350
75810SOL     OW29262  13.824  12.188   0.126
75810SOL    HW129263  13.776  12.110   0.153
75810SOL    HW229264  13.915  12.159   0.116
75811SOL     OW29265   2.703  12.383   0.360
75811SOL    HW129266   2.797  12.381   0.374
75811SOL    HW229267   2.680  12.293   0.337
75812SOL     OW29268   5.898   9.146   4.700
75812SOL    HW129269   5.959   9.211   4.666
75812SOL    HW229270   5.947   9.101   4.769
75813SOL     OW29271   5.334   8.032  14.338
75813SOL    HW129272   5.245   8.054  14.312
75813SOL    HW229273   5.389   8.094  14.289
75814SOL     OW29274   9.439   3.366   8.477
75814SOL    HW129275   9.498   3.435   8.508
75814SOL    HW229276   9.496   3.292   8.457
75815SOL     OW29277   8.733  11.648  12.056
75815SOL    HW129278   8.762  11.570  12.008
75815SOL    HW229279   8.642  11.660  12.029
75816SOL     OW29280   5.396   8.319   7.796
75816SOL    HW129281   5.446   8.392   7.759
75816SOL    HW229282   5.456   8.279   7.859
75817SOL     OW29283  13.582  12.639   5.330
75817SOL    HW129284  13.665  12.619   5.286
75817SOL    HW229285  13.585  12.587   5.410
75818SOL     OW29286   3.175   2.306  14.086
75818SOL    HW129287   3.112   2.237  14.106
75818SOL    HW229288   3.124   2.387  14.089
75819SOL     OW29289   8.346  10.906  13.231
75819SOL    HW129290   8.439  10.923  13.217
75819SOL    HW229291   8.343  10.825  13.281
75820SOL     OW29292   7.010   1.733  11.904
75820SOL    HW129293   7.007   1.638  11.918
75820SOL    HW229294   7.098   1.759  11.934
75821SOL     OW29295   4.511   9.146   0.756
75821SOL    HW129296   4.483   9.062   0.721
75821SOL    HW229297   4.604   9.153   0.732
75822SOL     OW29298   6.216  11.580   7.248
75822SOL    HW129299   6.164  11.524   7.191
75822SOL    HW229300   6.195  11.669   7.221
75823SOL     OW29301  10.521   7.261   9.504
75823SOL    HW129302  10.459   7.237   9.573
75823SOL    HW229303  10.590   7.310   9.549
75824SOL     OW29304   6.997  12.899   8.877
75824SOL    HW129305   7.052  12.922   8.952
75824SOL    HW229306   7.028  12.811   8.851
75825SOL     OW29307   9.900   9.767  12.326
75825SOL    HW129308   9.935   9.827  12.260
75825SOL    HW229309   9.950   9.686  12.314
75826SOL     OW29310   0.987   0.376   8.556
75826SOL    HW129311   1.053   0.435   8.590
75826SOL    HW229312   0.995   0.383   8.461
75827SOL     OW29313   4.921   5.598  12.135
75827SOL    HW129314   4.893   5.512  12.165
75827SOL    HW229315   4.952   5.584  12.045
75828SOL     OW29316   3.140  12.906  14.501
75828SOL    HW129317   3.215  12.855  14.471
75828SOL    HW229318   3.168  12.997  14.492
75829SOL     OW29319   5.781   1.415   8.098
75829SOL    HW129320   5.717   1.484   8.086
75829SOL    HW229321   5.764   1.353   8.027
75830SOL     OW29322  12.973  10.993   6.497
75830SOL    HW129323  12.879  10.991   6.517
75830SOL    HW229324  12.990  10.910   6.452
75831SOL     OW29325   8.136   9.783   8.490
75831SOL    HW129326   8.109   9.874   8.504
75831SOL    HW229327   8.109   9.763   8.401
75832SOL     OW29328  11.002  13.026   6.917
75832SOL    HW129329  10.994  12.985   6.831
75832SOL    HW229330  10.924  12.997   6.964
75833SOL     OW29331   9.610  10.301   8.972
75833SOL    HW129332   9.574  10.322   9.058
75833SOL    HW229333   9.534  10.302   8.913
75834SOL     OW29334   7.739   4.713   7.536
75834SOL    HW129335   7.724   4.640   7.597
75834SOL    HW229336   7.673   4.703   7.468
75835SOL     OW29337   7.286   9.313  14.751
75835SOL    HW129338   7.222   9.243  14.746
75835SOL    HW229339   7.236   9.393  14.734
75836SOL     OW29340   4.342   1.896   9.063
75836SOL    HW129341   4.297   1.814   9.086
75836SOL    HW229342   4.332   1.951   9.140
75837SOL     OW29343  14.319   3.081   1.462
75837SOL    HW129344  14.403   3.122   1.444
75837SOL    HW229345  14.258   3.123   1.401
75838SOL     OW29346   8.658   8.467   7.565
75838SOL    HW129347   8.697   8.401   7.508
75838SOL    HW229348   8.608   8.418   7.629
75839SOL     OW29349   9.499   6.813   6.088
75839SOL    HW129350   9.424   6.756   6.076
75839SOL    HW229351   9.570   6.770   6.039
75840SOL     OW29352  14.073   3.094  10.709
75840SOL    HW129353  14.083   3.006  10.746
75840SOL    HW229354  14.028   3.080  10.626
75841SOL     OW29355   2.823   5.224   7.543
75841SOL    HW129356   2.836   5.299   7.486
75841SOL    HW229357   2.857   5.252   7.628
75842SOL     OW29358   7.895   4.116   4.073
75842SOL    HW129359   7.916   4.079   3.988
75842SOL    HW229360   7.809   4.157   4.061
75843SOL     OW29361   9.682   8.609   2.132
75843SOL    HW129362   9.724   8.562   2.204
75843SOL    HW229363   9.751   8.618   2.065
75844SOL     OW29364   8.804   7.583  13.937
75844SOL    HW129365   8.740   7.627  13.881
75844SOL    HW229366   8.797   7.626  14.021
75845SOL     OW29367   1.509   5.217   7.840
75845SOL    HW129368   1.560   5.137   7.827
75845SOL    HW229369   1.428   5.202   7.792
75846SOL     OW29370  12.162  12.797   1.391
75846SOL    HW129371  12.120  12.715   1.418
75846SOL    HW229372  12.110  12.865   1.433
75847SOL     OW29373   8.733  13.107   7.146
75847SOL    HW129374   8.737  13.194   7.184
75847SOL    HW229375   8.700  13.051   7.216
75848SOL     OW29376  11.722  10.830  12.697
75848SOL    HW129377  11.755  10.785  12.619
75848SOL    HW229378  11.791  10.890  12.722
75849SOL     OW29379   3.467   6.964   7.543
75849SOL    HW129380   3.432   6.978   7.455
75849SOL    HW229381   3.496   7.051   7.572
75850SOL     OW29382   6.599   6.030  13.171
75850SOL    HW129383   6.638   6.067  13.092
75850SOL    HW229384   6.583   5.938  13.150
75851SOL     OW29385   5.959   8.157  10.977
75851SOL    HW129386   5.994   8.070  10.957
75851SOL    HW229387   6.025   8.218  10.943
75852SOL     OW29388   8.636   2.620  10.138
75852SOL    HW129389   8.644   2.594  10.047
75852SOL    HW229390   8.724   2.646  10.164
75853SOL     OW29391   2.466   2.800   2.024
75853SOL    HW129392   2.415   2.881   2.017
75853SOL    HW229393   2.449   2.754   1.941
75854SOL     OW29394   9.652  11.473  10.869
75854SOL    HW129395   9.650  11.562  10.834
75854SOL    HW229396   9.645  11.484  10.964
75855SOL     OW29397  13.165   6.780   0.197
75855SOL    HW129398  13.074   6.780   0.167
75855SOL    HW229399  13.192   6.689   0.192
75856SOL     OW29400   8.848   4.099   1.767
75856SOL    HW129401   8.837   4.097   1.672
75856SOL    HW229402   8.925   4.153   1.781
75857SOL     OW29403   4.797   7.198   1.809
75857SOL    HW129404   4.868   7.155   1.761
75857SOL    HW229405   4.757   7.128   1.860
75858SOL     OW29406   7.268   7.780  14.115
75858SOL    HW129407   7.263   7.871  14.144
75858SOL    HW229408   7.214   7.777  14.035
75859SOL     OW29409   9.191   6.308   8.759
75859SOL    HW129410   9.162   6.396   8.782
75859SOL    HW229411   9.110   6.259   8.743
75860SOL     OW29412  14.644  10.541   3.980
75860SOL    HW129413  14.677  10.573   3.896
75860SOL    HW229414  14.718  10.495   4.019
75861SOL     OW29415   0.410  12.325   7.027
75861SOL    HW129416   0.328  12.292   6.991
75861SOL    HW229417   0.471  12.324   6.953
75862SOL     OW29418   1.345   5.525  11.719
75862SOL    HW129419   1.268   5.509  11.664
75862SOL    HW229420   1.311   5.524  11.808
75863SOL     OW29421   8.690  10.670   5.071
75863SOL    HW129422   8.642  10.588   5.084
75863SOL    HW229423   8.663  10.700   4.985
75864SOL     OW29424   4.154   4.099  13.846
75864SOL    HW129425   4.185   4.010  13.833
75864SOL    HW229426   4.128   4.130  13.759
75865SOL     OW29427   6.713   1.758   6.429
75865SOL    HW129428   6.774   1.724   6.364
75865SOL    HW229429   6.765   1.766   6.509
75866SOL     OW29430   4.264   7.676   5.438
75866SOL    HW129431   4.273   7.761   5.394
75866SOL    HW229432   4.220   7.697   5.520
75867SOL     OW29433   8.612  11.343   6.843
75867SOL    HW129434   8.655  11.286   6.780
75867SOL    HW229435   8.634  11.306   6.929
75868SOL     OW29436   1.162   6.170   6.163
75868SOL    HW129437   1.123   6.090   6.196
75868SOL    HW229438   1.248   6.174   6.206
75869SOL     OW29439  11.955   8.853   1.800
75869SOL    HW129440  12.043   8.833   1.767
75869SOL    HW229441  11.904   8.775   1.782
75870SOL     OW29442   8.699   4.540   2.829
75870SOL    HW129443   8.716   4.524   2.922
75870SOL    HW229444   8.759   4.611   2.806
75871SOL     OW29445   3.924   3.625  11.893
75871SOL    HW129446   3.958   3.647  11.807
75871SOL    HW229447   3.947   3.533  11.906
75872SOL     OW29448  12.515   5.725   2.995
75872SOL    HW129449  12.473   5.667   3.059
75872SOL    HW229450  12.561   5.790   3.049
75873SOL     OW29451  11.689  13.351   3.328
75873SOL    HW129452  11.687  13.387   3.417
75873SOL    HW229453  11.710  13.259   3.340
75874SOL     OW29454   9.303  10.654   8.225
75874SOL    HW129455   9.227  10.681   8.277
75874SOL    HW229456   9.321  10.565   8.255
75875SOL     OW29457   2.646   4.256   8.362
75875SOL    HW129458   2.593   4.268   8.283
75875SOL    HW229459   2.732   4.228   8.330
75876SOL     OW29460  12.779   2.063   9.032
75876SOL    HW129461  12.686   2.084   9.032
75876SOL    HW229462  12.784   1.977   9.074
75877SOL     OW29463  13.504  12.588  11.796
75877SOL    HW129464  13.497  12.608  11.889
75877SOL    HW229465  13.595  12.558  11.785
75878SOL     OW29466  12.368   6.161  10.689
75878SOL    HW129467  12.312   6.084  10.694
75878SOL    HW229468  12.308   6.235  10.699
75879SOL     OW29469   0.441   2.192  12.219
75879SOL    HW129470   0.512   2.212  12.158
75879SOL    HW229471   0.484   2.173  12.302
75880SOL     OW29472   7.077  11.920   1.700
75880SOL    HW129473   7.164  11.889   1.675
75880SOL    HW229474   7.085  12.015   1.702
75881SOL     OW29475   5.909   2.034   2.832
75881SOL    HW129476   5.914   1.951   2.879
75881SOL    HW229477   5.827   2.074   2.861
75882SOL     OW29478   9.965   7.405   8.193
75882SOL    HW129479  10.048   7.363   8.171
75882SOL    HW229480   9.898   7.344   8.163
75883SOL     OW29481   6.173   8.873   5.896
75883SOL    HW129482   6.101   8.924   5.933
75883SOL    HW229483   6.242   8.876   5.962
75884SOL     OW29484  13.320  11.288  13.905
75884SOL    HW129485  13.297  11.255  13.992
75884SOL    HW229486  13.242  11.333  13.875
75885SOL     OW29487   8.037  12.939  10.293
75885SOL    HW129488   8.089  12.924  10.214
75885SOL    HW229489   8.035  12.854  10.337
75886SOL     OW29490   5.596   2.541  12.076
75886SOL    HW129491   5.685   2.549  12.045
75886SOL    HW229492   5.586   2.611  12.140
75887SOL     OW29493   5.165   4.562  13.663
75887SOL    HW129494   5.172   4.654  13.639
75887SOL    HW229495   5.116   4.522  13.591
75888SOL     OW29496   6.721   0.448   8.069
75888SOL    HW129497   6.786   0.470   8.002
75888SOL    HW229498   6.745   0.360   8.097
75889SOL     OW29499   6.067   9.777   3.524
75889SOL    HW129500   6.090   9.701   3.577
75889SOL    HW229501   6.137   9.784   3.460
75890SOL     OW29502  11.916  11.788   9.865
75890SOL    HW129503  11.877  11.769   9.950
75890SOL    HW229504  11.859  11.742   9.802
75891SOL     OW29505  10.254   1.496   3.129
75891SOL    HW129506  10.246   1.442   3.207
75891SOL    HW229507  10.184   1.467   3.072
75892SOL     OW29508   4.422  11.101  10.264
75892SOL    HW129509   4.483  11.066  10.328
75892SOL    HW229510   4.426  11.196  10.275
75893SOL     OW29511  11.202   2.313  14.035
75893SOL    HW129512  11.241   2.310  14.122
75893SOL    HW229513  11.275   2.329  13.976
75894SOL     OW29514   2.044   9.160  13.142
75894SOL    HW129515   1.988   9.221  13.190
75894SOL    HW229516   2.055   9.085  13.200
75895SOL     OW29517   5.438   5.578   1.982
75895SOL    HW129518   5.423   5.484   1.975
75895SOL    HW229519   5.530   5.586   2.008
75896SOL     OW29520  12.481   4.432  13.931
75896SOL    HW129521  12.520   4.346  13.915
75896SOL    HW229522  12.539   4.494  13.887
75897SOL     OW29523  13.943   0.966  11.483
75897SOL    HW129524  14.036   0.950  11.470
75897SOL    HW229525  13.939   1.031  11.552
75898SOL     OW29526   2.732  12.653   7.753
75898SOL    HW129527   2.813  12.634   7.707
75898SOL    HW229528   2.690  12.568   7.765
75899SOL     OW29529   5.283   8.851   4.354
75899SOL    HW129530   5.270   8.913   4.426
75899SOL    HW229531   5.196   8.813   4.339
75900SOL     OW29532   7.722   7.037   9.915
75900SOL    HW129533   7.780   7.056   9.989
75900SOL    HW229534   7.634   7.049   9.950
75901SOL     OW29535  12.151   1.254   6.565
75901SOL    HW129536  12.148   1.199   6.487
75901SOL    HW229537  12.103   1.333   6.540
75902SOL     OW29538   8.917   2.918   1.670
75902SOL    HW129539   8.845   2.937   1.611
75902SOL    HW229540   8.888   2.841   1.720
75903SOL     OW29541   3.210   7.543  14.068
75903SOL    HW129542   3.270   7.597  14.119
75903SOL    HW229543   3.264   7.471  14.036
75904SOL     OW29544   3.916   3.328  14.828
75904SOL    HW129545   4.001   3.371  14.826
75904SOL    HW229546   3.918   3.266  14.755
75905SOL     OW29547   8.382   5.877   5.320
75905SOL    HW129548   8.295   5.884   5.358
75905SOL    HW229549   8.380   5.934   5.243
75906SOL     OW29550   1.533   9.082   0.537
75906SOL    HW129551   1.552   9.013   0.600
75906SOL    HW229552   1.597   9.070   0.467
75907SOL     OW29553   3.677  12.884   4.049
75907SOL    HW129554   3.609  12.824   4.018
75907SOL    HW229555   3.754  12.828   4.063
75908SOL     OW29556  13.988  10.716  10.639
75908SOL    HW129557  13.977  10.804  10.603
75908SOL    HW229558  14.077  10.691  10.613
75909SOL     OW29559  11.897   5.952   6.666
75909SOL    HW129560  11.901   5.859   6.646
75909SOL    HW229561  11.920   5.995   6.583
75910SOL     OW29562   6.160   3.921   9.298
75910SOL    HW129563   6.210   3.840   9.291
75910SOL    HW229564   6.198   3.966   9.374
75911SOL     OW29565  13.492  10.781   5.530
75911SOL    HW129566  13.501  10.783   5.625
75911SOL    HW229567  13.503  10.872   5.503
75912SOL     OW29568  11.432   7.768   2.813
75912SOL    HW129569  11.376   7.717   2.755
75912SOL    HW229570  11.521   7.741   2.791
75913SOL     OW29571   8.293   2.598   0.166
75913SOL    HW129572   8.206   2.575   0.136
75913SOL    HW229573   8.279   2.639   0.252
75914SOL     OW29574   6.297  13.642  12.836
75914SOL    HW129575   6.334  13.607  12.917
75914SOL    HW229576   6.285  13.735  12.853
75915SOL     OW29577   9.365   6.555   4.271
75915SOL    HW129578   9.439   6.555   4.210
75915SOL    HW229579   9.324   6.469   4.261
75916SOL     OW29580   0.367   0.717  14.014
75916SOL    HW129581   0.409   0.784  13.960
75916SOL    HW229582   0.293   0.686  13.962
75917SOL     OW29583   4.803  12.093   8.115
75917SOL    HW129584   4.892  12.125   8.133
75917SOL    HW229585   4.810  11.998   8.129
75918SOL     OW29586   1.389  12.165  14.436
75918SOL    HW129587   1.404  12.129  14.348
75918SOL    HW229588   1.456  12.233  14.444
75919SOL     OW29589  13.911   2.637   1.919
75919SOL    HW129590  13.959   2.568   1.964
75919SOL    HW229591  13.836   2.593   1.880
75920SOL     OW29592   2.514   4.423   4.408
75920SOL    HW129593   2.604   4.412   4.438
75920SOL    HW229594   2.501   4.352   4.345
75921SOL     OW29595   8.842  13.751   4.682
75921SOL    HW129596   8.879  13.683   4.739
75921SOL    HW229597   8.903  13.824   4.690
75922SOL     OW29598   1.701  10.267  13.874
75922SOL    HW129599   1.735  10.240  13.789
75922SOL    HW229600   1.622  10.317  13.855
75923SOL     OW29601   9.746  10.637   3.740
75923SOL    HW129602   9.671  10.579   3.744
75923SOL    HW229603   9.770  10.653   3.831
75924SOL     OW29604   1.329   3.389   2.989
75924SOL    HW129605   1.277   3.396   3.070
75924SOL    HW229606   1.278   3.438   2.924
75925SOL     OW29607   2.732   5.166  10.402
75925SOL    HW129608   2.682   5.243  10.431
75925SOL    HW229609   2.696   5.145  10.316
75926SOL     OW29610   7.386   5.543   8.794
75926SOL    HW129611   7.373   5.548   8.888
75926SOL    HW229612   7.481   5.544   8.783
75927SOL     OW29613   2.251   0.821   4.565
75927SOL    HW129614   2.313   0.769   4.515
75927SOL    HW229615   2.303   0.858   4.636
75928SOL     OW29616   8.856   0.965  10.756
75928SOL    HW129617   8.842   0.871  10.751
75928SOL    HW229618   8.798   1.002  10.689
75929SOL     OW29619  10.173   1.035   5.683
75929SOL    HW129620  10.145   0.988   5.762
75929SOL    HW229621  10.092   1.064   5.642
75930SOL     OW29622   9.416   2.320   0.205
75930SOL    HW129623   9.348   2.383   0.182
75930SOL    HW229624   9.401   2.246   0.145
75931SOL     OW29625   2.373   6.921  14.279
75931SOL    HW129626   2.310   6.945  14.347
75931SOL    HW229627   2.422   7.001  14.263
75932SOL     OW29628  10.377   8.143   9.003
75932SOL    HW129629  10.453   8.178   9.048
75932SOL    HW229630  10.326   8.220   8.978
75933SOL     OW29631  11.724  11.367  10.893
75933SOL    HW129632  11.766  11.424  10.958
75933SOL    HW229633  11.688  11.428  10.828
75934SOL     OW29634  11.876   4.677   8.511
75934SOL    HW129635  11.936   4.604   8.498
75934SOL    HW229636  11.908   4.745   8.452
75935SOL     OW29637   2.990   1.668   6.283
75935SOL    HW129638   2.994   1.726   6.359
75935SOL    HW229639   2.916   1.699   6.232
75936SOL     OW29640   3.925   1.772   4.373
75936SOL    HW129641   3.840   1.763   4.331
75936SOL    HW229642   3.906   1.778   4.466
75937SOL     OW29643  11.018  12.454  13.274
75937SOL    HW129644  11.015  12.436  13.180
75937SOL    HW229645  10.937  12.415  13.308
75938SOL     OW29646   9.843  11.618  14.267
75938SOL    HW129647   9.815  11.609  14.176
75938SOL    HW229648   9.929  11.662  14.261
75939SOL     OW29649  11.117   5.852   3.172
75939SOL    HW129650  11.041   5.906   3.150
75939SOL    HW229651  11.193   5.905   3.148
75940SOL     OW29652  11.473   2.208   4.105
75940SOL    HW129653  11.467   2.124   4.061
75940SOL    HW229654  11.401   2.260   4.070
75941SOL     OW29655  13.142   1.414  12.570
75941SOL    HW129656  13.171   1.475  12.503
75941SOL    HW229657  13.066   1.370  12.533
75942SOL     OW29658   8.427  11.774   9.422
75942SOL    HW129659   8.512  11.811   9.397
75942SOL    HW229660   8.431  11.769   9.518
75943SOL     OW29661   5.568  14.735   0.965
75943SOL    HW129662   5.629  14.672   1.003
75943SOL    HW229663   5.520  14.771   1.040
75944SOL     OW29664   1.466   0.989  14.456
75944SOL    HW129665   1.447   1.047  14.382
75944SOL    HW229666   1.390   0.931  14.462
75945SOL     OW29667  12.249   0.272   6.615
75945SOL    HW129668  12.289   0.218   6.547
75945SOL    HW229669  12.311   0.344   6.627
75946SOL     OW29670   4.677   3.016   2.281
75946SOL    HW129671   4.614   3.060   2.338
75946SOL    HW229672   4.729   2.962   2.341
75947SOL     OW29673   3.550   4.953   5.930
75947SOL    HW129674   3.559   5.025   5.991
75947SOL    HW229675   3.612   4.887   5.961
75948SOL     OW29676   7.084   3.287  12.405
75948SOL    HW129677   7.111   3.338  12.481
75948SOL    HW229678   7.082   3.350  12.333
75949SOL     OW29679   3.752   1.302   3.642
75949SOL    HW129680   3.840   1.267   3.635
75949SOL    HW229681   3.737   1.310   3.737
75950SOL     OW29682   6.769   3.784   1.145
75950SOL    HW129683   6.796   3.822   1.228
75950SOL    HW229684   6.685   3.742   1.163
75951SOL     OW29685   0.780   7.287   6.875
75951SOL    HW129686   0.716   7.326   6.816
75951SOL    HW229687   0.853   7.263   6.818
75952SOL     OW29688  14.036   9.856   8.861
75952SOL    HW129689  14.082   9.912   8.800
75952SOL    HW229690  14.002   9.915   8.928
75953SOL     OW29691   7.400   3.985   5.038
75953SOL    HW129692   7.463   3.974   4.967
75953SOL    HW229693   7.450   4.024   5.109
75954SOL     OW29694  10.567   4.741   5.370
75954SOL    HW129695  10.494   4.791   5.408
75954SOL    HW229696  10.526   4.684   5.305
75955SOL     OW29697  13.828   7.521   3.474
75955SOL    HW129698  13.781   7.604   3.485
75955SOL    HW229699  13.814   7.474   3.556
75956SOL     OW29700   7.668  14.772  13.537
75956SOL    HW129701   7.709  14.706  13.594
75956SOL    HW229702   7.608  14.819  13.595
75957SOL     OW29703  11.871   1.549   3.684
75957SOL    HW129704  11.953   1.563   3.637
75957SOL    HW229705  11.896   1.546   3.776
75958SOL     OW29706   2.516  10.549   3.763
75958SOL    HW129707   2.518  10.579   3.673
75958SOL    HW229708   2.424  10.526   3.779
75959SOL     OW29709   6.247  13.907   3.996
75959SOL    HW129710   6.194  13.835   3.962
75959SOL    HW229711   6.261  13.963   3.920
75960SOL     OW29712  13.480   9.743   5.571
75960SOL    HW129713  13.436   9.729   5.487
75960SOL    HW229714  13.535   9.820   5.556
75961SOL     OW29715   2.495   6.855   7.894
75961SOL    HW129716   2.590   6.857   7.903
75961SOL    HW229717   2.476   6.766   7.862
75962SOL     OW29718  13.330   0.253  11.537
75962SOL    HW129719  13.246   0.269  11.581
75962SOL    HW229720  13.309   0.255  11.444
75963SOL     OW29721   5.051  11.875  13.219
75963SOL    HW129722   5.063  11.794  13.169
75963SOL    HW229723   5.004  11.847  13.298
75964SOL     OW29724   6.456  14.688   7.163
75964SOL    HW129725   6.453  14.600   7.125
75964SOL    HW229726   6.549  14.709   7.167
75965SOL     OW29727   3.644  11.421   8.897
75965SOL    HW129728   3.604  11.438   8.982
75965SOL    HW229729   3.668  11.329   8.899
75966SOL     OW29730   4.894   0.071   6.961
75966SOL    HW129731   4.916   0.155   7.000
75966SOL    HW229732   4.813   0.086   6.914
75967SOL     OW29733   9.878   0.215  10.713
75967SOL    HW129734   9.883   0.281  10.783
75967SOL    HW229735   9.874   0.266  10.632
75968SOL     OW29736  10.939  10.207   2.472
75968SOL    HW129737  10.947  10.112   2.469
75968SOL    HW229738  10.884  10.224   2.548
75969SOL     OW29739   6.202  14.762   7.399
75969SOL    HW129740   6.251  14.812   7.465
75969SOL    HW229741   6.247  14.678   7.394
75970SOL     OW29742  11.587   6.257   8.437
75970SOL    HW129743  11.549   6.264   8.349
75970SOL    HW229744  11.626   6.343   8.453
75971SOL     OW29745   8.468  10.724  14.482
75971SOL    HW129746   8.452  10.785  14.555
75971SOL    HW229747   8.460  10.779  14.404
75972SOL     OW29748   5.924   9.882   5.376
75972SOL    HW129749   5.899   9.973   5.360
75972SOL    HW229750   5.841   9.834   5.374
75973SOL     OW29751   7.617   7.589   8.505
75973SOL    HW129752   7.694   7.555   8.459
75973SOL    HW229753   7.556   7.516   8.508
75974SOL     OW29754   7.825   9.022   6.110
75974SOL    HW129755   7.871   9.105   6.099
75974SOL    HW229756   7.748   9.044   6.162
75975SOL     OW29757   5.450  13.336   7.459
75975SOL    HW129758   5.538  13.361   7.432
75975SOL    HW229759   5.454  13.241   7.468
75976SOL     OW29760   8.049  14.310   4.571
75976SOL    HW129761   8.034  14.228   4.619
75976SOL    HW229762   8.052  14.284   4.479
75977SOL     OW29763   4.222   7.387  13.930
75977SOL    HW129764   4.246   7.408  14.020
75977SOL    HW229765   4.261   7.456  13.877
75978SOL     OW29766   1.698   9.339   3.000
75978SOL    HW129767   1.630   9.308   2.940
75978SOL    HW229768   1.658   9.414   3.044
75979SOL     OW29769   6.315   1.054   5.061
75979SOL    HW129770   6.382   1.069   4.994
75979SOL    HW229771   6.233   1.077   5.018
75980SOL     OW29772   6.349   0.205   6.698
75980SOL    HW129773   6.397   0.123   6.685
75980SOL    HW229774   6.258   0.177   6.713
75981SOL     OW29775   4.647   1.209   3.393
75981SOL    HW129776   4.598   1.147   3.446
75981SOL    HW229777   4.695   1.155   3.331
75982SOL     OW29778   1.975   4.451   1.499
75982SOL    HW129779   2.047   4.459   1.437
75982SOL    HW229780   2.017   4.439   1.584
75983SOL     OW29781  10.436  14.547   8.884
75983SOL    HW129782  10.388  14.465   8.877
75983SOL    HW229783  10.408  14.585   8.967
75984SOL     OW29784  11.212   0.648  10.020
75984SOL    HW129785  11.122   0.661  10.049
75984SOL    HW229786  11.230   0.720   9.960
75985SOL     OW29787   0.109   8.861   7.932
75985SOL    HW129788   0.041   8.924   7.952
75985SOL    HW229789   0.168   8.864   8.008
75986SOL     OW29790   9.760   0.433  11.821
75986SOL    HW129791   9.811   0.353  11.809
75986SOL    HW229792   9.824   0.503  11.808
75987SOL     OW29793  11.726   5.704   4.101
75987SOL    HW129794  11.813   5.666   4.090
75987SOL    HW229795  11.678   5.642   4.156
75988SOL     OW29796  12.633   5.048   9.837
75988SOL    HW129797  12.657   5.031   9.928
75988SOL    HW229798  12.538   5.034   9.835
75989SOL     OW29799   3.703  10.680   7.007
75989SOL    HW129800   3.725  10.606   6.951
75989SOL    HW229801   3.733  10.757   6.958
75990SOL     OW29802   9.421   5.937  11.468
75990SOL    HW129803   9.393   5.928  11.559
75990SOL    HW229804   9.413   6.030  11.449
75991SOL     OW29805   7.340   4.121  11.401
75991SOL    HW129806   7.386   4.205  11.389
75991SOL    HW229807   7.360   4.072  11.322
75992SOL     OW29808  13.235   3.856  12.924
75992SOL    HW129809  13.242   3.932  12.865
75992SOL    HW229810  13.211   3.783  12.867
75993SOL     OW29811   2.009  12.343   5.353
75993SOL    HW129812   1.945  12.382   5.412
75993SOL    HW229813   1.985  12.251   5.348
75994SOL     OW29814  13.651  10.604  10.421
75994SOL    HW129815  13.573  10.549  10.425
75994SOL    HW229816  13.662  10.622  10.327
75995SOL     OW29817   3.031   2.173   8.034
75995SOL    HW129818   3.123   2.163   8.010
75995SOL    HW229819   2.990   2.215   7.958
75996SOL     OW29820   4.382   0.643   0.385
75996SOL    HW129821   4.368   0.558   0.427
75996SOL    HW229822   4.297   0.667   0.349
75997SOL     OW29823   6.907  12.330   7.822
75997SOL    HW129824   6.880  12.249   7.866
75997SOL    HW229825   6.948  12.300   7.741
75998SOL     OW29826   3.720   7.180   4.904
75998SOL    HW129827   3.801   7.209   4.945
75998SOL    HW229828   3.745   7.157   4.814
75999SOL     OW29829   9.838   1.857   2.363
75999SOL    HW129830   9.794   1.922   2.418
75999SOL    HW229831   9.853   1.903   2.280
76000SOL     OW29832   1.121   4.728  13.806
76000SOL    HW129833   1.205   4.768  13.828
76000SOL    HW229834   1.132   4.635  13.825
76001SOL     OW29835  13.967   8.224   4.446
76001SOL    HW129836  13.898   8.248   4.507
76001SOL    HW229837  13.997   8.138   4.475
76002SOL     OW29838   4.354   7.181   2.399
76002SOL    HW129839   4.259   7.172   2.395
76002SOL    HW229840   4.369   7.235   2.476
76003SOL     OW29841  10.033   9.100  10.864
76003SOL    HW129842  10.120   9.066  10.886
76003SOL    HW229843  10.040   9.195  10.877
76004SOL     OW29844  12.042  14.009   8.614
76004SOL    HW129845  12.095  14.009   8.534
76004SOL    HW229846  12.091  13.953   8.675
76005SOL     OW29847   0.048   0.445   2.089
76005SOL    HW129848   0.067   0.493   2.009
76005SOL    HW229849   0.098   0.491   2.157
76006SOL     OW29850  14.495   5.431   9.949
76006SOL    HW129851  14.516   5.358   9.892
76006SOL    HW229852  14.494   5.507   9.891
76007SOL     OW29853   2.525  11.302   9.708
76007SOL    HW129854   2.495  11.314   9.618
76007SOL    HW229855   2.620  11.303   9.702
76008SOL     OW29856  12.857   8.974   2.007
76008SOL    HW129857  12.860   9.069   1.994
76008SOL    HW229858  12.860   8.963   2.102
76009SOL     OW29859  14.806   8.129   4.273
76009SOL    HW129860  14.769   8.072   4.340
76009SOL    HW229861   0.021   8.111   4.275
76010SOL     OW29862   0.310   3.078   5.085
76010SOL    HW129863   0.281   3.050   4.998
76010SOL    HW229864   0.301   3.000   5.140
76011SOL     OW29865  11.490   6.657  13.011
76011SOL    HW129866  11.541   6.632  12.933
76011SOL    HW229867  11.529   6.739  13.040
76012SOL     OW29868   4.822   0.590   5.735
76012SOL    HW129869   4.787   0.656   5.675
76012SOL    HW229870   4.768   0.599   5.814
76013SOL     OW29871  12.654  11.766  13.772
76013SOL    HW129872  12.586  11.719  13.722
76013SOL    HW229873  12.623  11.856  13.775
76014SOL     OW29874   9.076   6.232   0.484
76014SOL    HW129875   9.075   6.326   0.502
76014SOL    HW229876   8.986   6.204   0.499
76015SOL     OW29877   5.920   1.014   4.196
76015SOL    HW129878   6.011   0.985   4.206
76015SOL    HW229879   5.879   0.949   4.139
76016SOL     OW29880   7.853   4.251  14.204
76016SOL    HW129881   7.763   4.279  14.187
76016SOL    HW229882   7.877   4.200  14.127
76017SOL     OW29883   5.616   6.100   7.182
76017SOL    HW129884   5.706   6.074   7.163
76017SOL    HW229885   5.616   6.121   7.276
76018SOL     OW29886   5.775   9.971  10.142
76018SOL    HW129887   5.820   9.901  10.190
76018SOL    HW229888   5.701   9.994  10.198
76019SOL     OW29889   0.096  13.998   4.052
76019SOL    HW129890   0.181  14.000   4.008
76019SOL    HW229891   0.035  14.034   3.988
76020SOL     OW29892  13.374   0.425   7.696
76020SOL    HW129893  13.322   0.372   7.758
76020SOL    HW229894  13.451   0.451   7.746
76021SOL     OW29895   2.590   8.283   6.534
76021SOL    HW129896   2.631   8.274   6.620
76021SOL    HW229897   2.509   8.232   6.541
76022SOL     OW29898  10.787  10.797  10.121
76022SOL    HW129899  10.734  10.733  10.073
76022SOL    HW229900  10.764  10.784  10.213
76023SOL     OW29901   7.913   2.192  10.352
76023SOL    HW129902   7.998   2.235  10.345
76023SOL    HW229903   7.915   2.125  10.284
76024SOL     OW29904   8.688   9.897   6.805
76024SOL    HW129905   8.648   9.915   6.720
76024SOL    HW229906   8.767   9.952   6.807
76025SOL     OW29907   3.299  11.982   4.987
76025SOL    HW129908   3.266  12.046   5.050
76025SOL    HW229909   3.221  11.938   4.953
76026SOL     OW29910   8.470   0.550   0.296
76026SOL    HW129911   8.565   0.539   0.304
76026SOL    HW229912   8.443   0.486   0.231
76027SOL     OW29913   4.233   1.104  10.701
76027SOL    HW129914   4.180   1.106  10.781
76027SOL    HW229915   4.188   1.041  10.645
76028SOL     OW29916  10.711  10.546   8.243
76028SOL    HW129917  10.642  10.490   8.280
76028SOL    HW229918  10.786  10.533   8.301
76029SOL     OW29919  14.133   0.205   4.265
76029SOL    HW129920  14.056   0.252   4.299
76029SOL    HW229921  14.142   0.237   4.175
76030SOL     OW29922  13.415  12.498   1.928
76030SOL    HW129923  13.408  12.449   2.011
76030SOL    HW229924  13.506  12.484   1.900
76031SOL     OW29925  11.722   6.023   2.808
76031SOL    HW129926  11.732   6.085   2.736
76031SOL    HW229927  11.732   6.076   2.887
76032SOL     OW29928  10.600  10.189   8.160
76032SOL    HW129929  10.562  10.226   8.081
76032SOL    HW229930  10.529  10.190   8.224
76033SOL     OW29931   2.118   5.942  13.961
76033SOL    HW129932   2.145   5.853  13.938
76033SOL    HW229933   2.081   5.934  14.049
76034SOL     OW29934   8.181  10.731   9.746
76034SOL    HW129935   8.273  10.731   9.770
76034SOL    HW229936   8.181  10.747   9.651
76035SOL     OW29937  11.541   0.414   2.758
76035SOL    HW129938  11.511   0.498   2.723
76035SOL    HW229939  11.613   0.437   2.817
76036SOL     OW29940   5.147  12.360  12.734
76036SOL    HW129941   5.232  12.315  12.734
76036SOL    HW229942   5.162  12.438  12.679
76037SOL     OW29943   4.965   2.131  10.763
76037SOL    HW129944   5.052   2.109  10.795
76037SOL    HW229945   4.935   2.203  10.819
76038SOL     OW29946   4.349   8.537  13.038
76038SOL    HW129947   4.343   8.565  12.947
76038SOL    HW229948   4.268   8.567  13.079
76039SOL     OW29949   8.241   4.066  10.759
76039SOL    HW129950   8.180   4.070  10.833
76039SOL    HW229951   8.312   4.009  10.789
76040SOL     OW29952  13.921   0.653  14.328
76040SOL    HW129953  13.894   0.608  14.248
76040SOL    HW229954  13.919   0.585  14.395
76041SOL     OW29955   1.676   7.797  12.050
76041SOL    HW129956   1.664   7.763  11.962
76041SOL    HW229957   1.701   7.721  12.102
76042SOL     OW29958   6.069   3.278  10.131
76042SOL    HW129959   6.011   3.231  10.071
76042SOL    HW229960   6.154   3.233  10.123
76043SOL     OW29961   8.293   0.574   1.148
76043SOL    HW129962   8.306   0.496   1.094
76043SOL    HW229963   8.333   0.645   1.098
76044SOL     OW29964   4.921   6.144  14.378
76044SOL    HW129965   4.987   6.213  14.374
76044SOL    HW229966   4.838   6.191  14.364
76045SOL     OW29967  12.227   8.877   7.309
76045SOL    HW129968  12.239   8.932   7.232
76045SOL    HW229969  12.229   8.787   7.275
76046SOL     OW29970   4.220   5.898   0.319
76046SOL    HW129971   4.176   5.831   0.372
76046SOL    HW229972   4.255   5.850   0.244
76047SOL     OW29973   5.633   4.913   9.351
76047SOL    HW129974   5.643   4.948   9.440
76047SOL    HW229975   5.692   4.965   9.298
76048SOL     OW29976   6.940  12.340   9.619
76048SOL    HW129977   6.885  12.382   9.553
76048SOL    HW229978   6.901  12.254   9.632
76049SOL     OW29979  11.549   2.640  10.038
76049SOL    HW129980  11.535   2.650   9.944
76049SOL    HW229981  11.640   2.611  10.046
76050SOL     OW29982  11.130   5.552   9.141
76050SOL    HW129983  11.115   5.624   9.079
76050SOL    HW229984  11.116   5.591   9.227
76051SOL     OW29985   7.767  12.303  10.837
76051SOL    HW129986   7.850  12.258  10.818
76051SOL    HW229987   7.758  12.299  10.932
76052SOL     OW29988   9.312   4.004   9.995
76052SOL    HW129989   9.358   4.057   9.929
76052SOL    HW229990   9.308   4.060  10.072
76053SOL     OW29991  14.572  13.469   4.554
76053SOL    HW129992  14.659  13.446   4.522
76053SOL    HW229993  14.581  13.472   4.649
76054SOL     OW29994   5.306   1.265  14.190
76054SOL    HW129995   5.240   1.199  14.209
76054SOL    HW229996   5.293   1.333  14.257
76055SOL     OW29997   4.040  11.162   4.298
76055SOL    HW129998   4.056  11.210   4.379
76055SOL    HW229999   3.989  11.086   4.325
76056SOL     OW30000   7.921   8.236   8.950
76056SOL    HW130001   7.971   8.305   8.995
76056SOL    HW230002   7.833   8.271   8.944
76057SOL     OW30003   4.775   9.869   0.684
76057SOL    HW130004   4.749   9.957   0.711
76057SOL    HW230005   4.768   9.869   0.589
76058SOL     OW30006   7.942   5.870   1.804
76058SOL    HW130007   7.937   5.863   1.708
76058SOL    HW230008   7.982   5.956   1.819
76059SOL     OW30009   5.567   9.366   5.483
76059SOL    HW130010   5.545   9.273   5.487
76059SOL    HW230011   5.568   9.386   5.390
76060SOL     OW30012  13.654   9.447   7.069
76060SOL    HW130013  13.699   9.449   7.154
76060SOL    HW230014  13.570   9.406   7.088
76061SOL     OW30015   2.760  11.841  10.316
76061SOL    HW130016   2.809  11.760  10.300
76061SOL    HW230017   2.801  11.905  10.258
76062SOL     OW30018  10.604   5.805   2.536
76062SOL    HW130019  10.557   5.886   2.553
76062SOL    HW230020  10.664   5.826   2.464
76063SOL     OW30021   4.541   5.317   6.598
76063SOL    HW130022   4.445   5.316   6.607
76063SOL    HW230023   4.564   5.226   6.582
76064SOL     OW30024  13.970   5.162  14.212
76064SOL    HW130025  13.948   5.241  14.162
76064SOL    HW230026  13.900   5.156  14.277
76065SOL     OW30027   6.711   8.120   5.832
76065SOL    HW130028   6.688   8.083   5.918
76065SOL    HW230029   6.782   8.182   5.851
76066SOL     OW30030  10.596  12.222   8.517
76066SOL    HW130031  10.684  12.257   8.501
76066SOL    HW230032  10.603  12.177   8.601
76067SOL     OW30033   2.794   6.352   9.538
76067SOL    HW130034   2.763   6.269   9.575
76067SOL    HW230035   2.724   6.381   9.480
76068SOL     OW30036   6.177  12.999   1.112
76068SOL    HW130037   6.204  13.014   1.203
76068SOL    HW230038   6.254  12.959   1.071
76069SOL     OW30039  10.184   7.761  11.673
76069SOL    HW130040  10.129   7.720  11.606
76069SOL    HW230041  10.250   7.810  11.624
76070SOL     OW30042   9.296  11.135   5.762
76070SOL    HW130043   9.283  11.151   5.856
76070SOL    HW230044   9.220  11.084   5.736
76071SOL     OW30045  14.033  13.062   5.989
76071SOL    HW130046  13.979  12.988   5.962
76071SOL    HW230047  13.970  13.134   5.999
76072SOL     OW30048  14.311   7.495  10.973
76072SOL    HW130049  14.261   7.572  11.000
76072SOL    HW230050  14.271   7.422  11.021
76073SOL     OW30051   7.229   5.031   7.389
76073SOL    HW130052   7.264   5.089   7.457
76073SOL    HW230053   7.264   5.067   7.307
76074SOL     OW30054  11.157   7.360   8.403
76074SOL    HW130055  11.120   7.321   8.324
76074SOL    HW230056  11.249   7.374   8.382
76075SOL     OW30057   7.882  12.923   3.876
76075SOL    HW130058   7.872  12.839   3.920
76075SOL    HW230059   7.967  12.956   3.905
76076SOL     OW30060   8.184   7.962   0.271
76076SOL    HW130061   8.160   8.044   0.315
76076SOL    HW230062   8.130   7.959   0.193
76077SOL     OW30063  14.216   3.638  11.349
76077SOL    HW130064  14.255   3.647  11.436
76077SOL    HW230065  14.255   3.559  11.314
76078SOL     OW30066  12.150   9.596  14.331
76078SOL    HW130067  12.139   9.561  14.242
76078SOL    HW230068  12.214   9.667  14.321
76079SOL     OW30069   7.792  11.248  13.115
76079SOL    HW130070   7.717  11.190  13.131
76079SOL    HW230071   7.848  11.198  13.056
76080SOL     OW30072   1.814  11.378   8.190
76080SOL    HW130073   1.898  11.413   8.159
76080SOL    HW230074   1.793  11.308   8.127
76081SOL     OW30075   4.334   9.987  10.713
76081SOL    HW130076   4.354   9.983  10.619
76081SOL    HW230077   4.419   9.971  10.756
76082SOL     OW30078   1.651   5.299   8.414
76082SOL    HW130079   1.707   5.257   8.349
76082SOL    HW230080   1.712   5.347   8.470
76083SOL     OW30081  11.025   8.905   4.083
76083SOL    HW130082  10.963   8.913   4.156
76083SOL    HW230083  11.012   8.816   4.050
76084SOL     OW30084   9.951  10.301  12.660
76084SOL    HW130085   9.867  10.296  12.616
76084SOL    HW230086   9.982  10.390  12.644
76085SOL     OW30087   4.844  11.571  14.530
76085SOL    HW130088   4.793  11.511  14.477
76085SOL    HW230089   4.780  11.636  14.561
76086SOL     OW30090   2.889  13.698   7.013
76086SOL    HW130091   2.901  13.719   6.921
76086SOL    HW230092   2.879  13.603   7.015
76087SOL     OW30093  12.082   6.619   2.793
76087SOL    HW130094  12.101   6.637   2.885
76087SOL    HW230095  12.167   6.626   2.749
76088SOL     OW30096   4.680   8.621   4.193
76088SOL    HW130097   4.642   8.534   4.181
76088SOL    HW230098   4.772   8.604   4.215
76089SOL     OW30099  10.003   8.482  14.776
76089SOL    HW130100  10.060   8.461  14.850
76089SOL    HW230101  10.056   8.461  14.699
76090SOL     OW30102  12.104   8.648   0.935
76090SOL    HW130103  12.096   8.664   1.030
76090SOL    HW230104  12.198   8.637   0.920
76091SOL     OW30105   5.907   6.075   9.280
76091SOL    HW130106   5.901   6.159   9.235
76091SOL    HW230107   5.863   6.089   9.363
76092SOL     OW30108  10.801  10.544  14.590
76092SOL    HW130109  10.842  10.519  14.673
76092SOL    HW230110  10.708  10.547  14.610
76093SOL     OW30111   7.781   8.265   7.320
76093SOL    HW130112   7.773   8.313   7.238
76093SOL    HW230113   7.739   8.322   7.385
76094SOL     OW30114   8.103   2.769  11.185
76094SOL    HW130115   8.105   2.686  11.234
76094SOL    HW230116   8.118   2.836  11.252
76095SOL     OW30117  11.259   9.654   9.009
76095SOL    HW130118  11.219   9.575   9.047
76095SOL    HW230119  11.287   9.626   8.922
76096SOL     OW30120   4.927   1.378  11.069
76096SOL    HW130121   4.851   1.327  11.096
76096SOL    HW230122   4.986   1.376  11.145
76097SOL     OW30123  14.655   1.175  10.323
76097SOL    HW130124  14.688   1.252  10.369
76097SOL    HW230125  14.567   1.200  10.294
76098SOL     OW30126   6.730  14.628   0.682
76098SOL    HW130127   6.772  14.699   0.730
76098SOL    HW230128   6.722  14.557   0.746
76099SOL     OW30129   0.784   5.481  14.359
76099SOL    HW130130   0.807   5.389  14.369
76099SOL    HW230131   0.814   5.522  14.440
76100SOL     OW30132   3.582   0.061  13.705
76100SOL    HW130133   3.662   0.057  13.757
76100SOL    HW230134   3.553   0.152  13.712
76101SOL     OW30135  14.530   4.086  14.286
76101SOL    HW130136  14.596   4.024  14.316
76101SOL    HW230137  14.533   4.079  14.190
76102SOL     OW30138   6.434   0.528   8.530
76102SOL    HW130139   6.419   0.446   8.578
76102SOL    HW230140   6.486   0.582   8.591
76103SOL     OW30141  14.321   3.716   3.226
76103SOL    HW130142  14.309   3.752   3.314
76103SOL    HW230143  14.232   3.708   3.191
76104SOL     OW30144  14.099   9.926  11.127
76104SOL    HW130145  14.024   9.889  11.173
76104SOL    HW230146  14.061   9.990  11.066
76105SOL     OW30147   8.304  11.731   9.920
76105SOL    HW130148   8.337  11.740   9.830
76105SOL    HW230149   8.380  11.703   9.971
76106SOL     OW30150   6.816  10.526  10.329
76106SOL    HW130151   6.889  10.535  10.268
76106SOL    HW230152   6.785  10.437  10.317
76107SOL     OW30153  10.972  14.465   1.534
76107SOL    HW130154  10.920  14.443   1.457
76107SOL    HW230155  10.908  14.490   1.600
76108SOL     OW30156   5.400   6.868   4.770
76108SOL    HW130157   5.452   6.936   4.727
76108SOL    HW230158   5.358   6.913   4.844
76109SOL     OW30159   4.728   3.337  14.445
76109SOL    HW130160   4.722   3.265  14.383
76109SOL    HW230161   4.808   3.318  14.495
76110SOL     OW30162  12.806   4.533  10.801
76110SOL    HW130163  12.818   4.461  10.862
76110SOL    HW230164  12.895   4.556  10.773
76111SOL     OW30165   8.395  12.072   2.951
76111SOL    HW130166   8.393  12.007   3.021
76111SOL    HW230167   8.355  12.028   2.876
76112SOL     OW30168   4.940  13.943  11.176
76112SOL    HW130169   4.907  13.932  11.087
76112SOL    HW230170   5.034  13.955  11.166
76113SOL     OW30171  11.985  10.474  10.961
76113SOL    HW130172  12.066  10.478  10.910
76113SOL    HW230173  11.940  10.396  10.927
76114SOL     OW30174   5.104   7.745   8.853
76114SOL    HW130175   5.197   7.728   8.871
76114SOL    HW230176   5.098   7.743   8.758
76115SOL     OW30177   1.673   9.461   7.386
76115SOL    HW130178   1.764   9.431   7.396
76115SOL    HW230179   1.628   9.387   7.346
76116SOL     OW30180  12.199  11.634  14.363
76116SOL    HW130181  12.128  11.628  14.426
76116SOL    HW230182  12.158  11.672  14.285
76117SOL     OW30183   0.733   8.585   7.648
76117SOL    HW130184   0.736   8.553   7.738
76117SOL    HW230185   0.644   8.620   7.638
76118SOL     OW30186   2.886  11.176   5.268
76118SOL    HW130187   2.908  11.085   5.288
76118SOL    HW230188   2.870  11.175   5.173
76119SOL     OW30189   6.217  12.322   9.454
76119SOL    HW130190   6.231  12.323   9.359
76119SOL    HW230191   6.271  12.393   9.487
76120SOL     OW30192   6.018  14.089   8.414
76120SOL    HW130193   5.972  14.048   8.340
76120SOL    HW230194   5.964  14.164   8.437
76121SOL     OW30195  13.904  13.675   9.806
76121SOL    HW130196  13.896  13.630   9.891
76121SOL    HW230197  13.813  13.685   9.776
76122SOL     OW30198  10.869   1.159  13.236
76122SOL    HW130199  10.935   1.174  13.303
76122SOL    HW230200  10.856   1.245  13.196
76123SOL     OW30201  14.687  10.635   8.394
76123SOL    HW130202  14.723  10.575   8.329
76123SOL    HW230203  14.711  10.722   8.362
76124SOL     OW30204   1.676   1.030   1.465
76124SOL    HW130205   1.695   0.995   1.552
76124SOL    HW230206   1.747   1.091   1.448
76125SOL     OW30207   6.465   8.598  13.863
76125SOL    HW130208   6.526   8.530  13.892
76125SOL    HW230209   6.441   8.573  13.774
76126SOL     OW30210   1.498  11.736  11.691
76126SOL    HW130211   1.455  11.792  11.627
76126SOL    HW230212   1.515  11.794  11.766
76127SOL     OW30213  14.508   6.423  14.808
76127SOL    HW130214  14.585   6.414  14.864
76127SOL    HW230215  14.541   6.462  14.728
76128SOL     OW30216   1.904   5.334  14.650
76128SOL    HW130217   1.832   5.372  14.600
76128SOL    HW230218   1.982   5.378  14.617
76129SOL     OW30219   3.730   6.928  12.760
76129SOL    HW130220   3.742   7.021  12.777
76129SOL    HW230221   3.697   6.892  12.842
76130SOL     OW30222  13.218   5.412  11.717
76130SOL    HW130223  13.291   5.462  11.680
76130SOL    HW230224  13.218   5.330  11.669
76131SOL     OW30225   5.059   1.029   2.097
76131SOL    HW130226   4.971   1.002   2.070
76131SOL    HW230227   5.103   1.051   2.015
76132SOL     OW30228   7.379  10.148  14.205
76132SOL    HW130229   7.342  10.185  14.286
76132SOL    HW230230   7.474  10.151  14.219
76133SOL     OW30231   8.528   0.767   5.059
76133SOL    HW130232   8.611   0.781   5.013
76133SOL    HW230233   8.536   0.680   5.098
76134SOL     OW30234   5.623   7.182   9.362
76134SOL    HW130235   5.693   7.127   9.327
76134SOL    HW230236   5.591   7.134   9.438
76135SOL     OW30237   7.293  12.499   8.382
76135SOL    HW130238   7.371  12.463   8.423
76135SOL    HW230239   7.225  12.435   8.399
76136SOL     OW30240   2.238   4.338   5.947
76136SOL    HW130241   2.315   4.349   5.892
76136SOL    HW230242   2.237   4.416   6.003
76137SOL     OW30243   5.325   9.848   9.305
76137SOL    HW130244   5.260   9.888   9.246
76137SOL    HW230245   5.300   9.756   9.310
76138SOL     OW30246  13.054   4.587  10.705
76138SOL    HW130247  13.137   4.539  10.708
76138SOL    HW230248  13.077   4.678  10.724
76139SOL     OW30249  12.649   5.774   9.882
76139SOL    HW130250  12.663   5.682   9.859
76139SOL    HW230251  12.729   5.799   9.928
76140SOL     OW30252  12.327  14.055  12.232
76140SOL    HW130253  12.296  13.968  12.255
76140SOL    HW230254  12.335  14.052  12.136
76141SOL     OW30255   0.951   3.820   3.178
76141SOL    HW130256   0.990   3.744   3.135
76141SOL    HW230257   0.857   3.805   3.174
76142SOL     OW30258  10.256   7.524  13.059
76142SOL    HW130259  10.329   7.461  13.058
76142SOL    HW230260  10.220   7.520  12.970
76143SOL     OW30261   3.247   7.896  10.199
76143SOL    HW130262   3.255   7.962  10.130
76143SOL    HW230263   3.332   7.852  10.201
76144SOL     OW30264   8.464   9.958   2.780
76144SOL    HW130265   8.477   9.869   2.813
76144SOL    HW230266   8.401   9.948   2.708
76145SOL     OW30267   2.841   4.550  12.240
76145SOL    HW130268   2.809   4.467  12.204
76145SOL    HW230269   2.848   4.608  12.164
76146SOL     OW30270   2.630   7.425   6.620
76146SOL    HW130271   2.663   7.343   6.656
76146SOL    HW230272   2.659   7.425   6.529
76147SOL     OW30273  11.357  10.412  14.526
76147SOL    HW130274  11.297  10.355  14.478
76147SOL    HW230275  11.300  10.477  14.568
76148SOL     OW30276   4.127  14.871   0.125
76148SOL    HW130277   4.128   0.002   0.220
76148SOL    HW230278   4.219  14.865   0.100
76149SOL     OW30279   6.303  12.958  13.406
76149SOL    HW130280   6.315  13.012  13.484
76149SOL    HW230281   6.268  12.876  13.439
76150SOL     OW30282   6.777  11.153   5.875
76150SOL    HW130283   6.734  11.238   5.874
76150SOL    HW230284   6.818  11.148   5.962
76151SOL     OW30285   8.850   1.474  12.418
76151SOL    HW130286   8.900   1.553  12.439
76151SOL    HW230287   8.821   1.487  12.328
76152SOL     OW30288   1.575   6.340   2.032
76152SOL    HW130289   1.571   6.425   1.989
76152SOL    HW230290   1.591   6.361   2.125
76153SOL     OW30291   8.714  10.337  12.906
76153SOL    HW130292   8.721  10.310  12.814
76153SOL    HW230293   8.620  10.334  12.924
76154SOL     OW30294  12.024  11.224   4.082
76154SOL    HW130295  12.027  11.142   4.033
76154SOL    HW230296  11.985  11.287   4.021
76155SOL     OW30297  13.406   1.619   3.871
76155SOL    HW130298  13.413   1.593   3.963
76155SOL    HW230299  13.349   1.696   3.872
76156SOL     OW30300   0.129   8.127  13.308
76156SOL    HW130301   0.081   8.124  13.391
76156SOL    HW230302   0.075   8.077  13.247
76157SOL     OW30303  11.274   2.854   1.803
76157SOL    HW130304  11.281   2.832   1.896
76157SOL    HW230305  11.196   2.806   1.773
76158SOL     OW30306   1.386  11.715   4.131
76158SOL    HW130307   1.334  11.776   4.184
76158SOL    HW230308   1.476  11.744   4.144
76159SOL     OW30309   4.262   0.602  12.651
76159SOL    HW130310   4.191   0.568  12.707
76159SOL    HW230311   4.219   0.663  12.591
76160SOL     OW30312  13.703  13.475   6.491
76160SOL    HW130313  13.694  13.449   6.583
76160SOL    HW230314  13.617  13.461   6.453
76161SOL     OW30315   8.377   1.211   2.320
76161SOL    HW130316   8.451   1.256   2.361
76161SOL    HW230317   8.404   1.119   2.320
76162SOL     OW30318   7.464  10.647   1.815
76162SOL    HW130319   7.518  10.577   1.853
76162SOL    HW230320   7.380  10.639   1.859
76163SOL     OW30321  12.799   3.046  14.621
76163SOL    HW130322  12.774   3.084  14.537
76163SOL    HW230323  12.895   3.049  14.620
76164SOL     OW30324   8.452   7.375   2.714
76164SOL    HW130325   8.514   7.428   2.764
76164SOL    HW230326   8.410   7.436   2.654
76165SOL     OW30327   6.943   0.944  11.361
76165SOL    HW130328   7.019   1.002  11.353
76165SOL    HW230329   6.915   0.953  11.452
76166SOL     OW30330   0.963   9.039   0.219
76166SOL    HW130331   0.964   9.062   0.126
76166SOL    HW230332   0.921   8.954   0.223
76167SOL     OW30333   5.196   2.733   4.096
76167SOL    HW130334   5.278   2.700   4.132
76167SOL    HW230335   5.213   2.742   4.002
76168SOL     OW30336   3.880   3.174  10.868
76168SOL    HW130337   3.801   3.174  10.815
76168SOL    HW230338   3.942   3.119  10.819
76169SOL     OW30339  12.214   1.807  12.973
76169SOL    HW130340  12.129   1.850  12.974
76169SOL    HW230341  12.274   1.872  13.011
76170SOL     OW30342   9.991  14.388   0.724
76170SOL    HW130343  10.080  14.412   0.750
76170SOL    HW230344   9.958  14.335   0.796
76171SOL     OW30345   8.880   0.410   9.726
76171SOL    HW130346   8.822   0.351   9.678
76171SOL    HW230347   8.941   0.443   9.660
76172SOL     OW30348   7.800   7.689  10.600
76172SOL    HW130349   7.888   7.687  10.638
76172SOL    HW230350   7.745   7.646  10.666
76173SOL     OW30351  13.097  11.630   5.889
76173SOL    HW130352  13.012  11.592   5.864
76173SOL    HW230353  13.159  11.558   5.877
76174SOL     OW30354  14.755  10.947   6.964
76174SOL    HW130355  14.718  10.929   6.878
76174SOL    HW230356  14.846  10.919   6.957
76175SOL     OW30357   5.744   2.414   5.932
76175SOL    HW130358   5.750   2.390   5.839
76175SOL    HW230359   5.774   2.336   5.979
76176SOL     OW30360  10.633  10.540   3.067
76176SOL    HW130361  10.707  10.600   3.076
76176SOL    HW230362  10.611  10.515   3.156
76177SOL     OW30363   2.009   0.779   4.440
76177SOL    HW130364   2.036   0.742   4.355
76177SOL    HW230365   2.090   0.806   4.481
76178SOL     OW30366  13.334   7.660  11.907
76178SOL    HW130367  13.396   7.672  11.979
76178SOL    HW230368  13.367   7.717  11.837
76179SOL     OW30369  11.865  13.895  13.599
76179SOL    HW130370  11.884  13.985  13.622
76179SOL    HW230371  11.927  13.843  13.650
76180SOL     OW30372  10.440   9.566   1.512
76180SOL    HW130373  10.427   9.615   1.593
76180SOL    HW230374  10.507   9.501   1.534
76181SOL     OW30375  13.146   9.698   9.394
76181SOL    HW130376  13.118   9.764   9.331
76181SOL    HW230377  13.107   9.727   9.477
76182SOL     OW30378   1.107   3.569   3.114
76182SOL    HW130379   1.171   3.631   3.079
76182SOL    HW230380   1.148   3.533   3.192
76183SOL     OW30381  14.452  12.705  12.052
76183SOL    HW130382  14.438  12.785  12.103
76183SOL    HW230383  14.366  12.685  12.015
76184SOL     OW30384   2.269   3.037  13.723
76184SOL    HW130385   2.322   2.961  13.743
76184SOL    HW230386   2.329   3.111  13.728
76185SOL     OW30387  14.112   3.814   5.411
76185SOL    HW130388  14.102   3.719   5.417
76185SOL    HW230389  14.023   3.848   5.423
76186SOL     OW30390   4.644   6.663   1.090
76186SOL    HW130391   4.614   6.573   1.102
76186SOL    HW230392   4.703   6.679   1.164
76187SOL     OW30393   9.197   5.938   8.170
76187SOL    HW130394   9.173   5.957   8.261
76187SOL    HW230395   9.257   6.009   8.146
76188SOL     OW30396   2.302  14.014   7.370
76188SOL    HW130397   2.262  13.942   7.419
76188SOL    HW230398   2.283  13.992   7.278
76189SOL     OW30399   5.777   4.298  12.318
76189SOL    HW130400   5.732   4.233  12.264
76189SOL    HW230401   5.860   4.314  12.274
76190SOL     OW30402   3.386   4.721   5.875
76190SOL    HW130403   3.445   4.783   5.917
76190SOL    HW230404   3.306   4.771   5.859
76191SOL     OW30405   7.586  11.367   1.773
76191SOL    HW130406   7.512  11.356   1.833
76191SOL    HW230407   7.571  11.452   1.732
76192SOL     OW30408  13.292   5.308   5.214
76192SOL    HW130409  13.213   5.345   5.254
76192SOL    HW230410  13.262   5.271   5.131
76193SOL     OW30411  13.806   2.529   1.248
76193SOL    HW130412  13.765   2.446   1.225
76193SOL    HW230413  13.850   2.557   1.168
76194SOL     OW30414   7.089   1.896   4.038
76194SOL    HW130415   7.080   1.983   3.999
76194SOL    HW230416   7.098   1.912   4.132
76195SOL     OW30417   6.449   4.925   3.660
76195SOL    HW130418   6.410   4.997   3.612
76195SOL    HW230419   6.481   4.865   3.593
76196SOL     OW30420   1.068   9.817   7.205
76196SOL    HW130421   1.051   9.802   7.298
76196SOL    HW230422   1.001   9.880   7.179
76197SOL     OW30423   4.043   8.938   1.671
76197SOL    HW130424   4.006   8.938   1.583
76197SOL    HW230425   4.125   8.890   1.663
76198SOL     OW30426  14.852   5.604   9.047
76198SOL    HW130427  14.797   5.628   9.122
76198SOL    HW230428  14.791   5.589   8.975
76199SOL     OW30429   5.829  12.555  14.739
76199SOL    HW130430   5.735  12.539  14.751
76199SOL    HW230431   5.866  12.469  14.719
76200SOL     OW30432  13.823   3.967  13.615
76200SOL    HW130433  13.809   4.058  13.590
76200SOL    HW230434  13.842   3.922  13.533
76201SOL     OW30435   9.883  12.631   0.251
76201SOL    HW130436   9.843  12.557   0.205
76201SOL    HW230437   9.881  12.605   0.344
76202SOL     OW30438  12.878  14.865  11.554
76202SOL    HW130439  12.970  14.854  11.531
76202SOL    HW230440  12.856  14.786  11.604
76203SOL     OW30441  12.485  11.166  11.205
76203SOL    HW130442  12.414  11.171  11.142
76203SOL    HW230443  12.532  11.248  11.195
76204SOL     OW30444   0.918  12.111  10.038
76204SOL    HW130445   0.929  12.016  10.035
76204SOL    HW230446   0.871  12.133   9.957
76205SOL     OW30447   9.390  10.644   1.080
76205SOL    HW130448   9.415  10.588   1.006
76205SOL    HW230449   9.329  10.591   1.131
76206SOL     OW30450   4.519   3.689   5.408
76206SOL    HW130451   4.603   3.656   5.376
76206SOL    HW230452   4.541   3.771   5.452
76207SOL     OW30453  12.733   1.662   4.880
76207SOL    HW130454  12.785   1.582   4.880
76207SOL    HW230455  12.642   1.631   4.880
76208SOL     OW30456  10.398  10.456   8.628
76208SOL    HW130457  10.388  10.422   8.717
76208SOL    HW230458  10.382  10.550   8.636
76209SOL     OW30459  12.289   4.053   5.530
76209SOL    HW130460  12.369   4.021   5.574
76209SOL    HW230461  12.321   4.096   5.451
76210SOL     OW30462   3.272   5.446   7.124
76210SOL    HW130463   3.308   5.483   7.205
76210SOL    HW230464   3.287   5.514   7.059
76211SOL     OW30465   6.681   6.267   6.154
76211SOL    HW130466   6.639   6.349   6.181
76211SOL    HW230467   6.774   6.289   6.145
76212SOL     OW30468  11.751   7.625   1.215
76212SOL    HW130469  11.737   7.556   1.280
76212SOL    HW230470  11.670   7.675   1.214
76213SOL     OW30471   6.446  10.326  14.111
76213SOL    HW130472   6.450  10.330  14.207
76213SOL    HW230473   6.530  10.364  14.082
76214SOL     OW30474   4.283  12.168   3.164
76214SOL    HW130475   4.378  12.182   3.160
76214SOL    HW230476   4.268  12.135   3.252
76215SOL     OW30477  14.502  10.539   4.244
76215SOL    HW130478  14.494  10.456   4.290
76215SOL    HW230479  14.535  10.516   4.157
76216SOL     OW30480  10.593   2.960   8.087
76216SOL    HW130481  10.615   3.053   8.087
76216SOL    HW230482  10.669   2.917   8.046
76217SOL     OW30483   2.939   7.409   2.558
76217SOL    HW130484   2.992   7.472   2.510
76217SOL    HW230485   2.859   7.400   2.506
76218SOL     OW30486  12.154  11.910   3.887
76218SOL    HW130487  12.088  11.973   3.916
76218SOL    HW230488  12.134  11.896   3.794
76219SOL     OW30489   8.421   0.627   3.144
76219SOL    HW130490   8.394   0.558   3.205
76219SOL    HW230491   8.339   0.669   3.118
76220SOL     OW30492   2.729   9.300   8.657
76220SOL    HW130493   2.642   9.299   8.618
76220SOL    HW230494   2.719   9.353   8.736
76221SOL     OW30495   4.882   3.424   7.722
76221SOL    HW130496   4.881   3.456   7.632
76221SOL    HW230497   4.975   3.424   7.746
76222SOL     OW30498  11.396   8.354   2.259
76222SOL    HW130499  11.403   8.363   2.354
76222SOL    HW230500  11.405   8.260   2.243
76223SOL     OW30501  11.831  12.196   1.085
76223SOL    HW130502  11.783  12.120   1.119
76223SOL    HW230503  11.889  12.222   1.156
76224SOL     OW30504  13.358   5.402   4.659
76224SOL    HW130505  13.423   5.337   4.682
76224SOL    HW230506  13.344   5.451   4.740
76225SOL     OW30507   2.306   0.508   3.636
76225SOL    HW130508   2.252   0.429   3.643
76225SOL    HW230509   2.396   0.474   3.635
76226SOL     OW30510   9.926   9.865   4.880
76226SOL    HW130511   9.939   9.776   4.847
76226SOL    HW230512  10.014   9.903   4.880
76227SOL     OW30513   0.452   0.290   3.808
76227SOL    HW130514   0.422   0.378   3.784
76227SOL    HW230515   0.457   0.292   3.904
76228SOL     OW30516   0.206   8.258  12.618
76228SOL    HW130517   0.267   8.317  12.575
76228SOL    HW230518   0.178   8.198  12.549
76229SOL     OW30519   0.626   3.328   5.031
76229SOL    HW130520   0.538   3.358   5.009
76229SOL    HW230521   0.639   3.251   4.976
76230SOL     OW30522   6.258   6.299   4.584
76230SOL    HW130523   6.194   6.272   4.517
76230SOL    HW230524   6.220   6.379   4.622
76231SOL     OW30525   3.108   6.506  10.950
76231SOL    HW130526   3.110   6.465  10.864
76231SOL    HW230527   3.176   6.573  10.946
76232SOL     OW30528   9.023   0.457   7.830
76232SOL    HW130529   9.039   0.492   7.743
76232SOL    HW230530   8.988   0.531   7.880
76233SOL     OW30531   7.944   0.004   5.425
76233SOL    HW130532   7.867   0.015   5.369
76233SOL    HW230533   7.928  14.800   5.471
76234SOL     OW30534   8.671   8.022   5.879
76234SOL    HW130535   8.764   8.029   5.861
76234SOL    HW230536   8.633   8.103   5.842
76235SOL     OW30537   5.285  13.045   9.063
76235SOL    HW130538   5.333  13.041   8.980
76235SOL    HW230539   5.344  13.091   9.122
76236SOL     OW30540   4.748   5.479   3.560
76236SOL    HW130541   4.678   5.460   3.622
76236SOL    HW230542   4.706   5.535   3.494
76237SOL     OW30543  13.230   2.719   1.195
76237SOL    HW130544  13.210   2.789   1.132
76237SOL    HW230545  13.305   2.674   1.157
76238SOL     OW30546  13.348  12.431   0.237
76238SOL    HW130547  13.315  12.342   0.225
76238SOL    HW230548  13.439  12.420   0.265
76239SOL     OW30549  12.656   5.960  12.245
76239SOL    HW130550  12.607   5.893  12.293
76239SOL    HW230551  12.746   5.950  12.274
76240SOL     OW30552   0.674  12.075  14.207
76240SOL    HW130553   0.665  12.097  14.300
76240SOL    HW230554   0.598  12.020  14.189
76241SOL     OW30555   1.614   1.203  13.507
76241SOL    HW130556   1.667   1.151  13.447
76241SOL    HW230557   1.617   1.156  13.590
76242SOL     OW30558   4.401   6.844   7.300
76242SOL    HW130559   4.325   6.847   7.242
76242SOL    HW230560   4.438   6.757   7.288
76243SOL     OW30561   3.296   4.748   5.580
76243SOL    HW130562   3.339   4.738   5.665
76243SOL    HW230563   3.284   4.842   5.569
76244SOL     OW30564  12.506   9.301  11.496
76244SOL    HW130565  12.460   9.376  11.459
76244SOL    HW230566  12.445   9.266  11.562
76245SOL     OW30567  12.060   4.281   3.772
76245SOL    HW130568  12.080   4.189   3.786
76245SOL    HW230569  12.032   4.313   3.857
76246SOL     OW30570   0.243  11.193   0.667
76246SOL    HW130571   0.244  11.233   0.754
76246SOL    HW230572   0.154  11.206   0.636
76247SOL     OW30573   2.323   5.538  10.605
76247SOL    HW130574   2.273   5.503  10.531
76247SOL    HW230575   2.405   5.489  10.603
76248SOL     OW30576   6.518   8.195   5.665
76248SOL    HW130577   6.590   8.159   5.718
76248SOL    HW230578   6.476   8.259   5.723
76249SOL     OW30579   8.753   3.956  13.705
76249SOL    HW130580   8.685   3.932  13.641
76249SOL    HW230581   8.712   4.024  13.759
76250SOL     OW30582  14.505   0.262   2.228
76250SOL    HW130583  14.534   0.348   2.197
76250SOL    HW230584  14.529   0.202   2.158
76251SOL     OW30585  13.123  12.581   8.338
76251SOL    HW130586  13.168  12.637   8.276
76251SOL    HW230587  13.179  12.581   8.416
76252SOL     OW30588  12.283  10.690   2.589
76252SOL    HW130589  12.348  10.628   2.622
76252SOL    HW230590  12.330  10.739   2.521
76253SOL     OW30591  11.127   5.382   0.020
76253SOL    HW130592  11.065   5.342  14.838
76253SOL    HW230593  11.078   5.391   0.102
76254SOL     OW30594  10.260   6.531   4.712
76254SOL    HW130595  10.337   6.533   4.768
76254SOL    HW230596  10.209   6.457   4.745
76255SOL     OW30597   2.839   2.477   2.427
76255SOL    HW130598   2.894   2.400   2.436
76255SOL    HW230599   2.838   2.495   2.333
76256SOL     OW30600  14.198  11.740   0.856
76256SOL    HW130601  14.109  11.755   0.887
76256SOL    HW230602  14.253  11.754   0.933
76257SOL     OW30603   9.172   0.039   6.309
76257SOL    HW130604   9.101   0.035   6.374
76257SOL    HW230605   9.141  14.863   6.237
76258SOL     OW30606  13.778  13.659  14.474
76258SOL    HW130607  13.842  13.672  14.404
76258SOL    HW230608  13.782  13.740  14.526
76259SOL     OW30609   5.596   1.911  12.490
76259SOL    HW130610   5.681   1.915  12.446
76259SOL    HW230611   5.616   1.924  12.583
76260SOL     OW30612   1.596   1.271   5.551
76260SOL    HW130613   1.627   1.205   5.489
76260SOL    HW230614   1.584   1.350   5.499
76261SOL     OW30615   6.215   8.945   7.578
76261SOL    HW130616   6.243   8.881   7.513
76261SOL    HW230617   6.164   8.893   7.641
76262SOL     OW30618   1.279   5.046   0.385
76262SOL    HW130619   1.226   5.000   0.450
76262SOL    HW230620   1.226   5.044   0.305
76263SOL     OW30621   4.566   7.271   5.155
76263SOL    HW130622   4.604   7.244   5.238
76263SOL    HW230623   4.599   7.360   5.141
76264SOL     OW30624   5.509   3.558  14.000
76264SOL    HW130625   5.481   3.488  13.941
76264SOL    HW230626   5.431   3.612  14.012
76265SOL     OW30627   8.270  12.727   8.385
76265SOL    HW130628   8.222  12.716   8.467
76265SOL    HW230629   8.362  12.723   8.410
76266SOL     OW30630  11.459   0.296   8.917
76266SOL    HW130631  11.554   0.284   8.923
76266SOL    HW230632  11.427   0.274   9.005
76267SOL     OW30633  13.732   6.170   7.414
76267SOL    HW130634  13.798   6.104   7.393
76267SOL    HW230635  13.651   6.137   7.375
76268SOL     OW30636   7.725   6.910   0.937
76268SOL    HW130637   7.799   6.928   0.879
76268SOL    HW230638   7.764   6.866   1.013
76269SOL     OW30639   2.357   7.083   5.342
76269SOL    HW130640   2.319   7.006   5.299
76269SOL    HW230641   2.369   7.146   5.272
76270SOL     OW30642   8.643   6.346  14.495
76270SOL    HW130643   8.571   6.385  14.545
76270SOL    HW230644   8.685   6.286  14.557
76271SOL     OW30645   9.842   4.628  12.949
76271SOL    HW130646   9.775   4.695  12.940
76271SOL    HW230647   9.870   4.633  13.040
76272SOL     OW30648   0.902  11.542   5.645
76272SOL    HW130649   0.911  11.635   5.665
76272SOL    HW230650   0.956  11.498   5.710
76273SOL     OW30651   0.472  11.541   7.867
76273SOL    HW130652   0.483  11.450   7.893
76273SOL    HW230653   0.476  11.539   7.771
76274SOL     OW30654   7.576  10.320   7.031
76274SOL    HW130655   7.551  10.276   7.112
76274SOL    HW230656   7.650  10.376   7.056
76275SOL     OW30657  14.527   0.787  13.907
76275SOL    HW130658  14.552   0.837  13.985
76275SOL    HW230659  14.491   0.705  13.942
76276SOL     OW30660   4.046   3.282   0.728
76276SOL    HW130661   4.002   3.365   0.712
76276SOL    HW230662   4.130   3.290   0.683
76277SOL     OW30663  10.850   7.931  11.876
76277SOL    HW130664  10.923   7.882  11.839
76277SOL    HW230665  10.890   8.007  11.917
76278SOL     OW30666   7.872   9.801   2.198
76278SOL    HW130667   7.779   9.785   2.212
76278SOL    HW230668   7.897   9.739   2.130
76279SOL     OW30669   7.796   1.092  11.539
76279SOL    HW130670   7.741   1.167  11.515
76279SOL    HW230671   7.757   1.018  11.493
76280SOL     OW30672   3.133   9.869   6.753
76280SOL    HW130673   3.062   9.817   6.715
76280SOL    HW230674   3.169   9.918   6.679
76281SOL     OW30675  13.482   2.154   8.401
76281SOL    HW130676  13.453   2.120   8.485
76281SOL    HW230677  13.446   2.243   8.397
76282SOL     OW30678   5.665   4.523   8.057
76282SOL    HW130679   5.693   4.606   8.096
76282SOL    HW230680   5.698   4.528   7.967
76283SOL     OW30681   6.285   0.425  13.550
76283SOL    HW130682   6.351   0.466  13.494
76283SOL    HW230683   6.208   0.415  13.494
76284SOL     OW30684   9.069   6.446   8.069
76284SOL    HW130685   9.115   6.522   8.034
76284SOL    HW230686   8.979   6.477   8.083
76285SOL     OW30687   1.093   3.636  12.900
76285SOL    HW130688   1.003   3.666  12.912
76285SOL    HW230689   1.092   3.545  12.931
76286SOL     OW30690   9.142   0.310   9.100
76286SOL    HW130691   9.226   0.316   9.055
76286SOL    HW230692   9.079   0.342   9.036
76287SOL     OW30693   4.385   7.687   4.319
76287SOL    HW130694   4.308   7.650   4.275
76287SOL    HW230695   4.371   7.781   4.316
76288SOL     OW30696   0.587   7.508  14.371
76288SOL    HW130697   0.518   7.463  14.421
76288SOL    HW230698   0.540   7.551  14.300
76289SOL     OW30699   1.854   6.807  11.176
76289SOL    HW130700   1.777   6.760  11.142
76289SOL    HW230701   1.923   6.741  11.180
76290SOL     OW30702  10.033   1.578  11.960
76290SOL    HW130703   9.974   1.511  11.994
76290SOL    HW230704  10.077   1.536  11.887
76291SOL     OW30705  13.758   5.949   5.250
76291SOL    HW130706  13.849   5.929   5.226
76291SOL    HW230707  13.715   5.864   5.256
76292SOL     OW30708   4.242   0.285   6.842
76292SOL    HW130709   4.175   0.328   6.790
76292SOL    HW230710   4.240   0.330   6.926
76293SOL     OW30711   2.613  12.263   0.808
76293SOL    HW130712   2.701  12.285   0.838
76293SOL    HW230713   2.602  12.171   0.831
76294SOL     OW30714  12.022   6.650  12.137
76294SOL    HW130715  12.108   6.686  12.119
76294SOL    HW230716  12.036   6.587  12.208
76295SOL     OW30717  13.040   4.672   9.453
76295SOL    HW130718  12.953   4.694   9.486
76295SOL    HW230719  13.040   4.702   9.362
76296SOL     OW30720   2.351  14.432   4.666
76296SOL    HW130721   2.265  14.389   4.671
76296SOL    HW230722   2.330  14.526   4.663
76297SOL     OW30723  11.346  12.246   4.975
76297SOL    HW130724  11.400  12.257   4.897
76297SOL    HW230725  11.256  12.253   4.944
76298SOL     OW30726   6.117   5.037   4.249
76298SOL    HW130727   6.139   4.949   4.277
76298SOL    HW230728   6.197   5.071   4.209
76299SOL     OW30729  11.918   1.931  12.136
76299SOL    HW130730  11.834   1.914  12.095
76299SOL    HW230731  11.897   1.977  12.217
76300SOL     OW30732   3.672   0.037  13.417
76300SOL    HW130733   3.656   0.038  13.512
76300SOL    HW230734   3.652   0.126  13.388
76301SOL     OW30735  12.497   6.660   2.299
76301SOL    HW130736  12.453   6.694   2.221
76301SOL    HW230737  12.436   6.595   2.334
76302SOL     OW30738  11.457   8.543   9.185
76302SOL    HW130739  11.430   8.628   9.221
76302SOL    HW230740  11.407   8.534   9.104
76303SOL     OW30741  12.664  10.777   0.984
76303SOL    HW130742  12.717  10.718   1.038
76303SOL    HW230743  12.664  10.736   0.897
76304SOL     OW30744  12.325   6.778  13.591
76304SOL    HW130745  12.323   6.859  13.643
76304SOL    HW230746  12.235   6.746  13.595
76305SOL     OW30747   8.849   4.748   4.965
76305SOL    HW130748   8.913   4.737   4.894
76305SOL    HW230749   8.765   4.729   4.925
76306SOL     OW30750   8.597   5.507   2.695
76306SOL    HW130751   8.529   5.527   2.630
76306SOL    HW230752   8.612   5.413   2.685
76307SOL     OW30753   6.638   4.241  10.736
76307SOL    HW130754   6.727   4.252  10.704
76307SOL    HW230755   6.645   4.244  10.831
76308SOL     OW30756  13.100  11.075  13.028
76308SOL    HW130757  13.104  10.992  13.075
76308SOL    HW230758  13.026  11.121  13.068
76309SOL     OW30759   2.870  11.953  13.062
76309SOL    HW130760   2.795  11.928  13.116
76309SOL    HW230761   2.831  11.977  12.978
76310SOL     OW30762   6.642   5.400   1.801
76310SOL    HW130763   6.560   5.411   1.850
76310SOL    HW230764   6.618   5.418   1.710
76311SOL     OW30765   0.445   0.272   3.467
76311SOL    HW130766   0.499   0.193   3.468
76311SOL    HW230767   0.368   0.250   3.519
76312SOL     OW30768   4.129   1.277  13.013
76312SOL    HW130769   4.107   1.363  12.977
76312SOL    HW230770   4.205   1.248  12.962
76313SOL     OW30771   5.364   3.313  10.658
76313SOL    HW130772   5.384   3.387  10.715
76313SOL    HW230773   5.324   3.248  10.716
76314SOL     OW30774  11.928  13.610  10.964
76314SOL    HW130775  11.874  13.670  11.015
76314SOL    HW230776  12.013  13.652  10.959
76315SOL     OW30777   5.986   7.269  12.942
76315SOL    HW130778   5.908   7.308  12.903
76315SOL    HW230779   6.059   7.302  12.888
76316SOL     OW30780   5.277   1.323   8.727
76316SOL    HW130781   5.270   1.418   8.740
76316SOL    HW230782   5.346   1.313   8.662
76317SOL     OW30783   3.084   8.273  12.040
76317SOL    HW130784   3.011   8.224  12.000
76317SOL    HW230785   3.121   8.212  12.104
76318SOL     OW30786   2.589   6.888   0.723
76318SOL    HW130787   2.668   6.877   0.776
76318SOL    HW230788   2.519   6.849   0.775
76319SOL     OW30789   1.067   1.968   9.098
76319SOL    HW130790   0.989   2.015   9.068
76319SOL    HW230791   1.107   1.935   9.018
76320SOL     OW30792   5.156   8.069   3.326
76320SOL    HW130793   5.108   8.142   3.364
76320SOL    HW230794   5.107   8.047   3.247
76321SOL     OW30795  13.089   3.015   3.601
76321SOL    HW130796  12.998   2.991   3.613
76321SOL    HW230797  13.138   2.939   3.632
76322SOL     OW30798   8.650   5.521   7.384
76322SOL    HW130799   8.623   5.610   7.364
76322SOL    HW230800   8.671   5.522   7.477
76323SOL     OW30801   4.932   2.729   5.319
76323SOL    HW130802   4.883   2.809   5.339
76323SOL    HW230803   5.023   2.751   5.340
76324SOL     OW30804  11.988  14.748  13.060
76324SOL    HW130805  11.896  14.730  13.077
76324SOL    HW230806  11.993  14.844  13.058
76325SOL     OW30807  11.014  13.078  12.231
76325SOL    HW130808  11.040  12.987  12.222
76325SOL    HW230809  11.097  13.125  12.247
76326SOL     OW30810  13.002  14.514   5.874
76326SOL    HW130811  13.088  14.481   5.850
76326SOL    HW230812  12.947  14.435   5.877
76327SOL     OW30813  10.241  11.694  11.791
76327SOL    HW130814  10.254  11.706  11.697
76327SOL    HW230815  10.308  11.748  11.832
76328SOL     OW30816   4.572   5.839  13.421
76328SOL    HW130817   4.522   5.860  13.499
76328SOL    HW230818   4.598   5.747  13.433
76329SOL     OW30819   5.004   9.610  13.167
76329SOL    HW130820   5.059   9.593  13.244
76329SOL    HW230821   4.914   9.600  13.199
76330SOL     OW30822   4.008  14.100   2.208
76330SOL    HW130823   3.953  14.166   2.249
76330SOL    HW230824   3.949  14.027   2.189
76331SOL     OW30825   8.777  13.799   1.904
76331SOL    HW130826   8.817  13.741   1.969
76331SOL    HW230827   8.851  13.832   1.852
76332SOL     OW30828  11.803  13.034   7.384
76332SOL    HW130829  11.871  12.984   7.429
76332SOL    HW230830  11.842  13.055   7.299
76333SOL     OW30831   7.157   7.747   4.854
76333SOL    HW130832   7.122   7.661   4.880
76333SOL    HW230833   7.147   7.750   4.759
76334SOL     OW30834   9.376  12.380  12.353
76334SOL    HW130835   9.293  12.334  12.366
76334SOL    HW230836   9.384  12.437  12.430
76335SOL     OW30837   2.131   5.326   0.614
76335SOL    HW130838   2.176   5.375   0.545
76335SOL    HW230839   2.082   5.259   0.568
76336SOL     OW30840  13.263  11.268   2.179
76336SOL    HW130841  13.319  11.216   2.120
76336SOL    HW230842  13.211  11.323   2.120
76337SOL     OW30843   0.800   5.056   8.485
76337SOL    HW130844   0.883   5.053   8.438
76337SOL    HW230845   0.825   5.061   8.578
76338SOL     OW30846   3.540  12.389   9.691
76338SOL    HW130847   3.635  12.389   9.679
76338SOL    HW230848   3.505  12.372   9.603
76339SOL     OW30849   2.900  12.359   8.360
76339SOL    HW130850   2.859  12.367   8.273
76339SOL    HW230851   2.934  12.270   8.363
76340SOL     OW30852  14.593  12.335   7.085
76340SOL    HW130853  14.660  12.271   7.060
76340SOL    HW230854  14.642  12.403   7.131
76341SOL     OW30855   1.853  12.111  14.054
76341SOL    HW130856   1.925  12.050  14.040
76341SOL    HW230857   1.849  12.164  13.974
76342SOL     OW30858   5.061   4.152   7.150
76342SOL    HW130859   5.105   4.173   7.232
76342SOL    HW230860   4.995   4.086   7.174
76343SOL     OW30861   0.701  14.824   8.775
76343SOL    HW130862   0.666  14.752   8.828
76343SOL    HW230863   0.792  14.799   8.758
76344SOL     OW30864   6.687   9.790  11.584
76344SOL    HW130865   6.709   9.808  11.676
76344SOL    HW230866   6.592   9.795  11.580
76345SOL     OW30867   6.786   2.807  14.861
76345SOL    HW130868   6.851   2.777   0.046
76345SOL    HW230869   6.827   2.882  14.819
76346SOL     OW30870   5.612  10.881  12.279
76346SOL    HW130871   5.620  10.786  12.276
76346SOL    HW230872   5.582  10.906  12.191
76347SOL     OW30873   3.253   5.655   0.387
76347SOL    HW130874   3.297   5.594   0.329
76347SOL    HW230875   3.297   5.644   0.472
76348SOL     OW30876   0.123   2.560  14.149
76348SOL    HW130877   0.184   2.582  14.078
76348SOL    HW230878   0.115   2.465  14.146
76349SOL     OW30879   4.389   4.371   5.166
76349SOL    HW130880   4.413   4.309   5.098
76349SOL    HW230881   4.444   4.448   5.149
76350SOL     OW30882   8.440  13.255   6.895
76350SOL    HW130883   8.377  13.321   6.925
76350SOL    HW230884   8.525  13.288   6.924
76351SOL     OW30885  14.402   7.320   4.929
76351SOL    HW130886  14.495   7.297   4.924
76351SOL    HW230887  14.357   7.243   4.894
76352SOL     OW30888  11.888   9.822  11.901
76352SOL    HW130889  11.891   9.885  11.973
76352SOL    HW230890  11.864   9.739  11.943
76353SOL     OW30891   2.063  13.542   3.918
76353SOL    HW130892   2.060  13.502   4.005
76353SOL    HW230893   2.043  13.634   3.933
76354SOL     OW30894   3.034   0.918  11.503
76354SOL    HW130895   2.979   0.990  11.534
76354SOL    HW230896   3.121   0.939  11.536
76355SOL     OW30897   6.753  12.922   5.651
76355SOL    HW130898   6.755  12.850   5.587
76355SOL    HW230899   6.800  12.887   5.726
76356SOL     OW30900   6.655   9.810  10.396
76356SOL    HW130901   6.568   9.773  10.407
76356SOL    HW230902   6.710   9.736  10.370
76357SOL     OW30903   1.459  11.931  12.817
76357SOL    HW130904   1.544  11.920  12.859
76357SOL    HW230905   1.401  11.871  12.863
76358SOL     OW30906  14.767  13.471   9.175
76358SOL    HW130907  14.722  13.400   9.221
76358SOL    HW230908  14.858  13.464   9.202
76359SOL     OW30909   9.518   8.658   1.019
76359SOL    HW130910   9.422   8.665   1.018
76359SOL    HW230911   9.548   8.748   1.034
76360SOL     OW30912  10.264   5.022   6.423
76360SOL    HW130913  10.247   5.055   6.335
76360SOL    HW230914  10.220   4.937   6.426
76361SOL     OW30915   6.354   6.383   9.102
76361SOL    HW130916   6.373   6.379   9.008
76361SOL    HW230917   6.377   6.472   9.128
76362SOL     OW30918  10.934   7.076  12.008
76362SOL    HW130919  10.922   7.026  12.089
76362SOL    HW230920  10.969   7.160  12.036
76363SOL     OW30921   8.836   0.257   5.383
76363SOL    HW130922   8.928   0.239   5.364
76363SOL    HW230923   8.837   0.341   5.430
76364SOL     OW30924  13.313   9.327  11.414
76364SOL    HW130925  13.371   9.348  11.341
76364SOL    HW230926  13.274   9.411  11.438
76365SOL     OW30927   1.699   3.328   5.841
76365SOL    HW130928   1.720   3.420   5.860
76365SOL    HW230929   1.776   3.280   5.869
76366SOL     OW30930  13.855   0.904   8.244
76366SOL    HW130931  13.778   0.880   8.295
76366SOL    HW230932  13.928   0.862   8.289
76367SOL     OW30933   9.302   6.141  13.690
76367SOL    HW130934   9.326   6.224  13.650
76367SOL    HW230935   9.206   6.141  13.690
76368SOL     OW30936   1.446  12.373   2.397
76368SOL    HW130937   1.513  12.340   2.337
76368SOL    HW230938   1.400  12.441   2.347
76369SOL     OW30939   8.269  11.766  10.888
76369SOL    HW130940   8.330  11.766  10.961
76369SOL    HW230941   8.256  11.673  10.867
76370SOL     OW30942   4.498   2.324  12.498
76370SOL    HW130943   4.566   2.365  12.551
76370SOL    HW230944   4.502   2.370  12.414
76371SOL     OW30945   3.294  10.544   6.132
76371SOL    HW130946   3.204  10.572   6.147
76371SOL    HW230947   3.347  10.617   6.163
76372SOL     OW30948   9.207  14.267  11.685
76372SOL    HW130949   9.274  14.267  11.618
76372SOL    HW230950   9.253  14.289  11.766
76373SOL     OW30951  11.299   4.803   6.453
76373SOL    HW130952  11.380   4.853   6.467
76373SOL    HW230953  11.244   4.862   6.401
76374SOL     OW30954   1.356   0.430   2.871
76374SOL    HW130955   1.304   0.400   2.797
76374SOL    HW230956   1.444   0.395   2.855
76375SOL     OW30957  11.857  13.834   6.852
76375SOL    HW130958  11.802  13.777   6.799
76375SOL    HW230959  11.850  13.920   6.810
76376SOL     OW30960  12.961  14.329   4.997
76376SOL    HW130961  12.991  14.390   4.930
76376SOL    HW230962  13.035  14.321   5.057
76377SOL     OW30963   4.042   0.032   3.880
76377SOL    HW130964   4.016   0.123   3.894
76377SOL    HW230965   3.988   0.003   3.806
76378SOL     OW30966   1.441   2.865   4.254
76378SOL    HW130967   1.434   2.783   4.304
76378SOL    HW230968   1.533   2.869   4.227
76379SOL     OW30969   3.789   1.813  11.163
76379SOL    HW130970   3.784   1.825  11.257
76379SOL    HW230971   3.737   1.734  11.145
76380SOL     OW30972   3.014  11.530   6.230
76380SOL    HW130973   3.062  11.507   6.309
76380SOL    HW230974   3.082  11.556   6.167
76381SOL     OW30975   0.361   6.795   9.020
76381SOL    HW130976   0.427   6.751   9.073
76381SOL    HW230977   0.361   6.885   9.051
76382SOL     OW30978   2.554   0.247   5.816
76382SOL    HW130979   2.495   0.200   5.757
76382SOL    HW230980   2.624   0.184   5.835
76383SOL     OW30981   6.856   9.451   0.533
76383SOL    HW130982   6.919   9.396   0.487
76383SOL    HW230983   6.788   9.468   0.468
76384SOL     OW30984   3.425  14.403   4.456
76384SOL    HW130985   3.461  14.490   4.473
76384SOL    HW230986   3.433  14.391   4.362
76385SOL     OW30987  11.656   9.970   5.227
76385SOL    HW130988  11.565   9.997   5.222
76385SOL    HW230989  11.684   9.996   5.315
76386SOL     OW30990   5.087   5.748   5.904
76386SOL    HW130991   5.017   5.808   5.930
76386SOL    HW230992   5.066   5.666   5.948
76387SOL     OW30993   3.526   3.383   7.678
76387SOL    HW130994   3.450   3.439   7.691
76387SOL    HW230995   3.493   3.312   7.622
76388SOL     OW30996  12.647   8.641   8.189
76388SOL    HW130997  12.553   8.645   8.206
76388SOL    HW230998  12.687   8.676   8.268
76389SOL     OW30999  11.402   2.699   4.166
76389SOL    HW131000  11.425   2.781   4.209
76389SOL    HW231001  11.469   2.637   4.194
76390SOL     OW31002  11.091   5.994  13.762
76390SOL    HW131003  11.003   6.018  13.792
76390SOL    HW231004  11.092   6.016  13.669
76391SOL     OW31005  10.036  13.458   0.983
76391SOL    HW131006  10.091  13.527   1.019
76391SOL    HW231007  10.098  13.392   0.953
76392SOL     OW31008  10.078  12.678  11.982
76392SOL    HW131009  10.068  12.772  11.991
76392SOL    HW231010  10.064  12.643  12.070
76393SOL     OW31011   8.534   9.821  10.404
76393SOL    HW131012   8.568   9.786  10.322
76393SOL    HW231013   8.612   9.846  10.454
76394SOL     OW31014  14.279   5.749   3.980
76394SOL    HW131015  14.349   5.815   3.983
76394SOL    HW231016  14.200   5.798   3.960
76395SOL     OW31017   7.659   8.581   1.056
76395SOL    HW131018   7.719   8.513   1.086
76395SOL    HW231019   7.573   8.538   1.056
76396SOL     OW31020   6.819   8.899  10.697
76396SOL    HW131021   6.891   8.854  10.741
76396SOL    HW231022   6.849   8.911  10.607
76397SOL     OW31023   5.819   0.411   2.334
76397SOL    HW131024   5.740   0.458   2.363
76397SOL    HW231025   5.788   0.354   2.264
76398SOL     OW31026   1.818   1.159   1.866
76398SOL    HW131027   1.854   1.207   1.792
76398SOL    HW231028   1.885   1.165   1.934
76399SOL     OW31029  11.999   2.836  10.598
76399SOL    HW131030  11.998   2.781  10.520
76399SOL    HW231031  11.908   2.863  10.609
76400SOL     OW31032   3.436   1.188   0.487
76400SOL    HW131033   3.459   1.100   0.518
76400SOL    HW231034   3.518   1.237   0.491
76401SOL     OW31035   8.852   2.099   1.100
76401SOL    HW131036   8.886   2.168   1.157
76401SOL    HW231037   8.810   2.037   1.160
76402SOL     OW31038   0.377  11.854   1.572
76402SOL    HW131039   0.469  11.879   1.571
76402SOL    HW231040   0.374  11.774   1.624
76403SOL     OW31041  11.180  12.769   2.765
76403SOL    HW131042  11.136  12.692   2.728
76403SOL    HW231043  11.123  12.798   2.836
76404SOL     OW31044  12.748   7.391   9.603
76404SOL    HW131045  12.730   7.356   9.516
76404SOL    HW231046  12.835   7.431   9.595
76405SOL     OW31047   5.092   8.981   9.840
76405SOL    HW131048   5.029   8.910   9.853
76405SOL    HW231049   5.051   9.038   9.775
76406SOL     OW31050   5.272   8.047  10.669
76406SOL    HW131051   5.208   8.090  10.611
76406SOL    HW231052   5.260   8.092  10.753
76407SOL     OW31053  12.915  14.702   0.715
76407SOL    HW131054  12.897  14.618   0.756
76407SOL    HW231055  12.980  14.743   0.772
76408SOL     OW31056  13.645   5.943  10.215
76408SOL    HW131057  13.701   6.015  10.245
76408SOL    HW231058  13.646   5.950  10.120
76409SOL     OW31059  12.985   4.376  12.045
76409SOL    HW131060  12.995   4.457  11.994
76409SOL    HW231061  12.940   4.403  12.125
76410SOL     OW31062   8.823   0.360   3.482
76410SOL    HW131063   8.780   0.423   3.541
76410SOL    HW231064   8.860   0.294   3.540
76411SOL     OW31065   6.744  11.799   2.992
76411SOL    HW131066   6.797  11.722   2.971
76411SOL    HW231067   6.729  11.792   3.087
76412SOL     OW31068  11.163   3.238  10.829
76412SOL    HW131069  11.220   3.193  10.891
76412SOL    HW231070  11.220   3.258  10.754
76413SOL     OW31071   1.931  14.596  13.847
76413SOL    HW131072   2.009  14.638  13.813
76413SOL    HW231073   1.865  14.607  13.778
76414SOL     OW31074   2.196   0.052  13.141
76414SOL    HW131075   2.287   0.074  13.158
76414SOL    HW231076   2.195   0.026  13.048
76415SOL     OW31077   7.557   1.514  14.379
76415SOL    HW131078   7.633   1.543  14.429
76415SOL    HW231079   7.579   1.537  14.288
76416SOL     OW31080   9.521   4.643  13.955
76416SOL    HW131081   9.499   4.726  13.998
76416SOL    HW231082   9.570   4.669  13.877
76417SOL     OW31083  13.512   5.968   6.954
76417SOL    HW131084  13.517   5.916   6.874
76417SOL    HW231085  13.479   5.908   7.021
76418SOL     OW31086  13.167   4.176   7.178
76418SOL    HW131087  13.085   4.169   7.130
76418SOL    HW231088  13.189   4.086   7.202
76419SOL     OW31089  10.195  12.254  10.715
76419SOL    HW131090  10.252  12.205  10.775
76419SOL    HW231091  10.255  12.307  10.663
76420SOL     OW31092   9.581  12.574  10.585
76420SOL    HW131093   9.597  12.584  10.491
76420SOL    HW231094   9.495  12.532  10.591
76421SOL     OW31095   2.045   4.676  12.703
76421SOL    HW131096   2.021   4.594  12.746
76421SOL    HW231097   2.072   4.733  12.775
76422SOL     OW31098   2.612   7.039   1.565
76422SOL    HW131099   2.692   7.015   1.611
76422SOL    HW231100   2.542   7.005   1.621
76423SOL     OW31101   6.949   8.542   1.673
76423SOL    HW131102   7.014   8.514   1.739
76423SOL    HW231103   6.903   8.461   1.650
76424SOL     OW31104   5.718  11.397   7.048
76424SOL    HW131105   5.723  11.303   7.030
76424SOL    HW231106   5.659  11.431   6.981
76425SOL     OW31107   5.240   8.360   1.399
76425SOL    HW131108   5.158   8.391   1.439
76425SOL    HW231109   5.216   8.340   1.309
76426SOL     OW31110   5.933   6.473  11.057
76426SOL    HW131111   5.898   6.387  11.031
76426SOL    HW231112   5.908   6.482  11.149
76427SOL     OW31113  11.229   4.005   7.724
76427SOL    HW131114  11.309   4.028   7.677
76427SOL    HW231115  11.257   3.992   7.815
76428SOL     OW31116  10.453   0.739   9.378
76428SOL    HW131117  10.399   0.812   9.409
76428SOL    HW231118  10.391   0.675   9.344
76429SOL     OW31119   8.621   0.800  10.037
76429SOL    HW131120   8.700   0.798  10.091
76429SOL    HW231121   8.549   0.803  10.099
76430SOL     OW31122   6.408   1.847   9.909
76430SOL    HW131123   6.344   1.882   9.847
76430SOL    HW231124   6.482   1.821   9.854
76431SOL     OW31125   2.558  14.142   5.060
76431SOL    HW131126   2.649  14.169   5.054
76431SOL    HW231127   2.517  14.178   4.981
76432SOL     OW31128   3.281  13.298   2.564
76432SOL    HW131129   3.259  13.319   2.473
76432SOL    HW231130   3.319  13.379   2.599
76433SOL     OW31131   4.776  10.208  12.479
76433SOL    HW131132   4.803  10.259  12.402
76433SOL    HW231133   4.737  10.273  12.538
76434SOL     OW31134   4.375  10.996  13.478
76434SOL    HW131135   4.379  11.092  13.486
76434SOL    HW231136   4.463  10.966  13.500
76435SOL     OW31137   6.589   8.815  13.110
76435SOL    HW131138   6.548   8.901  13.114
76435SOL    HW231139   6.516   8.753  13.101
76436SOL     OW31140   2.645   0.043   1.885
76436SOL    HW131141   2.649   0.054   1.790
76436SOL    HW231142   2.665  14.830   1.899
76437SOL     OW31143   2.046   4.892   5.685
76437SOL    HW131144   2.121   4.894   5.625
76437SOL    HW231145   2.046   4.803   5.720
76438SOL     OW31146   2.201   8.534  13.256
76438SOL    HW131147   2.133   8.521  13.322
76438SOL    HW231148   2.168   8.489  13.178
76439SOL     OW31149   8.394   7.645  12.899
76439SOL    HW131150   8.355   7.558  12.886
76439SOL    HW231151   8.359   7.674  12.983
76440SOL     OW31152  12.541  13.232   6.427
76440SOL    HW131153  12.495  13.155   6.460
76440SOL    HW231154  12.484  13.269   6.360
76441SOL     OW31155  14.362  14.214   4.678
76441SOL    HW131156  14.453  14.187   4.685
76441SOL    HW231157  14.318  14.172   4.753
76442SOL     OW31158   5.657   7.031  10.649
76442SOL    HW131159   5.709   7.013  10.571
76442SOL    HW231160   5.567   7.011  10.623
76443SOL     OW31161   4.009  10.249   9.275
76443SOL    HW131162   4.049  10.196   9.206
76443SOL    HW231163   3.993  10.334   9.234
76444SOL     OW31164  12.662  10.033   8.655
76444SOL    HW131165  12.713   9.953   8.649
76444SOL    HW231166  12.584  10.016   8.603
76445SOL     OW31167   2.418   8.608  11.877
76445SOL    HW131168   2.474   8.554  11.933
76445SOL    HW231169   2.476   8.676  11.844
76446SOL     OW31170   1.072   8.731   2.408
76446SOL    HW131171   0.996   8.756   2.355
76446SOL    HW231172   1.105   8.814   2.443
76447SOL     OW31173   0.052   6.249  13.757
76447SOL    HW131174  14.876   6.322  13.730
76447SOL    HW231175   0.004   6.171  13.731
76448SOL     OW31176   3.889   8.874  12.026
76448SOL    HW131177   3.932   8.795  12.059
76448SOL    HW231178   3.903   8.872  11.931
76449SOL     OW31179   3.545   7.891   4.332
76449SOL    HW131180   3.498   7.909   4.414
76449SOL    HW231181   3.489   7.928   4.264
76450SOL     OW31182   1.448   9.668   5.505
76450SOL    HW131183   1.374   9.648   5.448
76450SOL    HW231184   1.438   9.761   5.525
76451SOL     OW31185  10.790  10.622   0.750
76451SOL    HW131186  10.873  10.580   0.726
76451SOL    HW231187  10.806  10.659   0.836
76452SOL     OW31188   6.972   1.574   3.443
76452SOL    HW131189   7.047   1.560   3.385
76452SOL    HW231190   6.948   1.486   3.472
76453SOL     OW31191   6.949   0.144   9.299
76453SOL    HW131192   6.944   0.233   9.263
76453SOL    HW231193   7.018   0.101   9.248
76454SOL     OW31194   6.061  10.966  13.111
76454SOL    HW131195   6.054  10.919  13.194
76454SOL    HW231196   5.971  10.983  13.085
76455SOL     OW31197   8.517  11.208   3.835
76455SOL    HW131198   8.596  11.225   3.784
76455SOL    HW231199   8.504  11.287   3.886
76456SOL     OW31200   1.254   1.440   5.936
76456SOL    HW131201   1.218   1.364   5.982
76456SOL    HW231202   1.311   1.402   5.869
76457SOL     OW31203  11.324   4.319   0.966
76457SOL    HW131204  11.404   4.361   0.999
76457SOL    HW231205  11.280   4.387   0.915
76458SOL     OW31206   6.431   7.288   6.503
76458SOL    HW131207   6.452   7.308   6.595
76458SOL    HW231208   6.342   7.320   6.491
76459SOL     OW31209   6.342  12.768   4.269
76459SOL    HW131210   6.416  12.787   4.327
76459SOL    HW231211   6.349  12.832   4.198
76460SOL     OW31212  12.278  12.428   8.421
76460SOL    HW131213  12.247  12.341   8.397
76460SOL    HW231214  12.235  12.446   8.505
76461SOL     OW31215  12.953   1.806   1.219
76461SOL    HW131216  12.952   1.891   1.175
76461SOL    HW231217  12.862   1.777   1.217
76462SOL     OW31218   5.545   7.700  13.892
76462SOL    HW131219   5.619   7.644  13.914
76462SOL    HW231220   5.507   7.723  13.977
76463SOL     OW31221  12.541   6.462   0.585
76463SOL    HW131222  12.577   6.373   0.590
76463SOL    HW231223  12.474   6.465   0.653
76464SOL     OW31224  10.049   2.640   2.899
76464SOL    HW131225  10.026   2.553   2.866
76464SOL    HW231226  10.035   2.635   2.993
76465SOL     OW31227   3.474  14.327   1.763
76465SOL    HW131228   3.401  14.332   1.701
76465SOL    HW231229   3.524  14.251   1.735
76466SOL     OW31230  14.305  10.892  12.067
76466SOL    HW131231  14.366  10.932  12.006
76466SOL    HW231232  14.355  10.822  12.109
76467SOL     OW31233   5.469  10.688   8.278
76467SOL    HW131234   5.465  10.639   8.360
76467SOL    HW231235   5.544  10.651   8.231
76468SOL     OW31236  14.084  13.397  12.965
76468SOL    HW131237  14.115  13.433  13.048
76468SOL    HW231238  13.996  13.365  12.984
76469SOL     OW31239   0.996   6.225   9.344
76469SOL    HW131240   0.925   6.289   9.344
76469SOL    HW231241   1.071   6.272   9.308
76470SOL     OW31242  13.308  13.523  12.585
76470SOL    HW131243  13.262  13.499  12.506
76470SOL    HW231244  13.313  13.619  12.582
76471SOL     OW31245  10.687  11.236   8.965
76471SOL    HW131246  10.747  11.310   8.964
76471SOL    HW231247  10.603  11.273   8.989
76472SOL     OW31248  12.749  14.057  14.664
76472SOL    HW131249  12.672  14.113  14.676
76472SOL    HW231250  12.818  14.100  14.714
76473SOL     OW31251   1.432  13.669   4.000
76473SOL    HW131252   1.516  13.643   4.039
76473SOL    HW231253   1.366  13.623   4.052
76474SOL     OW31254   9.991   9.515   8.862
76474SOL    HW131255   9.958   9.604   8.856
76474SOL    HW231256   9.979   9.491   8.954
76475SOL     OW31257  14.169   6.869   8.633
76475SOL    HW131258  14.151   6.926   8.708
76475SOL    HW231259  14.111   6.901   8.564
76476SOL     OW31260  10.967   3.985   2.497
76476SOL    HW131261  10.987   4.030   2.579
76476SOL    HW231262  10.901   3.919   2.521
76477SOL     OW31263   9.374  14.107  12.092
76477SOL    HW131264   9.453  14.128  12.042
76477SOL    HW231265   9.356  14.015  12.071
76478SOL     OW31266  14.252   6.231   1.089
76478SOL    HW131267  14.185   6.222   1.020
76478SOL    HW231268  14.324   6.276   1.045
76479SOL     OW31269   8.349   2.313  14.839
76479SOL    HW131270   8.257   2.338  14.839
76479SOL    HW231271   8.352   2.231   0.010
76480SOL     OW31272  13.046  13.341   9.406
76480SOL    HW131273  13.103  13.269   9.380
76480SOL    HW231274  13.033  13.329   9.500
76481SOL     OW31275   1.201  11.859   3.773
76481SOL    HW131276   1.169  11.946   3.797
76481SOL    HW231277   1.173  11.803   3.845
76482SOL     OW31278   9.495  11.461  12.166
76482SOL    HW131279   9.402  11.440  12.169
76482SOL    HW231280   9.538  11.377  12.152
76483SOL     OW31281   0.057  12.202   8.998
76483SOL    HW131282   0.037  12.116   8.961
76483SOL    HW231283   0.149  12.217   8.976
76484SOL     OW31284  14.444   7.703   7.651
76484SOL    HW131285  14.448   7.633   7.586
76484SOL    HW231286  14.536   7.724   7.669
76485SOL     OW31287   7.146   3.778   9.036
76485SOL    HW131288   7.168   3.702   8.982
76485SOL    HW231289   7.058   3.803   9.007
76486SOL     OW31290   8.843   1.548   9.122
76486SOL    HW131291   8.888   1.464   9.124
76486SOL    HW231292   8.885   1.600   9.190
76487SOL     OW31293  11.928   8.701  13.521
76487SOL    HW131294  11.986   8.662  13.586
76487SOL    HW231295  11.947   8.795  13.525
76488SOL     OW31296  12.454   0.523  11.802
76488SOL    HW131297  12.413   0.609  11.812
76488SOL    HW231298  12.403   0.480  11.734
76489SOL     OW31299   3.571   0.362   2.945
76489SOL    HW131300   3.642   0.427   2.953
76489SOL    HW231301   3.525   0.387   2.865
76490SOL     OW31302   3.934   8.858  11.755
76490SOL    HW131303   3.935   8.953  11.745
76490SOL    HW231304   3.854   8.831  11.710
76491SOL     OW31305   7.394   5.515  11.485
76491SOL    HW131306   7.311   5.473  11.509
76491SOL    HW231307   7.460   5.470  11.538
76492SOL     OW31308  10.650  12.909   0.130
76492SOL    HW131309  10.628  13.002   0.138
76492SOL    HW231310  10.616  12.869   0.210
76493SOL     OW31311   5.323   1.465  13.396
76493SOL    HW131312   5.306   1.371  13.409
76493SOL    HW231313   5.239   1.500  13.366
76494SOL     OW31314   2.747   6.461   3.401
76494SOL    HW131315   2.703   6.540   3.431
76494SOL    HW231316   2.692   6.428   3.330
76495SOL     OW31317   3.670   7.782   8.327
76495SOL    HW131318   3.728   7.706   8.315
76495SOL    HW231319   3.663   7.820   8.239
76496SOL     OW31320   1.036   1.005  12.004
76496SOL    HW131321   1.074   0.926  12.042
76496SOL    HW231322   1.009   0.979  11.916
76497SOL     OW31323   2.101   0.707   8.405
76497SOL    HW131324   2.108   0.726   8.499
76497SOL    HW231325   2.174   0.756   8.366
76498SOL     OW31326  10.801  12.757  10.823
76498SOL    HW131327  10.705  12.755  10.819
76498SOL    HW231328  10.822  12.848  10.845
76499SOL     OW31329  12.657   1.167   1.177
76499SOL    HW131330  12.589   1.160   1.244
76499SOL    HW231331  12.618   1.223   1.109
76500SOL     OW31332   3.850   4.563   5.671
76500SOL    HW131333   3.877   4.648   5.636
76500SOL    HW231334   3.780   4.535   5.613
76501SOL     OW31335  11.062   0.995  10.465
76501SOL    HW131336  10.986   1.053  10.457
76501SOL    HW231337  11.107   1.025  10.544
76502SOL     OW31338   0.084  11.403  13.817
76502SOL    HW131339  14.871  11.377  13.820
76502SOL    HW231340   0.086  11.488  13.860
76503SOL     OW31341   1.271  13.070   0.101
76503SOL    HW131342   1.272  12.992   0.046
76503SOL    HW231343   1.349  13.119   0.074
76504SOL     OW31344   2.407  14.774  14.818
76504SOL    HW131345   2.426  14.821   0.020
76504SOL    HW231346   2.458  14.694  14.825
76505SOL     OW31347  10.997   3.468   7.538
76505SOL    HW131348  10.938   3.475   7.613
76505SOL    HW231349  10.952   3.516   7.468
76506SOL     OW31350  10.090   4.342   8.344
76506SOL    HW131351  10.100   4.280   8.416
76506SOL    HW231352  10.071   4.287   8.268
76507SOL     OW31353  13.981  12.584  10.442
76507SOL    HW131354  13.979  12.513  10.378
76507SOL    HW231355  13.926  12.554  10.514
76508SOL     OW31356   9.610   6.330  12.983
76508SOL    HW131357   9.617   6.376  12.899
76508SOL    HW231358   9.518   6.303  12.988
76509SOL     OW31359  12.296   6.097   9.977
76509SOL    HW131360  12.264   6.164   9.917
76509SOL    HW231361  12.309   6.020   9.923
76510SOL     OW31362   7.928   4.266   2.548
76510SOL    HW131363   7.900   4.299   2.633
76510SOL    HW231364   8.021   4.290   2.543
76511SOL     OW31365   5.677   6.634  13.711
76511SOL    HW131366   5.595   6.656  13.755
76511SOL    HW231367   5.701   6.714  13.664
76512SOL     OW31368   7.588   1.585  11.468
76512SOL    HW131369   7.506   1.562  11.423
76512SOL    HW231370   7.602   1.677  11.445
76513SOL     OW31371  10.821   0.613   0.141
76513SOL    HW131372  10.901   0.604   0.193
76513SOL    HW231373  10.832   0.551   0.069
76514SOL     OW31374   5.599  14.150   1.891
76514SOL    HW131375   5.643  14.231   1.866
76514SOL    HW231376   5.670  14.088   1.908
76515SOL     OW31377   3.269  13.360   3.060
76515SOL    HW131378   3.354  13.391   3.029
76515SOL    HW231379   3.207  13.391   2.994
76516SOL     OW31380   1.265   9.673  12.453
76516SOL    HW131381   1.318   9.751  12.442
76516SOL    HW231382   1.212   9.668  12.374
76517SOL     OW31383   3.771   9.428   5.788
76517SOL    HW131384   3.733   9.391   5.708
76517SOL    HW231385   3.846   9.372   5.807
76518SOL     OW31386   1.346  13.772  13.205
76518SOL    HW131387   1.298  13.780  13.123
76518SOL    HW231388   1.424  13.721  13.182
76519SOL     OW31389  14.515   5.686   4.617
76519SOL    HW131390  14.471   5.703   4.700
76519SOL    HW231391  14.473   5.608   4.582
76520SOL     OW31392   7.621   2.940   6.390
76520SOL    HW131393   7.647   2.849   6.373
76520SOL    HW231394   7.675   2.992   6.331
76521SOL     OW31395   8.592  12.007  10.710
76521SOL    HW131396   8.580  11.945  10.782
76521SOL    HW231397   8.504  12.018  10.673
76522SOL     OW31398  13.083  13.602   6.323
76522SOL    HW131399  13.109  13.675   6.379
76522SOL    HW231400  13.096  13.524   6.377
76523SOL     OW31401  11.528   7.185  12.927
76523SOL    HW131402  11.603   7.127  12.912
76523SOL    HW231403  11.486   7.191  12.841
76524SOL     OW31404  13.918   0.596   2.890
76524SOL    HW131405  13.847   0.577   2.830
76524SOL    HW231406  13.973   0.518   2.888
76525SOL     OW31407   7.482   0.052  13.676
76525SOL    HW131408   7.461   0.130  13.727
76525SOL    HW231409   7.398   0.009  13.662
76526SOL     OW31410   8.709  12.743   9.300
76526SOL    HW131411   8.675  12.695   9.375
76526SOL    HW231412   8.653  12.716   9.227
76527SOL     OW31413   8.998  13.962   1.799
76527SOL    HW131414   9.004  14.028   1.730
76527SOL    HW231415   9.016  14.009   1.880
76528SOL     OW31416  14.256  14.786  12.941
76528SOL    HW131417  14.304  14.790  13.024
76528SOL    HW231418  14.300  14.849  12.885
76529SOL     OW31419  12.057  10.676  14.836
76529SOL    HW131420  12.067  10.629   0.039
76529SOL    HW231421  12.127  10.741  14.836
76530SOL     OW31422  14.555   5.061   1.669
76530SOL    HW131423  14.470   5.077   1.710
76530SOL    HW231424  14.587   5.148   1.644
76531SOL     OW31425   5.391   5.017  13.788
76531SOL    HW131426   5.307   5.060  13.804
76531SOL    HW231427   5.453   5.062  13.845
76532SOL     OW31428  14.737  13.853   6.881
76532SOL    HW131429  14.675  13.853   6.954
76532SOL    HW231430  14.709  13.779   6.827
76533SOL     OW31431   9.813  13.647   1.958
76533SOL    HW131432   9.863  13.595   1.895
76533SOL    HW231433   9.852  13.735   1.953
76534SOL     OW31434  10.401   0.305  14.675
76534SOL    HW131435  10.485   0.301  14.629
76534SOL    HW231436  10.411   0.378  14.736
76535SOL     OW31437   5.618  13.954   9.655
76535SOL    HW131438   5.548  13.989   9.601
76535SOL    HW231439   5.693  13.945   9.596
76536SOL     OW31440   4.666   7.019  10.015
76536SOL    HW131441   4.718   6.985   9.941
76536SOL    HW231442   4.588   7.056   9.974
76537SOL     OW31443   3.208   0.876   8.743
76537SOL    HW131444   3.236   0.944   8.804
76537SOL    HW231445   3.249   0.796   8.775
76538SOL     OW31446  10.026  12.955   4.428
76538SOL    HW131447  10.102  12.896   4.420
76538SOL    HW231448   9.960  12.902   4.472
76539SOL     OW31449   8.253   7.502  13.235
76539SOL    HW131450   8.323   7.480  13.174
76539SOL    HW231451   8.288   7.478  13.321
76540SOL     OW31452   4.112  11.283   4.055
76540SOL    HW131453   4.198  11.241   4.065
76540SOL    HW231454   4.068  11.269   4.139
76541SOL     OW31455   2.724   8.513   6.081
76541SOL    HW131456   2.665   8.540   6.011
76541SOL    HW231457   2.666   8.472   6.146
76542SOL     OW31458  12.373  14.490  14.794
76542SOL    HW131459  12.335  14.502   0.002
76542SOL    HW231460  12.434  14.418  14.804
76543SOL     OW31461  11.987  11.019   2.302
76543SOL    HW131462  11.929  10.954   2.263
76543SOL    HW231463  11.929  11.073   2.356
76544SOL     OW31464   6.117   2.240   3.357
76544SOL    HW131465   6.117   2.175   3.287
76544SOL    HW231466   6.172   2.202   3.426
76545SOL     OW31467   9.423   7.233   4.211
76545SOL    HW131468   9.382   7.253   4.295
76545SOL    HW231469   9.504   7.284   4.211
76546SOL     OW31470   1.407  12.093   3.883
76546SOL    HW131471   1.470  12.154   3.921
76546SOL    HW231472   1.405  12.019   3.945
76547SOL     OW31473   2.121   5.938   4.731
76547SOL    HW131474   2.063   5.924   4.657
76547SOL    HW231475   2.120   5.855   4.779
76548SOL     OW31476  11.358   6.978   0.373
76548SOL    HW131477  11.370   7.043   0.442
76548SOL    HW231478  11.281   6.928   0.400
76549SOL     OW31479  10.238   8.925   8.777
76549SOL    HW131480  10.178   8.910   8.704
76549SOL    HW231481  10.232   9.019   8.794
76550SOL     OW31482   0.965   1.955   0.365
76550SOL    HW131483   0.909   1.896   0.316
76550SOL    HW231484   1.047   1.958   0.315
76551SOL     OW31485  13.289   4.061   7.881
76551SOL    HW131486  13.231   4.097   7.814
76551SOL    HW231487  13.232   4.044   7.956
76552SOL     OW31488   6.866  12.455   8.404
76552SOL    HW131489   6.815  12.525   8.364
76552SOL    HW231490   6.812  12.424   8.477
76553SOL     OW31491  13.829   1.549   2.546
76553SOL    HW131492  13.880   1.614   2.497
76553SOL    HW231493  13.739   1.563   2.518
76554SOL     OW31494   3.837  11.724   2.841
76554SOL    HW131495   3.847  11.723   2.936
76554SOL    HW231496   3.811  11.634   2.819
76555SOL     OW31497  12.139  10.419   6.058
76555SOL    HW131498  12.146  10.328   6.030
76555SOL    HW231499  12.173  10.470   5.984
76556SOL     OW31500   4.325   0.149   7.774
76556SOL    HW131501   4.270   0.120   7.847
76556SOL    HW231502   4.265   0.155   7.699
76557SOL     OW31503  11.763  10.966  11.530
76557SOL    HW131504  11.759  10.879  11.571
76557SOL    HW231505  11.852  10.997  11.548
76558SOL     OW31506  10.196   6.956   8.154
76558SOL    HW131507  10.240   6.889   8.206
76558SOL    HW231508  10.123   6.986   8.208
76559SOL     OW31509  11.035  14.207  10.801
76559SOL    HW131510  10.984  14.271  10.752
76559SOL    HW231511  11.035  14.241  10.891
76560SOL     OW31512  14.498  10.859   8.263
76560SOL    HW131513  14.566  10.811   8.216
76560SOL    HW231514  14.537  10.881   8.347
76561SOL     OW31515   2.504   1.618  11.462
76561SOL    HW131516   2.511   1.668  11.381
76561SOL    HW231517   2.588   1.631  11.506
76562SOL     OW31518   4.592  14.467   7.445
76562SOL    HW131519   4.644  14.464   7.365
76562SOL    HW231520   4.610  14.383   7.487
76563SOL     OW31521  12.308   3.510   9.156
76563SOL    HW131522  12.399   3.532   9.137
76563SOL    HW231523  12.274   3.586   9.203
76564SOL     OW31524   8.029  11.941   4.710
76564SOL    HW131525   7.967  11.957   4.639
76564SOL    HW231526   8.016  12.014   4.770
76565SOL     OW31527   4.793   9.729   4.885
76565SOL    HW131528   4.746   9.812   4.881
76565SOL    HW231529   4.864   9.744   4.948
76566SOL     OW31530   4.514   7.252   1.770
76566SOL    HW131531   4.475   7.338   1.750
76566SOL    HW231532   4.606   7.272   1.787
76567SOL     OW31533  11.562  11.941  12.596
76567SOL    HW131534  11.528  12.010  12.653
76567SOL    HW231535  11.500  11.868  12.606
76568SOL     OW31536   8.845   8.438   0.669
76568SOL    HW131537   8.830   8.374   0.739
76568SOL    HW231538   8.933   8.418   0.637
76569SOL     OW31539   1.541  10.145   0.381
76569SOL    HW131540   1.549  10.156   0.476
76569SOL    HW231541   1.482  10.070   0.371
76570SOL     OW31542  13.041  14.140   6.438
76570SOL    HW131543  13.038  14.224   6.484
76570SOL    HW231544  13.123  14.143   6.390
76571SOL     OW31545  10.956   4.488  14.842
76571SOL    HW131546  10.956   4.400  14.805
76571SOL    HW231547  11.003   4.480   0.045
76572SOL     OW31548   2.842   9.350   8.310
76572SOL    HW131549   2.831   9.326   8.402
76572SOL    HW231550   2.767   9.310   8.266
76573SOL     OW31551  13.184  13.388  10.379
76573SOL    HW131552  13.268  13.349  10.353
76573SOL    HW231553  13.128  13.313  10.398
76574SOL     OW31554   8.579   9.819   5.563
76574SOL    HW131555   8.488   9.827   5.536
76574SOL    HW231556   8.593   9.890   5.625
76575SOL     OW31557  10.738  13.239   9.287
76575SOL    HW131558  10.731  13.157   9.335
76575SOL    HW231559  10.742  13.307   9.354
76576SOL     OW31560   7.751  12.835   2.388
76576SOL    HW131561   7.762  12.745   2.359
76576SOL    HW231562   7.826  12.882   2.351
76577SOL     OW31563   1.692  13.024   6.445
76577SOL    HW131564   1.620  12.977   6.403
76577SOL    HW231565   1.745  12.955   6.485
76578SOL     OW31566  10.818   1.293  14.723
76578SOL    HW131567  10.816   1.261  14.633
76578SOL    HW231568  10.730   1.273  14.757
76579SOL     OW31569  12.773   8.996  11.194
76579SOL    HW131570  12.845   9.046  11.155
76579SOL    HW231571  12.706   9.062  11.214
76580SOL     OW31572   9.095   1.486   5.172
76580SOL    HW131573   9.042   1.417   5.211
76580SOL    HW231574   9.161   1.439   5.120
76581SOL     OW31575   4.319   6.782   4.052
76581SOL    HW131576   4.307   6.839   3.976
76581SOL    HW231577   4.231   6.757   4.078
76582SOL     OW31578   0.640   2.529   3.721
76582SOL    HW131579   0.687   2.606   3.753
76582SOL    HW231580   0.660   2.527   3.627
76583SOL     OW31581   3.281   7.958   6.085
76583SOL    HW131582   3.372   7.957   6.116
76583SOL    HW231583   3.254   8.050   6.094
76584SOL     OW31584  12.354   0.987   2.150
76584SOL    HW131585  12.402   0.934   2.213
76584SOL    HW231586  12.293   0.926   2.109
76585SOL     OW31587   8.861   0.168  14.347
76585SOL    HW131588   8.910   0.227  14.405
76585SOL    HW231589   8.928   0.121  14.298
76586SOL     OW31590   8.623  14.623   4.541
76586SOL    HW131591   8.588  14.690   4.483
76586SOL    HW231592   8.716  14.617   4.518
76587SOL     OW31593   8.780  10.483   7.595
76587SOL    HW131594   8.769  10.547   7.525
76587SOL    HW231595   8.694  10.441   7.602
76588SOL     OW31596   1.701  11.850   6.096
76588SOL    HW131597   1.722  11.789   6.167
76588SOL    HW231598   1.785  11.886   6.069
76589SOL     OW31599  10.327   5.673  11.868
76589SOL    HW131600  10.364   5.643  11.951
76589SOL    HW231601  10.373   5.622  11.801
76590SOL     OW31602   8.483  13.748  13.536
76590SOL    HW131603   8.390  13.736  13.517
76590SOL    HW231604   8.520  13.779  13.454
76591SOL     OW31605   3.312   5.220   3.276
76591SOL    HW131606   3.327   5.180   3.362
76591SOL    HW231607   3.399   5.238   3.241
76592SOL     OW31608   5.894  13.361   6.512
76592SOL    HW131609   5.842  13.315   6.578
76592SOL    HW231610   5.984  13.355   6.543
76593SOL     OW31611   8.363   4.800   3.891
76593SOL    HW131612   8.354   4.895   3.898
76593SOL    HW231613   8.354   4.781   3.798
76594SOL     OW31614   5.173  14.150   2.405
76594SOL    HW131615   5.082  14.123   2.393
76594SOL    HW231616   5.202  14.104   2.484
76595SOL     OW31617   6.511   0.932  10.411
76595SOL    HW131618   6.519   1.027  10.406
76595SOL    HW231619   6.574   0.900  10.345
76596SOL     OW31620   7.468   4.932  11.657
76596SOL    HW131621   7.428   5.019  11.655
76596SOL    HW231622   7.529   4.932  11.583
76597SOL     OW31623   0.920  14.686   0.377
76597SOL    HW131624   0.871  14.632   0.316
76597SOL    HW231625   0.979  14.738   0.322
76598SOL     OW31626   4.915   0.056  13.473
76598SOL    HW131627   4.875   0.084  13.390
76598SOL    HW231628   4.916   0.135  13.527
76599SOL     OW31629   5.415  14.141   6.153
76599SOL    HW131630   5.359  14.188   6.215
76599SOL    HW231631   5.486  14.202   6.133
76600SOL     OW31632  10.199   6.139   4.146
76600SOL    HW131633  10.112   6.099   4.149
76600SOL    HW231634  10.251   6.088   4.208
76601SOL     OW31635   2.830   0.222   2.723
76601SOL    HW131636   2.738   0.222   2.747
76601SOL    HW231637   2.833   0.176   2.639
76602SOL     OW31638   0.291  11.649   1.397
76602SOL    HW131639   0.279  11.738   1.429
76602SOL    HW231640   0.356  11.657   1.327
76603SOL     OW31641   5.926  14.829  11.076
76603SOL    HW131642   5.958  14.849  10.988
76603SOL    HW231643   5.856  14.765  11.062
76604SOL     OW31644   8.000  10.005   6.556
76604SOL    HW131645   8.063  10.050   6.612
76604SOL    HW231646   7.937   9.967   6.618
76605SOL     OW31647   5.071   1.969   2.848
76605SOL    HW131648   5.108   1.898   2.796
76605SOL    HW231649   5.142   2.032   2.857
76606SOL     OW31650   7.388  10.235   0.022
76606SOL    HW131651   7.343  10.247   0.105
76606SOL    HW231652   7.459  10.300   0.024
76607SOL     OW31653   7.186  12.094   6.347
76607SOL    HW131654   7.211  12.018   6.399
76607SOL    HW231655   7.111  12.131   6.393
76608SOL     OW31656   7.344  14.071   1.348
76608SOL    HW131657   7.354  14.001   1.285
76608SOL    HW231658   7.372  14.150   1.301
76609SOL     OW31659   0.634   2.067   3.166
76609SOL    HW131660   0.651   1.979   3.132
76609SOL    HW231661   0.556   2.057   3.220
76610SOL     OW31662   8.909  12.164  12.897
76610SOL    HW131663   8.932  12.079  12.860
76610SOL    HW231664   8.814  12.163  12.901
76611SOL     OW31665  11.590  13.201   2.279
76611SOL    HW131666  11.608  13.108   2.265
76611SOL    HW231667  11.511  13.203   2.332
76612SOL     OW31668   4.309   1.185   5.758
76612SOL    HW131669   4.334   1.268   5.797
76612SOL    HW231670   4.295   1.126   5.832
76613SOL     OW31671  11.957   2.325   9.681
76613SOL    HW131672  12.023   2.258   9.662
76613SOL    HW231673  11.976   2.396   9.620
76614SOL     OW31674   9.959   2.608   7.250
76614SOL    HW131675   9.978   2.677   7.187
76614SOL    HW231676   9.908   2.544   7.201
76615SOL     OW31677   3.000   4.274  10.890
76615SOL    HW131678   2.969   4.248  10.977
76615SOL    HW231679   2.987   4.196  10.836
76616SOL     OW31680  10.829   0.530   5.349
76616SOL    HW131681  10.787   0.576   5.276
76616SOL    HW231682  10.905   0.584   5.371
76617SOL     OW31683   4.435   6.482   6.926
76617SOL    HW131684   4.362   6.445   6.876
76617SOL    HW231685   4.473   6.547   6.867
76618SOL     OW31686  11.273   0.675  12.739
76618SOL    HW131687  11.345   0.659  12.800
76618SOL    HW231688  11.213   0.731  12.787
76619SOL     OW31689   5.789  10.710  10.077
76619SOL    HW131690   5.739  10.783  10.042
76619SOL    HW231691   5.880  10.736  10.068
76620SOL     OW31692   2.331   1.446   2.945
76620SOL    HW131693   2.412   1.429   2.898
76620SOL    HW231694   2.262   1.406   2.892
76621SOL     OW31695   3.086  13.767   0.052
76621SOL    HW131696   3.073  13.830  14.861
76621SOL    HW231697   3.024  13.696   0.032
76622SOL     OW31698   7.273   4.618   9.775
76622SOL    HW131699   7.323   4.700   9.778
76622SOL    HW231700   7.211   4.630   9.703
76623SOL     OW31701  12.064  11.947   2.388
76623SOL    HW131702  12.122  11.873   2.371
76623SOL    HW231703  12.004  11.915   2.456
76624SOL     OW31704   3.814   8.188   1.999
76624SOL    HW131705   3.803   8.150   1.912
76624SOL    HW231706   3.823   8.282   1.984
76625SOL     OW31707   8.940   8.735   5.916
76625SOL    HW131708   8.956   8.829   5.923
76625SOL    HW231709   8.856   8.727   5.873
76626SOL     OW31710   8.909   6.042   7.849
76626SOL    HW131711   8.911   6.083   7.936
76626SOL    HW231712   8.912   5.948   7.866
76627SOL     OW31713   7.765   7.913  10.439
76627SOL    HW131714   7.789   7.870  10.521
76627SOL    HW231715   7.839   7.971  10.420
76628SOL     OW31716   0.219  14.666  13.548
76628SOL    HW131717   0.294  14.717  13.579
76628SOL    HW231718   0.257  14.593  13.500
76629SOL     OW31719  10.093   8.937   5.596
76629SOL    HW131720  10.166   8.983   5.555
76629SOL    HW231721  10.094   8.966   5.687
76630SOL     OW31722   1.698   9.255   1.391
76630SOL    HW131723   1.655   9.195   1.330
76630SOL    HW231724   1.675   9.221   1.477
76631SOL     OW31725   5.752  13.857   4.913
76631SOL    HW131726   5.672  13.817   4.948
76631SOL    HW231727   5.736  13.951   4.917
76632SOL     OW31728   4.779  14.635   8.285
76632SOL    HW131729   4.714  14.684   8.336
76632SOL    HW231730   4.803  14.561   8.342
76633SOL     OW31731   7.157   2.064  13.332
76633SOL    HW131732   7.195   2.119  13.401
76633SOL    HW231733   7.167   2.116  13.253
76634SOL     OW31734   6.269   6.276   1.838
76634SOL    HW131735   6.189   6.312   1.798
76634SOL    HW231736   6.334   6.345   1.828
76635SOL     OW31737   1.854   7.172  12.608
76635SOL    HW131738   1.819   7.143  12.692
76635SOL    HW231739   1.791   7.139  12.543
76636SOL     OW31740   6.661   5.240  11.074
76636SOL    HW131741   6.654   5.282  11.160
76636SOL    HW231742   6.704   5.156  11.091
76637SOL     OW31743   3.153  14.004  10.689
76637SOL    HW131744   3.077  14.025  10.634
76637SOL    HW231745   3.117  13.951  10.760
76638SOL     OW31746  12.455   1.214  11.273
76638SOL    HW131747  12.485   1.134  11.230
76638SOL    HW231748  12.487   1.207  11.363
76639SOL     OW31749  13.696   4.470   4.666
76639SOL    HW131750  13.736   4.556   4.652
76639SOL    HW231751  13.620   4.469   4.608
76640SOL     OW31752  12.934   3.147   9.502
76640SOL    HW131753  12.973   3.134   9.589
76640SOL    HW231754  12.840   3.153   9.520
76641SOL     OW31755   3.488  14.641  10.171
76641SOL    HW131756   3.499  14.736  10.180
76641SOL    HW231757   3.574  14.605  10.194
76642SOL     OW31758   5.986   5.283  11.875
76642SOL    HW131759   5.985   5.343  11.800
76642SOL    HW231760   5.997   5.196  11.837
76643SOL     OW31761   5.106   7.718   6.410
76643SOL    HW131762   5.045   7.725   6.336
76643SOL    HW231763   5.050   7.714   6.487
76644SOL     OW31764  11.091  14.528   2.683
76644SOL    HW131765  11.178  14.492   2.668
76644SOL    HW231766  11.104  14.622   2.688
76645SOL     OW31767  10.306   5.621   4.402
76645SOL    HW131768  10.296   5.611   4.496
76645SOL    HW231769  10.392   5.661   4.390
76646SOL     OW31770  11.827   4.552  11.692
76646SOL    HW131771  11.885   4.490  11.649
76646SOL    HW231772  11.759   4.572  11.627
76647SOL     OW31773  14.593   6.139   0.284
76647SOL    HW131774  14.679   6.166   0.315
76647SOL    HW231775  14.604   6.126   0.190
76648SOL     OW31776  14.347   1.891   7.650
76648SOL    HW131777  14.387   1.817   7.605
76648SOL    HW231778  14.304   1.853   7.726
76649SOL     OW31779  13.901   4.114   1.543
76649SOL    HW131780  13.984   4.066   1.530
76649SOL    HW231781  13.871   4.133   1.454
76650SOL     OW31782   6.367  10.911   6.845
76650SOL    HW131783   6.412  10.935   6.764
76650SOL    HW231784   6.404  10.826   6.870
76651SOL     OW31785   1.149  11.708  13.206
76651SOL    HW131786   1.107  11.708  13.292
76651SOL    HW231787   1.196  11.791  13.202
76652SOL     OW31788   8.874   9.558   9.252
76652SOL    HW131789   8.865   9.643   9.295
76652SOL    HW231790   8.870   9.579   9.158
76653SOL     OW31791   4.340   7.594  10.856
76653SOL    HW131792   4.254   7.618  10.822
76653SOL    HW231793   4.396   7.669  10.833
76654SOL     OW31794  11.597   4.691  11.531
76654SOL    HW131795  11.588   4.596  11.535
76654SOL    HW231796  11.520   4.724  11.578
76655SOL     OW31797   4.794  11.181   6.825
76655SOL    HW131798   4.848  11.251   6.863
76655SOL    HW231799   4.734  11.227   6.766
76656SOL     OW31800  12.984   1.954   5.800
76656SOL    HW131801  12.915   1.889   5.813
76656SOL    HW231802  13.050   1.933   5.866
76657SOL     OW31803   1.836   7.774  10.016
76657SOL    HW131804   1.867   7.742  10.101
76657SOL    HW231805   1.787   7.854  10.037
76658SOL     OW31806   5.265  13.479   8.448
76658SOL    HW131807   5.315  13.521   8.378
76658SOL    HW231808   5.204  13.420   8.402
76659SOL     OW31809   4.834  13.082   2.429
76659SOL    HW131810   4.915  13.084   2.377
76659SOL    HW231811   4.768  13.047   2.369
76660SOL     OW31812  11.492   5.687   1.121
76660SOL    HW131813  11.428   5.666   1.052
76660SOL    HW231814  11.542   5.606   1.133
76661SOL     OW31815   3.482   9.165   9.472
76661SOL    HW131816   3.483   9.194   9.563
76661SOL    HW231817   3.410   9.102   9.467
76662SOL     OW31818   7.111  11.188  11.108
76662SOL    HW131819   7.137  11.131  11.036
76662SOL    HW231820   7.185  11.188  11.168
76663SOL     OW31821   7.012   5.518   6.490
76663SOL    HW131822   7.090   5.573   6.494
76663SOL    HW231823   7.043   5.435   6.454
76664SOL     OW31824   4.975   9.350  14.132
76664SOL    HW131825   5.040   9.394  14.078
76664SOL    HW231826   4.965   9.264  14.091
76665SOL     OW31827   6.364   3.072  12.302
76665SOL    HW131828   6.370   3.077  12.207
76665SOL    HW231829   6.331   3.158  12.329
76666SOL     OW31830   4.882  12.152   0.916
76666SOL    HW131831   4.935  12.232   0.908
76666SOL    HW231832   4.899  12.122   1.006
76667SOL     OW31833   8.608   5.483   4.467
76667SOL    HW131834   8.675   5.453   4.528
76667SOL    HW231835   8.624   5.577   4.459
76668SOL     OW31836   7.476  13.169   2.664
76668SOL    HW131837   7.552  13.209   2.705
76668SOL    HW231838   7.470  13.082   2.704
76669SOL     OW31839   0.781  11.486   0.336
76669SOL    HW131840   0.783  11.411   0.396
76669SOL    HW231841   0.823  11.455   0.257
76670SOL     OW31842   5.702   5.185   3.894
76670SOL    HW131843   5.658   5.152   3.972
76670SOL    HW231844   5.795   5.180   3.914
76671SOL     OW31845   8.184   7.939  11.102
76671SOL    HW131846   8.102   7.956  11.148
76671SOL    HW231847   8.157   7.915  11.013
76672SOL     OW31848   3.095   7.579   2.414
76672SOL    HW131849   3.068   7.664   2.448
76672SOL    HW231850   3.180   7.595   2.374
76673SOL     OW31851   7.987   4.682  10.751
76673SOL    HW131852   8.010   4.774  10.760
76673SOL    HW231853   7.991   4.665  10.657
76674SOL     OW31854   2.628  11.536   1.232
76674SOL    HW131855   2.657  11.556   1.143
76674SOL    HW231856   2.536  11.562   1.234
76675SOL     OW31857   7.999   4.154   5.776
76675SOL    HW131858   8.005   4.242   5.815
76675SOL    HW231859   7.919   4.117   5.812
76676SOL     OW31860  14.558  12.960   9.109
76676SOL    HW131861  14.631  12.902   9.089
76676SOL    HW231862  14.481  12.914   9.077
76677SOL     OW31863   2.863   9.765   5.108
76677SOL    HW131864   2.873   9.672   5.089
76677SOL    HW231865   2.809   9.768   5.187
76678SOL     OW31866  14.004   3.753  10.035
76678SOL    HW131867  14.018   3.770   9.942
76678SOL    HW231868  14.016   3.659  10.044
76679SOL     OW31869   1.364   8.449  11.403
76679SOL    HW131870   1.295   8.456  11.338
76679SOL    HW231871   1.366   8.534  11.446
76680SOL     OW31872   3.868   3.400   5.067
76680SOL    HW131873   3.912   3.434   4.989
76680SOL    HW231874   3.853   3.308   5.048
76681SOL     OW31875   8.490   5.000   3.665
76681SOL    HW131876   8.399   5.027   3.672
76681SOL    HW231877   8.486   4.909   3.639
76682SOL     OW31878  11.674   7.663   3.428
76682SOL    HW131879  11.757   7.660   3.381
76682SOL    HW231880  11.674   7.584   3.482
76683SOL     OW31881  13.191   1.798  11.581
76683SOL    HW131882  13.255   1.767  11.644
76683SOL    HW231883  13.226   1.771  11.496
76684SOL     OW31884   6.604  11.877   9.648
76684SOL    HW131885   6.513  11.895   9.671
76684SOL    HW231886   6.644  11.964   9.642
76685SOL     OW31887   1.019   0.452   1.021
76685SOL    HW131888   1.083   0.511   1.060
76685SOL    HW231889   0.946   0.509   0.997
76686SOL     OW31890   5.998  10.607  11.567
76686SOL    HW131891   6.034  10.686  11.607
76686SOL    HW231892   5.987  10.547  11.640
76687SOL     OW31893   1.288   3.916   2.105
76687SOL    HW131894   1.316   3.967   2.181
76687SOL    HW231895   1.202   3.882   2.130
76688SOL     OW31896  10.488   7.276  12.663
76688SOL    HW131897  10.466   7.227  12.742
76688SOL    HW231898  10.478   7.213  12.592
76689SOL     OW31899   8.535   3.326   8.020
76689SOL    HW131900   8.579   3.338   7.936
76689SOL    HW231901   8.534   3.231   8.032
76690SOL     OW31902   2.474  12.388   9.291
76690SOL    HW131903   2.480  12.381   9.387
76690SOL    HW231904   2.553  12.435   9.266
76691SOL     OW31905   1.773  10.104  11.495
76691SOL    HW131906   1.690  10.144  11.468
76691SOL    HW231907   1.748  10.024  11.539
76692SOL     OW31908  14.874   0.911   3.284
76692SOL    HW131909   0.044   0.978   3.237
76692SOL    HW231910  14.808   0.959   3.333
76693SOL     OW31911   4.194  13.557  13.826
76693SOL    HW131912   4.247  13.527  13.901
76693SOL    HW231913   4.236  13.638  13.799
76694SOL     OW31914  12.154  11.151   7.587
76694SOL    HW131915  12.187  11.152   7.497
76694SOL    HW231916  12.233  11.159   7.641
76695SOL     OW31917   4.039  11.559   3.635
76695SOL    HW131918   4.066  11.475   3.673
76695SOL    HW231919   4.077  11.624   3.694
76696SOL     OW31920   0.069   8.494  13.349
76696SOL    HW131921   0.133   8.435  13.388
76696SOL    HW231922   0.069   8.472  13.256
76697SOL     OW31923  13.413  14.557  14.495
76697SOL    HW131924  13.423  14.652  14.506
76697SOL    HW231925  13.376  14.527  14.578
76698SOL     OW31926   8.713   8.173   0.692
76698SOL    HW131927   8.796   8.130   0.711
76698SOL    HW231928   8.646   8.111   0.720
76699SOL     OW31929   3.093   0.071   3.715
76699SOL    HW131930   3.133  14.864   3.703
76699SOL    HW231931   3.146   0.130   3.661
76700SOL     OW31932   8.350   7.187  11.648
76700SOL    HW131933   8.381   7.157  11.563
76700SOL    HW231934   8.315   7.275  11.632
76701SOL     OW31935  10.006   9.803  12.002
76701SOL    HW131936  10.079   9.863  11.992
76701SOL    HW231937   9.993   9.764  11.915
76702SOL     OW31938  10.292  11.923   8.064
76702SOL    HW131939  10.372  11.871   8.065
76702SOL    HW231940  10.259  11.915   7.974
76703SOL     OW31941   4.841   8.602   4.838
76703SOL    HW131942   4.780   8.655   4.786
76703SOL    HW231943   4.878   8.540   4.776
76704SOL     OW31944  14.845   7.622   6.456
76704SOL    HW131945  14.809   7.611   6.367
76704SOL    HW231946   0.032   7.554   6.464
76705SOL     OW31947  11.462   0.939  12.802
76705SOL    HW131948  11.432   0.868  12.858
76705SOL    HW231949  11.416   1.016  12.836
76706SOL     OW31950  13.700   6.630  11.689
76706SOL    HW131951  13.668   6.699  11.747
76706SOL    HW231952  13.743   6.567  11.747
76707SOL     OW31953   7.208   4.240   4.322
76707SOL    HW131954   7.163   4.268   4.243
76707SOL    HW231955   7.298   4.271   4.311
76708SOL     OW31956  11.707   3.490  14.452
76708SOL    HW131957  11.676   3.405  14.485
76708SOL    HW231958  11.703   3.481  14.357
76709SOL     OW31959  10.447  10.064   8.668
76709SOL    HW131960  10.395  10.074   8.748
76709SOL    HW231961  10.524  10.119   8.683
76710SOL     OW31962  12.927   1.195  11.080
76710SOL    HW131963  12.988   1.126  11.105
76710SOL    HW231964  12.869   1.153  11.016
76711SOL     OW31965  14.031   1.147  12.598
76711SOL    HW131966  13.999   1.060  12.574
76711SOL    HW231967  13.954   1.190  12.635
76712SOL     OW31968  12.563   2.218   5.904
76712SOL    HW131969  12.603   2.277   5.840
76712SOL    HW231970  12.490   2.178   5.856
76713SOL     OW31971   8.386  13.637   5.450
76713SOL    HW131972   8.350  13.551   5.471
76713SOL    HW231973   8.434  13.623   5.368
76714SOL     OW31974   1.025   6.896  12.649
76714SOL    HW131975   0.984   6.825  12.697
76714SOL    HW231976   0.953   6.956  12.628
76715SOL     OW31977   9.376   5.377  14.712
76715SOL    HW131978   9.429   5.451  14.684
76715SOL    HW231979   9.365   5.389  14.806
76716SOL     OW31980  13.674  14.722  14.601
76716SOL    HW131981  13.711  14.683  14.522
76716SOL    HW231982  13.608  14.784  14.570
76717SOL     OW31983   7.095   2.668   7.123
76717SOL    HW131984   7.048   2.632   7.199
76717SOL    HW231985   7.044   2.744   7.097
76718SOL     OW31986   1.113  12.805   9.779
76718SOL    HW131987   1.022  12.793   9.750
76718SOL    HW231988   1.143  12.718   9.801
76719SOL     OW31989  14.153   0.691   9.558
76719SOL    HW131990  14.170   0.671   9.650
76719SOL    HW231991  14.084   0.757   9.560
76720SOL     OW31992  14.089   8.615   4.442
76720SOL    HW131993  13.999   8.581   4.440
76720SOL    HW231994  14.142   8.541   4.470
76721SOL     OW31995  11.465  12.700   1.172
76721SOL    HW131996  11.559  12.701   1.149
76721SOL    HW231997  11.463  12.677   1.264
76722SOL     OW31998  10.470  11.463   9.027
76722SOL    HW131999  10.501  11.440   9.114
76722SOL    HW232000  10.547  11.500   8.983
76723SOL     OW32001   4.694   6.894   0.719
76723SOL    HW132002   4.714   6.936   0.803
76723SOL    HW232003   4.660   6.965   0.665
76724SOL     OW32004  10.175  10.915  10.045
76724SOL    HW132005  10.175  10.974  10.120
76724SOL    HW232006  10.192  10.973   9.970
76725SOL     OW32007   1.364   1.390   7.687
76725SOL    HW132008   1.329   1.357   7.769
76725SOL    HW232009   1.351   1.319   7.624
76726SOL     OW32010   2.287  14.583   8.440
76726SOL    HW132011   2.293  14.487   8.434
76726SOL    HW232012   2.211  14.598   8.496
76727SOL     OW32013   5.248  13.855   9.677
76727SOL    HW132014   5.185  13.811   9.620
76727SOL    HW232015   5.237  13.948   9.656
76728SOL     OW32016  10.516  10.984   8.505
76728SOL    HW132017  10.512  10.908   8.563
76728SOL    HW232018  10.483  10.952   8.421
76729SOL     OW32019   2.362   2.438   5.303
76729SOL    HW132020   2.327   2.460   5.217
76729SOL    HW232021   2.441   2.387   5.285
76730SOL     OW32022   3.936  13.825  12.568
76730SOL    HW132023   3.934  13.905  12.516
76730SOL    HW232024   3.867  13.837  12.634
76731SOL     OW32025   6.196   8.422   6.249
76731SOL    HW132026   6.219   8.398   6.338
76731SOL    HW232027   6.279   8.426   6.202
76732SOL     OW32028   2.351   9.757  10.651
76732SOL    HW132029   2.280   9.821  10.645
76732SOL    HW232030   2.364   9.728  10.560
76733SOL     OW32031   4.070  11.869  11.852
76733SOL    HW132032   4.079  11.774  11.864
76733SOL    HW232033   3.982  11.881  11.816
76734SOL     OW32034   2.879   4.163   4.383
76734SOL    HW132035   2.835   4.191   4.303
76734SOL    HW232036   2.822   4.192   4.454
76735SOL     OW32037  14.677   0.495  11.716
76735SOL    HW132038  14.763   0.470  11.682
76735SOL    HW232039  14.619   0.424  11.687
76736SOL     OW32040   0.502  14.048   9.704
76736SOL    HW132041   0.541  13.999   9.632
76736SOL    HW232042   0.571  14.108   9.733
76737SOL     OW32043  10.625   6.571  13.124
76737SOL    HW132044  10.586   6.551  13.209
76737SOL    HW232045  10.628   6.666  13.121
76738SOL     OW32046  14.551   7.308  13.287
76738SOL    HW132047  14.587   7.221  13.301
76738SOL    HW232048  14.549   7.348  13.375
76739SOL     OW32049   7.333   3.895   1.545
76739SOL    HW132050   7.400   3.858   1.488
76739SOL    HW232051   7.294   3.966   1.494
76740SOL     OW32052   1.788  10.716   0.973
76740SOL    HW132053   1.737  10.637   0.953
76740SOL    HW232054   1.802  10.712   1.067
76741SOL     OW32055   9.675  11.857   8.469
76741SOL    HW132056   9.682  11.802   8.546
76741SOL    HW232057   9.758  11.905   8.466
76742SOL     OW32058  13.775   9.080   6.313
76742SOL    HW132059  13.681   9.062   6.321
76742SOL    HW232060  13.780   9.174   6.292
76743SOL     OW32061   7.745   3.874   1.308
76743SOL    HW132062   7.833   3.834   1.309
76743SOL    HW232063   7.760   3.964   1.282
76744SOL     OW32064   8.035   9.525  13.529
76744SOL    HW132065   8.020   9.554  13.619
76744SOL    HW232066   8.077   9.599  13.486
76745SOL     OW32067   8.485   4.199   9.235
76745SOL    HW132068   8.573   4.171   9.210
76745SOL    HW232069   8.430   4.122   9.219
76746SOL     OW32070  10.408  11.943  12.550
76746SOL    HW132071  10.322  11.954  12.511
76746SOL    HW232072  10.431  12.029  12.584
76747SOL     OW32073  11.718  11.496   3.008
76747SOL    HW132074  11.666  11.452   3.075
76747SOL    HW232075  11.655  11.551   2.962
76748SOL     OW32076  13.485   0.165   4.279
76748SOL    HW132077  13.555   0.163   4.345
76748SOL    HW232078  13.404   0.163   4.329
76749SOL     OW32079  12.519   9.287   2.840
76749SOL    HW132080  12.504   9.236   2.761
76749SOL    HW232081  12.460   9.362   2.833
76750SOL     OW32082   0.143   2.548   4.983
76750SOL    HW132083   0.177   2.589   4.904
76750SOL    HW232084   0.221   2.517   5.030
76751SOL     OW32085  11.712   2.053   5.632
76751SOL    HW132086  11.654   1.981   5.610
76751SOL    HW232087  11.705   2.061   5.727
76752SOL     OW32088   4.618   4.648  12.874
76752SOL    HW132089   4.681   4.697  12.820
76752SOL    HW232090   4.594   4.573  12.820
76753SOL     OW32091   0.986   0.375  10.303
76753SOL    HW132092   0.965   0.414  10.218
76753SOL    HW232093   1.075   0.340  10.291
76754SOL     OW32094  13.965   8.911   7.035
76754SOL    HW132095  13.979   8.826   6.993
76754SOL    HW232096  13.958   8.891   7.129
76755SOL     OW32097   2.281   0.231  11.097
76755SOL    HW132098   2.314   0.241  11.186
76755SOL    HW232099   2.286   0.137  11.080
76756SOL     OW32100   4.491  11.792  14.232
76756SOL    HW132101   4.469  11.699  14.237
76756SOL    HW232102   4.475  11.815  14.140
76757SOL     OW32103  12.952  13.857  10.305
76757SOL    HW132104  12.993  13.771  10.307
76757SOL    HW232105  13.006  13.908  10.245
76758SOL     OW32106   9.412  10.205  10.624
76758SOL    HW132107   9.348  10.175  10.560
76758SOL    HW232108   9.419  10.300  10.608
76759SOL     OW32109   4.470   4.333   3.641
76759SOL    HW132110   4.533   4.276   3.598
76759SOL    HW232111   4.475   4.308   3.734
76760SOL     OW32112   3.218  14.641  10.222
76760SOL    HW132113   3.180  14.726  10.199
76760SOL    HW232114   3.294  14.632  10.165
76761SOL     OW32115  13.701   1.030  11.936
76761SOL    HW132116  13.660   1.067  12.014
76761SOL    HW232117  13.795   1.036  11.953
76762SOL     OW32118   9.257  10.717   4.641
76762SOL    HW132119   9.269  10.642   4.700
76762SOL    HW232120   9.172  10.702   4.600
76763SOL     OW32121   2.926   0.936  12.558
76763SOL    HW132122   3.006   0.944  12.506
76763SOL    HW232123   2.858   0.973  12.502
76764SOL     OW32124  14.079  13.701   6.792
76764SOL    HW132125  14.146  13.641   6.760
76764SOL    HW232126  14.007  13.691   6.730
76765SOL     OW32127  11.799   9.920   7.854
76765SOL    HW132128  11.790  10.008   7.890
76765SOL    HW232129  11.814   9.864   7.930
76766SOL     OW32130   3.724  13.697   0.859
76766SOL    HW132131   3.819  13.691   0.846
76766SOL    HW232132   3.699  13.611   0.890
76767SOL     OW32133   3.865   6.049   5.489
76767SOL    HW132134   3.817   5.970   5.463
76767SOL    HW232135   3.956   6.032   5.464
76768SOL     OW32136   6.933   4.304  12.724
76768SOL    HW132137   6.939   4.209  12.710
76768SOL    HW232138   6.839   4.322  12.721
76769SOL     OW32139  13.907  13.335   0.721
76769SOL    HW132140  13.939  13.348   0.810
76769SOL    HW232141  13.957  13.398   0.669
76770SOL     OW32142   7.698   7.414   5.293
76770SOL    HW132143   7.672   7.491   5.344
76770SOL    HW232144   7.711   7.346   5.359
76771SOL     OW32145   7.439   0.203   0.667
76771SOL    HW132146   7.345   0.195   0.656
76771SOL    HW232147   7.457   0.296   0.648
76772SOL     OW32148   1.884   8.938   2.085
76772SOL    HW132149   1.835   8.984   2.017
76772SOL    HW232150   1.872   8.992   2.163
76773SOL     OW32151  12.009   5.488   4.318
76773SOL    HW132152  12.098   5.483   4.352
76773SOL    HW232153  12.010   5.435   4.238
76774SOL     OW32154   2.981   2.683   1.841
76774SOL    HW132155   3.050   2.717   1.784
76774SOL    HW232156   3.013   2.698   1.930
76775SOL     OW32157   6.416  11.167  10.951
76775SOL    HW132158   6.486  11.226  10.980
76775SOL    HW232159   6.447  11.079  10.974
76776SOL     OW32160  13.668  13.325   7.170
76776SOL    HW132161  13.679  13.338   7.076
76776SOL    HW232162  13.576  13.345   7.187
76777SOL     OW32163   3.855   0.969   0.770
76777SOL    HW132164   3.760   0.976   0.778
76777SOL    HW232165   3.889   1.021   0.843
76778SOL     OW32166   0.170   3.527   0.318
76778SOL    HW132167   0.142   3.580   0.393
76778SOL    HW232168   0.242   3.577   0.279
76779SOL     OW32169  11.460  13.454   6.878
76779SOL    HW132170  11.436  13.510   6.952
76779SOL    HW232171  11.380  13.406   6.857
76780SOL     OW32172  12.071   4.200   2.811
76780SOL    HW132173  12.120   4.267   2.764
76780SOL    HW232174  12.063   4.233   2.900
76781SOL     OW32175   2.469   3.395   8.571
76781SOL    HW132176   2.467   3.472   8.628
76781SOL    HW232177   2.503   3.325   8.627
76782SOL     OW32178   6.082   1.679  10.269
76782SOL    HW132179   5.988   1.690  10.285
76782SOL    HW232180   6.123   1.699  10.353
76783SOL     OW32181  14.657   2.362  14.388
76783SOL    HW132182  14.613   2.405  14.461
76783SOL    HW232183  14.728   2.312  14.428
76784SOL     OW32184   4.234   0.106   1.819
76784SOL    HW132185   4.183   0.050   1.761
76784SOL    HW232186   4.170   0.142   1.880
76785SOL     OW32187   8.874  11.567   5.895
76785SOL    HW132188   8.866  11.478   5.861
76785SOL    HW232189   8.873  11.623   5.818
76786SOL     OW32190  13.710   5.523   1.510
76786SOL    HW132191  13.764   5.452   1.545
76786SOL    HW232192  13.672   5.486   1.429
76787SOL     OW32193   1.969  14.850   3.997
76787SOL    HW132194   1.879  14.846   4.030
76787SOL    HW232195   2.018  14.793   4.056
76788SOL     OW32196  12.739   7.000   9.450
76788SOL    HW132197  12.809   7.029   9.509
76788SOL    HW232198  12.669   6.972   9.508
76789SOL     OW32199   5.385  10.393   6.707
76789SOL    HW132200   5.458  10.439   6.665
76789SOL    HW232201   5.409  10.391   6.800
76790SOL     OW32202   4.841   8.889   0.064
76790SOL    HW132203   4.810   8.836  14.870
76790SOL    HW232204   4.809   8.977   0.045
76791SOL     OW32205   9.059   0.626  14.673
76791SOL    HW132206   9.107   0.697  14.631
76791SOL    HW232207   8.971   0.661  14.687
76792SOL     OW32208   8.023   7.738   9.209
76792SOL    HW132209   7.975   7.655   9.202
76792SOL    HW232210   7.967   7.802   9.164
76793SOL     OW32211   6.041   0.297  11.812
76793SOL    HW132212   6.075   0.302  11.901
76793SOL    HW232213   5.992   0.214  11.810
76794SOL     OW32214   0.175  10.412   7.352
76794SOL    HW132215   0.200  10.457   7.432
76794SOL    HW232216   0.254  10.365   7.325
76795SOL     OW32217   2.625   6.507   9.385
76795SOL    HW132218   2.636   6.471   9.297
76795SOL    HW232219   2.541   6.554   9.381
76796SOL     OW32220   3.076   9.336   8.826
76796SOL    HW132221   3.040   9.289   8.751
76796SOL    HW232222   3.095   9.424   8.793
76797SOL     OW32223  10.079   1.800   2.514
76797SOL    HW132224   9.991   1.780   2.547
76797SOL    HW232225  10.137   1.752   2.573
76798SOL     OW32226   7.442   7.115   6.678
76798SOL    HW132227   7.360   7.160   6.695
76798SOL    HW232228   7.418   7.024   6.661
76799SOL     OW32229   1.402  13.767   8.308
76799SOL    HW132230   1.396  13.727   8.221
76799SOL    HW232231   1.476  13.827   8.302
76800SOL     OW32232   5.927   9.233   0.448
76800SOL    HW132233   5.980   9.311   0.465
76800SOL    HW232234   5.889   9.210   0.533
76801SOL     OW32235   3.092   4.592   5.452
76801SOL    HW132236   3.167   4.644   5.482
76801SOL    HW232237   3.103   4.586   5.357
76802SOL     OW32238   7.203  14.418   1.569
76802SOL    HW132239   7.209  14.503   1.613
76802SOL    HW232240   7.142  14.367   1.623
76803SOL     OW32241   5.899   3.543  12.564
76803SOL    HW132242   5.886   3.539  12.469
76803SOL    HW232243   5.992   3.565  12.574
76804SOL     OW32244  10.676  13.093   0.556
76804SOL    HW132245  10.586  13.066   0.577
76804SOL    HW232246  10.704  13.143   0.633
76805SOL     OW32247  12.984   4.512  13.715
76805SOL    HW132248  12.965   4.592  13.764
76805SOL    HW232249  12.966   4.536  13.624
76806SOL     OW32250   9.024   7.372   6.161
76806SOL    HW132251   9.117   7.358   6.181
76806SOL    HW232252   8.994   7.433   6.228
76807SOL     OW32253   8.085   0.206   9.828
76807SOL    HW132254   8.162   0.215   9.884
76807SOL    HW232255   8.079   0.112   9.809
76808SOL     OW32256  10.763   3.475  10.341
76808SOL    HW132257  10.696   3.407  10.329
76808SOL    HW232258  10.810   3.448  10.420
76809SOL     OW32259  11.330   6.638   2.355
76809SOL    HW132260  11.348   6.631   2.449
76809SOL    HW232261  11.268   6.568   2.338
76810SOL     OW32262   1.037  10.159  10.389
76810SOL    HW132263   0.956  10.139  10.342
76810SOL    HW232264   1.063  10.245  10.357
76811SOL     OW32265   3.978   2.168   2.324
76811SOL    HW132266   4.050   2.197   2.381
76811SOL    HW232267   3.899   2.199   2.369
76812SOL     OW32268   3.613  10.335  12.488
76812SOL    HW132269   3.576  10.255  12.525
76812SOL    HW232270   3.646  10.308  12.402
76813SOL     OW32271   7.349   1.893  10.219
76813SOL    HW132272   7.442   1.892  10.197
76813SOL    HW232273   7.328   1.985  10.233
76814SOL     OW32274   0.391  12.007   2.428
76814SOL    HW132275   0.455  12.029   2.496
76814SOL    HW232276   0.313  12.059   2.450
76815SOL     OW32277  10.781   5.855  13.444
76815SOL    HW132278  10.813   5.785  13.501
76815SOL    HW232279  10.856   5.879  13.390
76816SOL     OW32280   9.783   8.775   0.710
76816SOL    HW132281   9.738   8.851   0.747
76816SOL    HW232282   9.867   8.772   0.756
76817SOL     OW32283   2.228  14.634   0.220
76817SOL    HW132284   2.248  14.635   0.314
76817SOL    HW232285   2.298  14.581   0.182
76818SOL     OW32286  13.880   1.772  12.845
76818SOL    HW132287  13.944   1.843  12.851
76818SOL    HW232288  13.801   1.807  12.885
76819SOL     OW32289   1.205   0.869  12.874
76819SOL    HW132290   1.121   0.906  12.847
76819SOL    HW232291   1.257   0.867  12.793
76820SOL     OW32292   3.944   5.983   1.623
76820SOL    HW132293   3.857   5.961   1.657
76820SOL    HW232294   3.929   6.005   1.531
76821SOL     OW32295   0.882   1.236  13.958
76821SOL    HW132296   0.976   1.221  13.963
76821SOL    HW232297   0.852   1.177  13.889
76822SOL     OW32298   3.771   5.621   4.745
76822SOL    HW132299   3.815   5.646   4.665
76822SOL    HW232300   3.774   5.699   4.801
76823SOL     OW32301   3.779   1.864  14.793
76823SOL    HW132302   3.787   1.858   0.009
76823SOL    HW232303   3.756   1.955  14.775
76824SOL     OW32304   8.698  14.037   4.482
76824SOL    HW132305   8.660  13.995   4.560
76824SOL    HW232306   8.739  14.116   4.516
76825SOL     OW32307  10.168   8.174  14.730
76825SOL    HW132308  10.116   8.235  14.676
76825SOL    HW232309  10.142   8.193  14.820
76826SOL     OW32310   1.810   9.067   9.255
76826SOL    HW132311   1.736   9.128   9.249
76826SOL    HW232312   1.867   9.106   9.320
76827SOL     OW32313   2.722   6.731   4.938
76827SOL    HW132314   2.725   6.826   4.946
76827SOL    HW232315   2.678   6.716   4.854
76828SOL     OW32316  12.871   6.106   5.769
76828SOL    HW132317  12.957   6.105   5.809
76828SOL    HW232318  12.827   6.182   5.806
76829SOL     OW32319   5.243  14.730  14.252
76829SOL    HW132320   5.162  14.683  14.272
76829SOL    HW232321   5.301  14.663  14.216
76830SOL     OW32322   7.505   9.313   0.039
76830SOL    HW132323   7.412   9.299   0.020
76830SOL    HW232324   7.505   9.359   0.123
76831SOL     OW32325  13.625   7.456  11.052
76831SOL    HW132326  13.626   7.361  11.057
76831SOL    HW232327  13.623   7.475  10.958
76832SOL     OW32328   3.369   6.138  12.978
76832SOL    HW132329   3.369   6.082  12.901
76832SOL    HW232330   3.349   6.225  12.944
76833SOL     OW32331   4.629  10.524   1.957
76833SOL    HW132332   4.616  10.433   1.927
76833SOL    HW232333   4.591  10.577   1.888
76834SOL     OW32334  13.906  13.965  11.059
76834SOL    HW132335  13.844  13.937  10.992
76834SOL    HW232336  13.858  13.952  11.141
76835SOL     OW32337   4.979  13.858   7.578
76835SOL    HW132338   5.043  13.926   7.558
76835SOL    HW232339   4.897  13.906   7.593
76836SOL     OW32340   0.287   0.919   0.417
76836SOL    HW132341   0.242   0.937   0.499
76836SOL    HW232342   0.233   0.853   0.374
76837SOL     OW32343   3.240   3.823   3.841
76837SOL    HW132344   3.264   3.829   3.933
76837SOL    HW232345   3.222   3.913   3.814
76838SOL     OW32346  12.143   9.987  12.484
76838SOL    HW132347  12.177   9.901  12.507
76838SOL    HW232348  12.048   9.976  12.484
76839SOL     OW32349   5.648   8.839   1.943
76839SOL    HW132350   5.654   8.862   1.850
76839SOL    HW232351   5.559   8.806   1.954
76840SOL     OW32352  12.538  14.744  13.094
76840SOL    HW132353  12.448  14.748  13.127
76840SOL    HW232354  12.549  14.825  13.044
76841SOL     OW32355  13.283   6.738  13.133
76841SOL    HW132356  13.294   6.776  13.046
76841SOL    HW232357  13.323   6.651  13.126
76842SOL     OW32358   1.117   5.100   2.341
76842SOL    HW132359   1.196   5.082   2.393
76842SOL    HW232360   1.143   5.171   2.282
76843SOL     OW32361   0.550  11.686  14.773
76843SOL    HW132362   0.500  11.686  14.855
76843SOL    HW232363   0.641  11.690  14.802
76844SOL     OW32364   6.243   9.982  14.521
76844SOL    HW132365   6.309  10.035  14.566
76844SOL    HW232366   6.264   9.990  14.428
76845SOL     OW32367   3.578  14.360  13.666
76845SOL    HW132368   3.589  14.418  13.741
76845SOL    HW232369   3.593  14.416  13.589
76846SOL     OW32370   3.044  12.373  12.619
76846SOL    HW132371   3.074  12.442  12.678
76846SOL    HW232372   3.022  12.418  12.538
76847SOL     OW32373   9.868   4.075   2.172
76847SOL    HW132374   9.795   4.031   2.217
76847SOL    HW232375   9.871   4.034   2.085
76848SOL     OW32376   3.538   3.667  10.732
76848SOL    HW132377   3.452   3.693  10.700
76848SOL    HW232378   3.520   3.622  10.814
76849SOL     OW32379   2.592   1.880  10.667
76849SOL    HW132380   2.503   1.871  10.633
76849SOL    HW232381   2.646   1.833  10.603
76850SOL     OW32382   0.256   9.995  12.584
76850SOL    HW132383   0.206  10.068  12.619
76850SOL    HW232384   0.227   9.919  12.635
76851SOL     OW32385   0.676   8.643   2.465
76851SOL    HW132386   0.595   8.612   2.425
76851SOL    HW232387   0.646   8.702   2.535
76852SOL     OW32388  13.484  14.137   2.082
76852SOL    HW132389  13.528  14.068   2.132
76852SOL    HW232390  13.536  14.147   2.003
76853SOL     OW32391   4.636  12.793   5.321
76853SOL    HW132392   4.600  12.730   5.260
76853SOL    HW232393   4.603  12.878   5.290
76854SOL     OW32394  12.814   1.630  11.061
76854SOL    HW132395  12.861   1.561  11.108
76854SOL    HW232396  12.746   1.659  11.122
76855SOL     OW32397  12.671  12.700  11.417
76855SOL    HW132398  12.632  12.622  11.457
76855SOL    HW232399  12.765  12.691  11.434
76856SOL     OW32400   0.291  10.110   5.294
76856SOL    HW132401   0.340  10.130   5.374
76856SOL    HW232402   0.359  10.086   5.230
76857SOL     OW32403  13.624   4.201   3.836
76857SOL    HW132404  13.608   4.184   3.929
76857SOL    HW232405  13.648   4.116   3.800
76858SOL     OW32406  12.114   9.286  10.421
76858SOL    HW132407  12.125   9.379  10.404
76858SOL    HW232408  12.020   9.274  10.432
76859SOL     OW32409   7.374   9.077   2.650
76859SOL    HW132410   7.294   9.126   2.667
76859SOL    HW232411   7.444   9.139   2.669
76860SOL     OW32412  11.155  10.809   8.369
76860SOL    HW132413  11.168  10.743   8.437
76860SOL    HW232414  11.131  10.759   8.291
76861SOL     OW32415   2.754   1.240   0.287
76861SOL    HW132416   2.709   1.156   0.279
76861SOL    HW232417   2.836   1.219   0.332
76862SOL     OW32418   4.289   3.705   2.324
76862SOL    HW132419   4.203   3.728   2.290
76862SOL    HW232420   4.285   3.610   2.336
76863SOL     OW32421   6.310  12.106   0.331
76863SOL    HW132422   6.328  12.200   0.331
76863SOL    HW232423   6.230  12.097   0.280
76864SOL     OW32424  14.710   9.642   3.865
76864SOL    HW132425  14.657   9.721   3.858
76864SOL    HW232426  14.763   9.655   3.944
76865SOL     OW32427   8.929   6.003   3.644
76865SOL    HW132428   8.991   5.939   3.679
76865SOL    HW232429   8.977   6.085   3.643
76866SOL     OW32430   8.583   8.418   9.516
76866SOL    HW132431   8.596   8.396   9.608
76866SOL    HW232432   8.672   8.426   9.480
76867SOL     OW32433   5.542  12.151   9.916
76867SOL    HW132434   5.544  12.196  10.001
76867SOL    HW232435   5.568  12.061   9.936
76868SOL     OW32436   0.483  13.157   3.928
76868SOL    HW132437   0.571  13.167   3.966
76868SOL    HW232438   0.432  13.116   3.997
76869SOL     OW32439  14.470  12.529  13.641
76869SOL    HW132440  14.559  12.549  13.612
76869SOL    HW232441  14.416  12.545  13.563
76870SOL     OW32442  14.784   5.283   2.552
76870SOL    HW132443  14.723   5.335   2.606
76870SOL    HW232444  14.780   5.323   2.466
76871SOL     OW32445   8.852  11.831  13.321
76871SOL    HW132446   8.852  11.852  13.227
76871SOL    HW232447   8.939  11.858  13.351
76872SOL     OW32448  10.637   0.656   7.041
76872SOL    HW132449  10.713   0.616   7.085
76872SOL    HW232450  10.567   0.652   7.106
76873SOL     OW32451  11.414   7.980  10.755
76873SOL    HW132452  11.430   8.073  10.743
76873SOL    HW232453  11.321   7.974  10.777
76874SOL     OW32454  12.339   4.288   4.026
76874SOL    HW132455  12.348   4.366   4.080
76874SOL    HW232456  12.343   4.321   3.936
76875SOL     OW32457   8.383   1.463   2.910
76875SOL    HW132458   8.376   1.485   2.817
76875SOL    HW232459   8.465   1.416   2.918
76876SOL     OW32460   7.411  11.048  11.262
76876SOL    HW132461   7.379  10.976  11.317
76876SOL    HW232462   7.463  11.005  11.194
76877SOL     OW32463   3.714   8.174   1.712
76877SOL    HW132464   3.681   8.263   1.724
76877SOL    HW232465   3.640   8.127   1.673
76878SOL     OW32466  13.197  13.473   0.420
76878SOL    HW132467  13.287  13.448   0.436
76878SOL    HW232468  13.145  13.399   0.452
76879SOL     OW32469   0.595   8.930  13.286
76879SOL    HW132470   0.592   8.942  13.381
76879SOL    HW232471   0.591   8.835  13.274
76880SOL     OW32472   9.553   8.588   3.068
76880SOL    HW132473   9.608   8.567   3.144
76880SOL    HW232474   9.468   8.611   3.106
76881SOL     OW32475   0.851   1.669  11.019
76881SOL    HW132476   0.762   1.657  11.054
76881SOL    HW232477   0.841   1.738  10.953
76882SOL     OW32478   6.645   5.195  11.604
76882SOL    HW132479   6.618   5.124  11.661
76882SOL    HW232480   6.740   5.193  11.606
76883SOL     OW32481  10.467   7.791  13.040
76883SOL    HW132482  10.494   7.833  12.959
76883SOL    HW232483  10.480   7.697  13.024
76884SOL     OW32484  11.780   1.843   0.076
76884SOL    HW132485  11.770   1.870   0.167
76884SOL    HW232486  11.695   1.807   0.052
76885SOL     OW32487  14.014  13.578   7.233
76885SOL    HW132488  14.031  13.485   7.251
76885SOL    HW232489  13.965  13.608   7.310
76886SOL     OW32490   8.613   7.533  13.715
76886SOL    HW132491   8.640   7.442  13.713
76886SOL    HW232492   8.633   7.566  13.628
76887SOL     OW32493   3.252  11.982   8.016
76887SOL    HW132494   3.168  12.011   8.049
76887SOL    HW232495   3.315  12.007   8.083
76888SOL     OW32496   1.131   6.467   5.839
76888SOL    HW132497   1.192   6.493   5.770
76888SOL    HW232498   1.186   6.434   5.910
76889SOL     OW32499  12.945   0.859  14.726
76889SOL    HW132500  12.938   0.818  14.640
76889SOL    HW232501  13.039   0.872  14.740
76890SOL     OW32502   3.699   6.471   9.718
76890SOL    HW132503   3.757   6.526   9.771
76890SOL    HW232504   3.617   6.521   9.715
76891SOL     OW32505  10.261  11.021   8.110
76891SOL    HW132506  10.172  11.012   8.077
76891SOL    HW232507  10.287  11.110   8.085
76892SOL     OW32508   8.898  12.792  12.473
76892SOL    HW132509   8.833  12.823  12.411
76892SOL    HW232510   8.854  12.797  12.558
76893SOL     OW32511  11.401   9.910   4.819
76893SOL    HW132512  11.443   9.918   4.733
76893SOL    HW232513  11.340   9.837   4.809
76894SOL     OW32514   2.937   3.402  11.474
76894SOL    HW132515   2.917   3.423  11.565
76894SOL    HW232516   2.926   3.484  11.427
76895SOL     OW32517   6.985   9.893   2.713
76895SOL    HW132518   7.065   9.914   2.665
76895SOL    HW232519   6.914   9.928   2.659
76896SOL     OW32520   3.928   4.741   2.133
76896SOL    HW132521   4.016   4.777   2.145
76896SOL    HW232522   3.894   4.786   2.056
76897SOL     OW32523   6.692  12.674   2.911
76897SOL    HW132524   6.786  12.688   2.907
76897SOL    HW232525   6.674  12.610   2.843
76898SOL     OW32526  13.917   3.718   9.438
76898SOL    HW132527  13.983   3.749   9.500
76898SOL    HW232528  13.865   3.655   9.488
76899SOL     OW32529   1.617   7.659   3.060
76899SOL    HW132530   1.547   7.597   3.038
76899SOL    HW232531   1.628   7.650   3.155
76900SOL     OW32532  13.267   2.462   4.390
76900SOL    HW132533  13.259   2.550   4.427
76900SOL    HW232534  13.337   2.469   4.326
76901SOL     OW32535   3.371   3.874   6.992
76901SOL    HW132536   3.374   3.778   6.992
76901SOL    HW232537   3.295   3.895   7.047
76902SOL     OW32538  13.666   8.313  14.237
76902SOL    HW132539  13.627   8.397  14.264
76902SOL    HW232540  13.760   8.330  14.239
76903SOL     OW32541  12.837   6.076   8.948
76903SOL    HW132542  12.810   6.093   8.858
76903SOL    HW232543  12.755   6.063   8.996
76904SOL     OW32544  12.449  10.156   7.147
76904SOL    HW132545  12.355  10.136   7.143
76904SOL    HW232546  12.470  10.155   7.240
76905SOL     OW32547   6.963  10.783   5.753
76905SOL    HW132548   6.993  10.846   5.818
76905SOL    HW232549   6.875  10.813   5.729
76906SOL     OW32550   5.217  12.748   9.910
76906SOL    HW132551   5.187  12.681   9.972
76906SOL    HW232552   5.240  12.700   9.831
76907SOL     OW32553   7.106   2.908   0.005
76907SOL    HW132554   7.037   2.957   0.049
76907SOL    HW232555   7.099   2.934  14.792
76908SOL     OW32556   8.132   1.391   3.573
76908SOL    HW132557   8.176   1.459   3.624
76908SOL    HW232558   8.109   1.435   3.491
76909SOL     OW32559  11.576  11.088   7.535
76909SOL    HW132560  11.502  11.029   7.544
76909SOL    HW232561  11.578  11.110   7.442
76910SOL     OW32562  11.981   3.749   6.630
76910SOL    HW132563  12.036   3.756   6.708
76910SOL    HW232564  11.942   3.662   6.636
76911SOL     OW32565   7.873  12.359  13.333
76911SOL    HW132566   7.819  12.355  13.412
76911SOL    HW232567   7.837  12.432  13.283
76912SOL     OW32568  12.225   8.283   3.921
76912SOL    HW132569  12.192   8.194   3.909
76912SOL    HW232570  12.227   8.295   4.016
76913SOL     OW32571   0.666   5.390   0.195
76913SOL    HW132572   0.736   5.330   0.221
76913SOL    HW232573   0.700   5.477   0.216
76914SOL     OW32574   9.299   0.718  12.277
76914SOL    HW132575   9.249   0.638  12.260
76914SOL    HW232576   9.291   0.769  12.197
76915SOL     OW32577   8.308  13.182   1.344
76915SOL    HW132578   8.307  13.128   1.265
76915SOL    HW232579   8.304  13.119   1.416
76916SOL     OW32580  12.287   9.988   2.180
76916SOL    HW132581  12.268   9.997   2.273
76916SOL    HW232582  12.380  10.006   2.172
76917SOL     OW32583   0.919   8.224   7.466
76917SOL    HW132584   0.974   8.244   7.390
76917SOL    HW232585   0.911   8.129   7.466
76918SOL     OW32586   8.207   9.612   5.635
76918SOL    HW132587   8.247   9.527   5.617
76918SOL    HW232588   8.245   9.671   5.570
76919SOL     OW32589  11.470   0.024   9.674
76919SOL    HW132590  11.399  14.843   9.652
76919SOL    HW232591  11.505  14.869   9.757
76920SOL     OW32592   7.276  10.570   5.512
76920SOL    HW132593   7.316  10.585   5.598
76920SOL    HW232594   7.275  10.657   5.471
76921SOL     OW32595  10.450   2.180   0.172
76921SOL    HW132596  10.410   2.258   0.134
76921SOL    HW232597  10.489   2.135   0.097
76922SOL     OW32598  13.271  14.631   7.695
76922SOL    HW132599  13.278  14.569   7.767
76922SOL    HW232600  13.213  14.700   7.728
76923SOL     OW32601  14.619  13.341  12.272
76923SOL    HW132602  14.617  13.427  12.313
76923SOL    HW232603  14.527  13.315  12.266
76924SOL     OW32604   5.406  12.800   6.127
76924SOL    HW132605   5.399  12.722   6.182
76924SOL    HW232606   5.389  12.768   6.038
76925SOL     OW32607  12.361   7.869   7.884
76925SOL    HW132608  12.389   7.778   7.884
76925SOL    HW232609  12.320   7.882   7.969
76926SOL     OW32610   8.495   1.077   0.558
76926SOL    HW132611   8.420   1.137   0.551
76926SOL    HW232612   8.459   0.998   0.598
76927SOL     OW32613  13.766   8.754   6.733
76927SOL    HW132614  13.788   8.835   6.687
76927SOL    HW232615  13.824   8.752   6.809
76928SOL     OW32616   8.533  14.478   0.372
76928SOL    HW132617   8.584  14.405   0.339
76928SOL    HW232618   8.554  14.551   0.314
76929SOL     OW32619   5.064   9.133  12.132
76929SOL    HW132620   4.980   9.096  12.159
76929SOL    HW232621   5.060   9.134  12.036
76930SOL     OW32622   7.994   3.962  11.336
76930SOL    HW132623   7.919   3.931  11.386
76930SOL    HW232624   7.987   3.916  11.252
76931SOL     OW32625  14.356  10.419  12.128
76931SOL    HW132626  14.291  10.365  12.173
76931SOL    HW232627  14.305  10.486  12.083
76932SOL     OW32628  14.870   4.897   6.632
76932SOL    HW132629   0.037   4.978   6.655
76932SOL    HW232630   0.057   4.828   6.640
76933SOL     OW32631  14.656   3.888   1.021
76933SOL    HW132632  14.718   3.871   1.092
76933SOL    HW232633  14.695   3.847   0.944
76934SOL     OW32634   0.003   2.932  12.895
76934SOL    HW132635   0.066   2.871  12.855
76934SOL    HW232636   0.054   2.980  12.960
76935SOL     OW32637   9.479   5.512   3.629
76935SOL    HW132638   9.574   5.525   3.632
76935SOL    HW232639   9.444   5.596   3.600
76936SOL     OW32640   4.113   7.883  14.618
76936SOL    HW132641   4.126   7.844  14.704
76936SOL    HW232642   4.092   7.808  14.561
76937SOL     OW32643   2.991   1.007   1.573
76937SOL    HW132644   2.993   1.096   1.537
76937SOL    HW232645   2.965   0.951   1.500
76938SOL     OW32646   0.870   5.374   9.044
76938SOL    HW132647   0.949   5.339   9.085
76938SOL    HW232648   0.812   5.298   9.034
76939SOL     OW32649   6.915  13.514   0.547
76939SOL    HW132650   6.959  13.429   0.549
76939SOL    HW232651   6.826  13.495   0.574
76940SOL     OW32652  13.709   3.850  12.345
76940SOL    HW132653  13.705   3.909  12.421
76940SOL    HW232654  13.747   3.769  12.379
76941SOL     OW32655   2.279  12.714  10.461
76941SOL    HW132656   2.305  12.755  10.543
76941SOL    HW232657   2.219  12.777  10.421
76942SOL     OW32658   7.877   9.546  11.413
76942SOL    HW132659   7.846   9.455  11.412
76942SOL    HW232660   7.910   9.559  11.502
76943SOL     OW32661   0.676   1.955   8.478
76943SOL    HW132662   0.612   1.971   8.409
76943SOL    HW232663   0.680   2.038   8.527
76944SOL     OW32664   8.854   5.727   0.146
76944SOL    HW132665   8.874   5.662   0.214
76944SOL    HW232666   8.916   5.798   0.161
76945SOL     OW32667   0.111  12.791   2.782
76945SOL    HW132668   0.175  12.738   2.830
76945SOL    HW232669   0.143  12.792   2.692
76946SOL     OW32670  10.855  13.000   4.044
76946SOL    HW132671  10.945  13.032   4.038
76946SOL    HW232672  10.804  13.077   4.069
76947SOL     OW32673  12.967   7.535  11.263
76947SOL    HW132674  12.926   7.544  11.178
76947SOL    HW232675  12.898   7.555  11.326
76948SOL     OW32676   8.870   0.511  13.062
76948SOL    HW132677   8.959   0.537  13.037
76948SOL    HW232678   8.883   0.436  13.121
76949SOL     OW32679  13.448   6.608   5.061
76949SOL    HW132680  13.404   6.630   4.979
76949SOL    HW232681  13.377   6.605   5.126
76950SOL     OW32682  14.486  12.903   7.213
76950SOL    HW132683  14.453  12.815   7.194
76950SOL    HW232684  14.408  12.959   7.211
76951SOL     OW32685   8.981   7.079   9.821
76951SOL    HW132686   8.963   7.168   9.852
76951SOL    HW232687   9.064   7.056   9.862
76952SOL     OW32688  12.254   9.855  13.023
76952SOL    HW132689  12.288   9.793  13.087
76952SOL    HW232690  12.177   9.812  12.986
76953SOL     OW32691  10.003   8.128  13.845
76953SOL    HW132692  10.021   8.074  13.768
76953SOL    HW232693  10.049   8.083  13.916
76954SOL     OW32694   8.681   6.979   9.542
76954SOL    HW132695   8.689   7.034   9.464
76954SOL    HW232696   8.599   6.931   9.528
76955SOL     OW32697   8.311   8.569   6.445
76955SOL    HW132698   8.343   8.571   6.355
76955SOL    HW232699   8.266   8.484   6.453
76956SOL     OW32700   6.103   1.871   7.072
76956SOL    HW132701   6.084   1.899   7.162
76956SOL    HW232702   6.168   1.801   7.082
76957SOL     OW32703   9.052   6.012  13.911
76957SOL    HW132704   9.095   5.960  13.979
76957SOL    HW232705   9.038   6.098  13.952
76958SOL     OW32706  10.306   8.799  14.342
76958SOL    HW132707  10.262   8.742  14.405
76958SOL    HW232708  10.302   8.886  14.382
76959SOL     OW32709   2.550  11.018   9.061
76959SOL    HW132710   2.514  10.939   9.100
76959SOL    HW232711   2.499  11.032   8.982
76960SOL     OW32712   2.075   1.910  14.664
76960SOL    HW132713   2.160   1.903  14.620
76960SOL    HW232714   2.025   1.834  14.634
76961SOL     OW32715   1.174  13.102   4.330
76961SOL    HW132716   1.215  13.020   4.357
76961SOL    HW232717   1.217  13.169   4.383
76962SOL     OW32718   1.211  12.510   2.885
76962SOL    HW132719   1.122  12.495   2.919
76962SOL    HW232720   1.201  12.514   2.790
76963SOL     OW32721   6.675   9.483   8.452
76963SOL    HW132722   6.666   9.442   8.366
76963SOL    HW232723   6.620   9.431   8.510
76964SOL     OW32724   0.850  10.058   5.742
76964SOL    HW132725   0.773  10.009   5.712
76964SOL    HW232726   0.832  10.149   5.718
76965SOL     OW32727  10.100  14.576   3.205
76965SOL    HW132728  10.033  14.517   3.171
76965SOL    HW232729  10.176  14.562   3.149
76966SOL     OW32730   4.102   7.645  14.445
76966SOL    HW132731   4.131   7.686  14.364
76966SOL    HW232732   4.158   7.568  14.454
76967SOL     OW32733  10.664   6.393  11.770
76967SOL    HW132734  10.575   6.422  11.790
76967SOL    HW232735  10.720   6.448  11.824
76968SOL     OW32736  10.305  13.658  14.277
76968SOL    HW132737  10.364  13.617  14.340
76968SOL    HW232738  10.227  13.602  14.278
76969SOL     OW32739   1.850   5.767  11.519
76969SOL    HW132740   1.886   5.849  11.553
76969SOL    HW232741   1.876   5.765  11.427
76970SOL     OW32742  14.777   4.487   2.744
76970SOL    HW132743  14.780   4.400   2.705
76970SOL    HW232744  14.696   4.489   2.794
76971SOL     OW32745  10.597   2.497  12.374
76971SOL    HW132746  10.551   2.421  12.408
76971SOL    HW232747  10.565   2.507  12.284
76972SOL     OW32748   0.842   3.805  14.514
76972SOL    HW132749   0.752   3.839  14.519
76972SOL    HW232750   0.852   3.754  14.595
76973SOL     OW32751   2.444  11.182   6.255
76973SOL    HW132752   2.430  11.243   6.327
76973SOL    HW232753   2.504  11.116   6.291
76974SOL     OW32754   6.501   5.524   8.729
76974SOL    HW132755   6.460   5.601   8.767
76974SOL    HW232756   6.463   5.450   8.777
76975SOL     OW32757   9.038  12.604   2.197
76975SOL    HW132758   9.103  12.603   2.268
76975SOL    HW232759   9.089  12.619   2.118
76976SOL     OW32760   0.782   3.991   7.126
76976SOL    HW132761   0.723   4.047   7.176
76976SOL    HW232762   0.845   4.052   7.088
76977SOL     OW32763   7.810  10.492   0.677
76977SOL    HW132764   7.746  10.506   0.607
76977SOL    HW232765   7.870  10.426   0.642
76978SOL     OW32766   9.948  14.275  13.655
76978SOL    HW132767  10.019  14.329  13.621
76978SOL    HW232768   9.927  14.214  13.585
76979SOL     OW32769   4.886  14.278   7.343
76979SOL    HW132770   4.932  14.229   7.275
76979SOL    HW232771   4.887  14.368   7.313
76980SOL     OW32772   9.550   1.230  11.498
76980SOL    HW132773   9.471   1.260  11.453
76980SOL    HW232774   9.620   1.284  11.463
76981SOL     OW32775  13.760   7.718   4.914
76981SOL    HW132776  13.832   7.664   4.885
76981SOL    HW232777  13.699   7.657   4.955
76982SOL     OW32778  12.528   1.516   9.180
76982SOL    HW132779  12.475   1.450   9.135
76982SOL    HW232780  12.529   1.590   9.119
76983SOL     OW32781   8.313   6.066  12.501
76983SOL    HW132782   8.403   6.041  12.483
76983SOL    HW232783   8.260   5.998  12.459
76984SOL     OW32784  11.937  13.582  14.383
76984SOL    HW132785  12.032  13.568  14.377
76984SOL    HW232786  11.929  13.674  14.408
76985SOL     OW32787   3.721   0.515   7.463
76985SOL    HW132788   3.670   0.576   7.516
76985SOL    HW232789   3.769   0.570   7.402
76986SOL     OW32790   4.448   4.637   1.261
76986SOL    HW132791   4.452   4.730   1.284
76986SOL    HW232792   4.371   4.630   1.204
76987SOL     OW32793   7.471   8.082   7.126
76987SOL    HW132794   7.545   8.032   7.160
76987SOL    HW232795   7.402   8.070   7.191
76988SOL     OW32796  10.746   5.620   2.929
76988SOL    HW132797  10.724   5.562   3.002
76988SOL    HW232798  10.815   5.575   2.881
76989SOL     OW32799   3.196   9.124   8.463
76989SOL    HW132800   3.102   9.116   8.479
76989SOL    HW232801   3.203   9.192   8.396
76990SOL     OW32802   4.234   7.665   2.140
76990SOL    HW132803   4.259   7.628   2.225
76990SOL    HW232804   4.160   7.723   2.160
76991SOL     OW32805   5.995   6.055   5.491
76991SOL    HW132806   5.989   6.094   5.403
76991SOL    HW232807   6.088   6.057   5.512
76992SOL     OW32808  13.923  12.330   1.508
76992SOL    HW132809  13.839  12.302   1.544
76992SOL    HW232810  13.977  12.251   1.509
76993SOL     OW32811   4.370   4.565   2.596
76993SOL    HW132812   4.466   4.565   2.598
76993SOL    HW232813   4.347   4.656   2.578
76994SOL     OW32814   0.474   5.228   5.474
76994SOL    HW132815   0.530   5.150   5.476
76994SOL    HW232816   0.517   5.287   5.413
76995SOL     OW32817   7.982   5.705   5.180
76995SOL    HW132818   8.077   5.721   5.179
76995SOL    HW232819   7.969   5.645   5.254
76996SOL     OW32820   3.470   0.030   4.632
76996SOL    HW132821   3.548   0.053   4.581
76996SOL    HW232822   3.453  14.818   4.610
76997SOL     OW32823   4.029   7.227   5.612
76997SOL    HW132824   3.956   7.289   5.618
76997SOL    HW232825   3.996   7.158   5.554
76998SOL     OW32826   2.895   7.811   8.153
76998SOL    HW132827   2.983   7.845   8.169
76998SOL    HW232828   2.888   7.806   8.058
76999SOL     OW32829   5.978   8.514   1.667
76999SOL    HW132830   5.972   8.607   1.646
76999SOL    HW232831   5.890   8.480   1.650
77000SOL     OW32832  14.285   0.618   8.403
77000SOL    HW132833  14.379   0.628   8.385
77000SOL    HW232834  14.281   0.551   8.471
77001SOL     OW32835   4.922   3.642   0.906
77001SOL    HW132836   4.953   3.559   0.943
77001SOL    HW232837   4.836   3.621   0.870
77002SOL     OW32838   0.546  13.568  11.694
77002SOL    HW132839   0.509  13.656  11.695
77002SOL    HW232840   0.542  13.541  11.602
77003SOL     OW32841   9.615   5.274  10.737
77003SOL    HW132842   9.615   5.225  10.819
77003SOL    HW232843   9.704   5.308  10.729
77004SOL     OW32844   5.533   1.372   8.272
77004SOL    HW132845   5.527   1.326   8.189
77004SOL    HW232846   5.447   1.414   8.283
77005SOL     OW32847   0.685   4.162  10.465
77005SOL    HW132848   0.662   4.151  10.558
77005SOL    HW232849   0.769   4.207  10.466
77006SOL     OW32850   7.374  13.582   3.363
77006SOL    HW132851   7.444  13.572   3.428
77006SOL    HW232852   7.298  13.539   3.403
77007SOL     OW32853   5.858   7.043   7.160
77007SOL    HW132854   5.824   7.067   7.074
77007SOL    HW232855   5.943   7.002   7.141
77008SOL     OW32856   5.569  10.007  12.976
77008SOL    HW132857   5.650  10.058  12.979
77008SOL    HW232858   5.595   9.924  12.935
77009SOL     OW32859   7.917   8.050   9.792
77009SOL    HW132860   7.874   8.031   9.708
77009SOL    HW232861   7.992   7.991   9.795
77010SOL     OW32862  10.035  13.093   9.655
77010SOL    HW132863  10.016  13.185   9.675
77010SOL    HW232864  10.001  13.080   9.567
77011SOL     OW32865   2.687   8.512  13.039
77011SOL    HW132866   2.783   8.511  13.034
77011SOL    HW232867   2.660   8.541  12.951
77012SOL     OW32868  11.387   2.485   0.099
77012SOL    HW132869  11.308   2.441   0.132
77012SOL    HW232870  11.354   2.543   0.030
77013SOL     OW32871  14.005   4.890  12.920
77013SOL    HW132872  13.984   4.874  12.828
77013SOL    HW232873  13.961   4.821  12.968
77014SOL     OW32874   2.251   6.461  11.821
77014SOL    HW132875   2.266   6.552  11.795
77014SOL    HW232876   2.239   6.465  11.916
77015SOL     OW32877   2.246   6.166   4.544
77015SOL    HW132878   2.195   6.215   4.480
77015SOL    HW232879   2.182   6.138   4.610
77016SOL     OW32880  11.314   1.663   5.578
77016SOL    HW132881  11.326   1.611   5.499
77016SOL    HW232882  11.297   1.598   5.647
77017SOL     OW32883   8.887  14.481   7.927
77017SOL    HW132884   8.881  14.576   7.928
77017SOL    HW232885   8.807  14.451   7.970
77018SOL     OW32886  11.818  10.806   0.418
77018SOL    HW132887  11.855  10.731   0.463
77018SOL    HW232888  11.891  10.841   0.366
77019SOL     OW32889  14.334   4.666   1.673
77019SOL    HW132890  14.382   4.688   1.593
77019SOL    HW232891  14.401   4.637   1.734
77020SOL     OW32892   8.021   3.993   8.705
77020SOL    HW132893   8.111   4.025   8.705
77020SOL    HW232894   7.977   4.045   8.637
77021SOL     OW32895  12.970  11.063  14.417
77021SOL    HW132896  12.959  11.152  14.383
77021SOL    HW232897  12.913  11.009  14.362
77022SOL     OW32898   6.483   7.658  12.352
77022SOL    HW132899   6.451   7.685  12.266
77022SOL    HW232900   6.432   7.710  12.414
77023SOL     OW32901   0.299   1.621   7.088
77023SOL    HW132902   0.278   1.528   7.087
77023SOL    HW232903   0.374   1.629   7.146
77024SOL     OW32904   6.251  13.253   4.052
77024SOL    HW132905   6.279  13.342   4.034
77024SOL    HW232906   6.302  13.199   3.991
77025SOL     OW32907   8.894  13.223   2.971
77025SOL    HW132908   8.889  13.180   3.057
77025SOL    HW232909   8.929  13.310   2.991
77026SOL     OW32910  13.689  14.174   0.005
77026SOL    HW132911  13.754  14.104   0.001
77026SOL    HW232912  13.695  14.209   0.094
77027SOL     OW32913   1.857  10.033   3.418
77027SOL    HW132914   1.772  10.052   3.456
77027SOL    HW232915   1.880  10.113   3.369
77028SOL     OW32916  10.120   3.149   9.041
77028SOL    HW132917  10.105   3.240   9.067
77028SOL    HW232918  10.100   3.147   8.948
77029SOL     OW32919   0.532  11.472  13.151
77029SOL    HW132920   0.538  11.462  13.246
77029SOL    HW232921   0.599  11.536  13.129
77030SOL     OW32922  10.846   7.538   1.273
77030SOL    HW132923  10.825   7.631   1.276
77030SOL    HW232924  10.858   7.513   1.365
77031SOL     OW32925   7.997   9.139   3.881
77031SOL    HW132926   7.995   9.052   3.922
77031SOL    HW232927   8.077   9.179   3.915
77032SOL     OW32928   3.662   4.794  13.916
77032SOL    HW132929   3.638   4.724  13.977
77032SOL    HW232930   3.757   4.803  13.927
77033SOL     OW32931  10.903   1.270  10.667
77033SOL    HW132932  10.985   1.230  10.696
77033SOL    HW232933  10.887   1.340  10.732
77034SOL     OW32934   6.236   5.290   9.976
77034SOL    HW132935   6.165   5.354   9.975
77034SOL    HW232936   6.204   5.220  10.034
77035SOL     OW32937  11.769  13.911   2.949
77035SOL    HW132938  11.759  13.866   2.864
77035SOL    HW232939  11.782  13.840   3.012
77036SOL     OW32940  12.669   9.880  12.606
77036SOL    HW132941  12.657   9.786  12.623
77036SOL    HW232942  12.678   9.919  12.693
77037SOL     OW32943   7.382  10.474   8.251
77037SOL    HW132944   7.342  10.420   8.318
77037SOL    HW232945   7.357  10.564   8.274
77038SOL     OW32946   5.874   2.988   8.240
77038SOL    HW132947   5.818   2.941   8.301
77038SOL    HW232948   5.852   3.080   8.251
77039SOL     OW32949  12.697   7.019  12.799
77039SOL    HW132950  12.679   6.950  12.864
77039SOL    HW232951  12.733   7.091  12.851
77040SOL     OW32952   9.120   8.813  13.647
77040SOL    HW132953   9.138   8.839  13.556
77040SOL    HW232954   9.187   8.749  13.668
77041SOL     OW32955  14.146  13.462   3.057
77041SOL    HW132956  14.089  13.455   2.980
77041SOL    HW232957  14.101  13.413   3.125
77042SOL     OW32958   3.668   9.532   9.677
77042SOL    HW132959   3.661   9.619   9.718
77042SOL    HW232960   3.646   9.547   9.585
77043SOL     OW32961   3.458   2.976   3.197
77043SOL    HW132962   3.412   2.903   3.238
77043SOL    HW232963   3.427   3.053   3.243
77044SOL     OW32964   7.794   8.566   8.417
77044SOL    HW132965   7.762   8.642   8.466
77044SOL    HW232966   7.754   8.491   8.461
77045SOL     OW32967   2.830   9.870   1.080
77045SOL    HW132968   2.744   9.832   1.062
77045SOL    HW232969   2.889   9.795   1.084
77046SOL     OW32970  11.482   6.037  12.387
77046SOL    HW132971  11.484   6.045  12.292
77046SOL    HW232972  11.535   5.959  12.406
77047SOL     OW32973  13.129   8.805  14.408
77047SOL    HW132974  13.037   8.784  14.420
77047SOL    HW232975  13.146   8.878  14.467
77048SOL     OW32976   8.162  13.097   9.553
77048SOL    HW132977   8.243  13.048   9.550
77048SOL    HW232978   8.185  13.183   9.517
77049SOL     OW32979   1.775   4.383   7.378
77049SOL    HW132980   1.762   4.415   7.288
77049SOL    HW232981   1.700   4.326   7.394
77050SOL     OW32982   8.209  10.378  12.133
77050SOL    HW132983   8.155  10.342  12.204
77050SOL    HW232984   8.146  10.404  12.066
77051SOL     OW32985  13.002   6.859   9.929
77051SOL    HW132986  13.040   6.785   9.881
77051SOL    HW232987  12.914   6.831   9.950
77052SOL     OW32988  12.329   4.647  12.296
77052SOL    HW132989  12.339   4.574  12.236
77052SOL    HW232990  12.404   4.704  12.277
77053SOL     OW32991   7.379   7.914   0.326
77053SOL    HW132992   7.408   8.001   0.356
77053SOL    HW232993   7.312   7.933   0.260
77054SOL     OW32994   8.520   3.950   8.424
77054SOL    HW132995   8.482   3.898   8.495
77054SOL    HW232996   8.457   3.942   8.352
77055SOL     OW32997   7.926   5.495  12.953
77055SOL    HW132998   7.980   5.571  12.974
77055SOL    HW232999   7.906   5.455  13.037
77056SOL     OW33000   0.092  14.266   6.339
77056SOL    HW133001   0.022  14.203   6.322
77056SOL    HW233002   0.172  14.215   6.324
77057SOL     OW33003   1.064   9.508   9.373
77057SOL    HW133004   0.995   9.571   9.396
77057SOL    HW233005   1.126   9.559   9.320
77058SOL     OW33006   1.482   9.235  10.716
77058SOL    HW133007   1.430   9.241  10.796
77058SOL    HW233008   1.562   9.284  10.735
77059SOL     OW33009  13.343   2.246   0.576
77059SOL    HW133010  13.340   2.336   0.542
77059SOL    HW233011  13.251   2.221   0.585
77060SOL     OW33012   6.641   0.876  11.795
77060SOL    HW133013   6.672   0.888  11.885
77060SOL    HW233014   6.560   0.826  11.805
77061SOL     OW33015   1.490   2.499  12.911
77061SOL    HW133016   1.519   2.418  12.953
77061SOL    HW233017   1.437   2.469  12.837
77062SOL     OW33018  12.161   3.243   6.366
77062SOL    HW133019  12.114   3.227   6.284
77062SOL    HW233020  12.177   3.338   6.366
77063SOL     OW33021  10.513   3.810   3.303
77063SOL    HW133022  10.494   3.737   3.362
77063SOL    HW233023  10.429   3.831   3.263
77064SOL     OW33024   5.918  12.907   8.288
77064SOL    HW133025   5.830  12.869   8.290
77064SOL    HW233026   5.976  12.832   8.300
77065SOL     OW33027  11.222  13.374   9.781
77065SOL    HW133028  11.131  13.344   9.776
77065SOL    HW233029  11.216  13.464   9.813
77066SOL     OW33030   0.799   8.194   4.021
77066SOL    HW133031   0.758   8.281   4.029
77066SOL    HW233032   0.761   8.144   4.094
77067SOL     OW33033   9.317   9.444  13.981
77067SOL    HW133034   9.281   9.531  13.969
77067SOL    HW233035   9.300   9.399  13.897
77068SOL     OW33036  14.044   0.264   6.967
77068SOL    HW133037  14.124   0.301   6.928
77068SOL    HW233038  13.992   0.236   6.892
77069SOL     OW33039  10.822  12.206   3.921
77069SOL    HW133040  10.784  12.263   3.988
77069SOL    HW233041  10.796  12.245   3.838
77070SOL     OW33042   4.873  11.547   6.756
77070SOL    HW133043   4.876  11.490   6.679
77070SOL    HW233044   4.801  11.608   6.738
77071SOL     OW33045  10.136   4.182   6.862
77071SOL    HW133046  10.166   4.200   6.951
77071SOL    HW233047  10.133   4.086   6.857
77072SOL     OW33048  10.822   0.629   9.888
77072SOL    HW133049  10.787   0.600   9.972
77072SOL    HW233050  10.871   0.708   9.908
77073SOL     OW33051   9.719   9.880   9.537
77073SOL    HW133052   9.802   9.856   9.578
77073SOL    HW233053   9.742   9.910   9.450
77074SOL     OW33054   2.628   9.196   6.070
77074SOL    HW133055   2.631   9.117   6.124
77074SOL    HW233056   2.535   9.218   6.066
77075SOL     OW33057  14.634   5.185  12.099
77075SOL    HW133058  14.690   5.261  12.083
77075SOL    HW233059  14.586   5.207  12.179
77076SOL     OW33060   9.944  13.691  13.998
77076SOL    HW133061   9.895  13.740  13.933
77076SOL    HW233062  10.019  13.746  14.018
77077SOL     OW33063   8.664  10.905  12.077
77077SOL    HW133064   8.727  10.976  12.092
77077SOL    HW233065   8.602  10.912  12.150
77078SOL     OW33066  12.329   4.028  11.347
77078SOL    HW133067  12.403   4.079  11.379
77078SOL    HW233068  12.306   4.069  11.263
77079SOL     OW33069   9.470  13.149   3.415
77079SOL    HW133070   9.543  13.170   3.357
77079SOL    HW233071   9.394  13.147   3.357
77080SOL     OW33072  10.311   7.248  14.587
77080SOL    HW133073  10.235   7.301  14.609
77080SOL    HW233074  10.360   7.241  14.669
77081SOL     OW33075   4.358  11.868  11.527
77081SOL    HW133076   4.273  11.853  11.568
77081SOL    HW233077   4.408  11.789  11.545
77082SOL     OW33078  14.323   2.624  12.790
77082SOL    HW133079  14.333   2.714  12.760
77082SOL    HW233080  14.251   2.589  12.737
77083SOL     OW33081  13.771   2.481  12.065
77083SOL    HW133082  13.757   2.425  11.989
77083SOL    HW233083  13.705   2.551  12.056
77084SOL     OW33084   7.236  13.870  14.137
77084SOL    HW133085   7.321  13.854  14.097
77084SOL    HW233086   7.254  13.870  14.231
77085SOL     OW33087  10.312   1.146  14.723
77085SOL    HW133088  10.347   1.182  14.642
77085SOL    HW233089  10.257   1.072  14.695
77086SOL     OW33090  10.414   1.165   5.595
77086SOL    HW133091  10.459   1.212   5.666
77086SOL    HW233092  10.335   1.131   5.636
77087SOL     OW33093   7.289   4.412   0.608
77087SOL    HW133094   7.277   4.443   0.698
77087SOL    HW233095   7.203   4.421   0.568
77088SOL     OW33096   7.319   2.248   6.358
77088SOL    HW133097   7.388   2.192   6.322
77088SOL    HW233098   7.294   2.205   6.440
77089SOL     OW33099   9.153   0.120   6.854
77089SOL    HW133100   9.209   0.141   6.929
77089SOL    HW233101   9.068   0.099   6.892
77090SOL     OW33102   2.013  13.153   1.250
77090SOL    HW133103   2.049  13.084   1.194
77090SOL    HW233104   2.048  13.234   1.212
77091SOL     OW33105   6.911   8.780  11.583
77091SOL    HW133106   7.006   8.766  11.588
77091SOL    HW233107   6.890   8.769  11.491
77092SOL     OW33108   7.606   1.790   5.818
77092SOL    HW133109   7.657   1.715   5.788
77092SOL    HW233110   7.564   1.761   5.898
77093SOL     OW33111  13.769  12.358  12.472
77093SOL    HW133112  13.839  12.374  12.409
77093SOL    HW233113  13.811  12.368  12.558
77094SOL     OW33114  11.723  12.207   1.485
77094SOL    HW133115  11.731  12.247   1.571
77094SOL    HW233116  11.660  12.262   1.438
77095SOL     OW33117  11.388   2.561  14.269
77095SOL    HW133118  11.316   2.553  14.207
77095SOL    HW233119  11.373   2.490  14.332
77096SOL     OW33120   5.931  12.335   3.871
77096SOL    HW133121   5.922  12.425   3.902
77096SOL    HW233122   5.843  12.309   3.844
77097SOL     OW33123   1.005  11.146   9.586
77097SOL    HW133124   1.077  11.099   9.544
77097SOL    HW233125   0.983  11.094   9.663
77098SOL     OW33126  12.018   6.254   7.487
77098SOL    HW133127  12.033   6.274   7.395
77098SOL    HW233128  11.930   6.216   7.489
77099SOL     OW33129   4.673   1.876   4.212
77099SOL    HW133130   4.643   1.939   4.277
77099SOL    HW233131   4.610   1.804   4.219
77100SOL     OW33132  11.886   1.971   2.010
77100SOL    HW133133  11.914   1.884   1.982
77100SOL    HW233134  11.798   1.981   1.975
77101SOL     OW33135   8.055  11.167  10.728
77101SOL    HW133136   8.082  11.115  10.653
77101SOL    HW233137   8.137  11.188  10.774
77102SOL     OW33138   0.217   7.340   4.526
77102SOL    HW133139   0.167   7.262   4.552
77102SOL    HW233140   0.260   7.369   4.607
77103SOL     OW33141  14.479   1.973  10.167
77103SOL    HW133142  14.411   1.990  10.231
77103SOL    HW233143  14.461   1.885  10.135
77104SOL     OW33144   8.521   1.723   0.208
77104SOL    HW133145   8.575   1.645   0.219
77104SOL    HW233146   8.506   1.755   0.297
77105SOL     OW33147   6.797   7.097  12.409
77105SOL    HW133148   6.724   7.036  12.393
77105SOL    HW233149   6.761   7.161  12.471
77106SOL     OW33150   2.990  10.399  11.901
77106SOL    HW133151   2.986  10.303  11.896
77106SOL    HW233152   3.035  10.425  11.820
77107SOL     OW33153   7.298  14.862  14.631
77107SOL    HW133154   7.312   0.072  14.600
77107SOL    HW233155   7.316  14.806  14.556
77108SOL     OW33156  11.153   4.974   4.331
77108SOL    HW133157  11.081   4.910   4.327
77108SOL    HW233158  11.219   4.932   4.387
77109SOL     OW33159   7.434  11.115  14.722
77109SOL    HW133160   7.509  11.145  14.773
77109SOL    HW233161   7.473  11.066  14.649
77110SOL     OW33162   9.651  12.932  12.964
77110SOL    HW133163   9.725  12.991  12.977
77110SOL    HW233164   9.612  12.922  13.051
77111SOL     OW33165   6.642   8.530  13.325
77111SOL    HW133166   6.619   8.547  13.416
77111SOL    HW233167   6.576   8.576  13.274
77112SOL     OW33168  13.484   0.616  13.691
77112SOL    HW133169  13.568   0.577  13.713
77112SOL    HW233170  13.482   0.617  13.596
77113SOL     OW33171   4.206   2.508   6.143
77113SOL    HW133172   4.203   2.603   6.156
77113SOL    HW233173   4.294   2.491   6.111
77114SOL     OW33174   7.990   1.978  12.934
77114SOL    HW133175   8.053   1.978  13.006
77114SOL    HW233176   7.970   2.070  12.919
77115SOL     OW33177   1.252  11.576   5.438
77115SOL    HW133178   1.339  11.558   5.472
77115SOL    HW233179   1.207  11.491   5.439
77116SOL     OW33180   8.217   3.162   5.338
77116SOL    HW133181   8.187   3.195   5.423
77116SOL    HW233182   8.206   3.236   5.279
77117SOL     OW33183   0.040   2.433   6.737
77117SOL    HW133184   0.053   2.474   6.652
77117SOL    HW233185  14.837   2.470   6.770
77118SOL     OW33186   7.797  11.912  13.417
77118SOL    HW133187   7.783  11.963  13.497
77118SOL    HW233188   7.812  11.978  13.349
77119SOL     OW33189   8.964   4.375   5.219
77119SOL    HW133190   8.911   4.338   5.291
77119SOL    HW233191   8.984   4.300   5.164
77120SOL     OW33192  13.933   0.145   6.723
77120SOL    HW133193  13.900   0.197   6.650
77120SOL    HW233194  13.953   0.059   6.684
77121SOL     OW33195   6.215  14.556   5.423
77121SOL    HW133196   6.150  14.599   5.367
77121SOL    HW233197   6.162  14.501   5.481
77122SOL     OW33198   0.095   7.119   4.646
77122SOL    HW133199   0.113   7.052   4.712
77122SOL    HW233200   0.004   7.146   4.664
77123SOL     OW33201   8.230   5.866   8.590
77123SOL    HW133202   8.174   5.925   8.541
77123SOL    HW233203   8.187   5.781   8.584
77124SOL     OW33204   9.603  13.504   6.493
77124SOL    HW133205   9.523  13.554   6.477
77124SOL    HW233206   9.573  13.421   6.531
77125SOL     OW33207   8.571  14.422  13.084
77125SOL    HW133208   8.658  14.396  13.114
77125SOL    HW233209   8.523  14.340  13.073
77126SOL     OW33210   9.140   5.796   7.154
77126SOL    HW133211   9.220   5.843   7.177
77126SOL    HW233212   9.162   5.747   7.075
77127SOL     OW33213  13.740  12.935   1.623
77127SOL    HW133214  13.748  12.876   1.547
77127SOL    HW233215  13.701  12.881   1.691
77128SOL     OW33216   9.844   5.671   6.475
77128SOL    HW133217   9.780   5.743   6.474
77128SOL    HW233218   9.922   5.708   6.434
77129SOL     OW33219   6.906  10.683  12.895
77129SOL    HW133220   6.912  10.767  12.849
77129SOL    HW233221   6.936  10.703  12.984
77130SOL     OW33222   6.047   3.288  13.268
77130SOL    HW133223   5.971   3.230  13.266
77130SOL    HW233224   6.064   3.301  13.361
77131SOL     OW33225   0.259   9.680   8.831
77131SOL    HW133226   0.305   9.758   8.799
77131SOL    HW233227   0.262   9.619   8.757
77132SOL     OW33228   1.138   5.271   5.304
77132SOL    HW133229   1.109   5.315   5.384
77132SOL    HW233230   1.075   5.300   5.237
77133SOL     OW33231  10.983   9.498   4.381
77133SOL    HW133232  10.923   9.427   4.359
77133SOL    HW233233  11.015   9.529   4.296
77134SOL     OW33234   4.434  12.760   8.719
77134SOL    HW133235   4.421  12.834   8.659
77134SOL    HW233236   4.433  12.683   8.662
77135SOL     OW33237   4.108  10.074  13.954
77135SOL    HW133238   4.137  10.059  14.044
77135SOL    HW233239   4.089  10.168  13.950
77136SOL     OW33240   5.528   6.957  11.725
77136SOL    HW133241   5.499   7.007  11.649
77136SOL    HW233242   5.547   7.023  11.792
77137SOL     OW33243   1.600  11.137   3.909
77137SOL    HW133244   1.692  11.162   3.911
77137SOL    HW233245   1.597  11.051   3.952
77138SOL     OW33246  14.173  10.827   2.739
77138SOL    HW133247  14.242  10.799   2.800
77138SOL    HW233248  14.116  10.751   2.730
77139SOL     OW33249   5.499   3.866   1.441
77139SOL    HW133250   5.419   3.918   1.433
77139SOL    HW233251   5.508   3.823   1.356
77140SOL     OW33252   7.597  14.807  14.526
77140SOL    HW133253   7.534  14.873  14.497
77140SOL    HW233254   7.667  14.810  14.460
77141SOL     OW33255   3.128   9.902  12.467
77141SOL    HW133256   3.161   9.963  12.533
77141SOL    HW233257   3.205   9.855  12.437
77142SOL     OW33258   8.496   8.515   2.221
77142SOL    HW133259   8.467   8.503   2.311
77142SOL    HW233260   8.568   8.453   2.211
77143SOL     OW33261   1.149   8.626   2.039
77143SOL    HW133262   1.136   8.588   2.126
77143SOL    HW233263   1.230   8.586   2.007
77144SOL     OW33264  12.440  13.100   3.347
77144SOL    HW133265  12.459  13.032   3.412
77144SOL    HW233266  12.387  13.164   3.394
77145SOL     OW33267   6.782   7.276   1.282
77145SOL    HW133268   6.851   7.243   1.339
77145SOL    HW233269   6.737   7.198   1.250
77146SOL     OW33270  12.244   8.048  11.003
77146SOL    HW133271  12.211   8.004  10.925
77146SOL    HW233272  12.213   7.995  11.076
77147SOL     OW33273   6.942   6.074  14.693
77147SOL    HW133274   7.005   6.137  14.659
77147SOL    HW233275   6.982   5.988  14.677
77148SOL     OW33276   2.380  11.227   5.739
77148SOL    HW133277   2.304  11.225   5.797
77148SOL    HW233278   2.425  11.309   5.759
77149SOL     OW33279   1.266  12.521   7.069
77149SOL    HW133280   1.271  12.504   7.163
77149SOL    HW233281   1.338  12.469   7.032
77150SOL     OW33282  14.786  13.552  14.139
77150SOL    HW133283  14.780  13.582  14.230
77150SOL    HW233284  14.760  13.460  14.143
77151SOL     OW33285   7.605   2.123   7.905
77151SOL    HW133286   7.687   2.075   7.893
77151SOL    HW233287   7.571   2.134   7.816
77152SOL     OW33288  13.286  14.507   3.181
77152SOL    HW133289  13.265  14.599   3.197
77152SOL    HW233290  13.202  14.462   3.186
77153SOL     OW33291  12.929   0.722  14.478
77153SOL    HW133292  13.015   0.685  14.456
77153SOL    HW233293  12.916   0.792  14.415
77154SOL     OW33294   1.829   0.269   1.610
77154SOL    HW133295   1.802   0.239   1.523
77154SOL    HW233296   1.855   0.190   1.656
77155SOL     OW33297   2.236  12.627  10.972
77155SOL    HW133298   2.328  12.647  10.952
77155SOL    HW233299   2.240  12.572  11.049
77156SOL     OW33300   0.500   6.166   6.291
77156SOL    HW133301   0.445   6.239   6.318
77156SOL    HW233302   0.576   6.207   6.250
77157SOL     OW33303  11.217   5.937   6.092
77157SOL    HW133304  11.144   5.982   6.135
77157SOL    HW233305  11.259   6.005   6.039
77158SOL     OW33306   1.382   2.677   2.927
77158SOL    HW133307   1.299   2.725   2.919
77158SOL    HW233308   1.450   2.742   2.913
77159SOL     OW33309   0.333   7.776  14.714
77159SOL    HW133310   0.259   7.743  14.664
77159SOL    HW233311   0.300   7.784  14.804
77160SOL     OW33312   0.928   4.659   0.178
77160SOL    HW133313   0.903   4.597   0.109
77160SOL    HW233314   0.857   4.724   0.178
77161SOL     OW33315   5.054   1.207   7.955
77161SOL    HW133316   5.011   1.126   7.930
77161SOL    HW233317   5.007   1.275   7.908
77162SOL     OW33318  10.345   2.904  13.489
77162SOL    HW133319  10.385   2.990  13.495
77162SOL    HW233320  10.262   2.913  13.536
77163SOL     OW33321   0.076  11.086   3.132
77163SOL    HW133322   0.052  11.005   3.177
77163SOL    HW233323   0.064  11.154   3.199
77164SOL     OW33324  12.625   7.417  10.197
77164SOL    HW133325  12.542   7.445  10.237
77164SOL    HW233326  12.603   7.335  10.153
77165SOL     OW33327  14.245   3.585   2.579
77165SOL    HW133328  14.245   3.528   2.655
77165SOL    HW233329  14.334   3.577   2.543
77166SOL     OW33330  13.889  12.050   5.312
77166SOL    HW133331  13.880  12.061   5.217
77166SOL    HW233332  13.977  12.013   5.324
77167SOL     OW33333   3.486   0.045   9.240
77167SOL    HW133334   3.451  14.836   9.223
77167SOL    HW233335   3.453   0.098   9.167
77168SOL     OW33336   3.325  14.170   5.545
77168SOL    HW133337   3.421  14.167   5.549
77168SOL    HW233338   3.299  14.078   5.534
77169SOL     OW33339  13.499   2.228  13.647
77169SOL    HW133340  13.544   2.247  13.729
77169SOL    HW233341  13.569   2.225  13.581
77170SOL     OW33342  10.749  12.762   3.924
77170SOL    HW133343  10.730  12.707   4.000
77170SOL    HW233344  10.799  12.835   3.960
77171SOL     OW33345   9.695   0.413   5.000
77171SOL    HW133346   9.612   0.391   4.957
77171SOL    HW233347   9.719   0.499   4.965
77172SOL     OW33348  11.226   4.369  10.413
77172SOL    HW133349  11.279   4.336  10.486
77172SOL    HW233350  11.186   4.290  10.376
77173SOL     OW33351   8.205   9.004   0.670
77173SOL    HW133352   8.296   9.002   0.697
77173SOL    HW233353   8.161   9.057   0.736
77174SOL     OW33354   1.931  14.013   6.309
77174SOL    HW133355   1.902  14.047   6.224
77174SOL    HW233356   1.888  13.928   6.318
77175SOL     OW33357   6.839   8.229   2.625
77175SOL    HW133358   6.748   8.256   2.617
77175SOL    HW233359   6.889   8.296   2.579
77176SOL     OW33360   2.487   5.809  13.049
77176SOL    HW133361   2.508   5.881  13.108
77176SOL    HW233362   2.466   5.735  13.107
77177SOL     OW33363   4.521   0.687   4.597
77177SOL    HW133364   4.551   0.763   4.547
77177SOL    HW233365   4.536   0.711   4.689
77178SOL     OW33366  14.208   6.318   1.815
77178SOL    HW133367  14.192   6.337   1.722
77178SOL    HW233368  14.122   6.327   1.856
77179SOL     OW33369  14.421  12.097   9.483
77179SOL    HW133370  14.393  12.181   9.521
77179SOL    HW233371  14.435  12.116   9.391
77180SOL     OW33372   0.781  12.842   9.784
77180SOL    HW133373   0.824  12.904   9.842
77180SOL    HW233374   0.689  12.846   9.810
77181SOL     OW33375   0.428   6.016  11.154
77181SOL    HW133376   0.443   6.060  11.237
77181SOL    HW233377   0.516   5.990  11.124
77182SOL     OW33378   8.001  10.123  10.571
77182SOL    HW133379   7.915  10.159  10.593
77182SOL    HW233380   8.062  10.196  10.586
77183SOL     OW33381   6.836   5.759  13.036
77183SOL    HW133382   6.836   5.755  13.131
77183SOL    HW233383   6.743   5.750  13.012
77184SOL     OW33384   1.633   3.517   6.661
77184SOL    HW133385   1.632   3.486   6.570
77184SOL    HW233386   1.591   3.604   6.657
77185SOL     OW33387  11.261  11.388   1.103
77185SOL    HW133388  11.190  11.428   1.053
77185SOL    HW233389  11.227  11.381   1.192
77186SOL     OW33390   4.442   9.955   7.770
77186SOL    HW133391   4.441   9.902   7.850
77186SOL    HW233392   4.464  10.043   7.800
77187SOL     OW33393  13.142   3.524   1.232
77187SOL    HW133394  13.212   3.531   1.296
77187SOL    HW233395  13.062   3.530   1.284
77188SOL     OW33396   9.240   6.019   1.762
77188SOL    HW133397   9.317   5.968   1.737
77188SOL    HW233398   9.166   5.969   1.728
77189SOL     OW33399   1.418   9.998   7.147
77189SOL    HW133400   1.396   9.910   7.179
77189SOL    HW233401   1.361  10.056   7.197
77190SOL     OW33402  11.094   6.029   9.297
77190SOL    HW133403  11.143   6.109   9.276
77190SOL    HW233404  11.141   5.960   9.249
77191SOL     OW33405  10.921   2.441   2.877
77191SOL    HW133406  10.864   2.386   2.929
77191SOL    HW233407  10.971   2.379   2.823
77192SOL     OW33408   8.923   7.036   2.184
77192SOL    HW133409   8.871   7.115   2.199
77192SOL    HW233410   8.870   6.966   2.222
77193SOL     OW33411  14.171  13.799   6.421
77193SOL    HW133412  14.248  13.855   6.425
77193SOL    HW233413  14.097  13.858   6.425
77194SOL     OW33414   2.324  14.509   6.897
77194SOL    HW133415   2.257  14.565   6.936
77194SOL    HW233416   2.333  14.543   6.807
77195SOL     OW33417  10.210   9.674   7.901
77195SOL    HW133418  10.206   9.647   7.809
77195SOL    HW233419  10.291   9.724   7.908
77196SOL     OW33420   4.335   3.589   4.367
77196SOL    HW133421   4.387   3.509   4.372
77196SOL    HW233422   4.248   3.560   4.341
77197SOL     OW33423  13.107   8.587   0.299
77197SOL    HW133424  13.059   8.666   0.275
77197SOL    HW233425  13.078   8.567   0.388
77198SOL     OW33426  10.971   2.254   9.767
77198SOL    HW133427  11.065   2.238   9.766
77198SOL    HW233428  10.937   2.194   9.833
77199SOL     OW33429   6.145   5.540  12.437
77199SOL    HW133430   6.218   5.556  12.498
77199SOL    HW233431   6.184   5.549  12.350
77200SOL     OW33432   6.587   5.065   1.068
77200SOL    HW133433   6.635   5.023   0.997
77200SOL    HW233434   6.628   5.151   1.077
77201SOL     OW33435   3.399   1.399  14.568
77201SOL    HW133436   3.458   1.407  14.643
77201SOL    HW233437   3.357   1.485  14.563
77202SOL     OW33438   9.885  13.834   9.748
77202SOL    HW133439   9.864  13.911   9.695
77202SOL    HW233440   9.939  13.869   9.819
77203SOL     OW33441   4.546  13.952  12.672
77203SOL    HW133442   4.479  13.992  12.617
77203SOL    HW233443   4.623  14.007  12.659
77204SOL     OW33444  14.355  11.429   3.067
77204SOL    HW133445  14.283  11.396   3.120
77204SOL    HW233446  14.433  11.385   3.101
77205SOL     OW33447  12.619   8.023   8.614
77205SOL    HW133448  12.574   7.985   8.539
77205SOL    HW233449  12.571   8.104   8.633
77206SOL     OW33450   3.884   9.376  14.648
77206SOL    HW133451   3.894   9.410  14.737
77206SOL    HW233452   3.970   9.386  14.609
77207SOL     OW33453  12.249   0.731   8.380
77207SOL    HW133454  12.184   0.661   8.383
77207SOL    HW233455  12.304   0.709   8.305
77208SOL     OW33456   8.378   9.055  12.874
77208SOL    HW133457   8.388   9.097  12.959
77208SOL    HW233458   8.455   9.083  12.824
77209SOL     OW33459   9.949   4.498   4.646
77209SOL    HW133460   9.926   4.474   4.736
77209SOL    HW233461   9.939   4.593   4.642
77210SOL     OW33462   9.514   1.136  14.426
77210SOL    HW133463   9.587   1.170  14.477
77210SOL    HW233464   9.554   1.067  14.372
77211SOL     OW33465  14.038   2.098   8.917
77211SOL    HW133466  13.988   2.116   8.996
77211SOL    HW233467  14.051   2.184   8.877
77212SOL     OW33468  13.814   9.647  14.524
77212SOL    HW133469  13.761   9.581  14.569
77212SOL    HW233470  13.800   9.727  14.574
77213SOL     OW33471   0.018  11.803  11.868
77213SOL    HW133472  14.874  11.757  11.949
77213SOL    HW233473   0.114  11.797  11.864
77214SOL     OW33474   5.386   0.273   7.609
77214SOL    HW133475   5.301   0.236   7.584
77214SOL    HW233476   5.421   0.309   7.527
77215SOL     OW33477  13.167  13.084  10.189
77215SOL    HW133478  13.254  13.117  10.163
77215SOL    HW233479  13.136  13.148  10.252
77216SOL     OW33480   6.653   6.715   7.749
77216SOL    HW133481   6.729   6.773   7.758
77216SOL    HW233482   6.592   6.744   7.816
77217SOL     OW33483  14.074   4.563   2.980
77217SOL    HW133484  14.162   4.596   2.996
77217SOL    HW233485  14.070   4.479   3.027
77218SOL     OW33486   0.624   8.634  14.555
77218SOL    HW133487   0.644   8.543  14.575
77218SOL    HW233488   0.586   8.632  14.467
77219SOL     OW33489  14.838   5.235   7.831
77219SOL    HW133490  14.831   5.164   7.767
77219SOL    HW233491  14.828   5.315   7.780
77220SOL     OW33492   8.618   3.268   1.863
77220SOL    HW133493   8.712   3.249   1.871
77220SOL    HW233494   8.576   3.202   1.918
77221SOL     OW33495   4.031  11.222   6.138
77221SOL    HW133496   4.091  11.151   6.161
77221SOL    HW233497   3.976  11.185   6.069
77222SOL     OW33498   5.343   7.967  13.915
77222SOL    HW133499   5.377   7.911  13.984
77222SOL    HW233500   5.369   8.055  13.939
77223SOL     OW33501  14.080   9.240   0.203
77223SOL    HW133502  14.083   9.232   0.298
77223SOL    HW233503  14.123   9.324   0.185
77224SOL     OW33504   5.666  12.297   4.066
77224SOL    HW133505   5.667  12.268   3.974
77224SOL    HW233506   5.596  12.246   4.106
77225SOL     OW33507  13.220   3.496   3.111
77225SOL    HW133508  13.212   3.402   3.099
77225SOL    HW233509  13.141   3.532   3.070
77226SOL     OW33510   4.449   8.762   4.143
77226SOL    HW133511   4.380   8.698   4.161
77226SOL    HW233512   4.531   8.712   4.152
77227SOL     OW33513   0.314   2.647   4.791
77227SOL    HW133514   0.349   2.695   4.716
77227SOL    HW233515   0.284   2.564   4.754
77228SOL     OW33516   0.198  12.018  12.108
77228SOL    HW133517   0.217  11.927  12.084
77228SOL    HW233518   0.164  12.012  12.197
77229SOL     OW33519   7.143  12.243   0.100
77229SOL    HW133520   7.105  12.214   0.183
77229SOL    HW233521   7.072  12.233   0.037
77230SOL     OW33522   0.061   7.547  10.257
77230SOL    HW133523   0.074   7.598  10.176
77230SOL    HW233524   0.020   7.609  10.317
77231SOL     OW33525   3.466   5.466  10.545
77231SOL    HW133526   3.561   5.466  10.531
77231SOL    HW233527   3.444   5.558  10.559
77232SOL     OW33528   1.349   3.784  13.256
77232SOL    HW133529   1.395   3.816  13.178
77232SOL    HW233530   1.293   3.857  13.283
77233SOL     OW33531   1.132   4.251  14.205
77233SOL    HW133532   1.205   4.311  14.221
77233SOL    HW233533   1.059   4.286  14.256
77234SOL     OW33534  11.568   9.018   2.756
77234SOL    HW133535  11.535   8.967   2.830
77234SOL    HW233536  11.614   8.954   2.702
77235SOL     OW33537   5.626  14.154   8.602
77235SOL    HW133538   5.656  14.136   8.691
77235SOL    HW233539   5.637  14.071   8.556
77236SOL     OW33540   5.567  11.125   3.798
77236SOL    HW133541   5.487  11.163   3.761
77236SOL    HW233542   5.555  11.133   3.892
77237SOL     OW33543   5.133  14.412  13.513
77237SOL    HW133544   5.093  14.481  13.565
77237SOL    HW233545   5.137  14.448  13.424
77238SOL     OW33546   2.122  13.633   1.815
77238SOL    HW133547   2.152  13.722   1.829
77238SOL    HW233548   2.089  13.632   1.725
77239SOL     OW33549  10.437   3.422   9.552
77239SOL    HW133550  10.400   3.338   9.526
77239SOL    HW233551  10.479   3.404   9.637
77240SOL     OW33552   0.081  13.006   0.968
77240SOL    HW133553   0.140  13.051   1.028
77240SOL    HW233554   0.134  12.990   0.890
77241SOL     OW33555   3.331   3.539   3.456
77241SOL    HW133556   3.264   3.479   3.423
77241SOL    HW233557   3.407   3.524   3.400
77242SOL     OW33558   4.848   1.858   6.183
77242SOL    HW133559   4.819   1.767   6.182
77242SOL    HW233560   4.819   1.892   6.268
77243SOL     OW33561   1.456  10.685   1.044
77243SOL    HW133562   1.460  10.718   0.955
77243SOL    HW233563   1.385  10.735   1.085
77244SOL     OW33564   0.352   8.498   9.134
77244SOL    HW133565   0.274   8.524   9.185
77244SOL    HW233566   0.425   8.542   9.178
77245SOL     OW33567  13.062   2.212  10.346
77245SOL    HW133568  13.050   2.258  10.263
77245SOL    HW233569  13.058   2.281  10.412
77246SOL     OW33570   6.572  10.414  12.241
77246SOL    HW133571   6.509  10.458  12.297
77246SOL    HW233572   6.624  10.360  12.301
77247SOL     OW33573   8.412   4.082   7.017
77247SOL    HW133574   8.484   4.144   7.020
77247SOL    HW233575   8.379   4.087   6.927
77248SOL     OW33576   6.232  13.540  11.489
77248SOL    HW133577   6.153  13.594  11.499
77248SOL    HW233578   6.293  13.575  11.554
77249SOL     OW33579  13.397   0.318   0.946
77249SOL    HW133580  13.400   0.407   0.983
77249SOL    HW233581  13.312   0.284   0.975
77250SOL     OW33582  12.454   3.107   4.391
77250SOL    HW133583  12.532   3.052   4.403
77250SOL    HW233584  12.411   3.070   4.314
77251SOL     OW33585  11.212   6.270   1.240
77251SOL    HW133586  11.193   6.344   1.183
77251SOL    HW233587  11.291   6.297   1.287
77252SOL     OW33588  11.892   9.771   9.359
77252SOL    HW133589  11.842   9.731   9.431
77252SOL    HW233590  11.951   9.702   9.329
77253SOL     OW33591  10.130  14.705  13.131
77253SOL    HW133592  10.096  14.722  13.219
77253SOL    HW233593  10.164  14.790  13.101
77254SOL     OW33594  12.860  10.480   8.468
77254SOL    HW133595  12.818  10.397   8.492
77254SOL    HW233596  12.953  10.458   8.462
77255SOL     OW33597  12.385   3.811   7.673
77255SOL    HW133598  12.348   3.832   7.759
77255SOL    HW233599  12.371   3.890   7.621
77256SOL     OW33600   7.493   6.908  10.991
77256SOL    HW133601   7.420   6.900  11.053
77256SOL    HW233602   7.462   6.862  10.913
77257SOL     OW33603   6.101   4.972  14.225
77257SOL    HW133604   6.068   4.917  14.154
77257SOL    HW233605   6.193   4.950  14.232
77258SOL     OW33606   9.869  11.823   2.751
77258SOL    HW133607   9.792  11.843   2.697
77258SOL    HW233608   9.943  11.851   2.699
77259SOL     OW33609   2.879   7.463  11.849
77259SOL    HW133610   2.862   7.557  11.856
77259SOL    HW233611   2.970   7.453  11.879
77260SOL     OW33612   8.003   2.703   5.611
77260SOL    HW133613   8.054   2.624   5.590
77260SOL    HW233614   8.039   2.733   5.695
77261SOL     OW33615   8.271  14.007   7.958
77261SOL    HW133616   8.225  13.923   7.956
77261SOL    HW233617   8.362  13.985   7.942
77262SOL     OW33618   8.447   5.218   9.105
77262SOL    HW133619   8.429   5.312   9.102
77262SOL    HW233620   8.542   5.211   9.091
77263SOL     OW33621  12.281  14.136   5.682
77263SOL    HW133622  12.288  14.068   5.615
77263SOL    HW233623  12.371  14.165   5.696
77264SOL     OW33624   8.634   0.626   1.112
77264SOL    HW133625   8.561   0.685   1.132
77264SOL    HW233626   8.637   0.566   1.187
77265SOL     OW33627   5.781  13.925   1.389
77265SOL    HW133628   5.738  13.840   1.377
77265SOL    HW233629   5.847  13.909   1.456
77266SOL     OW33630   3.385   8.785   1.312
77266SOL    HW133631   3.327   8.808   1.384
77266SOL    HW233632   3.358   8.840   1.239
77267SOL     OW33633   6.758   9.084  11.935
77267SOL    HW133634   6.783   9.135  11.857
77267SOL    HW233635   6.737   9.150  12.001
77268SOL     OW33636   4.301  12.487  13.316
77268SOL    HW133637   4.229  12.473  13.255
77268SOL    HW233638   4.259  12.504  13.400
77269SOL     OW33639   5.950   5.775  14.171
77269SOL    HW133640   6.010   5.807  14.104
77269SOL    HW233641   5.885   5.846  14.182
77270SOL     OW33642   4.648   3.801   0.800
77270SOL    HW133643   4.571   3.807   0.744
77270SOL    HW233644   4.634   3.867   0.868
77271SOL     OW33645  10.864   0.870   5.590
77271SOL    HW133646  10.830   0.815   5.519
77271SOL    HW233647  10.786   0.893   5.641
77272SOL     OW33648   7.225   5.867   2.301
77272SOL    HW133649   7.239   5.900   2.212
77272SOL    HW233650   7.301   5.900   2.350
77273SOL     OW33651  10.660   2.112   9.928
77273SOL    HW133652  10.567   2.131   9.917
77273SOL    HW233653  10.695   2.186   9.978
77274SOL     OW33654  12.066   1.450   7.572
77274SOL    HW133655  12.118   1.381   7.531
77274SOL    HW233656  11.981   1.446   7.528
77275SOL     OW33657  11.996  11.192  10.823
77275SOL    HW133658  12.043  11.239  10.754
77275SOL    HW233659  11.948  11.260  10.871
77276SOL     OW33660  10.062   6.715   9.434
77276SOL    HW133661  10.020   6.639   9.395
77276SOL    HW233662  10.071   6.778   9.362
77277SOL     OW33663  12.990   5.310   0.382
77277SOL    HW133664  12.922   5.372   0.409
77277SOL    HW233665  13.069   5.364   0.372
77278SOL     OW33666  14.835  13.958   5.583
77278SOL    HW133667  14.819  13.870   5.618
77278SOL    HW233668  14.748  13.997   5.575
77279SOL     OW33669   4.486   4.161  13.842
77279SOL    HW133670   4.420   4.224  13.870
77279SOL    HW233671   4.511   4.116  13.922
77280SOL     OW33672   3.449  12.491   6.002
77280SOL    HW133673   3.515  12.441   6.050
77280SOL    HW233674   3.415  12.429   5.938
77281SOL     OW33675   1.206   4.565   3.397
77281SOL    HW133676   1.230   4.473   3.398
77281SOL    HW233677   1.142   4.572   3.326
77282SOL     OW33678   5.500  12.087   7.111
77282SOL    HW133679   5.456  12.150   7.169
77282SOL    HW233680   5.589  12.080   7.146
77283SOL     OW33681   3.155   2.395  10.404
77283SOL    HW133682   3.206   2.401  10.485
77283SOL    HW233683   3.150   2.485  10.372
77284SOL     OW33684   6.032   1.588   0.581
77284SOL    HW133685   6.121   1.563   0.604
77284SOL    HW233686   6.039   1.680   0.555
77285SOL     OW33687   8.217   7.025   4.745
77285SOL    HW133688   8.274   6.949   4.758
77285SOL    HW233689   8.193   7.052   4.834
77286SOL     OW33690   9.977   5.167   2.418
77286SOL    HW133691  10.070   5.147   2.412
77286SOL    HW233692   9.960   5.225   2.343
77287SOL     OW33693   9.231   5.207   7.321
77287SOL    HW133694   9.280   5.286   7.298
77287SOL    HW233695   9.298   5.144   7.347
77288SOL     OW33696  10.179  13.176   4.363
77288SOL    HW133697  10.192  13.192   4.457
77288SOL    HW233698  10.092  13.136   4.358
77289SOL     OW33699   0.659   6.554  12.917
77289SOL    HW133700   0.748   6.538  12.886
77289SOL    HW233701   0.647   6.490  12.988
77290SOL     OW33702   3.192  12.315   3.032
77290SOL    HW133703   3.146  12.383   2.983
77290SOL    HW233704   3.192  12.239   2.973
77291SOL     OW33705  14.259   5.953   5.463
77291SOL    HW133706  14.303   5.869   5.464
77291SOL    HW233707  14.247   5.975   5.556
77292SOL     OW33708   8.541   4.387  13.531
77292SOL    HW133709   8.511   4.470  13.495
77292SOL    HW233710   8.595   4.348  13.462
77293SOL     OW33711  14.849  12.809  14.415
77293SOL    HW133712   0.017  12.740  14.462
77293SOL    HW233713  14.816  12.766  14.337
77294SOL     OW33714  13.010   7.227   2.098
77294SOL    HW133715  13.086   7.181   2.135
77294SOL    HW233716  12.939   7.164   2.105
77295SOL     OW33717   5.395   5.447   2.764
77295SOL    HW133718   5.403   5.352   2.775
77295SOL    HW233719   5.308   5.460   2.726
77296SOL     OW33720   9.880   0.199   8.830
77296SOL    HW133721   9.915   0.268   8.773
77296SOL    HW233722   9.923   0.213   8.914
77297SOL     OW33723   4.072   9.646   7.480
77297SOL    HW133724   4.011   9.670   7.411
77297SOL    HW233725   4.155   9.632   7.435
77298SOL     OW33726   6.107   0.747   0.380
77298SOL    HW133727   6.031   0.741   0.322
77298SOL    HW233728   6.097   0.673   0.440
77299SOL     OW33729   2.326  14.870   4.999
77299SOL    HW133730   2.331   0.033   4.913
77299SOL    HW233731   2.413   0.004   5.037
77300SOL     OW33732  10.314   6.223   4.906
77300SOL    HW133733  10.237   6.275   4.881
77300SOL    HW233734  10.326   6.242   4.999
77301SOL     OW33735  14.862   4.861   7.301
77301SOL    HW133736   0.037   4.858   7.222
77301SOL    HW233737   0.037   4.907   7.365
77302SOL     OW33738   0.502   4.889   3.776
77302SOL    HW133739   0.584   4.840   3.786
77302SOL    HW233740   0.519   4.973   3.817
77303SOL     OW33741  14.491   6.419   5.333
77303SOL    HW133742  14.569   6.364   5.337
77303SOL    HW233743  14.502   6.472   5.254
77304SOL     OW33744   4.743  14.820   3.331
77304SOL    HW133745   4.672  14.874   3.365
77304SOL    HW233746   4.802   0.002   3.288
77305SOL     OW33747  12.811  11.105   8.057
77305SOL    HW133748  12.764  11.077   8.136
77305SOL    HW233749  12.754  11.171   8.018
77306SOL     OW33750   9.489  14.213   4.335
77306SOL    HW133751   9.449  14.126   4.327
77306SOL    HW233752   9.480  14.235   4.428
77307SOL     OW33753  11.884   2.857  12.875
77307SOL    HW133754  11.792   2.836  12.889
77307SOL    HW233755  11.909   2.908  12.952
77308SOL     OW33756   1.831   8.866   1.329
77308SOL    HW133757   1.856   8.788   1.279
77308SOL    HW233758   1.742   8.848   1.359
77309SOL     OW33759   2.337   9.481  12.163
77309SOL    HW133760   2.408   9.419  12.145
77309SOL    HW233761   2.375   9.544  12.225
77310SOL     OW33762   2.941  11.630  12.697
77310SOL    HW133763   2.859  11.609  12.742
77310SOL    HW233764   2.982  11.697  12.752
77311SOL     OW33765   7.171  14.052   6.423
77311SOL    HW133766   7.250  14.052   6.476
77311SOL    HW233767   7.100  14.044   6.487
77312SOL     OW33768  11.308  12.355  11.019
77312SOL    HW133769  11.383  12.297  11.033
77312SOL    HW233770  11.347  12.441  11.002
77313SOL     OW33771   4.930   4.541   8.161
77313SOL    HW133772   4.886   4.563   8.244
77313SOL    HW233773   4.943   4.447   8.165
77314SOL     OW33774  10.960  10.462  13.166
77314SOL    HW133775  10.865  10.451  13.166
77314SOL    HW233776  10.974  10.554  13.145
77315SOL     OW33777   4.179   4.037   9.340
77315SOL    HW133778   4.232   4.113   9.318
77315SOL    HW233779   4.089   4.070   9.338
77316SOL     OW33780  10.579   3.985   2.296
77316SOL    HW133781  10.495   3.994   2.341
77316SOL    HW233782  10.638   4.045   2.341
77317SOL     OW33783  12.066  12.846   8.187
77317SOL    HW133784  12.089  12.774   8.246
77317SOL    HW233785  12.041  12.918   8.246
77318SOL     OW33786  10.975   5.276  13.831
77318SOL    HW133787  10.899   5.222  13.812
77318SOL    HW233788  11.050   5.225  13.799
77319SOL     OW33789   8.047   4.760   3.874
77319SOL    HW133790   8.039   4.802   3.960
77319SOL    HW233791   7.988   4.684   3.879
77320SOL     OW33792   9.611   0.695   4.163
77320SOL    HW133793   9.689   0.640   4.170
77320SOL    HW233794   9.563   0.659   4.088
77321SOL     OW33795   2.358   8.491   5.513
77321SOL    HW133796   2.409   8.461   5.439
77321SOL    HW233797   2.266   8.483   5.485
77322SOL     OW33798   6.206   9.573  13.732
77322SOL    HW133799   6.278   9.524  13.771
77322SOL    HW233800   6.239   9.663  13.725
77323SOL     OW33801   0.024  13.091  11.230
77323SOL    HW133802   0.094  13.104  11.294
77323SOL    HW233803   0.019  12.996  11.219
77324SOL     OW33804   9.825   1.782   8.298
77324SOL    HW133805   9.775   1.700   8.296
77324SOL    HW233806   9.845   1.800   8.206
77325SOL     OW33807  12.597   1.753  12.020
77325SOL    HW133808  12.529   1.776  11.957
77325SOL    HW233809  12.580   1.662  12.042
77326SOL     OW33810  12.167  10.419   0.685
77326SOL    HW133811  12.151  10.363   0.608
77326SOL    HW233812  12.173  10.358   0.758
77327SOL     OW33813  10.678   7.321   4.936
77327SOL    HW133814  10.681   7.417   4.933
77327SOL    HW233815  10.611   7.297   4.872
77328SOL     OW33816   3.492   0.845  11.498
77328SOL    HW133817   3.460   0.755  11.505
77328SOL    HW233818   3.473   0.884  11.583
77329SOL     OW33819  10.086  10.758   5.308
77329SOL    HW133820  10.150  10.732   5.242
77329SOL    HW233821  10.057  10.845   5.279
77330SOL     OW33822   8.054  14.571   4.651
77330SOL    HW133823   8.150  14.573   4.649
77330SOL    HW233824   8.031  14.484   4.618
77331SOL     OW33825   2.057  12.151  12.714
77331SOL    HW133826   2.147  12.128  12.738
77331SOL    HW233827   2.002  12.105  12.778
77332SOL     OW33828   1.421  10.435   9.146
77332SOL    HW133829   1.437  10.397   9.233
77332SOL    HW233830   1.423  10.360   9.087
77333SOL     OW33831  13.446   0.529   4.510
77333SOL    HW133832  13.535   0.547   4.480
77333SOL    HW233833  13.457   0.486   4.594
77334SOL     OW33834   4.171  13.488   4.406
77334SOL    HW133835   4.123  13.566   4.378
77334SOL    HW233836   4.256  13.496   4.363
77335SOL     OW33837   5.747   7.622   9.560
77335SOL    HW133838   5.781   7.541   9.523
77335SOL    HW233839   5.820   7.684   9.553
77336SOL     OW33840  13.406   3.738   5.789
77336SOL    HW133841  13.359   3.812   5.750
77336SOL    HW233842  13.380   3.662   5.737
77337SOL     OW33843   8.386   8.018   8.379
77337SOL    HW133844   8.369   7.982   8.293
77337SOL    HW233845   8.308   8.069   8.400
77338SOL     OW33846   8.865  13.008   9.511
77338SOL    HW133847   8.923  13.055   9.570
77338SOL    HW233848   8.817  12.947   9.567
77339SOL     OW33849   3.643   6.253  12.771
77339SOL    HW133850   3.563   6.263  12.719
77339SOL    HW233851   3.713   6.283  12.713
77340SOL     OW33852   9.630  12.734  14.466
77340SOL    HW133853   9.722  12.706  14.468
77340SOL    HW233854   9.580  12.653  14.478
77341SOL     OW33855   0.597  14.022   5.069
77341SOL    HW133856   0.502  14.031   5.065
77341SOL    HW233857   0.616  14.014   5.162
77342SOL     OW33858  10.432   8.529   8.281
77342SOL    HW133859  10.428   8.434   8.283
77342SOL    HW233860  10.348   8.555   8.242
77343SOL     OW33861  10.614  12.521   0.360
77343SOL    HW133862  10.708  12.534   0.350
77343SOL    HW233863  10.582  12.502   0.272
77344SOL     OW33864  13.258   0.999   5.194
77344SOL    HW133865  13.173   0.978   5.155
77344SOL    HW233866  13.305   0.915   5.195
77345SOL     OW33867   4.282   3.664   7.441
77345SOL    HW133868   4.373   3.683   7.418
77345SOL    HW233869   4.230   3.711   7.376
77346SOL     OW33870  13.516  13.749   7.610
77346SOL    HW133871  13.434  13.786   7.579
77346SOL    HW233872  13.583  13.784   7.550
77347SOL     OW33873  13.490   9.021   5.822
77347SOL    HW133874  13.535   8.937   5.834
77347SOL    HW233875  13.545   9.084   5.868
77348SOL     OW33876   7.749   5.435   5.446
77348SOL    HW133877   7.665   5.451   5.403
77348SOL    HW233878   7.726   5.407   5.535
77349SOL     OW33879   7.633  13.161   6.165
77349SOL    HW133880   7.709  13.193   6.116
77349SOL    HW233881   7.566  13.146   6.098
77350SOL     OW33882   8.700   1.733   8.689
77350SOL    HW133883   8.722   1.745   8.782
77350SOL    HW233884   8.679   1.821   8.657
77351SOL     OW33885  10.907   7.254  13.007
77351SOL    HW133886  10.824   7.215  13.035
77351SOL    HW233887  10.928   7.209  12.925
77352SOL     OW33888   5.193  10.483   1.982
77352SOL    HW133889   5.226  10.394   1.994
77352SOL    HW233890   5.101  10.478   2.007
77353SOL     OW33891   8.669  14.382  11.557
77353SOL    HW133892   8.680  14.287  11.563
77353SOL    HW233893   8.713  14.416  11.635
77354SOL     OW33894   7.067   9.818   4.382
77354SOL    HW133895   7.053   9.733   4.341
77354SOL    HW233896   7.047   9.803   4.475
77355SOL     OW33897   9.647  14.148   6.346
77355SOL    HW133898   9.632  14.131   6.439
77355SOL    HW233899   9.572  14.107   6.302
77356SOL     OW33900   1.313   6.911  10.541
77356SOL    HW133901   1.320   6.825  10.582
77356SOL    HW233902   1.267   6.964  10.605
77357SOL     OW33903   7.004   1.309   4.426
77357SOL    HW133904   6.932   1.325   4.365
77357SOL    HW233905   7.012   1.390   4.475
77358SOL     OW33906   4.621   3.375   8.606
77358SOL    HW133907   4.598   3.307   8.668
77358SOL    HW233908   4.551   3.440   8.614
77359SOL     OW33909  14.082   5.466  14.325
77359SOL    HW133910  14.082   5.555  14.361
77359SOL    HW233911  14.015   5.420  14.375
77360SOL     OW33912   7.784   1.720   3.630
77360SOL    HW133913   7.800   1.774   3.708
77360SOL    HW233914   7.695   1.687   3.642
77361SOL     OW33915   8.821   2.014  12.821
77361SOL    HW133916   8.848   2.041  12.733
77361SOL    HW233917   8.872   2.069  12.879
77362SOL     OW33918  12.257   0.724  11.856
77362SOL    HW133919  12.280   0.745  11.946
77362SOL    HW233920  12.171   0.681  11.862
77363SOL     OW33921   7.371   6.603   2.539
77363SOL    HW133922   7.457   6.562   2.546
77363SOL    HW233923   7.311   6.543   2.582
77364SOL     OW33924   0.267   4.652  11.079
77364SOL    HW133925   0.265   4.685  10.989
77364SOL    HW233926   0.341   4.592  11.081
77365SOL     OW33927   4.033  12.089   5.612
77365SOL    HW133928   4.052  12.174   5.652
77365SOL    HW233929   4.063  12.025   5.678
77366SOL     OW33930   2.400  14.584   1.122
77366SOL    HW133931   2.392  14.664   1.175
77366SOL    HW233932   2.459  14.608   1.051
77367SOL     OW33933   6.220  11.175  12.060
77367SOL    HW133934   6.169  11.195  11.981
77367SOL    HW233935   6.191  11.088  12.086
77368SOL     OW33936   6.588  13.375  12.923
77368SOL    HW133937   6.504  13.407  12.955
77368SOL    HW233938   6.571  13.285  12.897
77369SOL     OW33939   3.868   5.809   4.352
77369SOL    HW133940   3.795   5.869   4.337
77369SOL    HW233941   3.882   5.767   4.267
77370SOL     OW33942   7.931   1.108   1.880
77370SOL    HW133943   7.951   1.081   1.790
77370SOL    HW233944   7.920   1.203   1.875
77371SOL     OW33945  11.333  10.159  10.247
77371SOL    HW133946  11.416  10.114  10.262
77371SOL    HW233947  11.276  10.128  10.317
77372SOL     OW33948  11.977  13.355   0.046
77372SOL    HW133949  12.004  13.377  14.836
77372SOL    HW233950  11.978  13.259   0.048
77373SOL     OW33951  12.123  10.584   0.225
77373SOL    HW133952  12.204  10.545   0.190
77373SOL    HW233953  12.153  10.660   0.274
77374SOL     OW33954  14.157  11.434   1.595
77374SOL    HW133955  14.076  11.399   1.631
77374SOL    HW233956  14.130  11.510   1.543
77375SOL     OW33957  10.894  11.748   8.145
77375SOL    HW133958  10.876  11.700   8.064
77375SOL    HW233959  10.988  11.766   8.142
77376SOL     OW33960   1.043  14.482   3.507
77376SOL    HW133961   1.137  14.464   3.500
77376SOL    HW233962   1.020  14.455   3.596
77377SOL     OW33963   2.461  14.841   5.342
77377SOL    HW133964   2.399  14.769   5.354
77377SOL    HW233965   2.535  14.801   5.296
77378SOL     OW33966   5.304  12.177   7.302
77378SOL    HW133967   5.235  12.151   7.241
77378SOL    HW233968   5.325  12.095   7.348
77379SOL     OW33969   2.115   6.905   4.824
77379SOL    HW133970   2.205   6.903   4.855
77379SOL    HW233971   2.062   6.894   4.903
77380SOL     OW33972   1.489   3.443   6.420
77380SOL    HW133973   1.430   3.517   6.429
77380SOL    HW233974   1.438   3.376   6.375
77381SOL     OW33975   7.294   1.889   7.692
77381SOL    HW133976   7.227   1.955   7.707
77381SOL    HW233977   7.285   1.865   7.600
77382SOL     OW33978   1.139   4.817   3.483
77382SOL    HW133979   1.177   4.729   3.485
77382SOL    HW233980   1.047   4.802   3.462
77383SOL     OW33981   3.252   4.147   2.788
77383SOL    HW133982   3.162   4.117   2.789
77383SOL    HW233983   3.305   4.068   2.801
77384SOL     OW33984   1.343  10.882   2.036
77384SOL    HW133985   1.419  10.937   2.056
77384SOL    HW233986   1.340  10.880   1.940
77385SOL     OW33987   2.550   0.107  14.662
77385SOL    HW133988   2.481   0.060  14.709
77385SOL    HW233989   2.615   0.128  14.730
77386SOL     OW33990   9.410   6.436   1.478
77386SOL    HW133991   9.370   6.522   1.466
77386SOL    HW233992   9.492   6.440   1.430
77387SOL     OW33993  11.591  10.370   3.662
77387SOL    HW133994  11.597  10.390   3.568
77387SOL    HW233995  11.517  10.422   3.693
77388SOL     OW33996   5.160  12.338   7.630
77388SOL    HW133997   5.087  12.346   7.570
77388SOL    HW233998   5.159  12.247   7.658
77389SOL     OW33999  14.077   5.230   6.869
77389SOL    HW134000  14.063   5.183   6.787
77389SOL    HW234001  14.157   5.280   6.855
77390SOL     OW34002  12.125   1.321   9.866
77390SOL    HW134003  12.185   1.376   9.816
77390SOL    HW234004  12.180   1.280   9.933
77391SOL     OW34005   1.019  11.768   0.174
77391SOL    HW134006   1.030  11.687   0.224
77391SOL    HW234007   0.974  11.827   0.235
77392SOL     OW34008   8.234   0.868   2.852
77392SOL    HW134009   8.287   0.797   2.889
77392SOL    HW234010   8.291   0.909   2.787
77393SOL     OW34011  13.890   7.236   9.852
77393SOL    HW134012  13.877   7.321   9.895
77393SOL    HW234013  13.802   7.197   9.850
77394SOL     OW34014   3.920   2.706   2.711
77394SOL    HW134015   3.958   2.671   2.631
77394SOL    HW234016   3.980   2.775   2.739
77395SOL     OW34017   6.896   8.609  10.592
77395SOL    HW134018   6.821   8.659  10.561
77395SOL    HW234019   6.972   8.651  10.552
77396SOL     OW34020   6.882  10.818  10.167
77396SOL    HW134021   6.849  10.734  10.136
77396SOL    HW234022   6.805  10.875  10.169
77397SOL     OW34023   4.952   8.778   9.585
77397SOL    HW134024   5.043   8.754   9.604
77397SOL    HW234025   4.948   8.784   9.489
77398SOL     OW34026   1.982   5.693   1.670
77398SOL    HW134027   2.071   5.704   1.702
77398SOL    HW234028   1.937   5.647   1.742
77399SOL     OW34029   4.314   3.876   9.512
77399SOL    HW134030   4.304   3.783   9.490
77399SOL    HW234031   4.259   3.921   9.448
77400SOL     OW34032   8.531   6.758   9.073
77400SOL    HW134033   8.463   6.694   9.095
77400SOL    HW234034   8.531   6.761   8.977
77401SOL     OW34035  13.839  13.498   8.696
77401SOL    HW134036  13.788  13.578   8.685
77401SOL    HW234037  13.917  13.511   8.642
77402SOL     OW34038   0.064   7.410  11.812
77402SOL    HW134039  14.867   7.359  11.842
77402SOL    HW234040   0.044   7.431  11.721
77403SOL     OW34041   3.241   0.977  10.284
77403SOL    HW134042   3.177   0.907  10.268
77403SOL    HW234043   3.232   1.035  10.208
77404SOL     OW34044   2.381  11.640   3.786
77404SOL    HW134045   2.313  11.587   3.745
77404SOL    HW234046   2.340  11.675   3.865
77405SOL     OW34047   2.462  11.521   6.055
77405SOL    HW134048   2.380  11.472   6.043
77405SOL    HW234049   2.518  11.491   5.984
77406SOL     OW34050   3.202   9.071   0.785
77406SOL    HW134051   3.163   8.995   0.741
77406SOL    HW234052   3.296   9.053   0.785
77407SOL     OW34053  10.735  13.307  10.709
77407SOL    HW134054  10.652  13.354  10.717
77407SOL    HW234055  10.735  13.273  10.619
77408SOL     OW34056   2.061   9.304   5.555
77408SOL    HW134057   1.966   9.310   5.562
77408SOL    HW234058   2.077   9.215   5.525
77409SOL     OW34059   6.747   2.580   1.407
77409SOL    HW134060   6.760   2.485   1.418
77409SOL    HW234061   6.807   2.620   1.470
77410SOL     OW34062   5.101   2.941   4.267
77410SOL    HW134063   5.010   2.955   4.241
77410SOL    HW234064   5.128   2.862   4.222
77411SOL     OW34065   3.317   1.493   6.939
77411SOL    HW134066   3.344   1.574   6.896
77411SOL    HW234067   3.222   1.490   6.926
77412SOL     OW34068  10.115   5.654  10.741
77412SOL    HW134069  10.188   5.592  10.749
77412SOL    HW234070  10.056   5.630  10.813
77413SOL     OW34071   1.708  10.616   2.083
77413SOL    HW134072   1.670  10.662   2.008
77413SOL    HW234073   1.695  10.676   2.156
77414SOL     OW34074   0.487  10.258  12.571
77414SOL    HW134075   0.475  10.347  12.604
77414SOL    HW234076   0.519  10.270  12.482
77415SOL     OW34077   6.283   2.666   1.073
77415SOL    HW134078   6.249   2.637   0.988
77415SOL    HW234079   6.348   2.733   1.052
77416SOL     OW34080   2.079  14.610   5.016
77416SOL    HW134081   2.170  14.636   5.029
77416SOL    HW234082   2.029  14.690   5.028
77417SOL     OW34083  11.999   1.161  13.644
77417SOL    HW134084  12.033   1.072  13.645
77417SOL    HW234085  12.006   1.189  13.553
77418SOL     OW34086  10.379   1.131  10.929
77418SOL    HW134087  10.379   1.045  10.887
77418SOL    HW234088  10.405   1.114  11.019
77419SOL     OW34089   8.198   1.752   5.995
77419SOL    HW134090   8.232   1.838   5.970
77419SOL    HW234091   8.165   1.764   6.084
77420SOL     OW34092   7.460   3.723   5.228
77420SOL    HW134093   7.494   3.742   5.141
77420SOL    HW234094   7.374   3.766   5.230
77421SOL     OW34095  14.489  10.127   8.848
77421SOL    HW134096  14.506  10.141   8.755
77421SOL    HW234097  14.452  10.210   8.878
77422SOL     OW34098   1.487   4.875  13.613
77422SOL    HW134099   1.579   4.892  13.634
77422SOL    HW234100   1.456   4.956  13.573
77423SOL     OW34101   0.669   7.733  10.719
77423SOL    HW134102   0.576   7.723  10.737
77423SOL    HW234103   0.706   7.765  10.801
77424SOL     OW34104   6.146   6.983   1.401
77424SOL    HW134105   6.132   7.074   1.374
77424SOL    HW234106   6.193   6.990   1.484
77425SOL     OW34107   3.444   5.076   2.099
77425SOL    HW134108   3.506   5.040   2.163
77425SOL    HW234109   3.470   5.036   2.016
77426SOL     OW34110   1.665  11.559   0.180
77426SOL    HW134111   1.752  11.520   0.177
77426SOL    HW234112   1.605  11.485   0.189
77427SOL     OW34113  10.468   8.411   6.414
77427SOL    HW134114  10.481   8.443   6.325
77427SOL    HW234115  10.555   8.417   6.454
77428SOL     OW34116   7.175   1.387   1.645
77428SOL    HW134117   7.195   1.373   1.737
77428SOL    HW234118   7.234   1.457   1.618
77429SOL     OW34119   3.548   9.577  10.207
77429SOL    HW134120   3.573   9.485  10.213
77429SOL    HW234121   3.616   9.617  10.152
77430SOL     OW34122   7.153  11.317  13.032
77430SOL    HW134123   7.091  11.287  13.099
77430SOL    HW234124   7.166  11.410  13.053
77431SOL     OW34125  13.699   6.270   0.682
77431SOL    HW134126  13.728   6.249   0.593
77431SOL    HW234127  13.617   6.222   0.692
77432SOL     OW34128   1.647   3.766   0.627
77432SOL    HW134129   1.624   3.697   0.564
77432SOL    HW234130   1.707   3.723   0.688
77433SOL     OW34131   7.426   6.206   4.624
77433SOL    HW134132   7.449   6.184   4.715
77433SOL    HW234133   7.439   6.301   4.618
77434SOL     OW34134   5.696  12.951   5.629
77434SOL    HW134135   5.721  12.920   5.716
77434SOL    HW234136   5.641  12.881   5.594
77435SOL     OW34137   2.334   5.526   2.073
77435SOL    HW134138   2.315   5.606   2.121
77435SOL    HW234139   2.348   5.460   2.141
77436SOL     OW34140  14.035  10.993   5.355
77436SOL    HW134141  14.084  10.961   5.431
77436SOL    HW234142  13.962  11.041   5.393
77437SOL     OW34143   8.863   9.871  10.296
77437SOL    HW134144   8.945   9.824  10.308
77437SOL    HW234145   8.884   9.962  10.320
77438SOL     OW34146   2.404  12.674   3.744
77438SOL    HW134147   2.435  12.704   3.659
77438SOL    HW234148   2.447  12.732   3.807
77439SOL     OW34149  14.101   0.537  12.086
77439SOL    HW134150  14.138   0.556  12.000
77439SOL    HW234151  14.015   0.499  12.067
77440SOL     OW34152  14.436   8.237   9.567
77440SOL    HW134153  14.393   8.267   9.647
77440SOL    HW234154  14.398   8.151   9.551
77441SOL     OW34155   6.526   9.243   4.442
77441SOL    HW134156   6.460   9.271   4.506
77441SOL    HW234157   6.607   9.239   4.492
77442SOL     OW34158  12.965   4.847  10.722
77442SOL    HW134159  12.960   4.825  10.629
77442SOL    HW234160  12.921   4.933  10.728
77443SOL     OW34161   3.887   4.142   1.079
77443SOL    HW134162   3.966   4.124   1.130
77443SOL    HW234163   3.868   4.234   1.096
77444SOL     OW34164   4.903   9.671   9.712
77444SOL    HW134165   4.920   9.648   9.621
77444SOL    HW234166   4.837   9.608   9.741
77445SOL     OW34167   8.992   2.267  10.583
77445SOL    HW134168   9.052   2.197  10.608
77445SOL    HW234169   8.907   2.224  10.570
77446SOL     OW34170   1.274   8.218   8.457
77446SOL    HW134171   1.200   8.270   8.489
77446SOL    HW234172   1.293   8.156   8.528
77447SOL     OW34173   2.777   6.478  11.282
77447SOL    HW134174   2.727   6.537  11.226
77447SOL    HW234175   2.818   6.416  11.221
77448SOL     OW34176   6.164   5.924   6.141
77448SOL    HW134177   6.090   5.974   6.175
77448SOL    HW234178   6.131   5.883   6.061
77449SOL     OW34179  10.856   2.300   1.479
77449SOL    HW134180  10.864   2.294   1.384
77449SOL    HW234181  10.862   2.210   1.509
77450SOL     OW34182   7.539  10.872   9.302
77450SOL    HW134183   7.619  10.875   9.250
77450SOL    HW234184   7.529  10.780   9.326
77451SOL     OW34185  10.689   0.511   8.846
77451SOL    HW134186  10.624   0.444   8.828
77451SOL    HW234187  10.642   0.577   8.897
77452SOL     OW34188   7.533  11.619  11.320
77452SOL    HW134189   7.529  11.537  11.369
77452SOL    HW234190   7.470  11.677  11.365
77453SOL     OW34191  14.227  12.890  11.598
77453SOL    HW134192  14.214  12.805  11.640
77453SOL    HW234193  14.260  12.869  11.511
77454SOL     OW34194   9.032   8.674  14.148
77454SOL    HW134195   9.074   8.736  14.088
77454SOL    HW234196   9.090   8.671  14.224
77455SOL     OW34197   8.579  13.150   8.430
77455SOL    HW134198   8.548  13.060   8.441
77455SOL    HW234199   8.519  13.202   8.483
77456SOL     OW34200  11.978  14.657  12.647
77456SOL    HW134201  11.902  14.621  12.694
77456SOL    HW234202  12.042  14.586  12.647
77457SOL     OW34203   2.918  13.382   0.289
77457SOL    HW134204   2.888  13.307   0.340
77457SOL    HW234205   2.900  13.458   0.343
77458SOL     OW34206   9.696  14.075  12.638
77458SOL    HW134207   9.757  14.001  12.646
77458SOL    HW234208   9.682  14.104  12.728
77459SOL     OW34209  12.102  13.907  14.282
77459SOL    HW134210  12.164  13.835  14.273
77459SOL    HW234211  12.152  13.976  14.325
77460SOL     OW34212   5.181   6.119   0.528
77460SOL    HW134213   5.238   6.183   0.571
77460SOL    HW234214   5.241   6.062   0.480
77461SOL     OW34215  13.217   7.831   7.198
77461SOL    HW134216  13.153   7.769   7.161
77461SOL    HW234217  13.302   7.792   7.180
77462SOL     OW34218   4.268   8.750   7.216
77462SOL    HW134219   4.350   8.715   7.253
77462SOL    HW234220   4.290   8.841   7.193
77463SOL     OW34221  12.448   4.294   6.101
77463SOL    HW134222  12.429   4.222   6.040
77463SOL    HW234223  12.407   4.370   6.062
77464SOL     OW34224   0.928  14.125   6.781
77464SOL    HW134225   0.962  14.051   6.730
77464SOL    HW234226   0.862  14.085   6.838
77465SOL     OW34227   8.498   6.472   9.006
77465SOL    HW134228   8.560   6.533   8.967
77465SOL    HW234229   8.416   6.487   8.958
77466SOL     OW34230   0.987   0.168   3.128
77466SOL    HW134231   0.970   0.081   3.163
77466SOL    HW234232   0.934   0.226   3.183
77467SOL     OW34233   3.923  12.747  14.385
77467SOL    HW134234   3.898  12.782  14.299
77467SOL    HW234235   3.998  12.800  14.412
77468SOL     OW34236  10.147  14.030  12.032
77468SOL    HW134237  10.215  13.990  11.978
77468SOL    HW234238  10.085  13.959  12.050
77469SOL     OW34239  11.938  13.246   0.359
77469SOL    HW134240  11.917  13.169   0.411
77469SOL    HW234241  11.968  13.311   0.423
77470SOL     OW34242   9.091   6.657  13.116
77470SOL    HW134243   9.080   6.569  13.152
77470SOL    HW234244   9.161   6.649  13.051
77471SOL     OW34245   2.754   8.774  12.028
77471SOL    HW134246   2.843   8.768  11.994
77471SOL    HW234247   2.726   8.683  12.039
77472SOL     OW34248  14.088   4.570   4.555
77472SOL    HW134249  14.117   4.598   4.642
77472SOL    HW234250  14.015   4.628   4.534
77473SOL     OW34251   4.239   1.704   3.792
77473SOL    HW134252   4.295   1.764   3.743
77473SOL    HW234253   4.154   1.748   3.795
77474SOL     OW34254   9.454   8.023  10.342
77474SOL    HW134255   9.420   8.026  10.253
77474SOL    HW234256   9.416   8.099  10.385
77475SOL     OW34257   4.533   9.752  13.121
77475SOL    HW134258   4.581   9.804  13.057
77475SOL    HW234259   4.553   9.661  13.098
77476SOL     OW34260   8.395  12.634  14.664
77476SOL    HW134261   8.326  12.587  14.710
77476SOL    HW234262   8.467  12.571  14.659
77477SOL     OW34263   7.371   3.558  10.151
77477SOL    HW134264   7.319   3.635  10.175
77477SOL    HW234265   7.447   3.594  10.105
77478SOL     OW34266   8.542   3.689  11.756
77478SOL    HW134267   8.496   3.771  11.737
77478SOL    HW234268   8.605   3.679  11.685
77479SOL     OW34269   3.293   2.359  14.343
77479SOL    HW134270   3.233   2.298  14.386
77479SOL    HW234271   3.265   2.360  14.252
77480SOL     OW34272   4.218   9.105   9.939
77480SOL    HW134273   4.207   9.022   9.985
77480SOL    HW234274   4.312   9.111   9.923
77481SOL     OW34275   4.818   6.622   8.900
77481SOL    HW134276   4.891   6.672   8.938
77481SOL    HW234277   4.789   6.564   8.971
77482SOL     OW34278   4.910  12.817  10.310
77482SOL    HW134279   4.819  12.844  10.321
77482SOL    HW234280   4.953  12.840  10.392
77483SOL     OW34281   6.721  11.232  11.538
77483SOL    HW134282   6.797  11.205  11.590
77483SOL    HW234283   6.688  11.150  11.500
77484SOL     OW34284  10.333   6.265   9.094
77484SOL    HW134285  10.321   6.306   9.180
77484SOL    HW234286  10.397   6.196   9.110
77485SOL     OW34287   4.101   2.339  13.695
77485SOL    HW134288   4.178   2.359  13.642
77485SOL    HW234289   4.102   2.404  13.765
77486SOL     OW34290   1.580   0.059  12.017
77486SOL    HW134291   1.529   0.052  11.936
77486SOL    HW234292   1.622  14.852  12.026
77487SOL     OW34293  11.248  11.269  12.194
77487SOL    HW134294  11.224  11.249  12.284
77487SOL    HW234295  11.231  11.189  12.145
77488SOL     OW34296  10.644   6.035   1.874
77488SOL    HW134297  10.691   6.059   1.954
77488SOL    HW234298  10.613   6.119   1.839
77489SOL     OW34299  10.681  12.407   4.111
77489SOL    HW134300  10.653  12.498   4.127
77489SOL    HW234301  10.701  12.373   4.198
77490SOL     OW34302   4.445  13.777   0.358
77490SOL    HW134303   4.421  13.868   0.343
77490SOL    HW234304   4.369  13.727   0.328
77491SOL     OW34305   6.868   4.238   0.362
77491SOL    HW134306   6.793   4.218   0.306
77491SOL    HW234307   6.845   4.199   0.447
77492SOL     OW34308  13.082  13.851   9.310
77492SOL    HW134309  12.994  13.821   9.332
77492SOL    HW234310  13.140  13.798   9.364
77493SOL     OW34311   7.332   2.899   3.074
77493SOL    HW134312   7.362   2.847   3.000
77493SOL    HW234313   7.257   2.948   3.041
77494SOL     OW34314  14.402   0.381  10.806
77494SOL    HW134315  14.359   0.325  10.741
77494SOL    HW234316  14.428   0.321  10.876
77495SOL     OW34317   8.803   3.118  10.715
77495SOL    HW134318   8.785   3.084  10.803
77495SOL    HW234319   8.852   3.198  10.730
77496SOL     OW34320   7.650   9.167   2.383
77496SOL    HW134321   7.698   9.180   2.465
77496SOL    HW234322   7.684   9.085   2.348
77497SOL     OW34323   7.899   5.279   9.410
77497SOL    HW134324   7.978   5.225   9.399
77497SOL    HW234325   7.836   5.221   9.453
77498SOL     OW34326   2.761  13.456   6.193
77498SOL    HW134327   2.846  13.423   6.163
77498SOL    HW234328   2.722  13.381   6.238
77499SOL     OW34329   7.156  14.186  13.379
77499SOL    HW134330   7.227  14.124  13.362
77499SOL    HW234331   7.150  14.237  13.298
77500SOL     OW34332   0.198  11.485  12.194
77500SOL    HW134333   0.117  11.445  12.227
77500SOL    HW234334   0.268  11.430  12.229
77501SOL     OW34335  12.607   2.633   7.126
77501SOL    HW134336  12.626   2.708   7.069
77501SOL    HW234337  12.689   2.618   7.174
77502SOL     OW34338   6.662  12.790  11.065
77502SOL    HW134339   6.630  12.773  11.154
77502SOL    HW234340   6.684  12.883  11.065
77503SOL     OW34341   9.408   9.907   9.519
77503SOL    HW134342   9.381   9.957   9.597
77503SOL    HW234343   9.501   9.927   9.510
77504SOL     OW34344   2.402   2.924   4.346
77504SOL    HW134345   2.456   2.867   4.292
77504SOL    HW234346   2.464   2.982   4.390
77505SOL     OW34347   4.292   7.610  13.754
77505SOL    HW134348   4.293   7.577  13.665
77505SOL    HW234349   4.213   7.664  13.760
77506SOL     OW34350  12.786   3.393   8.326
77506SOL    HW134351  12.694   3.388   8.299
77506SOL    HW234352  12.823   3.309   8.300
77507SOL     OW34353   7.574  13.582   4.213
77507SOL    HW134354   7.558  13.542   4.298
77507SOL    HW234355   7.669  13.592   4.208
77508SOL     OW34356   2.430  11.223   5.460
77508SOL    HW134357   2.415  11.208   5.554
77508SOL    HW234358   2.522  11.245   5.454
77509SOL     OW34359   2.269   0.878   5.514
77509SOL    HW134360   2.358   0.912   5.511
77509SOL    HW234361   2.260   0.842   5.602
77510SOL     OW34362   7.583   8.129  11.410
77510SOL    HW134363   7.608   8.053  11.462
77510SOL    HW234364   7.549   8.092  11.328
77511SOL     OW34365   8.945   7.714   3.373
77511SOL    HW134366   8.972   7.657   3.445
77511SOL    HW234367   9.003   7.790   3.380
77512SOL     OW34368   7.444   2.326   8.973
77512SOL    HW134369   7.447   2.354   9.065
77512SOL    HW234370   7.447   2.408   8.923
77513SOL     OW34371   0.750   2.425  11.852
77513SOL    HW134372   0.790   2.355  11.801
77513SOL    HW234373   0.672   2.385  11.890
77514SOL     OW34374   1.834  10.316   2.327
77514SOL    HW134375   1.856  10.361   2.246
77514SOL    HW234376   1.768  10.373   2.368
77515SOL     OW34377   0.755   5.451  13.464
77515SOL    HW134378   0.711   5.366  13.456
77515SOL    HW234379   0.807   5.444  13.544
77516SOL     OW34380   4.547   4.577  11.144
77516SOL    HW134381   4.509   4.630  11.214
77516SOL    HW234382   4.525   4.624  11.064
77517SOL     OW34383   9.792  12.834   7.281
77517SOL    HW134384   9.793  12.741   7.260
77517SOL    HW234385   9.704  12.850   7.317
77518SOL     OW34386   1.382   5.926   5.563
77518SOL    HW134387   1.404   5.977   5.486
77518SOL    HW234388   1.464   5.885   5.589
77519SOL     OW34389   6.843   9.417  12.865
77519SOL    HW134390   6.749   9.400  12.873
77519SOL    HW234391   6.862   9.399  12.773
77520SOL     OW34392   6.086   3.408   2.156
77520SOL    HW134393   6.130   3.335   2.112
77520SOL    HW234394   6.032   3.367   2.223
77521SOL     OW34395   3.887   3.382   7.653
77521SOL    HW134396   3.966   3.368   7.705
77521SOL    HW234397   3.898   3.468   7.614
77522SOL     OW34398  14.778   0.691   9.715
77522SOL    HW134399  14.719   0.659   9.783
77522SOL    HW234400  14.742   0.656   9.634
77523SOL     OW34401   9.140   1.563   4.388
77523SOL    HW134402   9.196   1.607   4.452
77523SOL    HW234403   9.201   1.510   4.336
77524SOL     OW34404   3.331  13.065   0.918
77524SOL    HW134405   3.410  13.016   0.940
77524SOL    HW234406   3.279  13.063   0.998
77525SOL     OW34407   4.450   3.289   9.847
77525SOL    HW134408   4.422   3.380   9.844
77525SOL    HW234409   4.513   3.285   9.918
77526SOL     OW34410  10.985   6.590  13.627
77526SOL    HW134411  11.016   6.644  13.700
77526SOL    HW234412  11.062   6.580  13.571
77527SOL     OW34413  12.566   0.513  12.273
77527SOL    HW134414  12.481   0.479  12.247
77527SOL    HW234415  12.586   0.580  12.207
77528SOL     OW34416   1.430  13.250   6.522
77528SOL    HW134417   1.342  13.217   6.505
77528SOL    HW234418   1.417  13.333   6.566
77529SOL     OW34419   6.700   5.850   3.029
77529SOL    HW134420   6.633   5.880   3.090
77529SOL    HW234421   6.783   5.875   3.071
77530SOL     OW34422   7.169   6.287  11.719
77530SOL    HW134423   7.079   6.258  11.707
77530SOL    HW234424   7.219   6.206  11.729
77531SOL     OW34425   3.875  14.055   7.961
77531SOL    HW134426   3.815  14.084   7.893
77531SOL    HW234427   3.838  14.090   8.043
77532SOL     OW34428   3.947   9.563  12.840
77532SOL    HW134429   3.872   9.504  12.831
77532SOL    HW234430   3.966   9.562  12.934
77533SOL     OW34431  13.639   9.935  11.702
77533SOL    HW134432  13.721   9.941  11.750
77533SOL    HW234433  13.579   9.992  11.750
77534SOL     OW34434  14.619  14.140   5.558
77534SOL    HW134435  14.538  14.189   5.543
77534SOL    HW234436  14.627  14.135   5.653
77535SOL     OW34437  13.066   7.888   4.656
77535SOL    HW134438  13.000   7.869   4.589
77535SOL    HW234439  13.038   7.839   4.733
77536SOL     OW34440   0.940   4.421   8.239
77536SOL    HW134441   0.910   4.493   8.294
77536SOL    HW234442   0.991   4.463   8.169
77537SOL     OW34443  11.070  12.470   7.093
77537SOL    HW134444  11.145  12.517   7.057
77537SOL    HW234445  11.085  12.379   7.068
77538SOL     OW34446   4.068  14.755  13.355
77538SOL    HW134447   4.104  14.767  13.267
77538SOL    HW234448   4.079  14.841  13.396
77539SOL     OW34449  13.503   2.858  10.005
77539SOL    HW134450  13.419   2.820   9.980
77539SOL    HW234451  13.543   2.793  10.063
77540SOL     OW34452  11.580   1.555   1.175
77540SOL    HW134453  11.543   1.527   1.259
77540SOL    HW234454  11.550   1.645   1.165
77541SOL     OW34455  12.274   3.068  10.940
77541SOL    HW134456  12.367   3.090  10.934
77541SOL    HW234457  12.240   3.128  11.006
77542SOL     OW34458   3.735  14.831   9.342
77542SOL    HW134459   3.778  14.774   9.279
77542SOL    HW234460   3.646  14.842   9.308
77543SOL     OW34461   0.377   8.109   5.853
77543SOL    HW134462   0.367   8.151   5.767
77543SOL    HW234463   0.342   8.172   5.915
77544SOL     OW34464  11.443   2.151  12.700
77544SOL    HW134465  11.354   2.116  12.694
77544SOL    HW234466  11.435   2.226  12.758
77545SOL     OW34467   9.342  11.568   1.794
77545SOL    HW134468   9.314  11.645   1.744
77545SOL    HW234469   9.260  11.526   1.821
77546SOL     OW34470   4.880  13.707   9.171
77546SOL    HW134471   4.838  13.625   9.144
77546SOL    HW234472   4.817  13.749   9.228
77547SOL     OW34473   9.347   5.513   3.900
77547SOL    HW134474   9.263   5.467   3.905
77547SOL    HW234475   9.375   5.501   3.809
77548SOL     OW34476   0.704  13.740   1.658
77548SOL    HW134477   0.722  13.811   1.719
77548SOL    HW234478   0.778  13.740   1.597
77549SOL     OW34479   1.071  11.894  12.214
77549SOL    HW134480   1.046  11.811  12.256
77549SOL    HW234481   1.093  11.952  12.287
77550SOL     OW34482   7.761  12.768  11.087
77550SOL    HW134483   7.771  12.674  11.104
77550SOL    HW234484   7.778  12.777  10.993
77551SOL     OW34485  11.283  11.932   7.659
77551SOL    HW134486  11.204  11.951   7.708
77551SOL    HW234487  11.252  11.883   7.583
77552SOL     OW34488   8.991   4.431  10.562
77552SOL    HW134489   9.010   4.374  10.488
77552SOL    HW234490   8.924   4.491  10.530
77553SOL     OW34491  11.103   9.558   7.944
77553SOL    HW134492  11.039   9.614   7.988
77553SOL    HW234493  11.120   9.603   7.861
77554SOL     OW34494   9.470  11.029   3.364
77554SOL    HW134495   9.440  11.118   3.381
77554SOL    HW234496   9.516  11.004   3.444
77555SOL     OW34497   1.517  13.982   2.506
77555SOL    HW134498   1.587  14.046   2.495
77555SOL    HW234499   1.561  13.900   2.529
77556SOL     OW34500  12.250  14.001   2.057
77556SOL    HW134501  12.323  14.020   1.996
77556SOL    HW234502  12.248  13.906   2.063
77557SOL     OW34503   4.005   0.058   8.838
77557SOL    HW134504   4.064   0.130   8.860
77557SOL    HW234505   4.021  14.872   8.906
77558SOL     OW34506   5.254   9.239   4.823
77558SOL    HW134507   5.294   9.167   4.872
77558SOL    HW234508   5.328   9.282   4.780
77559SOL     OW34509   9.986   3.624   9.617
77559SOL    HW134510  10.022   3.706   9.583
77559SOL    HW234511   9.948   3.647   9.702
77560SOL     OW34512  10.251   6.794  10.171
77560SOL    HW134513  10.252   6.746  10.088
77560SOL    HW234514  10.226   6.883  10.146
77561SOL     OW34515   7.725   1.427   8.135
77561SOL    HW134516   7.733   1.409   8.228
77561SOL    HW234517   7.669   1.357   8.101
77562SOL     OW34518   1.075   1.508   9.666
77562SOL    HW134519   1.041   1.461   9.590
77562SOL    HW234520   1.011   1.578   9.682
77563SOL     OW34521   0.228   3.466   5.724
77563SOL    HW134522   0.253   3.557   5.743
77563SOL    HW234523   0.262   3.449   5.637
77564SOL     OW34524   5.810   4.939   7.685
77564SOL    HW134525   5.902   4.946   7.660
77564SOL    HW234526   5.771   5.024   7.662
77565SOL     OW34527   9.698   1.067  10.160
77565SOL    HW134528   9.607   1.063  10.191
77565SOL    HW234529   9.722   0.976  10.144
77566SOL     OW34530   6.785  14.359  14.182
77566SOL    HW134531   6.748  14.439  14.144
77566SOL    HW234532   6.866  14.345  14.133
77567SOL     OW34533   3.044   0.869   2.346
77567SOL    HW134534   3.005   0.921   2.276
77567SOL    HW234535   2.973   0.813   2.377
77568SOL     OW34536   4.846   3.385  10.832
77568SOL    HW134537   4.841   3.301  10.878
77568SOL    HW234538   4.783   3.377  10.761
77569SOL     OW34539   5.920  12.671   3.515
77569SOL    HW134540   5.873  12.593   3.487
77569SOL    HW234541   5.861  12.713   3.577
77570SOL     OW34542   0.734  14.623   4.296
77570SOL    HW134543   0.783  14.569   4.233
77570SOL    HW234544   0.643  14.616   4.267
77571SOL     OW34545  13.268   7.235   7.819
77571SOL    HW134546  13.223   7.296   7.759
77571SOL    HW234547  13.262   7.150   7.776
77572SOL     OW34548   2.085   4.022  13.514
77572SOL    HW134549   2.022   4.040  13.585
77572SOL    HW234550   2.086   4.102  13.462
77573SOL     OW34551  12.551   3.115   2.762
77573SOL    HW134552  12.554   3.209   2.745
77573SOL    HW234553  12.468   3.086   2.724
77574SOL     OW34554   7.647  10.115  14.167
77574SOL    HW134555   7.695  10.051  14.114
77574SOL    HW234556   7.707  10.189  14.175
77575SOL     OW34557   4.198  14.406   5.887
77575SOL    HW134558   4.273  14.359   5.851
77575SOL    HW234559   4.186  14.480   5.828
77576SOL     OW34560  12.306   5.518  11.244
77576SOL    HW134561  12.238   5.504  11.310
77576SOL    HW234562  12.386   5.486  11.285
77577SOL     OW34563   4.391   7.765   0.149
77577SOL    HW134564   4.407   7.810   0.231
77577SOL    HW234565   4.478   7.744   0.115
77578SOL     OW34566   5.219   0.595  11.815
77578SOL    HW134567   5.297   0.567  11.863
77578SOL    HW234568   5.205   0.526  11.750
77579SOL     OW34569   7.829  10.179   7.690
77579SOL    HW134570   7.762  10.111   7.694
77579SOL    HW234571   7.912  10.132   7.700
77580SOL     OW34572   8.297  13.785   7.190
77580SOL    HW134573   8.279  13.868   7.235
77580SOL    HW234574   8.268  13.800   7.100
77581SOL     OW34575   7.240   3.755   8.027
77581SOL    HW134576   7.218   3.828   7.968
77581SOL    HW234577   7.176   3.761   8.098
77582SOL     OW34578  14.449  10.126  12.018
77582SOL    HW134579  14.423  10.036  12.001
77582SOL    HW234580  14.478  10.127  12.109
77583SOL     OW34581  14.595  13.837   0.191
77583SOL    HW134582  14.591  13.793   0.275
77583SOL    HW234583  14.665  13.792   0.143
77584SOL     OW34584   0.977   4.123   1.758
77584SOL    HW134585   1.017   4.106   1.673
77584SOL    HW234586   1.052   4.134   1.817
77585SOL     OW34587   1.386   4.189   2.712
77585SOL    HW134588   1.345   4.274   2.695
77585SOL    HW234589   1.316   4.125   2.696
77586SOL     OW34590   2.648   2.028  13.570
77586SOL    HW134591   2.613   1.943  13.543
77586SOL    HW234592   2.718   2.007  13.631
77587SOL     OW34593   9.085  11.361   7.634
77587SOL    HW134594   9.101  11.305   7.558
77587SOL    HW234595   8.993  11.347   7.656
77588SOL     OW34596   4.559   3.774   1.692
77588SOL    HW134597   4.542   3.721   1.615
77588SOL    HW234598   4.654   3.776   1.700
77589SOL     OW34599   1.491  14.772  12.628
77589SOL    HW134600   1.428  14.737  12.691
77589SOL    HW234601   1.496  14.705  12.560
77590SOL     OW34602   1.324   2.241  12.374
77590SOL    HW134603   1.319   2.214  12.466
77590SOL    HW234604   1.235   2.228  12.341
77591SOL     OW34605   6.791  10.071   0.559
77591SOL    HW134606   6.712  10.120   0.537
77591SOL    HW234607   6.805  10.014   0.484
77592SOL     OW34608  11.715   3.241   7.030
77592SOL    HW134609  11.645   3.185   6.996
77592SOL    HW234610  11.737   3.204   7.115
77593SOL     OW34611   6.773   7.549  14.346
77593SOL    HW134612   6.804   7.494  14.274
77593SOL    HW234613   6.693   7.505  14.376
77594SOL     OW34614  10.221   0.614   5.267
77594SOL    HW134615  10.181   0.573   5.344
77594SOL    HW234616  10.303   0.651   5.300
77595SOL     OW34617   3.753   5.533   2.673
77595SOL    HW134618   3.785   5.481   2.599
77595SOL    HW234619   3.820   5.523   2.740
77596SOL     OW34620  13.131   2.826   6.152
77596SOL    HW134621  13.139   2.853   6.244
77596SOL    HW234622  13.211   2.859   6.110
77597SOL     OW34623   6.219  10.593   6.035
77597SOL    HW134624   6.296  10.553   6.077
77597SOL    HW234625   6.242  10.596   5.942
77598SOL     OW34626   7.614   1.987   5.470
77598SOL    HW134627   7.572   1.920   5.524
77598SOL    HW234628   7.687   2.018   5.523
77599SOL     OW34629   3.808  11.073  14.529
77599SOL    HW134630   3.805  10.994  14.476
77599SOL    HW234631   3.800  11.145  14.465
77600SOL     OW34632  10.016   4.163   4.837
77600SOL    HW134633   9.936   4.211   4.855
77600SOL    HW234634  10.086   4.229   4.844
77601SOL     OW34635  11.618   4.754   9.509
77601SOL    HW134636  11.547   4.814   9.485
77601SOL    HW234637  11.644   4.781   9.597
77602SOL     OW34638   3.528   7.034  13.833
77602SOL    HW134639   3.532   7.107  13.771
77602SOL    HW234640   3.620   7.021  13.859
77603SOL     OW34641  14.038   2.582  11.011
77603SOL    HW134642  14.017   2.549  10.924
77603SOL    HW234643  14.098   2.655  10.995
77604SOL     OW34644   5.352  10.121   0.343
77604SOL    HW134645   5.308  10.046   0.302
77604SOL    HW234646   5.355  10.098   0.436
77605SOL     OW34647   2.416   9.412   4.216
77605SOL    HW134648   2.379   9.440   4.133
77605SOL    HW234649   2.499   9.460   4.222
77606SOL     OW34650   9.169  12.441   1.681
77606SOL    HW134651   9.227  12.404   1.748
77606SOL    HW234652   9.081  12.428   1.717
77607SOL     OW34653  12.861   1.850  12.181
77607SOL    HW134654  12.781   1.870  12.230
77607SOL    HW234655  12.860   1.912  12.108
77608SOL     OW34656   0.807   8.202   8.988
77608SOL    HW134657   0.796   8.121   9.037
77608SOL    HW234658   0.873   8.251   9.038
77609SOL     OW34659   7.053  12.092   8.791
77609SOL    HW134660   6.964  12.109   8.758
77609SOL    HW234661   7.106  12.162   8.753
77610SOL     OW34662   4.282  12.419   8.615
77610SOL    HW134663   4.203  12.426   8.561
77610SOL    HW234664   4.351  12.393   8.553
77611SOL     OW34665  12.359   2.208  13.942
77611SOL    HW134666  12.348   2.232  13.850
77611SOL    HW234667  12.453   2.212  13.957
77612SOL     OW34668   3.528   5.320   4.880
77612SOL    HW134669   3.497   5.229   4.875
77612SOL    HW234670   3.453   5.372   4.854
77613SOL     OW34671   9.704  10.945   1.278
77613SOL    HW134672   9.676  10.853   1.273
77613SOL    HW234673   9.788  10.941   1.325
77614SOL     OW34674   1.678  13.054   4.819
77614SOL    HW134675   1.648  13.145   4.812
77614SOL    HW234676   1.618  13.014   4.882
77615SOL     OW34677   1.363  12.560   7.807
77615SOL    HW134678   1.320  12.620   7.746
77615SOL    HW234679   1.392  12.616   7.878
77616SOL     OW34680   3.463   1.633   8.622
77616SOL    HW134681   3.500   1.637   8.710
77616SOL    HW234682   3.526   1.680   8.567
77617SOL     OW34683  10.914   3.956  11.733
77617SOL    HW134684  10.869   3.925  11.812
77617SOL    HW234685  10.907   3.883  11.671
77618SOL     OW34686  10.991   4.266  11.087
77618SOL    HW134687  10.901   4.286  11.110
77618SOL    HW234688  11.001   4.172  11.102
77619SOL     OW34689  10.465   1.446  11.086
77619SOL    HW134690  10.395   1.381  11.088
77619SOL    HW234691  10.439   1.508  11.018
77620SOL     OW34692  14.703  11.971  12.397
77620SOL    HW134693  14.744  11.949  12.481
77620SOL    HW234694  14.697  12.067  12.398
77621SOL     OW34695   2.299   2.910   5.239
77621SOL    HW134696   2.339   2.996   5.253
77621SOL    HW234697   2.251   2.919   5.157
77622SOL     OW34698   4.247   4.369   8.138
77622SOL    HW134699   4.221   4.378   8.046
77622SOL    HW234700   4.325   4.424   8.146
77623SOL     OW34701  13.651   5.784   2.573
77623SOL    HW134702  13.627   5.876   2.575
77623SOL    HW234703  13.690   5.768   2.659
77624SOL     OW34704   9.433  10.186   2.448
77624SOL    HW134705   9.355  10.239   2.462
77624SOL    HW234706   9.502  10.249   2.431
77625SOL     OW34707   9.622   3.969   0.697
77625SOL    HW134708   9.581   4.051   0.669
77625SOL    HW234709   9.701   3.996   0.744
77626SOL     OW34710   8.093  14.546   6.377
77626SOL    HW134711   7.998  14.549   6.382
77626SOL    HW234712   8.116  14.611   6.311
77627SOL     OW34713   4.041  13.344   0.808
77627SOL    HW134714   4.013  13.259   0.775
77627SOL    HW234715   3.990  13.357   0.888
77628SOL     OW34716  10.275  10.749   5.085
77628SOL    HW134717  10.291  10.740   4.991
77628SOL    HW234718  10.338  10.815   5.114
77629SOL     OW34719   6.773  12.685   7.266
77629SOL    HW134720   6.848  12.676   7.208
77629SOL    HW234721   6.698  12.694   7.208
77630SOL     OW34722   2.956   3.085   8.438
77630SOL    HW134723   2.962   3.103   8.344
77630SOL    HW234724   2.864   3.061   8.452
77631SOL     OW34725   5.951   7.672   0.709
77631SOL    HW134726   5.985   7.725   0.781
77631SOL    HW234727   5.861   7.652   0.734
77632SOL     OW34728   8.692  13.183   9.754
77632SOL    HW134729   8.778  13.214   9.781
77632SOL    HW234730   8.630  13.235   9.805
77633SOL     OW34731  10.128  10.385   0.196
77633SOL    HW134732  10.105  10.476   0.213
77633SOL    HW234733  10.046  10.337   0.208
77634SOL     OW34734  11.799  13.404   9.240
77634SOL    HW134735  11.847  13.421   9.159
77634SOL    HW234736  11.747  13.483   9.255
77635SOL     OW34737   6.609   2.638  14.762
77635SOL    HW134738   6.565   2.594  14.835
77635SOL    HW234739   6.664   2.704  14.804
77636SOL     OW34740  14.558   8.570   3.929
77636SOL    HW134741  14.463   8.568   3.926
77636SOL    HW234742  14.579   8.559   4.022
77637SOL     OW34743   1.134   0.627   7.342
77637SOL    HW134744   1.157   0.556   7.282
77637SOL    HW234745   1.212   0.683   7.344
77638SOL     OW34746   2.519   1.364  11.874
77638SOL    HW134747   2.604   1.327  11.854
77638SOL    HW234748   2.519   1.375  11.969
77639SOL     OW34749  14.207   5.784   9.132
77639SOL    HW134750  14.236   5.717   9.193
77639SOL    HW234751  14.154   5.843   9.184
77640SOL     OW34752   1.247  10.092   2.526
77640SOL    HW134753   1.170  10.132   2.485
77640SOL    HW234754   1.310  10.082   2.455
77641SOL     OW34755   4.037   5.717   1.623
77641SOL    HW134756   4.100   5.714   1.551
77641SOL    HW234757   4.004   5.807   1.622
77642SOL     OW34758  14.016  14.724   5.392
77642SOL    HW134759  14.057  14.766   5.468
77642SOL    HW234760  13.936  14.684   5.427
77643SOL     OW34761  14.336   9.132   7.702
77643SOL    HW134762  14.363   9.063   7.762
77643SOL    HW234763  14.416   9.155   7.655
77644SOL     OW34764  12.075   5.628  12.458
77644SOL    HW134765  12.134   5.576  12.404
77644SOL    HW234766  12.026   5.682  12.396
77645SOL     OW34767   8.121  11.120   7.227
77645SOL    HW134768   8.027  11.100   7.236
77645SOL    HW234769   8.133  11.201   7.276
77646SOL     OW34770  10.990   3.927   0.425
77646SOL    HW134771  11.006   3.849   0.478
77646SOL    HW234772  10.930   3.980   0.478
77647SOL     OW34773  11.344   3.830  14.277
77647SOL    HW134774  11.363   3.757  14.218
77647SOL    HW234775  11.402   3.816  14.352
77648SOL     OW34776   2.969   7.144   7.698
77648SOL    HW134777   2.936   7.150   7.609
77648SOL    HW234778   2.896   7.173   7.753
77649SOL     OW34779  14.713   2.933   3.407
77649SOL    HW134780  14.688   3.011   3.456
77649SOL    HW234781  14.631   2.892   3.382
77650SOL     OW34782  10.800   3.395  10.056
77650SOL    HW134783  10.738   3.339  10.009
77650SOL    HW234784  10.747   3.436  10.125
77651SOL     OW34785   1.262   5.456   9.638
77651SOL    HW134786   1.257   5.551   9.627
77651SOL    HW234787   1.177   5.432   9.675
77652SOL     OW34788   4.046   1.918  12.001
77652SOL    HW134789   4.065   1.975  11.927
77652SOL    HW234790   3.953   1.933  12.021
77653SOL     OW34791   3.221  12.150   4.329
77653SOL    HW134792   3.311  12.139   4.298
77653SOL    HW234793   3.206  12.075   4.386
77654SOL     OW34794   7.040   2.728   5.380
77654SOL    HW134795   7.057   2.637   5.404
77654SOL    HW234796   7.112   2.777   5.421
77655SOL     OW34797   1.262   3.892   1.179
77655SOL    HW134798   1.209   3.821   1.143
77655SOL    HW234799   1.208   3.970   1.166
77656SOL     OW34800   6.384  11.497   9.032
77656SOL    HW134801   6.405  11.458   9.117
77656SOL    HW234802   6.292  11.525   9.041
77657SOL     OW34803   5.475   5.900   1.298
77657SOL    HW134804   5.456   5.901   1.204
77657SOL    HW234805   5.510   5.987   1.316
77658SOL     OW34806  10.085   1.313   6.600
77658SOL    HW134807  10.056   1.336   6.689
77658SOL    HW234808  10.068   1.219   6.593
77659SOL     OW34809   0.214   2.930   1.319
77659SOL    HW134810   0.121   2.940   1.342
77659SOL    HW234811   0.231   2.837   1.333
77660SOL     OW34812   5.204  12.769   0.651
77660SOL    HW134813   5.282  12.729   0.690
77660SOL    HW234814   5.202  12.858   0.688
77661SOL     OW34815  11.268   6.788  11.646
77661SOL    HW134816  11.260   6.829  11.732
77661SOL    HW234817  11.180   6.760  11.624
77662SOL     OW34818   8.062   7.921   0.739
77662SOL    HW134819   8.048   7.851   0.675
77662SOL    HW234820   8.084   7.997   0.685
77663SOL     OW34821   6.247  14.709   3.584
77663SOL    HW134822   6.191  14.782   3.611
77663SOL    HW234823   6.335  14.748   3.578
77664SOL     OW34824  12.022  13.474  14.661
77664SOL    HW134825  12.106  13.520  14.658
77664SOL    HW234826  11.997  13.466  14.569
77665SOL     OW34827   1.162  13.557  10.817
77665SOL    HW134828   1.194  13.603  10.895
77665SOL    HW234829   1.220  13.482  10.808
77666SOL     OW34830   5.457   0.999  14.485
77666SOL    HW134831   5.515   0.928  14.513
77666SOL    HW234832   5.503   1.039  14.411
77667SOL     OW34833   1.705   7.510  14.652
77667SOL    HW134834   1.635   7.540  14.711
77667SOL    HW234835   1.777   7.570  14.669
77668SOL     OW34836   3.892   4.012   8.622
77668SOL    HW134837   3.867   4.040   8.710
77668SOL    HW234838   3.976   4.056   8.606
77669SOL     OW34839  13.065   3.871   1.240
77669SOL    HW134840  13.149   3.896   1.203
77669SOL    HW234841  13.085   3.847   1.331
77670SOL     OW34842  12.146   5.059   2.023
77670SOL    HW134843  12.066   5.023   2.060
77670SOL    HW234844  12.174   4.994   1.958
77671SOL     OW34845   9.114   6.224  11.067
77671SOL    HW134846   9.067   6.178  11.136
77671SOL    HW234847   9.199   6.246  11.106
77672SOL     OW34848   0.865   9.035  14.349
77672SOL    HW134849   0.899   9.123  14.357
77672SOL    HW234850   0.784   9.036  14.401
77673SOL     OW34851  13.889   0.510   9.713
77673SOL    HW134852  13.981   0.486   9.722
77673SOL    HW234853  13.851   0.494   9.799
77674SOL     OW34854   5.348   1.844  12.585
77674SOL    HW134855   5.326   1.768  12.531
77674SOL    HW234856   5.433   1.874  12.552
77675SOL     OW34857   2.653   4.369   3.143
77675SOL    HW134858   2.658   4.460   3.174
77675SOL    HW234859   2.740   4.351   3.107
77676SOL     OW34860   7.209   7.351   2.509
77676SOL    HW134861   7.126   7.387   2.540
77676SOL    HW234862   7.185   7.270   2.463
77677SOL     OW34863   2.873  12.580  12.207
77677SOL    HW134864   2.939  12.641  12.176
77677SOL    HW234865   2.909  12.544  12.288
77678SOL     OW34866   7.456  11.843   5.624
77678SOL    HW134867   7.482  11.843   5.532
77678SOL    HW234868   7.398  11.919   5.632
77679SOL     OW34869  13.487  12.898   1.761
77679SOL    HW134870  13.518  12.989   1.755
77679SOL    HW234871  13.496  12.876   1.854
77680SOL     OW34872   9.868  12.091   9.031
77680SOL    HW134873   9.825  12.034   9.095
77680SOL    HW234874   9.831  12.066   8.947
77681SOL     OW34875   1.533   2.396   1.950
77681SOL    HW134876   1.585   2.359   2.021
77681SOL    HW234877   1.593   2.457   1.905
77682SOL     OW34878  13.505  14.665   4.230
77682SOL    HW134879  13.595  14.660   4.262
77682SOL    HW234880  13.459  14.595   4.276
77683SOL     OW34881   2.575  13.696  12.167
77683SOL    HW134882   2.595  13.641  12.242
77683SOL    HW234883   2.600  13.784  12.194
77684SOL     OW34884  11.510  12.967   2.856
77684SOL    HW134885  11.440  12.927   2.907
77684SOL    HW234886  11.558  13.021   2.920
77685SOL     OW34887   2.805  10.906  11.516
77685SOL    HW134888   2.835  10.997  11.526
77685SOL    HW234889   2.818  10.888  11.422
77686SOL     OW34890  11.744   6.356   7.046
77686SOL    HW134891  11.800   6.329   6.973
77686SOL    HW234892  11.688   6.424   7.009
77687SOL     OW34893   1.604   4.727   3.832
77687SOL    HW134894   1.606   4.819   3.859
77687SOL    HW234895   1.693   4.710   3.801
77688SOL     OW34896   7.513  11.321  13.866
77688SOL    HW134897   7.494  11.383  13.795
77688SOL    HW234898   7.484  11.366  13.945
77689SOL     OW34899  14.367  10.289   4.972
77689SOL    HW134900  14.415  10.286   5.054
77689SOL    HW234901  14.308  10.214   4.975
77690SOL     OW34902   6.313  10.689   2.132
77690SOL    HW134903   6.326  10.740   2.213
77690SOL    HW234904   6.276  10.606   2.162
77691SOL     OW34905   4.956   4.407   8.440
77691SOL    HW134906   4.898   4.481   8.424
77691SOL    HW234907   4.971   4.407   8.534
77692SOL     OW34908   0.680  11.475  14.155
77692SOL    HW134909   0.715  11.397  14.114
77692SOL    HW234910   0.757  11.527  14.177
77693SOL     OW34911  11.795  11.269   5.991
77693SOL    HW134912  11.803  11.175   6.005
77693SOL    HW234913  11.772  11.304   6.078
77694SOL     OW34914  14.219  13.294   4.265
77694SOL    HW134915  14.252  13.330   4.182
77694SOL    HW234916  14.286  13.317   4.329
77695SOL     OW34917   3.937   3.261   4.755
77695SOL    HW134918   3.896   3.335   4.711
77695SOL    HW234919   3.866   3.220   4.805
77696SOL     OW34920   8.710   3.517   1.080
77696SOL    HW134921   8.662   3.447   1.035
77696SOL    HW234922   8.656   3.595   1.067
77697SOL     OW34923   2.145  14.058  11.347
77697SOL    HW134924   2.110  14.016  11.269
77697SOL    HW234925   2.237  14.075  11.326
77698SOL     OW34926   7.613  11.437   0.603
77698SOL    HW134927   7.531  11.485   0.617
77698SOL    HW234928   7.593  11.376   0.532
77699SOL     OW34929  14.810  13.872   8.878
77699SOL    HW134930  14.775  13.788   8.850
77699SOL    HW234931  14.819  13.922   8.797
77700SOL     OW34932   6.702   5.963  12.759
77700SOL    HW134933   6.762   6.029  12.725
77700SOL    HW234934   6.757   5.887  12.778
77701SOL     OW34935   5.490   8.857   6.985
77701SOL    HW134936   5.561   8.915   6.959
77701SOL    HW234937   5.495   8.784   6.923
77702SOL     OW34938   1.071   9.823   4.227
77702SOL    HW134939   1.140   9.765   4.258
77702SOL    HW234940   1.116   9.885   4.170
77703SOL     OW34941  10.128  11.232   3.157
77703SOL    HW134942  10.144  11.139   3.138
77703SOL    HW234943  10.089  11.266   3.076
77704SOL     OW34944  12.061   2.174   0.328
77704SOL    HW134945  12.021   2.259   0.312
77704SOL    HW234946  11.990   2.111   0.311
77705SOL     OW34947   5.573   7.701   1.641
77705SOL    HW134948   5.658   7.658   1.644
77705SOL    HW234949   5.574   7.763   1.713
77706SOL     OW34950   0.277  12.254   3.951
77706SOL    HW134951   0.234  12.169   3.950
77706SOL    HW234952   0.235  12.303   3.879
77707SOL     OW34953   3.094  12.801   5.369
77707SOL    HW134954   3.128  12.840   5.288
77707SOL    HW234955   3.172  12.788   5.424
77708SOL     OW34956  13.120   0.352  10.760
77708SOL    HW134957  13.129   0.388  10.672
77708SOL    HW234958  13.190   0.287  10.767
77709SOL     OW34959   9.379  11.571  12.851
77709SOL    HW134960   9.450  11.530  12.801
77709SOL    HW234961   9.349  11.643  12.796
77710SOL     OW34962  10.893  13.854  12.193
77710SOL    HW134963  10.962  13.880  12.253
77710SOL    HW234964  10.898  13.917  12.121
77711SOL     OW34965  11.417   8.864   3.046
77711SOL    HW134966  11.361   8.941   3.058
77711SOL    HW234967  11.371   8.811   2.981
77712SOL     OW34968   8.612   9.059   8.469
77712SOL    HW134969   8.551   9.002   8.421
77712SOL    HW234970   8.697   9.044   8.428
77713SOL     OW34971   8.871   4.407  13.114
77713SOL    HW134972   8.965   4.391  13.121
77713SOL    HW234973   8.845   4.358  13.036
77714SOL     OW34974  10.796   1.430  13.161
77714SOL    HW134975  10.780   1.524  13.153
77714SOL    HW234976  10.772   1.409  13.251
77715SOL     OW34977   0.999  10.165   9.056
77715SOL    HW134978   1.054  10.223   9.003
77715SOL    HW234979   0.912  10.171   9.017
77716SOL     OW34980   1.422  14.647   3.375
77716SOL    HW134981   1.437  14.639   3.470
77716SOL    HW234982   1.369  14.726   3.366
77717SOL     OW34983  10.572   0.648   0.273
77717SOL    HW134984  10.647   0.654   0.215
77717SOL    HW234985  10.533   0.736   0.271
77718SOL     OW34986   8.931   4.992   2.412
77718SOL    HW134987   8.899   5.047   2.341
77718SOL    HW234988   8.861   4.992   2.477
77719SOL     OW34989   1.392   3.274  14.683
77719SOL    HW134990   1.360   3.359  14.652
77719SOL    HW234991   1.389   3.218  14.606
77720SOL     OW34992   6.376   7.278   1.280
77720SOL    HW134993   6.364   7.354   1.337
77720SOL    HW234994   6.437   7.307   1.212
77721SOL     OW34995   1.356   4.424  10.463
77721SOL    HW134996   1.353   4.329  10.453
77721SOL    HW234997   1.275   4.447  10.507
77722SOL     OW34998   9.024   9.455   3.283
77722SOL    HW134999   8.994   9.526   3.339
77722SOL    HW235000   8.970   9.380   3.307
77723SOL     OW35001   6.023  10.435   4.997
77723SOL    HW135002   6.089  10.429   4.928
77723SOL    HW235003   5.988  10.346   5.004
77724SOL     OW35004  10.145   9.985  12.337
77724SOL    HW135005  10.146   9.909  12.395
77724SOL    HW235006  10.195   9.957  12.261
77725SOL     OW35007   0.044   7.935   5.830
77725SOL    HW135008   0.127   7.907   5.790
77725SOL    HW235009   0.008   7.855   5.869
77726SOL     OW35010  11.724  11.308   5.467
77726SOL    HW135011  11.756  11.346   5.385
77726SOL    HW235012  11.800  11.259   5.501
77727SOL     OW35013   1.974  10.421   2.800
77727SOL    HW135014   1.942  10.363   2.731
77727SOL    HW235015   2.045  10.471   2.760
77728SOL     OW35016   8.281   2.037   1.610
77728SOL    HW135017   8.255   2.054   1.700
77728SOL    HW235018   8.213   2.080   1.557
77729SOL     OW35019   0.652   5.553   4.320
77729SOL    HW135020   0.602   5.609   4.380
77729SOL    HW235021   0.606   5.559   4.237
77730SOL     OW35022   1.988   0.598   2.088
77730SOL    HW135023   1.936   0.525   2.053
77730SOL    HW235024   2.060   0.555   2.134
77731SOL     OW35025   4.332  14.685  12.314
77731SOL    HW135026   4.321  14.779  12.298
77731SOL    HW235027   4.300  14.644  12.233
77732SOL     OW35028  12.826  10.601   7.706
77732SOL    HW135029  12.824  10.565   7.617
77732SOL    HW235030  12.834  10.695   7.694
77733SOL     OW35031   5.211   8.525   3.672
77733SOL    HW135032   5.240   8.433   3.671
77733SOL    HW235033   5.252   8.561   3.751
77734SOL     OW35034   4.360   5.070  10.942
77734SOL    HW135035   4.294   5.050  11.009
77734SOL    HW235036   4.418   5.134  10.985
77735SOL     OW35037  12.722   5.820   3.881
77735SOL    HW135038  12.768   5.740   3.906
77735SOL    HW235039  12.683   5.851   3.963
77736SOL     OW35040   8.180   3.146  13.461
77736SOL    HW135041   8.190   3.186  13.547
77736SOL    HW235042   8.250   3.185  13.409
77737SOL     OW35043   8.265   6.837  11.592
77737SOL    HW135044   8.320   6.776  11.543
77737SOL    HW235045   8.279   6.921  11.550
77738SOL     OW35046  12.117   2.707  11.761
77738SOL    HW135047  12.114   2.727  11.668
77738SOL    HW235048  12.071   2.780  11.803
77739SOL     OW35049   4.522   3.166  12.103
77739SOL    HW135050   4.475   3.111  12.166
77739SOL    HW235051   4.596   3.113  12.076
77740SOL     OW35052   4.058  14.592  10.910
77740SOL    HW135053   4.063  14.560  10.820
77740SOL    HW235054   4.061  14.687  10.902
77741SOL     OW35055   7.997  12.475   3.722
77741SOL    HW135056   7.967  12.548   3.777
77741SOL    HW235057   7.931  12.467   3.653
77742SOL     OW35058   7.609   5.769   0.822
77742SOL    HW135059   7.550   5.799   0.891
77742SOL    HW235060   7.558   5.775   0.742
77743SOL     OW35061   3.817   7.749   3.217
77743SOL    HW135062   3.859   7.664   3.207
77743SOL    HW235063   3.889   7.811   3.222
77744SOL     OW35064   2.458   2.700   8.654
77744SOL    HW135065   2.427   2.783   8.690
77744SOL    HW235066   2.392   2.675   8.591
77745SOL     OW35067   8.949  14.840  13.063
77745SOL    HW135068   8.991  14.852  12.978
77745SOL    HW235069   9.016  14.866  13.126
77746SOL     OW35070   8.863   0.029   4.824
77746SOL    HW135071   8.879  14.838   4.888
77746SOL    HW235072   8.944   0.080   4.825
77747SOL     OW35073  13.430   4.175   0.074
77747SOL    HW135074  13.518   4.153   0.106
77747SOL    HW235075  13.382   4.092   0.077
77748SOL     OW35076  12.250   6.733   3.009
77748SOL    HW135077  12.250   6.671   3.081
77748SOL    HW235078  12.338   6.771   3.009
77749SOL     OW35079   7.223   0.807  12.183
77749SOL    HW135080   7.145   0.820  12.237
77749SOL    HW235081   7.239   0.713  12.186
77750SOL     OW35082   5.585   5.976  11.384
77750SOL    HW135083   5.513   5.933  11.430
77750SOL    HW235084   5.616   5.911  11.321
77751SOL     OW35085   3.266  14.806  11.697
77751SOL    HW135086   3.227  14.820  11.784
77751SOL    HW235087   3.326   0.001  11.686
77752SOL     OW35088   0.890  12.003   8.004
77752SOL    HW135089   0.933  12.039   8.083
77752SOL    HW235090   0.955  11.942   7.968
77753SOL     OW35091   4.956   2.008  13.711
77753SOL    HW135092   4.886   1.978  13.653
77753SOL    HW235093   4.972   2.099  13.685
77754SOL     OW35094   9.875  14.309   9.489
77754SOL    HW135095   9.877  14.387   9.544
77754SOL    HW235096   9.781  14.289   9.479
77755SOL     OW35097  12.044   3.889  10.035
77755SOL    HW135098  12.113   3.874  10.100
77755SOL    HW235099  12.009   3.975  10.056
77756SOL     OW35100   7.143   7.016   7.255
77756SOL    HW135101   7.216   7.069   7.287
77756SOL    HW235102   7.168   6.926   7.277
77757SOL     OW35103  12.756   4.339  13.767
77757SOL    HW135104  12.807   4.411  13.804
77757SOL    HW235105  12.797   4.323  13.681
77758SOL     OW35106  13.581   8.747   8.455
77758SOL    HW135107  13.511   8.704   8.504
77758SOL    HW235108  13.602   8.687   8.384
77759SOL     OW35109   4.915  10.004   9.460
77759SOL    HW135110   4.997   9.995   9.412
77759SOL    HW235111   4.847   9.999   9.394
77760SOL     OW35112  10.149   1.310   7.883
77760SOL    HW135113  10.107   1.395   7.896
77760SOL    HW235114  10.163   1.276   7.972
77761SOL     OW35115   1.957  14.164   9.800
77761SOL    HW135116   1.876  14.114   9.804
77761SOL    HW235117   1.930  14.253   9.775
77762SOL     OW35118   9.673   8.324   9.419
77762SOL    HW135119   9.617   8.300   9.493
77762SOL    HW235120   9.617   8.373   9.360
77763SOL     OW35121  10.990   6.557   7.703
77763SOL    HW135122  11.011   6.647   7.679
77763SOL    HW235123  11.053   6.504   7.654
77764SOL     OW35124   2.060  11.995  14.781
77764SOL    HW135125   1.986  12.030  14.831
77764SOL    HW235126   2.031  12.001  14.690
77765SOL     OW35127   5.104  13.509   9.630
77765SOL    HW135128   5.091  13.533   9.722
77765SOL    HW235129   5.123  13.592   9.586
77766SOL     OW35130   1.911   8.745   3.056
77766SOL    HW135131   1.940   8.811   2.993
77766SOL    HW235132   1.985   8.684   3.061
77767SOL     OW35133   0.524   8.996   1.441
77767SOL    HW135134   0.430   9.015   1.450
77767SOL    HW235135   0.528   8.906   1.410
77768SOL     OW35136  10.139  10.916   9.002
77768SOL    HW135137  10.120  10.967   9.081
77768SOL    HW235138  10.160  10.982   8.936
77769SOL     OW35139   9.376   3.549   5.374
77769SOL    HW135140   9.462   3.506   5.368
77769SOL    HW235141   9.342   3.523   5.460
77770SOL     OW35142   6.044   9.174   3.102
77770SOL    HW135143   6.007   9.228   3.032
77770SOL    HW235144   6.095   9.107   3.056
77771SOL     OW35145   1.786  10.598   2.926
77771SOL    HW135146   1.834  10.667   2.973
77771SOL    HW235147   1.850  10.527   2.919
77772SOL     OW35148   5.574   2.792   5.654
77772SOL    HW135149   5.651   2.849   5.661
77772SOL    HW235150   5.577   2.737   5.732
77773SOL     OW35151   5.527   1.673   9.168
77773SOL    HW135152   5.504   1.704   9.081
77773SOL    HW235153   5.620   1.695   9.177
77774SOL     OW35154  12.512   5.296  11.125
77774SOL    HW135155  12.544   5.231  11.188
77774SOL    HW235156  12.569   5.371  11.137
77775SOL     OW35157  11.709   0.220  13.420
77775SOL    HW135158  11.672   0.140  13.458
77775SOL    HW235159  11.710   0.204  13.326
77776SOL     OW35160  13.849  14.441   6.128
77776SOL    HW135161  13.801  14.464   6.049
77776SOL    HW235162  13.858  14.524   6.176
77777SOL     OW35163   5.006  12.765   4.356
77777SOL    HW135164   4.981  12.754   4.264
77777SOL    HW235165   4.966  12.847   4.382
77778SOL     OW35166  11.366   3.534   8.944
77778SOL    HW135167  11.388   3.547   8.851
77778SOL    HW235168  11.325   3.616   8.971
77779SOL     OW35169   5.069   7.675   5.013
77779SOL    HW135170   5.141   7.719   5.057
77779SOL    HW235171   5.080   7.582   5.035
77780SOL     OW35172  12.716   1.624   1.792
77780SOL    HW135173  12.715   1.603   1.885
77780SOL    HW235174  12.653   1.562   1.753
77781SOL     OW35175  11.589  14.851   0.307
77781SOL    HW135176  11.554  14.825   0.221
77781SOL    HW235177  11.520  14.829   0.369
77782SOL     OW35178   8.492   3.951   7.980
77782SOL    HW135179   8.564   3.903   8.022
77782SOL    HW235180   8.414   3.901   8.002
77783SOL     OW35181  11.642   4.040   5.174
77783SOL    HW135182  11.713   4.101   5.154
77783SOL    HW235183  11.621   3.998   5.091
77784SOL     OW35184  12.844   5.441  13.026
77784SOL    HW135185  12.923   5.405  12.986
77784SOL    HW235186  12.830   5.524  12.980
77785SOL     OW35187  10.610   7.478   0.569
77785SOL    HW135188  10.660   7.435   0.639
77785SOL    HW235189  10.527   7.502   0.610
77786SOL     OW35190  14.104  14.860  14.433
77786SOL    HW135191  14.141   0.061  14.396
77786SOL    HW235192  14.135  14.860  14.524
77787SOL     OW35193   2.277  13.118  10.205
77787SOL    HW135194   2.185  13.145  10.212
77787SOL    HW235195   2.293  13.111  10.111
77788SOL     OW35196  12.001  14.641  10.286
77788SOL    HW135197  12.034  14.552  10.275
77788SOL    HW235198  11.946  14.636  10.365
77789SOL     OW35199  12.050   9.541   6.927
77789SOL    HW135200  12.094   9.470   6.974
77789SOL    HW235201  12.016   9.500   6.848
77790SOL     OW35202   9.728   3.407  10.026
77790SOL    HW135203   9.695   3.489  10.062
77790SOL    HW235204   9.659   3.343  10.044
77791SOL     OW35205   5.429  10.134  11.074
77791SOL    HW135206   5.478  10.156  10.994
77791SOL    HW235207   5.484  10.069  11.118
77792SOL     OW35208  11.436   8.441   2.511
77792SOL    HW135209  11.382   8.386   2.567
77792SOL    HW235210  11.522   8.443   2.554
77793SOL     OW35211   8.584  11.038  10.121
77793SOL    HW135212   8.619  11.125  10.103
77793SOL    HW235213   8.512  11.053  10.182
77794SOL     OW35214   4.055  11.902  12.330
77794SOL    HW135215   4.008  11.835  12.280
77794SOL    HW235216   4.145  11.896  12.299
77795SOL     OW35217   4.765   5.272   9.514
77795SOL    HW135218   4.738   5.220   9.590
77795SOL    HW235219   4.704   5.346   9.512
77796SOL     OW35220  14.096   5.720   3.644
77796SOL    HW135221  14.179   5.768   3.634
77796SOL    HW235222  14.106   5.673   3.727
77797SOL     OW35223  10.094   8.590   0.490
77797SOL    HW135224  10.102   8.680   0.460
77797SOL    HW235225  10.166   8.544   0.448
77798SOL     OW35226   8.361  12.064   3.345
77798SOL    HW135227   8.333  12.023   3.264
77798SOL    HW235228   8.424  12.131   3.317
77799SOL     OW35229   2.943  10.945   7.669
77799SOL    HW135230   2.983  10.922   7.753
77799SOL    HW235231   3.017  10.966   7.613
77800SOL     OW35232  11.764   5.021   0.098
77800SOL    HW135233  11.845   4.977   0.075
77800SOL    HW235234  11.756   5.093   0.035
77801SOL     OW35235  12.537   6.266   2.222
77801SOL    HW135236  12.578   6.351   2.208
77801SOL    HW235237  12.607   6.210   2.257
77802SOL     OW35238  14.678  12.917   0.668
77802SOL    HW135239  14.587  12.888   0.658
77802SOL    HW235240  14.681  12.958   0.754
77803SOL     OW35241  10.992   2.212   8.288
77803SOL    HW135242  10.982   2.306   8.302
77803SOL    HW235243  10.983   2.200   8.194
77804SOL     OW35244   2.567   6.352   8.148
77804SOL    HW135245   2.635   6.285   8.162
77804SOL    HW235246   2.503   6.308   8.091
77805SOL     OW35247   4.856  13.082   5.634
77805SOL    HW135248   4.833  13.086   5.542
77805SOL    HW235249   4.922  13.151   5.645
77806SOL     OW35250  11.675  12.921  10.332
77806SOL    HW135251  11.685  12.841  10.384
77806SOL    HW235252  11.716  12.900  10.248
77807SOL     OW35253   1.904   2.671   6.738
77807SOL    HW135254   1.958   2.735   6.785
77807SOL    HW235255   1.817   2.713   6.733
77808SOL     OW35256  10.339   9.711  13.332
77808SOL    HW135257  10.409   9.648  13.315
77808SOL    HW235258  10.301   9.682  13.415
77809SOL     OW35259   5.132   3.995  11.377
77809SOL    HW135260   5.066   3.982  11.310
77809SOL    HW235261   5.085   4.032  11.452
77810SOL     OW35262  10.710  11.483   1.775
77810SOL    HW135263  10.622  11.447   1.789
77810SOL    HW235264  10.704  11.530   1.692
77811SOL     OW35265   6.009   9.658  11.666
77811SOL    HW135266   6.002   9.753  11.656
77811SOL    HW235267   5.924   9.630  11.700
77812SOL     OW35268  13.638   9.782   3.620
77812SOL    HW135269  13.626   9.705   3.565
77812SOL    HW235270  13.624   9.856   3.562
77813SOL     OW35271  11.010   2.519   7.958
77813SOL    HW135272  11.017   2.585   7.889
77813SOL    HW235273  10.947   2.455   7.925
77814SOL     OW35274  10.563  12.520  14.160
77814SOL    HW135275  10.655  12.495  14.147
77814SOL    HW235276  10.513  12.442  14.135
77815SOL     OW35277   0.815   4.398   1.015
77815SOL    HW135278   0.855   4.342   0.948
77815SOL    HW235279   0.868   4.383   1.093
77816SOL     OW35280  14.846  12.230   8.330
77816SOL    HW135281  14.840  12.240   8.425
77816SOL    HW235282  14.872  12.316   8.298
77817SOL     OW35283   0.330  12.756   0.387
77817SOL    HW135284   0.279  12.709   0.322
77817SOL    HW235285   0.420  12.732   0.369
77818SOL     OW35286   2.804   6.293  11.874
77818SOL    HW135287   2.756   6.374  11.861
77818SOL    HW235288   2.786   6.267  11.964
77819SOL     OW35289   3.149   7.018   4.705
77819SOL    HW135290   3.130   7.056   4.790
77819SOL    HW235291   3.133   6.924   4.716
77820SOL     OW35292  12.848  12.785  12.549
77820SOL    HW135293  12.885  12.736  12.623
77820SOL    HW235294  12.923  12.805  12.493
77821SOL     OW35295   4.472   8.768  14.043
77821SOL    HW135296   4.554   8.765  14.093
77821SOL    HW235297   4.410   8.719  14.097
77822SOL     OW35298   4.916  13.416  11.697
77822SOL    HW135299   4.829  13.387  11.724
77822SOL    HW235300   4.905  13.440  11.605
77823SOL     OW35301   0.248   4.667   1.918
77823SOL    HW135302   0.290   4.751   1.938
77823SOL    HW235303   0.213   4.638   2.002
77824SOL     OW35304   4.414  10.927  12.914
77824SOL    HW135305   4.328  10.928  12.957
77824SOL    HW235306   4.417  10.842  12.869
77825SOL     OW35307   2.449  14.576   7.977
77825SOL    HW135308   2.468  14.563   8.070
77825SOL    HW235309   2.412  14.664   7.972
77826SOL     OW35310  13.871  12.556  13.996
77826SOL    HW135311  13.952  12.600  13.969
77826SOL    HW235312  13.876  12.554  14.092
77827SOL     OW35313   6.529  14.135  12.818
77827SOL    HW135314   6.471  14.103  12.749
77827SOL    HW235315   6.616  14.103  12.793
77828SOL     OW35316   4.091   1.696  12.475
77828SOL    HW135317   4.144   1.769  12.506
77828SOL    HW235318   4.022   1.737  12.422
77829SOL     OW35319  12.775   4.776   5.443
77829SOL    HW135320  12.752   4.685   5.461
77829SOL    HW235321  12.744   4.792   5.354
77830SOL     OW35322   7.933   0.954   7.824
77830SOL    HW135323   7.909   0.887   7.888
77830SOL    HW235324   7.904   1.036   7.863
77831SOL     OW35325   7.872   0.021   4.285
77831SOL    HW135326   7.851   0.078   4.211
77831SOL    HW235327   7.949   0.061   4.325
77832SOL     OW35328  11.699  14.247   4.406
77832SOL    HW135329  11.770  14.298   4.445
77832SOL    HW235330  11.661  14.305   4.340
77833SOL     OW35331   4.905  11.558   3.629
77833SOL    HW135332   4.923  11.603   3.712
77833SOL    HW235333   4.859  11.623   3.577
77834SOL     OW35334  10.243  12.644   2.579
77834SOL    HW135335  10.267  12.623   2.489
77834SOL    HW235336  10.152  12.672   2.574
77835SOL     OW35337   3.808   7.306  12.354
77835SOL    HW135338   3.788   7.321  12.261
77835SOL    HW235339   3.775   7.218  12.371
77836SOL     OW35340   2.243   8.768   3.219
77836SOL    HW135341   2.312   8.707   3.246
77836SOL    HW235342   2.256   8.779   3.125
77837SOL     OW35343   5.631  12.703   4.365
77837SOL    HW135344   5.653  12.674   4.277
77837SOL    HW235345   5.651  12.629   4.422
77838SOL     OW35346  10.912   6.210  11.662
77838SOL    HW135347  10.923   6.163  11.579
77838SOL    HW235348  10.853   6.155  11.713
77839SOL     OW35349   7.430   1.511   5.777
77839SOL    HW135350   7.353   1.458   5.796
77839SOL    HW235351   7.418   1.540   5.686
77840SOL     OW35352   3.480   1.155  10.155
77840SOL    HW135353   3.386   1.158  10.141
77840SOL    HW235354   3.514   1.233  10.110
77841SOL     OW35355   6.089  10.940   7.892
77841SOL    HW135356   6.007  10.934   7.842
77841SOL    HW235357   6.079  10.876   7.963
77842SOL     OW35358  11.834   1.449  10.036
77842SOL    HW135359  11.801   1.499  10.111
77842SOL    HW235360  11.822   1.357  10.061
77843SOL     OW35361   7.198   9.930  14.371
77843SOL    HW135362   7.112   9.924  14.330
77843SOL    HW235363   7.192  10.005  14.430
77844SOL     OW35364   7.105  12.597  12.486
77844SOL    HW135365   7.197  12.599  12.514
77844SOL    HW235366   7.061  12.544  12.553
77845SOL     OW35367   2.617  13.464  10.874
77845SOL    HW135368   2.568  13.498  10.799
77845SOL    HW235369   2.708  13.487  10.856
77846SOL     OW35370   0.430   7.870   3.358
77846SOL    HW135371   0.414   7.891   3.450
77846SOL    HW235372   0.348   7.892   3.314
77847SOL     OW35373  13.196   1.268   5.932
77847SOL    HW135374  13.248   1.194   5.901
77847SOL    HW235375  13.140   1.291   5.857
77848SOL     OW35376  13.382  12.393   2.851
77848SOL    HW135377  13.426  12.409   2.934
77848SOL    HW235378  13.394  12.300   2.835
77849SOL     OW35379  11.876   1.047   5.237
77849SOL    HW135380  11.812   1.116   5.252
77849SOL    HW235381  11.871   1.029   5.143
77850SOL     OW35382   1.444   0.783   1.376
77850SOL    HW135383   1.466   0.755   1.288
77850SOL    HW235384   1.525   0.822   1.410
77851SOL     OW35385   0.447  12.998   3.716
77851SOL    HW135386   0.476  13.053   3.788
77851SOL    HW235387   0.499  13.027   3.641
77852SOL     OW35388   5.561   2.961   8.966
77852SOL    HW135389   5.493   2.908   9.007
77852SOL    HW235390   5.519   2.997   8.888
77853SOL     OW35391   2.599   5.267   4.843
77853SOL    HW135392   2.666   5.275   4.774
77853SOL    HW235393   2.538   5.202   4.809
77854SOL     OW35394   3.327   4.972   3.092
77854SOL    HW135395   3.327   4.966   3.188
77854SOL    HW235396   3.247   4.926   3.065
77855SOL     OW35397   7.175  12.896   0.983
77855SOL    HW135398   7.253  12.845   0.962
77855SOL    HW235399   7.172  12.897   1.079
77856SOL     OW35400   6.221   1.202   2.118
77856SOL    HW135401   6.158   1.274   2.126
77856SOL    HW235402   6.196   1.157   2.038
77857SOL     OW35403  12.929  10.589   0.480
77857SOL    HW135404  13.016  10.628   0.478
77857SOL    HW235405  12.943  10.496   0.462
77858SOL     OW35406   4.791   8.028   6.682
77858SOL    HW135407   4.768   7.994   6.595
77858SOL    HW235408   4.885   8.015   6.689
77859SOL     OW35409   8.881   9.151   8.921
77859SOL    HW135410   8.808   9.131   8.862
77859SOL    HW235411   8.880   9.246   8.928
77860SOL     OW35412   7.715   0.667   5.325
77860SOL    HW135413   7.675   0.739   5.276
77860SOL    HW235414   7.682   0.677   5.414
77861SOL     OW35415  11.459   7.149   0.003
77861SOL    HW135416  11.421   7.090  14.817
77861SOL    HW235417  11.527   7.097   0.046
77862SOL     OW35418   0.131  11.061  13.967
77862SOL    HW135419   0.078  11.054  13.888
77862SOL    HW235420   0.175  10.977  13.974
77863SOL     OW35421   7.670  13.787   1.772
77863SOL    HW135422   7.690  13.772   1.680
77863SOL    HW235423   7.576  13.805   1.773
77864SOL     OW35424  11.435  14.654   0.830
77864SOL    HW135425  11.389  14.734   0.807
77864SOL    HW235426  11.369  14.585   0.821
77865SOL     OW35427   0.978  12.317   5.153
77865SOL    HW135428   1.020  12.234   5.134
77865SOL    HW235429   1.003  12.337   5.243
77866SOL     OW35430   7.358   5.210   2.903
77866SOL    HW135431   7.375   5.119   2.877
77866SOL    HW235432   7.445   5.250   2.911
77867SOL     OW35433   9.794  11.260   4.311
77867SOL    HW135434   9.748  11.201   4.369
77867SOL    HW235435   9.808  11.339   4.363
77868SOL     OW35436   2.322   0.368   0.792
77868SOL    HW135437   2.333   0.361   0.887
77868SOL    HW235438   2.234   0.335   0.776
77869SOL     OW35439   0.490   1.172   1.792
77869SOL    HW135440   0.515   1.247   1.846
77869SOL    HW235441   0.477   1.208   1.704
77870SOL     OW35442  12.381  14.305  12.001
77870SOL    HW135443  12.440  14.379  12.017
77870SOL    HW235444  12.312  14.315  12.066
77871SOL     OW35445   5.797   5.709  14.391
77871SOL    HW135446   5.816   5.622  14.426
77871SOL    HW235447   5.835   5.709  14.303
77872SOL     OW35448  14.036   2.945   6.539
77872SOL    HW135449  14.079   2.860   6.541
77872SOL    HW235450  14.019   2.961   6.446
77873SOL     OW35451   8.618  13.129   8.738
77873SOL    HW135452   8.676  13.099   8.808
77873SOL    HW235453   8.596  13.050   8.689
77874SOL     OW35454   1.040  13.237   9.758
77874SOL    HW135455   1.080  13.185   9.689
77874SOL    HW235456   0.999  13.310   9.713
77875SOL     OW35457   7.184   4.551  11.877
77875SOL    HW135458   7.183   4.526  11.785
77875SOL    HW235459   7.243   4.626  11.882
77876SOL     OW35460   1.442   4.802   5.494
77876SOL    HW135461   1.427   4.739   5.423
77876SOL    HW235462   1.417   4.754   5.573
77877SOL     OW35463   1.635   5.129   9.664
77877SOL    HW135464   1.584   5.049   9.649
77877SOL    HW235465   1.580   5.199   9.631
77878SOL     OW35466  11.730  13.970   4.379
77878SOL    HW135467  11.735  14.065   4.386
77878SOL    HW235468  11.638  13.950   4.396
77879SOL     OW35469   3.758  14.220  14.038
77879SOL    HW135470   3.794  14.154  14.098
77879SOL    HW235471   3.706  14.277  14.095
77880SOL     OW35472   5.936   4.661  10.641
77880SOL    HW135473   5.933   4.646  10.735
77880SOL    HW235474   5.962   4.753  10.632
77881SOL     OW35475   6.118  10.752   2.477
77881SOL    HW135476   6.135  10.673   2.529
77881SOL    HW235477   6.204  10.776   2.442
77882SOL     OW35478   7.729   9.974  13.641
77882SOL    HW135479   7.793   9.948  13.707
77882SOL    HW235480   7.687   9.892  13.615
77883SOL     OW35481   6.211  10.384   0.278
77883SOL    HW135482   6.171  10.304   0.246
77883SOL    HW235483   6.205  10.377   0.373
77884SOL     OW35484   5.484   8.491  10.783
77884SOL    HW135485   5.413   8.456  10.729
77884SOL    HW235486   5.517   8.566  10.734
77885SOL     OW35487   9.535   4.717   4.074
77885SOL    HW135488   9.600   4.661   4.032
77885SOL    HW235489   9.574   4.740   4.158
77886SOL     OW35490   3.901   2.679   0.085
77886SOL    HW135491   3.865   2.696  14.877
77886SOL    HW235492   3.894   2.763   0.130
77887SOL     OW35493  12.854   2.859   8.787
77887SOL    HW135494  12.823   2.769   8.775
77887SOL    HW235495  12.797   2.912   8.731
77888SOL     OW35496   2.674   3.504   5.700
77888SOL    HW135497   2.662   3.427   5.756
77888SOL    HW235498   2.585   3.531   5.677
77889SOL     OW35499   6.230  14.205  11.626
77889SOL    HW135500   6.187  14.268  11.569
77889SOL    HW235501   6.298  14.256  11.671
77890SOL     OW35502   1.215   2.461   0.269
77890SOL    HW135503   1.167   2.539   0.240
77890SOL    HW235504   1.146   2.398   0.292
77891SOL     OW35505   6.895   1.970   8.834
77891SOL    HW135506   6.908   1.883   8.871
77891SOL    HW235507   6.965   1.979   8.770
77892SOL     OW35508  10.636   9.907   8.268
77892SOL    HW135509  10.595   9.875   8.348
77892SOL    HW235510  10.564   9.941   8.215
77893SOL     OW35511  13.873   8.285   6.157
77893SOL    HW135512  13.827   8.214   6.202
77893SOL    HW235513  13.807   8.354   6.147
77894SOL     OW35514  10.801  12.624  11.277
77894SOL    HW135515  10.784  12.702  11.224
77894SOL    HW235516  10.805  12.656  11.367
77895SOL     OW35517   2.372   8.468  12.511
77895SOL    HW135518   2.408   8.477  12.422
77895SOL    HW235519   2.314   8.543  12.521
77896SOL     OW35520   7.153   0.672   8.171
77896SOL    HW135521   7.247   0.664   8.156
77896SOL    HW235522   7.145   0.691   8.264
77897SOL     OW35523   3.304   1.808   1.722
77897SOL    HW135524   3.314   1.771   1.810
77897SOL    HW235525   3.306   1.902   1.736
77898SOL     OW35526   6.721   5.191   7.480
77898SOL    HW135527   6.809   5.212   7.509
77898SOL    HW235528   6.694   5.266   7.427
77899SOL     OW35529   0.092   6.777   8.872
77899SOL    HW135530   0.165   6.717   8.886
77899SOL    HW235531   0.068   6.806   8.959
77900SOL     OW35532   2.853  11.863   2.666
77900SOL    HW135533   2.931  11.894   2.619
77900SOL    HW235534   2.817  11.795   2.610
77901SOL     OW35535  11.535  13.790   5.827
77901SOL    HW135536  11.580  13.775   5.910
77901SOL    HW235537  11.578  13.730   5.766
77902SOL     OW35538   0.584  10.046   3.446
77902SOL    HW135539   0.543  10.025   3.362
77902SOL    HW235540   0.628   9.966   3.473
77903SOL     OW35541   8.668  13.202  12.331
77903SOL    HW135542   8.712  13.209  12.415
77903SOL    HW235543   8.727  13.245  12.269
77904SOL     OW35544   0.062   4.900   4.433
77904SOL    HW135545   0.077   4.874   4.342
77904SOL    HW235546  14.849   4.883   4.448
77905SOL     OW35547   0.618   4.558   0.897
77905SOL    HW135548   0.686   4.508   0.943
77905SOL    HW235549   0.548   4.495   0.882
77906SOL     OW35550   1.087   4.703   9.214
77906SOL    HW135551   1.019   4.681   9.150
77906SOL    HW235552   1.042   4.699   9.298
77907SOL     OW35553   5.445  13.398  10.826
77907SOL    HW135554   5.454  13.311  10.863
77907SOL    HW235555   5.357  13.427  10.852
77908SOL     OW35556   6.615   2.580   8.048
77908SOL    HW135557   6.540   2.615   8.097
77908SOL    HW235558   6.679   2.652   8.047
77909SOL     OW35559  10.634   6.123   4.543
77909SOL    HW135560  10.589   6.106   4.626
77909SOL    HW235561  10.689   6.199   4.561
77910SOL     OW35562   4.637   9.509   0.256
77910SOL    HW135563   4.677   9.509   0.169
77910SOL    HW235564   4.543   9.515   0.239
77911SOL     OW35565  13.541  11.462   0.494
77911SOL    HW135566  13.529  11.367   0.501
77911SOL    HW235567  13.559  11.476   0.401
77912SOL     OW35568   7.045   4.586   9.164
77912SOL    HW135569   7.051   4.524   9.237
77912SOL    HW235570   6.952   4.602   9.153
77913SOL     OW35571   8.139   4.748   9.234
77913SOL    HW135572   8.184   4.816   9.185
77913SOL    HW235573   8.136   4.782   9.324
77914SOL     OW35574   7.758  11.069   7.041
77914SOL    HW135575   7.790  11.158   7.027
77914SOL    HW235576   7.792  11.044   7.128
77915SOL     OW35577   9.247   7.140  11.196
77915SOL    HW135578   9.202   7.056  11.200
77915SOL    HW235579   9.197   7.191  11.132
77916SOL     OW35580  13.655   7.135   2.811
77916SOL    HW135581  13.676   7.210   2.756
77916SOL    HW235582  13.672   7.166   2.901
77917SOL     OW35583   5.473  10.343   7.677
77917SOL    HW135584   5.521  10.322   7.757
77917SOL    HW235585   5.515  10.423   7.644
77918SOL     OW35586  14.116   1.881   0.773
77918SOL    HW135587  14.110   1.974   0.797
77918SOL    HW235588  14.172   1.881   0.696
77919SOL     OW35589  14.450   5.801   7.282
77919SOL    HW135590  14.430   5.891   7.306
77919SOL    HW235591  14.432   5.750   7.361
77920SOL     OW35592  12.524   7.300   2.966
77920SOL    HW135593  12.488   7.235   3.026
77920SOL    HW235594  12.548   7.250   2.888
77921SOL     OW35595  11.334   5.212  12.811
77921SOL    HW135596  11.328   5.131  12.861
77921SOL    HW235597  11.244   5.235  12.789
77922SOL     OW35598  14.585   9.802   5.540
77922SOL    HW135599  14.503   9.800   5.590
77922SOL    HW235600  14.649   9.760   5.598
77923SOL     OW35601   6.412   2.915   7.564
77923SOL    HW135602   6.439   2.824   7.559
77923SOL    HW235603   6.461   2.960   7.495
77924SOL     OW35604   8.031  13.433  12.853
77924SOL    HW135605   8.075  13.461  12.772
77924SOL    HW235606   7.950  13.483  12.855
77925SOL     OW35607   1.145   5.818   5.491
77925SOL    HW135608   1.213   5.867   5.537
77925SOL    HW235609   1.189   5.737   5.464
77926SOL     OW35610   8.416   4.616  14.446
77926SOL    HW135611   8.463   4.564  14.381
77926SOL    HW235612   8.324   4.609  14.421
77927SOL     OW35613   5.087   9.883   6.914
77927SOL    HW135614   5.079   9.977   6.932
77927SOL    HW235615   5.174   9.873   6.878
77928SOL     OW35616   1.787  11.329   1.429
77928SOL    HW135617   1.744  11.364   1.351
77928SOL    HW235618   1.865  11.285   1.395
77929SOL     OW35619   9.109   9.056   9.879
77929SOL    HW135620   9.145   8.968   9.882
77929SOL    HW235621   9.186   9.113   9.879
77930SOL     OW35622   8.299   4.304   0.244
77930SOL    HW135623   8.206   4.293   0.226
77930SOL    HW235624   8.320   4.391   0.209
77931SOL     OW35625   9.251  11.336   8.980
77931SOL    HW135626   9.244  11.363   8.889
77931SOL    HW235627   9.292  11.250   8.978
77932SOL     OW35628  14.861  13.883  13.504
77932SOL    HW135629  14.865  13.830  13.584
77932SOL    HW235630  14.840  13.821  13.435
77933SOL     OW35631   7.761  11.988   7.836
77933SOL    HW135632   7.757  12.056   7.768
77933SOL    HW235633   7.765  12.037   7.918
77934SOL     OW35634  11.614  10.993  12.027
77934SOL    HW135635  11.621  11.032  11.940
77934SOL    HW235636  11.681  11.039  12.078
77935SOL     OW35637   6.426   2.985   3.493
77935SOL    HW135638   6.371   3.054   3.530
77935SOL    HW235639   6.380   2.957   3.414
77936SOL     OW35640  10.065   7.104  13.913
77936SOL    HW135641  10.129   7.103  13.984
77936SOL    HW235642  10.017   7.186  13.924
77937SOL     OW35643   5.002  10.916   8.860
77937SOL    HW135644   5.055  10.994   8.879
77937SOL    HW235645   4.977  10.883   8.947
77938SOL     OW35646  10.601   3.876   4.471
77938SOL    HW135647  10.521   3.857   4.519
77938SOL    HW235648  10.671   3.837   4.524
77939SOL     OW35649   5.226   0.314  13.563
77939SOL    HW135650   5.134   0.313  13.589
77939SOL    HW235651   5.262   0.393  13.604
77940SOL     OW35652  14.321  12.514  14.605
77940SOL    HW135653  14.294  12.439  14.551
77940SOL    HW235654  14.287  12.590  14.558
77941SOL     OW35655   3.842   3.512   6.302
77941SOL    HW135656   3.748   3.498   6.293
77941SOL    HW235657   3.862   3.578   6.235
77942SOL     OW35658  10.938   4.824   4.318
77942SOL    HW135659  10.957   4.730   4.317
77942SOL    HW235660  10.846   4.830   4.295
77943SOL     OW35661   3.047   5.645  14.656
77943SOL    HW135662   3.022   5.737  14.648
77943SOL    HW235663   3.032   5.608  14.569
77944SOL     OW35664   6.921   2.394   3.653
77944SOL    HW135665   6.889   2.464   3.596
77944SOL    HW235666   6.848   2.377   3.713
77945SOL     OW35667   8.887   5.496   3.812
77945SOL    HW135668   8.879   5.590   3.796
77945SOL    HW235669   8.802   5.460   3.786
77946SOL     OW35670  12.230   8.863   4.678
77946SOL    HW135671  12.223   8.849   4.583
77946SOL    HW235672  12.304   8.924   4.687
77947SOL     OW35673   5.607   2.085  12.093
77947SOL    HW135674   5.534   2.048  12.144
77947SOL    HW235675   5.616   2.174  12.127
77948SOL     OW35676   1.764   1.612   1.347
77948SOL    HW135677   1.684   1.640   1.392
77948SOL    HW235678   1.824   1.686   1.357
77949SOL     OW35679  10.074  13.834   1.988
77949SOL    HW135680  10.139  13.781   2.034
77949SOL    HW235681  10.110  13.845   1.900
77950SOL     OW35682   3.935   2.052   3.122
77950SOL    HW135683   3.920   1.990   3.193
77950SOL    HW235684   3.908   2.006   3.043
77951SOL     OW35685  13.457   4.178   3.148
77951SOL    HW135686  13.520   4.242   3.115
77951SOL    HW235687  13.417   4.220   3.224
77952SOL     OW35688   9.757   0.789  11.029
77952SOL    HW135689   9.737   0.827  10.944
77952SOL    HW235690   9.848   0.760  11.023
77953SOL     OW35691   9.735   5.697   1.732
77953SOL    HW135692   9.694   5.781   1.709
77953SOL    HW235693   9.828   5.718   1.740
77954SOL     OW35694   6.110   2.754   7.416
77954SOL    HW135695   6.197   2.724   7.389
77954SOL    HW235696   6.092   2.828   7.358
77955SOL     OW35697  11.558   0.560   5.608
77955SOL    HW135698  11.468   0.528   5.618
77955SOL    HW235699  11.607   0.484   5.577
77956SOL     OW35700   4.280  11.663   7.275
77956SOL    HW135701   4.298  11.570   7.292
77956SOL    HW235702   4.205  11.662   7.216
77957SOL     OW35703   9.640   7.657  11.938
77957SOL    HW135704   9.574   7.692  11.878
77957SOL    HW235705   9.623   7.703  12.021
77958SOL     OW35706  12.074   7.208   0.314
77958SOL    HW135707  12.001   7.148   0.305
77958SOL    HW235708  12.126   7.196   0.235
77959SOL     OW35709   3.763   1.746   9.692
77959SOL    HW135710   3.754   1.841   9.705
77959SOL    HW235711   3.792   1.713   9.777
77960SOL     OW35712  11.914   9.903  10.977
77960SOL    HW135713  11.850   9.963  10.937
77960SOL    HW235714  11.860   9.838  11.022
77961SOL     OW35715  10.313   5.095  13.453
77961SOL    HW135716  10.281   5.174  13.409
77961SOL    HW235717  10.310   5.116  13.546
77962SOL     OW35718   0.295   9.044   3.496
77962SOL    HW135719   0.283   9.022   3.404
77962SOL    HW235720   0.351   8.974   3.531
77963SOL     OW35721   3.558   3.157  13.676
77963SOL    HW135722   3.587   3.068  13.656
77963SOL    HW235723   3.542   3.157  13.770
77964SOL     OW35724  11.854   4.640  12.492
77964SOL    HW135725  11.947   4.618  12.492
77964SOL    HW235726  11.813   4.570  12.439
77965SOL     OW35727   9.102   2.180   7.607
77965SOL    HW135728   9.076   2.242   7.538
77965SOL    HW235729   9.049   2.204   7.682
77966SOL     OW35730   8.626  12.321   3.840
77966SOL    HW135731   8.592  12.410   3.849
77966SOL    HW235732   8.554  12.264   3.868
77967SOL     OW35733  14.859  13.779   0.067
77967SOL    HW135734   0.015  13.690   0.074
77967SOL    HW235735  14.839  13.789  14.853
77968SOL     OW35736   6.374  13.728   3.048
77968SOL    HW135737   6.281  13.736   3.068
77968SOL    HW235738   6.388  13.635   3.030
77969SOL     OW35739  13.253   0.775   1.574
77969SOL    HW135740  13.248   0.702   1.513
77969SOL    HW235741  13.182   0.834   1.548
77970SOL     OW35742   1.540  10.407   3.915
77970SOL    HW135743   1.565  10.495   3.885
77970SOL    HW235744   1.587  10.348   3.857
77971SOL     OW35745  13.904   7.507   9.206
77971SOL    HW135746  13.994   7.478   9.219
77971SOL    HW235747  13.899   7.591   9.252
77972SOL     OW35748   2.371   8.829   1.074
77972SOL    HW135749   2.416   8.762   1.125
77972SOL    HW235750   2.278   8.805   1.078
77973SOL     OW35751   8.374   9.745   4.138
77973SOL    HW135752   8.328   9.702   4.066
77973SOL    HW235753   8.324   9.825   4.153
77974SOL     OW35754  11.224   1.987  12.477
77974SOL    HW135755  11.312   1.995  12.442
77974SOL    HW235756  11.205   1.894  12.474
77975SOL     OW35757   7.591  11.392   3.711
77975SOL    HW135758   7.605  11.319   3.771
77975SOL    HW235759   7.626  11.361   3.627
77976SOL     OW35760   6.598   3.593   3.773
77976SOL    HW135761   6.641   3.644   3.704
77976SOL    HW235762   6.667   3.536   3.807
77977SOL     OW35763   6.180  13.559  11.155
77977SOL    HW135764   6.112  13.493  11.164
77977SOL    HW235765   6.261  13.512  11.175
77978SOL     OW35766  10.070   2.439  14.451
77978SOL    HW135767  10.151   2.476  14.485
77978SOL    HW235768  10.010   2.439  14.526
77979SOL     OW35769   4.015   0.618   4.899
77979SOL    HW135770   3.939   0.668   4.867
77979SOL    HW235771   4.073   0.684   4.937
77980SOL     OW35772  14.130   4.027  13.324
77980SOL    HW135773  14.102   4.106  13.278
77980SOL    HW235774  14.132   3.960  13.256
77981SOL     OW35775   9.221   4.831  13.943
77981SOL    HW135776   9.134   4.796  13.965
77981SOL    HW235777   9.278   4.800  14.014
77982SOL     OW35778   9.264   2.083   3.158
77982SOL    HW135779   9.218   2.079   3.074
77982SOL    HW235780   9.326   2.155   3.148
77983SOL     OW35781  10.082   2.067   8.138
77983SOL    HW135782  10.167   2.089   8.101
77983SOL    HW235783  10.078   1.971   8.134
77984SOL     OW35784  10.521   4.347  12.426
77984SOL    HW135785  10.546   4.310  12.342
77984SOL    HW235786  10.445   4.296  12.453
77985SOL     OW35787   5.627   1.335   0.602
77985SOL    HW135788   5.533   1.345   0.615
77985SOL    HW235789   5.637   1.246   0.569
77986SOL     OW35790   4.271   8.041   8.350
77986SOL    HW135791   4.355   8.087   8.360
77986SOL    HW235792   4.216   8.078   8.419
77987SOL     OW35793  10.595  13.885   4.842
77987SOL    HW135794  10.556  13.843   4.919
77987SOL    HW235795  10.543  13.964   4.829
77988SOL     OW35796   9.454   8.097  14.785
77988SOL    HW135797   9.418   8.034  14.848
77988SOL    HW235798   9.409   8.179  14.805
77989SOL     OW35799   8.945   5.258  13.853
77989SOL    HW135800   8.956   5.353  13.850
77989SOL    HW235801   9.017   5.227  13.908
77990SOL     OW35802   3.360   8.352   2.904
77990SOL    HW135803   3.376   8.306   2.986
77990SOL    HW235804   3.438   8.335   2.851
77991SOL     OW35805   0.020   5.564   1.646
77991SOL    HW135806   0.066   5.572   1.563
77991SOL    HW235807   0.088   5.536   1.708
77992SOL     OW35808   8.197   9.360   8.628
77992SOL    HW135809   8.139   9.357   8.552
77992SOL    HW235810   8.161   9.296   8.690
77993SOL     OW35811   8.708   7.691   8.589
77993SOL    HW135812   8.669   7.617   8.543
77993SOL    HW235813   8.683   7.768   8.537
77994SOL     OW35814  12.454  11.995   0.530
77994SOL    HW135815  12.366  12.028   0.548
77994SOL    HW235816  12.502  12.071   0.497
77995SOL     OW35817   7.344   0.624   7.381
77995SOL    HW135818   7.389   0.569   7.445
77995SOL    HW235819   7.252   0.596   7.385
77996SOL     OW35820   9.591   2.589  13.881
77996SOL    HW135821   9.512   2.542  13.908
77996SOL    HW235822   9.576   2.610  13.789
77997SOL     OW35823   8.550   7.863   3.379
77997SOL    HW135824   8.461   7.899   3.382
77997SOL    HW235825   8.536   7.768   3.369
77998SOL     OW35826   2.350   8.628   9.797
77998SOL    HW135827   2.308   8.543   9.784
77998SOL    HW235828   2.441   8.607   9.817
77999SOL     OW35829   5.655   8.664   2.547
77999SOL    HW135830   5.638   8.661   2.641
77999SOL    HW235831   5.634   8.577   2.515
78000SOL     OW35832  10.154  11.743   2.550
78000SOL    HW135833  10.188  11.830   2.573
78000SOL    HW235834  10.066  11.760   2.518
78001SOL     OW35835   4.276   2.271  12.640
78001SOL    HW135836   4.317   2.255  12.555
78001SOL    HW235837   4.183   2.252  12.626
78002SOL     OW35838   2.840  14.802   5.410
78002SOL    HW135839   2.909  14.805   5.344
78002SOL    HW235840   2.768  14.754   5.369
78003SOL     OW35841   8.195  11.779  12.816
78003SOL    HW135842   8.282  11.814  12.835
78003SOL    HW235843   8.194  11.693  12.856
78004SOL     OW35844  13.259   0.632  13.869
78004SOL    HW135845  13.321   0.662  13.936
78004SOL    HW235846  13.314   0.611  13.794
78005SOL     OW35847   1.542  12.390   3.231
78005SOL    HW135848   1.623  12.405   3.280
78005SOL    HW235849   1.555  12.306   3.188
78006SOL     OW35850  10.635   5.224   3.403
78006SOL    HW135851  10.572   5.264   3.463
78006SOL    HW235852  10.652   5.137   3.440
78007SOL     OW35853  12.016  10.826   9.939
78007SOL    HW135854  11.983  10.763   9.875
78007SOL    HW235855  12.109  10.807   9.945
78008SOL     OW35856  11.134   8.873  10.948
78008SOL    HW135857  11.221   8.832  10.946
78008SOL    HW235858  11.096   8.850  10.863
78009SOL     OW35859   4.114   0.654  11.598
78009SOL    HW135860   4.107   0.713  11.672
78009SOL    HW235861   4.188   0.688  11.547
78010SOL     OW35862   7.371   1.818   6.674
78010SOL    HW135863   7.457   1.800   6.636
78010SOL    HW235864   7.309   1.778   6.614
78011SOL     OW35865   9.988   3.138   0.835
78011SOL    HW135866   9.908   3.155   0.886
78011SOL    HW235867   9.992   3.043   0.828
78012SOL     OW35868   4.910   5.086   5.921
78012SOL    HW135869   4.887   5.171   5.959
78012SOL    HW235870   4.827   5.053   5.885
78013SOL     OW35871   3.938  12.933  11.549
78013SOL    HW135872   3.920  12.888  11.466
78013SOL    HW235873   3.869  12.902  11.608
78014SOL     OW35874  12.131  12.383   6.760
78014SOL    HW135875  12.190  12.335   6.701
78014SOL    HW235876  12.116  12.466   6.716
78015SOL     OW35877  12.621  10.990   7.557
78015SOL    HW135878  12.537  10.956   7.526
78015SOL    HW235879  12.663  11.026   7.480
78016SOL     OW35880   9.949  13.779   7.202
78016SOL    HW135881  10.043  13.782   7.187
78016SOL    HW235882   9.911  13.822   7.125
78017SOL     OW35883   8.068  11.169   3.802
78017SOL    HW135884   8.111  11.086   3.822
78017SOL    HW235885   7.993  11.171   3.861
78018SOL     OW35886   1.556   9.371  13.312
78018SOL    HW135887   1.468   9.400  13.289
78018SOL    HW235888   1.545   9.281  13.341
78019SOL     OW35889   5.814   0.027   9.171
78019SOL    HW135890   5.908   0.026   9.156
78019SOL    HW235891   5.780   0.087   9.104
78020SOL     OW35892  14.597  14.429  13.438
78020SOL    HW135893  14.556  14.473  13.512
78020SOL    HW235894  14.558  14.471  13.361
78021SOL     OW35895   4.663   0.152   7.304
78021SOL    HW135896   4.682   0.199   7.385
78021SOL    HW235897   4.714   0.199   7.237
78022SOL     OW35898  13.748   5.362   0.986
78022SOL    HW135899  13.707   5.275   0.982
78022SOL    HW235900  13.736   5.390   1.077
78023SOL     OW35901   4.409  13.587  10.015
78023SOL    HW135902   4.374  13.564   9.929
78023SOL    HW235903   4.378  13.517  10.073
78024SOL     OW35904   4.741   2.369  12.637
78024SOL    HW135905   4.786   2.284  12.638
78024SOL    HW235906   4.789   2.419  12.571
78025SOL     OW35907  12.358   7.238   9.578
78025SOL    HW135908  12.431   7.288   9.615
78025SOL    HW235909  12.317   7.298   9.515
78026SOL     OW35910  13.848   8.453   0.105
78026SOL    HW135911  13.822   8.369   0.068
78026SOL    HW235912  13.783   8.515   0.071
78027SOL     OW35913   9.029  12.892   0.259
78027SOL    HW135914   9.106  12.864   0.309
78027SOL    HW235915   8.955  12.849   0.302
78028SOL     OW35916  10.912  14.802  12.428
78028SOL    HW135917  10.829  14.806  12.381
78028SOL    HW235918  10.896  14.854  12.508
78029SOL     OW35919   1.137   0.118   4.115
78029SOL    HW135920   1.106   0.195   4.162
78029SOL    HW235921   1.083   0.115   4.036
78030SOL     OW35922   7.354  12.391   3.866
78030SOL    HW135923   7.375  12.298   3.869
78030SOL    HW235924   7.262  12.396   3.889
78031SOL     OW35925  13.122  11.497   7.601
78031SOL    HW135926  13.151  11.577   7.558
78031SOL    HW235927  13.166  11.427   7.554
78032SOL     OW35928  14.743  14.049  10.217
78032SOL    HW135929  14.690  13.969  10.214
78032SOL    HW235930  14.774  14.061  10.127
78033SOL     OW35931  11.598   5.113  13.073
78033SOL    HW135932  11.650   5.040  13.041
78033SOL    HW235933  11.514   5.104  13.027
78034SOL     OW35934   0.805   1.248   9.166
78034SOL    HW135935   0.740   1.285   9.106
78034SOL    HW235936   0.823   1.319   9.228
78035SOL     OW35937   2.579   2.997   1.287
78035SOL    HW135938   2.517   2.923   1.287
78035SOL    HW235939   2.660   2.960   1.323
78036SOL     OW35940  11.089  12.885   8.416
78036SOL    HW135941  11.135  12.876   8.500
78036SOL    HW235942  11.159  12.888   8.351
78037SOL     OW35943  13.322   9.577  10.583
78037SOL    HW135944  13.286   9.581  10.494
78037SOL    HW235945  13.254   9.533  10.634
78038SOL     OW35946   4.937   9.995  11.290
78038SOL    HW135947   5.004  10.047  11.246
78038SOL    HW235948   4.964   9.905  11.275
78039SOL     OW35949   8.650  12.148   5.983
78039SOL    HW135950   8.690  12.064   6.006
78039SOL    HW235951   8.589  12.166   6.055
78040SOL     OW35952   3.416   4.755   6.555
78040SOL    HW135953   3.384   4.789   6.471
78040SOL    HW235954   3.353   4.785   6.619
78041SOL     OW35955   1.752   4.223   0.305
78041SOL    HW135956   1.666   4.185   0.323
78041SOL    HW235957   1.778   4.185   0.221
78042SOL     OW35958   5.927  13.474   3.714
78042SOL    HW135959   5.971  13.558   3.706
78042SOL    HW235960   5.983  13.424   3.773
78043SOL     OW35961  10.631   0.340   5.399
78043SOL    HW135962  10.697   0.405   5.376
78043SOL    HW235963  10.681   0.261   5.419
78044SOL     OW35964  14.448   0.027   0.927
78044SOL    HW135965  14.370   0.072   0.896
78044SOL    HW235966  14.453   0.047   1.020
78045SOL     OW35967   6.644   3.147  12.469
78045SOL    HW135968   6.596   3.065  12.455
78045SOL    HW235969   6.736   3.123  12.460
78046SOL     OW35970   7.101   3.017   9.049
78046SOL    HW135971   7.188   2.991   9.020
78046SOL    HW235972   7.111   3.035   9.143
78047SOL     OW35973   5.740   0.523   4.064
78047SOL    HW135974   5.737   0.519   3.968
78047SOL    HW235975   5.661   0.476   4.092
78048SOL     OW35976   9.098   4.625   8.126
78048SOL    HW135977   9.062   4.590   8.207
78048SOL    HW235978   9.032   4.688   8.096
78049SOL     OW35979  10.305  14.412   5.244
78049SOL    HW135980  10.323  14.488   5.299
78049SOL    HW235981  10.369  14.346   5.272
78050SOL     OW35982  14.403   0.473   8.990
78050SOL    HW135983  14.434   0.383   8.988
78050SOL    HW235984  14.309   0.467   8.977
78051SOL     OW35985  11.263   2.383   8.882
78051SOL    HW135986  11.263   2.471   8.920
78051SOL    HW235987  11.244   2.325   8.955
78052SOL     OW35988   6.935   2.380   4.650
78052SOL    HW135989   6.874   2.358   4.579
78052SOL    HW235990   7.022   2.364   4.613
78053SOL     OW35991   8.463  13.557  12.511
78053SOL    HW135992   8.534  13.613  12.478
78053SOL    HW235993   8.493  13.529  12.597
78054SOL     OW35994  12.459   7.473   5.937
78054SOL    HW135995  12.391   7.522   5.983
78054SOL    HW235996  12.502   7.538   5.881
78055SOL     OW35997   1.065   3.660   7.741
78055SOL    HW135998   0.975   3.643   7.712
78055SOL    HW235999   1.090   3.581   7.789
78056SOL     OW36000   8.106  12.487  14.468
78056SOL    HW136001   8.101  12.417  14.533
78056SOL    HW236002   8.095  12.568  14.517
78057SOL     OW36003   2.451   3.946   4.889
78057SOL    HW136004   2.431   3.904   4.973
78057SOL    HW236005   2.418   3.885   4.823
78058SOL     OW36006   1.530   6.156   3.994
78058SOL    HW136007   1.529   6.113   3.908
78058SOL    HW236008   1.608   6.211   3.992
78059SOL     OW36009  12.620   8.246   1.548
78059SOL    HW136010  12.696   8.303   1.556
78059SOL    HW236011  12.646   8.178   1.485
78060SOL     OW36012  11.586   3.942   4.539
78060SOL    HW136013  11.518   3.938   4.472
78060SOL    HW236014  11.571   4.025   4.584
78061SOL     OW36015   9.369   4.456   8.129
78061SOL    HW136016   9.428   4.383   8.105
78061SOL    HW236017   9.337   4.489   8.046
78062SOL     OW36018   8.067  14.260  13.869
78062SOL    HW136019   8.067  14.323  13.797
78062SOL    HW236020   8.009  14.298  13.934
78063SOL     OW36021  14.059   0.263  14.574
78063SOL    HW136022  14.153   0.271  14.562
78063SOL    HW236023  14.049   0.205  14.649
78064SOL     OW36024   3.152   7.699  12.422
78064SOL    HW136025   3.194   7.626  12.466
78064SOL    HW236026   3.218   7.734  12.363
78065SOL     OW36027   7.275  11.677  14.701
78065SOL    HW136028   7.221  11.741  14.748
78065SOL    HW236029   7.227  11.594  14.709
78066SOL     OW36030   2.457   2.497   2.472
78066SOL    HW136031   2.389   2.444   2.514
78066SOL    HW236032   2.515   2.433   2.431
78067SOL     OW36033   5.604  11.262   8.883
78067SOL    HW136034   5.581  11.355   8.877
78067SOL    HW236035   5.574  11.224   8.801
78068SOL     OW36036   7.392   4.209   7.766
78068SOL    HW136037   7.402   4.147   7.838
78068SOL    HW236038   7.399   4.155   7.687
78069SOL     OW36039   6.388   4.721   2.475
78069SOL    HW136040   6.413   4.642   2.426
78069SOL    HW236041   6.295   4.709   2.494
78070SOL     OW36042   3.465   8.765  12.742
78070SOL    HW136043   3.499   8.852  12.766
78070SOL    HW236044   3.531   8.704  12.774
78071SOL     OW36045   5.674   0.581   2.070
78071SOL    HW136046   5.697   0.495   2.033
78071SOL    HW236047   5.655   0.635   1.994
78072SOL     OW36048   1.172  12.900  14.485
78072SOL    HW136049   1.129  12.822  14.450
78072SOL    HW236050   1.186  12.956  14.409
78073SOL     OW36051   6.062   6.827   9.368
78073SOL    HW136052   6.012   6.806   9.288
78073SOL    HW236053   5.996   6.842   9.435
78074SOL     OW36054  11.089   2.823   7.785
78074SOL    HW136055  11.178   2.797   7.761
78074SOL    HW236056  11.033   2.776   7.723
78075SOL     OW36057  12.230   2.088   8.422
78075SOL    HW136058  12.220   2.129   8.336
78075SOL    HW236059  12.253   1.997   8.403
78076SOL     OW36060   2.936  12.322  14.609
78076SOL    HW136061   3.003  12.254  14.596
78076SOL    HW236062   2.922  12.359  14.522
78077SOL     OW36063   2.359   3.804   1.062
78077SOL    HW136064   2.442   3.758   1.054
78077SOL    HW236065   2.382   3.893   1.087
78078SOL     OW36066   2.692   2.177   2.984
78078SOL    HW136067   2.610   2.131   3.001
78078SOL    HW236068   2.665   2.262   2.948
78079SOL     OW36069   1.312  10.603   5.631
78079SOL    HW136070   1.352  10.653   5.702
78079SOL    HW236071   1.220  10.630   5.631
78080SOL     OW36072   8.250   7.057   8.861
78080SOL    HW136073   8.228   6.970   8.826
78080SOL    HW236074   8.182   7.074   8.927
78081SOL     OW36075   5.598  11.632   9.213
78081SOL    HW136076   5.560  11.707   9.168
78081SOL    HW236077   5.686  11.661   9.238
78082SOL     OW36078   0.486   0.891  13.181
78082SOL    HW136079   0.553   0.865  13.118
78082SOL    HW236080   0.406   0.899  13.130
78083SOL     OW36081   5.129   0.425   4.953
78083SOL    HW136082   5.200   0.360   4.948
78083SOL    HW236083   5.163   0.500   4.905
78084SOL     OW36084   2.484   6.301   2.817
78084SOL    HW136085   2.495   6.255   2.734
78084SOL    HW236086   2.450   6.235   2.877
78085SOL     OW36087  14.386   7.497  10.543
78085SOL    HW136088  14.299   7.519  10.575
78085SOL    HW236089  14.372   7.472  10.451
78086SOL     OW36090  11.547   6.391  14.460
78086SOL    HW136091  11.606   6.319  14.481
78086SOL    HW236092  11.581   6.429  14.379
78087SOL     OW36093   6.598   5.408   6.019
78087SOL    HW136094   6.640   5.357   5.950
78087SOL    HW236095   6.650   5.488   6.025
78088SOL     OW36096  11.732  12.343  12.597
78088SOL    HW136097  11.737  12.405  12.669
78088SOL    HW236098  11.821  12.307  12.590
78089SOL     OW36099   8.702   3.591  13.457
78089SOL    HW136100   8.790   3.595  13.422
78089SOL    HW236101   8.679   3.682  13.477
78090SOL     OW36102   2.136   6.318  10.649
78090SOL    HW136103   2.213   6.297  10.596
78090SOL    HW236104   2.151   6.408  10.678
78091SOL     OW36105   0.694  11.151  12.308
78091SOL    HW136106   0.712  11.169  12.216
78091SOL    HW236107   0.751  11.211  12.356
78092SOL     OW36108  10.515   9.746  10.028
78092SOL    HW136109  10.508   9.839  10.049
78092SOL    HW236110  10.425   9.716  10.018
78093SOL     OW36111   4.060   8.579   7.691
78093SOL    HW136112   4.059   8.492   7.653
78093SOL    HW236113   4.144   8.617   7.664
78094SOL     OW36114   0.518   9.846   0.720
78094SOL    HW136115   0.590   9.789   0.747
78094SOL    HW236116   0.556   9.934   0.719
78095SOL     OW36117   6.555  10.519   5.232
78095SOL    HW136118   6.554  10.483   5.144
78095SOL    HW236119   6.495  10.464   5.282
78096SOL     OW36120   1.831   8.241  12.099
78096SOL    HW136121   1.818   8.166  12.157
78096SOL    HW236122   1.921   8.269  12.115
78097SOL     OW36123   3.000  11.935   4.642
78097SOL    HW136124   2.987  12.015   4.692
78097SOL    HW236125   3.002  11.865   4.707
78098SOL     OW36126   4.074   4.227   2.030
78098SOL    HW136127   4.073   4.219   1.935
78098SOL    HW236128   4.076   4.322   2.046
78099SOL     OW36129  10.147   2.633   1.974
78099SOL    HW136130  10.205   2.699   1.936
78099SOL    HW236131  10.165   2.636   2.068
78100SOL     OW36132   6.724   5.408  13.103
78100SOL    HW136133   6.674   5.412  13.185
78100SOL    HW236134   6.812   5.438  13.128
78101SOL     OW36135   9.356   7.830   3.266
78101SOL    HW136136   9.442   7.797   3.291
78101SOL    HW236137   9.361   7.837   3.170
78102SOL     OW36138  14.077   6.487   4.905
78102SOL    HW136139  14.161   6.446   4.886
78102SOL    HW236140  14.019   6.414   4.927
78103SOL     OW36141   3.787   3.218   6.502
78103SOL    HW136142   3.782   3.292   6.562
78103SOL    HW236143   3.696   3.194   6.486
78104SOL     OW36144   3.029   5.839   8.361
78104SOL    HW136145   3.084   5.782   8.416
78104SOL    HW236146   3.007   5.785   8.285
78105SOL     OW36147   6.823  10.230  12.050
78105SOL    HW136148   6.741  10.278  12.042
78105SOL    HW236149   6.879  10.286  12.104
78106SOL     OW36150   4.163   6.192   2.527
78106SOL    HW136151   4.153   6.099   2.512
78106SOL    HW236152   4.212   6.224   2.451
78107SOL     OW36153   9.996   8.195   5.904
78107SOL    HW136154   9.978   8.288   5.888
78107SOL    HW236155   9.962   8.151   5.827
78108SOL     OW36156   4.045  10.544   5.488
78108SOL    HW136157   4.086  10.459   5.476
78108SOL    HW236158   4.034  10.578   5.399
78109SOL     OW36159  13.791   9.134   7.048
78109SOL    HW136160  13.760   9.125   7.138
78109SOL    HW236161  13.852   9.060   7.037
78110SOL     OW36162  10.623  14.356   4.653
78110SOL    HW136163  10.682  14.431   4.645
78110SOL    HW236164  10.680  14.281   4.667
78111SOL     OW36165   4.289  11.942   2.411
78111SOL    HW136166   4.303  12.005   2.341
78111SOL    HW236167   4.274  11.995   2.489
78112SOL     OW36168   1.867   3.121   2.318
78112SOL    HW136169   1.799   3.189   2.316
78112SOL    HW236170   1.947   3.168   2.341
78113SOL     OW36171   2.110   2.580  12.209
78113SOL    HW136172   2.060   2.657  12.183
78113SOL    HW236173   2.197   2.595  12.173
78114SOL     OW36174   9.905   3.519   1.775
78114SOL    HW136175   9.942   3.431   1.770
78114SOL    HW236176   9.843   3.523   1.702
78115SOL     OW36177   3.509   5.148   7.281
78115SOL    HW136178   3.490   5.133   7.188
78115SOL    HW236179   3.542   5.064   7.312
78116SOL     OW36180   0.202   0.173   0.548
78116SOL    HW136181   0.200   0.105   0.615
78116SOL    HW236182   0.158   0.248   0.589
78117SOL     OW36183  14.353   7.664   5.827
78117SOL    HW136184  14.271   7.686   5.784
78117SOL    HW236185  14.419   7.667   5.757
78118SOL     OW36186  13.899  14.767   4.057
78118SOL    HW136187  13.958  14.699   4.089
78118SOL    HW236188  13.822  14.761   4.115
78119SOL     OW36189   9.130  12.791   8.845
78119SOL    HW136190   9.152  12.884   8.856
78119SOL    HW236191   9.035  12.787   8.857
78120SOL     OW36192  11.879   4.279   9.022
78120SOL    HW136193  11.868   4.246   9.111
78120SOL    HW236194  11.798   4.325   9.003
78121SOL     OW36195  11.056   6.937   6.992
78121SOL    HW136196  11.102   6.973   7.068
78121SOL    HW236197  10.983   6.997   6.978
78122SOL     OW36198   5.595   9.097  11.076
78122SOL    HW136199   5.672   9.069  11.028
78122SOL    HW236200   5.628   9.122  11.163
78123SOL     OW36201  11.999  10.838   1.524
78123SOL    HW136202  11.975  10.904   1.458
78123SOL    HW236203  11.987  10.883   1.608
78124SOL     OW36204  10.940   9.677  12.022
78124SOL    HW136205  10.872   9.610  12.021
78124SOL    HW236206  10.892   9.760  12.027
78125SOL     OW36207   0.434   9.240  14.221
78125SOL    HW136208   0.368   9.309  14.229
78125SOL    HW236209   0.488   9.268  14.147
78126SOL     OW36210   2.480  10.111   4.891
78126SOL    HW136211   2.542  10.082   4.824
78126SOL    HW236212   2.396  10.075   4.864
78127SOL     OW36213   5.175  12.981  12.412
78127SOL    HW136214   5.156  12.902  12.362
78127SOL    HW236215   5.097  13.035  12.403
78128SOL     OW36216   1.738  14.420   2.728
78128SOL    HW136217   1.690  14.394   2.650
78128SOL    HW236218   1.671  14.430   2.796
78129SOL     OW36219   2.554   4.587   8.335
78129SOL    HW136220   2.535   4.679   8.315
78129SOL    HW236221   2.647   4.586   8.355
78130SOL     OW36222   4.489   7.217  11.088
78130SOL    HW136223   4.463   7.308  11.099
78130SOL    HW236224   4.406   7.168  11.086
78131SOL     OW36225   0.747   0.229   4.795
78131SOL    HW136226   0.836   0.264   4.785
78131SOL    HW236227   0.726   0.243   4.887
78132SOL     OW36228  14.581   8.437  11.639
78132SOL    HW136229  14.649   8.379  11.672
78132SOL    HW236230  14.567   8.500  11.710
78133SOL     OW36231   4.553  12.226   3.066
78133SOL    HW136232   4.592  12.300   3.020
78133SOL    HW236233   4.626  12.165   3.080
78134SOL     OW36234  13.316   2.672  14.667
78134SOL    HW136235  13.279   2.674  14.579
78134SOL    HW236236  13.407   2.644  14.654
78135SOL     OW36237   6.852   1.207   4.963
78135SOL    HW136238   6.897   1.222   4.880
78135SOL    HW236239   6.918   1.167   5.020
78136SOL     OW36240  10.129   3.158  14.631
78136SOL    HW136241  10.085   3.101  14.568
78136SOL    HW236242  10.152   3.236  14.581
78137SOL     OW36243  10.161   4.092  10.348
78137SOL    HW136244  10.239   4.144  10.328
78137SOL    HW236245  10.181   4.004  10.316
78138SOL     OW36246  10.656   3.129  14.774
78138SOL    HW136247  10.612   3.175  14.845
78138SOL    HW236248  10.739   3.176  14.762
78139SOL     OW36249   0.343   7.328   2.974
78139SOL    HW136250   0.372   7.259   2.915
78139SOL    HW236251   0.360   7.294   3.062
78140SOL     OW36252   3.805  12.987   4.584
78140SOL    HW136253   3.732  13.005   4.644
78140SOL    HW236254   3.769  13.006   4.497
78141SOL     OW36255   1.180  14.581   1.039
78141SOL    HW136256   1.112  14.526   1.002
78141SOL    HW236257   1.260  14.553   0.995
78142SOL     OW36258   6.145   2.888   8.768
78142SOL    HW136259   6.204   2.853   8.835
78142SOL    HW236260   6.136   2.981   8.791
78143SOL     OW36261  12.899   5.599  10.516
78143SOL    HW136262  12.956   5.543  10.464
78143SOL    HW236263  12.812   5.561  10.507
78144SOL     OW36264  12.420  14.065  13.967
78144SOL    HW136265  12.361  13.994  13.942
78144SOL    HW236266  12.402  14.134  13.902
78145SOL     OW36267   7.202   2.293  13.473
78145SOL    HW136268   7.213   2.348  13.551
78145SOL    HW236269   7.162   2.351  13.408
78146SOL     OW36270   6.589   1.763   0.454
78146SOL    HW136271   6.680   1.750   0.426
78146SOL    HW236272   6.589   1.741   0.547
78147SOL     OW36273  12.677   3.922   8.787
78147SOL    HW136274  12.612   3.889   8.849
78147SOL    HW236275  12.642   3.899   8.701
78148SOL     OW36276   3.358   5.989  11.474
78148SOL    HW136277   3.369   5.980  11.380
78148SOL    HW236278   3.274   6.034  11.485
78149SOL     OW36279  12.444   1.907   8.725
78149SOL    HW136280  12.358   1.947   8.715
78149SOL    HW236281  12.498   1.975   8.766
78150SOL     OW36282   2.867   7.990   3.007
78150SOL    HW136283   2.776   7.971   3.032
78150SOL    HW236284   2.862   8.073   2.960
78151SOL     OW36285   9.033   9.135   6.435
78151SOL    HW136286   9.019   9.224   6.403
78151SOL    HW236287   9.120   9.136   6.475
78152SOL     OW36288  14.721  13.743   7.992
78152SOL    HW136289  14.731  13.761   7.899
78152SOL    HW236290  14.662  13.812   8.024
78153SOL     OW36291   6.763  12.668   3.372
78153SOL    HW136292   6.736  12.759   3.385
78153SOL    HW236293   6.683  12.617   3.384
78154SOL     OW36294  14.532  10.269  14.468
78154SOL    HW136295  14.457  10.328  14.461
78154SOL    HW236296  14.501  10.186  14.431
78155SOL     OW36297  10.807   5.158   2.261
78155SOL    HW136298  10.868   5.094   2.224
78155SOL    HW236299  10.818   5.149   2.356
78156SOL     OW36300   3.347  10.449  14.841
78156SOL    HW136301   3.428  10.425   0.008
78156SOL    HW236302   3.297  10.499   0.026
78157SOL     OW36303   4.546  14.398  14.669
78157SOL    HW136304   4.466  14.450  14.682
78157SOL    HW236305   4.578  14.381  14.757
78158SOL     OW36306  13.601   7.309  13.800
78158SOL    HW136307  13.683   7.339  13.761
78158SOL    HW236308  13.625   7.276  13.886
78159SOL     OW36309   3.744   7.177   9.344
78159SOL    HW136310   3.798   7.232   9.401
78159SOL    HW236311   3.763   7.208   9.256
78160SOL     OW36312  12.677   2.896  12.173
78160SOL    HW136313  12.639   2.826  12.121
78160SOL    HW236314  12.669   2.865  12.264
78161SOL     OW36315  14.194   3.146   5.290
78161SOL    HW136316  14.208   3.072   5.350
78161SOL    HW236317  14.266   3.207   5.309
78162SOL     OW36318   7.767  14.486  14.312
78162SOL    HW136319   7.826  14.412  14.321
78162SOL    HW236320   7.680  14.449  14.322
78163SOL     OW36321   8.903   7.468   7.286
78163SOL    HW136322   8.881   7.468   7.379
78163SOL    HW236323   8.877   7.555   7.255
78164SOL     OW36324   3.796   6.019   0.763
78164SOL    HW136325   3.786   6.104   0.806
78164SOL    HW236326   3.825   6.040   0.675
78165SOL     OW36327   3.913   6.378  11.660
78165SOL    HW136328   3.973   6.392  11.587
78165SOL    HW236329   3.837   6.433  11.640
78166SOL     OW36330  10.249   3.550  14.746
78166SOL    HW136331  10.281   3.480  14.689
78166SOL    HW236332  10.184   3.507  14.802
78167SOL     OW36333   4.900   0.491  11.296
78167SOL    HW136334   4.942   0.479  11.381
78167SOL    HW236335   4.874   0.583  11.294
78168SOL     OW36336  13.613   8.465   7.002
78168SOL    HW136337  13.555   8.391   6.983
78168SOL    HW236338  13.700   8.435   6.975
78169SOL     OW36339   7.243   2.526  10.002
78169SOL    HW136340   7.251   2.601  10.061
78169SOL    HW236341   7.327   2.481  10.010
78170SOL     OW36342  13.991   4.748   0.550
78170SOL    HW136343  13.959   4.777   0.464
78170SOL    HW236344  14.071   4.700   0.531
78171SOL     OW36345  11.724   2.227  14.495
78171SOL    HW136346  11.804   2.189  14.458
78171SOL    HW236347  11.718   2.313  14.455
78172SOL     OW36348   8.256   1.671   6.512
78172SOL    HW136349   8.331   1.620   6.483
78172SOL    HW236350   8.288   1.762   6.513
78173SOL     OW36351   3.216   1.103   9.763
78173SOL    HW136352   3.258   1.188   9.745
78173SOL    HW236353   3.286   1.051   9.803
78174SOL     OW36354   2.944   3.296   2.933
78174SOL    HW136355   2.898   3.300   3.016
78174SOL    HW236356   2.884   3.338   2.870
78175SOL     OW36357   5.139   9.953   3.042
78175SOL    HW136358   5.174   9.997   2.964
78175SOL    HW236359   5.079  10.017   3.081
78176SOL     OW36360   4.424   7.511   1.744
78176SOL    HW136361   4.493   7.560   1.789
78176SOL    HW236362   4.343   7.542   1.784
78177SOL     OW36363   6.526   0.306  14.020
78177SOL    HW136364   6.457   0.351  14.071
78177SOL    HW236365   6.504   0.326  13.929
78178SOL     OW36366  14.370   2.471   9.482
78178SOL    HW136367  14.335   2.418   9.411
78178SOL    HW236368  14.359   2.562   9.451
78179SOL     OW36369   8.355   7.612   9.660
78179SOL    HW136370   8.406   7.532   9.671
78179SOL    HW236371   8.419   7.683   9.671
78180SOL     OW36372  10.655  14.246  13.702
78180SOL    HW136373  10.628  14.208  13.618
78180SOL    HW236374  10.595  14.319  13.715
78181SOL     OW36375   9.684  10.955  10.648
78181SOL    HW136376   9.646  11.012  10.581
78181SOL    HW236377   9.723  10.882  10.599
78182SOL     OW36378  14.638   3.829   2.297
78182SOL    HW136379  14.544   3.842   2.294
78182SOL    HW236380  14.674   3.916   2.317
78183SOL     OW36381   2.095  14.228   2.743
78183SOL    HW136382   2.088  14.301   2.681
78183SOL    HW236383   2.074  14.267   2.828
78184SOL     OW36384   0.111   4.985  10.948
78184SOL    HW136385   0.158   4.933  10.884
78184SOL    HW236386   0.083   4.923  11.015
78185SOL     OW36387   8.860  12.685   1.472
78185SOL    HW136388   8.867  12.776   1.501
78185SOL    HW236389   8.783  12.651   1.518
78186SOL     OW36390   4.767   2.657   3.549
78186SOL    HW136391   4.780   2.687   3.639
78186SOL    HW236392   4.755   2.738   3.499
78187SOL     OW36393   2.967   1.307  13.464
78187SOL    HW136394   2.939   1.220  13.493
78187SOL    HW236395   2.905   1.367  13.503
78188SOL     OW36396  10.466  12.242   1.711
78188SOL    HW136397  10.406  12.315   1.698
78188SOL    HW236398  10.535  12.257   1.645
78189SOL     OW36399  10.096  11.479   7.493
78189SOL    HW136400  10.051  11.520   7.567
78189SOL    HW236401  10.122  11.393   7.525
78190SOL     OW36402   2.397  10.119  14.276
78190SOL    HW136403   2.471  10.114  14.216
78190SOL    HW236404   2.409  10.203  14.321
78191SOL     OW36405  13.302  13.459   4.938
78191SOL    HW136406  13.262  13.398   4.999
78191SOL    HW236407  13.230  13.488   4.882
78192SOL     OW36408   7.678   3.395   4.480
78192SOL    HW136409   7.628   3.470   4.447
78192SOL    HW236410   7.665   3.327   4.414
78193SOL     OW36411  10.208   5.264   4.718
78193SOL    HW136412  10.149   5.190   4.732
78193SOL    HW236413  10.155   5.329   4.673
78194SOL     OW36414  14.221   0.242   0.990
78194SOL    HW136415  14.269   0.321   0.967
78194SOL    HW236416  14.132   0.272   1.007
78195SOL     OW36417   2.999   1.459  12.131
78195SOL    HW136418   3.000   1.554  12.141
78195SOL    HW236419   3.086   1.438  12.098
78196SOL     OW36420  14.282  12.912  13.310
78196SOL    HW136421  14.356  12.866  13.350
78196SOL    HW236422  14.310  12.928  13.220
78197SOL     OW36423  12.821   6.373   4.504
78197SOL    HW136424  12.797   6.323   4.582
78197SOL    HW236425  12.915   6.357   4.493
78198SOL     OW36426   7.572   1.583   8.397
78198SOL    HW136427   7.486   1.625   8.405
78198SOL    HW236428   7.632   1.655   8.378
78199SOL     OW36429   8.757   1.503  11.088
78199SOL    HW136430   8.709   1.511  11.170
78199SOL    HW236431   8.846   1.483  11.114
78200SOL     OW36432   1.499   2.504   8.177
78200SOL    HW136433   1.469   2.506   8.268
78200SOL    HW236434   1.536   2.590   8.162
78201SOL     OW36435   0.503   6.689   7.807
78201SOL    HW136436   0.461   6.693   7.721
78201SOL    HW236437   0.453   6.751   7.861
78202SOL     OW36438   1.312   2.365   8.699
78202SOL    HW136439   1.304   2.460   8.711
78202SOL    HW236440   1.242   2.328   8.753
78203SOL     OW36441  11.576   7.209   8.048
78203SOL    HW136442  11.577   7.114   8.056
78203SOL    HW236443  11.665   7.232   8.021
78204SOL     OW36444   5.562   0.320  13.114
78204SOL    HW136445   5.541   0.321  13.207
78204SOL    HW236446   5.631   0.254  13.105
78205SOL     OW36447   2.439   9.719   5.433
78205SOL    HW136448   2.525   9.719   5.391
78205SOL    HW236449   2.379   9.744   5.363
78206SOL     OW36450  12.287  12.559   9.253
78206SOL    HW136451  12.324  12.614   9.184
78206SOL    HW236452  12.253  12.482   9.207
78207SOL     OW36453  14.352  12.219   7.803
78207SOL    HW136454  14.325  12.168   7.880
78207SOL    HW236455  14.380  12.303   7.839
78208SOL     OW36456  13.767   7.404   3.920
78208SOL    HW136457  13.861   7.396   3.906
78208SOL    HW236458  13.731   7.425   3.834
78209SOL     OW36459  10.887   1.906   9.211
78209SOL    HW136460  10.911   1.898   9.119
78209SOL    HW236461  10.821   1.837   9.224
78210SOL     OW36462  11.908   1.518  11.659
78210SOL    HW136463  11.999   1.545  11.674
78210SOL    HW236464  11.878   1.489  11.745
78211SOL     OW36465   9.635   1.638   0.980
78211SOL    HW136466   9.712   1.616   0.928
78211SOL    HW236467   9.669   1.696   1.048
78212SOL     OW36468  13.364  10.662   2.086
78212SOL    HW136469  13.283  10.630   2.045
78212SOL    HW236470  13.408  10.583   2.117
78213SOL     OW36471  13.297  10.979   9.515
78213SOL    HW136472  13.286  11.053   9.575
78213SOL    HW236473  13.231  10.993   9.447
78214SOL     OW36474   0.412   4.073  13.339
78214SOL    HW136475   0.418   4.078  13.244
78214SOL    HW236476   0.454   3.990  13.362
78215SOL     OW36477   5.095   0.043  11.817
78215SOL    HW136478   5.129  14.873  11.743
78215SOL    HW236479   5.024  14.868  11.851
78216SOL     OW36480   2.767   6.786   3.420
78216SOL    HW136481   2.762   6.794   3.516
78216SOL    HW236482   2.776   6.876   3.390
78217SOL     OW36483   2.341  11.275   9.188
78217SOL    HW136484   2.365  11.232   9.270
78217SOL    HW236485   2.248  11.294   9.198
78218SOL     OW36486   3.857  12.266   7.852
78218SOL    HW136487   3.879  12.275   7.759
78218SOL    HW236488   3.910  12.193   7.882
78219SOL     OW36489  11.962   3.944  11.556
78219SOL    HW136490  11.981   3.854  11.532
78219SOL    HW236491  11.874   3.961  11.520
78220SOL     OW36492   8.455   0.294  11.396
78220SOL    HW136493   8.531   0.253  11.355
78220SOL    HW236494   8.488   0.332  11.477
78221SOL     OW36495   3.748   6.560   1.914
78221SOL    HW136496   3.657   6.533   1.909
78221SOL    HW236497   3.758   6.594   2.003
78222SOL     OW36498   1.349   7.154   6.542
78222SOL    HW136499   1.298   7.155   6.462
78222SOL    HW236500   1.433   7.116   6.517
78223SOL     OW36501   3.763   7.468  11.875
78223SOL    HW136502   3.736   7.537  11.814
78223SOL    HW236503   3.794   7.397  11.819
78224SOL     OW36504  10.369  10.541   6.154
78224SOL    HW136505  10.443  10.537   6.214
78224SOL    HW236506  10.391  10.610   6.092
78225SOL     OW36507  11.448   1.538   2.103
78225SOL    HW136508  11.481   1.492   2.181
78225SOL    HW236509  11.353   1.533   2.110
78226SOL     OW36510   3.761   7.148  10.676
78226SOL    HW136511   3.672   7.166  10.648
78226SOL    HW236512   3.760   7.056  10.703
78227SOL     OW36513   7.370   1.364   4.341
78227SOL    HW136514   7.389   1.428   4.273
78227SOL    HW236515   7.431   1.292   4.324
78228SOL     OW36516  14.866   7.374   7.459
78228SOL    HW136517   0.061   7.326   7.423
78228SOL    HW236518  14.866   7.458   7.413
78229SOL     OW36519  11.657   1.276   8.520
78229SOL    HW136520  11.570   1.258   8.555
78229SOL    HW236521  11.689   1.190   8.491
78230SOL     OW36522   9.822   1.985   3.116
78230SOL    HW136523   9.768   2.016   3.189
78230SOL    HW236524   9.880   2.059   3.096
78231SOL     OW36525   6.965   0.392  13.201
78231SOL    HW136526   7.025   0.432  13.265
78231SOL    HW236527   7.004   0.412  13.116
78232SOL     OW36528   7.272  13.356   8.991
78232SOL    HW136529   7.302  13.440   9.025
78232SOL    HW236530   7.186  13.374   8.953
78233SOL     OW36531   6.669  11.426  12.040
78233SOL    HW136532   6.602  11.413  12.108
78233SOL    HW236533   6.657  11.517  12.013
78234SOL     OW36534   3.778   4.057   2.658
78234SOL    HW136535   3.864   4.068   2.698
78234SOL    HW236536   3.783   4.108   2.577
78235SOL     OW36537  12.401   5.622   3.921
78235SOL    HW136538  12.463   5.609   3.993
78235SOL    HW236539  12.444   5.580   3.846
78236SOL     OW36540  10.004   6.568   2.015
78236SOL    HW136541  10.038   6.577   1.926
78236SOL    HW236542   9.909   6.558   2.003
78237SOL     OW36543   2.464  11.084  11.269
78237SOL    HW136544   2.421  11.016  11.217
78237SOL    HW236545   2.551  11.092  11.231
78238SOL     OW36546  14.096   7.064   5.358
78238SOL    HW136547  14.034   7.011   5.408
78238SOL    HW236548  14.151   7.001   5.313
78239SOL     OW36549  12.226   4.768   5.462
78239SOL    HW136550  12.247   4.783   5.370
78239SOL    HW236551  12.194   4.853   5.493
78240SOL     OW36552   6.884   0.308  12.256
78240SOL    HW136553   6.941   0.250  12.205
78240SOL    HW236554   6.939   0.336  12.330
78241SOL     OW36555   1.543   9.357  11.162
78241SOL    HW136556   1.533   9.334  11.069
78241SOL    HW236557   1.544   9.273  11.207
78242SOL     OW36558  10.303   8.084   5.859
78242SOL    HW136559  10.308   8.166   5.908
78242SOL    HW236560  10.319   8.110   5.768
78243SOL     OW36561  13.406   5.065   7.483
78243SOL    HW136562  13.477   5.129   7.488
78243SOL    HW236563  13.326   5.118   7.480
78244SOL     OW36564   2.300  10.124  13.927
78244SOL    HW136565   2.385  10.132  13.970
78244SOL    HW236566   2.310  10.049  13.868
78245SOL     OW36567   8.720   1.516   4.648
78245SOL    HW136568   8.781   1.442   4.659
78245SOL    HW236569   8.744   1.576   4.719
78246SOL     OW36570   8.070   8.061   4.960
78246SOL    HW136571   8.157   8.061   5.000
78246SOL    HW236572   8.058   8.149   4.926
78247SOL     OW36573   4.781  12.512   8.933
78247SOL    HW136574   4.832  12.552   8.863
78247SOL    HW236575   4.692  12.542   8.918
78248SOL     OW36576   8.359  14.236   4.628
78248SOL    HW136577   8.316  14.242   4.542
78248SOL    HW236578   8.453  14.237   4.608
78249SOL     OW36579   0.819   7.128   6.016
78249SOL    HW136580   0.770   7.088   6.088
78249SOL    HW236581   0.780   7.215   6.007
78250SOL     OW36582   4.387  11.116  13.795
78250SOL    HW136583   4.462  11.171  13.774
78250SOL    HW236584   4.396  11.040  13.738
78251SOL     OW36585  10.954   8.617   3.430
78251SOL    HW136586  10.966   8.701   3.386
78251SOL    HW236587  11.012   8.620   3.505
78252SOL     OW36588   4.251   5.717  12.179
78252SOL    HW136589   4.312   5.732  12.107
78252SOL    HW236590   4.172   5.682  12.138
78253SOL     OW36591   9.641   9.483  13.489
78253SOL    HW136592   9.596   9.561  13.522
78253SOL    HW236593   9.701   9.516  13.422
78254SOL     OW36594   7.020   1.652  10.176
78254SOL    HW136595   7.002   1.701  10.256
78254SOL    HW236596   6.947   1.591  10.168
78255SOL     OW36597   7.360   9.247   5.015
78255SOL    HW136598   7.308   9.189   4.959
78255SOL    HW236599   7.400   9.309   4.955
78256SOL     OW36600   3.400  14.163  11.869
78256SOL    HW136601   3.492  14.189  11.865
78256SOL    HW236602   3.401  14.080  11.916
78257SOL     OW36603  12.499  10.792   5.504
78257SOL    HW136604  12.419  10.839   5.528
78257SOL    HW236605  12.531  10.838   5.426
78258SOL     OW36606   5.113   6.539   8.447
78258SOL    HW136607   5.186   6.509   8.392
78258SOL    HW236608   5.143   6.525   8.537
78259SOL     OW36609  14.147   4.502  10.862
78259SOL    HW136610  14.057   4.478  10.886
78259SOL    HW236611  14.143   4.595  10.843
78260SOL     OW36612   3.655   3.364   6.130
78260SOL    HW136613   3.609   3.310   6.194
78260SOL    HW236614   3.699   3.301   6.072
78261SOL     OW36615  13.359   9.069   1.307
78261SOL    HW136616  13.333   9.032   1.391
78261SOL    HW236617  13.285   9.125   1.282
78262SOL     OW36618   0.112   8.422   4.149
78262SOL    HW136619   0.092   8.509   4.185
78262SOL    HW236620   0.092   8.430   4.056
78263SOL     OW36621   6.497   2.785   9.516
78263SOL    HW136622   6.467   2.801   9.606
78263SOL    HW236623   6.419   2.800   9.462
78264SOL     OW36624  13.864   7.354  11.491
78264SOL    HW136625  13.941   7.408  11.477
78264SOL    HW236626  13.899   7.271  11.525
78265SOL     OW36627   3.395   6.933   4.492
78265SOL    HW136628   3.339   6.892   4.425
78265SOL    HW236629   3.333   6.960   4.560
78266SOL     OW36630   5.000   7.652   3.320
78266SOL    HW136631   4.936   7.718   3.348
78266SOL    HW236632   4.951   7.570   3.318
78267SOL     OW36633   2.080  11.108   3.125
78267SOL    HW136634   2.065  11.023   3.085
78267SOL    HW236635   1.993  11.149   3.127
78268SOL     OW36636  11.355  11.134   8.515
78268SOL    HW136637  11.414  11.177   8.577
78268SOL    HW236638  11.410  11.116   8.439
78269SOL     OW36639  11.830   2.909   4.549
78269SOL    HW136640  11.783   2.936   4.470
78269SOL    HW236641  11.864   2.990   4.586
78270SOL     OW36642  13.935   3.357   3.645
78270SOL    HW136643  13.911   3.357   3.738
78270SOL    HW236644  13.916   3.268   3.615
78271SOL     OW36645   8.956   1.868  10.387
78271SOL    HW136646   8.870   1.833  10.407
78271SOL    HW236647   8.941   1.929  10.315
78272SOL     OW36648   6.146   4.923  11.296
78272SOL    HW136649   6.133   4.885  11.209
78272SOL    HW236650   6.239   4.911  11.314
78273SOL     OW36651  11.154   4.835  13.769
78273SOL    HW136652  11.247   4.829  13.744
78273SOL    HW236653  11.147   4.780  13.847
78274SOL     OW36654   1.758  14.316  11.956
78274SOL    HW136655   1.755  14.398  11.908
78274SOL    HW236656   1.824  14.330  12.025
78275SOL     OW36657  11.684   4.666   5.041
78275SOL    HW136658  11.756   4.720   5.009
78275SOL    HW236659  11.663   4.702   5.127
78276SOL     OW36660   7.009   9.445  11.539
78276SOL    HW136661   6.938   9.509  11.532
78276SOL    HW236662   7.038   9.453  11.630
78277SOL     OW36663   8.549   1.823   9.302
78277SOL    HW136664   8.529   1.881   9.228
78277SOL    HW236665   8.467   1.816   9.350
78278SOL     OW36666   4.910   3.099   1.168
78278SOL    HW136667   4.824   3.121   1.204
78278SOL    HW236668   4.972   3.136   1.230
78279SOL     OW36669  11.055   4.408   8.667
78279SOL    HW136670  10.977   4.387   8.616
78279SOL    HW236671  11.024   4.414   8.757
78280SOL     OW36672   3.900   8.648  14.851
78280SOL    HW136673   3.933   8.730  14.815
78280SOL    HW236674   3.810   8.668  14.879
78281SOL     OW36675   8.015  14.487   7.145
78281SOL    HW136676   7.960  14.415   7.174
78281SOL    HW236677   8.102  14.449   7.133
78282SOL     OW36678   7.683   4.932  11.480
78282SOL    HW136679   7.761   4.984  11.497
78282SOL    HW236680   7.711   4.841  11.492
78283SOL     OW36681   1.517   7.304  11.170
78283SOL    HW136682   1.559   7.368  11.112
78283SOL    HW236683   1.513   7.224  11.118
78284SOL     OW36684   2.266   5.893   0.121
78284SOL    HW136685   2.178   5.858   0.110
78284SOL    HW236686   2.255   5.973   0.172
78285SOL     OW36687   8.358  14.195  14.539
78285SOL    HW136688   8.354  14.103  14.565
78285SOL    HW236689   8.375  14.193  14.445
78286SOL     OW36690  12.850  14.325  14.070
78286SOL    HW136691  12.920  14.311  14.134
78286SOL    HW236692  12.776  14.359  14.122
78287SOL     OW36693   7.058  10.959  11.465
78287SOL    HW136694   6.985  10.980  11.408
78287SOL    HW236695   7.079  11.042  11.508
78288SOL     OW36696   2.369  13.552   7.783
78288SOL    HW136697   2.273  13.543   7.785
78288SOL    HW236698   2.384  13.634   7.736
78289SOL     OW36699   1.422   6.411   5.472
78289SOL    HW136700   1.374   6.330   5.488
78289SOL    HW236701   1.384   6.474   5.535
78290SOL     OW36702   2.026   3.410  11.273
78290SOL    HW136703   2.046   3.489  11.223
78290SOL    HW236704   2.038   3.338  11.211
78291SOL     OW36705  13.994   1.325   1.387
78291SOL    HW136706  14.064   1.390   1.389
78291SOL    HW236707  14.017   1.268   1.313
78292SOL     OW36708   0.021  11.383   2.182
78292SOL    HW136709   0.096  11.375   2.241
78292SOL    HW236710  14.854  11.461   2.213
78293SOL     OW36711   5.634  10.339  12.782
78293SOL    HW136712   5.560  10.282  12.758
78293SOL    HW236713   5.698  10.279  12.820
78294SOL     OW36714   0.777   7.117  10.726
78294SOL    HW136715   0.778   7.062  10.648
78294SOL    HW236716   0.839   7.076  10.786
78295SOL     OW36717   0.989   2.068   6.954
78295SOL    HW136718   0.972   2.028   7.039
78295SOL    HW236719   0.931   2.022   6.894
78296SOL     OW36720   3.805  11.638  14.568
78296SOL    HW136721   3.786  11.657  14.660
78296SOL    HW236722   3.901  11.642  14.562
78297SOL     OW36723   9.360   2.673  10.488
78297SOL    HW136724   9.430   2.616  10.457
78297SOL    HW236725   9.313   2.699  10.409
78298SOL     OW36726  13.514  13.253   9.724
78298SOL    HW136727  13.583  13.232   9.787
78298SOL    HW236728  13.490  13.344   9.744
78299SOL     OW36729   7.630   7.779   9.594
78299SOL    HW136730   7.692   7.713   9.626
78299SOL    HW236731   7.563   7.784   9.662
78300SOL     OW36732  12.183  14.602  11.131
78300SOL    HW136733  12.099  14.623  11.090
78300SOL    HW236734  12.201  14.512  11.105
78301SOL     OW36735   8.606   5.271   0.338
78301SOL    HW136736   8.632   5.243   0.251
78301SOL    HW236737   8.538   5.336   0.324
78302SOL     OW36738  10.265   6.385  11.816
78302SOL    HW136739  10.181   6.423  11.841
78302SOL    HW236740  10.302   6.353  11.899
78303SOL     OW36741   2.948   8.689   5.235
78303SOL    HW136742   3.007   8.660   5.304
78303SOL    HW236743   2.926   8.608   5.188
78304SOL     OW36744   3.281  11.213   5.777
78304SOL    HW136745   3.219  11.222   5.704
78304SOL    HW236746   3.239  11.151   5.836
78305SOL     OW36747   7.353  13.264  10.920
78305SOL    HW136748   7.410  13.321  10.869
78305SOL    HW236749   7.281  13.243  10.861
78306SOL     OW36750  11.327   9.417   4.026
78306SOL    HW136751  11.254   9.467   4.063
78306SOL    HW236752  11.298   9.393   3.938
78307SOL     OW36753   7.571  13.546   3.523
78307SOL    HW136754   7.597  13.455   3.510
78307SOL    HW236755   7.580  13.559   3.618
78308SOL     OW36756  14.246  11.891   0.275
78308SOL    HW136757  14.337  11.915   0.255
78308SOL    HW236758  14.241  11.892   0.370
78309SOL     OW36759  14.395   0.969   0.746
78309SOL    HW136760  14.311   1.015   0.746
78309SOL    HW236761  14.461   1.039   0.748
78310SOL     OW36762  10.683   4.473   4.752
78310SOL    HW136763  10.616   4.424   4.706
78310SOL    HW236764  10.763   4.458   4.701
78311SOL     OW36765   4.432  12.673   3.624
78311SOL    HW136766   4.450  12.758   3.583
78311SOL    HW236767   4.516  12.644   3.657
78312SOL     OW36768   4.728   3.093   7.481
78312SOL    HW136769   4.642   3.054   7.469
78312SOL    HW236770   4.763   3.103   7.392
78313SOL     OW36771   6.964  10.990   2.033
78313SOL    HW136772   6.950  10.930   1.961
78313SOL    HW236773   6.921  10.949   2.108
78314SOL     OW36774   2.547   4.331   5.912
78314SOL    HW136775   2.599   4.373   5.844
78314SOL    HW236776   2.518   4.403   5.968
78315SOL     OW36777   2.165   1.683   1.147
78315SOL    HW136778   2.244   1.641   1.113
78315SOL    HW236779   2.093   1.640   1.100
78316SOL     OW36780   3.935  12.588  12.367
78316SOL    HW136781   3.964  12.606  12.456
78316SOL    HW236782   3.940  12.672  12.323
78317SOL     OW36783   8.879   8.594   1.227
78317SOL    HW136784   8.838   8.565   1.308
78317SOL    HW236785   8.962   8.634   1.255
78318SOL     OW36786  10.406   7.356   2.236
78318SOL    HW136787  10.349   7.326   2.307
78318SOL    HW236788  10.351   7.353   2.158
78319SOL     OW36789   6.459   2.314   6.345
78319SOL    HW136790   6.499   2.326   6.259
78319SOL    HW236791   6.418   2.227   6.341
78320SOL     OW36792   1.405   3.455  12.977
78320SOL    HW136793   1.409   3.400  12.899
78320SOL    HW236794   1.314   3.484  12.981
78321SOL     OW36795   5.052  12.492   9.750
78321SOL    HW136796   5.096  12.419   9.706
78321SOL    HW236797   5.120  12.559   9.757
78322SOL     OW36798   9.295   0.768  11.181
78322SOL    HW136799   9.240   0.761  11.103
78322SOL    HW236800   9.336   0.854  11.175
78323SOL     OW36801  14.727   3.372  10.366
78323SOL    HW136802  14.643   3.407  10.336
78323SOL    HW236803  14.706   3.285  10.401
78324SOL     OW36804   3.439   2.683  10.821
78324SOL    HW136805   3.354   2.638  10.826
78324SOL    HW236806   3.501   2.620  10.856
78325SOL     OW36807   7.696   3.006   8.088
78325SOL    HW136808   7.775   2.971   8.047
78325SOL    HW236809   7.702   3.100   8.075
78326SOL     OW36810  12.183   2.293   6.786
78326SOL    HW136811  12.150   2.280   6.697
78326SOL    HW236812  12.104   2.307   6.838
78327SOL     OW36813  13.068   4.951   2.988
78327SOL    HW136814  13.045   4.887   2.921
78327SOL    HW236815  13.164   4.955   2.986
78328SOL     OW36816   6.680   1.366   7.303
78328SOL    HW136817   6.699   1.341   7.394
78328SOL    HW236818   6.585   1.377   7.301
78329SOL     OW36819   9.548  10.463  11.749
78329SOL    HW136820   9.487  10.492  11.817
78329SOL    HW236821   9.493  10.449  11.672
78330SOL     OW36822   2.853   4.080   0.139
78330SOL    HW136823   2.905   4.157   0.113
78330SOL    HW236824   2.792   4.066   0.067
78331SOL     OW36825   0.988   3.567   1.261
78331SOL    HW136826   0.944   3.628   1.320
78331SOL    HW236827   1.071   3.549   1.303
78332SOL     OW36828  11.111  14.479  13.344
78332SOL    HW136829  11.187  14.460  13.399
78332SOL    HW236830  11.133  14.441  13.259
78333SOL     OW36831  14.391  10.423   7.289
78333SOL    HW136832  14.382  10.353   7.353
78333SOL    HW236833  14.425  10.497   7.339
78334SOL     OW36834   4.972   5.086   1.557
78334SOL    HW136835   4.900   5.128   1.510
78334SOL    HW236836   5.028   5.051   1.487
78335SOL     OW36837   3.317  13.883   9.815
78335SOL    HW136838   3.276  13.802   9.786
78335SOL    HW236839   3.295  13.889   9.908
78336SOL     OW36840   0.578  12.317   8.172
78336SOL    HW136841   0.640  12.285   8.106
78336SOL    HW236842   0.633  12.343   8.246
78337SOL     OW36843  13.315  14.116   7.755
78337SOL    HW136844  13.290  14.035   7.711
78337SOL    HW236845  13.405  14.132   7.727
78338SOL     OW36846   1.612   0.649   5.098
78338SOL    HW136847   1.634   0.665   5.190
78338SOL    HW236848   1.685   0.688   5.049
78339SOL     OW36849   4.937   8.586   3.622
78339SOL    HW136850   4.930   8.511   3.563
78339SOL    HW236851   5.024   8.578   3.661
78340SOL     OW36852  11.967   5.428   2.964
78340SOL    HW136853  11.919   5.441   2.882
78340SOL    HW236854  12.035   5.495   2.963
78341SOL     OW36855  10.166   1.057   8.873
78341SOL    HW136856  10.140   0.965   8.873
78341SOL    HW236857  10.196   1.074   8.784
78342SOL     OW36858   2.056  11.355  12.924
78342SOL    HW136859   1.980  11.407  12.898
78342SOL    HW236860   2.059  11.362  13.020
78343SOL     OW36861   7.208   6.882  11.679
78343SOL    HW136862   7.206   6.899  11.774
78343SOL    HW236863   7.246   6.962  11.642
78344SOL     OW36864   2.414   2.553   0.549
78344SOL    HW136865   2.478   2.598   0.493
78344SOL    HW236866   2.397   2.615   0.620
78345SOL     OW36867  13.558  12.065   7.765
78345SOL    HW136868  13.635  12.043   7.712
78345SOL    HW236869  13.525  11.981   7.796
78346SOL     OW36870  13.314   6.292   3.242
78346SOL    HW136871  13.327   6.200   3.219
78346SOL    HW236872  13.222   6.297   3.268
78347SOL     OW36873   7.324   1.001   9.793
78347SOL    HW136874   7.310   0.930   9.731
78347SOL    HW236875   7.331   1.080   9.739
78348SOL     OW36876   9.466   7.494   8.035
78348SOL    HW136877   9.491   7.586   8.044
78348SOL    HW236878   9.473   7.476   7.941
78349SOL     OW36879   7.333   6.103   5.742
78349SOL    HW136880   7.262   6.090   5.680
78349SOL    HW236881   7.298   6.166   5.805
78350SOL     OW36882   6.991   7.783   6.057
78350SOL    HW136883   6.929   7.765   6.127
78350SOL    HW236884   6.985   7.878   6.044
78351SOL     OW36885   2.271   3.391  12.586
78351SOL    HW136886   2.275   3.420  12.677
78351SOL    HW236887   2.253   3.297  12.591
78352SOL     OW36888   7.313  14.088   0.658
78352SOL    HW136889   7.361  14.152   0.606
78352SOL    HW236890   7.354  14.092   0.744
78353SOL     OW36891   6.311   8.928   1.327
78353SOL    HW136892   6.302   8.864   1.256
78353SOL    HW236893   6.221   8.953   1.348
78354SOL     OW36894  13.298  14.088  13.886
78354SOL    HW136895  13.208  14.057  13.886
78354SOL    HW236896  13.335  14.055  13.968
78355SOL     OW36897   9.395   8.190   9.481
78355SOL    HW136898   9.415   8.130   9.409
78355SOL    HW236899   9.329   8.249   9.446
78356SOL     OW36900  12.412  14.437   2.686
78356SOL    HW136901  12.355  14.478   2.621
78356SOL    HW236902  12.498  14.433   2.643
78357SOL     OW36903   2.365   9.877   7.435
78357SOL    HW136904   2.332   9.813   7.372
78357SOL    HW236905   2.294   9.886   7.499
78358SOL     OW36906  11.711   3.721   4.861
78358SOL    HW136907  11.666   3.687   4.938
78358SOL    HW236908  11.691   3.814   4.861
78359SOL     OW36909   3.506   1.372  11.905
78359SOL    HW136910   3.562   1.311  11.856
78359SOL    HW236911   3.475   1.435  11.840
78360SOL     OW36912   9.991   8.370   8.540
78360SOL    HW136913  10.048   8.344   8.468
78360SOL    HW236914   9.902   8.361   8.505
78361SOL     OW36915  13.735   5.176   2.748
78361SOL    HW136916  13.792   5.100   2.759
78361SOL    HW236917  13.657   5.155   2.799
78362SOL     OW36918   6.208  13.635   5.700
78362SOL    HW136919   6.118  13.664   5.712
78362SOL    HW236920   6.201  13.551   5.654
78363SOL     OW36921  13.423   7.146  12.118
78363SOL    HW136922  13.468   7.189  12.191
78363SOL    HW236923  13.331   7.169  12.130
78364SOL     OW36924   6.509   4.350   6.821
78364SOL    HW136925   6.568   4.359   6.896
78364SOL    HW236926   6.473   4.262   6.829
78365SOL     OW36927   9.111  11.850   1.141
78365SOL    HW136928   9.029  11.856   1.191
78365SOL    HW236929   9.174  11.902   1.192
78366SOL     OW36930  10.213   1.770   4.353
78366SOL    HW136931  10.247   1.681   4.343
78366SOL    HW236932  10.182   1.795   4.266
78367SOL     OW36933   5.795   7.087   0.669
78367SOL    HW136934   5.826   7.178   0.672
78367SOL    HW236935   5.830   7.047   0.748
78368SOL     OW36936  11.069  11.040   4.339
78368SOL    HW136937  11.001  10.974   4.327
78368SOL    HW236938  11.151  10.992   4.333
78369SOL     OW36939   9.049   1.966   9.204
78369SOL    HW136940   8.976   1.907   9.185
78369SOL    HW236941   9.095   1.925   9.277
78370SOL     OW36942   6.211   1.359   3.876
78370SOL    HW136943   6.236   1.267   3.862
78370SOL    HW236944   6.166   1.358   3.961
78371SOL     OW36945  10.217   8.409   5.475
78371SOL    HW136946  10.164   8.488   5.482
78371SOL    HW236947  10.303   8.441   5.445
78372SOL     OW36948   3.713  11.013   1.193
78372SOL    HW136949   3.775  10.962   1.244
78372SOL    HW236950   3.767  11.064   1.133
78373SOL     OW36951   9.859   0.476   2.493
78373SOL    HW136952   9.871   0.543   2.426
78373SOL    HW236953   9.808   0.519   2.561
78374SOL     OW36954  10.756   4.572  10.063
78374SOL    HW136955  10.666   4.605  10.070
78374SOL    HW236956  10.763   4.507  10.133
78375SOL     OW36957   7.665   5.614   0.373
78375SOL    HW136958   7.609   5.539   0.392
78375SOL    HW236959   7.656   5.670   0.450
78376SOL     OW36960   3.785   6.722   5.840
78376SOL    HW136961   3.748   6.692   5.922
78376SOL    HW236962   3.718   6.778   5.802
78377SOL     OW36963  11.417   4.779   4.947
78377SOL    HW136964  11.372   4.707   4.902
78377SOL    HW236965  11.491   4.737   4.990
78378SOL     OW36966   1.061   7.283   7.406
78378SOL    HW136967   1.124   7.329   7.462
78378SOL    HW236968   1.115   7.225   7.353
78379SOL     OW36969   6.526  11.360  10.680
78379SOL    HW136970   6.588  11.405  10.738
78379SOL    HW236971   6.578  11.334  10.604
78380SOL     OW36972  10.271   2.336   2.844
78380SOL    HW136973  10.248   2.361   2.933
78380SOL    HW236974  10.355   2.379   2.828
78381SOL     OW36975  11.229  13.471   6.456
78381SOL    HW136976  11.317  13.455   6.422
78381SOL    HW236977  11.177  13.492   6.379
78382SOL     OW36978  12.286   3.206  14.020
78382SOL    HW136979  12.267   3.214  14.114
78382SOL    HW236980  12.322   3.291  13.996
78383SOL     OW36981   9.818   6.842   7.598
78383SOL    HW136982   9.845   6.933   7.615
78383SOL    HW236983   9.892   6.803   7.553
78384SOL     OW36984  13.868   1.538   7.893
78384SOL    HW136985  13.776   1.548   7.915
78384SOL    HW236986  13.909   1.507   7.973
78385SOL     OW36987   2.806   0.411  14.659
78385SOL    HW136988   2.791   0.445  14.570
78385SOL    HW236989   2.838   0.486  14.708
78386SOL     OW36990   2.882   6.743   6.886
78386SOL    HW136991   2.863   6.835   6.865
78386SOL    HW236992   2.849   6.731   6.975
78387SOL     OW36993   4.830   2.427   4.885
78387SOL    HW136994   4.891   2.443   4.813
78387SOL    HW236995   4.873   2.465   4.962
78388SOL     OW36996   0.233   0.567   3.753
78388SOL    HW136997   0.317   0.597   3.788
78388SOL    HW236998   0.176   0.559   3.829
78389SOL     OW36999   7.115   0.202   0.896
78389SOL    HW137000   7.097   0.118   0.939
78389SOL    HW237001   7.033   0.251   0.905
78390SOL     OW37002   6.995   4.140   3.672
78390SOL    HW137003   6.942   4.208   3.713
78390SOL    HW237004   7.082   4.179   3.664
78391SOL     OW37005   7.612  10.413   8.129
78391SOL    HW137006   7.534  10.437   8.180
78391SOL    HW237007   7.600  10.321   8.108
78392SOL     OW37008   4.813   6.119   8.419
78392SOL    HW137009   4.873   6.194   8.421
78392SOL    HW237010   4.840   6.069   8.342
78393SOL     OW37011   9.950   1.684   3.626
78393SOL    HW137012  10.037   1.647   3.645
78393SOL    HW237013   9.900   1.610   3.590
78394SOL     OW37014  13.876   7.624   9.587
78394SOL    HW137015  13.809   7.595   9.526
78394SOL    HW237016  13.956   7.629   9.535
78395SOL     OW37017  11.121   3.684   2.310
78395SOL    HW137018  11.026   3.688   2.318
78395SOL    HW237019  11.137   3.611   2.251
78396SOL     OW37020   2.277   3.319  10.606
78396SOL    HW137021   2.356   3.362  10.637
78396SOL    HW237022   2.287   3.228  10.634
78397SOL     OW37023  14.869  11.573  10.650
78397SOL    HW137024  14.837  11.493  10.608
78397SOL    HW237025   0.044  11.542  10.723
78398SOL     OW37026   0.744  14.580   0.222
78398SOL    HW137027   0.682  14.508   0.209
78398SOL    HW237028   0.691  14.649   0.263
78399SOL     OW37029   1.516   3.036   1.471
78399SOL    HW137030   1.439   3.003   1.423
78399SOL    HW237031   1.494   3.127   1.491
78400SOL     OW37032   7.177  14.507   9.002
78400SOL    HW137033   7.087  14.514   8.971
78400SOL    HW237034   7.214  14.435   8.951
78401SOL     OW37035   1.012   0.974   0.638
78401SOL    HW137036   1.023   1.032   0.563
78401SOL    HW237037   1.101   0.945   0.659
78402SOL     OW37038   4.730   7.769   2.200
78402SOL    HW137039   4.658   7.780   2.139
78402SOL    HW237040   4.808   7.765   2.145
78403SOL     OW37041  11.010   8.360   7.875
78403SOL    HW137042  10.965   8.371   7.791
78403SOL    HW237043  11.010   8.447   7.914
78404SOL     OW37044   0.674   8.439   3.994
78404SOL    HW137045   0.631   8.444   4.079
78404SOL    HW237046   0.625   8.499   3.938
78405SOL     OW37047  12.884   6.592   7.949
78405SOL    HW137048  12.896   6.660   7.883
78405SOL    HW237049  12.839   6.521   7.904
78406SOL     OW37050  13.318  10.434  12.453
78406SOL    HW137051  13.261  10.368  12.492
78406SOL    HW237052  13.262  10.479  12.389
78407SOL     OW37053  11.835   7.531   9.195
78407SOL    HW137054  11.771   7.463   9.215
78407SOL    HW237055  11.782   7.611   9.184
78408SOL     OW37056  13.980   6.380   4.381
78408SOL    HW137057  13.973   6.343   4.469
78408SOL    HW237058  14.072   6.406   4.373
78409SOL     OW37059   9.914  12.335  13.536
78409SOL    HW137060   9.961  12.257  13.564
78409SOL    HW237061   9.949  12.405  13.591
78410SOL     OW37062   5.077   3.568  12.982
78410SOL    HW137063   4.993   3.568  13.027
78410SOL    HW237064   5.099   3.661  12.974
78411SOL     OW37065  12.906   8.641   8.069
78411SOL    HW137066  12.947   8.721   8.036
78411SOL    HW237067  12.815   8.666   8.086
78412SOL     OW37068  11.226   5.854   7.458
78412SOL    HW137069  11.273   5.807   7.389
78412SOL    HW237070  11.157   5.902   7.411
78413SOL     OW37071   2.887   7.816   4.411
78413SOL    HW137072   2.881   7.748   4.478
78413SOL    HW237073   2.976   7.806   4.376
78414SOL     OW37074  12.378   6.599  13.372
78414SOL    HW137075  12.388   6.654  13.450
78414SOL    HW237076  12.309   6.643  13.321
78415SOL     OW37077   8.629  13.201   4.096
78415SOL    HW137078   8.723  13.206   4.080
78415SOL    HW237079   8.602  13.293   4.102
78416SOL     OW37080   8.265   8.401   7.832
78416SOL    HW137081   8.209   8.350   7.773
78416SOL    HW237082   8.204   8.450   7.887
78417SOL     OW37083  12.046   9.433   9.341
78417SOL    HW137084  12.059   9.339   9.357
78417SOL    HW237085  12.011   9.467   9.424
78418SOL     OW37086  14.601   9.456  10.181
78418SOL    HW137087  14.596   9.469  10.086
78418SOL    HW237088  14.681   9.404  10.193
78419SOL     OW37089   6.741   9.291   7.092
78419SOL    HW137090   6.784   9.220   7.139
78419SOL    HW237091   6.725   9.256   7.004
78420SOL     OW37092  11.000  13.348  11.177
78420SOL    HW137093  10.981  13.398  11.257
78420SOL    HW237094  11.020  13.260  11.208
78421SOL     OW37095   8.029  14.618  14.220
78421SOL    HW137096   8.003  14.526  14.219
78421SOL    HW237097   8.118  14.618  14.256
78422SOL     OW37098   5.697   8.969   4.823
78422SOL    HW137099   5.753   9.039   4.788
78422SOL    HW237100   5.716   8.968   4.917
78423SOL     OW37101   2.028  11.677   9.769
78423SOL    HW137102   2.088  11.718   9.831
78423SOL    HW237103   2.046  11.583   9.777
78424SOL     OW37104  13.903  10.898  14.524
78424SOL    HW137105  13.933  10.891  14.615
78424SOL    HW237106  13.812  10.928  14.532
78425SOL     OW37107   2.352  10.730   3.203
78425SOL    HW137108   2.289  10.661   3.183
78425SOL    HW237109   2.309  10.784   3.269
78426SOL     OW37110   0.340   6.670   7.578
78426SOL    HW137111   0.263   6.616   7.560
78426SOL    HW237112   0.334   6.742   7.515
78427SOL     OW37113   5.766   2.268   7.933
78427SOL    HW137114   5.788   2.187   7.888
78427SOL    HW237115   5.702   2.242   7.999
78428SOL     OW37116  14.434  10.003   7.232
78428SOL    HW137117  14.491  10.039   7.300
78428SOL    HW237118  14.358   9.968   7.280
78429SOL     OW37119   7.849  13.883   0.238
78429SOL    HW137120   7.779  13.899   0.302
78429SOL    HW237121   7.930  13.897   0.288
78430SOL     OW37122   2.181  11.706   1.885
78430SOL    HW137123   2.245  11.763   1.841
78430SOL    HW237124   2.121  11.766   1.928
78431SOL     OW37125  12.035  12.442  13.887
78431SOL    HW137126  11.960  12.476  13.936
78431SOL    HW237127  12.001  12.367  13.840
78432SOL     OW37128   3.458  10.322   6.501
78432SOL    HW137129   3.414  10.297   6.420
78432SOL    HW237130   3.486  10.412   6.487
78433SOL     OW37131   7.582   5.379  11.649
78433SOL    HW137132   7.602   5.452  11.707
78433SOL    HW237133   7.662   5.327  11.647
78434SOL     OW37134   0.057   4.800  13.984
78434SOL    HW137135  14.849   4.835  13.967
78434SOL    HW237136   0.044   4.706  13.995
78435SOL     OW37137  14.327  14.250   4.305
78435SOL    HW137138  14.274  14.264   4.227
78435SOL    HW237139  14.309  14.327   4.360
78436SOL     OW37140  14.741   4.537  13.133
78436SOL    HW137141  14.694   4.604  13.085
78436SOL    HW237142  14.758   4.468  13.068
78437SOL     OW37143   4.782   7.658   8.556
78437SOL    HW137144   4.784   7.610   8.474
78437SOL    HW237145   4.751   7.595   8.621
78438SOL     OW37146  12.984   0.126   4.085
78438SOL    HW137147  13.047   0.158   4.149
78438SOL    HW237148  12.942   0.205   4.051
78439SOL     OW37149  11.254   7.552   7.894
78439SOL    HW137150  11.173   7.578   7.851
78439SOL    HW237151  11.239   7.463   7.923
78440SOL     OW37152   2.499   8.116   1.487
78440SOL    HW137153   2.435   8.061   1.532
78440SOL    HW237154   2.505   8.194   1.541
78441SOL     OW37155  12.895  10.910   9.401
78441SOL    HW137156  12.885  10.834   9.345
78441SOL    HW237157  12.971  10.957   9.365
78442SOL     OW37158  12.771  12.026  13.006
78442SOL    HW137159  12.844  12.082  12.979
78442SOL    HW237160  12.694  12.082  13.000
78443SOL     OW37161  14.540   9.394   8.540
78443SOL    HW137162  14.545   9.487   8.519
78443SOL    HW237163  14.446   9.376   8.546
78444SOL     OW37164  13.103   9.934   7.784
78444SOL    HW137165  13.170   9.910   7.721
78444SOL    HW237166  13.021   9.900   7.747
78445SOL     OW37167  11.413   5.092   2.246
78445SOL    HW137168  11.447   5.136   2.168
78445SOL    HW237169  11.336   5.142   2.271
78446SOL     OW37170   6.668   0.547   7.612
78446SOL    HW137171   6.579   0.521   7.638
78446SOL    HW237172   6.722   0.472   7.637
78447SOL     OW37173   7.597  11.050   7.422
78447SOL    HW137174   7.630  11.099   7.498
78447SOL    HW237175   7.533  10.990   7.459
78448SOL     OW37176   3.201   9.382  14.327
78448SOL    HW137177   3.110   9.412  14.330
78448SOL    HW237178   3.227   9.377  14.419
78449SOL     OW37179   2.137   4.527   3.021
78449SOL    HW137180   2.208   4.523   3.085
78449SOL    HW237181   2.172   4.578   2.949
78450SOL     OW37182  13.368   6.558   3.680
78450SOL    HW137183  13.427   6.623   3.641
78450SOL    HW237184  13.367   6.486   3.617
78451SOL     OW37185  13.341   9.914  10.992
78451SOL    HW137186  13.334   9.974  11.066
78451SOL    HW237187  13.385   9.964  10.924
78452SOL     OW37188  13.413  12.669  12.055
78452SOL    HW137189  13.398  12.610  12.128
78452SOL    HW237190  13.325  12.688  12.021
78453SOL     OW37191   6.368  10.613  14.126
78453SOL    HW137192   6.302  10.656  14.072
78453SOL    HW237193   6.396  10.536  14.075
78454SOL     OW37194  13.393   5.882  12.407
78454SOL    HW137195  13.452   5.958  12.405
78454SOL    HW237196  13.401   5.844  12.320
78455SOL     OW37197   7.051  14.115   3.161
78455SOL    HW137198   7.061  14.136   3.068
78455SOL    HW237199   6.969  14.065   3.165
78456SOL     OW37200  11.308   5.588   7.816
78456SOL    HW137201  11.344   5.666   7.775
78456SOL    HW237202  11.214   5.605   7.824
78457SOL     OW37203  13.341   4.809   6.806
78457SOL    HW137204  13.250   4.784   6.790
78457SOL    HW237205  13.337   4.904   6.822
78458SOL     OW37206   7.970  13.244  13.292
78458SOL    HW137207   7.922  13.192  13.227
78458SOL    HW237208   7.904  13.303  13.328
78459SOL     OW37209   3.908   6.434  11.045
78459SOL    HW137210   3.968   6.394  11.107
78459SOL    HW237211   3.854   6.362  11.013
78460SOL     OW37212   9.442  11.898  11.571
78460SOL    HW137213   9.481  11.909  11.485
78460SOL    HW237214   9.465  11.809  11.597
78461SOL     OW37215  11.534   6.308  13.954
78461SOL    HW137216  11.567   6.274  14.037
78461SOL    HW237217  11.505   6.230  13.906
78462SOL     OW37218   0.675   0.527  14.876
78462SOL    HW137219   0.733   0.451  14.866
78462SOL    HW237220   0.610   0.517  14.807
78463SOL     OW37221  13.135  13.214   4.586
78463SOL    HW137222  13.168  13.176   4.505
78463SOL    HW237223  13.061  13.269   4.559
78464SOL     OW37224  12.601   0.671   6.291
78464SOL    HW137225  12.515   0.630   6.293
78464SOL    HW237226  12.637   0.658   6.379
78465SOL     OW37227   5.824   6.850  14.868
78465SOL    HW137228   5.914   6.838   0.022
78465SOL    HW237229   5.777   6.891   0.061
78466SOL     OW37230   8.224   8.732   5.722
78466SOL    HW137231   8.314   8.701   5.735
78466SOL    HW237232   8.171   8.652   5.729
78467SOL     OW37233   7.016  13.549   7.822
78467SOL    HW137234   7.108  13.559   7.796
78467SOL    HW237235   6.985  13.639   7.834
78468SOL     OW37236  10.708   6.152  11.192
78468SOL    HW137237  10.764   6.221  11.159
78468SOL    HW237238  10.689   6.177  11.283
78469SOL     OW37239   4.152  11.511  11.809
78469SOL    HW137240   4.090  11.458  11.858
78469SOL    HW237241   4.122  11.506  11.718
78470SOL     OW37242  12.539   0.903  14.444
78470SOL    HW137243  12.541   0.835  14.376
78470SOL    HW237244  12.572   0.859  14.522
78471SOL     OW37245   5.513  13.731   7.233
78471SOL    HW137246   5.604  13.735   7.205
78471SOL    HW237247   5.485  13.642   7.211
78472SOL     OW37248   1.046   0.289   4.314
78472SOL    HW137249   0.961   0.251   4.288
78472SOL    HW237250   1.084   0.225   4.374
78473SOL     OW37251   0.590   1.525   2.657
78473SOL    HW137252   0.649   1.589   2.618
78473SOL    HW237253   0.509   1.573   2.675
78474SOL     OW37254   2.194   6.951   0.906
78474SOL    HW137255   2.143   6.884   0.951
78474SOL    HW237256   2.275   6.907   0.881
78475SOL     OW37257  10.936   9.522  13.677
78475SOL    HW137258  11.002   9.546  13.742
78475SOL    HW237259  10.852   9.538  13.721
78476SOL     OW37260   5.677   1.832   1.464
78476SOL    HW137261   5.600   1.781   1.490
78476SOL    HW237262   5.747   1.799   1.520
78477SOL     OW37263  11.893   2.306   0.115
78477SOL    HW137264  11.956   2.267   0.053
78477SOL    HW237265  11.820   2.245   0.116
78478SOL     OW37266  13.006   9.585   5.245
78478SOL    HW137267  13.044   9.537   5.318
78478SOL    HW237268  12.912   9.571   5.252
78479SOL     OW37269   0.662  10.904   1.064
78479SOL    HW137270   0.738  10.940   1.108
78479SOL    HW237271   0.698  10.850   0.994
78480SOL     OW37272   0.397  14.632   0.519
78480SOL    HW137273   0.348  14.576   0.459
78480SOL    HW237274   0.424  14.573   0.590
78481SOL     OW37275  11.365   8.446  13.807
78481SOL    HW137276  11.350   8.352  13.797
78481SOL    HW237277  11.384   8.458  13.900
78482SOL     OW37278   5.039  10.542  12.680
78482SOL    HW137279   5.015  10.591  12.602
78482SOL    HW237280   5.046  10.451  12.651
78483SOL     OW37281   7.745   3.214  13.160
78483SOL    HW137282   7.816   3.279  13.157
78483SOL    HW237283   7.696   3.236  13.239
78484SOL     OW37284  14.647   9.388   1.361
78484SOL    HW137285  14.615   9.302   1.390
78484SOL    HW237286  14.634   9.446   1.436
78485SOL     OW37287  14.804   7.969  14.471
78485SOL    HW137288  14.816   8.049  14.521
78485SOL    HW237289  14.711   7.949  14.479
78486SOL     OW37290   3.264  10.356  12.566
78486SOL    HW137291   3.305  10.406  12.495
78486SOL    HW237292   3.301  10.393  12.646
78487SOL     OW37293  11.845   2.904   8.616
78487SOL    HW137294  11.853   2.813   8.645
78487SOL    HW237295  11.900   2.953   8.676
78488SOL     OW37296   1.107   9.916  11.658
78488SOL    HW137297   1.146   9.834  11.688
78488SOL    HW237298   1.016   9.912  11.689
78489SOL     OW37299   3.559   5.252  11.734
78489SOL    HW137300   3.639   5.221  11.691
78489SOL    HW237301   3.489   5.223  11.676
78490SOL     OW37302   8.403  13.312   7.268
78490SOL    HW137303   8.461  13.268   7.330
78490SOL    HW237304   8.446  13.396   7.250
78491SOL     OW37305  12.460   3.663   2.348
78491SOL    HW137306  12.540   3.655   2.400
78491SOL    HW237307  12.395   3.612   2.395
78492SOL     OW37308   2.015   6.034   0.604
78492SOL    HW137309   1.929   6.061   0.635
78492SOL    HW237310   2.071   6.038   0.682
78493SOL     OW37311  13.499   3.479   0.716
78493SOL    HW137312  13.489   3.571   0.739
78493SOL    HW237313  13.556   3.480   0.639
78494SOL     OW37314   1.449   5.500   5.499
78494SOL    HW137315   1.465   5.542   5.583
78494SOL    HW237316   1.412   5.415   5.521
78495SOL     OW37317   0.505   8.204  14.130
78495SOL    HW137318   0.412   8.223  14.117
78495SOL    HW237319   0.537   8.181  14.042
78496SOL     OW37320   4.666  13.743   7.893
78496SOL    HW137321   4.733  13.811   7.885
78496SOL    HW237322   4.620  13.764   7.974
78497SOL     OW37323  14.276   5.980   9.609
78497SOL    HW137324  14.287   5.919   9.536
78497SOL    HW237325  14.263   6.065   9.567
78498SOL     OW37326  11.014   9.432  14.021
78498SOL    HW137327  11.091   9.437  14.077
78498SOL    HW237328  10.981   9.343  14.035
78499SOL     OW37329   1.562  12.376  12.473
78499SOL    HW137330   1.592  12.436  12.405
78499SOL    HW237331   1.466  12.383  12.470
78500SOL     OW37332   3.670   4.066   8.439
78500SOL    HW137333   3.693   4.111   8.358
78500SOL    HW237334   3.753   4.030   8.471
78501SOL     OW37335   4.942   8.038   4.177
78501SOL    HW137336   5.021   7.984   4.172
78501SOL    HW237337   4.974   8.128   4.165
78502SOL     OW37338   7.744   1.422  14.837
78502SOL    HW137339   7.683   1.494  14.821
78502SOL    HW237340   7.822   1.443  14.787
78503SOL     OW37341   1.006   6.757   9.190
78503SOL    HW137342   1.045   6.682   9.235
78503SOL    HW237343   1.000   6.730   9.099
78504SOL     OW37344  12.985   3.585   3.033
78504SOL    HW137345  12.928   3.532   2.979
78504SOL    HW237346  12.963   3.675   3.011
78505SOL     OW37347   1.729   8.185   8.197
78505SOL    HW137348   1.691   8.114   8.249
78505SOL    HW237349   1.657   8.215   8.142
78506SOL     OW37350   4.603  13.012  13.014
78506SOL    HW137351   4.592  13.040  12.924
78506SOL    HW237352   4.515  13.013  13.051
78507SOL     OW37353  10.355  10.082  11.404
78507SOL    HW137354  10.290  10.139  11.363
78507SOL    HW237355  10.336  10.089  11.498
78508SOL     OW37356   3.582  12.534   9.175
78508SOL    HW137357   3.508  12.554   9.232
78508SOL    HW237358   3.659  12.552   9.230
78509SOL     OW37359   0.988   2.217   9.749
78509SOL    HW137360   1.075   2.258   9.745
78509SOL    HW237361   0.990   2.149   9.682
78510SOL     OW37362  10.488  10.697   9.470
78510SOL    HW137363  10.577  10.690   9.434
78510SOL    HW237364  10.431  10.672   9.397
78511SOL     OW37365   2.318   1.910  14.481
78511SOL    HW137366   2.307   1.989  14.429
78511SOL    HW237367   2.299   1.838  14.421
78512SOL     OW37368   6.499  13.391   5.632
78512SOL    HW137369   6.567  13.341   5.587
78512SOL    HW237370   6.496  13.354   5.720
78513SOL     OW37371  12.386  10.850   6.599
78513SOL    HW137372  12.386  10.776   6.660
78513SOL    HW237373  12.373  10.810   6.513
78514SOL     OW37374  14.237  14.288   9.769
78514SOL    HW137375  14.227  14.238   9.688
78514SOL    HW237376  14.219  14.225   9.838
78515SOL     OW37377  12.497   1.606   5.252
78515SOL    HW137378  12.592   1.596   5.242
78515SOL    HW237379  12.461   1.523   5.219
78516SOL     OW37380  12.338   4.390  10.772
78516SOL    HW137381  12.398   4.364  10.841
78516SOL    HW237382  12.394   4.431  10.706
78517SOL     OW37383   7.361   0.705   3.935
78517SOL    HW137384   7.340   0.703   4.028
78517SOL    HW237385   7.448   0.743   3.931
78518SOL     OW37386   2.437  10.817   6.403
78518SOL    HW137387   2.365  10.821   6.340
78518SOL    HW237388   2.402  10.858   6.482
78519SOL     OW37389   0.461  13.368   1.399
78519SOL    HW137390   0.518  13.337   1.328
78519SOL    HW237391   0.521  13.408   1.462
78520SOL     OW37392   8.764  10.754  10.654
78520SOL    HW137393   8.686  10.730  10.703
78520SOL    HW237394   8.837  10.716  10.704
78521SOL     OW37395  13.667   5.993  11.226
78521SOL    HW137396  13.683   6.026  11.137
78521SOL    HW237397  13.704   6.061  11.283
78522SOL     OW37398  10.762   7.318   6.628
78522SOL    HW137399  10.750   7.225   6.649
78522SOL    HW237400  10.815   7.318   6.548
78523SOL     OW37401   2.030   3.460   5.367
78523SOL    HW137402   2.047   3.446   5.460
78523SOL    HW237403   2.028   3.372   5.330
78524SOL     OW37404   0.039  11.659  13.892
78524SOL    HW137405   0.032  11.692  13.802
78524SOL    HW237406  14.837  11.685  13.934
78525SOL     OW37407   1.095  10.452  13.867
78525SOL    HW137408   1.106  10.539  13.906
78525SOL    HW237409   1.123  10.392  13.936
78526SOL     OW37410   1.235  11.861   5.104
78526SOL    HW137411   1.208  11.784   5.155
78526SOL    HW237412   1.196  11.847   5.018
78527SOL     OW37413   1.790   4.494  14.540
78527SOL    HW137414   1.767   4.464  14.628
78527SOL    HW237415   1.725   4.454  14.484
78528SOL     OW37416  10.043  13.192   6.486
78528SOL    HW137417  10.087  13.238   6.415
78528SOL    HW237418  10.017  13.262   6.547
78529SOL     OW37419  14.037  10.511   6.284
78529SOL    HW137420  14.029  10.465   6.367
78529SOL    HW237421  14.041  10.603   6.308
78530SOL     OW37422   9.268   6.576  14.043
78530SOL    HW137423   9.282   6.626  13.963
78530SOL    HW237424   9.188   6.526  14.026
78531SOL     OW37425  14.081   3.039   2.758
78531SOL    HW137426  13.990   3.010   2.752
78531SOL    HW237427  14.088   3.110   2.694
78532SOL     OW37428  13.052  11.786   1.232
78532SOL    HW137429  13.041  11.702   1.186
78532SOL    HW237430  13.073  11.848   1.163
78533SOL     OW37431  14.588  12.066  11.662
78533SOL    HW137432  14.558  12.064  11.753
78533SOL    HW237433  14.537  11.998  11.619
78534SOL     OW37434  14.761  14.655   0.758
78534SOL    HW137435  14.696  14.585   0.761
78534SOL    HW237436  14.752  14.700   0.841
78535SOL     OW37437   0.273  13.806   5.855
78535SOL    HW137438   0.232  13.892   5.863
78535SOL    HW237439   0.272  13.786   5.762
78536SOL     OW37440   4.330  11.899   0.745
78536SOL    HW137441   4.413  11.868   0.708
78536SOL    HW237442   4.345  11.898   0.840
78537SOL     OW37443   2.998   5.916  14.352
78537SOL    HW137444   2.935   5.965  14.299
78537SOL    HW237445   3.047   5.864  14.290
78538SOL     OW37446   9.197   0.635   7.270
78538SOL    HW137447   9.242   0.551   7.281
78538SOL    HW237448   9.227   0.688   7.343
78539SOL     OW37449   8.720  13.594   5.523
78539SOL    HW137450   8.743  13.659   5.456
78539SOL    HW237451   8.750  13.511   5.486
78540SOL     OW37452   6.906  12.073   1.925
78540SOL    HW137453   6.997  12.090   1.899
78540SOL    HW237454   6.911  12.062   2.020
78541SOL     OW37455   0.589   9.861  10.317
78541SOL    HW137456   0.560   9.951  10.304
78541SOL    HW237457   0.507   9.810  10.321
78542SOL     OW37458   0.998   1.275   5.137
78542SOL    HW137459   0.932   1.244   5.076
78542SOL    HW237460   1.068   1.310   5.081
78543SOL     OW37461   2.713   7.309  14.295
78543SOL    HW137462   2.730   7.233  14.239
78543SOL    HW237463   2.682   7.272  14.377
78544SOL     OW37464  11.957   2.263  12.061
78544SOL    HW137465  11.876   2.228  12.099
78544SOL    HW237466  11.930   2.304  11.979
78545SOL     OW37467   4.399  12.770   2.645
78545SOL    HW137468   4.483  12.758   2.601
78545SOL    HW237469   4.389  12.865   2.653
78546SOL     OW37470   7.693  14.203   2.449
78546SOL    HW137471   7.681  14.115   2.484
78546SOL    HW237472   7.784  14.205   2.418
78547SOL     OW37473   2.900   0.427  10.641
78547SOL    HW137474   2.964   0.369  10.682
78547SOL    HW237475   2.870   0.484  10.712
78548SOL     OW37476  12.328   7.197  12.528
78548SOL    HW137477  12.370   7.131  12.583
78548SOL    HW237478  12.388   7.271  12.528
78549SOL     OW37479  12.823   9.720  12.277
78549SOL    HW137480  12.804   9.645  12.332
78549SOL    HW237481  12.919   9.718  12.266
78550SOL     OW37482   7.162   0.660  14.849
78550SOL    HW137483   7.210   0.661  14.766
78550SOL    HW237484   7.180   0.574   0.008
78551SOL     OW37485   7.400   7.233   4.270
78551SOL    HW137486   7.363   7.301   4.325
78551SOL    HW237487   7.348   7.155   4.290
78552SOL     OW37488   6.780   0.959   3.345
78552SOL    HW137489   6.875   0.958   3.355
78552SOL    HW237490   6.747   0.923   3.428
78553SOL     OW37491   7.154   6.866   1.188
78553SOL    HW137492   7.241   6.828   1.201
78553SOL    HW237493   7.104   6.796   1.146
78554SOL     OW37494   4.673   0.470   8.659
78554SOL    HW137495   4.705   0.400   8.716
78554SOL    HW237496   4.604   0.429   8.608
78555SOL     OW37497  14.624   6.979   2.442
78555SOL    HW137498  14.650   7.034   2.367
78555SOL    HW237499  14.694   6.993   2.507
78556SOL     OW37500   0.867   7.292  10.918
78556SOL    HW137501   0.791   7.235  10.901
78556SOL    HW237502   0.880   7.340  10.836
78557SOL     OW37503  11.259  12.365   6.584
78557SOL    HW137504  11.165  12.353   6.598
78557SOL    HW237505  11.269  12.458   6.564
78558SOL     OW37506   6.864  11.439   9.323
78558SOL    HW137507   6.908  11.373   9.270
78558SOL    HW237508   6.893  11.422   9.413
78559SOL     OW37509  12.146   8.932  13.137
78559SOL    HW137510  12.170   8.876  13.063
78559SOL    HW237511  12.230   8.964  13.171
78560SOL     OW37512  12.269   2.961  12.911
78560SOL    HW137513  12.294   2.869  12.898
78560SOL    HW237514  12.186   2.970  12.864
78561SOL     OW37515   1.353   9.818   7.883
78561SOL    HW137516   1.362   9.723   7.892
78561SOL    HW237517   1.348   9.850   7.974
78562SOL     OW37518   6.126   0.963   3.945
78562SOL    HW137519   6.198   1.025   3.955
78562SOL    HW237520   6.123   0.916   4.028
78563SOL     OW37521   0.272   4.172   5.499
78563SOL    HW137522   0.334   4.209   5.435
78563SOL    HW237523   0.243   4.090   5.459
78564SOL     OW37524   1.982   1.471  14.209
78564SOL    HW137525   1.987   1.556  14.253
78564SOL    HW237526   1.889   1.457  14.194
78565SOL     OW37527   9.346   0.709  14.105
78565SOL    HW137528   9.352   0.614  14.090
78565SOL    HW237529   9.437   0.739  14.102
78566SOL     OW37530   5.275  12.385  11.399
78566SOL    HW137531   5.260  12.455  11.336
78566SOL    HW237532   5.362  12.402  11.434
78567SOL     OW37533   0.708   7.879   3.761
78567SOL    HW137534   0.774   7.839   3.818
78567SOL    HW237535   0.685   7.810   3.699
78568SOL     OW37536   5.036   1.392  12.077
78568SOL    HW137537   5.008   1.302  12.061
78568SOL    HW237538   5.034   1.434  11.991
78569SOL     OW37539  12.067  11.369   9.299
78569SOL    HW137540  11.988  11.316   9.309
78569SOL    HW237541  12.102  11.378   9.388
78570SOL     OW37542  14.815  13.181   4.108
78570SOL    HW137543  14.860  13.187   4.024
78570SOL    HW237544  14.754  13.254   4.107
78571SOL     OW37545   9.570   1.635  10.774
78571SOL    HW137546   9.598   1.544  10.778
78571SOL    HW237547   9.488   1.638  10.824
78572SOL     OW37548  13.778   7.821   1.108
78572SOL    HW137549  13.750   7.905   1.070
78572SOL    HW237550  13.871   7.815   1.088
78573SOL     OW37551   2.034  13.835   9.902
78573SOL    HW137552   1.963  13.856   9.963
78573SOL    HW237553   2.112  13.875   9.942
78574SOL     OW37554  10.583   3.923  12.288
78574SOL    HW137555  10.492   3.899  12.269
78574SOL    HW237556  10.591   3.911  12.383
78575SOL     OW37557  12.654  10.477   0.270
78575SOL    HW137558  12.638  10.383   0.277
78575SOL    HW237559  12.629  10.499   0.180
78576SOL     OW37560  13.098   6.772  11.539
78576SOL    HW137561  13.164   6.711  11.574
78576SOL    HW237562  13.037   6.716  11.492
78577SOL     OW37563   5.572  14.559  12.282
78577SOL    HW137564   5.661  14.527  12.272
78577SOL    HW237565   5.517  14.492  12.241
78578SOL     OW37566   4.915  13.248   6.816
78578SOL    HW137567   4.843  13.280   6.870
78578SOL    HW237568   4.922  13.312   6.745
78579SOL     OW37569  12.001   0.050   9.335
78579SOL    HW137570  12.088   0.058   9.297
78579SOL    HW237571  12.016   0.046   9.429
78580SOL     OW37572   5.088   6.947  12.534
78580SOL    HW137573   5.048   7.029  12.504
78580SOL    HW237574   5.016   6.901  12.578
78581SOL     OW37575   2.932   9.040   1.625
78581SOL    HW137576   2.989   9.114   1.648
78581SOL    HW237577   2.992   8.975   1.590
78582SOL     OW37578   8.348   2.644   8.284
78582SOL    HW137579   8.342   2.609   8.195
78582SOL    HW237580   8.355   2.738   8.273
78583SOL     OW37581  13.136   5.858  12.049
78583SOL    HW137582  13.120   5.945  12.013
78583SOL    HW237583  13.063   5.805  12.016
78584SOL     OW37584  12.143  14.536   2.211
78584SOL    HW137585  12.185  14.602   2.156
78584SOL    HW237586  12.089  14.485   2.151
78585SOL     OW37587  11.724   3.989   9.524
78585SOL    HW137588  11.705   3.900   9.494
78585SOL    HW237589  11.813   3.985   9.557
78586SOL     OW37590   7.219  11.907  10.163
78586SOL    HW137591   7.267  11.892  10.245
78586SOL    HW237592   7.287  11.912  10.096
78587SOL     OW37593   0.905   2.613  10.916
78587SOL    HW137594   0.868   2.584  10.833
78587SOL    HW237595   0.983   2.559  10.928
78588SOL     OW37596   4.759   0.068   2.040
78588SOL    HW137597   4.763   0.156   2.077
78588SOL    HW237598   4.694   0.022   2.093
78589SOL     OW37599  11.346  13.474   0.289
78589SOL    HW137600  11.408  13.541   0.260
78589SOL    HW237601  11.322  13.427   0.210
78590SOL     OW37602   9.593   7.149  11.415
78590SOL    HW137603   9.546   7.081  11.462
78590SOL    HW237604   9.667   7.104  11.375
78591SOL     OW37605   4.000   6.898   9.860
78591SOL    HW137606   3.911   6.864   9.874
78591SOL    HW237607   3.997   6.988   9.892
78592SOL     OW37608  10.428   7.650  10.780
78592SOL    HW137609  10.369   7.606  10.841
78592SOL    HW237610  10.429   7.742  10.809
78593SOL     OW37611   7.999  10.840   1.344
78593SOL    HW137612   7.966  10.916   1.392
78593SOL    HW237613   8.091  10.861   1.327
78594SOL     OW37614  12.115   7.933   8.874
78594SOL    HW137615  12.167   7.873   8.929
78594SOL    HW237616  12.137   7.908   8.784
78595SOL     OW37617   3.658   4.309  14.482
78595SOL    HW137618   3.678   4.402  14.491
78595SOL    HW237619   3.735   4.272  14.439
78596SOL     OW37620  13.355   8.238  10.133
78596SOL    HW137621  13.409   8.195  10.198
78596SOL    HW237622  13.288   8.284  10.183
78597SOL     OW37623   2.489   3.086   6.060
78597SOL    HW137624   2.498   2.992   6.077
78597SOL    HW237625   2.551   3.128   6.119
78598SOL     OW37626   3.231   4.326  14.117
78598SOL    HW137627   3.295   4.362  14.178
78598SOL    HW237628   3.176   4.400  14.093
78599SOL     OW37629   5.740  14.319  12.597
78599SOL    HW137630   5.719  14.236  12.640
78599SOL    HW237631   5.780  14.293  12.514
78600SOL     OW37632  14.721   2.602  13.895
78600SOL    HW137633  14.741   2.524  13.844
78600SOL    HW237634  14.649   2.576  13.952
78601SOL     OW37635  10.276   1.481  13.840
78601SOL    HW137636  10.305   1.489  13.931
78601SOL    HW237637  10.324   1.550  13.794
78602SOL     OW37638   4.621   1.056   6.617
78602SOL    HW137639   4.538   1.064   6.570
78602SOL    HW237640   4.604   1.096   6.702
78603SOL     OW37641   1.799  14.678   9.056
78603SOL    HW137642   1.729  14.618   9.030
78603SOL    HW237643   1.831  14.715   8.974
78604SOL     OW37644  13.342  12.307  11.306
78604SOL    HW137645  13.352  12.402  11.305
78604SOL    HW237646  13.431  12.274  11.320
78605SOL     OW37647  11.667   2.128   0.053
78605SOL    HW137648  11.686   2.145  14.839
78605SOL    HW237649  11.581   2.086   0.052
78606SOL     OW37650   2.694   8.523   1.071
78606SOL    HW137651   2.678   8.508   0.977
78606SOL    HW237652   2.614   8.566   1.102
78607SOL     OW37653   4.822   7.190   4.555
78607SOL    HW137654   4.887   7.212   4.621
78607SOL    HW237655   4.864   7.121   4.502
78608SOL     OW37656  12.813   6.201   0.860
78608SOL    HW137657  12.793   6.201   0.953
78608SOL    HW237658  12.904   6.175   0.854
78609SOL     OW37659  13.440  14.163   4.116
78609SOL    HW137660  13.483  14.197   4.038
78609SOL    HW237661  13.483  14.079   4.132
78610SOL     OW37662   9.682   3.209   4.629
78610SOL    HW137663   9.745   3.138   4.641
78610SOL    HW237664   9.624   3.204   4.704
78611SOL     OW37665   5.124   2.862  13.061
78611SOL    HW137666   5.100   2.905  12.979
78611SOL    HW237667   5.082   2.914  13.129
78612SOL     OW37668   6.779  14.584   1.453
78612SOL    HW137669   6.755  14.492   1.460
78612SOL    HW237670   6.843  14.587   1.381
78613SOL     OW37671  14.621  11.413   9.668
78613SOL    HW137672  14.699  11.429   9.614
78613SOL    HW237673  14.595  11.324   9.646
78614SOL     OW37674   9.233   5.174   1.455
78614SOL    HW137675   9.164   5.221   1.502
78614SOL    HW237676   9.188   5.102   1.411
78615SOL     OW37677  14.058   3.511   1.636
78615SOL    HW137678  14.118   3.487   1.565
78615SOL    HW237679  13.984   3.552   1.592
78616SOL     OW37680  12.190   2.765   6.812
78616SOL    HW137681  12.187   2.816   6.893
78616SOL    HW237682  12.239   2.687   6.834
78617SOL     OW37683  12.016  13.287   2.727
78617SOL    HW137684  12.063  13.339   2.662
78617SOL    HW237685  11.924  13.310   2.716
78618SOL     OW37686  10.719   5.189   1.216
78618SOL    HW137687  10.633   5.216   1.248
78618SOL    HW237688  10.702   5.110   1.165
78619SOL     OW37689   2.843   0.752  14.452
78619SOL    HW137690   2.866   0.704  14.372
78619SOL    HW237691   2.865   0.843  14.431
78620SOL     OW37692  12.285   5.769  14.516
78620SOL    HW137693  12.192   5.784  14.534
78620SOL    HW237694  12.290   5.764  14.421
78621SOL     OW37695   1.657  11.771   4.206
78621SOL    HW137696   1.628  11.832   4.273
78621SOL    HW237697   1.677  11.825   4.130
78622SOL     OW37698   8.527  13.602   5.217
78622SOL    HW137699   8.602  13.653   5.246
78622SOL    HW237700   8.517  13.625   5.124
78623SOL     OW37701   3.380  14.702  11.393
78623SOL    HW137702   3.404  14.670  11.306
78623SOL    HW237703   3.454  14.680  11.449
78624SOL     OW37704   1.457   5.202   7.437
78624SOL    HW137705   1.416   5.262   7.374
78624SOL    HW237706   1.551   5.211   7.420
78625SOL     OW37707   4.519   8.938   6.204
78625SOL    HW137708   4.428   8.962   6.187
78625SOL    HW237709   4.516   8.883   6.282
78626SOL     OW37710   0.044  13.940  10.697
78626SOL    HW137711   0.006  13.857  10.724
78626SOL    HW237712  14.865  13.971  10.627
78627SOL     OW37713   1.198   3.525   2.521
78627SOL    HW137714   1.212   3.434   2.493
78627SOL    HW237715   1.103   3.532   2.530
78628SOL     OW37716   8.443   3.604  12.284
78628SOL    HW137717   8.404   3.686  12.317
78628SOL    HW237718   8.469   3.625  12.194
78629SOL     OW37719   8.721   5.194   1.521
78629SOL    HW137720   8.693   5.108   1.552
78629SOL    HW237721   8.773   5.175   1.442
78630SOL     OW37722   4.865  13.927  11.430
78630SOL    HW137723   4.770  13.915  11.435
78630SOL    HW237724   4.886  13.920  11.337
78631SOL     OW37725   4.780  11.700   8.814
78631SOL    HW137726   4.849  11.638   8.788
78631SOL    HW237727   4.822  11.757   8.878
78632SOL     OW37728  11.987   1.718  13.625
78632SOL    HW137729  11.951   1.663  13.695
78632SOL    HW237730  12.048   1.660  13.579
78633SOL     OW37731   0.518  10.141   0.158
78633SOL    HW137732   0.526  10.235   0.174
78633SOL    HW237733   0.607  10.107   0.165
78634SOL     OW37734   9.972  12.348   7.771
78634SOL    HW137735   9.911  12.274   7.772
78634SOL    HW237736   9.924  12.418   7.726
78635SOL     OW37737  13.283   1.855   3.827
78635SOL    HW137738  13.262   1.948   3.834
78635SOL    HW237739  13.198   1.811   3.822
78636SOL     OW37740  12.235   2.738   9.487
78636SOL    HW137741  12.308   2.773   9.436
78636SOL    HW237742  12.157   2.771   9.443
78637SOL     OW37743  11.199   2.995   9.764
78637SOL    HW137744  11.161   3.074   9.801
78637SOL    HW237745  11.240   2.950   9.838
78638SOL     OW37746   7.986   5.251   4.092
78638SOL    HW137747   8.057   5.311   4.113
78638SOL    HW237748   7.956   5.218   4.176
78639SOL     OW37749   3.884   6.349   5.144
78639SOL    HW137750   3.973   6.321   5.165
78639SOL    HW237751   3.844   6.274   5.101
78640SOL     OW37752   7.821   5.180  12.865
78640SOL    HW137753   7.853   5.216  12.782
78640SOL    HW237754   7.748   5.236  12.889
78641SOL     OW37755   4.519   0.602  11.666
78641SOL    HW137756   4.442   0.546  11.659
78641SOL    HW237757   4.485   0.691  11.665
78642SOL     OW37758   0.475   7.082  12.682
78642SOL    HW137759   0.549   7.083  12.743
78642SOL    HW237760   0.451   7.174  12.672
78643SOL     OW37761  12.682   9.701   2.745
78643SOL    HW137762  12.601   9.676   2.700
78643SOL    HW237763  12.652   9.738   2.828
78644SOL     OW37764   5.226   3.946   5.830
78644SOL    HW137765   5.308   3.995   5.826
78644SOL    HW237766   5.188   3.969   5.915
78645SOL     OW37767   7.392   6.474   8.981
78645SOL    HW137768   7.485   6.476   8.960
78645SOL    HW237769   7.350   6.524   8.912
78646SOL     OW37770  11.961   6.789   4.696
78646SOL    HW137771  11.931   6.765   4.784
78646SOL    HW237772  11.897   6.854   4.666
78647SOL     OW37773   0.886   9.802   5.865
78647SOL    HW137774   0.798   9.769   5.849
78647SOL    HW237775   0.877   9.897   5.862
78648SOL     OW37776  10.321   0.293   4.957
78648SOL    HW137777  10.399   0.312   5.010
78648SOL    HW237778  10.310   0.371   4.903
78649SOL     OW37779  11.015   2.617  11.664
78649SOL    HW137780  11.011   2.697  11.612
78649SOL    HW237781  11.063   2.555  11.610
78650SOL     OW37782  13.798  12.491  10.636
78650SOL    HW137783  13.763  12.579  10.650
78650SOL    HW237784  13.831  12.465  10.722
78651SOL     OW37785  11.067   5.069  13.090
78651SOL    HW137786  11.130   5.111  13.148
78651SOL    HW237787  10.994   5.045  13.147
78652SOL     OW37788   6.693   2.275   8.992
78652SOL    HW137789   6.635   2.212   8.948
78652SOL    HW237790   6.661   2.361   8.965
78653SOL     OW37791  10.650   2.427   0.492
78653SOL    HW137792  10.668   2.350   0.438
78653SOL    HW237793  10.735   2.452   0.527
78654SOL     OW37794  14.182  14.407   1.416
78654SOL    HW137795  14.205  14.444   1.501
78654SOL    HW237796  14.264  14.407   1.367
78655SOL     OW37797   8.660   5.519  10.029
78655SOL    HW137798   8.649   5.543   9.937
78655SOL    HW237799   8.570   5.505  10.060
78656SOL     OW37800   4.081  12.464  14.733
78656SOL    HW137801   4.148  12.396  14.729
78656SOL    HW237802   4.130  12.546  14.735
78657SOL     OW37803   4.470   1.231  10.043
78657SOL    HW137804   4.462   1.205  10.135
78657SOL    HW237805   4.554   1.196  10.016
78658SOL     OW37806   6.322   0.904  10.826
78658SOL    HW137807   6.375   0.983  10.836
78658SOL    HW237808   6.238   0.926  10.865
78659SOL     OW37809  13.011   4.468  14.571
78659SOL    HW137810  12.979   4.377  14.566
78659SOL    HW237811  13.102   4.460  14.599
78660SOL     OW37812   7.195   5.871   4.388
78660SOL    HW137813   7.185   5.940   4.322
78660SOL    HW237814   7.169   5.791   4.343
78661SOL     OW37815  11.015   3.893   2.852
78661SOL    HW137816  10.921   3.911   2.859
78661SOL    HW237817  11.038   3.855   2.937
78662SOL     OW37818   7.693   7.247   8.301
78662SOL    HW137819   7.782   7.272   8.328
78662SOL    HW237820   7.647   7.229   8.383
78663SOL     OW37821  10.197  12.790   7.641
78663SOL    HW137822  10.176  12.808   7.549
78663SOL    HW237823  10.194  12.694   7.647
78664SOL     OW37824   6.396   0.011   8.849
78664SOL    HW137825   6.464   0.051   8.794
78664SOL    HW237826   6.388   0.069   8.924
78665SOL     OW37827  10.092  12.930   6.530
78665SOL    HW137828  10.077  13.022   6.508
78665SOL    HW237829  10.031  12.913   6.602
78666SOL     OW37830  11.961   3.813   1.393
78666SOL    HW137831  12.006   3.833   1.475
78666SOL    HW237832  11.906   3.737   1.414
78667SOL     OW37833  14.504   4.460   9.420
78667SOL    HW137834  14.515   4.413   9.503
78667SOL    HW237835  14.519   4.394   9.353
78668SOL     OW37836   9.961   4.959   2.928
78668SOL    HW137837   9.867   4.958   2.944
78668SOL    HW237838   9.970   5.009   2.846
78669SOL     OW37839   6.761   9.496  11.103
78669SOL    HW137840   6.836   9.474  11.158
78669SOL    HW237841   6.762   9.430  11.033
78670SOL     OW37842  14.076   1.765   8.652
78670SOL    HW137843  14.089   1.699   8.719
78670SOL    HW237844  14.036   1.839   8.698
78671SOL     OW37845  10.883  12.299   2.589
78671SOL    HW137846  10.827  12.264   2.658
78671SOL    HW237847  10.937  12.224   2.562
78672SOL     OW37848   3.339   7.067   6.261
78672SOL    HW137849   3.407   7.024   6.209
78672SOL    HW237850   3.384   7.096   6.340
78673SOL     OW37851   7.638  14.513   9.468
78673SOL    HW137852   7.688  14.571   9.526
78673SOL    HW237853   7.571  14.569   9.430
78674SOL     OW37854   5.687   3.071  12.990
78674SOL    HW137855   5.714   3.102  12.903
78674SOL    HW237856   5.767   3.035  13.027
78675SOL     OW37857   0.933   4.546   8.758
78675SOL    HW137858   1.000   4.612   8.744
78675SOL    HW237859   0.927   4.537   8.853
78676SOL     OW37860  12.427   1.125   5.362
78676SOL    HW137861  12.379   1.049   5.329
78676SOL    HW237862  12.366   1.198   5.352
78677SOL     OW37863  14.167   2.670   4.209
78677SOL    HW137864  14.134   2.595   4.259
78677SOL    HW237865  14.262   2.658   4.208
78678SOL     OW37866  14.474   7.576   6.369
78678SOL    HW137867  14.552   7.598   6.318
78678SOL    HW237868  14.495   7.602   6.459
78679SOL     OW37869  10.252  10.196  14.788
78679SOL    HW137870  10.264  10.143  14.866
78679SOL    HW237871  10.304  10.275  14.803
78680SOL     OW37872   1.685  10.542   4.853
78680SOL    HW137873   1.660  10.608   4.788
78680SOL    HW237874   1.727  10.473   4.802
78681SOL     OW37875   2.242   2.169   9.232
78681SOL    HW137876   2.238   2.233   9.302
78681SOL    HW237877   2.262   2.086   9.276
78682SOL     OW37878   1.574  13.518  10.357
78682SOL    HW137879   1.503  13.582  10.347
78682SOL    HW237880   1.595  13.521  10.451
78683SOL     OW37881   3.001   6.451   8.238
78683SOL    HW137882   2.930   6.415   8.292
78683SOL    HW237883   3.074   6.462   8.299
78684SOL     OW37884  10.454   8.985  10.128
78684SOL    HW137885  10.386   8.932  10.168
78684SOL    HW237886  10.411   9.029  10.055
78685SOL     OW37887   4.080  14.467   7.359
78685SOL    HW137888   4.101  14.418   7.280
78685SOL    HW237889   4.165  14.480   7.402
78686SOL     OW37890   7.274   2.817  10.108
78686SOL    HW137891   7.250   2.843  10.019
78686SOL    HW237892   7.191   2.804  10.153
78687SOL     OW37893   5.963   3.207   7.979
78687SOL    HW137894   6.024   3.162   8.038
78687SOL    HW237895   5.935   3.139   7.918
78688SOL     OW37896  11.887   6.681  13.002
78688SOL    HW137897  11.807   6.727  13.027
78688SOL    HW237898  11.954   6.750  13.001
78689SOL     OW37899   7.486   9.449  12.052
78689SOL    HW137900   7.457   9.374  12.000
78689SOL    HW237901   7.507   9.413  12.137
78690SOL     OW37902   0.270   5.284   9.990
78690SOL    HW137903   0.209   5.211   9.996
78690SOL    HW237904   0.303   5.280   9.901
78691SOL     OW37905   1.526   4.988   5.765
78691SOL    HW137906   1.594   4.921   5.769
78691SOL    HW237907   1.553   5.045   5.693
78692SOL     OW37908   3.938   9.488   3.084
78692SOL    HW137909   3.890   9.418   3.128
78692SOL    HW237910   3.872   9.553   3.061
78693SOL     OW37911   9.267   2.140  10.503
78693SOL    HW137912   9.305   2.227  10.490
78693SOL    HW237913   9.294   2.090  10.427
78694SOL     OW37914   2.753   3.347  10.306
78694SOL    HW137915   2.829   3.395  10.275
78694SOL    HW237916   2.742   3.277  10.242
78695SOL     OW37917   4.616   3.487  10.417
78695SOL    HW137918   4.589   3.403  10.380
78695SOL    HW237919   4.543   3.546  10.396
78696SOL     OW37920   1.275  11.533   7.794
78696SOL    HW137921   1.183  11.510   7.786
78696SOL    HW237922   1.310  11.472   7.859
78697SOL     OW37923  11.494   2.236   7.132
78697SOL    HW137924  11.580   2.217   7.168
78697SOL    HW237925  11.462   2.309   7.185
78698SOL     OW37926   4.970   4.551   3.018
78698SOL    HW137927   4.948   4.477   3.075
78698SOL    HW237928   4.890   4.602   3.013
78699SOL     OW37929   5.731  13.154   9.297
78699SOL    HW137930   5.756  13.099   9.223
78699SOL    HW237931   5.699  13.235   9.257
78700SOL     OW37932  14.821   8.401   5.894
78700SOL    HW137933  14.859   8.333   5.839
78700SOL    HW237934  14.874   8.401   5.973
78701SOL     OW37935   4.839   3.458   9.256
78701SOL    HW137936   4.840   3.365   9.280
78701SOL    HW237937   4.747   3.483   9.260
78702SOL     OW37938   4.059   4.309   0.436
78702SOL    HW137939   4.063   4.215   0.422
78702SOL    HW237940   3.976   4.336   0.397
78703SOL     OW37941   0.465  11.537   6.792
78703SOL    HW137942   0.490  11.461   6.844
78703SOL    HW237943   0.384  11.569   6.833
78704SOL     OW37944   9.605   0.146   9.836
78704SOL    HW137945   9.658   0.213   9.791
78704SOL    HW237946   9.579   0.188   9.918
78705SOL     OW37947  10.710  12.500  14.762
78705SOL    HW137948  10.651  12.429  14.740
78705SOL    HW237949  10.653  12.576  14.777
78706SOL     OW37950   5.555  11.000   1.740
78706SOL    HW137951   5.537  11.010   1.833
78706SOL    HW237952   5.614  11.073   1.719
78707SOL     OW37953   4.407   8.775   6.824
78707SOL    HW137954   4.464   8.841   6.863
78707SOL    HW237955   4.345   8.825   6.770
78708SOL     OW37956   1.588   6.163  10.964
78708SOL    HW137957   1.615   6.085  11.012
78708SOL    HW237958   1.623   6.151  10.876
78709SOL     OW37959   4.946   2.441  10.645
78709SOL    HW137960   5.007   2.367  10.640
78709SOL    HW237961   4.938   2.458  10.739
78710SOL     OW37962   0.780   7.874  12.702
78710SOL    HW137963   0.794   7.884  12.796
78710SOL    HW237964   0.796   7.782  12.684
78711SOL     OW37965   2.327  10.786   5.215
78711SOL    HW137966   2.391  10.714   5.219
78711SOL    HW237967   2.351  10.844   5.287
78712SOL     OW37968  10.736  13.004  14.459
78712SOL    HW137969  10.722  12.917  14.495
78712SOL    HW237970  10.751  13.060  14.535
78713SOL     OW37971  12.863   5.357   1.665
78713SOL    HW137972  12.789   5.410   1.694
78713SOL    HW237973  12.831   5.312   1.587
78714SOL     OW37974  10.801   9.868   5.628
78714SOL    HW137975  10.832   9.836   5.543
78714SOL    HW237976  10.769   9.789   5.672
78715SOL     OW37977   5.158  10.551   4.969
78715SOL    HW137978   5.240  10.557   5.019
78715SOL    HW237979   5.117  10.637   4.979
78716SOL     OW37980   9.989  11.248   4.135
78716SOL    HW137981   9.951  11.305   4.067
78716SOL    HW237982   9.915  11.219   4.187
78717SOL     OW37983   4.614   2.567  12.758
78717SOL    HW137984   4.659   2.634  12.707
78717SOL    HW237985   4.646   2.484  12.725
78718SOL     OW37986   8.717  11.545   6.399
78718SOL    HW137987   8.697  11.477   6.335
78718SOL    HW237988   8.640  11.548   6.456
78719SOL     OW37989  11.862   6.833   8.114
78719SOL    HW137990  11.839   6.879   8.034
78719SOL    HW237991  11.846   6.740   8.094
78720SOL     OW37992   3.472   4.466  14.761
78720SOL    HW137993   3.414   4.536  14.791
78720SOL    HW237994   3.474   4.403  14.833
78721SOL     OW37995  12.088   8.640   6.609
78721SOL    HW137996  12.114   8.669   6.522
78721SOL    HW237997  11.992   8.638   6.607
78722SOL     OW37998   4.336   6.984  11.044
78722SOL    HW137999   4.329   6.948  11.132
78722SOL    HW238000   4.378   6.914  10.993
78723SOL     OW38001   2.460  12.867  10.932
78723SOL    HW138002   2.486  12.958  10.946
78723SOL    HW238003   2.443  12.834  11.020
78724SOL     OW38004  11.485   9.433   8.364
78724SOL    HW138005  11.470   9.519   8.403
78724SOL    HW238006  11.544   9.450   8.290
78725SOL     OW38007   2.907  14.131   5.274
78725SOL    HW138008   2.877  14.112   5.363
78725SOL    HW238009   2.871  14.218   5.255
78726SOL     OW38010   8.071  13.920   3.691
78726SOL    HW138011   8.089  13.945   3.600
78726SOL    HW238012   7.986  13.876   3.687
78727SOL     OW38013  13.027  14.547   0.110
78727SOL    HW138014  13.101  14.542   0.170
78727SOL    HW238015  12.984  14.630   0.131
78728SOL     OW38016   2.587   7.626   2.917
78728SOL    HW138017   2.576   7.579   2.834
78728SOL    HW238018   2.659   7.579   2.960
78729SOL     OW38019  12.931   3.825   8.856
78729SOL    HW138020  13.018   3.842   8.820
78729SOL    HW238021  12.870   3.850   8.787
78730SOL     OW38022   6.975   0.726  11.937
78730SOL    HW138023   7.028   0.760  11.865
78730SOL    HW238024   7.008   0.638  11.952
78731SOL     OW38025   6.157   5.497   5.235
78731SOL    HW138026   6.224   5.558   5.267
78731SOL    HW238027   6.153   5.514   5.141
78732SOL     OW38028   8.108   5.563   8.041
78732SOL    HW138029   8.026   5.542   8.085
78732SOL    HW238030   8.116   5.498   7.971
78733SOL     OW38031   5.943   3.181   5.588
78733SOL    HW138032   5.936   3.146   5.499
78733SOL    HW238033   5.891   3.261   5.587
78734SOL     OW38034   2.911   8.758   5.802
78734SOL    HW138035   2.946   8.772   5.890
78734SOL    HW238036   2.877   8.668   5.804
78735SOL     OW38037   9.302   3.428   4.964
78735SOL    HW138038   9.253   3.388   4.891
78735SOL    HW238039   9.362   3.359   4.992
78736SOL     OW38040   0.100   9.303   4.932
78736SOL    HW138041   0.117   9.395   4.954
78736SOL    HW238042   0.079   9.305   4.838
78737SOL     OW38043  13.471  10.097  10.045
78737SOL    HW138044  13.458  10.192  10.042
78737SOL    HW238045  13.427  10.064   9.967
78738SOL     OW38046  10.906   5.499   1.650
78738SOL    HW138047  10.858   5.452   1.582
78738SOL    HW238048  10.941   5.430   1.706
78739SOL     OW38049   0.609   9.351  11.500
78739SOL    HW138050   0.681   9.386  11.553
78739SOL    HW238051   0.530   9.377  11.546
78740SOL     OW38052   0.213  14.131   6.916
78740SOL    HW138053   0.165  14.210   6.941
78740SOL    HW238054   0.194  14.119   6.823
78741SOL     OW38055  11.162   7.411   1.378
78741SOL    HW138056  11.154   7.367   1.293
78741SOL    HW238057  11.092   7.374   1.432
78742SOL     OW38058   4.999   5.400   9.267
78742SOL    HW138059   4.983   5.337   9.197
78742SOL    HW238060   5.033   5.347   9.340
78743SOL     OW38061  11.349  14.463   9.127
78743SOL    HW138062  11.337  14.538   9.070
78743SOL    HW238063  11.440  14.436   9.113
78744SOL     OW38064   0.246   6.286   2.587
78744SOL    HW138065   0.235   6.343   2.511
78744SOL    HW238066   0.169   6.303   2.641
78745SOL     OW38067  10.093  14.325   9.312
78745SOL    HW138068  10.032  14.299   9.381
78745SOL    HW238069  10.042  14.382   9.255
78746SOL     OW38070   0.466  11.904   5.971
78746SOL    HW138071   0.388  11.861   5.937
78746SOL    HW238072   0.492  11.966   5.903
78747SOL     OW38073   3.799   2.262   7.761
78747SOL    HW138074   3.714   2.293   7.732
78747SOL    HW238075   3.805   2.291   7.852
78748SOL     OW38076   4.179  12.735  11.891
78748SOL    HW138077   4.267  12.706  11.917
78748SOL    HW238078   4.194  12.789  11.814
78749SOL     OW38079   7.190   2.329   4.544
78749SOL    HW138080   7.272   2.324   4.496
78749SOL    HW238081   7.195   2.257   4.608
78750SOL     OW38082   2.832   2.301   0.915
78750SOL    HW138083   2.777   2.319   0.839
78750SOL    HW238084   2.846   2.386   0.956
78751SOL     OW38085   3.569  13.626   6.272
78751SOL    HW138086   3.555  13.555   6.209
78751SOL    HW238087   3.494  13.620   6.332
78752SOL     OW38088  10.677   7.826   3.238
78752SOL    HW138089  10.759   7.819   3.287
78752SOL    HW238090  10.620   7.879   3.294
78753SOL     OW38091   8.179  14.675   0.690
78753SOL    HW138092   8.216  14.631   0.613
78753SOL    HW238093   8.085  14.683   0.671
78754SOL     OW38094   6.258  11.246   6.321
78754SOL    HW138095   6.238  11.328   6.276
78754SOL    HW238096   6.174  11.200   6.326
78755SOL     OW38097   7.078   4.548   0.414
78755SOL    HW138098   7.149   4.612   0.415
78755SOL    HW238099   7.094   4.497   0.334
78756SOL     OW38100   6.605   4.031  13.336
78756SOL    HW138101   6.636   3.999  13.251
78756SOL    HW238102   6.522   3.985  13.350
78757SOL     OW38103   5.657   6.240  12.049
78757SOL    HW138104   5.716   6.216  12.120
78757SOL    HW238105   5.578   6.272  12.092
78758SOL     OW38106   7.091   1.279   3.735
78758SOL    HW138107   7.145   1.356   3.755
78758SOL    HW238108   7.102   1.222   3.812
78759SOL     OW38109  12.788  14.286  11.856
78759SOL    HW138110  12.799  14.283  11.761
78759SOL    HW238111  12.709  14.235  11.872
78760SOL     OW38112   2.060  12.489  11.828
78760SOL    HW138113   2.113  12.418  11.865
78760SOL    HW238114   2.123  12.553  11.797
78761SOL     OW38115   5.456   9.980   1.369
78761SOL    HW138116   5.372   9.936   1.386
78761SOL    HW238117   5.522   9.912   1.382
78762SOL     OW38118   0.141   8.107   0.668
78762SOL    HW138119   0.152   8.201   0.659
78762SOL    HW238120   0.095   8.095   0.751
78763SOL     OW38121  13.621  11.258   3.540
78763SOL    HW138122  13.618  11.207   3.459
78763SOL    HW238123  13.543  11.231   3.588
78764SOL     OW38124   6.727  11.323  10.382
78764SOL    HW138125   6.664  11.258  10.413
78764SOL    HW238126   6.806  11.272  10.361
78765SOL     OW38127   1.706  10.703   0.282
78765SOL    HW138128   1.723  10.785   0.328
78765SOL    HW238129   1.775  10.644   0.311
78766SOL     OW38130   7.448  11.021   5.530
78766SOL    HW138131   7.468  10.968   5.454
78766SOL    HW238132   7.366  10.985   5.564
78767SOL     OW38133   9.963   4.215  12.232
78767SOL    HW138134   9.972   4.151  12.162
78767SOL    HW238135  10.045   4.263  12.231
78768SOL     OW38136   8.767  12.536  13.858
78768SOL    HW138137   8.715  12.459  13.836
78768SOL    HW238138   8.745  12.555  13.949
78769SOL     OW38139   1.753   7.176   3.758
78769SOL    HW138140   1.690   7.154   3.827
78769SOL    HW238141   1.761   7.271   3.762
78770SOL     OW38142   1.816   3.056   2.780
78770SOL    HW138143   1.831   3.109   2.858
78770SOL    HW238144   1.761   2.984   2.811
78771SOL     OW38145  10.639  11.395  13.465
78771SOL    HW138146  10.688  11.447  13.401
78771SOL    HW238147  10.631  11.308  13.425
78772SOL     OW38148  11.930  11.379   6.643
78772SOL    HW138149  11.937  11.288   6.613
78772SOL    HW238150  11.875  11.375   6.720
78773SOL     OW38151   6.798   5.841  13.778
78773SOL    HW138152   6.733   5.909  13.797
78773SOL    HW238153   6.850   5.835  13.858
78774SOL     OW38154  10.636   3.040  11.507
78774SOL    HW138155  10.669   3.130  11.508
78774SOL    HW238156  10.700   2.991  11.559
78775SOL     OW38157  12.128   9.436   7.312
78775SOL    HW138158  12.197   9.487   7.356
78775SOL    HW238159  12.169   9.404   7.232
78776SOL     OW38160  10.929  12.029   8.436
78776SOL    HW138161  10.895  12.119   8.435
78776SOL    HW238162  10.860  11.977   8.394
78777SOL     OW38163   7.445   7.011   8.210
78777SOL    HW138164   7.490   6.961   8.142
78777SOL    HW238165   7.495   6.994   8.289
78778SOL     OW38166   6.791  12.763   0.211
78778SOL    HW138167   6.779  12.780   0.305
78778SOL    HW238168   6.850  12.688   0.208
78779SOL     OW38169   0.685   8.581   0.343
78779SOL    HW138170   0.722   8.603   0.429
78779SOL    HW238171   0.751   8.609   0.280
78780SOL     OW38172   1.747  11.005  10.904
78780SOL    HW138173   1.670  11.045  10.946
78780SOL    HW238174   1.819  11.065  10.925
78781SOL     OW38175  13.700   3.906  10.322
78781SOL    HW138176  13.631   3.912  10.388
78781SOL    HW238177  13.736   3.818  10.332
78782SOL     OW38178  11.754   4.909   6.816
78782SOL    HW138179  11.768   4.965   6.739
78782SOL    HW238180  11.660   4.916   6.834
78783SOL     OW38181   8.461  14.753  12.362
78783SOL    HW138182   8.401  14.714  12.426
78783SOL    HW238183   8.411  14.755  12.280
78784SOL     OW38184   6.616   3.665   9.871
78784SOL    HW138185   6.543   3.630   9.922
78784SOL    HW238186   6.683   3.687   9.935
78785SOL     OW38187  10.815   7.185  14.758
78785SOL    HW138188  10.802   7.256  14.821
78785SOL    HW238189  10.791   7.223  14.673
78786SOL     OW38190  10.662   5.297   4.389
78786SOL    HW138191  10.660   5.237   4.463
78786SOL    HW238192  10.582   5.279   4.340
78787SOL     OW38193   2.144  13.712  12.370
78787SOL    HW138194   2.190  13.738  12.449
78787SOL    HW238195   2.051  13.720  12.392
78788SOL     OW38196   6.236   0.120  10.809
78788SOL    HW138197   6.141   0.118  10.804
78788SOL    HW238198   6.255   0.159  10.895
78789SOL     OW38199   8.967   0.485   9.286
78789SOL    HW138200   8.935   0.396   9.303
78789SOL    HW238201   9.058   0.473   9.260
78790SOL     OW38202   6.962   0.504   7.039
78790SOL    HW138203   6.869   0.481   7.039
78790SOL    HW238204   6.969   0.575   6.975
78791SOL     OW38205   7.446   3.129   6.983
78791SOL    HW138206   7.437   3.214   7.025
78791SOL    HW238207   7.502   3.145   6.907
78792SOL     OW38208   6.839  12.155   0.914
78792SOL    HW138209   6.909  12.207   0.875
78792SOL    HW238210   6.879  12.070   0.932
78793SOL     OW38211   9.586   1.543   9.542
78793SOL    HW138212   9.511   1.485   9.535
78793SOL    HW238213   9.626   1.541   9.455
78794SOL     OW38214   3.481  12.286   1.599
78794SOL    HW138215   3.548  12.355   1.605
78794SOL    HW238216   3.504  12.224   1.668
78795SOL     OW38217  12.599   2.934  12.758
78795SOL    HW138218  12.516   2.949  12.713
78795SOL    HW238219  12.575   2.884  12.836
78796SOL     OW38220   2.542   7.635   9.036
78796SOL    HW138221   2.555   7.687   9.115
78796SOL    HW238222   2.630   7.612   9.007
78797SOL     OW38223   6.114  14.625   1.476
78797SOL    HW138224   6.195  14.589   1.512
78797SOL    HW238225   6.128  14.627   1.381
78798SOL     OW38226   9.286  13.897   0.752
78798SOL    HW138227   9.265  13.808   0.783
78798SOL    HW238228   9.210  13.923   0.701
78799SOL     OW38229   2.454  10.284   9.294
78799SOL    HW138230   2.524  10.226   9.324
78799SOL    HW238231   2.499  10.357   9.253
78800SOL     OW38232   1.019  12.896   0.028
78800SOL    HW138233   0.940  12.934  14.869
78800SOL    HW238234   1.087  12.911  14.841
78801SOL     OW38235   2.030   2.012   4.736
78801SOL    HW138236   2.014   2.087   4.679
78801SOL    HW238237   1.972   2.028   4.812
78802SOL     OW38238  12.623   7.612   8.031
78802SOL    HW138239  12.598   7.599   7.940
78802SOL    HW238240  12.671   7.532   8.054
78803SOL     OW38241   3.014   0.703  13.745
78803SOL    HW138242   2.941   0.710  13.683
78803SOL    HW238243   3.080   0.763  13.711
78804SOL     OW38244   5.014   1.807   3.077
78804SOL    HW138245   4.962   1.875   3.120
78804SOL    HW238246   5.014   1.832   2.985
78805SOL     OW38247   7.829  12.120   3.445
78805SOL    HW138248   7.763  12.168   3.495
78805SOL    HW238249   7.911  12.136   3.490
78806SOL     OW38250   2.824   0.084   9.546
78806SOL    HW138251   2.816   0.166   9.497
78806SOL    HW238252   2.746   0.082   9.603
78807SOL     OW38253  10.091   5.704   8.170
78807SOL    HW138254  10.124   5.785   8.209
78807SOL    HW238255  10.010   5.730   8.127
78808SOL     OW38256   5.055   7.466  10.023
78808SOL    HW138257   5.025   7.384  10.062
78808SOL    HW238258   5.148   7.452  10.006
78809SOL     OW38259   6.422   0.423   5.837
78809SOL    HW138260   6.462   0.433   5.751
78809SOL    HW238261   6.410   0.512   5.869
78810SOL     OW38262   3.823   7.652   5.925
78810SOL    HW138263   3.786   7.739   5.942
78810SOL    HW238264   3.906   7.670   5.882
78811SOL     OW38265   3.078   2.862   2.449
78811SOL    HW138266   3.012   2.816   2.500
78811SOL    HW238267   3.042   2.950   2.437
78812SOL     OW38268  13.766  13.892  11.277
78812SOL    HW138269  13.697  13.831  11.252
78812SOL    HW238270  13.728  13.944  11.348
78813SOL     OW38271   4.324  13.015   7.382
78813SOL    HW138272   4.282  13.099   7.403
78813SOL    HW238273   4.307  12.960   7.458
78814SOL     OW38274  14.337   0.605   1.345
78814SOL    HW138275  14.402   0.654   1.396
78814SOL    HW238276  14.278   0.569   1.411
78815SOL     OW38277   7.167   4.765   2.958
78815SOL    HW138278   7.236   4.794   2.898
78815SOL    HW238279   7.120   4.697   2.910
78816SOL     OW38280  13.480   3.709   7.474
78816SOL    HW138281  13.426   3.630   7.467
78816SOL    HW238282  13.534   3.708   7.394
78817SOL     OW38283   9.291   8.231   7.502
78817SOL    HW138284   9.242   8.283   7.565
78817SOL    HW238285   9.307   8.290   7.428
78818SOL     OW38286   6.212  12.272   2.562
78818SOL    HW138287   6.273  12.342   2.583
78818SOL    HW238288   6.183  12.238   2.647
78819SOL     OW38289   1.853  14.140  10.734
78819SOL    HW138290   1.913  14.158  10.807
78819SOL    HW238291   1.771  14.180  10.760
78820SOL     OW38292  13.097   1.234  13.125
78820SOL    HW138293  13.056   1.251  13.040
78820SOL    HW238294  13.191   1.239  13.108
78821SOL     OW38295  10.826   7.764   6.863
78821SOL    HW138296  10.900   7.822   6.879
78821SOL    HW238297  10.851   7.714   6.786
78822SOL     OW38298   8.380   0.084   8.352
78822SOL    HW138299   8.353   0.040   8.272
78822SOL    HW238300   8.476   0.079   8.350
78823SOL     OW38301  11.711  12.061   3.234
78823SOL    HW138302  11.746  12.127   3.294
78823SOL    HW238303  11.715  11.979   3.283
78824SOL     OW38304   6.113  14.245   3.776
78824SOL    HW138305   6.143  14.332   3.800
78824SOL    HW238306   6.078  14.208   3.857
78825SOL     OW38307  13.924   8.389   0.372
78825SOL    HW138308  13.889   8.411   0.285
78825SOL    HW238309  13.932   8.473   0.417
78826SOL     OW38310   1.054  12.822  12.893
78826SOL    HW138311   1.113  12.752  12.864
78826SOL    HW238312   1.022  12.794  12.978
78827SOL     OW38313   1.600   1.225   3.427
78827SOL    HW138314   1.558   1.301   3.386
78827SOL    HW238315   1.693   1.247   3.429
78828SOL     OW38316  10.515   4.100   0.810
78828SOL    HW138317  10.446   4.102   0.743
78828SOL    HW238318  10.539   4.008   0.817
78829SOL     OW38319   5.980   3.117   8.559
78829SOL    HW138320   5.958   3.040   8.507
78829SOL    HW238321   5.915   3.118   8.629
78830SOL     OW38322   5.912  12.612  11.484
78830SOL    HW138323   5.979  12.575  11.541
78830SOL    HW238324   5.959  12.637  11.405
78831SOL     OW38325   9.946   8.535   5.543
78831SOL    HW138326   9.954   8.517   5.637
78831SOL    HW238327   9.872   8.595   5.536
78832SOL     OW38328   8.587  13.036   2.157
78832SOL    HW138329   8.619  13.096   2.225
78832SOL    HW238330   8.521  13.087   2.110
78833SOL     OW38331  12.179   0.217  12.649
78833SOL    HW138332  12.172   0.130  12.688
78833SOL    HW238333  12.255   0.213  12.593
78834SOL     OW38334   6.092   7.693  13.852
78834SOL    HW138335   6.181   7.669  13.875
78834SOL    HW238336   6.061   7.621  13.797
78835SOL     OW38337   9.504  11.743   2.920
78835SOL    HW138338   9.420  11.751   2.876
78835SOL    HW238339   9.567  11.725   2.850
78836SOL     OW38340   1.228   9.424   7.237
78836SOL    HW138341   1.268   9.362   7.176
78836SOL    HW238342   1.204   9.372   7.313
78837SOL     OW38343  10.280   0.479   8.867
78837SOL    HW138344  10.374   0.484   8.886
78837SOL    HW238345  10.257   0.567   8.839
78838SOL     OW38346  14.095   7.645   4.532
78838SOL    HW138347  14.108   7.738   4.512
78838SOL    HW238348  14.059   7.608   4.452
78839SOL     OW38349   8.591   2.746  14.555
78839SOL    HW138350   8.677   2.733  14.515
78839SOL    HW238351   8.583   2.841  14.564
78840SOL     OW38352   7.006   0.839  12.735
78840SOL    HW138353   6.933   0.863  12.678
78840SOL    HW238354   7.074   0.903  12.715
78841SOL     OW38355   7.752  10.775  10.761
78841SOL    HW138356   7.733  10.771  10.667
78841SOL    HW238357   7.666  10.782  10.803
78842SOL     OW38358   4.217   5.712   1.857
78842SOL    HW138359   4.186   5.798   1.886
78842SOL    HW238360   4.167   5.694   1.778
78843SOL     OW38361   0.704   1.693  13.980
78843SOL    HW138362   0.672   1.607  13.952
78843SOL    HW238363   0.689   1.696  14.074
78844SOL     OW38364  12.548   5.979  14.532
78844SOL    HW138365  12.585   5.958  14.618
78844SOL    HW238366  12.622   6.017  14.484
78845SOL     OW38367   3.083   1.181   9.522
78845SOL    HW138368   3.161   1.232   9.501
78845SOL    HW238369   3.111   1.120   9.590
78846SOL     OW38370   0.385   2.890   0.155
78846SOL    HW138371   0.298   2.852   0.171
78846SOL    HW238372   0.413   2.922   0.241
78847SOL     OW38373   4.612  13.516  14.508
78847SOL    HW138374   4.685  13.578  14.508
78847SOL    HW238375   4.647  13.438  14.550
78848SOL     OW38376  10.501   9.249   3.796
78848SOL    HW138377  10.528   9.326   3.746
78848SOL    HW238378  10.568   9.183   3.777
78849SOL     OW38379   2.360  12.455   8.109
78849SOL    HW138380   2.363  12.473   8.203
78849SOL    HW238381   2.342  12.540   8.069
78850SOL     OW38382  13.731  12.129   7.007
78850SOL    HW138383  13.803  12.077   6.969
78850SOL    HW238384  13.667  12.135   6.936
78851SOL     OW38385   4.186   4.899   0.817
78851SOL    HW138386   4.280   4.910   0.803
78851SOL    HW238387   4.145   4.960   0.756
78852SOL     OW38388   8.249  12.620   6.992
78852SOL    HW138389   8.165  12.612   7.036
78852SOL    HW238390   8.227  12.624   6.899
78853SOL     OW38391   8.542   4.998   8.492
78853SOL    HW138392   8.474   5.065   8.504
78853SOL    HW238393   8.509   4.943   8.421
78854SOL     OW38394   0.583   6.743   8.330
78854SOL    HW138395   0.507   6.688   8.314
78854SOL    HW238396   0.586   6.802   8.255
78855SOL     OW38397   3.602   0.888   8.891
78855SOL    HW138398   3.517   0.881   8.936
78855SOL    HW238399   3.658   0.824   8.934
78856SOL     OW38400   7.908  12.048   3.117
78856SOL    HW138401   7.959  12.001   3.051
78856SOL    HW238402   7.896  12.135   3.080
78857SOL     OW38403   9.800   3.529   3.758
78857SOL    HW138404   9.808   3.518   3.852
78857SOL    HW238405   9.775   3.621   3.746
78858SOL     OW38406   6.755   5.835   5.114
78858SOL    HW138407   6.823   5.820   5.049
78858SOL    HW238408   6.790   5.903   5.171
78859SOL     OW38409   5.286   0.022   3.947
78859SOL    HW138410   5.299  14.809   3.970
78859SOL    HW238411   5.357   0.069   3.990
78860SOL     OW38412   1.266  12.274  13.648
78860SOL    HW138413   1.318  12.194  13.653
78860SOL    HW238414   1.293  12.324  13.725
78861SOL     OW38415   5.005   2.489  14.530
78861SOL    HW138416   5.040   2.400  14.528
78861SOL    HW238417   5.046   2.530  14.606
78862SOL     OW38418  10.494  12.631   1.070
78862SOL    HW138419  10.577  12.595   1.100
78862SOL    HW238420  10.470  12.577   0.995
78863SOL     OW38421   9.057   5.613   3.336
78863SOL    HW138422   8.961   5.610   3.342
78863SOL    HW238423   9.075   5.622   3.242
78864SOL     OW38424   6.329   5.696   7.070
78864SOL    HW138425   6.334   5.658   6.983
78864SOL    HW238426   6.418   5.691   7.105
78865SOL     OW38427   2.175   6.138  11.590
78865SOL    HW138428   2.197   6.114  11.500
78865SOL    HW238429   2.259   6.157  11.632
78866SOL     OW38430   9.866   7.554   4.666
78866SOL    HW138431   9.813   7.475   4.677
78866SOL    HW238432   9.891   7.555   4.574
78867SOL     OW38433   4.235  12.076   0.080
78867SOL    HW138434   4.167  12.138   0.106
78867SOL    HW238435   4.317  12.122   0.096
78868SOL     OW38436   4.127   3.888   5.360
78868SOL    HW138437   4.191   3.918   5.425
78868SOL    HW238438   4.174   3.822   5.309
78869SOL     OW38439   7.014  13.424   3.329
78869SOL    HW138440   7.081  13.364   3.295
78869SOL    HW238441   6.987  13.383   3.412
78870SOL     OW38442  12.832  12.818   2.859
78870SOL    HW138443  12.861  12.773   2.780
78870SOL    HW238444  12.851  12.911   2.842
78871SOL     OW38445   9.149  11.910   2.752
78871SOL    HW138446   9.188  11.830   2.788
78871SOL    HW238447   9.107  11.881   2.670
78872SOL     OW38448  13.858   4.964  11.953
78872SOL    HW138449  13.764   4.963  11.931
78872SOL    HW238450  13.870   4.889  12.011
78873SOL     OW38451   9.687   6.192  10.781
78873SOL    HW138452   9.710   6.213  10.691
78873SOL    HW238453   9.687   6.096  10.784
78874SOL     OW38454   4.697   0.472   9.104
78874SOL    HW138455   4.769   0.462   9.042
78874SOL    HW238456   4.636   0.401   9.082
78875SOL     OW38457   4.762  13.511  11.459
78875SOL    HW138458   4.727  13.591  11.499
78875SOL    HW238459   4.685  13.467  11.422
78876SOL     OW38460   1.292   0.119  13.201
78876SOL    HW138461   1.366   0.058  13.197
78876SOL    HW238462   1.332   0.201  13.230
78877SOL     OW38463  10.033   2.214  13.718
78877SOL    HW138464  10.062   2.187  13.805
78877SOL    HW238465   9.947   2.254  13.733
78878SOL     OW38466  12.798   5.558  11.631
78878SOL    HW138467  12.824   5.643  11.596
78878SOL    HW238468  12.817   5.496  11.561
78879SOL     OW38469  13.627   2.061   0.891
78879SOL    HW138470  13.696   2.000   0.915
78879SOL    HW238471  13.571   2.012   0.830
78880SOL     OW38472   1.743   4.662  10.373
78880SOL    HW138473   1.805   4.725  10.409
78880SOL    HW238474   1.716   4.610  10.449
78881SOL     OW38475   7.337   8.259   6.445
78881SOL    HW138476   7.391   8.307   6.382
78881SOL    HW238477   7.355   8.167   6.426
78882SOL     OW38478   3.352   5.599  12.840
78882SOL    HW138479   3.337   5.520  12.892
78882SOL    HW238480   3.369   5.567  12.751
78883SOL     OW38481   4.355   2.606   0.517
78883SOL    HW138482   4.397   2.556   0.587
78883SOL    HW238483   4.428   2.645   0.469
78884SOL     OW38484   3.097   0.104   6.744
78884SOL    HW138485   3.163   0.093   6.813
78884SOL    HW238486   3.015   0.079   6.786
78885SOL     OW38487   4.752  11.454   9.593
78885SOL    HW138488   4.793  11.395   9.529
78885SOL    HW238489   4.823  11.476   9.654
78886SOL     OW38490   5.744  14.355   7.866
78886SOL    HW138491   5.786  14.300   7.933
78886SOL    HW238492   5.780  14.324   7.783
78887SOL     OW38493  14.287   0.044   3.316
78887SOL    HW138494  14.195   0.032   3.342
78887SOL    HW238495  14.305   0.136   3.332
78888SOL     OW38496   2.511   2.405   5.561
78888SOL    HW138497   2.486   2.360   5.480
78888SOL    HW238498   2.454   2.482   5.563
78889SOL     OW38499   5.241   7.830   6.108
78889SOL    HW138500   5.164   7.873   6.071
78889SOL    HW238501   5.315   7.871   6.063
78890SOL     OW38502  11.531   2.714   9.356
78890SOL    HW138503  11.467   2.651   9.389
78890SOL    HW238504  11.486   2.798   9.361
78891SOL     OW38505  12.715   0.727   4.197
78891SOL    HW138506  12.743   0.803   4.247
78891SOL    HW238507  12.746   0.743   4.108
78892SOL     OW38508   0.490  12.980  10.597
78892SOL    HW138509   0.490  12.922  10.674
78892SOL    HW238510   0.478  13.068  10.633
78893SOL     OW38511   3.312   6.828   7.757
78893SOL    HW138512   3.352   6.749   7.721
78893SOL    HW238513   3.345   6.899   7.702
78894SOL     OW38514   7.084  12.391  11.667
78894SOL    HW138515   7.030  12.470  11.657
78894SOL    HW238516   7.040  12.325  11.614
78895SOL     OW38517   9.286  10.319   8.064
78895SOL    HW138518   9.380  10.320   8.080
78895SOL    HW238519   9.266  10.228   8.044
78896SOL     OW38520  11.916  14.069   1.274
78896SOL    HW138521  11.959  14.094   1.356
78896SOL    HW238522  11.930  13.974   1.268
78897SOL     OW38523  11.557   2.326   0.310
78897SOL    HW138524  11.521   2.248   0.351
78897SOL    HW238525  11.498   2.343   0.236
78898SOL     OW38526   9.970   1.679   0.293
78898SOL    HW138527   9.957   1.763   0.248
78898SOL    HW238528  10.015   1.625   0.230
78899SOL     OW38529   6.532  11.461   7.914
78899SOL    HW138530   6.587  11.539   7.917
78899SOL    HW238531   6.450  11.490   7.873
78900SOL     OW38532  14.072   1.586  11.040
78900SOL    HW138533  14.025   1.530  10.978
78900SOL    HW238534  14.067   1.539  11.123
78901SOL     OW38535   1.856  12.864   5.473
78901SOL    HW138536   1.939  12.905   5.449
78901SOL    HW238537   1.860  12.858   5.569
78902SOL     OW38538   0.347  12.919   7.848
78902SOL    HW138539   0.293  12.865   7.790
78902SOL    HW238540   0.290  12.936   7.923
78903SOL     OW38541   8.139   0.570   5.031
78903SOL    HW138542   8.086   0.516   5.089
78903SOL    HW238543   8.084   0.586   4.955
78904SOL     OW38544   3.152  13.454   9.556
78904SOL    HW138545   3.181  13.368   9.529
78904SOL    HW238546   3.119  13.495   9.476
78905SOL     OW38547   7.002   1.573   7.252
78905SOL    HW138548   6.968   1.563   7.341
78905SOL    HW238549   7.096   1.555   7.260
78906SOL     OW38550   3.913  14.386   2.845
78906SOL    HW138551   3.978  14.393   2.774
78906SOL    HW238552   3.829  14.398   2.801
78907SOL     OW38553  14.163  11.866   5.680
78907SOL    HW138554  14.248  11.837   5.713
78907SOL    HW238555  14.100  11.836   5.746
78908SOL     OW38556  12.063  13.183  14.399
78908SOL    HW138557  12.156  13.180  14.378
78908SOL    HW238558  12.058  13.159  14.491
78909SOL     OW38559   9.396   9.961   4.557
78909SOL    HW138560   9.458   9.925   4.621
78909SOL    HW238561   9.320   9.902   4.561
78910SOL     OW38562   6.202  11.910   1.559
78910SOL    HW138563   6.161  11.849   1.498
78910SOL    HW238564   6.133  11.973   1.581
78911SOL     OW38565  10.495   9.912  11.160
78911SOL    HW138566  10.412   9.889  11.201
78911SOL    HW238567  10.512  10.002  11.188
78912SOL     OW38568   0.645   1.636  11.676
78912SOL    HW138569   0.712   1.700  11.701
78912SOL    HW238570   0.694   1.560  11.646
78913SOL     OW38571   5.233   3.191   8.036
78913SOL    HW138572   5.151   3.145   8.054
78913SOL    HW238573   5.243   3.186   7.941
78914SOL     OW38574  14.721   7.144  11.511
78914SOL    HW138575  14.693   7.233  11.533
78914SOL    HW238576  14.774   7.117  11.586
78915SOL     OW38577   2.339  11.095   9.757
78915SOL    HW138578   2.380  11.011   9.777
78915SOL    HW238579   2.411  11.158   9.757
78916SOL     OW38580   2.923   4.152   5.631
78916SOL    HW138581   2.971   4.230   5.655
78916SOL    HW238582   2.986   4.100   5.580
78917SOL     OW38583  11.577   7.085   5.450
78917SOL    HW138584  11.558   7.015   5.513
78917SOL    HW238585  11.662   7.061   5.412
78918SOL     OW38586  13.898   7.956   4.610
78918SOL    HW138587  13.815   7.909   4.623
78918SOL    HW238588  13.929   7.926   4.524
78919SOL     OW38589  11.914   4.198   0.564
78919SOL    HW138590  11.954   4.157   0.641
78919SOL    HW238591  11.820   4.184   0.575
78920SOL     OW38592   5.026   4.714  10.242
78920SOL    HW138593   4.965   4.640  10.233
78920SOL    HW238594   5.000   4.757  10.324
78921SOL     OW38595  10.920   8.255  10.801
78921SOL    HW138596  10.907   8.161  10.788
78921SOL    HW238597  10.862   8.296  10.737
78922SOL     OW38598   8.282   1.784   1.783
78922SOL    HW138599   8.302   1.842   1.710
78922SOL    HW238600   8.186   1.780   1.784
78923SOL     OW38601   1.222   7.427   3.432
78923SOL    HW138602   1.187   7.435   3.343
78923SOL    HW238603   1.160   7.476   3.486
78924SOL     OW38604   0.170   7.376  12.083
78924SOL    HW138605   0.131   7.396  11.998
78924SOL    HW238606   0.189   7.282  12.079
78925SOL     OW38607   3.666   2.876  13.090
78925SOL    HW138608   3.652   2.957  13.140
78925SOL    HW238609   3.761   2.865  13.091
78926SOL     OW38610   4.838   8.417   5.996
78926SOL    HW138611   4.826   8.325   6.019
78926SOL    HW238612   4.905   8.415   5.927
78927SOL     OW38613   9.567   8.066   2.630
78927SOL    HW138614   9.500   8.040   2.568
78927SOL    HW238615   9.648   8.029   2.596
78928SOL     OW38616   5.927   1.035   6.079
78928SOL    HW138617   5.942   1.083   5.997
78928SOL    HW238618   5.856   1.083   6.122
78929SOL     OW38619   3.808  12.566  11.621
78929SOL    HW138620   3.783  12.496  11.561
78929SOL    HW238621   3.874  12.526  11.678
78930SOL     OW38622   5.604   7.865   7.346
78930SOL    HW138623   5.576   7.941   7.295
78930SOL    HW238624   5.583   7.888   7.437
78931SOL     OW38625   3.719  13.160   2.727
78931SOL    HW138626   3.791  13.220   2.746
78931SOL    HW238627   3.684  13.189   2.643
78932SOL     OW38628   2.688  11.597   8.960
78932SOL    HW138629   2.742  11.564   8.888
78932SOL    HW238630   2.599  11.569   8.937
78933SOL     OW38631   2.920   4.861  10.942
78933SOL    HW138632   2.992   4.915  10.975
78933SOL    HW238633   2.960   4.804  10.877
78934SOL     OW38634  10.595  14.646   3.330
78934SOL    HW138635  10.671  14.630   3.275
78934SOL    HW238636  10.533  14.576   3.307
78935SOL     OW38637   9.268  12.674  11.698
78935SOL    HW138638   9.208  12.609  11.733
78935SOL    HW238639   9.214  12.729  11.641
78936SOL     OW38640   0.058   2.480   7.297
78936SOL    HW138641   0.073   2.414   7.230
78936SOL    HW238642   0.136   2.477   7.352
78937SOL     OW38643   9.258  12.086  13.553
78937SOL    HW138644   9.331  12.135  13.514
78937SOL    HW238645   9.195  12.154  13.578
78938SOL     OW38646  12.879  12.000   8.661
78938SOL    HW138647  12.964  11.959   8.649
78938SOL    HW238648  12.819  11.946   8.608
78939SOL     OW38649   8.437   9.418   2.169
78939SOL    HW138650   8.368   9.402   2.104
78939SOL    HW238651   8.404   9.491   2.221
78940SOL     OW38652   2.668   9.543  11.352
78940SOL    HW138653   2.641   9.577  11.267
78940SOL    HW238654   2.587   9.516  11.394
78941SOL     OW38655   2.852  10.943   8.003
78941SOL    HW138656   2.766  10.980   7.983
78941SOL    HW238657   2.844  10.850   7.984
78942SOL     OW38658   8.055   8.369  10.088
78942SOL    HW138659   8.133   8.421  10.108
78942SOL    HW238660   8.087   8.279  10.085
78943SOL     OW38661   7.321   8.437   4.053
78943SOL    HW138662   7.333   8.348   4.022
78943SOL    HW238663   7.249   8.471   3.999
78944SOL     OW38664  13.991   6.111   7.024
78944SOL    HW138665  14.027   6.182   7.077
78944SOL    HW238666  14.059   6.043   7.025
78945SOL     OW38667  13.159   3.569   0.552
78945SOL    HW138668  13.211   3.500   0.594
78945SOL    HW238669  13.224   3.625   0.509
78946SOL     OW38670   3.531   5.234  13.497
78946SOL    HW138671   3.530   5.223  13.592
78946SOL    HW238672   3.439   5.243  13.473
78947SOL     OW38673   6.702   6.419   2.721
78947SOL    HW138674   6.619   6.374   2.709
78947SOL    HW238675   6.745   6.414   2.636
78948SOL     OW38676   8.801   4.351   0.518
78948SOL    HW138677   8.786   4.256   0.528
78948SOL    HW238678   8.735   4.378   0.454
78949SOL     OW38679   9.077  10.850   2.852
78949SOL    HW138680   9.163  10.874   2.885
78949SOL    HW238681   9.083  10.863   2.757
78950SOL     OW38682  11.042   7.512   6.091
78950SOL    HW138683  11.047   7.601   6.058
78950SOL    HW238684  11.098   7.461   6.032
78951SOL     OW38685   4.856   6.090  12.442
78951SOL    HW138686   4.883   6.107  12.352
78951SOL    HW238687   4.765   6.059  12.434
78952SOL     OW38688   0.010   8.595   0.568
78952SOL    HW138689  14.869   8.520   0.512
78952SOL    HW238690  14.811   8.649   0.565
78953SOL     OW38691  12.175  11.576   9.196
78953SOL    HW138692  12.137  11.496   9.231
78953SOL    HW238693  12.192  11.630   9.273
78954SOL     OW38694   8.810   4.593   3.873
78954SOL    HW138695   8.716   4.608   3.861
78954SOL    HW238696   8.817   4.553   3.959
78955SOL     OW38697   9.974   0.771   2.524
78955SOL    HW138698   9.951   0.858   2.491
78955SOL    HW238699  10.044   0.741   2.465
78956SOL     OW38700   4.407  10.306   5.979
78956SOL    HW138701   4.354  10.274   6.052
78956SOL    HW238702   4.453  10.228   5.948
78957SOL     OW38703   8.195   1.606   7.529
78957SOL    HW138704   8.274   1.625   7.479
78957SOL    HW238705   8.218   1.529   7.581
78958SOL     OW38706   4.600   7.886  10.622
78958SOL    HW138707   4.641   7.891  10.535
78958SOL    HW238708   4.655   7.825  10.671
78959SOL     OW38709   3.354   7.466   6.780
78959SOL    HW138710   3.264   7.454   6.750
78959SOL    HW238711   3.407   7.432   6.708
78960SOL     OW38712   2.851   5.101  12.937
78960SOL    HW138713   2.818   5.012  12.925
78960SOL    HW238714   2.794   5.139  13.004
78961SOL     OW38715   0.346   5.004   5.160
78961SOL    HW138716   0.303   4.947   5.097
78961SOL    HW238717   0.334   4.961   5.244
78962SOL     OW38718   0.609   9.356  13.992
78962SOL    HW138719   0.694   9.350  13.949
78962SOL    HW238720   0.618   9.430  14.052
78963SOL     OW38721  14.717  11.273   5.653
78963SOL    HW138722  14.628  11.267   5.689
78963SOL    HW238723  14.773  11.278   5.730
78964SOL     OW38724   5.225   2.700   3.823
78964SOL    HW138725   5.284   2.687   3.749
78964SOL    HW238726   5.198   2.612   3.849
78965SOL     OW38727  11.248   6.662   9.981
78965SOL    HW138728  11.281   6.734  10.035
78965SOL    HW238729  11.233   6.591  10.043
78966SOL     OW38730  11.077   0.755  11.291
78966SOL    HW138731  11.006   0.725  11.348
78966SOL    HW238732  11.156   0.743  11.343
78967SOL     OW38733  12.447   2.443   1.257
78967SOL    HW138734  12.430   2.524   1.306
78967SOL    HW238735  12.369   2.431   1.203
78968SOL     OW38736   2.330   5.670  12.637
78968SOL    HW138737   2.338   5.727  12.713
78968SOL    HW238738   2.236   5.667  12.618
78969SOL     OW38739   2.930  10.576  13.581
78969SOL    HW138740   2.883  10.553  13.661
78969SOL    HW238741   2.942  10.493  13.536
78970SOL     OW38742   8.491   4.828   4.281
78970SOL    HW138743   8.529   4.830   4.193
78970SOL    HW238744   8.543   4.890   4.331
78971SOL     OW38745  12.948   2.766  14.506
78971SOL    HW138746  12.876   2.712  14.473
78971SOL    HW238747  12.947   2.845  14.452
78972SOL     OW38748   6.831   2.023  14.390
78972SOL    HW138749   6.877   2.095  14.348
78972SOL    HW238750   6.858   2.027  14.482
78973SOL     OW38751   2.230   0.022  12.136
78973SOL    HW138752   2.163   0.030  12.203
78973SOL    HW238753   2.295  14.841  12.173
78974SOL     OW38754   3.062   2.132   8.302
78974SOL    HW138755   3.043   2.160   8.213
78974SOL    HW238756   3.113   2.052   8.292
78975SOL     OW38757  11.698   6.494  12.862
78975SOL    HW138758  11.758   6.557  12.901
78975SOL    HW238759  11.753   6.419  12.839
78976SOL     OW38760  12.478   4.432  10.004
78976SOL    HW138761  12.535   4.405  10.076
78976SOL    HW238762  12.504   4.522   9.985
78977SOL     OW38763   7.314   4.989   8.269
78977SOL    HW138764   7.369   5.014   8.195
78977SOL    HW238765   7.371   5.000   8.345
78978SOL     OW38766   7.291   7.316   7.562
78978SOL    HW138767   7.271   7.379   7.631
78978SOL    HW238768   7.311   7.235   7.608
78979SOL     OW38769   0.046   2.056  14.040
78979SOL    HW138770  14.843   2.106  14.039
78979SOL    HW238771   0.084   2.070  13.953
78980SOL     OW38772   9.461   1.114  13.443
78980SOL    HW138773   9.457   1.209  13.453
78980SOL    HW238774   9.555   1.095  13.436
78981SOL     OW38775  11.240   1.957   0.656
78981SOL    HW138776  11.180   1.935   0.585
78981SOL    HW238777  11.265   2.048   0.639
78982SOL     OW38778   7.040  11.198   7.668
78982SOL    HW138779   7.034  11.171   7.576
78982SOL    HW238780   7.011  11.121   7.718
78983SOL     OW38781   3.094   7.200   8.049
78983SOL    HW138782   3.160   7.193   7.980
78983SOL    HW238783   3.088   7.294   8.067
78984SOL     OW38784  11.332  14.047   3.296
78984SOL    HW138785  11.347  14.141   3.299
78984SOL    HW238786  11.391  14.015   3.228
78985SOL     OW38787   9.265   4.852  14.543
78985SOL    HW138788   9.206   4.810  14.605
78985SOL    HW238789   9.296   4.931  14.589
78986SOL     OW38790   4.322   5.066  13.761
78986SOL    HW138791   4.232   5.080  13.791
78986SOL    HW238792   4.364   5.017  13.832
78987SOL     OW38793   8.280   7.902   7.588
78987SOL    HW138794   8.305   7.994   7.602
78987SOL    HW238795   8.260   7.896   7.495
78988SOL     OW38796   7.512   0.303   5.881
78988SOL    HW138797   7.455   0.312   5.804
78988SOL    HW238798   7.578   0.371   5.870
78989SOL     OW38799  12.876   8.531  13.044
78989SOL    HW138800  12.844   8.444  13.020
78989SOL    HW238801  12.870   8.534  13.139
78990SOL     OW38802  14.347   4.745   0.196
78990SOL    HW138803  14.441   4.730   0.185
78990SOL    HW238804  14.332   4.831   0.157
78991SOL     OW38805  12.931   9.534   3.630
78991SOL    HW138806  13.021   9.520   3.658
78991SOL    HW238807  12.914   9.626   3.651
78992SOL     OW38808   4.442  12.097  10.148
78992SOL    HW138809   4.494  12.038  10.094
78992SOL    HW238810   4.375  12.042  10.188
78993SOL     OW38811   1.581   9.952   8.353
78993SOL    HW138812   1.567   9.997   8.436
78993SOL    HW238813   1.591   9.860   8.377
78994SOL     OW38814   2.043   0.034   0.716
78994SOL    HW138815   1.984   0.022   0.791
78994SOL    HW238816   2.128   0.002   0.747
78995SOL     OW38817   0.361   4.917   9.904
78995SOL    HW138818   0.400   4.963   9.978
78995SOL    HW238819   0.287   4.869   9.942
78996SOL     OW38820   2.916   6.078   8.288
78996SOL    HW138821   2.974   6.002   8.297
78996SOL    HW238822   2.960   6.147   8.337
78997SOL     OW38823  11.665   0.080  12.753
78997SOL    HW138824  11.583   0.085  12.705
78997SOL    HW238825  11.692   0.172  12.762
78998SOL     OW38826   1.317  12.536   0.646
78998SOL    HW138827   1.397  12.488   0.667
78998SOL    HW238828   1.333  12.573   0.559
78999SOL     OW38829   4.001  14.143  11.535
78999SOL    HW138830   4.076  14.163  11.480
78999SOL    HW238831   3.958  14.228  11.549
79000SOL     OW38832   1.846  12.367  13.495
79000SOL    HW138833   1.932  12.404  13.514
79000SOL    HW238834   1.844  12.356  13.400
79001SOL     OW38835   3.280  10.569  10.763
79001SOL    HW138836   3.332  10.544  10.839
79001SOL    HW238837   3.194  10.591  10.798
79002SOL     OW38838   1.893  13.354   0.331
79002SOL    HW138839   1.817  13.383   0.381
79002SOL    HW238840   1.941  13.298   0.393
79003SOL     OW38841   1.134   2.506   1.836
79003SOL    HW138842   1.101   2.417   1.833
79003SOL    HW238843   1.089   2.552   1.765
79004SOL     OW38844   8.807  14.037   8.731
79004SOL    HW138845   8.731  14.095   8.722
79004SOL    HW238846   8.818  14.026   8.825
79005SOL     OW38847   8.681  10.189  12.672
79005SOL    HW138848   8.588  10.211  12.678
79005SOL    HW238849   8.683  10.113  12.614
79006SOL     OW38850   1.312   6.663   8.402
79006SOL    HW138851   1.254   6.609   8.456
79006SOL    HW238852   1.355   6.721   8.464
79007SOL     OW38853   2.291   0.554   1.627
79007SOL    HW138854   2.211   0.520   1.667
79007SOL    HW238855   2.312   0.633   1.677
79008SOL     OW38856   6.849  11.782  10.284
79008SOL    HW138857   6.879  11.691  10.282
79008SOL    HW238858   6.880  11.819  10.202
79009SOL     OW38859  12.713   4.432   9.561
79009SOL    HW138860  12.741   4.367   9.497
79009SOL    HW238861  12.658   4.383   9.622
79010SOL     OW38862   9.308  10.211   7.729
79010SOL    HW138863   9.335  10.205   7.821
79010SOL    HW238864   9.231  10.155   7.723
79011SOL     OW38865   8.547   7.980   0.723
79011SOL    HW138866   8.463   7.956   0.761
79011SOL    HW238867   8.610   7.918   0.762
79012SOL     OW38868   1.995   2.192  12.700
79012SOL    HW138869   1.951   2.133  12.761
79012SOL    HW238870   1.947   2.183  12.618
79013SOL     OW38871   7.688   0.725   7.159
79013SOL    HW138872   7.749   0.769   7.218
79013SOL    HW238873   7.741   0.703   7.082
79014SOL     OW38874   1.837  13.650  12.805
79014SOL    HW138875   1.766  13.698  12.762
79014SOL    HW238876   1.911  13.660  12.745
79015SOL     OW38877   3.280  13.746   6.933
79015SOL    HW138878   3.358  13.746   6.987
79015SOL    HW238879   3.256  13.653   6.924
79016SOL     OW38880   5.098  10.539  10.554
79016SOL    HW138881   5.077  10.605  10.487
79016SOL    HW238882   5.016  10.492  10.567
79017SOL     OW38883  14.235  12.814   4.356
79017SOL    HW138884  14.324  12.825   4.323
79017SOL    HW238885  14.225  12.883   4.423
79018SOL     OW38886   7.723   9.558   9.911
79018SOL    HW138887   7.641   9.517   9.884
79018SOL    HW238888   7.748   9.512   9.991
79019SOL     OW38889   8.732  10.854   8.640
79019SOL    HW138890   8.785  10.903   8.703
79019SOL    HW238891   8.762  10.764   8.649
79020SOL     OW38892  10.026   9.443   9.153
79020SOL    HW138893  10.116   9.432   9.181
79020SOL    HW238894   9.992   9.514   9.208
79021SOL     OW38895  11.331   3.178   8.564
79021SOL    HW138896  11.420   3.210   8.556
79021SOL    HW238897  11.276   3.249   8.531
79022SOL     OW38898  13.716   3.165   2.510
79022SOL    HW138899  13.741   3.256   2.495
79022SOL    HW238900  13.638   3.170   2.566
79023SOL     OW38901   9.218  11.394  12.233
79023SOL    HW138902   9.257  11.306  12.231
79023SOL    HW238903   9.127  11.379  12.209
79024SOL     OW38904   2.252   9.104   2.154
79024SOL    HW138905   2.241   9.021   2.108
79024SOL    HW238906   2.273   9.078   2.244
79025SOL     OW38907  13.727   5.551   3.392
79025SOL    HW138908  13.800   5.490   3.397
79025SOL    HW238909  13.653   5.499   3.361
79026SOL     OW38910  13.943   9.045   4.197
79026SOL    HW138911  13.972   9.136   4.190
79026SOL    HW238912  14.020   8.997   4.226
79027SOL     OW38913   7.559   6.291  10.891
79027SOL    HW138914   7.505   6.325  10.820
79027SOL    HW238915   7.562   6.362  10.955
79028SOL     OW38916   9.825   1.585   3.252
79028SOL    HW138917   9.885   1.659   3.246
79028SOL    HW238918   9.747   1.621   3.295
79029SOL     OW38919  12.982   8.408   4.431
79029SOL    HW138920  12.914   8.428   4.367
79029SOL    HW238921  13.011   8.320   4.409
79030SOL     OW38922   4.096   2.751   7.231
79030SOL    HW138923   4.021   2.753   7.171
79030SOL    HW238924   4.057   2.746   7.318
79031SOL     OW38925   6.151  13.845   1.333
79031SOL    HW138926   6.169  13.757   1.300
79031SOL    HW238927   6.126  13.832   1.424
79032SOL     OW38928   4.126   4.560  10.554
79032SOL    HW138929   4.160   4.547  10.643
79032SOL    HW238930   4.031   4.546  10.563
79033SOL     OW38931  14.222   0.257   3.979
79033SOL    HW138932  14.293   0.234   3.918
79033SOL    HW238933  14.143   0.252   3.927
79034SOL     OW38934  10.211   7.869   9.483
79034SOL    HW138935  10.295   7.893   9.444
79034SOL    HW238936  10.170   7.953   9.505
79035SOL     OW38937  10.501   5.080   7.357
79035SOL    HW138938  10.564   5.111   7.421
79035SOL    HW238939  10.553   5.023   7.299
79036SOL     OW38940   9.630   5.565   2.302
79036SOL    HW138941   9.701   5.516   2.261
79036SOL    HW238942   9.674   5.625   2.362
79037SOL     OW38943  14.273  12.233  13.027
79037SOL    HW138944  14.188  12.276  13.027
79037SOL    HW238945  14.257  12.148  13.068
79038SOL     OW38946  12.345  12.571   8.169
79038SOL    HW138947  12.322  12.505   8.233
79038SOL    HW238948  12.404  12.631   8.216
79039SOL     OW38949   1.100   1.499   6.804
79039SOL    HW138950   1.161   1.440   6.850
79039SOL    HW238951   1.093   1.575   6.862
79040SOL     OW38952  13.198   4.611   9.666
79040SOL    HW138953  13.191   4.681   9.731
79040SOL    HW238954  13.134   4.634   9.599
79041SOL     OW38955   6.036  14.230   1.619
79041SOL    HW138956   5.999  14.317   1.625
79041SOL    HW238957   6.124  14.244   1.583
79042SOL     OW38958  11.974   8.243   5.690
79042SOL    HW138959  11.962   8.328   5.731
79042SOL    HW238960  12.039   8.258   5.621
79043SOL     OW38961   4.591   4.868   8.379
79043SOL    HW138962   4.506   4.884   8.421
79043SOL    HW238963   4.573   4.877   8.285
79044SOL     OW38964  10.505   3.502  12.558
79044SOL    HW138965  10.528   3.411  12.574
79044SOL    HW238966  10.457   3.529  12.636
79045SOL     OW38967   9.459   9.233   2.086
79045SOL    HW138968   9.383   9.178   2.065
79045SOL    HW238969   9.457   9.302   2.020
79046SOL     OW38970   0.187  10.971   2.710
79046SOL    HW138971   0.245  11.023   2.654
79046SOL    HW238972   0.105  10.965   2.662
79047SOL     OW38973   8.668   5.315   1.811
79047SOL    HW138974   8.637   5.324   1.720
79047SOL    HW238975   8.658   5.403   1.848
79048SOL     OW38976   8.857   8.145  12.838
79048SOL    HW138977   8.783   8.181  12.887
79048SOL    HW238978   8.816   8.100  12.764
79049SOL     OW38979   2.449   5.459  12.836
79049SOL    HW138980   2.446   5.505  12.752
79049SOL    HW238981   2.360   5.427  12.849
79050SOL     OW38982   8.780   1.718   7.824
79050SOL    HW138983   8.729   1.722   7.744
79050SOL    HW238984   8.743   1.786   7.880
79051SOL     OW38985   0.599  12.339  13.611
79051SOL    HW138986   0.613  12.377  13.524
79051SOL    HW238987   0.640  12.402  13.670
79052SOL     OW38988  11.677   9.383  11.083
79052SOL    HW138989  11.722   9.467  11.075
79052SOL    HW238990  11.735   9.320  11.039
79053SOL     OW38991  10.351   9.716   2.803
79053SOL    HW138992  10.338   9.678   2.890
79053SOL    HW238993  10.318   9.805   2.810
79054SOL     OW38994   5.219   5.193  10.387
79054SOL    HW138995   5.144   5.238  10.425
79054SOL    HW238996   5.286   5.262  10.379
79055SOL     OW38997  12.562   3.529   5.910
79055SOL    HW138998  12.565   3.558   5.819
79055SOL    HW238999  12.528   3.605   5.958
79056SOL     OW39000   1.381  13.722   0.506
79056SOL    HW139001   1.360  13.797   0.562
79056SOL    HW239002   1.325  13.652   0.538
79057SOL     OW39003   5.678  14.349   8.923
79057SOL    HW139004   5.720  14.380   9.003
79057SOL    HW239005   5.736  14.280   8.891
79058SOL     OW39006   9.095   2.820   8.972
79058SOL    HW139007   9.008   2.802   9.007
79058SOL    HW239008   9.156   2.783   9.036
79059SOL     OW39009  12.896  11.211  13.142
79059SOL    HW139010  12.920  11.168  13.224
79059SOL    HW239011  12.883  11.303  13.166
79060SOL     OW39012  10.519   9.546  10.322
79060SOL    HW139013  10.462   9.621  10.306
79060SOL    HW239014  10.461   9.479  10.359
79061SOL     OW39015   5.319  11.869   8.384
79061SOL    HW139016   5.290  11.788   8.426
79061SOL    HW239017   5.309  11.936   8.452
79062SOL     OW39018   0.317   8.359   2.069
79062SOL    HW139019   0.329   8.264   2.060
79062SOL    HW239020   0.404   8.395   2.052
79063SOL     OW39021   2.460  12.397  11.397
79063SOL    HW139022   2.486  12.419  11.307
79063SOL    HW239023   2.374  12.437  11.407
79064SOL     OW39024  13.263   4.869   8.852
79064SOL    HW139025  13.197   4.825   8.798
79064SOL    HW239026  13.324   4.908   8.789
79065SOL     OW39027  13.075  10.234  13.132
79065SOL    HW139028  13.071  10.166  13.199
79065SOL    HW239029  12.985  10.242  13.101
79066SOL     OW39030   0.005  10.953   7.831
79066SOL    HW139031  14.801  10.926   7.793
79066SOL    HW239032   0.016  11.044   7.803
79067SOL     OW39033   8.899   9.877   2.175
79067SOL    HW139034   8.980   9.897   2.222
79067SOL    HW239035   8.878   9.787   2.202
79068SOL     OW39036   0.291   5.571  12.551
79068SOL    HW139037   0.371   5.584  12.601
79068SOL    HW239038   0.318   5.583  12.459
79069SOL     OW39039   7.242   2.859  10.920
79069SOL    HW139040   7.297   2.787  10.892
79069SOL    HW239041   7.300   2.935  10.921
79070SOL     OW39042  13.477  14.767   7.838
79070SOL    HW139043  13.513  14.705   7.902
79070SOL    HW239044  13.439  14.711   7.770
79071SOL     OW39045   7.864   0.622   9.647
79071SOL    HW139046   7.796   0.579   9.698
79071SOL    HW239047   7.863   0.713   9.677
79072SOL     OW39048   5.319   1.753   0.286
79072SOL    HW139049   5.294   1.743   0.194
79072SOL    HW239050   5.370   1.675   0.306
79073SOL     OW39051  10.540   1.556   4.435
79073SOL    HW139052  10.466   1.522   4.384
79073SOL    HW239053  10.505   1.571   4.522
79074SOL     OW39054   3.520   2.038  12.879
79074SOL    HW139055   3.540   1.952  12.842
79074SOL    HW239056   3.427   2.033  12.904
79075SOL     OW39057   3.093  13.194   4.084
79075SOL    HW139058   3.132  13.193   3.997
79075SOL    HW239059   3.088  13.287   4.106
79076SOL     OW39060   0.583   2.198   7.757
79076SOL    HW139061   0.493   2.227   7.747
79076SOL    HW239062   0.583   2.146   7.837
79077SOL     OW39063   7.997   5.359   3.618
79077SOL    HW139064   7.993   5.275   3.664
79077SOL    HW239065   8.088   5.367   3.591
79078SOL     OW39066   9.256   9.064  13.136
79078SOL    HW139067   9.176   9.070  13.188
79078SOL    HW239068   9.228   9.074  13.046
79079SOL     OW39069  10.507   3.671  14.753
79079SOL    HW139070  10.480   3.726  14.680
79079SOL    HW239071  10.425   3.643  14.794
79080SOL     OW39072   6.667   4.513   0.801
79080SOL    HW139073   6.688   4.477   0.714
79080SOL    HW239074   6.578   4.483   0.818
79081SOL     OW39075   2.640   3.875  12.662
79081SOL    HW139076   2.572   3.874  12.595
79081SOL    HW239077   2.673   3.965  12.662
79082SOL     OW39078   6.347   5.964   0.278
79082SOL    HW139079   6.386   6.044   0.243
79082SOL    HW239080   6.387   5.954   0.364
79083SOL     OW39081  13.427   2.046   4.189
79083SOL    HW139082  13.454   1.976   4.130
79083SOL    HW239083  13.419   2.004   4.275
79084SOL     OW39084   7.819   9.888  11.103
79084SOL    HW139085   7.795   9.877  11.011
79084SOL    HW239086   7.756   9.834  11.151
79085SOL     OW39087   4.166  13.754   2.777
79085SOL    HW139088   4.261  13.745   2.775
79085SOL    HW239089   4.148  13.804   2.856
79086SOL     OW39090   3.494   8.479   9.478
79086SOL    HW139091   3.548   8.417   9.527
79086SOL    HW239092   3.404   8.447   9.489
79087SOL     OW39093   3.546  10.937   6.884
79087SOL    HW139094   3.602  11.012   6.905
79087SOL    HW239095   3.512  10.909   6.969
79088SOL     OW39096  10.379   0.544  11.219
79088SOL    HW139097  10.420   0.513  11.300
79088SOL    HW239098  10.342   0.465  11.179
79089SOL     OW39099  10.087   3.958   6.247
79089SOL    HW139100  10.054   4.025   6.187
79089SOL    HW239101  10.157   3.915   6.198
79090SOL     OW39102   2.063   6.470  13.600
79090SOL    HW139103   2.065   6.400  13.534
79090SOL    HW239104   1.997   6.441  13.663
79091SOL     OW39105   2.770   3.558  12.074
79091SOL    HW139106   2.717   3.541  11.995
79091SOL    HW239107   2.803   3.472  12.100
79092SOL     OW39108   5.562  10.699   0.964
79092SOL    HW139109   5.626  10.749   0.914
79092SOL    HW239110   5.477  10.731   0.934
79093SOL     OW39111   6.649  11.447   5.379
79093SOL    HW139112   6.568  11.492   5.401
79093SOL    HW239113   6.621  11.364   5.341
79094SOL     OW39114   1.416  12.714  14.330
79094SOL    HW139115   1.338  12.769  14.322
79094SOL    HW239116   1.399  12.660  14.408
79095SOL     OW39117   7.279   1.950   0.589
79095SOL    HW139118   7.334   1.962   0.512
79095SOL    HW239119   7.284   2.034   0.635
79096SOL     OW39120  11.893   7.340  12.988
79096SOL    HW139121  11.852   7.400  13.050
79096SOL    HW239122  11.908   7.392  12.910
79097SOL     OW39123   0.844   4.836   5.448
79097SOL    HW139124   0.841   4.741   5.461
79097SOL    HW239125   0.811   4.872   5.530
79098SOL     OW39126  10.054   5.896   2.507
79098SOL    HW139127   9.998   5.908   2.584
79098SOL    HW239128   9.997   5.915   2.433
79099SOL     OW39129  11.196   6.243   9.839
79099SOL    HW139130  11.243   6.277   9.763
79099SOL    HW239131  11.253   6.265   9.913
79100SOL     OW39132   5.040   8.094  10.516
79100SOL    HW139133   5.001   8.074  10.602
79100SOL    HW239134   5.015   8.184  10.499
79101SOL     OW39135   2.796   4.330  10.117
79101SOL    HW139136   2.872   4.310  10.171
79101SOL    HW239137   2.736   4.258  10.132
79102SOL     OW39138   3.599  12.957   6.393
79102SOL    HW139139   3.568  13.047   6.396
79102SOL    HW239140   3.577  12.927   6.305
79103SOL     OW39141   5.787   3.504   7.770
79103SOL    HW139142   5.880   3.518   7.789
79103SOL    HW239143   5.746   3.588   7.787
79104SOL     OW39144  10.417  12.340   1.298
79104SOL    HW139145  10.465  12.263   1.331
79104SOL    HW239146  10.441  12.344   1.205
79105SOL     OW39147  12.870   9.696   7.355
79105SOL    HW139148  12.939   9.745   7.399
79105SOL    HW239149  12.797   9.697   7.416
79106SOL     OW39150   4.658   5.567   0.484
79106SOL    HW139151   4.625   5.553   0.572
79106SOL    HW239152   4.616   5.498   0.432
79107SOL     OW39153   2.012   4.409   7.512
79107SOL    HW139154   1.922   4.412   7.478
79107SOL    HW239155   2.002   4.427   7.605
79108SOL     OW39156   5.429   4.597   5.844
79108SOL    HW139157   5.477   4.615   5.925
79108SOL    HW239158   5.424   4.682   5.800
79109SOL     OW39159   8.243   1.790   3.518
79109SOL    HW139160   8.169   1.850   3.515
79109SOL    HW239161   8.213   1.713   3.469
79110SOL     OW39162   4.826   6.590  14.829
79110SOL    HW139163   4.822   6.654  14.757
79110SOL    HW239164   4.780   6.634   0.022
79111SOL     OW39165  11.642   8.101   2.753
79111SOL    HW139166  11.646   8.154   2.673
79111SOL    HW239167  11.549   8.080   2.762
79112SOL     OW39168  14.649   7.111   6.117
79112SOL    HW139169  14.738   7.128   6.150
79112SOL    HW239170  14.592   7.156   6.179
79113SOL     OW39171   5.396  11.771  11.533
79113SOL    HW139172   5.474  11.795  11.484
79113SOL    HW239173   5.411  11.681  11.560
79114SOL     OW39174   1.744  10.830   9.249
79114SOL    HW139175   1.681  10.794   9.185
79114SOL    HW239176   1.817  10.768   9.246
79115SOL     OW39177   6.939   1.433   6.853
79115SOL    HW139178   6.991   1.363   6.812
79115SOL    HW239179   6.896   1.391   6.927
79116SOL     OW39180   3.305   6.089   5.588
79116SOL    HW139181   3.226   6.055   5.547
79116SOL    HW239182   3.274   6.149   5.655
79117SOL     OW39183   7.987   0.010   6.606
79117SOL    HW139184   8.046   0.022   6.531
79117SOL    HW239185   8.023   0.066   6.674
79118SOL     OW39186  14.359   2.651   3.560
79118SOL    HW139187  14.319   2.564   3.557
79118SOL    HW239188  14.301   2.703   3.616
79119SOL     OW39189  10.903   0.705  11.831
79119SOL    HW139190  10.977   0.673  11.882
79119SOL    HW239191  10.878   0.631  11.776
79120SOL     OW39192  13.651   9.468   9.482
79120SOL    HW139193  13.741   9.458   9.450
79120SOL    HW239194  13.653   9.546   9.538
79121SOL     OW39195   7.636   5.225   7.925
79121SOL    HW139196   7.652   5.314   7.892
79121SOL    HW239197   7.614   5.238   8.017
79122SOL     OW39198   9.202   3.577   1.152
79122SOL    HW139199   9.115   3.541   1.132
79122SOL    HW239200   9.247   3.579   1.067
79123SOL     OW39201  14.809   3.391   1.486
79123SOL    HW139202  14.741   3.455   1.506
79123SOL    HW239203  14.789   3.363   1.396
79124SOL     OW39204   8.924  10.685   8.072
79124SOL    HW139205   8.998  10.627   8.054
79124SOL    HW239206   8.892  10.710   7.986
79125SOL     OW39207  11.939  11.716  10.274
79125SOL    HW139208  11.861  11.766  10.247
79125SOL    HW239209  11.984  11.698  10.192
79126SOL     OW39210   4.950  14.334   9.828
79126SOL    HW139211   4.934  14.394   9.902
79126SOL    HW239212   4.920  14.383   9.752
79127SOL     OW39213  12.194   1.563  13.090
79127SOL    HW139214  12.204   1.658  13.084
79127SOL    HW239215  12.103   1.550  13.116
79128SOL     OW39216   3.422   7.216  11.421
79128SOL    HW139217   3.385   7.298  11.453
79128SOL    HW239218   3.403   7.217  11.327
79129SOL     OW39219  11.829   3.096   6.650
79129SOL    HW139220  11.842   3.101   6.555
79129SOL    HW239221  11.918   3.085   6.685
79130SOL     OW39222   0.910   6.978  13.034
79130SOL    HW139223   0.986   7.020  13.075
79130SOL    HW239224   0.857   6.949  13.108
79131SOL     OW39225   9.970  12.092  14.864
79131SOL    HW139226  10.037  12.098   0.054
79131SOL    HW239227   9.938  12.002  14.870
79132SOL     OW39228   9.256   9.012  10.866
79132SOL    HW139229   9.226   9.092  10.909
79132SOL    HW239230   9.282   9.040  10.778
79133SOL     OW39231   3.182  12.940   6.358
79133SOL    HW139232   3.151  12.900   6.276
79133SOL    HW239233   3.161  12.876   6.426
79134SOL     OW39234   1.332   8.144   7.734
79134SOL    HW139235   1.407   8.156   7.677
79134SOL    HW239236   1.369   8.135   7.822
79135SOL     OW39237  11.614   1.553  13.179
79135SOL    HW139238  11.521   1.534  13.187
79135SOL    HW239239  11.620   1.612  13.104
79136SOL     OW39240   9.443   1.503  12.166
79136SOL    HW139241   9.478   1.587  12.196
79136SOL    HW239242   9.358   1.495  12.210
79137SOL     OW39243   5.121   5.424   8.430
79137SOL    HW139244   5.062   5.349   8.421
79137SOL    HW239245   5.088   5.488   8.367
79138SOL     OW39246  10.411   7.059   0.024
79138SOL    HW139247  10.446   7.142  14.872
79138SOL    HW239248  10.317   7.067   0.014
79139SOL     OW39249  12.414   2.236  10.593
79139SOL    HW139250  12.405   2.293  10.669
79139SOL    HW239251  12.324   2.210  10.572
79140SOL     OW39252   7.379  12.499  10.514
79140SOL    HW139253   7.457  12.536  10.555
79140SOL    HW239254   7.361  12.420  10.566
79141SOL     OW39255   3.153  10.310   4.200
79141SOL    HW139256   3.242  10.310   4.235
79141SOL    HW239257   3.121  10.221   4.214
79142SOL     OW39258   9.514   1.230   3.802
79142SOL    HW139259   9.441   1.223   3.865
79142SOL    HW239260   9.507   1.319   3.768
79143SOL     OW39261   8.490   8.536   1.921
79143SOL    HW139262   8.477   8.529   2.015
79143SOL    HW239263   8.582   8.561   1.910
79144SOL     OW39264   1.754  10.658   3.497
79144SOL    HW139265   1.772  10.629   3.586
79144SOL    HW239266   1.781  10.749   3.495
79145SOL     OW39267  12.531   0.566   7.820
79145SOL    HW139268  12.605   0.624   7.802
79145SOL    HW239269  12.570   0.489   7.860
79146SOL     OW39270   8.864  12.773   5.820
79146SOL    HW139271   8.793  12.719   5.786
79146SOL    HW239272   8.914  12.715   5.877
79147SOL     OW39273  12.307   0.843   1.900
79147SOL    HW139274  12.237   0.830   1.836
79147SOL    HW239275  12.334   0.755   1.925
79148SOL     OW39276   3.645   0.971   5.588
79148SOL    HW139277   3.624   0.951   5.680
79148SOL    HW239278   3.633   0.887   5.543
79149SOL     OW39279   1.276  14.306  14.422
79149SOL    HW139280   1.283  14.402  14.423
79149SOL    HW239281   1.233  14.284  14.505
79150SOL     OW39282   6.464   5.351   6.595
79150SOL    HW139283   6.545   5.372   6.641
79150SOL    HW239284   6.465   5.256   6.587
79151SOL     OW39285   0.114   3.995   9.957
79151SOL    HW139286   0.023   3.997   9.926
79151SOL    HW239287   0.110   3.943  10.037
79152SOL     OW39288  14.141   0.612   8.789
79152SOL    HW139289  14.062   0.664   8.777
79152SOL    HW239290  14.111   0.521   8.788
79153SOL     OW39291   8.720  12.305   0.317
79153SOL    HW139292   8.724  12.357   0.397
79153SOL    HW239293   8.675  12.224   0.343
79154SOL     OW39294   0.899   4.108   3.184
79154SOL    HW139295   0.811   4.091   3.219
79154SOL    HW239296   0.948   4.029   3.203
79155SOL     OW39297   9.015  13.304   1.675
79155SOL    HW139298   9.091  13.329   1.727
79155SOL    HW239299   8.986  13.386   1.634
79156SOL     OW39300   1.658   7.029  12.133
79156SOL    HW139301   1.577   6.982  12.154
79156SOL    HW239302   1.724   6.961  12.123
79157SOL     OW39303   9.202   7.649  11.904
79157SOL    HW139304   9.202   7.620  11.812
79157SOL    HW239305   9.213   7.744  11.899
79158SOL     OW39306   6.680  13.969  10.114
79158SOL    HW139307   6.617  13.911  10.069
79158SOL    HW239308   6.694  14.040  10.052
79159SOL     OW39309   0.651  14.447   8.208
79159SOL    HW139310   0.730  14.479   8.164
79159SOL    HW239311   0.622  14.520   8.262
79160SOL     OW39312  13.726   7.764   3.298
79160SOL    HW139313  13.695   7.854   3.300
79160SOL    HW239314  13.671   7.721   3.232
79161SOL     OW39315   2.832  12.987   0.578
79161SOL    HW139316   2.857  12.895   0.566
79161SOL    HW239317   2.870  13.032   0.502
79162SOL     OW39318   7.327  13.490   3.802
79162SOL    HW139319   7.278  13.556   3.851
79162SOL    HW239320   7.394  13.460   3.863
79163SOL     OW39321   7.496   9.113  12.420
79163SOL    HW139322   7.536   9.056  12.485
79163SOL    HW239323   7.424   9.156  12.466
79164SOL     OW39324  13.233  13.933  13.009
79164SOL    HW139325  13.242  13.914  13.102
79164SOL    HW239326  13.145  13.903  12.987
79165SOL     OW39327  13.467   0.683   0.106
79165SOL    HW139328  13.457   0.628   0.184
79165SOL    HW239329  13.478   0.621   0.034
79166SOL     OW39330  14.468  13.272   3.086
79166SOL    HW139331  14.554  13.293   3.050
79166SOL    HW239332  14.460  13.327   3.164
79167SOL     OW39333   6.194   3.248   0.398
79167SOL    HW139334   6.254   3.321   0.416
79167SOL    HW239335   6.111   3.275   0.435
79168SOL     OW39336   9.315  13.353   8.099
79168SOL    HW139337   9.404  13.340   8.068
79168SOL    HW239338   9.265  13.282   8.058
79169SOL     OW39339   4.912   9.629   3.194
79169SOL    HW139340   4.992   9.675   3.220
79169SOL    HW239341   4.884   9.582   3.273
79170SOL     OW39342   1.995  13.739   7.651
79170SOL    HW139343   1.918  13.795   7.647
79170SOL    HW239344   2.068  13.800   7.660
79171SOL     OW39345   3.996   0.248  14.133
79171SOL    HW139346   4.024   0.220  14.046
79171SOL    HW239347   3.908   0.284  14.120
79172SOL     OW39348   0.269  11.413   0.846
79172SOL    HW139349   0.311  11.471   0.909
79172SOL    HW239350   0.255  11.468   0.769
79173SOL     OW39351  13.558  12.124  13.497
79173SOL    HW139352  13.475  12.095  13.459
79173SOL    HW239353  13.534  12.203  13.547
79174SOL     OW39354  14.378   2.524  13.291
79174SOL    HW139355  14.357   2.612  13.323
79174SOL    HW239356  14.407   2.538  13.201
79175SOL     OW39357  10.601   3.241  11.727
79175SOL    HW139358  10.513   3.222  11.696
79175SOL    HW239359  10.609   3.190  11.808
79176SOL     OW39360   2.344   7.188  11.181
79176SOL    HW139361   2.377   7.122  11.119
79176SOL    HW239362   2.306   7.256  11.125
79177SOL     OW39363   2.520   3.424   3.294
79177SOL    HW139364   2.544   3.515   3.276
79177SOL    HW239365   2.453   3.404   3.229
79178SOL     OW39366  12.264   9.053   2.147
79178SOL    HW139367  12.359   9.040   2.150
79178SOL    HW239368  12.251   9.117   2.076
79179SOL     OW39369   9.094   3.033   7.118
79179SOL    HW139370   9.024   2.995   7.066
79179SOL    HW239371   9.171   3.031   7.062
79180SOL     OW39372   9.355   7.445   9.659
79180SOL    HW139373   9.282   7.383   9.653
79180SOL    HW239374   9.316   7.522   9.701
79181SOL     OW39375   9.339   7.235  13.303
79181SOL    HW139376   9.364   7.243  13.211
79181SOL    HW239377   9.415   7.265  13.351
79182SOL     OW39378  12.666   0.653  13.537
79182SOL    HW139379  12.669   0.565  13.500
79182SOL    HW239380  12.692   0.710  13.465
79183SOL     OW39381   9.576   3.901  13.056
79183SOL    HW139382   9.655   3.851  13.074
79183SOL    HW239383   9.576   3.912  12.961
79184SOL     OW39384  10.522   7.464   6.341
79184SOL    HW139385  10.519   7.376   6.378
79184SOL    HW239386  10.512   7.451   6.247
79185SOL     OW39387   7.376  10.649   0.913
79185SOL    HW139388   7.415  10.675   0.830
79185SOL    HW239389   7.451  10.634   0.971
79186SOL     OW39390   3.950  12.028   9.213
79186SOL    HW139391   4.005  12.097   9.249
79186SOL    HW239392   3.900  12.070   9.143
79187SOL     OW39393   0.573   5.685  13.324
79187SOL    HW139394   0.547   5.598  13.354
79187SOL    HW239395   0.490   5.734  13.319
79188SOL     OW39396   5.711   9.016   0.834
79188SOL    HW139397   5.639   8.968   0.874
79188SOL    HW239398   5.779   8.950   0.819
79189SOL     OW39399  11.066  13.177   4.836
79189SOL    HW139400  11.098  13.218   4.916
79189SOL    HW239401  11.138  13.186   4.774
79190SOL     OW39402   8.993   0.197   6.124
79190SOL    HW139403   9.076   0.158   6.097
79190SOL    HW239404   8.935   0.185   6.050
79191SOL     OW39405   5.633   7.921   1.797
79191SOL    HW139406   5.661   8.001   1.841
79191SOL    HW239407   5.655   7.851   1.858
79192SOL     OW39408   7.909   8.322  13.368
79192SOL    HW139409   7.929   8.399  13.420
79192SOL    HW239410   7.850   8.353  13.300
79193SOL     OW39411   4.825   8.568   6.505
79193SOL    HW139412   4.898   8.543   6.448
79193SOL    HW239413   4.819   8.496   6.568
79194SOL     OW39414   2.899  13.048  14.798
79194SOL    HW139415   2.876  13.007   0.003
79194SOL    HW239416   2.909  13.141  14.818
79195SOL     OW39417   1.627   9.503   4.526
79195SOL    HW139418   1.573   9.457   4.461
79195SOL    HW239419   1.565   9.558   4.574
79196SOL     OW39420   8.402   1.940   1.400
79196SOL    HW139421   8.377   1.951   1.492
79196SOL    HW239422   8.352   2.007   1.354
79197SOL     OW39423  11.043  10.770  10.779
79197SOL    HW139424  10.984  10.699  10.754
79197SOL    HW239425  11.088  10.738  10.857
79198SOL     OW39426   3.495   7.798   5.688
79198SOL    HW139427   3.507   7.826   5.597
79198SOL    HW239428   3.582   7.773   5.717
79199SOL     OW39429   1.399  14.482   0.922
79199SOL    HW139430   1.431  14.403   0.967
79199SOL    HW239431   1.476  14.540   0.920
79200SOL     OW39432   4.449   0.856   0.226
79200SOL    HW139433   4.469   0.812   0.143
79200SOL    HW239434   4.444   0.785   0.290
79201SOL     OW39435  14.286   8.920  14.554
79201SOL    HW139436  14.341   8.961  14.620
79201SOL    HW239437  14.247   8.845  14.599
79202SOL     OW39438   5.488  13.071   7.694
79202SOL    HW139439   5.398  13.045   7.712
79202SOL    HW239440   5.494  13.070   7.599
79203SOL     OW39441  10.073  12.929  10.171
79203SOL    HW139442  10.096  12.852  10.119
79203SOL    HW239443  10.096  12.905  10.261
79204SOL     OW39444   2.590   5.160   1.160
79204SOL    HW139445   2.536   5.086   1.186
79204SOL    HW239446   2.614   5.203   1.242
79205SOL     OW39447   8.140   5.234  11.815
79205SOL    HW139448   8.071   5.173  11.839
79205SOL    HW239449   8.168   5.274  11.897
79206SOL     OW39450  13.941  13.748  10.183
79206SOL    HW139451  13.934  13.653  10.169
79206SOL    HW239452  13.851  13.780  10.172
79207SOL     OW39453   3.871  12.939   9.702
79207SOL    HW139454   3.780  12.959   9.723
79207SOL    HW239455   3.869  12.912   9.610
79208SOL     OW39456  12.170   1.460   6.053
79208SOL    HW139457  12.249   1.420   6.088
79208SOL    HW239458  12.194   1.551   6.036
79209SOL     OW39459   2.152  12.854  10.246
79209SOL    HW139460   2.179  12.946  10.237
79209SOL    HW239461   2.058  12.855  10.229
79210SOL     OW39462  14.501  10.237   0.670
79210SOL    HW139463  14.421  10.203   0.631
79210SOL    HW239464  14.495  10.214   0.762
79211SOL     OW39465   7.374   1.713   9.307
79211SOL    HW139466   7.319   1.765   9.366
79211SOL    HW239467   7.331   1.720   9.222
79212SOL     OW39468   5.307   3.608   8.440
79212SOL    HW139469   5.321   3.698   8.468
79212SOL    HW239470   5.395   3.570   8.436
79213SOL     OW39471   4.423   0.167  11.595
79213SOL    HW139472   4.514   0.176  11.568
79213SOL    HW239473   4.427   0.123  11.680
79214SOL     OW39474  10.559   3.361  13.367
79214SOL    HW139475  10.594   3.315  13.291
79214SOL    HW239476  10.468   3.380  13.344
79215SOL     OW39477   0.146   8.149   4.488
79215SOL    HW139478   0.179   8.189   4.568
79215SOL    HW239479   0.071   8.097   4.515
79216SOL     OW39480   1.417   7.873   2.624
79216SOL    HW139481   1.424   7.782   2.595
79216SOL    HW239482   1.484   7.919   2.574
79217SOL     OW39483   8.230   8.643   0.343
79217SOL    HW139484   8.255   8.593   0.421
79217SOL    HW239485   8.177   8.715   0.377
79218SOL     OW39486  10.634   8.591  14.123
79218SOL    HW139487  10.703   8.534  14.157
79218SOL    HW239488  10.581   8.535  14.067
79219SOL     OW39489   9.424   6.228  10.694
79219SOL    HW139490   9.337   6.193  10.717
79219SOL    HW239491   9.482   6.193  10.761
79220SOL     OW39492  10.539  12.067  11.529
79220SOL    HW139493  10.518  12.153  11.492
79220SOL    HW239494  10.611  12.083  11.589
79221SOL     OW39495   8.402   8.366   3.643
79221SOL    HW139496   8.396   8.375   3.738
79221SOL    HW239497   8.322   8.320   3.617
79222SOL     OW39498   6.177   5.676   9.338
79222SOL    HW139499   6.088   5.642   9.351
79222SOL    HW239500   6.164   5.755   9.285
79223SOL     OW39501  14.220  13.630   3.612
79223SOL    HW139502  14.213  13.594   3.700
79223SOL    HW239503  14.147  13.591   3.564
79224SOL     OW39504  14.845   0.930   4.384
79224SOL    HW139505   0.021   1.007   4.375
79224SOL    HW239506  14.829   0.901   4.294
79225SOL     OW39507   3.687   9.264  11.360
79225SOL    HW139508   3.613   9.251  11.301
79225SOL    HW239509   3.660   9.336  11.417
79226SOL     OW39510   1.948   4.181   5.172
79226SOL    HW139511   1.944   4.106   5.231
79226SOL    HW239512   1.952   4.257   5.231
79227SOL     OW39513   8.499  12.655   0.265
79227SOL    HW139514   8.536  12.692   0.185
79227SOL    HW239515   8.410  12.690   0.269
79228SOL     OW39516   3.358   9.191   6.866
79228SOL    HW139517   3.412   9.188   6.787
79228SOL    HW239518   3.421   9.203   6.938
79229SOL     OW39519   2.594  13.061   2.370
79229SOL    HW139520   2.682  13.080   2.337
79229SOL    HW239521   2.536  13.093   2.301
79230SOL     OW39522  10.316  12.905  12.315
79230SOL    HW139523  10.356  12.830  12.271
79230SOL    HW239524  10.347  12.981  12.266
79231SOL     OW39525   6.724   5.618   2.853
79231SOL    HW139526   6.788   5.565   2.901
79231SOL    HW239527   6.710   5.695   2.909
79232SOL     OW39528   8.999   0.390   7.158
79232SOL    HW139529   8.985   0.471   7.207
79232SOL    HW239530   9.013   0.418   7.068
79233SOL     OW39531   8.358  14.274  12.470
79233SOL    HW139532   8.320  14.265  12.382
79233SOL    HW239533   8.290  14.320  12.520
79234SOL     OW39534  10.789  11.913   1.870
79234SOL    HW139535  10.791  12.008   1.873
79234SOL    HW239536  10.711  11.888   1.919
79235SOL     OW39537  14.193   3.222  11.284
79235SOL    HW139538  14.151   3.210  11.369
79235SOL    HW239539  14.137   3.283  11.238
79236SOL     OW39540   3.109   9.299   6.856
79236SOL    HW139541   3.198   9.263   6.861
79236SOL    HW239542   3.065   9.264   6.933
79237SOL     OW39543   1.603   3.217   3.762
79237SOL    HW139544   1.543   3.266   3.706
79237SOL    HW239545   1.672   3.187   3.703
79238SOL     OW39546   4.701  12.672  11.543
79238SOL    HW139547   4.647  12.614  11.489
79238SOL    HW239548   4.638  12.725  11.591
79239SOL     OW39549  10.371  14.037   0.864
79239SOL    HW139550  10.306  14.066   0.928
79239SOL    HW239551  10.438  14.106   0.866
79240SOL     OW39552  10.154   8.596   2.998
79240SOL    HW139553  10.160   8.640   2.913
79240SOL    HW239554  10.234   8.621   3.044
79241SOL     OW39555   5.027   4.669  12.236
79241SOL    HW139556   5.046   4.736  12.170
79241SOL    HW239557   4.969   4.607  12.191
79242SOL     OW39558  11.338  10.572   9.491
79242SOL    HW139559  11.433  10.564   9.500
79242SOL    HW239560  11.306  10.583   9.580
79243SOL     OW39561  14.841  10.800   3.618
79243SOL    HW139562  14.802  10.886   3.629
79243SOL    HW239563  14.770  10.746   3.581
79244SOL     OW39564   5.857  11.740  10.056
79244SOL    HW139565   5.867  11.752  10.150
79244SOL    HW239566   5.863  11.645  10.044
79245SOL     OW39567   4.526   3.259   7.782
79245SOL    HW139568   4.439   3.248   7.819
79245SOL    HW239569   4.519   3.228   7.692
79246SOL     OW39570   2.041   8.641   7.067
79246SOL    HW139571   2.086   8.684   7.139
79246SOL    HW239572   2.054   8.698   6.991
79247SOL     OW39573   5.923   5.972   6.924
79247SOL    HW139574   5.955   6.034   6.858
79247SOL    HW239575   5.954   5.887   6.894
79248SOL     OW39576   0.432   1.305   5.435
79248SOL    HW139577   0.394   1.241   5.375
79248SOL    HW239578   0.527   1.290   5.429
79249SOL     OW39579   1.092  14.260   2.594
79249SOL    HW139580   1.153  14.191   2.621
79249SOL    HW239581   1.122  14.338   2.642
79250SOL     OW39582   9.825  10.468   9.888
79250SOL    HW139583   9.857  10.513   9.966
79250SOL    HW239584   9.903  10.452   9.836
79251SOL     OW39585   4.720   4.397   4.861
79251SOL    HW139586   4.704   4.310   4.896
79251SOL    HW239587   4.644   4.415   4.805
79252SOL     OW39588  13.391   0.951   0.825
79252SOL    HW139589  13.411   0.938   0.917
79252SOL    HW239590  13.477   0.955   0.782
79253SOL     OW39591   4.584   2.632   2.866
79253SOL    HW139592   4.517   2.570   2.892
79253SOL    HW239593   4.667   2.587   2.881
79254SOL     OW39594   2.996   3.006   4.323
79254SOL    HW139595   2.976   2.956   4.244
79254SOL    HW239596   2.999   2.941   4.393
79255SOL     OW39597   4.802  14.062  13.995
79255SOL    HW139598   4.755  14.053  14.079
79255SOL    HW239599   4.732  14.067  13.929
79256SOL     OW39600  13.824   5.056   1.007
79256SOL    HW139601  13.853   5.065   1.098
79256SOL    HW239602  13.894   5.098   0.956
79257SOL     OW39603  12.917   8.757  14.589
79257SOL    HW139604  12.874   8.839  14.610
79257SOL    HW239605  12.986   8.748  14.655
79258SOL     OW39606  12.887   0.015  14.170
79258SOL    HW139607  12.909  14.805  14.146
79258SOL    HW239608  12.955   0.069  14.129
79259SOL     OW39609   2.371  11.581  14.021
79259SOL    HW139610   2.291  11.530  14.029
79259SOL    HW239611   2.395  11.604  14.110
79260SOL     OW39612   4.242   3.944   8.117
79260SOL    HW139613   4.214   4.014   8.177
79260SOL    HW239614   4.240   3.865   8.171
79261SOL     OW39615   5.008   5.924   1.766
79261SOL    HW139616   4.969   5.900   1.849
79261SOL    HW239617   5.100   5.942   1.787
79262SOL     OW39618   3.279   2.165   7.904
79262SOL    HW139619   3.252   2.256   7.915
79262SOL    HW239620   3.373   2.166   7.922
79263SOL     OW39621   4.035   0.251   1.946
79263SOL    HW139622   4.046   0.285   2.034
79263SOL    HW239623   3.955   0.198   1.951
79264SOL     OW39624   6.498  13.166  14.432
79264SOL    HW139625   6.580  13.172  14.480
79264SOL    HW239626   6.482  13.072  14.422
79265SOL     OW39627  11.880   7.799   2.620
79265SOL    HW139628  11.958   7.824   2.569
79265SOL    HW239629  11.869   7.871   2.683
79266SOL     OW39630   2.743   2.559   5.463
79266SOL    HW139631   2.796   2.550   5.542
79266SOL    HW239632   2.655   2.534   5.491
79267SOL     OW39633   9.333  11.953   4.508
79267SOL    HW139634   9.249  11.911   4.489
79267SOL    HW239635   9.320  11.995   4.593
79268SOL     OW39636  10.801  11.835   9.138
79268SOL    HW139637  10.816  11.912   9.193
79268SOL    HW239638  10.719  11.855   9.093
79269SOL     OW39639   1.964   4.692  13.542
79269SOL    HW139640   1.972   4.597  13.540
79269SOL    HW239641   2.001   4.718  13.627
79270SOL     OW39642   9.412  10.711  10.329
79270SOL    HW139643   9.500  10.719  10.292
79270SOL    HW239644   9.367  10.791  10.302
79271SOL     OW39645   2.321   0.558  10.645
79271SOL    HW139646   2.229   0.586  10.649
79271SOL    HW239647   2.368   0.625  10.694
79272SOL     OW39648   7.646   5.752  13.826
79272SOL    HW139649   7.621   5.811  13.897
79272SOL    HW239650   7.571   5.753  13.766
79273SOL     OW39651  14.593  10.288   2.980
79273SOL    HW139652  14.644  10.216   3.017
79273SOL    HW239653  14.508  10.282   3.023
79274SOL     OW39654  12.740  13.162   3.605
79274SOL    HW139655  12.701  13.084   3.646
79274SOL    HW239656  12.684  13.234   3.634
79275SOL     OW39657   8.416  10.031  10.258
79275SOL    HW139658   8.432   9.951  10.308
79275SOL    HW239659   8.342  10.009  10.201
79276SOL     OW39660   4.718  14.766   8.948
79276SOL    HW139661   4.661  14.715   8.891
79276SOL    HW239662   4.789  14.706   8.971
79277SOL     OW39663  11.090  13.150  14.806
79277SOL    HW139664  11.124  13.082  14.749
79277SOL    HW239665  11.029  13.104  14.865
79278SOL     OW39666  12.095   4.462  10.248
79278SOL    HW139667  12.178   4.497  10.280
79278SOL    HW239668  12.110   4.448  10.154
79279SOL     OW39669   1.423   0.920  10.997
79279SOL    HW139670   1.355   0.898  11.060
79279SOL    HW239671   1.442   1.012  11.013
79280SOL     OW39672   7.424   5.566   7.138
79280SOL    HW139673   7.357   5.540   7.200
79280SOL    HW239674   7.495   5.503   7.153
79281SOL     OW39675   0.546   6.733   6.186
79281SOL    HW139676   0.573   6.755   6.097
79281SOL    HW239677   0.459   6.773   6.196
79282SOL     OW39678   0.518   4.248   8.774
79282SOL    HW139679   0.451   4.182   8.794
79282SOL    HW239680   0.468   4.326   8.749
79283SOL     OW39681  11.394   9.367   0.413
79283SOL    HW139682  11.435   9.417   0.343
79283SOL    HW239683  11.463   9.309   0.445
79284SOL     OW39684   5.006  12.554   0.398
79284SOL    HW139685   5.098  12.570   0.418
79284SOL    HW239686   4.977  12.491   0.464
79285SOL     OW39687   8.105  14.687   6.159
79285SOL    HW139688   8.091  14.775   6.126
79285SOL    HW239689   8.132  14.636   6.082
79286SOL     OW39690  12.535  11.959   3.016
79286SOL    HW139691  12.524  11.907   3.096
79286SOL    HW239692  12.493  12.043   3.036
79287SOL     OW39693  10.019  11.970  10.180
79287SOL    HW139694  10.088  11.925  10.132
79287SOL    HW239695  10.064  12.013  10.253
79288SOL     OW39696   9.826   7.906  10.588
79288SOL    HW139697   9.740   7.879  10.620
79288SOL    HW239698   9.807   7.960  10.511
79289SOL     OW39699   2.616   0.398   7.248
79289SOL    HW139700   2.708   0.374   7.255
79289SOL    HW239701   2.569   0.327   7.292
79290SOL     OW39702   6.395   3.490   4.532
79290SOL    HW139703   6.455   3.558   4.564
79290SOL    HW239704   6.415   3.414   4.586
79291SOL     OW39705   9.244  13.264  14.029
79291SOL    HW139706   9.222  13.283  14.120
79291SOL    HW239707   9.339  13.255  14.029
79292SOL     OW39708   2.187   2.664   3.384
79292SOL    HW139709   2.198   2.729   3.455
79292SOL    HW239710   2.156   2.585   3.429
79293SOL     OW39711   7.700   8.429  14.692
79293SOL    HW139712   7.785   8.465  14.718
79293SOL    HW239713   7.660   8.497  14.638
79294SOL     OW39714   4.122  14.579   8.635
79294SOL    HW139715   4.027  14.595   8.631
79294SOL    HW239716   4.160  14.666   8.641
79295SOL     OW39717   9.651   1.363  10.482
79295SOL    HW139718   9.567   1.386  10.522
79295SOL    HW239719   9.653   1.417  10.402
79296SOL     OW39720  13.186  12.616  14.492
79296SOL    HW139721  13.100  12.592  14.458
79296SOL    HW239722  13.249  12.580  14.429
79297SOL     OW39723  14.099   9.118   6.771
79297SOL    HW139724  14.184   9.154   6.796
79297SOL    HW239725  14.121   9.037   6.724
79298SOL     OW39726   9.252   7.755  14.810
79298SOL    HW139727   9.179   7.777  14.752
79298SOL    HW239728   9.211   7.713   0.007
79299SOL     OW39729  11.922   6.267  12.183
79299SOL    HW139730  11.981   6.306  12.248
79299SOL    HW239731  11.953   6.301  12.099
79300SOL     OW39732   5.771  11.746   0.931
79300SOL    HW139733   5.855  11.792   0.942
79300SOL    HW239734   5.756  11.702   1.014
79301SOL     OW39735  12.074   0.226   0.798
79301SOL    HW139736  12.169   0.217   0.793
79301SOL    HW239737  12.040   0.145   0.761
79302SOL     OW39738   0.801  12.232   4.595
79302SOL    HW139739   0.770  12.198   4.679
79302SOL    HW239740   0.860  12.303   4.619
79303SOL     OW39741  12.624  14.461   8.580
79303SOL    HW139742  12.664  14.377   8.560
79303SOL    HW239743  12.697  14.516   8.609
79304SOL     OW39744   8.533   0.936  13.799
79304SOL    HW139745   8.462   0.968  13.854
79304SOL    HW239746   8.608   0.928  13.858
79305SOL     OW39747   2.620  11.159   1.969
79305SOL    HW139748   2.690  11.128   2.026
79305SOL    HW239749   2.660  11.231   1.919
79306SOL     OW39750  12.128   9.613   8.707
79306SOL    HW139751  12.172   9.654   8.633
79306SOL    HW239752  12.041   9.651   8.708
79307SOL     OW39753  12.909   6.610  11.446
79307SOL    HW139754  12.919   6.675  11.376
79307SOL    HW239755  12.915   6.526  11.401
79308SOL     OW39756   2.019   5.496   5.227
79308SOL    HW139757   1.942   5.444   5.203
79308SOL    HW239758   2.083   5.431   5.258
79309SOL     OW39759  11.770   2.250   8.591
79309SOL    HW139760  11.728   2.332   8.568
79309SOL    HW239761  11.794   2.210   8.508
79310SOL     OW39762   7.074   2.660   3.840
79310SOL    HW139763   6.984   2.636   3.816
79310SOL    HW239764   7.065   2.696   3.929
79311SOL     OW39765   7.672   7.730   3.226
79311SOL    HW139766   7.590   7.777   3.214
79311SOL    HW239767   7.646   7.642   3.252
79312SOL     OW39768  11.019  10.735   2.434
79312SOL    HW139769  11.086  10.741   2.502
79312SOL    HW239770  11.011  10.824   2.400
79313SOL     OW39771  14.625  14.067  11.375
79313SOL    HW139772  14.693  14.012  11.336
79313SOL    HW239773  14.600  14.127  11.305
79314SOL     OW39774  13.726   0.711   7.108
79314SOL    HW139775  13.653   0.751   7.060
79314SOL    HW239776  13.690   0.692   7.194
79315SOL     OW39777   2.332   0.702   8.121
79315SOL    HW139778   2.300   0.766   8.185
79315SOL    HW239779   2.408   0.743   8.081
79316SOL     OW39780   4.232   9.359   3.718
79316SOL    HW139781   4.273   9.352   3.805
79316SOL    HW239782   4.138   9.362   3.736
79317SOL     OW39783   8.204  10.877  12.210
79317SOL    HW139784   8.122  10.914  12.178
79317SOL    HW239785   8.262  10.879  12.134
79318SOL     OW39786  11.202  11.291   8.023
79318SOL    HW139787  11.171  11.247   7.944
79318SOL    HW239788  11.134  11.356   8.042
79319SOL     OW39789   0.001  10.703  10.276
79319SOL    HW139790   0.031  10.667  10.193
79319SOL    HW239791  14.850  10.791  10.256
79320SOL     OW39792   9.538   4.630   6.367
79320SOL    HW139793   9.541   4.725   6.359
79320SOL    HW239794   9.609   4.598   6.312
79321SOL     OW39795   4.410  13.493   0.918
79321SOL    HW139796   4.458  13.469   0.997
79321SOL    HW239797   4.478  13.520   0.856
79322SOL     OW39798   9.913  14.769   3.377
79322SOL    HW139799   9.983  14.788   3.314
79322SOL    HW239800   9.918  14.675   3.391
79323SOL     OW39801   6.393  12.423  14.317
79323SOL    HW139802   6.414  12.398  14.227
79323SOL    HW239803   6.406  12.518  14.319
79324SOL     OW39804   0.347   0.573   5.151
79324SOL    HW139805   0.298   0.525   5.217
79324SOL    HW239806   0.354   0.662   5.185
79325SOL     OW39807   5.397   9.972   2.003
79325SOL    HW139808   5.390   9.946   1.911
79325SOL    HW239809   5.438   9.897   2.045
79326SOL     OW39810   3.716  12.339  14.525
79326SOL    HW139811   3.784  12.402  14.502
79326SOL    HW239812   3.706  12.350  14.620
79327SOL     OW39813   8.919   0.141   3.156
79327SOL    HW139814   8.848   0.116   3.215
79327SOL    HW239815   8.877   0.146   3.070
79328SOL     OW39816   7.564  11.438   6.386
79328SOL    HW139817   7.514  11.408   6.462
79328SOL    HW239818   7.511  11.509   6.349
79329SOL     OW39819  12.932   0.667  11.128
79329SOL    HW139820  12.842   0.641  11.105
79329SOL    HW239821  12.986   0.594  11.099
79330SOL     OW39822  13.636   5.630   0.516
79330SOL    HW139823  13.603   5.655   0.603
79330SOL    HW239824  13.730   5.619   0.530
79331SOL     OW39825   8.307   9.198   3.518
79331SOL    HW139826   8.222   9.218   3.481
79331SOL    HW239827   8.370   9.220   3.449
79332SOL     OW39828   3.792  14.558  11.322
79332SOL    HW139829   3.857  14.627  11.308
79332SOL    HW239830   3.772  14.526  11.234
79333SOL     OW39831   1.760   8.455  10.078
79333SOL    HW139832   1.737   8.510  10.153
79333SOL    HW239833   1.677   8.420  10.047
79334SOL     OW39834   2.934  13.898   7.736
79334SOL    HW139835   2.852  13.909   7.782
79334SOL    HW239836   2.944  13.978   7.684
79335SOL     OW39837   8.633   3.341   4.910
79335SOL    HW139838   8.702   3.291   4.866
79335SOL    HW239839   8.593   3.393   4.840
79336SOL     OW39840   1.777   0.874   0.462
79336SOL    HW139841   1.722   0.944   0.498
79336SOL    HW239842   1.724   0.795   0.470
79337SOL     OW39843   8.721   9.646  13.630
79337SOL    HW139844   8.683   9.702  13.563
79337SOL    HW239845   8.671   9.666  13.709
79338SOL     OW39846   6.288  11.194   5.826
79338SOL    HW139847   6.353  11.234   5.884
79338SOL    HW239848   6.229  11.147   5.886
79339SOL     OW39849  14.745   5.884   5.823
79339SOL    HW139850  14.690   5.868   5.746
79339SOL    HW239851  14.812   5.946   5.792
79340SOL     OW39852   2.150   2.399   6.726
79340SOL    HW139853   2.113   2.484   6.752
79340SOL    HW239854   2.152   2.402   6.631
79341SOL     OW39855   7.791   1.379  13.218
79341SOL    HW139856   7.755   1.337  13.140
79341SOL    HW239857   7.717   1.427  13.256
79342SOL     OW39858   6.670  13.993  11.214
79342SOL    HW139859   6.576  13.977  11.205
79342SOL    HW239860   6.708  13.907  11.231
79343SOL     OW39861   1.039   4.463  11.981
79343SOL    HW139862   1.076   4.506  11.904
79343SOL    HW239863   1.112   4.461  12.044
79344SOL     OW39864   3.031   9.170   7.082
79344SOL    HW139865   3.022   9.244   7.142
79344SOL    HW239866   3.097   9.114   7.123
79345SOL     OW39867   6.750   2.601   2.463
79345SOL    HW139868   6.708   2.626   2.380
79345SOL    HW239869   6.747   2.680   2.516
79346SOL     OW39870  11.441  10.429  10.375
79346SOL    HW139871  11.381  10.481  10.429
79346SOL    HW239872  11.442  10.475  10.291
79347SOL     OW39873   6.264   4.504   3.313
79347SOL    HW139874   6.223   4.590   3.305
79347SOL    HW239875   6.286   4.496   3.406
79348SOL     OW39876   8.573   3.072  11.366
79348SOL    HW139877   8.525   3.039  11.289
79348SOL    HW239878   8.522   3.040  11.441
79349SOL     OW39879   3.086   8.778  14.251
79349SOL    HW139880   3.049   8.763  14.164
79349SOL    HW239881   3.075   8.872  14.266
79350SOL     OW39882   2.119  10.694  10.233
79350SOL    HW139883   2.098  10.631  10.303
79350SOL    HW239884   2.120  10.641  10.153
79351SOL     OW39885   1.734   4.068  10.469
79351SOL    HW139886   1.779   3.983  10.475
79351SOL    HW239887   1.771   4.109  10.391
79352SOL     OW39888   9.721   6.605   3.242
79352SOL    HW139889   9.654   6.672   3.227
79352SOL    HW239890   9.798   6.655   3.271
79353SOL     OW39891   6.155   6.959   3.361
79353SOL    HW139892   6.103   6.938   3.283
79353SOL    HW239893   6.100   6.932   3.434
79354SOL     OW39894  13.118  14.798   7.865
79354SOL    HW139895  13.104  14.804   7.960
79354SOL    HW239896  13.121   0.010   7.836
79355SOL     OW39897  12.605   7.346   3.994
79355SOL    HW139898  12.509   7.344   3.995
79355SOL    HW239899  12.627   7.370   3.904
79356SOL     OW39900   0.755  10.776   0.848
79356SOL    HW139901   0.819  10.760   0.779
79356SOL    HW239902   0.692  10.704   0.840
79357SOL     OW39903   5.444   2.277   7.945
79357SOL    HW139904   5.366   2.258   7.892
79357SOL    HW239905   5.478   2.359   7.909
79358SOL     OW39906   9.660   6.099   5.755
79358SOL    HW139907   9.734   6.116   5.697
79358SOL    HW239908   9.583   6.115   5.701
79359SOL     OW39909  12.213  14.682   5.062
79359SOL    HW139910  12.276  14.676   4.990
79359SOL    HW239911  12.176  14.594   5.070
79360SOL     OW39912   4.208   0.682   7.099
79360SOL    HW139913   4.218   0.739   7.023
79360SOL    HW239914   4.224   0.740   7.174
79361SOL     OW39915  10.419   5.385  11.188
79361SOL    HW139916  10.404   5.343  11.273
79361SOL    HW239917  10.459   5.317  11.134
79362SOL     OW39918   7.421  14.665   9.041
79362SOL    HW139919   7.363  14.596   9.010
79362SOL    HW239920   7.448  14.637   9.128
79363SOL     OW39921   4.698  13.567   4.037
79363SOL    HW139922   4.657  13.652   4.051
79363SOL    HW239923   4.629  13.503   4.053
79364SOL     OW39924   4.439  14.258  12.492
79364SOL    HW139925   4.383  14.259  12.570
79364SOL    HW239926   4.528  14.265  12.526
79365SOL     OW39927   5.248   0.978   5.867
79365SOL    HW139928   5.200   1.037   5.809
79365SOL    HW239929   5.265   1.029   5.945
79366SOL     OW39930  14.469   1.717  12.137
79366SOL    HW139931  14.414   1.659  12.085
79366SOL    HW239932  14.480   1.671  12.220
79367SOL     OW39933  11.734   7.674   9.631
79367SOL    HW139934  11.785   7.642   9.557
79367SOL    HW239935  11.799   7.715   9.689
79368SOL     OW39936   3.649   0.267   8.085
79368SOL    HW139937   3.581   0.199   8.088
79368SOL    HW239938   3.660   0.293   8.176
79369SOL     OW39939   6.270   4.959   9.512
79369SOL    HW139940   6.304   4.999   9.592
79369SOL    HW239941   6.287   5.024   9.444
79370SOL     OW39942  14.712   2.096   3.767
79370SOL    HW139943  14.686   2.178   3.726
79370SOL    HW239944  14.689   2.029   3.702
79371SOL     OW39945   7.836   2.083   1.670
79371SOL    HW139946   7.748   2.116   1.652
79371SOL    HW239947   7.881   2.156   1.713
79372SOL     OW39948  13.388   9.001  11.194
79372SOL    HW139949  13.453   9.067  11.168
79372SOL    HW239950  13.308   9.029  11.150
79373SOL     OW39951  13.374   2.561   9.678
79373SOL    HW139952  13.379   2.609   9.596
79373SOL    HW239953  13.286   2.521   9.677
79374SOL     OW39954  13.112  13.436   5.806
79374SOL    HW139955  13.075  13.406   5.889
79374SOL    HW239956  13.050  13.405   5.740
79375SOL     OW39957  13.193  11.743   8.277
79375SOL    HW139958  13.264  11.758   8.214
79375SOL    HW239959  13.182  11.648   8.279
79376SOL     OW39960   7.969  13.400   2.731
79376SOL    HW139961   7.965  13.390   2.826
79376SOL    HW239962   8.057  13.434   2.714
79377SOL     OW39963  10.804  14.775   3.895
79377SOL    HW139964  10.747  14.828   3.840
79377SOL    HW239965  10.837  14.707   3.836
79378SOL     OW39966  12.219   0.336   9.124
79378SOL    HW139967  12.251   0.266   9.067
79378SOL    HW239968  12.208   0.411   9.065
79379SOL     OW39969  12.895   5.193   7.162
79379SOL    HW139970  12.812   5.197   7.210
79379SOL    HW239971  12.954   5.250   7.210
79380SOL     OW39972  14.012   0.010   4.618
79380SOL    HW139973  14.102   0.006   4.653
79380SOL    HW239974  13.975   0.089   4.659
79381SOL     OW39975   1.658  14.466  11.732
79381SOL    HW139976   1.680  14.421  11.650
79381SOL    HW239977   1.569  14.437  11.752
79382SOL     OW39978   0.007  10.897   7.264
79382SOL    HW139979   0.045  10.954   7.197
79382SOL    HW239980   0.034  10.809   7.238
79383SOL     OW39981  13.307   9.349   9.822
79383SOL    HW139982  13.377   9.357   9.758
79383SOL    HW239983  13.295   9.255   9.834
79384SOL     OW39984  11.442  13.717   2.481
79384SOL    HW139985  11.516  13.762   2.441
79384SOL    HW239986  11.474  13.629   2.498
79385SOL     OW39987  10.218   7.007  12.673
79385SOL    HW139988  10.188   6.978  12.586
79385SOL    HW239989  10.217   6.927  12.725
79386SOL     OW39990  11.394  14.037  12.064
79386SOL    HW139991  11.350  13.967  12.113
79386SOL    HW239992  11.363  14.118  12.105
79387SOL     OW39993   6.820   5.857   0.877
79387SOL    HW139994   6.750   5.856   0.811
79387SOL    HW239995   6.780   5.818   0.955
79388SOL     OW39996  14.723   8.634  11.078
79388SOL    HW139997  14.722   8.540  11.096
79388SOL    HW239998  14.649   8.648  11.019
79389SOL     OW39999  12.188  11.937  10.977
79389SOL    HW140000  12.155  11.851  11.001
79389SOL    HW240001  12.280  11.922  10.954
79390SOL     OW40002   9.018   0.350  10.187
79390SOL    HW140003   8.965   0.290  10.135
79390SOL    HW240004   8.954   0.397  10.241
79391SOL     OW40005  12.970   4.757   3.229
79391SOL    HW140006  13.034   4.722   3.168
79391SOL    HW240007  12.897   4.785   3.173
79392SOL     OW40008   2.132   8.136  10.815
79392SOL    HW140009   2.042   8.106  10.830
79392SOL    HW240010   2.169   8.070  10.756
79393SOL     OW40011   2.237   7.963   2.003
79393SOL    HW140012   2.316   7.968   2.057
79393SOL    HW240013   2.181   7.899   2.047
79394SOL     OW40014  10.668   3.552   7.961
79394SOL    HW140015  10.604   3.598   7.906
79394SOL    HW240016  10.703   3.619   8.019
79395SOL     OW40017   0.720   7.728   4.969
79395SOL    HW140018   0.755   7.791   5.032
79395SOL    HW240019   0.684   7.782   4.899
79396SOL     OW40020  10.743  10.949   0.106
79396SOL    HW140021  10.716  10.858   0.093
79396SOL    HW240022  10.795  10.947   0.186
79397SOL     OW40023  10.124   3.974   9.932
79397SOL    HW140024  10.130   3.968  10.027
79397SOL    HW240025  10.214   3.979   9.902
79398SOL     OW40026   7.965   0.799   3.993
79398SOL    HW140027   8.024   0.730   3.960
79398SOL    HW240028   8.014   0.880   3.980
79399SOL     OW40029   6.765   7.382  14.135
79399SOL    HW140030   6.721   7.298  14.145
79399SOL    HW240031   6.840   7.363  14.078
79400SOL     OW40032  14.200   2.339   1.536
79400SOL    HW140033  14.147   2.355   1.614
79400SOL    HW240034  14.146   2.370   1.463
79401SOL     OW40035   8.288   6.253   1.341
79401SOL    HW140036   8.370   6.234   1.296
79401SOL    HW240037   8.284   6.348   1.345
79402SOL     OW40038   2.404   9.611   3.990
79402SOL    HW140039   2.476   9.671   4.010
79402SOL    HW240040   2.327   9.651   4.031
79403SOL     OW40041  11.576  13.855   8.114
79403SOL    HW140042  11.662  13.880   8.147
79403SOL    HW240043  11.516  13.875   8.185
79404SOL     OW40044   0.844   4.637  13.711
79404SOL    HW140045   0.767   4.652  13.766
79404SOL    HW240046   0.840   4.543  13.690
79405SOL     OW40047   2.240   8.447   0.228
79405SOL    HW140048   2.215   8.536   0.253
79405SOL    HW240049   2.215   8.440   0.136
79406SOL     OW40050   3.290   8.399   8.960
79406SOL    HW140051   3.322   8.482   8.996
79406SOL    HW240052   3.332   8.332   9.013
79407SOL     OW40053  13.726  10.999  11.675
79407SOL    HW140054  13.803  11.000  11.731
79407SOL    HW240055  13.666  11.061  11.716
79408SOL     OW40056   0.003   2.101  10.838
79408SOL    HW140057  14.836   2.117  10.921
79408SOL    HW240058  14.834   2.030  10.797
79409SOL     OW40059   8.809   7.651   9.936
79409SOL    HW140060   8.764   7.576   9.975
79409SOL    HW240061   8.741   7.718   9.929
79410SOL     OW40062   1.029  12.498   8.501
79410SOL    HW140063   1.017  12.551   8.580
79410SOL    HW240064   0.993  12.551   8.431
79411SOL     OW40065  11.082   2.341   6.292
79411SOL    HW140066  11.156   2.397   6.267
79411SOL    HW240067  11.065   2.288   6.215
79412SOL     OW40068  12.867  13.879  11.239
79412SOL    HW140069  12.815  13.959  11.240
79412SOL    HW240070  12.834  13.829  11.164
79413SOL     OW40071  12.009   6.073   3.255
79413SOL    HW140072  11.952   6.110   3.188
79413SOL    HW240073  12.032   5.987   3.222
79414SOL     OW40074   3.437  14.753  13.953
79414SOL    HW140075   3.438  14.734  14.047
79414SOL    HW240076   3.400  14.842  13.947
79415SOL     OW40077  14.256   1.113   9.041
79415SOL    HW140078  14.248   1.082   9.131
79415SOL    HW240079  14.166   1.134   9.015
79416SOL     OW40080   8.590  12.772   0.781
79416SOL    HW140081   8.564  12.837   0.845
79416SOL    HW240082   8.686  12.779   0.778
79417SOL     OW40083   8.679  12.020   5.448
79417SOL    HW140084   8.589  11.990   5.436
79417SOL    HW240085   8.691  12.025   5.543
79418SOL     OW40086  11.014   4.139   3.089
79418SOL    HW140087  10.922   4.157   3.074
79418SOL    HW240088  11.044   4.210   3.146
79419SOL     OW40089   2.470   0.357  14.518
79419SOL    HW140090   2.528   0.428  14.544
79419SOL    HW240091   2.490   0.286  14.580
79420SOL     OW40092   0.414  11.181  11.595
79420SOL    HW140093   0.398  11.110  11.532
79420SOL    HW240094   0.489  11.151  11.647
79421SOL     OW40095   8.024  12.032   1.604
79421SOL    HW140096   8.000  11.969   1.537
79421SOL    HW240097   8.116  12.012   1.623
79422SOL     OW40098   8.486   6.850  11.237
79422SOL    HW140099   8.534   6.769  11.220
79422SOL    HW240100   8.493   6.900  11.156
79423SOL     OW40101  12.984   3.171   6.633
79423SOL    HW140102  12.996   3.262   6.659
79423SOL    HW240103  12.894   3.167   6.600
79424SOL     OW40104   1.416   4.010  13.042
79424SOL    HW140105   1.396   3.952  12.969
79424SOL    HW240106   1.423   4.097  13.003
79425SOL     OW40107   5.708   1.058  11.551
79425SOL    HW140108   5.710   0.983  11.611
79425SOL    HW240109   5.777   1.116  11.582
79426SOL     OW40110   7.151  14.737   7.649
79426SOL    HW140111   7.187  14.774   7.568
79426SOL    HW240112   7.226  14.725   7.706
79427SOL     OW40113   5.858  14.835  14.640
79427SOL    HW140114   5.763  14.840  14.649
79427SOL    HW240115   5.889  14.810  14.727
79428SOL     OW40116   9.296   1.271   4.407
79428SOL    HW140117   9.336   1.185   4.391
79428SOL    HW240118   9.257   1.264   4.494
79429SOL     OW40119  10.290   9.425   6.067
79429SOL    HW140120  10.301   9.455   5.976
79429SOL    HW240121  10.196   9.411   6.077
79430SOL     OW40122   6.580   4.482   3.008
79430SOL    HW140123   6.624   4.566   3.020
79430SOL    HW240124   6.488   4.504   2.997
79431SOL     OW40125  12.020   2.412   1.257
79431SOL    HW140126  11.993   2.500   1.283
79431SOL    HW240127  12.100   2.425   1.206
79432SOL     OW40128   5.568  13.614  11.192
79432SOL    HW140129   5.538  13.703  11.214
79432SOL    HW240130   5.576  13.614  11.097
79433SOL     OW40131   7.007   8.786  14.229
79433SOL    HW140132   7.065   8.753  14.298
79433SOL    HW240133   7.059   8.781  14.150
79434SOL     OW40134   0.257  12.743   6.215
79434SOL    HW140135   0.287  12.808   6.279
79434SOL    HW240136   0.212  12.677   6.267
79435SOL     OW40137   1.117  12.992  10.125
79435SOL    HW140138   1.126  13.004  10.031
79435SOL    HW240139   1.038  12.938  10.135
79436SOL     OW40140   2.300   0.507   4.480
79436SOL    HW140141   2.343   0.479   4.561
79436SOL    HW240142   2.208   0.482   4.491
79437SOL     OW40143   1.929  10.044  10.744
79437SOL    HW140144   1.948   9.994  10.823
79437SOL    HW240145   1.880  10.120  10.775
79438SOL     OW40146  13.040   2.924  12.192
79438SOL    HW140147  13.013   2.918  12.283
79438SOL    HW240148  13.023   2.837  12.156
79439SOL     OW40149   5.543   1.418   3.117
79439SOL    HW140150   5.579   1.489   3.064
79439SOL    HW240151   5.448   1.427   3.108
79440SOL     OW40152   6.358  12.499   5.682
79440SOL    HW140153   6.282  12.480   5.737
79440SOL    HW240154   6.335  12.463   5.596
79441SOL     OW40155   7.434   4.834   7.670
79441SOL    HW140156   7.492   4.910   7.672
79441SOL    HW240157   7.355   4.863   7.714
79442SOL     OW40158   8.807   5.739  11.914
79442SOL    HW140159   8.750   5.701  11.847
79442SOL    HW240160   8.748   5.757  11.987
79443SOL     OW40161   3.174  14.608   4.118
79443SOL    HW140162   3.159  14.520   4.084
79443SOL    HW240163   3.131  14.666   4.056
79444SOL     OW40164   6.642   8.107  12.766
79444SOL    HW140165   6.592   8.103  12.848
79444SOL    HW240166   6.576   8.099  12.697
79445SOL     OW40167   7.511   3.464  13.179
79445SOL    HW140168   7.458   3.387  13.158
79445SOL    HW240169   7.589   3.429  13.221
79446SOL     OW40170  12.903   3.572  13.908
79446SOL    HW140171  12.832   3.539  13.853
79446SOL    HW240172  12.860   3.631  13.970
79447SOL     OW40173   2.401   0.411  13.260
79447SOL    HW140174   2.468   0.479  13.258
79447SOL    HW240175   2.444   0.336  13.301
79448SOL     OW40176   1.440   1.354   5.761
79448SOL    HW140177   1.450   1.356   5.665
79448SOL    HW240178   1.528   1.345   5.795
79449SOL     OW40179  13.600  14.156  11.768
79449SOL    HW140180  13.695  14.160  11.758
79449SOL    HW240181  13.566  14.168  11.680
79450SOL     OW40182   6.894  11.664   3.282
79450SOL    HW140183   6.802  11.674   3.259
79450SOL    HW240184   6.899  11.688   3.374
79451SOL     OW40185  12.107   2.690   5.530
79451SOL    HW140186  12.040   2.756   5.546
79451SOL    HW240187  12.127   2.654   5.616
79452SOL     OW40188   3.873   0.506  14.368
79452SOL    HW140189   3.883   0.517  14.274
79452SOL    HW240190   3.822   0.426  14.378
79453SOL     OW40191   1.294   6.892   6.088
79453SOL    HW140192   1.304   6.981   6.053
79453SOL    HW240193   1.202   6.887   6.115
79454SOL     OW40194   7.682   4.248   1.455
79454SOL    HW140195   7.700   4.342   1.456
79454SOL    HW240196   7.741   4.213   1.388
79455SOL     OW40197  13.102   1.154  10.733
79455SOL    HW140198  13.033   1.215  10.709
79455SOL    HW240199  13.106   1.157  10.828
79456SOL     OW40200   3.707  11.716   5.545
79456SOL    HW140201   3.800  11.702   5.526
79456SOL    HW240202   3.701  11.806   5.574
79457SOL     OW40203  10.138  12.904   8.632
79457SOL    HW140204  10.141  12.980   8.573
79457SOL    HW240205  10.057  12.916   8.681
79458SOL     OW40206   3.403   9.655   2.160
79458SOL    HW140207   3.484   9.618   2.125
79458SOL    HW240208   3.343   9.656   2.086
79459SOL     OW40209   2.915   6.970  13.127
79459SOL    HW140210   2.930   6.895  13.070
79459SOL    HW240211   2.990   7.028  13.111
79460SOL     OW40212   5.157  12.169   4.955
79460SOL    HW140213   5.081  12.185   4.899
79460SOL    HW240214   5.215  12.115   4.902
79461SOL     OW40215  13.023  11.595  14.103
79461SOL    HW140216  13.027  11.685  14.070
79461SOL    HW240217  12.989  11.544  14.030
79462SOL     OW40218   2.153  11.957  11.675
79462SOL    HW140219   2.241  11.956  11.713
79462SOL    HW240220   2.148  11.878  11.623
79463SOL     OW40221   5.318   2.163   0.199
79463SOL    HW140222   5.224   2.162   0.216
79463SOL    HW240223   5.354   2.095   0.256
79464SOL     OW40224  13.289  10.994  12.666
79464SOL    HW140225  13.299  10.945  12.585
79464SOL    HW240226  13.194  11.000  12.678
79465SOL     OW40227  13.279  14.233   0.379
79465SOL    HW140228  13.271  14.138   0.388
79465SOL    HW240229  13.301  14.246   0.286
79466SOL     OW40230  13.544   7.397   7.587
79466SOL    HW140231  13.542   7.473   7.646
79466SOL    HW240232  13.629   7.403   7.544
79467SOL     OW40233  11.293   3.602   1.585
79467SOL    HW140234  11.263   3.561   1.504
79467SOL    HW240235  11.386   3.579   1.591
79468SOL     OW40236  11.059  10.728  13.350
79468SOL    HW140237  11.111  10.795  13.394
79468SOL    HW240238  11.055  10.756  13.259
79469SOL     OW40239  12.160   2.425  10.271
79469SOL    HW140240  12.116   2.389  10.348
79469SOL    HW240241  12.248   2.445  10.302
79470SOL     OW40242   4.641  14.856  12.019
79470SOL    HW140243   4.721  14.874  12.069
79470SOL    HW240244   4.606  14.776  12.058
79471SOL     OW40245   9.427   8.752   6.340
79471SOL    HW140246   9.515   8.789   6.328
79471SOL    HW240247   9.373   8.827   6.364
79472SOL     OW40248   9.027   2.922  13.636
79472SOL    HW140249   9.088   2.849  13.645
79472SOL    HW240250   9.015   2.932  13.541
79473SOL     OW40251   3.306   1.695   3.644
79473SOL    HW140252   3.371   1.749   3.688
79473SOL    HW240253   3.343   1.607   3.644
79474SOL     OW40254   8.904  11.494  10.373
79474SOL    HW140255   8.903  11.570  10.315
79474SOL    HW240256   8.992  11.492  10.409
79475SOL     OW40257   4.120   1.591   4.424
79475SOL    HW140258   4.191   1.649   4.453
79475SOL    HW240259   4.070   1.643   4.362
79476SOL     OW40260   4.497   4.934   2.645
79476SOL    HW140261   4.450   5.017   2.632
79476SOL    HW240262   4.565   4.934   2.577
79477SOL     OW40263  13.429   8.810  11.568
79477SOL    HW140264  13.478   8.777  11.493
79477SOL    HW240265  13.372   8.877  11.532
79478SOL     OW40266  11.734  13.323   3.590
79478SOL    HW140267  11.739  13.228   3.583
79478SOL    HW240268  11.704  13.339   3.680
79479SOL     OW40269   3.482  11.944  12.607
79479SOL    HW140270   3.513  11.994  12.682
79479SOL    HW240271   3.416  12.001  12.566
79480SOL     OW40272   1.268  10.821   1.785
79480SOL    HW140273   1.212  10.870   1.726
79480SOL    HW240274   1.353  10.816   1.740
79481SOL     OW40275   8.539   5.020   9.324
79481SOL    HW140276   8.450   4.990   9.306
79481SOL    HW240277   8.583   4.944   9.361
79482SOL     OW40278   8.204   7.755   1.367
79482SOL    HW140279   8.150   7.830   1.393
79482SOL    HW240280   8.283   7.763   1.420
79483SOL     OW40281   1.531   2.728   4.985
79483SOL    HW140282   1.576   2.810   4.965
79483SOL    HW240283   1.534   2.722   5.080
79484SOL     OW40284  13.934  13.699  10.472
79484SOL    HW140285  13.994  13.774  10.466
79484SOL    HW240286  13.971  13.635  10.411
79485SOL     OW40287  10.585   2.314   4.778
79485SOL    HW140288  10.616   2.242   4.724
79485SOL    HW240289  10.540   2.373   4.717
79486SOL     OW40290   5.988   3.244   4.131
79486SOL    HW140291   5.913   3.241   4.071
79486SOL    HW240292   6.061   3.271   4.076
79487SOL     OW40293   5.869   6.841   6.760
79487SOL    HW140294   5.938   6.774   6.760
79487SOL    HW240295   5.788   6.791   6.765
79488SOL     OW40296   9.589  10.726   1.607
79488SOL    HW140297   9.663  10.697   1.661
79488SOL    HW240298   9.530  10.650   1.605
79489SOL     OW40299  12.580   4.462  11.519
79489SOL    HW140300  12.591   4.549  11.479
79489SOL    HW240301  12.526   4.414  11.456
79490SOL     OW40302   3.132   3.749  14.721
79490SOL    HW140303   3.086   3.784  14.797
79490SOL    HW240304   3.097   3.661  14.710
79491SOL     OW40305   1.310  11.149   8.329
79491SOL    HW140306   1.374  11.124   8.396
79491SOL    HW240307   1.334  11.239   8.306
79492SOL     OW40308  11.240  10.260  14.313
79492SOL    HW140309  11.169  10.318  14.286
79492SOL    HW240310  11.268  10.217  14.232
79493SOL     OW40311   0.260   7.393   5.096
79493SOL    HW140312   0.295   7.311   5.062
79493SOL    HW240313   0.188   7.367   5.153
79494SOL     OW40314   0.735   7.467   0.297
79494SOL    HW140315   0.825   7.469   0.332
79494SOL    HW240316   0.706   7.377   0.311
79495SOL     OW40317  10.472  12.806   9.425
79495SOL    HW140318  10.477  12.756   9.343
79495SOL    HW240319  10.378  12.811   9.444
79496SOL     OW40320   5.232   9.374  11.844
79496SOL    HW140321   5.304   9.425  11.806
79496SOL    HW240322   5.190   9.433  11.905
79497SOL     OW40323   7.368   5.985   7.850
79497SOL    HW140324   7.395   5.976   7.759
79497SOL    HW240325   7.450   5.990   7.900
79498SOL     OW40326  11.989  11.685   7.209
79498SOL    HW140327  12.026  11.678   7.297
79498SOL    HW240328  11.909  11.736   7.221
79499SOL     OW40329   4.574   9.599  11.092
79499SOL    HW140330   4.608   9.565  11.010
79499SOL    HW240331   4.630   9.561  11.159
79500SOL     OW40332   3.354   0.360  12.137
79500SOL    HW140333   3.310   0.275  12.125
79500SOL    HW240334   3.439   0.338  12.175
79501SOL     OW40335  10.569  14.292  10.153
79501SOL    HW140336  10.649  14.273  10.104
79501SOL    HW240337  10.521  14.210  10.154
79502SOL     OW40338  11.938   3.734  14.037
79502SOL    HW140339  11.890   3.817  14.028
79502SOL    HW240340  11.993   3.747  14.114
79503SOL     OW40341  14.528   3.810  10.260
79503SOL    HW140342  14.490   3.897  10.272
79503SOL    HW240343  14.569   3.790  10.344
79504SOL     OW40344  11.157  13.624   2.607
79504SOL    HW140345  11.219  13.554   2.592
79504SOL    HW240346  11.169  13.684   2.533
79505SOL     OW40347   5.802  10.199   2.940
79505SOL    HW140348   5.764  10.133   2.882
79505SOL    HW240349   5.734  10.216   3.005
79506SOL     OW40350   2.113  12.354   7.769
79506SOL    HW140351   2.097  12.342   7.863
79506SOL    HW240352   2.183  12.419   7.765
79507SOL     OW40353   6.268   2.407  11.042
79507SOL    HW140354   6.346   2.353  11.023
79507SOL    HW240355   6.296   2.464  11.114
79508SOL     OW40356   4.130   7.032  11.623
79508SOL    HW140357   4.192   6.972  11.666
79508SOL    HW240358   4.185   7.101  11.586
79509SOL     OW40359   4.027  14.487  12.458
79509SOL    HW140360   3.977  14.506  12.537
79509SOL    HW240361   4.114  14.523  12.476
79510SOL     OW40362  10.510   5.205  12.180
79510SOL    HW140363  10.564   5.155  12.120
79510SOL    HW240364  10.464   5.269  12.124
79511SOL     OW40365   0.895   1.715   3.596
79511SOL    HW140366   0.879   1.752   3.509
79511SOL    HW240367   0.990   1.707   3.601
79512SOL     OW40368  10.155   6.893  12.435
79512SOL    HW140369  10.174   6.801  12.415
79512SOL    HW240370  10.193   6.942  12.362
79513SOL     OW40371  11.904   4.117   5.707
79513SOL    HW140372  11.855   4.157   5.635
79513SOL    HW240373  11.969   4.063   5.664
79514SOL     OW40374  11.834  14.385   6.071
79514SOL    HW140375  11.832  14.481   6.069
79514SOL    HW240376  11.923  14.364   6.099
79515SOL     OW40377   2.611   0.891  11.015
79515SOL    HW140378   2.574   0.927  10.934
79515SOL    HW240379   2.618   0.797  11.000
79516SOL     OW40380   4.903   8.446   6.886
79516SOL    HW140381   4.975   8.509   6.891
79516SOL    HW240382   4.938   8.366   6.926
79517SOL     OW40383  13.174   0.847   0.679
79517SOL    HW140384  13.253   0.888   0.714
79517SOL    HW240385  13.106   0.863   0.745
79518SOL     OW40386   7.394  14.060  13.325
79518SOL    HW140387   7.384  13.981  13.377
79518SOL    HW240388   7.462  14.110  13.371
79519SOL     OW40389   3.795   2.600  14.133
79519SOL    HW140390   3.757   2.513  14.149
79519SOL    HW240391   3.727   2.661  14.160
79520SOL     OW40392   2.517  11.386  10.690
79520SOL    HW140393   2.544  11.402  10.780
79520SOL    HW240394   2.425  11.362  10.696
79521SOL     OW40395  13.003   3.537  11.780
79521SOL    HW140396  13.062   3.546  11.705
79521SOL    HW240397  12.919   3.569  11.748
79522SOL     OW40398  10.943  12.558   5.674
79522SOL    HW140399  10.866  12.501   5.679
79522SOL    HW240400  10.964  12.578   5.765
79523SOL     OW40401   4.651  10.769  14.824
79523SOL    HW140402   4.739  10.803  14.804
79523SOL    HW240403   4.646  10.770   0.040
79524SOL     OW40404  12.375   4.464   1.211
79524SOL    HW140405  12.463   4.490   1.241
79524SOL    HW240406  12.351   4.530   1.147
79525SOL     OW40407   4.537   0.400   7.162
79525SOL    HW140408   4.595   0.435   7.230
79525SOL    HW240409   4.597   0.369   7.094
79526SOL     OW40410  11.146   6.614   3.443
79526SOL    HW140411  11.188   6.555   3.381
79526SOL    HW240412  11.198   6.607   3.523
79527SOL     OW40413   9.297   7.705   7.846
79527SOL    HW140414   9.345   7.780   7.812
79527SOL    HW240415   9.346   7.629   7.813
79528SOL     OW40416  11.132  10.411   8.760
79528SOL    HW140417  11.180  10.333   8.790
79528SOL    HW240418  11.040  10.387   8.772
79529SOL     OW40419  10.949  13.063   5.496
79529SOL    HW140420  10.973  12.970   5.493
79529SOL    HW240421  10.870  13.065   5.551
79530SOL     OW40422  11.341   4.760   5.743
79530SOL    HW140423  11.334   4.853   5.723
79530SOL    HW240424  11.251   4.732   5.758
79531SOL     OW40425   0.430  10.632   2.043
79531SOL    HW140426   0.443  10.610   2.136
79531SOL    HW240427   0.463  10.722   2.035
79532SOL     OW40428  11.003   6.693  10.835
79532SOL    HW140429  11.003   6.608  10.791
79532SOL    HW240430  10.974   6.674  10.924
79533SOL     OW40431   9.435   0.783  11.642
79533SOL    HW140432   9.491   0.861  11.643
79533SOL    HW240433   9.415   0.766  11.734
79534SOL     OW40434   3.421   5.481  12.594
79534SOL    HW140435   3.455   5.394  12.616
79534SOL    HW240436   3.484   5.515  12.530
79535SOL     OW40437   2.634  13.673   3.370
79535SOL    HW140438   2.567  13.703   3.432
79535SOL    HW240439   2.658  13.585   3.402
79536SOL     OW40440   1.913   6.230   2.883
79536SOL    HW140441   1.853   6.250   2.811
79536SOL    HW240442   1.940   6.140   2.867
79537SOL     OW40443   4.166   9.710  12.439
79537SOL    HW140444   4.182   9.688  12.531
79537SOL    HW240445   4.090   9.658  12.415
79538SOL     OW40446   6.703   3.300   2.180
79538SOL    HW140447   6.745   3.342   2.105
79538SOL    HW240448   6.634   3.246   2.141
79539SOL     OW40449   6.602   5.294  14.037
79539SOL    HW140450   6.590   5.314  14.129
79539SOL    HW240451   6.610   5.199  14.034
79540SOL     OW40452  10.498  14.183   8.559
79540SOL    HW140453  10.486  14.201   8.466
79540SOL    HW240454  10.562  14.248   8.588
79541SOL     OW40455   1.047   5.587   6.734
79541SOL    HW140456   1.061   5.584   6.828
79541SOL    HW240457   1.061   5.497   6.704
79542SOL     OW40458  12.326  12.303  11.570
79542SOL    HW140459  12.338  12.397  11.583
79542SOL    HW240460  12.231  12.291  11.576
79543SOL     OW40461   7.293  12.949  14.401
79543SOL    HW140462   7.316  12.856  14.401
79543SOL    HW240463   7.297  12.975  14.309
79544SOL     OW40464  10.591  13.915   9.148
79544SOL    HW140465  10.598  13.915   9.052
79544SOL    HW240466  10.603  13.823   9.173
79545SOL     OW40467   2.405   4.011   7.419
79545SOL    HW140468   2.478   4.067   7.394
79545SOL    HW240469   2.345   4.070   7.465
79546SOL     OW40470   3.026   3.729   4.877
79546SOL    HW140471   3.056   3.640   4.856
79546SOL    HW240472   3.060   3.746   4.964
79547SOL     OW40473   1.891   8.957   0.519
79547SOL    HW140474   1.832   8.990   0.451
79547SOL    HW240475   1.934   9.036   0.553
79548SOL     OW40476   7.619  14.475  12.372
79548SOL    HW140477   7.534  14.516  12.385
79548SOL    HW240478   7.681  14.548  12.373
79549SOL     OW40479  14.118  12.259   5.100
79549SOL    HW140480  14.022  12.260   5.103
79549SOL    HW240481  14.140  12.166   5.101
79550SOL     OW40482   5.568  12.046   9.240
79550SOL    HW140483   5.553  12.124   9.186
79550SOL    HW240484   5.538  11.973   9.184
79551SOL     OW40485   0.637   3.810  10.964
79551SOL    HW140486   0.727   3.840  10.954
79551SOL    HW240487   0.644   3.730  11.015
79552SOL     OW40488   8.986  10.358   8.257
79552SOL    HW140489   9.012  10.399   8.174
79552SOL    HW240490   8.940  10.427   8.305
79553SOL     OW40491  10.970  10.194   4.854
79553SOL    HW140492  10.964  10.142   4.934
79553SOL    HW240493  11.064  10.201   4.836
79554SOL     OW40494   7.058   5.326   0.416
79554SOL    HW140495   7.002   5.326   0.493
79554SOL    HW240496   7.022   5.395   0.360
79555SOL     OW40497   4.326  10.186   1.328
79555SOL    HW140498   4.265  10.125   1.370
79555SOL    HW240499   4.327  10.160   1.236
79556SOL     OW40500   0.631  12.705  12.373
79556SOL    HW140501   0.644  12.743  12.460
79556SOL    HW240502   0.679  12.622  12.375
79557SOL     OW40503   2.415   9.404  13.418
79557SOL    HW140504   2.350   9.456  13.464
79557SOL    HW240505   2.461   9.357  13.487
79558SOL     OW40506   4.209   6.594   1.559
79558SOL    HW140507   4.177   6.504   1.564
79558SOL    HW240508   4.291   6.593   1.609
79559SOL     OW40509  10.251   5.145   0.999
79559SOL    HW140510  10.292   5.099   0.926
79559SOL    HW240511  10.280   5.096   1.077
79560SOL     OW40512  11.255   3.639   2.552
79560SOL    HW140513  11.331   3.605   2.505
79560SOL    HW240514  11.204   3.684   2.485
79561SOL     OW40515  11.217   9.890   9.410
79561SOL    HW140516  11.193   9.966   9.357
79561SOL    HW240517  11.255   9.828   9.347
79562SOL     OW40518   5.496  11.433   3.817
79562SOL    HW140519   5.455  11.358   3.775
79562SOL    HW240520   5.428  11.469   3.874
79563SOL     OW40521   1.337  12.202   8.242
79563SOL    HW140522   1.404  12.180   8.307
79563SOL    HW240523   1.365  12.156   8.162
79564SOL     OW40524   2.774  10.109   3.364
79564SOL    HW140525   2.797  10.147   3.280
79564SOL    HW240526   2.841  10.142   3.424
79565SOL     OW40527   9.791   6.421  11.251
79565SOL    HW140528   9.781   6.465  11.335
79565SOL    HW240529   9.734   6.344  11.257
79566SOL     OW40530   9.308  10.617  14.050
79566SOL    HW140531   9.403  10.621  14.053
79566SOL    HW240532   9.279  10.706  14.069
79567SOL     OW40533  12.866  13.609   8.575
79567SOL    HW140534  12.891  13.633   8.485
79567SOL    HW240535  12.831  13.521   8.568
79568SOL     OW40536   9.705   8.025  12.272
79568SOL    HW140537   9.641   8.096  12.277
79568SOL    HW240538   9.741   8.032  12.184
79569SOL     OW40539   0.609   6.761   7.365
79569SOL    HW140540   0.658   6.789   7.288
79569SOL    HW240541   0.518   6.785   7.346
79570SOL     OW40542   6.112   7.050   4.455
79570SOL    HW140543   6.023   7.043   4.488
79570SOL    HW240544   6.117   7.139   4.420
79571SOL     OW40545  10.032  14.482  11.085
79571SOL    HW140546   9.998  14.408  11.035
79571SOL    HW240547  10.072  14.443  11.162
79572SOL     OW40548  11.567  12.771  11.514
79572SOL    HW140549  11.510  12.846  11.496
79572SOL    HW240550  11.508  12.695  11.511
79573SOL     OW40551   2.554  14.196  13.582
79573SOL    HW140552   2.648  14.179  13.589
79573SOL    HW240553   2.548  14.276  13.530
79574SOL     OW40554   5.839   0.365   9.005
79574SOL    HW140555   5.818   0.293   8.946
79574SOL    HW240556   5.895   0.325   9.072
79575SOL     OW40557   4.714   0.976  11.727
79575SOL    HW140558   4.768   0.917  11.780
79575SOL    HW240559   4.774   1.012  11.662
79576SOL     OW40560  13.224   4.353   8.351
79576SOL    HW140561  13.306   4.316   8.384
79576SOL    HW240562  13.248   4.395   8.268
79577SOL     OW40563  10.944  11.608  11.295
79577SOL    HW140564  10.959  11.599  11.389
79577SOL    HW240565  10.934  11.518  11.263
79578SOL     OW40566   8.996   3.902  12.154
79578SOL    HW140567   9.059   3.952  12.206
79578SOL    HW240568   8.996   3.944  12.068
79579SOL     OW40569   9.966   6.785   4.574
79579SOL    HW140570  10.023   6.852   4.537
79579SOL    HW240571   9.965   6.715   4.509
79580SOL     OW40572   4.028   3.502   6.483
79580SOL    HW140573   4.037   3.595   6.463
79580SOL    HW240574   3.951   3.474   6.434
79581SOL     OW40575  12.096   8.198   8.897
79581SOL    HW140576  12.089   8.103   8.888
79581SOL    HW240577  12.006   8.229   8.901
79582SOL     OW40578   3.425   4.041   3.308
79582SOL    HW140579   3.515   4.067   3.287
79582SOL    HW240580   3.374   4.065   3.230
79583SOL     OW40581   4.133   2.148   4.780
79583SOL    HW140582   4.054   2.143   4.834
79583SOL    HW240583   4.108   2.111   4.696
79584SOL     OW40584   4.912  12.911   7.175
79584SOL    HW140585   4.928  12.885   7.266
79584SOL    HW240586   4.909  13.007   7.178
79585SOL     OW40587   5.315   5.835   6.278
79585SOL    HW140588   5.234   5.787   6.262
79585SOL    HW240589   5.306   5.869   6.367
79586SOL     OW40590   1.346  11.935   4.674
79586SOL    HW140591   1.257  11.919   4.705
79586SOL    HW240592   1.337  12.009   4.614
79587SOL     OW40593   6.985  10.272   2.528
79587SOL    HW140594   6.949  10.353   2.492
79587SOL    HW240595   6.977  10.209   2.457
79588SOL     OW40596   6.364   7.758  13.820
79588SOL    HW140597   6.324   7.819  13.758
79588SOL    HW240598   6.376   7.810  13.900
79589SOL     OW40599   3.437   0.903   3.013
79589SOL    HW140600   3.377   0.839   3.052
79589SOL    HW240601   3.392   0.987   3.022
79590SOL     OW40602   5.933  11.517   0.075
79590SOL    HW140603   5.847  11.507   0.035
79590SOL    HW240604   5.994  11.521   0.001
79591SOL     OW40605  13.669   3.589   2.296
79591SOL    HW140606  13.663   3.529   2.223
79591SOL    HW240607  13.741   3.648   2.273
79592SOL     OW40608   5.869  14.284   9.485
79592SOL    HW140609   5.848  14.199   9.446
79592SOL    HW240610   5.905  14.263   9.572
79593SOL     OW40611   2.877  11.054   1.000
79593SOL    HW140612   2.812  11.061   1.069
79593SOL    HW240613   2.896  11.145   0.975
79594SOL     OW40614   4.383   8.275   4.147
79594SOL    HW140615   4.380   8.238   4.235
79594SOL    HW240616   4.305   8.239   4.103
79595SOL     OW40617   3.466  12.771   1.622
79595SOL    HW140618   3.454  12.758   1.528
79595SOL    HW240619   3.507  12.690   1.652
79596SOL     OW40620   4.070   9.036   7.519
79596SOL    HW140621   4.084   8.943   7.503
79596SOL    HW240622   4.059   9.042   7.614
79597SOL     OW40623  11.781  11.685   2.230
79597SOL    HW140624  11.753  11.652   2.145
79597SOL    HW240625  11.876  11.678   2.229
79598SOL     OW40626  10.674   0.159  10.751
79598SOL    HW140627  10.740   0.228  10.747
79598SOL    HW240628  10.710   0.095  10.812
79599SOL     OW40629   9.941   3.013   9.218
79599SOL    HW140630   9.852   3.031   9.189
79599SOL    HW240631   9.997   3.063   9.158
79600SOL     OW40632  13.601   6.690   7.335
79600SOL    HW140633  13.618   6.648   7.251
79600SOL    HW240634  13.611   6.783   7.319
79601SOL     OW40635   8.199   0.647  14.108
79601SOL    HW140636   8.182   0.723  14.051
79601SOL    HW240637   8.121   0.642  14.164
79602SOL     OW40638   8.820  13.585   3.979
79602SOL    HW140639   8.889  13.616   4.038
79602SOL    HW240640   8.802  13.660   3.922
79603SOL     OW40641   5.259   8.578   1.698
79603SOL    HW140642   5.175   8.545   1.730
79603SOL    HW240643   5.237   8.656   1.647
79604SOL     OW40644  12.840  13.536   1.956
79604SOL    HW140645  12.889  13.554   1.875
79604SOL    HW240646  12.771  13.603   1.957
79605SOL     OW40647   2.012   6.361  12.237
79605SOL    HW140648   1.954   6.304  12.187
79605SOL    HW240649   2.099   6.347  12.199
79606SOL     OW40650   1.652   3.387  12.361
79606SOL    HW140651   1.563   3.417  12.383
79606SOL    HW240652   1.654   3.296  12.389
79607SOL     OW40653  10.783   4.592  13.237
79607SOL    HW140654  10.738   4.511  13.263
79607SOL    HW240655  10.865   4.591  13.286
79608SOL     OW40656   2.198   3.380   5.994
79608SOL    HW140657   2.131   3.400   5.928
79608SOL    HW240658   2.281   3.387   5.947
79609SOL     OW40659   0.595   3.677   4.641
79609SOL    HW140660   0.571   3.737   4.571
79609SOL    HW240661   0.538   3.700   4.714
79610SOL     OW40662   0.778   9.004   8.615
79610SOL    HW140663   0.815   8.974   8.698
79610SOL    HW240664   0.763   9.098   8.628
79611SOL     OW40665   0.181  11.842   9.174
79611SOL    HW140666   0.186  11.936   9.193
79611SOL    HW240667   0.178  11.800   9.260
79612SOL     OW40668   0.240   7.540   2.404
79612SOL    HW140669   0.242   7.536   2.499
79612SOL    HW240670   0.184   7.468   2.377
79613SOL     OW40671   1.775   9.383   7.953
79613SOL    HW140672   1.727   9.453   7.997
79613SOL    HW240673   1.770   9.404   7.860
79614SOL     OW40674  11.351  10.854   7.644
79614SOL    HW140675  11.295  10.914   7.595
79614SOL    HW240676  11.324  10.866   7.735
79615SOL     OW40677  12.105   4.790   6.177
79615SOL    HW140678  12.035   4.802   6.241
79615SOL    HW240679  12.081   4.711   6.129
79616SOL     OW40680  13.487  14.522   5.855
79616SOL    HW140681  13.496  14.534   5.950
79616SOL    HW240682  13.537  14.594   5.817
79617SOL     OW40683   4.274   1.442  13.971
79617SOL    HW140684   4.273   1.450  13.876
79617SOL    HW240685   4.365   1.459  13.995
79618SOL     OW40686  11.964   3.935   1.138
79618SOL    HW140687  11.897   3.879   1.099
79618SOL    HW240688  11.999   3.884   1.211
79619SOL     OW40689  14.605   7.631   1.466
79619SOL    HW140690  14.626   7.573   1.540
79619SOL    HW240691  14.613   7.719   1.502
79620SOL     OW40692   7.942  10.119   1.213
79620SOL    HW140693   7.986  10.188   1.163
79620SOL    HW240694   7.951  10.147   1.304
79621SOL     OW40695   3.820   8.213   4.434
79621SOL    HW140696   3.778   8.265   4.503
79621SOL    HW240697   3.824   8.272   4.359
79622SOL     OW40698   4.282   0.333  12.503
79622SOL    HW140699   4.276   0.418  12.546
79622SOL    HW240700   4.195   0.318  12.467
79623SOL     OW40701   5.506  11.708  10.493
79623SOL    HW140702   5.491  11.618  10.521
79623SOL    HW240703   5.449  11.719  10.417
79624SOL     OW40704   0.878   2.582  14.220
79624SOL    HW140705   0.901   2.534  14.299
79624SOL    HW240706   0.794   2.622  14.240
79625SOL     OW40707   1.577  10.880   3.125
79625SOL    HW140708   1.540  10.968   3.134
79625SOL    HW240709   1.573  10.863   3.031
79626SOL     OW40710  14.093   6.310   7.157
79626SOL    HW140711  14.135   6.394   7.141
79626SOL    HW240712  14.136   6.277   7.236
79627SOL     OW40713  12.974   2.750  10.385
79627SOL    HW140714  12.938   2.835  10.411
79627SOL    HW240715  13.067   2.756  10.406
79628SOL     OW40716  13.155   5.092  14.046
79628SOL    HW140717  13.241   5.133  14.055
79628SOL    HW240718  13.111   5.142  13.977
79629SOL     OW40719   6.201  10.760   3.244
79629SOL    HW140720   6.160  10.686   3.200
79629SOL    HW240721   6.283  10.725   3.279
79630SOL     OW40722   0.108   9.591  10.489
79630SOL    HW140723   0.139   9.580  10.399
79630SOL    HW240724   0.020   9.553  10.488
79631SOL     OW40725   6.252   4.586   8.435
79631SOL    HW140726   6.342   4.564   8.411
79631SOL    HW240727   6.250   4.574   8.530
79632SOL     OW40728   1.681  12.670   7.194
79632SOL    HW140729   1.764  12.712   7.170
79632SOL    HW240730   1.628  12.675   7.115
79633SOL     OW40731  10.433   1.640  10.007
79633SOL    HW140732  10.387   1.561   9.978
79633SOL    HW240733  10.490   1.662   9.934
79634SOL     OW40734   4.531   1.999   8.304
79634SOL    HW140735   4.596   2.024   8.238
79634SOL    HW240736   4.502   2.083   8.341
79635SOL     OW40737  14.615   1.173   9.535
79635SOL    HW140738  14.584   1.186   9.624
79635SOL    HW240739  14.706   1.147   9.544
79636SOL     OW40740   0.841   5.237   1.065
79636SOL    HW140741   0.796   5.164   1.023
79636SOL    HW240742   0.923   5.200   1.097
79637SOL     OW40743   3.716  11.188  13.357
79637SOL    HW140744   3.694  11.281  13.362
79637SOL    HW240745   3.653  11.152  13.293
79638SOL     OW40746   3.198  10.011   5.848
79638SOL    HW140747   3.103  10.001   5.841
79638SOL    HW240748   3.232   9.963   5.772
79639SOL     OW40749   8.791   5.030  10.832
79639SOL    HW140750   8.807   5.103  10.891
79639SOL    HW240751   8.698   5.036  10.810
79640SOL     OW40752   9.056   3.115  12.701
79640SOL    HW140753   9.127   3.052  12.715
79640SOL    HW240754   9.061   3.173  12.777
79641SOL     OW40755   5.528   5.405   2.283
79641SOL    HW140756   5.572   5.460   2.218
79641SOL    HW240757   5.458   5.361   2.234
79642SOL     OW40758   1.969  11.904   4.773
79642SOL    HW140759   2.004  11.842   4.709
79642SOL    HW240760   1.892  11.860   4.808
79643SOL     OW40761   4.419   6.590  11.106
79643SOL    HW140762   4.405   6.617  11.015
79643SOL    HW240763   4.464   6.665  11.146
79644SOL     OW40764   0.361  13.549  13.531
79644SOL    HW140765   0.333  13.548  13.439
79644SOL    HW240766   0.437  13.607  13.532
79645SOL     OW40767   2.346   9.004  12.511
79645SOL    HW140768   2.296   8.923  12.509
79645SOL    HW240769   2.360   9.022  12.604
79646SOL     OW40770   3.232  14.249   1.250
79646SOL    HW140771   3.202  14.338   1.233
79646SOL    HW240772   3.293  14.258   1.324
79647SOL     OW40773  11.037  12.158  12.492
79647SOL    HW140774  11.017  12.233  12.436
79647SOL    HW240775  11.055  12.086  12.432
79648SOL     OW40776   7.480  14.019  11.730
79648SOL    HW140777   7.462  14.014  11.637
79648SOL    HW240778   7.411  14.075  11.766
79649SOL     OW40779   2.446   5.593   6.137
79649SOL    HW140780   2.532   5.573   6.175
79649SOL    HW240781   2.394   5.624   6.211
79650SOL     OW40782   0.289  11.380  13.101
79650SOL    HW140783   0.253  11.400  13.187
79650SOL    HW240784   0.380  11.411  13.105
79651SOL     OW40785   2.290  13.480   4.781
79651SOL    HW140786   2.221  13.501   4.844
79651SOL    HW240787   2.257  13.405   4.732
79652SOL     OW40788   7.120   3.547   1.969
79652SOL    HW140789   7.161   3.633   1.968
79652SOL    HW240790   7.131   3.516   2.058
79653SOL     OW40791   6.284   5.274   2.681
79653SOL    HW140792   6.294   5.192   2.632
79653SOL    HW240793   6.286   5.342   2.614
79654SOL     OW40794  11.076   8.579   9.249
79654SOL    HW140795  11.026   8.617   9.178
79654SOL    HW240796  11.117   8.653   9.293
79655SOL     OW40797   0.051   9.898   4.829
79655SOL    HW140798   0.055   9.902   4.925
79655SOL    HW240799   0.020   9.984   4.803
79656SOL     OW40800   6.128   3.837   5.893
79656SOL    HW140801   6.034   3.845   5.907
79656SOL    HW240802   6.150   3.750   5.926
79657SOL     OW40803   4.019   3.771   4.368
79657SOL    HW140804   4.062   3.781   4.453
79657SOL    HW240805   4.031   3.678   4.346
79658SOL     OW40806   0.279   2.189   5.856
79658SOL    HW140807   0.327   2.116   5.817
79658SOL    HW240808   0.263   2.249   5.783
79659SOL     OW40809  12.103   8.808   7.827
79659SOL    HW140810  12.079   8.718   7.804
79659SOL    HW240811  12.190   8.821   7.789
79660SOL     OW40812  11.452  11.635   3.225
79660SOL    HW140813  11.437  11.643   3.319
79660SOL    HW240814  11.461  11.541   3.210
79661SOL     OW40815  11.761  13.933   0.250
79661SOL    HW140816  11.728  14.022   0.240
79661SOL    HW240817  11.775  13.902   0.160
79662SOL     OW40818  14.169   0.148   8.307
79662SOL    HW140819  14.150   0.213   8.239
79662SOL    HW240820  14.104   0.166   8.376
79663SOL     OW40821   1.325  12.667  12.589
79663SOL    HW140822   1.337  12.758  12.561
79663SOL    HW240823   1.373  12.661  12.672
79664SOL     OW40824   5.927  11.795  10.325
79664SOL    HW140825   6.003  11.799  10.384
79664SOL    HW240826   5.862  11.852  10.367
79665SOL     OW40827   6.530  11.345   6.410
79665SOL    HW140828   6.504  11.365   6.500
79665SOL    HW240829   6.455  11.297   6.374
79666SOL     OW40830   9.817  12.605   9.262
79666SOL    HW140831   9.750  12.598   9.194
79666SOL    HW240832   9.899  12.591   9.216
79667SOL     OW40833   1.395  11.754   1.394
79667SOL    HW140834   1.437  11.756   1.308
79667SOL    HW240835   1.381  11.846   1.416
79668SOL     OW40836   8.161   6.160   9.681
79668SOL    HW140837   8.102   6.089   9.708
79668SOL    HW240838   8.103   6.223   9.638
79669SOL     OW40839   7.519   3.101   7.803
79669SOL    HW140840   7.488   3.181   7.760
79669SOL    HW240841   7.505   3.118   7.896
79670SOL     OW40842   0.021   3.316   4.900
79670SOL    HW140843   0.053   3.389   4.848
79670SOL    HW240844  14.839   3.356   4.963
79671SOL     OW40845   1.601   3.308   4.867
79671SOL    HW140846   1.540   3.240   4.896
79671SOL    HW240847   1.545   3.383   4.848
79672SOL     OW40848  12.886  11.771   5.688
79672SOL    HW140849  12.849  11.758   5.775
79672SOL    HW240850  12.973  11.807   5.704
79673SOL     OW40851   7.633   8.424   4.004
79673SOL    HW140852   7.635   8.467   4.090
79673SOL    HW240853   7.725   8.417   3.979
79674SOL     OW40854  14.651   3.691  11.144
79674SOL    HW140855  14.677   3.656  11.059
79674SOL    HW240856  14.734   3.704  11.191
79675SOL     OW40857  11.053  11.999  13.194
79675SOL    HW140858  10.973  12.047  13.173
79675SOL    HW240859  11.036  11.962  13.281
79676SOL     OW40860   3.214   1.423   1.129
79676SOL    HW140861   3.295   1.450   1.086
79676SOL    HW240862   3.238   1.409   1.220
79677SOL     OW40863   4.492   6.995   7.721
79677SOL    HW140864   4.478   7.071   7.777
79677SOL    HW240865   4.582   7.003   7.692
79678SOL     OW40866   1.086  12.344  12.554
79678SOL    HW140867   1.072  12.342  12.649
79678SOL    HW240868   0.999  12.330  12.517
79679SOL     OW40869   0.831   3.930   2.909
79679SOL    HW140870   0.800   3.893   2.991
79679SOL    HW240871   0.811   3.864   2.843
79680SOL     OW40872   4.778  11.159  11.584
79680SOL    HW140873   4.771  11.134  11.492
79680SOL    HW240874   4.867  11.194  11.593
79681SOL     OW40875  11.900  14.568   4.387
79681SOL    HW140876  11.917  14.519   4.467
79681SOL    HW240877  11.807  14.590   4.392
79682SOL     OW40878  12.471  13.059  12.441
79682SOL    HW140879  12.506  13.040  12.354
79682SOL    HW240880  12.464  12.973  12.483
79683SOL     OW40881  11.809  11.891   2.988
79683SOL    HW140882  11.764  11.943   3.055
79683SOL    HW240883  11.740  11.835   2.951
79684SOL     OW40884   0.837  10.445  10.183
79684SOL    HW140885   0.929  10.439  10.207
79684SOL    HW240886   0.820  10.539  10.178
79685SOL     OW40887   7.266   2.892   5.416
79685SOL    HW140888   7.353   2.859   5.438
79685SOL    HW240889   7.270   2.909   5.322
79686SOL     OW40890  10.651  11.623  11.363
79686SOL    HW140891  10.737  11.615  11.322
79686SOL    HW240892  10.601  11.677  11.302
79687SOL     OW40893   1.816   3.990   1.748
79687SOL    HW140894   1.791   4.060   1.808
79687SOL    HW240895   1.861   4.034   1.676
79688SOL     OW40896   1.445  10.781   6.357
79688SOL    HW140897   1.492  10.854   6.398
79688SOL    HW240898   1.352  10.803   6.367
79689SOL     OW40899  12.096   4.740  12.181
79689SOL    HW140900  12.185   4.705  12.177
79689SOL    HW240901  12.079   4.755  12.274
79690SOL     OW40902   6.487  12.760   6.319
79690SOL    HW140903   6.533  12.844   6.319
79690SOL    HW240904   6.524  12.712   6.245
79691SOL     OW40905   2.720   9.090   4.497
79691SOL    HW140906   2.627   9.076   4.519
79691SOL    HW240907   2.761   9.111   4.581
79692SOL     OW40908   2.335  13.109  13.443
79692SOL    HW140909   2.315  13.177  13.379
79692SOL    HW240910   2.350  13.156  13.525
79693SOL     OW40911   9.594   1.585  11.397
79693SOL    HW140912   9.552   1.566  11.313
79693SOL    HW240913   9.524   1.626  11.449
79694SOL     OW40914   9.743   1.082   0.013
79694SOL    HW140915   9.733   1.162  14.840
79694SOL    HW240916   9.660   1.074   0.061
79695SOL     OW40917   6.405   4.683  10.647
79695SOL    HW140918   6.496   4.656  10.645
79695SOL    HW240919   6.404   4.767  10.601
79696SOL     OW40920   8.006  11.571   5.613
79696SOL    HW140921   7.977  11.585   5.523
79696SOL    HW240922   7.957  11.636   5.664
79697SOL     OW40923  13.498   5.567   1.036
79697SOL    HW140924  13.408   5.535   1.035
79697SOL    HW240925  13.510   5.608   0.950
79698SOL     OW40926   5.040   5.492   3.848
79698SOL    HW140927   5.020   5.431   3.776
79698SOL    HW240928   4.977   5.470   3.916
79699SOL     OW40929  12.596   5.925   1.593
79699SOL    HW140930  12.663   5.964   1.648
79699SOL    HW240931  12.618   5.832   1.587
79700SOL     OW40932   9.667   1.834  10.381
79700SOL    HW140933   9.590   1.806  10.332
79700SOL    HW240934   9.633   1.860  10.467
79701SOL     OW40935   4.622  12.184  11.201
79701SOL    HW140936   4.653  12.263  11.246
79701SOL    HW240937   4.550  12.214  11.146
79702SOL     OW40938   2.087   8.300   4.372
79702SOL    HW140939   2.073   8.262   4.286
79702SOL    HW240940   1.999   8.323   4.402
79703SOL     OW40941  14.287   1.311   4.159
79703SOL    HW140942  14.224   1.349   4.220
79703SOL    HW240943  14.263   1.218   4.154
79704SOL     OW40944  13.114  11.447   2.962
79704SOL    HW140945  13.181  11.466   2.897
79704SOL    HW240946  13.084  11.533   2.991
79705SOL     OW40947  13.208   1.985   0.904
79705SOL    HW140948  13.301   1.984   0.926
79705SOL    HW240949  13.184   2.078   0.906
79706SOL     OW40950  14.000   1.291  13.361
79706SOL    HW140951  13.923   1.236  13.377
79706SOL    HW240952  13.965   1.369  13.318
79707SOL     OW40953  12.819   5.002   9.650
79707SOL    HW140954  12.772   4.984   9.569
79707SOL    HW240955  12.751   4.999   9.718
79708SOL     OW40956  11.333  14.803  12.927
79708SOL    HW140957  11.376  14.725  12.891
79708SOL    HW240958  11.268  14.827  12.861
79709SOL     OW40959   3.457   9.387   7.545
79709SOL    HW140960   3.363   9.405   7.538
79709SOL    HW240961   3.472   9.311   7.489
79710SOL     OW40962   8.699   2.010   5.414
79710SOL    HW140963   8.645   1.974   5.484
79710SOL    HW240964   8.789   1.988   5.440
79711SOL     OW40965  14.507   9.387  13.499
79711SOL    HW140966  14.571   9.420  13.562
79711SOL    HW240967  14.424   9.385  13.547
79712SOL     OW40968   1.409   8.308   3.191
79712SOL    HW140969   1.456   8.322   3.273
79712SOL    HW240970   1.477   8.289   3.127
79713SOL     OW40971   9.784  10.189   5.305
79713SOL    HW140972   9.703  10.207   5.258
79713SOL    HW240973   9.762  10.202   5.397
79714SOL     OW40974   7.786  13.700  13.901
79714SOL    HW140975   7.874  13.717  13.867
79714SOL    HW240976   7.800  13.658  13.986
79715SOL     OW40977   6.876   5.116  13.605
79715SOL    HW140978   6.968   5.141  13.598
79715SOL    HW240979   6.867   5.042  13.544
79716SOL     OW40980  14.390   8.937   2.655
79716SOL    HW140981  14.380   9.007   2.590
79716SOL    HW240982  14.332   8.962   2.726
79717SOL     OW40983   7.820  11.201  10.858
79717SOL    HW140984   7.902  11.173  10.816
79717SOL    HW240985   7.788  11.122  10.903
79718SOL     OW40986  13.287  11.442   2.385
79718SOL    HW140987  13.288  11.373   2.319
79718SOL    HW240988  13.285  11.523   2.335
79719SOL     OW40989   1.102   3.365  12.948
79719SOL    HW140990   1.101   3.352  13.043
79719SOL    HW240991   1.029   3.313  12.916
79720SOL     OW40992   2.116   8.125  14.545
79720SOL    HW140993   2.138   8.097  14.456
79720SOL    HW240994   2.041   8.070  14.569
79721SOL     OW40995   8.866   7.603  12.853
79721SOL    HW140996   8.919   7.523  12.863
79721SOL    HW240997   8.795   7.577  12.794
79722SOL     OW40998   8.100   1.594   8.799
79722SOL    HW140999   8.187   1.623   8.771
79722SOL    HW241000   8.112   1.564   8.889
79723SOL     OW41001  13.975   9.350   6.649
79723SOL    HW141002  13.995   9.265   6.686
79723SOL    HW241003  13.914   9.391   6.711
79724SOL     OW41004   9.954   9.079   7.542
79724SOL    HW141005  10.044   9.050   7.526
79724SOL    HW241006   9.927   9.032   7.621
79725SOL     OW41007  10.345   1.762   6.205
79725SOL    HW141008  10.367   1.822   6.276
79725SOL    HW241009  10.347   1.816   6.126
79726SOL     OW41010   9.705  12.509  11.718
79726SOL    HW141011   9.799  12.497  11.731
79726SOL    HW241012   9.677  12.561  11.793
79727SOL     OW41013   9.259   6.337  10.500
79727SOL    HW141014   9.325   6.333  10.431
79727SOL    HW241015   9.310   6.329  10.581
79728SOL     OW41016   5.117   4.488   9.422
79728SOL    HW141017   5.119   4.393   9.438
79728SOL    HW241018   5.094   4.525   9.507
79729SOL     OW41019   3.682  12.109  13.604
79729SOL    HW141020   3.739  12.184  13.585
79729SOL    HW241021   3.710  12.042  13.543
79730SOL     OW41022   4.424   7.841  14.617
79730SOL    HW141023   4.346   7.819  14.667
79730SOL    HW241024   4.465   7.757  14.598
79731SOL     OW41025   1.367   8.062   9.686
79731SOL    HW141026   1.318   8.086   9.607
79731SOL    HW241027   1.439   8.126   9.690
79732SOL     OW41028   3.144  14.801  10.685
79732SOL    HW141029   3.097  14.841  10.612
79732SOL    HW241030   3.203  14.738  10.643
79733SOL     OW41031   4.937   4.811   1.495
79733SOL    HW141032   4.961   4.865   1.569
79733SOL    HW241033   4.979   4.727   1.511
79734SOL     OW41034   2.367   4.866  12.759
79734SOL    HW141035   2.336   4.954  12.780
79734SOL    HW241036   2.316   4.840  12.682
79735SOL     OW41037  14.012   2.785  13.234
79735SOL    HW141038  14.053   2.815  13.153
79735SOL    HW241039  14.039   2.693  13.242
79736SOL     OW41040  14.546   1.996  11.900
79736SOL    HW141041  14.620   1.995  11.840
79736SOL    HW241042  14.478   1.946  11.855
79737SOL     OW41043  13.486  12.822   5.073
79737SOL    HW141044  13.480  12.788   5.162
79737SOL    HW241045  13.562  12.778   5.035
79738SOL     OW41046  13.077  11.604   5.547
79738SOL    HW141047  13.042  11.687   5.579
79738SOL    HW241048  13.166  11.624   5.519
79739SOL     OW41049   1.508  14.324  11.006
79739SOL    HW141050   1.457  14.371  10.939
79739SOL    HW241051   1.545  14.393  11.060
79740SOL     OW41052   1.288  13.389   3.331
79740SOL    HW141053   1.205  13.367   3.289
79740SOL    HW241054   1.299  13.483   3.313
79741SOL     OW41055   1.274   0.791  14.784
79741SOL    HW141056   1.295   0.698  14.794
79741SOL    HW241057   1.196   0.804  14.839
79742SOL     OW41058  14.501   9.431   6.084
79742SOL    HW141059  14.425   9.422   6.141
79742SOL    HW241060  14.529   9.522   6.094
79743SOL     OW41061   7.885   3.183  14.554
79743SOL    HW141062   7.867   3.179  14.648
79743SOL    HW241063   7.958   3.243  14.546
79744SOL     OW41064   4.998   6.347  12.021
79744SOL    HW141065   4.931   6.299  12.069
79744SOL    HW241066   5.011   6.297  11.941
79745SOL     OW41067   5.255   7.262   1.536
79745SOL    HW141068   5.216   7.262   1.624
79745SOL    HW241069   5.216   7.186   1.492
79746SOL     OW41070  13.860  10.190  11.776
79746SOL    HW141071  13.817  10.211  11.859
79746SOL    HW241072  13.922  10.261  11.762
79747SOL     OW41073   9.512   4.928   8.422
79747SOL    HW141074   9.589   4.901   8.373
79747SOL    HW241075   9.514   4.876   8.502
79748SOL     OW41076   5.692   3.550   8.215
79748SOL    HW141077   5.751   3.480   8.187
79748SOL    HW241078   5.610   3.532   8.170
79749SOL     OW41079   4.018  14.767   6.114
79749SOL    HW141080   3.993  14.675   6.121
79749SOL    HW241081   4.090  14.767   6.051
79750SOL     OW41082   5.286   3.395   4.101
79750SOL    HW141083   5.333   3.363   4.178
79750SOL    HW241084   5.267   3.486   4.121
79751SOL     OW41085  13.302   9.519   0.548
79751SOL    HW141086  13.300   9.467   0.628
79751SOL    HW241087  13.213   9.554   0.540
79752SOL     OW41088  14.395   5.778   5.830
79752SOL    HW141089  14.417   5.807   5.741
79752SOL    HW241090  14.329   5.840   5.860
79753SOL     OW41091   6.844  12.000   1.464
79753SOL    HW141092   6.911  11.935   1.444
79753SOL    HW241093   6.860  12.024   1.556
79754SOL     OW41094  14.528   9.669   2.888
79754SOL    HW141095  14.548   9.642   2.798
79754SOL    HW241096  14.569   9.603   2.943
79755SOL     OW41097   4.586  12.433   9.272
79755SOL    HW141098   4.651  12.362   9.274
79755SOL    HW241099   4.505  12.390   9.245
79756SOL     OW41100  12.771   0.321   6.378
79756SOL    HW141101  12.742   0.231   6.365
79756SOL    HW241102  12.854   0.313   6.425
79757SOL     OW41103  13.142   8.420   6.965
79757SOL    HW141104  13.089   8.456   7.037
79757SOL    HW241105  13.077   8.393   6.899
79758SOL     OW41106   9.632   5.420   3.320
79758SOL    HW141107   9.592   5.362   3.384
79758SOL    HW241108   9.645   5.366   3.242
79759SOL     OW41109   2.687   5.655   1.482
79759SOL    HW141110   2.647   5.672   1.397
79759SOL    HW241111   2.762   5.600   1.462
79760SOL     OW41112  14.185   8.023   5.661
79760SOL    HW141113  14.183   8.093   5.596
79760SOL    HW241114  14.275   7.989   5.657
79761SOL     OW41115  11.562  11.569   6.672
79761SOL    HW141116  11.590  11.643   6.726
79761SOL    HW241117  11.558  11.495   6.733
79762SOL     OW41118  10.414   8.317   5.939
79762SOL    HW141119  10.435   8.359   5.855
79762SOL    HW241120  10.496   8.322   5.989
79763SOL     OW41121  10.157   1.948  14.708
79763SOL    HW141122  10.184   1.892  14.635
79763SOL    HW241123  10.110   2.020  14.666
79764SOL     OW41124   1.829  12.057  12.822
79764SOL    HW141125   1.800  12.111  12.749
79764SOL    HW241126   1.822  11.967  12.789
79765SOL     OW41127   5.420  13.531  10.363
79765SOL    HW141128   5.412  13.487  10.447
79765SOL    HW241129   5.484  13.478  10.315
79766SOL     OW41130   3.019  14.173   7.321
79766SOL    HW141131   2.966  14.247   7.289
79766SOL    HW241132   3.052  14.132   7.241
79767SOL     OW41133  10.014   3.698  14.501
79767SOL    HW141134  10.099   3.670  14.468
79767SOL    HW241135  10.020   3.793  14.508
79768SOL     OW41136   3.462   4.770  12.259
79768SOL    HW141137   3.504   4.714  12.193
79768SOL    HW241138   3.386   4.720  12.288
79769SOL     OW41139   7.030   8.481  14.178
79769SOL    HW141140   6.953   8.534  14.158
79769SOL    HW241141   7.068   8.521  14.256
79770SOL     OW41142   7.719   2.231   4.555
79770SOL    HW141143   7.765   2.292   4.612
79770SOL    HW241144   7.670   2.175   4.615
79771SOL     OW41145  12.640  10.087   0.528
79771SOL    HW141146  12.641   9.992   0.542
79771SOL    HW241147  12.723  10.105   0.483
79772SOL     OW41148   9.971   8.714   7.797
79772SOL    HW141149   9.905   8.760   7.745
79772SOL    HW241150  10.043   8.699   7.736
79773SOL     OW41151  12.404   7.750  14.100
79773SOL    HW141152  12.486   7.779  14.059
79773SOL    HW241153  12.432   7.699  14.176
79774SOL     OW41154   8.202   7.514   5.042
79774SOL    HW141155   8.200   7.511   5.138
79774SOL    HW241156   8.135   7.578   5.019
79775SOL     OW41157  10.280   5.913   5.818
79775SOL    HW141158  10.199   5.900   5.770
79775SOL    HW241159  10.347   5.925   5.750
79776SOL     OW41160  12.369  11.537  13.623
79776SOL    HW141161  12.376  11.614  13.567
79776SOL    HW241162  12.455  11.496  13.620
79777SOL     OW41163  10.157   0.484  13.003
79777SOL    HW141164  10.200   0.493  12.918
79777SOL    HW241165  10.227   0.456  13.062
79778SOL     OW41166   9.428   8.592   1.995
79778SOL    HW141167   9.512   8.601   2.040
79778SOL    HW241168   9.444   8.524   1.930
79779SOL     OW41169  11.925   3.170   0.798
79779SOL    HW141170  11.831   3.171   0.814
79779SOL    HW241171  11.934   3.136   0.709
79780SOL     OW41172  11.824   1.244  13.072
79780SOL    HW141173  11.856   1.333  13.090
79780SOL    HW241174  11.893   1.187  13.103
79781SOL     OW41175  12.243   8.485   6.306
79781SOL    HW141176  12.332   8.510   6.282
79781SOL    HW241177  12.253   8.411   6.365
79782SOL     OW41178   2.399   6.287  10.992
79782SOL    HW141179   2.335   6.224  10.958
79782SOL    HW241180   2.373   6.370  10.952
79783SOL     OW41181   8.990  10.225   2.459
79783SOL    HW141182   9.048  10.298   2.479
79783SOL    HW241183   8.917  10.235   2.520
79784SOL     OW41184  11.769   5.465  11.058
79784SOL    HW141185  11.774   5.369  11.058
79784SOL    HW241186  11.854   5.494  11.092
79785SOL     OW41187  12.198   6.821   9.320
79785SOL    HW141188  12.266   6.882   9.351
79785SOL    HW241189  12.186   6.844   9.228
79786SOL     OW41190   6.228   0.988  12.638
79786SOL    HW141191   6.237   1.063  12.578
79786SOL    HW241192   6.167   1.019  12.705
79787SOL     OW41193   2.217  12.462   1.346
79787SOL    HW141194   2.181  12.547   1.320
79787SOL    HW241195   2.247  12.476   1.436
79788SOL     OW41196  14.017   1.418  11.239
79788SOL    HW141197  13.998   1.398  11.330
79788SOL    HW241198  13.942   1.383  11.190
79789SOL     OW41199  10.944  14.319   8.811
79789SOL    HW141200  10.945  14.226   8.835
79789SOL    HW241201  11.000  14.324   8.734
79790SOL     OW41202  11.444   8.060   8.332
79790SOL    HW141203  11.452   8.062   8.427
79790SOL    HW241204  11.529   8.089   8.300
79791SOL     OW41205  11.338   1.774   2.803
79791SOL    HW141206  11.416   1.753   2.855
79791SOL    HW241207  11.282   1.697   2.810
79792SOL     OW41208   7.440  13.854  11.148
79792SOL    HW141209   7.368  13.909  11.179
79792SOL    HW241210   7.463  13.799  11.223
79793SOL     OW41211  11.187   0.134   4.286
79793SOL    HW141212  11.115   0.072   4.295
79793SOL    HW241213  11.201   0.168   4.374
79794SOL     OW41214   9.418  12.709   4.018
79794SOL    HW141215   9.414  12.772   4.090
79794SOL    HW241216   9.463  12.633   4.055
79795SOL     OW41217  11.250  13.431   8.875
79795SOL    HW141218  11.239  13.497   8.944
79795SOL    HW241219  11.213  13.351   8.913
79796SOL     OW41220  10.925  14.871   2.298
79796SOL    HW141221  10.877   0.005   2.216
79796SOL    HW241222  10.858  14.874   2.366
79797SOL     OW41223   2.872  13.330   0.019
79797SOL    HW141224   2.913  13.354   0.102
79797SOL    HW241225   2.779  13.324   0.040
79798SOL     OW41226  13.289   9.120   5.679
79798SOL    HW141227  13.374   9.095   5.716
79798SOL    HW241228  13.275   9.210   5.708
79799SOL     OW41229   3.779  13.403   7.999
79799SOL    HW141230   3.792  13.388   7.906
79799SOL    HW241231   3.865  13.388   8.038
79800SOL     OW41232  13.206  14.803   1.221
79800SOL    HW141233  13.262  14.752   1.279
79800SOL    HW241234  13.129  14.748   1.206
79801SOL     OW41235  13.098   7.353   1.771
79801SOL    HW141236  13.127   7.415   1.704
79801SOL    HW241237  13.153   7.372   1.847
79802SOL     OW41238   1.168   8.477   5.927
79802SOL    HW141239   1.148   8.467   6.020
79802SOL    HW241240   1.263   8.472   5.922
79803SOL     OW41241   0.784  12.617  11.610
79803SOL    HW141242   0.743  12.549  11.663
79803SOL    HW241243   0.716  12.684  11.599
79804SOL     OW41244  14.616   3.179   1.151
79804SOL    HW141245  14.553   3.113   1.182
79804SOL    HW241246  14.569   3.226   1.082
79805SOL     OW41247  10.294   8.331  10.899
79805SOL    HW141248  10.214   8.349  10.849
79805SOL    HW241249  10.289   8.390  10.974
79806SOL     OW41250   5.422  12.668   2.588
79806SOL    HW141251   5.448  12.618   2.510
79806SOL    HW241252   5.446  12.612   2.662
79807SOL     OW41253   4.424  14.594   0.721
79807SOL    HW141254   4.490  14.655   0.689
79807SOL    HW241255   4.423  14.605   0.816
79808SOL     OW41256  13.246   1.218   2.701
79808SOL    HW141257  13.169   1.178   2.660
79808SOL    HW241258  13.319   1.161   2.675
79809SOL     OW41259   0.975  10.035   3.427
79809SOL    HW141260   1.032  10.047   3.351
79809SOL    HW241261   0.987   9.942   3.450
79810SOL     OW41262  11.969   1.529   1.523
79810SOL    HW141263  11.933   1.534   1.612
79810SOL    HW241264  11.896   1.554   1.466
79811SOL     OW41265   8.565   9.349   8.407
79811SOL    HW141266   8.509   9.318   8.336
79811SOL    HW241267   8.627   9.277   8.421
79812SOL     OW41268   0.772   7.866  14.119
79812SOL    HW141269   0.794   7.897  14.207
79812SOL    HW241270   0.802   7.775  14.117
79813SOL     OW41271  13.855   5.614   8.745
79813SOL    HW141272  13.771   5.655   8.763
79813SOL    HW241273  13.853   5.592   8.652
79814SOL     OW41274   0.083  10.774   2.471
79814SOL    HW141275  14.868  10.756   2.481
79814SOL    HW241276   0.123  10.734   2.548
79815SOL     OW41277   9.013  14.306   9.894
79815SOL    HW141278   8.972  14.220   9.898
79815SOL    HW241279   8.946  14.366   9.928
79816SOL     OW41280  14.492   4.582  14.773
79816SOL    HW141281  14.535   4.503  14.741
79816SOL    HW241282  14.544   4.609  14.849
79817SOL     OW41283   7.434   7.173   0.034
79817SOL    HW141284   7.356   7.155   0.086
79817SOL    HW241285   7.425   7.265   0.008
79818SOL     OW41286  10.506   3.750  13.134
79818SOL    HW141287  10.559   3.697  13.194
79818SOL    HW241288  10.564   3.822  13.109
79819SOL     OW41289   9.691  13.397   4.811
79819SOL    HW141290   9.760  13.336   4.840
79819SOL    HW241291   9.610  13.345   4.817
79820SOL     OW41292   7.823   6.293  10.758
79820SOL    HW141293   7.735   6.303  10.794
79820SOL    HW241294   7.857   6.215  10.802
79821SOL     OW41295   2.020   1.125  10.906
79821SOL    HW141296   2.075   1.173  10.844
79821SOL    HW241297   2.027   1.175  10.987
79822SOL     OW41298  12.076  12.152  11.845
79822SOL    HW141299  12.130  12.216  11.890
79822SOL    HW241300  12.125  12.070  11.851
79823SOL     OW41301  13.194   0.419   4.698
79823SOL    HW141302  13.169   0.405   4.789
79823SOL    HW241303  13.156   0.504   4.675
79824SOL     OW41304   9.193  12.334  13.721
79824SOL    HW141305   9.207  12.387  13.643
79824SOL    HW241306   9.271  12.350  13.775
79825SOL     OW41307  14.196   9.032   8.176
79825SOL    HW141308  14.112   8.987   8.189
79825SOL    HW241309  14.211   9.079   8.258
79826SOL     OW41310   6.041   4.366  14.399
79826SOL    HW141311   6.126   4.394  14.431
79826SOL    HW241312   6.004   4.314  14.470
79827SOL     OW41313   0.734   6.585   8.472
79827SOL    HW141314   0.689   6.652   8.421
79827SOL    HW241315   0.786   6.536   8.408
79828SOL     OW41316   5.403   9.599   8.203
79828SOL    HW141317   5.310   9.582   8.193
79828SOL    HW241318   5.442   9.513   8.215
79829SOL     OW41319   9.350  11.238   4.102
79829SOL    HW141320   9.444  11.257   4.109
79829SOL    HW241321   9.331  11.183   4.177
79830SOL     OW41322   8.163   5.433   5.555
79830SOL    HW141323   8.200   5.458   5.639
79830SOL    HW241324   8.226   5.371   5.518
79831SOL     OW41325  12.512   4.862   5.659
79831SOL    HW141326  12.534   4.863   5.566
79831SOL    HW241327  12.486   4.952   5.679
79832SOL     OW41328   6.365  13.418   4.654
79832SOL    HW141329   6.419  13.392   4.728
79832SOL    HW241330   6.295  13.470   4.692
79833SOL     OW41331  10.189   4.922   9.123
79833SOL    HW141332  10.218   5.013   9.132
79833SOL    HW241333  10.168   4.912   9.031
79834SOL     OW41334   0.191   5.355   6.365
79834SOL    HW141335   0.176   5.268   6.400
79834SOL    HW241336   0.109   5.402   6.380
79835SOL     OW41337  14.773   1.642   4.527
79835SOL    HW141338  14.732   1.722   4.493
79835SOL    HW241339  14.803   1.596   4.449
79836SOL     OW41340   1.114  11.266  10.804
79836SOL    HW141341   1.187  11.228  10.855
79836SOL    HW241342   1.037  11.219  10.836
79837SOL     OW41343  12.610   1.636   2.496
79837SOL    HW141344  12.700   1.623   2.466
79837SOL    HW241345  12.557   1.582   2.436
79838SOL     OW41346   3.463   6.601  14.460
79838SOL    HW141347   3.492   6.546  14.388
79838SOL    HW241348   3.403   6.664  14.419
79839SOL     OW41349  10.260   7.316   7.338
79839SOL    HW141350  10.231   7.360   7.258
79839SOL    HW241351  10.319   7.379   7.380
79840SOL     OW41352   5.880   4.250  12.934
79840SOL    HW141353   5.879   4.177  12.996
79840SOL    HW241354   5.835   4.216  12.856
79841SOL     OW41355   8.602   6.884   4.909
79841SOL    HW141356   8.548   6.964   4.910
79841SOL    HW241357   8.676   6.906   4.853
79842SOL     OW41358  10.483   4.203  14.875
79842SOL    HW141359  10.505   4.186  14.783
79842SOL    HW241360  10.544   4.271   0.023
79843SOL     OW41361   0.257   4.882   3.912
79843SOL    HW141362   0.338   4.874   3.861
79843SOL    HW241363   0.188   4.861   3.850
79844SOL     OW41364   8.924  12.975  14.597
79844SOL    HW141365   8.980  12.899  14.611
79844SOL    HW241366   8.895  13.000  14.684
79845SOL     OW41367  11.642  14.119  11.706
79845SOL    HW141368  11.631  14.071  11.623
79845SOL    HW241369  11.703  14.066  11.757
79846SOL     OW41370   1.970  11.700   6.702
79846SOL    HW141371   1.917  11.682   6.624
79846SOL    HW241372   2.050  11.739   6.668
79847SOL     OW41373   4.122   8.828   6.232
79847SOL    HW141374   4.161   8.768   6.168
79847SOL    HW241375   4.185   8.829   6.304
79848SOL     OW41376   5.396  13.381   3.998
79848SOL    HW141377   5.428  13.297   3.966
79848SOL    HW241378   5.470  13.441   3.985
79849SOL     OW41379   5.902   5.471   4.471
79849SOL    HW141380   5.919   5.396   4.527
79849SOL    HW241381   5.810   5.493   4.487
79850SOL     OW41382   5.759   3.038   2.172
79850SOL    HW141383   5.756   2.955   2.125
79850SOL    HW241384   5.674   3.045   2.216
79851SOL     OW41385   9.237  11.254   1.889
79851SOL    HW141386   9.266  11.276   1.801
79851SOL    HW241387   9.251  11.160   1.897
79852SOL     OW41388   9.650   1.032   5.285
79852SOL    HW141389   9.651   0.939   5.262
79852SOL    HW241390   9.742   1.056   5.296
79853SOL     OW41391   1.366   9.060   8.999
79853SOL    HW141392   1.457   9.049   8.971
79853SOL    HW241393   1.326   9.111   8.929
79854SOL     OW41394   4.320   7.075   9.426
79854SOL    HW141395   4.323   7.054   9.333
79854SOL    HW241396   4.295   7.168   9.429
79855SOL     OW41397  14.775   4.516   0.602
79855SOL    HW141398  14.845   4.573   0.570
79855SOL    HW241399  14.714   4.574   0.646
79856SOL     OW41400  12.579   2.900   1.009
79856SOL    HW141401  12.502   2.953   0.992
79856SOL    HW241402  12.614   2.933   1.092
79857SOL     OW41403   0.768  13.105  13.678
79857SOL    HW141404   0.787  13.069  13.765
79857SOL    HW241405   0.674  13.091  13.667
79858SOL     OW41406  12.014  13.137   4.851
79858SOL    HW141407  12.090  13.173   4.804
79858SOL    HW241408  12.045  13.122   4.940
79859SOL     OW41409  13.139   3.035  11.059
79859SOL    HW141410  13.064   3.094  11.048
79859SOL    HW241411  13.139   3.013  11.152
79860SOL     OW41412   7.452   4.191   7.310
79860SOL    HW141413   7.453   4.129   7.382
79860SOL    HW241414   7.502   4.148   7.241
79861SOL     OW41415   8.613   0.632  11.044
79861SOL    HW141416   8.558   0.621  11.122
79861SOL    HW241417   8.555   0.673  10.980
79862SOL     OW41418   2.956   2.813   8.764
79862SOL    HW141419   3.029   2.755   8.745
79862SOL    HW241420   2.989   2.872   8.832
79863SOL     OW41421   4.306   3.125   2.827
79863SOL    HW141422   4.277   3.144   2.738
79863SOL    HW241423   4.401   3.118   2.821
79864SOL     OW41424   4.544   9.371  12.702
79864SOL    HW141425   4.509   9.443  12.649
79864SOL    HW241426   4.559   9.301  12.639
79865SOL     OW41427   3.457   2.649   4.719
79865SOL    HW141428   3.460   2.596   4.640
79865SOL    HW241429   3.490   2.735   4.692
79866SOL     OW41430   0.026   1.524   6.490
79866SOL    HW141431  14.814   1.540   6.465
79866SOL    HW241432   0.075   1.594   6.447
79867SOL     OW41433  10.304  14.597   3.008
79867SOL    HW141434  10.327  14.690   2.999
79867SOL    HW241435  10.315  14.561   2.920
79868SOL     OW41436   7.871   5.358   9.658
79868SOL    HW141437   7.950   5.342   9.710
79868SOL    HW241438   7.896   5.334   9.569
79869SOL     OW41439   3.765   1.089  10.829
79869SOL    HW141440   3.767   1.130  10.743
79869SOL    HW241441   3.685   1.036  10.828
79870SOL     OW41442   6.837   5.891   7.944
79870SOL    HW141443   6.839   5.897   7.848
79870SOL    HW241444   6.899   5.821   7.965
79871SOL     OW41445   8.839   8.892  13.033
79871SOL    HW141446   8.863   8.802  13.014
79871SOL    HW241447   8.786   8.920  12.958
79872SOL     OW41448   1.052  12.584   7.653
79872SOL    HW141449   1.137  12.577   7.610
79872SOL    HW241450   1.000  12.512   7.617
79873SOL     OW41451   0.852   2.377   4.660
79873SOL    HW141452   0.893   2.340   4.581
79873SOL    HW241453   0.925   2.392   4.720
79874SOL     OW41454   2.289  12.397   2.773
79874SOL    HW141455   2.219  12.367   2.831
79874SOL    HW241456   2.314  12.319   2.724
79875SOL     OW41457   1.904   5.801   9.680
79875SOL    HW141458   1.978   5.778   9.624
79875SOL    HW241459   1.836   5.737   9.657
79876SOL     OW41460   9.356   1.098  14.148
79876SOL    HW141461   9.396   1.084  14.061
79876SOL    HW241462   9.415   1.052  14.208
79877SOL     OW41463  14.785  12.008   7.696
79877SOL    HW141464  14.714  11.959   7.655
79877SOL    HW241465  14.760  12.014   7.788
79878SOL     OW41466  11.229   2.650   3.722
79878SOL    HW141467  11.255   2.678   3.634
79878SOL    HW241468  11.154   2.706   3.743
79879SOL     OW41469  12.661   7.927   9.169
79879SOL    HW141470  12.656   7.963   9.257
79879SOL    HW241471  12.642   7.834   9.179
79880SOL     OW41472   4.080   8.385   8.093
79880SOL    HW141473   4.139   8.338   8.151
79880SOL    HW241474   4.030   8.443   8.150
79881SOL     OW41475  12.947  12.923   1.540
79881SOL    HW141476  12.999  12.950   1.464
79881SOL    HW241477  12.949  12.828   1.538
79882SOL     OW41478   8.371   4.756   3.629
79882SOL    HW141479   8.286   4.752   3.584
79882SOL    HW241480   8.434   4.722   3.565
79883SOL     OW41481  11.561  11.738   6.265
79883SOL    HW141482  11.609  11.663   6.300
79883SOL    HW241483  11.489  11.751   6.326
79884SOL     OW41484   2.349  11.433   9.900
79884SOL    HW141485   2.342  11.366   9.967
79884SOL    HW241486   2.440  11.431   9.872
79885SOL     OW41487   5.764  13.773   6.499
79885SOL    HW141488   5.685  13.760   6.551
79885SOL    HW241489   5.836  13.761   6.561
79886SOL     OW41490   4.405   2.898  12.260
79886SOL    HW141491   4.485   2.853  12.232
79886SOL    HW241492   4.380   2.853  12.341
79887SOL     OW41493   1.459   6.712   4.003
79887SOL    HW141494   1.466   6.796   3.958
79887SOL    HW241495   1.486   6.647   3.937
79888SOL     OW41496   3.741   4.161   8.122
79888SOL    HW141497   3.772   4.203   8.041
79888SOL    HW241498   3.730   4.069   8.097
79889SOL     OW41499   6.257   8.298   1.024
79889SOL    HW141500   6.296   8.344   1.099
79889SOL    HW241501   6.298   8.338   0.947
79890SOL     OW41502   8.059  14.489   2.167
79890SOL    HW141503   8.092  14.575   2.140
79890SOL    HW241504   7.969  14.486   2.134
79891SOL     OW41505   2.035   0.409   4.456
79891SOL    HW141506   2.004   0.326   4.419
79891SOL    HW241507   2.030   0.471   4.383
79892SOL     OW41508   6.946   8.890   4.149
79892SOL    HW141509   7.023   8.877   4.203
79892SOL    HW241510   6.876   8.840   4.192
79893SOL     OW41511  12.880   1.145   8.791
79893SOL    HW141512  12.840   1.077   8.737
79893SOL    HW241513  12.964   1.163   8.748
79894SOL     OW41514  12.273   3.896   7.386
79894SOL    HW141515  12.328   3.832   7.340
79894SOL    HW241516  12.288   3.978   7.340
79895SOL     OW41517  10.604   6.417   6.380
79895SOL    HW141518  10.677   6.474   6.406
79895SOL    HW241519  10.560   6.466   6.309
79896SOL     OW41520  10.676   9.897   0.665
79896SOL    HW141521  10.607   9.833   0.682
79896SOL    HW241522  10.633   9.966   0.615
79897SOL     OW41523   1.993  12.507   5.618
79897SOL    HW141524   1.918  12.532   5.671
79897SOL    HW241525   2.036  12.590   5.595
79898SOL     OW41526   6.729   1.087  11.651
79898SOL    HW141527   6.699   1.032  11.723
79898SOL    HW241528   6.684   1.054  11.574
79899SOL     OW41529   5.273   6.152  11.392
79899SOL    HW141530   5.217   6.079  11.417
79899SOL    HW241531   5.267   6.156  11.297
79900SOL     OW41532   5.951  10.888   5.041
79900SOL    HW141533   5.964  10.816   5.103
79900SOL    HW241534   5.977  10.966   5.089
79901SOL     OW41535   1.479   8.310   9.373
79901SOL    HW141536   1.534   8.351   9.440
79901SOL    HW241537   1.432   8.383   9.333
79902SOL     OW41538   4.882   6.811   6.347
79902SOL    HW141539   4.867   6.717   6.358
79902SOL    HW241540   4.935   6.817   6.268
79903SOL     OW41541  13.497   7.962   3.585
79903SOL    HW141542  13.552   7.990   3.658
79903SOL    HW241543  13.427   8.027   3.582
79904SOL     OW41544   4.485   9.687   3.673
79904SOL    HW141545   4.408   9.667   3.620
79904SOL    HW241546   4.453   9.747   3.741
79905SOL     OW41547  12.638   8.246   9.085
79905SOL    HW141548  12.590   8.295   9.152
79905SOL    HW241549  12.706   8.200   9.134
79906SOL     OW41550   2.014   5.597   6.990
79906SOL    HW141551   1.955   5.539   6.942
79906SOL    HW241552   2.089   5.608   6.932
79907SOL     OW41553   5.191   9.396  12.748
79907SOL    HW141554   5.225   9.307  12.755
79907SOL    HW241555   5.116   9.398  12.808
79908SOL     OW41556  13.003  13.900  12.317
79908SOL    HW141557  12.940  13.855  12.374
79908SOL    HW241558  13.073  13.928  12.376
79909SOL     OW41559  10.945  12.667   4.889
79909SOL    HW141560  11.000  12.743   4.909
79909SOL    HW241561  10.986  12.594   4.936
79910SOL     OW41562   4.588   9.938   0.964
79910SOL    HW141563   4.674   9.973   0.987
79910SOL    HW241564   4.568   9.977   0.878
79911SOL     OW41565   3.950   6.610  10.684
79911SOL    HW141566   3.945   6.622  10.589
79911SOL    HW241567   3.859   6.597  10.711
79912SOL     OW41568   8.845   4.042  11.147
79912SOL    HW141569   8.847   4.052  11.242
79912SOL    HW241570   8.844   4.132  11.113
79913SOL     OW41571  12.787   9.007   1.139
79913SOL    HW141572  12.732   9.055   1.077
79913SOL    HW241573  12.748   8.920   1.143
79914SOL     OW41574  14.758   1.310  11.124
79914SOL    HW141575  14.760   1.252  11.049
79914SOL    HW241576  14.667   1.310  11.153
79915SOL     OW41577   7.444   0.706   1.645
79915SOL    HW141578   7.525   0.735   1.686
79915SOL    HW241579   7.379   0.711   1.716
79916SOL     OW41580  10.785   5.119   4.804
79916SOL    HW141581  10.866   5.133   4.853
79916SOL    HW241582  10.814   5.096   4.716
79917SOL     OW41583   5.898   3.755   7.826
79917SOL    HW141584   5.968   3.758   7.891
79917SOL    HW241585   5.874   3.847   7.812
79918SOL     OW41586   9.810   8.424   9.799
79918SOL    HW141587   9.793   8.390   9.886
79918SOL    HW241588   9.773   8.512   9.800
79919SOL     OW41589   3.572  11.622   1.304
79919SOL    HW141590   3.558  11.694   1.365
79919SOL    HW241591   3.666  11.622   1.288
79920SOL     OW41592   5.856   9.624   0.415
79920SOL    HW141593   5.856   9.677   0.495
79920SOL    HW241594   5.797   9.670   0.356
79921SOL     OW41595   0.883   2.639   6.837
79921SOL    HW141596   0.933   2.569   6.796
79921SOL    HW241597   0.948   2.706   6.860
79922SOL     OW41598   5.754   0.286  10.262
79922SOL    HW141599   5.772   0.197  10.234
79922SOL    HW241600   5.713   0.327  10.185
79923SOL     OW41601   2.470   7.692  11.429
79923SOL    HW141602   2.383   7.718  11.458
79923SOL    HW241603   2.510   7.773  11.396
79924SOL     OW41604  10.892   8.898   1.386
79924SOL    HW141605  10.834   8.923   1.314
79924SOL    HW241606  10.955   8.839   1.345
79925SOL     OW41607   0.152   9.379   5.801
79925SOL    HW141608   0.092   9.413   5.735
79925SOL    HW241609   0.129   9.428   5.881
79926SOL     OW41610   6.290   6.797   5.598
79926SOL    HW141611   6.211   6.842   5.630
79926SOL    HW241612   6.343   6.867   5.561
79927SOL     OW41613  13.856   4.771   1.301
79927SOL    HW141614  13.855   4.690   1.251
79927SOL    HW241615  13.934   4.764   1.357
79928SOL     OW41616   7.641  12.167   0.920
79928SOL    HW141617   7.597  12.228   0.860
79928SOL    HW241618   7.734  12.187   0.911
79929SOL     OW41619   2.683   6.220   6.860
79929SOL    HW141620   2.767   6.262   6.844
79929SOL    HW241621   2.628   6.246   6.786
79930SOL     OW41622   3.662  11.971   3.981
79930SOL    HW141623   3.725  11.918   3.932
79930SOL    HW241624   3.577  11.952   3.940
79931SOL     OW41625  13.159   0.388   1.289
79931SOL    HW141626  13.144   0.457   1.354
79931SOL    HW241627  13.146   0.431   1.205
79932SOL     OW41628  12.721  12.302  10.992
79932SOL    HW141629  12.676  12.357  11.056
79932SOL    HW241630  12.758  12.363  10.929
79933SOL     OW41631   1.184   9.089  10.754
79933SOL    HW141632   1.095   9.057  10.772
79933SOL    HW241633   1.241   9.014  10.769
79934SOL     OW41634   3.433   3.567   6.711
79934SOL    HW141635   3.448   3.472   6.712
79934SOL    HW241636   3.372   3.581   6.637
79935SOL     OW41637   4.787   3.184  12.783
79935SOL    HW141638   4.865   3.240  12.777
79935SOL    HW241639   4.820   3.102  12.819
79936SOL     OW41640   7.377   1.537   4.930
79936SOL    HW141641   7.305   1.474   4.926
79936SOL    HW241642   7.451   1.491   4.892
79937SOL     OW41643   6.467  13.360  10.194
79937SOL    HW141644   6.441  13.446  10.162
79937SOL    HW241645   6.396  13.333  10.251
79938SOL     OW41646   5.707   5.473  13.919
79938SOL    HW141647   5.691   5.428  13.836
79938SOL    HW241648   5.781   5.531  13.901
79939SOL     OW41649   5.959   7.798   9.576
79939SOL    HW141650   6.055   7.796   9.578
79939SOL    HW241651   5.938   7.887   9.548
79940SOL     OW41652  11.039   4.976   7.958
79940SOL    HW141653  11.095   5.049   7.982
79940SOL    HW241654  11.071   4.947   7.873
79941SOL     OW41655   8.364  10.117   8.661
79941SOL    HW141656   8.401  10.204   8.679
79941SOL    HW241657   8.395  10.096   8.573
79942SOL     OW41658   0.534   4.493   3.904
79942SOL    HW141659   0.476   4.451   3.967
79942SOL    HW241660   0.536   4.585   3.930
79943SOL     OW41661   9.222   0.068   5.994
79943SOL    HW141662   9.290   0.008   6.023
79943SOL    HW241663   9.166   0.015   5.937
79944SOL     OW41664  13.098   6.728   6.133
79944SOL    HW141665  13.192   6.744   6.133
79944SOL    HW241666  13.059   6.814   6.150
79945SOL     OW41667   5.567  12.110   8.579
79945SOL    HW141668   5.570  12.061   8.497
79945SOL    HW241669   5.478  12.099   8.611
79946SOL     OW41670   5.221   0.919   7.016
79946SOL    HW141671   5.142   0.895   7.065
79946SOL    HW241672   5.213   1.014   7.004
79947SOL     OW41673   8.488  14.035  11.731
79947SOL    HW141674   8.455  14.109  11.680
79947SOL    HW241675   8.580  14.056  11.745
79948SOL     OW41676   4.974  12.358   7.434
79948SOL    HW141677   4.989  12.366   7.339
79948SOL    HW241678   4.883  12.332   7.441
79949SOL     OW41679   2.482  14.316   9.438
79949SOL    HW141680   2.414  14.249   9.441
79949SOL    HW241681   2.556  14.274   9.396
79950SOL     OW41682  13.964   6.216   7.951
79950SOL    HW141683  13.896   6.281   7.936
79950SOL    HW241684  13.979   6.176   7.865
79951SOL     OW41685  11.752   3.260  13.336
79951SOL    HW141686  11.767   3.166  13.346
79951SOL    HW241687  11.727   3.289  13.424
79952SOL     OW41688   1.144  11.399  14.797
79952SOL    HW141689   1.142  11.384  14.703
79952SOL    HW241690   1.220  11.455  14.812
79953SOL     OW41691  11.195  12.228   3.692
79953SOL    HW141692  11.246  12.304   3.666
79953SOL    HW241693  11.195  12.171   3.615
79954SOL     OW41694   8.751   2.323   2.623
79954SOL    HW141695   8.678   2.266   2.599
79954SOL    HW241696   8.720   2.370   2.700
79955SOL     OW41697   4.946   3.361   0.827
79955SOL    HW141698   4.879   3.414   0.782
79955SOL    HW241699   4.948   3.279   0.778
79956SOL     OW41700  11.528  10.637   7.656
79956SOL    HW141701  11.607  10.683   7.627
79956SOL    HW241702  11.467  10.708   7.676
79957SOL     OW41703   3.655   1.820   3.965
79957SOL    HW141704   3.593   1.872   3.914
79957SOL    HW241705   3.694   1.760   3.902
79958SOL     OW41706  14.646  11.647   9.801
79958SOL    HW141707  14.602  11.571   9.762
79958SOL    HW241708  14.732  11.613   9.829
79959SOL     OW41709   9.624   9.200   1.736
79959SOL    HW141710   9.589   9.220   1.649
79959SOL    HW241711   9.581   9.118   1.761
79960SOL     OW41712   7.032  13.120  12.552
79960SOL    HW141713   7.023  13.026  12.538
79960SOL    HW241714   7.034  13.158  12.464
79961SOL     OW41715   2.307   4.974   7.399
79961SOL    HW141716   2.243   5.038   7.430
79961SOL    HW241717   2.355   4.948   7.478
79962SOL     OW41718  14.813   1.517  12.875
79962SOL    HW141719  14.741   1.468  12.915
79962SOL    HW241720  14.821   1.482  12.787
79963SOL     OW41721  10.949  14.235  14.094
79963SOL    HW141722  10.909  14.308  14.048
79963SOL    HW241723  10.905  14.157  14.059
79964SOL     OW41724   0.080   7.644  12.073
79964SOL    HW141725   0.042   7.669  12.157
79964SOL    HW241726   0.120   7.559  12.088
79965SOL     OW41727  13.240  10.691  11.777
79965SOL    HW141728  13.302  10.756  11.809
79965SOL    HW241729  13.257  10.686  11.683
79966SOL     OW41730  13.590  14.247   6.341
79966SOL    HW141731  13.646  14.216   6.269
79966SOL    HW241732  13.538  14.171   6.366
79967SOL     OW41733   8.855  12.674   8.891
79967SOL    HW141734   8.917  12.601   8.890
79967SOL    HW241735   8.771  12.634   8.868
79968SOL     OW41736   5.404  13.225  11.972
79968SOL    HW141737   5.462  13.229  11.896
79968SOL    HW241738   5.450  13.275  12.040
79969SOL     OW41739   8.372   2.280   2.880
79969SOL    HW141740   8.417   2.207   2.836
79969SOL    HW241741   8.442   2.334   2.914
79970SOL     OW41742  14.083   6.666   5.403
79970SOL    HW141743  14.147   6.600   5.429
79970SOL    HW241744  14.133   6.727   5.348
79971SOL     OW41745  13.992   5.609   3.896
79971SOL    HW141746  13.955   5.695   3.874
79971SOL    HW241747  13.925   5.567   3.950
79972SOL     OW41748   6.107   2.142   1.051
79972SOL    HW141749   6.086   2.068   0.993
79972SOL    HW241750   6.113   2.103   1.138
79973SOL     OW41751  12.582   9.093   3.057
79973SOL    HW141752  12.593   9.154   2.984
79973SOL    HW241753  12.638   9.127   3.127
79974SOL     OW41754  11.577   1.314   9.677
79974SOL    HW141755  11.576   1.409   9.687
79974SOL    HW241756  11.530   1.298   9.595
79975SOL     OW41757   2.211   2.224   4.224
79975SOL    HW141758   2.194   2.300   4.168
79975SOL    HW241759   2.191   2.149   4.169
79976SOL     OW41760   3.047   9.176  11.430
79976SOL    HW141761   3.061   9.125  11.350
79976SOL    HW241762   2.997   9.117  11.488
79977SOL     OW41763   4.092   1.387   7.635
79977SOL    HW141764   4.051   1.378   7.549
79977SOL    HW241765   4.047   1.324   7.690
79978SOL     OW41766  12.742   5.676  12.569
79978SOL    HW141767  12.656   5.716  12.559
79978SOL    HW241768  12.761   5.640  12.482
79979SOL     OW41769   0.900   9.186   7.849
79979SOL    HW141770   0.829   9.127   7.824
79979SOL    HW241771   0.922   9.233   7.769
79980SOL     OW41772  12.445   0.829   8.906
79980SOL    HW141773  12.454   0.890   8.833
79980SOL    HW241774  12.503   0.865   8.974
79981SOL     OW41775   2.127  14.624   4.512
79981SOL    HW141776   2.064  14.569   4.466
79981SOL    HW241777   2.110  14.609   4.605
79982SOL     OW41778   0.586  12.148   3.957
79982SOL    HW141779   0.673  12.175   3.927
79982SOL    HW241780   0.528  12.220   3.933
79983SOL     OW41781   6.765  11.035   8.895
79983SOL    HW141782   6.820  10.961   8.921
79983SOL    HW241783   6.791  11.052   8.804
79984SOL     OW41784  12.530   6.744  10.375
79984SOL    HW141785  12.538   6.651  10.354
79984SOL    HW241786  12.504   6.785  10.292
79985SOL     OW41787   1.659   8.534   2.178
79985SOL    HW141788   1.747   8.533   2.142
79985SOL    HW241789   1.651   8.451   2.225
79986SOL     OW41790  13.197   6.045   3.858
79986SOL    HW141791  13.265   5.990   3.819
79986SOL    HW241792  13.223   6.052   3.950
79987SOL     OW41793  12.502   6.284  14.545
79987SOL    HW141794  12.592   6.265  14.522
79987SOL    HW241795  12.469   6.337  14.472
79988SOL     OW41796   7.262   4.330  10.484
79988SOL    HW141797   7.314   4.409  10.500
79988SOL    HW241798   7.184   4.342  10.537
79989SOL     OW41799  14.661  13.189  10.001
79989SOL    HW141800  14.577  13.231  10.022
79989SOL    HW241801  14.636  13.104   9.966
79990SOL     OW41802   7.519  10.546   0.012
79990SOL    HW141803   7.563  10.472   0.055
79990SOL    HW241804   7.540  10.622   0.067
79991SOL     OW41805  10.486   3.363   5.505
79991SOL    HW141806  10.519   3.338   5.592
79991SOL    HW241807  10.429   3.438   5.523
79992SOL     OW41808  13.768   3.517   4.421
79992SOL    HW141809  13.729   3.604   4.410
79992SOL    HW241810  13.740   3.467   4.344
79993SOL     OW41811   5.700   4.068   0.597
79993SOL    HW141812   5.794   4.061   0.612
79993SOL    HW241813   5.682   4.008   0.525
79994SOL     OW41814  13.551   0.030  11.112
79994SOL    HW141815  13.628  14.866  11.148
79994SOL    HW241816  13.585   0.102  11.059
79995SOL     OW41817   8.686   4.873  11.545
79995SOL    HW141818   8.707   4.963  11.520
79995SOL    HW241819   8.621   4.883  11.615
79996SOL     OW41820   1.039   7.276  11.226
79996SOL    HW141821   1.125   7.291  11.265
79996SOL    HW241822   1.025   7.181  11.234
79997SOL     OW41823   9.278  11.906   9.070
79997SOL    HW141824   9.352  11.848   9.051
79997SOL    HW241825   9.306  11.992   9.040
79998SOL     OW41826   1.394   2.591  13.928
79998SOL    HW141827   1.430   2.572  14.015
79998SOL    HW241828   1.467   2.576  13.868
79999SOL     OW41829  14.837   0.373  12.276
79999SOL    HW141830  14.785   0.315  12.220
79999SOL    HW241831   0.048   0.361  12.245
80000SOL     OW41832  10.093   5.941   6.478
80000SOL    HW141833  10.082   5.981   6.391
80000SOL    HW241834  10.013   5.965   6.525
80001SOL     OW41835  11.395   6.025  14.045
80001SOL    HW141836  11.304   6.044  14.069
80001SOL    HW241837  11.448   6.071  14.111
80002SOL     OW41838  10.848   5.665   7.275
80002SOL    HW141839  10.799   5.595   7.231
80002SOL    HW241840  10.930   5.671   7.225
80003SOL     OW41841  11.613   8.108   6.708
80003SOL    HW141842  11.652   8.151   6.784
80003SOL    HW241843  11.530   8.155   6.694
80004SOL     OW41844   0.624   1.709  10.151
80004SOL    HW141845   0.577   1.665  10.222
80004SOL    HW241846   0.716   1.693  10.171
80005SOL     OW41847   5.110   0.958   2.359
80005SOL    HW141848   5.090   0.971   2.267
80005SOL    HW241849   5.115   0.863   2.370
80006SOL     OW41850  13.606  12.508   8.902
80006SOL    HW141851  13.700  12.489   8.903
80006SOL    HW241852  13.601  12.604   8.904
80007SOL     OW41853  11.320   1.366  14.490
80007SOL    HW141854  11.304   1.459  14.502
80007SOL    HW241855  11.242   1.323  14.525
80008SOL     OW41856   2.363   5.421   6.388
80008SOL    HW141857   2.362   5.344   6.445
80008SOL    HW241858   2.402   5.491   6.441
80009SOL     OW41859   0.137   0.060  12.863
80009SOL    HW141860   0.189   0.068  12.783
80009SOL    HW241861   0.062   0.006  12.837
80010SOL     OW41862   5.148   3.471  12.363
80010SOL    HW141863   5.189   3.461  12.449
80010SOL    HW241864   5.220   3.462  12.300
80011SOL     OW41865   2.931   0.252  11.002
80011SOL    HW141866   3.016   0.222  11.033
80011SOL    HW241867   2.941   0.259  10.907
80012SOL     OW41868   2.341   4.391   6.583
80012SOL    HW141869   2.303   4.478   6.597
80012SOL    HW241870   2.350   4.384   6.488
80013SOL     OW41871   1.042   7.527  11.924
80013SOL    HW141872   1.098   7.477  11.984
80013SOL    HW241873   0.957   7.531  11.968
80014SOL     OW41874  12.631  13.215   7.002
80014SOL    HW141875  12.626  13.299   6.955
80014SOL    HW241876  12.681  13.235   7.081
80015SOL     OW41877   0.769   7.609   6.596
80015SOL    HW141878   0.706   7.677   6.571
80015SOL    HW241879   0.756   7.539   6.532
80016SOL     OW41880  13.389  11.654  12.508
80016SOL    HW141881  13.419  11.607  12.430
80016SOL    HW241882  13.378  11.744  12.479
80017SOL     OW41883   0.312  10.879  11.641
80017SOL    HW141884   0.367  10.800  11.643
80017SOL    HW241885   0.285  10.888  11.550
80018SOL     OW41886   5.645  12.542  13.162
80018SOL    HW141887   5.680  12.453  13.167
80018SOL    HW241888   5.551  12.532  13.178
80019SOL     OW41889  12.245   3.797  11.946
80019SOL    HW141890  12.158   3.813  11.908
80019SOL    HW241891  12.262   3.705  11.928
80020SOL     OW41892   0.844  12.521  12.109
80020SOL    HW141893   0.761  12.476  12.091
80020SOL    HW241894   0.906  12.481  12.049
80021SOL     OW41895   8.273   6.544   7.722
80021SOL    HW141896   8.229   6.492   7.789
80021SOL    HW241897   8.278   6.632   7.759
80022SOL     OW41898   5.371   7.827  11.829
80022SOL    HW141899   5.349   7.879  11.752
80022SOL    HW241900   5.345   7.738  11.807
80023SOL     OW41901   1.159   2.399   2.207
80023SOL    HW141902   1.069   2.412   2.237
80023SOL    HW241903   1.201   2.485   2.219
80024SOL     OW41904   8.976   3.263   9.329
80024SOL    HW141905   9.021   3.213   9.398
80024SOL    HW241906   9.030   3.248   9.251
80025SOL     OW41907   2.070  11.662  11.807
80025SOL    HW141908   2.023  11.580  11.827
80025SOL    HW241909   2.003  11.721  11.774
80026SOL     OW41910   7.157   9.414  12.760
80026SOL    HW141911   7.202   9.356  12.700
80026SOL    HW241912   7.129   9.357  12.832
80027SOL     OW41913   0.066  11.981  11.377
80027SOL    HW141914   0.030  12.041  11.442
80027SOL    HW241915   0.067  12.032  11.296
80028SOL     OW41916  14.433   0.368   5.448
80028SOL    HW141917  14.383   0.327   5.519
80028SOL    HW241918  14.397   0.456   5.442
80029SOL     OW41919   6.839   1.826   6.666
80029SOL    HW141920   6.931   1.840   6.689
80029SOL    HW241921   6.802   1.914   6.661
80030SOL     OW41922  10.118   3.587  12.119
80030SOL    HW141923  10.038   3.534  12.118
80030SOL    HW241924  10.177   3.542  12.180
80031SOL     OW41925   2.137  12.728   8.504
80031SOL    HW141926   2.181  12.742   8.420
80031SOL    HW241927   2.176  12.648   8.539
80032SOL     OW41928   1.415   5.965   0.232
80032SOL    HW141929   1.435   6.026   0.161
80032SOL    HW241930   1.448   5.881   0.202
80033SOL     OW41931  11.892   4.325   1.770
80033SOL    HW141932  11.850   4.243   1.796
80033SOL    HW241933  11.975   4.325   1.818
80034SOL     OW41934  13.925   1.559   8.892
80034SOL    HW141935  14.015   1.582   8.918
80034SOL    HW241936  13.920   1.464   8.907
80035SOL     OW41937  10.918   0.167  12.162
80035SOL    HW141938  10.976   0.196  12.091
80035SOL    HW241939  10.937   0.074  12.172
80036SOL     OW41940   7.939   8.762   9.361
80036SOL    HW141941   7.854   8.796   9.391
80036SOL    HW241942   7.989   8.841   9.338
80037SOL     OW41943   5.224   2.265   7.326
80037SOL    HW141944   5.130   2.284   7.317
80037SOL    HW241945   5.267   2.333   7.275
80038SOL     OW41946   7.881  14.121  12.303
80038SOL    HW141947   7.950  14.056  12.293
80038SOL    HW241948   7.811  14.092  12.244
80039SOL     OW41949   7.479  13.784   3.705
80039SOL    HW141950   7.392  13.743   3.701
80039SOL    HW241951   7.495  13.813   3.615
80040SOL     OW41952   6.274  11.401   0.883
80040SOL    HW141953   6.365  11.396   0.912
80040SOL    HW241954   6.225  11.424   0.962
80041SOL     OW41955  14.699   9.324  11.163
80041SOL    HW141956  14.656   9.409  11.151
80041SOL    HW241957  14.704   9.313  11.258
80042SOL     OW41958   6.489   7.965   3.766
80042SOL    HW141959   6.478   8.059   3.755
80042SOL    HW241960   6.565   7.956   3.824
80043SOL     OW41961  11.218   2.577   3.987
80043SOL    HW141962  11.290   2.625   4.029
80043SOL    HW241963  11.225   2.599   3.894
80044SOL     OW41964   0.329   4.476   7.649
80044SOL    HW141965   0.381   4.400   7.623
80044SOL    HW241966   0.296   4.452   7.736
80045SOL     OW41967   4.821   2.372   3.722
80045SOL    HW141968   4.831   2.444   3.785
80045SOL    HW241969   4.906   2.368   3.678
80046SOL     OW41970  13.697   2.295  10.838
80046SOL    HW141971  13.787   2.305  10.870
80046SOL    HW241972  13.648   2.365  10.881
80047SOL     OW41973   0.519  12.874  13.984
80047SOL    HW141974   0.493  12.847  14.072
80047SOL    HW241975   0.470  12.816  13.926
80048SOL     OW41976  11.993   8.585   9.491
80048SOL    HW141977  12.026   8.576   9.581
80048SOL    HW241978  12.069   8.563   9.436
80049SOL     OW41979   3.766   0.993  11.627
80049SOL    HW141980   3.757   0.931  11.555
80049SOL    HW241981   3.860   1.011  11.632
80050SOL     OW41982   6.323   3.947   1.697
80050SOL    HW141983   6.349   4.007   1.766
80050SOL    HW241984   6.405   3.911   1.664
80051SOL     OW41985   1.269   4.754  14.309
80051SOL    HW141986   1.219   4.742  14.390
80051SOL    HW241987   1.206   4.789  14.247
80052SOL     OW41988   3.038   2.575   7.012
80052SOL    HW141989   3.097   2.500   7.018
80052SOL    HW241990   3.094   2.652   7.021
80053SOL     OW41991  10.691  12.580   6.256
80053SOL    HW141992  10.755  12.609   6.321
80053SOL    HW241993  10.744  12.536   6.189
80054SOL     OW41994  13.505  10.615   3.700
80054SOL    HW141995  13.428  10.650   3.744
80054SOL    HW241996  13.565  10.690   3.694
80055SOL     OW41997   5.021   9.328   3.276
80055SOL    HW141998   4.992   9.382   3.350
80055SOL    HW241999   5.020   9.239   3.310
80056SOL     OW42000  13.327  11.622  10.169
80056SOL    HW142001  13.356  11.533  10.189
80056SOL    HW242002  13.407  11.675  10.176
80057SOL     OW42003   1.663   8.717  14.242
80057SOL    HW142004   1.693   8.808  14.248
80057SOL    HW242005   1.568   8.723  14.241
80058SOL     OW42006   3.408  11.895   4.661
80058SOL    HW142007   3.462  11.956   4.711
80058SOL    HW242008   3.462  11.817   4.651
80059SOL     OW42009   7.415   3.030   4.484
80059SOL    HW142010   7.412   2.936   4.465
80059SOL    HW242011   7.471   3.037   4.561
80060SOL     OW42012  12.054   9.980   6.933
80060SOL    HW142013  12.022   9.920   7.000
80060SOL    HW242014  12.090  10.054   6.982
80061SOL     OW42015  10.223  11.602   8.100
80061SOL    HW142016  10.299  11.651   8.070
80061SOL    HW242017  10.257  11.515   8.124
80062SOL     OW42018   9.313  12.158  11.341
80062SOL    HW142019   9.401  12.190  11.322
80062SOL    HW242020   9.276  12.223  11.402
80063SOL     OW42021   5.062   5.862  12.407
80063SOL    HW142022   5.149   5.897  12.392
80063SOL    HW242023   5.019   5.865  12.322
80064SOL     OW42024  14.478   6.964  10.477
80064SOL    HW142025  14.483   7.060  10.477
80064SOL    HW242026  14.479   6.940  10.570
80065SOL     OW42027  12.977  10.501   3.001
80065SOL    HW142028  13.022  10.553   2.934
80065SOL    HW242029  12.886  10.530   2.997
80066SOL     OW42030  12.732   4.677   6.939
80066SOL    HW142031  12.670   4.605   6.936
80066SOL    HW242032  12.778   4.674   6.855
80067SOL     OW42033   6.706   9.475  13.313
80067SOL    HW142034   6.762   9.407  13.350
80067SOL    HW242035   6.768   9.540  13.279
80068SOL     OW42036  11.060   9.686   8.431
80068SOL    HW142037  10.974   9.720   8.456
80068SOL    HW242038  11.045   9.594   8.411
80069SOL     OW42039   0.232   0.423   5.333
80069SOL    HW142040   0.240   0.461   5.421
80069SOL    HW242041   0.243   0.329   5.346
80070SOL     OW42042   6.641   9.765   3.850
80070SOL    HW142043   6.641   9.820   3.771
80070SOL    HW242044   6.644   9.828   3.922
80071SOL     OW42045  11.372   0.076   6.762
80071SOL    HW142046  11.307   0.009   6.740
80071SOL    HW242047  11.322   0.157   6.769
80072SOL     OW42048   1.455   9.346   2.770
80072SOL    HW142049   1.424   9.269   2.817
80072SOL    HW242050   1.408   9.344   2.686
80073SOL     OW42051  10.088   0.163  14.822
80073SOL    HW142052  10.075   0.161  14.727
80073SOL    HW242053  10.116   0.253  14.840
80074SOL     OW42054   0.826   0.272   6.528
80074SOL    HW142055   0.860   0.273   6.439
80074SOL    HW242056   0.803   0.180   6.544
80075SOL     OW42057   2.552   1.948   0.828
80075SOL    HW142058   2.615   2.018   0.814
80075SOL    HW242059   2.528   1.955   0.921
80076SOL     OW42060   3.449   9.151   7.404
80076SOL    HW142061   3.496   9.203   7.338
80076SOL    HW242062   3.495   9.067   7.405
80077SOL     OW42063  12.740   1.686   6.097
80077SOL    HW142064  12.666   1.653   6.148
80077SOL    HW242065  12.762   1.770   6.137
80078SOL     OW42066   5.019   2.044   0.965
80078SOL    HW142067   4.967   1.965   0.982
80078SOL    HW242068   4.986   2.109   1.027
80079SOL     OW42069   0.442  14.068   8.808
80079SOL    HW142070   0.488  14.059   8.725
80079SOL    HW242071   0.376  13.999   8.806
80080SOL     OW42072   7.323   1.165   9.097
80080SOL    HW142073   7.255   1.231   9.086
80080SOL    HW242074   7.275   1.083   9.109
80081SOL     OW42075   2.438  13.181  10.631
80081SOL    HW142076   2.530  13.155  10.643
80081SOL    HW242077   2.435  13.218  10.543
80082SOL     OW42078   1.139  11.057   0.283
80082SOL    HW142079   1.128  10.966   0.254
80082SOL    HW242080   1.215  11.055   0.340
80083SOL     OW42081  13.040  10.141  12.095
80083SOL    HW142082  12.990  10.223  12.099
80083SOL    HW242083  12.984  10.081  12.047
80084SOL     OW42084  11.793   7.015   5.717
80084SOL    HW142085  11.858   6.954   5.753
80084SOL    HW242086  11.844   7.077   5.666
80085SOL     OW42087   9.690   6.585   7.514
80085SOL    HW142088   9.739   6.666   7.527
80085SOL    HW242089   9.685   6.545   7.600
80086SOL     OW42090   0.113  10.026   6.861
80086SOL    HW142091   0.079   9.938   6.843
80086SOL    HW242092   0.204  10.023   6.831
80087SOL     OW42093  14.694  14.489   2.209
80087SOL    HW142094  14.661  14.399   2.207
80087SOL    HW242095  14.635  14.535   2.268
80088SOL     OW42096   3.953   2.521   3.617
80088SOL    HW142097   3.943   2.606   3.661
80088SOL    HW242098   3.976   2.544   3.527
80089SOL     OW42099   6.651  12.651   8.026
80089SOL    HW142100   6.630  12.743   8.038
80089SOL    HW242101   6.706  12.648   7.948
80090SOL     OW42102   5.723   3.231  14.447
80090SOL    HW142103   5.767   3.165  14.501
80090SOL    HW242104   5.632   3.230  14.478
80091SOL     OW42105  13.361  11.882   1.305
80091SOL    HW142106  13.393  11.966   1.271
80091SOL    HW242107  13.317  11.841   1.230
80092SOL     OW42108   6.767   2.357   3.272
80092SOL    HW142109   6.832   2.292   3.300
80092SOL    HW242110   6.718   2.313   3.202
80093SOL     OW42111   2.741   2.329  12.242
80093SOL    HW142112   2.707   2.340  12.330
80093SOL    HW242113   2.829   2.367  12.245
80094SOL     OW42114   9.682   3.593  10.635
80094SOL    HW142115   9.729   3.675  10.620
80094SOL    HW242116   9.612   3.617  10.696
80095SOL     OW42117   8.091   6.886  13.092
80095SOL    HW142118   8.181   6.912  13.072
80095SOL    HW242119   8.053   6.862  13.007
80096SOL     OW42120  14.651   9.914   2.649
80096SOL    HW142121  14.581   9.932   2.587
80096SOL    HW242122  14.711   9.855   2.602
80097SOL     OW42123   0.739   8.687   8.236
80097SOL    HW142124   0.833   8.700   8.248
80097SOL    HW242125   0.723   8.704   8.143
80098SOL     OW42126   5.406   8.558   7.070
80098SOL    HW142127   5.485   8.593   7.111
80098SOL    HW242128   5.432   8.473   7.036
80099SOL     OW42129   0.848   0.229   9.618
80099SOL    HW142130   0.892   0.166   9.674
80099SOL    HW242131   0.833   0.305   9.674
80100SOL     OW42132   8.777   5.571   2.908
80100SOL    HW142133   8.854   5.597   2.858
80100SOL    HW242134   8.716   5.536   2.842
80101SOL     OW42135   7.807   2.974   1.446
80101SOL    HW142136   7.835   3.002   1.533
80101SOL    HW242137   7.835   2.883   1.440
80102SOL     OW42138   0.835  11.873  12.646
80102SOL    HW142139   0.830  11.882  12.741
80102SOL    HW242140   0.751  11.834  12.621
80103SOL     OW42141   8.602   0.945   2.601
80103SOL    HW142142   8.636   0.909   2.683
80103SOL    HW242143   8.570   0.869   2.553
80104SOL     OW42144   2.385  12.883  10.662
80104SOL    HW142145   2.357  12.970  10.633
80104SOL    HW242146   2.389  12.890  10.758
80105SOL     OW42147  11.578   5.387   2.382
80105SOL    HW142148  11.572   5.446   2.456
80105SOL    HW242149  11.487   5.371   2.356
80106SOL     OW42150   0.066  13.511   0.067
80106SOL    HW142151  14.872  13.484   0.010
80106SOL    HW242152   0.142  13.464   0.033
80107SOL     OW42153   6.937  11.224   1.122
80107SOL    HW142154   6.979  11.197   1.204
80107SOL    HW242155   6.978  11.308   1.101
80108SOL     OW42156   4.144  13.874   7.541
80108SOL    HW142157   4.123  13.806   7.605
80108SOL    HW242158   4.073  13.938   7.550
80109SOL     OW42159   9.235   4.988   9.925
80109SOL    HW142160   9.302   5.056   9.931
80109SOL    HW242161   9.163   5.029   9.877
80110SOL     OW42162   8.877  10.491   1.710
80110SOL    HW142163   8.899  10.435   1.784
80110SOL    HW242164   8.919  10.575   1.730
80111SOL     OW42165  14.321   9.499   2.670
80111SOL    HW142166  14.293   9.570   2.612
80111SOL    HW242167  14.416   9.493   2.657
80112SOL     OW42168  10.559   3.290  10.343
80112SOL    HW142169  10.535   3.341  10.265
80112SOL    HW242170  10.524   3.203  10.325
80113SOL     OW42171   9.163   2.682  14.012
80113SOL    HW142172   9.240   2.628  13.999
80113SOL    HW242173   9.103   2.655  13.942
80114SOL     OW42174  14.272  11.448   1.074
80114SOL    HW142175  14.217  11.399   1.013
80114SOL    HW242176  14.360  11.443   1.036
80115SOL     OW42177   9.291   8.346   6.409
80115SOL    HW142178   9.325   8.406   6.343
80115SOL    HW242179   9.323   8.382   6.492
80116SOL     OW42180  13.189   7.424  10.399
80116SOL    HW142181  13.126   7.371  10.447
80116SOL    HW242182  13.207   7.374  10.319
80117SOL     OW42183  10.137   0.063   8.727
80117SOL    HW142184  10.172  14.853   8.729
80117SOL    HW242185  10.172   0.101   8.646
80118SOL     OW42186  10.413  11.904   2.608
80118SOL    HW142187  10.374  11.883   2.523
80118SOL    HW242188  10.505  11.921   2.589
80119SOL     OW42189   9.856   6.239   6.426
80119SOL    HW142190   9.935   6.230   6.372
80119SOL    HW242191   9.842   6.152   6.463
80120SOL     OW42192  12.810  10.552  12.532
80120SOL    HW142193  12.726  10.582  12.496
80120SOL    HW242194  12.847  10.628  12.576
80121SOL     OW42195   2.385  14.682   0.428
80121SOL    HW142196   2.423  14.758   0.472
80121SOL    HW242197   2.460  14.626   0.408
80122SOL     OW42198   3.369   8.024   1.164
80122SOL    HW142199   3.387   8.108   1.122
80122SOL    HW242200   3.285   8.037   1.208
80123SOL     OW42201   5.253   2.926  13.616
80123SOL    HW142202   5.345   2.902  13.617
80123SOL    HW242203   5.211   2.858  13.562
80124SOL     OW42204   0.139   0.247   4.993
80124SOL    HW142205   0.084   0.169   5.003
80124SOL    HW242206   0.166   0.245   4.901
80125SOL     OW42207  11.295  10.919   1.548
80125SOL    HW142208  11.311  11.006   1.513
80125SOL    HW242209  11.204  10.922   1.578
80126SOL     OW42210   1.252   8.060   8.994
80126SOL    HW142211   1.180   8.111   8.957
80126SOL    HW242212   1.234   8.059   9.088
80127SOL     OW42213  14.032   2.051  10.139
80127SOL    HW142214  13.971   2.125  10.147
80127SOL    HW242215  13.985   1.987  10.086
80128SOL     OW42216   2.207   4.126   0.451
80128SOL    HW142217   2.192   4.106   0.359
80128SOL    HW242218   2.293   4.169   0.452
80129SOL     OW42219   3.121   3.343   2.386
80129SOL    HW142220   3.201   3.294   2.369
80129SOL    HW242221   3.066   3.283   2.437
80130SOL     OW42222   1.813   5.375   3.437
80130SOL    HW142223   1.805   5.419   3.522
80130SOL    HW242224   1.852   5.441   3.380
80131SOL     OW42225   7.755   5.026   8.331
80131SOL    HW142226   7.765   5.120   8.317
80131SOL    HW242227   7.839   4.997   8.367
80132SOL     OW42228   0.165  14.170   8.675
80132SOL    HW142229   0.224  14.168   8.750
80132SOL    HW242230   0.119  14.254   8.683
80133SOL     OW42231  11.029   7.509   7.757
80133SOL    HW142232  11.035   7.426   7.710
80133SOL    HW242233  10.983   7.568   7.697
80134SOL     OW42234   8.616   4.267   5.676
80134SOL    HW142235   8.535   4.316   5.661
80134SOL    HW242236   8.594   4.206   5.747
80135SOL     OW42237   2.083   6.597   6.281
80135SOL    HW142238   2.050   6.518   6.324
80135SOL    HW242239   2.174   6.577   6.260
80136SOL     OW42240   3.470  13.340  14.824
80136SOL    HW142241   3.450  13.258  14.778
80136SOL    HW242242   3.558  13.326  14.861
80137SOL     OW42243  13.490  11.353   8.245
80137SOL    HW142244  13.430  11.352   8.170
80137SOL    HW242245  13.458  11.284   8.303
80138SOL     OW42246  13.838   9.561  11.681
80138SOL    HW142247  13.919   9.613  11.678
80138SOL    HW242248  13.815   9.557  11.774
80139SOL     OW42249   0.344  13.413   5.165
80139SOL    HW142250   0.333  13.499   5.206
80139SOL    HW242251   0.363  13.354   5.238
80140SOL     OW42252   3.718   3.529   1.971
80140SOL    HW142253   3.782   3.475   1.925
80140SOL    HW242254   3.637   3.478   1.967
80141SOL     OW42255   9.385   9.058  10.597
80141SOL    HW142256   9.470   9.017  10.606
80141SOL    HW242257   9.352   9.028  10.513
80142SOL     OW42258   1.819  11.841  11.670
80142SOL    HW142259   1.763  11.865  11.744
80142SOL    HW242260   1.800  11.907  11.603
80143SOL     OW42261  13.553   0.465   5.579
80143SOL    HW142262  13.539   0.419   5.496
80143SOL    HW242263  13.556   0.558   5.555
80144SOL     OW42264   3.605   4.920   6.710
80144SOL    HW142265   3.548   4.864   6.658
80144SOL    HW242266   3.677   4.943   6.650
80145SOL     OW42267   8.528   0.795   9.773
80145SOL    HW142268   8.465   0.724   9.780
80145SOL    HW242269   8.587   0.782   9.847
80146SOL     OW42270   3.921  13.134   8.282
80146SOL    HW142271   3.930  13.070   8.212
80146SOL    HW242272   3.980  13.103   8.351
80147SOL     OW42273   3.377  14.371   6.119
80147SOL    HW142274   3.435  14.439   6.085
80147SOL    HW242275   3.384  14.378   6.214
80148SOL     OW42276   3.405  11.719   0.795
80148SOL    HW142277   3.468  11.727   0.866
80148SOL    HW242278   3.393  11.809   0.763
80149SOL     OW42279  12.817   0.327   3.455
80149SOL    HW142280  12.834   0.236   3.479
80149SOL    HW242281  12.728   0.326   3.420
80150SOL     OW42282   0.202   6.882   1.582
80150SOL    HW142283   0.152   6.832   1.518
80150SOL    HW242284   0.135   6.920   1.640
80151SOL     OW42285   2.594   9.369  13.216
80151SOL    HW142286   2.519   9.381  13.274
80151SOL    HW242287   2.602   9.274  13.207
80152SOL     OW42288   7.914   2.233   3.347
80152SOL    HW142289   7.871   2.219   3.431
80152SOL    HW242290   7.989   2.289   3.367
80153SOL     OW42291   1.551   9.475   7.718
80153SOL    HW142292   1.504   9.484   7.635
80153SOL    HW242293   1.639   9.448   7.693
80154SOL     OW42294   7.351   2.027   4.151
80154SOL    HW142295   7.345   2.116   4.116
80154SOL    HW242296   7.327   2.036   4.243
80155SOL     OW42297   7.942   4.403  11.460
80155SOL    HW142298   7.945   4.482  11.407
80155SOL    HW242299   7.966   4.333  11.400
80156SOL     OW42300  10.797   1.455  12.333
80156SOL    HW142301  10.775   1.375  12.381
80156SOL    HW242302  10.781   1.434  12.241
80157SOL     OW42303  11.723   5.017   7.465
80157SOL    HW142304  11.633   5.015   7.498
80157SOL    HW242305  11.717   4.981   7.377
80158SOL     OW42306   0.594  13.198   9.582
80158SOL    HW142307   0.520  13.160   9.631
80158SOL    HW242308   0.606  13.139   9.508
80159SOL     OW42309   7.698   2.181   8.413
80159SOL    HW142310   7.635   2.119   8.449
80159SOL    HW242311   7.776   2.172   8.467
80160SOL     OW42312  12.198  11.714  13.272
80160SOL    HW142313  12.187  11.645  13.338
80160SOL    HW242314  12.198  11.667  13.188
80161SOL     OW42315   6.997   3.546   8.238
80161SOL    HW142316   7.000   3.543   8.334
80161SOL    HW242317   6.968   3.458   8.213
80162SOL     OW42318   1.295   0.248  12.630
80162SOL    HW142319   1.294   0.169  12.576
80162SOL    HW242320   1.361   0.304  12.589
80163SOL     OW42321   1.576  10.128  14.190
80163SOL    HW142322   1.659  10.176  14.197
80163SOL    HW242323   1.509  10.196  14.192
80164SOL     OW42324  14.753  10.495   7.706
80164SOL    HW142325  14.766  10.583   7.670
80164SOL    HW242326  14.802  10.494   7.788
80165SOL     OW42327   5.432   5.795   4.988
80165SOL    HW142328   5.398   5.859   5.050
80165SOL    HW242329   5.397   5.711   5.017
80166SOL     OW42330  11.580   4.615   0.543
80166SOL    HW142331  11.551   4.579   0.459
80166SOL    HW242332  11.671   4.585   0.551
80167SOL     OW42333   7.733  12.800  11.365
80167SOL    HW142334   7.750  12.800  11.270
80167SOL    HW242335   7.809  12.756  11.402
80168SOL     OW42336   9.066  14.245   7.667
80168SOL    HW142337   8.995  14.226   7.606
80168SOL    HW242338   9.107  14.160   7.683
80169SOL     OW42339   2.629  11.896   6.061
80169SOL    HW142340   2.716  11.866   6.088
80169SOL    HW242341   2.569  11.851   6.121
80170SOL     OW42342   6.203   5.098   5.521
80170SOL    HW142343   6.281   5.088   5.576
80170SOL    HW242344   6.216   5.180   5.474
80171SOL     OW42345   0.805  13.600   3.637
80171SOL    HW142346   0.756  13.570   3.713
80171SOL    HW242347   0.766  13.553   3.563
80172SOL     OW42348  10.491   5.533   8.693
80172SOL    HW142349  10.487   5.441   8.667
80172SOL    HW242350  10.470   5.581   8.613
80173SOL     OW42351  10.659   0.141   7.375
80173SOL    HW142352  10.578   0.106   7.412
80173SOL    HW242353  10.663   0.102   7.288
80174SOL     OW42354   2.207   6.369   2.889
80174SOL    HW142355   2.137   6.377   2.953
80174SOL    HW242356   2.233   6.276   2.892
80175SOL     OW42357   9.634   6.717   0.660
80175SOL    HW142358   9.722   6.683   0.675
80175SOL    HW242359   9.578   6.640   0.663
80176SOL     OW42360  13.520   4.456  12.650
80176SOL    HW142361  13.488   4.425  12.735
80176SOL    HW242362  13.561   4.379  12.611
80177SOL     OW42363  10.869  11.350   0.021
80177SOL    HW142364  10.906  11.423  14.851
80177SOL    HW242365  10.863  11.383   0.111
80178SOL     OW42366   6.809   1.811   5.061
80178SOL    HW142367   6.816   1.781   5.152
80178SOL    HW242368   6.749   1.748   5.020
80179SOL     OW42369   2.079  10.760   5.147
80179SOL    HW142370   2.174  10.761   5.159
80179SOL    HW242371   2.056  10.667   5.142
80180SOL     OW42372   6.532   8.603  13.563
80180SOL    HW142373   6.450   8.555  13.561
80180SOL    HW242374   6.507   8.694  13.579
80181SOL     OW42375   8.740   9.764   7.030
80181SOL    HW142376   8.730   9.819   6.953
80181SOL    HW242377   8.830   9.732   7.026
80182SOL     OW42378  14.655  12.143  14.487
80182SOL    HW142379  14.604  12.162  14.408
80182SOL    HW242380  14.593  12.153  14.559
80183SOL     OW42381   0.004   1.656   2.333
80183SOL    HW142382  14.853   1.729   2.388
80183SOL    HW242383  14.872   1.688   2.244
80184SOL     OW42384   1.495  14.867  11.281
80184SOL    HW142385   1.589   0.002  11.269
80184SOL    HW242386   1.456   0.075  11.274
80185SOL     OW42387   4.440   5.113   4.537
80185SOL    HW142388   4.479   5.036   4.495
80185SOL    HW242389   4.365   5.134   4.482
80186SOL     OW42390   7.783   8.698  12.072
80186SOL    HW142391   7.802   8.611  12.105
80186SOL    HW242392   7.830   8.757  12.131
80187SOL     OW42393  12.647   3.570  10.734
80187SOL    HW142394  12.708   3.641  10.713
80187SOL    HW242395  12.702   3.503  10.775
80188SOL     OW42396   4.642   6.422   6.243
80188SOL    HW142397   4.663   6.350   6.302
80188SOL    HW242398   4.615   6.380   6.161
80189SOL     OW42399   7.731  12.415   2.796
80189SOL    HW142400   7.741  12.395   2.703
80189SOL    HW242401   7.666  12.352   2.827
80190SOL     OW42402  10.380  10.942  11.221
80190SOL    HW142403  10.468  10.957  11.186
80190SOL    HW242404  10.332  11.023  11.202
80191SOL     OW42405   1.669   7.886   6.374
80191SOL    HW142406   1.575   7.903   6.371
80191SOL    HW242407   1.677   7.791   6.384
80192SOL     OW42408  12.995   4.048  13.698
80192SOL    HW142409  13.013   4.017  13.786
80192SOL    HW242410  12.996   3.969  13.644
80193SOL     OW42411   6.922   9.644  13.238
80193SOL    HW142412   7.009   9.616  13.266
80193SOL    HW242413   6.930   9.657  13.144
80194SOL     OW42414  12.135   0.515   8.911
80194SOL    HW142415  12.048   0.526   8.949
80194SOL    HW242416  12.119   0.474   8.826
80195SOL     OW42417   8.965   4.141  12.834
80195SOL    HW142418   8.919   4.126  12.916
80195SOL    HW242419   8.901   4.121  12.766
80196SOL     OW42420   2.321   9.627   9.853
80196SOL    HW142421   2.292   9.613   9.943
80196SOL    HW242422   2.262   9.693   9.819
80197SOL     OW42423   2.290   0.686   5.288
80197SOL    HW142424   2.322   0.607   5.331
80197SOL    HW242425   2.272   0.747   5.360
80198SOL     OW42426   9.695  11.507   1.245
80198SOL    HW142427   9.602  11.506   1.220
80198SOL    HW242428   9.705  11.435   1.307
80199SOL     OW42429  10.866  10.458  10.432
80199SOL    HW142430  10.800  10.388  10.429
80199SOL    HW242431  10.941  10.423  10.384
80200SOL     OW42432  11.006   6.732  11.595
80200SOL    HW142433  11.017   6.637  11.590
80200SOL    HW242434  10.976   6.757  11.508
80201SOL     OW42435  14.327  14.712   4.781
80201SOL    HW142436  14.411  14.757   4.768
80201SOL    HW242437  14.352  14.624   4.811
80202SOL     OW42438   3.425  11.871  12.971
80202SOL    HW142439   3.364  11.934  12.932
80202SOL    HW242440   3.511  11.900  12.942
80203SOL     OW42441   2.251   5.966  12.265
80203SOL    HW142442   2.254   5.953  12.359
80203SOL    HW242443   2.196   5.895  12.232
80204SOL     OW42444  11.813   5.939  13.209
80204SOL    HW142445  11.808   5.970  13.299
80204SOL    HW242446  11.746   5.871  13.204
80205SOL     OW42447  14.440  11.738  10.637
80205SOL    HW142448  14.429  11.783  10.720
80205SOL    HW242449  14.440  11.645  10.660
80206SOL     OW42450   8.980   4.709   3.593
80206SOL    HW142451   8.972   4.764   3.670
80206SOL    HW242452   9.059   4.740   3.549
80207SOL     OW42453  11.973   2.660   9.789
80207SOL    HW142454  12.034   2.633   9.721
80207SOL    HW242455  12.016   2.638   9.872
80208SOL     OW42456  10.795   5.638   8.758
80208SOL    HW142457  10.847   5.557   8.759
80208SOL    HW242458  10.705   5.609   8.744
80209SOL     OW42459  11.617  12.241   1.963
80209SOL    HW142460  11.576  12.166   2.007
80209SOL    HW242461  11.680  12.275   2.026
80210SOL     OW42462   3.567   1.752  14.626
80210SOL    HW142463   3.557   1.661  14.651
80210SOL    HW242464   3.625   1.789  14.693
80211SOL     OW42465   2.602   7.572   3.855
80211SOL    HW142466   2.634   7.605   3.939
80211SOL    HW242467   2.577   7.481   3.873
80212SOL     OW42468   0.526  14.832  14.284
80212SOL    HW142469   0.500  14.771  14.353
80212SOL    HW242470   0.543   0.035  14.331
80213SOL     OW42471  13.755   5.255  11.801
80213SOL    HW142472  13.668   5.252  11.761
80213SOL    HW242473  13.738   5.281  11.892
80214SOL     OW42474  11.623   2.170  10.167
80214SOL    HW142475  11.585   2.258  10.170
80214SOL    HW242476  11.681   2.172  10.091
80215SOL     OW42477   6.574   1.316   6.226
80215SOL    HW142478   6.664   1.343   6.244
80215SOL    HW242479   6.536   1.388   6.176
80216SOL     OW42480   6.834   9.204   1.616
80216SOL    HW142481   6.912   9.260   1.612
80216SOL    HW242482   6.855   9.129   1.559
80217SOL     OW42483  14.786   4.337   4.936
80217SOL    HW142484  14.841   4.336   5.014
80217SOL    HW242485  14.804   4.421   4.894
80218SOL     OW42486   8.758   1.841  12.320
80218SOL    HW142487   8.802   1.761  12.293
80218SOL    HW242488   8.764   1.899  12.244
80219SOL     OW42489   6.397   1.546  12.002
80219SOL    HW142490   6.475   1.555  12.057
80219SOL    HW242491   6.346   1.624  12.019
80220SOL     OW42492   9.056   7.171   5.042
80220SOL    HW142493   9.014   7.255   5.021
80220SOL    HW242494   8.985   7.115   5.070
80221SOL     OW42495  11.209  10.243   5.290
80221SOL    HW142496  11.197  10.331   5.254
80221SOL    HW242497  11.212  10.256   5.385
80222SOL     OW42498  14.168  11.445   4.773
80222SOL    HW142499  14.148  11.363   4.728
80222SOL    HW242500  14.240  11.484   4.723
80223SOL     OW42501   7.127   8.607  14.416
80223SOL    HW142502   7.217   8.595  14.448
80223SOL    HW242503   7.072   8.572  14.485
80224SOL     OW42504   4.266  10.672   9.669
80224SOL    HW142505   4.196  10.645   9.610
80224SOL    HW242506   4.255  10.767   9.676
80225SOL     OW42507   0.035   5.380   0.367
80225SOL    HW142508  14.836   5.385   0.421
80225SOL    HW242509   0.059   5.472   0.351
80226SOL     OW42510  13.723   3.939  14.715
80226SOL    HW142511  13.710   3.855  14.670
80226SOL    HW242512  13.710   4.005  14.647
80227SOL     OW42513   5.725   3.650  12.748
80227SOL    HW142514   5.777   3.609  12.678
80227SOL    HW242515   5.759   3.612  12.829
80228SOL     OW42516   4.282   9.020   7.178
80228SOL    HW142517   4.220   9.088   7.153
80228SOL    HW242518   4.367   9.054   7.151
80229SOL     OW42519  11.158   6.729   0.868
80229SOL    HW142520  11.168   6.691   0.955
80229SOL    HW242521  11.063   6.730   0.854
80230SOL     OW42522   6.513   1.196   2.269
80230SOL    HW142523   6.546   1.278   2.306
80230SOL    HW242524   6.425   1.218   2.237
80231SOL     OW42525   4.106  10.358  13.946
80231SOL    HW142526   4.083  10.448  13.921
80231SOL    HW242527   4.185  10.367  13.999
80232SOL     OW42528  11.277   4.933  10.111
80232SOL    HW142529  11.240   4.845  10.113
80232SOL    HW242530  11.219   4.985  10.167
80233SOL     OW42531   6.096  11.865   5.455
80233SOL    HW142532   6.124  11.853   5.546
80233SOL    HW242533   6.176  11.886   5.407
80234SOL     OW42534   4.734   0.837  12.816
80234SOL    HW142535   4.806   0.827  12.753
80234SOL    HW242536   4.668   0.775  12.786
80235SOL     OW42537   7.433   7.264  12.918
80235SOL    HW142538   7.522   7.286  12.945
80235SOL    HW242539   7.439   7.257  12.822
80236SOL     OW42540   0.615   9.762  10.868
80236SOL    HW142541   0.710   9.748  10.859
80236SOL    HW242542   0.585   9.778  10.778
80237SOL     OW42543   1.934   0.870   7.883
80237SOL    HW142544   1.838   0.871   7.876
80237SOL    HW242545   1.955   0.951   7.930
80238SOL     OW42546   5.734   9.562  14.862
80238SOL    HW142547   5.661   9.613   0.019
80238SOL    HW242548   5.723   9.475   0.022
80239SOL     OW42549   2.188   4.248  13.339
80239SOL    HW142550   2.221   4.189  13.271
80239SOL    HW242551   2.253   4.242  13.409
80240SOL     OW42552   4.950   9.404   6.971
80240SOL    HW142553   4.991   9.336   7.024
80240SOL    HW242554   4.913   9.465   7.034
80241SOL     OW42555   2.191   3.080  13.377
80241SOL    HW142556   2.218   3.108  13.290
80241SOL    HW242557   2.235   3.142  13.436
80242SOL     OW42558   2.043   2.899   0.587
80242SOL    HW142559   2.108   2.915   0.518
80242SOL    HW242560   2.000   2.818   0.561
80243SOL     OW42561   5.440  13.333   3.666
80243SOL    HW142562   5.459  13.244   3.697
80243SOL    HW242563   5.526  13.371   3.646
80244SOL     OW42564  10.681   2.754  11.997
80244SOL    HW142565  10.616   2.763  11.927
80244SOL    HW242566  10.749   2.818  11.975
80245SOL     OW42567   3.272  12.381   0.949
80245SOL    HW142568   3.207  12.451   0.963
80245SOL    HW242569   3.353  12.428   0.928
80246SOL     OW42570   7.848   7.432   1.859
80246SOL    HW142571   7.846   7.472   1.946
80246SOL    HW242572   7.849   7.506   1.798
80247SOL     OW42573   0.129   7.285  11.287
80247SOL    HW142574   0.127   7.195  11.318
80247SOL    HW242575   0.218   7.297  11.254
80248SOL     OW42576   9.823   3.852   0.539
80248SOL    HW142577   9.747   3.887   0.587
80248SOL    HW242578   9.856   3.927   0.489
80249SOL     OW42579  10.202   7.159   7.734
80249SOL    HW142580  10.166   7.150   7.646
80249SOL    HW242581  10.189   7.251   7.757
80250SOL     OW42582  14.746   7.492   3.824
80250SOL    HW142583  14.807   7.456   3.761
80250SOL    HW242584  14.801   7.539   3.887
80251SOL     OW42585   8.825  13.778   8.653
80251SOL    HW142586   8.812  13.871   8.675
80251SOL    HW242587   8.752  13.733   8.694
80252SOL     OW42588   4.759  10.521  14.742
80252SOL    HW142589   4.683  10.477  14.705
80252SOL    HW242590   4.727  10.608  14.766
80253SOL     OW42591  11.514  10.757   7.370
80253SOL    HW142592  11.463  10.832   7.341
80253SOL    HW242593  11.463  10.719   7.442
80254SOL     OW42594  11.830  12.962  13.355
80254SOL    HW142595  11.827  13.057  13.344
80254SOL    HW242596  11.754  12.943  13.411
80255SOL     OW42597  13.896   9.994  13.797
80255SOL    HW142598  13.819  10.016  13.850
80255SOL    HW242599  13.890  10.053  13.722
80256SOL     OW42600   2.334   8.752  13.405
80256SOL    HW142601   2.311   8.678  13.347
80256SOL    HW242602   2.262   8.814  13.393
80257SOL     OW42603   0.959   3.110  11.860
80257SOL    HW142604   0.896   3.167  11.815
80257SOL    HW242605   0.982   3.044  11.795
80258SOL     OW42606   7.146   0.982  14.293
80258SOL    HW142607   7.076   0.942  14.242
80258SOL    HW242608   7.226   0.948  14.254
80259SOL     OW42609   1.427   6.584   2.633
80259SOL    HW142610   1.486   6.603   2.560
80259SOL    HW242611   1.476   6.524   2.688
80260SOL     OW42612   6.924  14.108   5.537
80260SOL    HW142613   6.875  14.170   5.590
80260SOL    HW242614   6.898  14.128   5.447
80261SOL     OW42615   7.924  13.212   4.498
80261SOL    HW142616   7.981  13.285   4.473
80261SOL    HW242617   7.858  13.208   4.429
80262SOL     OW42618   8.743   3.704   9.756
80262SOL    HW142619   8.821   3.692   9.701
80262SOL    HW242620   8.757   3.787   9.800
80263SOL     OW42621   0.537   4.159   1.861
80263SOL    HW142622   0.511   4.084   1.914
80263SOL    HW242623   0.569   4.223   1.925
80264SOL     OW42624   3.780   2.543   7.494
80264SOL    HW142625   3.828   2.616   7.453
80264SOL    HW242626   3.752   2.578   7.578
80265SOL     OW42627   5.298   4.372   5.931
80265SOL    HW142628   5.340   4.348   6.013
80265SOL    HW242629   5.326   4.462   5.914
80266SOL     OW42630   1.368  11.846   3.150
80266SOL    HW142631   1.286  11.893   3.162
80266SOL    HW242632   1.399  11.830   3.239
80267SOL     OW42633  10.519   7.449   2.778
80267SOL    HW142634  10.493   7.526   2.829
80267SOL    HW242635  10.500   7.375   2.836
80268SOL     OW42636   8.982  14.526   8.334
80268SOL    HW142637   9.039  14.451   8.319
80268SOL    HW242638   9.037  14.590   8.380
80269SOL     OW42639   7.125   5.685   4.185
80269SOL    HW142640   7.094   5.688   4.095
80269SOL    HW242641   7.216   5.658   4.179
80270SOL     OW42642   4.959   7.352  14.200
80270SOL    HW142643   4.924   7.420  14.257
80270SOL    HW242644   4.956   7.390  14.112
80271SOL     OW42645   3.774  13.586   9.825
80271SOL    HW142646   3.801  13.538   9.747
80271SOL    HW242647   3.831  13.663   9.828
80272SOL     OW42648   8.801   4.095  13.040
80272SOL    HW142649   8.713   4.123  13.016
80272SOL    HW242650   8.788   4.031  13.111
80273SOL     OW42651  14.587   3.542   5.234
80273SOL    HW142652  14.586   3.472   5.300
80273SOL    HW242653  14.543   3.616   5.277
80274SOL     OW42654   4.744   6.718   0.167
80274SOL    HW142655   4.772   6.797   0.213
80274SOL    HW242656   4.689   6.671   0.229
80275SOL     OW42657   4.717   9.287   5.901
80275SOL    HW142658   4.672   9.278   5.985
80275SOL    HW242659   4.730   9.381   5.891
80276SOL     OW42660   1.100  10.367  12.381
80276SOL    HW142661   1.127  10.393  12.293
80276SOL    HW242662   1.117  10.273  12.384
80277SOL     OW42663   9.615  11.313  13.690
80277SOL    HW142664   9.633  11.243  13.752
80277SOL    HW242665   9.540  11.282  13.640
80278SOL     OW42666   1.111   6.198   7.241
80278SOL    HW142667   1.144   6.287   7.226
80278SOL    HW242668   1.153   6.170   7.322
80279SOL     OW42669  11.142   8.271   6.924
80279SOL    HW142670  11.091   8.214   6.866
80279SOL    HW242671  11.095   8.355   6.922
80280SOL     OW42672   1.729  14.233   1.932
80280SOL    HW142673   1.728  14.206   2.024
80280SOL    HW242674   1.673  14.169   1.887
80281SOL     OW42675   2.394   7.946  12.726
80281SOL    HW142676   2.390   7.944  12.822
80281SOL    HW242677   2.394   7.853  12.700
80282SOL     OW42678  14.488   4.420  11.311
80282SOL    HW142679  14.551   4.492  11.304
80282SOL    HW242680  14.486   4.381  11.223
80283SOL     OW42681  10.881  10.067   8.882
80283SOL    HW142682  10.946  10.089   8.815
80283SOL    HW242683  10.867   9.973   8.872
80284SOL     OW42684   6.400   3.353  12.715
80284SOL    HW142685   6.411   3.260  12.733
80284SOL    HW242686   6.323   3.357  12.657
80285SOL     OW42687  14.144  11.122  14.266
80285SOL    HW142688  14.227  11.113  14.220
80285SOL    HW242689  14.080  11.137  14.196
80286SOL     OW42690   2.644   3.178   5.387
80286SOL    HW142691   2.709   3.215   5.327
80286SOL    HW242692   2.671   3.087   5.399
80287SOL     OW42693  10.694   7.191   8.625
80287SOL    HW142694  10.774   7.200   8.677
80287SOL    HW242695  10.670   7.280   8.602
80288SOL     OW42696  10.573   8.008   2.598
80288SOL    HW142697  10.606   8.020   2.508
80288SOL    HW242698  10.562   7.914   2.607
80289SOL     OW42699   1.917   5.288  11.598
80289SOL    HW142700   1.882   5.374  11.622
80289SOL    HW242701   1.916   5.287  11.503
80290SOL     OW42702  12.616  12.075  11.063
80290SOL    HW142703  12.581  12.026  10.989
80290SOL    HW242704  12.632  12.162  11.029
80291SOL     OW42705   5.509   4.396  12.282
80291SOL    HW142706   5.592   4.400  12.329
80291SOL    HW242707   5.474   4.485  12.285
80292SOL     OW42708  13.233   2.515   7.234
80292SOL    HW142709  13.146   2.506   7.274
80292SOL    HW242710  13.260   2.426   7.214
80293SOL     OW42711  12.401   2.196   3.070
80293SOL    HW142712  12.455   2.183   2.992
80293SOL    HW242713  12.359   2.281   3.057
80294SOL     OW42714   4.174  10.959   4.924
80294SOL    HW142715   4.087  11.000   4.920
80294SOL    HW242716   4.166  10.882   4.868
80295SOL     OW42717   2.548  13.447   3.151
80295SOL    HW142718   2.505  13.373   3.108
80295SOL    HW242719   2.478  13.511   3.165
80296SOL     OW42720   8.103  11.747   2.383
80296SOL    HW142721   8.140  11.660   2.394
80296SOL    HW242722   8.174  11.800   2.347
80297SOL     OW42723   3.165   8.151  12.263
80297SOL    HW142724   3.255   8.149  12.295
80297SOL    HW242725   3.112   8.158  12.343
80298SOL     OW42726   3.195   0.831   1.475
80298SOL    HW142727   3.252   0.887   1.423
80298SOL    HW242728   3.145   0.891   1.530
80299SOL     OW42729   9.545   3.689   2.406
80299SOL    HW142730   9.543   3.649   2.319
80299SOL    HW242731   9.473   3.646   2.453
80300SOL     OW42732  14.019  12.804   7.495
80300SOL    HW142733  13.970  12.772   7.572
80300SOL    HW242734  14.050  12.891   7.521
80301SOL     OW42735   1.689   8.373  12.784
80301SOL    HW142736   1.656   8.346  12.698
80301SOL    HW242737   1.748   8.302  12.810
80302SOL     OW42738   6.626   8.715   4.772
80302SOL    HW142739   6.579   8.776   4.828
80302SOL    HW242740   6.557   8.664   4.730
80303SOL     OW42741   3.876  13.374   9.694
80303SOL    HW142742   3.819  13.385   9.618
80303SOL    HW242743   3.953  13.328   9.660
80304SOL     OW42744  10.621   7.143   1.117
80304SOL    HW142745  10.654   7.092   1.191
80304SOL    HW242746  10.682   7.216   1.109
80305SOL     OW42747  12.922   6.647   4.584
80305SOL    HW142748  12.941   6.554   4.573
80305SOL    HW242749  13.000   6.691   4.552
80306SOL     OW42750   5.967  14.006   9.134
80306SOL    HW142751   5.878  14.036   9.117
80306SOL    HW242752   5.998  13.974   9.049
80307SOL     OW42753  14.823  13.052   3.530
80307SOL    HW142754  14.823  12.994   3.454
80307SOL    HW242755  14.779  13.001   3.598
80308SOL     OW42756   1.326   5.841  13.351
80308SOL    HW142757   1.393   5.800  13.406
80308SOL    HW242758   1.368   5.921  13.319
80309SOL     OW42759   6.971  13.298   1.240
80309SOL    HW142760   6.961  13.384   1.199
80309SOL    HW242761   7.047  13.308   1.297
80310SOL     OW42762   5.032   8.723   6.656
80310SOL    HW142763   5.106   8.692   6.605
80310SOL    HW242764   4.955   8.691   6.610
80311SOL     OW42765  11.203   1.534   8.029
80311SOL    HW142766  11.176   1.539   8.121
80311SOL    HW242767  11.229   1.442   8.018
80312SOL     OW42768   8.931  11.561  10.891
80312SOL    HW142769   8.854  11.509  10.914
80312SOL    HW242770   8.895  11.644  10.860
80313SOL     OW42771   9.339  12.727  14.014
80313SOL    HW142772   9.261  12.773  14.047
80313SOL    HW242773   9.381  12.692  14.093
80314SOL     OW42774   8.959   9.197   2.628
80314SOL    HW142775   8.994   9.109   2.613
80314SOL    HW242776   8.932   9.196   2.720
80315SOL     OW42777   3.134  13.199  14.284
80315SOL    HW142778   3.065  13.171  14.224
80315SOL    HW242779   3.205  13.227  14.227
80316SOL     OW42780   7.015   4.629   6.493
80316SOL    HW142781   7.007   4.717   6.530
80316SOL    HW242782   6.995   4.570   6.565
80317SOL     OW42783  14.812   8.032   9.387
80317SOL    HW142784  14.764   7.967   9.335
80317SOL    HW242785  14.855   8.087   9.321
80318SOL     OW42786  13.530   4.220   6.190
80318SOL    HW142787  13.450   4.169   6.181
80318SOL    HW242788  13.536   4.238   6.284
80319SOL     OW42789  12.289   9.112   0.315
80319SOL    HW142790  12.327   9.070   0.237
80319SOL    HW242791  12.197   9.124   0.294
80320SOL     OW42792  12.142   7.696  13.603
80320SOL    HW142793  12.114   7.780  13.641
80320SOL    HW242794  12.067   7.638  13.614
80321SOL     OW42795  12.805  10.282   2.678
80321SOL    HW142796  12.743  10.341   2.636
80321SOL    HW242797  12.882  10.336   2.695
80322SOL     OW42798   5.230   8.748  14.633
80322SOL    HW142799   5.209   8.810  14.563
80322SOL    HW242800   5.325   8.739  14.629
80323SOL     OW42801   0.386   8.170  10.149
80323SOL    HW142802   0.465   8.148  10.099
80323SOL    HW242803   0.417   8.181  10.238
80324SOL     OW42804   7.353   3.207   5.763
80324SOL    HW142805   7.304   3.127   5.743
80324SOL    HW242806   7.287   3.267   5.798
80325SOL     OW42807   0.031   9.785  12.291
80325SOL    HW142808   0.003   9.798  12.382
80325SOL    HW242809   0.123   9.759  12.298
80326SOL     OW42810   9.930   9.172   5.314
80326SOL    HW142811   9.902   9.234   5.247
80326SOL    HW242812  10.004   9.125   5.275
80327SOL     OW42813  10.987  12.426  14.387
80327SOL    HW142814  10.992  12.353  14.449
80327SOL    HW242815  11.049  12.490  14.421
80328SOL     OW42816   1.436   9.919  10.711
80328SOL    HW142817   1.465   9.892  10.623
80328SOL    HW242818   1.455   9.844  10.767
80329SOL     OW42819   6.234   4.366   4.962
80329SOL    HW142820   6.263   4.371   5.053
80329SOL    HW242821   6.144   4.333   4.968
80330SOL     OW42822  14.597   9.965  10.317
80330SOL    HW142823  14.548   9.984  10.237
80330SOL    HW242824  14.580   9.872  10.334
80331SOL     OW42825  12.376  13.591   2.888
80331SOL    HW142826  12.388  13.647   2.964
80331SOL    HW242827  12.281  13.582   2.880
80332SOL     OW42828   0.262   0.484  12.372
80332SOL    HW142829   0.241   0.400  12.413
80332SOL    HW242830   0.206   0.488  12.295
80333SOL     OW42831   8.309   6.010   5.054
80333SOL    HW142832   8.262   5.935   5.016
80333SOL    HW242833   8.241   6.074   5.074
80334SOL     OW42834   2.370  11.917  11.285
80334SOL    HW142835   2.319  11.921  11.204
80334SOL    HW242836   2.319  11.966  11.348
80335SOL     OW42837   1.965   3.790  11.941
80335SOL    HW142838   1.905   3.853  11.901
80335SOL    HW242839   2.046   3.800  11.891
80336SOL     OW42840   8.888  11.587  14.586
80336SOL    HW142841   8.910  11.678  14.564
80336SOL    HW242842   8.842  11.593  14.670
80337SOL     OW42843  12.978   5.356  12.807
80337SOL    HW142844  12.883   5.346  12.811
80337SOL    HW242845  12.992   5.438  12.759
80338SOL     OW42846  14.390   7.731  14.808
80338SOL    HW142847  14.394   7.718   0.024
80338SOL    HW242848  14.402   7.644  14.771
80339SOL     OW42849   8.601   4.418   3.727
80339SOL    HW142850   8.553   4.443   3.806
80339SOL    HW242851   8.533   4.405   3.661
80340SOL     OW42852  11.122   5.483  12.031
80340SOL    HW142853  11.028   5.480  12.053
80340SOL    HW242854  11.129   5.551  11.964
80341SOL     OW42855  10.476   1.689   7.799
80341SOL    HW142856  10.441   1.753   7.861
80341SOL    HW242857  10.458   1.604   7.840
80342SOL     OW42858   0.842   0.658   9.494
80342SOL    HW142859   0.884   0.595   9.435
80342SOL    HW242860   0.905   0.730   9.501
80343SOL     OW42861   9.909  13.145  12.626
80343SOL    HW142862   9.850  13.205  12.672
80343SOL    HW242863   9.988  13.196  12.609
80344SOL     OW42864   4.363   6.529   2.022
80344SOL    HW142865   4.335   6.605   1.971
80344SOL    HW242866   4.291   6.467   2.013
80345SOL     OW42867  10.475   5.860   9.712
80345SOL    HW142868  10.507   5.868   9.802
80345SOL    HW242869  10.552   5.834   9.661
80346SOL     OW42870  11.806  13.244   8.125
80346SOL    HW142871  11.712  13.224   8.119
80346SOL    HW242872  11.847  13.159   8.144
80347SOL     OW42873   1.101   6.540   9.344
80347SOL    HW142874   1.085   6.589   9.424
80347SOL    HW242875   1.023   6.485   9.333
80348SOL     OW42876  10.977   4.355  14.192
80348SOL    HW142877  11.021   4.306  14.123
80348SOL    HW242878  10.930   4.425  14.147
80349SOL     OW42879   0.907   9.209  11.375
80349SOL    HW142880   0.899   9.301  11.350
80349SOL    HW242881   0.973   9.173  11.316
80350SOL     OW42882   8.631  11.764   7.666
80350SOL    HW142883   8.640  11.856   7.641
80350SOL    HW242884   8.701  11.748   7.729
80351SOL     OW42885   7.800   1.237  10.967
80351SOL    HW142886   7.744   1.293  10.913
80351SOL    HW242887   7.764   1.149  10.954
80352SOL     OW42888   5.891   9.384  14.018
80352SOL    HW142889   5.921   9.446  13.952
80352SOL    HW242890   5.929   9.416  14.100
80353SOL     OW42891   1.054   2.826   6.931
80353SOL    HW142892   1.020   2.840   7.020
80353SOL    HW242893   1.038   2.909   6.886
80354SOL     OW42894   8.532   4.762   1.188
80354SOL    HW142895   8.517   4.705   1.112
80354SOL    HW242896   8.626   4.781   1.184
80355SOL     OW42897   3.296  13.852   9.059
80355SOL    HW142898   3.366  13.830   8.997
80355SOL    HW242899   3.304  13.947   9.072
80356SOL     OW42900   6.181  14.037   6.063
80356SOL    HW142901   6.199  13.949   6.029
80356SOL    HW242902   6.132  14.080   5.993
80357SOL     OW42903  14.274   3.470   1.450
80357SOL    HW142904  14.312   3.557   1.434
80357SOL    HW242905  14.347   3.409   1.439
80358SOL     OW42906  13.348   7.779   5.616
80358SOL    HW142907  13.392   7.746   5.695
80358SOL    HW242908  13.340   7.873   5.630
80359SOL     OW42909  14.744   8.554  10.188
80359SOL    HW142910  14.767   8.618  10.122
80359SOL    HW242911  14.648   8.559  10.195
80360SOL     OW42912  12.457  11.955  10.864
80360SOL    HW142913  12.400  12.032  10.858
80360SOL    HW242914  12.485  11.939  10.774
80361SOL     OW42915   9.412   5.388  13.776
80361SOL    HW142916   9.501   5.415  13.756
80361SOL    HW242917   9.367   5.468  13.803
80362SOL     OW42918   7.657   6.993   6.869
80362SOL    HW142919   7.603   6.981   6.947
80362SOL    HW242920   7.595   6.997   6.797
80363SOL     OW42921   4.713  11.345   8.220
80363SOL    HW142922   4.641  11.353   8.283
80363SOL    HW242923   4.786  11.311   8.271
80364SOL     OW42924   3.828  14.017  12.372
80364SOL    HW142925   3.849  14.021  12.278
80364SOL    HW242926   3.835  14.107  12.402
80365SOL     OW42927   4.092   9.073  11.310
80365SOL    HW142928   4.014   9.089  11.363
80365SOL    HW242929   4.101   8.978  11.309
80366SOL     OW42930  14.036   5.021   0.799
80366SOL    HW142931  13.972   4.954   0.821
80366SOL    HW242932  14.037   5.024   0.704
80367SOL     OW42933  14.823   5.381  11.724
80367SOL    HW142934   0.007   5.356  11.791
80367SOL    HW242935  14.749   5.417  11.773
80368SOL     OW42936   4.644   9.857   5.426
80368SOL    HW142937   4.621   9.928   5.366
80368SOL    HW242938   4.565   9.841   5.477
80369SOL     OW42939  13.742   1.142  12.436
80369SOL    HW142940  13.683   1.154  12.510
80369SOL    HW242941  13.738   1.048  12.418
80370SOL     OW42942  14.499   6.244   7.216
80370SOL    HW142943  14.488   6.178   7.285
80370SOL    HW242944  14.561   6.307   7.252
80371SOL     OW42945   6.473   4.506   9.068
80371SOL    HW142946   6.392   4.544   9.104
80371SOL    HW242947   6.468   4.413   9.091
80372SOL     OW42948   9.384   8.198   0.706
80372SOL    HW142949   9.464   8.241   0.676
80372SOL    HW242950   9.330   8.190   0.627
80373SOL     OW42951   9.375   6.946   0.911
80373SOL    HW142952   9.403   6.921   0.823
80373SOL    HW242953   9.279   6.947   0.906
80374SOL     OW42954  11.287  10.934  12.342
80374SOL    HW142955  11.277  11.022  12.380
80374SOL    HW242956  11.206  10.920  12.293
80375SOL     OW42957  11.795  14.271   5.508
80375SOL    HW142958  11.779  14.264   5.414
80375SOL    HW242959  11.748  14.198   5.546
80376SOL     OW42960  12.449   5.565   3.635
80376SOL    HW142961  12.481   5.655   3.629
80376SOL    HW242962  12.385   5.558   3.564
80377SOL     OW42963  13.856   7.227   0.915
80377SOL    HW142964  13.849   7.141   0.874
80377SOL    HW242965  13.862   7.288   0.842
80378SOL     OW42966   9.061   7.445   7.676
80378SOL    HW142967   9.043   7.501   7.751
80378SOL    HW242968   9.102   7.504   7.612
80379SOL     OW42969   2.139   4.399   1.698
80379SOL    HW142970   2.168   4.311   1.674
80379SOL    HW242971   2.199   4.425   1.768
80380SOL     OW42972   7.342   2.850   4.150
80380SOL    HW142973   7.400   2.899   4.092
80380SOL    HW242974   7.384   2.856   4.236
80381SOL     OW42975   7.875   6.770   1.196
80381SOL    HW142976   7.818   6.815   1.257
80381SOL    HW242977   7.913   6.698   1.247
80382SOL     OW42978   3.543  13.139  11.228
80382SOL    HW142979   3.504  13.099  11.306
80382SOL    HW242980   3.490  13.216  11.212
80383SOL     OW42981  13.435   7.753   3.902
80383SOL    HW142982  13.365   7.817   3.894
80383SOL    HW242983  13.391   7.674   3.935
80384SOL     OW42984   5.252   7.627   4.485
80384SOL    HW142985   5.313   7.611   4.413
80384SOL    HW242986   5.301   7.604   4.564
80385SOL     OW42987  10.747   4.341  11.166
80385SOL    HW142988  10.745   4.433  11.194
80385SOL    HW242989  10.670   4.302  11.208
80386SOL     OW42990  14.692   1.365   2.571
80386SOL    HW142991  14.680   1.282   2.525
80386SOL    HW242992  14.634   1.426   2.526
80387SOL     OW42993   2.993   1.810   0.635
80387SOL    HW142994   3.044   1.775   0.562
80387SOL    HW242995   2.914   1.846   0.594
80388SOL     OW42996   2.049   7.524  12.403
80388SOL    HW142997   1.970   7.577  12.391
80388SOL    HW242998   2.121   7.582  12.379
80389SOL     OW42999   4.800   1.556   2.786
80389SOL    HW143000   4.743   1.582   2.859
80389SOL    HW243001   4.808   1.635   2.732
80390SOL     OW43002  10.832   2.199  14.137
80390SOL    HW143003  10.822   2.256  14.213
80390SOL    HW243004  10.752   2.147  14.136
80391SOL     OW43005   8.045   5.415  14.285
80391SOL    HW143006   8.119   5.474  14.298
80391SOL    HW243007   8.009   5.403  14.373
80392SOL     OW43008   4.214   9.724   4.292
80392SOL    HW143009   4.206   9.795   4.356
80392SOL    HW243010   4.300   9.737   4.252
80393SOL     OW43011   9.958   1.269   5.780
80393SOL    HW143012   9.964   1.355   5.739
80393SOL    HW243013  10.013   1.276   5.859
80394SOL     OW43014   9.490   9.567   4.003
80394SOL    HW143015   9.505   9.505   4.074
80394SOL    HW243016   9.575   9.572   3.958
80395SOL     OW43017   7.588   3.652  11.111
80395SOL    HW143018   7.604   3.626  11.021
80395SOL    HW243019   7.517   3.594  11.140
80396SOL     OW43020   7.310   7.009   1.565
80396SOL    HW143021   7.382   7.070   1.550
80396SOL    HW243022   7.243   7.034   1.502
80397SOL     OW43023   5.965   2.879  10.619
80397SOL    HW143024   5.943   2.799  10.572
80397SOL    HW243025   5.911   2.946  10.577
80398SOL     OW43026  13.716   6.789  13.578
80398SOL    HW143027  13.692   6.877  13.551
80398SOL    HW243028  13.689   6.784  13.670
80399SOL     OW43029   4.550  10.038   4.191
80399SOL    HW143030   4.636  10.078   4.194
80399SOL    HW243031   4.567   9.945   4.173
80400SOL     OW43032   1.353   8.221   2.170
80400SOL    HW143033   1.291   8.235   2.241
80400SOL    HW243034   1.325   8.140   2.128
80401SOL     OW43035   1.791   9.866   4.391
80401SOL    HW143036   1.814   9.906   4.307
80401SOL    HW243037   1.715   9.916   4.421
80402SOL     OW43038   9.680   3.890  14.227
80402SOL    HW143039   9.619   3.963  14.219
80402SOL    HW243040   9.767   3.930  14.218
80403SOL     OW43041  14.874   5.862  12.751
80403SOL    HW143042  14.849   5.771  12.736
80403SOL    HW243043  14.792   5.911  12.745
80404SOL     OW43044  13.886  12.854  14.197
80404SOL    HW143045  13.842  12.902  14.127
80404SOL    HW243046  13.868  12.905  14.276
80405SOL     OW43047   6.433   9.413   3.141
80405SOL    HW143048   6.478   9.352   3.198
80405SOL    HW243049   6.460   9.499   3.172
80406SOL     OW43050   4.038  10.547   3.414
80406SOL    HW143051   4.081  10.484   3.357
80406SOL    HW243052   3.974  10.495   3.463
80407SOL     OW43053   1.625   7.763  14.761
80407SOL    HW143054   1.658   7.829  14.822
80407SOL    HW243055   1.672   7.781  14.679
80408SOL     OW43056  11.021  13.356   9.286
80408SOL    HW143057  10.954  13.293   9.259
80408SOL    HW243058  10.989  13.440   9.254
80409SOL     OW43059  12.618   5.559   8.156
80409SOL    HW143060  12.617   5.463   8.153
80409SOL    HW243061  12.527   5.584   8.169
80410SOL     OW43062  11.572   8.042   8.788
80410SOL    HW143063  11.554   7.958   8.831
80410SOL    HW243064  11.549   8.107   8.855
80411SOL     OW43065   1.300   6.488   0.168
80411SOL    HW143066   1.245   6.453   0.097
80411SOL    HW243067   1.384   6.505   0.126
80412SOL     OW43068  10.873  13.679   9.978
80412SOL    HW143069  10.890  13.767  10.010
80412SOL    HW243070  10.783  13.683   9.943
80413SOL     OW43071   7.675   8.948  12.558
80413SOL    HW143072   7.649   8.885  12.625
80413SOL    HW243073   7.759   8.982  12.587
80414SOL     OW43074  13.264  10.825  13.399
80414SOL    HW143075  13.240  10.808  13.308
80414SOL    HW243076  13.273  10.920  13.405
80415SOL     OW43077   6.389   0.228   9.374
80415SOL    HW143078   6.418   0.160   9.436
80415SOL    HW243079   6.465   0.286   9.365
80416SOL     OW43080   9.855  11.289   1.223
80416SOL    HW143081   9.826  11.229   1.292
80416SOL    HW243082   9.882  11.232   1.151
80417SOL     OW43083   0.736   4.846   6.739
80417SOL    HW143084   0.807   4.804   6.690
80417SOL    HW243085   0.748   4.939   6.724
80418SOL     OW43086   0.481  12.742   5.988
80418SOL    HW143087   0.559  12.695   6.015
80418SOL    HW243088   0.445  12.778   6.069
80419SOL     OW43089   9.510  11.579  11.125
80419SOL    HW143090   9.524  11.672  11.107
80419SOL    HW243091   9.433  11.577  11.181
80420SOL     OW43092  10.042   7.004  10.054
80420SOL    HW143093  10.014   7.095  10.067
80420SOL    HW243094  10.005   6.979   9.969
80421SOL     OW43095   8.346   9.441   5.985
80421SOL    HW143096   8.270   9.401   5.942
80421SOL    HW243097   8.311   9.483   6.063
80422SOL     OW43098  12.059  10.325   8.513
80422SOL    HW143099  11.978  10.333   8.564
80422SOL    HW243100  12.128  10.354   8.573
80423SOL     OW43101   9.914   5.109  14.666
80423SOL    HW143102   9.834   5.057  14.657
80423SOL    HW243103   9.906   5.177  14.599
80424SOL     OW43104  14.233   9.390   1.073
80424SOL    HW143105  14.243   9.477   1.033
80424SOL    HW243106  14.155   9.353   1.031
80425SOL     OW43107   1.814   5.825   5.874
80425SOL    HW143108   1.873   5.758   5.839
80425SOL    HW243109   1.735   5.776   5.898
80426SOL     OW43110   5.609   9.858   8.392
80426SOL    HW143111   5.595   9.771   8.428
80426SOL    HW243112   5.691   9.851   8.342
80427SOL     OW43113   7.876  13.633   6.349
80427SOL    HW143114   7.849  13.724   6.339
80427SOL    HW243115   7.796  13.583   6.332
80428SOL     OW43116   5.155   1.132  14.370
80428SOL    HW143117   5.218   1.063  14.390
80428SOL    HW243118   5.103   1.140  14.450
80429SOL     OW43119   0.999   6.841   7.936
80429SOL    HW143120   1.039   6.792   8.007
80429SOL    HW243121   0.918   6.794   7.916
80430SOL     OW43122   0.295   4.537   6.006
80430SOL    HW143123   0.303   4.624   5.966
80430SOL    HW243124   0.202   4.528   6.024
80431SOL     OW43125  11.991   7.917  10.361
80431SOL    HW143126  11.913   7.878  10.402
80431SOL    HW243127  12.061   7.902  10.425
80432SOL     OW43128   7.471  13.082   9.357
80432SOL    HW143129   7.454  13.075   9.451
80432SOL    HW243130   7.395  13.130   9.322
80433SOL     OW43131   5.189   9.742   3.243
80433SOL    HW143132   5.258   9.682   3.218
80433SOL    HW243133   5.182   9.802   3.169
80434SOL     OW43134   7.558   8.973  11.506
80434SOL    HW143135   7.465   8.994  11.510
80434SOL    HW243136   7.602   9.058  11.509
80435SOL     OW43137  12.289   0.112   9.520
80435SOL    HW143138  12.230   0.042   9.544
80435SOL    HW243139  12.280   0.119   9.425
80436SOL     OW43140  12.460   1.593   4.936
80436SOL    HW143141  12.385   1.653   4.942
80436SOL    HW243142  12.444   1.527   5.004
80437SOL     OW43143   9.140   1.088  13.011
80437SOL    HW143144   9.159   1.145  13.085
80437SOL    HW243145   9.224   1.048  12.989
80438SOL     OW43146  13.955   5.491   2.653
80438SOL    HW143147  13.926   5.574   2.692
80438SOL    HW243148  13.920   5.493   2.564
80439SOL     OW43149   1.378  12.124  11.271
80439SOL    HW143150   1.286  12.098  11.273
80439SOL    HW243151   1.409  12.100  11.184
80440SOL     OW43152   6.289  14.494  13.339
80440SOL    HW143153   6.295  14.484  13.244
80440SOL    HW243154   6.275  14.405  13.371
80441SOL     OW43155  11.031   0.916   1.086
80441SOL    HW143156  11.087   0.943   1.014
80441SOL    HW243157  11.028   0.992   1.145
80442SOL     OW43158  12.418   2.425   4.435
80442SOL    HW143159  12.345   2.413   4.495
80442SOL    HW243160  12.494   2.394   4.483
80443SOL     OW43161   9.505   4.174   0.585
80443SOL    HW143162   9.422   4.178   0.631
80443SOL    HW243163   9.496   4.100   0.524
80444SOL     OW43164   1.116   2.206  13.843
80444SOL    HW143165   1.090   2.272  13.907
80444SOL    HW243166   1.091   2.244  13.758
80445SOL     OW43167   5.728   2.133   8.394
80445SOL    HW143168   5.716   2.166   8.483
80445SOL    HW243169   5.645   2.091   8.372
80446SOL     OW43170   2.228   8.265   0.817
80446SOL    HW143171   2.200   8.339   0.764
80446SOL    HW243172   2.226   8.190   0.758
80447SOL     OW43173  13.961   0.430  14.000
80447SOL    HW143174  13.875   0.426  14.041
80447SOL    HW243175  13.942   0.452  13.908
80448SOL     OW43176   8.073  10.045   8.601
80448SOL    HW143177   8.158  10.031   8.642
80448SOL    HW243178   8.062  10.141   8.601
80449SOL     OW43179   0.525  11.701   5.153
80449SOL    HW143180   0.495  11.772   5.209
80449SOL    HW243181   0.548  11.630   5.214
80450SOL     OW43182   4.695   3.337   2.418
80450SOL    HW143183   4.788   3.335   2.439
80450SOL    HW243184   4.691   3.326   2.323
80451SOL     OW43185   4.966   0.163   9.881
80451SOL    HW143186   5.057   0.137   9.864
80451SOL    HW243187   4.964   0.185   9.974
80452SOL     OW43188   7.109   2.944  11.449
80452SOL    HW143189   7.182   2.921  11.392
80452SOL    HW243190   7.127   2.900  11.532
80453SOL     OW43191   2.364   9.133   6.680
80453SOL    HW143192   2.374   9.180   6.598
80453SOL    HW243193   2.325   9.049   6.655
80454SOL     OW43194   6.963  14.700   7.975
80454SOL    HW143195   6.889  14.705   7.915
80454SOL    HW243196   6.948  14.771   8.038
80455SOL     OW43197   3.364   2.147  12.071
80455SOL    HW143198   3.329   2.200  12.000
80455SOL    HW243199   3.292   2.143  12.135
80456SOL     OW43200   0.733   6.055   5.341
80456SOL    HW143201   0.724   6.097   5.426
80456SOL    HW243202   0.813   6.003   5.348
80457SOL     OW43203   0.646   1.957  11.119
80457SOL    HW143204   0.633   1.892  11.050
80457SOL    HW243205   0.558   1.974  11.152
80458SOL     OW43206  10.013  13.856   8.238
80458SOL    HW143207   9.934  13.864   8.184
80458SOL    HW243208  10.002  13.922   8.306
80459SOL     OW43209  13.643   4.349   3.031
80459SOL    HW143210  13.594   4.423   2.996
80459SOL    HW243211  13.709   4.330   2.965
80460SOL     OW43212  12.585  10.235   8.375
80460SOL    HW143213  12.667  10.239   8.424
80460SOL    HW243214  12.520  10.207   8.439
80461SOL     OW43215   3.234   0.731   2.164
80461SOL    HW143216   3.291   0.693   2.232
80461SOL    HW243217   3.165   0.776   2.213
80462SOL     OW43218   1.219   6.853   1.003
80462SOL    HW143219   1.297   6.864   1.057
80462SOL    HW243220   1.185   6.767   1.028
80463SOL     OW43221   4.060   3.510   5.513
80463SOL    HW143222   3.996   3.516   5.442
80463SOL    HW243223   4.145   3.523   5.470
80464SOL     OW43224   2.719   0.438  10.188
80464SOL    HW143225   2.729   0.507  10.123
80464SOL    HW243226   2.790   0.453  10.250
80465SOL     OW43227  11.965  13.210   6.776
80465SOL    HW143228  11.937  13.300   6.758
80465SOL    HW243229  11.884  13.159   6.773
80466SOL     OW43230  12.729   0.885   6.740
80466SOL    HW143231  12.776   0.854   6.818
80466SOL    HW243232  12.768   0.970   6.720
80467SOL     OW43233  14.393   4.610  13.503
80467SOL    HW143234  14.424   4.566  13.425
80467SOL    HW243235  14.343   4.685  13.470
80468SOL     OW43236   6.724   3.765  14.407
80468SOL    HW143237   6.761   3.851  14.427
80468SOL    HW243238   6.637   3.784  14.372
80469SOL     OW43239   5.123   8.660  12.455
80469SOL    HW143240   5.131   8.754  12.437
80469SOL    HW243241   5.191   8.620  12.402
80470SOL     OW43242   4.902  11.846  13.457
80470SOL    HW143243   4.915  11.904  13.532
80470SOL    HW243244   4.807  11.832  13.454
80471SOL     OW43245  13.336   5.159   4.464
80471SOL    HW143246  13.417   5.172   4.414
80471SOL    HW243247  13.280   5.107   4.405
80472SOL     OW43248   2.830   7.000   1.704
80472SOL    HW143249   2.879   7.064   1.756
80472SOL    HW243250   2.896   6.958   1.650
80473SOL     OW43251   9.189  11.388   2.242
80473SOL    HW143252   9.097  11.387   2.270
80473SOL    HW243253   9.186  11.380   2.147
80474SOL     OW43254   5.796  13.407   6.924
80474SOL    HW143255   5.873  13.461   6.906
80474SOL    HW243256   5.787  13.410   7.019
80475SOL     OW43257  10.294   7.986  10.171
80475SOL    HW143258  10.297   7.945  10.257
80475SOL    HW243259  10.336   8.071  10.183
80476SOL     OW43260   3.275   9.913   0.867
80476SOL    HW143261   3.338   9.985   0.872
80476SOL    HW243262   3.322   9.837   0.900
80477SOL     OW43263  13.847   4.270   0.729
80477SOL    HW143264  13.855   4.344   0.669
80477SOL    HW243265  13.752   4.258   0.740
80478SOL     OW43266   6.042   0.774   3.056
80478SOL    HW143267   6.014   0.857   3.093
80478SOL    HW243268   6.138   0.778   3.059
80479SOL     OW43269   0.264   7.261  13.933
80479SOL    HW143270   0.331   7.194  13.950
80479SOL    HW243271   0.285   7.332  13.993
80480SOL     OW43272   4.936   0.784   3.454
80480SOL    HW143273   4.959   0.718   3.520
80480SOL    HW243274   4.964   0.867   3.493
80481SOL     OW43275  14.347   9.657   5.613
80481SOL    HW143276  14.350   9.743   5.654
80481SOL    HW243277  14.344   9.595   5.686
80482SOL     OW43278   1.584  11.138   8.510
80482SOL    HW143279   1.659  11.187   8.477
80482SOL    HW243280   1.530  11.203   8.555
80483SOL     OW43281   6.791  13.463  12.586
80483SOL    HW143282   6.770  13.500  12.672
80483SOL    HW243283   6.706  13.457  12.541
80484SOL     OW43284  14.557  10.811  13.417
80484SOL    HW143285  14.593  10.882  13.365
80484SOL    HW243286  14.575  10.835  13.507
80485SOL     OW43287  12.583   3.670  12.489
80485SOL    HW143288  12.659   3.663  12.432
80485SOL    HW243289  12.616   3.653  12.577
80486SOL     OW43290  10.375   4.202   6.533
80486SOL    HW143291  10.458   4.164   6.560
80486SOL    HW243292  10.374   4.192   6.437
80487SOL     OW43293   7.636  13.795   8.706
80487SOL    HW143294   7.576  13.730   8.668
80487SOL    HW243295   7.723  13.767   8.678
80488SOL     OW43296   1.847  11.555  14.794
80488SOL    HW143297   1.829  11.575  14.703
80488SOL    HW243298   1.821  11.634  14.842
80489SOL     OW43299   0.027  11.147   1.678
80489SOL    HW143300   0.050  11.078   1.740
80489SOL    HW243301   0.082  11.131   1.602
80490SOL     OW43302   5.116   5.003   1.341
80490SOL    HW143303   5.178   5.046   1.282
80490SOL    HW243304   5.109   4.914   1.308
80491SOL     OW43305   1.863  11.500   7.270
80491SOL    HW143306   1.817  11.566   7.218
80491SOL    HW243307   1.798  11.433   7.288
80492SOL     OW43308  12.093   1.950   3.436
80492SOL    HW143309  12.144   2.004   3.498
80492SOL    HW243310  12.044   2.013   3.385
80493SOL     OW43311   3.565  14.092   3.342
80493SOL    HW143312   3.477  14.083   3.379
80493SOL    HW243313   3.551  14.125   3.253
80494SOL     OW43314  10.008   4.656  12.704
80494SOL    HW143315  10.087   4.705  12.725
80494SOL    HW243316   9.956   4.657  12.784
80495SOL     OW43317   7.849   8.792  11.237
80495SOL    HW143318   7.889   8.757  11.317
80495SOL    HW243319   7.911   8.858  11.206
80496SOL     OW43320  13.238   6.459  11.434
80496SOL    HW143321  13.233   6.465  11.529
80496SOL    HW243322  13.154   6.420  11.408
80497SOL     OW43323  10.436   4.188   2.607
80497SOL    HW143324  10.448   4.095   2.586
80497SOL    HW243325  10.348   4.209   2.575
80498SOL     OW43326   4.810  10.565   1.647
80498SOL    HW143327   4.838  10.561   1.739
80498SOL    HW243328   4.721  10.531   1.648
80499SOL     OW43329   3.636  11.318   5.632
80499SOL    HW143330   3.601  11.300   5.719
80499SOL    HW243331   3.618  11.238   5.582
80500SOL     OW43332   6.676  10.747  12.367
80500SOL    HW143333   6.600  10.789  12.326
80500SOL    HW243334   6.652  10.740  12.460
80501SOL     OW43335   6.113   5.322   7.077
80501SOL    HW143336   6.184   5.286   7.024
80501SOL    HW243337   6.156   5.386   7.134
80502SOL     OW43338   7.165   7.035  10.791
80502SOL    HW143339   7.111   6.998  10.721
80502SOL    HW243340   7.223   7.097  10.745
80503SOL     OW43341  10.423   4.594  13.220
80503SOL    HW143342  10.369   4.548  13.155
80503SOL    HW243343  10.439   4.680  13.181
80504SOL     OW43344   1.129   9.924  10.277
80504SOL    HW143345   1.041   9.889  10.292
80504SOL    HW243346   1.130  10.008  10.324
80505SOL     OW43347  13.557   5.075  12.596
80505SOL    HW143348  13.519   5.096  12.511
80505SOL    HW243349  13.593   5.158  12.627
80506SOL     OW43350   5.805  14.133  12.261
80506SOL    HW143351   5.859  14.178  12.326
80506SOL    HW243352   5.775  14.053  12.305
80507SOL     OW43353   7.865   6.023   6.798
80507SOL    HW143354   7.903   6.103   6.761
80507SOL    HW243355   7.812   5.986   6.727
80508SOL     OW43356   5.516   3.760   3.388
80508SOL    HW143357   5.523   3.847   3.427
80508SOL    HW243358   5.595   3.751   3.335
80509SOL     OW43359   8.562  11.074   3.556
80509SOL    HW143360   8.604  11.011   3.615
80509SOL    HW243361   8.534  11.146   3.613
80510SOL     OW43362  13.474  12.316   6.983
80510SOL    HW143363  13.536  12.365   6.930
80510SOL    HW243364  13.413  12.381   7.016
80511SOL     OW43365   3.839  12.413   8.837
80511SOL    HW143366   3.822  12.394   8.929
80511SOL    HW243367   3.821  12.330   8.792
80512SOL     OW43368   9.569  13.989   0.733
80512SOL    HW143369   9.486  13.941   0.725
80512SOL    HW243370   9.633  13.934   0.688
80513SOL     OW43371   3.379   3.034   7.195
80513SOL    HW143372   3.444   2.965   7.201
80513SOL    HW243373   3.295   2.989   7.200
80514SOL     OW43374  11.899   8.583   0.599
80514SOL    HW143375  11.901   8.555   0.507
80514SOL    HW243376  11.870   8.675   0.595
80515SOL     OW43377   4.208  14.707   4.061
80515SOL    HW143378   4.136  14.741   4.008
80515SOL    HW243379   4.284  14.711   4.003
80516SOL     OW43380   1.529   5.703   9.448
80516SOL    HW143381   1.555   5.784   9.404
80516SOL    HW243382   1.433   5.707   9.452
80517SOL     OW43383  11.288   4.931   3.369
80517SOL    HW143384  11.245   4.985   3.436
80517SOL    HW243385  11.374   4.972   3.356
80518SOL     OW43386   4.574   8.742   3.215
80518SOL    HW143387   4.625   8.667   3.246
80518SOL    HW243388   4.549   8.789   3.294
80519SOL     OW43389  14.088  11.223   1.196
80519SOL    HW143390  14.153  11.170   1.151
80519SOL    HW243391  14.136  11.263   1.269
80520SOL     OW43392   6.849   5.062   4.527
80520SOL    HW143393   6.810   5.087   4.611
80520SOL    HW243394   6.942   5.053   4.545
80521SOL     OW43395   7.231   5.937  14.452
80521SOL    HW143396   7.214   6.020  14.496
80521SOL    HW243397   7.246   5.961  14.361
80522SOL     OW43398  14.761   0.837   5.861
80522SOL    HW143399  14.774   0.848   5.955
80522SOL    HW243400  14.835   0.783   5.833
80523SOL     OW43401   5.068  10.855  12.746
80523SOL    HW143402   5.137  10.788  12.749
80523SOL    HW243403   5.113  10.936  12.770
80524SOL     OW43404  10.859   5.146  12.688
80524SOL    HW143405  10.794   5.216  12.676
80524SOL    HW243406  10.860   5.100  12.604
80525SOL     OW43407  14.519   5.295  12.476
80525SOL    HW143408  14.467   5.278  12.397
80525SOL    HW243409  14.458   5.337  12.536
80526SOL     OW43410   0.198  10.883   7.448
80526SOL    HW143411   0.122  10.899   7.393
80526SOL    HW243412   0.242  10.968   7.455
80527SOL     OW43413   7.448   1.130   2.498
80527SOL    HW143414   7.440   1.150   2.405
80527SOL    HW243415   7.539   1.151   2.519
80528SOL     OW43416  12.337   5.090   1.524
80528SOL    HW143417  12.270   5.121   1.584
80528SOL    HW243418  12.387   5.025   1.575
80529SOL     OW43419   7.144  11.264   9.397
80529SOL    HW143420   7.238  11.276   9.407
80529SOL    HW243421   7.127  11.290   9.306
80530SOL     OW43422   2.067   9.590   4.253
80530SOL    HW143423   1.990   9.591   4.310
80530SOL    HW243424   2.129   9.533   4.298
80531SOL     OW43425   0.607   8.121   9.651
80531SOL    HW143426   0.558   8.069   9.715
80531SOL    HW243427   0.570   8.209   9.659
80532SOL     OW43428  11.548   6.771   2.243
80532SOL    HW143429  11.526   6.828   2.170
80532SOL    HW243430  11.465   6.732   2.270
80533SOL     OW43431   3.217   5.224  11.238
80533SOL    HW143432   3.129   5.186  11.235
80533SOL    HW243433   3.214   5.295  11.174
80534SOL     OW43434   6.804   7.977   5.098
80534SOL    HW143435   6.806   8.058   5.048
80534SOL    HW243436   6.887   7.934   5.077
80535SOL     OW43437   2.431   2.599   1.303
80535SOL    HW143438   2.397   2.687   1.292
80535SOL    HW243439   2.496   2.606   1.374
80536SOL     OW43440  11.229  12.834   5.179
80536SOL    HW143441  11.153  12.850   5.122
80536SOL    HW243442  11.230  12.739   5.190
80537SOL     OW43443   7.279   8.110   1.941
80537SOL    HW143444   7.353   8.143   1.993
80537SOL    HW243445   7.272   8.018   1.966
80538SOL     OW43446   0.456  13.044  13.589
80538SOL    HW143447   0.426  12.993  13.514
80538SOL    HW243448   0.403  13.124  13.587
80539SOL     OW43449  14.299   4.109  11.575
80539SOL    HW143450  14.382   4.130  11.619
80539SOL    HW243451  14.325   4.055  11.500
80540SOL     OW43452  10.681  10.019   2.903
80540SOL    HW143453  10.645  10.091   2.956
80540SOL    HW243454  10.609   9.994   2.845
80541SOL     OW43455  12.693  12.060   4.443
80541SOL    HW143456  12.618  12.113   4.416
80541SOL    HW243457  12.697  11.990   4.378
80542SOL     OW43458   0.144   2.500   2.387
80542SOL    HW143459   0.197   2.543   2.319
80542SOL    HW243460   0.141   2.408   2.359
80543SOL     OW43461   3.306  11.887  11.044
80543SOL    HW143462   3.271  11.798  11.052
80543SOL    HW243463   3.240  11.935  10.994
80544SOL     OW43464   5.911  12.733  10.571
80544SOL    HW143465   5.893  12.685  10.490
80544SOL    HW243466   5.970  12.804  10.545
80545SOL     OW43467   9.934  11.787  12.319
80545SOL    HW143468   9.876  11.863  12.310
80545SOL    HW243469   9.887  11.729  12.379
80546SOL     OW43470  13.554   1.227  12.630
80546SOL    HW143471  13.506   1.308  12.612
80546SOL    HW243472  13.549   1.216  12.725
80547SOL     OW43473   9.190   6.644   7.915
80547SOL    HW143474   9.244   6.664   7.839
80547SOL    HW243475   9.238   6.680   7.989
80548SOL     OW43476  11.390   2.166   8.504
80548SOL    HW143477  11.419   2.221   8.576
80548SOL    HW243478  11.358   2.228   8.438
80549SOL     OW43479   4.578   1.475   1.807
80549SOL    HW143480   4.562   1.393   1.761
80549SOL    HW243481   4.580   1.450   1.900
80550SOL     OW43482   3.719   3.699  14.582
80550SOL    HW143483   3.688   3.698  14.491
80550SOL    HW243484   3.666   3.632  14.625
80551SOL     OW43485  14.429   6.138   5.885
80551SOL    HW143486  14.417   6.101   5.972
80551SOL    HW243487  14.503   6.198   5.896
80552SOL     OW43488   4.714   6.418   3.088
80552SOL    HW143489   4.632   6.448   3.046
80552SOL    HW243490   4.711   6.323   3.081
80553SOL     OW43491   9.742   0.402  12.556
80553SOL    HW143492   9.732   0.404  12.460
80553SOL    HW243493   9.729   0.493  12.583
80554SOL     OW43494   4.849   7.529   8.314
80554SOL    HW143495   4.896   7.494   8.238
80554SOL    HW243496   4.803   7.454   8.350
80555SOL     OW43497   1.678   9.887   9.143
80555SOL    HW143498   1.628   9.968   9.141
80555SOL    HW243499   1.730   9.893   9.223
80556SOL     OW43500   3.084  11.488   7.468
80556SOL    HW143501   3.068  11.460   7.558
80556SOL    HW243502   3.144  11.422   7.433
80557SOL     OW43503   6.086  13.773   7.549
80557SOL    HW143504   6.041  13.711   7.492
80557SOL    HW243505   6.018  13.808   7.605
80558SOL     OW43506   5.207   2.648   0.255
80558SOL    HW143507   5.150   2.617   0.185
80558SOL    HW243508   5.160   2.626   0.336
80559SOL     OW43509  10.341   6.312   5.724
80559SOL    HW143510  10.275   6.331   5.656
80559SOL    HW243511  10.423   6.305   5.675
80560SOL     OW43512   0.922  11.916   6.573
80560SOL    HW143513   0.854  11.902   6.507
80560SOL    HW243514   0.950  11.828   6.598
80561SOL     OW43515   4.590   0.304  13.405
80561SOL    HW143516   4.553   0.362  13.472
80561SOL    HW243517   4.682   0.332  13.398
80562SOL     OW43518  14.064   5.754  14.284
80562SOL    HW143519  14.032   5.730  14.197
80562SOL    HW243520  14.155   5.781  14.269
80563SOL     OW43521   9.494   2.371   1.049
80563SOL    HW143522   9.561   2.430   1.085
80563SOL    HW243523   9.536   2.284   1.051
80564SOL     OW43524   2.470  14.077   6.998
80564SOL    HW143525   2.536  14.134   7.039
80564SOL    HW243526   2.519  13.998   6.974
80565SOL     OW43527   4.287   2.169   1.127
80565SOL    HW143528   4.196   2.191   1.107
80565SOL    HW243529   4.327   2.152   1.041
80566SOL     OW43530   7.665   5.108   2.549
80566SOL    HW143531   7.608   5.049   2.499
80566SOL    HW243532   7.613   5.188   2.559
80567SOL     OW43533   0.394   4.342   5.259
80567SOL    HW143534   0.468   4.314   5.313
80567SOL    HW243535   0.364   4.262   5.216
80568SOL     OW43536   8.745  12.768  14.548
80568SOL    HW143537   8.824  12.821  14.542
80568SOL    HW243538   8.674  12.831  14.555
80569SOL     OW43539  14.529  10.741   8.747
80569SOL    HW143540  14.463  10.765   8.812
80569SOL    HW243541  14.612  10.759   8.791
80570SOL     OW43542  13.143   6.130  14.689
80570SOL    HW143543  13.230   6.145  14.725
80570SOL    HW243544  13.159   6.086  14.605
80571SOL     OW43545   1.316  14.575  14.466
80571SOL    HW143546   1.323  14.629  14.387
80571SOL    HW243547   1.402  14.585  14.509
80572SOL     OW43548   6.250   5.330   2.361
80572SOL    HW143549   6.232   5.237   2.367
80572SOL    HW243550   6.214   5.357   2.276
80573SOL     OW43551   1.499   3.940   6.179
80573SOL    HW143552   1.484   3.921   6.272
80573SOL    HW243553   1.563   4.011   6.179
80574SOL     OW43554   0.079   5.625   3.887
80574SOL    HW143555   0.153   5.673   3.924
80574SOL    HW243556   0.054   5.675   3.809
80575SOL     OW43557   3.004   7.458   4.438
80575SOL    HW143558   2.955   7.377   4.427
80575SOL    HW243559   3.002   7.500   4.352
80576SOL     OW43560  13.796  14.404   1.404
80576SOL    HW143561  13.832  14.449   1.328
80576SOL    HW243562  13.725  14.350   1.369
80577SOL     OW43563   7.227   7.425   7.827
80577SOL    HW143564   7.251   7.420   7.919
80577SOL    HW243565   7.216   7.519   7.810
80578SOL     OW43566   0.825   2.278   1.230
80578SOL    HW143567   0.799   2.370   1.229
80578SOL    HW243568   0.744   2.230   1.242
80579SOL     OW43569   4.833   1.521  14.778
80579SOL    HW143570   4.771   1.593  14.769
80579SOL    HW243571   4.822   1.491  14.868
80580SOL     OW43572   6.039   5.051   9.261
80580SOL    HW143573   6.092   4.971   9.255
80580SOL    HW243574   6.092   5.110   9.314
80581SOL     OW43575  10.498  13.032  10.706
80581SOL    HW143576  10.418  13.005  10.661
80581SOL    HW243577  10.521  13.116  10.666
80582SOL     OW43578   9.658   2.341   1.363
80582SOL    HW143579   9.699   2.336   1.277
80582SOL    HW243580   9.566   2.361   1.343
80583SOL     OW43581   9.484  14.012   1.366
80583SOL    HW143582   9.514  13.922   1.354
80583SOL    HW243583   9.390  14.004   1.385
80584SOL     OW43584  14.581   1.966   2.578
80584SOL    HW143585  14.486   1.982   2.572
80584SOL    HW243586  14.607   2.011   2.659
80585SOL     OW43587   5.938   2.000  12.828
80585SOL    HW143588   5.929   2.095  12.836
80585SOL    HW243589   6.003   1.988  12.759
80586SOL     OW43590   0.235   9.882   0.476
80586SOL    HW143591   0.168   9.947   0.497
80586SOL    HW243592   0.317   9.932   0.476
80587SOL     OW43593  13.020  10.401  10.916
80587SOL    HW143594  12.991  10.313  10.942
80587SOL    HW243595  12.939  10.451  10.907
80588SOL     OW43596  12.273   9.690   4.893
80588SOL    HW143597  12.205   9.747   4.928
80588SOL    HW243598  12.248   9.602   4.921
80589SOL     OW43599   5.792   2.697   1.270
80589SOL    HW143600   5.772   2.632   1.203
80589SOL    HW243601   5.880   2.726   1.250
80590SOL     OW43602   6.913   3.337   4.105
80590SOL    HW143603   6.922   3.399   4.178
80590SOL    HW243604   6.838   3.283   4.129
80591SOL     OW43605   2.985   5.208  12.449
80591SOL    HW143606   3.018   5.193  12.361
80591SOL    HW243607   3.062   5.196  12.506
80592SOL     OW43608  14.207   4.742  11.161
80592SOL    HW143609  14.126   4.691  11.152
80592SOL    HW243610  14.237   4.755  11.071
80593SOL     OW43611   4.571  14.351  14.121
80593SOL    HW143612   4.521  14.429  14.101
80593SOL    HW243613   4.559  14.294  14.045
80594SOL     OW43614  14.478   4.578   3.522
80594SOL    HW143615  14.439   4.554   3.606
80594SOL    HW243616  14.572   4.571   3.537
80595SOL     OW43617   1.357   7.348   8.695
80595SOL    HW143618   1.419   7.337   8.767
80595SOL    HW243619   1.370   7.439   8.667
80596SOL     OW43620   8.156   7.593  14.060
80596SOL    HW143621   8.183   7.615  13.971
80596SOL    HW243622   8.074   7.640  14.073
80597SOL     OW43623   6.071   2.703   9.161
80597SOL    HW143624   6.080   2.670   9.072
80597SOL    HW243625   6.016   2.781   9.153
80598SOL     OW43626   6.018   0.747  10.792
80598SOL    HW143627   6.041   0.795  10.713
80598SOL    HW243628   5.971   0.670  10.760
80599SOL     OW43629  10.469  11.573   5.210
80599SOL    HW143630  10.400  11.572   5.144
80599SOL    HW243631  10.545  11.608   5.164
80600SOL     OW43632  14.080   1.833   3.963
80600SOL    HW143633  14.074   1.748   4.005
80600SOL    HW243634  14.137   1.884   4.020
80601SOL     OW43635  11.295   8.890   0.524
80601SOL    HW143636  11.313   8.854   0.611
80601SOL    HW243637  11.202   8.913   0.527
80602SOL     OW43638   3.330   4.820  10.198
80602SOL    HW143639   3.298   4.906  10.225
80602SOL    HW243640   3.406   4.839  10.143
80603SOL     OW43641   9.939  12.814   2.075
80603SOL    HW143642   9.879  12.845   2.143
80603SOL    HW243643  10.020  12.793   2.122
80604SOL     OW43644   6.505   4.757  14.029
80604SOL    HW143645   6.520   4.731  13.939
80604SOL    HW243646   6.483   4.676  14.075
80605SOL     OW43647   1.278   2.193   1.402
80605SOL    HW143648   1.316   2.275   1.371
80605SOL    HW243649   1.198   2.183   1.350
80606SOL     OW43650   2.191  11.915  11.070
80606SOL    HW143651   2.106  11.953  11.049
80606SOL    HW243652   2.227  11.888  10.986
80607SOL     OW43653  13.224   0.225   3.224
80607SOL    HW143654  13.215   0.275   3.305
80607SOL    HW243655  13.207   0.289   3.154
80608SOL     OW43656   7.946   7.722   4.028
80608SOL    HW143657   7.879   7.757   4.086
80608SOL    HW243658   7.964   7.794   3.967
80609SOL     OW43659   7.215   9.110   7.801
80609SOL    HW143660   7.131   9.091   7.760
80609SOL    HW243661   7.239   9.197   7.769
80610SOL     OW43662  10.878  11.900  12.622
80610SOL    HW143663  10.864  11.995  12.626
80610SOL    HW243664  10.794  11.862  12.648
80611SOL     OW43665  10.868   3.188   3.205
80611SOL    HW143666  10.940   3.131   3.177
80611SOL    HW243667  10.790   3.132   3.198
80612SOL     OW43668   4.032   3.294  12.516
80612SOL    HW143669   3.983   3.257  12.442
80612SOL    HW243670   4.051   3.219  12.572
80613SOL     OW43671  13.339  14.437   0.862
80613SOL    HW143672  13.403  14.429   0.792
80613SOL    HW243673  13.369  14.512   0.914
80614SOL     OW43674  10.577   0.638   8.560
80614SOL    HW143675  10.666   0.673   8.561
80614SOL    HW243676  10.529   0.695   8.500
80615SOL     OW43677   5.762   4.959   2.096
80615SOL    HW143678   5.756   4.920   2.184
80615SOL    HW243679   5.749   5.053   2.111
80616SOL     OW43680   4.807   5.365   4.011
80616SOL    HW143681   4.836   5.274   4.006
80616SOL    HW243682   4.771   5.375   4.099
80617SOL     OW43683   1.198  10.457   7.106
80617SOL    HW143684   1.132  10.395   7.139
80617SOL    HW243685   1.199  10.528   7.171
80618SOL     OW43686  13.814   9.340  13.329
80618SOL    HW143687  13.853   9.347  13.417
80618SOL    HW243688  13.809   9.431  13.299
80619SOL     OW43689   0.871   9.418   9.594
80619SOL    HW143690   0.847   9.510   9.605
80619SOL    HW243691   0.932   9.417   9.520
80620SOL     OW43692   9.893   0.974   2.348
80620SOL    HW143693   9.810   0.999   2.306
80620SOL    HW243694   9.953   0.958   2.275
80621SOL     OW43695  12.654   1.417   4.248
80621SOL    HW143696  12.677   1.325   4.259
80621SOL    HW243697  12.572   1.416   4.199
80622SOL     OW43698   6.641  12.013  14.181
80622SOL    HW143699   6.625  12.042  14.091
80622SOL    HW243700   6.713  12.069  14.211
80623SOL     OW43701   1.501  11.318  10.590
80623SOL    HW143702   1.522  11.407  10.560
80623SOL    HW243703   1.579  11.267  10.569
80624SOL     OW43704   3.077   0.173   9.176
80624SOL    HW143705   3.089   0.159   9.270
80624SOL    HW243706   3.025   0.253   9.170
80625SOL     OW43707   6.272   6.791  12.075
80625SOL    HW143708   6.201   6.855  12.082
80625SOL    HW243709   6.280   6.774  11.982
80626SOL     OW43710  14.412  11.151   7.809
80626SOL    HW143711  14.490  11.130   7.860
80626SOL    HW243712  14.405  11.246   7.812
80627SOL     OW43713  11.521   6.198   7.913
80627SOL    HW143714  11.513   6.127   7.977
80627SOL    HW243715  11.431   6.214   7.884
80628SOL     OW43716  13.256   8.237  13.988
80628SOL    HW143717  13.339   8.250  14.033
80628SOL    HW243718  13.219   8.325  13.980
80629SOL     OW43719   3.101  12.164   1.017
80629SOL    HW143720   3.150  12.243   0.994
80629SOL    HW243721   3.086  12.171   1.111
80630SOL     OW43722   8.266  13.819  12.627
80630SOL    HW143723   8.322  13.806  12.550
80630SOL    HW243724   8.222  13.902  12.611
80631SOL     OW43725  12.485  13.743  10.575
80631SOL    HW143726  12.481  13.822  10.628
80631SOL    HW243727  12.467  13.672  10.636
80632SOL     OW43728   8.548  13.902   2.067
80632SOL    HW143729   8.510  13.979   2.024
80632SOL    HW243730   8.622  13.877   2.012
80633SOL     OW43731   7.142  11.964  12.415
80633SOL    HW143732   7.210  11.970  12.481
80633SOL    HW243733   7.060  11.977  12.463
80634SOL     OW43734   8.881  10.631  12.221
80634SOL    HW143735   8.787  10.647  12.211
80634SOL    HW243736   8.887  10.536  12.234
80635SOL     OW43737   1.247  10.490   6.123
80635SOL    HW143738   1.298  10.570   6.109
80635SOL    HW243739   1.310  10.427   6.158
80636SOL     OW43740   7.516   4.427   9.562
80636SOL    HW143741   7.494   4.520   9.571
80636SOL    HW243742   7.496   4.389   9.647
80637SOL     OW43743   4.509   8.444  13.304
80637SOL    HW143744   4.565   8.369  13.284
80637SOL    HW243745   4.449   8.414  13.371
80638SOL     OW43746  11.820   7.304   0.042
80638SOL    HW143747  11.821   7.211   0.020
80638SOL    HW243748  11.810   7.306   0.137
80639SOL     OW43749  10.586  11.587  13.671
80639SOL    HW143750  10.592  11.528  13.596
80639SOL    HW243751  10.612  11.533  13.746
80640SOL     OW43752   0.633   9.363   4.250
80640SOL    HW143753   0.600   9.428   4.188
80640SOL    HW243754   0.728   9.364   4.237
80641SOL     OW43755   2.298   7.736   1.346
80641SOL    HW143756   2.361   7.664   1.351
80641SOL    HW243757   2.228   7.711   1.407
80642SOL     OW43758   2.154   3.990  12.496
80642SOL    HW143759   2.077   4.047  12.495
80642SOL    HW243760   2.143   3.936  12.573
80643SOL     OW43761   6.798  12.131   5.907
80643SOL    HW143762   6.725  12.192   5.918
80643SOL    HW243763   6.822  12.106   5.996
80644SOL     OW43764   0.552  10.606   0.856
80644SOL    HW143765   0.533  10.646   0.941
80644SOL    HW243766   0.467  10.574   0.825
80645SOL     OW43767   3.809   5.098   3.911
80645SOL    HW143768   3.820   5.062   3.999
80645SOL    HW243769   3.783   5.189   3.926
80646SOL     OW43770  11.481  11.991   4.516
80646SOL    HW143771  11.484  12.085   4.502
80646SOL    HW243772  11.412  11.960   4.458
80647SOL     OW43773   7.058   5.979   3.437
80647SOL    HW143774   7.145   6.004   3.406
80647SOL    HW243775   7.016   5.940   3.360
80648SOL     OW43776   1.429   0.335   9.638
80648SOL    HW143777   1.393   0.418   9.668
80648SOL    HW243778   1.461   0.293   9.718
80649SOL     OW43779   6.850   7.725   4.644
80649SOL    HW143780   6.924   7.782   4.664
80649SOL    HW243781   6.847   7.721   4.549
80650SOL     OW43782   2.322   6.549  11.221
80650SOL    HW143783   2.327   6.621  11.158
80650SOL    HW243784   2.376   6.578  11.295
80651SOL     OW43785  12.049   3.432  10.614
80651SOL    HW143786  12.134   3.461  10.646
80651SOL    HW243787  12.056   3.436  10.519
80652SOL     OW43788   2.090   7.317   3.821
80652SOL    HW143789   2.113   7.250   3.886
80652SOL    HW243790   2.099   7.400   3.868
80653SOL     OW43791   2.718  14.347   3.564
80653SOL    HW143792   2.649  14.409   3.586
80653SOL    HW243793   2.675  14.282   3.509
80654SOL     OW43794  10.527   4.416   7.048
80654SOL    HW143795  10.520   4.385   7.138
80654SOL    HW243796  10.544   4.337   6.997
80655SOL     OW43797   9.635  11.762   0.948
80655SOL    HW143798   9.563  11.795   1.003
80655SOL    HW243799   9.615  11.669   0.935
80656SOL     OW43800   2.973   5.918   3.500
80656SOL    HW143801   2.887   5.961   3.502
80656SOL    HW243802   2.995   5.913   3.407
80657SOL     OW43803   8.252  12.785   0.245
80657SOL    HW143804   8.241  12.861   0.302
80657SOL    HW243805   8.163  12.748   0.237
80658SOL     OW43806   3.488   0.448   5.244
80658SOL    HW143807   3.583   0.447   5.226
80658SOL    HW243808   3.456   0.368   5.201
80659SOL     OW43809  11.178   8.071   7.928
80659SOL    HW143810  11.207   8.083   8.018
80659SOL    HW243811  11.082   8.079   7.932
80660SOL     OW43812   6.589   6.655   3.423
80660SOL    HW143813   6.639   6.672   3.343
80660SOL    HW243814   6.641   6.695   3.493
80661SOL     OW43815   8.683   5.831  14.254
80661SOL    HW143816   8.749   5.764  14.271
80661SOL    HW243817   8.608   5.805  14.307
80662SOL     OW43818  12.584   1.487  13.883
80662SOL    HW143819  12.552   1.471  13.794
80662SOL    HW243820  12.676   1.511  13.871
80663SOL     OW43821   3.030   8.138   8.706
80663SOL    HW143822   2.981   8.102   8.780
80663SOL    HW243823   2.963   8.175   8.649
80664SOL     OW43824   3.292   2.360   9.185
80664SOL    HW143825   3.231   2.411   9.132
80664SOL    HW243826   3.237   2.303   9.238
80665SOL     OW43827   8.011   8.500   2.087
80665SOL    HW143828   8.030   8.462   2.002
80665SOL    HW243829   7.921   8.473   2.107
80666SOL     OW43830   5.550   5.078   2.956
80666SOL    HW143831   5.621   5.084   3.019
80666SOL    HW243832   5.574   5.141   2.887
80667SOL     OW43833   3.523   4.994   1.195
80667SOL    HW143834   3.489   5.078   1.167
80667SOL    HW243835   3.555   4.953   1.115
80668SOL     OW43836   4.332   1.432   1.235
80668SOL    HW143837   4.259   1.412   1.293
80668SOL    HW243838   4.355   1.348   1.196
80669SOL     OW43839   6.392  13.657  10.121
80669SOL    HW143840   6.353  13.608  10.048
80669SOL    HW243841   6.327  13.724  10.143
80670SOL     OW43842   7.779   8.837   7.997
80670SOL    HW143843   7.821   8.785   7.929
80670SOL    HW243844   7.694   8.861   7.960
80671SOL     OW43845   8.739   7.203   1.987
80671SOL    HW143846   8.726   7.119   1.943
80671SOL    HW243847   8.652   7.228   2.017
80672SOL     OW43848   1.983  13.612   9.542
80672SOL    HW143849   1.997  13.678   9.474
80672SOL    HW243850   1.949  13.536   9.494
80673SOL     OW43851  11.972   3.208  10.455
80673SOL    HW143852  12.021   3.254  10.387
80673SOL    HW243853  11.988   3.257  10.535
80674SOL     OW43854   2.893  13.278  11.492
80674SOL    HW143855   2.924  13.199  11.536
80674SOL    HW243856   2.802  13.259  11.469
80675SOL     OW43857   0.960  12.186   1.343
80675SOL    HW143858   0.991  12.204   1.254
80675SOL    HW243859   0.902  12.259   1.364
80676SOL     OW43860   0.945   3.191   3.608
80676SOL    HW143861   0.937   3.224   3.698
80676SOL    HW243862   0.871   3.131   3.599
80677SOL     OW43863  10.607   1.798   6.736
80677SOL    HW143864  10.685   1.817   6.787
80677SOL    HW243865  10.557   1.880   6.737
80678SOL     OW43866   6.487   1.926   2.239
80678SOL    HW143867   6.489   1.886   2.326
80678SOL    HW243868   6.525   1.860   2.181
80679SOL     OW43869  12.457   7.884   4.967
80679SOL    HW143870  12.459   7.817   4.899
80679SOL    HW243871  12.472   7.836   5.048
80680SOL     OW43872  10.609   1.206   9.308
80680SOL    HW143873  10.548   1.258   9.361
80680SOL    HW243874  10.557   1.132   9.278
80681SOL     OW43875   5.075   8.793   6.194
80681SOL    HW143876   5.142   8.728   6.174
80681SOL    HW243877   5.062   8.786   6.289
80682SOL     OW43878   7.897  10.850   4.396
80682SOL    HW143879   7.900  10.853   4.300
80682SOL    HW243880   7.987  10.869   4.423
80683SOL     OW43881   3.719   0.449   9.300
80683SOL    HW143882   3.706   0.443   9.205
80683SOL    HW243883   3.781   0.378   9.319
80684SOL     OW43884   0.115   8.040  12.007
80684SOL    HW143885   0.062   8.118  12.022
80684SOL    HW243886   0.053   7.967  12.015
80685SOL     OW43887  10.162   2.766  10.358
80685SOL    HW143888  10.136   2.807  10.441
80685SOL    HW243889  10.081   2.728  10.324
80686SOL     OW43890   9.879  11.877   5.448
80686SOL    HW143891   9.839  11.963   5.437
80686SOL    HW243892   9.969  11.896   5.476
80687SOL     OW43893   9.982   1.384   4.263
80687SOL    HW143894   9.977   1.288   4.263
80687SOL    HW243895   9.899   1.412   4.302
80688SOL     OW43896   9.872   8.132   3.181
80688SOL    HW143897   9.890   8.226   3.179
80688SOL    HW243898   9.778   8.125   3.193
80689SOL     OW43899   5.587  11.900  13.538
80689SOL    HW143900   5.646  11.855  13.598
80689SOL    HW243901   5.583  11.989  13.571
80690SOL     OW43902   5.001   9.759   0.757
80690SOL    HW143903   4.931   9.823   0.761
80690SOL    HW243904   4.994   9.710   0.838
80691SOL     OW43905   3.850  10.483   6.099
80691SOL    HW143906   3.940  10.498   6.131
80691SOL    HW243907   3.844  10.388   6.089
80692SOL     OW43908   7.170  14.688  12.036
80692SOL    HW143909   7.154  14.742  11.958
80692SOL    HW243910   7.235  14.624  12.007
80693SOL     OW43911   3.440   9.574   9.218
80693SOL    HW143912   3.496   9.576   9.296
80693SOL    HW243913   3.457   9.657   9.174
80694SOL     OW43914   4.081   8.180   6.719
80694SOL    HW143915   4.080   8.112   6.787
80694SOL    HW243916   4.000   8.230   6.735
80695SOL     OW43917  14.050   4.503   1.300
80695SOL    HW143918  14.105   4.426   1.285
80695SOL    HW243919  13.967   4.483   1.257
80696SOL     OW43920   8.658   1.054   8.165
80696SOL    HW143921   8.730   1.027   8.108
80696SOL    HW243922   8.598   1.101   8.107
80697SOL     OW43923  11.225   5.277   3.893
80697SOL    HW143924  11.227   5.255   3.800
80697SOL    HW243925  11.132   5.289   3.912
80698SOL     OW43926   1.695   2.274   9.195
80698SOL    HW143927   1.651   2.355   9.220
80698SOL    HW243928   1.694   2.275   9.100
80699SOL     OW43929  12.198   8.727  14.203
80699SOL    HW143930  12.244   8.794  14.253
80699SOL    HW243931  12.133   8.692  14.264
80700SOL     OW43932   3.984  12.832   8.649
80700SOL    HW143933   4.010  12.793   8.566
80700SOL    HW243934   3.897  12.797   8.666
80701SOL     OW43935   3.130   6.481   0.836
80701SOL    HW143936   3.124   6.545   0.908
80701SOL    HW243937   3.222   6.483   0.810
80702SOL     OW43938   4.534   4.474   4.678
80702SOL    HW143939   4.568   4.509   4.596
80702SOL    HW243940   4.482   4.398   4.652
80703SOL     OW43941   1.969  11.154   7.473
80703SOL    HW143942   1.899  11.220   7.479
80703SOL    HW243943   1.977  11.136   7.379
80704SOL     OW43944   9.521   3.575   4.897
80704SOL    HW143945   9.575   3.555   4.974
80704SOL    HW243946   9.432   3.549   4.923
80705SOL     OW43947   8.326   3.650  11.025
80705SOL    HW143948   8.280   3.650  10.941
80705SOL    HW243949   8.399   3.712  11.012
80706SOL     OW43950   7.944   6.093   5.692
80706SOL    HW143951   7.890   6.155   5.643
80706SOL    HW243952   8.001   6.148   5.746
80707SOL     OW43953   4.930  14.865   8.338
80707SOL    HW143954   4.855   0.032   8.299
80707SOL    HW243955   4.915  14.773   8.316
80708SOL     OW43956   5.035   0.559   6.518
80708SOL    HW143957   5.123   0.522   6.509
80708SOL    HW243958   4.994   0.542   6.433
80709SOL     OW43959   6.729  10.915   5.543
80709SOL    HW143960   6.681  10.841   5.505
80709SOL    HW243961   6.695  10.922   5.632
80710SOL     OW43962   0.301   8.806   0.464
80710SOL    HW143963   0.397   8.805   0.458
80710SOL    HW243964   0.272   8.779   0.377
80711SOL     OW43965   5.770   3.861   4.518
80711SOL    HW143966   5.833   3.820   4.577
80711SOL    HW243967   5.782   3.814   4.435
80712SOL     OW43968   9.689   0.287   2.441
80712SOL    HW143969   9.748   0.359   2.465
80712SOL    HW243970   9.670   0.303   2.348
80713SOL     OW43971  13.612  12.214   8.693
80713SOL    HW143972  13.627  12.214   8.598
80713SOL    HW243973  13.699  12.198   8.731
80714SOL     OW43974   5.539   1.708   6.472
80714SOL    HW143975   5.576   1.620   6.480
80714SOL    HW243976   5.487   1.719   6.551
80715SOL     OW43977   7.117  13.630  12.724
80715SOL    HW143978   7.158  13.697  12.670
80715SOL    HW243979   7.183  13.561  12.732
80716SOL     OW43980  10.840   1.472  12.007
80716SOL    HW143981  10.765   1.429  11.965
80716SOL    HW243982  10.832   1.564  11.983
80717SOL     OW43983  11.162   4.347  14.430
80717SOL    HW143984  11.141   4.421  14.486
80717SOL    HW243985  11.082   4.331  14.380
80718SOL     OW43986   6.751   7.152   2.281
80718SOL    HW143987   6.718   7.203   2.207
80718SOL    HW243988   6.726   7.062   2.260
80719SOL     OW43989   9.366   7.530  10.881
80719SOL    HW143990   9.461   7.534  10.871
80719SOL    HW243991   9.336   7.619  10.860
80720SOL     OW43992   8.194   1.775   1.433
80720SOL    HW143993   8.116   1.830   1.429
80720SOL    HW243994   8.265   1.834   1.406
80721SOL     OW43995   0.185  12.083   8.329
80721SOL    HW143996   0.116  12.147   8.310
80721SOL    HW243997   0.145  12.021   8.390
80722SOL     OW43998   8.238   9.281   2.564
80722SOL    HW143999   8.210   9.257   2.652
80722SOL    HW244000   8.231   9.376   2.562
80723SOL     OW44001  11.710   7.812   7.145
80723SOL    HW144002  11.704   7.826   7.239
80723SOL    HW244003  11.785   7.865   7.117
80724SOL     OW44004  14.111  12.437   8.063
80724SOL    HW144005  14.135  12.430   7.970
80724SOL    HW244006  14.051  12.512   8.066
80725SOL     OW44007  13.063   8.497  10.036
80725SOL    HW144008  13.072   8.426  10.099
80725SOL    HW244009  12.978   8.483   9.995
80726SOL     OW44010   2.958   0.246  12.570
80726SOL    HW144011   2.964   0.333  12.531
80726SOL    HW244012   2.904   0.258  12.648
80727SOL     OW44013   0.498   7.269  13.726
80727SOL    HW144014   0.533   7.182  13.708
80727SOL    HW244015   0.526   7.289  13.815
80728SOL     OW44016  12.635  11.952   1.988
80728SOL    HW144017  12.671  12.040   1.993
80728SOL    HW244018  12.642  11.917   2.077
80729SOL     OW44019  11.481   3.485   7.525
80729SOL    HW144020  11.519   3.568   7.499
80729SOL    HW244021  11.392   3.506   7.553
80730SOL     OW44022   5.241  10.451   8.661
80730SOL    HW144023   5.305  10.380   8.661
80730SOL    HW244024   5.157  10.408   8.671
80731SOL     OW44025   6.999   7.821   5.518
80731SOL    HW144026   6.942   7.768   5.463
80731SOL    HW244027   6.945   7.896   5.543
80732SOL     OW44028   3.982  12.125  12.455
80732SOL    HW144029   4.062  12.140  12.506
80732SOL    HW244030   3.988  12.034  12.426
80733SOL     OW44031   9.646   9.181   9.559
80733SOL    HW144032   9.563   9.134   9.548
80733SOL    HW244033   9.685   9.181   9.472
80734SOL     OW44034  13.006  13.276   3.217
80734SOL    HW144035  12.956  13.195   3.211
80734SOL    HW244036  12.997  13.302   3.309
80735SOL     OW44037   1.444   8.542  12.471
80735SOL    HW144038   1.416   8.515  12.383
80735SOL    HW244039   1.370   8.592  12.505
80736SOL     OW44040   3.321   8.232  11.877
80736SOL    HW144041   3.393   8.248  11.938
80736SOL    HW244042   3.243   8.264  11.923
80737SOL     OW44043   2.177   7.009   0.437
80737SOL    HW144044   2.160   7.075   0.370
80737SOL    HW244045   2.128   7.039   0.513
80738SOL     OW44046   5.004   5.277   1.760
80738SOL    HW144047   4.954   5.355   1.740
80738SOL    HW244048   5.003   5.226   1.678
80739SOL     OW44049   0.657  13.227   7.568
80739SOL    HW144050   0.632  13.151   7.620
80739SOL    HW244051   0.739  13.257   7.607
80740SOL     OW44052   3.668   5.802  11.269
80740SOL    HW144053   3.602   5.811  11.200
80740SOL    HW244054   3.633   5.855  11.341
80741SOL     OW44055   8.282   8.412  14.371
80741SOL    HW144056   8.203   8.416  14.426
80741SOL    HW244057   8.289   8.500  14.333
80742SOL     OW44058   3.141   4.405   1.541
80742SOL    HW144059   3.173   4.334   1.486
80742SOL    HW244060   3.062   4.435   1.497
80743SOL     OW44061   6.716   9.410   0.773
80743SOL    HW144062   6.770   9.412   0.694
80743SOL    HW244063   6.637   9.362   0.747
80744SOL     OW44064  14.128  10.110   6.365
80744SOL    HW144065  14.122  10.036   6.426
80744SOL    HW244066  14.064  10.089   6.297
80745SOL     OW44067   3.053   3.472   9.096
80745SOL    HW144068   3.023   3.382   9.098
80745SOL    HW244069   3.053   3.496   9.004
80746SOL     OW44070   4.318  12.592   0.585
80746SOL    HW144071   4.339  12.506   0.619
80746SOL    HW244072   4.329  12.651   0.659
80747SOL     OW44073   4.773   6.918  10.254
80747SOL    HW144074   4.752   6.925  10.161
80747SOL    HW244075   4.836   6.989  10.270
80748SOL     OW44076   0.318  13.997  14.323
80748SOL    HW144077   0.308  13.936  14.250
80748SOL    HW244078   0.389  14.055  14.295
80749SOL     OW44079  10.036   0.271  12.907
80749SOL    HW144080  10.086   0.222  12.971
80749SOL    HW244081  10.060   0.362  12.922
80750SOL     OW44082   2.703  12.860   9.608
80750SOL    HW144083   2.749  12.876   9.690
80750SOL    HW244084   2.625  12.914   9.612
80751SOL     OW44085   6.996  12.634   8.731
80751SOL    HW144086   6.904  12.611   8.721
80751SOL    HW244087   7.032  12.629   8.642
80752SOL     OW44088   1.617  12.194   6.398
80752SOL    HW144089   1.544  12.210   6.458
80752SOL    HW244090   1.592  12.116   6.349
80753SOL     OW44091   1.880   0.352  14.114
80753SOL    HW144092   1.797   0.394  14.093
80753SOL    HW244093   1.903   0.385  14.201
80754SOL     OW44094   7.089  10.518   5.768
80754SOL    HW144095   7.082  10.608   5.736
80754SOL    HW244096   7.055  10.464   5.697
80755SOL     OW44097   7.700  12.898   8.036
80755SOL    HW144098   7.655  12.971   7.993
80755SOL    HW244099   7.784  12.892   7.991
80756SOL     OW44100   4.724   1.259  13.276
80756SOL    HW144101   4.788   1.188  13.276
80756SOL    HW244102   4.755   1.320  13.210
80757SOL     OW44103   9.679   1.664  13.965
80757SOL    HW144104   9.652   1.698  14.050
80757SOL    HW244105   9.600   1.665  13.911
80758SOL     OW44106  11.228   8.702   8.601
80758SOL    HW144107  11.320   8.725   8.591
80758SOL    HW244108  11.219   8.619   8.555
80759SOL     OW44109  10.765   9.399  12.583
80759SOL    HW144110  10.844   9.362  12.544
80759SOL    HW244111  10.790   9.489  12.606
80760SOL     OW44112   7.340   9.118  14.042
80760SOL    HW144113   7.368   9.103  13.952
80760SOL    HW244114   7.294   9.038  14.066
80761SOL     OW44115  10.281  11.599  11.151
80761SOL    HW144116  10.240  11.540  11.089
80761SOL    HW244117  10.274  11.686  11.111
80762SOL     OW44118  12.377   0.531   6.377
80762SOL    HW144119  12.411   0.479   6.450
80762SOL    HW244120  12.289   0.556   6.406
80763SOL     OW44121   1.034   8.011   4.620
80763SOL    HW144122   1.119   8.039   4.585
80763SOL    HW244123   1.028   7.918   4.597
80764SOL     OW44124  13.696   2.996   6.275
80764SOL    HW144125  13.750   2.931   6.231
80764SOL    HW244126  13.628   2.945   6.318
80765SOL     OW44127   3.642  12.236   2.784
80765SOL    HW144128   3.691  12.280   2.854
80765SOL    HW244129   3.710  12.196   2.730
80766SOL     OW44130   3.308  14.723  12.706
80766SOL    HW144131   3.307  14.803  12.653
80766SOL    HW244132   3.278  14.752  12.792
80767SOL     OW44133   4.077  10.517   9.490
80767SOL    HW144134   4.005  10.456   9.503
80767SOL    HW244135   4.153  10.461   9.473
80768SOL     OW44136  13.924   0.775   7.352
80768SOL    HW144137  14.009   0.734   7.338
80768SOL    HW244138  13.902   0.814   7.267
80769SOL     OW44139   7.264   4.002  12.790
80769SOL    HW144140   7.218   3.923  12.818
80769SOL    HW244141   7.195   4.060  12.759
80770SOL     OW44142   7.832  13.585   7.206
80770SOL    HW144143   7.870  13.499   7.225
80770SOL    HW244144   7.859  13.603   7.116
80771SOL     OW44145  10.902   1.197  10.425
80771SOL    HW144146  10.891   1.238  10.511
80771SOL    HW244147  10.876   1.265  10.363
80772SOL     OW44148  13.669   9.722   7.052
80772SOL    HW144149  13.625   9.637   7.050
80772SOL    HW244150  13.639   9.767   6.973
80773SOL     OW44151   9.761   4.660  11.555
80773SOL    HW144152   9.816   4.642  11.479
80773SOL    HW244153   9.761   4.578  11.604
80774SOL     OW44154  10.632   2.472   4.032
80774SOL    HW144155  10.558   2.463   3.972
80774SOL    HW244156  10.694   2.528   3.986
80775SOL     OW44157   1.468   7.624   5.247
80775SOL    HW144158   1.500   7.671   5.323
80775SOL    HW244159   1.436   7.692   5.188
80776SOL     OW44160   0.856   7.957   0.511
80776SOL    HW144161   0.767   7.972   0.545
80776SOL    HW244162   0.843   7.897   0.438
80777SOL     OW44163   0.133   0.864   6.978
80777SOL    HW144164   0.055   0.823   6.941
80777SOL    HW244165   0.100   0.939   7.027
80778SOL     OW44166   8.904   7.403   2.151
80778SOL    HW144167   8.861   7.368   2.072
80778SOL    HW244168   8.842   7.385   2.221
80779SOL     OW44169   8.440   8.501   8.513
80779SOL    HW144170   8.350   8.500   8.547
80779SOL    HW244171   8.451   8.589   8.479
80780SOL     OW44172   2.678  11.744   4.207
80780SOL    HW144173   2.720  11.672   4.159
80780SOL    HW244174   2.745  11.774   4.269
80781SOL     OW44175   6.542  12.723   7.092
80781SOL    HW144176   6.473  12.667   7.129
80781SOL    HW244177   6.501  12.766   7.017
80782SOL     OW44178   4.751   0.495  10.681
80782SOL    HW144179   4.732   0.406  10.710
80782SOL    HW244180   4.705   0.551  10.743
80783SOL     OW44181   2.710   3.028   9.902
80783SOL    HW144182   2.665   2.961   9.954
80783SOL    HW244183   2.796   3.036   9.944
80784SOL     OW44184   6.482   7.998  13.286
80784SOL    HW144185   6.563   8.050  13.281
80784SOL    HW244186   6.472   7.979  13.379
80785SOL     OW44187   2.852   5.428  10.718
80785SOL    HW144188   2.938   5.402  10.684
80785SOL    HW244189   2.858   5.415  10.812
80786SOL     OW44190   2.522  12.464   2.952
80786SOL    HW144191   2.500  12.434   3.040
80786SOL    HW244192   2.447  12.435   2.898
80787SOL     OW44193   0.456   9.197   0.589
80787SOL    HW144194   0.480   9.286   0.613
80787SOL    HW244195   0.519   9.172   0.521
80788SOL     OW44196  10.548  13.869  13.817
80788SOL    HW144197  10.545  13.955  13.859
80788SOL    HW244198  10.495  13.879  13.738
80789SOL     OW44199  12.871   6.069   3.244
80789SOL    HW144200  12.856   6.162   3.262
80789SOL    HW244201  12.895   6.032   3.329
80790SOL     OW44202   5.386   4.112  11.658
80790SOL    HW144203   5.297   4.133  11.686
80790SOL    HW244204   5.381   4.020  11.630
80791SOL     OW44205   7.119  13.533  10.642
80791SOL    HW144206   7.149  13.458  10.590
80791SOL    HW244207   7.185  13.601  10.626
80792SOL     OW44208   3.655   6.411   0.035
80792SOL    HW144209   3.682   6.405  14.822
80792SOL    HW244210   3.635   6.320   0.059
80793SOL     OW44211   4.818  11.741   3.447
80793SOL    HW144212   4.802  11.663   3.393
80793SOL    HW244213   4.780  11.813   3.396
80794SOL     OW44214   1.843   0.916   5.366
80794SOL    HW144215   1.853   0.939   5.459
80794SOL    HW244216   1.932   0.905   5.334
80795SOL     OW44217   9.206   3.688  10.012
80795SOL    HW144218   9.285   3.725   9.974
80795SOL    HW244219   9.140   3.758  10.002
80796SOL     OW44220  13.621   7.073  11.946
80796SOL    HW144221  13.645   7.136  11.879
80796SOL    HW244222  13.555   7.118  11.999
80797SOL     OW44223   5.122  13.477  13.317
80797SOL    HW144224   5.096  13.491  13.408
80797SOL    HW244225   5.099  13.386  13.299
80798SOL     OW44226   9.000   5.621   2.779
80798SOL    HW144227   9.019   5.549   2.719
80798SOL    HW244228   9.050   5.695   2.743
80799SOL     OW44229   5.698   8.566   6.886
80799SOL    HW144230   5.622   8.589   6.832
80799SOL    HW244231   5.701   8.633   6.954
80800SOL     OW44232   7.467  12.460   6.184
80800SOL    HW144233   7.560  12.464   6.162
80800SOL    HW244234   7.435  12.383   6.138
80801SOL     OW44235   4.938  13.945   1.876
80801SOL    HW144236   5.006  13.889   1.838
80801SOL    HW244237   4.891  13.888   1.936
80802SOL     OW44238  12.929   6.008   1.128
80802SOL    HW144239  12.945   5.969   1.214
80802SOL    HW244240  12.851   6.062   1.140
80803SOL     OW44241  14.180   0.694   9.161
80803SOL    HW144242  14.236   0.702   9.084
80803SOL    HW244243  14.232   0.732   9.232
80804SOL     OW44244   3.979   5.204   2.880
80804SOL    HW144245   4.014   5.268   2.818
80804SOL    HW244246   4.056   5.158   2.913
80805SOL     OW44247   6.189  11.516   2.411
80805SOL    HW144248   6.258  11.498   2.347
80805SOL    HW244249   6.226  11.486   2.495
80806SOL     OW44250  12.575   7.091   1.758
80806SOL    HW144251  12.532   7.170   1.791
80806SOL    HW244252  12.666   7.101   1.785
80807SOL     OW44253   7.737   4.902   9.277
80807SOL    HW144254   7.722   4.944   9.362
80807SOL    HW244255   7.746   4.975   9.216
80808SOL     OW44256  11.133   2.839  12.428
80808SOL    HW144257  11.070   2.903  12.393
80808SOL    HW244258  11.204   2.839  12.365
80809SOL     OW44259   1.262  13.426   8.662
80809SOL    HW144260   1.269  13.509   8.614
80809SOL    HW244261   1.278  13.450   8.753
80810SOL     OW44262   7.025   4.674  12.060
80810SOL    HW144263   7.049   4.657  11.969
80810SOL    HW244264   7.082   4.617  12.111
80811SOL     OW44265  11.691   8.162  11.668
80811SOL    HW144266  11.714   8.222  11.597
80811SOL    HW244267  11.595   8.167  11.673
80812SOL     OW44268  13.624  13.925  11.904
80812SOL    HW144269  13.614  14.010  11.862
80812SOL    HW244270  13.695  13.882  11.855
80813SOL     OW44271   4.667   0.926   7.314
80813SOL    HW144272   4.743   0.870   7.333
80813SOL    HW244273   4.706   1.010   7.289
80814SOL     OW44274   8.204   2.751  10.300
80814SOL    HW144275   8.168   2.783  10.217
80814SOL    HW244276   8.270   2.687  10.275
80815SOL     OW44277  14.213   7.703   4.831
80815SOL    HW144278  14.162   7.641   4.883
80815SOL    HW244279  14.222   7.780   4.887
80816SOL     OW44280   3.841  12.869  13.753
80816SOL    HW144281   3.932  12.896  13.769
80816SOL    HW244282   3.795  12.951  13.732
80817SOL     OW44283  13.782  11.221  11.083
80817SOL    HW144284  13.766  11.201  10.990
80817SOL    HW244285  13.698  11.253  11.115
80818SOL     OW44286  13.539   5.008   0.130
80818SOL    HW144287  13.566   4.917   0.137
80818SOL    HW244288  13.458   5.005   0.079
80819SOL     OW44289   7.233   1.417   7.348
80819SOL    HW144290   7.317   1.447   7.383
80819SOL    HW244291   7.255   1.370   7.268
80820SOL     OW44292   3.506  10.227  13.818
80820SOL    HW144293   3.589  10.200  13.857
80820SOL    HW244294   3.516  10.321  13.804
80821SOL     OW44295   2.103   7.342  11.983
80821SOL    HW144296   2.130   7.434  11.977
80821SOL    HW244297   2.106   7.322  12.076
80822SOL     OW44298   1.973   7.654  14.713
80822SOL    HW144299   2.038   7.686  14.651
80822SOL    HW244300   1.969   7.721  14.781
80823SOL     OW44301  10.733   9.010  11.493
80823SOL    HW144302  10.670   8.945  11.463
80823SOL    HW244303  10.818   8.974  11.470
80824SOL     OW44304   6.841   6.705   4.854
80824SOL    HW144305   6.918   6.762   4.856
80824SOL    HW244306   6.769   6.763   4.879
80825SOL     OW44307   6.645   5.774  10.921
80825SOL    HW144308   6.578   5.732  10.975
80825SOL    HW244309   6.678   5.845  10.976
80826SOL     OW44310  10.612   9.215  12.115
80826SOL    HW144311  10.702   9.195  12.141
80826SOL    HW244312  10.559   9.148  12.160
80827SOL     OW44313   3.338   8.744   7.513
80827SOL    HW144314   3.333   8.833   7.549
80827SOL    HW244315   3.339   8.757   7.418
80828SOL     OW44316  11.917   8.123   6.387
80828SOL    HW144317  11.883   8.042   6.424
80828SOL    HW244318  11.980   8.154   6.452
80829SOL     OW44319  10.728   3.479   0.756
80829SOL    HW144320  10.732   3.518   0.843
80829SOL    HW244321  10.786   3.403   0.760
80830SOL     OW44322   3.702   6.293   0.816
80830SOL    HW144323   3.782   6.337   0.846
80830SOL    HW244324   3.688   6.326   0.727
80831SOL     OW44325   4.505   8.938   8.075
80831SOL    HW144326   4.467   8.914   7.990
80831SOL    HW244327   4.483   8.865   8.133
80832SOL     OW44328   7.769   8.717   3.341
80832SOL    HW144329   7.836   8.651   3.325
80832SOL    HW244330   7.776   8.738   3.434
80833SOL     OW44331   1.993   5.982   2.954
80833SOL    HW144332   1.974   5.919   2.884
80833SOL    HW244333   2.006   5.928   3.032
80834SOL     OW44334   7.033   7.117   7.648
80834SOL    HW144335   6.980   7.157   7.716
80834SOL    HW244336   7.121   7.115   7.685
80835SOL     OW44337   5.207   9.672   3.856
80835SOL    HW144338   5.252   9.644   3.936
80835SOL    HW244339   5.145   9.738   3.885
80836SOL     OW44340   3.255  11.443   6.965
80836SOL    HW144341   3.246  11.348   6.977
80836SOL    HW244342   3.199  11.480   7.033
80837SOL     OW44343   0.373  13.497  12.259
80837SOL    HW144344   0.436  13.516  12.329
80837SOL    HW244345   0.428  13.473  12.184
80838SOL     OW44346   3.398   6.618  11.557
80838SOL    HW144347   3.447   6.687  11.601
80838SOL    HW244348   3.333   6.589  11.622
80839SOL     OW44349   2.022   6.735   3.953
80839SOL    HW144350   2.077   6.777   3.887
80839SOL    HW244351   2.061   6.761   4.037
80840SOL     OW44352   1.406   5.677   8.990
80840SOL    HW144353   1.397   5.773   8.994
80840SOL    HW244354   1.501   5.663   8.985
80841SOL     OW44355  10.481   2.455   3.333
80841SOL    HW144356  10.491   2.519   3.404
80841SOL    HW244357  10.463   2.373   3.378
80842SOL     OW44358   5.577   5.593  13.530
80842SOL    HW144359   5.491   5.635  13.541
80842SOL    HW244360   5.557   5.505  13.499
80843SOL     OW44361   0.923   9.180  14.082
80843SOL    HW144362   1.003   9.133  14.106
80843SOL    HW244363   0.857   9.112  14.073
80844SOL     OW44364   1.745   4.767   9.748
80844SOL    HW144365   1.750   4.734   9.658
80844SOL    HW244366   1.654   4.793   9.760
80845SOL     OW44367  14.544  14.700  12.075
80845SOL    HW144368  14.470  14.758  12.057
80845SOL    HW244369  14.558  14.708  12.169
80846SOL     OW44370  14.831  11.183  11.900
80846SOL    HW144371  14.870  11.104  11.861
80846SOL    HW244372  14.748  11.194  11.854
80847SOL     OW44373   1.412  11.840   7.533
80847SOL    HW144374   1.350  11.859   7.604
80847SOL    HW244375   1.390  11.904   7.465
80848SOL     OW44376  14.577   4.919  11.276
80848SOL    HW144377  14.532   4.958  11.351
80848SOL    HW244378  14.542   4.966  11.200
80849SOL     OW44379   5.865   7.375  13.232
80849SOL    HW144380   5.826   7.460  13.213
80849SOL    HW244381   5.843   7.321  13.156
80850SOL     OW44382   1.374  11.540  14.814
80850SOL    HW144383   1.431  11.486  14.760
80850SOL    HW244384   1.425  11.620  14.831
80851SOL     OW44385   4.923   2.241   1.152
80851SOL    HW144386   4.863   2.315   1.146
80851SOL    HW244387   4.989   2.268   1.216
80852SOL     OW44388   3.614   3.539  13.508
80852SOL    HW144389   3.577   3.543  13.596
80852SOL    HW244390   3.673   3.464  13.509
80853SOL     OW44391   5.292  12.014   9.848
80853SOL    HW144392   5.264  12.063   9.925
80853SOL    HW244393   5.385  11.996   9.864
80854SOL     OW44394   4.966  12.927  10.869
80854SOL    HW144395   4.887  12.962  10.910
80854SOL    HW244396   4.995  12.858  10.929
80855SOL     OW44397  13.285  10.804  12.122
80855SOL    HW144398  13.199  10.765  12.135
80855SOL    HW244399  13.282  10.838  12.032
80856SOL     OW44400  11.131   4.630   8.509
80856SOL    HW144401  11.223   4.653   8.502
80856SOL    HW244402  11.130   4.548   8.558
80857SOL     OW44403   8.995  14.788   0.332
80857SOL    HW144404   9.016  14.862   0.389
80857SOL    HW244405   8.902  14.798   0.312
80858SOL     OW44406  12.159  14.095   7.713
80858SOL    HW144407  12.245  14.087   7.670
80858SOL    HW244408  12.131  14.005   7.726
80859SOL     OW44409   5.288   6.812   1.156
80859SOL    HW144410   5.351   6.880   1.178
80859SOL    HW244411   5.316   6.736   1.207
80860SOL     OW44412   8.806   2.046  14.766
80860SOL    HW144413   8.772   1.963  14.799
80860SOL    HW244414   8.752   2.113  14.808
80861SOL     OW44415   9.154   2.642   2.186
80861SOL    HW144416   9.092   2.709   2.160
80861SOL    HW244417   9.239   2.677   2.161
80862SOL     OW44418  11.528  14.213   6.654
80862SOL    HW144419  11.545  14.202   6.748
80862SOL    HW244420  11.612  14.197   6.612
80863SOL     OW44421  10.005   4.534   5.026
80863SOL    HW144422  10.054   4.599   5.076
80863SOL    HW244423   9.947   4.586   4.970
80864SOL     OW44424   9.392  11.283   7.355
80864SOL    HW144425   9.388  11.281   7.259
80864SOL    HW244426   9.338  11.209   7.383
80865SOL     OW44427   3.825   6.568   0.429
80865SOL    HW144428   3.879   6.644   0.407
80865SOL    HW244429   3.737   6.603   0.440
80866SOL     OW44430   5.894   2.015  12.164
80866SOL    HW144431   5.800   2.031  12.169
80866SOL    HW244432   5.906   1.965  12.084
80867SOL     OW44433   0.007   5.606   2.929
80867SOL    HW144434  14.868   5.696   2.902
80867SOL    HW244435   0.088   5.611   2.978
80868SOL     OW44436   1.880  13.209   5.602
80868SOL    HW144437   1.953  13.164   5.642
80868SOL    HW244438   1.802  13.173   5.644
80869SOL     OW44439   9.779   2.394  14.825
80869SOL    HW144440   9.695   2.349  14.828
80869SOL    HW244441   9.810   2.384  14.735
80870SOL     OW44442   7.985   4.346   9.611
80870SOL    HW144443   7.977   4.301   9.527
80870SOL    HW244444   8.079   4.357   9.623
80871SOL     OW44445  12.161   7.987  13.580
80871SOL    HW144446  12.200   7.930  13.514
80871SOL    HW244447  12.236   8.029  13.623
80872SOL     OW44448   5.134   0.474  14.062
80872SOL    HW144449   5.156   0.381  14.065
80872SOL    HW244450   5.174   0.505  13.980
80873SOL     OW44451   5.441  14.588  14.129
80873SOL    HW144452   5.466  14.496  14.138
80873SOL    HW244453   5.500  14.622  14.061
80874SOL     OW44454   2.470   5.680  12.370
80874SOL    HW144455   2.539   5.742  12.347
80874SOL    HW244456   2.471   5.678  12.466
80875SOL     OW44457  14.695   6.280  12.824
80875SOL    HW144458  14.621   6.298  12.881
80875SOL    HW244459  14.732   6.198  12.857
80876SOL     OW44460  14.737  10.333   8.234
80876SOL    HW144461  14.647  10.363   8.224
80876SOL    HW244462  14.752  10.275   8.159
80877SOL     OW44463  14.564   9.683   1.416
80877SOL    HW144464  14.521   9.625   1.479
80877SOL    HW244465  14.655   9.688   1.446
80878SOL     OW44466  10.073   5.488  11.838
80878SOL    HW144467  10.078   5.499  11.933
80878SOL    HW244468   9.988   5.445  11.823
80879SOL     OW44469  14.821  13.934   4.922
80879SOL    HW144470  14.860  13.961   4.839
80879SOL    HW244471  14.771  13.856   4.900
80880SOL     OW44472  14.069   3.824   0.628
80880SOL    HW144473  14.049   3.764   0.556
80880SOL    HW244474  14.032   3.908   0.599
80881SOL     OW44475   7.648   7.007   4.607
80881SOL    HW144476   7.651   6.967   4.694
80881SOL    HW244477   7.658   7.101   4.624
80882SOL     OW44478  13.467  11.484   8.800
80882SOL    HW144479  13.472  11.563   8.853
80882SOL    HW244480  13.488  11.514   8.711
80883SOL     OW44481   1.384   7.933   1.774
80883SOL    HW144482   1.470   7.971   1.791
80883SOL    HW244483   1.402   7.857   1.718
80884SOL     OW44484   1.616   9.525  14.027
80884SOL    HW144485   1.556   9.461  13.991
80884SOL    HW244486   1.586   9.539  14.117
80885SOL     OW44487   0.546   4.947   9.135
80885SOL    HW144488   0.485   4.979   9.201
80885SOL    HW244489   0.596   5.024   9.108
80886SOL     OW44490   4.494   7.117   3.658
80886SOL    HW144491   4.530   7.085   3.741
80886SOL    HW244492   4.415   7.063   3.644
80887SOL     OW44493   7.874   7.515   3.818
80887SOL    HW144494   7.890   7.577   3.888
80887SOL    HW244495   7.873   7.429   3.861
80888SOL     OW44496   8.366  10.519   9.747
80888SOL    HW144497   8.272  10.526   9.763
80888SOL    HW244498   8.392  10.438   9.790
80889SOL     OW44499   5.054   5.575  11.456
80889SOL    HW144500   5.004   5.605  11.380
80889SOL    HW244501   4.999   5.509  11.497
80890SOL     OW44502   1.021   9.104   3.640
80890SOL    HW144503   1.089   9.054   3.596
80890SOL    HW244504   1.048   9.105   3.732
80891SOL     OW44505   5.342  13.380   7.787
80891SOL    HW144506   5.339  13.294   7.829
80891SOL    HW244507   5.296  13.368   7.704
80892SOL     OW44508   4.072   0.255  14.444
80892SOL    HW144509   4.036   0.248  14.355
80892SOL    HW244510   4.120   0.173  14.457
80893SOL     OW44511   6.947   7.048   6.807
80893SOL    HW144512   6.934   7.027   6.899
80893SOL    HW244513   6.896   7.128   6.793
80894SOL     OW44514   3.481  10.012  13.259
80894SOL    HW144515   3.535   9.991  13.335
80894SOL    HW244516   3.456  10.103  13.272
80895SOL     OW44517   0.093   7.254   1.106
80895SOL    HW144518   0.087   7.249   1.201
80895SOL    HW244519   0.169   7.311   1.090
80896SOL     OW44520   5.728  14.350  11.802
80896SOL    HW144521   5.647  14.347  11.853
80896SOL    HW244522   5.727  14.268  11.751
80897SOL     OW44523   0.990  12.833  13.524
80897SOL    HW144524   1.033  12.780  13.457
80897SOL    HW244525   1.059  12.850  13.588
80898SOL     OW44526   4.969   2.319   4.240
80898SOL    HW144527   5.030   2.255   4.277
80898SOL    HW244528   5.009   2.404   4.257
80899SOL     OW44529   7.914  11.828  14.315
80899SOL    HW144530   8.005  11.805  14.334
80899SOL    HW244531   7.919  11.884  14.238
80900SOL     OW44532   8.864   3.599   6.423
80900SOL    HW144533   8.944   3.546   6.419
80900SOL    HW244534   8.827   3.593   6.335
80901SOL     OW44535   0.411   7.714   4.595
80901SOL    HW144536   0.406   7.759   4.680
80901SOL    HW244537   0.325   7.728   4.556
80902SOL     OW44538  13.592  13.670   4.269
80902SOL    HW144539  13.548  13.634   4.346
80902SOL    HW244540  13.682  13.683   4.297
80903SOL     OW44541   8.136  12.258   6.342
80903SOL    HW144542   8.040  12.251   6.337
80903SOL    HW244543   8.167  12.225   6.258
80904SOL     OW44544   7.338   6.877   1.837
80904SOL    HW144545   7.254   6.912   1.869
80904SOL    HW244546   7.348   6.916   1.750
80905SOL     OW44547  13.816   1.134   0.925
80905SOL    HW144548  13.783   1.142   0.836
80905SOL    HW244549  13.755   1.184   0.978
80906SOL     OW44550   5.424   8.159   2.507
80906SOL    HW144551   5.422   8.124   2.418
80906SOL    HW244552   5.517   8.177   2.523
80907SOL     OW44553   5.369  10.231   0.881
80907SOL    HW144554   5.425  10.256   0.954
80907SOL    HW244555   5.374  10.305   0.820
80908SOL     OW44556   0.026  14.850   2.983
80908SOL    HW144557   0.022  14.843   3.079
80908SOL    HW244558  14.827  14.803   2.953
80909SOL     OW44559  13.033  14.679   9.182
80909SOL    HW144560  13.047  14.768   9.152
80909SOL    HW244561  13.110  14.659   9.235
80910SOL     OW44562  14.122   9.621   0.886
80910SOL    HW144563  14.216   9.632   0.876
80910SOL    HW244564  14.090   9.707   0.914
80911SOL     OW44565   3.858   4.633   1.788
80911SOL    HW144566   3.856   4.582   1.868
80911SOL    HW244567   3.947   4.622   1.755
80912SOL     OW44568   3.859   3.107   8.683
80912SOL    HW144569   3.827   3.066   8.763
80912SOL    HW244570   3.946   3.069   8.670
80913SOL     OW44571  10.233   4.536   9.366
80913SOL    HW144572  10.277   4.452   9.368
80913SOL    HW244573  10.222   4.561   9.458
80914SOL     OW44574   9.833  14.235  11.378
80914SOL    HW144575   9.815  14.329  11.371
80914SOL    HW244576   9.756  14.199  11.422
80915SOL     OW44577  14.534   7.358   8.057
80915SOL    HW144578  14.486   7.437   8.032
80915SOL    HW244579  14.541   7.364   8.152
80916SOL     OW44580  12.255   0.382   9.840
80916SOL    HW144581  12.279   0.394   9.932
80916SOL    HW244582  12.231   0.290   9.833
80917SOL     OW44583   1.367  11.355   9.372
80917SOL    HW144584   1.414  11.294   9.430
80917SOL    HW244585   1.417  11.354   9.291
80918SOL     OW44586   1.670   6.409   6.317
80918SOL    HW144587   1.637   6.375   6.234
80918SOL    HW244588   1.600   6.389   6.380
80919SOL     OW44589  14.194  10.028   8.698
80919SOL    HW144590  14.237  10.114   8.695
80919SOL    HW244591  14.265   9.965   8.685
80920SOL     OW44592   5.909   9.260   7.937
80920SOL    HW144593   5.889   9.292   8.025
80920SOL    HW244594   5.910   9.338   7.882
80921SOL     OW44595   3.041   3.362   8.451
80921SOL    HW144596   3.021   3.276   8.487
80921SOL    HW244597   3.124   3.351   8.405
80922SOL     OW44598   7.665   7.834  11.622
80922SOL    HW144599   7.575   7.815  11.599
80922SOL    HW244600   7.683   7.781  11.700
80923SOL     OW44601   1.964   2.087   8.241
80923SOL    HW144602   1.884   2.056   8.198
80923SOL    HW244603   1.981   2.021   8.309
80924SOL     OW44604   9.862  14.167  13.420
80924SOL    HW144605   9.891  14.142  13.332
80924SOL    HW244606   9.802  14.240  13.406
80925SOL     OW44607   8.754   2.709   1.022
80925SOL    HW144608   8.663   2.717   1.048
80925SOL    HW244609   8.760   2.622   0.981
80926SOL     OW44610   9.802  12.810  10.736
80926SOL    HW144611   9.834  12.869  10.669
80926SOL    HW244612   9.706  12.816  10.730
80927SOL     OW44613  14.303  13.353   5.549
80927SOL    HW144614  14.395  13.338   5.524
80927SOL    HW244615  14.271  13.267   5.574
80928SOL     OW44616  13.990   6.197   4.613
80928SOL    HW144617  13.933   6.247   4.671
80928SOL    HW244618  13.968   6.105   4.632
80929SOL     OW44619   8.946   8.701  11.596
80929SOL    HW144620   8.893   8.728  11.521
80929SOL    HW244621   8.884   8.663  11.658
80930SOL     OW44622  10.025   5.964   3.528
80930SOL    HW144623   9.941   5.967   3.483
80930SOL    HW244624  10.088   5.996   3.464
80931SOL     OW44625  14.337   8.223   8.818
80931SOL    HW144626  14.359   8.286   8.749
80931SOL    HW244627  14.271   8.268   8.870
80932SOL     OW44628  14.464   4.897   2.241
80932SOL    HW144629  14.436   4.982   2.275
80932SOL    HW244630  14.398   4.875   2.175
80933SOL     OW44631   2.660   0.084  12.826
80933SOL    HW144632   2.629   0.002  12.787
80933SOL    HW244633   2.646   0.150  12.759
80934SOL     OW44634   8.193  13.811   5.310
80934SOL    HW144635   8.262  13.869   5.279
80934SOL    HW244636   8.234  13.761   5.381
80935SOL     OW44637   0.265   5.696  11.948
80935SOL    HW144638   0.204   5.627  11.919
80935SOL    HW244639   0.217   5.777  11.936
80936SOL     OW44640   9.419   4.507   0.039
80936SOL    HW144641   9.426   4.432   0.097
80936SOL    HW244642   9.383   4.472  14.837
80937SOL     OW44643   3.804  12.258   2.160
80937SOL    HW144644   3.723  12.265   2.110
80937SOL    HW244645   3.871  12.235   2.095
80938SOL     OW44646  14.449   9.329  12.761
80938SOL    HW144647  14.516   9.296  12.701
80938SOL    HW244648  14.437   9.420  12.735
80939SOL     OW44649   7.030   6.637  12.633
80939SOL    HW144650   7.092   6.597  12.570
80939SOL    HW244651   7.086   6.680  12.697
80940SOL     OW44652   8.661   2.391  12.879
80940SOL    HW144653   8.636   2.399  12.971
80940SOL    HW244654   8.631   2.473  12.839
80941SOL     OW44655   3.666  12.896  11.132
80941SOL    HW144656   3.636  12.987  11.138
80941SOL    HW244657   3.725  12.886  11.206
80942SOL     OW44658   1.952  13.033  11.132
80942SOL    HW144659   2.024  13.047  11.071
80942SOL    HW244660   1.878  13.007  11.077
80943SOL     OW44661   4.889   6.639   8.648
80943SOL    HW144662   4.969   6.691   8.647
80943SOL    HW244663   4.858   6.643   8.738
80944SOL     OW44664   2.094   5.580  13.445
80944SOL    HW144665   2.008   5.618  13.426
80944SOL    HW244666   2.153   5.655  13.451
80945SOL     OW44667   4.305   8.081   0.590
80945SOL    HW144668   4.326   8.173   0.605
80945SOL    HW244669   4.320   8.039   0.675
80946SOL     OW44670   9.371  12.148   6.436
80946SOL    HW144671   9.376  12.069   6.383
80946SOL    HW244672   9.279  12.154   6.463
80947SOL     OW44673   4.154   6.880   4.880
80947SOL    HW144674   4.182   6.793   4.850
80947SOL    HW244675   4.058   6.877   4.875
80948SOL     OW44676   3.544  10.496   2.466
80948SOL    HW144677   3.484  10.421   2.470
80948SOL    HW244678   3.595  10.482   2.386
80949SOL     OW44679   3.331   2.675  14.838
80949SOL    HW144680   3.303   2.585  14.818
80949SOL    HW244681   3.324   2.682   0.054
80950SOL     OW44682  14.688  11.938   2.829
80950SOL    HW144683  14.705  11.860   2.883
80950SOL    HW244684  14.761  11.941   2.768
80951SOL     OW44685   8.602   6.481   1.041
80951SOL    HW144686   8.522   6.448   1.084
80951SOL    HW244687   8.612   6.426   0.964
80952SOL     OW44688   7.703   1.545   6.494
80952SOL    HW144689   7.611   1.528   6.474
80952SOL    HW244690   7.750   1.522   6.414
80953SOL     OW44691   7.463   2.927   3.911
80953SOL    HW144692   7.508   3.011   3.910
80953SOL    HW244693   7.527   2.864   3.878
80954SOL     OW44694   1.133   6.128   9.624
80954SOL    HW144695   1.040   6.150   9.620
80954SOL    HW244696   1.141   6.070   9.700
80955SOL     OW44697   8.133  14.252   7.981
80955SOL    HW144698   8.038  14.245   7.979
80955SOL    HW244699   8.164  14.162   7.970
80956SOL     OW44700   9.586   6.699  13.603
80956SOL    HW144701   9.562   6.767  13.541
80956SOL    HW244702   9.609   6.624  13.549
80957SOL     OW44703  11.740   5.469   6.839
80957SOL    HW144704  11.747   5.515   6.923
80957SOL    HW244705  11.828   5.474   6.802
80958SOL     OW44706   8.613   7.493  14.349
80958SOL    HW144707   8.694   7.538  14.324
80958SOL    HW244708   8.543   7.550  14.316
80959SOL     OW44709   9.446  12.458  13.330
80959SOL    HW144710   9.506  12.509  13.276
80959SOL    HW244711   9.497  12.382  13.358
80960SOL     OW44712  12.321  13.405   3.734
80960SOL    HW144713  12.293  13.440   3.818
80960SOL    HW244714  12.244  13.415   3.677
80961SOL     OW44715   1.549   1.206   3.707
80961SOL    HW144716   1.493   1.133   3.734
80961SOL    HW244717   1.541   1.209   3.612
80962SOL     OW44718   8.675   5.790   7.165
80962SOL    HW144719   8.769   5.785   7.176
80962SOL    HW244720   8.659   5.880   7.136
80963SOL     OW44721   8.155  14.366  14.360
80963SOL    HW144722   8.167  14.455  14.393
80963SOL    HW244723   8.244  14.332  14.347
80964SOL     OW44724   3.431   4.884   3.811
80964SOL    HW144725   3.468   4.970   3.794
80964SOL    HW244726   3.336   4.897   3.801
80965SOL     OW44727  14.652   3.781   2.902
80965SOL    HW144728  14.708   3.791   2.826
80965SOL    HW244729  14.652   3.687   2.920
80966SOL     OW44730  11.929   8.362  12.415
80966SOL    HW144731  11.868   8.435  12.418
80966SOL    HW244732  12.011   8.398  12.449
80967SOL     OW44733   2.733   2.465  13.583
80967SOL    HW144734   2.740   2.511  13.499
80967SOL    HW244735   2.668   2.397  13.568
80968SOL     OW44736  10.230   4.692  10.236
80968SOL    HW144737  10.243   4.771  10.289
80968SOL    HW244738  10.220   4.725  10.147
80969SOL     OW44739   5.163  11.118  13.772
80969SOL    HW144740   5.071  11.103  13.752
80969SOL    HW244741   5.194  11.034  13.805
80970SOL     OW44742   8.392   7.868   6.049
80970SOL    HW144743   8.426   7.840   5.964
80970SOL    HW244744   8.344   7.948   6.030
80971SOL     OW44745   2.447  12.014  12.312
80971SOL    HW144746   2.425  11.972  12.228
80971SOL    HW244747   2.543  12.009  12.317
80972SOL     OW44748  11.486  13.023   6.852
80972SOL    HW144749  11.446  13.015   6.766
80972SOL    HW244750  11.431  12.969   6.909
80973SOL     OW44751   5.617   0.375   8.242
80973SOL    HW144752   5.522   0.384   8.246
80973SOL    HW244753   5.634   0.325   8.162
80974SOL     OW44754   8.889   2.475   0.179
80974SOL    HW144755   8.859   2.512   0.262
80974SOL    HW244756   8.848   2.531   0.113
80975SOL     OW44757   3.551  14.375   6.949
80975SOL    HW144758   3.507  14.375   6.864
80975SOL    HW244759   3.623  14.313   6.938
80976SOL     OW44760   2.641   3.126   0.580
80976SOL    HW144761   2.678   3.120   0.668
80976SOL    HW244762   2.694   3.066   0.527
80977SOL     OW44763  14.045   9.647   1.366
80977SOL    HW144764  14.136   9.664   1.344
80977SOL    HW244765  14.000   9.645   1.282
80978SOL     OW44766   0.965  11.750   8.597
80978SOL    HW144767   1.014  11.707   8.527
80978SOL    HW244768   0.938  11.679   8.655
80979SOL     OW44769   0.803  14.865  12.568
80979SOL    HW144770   0.895  14.841  12.578
80979SOL    HW244771   0.756  14.782  12.565
80980SOL     OW44772   4.335   3.727   3.279
80980SOL    HW144773   4.385   3.796   3.323
80980SOL    HW244774   4.259   3.713   3.336
80981SOL     OW44775   5.943   6.943   3.948
80981SOL    HW144776   5.861   6.921   3.903
80981SOL    HW244777   5.994   6.862   3.946
80982SOL     OW44778   5.100   7.156   9.757
80982SOL    HW144779   5.078   7.233   9.703
80982SOL    HW244780   5.186   7.176   9.793
80983SOL     OW44781  10.271  13.746   6.054
80983SOL    HW144782  10.310  13.663   6.027
80983SOL    HW244783  10.297  13.808   5.986
80984SOL     OW44784   8.950   0.743   0.291
80984SOL    HW144785   9.008   0.775   0.222
80984SOL    HW244786   8.926   0.654   0.263
80985SOL     OW44787   1.484   8.653   5.590
80985SOL    HW144788   1.574   8.647   5.622
80985SOL    HW244789   1.491   8.693   5.503
80986SOL     OW44790   3.803   6.601   4.763
80986SOL    HW144791   3.770   6.535   4.702
80986SOL    HW244792   3.724   6.635   4.805
80987SOL     OW44793  11.825  14.429  10.514
80987SOL    HW144794  11.742  14.440  10.560
80987SOL    HW244795  11.892  14.460  10.576
80988SOL     OW44796   9.837   6.889   6.125
80988SOL    HW144797   9.807   6.814   6.074
80988SOL    HW244798   9.758   6.942   6.137
80989SOL     OW44799   8.653  12.791  11.633
80989SOL    HW144800   8.567  12.756  11.610
80989SOL    HW244801   8.709  12.764  11.560
80990SOL     OW44802  13.965   9.524   4.467
80990SOL    HW144803  13.875   9.525   4.500
80990SOL    HW244804  13.997   9.436   4.490
80991SOL     OW44805  14.516   6.733   1.102
80991SOL    HW144806  14.539   6.708   1.013
80991SOL    HW244807  14.424   6.709   1.112
80992SOL     OW44808   4.213   8.325  11.279
80992SOL    HW144809   4.237   8.232  11.285
80992SOL    HW244810   4.149   8.337  11.349
80993SOL     OW44811  10.533   4.397   9.136
80993SOL    HW144812  10.564   4.474   9.184
80993SOL    HW244813  10.499   4.431   9.054
80994SOL     OW44814   3.786   5.039   6.543
80994SOL    HW144815   3.811   5.129   6.523
80994SOL    HW244816   3.854   4.985   6.504
80995SOL     OW44817   3.948   8.652  12.510
80995SOL    HW144818   3.881   8.704  12.554
80995SOL    HW244819   4.030   8.691  12.537
80996SOL     OW44820  10.960   0.845   9.967
80996SOL    HW144821  10.954   0.892  10.050
80996SOL    HW244822  11.041   0.879   9.926
80997SOL     OW44823   5.234   1.916   6.241
80997SOL    HW144824   5.176   1.846   6.212
80997SOL    HW244825   5.279   1.945   6.162
80998SOL     OW44826   0.194  12.883  11.610
80998SOL    HW144827   0.179  12.793  11.639
80998SOL    HW244828   0.246  12.922  11.680
80999SOL     OW44829   3.622   6.682   5.553
80999SOL    HW144830   3.623   6.777   5.549
80999SOL    HW244831   3.651   6.654   5.466
81000SOL     OW44832  13.274   1.100   6.175
81000SOL    HW144833  13.219   1.103   6.096
81000SOL    HW244834  13.212   1.097   6.248
81001SOL     OW44835   3.585  14.747   7.970
81001SOL    HW144836   3.527  14.678   8.004
81001SOL    HW244837   3.617  14.712   7.887
81002SOL     OW44838   7.233  10.218   9.035
81002SOL    HW144839   7.201  10.307   9.044
81002SOL    HW244840   7.256  10.210   8.942
81003SOL     OW44841   4.609   3.773   7.631
81003SOL    HW144842   4.585   3.693   7.586
81003SOL    HW244843   4.525   3.815   7.652
81004SOL     OW44844   1.135   5.491  12.409
81004SOL    HW144845   1.150   5.558  12.476
81004SOL    HW244846   1.070   5.432  12.447
81005SOL     OW44847  11.800  10.224  11.337
81005SOL    HW144848  11.804  10.132  11.311
81005SOL    HW244849  11.891  10.247  11.358
81006SOL     OW44850   5.344   2.658   2.296
81006SOL    HW144851   5.371   2.637   2.207
81006SOL    HW244852   5.417   2.707   2.333
81007SOL     OW44853   7.535  12.135   1.450
81007SOL    HW144854   7.543  12.075   1.376
81007SOL    HW244855   7.625  12.156   1.474
81008SOL     OW44856   3.031  13.955   8.462
81008SOL    HW144857   3.057  13.870   8.424
81008SOL    HW244858   2.976  13.995   8.395
81009SOL     OW44859  12.571   2.472  13.125
81009SOL    HW144860  12.647   2.474  13.068
81009SOL    HW244861  12.602   2.506  13.209
81010SOL     OW44862   8.613  12.548   4.085
81010SOL    HW144863   8.705  12.564   4.102
81010SOL    HW244864   8.570  12.559   4.170
81011SOL     OW44865   5.497  10.583  14.060
81011SOL    HW144866   5.404  10.604  14.062
81011SOL    HW244867   5.530  10.628  13.982
81012SOL     OW44868   3.198   3.863   0.314
81012SOL    HW144869   3.240   3.945   0.289
81012SOL    HW244870   3.116   3.861   0.265
81013SOL     OW44871  11.576  10.896   1.471
81013SOL    HW144872  11.491  10.885   1.428
81013SOL    HW244873  11.637  10.850   1.414
81014SOL     OW44874  12.995   5.820  14.329
81014SOL    HW144875  13.086   5.794  14.317
81014SOL    HW244876  12.948   5.782  14.254
81015SOL     OW44877   2.546   2.757   7.969
81015SOL    HW144878   2.527   2.758   8.063
81015SOL    HW244879   2.547   2.849   7.943
81016SOL     OW44880   9.436   1.711  11.608
81016SOL    HW144881   9.356   1.715  11.556
81016SOL    HW244882   9.420   1.770  11.681
81017SOL     OW44883   7.515  12.173   2.371
81017SOL    HW144884   7.549  12.098   2.420
81017SOL    HW244885   7.421  12.157   2.365
81018SOL     OW44886  12.951  10.705   6.420
81018SOL    HW144887  12.971  10.708   6.513
81018SOL    HW244888  12.856  10.702   6.416
81019SOL     OW44889   7.238   5.194   3.852
81019SOL    HW144890   7.276   5.136   3.785
81019SOL    HW244891   7.306   5.200   3.919
81020SOL     OW44892  12.883   3.903   7.592
81020SOL    HW144893  12.850   3.926   7.506
81020SOL    HW244894  12.945   3.973   7.615
81021SOL     OW44895   6.049   6.860  13.702
81021SOL    HW144896   6.107   6.835  13.630
81021SOL    HW244897   6.050   6.955  13.702
81022SOL     OW44898   6.902   2.835   8.665
81022SOL    HW144899   6.807   2.844   8.655
81022SOL    HW244900   6.914   2.818   8.758
81023SOL     OW44901   0.127   0.484   2.360
81023SOL    HW144902   0.033   0.466   2.357
81023SOL    HW244903   0.164   0.411   2.409
81024SOL     OW44904  14.360   1.961   8.235
81024SOL    HW144905  14.378   1.876   8.275
81024SOL    HW244906  14.268   1.979   8.257
81025SOL     OW44907   5.891   6.738  10.130
81025SOL    HW144908   5.872   6.661  10.183
81025SOL    HW244909   5.954   6.788  10.183
81026SOL     OW44910   3.142  11.017   8.030
81026SOL    HW144911   3.199  11.017   7.953
81026SOL    HW244912   3.054  11.022   7.994
81027SOL     OW44913   7.580   9.288   2.679
81027SOL    HW144914   7.571   9.365   2.622
81027SOL    HW244915   7.667   9.297   2.717
81028SOL     OW44916   9.534  13.245  11.091
81028SOL    HW144917   9.551  13.182  11.161
81028SOL    HW244918   9.540  13.194  11.010
81029SOL     OW44919  13.970  12.982  10.096
81029SOL    HW144920  13.936  12.922  10.164
81029SOL    HW244921  13.916  12.964  10.019
81030SOL     OW44922   6.918  11.561   8.285
81030SOL    HW144923   6.848  11.559   8.351
81030SOL    HW244924   6.984  11.501   8.318
81031SOL     OW44925  11.434   6.634   0.014
81031SOL    HW144926  11.480   6.566  14.845
81031SOL    HW244927  11.431   6.602   0.104
81032SOL     OW44928  13.297   3.719  14.619
81032SOL    HW144929  13.351   3.798  14.623
81032SOL    HW244930  13.214   3.744  14.658
81033SOL     OW44931  12.374   7.449   6.653
81033SOL    HW144932  12.404   7.512   6.587
81033SOL    HW244933  12.352   7.370   6.603
81034SOL     OW44934  14.388   1.641   1.014
81034SOL    HW144935  14.349   1.623   0.928
81034SOL    HW244936  14.386   1.556   1.059
81035SOL     OW44937   9.377  10.861   5.311
81035SOL    HW144938   9.293  10.817   5.302
81035SOL    HW244939   9.434  10.795   5.352
81036SOL     OW44940   8.759  14.637   4.150
81036SOL    HW144941   8.766  14.643   4.054
81036SOL    HW244942   8.847  14.613   4.179
81037SOL     OW44943  13.799  11.603   0.452
81037SOL    HW144944  13.883  11.648   0.456
81037SOL    HW244945  13.737  11.670   0.422
81038SOL     OW44946   0.133   3.002  10.692
81038SOL    HW144947   0.097   2.966  10.773
81038SOL    HW244948   0.079   3.080  10.675
81039SOL     OW44949  12.827   0.349  13.959
81039SOL    HW144950  12.790   0.362  14.046
81039SOL    HW244951  12.883   0.425  13.945
81040SOL     OW44952  13.096   1.158   1.129
81040SOL    HW144953  13.043   1.222   1.082
81040SOL    HW244954  13.059   1.158   1.218
81041SOL     OW44955   9.904  13.653   0.834
81041SOL    HW144956   9.862  13.702   0.904
81041SOL    HW244957   9.971  13.600   0.878
81042SOL     OW44958  11.697  13.428   4.134
81042SOL    HW144959  11.719  13.519   4.115
81042SOL    HW244960  11.626  13.434   4.198
81043SOL     OW44961   5.860   1.893   3.272
81043SOL    HW144962   5.852   1.798   3.260
81043SOL    HW244963   5.953   1.911   3.258
81044SOL     OW44964  13.843   6.442  11.789
81044SOL    HW144965  13.881   6.461  11.704
81044SOL    HW244966  13.914   6.403  11.840
81045SOL     OW44967   6.525  10.834  11.337
81045SOL    HW144968   6.516  10.751  11.383
81045SOL    HW244969   6.448  10.839  11.280
81046SOL     OW44970   1.893   4.635  11.744
81046SOL    HW144971   1.988   4.641  11.734
81046SOL    HW244972   1.858   4.656  11.658
81047SOL     OW44973   6.412   6.705   6.664
81047SOL    HW144974   6.329   6.750   6.675
81047SOL    HW244975   6.477   6.766   6.698
81048SOL     OW44976  11.260   7.171  13.646
81048SOL    HW144977  11.218   7.184  13.561
81048SOL    HW244978  11.353   7.185  13.629
81049SOL     OW44979  12.312   3.992  10.688
81049SOL    HW144980  12.225   4.023  10.713
81049SOL    HW244981  12.324   4.023  10.598
81050SOL     OW44982  12.319   6.303   7.801
81050SOL    HW144983  12.337   6.297   7.895
81050SOL    HW244984  12.404   6.288   7.760
81051SOL     OW44985   0.431   7.613  13.812
81051SOL    HW144986   0.370   7.667  13.861
81051SOL    HW244987   0.380   7.579  13.739
81052SOL     OW44988  12.523   8.714  13.044
81052SOL    HW144989  12.510   8.702  13.138
81052SOL    HW244990  12.570   8.798  13.037
81053SOL     OW44991  14.423   0.189   3.814
81053SOL    HW144992  14.448   0.097   3.802
81053SOL    HW244993  14.505   0.238   3.801
81054SOL     OW44994   2.408   1.487   5.031
81054SOL    HW144995   2.433   1.566   4.984
81054SOL    HW244996   2.327   1.458   4.987
81055SOL     OW44997   9.706  11.532   9.525
81055SOL    HW144998   9.766  11.490   9.586
81055SOL    HW244999   9.625  11.543   9.575
81056SOL     OW45000   2.786  13.793  10.742
81056SOL    HW145001   2.751  13.796  10.831
81056SOL    HW245002   2.736  13.859  10.694
81057SOL     OW45003   4.054  10.015   8.990
81057SOL    HW145004   4.011   9.996   9.073
81057SOL    HW245005   4.041   9.937   8.936
81058SOL     OW45006   7.871   9.232  11.045
81058SOL    HW145007   7.807   9.290  11.086
81058SOL    HW245008   7.849   9.235  10.952
81059SOL     OW45009  13.793   3.332   8.307
81059SOL    HW145010  13.739   3.292   8.376
81059SOL    HW245011  13.850   3.393   8.354
81060SOL     OW45012  10.259   2.205   1.394
81060SOL    HW145013  10.174   2.182   1.356
81060SOL    HW245014  10.265   2.300   1.384
81061SOL     OW45015   9.212   7.742   4.915
81061SOL    HW145016   9.256   7.667   4.955
81061SOL    HW245017   9.135   7.757   4.970
81062SOL     OW45018  14.760   3.872   3.222
81062SOL    HW145019  14.730   3.923   3.146
81062SOL    HW245020  14.718   3.915   3.297
81063SOL     OW45021  11.825   7.913   5.415
81063SOL    HW145022  11.904   7.965   5.398
81063SOL    HW245023  11.816   7.856   5.339
81064SOL     OW45024   3.146  12.510   7.572
81064SOL    HW145025   3.132  12.457   7.493
81064SOL    HW245026   3.058  12.534   7.601
81065SOL     OW45027   8.327   5.933   9.751
81065SOL    HW145028   8.412   5.960   9.717
81065SOL    HW245029   8.266   6.000   9.719
81066SOL     OW45030  14.556  10.081  13.854
81066SOL    HW145031  14.569  10.162  13.806
81066SOL    HW245032  14.530  10.017  13.787
81067SOL     OW45033   1.639  11.229   6.267
81067SOL    HW145034   1.590  11.157   6.229
81067SOL    HW245035   1.578  11.302   6.270
81068SOL     OW45036   1.135  12.505   9.803
81068SOL    HW145037   1.083  12.454   9.865
81068SOL    HW245038   1.116  12.465   9.718
81069SOL     OW45039  10.984   8.719   8.810
81069SOL    HW145040  11.065   8.724   8.759
81069SOL    HW245041  10.919   8.766   8.758
81070SOL     OW45042   9.302   8.486   3.563
81070SOL    HW145043   9.244   8.447   3.498
81070SOL    HW245044   9.246   8.544   3.615
81071SOL     OW45045   0.245   0.152   2.268
81071SOL    HW145046   0.335   0.182   2.262
81071SOL    HW245047   0.241   0.106   2.352
81072SOL     OW45048  13.929   3.766   6.443
81072SOL    HW145049  14.024   3.767   6.458
81072SOL    HW245050  13.895   3.833   6.502
81073SOL     OW45051  10.779  10.250   6.965
81073SOL    HW145052  10.823  10.232   6.882
81073SOL    HW245053  10.799  10.174   7.020
81074SOL     OW45054  11.999   9.852   9.650
81074SOL    HW145055  11.961   9.937   9.674
81074SOL    HW245056  12.001   9.852   9.555
81075SOL     OW45057  13.966   1.659  12.341
81075SOL    HW145058  13.986   1.584  12.397
81075SOL    HW245059  13.986   1.630  12.252
81076SOL     OW45060   6.436   3.035   9.206
81076SOL    HW145061   6.519   3.046   9.251
81076SOL    HW245062   6.405   2.949   9.234
81077SOL     OW45063   3.817   0.117   0.710
81077SOL    HW145064   3.753   0.051   0.735
81077SOL    HW245065   3.768   0.198   0.703
81078SOL     OW45066  12.991   6.039   6.180
81078SOL    HW145067  12.924   6.022   6.114
81078SOL    HW245068  12.942   6.054   6.260
81079SOL     OW45069   7.894   5.021   5.547
81079SOL    HW145070   7.820   4.983   5.500
81079SOL    HW245071   7.864   5.108   5.574
81080SOL     OW45072  13.765   4.591   7.061
81080SOL    HW145073  13.797   4.624   6.977
81080SOL    HW245074  13.747   4.498   7.045
81081SOL     OW45075   1.239   2.644   6.997
81081SOL    HW145076   1.292   2.710   7.042
81081SOL    HW245077   1.168   2.694   6.958
81082SOL     OW45078   9.470  12.596   8.569
81082SOL    HW145079   9.377  12.617   8.576
81082SOL    HW245080   9.505  12.614   8.656
81083SOL     OW45081   1.661   2.254  12.682
81083SOL    HW145082   1.652   2.173  12.631
81083SOL    HW245083   1.656   2.324  12.616
81084SOL     OW45084   0.906  10.215   9.342
81084SOL    HW145085   0.946  10.195   9.258
81084SOL    HW245086   0.978  10.251   9.395
81085SOL     OW45087  13.873   3.248  13.436
81085SOL    HW145088  13.932   3.172  13.433
81085SOL    HW245089  13.794   3.215  13.480
81086SOL     OW45090   8.233   8.284   9.210
81086SOL    HW145091   8.181   8.364   9.201
81086SOL    HW245092   8.275   8.273   9.125
81087SOL     OW45093   4.030  14.158   9.539
81087SOL    HW145094   4.074  14.113   9.611
81087SOL    HW245095   3.943  14.118   9.534
81088SOL     OW45096   3.767   6.392   3.046
81088SOL    HW145097   3.734   6.314   3.002
81088SOL    HW245098   3.841   6.420   2.993
81089SOL     OW45099   9.260   8.670  12.927
81089SOL    HW145100   9.265   8.717  12.843
81089SOL    HW245101   9.330   8.708  12.980
81090SOL     OW45102   8.486  10.491   8.644
81090SOL    HW145103   8.538  10.526   8.572
81090SOL    HW245104   8.549  10.473   8.714
81091SOL     OW45105  14.336   8.476  12.477
81091SOL    HW145106  14.256   8.472  12.426
81091SOL    HW245107  14.371   8.564  12.461
81092SOL     OW45108  12.951   9.526   1.394
81092SOL    HW145109  12.879   9.589   1.393
81092SOL    HW245110  12.926   9.463   1.462
81093SOL     OW45111   9.167   1.945   9.438
81093SOL    HW145112   9.138   1.865   9.482
81093SOL    HW245113   9.234   1.981   9.496
81094SOL     OW45114   8.957  10.222   0.464
81094SOL    HW145115   8.923  10.140   0.429
81094SOL    HW245116   8.971  10.277   0.387
81095SOL     OW45117   9.156   2.100   5.895
81095SOL    HW145118   9.158   2.182   5.945
81095SOL    HW245119   9.236   2.101   5.844
81096SOL     OW45120   6.013  10.568   3.122
81096SOL    HW145121   5.933  10.596   3.166
81096SOL    HW245122   6.010  10.472   3.127
81097SOL     OW45123   4.556   2.717   1.655
81097SOL    HW145124   4.546   2.628   1.691
81097SOL    HW245125   4.650   2.727   1.642
81098SOL     OW45126   7.212   3.283   3.978
81098SOL    HW145127   7.121   3.267   4.004
81098SOL    HW245128   7.233   3.209   3.921
81099SOL     OW45129   1.214   8.959   3.401
81099SOL    HW145130   1.124   8.968   3.368
81099SOL    HW245131   1.261   9.033   3.362
81100SOL     OW45132   3.080  13.915  11.682
81100SOL    HW145133   3.119  13.872  11.759
81100SOL    HW245134   3.012  13.855  11.653
81101SOL     OW45135  12.022   0.687   4.214
81101SOL    HW145136  11.975   0.699   4.132
81101SOL    HW245137  11.986   0.606   4.251
81102SOL     OW45138   9.465   7.810  10.988
81102SOL    HW145139   9.470   7.753  11.065
81102SOL    HW245140   9.457   7.898  11.024
81103SOL     OW45141  11.362   1.383   1.317
81103SOL    HW145142  11.363   1.415   1.227
81103SOL    HW245143  11.399   1.455   1.369
81104SOL     OW45144  10.283   9.646   3.697
81104SOL    HW145145  10.336   9.683   3.768
81104SOL    HW245146  10.200   9.694   3.702
81105SOL     OW45147   3.892   4.288  10.545
81105SOL    HW145148   3.876   4.206  10.498
81105SOL    HW245149   3.874   4.267  10.636
81106SOL     OW45150   9.209   2.942   1.792
81106SOL    HW145151   9.299   2.969   1.809
81106SOL    HW245152   9.177   3.005   1.727
81107SOL     OW45153   1.435   5.308  10.601
81107SOL    HW145154   1.474   5.258  10.529
81107SOL    HW245155   1.498   5.301  10.672
81108SOL     OW45156   4.086  11.042   3.767
81108SOL    HW145157   4.068  10.995   3.848
81108SOL    HW245158   4.054  10.983   3.698
81109SOL     OW45159  13.310   0.110   2.079
81109SOL    HW145160  13.343   0.069   2.159
81109SOL    HW245161  13.215   0.102   2.085
81110SOL     OW45162   6.848   7.191   9.478
81110SOL    HW145163   6.789   7.254   9.436
81110SOL    HW245164   6.832   7.109   9.431
81111SOL     OW45165  12.035   4.025   7.412
81111SOL    HW145166  11.960   4.084   7.417
81111SOL    HW245167  12.094   4.067   7.350
81112SOL     OW45168   4.818   5.366  12.240
81112SOL    HW145169   4.757   5.294  12.254
81112SOL    HW245170   4.874   5.365  12.319
81113SOL     OW45171   6.785  13.756  11.342
81113SOL    HW145172   6.854  13.745  11.407
81113SOL    HW245173   6.754  13.667  11.324
81114SOL     OW45174   3.766  11.006   8.267
81114SOL    HW145175   3.769  11.031   8.359
81114SOL    HW245176   3.684  10.957   8.258
81115SOL     OW45177   9.613  10.224  14.111
81115SOL    HW145178   9.582  10.150  14.163
81115SOL    HW245179   9.707  10.208  14.102
81116SOL     OW45180  11.910   6.055   9.628
81116SOL    HW145181  11.888   6.054   9.535
81116SOL    HW245182  11.976   6.123   9.637
81117SOL     OW45183   8.816  11.831  10.524
81117SOL    HW145184   8.838  11.776  10.448
81117SOL    HW245185   8.726  11.858  10.508
81118SOL     OW45186  11.249   2.222   3.932
81118SOL    HW145187  11.185   2.154   3.952
81118SOL    HW245188  11.202   2.283   3.875
81119SOL     OW45189  10.089   1.780   4.876
81119SOL    HW145190  10.127   1.826   4.801
81119SOL    HW245191  10.139   1.699   4.882
81120SOL     OW45192   9.123  10.087   6.041
81120SOL    HW145193   9.099  10.174   6.072
81120SOL    HW245194   9.193  10.103   5.978
81121SOL     OW45195   2.574   5.880   2.194
81121SOL    HW145196   2.486   5.919   2.191
81121SOL    HW245197   2.617   5.912   2.115
81122SOL     OW45198  11.909  11.300  12.781
81122SOL    HW145199  11.945  11.329  12.865
81122SOL    HW245200  11.972  11.331  12.716
81123SOL     OW45201  13.254   4.831   1.060
81123SOL    HW145202  13.172   4.783   1.070
81123SOL    HW245203  13.227   4.922   1.047
81124SOL     OW45204  11.775   3.579  11.413
81124SOL    HW145205  11.719   3.504  11.433
81124SOL    HW245206  11.714   3.650  11.395
81125SOL     OW45207   2.851   2.958  10.640
81125SOL    HW145208   2.770   3.006  10.627
81125SOL    HW245209   2.828   2.866  10.626
81126SOL     OW45210   5.778   5.565   4.828
81126SOL    HW145211   5.776   5.640   4.888
81126SOL    HW245212   5.816   5.494   4.881
81127SOL     OW45213  14.415  12.820  13.955
81127SOL    HW145214  14.332  12.851  13.990
81127SOL    HW245215  14.413  12.725  13.969
81128SOL     OW45216  11.494   0.642  11.725
81128SOL    HW145217  11.449   0.684  11.799
81128SOL    HW245218  11.579   0.617  11.760
81129SOL     OW45219   9.257  12.347   2.268
81129SOL    HW145220   9.343  12.307   2.284
81129SOL    HW245221   9.209  12.333   2.350
81130SOL     OW45222   5.897   6.733   1.270
81130SOL    HW145223   5.827   6.791   1.240
81130SOL    HW245224   5.977   6.769   1.232
81131SOL     OW45225  12.627  12.665   4.149
81131SOL    HW145226  12.549  12.680   4.201
81131SOL    HW245227  12.608  12.585   4.100
81132SOL     OW45228   7.291  10.428  11.153
81132SOL    HW145229   7.203  10.457  11.130
81132SOL    HW245230   7.345  10.507  11.150
81133SOL     OW45231  13.449   1.040   2.616
81133SOL    HW145232  13.463   1.006   2.705
81133SOL    HW245233  13.531   1.083   2.593
81134SOL     OW45234   3.777   6.735   2.572
81134SOL    HW145235   3.858   6.733   2.623
81134SOL    HW245236   3.733   6.653   2.594
81135SOL     OW45237  14.030   9.195  14.079
81135SOL    HW145238  14.011   9.102  14.090
81135SOL    HW245239  13.992   9.217  13.994
81136SOL     OW45240   2.851   1.140   3.256
81136SOL    HW145241   2.905   1.210   3.220
81136SOL    HW245242   2.904   1.061   3.246
81137SOL     OW45243   2.935   0.166   8.927
81137SOL    HW145244   2.982   0.153   9.009
81137SOL    HW245245   2.952   0.086   8.876
81138SOL     OW45246   2.017   1.754  14.305
81138SOL    HW145247   1.926   1.782  14.298
81138SOL    HW245248   2.065   1.811  14.244
81139SOL     OW45249  10.685   0.230   0.647
81139SOL    HW145250  10.699   0.309   0.594
81139SOL    HW245251  10.740   0.243   0.724
81140SOL     OW45252   7.901   4.141   0.914
81140SOL    HW145253   7.913   4.063   0.969
81140SOL    HW245254   7.986   4.184   0.914
81141SOL     OW45255  10.925   5.619   9.623
81141SOL    HW145256  10.902   5.553   9.688
81141SOL    HW245257  11.012   5.650   9.649
81142SOL     OW45258   5.102  13.858  13.011
81142SOL    HW145259   5.049  13.803  13.068
81142SOL    HW245260   5.136  13.927  13.068
81143SOL     OW45261  10.975  14.751  10.446
81143SOL    HW145262  10.931  14.677  10.488
81143SOL    HW245263  11.032  14.787  10.514
81144SOL     OW45264   2.951   3.771  10.809
81144SOL    HW145265   2.968   3.691  10.859
81144SOL    HW245266   3.006   3.837  10.851
81145SOL     OW45267   2.122  12.558   9.597
81145SOL    HW145268   2.057  12.498   9.635
81145SOL    HW245269   2.206  12.518   9.618
81146SOL     OW45270   5.901  10.297   5.635
81146SOL    HW145271   5.949  10.276   5.556
81146SOL    HW245272   5.957  10.266   5.706
81147SOL     OW45273  13.953  10.759   8.781
81147SOL    HW145274  13.913  10.769   8.695
81147SOL    HW245275  13.889  10.710   8.832
81148SOL     OW45276   3.226   7.327   0.433
81148SOL    HW145277   3.315   7.330   0.398
81148SOL    HW245278   3.225   7.248   0.487
81149SOL     OW45279  12.363   6.468  12.468
81149SOL    HW145280  12.350   6.563  12.477
81149SOL    HW245281  12.457   6.455  12.478
81150SOL     OW45282  13.615   5.563  10.847
81150SOL    HW145283  13.618   5.656  10.822
81150SOL    HW245284  13.575   5.520  10.771
81151SOL     OW45285   5.381  14.303  14.334
81151SOL    HW145286   5.443  14.310  14.262
81151SOL    HW245287   5.322  14.231  14.309
81152SOL     OW45288   7.578   9.631   0.591
81152SOL    HW145289   7.564   9.704   0.652
81152SOL    HW245290   7.606   9.672   0.510
81153SOL     OW45291  12.389   0.369   2.034
81153SOL    HW145292  12.343   0.440   1.989
81153SOL    HW245293  12.403   0.303   1.965
81154SOL     OW45294   6.871   9.901   9.779
81154SOL    HW145295   6.802   9.946   9.731
81154SOL    HW245296   6.938   9.968   9.795
81155SOL     OW45297  12.817  13.328   1.531
81155SOL    HW145298  12.866  13.272   1.591
81155SOL    HW245299  12.801  13.273   1.454
81156SOL     OW45300  12.985   3.361  10.355
81156SOL    HW145301  13.001   3.298  10.425
81156SOL    HW245302  13.068   3.364  10.306
81157SOL     OW45303  14.867   4.398  13.608
81157SOL    HW145304   0.071   4.445  13.602
81157SOL    HW245305  14.803   4.464  13.635
81158SOL     OW45306   3.387  14.075   8.348
81158SOL    HW145307   3.430  14.120   8.421
81158SOL    HW245308   3.451  14.079   8.277
81159SOL     OW45309   2.608   3.718   6.777
81159SOL    HW145310   2.627   3.694   6.867
81159SOL    HW245311   2.556   3.799   6.784
81160SOL     OW45312  11.006   5.295  11.143
81160SOL    HW145313  11.070   5.357  11.108
81160SOL    HW245314  11.027   5.288  11.236
81161SOL     OW45315   1.301   0.139  10.717
81161SOL    HW145316   1.319   0.197  10.643
81161SOL    HW245317   1.320   0.193  10.794
81162SOL     OW45318   2.278  13.723  12.847
81162SOL    HW145319   2.284  13.767  12.931
81162SOL    HW245320   2.366  13.729  12.810
81163SOL     OW45321   5.270   7.714   1.305
81163SOL    HW145322   5.254   7.660   1.227
81163SOL    HW245323   5.184   7.750   1.327
81164SOL     OW45324   7.107   4.986  12.566
81164SOL    HW145325   7.028   5.028  12.602
81164SOL    HW245326   7.172   4.995  12.635
81165SOL     OW45327  12.039   3.951   3.660
81165SOL    HW145328  12.081   3.866   3.646
81165SOL    HW245329  12.093   3.994   3.726
81166SOL     OW45330  12.998  14.028  14.798
81166SOL    HW145331  13.019  14.120  14.780
81166SOL    HW245332  13.028  13.981  14.720
81167SOL     OW45333   5.826   8.773  14.071
81167SOL    HW145334   5.778   8.841  14.025
81167SOL    HW245335   5.760   8.727  14.123
81168SOL     OW45336  12.170   9.014   3.062
81168SOL    HW145337  12.126   9.013   3.147
81168SOL    HW245338  12.256   8.974   3.079
81169SOL     OW45339  10.358   7.167  11.764
81169SOL    HW145340  10.387   7.102  11.701
81169SOL    HW245341  10.438   7.215  11.789
81170SOL     OW45342  11.935   8.900   0.035
81170SOL    HW145343  11.886   8.831   0.079
81170SOL    HW245344  11.912   8.891  14.821
81171SOL     OW45345  10.595   7.938   2.162
81171SOL    HW145346  10.560   7.863   2.114
81171SOL    HW245347  10.594   8.010   2.098
81172SOL     OW45348   2.056  12.933   3.689
81172SOL    HW145349   1.968  12.899   3.674
81172SOL    HW245350   2.043  13.009   3.746
81173SOL     OW45351   0.305   8.040  12.222
81173SOL    HW145352   0.273   7.966  12.272
81173SOL    HW245353   0.279   8.021  12.132
81174SOL     OW45354   0.027   7.548   4.479
81174SOL    HW145355   0.098   7.486   4.462
81174SOL    HW245356   0.025   7.557   4.574
81175SOL     OW45357   6.150   6.755   5.027
81175SOL    HW145358   6.064   6.785   5.057
81175SOL    HW245359   6.211   6.818   5.063
81176SOL     OW45360   6.521   7.372  10.685
81176SOL    HW145361   6.489   7.402  10.770
81176SOL    HW245362   6.509   7.277  10.688
81177SOL     OW45363   5.318   9.688  13.187
81177SOL    HW145364   5.359   9.617  13.139
81177SOL    HW245365   5.251   9.645  13.241
81178SOL     OW45366   3.549   0.211   0.968
81178SOL    HW145367   3.488   0.284   0.964
81178SOL    HW245368   3.631   0.246   0.934
81179SOL     OW45369  13.314  10.213   1.576
81179SOL    HW145370  13.335  10.122   1.552
81179SOL    HW245371  13.234  10.206   1.627
81180SOL     OW45372   9.407   2.502  12.632
81180SOL    HW145373   9.342   2.568  12.608
81180SOL    HW245374   9.487   2.529  12.586
81181SOL     OW45375   5.433   9.215   9.214
81181SOL    HW145376   5.441   9.119   9.211
81181SOL    HW245377   5.409   9.234   9.305
81182SOL     OW45378   1.116   4.600   7.572
81182SOL    HW145379   1.099   4.568   7.660
81182SOL    HW245380   1.063   4.543   7.516
81183SOL     OW45381   0.626   6.982   6.543
81183SOL    HW145382   0.617   7.017   6.632
81183SOL    HW245383   0.613   6.887   6.553
81184SOL     OW45384   4.904   9.961   1.792
81184SOL    HW145385   4.975   9.897   1.799
81184SOL    HW245386   4.848   9.927   1.722
81185SOL     OW45387  11.416   9.100  14.371
81185SOL    HW145388  11.397   9.094  14.465
81185SOL    HW245389  11.337   9.067  14.329
81186SOL     OW45390  11.101  13.809  12.376
81186SOL    HW145391  11.031  13.781  12.435
81186SOL    HW245392  11.181  13.774  12.415
81187SOL     OW45393   1.322   6.863   8.744
81187SOL    HW145394   1.388   6.824   8.687
81187SOL    HW245395   1.238   6.833   8.708
81188SOL     OW45396   0.660   2.853   5.378
81188SOL    HW145397   0.685   2.914   5.448
81188SOL    HW245398   0.598   2.793   5.420
81189SOL     OW45399  12.994  12.605   1.941
81189SOL    HW145400  12.925  12.597   1.875
81189SOL    HW245401  13.075  12.601   1.891
81190SOL     OW45402   2.593   8.453  13.669
81190SOL    HW145403   2.611   8.359  13.674
81190SOL    HW245404   2.556   8.466  13.582
81191SOL     OW45405   0.745   5.117   5.600
81191SOL    HW145406   0.720   5.192   5.655
81191SOL    HW245407   0.779   5.157   5.520
81192SOL     OW45408  14.262  12.519   4.731
81192SOL    HW145409  14.204  12.465   4.785
81192SOL    HW245410  14.282  12.464   4.656
81193SOL     OW45411   0.844  10.558   0.702
81193SOL    HW145412   0.930  10.520   0.717
81193SOL    HW245413   0.794  10.488   0.660
81194SOL     OW45414  12.110   5.265  14.333
81194SOL    HW145415  12.196   5.238  14.301
81194SOL    HW245416  12.086   5.199  14.398
81195SOL     OW45417   4.166   1.468   1.869
81195SOL    HW145418   4.228   1.500   1.804
81195SOL    HW245419   4.091   1.528   1.864
81196SOL     OW45420   4.821   1.004   3.901
81196SOL    HW145421   4.814   1.018   3.996
81196SOL    HW245422   4.761   0.932   3.883
81197SOL     OW45423   2.381   5.410   4.315
81197SOL    HW145424   2.372   5.317   4.336
81197SOL    HW245425   2.374   5.454   4.400
81198SOL     OW45426  10.768   6.555   4.119
81198SOL    HW145427  10.838   6.600   4.167
81198SOL    HW245428  10.750   6.477   4.171
81199SOL     OW45429  12.454   8.742  12.712
81199SOL    HW145430  12.490   8.662  12.674
81199SOL    HW245431  12.527   8.779  12.763
81200SOL     OW45432  12.249   8.302  12.984
81200SOL    HW145433  12.216   8.214  13.004
81200SOL    HW245434  12.179   8.361  13.011
81201SOL     OW45435   0.187   9.876   5.119
81201SOL    HW145436   0.213   9.950   5.173
81201SOL    HW245437   0.105   9.844   5.159
81202SOL     OW45438  11.946   9.439   9.775
81202SOL    HW145439  12.032   9.399   9.787
81202SOL    HW245440  11.885   9.365   9.772
81203SOL     OW45441  14.297   7.038  11.278
81203SOL    HW145442  14.319   7.131  11.275
81203SOL    HW245443  14.381   6.993  11.281
81204SOL     OW45444   7.096   6.963   7.963
81204SOL    HW145445   7.175   7.014   7.944
81204SOL    HW245446   7.126   6.873   7.970
81205SOL     OW45447   6.607   8.312  11.961
81205SOL    HW145448   6.688   8.343  12.002
81205SOL    HW245449   6.613   8.343  11.870
81206SOL     OW45450   9.094   4.181   8.801
81206SOL    HW145451   9.069   4.163   8.710
81206SOL    HW245452   9.019   4.153   8.853
81207SOL     OW45453  11.006   3.417  10.451
81207SOL    HW145454  11.088   3.443  10.494
81207SOL    HW245455  11.034   3.361  10.379
81208SOL     OW45456  10.640   4.679  10.972
81208SOL    HW145457  10.560   4.653  10.925
81208SOL    HW245458  10.613   4.755  11.023
81209SOL     OW45459   0.141   1.749   6.431
81209SOL    HW145460   0.087   1.809   6.482
81209SOL    HW245461   0.134   1.781   6.341
81210SOL     OW45462   8.333  11.519   4.227
81210SOL    HW145463   8.330  11.501   4.321
81210SOL    HW245464   8.333  11.614   4.220
81211SOL     OW45465   6.169   2.533  12.696
81211SOL    HW145466   6.185   2.508  12.605
81211SOL    HW245467   6.156   2.449  12.742
81212SOL     OW45468   6.969  12.489  12.260
81212SOL    HW145469   7.040  12.446  12.212
81212SOL    HW245470   7.012  12.527  12.337
81213SOL     OW45471   3.550   2.183  11.203
81213SOL    HW145472   3.569   2.210  11.293
81213SOL    HW245473   3.477   2.238  11.176
81214SOL     OW45474  11.577  11.506   4.755
81214SOL    HW145475  11.512  11.440   4.781
81214SOL    HW245476  11.526  11.578   4.719
81215SOL     OW45477  13.346  10.942   2.037
81215SOL    HW145478  13.356  10.965   1.944
81215SOL    HW245479  13.364  10.848   2.041
81216SOL     OW45480  10.857  11.261  14.037
81216SOL    HW145481  10.842  11.193  13.972
81216SOL    HW245482  10.951  11.258  14.054
81217SOL     OW45483  10.350   9.288   8.303
81217SOL    HW145484  10.316   9.354   8.363
81217SOL    HW245485  10.303   9.303   8.221
81218SOL     OW45486  11.357  12.019  14.810
81218SOL    HW145487  11.350  11.942  14.867
81218SOL    HW245488  11.449  12.045  14.816
81219SOL     OW45489  11.390   3.188   7.135
81219SOL    HW145490  11.310   3.239   7.146
81219SOL    HW245491  11.441   3.205   7.213
81220SOL     OW45492   0.196  10.537  10.632
81220SOL    HW145493   0.158  10.518  10.718
81220SOL    HW245494   0.238  10.455  10.606
81221SOL     OW45495   9.190   8.764   5.458
81221SOL    HW145496   9.148   8.748   5.543
81221SOL    HW245497   9.122   8.804   5.405
81222SOL     OW45498  13.493   2.815   7.835
81222SOL    HW145499  13.536   2.874   7.773
81222SOL    HW245500  13.550   2.738   7.838
81223SOL     OW45501  13.993   1.858  10.372
81223SOL    HW145502  14.028   1.925  10.431
81223SOL    HW245503  13.983   1.903  10.288
81224SOL     OW45504   1.443   3.718   4.666
81224SOL    HW145505   1.491   3.800   4.678
81224SOL    HW245506   1.470   3.687   4.579
81225SOL     OW45507  10.873   6.134   4.177
81225SOL    HW145508  10.963   6.165   4.170
81225SOL    HW245509  10.823   6.210   4.208
81226SOL     OW45510   8.517   7.245   2.126
81226SOL    HW145511   8.515   7.326   2.075
81226SOL    HW245512   8.467   7.265   2.205
81227SOL     OW45513   0.574  11.632   0.915
81227SOL    HW145514   0.667  11.641   0.894
81227SOL    HW245515   0.544  11.723   0.926
81228SOL     OW45516   5.036   5.921  14.354
81228SOL    HW145517   5.000   6.006  14.380
81228SOL    HW245518   4.960   5.873  14.319
81229SOL     OW45519  10.141   6.704  13.264
81229SOL    HW145520  10.080   6.737  13.330
81229SOL    HW245521  10.171   6.620  13.300
81230SOL     OW45522  12.892   8.528   0.624
81230SOL    HW145523  12.923   8.438   0.615
81230SOL    HW245524  12.814   8.532   0.569
81231SOL     OW45525   7.200   3.581   6.459
81231SOL    HW145526   7.146   3.502   6.462
81231SOL    HW245527   7.157   3.636   6.393
81232SOL     OW45528   8.389  13.488   8.928
81232SOL    HW145529   8.315  13.429   8.913
81232SOL    HW245530   8.388  13.505   9.022
81233SOL     OW45531   6.659  14.776   6.049
81233SOL    HW145532   6.665  14.743   5.959
81233SOL    HW245533   6.588  14.725   6.089
81234SOL     OW45534   2.538  14.729   5.782
81234SOL    HW145535   2.520  14.817   5.751
81234SOL    HW245536   2.480  14.717   5.857
81235SOL     OW45537   9.674   1.524   5.788
81235SOL    HW145538   9.698   1.568   5.870
81235SOL    HW245539   9.579   1.535   5.782
81236SOL     OW45540   9.592   5.216  11.005
81236SOL    HW145541   9.670   5.184  11.050
81236SOL    HW245542   9.536   5.251  11.074
81237SOL     OW45543   0.220   6.979  12.745
81237SOL    HW145544   0.308   7.015  12.733
81237SOL    HW245545   0.235   6.886  12.763
81238SOL     OW45546   9.006   7.503   8.986
81238SOL    HW145547   8.920   7.527   8.953
81238SOL    HW245548   9.020   7.562   9.061
81239SOL     OW45549   9.681   7.150  13.697
81239SOL    HW145550   9.769   7.115  13.678
81239SOL    HW245551   9.694   7.204  13.775
81240SOL     OW45552   5.496  14.351   7.793
81240SOL    HW145553   5.580  14.366   7.835
81240SOL    HW245554   5.436  14.412   7.836
81241SOL     OW45555   1.950   0.419   7.329
81241SOL    HW145556   1.941   0.463   7.413
81241SOL    HW245557   1.957   0.326   7.352
81242SOL     OW45558   8.619   5.794   8.985
81242SOL    HW145559   8.561   5.796   9.061
81242SOL    HW245560   8.560   5.800   8.910
81243SOL     OW45561   2.600   6.597   0.479
81243SOL    HW145562   2.679   6.651   0.488
81243SOL    HW245563   2.632   6.507   0.476
81244SOL     OW45564   4.044  11.421  13.147
81244SOL    HW145565   3.975  11.443  13.209
81244SOL    HW245566   4.081  11.505  13.122
81245SOL     OW45567   7.922   8.692  12.354
81245SOL    HW145568   7.974   8.686  12.434
81245SOL    HW245569   7.987   8.691  12.283
81246SOL     OW45570   7.469   2.237  11.434
81246SOL    HW145571   7.444   2.146  11.417
81246SOL    HW245572   7.416   2.262  11.510
81247SOL     OW45573   6.356   5.233  10.294
81247SOL    HW145574   6.448   5.223  10.316
81247SOL    HW245575   6.356   5.264  10.204
81248SOL     OW45576  13.687  12.543   2.344
81248SOL    HW145577  13.769  12.509   2.308
81248SOL    HW245578  13.706  12.557   2.437
81249SOL     OW45579  12.762   1.579  11.487
81249SOL    HW145580  12.715   1.626  11.418
81249SOL    HW245581  12.852   1.574  11.455
81250SOL     OW45582   3.603   1.353   3.207
81250SOL    HW145583   3.604   1.291   3.134
81250SOL    HW245584   3.536   1.417   3.184
81251SOL     OW45585   7.455   6.500   1.824
81251SOL    HW145586   7.399   6.495   1.747
81251SOL    HW245587   7.480   6.409   1.841
81252SOL     OW45588  11.683   1.523   5.004
81252SOL    HW145589  11.727   1.447   4.964
81252SOL    HW245590  11.590   1.501   4.999
81253SOL     OW45591   6.649   4.459   2.432
81253SOL    HW145592   6.617   4.455   2.523
81253SOL    HW245593   6.696   4.376   2.420
81254SOL     OW45594   3.009   3.324  10.780
81254SOL    HW145595   3.049   3.410  10.795
81254SOL    HW245596   2.965   3.332  10.696
81255SOL     OW45597   9.083   9.245   6.006
81255SOL    HW145598   9.013   9.184   5.982
81255SOL    HW245599   9.083   9.310   5.935
81256SOL     OW45600   9.359   4.672   5.653
81256SOL    HW145601   9.283   4.675   5.711
81256SOL    HW245602   9.321   4.669   5.565
81257SOL     OW45603  12.324  13.943  11.706
81257SOL    HW145604  12.419  13.949  11.699
81257SOL    HW245605  12.293  14.032  11.686
81258SOL     OW45606  14.552   2.584   5.585
81258SOL    HW145607  14.582   2.674   5.596
81258SOL    HW245608  14.474   2.591   5.530
81259SOL     OW45609   1.456   2.252  14.717
81259SOL    HW145610   1.550   2.270  14.717
81259SOL    HW245611   1.420   2.312  14.652
81260SOL     OW45612  10.534   1.416   8.718
81260SOL    HW145613  10.532   1.417   8.814
81260SOL    HW245614  10.533   1.509   8.694
81261SOL     OW45615  12.984  11.266   8.794
81261SOL    HW145616  13.006  11.204   8.724
81261SOL    HW245617  12.981  11.351   8.751
81262SOL     OW45618   5.594   0.115  11.032
81262SOL    HW145619   5.570   0.147  11.119
81262SOL    HW245620   5.656   0.179  10.999
81263SOL     OW45621   0.608  13.089   0.884
81263SOL    HW145622   0.547  13.017   0.870
81263SOL    HW245623   0.633  13.118   0.796
81264SOL     OW45624   2.709   3.099   0.866
81264SOL    HW145625   2.789   3.117   0.916
81264SOL    HW245626   2.643   3.081   0.933
81265SOL     OW45627  11.522   3.453  12.121
81265SOL    HW145628  11.554   3.518  12.058
81265SOL    HW245629  11.561   3.480  12.204
81266SOL     OW45630   4.889   7.837  12.086
81266SOL    HW145631   4.830   7.799  12.151
81266SOL    HW245632   4.936   7.762  12.049
81267SOL     OW45633   9.227  12.757   2.618
81267SOL    HW145634   9.261  12.841   2.585
81267SOL    HW245635   9.172  12.781   2.692
81268SOL     OW45636   0.802   7.302  11.376
81268SOL    HW145637   0.815   7.353  11.456
81268SOL    HW245638   0.888   7.300  11.335
81269SOL     OW45639   0.887   8.834   9.272
81269SOL    HW145640   0.903   8.742   9.291
81269SOL    HW245641   0.839   8.834   9.189
81270SOL     OW45642   0.338   8.911  14.781
81270SOL    HW145643   0.331   8.976  14.712
81270SOL    HW245644   0.408   8.943  14.838
81271SOL     OW45645   2.729   7.758   3.223
81271SOL    HW145646   2.702   7.827   3.162
81271SOL    HW245647   2.789   7.704   3.172
81272SOL     OW45648   7.573  10.543  13.938
81272SOL    HW145649   7.632  10.483  13.985
81272SOL    HW245650   7.569  10.508  13.849
81273SOL     OW45651  10.840  12.549  11.013
81273SOL    HW145652  10.830  12.620  10.950
81273SOL    HW245653  10.837  12.593  11.098
81274SOL     OW45654   4.945  12.055  12.250
81274SOL    HW145655   4.877  12.035  12.186
81274SOL    HW245656   4.990  12.132  12.215
81275SOL     OW45657   7.915   9.303  12.516
81275SOL    HW145658   7.989   9.356  12.546
81275SOL    HW245659   7.838   9.356  12.537
81276SOL     OW45660   1.566   4.795   0.062
81276SOL    HW145661   1.525   4.805   0.147
81276SOL    HW245662   1.613   4.712   0.066
81277SOL     OW45663   0.092  14.058  10.935
81277SOL    HW145664   0.150  14.133  10.935
81277SOL    HW245665   0.080  14.036  10.843
81278SOL     OW45666  14.461   3.529   3.027
81278SOL    HW145667  14.550   3.546   3.057
81278SOL    HW245668  14.406   3.568   3.095
81279SOL     OW45669   0.275  14.238   9.109
81279SOL    HW145670   0.296  14.145   9.120
81279SOL    HW245671   0.358  14.284   9.125
81280SOL     OW45672  14.134  14.602   8.422
81280SOL    HW145673  14.124  14.662   8.496
81280SOL    HW245674  14.200  14.642   8.367
81281SOL     OW45675  12.927  14.383  12.897
81281SOL    HW145676  12.892  14.312  12.844
81281SOL    HW245677  12.875  14.460  12.872
81282SOL     OW45678   7.410  11.035  11.725
81282SOL    HW145679   7.333  11.044  11.781
81282SOL    HW245680   7.388  10.965  11.664
81283SOL     OW45681   1.447   9.596   9.525
81283SOL    HW145682   1.387   9.532   9.564
81283SOL    HW245683   1.445   9.670   9.586
81284SOL     OW45684   8.458  10.833   9.868
81284SOL    HW145685   8.485  10.883   9.791
81284SOL    HW245686   8.529  10.844   9.931
81285SOL     OW45687   9.636   8.314   5.204
81285SOL    HW145688   9.662   8.386   5.261
81285SOL    HW245689   9.632   8.353   5.116
81286SOL     OW45690   1.790   8.456   3.611
81286SOL    HW145691   1.832   8.371   3.596
81286SOL    HW245692   1.751   8.478   3.527
81287SOL     OW45693  11.151  11.231   5.720
81287SOL    HW145694  11.181  11.232   5.629
81287SOL    HW245695  11.198  11.303   5.762
81288SOL     OW45696  12.563   7.766   5.188
81288SOL    HW145697  12.655   7.763   5.216
81288SOL    HW245698  12.513   7.758   5.270
81289SOL     OW45699   4.284   0.341   2.831
81289SOL    HW145700   4.353   0.278   2.852
81289SOL    HW245701   4.210   0.314   2.885
81290SOL     OW45702   0.122  14.309  13.196
81290SOL    HW145703   0.050  14.296  13.257
81290SOL    HW245704   0.185  14.363  13.244
81291SOL     OW45705   8.091   6.081   0.349
81291SOL    HW145706   8.105   6.096   0.442
81291SOL    HW245707   8.042   5.998   0.345
81292SOL     OW45708   7.975   5.629  13.567
81292SOL    HW145709   8.053   5.581  13.540
81292SOL    HW245710   7.974   5.622  13.662
81293SOL     OW45711  10.152   3.848  10.203
81293SOL    HW145712  10.102   3.783  10.252
81293SOL    HW245713  10.237   3.805  10.186
81294SOL     OW45714   7.700  13.151   4.987
81294SOL    HW145715   7.666  13.077   5.038
81294SOL    HW245716   7.730  13.111   4.905
81295SOL     OW45717  14.335   2.787  13.365
81295SOL    HW145718  14.308   2.851  13.299
81295SOL    HW245719  14.386   2.837  13.428
81296SOL     OW45720   6.990  12.918   9.728
81296SOL    HW145721   7.069  12.873   9.758
81296SOL    HW245722   6.925  12.848   9.717
81297SOL     OW45723   0.178   6.752   3.519
81297SOL    HW145724   0.155   6.766   3.427
81297SOL    HW245725   0.095   6.737   3.563
81298SOL     OW45726   4.669   7.280  14.651
81298SOL    HW145727   4.650   7.344  14.583
81298SOL    HW245728   4.630   7.198  14.620
81299SOL     OW45729   2.463   1.710   4.884
81299SOL    HW145730   2.544   1.754   4.861
81299SOL    HW245731   2.432   1.671   4.802
81300SOL     OW45732   4.395   5.581  11.683
81300SOL    HW145733   4.464   5.569  11.748
81300SOL    HW245734   4.315   5.549  11.726
81301SOL     OW45735   5.245   0.012   1.429
81301SOL    HW145736   5.242  14.828   1.501
81301SOL    HW245737   5.165   0.062   1.438
81302SOL     OW45738   6.805  12.339   0.119
81302SOL    HW145739   6.846  12.409   0.170
81302SOL    HW245740   6.717  12.332   0.154
81303SOL     OW45741   5.994  10.233   7.432
81303SOL    HW145742   6.054  10.243   7.359
81303SOL    HW245743   5.979  10.138   7.439
81304SOL     OW45744   3.980  11.699  13.214
81304SOL    HW145745   3.945  11.787  13.205
81304SOL    HW245746   4.040  11.688  13.140
81305SOL     OW45747   4.766  13.553   7.729
81305SOL    HW145748   4.854  13.543   7.766
81305SOL    HW245749   4.725  13.621   7.782
81306SOL     OW45750   1.777  12.094   1.300
81306SOL    HW145751   1.695  12.053   1.270
81306SOL    HW245752   1.827  12.022   1.338
81307SOL     OW45753   2.942  12.059  12.582
81307SOL    HW145754   3.002  12.134  12.584
81307SOL    HW245755   2.995  11.987  12.549
81308SOL     OW45756  10.054   7.725  13.140
81308SOL    HW145757  10.059   7.724  13.236
81308SOL    HW245758  10.139   7.692  13.111
81309SOL     OW45759   6.342  12.109   7.062
81309SOL    HW145760   6.399  12.154   7.124
81309SOL    HW245761   6.264  12.088   7.112
81310SOL     OW45762  14.244   2.646  10.704
81310SOL    HW145763  14.210   2.591  10.634
81310SOL    HW245764  14.335   2.662  10.681
81311SOL     OW45765   7.978   0.982  14.473
81311SOL    HW145766   8.013   1.070  14.457
81311SOL    HW245767   7.884   0.990  14.454
81312SOL     OW45768   1.397  13.272   9.613
81312SOL    HW145769   1.400  13.324   9.693
81312SOL    HW245770   1.423  13.333   9.544
81313SOL     OW45771   0.035  13.217   9.140
81313SOL    HW145772   0.105  13.256   9.193
81313SOL    HW245773   0.071  13.133   9.112
81314SOL     OW45774   2.980   1.602   4.270
81314SOL    HW145775   3.001   1.659   4.344
81314SOL    HW245776   3.006   1.515   4.299
81315SOL     OW45777  11.606  11.054   0.649
81315SOL    HW145778  11.591  11.089   0.737
81315SOL    HW245779  11.522  11.015   0.624
81316SOL     OW45780   0.812   6.148   8.732
81316SOL    HW145781   0.774   6.199   8.660
81316SOL    HW245782   0.900   6.184   8.742
81317SOL     OW45783   1.765   8.537   5.507
81317SOL    HW145784   1.798   8.471   5.445
81317SOL    HW245785   1.834   8.545   5.573
81318SOL     OW45786  11.419   7.957   9.521
81318SOL    HW145787  11.375   7.872   9.531
81318SOL    HW245788  11.504   7.936   9.483
81319SOL     OW45789   7.375  10.000  12.581
81319SOL    HW145790   7.325   9.942  12.639
81319SOL    HW245791   7.387  10.080  12.631
81320SOL     OW45792  13.370   9.126   2.342
81320SOL    HW145793  13.411   9.051   2.298
81320SOL    HW245794  13.279   9.123   2.315
81321SOL     OW45795   4.301   2.848  13.938
81321SOL    HW145796   4.279   2.863  14.030
81321SOL    HW245797   4.337   2.760  13.935
81322SOL     OW45798   5.000   1.144  14.628
81322SOL    HW145799   4.967   1.164  14.716
81322SOL    HW245800   5.078   1.090  14.643
81323SOL     OW45801  11.129   9.860   5.503
81323SOL    HW145802  11.103   9.787   5.559
81323SOL    HW245803  11.058   9.868   5.439
81324SOL     OW45804   1.879   6.924   2.185
81324SOL    HW145805   1.861   6.880   2.102
81324SOL    HW245806   1.956   6.979   2.168
81325SOL     OW45807   1.221   5.984   0.668
81325SOL    HW145808   1.186   5.902   0.633
81325SOL    HW245809   1.270   5.958   0.746
81326SOL     OW45810   5.788   1.754   9.137
81326SOL    HW145811   5.853   1.692   9.170
81326SOL    HW245812   5.812   1.838   9.177
81327SOL     OW45813  14.734  11.091  12.170
81327SOL    HW145814  14.670  11.158  12.195
81327SOL    HW245815  14.781  11.129  12.095
81328SOL     OW45816  12.795  14.490   0.280
81328SOL    HW145817  12.857  14.417   0.282
81328SOL    HW245818  12.840  14.562   0.324
81329SOL     OW45819   0.810  14.098   4.945
81329SOL    HW145820   0.811  14.193   4.930
81329SOL    HW245821   0.728  14.082   4.992
81330SOL     OW45822   5.538   3.986  10.454
81330SOL    HW145823   5.604   3.924  10.485
81330SOL    HW245824   5.510   3.951  10.370
81331SOL     OW45825   4.932  14.716   0.632
81331SOL    HW145826   4.879  14.764   0.696
81331SOL    HW245827   4.976  14.648   0.683
81332SOL     OW45828   4.358   0.406   0.728
81332SOL    HW145829   4.308   0.487   0.731
81332SOL    HW245830   4.395   0.397   0.816
81333SOL     OW45831   5.337  10.466   1.513
81333SOL    HW145832   5.361  10.388   1.563
81333SOL    HW245833   5.284  10.518   1.572
81334SOL     OW45834  14.744  11.462   8.298
81334SOL    HW145835  14.728  11.426   8.386
81334SOL    HW245836  14.777  11.550   8.314
81335SOL     OW45837   2.495  12.267   5.257
81335SOL    HW145838   2.478  12.280   5.163
81335SOL    HW245839   2.426  12.207   5.285
81336SOL     OW45840   3.049  10.957  13.260
81336SOL    HW145841   2.974  10.912  13.221
81336SOL    HW245842   3.065  10.911  13.343
81337SOL     OW45843  13.469  10.375  10.910
81337SOL    HW145844  13.435  10.287  10.891
81337SOL    HW245845  13.553  10.378  10.864
81338SOL     OW45846  11.142  14.714   2.279
81338SOL    HW145847  11.050  14.740   2.289
81338SOL    HW245848  11.168  14.684   2.366
81339SOL     OW45849  13.147  13.641  13.420
81339SOL    HW145850  13.098  13.629  13.338
81339SOL    HW245851  13.234  13.667  13.393
81340SOL     OW45852   8.844  12.350  12.321
81340SOL    HW145853   8.818  12.279  12.262
81340SOL    HW245854   8.850  12.308  12.407
81341SOL     OW45855   2.711   3.126   3.655
81341SOL    HW145856   2.683   3.195   3.595
81341SOL    HW245857   2.644   3.058   3.647
81342SOL     OW45858   0.765  11.139   3.087
81342SOL    HW145859   0.748  11.224   3.129
81342SOL    HW245860   0.807  11.161   3.004
81343SOL     OW45861  12.205   2.363   5.512
81343SOL    HW145862  12.143   2.400   5.575
81343SOL    HW245863  12.160   2.370   5.428
81344SOL     OW45864   1.726  14.488   2.417
81344SOL    HW145865   1.737  14.577   2.448
81344SOL    HW245866   1.634  14.483   2.390
81345SOL     OW45867   0.146   5.451   7.070
81345SOL    HW145868   0.171   5.414   7.154
81345SOL    HW245869   0.204   5.407   7.006
81346SOL     OW45870  11.187   4.227   8.484
81346SOL    HW145871  11.266   4.281   8.482
81346SOL    HW245872  11.127   4.274   8.542
81347SOL     OW45873   1.375   2.565   6.082
81347SOL    HW145874   1.424   2.492   6.044
81347SOL    HW245875   1.422   2.643   6.054
81348SOL     OW45876   5.332   4.814   6.157
81348SOL    HW145877   5.270   4.883   6.134
81348SOL    HW245878   5.283   4.733   6.149
81349SOL     OW45879   1.848   0.640   5.615
81349SOL    HW145880   1.836   0.729   5.646
81349SOL    HW245881   1.933   0.640   5.572
81350SOL     OW45882   9.298   6.193   8.083
81350SOL    HW145883   9.350   6.242   8.019
81350SOL    HW245884   9.302   6.246   8.163
81351SOL     OW45885   2.858  11.372   8.706
81351SOL    HW145886   2.868  11.433   8.633
81351SOL    HW245887   2.948  11.349   8.730
81352SOL     OW45888   7.748   2.916   1.969
81352SOL    HW145889   7.655   2.899   1.983
81352SOL    HW245890   7.763   3.002   2.008
81353SOL     OW45891   1.294   8.118  12.491
81353SOL    HW145892   1.225   8.139  12.428
81353SOL    HW245893   1.273   8.170  12.568
81354SOL     OW45894  11.860   3.164   9.040
81354SOL    HW145895  11.930   3.136   9.099
81354SOL    HW245896  11.812   3.231   9.089
81355SOL     OW45897   2.256   9.046   3.330
81355SOL    HW145898   2.255   8.979   3.262
81355SOL    HW245899   2.349   9.068   3.340
81356SOL     OW45900   5.324   3.306  11.328
81356SOL    HW145901   5.405   3.318  11.377
81356SOL    HW245902   5.352   3.277  11.241
81357SOL     OW45903   4.447  10.055   5.605
81357SOL    HW145904   4.460   9.966   5.638
81357SOL    HW245905   4.367  10.049   5.552
81358SOL     OW45906   3.168  12.382   5.204
81358SOL    HW145907   3.184  12.404   5.296
81358SOL    HW245908   3.166  12.466   5.159
81359SOL     OW45909  10.604   9.052   6.271
81359SOL    HW145910  10.580   9.134   6.226
81359SOL    HW245911  10.631   9.080   6.358
81360SOL     OW45912   7.342   1.313  12.697
81360SOL    HW145913   7.353   1.392  12.644
81360SOL    HW245914   7.256   1.280  12.673
81361SOL     OW45915   6.343  11.891   5.377
81361SOL    HW145916   6.404  11.918   5.309
81361SOL    HW245917   6.365  11.947   5.452
81362SOL     OW45918   5.915   9.229  11.519
81362SOL    HW145919   5.951   9.312  11.490
81362SOL    HW245920   5.990   9.170  11.523
81363SOL     OW45921   2.007   0.647   5.364
81363SOL    HW145922   2.019   0.552   5.367
81363SOL    HW245923   2.090   0.680   5.328
81364SOL     OW45924  11.428  11.480  11.788
81364SOL    HW145925  11.378  11.450  11.864
81364SOL    HW245926  11.429  11.405  11.729
81365SOL     OW45927   6.098  10.685   6.687
81365SOL    HW145928   6.103  10.607   6.631
81365SOL    HW245929   6.124  10.757   6.630
81366SOL     OW45930   9.582  11.231   6.587
81366SOL    HW145931   9.501  11.215   6.635
81366SOL    HW245932   9.606  11.320   6.609
81367SOL     OW45933  13.282   6.929   5.520
81367SOL    HW145934  13.306   6.981   5.597
81367SOL    HW245935  13.220   6.984   5.472
81368SOL     OW45936  13.266   9.377  13.405
81368SOL    HW145937  13.351   9.365  13.362
81368SOL    HW245938  13.204   9.336  13.345
81369SOL     OW45939   1.370   0.335  14.506
81369SOL    HW145940   1.455   0.291  14.504
81369SOL    HW245941   1.331   0.315  14.421
81370SOL     OW45942   4.092   4.533   7.269
81370SOL    HW145943   4.161   4.599   7.259
81370SOL    HW245944   4.127   4.455   7.226
81371SOL     OW45945   3.904  11.029  12.007
81371SOL    HW145946   3.827  11.069  11.966
81371SOL    HW245947   3.881  11.024  12.100
81372SOL     OW45948   5.624   3.655   7.158
81372SOL    HW145949   5.536   3.691   7.146
81372SOL    HW245950   5.632   3.640   7.252
81373SOL     OW45951   9.301   9.221   9.910
81373SOL    HW145952   9.322   9.223  10.004
81373SOL    HW245953   9.370   9.272   9.869
81374SOL     OW45954  11.634   2.510   0.566
81374SOL    HW145955  11.687   2.491   0.489
81374SOL    HW245956  11.697   2.535   0.633
81375SOL     OW45957   9.908  11.914   0.270
81375SOL    HW145958   9.942  11.836   0.314
81375SOL    HW245959   9.848  11.880   0.203
81376SOL     OW45960   1.760  10.443   4.110
81376SOL    HW145961   1.681  10.412   4.066
81376SOL    HW245962   1.787  10.369   4.165
81377SOL     OW45963   6.037  14.165   1.267
81377SOL    HW145964   6.122  14.125   1.248
81377SOL    HW245965   5.980  14.092   1.286
81378SOL     OW45966  12.773   2.937  10.931
81378SOL    HW145967  12.792   2.924  10.838
81378SOL    HW245968  12.709   2.869  10.952
81379SOL     OW45969  11.551   8.592   5.112
81379SOL    HW145970  11.505   8.530   5.168
81379SOL    HW245971  11.591   8.654   5.174
81380SOL     OW45972  10.939  14.494   0.291
81380SOL    HW145973  10.885  14.416   0.296
81380SOL    HW245974  10.995  14.479   0.214
81381SOL     OW45975  11.114   1.399  13.342
81381SOL    HW145976  11.110   1.306  13.366
81381SOL    HW245977  11.142   1.399  13.251
81382SOL     OW45978  14.693  10.097  12.744
81382SOL    HW145979  14.678  10.172  12.686
81382SOL    HW245980  14.732  10.136  12.822
81383SOL     OW45981   2.593   3.241   1.754
81383SOL    HW145982   2.667   3.292   1.721
81383SOL    HW245983   2.587   3.167   1.694
81384SOL     OW45984   4.360  12.331   7.192
81384SOL    HW145985   4.341  12.273   7.265
81384SOL    HW245986   4.454  12.350   7.200
81385SOL     OW45987   3.999  13.611   2.036
81385SOL    HW145988   4.085  13.588   2.000
81385SOL    HW245989   3.950  13.646   1.962
81386SOL     OW45990   5.212   8.654   4.608
81386SOL    HW145991   5.200   8.744   4.636
81386SOL    HW245992   5.285   8.658   4.545
81387SOL     OW45993   9.887  11.114  14.576
81387SOL    HW145994   9.884  11.191  14.520
81387SOL    HW245995   9.889  11.040  14.516
81388SOL     OW45996  11.327  11.803   0.352
81388SOL    HW145997  11.340  11.851   0.434
81388SOL    HW245998  11.378  11.723   0.364
81389SOL     OW45999   1.009   4.250  13.919
81389SOL    HW146000   0.918   4.259  13.948
81389SOL    HW246001   1.058   4.227  13.998
81390SOL     OW46002  10.974  12.410  13.796
81390SOL    HW146003  10.945  12.501  13.804
81390SOL    HW246004  11.003  12.402  13.705
81391SOL     OW46005   1.138  12.969   7.484
81391SOL    HW146006   1.194  12.908   7.435
81391SOL    HW246007   1.066  12.915   7.515
81392SOL     OW46008  14.129  10.826   4.425
81392SOL    HW146009  14.187  10.759   4.389
81392SOL    HW246010  14.169  10.848   4.510
81393SOL     OW46011  14.756   7.383  13.947
81393SOL    HW146012  14.736   7.476  13.958
81393SOL    HW246013  14.833   7.368  14.002
81394SOL     OW46014   2.665   4.752  11.657
81394SOL    HW146015   2.743   4.798  11.625
81394SOL    HW246016   2.592   4.800  11.618
81395SOL     OW46017   2.144   9.211   9.936
81395SOL    HW146018   2.204   9.151   9.891
81395SOL    HW246019   2.200   9.272   9.983
81396SOL     OW46020   9.946   3.233   6.054
81396SOL    HW146021   9.879   3.187   6.004
81396SOL    HW246022   9.916   3.229   6.145
81397SOL     OW46023   5.370  10.355   4.076
81397SOL    HW146024   5.407  10.323   4.158
81397SOL    HW246025   5.313  10.427   4.102
81398SOL     OW46026  14.771  12.860   0.112
81398SOL    HW146027  14.789  12.857   0.206
81398SOL    HW246028  14.784  12.951   0.088
81399SOL     OW46029  11.046  14.682   9.811
81399SOL    HW146030  11.026  14.776   9.819
81399SOL    HW246031  11.134  14.679   9.775
81400SOL     OW46032   2.658   4.741  12.140
81400SOL    HW146033   2.671   4.773  12.050
81400SOL    HW246034   2.714   4.796  12.193
81401SOL     OW46035   5.316   6.612   1.349
81401SOL    HW146036   5.312   6.521   1.321
81401SOL    HW246037   5.405   6.624   1.379
81402SOL     OW46038   9.352   9.885   8.997
81402SOL    HW146039   9.360   9.931   9.081
81402SOL    HW246040   9.287   9.817   9.014
81403SOL     OW46041  14.438   8.303  13.749
81403SOL    HW146042  14.382   8.274  13.821
81403SOL    HW246043  14.417   8.396  13.738
81404SOL     OW46044  13.266  11.138   2.899
81404SOL    HW146045  13.229  11.050   2.912
81404SOL    HW246046  13.217  11.193   2.960
81405SOL     OW46047  10.899   9.583   5.981
81405SOL    HW146048  10.897   9.652   5.915
81405SOL    HW246049  10.867   9.624   6.061
81406SOL     OW46050   4.151   4.712  11.307
81406SOL    HW146051   4.139   4.796  11.353
81406SOL    HW246052   4.234   4.678  11.340
81407SOL     OW46053  13.889   2.942   5.886
81407SOL    HW146054  13.858   3.030   5.866
81407SOL    HW246055  13.883   2.895   5.803
81408SOL     OW46056  14.351  12.524   1.329
81408SOL    HW146057  14.280  12.499   1.388
81408SOL    HW246058  14.334  12.616   1.308
81409SOL     OW46059   6.344   0.009  13.763
81409SOL    HW146060   6.253  14.869  13.740
81409SOL    HW246061   6.352   0.103  13.751
81410SOL     OW46062   3.122   0.459   2.489
81410SOL    HW146063   3.083   0.474   2.575
81410SOL    HW246064   3.072   0.515   2.430
81411SOL     OW46065   1.412   2.980   6.008
81411SOL    HW146066   1.451   3.066   5.994
81411SOL    HW246067   1.466   2.939   6.076
81412SOL     OW46068   7.597   7.160  13.350
81412SOL    HW146069   7.644   7.136  13.271
81412SOL    HW246070   7.533   7.225  13.322
81413SOL     OW46071   3.626   2.901  13.657
81413SOL    HW146072   3.619   2.920  13.563
81413SOL    HW246073   3.655   2.810  13.661
81414SOL     OW46074  14.727   9.311  14.695
81414SOL    HW146075  14.715   9.223  14.661
81414SOL    HW246076  14.651   9.360  14.662
81415SOL     OW46077  12.963   3.910  14.518
81415SOL    HW146078  12.999   3.854  14.586
81415SOL    HW246079  12.974   3.999  14.551
81416SOL     OW46080   4.259  14.170   5.257
81416SOL    HW146081   4.175  14.201   5.225
81416SOL    HW246082   4.264  14.079   5.228
81417SOL     OW46083  13.654   4.171   8.804
81417SOL    HW146084  13.697   4.191   8.887
81417SOL    HW246085  13.674   4.246   8.748
81418SOL     OW46086   9.831   0.865  12.852
81418SOL    HW146087   9.875   0.926  12.911
81418SOL    HW246088   9.765   0.918  12.807
81419SOL     OW46089  10.343  10.452   4.933
81419SOL    HW146090  10.251  10.454   4.962
81419SOL    HW246091  10.347  10.513   4.860
81420SOL     OW46092   3.052  12.730   7.791
81420SOL    HW146093   3.118  12.661   7.784
81420SOL    HW246094   3.088  12.791   7.855
81421SOL     OW46095   8.796   4.798   1.240
81421SOL    HW146096   8.868   4.815   1.179
81421SOL    HW246097   8.832   4.733   1.301
81422SOL     OW46098  14.603   8.969  12.541
81422SOL    HW146099  14.511   8.985  12.521
81422SOL    HW246100  14.651   9.008  12.468
81423SOL     OW46101   3.923  11.345   5.387
81423SOL    HW146102   3.934  11.387   5.473
81423SOL    HW246103   3.910  11.253   5.407
81424SOL     OW46104   5.652   8.488  13.364
81424SOL    HW146105   5.645   8.531  13.449
81424SOL    HW246106   5.672   8.397  13.385
81425SOL     OW46107   3.788  12.558  12.779
81425SOL    HW146108   3.694  12.569  12.768
81425SOL    HW246109   3.827  12.625  12.722
81426SOL     OW46110  11.378   0.210   6.217
81426SOL    HW146111  11.377   0.241   6.308
81426SOL    HW246112  11.286   0.206   6.192
81427SOL     OW46113  11.943   0.625  13.013
81427SOL    HW146114  11.938   0.635  12.918
81427SOL    HW246115  11.856   0.652  13.044
81428SOL     OW46116   7.239  10.479   0.620
81428SOL    HW146117   7.319  10.438   0.652
81428SOL    HW246118   7.202  10.415   0.560
81429SOL     OW46119  10.559   9.642   7.233
81429SOL    HW146120  10.588   9.730   7.256
81429SOL    HW246121  10.531   9.604   7.316
81430SOL     OW46122   9.517   9.367   3.313
81430SOL    HW146123   9.430   9.375   3.273
81430SOL    HW246124   9.576   9.410   3.250
81431SOL     OW46125   4.897  13.038   8.522
81431SOL    HW146126   4.982  13.012   8.487
81431SOL    HW246127   4.896  13.003   8.611
81432SOL     OW46128   0.155  11.786   3.392
81432SOL    HW146129   0.063  11.805   3.370
81432SOL    HW246130   0.186  11.865   3.435
81433SOL     OW46131   0.278   8.499   7.009
81433SOL    HW146132   0.248   8.551   7.083
81433SOL    HW246133   0.302   8.563   6.943
81434SOL     OW46134  13.011   7.841  11.262
81434SOL    HW146135  13.022   7.752  11.228
81434SOL    HW246136  13.010   7.896  11.184
81435SOL     OW46137   6.276  14.411   9.562
81435SOL    HW146138   6.279  14.434   9.469
81435SOL    HW246139   6.189  14.440   9.590
81436SOL     OW46140   6.856  12.434  13.905
81436SOL    HW146141   6.859  12.343  13.875
81436SOL    HW246142   6.945  12.467  13.893
81437SOL     OW46143   2.564  12.768   1.700
81437SOL    HW146144   2.611  12.845   1.669
81437SOL    HW246145   2.516  12.799   1.777
81438SOL     OW46146   4.538   1.554  13.970
81438SOL    HW146147   4.587   1.625  13.929
81438SOL    HW246148   4.603   1.487  13.989
81439SOL     OW46149   6.228   7.749   1.552
81439SOL    HW146150   6.143   7.735   1.595
81439SOL    HW246151   6.261   7.830   1.590
81440SOL     OW46152   2.379   2.174  10.709
81440SOL    HW146153   2.370   2.129  10.625
81440SOL    HW246154   2.301   2.150  10.758
81441SOL     OW46155  11.535   5.025   3.307
81441SOL    HW146156  11.513   5.043   3.215
81441SOL    HW246157  11.618   5.070   3.321
81442SOL     OW46158  11.051   1.755  11.809
81442SOL    HW146159  11.090   1.719  11.889
81442SOL    HW246160  10.965   1.786  11.836
81443SOL     OW46161   9.216   1.805  10.443
81443SOL    HW146162   9.244   1.856  10.368
81443SOL    HW246163   9.120   1.813  10.444
81444SOL     OW46164   0.160  12.659  11.782
81444SOL    HW146165   0.245  12.647  11.822
81444SOL    HW246166   0.106  12.587  11.815
81445SOL     OW46167   7.364   2.252   0.419
81445SOL    HW146168   7.367   2.239   0.514
81445SOL    HW246169   7.289   2.201   0.390
81446SOL     OW46170  10.691  13.661   0.103
81446SOL    HW146171  10.647  13.577   0.113
81446SOL    HW246172  10.634  13.724   0.147
81447SOL     OW46173   5.684   3.816   6.965
81447SOL    HW146174   5.661   3.755   7.035
81447SOL    HW246175   5.701   3.761   6.889
81448SOL     OW46176   2.217   7.730   7.266
81448SOL    HW146177   2.189   7.743   7.175
81448SOL    HW246178   2.136   7.716   7.315
81449SOL     OW46179  10.748  10.301   1.947
81449SOL    HW146180  10.842  10.310   1.930
81449SOL    HW246181  10.725  10.381   1.994
81450SOL     OW46182  12.613   2.114   5.550
81450SOL    HW146183  12.547   2.136   5.484
81450SOL    HW246184  12.566   2.117   5.633
81451SOL     OW46185   2.609   8.458   2.599
81451SOL    HW146186   2.605   8.363   2.604
81451SOL    HW246187   2.587   8.479   2.508
81452SOL     OW46188   7.083   9.965   6.723
81452SOL    HW146189   7.152  10.028   6.741
81452SOL    HW246190   7.031  10.005   6.654
81453SOL     OW46191   6.195   4.495   3.711
81453SOL    HW146192   6.261   4.526   3.648
81453SOL    HW246193   6.215   4.402   3.722
81454SOL     OW46194  13.507   6.903  13.156
81454SOL    HW146195  13.525   6.956  13.234
81454SOL    HW246196  13.425   6.857  13.177
81455SOL     OW46197   3.965   9.307   9.052
81455SOL    HW146198   3.899   9.357   9.100
81455SOL    HW246199   4.036   9.294   9.115
81456SOL     OW46200   3.917  11.036   0.448
81456SOL    HW146201   3.966  11.114   0.471
81456SOL    HW246202   3.892  10.997   0.532
81457SOL     OW46203   3.212  10.781   2.578
81457SOL    HW146204   3.268  10.717   2.532
81457SOL    HW246205   3.152  10.727   2.629
81458SOL     OW46206   9.929   6.584   0.889
81458SOL    HW146207   9.874   6.659   0.908
81458SOL    HW246208   9.898   6.551   0.805
81459SOL     OW46209  12.760  14.196   3.722
81459SOL    HW146210  12.782  14.139   3.796
81459SOL    HW246211  12.804  14.278   3.742
81460SOL     OW46212  11.518   8.934  13.304
81460SOL    HW146213  11.542   8.843  13.322
81460SOL    HW246214  11.547   8.983  13.381
81461SOL     OW46215  10.047  12.484   2.111
81461SOL    HW146216  10.011  12.397   2.089
81461SOL    HW246217  10.133  12.465   2.147
81462SOL     OW46218   1.045  13.780   5.635
81462SOL    HW146219   1.076  13.706   5.583
81462SOL    HW246220   0.949  13.770   5.635
81463SOL     OW46221  10.159  12.825   8.200
81463SOL    HW146222  10.162  12.898   8.139
81463SOL    HW246223  10.246  12.787   8.197
81464SOL     OW46224   1.323   0.786   8.832
81464SOL    HW146225   1.293   0.845   8.764
81464SOL    HW246226   1.417   0.774   8.815
81465SOL     OW46227   1.999   0.293   5.921
81465SOL    HW146228   1.960   0.324   5.839
81465SOL    HW246229   2.056   0.221   5.895
81466SOL     OW46230   2.352   1.612  13.339
81466SOL    HW146231   2.421   1.565  13.385
81466SOL    HW246232   2.392   1.639  13.257
81467SOL     OW46233  13.412  12.861   3.228
81467SOL    HW146234  13.413  12.952   3.198
81467SOL    HW246235  13.477  12.816   3.173
81468SOL     OW46236   9.588   0.671  10.626
81468SOL    HW146237   9.682   0.686  10.640
81468SOL    HW246238   9.547   0.754  10.648
81469SOL     OW46239  12.431   1.356   6.119
81469SOL    HW146240  12.498   1.341   6.186
81469SOL    HW246241  12.464   1.309   6.042
81470SOL     OW46242   1.931   9.589   9.014
81470SOL    HW146243   1.933   9.681   8.985
81470SOL    HW246244   1.927   9.595   9.109
81471SOL     OW46245  13.068   1.520   6.002
81471SOL    HW146246  13.033   1.487   6.084
81471SOL    HW246247  13.148   1.469   5.987
81472SOL     OW46248  14.416   0.532  13.982
81472SOL    HW146249  14.353   0.545  13.911
81472SOL    HW246250  14.367   0.555  14.062
81473SOL     OW46251   7.989  12.631   7.998
81473SOL    HW146252   7.999  12.658   7.907
81473SOL    HW246253   8.046  12.690   8.048
81474SOL     OW46254   2.816   9.853  13.613
81474SOL    HW146255   2.752   9.910  13.656
81474SOL    HW246256   2.901   9.885  13.643
81475SOL     OW46257  13.517   1.095  10.420
81475SOL    HW146258  13.484   1.045  10.495
81475SOL    HW246259  13.441   1.146  10.391
81476SOL     OW46260  11.772  12.857   3.899
81476SOL    HW146261  11.785  12.852   3.994
81476SOL    HW246262  11.686  12.896   3.888
81477SOL     OW46263   8.478   5.840  14.692
81477SOL    HW146264   8.419   5.789  14.748
81477SOL    HW246265   8.421   5.905  14.651
81478SOL     OW46266   9.723   1.845   0.501
81478SOL    HW146267   9.751   1.790   0.574
81478SOL    HW246268   9.803   1.891   0.473
81479SOL     OW46269   0.581   4.329   3.336
81479SOL    HW146270   0.504   4.384   3.320
81479SOL    HW246271   0.562   4.285   3.419
81480SOL     OW46272   6.937   4.276   9.822
81480SOL    HW146273   7.014   4.291   9.767
81480SOL    HW246274   6.967   4.215   9.890
81481SOL     OW46275   2.828  13.560  11.268
81481SOL    HW146276   2.874  13.616  11.331
81481SOL    HW246277   2.748  13.534  11.313
81482SOL     OW46278   5.074   2.903  10.435
81482SOL    HW146279   5.021   2.933  10.361
81482SOL    HW246280   5.066   2.972  10.500
81483SOL     OW46281  11.883   1.784   5.537
81483SOL    HW146282  11.809   1.780   5.475
81483SOL    HW246283  11.929   1.864   5.513
81484SOL     OW46284   5.237   8.692   6.439
81484SOL    HW146285   5.203   8.615   6.485
81484SOL    HW246286   5.256   8.661   6.351
81485SOL     OW46287   1.964   2.097  12.170
81485SOL    HW146288   1.922   2.100  12.256
81485SOL    HW246289   2.018   2.176  12.167
81486SOL     OW46290   9.273   7.490  11.153
81486SOL    HW146291   9.297   7.511  11.063
81486SOL    HW246292   9.226   7.407  11.147
81487SOL     OW46293   2.864   0.487   4.869
81487SOL    HW146294   2.784   0.504   4.819
81487SOL    HW246295   2.905   0.573   4.880
81488SOL     OW46296   3.140  11.369  12.292
81488SOL    HW146297   3.186  11.301  12.342
81488SOL    HW246298   3.072  11.401  12.351
81489SOL     OW46299   2.805  10.334   1.920
81489SOL    HW146300   2.763  10.402   1.869
81489SOL    HW246301   2.899  10.346   1.905
81490SOL     OW46302  10.473   7.896  14.834
81490SOL    HW146303  10.463   7.969  14.773
81490SOL    HW246304  10.384   7.864  14.849
81491SOL     OW46305   6.179   9.567   5.925
81491SOL    HW146306   6.096   9.599   5.960
81491SOL    HW246307   6.189   9.613   5.842
81492SOL     OW46308  11.666   0.521  12.424
81492SOL    HW146309  11.600   0.453  12.430
81492SOL    HW246310  11.720   0.496  12.348
81493SOL     OW46311   7.004  12.195  11.295
81493SOL    HW146312   7.005  12.194  11.391
81493SOL    HW246313   7.030  12.284  11.271
81494SOL     OW46314  10.286   4.503  12.690
81494SOL    HW146315  10.203   4.538  12.725
81494SOL    HW246316  10.353   4.562  12.726
81495SOL     OW46317   3.860   3.875   5.450
81495SOL    HW146318   3.948   3.876   5.415
81495SOL    HW246319   3.857   3.797   5.506
81496SOL     OW46320   8.762   8.603   1.861
81496SOL    HW146321   8.790   8.663   1.930
81496SOL    HW246322   8.844   8.571   1.823
81497SOL     OW46323   0.773   3.644   9.377
81497SOL    HW146324   0.723   3.659   9.458
81497SOL    HW246325   0.826   3.566   9.396
81498SOL     OW46326   7.922  12.757   2.819
81498SOL    HW146327   7.972  12.693   2.769
81498SOL    HW246328   7.965  12.759   2.905
81499SOL     OW46329  10.961   6.368   1.027
81499SOL    HW146330  11.036   6.427   1.038
81499SOL    HW246331  10.915   6.402   0.951
81500SOL     OW46332   1.553   9.074  10.267
81500SOL    HW146333   1.584   9.060  10.177
81500SOL    HW246334   1.632   9.064  10.321
81501SOL     OW46335  14.507  13.768   8.930
81501SOL    HW146336  14.547  13.683   8.950
81501SOL    HW246337  14.467  13.795   9.012
81502SOL     OW46338  14.468  11.828  12.376
81502SOL    HW146339  14.416  11.828  12.296
81502SOL    HW246340  14.539  11.890  12.358
81503SOL     OW46341   3.201   0.472   8.306
81503SOL    HW146342   3.295   0.489   8.303
81503SOL    HW246343   3.161   0.552   8.272
81504SOL     OW46344   1.547   2.679  13.485
81504SOL    HW146345   1.492   2.601  13.476
81504SOL    HW246346   1.600   2.679  13.405
81505SOL     OW46347   8.163   1.060   9.622
81505SOL    HW146348   8.126   1.145   9.600
81505SOL    HW246349   8.087   1.008   9.651
81506SOL     OW46350   1.964   8.179   4.108
81506SOL    HW146351   1.909   8.256   4.122
81506SOL    HW246352   1.956   8.159   4.015
81507SOL     OW46353   0.421   5.451  13.373
81507SOL    HW146354   0.446   5.358  13.372
81507SOL    HW246355   0.347   5.456  13.313
81508SOL     OW46356   3.014   9.625   6.604
81508SOL    HW146357   3.016   9.620   6.508
81508SOL    HW246358   3.004   9.534   6.632
81509SOL     OW46359  14.602   8.088   1.164
81509SOL    HW146360  14.607   8.146   1.240
81509SOL    HW246361  14.540   8.131   1.105
81510SOL     OW46362  13.670   8.357  11.782
81510SOL    HW146363  13.587   8.332  11.824
81510SOL    HW246364  13.708   8.274  11.754
81511SOL     OW46365  11.262   2.700  12.870
81511SOL    HW146366  11.275   2.681  12.777
81511SOL    HW246367  11.211   2.781  12.871
81512SOL     OW46368   4.723   9.884   2.141
81512SOL    HW146369   4.771   9.827   2.081
81512SOL    HW246370   4.789   9.920   2.200
81513SOL     OW46371  10.231  11.330   7.946
81513SOL    HW146372  10.269  11.273   7.879
81513SOL    HW246373  10.285  11.315   8.023
81514SOL     OW46374  13.919   2.789   5.640
81514SOL    HW146375  13.978   2.791   5.565
81514SOL    HW246376  13.845   2.736   5.611
81515SOL     OW46377   0.050   2.284  13.478
81515SOL    HW146378   0.119   2.229  13.440
81515SOL    HW246379   0.072   2.373  13.448
81516SOL     OW46380  11.211  14.785   3.562
81516SOL    HW146381  11.248  14.723   3.624
81516SOL    HW246382  11.226  14.871   3.602
81517SOL     OW46383  11.794   0.984   7.915
81517SOL    HW146384  11.874   0.959   7.961
81517SOL    HW246385  11.803   1.078   7.900
81518SOL     OW46386   5.282  14.737   2.987
81518SOL    HW146387   5.340  14.792   3.040
81518SOL    HW246388   5.199  14.737   3.034
81519SOL     OW46389   4.143  14.324   7.127
81519SOL    HW146390   4.119  14.244   7.081
81519SOL    HW246391   4.218  14.358   7.077
81520SOL     OW46392   1.777  14.346  10.940
81520SOL    HW146393   1.815  14.278  10.996
81520SOL    HW246394   1.685  14.321  10.930
81521SOL     OW46395   9.843   3.358   2.190
81521SOL    HW146396   9.857   3.264   2.181
81521SOL    HW246397   9.817   3.369   2.281
81522SOL     OW46398  13.905   6.240   9.737
81522SOL    HW146399  13.959   6.168   9.770
81522SOL    HW246400  13.921   6.240   9.642
81523SOL     OW46401   8.505   9.298   4.427
81523SOL    HW146402   8.447   9.325   4.355
81523SOL    HW246403   8.502   9.371   4.488
81524SOL     OW46404   4.736  12.654  14.203
81524SOL    HW146405   4.816  12.619  14.242
81524SOL    HW246406   4.723  12.738  14.247
81525SOL     OW46407   8.114   7.631   0.065
81525SOL    HW146408   8.044   7.602   0.006
81525SOL    HW246409   8.114   7.726   0.058
81526SOL     OW46410   4.231  13.979   3.464
81526SOL    HW146411   4.246  13.921   3.539
81526SOL    HW246412   4.241  13.923   3.388
81527SOL     OW46413   2.891   5.870   0.034
81527SOL    HW146414   2.897   5.777   0.058
81527SOL    HW246415   2.927   5.916   0.110
81528SOL     OW46416  13.076   8.711   3.258
81528SOL    HW146417  13.008   8.744   3.317
81528SOL    HW246418  13.085   8.618   3.280
81529SOL     OW46419  12.646   5.298  14.068
81529SOL    HW146420  12.669   5.387  14.095
81529SOL    HW246421  12.667   5.294  13.975
81530SOL     OW46422   0.022   1.988   3.304
81530SOL    HW146423   0.048   2.054   3.239
81530SOL    HW246424   0.098   1.981   3.362
81531SOL     OW46425   2.596   6.716  13.958
81531SOL    HW146426   2.534   6.658  13.913
81531SOL    HW246427   2.599   6.683  14.047
81532SOL     OW46428  13.624   2.249   5.846
81532SOL    HW146429  13.623   2.262   5.941
81532SOL    HW246430  13.710   2.209   5.828
81533SOL     OW46431   7.812   0.152   4.644
81533SOL    HW146432   7.809   0.067   4.687
81533SOL    HW246433   7.848   0.134   4.557
81534SOL     OW46434  12.005   6.676   2.355
81534SOL    HW146435  12.009   6.742   2.424
81534SOL    HW246436  12.084   6.624   2.367
81535SOL     OW46437   5.706   4.048  12.230
81535SOL    HW146438   5.632   4.040  12.291
81535SOL    HW246439   5.775   3.994  12.269
81536SOL     OW46440   1.421   5.411   3.283
81536SOL    HW146441   1.374   5.477   3.334
81536SOL    HW246442   1.479   5.462   3.225
81537SOL     OW46443  12.537   9.609   0.544
81537SOL    HW146444  12.489   9.652   0.473
81537SOL    HW246445  12.503   9.649   0.624
81538SOL     OW46446  14.546   5.639   6.572
81538SOL    HW146447  14.552   5.734   6.562
81538SOL    HW246448  14.470   5.614   6.521
81539SOL     OW46449  10.012   9.723   3.654
81539SOL    HW146450   9.975   9.644   3.615
81539SOL    HW246451   9.953   9.743   3.727
81540SOL     OW46452   4.063   1.701   3.501
81540SOL    HW146453   4.045   1.609   3.521
81540SOL    HW246454   4.158   1.706   3.497
81541SOL     OW46455   2.421   5.892  11.467
81541SOL    HW146456   2.489   5.849  11.415
81541SOL    HW246457   2.382   5.957  11.408
81542SOL     OW46458   1.780   9.989   7.699
81542SOL    HW146459   1.817   9.909   7.662
81542SOL    HW246460   1.841  10.014   7.769
81543SOL     OW46461   8.904   0.830  10.201
81543SOL    HW146462   8.912   0.903  10.262
81543SOL    HW246463   8.958   0.761  10.240
81544SOL     OW46464   6.618   3.013  11.352
81544SOL    HW146465   6.583   3.093  11.392
81544SOL    HW246466   6.660   3.042  11.271
81545SOL     OW46467  10.888   0.262   2.084
81545SOL    HW146468  10.875   0.170   2.060
81545SOL    HW246469  10.842   0.271   2.167
81546SOL     OW46470   6.226  13.053   9.126
81546SOL    HW146471   6.279  13.082   9.052
81546SOL    HW246472   6.168  12.986   9.090
81547SOL     OW46473  12.667   7.283   3.286
81547SOL    HW146474  12.647   7.245   3.371
81547SOL    HW246475  12.615   7.233   3.224
81548SOL     OW46476   2.943   5.572  10.374
81548SOL    HW146477   3.003   5.502  10.347
81548SOL    HW246478   2.869   5.565  10.314
81549SOL     OW46479   9.041  14.364   4.953
81549SOL    HW146480   9.135  14.359   4.934
81549SOL    HW246481   9.014  14.272   4.961
81550SOL     OW46482   6.067   7.453   4.872
81550SOL    HW146483   6.154   7.461   4.833
81550SOL    HW246484   6.073   7.500   4.955
81551SOL     OW46485  13.623   6.341   1.991
81551SOL    HW146486  13.574   6.350   2.073
81551SOL    HW246487  13.599   6.419   1.940
81552SOL     OW46488   9.116   7.603   5.800
81552SOL    HW146489   9.195   7.631   5.847
81552SOL    HW246490   9.137   7.516   5.768
81553SOL     OW46491  12.424  12.700   8.820
81553SOL    HW146492  12.330  12.717   8.813
81553SOL    HW246493  12.465  12.767   8.765
81554SOL     OW46494   9.785   1.762  12.450
81554SOL    HW146495   9.754   1.671  12.447
81554SOL    HW246496   9.854   1.766  12.384
81555SOL     OW46497   7.656   3.051  12.393
81555SOL    HW146498   7.631   2.960  12.407
81555SOL    HW246499   7.580   3.091  12.351
81556SOL     OW46500   7.644  14.092  10.688
81556SOL    HW146501   7.727  14.044  10.692
81556SOL    HW246502   7.660  14.172  10.739
81557SOL     OW46503  11.131  14.821   2.902
81557SOL    HW146504  11.049  14.775   2.882
81557SOL    HW246505  11.135   0.011   2.836
81558SOL     OW46506  14.469   1.349   3.829
81558SOL    HW146507  14.478   1.409   3.755
81558SOL    HW246508  14.537   1.283   3.815
81559SOL     OW46509   5.407   7.127   9.756
81559SOL    HW146510   5.397   7.209   9.708
81559SOL    HW246511   5.459   7.150   9.832
81560SOL     OW46512   3.878   9.156   2.755
81560SOL    HW146513   3.938   9.090   2.721
81560SOL    HW246514   3.805   9.106   2.792
81561SOL     OW46515   4.369   5.107   0.250
81561SOL    HW146516   4.417   5.190   0.263
81561SOL    HW246517   4.436   5.045   0.221
81562SOL     OW46518   5.336  12.459   1.592
81562SOL    HW146519   5.356  12.492   1.679
81562SOL    HW246520   5.389  12.513   1.533
81563SOL     OW46521   7.807   9.674  12.913
81563SOL    HW146522   7.751   9.730  12.967
81563SOL    HW246523   7.856   9.735  12.858
81564SOL     OW46524   6.863   4.752  12.691
81564SOL    HW146525   6.866   4.819  12.623
81564SOL    HW246526   6.929   4.688  12.665
81565SOL     OW46527   9.221   5.519   6.545
81565SOL    HW146528   9.159   5.566   6.601
81565SOL    HW246529   9.275   5.588   6.506
81566SOL     OW46530   7.482   3.142   8.333
81566SOL    HW146531   7.564   3.122   8.377
81566SOL    HW246532   7.474   3.237   8.337
81567SOL     OW46533  10.127  11.062   7.341
81567SOL    HW146534  10.190  11.011   7.392
81567SOL    HW246535  10.093  11.001   7.276
81568SOL     OW46536   9.504   4.172   9.913
81568SOL    HW146537   9.553   4.227   9.852
81568SOL    HW246538   9.567   4.106   9.940
81569SOL     OW46539   0.461   6.860   1.510
81569SOL    HW146540   0.392   6.853   1.577
81569SOL    HW246541   0.418   6.902   1.436
81570SOL     OW46542  13.642  11.917   8.779
81570SOL    HW146543  13.639  11.886   8.689
81570SOL    HW246544  13.576  11.864   8.824
81571SOL     OW46545   3.178   4.545   6.423
81571SOL    HW146546   3.141   4.570   6.508
81571SOL    HW246547   3.216   4.458   6.439
81572SOL     OW46548   9.718  12.336  11.016
81572SOL    HW146549   9.776  12.409  10.995
81572SOL    HW246550   9.663  12.327  10.938
81573SOL     OW46551   5.768   1.456  12.065
81573SOL    HW146552   5.706   1.409  12.008
81573SOL    HW246553   5.830   1.389  12.093
81574SOL     OW46554   3.214   5.350  14.362
81574SOL    HW146555   3.298   5.390  14.382
81574SOL    HW246556   3.227   5.305  14.279
81575SOL     OW46557   3.935   3.135  10.403
81575SOL    HW146558   3.933   3.052  10.355
81575SOL    HW246559   3.975   3.113  10.487
81576SOL     OW46560   7.058  10.788   8.307
81576SOL    HW146561   6.990  10.766   8.243
81576SOL    HW246562   7.134  10.813   8.255
81577SOL     OW46563   5.735   6.210   2.826
81577SOL    HW146564   5.804   6.166   2.876
81577SOL    HW246565   5.723   6.154   2.749
81578SOL     OW46566  11.135  13.643   3.663
81578SOL    HW146567  11.106  13.575   3.601
81578SOL    HW246568  11.230  13.628   3.670
81579SOL     OW46569   0.466   6.160   5.179
81579SOL    HW146570   0.508   6.212   5.110
81579SOL    HW246571   0.524   6.085   5.191
81580SOL     OW46572   4.334   3.100   9.259
81580SOL    HW146573   4.381   3.171   9.216
81580SOL    HW246574   4.321   3.130   9.349
81581SOL     OW46575  13.220   8.998  12.042
81581SOL    HW146576  13.197   8.916  11.998
81581SOL    HW246577  13.246   9.057  11.972
81582SOL     OW46578   1.106   7.771  12.986
81582SOL    HW146579   1.033   7.811  13.033
81582SOL    HW246580   1.083   7.678  12.979
81583SOL     OW46581   6.076   7.821  12.017
81583SOL    HW146582   6.155   7.778  12.051
81583SOL    HW246583   6.100   7.849  11.929
81584SOL     OW46584   9.106  12.188   3.910
81584SOL    HW146585   9.146  12.273   3.928
81584SOL    HW246586   9.035  12.208   3.848
81585SOL     OW46587   2.117   4.142  10.094
81585SOL    HW146588   2.117   4.049  10.071
81585SOL    HW246589   2.103   4.187  10.011
81586SOL     OW46590  11.529   9.322  12.051
81586SOL    HW146591  11.458   9.352  11.995
81586SOL    HW246592  11.517   9.369  12.133
81587SOL     OW46593   2.842   4.116   2.268
81587SOL    HW146594   2.889   4.052   2.214
81587SOL    HW246595   2.754   4.119   2.232
81588SOL     OW46596   1.346   8.291  13.185
81588SOL    HW146597   1.273   8.346  13.158
81588SOL    HW246598   1.347   8.298  13.281
81589SOL     OW46599  12.947  10.655   5.622
81589SOL    HW146600  12.898  10.585   5.578
81589SOL    HW246601  13.026  10.611   5.654
81590SOL     OW46602   1.402   2.019  11.335
81590SOL    HW146603   1.364   2.090  11.387
81590SOL    HW246604   1.478   1.989  11.385
81591SOL     OW46605   0.428  11.859   0.510
81591SOL    HW146606   0.386  11.829   0.430
81591SOL    HW246607   0.484  11.786   0.537
81592SOL     OW46608   2.642   4.983   3.242
81592SOL    HW146609   2.696   5.034   3.302
81592SOL    HW246610   2.607   5.047   3.180
81593SOL     OW46611   3.112   8.195  13.078
81593SOL    HW146612   3.086   8.165  13.165
81593SOL    HW246613   3.135   8.114  13.031
81594SOL     OW46614   5.885   0.239   3.741
81594SOL    HW146615   5.810   0.208   3.792
81594SOL    HW246616   5.868   0.333   3.729
81595SOL     OW46617   1.349   1.367   1.881
81595SOL    HW146618   1.344   1.293   1.942
81595SOL    HW246619   1.264   1.369   1.838
81596SOL     OW46620   6.478   6.365  12.415
81596SOL    HW146621   6.518   6.451  12.429
81596SOL    HW246622   6.410   6.358  12.482
81597SOL     OW46623   0.652  10.916   9.594
81597SOL    HW146624   0.728  10.973   9.603
81597SOL    HW246625   0.589  10.968   9.544
81598SOL     OW46626   3.104   5.506   5.992
81598SOL    HW146627   3.144   5.551   5.918
81598SOL    HW246628   3.015   5.487   5.963
81599SOL     OW46629   9.712   4.113   6.483
81599SOL    HW146630   9.713   4.017   6.479
81599SOL    HW246631   9.788   4.136   6.538
81600SOL     OW46632  13.977  10.254   9.811
81600SOL    HW146633  13.927  10.312   9.753
81600SOL    HW246634  14.065  10.293   9.813
81601SOL     OW46635  13.650  12.805   8.531
81601SOL    HW146636  13.744  12.795   8.542
81601SOL    HW246637  13.638  12.895   8.501
81602SOL     OW46638   0.085  12.241  12.784
81602SOL    HW146639   0.030  12.172  12.747
81602SOL    HW246640   0.023  12.310  12.809
81603SOL     OW46641   6.349   4.932  10.274
81603SOL    HW146642   6.380   4.889  10.354
81603SOL    HW246643   6.344   5.025  10.298
81604SOL     OW46644   8.563   6.296   0.174
81604SOL    HW146645   8.639   6.252   0.212
81604SOL    HW246646   8.487   6.253   0.215
81605SOL     OW46647   3.465  10.061  14.639
81605SOL    HW146648   3.434  10.112  14.565
81605SOL    HW246649   3.510   9.986  14.600
81606SOL     OW46650  12.626   5.509   4.061
81606SOL    HW146651  12.605   5.500   4.154
81606SOL    HW246652  12.717   5.536   4.059
81607SOL     OW46653  13.965   7.352  13.210
81607SOL    HW146654  13.938   7.433  13.166
81607SOL    HW246655  13.967   7.286  13.140
81608SOL     OW46656   7.261   7.348  13.556
81608SOL    HW146657   7.223   7.435  13.571
81608SOL    HW246658   7.349   7.353  13.593
81609SOL     OW46659   5.899   6.017  13.184
81609SOL    HW146660   5.846   5.957  13.130
81609SOL    HW246661   5.945   5.960  13.245
81610SOL     OW46662   1.671   1.830   0.223
81610SOL    HW146663   1.642   1.753   0.173
81610SOL    HW246664   1.764   1.837   0.205
81611SOL     OW46665   2.903   3.940   0.412
81611SOL    HW146666   2.907   3.996   0.489
81611SOL    HW246667   2.907   4.000   0.338
81612SOL     OW46668   3.085   6.850   3.650
81612SOL    HW146669   3.094   6.945   3.662
81612SOL    HW246670   3.115   6.834   3.561
81613SOL     OW46671   4.668  11.469  11.189
81613SOL    HW146672   4.655  11.537  11.123
81613SOL    HW246673   4.753  11.488  11.228
81614SOL     OW46674   8.719  11.944  12.157
81614SOL    HW146675   8.761  11.862  12.132
81614SOL    HW246676   8.716  11.941  12.253
81615SOL     OW46677  11.240   3.913   2.384
81615SOL    HW146678  11.177   3.982   2.403
81615SOL    HW246679  11.187   3.835   2.370
81616SOL     OW46680   1.998  12.143   5.649
81616SOL    HW146681   1.924  12.200   5.626
81616SOL    HW246682   2.073  12.203   5.655
81617SOL     OW46683   9.763  13.633   1.236
81617SOL    HW146684   9.816  13.641   1.316
81617SOL    HW246685   9.821  13.662   1.166
81618SOL     OW46686   9.773   2.575   1.481
81618SOL    HW146687   9.855   2.557   1.434
81618SOL    HW246688   9.728   2.491   1.482
81619SOL     OW46689   9.911   7.690   2.373
81619SOL    HW146690   9.943   7.624   2.311
81619SOL    HW246691   9.820   7.666   2.388
81620SOL     OW46692   5.378   2.901   2.627
81620SOL    HW146693   5.285   2.915   2.611
81620SOL    HW246694   5.419   2.983   2.600
81621SOL     OW46695   1.339   2.103   0.020
81621SOL    HW146696   1.372   2.160  14.829
81621SOL    HW246697   1.377   2.139   0.100
81622SOL     OW46698   0.482   3.493   8.974
81622SOL    HW146699   0.426   3.569   8.986
81622SOL    HW246700   0.551   3.522   8.915
81623SOL     OW46701   0.768   2.495   7.097
81623SOL    HW146702   0.808   2.464   7.177
81623SOL    HW246703   0.839   2.497   7.033
81624SOL     OW46704   0.091   5.169   3.570
81624SOL    HW146705   0.115   5.238   3.507
81624SOL    HW246706   0.095   5.088   3.519
81625SOL     OW46707   2.587   2.512  13.033
81625SOL    HW146708   2.545   2.592  13.004
81625SOL    HW246709   2.616   2.469  12.952
81626SOL     OW46710   7.586   0.499   9.824
81626SOL    HW146711   7.600   0.433   9.756
81626SOL    HW246712   7.518   0.557   9.788
81627SOL     OW46713   4.391   3.006  14.196
81627SOL    HW146714   4.425   3.007  14.106
81627SOL    HW246715   4.462   2.968  14.248
81628SOL     OW46716   0.748   8.728   9.983
81628SOL    HW146717   0.841   8.747   9.972
81628SOL    HW246718   0.703   8.801   9.941
81629SOL     OW46719  10.611   4.013   1.247
81629SOL    HW146720  10.670   3.959   1.194
81629SOL    HW246721  10.669   4.073   1.294
81630SOL     OW46722   7.694   2.230   2.438
81630SOL    HW146723   7.771   2.275   2.402
81630SOL    HW246724   7.674   2.161   2.375
81631SOL     OW46725   7.317  12.978  11.245
81631SOL    HW146726   7.287  13.067  11.263
81631SOL    HW246727   7.291  12.960  11.155
81632SOL     OW46728   4.766   9.129   0.670
81632SOL    HW146729   4.808   9.043   0.667
81632SOL    HW246730   4.792   9.172   0.589
81633SOL     OW46731  13.179   5.582   7.508
81633SOL    HW146732  13.086   5.595   7.488
81633SOL    HW246733  13.223   5.587   7.423
81634SOL     OW46734  13.442  13.642   1.436
81634SOL    HW146735  13.521  13.670   1.482
81634SOL    HW246736  13.443  13.547   1.442
81635SOL     OW46737   9.977   0.088   3.899
81635SOL    HW146738  10.056   0.037   3.882
81635SOL    HW246739   9.906   0.034   3.864
81636SOL     OW46740   3.125   8.513  12.141
81636SOL    HW146741   3.064   8.523  12.214
81636SOL    HW246742   3.102   8.429  12.102
81637SOL     OW46743   9.284   7.155   1.887
81637SOL    HW146744   9.233   7.181   1.963
81637SOL    HW246745   9.232   7.086   1.845
81638SOL     OW46746   9.244   8.163  14.302
81638SOL    HW146747   9.261   8.208  14.385
81638SOL    HW246748   9.229   8.235  14.239
81639SOL     OW46749   7.267   1.638   6.209
81639SOL    HW146750   7.219   1.714   6.242
81639SOL    HW246751   7.209   1.564   6.226
81640SOL     OW46752   2.011   1.718   6.211
81640SOL    HW146753   1.919   1.693   6.214
81640SOL    HW246754   2.024   1.773   6.288
81641SOL     OW46755   1.753   5.347   0.312
81641SOL    HW146756   1.668   5.344   0.269
81641SOL    HW246757   1.805   5.280   0.268
81642SOL     OW46758   4.420   2.088   0.172
81642SOL    HW146759   4.457   2.171   0.205
81642SOL    HW246760   4.460   2.021   0.228
81643SOL     OW46761  11.838   9.350  11.705
81643SOL    HW146762  11.851   9.329  11.798
81643SOL    HW246763  11.743   9.356  11.696
81644SOL     OW46764   5.506   5.517   5.551
81644SOL    HW146765   5.533   5.429   5.574
81644SOL    HW246766   5.583   5.571   5.568
81645SOL     OW46767   2.112  12.043  11.402
81645SOL    HW146768   2.107  12.023  11.496
81645SOL    HW246769   2.033  12.004  11.365
81646SOL     OW46770   2.880  12.639   5.955
81646SOL    HW146771   2.854  12.582   6.027
81646SOL    HW246772   2.976  12.646   5.964
81647SOL     OW46773   9.441   7.930   6.688
81647SOL    HW146774   9.442   7.962   6.598
81647SOL    HW246775   9.348   7.922   6.711
81648SOL     OW46776   1.676   9.047   4.374
81648SOL    HW146777   1.651   9.108   4.305
81648SOL    HW246778   1.679   8.961   4.331
81649SOL     OW46779  13.377   1.618  12.429
81649SOL    HW146780  13.472   1.629  12.419
81649SOL    HW246781  13.341   1.703  12.403
81650SOL     OW46782   0.472   6.644   5.385
81650SOL    HW146783   0.505   6.731   5.409
81650SOL    HW246784   0.378   6.656   5.371
81651SOL     OW46785  14.712  11.415   1.403
81651SOL    HW146786  14.683  11.324   1.392
81651SOL    HW246787  14.807  11.411   1.390
81652SOL     OW46788   9.098  12.601   6.183
81652SOL    HW146789   9.080  12.529   6.244
81652SOL    HW246790   9.154  12.661   6.232
81653SOL     OW46791   5.120   7.021   4.793
81653SOL    HW146792   5.124   7.062   4.707
81653SOL    HW246793   5.121   6.927   4.774
81654SOL     OW46794  11.874  13.999  10.909
81654SOL    HW146795  11.848  14.089  10.931
81654SOL    HW246796  11.839  13.946  10.981
81655SOL     OW46797   9.267   1.722   2.150
81655SOL    HW146798   9.348   1.698   2.106
81655SOL    HW246799   9.211   1.645   2.141
81656SOL     OW46800   3.286  12.341  11.581
81656SOL    HW146801   3.374  12.311  11.559
81656SOL    HW246802   3.261  12.290  11.658
81657SOL     OW46803  13.583   7.775  12.479
81657SOL    HW146804  13.600   7.710  12.547
81657SOL    HW246805  13.581   7.858  12.525
81658SOL     OW46806   0.019  13.223  11.638
81658SOL    HW146807   0.036  13.245  11.729
81658SOL    HW246808   0.106  13.218  11.598
81659SOL     OW46809  12.429   8.158   1.144
81659SOL    HW146810  12.435   8.251   1.166
81659SOL    HW246811  12.351   8.151   1.089
81660SOL     OW46812  13.199  13.121  12.423
81660SOL    HW146813  13.289  13.089  12.427
81660SOL    HW246814  13.204  13.201  12.372
81661SOL     OW46815   1.607  14.626  14.288
81661SOL    HW146816   1.696  14.620  14.323
81661SOL    HW246817   1.605  14.560  14.218
81662SOL     OW46818  12.312   3.269  13.472
81662SOL    HW146819  12.292   3.205  13.540
81662SOL    HW246820  12.228   3.287  13.430
81663SOL     OW46821  10.595   4.641   6.332
81663SOL    HW146822  10.590   4.592   6.414
81663SOL    HW246823  10.682   4.622   6.298
81664SOL     OW46824   8.042   3.628  10.078
81664SOL    HW146825   8.015   3.550  10.128
81664SOL    HW246826   8.006   3.614   9.991
81665SOL     OW46827  13.003   2.160   3.202
81665SOL    HW146828  13.006   2.240   3.254
81665SOL    HW246829  13.084   2.114   3.224
81666SOL     OW46830   8.943   3.932  14.414
81666SOL    HW146831   8.891   3.874  14.470
81666SOL    HW246832   8.956   4.010  14.467
81667SOL     OW46833  13.992   3.790   3.311
81667SOL    HW146834  13.961   3.764   3.225
81667SOL    HW246835  13.999   3.708   3.360
81668SOL     OW46836   1.797   5.325  10.992
81668SOL    HW146837   1.706   5.309  10.968
81668SOL    HW246838   1.816   5.412  10.958
81669SOL     OW46839   5.850   1.799   6.455
81669SOL    HW146840   5.860   1.746   6.535
81669SOL    HW246841   5.757   1.792   6.433
81670SOL     OW46842  11.394   0.486  13.803
81670SOL    HW146843  11.460   0.551  13.780
81670SOL    HW246844  11.427   0.404  13.766
81671SOL     OW46845   7.667   4.406  14.854
81671SOL    HW146846   7.580   4.367  14.840
81671SOL    HW246847   7.668   4.429   0.068
81672SOL     OW46848   7.665   6.414  10.529
81672SOL    HW146849   7.588   6.423  10.585
81672SOL    HW246850   7.700   6.327  10.551
81673SOL     OW46851   8.378   6.624  10.820
81673SOL    HW146852   8.377   6.615  10.915
81673SOL    HW246853   8.384   6.534  10.787
81674SOL     OW46854   9.867  12.629   2.295
81674SOL    HW146855   9.892  12.661   2.381
81674SOL    HW246856   9.947  12.632   2.243
81675SOL     OW46857   2.522  13.501  10.215
81675SOL    HW146858   2.509  13.410  10.240
81675SOL    HW246859   2.557  13.497  10.126
81676SOL     OW46860   6.755   7.246   0.149
81676SOL    HW146861   6.763   7.152   0.168
81676SOL    HW246862   6.719   7.250   0.061
81677SOL     OW46863   8.742   1.114   2.343
81677SOL    HW146864   8.718   1.198   2.382
81677SOL    HW246865   8.805   1.076   2.405
81678SOL     OW46866   8.220  13.118   4.702
81678SOL    HW146867   8.272  13.082   4.774
81678SOL    HW246868   8.239  13.060   4.628
81679SOL     OW46869   4.895  14.723   1.612
81679SOL    HW146870   4.821  14.734   1.673
81679SOL    HW246871   4.891  14.630   1.588
81680SOL     OW46872  13.347   8.266   8.218
81680SOL    HW146873  13.340   8.187   8.163
81680SOL    HW246874  13.339   8.233   8.308
81681SOL     OW46875  10.317   8.970   4.513
81681SOL    HW146876  10.277   8.923   4.440
81681SOL    HW246877  10.258   9.044   4.528
81682SOL     OW46878   4.264   6.356   5.961
81682SOL    HW146879   4.172   6.361   5.934
81682SOL    HW246880   4.277   6.433   6.016
81683SOL     OW46881   0.595   2.136   1.514
81683SOL    HW146882   0.595   2.155   1.421
81683SOL    HW246883   0.686   2.116   1.536
81684SOL     OW46884   2.684   2.556   0.254
81684SOL    HW146885   2.609   2.605   0.289
81684SOL    HW246886   2.650   2.515   0.174
81685SOL     OW46887  13.241  12.808   8.762
81685SOL    HW146888  13.178  12.797   8.833
81685SOL    HW246889  13.249  12.721   8.723
81686SOL     OW46890   4.905   7.484  13.955
81686SOL    HW146891   4.869   7.436  13.881
81686SOL    HW246892   4.841   7.553  13.972
81687SOL     OW46893   9.483  11.468   5.818
81687SOL    HW146894   9.427  11.444   5.745
81687SOL    HW246895   9.487  11.390   5.873
81688SOL     OW46896   4.098  12.666   8.450
81688SOL    HW146897   4.151  12.721   8.392
81688SOL    HW246898   4.050  12.608   8.391
81689SOL     OW46899   3.231   7.210  14.199
81689SOL    HW146900   3.169   7.217  14.271
81689SOL    HW246901   3.210   7.126  14.158
81690SOL     OW46902   7.320   0.355  13.258
81690SOL    HW146903   7.375   0.377  13.333
81690SOL    HW246904   7.322   0.434  13.203
81691SOL     OW46905   5.644   2.230  12.667
81691SOL    HW146906   5.612   2.142  12.685
81691SOL    HW246907   5.716   2.243  12.729
81692SOL     OW46908   4.441   8.454  10.471
81692SOL    HW146909   4.372   8.448  10.405
81692SOL    HW246910   4.488   8.535  10.451
81693SOL     OW46911   7.604   3.104   3.715
81693SOL    HW146912   7.522   3.101   3.666
81693SOL    HW246913   7.619   3.197   3.732
81694SOL     OW46914  12.332  11.136  10.777
81694SOL    HW146915  12.359  11.217  10.735
81694SOL    HW246916  12.261  11.103  10.723
81695SOL     OW46917  14.725   7.679   7.140
81695SOL    HW146918  14.640   7.707   7.106
81695SOL    HW246919  14.735   7.726   7.223
81696SOL     OW46920   6.125   1.079  12.902
81696SOL    HW146921   6.205   1.089  12.954
81696SOL    HW246922   6.058   1.053  12.966
81697SOL     OW46923   1.761   3.965  13.410
81697SOL    HW146924   1.695   3.914  13.458
81697SOL    HW246925   1.840   3.912  13.415
81698SOL     OW46926   6.704  12.489  12.150
81698SOL    HW146927   6.787  12.474  12.195
81698SOL    HW246928   6.717  12.571  12.103
81699SOL     OW46929   8.018  13.392   7.775
81699SOL    HW146930   8.070  13.327   7.727
81699SOL    HW246931   8.081  13.461   7.796
81700SOL     OW46932   1.764   0.130   5.715
81700SOL    HW146933   1.672   0.154   5.726
81700SOL    HW246934   1.806   0.212   5.688
81701SOL     OW46935   4.800   3.128  10.867
81701SOL    HW146936   4.732   3.108  10.803
81701SOL    HW246937   4.810   3.047  10.917
81702SOL     OW46938   6.101   9.792   2.667
81702SOL    HW146939   6.185   9.761   2.701
81702SOL    HW246940   6.123   9.866   2.612
81703SOL     OW46941   2.805  12.398   1.672
81703SOL    HW146942   2.766  12.436   1.593
81703SOL    HW246943   2.864  12.466   1.705
81704SOL     OW46944   9.462   8.003   3.915
81704SOL    HW146945   9.438   8.003   3.822
81704SOL    HW246946   9.382   8.027   3.961
81705SOL     OW46947   5.138  13.665   9.138
81705SOL    HW146948   5.046  13.690   9.143
81705SOL    HW246949   5.136  13.571   9.119
81706SOL     OW46950  13.266   3.586   7.263
81706SOL    HW146951  13.203   3.514   7.263
81706SOL    HW246952  13.254   3.629   7.347
81707SOL     OW46953   1.453   5.113   4.557
81707SOL    HW146954   1.491   5.193   4.594
81707SOL    HW246955   1.522   5.048   4.564
81708SOL     OW46956   2.172   8.266   6.145
81708SOL    HW146957   2.123   8.314   6.212
81708SOL    HW246958   2.122   8.184   6.133
81709SOL     OW46959  12.874   5.640   1.707
81709SOL    HW146960  12.935   5.568   1.691
81709SOL    HW246961  12.930   5.715   1.730
81710SOL     OW46962  10.894   1.126   4.691
81710SOL    HW146963  10.854   1.039   4.688
81710SOL    HW246964  10.868   1.162   4.776
81711SOL     OW46965   1.789  14.675  10.947
81711SOL    HW146966   1.732  14.720  10.884
81711SOL    HW246967   1.787  14.584  10.919
81712SOL     OW46968   2.423   8.055   0.183
81712SOL    HW146969   2.463   7.969   0.171
81712SOL    HW246970   2.366   8.066   0.106
81713SOL     OW46971   6.918   5.899   1.393
81713SOL    HW146972   6.979   5.910   1.320
81713SOL    HW246973   6.974   5.891   1.470
81714SOL     OW46974   2.618   4.399   6.818
81714SOL    HW146975   2.620   4.339   6.744
81714SOL    HW246976   2.635   4.343   6.894
81715SOL     OW46977   1.529   1.591   1.922
81715SOL    HW146978   1.606   1.536   1.908
81715SOL    HW246979   1.455   1.536   1.896
81716SOL     OW46980   0.232  12.261   5.531
81716SOL    HW146981   0.141  12.255   5.562
81716SOL    HW246982   0.285  12.249   5.609
81717SOL     OW46983   3.038   5.115   0.676
81717SOL    HW146984   3.117   5.117   0.730
81717SOL    HW246985   3.021   5.022   0.663
81718SOL     OW46986   3.403   4.604  13.655
81718SOL    HW146987   3.483   4.633  13.612
81718SOL    HW246988   3.386   4.517  13.619
81719SOL     OW46989  13.749   1.338   3.593
81719SOL    HW146990  13.785   1.388   3.666
81719SOL    HW246991  13.656   1.356   3.594
81720SOL     OW46992  13.606   3.437   7.081
81720SOL    HW146993  13.698   3.413   7.075
81720SOL    HW246994  13.562   3.379   7.019
81721SOL     OW46995   2.071  13.576   6.742
81721SOL    HW146996   1.989  13.614   6.771
81721SOL    HW246997   2.074  13.490   6.783
81722SOL     OW46998  13.335  14.112  14.633
81722SOL    HW146999  13.372  14.157  14.557
81722SOL    HW247000  13.348  14.019  14.615
81723SOL     OW47001   4.533   5.692  12.062
81723SOL    HW147002   4.562   5.658  12.147
81723SOL    HW247003   4.577   5.777  12.054
81724SOL     OW47004   5.138   6.648   6.466
81724SOL    HW147005   5.187   6.566   6.461
81724SOL    HW247006   5.057   6.631   6.417
81725SOL     OW47007   1.514   1.492   6.317
81725SOL    HW147008   1.436   1.438   6.307
81725SOL    HW247009   1.585   1.430   6.335
81726SOL     OW47010   5.439  11.508   2.237
81726SOL    HW147011   5.344  11.510   2.244
81726SOL    HW247012   5.463  11.417   2.257
81727SOL     OW47013   0.658  13.928   7.392
81727SOL    HW147014   0.733  13.875   7.420
81727SOL    HW247015   0.696  14.011   7.366
81728SOL     OW47016   1.818   1.431   0.316
81728SOL    HW147017   1.783   1.491   0.383
81728SOL    HW247018   1.902   1.469   0.292
81729SOL     OW47019  10.476   9.161   9.079
81729SOL    HW147020  10.479   9.253   9.052
81729SOL    HW247021  10.567   9.139   9.101
81730SOL     OW47022   8.195  10.533   9.122
81730SOL    HW147023   8.179  10.626   9.105
81730SOL    HW247024   8.165  10.488   9.043
81731SOL     OW47025  14.624   1.468  10.726
81731SOL    HW147026  14.592   1.433  10.809
81731SOL    HW247027  14.572   1.422  10.660
81732SOL     OW47028   1.186   1.575  12.607
81732SOL    HW147029   1.219   1.653  12.651
81732SOL    HW247030   1.092   1.590  12.599
81733SOL     OW47031   0.285   2.274   4.084
81733SOL    HW147032   0.229   2.196   4.083
81733SOL    HW247033   0.297   2.296   3.992
81734SOL     OW47034   4.372   3.457   1.877
81734SOL    HW147035   4.404   3.547   1.884
81734SOL    HW247036   4.426   3.408   1.940
81735SOL     OW47037   0.358   0.550   1.645
81735SOL    HW147038   0.310   0.471   1.672
81735SOL    HW247039   0.297   0.596   1.587
81736SOL     OW47040   0.676   8.780  12.328
81736SOL    HW147041   0.736   8.812  12.261
81736SOL    HW247042   0.687   8.841  12.401
81737SOL     OW47043   2.725  12.879   9.343
81737SOL    HW147044   2.767  12.963   9.361
81737SOL    HW247045   2.684  12.854   9.426
81738SOL     OW47046   1.640   0.357   3.622
81738SOL    HW147047   1.564   0.414   3.633
81738SOL    HW247048   1.642   0.304   3.702
81739SOL     OW47049   6.634  11.880  11.300
81739SOL    HW147050   6.718  11.833  11.304
81739SOL    HW247051   6.658  11.967  11.268
81740SOL     OW47052  12.581   5.768   8.605
81740SOL    HW147053  12.524   5.749   8.531
81740SOL    HW247054  12.550   5.711   8.675
81741SOL     OW47055   0.342   9.437   5.613
81741SOL    HW147056   0.323   9.387   5.534
81741SOL    HW247057   0.266   9.425   5.669
81742SOL     OW47058  14.611  10.056   1.863
81742SOL    HW147059  14.678   9.989   1.875
81742SOL    HW247060  14.660  10.139   1.861
81743SOL     OW47061   4.148   4.615   3.902
81743SOL    HW147062   4.200   4.557   3.846
81743SOL    HW247063   4.058   4.582   3.894
81744SOL     OW47064  11.387  10.580   8.857
81744SOL    HW147065  11.358  10.667   8.885
81744SOL    HW247066  11.306  10.534   8.833
81745SOL     OW47067   2.232  12.489   2.439
81745SOL    HW147068   2.239  12.548   2.514
81745SOL    HW247069   2.138  12.475   2.428
81746SOL     OW47070   9.063   7.914  10.346
81746SOL    HW147071   8.981   7.893  10.392
81746SOL    HW247072   9.052   7.878  10.259
81747SOL     OW47073   0.707   1.394  10.477
81747SOL    HW147074   0.654   1.399  10.397
81747SOL    HW247075   0.645   1.412  10.547
81748SOL     OW47076  12.869  11.381   5.191
81748SOL    HW147077  12.945  11.430   5.222
81748SOL    HW247078  12.892  11.356   5.101
81749SOL     OW47079   3.162  13.734  11.872
81749SOL    HW147080   3.119  13.648  11.878
81749SOL    HW247081   3.149  13.774  11.958
81750SOL     OW47082  12.892  13.165  12.959
81750SOL    HW147083  12.853  13.237  12.910
81750SOL    HW247084  12.907  13.097  12.892
81751SOL     OW47085   4.045   2.934   2.732
81751SOL    HW147086   4.113   2.913   2.796
81751SOL    HW247087   3.986   2.994   2.779
81752SOL     OW47088  10.193   8.785   2.105
81752SOL    HW147089  10.208   8.734   2.026
81752SOL    HW247090  10.210   8.724   2.177
81753SOL     OW47091  11.295  12.064   8.253
81753SOL    HW147092  11.334  12.034   8.171
81753SOL    HW247093  11.211  12.017   8.258
81754SOL     OW47094  10.639  12.153   1.928
81754SOL    HW147095  10.651  12.240   1.966
81754SOL    HW247096  10.572  12.165   1.860
81755SOL     OW47097   1.075  13.903   4.041
81755SOL    HW147098   1.155  13.912   3.990
81755SOL    HW247099   1.007  13.883   3.976
81756SOL     OW47100   5.447   4.775   0.393
81756SOL    HW147101   5.484   4.858   0.423
81756SOL    HW247102   5.460   4.775   0.299
81757SOL     OW47103   3.722  14.004   3.542
81757SOL    HW147104   3.688  14.045   3.463
81757SOL    HW247105   3.646  13.958   3.579
81758SOL     OW47106   4.475   1.782  13.632
81758SOL    HW147107   4.410   1.717  13.656
81758SOL    HW247108   4.524   1.799  13.713
81759SOL     OW47109  12.824   9.846   7.775
81759SOL    HW147110  12.751   9.906   7.787
81759SOL    HW247111  12.826   9.829   7.681
81760SOL     OW47112  11.726  12.973   8.955
81760SOL    HW147113  11.692  12.886   8.977
81760SOL    HW247114  11.815  12.973   8.989
81761SOL     OW47115   6.215   4.756  10.835
81761SOL    HW147116   6.268   4.731  10.760
81761SOL    HW247117   6.272   4.742  10.911
81762SOL     OW47118   3.970   2.325   7.548
81762SOL    HW147119   3.902   2.381   7.510
81762SOL    HW247120   3.922   2.264   7.603
81763SOL     OW47121   3.610   6.100   6.946
81763SOL    HW147122   3.627   6.063   7.032
81763SOL    HW247123   3.644   6.035   6.884
81764SOL     OW47124   5.221   8.673   7.239
81764SOL    HW147125   5.297   8.670   7.181
81764SOL    HW247126   5.148   8.643   7.185
81765SOL     OW47127   6.891   4.064   4.547
81765SOL    HW147128   6.960   4.043   4.484
81765SOL    HW247129   6.921   4.026   4.629
81766SOL     OW47130  12.057   9.768  11.645
81766SOL    HW147131  12.047   9.688  11.594
81766SOL    HW247132  11.989   9.763  11.711
81767SOL     OW47133   4.939   5.531   1.391
81767SOL    HW147134   5.005   5.462   1.395
81767SOL    HW247135   4.958   5.587   1.466
81768SOL     OW47136   8.074   7.216   1.769
81768SOL    HW147137   8.153   7.262   1.797
81768SOL    HW247138   8.002   7.272   1.799
81769SOL     OW47139   4.655   8.511   0.406
81769SOL    HW147140   4.683   8.565   0.480
81769SOL    HW247141   4.662   8.569   0.330
81770SOL     OW47142   7.926  10.823   8.899
81770SOL    HW147143   7.940  10.864   8.814
81770SOL    HW247144   8.014  10.807   8.933
81771SOL     OW47145   5.516   3.553  12.575
81771SOL    HW147146   5.550   3.463  12.575
81771SOL    HW247147   5.570   3.599  12.638
81772SOL     OW47148  13.345  10.496   1.630
81772SOL    HW147149  13.427  10.492   1.678
81772SOL    HW247150  13.317  10.405   1.621
81773SOL     OW47151  13.789   8.823   9.715
81773SOL    HW147152  13.811   8.875   9.638
81773SOL    HW247153  13.858   8.842   9.778
81774SOL     OW47154   5.875  13.710   6.250
81774SOL    HW147155   5.792  13.672   6.221
81774SOL    HW247156   5.861  13.734   6.342
81775SOL     OW47157   2.330  11.512   9.597
81775SOL    HW147158   2.323  11.469   9.682
81775SOL    HW247159   2.409  11.474   9.558
81776SOL     OW47160  11.515   8.485   4.850
81776SOL    HW147161  11.588   8.466   4.909
81776SOL    HW247162  11.542   8.564   4.803
81777SOL     OW47163   0.465   0.075   4.249
81777SOL    HW147164   0.449   0.161   4.210
81777SOL    HW247165   0.473   0.015   4.175
81778SOL     OW47166   7.129   4.344  14.594
81778SOL    HW147167   7.103   4.364  14.684
81778SOL    HW247168   7.070   4.396  14.540
81779SOL     OW47169  11.928   1.767  10.589
81779SOL    HW147170  11.851   1.787  10.642
81779SOL    HW247171  11.936   1.672  10.593
81780SOL     OW47172   8.454   8.196   4.332
81780SOL    HW147173   8.376   8.252   4.333
81780SOL    HW247174   8.445   8.142   4.410
81781SOL     OW47175  13.381  13.513   2.030
81781SOL    HW147176  13.293  13.485   2.053
81781SOL    HW247177  13.383  13.512   1.934
81782SOL     OW47178   2.921   4.216  12.115
81782SOL    HW147179   2.830   4.189  12.127
81782SOL    HW247180   2.972   4.137  12.134
81783SOL     OW47181   8.466   9.644   0.477
81783SOL    HW147182   8.519   9.723   0.492
81783SOL    HW247183   8.522   9.572   0.505
81784SOL     OW47184  10.664  13.330  12.174
81784SOL    HW147185  10.579  13.340  12.217
81784SOL    HW247186  10.711  13.268  12.230
81785SOL     OW47187   3.430   1.745   0.502
81785SOL    HW147188   3.468   1.693   0.432
81785SOL    HW247189   3.464   1.833   0.489
81786SOL     OW47190   9.272  10.497  12.515
81786SOL    HW147191   9.256  10.514  12.608
81786SOL    HW247192   9.194  10.449  12.486
81787SOL     OW47193   6.281  11.771   8.403
81787SOL    HW147194   6.305  11.712   8.332
81787SOL    HW247195   6.347  11.755   8.471
81788SOL     OW47196  13.281  12.127   4.541
81788SOL    HW147197  13.193  12.157   4.520
81788SOL    HW247198  13.338  12.175   4.481
81789SOL     OW47199   7.084   1.590   9.352
81789SOL    HW147200   7.037   1.660   9.397
81789SOL    HW247201   7.019   1.520   9.344
81790SOL     OW47202  10.398   7.655   5.244
81790SOL    HW147203  10.413   7.698   5.160
81790SOL    HW247204  10.314   7.611   5.234
81791SOL     OW47205   4.774  13.314  12.426
81791SOL    HW147206   4.779  13.393  12.373
81791SOL    HW247207   4.681  13.302  12.444
81792SOL     OW47208   3.229   9.472   7.833
81792SOL    HW147209   3.268   9.385   7.831
81792SOL    HW247210   3.302   9.531   7.851
81793SOL     OW47211   9.455   0.541  10.418
81793SOL    HW147212   9.487   0.565  10.504
81793SOL    HW247213   9.510   0.467  10.392
81794SOL     OW47214  12.034  14.435   2.010
81794SOL    HW147215  12.099  14.464   1.945
81794SOL    HW247216  11.959  14.493   1.996
81795SOL     OW47217   7.276   5.052   9.282
81795SOL    HW147218   7.259   5.088   9.195
81795SOL    HW247219   7.219   4.976   9.289
81796SOL     OW47220  14.209   3.576  13.124
81796SOL    HW147221  14.123   3.563  13.084
81796SOL    HW247222  14.212   3.512  13.195
81797SOL     OW47223   8.702  13.530   1.978
81797SOL    HW147224   8.751  13.448   1.972
81797SOL    HW247225   8.714  13.558   2.069
81798SOL     OW47226  11.014  10.399   8.455
81798SOL    HW147227  10.951  10.333   8.426
81798SOL    HW247228  10.967  10.450   8.521
81799SOL     OW47229   6.839   5.442   0.611
81799SOL    HW147230   6.904   5.388   0.657
81799SOL    HW247231   6.873   5.532   0.618
81800SOL     OW47232   1.372  12.115  10.314
81800SOL    HW147233   1.332  12.116  10.227
81800SOL    HW247234   1.382  12.022  10.335
81801SOL     OW47235  10.747   4.001   9.761
81801SOL    HW147236  10.814   4.063   9.789
81801SOL    HW247237  10.672   4.057   9.738
81802SOL     OW47238  13.700   1.150   5.098
81802SOL    HW147239  13.628   1.186   5.047
81802SOL    HW247240  13.667   1.147   5.188
81803SOL     OW47241  10.641  11.744  11.637
81803SOL    HW147242  10.730  11.715  11.657
81803SOL    HW247243  10.625  11.714  11.548
81804SOL     OW47244   6.527  11.324   8.179
81804SOL    HW147245   6.439  11.294   8.157
81804SOL    HW247246   6.570  11.337   8.095
81805SOL     OW47247  14.860   6.788   9.126
81805SOL    HW147248  14.800   6.860   9.110
81805SOL    HW247249  14.835   6.754   9.213
81806SOL     OW47250  10.662   3.861   7.291
81806SOL    HW147251  10.597   3.793   7.310
81806SOL    HW247252  10.745   3.813   7.286
81807SOL     OW47253   0.186  11.095   3.721
81807SOL    HW147254   0.211  11.034   3.652
81807SOL    HW247255   0.161  11.040   3.795
81808SOL     OW47256   9.404   9.328   4.665
81808SOL    HW147257   9.360   9.347   4.748
81808SOL    HW247258   9.484   9.381   4.667
81809SOL     OW47259   3.934   7.699  11.994
81809SOL    HW147260   3.998   7.669  11.929
81809SOL    HW247261   3.851   7.661  11.966
81810SOL     OW47262  12.140  10.455   8.781
81810SOL    HW147263  12.128  10.409   8.864
81810SOL    HW247264  12.220  10.507   8.794
81811SOL     OW47265   0.898  11.892   1.940
81811SOL    HW147266   0.923  11.940   1.861
81811SOL    HW247267   0.861  11.810   1.908
81812SOL     OW47268   1.934   0.128  11.699
81812SOL    HW147269   1.982   0.123  11.616
81812SOL    HW247270   1.985   0.074  11.760
81813SOL     OW47271   2.247   8.898   4.193
81813SOL    HW147272   2.161   8.886   4.154
81813SOL    HW247273   2.289   8.812   4.185
81814SOL     OW47274   2.731   2.098   1.041
81814SOL    HW147275   2.778   2.166   0.992
81814SOL    HW247276   2.640   2.126   1.039
81815SOL     OW47277   2.443  13.677   1.691
81815SOL    HW147278   2.499  13.723   1.629
81815SOL    HW247279   2.360  13.726   1.689
81816SOL     OW47280   7.461   6.514   3.625
81816SOL    HW147281   7.424   6.427   3.612
81816SOL    HW247282   7.542   6.513   3.574
81817SOL     OW47283  12.927   3.925   1.741
81817SOL    HW147284  12.991   3.901   1.809
81817SOL    HW247285  12.899   4.014   1.765
81818SOL     OW47286   7.386   1.561  14.651
81818SOL    HW147287   7.419   1.595  14.568
81818SOL    HW247288   7.296   1.595  14.657
81819SOL     OW47289  13.745   3.425   2.515
81819SOL    HW147290  13.678   3.471   2.464
81819SOL    HW247291  13.815   3.489   2.526
81820SOL     OW47292   5.627   0.413   6.281
81820SOL    HW147293   5.690   0.436   6.213
81820SOL    HW247294   5.545   0.453   6.252
81821SOL     OW47295  12.755  14.602  10.681
81821SOL    HW147296  12.689  14.615  10.613
81821SOL    HW247297  12.782  14.511  10.671
81822SOL     OW47298   4.139   5.564  14.587
81822SOL    HW147299   4.069   5.557  14.652
81822SOL    HW247300   4.114   5.504  14.517
81823SOL     OW47301   2.797   2.561   4.397
81823SOL    HW147302   2.704   2.538   4.404
81823SOL    HW247303   2.828   2.514   4.320
81824SOL     OW47304  14.045  12.244  12.147
81824SOL    HW147305  14.140  12.239  12.145
81824SOL    HW247306  14.020  12.197  12.227
81825SOL     OW47307   1.136   5.231   8.563
81825SOL    HW147308   1.079   5.306   8.544
81825SOL    HW247309   1.116   5.210   8.654
81826SOL     OW47310   9.265  11.300  12.896
81826SOL    HW147311   9.169  11.301  12.890
81826SOL    HW247312   9.290  11.392  12.889
81827SOL     OW47313   3.208   0.703  14.314
81827SOL    HW147314   3.285   0.755  14.336
81827SOL    HW247315   3.199   0.714  14.219
81828SOL     OW47316  13.451  10.869   3.305
81828SOL    HW147317  13.526  10.817   3.333
81828SOL    HW247318  13.471  10.958   3.335
81829SOL     OW47319   0.649   0.906  12.976
81829SOL    HW147320   0.678   0.861  12.896
81829SOL    HW247321   0.650   0.999  12.953
81830SOL     OW47322  12.819   6.331   3.343
81830SOL    HW147323  12.801   6.393   3.414
81830SOL    HW247324  12.751   6.349   3.278
81831SOL     OW47325   1.173   2.391   7.115
81831SOL    HW147326   1.248   2.362   7.167
81831SOL    HW247327   1.199   2.477   7.082
81832SOL     OW47328  11.319   9.970   0.530
81832SOL    HW147329  11.253   9.929   0.474
81832SOL    HW247330  11.315  10.063   0.508
81833SOL     OW47331   3.445   7.238   9.288
81833SOL    HW147332   3.413   7.236   9.198
81833SOL    HW247333   3.466   7.147   9.309
81834SOL     OW47334   5.661   9.913   2.344
81834SOL    HW147335   5.604   9.988   2.324
81834SOL    HW247336   5.668   9.914   2.440
81835SOL     OW47337   7.408   3.824   6.533
81835SOL    HW147338   7.336   3.768   6.560
81835SOL    HW247339   7.437   3.787   6.449
81836SOL     OW47340  14.183  10.892  11.669
81836SOL    HW147341  14.148  10.948  11.600
81836SOL    HW247342  14.252  10.945  11.709
81837SOL     OW47343  12.875  12.195   4.900
81837SOL    HW147344  12.879  12.179   4.806
81837SOL    HW247345  12.810  12.265   4.909
81838SOL     OW47346   6.531   3.987   6.257
81838SOL    HW147347   6.562   3.898   6.239
81838SOL    HW247348   6.591   4.044   6.209
81839SOL     OW47349  10.473   7.599  10.528
81839SOL    HW147350  10.470   7.598  10.624
81839SOL    HW247351  10.500   7.688  10.505
81840SOL     OW47352   0.543   7.305   4.541
81840SOL    HW147353   0.571   7.395   4.524
81840SOL    HW247354   0.481   7.313   4.614
81841SOL     OW47355   4.455  14.716   6.048
81841SOL    HW147356   4.415  14.646   6.098
81841SOL    HW247357   4.545  14.686   6.031
81842SOL     OW47358   1.561   6.225   1.640
81842SOL    HW147359   1.501   6.192   1.707
81842SOL    HW247360   1.621   6.152   1.623
81843SOL     OW47361   5.114   4.009  14.182
81843SOL    HW147362   5.186   4.072  14.172
81843SOL    HW247363   5.061   4.021  14.103
81844SOL     OW47364  11.614  13.798  10.859
81844SOL    HW147365  11.595  13.706  10.877
81844SOL    HW247366  11.703  13.811  10.894
81845SOL     OW47367   1.763  13.221   7.033
81845SOL    HW147368   1.700  13.273   7.082
81845SOL    HW247369   1.832  13.282   7.010
81846SOL     OW47370   9.569   9.143   6.977
81846SOL    HW147371   9.491   9.120   6.926
81846SOL    HW247372   9.638   9.152   6.912
81847SOL     OW47373   4.697   1.361  12.918
81847SOL    HW147374   4.740   1.410  12.988
81847SOL    HW247375   4.648   1.292  12.963
81848SOL     OW47376   6.150  11.291   9.839
81848SOL    HW147377   6.199  11.256   9.913
81848SOL    HW247378   6.197  11.258   9.762
81849SOL     OW47379   4.089   5.846   5.152
81849SOL    HW147380   4.103   5.830   5.059
81849SOL    HW247381   4.026   5.779   5.179
81850SOL     OW47382   6.371   5.256   5.204
81850SOL    HW147383   6.415   5.177   5.237
81850SOL    HW247384   6.278   5.238   5.214
81851SOL     OW47385  10.565  11.172   0.608
81851SOL    HW147386  10.487  11.117   0.614
81851SOL    HW247387  10.619  11.129   0.542
81852SOL     OW47388   9.448   8.286   0.358
81852SOL    HW147389   9.439   8.382   0.363
81852SOL    HW247390   9.375   8.258   0.302
81853SOL     OW47391   2.419   3.977  12.497
81853SOL    HW147392   2.330   4.001  12.524
81853SOL    HW247393   2.407   3.929  12.415
81854SOL     OW47394   7.115   0.047   4.413
81854SOL    HW147395   7.026   0.079   4.431
81854SOL    HW247396   7.145   0.099   4.339
81855SOL     OW47397   5.352  14.011   0.477
81855SOL    HW147398   5.368  13.920   0.452
81855SOL    HW247399   5.256  14.017   0.484
81856SOL     OW47400   9.111  14.483   8.965
81856SOL    HW147401   9.108  14.425   8.889
81856SOL    HW247402   9.204  14.500   8.978
81857SOL     OW47403   0.836   5.266  13.660
81857SOL    HW147404   0.839   5.198  13.592
81857SOL    HW247405   0.742   5.279  13.675
81858SOL     OW47406  13.115   0.093   1.635
81858SOL    HW147407  13.057   0.065   1.706
81858SOL    HW247408  13.185   0.028   1.635
81859SOL     OW47409   1.879   9.372   1.570
81859SOL    HW147410   1.831   9.362   1.488
81859SOL    HW247411   1.946   9.304   1.568
81860SOL     OW47412  10.870   4.888  10.597
81860SOL    HW147413  10.852   4.820  10.532
81860SOL    HW247414  10.966   4.893  10.601
81861SOL     OW47415  10.783  14.725  12.084
81861SOL    HW147416  10.864  14.678  12.066
81861SOL    HW247417  10.749  14.749  11.998
81862SOL     OW47418   8.741   2.668   0.001
81862SOL    HW147419   8.649   2.643  14.872
81862SOL    HW247420   8.739   2.760   0.029
81863SOL     OW47421   0.804   5.845  11.328
81863SOL    HW147422   0.845   5.759  11.339
81863SOL    HW247423   0.775   5.847  11.237
81864SOL     OW47424   6.312   1.902  14.276
81864SOL    HW147425   6.311   1.869  14.365
81864SOL    HW247426   6.293   1.996  14.285
81865SOL     OW47427   8.860  11.920  12.720
81865SOL    HW147428   8.788  11.862  12.694
81865SOL    HW247429   8.934  11.862  12.735
81866SOL     OW47430   1.289   6.171  10.227
81866SOL    HW147431   1.344   6.106  10.183
81866SOL    HW247432   1.268   6.235  10.160
81867SOL     OW47433   9.503   4.684   1.947
81867SOL    HW147434   9.527   4.619   1.881
81867SOL    HW247435   9.562   4.757   1.930
81868SOL     OW47436  10.475   2.164  13.617
81868SOL    HW147437  10.510   2.125  13.697
81868SOL    HW247438  10.551   2.205  13.575
81869SOL     OW47439  12.902   3.876   4.377
81869SOL    HW147440  12.890   3.968   4.400
81869SOL    HW247441  12.816   3.837   4.387
81870SOL     OW47442   6.902   8.157   7.858
81870SOL    HW147443   6.881   8.140   7.766
81870SOL    HW247444   6.946   8.078   7.889
81871SOL     OW47445  12.078   1.696  12.214
81871SOL    HW147446  12.021   1.769  12.191
81871SOL    HW247447  12.025   1.641  12.270
81872SOL     OW47448   5.035   3.883  10.945
81872SOL    HW147449   5.006   3.806  10.993
81872SOL    HW247450   5.005   3.868  10.856
81873SOL     OW47451   2.288   1.018  12.077
81873SOL    HW147452   2.236   1.010  12.157
81873SOL    HW247453   2.377   1.038  12.109
81874SOL     OW47454   1.065   9.295   8.042
81874SOL    HW147455   1.149   9.252   8.024
81874SOL    HW247456   1.000   9.236   8.006
81875SOL     OW47457  11.488   6.384  11.241
81875SOL    HW147458  11.521   6.334  11.166
81875SOL    HW247459  11.429   6.449  11.202
81876SOL     OW47460   1.667   7.964  10.705
81876SOL    HW147461   1.651   7.871  10.686
81876SOL    HW247462   1.583   7.996  10.738
81877SOL     OW47463  13.277   2.879  11.559
81877SOL    HW147464  13.265   2.784  11.554
81877SOL    HW247465  13.347   2.891  11.623
81878SOL     OW47466   9.668   7.414   0.366
81878SOL    HW147467   9.729   7.377   0.429
81878SOL    HW247468   9.606   7.464   0.419
81879SOL     OW47469   8.100   6.555   5.177
81879SOL    HW147470   8.087   6.493   5.106
81879SOL    HW247471   8.194   6.554   5.193
81880SOL     OW47472   1.126   8.952   6.375
81880SOL    HW147473   1.107   9.016   6.444
81880SOL    HW247474   1.075   8.875   6.399
81881SOL     OW47475   6.354  10.499   4.026
81881SOL    HW147476   6.350  10.414   4.068
81881SOL    HW247477   6.445  10.508   4.000
81882SOL     OW47478   7.955   9.499  14.632
81882SOL    HW147479   7.893   9.567  14.659
81882SOL    HW247480   7.989   9.464  14.714
81883SOL     OW47481   2.646  13.228   9.766
81883SOL    HW147482   2.651  13.199   9.857
81883SOL    HW247483   2.737  13.231   9.737
81884SOL     OW47484   8.390   4.739   6.439
81884SOL    HW147485   8.395   4.679   6.364
81884SOL    HW247486   8.315   4.796   6.419
81885SOL     OW47487   8.750   8.375   1.056
81885SOL    HW147488   8.822   8.312   1.056
81885SOL    HW247489   8.789   8.457   1.088
81886SOL     OW47490   0.989   2.665   2.637
81886SOL    HW147491   0.959   2.750   2.604
81886SOL    HW247492   0.910   2.612   2.641
81887SOL     OW47493  12.063   6.029  12.790
81887SOL    HW147494  11.979   6.029  12.836
81887SOL    HW247495  12.128   6.020  12.858
81888SOL     OW47496   5.751   6.008  14.086
81888SOL    HW147497   5.809   6.071  14.044
81888SOL    HW247498   5.663   6.039  14.067
81889SOL     OW47499   7.208   6.934   8.940
81889SOL    HW147500   7.185   6.956   8.850
81889SOL    HW247501   7.157   6.996   8.993
81890SOL     OW47502   6.738  12.351   8.990
81890SOL    HW147503   6.779  12.308   9.065
81890SOL    HW247504   6.646  12.327   8.997
81891SOL     OW47505  13.658   6.816   5.982
81891SOL    HW147506  13.647   6.829   5.888
81891SOL    HW247507  13.603   6.882   6.022
81892SOL     OW47508   4.366  10.091   1.087
81892SOL    HW147509   4.280  10.068   1.052
81892SOL    HW247510   4.416  10.009   1.083
81893SOL     OW47511   4.800  11.139  12.672
81893SOL    HW147512   4.713  11.163  12.639
81893SOL    HW247513   4.819  11.055  12.632
81894SOL     OW47514  11.785   7.479  11.658
81894SOL    HW147515  11.756   7.414  11.721
81894SOL    HW247516  11.746   7.452  11.575
81895SOL     OW47517   3.921   0.514  13.738
81895SOL    HW147518   3.840   0.503  13.787
81895SOL    HW247519   3.917   0.447  13.670
81896SOL     OW47520  14.122  11.363   3.209
81896SOL    HW147521  14.051  11.300   3.220
81896SOL    HW247522  14.086  11.429   3.149
81897SOL     OW47523  11.995   7.366   1.476
81897SOL    HW147524  12.056   7.294   1.458
81897SOL    HW247525  12.011   7.428   1.406
81898SOL     OW47526   1.536  12.843   5.483
81898SOL    HW147527   1.599  12.779   5.450
81898SOL    HW247528   1.458  12.828   5.430
81899SOL     OW47529   7.066   7.223   4.996
81899SOL    HW147530   7.027   7.240   5.081
81899SOL    HW247531   7.137   7.161   5.014
81900SOL     OW47532   6.952  12.237  10.572
81900SOL    HW147533   6.865  12.199  10.579
81900SOL    HW247534   6.989  12.198  10.493
81901SOL     OW47535   5.990   1.976   4.680
81901SOL    HW147536   6.042   2.025   4.744
81901SOL    HW247537   6.054   1.925   4.631
81902SOL     OW47538  12.091  13.863   1.336
81902SOL    HW147539  12.176  13.902   1.315
81902SOL    HW247540  12.096  13.843   1.429
81903SOL     OW47541  11.408  10.498   1.037
81903SOL    HW147542  11.382  10.570   0.980
81903SOL    HW247543  11.464  10.444   0.981
81904SOL     OW47544  11.273  12.559   5.179
81904SOL    HW147545  11.304  12.519   5.261
81904SOL    HW247546  11.352  12.569   5.126
81905SOL     OW47547   6.437  11.630   3.644
81905SOL    HW147548   6.433  11.617   3.739
81905SOL    HW247549   6.463  11.545   3.609
81906SOL     OW47550   1.959  14.008   4.684
81906SOL    HW147551   2.054  13.991   4.681
81906SOL    HW247552   1.937  14.005   4.777
81907SOL     OW47553   9.420   8.584   9.569
81907SOL    HW147554   9.330   8.606   9.547
81907SOL    HW247555   9.464   8.575   9.485
81908SOL     OW47556  10.679   7.299   7.147
81908SOL    HW147557  10.710   7.379   7.103
81908SOL    HW247558  10.747   7.235   7.129
81909SOL     OW47559   0.640   3.845  13.116
81909SOL    HW147560   0.606   3.837  13.205
81909SOL    HW247561   0.621   3.760  13.075
81910SOL     OW47562   2.643  10.774   8.787
81910SOL    HW147563   2.580  10.731   8.844
81910SOL    HW247564   2.602  10.773   8.700
81911SOL     OW47565   1.513   9.629  13.038
81911SOL    HW147566   1.540   9.696  12.975
81911SOL    HW247567   1.594   9.602  13.081
81912SOL     OW47568   6.178   0.687   8.765
81912SOL    HW147569   6.088   0.677   8.796
81912SOL    HW247570   6.212   0.762   8.813
81913SOL     OW47571  13.901   2.987   4.646
81913SOL    HW147572  13.946   2.975   4.730
81913SOL    HW247573  13.819   3.032   4.670
81914SOL     OW47574   0.290   4.591   1.348
81914SOL    HW147575   0.275   4.577   1.255
81914SOL    HW247576   0.369   4.645   1.351
81915SOL     OW47577   3.081   4.670   3.264
81915SOL    HW147578   3.022   4.594   3.264
81915SOL    HW247579   3.169   4.633   3.267
81916SOL     OW47580   8.685   0.917   4.867
81916SOL    HW147581   8.616   0.866   4.824
81916SOL    HW247582   8.641   0.997   4.895
81917SOL     OW47583   1.209  13.860   0.978
81917SOL    HW147584   1.202  13.777   1.025
81917SOL    HW247585   1.147  13.852   0.906
81918SOL     OW47586  10.993  12.125  10.079
81918SOL    HW147587  11.033  12.052  10.126
81918SOL    HW247588  10.919  12.087  10.033
81919SOL     OW47589   3.978   9.237   5.864
81919SOL    HW147590   3.912   9.168   5.872
81919SOL    HW247591   4.040   9.203   5.800
81920SOL     OW47592  14.263   3.130   0.034
81920SOL    HW147593  14.244   3.057  14.854
81920SOL    HW247594  14.330   3.096   0.094
81921SOL     OW47595   9.956   5.317   0.005
81921SOL    HW147596   9.878   5.293  14.834
81921SOL    HW247597   9.966   5.411  14.870
81922SOL     OW47598   8.956  11.957   4.056
81922SOL    HW147599   8.969  12.043   4.016
81922SOL    HW247600   8.896  11.911   3.997
81923SOL     OW47601  10.802   8.721   4.821
81923SOL    HW147602  10.748   8.779   4.874
81923SOL    HW247603  10.882   8.771   4.804
81924SOL     OW47604   2.383   3.013  14.141
81924SOL    HW147605   2.469   2.992  14.105
81924SOL    HW247606   2.400   3.028  14.234
81925SOL     OW47607   7.830  13.759   8.939
81925SOL    HW147608   7.789  13.719   9.016
81925SOL    HW247609   7.782  13.722   8.865
81926SOL     OW47610  14.834   7.738   1.791
81926SOL    HW147611  14.836   7.788   1.710
81926SOL    HW247612  14.741   7.721   1.806
81927SOL     OW47613   8.555   3.504   6.682
81927SOL    HW147614   8.515   3.444   6.745
81927SOL    HW247615   8.645   3.473   6.673
81928SOL     OW47616  10.835   7.784  13.322
81928SOL    HW147617  10.787   7.851  13.370
81928SOL    HW247618  10.927   7.802  13.340
81929SOL     OW47619   3.408   2.437   7.007
81929SOL    HW147620   3.335   2.380   6.986
81929SOL    HW247621   3.485   2.379   7.007
81930SOL     OW47622  10.940   4.905   2.263
81930SOL    HW147623  10.920   4.932   2.353
81930SOL    HW247624  11.004   4.835   2.273
81931SOL     OW47625   9.300  14.771   8.235
81931SOL    HW147626   9.335  14.855   8.204
81931SOL    HW247627   9.322  14.709   8.166
81932SOL     OW47628   8.464   3.074   5.462
81932SOL    HW147629   8.392   3.108   5.515
81932SOL    HW247630   8.489   3.146   5.405
81933SOL     OW47631   1.569   3.440   5.412
81933SOL    HW147632   1.605   3.358   5.446
81933SOL    HW247633   1.549   3.422   5.321
81934SOL     OW47634   9.310   9.229   6.196
81934SOL    HW147635   9.243   9.230   6.128
81934SOL    HW247636   9.363   9.152   6.175
81935SOL     OW47637  11.934   7.566   0.795
81935SOL    HW147638  12.014   7.603   0.757
81935SOL    HW247639  11.898   7.637   0.847
81936SOL     OW47640   7.012   2.056  14.639
81936SOL    HW147641   7.078   2.073  14.706
81936SOL    HW247642   6.938   2.019  14.687
81937SOL     OW47643  14.113   0.835   8.328
81937SOL    HW147644  14.176   0.905   8.313
81937SOL    HW247645  14.157   0.774   8.387
81938SOL     OW47646   4.685   5.829   6.349
81938SOL    HW147647   4.774   5.793   6.348
81938SOL    HW247648   4.662   5.832   6.442
81939SOL     OW47649   8.382   9.601  11.811
81939SOL    HW147650   8.397   9.602  11.717
81939SOL    HW247651   8.332   9.681  11.828
81940SOL     OW47652  12.068  13.411  13.410
81940SOL    HW147653  12.034  13.489  13.366
81940SOL    HW247654  12.064  13.342  13.344
81941SOL     OW47655  11.329   9.922  12.690
81941SOL    HW147656  11.306   9.955  12.777
81941SOL    HW247657  11.353   9.831  12.704
81942SOL     OW47658  12.034   4.584   3.606
81942SOL    HW147659  12.101   4.539   3.658
81942SOL    HW247660  12.070   4.586   3.517
81943SOL     OW47661   2.622   5.920   1.931
81943SOL    HW147662   2.569   5.970   1.870
81943SOL    HW247663   2.679   5.866   1.875
81944SOL     OW47664   4.706  10.985   7.929
81944SOL    HW147665   4.784  10.962   7.879
81944SOL    HW247666   4.737  11.049   7.993
81945SOL     OW47667  12.817   2.067   0.848
81945SOL    HW147668  12.851   2.135   0.905
81945SOL    HW247669  12.732   2.099   0.820
81946SOL     OW47670   4.920   2.788   2.210
81946SOL    HW147671   4.925   2.694   2.225
81946SOL    HW247672   4.995   2.808   2.154
81947SOL     OW47673   1.600   8.634   1.230
81947SOL    HW147674   1.522   8.678   1.263
81947SOL    HW247675   1.569   8.585   1.154
81948SOL     OW47676  12.197   8.917  11.534
81948SOL    HW147677  12.172   8.831  11.566
81948SOL    HW247678  12.293   8.917  11.537
81949SOL     OW47679  12.262  12.993  11.756
81949SOL    HW147680  12.291  13.073  11.711
81949SOL    HW247681  12.181  13.019  11.800
81950SOL     OW47682   6.275   8.010   1.023
81950SOL    HW147683   6.266   8.105   1.015
81950SOL    HW247684   6.333   7.998   1.098
81951SOL     OW47685   7.487  11.889   5.305
81951SOL    HW147686   7.548  11.962   5.291
81951SOL    HW247687   7.410  11.912   5.253
81952SOL     OW47688   2.829   1.284  11.769
81952SOL    HW147689   2.907   1.332  11.741
81952SOL    HW247690   2.839   1.276  11.864
81953SOL     OW47691  13.181   8.497   8.355
81953SOL    HW147692  13.251   8.561   8.360
81953SOL    HW247693  13.225   8.412   8.352
81954SOL     OW47694  11.466  13.752   9.744
81954SOL    HW147695  11.397  13.778   9.805
81954SOL    HW247696  11.444  13.795   9.662
81955SOL     OW47697  12.824   1.025   0.009
81955SOL    HW147698  12.845   0.954  14.828
81955SOL    HW247699  12.796   0.981   0.089
81956SOL     OW47700   9.998   7.464   5.737
81956SOL    HW147701  10.079   7.512   5.758
81956SOL    HW247702   9.996   7.393   5.800
81957SOL     OW47703   0.081  11.096   4.696
81957SOL    HW147704   0.069  11.188   4.720
81957SOL    HW247705   0.032  11.048   4.762
81958SOL     OW47706   4.323   1.914   2.382
81958SOL    HW147707   4.272   1.995   2.382
81958SOL    HW247708   4.367   1.914   2.297
81959SOL     OW47709   7.182   7.591   6.105
81959SOL    HW147710   7.126   7.667   6.090
81959SOL    HW247711   7.206   7.595   6.197
81960SOL     OW47712   9.198   9.065   5.650
81960SOL    HW147713   9.244   9.033   5.727
81960SOL    HW247714   9.266   9.076   5.584
81961SOL     OW47715   6.046   2.392   3.648
81961SOL    HW147716   6.060   2.314   3.703
81961SOL    HW247717   6.130   2.438   3.651
81962SOL     OW47718   0.248   1.904  11.514
81962SOL    HW147719   0.274   1.882  11.424
81962SOL    HW247720   0.248   1.820  11.560
81963SOL     OW47721   4.368   1.838  12.221
81963SOL    HW147722   4.391   1.925  12.187
81963SOL    HW247723   4.390   1.842  12.314
81964SOL     OW47724   3.681  12.805   6.067
81964SOL    HW147725   3.696  12.736   6.132
81964SOL    HW247726   3.670  12.757   5.984
81965SOL     OW47727   2.376  10.331   9.738
81965SOL    HW147728   2.304  10.299   9.793
81965SOL    HW247729   2.384  10.266   9.668
81966SOL     OW47730   7.974   3.812   4.861
81966SOL    HW147731   8.019   3.886   4.902
81966SOL    HW247732   7.946   3.757   4.933
81967SOL     OW47733  13.251   0.709  11.181
81967SOL    HW147734  13.298   0.641  11.133
81967SOL    HW247735  13.227   0.774  11.115
81968SOL     OW47736  10.029   6.289   5.693
81968SOL    HW147737   9.944   6.282   5.737
81968SOL    HW247738  10.030   6.378   5.658
81969SOL     OW47739   9.817   1.551   8.652
81969SOL    HW147740   9.889   1.569   8.592
81969SOL    HW247741   9.858   1.540   8.738
81970SOL     OW47742   3.626   3.855   1.613
81970SOL    HW147743   3.691   3.910   1.657
81970SOL    HW247744   3.676   3.778   1.585
81971SOL     OW47745   3.908   0.672  10.883
81971SOL    HW147746   3.952   0.709  10.807
81971SOL    HW247747   3.876   0.748  10.931
81972SOL     OW47748  12.979  13.874  13.468
81972SOL    HW147749  13.044  13.804  13.478
81972SOL    HW247750  12.916  13.839  13.405
81973SOL     OW47751   6.265  13.253   4.464
81973SOL    HW147752   6.242  13.303   4.386
81973SOL    HW247753   6.313  13.314   4.519
81974SOL     OW47754   5.601   5.904   4.310
81974SOL    HW147755   5.573   5.987   4.272
81974SOL    HW247756   5.594   5.917   4.404
81975SOL     OW47757   6.170  11.381   8.356
81975SOL    HW147758   6.161  11.458   8.300
81975SOL    HW247759   6.081  11.362   8.386
81976SOL     OW47760  10.093   9.326  11.906
81976SOL    HW147761  10.047   9.349  11.987
81976SOL    HW247762  10.024   9.300  11.845
81977SOL     OW47763  13.384   9.464   5.075
81977SOL    HW147764  13.436   9.524   5.022
81977SOL    HW247765  13.419   9.377   5.055
81978SOL     OW47766   7.274   9.789  14.672
81978SOL    HW147767   7.318   9.874  14.681
81978SOL    HW247768   7.200   9.806  14.614
81979SOL     OW47769  13.803   7.744   5.293
81979SOL    HW147770  13.886   7.717   5.253
81979SOL    HW247771  13.827   7.814   5.353
81980SOL     OW47772   2.353   8.488   0.500
81980SOL    HW147773   2.298   8.465   0.425
81980SOL    HW247774   2.424   8.423   0.498
81981SOL     OW47775   0.018   1.552   1.856
81981SOL    HW147776  14.860   1.619   1.797
81981SOL    HW247777  14.846   1.560   1.936
81982SOL     OW47778   0.815  10.999  14.691
81982SOL    HW147779   0.730  11.043  14.688
81982SOL    HW247780   0.804  10.932  14.759
81983SOL     OW47781  12.414  10.627  14.206
81983SOL    HW147782  12.403  10.593  14.117
81983SOL    HW247783  12.373  10.713  14.203
81984SOL     OW47784   2.895   3.586  11.201
81984SOL    HW147785   2.859   3.650  11.263
81984SOL    HW247786   2.818   3.540  11.167
81985SOL     OW47787  12.194   5.219  13.369
81985SOL    HW147788  12.235   5.159  13.430
81985SOL    HW247789  12.120   5.256  13.417
81986SOL     OW47790  13.427   4.450  11.901
81986SOL    HW147791  13.423   4.369  11.953
81986SOL    HW247792  13.391   4.517  11.958
81987SOL     OW47793  13.498   2.545   7.760
81987SOL    HW147794  13.583   2.574   7.794
81987SOL    HW247795  13.489   2.593   7.677
81988SOL     OW47796  12.112   9.869  11.284
81988SOL    HW147797  12.183   9.845  11.225
81988SOL    HW247798  12.156   9.887  11.368
81989SOL     OW47799  11.326   6.976  13.379
81989SOL    HW147800  11.310   7.069  13.396
81989SOL    HW247801  11.244   6.932  13.400
81990SOL     OW47802   1.419  13.829  11.912
81990SOL    HW147803   1.486  13.772  11.950
81990SOL    HW247804   1.347  13.826  11.974
81991SOL     OW47805   9.666   2.203   4.763
81991SOL    HW147806   9.743   2.261   4.763
81991SOL    HW247807   9.611   2.237   4.693
81992SOL     OW47808   0.908  12.645   6.189
81992SOL    HW147809   0.869  12.721   6.233
81992SOL    HW247810   0.948  12.595   6.260
81993SOL     OW47811   5.851   6.399   2.278
81993SOL    HW147812   5.931   6.423   2.325
81993SOL    HW247813   5.793   6.364   2.346
81994SOL     OW47814   2.479  13.754   3.590
81994SOL    HW147815   2.441  13.684   3.642
81994SOL    HW247816   2.525  13.809   3.654
81995SOL     OW47817   9.595  10.794  13.413
81995SOL    HW147818   9.633  10.879  13.390
81995SOL    HW247819   9.543  10.769  13.336
81996SOL     OW47820   0.541  14.103   3.312
81996SOL    HW147821   0.480  14.041   3.272
81996SOL    HW247822   0.500  14.189   3.302
81997SOL     OW47823  14.460   9.162   3.703
81997SOL    HW147824  14.441   9.229   3.636
81997SOL    HW247825  14.379   9.154   3.753
81998SOL     OW47826   5.029  13.894   3.325
81998SOL    HW147827   5.051  13.841   3.248
81998SOL    HW247828   5.005  13.829   3.391
81999SOL     OW47829   3.139   6.283   9.087
81999SOL    HW147830   3.191   6.354   9.125
81999SOL    HW247831   3.093   6.323   9.014
82000SOL     OW47832   0.455  11.656   6.531
82000SOL    HW147833   0.457  11.653   6.435
82000SOL    HW247834   0.373  11.613   6.555
82001SOL     OW47835   4.104   5.839   7.347
82001SOL    HW147836   4.113   5.894   7.425
82001SOL    HW247837   4.095   5.901   7.275
82002SOL     OW47838  13.544   8.667   8.794
82002SOL    HW147839  13.576   8.659   8.884
82002SOL    HW247840  13.566   8.757   8.769
82003SOL     OW47841   4.942  13.403  13.750
82003SOL    HW147842   4.953  13.389  13.844
82003SOL    HW247843   4.996  13.335  13.709
82004SOL     OW47844   1.180  11.005   6.211
82004SOL    HW147845   1.158  10.915   6.187
82004SOL    HW247846   1.133  11.059   6.148
82005SOL     OW47847   6.817   0.060  10.564
82005SOL    HW147848   6.731   0.025  10.588
82005SOL    HW247849   6.797   0.135  10.508
82006SOL     OW47850   6.325   0.575   7.256
82006SOL    HW147851   6.332   0.497   7.311
82006SOL    HW247852   6.301   0.645   7.317
82007SOL     OW47853  11.601  12.730   7.435
82007SOL    HW147854  11.530  12.676   7.400
82007SOL    HW247855  11.567  12.819   7.433
82008SOL     OW47856   8.397   4.999   1.492
82008SOL    HW147857   8.340   4.927   1.468
82008SOL    HW247858   8.337   5.069   1.520
82009SOL     OW47859   6.792   1.004  11.150
82009SOL    HW147860   6.838   0.994  11.234
82009SOL    HW247861   6.785   1.098  11.138
82010SOL     OW47862   7.735   0.368   9.343
82010SOL    HW147863   7.829   0.360   9.361
82010SOL    HW247864   7.718   0.302   9.276
82011SOL     OW47865   5.992   2.216   1.896
82011SOL    HW147866   5.977   2.309   1.913
82011SOL    HW247867   5.983   2.174   1.982
82012SOL     OW47868  11.877  13.202   1.752
82012SOL    HW147869  11.819  13.135   1.789
82012SOL    HW247870  11.964  13.180   1.786
82013SOL     OW47871   6.718   2.495   6.942
82013SOL    HW147872   6.710   2.418   6.885
82013SOL    HW247873   6.757   2.562   6.886
82014SOL     OW47874  11.857   9.717   8.686
82014SOL    HW147875  11.788   9.651   8.695
82014SOL    HW247876  11.831   9.786   8.747
82015SOL     OW47877  13.803  10.501  11.508
82015SOL    HW147878  13.858  10.494  11.430
82015SOL    HW247879  13.813  10.593  11.536
82016SOL     OW47880   9.149   5.726  11.265
82016SOL    HW147881   9.100   5.696  11.188
82016SOL    HW247882   9.234   5.752  11.230
82017SOL     OW47883   7.714   7.546   9.019
82017SOL    HW147884   7.649   7.576   9.082
82017SOL    HW247885   7.702   7.604   8.943
82018SOL     OW47886  11.497   5.121  13.537
82018SOL    HW147887  11.564   5.100  13.602
82018SOL    HW247888  11.434   5.049  13.542
82019SOL     OW47889  14.485  14.355  13.833
82019SOL    HW147890  14.548  14.290  13.865
82019SOL    HW247891  14.416  14.303  13.793
82020SOL     OW47892   2.894   4.324   3.036
82020SOL    HW147893   2.922   4.354   3.123
82020SOL    HW247894   2.975   4.320   2.985
82021SOL     OW47895   2.906   2.036  11.207
82021SOL    HW147896   2.845   2.084  11.150
82021SOL    HW247897   2.851   2.001  11.276
82022SOL     OW47898   3.040   6.418   7.614
82022SOL    HW147899   3.116   6.439   7.667
82022SOL    HW247900   3.044   6.480   7.541
82023SOL     OW47901   7.081   9.521  10.262
82023SOL    HW147902   7.147   9.475  10.314
82023SOL    HW247903   6.998   9.503  10.307
82024SOL     OW47904   2.216   7.154   3.543
82024SOL    HW147905   2.136   7.191   3.505
82024SOL    HW247906   2.262   7.229   3.581
82025SOL     OW47907  10.252  11.605   8.897
82025SOL    HW147908  10.281  11.544   8.964
82025SOL    HW247909  10.327  11.661   8.880
82026SOL     OW47910   6.829  12.016  10.075
82026SOL    HW147911   6.855  11.936  10.029
82026SOL    HW247912   6.767  12.058  10.016
82027SOL     OW47913  10.767  14.395   6.241
82027SOL    HW147914  10.718  14.401   6.323
82027SOL    HW247915  10.731  14.319   6.196
82028SOL     OW47916   7.155   7.711   3.920
82028SOL    HW147917   7.214   7.747   3.854
82028SOL    HW247918   7.079   7.769   3.919
82029SOL     OW47919  13.611   6.032   5.021
82029SOL    HW147920  13.660   6.009   5.100
82029SOL    HW247921  13.593   6.126   5.031
82030SOL     OW47922  14.442  13.368  13.047
82030SOL    HW147923  14.422  13.454  13.008
82030SOL    HW247924  14.363  13.344  13.095
82031SOL     OW47925  11.556  13.406   0.759
82031SOL    HW147926  11.559  13.383   0.666
82031SOL    HW247927  11.601  13.333   0.803
82032SOL     OW47928   3.515  11.422   1.770
82032SOL    HW147929   3.474  11.495   1.817
82032SOL    HW247930   3.600  11.411   1.813
82033SOL     OW47931  10.617   1.560   3.065
82033SOL    HW147932  10.591   1.489   3.007
82033SOL    HW247933  10.674   1.518   3.130
82034SOL     OW47934   5.781  11.690  11.690
82034SOL    HW147935   5.753  11.628  11.624
82034SOL    HW247936   5.701  11.736  11.716
82035SOL     OW47937   8.722   2.527  11.919
82035SOL    HW147938   8.748   2.620  11.915
82035SOL    HW247939   8.754   2.491  11.836
82036SOL     OW47940   6.789   3.321  13.280
82036SOL    HW147941   6.811   3.228  13.273
82036SOL    HW247942   6.839   3.352  13.354
82037SOL     OW47943  11.220   4.738  14.065
82037SOL    HW147944  11.290   4.742  14.130
82037SOL    HW247945  11.217   4.646  14.039
82038SOL     OW47946   9.492  11.145  13.486
82038SOL    HW147947   9.474  11.137  13.580
82038SOL    HW247948   9.412  11.114  13.444
82039SOL     OW47949   4.163   5.332   6.981
82039SOL    HW147950   4.095   5.392   7.010
82039SOL    HW247951   4.156   5.257   7.041
82040SOL     OW47952   8.323  14.155  11.369
82040SOL    HW147953   8.338  14.137  11.276
82040SOL    HW247954   8.293  14.072  11.406
82041SOL     OW47955   6.639   3.389   5.259
82041SOL    HW147956   6.657   3.483   5.256
82041SOL    HW247957   6.564   3.381   5.319
82042SOL     OW47958   4.767   7.507  13.144
82042SOL    HW147959   4.696   7.483  13.085
82042SOL    HW247960   4.768   7.603  13.144
82043SOL     OW47961   4.940  14.040   6.023
82043SOL    HW147962   4.893  14.004   6.098
82043SOL    HW247963   4.959  14.131   6.049
82044SOL     OW47964   4.771   7.286   9.782
82044SOL    HW147965   4.806   7.245   9.862
82044SOL    HW247966   4.794   7.225   9.712
82045SOL     OW47967  10.503   3.342  10.603
82045SOL    HW147968  10.429   3.284  10.621
82045SOL    HW247969  10.519   3.331  10.509
82046SOL     OW47970   8.737   9.205   1.462
82046SOL    HW147971   8.759   9.213   1.369
82046SOL    HW247972   8.791   9.132   1.493
82047SOL     OW47973  13.944   5.851  11.864
82047SOL    HW147974  13.971   5.796  11.790
82047SOL    HW247975  14.027   5.875  11.906
82048SOL     OW47976   3.139  10.200   4.538
82048SOL    HW147977   3.183  10.168   4.617
82048SOL    HW247978   3.072  10.261   4.570
82049SOL     OW47979   6.591   4.428  14.565
82049SOL    HW147980   6.575   4.362  14.632
82049SOL    HW247981   6.630   4.501  14.612
82050SOL     OW47982   2.972   8.083   1.486
82050SOL    HW147983   2.967   8.002   1.536
82050SOL    HW247984   2.937   8.150   1.545
82051SOL     OW47985   7.855   3.764   6.464
82051SOL    HW147986   7.933   3.810   6.432
82051SOL    HW247987   7.883   3.673   6.474
82052SOL     OW47988   1.520  14.250   5.422
82052SOL    HW147989   1.597  14.193   5.415
82052SOL    HW247990   1.507  14.260   5.516
82053SOL     OW47991   0.695   7.439   3.447
82053SOL    HW147992   0.734   7.519   3.409
82053SOL    HW247993   0.602   7.447   3.428
82054SOL     OW47994  10.269  14.160   5.778
82054SOL    HW147995  10.292  14.234   5.722
82054SOL    HW247996  10.191  14.122   5.737
82055SOL     OW47997   9.586   9.515  12.088
82055SOL    HW147998   9.528   9.467  12.147
82055SOL    HW247999   9.574   9.607  12.112
82056SOL     OW48000   9.938   8.370  11.911
82056SOL    HW148001   9.918   8.325  11.994
82056SOL    HW248002   9.896   8.456  11.920
82057SOL     OW48003   6.870  11.286   6.131
82057SOL    HW148004   6.846  11.368   6.174
82057SOL    HW248005   6.805  11.223   6.162
82058SOL     OW48006  12.288   5.037   2.329
82058SOL    HW148007  12.195   5.015   2.323
82058SOL    HW248008  12.291   5.133   2.324
82059SOL     OW48009  14.753   3.418  13.863
82059SOL    HW148010  14.663   3.402  13.890
82059SOL    HW248011  14.807   3.371  13.927
82060SOL     OW48012   5.685  14.554   2.834
82060SOL    HW148013   5.696  14.521   2.744
82060SOL    HW248014   5.728  14.489   2.889
82061SOL     OW48015   8.317   2.553   7.483
82061SOL    HW148016   8.359   2.518   7.405
82061SOL    HW248017   8.224   2.535   7.470
82062SOL     OW48018   1.052   2.076   6.558
82062SOL    HW148019   1.059   2.171   6.554
82062SOL    HW248020   1.038   2.049   6.467
82063SOL     OW48021  10.178   1.281   1.095
82063SOL    HW148022  10.133   1.310   1.174
82063SOL    HW248023  10.269   1.269   1.122
82064SOL     OW48024   9.955  14.526  14.841
82064SOL    HW148025   9.951  14.474   0.042
82064SOL    HW248026   9.998  14.607  14.866
82065SOL     OW48027  11.258   6.257   9.309
82065SOL    HW148028  11.284   6.349   9.314
82065SOL    HW248029  11.340   6.209   9.304
82066SOL     OW48030   5.503   7.075   4.615
82066SOL    HW148031   5.561   7.014   4.571
82066SOL    HW248032   5.471   7.133   4.545
82067SOL     OW48033   1.219   1.086   4.239
82067SOL    HW148034   1.141   1.138   4.260
82067SOL    HW248035   1.292   1.138   4.270
82068SOL     OW48036   9.377   0.179  13.026
82068SOL    HW148037   9.464   0.215  13.044
82068SOL    HW248038   9.394   0.097  12.980
82069SOL     OW48039   5.602   6.698   2.805
82069SOL    HW148040   5.639   6.682   2.718
82069SOL    HW248041   5.611   6.615   2.851
82070SOL     OW48042   3.248   2.893   2.212
82070SOL    HW148043   3.316   2.924   2.271
82070SOL    HW248044   3.172   2.878   2.269
82071SOL     OW48045   7.997   5.823   7.996
82071SOL    HW148046   8.071   5.862   7.951
82071SOL    HW248047   8.018   5.730   8.001
82072SOL     OW48048   4.701  12.166  10.321
82072SOL    HW148049   4.769  12.146  10.256
82072SOL    HW248050   4.629  12.204  10.270
82073SOL     OW48051  14.750   2.651  14.681
82073SOL    HW148052  14.665   2.648  14.726
82073SOL    HW248053  14.745   2.729  14.626
82074SOL     OW48054   0.220  10.622   4.545
82074SOL    HW148055   0.299  10.617   4.599
82074SOL    HW248056   0.159  10.674   4.597
82075SOL     OW48057   7.618  14.343   0.918
82075SOL    HW148058   7.676  14.416   0.897
82075SOL    HW248059   7.558  14.338   0.843
82076SOL     OW48060   9.792   7.977   4.683
82076SOL    HW148061   9.723   8.030   4.723
82076SOL    HW248062   9.762   7.959   4.594
82077SOL     OW48063  14.602   4.934   5.926
82077SOL    HW148064  14.607   5.027   5.945
82077SOL    HW248065  14.567   4.929   5.837
82078SOL     OW48066   8.724  11.407  11.018
82078SOL    HW148067   8.638  11.379  10.986
82078SOL    HW248068   8.705  11.483  11.073
82079SOL     OW48069   3.633   3.956   8.945
82079SOL    HW148070   3.554   3.945   8.891
82079SOL    HW248071   3.674   4.035   8.910
82080SOL     OW48072   1.027  14.127   3.516
82080SOL    HW148073   1.049  14.161   3.603
82080SOL    HW248074   1.095  14.062   3.499
82081SOL     OW48075   7.224   8.592   3.455
82081SOL    HW148076   7.291   8.632   3.511
82081SOL    HW248077   7.160   8.661   3.441
82082SOL     OW48078   8.558  11.212  10.550
82082SOL    HW148079   8.595  11.256  10.474
82082SOL    HW248080   8.611  11.134  10.561
82083SOL     OW48081  10.104  11.585   0.725
82083SOL    HW148082  10.078  11.674   0.749
82083SOL    HW248083  10.043  11.529   0.774
82084SOL     OW48084   8.737  11.901   6.082
82084SOL    HW148085   8.698  11.817   6.058
82084SOL    HW248086   8.830  11.883   6.091
82085SOL     OW48087   8.862   5.785  12.901
82085SOL    HW148088   8.793   5.829  12.949
82085SOL    HW248089   8.943   5.821  12.937
82086SOL     OW48090  10.049   8.168   7.526
82086SOL    HW148091  10.044   8.240   7.463
82086SOL    HW248092   9.958   8.151   7.549
82087SOL     OW48093   4.500   2.610   8.233
82087SOL    HW148094   4.429   2.657   8.277
82087SOL    HW248095   4.557   2.579   8.303
82088SOL     OW48096   3.498   0.550  13.587
82088SOL    HW148097   3.530   0.461  13.599
82088SOL    HW248098   3.529   0.597  13.665
82089SOL     OW48099  13.549  10.378   2.949
82089SOL    HW148100  13.625  10.338   2.991
82089SOL    HW248101  13.478  10.316   2.965
82090SOL     OW48102  12.172   9.063   9.918
82090SOL    HW148103  12.190   8.998   9.850
82090SOL    HW248104  12.167   9.012   9.999
82091SOL     OW48105   8.600   9.748  10.938
82091SOL    HW148106   8.587   9.807  10.863
82091SOL    HW248107   8.531   9.683  10.930
82092SOL     OW48108   4.638   6.861   6.570
82092SOL    HW148109   4.617   6.798   6.500
82092SOL    HW248110   4.629   6.810   6.651
82093SOL     OW48111  14.007   8.478   0.909
82093SOL    HW148112  14.051   8.545   0.961
82093SOL    HW248113  14.062   8.468   0.831
82094SOL     OW48114  13.007   3.035   0.865
82094SOL    HW148115  12.953   3.114   0.874
82094SOL    HW248116  13.049   3.044   0.779
82095SOL     OW48117  14.347   3.414   6.363
82095SOL    HW148118  14.358   3.320   6.352
82095SOL    HW248119  14.350   3.449   6.274
82096SOL     OW48120   8.864  11.504   8.468
82096SOL    HW148121   8.959  11.517   8.462
82096SOL    HW248122   8.833  11.509   8.378
82097SOL     OW48123   5.311   5.029   6.478
82097SOL    HW148124   5.234   5.008   6.427
82097SOL    HW248125   5.281   5.093   6.543
82098SOL     OW48126  13.390   7.903   6.964
82098SOL    HW148127  13.304   7.934   6.992
82098SOL    HW248128  13.427   7.861   7.041
82099SOL     OW48129   3.028   1.355  14.391
82099SOL    HW148130   2.996   1.356  14.481
82099SOL    HW248131   2.957   1.394  14.340
82100SOL     OW48132   9.843  10.987  10.297
82100SOL    HW148133   9.784  11.060  10.282
82100SOL    HW248134   9.842  10.937  10.215
82101SOL     OW48135   2.869   7.576  13.426
82101SOL    HW148136   2.865   7.671  13.440
82101SOL    HW248137   2.899   7.566  13.336
82102SOL     OW48138   5.305   2.409  12.398
82102SOL    HW148139   5.253   2.450  12.467
82102SOL    HW248140   5.395   2.419  12.426
82103SOL     OW48141   6.933   7.333   2.075
82103SOL    HW148142   6.861   7.271   2.067
82103SOL    HW248143   7.011   7.283   2.051
82104SOL     OW48144   8.759   0.899   9.368
82104SOL    HW148145   8.807   0.817   9.360
82104SOL    HW248146   8.742   0.908   9.461
82105SOL     OW48147  14.855  12.541   2.634
82105SOL    HW148148  14.812  12.598   2.570
82105SOL    HW248149  14.789  12.528   2.703
82106SOL     OW48150   3.449   7.348   5.994
82106SOL    HW148151   3.528   7.318   6.040
82106SOL    HW248152   3.467   7.439   5.970
82107SOL     OW48153   8.366   1.778  14.059
82107SOL    HW148154   8.438   1.751  14.002
82107SOL    HW248155   8.391   1.865  14.091
82108SOL     OW48156   7.613  14.452  12.107
82108SOL    HW148157   7.565  14.534  12.111
82108SOL    HW248158   7.650  14.441  12.195
82109SOL     OW48159   7.823  11.348  10.592
82109SOL    HW148160   7.832  11.424  10.649
82109SOL    HW248161   7.884  11.283  10.627
82110SOL     OW48162   1.235  12.127  10.033
82110SOL    HW148163   1.318  12.080  10.026
82110SOL    HW248164   1.182  12.093   9.961
82111SOL     OW48165   6.178   7.827  14.374
82111SOL    HW148166   6.233   7.904  14.386
82111SOL    HW248167   6.211   7.787  14.294
82112SOL     OW48168  14.826   3.852   7.953
82112SOL    HW148169  14.824   3.910   8.029
82112SOL    HW248170   0.040   3.847   7.930
82113SOL     OW48171   7.951  11.767  12.649
82113SOL    HW148172   8.042  11.775  12.680
82113SOL    HW248173   7.957  11.710  12.573
82114SOL     OW48174  11.062   9.824  11.763
82114SOL    HW148175  11.134   9.786  11.814
82114SOL    HW248176  11.047   9.910  11.803
82115SOL     OW48177  10.322   3.975  13.269
82115SOL    HW148178  10.381   3.911  13.230
82115SOL    HW248179  10.236   3.954  13.232
82116SOL     OW48180  10.026   8.403  14.180
82116SOL    HW148181   9.967   8.337  14.217
82116SOL    HW248182  10.008   8.482  14.231
82117SOL     OW48183  14.287   5.422   7.628
82117SOL    HW148184  14.262   5.358   7.694
82117SOL    HW248185  14.225   5.407   7.556
82118SOL     OW48186  10.575  12.492   9.862
82118SOL    HW148187  10.523  12.412   9.850
82118SOL    HW248188  10.511  12.563   9.864
82119SOL     OW48189   0.038  10.335  14.228
82119SOL    HW148190  14.869  10.300  14.302
82119SOL    HW248191   0.081  10.414  14.263
82120SOL     OW48192  11.570   5.683   9.429
82120SOL    HW148193  11.513   5.683   9.352
82120SOL    HW248194  11.658   5.691   9.393
82121SOL     OW48195  13.784   7.509   2.367
82121SOL    HW148196  13.790   7.539   2.276
82121SOL    HW248197  13.851   7.441   2.374
82122SOL     OW48198   9.317   8.384  11.480
82122SOL    HW148199   9.407   8.406  11.502
82122SOL    HW248200   9.324   8.333  11.399
82123SOL     OW48201   7.363   6.004  14.194
82123SOL    HW148202   7.427   5.936  14.213
82123SOL    HW248203   7.378   6.027  14.102
82124SOL     OW48204  12.707  14.021  10.051
82124SOL    HW148205  12.792  14.016  10.007
82124SOL    HW248206  12.643  14.017   9.980
82125SOL     OW48207   2.556   3.904   1.664
82125SOL    HW148208   2.598   3.824   1.698
82125SOL    HW248209   2.471   3.875   1.633
82126SOL     OW48210   8.303   2.320  11.578
82126SOL    HW148211   8.357   2.260  11.630
82126SOL    HW248212   8.366   2.376  11.532
82127SOL     OW48213  12.289   7.456  14.872
82127SOL    HW148214  12.273   7.423  14.784
82127SOL    HW248215  12.383   7.449   0.005
82128SOL     OW48216   2.018  13.899   8.944
82128SOL    HW148217   1.996  13.890   9.036
82128SOL    HW248218   2.030  13.809   8.913
82129SOL     OW48219  12.184  12.458   6.341
82129SOL    HW148220  12.238  12.489   6.414
82129SOL    HW248221  12.171  12.535   6.286
82130SOL     OW48222   4.909   1.618   9.531
82130SOL    HW148223   4.836   1.643   9.474
82130SOL    HW248224   4.945   1.540   9.490
82131SOL     OW48225   3.713   7.709   7.455
82131SOL    HW148226   3.683   7.720   7.364
82131SOL    HW248227   3.797   7.754   7.458
82132SOL     OW48228   6.445   9.195   3.716
82132SOL    HW148229   6.540   9.194   3.719
82132SOL    HW248230   6.422   9.285   3.691
82133SOL     OW48231   4.818   2.517   6.138
82133SOL    HW148232   4.835   2.596   6.189
82133SOL    HW248233   4.803   2.449   6.204
82134SOL     OW48234   1.490  14.626  14.838
82134SOL    HW148235   1.401  14.597  14.856
82134SOL    HW248236   1.492  14.642  14.744
82135SOL     OW48237   5.348  14.081   3.116
82135SOL    HW148238   5.334  14.032   3.197
82135SOL    HW248239   5.261  14.115   3.095
82136SOL     OW48240   3.821   9.062   9.366
82136SOL    HW148241   3.775   8.981   9.388
82136SOL    HW248242   3.891   9.034   9.307
82137SOL     OW48243  10.176   4.954  10.983
82137SOL    HW148244  10.174   4.983  10.892
82137SOL    HW248245  10.200   4.862  10.979
82138SOL     OW48246  13.450   8.707  13.872
82138SOL    HW148247  13.441   8.744  13.784
82138SOL    HW248248  13.528   8.652  13.866
82139SOL     OW48249   5.276   9.816   0.662
82139SOL    HW148250   5.192   9.794   0.701
82139SOL    HW248251   5.320   9.732   0.650
82140SOL     OW48252   5.034  14.024  14.642
82140SOL    HW148253   5.083  14.008  14.562
82140SOL    HW248254   4.960  14.079  14.615
82141SOL     OW48255   1.865   2.924  14.117
82141SOL    HW148256   1.959   2.914  14.101
82141SOL    HW248257   1.825   2.926  14.031
82142SOL     OW48258   8.836   3.955   6.813
82142SOL    HW148259   8.811   3.924   6.726
82142SOL    HW248260   8.765   3.925   6.870
82143SOL     OW48261   6.876  12.380   0.417
82143SOL    HW148262   6.903  12.294   0.384
82143SOL    HW248263   6.958  12.428   0.427
82144SOL     OW48264   2.616  12.052   1.017
82144SOL    HW148265   2.524  12.032   0.999
82144SOL    HW248266   2.642  11.987   1.082
82145SOL     OW48267   5.833   2.247  13.438
82145SOL    HW148268   5.738   2.239  13.428
82145SOL    HW248269   5.861   2.159  13.463
82146SOL     OW48270  10.417  10.556   6.626
82146SOL    HW148271  10.449  10.471   6.656
82146SOL    HW248272  10.354  10.535   6.558
82147SOL     OW48273   0.164   4.558   7.364
82147SOL    HW148274   0.159   4.581   7.457
82147SOL    HW248275   0.258   4.561   7.344
82148SOL     OW48276   9.924   0.485  10.298
82148SOL    HW148277  10.016   0.486  10.274
82148SOL    HW248278   9.885   0.416  10.245
82149SOL     OW48279   4.316   3.546   5.322
82149SOL    HW148280   4.366   3.471   5.287
82149SOL    HW248281   4.383   3.609   5.348
82150SOL     OW48282   7.824   9.537   0.391
82150SOL    HW148283   7.831   9.599   0.463
82150SOL    HW248284   7.914   9.525   0.360
82151SOL     OW48285   6.807   7.714  12.629
82151SOL    HW148286   6.784   7.753  12.713
82151SOL    HW248287   6.821   7.788  12.571
82152SOL     OW48288   8.918   3.144   0.923
82152SOL    HW148289   8.976   3.208   0.882
82152SOL    HW248290   8.843   3.138   0.864
82153SOL     OW48291   4.671   0.819  13.639
82153SOL    HW148292   4.658   0.911  13.663
82153SOL    HW248293   4.597   0.773  13.679
82154SOL     OW48294   7.189   0.022   5.806
82154SOL    HW148295   7.124  14.846   5.762
82154SOL    HW248296   7.269  14.849   5.807
82155SOL     OW48297  13.618   2.965   4.830
82155SOL    HW148298  13.548   2.968   4.896
82155SOL    HW248299  13.683   3.027   4.862
82156SOL     OW48300  11.134   0.687  12.447
82156SOL    HW148301  11.225   0.663  12.434
82156SOL    HW248302  11.085   0.608  12.425
82157SOL     OW48303   3.262   0.654  11.736
82157SOL    HW148304   3.315   0.611  11.804
82157SOL    HW248305   3.284   0.608  11.655
82158SOL     OW48306   3.025  14.705   4.968
82158SOL    HW148307   3.107  14.724   4.923
82158SOL    HW248308   2.957  14.737   4.908
82159SOL     OW48309   8.630  11.355   6.218
82159SOL    HW148310   8.670  11.328   6.136
82159SOL    HW248311   8.542  11.317   6.215
82160SOL     OW48312   4.234   1.773   5.212
82160SOL    HW148313   4.230   1.860   5.253
82160SOL    HW248314   4.175   1.719   5.264
82161SOL     OW48315   8.665   4.998   7.268
82161SOL    HW148316   8.748   4.983   7.313
82161SOL    HW248317   8.629   5.077   7.309
82162SOL     OW48318   4.621   7.974   4.047
82162SOL    HW148319   4.674   8.045   4.082
82162SOL    HW248320   4.672   7.938   3.975
82163SOL     OW48321   1.787   8.818  11.560
82163SOL    HW148322   1.708   8.833  11.509
82163SOL    HW248323   1.769   8.739  11.611
82164SOL     OW48324   8.842   2.289  12.436
82164SOL    HW148325   8.786   2.319  12.364
82164SOL    HW248326   8.786   2.292  12.513
82165SOL     OW48327   0.803  10.217  13.485
82165SOL    HW148328   0.753  10.276  13.541
82165SOL    HW248329   0.894  10.234  13.508
82166SOL     OW48330   2.721  11.637  11.540
82166SOL    HW148331   2.708  11.563  11.480
82166SOL    HW248332   2.653  11.626  11.606
82167SOL     OW48333   7.290   2.042   0.101
82167SOL    HW148334   7.219   2.053   0.164
82167SOL    HW248335   7.292   1.947   0.084
82168SOL     OW48336  10.580  14.028   9.929
82168SOL    HW148337  10.501  14.075   9.952
82168SOL    HW248338  10.651  14.079   9.967
82169SOL     OW48339   6.354  12.028   0.676
82169SOL    HW148340   6.412  11.952   0.678
82169SOL    HW248341   6.383  12.078   0.599
82170SOL     OW48342   0.620   4.114   5.062
82170SOL    HW148343   0.604   4.203   5.032
82170SOL    HW248344   0.714   4.112   5.081
82171SOL     OW48345   6.284   7.229   1.590
82171SOL    HW148346   6.288   7.150   1.644
82171SOL    HW248347   6.375   7.255   1.580
82172SOL     OW48348   2.270   7.766   5.004
82172SOL    HW148349   2.181   7.753   5.038
82172SOL    HW248350   2.277   7.860   4.989
82173SOL     OW48351  14.350   3.603  13.540
82173SOL    HW148352  14.297   3.539  13.588
82173SOL    HW248353  14.297   3.682  13.540
82174SOL     OW48354   5.539   0.785  10.181
82174SOL    HW148355   5.578   0.785  10.268
82174SOL    HW248356   5.545   0.876  10.152
82175SOL     OW48357   1.561   5.859   3.381
82175SOL    HW148358   1.521   5.772   3.390
82175SOL    HW248359   1.612   5.870   3.461
82176SOL     OW48360  14.039   9.982   2.205
82176SOL    HW148361  14.091  10.061   2.190
82176SOL    HW248362  13.982   9.977   2.128
82177SOL     OW48363  11.512   1.318  10.331
82177SOL    HW148364  11.434   1.300  10.278
82177SOL    HW248365  11.483   1.383  10.395
82178SOL     OW48366   0.188  13.525   1.248
82178SOL    HW148367   0.199  13.434   1.274
82178SOL    HW248368   0.238  13.575   1.313
82179SOL     OW48369  11.831   7.333   9.644
82179SOL    HW148370  11.776   7.399   9.684
82179SOL    HW248371  11.886   7.381   9.582
82180SOL     OW48372   7.188  13.946  13.111
82180SOL    HW148373   7.123  14.005  13.072
82180SOL    HW248374   7.163  13.943  13.204
82181SOL     OW48375   6.713  12.118   6.729
82181SOL    HW148376   6.801  12.124   6.766
82181SOL    HW248377   6.720  12.051   6.661
82182SOL     OW48378   8.069   8.195   5.679
82182SOL    HW148379   8.085   8.128   5.612
82182SOL    HW248380   8.044   8.146   5.757
82183SOL     OW48381  14.692   5.669   8.513
82183SOL    HW148382  14.750   5.633   8.446
82183SOL    HW248383  14.621   5.711   8.465
82184SOL     OW48384   3.330  11.144  13.464
82184SOL    HW148385   3.344  11.094  13.384
82184SOL    HW248386   3.411  11.192  13.477
82185SOL     OW48387   9.695   0.871  13.873
82185SOL    HW148388   9.748   0.937  13.828
82185SOL    HW248389   9.631   0.921  13.923
82186SOL     OW48390   9.139  14.716   8.431
82186SOL    HW148391   9.184  14.737   8.349
82186SOL    HW248392   9.191  14.759   8.499
82187SOL     OW48393   7.921   9.217  10.530
82187SOL    HW148394   7.920   9.135  10.579
82187SOL    HW248395   7.957   9.282  10.591
82188SOL     OW48396   7.472   5.115   5.319
82188SOL    HW148397   7.441   5.028   5.294
82188SOL    HW248398   7.420   5.175   5.266
82189SOL     OW48399   1.234  12.741   3.036
82189SOL    HW148400   1.308  12.715   3.090
82189SOL    HW248401   1.238  12.681   2.961
82190SOL     OW48402   4.650   3.825   9.981
82190SOL    HW148403   4.671   3.847  10.072
82190SOL    HW248404   4.653   3.909   9.935
82191SOL     OW48405   0.977   1.011  10.094
82191SOL    HW148406   1.067   1.008  10.127
82191SOL    HW248407   0.937   0.930  10.127
82192SOL     OW48408  10.502   0.927  14.579
82192SOL    HW148409  10.543   0.992  14.522
82192SOL    HW248410  10.550   0.935  14.662
82193SOL     OW48411   7.159   9.565  12.078
82193SOL    HW148412   7.252   9.581  12.094
82193SOL    HW248413   7.133   9.503  12.146
82194SOL     OW48414  10.468   3.932  13.859
82194SOL    HW148415  10.509   3.893  13.937
82194SOL    HW248416  10.489   4.025  13.865
82195SOL     OW48417   3.337  10.679   5.349
82195SOL    HW148418   3.335  10.765   5.306
82195SOL    HW248419   3.250  10.642   5.334
82196SOL     OW48420   9.597   1.641   0.356
82196SOL    HW148421   9.560   1.595   0.431
82196SOL    HW248422   9.637   1.720   0.394
82197SOL     OW48423   5.349  14.301   2.724
82197SOL    HW148424   5.406  14.289   2.648
82197SOL    HW248425   5.395  14.256   2.795
82198SOL     OW48426   6.216   0.476   1.138
82198SOL    HW148427   6.236   0.383   1.136
82198SOL    HW248428   6.121   0.481   1.139
82199SOL     OW48429  13.775   3.947   7.548
82199SOL    HW148430  13.699   3.930   7.604
82199SOL    HW248431  13.812   4.028   7.581
82200SOL     OW48432   7.170  12.801   4.953
82200SOL    HW148433   7.223  12.728   4.986
82200SOL    HW248434   7.082  12.783   4.985
82201SOL     OW48435   2.104   2.856   5.569
82201SOL    HW148436   2.112   2.931   5.629
82201SOL    HW248437   2.017   2.868   5.530
82202SOL     OW48438  12.002   3.027   8.812
82202SOL    HW148439  12.020   2.950   8.865
82202SOL    HW248440  12.083   3.078   8.815
82203SOL     OW48441   5.571   7.559   9.885
82203SOL    HW148442   5.539   7.469   9.893
82203SOL    HW248443   5.567   7.578   9.791
82204SOL     OW48444   3.075  10.066   2.090
82204SOL    HW148445   3.145  10.106   2.040
82204SOL    HW248446   3.039  10.137   2.144
82205SOL     OW48447   6.218   0.397   3.415
82205SOL    HW148448   6.272   0.470   3.387
82205SOL    HW248449   6.262   0.362   3.493
82206SOL     OW48450   5.742  14.470   0.328
82206SOL    HW148451   5.676  14.405   0.301
82206SOL    HW248452   5.761  14.519   0.248
82207SOL     OW48453  12.697  12.824   8.519
82207SOL    HW148454  12.716  12.913   8.490
82207SOL    HW248455  12.782  12.780   8.520
82208SOL     OW48456  11.576   4.430  11.564
82208SOL    HW148457  11.587   4.373  11.488
82208SOL    HW248458  11.568   4.369  11.638
82209SOL     OW48459   3.235  10.614  14.614
82209SOL    HW148460   3.306  10.568  14.569
82209SOL    HW248461   3.245  10.590  14.706
82210SOL     OW48462   2.055   9.219   1.975
82210SOL    HW148463   2.024   9.148   1.920
82210SOL    HW248464   2.119   9.179   2.034
82211SOL     OW48465  14.041  11.212  10.961
82211SOL    HW148466  14.053  11.298  10.921
82211SOL    HW248467  13.976  11.227  11.030
82212SOL     OW48468  12.887  10.545  10.650
82212SOL    HW148469  12.844  10.561  10.734
82212SOL    HW248470  12.817  10.516  10.592
82213SOL     OW48471   3.243   9.353   9.277
82213SOL    HW148472   3.272   9.303   9.353
82213SOL    HW248473   3.321   9.400   9.249
82214SOL     OW48474   1.453  12.710   8.105
82214SOL    HW148475   1.426  12.619   8.119
82214SOL    HW248476   1.540  12.715   8.144
82215SOL     OW48477   3.177  11.902   8.502
82215SOL    HW148478   3.240  11.892   8.573
82215SOL    HW248479   3.209  11.842   8.434
82216SOL     OW48480  14.533  11.218   0.310
82216SOL    HW148481  14.521  11.217   0.405
82216SOL    HW248482  14.550  11.310   0.289
82217SOL     OW48483  10.920   9.828   1.513
82217SOL    HW148484  10.954   9.850   1.426
82217SOL    HW248485  10.883   9.910   1.545
82218SOL     OW48486   0.054   3.878  12.791
82218SOL    HW148487   0.030   3.971  12.790
82218SOL    HW248488   0.131   3.873  12.734
82219SOL     OW48489  11.721   6.898   1.612
82219SOL    HW148490  11.698   6.925   1.523
82219SOL    HW248491  11.767   6.815   1.600
82220SOL     OW48492  14.445  11.085   1.552
82220SOL    HW148493  14.537  11.111   1.556
82220SOL    HW248494  14.421  11.069   1.643
82221SOL     OW48495   3.910   6.035   9.587
82221SOL    HW148496   3.950   5.985   9.658
82221SOL    HW248497   3.981   6.088   9.551
82222SOL     OW48498   4.491  13.002  11.159
82222SOL    HW148499   4.425  13.051  11.208
82222SOL    HW248500   4.502  13.052  11.078
82223SOL     OW48501   5.356   8.016   5.860
82223SOL    HW148502   5.450   8.027   5.875
82223SOL    HW248503   5.324   8.105   5.845
82224SOL     OW48504   9.655   0.002   4.733
82224SOL    HW148505   9.597   0.072   4.704
82224SOL    HW248506   9.743   0.039   4.729
82225SOL     OW48507   8.791  13.603   2.844
82225SOL    HW148508   8.799  13.655   2.764
82225SOL    HW248509   8.707  13.559   2.836
82226SOL     OW48510   3.359  12.788  14.437
82226SOL    HW148511   3.395  12.779  14.525
82226SOL    HW248512   3.435  12.780  14.379
82227SOL     OW48513   7.956   1.286   2.715
82227SOL    HW148514   8.041   1.278   2.671
82227SOL    HW248515   7.967   1.239   2.797
82228SOL     OW48516  12.035   1.189   8.251
82228SOL    HW148517  12.045   1.245   8.174
82228SOL    HW248518  12.034   1.251   8.325
82229SOL     OW48519   3.909   0.324  13.527
82229SOL    HW148520   3.888   0.329  13.434
82229SOL    HW248521   3.888   0.233  13.552
82230SOL     OW48522  12.393  10.818   2.157
82230SOL    HW148523  12.311  10.821   2.108
82230SOL    HW248524  12.460  10.802   2.090
82231SOL     OW48525   0.851  10.343   2.922
82231SOL    HW148526   0.825  10.429   2.889
82231SOL    HW248527   0.853  10.353   3.017
82232SOL     OW48528   3.127   2.603  10.979
82232SOL    HW148529   3.067   2.530  10.967
82232SOL    HW248530   3.081   2.678  10.942
82233SOL     OW48531  10.720  11.091  13.855
82233SOL    HW148532  10.750  11.108  13.765
82233SOL    HW248533  10.694  10.999  13.855
82234SOL     OW48534   6.049   9.427  14.805
82234SOL    HW148535   6.060   9.339  14.770
82234SOL    HW248536   5.989   9.417  14.879
82235SOL     OW48537   6.445   6.848   4.295
82235SOL    HW148538   6.426   6.864   4.202
82235SOL    HW248539   6.440   6.934   4.336
82236SOL     OW48540  10.890  11.189  14.339
82236SOL    HW148541  10.908  11.219  14.429
82236SOL    HW248542  10.847  11.263  14.297
82237SOL     OW48543   6.532  10.768  14.582
82237SOL    HW148544   6.515  10.793  14.491
82237SOL    HW248545   6.470  10.697  14.600
82238SOL     OW48546   4.895   8.551  12.553
82238SOL    HW148547   4.828   8.560  12.486
82238SOL    HW248548   4.969   8.603  12.521
82239SOL     OW48549   7.669  14.677  14.774
82239SOL    HW148550   7.667  14.581  14.775
82239SOL    HW248551   7.627  14.701  14.691
82240SOL     OW48552   3.553   6.612   1.436
82240SOL    HW148553   3.503   6.636   1.514
82240SOL    HW248554   3.550   6.516   1.434
82241SOL     OW48555   9.317   4.783  10.862
82241SOL    HW148556   9.331   4.858  10.920
82241SOL    HW248557   9.222   4.772  10.858
82242SOL     OW48558  13.661   0.139   4.508
82242SOL    HW148559  13.711   0.215   4.539
82242SOL    HW248560  13.605   0.115   4.582
82243SOL     OW48561   3.226   2.846   2.985
82243SOL    HW148562   3.293   2.808   3.043
82243SOL    HW248563   3.185   2.915   3.037
82244SOL     OW48564   4.631   3.618  12.186
82244SOL    HW148565   4.615   3.551  12.252
82244SOL    HW248566   4.659   3.569  12.108
82245SOL     OW48567   3.912  10.214   6.116
82245SOL    HW148568   3.911  10.142   6.180
82245SOL    HW248569   3.980  10.189   6.054
82246SOL     OW48570   1.489   2.621   0.895
82246SOL    HW148571   1.543   2.649   0.821
82246SOL    HW248572   1.407   2.591   0.855
82247SOL     OW48573   9.549   0.716   2.124
82247SOL    HW148574   9.617   0.686   2.064
82247SOL    HW248575   9.469   0.718   2.071
82248SOL     OW48576  14.049  13.778   3.293
82248SOL    HW148577  13.989  13.719   3.248
82248SOL    HW248578  14.136  13.749   3.266
82249SOL     OW48579   2.245   8.492   5.150
82249SOL    HW148580   2.287   8.444   5.221
82249SOL    HW248581   2.222   8.577   5.188
82250SOL     OW48582  13.415   1.866   6.185
82250SOL    HW148583  13.354   1.912   6.242
82250SOL    HW248584  13.462   1.935   6.139
82251SOL     OW48585  14.370   5.697   9.394
82251SOL    HW148586  14.278   5.700   9.419
82251SOL    HW248587  14.401   5.612   9.426
82252SOL     OW48588   4.676   0.283  10.823
82252SOL    HW148589   4.597   0.242  10.857
82252SOL    HW248590   4.747   0.251  10.879
82253SOL     OW48591  11.243  10.779   2.179
82253SOL    HW148592  11.152  10.749   2.178
82253SOL    HW248593  11.294  10.698   2.177
82254SOL     OW48594   5.528   4.634   3.583
82254SOL    HW148595   5.546   4.708   3.525
82254SOL    HW248596   5.460   4.666   3.643
82255SOL     OW48597   2.109  12.963   3.268
82255SOL    HW148598   2.161  12.895   3.310
82255SOL    HW248599   2.030  12.969   3.322
82256SOL     OW48600  14.426   1.645   1.903
82256SOL    HW148601  14.364   1.614   1.837
82256SOL    HW248602  14.476   1.714   1.859
82257SOL     OW48603   1.525   3.021   7.252
82257SOL    HW148604   1.563   2.973   7.325
82257SOL    HW248605   1.579   3.099   7.244
82258SOL     OW48606   8.592   9.473   7.638
82258SOL    HW148607   8.654   9.406   7.610
82258SOL    HW248608   8.518   9.424   7.674
82259SOL     OW48609   1.011   1.744   8.718
82259SOL    HW148610   0.984   1.727   8.628
82259SOL    HW248611   0.954   1.690   8.772
82260SOL     OW48612  13.263   7.241  10.185
82260SOL    HW148613  13.313   7.166  10.217
82260SOL    HW248614  13.206   7.205  10.118
82261SOL     OW48615   7.807   9.592   7.405
82261SOL    HW148616   7.717   9.587   7.373
82261SOL    HW248617   7.854   9.524   7.357
82262SOL     OW48618   6.035  10.922   7.177
82262SOL    HW148619   6.005  10.854   7.238
82262SOL    HW248620   6.086  10.982   7.231
82263SOL     OW48621   5.799   5.217   8.906
82263SOL    HW148622   5.889   5.244   8.921
82263SOL    HW248623   5.775   5.256   8.822
82264SOL     OW48624   2.504   5.396  11.980
82264SOL    HW148625   2.493   5.403  11.885
82264SOL    HW248626   2.468   5.477  12.014
82265SOL     OW48627  10.788  13.585  12.070
82265SOL    HW148628  10.745  13.518  12.124
82265SOL    HW248629  10.846  13.631  12.131
82266SOL     OW48630   6.993   6.082   3.697
82266SOL    HW148631   6.899   6.067   3.710
82266SOL    HW248632   7.007   6.059   3.605
82267SOL     OW48633   5.272   5.343   3.466
82267SOL    HW148634   5.285   5.409   3.534
82267SOL    HW248635   5.254   5.394   3.387
82268SOL     OW48636  10.420   1.131   9.614
82268SOL    HW148637  10.484   1.079   9.663
82268SOL    HW248638  10.401   1.078   9.536
82269SOL     OW48639   7.575   8.782  12.760
82269SOL    HW148640   7.569   8.691  12.788
82269SOL    HW248641   7.486   8.803  12.730
82270SOL     OW48642   7.146   7.959   0.177
82270SOL    HW148643   7.109   7.961   0.089
82270SOL    HW248644   7.072   7.980   0.234
82271SOL     OW48645   8.138  10.448  10.311
82271SOL    HW148646   8.134  10.525  10.367
82271SOL    HW248647   8.061  10.396  10.337
82272SOL     OW48648  14.757   0.244  12.553
82272SOL    HW148649  14.845   0.281  12.548
82272SOL    HW248650  14.719   0.260  12.467
82273SOL     OW48651  11.442   2.653   2.799
82273SOL    HW148652  11.479   2.599   2.869
82273SOL    HW248653  11.419   2.735   2.841
82274SOL     OW48654   1.602  11.143   5.660
82274SOL    HW148655   1.571  11.128   5.749
82274SOL    HW248656   1.694  11.164   5.670
82275SOL     OW48657   7.850  13.588  14.153
82275SOL    HW148658   7.831  13.657  14.216
82275SOL    HW248659   7.946  13.581  14.153
82276SOL     OW48660   0.191   3.079   8.738
82276SOL    HW148661   0.142   3.128   8.672
82276SOL    HW248662   0.166   3.120   8.821
82277SOL     OW48663   6.010  14.276   3.335
82277SOL    HW148664   5.995  14.243   3.424
82277SOL    HW248665   6.106  14.275   3.325
82278SOL     OW48666   3.089   0.426   8.572
82278SOL    HW148667   3.052   0.338   8.567
82278SOL    HW248668   3.134   0.437   8.488
82279SOL     OW48669  12.443  13.813   3.695
82279SOL    HW148670  12.406  13.900   3.681
82279SOL    HW248671  12.521  13.829   3.749
82280SOL     OW48672   5.910  10.227   6.435
82280SOL    HW148673   5.993  10.269   6.457
82280SOL    HW248674   5.893  10.168   6.508
82281SOL     OW48675   9.411   7.933  12.760
82281SOL    HW148676   9.334   7.981  12.791
82281SOL    HW248677   9.459   7.997  12.707
82282SOL     OW48678  12.882  12.765   6.263
82282SOL    HW148679  12.834  12.726   6.190
82282SOL    HW248680  12.875  12.860   6.248
82283SOL     OW48681   6.075  12.915  11.496
82283SOL    HW148682   6.106  12.979  11.433
82283SOL    HW248683   5.982  12.903  11.475
82284SOL     OW48684   4.365   8.106  13.225
82284SOL    HW148685   4.439   8.150  13.268
82284SOL    HW248686   4.382   8.116  13.132
82285SOL     OW48687   4.733  12.327   6.417
82285SOL    HW148688   4.764  12.417   6.422
82285SOL    HW248689   4.645  12.329   6.454
82286SOL     OW48690   9.950   1.861  11.925
82286SOL    HW148691  10.009   1.909  11.983
82286SOL    HW248692   9.978   1.769  11.933
82287SOL     OW48693  11.182   5.059   3.615
82287SOL    HW148694  11.175   5.136   3.559
82287SOL    HW248695  11.276   5.039   3.618
82288SOL     OW48696  10.626  14.756  13.801
82288SOL    HW148697  10.668  14.804  13.873
82288SOL    HW248698  10.565  14.697  13.844
82289SOL     OW48699   5.408   3.003   3.465
82289SOL    HW148700   5.503   3.013   3.475
82289SOL    HW248701   5.371   3.075   3.516
82290SOL     OW48702   2.423  10.492   5.155
82290SOL    HW148703   2.381  10.475   5.240
82290SOL    HW248704   2.516  10.477   5.171
82291SOL     OW48705   3.617  10.860   4.870
82291SOL    HW148706   3.685  10.905   4.818
82291SOL    HW248707   3.601  10.919   4.944
82292SOL     OW48708   7.714  13.867   0.795
82292SOL    HW148709   7.789  13.865   0.855
82292SOL    HW248710   7.741  13.926   0.725
82293SOL     OW48711   0.743  12.128   9.814
82293SOL    HW148712   0.791  12.105   9.735
82293SOL    HW248713   0.651  12.113   9.793
82294SOL     OW48714   4.955   5.968   0.849
82294SOL    HW148715   4.959   6.062   0.865
82294SOL    HW248716   5.012   5.929   0.915
82295SOL     OW48717  13.124   5.432   3.296
82295SOL    HW148718  13.165   5.351   3.267
82295SOL    HW248719  13.087   5.412   3.381
82296SOL     OW48720   8.331  13.506  14.402
82296SOL    HW148721   8.321  13.413  14.380
82296SOL    HW248722   8.279  13.518  14.481
82297SOL     OW48723  11.645  10.409  14.563
82297SOL    HW148724  11.549  10.406  14.571
82297SOL    HW248725  11.663  10.499  14.535
82298SOL     OW48726   4.742  11.778   2.987
82298SOL    HW148727   4.779  11.729   3.061
82298SOL    HW248728   4.659  11.734   2.968
82299SOL     OW48729   8.344  12.349   2.487
82299SOL    HW148730   8.379  12.420   2.434
82299SOL    HW248731   8.355  12.379   2.577
82300SOL     OW48732  10.204   9.340  13.586
82300SOL    HW148733  10.118   9.360  13.622
82300SOL    HW248734  10.229   9.257  13.628
82301SOL     OW48735   4.861   4.751   6.872
82301SOL    HW148736   4.864   4.792   6.786
82301SOL    HW248737   4.953   4.737   6.895
82302SOL     OW48738   6.846   6.555  12.459
82302SOL    HW148739   6.903   6.586  12.529
82302SOL    HW248740   6.760   6.591  12.480
82303SOL     OW48741   7.720  13.239   9.323
82303SOL    HW148742   7.674  13.246   9.406
82303SOL    HW248743   7.654  13.209   9.261
82304SOL     OW48744   3.031   1.810   4.426
82304SOL    HW148745   3.086   1.864   4.368
82304SOL    HW248746   3.037   1.854   4.511
82305SOL     OW48747   1.510   1.851   9.244
82305SOL    HW148748   1.603   1.873   9.235
82305SOL    HW248749   1.510   1.764   9.284
82306SOL     OW48750   8.894   8.551  12.134
82306SOL    HW148751   8.885   8.631  12.082
82306SOL    HW248752   8.984   8.552  12.165
82307SOL     OW48753   2.796   0.897   9.037
82307SOL    HW148754   2.856   0.823   9.025
82307SOL    HW248755   2.850   0.966   9.076
82308SOL     OW48756   6.303   0.534   3.835
82308SOL    HW148757   6.302   0.598   3.764
82308SOL    HW248758   6.218   0.544   3.877
82309SOL     OW48759  13.437   6.385   0.909
82309SOL    HW148760  13.372   6.424   0.968
82309SOL    HW248761  13.511   6.446   0.910
82310SOL     OW48762   7.212  11.180   6.949
82310SOL    HW148763   7.295  11.131   6.953
82310SOL    HW248764   7.237  11.271   6.967
82311SOL     OW48765  11.572   9.293  12.495
82311SOL    HW148766  11.590   9.201  12.478
82311SOL    HW248767  11.559   9.331  12.408
82312SOL     OW48768  12.771   5.313   8.116
82312SOL    HW148769  12.810   5.357   8.192
82312SOL    HW248770  12.727   5.237   8.153
82313SOL     OW48771   5.712   9.603  10.448
82313SOL    HW148772   5.749   9.598  10.536
82313SOL    HW248773   5.621   9.575  10.459
82314SOL     OW48774   4.206   1.078  13.198
82314SOL    HW148775   4.279   1.029  13.162
82314SOL    HW248776   4.199   1.155  13.142
82315SOL     OW48777  13.331   4.258  11.628
82315SOL    HW148778  13.250   4.276  11.676
82315SOL    HW248779  13.401   4.286  11.688
82316SOL     OW48780  14.268   7.482   2.910
82316SOL    HW148781  14.298   7.427   2.982
82316SOL    HW248782  14.223   7.555   2.953
82317SOL     OW48783   9.447  10.475  10.516
82317SOL    HW148784   9.539  10.465  10.492
82317SOL    HW248785   9.413  10.540  10.454
82318SOL     OW48786   0.582   8.905   1.115
82318SOL    HW148787   0.489   8.928   1.108
82318SOL    HW248788   0.605   8.874   1.027
82319SOL     OW48789   6.459   1.362   1.286
82319SOL    HW148790   6.389   1.415   1.324
82319SOL    HW248791   6.427   1.337   1.200
82320SOL     OW48792   8.894  10.383   0.222
82320SOL    HW148793   8.988  10.393   0.210
82320SOL    HW248794   8.859  10.379   0.132
82321SOL     OW48795  12.665   6.605  11.869
82321SOL    HW148796  12.752   6.611  11.830
82321SOL    HW248797  12.616   6.549  11.809
82322SOL     OW48798   3.515   5.983   0.388
82322SOL    HW148799   3.501   6.000   0.295
82322SOL    HW248800   3.428   5.989   0.427
82323SOL     OW48801   8.345  13.715   3.060
82323SOL    HW148802   8.404  13.791   3.066
82323SOL    HW248803   8.270  13.738   3.115
82324SOL     OW48804   1.425   4.560  13.031
82324SOL    HW148805   1.389   4.649  13.034
82324SOL    HW248806   1.513   4.572  12.996
82325SOL     OW48807   7.837   6.948   9.478
82325SOL    HW148808   7.768   6.939   9.412
82325SOL    HW248809   7.900   6.879   9.457
82326SOL     OW48810   9.842   5.588   5.197
82326SOL    HW148811   9.919   5.627   5.156
82326SOL    HW248812   9.775   5.657   5.193
82327SOL     OW48813   7.806   4.911  12.917
82327SOL    HW148814   7.797   4.994  12.870
82327SOL    HW248815   7.890   4.877  12.888
82328SOL     OW48816   3.061   3.607   5.406
82328SOL    HW148817   3.027   3.623   5.494
82328SOL    HW248818   2.999   3.545   5.367
82329SOL     OW48819  12.487  11.690   9.285
82329SOL    HW148820  12.401  11.716   9.319
82329SOL    HW248821  12.470  11.610   9.235
82330SOL     OW48822   3.010  10.257  14.352
82330SOL    HW148823   3.064  10.245  14.431
82330SOL    HW248824   3.026  10.348  14.327
82331SOL     OW48825   8.505   0.040  11.184
82331SOL    HW148826   8.441   0.111  11.176
82331SOL    HW248827   8.452  14.842  11.204
82332SOL     OW48828  10.156   3.183   4.813
82332SOL    HW148829  10.234   3.214   4.859
82332SOL    HW248830  10.134   3.255   4.754
82333SOL     OW48831   9.901   2.345   8.310
82333SOL    HW148832   9.816   2.383   8.329
82333SOL    HW248833   9.882   2.268   8.256
82334SOL     OW48834   2.016  12.266   1.668
82334SOL    HW148835   2.106  12.283   1.640
82334SOL    HW248836   2.016  12.174   1.693
82335SOL     OW48837   7.987   1.646   9.511
82335SOL    HW148838   7.915   1.639   9.574
82335SOL    HW248839   7.989   1.738   9.487
82336SOL     OW48840   4.763  13.867   2.089
82336SOL    HW148841   4.826  13.820   2.144
82336SOL    HW248842   4.679  13.859   2.134
82337SOL     OW48843  13.155   8.422   8.689
82337SOL    HW148844  13.167   8.383   8.776
82337SOL    HW248845  13.140   8.515   8.706
82338SOL     OW48846   5.788   5.798   8.347
82338SOL    HW148847   5.851   5.834   8.410
82338SOL    HW248848   5.843   5.767   8.274
82339SOL     OW48849   4.463   2.795   4.535
82339SOL    HW148850   4.412   2.719   4.563
82339SOL    HW248851   4.534   2.802   4.599
82340SOL     OW48852   9.137  12.291  10.440
82340SOL    HW148853   9.070  12.356  10.461
82340SOL    HW248854   9.113  12.260  10.352
82341SOL     OW48855  11.838   4.102   1.531
82341SOL    HW148856  11.804   4.072   1.615
82341SOL    HW248857  11.892   4.029   1.500
82342SOL     OW48858  12.337   3.148   9.414
82342SOL    HW148859  12.334   3.222   9.475
82342SOL    HW248860  12.403   3.090   9.450
82343SOL     OW48861   8.568  12.283  12.774
82343SOL    HW148862   8.582  12.335  12.694
82343SOL    HW248863   8.492  12.323  12.815
82344SOL     OW48864   1.922   9.542  13.586
82344SOL    HW148865   1.874   9.503  13.659
82344SOL    HW248866   1.854   9.560  13.521
82345SOL     OW48867   7.002  14.581   2.386
82345SOL    HW148868   7.076  14.533   2.423
82345SOL    HW248869   6.931  14.570   2.450
82346SOL     OW48870  12.591   5.408   4.364
82346SOL    HW148871  12.608   5.383   4.455
82346SOL    HW248872  12.588   5.503   4.366
82347SOL     OW48873  11.559  12.794   4.161
82347SOL    HW148874  11.525  12.852   4.093
82347SOL    HW248875  11.485  12.777   4.218
82348SOL     OW48876  10.929  12.653   5.927
82348SOL    HW148877  10.898  12.578   5.978
82348SOL    HW248878  11.012  12.677   5.967
82349SOL     OW48879   1.551   1.740   1.483
82349SOL    HW148880   1.526   1.765   1.572
82349SOL    HW248881   1.583   1.821   1.443
82350SOL     OW48882   0.512   2.516  12.082
82350SOL    HW148883   0.496   2.536  11.990
82350SOL    HW248884   0.435   2.466  12.109
82351SOL     OW48885  10.515   2.575   6.905
82351SOL    HW148886  10.548   2.487   6.923
82351SOL    HW248887  10.590   2.622   6.867
82352SOL     OW48888   1.717   5.622   7.395
82352SOL    HW148889   1.643   5.561   7.390
82352SOL    HW248890   1.679   5.706   7.369
82353SOL     OW48891  12.475  14.550   3.872
82353SOL    HW148892  12.465  14.557   3.967
82353SOL    HW248893  12.456  14.458   3.853
82354SOL     OW48894   4.064  10.880   2.303
82354SOL    HW148895   4.071  10.859   2.210
82354SOL    HW248896   4.086  10.973   2.308
82355SOL     OW48897   7.824   3.482   0.452
82355SOL    HW148898   7.903   3.525   0.420
82355SOL    HW248899   7.771   3.552   0.489
82356SOL     OW48900   5.489  11.772   0.383
82356SOL    HW148901   5.416  11.710   0.385
82356SOL    HW248902   5.468  11.831   0.311
82357SOL     OW48903  10.629   9.486   3.625
82357SOL    HW148904  10.711   9.484   3.575
82357SOL    HW248905  10.586   9.567   3.598
82358SOL     OW48906   6.766   3.544  10.778
82358SOL    HW148907   6.818   3.465  10.789
82358SOL    HW248908   6.829   3.612  10.753
82359SOL     OW48909   9.832  14.360  13.214
82359SOL    HW148910   9.750  14.351  13.165
82359SOL    HW248911   9.806  14.400  13.297
82360SOL     OW48912  13.035   1.572  11.447
82360SOL    HW148913  13.079   1.527  11.520
82360SOL    HW248914  13.104   1.622  11.404
82361SOL     OW48915   4.694  13.329   2.300
82361SOL    HW148916   4.755  13.278   2.246
82361SOL    HW248917   4.667  13.401   2.244
82362SOL     OW48918  13.126   3.445   9.570
82362SOL    HW148919  13.203   3.390   9.584
82362SOL    HW248920  13.084   3.451   9.656
82363SOL     OW48921  10.353  10.718  12.099
82363SOL    HW148922  10.309  10.647  12.051
82363SOL    HW248923  10.295  10.793  12.088
82364SOL     OW48924   0.042  11.348  14.503
82364SOL    HW148925   0.099  11.424  14.512
82364SOL    HW248926   0.102  11.273  14.505
82365SOL     OW48927  13.076   9.189  11.702
82365SOL    HW148928  13.027   9.132  11.643
82365SOL    HW248929  13.147   9.134  11.735
82366SOL     OW48930  12.784  10.656  12.929
82366SOL    HW148931  12.809  10.570  12.893
82366SOL    HW248932  12.798  10.717  12.857
82367SOL     OW48933  10.785   8.600  10.606
82367SOL    HW148934  10.725   8.639  10.542
82367SOL    HW248935  10.728   8.561  10.672
82368SOL     OW48936   8.434   8.535  13.520
82368SOL    HW148937   8.473   8.491  13.444
82368SOL    HW248938   8.341   8.543  13.498
82369SOL     OW48939  10.297  10.156   0.475
82369SOL    HW148940  10.249  10.147   0.394
82369SOL    HW248941  10.233  10.138   0.544
82370SOL     OW48942   7.593   7.116   0.771
82370SOL    HW148943   7.661   7.160   0.721
82370SOL    HW248944   7.640   7.070   0.841
82371SOL     OW48945   1.223   6.736   3.270
82371SOL    HW148946   1.224   6.772   3.358
82371SOL    HW248947   1.130   6.728   3.248
82372SOL     OW48948   0.169  13.410   7.263
82372SOL    HW148949   0.113  13.452   7.329
82372SOL    HW248950   0.250  13.462   7.263
82373SOL     OW48951   1.078   7.331   8.379
82373SOL    HW148952   1.138   7.403   8.397
82373SOL    HW248953   1.057   7.341   8.286
82374SOL     OW48954  12.517   3.581   9.494
82374SOL    HW148955  12.563   3.541   9.420
82374SOL    HW248956  12.565   3.551   9.571
82375SOL     OW48957   1.679   2.465   6.325
82375SOL    HW148958   1.607   2.527   6.333
82375SOL    HW248959   1.686   2.424   6.411
82376SOL     OW48960   6.994  13.459   1.989
82376SOL    HW148961   7.018  13.527   1.927
82376SOL    HW248962   6.993  13.502   2.075
82377SOL     OW48963   5.867   0.921   8.397
82377SOL    HW148964   5.842   0.846   8.344
82377SOL    HW248965   5.843   0.998   8.344
82378SOL     OW48966  11.212  12.681   5.928
82378SOL    HW148967  11.280  12.647   5.986
82378SOL    HW248968  11.249  12.671   5.840
82379SOL     OW48969   3.410   0.127   7.748
82379SOL    HW148970   3.390   0.040   7.784
82379SOL    HW248971   3.473   0.109   7.677
82380SOL     OW48972   3.946   9.555  11.509
82380SOL    HW148973   4.037   9.530  11.496
82380SOL    HW248974   3.909   9.560  11.421
82381SOL     OW48975  11.684  11.918   0.579
82381SOL    HW148976  11.736  11.850   0.537
82381SOL    HW248977  11.727  12.000   0.553
82382SOL     OW48978   3.992   4.219   5.712
82382SOL    HW148979   4.056   4.282   5.747
82382SOL    HW248980   4.034   4.134   5.724
82383SOL     OW48981   5.792   5.111   3.120
82383SOL    HW148982   5.773   5.183   3.180
82383SOL    HW248983   5.848   5.051   3.170
82384SOL     OW48984   1.846  11.170   1.921
82384SOL    HW148985   1.757  11.197   1.903
82384SOL    HW248986   1.840  11.077   1.942
82385SOL     OW48987   6.491   7.321   2.397
82385SOL    HW148988   6.561   7.264   2.427
82385SOL    HW248989   6.523   7.410   2.413
82386SOL     OW48990  11.131  12.027   1.337
82386SOL    HW148991  11.109  11.960   1.402
82386SOL    HW248992  11.082  12.104   1.365
82387SOL     OW48993   8.018   8.982   7.984
82387SOL    HW148994   7.974   9.065   7.963
82387SOL    HW248995   7.946   8.919   7.994
82388SOL     OW48996   4.032   7.268   3.410
82388SOL    HW148997   4.070   7.180   3.411
82388SOL    HW248998   4.107   7.326   3.396
82389SOL     OW48999  14.252  14.535   5.498
82389SOL    HW149000  14.319  14.527   5.429
82389SOL    HW249001  14.228  14.627   5.498
82390SOL     OW49002  12.581   5.986  10.297
82390SOL    HW149003  12.606   6.048  10.228
82390SOL    HW249004  12.654   5.987  10.358
82391SOL     OW49005  13.184   8.436   1.812
82391SOL    HW149006  13.166   8.490   1.889
82391SOL    HW249007  13.104   8.440   1.760
82392SOL     OW49008   3.319   4.103   8.749
82392SOL    HW149009   3.231   4.104   8.713
82392SOL    HW249010   3.340   4.010   8.759
82393SOL     OW49011  13.237   4.086  12.445
82393SOL    HW149012  13.232   4.012  12.506
82393SOL    HW249013  13.323   4.125  12.462
82394SOL     OW49014   0.701   6.942  14.173
82394SOL    HW149015   0.610   6.926  14.147
82394SOL    HW249016   0.709   6.900  14.259
82395SOL     OW49017  11.418   7.932  12.013
82395SOL    HW149018  11.472   7.884  11.950
82395SOL    HW249019  11.480   7.991  12.057
82396SOL     OW49020   8.519   9.862   3.062
82396SOL    HW149021   8.535   9.875   2.968
82396SOL    HW249022   8.462   9.786   3.067
82397SOL     OW49023  14.839   0.556   8.840
82397SOL    HW149024  14.822   0.526   8.929
82397SOL    HW249025   0.044   0.602   8.845
82398SOL     OW49026   8.157   2.229  10.225
82398SOL    HW149027   8.163   2.297  10.157
82398SOL    HW249028   8.210   2.157  10.192
82399SOL     OW49029  14.093  14.171   5.607
82399SOL    HW149030  14.011  14.126   5.626
82399SOL    HW249031  14.068  14.263   5.598
82400SOL     OW49032   2.265   2.961   0.879
82400SOL    HW149033   2.316   2.971   0.959
82400SOL    HW249034   2.181   2.926   0.907
82401SOL     OW49035  11.213   6.781  11.359
82401SOL    HW149036  11.235   6.858  11.306
82401SOL    HW249037  11.237   6.806  11.448
82402SOL     OW49038   7.547  10.737   0.721
82402SOL    HW149039   7.580  10.726   0.632
82402SOL    HW249040   7.498  10.820   0.718
82403SOL     OW49041   9.496  14.624   8.395
82403SOL    HW149042   9.415  14.672   8.377
82403SOL    HW249043   9.480  14.580   8.478
82404SOL     OW49044   0.748  11.352   8.684
82404SOL    HW149045   0.752  11.283   8.750
82404SOL    HW249046   0.744  11.306   8.601
82405SOL     OW49047   8.144   1.405   5.861
82405SOL    HW149048   8.066   1.377   5.812
82405SOL    HW249049   8.215   1.402   5.797
82406SOL     OW49050   2.612   3.452  14.100
82406SOL    HW149051   2.669   3.399  14.155
82406SOL    HW249052   2.615   3.539  14.139
82407SOL     OW49053   2.824   2.748  10.281
82407SOL    HW149054   2.795   2.765  10.370
82407SOL    HW249055   2.784   2.665  10.257
82408SOL     OW49056   4.371   3.687  13.529
82408SOL    HW149057   4.347   3.766  13.578
82408SOL    HW249058   4.344   3.707  13.439
82409SOL     OW49059   2.620  13.298   7.932
82409SOL    HW149060   2.541  13.310   7.984
82409SOL    HW249061   2.691  13.298   7.996
82410SOL     OW49062  11.053   0.551  14.686
82410SOL    HW149063  10.960   0.538  14.669
82410SOL    HW249064  11.060   0.644  14.711
82411SOL     OW49065  10.376  14.835   2.839
82411SOL    HW149066  10.375   0.023   2.771
82411SOL    HW249067  10.289  14.840   2.879
82412SOL     OW49068   1.900  10.599   9.943
82412SOL    HW149069   1.826  10.540   9.959
82412SOL    HW249070   1.860  10.685   9.931
82413SOL     OW49071  13.170   7.947   8.969
82413SOL    HW149072  13.232   7.984   9.032
82413SOL    HW249073  13.094   7.922   9.021
82414SOL     OW49074  12.728  12.661   7.855
82414SOL    HW149075  12.635  12.645   7.872
82414SOL    HW249076  12.736  12.659   7.760
82415SOL     OW49077  14.692  13.502   1.504
82415SOL    HW149078  14.728  13.581   1.464
82415SOL    HW249079  14.704  13.515   1.598
82416SOL     OW49080   4.448   0.278   6.335
82416SOL    HW149081   4.427   0.367   6.305
82416SOL    HW249082   4.446   0.284   6.431
82417SOL     OW49083   7.106   5.343   6.007
82417SOL    HW149084   7.068   5.256   5.994
82417SOL    HW249085   7.036   5.404   5.985
82418SOL     OW49086  11.666   7.568   2.281
82418SOL    HW149087  11.673   7.512   2.358
82418SOL    HW249088  11.606   7.638   2.308
82419SOL     OW49089  13.272  13.912   2.359
82419SOL    HW149090  13.194  13.958   2.328
82419SOL    HW249091  13.267  13.825   2.319
82420SOL     OW49092  13.341   6.938  10.473
82420SOL    HW149093  13.374   6.990  10.400
82420SOL    HW249094  13.259   6.981  10.498
82421SOL     OW49095   5.648   3.433  11.796
82421SOL    HW149096   5.695   3.497  11.744
82421SOL    HW249097   5.595   3.485  11.857
82422SOL     OW49098   2.223  11.784   8.539
82422SOL    HW149099   2.129  11.764   8.536
82422SOL    HW249100   2.239  11.808   8.630
82423SOL     OW49101  13.864  10.890  13.540
82423SOL    HW149102  13.941  10.833  13.539
82423SOL    HW249103  13.827  10.880  13.452
82424SOL     OW49104   6.813   6.631  12.188
82424SOL    HW149105   6.783   6.671  12.270
82424SOL    HW249106   6.895   6.587  12.212
82425SOL     OW49107   2.207   0.614  13.319
82425SOL    HW149108   2.247   0.699  13.336
82425SOL    HW249109   2.280   0.558  13.292
82426SOL     OW49110   9.472  11.570   9.953
82426SOL    HW149111   9.393  11.614   9.983
82426SOL    HW249112   9.524  11.639   9.911
82427SOL     OW49113   2.650   3.566   0.990
82427SOL    HW149114   2.582   3.522   1.042
82427SOL    HW249115   2.690   3.627   1.052
82428SOL     OW49116   0.566   3.193  12.368
82428SOL    HW149117   0.620   3.260  12.408
82428SOL    HW249118   0.488   3.239  12.337
82429SOL     OW49119   0.052  10.122   9.982
82429SOL    HW149120   0.062  10.189  10.050
82429SOL    HW249121   0.132  10.071   9.986
82430SOL     OW49122   8.683   1.363  11.335
82430SOL    HW149123   8.615   1.348  11.270
82430SOL    HW249124   8.714   1.275  11.357
82431SOL     OW49125   7.297  13.503   7.733
82431SOL    HW149126   7.334  13.476   7.817
82431SOL    HW249127   7.359  13.568   7.700
82432SOL     OW49128   3.818  12.768   8.071
82432SOL    HW149129   3.724  12.782   8.056
82432SOL    HW249130   3.839  12.692   8.016
82433SOL     OW49131   9.913  11.476  10.608
82433SOL    HW149132   9.989  11.534  10.616
82433SOL    HW249133   9.887  11.457  10.698
82434SOL     OW49134   9.679   0.920   5.730
82434SOL    HW149135   9.757   0.928   5.674
82434SOL    HW249136   9.663   1.009   5.761
82435SOL     OW49137   2.093   6.051   7.348
82435SOL    HW149138   2.173   6.099   7.370
82435SOL    HW249139   2.123   5.979   7.292
82436SOL     OW49140   7.620  12.097   1.181
82436SOL    HW149141   7.711  12.074   1.199
82436SOL    HW249142   7.622  12.129   1.090
82437SOL     OW49143  10.223   2.951   8.647
82437SOL    HW149144  10.222   2.917   8.557
82437SOL    HW249145  10.312   2.984   8.659
82438SOL     OW49146   6.487   6.404   0.355
82438SOL    HW149147   6.398   6.437   0.349
82438SOL    HW249148   6.532   6.441   0.279
82439SOL     OW49149   7.853   9.979   8.783
82439SOL    HW149150   7.931  10.012   8.739
82439SOL    HW249151   7.843   9.889   8.751
82440SOL     OW49152   8.850   0.137   0.459
82440SOL    HW149153   8.822   0.099   0.376
82440SOL    HW249154   8.772   0.133   0.515
82441SOL     OW49155  14.528   4.405   7.648
82441SOL    HW149156  14.509   4.494   7.676
82441SOL    HW249157  14.601   4.378   7.704
82442SOL     OW49158   9.181   9.800   6.100
82442SOL    HW149159   9.228   9.794   6.016
82442SOL    HW249160   9.166   9.893   6.112
82443SOL     OW49161   2.890  11.555   3.607
82443SOL    HW149162   2.872  11.525   3.518
82443SOL    HW249163   2.805  11.581   3.642
82444SOL     OW49164   3.824   3.230  12.812
82444SOL    HW149165   3.737   3.267  12.801
82444SOL    HW249166   3.814   3.137  12.795
82445SOL     OW49167   8.575  10.202  10.438
82445SOL    HW149168   8.620  10.137  10.492
82445SOL    HW249169   8.498  10.156  10.404
82446SOL     OW49170   3.983   5.647   4.537
82446SOL    HW149171   4.055   5.590   4.513
82446SOL    HW249172   3.967   5.700   4.459
82447SOL     OW49173  10.193   8.633   7.655
82447SOL    HW149174  10.246   8.686   7.596
82447SOL    HW249175  10.155   8.565   7.599
82448SOL     OW49176   7.360   3.666   0.971
82448SOL    HW149177   7.310   3.633   0.896
82448SOL    HW249178   7.440   3.613   0.972
82449SOL     OW49179   5.930   2.789   5.874
82449SOL    HW149180   5.867   2.811   5.805
82449SOL    HW249181   5.941   2.871   5.923
82450SOL     OW49182   6.996   6.955  12.601
82450SOL    HW149183   6.946   6.988  12.526
82450SOL    HW249184   6.997   6.860  12.590
82451SOL     OW49185   1.882   6.203   4.911
82451SOL    HW149186   1.862   6.271   4.847
82451SOL    HW249187   1.856   6.240   4.995
82452SOL     OW49188   6.671   6.726   8.142
82452SOL    HW149189   6.750   6.697   8.187
82452SOL    HW249190   6.645   6.806   8.188
82453SOL     OW49191   0.236   8.122  13.738
82453SOL    HW149192   0.207   8.153  13.652
82453SOL    HW249193   0.155   8.107  13.786
82454SOL     OW49194   5.320   3.000   5.681
82454SOL    HW149195   5.349   2.912   5.705
82454SOL    HW249196   5.401   3.050   5.668
82455SOL     OW49197   6.561   5.386   4.378
82455SOL    HW149198   6.541   5.397   4.471
82455SOL    HW249199   6.476   5.367   4.337
82456SOL     OW49200   6.829   4.718  11.458
82456SOL    HW149201   6.879   4.792  11.494
82456SOL    HW249202   6.840   4.648  11.522
82457SOL     OW49203   1.552   7.758   4.131
82457SOL    HW149204   1.597   7.752   4.215
82457SOL    HW249205   1.614   7.722   4.068
82458SOL     OW49206  12.199  14.781   6.361
82458SOL    HW149207  12.240  14.770   6.276
82458SOL    HW249208  12.123  14.838   6.345
82459SOL     OW49209   1.916   0.860   8.214
82459SOL    HW149210   1.832   0.814   8.208
82459SOL    HW249211   1.981   0.790   8.209
82460SOL     OW49212   9.875   6.712   4.298
82460SOL    HW149213   9.924   6.659   4.235
82460SOL    HW249214   9.842   6.786   4.248
82461SOL     OW49215  11.750  14.611   8.455
82461SOL    HW149216  11.683  14.561   8.502
82461SOL    HW249217  11.820  14.547   8.437
82462SOL     OW49218   9.003  13.532   3.619
82462SOL    HW149219   9.024  13.440   3.604
82462SOL    HW249220   8.910  13.539   3.596
82463SOL     OW49221  13.237   2.728   2.722
82463SOL    HW149222  13.308   2.680   2.765
82463SOL    HW249223  13.263   2.733   2.630
82464SOL     OW49224  10.326   0.956  10.369
82464SOL    HW149225  10.387   1.024  10.341
82464SOL    HW249226  10.365   0.874  10.339
82465SOL     OW49227   1.981   3.791   4.269
82465SOL    HW149228   2.038   3.718   4.246
82465SOL    HW249229   2.001   3.859   4.205
82466SOL     OW49230  12.100  12.039   9.696
82466SOL    HW149231  12.138  12.068   9.613
82466SOL    HW249232  12.060  11.955   9.676
82467SOL     OW49233   0.214   8.353   6.684
82467SOL    HW149234   0.247   8.416   6.619
82467SOL    HW249235   0.199   8.406   6.762
82468SOL     OW49236   7.497  10.992   3.687
82468SOL    HW149237   7.403  10.990   3.667
82468SOL    HW249238   7.504  11.052   3.761
82469SOL     OW49239   3.258  10.448   0.825
82469SOL    HW149240   3.349  10.455   0.855
82469SOL    HW249241   3.229  10.363   0.857
82470SOL     OW49242  10.827   7.189   2.881
82470SOL    HW149243  10.754   7.156   2.830
82470SOL    HW249244  10.857   7.266   2.833
82471SOL     OW49245  12.202   8.874   3.820
82471SOL    HW149246  12.224   8.924   3.899
82471SOL    HW249247  12.137   8.810   3.849
82472SOL     OW49248   7.601   6.355   9.693
82472SOL    HW149249   7.598   6.324   9.602
82472SOL    HW249250   7.512   6.385   9.711
82473SOL     OW49251  11.260  11.032  11.129
82473SOL    HW149252  11.251  10.941  11.158
82473SOL    HW249253  11.312  11.025  11.048
82474SOL     OW49254   2.870  10.876  11.224
82474SOL    HW149255   2.926  10.896  11.148
82474SOL    HW249256   2.787  10.850  11.185
82475SOL     OW49257   3.725  11.369   5.997
82475SOL    HW149258   3.744  11.448   5.947
82475SOL    HW249259   3.637  11.344   5.970
82476SOL     OW49260   5.482  11.703  11.134
82476SOL    HW149261   5.546  11.747  11.077
82476SOL    HW249262   5.441  11.775  11.183
82477SOL     OW49263   4.814   8.788  11.251
82477SOL    HW149264   4.760   8.865  11.234
82477SOL    HW249265   4.825   8.787  11.346
82478SOL     OW49266   8.267   0.792   6.833
82478SOL    HW149267   8.343   0.772   6.887
82478SOL    HW249268   8.303   0.831   6.753
82479SOL     OW49269   0.670   4.316  13.512
82479SOL    HW149270   0.695   4.354  13.597
82479SOL    HW249271   0.580   4.287  13.525
82480SOL     OW49272  12.587   8.942  10.208
82480SOL    HW149273  12.580   8.910  10.298
82480SOL    HW249274  12.673   8.984  10.205
82481SOL     OW49275  14.598   4.007   3.054
82481SOL    HW149276  14.572   3.922   3.019
82481SOL    HW249277  14.644   4.050   2.981
82482SOL     OW49278  10.665   8.071  10.846
82482SOL    HW149279  10.671   8.167  10.842
82482SOL    HW249280  10.579   8.055  10.885
82483SOL     OW49281  11.297  12.559   6.250
82483SOL    HW149282  11.367  12.546   6.186
82483SOL    HW249283  11.221  12.516   6.211
82484SOL     OW49284   9.079   6.807  13.337
82484SOL    HW149285   9.106   6.760  13.258
82484SOL    HW249286   9.151   6.868  13.354
82485SOL     OW49287   5.942  14.348  13.058
82485SOL    HW149288   5.890  14.274  13.089
82485SOL    HW249289   5.903  14.371  12.973
82486SOL     OW49290   1.734   9.908  11.936
82486SOL    HW149291   1.751  10.002  11.931
82486SOL    HW249292   1.820   9.868  11.934
82487SOL     OW49293   7.512   2.601   6.847
82487SOL    HW149294   7.508   2.679   6.791
82487SOL    HW249295   7.472   2.629   6.929
82488SOL     OW49296  13.915  14.645  14.437
82488SOL    HW149297  13.976  14.718  14.432
82488SOL    HW249298  13.940  14.598  14.517
82489SOL     OW49299   1.131  11.822   4.275
82489SOL    HW149300   1.073  11.754   4.241
82489SOL    HW249301   1.101  11.836   4.365
82490SOL     OW49302   0.250   8.323  13.458
82490SOL    HW149303   0.237   8.286  13.370
82490SOL    HW249304   0.338   8.293  13.483
82491SOL     OW49305   3.022   0.583   8.013
82491SOL    HW149306   3.005   0.512   7.951
82491SOL    HW249307   2.949   0.579   8.075
82492SOL     OW49308  12.527   8.164  11.457
82492SOL    HW149309  12.529   8.076  11.420
82492SOL    HW249310  12.616   8.197  11.448
82493SOL     OW49311   2.028   4.488   4.580
82493SOL    HW149312   1.974   4.513   4.655
82493SOL    HW249313   2.074   4.569   4.556
82494SOL     OW49314   4.197   0.627  13.420
82494SOL    HW149315   4.161   0.712  13.395
82494SOL    HW249316   4.154   0.606  13.502
82495SOL     OW49317  13.785  14.832   2.376
82495SOL    HW149318  13.721  14.780   2.425
82495SOL    HW249319  13.867  14.819   2.425
82496SOL     OW49320   7.122   8.407   2.919
82496SOL    HW149321   7.170   8.377   2.996
82496SOL    HW249322   7.030   8.404   2.946
82497SOL     OW49323   7.208   6.302   2.860
82497SOL    HW149324   7.122   6.317   2.899
82497SOL    HW249325   7.271   6.329   2.928
82498SOL     OW49326   7.500  13.989   4.679
82498SOL    HW149327   7.522  13.983   4.586
82498SOL    HW249328   7.491  13.898   4.707
82499SOL     OW49329   6.649   5.799  14.548
82499SOL    HW149330   6.609   5.852  14.617
82499SOL    HW249331   6.726   5.760  14.589
82500SOL     OW49332   3.672   9.491   1.127
82500SOL    HW149333   3.709   9.437   1.058
82500SOL    HW249334   3.723   9.572   1.125
82501SOL     OW49335   9.076  10.339   5.828
82501SOL    HW149336   9.060  10.383   5.744
82501SOL    HW249337   8.992  10.345   5.873
82502SOL     OW49338  13.391   2.236   1.996
82502SOL    HW149339  13.448   2.212   2.069
82502SOL    HW249340  13.391   2.332   1.995
82503SOL     OW49341   8.239   2.658   1.878
82503SOL    HW149342   8.305   2.714   1.919
82503SOL    HW249343   8.176   2.640   1.947
82504SOL     OW49344  14.108   9.155   6.232
82504SOL    HW149345  14.158   9.146   6.313
82504SOL    HW249346  14.037   9.215   6.254
82505SOL     OW49347   2.623   5.148   6.616
82505SOL    HW149348   2.553   5.214   6.612
82505SOL    HW249349   2.608   5.103   6.699
82506SOL     OW49350   9.113   9.665   0.766
82506SOL    HW149351   9.201   9.667   0.802
82506SOL    HW249352   9.106   9.579   0.725
82507SOL     OW49353   9.543   3.500   9.389
82507SOL    HW149354   9.596   3.549   9.451
82507SOL    HW249355   9.468   3.558   9.371
82508SOL     OW49356   2.782   2.350   4.999
82508SOL    HW149357   2.733   2.268   5.009
82508SOL    HW249358   2.846   2.348   5.071
82509SOL     OW49359   6.939   9.744   0.037
82509SOL    HW149360   6.999   9.734   0.111
82509SOL    HW249361   6.951   9.835   0.009
82510SOL     OW49362   2.639  14.755  13.161
82510SOL    HW149363   2.700  14.754  13.087
82510SOL    HW249364   2.637  14.664  13.191
82511SOL     OW49365  12.398   4.620   3.935
82511SOL    HW149366  12.314   4.666   3.940
82511SOL    HW249367  12.413   4.587   4.024
82512SOL     OW49368   3.259   5.438   3.933
82512SOL    HW149369   3.168   5.410   3.923
82512SOL    HW249370   3.259   5.531   3.909
82513SOL     OW49371   4.386  12.397   7.583
82513SOL    HW149372   4.374  12.481   7.627
82513SOL    HW249373   4.481  12.387   7.575
82514SOL     OW49374   0.081   2.313  14.173
82514SOL    HW149375   0.112   2.234  14.128
82514SOL    HW249376   0.061   2.283  14.262
82515SOL     OW49377  13.196  14.215   9.085
82515SOL    HW149378  13.176  14.301   9.120
82515SOL    HW249379  13.237  14.168   9.157
82516SOL     OW49380   7.251   7.036  12.981
82516SOL    HW149381   7.196   7.031  12.903
82516SOL    HW249382   7.290   7.123  12.977
82517SOL     OW49383  14.349   5.664   7.488
82517SOL    HW149384  14.377   5.633   7.574
82517SOL    HW249385  14.341   5.585   7.435
82518SOL     OW49386   0.946  12.298   2.397
82518SOL    HW149387   0.995  12.379   2.384
82518SOL    HW249388   0.892  12.289   2.317
82519SOL     OW49389   1.615   7.615  12.513
82519SOL    HW149390   1.673   7.563  12.569
82519SOL    HW249391   1.580   7.683  12.570
82520SOL     OW49392   1.590   5.260   2.236
82520SOL    HW149393   1.619   5.333   2.291
82520SOL    HW249394   1.512   5.294   2.191
82521SOL     OW49395  14.859   4.579  10.080
82521SOL    HW149396   0.025   4.495  10.066
82521SOL    HW249397  14.767   4.560  10.060
82522SOL     OW49398   9.605   6.054   8.714
82522SOL    HW149399   9.570   6.140   8.733
82522SOL    HW249400   9.688   6.071   8.668
82523SOL     OW49401   8.816   2.457  13.842
82523SOL    HW149402   8.721   2.465  13.846
82523SOL    HW249403   8.837   2.384  13.900
82524SOL     OW49404  11.054  13.646  11.075
82524SOL    HW149405  11.065  13.646  10.980
82524SOL    HW249406  11.116  13.581  11.106
82525SOL     OW49407   8.756   5.438  14.066
82525SOL    HW149408   8.834   5.411  14.113
82525SOL    HW249409   8.789   5.488  13.991
82526SOL     OW49410  12.682  14.799   4.663
82526SOL    HW149411  12.632  14.756   4.733
82526SOL    HW249412  12.773  14.793   4.693
82527SOL     OW49413   7.697  13.082   2.169
82527SOL    HW149414   7.651  13.107   2.249
82527SOL    HW249415   7.667  13.145   2.103
82528SOL     OW49416   5.970  14.622   3.019
82528SOL    HW149417   5.964  14.677   3.097
82528SOL    HW249418   5.921  14.670   2.952
82529SOL     OW49419   2.861   6.005   4.478
82529SOL    HW149420   2.920   5.933   4.502
82529SOL    HW249421   2.846   5.993   4.384
82530SOL     OW49422   3.913   5.561  13.343
82530SOL    HW149423   3.873   5.475  13.325
82530SOL    HW249424   3.850   5.624  13.307
82531SOL     OW49425   7.126  13.140   6.844
82531SOL    HW149426   7.074  13.132   6.764
82531SOL    HW249427   7.214  13.113   6.819
82532SOL     OW49428  11.646   5.361  10.450
82532SOL    HW149429  11.672   5.453  10.443
82532SOL    HW249430  11.593   5.345  10.372
82533SOL     OW49431   8.843   7.907  14.313
82533SOL    HW149432   8.788   7.919  14.390
82533SOL    HW249433   8.929   7.883  14.348
82534SOL     OW49434  12.521   9.808   2.989
82534SOL    HW149435  12.513   9.784   3.082
82534SOL    HW249436  12.501   9.902   2.987
82535SOL     OW49437  12.525   2.365  13.728
82535SOL    HW149438  12.452   2.357  13.667
82535SOL    HW249439  12.575   2.440  13.696
82536SOL     OW49440   9.575  12.649   7.264
82536SOL    HW149441   9.509  12.584   7.240
82536SOL    HW249442   9.651  12.597   7.288
82537SOL     OW49443  10.311   6.313   1.869
82537SOL    HW149444  10.402   6.319   1.839
82537SOL    HW249445  10.317   6.301   1.963
82538SOL     OW49446   9.021   9.726   5.272
82538SOL    HW149447   9.105   9.739   5.317
82538SOL    HW249448   8.960   9.782   5.319
82539SOL     OW49449   9.463   1.462  11.731
82539SOL    HW149450   9.479   1.540  11.677
82539SOL    HW249451   9.411   1.495  11.805
82540SOL     OW49452  10.406  12.817   6.704
82540SOL    HW149453  10.326  12.793   6.751
82540SOL    HW249454  10.375  12.853   6.621
82541SOL     OW49455  11.095   4.050  13.518
82541SOL    HW149456  11.079   4.143  13.537
82541SOL    HW249457  11.185   4.047  13.487
82542SOL     OW49458   1.963   3.291   7.037
82542SOL    HW149459   1.920   3.216   6.995
82542SOL    HW249460   2.052   3.290   7.001
82543SOL     OW49461  11.150   2.615  14.114
82543SOL    HW149462  11.154   2.565  14.032
82543SOL    HW249463  11.061   2.651  14.116
82544SOL     OW49464  13.182   8.831   4.785
82544SOL    HW149465  13.152   8.780   4.710
82544SOL    HW249466  13.263   8.786   4.812
82545SOL     OW49467   2.059  10.006  14.640
82545SOL    HW149468   2.016   9.963  14.715
82545SOL    HW249469   2.123  10.065  14.680
82546SOL     OW49470   1.442   8.006   3.578
82546SOL    HW149471   1.416   8.053   3.658
82546SOL    HW249472   1.367   7.951   3.557
82547SOL     OW49473  13.583   6.126   9.921
82547SOL    HW149474  13.537   6.065   9.864
82547SOL    HW249475  13.671   6.090   9.929
82548SOL     OW49476   4.345  12.273  11.695
82548SOL    HW149477   4.402  12.211  11.650
82548SOL    HW249478   4.303  12.222  11.765
82549SOL     OW49479  10.554  12.030   4.294
82549SOL    HW149480  10.544  12.125   4.290
82549SOL    HW249481  10.584  12.005   4.207
82550SOL     OW49482   8.045  14.361   5.026
82550SOL    HW149483   8.113  14.333   4.965
82550SOL    HW249484   7.984  14.412   4.973
82551SOL     OW49485   9.928   5.847  11.188
82551SOL    HW149486   9.975   5.908  11.244
82551SOL    HW249487   9.978   5.765  11.194
82552SOL     OW49488  14.287   7.841  11.586
82552SOL    HW149489  14.345   7.898  11.637
82552SOL    HW249490  14.334   7.827  11.504
82553SOL     OW49491   3.627   8.823   6.887
82553SOL    HW149492   3.678   8.899   6.859
82553SOL    HW249493   3.616   8.771   6.807
82554SOL     OW49494   8.549   4.184   2.114
82554SOL    HW149495   8.539   4.126   2.189
82554SOL    HW249496   8.479   4.249   2.124
82555SOL     OW49497   2.661   0.980   4.284
82555SOL    HW149498   2.679   0.960   4.376
82555SOL    HW249499   2.744   1.014   4.250
82556SOL     OW49500   4.834   0.959  14.034
82556SOL    HW149501   4.890   0.943  13.959
82556SOL    HW249502   4.759   0.900  14.022
82557SOL     OW49503   3.335   1.953   8.903
82557SOL    HW149504   3.420   1.987   8.875
82557SOL    HW249505   3.278   2.030   8.902
82558SOL     OW49506  14.370   5.576   0.104
82558SOL    HW149507  14.332   5.488   0.101
82558SOL    HW249508  14.415   5.586   0.020
82559SOL     OW49509   2.832   5.512  11.208
82559SOL    HW149510   2.782   5.505  11.290
82559SOL    HW249511   2.765   5.519  11.140
82560SOL     OW49512   5.904  11.259   5.004
82560SOL    HW149513   5.988  11.223   5.030
82560SOL    HW249514   5.924  11.347   4.971
82561SOL     OW49515   2.137   5.507   7.859
82561SOL    HW149516   2.057   5.459   7.840
82561SOL    HW249517   2.116   5.598   7.837
82562SOL     OW49518   7.727   4.486   3.881
82562SOL    HW149519   7.722   4.574   3.919
82562SOL    HW249520   7.736   4.428   3.956
82563SOL     OW49521   8.470   6.773   4.507
82563SOL    HW149522   8.514   6.856   4.489
82563SOL    HW249523   8.385   6.781   4.464
82564SOL     OW49524   8.945   5.424   8.428
82564SOL    HW149525   9.011   5.472   8.479
82564SOL    HW249526   8.861   5.461   8.457
82565SOL     OW49527   5.405  10.723  11.122
82565SOL    HW149528   5.500  10.722  11.129
82565SOL    HW249529   5.377  10.789  11.185
82566SOL     OW49530  11.817   7.806   5.090
82566SOL    HW149531  11.817   7.772   5.001
82566SOL    HW249532  11.894   7.767   5.131
82567SOL     OW49533   5.277  12.854   1.693
82567SOL    HW149534   5.216  12.919   1.659
82567SOL    HW249535   5.222  12.783   1.726
82568SOL     OW49536   6.361   4.723  11.091
82568SOL    HW149537   6.416   4.788  11.136
82568SOL    HW249538   6.422   4.654  11.066
82569SOL     OW49539  11.395   9.392   6.557
82569SOL    HW149540  11.303   9.396   6.584
82569SOL    HW249541  11.394   9.417   6.465
82570SOL     OW49542  12.088   2.843   0.427
82570SOL    HW149543  12.087   2.833   0.522
82570SOL    HW249544  12.051   2.761   0.395
82571SOL     OW49545  11.996   4.377   8.695
82571SOL    HW149546  11.913   4.359   8.740
82571SOL    HW249547  12.058   4.314   8.732
82572SOL     OW49548   5.015  10.066   4.460
82572SOL    HW149549   5.037   9.991   4.515
82572SOL    HW249550   5.008  10.139   4.522
82573SOL     OW49551   1.928   6.072   7.755
82573SOL    HW149552   1.961   5.993   7.714
82573SOL    HW249553   1.847   6.044   7.799
82574SOL     OW49554  11.898   1.609   1.128
82574SOL    HW149555  11.949   1.533   1.099
82574SOL    HW249556  11.807   1.580   1.124
82575SOL     OW49557   8.945   5.777   5.352
82575SOL    HW149558   9.011   5.757   5.286
82575SOL    HW249559   8.917   5.692   5.385
82576SOL     OW49560   5.182   3.537   5.885
82576SOL    HW149561   5.124   3.530   5.961
82576SOL    HW249562   5.153   3.617   5.841
82577SOL     OW49563  13.747  10.384  12.419
82577SOL    HW149564  13.790  10.299  12.409
82577SOL    HW249565  13.781  10.436  12.347
82578SOL     OW49566  11.457   2.895   5.027
82578SOL    HW149567  11.387   2.959   5.041
82578SOL    HW249568  11.507   2.930   4.953
82579SOL     OW49569   2.273   7.706   5.885
82579SOL    HW149570   2.362   7.683   5.858
82579SOL    HW249571   2.223   7.625   5.875
82580SOL     OW49572  12.104   4.188   6.468
82580SOL    HW149573  12.090   4.131   6.393
82580SOL    HW249574  12.062   4.142   6.541
82581SOL     OW49575  13.257  14.466   5.741
82581SOL    HW149576  13.238  14.514   5.661
82581SOL    HW249577  13.352  14.470   5.750
82582SOL     OW49578   8.674   6.150  10.859
82582SOL    HW149579   8.617   6.209  10.909
82582SOL    HW249580   8.724   6.209  10.802
82583SOL     OW49581   5.099  13.959  10.877
82583SOL    HW149582   5.088  13.870  10.910
82583SOL    HW249583   5.181  13.989  10.917
82584SOL     OW49584   7.202  12.284   8.672
82584SOL    HW149585   7.260  12.223   8.626
82584SOL    HW249586   7.136  12.308   8.607
82585SOL     OW49587   9.701   2.569  11.973
82585SOL    HW149588   9.676   2.662  11.976
82585SOL    HW249589   9.791   2.569  11.941
82586SOL     OW49590   3.025  12.786  14.734
82586SOL    HW149591   3.080  12.832  14.670
82586SOL    HW249592   3.011  12.850  14.804
82587SOL     OW49593   0.401  13.135  13.931
82587SOL    HW149594   0.449  13.052  13.936
82587SOL    HW249595   0.421  13.179  14.014
82588SOL     OW49596   5.933   2.724  11.355
82588SOL    HW149597   5.959   2.741  11.265
82588SOL    HW249598   5.988   2.782  11.407
82589SOL     OW49599   9.872  10.491   6.282
82589SOL    HW149600   9.836  10.474   6.369
82589SOL    HW249601   9.868  10.586   6.273
82590SOL     OW49602  10.047   2.056  12.609
82590SOL    HW149603  10.010   2.137  12.645
82590SOL    HW249604  10.002   1.986  12.656
82591SOL     OW49605   5.381   8.547   4.821
82591SOL    HW149606   5.307   8.568   4.877
82591SOL    HW249607   5.400   8.628   4.774
82592SOL     OW49608   1.106   1.565  10.912
82592SOL    HW149609   1.142   1.654  10.907
82592SOL    HW249610   1.019   1.577  10.951
82593SOL     OW49611   6.382   7.957  14.010
82593SOL    HW149612   6.469   7.993  14.026
82593SOL    HW249613   6.324   8.033  14.009
82594SOL     OW49614  10.598   2.657   2.941
82594SOL    HW149615  10.525   2.712   2.969
82594SOL    HW249616  10.667   2.719   2.917
82595SOL     OW49617  14.327  11.309   6.424
82595SOL    HW149618  14.288  11.298   6.337
82595SOL    HW249619  14.255  11.294   6.485
82596SOL     OW49620   0.043   6.589   3.100
82596SOL    HW149621   0.135   6.573   3.122
82596SOL    HW249622  14.878   6.592   3.185
82597SOL     OW49623   1.767   9.602   6.215
82597SOL    HW149624   1.854   9.562   6.226
82597SOL    HW249625   1.744   9.583   6.124
82598SOL     OW49626   7.963  11.769  12.213
82598SOL    HW149627   7.989  11.846  12.163
82598SOL    HW249628   7.870  11.783  12.231
82599SOL     OW49629   7.502   8.215   2.043
82599SOL    HW149630   7.497   8.310   2.037
82599SOL    HW249631   7.581   8.192   1.995
82600SOL     OW49632  13.466   5.125   0.362
82600SOL    HW149633  13.500   5.214   0.347
82600SOL    HW249634  13.486   5.078   0.281
82601SOL     OW49635   3.418   8.124   5.861
82601SOL    HW149636   3.405   8.156   5.771
82601SOL    HW249637   3.342   8.069   5.878
82602SOL     OW49638   0.187   4.958   2.757
82602SOL    HW149639   0.126   5.016   2.804
82602SOL    HW249640   0.204   5.004   2.674
82603SOL     OW49641   5.287   4.141   1.991
82603SOL    HW149642   5.350   4.074   1.966
82603SOL    HW249643   5.264   4.121   2.081
82604SOL     OW49644  14.433   8.262  11.260
82604SOL    HW149645  14.343   8.250  11.230
82604SOL    HW249646  14.427   8.259  11.356
82605SOL     OW49647   1.363   8.386   5.718
82605SOL    HW149648   1.430   8.421   5.775
82605SOL    HW249649   1.404   8.381   5.632
82606SOL     OW49650  11.291   7.262   7.930
82606SOL    HW149651  11.379   7.234   7.956
82606SOL    HW249652  11.265   7.200   7.863
82607SOL     OW49653  14.403  10.735  11.499
82607SOL    HW149654  14.463  10.806  11.479
82607SOL    HW249655  14.334  10.741  11.433
82608SOL     OW49656   6.152  11.635  11.794
82608SOL    HW149657   6.182  11.633  11.884
82608SOL    HW249658   6.061  11.604  11.798
82609SOL     OW49659  12.269   2.117   6.040
82609SOL    HW149660  12.174   2.116   6.034
82609SOL    HW249661  12.291   2.036   6.086
82610SOL     OW49662  11.537  14.775   3.791
82610SOL    HW149663  11.609  14.720   3.762
82610SOL    HW249664  11.483  14.718   3.846
82611SOL     OW49665  14.410   3.317   2.886
82611SOL    HW149666  14.338   3.335   2.825
82611SOL    HW249667  14.420   3.399   2.934
82612SOL     OW49668   4.715   5.523   6.563
82612SOL    HW149669   4.784   5.492   6.504
82612SOL    HW249670   4.676   5.443   6.597
82613SOL     OW49671  11.491   4.534   2.270
82613SOL    HW149672  11.431   4.607   2.280
82613SOL    HW249673  11.457   4.484   2.196
82614SOL     OW49674  13.953   9.552   3.915
82614SOL    HW149675  14.045   9.553   3.941
82614SOL    HW249676  13.906   9.583   3.992
82615SOL     OW49677  10.025   6.158   8.424
82615SOL    HW149678   9.976   6.237   8.448
82615SOL    HW249679  10.108   6.167   8.470
82616SOL     OW49680   1.777  10.238  10.363
82616SOL    HW149681   1.684  10.244  10.340
82616SOL    HW249682   1.777  10.231  10.459
82617SOL     OW49683  13.691  10.806   3.615
82617SOL    HW149684  13.770  10.757   3.636
82617SOL    HW249685  13.722  10.897   3.607
82618SOL     OW49686   3.033  11.791   1.568
82618SOL    HW149687   3.065  11.794   1.658
82618SOL    HW249688   3.099  11.739   1.521
82619SOL     OW49689   7.975  14.722  10.864
82619SOL    HW149690   7.942  14.713  10.774
82619SOL    HW249691   8.014  14.638  10.884
82620SOL     OW49692   8.156  14.387  12.600
82620SOL    HW149693   8.173  14.442  12.677
82620SOL    HW249694   8.070  14.350  12.615
82621SOL     OW49695  13.116   8.670  10.476
82621SOL    HW149696  13.165   8.728  10.419
82621SOL    HW249697  13.057   8.727  10.525
82622SOL     OW49698   2.361  12.003   0.958
82622SOL    HW149699   2.330  11.966   1.041
82622SOL    HW249700   2.290  12.060   0.930
82623SOL     OW49701   9.463  12.736  12.826
82623SOL    HW149702   9.558  12.722  12.837
82623SOL    HW249703   9.424  12.661  12.871
82624SOL     OW49704   6.953   7.359   3.425
82624SOL    HW149705   7.011   7.426   3.461
82624SOL    HW249706   7.007   7.280   3.420
82625SOL     OW49707   7.581   3.361   7.972
82625SOL    HW149708   7.650   3.350   8.037
82625SOL    HW249709   7.513   3.412   8.018
82626SOL     OW49710  12.189   1.129   2.583
82626SOL    HW149711  12.281   1.133   2.609
82626SOL    HW249712  12.175   1.207   2.530
82627SOL     OW49713   7.555   0.257   6.755
82627SOL    HW149714   7.610   0.185   6.786
82627SOL    HW249715   7.575   0.330   6.813
82628SOL     OW49716   4.480   3.313   7.360
82628SOL    HW149717   4.513   3.336   7.274
82628SOL    HW249718   4.496   3.219   7.368
82629SOL     OW49719   4.937  14.127   1.307
82629SOL    HW149720   5.018  14.132   1.255
82629SOL    HW249721   4.968  14.116   1.397
82630SOL     OW49722   2.054   0.019   4.608
82630SOL    HW149723   2.022   0.026   4.697
82630SOL    HW249724   2.076  14.806   4.596
82631SOL     OW49725  11.708   8.534  11.742
82631SOL    HW149726  11.713   8.485  11.825
82631SOL    HW249727  11.797   8.567  11.728
82632SOL     OW49728   9.190   3.295  10.595
82632SOL    HW149729   9.129   3.357  10.636
82632SOL    HW249730   9.270   3.304  10.647
82633SOL     OW49731   6.417   3.993   3.894
82633SOL    HW149732   6.343   4.053   3.906
82633SOL    HW249733   6.378   3.906   3.894
82634SOL     OW49734   0.448   9.148   6.350
82634SOL    HW149735   0.385   9.096   6.300
82634SOL    HW249736   0.467   9.223   6.293
82635SOL     OW49737   4.988   6.624   0.934
82635SOL    HW149738   4.931   6.615   0.857
82635SOL    HW249739   4.979   6.716   0.959
82636SOL     OW49740  10.556  10.906   2.855
82636SOL    HW149741  10.570  10.814   2.832
82636SOL    HW249742  10.588  10.913   2.946
82637SOL     OW49743  12.335  11.845   7.383
82637SOL    HW149744  12.263  11.883   7.332
82637SOL    HW249745  12.414  11.864   7.331
82638SOL     OW49746  12.994  10.934   6.158
82638SOL    HW149747  13.035  10.941   6.072
82638SOL    HW249748  12.909  10.893   6.141
82639SOL     OW49749  11.030  13.536   1.419
82639SOL    HW149750  11.015  13.624   1.454
82639SOL    HW249751  11.123  13.535   1.397
82640SOL     OW49752   2.715  10.908   0.815
82640SOL    HW149753   2.762  10.946   0.888
82640SOL    HW249754   2.773  10.838   0.782
82641SOL     OW49755  13.699   6.825   5.463
82641SOL    HW149756  13.778   6.877   5.478
82641SOL    HW249757  13.731   6.743   5.425
82642SOL     OW49758  13.884  11.301   8.176
82642SOL    HW149759  13.831  11.227   8.146
82642SOL    HW249760  13.906  11.280   8.267
82643SOL     OW49761   9.537   0.307   2.814
82643SOL    HW149762   9.522   0.213   2.808
82643SOL    HW249763   9.500   0.332   2.899
82644SOL     OW49764   3.048  13.322  10.003
82644SOL    HW149765   3.057  13.231  10.031
82644SOL    HW249766   3.130  13.364  10.029
82645SOL     OW49767   1.085  12.137   2.986
82645SOL    HW149768   1.120  12.166   2.902
82645SOL    HW249769   1.010  12.195   3.002
82646SOL     OW49770  13.345   7.076   5.217
82646SOL    HW149771  13.262   7.105   5.254
82646SOL    HW249772  13.320   7.020   5.143
82647SOL     OW49773   9.265   5.304   6.076
82647SOL    HW149774   9.201   5.364   6.115
82647SOL    HW249775   9.266   5.228   6.135
82648SOL     OW49776   7.616   9.041  12.149
82648SOL    HW149777   7.631   8.963  12.203
82648SOL    HW249778   7.545   9.088  12.193
82649SOL     OW49779   5.829   8.943  12.236
82649SOL    HW149780   5.756   9.005  12.244
82649SOL    HW249781   5.907   8.996  12.252
82650SOL     OW49782   9.552  10.515   5.702
82650SOL    HW149783   9.530  10.475   5.785
82650SOL    HW249784   9.565  10.608   5.722
82651SOL     OW49785   3.790   1.250   7.443
82651SOL    HW149786   3.736   1.253   7.522
82651SOL    HW249787   3.834   1.335   7.440
82652SOL     OW49788   3.031   9.049   1.312
82652SOL    HW149789   3.039   8.995   1.233
82652SOL    HW249790   3.121   9.063   1.342
82653SOL     OW49791   7.536   0.175  14.400
82653SOL    HW149792   7.468   0.242  14.404
82653SOL    HW249793   7.605   0.207  14.459
82654SOL     OW49794   4.427   2.667   1.415
82654SOL    HW149795   4.366   2.594   1.420
82654SOL    HW249796   4.470   2.667   1.501
82655SOL     OW49797  13.970   5.344   7.095
82655SOL    HW149798  13.931   5.275   7.149
82655SOL    HW249799  13.974   5.307   7.007
82656SOL     OW49800  12.251   5.838   8.674
82656SOL    HW149801  12.306   5.914   8.657
82656SOL    HW249802  12.193   5.866   8.745
82657SOL     OW49803   8.864   5.608   5.100
82657SOL    HW149804   8.799   5.621   5.169
82657SOL    HW249805   8.948   5.609   5.146
82658SOL     OW49806   9.655   5.594  13.611
82658SOL    HW149807   9.675   5.631  13.697
82658SOL    HW249808   9.735   5.605  13.560
82659SOL     OW49809   9.216   7.118   1.165
82659SOL    HW149810   9.147   7.152   1.222
82659SOL    HW249811   9.293   7.111   1.222
82660SOL     OW49812   0.032  12.638   1.955
82660SOL    HW149813  14.857  12.564   1.926
82660SOL    HW249814  14.871  12.715   1.914
82661SOL     OW49815   6.622   7.971   0.139
82661SOL    HW149816   6.568   8.016   0.074
82661SOL    HW249817   6.577   7.888   0.155
82662SOL     OW49818   2.085   6.728   1.009
82662SOL    HW149819   2.069   6.663   1.077
82662SOL    HW249820   2.009   6.722   0.951
82663SOL     OW49821  14.558  14.078   7.019
82663SOL    HW149822  14.490  14.091   6.954
82663SOL    HW249823  14.572  14.164   7.058
82664SOL     OW49824  13.538   8.749   3.916
82664SOL    HW149825  13.588   8.737   3.997
82664SOL    HW249826  13.546   8.665   3.870
82665SOL     OW49827  14.570   4.868   7.541
82665SOL    HW149828  14.644   4.927   7.527
82665SOL    HW249829  14.512   4.883   7.466
82666SOL     OW49830   6.928   5.904   3.156
82666SOL    HW149831   6.976   5.949   3.087
82666SOL    HW249832   6.987   5.834   3.184
82667SOL     OW49833  13.027   8.103   0.788
82667SOL    HW149834  13.104   8.066   0.833
82667SOL    HW249835  12.953   8.055   0.824
82668SOL     OW49836   5.557   7.976   0.772
82668SOL    HW149837   5.613   8.053   0.768
82668SOL    HW249838   5.562   7.937   0.685
82669SOL     OW49839   4.673   5.111   8.525
82669SOL    HW149840   4.668   5.044   8.457
82669SOL    HW249841   4.637   5.069   8.603
82670SOL     OW49842   9.313   7.061   2.500
82670SOL    HW149843   9.252   6.996   2.534
82670SOL    HW249844   9.391   7.051   2.554
82671SOL     OW49845  12.367  10.939   6.944
82671SOL    HW149846  12.329  10.860   6.906
82671SOL    HW249847  12.439  10.962   6.885
82672SOL     OW49848   6.162   1.388   7.026
82672SOL    HW149849   6.257   1.375   7.018
82672SOL    HW249850   6.128   1.372   6.938
82673SOL     OW49851  13.614   5.687  13.709
82673SOL    HW149852  13.535   5.699  13.656
82673SOL    HW249853  13.659   5.772  13.704
82674SOL     OW49854   7.591   6.226  13.918
82674SOL    HW149855   7.540   6.286  13.863
82674SOL    HW249856   7.633   6.283  13.982
82675SOL     OW49857  10.918   8.494   3.984
82675SOL    HW149858  10.862   8.508   4.061
82675SOL    HW249859  10.925   8.580   3.943
82676SOL     OW49860   4.449  12.222  14.057
82676SOL    HW149861   4.407  12.197  14.139
82676SOL    HW249862   4.431  12.316  14.048
82677SOL     OW49863   3.696   6.437   3.797
82677SOL    HW149864   3.732   6.499   3.734
82677SOL    HW249865   3.632   6.487   3.847
82678SOL     OW49866   1.636  13.095   8.230
82678SOL    HW149867   1.613  13.132   8.144
82678SOL    HW249868   1.710  13.038   8.212
82679SOL     OW49869   6.983   9.614   1.752
82679SOL    HW149870   6.913   9.600   1.689
82679SOL    HW249871   7.050   9.549   1.729
82680SOL     OW49872   8.882  12.509   9.768
82680SOL    HW149873   8.907  12.534   9.679
82680SOL    HW249874   8.886  12.413   9.768
82681SOL     OW49875  11.133  13.076   7.422
82681SOL    HW149876  11.192  13.110   7.489
82681SOL    HW249877  11.080  13.151   7.396
82682SOL     OW49878   2.992   9.887  12.832
82682SOL    HW149879   2.988   9.941  12.754
82682SOL    HW249880   2.952   9.804  12.807
82683SOL     OW49881   8.469   1.103   5.885
82683SOL    HW149882   8.502   1.060   5.964
82683SOL    HW249883   8.499   1.046   5.813
82684SOL     OW49884   5.728  14.425  10.843
82684SOL    HW149885   5.796  14.362  10.820
82684SOL    HW249886   5.646  14.381  10.822
82685SOL     OW49887   2.703   1.005   0.481
82685SOL    HW149888   2.694   0.947   0.405
82685SOL    HW249889   2.634   0.977   0.541
82686SOL     OW49890  10.761  11.688   6.030
82686SOL    HW149891  10.853  11.709   6.017
82686SOL    HW249892  10.732  11.653   5.946
82687SOL     OW49893   6.884   2.639  11.489
82687SOL    HW149894   6.968   2.675  11.516
82687SOL    HW249895   6.895   2.544  11.496
82688SOL     OW49896  12.682   5.565   1.076
82688SOL    HW149897  12.743   5.541   1.146
82688SOL    HW249898  12.689   5.660   1.069
82689SOL     OW49899  11.581  11.773   4.185
82689SOL    HW149900  11.504  11.749   4.236
82689SOL    HW249901  11.645  11.805   4.249
82690SOL     OW49902   8.850   2.088   2.742
82690SOL    HW149903   8.836   2.182   2.729
82690SOL    HW249904   8.773   2.059   2.790
82691SOL     OW49905   7.854  10.534  12.896
82691SOL    HW149906   7.802  10.459  12.924
82691SOL    HW249907   7.872  10.518  12.803
82692SOL     OW49908  14.862   6.475   5.528
82692SOL    HW149909   0.071   6.439   5.540
82692SOL    HW249910  14.877   6.562   5.491
82693SOL     OW49911   3.416   7.445   0.931
82693SOL    HW149912   3.454   7.385   0.866
82693SOL    HW249913   3.416   7.530   0.887
82694SOL     OW49914   0.172   2.650   9.758
82694SOL    HW149915   0.158   2.602   9.676
82694SOL    HW249916   0.265   2.673   9.757
82695SOL     OW49917  11.118   1.194  13.003
82695SOL    HW149918  11.074   1.249  12.938
82695SOL    HW249919  11.061   1.118  13.013
82696SOL     OW49920  12.811   6.911  10.581
82696SOL    HW149921  12.783   6.840  10.638
82696SOL    HW249922  12.841   6.979  10.641
82697SOL     OW49923  10.093  13.004  10.529
82697SOL    HW149924  10.167  12.956  10.491
82697SOL    HW249925  10.017  12.972  10.482
82698SOL     OW49926   2.555   5.700   7.708
82698SOL    HW149927   2.640   5.656   7.716
82698SOL    HW249928   2.574   5.792   7.728
82699SOL     OW49929  13.587   2.932   9.154
82699SOL    HW149930  13.581   2.975   9.069
82699SOL    HW249931  13.507   2.959   9.200
82700SOL     OW49932   3.408   7.152   7.208
82700SOL    HW149933   3.342   7.177   7.273
82700SOL    HW249934   3.448   7.235   7.181
82701SOL     OW49935  14.711   2.896   1.876
82701SOL    HW149936  14.676   2.958   1.940
82701SOL    HW249937  14.647   2.825   1.875
82702SOL     OW49938   8.146   1.004  12.364
82702SOL    HW149939   8.143   1.084  12.310
82702SOL    HW249940   8.154   1.037  12.454
82703SOL     OW49941  14.571   4.008   0.629
82703SOL    HW149942  14.519   4.068   0.682
82703SOL    HW249943  14.654   4.055   0.614
82704SOL     OW49944   9.701   0.330   4.031
82704SOL    HW149945   9.688   0.235   4.025
82704SOL    HW249946   9.623   0.368   3.992
82705SOL     OW49947  12.916  14.632  12.748
82705SOL    HW149948  13.011  14.630  12.758
82705SOL    HW249949  12.891  14.721  12.771
82706SOL     OW49950   4.081   7.635   7.598
82706SOL    HW149951   4.118   7.554   7.633
82706SOL    HW249952   4.043   7.610   7.514
82707SOL     OW49953   1.639   4.023   3.566
82707SOL    HW149954   1.598   4.056   3.486
82707SOL    HW249955   1.617   4.087   3.633
82708SOL     OW49956   7.438   6.299   2.165
82708SOL    HW149957   7.394   6.377   2.198
82708SOL    HW249958   7.474   6.257   2.243
82709SOL     OW49959   1.620   8.466   0.969
82709SOL    HW149960   1.687   8.398   0.967
82709SOL    HW249961   1.542   8.423   1.004
82710SOL     OW49962   6.103   5.167  12.867
82710SOL    HW149963   6.129   5.129  12.783
82710SOL    HW249964   6.182   5.212  12.898
82711SOL     OW49965  12.174  10.990   4.482
82711SOL    HW149966  12.266  10.988   4.507
82711SOL    HW249967  12.154  10.901   4.454
82712SOL     OW49968   3.914   3.130  14.606
82712SOL    HW149969   3.972   3.139  14.531
82712SOL    HW249970   3.827   3.151  14.572
82713SOL     OW49971  13.176   6.064  11.642
82713SOL    HW149972  13.227   6.133  11.685
82713SOL    HW249973  13.229   5.985  11.651
82714SOL     OW49974  10.732  14.227   5.483
82714SOL    HW149975  10.811  14.280   5.498
82714SOL    HW249976  10.698  14.209   5.570
82715SOL     OW49977   9.367  10.415   5.114
82715SOL    HW149978   9.444  10.452   5.158
82715SOL    HW249979   9.293  10.453   5.161
82716SOL     OW49980   5.548  14.470  13.639
82716SOL    HW149981   5.465  14.468  13.686
82716SOL    HW249982   5.553  14.559  13.603
82717SOL     OW49983   3.077   0.332  14.766
82717SOL    HW149984   3.045   0.249  14.731
82717SOL    HW249985   3.038   0.399  14.711
82718SOL     OW49986   7.101  13.482  13.329
82718SOL    HW149987   7.045  13.413  13.365
82718SOL    HW249988   7.048  13.521  13.259
82719SOL     OW49989   6.708   6.504   5.552
82719SOL    HW149990   6.629   6.557   5.553
82719SOL    HW249991   6.774   6.560   5.510
82720SOL     OW49992   8.705   1.693  12.605
82720SOL    HW149993   8.778   1.684  12.665
82720SOL    HW249994   8.719   1.777  12.561
82721SOL     OW49995   0.013   0.201   7.242
82721SOL    HW149996  14.817   0.147   7.216
82721SOL    HW249997  14.868   0.235   7.328
82722SOL     OW49998   5.504   6.901   5.991
82722SOL    HW149999   5.555   6.831   5.949
82722SOL    HW250000   5.460   6.858   6.064
82723SOL     OW50001   7.613   7.399   3.960
82723SOL    HW150002   7.640   7.315   3.924
82723SOL    HW250003   7.619   7.460   3.887
82724SOL     OW50004   3.570   5.557  11.833
82724SOL    HW150005   3.502   5.578  11.769
82724SOL    HW250006   3.565   5.463  11.845
82725SOL     OW50007   3.932   9.419  14.310
82725SOL    HW150008   3.840   9.397  14.324
82725SOL    HW250009   3.979   9.339  14.334
82726SOL     OW50010   5.463  13.084   9.287
82726SOL    HW150011   5.555  13.073   9.312
82726SOL    HW250012   5.436  13.165   9.329
82727SOL     OW50013   0.593  13.738   3.113
82727SOL    HW150014   0.577  13.786   3.032
82727SOL    HW250015   0.678  13.770   3.144
82728SOL     OW50016  14.111   0.228   2.400
82728SOL    HW150017  14.197   0.190   2.383
82728SOL    HW250018  14.082   0.261   2.315
82729SOL     OW50019  10.343   2.452   1.060
82729SOL    HW150020  10.391   2.370   1.062
82729SOL    HW250021  10.305   2.456   0.972
82730SOL     OW50022  12.082  14.545   7.142
82730SOL    HW150023  12.059  14.530   7.234
82730SOL    HW250024  12.135  14.625   7.143
82731SOL     OW50025  10.958   5.396   0.255
82731SOL    HW150026  10.924   5.307   0.250
82731SOL    HW250027  11.024   5.394   0.324
82732SOL     OW50028   6.867   1.635   3.745
82732SOL    HW150029   6.959   1.646   3.719
82732SOL    HW250030   6.834   1.565   3.689
82733SOL     OW50031   6.891   7.270  14.608
82733SOL    HW150032   6.973   7.223  14.591
82733SOL    HW250033   6.823   7.217  14.567
82734SOL     OW50034   1.949  12.699  12.266
82734SOL    HW150035   1.854  12.704  12.272
82734SOL    HW250036   1.969  12.736  12.179
82735SOL     OW50037   2.194   5.694  11.492
82735SOL    HW150038   2.262   5.754  11.461
82735SOL    HW250039   2.117   5.716  11.440
82736SOL     OW50040   0.168   1.596   3.520
82736SOL    HW150041   0.201   1.508   3.533
82736SOL    HW250042   0.096   1.586   3.458
82737SOL     OW50043   3.504   3.604   4.755
82737SOL    HW150044   3.477   3.588   4.846
82737SOL    HW250045   3.599   3.590   4.756
82738SOL     OW50046  11.235   0.479   7.433
82738SOL    HW150047  11.216   0.524   7.515
82738SOL    HW250048  11.151   0.441   7.407
82739SOL     OW50049  14.037   7.489   9.778
82739SOL    HW150050  14.090   7.417   9.745
82739SOL    HW250051  13.971   7.504   9.710
82740SOL     OW50052   3.198   9.340   0.678
82740SOL    HW150053   3.291   9.357   0.664
82740SOL    HW250054   3.195   9.253   0.716
82741SOL     OW50055   2.640  13.597  11.489
82741SOL    HW150056   2.640  13.693  11.486
82741SOL    HW250057   2.592  13.576  11.570
82742SOL     OW50058   7.984  12.921  12.535
82742SOL    HW150059   7.905  12.972  12.514
82742SOL    HW250060   8.040  12.930  12.458
82743SOL     OW50061  10.204   6.315   7.371
82743SOL    HW150062  10.180   6.303   7.279
82743SOL    HW250063  10.130   6.280   7.420
82744SOL     OW50064   1.845  13.582  13.061
82744SOL    HW150065   1.841  13.614  12.970
82744SOL    HW250066   1.829  13.488  13.054
82745SOL     OW50067   0.957   1.357   9.472
82745SOL    HW150068   1.007   1.302   9.413
82745SOL    HW250069   0.878   1.380   9.422
82746SOL     OW50070   4.559   5.565   2.703
82746SOL    HW150071   4.601   5.485   2.674
82746SOL    HW250072   4.621   5.604   2.764
82747SOL     OW50073  10.168  10.313   0.834
82747SOL    HW150074  10.222  10.255   0.888
82747SOL    HW250075  10.112  10.358   0.898
82748SOL     OW50076  10.126   1.967   8.453
82748SOL    HW150077  10.202   2.011   8.490
82748SOL    HW250078  10.109   2.013   8.371
82749SOL     OW50079   4.459   3.356   5.555
82749SOL    HW150080   4.390   3.291   5.543
82749SOL    HW250081   4.412   3.436   5.579
82750SOL     OW50082  12.007   9.127   6.044
82750SOL    HW150083  11.930   9.169   6.005
82750SOL    HW250084  12.069   9.119   5.972
82751SOL     OW50085  14.389  11.268   7.138
82751SOL    HW150086  14.366  11.217   7.060
82751SOL    HW250087  14.484  11.262   7.144
82752SOL     OW50088   2.552  14.376  13.782
82752SOL    HW150089   2.565  14.447  13.719
82752SOL    HW250090   2.534  14.299  13.727
82753SOL     OW50091   5.374  13.717   9.892
82753SOL    HW150092   5.315  13.718   9.968
82753SOL    HW250093   5.323  13.758   9.822
82754SOL     OW50094   6.309   3.668   8.599
82754SOL    HW150095   6.329   3.727   8.527
82754SOL    HW250096   6.216   3.648   8.589
82755SOL     OW50097   9.913   3.134   9.496
82755SOL    HW150098   9.904   3.084   9.416
82755SOL    HW250099   9.942   3.220   9.468
82756SOL     OW50100   2.110   3.239   2.673
82756SOL    HW150101   2.110   3.148   2.704
82756SOL    HW250102   2.057   3.286   2.738
82757SOL     OW50103   5.731   7.499   6.293
82757SOL    HW150104   5.720   7.542   6.378
82757SOL    HW250105   5.689   7.558   6.231
82758SOL     OW50106   0.543   2.839  14.542
82758SOL    HW150107   0.529   2.750  14.575
82758SOL    HW250108   0.637   2.852  14.545
82759SOL     OW50109  13.682   8.948   9.207
82759SOL    HW150110  13.628   8.969   9.282
82759SOL    HW250111  13.678   9.026   9.151
82760SOL     OW50112   5.469   6.826   2.384
82760SOL    HW150113   5.523   6.875   2.322
82760SOL    HW250114   5.395   6.794   2.331
82761SOL     OW50115  13.381   0.223  14.081
82761SOL    HW150116  13.377   0.312  14.117
82761SOL    HW250117  13.462   0.221  14.031
82762SOL     OW50118   7.265  11.580  13.049
82762SOL    HW150119   7.289  11.663  13.007
82762SOL    HW250120   7.328  11.571  13.121
82763SOL     OW50121   3.989   1.122  14.111
82763SOL    HW150122   3.987   1.217  14.124
82763SOL    HW250123   4.010   1.110  14.019
82764SOL     OW50124  14.485   3.353   1.335
82764SOL    HW150125  14.526   3.419   1.280
82764SOL    HW250126  14.546   3.279   1.334
82765SOL     OW50127   1.480   1.452  11.588
82765SOL    HW150128   1.452   1.374  11.540
82765SOL    HW250129   1.573   1.439  11.603
82766SOL     OW50130   9.870   9.592   7.117
82766SOL    HW150131   9.964   9.597   7.103
82766SOL    HW250132   9.841   9.683   7.122
82767SOL     OW50133   5.151   5.121  13.824
82767SOL    HW150134   5.100   5.166  13.890
82767SOL    HW250135   5.106   5.140  13.741
82768SOL     OW50136   4.312   0.896   8.423
82768SOL    HW150137   4.261   0.833   8.371
82768SOL    HW250138   4.289   0.981   8.385
82769SOL     OW50139   9.995   7.814   0.256
82769SOL    HW150140   9.957   7.755   0.321
82769SOL    HW250141  10.012   7.895   0.304
82770SOL     OW50142  11.760   0.901   9.783
82770SOL    HW150143  11.721   0.982   9.817
82770SOL    HW250144  11.851   0.906   9.810
82771SOL     OW50145  10.286   1.107   2.509
82771SOL    HW150146  10.331   1.033   2.467
82771SOL    HW250147  10.340   1.127   2.585
82772SOL     OW50148   5.224   9.115  10.009
82772SOL    HW150149   5.163   9.080   9.944
82772SOL    HW250150   5.271   9.038  10.043
82773SOL     OW50151  13.591   4.725   2.737
82773SOL    HW150152  13.628   4.796   2.686
82773SOL    HW250153  13.534   4.679   2.675
82774SOL     OW50154  14.357   5.562   3.749
82774SOL    HW150155  14.324   5.572   3.839
82774SOL    HW250156  14.451   5.548   3.760
82775SOL     OW50157   3.876   6.770  11.451
82775SOL    HW150158   3.966   6.765  11.419
82775SOL    HW250159   3.830   6.703  11.401
82776SOL     OW50160   7.913   4.189   2.289
82776SOL    HW150161   7.947   4.104   2.263
82776SOL    HW250162   7.901   4.183   2.384
82777SOL     OW50163   4.842   9.464   8.151
82777SOL    HW150164   4.762   9.468   8.098
82777SOL    HW250165   4.825   9.393   8.214
82778SOL     OW50166  14.574  14.677  14.332
82778SOL    HW150167  14.497  14.731  14.313
82778SOL    HW250168  14.647  14.725  14.294
82779SOL     OW50169   9.508   1.468   6.932
82779SOL    HW150170   9.522   1.409   6.858
82779SOL    HW250171   9.583   1.454   6.989
82780SOL     OW50172  13.671   1.952   7.730
82780SOL    HW150173  13.634   2.006   7.661
82780SOL    HW250174  13.637   1.864   7.714
82781SOL     OW50175  10.406  11.769   0.021
82781SOL    HW150176  10.348  11.763  14.824
82781SOL    HW250177  10.469  11.838  14.876
82782SOL     OW50178   4.864   1.499   0.400
82782SOL    HW150179   4.840   1.537   0.484
82782SOL    HW250180   4.848   1.405   0.409
82783SOL     OW50181   9.502  10.860   9.313
82783SOL    HW150182   9.479  10.901   9.397
82783SOL    HW250183   9.505  10.766   9.333
82784SOL     OW50184   8.188   4.508   4.079
82784SOL    HW150185   8.246   4.459   4.137
82784SOL    HW250186   8.121   4.445   4.053
82785SOL     OW50187   7.756  12.354   7.443
82785SOL    HW150188   7.666  12.364   7.412
82785SOL    HW250189   7.753  12.277   7.500
82786SOL     OW50190   7.649   1.773   7.022
82786SOL    HW150191   7.651   1.677   7.012
82786SOL    HW250192   7.727   1.803   6.977
82787SOL     OW50193   9.407   4.588   9.689
82787SOL    HW150194   9.328   4.617   9.734
82787SOL    HW250195   9.406   4.492   9.697
82788SOL     OW50196   2.039   2.383   0.797
82788SOL    HW150197   2.109   2.448   0.805
82788SOL    HW250198   2.073   2.304   0.838
82789SOL     OW50199  14.618   6.060  13.917
82789SOL    HW150200  14.603   6.085  13.826
82789SOL    HW250201  14.574   6.128  13.968
82790SOL     OW50202   5.486   6.514   2.145
82790SOL    HW150203   5.564   6.529   2.092
82790SOL    HW250204   5.455   6.602   2.168
82791SOL     OW50205  10.210   6.280  10.977
82791SOL    HW150206  10.142   6.237  11.030
82791SOL    HW250207  10.161   6.324  10.907
82792SOL     OW50208   6.273  13.113   9.695
82792SOL    HW150209   6.258  13.033   9.644
82792SOL    HW250210   6.257  13.088   9.786
82793SOL     OW50211  10.646   1.293  10.832
82793SOL    HW150212  10.660   1.327  10.921
82793SOL    HW250213  10.567   1.239  10.839
82794SOL     OW50214  13.166   4.529   4.139
82794SOL    HW150215  13.125   4.610   4.168
82794SOL    HW250216  13.096   4.483   4.091
82795SOL     OW50217   1.047   0.064  12.295
82795SOL    HW150218   1.112   0.042  12.228
82795SOL    HW250219   1.091   0.045  12.378
82796SOL     OW50220   9.038   0.380  14.417
82796SOL    HW150221   9.039   0.472  14.392
82796SOL    HW250222   9.069   0.333  14.339
82797SOL     OW50223   4.269   9.563   9.974
82797SOL    HW150224   4.279   9.633   9.910
82797SOL    HW250225   4.353   9.518   9.975
82798SOL     OW50226   3.502   9.714   0.604
82798SOL    HW150227   3.551   9.791   0.576
82798SOL    HW250228   3.562   9.641   0.590
82799SOL     OW50229   6.463   1.936  12.812
82799SOL    HW150230   6.439   1.913  12.722
82799SOL    HW250231   6.380   1.941  12.859
82800SOL     OW50232   0.519   7.852   2.107
82800SOL    HW150233   0.552   7.801   2.033
82800SOL    HW250234   0.490   7.786   2.170
82801SOL     OW50235  12.646   0.814  12.291
82801SOL    HW150236  12.563   0.821  12.339
82801SOL    HW250237  12.688   0.736  12.327
82802SOL     OW50238  11.205  13.616  10.840
82802SOL    HW150239  11.297  13.638  10.828
82802SOL    HW250240  11.169  13.616  10.751
82803SOL     OW50241   8.658   5.216  11.003
82803SOL    HW150242   8.746   5.254  11.001
82803SOL    HW250243   8.615   5.252  10.925
82804SOL     OW50244  12.347   8.626   0.785
82804SOL    HW150245  12.413   8.568   0.749
82804SOL    HW250246  12.331   8.691   0.717
82805SOL     OW50247   6.712   2.431   7.416
82805SOL    HW150248   6.752   2.393   7.495
82805SOL    HW250249   6.669   2.357   7.373
82806SOL     OW50250  14.141   2.196   7.196
82806SOL    HW150251  14.102   2.121   7.239
82806SOL    HW250252  14.226   2.164   7.163
82807SOL     OW50253   6.569  12.368   2.518
82807SOL    HW150254   6.516  12.431   2.470
82807SOL    HW250255   6.585  12.298   2.455
82808SOL     OW50256   9.359  12.796  10.013
82808SOL    HW150257   9.432  12.850   9.982
82808SOL    HW250258   9.343  12.733   9.943
82809SOL     OW50259   1.446  12.548  12.805
82809SOL    HW150260   1.508  12.579  12.871
82809SOL    HW250261   1.487  12.470  12.769
82810SOL     OW50262   1.358  10.404   8.490
82810SOL    HW150263   1.268  10.396   8.460
82810SOL    HW250264   1.411  10.370   8.418
82811SOL     OW50265   3.285   9.909  11.851
82811SOL    HW150266   3.247   9.822  11.860
82811SOL    HW250267   3.209   9.967  11.837
82812SOL     OW50268  14.024  14.190  11.170
82812SOL    HW150269  13.978  14.106  11.172
82812SOL    HW250270  13.955  14.256  11.181
82813SOL     OW50271   4.248   9.064   2.883
82813SOL    HW150272   4.293   9.107   2.810
82813SOL    HW250273   4.187   9.129   2.916
82814SOL     OW50274   4.748  11.480   7.799
82814SOL    HW150275   4.679  11.418   7.774
82814SOL    HW250276   4.826  11.426   7.812
82815SOL     OW50277  13.487  11.153   6.089
82815SOL    HW150278  13.501  11.217   6.159
82815SOL    HW250279  13.475  11.206   6.010
82816SOL     OW50280   2.786   6.703   0.995
82816SOL    HW150281   2.763   6.796   1.000
82816SOL    HW250282   2.882   6.703   0.987
82817SOL     OW50283  13.438   9.330   6.539
82817SOL    HW150284  13.365   9.268   6.531
82817SOL    HW250285  13.414   9.386   6.613
82818SOL     OW50286  13.385   9.171   9.027
82818SOL    HW150287  13.364   9.078   9.019
82818SOL    HW250288  13.390   9.186   9.121
82819SOL     OW50289  10.420  14.002   8.033
82819SOL    HW150290  10.482  14.071   8.012
82819SOL    HW250291  10.344  14.048   8.069
82820SOL     OW50292  11.032   2.981   6.193
82820SOL    HW150293  11.080   2.975   6.110
82820SOL    HW250294  10.953   3.031   6.172
82821SOL     OW50295  14.339   8.108  13.546
82821SOL    HW150296  14.261   8.142  13.502
82821SOL    HW250297  14.364   8.177  13.607
82822SOL     OW50298   2.897  14.316  11.069
82822SOL    HW150299   2.992  14.321  11.060
82822SOL    HW250300   2.878  14.356  11.154
82823SOL     OW50301  12.904   1.507   9.828
82823SOL    HW150302  12.978   1.500   9.887
82823SOL    HW250303  12.891   1.601   9.817
82824SOL     OW50304   2.386   6.750  11.050
82824SOL    HW150305   2.370   6.839  11.080
82824SOL    HW250306   2.359   6.749  10.958
82825SOL     OW50307   9.819  10.285   2.318
82825SOL    HW150308   9.747  10.313   2.374
82825SOL    HW250309   9.843  10.199   2.351
82826SOL     OW50310   9.534   3.287   3.414
82826SOL    HW150311   9.606   3.239   3.454
82826SOL    HW250312   9.565   3.310   3.327
82827SOL     OW50313   3.250   9.629   1.947
82827SOL    HW150314   3.165   9.669   1.962
82827SOL    HW250315   3.252   9.610   1.854
82828SOL     OW50316  10.678   0.936  13.427
82828SOL    HW150317  10.769   0.951  13.400
82828SOL    HW250318  10.633   1.018  13.407
82829SOL     OW50319   3.528   0.462  10.906
82829SOL    HW150320   3.560   0.528  10.966
82829SOL    HW250321   3.606   0.416  10.876
82830SOL     OW50322   8.658   8.604   3.010
82830SOL    HW150323   8.712   8.634   2.936
82830SOL    HW250324   8.569   8.606   2.977
82831SOL     OW50325   0.311  13.116  14.752
82831SOL    HW150326   0.291  13.056  14.824
82831SOL    HW250327   0.267  13.197  14.775
82832SOL     OW50328   2.352   0.508  12.183
82832SOL    HW150329   2.330   0.601  12.193
82832SOL    HW250330   2.304   0.465  12.254
82833SOL     OW50331   2.451   0.245   7.379
82833SOL    HW150332   2.392   0.257   7.453
82833SOL    HW250333   2.414   0.172   7.329
82834SOL     OW50334  13.995  13.339   7.402
82834SOL    HW150335  13.910  13.371   7.434
82834SOL    HW250336  14.053  13.346   7.478
82835SOL     OW50337   4.909  13.602  14.117
82835SOL    HW150338   4.956  13.681  14.141
82835SOL    HW250339   4.954  13.532  14.164
82836SOL     OW50340   5.382  11.658  13.105
82836SOL    HW150341   5.467  11.625  13.076
82836SOL    HW250342   5.381  11.645  13.200
82837SOL     OW50343   9.893   0.511  13.802
82837SOL    HW150344   9.922   0.591  13.846
82837SOL    HW250345   9.805   0.532  13.770
82838SOL     OW50346   6.581   4.589   7.687
82838SOL    HW150347   6.544   4.510   7.726
82838SOL    HW250348   6.505   4.638   7.657
82839SOL     OW50349   8.652  13.272   7.773
82839SOL    HW150350   8.743  13.244   7.777
82839SOL    HW250351   8.651  13.358   7.814
82840SOL     OW50352   1.873  10.378  13.290
82840SOL    HW150353   1.903  10.308  13.348
82840SOL    HW250354   1.836  10.444  13.349
82841SOL     OW50355  11.723   8.945  10.429
82841SOL    HW150356  11.685   8.912  10.510
82841SOL    HW250357  11.810   8.903  10.424
82842SOL     OW50358   5.809   4.554   5.090
82842SOL    HW150359   5.809   4.483   5.027
82842SOL    HW250360   5.876   4.531   5.154
82843SOL     OW50361   7.204  10.230  10.899
82843SOL    HW150362   7.212  10.174  10.822
82843SOL    HW250363   7.167  10.312  10.866
82844SOL     OW50364   1.505  13.484   6.681
82844SOL    HW150365   1.443  13.509   6.749
82844SOL    HW250366   1.575  13.549   6.687
82845SOL     OW50367   0.081  13.391   8.225
82845SOL    HW150368   0.085  13.474   8.176
82845SOL    HW250369   0.071  13.418   8.316
82846SOL     OW50370   0.500  12.219  13.910
82846SOL    HW150371   0.449  12.177  13.979
82846SOL    HW250372   0.551  12.148  13.871
82847SOL     OW50373   9.491   6.484  10.795
82847SOL    HW150374   9.564   6.490  10.856
82847SOL    HW250375   9.490   6.391  10.769
82848SOL     OW50376   0.210   4.073   9.691
82848SOL    HW150377   0.245   3.993   9.730
82848SOL    HW250378   0.223   4.140   9.758
82849SOL     OW50379  12.770   2.803   2.422
82849SOL    HW150380  12.738   2.886   2.458
82849SOL    HW250381  12.810   2.758   2.496
82850SOL     OW50382   6.477   6.661  13.691
82850SOL    HW150383   6.523   6.686  13.611
82850SOL    HW250384   6.405   6.605  13.660
82851SOL     OW50385   1.671   5.315   6.568
82851SOL    HW150386   1.581   5.328   6.595
82851SOL    HW250387   1.670   5.326   6.473
82852SOL     OW50388  10.234  13.861  10.942
82852SOL    HW150389  10.167  13.796  10.961
82852SOL    HW250390  10.317  13.814  10.954
82853SOL     OW50391  14.491   8.788   1.769
82853SOL    HW150392  14.507   8.838   1.690
82853SOL    HW250393  14.575   8.748   1.790
82854SOL     OW50394   2.805  14.456  13.111
82854SOL    HW150395   2.815  14.361  13.102
82854SOL    HW250396   2.756  14.482  13.033
82855SOL     OW50397   1.936   6.364  10.126
82855SOL    HW150398   1.879   6.298  10.087
82855SOL    HW250399   2.001   6.314  10.175
82856SOL     OW50400   1.669   2.702   0.714
82856SOL    HW150401   1.744   2.643   0.726
82856SOL    HW250402   1.707   2.781   0.675
82857SOL     OW50403   9.488   9.394   1.859
82857SOL    HW150404   9.521   9.328   1.799
82857SOL    HW250405   9.552   9.465   1.854
82858SOL     OW50406   1.400  10.910  11.308
82858SOL    HW150407   1.463  10.847  11.272
82858SOL    HW250408   1.356  10.862  11.378
82859SOL     OW50409   3.852   1.138   1.236
82859SOL    HW150410   3.896   1.130   1.320
82859SOL    HW250411   3.759   1.140   1.257
82860SOL     OW50412   3.804   4.991  13.076
82860SOL    HW150413   3.789   4.941  12.995
82860SOL    HW250414   3.851   4.930  13.133
82861SOL     OW50415   8.588  13.413  12.119
82861SOL    HW150416   8.678  13.402  12.089
82861SOL    HW250417   8.565  13.328  12.158
82862SOL     OW50418   4.936  10.756  14.104
82862SOL    HW150419   4.915  10.843  14.137
82862SOL    HW250420   4.994  10.718  14.171
82863SOL     OW50421  13.653   5.307  13.304
82863SOL    HW150422  13.638   5.290  13.397
82863SOL    HW250423  13.720   5.245  13.279
82864SOL     OW50424   8.208   7.521   6.766
82864SOL    HW150425   8.263   7.595   6.790
82864SOL    HW250426   8.261   7.444   6.785
82865SOL     OW50427  11.977   6.398   8.259
82865SOL    HW150428  11.901   6.341   8.261
82865SOL    HW250429  11.995   6.412   8.166
82866SOL     OW50430  10.116   4.481   1.479
82866SOL    HW150431  10.193   4.426   1.493
82866SOL    HW250432  10.130   4.519   1.392
82867SOL     OW50433   7.251   0.341   8.423
82867SOL    HW150434   7.203   0.283   8.364
82867SOL    HW250435   7.209   0.328   8.509
82868SOL     OW50436  14.078  12.610  11.320
82868SOL    HW150437  14.131  12.617  11.400
82868SOL    HW250438  14.014  12.542  11.339
82869SOL     OW50439   2.291  14.068   0.209
82869SOL    HW150440   2.251  14.156   0.208
82869SOL    HW250441   2.335  14.063   0.294
82870SOL     OW50442   8.133   2.540  11.342
82870SOL    HW150443   8.168   2.461  11.301
82870SOL    HW250444   8.045   2.516  11.369
82871SOL     OW50445   2.582   2.092  12.336
82871SOL    HW150446   2.504   2.038  12.321
82871SOL    HW250447   2.552   2.161  12.395
82872SOL     OW50448   9.562  12.672  13.134
82872SOL    HW150449   9.535  12.760  13.160
82872SOL    HW250450   9.485  12.634  13.091
82873SOL     OW50451   2.903   0.552  12.638
82873SOL    HW150452   2.918   0.538  12.544
82873SOL    HW250453   2.840   0.624  12.641
82874SOL     OW50454   9.261  11.559   7.171
82874SOL    HW150455   9.283  11.560   7.264
82874SOL    HW250456   9.311  11.487   7.135
82875SOL     OW50457   7.782  12.565   1.623
82875SOL    HW150458   7.877  12.553   1.627
82875SOL    HW250459   7.747  12.499   1.684
82876SOL     OW50460  14.556   0.868   7.546
82876SOL    HW150461  14.462   0.852   7.552
82876SOL    HW250462  14.581   0.897   7.633
82877SOL     OW50463  11.024   2.754   8.357
82877SOL    HW150464  10.971   2.772   8.435
82877SOL    HW250465  11.082   2.683   8.384
82878SOL     OW50466  13.999  12.933   1.976
82878SOL    HW150467  13.983  12.856   1.921
82878SOL    HW250468  13.981  13.008   1.919
82879SOL     OW50469  11.877  14.379  11.453
82879SOL    HW150470  11.960  14.354  11.494
82879SOL    HW250471  11.815  14.384  11.526
82880SOL     OW50472   5.496  12.579  11.317
82880SOL    HW150473   5.558  12.652  11.323
82880SOL    HW250474   5.414  12.620  11.291
82881SOL     OW50475  12.796   3.195  14.128
82881SOL    HW150476  12.872   3.166  14.078
82881SOL    HW250477  12.830   3.262  14.187
82882SOL     OW50478  14.751   8.326   5.054
82882SOL    HW150479  14.700   8.407   5.064
82882SOL    HW250480  14.685   8.258   5.043
82883SOL     OW50481  13.395  13.144   8.763
82883SOL    HW150482  13.401  13.239   8.775
82883SOL    HW250483  13.481  13.111   8.787
82884SOL     OW50484  11.511  10.092   4.009
82884SOL    HW150485  11.438  10.137   3.967
82884SOL    HW250486  11.587  10.112   3.954
82885SOL     OW50487   1.672   5.315   9.963
82885SOL    HW150488   1.607   5.301   9.893
82885SOL    HW250489   1.639   5.391  10.011
82886SOL     OW50490  12.971   5.274   2.108
82886SOL    HW150491  13.017   5.196   2.139
82886SOL    HW250492  12.964   5.263   2.014
82887SOL     OW50493   6.849   9.708   4.131
82887SOL    HW150494   6.773   9.740   4.179
82887SOL    HW250495   6.899   9.658   4.196
82888SOL     OW50496   7.776  12.404   6.637
82888SOL    HW150497   7.785  12.425   6.544
82888SOL    HW250498   7.699  12.348   6.642
82889SOL     OW50499   3.071  12.006   9.766
82889SOL    HW150500   3.068  11.987   9.673
82889SOL    HW250501   3.073  11.920   9.808
82890SOL     OW50502   4.494   4.131   2.589
82890SOL    HW150503   4.410   4.163   2.557
82890SOL    HW250504   4.559   4.190   2.550
82891SOL     OW50505  11.519   7.768   1.247
82891SOL    HW150506  11.436   7.721   1.249
82891SOL    HW250507  11.496   7.857   1.221
82892SOL     OW50508  12.584   3.000   0.735
82892SOL    HW150509  12.670   3.017   0.697
82892SOL    HW250510  12.601   2.993   0.829
82893SOL     OW50511  10.451   9.094   1.936
82893SOL    HW150512  10.398   9.153   1.989
82893SOL    HW250513  10.534   9.087   1.983
82894SOL     OW50514   8.921  12.096   6.758
82894SOL    HW150515   8.865  12.019   6.775
82894SOL    HW250516   8.861  12.170   6.763
82895SOL     OW50517   4.238  10.297   5.312
82895SOL    HW150518   4.220  10.226   5.375
82895SOL    HW250519   4.331  10.289   5.293
82896SOL     OW50520   9.001   5.268   1.598
82896SOL    HW150521   8.986   5.339   1.536
82896SOL    HW250522   8.917   5.223   1.605
82897SOL     OW50523   9.204   3.019   5.078
82897SOL    HW150524   9.217   3.084   5.147
82897SOL    HW250525   9.109   3.009   5.072
82898SOL     OW50526   4.920   6.648   7.683
82898SOL    HW150527   4.912   6.678   7.774
82898SOL    HW250528   4.834   6.663   7.645
82899SOL     OW50529  13.970   9.286  11.881
82899SOL    HW150530  14.043   9.223  11.878
82899SOL    HW250531  14.010   9.367  11.913
82900SOL     OW50532   3.876   9.952   2.118
82900SOL    HW150533   3.810   9.884   2.106
82900SOL    HW250534   3.883   9.963   2.213
82901SOL     OW50535  13.124   9.368   3.285
82901SOL    HW150536  13.208   9.376   3.331
82901SOL    HW250537  13.117   9.275   3.265
82902SOL     OW50538   8.916   1.281  10.191
82902SOL    HW150539   8.963   1.259  10.111
82902SOL    HW250540   8.980   1.331  10.243
82903SOL     OW50541   4.722   9.885  14.477
82903SOL    HW150542   4.754   9.933  14.400
82903SOL    HW250543   4.794   9.826  14.500
82904SOL     OW50544   8.083  14.556  11.431
82904SOL    HW150545   8.091  14.494  11.360
82904SOL    HW250546   8.066  14.502  11.509
82905SOL     OW50547   0.448   8.807   6.473
82905SOL    HW150548   0.478   8.894   6.500
82905SOL    HW250549   0.472   8.801   6.381
82906SOL     OW50550  12.894   3.014  10.390
82906SOL    HW150551  12.846   3.087  10.350
82906SOL    HW250552  12.937   3.053  10.466
82907SOL     OW50553  11.409   3.922  12.218
82907SOL    HW150554  11.407   3.960  12.130
82907SOL    HW250555  11.492   3.875  12.221
82908SOL     OW50556   4.882   0.698   9.822
82908SOL    HW150557   4.856   0.773   9.875
82908SOL    HW250558   4.915   0.634   9.885
82909SOL     OW50559  10.613   3.925  14.317
82909SOL    HW150560  10.622   4.019  14.299
82909SOL    HW250561  10.668   3.911  14.394
82910SOL     OW50562  13.728   1.651   9.926
82910SOL    HW150563  13.767   1.660   9.838
82910SOL    HW250564  13.656   1.714   9.927
82911SOL     OW50565   6.316   0.694   9.499
82911SOL    HW150566   6.243   0.719   9.443
82911SOL    HW250567   6.325   0.600   9.486
82912SOL     OW50568   1.573   6.414   9.242
82912SOL    HW150569   1.640   6.348   9.261
82912SOL    HW250570   1.534   6.384   9.160
82913SOL     OW50571   1.672   7.758   4.387
82913SOL    HW150572   1.648   7.691   4.451
82913SOL    HW250573   1.685   7.837   4.440
82914SOL     OW50574   0.813   7.740   9.809
82914SOL    HW150575   0.756   7.666   9.790
82914SOL    HW250576   0.836   7.730   9.901
82915SOL     OW50577   0.536  14.266   6.449
82915SOL    HW150578   0.494  14.345   6.416
82915SOL    HW250579   0.486  14.194   6.411
82916SOL     OW50580   3.859   7.285  13.383
82916SOL    HW150581   3.914   7.314  13.310
82916SOL    HW250582   3.912   7.218  13.428
82917SOL     OW50583   3.525  10.940   9.533
82917SOL    HW150584   3.508  10.883   9.609
82917SOL    HW250585   3.479  10.899   9.461
82918SOL     OW50586   1.786   6.575   5.234
82918SOL    HW150587   1.754   6.576   5.324
82918SOL    HW250588   1.807   6.667   5.215
82919SOL     OW50589   0.470   2.236  13.494
82919SOL    HW150590   0.404   2.171  13.470
82919SOL    HW250591   0.530   2.189  13.552
82920SOL     OW50592   0.109   0.154   2.809
82920SOL    HW150593   0.071   0.087   2.865
82920SOL    HW250594   0.181   0.191   2.860
82921SOL     OW50595   5.374   9.816  12.279
82921SOL    HW150596   5.416   9.863  12.207
82921SOL    HW250597   5.294   9.866  12.298
82922SOL     OW50598  11.360  11.178   1.468
82922SOL    HW150599  11.368  11.268   1.436
82922SOL    HW250600  11.344  11.187   1.562
82923SOL     OW50601   6.938   6.087   0.953
82923SOL    HW150602   6.885   6.010   0.930
82923SOL    HW250603   6.999   6.096   0.880
82924SOL     OW50604   5.435   4.881   1.139
82924SOL    HW150605   5.487   4.845   1.067
82924SOL    HW250606   5.500   4.923   1.196
82925SOL     OW50607   1.423  14.684   4.276
82925SOL    HW150608   1.450  14.684   4.368
82925SOL    HW250609   1.397  14.774   4.259
82926SOL     OW50610  10.730   0.842   1.064
82926SOL    HW150611  10.816   0.870   1.034
82926SOL    HW250612  10.720   0.883   1.150
82927SOL     OW50613   0.729  13.747  11.455
82927SOL    HW150614   0.794  13.818  11.454
82927SOL    HW250615   0.768  13.679  11.510
82928SOL     OW50616  11.139  11.735  10.864
82928SOL    HW150617  11.053  11.750  10.825
82928SOL    HW250618  11.151  11.641  10.860
82929SOL     OW50619   0.245  14.570  14.057
82929SOL    HW150620   0.212  14.614  14.136
82929SOL    HW250621   0.330  14.534  14.084
82930SOL     OW50622   9.190   2.032   6.961
82930SOL    HW150623   9.216   2.048   6.870
82930SOL    HW250624   9.270   2.049   7.012
82931SOL     OW50625  12.682  14.852   8.095
82931SOL    HW150626  12.720  14.789   8.156
82931SOL    HW250627  12.693  14.813   8.009
82932SOL     OW50628  11.815   3.457   4.445
82932SOL    HW150629  11.854   3.370   4.455
82932SOL    HW250630  11.867   3.514   4.502
82933SOL     OW50631   8.327  12.861   7.573
82933SOL    HW150632   8.381  12.793   7.531
82933SOL    HW250633   8.261  12.883   7.507
82934SOL     OW50634  10.433   6.354   2.711
82934SOL    HW150635  10.464   6.420   2.648
82934SOL    HW250636  10.511   6.301   2.730
82935SOL     OW50637  13.650   4.184   5.167
82935SOL    HW150638  13.558   4.165   5.148
82935SOL    HW250639  13.695   4.167   5.084
82936SOL     OW50640   3.075   5.352   1.602
82936SOL    HW150641   2.986   5.338   1.570
82936SOL    HW250642   3.079   5.305   1.685
82937SOL     OW50643   3.201   3.299   3.049
82937SOL    HW150644   3.214   3.393   3.040
82937SOL    HW250645   3.108   3.285   3.029
82938SOL     OW50646   1.600   5.712   7.906
82938SOL    HW150647   1.510   5.724   7.938
82938SOL    HW250648   1.592   5.645   7.838
82939SOL     OW50649   0.675   6.667   5.871
82939SOL    HW150650   0.744   6.616   5.914
82939SOL    HW250651   0.659   6.620   5.789
82940SOL     OW50652   5.610   9.284  10.602
82940SOL    HW150653   5.652   9.238  10.528
82940SOL    HW250654   5.583   9.368  10.565
82941SOL     OW50655   4.746  13.498   8.411
82941SOL    HW150656   4.816  13.433   8.414
82941SOL    HW250657   4.671  13.454   8.450
82942SOL     OW50658   2.549   3.927  12.967
82942SOL    HW150659   2.626   3.917  12.910
82942SOL    HW250660   2.498   3.848  12.952
82943SOL     OW50661   6.389   4.302   4.736
82943SOL    HW150662   6.459   4.356   4.772
82943SOL    HW250663   6.314   4.318   4.793
82944SOL     OW50664  14.115   2.215   5.342
82944SOL    HW150665  14.028   2.200   5.305
82944SOL    HW250666  14.106   2.191   5.434
82945SOL     OW50667  13.743   7.414   7.409
82945SOL    HW150668  13.756   7.332   7.362
82945SOL    HW250669  13.722   7.478   7.341
82946SOL     OW50670  10.054   0.774   6.727
82946SOL    HW150671  10.049   0.767   6.822
82946SOL    HW250672   9.995   0.706   6.694
82947SOL     OW50673   9.217   0.273  11.703
82947SOL    HW150674   9.273   0.344  11.734
82947SOL    HW250675   9.165   0.249  11.779
82948SOL     OW50676   7.518   6.432   1.444
82948SOL    HW150677   7.606   6.404   1.469
82948SOL    HW250678   7.459   6.381   1.500
82949SOL     OW50679  13.098  13.869  14.596
82949SOL    HW150680  13.188  13.898  14.581
82949SOL    HW250681  13.088  13.793  14.539
82950SOL     OW50682   5.289   3.153  14.412
82950SOL    HW150683   5.353   3.088  14.385
82950SOL    HW250684   5.268   3.200  14.331
82951SOL     OW50685   4.576   9.499  11.912
82951SOL    HW150686   4.495   9.536  11.878
82951SOL    HW250687   4.609   9.565  11.973
82952SOL     OW50688  11.974   2.377   6.947
82952SOL    HW150689  12.023   2.405   7.025
82952SOL    HW250690  11.899   2.436   6.943
82953SOL     OW50691   7.676   6.790  14.700
82953SOL    HW150692   7.655   6.870  14.747
82953SOL    HW250693   7.678   6.816  14.608
82954SOL     OW50694   0.884  12.799  12.067
82954SOL    HW150695   0.908  12.709  12.090
82954SOL    HW250696   0.829  12.829  12.139
82955SOL     OW50697   9.868  11.256   7.036
82955SOL    HW150698   9.943  11.258   7.095
82955SOL    HW250699   9.806  11.196   7.078
82956SOL     OW50700  11.072  13.067   3.275
82956SOL    HW150701  11.035  13.105   3.354
82956SOL    HW250702  11.067  13.138   3.210
82957SOL     OW50703   5.217  12.058   7.740
82957SOL    HW150704   5.299  12.028   7.779
82957SOL    HW250705   5.151  11.996   7.771
82958SOL     OW50706   8.424  14.440   0.061
82958SOL    HW150707   8.395  14.366   0.114
82958SOL    HW250708   8.392  14.420  14.852
82959SOL     OW50709   3.188   6.298   9.531
82959SOL    HW150710   3.138   6.285   9.450
82959SOL    HW250711   3.238   6.378   9.515
82960SOL     OW50712   3.358   9.439  13.149
82960SOL    HW150713   3.347   9.532  13.129
82960SOL    HW250714   3.305   9.394  13.082
82961SOL     OW50715   8.726  12.343   5.246
82961SOL    HW150716   8.743  12.417   5.188
82961SOL    HW250717   8.759  12.371   5.332
82962SOL     OW50718  11.323   6.174   7.677
82962SOL    HW150719  11.229   6.175   7.698
82962SOL    HW250720  11.347   6.266   7.671
82963SOL     OW50721   4.640   0.063   1.630
82963SOL    HW150722   4.709   0.109   1.678
82963SOL    HW250723   4.561   0.113   1.648
82964SOL     OW50724   3.965  12.670   1.265
82964SOL    HW150725   3.956  12.745   1.324
82964SOL    HW250726   3.966  12.708   1.178
82965SOL     OW50727   3.769   1.065   0.146
82965SOL    HW150728   3.780   1.119   0.067
82965SOL    HW250729   3.790   0.976   0.116
82966SOL     OW50730   2.696   2.652   3.546
82966SOL    HW150731   2.650   2.568   3.546
82966SOL    HW250732   2.627   2.717   3.535
82967SOL     OW50733   6.516  10.382   2.316
82967SOL    HW150734   6.458  10.317   2.277
82967SOL    HW250735   6.556  10.426   2.242
82968SOL     OW50736   5.525   7.234   6.563
82968SOL    HW150737   5.469   7.280   6.500
82968SOL    HW250738   5.497   7.143   6.557
82969SOL     OW50739   5.932   3.509   1.238
82969SOL    HW150740   5.909   3.530   1.328
82969SOL    HW250741   5.960   3.592   1.200
82970SOL     OW50742   1.207   2.810  13.456
82970SOL    HW150743   1.236   2.734  13.507
82970SOL    HW250744   1.111   2.804  13.456
82971SOL     OW50745  11.033   6.205   5.316
82971SOL    HW150746  11.015   6.253   5.235
82971SOL    HW250747  10.980   6.249   5.382
82972SOL     OW50748  12.129  11.257   0.359
82972SOL    HW150749  12.040  11.243   0.392
82972SOL    HW250750  12.157  11.339   0.399
82973SOL     OW50751   3.175   0.836   9.174
82973SOL    HW150752   3.244   0.852   9.238
82973SOL    HW250753   3.121   0.767   9.214
82974SOL     OW50754   4.565   7.066  14.524
82974SOL    HW150755   4.537   7.012  14.450
82974SOL    HW250756   4.498   7.051  14.591
82975SOL     OW50757   9.435   6.508   9.337
82975SOL    HW150758   9.367   6.441   9.323
82975SOL    HW250759   9.387   6.585   9.367
82976SOL     OW50760   4.536   0.311   5.312
82976SOL    HW150761   4.476   0.369   5.359
82976SOL    HW250762   4.482   0.274   5.241
82977SOL     OW50763   9.086   3.281  11.860
82977SOL    HW150764   9.054   3.263  11.772
82977SOL    HW250765   9.100   3.194  11.899
82978SOL     OW50766   1.795   1.223   8.761
82978SOL    HW150767   1.792   1.163   8.836
82978SOL    HW250768   1.724   1.286   8.777
82979SOL     OW50769   5.217  12.222   5.440
82979SOL    HW150770   5.180  12.284   5.377
82979SOL    HW250771   5.312  12.233   5.431
82980SOL     OW50772   7.967   7.003   1.113
82980SOL    HW150773   7.995   6.987   1.023
82980SOL    HW250774   7.933   6.919   1.143
82981SOL     OW50775   9.662   1.600   9.940
82981SOL    HW150776   9.747   1.581   9.979
82981SOL    HW250777   9.602   1.540   9.983
82982SOL     OW50778   5.263   3.106   1.855
82982SOL    HW150779   5.269   3.157   1.774
82982SOL    HW250780   5.322   3.150   1.915
82983SOL     OW50781   8.279   2.832   6.241
82983SOL    HW150782   8.322   2.801   6.321
82983SOL    HW250783   8.209   2.769   6.225
82984SOL     OW50784  13.003   5.877  10.589
82984SOL    HW150785  12.956   5.805  10.546
82984SOL    HW250786  13.032   5.841  10.673
82985SOL     OW50787  12.955   5.852   9.609
82985SOL    HW150788  12.928   5.761   9.592
82985SOL    HW250789  12.950   5.894   9.523
82986SOL     OW50790  10.405   1.582  13.141
82986SOL    HW150791  10.449   1.640  13.079
82986SOL    HW250792  10.368   1.641  13.207
82987SOL     OW50793  14.514   0.615   3.673
82987SOL    HW150794  14.558   0.675   3.733
82987SOL    HW250795  14.463   0.671   3.615
82988SOL     OW50796  10.967  14.672   1.035
82988SOL    HW150797  11.055  14.652   1.067
82988SOL    HW250798  10.981  14.712   0.950
82989SOL     OW50799   8.890   3.221   6.203
82989SOL    HW150800   8.947   3.154   6.165
82989SOL    HW250801   8.901   3.210   6.298
82990SOL     OW50802   3.300   0.616  10.831
82990SOL    HW150803   3.355   0.554  10.879
82990SOL    HW250804   3.329   0.608  10.740
82991SOL     OW50805   8.331   3.919   1.661
82991SOL    HW150806   8.421   3.902   1.631
82991SOL    HW250807   8.342   3.963   1.745
82992SOL     OW50808   2.112   4.402   9.519
82992SOL    HW150809   2.087   4.484   9.477
82992SOL    HW250810   2.029   4.355   9.531
82993SOL     OW50811  10.126  11.327   9.584
82993SOL    HW150812  10.103  11.278   9.662
82993SOL    HW250813  10.100  11.417   9.602
82994SOL     OW50814  11.078  10.883   1.790
82994SOL    HW150815  11.101  10.791   1.804
82994SOL    HW250816  11.021  10.883   1.713
82995SOL     OW50817   7.618   0.700   4.326
82995SOL    HW150818   7.675   0.724   4.253
82995SOL    HW250819   7.626   0.773   4.387
82996SOL     OW50820  13.825   3.547   1.833
82996SOL    HW150821  13.892   3.512   1.774
82996SOL    HW250822  13.841   3.642   1.834
82997SOL     OW50823   5.421   5.696   5.358
82997SOL    HW150824   5.438   5.603   5.344
82997SOL    HW250825   5.421   5.707   5.453
82998SOL     OW50826  12.752   2.164   8.603
82998SOL    HW150827  12.693   2.153   8.678
82998SOL    HW250828  12.757   2.259   8.591
82999SOL     OW50829   4.665   8.567   6.205
82999SOL    HW150830   4.685   8.585   6.114
82999SOL    HW250831   4.725   8.623   6.255
83000SOL     OW50832  10.530   8.773   5.470
83000SOL    HW150833  10.544   8.837   5.540
83000SOL    HW250834  10.594   8.797   5.403
83001SOL     OW50835   8.510   4.270  12.542
83001SOL    HW150836   8.470   4.226  12.468
83001SOL    HW250837   8.437   4.289  12.601
83002SOL     OW50838  12.678  11.827  14.833
83002SOL    HW150839  12.622  11.849   0.028
83002SOL    HW250840  12.637  11.872  14.758
83003SOL     OW50841  10.973   9.003   5.566
83003SOL    HW150842  10.939   8.918   5.537
83003SOL    HW250843  11.044   8.981   5.627
83004SOL     OW50844   6.770  12.531  14.504
83004SOL    HW150845   6.785  12.439  14.527
83004SOL    HW250846   6.798  12.580  14.581
83005SOL     OW50847   2.075  13.564  13.405
83005SOL    HW150848   2.140  13.524  13.348
83005SOL    HW250849   2.063  13.499  13.475
83006SOL     OW50850   1.329   4.988   3.494
83006SOL    HW150851   1.300   5.022   3.578
83006SOL    HW250852   1.260   4.927   3.467
83007SOL     OW50853  12.653   5.055   4.959
83007SOL    HW150854  12.689   5.143   4.957
83007SOL    HW250855  12.725   5.000   4.989
83008SOL     OW50856  10.934   4.932   9.495
83008SOL    HW150857  10.867   4.904   9.558
83008SOL    HW250858  11.007   4.872   9.510
83009SOL     OW50859  14.300   0.293   4.512
83009SOL    HW150860  14.256   0.223   4.462
83009SOL    HW250861  14.296   0.369   4.454
83010SOL     OW50862  11.591   2.357   6.417
83010SOL    HW150863  11.612   2.418   6.488
83010SOL    HW250864  11.593   2.270   6.457
83011SOL     OW50865   3.250   2.737   5.733
83011SOL    HW150866   3.198   2.669   5.691
83011SOL    HW250867   3.322   2.754   5.672
83012SOL     OW50868  14.079  11.555  10.166
83012SOL    HW150869  13.993  11.543  10.206
83012SOL    HW250870  14.139  11.567  10.240
83013SOL     OW50871   9.271  12.169   5.887
83013SOL    HW150872   9.349  12.131   5.847
83013SOL    HW250873   9.300  12.199   5.973
83014SOL     OW50874  12.945  12.835   4.140
83014SOL    HW150875  12.903  12.912   4.178
83014SOL    HW250876  12.895  12.817   4.061
83015SOL     OW50877   1.177   1.084   4.961
83015SOL    HW150878   1.102   1.050   5.010
83015SOL    HW250879   1.216   1.007   4.920
83016SOL     OW50880   2.219  10.485  12.380
83016SOL    HW150881   2.204  10.437  12.461
83016SOL    HW250882   2.311  10.468  12.358
83017SOL     OW50883   4.532   9.340   1.299
83017SOL    HW150884   4.627   9.335   1.290
83017SOL    HW250885   4.512   9.433   1.304
83018SOL     OW50886   0.062   6.133  14.399
83018SOL    HW150887   0.130   6.191  14.364
83018SOL    HW250888   0.102   6.046  14.397
83019SOL     OW50889   3.469   8.445   5.073
83019SOL    HW150890   3.403   8.505   5.106
83019SOL    HW250891   3.468   8.372   5.135
83020SOL     OW50892   6.136   5.757   7.912
83020SOL    HW150893   6.219   5.733   7.952
83020SOL    HW250894   6.074   5.690   7.943
83021SOL     OW50895   7.637  13.133   3.715
83021SOL    HW150896   7.622  13.054   3.663
83021SOL    HW250897   7.704  13.182   3.666
83022SOL     OW50898  12.806   5.528   2.297
83022SOL    HW150899  12.733   5.546   2.239
83022SOL    HW250900  12.828   5.436   2.281
83023SOL     OW50901  13.017   9.830   3.963
83023SOL    HW150902  13.088   9.894   3.964
83023SOL    HW250903  13.061   9.745   3.961
83024SOL     OW50904   3.131   8.846   0.245
83024SOL    HW150905   3.205   8.787   0.259
83024SOL    HW250906   3.086   8.810   0.168
83025SOL     OW50907   0.487   6.171   4.252
83025SOL    HW150908   0.575   6.199   4.226
83025SOL    HW250909   0.465   6.102   4.190
83026SOL     OW50910   9.525   3.815   3.215
83026SOL    HW150911   9.547   3.803   3.308
83026SOL    HW250912   9.501   3.728   3.184
83027SOL     OW50913   6.062   0.705   5.265
83027SOL    HW150914   6.027   0.634   5.318
83027SOL    HW250915   6.104   0.662   5.191
83028SOL     OW50916   5.469  13.103   2.246
83028SOL    HW150917   5.560  13.093   2.218
83028SOL    HW250918   5.470  13.181   2.301
83029SOL     OW50919   5.811   1.783   0.186
83029SOL    HW150920   5.755   1.827   0.250
83029SOL    HW250921   5.859   1.718   0.237
83030SOL     OW50922   8.098   3.334  10.930
83030SOL    HW150923   8.142   3.389  10.866
83030SOL    HW250924   8.078   3.392  11.003
83031SOL     OW50925   5.027   4.011  10.662
83031SOL    HW150926   5.067   4.044  10.581
83031SOL    HW250927   4.943   4.057  10.667
83032SOL     OW50928   9.295   4.756   6.454
83032SOL    HW150929   9.204   4.749   6.429
83032SOL    HW250930   9.335   4.673   6.427
83033SOL     OW50931   4.628   9.859   7.357
83033SOL    HW150932   4.564   9.930   7.349
83033SOL    HW250933   4.639   9.846   7.451
83034SOL     OW50934  12.830   3.154   9.912
83034SOL    HW150935  12.923   3.152   9.889
83034SOL    HW250936  12.813   3.246   9.934
83035SOL     OW50937   9.386  13.009   5.092
83035SOL    HW150938   9.412  12.917   5.088
83035SOL    HW250939   9.412  13.037   5.180
83036SOL     OW50940  13.843   6.905   0.073
83036SOL    HW150941  13.754   6.928   0.045
83036SOL    HW250942  13.834   6.886   0.167
83037SOL     OW50943  10.992  13.524   5.444
83037SOL    HW150944  11.051  13.576   5.390
83037SOL    HW250945  11.038  13.440   5.455
83038SOL     OW50946   2.200   5.283  14.215
83038SOL    HW150947   2.259   5.207  14.211
83038SOL    HW250948   2.156   5.283  14.130
83039SOL     OW50949  10.903   3.832  12.692
83039SOL    HW150950  10.885   3.891  12.765
83039SOL    HW250951  10.900   3.744  12.730
83040SOL     OW50952   1.291   3.304  13.263
83040SOL    HW150953   1.307   3.277  13.353
83040SOL    HW250954   1.374   3.341  13.233
83041SOL     OW50955   6.390  10.738  11.872
83041SOL    HW150956   6.336  10.661  11.850
83041SOL    HW250957   6.328  10.811  11.871
83042SOL     OW50958  11.650   5.975   5.320
83042SOL    HW150959  11.563   5.941   5.343
83042SOL    HW250960  11.696   5.899   5.285
83043SOL     OW50961  13.129   2.297   0.182
83043SOL    HW150962  13.220   2.297   0.151
83043SOL    HW250963  13.114   2.386   0.213
83044SOL     OW50964  11.193   4.364   4.841
83044SOL    HW150965  11.233   4.283   4.810
83044SOL    HW250966  11.224   4.374   4.931
83045SOL     OW50967   3.515   9.062   9.203
83045SOL    HW150968   3.510   9.111   9.285
83045SOL    HW250969   3.547   8.975   9.229
83046SOL     OW50970   5.032   1.019  10.973
83046SOL    HW150971   4.955   0.963  10.974
83046SOL    HW250972   4.998   1.106  10.951
83047SOL     OW50973   1.972   5.820   9.937
83047SOL    HW150974   2.020   5.738   9.950
83047SOL    HW250975   1.954   5.823   9.843
83048SOL     OW50976  12.324   2.956   8.260
83048SOL    HW150977  12.371   2.931   8.339
83048SOL    HW250978  12.288   2.873   8.227
83049SOL     OW50979  10.966   3.630   0.859
83049SOL    HW150980  11.043   3.592   0.818
83049SOL    HW250981  10.964   3.592   0.947
83050SOL     OW50982   5.357   0.988   8.249
83050SOL    HW150983   5.425   0.998   8.315
83050SOL    HW250984   5.275   0.982   8.298
83051SOL     OW50985   4.710   7.530   5.220
83051SOL    HW150986   4.773   7.465   5.188
83051SOL    HW250987   4.743   7.553   5.307
83052SOL     OW50988  12.936   9.285  12.562
83052SOL    HW150989  13.008   9.288  12.626
83052SOL    HW250990  12.942   9.197  12.524
83053SOL     OW50991  13.326  13.304   2.860
83053SOL    HW150992  13.270  13.371   2.900
83053SOL    HW250993  13.329  13.328   2.767
83054SOL     OW50994  10.312  11.607   8.528
83054SOL    HW150995  10.359  11.679   8.571
83054SOL    HW250996  10.368  11.582   8.455
83055SOL     OW50997  12.540   1.642   4.307
83055SOL    HW150998  12.588   1.559   4.310
83055SOL    HW250999  12.587   1.695   4.242
83056SOL     OW51000   3.557   1.338  12.878
83056SOL    HW151001   3.534   1.429  12.896
83056SOL    HW251002   3.651   1.333  12.897
83057SOL     OW51003  12.833   9.545   6.291
83057SOL    HW151004  12.839   9.503   6.205
83057SOL    HW251005  12.853   9.637   6.273
83058SOL     OW51006   2.728  12.167   0.218
83058SOL    HW151007   2.733  12.186   0.125
83058SOL    HW251008   2.731  12.072   0.224
83059SOL     OW51009   5.639   8.469   0.395
83059SOL    HW151010   5.606   8.450   0.307
83059SOL    HW251011   5.710   8.531   0.381
83060SOL     OW51012   6.469  12.285   8.991
83060SOL    HW151013   6.442  12.260   9.079
83060SOL    HW251014   6.483  12.202   8.946
83061SOL     OW51015   5.806   2.462   2.814
83061SOL    HW151016   5.732   2.423   2.860
83061SOL    HW251017   5.779   2.466   2.722
83062SOL     OW51018  14.437  11.318   1.957
83062SOL    HW151019  14.344  11.295   1.960
83062SOL    HW251020  14.458  11.322   1.864
83063SOL     OW51021   6.401  14.687  11.478
83063SOL    HW151022   6.362  14.680  11.566
83063SOL    HW251023   6.458  14.610  11.472
83064SOL     OW51024  12.259   8.857   9.670
83064SOL    HW151025  12.349   8.850   9.640
83064SOL    HW251026  12.207   8.860   9.590
83065SOL     OW51027   5.834   1.119   1.260
83065SOL    HW151028   5.824   1.036   1.214
83065SOL    HW251029   5.868   1.179   1.193
83066SOL     OW51030   6.938   2.180   7.519
83066SOL    HW151031   6.921   2.163   7.426
83066SOL    HW251032   7.020   2.229   7.520
83067SOL     OW51033   4.574   3.572  10.124
83067SOL    HW151034   4.634   3.609  10.188
83067SOL    HW251035   4.578   3.632  10.050
83068SOL     OW51036   3.275  10.144   2.955
83068SOL    HW151037   3.249  10.088   2.883
83068SOL    HW251038   3.224  10.224   2.943
83069SOL     OW51039   5.619  14.836   6.314
83069SOL    HW151040   5.617   0.041   6.358
83069SOL    HW251041   5.710  14.806   6.322
83070SOL     OW51042   4.005   1.140   3.241
83070SOL    HW151043   4.062   1.063   3.241
83070SOL    HW251044   4.060   1.210   3.206
83071SOL     OW51045   4.111   7.862  11.695
83071SOL    HW151046   4.188   7.908  11.729
83071SOL    HW251047   4.111   7.778  11.741
83072SOL     OW51048  13.882   8.679   0.747
83072SOL    HW151049  13.877   8.765   0.788
83072SOL    HW251050  13.905   8.620   0.818
83073SOL     OW51051   1.236   1.240   9.845
83073SOL    HW151052   1.270   1.153   9.866
83073SOL    HW251053   1.150   1.223   9.808
83074SOL     OW51054   8.783   2.966  13.728
83074SOL    HW151055   8.757   3.058  13.725
83074SOL    HW251056   8.878   2.967  13.729
83075SOL     OW51057  13.136   8.336   8.951
83075SOL    HW151058  13.067   8.271   8.935
83075SOL    HW251059  13.103   8.388   9.025
83076SOL     OW51060  13.590   7.940   8.909
83076SOL    HW151061  13.537   8.019   8.914
83076SOL    HW251062  13.526   7.868   8.913
83077SOL     OW51063   9.833   7.683  14.656
83077SOL    HW151064   9.778   7.759  14.673
83077SOL    HW251065   9.788   7.610  14.699
83078SOL     OW51066  11.138   3.696   6.881
83078SOL    HW151067  11.079   3.622   6.865
83078SOL    HW251068  11.093   3.749   6.946
83079SOL     OW51069  10.125  12.192   4.734
83079SOL    HW151070  10.183  12.226   4.666
83079SOL    HW251071  10.074  12.124   4.689
83080SOL     OW51072   6.881   4.170  14.652
83080SOL    HW151073   6.902   4.104  14.585
83080SOL    HW251074   6.798   4.208  14.622
83081SOL     OW51075   5.402   5.621   7.656
83081SOL    HW151076   5.383   5.653   7.744
83081SOL    HW251077   5.427   5.698   7.607
83082SOL     OW51078   5.234  10.743   2.220
83082SOL    HW151079   5.266  10.820   2.172
83082SOL    HW251080   5.305  10.679   2.211
83083SOL     OW51081   7.055   7.363   0.717
83083SOL    HW151082   7.075   7.272   0.693
83083SOL    HW251083   7.110   7.415   0.659
83084SOL     OW51084   0.191   7.271  10.422
83084SOL    HW151085   0.141   7.250  10.344
83084SOL    HW251086   0.127   7.270  10.493
83085SOL     OW51087   7.602   3.187  10.860
83085SOL    HW151088   7.689   3.228  10.856
83085SOL    HW251089   7.561   3.211  10.777
83086SOL     OW51090  12.143   4.805  10.118
83086SOL    HW151091  12.118   4.718  10.149
83086SOL    HW251092  12.158   4.855  10.199
83087SOL     OW51093   8.389   4.868   6.820
83087SOL    HW151094   8.391   4.858   6.725
83087SOL    HW251095   8.376   4.780   6.854
83088SOL     OW51096  13.425  14.636   5.262
83088SOL    HW151097  13.503  14.665   5.215
83088SOL    HW251098  13.415  14.699   5.334
83089SOL     OW51099   2.373  13.551   8.549
83089SOL    HW151100   2.304  13.588   8.494
83089SOL    HW251101   2.326  13.498   8.613
83090SOL     OW51102   2.214   3.550   1.231
83090SOL    HW151103   2.230   3.591   1.316
83090SOL    HW251104   2.275   3.595   1.172
83091SOL     OW51105  11.512  11.977   6.432
83091SOL    HW151106  11.453  12.036   6.385
83091SOL    HW251107  11.600  12.011   6.415
83092SOL     OW51108   2.913   7.777  14.507
83092SOL    HW151109   2.880   7.697  14.467
83092SOL    HW251110   3.003   7.757  14.530
83093SOL     OW51111   9.597   7.391  12.095
83093SOL    HW151112   9.562   7.422  12.011
83093SOL    HW251113   9.692   7.387  12.081
83094SOL     OW51114   8.402   9.253  13.481
83094SOL    HW151115   8.415   9.158  13.479
83094SOL    HW251116   8.308   9.264  13.490
83095SOL     OW51117  12.666   8.301   6.019
83095SOL    HW151118  12.683   8.230   6.080
83095SOL    HW251119  12.696   8.380   6.065
83096SOL     OW51120   7.550   9.511  10.480
83096SOL    HW151121   7.516   9.423  10.494
83096SOL    HW251122   7.516   9.537  10.394
83097SOL     OW51123  14.172   8.498   2.987
83097SOL    HW151124  14.247   8.472   3.041
83097SOL    HW251125  14.097   8.494   3.047
83098SOL     OW51126  11.563   5.231   8.476
83098SOL    HW151127  11.600   5.223   8.388
83098SOL    HW251128  11.615   5.170   8.530
83099SOL     OW51129  10.446   5.689  12.876
83099SOL    HW151130  10.471   5.658  12.789
83099SOL    HW251131  10.510   5.757  12.896
83100SOL     OW51132  11.918  11.144   9.276
83100SOL    HW151133  11.846  11.089   9.247
83100SOL    HW251134  11.995  11.087   9.272
83101SOL     OW51135  13.971   9.349   3.146
83101SOL    HW151136  13.909   9.369   3.216
83101SOL    HW251137  14.042   9.412   3.158
83102SOL     OW51138   4.303   5.523   9.326
83102SOL    HW151139   4.276   5.474   9.249
83102SOL    HW251140   4.379   5.474   9.360
83103SOL     OW51141   3.162   1.305  11.404
83103SOL    HW151142   3.083   1.278  11.358
83103SOL    HW251143   3.131   1.332  11.491
83104SOL     OW51144  14.099   9.876   2.682
83104SOL    HW151145  14.145   9.799   2.648
83104SOL    HW251146  14.169   9.940   2.698
83105SOL     OW51147   0.131   8.589   1.938
83105SOL    HW151148   0.181   8.516   1.974
83105SOL    HW251149   0.187   8.626   1.870
83106SOL     OW51150   5.263   2.502   8.412
83106SOL    HW151151   5.288   2.565   8.345
83106SOL    HW251152   5.273   2.417   8.370
83107SOL     OW51153  10.195  10.038   4.299
83107SOL    HW151154  10.174  10.113   4.244
83107SOL    HW251155  10.118  10.029   4.356
83108SOL     OW51156   9.966   2.120  11.789
83108SOL    HW151157   9.990   2.038  11.832
83108SOL    HW251158   9.973   2.100  11.696
83109SOL     OW51159  10.505   8.176  11.882
83109SOL    HW151160  10.411   8.164  11.867
83109SOL    HW251161  10.544   8.174  11.795
83110SOL     OW51162   4.275  13.904   4.508
83110SOL    HW151163   4.298  13.994   4.485
83110SOL    HW251164   4.298  13.852   4.431
83111SOL     OW51165  13.962   7.911   6.738
83111SOL    HW151166  13.902   7.931   6.811
83111SOL    HW251167  14.010   7.992   6.724
83112SOL     OW51168  13.296   9.661  13.684
83112SOL    HW151169  13.370   9.680  13.742
83112SOL    HW251170  13.337   9.634  13.601
83113SOL     OW51171   5.404   3.739  12.393
83113SOL    HW151172   5.401   3.645  12.410
83113SOL    HW251173   5.333   3.755  12.331
83114SOL     OW51174   5.872   5.537   9.053
83114SOL    HW151175   5.885   5.628   9.079
83114SOL    HW251176   5.816   5.542   8.975
83115SOL     OW51177   1.691   1.549   2.480
83115SOL    HW151178   1.764   1.514   2.530
83115SOL    HW251179   1.690   1.643   2.501
83116SOL     OW51180  12.430   3.489   2.758
83116SOL    HW151181  12.363   3.448   2.813
83116SOL    HW251182  12.384   3.513   2.678
83117SOL     OW51183   6.340   5.827   7.491
83117SOL    HW151184   6.378   5.878   7.420
83117SOL    HW251185   6.280   5.887   7.535
83118SOL     OW51186   1.350   0.069   4.282
83118SOL    HW151187   1.273   0.071   4.226
83118SOL    HW251188   1.376   0.161   4.293
83119SOL     OW51189  13.323   2.690   2.457
83119SOL    HW151190  13.370   2.611   2.433
83119SOL    HW251191  13.321   2.743   2.378
83120SOL     OW51192   4.325  10.768   1.884
83120SOL    HW151193   4.414  10.797   1.863
83120SOL    HW251194   4.336  10.708   1.957
83121SOL     OW51195   6.122   2.940   1.254
83121SOL    HW151196   6.095   2.848   1.258
83121SOL    HW251197   6.216   2.938   1.272
83122SOL     OW51198   6.640   6.784   3.777
83122SOL    HW151199   6.686   6.775   3.861
83122SOL    HW251200   6.669   6.868   3.743
83123SOL     OW51201  12.123   9.621   2.508
83123SOL    HW151202  12.048   9.562   2.513
83123SOL    HW251203  12.194   9.568   2.473
83124SOL     OW51204   5.086   0.637  10.025
83124SOL    HW151205   5.168   0.656  10.069
83124SOL    HW251206   5.024   0.702  10.058
83125SOL     OW51207   7.202  12.219   0.853
83125SOL    HW151208   7.148  12.172   0.789
83125SOL    HW251209   7.178  12.311   0.841
83126SOL     OW51210   4.529   1.967   4.416
83126SOL    HW151211   4.516   1.875   4.440
83126SOL    HW251212   4.550   2.011   4.498
83127SOL     OW51213  10.238   0.287   8.110
83127SOL    HW151214  10.264   0.378   8.120
83127SOL    HW251215  10.321   0.239   8.106
83128SOL     OW51216   3.242   7.458   6.140
83128SOL    HW151217   3.312   7.424   6.085
83128SOL    HW251218   3.252   7.553   6.136
83129SOL     OW51219   4.566   4.343   9.953
83129SOL    HW151220   4.502   4.414   9.946
83129SOL    HW251221   4.646   4.379   9.915
83130SOL     OW51222   2.206   3.946  14.353
83130SOL    HW151223   2.242   4.023  14.396
83130SOL    HW251224   2.273   3.879  14.364
83131SOL     OW51225  11.564   5.574   2.560
83131SOL    HW151226  11.649   5.618   2.553
83131SOL    HW251227  11.538   5.588   2.651
83132SOL     OW51228  11.125  10.890   9.416
83132SOL    HW151229  11.175  10.825   9.366
83132SOL    HW251230  11.074  10.937   9.350
83133SOL     OW51231   9.899   0.760  11.953
83133SOL    HW151232   9.900   0.796  12.042
83133SOL    HW251233   9.899   0.837  11.896
83134SOL     OW51234  13.045   3.981   0.541
83134SOL    HW151235  13.007   4.052   0.490
83134SOL    HW251236  13.050   4.015   0.630
83135SOL     OW51237  11.378   3.625   9.555
83135SOL    HW151238  11.374   3.583   9.641
83135SOL    HW251239  11.349   3.557   9.494
83136SOL     OW51240   5.237   1.641   5.109
83136SOL    HW151241   5.281   1.691   5.041
83136SOL    HW251242   5.213   1.559   5.067
83137SOL     OW51243  12.622  14.025   8.986
83137SOL    HW151244  12.583  14.098   8.936
83137SOL    HW251245  12.577  13.947   8.953
83138SOL     OW51246   0.735   2.715   4.465
83138SOL    HW151247   0.712   2.726   4.558
83138SOL    HW251248   0.666   2.658   4.431
83139SOL     OW51249  13.713   6.662   5.148
83139SOL    HW151250  13.752   6.629   5.228
83139SOL    HW251251  13.627   6.619   5.143
83140SOL     OW51252   9.401   3.810   4.448
83140SOL    HW151253   9.328   3.817   4.509
83140SOL    HW251254   9.472   3.772   4.499
83141SOL     OW51255   4.395  14.604   2.154
83141SOL    HW151256   4.459  14.594   2.084
83141SOL    HW251257   4.314  14.568   2.117
83142SOL     OW51258  13.819   3.206  10.045
83142SOL    HW151259  13.746   3.146  10.030
83142SOL    HW251260  13.791   3.259  10.120
83143SOL     OW51261   2.885   4.895  12.226
83143SOL    HW151262   2.869   4.961  12.159
83143SOL    HW251263   2.947   4.834  12.185
83144SOL     OW51264   7.562   1.045   8.790
83144SOL    HW151265   7.606   1.114   8.740
83144SOL    HW251266   7.531   0.983   8.724
83145SOL     OW51267  10.621  12.723   3.114
83145SOL    HW151268  10.596  12.634   3.136
83145SOL    HW251269  10.644  12.720   3.021
83146SOL     OW51270   0.450   4.427   1.538
83146SOL    HW151271   0.419   4.517   1.547
83146SOL    HW251272   0.524   4.421   1.599
83147SOL     OW51273   4.775   4.892  10.680
83147SOL    HW151274   4.838   4.878  10.610
83147SOL    HW251275   4.743   4.804  10.702
83148SOL     OW51276   2.053   2.386  12.882
83148SOL    HW151277   2.042   2.315  12.819
83148SOL    HW251278   2.123   2.356  12.940
83149SOL     OW51279   6.735   6.889   7.234
83149SOL    HW151280   6.725   6.978   7.265
83149SOL    HW251281   6.646   6.860   7.214
83150SOL     OW51282   4.713  13.789   9.396
83150SOL    HW151283   4.723  13.803   9.490
83150SOL    HW251284   4.680  13.699   9.389
83151SOL     OW51285   0.129  12.132   2.407
83151SOL    HW151286   0.113  12.184   2.328
83151SOL    HW251287   0.155  12.197   2.473
83152SOL     OW51288   0.569  14.191   8.160
83152SOL    HW151289   0.631  14.217   8.092
83152SOL    HW251290   0.543  14.273   8.201
83153SOL     OW51291   4.108   3.051   7.649
83153SOL    HW151292   4.119   3.080   7.559
83153SOL    HW251293   4.177   2.987   7.663
83154SOL     OW51294   9.753   8.897   8.333
83154SOL    HW151295   9.744   8.990   8.315
83154SOL    HW251296   9.790   8.861   8.253
83155SOL     OW51297  14.277   6.216   9.453
83155SOL    HW151298  14.210   6.268   9.498
83155SOL    HW251299  14.243   6.205   9.364
83156SOL     OW51300  14.241  11.914  11.162
83156SOL    HW151301  14.229  11.950  11.250
83156SOL    HW251302  14.264  11.990  11.108
83157SOL     OW51303  12.739   1.140   2.755
83157SOL    HW151304  12.747   1.128   2.850
83157SOL    HW251305  12.762   1.232   2.740
83158SOL     OW51306   1.972  12.396   3.558
83158SOL    HW151307   2.022  12.453   3.616
83158SOL    HW251308   2.018  12.400   3.474
83159SOL     OW51309   4.430   3.581   0.966
83159SOL    HW151310   4.414   3.670   0.995
83159SOL    HW251311   4.421   3.584   0.871
83160SOL     OW51312  13.267   6.714   5.697
83160SOL    HW151313  13.268   6.757   5.783
83160SOL    HW251314  13.274   6.786   5.634
83161SOL     OW51315  11.001   0.849  12.282
83161SOL    HW151316  11.034   0.772  12.330
83161SOL    HW251317  10.907   0.850  12.301
83162SOL     OW51318   1.437  12.239  10.632
83162SOL    HW151319   1.373  12.265  10.566
83162SOL    HW251320   1.522  12.266  10.597
83163SOL     OW51321  12.832  10.195   8.509
83163SOL    HW151322  12.772  10.129   8.545
83163SOL    HW251323  12.920  10.159   8.526
83164SOL     OW51324   2.299  10.791   0.157
83164SOL    HW151325   2.388  10.788   0.192
83164SOL    HW251326   2.306  10.749   0.072
83165SOL     OW51327   2.856   3.510   2.525
83165SOL    HW151328   2.825   3.599   2.507
83165SOL    HW251329   2.922   3.521   2.593
83166SOL     OW51330   9.616   0.827   8.165
83166SOL    HW151331   9.563   0.798   8.239
83166SOL    HW251332   9.583   0.776   8.091
83167SOL     OW51333  11.570  14.729   9.882
83167SOL    HW151334  11.570  14.645   9.835
83167SOL    HW251335  11.654  14.730   9.929
83168SOL     OW51336   1.273   8.853  14.543
83168SOL    HW151337   1.317   8.796  14.606
83168SOL    HW251338   1.286   8.941  14.578
83169SOL     OW51339   7.315  13.884   7.900
83169SOL    HW151340   7.300  13.876   7.806
83169SOL    HW251341   7.409  13.864   7.910
83170SOL     OW51342  10.256   9.841   6.262
83170SOL    HW151343  10.192   9.904   6.296
83170SOL    HW251344  10.336   9.892   6.252
83171SOL     OW51345   0.522  10.947   8.438
83171SOL    HW151346   0.594  10.935   8.375
83171SOL    HW251347   0.543  10.886   8.509
83172SOL     OW51348   0.285   3.691  11.597
83172SOL    HW151349   0.320   3.757  11.657
83172SOL    HW251350   0.202   3.665  11.637
83173SOL     OW51351   8.775   6.564   1.213
83173SOL    HW151352   8.732   6.514   1.143
83173SOL    HW251353   8.776   6.654   1.181
83174SOL     OW51354  13.992  10.443   4.511
83174SOL    HW151355  14.023  10.487   4.432
83174SOL    HW251356  13.897  10.449   4.507
83175SOL     OW51357  11.905   7.052   4.470
83175SOL    HW151358  11.978   7.085   4.522
83175SOL    HW251359  11.942   6.979   4.420
83176SOL     OW51360  10.731   0.424   3.193
83176SOL    HW151361  10.740   0.343   3.143
83176SOL    HW251362  10.815   0.433   3.239
83177SOL     OW51363  10.641   1.737  12.120
83177SOL    HW151364  10.679   1.741  12.208
83177SOL    HW251365  10.551   1.706  12.134
83178SOL     OW51366  10.486   6.923   4.238
83178SOL    HW151367  10.581   6.926   4.252
83178SOL    HW251368  10.463   7.011   4.208
83179SOL     OW51369  12.816  13.064   8.451
83179SOL    HW151370  12.893  13.008   8.461
83179SOL    HW251371  12.831  13.137   8.511
83180SOL     OW51372  11.858   1.636  12.434
83180SOL    HW151373  11.798   1.702  12.469
83180SOL    HW251374  11.802   1.561  12.416
83181SOL     OW51375  13.256   1.641   8.114
83181SOL    HW151376  13.326   1.609   8.171
83181SOL    HW251377  13.299   1.660   8.031
83182SOL     OW51378  12.950   3.985   6.425
83182SOL    HW151379  12.923   4.047   6.493
83182SOL    HW251380  13.046   3.986   6.429
83183SOL     OW51381   8.571   0.606   7.661
83183SOL    HW151382   8.549   0.516   7.637
83183SOL    HW251383   8.496   0.636   7.712
83184SOL     OW51384   6.735  14.704   7.155
83184SOL    HW151385   6.811  14.720   7.099
83184SOL    HW251386   6.765  14.725   7.243
83185SOL     OW51387   0.407  14.592   1.365
83185SOL    HW151388   0.494  14.594   1.324
83185SOL    HW251389   0.390  14.499   1.379
83186SOL     OW51390   8.954  11.063  12.875
83186SOL    HW151391   8.939  11.107  12.792
83186SOL    HW251392   8.896  11.107  12.937
83187SOL     OW51393  13.464   1.448   2.936
83187SOL    HW151394  13.430   1.533   2.965
83187SOL    HW251395  13.430   1.438   2.847
83188SOL     OW51396   1.237   2.811   8.358
83188SOL    HW151397   1.253   2.777   8.270
83188SOL    HW251398   1.277   2.898   8.358
83189SOL     OW51399   9.172  14.479  10.049
83189SOL    HW151400   9.224  14.518   9.979
83189SOL    HW251401   9.127  14.406  10.007
83190SOL     OW51402   5.111  11.608  13.098
83190SOL    HW151403   5.201  11.606  13.066
83190SOL    HW251404   5.069  11.532  13.057
83191SOL     OW51405  10.827  12.645   6.502
83191SOL    HW151406  10.899  12.690   6.457
83191SOL    HW251407  10.778  12.715   6.545
83192SOL     OW51408   4.833  11.037   8.218
83192SOL    HW151409   4.892  10.962   8.223
83192SOL    HW251410   4.891  11.113   8.227
83193SOL     OW51411  10.895  11.725   9.548
83193SOL    HW151412  10.938  11.672   9.615
83193SOL    HW251413  10.958  11.728   9.476
83194SOL     OW51414   5.854   0.711   4.776
83194SOL    HW151415   5.866   0.780   4.841
83194SOL    HW251416   5.919   0.729   4.708
83195SOL     OW51417   2.635   2.976  10.212
83195SOL    HW151418   2.705   2.937  10.266
83195SOL    HW251419   2.625   2.915  10.139
83196SOL     OW51420   5.585   1.412   1.725
83196SOL    HW151421   5.647   1.346   1.697
83196SOL    HW251422   5.517   1.412   1.657
83197SOL     OW51423  12.665   6.607   8.585
83197SOL    HW151424  12.739   6.643   8.535
83197SOL    HW251425  12.603   6.577   8.518
83198SOL     OW51426   2.957   8.356  10.851
83198SOL    HW151427   3.045   8.389  10.869
83198SOL    HW251428   2.971   8.267  10.817
83199SOL     OW51429   7.233   1.792   1.065
83199SOL    HW151430   7.305   1.779   1.127
83199SOL    HW251431   7.159   1.745   1.103
83200SOL     OW51432  11.846   4.410   4.673
83200SOL    HW151433  11.833   4.350   4.599
83200SOL    HW251434  11.927   4.456   4.652
83201SOL     OW51435   6.228   6.415   2.540
83201SOL    HW151436   6.234   6.441   2.447
83201SOL    HW251437   6.193   6.326   2.538
83202SOL     OW51438   3.601   4.119   5.095
83202SOL    HW151439   3.603   4.026   5.075
83202SOL    HW251440   3.681   4.134   5.145
83203SOL     OW51441   9.351   2.731  14.324
83203SOL    HW151442   9.375   2.810  14.374
83203SOL    HW251443   9.347   2.760  14.233
83204SOL     OW51444   0.615   2.370  11.029
83204SOL    HW151445   0.654   2.282  11.033
83204SOL    HW251446   0.529   2.360  11.069
83205SOL     OW51447   2.522   2.259  13.857
83205SOL    HW151448   2.541   2.180  13.808
83205SOL    HW251449   2.469   2.312  13.798
83206SOL     OW51450  14.741   8.420  13.964
83206SOL    HW151451  14.835   8.435  13.972
83206SOL    HW251452  14.713   8.482  13.897
83207SOL     OW51453   3.790  12.102   3.708
83207SOL    HW151454   3.706  12.141   3.733
83207SOL    HW251455   3.812  12.143   3.624
83208SOL     OW51456  10.771   2.065  12.729
83208SOL    HW151457  10.823   2.083  12.651
83208SOL    HW251458  10.682   2.094  12.707
83209SOL     OW51459   7.298   8.250   5.661
83209SOL    HW151460   7.270   8.159   5.657
83209SOL    HW251461   7.217   8.300   5.649
83210SOL     OW51462   4.796   3.335   5.152
83210SOL    HW151463   4.732   3.403   5.134
83210SOL    HW251464   4.865   3.379   5.202
83211SOL     OW51465   1.496   4.181   4.068
83211SOL    HW151466   1.544   4.124   4.128
83211SOL    HW251467   1.532   4.269   4.083
83212SOL     OW51468   0.879  13.429  10.887
83212SOL    HW151469   0.917  13.364  10.946
83212SOL    HW251470   0.947  13.445  10.822
83213SOL     OW51471  10.926  14.102  10.519
83213SOL    HW151472  10.900  14.190  10.544
83213SOL    HW251473  10.997  14.080  10.580
83214SOL     OW51474   7.544  10.600   7.345
83214SOL    HW151475   7.583  10.528   7.393
83214SOL    HW251476   7.469  10.562   7.300
83215SOL     OW51477   4.479   3.799  11.576
83215SOL    HW151478   4.529   3.800  11.657
83215SOL    HW251479   4.408   3.861  11.590
83216SOL     OW51480   6.290  14.219  13.373
83216SOL    HW151481   6.282  14.140  13.320
83216SOL    HW251482   6.258  14.192  13.460
83217SOL     OW51483   1.257   1.002   9.566
83217SOL    HW151484   1.264   1.092   9.536
83217SOL    HW251485   1.346   0.967   9.557
83218SOL     OW51486  11.795  10.890   0.758
83218SOL    HW151487  11.752  10.943   0.691
83218SOL    HW251488  11.866  10.845   0.713
83219SOL     OW51489   3.646   4.429   6.837
83219SOL    HW151490   3.642   4.470   6.751
83219SOL    HW251491   3.616   4.497   6.898
83220SOL     OW51492  10.440  10.476   5.500
83220SOL    HW151493  10.528  10.439   5.492
83220SOL    HW251494  10.418  10.503   5.411
83221SOL     OW51495   6.413   1.386   7.307
83221SOL    HW151496   6.335   1.330   7.312
83221SOL    HW251497   6.385   1.469   7.346
83222SOL     OW51498   6.304  14.264   1.565
83222SOL    HW151499   6.372  14.237   1.627
83222SOL    HW251500   6.351  14.311   1.496
83223SOL     OW51501   6.638   2.539  14.479
83223SOL    HW151502   6.643   2.568  14.570
83223SOL    HW251503   6.554   2.573  14.448
83224SOL     OW51504   4.682   8.752  12.159
83224SOL    HW151505   4.600   8.744  12.112
83224SOL    HW251506   4.717   8.837  12.133
83225SOL     OW51507  10.364  11.216  14.268
83225SOL    HW151508  10.393  11.273  14.339
83225SOL    HW251509  10.439  11.159  14.252
83226SOL     OW51510   6.574   7.560   3.010
83226SOL    HW151511   6.539   7.649   3.008
83226SOL    HW251512   6.587   7.537   2.918
83227SOL     OW51513   6.988  14.555  14.577
83227SOL    HW151514   6.972  14.638  14.533
83227SOL    HW251515   7.019  14.496  14.508
83228SOL     OW51516  13.197   3.519   6.120
83228SOL    HW151517  13.114   3.565   6.109
83228SOL    HW251518  13.263   3.585   6.101
83229SOL     OW51519   6.616   1.002   2.085
83229SOL    HW151520   6.581   1.080   2.128
83229SOL    HW251521   6.611   0.934   2.152
83230SOL     OW51522  14.141  13.973   6.667
83230SOL    HW151523  14.116  13.956   6.576
83230SOL    HW251524  14.146  13.887   6.708
83231SOL     OW51525   3.417   6.540   2.786
83231SOL    HW151526   3.368   6.606   2.737
83231SOL    HW251527   3.468   6.589   2.849
83232SOL     OW51528   2.026   0.973   0.837
83232SOL    HW151529   2.038   0.968   0.743
83232SOL    HW251530   2.012   1.066   0.855
83233SOL     OW51531  11.783  14.190   1.826
83233SOL    HW151532  11.725  14.115   1.832
83233SOL    HW251533  11.854  14.171   1.888
83234SOL     OW51534  10.722   6.338   4.288
83234SOL    HW151535  10.730   6.386   4.370
83234SOL    HW251536  10.644   6.284   4.300
83235SOL     OW51537   8.185   4.388   7.843
83235SOL    HW151538   8.224   4.328   7.779
83235SOL    HW251539   8.092   4.368   7.840
83236SOL     OW51540  13.875   6.342   8.865
83236SOL    HW151541  13.904   6.398   8.793
83236SOL    HW251542  13.807   6.287   8.827
83237SOL     OW51543  14.867   2.806   5.728
83237SOL    HW151544   0.025   2.887   5.693
83237SOL    HW251545  14.870   2.819   5.823
83238SOL     OW51546   1.964  11.970   3.491
83238SOL    HW151547   1.888  11.947   3.439
83238SOL    HW251548   1.931  12.034   3.555
83239SOL     OW51549  12.569   9.124  13.947
83239SOL    HW151550  12.519   9.054  13.906
83239SOL    HW251551  12.660   9.096  13.941
83240SOL     OW51552  12.200  13.665  10.943
83240SOL    HW151553  12.252  13.739  10.912
83240SOL    HW251554  12.239  13.639  11.026
83241SOL     OW51555   4.034   1.440   3.604
83241SOL    HW151556   4.044   1.346   3.621
83241SOL    HW251557   4.047   1.481   3.690
83242SOL     OW51558   0.002   6.311   2.243
83242SOL    HW151559  14.814   6.304   2.176
83242SOL    HW251560   0.084   6.320   2.195
83243SOL     OW51561  10.106   6.043  14.304
83243SOL    HW151562  10.083   5.953  14.327
83243SOL    HW251563  10.045   6.067  14.234
83244SOL     OW51564  12.374  12.775   3.925
83244SOL    HW151565  12.305  12.835   3.954
83244SOL    HW251566  12.333  12.688   3.929
83245SOL     OW51567  12.626  10.091   6.175
83245SOL    HW151568  12.619   9.997   6.156
83245SOL    HW251569  12.691  10.123   6.113
83246SOL     OW51570  12.153   2.940  12.319
83246SOL    HW151571  12.233   2.983  12.349
83246SOL    HW251572  12.181   2.854  12.289
83247SOL     OW51573  11.377  13.416   3.605
83247SOL    HW151574  11.373  13.326   3.636
83247SOL    HW251575  11.371  13.409   3.509
83248SOL     OW51576   0.482   3.563   5.725
83248SOL    HW151577   0.463   3.514   5.645
83248SOL    HW251578   0.456   3.653   5.704
83249SOL     OW51579   1.198   0.764  14.308
83249SOL    HW151580   1.173   0.793  14.395
83249SOL    HW251581   1.144   0.687  14.292
83250SOL     OW51582  13.826  10.607   5.897
83250SOL    HW151583  13.776  10.628   5.818
83250SOL    HW251584  13.878  10.530   5.872
83251SOL     OW51585   3.470   1.566   3.106
83251SOL    HW151586   3.439   1.619   3.032
83251SOL    HW251587   3.565   1.579   3.107
83252SOL     OW51588   6.249   3.361   4.038
83252SOL    HW151589   6.313   3.360   4.110
83252SOL    HW251590   6.235   3.454   4.019
83253SOL     OW51591   7.396  10.181  10.052
83253SOL    HW151592   7.459  10.116  10.022
83253SOL    HW251593   7.424  10.204  10.140
83254SOL     OW51594   5.477  11.736  13.965
83254SOL    HW151595   5.390  11.775  13.957
83254SOL    HW251596   5.470  11.676  14.039
83255SOL     OW51597   0.362   2.300   3.836
83255SOL    HW151598   0.338   2.248   3.758
83255SOL    HW251599   0.454   2.277   3.852
83256SOL     OW51600   8.782   1.744  13.622
83256SOL    HW151601   8.799   1.658  13.662
83256SOL    HW251602   8.801   1.732  13.529
83257SOL     OW51603  12.468   1.786   5.857
83257SOL    HW151604  12.463   1.881   5.859
83257SOL    HW251605  12.558   1.767   5.828
83258SOL     OW51606  13.884   3.907   5.554
83258SOL    HW151607  13.826   3.927   5.627
83258SOL    HW251608  13.931   3.989   5.537
83259SOL     OW51609  10.669   5.880   5.613
83259SOL    HW151610  10.689   5.891   5.706
83259SOL    HW251611  10.599   5.943   5.596
83260SOL     OW51612   4.788   7.646   7.085
83260SOL    HW151613   4.758   7.613   7.169
83260SOL    HW251614   4.709   7.674   7.040
83261SOL     OW51615  14.403   5.066   9.784
83261SOL    HW151616  14.426   4.975   9.805
83261SOL    HW251617  14.379   5.105   9.867
83262SOL     OW51618   3.520   9.744   6.202
83262SOL    HW151619   3.612   9.764   6.186
83262SOL    HW251620   3.473   9.801   6.141
83263SOL     OW51621   2.303  11.291   1.251
83263SOL    HW151622   2.235  11.357   1.241
83263SOL    HW251623   2.361  11.326   1.319
83264SOL     OW51624  13.292   5.725   0.160
83264SOL    HW151625  13.381   5.752   0.181
83264SOL    HW251626  13.290   5.631   0.179
83265SOL     OW51627   2.786   7.196   8.105
83265SOL    HW151628   2.809   7.206   8.198
83265SOL    HW251629   2.861   7.149   8.068
83266SOL     OW51630   4.010   7.252  10.679
83266SOL    HW151631   3.918   7.226  10.674
83266SOL    HW251632   4.038   7.224  10.766
83267SOL     OW51633   2.289  14.590   0.716
83267SOL    HW151634   2.206  14.575   0.670
83267SOL    HW251635   2.343  14.638   0.652
83268SOL     OW51636   9.942   4.036   0.377
83268SOL    HW151637   9.972   4.081   0.299
83268SOL    HW251638   9.918   4.106   0.438
83269SOL     OW51639   7.993   2.701  13.212
83269SOL    HW151640   7.900   2.683  13.204
83269SOL    HW251641   8.000   2.796  13.201
83270SOL     OW51642   8.087  10.260   2.333
83270SOL    HW151643   8.004  10.304   2.318
83270SOL    HW251644   8.128  10.257   2.246
83271SOL     OW51645   5.862   1.081   6.813
83271SOL    HW151646   5.929   1.053   6.751
83271SOL    HW251647   5.900   1.065   6.899
83272SOL     OW51648  11.241  12.608   6.942
83272SOL    HW151649  11.239  12.587   6.849
83272SOL    HW251650  11.234  12.703   6.946
83273SOL     OW51651   1.267  12.578  14.569
83273SOL    HW151652   1.193  12.603  14.514
83273SOL    HW251653   1.235  12.502  14.618
83274SOL     OW51654   7.289  13.259   5.695
83274SOL    HW151655   7.360  13.303   5.648
83274SOL    HW251656   7.312  13.166   5.691
83275SOL     OW51657  10.626   8.378   2.502
83275SOL    HW151658  10.695   8.404   2.563
83275SOL    HW251659  10.643   8.285   2.485
83276SOL     OW51660  11.512  10.872   1.755
83276SOL    HW151661  11.423  10.907   1.754
83276SOL    HW251662  11.536  10.867   1.662
83277SOL     OW51663   8.950   4.458  11.435
83277SOL    HW151664   8.945   4.504  11.519
83277SOL    HW251665   8.882   4.500  11.381
83278SOL     OW51666   9.610   9.725   2.332
83278SOL    HW151667   9.560   9.648   2.305
83278SOL    HW251668   9.553   9.769   2.396
83279SOL     OW51669   2.602   1.859   2.818
83279SOL    HW151670   2.516   1.874   2.857
83279SOL    HW251671   2.609   1.926   2.749
83280SOL     OW51672   8.036   2.494   7.397
83280SOL    HW151673   8.075   2.422   7.349
83280SOL    HW251674   7.969   2.530   7.338
83281SOL     OW51675  10.205   5.265   1.866
83281SOL    HW151676  10.143   5.327   1.827
83281SOL    HW251677  10.282   5.269   1.808
83282SOL     OW51678   8.203   7.542   1.181
83282SOL    HW151679   8.200   7.565   1.088
83282SOL    HW251680   8.208   7.627   1.226
83283SOL     OW51681   8.035  14.176  13.159
83283SOL    HW151682   8.124  14.199  13.184
83283SOL    HW251683   7.985  14.178  13.240
83284SOL     OW51684   4.822   7.664   5.955
83284SOL    HW151685   4.881   7.618   5.895
83284SOL    HW251686   4.816   7.607   6.032
83285SOL     OW51687  14.671   9.510   6.466
83285SOL    HW151688  14.687   9.475   6.378
83285SOL    HW251689  14.600   9.456   6.500
83286SOL     OW51690   7.399   5.989  12.213
83286SOL    HW151691   7.311   5.954  12.200
83286SOL    HW251692   7.391   6.048  12.288
83287SOL     OW51693   8.079   1.733   6.239
83287SOL    HW151694   8.148   1.749   6.304
83287SOL    HW251695   8.019   1.806   6.249
83288SOL     OW51696   9.928  11.607   4.193
83288SOL    HW151697   9.938  11.604   4.289
83288SOL    HW251698   9.834  11.621   4.180
83289SOL     OW51699   0.138   4.360   2.292
83289SOL    HW151700   0.143   4.283   2.236
83289SOL    HW251701   0.051   4.354   2.333
83290SOL     OW51702  10.934   3.733   1.250
83290SOL    HW151703  10.919   3.743   1.344
83290SOL    HW251704  11.029   3.728   1.242
83291SOL     OW51705  14.246   7.019   8.200
83291SOL    HW151706  14.326   7.034   8.150
83291SOL    HW251707  14.218   7.106   8.227
83292SOL     OW51708   2.820   4.901   6.894
83292SOL    HW151709   2.887   4.857   6.946
83292SOL    HW251710   2.833   4.994   6.912
83293SOL     OW51711   2.975  14.145   7.592
83293SOL    HW151712   3.007  14.125   7.504
83293SOL    HW251713   3.030  14.217   7.622
83294SOL     OW51714  11.422   3.409   5.708
83294SOL    HW151715  11.512   3.437   5.692
83294SOL    HW251716  11.383   3.404   5.621
83295SOL     OW51717   6.355  10.035   5.511
83295SOL    HW151718   6.444  10.014   5.537
83295SOL    HW251719   6.325   9.958   5.462
83296SOL     OW51720  13.063   5.128   8.270
83296SOL    HW151721  13.023   5.071   8.204
83296SOL    HW251722  13.023   5.101   8.352
83297SOL     OW51723   0.654   1.447   5.793
83297SOL    HW151724   0.668   1.387   5.866
83297SOL    HW251725   0.697   1.528   5.820
83298SOL     OW51726   4.874  13.886   9.881
83298SOL    HW151727   4.897  13.959   9.937
83298SOL    HW251728   4.915  13.810   9.923
83299SOL     OW51729   5.298   5.136   1.151
83299SOL    HW151730   5.336   5.049   1.138
83299SOL    HW251731   5.296   5.174   1.063
83300SOL     OW51732   3.005   9.521   9.320
83300SOL    HW151733   3.069   9.452   9.301
83300SOL    HW251734   2.948   9.483   9.386
83301SOL     OW51735   4.287   7.010   0.546
83301SOL    HW151736   4.263   7.057   0.626
83301SOL    HW251737   4.324   6.927   0.577
83302SOL     OW51738   5.296  10.473  12.881
83302SOL    HW151739   5.214  10.516  12.906
83302SOL    HW251740   5.277  10.380  12.883
83303SOL     OW51741   8.734  11.715   2.945
83303SOL    HW151742   8.712  11.743   2.856
83303SOL    HW251743   8.751  11.621   2.938
83304SOL     OW51744  11.088   9.580   4.121
83304SOL    HW151745  11.123   9.651   4.174
83304SOL    HW251746  11.012   9.618   4.076
83305SOL     OW51747   3.296   2.693   7.054
83305SOL    HW151748   3.339   2.614   7.021
83305SOL    HW251749   3.359   2.763   7.036
83306SOL     OW51750   3.055   9.887  13.743
83306SOL    HW151751   3.144   9.922  13.743
83306SOL    HW251752   3.055   9.821  13.812
83307SOL     OW51753   0.027   3.374   7.058
83307SOL    HW151754   0.118   3.399   7.043
83307SOL    HW251755   0.032   3.298   7.116
83308SOL     OW51756   3.951  14.469   3.110
83308SOL    HW151757   3.950  14.432   3.021
83308SOL    HW251758   4.029  14.430   3.151
83309SOL     OW51759   9.389   7.472   8.733
83309SOL    HW151760   9.371   7.465   8.827
83309SOL    HW251761   9.303   7.486   8.693
83310SOL     OW51762  14.622   8.454   9.560
83310SOL    HW151763  14.544   8.398   9.561
83310SOL    HW251764  14.689   8.399   9.520
83311SOL     OW51765   4.966   3.390   2.570
83311SOL    HW151766   4.974   3.470   2.623
83311SOL    HW251767   4.998   3.415   2.484
83312SOL     OW51768   9.668   3.512   8.252
83312SOL    HW151769   9.722   3.528   8.174
83312SOL    HW251770   9.686   3.587   8.309
83313SOL     OW51771  14.082  14.587  11.076
83313SOL    HW151772  14.081  14.635  11.158
83313SOL    HW251773  14.143  14.514  11.091
83314SOL     OW51774   2.508   5.932   5.100
83314SOL    HW151775   2.454   6.006   5.127
83314SOL    HW251776   2.471   5.857   5.147
83315SOL     OW51777   2.908   8.775   6.086
83315SOL    HW151778   2.976   8.734   6.139
83315SOL    HW251779   2.826   8.746   6.125
83316SOL     OW51780   3.743   5.169   5.644
83316SOL    HW151781   3.649   5.173   5.628
83316SOL    HW251782   3.762   5.249   5.694
83317SOL     OW51783  10.569   0.930   8.689
83317SOL    HW151784  10.630   0.977   8.745
83317SOL    HW251785  10.529   0.999   8.635
83318SOL     OW51786  14.860   9.193   0.616
83318SOL    HW151787   0.019   9.263   0.563
83318SOL    HW251788   0.019   9.112   0.582
83319SOL     OW51789  11.045   1.780   4.759
83319SOL    HW151790  10.973   1.748   4.705
83319SOL    HW251791  11.075   1.703   4.807
83320SOL     OW51792   5.417   6.848  12.019
83320SOL    HW151793   5.461   6.768  11.990
83320SOL    HW251794   5.330   6.819  12.045
83321SOL     OW51795   1.497   7.441  13.765
83321SOL    HW151796   1.555   7.467  13.694
83321SOL    HW251797   1.542   7.368  13.807
83322SOL     OW51798   2.798   9.952   7.403
83322SOL    HW151799   2.846  10.030   7.375
83322SOL    HW251800   2.706   9.979   7.405
83323SOL     OW51801   2.115   7.656  14.185
83323SOL    HW151802   2.040   7.604  14.155
83323SOL    HW251803   2.078   7.741  14.207
83324SOL     OW51804  10.211   0.827  12.525
83324SOL    HW151805  10.247   0.904  12.569
83324SOL    HW251806  10.142   0.795  12.585
83325SOL     OW51807   9.340   7.183   0.730
83325SOL    HW151808   9.422   7.210   0.773
83325SOL    HW251809   9.354   7.092   0.706
83326SOL     OW51810  11.229  13.020   1.452
83326SOL    HW151811  11.284  13.072   1.510
83326SOL    HW251812  11.267  13.033   1.365
83327SOL     OW51813   1.571   0.307   6.133
83327SOL    HW151814   1.645   0.340   6.183
83327SOL    HW251815   1.578   0.349   6.048
83328SOL     OW51816   7.953  12.926   7.882
83328SOL    HW151817   7.912  12.943   7.797
83328SOL    HW251818   8.039  12.890   7.860
83329SOL     OW51819   0.207   5.493   8.374
83329SOL    HW151820   0.194   5.522   8.464
83329SOL    HW251821   0.302   5.498   8.361
83330SOL     OW51822   8.559   9.785   9.827
83330SOL    HW151823   8.501   9.714   9.856
83330SOL    HW251824   8.532   9.802   9.737
83331SOL     OW51825  12.394   6.267   9.152
83331SOL    HW151826  12.355   6.318   9.082
83331SOL    HW251827  12.454   6.206   9.108
83332SOL     OW51828  13.113   1.945   6.387
83332SOL    HW151829  13.103   2.002   6.463
83332SOL    HW251830  13.023   1.928   6.358
83333SOL     OW51831  12.228   3.177   7.417
83333SOL    HW151832  12.165   3.192   7.345
83333SOL    HW251833  12.173   3.152   7.491
83334SOL     OW51834  13.603   4.185   0.596
83334SOL    HW151835  13.512   4.186   0.625
83334SOL    HW251836  13.631   4.094   0.609
83335SOL     OW51837   0.943   6.249   9.828
83335SOL    HW151838   0.920   6.188   9.898
83335SOL    HW251839   0.918   6.335   9.862
83336SOL     OW51840   2.856   4.483   5.164
83336SOL    HW151841   2.891   4.431   5.091
83336SOL    HW251842   2.768   4.507   5.134
83337SOL     OW51843   3.602  13.115  11.905
83337SOL    HW151844   3.559  13.029  11.912
83337SOL    HW251845   3.570  13.163  11.981
83338SOL     OW51846   6.585  12.442   1.931
83338SOL    HW151847   6.568  12.504   1.860
83338SOL    HW251848   6.612  12.362   1.887
83339SOL     OW51849  11.700   1.767   5.348
83339SOL    HW151850  11.611   1.783   5.378
83339SOL    HW251851  11.698   1.785   5.254
83340SOL     OW51852  12.211   5.761  13.980
83340SOL    HW151853  12.202   5.708  13.901
83340SOL    HW251854  12.279   5.825  13.958
83341SOL     OW51855   3.073   3.664   6.774
83341SOL    HW151856   3.049   3.658   6.682
83341SOL    HW251857   3.140   3.598   6.786
83342SOL     OW51858   0.218   3.954   0.847
83342SOL    HW151859   0.223   4.002   0.764
83342SOL    HW251860   0.169   4.011   0.905
83343SOL     OW51861  10.918  12.861   7.421
83343SOL    HW151862  10.954  12.789   7.471
83343SOL    HW251863  10.962  12.939   7.455
83344SOL     OW51864   9.153   5.192   1.053
83344SOL    HW151865   9.226   5.152   1.007
83344SOL    HW251866   9.194   5.252   1.116
83345SOL     OW51867   7.608   0.151   6.476
83345SOL    HW151868   7.611   0.210   6.401
83345SOL    HW251869   7.560   0.200   6.543
83346SOL     OW51870   9.372   6.935   0.617
83346SOL    HW151871   9.284   6.939   0.577
83346SOL    HW251872   9.423   6.883   0.555
83347SOL     OW51873   7.014  11.126   8.332
83347SOL    HW151874   7.015  11.079   8.248
83347SOL    HW251875   6.922  11.125   8.358
83348SOL     OW51876   2.689  10.678  13.871
83348SOL    HW151877   2.694  10.676  13.775
83348SOL    HW251878   2.617  10.738  13.890
83349SOL     OW51879  10.329  11.574   5.966
83349SOL    HW151880  10.372  11.554   5.884
83349SOL    HW251881  10.242  11.605   5.941
83350SOL     OW51882  14.485   7.414   8.958
83350SOL    HW151883  14.469   7.391   9.049
83350SOL    HW251884  14.500   7.329   8.915
83351SOL     OW51885   5.986   7.891   3.340
83351SOL    HW151886   6.038   7.815   3.313
83351SOL    HW251887   6.002   7.899   3.434
83352SOL     OW51888   1.145  10.745  10.041
83352SOL    HW151889   1.216  10.686  10.066
83352SOL    HW251890   1.078  10.688  10.004
83353SOL     OW51891  12.356   7.219   3.997
83353SOL    HW151892  12.314   7.176   4.071
83353SOL    HW251893  12.303   7.194   3.922
83354SOL     OW51894  10.092  10.611   1.799
83354SOL    HW151895  10.127  10.655   1.722
83354SOL    HW251896  10.125  10.522   1.793
83355SOL     OW51897   9.448   5.235   6.322
83355SOL    HW151898   9.420   5.317   6.364
83355SOL    HW251899   9.535   5.218   6.359
83356SOL     OW51900   4.773   5.088  10.152
83356SOL    HW151901   4.680   5.095  10.173
83356SOL    HW251902   4.817   5.093  10.237
83357SOL     OW51903   8.624   7.842   1.953
83357SOL    HW151904   8.537   7.812   1.981
83357SOL    HW251905   8.669   7.763   1.925
83358SOL     OW51906  13.198   9.208   4.028
83358SOL    HW151907  13.136   9.135   4.019
83358SOL    HW251908  13.172   9.250   4.110
83359SOL     OW51909   9.806   4.078   0.875
83359SOL    HW151910   9.850   4.145   0.926
83359SOL    HW251911   9.877   4.018   0.849
83360SOL     OW51912  12.676   1.053  10.321
83360SOL    HW151913  12.755   1.105  10.330
83360SOL    HW251914  12.699   0.985  10.257
83361SOL     OW51915   4.760  14.300  10.537
83361SOL    HW151916   4.853  14.305  10.514
83361SOL    HW251917   4.760  14.301  10.633
83362SOL     OW51918   3.104   6.490   7.120
83362SOL    HW151919   3.181   6.543   7.100
83362SOL    HW251920   3.125   6.402   7.088
83363SOL     OW51921  13.850  12.955   5.278
83363SOL    HW151922  13.887  13.037   5.311
83363SOL    HW251923  13.771  12.982   5.230
83364SOL     OW51924   1.604   1.766   2.905
83364SOL    HW151925   1.541   1.714   2.854
83364SOL    HW251926   1.550   1.807   2.973
83365SOL     OW51927   0.926   1.142   8.308
83365SOL    HW151928   0.864   1.075   8.338
83365SOL    HW251929   0.943   1.120   8.217
83366SOL     OW51930   1.778   1.644  12.887
83366SOL    HW151931   1.860   1.625  12.932
83366SOL    HW251932   1.748   1.726  12.927
83367SOL     OW51933   0.444   4.865   5.579
83367SOL    HW151934   0.481   4.952   5.596
83367SOL    HW251935   0.389   4.877   5.501
83368SOL     OW51936  10.584  14.181   2.345
83368SOL    HW151937  10.491  14.174   2.365
83368SOL    HW251938  10.614  14.257   2.395
83369SOL     OW51939   9.898   1.953  10.498
83369SOL    HW151940   9.902   1.904  10.580
83369SOL    HW251941   9.836   1.904  10.443
83370SOL     OW51942   3.911  12.366   9.772
83370SOL    HW151943   3.991  12.369   9.826
83370SOL    HW251944   3.882  12.275   9.779
83371SOL     OW51945  11.196   3.029   7.479
83371SOL    HW151946  11.181   3.122   7.492
83371SOL    HW251947  11.155   3.009   7.395
83372SOL     OW51948   7.088   3.848  14.379
83372SOL    HW151949   7.117   3.760  14.399
83372SOL    HW251950   7.167   3.895  14.354
83373SOL     OW51951   9.215   0.691   2.283
83373SOL    HW151952   9.226   0.596   2.291
83373SOL    HW251953   9.127   0.701   2.245
83374SOL     OW51954   0.909  13.879  10.119
83374SOL    HW151955   0.989  13.881  10.066
83374SOL    HW251956   0.941  13.873  10.210
83375SOL     OW51957   8.315   7.870   2.390
83375SOL    HW151958   8.372   7.934   2.432
83375SOL    HW251959   8.229   7.912   2.388
83376SOL     OW51960   9.760   4.837   8.333
83376SOL    HW151961   9.830   4.856   8.270
83376SOL    HW251962   9.745   4.743   8.324
83377SOL     OW51963   2.570   1.293   3.789
83377SOL    HW151964   2.659   1.291   3.753
83377SOL    HW251965   2.579   1.252   3.876
83378SOL     OW51966  12.804   9.456   7.987
83378SOL    HW151967  12.730   9.396   7.998
83378SOL    HW251968  12.855   9.419   7.916
83379SOL     OW51969   4.865   8.846  10.599
83379SOL    HW151970   4.792   8.799  10.639
83379SOL    HW251971   4.833   8.870  10.512
83380SOL     OW51972   4.347   0.006   2.595
83380SOL    HW151973   4.407   0.060   2.543
83380SOL    HW251974   4.349  14.800   2.552
83381SOL     OW51975   4.292  12.325  11.076
83381SOL    HW151976   4.211  12.373  11.061
83381SOL    HW251977   4.274  12.236  11.045
83382SOL     OW51978   5.032  12.217   5.647
83382SOL    HW151979   5.101  12.213   5.580
83382SOL    HW251980   4.967  12.277   5.611
83383SOL     OW51981   4.347   3.472  14.413
83383SOL    HW151982   4.418   3.535  14.399
83383SOL    HW251983   4.321   3.445  14.325
83384SOL     OW51984   8.370   5.302  11.306
83384SOL    HW151985   8.442   5.257  11.262
83384SOL    HW251986   8.405   5.387  11.332
83385SOL     OW51987   1.133  14.638   9.202
83385SOL    HW151988   1.069  14.691   9.249
83385SOL    HW251989   1.090  14.553   9.190
83386SOL     OW51990  12.189  13.301  10.425
83386SOL    HW151991  12.173  13.277  10.334
83386SOL    HW251992  12.105  13.288  10.469
83387SOL     OW51993   7.488  12.939   3.039
83387SOL    HW151994   7.462  12.930   2.947
83387SOL    HW251995   7.442  12.868   3.084
83388SOL     OW51996   9.841  14.807  10.508
83388SOL    HW151997   9.898  14.787  10.582
83388SOL    HW251998   9.763  14.753  10.521
83389SOL     OW51999   5.607  10.660  13.810
83389SOL    HW152000   5.697  10.631  13.824
83389SOL    HW252001   5.615  10.752  13.784
83390SOL     OW52002   8.168   1.457   3.111
83390SOL    HW152003   8.233   1.486   3.047
83390SOL    HW252004   8.084   1.473   3.069
83391SOL     OW52005   5.770   5.398   7.767
83391SOL    HW152006   5.842   5.366   7.821
83391SOL    HW252007   5.707   5.326   7.766
83392SOL     OW52008   7.540   6.110  11.958
83392SOL    HW152009   7.622   6.120  11.909
83392SOL    HW252010   7.534   6.016  11.975
83393SOL     OW52011   5.206   6.281  14.281
83393SOL    HW152012   5.223   6.191  14.254
83393SOL    HW252013   5.287   6.309  14.324
83394SOL     OW52014   3.397   8.701   7.242
83394SOL    HW152015   3.374   8.775   7.185
83394SOL    HW252016   3.341   8.630   7.213
83395SOL     OW52017  14.571   1.520  11.661
83395SOL    HW152018  14.589   1.598  11.714
83395SOL    HW252019  14.612   1.448  11.708
83396SOL     OW52020   5.093   6.754  13.337
83396SOL    HW152021   5.084   6.659  13.344
83396SOL    HW252022   5.042   6.789  13.411
83397SOL     OW52023  11.160   6.678   2.721
83397SOL    HW152024  11.149   6.749   2.658
83397SOL    HW252025  11.109   6.705   2.797
83398SOL     OW52026   5.373   1.250   0.387
83398SOL    HW152027   5.286   1.252   0.428
83398SOL    HW252028   5.419   1.179   0.432
83399SOL     OW52029   8.552  13.289   1.233
83399SOL    HW152030   8.547  13.325   1.144
83399SOL    HW252031   8.461  13.271   1.256
83400SOL     OW52032   5.320  10.720   1.907
83400SOL    HW152033   5.317  10.636   1.951
83400SOL    HW252034   5.406  10.756   1.929
83401SOL     OW52035   7.158   8.281   2.552
83401SOL    HW152036   7.110   8.359   2.582
83401SOL    HW252037   7.168   8.295   2.458
83402SOL     OW52038  13.880   3.506   6.791
83402SOL    HW152039  13.894   3.506   6.697
83402SOL    HW252040  13.845   3.593   6.810
83403SOL     OW52041   0.043  12.397  12.100
83403SOL    HW152042   0.025  12.482  12.141
83403SOL    HW252043   0.060  12.418  12.008
83404SOL     OW52044   7.090   8.277   0.185
83404SOL    HW152045   7.058   8.335   0.116
83404SOL    HW252046   7.056   8.191   0.161
83405SOL     OW52047  10.821   1.477   0.310
83405SOL    HW152048  10.777   1.533   0.245
83405SOL    HW252049  10.791   1.388   0.290
83406SOL     OW52050  10.275   3.536   2.616
83406SOL    HW152051  10.240   3.499   2.536
83406SOL    HW252052  10.362   3.569   2.592
83407SOL     OW52053   3.150   6.239   6.605
83407SOL    HW152054   3.232   6.247   6.557
83407SOL    HW252055   3.102   6.320   6.585
83408SOL     OW52056   7.010  13.832   7.923
83408SOL    HW152057   7.000  13.751   7.974
83408SOL    HW252058   7.052  13.893   7.984
83409SOL     OW52059  14.506   7.032   4.170
83409SOL    HW152060  14.474   7.010   4.083
83409SOL    HW252061  14.427   7.044   4.223
83410SOL     OW52062   9.145  12.991   6.447
83410SOL    HW152063   9.078  13.045   6.406
83410SOL    HW252064   9.096  12.935   6.508
83411SOL     OW52065   6.062   8.592   8.027
83411SOL    HW152066   6.065   8.512   8.080
83411SOL    HW252067   5.998   8.647   8.071
83412SOL     OW52068  14.780  12.450  11.303
83412SOL    HW152069  14.761  12.370  11.254
83412SOL    HW252070  14.792  12.421  11.393
83413SOL     OW52071   4.498   7.468   5.744
83413SOL    HW152072   4.488   7.438   5.654
83413SOL    HW252073   4.558   7.543   5.737
83414SOL     OW52074   9.658   1.689   6.270
83414SOL    HW152075   9.600   1.678   6.345
83414SOL    HW252076   9.634   1.774   6.233
83415SOL     OW52077   5.737   3.545   2.802
83415SOL    HW152078   5.757   3.453   2.822
83415SOL    HW252079   5.754   3.591   2.883
83416SOL     OW52080  12.805   6.802   2.154
83416SOL    HW152081  12.851   6.762   2.080
83416SOL    HW252082  12.765   6.881   2.118
83417SOL     OW52083   4.973  10.717   6.123
83417SOL    HW152084   4.994  10.751   6.036
83417SOL    HW252085   5.051  10.667   6.148
83418SOL     OW52086   6.990  14.548  13.610
83418SOL    HW152087   7.057  14.560  13.543
83418SOL    HW252088   6.907  14.565  13.565
83419SOL     OW52089   6.292   7.926   2.863
83419SOL    HW152090   6.276   7.839   2.899
83419SOL    HW252091   6.331   7.909   2.777
83420SOL     OW52092   3.368   1.179  10.699
83420SOL    HW152093   3.391   1.110  10.636
83420SOL    HW252094   3.377   1.261  10.649
83421SOL     OW52095  10.319   8.782   8.458
83421SOL    HW152096  10.245   8.830   8.422
83421SOL    HW252097  10.386   8.786   8.390
83422SOL     OW52098   6.658  11.444   3.031
83422SOL    HW152099   6.649  11.373   3.094
83422SOL    HW252100   6.582  11.434   2.973
83423SOL     OW52101   8.936   4.125   2.482
83423SOL    HW152102   9.016   4.176   2.467
83423SOL    HW252103   8.892   4.171   2.554
83424SOL     OW52104   8.009   6.130   6.430
83424SOL    HW152105   8.017   6.034   6.430
83424SOL    HW252106   7.951   6.148   6.355
83425SOL     OW52107  10.290   3.685  12.994
83425SOL    HW152108  10.230   3.755  12.967
83425SOL    HW252109  10.344   3.725  13.062
83426SOL     OW52110  13.749   1.466  12.124
83426SOL    HW152111  13.750   1.459  12.220
83426SOL    HW252112  13.660   1.443  12.099
83427SOL     OW52113   4.905  13.071  12.416
83427SOL    HW152114   4.867  13.010  12.479
83427SOL    HW252115   4.849  13.149  12.421
83428SOL     OW52116   3.063   5.810   4.802
83428SOL    HW152117   3.147   5.850   4.826
83428SOL    HW252118   3.001   5.848   4.864
83429SOL     OW52119  14.261   4.982   9.441
83429SOL    HW152120  14.281   4.898   9.480
83429SOL    HW252121  14.286   5.046   9.507
83430SOL     OW52122  11.531   4.501   0.819
83430SOL    HW152123  11.577   4.550   0.888
83430SOL    HW252124  11.522   4.564   0.747
83431SOL     OW52125   6.732   5.581   3.190
83431SOL    HW152126   6.691   5.497   3.170
83431SOL    HW252127   6.771   5.609   3.107
83432SOL     OW52128  10.621   4.358   4.484
83432SOL    HW152129  10.527   4.368   4.501
83432SOL    HW252130  10.642   4.428   4.422
83433SOL     OW52131   0.923   6.803   0.904
83433SOL    HW152132   0.964   6.776   0.987
83433SOL    HW252133   0.934   6.728   0.846
83434SOL     OW52134  11.898   1.164  11.011
83434SOL    HW152135  11.985   1.192  10.986
83434SOL    HW252136  11.906   1.138  11.103
83435SOL     OW52137   5.053  12.933   1.151
83435SOL    HW152138   5.138  12.932   1.107
83435SOL    HW252139   4.995  12.884   1.093
83436SOL     OW52140  12.448   7.597   7.585
83436SOL    HW152141  12.448   7.692   7.578
83436SOL    HW252142  12.497   7.567   7.509
83437SOL     OW52143   1.131  11.275   3.728
83437SOL    HW152144   1.049  11.319   3.707
83437SOL    HW252145   1.111  11.182   3.722
83438SOL     OW52146   1.515   8.742   9.498
83438SOL    HW152147   1.577   8.808   9.529
83438SOL    HW252148   1.466   8.716   9.577
83439SOL     OW52149   3.528   4.220   1.044
83439SOL    HW152150   3.582   4.152   1.085
83439SOL    HW252151   3.585   4.261   0.980
83440SOL     OW52152   2.108   0.802   7.198
83440SOL    HW152153   2.039   0.796   7.264
83440SOL    HW252154   2.104   0.719   7.151
83441SOL     OW52155   1.438  10.937   4.482
83441SOL    HW152156   1.444  10.920   4.576
83441SOL    HW252157   1.442  11.032   4.474
83442SOL     OW52158   4.464   9.267  14.351
83442SOL    HW152159   4.464   9.234  14.441
83442SOL    HW252160   4.373   9.265  14.325
83443SOL     OW52161   6.028   4.088  10.134
83443SOL    HW152162   6.007   4.163  10.190
83443SOL    HW252163   5.948   4.073  10.083
83444SOL     OW52164   8.922  10.401   4.042
83444SOL    HW152165   8.827  10.396   4.030
83444SOL    HW252166   8.949  10.475   3.987
83445SOL     OW52167  11.689   2.877  11.822
83445SOL    HW152168  11.628   2.804  11.829
83445SOL    HW252169  11.697   2.892  11.728
83446SOL     OW52170   6.749   2.687   6.317
83446SOL    HW152171   6.801   2.638   6.381
83446SOL    HW252172   6.814   2.734   6.265
83447SOL     OW52173   4.074  10.071  12.098
83447SOL    HW152174   4.144  10.033  12.151
83447SOL    HW252175   4.000  10.011  12.111
83448SOL     OW52176  13.603  14.709   7.296
83448SOL    HW152177  13.648  14.782   7.253
83448SOL    HW252178  13.586  14.646   7.226
83449SOL     OW52179   9.535  13.121   1.645
83449SOL    HW152180   9.455  13.077   1.616
83449SOL    HW252181   9.603  13.053   1.639
83450SOL     OW52182   8.121  11.481   4.623
83450SOL    HW152183   8.210  11.455   4.596
83450SOL    HW252184   8.135  11.536   4.700
83451SOL     OW52185   1.277  10.914   2.733
83451SOL    HW152186   1.233  10.995   2.707
83451SOL    HW252187   1.206  10.858   2.766
83452SOL     OW52188   7.309  12.612   6.039
83452SOL    HW152189   7.380  12.580   6.095
83452SOL    HW252190   7.229  12.592   6.089
83453SOL     OW52191   8.592   5.235   3.501
83453SOL    HW152192   8.611   5.295   3.573
83453SOL    HW252193   8.554   5.158   3.543
83454SOL     OW52194   0.041  11.809  13.683
83454SOL    HW152195   0.053  11.807  13.588
83454SOL    HW252196  14.831  11.841  13.695
83455SOL     OW52197   3.166   7.433   8.936
83455SOL    HW152198   3.148   7.520   8.971
83455SOL    HW252199   3.245   7.445   8.882
83456SOL     OW52200   0.488  12.093  13.640
83456SOL    HW152201   0.515  12.184  13.654
83456SOL    HW252202   0.481  12.085  13.544
83457SOL     OW52203  13.200  10.879   2.935
83457SOL    HW152204  13.260  10.841   2.871
83457SOL    HW252205  13.213  10.829   3.015
83458SOL     OW52206  14.560   3.274   7.129
83458SOL    HW152207  14.491   3.303   7.070
83458SOL    HW252208  14.514   3.249   7.210
83459SOL     OW52209  10.571   0.522   5.174
83459SOL    HW152210  10.604   0.497   5.088
83459SOL    HW252211  10.550   0.439   5.217
83460SOL     OW52212   2.393   4.358  12.433
83460SOL    HW152213   2.310   4.393  12.465
83460SOL    HW252214   2.378   4.340  12.340
83461SOL     OW52215   2.172   0.385  14.469
83461SOL    HW152216   2.264   0.360  14.458
83461SOL    HW252217   2.131   0.308  14.508
83462SOL     OW52218   1.023   8.768   2.716
83462SOL    HW152219   1.012   8.791   2.624
83462SOL    HW252220   0.953   8.705   2.734
83463SOL     OW52221  13.438   7.466  12.476
83463SOL    HW152222  13.493   7.544  12.490
83463SOL    HW252223  13.352   7.491  12.509
83464SOL     OW52224   8.709   6.738   6.662
83464SOL    HW152225   8.797   6.737   6.698
83464SOL    HW252226   8.668   6.658   6.695
83465SOL     OW52227  13.118   6.543   8.569
83465SOL    HW152228  13.060   6.470   8.553
83465SOL    HW252229  13.061   6.613   8.601
83466SOL     OW52230  11.431   4.764  14.260
83466SOL    HW152231  11.385   4.846  14.278
83466SOL    HW252232  11.523   4.783  14.277
83467SOL     OW52233  10.412   9.514   2.651
83467SOL    HW152234  10.377   9.515   2.562
83467SOL    HW252235  10.354   9.571   2.701
83468SOL     OW52236   9.621   1.886   6.692
83468SOL    HW152237   9.618   1.952   6.761
83468SOL    HW252238   9.686   1.920   6.630
83469SOL     OW52239   7.790   8.360  10.022
83469SOL    HW152240   7.884   8.368  10.039
83469SOL    HW252241   7.774   8.266  10.025
83470SOL     OW52242   6.496   6.591   2.513
83470SOL    HW152243   6.453   6.512   2.547
83470SOL    HW252244   6.517   6.642   2.592
83471SOL     OW52245  11.428   1.355   5.939
83471SOL    HW152246  11.412   1.292   6.009
83471SOL    HW252247  11.497   1.316   5.886
83472SOL     OW52248   4.100   4.213   7.465
83472SOL    HW152249   4.053   4.133   7.444
83472SOL    HW252250   4.152   4.191   7.543
83473SOL     OW52251  12.729   2.244   4.331
83473SOL    HW152252  12.691   2.218   4.415
83473SOL    HW252253  12.813   2.283   4.354
83474SOL     OW52254   1.158   9.030   0.410
83474SOL    HW152255   1.076   9.035   0.362
83474SOL    HW252256   1.215   9.094   0.367
83475SOL     OW52257  10.643   4.689   0.501
83475SOL    HW152258  10.647   4.676   0.595
83475SOL    HW252259  10.556   4.657   0.476
83476SOL     OW52260   7.503   8.102   1.647
83476SOL    HW152261   7.482   8.049   1.570
83476SOL    HW252262   7.552   8.176   1.612
83477SOL     OW52263  13.594   2.318   9.038
83477SOL    HW152264  13.647   2.324   9.117
83477SOL    HW252265  13.563   2.407   9.023
83478SOL     OW52266  10.603  10.086   1.925
83478SOL    HW152267  10.661  10.155   1.891
83478SOL    HW252268  10.526  10.133   1.957
83479SOL     OW52269   3.352   7.878   8.711
83479SOL    HW152270   3.436   7.892   8.667
83479SOL    HW252271   3.296   7.948   8.678
83480SOL     OW52272   4.946   2.811   1.182
83480SOL    HW152273   4.857   2.793   1.213
83480SOL    HW252274   4.953   2.906   1.181
83481SOL     OW52275  11.037   3.037   4.007
83481SOL    HW152276  11.004   2.968   4.063
83481SOL    HW252277  11.123   3.058   4.042
83482SOL     OW52278   1.221   1.545   4.251
83482SOL    HW152279   1.170   1.599   4.312
83482SOL    HW252280   1.312   1.568   4.271
83483SOL     OW52281   6.184  12.521   5.937
83483SOL    HW152282   6.100  12.523   5.892
83483SOL    HW252283   6.173  12.453   6.004
83484SOL     OW52284  12.482  12.018  14.724
83484SOL    HW152285  12.435  12.043  14.804
83484SOL    HW252286  12.414  11.982  14.667
83485SOL     OW52287  14.733   9.868   9.183
83485SOL    HW152288  14.688   9.916   9.113
83485SOL    HW252289  14.719   9.776   9.162
83486SOL     OW52290   0.265  10.864   5.566
83486SOL    HW152291   0.254  10.943   5.513
83486SOL    HW252292   0.298  10.799   5.504
83487SOL     OW52293   0.195   1.881   2.950
83487SOL    HW152294   0.149   1.853   2.871
83487SOL    HW252295   0.248   1.805   2.975
83488SOL     OW52296   2.422   9.588   6.477
83488SOL    HW152297   2.501   9.554   6.434
83488SOL    HW252298   2.445   9.678   6.502
83489SOL     OW52299   2.349   9.028   6.227
83489SOL    HW152300   2.441   9.003   6.222
83489SOL    HW252301   2.331   9.069   6.142
83490SOL     OW52302  12.480   7.887  12.671
83490SOL    HW152303  12.395   7.921  12.698
83490SOL    HW252304  12.464   7.794  12.654
83491SOL     OW52305  12.906   6.978  13.245
83491SOL    HW152306  12.986   6.929  13.264
83491SOL    HW252307  12.907   6.990  13.150
83492SOL     OW52308  12.724   3.335  12.396
83492SOL    HW152309  12.691   3.261  12.447
83492SOL    HW252310  12.697   3.316  12.307
83493SOL     OW52311  11.720  11.980   5.620
83493SOL    HW152312  11.781  11.907   5.610
83493SOL    HW252313  11.677  11.988   5.535
83494SOL     OW52314   8.787   2.543   5.911
83494SOL    HW152315   8.772   2.539   5.816
83494SOL    HW252316   8.827   2.459   5.932
83495SOL     OW52317  11.257   1.202   4.500
83495SOL    HW152318  11.189   1.167   4.443
83495SOL    HW252319  11.212   1.266   4.555
83496SOL     OW52320   8.018   1.881   9.766
83496SOL    HW152321   8.033   1.842   9.852
83496SOL    HW252322   7.972   1.963   9.786
83497SOL     OW52323  14.427   2.736   4.715
83497SOL    HW152324  14.398   2.651   4.681
83497SOL    HW252325  14.458   2.717   4.804
83498SOL     OW52326   0.717   9.325   2.830
83498SOL    HW152327   0.703   9.412   2.867
83498SOL    HW252328   0.758   9.341   2.745
83499SOL     OW52329   7.177  13.774   5.413
83499SOL    HW152330   7.204  13.853   5.459
83499SOL    HW252331   7.209  13.702   5.469
83500SOL     OW52332  13.975   0.231   5.428
83500SOL    HW152333  13.951   0.318   5.394
83500SOL    HW252334  14.065   0.242   5.460
83501SOL     OW52335  14.261   1.791   4.958
83501SOL    HW152336  14.338   1.765   4.907
83501SOL    HW252337  14.277   1.754   5.045
83502SOL     OW52338   3.273   4.815   7.315
83502SOL    HW152339   3.198   4.874   7.302
83502SOL    HW252340   3.317   4.814   7.230
83503SOL     OW52341   4.697  11.767   4.671
83503SOL    HW152342   4.651  11.787   4.590
83503SOL    HW252343   4.790  11.780   4.651
83504SOL     OW52344  11.127   1.778  12.232
83504SOL    HW152345  11.157   1.719  12.301
83504SOL    HW252346  11.061   1.833  12.274
83505SOL     OW52347   7.833  14.242   3.618
83505SOL    HW152348   7.808  14.271   3.530
83505SOL    HW252349   7.760  14.268   3.674
83506SOL     OW52350   2.414   0.626   0.416
83506SOL    HW152351   2.500   0.665   0.432
83506SOL    HW252352   2.427   0.533   0.437
83507SOL     OW52353   8.546   4.044   1.097
83507SOL    HW152354   8.548   4.135   1.067
83507SOL    HW252355   8.565   4.049   1.190
83508SOL     OW52356  10.665  10.805   7.277
83508SOL    HW152357  10.632  10.894   7.262
83508SOL    HW252358  10.732  10.792   7.211
83509SOL     OW52359   0.818   4.616   2.124
83509SOL    HW152360   0.780   4.551   2.183
83509SOL    HW252361   0.749   4.682   2.114
83510SOL     OW52362  12.615  10.962   9.831
83510SOL    HW152363  12.656  10.980   9.746
83510SOL    HW252364  12.629  11.042   9.881
83511SOL     OW52365  14.776   0.969   3.659
83511SOL    HW152366  14.752   0.969   3.567
83511SOL    HW252367  14.870   0.951   3.660
83512SOL     OW52368   4.569  12.905   0.669
83512SOL    HW152369   4.565  12.946   0.755
83512SOL    HW252370   4.581  12.978   0.608
83513SOL     OW52371   1.275   9.942   4.011
83513SOL    HW152372   1.241  10.012   4.066
83513SOL    HW252373   1.364   9.927   4.042
83514SOL     OW52374   3.708   1.102   2.291
83514SOL    HW152375   3.661   1.040   2.236
83514SOL    HW252376   3.799   1.094   2.265
83515SOL     OW52377  14.343   9.370   6.903
83515SOL    HW152378  14.362   9.279   6.880
83515SOL    HW252379  14.251   9.369   6.928
83516SOL     OW52380   3.536   7.416   2.304
83516SOL    HW152381   3.491   7.398   2.222
83516SOL    HW252382   3.621   7.373   2.295
83517SOL     OW52383   4.507   7.311  13.335
83517SOL    HW152384   4.498   7.376  13.266
83517SOL    HW252385   4.427   7.258  13.329
83518SOL     OW52386   5.029   2.080   8.549
83518SOL    HW152387   4.948   2.124   8.523
83518SOL    HW252388   5.027   1.997   8.501
83519SOL     OW52389  11.083  12.000  14.003
83519SOL    HW152390  11.027  11.935  13.961
83519SOL    HW252391  11.046  12.011  14.091
83520SOL     OW52392   9.372   9.558   8.163
83520SOL    HW152393   9.320   9.560   8.243
83520SOL    HW252394   9.419   9.475   8.168
83521SOL     OW52395   1.876   7.554   3.411
83521SOL    HW152396   1.822   7.606   3.351
83521SOL    HW252397   1.849   7.584   3.498
83522SOL     OW52398   1.909   8.224   3.510
83522SOL    HW152399   1.993   8.231   3.463
83522SOL    HW252400   1.847   8.193   3.444
83523SOL     OW52401   3.429   4.454   2.739
83523SOL    HW152402   3.506   4.438   2.794
83523SOL    HW252403   3.424   4.376   2.683
83524SOL     OW52404   4.305   9.411   5.801
83524SOL    HW152405   4.335   9.390   5.890
83524SOL    HW252406   4.268   9.329   5.769
83525SOL     OW52407  11.012  14.376  12.873
83525SOL    HW152408  10.981  14.414  12.791
83525SOL    HW252409  10.933  14.360  12.924
83526SOL     OW52410  11.618   6.430  11.821
83526SOL    HW152411  11.685   6.405  11.757
83526SOL    HW252412  11.667   6.461  11.897
83527SOL     OW52413  14.260  13.849   1.106
83527SOL    HW152414  14.264  13.925   1.048
83527SOL    HW252415  14.264  13.774   1.047
83528SOL     OW52416   8.907  11.758   5.703
83528SOL    HW152417   8.955  11.840   5.716
83528SOL    HW252418   8.914  11.742   5.608
83529SOL     OW52419   0.295  11.743   5.377
83529SOL    HW152420   0.298  11.837   5.396
83529SOL    HW252421   0.202  11.724   5.365
83530SOL     OW52422   0.081  10.318  10.194
83530SOL    HW152423  14.875  10.360  10.183
83530SOL    HW252424   0.135  10.385  10.237
83531SOL     OW52425  10.550   5.315  10.379
83531SOL    HW152426  10.593   5.387  10.334
83531SOL    HW252427  10.526   5.254  10.308
83532SOL     OW52428   4.140   1.361  11.600
83532SOL    HW152429   4.136   1.453  11.626
83532SOL    HW252430   4.119   1.361  11.507
83533SOL     OW52431   6.328   9.297   5.715
83533SOL    HW152432   6.306   9.206   5.694
83533SOL    HW252433   6.352   9.295   5.808
83534SOL     OW52434  11.507   2.497   1.200
83534SOL    HW152435  11.469   2.524   1.284
83534SOL    HW252436  11.434   2.500   1.139
83535SOL     OW52437   9.234   5.330  10.422
83535SOL    HW152438   9.249   5.248  10.375
83535SOL    HW252439   9.226   5.304  10.514
83536SOL     OW52440  14.207   9.629   8.230
83536SOL    HW152441  14.244   9.717   8.220
83536SOL    HW252442  14.186   9.623   8.324
83537SOL     OW52443   9.333   7.326   4.851
83537SOL    HW152444   9.245   7.346   4.821
83537SOL    HW252445   9.376   7.287   4.775
83538SOL     OW52446   7.672   8.770   3.611
83538SOL    HW152447   7.706   8.842   3.665
83538SOL    HW252448   7.708   8.691   3.651
83539SOL     OW52449  11.201   3.475   2.147
83539SOL    HW152450  11.266   3.427   2.199
83539SOL    HW252451  11.143   3.408   2.113
83540SOL     OW52452   9.231  11.878   0.134
83540SOL    HW152453   9.316  11.915   0.158
83540SOL    HW252454   9.227  11.796   0.182
83541SOL     OW52455   0.515  12.291  11.109
83541SOL    HW152456   0.493  12.365  11.165
83541SOL    HW252457   0.594  12.254  11.148
83542SOL     OW52458  13.555  10.839   5.806
83542SOL    HW152459  13.493  10.786   5.857
83542SOL    HW252460  13.613  10.878   5.872
83543SOL     OW52461   2.620  13.080   0.400
83543SOL    HW152462   2.680  13.052   0.470
83543SOL    HW252463   2.573  13.001   0.376
83544SOL     OW52464  12.166  14.348   9.054
83544SOL    HW152465  12.187  14.399   9.132
83544SOL    HW252466  12.178  14.408   8.981
83545SOL     OW52467   8.717   8.961  13.849
83545SOL    HW152468   8.758   8.902  13.786
83545SOL    HW252469   8.741   8.926  13.935
83546SOL     OW52470  10.440   1.265   4.171
83546SOL    HW152471  10.371   1.229   4.227
83546SOL    HW252472  10.394   1.307   4.099
83547SOL     OW52473  14.496   4.394  10.410
83547SOL    HW152474  14.546   4.469  10.442
83547SOL    HW252475  14.454   4.425  10.330
83548SOL     OW52476   9.468   0.288   0.296
83548SOL    HW152477   9.510   0.218   0.345
83548SOL    HW252478   9.526   0.302   0.221
83549SOL     OW52479   5.311  14.531   7.902
83549SOL    HW152480   5.321  14.579   7.820
83549SOL    HW252481   5.360  14.583   7.966
83550SOL     OW52482  13.445   7.705  10.276
83550SOL    HW152483  13.424   7.790  10.315
83550SOL    HW252484  13.436   7.719  10.182
83551SOL     OW52485   0.045   4.197  12.524
83551SOL    HW152486   0.113   4.160  12.580
83551SOL    HW252487  14.852   4.135  12.529
83552SOL     OW52488   2.138   9.028  10.989
83552SOL    HW152489   2.124   8.956  11.051
83552SOL    HW252490   2.224   9.010  10.951
83553SOL     OW52491  14.332  12.229   5.298
83553SOL    HW152492  14.275  12.185   5.361
83553SOL    HW252493  14.273  12.261   5.231
83554SOL     OW52494  13.119   8.968  11.069
83554SOL    HW152495  13.079   8.984  11.154
83554SOL    HW252496  13.098   9.047  11.018
83555SOL     OW52497  11.375   8.688   9.467
83555SOL    HW152498  11.422   8.748   9.526
83555SOL    HW252499  11.311   8.744   9.423
83556SOL     OW52500   6.203   1.132   9.832
83556SOL    HW152501   6.163   1.059   9.786
83556SOL    HW252502   6.297   1.111   9.834
83557SOL     OW52503   9.146   6.631   3.367
83557SOL    HW152504   9.218   6.592   3.416
83557SOL    HW252505   9.104   6.691   3.428
83558SOL     OW52506   9.768   6.196  13.907
83558SOL    HW152507   9.701   6.162  13.849
83558SOL    HW252508   9.805   6.270  13.859
83559SOL     OW52509   2.187   1.293  14.747
83559SOL    HW152510   2.163   1.284  14.839
83559SOL    HW252511   2.183   1.388  14.731
83560SOL     OW52512  14.737   7.162  14.344
83560SOL    HW152513  14.816   7.212  14.364
83560SOL    HW252514  14.667   7.228  14.343
83561SOL     OW52515   5.637   7.730   5.444
83561SOL    HW152516   5.634   7.809   5.498
83561SOL    HW252517   5.659   7.659   5.504
83562SOL     OW52518  10.696  12.236   4.781
83562SOL    HW152519  10.738  12.164   4.827
83562SOL    HW252520  10.760  12.308   4.785
83563SOL     OW52521   1.280  12.445  12.175
83563SOL    HW152522   1.263  12.426  12.268
83563SOL    HW252523   1.360  12.395  12.155
83564SOL     OW52524  14.399  10.642   1.771
83564SOL    HW152525  14.379  10.670   1.682
83564SOL    HW252526  14.467  10.575   1.761
83565SOL     OW52527  11.777  10.662  11.084
83565SOL    HW152528  11.864  10.622  11.081
83565SOL    HW252529  11.716  10.589  11.072
83566SOL     OW52530  11.440  12.060   6.751
83566SOL    HW152531  11.505  12.042   6.683
83566SOL    HW252532  11.447  12.155   6.766
83567SOL     OW52533   1.492   8.160   4.656
83567SOL    HW152534   1.585   8.164   4.679
83567SOL    HW252535   1.484   8.219   4.580
83568SOL     OW52536  12.000   9.750   1.617
83568SOL    HW152537  11.922   9.755   1.562
83568SOL    HW252538  12.002   9.834   1.663
83569SOL     OW52539  13.683  12.679  13.831
83569SOL    HW152540  13.743  12.637  13.893
83569SOL    HW252541  13.661  12.762  13.872
83570SOL     OW52542   5.624   1.431   6.140
83570SOL    HW152543   5.624   1.483   6.221
83570SOL    HW252544   5.547   1.460   6.092
83571SOL     OW52545   1.657  14.464   8.976
83571SOL    HW152546   1.671  14.442   9.068
83571SOL    HW252547   1.562  14.461   8.964
83572SOL     OW52548  11.461   6.795  11.016
83572SOL    HW152549  11.489   6.809  11.106
83572SOL    HW252550  11.365   6.804  11.019
83573SOL     OW52551   9.268   8.850   9.982
83573SOL    HW152552   9.232   8.796  10.052
83573SOL    HW252553   9.318   8.919  10.026
83574SOL     OW52554   0.882   9.784   4.580
83574SOL    HW152555   0.895   9.860   4.523
83574SOL    HW252556   0.797   9.799   4.621
83575SOL     OW52557   0.621   4.563   5.829
83575SOL    HW152558   0.594   4.648   5.863
83575SOL    HW252559   0.582   4.559   5.741
83576SOL     OW52560  10.759  14.611   1.189
83576SOL    HW152561  10.831  14.627   1.128
83576SOL    HW252562  10.735  14.697   1.223
83577SOL     OW52563  11.753   7.315   5.567
83577SOL    HW152564  11.694   7.342   5.638
83577SOL    HW252565  11.701   7.328   5.487
83578SOL     OW52566   6.210   2.059  13.346
83578SOL    HW152567   6.160   2.095  13.419
83578SOL    HW252568   6.183   2.111  13.270
83579SOL     OW52569   9.380   9.147   1.332
83579SOL    HW152570   9.327   9.227   1.319
83579SOL    HW252571   9.374   9.130   1.426
83580SOL     OW52572  12.820   7.083   7.730
83580SOL    HW152573  12.873   7.124   7.661
83580SOL    HW252574  12.760   7.151   7.758
83581SOL     OW52575  14.725   8.383   6.502
83581SOL    HW152576  14.774   8.460   6.530
83581SOL    HW252577  14.791   8.314   6.495
83582SOL     OW52578   3.369   0.659   9.501
83582SOL    HW152579   3.284   0.669   9.544
83582SOL    HW252580   3.409   0.585   9.545
83583SOL     OW52581  12.486   6.704   5.136
83583SOL    HW152582  12.463   6.758   5.060
83583SOL    HW252583  12.457   6.616   5.113
83584SOL     OW52584  14.545  11.772   0.454
83584SOL    HW152585  14.455  11.792   0.480
83584SOL    HW252586  14.555  11.817   0.370
83585SOL     OW52587   3.913  14.864  12.464
83585SOL    HW152588   3.885  14.788  12.515
83585SOL    HW252589   3.886  14.844  12.374
83586SOL     OW52590   2.487   8.446  13.430
83586SOL    HW152591   2.525   8.360  13.416
83586SOL    HW252592   2.392   8.432  13.423
83587SOL     OW52593   8.685   5.396   5.961
83587SOL    HW152594   8.750   5.406   6.030
83587SOL    HW252595   8.630   5.474   5.968
83588SOL     OW52596  10.520   0.505   2.331
83588SOL    HW152597  10.582   0.573   2.359
83588SOL    HW252598  10.444   0.517   2.388
83589SOL     OW52599   8.111   0.021   3.723
83589SOL    HW152600   8.154  14.827   3.767
83589SOL    HW252601   8.035  14.860   3.680
83590SOL     OW52602  12.984  14.721   9.930
83590SOL    HW152603  12.947  14.809   9.919
83590SOL    HW252604  13.052  14.732   9.996
83591SOL     OW52605   8.664   1.703  14.300
83591SOL    HW152606   8.579   1.724  14.340
83591SOL    HW252607   8.728   1.726  14.367
83592SOL     OW52608   5.075   9.006   0.817
83592SOL    HW152609   5.037   8.970   0.737
83592SOL    HW252610   5.048   9.098   0.816
83593SOL     OW52611   2.789   5.039  10.643
83593SOL    HW152612   2.742   5.062  10.563
83593SOL    HW252613   2.749   5.093  10.711
83594SOL     OW52614   1.343   1.416   3.370
83594SOL    HW152615   1.346   1.361   3.291
83594SOL    HW252616   1.406   1.486   3.354
83595SOL     OW52617  12.396  14.150   2.975
83595SOL    HW152618  12.410  14.112   2.889
83595SOL    HW252619  12.347  14.084   3.024
83596SOL     OW52620  10.839   0.970   3.124
83596SOL    HW152621  10.763   0.914   3.135
83596SOL    HW252622  10.878   0.942   3.041
83597SOL     OW52623  10.576   4.909   6.471
83597SOL    HW152624  10.565   4.826   6.426
83597SOL    HW252625  10.519   4.903   6.548
83598SOL     OW52626   0.210   9.302   2.812
83598SOL    HW152627   0.232   9.236   2.878
83598SOL    HW252628   0.293   9.320   2.768
83599SOL     OW52629  13.481   2.150   9.777
83599SOL    HW152630  13.390   2.174   9.760
83599SOL    HW252631  13.507   2.098   9.700
83600SOL     OW52632  13.009  12.142   0.822
83600SOL    HW152633  12.991  12.063   0.770
83600SOL    HW252634  12.944  12.205   0.792
83601SOL     OW52635  14.042   9.980   3.769
83601SOL    HW152636  14.007   9.901   3.727
83601SOL    HW252637  13.998   9.984   3.854
83602SOL     OW52638  10.973   9.881   6.404
83602SOL    HW152639  10.954   9.791   6.379
83602SOL    HW252640  10.958   9.932   6.325
83603SOL     OW52641  14.205  14.070   7.246
83603SOL    HW152642  14.146  14.002   7.212
83603SOL    HW252643  14.290  14.048   7.209
83604SOL     OW52644   4.397   2.308   3.987
83604SOL    HW152645   4.479   2.347   3.957
83604SOL    HW252646   4.330   2.341   3.927
83605SOL     OW52647   4.255  13.589   5.781
83605SOL    HW152648   4.225  13.506   5.818
83605SOL    HW252649   4.343  13.600   5.817
83606SOL     OW52650   8.428  13.106  11.611
83606SOL    HW152651   8.477  13.117  11.692
83606SOL    HW252652   8.427  13.011  11.596
83607SOL     OW52653  12.236   9.409  12.177
83607SOL    HW152654  12.285   9.331  12.204
83607SOL    HW252655  12.277   9.436  12.095
83608SOL     OW52656   9.332   2.966  10.298
83608SOL    HW152657   9.350   2.948  10.206
83608SOL    HW252658   9.287   2.887  10.330
83609SOL     OW52659  10.690  14.572   2.880
83609SOL    HW152660  10.668  14.484   2.847
83609SOL    HW252661  10.647  14.632   2.819
83610SOL     OW52662   0.075   3.137  11.460
83610SOL    HW152663  14.877   3.143  11.405
83610SOL    HW252664   0.145   3.178  11.409
83611SOL     OW52665   2.061   0.325  10.558
83611SOL    HW152666   2.040   0.246  10.609
83611SOL    HW252667   2.013   0.395  10.602
83612SOL     OW52668   1.604   7.347   1.547
83612SOL    HW152669   1.660   7.270   1.539
83612SOL    HW252670   1.554   7.332   1.628
83613SOL     OW52671   1.376   0.721   6.860
83613SOL    HW152672   1.444   0.749   6.798
83613SOL    HW252673   1.349   0.801   6.905
83614SOL     OW52674  14.596  14.322   9.177
83614SOL    HW152675  14.648  14.275   9.242
83614SOL    HW252676  14.661  14.370   9.125
83615SOL     OW52677   2.652   7.714   2.014
83615SOL    HW152678   2.670   7.807   2.033
83615SOL    HW252679   2.680   7.703   1.923
83616SOL     OW52680   9.897   7.595   0.410
83616SOL    HW152681   9.823   7.552   0.367
83616SOL    HW252682   9.950   7.523   0.444
83617SOL     OW52683   7.058   0.187  13.735
83617SOL    HW152684   7.103   0.112  13.695
83617SOL    HW252685   6.965   0.161  13.735
83618SOL     OW52686  12.578  13.189  11.986
83618SOL    HW152687  12.487  13.219  11.977
83618SOL    HW252688  12.623  13.262  12.027
83619SOL     OW52689   5.181  12.528  14.850
83619SOL    HW152690   5.149  12.568   0.052
83619SOL    HW252691   5.199  12.437  14.873
83620SOL     OW52692   5.458   3.093  13.775
83620SOL    HW152693   5.515   3.016  13.765
83620SOL    HW252694   5.373   3.063  13.743
83621SOL     OW52695  13.117  13.718  13.932
83621SOL    HW152696  13.151  13.739  13.845
83621SOL    HW252697  13.193  13.723  13.989
83622SOL     OW52698  12.742   3.153   3.524
83622SOL    HW152699  12.820   3.190   3.482
83622SOL    HW252700  12.772   3.128   3.612
83623SOL     OW52701   6.425   8.468   0.780
83623SOL    HW152702   6.454   8.506   0.863
83623SOL    HW252703   6.410   8.544   0.723
83624SOL     OW52704   2.748  11.860   4.976
83624SOL    HW152705   2.767  11.947   4.942
83624SOL    HW252706   2.774  11.801   4.905
83625SOL     OW52707  11.691   5.601   0.417
83625SOL    HW152708  11.624   5.533   0.407
83625SOL    HW252709  11.752   5.565   0.481
83626SOL     OW52710   1.512   8.902   4.118
83626SOL    HW152711   1.601   8.907   4.083
83626SOL    HW252712   1.467   8.977   4.080
83627SOL     OW52713  14.238  12.427   0.696
83627SOL    HW152714  14.280  12.401   0.614
83627SOL    HW252715  14.146  12.406   0.683
83628SOL     OW52716  11.651   4.691   0.264
83628SOL    HW152717  11.556   4.691   0.254
83628SOL    HW252718  11.671   4.774   0.309
83629SOL     OW52719   4.185   1.411   6.588
83629SOL    HW152720   4.250   1.397   6.657
83629SOL    HW252721   4.101   1.413   6.634
83630SOL     OW52722  14.087   7.556   3.368
83630SOL    HW152723  14.074   7.650   3.354
83630SOL    HW252724  14.003   7.524   3.400
83631SOL     OW52725   0.341   0.265   2.944
83631SOL    HW152726   0.334   0.322   2.867
83631SOL    HW252727   0.421   0.294   2.988
83632SOL     OW52728  12.603  10.436   9.621
83632SOL    HW152729  12.660  10.512   9.636
83632SOL    HW252730  12.564  10.452   9.534
83633SOL     OW52731  10.638   3.606   0.975
83633SOL    HW152732  10.703   3.569   1.035
83633SOL    HW252733  10.654   3.700   0.978
83634SOL     OW52734   9.901   1.877   6.246
83634SOL    HW152735   9.986   1.918   6.260
83634SOL    HW252736   9.905   1.844   6.156
83635SOL     OW52737   5.064  14.841  11.543
83635SOL    HW152738   5.118   0.018  11.488
83635SOL    HW252739   4.974  14.857  11.515
83636SOL     OW52740  12.173   4.100  10.212
83636SOL    HW152741  12.195   4.164  10.280
83636SOL    HW252742  12.257   4.070  10.179
83637SOL     OW52743   4.257   0.446  14.372
83637SOL    HW152744   4.169   0.413  14.392
83637SOL    HW252745   4.304   0.370  14.338
83638SOL     OW52746  10.974  10.163  13.463
83638SOL    HW152747  10.903  10.226  13.476
83638SOL    HW252748  11.051  10.206  13.499
83639SOL     OW52749  11.812   8.566   3.934
83639SOL    HW152750  11.723   8.541   3.911
83639SOL    HW252751  11.804   8.606   4.021
83640SOL     OW52752   7.978   4.945   8.460
83640SOL    HW152753   8.012   4.913   8.543
83640SOL    HW252754   8.054   4.950   8.403
83641SOL     OW52755  10.251  11.017   1.418
83641SOL    HW152756  10.278  11.109   1.416
83641SOL    HW252757  10.327  10.970   1.452
83642SOL     OW52758   1.906   6.926   4.984
83642SOL    HW152759   1.888   7.003   5.038
83642SOL    HW252760   1.840   6.929   4.915
83643SOL     OW52761   1.758  13.794   4.973
83643SOL    HW152762   1.830  13.852   4.997
83643SOL    HW252763   1.738  13.746   5.053
83644SOL     OW52764  12.874  13.488  11.549
83644SOL    HW152765  12.833  13.401  11.544
83644SOL    HW252766  12.962  13.475  11.513
83645SOL     OW52767   0.548   4.999   6.470
83645SOL    HW152768   0.555   5.043   6.385
83645SOL    HW252769   0.637   5.003   6.506
83646SOL     OW52770  10.849   9.014   8.080
83646SOL    HW152771  10.902   8.937   8.099
83646SOL    HW252772  10.866   9.074   8.154
83647SOL     OW52773   5.450   8.579   8.204
83647SOL    HW152774   5.516   8.647   8.221
83647SOL    HW252775   5.479   8.504   8.255
83648SOL     OW52776  10.661   0.635  12.656
83648SOL    HW152777  10.644   0.576  12.583
83648SOL    HW252778  10.578   0.639  12.704
83649SOL     OW52779   6.320   7.812   0.595
83649SOL    HW152780   6.243   7.843   0.546
83649SOL    HW252781   6.353   7.739   0.543
83650SOL     OW52782   7.323   7.027   2.704
83650SOL    HW152783   7.396   7.032   2.642
83650SOL    HW252784   7.327   7.109   2.753
83651SOL     OW52785   3.531   0.855   0.078
83651SOL    HW152786   3.591   0.861   0.004
83651SOL    HW252787   3.587   0.864   0.156
83652SOL     OW52788   5.876  13.232   0.186
83652SOL    HW152789   5.929  13.216   0.265
83652SOL    HW252790   5.787  13.208   0.212
83653SOL     OW52791   4.142   9.919  10.936
83653SOL    HW152792   4.218   9.930  10.879
83653SOL    HW252793   4.178   9.915  11.024
83654SOL     OW52794   3.266  12.125   3.214
83654SOL    HW152795   3.244  12.200   3.159
83654SOL    HW252796   3.253  12.049   3.156
83655SOL     OW52797  14.684   7.414   6.027
83655SOL    HW152798  14.747   7.361   5.977
83655SOL    HW252799  14.600   7.399   5.984
83656SOL     OW52800  12.172  13.851   7.291
83656SOL    HW152801  12.238  13.912   7.324
83656SOL    HW252802  12.109  13.843   7.363
83657SOL     OW52803   7.947  14.802   1.993
83657SOL    HW152804   7.958  14.873   1.929
83657SOL    HW252805   7.927  14.725   1.940
83658SOL     OW52806   5.020  14.081   1.573
83658SOL    HW152807   5.085  14.022   1.609
83658SOL    HW252808   4.955  14.090   1.643
83659SOL     OW52809   8.238  13.784   6.121
83659SOL    HW152810   8.152  13.756   6.090
83659SOL    HW252811   8.282  13.702   6.144
83660SOL     OW52812   8.070   4.965   3.405
83660SOL    HW152813   7.981   4.999   3.397
83660SOL    HW252814   8.064   4.895   3.470
83661SOL     OW52815   7.124   0.851   5.665
83661SOL    HW152816   7.066   0.852   5.589
83661SOL    HW252817   7.210   0.876   5.629
83662SOL     OW52818   6.349   9.552   6.685
83662SOL    HW152819   6.325   9.621   6.624
83662SOL    HW252820   6.412   9.592   6.744
83663SOL     OW52821   9.855   3.435  12.809
83663SOL    HW152822   9.862   3.488  12.730
83663SOL    HW252823   9.907   3.482  12.874
83664SOL     OW52824  12.919   1.139  10.118
83664SOL    HW152825  12.901   1.170  10.207
83664SOL    HW252826  12.862   1.192  10.062
83665SOL     OW52827   9.753   8.302   4.714
83665SOL    HW152828   9.792   8.314   4.628
83665SOL    HW252829   9.673   8.252   4.697
83666SOL     OW52830  12.332  14.718   0.654
83666SOL    HW152831  12.370  14.700   0.740
83666SOL    HW252832  12.317  14.812   0.653
83667SOL     OW52833   7.090   1.352  14.644
83667SOL    HW152834   7.137   1.435  14.649
83667SOL    HW252835   7.004   1.375  14.609
83668SOL     OW52836   7.079   7.460   1.284
83668SOL    HW152837   7.144   7.428   1.346
83668SOL    HW252838   6.994   7.437   1.323
83669SOL     OW52839   5.685   2.856   4.884
83669SOL    HW152840   5.599   2.818   4.865
83669SOL    HW252841   5.678   2.886   4.974
83670SOL     OW52842   1.863  10.234   7.551
83670SOL    HW152843   1.832  10.261   7.465
83670SOL    HW252844   1.861  10.138   7.547
83671SOL     OW52845  12.486   6.997  12.622
83671SOL    HW152846  12.428   6.942  12.675
83671SOL    HW252847  12.562   7.013  12.679
83672SOL     OW52848   9.409   3.025   3.492
83672SOL    HW152849   9.427   3.118   3.479
83672SOL    HW252850   9.485   2.981   3.455
83673SOL     OW52851   5.735  14.815   3.429
83673SOL    HW152852   5.669  14.750   3.405
83673SOL    HW252853   5.745  14.806   3.523
83674SOL     OW52854  14.502   1.882   0.879
83674SOL    HW152855  14.447   1.871   0.956
83674SOL    HW252856  14.471   1.815   0.818
83675SOL     OW52857   1.628  13.656   2.174
83675SOL    HW152858   1.698  13.722   2.168
83675SOL    HW252859   1.547  13.706   2.164
83676SOL     OW52860  14.139   4.582   0.372
83676SOL    HW152861  14.103   4.534   0.297
83676SOL    HW252862  14.214   4.630   0.336
83677SOL     OW52863   7.169  11.160   4.212
83677SOL    HW152864   7.107  11.231   4.230
83677SOL    HW252865   7.217  11.148   4.294
83678SOL     OW52866  12.830   7.309  12.686
83678SOL    HW152867  12.786   7.303  12.771
83678SOL    HW252868  12.848   7.219  12.662
83679SOL     OW52869   3.303  11.786  14.033
83679SOL    HW152870   3.328  11.860  14.089
83679SOL    HW252871   3.386  11.752  13.999
83680SOL     OW52872  13.010   5.935   0.635
83680SOL    HW152873  13.014   5.990   0.714
83680SOL    HW252874  13.030   5.996   0.563
83681SOL     OW52875  12.962  12.599  10.328
83681SOL    HW152876  12.940  12.540  10.400
83681SOL    HW252877  12.900  12.576  10.259
83682SOL     OW52878  12.831  14.510   6.900
83682SOL    HW152879  12.844  14.442   6.834
83682SOL    HW252880  12.891  14.487   6.971
83683SOL     OW52881   9.813   0.813   0.104
83683SOL    HW152882   9.817   0.830   0.198
83683SOL    HW252883   9.829   0.899   0.064
83684SOL     OW52884   0.404   1.758   3.521
83684SOL    HW152885   0.327   1.702   3.520
83684SOL    HW252886   0.437   1.757   3.431
83685SOL     OW52887  12.219   0.023  11.588
83685SOL    HW152888  12.171  14.853  11.521
83685SOL    HW252889  12.311   0.006  11.568
83686SOL     OW52890   3.180   9.262   1.673
83686SOL    HW152891   3.215   9.330   1.616
83686SOL    HW252892   3.248   9.250   1.740
83687SOL     OW52893   3.182   7.760  14.576
83687SOL    HW152894   3.181   7.826  14.646
83687SOL    HW252895   3.254   7.787  14.519
83688SOL     OW52896   6.106   6.961  12.757
83688SOL    HW152897   6.040   7.024  12.728
83688SOL    HW252898   6.059   6.878  12.766
83689SOL     OW52899  10.854  13.570   8.301
83689SOL    HW152900  10.814  13.493   8.342
83689SOL    HW252901  10.941  13.575   8.340
83690SOL     OW52902  12.621  13.559  10.428
83690SOL    HW152903  12.554  13.502  10.464
83690SOL    HW252904  12.607  13.643  10.472
83691SOL     OW52905  10.866  13.761  13.793
83691SOL    HW152906  10.774  13.738  13.781
83691SOL    HW252907  10.871  13.853  13.766
83692SOL     OW52908   0.327   6.019  11.685
83692SOL    HW152909   0.287   6.088  11.738
83692SOL    HW252910   0.395   5.983  11.741
83693SOL     OW52911   0.120   6.937   0.401
83693SOL    HW152912   0.084   6.897   0.321
83693SOL    HW252913   0.051   6.927   0.466
83694SOL     OW52914   8.041  13.277  12.567
83694SOL    HW152915   8.062  13.335  12.494
83694SOL    HW252916   8.096  13.307  12.639
83695SOL     OW52917   1.866  10.695  12.267
83695SOL    HW152918   1.802  10.749  12.313
83695SOL    HW252919   1.894  10.630  12.332
83696SOL     OW52920   2.655   2.790   5.680
83696SOL    HW152921   2.564   2.805   5.653
83696SOL    HW252922   2.654   2.706   5.724
83697SOL     OW52923   5.902  10.178  11.171
83697SOL    HW152924   5.881  10.266  11.138
83697SOL    HW252925   5.996  10.170  11.158
83698SOL     OW52926   4.674  12.459   8.603
83698SOL    HW152927   4.695  12.391   8.667
83698SOL    HW252928   4.587  12.435   8.571
83699SOL     OW52929  13.613   1.359  10.657
83699SOL    HW152930  13.607   1.453  10.672
83699SOL    HW252931  13.561   1.343  10.579
83700SOL     OW52932   7.608  11.894   0.264
83700SOL    HW152933   7.536  11.843   0.299
83700SOL    HW252934   7.566  11.970   0.223
83701SOL     OW52935   9.554   9.027   4.388
83701SOL    HW152936   9.549   8.999   4.296
83701SOL    HW252937   9.593   9.114   4.384
83702SOL     OW52938  10.230   1.534   2.513
83702SOL    HW152939  10.291   1.509   2.444
83702SOL    HW252940  10.144   1.537   2.470
83703SOL     OW52941   9.846   8.789  14.154
83703SOL    HW152942   9.865   8.709  14.204
83703SOL    HW252943   9.819   8.853  14.221
83704SOL     OW52944   2.269  12.241   7.304
83704SOL    HW152945   2.360  12.215   7.286
83704SOL    HW252946   2.233  12.169   7.356
83705SOL     OW52947  14.637  12.966  12.782
83705SOL    HW152948  14.571  12.898  12.795
83705SOL    HW252949  14.692  12.934  12.711
83706SOL     OW52950   5.978   6.896   6.038
83706SOL    HW152951   5.917   6.904   6.112
83706SOL    HW252952   5.979   6.803   6.018
83707SOL     OW52953   7.642   2.961   3.013
83707SOL    HW152954   7.703   2.995   3.078
83707SOL    HW252955   7.626   2.871   3.040
83708SOL     OW52956  10.582   4.211  14.589
83708SOL    HW152957  10.662   4.188  14.543
83708SOL    HW252958  10.520   4.232  14.519
83709SOL     OW52959  11.401  13.676   1.925
83709SOL    HW152960  11.405  13.594   1.974
83709SOL    HW252961  11.379  13.742   1.991
83710SOL     OW52962   4.811  13.055   7.520
83710SOL    HW152963   4.869  13.130   7.527
83710SOL    HW252964   4.854  12.997   7.457
83711SOL     OW52965   2.290   7.701   8.898
83711SOL    HW152966   2.382   7.681   8.915
83711SOL    HW252967   2.255   7.727   8.984
83712SOL     OW52968   1.942   6.265  14.212
83712SOL    HW152969   2.032   6.233  14.227
83712SOL    HW252970   1.890   6.220  14.279
83713SOL     OW52971   4.652  10.242   5.595
83713SOL    HW152972   4.603  10.323   5.582
83713SOL    HW252973   4.595  10.174   5.560
83714SOL     OW52974   8.594   6.505   2.419
83714SOL    HW152975   8.642   6.588   2.420
83714SOL    HW252976   8.509   6.528   2.383
83715SOL     OW52977   6.499   4.798  10.052
83715SOL    HW152978   6.433   4.730  10.042
83715SOL    HW252979   6.456   4.865  10.105
83716SOL     OW52980  13.416   9.686   3.025
83716SOL    HW152981  13.337   9.673   2.973
83716SOL    HW252982  13.399   9.640   3.107
83717SOL     OW52983  11.233  14.840   0.746
83717SOL    HW152984  11.268  14.779   0.680
83717SOL    HW252985  11.248   0.047   0.708
83718SOL     OW52986   4.290   4.540   0.484
83718SOL    HW152987   4.292   4.635   0.480
83718SOL    HW252988   4.374   4.515   0.522
83719SOL     OW52989   3.938   2.490   5.089
83719SOL    HW152990   3.846   2.517   5.087
83719SOL    HW252991   3.987   2.572   5.096
83720SOL     OW52992   8.831  14.736  10.501
83720SOL    HW152993   8.787  14.807  10.548
83720SOL    HW252994   8.785  14.657  10.531
83721SOL     OW52995   8.569   7.763  14.605
83721SOL    HW152996   8.520   7.767  14.686
83721SOL    HW252997   8.505   7.740  14.538
83722SOL     OW52998  13.442   2.987  12.902
83722SOL    HW152999  13.530   3.010  12.930
83722SOL    HW253000  13.442   3.001  12.807
83723SOL     OW53001   5.244   2.776  11.151
83723SOL    HW153002   5.158   2.736  11.162
83723SOL    HW253003   5.235   2.864  11.188
83724SOL     OW53004   6.338   4.771   6.751
83724SOL    HW153005   6.291   4.854   6.736
83724SOL    HW253006   6.410   4.795   6.809
83725SOL     OW53007   9.986   0.136   7.293
83725SOL    HW153008  10.041   0.063   7.264
83725SOL    HW253009   9.931   0.099   7.362
83726SOL     OW53010   2.956   7.763  11.262
83726SOL    HW153011   2.996   7.720  11.337
83726SOL    HW253012   2.945   7.854  11.289
83727SOL     OW53013   7.808   9.128   9.299
83727SOL    HW153014   7.807   9.063   9.229
83727SOL    HW253015   7.725   9.174   9.290
83728SOL     OW53016  10.046   4.853  14.456
83728SOL    HW153017   9.962   4.851  14.502
83728SOL    HW253018  10.081   4.765  14.466
83729SOL     OW53019   8.661   2.498   7.811
83729SOL    HW153020   8.651   2.473   7.903
83729SOL    HW253021   8.746   2.542   7.807
83730SOL     OW53022   5.178   0.773   0.136
83730SOL    HW153023   5.175   0.765   0.231
83730SOL    HW253024   5.098   0.820   0.113
83731SOL     OW53025   7.769   2.187  13.560
83731SOL    HW153026   7.675   2.202  13.552
83731SOL    HW253027   7.800   2.179  13.470
83732SOL     OW53028   2.599   5.402  13.597
83732SOL    HW153029   2.548   5.465  13.547
83732SOL    HW253030   2.618   5.447  13.679
83733SOL     OW53031  12.687   1.929   6.403
83733SOL    HW153032  12.685   1.877   6.483
83733SOL    HW253033  12.607   1.982   6.407
83734SOL     OW53034  12.686   4.619   5.218
83734SOL    HW153035  12.642   4.534   5.208
83734SOL    HW253036  12.779   4.599   5.208
83735SOL     OW53037   1.580   8.501  14.371
83735SOL    HW153038   1.623   8.560  14.310
83735SOL    HW253039   1.643   8.431  14.385
83736SOL     OW53040   0.639  12.533   6.641
83736SOL    HW153041   0.584  12.603   6.606
83736SOL    HW253042   0.721  12.576   6.665
83737SOL     OW53043   8.877   9.331   0.166
83737SOL    HW153044   8.817   9.278   0.114
83737SOL    HW253045   8.825   9.406   0.193
83738SOL     OW53046  10.495   1.247   1.807
83738SOL    HW153047  10.411   1.201   1.807
83738SOL    HW253048  10.519   1.253   1.715
83739SOL     OW53049   5.738   4.677   4.156
83739SOL    HW153050   5.773   4.740   4.093
83739SOL    HW253051   5.644   4.696   4.158
83740SOL     OW53052   7.744   9.432  10.224
83740SOL    HW153053   7.770   9.494  10.292
83740SOL    HW253054   7.823   9.382  10.206
83741SOL     OW53055   0.357   7.638   5.190
83741SOL    HW153056   0.287   7.574   5.175
83741SOL    HW253057   0.403   7.606   5.268
83742SOL     OW53058  10.820  14.482   4.191
83742SOL    HW153059  10.863  14.471   4.276
83742SOL    HW253060  10.885  14.454   4.127
83743SOL     OW53061   8.755  14.282  10.481
83743SOL    HW153062   8.692  14.223  10.438
83743SOL    HW253063   8.811  14.313  10.409
83744SOL     OW53064  13.699  11.232  14.106
83744SOL    HW153065  13.676  11.155  14.158
83744SOL    HW253066  13.751  11.286  14.166
83745SOL     OW53067  11.296   9.852  14.527
83745SOL    HW153068  11.203   9.863  14.507
83745SOL    HW253069  11.312   9.911  14.602
83746SOL     OW53070   3.437   5.063   5.689
83746SOL    HW153071   3.505   5.040   5.752
83746SOL    HW253072   3.458   5.154   5.664
83747SOL     OW53073  14.604   1.901  11.091
83747SOL    HW153074  14.608   1.996  11.077
83747SOL    HW253075  14.513   1.884  11.114
83748SOL     OW53076  11.190  12.970   2.579
83748SOL    HW153077  11.203  12.892   2.525
83748SOL    HW253078  11.216  12.944   2.667
83749SOL     OW53079   4.799   5.270  10.646
83749SOL    HW153080   4.759   5.218  10.715
83749SOL    HW253081   4.755   5.355  10.651
83750SOL     OW53082   2.422   9.928   5.627
83750SOL    HW153083   2.449   9.866   5.559
83750SOL    HW253084   2.492   9.992   5.630
83751SOL     OW53085  12.054   5.481  11.118
83751SOL    HW153086  12.112   5.545  11.159
83751SOL    HW253087  12.046   5.411  11.183
83752SOL     OW53088  11.841  11.973  14.769
83752SOL    HW153089  11.748  11.970  14.789
83752SOL    HW253090  11.862  12.066  14.767
83753SOL     OW53091   7.320  13.269   3.471
83753SOL    HW153092   7.320  13.262   3.376
83753SOL    HW253093   7.396  13.325   3.491
83754SOL     OW53094  12.076   0.193   5.041
83754SOL    HW153095  12.154   0.233   5.080
83754SOL    HW253096  12.020   0.267   5.018
83755SOL     OW53097   9.221   0.298  10.353
83755SOL    HW153098   9.293   0.321  10.295
83755SOL    HW253099   9.142   0.313  10.301
83756SOL     OW53100   7.137   6.959  13.230
83756SOL    HW153101   7.175   6.968  13.142
83756SOL    HW253102   7.148   7.045  13.269
83757SOL     OW53103  14.285   3.257   3.728
83757SOL    HW153104  14.275   3.170   3.688
83757SOL    HW253105  14.197   3.279   3.760
83758SOL     OW53106   8.872   3.640  10.276
83758SOL    HW153107   8.806   3.662  10.210
83758SOL    HW253108   8.854   3.549  10.298
83759SOL     OW53109   2.430   6.222   7.959
83759SOL    HW153110   2.431   6.126   7.960
83759SOL    HW253111   2.337   6.244   7.962
83760SOL     OW53112   3.267  14.548   2.669
83760SOL    HW153113   3.260  14.483   2.738
83760SOL    HW253114   3.241  14.502   2.590
83761SOL     OW53115  13.480   7.950  10.398
83761SOL    HW153116  13.444   7.914  10.479
83761SOL    HW253117  13.452   8.042  10.399
83762SOL     OW53118   6.645   1.090   1.094
83762SOL    HW153119   6.666   1.133   1.177
83762SOL    HW253120   6.642   0.997   1.116
83763SOL     OW53121   1.414  11.978   4.258
83763SOL    HW153122   1.333  11.977   4.309
83763SOL    HW253123   1.465  12.049   4.296
83764SOL     OW53124   1.889   7.719   7.101
83764SOL    HW153125   1.879   7.629   7.070
83764SOL    HW253126   1.909   7.769   7.022
83765SOL     OW53127   7.428  13.003  12.871
83765SOL    HW153128   7.377  13.059  12.813
83765SOL    HW253129   7.365  12.972  12.936
83766SOL     OW53130   8.082   9.037   2.144
83766SOL    HW153131   8.165   9.015   2.100
83766SOL    HW253132   8.109   9.062   2.233
83767SOL     OW53133   8.306   8.637   3.968
83767SOL    HW153134   8.329   8.730   3.969
83767SOL    HW253135   8.250   8.626   4.045
83768SOL     OW53136   3.264  10.092   8.209
83768SOL    HW153137   3.261  10.081   8.304
83768SOL    HW253138   3.317  10.019   8.178
83769SOL     OW53139   6.613  11.401  13.020
83769SOL    HW153140   6.692  11.363  13.059
83769SOL    HW253141   6.553  11.327  13.013
83770SOL     OW53142   1.070  11.186   8.553
83770SOL    HW153143   1.146  11.173   8.497
83770SOL    HW253144   1.067  11.281   8.568
83771SOL     OW53145   9.640   2.221  10.939
83771SOL    HW153146   9.657   2.153  10.874
83771SOL    HW253147   9.545   2.222  10.948
83772SOL     OW53148   3.195  12.350   4.884
83772SOL    HW153149   3.191  12.446   4.883
83772SOL    HW253150   3.121  12.323   4.938
83773SOL     OW53151   5.319   4.958   6.976
83773SOL    HW153152   5.407   4.980   7.007
83773SOL    HW253153   5.332   4.934   6.884
83774SOL     OW53154   5.102  10.846   2.423
83774SOL    HW153155   5.160  10.819   2.352
83774SOL    HW253156   5.160  10.861   2.497
83775SOL     OW53157  10.319  13.508  14.732
83775SOL    HW153158  10.292  13.465  14.814
83775SOL    HW253159  10.241  13.556  14.703
83776SOL     OW53160   7.451   8.690   4.103
83776SOL    HW153161   7.411   8.713   4.019
83776SOL    HW253162   7.443   8.594   4.108
83777SOL     OW53163   4.154  14.012   0.045
83777SOL    HW153164   4.061  13.991   0.052
83777SOL    HW253165   4.191  13.941  14.874
83778SOL     OW53166   9.969  12.751   4.621
83778SOL    HW153167   9.882  12.711   4.627
83778SOL    HW253168  10.030  12.682   4.646
83779SOL     OW53169  13.333   3.990   3.726
83779SOL    HW153170  13.246   4.013   3.693
83779SOL    HW253171  13.318   3.969   3.818
83780SOL     OW53172   5.146   5.284   6.220
83780SOL    HW153173   5.088   5.360   6.215
83780SOL    HW253174   5.219   5.313   6.274
83781SOL     OW53175   1.339  10.289  12.874
83781SOL    HW153176   1.285  10.321  12.946
83781SOL    HW253177   1.306  10.336  12.797
83782SOL     OW53178   0.282   7.081   7.038
83782SOL    HW153179   0.192   7.050   7.043
83782SOL    HW253180   0.273   7.176   7.024
83783SOL     OW53181   6.670   3.028   9.369
83783SOL    HW153182   6.724   2.958   9.332
83783SOL    HW253183   6.637   2.993   9.451
83784SOL     OW53184   8.684  11.671  11.540
83784SOL    HW153185   8.697  11.762  11.567
83784SOL    HW253186   8.655  11.626  11.619
83785SOL     OW53187  13.940   6.910   7.901
83785SOL    HW153188  13.914   7.002   7.904
83785SOL    HW253189  14.013   6.907   7.838
83786SOL     OW53190   5.806   3.841   5.457
83786SOL    HW153191   5.825   3.935   5.459
83786SOL    HW253192   5.711   3.835   5.469
83787SOL     OW53193   9.661   5.873  13.687
83787SOL    HW153194   9.694   5.913  13.607
83787SOL    HW253195   9.740   5.847  13.735
83788SOL     OW53196  13.634   3.216   0.787
83788SOL    HW153197  13.631   3.216   0.882
83788SOL    HW253198  13.611   3.305   0.762
83789SOL     OW53199   0.054   5.159   3.079
83789SOL    HW153200   0.001   5.203   3.144
83789SOL    HW253201   0.017   5.186   2.995
83790SOL     OW53202  13.097   7.283   5.184
83790SOL    HW153203  13.173   7.335   5.210
83790SOL    HW253204  13.036   7.346   5.146
83791SOL     OW53205   0.426   5.954  14.704
83791SOL    HW153206   0.495   5.984  14.644
83791SOL    HW253207   0.404   5.866  14.675
83792SOL     OW53208   2.078  11.294   5.246
83792SOL    HW153209   2.085  11.211   5.198
83792SOL    HW253210   2.121  11.278   5.329
83793SOL     OW53211  10.059  10.518   9.687
83793SOL    HW153212  10.133  10.577   9.677
83793SOL    HW253213   9.988  10.559   9.638
83794SOL     OW53214   5.385   0.348   7.360
83794SOL    HW153215   5.410   0.265   7.321
83794SOL    HW253216   5.407   0.414   7.294
83795SOL     OW53217   5.361   4.265   9.380
83795SOL    HW153218   5.377   4.341   9.436
83795SOL    HW253219   5.274   4.234   9.406
83796SOL     OW53220   8.633   1.606   0.695
83796SOL    HW153221   8.596   1.652   0.620
83796SOL    HW253222   8.587   1.521   0.696
83797SOL     OW53223  10.732   5.736   8.056
83797SOL    HW153224  10.720   5.831   8.051
83797SOL    HW253225  10.643   5.701   8.049
83798SOL     OW53226   5.512   6.684  11.248
83798SOL    HW153227   5.425   6.645  11.245
83798SOL    HW253228   5.516   6.741  11.171
83799SOL     OW53229  12.192  10.996  14.816
83799SOL    HW153230  12.133  11.057  14.861
83799SOL    HW253231  12.259  11.052  14.777
83800SOL     OW53232  11.866  10.236  10.844
83800SOL    HW153233  11.799  10.212  10.908
83800SOL    HW253234  11.820  10.233  10.760
83801SOL     OW53235   7.588   7.353   8.093
83801SOL    HW153236   7.621   7.290   8.157
83801SOL    HW253237   7.652   7.349   8.021
83802SOL     OW53238  14.664  10.939   3.921
83802SOL    HW153239  14.680  11.029   3.893
83802SOL    HW253240  14.634  10.947   4.011
83803SOL     OW53241  12.992  10.688  11.574
83803SOL    HW153242  12.954  10.673  11.487
83803SOL    HW253243  13.084  10.663  11.564
83804SOL     OW53244   9.507  12.130   6.140
83804SOL    HW153245   9.558  12.122   6.060
83804SOL    HW253246   9.510  12.043   6.180
83805SOL     OW53247   5.869   2.681  13.610
83805SOL    HW153248   5.949   2.733  13.618
83805SOL    HW253249   5.896   2.592  13.635
83806SOL     OW53250   0.382   0.743   6.759
83806SOL    HW153251   0.301   0.774   6.799
83806SOL    HW253252   0.373   0.648   6.759
83807SOL     OW53253   8.148  12.031  11.191
83807SOL    HW153254   8.061  12.008  11.224
83807SOL    HW253255   8.138  12.030  11.096
83808SOL     OW53256  13.346   5.622   7.737
83808SOL    HW153257  13.312   5.700   7.780
83808SOL    HW253258  13.281   5.600   7.671
83809SOL     OW53259   7.298   8.838  13.229
83809SOL    HW153260   7.263   8.822  13.316
83809SOL    HW253261   7.221   8.862  13.176
83810SOL     OW53262   8.568  12.286   5.560
83810SOL    HW153263   8.652  12.244   5.580
83810SOL    HW253264   8.586  12.380   5.573
83811SOL     OW53265   8.148   4.758  13.010
83811SOL    HW153266   8.131   4.829  13.073
83811SOL    HW253267   8.106   4.786  12.929
83812SOL     OW53268  14.030  10.522   6.967
83812SOL    HW153269  14.063  10.532   7.057
83812SOL    HW253270  13.945  10.479   6.978
83813SOL     OW53271  12.601   9.499   5.210
83813SOL    HW153272  12.588   9.553   5.133
83813SOL    HW253273  12.686   9.458   5.197
83814SOL     OW53274  14.778  12.395  10.566
83814SOL    HW153275  14.820  12.311  10.582
83814SOL    HW253276  14.821  12.456  10.627
83815SOL     OW53277   6.247   2.748   9.709
83815SOL    HW153278   6.239   2.675   9.771
83815SOL    HW253279   6.165   2.796   9.717
83816SOL     OW53280   7.237  12.421  12.984
83816SOL    HW153281   7.257  12.407  12.892
83816SOL    HW253282   7.143  12.438  12.987
83817SOL     OW53283  10.914   2.843   4.169
83817SOL    HW153284  10.862   2.844   4.249
83817SOL    HW253285  10.900   2.757   4.131
83818SOL     OW53286   0.719  13.113   9.334
83818SOL    HW153287   0.674  13.155   9.262
83818SOL    HW253288   0.782  13.054   9.292
83819SOL     OW53289   0.014   4.513   6.006
83819SOL    HW153290  14.867   4.482   6.092
83819SOL    HW253291  14.863   4.604   6.004
83820SOL     OW53292  10.993  11.210   1.107
83820SOL    HW153293  10.985  11.127   1.062
83820SOL    HW253294  10.978  11.276   1.040
83821SOL     OW53295   7.724  11.879   4.817
83821SOL    HW153296   7.723  11.783   4.811
83821SOL    HW253297   7.816  11.902   4.827
83822SOL     OW53298  11.550   8.404   8.562
83822SOL    HW153299  11.590   8.437   8.642
83822SOL    HW253300  11.520   8.316   8.584
83823SOL     OW53301   7.123   3.248   8.180
83823SOL    HW153302   7.169   3.293   8.250
83823SOL    HW253303   7.102   3.162   8.216
83824SOL     OW53304   4.549   7.058   4.524
83824SOL    HW153305   4.641   7.085   4.531
83824SOL    HW253306   4.503   7.139   4.502
83825SOL     OW53307   0.381   2.360  11.148
83825SOL    HW153308   0.389   2.442  11.197
83825SOL    HW253309   0.300   2.369  11.098
83826SOL     OW53310   9.315   2.943   4.862
83826SOL    HW153311   9.287   2.986   4.943
83826SOL    HW253312   9.270   2.991   4.793
83827SOL     OW53313   9.701  13.739  11.405
83827SOL    HW153314   9.702  13.735  11.501
83827SOL    HW253315   9.619  13.696  11.380
83828SOL     OW53316   5.804  10.689   7.079
83828SOL    HW153317   5.765  10.688   7.166
83828SOL    HW253318   5.892  10.725   7.092
83829SOL     OW53319   0.368   3.072   7.773
83829SOL    HW153320   0.324   3.115   7.847
83829SOL    HW253321   0.402   3.145   7.720
83830SOL     OW53322   2.367   0.423   6.368
83830SOL    HW153323   2.435   0.362   6.338
83830SOL    HW253324   2.403   0.460   6.449
83831SOL     OW53325   1.515   4.903   3.291
83831SOL    HW153326   1.462   4.944   3.360
83831SOL    HW253327   1.527   4.973   3.226
83832SOL     OW53328  13.325   4.604   9.190
83832SOL    HW153329  13.316   4.571   9.279
83832SOL    HW253330  13.236   4.621   9.161
83833SOL     OW53331   2.129   9.357   2.360
83833SOL    HW153332   2.064   9.334   2.426
83833SOL    HW253333   2.154   9.274   2.320
83834SOL     OW53334  11.828   9.992  12.138
83834SOL    HW153335  11.852   9.973  12.229
83834SOL    HW253336  11.744   9.949  12.126
83835SOL     OW53337   6.460  10.113   6.448
83835SOL    HW153338   6.499  10.196   6.477
83835SOL    HW253339   6.524  10.078   6.385
83836SOL     OW53340  12.358   2.689   1.827
83836SOL    HW153341  12.379   2.598   1.804
83836SOL    HW253342  12.436   2.720   1.875
83837SOL     OW53343   6.084  12.232   8.859
83837SOL    HW153344   6.004  12.274   8.891
83837SOL    HW253345   6.054  12.164   8.799
83838SOL     OW53346  14.019   6.796  11.498
83838SOL    HW153347  14.068   6.858  11.552
83838SOL    HW253348  14.081   6.765  11.433
83839SOL     OW53349  10.209  14.196  10.159
83839SOL    HW153350  10.128  14.239  10.134
83839SOL    HW253351  10.210  14.200  10.255
83840SOL     OW53352   5.075   8.284   4.139
83840SOL    HW153353   5.030   8.294   4.055
83840SOL    HW253354   5.039   8.354   4.194
83841SOL     OW53355   7.175   1.119   0.597
83841SOL    HW153356   7.258   1.149   0.559
83841SOL    HW253357   7.199   1.080   0.681
83842SOL     OW53358   0.379   0.683   7.468
83842SOL    HW153359   0.374   0.595   7.430
83842SOL    HW253360   0.295   0.694   7.513
83843SOL     OW53361  12.923  11.217   2.690
83843SOL    HW153362  12.941  11.131   2.652
83843SOL    HW253363  13.003  11.267   2.675
83844SOL     OW53364  12.718   9.825   6.899
83844SOL    HW153365  12.671   9.875   6.831
83844SOL    HW253366  12.650   9.801   6.961
83845SOL     OW53367   5.168   3.915   6.106
83845SOL    HW153368   5.173   3.961   6.190
83845SOL    HW253369   5.076   3.889   6.098
83846SOL     OW53370  12.145  12.274   3.228
83846SOL    HW153371  12.115  12.345   3.285
83846SOL    HW253372  12.115  12.299   3.141
83847SOL     OW53373   4.710  13.380   0.542
83847SOL    HW153374   4.767  13.391   0.466
83847SOL    HW253375   4.771  13.368   0.616
83848SOL     OW53376   0.545   7.228   6.428
83848SOL    HW153377   0.475   7.213   6.365
83848SOL    HW253378   0.562   7.142   6.466
83849SOL     OW53379   8.016  10.729  14.043
83849SOL    HW153380   8.036  10.670  13.970
83849SOL    HW253381   7.920  10.729  14.047
83850SOL     OW53382  11.131   2.926  14.205
83850SOL    HW153383  11.136   2.903  14.113
83850SOL    HW253384  11.221   2.921  14.237
83851SOL     OW53385   8.022   0.447  12.799
83851SOL    HW153386   8.001   0.457  12.707
83851SOL    HW253387   7.988   0.526  12.840
83852SOL     OW53388  14.793  10.169   6.674
83852SOL    HW153389  14.715  10.114   6.673
83852SOL    HW253390  14.849  10.131   6.741
83853SOL     OW53391  11.755  11.929   1.950
83853SOL    HW153392  11.677  11.919   1.896
83853SOL    HW253393  11.747  11.862   2.017
83854SOL     OW53394   3.465  14.530   9.398
83854SOL    HW153395   3.462  14.465   9.329
83854SOL    HW253396   3.558  14.535   9.423
83855SOL     OW53397  13.233   6.152   8.724
83855SOL    HW153398  13.313   6.117   8.764
83855SOL    HW253399  13.255   6.242   8.701
83856SOL     OW53400  14.036   4.827   5.251
83856SOL    HW153401  13.941   4.832   5.266
83856SOL    HW253402  14.071   4.907   5.291
83857SOL     OW53403   2.450   5.603   3.691
83857SOL    HW153404   2.423   5.594   3.783
83857SOL    HW253405   2.545   5.587   3.693
83858SOL     OW53406   8.596   1.252   7.225
83858SOL    HW153407   8.673   1.268   7.171
83858SOL    HW253408   8.540   1.197   7.172
83859SOL     OW53409  10.671  10.405  13.154
83859SOL    HW153410  10.609  10.420  13.227
83859SOL    HW253411  10.670  10.487  13.105
83860SOL     OW53412   3.241   8.118   8.564
83860SOL    HW153413   3.157   8.131   8.607
83860SOL    HW253414   3.299   8.182   8.606
83861SOL     OW53415   1.777  12.788   6.545
83861SOL    HW153416   1.691  12.757   6.516
83861SOL    HW253417   1.824  12.708   6.569
83862SOL     OW53418   2.350  13.284  10.868
83862SOL    HW153419   2.360  13.265  10.775
83862SOL    HW253420   2.395  13.368  10.880
83863SOL     OW53421  11.474  13.834  12.623
83863SOL    HW153422  11.549  13.857  12.678
83863SOL    HW253423  11.400  13.881  12.662
83864SOL     OW53424   1.910   8.095   7.951
83864SOL    HW153425   1.821   8.117   7.978
83864SOL    HW253426   1.929   8.013   7.995
83865SOL     OW53427   8.869   1.689   0.294
83865SOL    HW153428   8.821   1.622   0.343
83865SOL    HW253429   8.819   1.769   0.307
83866SOL     OW53430   8.061  14.301  10.263
83866SOL    HW153431   7.977  14.255  10.267
83866SOL    HW253432   8.039  14.388  10.229
83867SOL     OW53433   8.528   7.768   2.924
83867SOL    HW153434   8.553   7.859   2.910
83867SOL    HW253435   8.448   7.773   2.977
83868SOL     OW53436  13.430  13.701   4.059
83868SOL    HW153437  13.480  13.655   4.127
83868SOL    HW253438  13.479  13.686   3.979
83869SOL     OW53439   4.258   8.550   6.938
83869SOL    HW153440   4.291   8.521   7.023
83869SOL    HW253441   4.304   8.632   6.921
83870SOL     OW53442   7.906  11.366   8.679
83870SOL    HW153443   7.869  11.408   8.602
83870SOL    HW253444   8.001  11.369   8.665
83871SOL     OW53445   1.426   6.290   6.221
83871SOL    HW153446   1.389   6.375   6.196
83871SOL    HW253447   1.501   6.279   6.161
83872SOL     OW53448   3.624   5.439   0.080
83872SOL    HW153449   3.660   5.448  14.871
83872SOL    HW253450   3.587   5.525   0.099
83873SOL     OW53451   5.197   5.170  14.769
83873SOL    HW153452   5.227   5.247  14.720
83873SOL    HW253453   5.110   5.195  14.801
83874SOL     OW53454  10.162   1.733   9.845
83874SOL    HW153455  10.083   1.771   9.882
83874SOL    HW253456  10.178   1.654   9.897
83875SOL     OW53457  10.551   8.511   5.143
83875SOL    HW153458  10.644   8.531   5.135
83875SOL    HW253459  10.509   8.568   5.078
83876SOL     OW53460   6.495  14.179  13.720
83876SOL    HW153461   6.422  14.180  13.782
83876SOL    HW253462   6.508  14.271  13.696
83877SOL     OW53463  10.991  12.425  11.284
83877SOL    HW153464  11.033  12.509  11.301
83877SOL    HW253465  10.899  12.440  11.305
83878SOL     OW53466   1.234   9.166   8.767
83878SOL    HW153467   1.293   9.151   8.694
83878SOL    HW253468   1.156   9.205   8.728
83879SOL     OW53469  13.708  13.179   1.488
83879SOL    HW153470  13.745  13.110   1.542
83879SOL    HW253471  13.665  13.133   1.416
83880SOL     OW53472   5.317  14.488  14.514
83880SOL    HW153473   5.397  14.476  14.565
83880SOL    HW253474   5.327  14.429  14.440
83881SOL     OW53475   9.884  14.683   2.957
83881SOL    HW153476   9.814  14.681   2.891
83881SOL    HW253477   9.921  14.771   2.949
83882SOL     OW53478  11.996  10.092   9.862
83882SOL    HW153479  11.971  10.165   9.805
83882SOL    HW253480  11.930  10.092   9.931
83883SOL     OW53481   6.481   5.824   6.183
83883SOL    HW153482   6.432   5.810   6.264
83883SOL    HW253483   6.551   5.759   6.186
83884SOL     OW53484  12.535  13.202   1.933
83884SOL    HW153485  12.630  13.195   1.946
83884SOL    HW253486  12.520  13.296   1.916
83885SOL     OW53487  14.661   7.393   2.981
83885SOL    HW153488  14.585   7.403   3.039
83885SOL    HW253489  14.734   7.430   3.030
83886SOL     OW53490   0.315   7.197   5.700
83886SOL    HW153491   0.299   7.139   5.775
83886SOL    HW253492   0.277   7.281   5.725
83887SOL     OW53493  12.744   1.214   6.886
83887SOL    HW153494  12.659   1.258   6.889
83887SOL    HW253495  12.744   1.156   6.962
83888SOL     OW53496   9.711  14.609   4.667
83888SOL    HW153497   9.741  14.582   4.754
83888SOL    HW253498   9.692  14.702   4.676
83889SOL     OW53499  14.702  13.318  13.086
83889SOL    HW153500  14.729  13.312  12.994
83889SOL    HW253501  14.609  13.339  13.081
83890SOL     OW53502   8.734   1.800   6.126
83890SOL    HW153503   8.644   1.768   6.118
83890SOL    HW253504   8.787   1.734   6.081
83891SOL     OW53505   4.460   4.532   6.084
83891SOL    HW153506   4.452   4.568   6.172
83891SOL    HW253507   4.381   4.561   6.039
83892SOL     OW53508   2.579   5.612   8.692
83892SOL    HW153509   2.668   5.592   8.720
83892SOL    HW253510   2.551   5.683   8.750
83893SOL     OW53511  13.494  13.167  11.121
83893SOL    HW153512  13.583  13.168  11.155
83893SOL    HW253513  13.496  13.104  11.049
83894SOL     OW53514  13.666  10.653   5.357
83894SOL    HW153515  13.601  10.681   5.422
83894SOL    HW253516  13.643  10.562   5.337
83895SOL     OW53517  14.119  12.873  11.907
83895SOL    HW153518  14.054  12.825  11.958
83895SOL    HW253519  14.157  12.807  11.849
83896SOL     OW53520   6.080   1.763   0.954
83896SOL    HW153521   5.998   1.754   0.905
83896SOL    HW253522   6.129   1.684   0.932
83897SOL     OW53523   7.729  12.723  12.216
83897SOL    HW153524   7.704  12.801  12.165
83897SOL    HW253525   7.716  12.749  12.307
83898SOL     OW53526  11.072   4.498   1.476
83898SOL    HW153527  10.995   4.544   1.443
83898SOL    HW253528  11.037   4.422   1.522
83899SOL     OW53529   7.325   2.665   5.664
83899SOL    HW153530   7.408   2.620   5.680
83899SOL    HW253531   7.285   2.617   5.592
83900SOL     OW53532  12.693   3.540   6.618
83900SOL    HW153533  12.649   3.475   6.563
83900SOL    HW253534  12.720   3.608   6.557
83901SOL     OW53535   3.375  13.937  12.303
83901SOL    HW153536   3.355  14.013  12.359
83901SOL    HW253537   3.470  13.930  12.306
83902SOL     OW53538   7.365   3.905   9.527
83902SOL    HW153539   7.400   3.945   9.448
83902SOL    HW253540   7.279   3.944   9.538
83903SOL     OW53541  10.112   2.631   2.244
83903SOL    HW153542  10.052   2.556   2.242
83903SOL    HW253543  10.120   2.653   2.336
83904SOL     OW53544  10.245  13.945   2.308
83904SOL    HW153545  10.189  13.884   2.356
83904SOL    HW253546  10.186  14.016   2.281
83905SOL     OW53547  12.426  10.461   1.935
83905SOL    HW153548  12.336  10.485   1.912
83905SOL    HW253549  12.467  10.438   1.851
83906SOL     OW53550   1.770   0.562   8.078
83906SOL    HW153551   1.681   0.592   8.060
83906SOL    HW253552   1.812   0.562   7.992
83907SOL     OW53553  10.734   4.564   3.608
83907SOL    HW153554  10.822   4.528   3.617
83907SOL    HW253555  10.741   4.625   3.534
83908SOL     OW53556  12.396   9.700   0.319
83908SOL    HW153557  12.398   9.618   0.269
83908SOL    HW253558  12.361   9.764   0.257
83909SOL     OW53559   6.648   0.011   0.992
83909SOL    HW153560   6.676   0.068   1.063
83909SOL    HW253561   6.579   0.061   0.947
83910SOL     OW53562   8.530   3.464   3.091
83910SOL    HW153563   8.622   3.476   3.111
83910SOL    HW253564   8.487   3.542   3.126
83911SOL     OW53565   9.442   9.419   7.827
83911SOL    HW153566   9.525   9.466   7.821
83911SOL    HW253567   9.378   9.480   7.790
83912SOL     OW53568   6.623   9.835  13.749
83912SOL    HW153569   6.661   9.902  13.692
83912SOL    HW253570   6.656   9.857  13.836
83913SOL     OW53571   3.996   6.347   5.903
83913SOL    HW153572   3.952   6.262   5.909
83913SOL    HW253573   3.978   6.377   5.814
83914SOL     OW53574  14.633   9.191   6.708
83914SOL    HW153575  14.705   9.204   6.770
83914SOL    HW253576  14.676   9.173   6.624
83915SOL     OW53577   8.443  13.478   1.030
83915SOL    HW153578   8.481  13.563   1.053
83915SOL    HW253579   8.371  13.499   0.971
83916SOL     OW53580  12.490  12.003   0.856
83916SOL    HW153581  12.576  11.969   0.880
83916SOL    HW253582  12.468  11.958   0.775
83917SOL     OW53583   1.846   0.423   0.865
83917SOL    HW153584   1.754   0.427   0.889
83917SOL    HW253585   1.876   0.514   0.872
83918SOL     OW53586   9.609  13.749   9.879
83918SOL    HW153587   9.682  13.688   9.863
83918SOL    HW253588   9.646  13.817   9.934
83919SOL     OW53589   6.983  14.860   8.622
83919SOL    HW153590   6.899   0.003   8.583
83919SOL    HW253591   6.980   0.020   8.710
83920SOL     OW53592   0.146  12.423   0.224
83920SOL    HW153593   0.146  12.349   0.285
83920SOL    HW253594   0.059  12.461   0.235
83921SOL     OW53595   9.530  12.133   1.548
83921SOL    HW153596   9.461  12.168   1.492
83921SOL    HW253597   9.491  12.129   1.635
83922SOL     OW53598  14.158   9.726  14.530
83922SOL    HW153599  14.176   9.804  14.584
83922SOL    HW253600  14.077   9.689  14.567
83923SOL     OW53601  11.306   3.688   4.717
83923SOL    HW153602  11.344   3.650   4.796
83923SOL    HW253603  11.348   3.641   4.645
83924SOL     OW53604  10.842   1.868   7.495
83924SOL    HW153605  10.784   1.939   7.469
83924SOL    HW253606  10.828   1.858   7.589
83925SOL     OW53607  12.254  13.119   0.451
83925SOL    HW153608  12.283  13.209   0.436
83925SOL    HW253609  12.293  13.069   0.380
83926SOL     OW53610  12.323  14.543   7.486
83926SOL    HW153611  12.327  14.590   7.403
83926SOL    HW253612  12.252  14.479   7.474
83927SOL     OW53613   4.113   7.631   1.198
83927SOL    HW153614   4.163   7.710   1.220
83927SOL    HW253615   4.061   7.656   1.122
83928SOL     OW53616   6.772  10.894  14.659
83928SOL    HW153617   6.858  10.871  14.624
83928SOL    HW253618   6.715  10.824  14.631
83929SOL     OW53619  10.585   9.773  13.883
83929SOL    HW153620  10.565   9.780  13.977
83929SOL    HW253621  10.598   9.679  13.869
83930SOL     OW53622   9.272   0.915   1.503
83930SOL    HW153623   9.263   0.823   1.526
83930SOL    HW253624   9.358   0.922   1.462
83931SOL     OW53625   4.311   7.296   0.412
83931SOL    HW153626   4.308   7.201   0.426
83931SOL    HW253627   4.221   7.326   0.428
83932SOL     OW53628   2.101  12.424  10.266
83932SOL    HW153629   2.158  12.455  10.336
83932SOL    HW253630   2.081  12.502  10.214
83933SOL     OW53631  12.745  11.450   1.866
83933SOL    HW153632  12.728  11.543   1.874
83933SOL    HW253633  12.709  11.412   1.946
83934SOL     OW53634   0.161   5.559  11.684
83934SOL    HW153635   0.080   5.509  11.673
83934SOL    HW253636   0.136   5.650  11.665
83935SOL     OW53637   5.343   9.698  13.918
83935SOL    HW153638   5.390   9.676  13.998
83935SOL    HW253639   5.388   9.648  13.850
83936SOL     OW53640   4.781   1.476   0.145
83936SOL    HW153641   4.696   1.517   0.163
83936SOL    HW253642   4.818   1.460   0.231
83937SOL     OW53643   7.162  11.294  12.538
83937SOL    HW153644   7.132  11.209  12.506
83937SOL    HW253645   7.238  11.315  12.484
83938SOL     OW53646  10.625  11.085  13.323
83938SOL    HW153647  10.651  11.070  13.232
83938SOL    HW253648  10.609  10.997  13.358
83939SOL     OW53649   8.528   7.492   0.629
83939SOL    HW153650   8.519   7.404   0.593
83939SOL    HW253651   8.618   7.495   0.662
83940SOL     OW53652   5.481   5.973   6.607
83940SOL    HW153653   5.550   5.943   6.667
83940SOL    HW253654   5.524   5.982   6.523
83941SOL     OW53655   2.790   0.558   6.155
83941SOL    HW153656   2.878   0.555   6.118
83941SOL    HW253657   2.799   0.519   6.241
83942SOL     OW53658  12.347   3.523  12.187
83942SOL    HW153659  12.365   3.449  12.246
83942SOL    HW253660  12.276   3.570  12.229
83943SOL     OW53661   1.285  10.854   5.795
83943SOL    HW153662   1.232  10.932   5.808
83943SOL    HW253663   1.248  10.789   5.855
83944SOL     OW53664  13.526  10.454  14.010
83944SOL    HW153665  13.518  10.381  13.950
83944SOL    HW253666  13.619  10.458  14.032
83945SOL     OW53667   0.317   3.697   9.123
83945SOL    HW153668   0.381   3.679   9.192
83945SOL    HW253669   0.235   3.661   9.157
83946SOL     OW53670   5.182   8.879  14.374
83946SOL    HW153671   5.252   8.868  14.310
83946SOL    HW253672   5.106   8.836  14.335
83947SOL     OW53673   7.545   5.592   9.138
83947SOL    HW153674   7.456   5.582   9.173
83947SOL    HW253675   7.593   5.518   9.174
83948SOL     OW53676   6.737   9.264   4.602
83948SOL    HW153677   6.685   9.331   4.647
83948SOL    HW253678   6.798   9.232   4.669
83949SOL     OW53679  14.658  14.807  12.780
83949SOL    HW153680  14.723  14.827  12.713
83949SOL    HW253681  14.645  14.713  12.773
83950SOL     OW53682   6.373   3.822  11.622
83950SOL    HW153683   6.435   3.804  11.552
83950SOL    HW253684   6.419   3.881  11.681
83951SOL     OW53685  10.936   7.302   9.290
83951SOL    HW153686  10.906   7.232   9.233
83951SOL    HW253687  10.891   7.380   9.258
83952SOL     OW53688   2.345   1.840   4.365
83952SOL    HW153689   2.275   1.828   4.430
83952SOL    HW253690   2.299   1.843   4.281
83953SOL     OW53691   0.649   8.743   3.149
83953SOL    HW153692   0.697   8.774   3.226
83953SOL    HW253693   0.595   8.671   3.182
83954SOL     OW53694  10.459   6.424  13.629
83954SOL    HW153695  10.552   6.446  13.638
83954SOL    HW253696  10.420   6.449  13.713
83955SOL     OW53697   0.296  12.778   1.476
83955SOL    HW153698   0.214  12.745   1.440
83955SOL    HW253699   0.328  12.706   1.532
83956SOL     OW53700   1.433  11.743   3.408
83956SOL    HW153701   1.360  11.727   3.467
83956SOL    HW253702   1.500  11.785   3.463
83957SOL     OW53703  11.848  11.594  11.938
83957SOL    HW153704  11.796  11.651  11.882
83957SOL    HW253705  11.819  11.614  12.027
83958SOL     OW53706  10.484   0.059   7.829
83958SOL    HW153707  10.558   0.034   7.774
83958SOL    HW253708  10.427   0.110   7.771
83959SOL     OW53709   4.833   4.284   2.801
83959SOL    HW153710   4.905   4.305   2.859
83959SOL    HW253711   4.857   4.200   2.761
83960SOL     OW53712   1.875   2.333  14.109
83960SOL    HW153713   1.816   2.354  14.180
83960SOL    HW253714   1.824   2.276  14.051
83961SOL     OW53715   8.002   8.618   1.388
83961SOL    HW153716   8.078   8.657   1.431
83961SOL    HW253717   8.021   8.524   1.386
83962SOL     OW53718  11.429   5.966   0.743
83962SOL    HW153719  11.468   6.046   0.779
83962SOL    HW253720  11.496   5.930   0.685
83963SOL     OW53721   2.473   0.136   3.607
83963SOL    HW153722   2.427   0.150   3.689
83963SOL    HW253723   2.516   0.220   3.589
83964SOL     OW53724   4.562  11.163   6.522
83964SOL    HW153725   4.617  11.107   6.466
83964SOL    HW253726   4.616  11.240   6.539
83965SOL     OW53727   1.997   7.790   6.020
83965SOL    HW153728   2.084   7.755   5.999
83965SOL    HW253729   1.965   7.735   6.092
83966SOL     OW53730   7.355  12.460   7.049
83966SOL    HW153731   7.449  12.440   7.049
83966SOL    HW253732   7.341  12.511   6.969
83967SOL     OW53733   1.235  14.432   6.980
83967SOL    HW153734   1.325  14.464   6.984
83967SOL    HW253735   1.230  14.389   6.894
83968SOL     OW53736   5.881   3.740   2.240
83968SOL    HW153737   5.924   3.779   2.317
83968SOL    HW253738   5.950   3.732   2.175
83969SOL     OW53739  10.844   9.136   2.979
83969SOL    HW153740  10.918   9.156   3.036
83969SOL    HW253741  10.823   9.220   2.937
83970SOL     OW53742   0.891   0.862  13.204
83970SOL    HW153743   0.899   0.943  13.153
83970SOL    HW253744   0.827   0.809  13.158
83971SOL     OW53745  11.845   6.657  14.634
83971SOL    HW153746  11.825   6.703  14.552
83971SOL    HW253747  11.938   6.672  14.648
83972SOL     OW53748  12.694  11.605   3.304
83972SOL    HW153749  12.619  11.579   3.251
83972SOL    HW253750  12.761  11.539   3.286
83973SOL     OW53751  10.480   0.278  13.455
83973SOL    HW153752  10.429   0.359  13.448
83973SOL    HW253753  10.531   0.288  13.535
83974SOL     OW53754   2.114  11.627   5.990
83974SOL    HW153755   2.165  11.673   5.922
83974SOL    HW253756   2.032  11.605   5.947
83975SOL     OW53757  10.967  13.408   2.793
83975SOL    HW153758  10.886  13.360   2.778
83975SOL    HW253759  11.034  13.357   2.746
83976SOL     OW53760   3.447  14.149  13.500
83976SOL    HW153761   3.433  14.168  13.592
83976SOL    HW253762   3.525  14.199  13.476
83977SOL     OW53763  12.755  11.644  10.614
83977SOL    HW153764  12.709  11.727  10.598
83977SOL    HW253765  12.763  11.639  10.709
83978SOL     OW53766   3.275   0.538   5.382
83978SOL    HW153767   3.361   0.500   5.366
83978SOL    HW253768   3.239   0.488   5.455
83979SOL     OW53769   3.951  11.996   6.258
83979SOL    HW153770   4.019  11.959   6.202
83979SOL    HW253771   3.992  12.005   6.344
83980SOL     OW53772   2.587  14.286  11.492
83980SOL    HW153773   2.525  14.214  11.498
83980SOL    HW253774   2.673  14.244  11.483
83981SOL     OW53775   9.171   6.717   9.953
83981SOL    HW153776   9.175   6.725   9.857
83981SOL    HW253777   9.088   6.674   9.971
83982SOL     OW53778   7.844  14.451   7.819
83982SOL    HW153779   7.918  14.478   7.873
83982SOL    HW253780   7.882  14.395   7.751
83983SOL     OW53781   5.903   5.535   3.175
83983SOL    HW153782   5.812   5.565   3.180
83983SOL    HW253783   5.933   5.532   3.265
83984SOL     OW53784   6.308   4.897   7.088
83984SOL    HW153785   6.401   4.875   7.078
83984SOL    HW253786   6.308   4.988   7.116
83985SOL     OW53787   4.305  10.854  13.921
83985SOL    HW153788   4.369  10.921  13.946
83985SOL    HW253789   4.320  10.782  13.982
83986SOL     OW53790   4.244  11.972  10.295
83986SOL    HW153791   4.244  11.924  10.378
83986SOL    HW253792   4.161  12.018  10.294
83987SOL     OW53793  11.497  13.075  13.323
83987SOL    HW153794  11.593  13.068  13.316
83987SOL    HW253795  11.484  13.144  13.389
83988SOL     OW53796   4.551   1.401   4.508
83988SOL    HW153797   4.520   1.459   4.578
83988SOL    HW253798   4.471   1.367   4.469
83989SOL     OW53799   3.619   3.565  14.285
83989SOL    HW153800   3.596   3.536  14.196
83989SOL    HW253801   3.535   3.575  14.329
83990SOL     OW53802  12.314  11.707  14.772
83990SOL    HW153803  12.366  11.654  14.712
83990SOL    HW253804  12.309  11.655  14.853
83991SOL     OW53805  13.071   5.090   2.622
83991SOL    HW153806  13.090   5.102   2.715
83991SOL    HW253807  13.080   4.996   2.608
83992SOL     OW53808   1.153   5.398   6.046
83992SOL    HW153809   1.163   5.313   6.003
83992SOL    HW253810   1.111   5.453   5.979
83993SOL     OW53811   3.576   6.909   2.483
83993SOL    HW153812   3.591   6.996   2.519
83993SOL    HW253813   3.653   6.859   2.510
83994SOL     OW53814  10.373  12.799  11.637
83994SOL    HW153815  10.301  12.837  11.588
83994SOL    HW253816  10.347  12.707  11.650
83995SOL     OW53817  14.057   0.198  14.874
83995SOL    HW153818  14.034   0.112  14.838
83995SOL    HW253819  14.100   0.178   0.078
83996SOL     OW53820   8.721   0.674   0.761
83996SOL    HW153821   8.789   0.692   0.825
83996SOL    HW253822   8.767   0.670   0.677
83997SOL     OW53823   0.491   6.377   5.885
83997SOL    HW153824   0.428   6.310   5.859
83997SOL    HW253825   0.524   6.412   5.802
83998SOL     OW53826  10.855  14.825  14.699
83998SOL    HW153827  10.936  14.793  14.660
83998SOL    HW253828  10.873   0.039  14.718
83999SOL     OW53829   1.892   4.758   7.720
83999SOL    HW153830   1.829   4.764   7.792
83999SOL    HW253831   1.849   4.704   7.654
84000SOL     OW53832   2.950  14.700   2.571
84000SOL    HW153833   2.878  14.643   2.544
84000SOL    HW253834   2.979  14.663   2.654
84001SOL     OW53835   5.125  11.755   9.898
84001SOL    HW153836   5.152  11.845   9.914
84001SOL    HW253837   5.030  11.755   9.912
84002SOL     OW53838   6.288   1.272   6.613
84002SOL    HW153839   6.283   1.307   6.524
84002SOL    HW253840   6.327   1.185   6.602
84003SOL     OW53841   9.371   7.305   1.429
84003SOL    HW153842   9.328   7.225   1.458
84003SOL    HW253843   9.302   7.371   1.431
84004SOL     OW53844   0.840  10.492  11.378
84004SOL    HW153845   0.793  10.540  11.446
84004SOL    HW253846   0.852  10.404  11.414
84005SOL     OW53847   9.012   1.685   3.090
84005SOL    HW153848   9.017   1.731   3.174
84005SOL    HW253849   8.919   1.677   3.072
84006SOL     OW53850   5.691  11.932   0.167
84006SOL    HW153851   5.642  11.867   0.118
84006SOL    HW253852   5.630  11.963   0.233
84007SOL     OW53853  13.469   2.296   8.112
84007SOL    HW153854  13.402   2.236   8.077
84007SOL    HW253855  13.440   2.315   8.201
84008SOL     OW53856  14.258   4.942  13.258
84008SOL    HW153857  14.175   4.945  13.305
84008SOL    HW253858  14.307   5.018  13.290
84009SOL     OW53859  10.633   8.592  11.125
84009SOL    HW153860  10.627   8.658  11.193
84009SOL    HW253861  10.697   8.626  11.063
84010SOL     OW53862   1.656   4.308   7.859
84010SOL    HW153863   1.612   4.323   7.775
84010SOL    HW253864   1.589   4.327   7.925
84011SOL     OW53865   3.231   0.539   5.060
84011SOL    HW153866   3.250   0.583   5.143
84011SOL    HW253867   3.311   0.492   5.039
84012SOL     OW53868   6.255  12.618  13.959
84012SOL    HW153869   6.252  12.625  14.055
84012SOL    HW253870   6.234  12.706  13.928
84013SOL     OW53871   1.433  10.353  11.610
84013SOL    HW153872   1.477  10.315  11.534
84013SOL    HW253873   1.504  10.369  11.673
84014SOL     OW53874  12.968   2.165  13.862
84014SOL    HW153875  13.059   2.139  13.850
84014SOL    HW253876  12.973   2.254  13.897
84015SOL     OW53877  12.009   7.646   5.208
84015SOL    HW153878  11.940   7.579   5.207
84015SOL    HW253879  12.086   7.601   5.172
84016SOL     OW53880   1.295   8.028   8.669
84016SOL    HW153881   1.295   8.091   8.741
84016SOL    HW253882   1.320   7.945   8.710
84017SOL     OW53883   1.212   3.757   5.389
84017SOL    HW153884   1.305   3.776   5.400
84017SOL    HW253885   1.210   3.679   5.332
84018SOL     OW53886   3.790   4.691   7.291
84018SOL    HW153887   3.795   4.699   7.386
84018SOL    HW253888   3.754   4.604   7.275
84019SOL     OW53889   8.459   4.615  13.408
84019SOL    HW153890   8.480   4.686  13.469
84019SOL    HW253891   8.369   4.634  13.380
84020SOL     OW53892   4.153   1.771  13.823
84020SOL    HW153893   4.113   1.691  13.858
84020SOL    HW253894   4.120   1.841  13.879
84021SOL     OW53895  14.016   9.523   5.714
84021SOL    HW153896  14.081   9.592   5.726
84021SOL    HW253897  13.950   9.561   5.656
84022SOL     OW53898   2.194  13.718   9.670
84022SOL    HW153899   2.160  13.785   9.729
84022SOL    HW253900   2.117  13.673   9.637
84023SOL     OW53901   6.130   4.525  11.666
84023SOL    HW153902   6.178   4.587  11.721
84023SOL    HW253903   6.188   4.450  11.658
84024SOL     OW53904   0.108  12.475   8.963
84024SOL    HW153905   0.061  12.391   8.967
84024SOL    HW253906   0.178  12.460   8.899
84025SOL     OW53907   8.249   8.387   4.334
84025SOL    HW153908   8.274   8.458   4.393
84025SOL    HW253909   8.215   8.432   4.256
84026SOL     OW53910   4.344   7.656   3.793
84026SOL    HW153911   4.417   7.623   3.740
84026SOL    HW253912   4.306   7.578   3.832
84027SOL     OW53913  10.593   7.459   1.847
84027SOL    HW153914  10.666   7.465   1.786
84027SOL    HW253915  10.515   7.481   1.795
84028SOL     OW53916   4.286   2.166  13.918
84028SOL    HW153917   4.343   2.097  13.953
84028SOL    HW253918   4.270   2.139  13.827
84029SOL     OW53919   3.346   6.128   4.607
84029SOL    HW153920   3.422   6.161   4.559
84029SOL    HW253921   3.275   6.127   4.542
84030SOL     OW53922   6.835   5.889  10.127
84030SOL    HW153923   6.907   5.863  10.184
84030SOL    HW253924   6.762   5.906  10.187
84031SOL     OW53925   7.876  11.267  11.260
84031SOL    HW153926   7.837  11.180  11.272
84031SOL    HW253927   7.866  11.310  11.346
84032SOL     OW53928   8.838   1.213   1.732
84032SOL    HW153929   8.821   1.269   1.657
84032SOL    HW253930   8.756   1.211   1.781
84033SOL     OW53931  14.134   5.934   9.344
84033SOL    HW153932  14.060   5.996   9.348
84033SOL    HW253933  14.099   5.854   9.383
84034SOL     OW53934   8.380   6.847   2.900
84034SOL    HW153935   8.414   6.928   2.939
84034SOL    HW253936   8.321   6.812   2.967
84035SOL     OW53937   4.294   9.033   4.184
84035SOL    HW153938   4.318   9.101   4.246
84035SOL    HW253939   4.373   8.981   4.173
84036SOL     OW53940   7.678   3.139   6.166
84036SOL    HW153941   7.709   3.214   6.215
84036SOL    HW253942   7.590   3.164   6.137
84037SOL     OW53943   4.550   0.950  14.255
84037SOL    HW153944   4.573   0.864  14.292
84037SOL    HW253945   4.599   1.013  14.308
84038SOL     OW53946   6.447  14.001   1.569
84038SOL    HW153947   6.474  14.071   1.629
84038SOL    HW253948   6.369  14.035   1.525
84039SOL     OW53949   0.275   5.799   0.505
84039SOL    HW153950   0.366   5.802   0.476
84039SOL    HW253951   0.280   5.795   0.600
84040SOL     OW53952   7.538   0.442   0.558
84040SOL    HW153953   7.608   0.497   0.594
84040SOL    HW253954   7.583   0.377   0.504
84041SOL     OW53955   2.722   5.470   2.361
84041SOL    HW153956   2.765   5.434   2.284
84041SOL    HW253957   2.674   5.396   2.398
84042SOL     OW53958   0.723   7.673   8.928
84042SOL    HW153959   0.768   7.738   8.874
84042SOL    HW253960   0.707   7.599   8.869
84043SOL     OW53961  11.625   5.823   7.671
84043SOL    HW153962  11.640   5.916   7.657
84043SOL    HW253963  11.532   5.811   7.653
84044SOL     OW53964  10.791  11.768   4.782
84044SOL    HW153965  10.788  11.825   4.705
84044SOL    HW253966  10.741  11.690   4.756
84045SOL     OW53967   5.217   7.504   9.358
84045SOL    HW153968   5.312   7.497   9.362
84045SOL    HW253969   5.198   7.515   9.265
84046SOL     OW53970   2.095   9.417  10.716
84046SOL    HW153971   2.051   9.494  10.679
84046SOL    HW253972   2.160   9.454  10.776
84047SOL     OW53973   9.281  12.465   5.123
84047SOL    HW153974   9.194  12.506   5.122
84047SOL    HW253975   9.263  12.371   5.124
84048SOL     OW53976   0.049   3.400   3.954
84048SOL    HW153977   0.121   3.410   4.016
84048SOL    HW253978   0.053   3.478   3.899
84049SOL     OW53979  14.564   5.436   9.479
84049SOL    HW153980  14.529   5.450   9.391
84049SOL    HW253981  14.657   5.420   9.466
84050SOL     OW53982   9.707  14.769  14.276
84050SOL    HW153983   9.741  14.679  14.271
84050SOL    HW253984   9.612  14.758  14.278
84051SOL     OW53985   4.059   9.211  12.112
84051SOL    HW153986   4.155   9.219  12.111
84051SOL    HW253987   4.028   9.282  12.057
84052SOL     OW53988   9.660   2.136   5.489
84052SOL    HW153989   9.626   2.059   5.536
84052SOL    HW253990   9.644   2.116   5.397
84053SOL     OW53991   6.357   3.299   3.771
84053SOL    HW153992   6.333   3.292   3.863
84053SOL    HW253993   6.445   3.260   3.766
84054SOL     OW53994   3.239  10.865   8.238
84054SOL    HW153995   3.207  10.930   8.175
84054SOL    HW253996   3.215  10.781   8.198
84055SOL     OW53997  12.747  14.828   1.736
84055SOL    HW153998  12.747  14.842   1.641
84055SOL    HW253999  12.700   0.024   1.772
84056SOL     OW54000  13.643   9.597  14.190
84056SOL    HW154001  13.721   9.613  14.136
84056SOL    HW254002  13.605   9.683  14.203
84057SOL     OW54003   4.272   6.873   8.698
84057SOL    HW154004   4.260   6.796   8.643
84057SOL    HW254005   4.256   6.947   8.640
84058SOL     OW54006   3.473  11.986  13.743
84058SOL    HW154007   3.536  12.020  13.680
84058SOL    HW254008   3.525  11.950  13.814
84059SOL     OW54009   4.312   8.212   4.417
84059SOL    HW154010   4.244   8.186   4.479
84059SOL    HW254011   4.357   8.285   4.460
84060SOL     OW54012  10.200   8.632   9.299
84060SOL    HW154013  10.148   8.676   9.366
84060SOL    HW254014  10.144   8.634   9.221
84061SOL     OW54015   8.630  12.739   0.043
84061SOL    HW154016   8.568  12.749  14.850
84061SOL    HW254017   8.716  12.757   0.004
84062SOL     OW54018   1.929   6.224   6.120
84062SOL    HW154019   1.979   6.179   6.052
84062SOL    HW254020   1.961   6.188   6.202
84063SOL     OW54021   5.972   8.322   9.131
84063SOL    HW154022   5.980   8.335   9.037
84063SOL    HW254023   5.916   8.245   9.140
84064SOL     OW54024   6.913   8.854   2.278
84064SOL    HW154025   6.962   8.936   2.270
84064SOL    HW254026   6.895   8.828   2.187
84065SOL     OW54027  13.292   1.544   9.584
84065SOL    HW154028  13.240   1.464   9.569
84065SOL    HW254029  13.246   1.611   9.533
84066SOL     OW54030   1.797   7.103  14.304
84066SOL    HW154031   1.813   7.107  14.210
84066SOL    HW254032   1.877   7.063  14.340
84067SOL     OW54033   7.395   7.866   1.198
84067SOL    HW154034   7.350   7.787   1.168
84067SOL    HW254035   7.346   7.895   1.275
84068SOL     OW54036   6.675   5.536  11.189
84068SOL    HW154037   6.666   5.550  11.283
84068SOL    HW254038   6.759   5.577  11.167
84069SOL     OW54039   8.289   0.285   6.487
84069SOL    HW154040   8.255   0.276   6.576
84069SOL    HW254041   8.253   0.209   6.441
84070SOL     OW54042   7.905   1.329  14.414
84070SOL    HW154043   7.979   1.288  14.457
84070SOL    HW254044   7.889   1.409  14.464
84071SOL     OW54045   9.132   9.338   7.645
84071SOL    HW154046   9.178   9.298   7.571
84071SOL    HW254047   9.146   9.432   7.633
84072SOL     OW54048   3.839  13.766   2.493
84072SOL    HW154049   3.764  13.753   2.435
84072SOL    HW254050   3.887  13.683   2.488
84073SOL     OW54051   9.110   3.295   8.110
84073SOL    HW154052   9.186   3.244   8.080
84073SOL    HW254053   9.044   3.281   8.043
84074SOL     OW54054   6.383   4.355  10.100
84074SOL    HW154055   6.471   4.322  10.122
84074SOL    HW254056   6.349   4.292  10.036
84075SOL     OW54057  13.984   8.217  11.558
84075SOL    HW154058  13.902   8.199  11.604
84075SOL    HW254059  13.957   8.257  11.476
84076SOL     OW54060   1.843   8.537   9.267
84076SOL    HW154061   1.909   8.467   9.267
84076SOL    HW254062   1.853   8.579   9.182
84077SOL     OW54063  14.019   2.288   4.866
84077SOL    HW154064  13.984   2.209   4.827
84077SOL    HW254065  13.965   2.303   4.944
84078SOL     OW54066   4.727   0.311   6.605
84078SOL    HW154067   4.817   0.340   6.622
84078SOL    HW254068   4.672   0.384   6.634
84079SOL     OW54069   8.692   3.557  10.865
84079SOL    HW154070   8.709   3.614  10.790
84079SOL    HW254071   8.628   3.493  10.832
84080SOL     OW54072  11.168   1.673  14.037
84080SOL    HW154073  11.239   1.682  14.101
84080SOL    HW254074  11.194   1.729  13.965
84081SOL     OW54075   5.247  12.593   6.670
84081SOL    HW154076   5.161  12.562   6.699
84081SOL    HW254077   5.277  12.527   6.608
84082SOL     OW54078  14.306   3.668   0.008
84082SOL    HW154079  14.255   3.587  14.873
84082SOL    HW254080  14.351   3.653   0.092
84083SOL     OW54081   8.083   2.814   9.674
84083SOL    HW154082   8.093   2.897   9.722
84083SOL    HW254083   8.129   2.828   9.591
84084SOL     OW54084  12.070   3.073   6.131
84084SOL    HW154085  12.025   3.152   6.100
84084SOL    HW254086  12.155   3.076   6.089
84085SOL     OW54087  13.538   1.465   9.908
84085SOL    HW154088  13.603   1.515   9.958
84085SOL    HW254089  13.558   1.374   9.927
84086SOL     OW54090  11.239   7.017   7.722
84086SOL    HW154091  11.273   6.939   7.765
84086SOL    HW254092  11.317   7.068   7.699
84087SOL     OW54093   7.115   9.390  13.348
84087SOL    HW154094   7.150   9.327  13.286
84087SOL    HW254095   7.028   9.357  13.370
84088SOL     OW54096   4.427  14.489  12.847
84088SOL    HW154097   4.417  14.571  12.799
84088SOL    HW254098   4.393  14.422  12.788
84089SOL     OW54099   5.884  12.662  12.764
84089SOL    HW154100   5.791  12.648  12.780
84089SOL    HW254101   5.917  12.697  12.847
84090SOL     OW54102   6.455   0.392  10.292
84090SOL    HW154103   6.458   0.435  10.377
84090SOL    HW254104   6.538   0.416  10.250
84091SOL     OW54105   0.955   8.768   1.616
84091SOL    HW154106   1.039   8.725   1.604
84091SOL    HW254107   0.913   8.719   1.687
84092SOL     OW54108   0.601   4.471   2.265
84092SOL    HW154109   0.522   4.468   2.319
84092SOL    HW254110   0.635   4.381   2.268
84093SOL     OW54111   2.846   1.426  11.366
84093SOL    HW154112   2.785   1.372  11.316
84093SOL    HW254113   2.916   1.447  11.305
84094SOL     OW54114   9.748   7.913   7.034
84094SOL    HW154115   9.684   7.977   7.002
84094SOL    HW254116   9.701   7.863   7.101
84095SOL     OW54117   0.433   2.823   4.953
84095SOL    HW154118   0.387   2.764   4.895
84095SOL    HW254119   0.390   2.908   4.941
84096SOL     OW54120   7.854   0.671   6.368
84096SOL    HW154121   7.802   0.747   6.342
84096SOL    HW254122   7.816   0.598   6.321
84097SOL     OW54123  10.221   6.418   8.891
84097SOL    HW154124  10.254   6.345   8.944
84097SOL    HW254125  10.291   6.483   8.894
84098SOL     OW54126   9.644  14.051   8.163
84098SOL    HW154127   9.702  13.975   8.159
84098SOL    HW254128   9.608  14.059   8.074
84099SOL     OW54129   1.945  10.989   6.723
84099SOL    HW154130   2.014  10.924   6.735
84099SOL    HW254131   1.947  11.008   6.629
84100SOL     OW54132   3.680  11.952   0.577
84100SOL    HW154133   3.663  11.942   0.484
84100SOL    HW254134   3.641  12.037   0.600
84101SOL     OW54135   0.605  11.303   2.270
84101SOL    HW154136   0.662  11.303   2.193
84101SOL    HW254137   0.517  11.295   2.234
84102SOL     OW54138  11.547   5.221  11.886
84102SOL    HW154139  11.628   5.207  11.935
84102SOL    HW254140  11.514   5.305  11.918
84103SOL     OW54141  14.867  14.586   6.024
84103SOL    HW154142   0.067  14.552   6.067
84103SOL    HW254143  14.838  14.657   6.081
84104SOL     OW54144  11.838   2.692  13.763
84104SOL    HW154145  11.930   2.689  13.788
84104SOL    HW254146  11.836   2.656  13.674
84105SOL     OW54147   6.932  12.606   7.484
84105SOL    HW154148   6.895  12.648   7.406
84105SOL    HW254149   7.011  12.656   7.503
84106SOL     OW54150   7.194  14.347   0.329
84106SOL    HW154151   7.273  14.297   0.347
84106SOL    HW254152   7.131  14.316   0.395
84107SOL     OW54153   0.849   2.206   5.869
84107SOL    HW154154   0.775   2.257   5.900
84107SOL    HW254155   0.907   2.271   5.828
84108SOL     OW54156   8.513  11.865  13.558
84108SOL    HW154157   8.422  11.857  13.589
84108SOL    HW254158   8.522  11.797  13.492
84109SOL     OW54159   4.412   1.297   4.067
84109SOL    HW154160   4.495   1.250   4.069
84109SOL    HW254161   4.393   1.316   4.159
84110SOL     OW54162   7.181   4.350   9.716
84110SOL    HW154163   7.270   4.344   9.750
84110SOL    HW254164   7.185   4.422   9.653
84111SOL     OW54165   5.504   6.811   6.615
84111SOL    HW154166   5.517   6.731   6.564
84111SOL    HW254167   5.497   6.880   6.549
84112SOL     OW54168  10.301   6.704   5.244
84112SOL    HW154169  10.345   6.734   5.323
84112SOL    HW254170  10.372   6.691   5.181
84113SOL     OW54171   5.564   4.399  12.002
84113SOL    HW154172   5.653   4.434  12.007
84113SOL    HW254173   5.524   4.421  12.086
84114SOL     OW54174  13.514   8.023   1.269
84114SOL    HW154175  13.503   7.957   1.338
84114SOL    HW254176  13.600   8.061   1.287
84115SOL     OW54177   1.147  13.966  11.769
84115SOL    HW154178   1.158  13.970  11.864
84115SOL    HW254179   1.053  13.948  11.757
84116SOL     OW54180   4.638   2.655   5.268
84116SOL    HW154181   4.651   2.561   5.261
84116SOL    HW254182   4.694   2.681   5.342
84117SOL     OW54183  10.631   1.747  11.060
84117SOL    HW154184  10.554   1.789  11.098
84117SOL    HW254185  10.618   1.752  10.965
84118SOL     OW54186   6.935  11.648   7.112
84118SOL    HW154187   6.946  11.731   7.065
84118SOL    HW254188   6.851  11.656   7.156
84119SOL     OW54189   1.049   5.233   4.375
84119SOL    HW154190   1.111   5.251   4.304
84119SOL    HW254191   1.089   5.162   4.425
84120SOL     OW54192   9.918  13.479  14.587
84120SOL    HW154193   9.879  13.526  14.661
84120SOL    HW254194   9.844  13.435  14.545
84121SOL     OW54195   9.704   9.570   9.113
84121SOL    HW154196   9.640   9.600   9.177
84121SOL    HW254197   9.788   9.604   9.145
84122SOL     OW54198  13.681   5.263   7.415
84122SOL    HW154199  13.760   5.252   7.361
84122SOL    HW254200  13.715   5.280   7.503
84123SOL     OW54201  14.640  11.532   7.353
84123SOL    HW154202  14.561  11.487   7.382
84123SOL    HW254203  14.703  11.462   7.337
84124SOL     OW54204   2.233   1.270   9.645
84124SOL    HW154205   2.254   1.359   9.616
84124SOL    HW254206   2.228   1.220   9.563
84125SOL     OW54207   1.593  10.738  14.071
84125SOL    HW154208   1.541  10.667  14.031
84125SOL    HW254209   1.643  10.694  14.140
84126SOL     OW54210  14.003   2.585   3.990
84126SOL    HW154211  14.085   2.613   4.031
84126SOL    HW254212  13.935   2.609   4.053
84127SOL     OW54213   1.725   0.332  10.367
84127SOL    HW154214   1.804   0.379  10.392
84127SOL    HW254215   1.681   0.389  10.304
84128SOL     OW54216   9.357  14.841  13.350
84128SOL    HW154217   9.390   0.047  13.379
84128SOL    HW254218   9.431  14.781  13.361
84129SOL     OW54219   3.609  10.960   4.483
84129SOL    HW154220   3.557  11.021   4.536
84129SOL    HW254221   3.548  10.927   4.417
84130SOL     OW54222  13.644   6.019  14.747
84130SOL    HW154223  13.667   5.926  14.746
84130SOL    HW254224  13.607   6.036  14.660
84131SOL     OW54225   0.806   2.264  13.124
84131SOL    HW154226   0.874   2.253  13.057
84131SOL    HW254227   0.741   2.320  13.083
84132SOL     OW54228  14.215   3.947   3.055
84132SOL    HW154229  14.185   3.856   3.056
84132SOL    HW254230  14.304   3.943   3.091
84133SOL     OW54231   3.688  10.917  10.596
84133SOL    HW154232   3.647  10.977  10.659
84133SOL    HW254233   3.659  10.950  10.510
84134SOL     OW54234  14.512   2.951   2.759
84134SOL    HW154235  14.594   2.999   2.749
84134SOL    HW254236  14.461   3.005   2.820
84135SOL     OW54237   1.146  10.373  11.148
84135SOL    HW154238   1.103  10.452  11.181
84135SOL    HW254239   1.093  10.347  11.072
84136SOL     OW54240   3.958  12.250  10.424
84136SOL    HW154241   3.957  12.166  10.379
84136SOL    HW254242   3.874  12.290  10.402
84137SOL     OW54243   8.009  14.294   0.353
84137SOL    HW154244   7.922  14.263   0.375
84137SOL    HW254245   8.067  14.246   0.412
84138SOL     OW54246   5.200   0.100   5.262
84138SOL    HW154247   5.134   0.164   5.287
84138SOL    HW254248   5.278   0.152   5.244
84139SOL     OW54249  12.084   1.067  12.630
84139SOL    HW154250  12.162   1.119  12.610
84139SOL    HW254251  12.062   1.090  12.720
84140SOL     OW54252   8.798  10.317   5.894
84140SOL    HW154253   8.746  10.352   5.821
84140SOL    HW254254   8.765  10.227   5.905
84141SOL     OW54255  14.019   2.876  14.554
84141SOL    HW154256  13.983   2.963  14.536
84141SOL    HW254257  13.980   2.820  14.487
84142SOL     OW54258   5.344  12.392   1.254
84142SOL    HW154259   5.320  12.461   1.316
84142SOL    HW254260   5.359  12.315   1.309
84143SOL     OW54261   6.362  14.668   5.921
84143SOL    HW154262   6.410  14.600   5.968
84143SOL    HW254263   6.340  14.628   5.837
84144SOL     OW54264   4.082   4.146   3.413
84144SOL    HW154265   4.102   4.132   3.505
84144SOL    HW254266   4.121   4.232   3.393
84145SOL     OW54267   6.469   1.590   0.266
84145SOL    HW154268   6.517   1.660   0.311
84145SOL    HW254269   6.536   1.546   0.213
84146SOL     OW54270   5.066   9.762   1.066
84146SOL    HW154271   5.003   9.701   1.029
84146SOL    HW254272   5.013   9.833   1.102
84147SOL     OW54273  10.568   3.590   9.338
84147SOL    HW154274  10.492   3.548   9.379
84147SOL    HW254275  10.602   3.649   9.405
84148SOL     OW54276  13.179  11.536   1.664
84148SOL    HW154277  13.226  11.458   1.693
84148SOL    HW254278  13.248  11.600   1.643
84149SOL     OW54279  11.006  10.815   8.724
84149SOL    HW154280  10.980  10.847   8.810
84149SOL    HW254281  10.995  10.890   8.665
84150SOL     OW54282  13.066   5.371   5.366
84150SOL    HW154283  13.023   5.291   5.397
84150SOL    HW254284  13.045   5.436   5.433
84151SOL     OW54285   3.083  12.134  13.052
84151SOL    HW154286   3.147  12.122  12.981
84151SOL    HW254287   3.019  12.065  13.039
84152SOL     OW54288   4.146   6.656   6.830
84152SOL    HW154289   4.150   6.751   6.841
84152SOL    HW254290   4.150   6.643   6.735
84153SOL     OW54291   2.632  11.714  12.584
84153SOL    HW154292   2.545  11.750  12.597
84153SOL    HW254293   2.647  11.660  12.662
84154SOL     OW54294   2.003  12.628  12.695
84154SOL    HW154295   2.017  12.562  12.763
84154SOL    HW254296   1.991  12.577  12.615
84155SOL     OW54297  12.565   8.560   2.834
84155SOL    HW154298  12.639   8.504   2.811
84155SOL    HW254299  12.600   8.622   2.898
84156SOL     OW54300   2.500   9.920   8.358
84156SOL    HW154301   2.489   9.946   8.266
84156SOL    HW254302   2.553   9.840   8.354
84157SOL     OW54303   9.712   3.722  12.521
84157SOL    HW154304   9.796   3.760  12.496
84157SOL    HW254305   9.649   3.793  12.507
84158SOL     OW54306   1.606   6.975  10.491
84158SOL    HW154307   1.524   6.973  10.541
84158SOL    HW254308   1.674   6.954  10.555
84159SOL     OW54309   1.349  10.161   9.603
84159SOL    HW154310   1.397  10.101   9.661
84159SOL    HW254311   1.359  10.247   9.644
84160SOL     OW54312   3.879   9.774   2.675
84160SOL    HW154313   3.943   9.733   2.733
84160SOL    HW254314   3.901   9.867   2.678
84161SOL     OW54315  14.507  13.575   0.677
84161SOL    HW154316  14.414  13.556   0.666
84161SOL    HW254317  14.548  13.489   0.686
84162SOL     OW54318  13.784  10.546  10.653
84162SOL    HW154319  13.865  10.595  10.638
84162SOL    HW254320  13.744  10.540  10.566
84163SOL     OW54321  13.645  10.831  13.690
84163SOL    HW154322  13.584  10.815  13.618
84163SOL    HW254323  13.727  10.854  13.646
84164SOL     OW54324   3.162  13.336  11.460
84164SOL    HW154325   3.183  13.245  11.444
84164SOL    HW254326   3.067  13.336  11.477
84165SOL     OW54327   8.368   0.497   5.174
84165SOL    HW154328   8.304   0.442   5.219
84165SOL    HW254329   8.332   0.586   5.181
84166SOL     OW54330   5.090  13.096   4.506
84166SOL    HW154331   5.097  13.190   4.491
84166SOL    HW254332   5.060  13.088   4.597
84167SOL     OW54333   2.147   4.173   4.132
84167SOL    HW154334   2.166   4.163   4.039
84167SOL    HW254335   2.082   4.105   4.150
84168SOL     OW54336   6.429   3.894   9.587
84168SOL    HW154337   6.481   3.935   9.517
84168SOL    HW254338   6.482   3.906   9.666
84169SOL     OW54339  14.695   6.155   6.723
84169SOL    HW154340  14.715   6.073   6.677
84169SOL    HW254341  14.626   6.131   6.785
84170SOL     OW54342  14.101  14.523   9.740
84170SOL    HW154343  14.143  14.437   9.747
84170SOL    HW254344  14.072  14.543   9.829
84171SOL     OW54345   0.061   8.867  10.205
84171SOL    HW154346  14.868   8.861  10.143
84171SOL    HW254347   0.029   8.824  10.284
84172SOL     OW54348   5.710   7.061  13.863
84172SOL    HW154349   5.685   7.152  13.846
84172SOL    HW254350   5.669   7.011  13.793
84173SOL     OW54351  10.794   4.879  11.629
84173SOL    HW154352  10.882   4.892  11.596
84173SOL    HW254353  10.770   4.791  11.598
84174SOL     OW54354   0.704  14.539   1.313
84174SOL    HW154355   0.739  14.497   1.392
84174SOL    HW254356   0.757  14.618   1.302
84175SOL     OW54357   7.737   9.919   9.036
84175SOL    HW154358   7.761   9.986   9.099
84175SOL    HW254359   7.773   9.950   8.953
84176SOL     OW54360   2.537  13.169   1.020
84176SOL    HW154361   2.482  13.208   1.088
84176SOL    HW254362   2.545  13.077   1.045
84177SOL     OW54363   1.092   4.570  12.688
84177SOL    HW154364   1.030   4.642  12.688
84177SOL    HW254365   1.056   4.507  12.750
84178SOL     OW54366  11.807  12.252   7.915
84178SOL    HW154367  11.719  12.243   7.952
84178SOL    HW254368  11.832  12.343   7.934
84179SOL     OW54369   5.991   9.697   0.142
84179SOL    HW154370   5.919   9.754   0.170
84179SOL    HW254371   5.948   9.617   0.112
84180SOL     OW54372   9.829   0.082   6.049
84180SOL    HW154373   9.819  14.874   6.009
84180SOL    HW254374   9.746   0.097   6.094
84181SOL     OW54375  12.508   9.150   3.720
84181SOL    HW154376  12.512   9.070   3.773
84181SOL    HW254377  12.415   9.167   3.710
84182SOL     OW54378   0.915   1.244  14.554
84182SOL    HW154379   0.845   1.260  14.617
84182SOL    HW254380   0.897   1.304  14.482
84183SOL     OW54381  14.381   1.267   2.723
84183SOL    HW154382  14.411   1.355   2.700
84183SOL    HW254383  14.321   1.280   2.797
84184SOL     OW54384  14.417   0.139  12.373
84184SOL    HW154385  14.323   0.156  12.376
84184SOL    HW254386  14.433   0.110  12.283
84185SOL     OW54387   8.498  10.819  13.923
84185SOL    HW154388   8.416  10.814  13.971
84185SOL    HW254389   8.558  10.864  13.983
84186SOL     OW54390   8.026  14.788   2.442
84186SOL    HW154391   8.078  14.856   2.398
84186SOL    HW254392   8.057  14.790   2.532
84187SOL     OW54393   9.699   6.242  10.233
84187SOL    HW154394   9.740   6.328  10.230
84187SOL    HW254395   9.736   6.195  10.158
84188SOL     OW54396  14.681  13.301   9.392
84188SOL    HW154397  14.753  13.247   9.426
84188SOL    HW254398  14.622  13.238   9.351
84189SOL     OW54399   3.689  14.366   6.084
84189SOL    HW154400   3.673  14.380   6.177
84189SOL    HW254401   3.720  14.275   6.078
84190SOL     OW54402   7.935  11.907   7.639
84190SOL    HW154403   7.907  11.930   7.728
84190SOL    HW254404   7.853  11.899   7.590
84191SOL     OW54405   4.138  13.472   7.909
84191SOL    HW154406   4.058  13.469   7.962
84191SOL    HW254407   4.135  13.393   7.856
84192SOL     OW54408   6.305  12.987  14.656
84192SOL    HW154409   6.395  12.975  14.624
84192SOL    HW254410   6.270  12.898  14.662
84193SOL     OW54411   9.048   0.313   2.813
84193SOL    HW154412   9.033   0.408   2.815
84193SOL    HW254413   8.974   0.277   2.863
84194SOL     OW54414   0.603  13.185   1.156
84194SOL    HW154415   0.615  13.111   1.097
84194SOL    HW254416   0.539  13.241   1.111
84195SOL     OW54417  12.587  12.184  14.096
84195SOL    HW154418  12.612  12.114  14.157
84195SOL    HW254419  12.668  12.234  14.084
84196SOL     OW54420   2.888  11.338   8.204
84196SOL    HW154421   2.926  11.263   8.249
84196SOL    HW254422   2.859  11.396   8.273
84197SOL     OW54423   1.839   0.486   5.126
84197SOL    HW154424   1.851   0.574   5.090
84197SOL    HW254425   1.839   0.500   5.221
84198SOL     OW54426   9.084  10.355   2.873
84198SOL    HW154427   9.046  10.442   2.885
84198SOL    HW254428   9.139  10.342   2.950
84199SOL     OW54429  13.681  11.829   9.681
84199SOL    HW154430  13.692  11.914   9.724
84199SOL    HW254431  13.731  11.769   9.737
84200SOL     OW54432   9.227  13.880  12.978
84200SOL    HW154433   9.240  13.803  12.921
84200SOL    HW254434   9.303  13.880  13.036
84201SOL     OW54435   5.756   5.650   5.541
84201SOL    HW154436   5.764   5.715   5.471
84201SOL    HW254437   5.841   5.607   5.543
84202SOL     OW54438   3.862  10.644   7.478
84202SOL    HW154439   3.799  10.621   7.410
84202SOL    HW254440   3.947  10.617   7.443
84203SOL     OW54441   9.454  13.896  12.656
84203SOL    HW154442   9.541  13.927  12.682
84203SOL    HW254443   9.415  13.970  12.610
84204SOL     OW54444   7.171  14.454  10.178
84204SOL    HW154445   7.111  14.434  10.250
84204SOL    HW254446   7.155  14.547  10.159
84205SOL     OW54447   0.910   1.112  12.813
84205SOL    HW154448   0.969   1.042  12.785
84205SOL    HW254449   0.908   1.173  12.739
84206SOL     OW54450  12.980   3.410   4.650
84206SOL    HW154451  13.053   3.389   4.592
84206SOL    HW254452  13.014   3.478   4.707
84207SOL     OW54453  12.233   0.502   7.439
84207SOL    HW154454  12.171   0.564   7.478
84207SOL    HW254455  12.307   0.556   7.411
84208SOL     OW54456   8.095  10.466  12.981
84208SOL    HW154457   8.160  10.483  12.913
84208SOL    HW254458   8.013  10.499  12.945
84209SOL     OW54459   7.300   7.348  12.601
84209SOL    HW154460   7.262   7.369  12.516
84209SOL    HW254461   7.372   7.410  12.611
84210SOL     OW54462  14.314  10.958   7.658
84210SOL    HW154463  14.305  10.886   7.721
84210SOL    HW254464  14.338  11.034   7.711
84211SOL     OW54465   6.375  14.550   9.819
84211SOL    HW154466   6.407  14.521   9.733
84211SOL    HW254467   6.351  14.470   9.864
84212SOL     OW54468  14.843   6.486  13.853
84212SOL    HW154469  14.873   6.549  13.919
84212SOL    HW254470   0.006   6.403  13.878
84213SOL     OW54471   6.631  13.763   4.904
84213SOL    HW154472   6.537  13.747   4.915
84213SOL    HW254473   6.662  13.784   4.993
84214SOL     OW54474   3.273   7.195  13.582
84214SOL    HW154475   3.216   7.167  13.653
84214SOL    HW254476   3.232   7.274  13.548
84215SOL     OW54477  11.511  11.619   3.927
84215SOL    HW154478  11.421  11.611   3.961
84215SOL    HW254479  11.559  11.664   3.996
84216SOL     OW54480  14.169  11.294   1.922
84216SOL    HW154481  14.123  11.283   2.005
84216SOL    HW254482  14.099  11.309   1.858
84217SOL     OW54483  10.828   7.010   3.659
84217SOL    HW154484  10.890   6.953   3.613
84217SOL    HW254485  10.744   6.965   3.652
84218SOL     OW54486   2.219   2.609   4.775
84218SOL    HW154487   2.151   2.568   4.723
84218SOL    HW254488   2.260   2.673   4.716
84219SOL     OW54489   7.961  12.947   4.521
84219SOL    HW154490   8.002  12.905   4.446
84219SOL    HW254491   7.989  13.038   4.516
84220SOL     OW54492   6.680   1.936   9.142
84220SOL    HW154493   6.688   1.951   9.048
84220SOL    HW254494   6.721   2.012   9.182
84221SOL     OW54495  14.107   0.648   1.171
84221SOL    HW154496  14.074   0.559   1.179
84221SOL    HW254497  14.156   0.663   1.252
84222SOL     OW54498   0.851  10.700   1.620
84222SOL    HW154499   0.845  10.746   1.536
84222SOL    HW254500   0.875  10.768   1.683
84223SOL     OW54501   9.381   8.908   3.300
84223SOL    HW154502   9.315   8.909   3.370
84223SOL    HW254503   9.448   8.970   3.329
84224SOL     OW54504   3.601  13.655  13.889
84224SOL    HW154505   3.562  13.714  13.953
84224SOL    HW254506   3.533  13.644  13.822
84225SOL     OW54507  11.621  10.604  13.151
84225SOL    HW154508  11.617  10.610  13.056
84225SOL    HW254509  11.672  10.680  13.178
84226SOL     OW54510  13.468   2.346   3.560
84226SOL    HW154511  13.427   2.329   3.475
84226SOL    HW254512  13.502   2.261   3.588
84227SOL     OW54513  12.424   8.883   3.088
84227SOL    HW154514  12.478   8.961   3.095
84227SOL    HW254515  12.487   8.810   3.087
84228SOL     OW54516   9.502   3.919   2.937
84228SOL    HW154517   9.502   3.823   2.945
84228SOL    HW254518   9.514   3.950   3.027
84229SOL     OW54519   1.704   9.035  10.034
84229SOL    HW154520   1.765   9.109  10.039
84229SOL    HW254521   1.761   8.958  10.032
84230SOL     OW54522   3.012   0.853   9.552
84230SOL    HW154523   2.935   0.823   9.504
84230SOL    HW254524   3.030   0.940   9.516
84231SOL     OW54525   9.167  13.408  11.409
84231SOL    HW154526   9.238  13.390  11.347
84231SOL    HW254527   9.154  13.502  11.404
84232SOL     OW54528   3.034   5.320   7.764
84232SOL    HW154529   3.026   5.412   7.792
84232SOL    HW254530   3.123   5.314   7.729
84233SOL     OW54531   8.290  10.999   6.593
84233SOL    HW154532   8.267  10.909   6.617
84233SOL    HW254533   8.368  11.019   6.645
84234SOL     OW54534  10.859   2.320  10.262
84234SOL    HW154535  10.812   2.336  10.180
84234SOL    HW254536  10.845   2.227  10.280
84235SOL     OW54537   1.826  12.136   5.048
84235SOL    HW154538   1.845  12.123   5.141
84235SOL    HW254539   1.735  12.167   5.046
84236SOL     OW54540   6.665  14.877   4.105
84236SOL    HW154541   6.613   0.078   4.109
84236SOL    HW254542   6.607  14.809   4.140
84237SOL     OW54543   5.094  10.578  11.430
84237SOL    HW154544   5.113  10.491  11.463
84237SOL    HW254545   5.036  10.564  11.356
84238SOL     OW54546   2.852  13.366  10.258
84238SOL    HW154547   2.812  13.348  10.343
84238SOL    HW254548   2.946  13.355  10.273
84239SOL     OW54549   3.181   7.760   6.613
84239SOL    HW154550   3.202   7.688   6.554
84239SOL    HW254551   3.086   7.770   6.606
84240SOL     OW54552   6.589   5.085  13.611
84240SOL    HW154553   6.641   5.100  13.690
84240SOL    HW254554   6.545   5.001  13.627
84241SOL     OW54555  10.711  11.470   7.336
84241SOL    HW154556  10.790  11.487   7.285
84241SOL    HW254557  10.642  11.461   7.271
84242SOL     OW54558   5.077   5.480   2.114
84242SOL    HW154559   5.022   5.558   2.106
84242SOL    HW254560   5.033   5.414   2.061
84243SOL     OW54561   8.554   5.808   8.111
84243SOL    HW154562   8.619   5.771   8.051
84243SOL    HW254563   8.470   5.789   8.069
84244SOL     OW54564   0.744   8.816   3.433
84244SOL    HW154565   0.699   8.837   3.515
84244SOL    HW254566   0.764   8.722   3.439
84245SOL     OW54567   3.101   5.232   6.347
84245SOL    HW154568   3.173   5.282   6.307
84245SOL    HW254569   3.110   5.248   6.441
84246SOL     OW54570   3.868   6.613   7.722
84246SOL    HW154571   3.831   6.638   7.638
84246SOL    HW254572   3.951   6.660   7.728
84247SOL     OW54573   6.437   6.033   3.375
84247SOL    HW154574   6.434   6.127   3.357
84247SOL    HW254575   6.514   6.002   3.327
84248SOL     OW54576  12.447  10.165   3.317
84248SOL    HW154577  12.466  10.225   3.389
84248SOL    HW254578  12.475  10.080   3.350
84249SOL     OW54579   9.229   0.770   7.517
84249SOL    HW154580   9.180   0.849   7.542
84249SOL    HW254581   9.305   0.804   7.468
84250SOL     OW54582   5.341   1.574   6.899
84250SOL    HW154583   5.360   1.583   6.992
84250SOL    HW254584   5.246   1.585   6.893
84251SOL     OW54585   5.562   4.792   0.903
84251SOL    HW154586   5.518   4.770   0.820
84251SOL    HW254587   5.594   4.707   0.935
84252SOL     OW54588   1.254   0.963   4.678
84252SOL    HW154589   1.258   0.922   4.592
84252SOL    HW254590   1.324   1.029   4.676
84253SOL     OW54591   5.449  13.481   9.114
84253SOL    HW154592   5.455  13.525   9.199
84253SOL    HW254593   5.536  13.443   9.100
84254SOL     OW54594   5.866   8.422  11.838
84254SOL    HW154595   5.866   8.476  11.917
84254SOL    HW254596   5.794   8.458  11.785
84255SOL     OW54597  13.701   7.457  14.549
84255SOL    HW154598  13.616   7.501  14.542
84255SOL    HW254599  13.730   7.474  14.638
84256SOL     OW54600  13.329   0.008   7.071
84256SOL    HW154601  13.284   0.005   7.155
84256SOL    HW254602  13.265  14.853   7.008
84257SOL     OW54603  13.104  13.975   5.532
84257SOL    HW154604  13.107  14.057   5.483
84257SOL    HW254605  13.171  13.920   5.491
84258SOL     OW54606   6.420   3.767  14.865
84258SOL    HW154607   6.385   3.813   0.063
84258SOL    HW254608   6.354   3.781  14.797
84259SOL     OW54609   1.476  13.561   1.287
84259SOL    HW154610   1.446  13.471   1.301
84259SOL    HW254611   1.571  13.555   1.290
84260SOL     OW54612   0.800  14.649   6.253
84260SOL    HW154613   0.860  14.715   6.218
84260SOL    HW254614   0.738  14.634   6.182
84261SOL     OW54615   9.899   0.251  10.122
84261SOL    HW154616   9.988   0.283  10.108
84261SOL    HW254617   9.905   0.200  10.203
84262SOL     OW54618   4.690  14.363   5.964
84262SOL    HW154619   4.760  14.336   5.904
84262SOL    HW254620   4.711  14.454   5.986
84263SOL     OW54621   6.181   3.275  12.268
84263SOL    HW154622   6.104   3.252  12.320
84263SOL    HW254623   6.149   3.274  12.178
84264SOL     OW54624   4.252  12.629   5.991
84264SOL    HW154625   4.328  12.666   6.036
84264SOL    HW254626   4.220  12.560   6.049
84265SOL     OW54627  11.002   8.988   7.391
84265SOL    HW154628  11.079   8.957   7.438
84265SOL    HW254629  10.927   8.954   7.440
84266SOL     OW54630   1.832   8.133   0.309
84266SOL    HW154631   1.905   8.193   0.326
84266SOL    HW254632   1.805   8.153   0.220
84267SOL     OW54633   1.373   7.012  12.764
84267SOL    HW154634   1.393   7.086  12.707
84267SOL    HW254635   1.351   6.940  12.705
84268SOL     OW54636   1.001  10.229  11.770
84268SOL    HW154637   0.986  10.144  11.810
84268SOL    HW254638   1.013  10.211  11.677
84269SOL     OW54639  11.360   8.346  13.452
84269SOL    HW154640  11.335   8.290  13.525
84269SOL    HW254641  11.291   8.413  13.448
84270SOL     OW54642   2.892  11.565  10.039
84270SOL    HW154643   2.945  11.487  10.029
84270SOL    HW254644   2.889  11.580  10.134
84271SOL     OW54645  11.407  10.942  13.774
84271SOL    HW154646  11.469  10.978  13.711
84271SOL    HW254647  11.322  10.974  13.745
84272SOL     OW54648   9.018   8.050  12.035
84272SOL    HW154649   8.965   8.125  12.007
84272SOL    HW254650   8.963   8.005  12.100
84273SOL     OW54651  10.233  10.023  10.351
84273SOL    HW154652  10.160  10.070  10.313
84273SOL    HW254653  10.204   9.999  10.439
84274SOL     OW54654   3.255   9.842   6.333
84274SOL    HW154655   3.293   9.891   6.259
84274SOL    HW254656   3.234   9.757   6.296
84275SOL     OW54657  14.266   0.532  11.001
84275SOL    HW154658  14.339   0.494  10.952
84275SOL    HW254659  14.308   0.590  11.065
84276SOL     OW54660   7.787   0.482   1.981
84276SOL    HW154661   7.790   0.416   2.050
84276SOL    HW254662   7.703   0.467   1.937
84277SOL     OW54663   2.397   7.287   7.724
84277SOL    HW154664   2.369   7.231   7.796
84277SOL    HW254665   2.462   7.347   7.763
84278SOL     OW54666   1.511  13.292   5.466
84278SOL    HW154667   1.598  13.293   5.426
84278SOL    HW254668   1.459  13.235   5.410
84279SOL     OW54669   0.270  11.923   1.169
84279SOL    HW154670   0.247  11.938   1.261
84279SOL    HW254671   0.302  12.008   1.139
84280SOL     OW54672   6.482   7.165   3.760
84280SOL    HW154673   6.571   7.137   3.738
84280SOL    HW254674   6.428   7.088   3.741
84281SOL     OW54675   6.899   3.479   2.781
84281SOL    HW154676   6.886   3.550   2.844
84281SOL    HW254677   6.957   3.515   2.715
84282SOL     OW54678   1.424   9.629   8.859
84282SOL    HW154679   1.511   9.665   8.877
84282SOL    HW254680   1.364   9.693   8.897
84283SOL     OW54681  12.676   2.544   4.714
84283SOL    HW154682  12.638   2.529   4.800
84283SOL    HW254683  12.650   2.633   4.691
84284SOL     OW54684   9.789   6.206   4.355
84284SOL    HW154685   9.754   6.181   4.441
84284SOL    HW254686   9.809   6.299   4.364
84285SOL     OW54687   8.475   6.598   9.445
84285SOL    HW154688   8.528   6.570   9.520
84285SOL    HW254689   8.478   6.693   9.447
84286SOL     OW54690  11.854   9.328  10.523
84286SOL    HW154691  11.892   9.389  10.587
84286SOL    HW254692  11.821   9.385  10.453
84287SOL     OW54693  14.439   5.916   2.528
84287SOL    HW154694  14.378   5.946   2.460
84287SOL    HW254695  14.468   5.997   2.571
84288SOL     OW54696   2.269   2.106   1.661
84288SOL    HW154697   2.221   2.024   1.660
84288SOL    HW254698   2.331   2.100   1.588
84289SOL     OW54699   0.858   4.430   2.984
84289SOL    HW154700   0.787   4.367   2.992
84289SOL    HW254701   0.937   4.377   2.976
84290SOL     OW54702   5.403   2.802  12.908
84290SOL    HW154703   5.359   2.885  12.924
84290SOL    HW254704   5.420   2.767  12.995
84291SOL     OW54705   1.869   1.059  12.269
84291SOL    HW154706   1.781   1.086  12.294
84291SOL    HW254707   1.855   0.992  12.203
84292SOL     OW54708   6.419  13.965   9.336
84292SOL    HW154709   6.507  13.964   9.376
84292SOL    HW254710   6.367  14.021   9.394
84293SOL     OW54711   5.410  11.007   6.787
84293SOL    HW154712   5.352  11.059   6.731
84293SOL    HW254713   5.495  11.011   6.743
84294SOL     OW54714   4.637   2.644   4.924
84294SOL    HW154715   4.592   2.562   4.903
84294SOL    HW254716   4.700   2.619   4.992
84295SOL     OW54717   6.898   5.698  11.293
84295SOL    HW154718   6.992   5.698  11.310
84295SOL    HW254719   6.883   5.775  11.238
84296SOL     OW54720  11.696   0.506   6.988
84296SOL    HW154721  11.605   0.478   6.974
84296SOL    HW254722  11.745   0.424   6.991
84297SOL     OW54723   2.812   6.167   3.472
84297SOL    HW154724   2.857   6.195   3.552
84297SOL    HW254725   2.785   6.248   3.430
84298SOL     OW54726  10.890  12.432  11.947
84298SOL    HW154727  10.944  12.358  11.976
84298SOL    HW254728  10.930  12.508  11.989
84299SOL     OW54729   4.818   8.183   3.576
84299SOL    HW154730   4.773   8.262   3.547
84299SOL    HW254731   4.905   8.189   3.536
84300SOL     OW54732  14.078   1.959  13.082
84300SOL    HW154733  14.072   1.901  13.158
84300SOL    HW254734  13.987   1.984  13.064
84301SOL     OW54735   2.767   5.751   1.728
84301SOL    HW154736   2.758   5.719   1.639
84301SOL    HW254737   2.856   5.726   1.754
84302SOL     OW54738   5.757  11.514   4.831
84302SOL    HW154739   5.793  11.602   4.835
84302SOL    HW254740   5.787  11.479   4.747
84303SOL     OW54741   7.233   7.742  11.036
84303SOL    HW154742   7.257   7.702  10.952
84303SOL    HW254743   7.138   7.755  11.029
84304SOL     OW54744   2.296   4.310   6.860
84304SOL    HW154745   2.317   4.365   6.784
84304SOL    HW254746   2.202   4.292   6.851
84305SOL     OW54747   0.626   5.224  11.055
84305SOL    HW154748   0.649   5.251  10.966
84305SOL    HW254749   0.568   5.292  11.087
84306SOL     OW54750   1.107  14.628   1.419
84306SOL    HW154751   1.133  14.711   1.379
84306SOL    HW254752   1.026  14.648   1.466
84307SOL     OW54753  10.305   7.990   5.311
84307SOL    HW154754  10.262   7.934   5.246
84307SOL    HW254755  10.279   8.079   5.287
84308SOL     OW54756   9.162  12.195  12.523
84308SOL    HW154757   9.149  12.123  12.585
84308SOL    HW254758   9.181  12.271  12.578
84309SOL     OW54759   6.766  11.358   4.318
84309SOL    HW154760   6.691  11.402   4.357
84309SOL    HW254761   6.743  11.265   4.318
84310SOL     OW54762   7.391  12.778   5.508
84310SOL    HW154763   7.381  12.756   5.415
84310SOL    HW254764   7.476  12.740   5.531
84311SOL     OW54765  12.776   0.050   9.925
84311SOL    HW154766  12.705   0.016   9.980
84311SOL    HW254767  12.790   0.139   9.957
84312SOL     OW54768  11.759  13.593   2.372
84312SOL    HW154769  11.684  13.544   2.404
84312SOL    HW254770  11.720  13.665   2.322
84313SOL     OW54771   0.376   4.029   9.351
84313SOL    HW154772   0.295   4.046   9.399
84313SOL    HW254773   0.371   4.085   9.274
84314SOL     OW54774  13.491   5.950  11.613
84314SOL    HW154775  13.496   5.971  11.706
84314SOL    HW254776  13.569   5.898  11.595
84315SOL     OW54777  12.337   9.517   9.629
84315SOL    HW154778  12.282   9.565   9.691
84315SOL    HW254779  12.405   9.476   9.684
84316SOL     OW54780   5.690   6.284   9.844
84316SOL    HW154781   5.689   6.310   9.752
84316SOL    HW254782   5.714   6.191   9.842
84317SOL     OW54783   1.274   9.434  13.287
84317SOL    HW154784   1.200   9.458  13.342
84317SOL    HW254785   1.266   9.488  13.209
84318SOL     OW54786  14.436  12.119   6.116
84318SOL    HW154787  14.474  12.179   6.181
84318SOL    HW254788  14.506  12.106   6.052
84319SOL     OW54789   7.881  10.869  10.969
84319SOL    HW154790   7.840  10.834  10.889
84319SOL    HW254791   7.829  10.832  11.040
84320SOL     OW54792   2.690   8.961   8.209
84320SOL    HW154793   2.674   9.038   8.154
84320SOL    HW254794   2.754   8.909   8.160
84321SOL     OW54795  10.488   6.508   8.885
84321SOL    HW154796  10.492   6.438   8.821
84321SOL    HW254797  10.580   6.531   8.902
84322SOL     OW54798   3.463  13.035   5.387
84322SOL    HW154799   3.536  13.058   5.330
84322SOL    HW254800   3.422  12.960   5.345
84323SOL     OW54801   2.644  14.075   8.539
84323SOL    HW154802   2.718  14.083   8.599
84323SOL    HW254803   2.592  14.003   8.575
84324SOL     OW54804  10.413   5.157  14.677
84324SOL    HW154805  10.439   5.249  14.688
84324SOL    HW254806  10.325   5.162  14.639
84325SOL     OW54807   6.784   0.067   9.868
84325SOL    HW154808   6.824   0.118   9.938
84325SOL    HW254809   6.708   0.119   9.841
84326SOL     OW54810   2.539  14.020  13.930
84326SOL    HW154811   2.605  14.008  13.998
84326SOL    HW254812   2.460  14.048  13.977
84327SOL     OW54813   9.724   7.136   1.830
84327SOL    HW154814   9.816   7.126   1.807
84327SOL    HW254815   9.686   7.050   1.815
84328SOL     OW54816   9.616  14.278  10.638
84328SOL    HW154817   9.584  14.233  10.561
84328SOL    HW254818   9.549  14.262  10.705
84329SOL     OW54819   5.626  11.430  12.118
84329SOL    HW154820   5.658  11.514  12.085
84329SOL    HW254821   5.532  11.431  12.100
84330SOL     OW54822   8.763   0.221   5.101
84330SOL    HW154823   8.688   0.280   5.103
84330SOL    HW254824   8.789   0.211   5.193
84331SOL     OW54825  13.817   2.659   3.177
84331SOL    HW154826  13.850   2.665   3.087
84331SOL    HW254827  13.896   2.647   3.231
84332SOL     OW54828  11.957   1.431   6.494
84332SOL    HW154829  11.915   1.513   6.520
84332SOL    HW254830  11.885   1.368   6.486
84333SOL     OW54831   9.453  12.231   2.634
84333SOL    HW154832   9.457  12.143   2.672
84333SOL    HW254833   9.363  12.240   2.603
84334SOL     OW54834   3.434   6.947   5.658
84334SOL    HW154835   3.394   7.034   5.653
84334SOL    HW254836   3.516   6.955   5.609
84335SOL     OW54837   4.710  10.174   4.614
84335SOL    HW154838   4.647  10.243   4.636
84335SOL    HW254839   4.795  10.211   4.638
84336SOL     OW54840   9.646  14.826  13.663
84336SOL    HW154841   9.620   0.017  13.723
84336SOL    HW254842   9.613  14.854  13.578
84337SOL     OW54843   8.317   5.670   4.701
84337SOL    HW154844   8.243   5.616   4.676
84337SOL    HW254845   8.377   5.665   4.626
84338SOL     OW54846   9.161   5.623  14.620
84338SOL    HW154847   9.158   5.546  14.563
84338SOL    HW254848   9.085   5.612  14.679
84339SOL     OW54849  13.648   5.123   0.783
84339SOL    HW154850  13.613   5.048   0.734
84339SOL    HW254851  13.706   5.083   0.848
84340SOL     OW54852   0.725   8.036   4.245
84340SOL    HW154853   0.685   7.966   4.193
84340SOL    HW254854   0.659   8.058   4.310
84341SOL     OW54855   7.691   1.841  12.494
84341SOL    HW154856   7.765   1.874  12.545
84341SOL    HW254857   7.628   1.810  12.559
84342SOL     OW54858  13.278   1.760   8.938
84342SOL    HW154859  13.322   1.837   8.974
84342SOL    HW254860  13.345   1.715   8.887
84343SOL     OW54861  11.607  13.783   1.287
84343SOL    HW154862  11.624  13.693   1.315
84343SOL    HW254863  11.624  13.784   1.193
84344SOL     OW54864   3.970   2.239   4.983
84344SOL    HW154865   3.985   2.331   5.003
84344SOL    HW254866   3.944   2.200   5.067
84345SOL     OW54867   0.520   8.124   6.960
84345SOL    HW154868   0.501   8.155   6.872
84345SOL    HW254869   0.577   8.191   6.997
84346SOL     OW54870   7.070  14.449   5.621
84346SOL    HW154871   7.076  14.357   5.645
84346SOL    HW254872   6.992  14.454   5.565
84347SOL     OW54873   1.246   3.339   3.265
84347SOL    HW154874   1.212   3.328   3.353
84347SOL    HW254875   1.341   3.331   3.274
84348SOL     OW54876   8.879   2.519   1.291
84348SOL    HW154877   8.799   2.495   1.337
84348SOL    HW254878   8.877   2.614   1.286
84349SOL     OW54879   3.708  10.892   5.359
84349SOL    HW154880   3.628  10.848   5.330
84349SOL    HW254881   3.778  10.848   5.312
84350SOL     OW54882   6.168   5.536  13.028
84350SOL    HW154883   6.186   5.629  13.019
84350SOL    HW254884   6.107   5.516  12.957
84351SOL     OW54885   7.747   9.927   8.082
84351SOL    HW154886   7.804   9.951   8.155
84351SOL    HW254887   7.737  10.008   8.031
84352SOL     OW54888   4.000   5.408   7.206
84352SOL    HW154889   3.927   5.362   7.249
84352SOL    HW254890   4.071   5.344   7.208
84353SOL     OW54891   1.294   3.537  14.634
84353SOL    HW154892   1.240   3.555  14.711
84353SOL    HW254893   1.374   3.587  14.649
84354SOL     OW54894   1.938   6.408   0.553
84354SOL    HW154895   2.018   6.363   0.577
84354SOL    HW254896   1.912   6.369   0.470
84355SOL     OW54897  13.251   6.921   6.436
84355SOL    HW154898  13.325   6.912   6.375
84355SOL    HW254899  13.292   6.926   6.523
84356SOL     OW54900  13.383  13.132   4.440
84356SOL    HW154901  13.362  13.065   4.505
84356SOL    HW254902  13.413  13.207   4.492
84357SOL     OW54903   2.989   6.404  12.157
84357SOL    HW154904   3.075   6.363  12.167
84357SOL    HW254905   2.928   6.330  12.159
84358SOL     OW54906   3.636  14.376   7.313
84358SOL    HW154907   3.690  14.448   7.347
84358SOL    HW254908   3.580  14.352   7.387
84359SOL     OW54909  12.502   2.338   5.251
84359SOL    HW154910  12.568   2.351   5.184
84359SOL    HW254911  12.499   2.420   5.300
84360SOL     OW54912   9.921   9.684   5.110
84360SOL    HW154913   9.948   9.664   5.021
84360SOL    HW254914   9.994   9.655   5.165
84361SOL     OW54915   1.401   1.189  11.540
84361SOL    HW154916   1.384   1.095  11.546
84361SOL    HW254917   1.321   1.224  11.501
84362SOL     OW54918   4.521   3.680  14.299
84362SOL    HW154919   4.516   3.715  14.388
84362SOL    HW254920   4.615   3.671  14.283
84363SOL     OW54921  12.068  13.348   3.642
84363SOL    HW154922  12.075  13.331   3.736
84363SOL    HW254923  11.974  13.356   3.626
84364SOL     OW54924  12.614  12.752   3.695
84364SOL    HW154925  12.599  12.658   3.704
84364SOL    HW254926  12.678  12.760   3.624
84365SOL     OW54927   1.516   1.643   3.515
84365SOL    HW154928   1.595   1.698   3.520
84365SOL    HW254929   1.450   1.699   3.474
84366SOL     OW54930   3.625   0.174   5.259
84366SOL    HW154931   3.692   0.139   5.201
84366SOL    HW254932   3.566   0.101   5.276
84367SOL     OW54933   5.094   6.005   6.921
84367SOL    HW154934   5.166   5.944   6.933
84367SOL    HW254935   5.132   6.078   6.871
84368SOL     OW54936   1.913   3.303   3.542
84368SOL    HW154937   1.995   3.306   3.495
84368SOL    HW254938   1.873   3.388   3.527
84369SOL     OW54939   3.318  13.062   8.511
84369SOL    HW154940   3.279  13.077   8.597
84369SOL    HW254941   3.404  13.025   8.530
84370SOL     OW54942  12.241  10.690   3.627
84370SOL    HW154943  12.212  10.599   3.618
84370SOL    HW254944  12.227  10.729   3.541
84371SOL     OW54945   8.510   7.472   1.427
84371SOL    HW154946   8.545   7.417   1.497
84371SOL    HW254947   8.415   7.467   1.437
84372SOL     OW54948  10.027   8.033   8.741
84372SOL    HW154949   9.984   8.060   8.660
84372SOL    HW254950  10.046   8.115   8.787
84373SOL     OW54951   1.983   1.758   4.184
84373SOL    HW154952   1.954   1.800   4.265
84373SOL    HW254953   1.906   1.708   4.155
84374SOL     OW54954   4.159   0.075   6.251
84374SOL    HW154955   4.112   0.003   6.209
84374SOL    HW254956   4.206   0.118   6.180
84375SOL     OW54957  14.459   5.055   8.438
84375SOL    HW154958  14.454   4.975   8.385
84375SOL    HW254959  14.553   5.070   8.449
84376SOL     OW54960   1.178  10.985  12.971
84376SOL    HW154961   1.218  10.900  12.957
84376SOL    HW254962   1.101  10.968  13.024
84377SOL     OW54963   6.345  11.067   0.046
84377SOL    HW154964   6.416  11.037   0.104
84377SOL    HW254965   6.380  11.056  14.837
84378SOL     OW54966   1.875   2.172   9.793
84378SOL    HW154967   1.828   2.119   9.858
84378SOL    HW254968   1.814   2.243   9.772
84379SOL     OW54969  11.037   9.130   3.388
84379SOL    HW154970  10.955   9.176   3.405
84379SOL    HW254971  11.102   9.178   3.440
84380SOL     OW54972   7.603   6.203   3.928
84380SOL    HW154973   7.642   6.240   4.008
84380SOL    HW254974   7.672   6.212   3.862
84381SOL     OW54975   4.509  12.185   4.008
84381SOL    HW154976   4.444  12.132   4.054
84381SOL    HW254977   4.460  12.261   3.975
84382SOL     OW54978  11.495   5.860   6.138
84382SOL    HW154979  11.413   5.885   6.095
84382SOL    HW254980  11.471   5.846   6.229
84383SOL     OW54981  10.867   7.191  12.716
84383SOL    HW154982  10.797   7.253  12.734
84383SOL    HW254983  10.848   7.158  12.628
84384SOL     OW54984   2.568   1.828  14.378
84384SOL    HW154985   2.540   1.750  14.425
84384SOL    HW254986   2.523   1.900  14.423
84385SOL     OW54987  10.629   5.774   9.345
84385SOL    HW154988  10.719   5.779   9.314
84385SOL    HW254989  10.631   5.810   9.433
84386SOL     OW54990   9.817   4.324   1.432
84386SOL    HW154991   9.818   4.397   1.370
84386SOL    HW254992   9.793   4.365   1.515
84387SOL     OW54993   5.624  12.319  14.105
84387SOL    HW154994   5.623  12.226  14.081
84387SOL    HW254995   5.672  12.321  14.188
84388SOL     OW54996   3.191  10.636   0.102
84388SOL    HW154997   3.107  10.682   0.097
84388SOL    HW254998   3.207  10.625   0.195
84389SOL     OW54999   1.026   6.714   8.917
84389SOL    HW155000   0.976   6.713   8.836
84389SOL    HW255001   1.059   6.803   8.924
84390SOL     OW55002   9.899   6.786   4.000
84390SOL    HW155003   9.838   6.740   3.942
84390SOL    HW255004   9.984   6.744   3.983
84391SOL     OW55005   4.603   9.644  14.657
84391SOL    HW155006   4.625   9.599  14.576
84391SOL    HW255007   4.514   9.678  14.642
84392SOL     OW55008   7.379   6.915  13.820
84392SOL    HW155009   7.357   6.989  13.763
84392SOL    HW255010   7.467   6.889  13.792
84393SOL     OW55011  12.865  13.580   3.674
84393SOL    HW155012  12.941  13.527   3.699
84393SOL    HW255013  12.791  13.539   3.718
84394SOL     OW55014  13.647  14.099   1.867
84394SOL    HW155015  13.709  14.036   1.903
84394SOL    HW255016  13.680  14.118   1.779
84395SOL     OW55017   7.076   7.253   6.439
84395SOL    HW155018   7.113   7.339   6.461
84395SOL    HW255019   6.981   7.267   6.444
84396SOL     OW55020   6.352  12.541  12.566
84396SOL    HW155021   6.263  12.527  12.599
84396SOL    HW255022   6.345  12.620  12.512
84397SOL     OW55023   8.770   5.915   9.880
84397SOL    HW155024   8.697   5.902   9.942
84397SOL    HW255025   8.738   5.982   9.820
84398SOL     OW55026   4.779   5.547   9.351
84398SOL    HW155027   4.863   5.502   9.340
84398SOL    HW255028   4.789   5.630   9.305
84399SOL     OW55029  12.384   0.449   3.286
84399SOL    HW155030  12.333   0.488   3.357
84399SOL    HW255031  12.323   0.441   3.213
84400SOL     OW55032   9.799   0.151   2.648
84400SOL    HW155033   9.720   0.119   2.692
84400SOL    HW255034   9.768   0.219   2.589
84401SOL     OW55035   1.060  12.660   8.730
84401SOL    HW155036   0.985  12.608   8.760
84401SOL    HW255037   1.047  12.745   8.773
84402SOL     OW55038   4.525   8.188   6.462
84402SOL    HW155039   4.565   8.101   6.468
84402SOL    HW255040   4.548   8.231   6.545
84403SOL     OW55041   0.358   8.764  12.583
84403SOL    HW155042   0.376   8.854  12.554
84403SOL    HW255043   0.442   8.733  12.617
84404SOL     OW55044   6.506   1.537   5.521
84404SOL    HW155045   6.566   1.472   5.556
84404SOL    HW255046   6.448   1.557   5.595
84405SOL     OW55047   0.929  14.211  10.309
84405SOL    HW155048   0.987  14.136  10.323
84405SOL    HW255049   0.903  14.238  10.396
84406SOL     OW55050   5.205   9.374   9.765
84406SOL    HW155051   5.218   9.324   9.845
84406SOL    HW255052   5.158   9.314   9.707
84407SOL     OW55053   8.866  11.501  14.297
84407SOL    HW155054   8.953  11.541  14.306
84407SOL    HW255055   8.806  11.571  14.322
84408SOL     OW55056   7.446  10.862   6.830
84408SOL    HW155057   7.466  10.950   6.862
84408SOL    HW255058   7.467  10.804   6.903
84409SOL     OW55059  12.279   5.859  11.580
84409SOL    HW155060  12.254   5.767  11.590
84409SOL    HW255061  12.296   5.889  11.670
84410SOL     OW55062  13.540  10.543   6.505
84410SOL    HW155063  13.495  10.599   6.569
84410SOL    HW255064  13.562  10.603   6.433
84411SOL     OW55065   4.548   7.142   3.020
84411SOL    HW155066   4.568   7.067   2.964
84411SOL    HW255067   4.630   7.191   3.024
84412SOL     OW55068  10.540   3.270   8.810
84412SOL    HW155069  10.596   3.279   8.886
84412SOL    HW255070  10.566   3.342   8.752
84413SOL     OW55071   0.097   3.372  14.418
84413SOL    HW155072   0.051   3.429  14.480
84413SOL    HW255073   0.066   3.400  14.332
84414SOL     OW55074  11.791   8.314   3.350
84414SOL    HW155075  11.794   8.386   3.287
84414SOL    HW255076  11.882   8.300   3.375
84415SOL     OW55077   6.451  10.444   5.000
84415SOL    HW155078   6.357  10.456   4.984
84415SOL    HW255079   6.471  10.358   4.962
84416SOL     OW55080  13.017  10.631   4.539
84416SOL    HW155081  13.013  10.617   4.445
84416SOL    HW255082  13.110  10.643   4.557
84417SOL     OW55083  10.301   5.998   4.382
84417SOL    HW155084  10.219   5.948   4.378
84417SOL    HW255085  10.339   5.973   4.466
84418SOL     OW55086   9.775   4.444  13.815
84418SOL    HW155087   9.741   4.533  13.800
84418SOL    HW255088   9.854   4.440  13.761
84419SOL     OW55089   2.917  12.349  13.898
84419SOL    HW155090   2.895  12.281  13.835
84419SOL    HW255091   3.010  12.366  13.883
84420SOL     OW55092   8.896   8.150  11.006
84420SOL    HW155093   8.918   8.057  11.017
84420SOL    HW255094   8.825   8.166  11.067
84421SOL     OW55095  14.834   6.207   0.364
84421SOL    HW155096   0.033   6.261   0.375
84421SOL    HW255097  14.866   6.117   0.378
84422SOL     OW55098   5.593   9.130  12.240
84422SOL    HW155099   5.623   9.188  12.170
84422SOL    HW255100   5.501   9.115  12.221
84423SOL     OW55101   9.247   4.881  14.218
84423SOL    HW155102   9.319   4.876  14.282
84423SOL    HW255103   9.251   4.970  14.185
84424SOL     OW55104  13.965   3.742   4.126
84424SOL    HW155105  14.052   3.746   4.086
84424SOL    HW255106  13.904   3.745   4.051
84425SOL     OW55107   1.264  11.878   9.377
84425SOL    HW155108   1.227  11.791   9.363
84425SOL    HW255109   1.223  11.910   9.457
84426SOL     OW55110   0.293   0.425   2.708
84426SOL    HW155111   0.361   0.447   2.644
84426SOL    HW255112   0.234   0.500   2.708
84427SOL     OW55113   6.138   2.176   9.841
84427SOL    HW155114   6.076   2.107   9.820
84427SOL    HW255115   6.198   2.179   9.766
84428SOL     OW55116   1.389   0.452  11.029
84428SOL    HW155117   1.440   0.530  11.052
84428SOL    HW255118   1.451   0.380  11.035
84429SOL     OW55119   6.280   6.187  11.436
84429SOL    HW155120   6.184   6.190  11.439
84429SOL    HW255121   6.299   6.096  11.411
84430SOL     OW55122   6.888   7.412  11.456
84430SOL    HW155123   6.869   7.504  11.476
84430SOL    HW255124   6.971   7.395  11.502
84431SOL     OW55125   2.137   0.807   8.667
84431SOL    HW155126   2.168   0.754   8.741
84431SOL    HW255127   2.169   0.895   8.686
84432SOL     OW55128   2.946   2.803  10.046
84432SOL    HW155129   2.876   2.808  10.112
84432SOL    HW255130   2.975   2.712  10.049
84433SOL     OW55131   5.592  11.091   5.265
84433SOL    HW155132   5.519  11.044   5.305
84433SOL    HW255133   5.588  11.178   5.303
84434SOL     OW55134  14.083   7.953   8.883
84434SOL    HW155135  14.114   7.876   8.931
84434SOL    HW255136  13.994   7.929   8.856
84435SOL     OW55137   0.811  12.931  13.178
84435SOL    HW155138   0.903  12.919  13.154
84435SOL    HW255139   0.801  12.885  13.261
84436SOL     OW55140   9.891  12.587  14.797
84436SOL    HW155141   9.831  12.662  14.800
84436SOL    HW255142   9.835  12.511  14.784
84437SOL     OW55143   9.635  14.509   0.578
84437SOL    HW155144   9.614  14.482   0.489
84437SOL    HW255145   9.650  14.428   0.626
84438SOL     OW55146   9.877  11.293  14.815
84438SOL    HW155147   9.969  11.274  14.836
84438SOL    HW255148   9.858  11.240  14.738
84439SOL     OW55149  12.929  10.009   6.463
84439SOL    HW155150  12.996  10.067   6.426
84439SOL    HW255151  12.855  10.066   6.481
84440SOL     OW55152  12.059   5.229  13.050
84440SOL    HW155153  12.115   5.306  13.057
84440SOL    HW255154  11.970   5.262  13.060
84441SOL     OW55155   7.008  11.817   9.980
84441SOL    HW155156   7.094  11.851  10.007
84441SOL    HW255157   6.988  11.865   9.900
84442SOL     OW55158   8.035   3.984   9.659
84442SOL    HW155159   8.058   4.003   9.568
84442SOL    HW255160   7.954   4.033   9.673
84443SOL     OW55161  12.752   2.907   5.153
84443SOL    HW155162  12.661   2.885   5.132
84443SOL    HW255163  12.761   2.999   5.128
84444SOL     OW55164   7.321  14.584  14.720
84444SOL    HW155165   7.230  14.592  14.749
84444SOL    HW255166   7.326  14.638  14.640
84445SOL     OW55167   2.260  14.198   5.129
84445SOL    HW155168   2.319  14.137   5.084
84445SOL    HW255169   2.209  14.143   5.189
84446SOL     OW55170   1.287   1.841   6.925
84446SOL    HW155171   1.352   1.863   6.991
84446SOL    HW255172   1.226   1.782   6.969
84447SOL     OW55173  13.077   8.433  14.101
84447SOL    HW155174  13.009   8.433  14.034
84447SOL    HW255175  13.051   8.365  14.162
84448SOL     OW55176  11.585   5.538   7.364
84448SOL    HW155177  11.523   5.538   7.291
84448SOL    HW255178  11.616   5.629   7.369
84449SOL     OW55179  10.328  11.925   9.442
84449SOL    HW155180  10.404  11.900   9.494
84449SOL    HW255181  10.280  11.986   9.497
84450SOL     OW55182   8.896  13.102   9.980
84450SOL    HW155183   8.894  13.148  10.064
84450SOL    HW255184   8.867  13.013  10.000
84451SOL     OW55185   0.123  13.753   0.409
84451SOL    HW155186   0.092  13.794   0.328
84451SOL    HW255187   0.172  13.822   0.454
84452SOL     OW55188  14.216  14.095   9.533
84452SOL    HW155189  14.155  14.061   9.467
84452SOL    HW255190  14.228  14.023   9.594
84453SOL     OW55191   7.350   8.788   4.465
84453SOL    HW155192   7.308   8.810   4.548
84453SOL    HW255193   7.443   8.808   4.480
84454SOL     OW55194  10.214   8.867   4.270
84454SOL    HW155195  10.294   8.815   4.267
84454SOL    HW255196  10.179   8.862   4.182
84455SOL     OW55197   5.468   6.220   9.655
84455SOL    HW155198   5.448   6.260   9.740
84455SOL    HW255199   5.510   6.137   9.676
84456SOL     OW55200   1.869   6.759   0.081
84456SOL    HW155201   1.783   6.801   0.085
84456SOL    HW255202   1.875   6.709   0.162
84457SOL     OW55203   7.333   3.309   4.475
84457SOL    HW155204   7.293   3.354   4.400
84457SOL    HW255205   7.320   3.216   4.457
84458SOL     OW55206   9.177  13.962   6.298
84458SOL    HW155207   9.187  14.011   6.216
84458SOL    HW255208   9.187  13.870   6.271
84459SOL     OW55209   1.925  14.003   1.461
84459SOL    HW155210   1.875  14.070   1.508
84459SOL    HW255211   2.005  14.048   1.433
84460SOL     OW55212   2.765   3.058  14.518
84460SOL    HW155213   2.784   2.995  14.448
84460SOL    HW255214   2.721   3.005  14.585
84461SOL     OW55215   5.187   0.092  12.064
84461SOL    HW155216   5.205   0.001  12.088
84461SOL    HW255217   5.147   0.087  11.977
84462SOL     OW55218   4.498   6.673   4.402
84462SOL    HW155219   4.529   6.718   4.323
84462SOL    HW255220   4.491   6.743   4.467
84463SOL     OW55221   2.691   9.886   6.861
84463SOL    HW155222   2.654   9.811   6.813
84463SOL    HW255223   2.638   9.960   6.832
84464SOL     OW55224   5.429   7.004   6.443
84464SOL    HW155225   5.437   6.979   6.351
84464SOL    HW255226   5.344   6.971   6.470
84465SOL     OW55227   7.878   9.415   8.837
84465SOL    HW155228   7.835   9.476   8.897
84465SOL    HW255229   7.814   9.401   8.767
84466SOL     OW55230  11.330   7.017  13.107
84466SOL    HW155231  11.349   7.019  13.200
84466SOL    HW255232  11.394   7.078  13.068
84467SOL     OW55233   3.421   1.632   0.739
84467SOL    HW155234   3.388   1.542   0.735
84467SOL    HW255235   3.422   1.661   0.647
84468SOL     OW55236  13.366   6.306   9.739
84468SOL    HW155237  13.352   6.225   9.690
84468SOL    HW255238  13.460   6.323   9.730
84469SOL     OW55239   6.974  10.989   9.179
84469SOL    HW155240   7.065  11.017   9.178
84469SOL    HW255241   6.927  11.057   9.228
84470SOL     OW55242   5.374   4.458   4.997
84470SOL    HW155243   5.385   4.441   4.903
84470SOL    HW255244   5.352   4.550   5.003
84471SOL     OW55245  13.723  10.123  14.053
84471SOL    HW155246  13.696  10.032  14.067
84471SOL    HW255247  13.708  10.165  14.138
84472SOL     OW55248   2.072  11.929   9.093
84472SOL    HW155249   2.111  11.885   9.169
84472SOL    HW255250   1.999  11.980   9.130
84473SOL     OW55251   9.997  11.641   8.769
84473SOL    HW155252  10.085  11.637   8.807
84473SOL    HW255253   9.952  11.564   8.803
84474SOL     OW55254   9.071   5.646  10.692
84474SOL    HW155255   9.002   5.675  10.633
84474SOL    HW255256   9.137   5.715  10.687
84475SOL     OW55257   6.739   5.741   8.207
84475SOL    HW155258   6.678   5.687   8.157
84475SOL    HW255259   6.757   5.816   8.150
84476SOL     OW55260   0.398   0.372   9.281
84476SOL    HW155261   0.462   0.321   9.331
84476SOL    HW255262   0.447   0.408   9.208
84477SOL     OW55263   7.799   9.225  14.200
84477SOL    HW155264   7.708   9.235  14.227
84477SOL    HW255265   7.843   9.193  14.279
84478SOL     OW55266   7.777   8.861  14.284
84478SOL    HW155267   7.847   8.796  14.283
84478SOL    HW255268   7.817   8.940  14.319
84479SOL     OW55269   2.098   7.447  14.568
84479SOL    HW155270   2.026   7.414  14.513
84479SOL    HW255271   2.058   7.468  14.652
84480SOL     OW55272   2.265  12.439   5.957
84480SOL    HW155273   2.299  12.361   5.913
84480SOL    HW255274   2.296  12.431   6.047
84481SOL     OW55275   9.084   5.500   2.139
84481SOL    HW155276   9.155   5.438   2.147
84481SOL    HW255277   9.116   5.580   2.182
84482SOL     OW55278  13.484   3.159   8.223
84482SOL    HW155279  13.521   3.227   8.279
84482SOL    HW255280  13.494   3.078   8.273
84483SOL     OW55281   7.283  13.383   0.695
84483SOL    HW155282   7.218  13.452   0.709
84483SOL    HW255283   7.295  13.380   0.600
84484SOL     OW55284   8.268  12.579   1.364
84484SOL    HW155285   8.296  12.490   1.388
84484SOL    HW255286   8.286  12.586   1.271
84485SOL     OW55287   2.184  10.954  10.610
84485SOL    HW155288   2.207  10.872  10.567
84485SOL    HW255289   2.246  10.961  10.683
84486SOL     OW55290  11.790  13.644   7.979
84486SOL    HW155291  11.710  13.610   8.020
84486SOL    HW255292  11.848  13.568   7.973
84487SOL     OW55293   9.419   4.508  10.942
84487SOL    HW155294   9.352   4.452  10.904
84487SOL    HW255295   9.390   4.597  10.920
84488SOL     OW55296   6.615   6.073   5.469
84488SOL    HW155297   6.531   6.055   5.426
84488SOL    HW255298   6.656   5.987   5.480
84489SOL     OW55299   8.935  10.234   8.942
84489SOL    HW155300   8.988  10.307   8.974
84489SOL    HW255301   8.907  10.188   9.021
84490SOL     OW55302  14.580   7.623   9.307
84490SOL    HW155303  14.658   7.614   9.251
84490SOL    HW255304  14.602   7.576   9.387
84491SOL     OW55305   0.954   5.490   8.535
84491SOL    HW155306   0.953   5.583   8.513
84491SOL    HW255307   1.002   5.485   8.618
84492SOL     OW55308   9.614   6.716  14.609
84492SOL    HW155309   9.645   6.630  14.579
84492SOL    HW255310   9.533   6.731  14.560
84493SOL     OW55311   7.155   8.692  10.494
84493SOL    HW155312   7.199   8.607  10.502
84493SOL    HW255313   7.224   8.756  10.508
84494SOL     OW55314  12.491  14.830   3.506
84494SOL    HW155315  12.539   0.033   3.489
84494SOL    HW255316  12.405  14.859   3.536
84495SOL     OW55317   2.976  13.578  13.537
84495SOL    HW155318   3.005  13.502  13.588
84495SOL    HW255319   3.024  13.652  13.575
84496SOL     OW55320  11.521   5.669   2.802
84496SOL    HW155321  11.592   5.667   2.865
84496SOL    HW255322  11.442   5.685   2.854
84497SOL     OW55323   8.046   6.036   3.774
84497SOL    HW155324   8.136   6.041   3.741
84497SOL    HW255325   8.028   6.124   3.808
84498SOL     OW55326   2.368   2.203   7.327
84498SOL    HW155327   2.289   2.247   7.356
84498SOL    HW255328   2.364   2.116   7.369
84499SOL     OW55329  14.045  12.680   5.629
84499SOL    HW155330  14.091  12.655   5.549
84499SOL    HW255331  13.958  12.707   5.600
84500SOL     OW55332   7.152  12.054  14.215
84500SOL    HW155333   7.114  11.988  14.272
84500SOL    HW255334   7.160  12.011  14.130
84501SOL     OW55335   8.938   8.884  14.615
84501SOL    HW155336   8.914   8.800  14.653
84501SOL    HW255337   8.870   8.902  14.551
84502SOL     OW55338   4.680   8.707  14.191
84502SOL    HW155339   4.657   8.691  14.282
84502SOL    HW255340   4.681   8.620  14.151
84503SOL     OW55341   7.996   8.696   0.103
84503SOL    HW155342   7.966   8.705   0.193
84503SOL    HW255343   7.947   8.762   0.054
84504SOL     OW55344   8.463  13.469   1.871
84504SOL    HW155345   8.405  13.537   1.903
84504SOL    HW255346   8.534  13.465   1.935
84505SOL     OW55347   7.750  13.203   4.274
84505SOL    HW155348   7.660  13.215   4.303
84505SOL    HW255349   7.743  13.162   4.188
84506SOL     OW55350   0.821   8.655   1.401
84506SOL    HW155351   0.872   8.703   1.466
84506SOL    HW255352   0.871   8.575   1.385
84507SOL     OW55353   3.818   1.130  12.319
84507SOL    HW155354   3.764   1.170  12.251
84507SOL    HW255355   3.762   1.063  12.358
84508SOL     OW55356   2.299   3.103   3.810
84508SOL    HW155357   2.364   3.081   3.744
84508SOL    HW255358   2.219   3.118   3.761
84509SOL     OW55359   3.917   1.503   7.425
84509SOL    HW155360   3.864   1.552   7.488
84509SOL    HW255361   3.893   1.540   7.340
84510SOL     OW55362   4.623   3.619   1.208
84510SOL    HW155363   4.590   3.594   1.122
84510SOL    HW255364   4.551   3.665   1.249
84511SOL     OW55365  12.248   9.717   7.688
84511SOL    HW155366  12.322   9.731   7.748
84511SOL    HW255367  12.198   9.799   7.693
84512SOL     OW55368   2.820  13.448   9.405
84512SOL    HW155369   2.883  13.495   9.350
84512SOL    HW255370   2.807  13.505   9.480
84513SOL     OW55371   7.983   1.042   7.583
84513SOL    HW155372   7.964   0.996   7.665
84513SOL    HW255373   8.011   0.973   7.523
84514SOL     OW55374  10.675   6.594   5.568
84514SOL    HW155375  10.643   6.654   5.635
84514SOL    HW255376  10.622   6.515   5.580
84515SOL     OW55377  14.111   1.949  14.616
84515SOL    HW155378  14.162   1.870  14.603
84515SOL    HW255379  14.123   2.000  14.536
84516SOL     OW55380   6.192   6.695  14.724
84516SOL    HW155381   6.139   6.616  14.733
84516SOL    HW255382   6.170   6.748  14.801
84517SOL     OW55383   8.941  13.499   3.252
84517SOL    HW155384   8.952  13.591   3.274
84517SOL    HW255385   8.964  13.494   3.159
84518SOL     OW55386  13.987   8.626   9.654
84518SOL    HW155387  14.018   8.717   9.648
84518SOL    HW255388  13.921   8.619   9.585
84519SOL     OW55389  12.199   4.171   1.806
84519SOL    HW155390  12.219   4.245   1.865
84519SOL    HW255391  12.218   4.093   1.859
84520SOL     OW55392   9.417   1.286   7.734
84520SOL    HW155393   9.427   1.196   7.705
84520SOL    HW255394   9.466   1.338   7.671
84521SOL     OW55395  10.253  11.456   1.897
84521SOL    HW155396  10.281  11.547   1.894
84521SOL    HW255397  10.252  11.433   1.990
84522SOL     OW55398  11.219   2.335   7.091
84522SOL    HW155399  11.287   2.387   7.135
84522SOL    HW255400  11.248   2.244   7.104
84523SOL     OW55401   9.672  12.587  14.076
84523SOL    HW155402   9.654  12.574  13.983
84523SOL    HW255403   9.754  12.540  14.091
84524SOL     OW55404   7.727   4.046   5.057
84524SOL    HW155405   7.716   4.023   5.150
84524SOL    HW255406   7.713   4.141   5.055
84525SOL     OW55407  10.923  13.421   8.779
84525SOL    HW155408  10.889  13.347   8.830
84525SOL    HW255409  10.985  13.381   8.718
84526SOL     OW55410  12.226   9.074   1.743
84526SOL    HW155411  12.229   9.143   1.676
84526SOL    HW255412  12.206   9.121   1.824
84527SOL     OW55413   4.850   8.428   0.117
84527SOL    HW155414   4.943   8.438   0.096
84527SOL    HW255415   4.820   8.518   0.134
84528SOL     OW55416  12.034   9.202   6.344
84528SOL    HW155417  12.051   9.175   6.254
84528SOL    HW255418  11.972   9.275   6.336
84529SOL     OW55419   0.838  11.055  12.571
84529SOL    HW155420   0.881  10.992  12.514
84529SOL    HW255421   0.803  11.122  12.512
84530SOL     OW55422   3.928   7.957   0.814
84530SOL    HW155423   3.968   8.042   0.797
84530SOL    HW255424   3.892   7.964   0.902
84531SOL     OW55425   4.388   2.922   6.378
84531SOL    HW155426   4.464   2.923   6.436
84531SOL    HW255427   4.421   2.891   6.294
84532SOL     OW55428   9.345   8.515  12.457
84532SOL    HW155429   9.358   8.512  12.552
84532SOL    HW255430   9.251   8.503  12.445
84533SOL     OW55431   4.632  12.218   5.680
84533SOL    HW155432   4.676  12.221   5.595
84533SOL    HW255433   4.551  12.267   5.666
84534SOL     OW55434   8.575  14.708   0.942
84534SOL    HW155435   8.481  14.714   0.926
84534SOL    HW255436   8.594  14.780   1.002
84535SOL     OW55437   0.108   5.258   4.961
84535SOL    HW155438   0.188   5.290   4.918
84535SOL    HW255439   0.064   5.206   4.893
84536SOL     OW55440   6.829   6.017   6.371
84536SOL    HW155441   6.887   6.092   6.383
84536SOL    HW255442   6.837   5.995   6.279
84537SOL     OW55443   2.989   0.913  11.842
84537SOL    HW155444   2.959   0.897  11.753
84537SOL    HW255445   3.042   0.993  11.836
84538SOL     OW55446   6.888   1.637  13.325
84538SOL    HW155447   6.868   1.674  13.411
84538SOL    HW255448   6.976   1.669  13.305
84539SOL     OW55449   7.140   4.281  11.154
84539SOL    HW155450   7.177   4.320  11.075
84539SOL    HW255451   7.193   4.316  11.226
84540SOL     OW55452  11.798   7.983  14.293
84540SOL    HW155453  11.764   7.974  14.382
84540SOL    HW255454  11.756   7.912  14.244
84541SOL     OW55455  10.180   5.690   6.218
84541SOL    HW155456  10.264   5.713   6.177
84541SOL    HW255457  10.115   5.738   6.167
84542SOL     OW55458   4.479   0.384   0.964
84542SOL    HW155459   4.500   0.353   1.052
84542SOL    HW255460   4.469   0.479   0.974
84543SOL     OW55461  14.323   2.960   9.490
84543SOL    HW155462  14.363   3.021   9.427
84543SOL    HW255463  14.326   3.007   9.573
84544SOL     OW55464   0.820   8.381   0.080
84544SOL    HW155465   0.736   8.380   0.125
84544SOL    HW255466   0.872   8.315   0.126
84545SOL     OW55467   1.922  13.078  12.183
84545SOL    HW155468   1.898  13.071  12.275
84545SOL    HW255469   1.876  13.156  12.151
84546SOL     OW55470  10.935  11.386  11.766
84546SOL    HW155471  10.874  11.455  11.792
84546SOL    HW255472  10.993  11.426  11.703
84547SOL     OW55473   2.519   3.536   0.723
84547SOL    HW155474   2.454   3.467   0.709
84547SOL    HW255475   2.552   3.519   0.811
84548SOL     OW55476   5.919   3.774   1.419
84548SOL    HW155477   5.987   3.723   1.463
84548SOL    HW255478   5.955   3.862   1.415
84549SOL     OW55479  12.733   4.492   3.287
84549SOL    HW155480  12.741   4.445   3.204
84549SOL    HW255481  12.672   4.563   3.268
84550SOL     OW55482   9.014  14.680  10.163
84550SOL    HW155483   9.084  14.623  10.130
84550SOL    HW255484   9.059  14.757  10.197
84551SOL     OW55485   8.434   6.751   1.463
84551SOL    HW155486   8.469   6.793   1.384
84551SOL    HW255487   8.375   6.817   1.500
84552SOL     OW55488   1.965  13.983   7.904
84552SOL    HW155489   1.969  14.013   7.813
84552SOL    HW255490   2.048  14.010   7.942
84553SOL     OW55491   7.466   8.007   3.434
84553SOL    HW155492   7.372   8.006   3.451
84553SOL    HW255493   7.476   7.961   3.350
84554SOL     OW55494  12.905   9.308   2.085
84554SOL    HW155495  12.994   9.280   2.065
84554SOL    HW255496  12.911   9.352   2.169
84555SOL     OW55497   3.439  10.460  11.492
84555SOL    HW155498   3.435  10.450  11.587
84555SOL    HW255499   3.531  10.442  11.471
84556SOL     OW55500  12.818   0.845   2.738
84556SOL    HW155501  12.884   0.847   2.669
84556SOL    HW255502  12.783   0.933   2.741
84557SOL     OW55503   6.426   1.970  13.485
84557SOL    HW155504   6.354   1.983  13.423
84557SOL    HW255505   6.502   1.951  13.430
84558SOL     OW55506   0.762   9.115   6.126
84558SOL    HW155507   0.791   9.124   6.035
84558SOL    HW255508   0.708   9.192   6.141
84559SOL     OW55509   5.418  13.369   1.860
84559SOL    HW155510   5.327  13.383   1.833
84559SOL    HW255511   5.469  13.419   1.796
84560SOL     OW55512   5.370  12.260   6.688
84560SOL    HW155513   5.448  12.273   6.743
84560SOL    HW255514   5.355  12.165   6.689
84561SOL     OW55515   5.837   3.959   9.250
84561SOL    HW155516   5.830   3.936   9.157
84561SOL    HW255517   5.829   4.054   9.252
84562SOL     OW55518   7.799  13.630  13.391
84562SOL    HW155519   7.782  13.537  13.375
84562SOL    HW255520   7.741  13.676  13.331
84563SOL     OW55521   6.186   8.978  12.497
84563SOL    HW155522   6.112   8.991  12.556
84563SOL    HW255523   6.255   8.943  12.553
84564SOL     OW55524   0.577   5.228   5.968
84564SOL    HW155525   0.646   5.242   5.903
84564SOL    HW255526   0.504   5.283   5.939
84565SOL     OW55527   7.718  11.122   4.120
84565SOL    HW155528   7.811  11.100   4.128
84565SOL    HW255529   7.673  11.049   4.162
84566SOL     OW55530   0.011   1.018   8.256
84566SOL    HW155531   0.057   1.068   8.323
84566SOL    HW255532  14.819   0.974   8.303
84567SOL     OW55533  12.463   7.182   6.709
84567SOL    HW155534  12.531   7.233   6.664
84567SOL    HW255535  12.412   7.248   6.756
84568SOL     OW55536   5.155  12.577   1.027
84568SOL    HW155537   5.240  12.535   1.043
84568SOL    HW255538   5.109  12.516   0.970
84569SOL     OW55539   2.169  10.570   3.470
84569SOL    HW155540   2.179  10.512   3.545
84569SOL    HW255541   2.252  10.563   3.423
84570SOL     OW55542   0.836   0.733   1.983
84570SOL    HW155543   0.821   0.793   2.056
84570SOL    HW255544   0.819   0.787   1.905
84571SOL     OW55545  11.396   5.508   7.169
84571SOL    HW155546  11.441   5.461   7.098
84571SOL    HW255547  11.304   5.509   7.144
84572SOL     OW55548   5.959  10.910  10.792
84572SOL    HW155549   5.877  10.906  10.840
84572SOL    HW255550   5.940  10.867  10.709
84573SOL     OW55551  13.351   9.646   5.333
84573SOL    HW155552  13.381   9.598   5.256
84573SOL    HW255553  13.300   9.719   5.297
84574SOL     OW55554   3.581   0.020   3.668
84574SOL    HW155555   3.527   0.099   3.674
84574SOL    HW255556   3.531  14.841   3.611
84575SOL     OW55557   9.649  10.250   2.933
84575SOL    HW155558   9.660  10.310   2.859
84575SOL    HW255559   9.576  10.287   2.982
84576SOL     OW55560  14.521   7.378   0.871
84576SOL    HW155561  14.433   7.379   0.834
84576SOL    HW255562  14.579   7.386   0.795
84577SOL     OW55563  11.047  10.558  12.415
84577SOL    HW155564  11.086  10.476  12.447
84577SOL    HW255565  10.964  10.530  12.376
84578SOL     OW55566   5.593   4.388   3.460
84578SOL    HW155567   5.566   4.467   3.507
84578SOL    HW255568   5.591   4.319   3.527
84579SOL     OW55569   0.577  14.008   1.388
84579SOL    HW155570   0.601  14.096   1.357
84579SOL    HW255571   0.595  14.010   1.482
84580SOL     OW55572  10.269  12.859  10.376
84580SOL    HW155573  10.337  12.858  10.309
84580SOL    HW255574  10.252  12.766  10.395
84581SOL     OW55575   1.226   2.589   4.166
84581SOL    HW155576   1.282   2.593   4.244
84581SOL    HW255577   1.146   2.547   4.197
84582SOL     OW55578   5.213  11.595  11.250
84582SOL    HW155579   5.304  11.616  11.226
84582SOL    HW255580   5.221  11.528  11.317
84583SOL     OW55581   1.741  12.426  12.249
84583SOL    HW155582   1.729  12.506  12.199
84583SOL    HW255583   1.828  12.394  12.223
84584SOL     OW55584   0.313   4.025  14.049
84584SOL    HW155585   0.231   4.011  14.002
84584SOL    HW255586   0.323   3.947  14.104
84585SOL     OW55587   4.190   3.620  10.228
84585SOL    HW155588   4.218   3.676  10.155
84585SOL    HW255589   4.124   3.671  10.274
84586SOL     OW55590  13.827  11.250  13.109
84586SOL    HW155591  13.762  11.204  13.056
84586SOL    HW255592  13.796  11.241  13.199
84587SOL     OW55593   5.172  10.978   5.218
84587SOL    HW155594   5.163  11.073   5.223
84587SOL    HW255595   5.082  10.945   5.229
84588SOL     OW55596  13.837  11.662   5.502
84588SOL    HW155597  13.923  11.693   5.474
84588SOL    HW255598  13.813  11.596   5.438
84589SOL     OW55599   4.716   3.629   4.261
84589SOL    HW155600   4.724   3.617   4.356
84589SOL    HW255601   4.803   3.657   4.233
84590SOL     OW55602   1.917  10.429   2.092
84590SOL    HW155603   1.845  10.487   2.116
84590SOL    HW255604   1.948  10.462   2.009
84591SOL     OW55605   3.213   1.236   7.770
84591SOL    HW155606   3.129   1.282   7.776
84591SOL    HW255607   3.221   1.190   7.853
84592SOL     OW55608  10.719   7.539   3.017
84592SOL    HW155609  10.796   7.562   3.069
84592SOL    HW255610  10.645   7.566   3.071
84593SOL     OW55611  14.450   1.823  12.702
84593SOL    HW155612  14.400   1.903  12.680
84593SOL    HW255613  14.531   1.831  12.651
84594SOL     OW55614   1.311   4.725   9.575
84594SOL    HW155615   1.231   4.741   9.526
84594SOL    HW255616   1.362   4.665   9.520
84595SOL     OW55617   1.499   9.105  13.065
84595SOL    HW155618   1.503   9.079  13.157
84595SOL    HW255619   1.494   9.201  13.068
84596SOL     OW55620  12.554  10.287  12.954
84596SOL    HW155621  12.523  10.284  13.045
84596SOL    HW255622  12.527  10.203  12.917
84597SOL     OW55623   1.258   3.498   1.272
84597SOL    HW155624   1.319   3.545   1.329
84597SOL    HW255625   1.288   3.517   1.183
84598SOL     OW55626  12.328   2.799  14.505
84598SOL    HW155627  12.417   2.812  14.536
84598SOL    HW255628  12.330   2.826  14.413
84599SOL     OW55629   7.471   9.387  11.371
84599SOL    HW155630   7.474   9.436  11.289
84599SOL    HW255631   7.516   9.443  11.434
84600SOL     OW55632   0.588  11.441   9.920
84600SOL    HW155633   0.634  11.521   9.948
84600SOL    HW255634   0.497  11.469   9.907
84601SOL     OW55635  12.721   6.894  11.772
84601SOL    HW155636  12.781   6.960  11.806
84601SOL    HW255637  12.774   6.843  11.711
84602SOL     OW55638  13.594   9.524   3.529
84602SOL    HW155639  13.635   9.463   3.468
84602SOL    HW255640  13.525   9.567   3.478
84603SOL     OW55641  13.042   3.811  14.273
84603SOL    HW155642  13.015   3.856  14.352
84603SOL    HW255643  13.121   3.857  14.244
84604SOL     OW55644   7.686   1.080   6.573
84604SOL    HW155645   7.736   1.013   6.618
84604SOL    HW255646   7.751   1.135   6.529
84605SOL     OW55647   8.903   4.816   8.054
84605SOL    HW155648   8.814   4.781   8.059
84605SOL    HW255649   8.892   4.911   8.059
84606SOL     OW55650   6.561  13.096   1.799
84606SOL    HW155651   6.623  13.127   1.864
84606SOL    HW255652   6.607  13.025   1.753
84607SOL     OW55653  12.105   7.123   6.840
84607SOL    HW155654  12.066   7.179   6.908
84607SOL    HW255655  12.067   7.155   6.758
84608SOL     OW55656   4.948   6.983   4.139
84608SOL    HW155657   4.964   7.055   4.079
84608SOL    HW255658   4.986   6.907   4.095
84609SOL     OW55659   2.985   9.200   8.639
84609SOL    HW155660   2.986   9.112   8.601
84609SOL    HW255661   2.892   9.218   8.654
84610SOL     OW55662   1.514   9.334  13.683
84610SOL    HW155663   1.451   9.316  13.612
84610SOL    HW255664   1.529   9.428  13.678
84611SOL     OW55665   4.523   9.870  10.305
84611SOL    HW155666   4.490   9.953  10.339
84611SOL    HW255667   4.444   9.823  10.276
84612SOL     OW55668   4.803   7.601  11.615
84612SOL    HW155669   4.836   7.528  11.562
84612SOL    HW255670   4.727   7.565  11.661
84613SOL     OW55671   8.048  12.092   3.952
84613SOL    HW155672   8.047  12.169   3.895
84613SOL    HW255673   8.104  12.029   3.907
84614SOL     OW55674  14.236   8.365   3.825
84614SOL    HW155675  14.331   8.365   3.808
84614SOL    HW255676  14.229   8.363   3.921
84615SOL     OW55677   9.085  14.299   7.929
84615SOL    HW155678   9.030  14.377   7.933
84615SOL    HW255679   9.071  14.264   7.841
84616SOL     OW55680  14.257  11.683   6.952
84616SOL    HW155681  14.281  11.767   6.991
84616SOL    HW255682  14.232  11.629   7.028
84617SOL     OW55683  10.998  14.487   3.371
84617SOL    HW155684  11.033  14.565   3.327
84617SOL    HW255685  11.016  14.502   3.464
84618SOL     OW55686  12.111  11.601   6.967
84618SOL    HW155687  12.028  11.632   6.930
84618SOL    HW255688  12.112  11.634   7.056
84619SOL     OW55689   1.713  10.819   9.927
84619SOL    HW155690   1.617  10.829   9.924
84619SOL    HW255691   1.740  10.871  10.003
84620SOL     OW55692   8.048   5.407  10.041
84620SOL    HW155693   8.088   5.324  10.014
84620SOL    HW255694   8.040   5.400  10.136
84621SOL     OW55695  14.232  11.644  14.469
84621SOL    HW155696  14.209  11.552  14.455
84621SOL    HW255697  14.326  11.642  14.486
84622SOL     OW55698  14.798   5.015   0.535
84622SOL    HW155699  14.713   5.054   0.518
84622SOL    HW255700  14.853   5.043   0.462
84623SOL     OW55701   7.182   4.668   7.647
84623SOL    HW155702   7.191   4.688   7.554
84623SOL    HW255703   7.253   4.606   7.666
84624SOL     OW55704   9.645   7.642   2.393
84624SOL    HW155705   9.618   7.577   2.458
84624SOL    HW255706   9.563   7.682   2.363
84625SOL     OW55707   9.712   9.347   8.416
84625SOL    HW155708   9.777   9.405   8.456
84625SOL    HW255709   9.637   9.351   8.475
84626SOL     OW55710  11.918  14.086  10.440
84626SOL    HW155711  11.920  14.161  10.499
84626SOL    HW255712  11.908  14.010  10.498
84627SOL     OW55713   6.640   0.215  13.243
84627SOL    HW155714   6.592   0.288  13.205
84627SOL    HW255715   6.691   0.179  13.171
84628SOL     OW55716  12.404   7.322  13.274
84628SOL    HW155717  12.339   7.378  13.315
84628SOL    HW255718  12.488   7.357  13.304
84629SOL     OW55719   9.710   5.305   8.998
84629SOL    HW155720   9.681   5.243   8.931
84629SOL    HW255721   9.794   5.338   8.965
84630SOL     OW55722  14.672   8.784   6.210
84630SOL    HW155723  14.730   8.725   6.162
84630SOL    HW255724  14.731   8.839   6.262
84631SOL     OW55725  11.611   3.774  14.086
84631SOL    HW155726  11.684   3.809  14.035
84631SOL    HW255727  11.537   3.776  14.026
84632SOL     OW55728  10.329   4.960  13.223
84632SOL    HW155729  10.420   4.944  13.196
84632SOL    HW255730  10.337   5.006  13.306
84633SOL     OW55731  13.837  11.416  14.266
84633SOL    HW155732  13.774  11.481  14.296
84633SOL    HW255733  13.916  11.435  14.316
84634SOL     OW55734  12.920   2.621   0.493
84634SOL    HW155735  12.859   2.636   0.420
84634SOL    HW255736  12.906   2.696   0.551
84635SOL     OW55737   5.203   9.852  12.799
84635SOL    HW155738   5.171   9.773  12.755
84635SOL    HW255739   5.160   9.851  12.885
84636SOL     OW55740  14.554  14.849   5.207
84636SOL    HW155741  14.461  14.870   5.211
84636SOL    HW255742  14.583   0.002   5.121
84637SOL     OW55743   8.749   7.815  10.774
84637SOL    HW155744   8.793   7.732  10.756
84637SOL    HW255745   8.731   7.852  10.687
84638SOL     OW55746  14.418   6.077   2.171
84638SOL    HW155747  14.363   6.012   2.126
84638SOL    HW255748  14.425   6.150   2.109
84639SOL     OW55749   3.400   0.365   2.412
84639SOL    HW155750   3.382   0.405   2.326
84639SOL    HW255751   3.316   0.368   2.457
84640SOL     OW55752   4.735  13.328  14.620
84640SOL    HW155753   4.730  13.247  14.670
84640SOL    HW255754   4.825  13.358  14.632
84641SOL     OW55755  14.493  11.400  14.545
84641SOL    HW155756  14.533  11.487  14.548
84641SOL    HW255757  14.477  11.378  14.637
84642SOL     OW55758   2.609   0.559   7.471
84642SOL    HW155759   2.680   0.504   7.503
84642SOL    HW255760   2.571   0.510   7.398
84643SOL     OW55761   6.791   1.400   4.263
84643SOL    HW155762   6.719   1.337   4.269
84643SOL    HW255763   6.798   1.419   4.169
84644SOL     OW55764   5.755  11.975   5.901
84644SOL    HW155765   5.804  11.987   5.982
84644SOL    HW255766   5.709  11.892   5.913
84645SOL     OW55767   3.774  11.377   3.640
84645SOL    HW155768   3.861  11.410   3.616
84645SOL    HW255769   3.756  11.418   3.724
84646SOL     OW55770   5.518   5.887   2.928
84646SOL    HW155771   5.480   5.830   2.861
84646SOL    HW255772   5.497   5.976   2.898
84647SOL     OW55773  11.062   3.048  10.395
84647SOL    HW155774  11.122   3.068  10.323
84647SOL    HW255775  11.000   2.986  10.357
84648SOL     OW55776   5.546   1.537   1.352
84648SOL    HW155777   5.489   1.479   1.402
84648SOL    HW255778   5.622   1.551   1.408
84649SOL     OW55779  10.219   9.454  14.270
84649SOL    HW155780  10.278   9.470  14.344
84649SOL    HW255781  10.204   9.359  14.271
84650SOL     OW55782  13.610   2.039   8.181
84650SOL    HW155783  13.627   2.078   8.096
84650SOL    HW255784  13.582   2.112   8.236
84651SOL     OW55785  12.529   2.215   7.829
84651SOL    HW155786  12.585   2.154   7.877
84651SOL    HW255787  12.443   2.206   7.869
84652SOL     OW55788  12.765   4.808   5.860
84652SOL    HW155789  12.688   4.861   5.879
84652SOL    HW255790  12.782   4.824   5.767
84653SOL     OW55791   6.568   5.725   1.732
84653SOL    HW155792   6.501   5.767   1.785
84653SOL    HW255793   6.520   5.685   1.660
84654SOL     OW55794  11.252   1.936   2.597
84654SOL    HW155795  11.210   1.866   2.546
84654SOL    HW255796  11.312   1.890   2.656
84655SOL     OW55797   3.242   2.009  14.018
84655SOL    HW155798   3.337   2.009  14.013
84655SOL    HW255799   3.216   2.098  13.992
84656SOL     OW55800   6.312  14.731   8.030
84656SOL    HW155801   6.370  14.804   8.007
84656SOL    HW255802   6.248  14.729   7.959
84657SOL     OW55803   5.639  12.801  14.815
84657SOL    HW155804   5.670  12.712  14.794
84657SOL    HW255805   5.669  12.817   0.025
84658SOL     OW55806   0.214   5.836  12.897
84658SOL    HW155807   0.283   5.884  12.850
84658SOL    HW255808   0.137   5.844  12.841
84659SOL     OW55809   6.383  11.747  10.375
84659SOL    HW155810   6.419  11.659  10.363
84659SOL    HW255811   6.453  11.806  10.345
84660SOL     OW55812  14.448   0.202   1.536
84660SOL    HW155813  14.362   0.243   1.544
84660SOL    HW255814  14.433   0.110   1.556
84661SOL     OW55815  10.769  13.501   7.289
84661SOL    HW155816  10.824  13.571   7.324
84661SOL    HW255817  10.791  13.500   7.195
84662SOL     OW55818   4.894   6.052  11.174
84662SOL    HW155819   4.894   6.031  11.267
84662SOL    HW255820   4.852   5.977  11.132
84663SOL     OW55821   7.261  14.021   5.501
84663SOL    HW155822   7.252  14.094   5.563
84663SOL    HW255823   7.334  14.045   5.445
84664SOL     OW55824  10.184  12.701  13.527
84664SOL    HW155825  10.120  12.671  13.462
84664SOL    HW255826  10.210  12.788  13.496
84665SOL     OW55827   6.024   4.414  11.168
84665SOL    HW155828   5.947   4.368  11.202
84665SOL    HW255829   6.046   4.478  11.235
84666SOL     OW55830   0.351   0.969   6.615
84666SOL    HW155831   0.318   1.029   6.682
84666SOL    HW255832   0.379   0.892   6.663
84667SOL     OW55833   6.448   6.713   0.344
84667SOL    HW155834   6.367   6.712   0.396
84667SOL    HW255835   6.435   6.646   0.278
84668SOL     OW55836  11.849   2.110  13.884
84668SOL    HW155837  11.841   2.016  13.869
84668SOL    HW255838  11.894   2.142  13.806
84669SOL     OW55839   7.189   1.902   3.376
84669SOL    HW155840   7.280   1.897   3.405
84669SOL    HW255841   7.174   1.995   3.358
84670SOL     OW55842   6.661  11.300  11.051
84670SOL    HW155843   6.592  11.348  11.097
84670SOL    HW255844   6.695  11.362  10.987
84671SOL     OW55845  14.597  14.675   1.000
84671SOL    HW155846  14.542  14.753   0.989
84671SOL    HW255847  14.607  14.667   1.095
84672SOL     OW55848   8.087   2.193   1.464
84672SOL    HW155849   7.995   2.207   1.441
84672SOL    HW255850   8.115   2.276   1.503
84673SOL     OW55851   9.055  12.546   2.732
84673SOL    HW155852   9.103  12.621   2.695
84673SOL    HW255853   9.017  12.579   2.813
84674SOL     OW55854   2.406  14.865   0.834
84674SOL    HW155855   2.400  14.772   0.812
84674SOL    HW255856   2.405   0.031   0.750
84675SOL     OW55857   7.031   7.341   9.216
84675SOL    HW155858   6.976   7.389   9.278
84675SOL    HW255859   7.094   7.406   9.185
84676SOL     OW55860   0.757   3.212   4.577
84676SOL    HW155861   0.813   3.187   4.651
84676SOL    HW255862   0.708   3.133   4.556
84677SOL     OW55863   0.373   3.486   8.370
84677SOL    HW155864   0.317   3.414   8.343
84677SOL    HW255865   0.408   3.522   8.289
84678SOL     OW55866   8.770  10.925  10.290
84678SOL    HW155867   8.845  10.973  10.254
84678SOL    HW255868   8.696  10.951  10.235
84679SOL     OW55869   8.100   6.133   1.098
84679SOL    HW155870   8.152   6.146   1.176
84679SOL    HW255871   8.137   6.054   1.057
84680SOL     OW55872   5.570  11.722   6.448
84680SOL    HW155873   5.593  11.692   6.536
84680SOL    HW255874   5.480  11.753   6.456
84681SOL     OW55875   7.753  12.341   3.204
84681SOL    HW155876   7.806  12.331   3.125
84681SOL    HW255877   7.770  12.430   3.234
84682SOL     OW55878   5.805   9.254   0.712
84682SOL    HW155879   5.877   9.301   0.753
84682SOL    HW255880   5.789   9.179   0.769
84683SOL     OW55881   8.368   5.259   3.971
84683SOL    HW155882   8.282   5.263   3.928
84683SOL    HW255883   8.351   5.209   4.051
84684SOL     OW55884   0.380  11.976  14.217
84684SOL    HW155885   0.315  12.043  14.196
84684SOL    HW255886   0.405  11.940  14.132
84685SOL     OW55887   3.139   6.271   3.446
84685SOL    HW155888   3.152   6.248   3.354
84685SOL    HW255889   3.115   6.364   3.444
84686SOL     OW55890   6.355   9.852  12.779
84686SOL    HW155891   6.432   9.887  12.823
84686SOL    HW255892   6.350   9.901  12.697
84687SOL     OW55893  12.995   2.014  13.595
84687SOL    HW155894  13.037   2.020  13.509
84687SOL    HW255895  13.060   2.050  13.656
84688SOL     OW55896   1.041   0.072   2.877
84688SOL    HW155897   0.983   0.079   2.802
84688SOL    HW255898   0.996   0.119   2.947
84689SOL     OW55899   0.041   0.209   8.927
84689SOL    HW155900   0.123   0.223   8.973
84689SOL    HW255901   0.010   0.124   8.957
84690SOL     OW55902  11.937   0.248   9.139
84690SOL    HW155903  12.026   0.248   9.103
84690SOL    HW255904  11.927   0.161   9.176
84691SOL     OW55905  13.685   8.050   7.211
84691SOL    HW155906  13.620   7.985   7.235
84691SOL    HW255907  13.639   8.134   7.216
84692SOL     OW55908   9.682   7.620  11.352
84692SOL    HW155909   9.740   7.568  11.295
84692SOL    HW255910   9.731   7.628  11.434
84693SOL     OW55911   5.301   1.706  14.240
84693SOL    HW155912   5.390   1.705  14.203
84693SOL    HW255913   5.265   1.790  14.211
84694SOL     OW55914   1.767  12.460   8.056
84694SOL    HW155915   1.748  12.529   7.993
84694SOL    HW255916   1.862  12.451   8.054
84695SOL     OW55917   5.795   7.372  14.411
84695SOL    HW155918   5.726   7.411  14.357
84695SOL    HW255919   5.837   7.308  14.354
84696SOL     OW55920   4.654   4.490   1.133
84696SOL    HW155921   4.587   4.546   1.173
84696SOL    HW255922   4.641   4.500   1.039
84697SOL     OW55923   4.931   4.880   9.708
84697SOL    HW155924   4.968   4.955   9.663
84697SOL    HW255925   4.881   4.918   9.781
84698SOL     OW55926   6.717  14.699   9.970
84698SOL    HW155927   6.743  14.791   9.968
84698SOL    HW255928   6.737  14.670  10.059
84699SOL     OW55929   5.279   6.183  13.951
84699SOL    HW155930   5.277   6.275  13.922
84699SOL    HW255931   5.233   6.183  14.035
84700SOL     OW55932   0.978  14.529   1.761
84700SOL    HW155933   0.909  14.577   1.716
84700SOL    HW255934   0.973  14.440   1.725
84701SOL     OW55935   2.091   7.631   8.255
84701SOL    HW155936   2.051   7.610   8.170
84701SOL    HW255937   2.021   7.672   8.305
84702SOL     OW55938  11.023   4.119  11.372
84702SOL    HW155939  10.973   4.074  11.304
84702SOL    HW255940  11.023   4.211  11.346
84703SOL     OW55941  12.975   0.210  12.626
84703SOL    HW155942  13.049   0.204  12.687
84703SOL    HW255943  13.009   0.261  12.552
84704SOL     OW55944   2.672  12.211  12.151
84704SOL    HW155945   2.601  12.160  12.111
84704SOL    HW255946   2.699  12.273  12.084
84705SOL     OW55947   4.109   4.266   9.763
84705SOL    HW155948   4.170   4.200   9.729
84705SOL    HW255949   4.063   4.221   9.835
84706SOL     OW55950   5.636   5.672   1.351
84706SOL    HW155951   5.603   5.760   1.335
84706SOL    HW255952   5.726   5.685   1.381
84707SOL     OW55953   6.399   9.847  13.971
84707SOL    HW155954   6.489   9.817  13.971
84707SOL    HW255955   6.396   9.914  13.903
84708SOL     OW55956   6.958  11.505  11.286
84708SOL    HW155957   6.994  11.467  11.367
84708SOL    HW255958   7.010  11.465  11.216
84709SOL     OW55959  11.027  10.572   2.163
84709SOL    HW155960  11.103  10.523   2.130
84709SOL    HW255961  10.970  10.504   2.200
84710SOL     OW55962   3.960   2.748   7.471
84710SOL    HW155963   3.952   2.840   7.449
84710SOL    HW255964   4.010   2.747   7.553
84711SOL     OW55965   7.617   0.675   1.328
84711SOL    HW155966   7.708   0.678   1.298
84711SOL    HW255967   7.566   0.660   1.248
84712SOL     OW55968   7.919  13.550   3.307
84712SOL    HW155969   7.826  13.575   3.304
84712SOL    HW255970   7.922  13.474   3.366
84713SOL     OW55971  10.095  10.779   2.474
84713SOL    HW155972  10.168  10.823   2.516
84713SOL    HW255973  10.028  10.846   2.465
84714SOL     OW55974   9.151  11.567  14.243
84714SOL    HW155975   9.213  11.502  14.209
84714SOL    HW255976   9.200  11.613  14.311
84715SOL     OW55977   7.362  14.093  10.388
84715SOL    HW155978   7.349  14.152  10.314
84715SOL    HW255979   7.305  14.018  10.369
84716SOL     OW55980   8.092   7.170   6.917
84716SOL    HW155981   8.028   7.123   6.971
84716SOL    HW255982   8.043   7.199   6.840
84717SOL     OW55983   2.006   8.154   6.416
84717SOL    HW155984   1.961   8.192   6.340
84717SOL    HW255985   2.042   8.230   6.463
84718SOL     OW55986  14.486   1.767   3.417
84718SOL    HW155987  14.576   1.778   3.386
84718SOL    HW255988  14.432   1.806   3.347
84719SOL     OW55989   7.686   0.652   5.602
84719SOL    HW155990   7.688   0.601   5.683
84719SOL    HW255991   7.744   0.726   5.620
84720SOL     OW55992  10.331   3.192   9.479
84720SOL    HW155993  10.275   3.145   9.540
84720SOL    HW255994  10.380   3.124   9.433
84721SOL     OW55995   0.047  14.116   9.267
84721SOL    HW155996  14.867  14.091   9.196
84721SOL    HW255997   0.131  14.077   9.244
84722SOL     OW55998   2.379  13.021   5.239
84722SOL    HW155999   2.393  13.055   5.151
84722SOL    HW256000   2.465  12.990   5.266
84723SOL     OW56001   2.332   9.329   2.034
84723SOL    HW156002   2.346   9.316   1.940
84723SOL    HW256003   2.308   9.243   2.067
84724SOL     OW56004  10.690  12.526   3.329
84724SOL    HW156005  10.609  12.477   3.340
84724SOL    HW256006  10.734  12.483   3.256
84725SOL     OW56007   8.855   0.987   7.324
84725SOL    HW156008   8.887   0.897   7.315
84725SOL    HW256009   8.763   0.977   7.348
84726SOL     OW56010   7.709   2.974  13.040
84726SOL    HW156011   7.657   3.010  12.968
84726SOL    HW256012   7.722   3.047  13.100
84727SOL     OW56013  13.665   5.393   7.971
84727SOL    HW156014  13.622   5.428   7.893
84727SOL    HW256015  13.711   5.315   7.939
84728SOL     OW56016   9.837   3.943   9.478
84728SOL    HW156017   9.918   3.893   9.489
84728SOL    HW256018   9.785   3.921   9.555
84729SOL     OW56019  12.913  13.701  10.856
84729SOL    HW156020  12.935  13.793  10.842
84729SOL    HW256021  12.850  13.702  10.928
84730SOL     OW56022   2.880  11.409   1.200
84730SOL    HW156023   2.930  11.485   1.229
84730SOL    HW256024   2.796  11.416   1.244
84731SOL     OW56025   2.754   4.087   1.624
84731SOL    HW156026   2.722   4.164   1.671
84731SOL    HW256027   2.685   4.022   1.636
84732SOL     OW56028  12.265  14.292   6.994
84732SOL    HW156029  12.225  14.221   6.944
84732SOL    HW256030  12.194  14.355   7.006
84733SOL     OW56031   4.420   1.861   8.784
84733SOL    HW156032   4.432   1.866   8.879
84733SOL    HW256033   4.449   1.947   8.752
84734SOL     OW56034  10.665   6.886  10.485
84734SOL    HW156035  10.679   6.810  10.430
84734SOL    HW256036  10.584   6.926  10.452
84735SOL     OW56037  13.101  11.126   1.807
84735SOL    HW156038  13.112  11.208   1.854
84735SOL    HW256039  13.006  11.117   1.795
84736SOL     OW56040  12.579   0.002   4.418
84736SOL    HW156041  12.640  14.857   4.487
84736SOL    HW256042  12.628   0.061   4.361
84737SOL     OW56043   6.102   6.428  12.582
84737SOL    HW156044   6.182   6.378  12.602
84737SOL    HW256045   6.033   6.380  12.627
84738SOL     OW56046   3.837  12.337   5.530
84738SOL    HW156047   3.781  12.275   5.483
84738SOL    HW256048   3.926  12.310   5.510
84739SOL     OW56049  10.883   0.028   0.459
84739SOL    HW156050  10.792   0.058   0.461
84739SOL    HW256051  10.914   0.038   0.549
84740SOL     OW56052   5.246   0.913   7.828
84740SOL    HW156053   5.311   0.907   7.898
84740SOL    HW256054   5.207   0.826   7.824
84741SOL     OW56055   9.923   2.617  11.432
84741SOL    HW156056   9.992   2.555  11.453
84741SOL    HW256057   9.844   2.563  11.423
84742SOL     OW56058  12.811   8.880   3.136
84742SOL    HW156059  12.737   8.850   3.084
84742SOL    HW256060  12.839   8.802   3.184
84743SOL     OW56061   7.754  14.506  11.181
84743SOL    HW156062   7.788  14.594  11.170
84743SOL    HW256063   7.808  14.452  11.124
84744SOL     OW56064  10.369   3.767   5.646
84744SOL    HW156065  10.439   3.824   5.613
84744SOL    HW256066  10.413   3.685   5.667
84745SOL     OW56067   7.539  12.621   0.284
84745SOL    HW156068   7.585  12.546   0.247
84745SOL    HW256069   7.529  12.682   0.211
84746SOL     OW56070   7.719   9.199   5.816
84746SOL    HW156071   7.767   9.165   5.740
84746SOL    HW256072   7.632   9.159   5.809
84747SOL     OW56073   3.024  12.120   8.436
84747SOL    HW156074   3.075  12.045   8.467
84747SOL    HW256075   3.078  12.159   8.367
84748SOL     OW56076   6.330   1.538   9.817
84748SOL    HW156077   6.254   1.536   9.875
84748SOL    HW256078   6.387   1.468   9.849
84749SOL     OW56079   4.071   7.845   4.454
84749SOL    HW156080   4.144   7.848   4.392
84749SOL    HW256081   4.006   7.904   4.417
84750SOL     OW56082   8.672  13.569   7.920
84750SOL    HW156083   8.749  13.626   7.909
84750SOL    HW256084   8.700  13.504   7.984
84751SOL     OW56085   2.794   2.681   5.242
84751SOL    HW156086   2.794   2.630   5.322
84751SOL    HW256087   2.701   2.693   5.221
84752SOL     OW56088  11.999  11.136   0.726
84752SOL    HW156089  12.001  11.057   0.780
84752SOL    HW256090  11.910  11.169   0.734
84753SOL     OW56091   2.022  11.911  14.442
84753SOL    HW156092   2.057  11.980  14.385
84753SOL    HW256093   1.938  11.946  14.472
84754SOL     OW56094   1.998   3.776   7.838
84754SOL    HW156095   1.934   3.847   7.834
84754SOL    HW256096   2.068   3.811   7.893
84755SOL     OW56097  14.780   9.491  10.871
84755SOL    HW156098  14.731   9.537  10.939
84755SOL    HW256099  14.843   9.438  10.920
84756SOL     OW56100  10.464   0.324   0.329
84756SOL    HW156101  10.466   0.376   0.249
84756SOL    HW256102  10.393   0.361   0.380
84757SOL     OW56103  12.041   3.365   9.285
84757SOL    HW156104  12.127   3.333   9.312
84757SOL    HW256105  12.026   3.442   9.340
84758SOL     OW56106   9.548   8.250  12.260
84758SOL    HW156107   9.571   8.338  12.287
84758SOL    HW256108   9.509   8.261  12.173
84759SOL     OW56109  12.015   9.894   8.576
84759SOL    HW156110  11.956   9.969   8.567
84759SOL    HW256111  11.959   9.822   8.603
84760SOL     OW56112   3.208   1.718  12.557
84760SOL    HW156113   3.122   1.707  12.598
84760SOL    HW256114   3.225   1.635  12.513
84761SOL     OW56115   3.624   6.782  12.240
84761SOL    HW156116   3.624   6.865  12.193
84761SOL    HW256117   3.714   6.771  12.270
84762SOL     OW56118   9.063  14.300   9.162
84762SOL    HW156119   9.073  14.365   9.093
84762SOL    HW256120   8.969  14.300   9.182
84763SOL     OW56121   0.515   2.586   4.553
84763SOL    HW156122   0.489   2.677   4.567
84763SOL    HW256123   0.433   2.538   4.542
84764SOL     OW56124   9.634   7.797  10.762
84764SOL    HW156125   9.583   7.800  10.843
84764SOL    HW256126   9.621   7.708  10.729
84765SOL     OW56127   5.898  12.998  13.607
84765SOL    HW156128   5.948  13.071  13.572
84765SOL    HW256129   5.840  12.972  13.535
84766SOL     OW56130   1.080   6.758   1.501
84766SOL    HW156131   1.167   6.782   1.469
84766SOL    HW256132   1.088   6.667   1.526
84767SOL     OW56133   7.518   8.154   5.469
84767SOL    HW156134   7.553   8.120   5.551
84767SOL    HW256135   7.590   8.201   5.429
84768SOL     OW56136   9.458   8.469   6.232
84768SOL    HW156137   9.439   8.460   6.138
84768SOL    HW256138   9.448   8.562   6.249
84769SOL     OW56139  14.763  11.146   4.444
84769SOL    HW156140  14.795  11.215   4.502
84769SOL    HW256141  14.694  11.187   4.393
84770SOL     OW56142  13.222   6.573   5.232
84770SOL    HW156143  13.277   6.629   5.288
84770SOL    HW256144  13.194   6.631   5.161
84771SOL     OW56145  11.801   8.837  11.190
84771SOL    HW156146  11.774   8.867  11.103
84771SOL    HW256147  11.773   8.907  11.249
84772SOL     OW56148   0.997   2.727  12.190
84772SOL    HW156149   1.036   2.683  12.265
84772SOL    HW256150   0.904   2.705  12.194
84773SOL     OW56151  14.828   9.127   3.056
84773SOL    HW156152  14.760   9.106   2.991
84773SOL    HW256153  14.834   9.223   3.054
84774SOL     OW56154  12.892  10.691   1.108
84774SOL    HW156155  12.865  10.733   1.189
84774SOL    HW256156  12.977  10.653   1.128
84775SOL     OW56157   2.362   7.004  10.798
84775SOL    HW156158   2.458   7.002  10.806
84775SOL    HW256159   2.334   7.071  10.859
84776SOL     OW56160   9.846   5.655   9.059
84776SOL    HW156161   9.867   5.582   9.000
84776SOL    HW256162   9.778   5.704   9.013
84777SOL     OW56163   0.919  11.579  12.620
84777SOL    HW156164   0.894  11.508  12.679
84777SOL    HW256165   0.841  11.634  12.614
84778SOL     OW56166   6.962  11.505  10.971
84778SOL    HW156167   7.008  11.447  10.911
84778SOL    HW256168   7.031  11.558  11.011
84779SOL     OW56169   8.417   5.587   2.899
84779SOL    HW156170   8.342   5.596   2.840
84779SOL    HW256171   8.491   5.572   2.841
84780SOL     OW56172   1.536   2.473   4.331
84780SOL    HW156173   1.618   2.499   4.289
84780SOL    HW256174   1.551   2.383   4.358
84781SOL     OW56175   7.748  10.419  13.293
84781SOL    HW156176   7.758  10.509  13.264
84781SOL    HW256177   7.782  10.366  13.221
84782SOL     OW56178   5.142   4.636   0.359
84782SOL    HW156179   5.129   4.730   0.357
84782SOL    HW256180   5.079   4.605   0.424
84783SOL     OW56181   8.130   2.446  14.613
84783SOL    HW156182   8.116   2.424  14.521
84783SOL    HW256183   8.197   2.514  14.612
84784SOL     OW56184   9.750   4.208  10.953
84784SOL    HW156185   9.757   4.304  10.956
84784SOL    HW256186   9.761   4.187  10.860
84785SOL     OW56187  11.011   8.157   6.685
84785SOL    HW156188  10.934   8.106   6.711
84785SOL    HW256189  11.076   8.091   6.660
84786SOL     OW56190   4.648   1.090  13.681
84786SOL    HW156191   4.699   1.154  13.633
84786SOL    HW256192   4.619   1.136  13.760
84787SOL     OW56193   8.552   8.281  12.514
84787SOL    HW156194   8.474   8.311  12.466
84787SOL    HW256195   8.624   8.295  12.453
84788SOL     OW56196  12.385   5.467   1.101
84788SOL    HW156197  12.397   5.556   1.136
84788SOL    HW256198  12.467   5.448   1.056
84789SOL     OW56199  10.301   4.449  13.669
84789SOL    HW156200  10.342   4.366  13.643
84789SOL    HW256201  10.284   4.494  13.586
84790SOL     OW56202   1.419   7.839  14.477
84790SOL    HW156203   1.392   7.918  14.523
84790SOL    HW256204   1.343   7.816  14.423
84791SOL     OW56205   3.776  13.838   1.599
84791SOL    HW156206   3.832  13.775   1.553
84791SOL    HW256207   3.809  13.923   1.570
84792SOL     OW56208   5.267   1.549   3.065
84792SOL    HW156209   5.195   1.534   3.127
84792SOL    HW256210   5.285   1.643   3.070
84793SOL     OW56211   3.626  14.803  10.982
84793SOL    HW156212   3.648  14.812  10.889
84793SOL    HW256213   3.556  14.866  10.996
84794SOL     OW56214   0.261   9.065   1.479
84794SOL    HW156215   0.280   9.113   1.560
84794SOL    HW256216   0.236   9.132   1.416
84795SOL     OW56217   8.704   2.815   7.403
84795SOL    HW156218   8.764   2.886   7.378
84795SOL    HW256219   8.758   2.754   7.452
84796SOL     OW56220   7.668   7.575   4.951
84796SOL    HW156221   7.620   7.649   4.913
84796SOL    HW256222   7.756   7.582   4.914
84797SOL     OW56223   2.362   1.448   9.060
84797SOL    HW156224   2.269   1.457   9.083
84797SOL    HW256225   2.395   1.537   9.057
84798SOL     OW56226   7.896   4.121   8.440
84798SOL    HW156227   7.984   4.114   8.401
84798SOL    HW256228   7.871   4.212   8.425
84799SOL     OW56229   2.853   2.803  14.634
84799SOL    HW156230   2.792   2.757  14.576
84799SOL    HW256231   2.896   2.734  14.684
84800SOL     OW56232   2.701   7.226   9.160
84800SOL    HW156233   2.724   7.282   9.234
84800SOL    HW256234   2.767   7.248   9.093
84801SOL     OW56235  11.592   5.733  10.900
84801SOL    HW156236  11.635   5.690  10.826
84801SOL    HW256237  11.659   5.793  10.935
84802SOL     OW56238   7.963  13.091   5.274
84802SOL    HW156239   8.058  13.090   5.286
84802SOL    HW256240   7.949  13.149   5.199
84803SOL     OW56241   2.002   3.157   7.313
84803SOL    HW156242   2.071   3.218   7.339
84803SOL    HW256243   2.004   3.159   7.217
84804SOL     OW56244   9.943  14.180   8.733
84804SOL    HW156245  10.006  14.157   8.801
84804SOL    HW256246   9.956  14.274   8.719
84805SOL     OW56247   0.889   9.540  12.593
84805SOL    HW156248   0.822   9.608  12.599
84805SOL    HW256249   0.872   9.482  12.667
84806SOL     OW56250  12.212   1.965   0.895
84806SOL    HW156251  12.204   1.958   0.800
84806SOL    HW256252  12.137   2.018   0.922
84807SOL     OW56253   1.928   4.974  11.554
84807SOL    HW156254   1.971   4.890  11.567
84807SOL    HW256255   1.901   4.973  11.462
84808SOL     OW56256   5.986   2.399   1.046
84808SOL    HW156257   6.021   2.409   1.135
84808SOL    HW256258   5.995   2.306   1.027
84809SOL     OW56259  10.201  10.515   1.224
84809SOL    HW156260  10.288  10.549   1.205
84809SOL    HW256261  10.153  10.591   1.259
84810SOL     OW56262   6.633  10.962  10.083
84810SOL    HW156263   6.652  11.027  10.015
84810SOL    HW256264   6.540  10.943  10.072
84811SOL     OW56265  12.864  11.873  12.581
84811SOL    HW156266  12.875  11.968  12.588
84811SOL    HW256267  12.852  11.844  12.671
84812SOL     OW56268   2.800  11.071   3.410
84812SOL    HW156269   2.858  11.047   3.339
84812SOL    HW256270   2.846  11.043   3.489
84813SOL     OW56271   6.106   9.957  10.453
84813SOL    HW156272   6.160   9.910  10.517
84813SOL    HW256273   6.126   9.914  10.370
84814SOL     OW56274  11.108  12.392   5.503
84814SOL    HW156275  11.042  12.326   5.481
84814SOL    HW256276  11.060  12.460   5.549
84815SOL     OW56277   9.106   3.805   6.353
84815SOL    HW156278   9.086   3.715   6.379
84815SOL    HW256279   9.070   3.814   6.265
84816SOL     OW56280  13.518  14.385  14.089
84816SOL    HW156281  13.551  14.394  14.179
84816SOL    HW256282  13.538  14.469  14.049
84817SOL     OW56283  12.800   7.988   2.405
84817SOL    HW156284  12.859   8.061   2.424
84817SOL    HW256285  12.841   7.943   2.331
84818SOL     OW56286  14.445   2.943   3.718
84818SOL    HW156287  14.449   2.861   3.670
84818SOL    HW256288  14.520   2.994   3.687
84819SOL     OW56289   9.356   3.907   8.008
84819SOL    HW156290   9.334   3.843   8.076
84819SOL    HW256291   9.275   3.956   7.995
84820SOL     OW56292   8.149   9.537   2.602
84820SOL    HW156293   8.154   9.621   2.556
84820SOL    HW256294   8.056   9.526   2.622
84821SOL     OW56295   2.467   7.861   8.078
84821SOL    HW156296   2.453   7.899   7.992
84821SOL    HW256297   2.390   7.887   8.129
84822SOL     OW56298   7.014   9.205   0.106
84822SOL    HW156299   6.925   9.184   0.134
84822SOL    HW256300   7.003   9.243   0.019
84823SOL     OW56301   7.730  11.026  11.280
84823SOL    HW156302   7.667  10.991  11.217
84823SOL    HW256303   7.689  11.011  11.365
84824SOL     OW56304   2.261   8.186  12.289
84824SOL    HW156305   2.226   8.231  12.366
84824SOL    HW256306   2.208   8.218  12.216
84825SOL     OW56307  11.564  12.347  10.018
84825SOL    HW156308  11.559  12.362   9.924
84825SOL    HW256309  11.501  12.277  10.035
84826SOL     OW56310  13.137  13.101  13.093
84826SOL    HW156311  13.204  13.099  13.024
84826SOL    HW256312  13.055  13.112  13.045
84827SOL     OW56313  11.054   6.536   8.312
84827SOL    HW156314  11.041   6.534   8.407
84827SOL    HW256315  11.030   6.448   8.283
84828SOL     OW56316  10.697  13.577  13.268
84828SOL    HW156317  10.616  13.533  13.241
84828SOL    HW256318  10.729  13.621  13.190
84829SOL     OW56319   8.318   7.583   6.061
84829SOL    HW156320   8.229   7.600   6.031
84829SOL    HW256321   8.352   7.668   6.087
84830SOL     OW56322   1.624  12.786  11.087
84830SOL    HW156323   1.675  12.844  11.143
84830SOL    HW256324   1.608  12.709  11.140
84831SOL     OW56325   4.154   3.322  10.660
84831SOL    HW156326   4.242   3.354  10.640
84831SOL    HW256327   4.101   3.402  10.664
84832SOL     OW56328  11.704   8.043   3.125
84832SOL    HW156329  11.726   8.123   3.077
84832SOL    HW256330  11.665   8.073   3.207
84833SOL     OW56331   1.292   5.101  10.283
84833SOL    HW156332   1.382   5.105  10.318
84833SOL    HW256333   1.297   5.038  10.211
84834SOL     OW56334  11.796   8.373   8.417
84834SOL    HW156335  11.711   8.389   8.459
84834SOL    HW256336  11.788   8.287   8.377
84835SOL     OW56337   2.078  14.268   0.909
84835SOL    HW156338   2.144  14.223   0.856
84835SOL    HW256339   2.128  14.333   0.959
84836SOL     OW56340   1.654  10.671   1.818
84836SOL    HW156341   1.600  10.707   1.748
84836SOL    HW256342   1.690  10.590   1.780
84837SOL     OW56343   2.757  12.169   7.023
84837SOL    HW156344   2.851  12.177   7.043
84837SOL    HW256345   2.754  12.115   6.944
84838SOL     OW56346   1.283  11.276   4.868
84838SOL    HW156347   1.207  11.326   4.840
84838SOL    HW256348   1.349  11.342   4.889
84839SOL     OW56349   5.369   1.824   7.511
84839SOL    HW156350   5.309   1.898   7.504
84839SOL    HW256351   5.313   1.750   7.537
84840SOL     OW56352   2.779  12.310   8.126
84840SOL    HW156353   2.732  12.393   8.136
84840SOL    HW256354   2.710  12.244   8.132
84841SOL     OW56355   0.461   3.237  13.111
84841SOL    HW156356   0.506   3.246  13.195
84841SOL    HW256357   0.500   3.161  13.070
84842SOL     OW56358   4.632  14.221   6.213
84842SOL    HW156359   4.657  14.275   6.138
84842SOL    HW256360   4.625  14.283   6.286
84843SOL     OW56361  10.303   2.884  12.994
84843SOL    HW156362  10.273   2.848  13.077
84843SOL    HW256363  10.396   2.904  13.008
84844SOL     OW56364   8.666   5.178   4.269
84844SOL    HW156365   8.678   5.084   4.258
84844SOL    HW256366   8.747   5.209   4.310
84845SOL     OW56367   5.093   5.268  12.016
84845SOL    HW156368   5.123   5.350  12.055
84845SOL    HW256369   5.142   5.200  12.063
84846SOL     OW56370   8.496  10.008  11.590
84846SOL    HW156371   8.433  10.042  11.653
84846SOL    HW256372   8.538  10.085  11.552
84847SOL     OW56373   4.435   5.358   6.947
84847SOL    HW156374   4.428   5.427   7.012
84847SOL    HW256375   4.347   5.320   6.941
84848SOL     OW56376   9.172   3.426  11.074
84848SOL    HW156377   9.149   3.333  11.072
84848SOL    HW256378   9.090   3.472  11.056
84849SOL     OW56379   6.524  14.175   8.368
84849SOL    HW156380   6.483  14.089   8.362
84849SOL    HW256381   6.497  14.220   8.288
84850SOL     OW56382  13.664  13.506   5.240
84850SOL    HW156383  13.614  13.566   5.185
84850SOL    HW256384  13.755  13.536   5.233
84851SOL     OW56385   2.872   8.209   6.288
84851SOL    HW156386   2.899   8.280   6.230
84851SOL    HW256387   2.839   8.252   6.367
84852SOL     OW56388   4.916   6.360  10.796
84852SOL    HW156389   4.896   6.454  10.805
84852SOL    HW256390   4.951   6.335  10.881
84853SOL     OW56391  12.881  12.243  14.505
84853SOL    HW156392  12.801  12.212  14.548
84853SOL    HW256393  12.950  12.187  14.541
84854SOL     OW56394   4.552   8.796   5.946
84854SOL    HW156395   4.632   8.747   5.966
84854SOL    HW256396   4.533   8.846   6.026
84855SOL     OW56397   4.593  14.294   7.140
84855SOL    HW156398   4.627  14.206   7.155
84855SOL    HW256399   4.521  14.283   7.078
84856SOL     OW56400  11.860   4.192   5.124
84856SOL    HW156401  11.933   4.133   5.103
84856SOL    HW256402  11.846   4.242   5.043
84857SOL     OW56403  13.365  11.204   3.701
84857SOL    HW156404  13.357  11.108   3.701
84857SOL    HW256405  13.361  11.228   3.793
84858SOL     OW56406   6.136   1.791   0.076
84858SOL    HW156407   6.157   1.746   0.158
84858SOL    HW256408   6.134   1.884   0.099
84859SOL     OW56409   7.972  10.607   6.280
84859SOL    HW156410   7.902  10.672   6.273
84859SOL    HW256411   8.014  10.625   6.364
84860SOL     OW56412   2.570   2.084  10.864
84860SOL    HW156413   2.616   2.024  10.804
84860SOL    HW256414   2.499   2.120  10.810
84861SOL     OW56415   7.875  14.651   1.051
84861SOL    HW156416   7.810  14.643   0.980
84861SOL    HW256417   7.826  14.630   1.130
84862SOL     OW56418   4.584  13.017   4.432
84862SOL    HW156419   4.535  12.953   4.484
84862SOL    HW256420   4.639  13.063   4.495
84863SOL     OW56421  11.302  13.169   3.121
84863SOL    HW156422  11.330  13.230   3.189
84863SOL    HW256423  11.340  13.085   3.148
84864SOL     OW56424  11.753   0.723  10.235
84864SOL    HW156425  11.711   0.784  10.174
84864SOL    HW256426  11.704   0.642  10.227
84865SOL     OW56427   9.254  10.503   7.334
84865SOL    HW156428   9.293  10.450   7.264
84865SOL    HW256429   9.162  10.514   7.307
84866SOL     OW56430  13.239   4.965  10.351
84866SOL    HW156431  13.197   4.984  10.267
84866SOL    HW256432  13.333   4.968  10.332
84867SOL     OW56433   9.473  13.589   4.038
84867SOL    HW156434   9.458  13.567   3.946
84867SOL    HW256435   9.532  13.521   4.070
84868SOL     OW56436  12.740   3.153   6.547
84868SOL    HW156437  12.659   3.192   6.514
84868SOL    HW256438  12.770   3.097   6.475
84869SOL     OW56439   0.561  13.278   2.278
84869SOL    HW156440   0.628  13.313   2.337
84869SOL    HW256441   0.598  13.289   2.190
84870SOL     OW56442   3.926  11.031   8.766
84870SOL    HW156443   4.004  11.024   8.710
84870SOL    HW256444   3.906  10.940   8.790
84871SOL     OW56445   0.875   3.883   4.464
84871SOL    HW156446   0.956   3.921   4.430
84871SOL    HW256447   0.882   3.790   4.446
84872SOL     OW56448  12.636   7.885   9.732
84872SOL    HW156449  12.681   7.955   9.685
84872SOL    HW256450  12.689   7.807   9.717
84873SOL     OW56451   2.498   1.288   4.809
84873SOL    HW156452   2.460   1.273   4.723
84873SOL    HW256453   2.441   1.354   4.849
84874SOL     OW56454  13.818  10.071   7.287
84874SOL    HW156455  13.724  10.070   7.303
84874SOL    HW256456  13.841   9.980   7.273
84875SOL     OW56457  13.960  13.585  11.258
84875SOL    HW156458  13.911  13.592  11.339
84875SOL    HW256459  13.999  13.497  11.260
84876SOL     OW56460  14.177   5.511   4.066
84876SOL    HW156461  14.207   5.598   4.044
84876SOL    HW256462  14.082   5.514   4.051
84877SOL     OW56463   1.532  10.471   5.254
84877SOL    HW156464   1.490  10.416   5.188
84877SOL    HW256465   1.605  10.512   5.208
84878SOL     OW56466   2.111   9.988   4.614
84878SOL    HW156467   2.140   9.897   4.611
84878SOL    HW256468   2.116  10.017   4.523
84879SOL     OW56469   9.800  11.950   4.095
84879SOL    HW156470   9.836  12.038   4.083
84879SOL    HW256471   9.720  11.949   4.043
84880SOL     OW56472   6.514  12.802   6.839
84880SOL    HW156473   6.444  12.861   6.811
84880SOL    HW256474   6.497  12.722   6.789
84881SOL     OW56475  13.944  11.348   1.739
84881SOL    HW156476  13.899  11.422   1.781
84881SOL    HW256477  13.879  11.278   1.738
84882SOL     OW56478   2.239  13.157   0.085
84882SOL    HW156479   2.260  13.178  14.874
84882SOL    HW256480   2.324  13.145   0.128
84883SOL     OW56481   8.903   6.851   4.451
84883SOL    HW156482   8.976   6.896   4.409
84883SOL    HW256483   8.886   6.775   4.395
84884SOL     OW56484   2.412   1.181   9.161
84884SOL    HW156485   2.404   1.261   9.108
84884SOL    HW256486   2.476   1.203   9.228
84885SOL     OW56487  11.864   1.764   8.009
84885SOL    HW156488  11.812   1.695   7.967
84885SOL    HW256489  11.818   1.845   7.987
84886SOL     OW56490  14.814  10.822  10.667
84886SOL    HW156491  14.837  10.819  10.760
84886SOL    HW256492  14.813  10.731  10.639
84887SOL     OW56493   9.039   2.957  11.773
84887SOL    HW156494   9.062   2.866  11.753
84887SOL    HW256495   9.082   2.975  11.857
84888SOL     OW56496  13.445   1.772   5.905
84888SOL    HW156497  13.435   1.767   6.000
84888SOL    HW256498  13.477   1.861   5.889
84889SOL     OW56499   1.558   9.222  14.430
84889SOL    HW156500   1.535   9.293  14.490
84889SOL    HW256501   1.549   9.261  14.343
84890SOL     OW56502   4.882   6.541   6.423
84890SOL    HW156503   4.894   6.550   6.518
84890SOL    HW256504   4.886   6.447   6.407
84891SOL     OW56505   2.335  13.440  10.498
84891SOL    HW156506   2.384  13.389  10.434
84891SOL    HW256507   2.245  13.439  10.464
84892SOL     OW56508  14.836   8.001   3.922
84892SOL    HW156509  14.790   7.929   3.964
84892SOL    HW256510  14.798   8.080   3.960
84893SOL     OW56511   0.421   3.818  13.869
84893SOL    HW156512   0.370   3.820  13.788
84893SOL    HW256513   0.389   3.894  13.919
84894SOL     OW56514   2.570   9.804   0.797
84894SOL    HW156515   2.644   9.752   0.764
84894SOL    HW256516   2.561   9.777   0.888
84895SOL     OW56517   5.888   7.116  11.124
84895SOL    HW156518   5.982   7.099  11.130
84895SOL    HW256519   5.848   7.042  11.170
84896SOL     OW56520   7.921  13.028  10.644
84896SOL    HW156521   7.900  13.119  10.664
84896SOL    HW256522   7.987  13.003  10.709
84897SOL     OW56523   0.316  12.106   0.593
84897SOL    HW156524   0.382  12.040   0.571
84897SOL    HW256525   0.276  12.075   0.674
84898SOL     OW56526   1.057   9.066   1.337
84898SOL    HW156527   0.983   9.007   1.326
84898SOL    HW256528   1.087   9.084   1.248
84899SOL     OW56529   3.438   5.749  14.709
84899SOL    HW156530   3.385   5.828  14.705
84899SOL    HW256531   3.501   5.759  14.639
84900SOL     OW56532   9.879   3.120   1.992
84900SOL    HW156533   9.888   3.028   1.967
84900SOL    HW256534   9.934   3.167   1.929
84901SOL     OW56535   2.655  10.080   3.680
84901SOL    HW156536   2.636  10.150   3.617
84901SOL    HW256537   2.703  10.124   3.750
84902SOL     OW56538   2.501   3.949   6.484
84902SOL    HW156539   2.477   3.964   6.392
84902SOL    HW256540   2.446   3.877   6.513
84903SOL     OW56541   0.953   4.838   9.737
84903SOL    HW156542   0.985   4.777   9.803
84903SOL    HW256543   0.983   4.924   9.767
84904SOL     OW56544   9.902   1.724  13.615
84904SOL    HW156545   9.916   1.647  13.670
84904SOL    HW256546   9.813   1.713  13.582
84905SOL     OW56547   8.441   6.828   4.042
84905SOL    HW156548   8.374   6.893   4.063
84905SOL    HW256549   8.508   6.877   3.993
84906SOL     OW56550   9.131   3.678   3.948
84906SOL    HW156551   9.071   3.611   3.916
84906SOL    HW256552   9.095   3.760   3.915
84907SOL     OW56553   3.009  13.882  14.684
84907SOL    HW156554   3.045  13.839  14.606
84907SOL    HW256555   2.922  13.909  14.657
84908SOL     OW56556  11.672   2.448   6.952
84908SOL    HW156557  11.603   2.393   6.917
84908SOL    HW256558  11.629   2.501   7.019
84909SOL     OW56559  13.871  13.283   6.049
84909SOL    HW156560  13.909  13.356   6.001
84909SOL    HW256561  13.806  13.246   5.988
84910SOL     OW56562   0.036   1.629   4.020
84910SOL    HW156563  14.854   1.672   4.080
84910SOL    HW256564   0.118   1.677   4.029
84911SOL     OW56565  12.716   7.449   9.160
84911SOL    HW156566  12.747   7.535   9.130
84911SOL    HW256567  12.793   7.392   9.152
84912SOL     OW56568   7.694   2.319   4.298
84912SOL    HW156569   7.727   2.292   4.383
84912SOL    HW256570   7.717   2.247   4.239
84913SOL     OW56571  13.130   0.656   0.152
84913SOL    HW156572  13.163   0.658   0.062
84913SOL    HW256573  13.101   0.746   0.168
84914SOL     OW56574   4.396  10.444   1.138
84914SOL    HW156575   4.487  10.453   1.109
84914SOL    HW256576   4.402  10.408   1.227
84915SOL     OW56577   2.027   6.406   8.075
84915SOL    HW156578   2.065   6.330   8.031
84915SOL    HW256579   2.067   6.482   8.031
84916SOL     OW56580   2.914   4.142  11.112
84916SOL    HW156581   2.840   4.099  11.154
84916SOL    HW256582   2.990   4.117  11.165
84917SOL     OW56583  13.544   0.443   3.780
84917SOL    HW156584  13.625   0.495   3.773
84917SOL    HW256585  13.475   0.503   3.752
84918SOL     OW56586  11.849   6.574   4.204
84918SOL    HW156587  11.825   6.483   4.185
84918SOL    HW256588  11.907   6.569   4.279
84919SOL     OW56589  11.680   7.494  13.804
84919SOL    HW156590  11.769   7.478  13.774
84919SOL    HW256591  11.645   7.558  13.742
84920SOL     OW56592   0.000   7.496  12.528
84920SOL    HW156593   0.030   7.414  12.488
84920SOL    HW256594  14.826   7.469  12.603
84921SOL     OW56595   4.520  10.956   4.855
84921SOL    HW156596   4.442  10.901   4.863
84921SOL    HW256597   4.576  10.929   4.929
84922SOL     OW56598  10.454   5.255   1.271
84922SOL    HW156599  10.409   5.312   1.333
84922SOL    HW256600  10.390   5.187   1.249
84923SOL     OW56601   6.570   9.748   3.096
84923SOL    HW156602   6.618   9.820   3.136
84923SOL    HW256603   6.610   9.738   3.009
84924SOL     OW56604   4.111  11.510   5.972
84924SOL    HW156605   4.204  11.525   5.953
84924SOL    HW256606   4.105  11.416   5.986
84925SOL     OW56607   0.225   0.954  10.240
84925SOL    HW156608   0.246   0.872  10.285
84925SOL    HW256609   0.153   0.991  10.292
84926SOL     OW56610   3.900   2.471  11.482
84926SOL    HW156611   3.873   2.554  11.521
84926SOL    HW256612   3.979   2.493  11.433
84927SOL     OW56613   4.282   8.256   5.405
84927SOL    HW156614   4.339   8.273   5.329
84927SOL    HW256615   4.194   8.254   5.368
84928SOL     OW56616   1.827   3.659  14.869
84928SOL    HW156617   1.807   3.751  14.850
84928SOL    HW256618   1.831   3.655   0.086
84929SOL     OW56619   2.880  10.581   8.719
84929SOL    HW156620   2.837  10.496   8.711
84929SOL    HW256621   2.824  10.642   8.672
84930SOL     OW56622  13.377   6.022  12.871
84930SOL    HW156623  13.346   6.112  12.866
84930SOL    HW256624  13.340   5.979  12.794
84931SOL     OW56625   6.785  12.272   2.898
84931SOL    HW156626   6.830  12.188   2.904
84931SOL    HW256627   6.783  12.304   2.989
84932SOL     OW56628   4.137  10.144  14.728
84932SOL    HW156629   4.134  10.062  14.679
84932SOL    HW256630   4.207  10.132  14.792
84933SOL     OW56631  13.230   7.948   3.842
84933SOL    HW156632  13.223   7.932   3.748
84933SOL    HW256633  13.161   8.011   3.860
84934SOL     OW56634   8.910  10.169   4.198
84934SOL    HW156635   8.816  10.155   4.207
84934SOL    HW256636   8.918  10.249   4.147
84935SOL     OW56637   7.730   1.302   7.724
84935SOL    HW156638   7.678   1.237   7.677
84935SOL    HW256639   7.692   1.386   7.698
84936SOL     OW56640   5.006  14.427  14.857
84936SOL    HW156641   5.042  14.399   0.062
84936SOL    HW256642   4.989  14.521  14.869
84937SOL     OW56643   1.084   1.197  12.175
84937SOL    HW156644   1.069   1.123  12.116
84937SOL    HW256645   1.039   1.173  12.255
84938SOL     OW56646   0.328   4.565  10.702
84938SOL    HW156647   0.323   4.603  10.614
84938SOL    HW256648   0.404   4.506  10.698
84939SOL     OW56649  14.412   5.130  11.148
84939SOL    HW156650  14.474   5.166  11.084
84939SOL    HW256651  14.371   5.056  11.103
84940SOL     OW56652   3.212   3.229   7.886
84940SOL    HW156653   3.237   3.139   7.908
84940SOL    HW256654   3.162   3.221   7.805
84941SOL     OW56655  14.183   3.132   7.404
84941SOL    HW156656  14.135   3.050   7.406
84941SOL    HW256657  14.134   3.187   7.343
84942SOL     OW56658  13.840  11.716   7.389
84942SOL    HW156659  13.771  11.724   7.324
84942SOL    HW256660  13.918  11.754   7.347
84943SOL     OW56661   5.630  13.917  13.096
84943SOL    HW156662   5.549  13.875  13.126
84943SOL    HW256663   5.698  13.851  13.109
84944SOL     OW56664  10.031   4.165   9.525
84944SOL    HW156665   9.987   4.248   9.505
84944SOL    HW256666   9.961   4.099   9.520
84945SOL     OW56667   9.114   3.620   1.917
84945SOL    HW156668   9.035   3.567   1.921
84945SOL    HW256669   9.084   3.707   1.890
84946SOL     OW56670   0.048   3.439   2.035
84946SOL    HW156671   0.097   3.429   2.117
84946SOL    HW256672   0.050   3.351   1.996
84947SOL     OW56673   9.089   8.165   9.770
84947SOL    HW156674   9.045   8.186   9.688
84947SOL    HW256675   9.167   8.116   9.744
84948SOL     OW56676   9.093   2.677   6.299
84948SOL    HW156677   9.152   2.702   6.228
84948SOL    HW256678   9.008   2.666   6.257
84949SOL     OW56679   7.139   2.816   0.737
84949SOL    HW156680   7.215   2.805   0.794
84949SOL    HW256681   7.101   2.900   0.762
84950SOL     OW56682   0.123  12.834  11.250
84950SOL    HW156683   0.141  12.773  11.179
84950SOL    HW256684   0.072  12.783  11.313
84951SOL     OW56685  12.275   6.596   6.245
84951SOL    HW156686  12.242   6.522   6.194
84951SOL    HW256687  12.204   6.616   6.306
84952SOL     OW56688   8.828   9.551   2.013
84952SOL    HW156689   8.832   9.596   2.097
84952SOL    HW256690   8.919   9.544   1.984
84953SOL     OW56691   1.617   4.982   1.418
84953SOL    HW156692   1.691   4.938   1.375
84953SOL    HW256693   1.623   4.955   1.509
84954SOL     OW56694  12.888   6.805  14.181
84954SOL    HW156695  12.968   6.857  14.170
84954SOL    HW256696  12.818   6.870  14.182
84955SOL     OW56697   9.609   2.853   6.041
84955SOL    HW156698   9.545   2.846   5.969
84955SOL    HW256699   9.581   2.786   6.104
84956SOL     OW56700   0.607   3.521   1.092
84956SOL    HW156701   0.529   3.537   1.039
84956SOL    HW256702   0.638   3.609   1.115
84957SOL     OW56703  12.070  10.968   5.359
84957SOL    HW156704  12.099  10.927   5.278
84957SOL    HW256705  11.974  10.961   5.356
84958SOL     OW56706   2.503   3.490  10.604
84958SOL    HW156707   2.554   3.433  10.661
84958SOL    HW256708   2.558   3.568  10.592
84959SOL     OW56709   2.997   9.877   0.387
84959SOL    HW156710   3.084   9.850   0.416
84959SOL    HW256711   2.938   9.814   0.429
84960SOL     OW56712  11.571  10.312   5.297
84960SOL    HW156713  11.656  10.330   5.257
84960SOL    HW256714  11.538  10.236   5.249
84961SOL     OW56715  10.710   6.014   4.006
84961SOL    HW156716  10.771   6.057   4.066
84961SOL    HW256717  10.626   6.017   4.050
84962SOL     OW56718   9.319   3.727  13.810
84962SOL    HW156719   9.285   3.663  13.872
84962SOL    HW256720   9.254   3.731  13.740
84963SOL     OW56721  12.866  14.085   5.690
84963SOL    HW156722  12.935  14.064   5.627
84963SOL    HW256723  12.821  14.001   5.706
84964SOL     OW56724   2.514   0.781  12.129
84964SOL    HW156725   2.552   0.867  12.112
84964SOL    HW256726   2.481   0.752  12.044
84965SOL     OW56727  13.198  10.913   6.899
84965SOL    HW156728  13.151  10.851   6.955
84965SOL    HW256729  13.257  10.960   6.958
84966SOL     OW56730   4.657  12.722   9.207
84966SOL    HW156731   4.670  12.634   9.244
84966SOL    HW256732   4.740  12.767   9.223
84967SOL     OW56733   1.815   3.113   9.107
84967SOL    HW156734   1.902   3.127   9.069
84967SOL    HW256735   1.824   3.141   9.198
84968SOL     OW56736   5.205   3.248   6.192
84968SOL    HW156737   5.238   3.166   6.228
84968SOL    HW256738   5.279   3.309   6.200
84969SOL     OW56739  11.672  11.109  12.520
84969SOL    HW156740  11.679  11.021  12.557
84969SOL    HW256741  11.594  11.146  12.562
84970SOL     OW56742   9.565  13.216   0.710
84970SOL    HW156743   9.605  13.298   0.740
84970SOL    HW256744   9.604  13.148   0.766
84971SOL     OW56745  10.005  13.684   4.029
84971SOL    HW156746  10.068  13.747   3.996
84971SOL    HW256747   9.925  13.735   4.043
84972SOL     OW56748   6.966  13.560  14.289
84972SOL    HW156749   7.041  13.518  14.330
84972SOL    HW256750   6.922  13.607  14.360
84973SOL     OW56751   8.060   9.770  10.286
84973SOL    HW156752   8.119   9.742  10.216
84973SOL    HW256753   8.000   9.831  10.244
84974SOL     OW56754  11.779   3.541  13.910
84974SOL    HW156755  11.845   3.607  13.932
84974SOL    HW256756  11.732   3.526  13.992
84975SOL     OW56757  10.818  12.478   4.738
84975SOL    HW156758  10.870  12.548   4.778
84975SOL    HW256759  10.852  12.470   4.649
84976SOL     OW56760   6.426  10.471   5.507
84976SOL    HW156761   6.516  10.474   5.542
84976SOL    HW256762   6.380  10.540   5.555
84977SOL     OW56763  11.690  13.182  14.582
84977SOL    HW156764  11.758  13.166  14.648
84977SOL    HW256765  11.713  13.268  14.545
84978SOL     OW56766   1.662  10.227  12.844
84978SOL    HW156767   1.570  10.218  12.869
84978SOL    HW256768   1.705  10.264  12.921
84979SOL     OW56769   1.731  11.936   9.114
84979SOL    HW156770   1.669  11.976   9.175
84979SOL    HW256771   1.691  11.949   9.028
84980SOL     OW56772   6.306   1.922   7.997
84980SOL    HW156773   6.249   1.869   8.053
84980SOL    HW256774   6.379   1.865   7.977
84981SOL     OW56775   3.590  12.692  12.230
84981SOL    HW156776   3.624  12.609  12.263
84981SOL    HW256777   3.521  12.668  12.169
84982SOL     OW56778  14.473   9.179   7.162
84982SOL    HW156779  14.554   9.130   7.145
84982SOL    HW256780  14.403   9.115   7.148
84983SOL     OW56781   9.163   3.079   4.392
84983SOL    HW156782   9.216   3.146   4.350
84983SOL    HW256783   9.218   3.001   4.393
84984SOL     OW56784   4.101  10.647   3.032
84984SOL    HW156785   4.160  10.715   3.000
84984SOL    HW256786   4.021  10.693   3.056
84985SOL     OW56787  13.705  11.350   7.849
84985SOL    HW156788  13.735  11.278   7.905
84985SOL    HW256789  13.725  11.321   7.760
84986SOL     OW56790   7.021   2.288   1.213
84986SOL    HW156791   6.940   2.237   1.222
84986SOL    HW256792   7.033   2.299   1.119
84987SOL     OW56793   5.119  11.138  12.288
84987SOL    HW156794   5.175  11.174  12.357
84987SOL    HW256795   5.181  11.099  12.226
84988SOL     OW56796   2.579  10.603   5.384
84988SOL    HW156797   2.646  10.670   5.371
84988SOL    HW256798   2.509  10.648   5.431
84989SOL     OW56799   7.769   5.960   9.548
84989SOL    HW156800   7.765   6.042   9.500
84989SOL    HW256801   7.678   5.937   9.565
84990SOL     OW56802   5.092   3.331  10.130
84990SOL    HW156803   5.037   3.378  10.067
84990SOL    HW256804   5.102   3.391  10.204
84991SOL     OW56805  11.824   2.639  12.384
84991SOL    HW156806  11.751   2.641  12.446
84991SOL    HW256807  11.901   2.626  12.439
84992SOL     OW56808   1.779   4.066   9.364
84992SOL    HW156809   1.820   4.153   9.358
84992SOL    HW256810   1.835   4.010   9.310
84993SOL     OW56811   6.565   1.141  11.340
84993SOL    HW156812   6.526   1.096  11.264
84993SOL    HW256813   6.656   1.156  11.315
84994SOL     OW56814   1.828   4.430  11.932
84994SOL    HW156815   1.740   4.464  11.949
84994SOL    HW256816   1.866   4.493  11.872
84995SOL     OW56817   8.565  12.636   1.963
84995SOL    HW156818   8.616  12.565   1.924
84995SOL    HW256819   8.629  12.685   2.014
84996SOL     OW56820   8.847   6.947   6.149
84996SOL    HW156821   8.756   6.927   6.171
84996SOL    HW256822   8.843   6.991   6.065
84997SOL     OW56823  12.465   6.118   0.386
84997SOL    HW156824  12.383   6.132   0.433
84997SOL    HW256825  12.519   6.068   0.447
84998SOL     OW56826   2.755   4.882   8.372
84998SOL    HW156827   2.799   4.854   8.453
84998SOL    HW256828   2.811   4.952   8.338
84999SOL     OW56829   2.782   2.149  12.634
84999SOL    HW156830   2.737   2.068  12.611
84999SOL    HW256831   2.733   2.217  12.589
85000SOL     OW56832   6.380   0.941   0.898
85000SOL    HW156833   6.285   0.933   0.906
85000SOL    HW256834   6.398   0.916   0.807
85001SOL     OW56835   9.474   6.648  12.423
85001SOL    HW156836   9.445   6.561  12.396
85001SOL    HW256837   9.502   6.691  12.342
85002SOL     OW56838  10.317   9.632   1.089
85002SOL    HW156839  10.345   9.687   1.162
85002SOL    HW256840  10.233   9.595   1.117
85003SOL     OW56841  10.766  13.640   5.760
85003SOL    HW156842  10.776  13.698   5.684
85003SOL    HW256843  10.724  13.561   5.724
85004SOL     OW56844  14.762   0.034   0.935
85004SOL    HW156845  14.667   0.046   0.940
85004SOL    HW256846  14.783   0.044   0.842
85005SOL     OW56847   6.113  11.516   0.679
85005SOL    HW156848   6.184  11.574   0.654
85005SOL    HW256849   6.148  11.465   0.753
85006SOL     OW56850  14.786  10.486   3.448
85006SOL    HW156851  14.872  10.506   3.485
85006SOL    HW256852  14.767  10.560   3.390
85007SOL     OW56853   5.457   1.976   2.428
85007SOL    HW156854   5.500   1.895   2.400
85007SOL    HW256855   5.477   1.982   2.522
85008SOL     OW56856   9.020   1.072   5.460
85008SOL    HW156857   8.977   1.143   5.508
85008SOL    HW256858   9.113   1.085   5.476
85009SOL     OW56859  14.674   2.772   2.150
85009SOL    HW156860  14.617   2.791   2.225
85009SOL    HW256861  14.746   2.834   2.159
85010SOL     OW56862   2.637   6.679   9.125
85010SOL    HW156863   2.560   6.645   9.079
85010SOL    HW256864   2.697   6.604   9.130
85011SOL     OW56865   9.558   6.796   5.471
85011SOL    HW156866   9.563   6.809   5.565
85011SOL    HW256867   9.624   6.854   5.435
85012SOL     OW56868  12.613  10.501   7.537
85012SOL    HW156869  12.620  10.503   7.633
85012SOL    HW256870  12.545  10.565   7.517
85013SOL     OW56871   1.573   0.691  11.006
85013SOL    HW156872   1.532   0.775  10.986
85013SOL    HW256873   1.568   0.684  11.101
85014SOL     OW56874   4.704   2.544   9.400
85014SOL    HW156875   4.741   2.474   9.453
85014SOL    HW256876   4.765   2.554   9.327
85015SOL     OW56877   8.964   7.138   4.764
85015SOL    HW156878   8.978   7.047   4.738
85015SOL    HW256879   8.868   7.148   4.765
85016SOL     OW56880   1.106   8.159   2.646
85016SOL    HW156881   1.039   8.204   2.698
85016SOL    HW256882   1.121   8.216   2.570
85017SOL     OW56883   0.954   9.015   4.151
85017SOL    HW156884   0.869   8.977   4.128
85017SOL    HW256885   0.953   9.018   4.247
85018SOL     OW56886   1.105   2.736  10.640
85018SOL    HW156887   1.085   2.829  10.654
85018SOL    HW256888   1.113   2.700  10.728
85019SOL     OW56889   7.013   9.087   2.451
85019SOL    HW156890   6.949   9.018   2.468
85019SOL    HW256891   7.033   9.124   2.537
85020SOL     OW56892   2.459   6.118   3.413
85020SOL    HW156893   2.512   6.057   3.464
85020SOL    HW256894   2.469   6.202   3.458
85021SOL     OW56895   7.533   5.060   3.609
85021SOL    HW156896   7.563   5.149   3.627
85021SOL    HW256897   7.446   5.071   3.572
85022SOL     OW56898  10.990   8.772   0.438
85022SOL    HW156899  10.958   8.772   0.528
85022SOL    HW256900  10.925   8.823   0.389
85023SOL     OW56901   3.238  13.314   2.044
85023SOL    HW156902   3.204  13.354   1.964
85023SOL    HW256903   3.331  13.301   2.027
85024SOL     OW56904   3.523   4.385   0.263
85024SOL    HW156905   3.455   4.364   0.327
85024SOL    HW256906   3.500   4.332   0.187
85025SOL     OW56907   2.220  11.070  13.481
85025SOL    HW156908   2.258  11.135  13.422
85025SOL    HW256909   2.146  11.035  13.432
85026SOL     OW56910   5.222   3.651   1.433
85026SOL    HW156911   5.209   3.598   1.512
85026SOL    HW256912   5.308   3.624   1.400
85027SOL     OW56913  11.004   2.512   6.849
85027SOL    HW156914  10.971   2.470   6.770
85027SOL    HW256915  11.099   2.512   6.838
85028SOL     OW56916   4.704  11.071   7.555
85028SOL    HW156917   4.685  11.145   7.614
85028SOL    HW256918   4.672  11.100   7.470
85029SOL     OW56919   7.318   0.618   5.631
85029SOL    HW156920   7.264   0.680   5.679
85029SOL    HW256921   7.286   0.623   5.541
85030SOL     OW56922   7.094   3.918   2.870
85030SOL    HW156923   7.131   3.833   2.894
85030SOL    HW256924   7.130   3.936   2.783
85031SOL     OW56925   4.737   2.431  10.457
85031SOL    HW156926   4.823   2.453  10.493
85031SOL    HW256927   4.719   2.500  10.395
85032SOL     OW56928   1.236   3.293   7.509
85032SOL    HW156929   1.321   3.335   7.523
85032SOL    HW256930   1.245   3.249   7.424
85033SOL     OW56931   2.688  13.982   1.208
85033SOL    HW156932   2.617  13.927   1.176
85033SOL    HW256933   2.745  13.923   1.257
85034SOL     OW56934  12.126   5.952   0.032
85034SOL    HW156935  12.181   6.017   0.075
85034SOL    HW256936  12.156   5.950  14.820
85035SOL     OW56937  14.429   4.618   7.773
85035SOL    HW156938  14.354   4.643   7.718
85035SOL    HW256939  14.434   4.685   7.840
85036SOL     OW56940   5.896  14.406   4.623
85036SOL    HW156941   5.888  14.384   4.530
85036SOL    HW256942   5.827  14.470   4.639
85037SOL     OW56943   6.412   3.599   1.524
85037SOL    HW156944   6.383   3.568   1.438
85037SOL    HW256945   6.433   3.519   1.573
85038SOL     OW56946  14.324   8.530   5.323
85038SOL    HW156947  14.290   8.605   5.274
85038SOL    HW256948  14.260   8.517   5.394
85039SOL     OW56949   0.047   0.317   7.482
85039SOL    HW156950   0.137   0.322   7.450
85039SOL    HW256951   0.051   0.346   7.573
85040SOL     OW56952   2.099   3.861   2.559
85040SOL    HW156953   2.136   3.949   2.562
85040SOL    HW256954   2.016   3.871   2.512
85041SOL     OW56955   8.537   5.069  10.731
85041SOL    HW156956   8.448   5.083  10.765
85041SOL    HW256957   8.533   5.100  10.641
85042SOL     OW56958   7.021  11.942   1.008
85042SOL    HW156959   7.024  11.896   1.092
85042SOL    HW256960   7.112  11.971   0.995
85043SOL     OW56961  10.587   6.390   4.817
85043SOL    HW156962  10.670   6.349   4.794
85043SOL    HW256963  10.531   6.318   4.844
85044SOL     OW56964  12.374   6.980   7.254
85044SOL    HW156965  12.308   6.933   7.304
85044SOL    HW256966  12.429   6.911   7.215
85045SOL     OW56967   4.606   3.052  14.519
85045SOL    HW156968   4.684   3.002  14.546
85045SOL    HW256969   4.590   3.023  14.429
85046SOL     OW56970  14.452   4.036   7.092
85046SOL    HW156971  14.482   3.971   7.028
85046SOL    HW256972  14.525   4.047   7.152
85047SOL     OW56973   4.100   8.984   9.395
85047SOL    HW156974   4.013   8.953   9.423
85047SOL    HW256975   4.155   8.972   9.472
85048SOL     OW56976   4.600   9.931   2.426
85048SOL    HW156977   4.597   9.963   2.517
85048SOL    HW256978   4.597  10.010   2.373
85049SOL     OW56979   1.545   0.274   5.592
85049SOL    HW156980   1.483   0.212   5.631
85049SOL    HW256981   1.493   0.352   5.573
85050SOL     OW56982   5.187   5.912  11.450
85050SOL    HW156983   5.192   5.848  11.380
85050SOL    HW256984   5.250   5.882  11.515
85051SOL     OW56985  12.234   2.341   2.731
85051SOL    HW156986  12.200   2.320   2.818
85051SOL    HW256987  12.313   2.392   2.748
85052SOL     OW56988  10.281   5.423   8.504
85052SOL    HW156989  10.236   5.367   8.441
85052SOL    HW256990  10.293   5.506   8.458
85053SOL     OW56991   6.142   8.001  12.799
85053SOL    HW156992   6.168   8.035  12.713
85053SOL    HW256993   6.047   7.994  12.794
85054SOL     OW56994   5.772   2.876  14.349
85054SOL    HW156995   5.860   2.877  14.310
85054SOL    HW256996   5.785   2.914  14.436
85055SOL     OW56997   1.256   4.047  13.580
85055SOL    HW156998   1.165   4.077  13.577
85055SOL    HW256999   1.279   4.031  13.488
85056SOL     OW57000   5.076  12.214   2.719
85056SOL    HW157001   5.138  12.174   2.658
85056SOL    HW257002   5.064  12.303   2.685
85057SOL     OW57003  12.310   0.087   7.907
85057SOL    HW157004  12.299   0.075   7.813
85057SOL    HW257005  12.398   0.054   7.925
85058SOL     OW57006  14.728   3.561   5.576
85058SOL    HW157007  14.722   3.656   5.582
85058SOL    HW257008  14.819   3.544   5.551
85059SOL     OW57009  12.778  14.579   6.407
85059SOL    HW157010  12.739  14.492   6.412
85059SOL    HW257011  12.850  14.570   6.346
85060SOL     OW57012   0.482   3.920  11.218
85060SOL    HW157013   0.426   3.963  11.153
85060SOL    HW257014   0.571   3.945  11.194
85061SOL     OW57015   3.851   6.916   7.719
85061SOL    HW157016   3.931   6.966   7.731
85061SOL    HW257017   3.822   6.895   7.808
85062SOL     OW57018   4.339  14.553   4.427
85062SOL    HW157019   4.263  14.580   4.375
85062SOL    HW257020   4.413  14.559   4.366
85063SOL     OW57021   7.166  14.043   3.706
85063SOL    HW157022   7.138  14.057   3.616
85063SOL    HW257023   7.261  14.059   3.704
85064SOL     OW57024  11.638   7.324   8.651
85064SOL    HW157025  11.676   7.387   8.590
85064SOL    HW257026  11.544   7.338   8.645
85065SOL     OW57027  11.972  13.846   7.495
85065SOL    HW157028  11.960  13.756   7.464
85065SOL    HW257029  11.890  13.890   7.473
85066SOL     OW57030   6.446   9.943   5.832
85066SOL    HW157031   6.441   9.848   5.847
85066SOL    HW257032   6.517   9.953   5.769
85067SOL     OW57033   7.858   9.263   0.425
85067SOL    HW157034   7.920   9.232   0.358
85067SOL    HW257035   7.829   9.348   0.393
85068SOL     OW57036   7.715   4.549   5.667
85068SOL    HW157037   7.776   4.623   5.663
85068SOL    HW257038   7.632   4.588   5.696
85069SOL     OW57039   5.237   8.359   8.951
85069SOL    HW157040   5.332   8.346   8.954
85069SOL    HW257041   5.214   8.389   9.039
85070SOL     OW57042  14.645   3.783   0.762
85070SOL    HW157043  14.589   3.851   0.724
85070SOL    HW257044  14.700   3.754   0.690
85071SOL     OW57045  12.070  10.850   6.714
85071SOL    HW157046  12.128  10.920   6.684
85071SOL    HW257047  11.998  10.895   6.757
85072SOL     OW57048  13.132   5.891   3.383
85072SOL    HW157049  13.085   5.930   3.457
85072SOL    HW257050  13.074   5.822   3.351
85073SOL     OW57051  12.441   1.211   8.233
85073SOL    HW157052  12.464   1.290   8.282
85073SOL    HW257053  12.361   1.235   8.185
85074SOL     OW57054   2.395   6.900   1.219
85074SOL    HW157055   2.376   6.989   1.189
85074SOL    HW257056   2.427   6.911   1.308
85075SOL     OW57057   6.788  12.409   6.485
85075SOL    HW157058   6.809  12.478   6.548
85075SOL    HW257059   6.696  12.389   6.502
85076SOL     OW57060   4.853   2.860  10.988
85076SOL    HW157061   4.851   2.795  10.918
85076SOL    HW257062   4.850   2.808  11.068
85077SOL     OW57063   7.484   8.475  11.928
85077SOL    HW157064   7.551   8.421  11.885
85077SOL    HW257065   7.425   8.412  11.969
85078SOL     OW57066  11.230   8.152   3.859
85078SOL    HW157067  11.185   8.083   3.908
85078SOL    HW257068  11.161   8.198   3.811
85079SOL     OW57069   7.754   5.823   5.565
85079SOL    HW157070   7.704   5.818   5.483
85079SOL    HW257071   7.709   5.891   5.616
85080SOL     OW57072   1.873   3.641   0.774
85080SOL    HW157073   1.886   3.706   0.843
85080SOL    HW257074   1.960   3.629   0.736
85081SOL     OW57075   1.196   7.714  11.799
85081SOL    HW157076   1.115   7.763  11.783
85081SOL    HW257077   1.166   7.630  11.833
85082SOL     OW57078   5.467   3.467   7.449
85082SOL    HW157079   5.509   3.384   7.470
85082SOL    HW257080   5.537   3.532   7.454
85083SOL     OW57081   2.135   4.410   5.588
85083SOL    HW157082   2.184   4.475   5.637
85083SOL    HW257083   2.197   4.377   5.523
85084SOL     OW57084   5.161  14.258   1.176
85084SOL    HW157085   5.167  14.352   1.192
85084SOL    HW257086   5.221  14.242   1.103
85085SOL     OW57087   1.503   7.418   2.034
85085SOL    HW157088   1.435   7.484   2.022
85085SOL    HW257089   1.489   7.356   1.962
85086SOL     OW57090  14.559   5.186   4.467
85086SOL    HW157091  14.582   5.157   4.556
85086SOL    HW257092  14.528   5.276   4.479
85087SOL     OW57093   3.586  13.476   6.012
85087SOL    HW157094   3.551  13.446   5.928
85087SOL    HW257095   3.624  13.562   5.992
85088SOL     OW57096  11.529   8.781  12.373
85088SOL    HW157097  11.593   8.774  12.302
85088SOL    HW257098  11.447   8.751  12.333
85089SOL     OW57099   9.770   5.415  11.248
85089SOL    HW157100   9.864   5.412  11.266
85089SOL    HW257101   9.759   5.496  11.198
85090SOL     OW57102   7.611   8.879   1.071
85090SOL    HW157103   7.602   8.787   1.094
85090SOL    HW257104   7.630   8.879   0.977
85091SOL     OW57105   8.136  10.648  14.343
85091SOL    HW157106   8.100  10.589  14.408
85091SOL    HW257107   8.109  10.735  14.372
85092SOL     OW57108   9.609   0.861   9.238
85092SOL    HW157109   9.680   0.881   9.176
85092SOL    HW257110   9.621   0.924   9.309
85093SOL     OW57111   5.456  13.703   8.639
85093SOL    HW157112   5.465  13.662   8.725
85093SOL    HW257113   5.384  13.765   8.650
85094SOL     OW57114   9.132  14.604   6.879
85094SOL    HW157115   9.038  14.592   6.863
85094SOL    HW257116   9.137  14.663   6.954
85095SOL     OW57117  11.948   1.914  10.352
85095SOL    HW157118  11.939   1.862  10.431
85095SOL    HW257119  11.858   1.935  10.326
85096SOL     OW57120   6.460  13.807   3.448
85096SOL    HW157121   6.389  13.870   3.447
85096SOL    HW257122   6.426  13.732   3.398
85097SOL     OW57123  10.932   4.314   1.864
85097SOL    HW157124  10.846   4.335   1.828
85097SOL    HW257125  10.967   4.248   1.804
85098SOL     OW57126  11.414   2.093   7.772
85098SOL    HW157127  11.441   2.002   7.782
85098SOL    HW257128  11.370   2.114   7.854
85099SOL     OW57129   4.530   7.827  14.350
85099SOL    HW157130   4.475   7.859  14.422
85099SOL    HW257131   4.595   7.897  14.337
85100SOL     OW57132   3.747   5.873   2.218
85100SOL    HW157133   3.758   5.845   2.127
85100SOL    HW257134   3.784   5.801   2.269
85101SOL     OW57135  11.923   5.712   0.956
85101SOL    HW157136  12.017   5.698   0.969
85101SOL    HW257137  11.893   5.751   1.037
85102SOL     OW57138   2.651   4.496   7.351
85102SOL    HW157139   2.730   4.543   7.377
85102SOL    HW257140   2.631   4.529   7.264
85103SOL     OW57141  12.661   9.664  10.738
85103SOL    HW157142  12.629   9.752  10.760
85103SOL    HW257143  12.728   9.646  10.804
85104SOL     OW57144   2.219  12.871   8.055
85104SOL    HW157145   2.229  12.922   8.135
85104SOL    HW257146   2.166  12.926   7.997
85105SOL     OW57147   1.867  10.715   1.256
85105SOL    HW157148   1.873  10.724   1.351
85105SOL    HW257149   1.924  10.640   1.236
85106SOL     OW57150  14.667  14.324  14.675
85106SOL    HW157151  14.698  14.327  14.765
85106SOL    HW257152  14.671  14.414  14.645
85107SOL     OW57153   4.715   9.681   1.871
85107SOL    HW157154   4.627   9.654   1.901
85107SOL    HW257155   4.773   9.652   1.941
85108SOL     OW57156   9.964  11.587   5.265
85108SOL    HW157157  10.014  11.507   5.248
85108SOL    HW257158   9.978  11.641   5.187
85109SOL     OW57159   9.707  13.654   2.795
85109SOL    HW157160   9.768  13.622   2.730
85109SOL    HW257161   9.689  13.579   2.851
85110SOL     OW57162   3.395   5.629   3.196
85110SOL    HW157163   3.371   5.709   3.149
85110SOL    HW257164   3.489   5.635   3.208
85111SOL     OW57165  12.453  14.394  14.401
85111SOL    HW157166  12.369  14.391  14.354
85111SOL    HW257167  12.449  14.477  14.450
85112SOL     OW57168  13.403   1.470  12.663
85112SOL    HW157169  13.310   1.449  12.652
85112SOL    HW257170  13.423   1.530  12.591
85113SOL     OW57171   2.301   2.494   8.105
85113SOL    HW157172   2.390   2.528   8.115
85113SOL    HW257173   2.296   2.423   8.170
85114SOL     OW57174   6.243   9.877  10.894
85114SOL    HW157175   6.166   9.827  10.867
85114SOL    HW257176   6.227   9.965  10.861
85115SOL     OW57177  12.165  10.204   7.032
85115SOL    HW157178  12.197  10.294   7.042
85115SOL    HW257179  12.126  10.183   7.116
85116SOL     OW57180  11.058  10.534   6.136
85116SOL    HW157181  11.091  10.583   6.212
85116SOL    HW257182  11.123  10.466   6.121
85117SOL     OW57183  10.008  11.840   0.767
85117SOL    HW157184   9.970  11.912   0.716
85117SOL    HW257185   9.993  11.864   0.858
85118SOL     OW57186   6.736   0.670   1.343
85118SOL    HW157187   6.700   0.749   1.303
85118SOL    HW257188   6.694   0.598   1.296
85119SOL     OW57189   7.339  12.547  14.730
85119SOL    HW157190   7.369  12.494  14.656
85119SOL    HW257191   7.354  12.491  14.807
85120SOL     OW57192  12.705   7.741   1.459
85120SOL    HW157193  12.668   7.757   1.372
85120SOL    HW257194  12.785   7.692   1.442
85121SOL     OW57195   6.208   9.417  14.045
85121SOL    HW157196   6.287   9.454  14.083
85121SOL    HW257197   6.137   9.468  14.082
85122SOL     OW57198   9.393   2.178   9.912
85122SOL    HW157199   9.400   2.087   9.941
85122SOL    HW257200   9.346   2.223   9.982
85123SOL     OW57201   4.152   0.134  11.520
85123SOL    HW157202   4.246   0.143  11.536
85123SOL    HW257203   4.126   0.220  11.488
85124SOL     OW57204   2.020   3.546   3.288
85124SOL    HW157205   2.069   3.526   3.209
85124SOL    HW257206   2.029   3.641   3.299
85125SOL     OW57207   0.762   0.277   5.072
85125SOL    HW157208   0.832   0.280   5.138
85125SOL    HW257209   0.683   0.299   5.120
85126SOL     OW57210  10.376   2.372   9.057
85126SOL    HW157211  10.342   2.404   9.140
85126SOL    HW257212  10.458   2.420   9.044
85127SOL     OW57213   0.871   8.308   3.263
85127SOL    HW157214   0.958   8.330   3.296
85127SOL    HW257215   0.863   8.214   3.278
85128SOL     OW57216   6.596   1.635   8.523
85128SOL    HW157217   6.562   1.615   8.435
85128SOL    HW257218   6.686   1.662   8.508
85129SOL     OW57219   5.286   6.422  13.811
85129SOL    HW157220   5.335   6.487  13.861
85129SOL    HW257221   5.342   6.402  13.735
85130SOL     OW57222  13.041   9.842   6.742
85130SOL    HW157223  13.027   9.932   6.771
85130SOL    HW257224  12.966   9.793   6.777
85131SOL     OW57225  11.670   0.426   7.892
85131SOL    HW157226  11.663   0.373   7.972
85131SOL    HW257227  11.718   0.371   7.831
85132SOL     OW57228   9.596   5.490   8.190
85132SOL    HW157229   9.629   5.453   8.108
85132SOL    HW257230   9.674   5.495   8.246
85133SOL     OW57231   1.203   6.047   8.760
85133SOL    HW157232   1.216   5.969   8.706
85133SOL    HW257233   1.204   6.119   8.697
85134SOL     OW57234  13.545   2.312  14.143
85134SOL    HW157235  13.456   2.276  14.143
85134SOL    HW257236  13.536   2.397  14.187
85135SOL     OW57237  10.310   5.895  12.714
85135SOL    HW157238  10.287   5.838  12.640
85135SOL    HW257239  10.356   5.837  12.775
85136SOL     OW57240   9.208   7.300  11.408
85136SOL    HW157241   9.298   7.332  11.416
85136SOL    HW257242   9.210   7.242  11.331
85137SOL     OW57243   9.650   6.188  11.248
85137SOL    HW157244   9.685   6.138  11.174
85137SOL    HW257245   9.661   6.131  11.324
85138SOL     OW57246   8.261   6.507   1.610
85138SOL    HW157247   8.319   6.538   1.679
85138SOL    HW257248   8.304   6.531   1.529
85139SOL     OW57249  10.498   1.186  12.417
85139SOL    HW157250  10.501   1.097  12.452
85139SOL    HW257251  10.470   1.240  12.491
85140SOL     OW57252   4.965  13.993   0.238
85140SOL    HW157253   4.882  14.037   0.256
85140SOL    HW257254   4.982  14.011   0.145
85141SOL     OW57255  10.586  10.338   9.397
85141SOL    HW157256  10.642  10.385   9.335
85141SOL    HW257257  10.539  10.407   9.444
85142SOL     OW57258   8.873   1.941  13.781
85142SOL    HW157259   8.790   1.962  13.825
85142SOL    HW257260   8.852   1.866  13.726
85143SOL     OW57261  12.905  14.470  11.524
85143SOL    HW157262  12.903  14.542  11.587
85143SOL    HW257263  12.996  14.464  11.496
85144SOL     OW57264  12.331  14.828   0.031
85144SOL    HW157265  12.246  14.796   0.060
85144SOL    HW257266  12.380  14.842   0.112
85145SOL     OW57267  12.793   0.149   0.392
85145SOL    HW157268  12.806   0.123   0.483
85145SOL    HW257269  12.735   0.225   0.397
85146SOL     OW57270  12.675   2.878   7.903
85146SOL    HW157271  12.759   2.887   7.858
85146SOL    HW257272  12.693   2.816   7.974
85147SOL     OW57273   4.971   7.029   1.696
85147SOL    HW157274   4.954   6.939   1.665
85147SOL    HW257275   4.979   7.080   1.616
85148SOL     OW57276  14.488  11.177   0.977
85148SOL    HW157277  14.395  11.153   0.982
85148SOL    HW257278  14.506  11.218   1.062
85149SOL     OW57279   2.081   1.811   9.967
85149SOL    HW157280   1.995   1.854   9.965
85149SOL    HW257281   2.110   1.813   9.876
85150SOL     OW57282   0.468   5.208  13.914
85150SOL    HW157283   0.529   5.196  13.987
85150SOL    HW257284   0.401   5.142  13.928
85151SOL     OW57285   3.470  14.084   9.377
85151SOL    HW157286   3.543  14.124   9.426
85151SOL    HW257287   3.409  14.056   9.445
85152SOL     OW57288  11.821  12.261  13.742
85152SOL    HW157289  11.742  12.239  13.791
85152SOL    HW257290  11.806  12.349  13.709
85153SOL     OW57291   6.979   8.358   1.420
85153SOL    HW157292   6.962   8.444   1.382
85153SOL    HW257293   6.895   8.313   1.416
85154SOL     OW57294  12.651   1.757   5.553
85154SOL    HW157295  12.697   1.729   5.633
85154SOL    HW257296  12.672   1.850   5.545
85155SOL     OW57297  10.110  11.641   2.974
85155SOL    HW157298  10.016  11.639   2.991
85155SOL    HW257299  10.118  11.622   2.881
85156SOL     OW57300  10.145  13.301  13.721
85156SOL    HW157301  10.101  13.227  13.764
85156SOL    HW257302  10.081  13.372  13.724
85157SOL     OW57303   7.992   7.728   0.552
85157SOL    HW157304   7.961   7.639   0.564
85157SOL    HW257305   7.918   7.774   0.511
85158SOL     OW57306   7.187   3.450   5.346
85158SOL    HW157307   7.212   3.365   5.382
85158SOL    HW257308   7.209   3.444   5.253
85159SOL     OW57309  11.798   4.562   2.979
85159SOL    HW157310  11.720   4.514   3.007
85159SOL    HW257311  11.806   4.543   2.886
85160SOL     OW57312  14.470  11.375   2.778
85160SOL    HW157313  14.483  11.287   2.812
85160SOL    HW257314  14.408  11.415   2.839
85161SOL     OW57315   2.946   7.250   4.892
85161SOL    HW157316   2.961   7.326   4.949
85161SOL    HW257317   3.008   7.184   4.923
85162SOL     OW57318  13.541   2.590   6.337
85162SOL    HW157319  13.562   2.500   6.361
85162SOL    HW257320  13.471   2.581   6.272
85163SOL     OW57321  14.393   1.231   1.862
85163SOL    HW157322  14.486   1.257   1.863
85163SOL    HW257323  14.349   1.300   1.912
85164SOL     OW57324   2.736   1.542  12.300
85164SOL    HW157325   2.792   1.585  12.365
85164SOL    HW257326   2.794   1.527  12.225
85165SOL     OW57327   8.915   7.825   6.702
85165SOL    HW157328   8.869   7.894   6.750
85165SOL    HW257329   8.871   7.744   6.729
85166SOL     OW57330   6.691  11.716   6.851
85166SOL    HW157331   6.689  11.764   6.934
85166SOL    HW257332   6.660  11.779   6.786
85167SOL     OW57333   1.580   2.451   2.337
85167SOL    HW157334   1.642   2.460   2.409
85167SOL    HW257335   1.614   2.379   2.284
85168SOL     OW57336  14.317  13.366   6.948
85168SOL    HW157337  14.259  13.313   7.002
85168SOL    HW257338  14.312  13.327   6.861
85169SOL     OW57339   5.777   8.588   9.957
85169SOL    HW157340   5.863   8.553   9.934
85169SOL    HW257341   5.741   8.618   9.874
85170SOL     OW57342   4.831  14.793  11.382
85170SOL    HW157343   4.814  14.700  11.392
85170SOL    HW257344   4.764  14.823  11.321
85171SOL     OW57345  13.849  13.685   0.439
85171SOL    HW157346  13.871  13.612   0.497
85171SOL    HW257347  13.905  13.757   0.468
85172SOL     OW57348   2.183   4.382  11.648
85172SOL    HW157349   2.131   4.330  11.586
85172SOL    HW257350   2.225   4.448  11.593
85173SOL     OW57351  13.219  11.320  11.393
85173SOL    HW157352  13.217  11.291  11.302
85173SOL    HW257353  13.224  11.415  11.388
85174SOL     OW57354  12.179  14.394   5.502
85174SOL    HW157355  12.095  14.399   5.548
85174SOL    HW257356  12.232  14.335   5.556
85175SOL     OW57357  14.763   0.322  10.958
85175SOL    HW157358  14.696   0.379  10.997
85175SOL    HW257359  14.806   0.377  10.893
85176SOL     OW57360  11.150   5.158   2.599
85176SOL    HW157361  11.154   5.163   2.504
85176SOL    HW257362  11.172   5.067   2.619
85177SOL     OW57363   4.178  12.950  10.243
85177SOL    HW157364   4.215  12.862  10.255
85177SOL    HW257365   4.192  12.969  10.150
85178SOL     OW57366  14.681   1.423  12.020
85178SOL    HW157367  14.683   1.403  12.113
85178SOL    HW257368  14.716   1.344  11.978
85179SOL     OW57369   8.089  13.960  11.531
85179SOL    HW157370   8.054  13.878  11.567
85179SOL    HW257371   8.086  13.948  11.436
85180SOL     OW57372   9.374   8.466  11.030
85180SOL    HW157373   9.445   8.403  11.039
85180SOL    HW257374   9.297   8.413  11.010
85181SOL     OW57375  11.344  11.700  11.264
85181SOL    HW157376  11.329  11.614  11.227
85181SOL    HW257377  11.345  11.759  11.188
85182SOL     OW57378   2.806   6.956  12.124
85182SOL    HW157379   2.826   7.047  12.103
85182SOL    HW257380   2.717   6.957  12.157
85183SOL     OW57381   2.394  13.296   6.162
85183SOL    HW157382   2.400  13.392   6.160
85183SOL    HW257383   2.455  13.270   6.231
85184SOL     OW57384   9.220  11.094   1.471
85184SOL    HW157385   9.248  11.004   1.452
85184SOL    HW257386   9.282  11.150   1.425
85185SOL     OW57387  13.888  14.529  10.895
85185SOL    HW157388  13.804  14.513  10.938
85185SOL    HW257389  13.951  14.537  10.967
85186SOL     OW57390   4.725  14.138  12.616
85186SOL    HW157391   4.746  14.231  12.604
85186SOL    HW257392   4.786  14.092  12.559
85187SOL     OW57393  12.816  13.611  13.669
85187SOL    HW157394  12.911  13.599  13.674
85187SOL    HW257395  12.804  13.681  13.605
85188SOL     OW57396   2.420  12.868  13.343
85188SOL    HW157397   2.400  12.945  13.397
85188SOL    HW257398   2.345  12.860  13.284
85189SOL     OW57399   6.967  12.509  12.979
85189SOL    HW157400   6.920  12.584  12.944
85189SOL    HW257401   6.962  12.519  13.074
85190SOL     OW57402   8.981   3.856   8.526
85190SOL    HW157403   8.984   3.776   8.474
85190SOL    HW257404   9.022   3.832   8.609
85191SOL     OW57405   9.054   9.587   1.414
85191SOL    HW157406   8.980   9.529   1.432
85191SOL    HW257407   9.057   9.646   1.490
85192SOL     OW57408  10.432   0.076   0.591
85192SOL    HW157409  10.525   0.078   0.570
85192SOL    HW257410  10.418   0.155   0.643
85193SOL     OW57411   4.802   3.584   7.479
85193SOL    HW157412   4.791   3.661   7.535
85193SOL    HW257413   4.726   3.528   7.501
85194SOL     OW57414   1.316  14.378   1.954
85194SOL    HW157415   1.225  14.386   1.985
85194SOL    HW257416   1.341  14.467   1.929
85195SOL     OW57417   1.823   7.593  10.809
85195SOL    HW157418   1.901   7.581  10.863
85195SOL    HW257419   1.751   7.602  10.872
85196SOL     OW57420   4.473   7.797  10.296
85196SOL    HW157421   4.542   7.736  10.272
85196SOL    HW257422   4.513   7.884  10.286
85197SOL     OW57423   1.529   4.322   1.569
85197SOL    HW157424   1.477   4.279   1.501
85197SOL    HW257425   1.617   4.285   1.559
85198SOL     OW57426   7.503   6.065   8.585
85198SOL    HW157427   7.505   6.093   8.676
85198SOL    HW257428   7.425   6.107   8.548
85199SOL     OW57429   3.288   2.098   0.714
85199SOL    HW157430   3.321   2.137   0.633
85199SOL    HW257431   3.363   2.051   0.750
85200SOL     OW57432   7.568   6.622   6.053
85200SOL    HW157433   7.535   6.692   5.997
85200SOL    HW257434   7.502   6.614   6.122
85201SOL     OW57435   7.210   0.946  11.938
85201SOL    HW157436   7.297   0.986  11.931
85201SOL    HW257437   7.211   0.899  12.021
85202SOL     OW57438  11.771   3.052   3.819
85202SOL    HW157439  11.793   2.965   3.786
85202SOL    HW257440  11.852   3.085   3.858
85203SOL     OW57441   2.110  11.017  10.953
85203SOL    HW157442   2.081  11.097  10.908
85203SOL    HW257443   2.098  10.948  10.887
85204SOL     OW57444  10.408  10.233   6.213
85204SOL    HW157445  10.439  10.214   6.124
85204SOL    HW257446  10.379  10.325   6.209
85205SOL     OW57447   0.141   3.595   0.658
85205SOL    HW157448   0.059   3.633   0.627
85205SOL    HW257449   0.113   3.520   0.712
85206SOL     OW57450  11.654  14.131   8.919
85206SOL    HW157451  11.740  14.163   8.892
85206SOL    HW257452  11.612  14.102   8.838
85207SOL     OW57453   3.500  10.048   5.653
85207SOL    HW157454   3.534  10.024   5.740
85207SOL    HW257455   3.499  10.144   5.654
85208SOL     OW57456   1.037   8.527   6.512
85208SOL    HW157457   0.958   8.540   6.460
85208SOL    HW257458   1.033   8.435   6.539
85209SOL     OW57459  10.205   0.498  10.274
85209SOL    HW157460  10.261   0.431  10.311
85209SOL    HW257461  10.244   0.581  10.301
85210SOL     OW57462   1.094   9.773   1.233
85210SOL    HW157463   1.113   9.857   1.274
85210SOL    HW257464   1.140   9.709   1.287
85211SOL     OW57465   0.738   5.103   6.950
85211SOL    HW157466   0.748   5.145   6.865
85211SOL    HW257467   0.645   5.110   6.970
85212SOL     OW57468   0.076  11.892  12.912
85212SOL    HW157469  14.872  11.845  12.907
85212SOL    HW257470   0.130  11.851  12.844
85213SOL     OW57471  11.265  13.204   7.102
85213SOL    HW157472  11.241  13.266   7.171
85213SOL    HW257473  11.321  13.140   7.146
85214SOL     OW57474   0.520  14.164  13.931
85214SOL    HW157475   0.434  14.175  13.891
85214SOL    HW257476   0.565  14.101  13.875
85215SOL     OW57477  14.495   6.854   7.215
85215SOL    HW157478  14.507   6.770   7.173
85215SOL    HW257479  14.507   6.836   7.309
85216SOL     OW57480  10.443  13.870   1.399
85216SOL    HW157481  10.493  13.872   1.480
85216SOL    HW257482  10.352  13.857   1.426
85217SOL     OW57483   6.875   5.890  11.100
85217SOL    HW157484   6.882   5.936  11.016
85217SOL    HW257485   6.867   5.960  11.165
85218SOL     OW57486   2.469  10.467   8.647
85218SOL    HW157487   2.427  10.390   8.608
85218SOL    HW257488   2.412  10.540   8.624
85219SOL     OW57489   2.746  10.800  14.817
85219SOL    HW157490   2.761  10.708  14.795
85219SOL    HW257491   2.785  10.849  14.744
85220SOL     OW57492   9.391   5.426   0.115
85220SOL    HW157493   9.309   5.410   0.162
85220SOL    HW257494   9.447   5.469   0.179
85221SOL     OW57495  10.413   6.756  11.990
85221SOL    HW157496  10.500   6.771  12.028
85221SOL    HW257497  10.384   6.843  11.962
85222SOL     OW57498   9.670  14.561  11.592
85222SOL    HW157499   9.669  14.557  11.496
85222SOL    HW257500   9.737  14.625  11.613
85223SOL     OW57501   0.225  10.324   1.118
85223SOL    HW157502   0.157  10.276   1.071
85223SOL    HW257503   0.307  10.283   1.090
85224SOL     OW57504   6.092  12.492   8.548
85224SOL    HW157505   6.120  12.401   8.532
85224SOL    HW257506   6.067  12.524   8.462
85225SOL     OW57507  11.374  13.917   8.289
85225SOL    HW157508  11.294  13.966   8.270
85225SOL    HW257509  11.413  13.963   8.364
85226SOL     OW57510   6.524  11.057   7.662
85226SOL    HW157511   6.445  11.099   7.696
85226SOL    HW257512   6.494  11.001   7.591
85227SOL     OW57513   3.851   2.894   0.517
85227SOL    HW157514   3.841   2.989   0.513
85227SOL    HW257515   3.944   2.880   0.532
85228SOL     OW57516   3.727   9.269   8.215
85228SOL    HW157517   3.779   9.302   8.289
85228SOL    HW257518   3.784   9.283   8.139
85229SOL     OW57519   1.968   7.351   9.750
85229SOL    HW157520   1.899   7.296   9.713
85229SOL    HW257521   1.936   7.440   9.739
85230SOL     OW57522   8.112   4.510  11.902
85230SOL    HW157523   8.195   4.541  11.938
85230SOL    HW257524   8.132   4.488  11.811
85231SOL     OW57525   0.162   0.541   0.341
85231SOL    HW157526   0.248   0.546   0.383
85231SOL    HW257527   0.105   0.592   0.399
85232SOL     OW57528  13.495  10.120   5.931
85232SOL    HW157529  13.547  10.196   5.959
85232SOL    HW257530  13.556  10.064   5.884
85233SOL     OW57531   7.771   0.950  12.435
85233SOL    HW157532   7.825   0.924  12.360
85233SOL    HW257533   7.694   0.893  12.428
85234SOL     OW57534  13.819   3.293   3.928
85234SOL    HW157535  13.783   3.243   4.002
85234SOL    HW257536  13.763   3.370   3.922
85235SOL     OW57537   8.973   7.036  14.704
85235SOL    HW157538   8.887   7.073  14.680
85235SOL    HW257539   8.969   6.945  14.675
85236SOL     OW57540   5.312   4.206  14.365
85236SOL    HW157541   5.360   4.126  14.386
85236SOL    HW257542   5.322   4.215  14.270
85237SOL     OW57543  11.721  13.351   1.560
85237SOL    HW157544  11.649  13.288   1.554
85237SOL    HW257545  11.769  13.324   1.639
85238SOL     OW57546   4.459  10.991   0.173
85238SOL    HW157547   4.381  11.036   0.141
85238SOL    HW257548   4.528  11.057   0.171
85239SOL     OW57549   7.510  12.017  14.294
85239SOL    HW157550   7.580  12.000  14.358
85239SOL    HW257551   7.444  12.066  14.343
85240SOL     OW57552   1.450   7.422  11.525
85240SOL    HW157553   1.508   7.411  11.449
85240SOL    HW257554   1.391   7.492  11.500
85241SOL     OW57555   0.751  11.663   7.986
85241SOL    HW157556   0.671  11.695   8.027
85241SOL    HW257557   0.756  11.708   7.902
85242SOL     OW57558  11.207   4.771  12.200
85242SOL    HW157559  11.299   4.764  12.228
85242SOL    HW257560  11.199   4.861  12.168
85243SOL     OW57561   1.566  12.432   0.231
85243SOL    HW157562   1.537  12.523   0.231
85243SOL    HW257563   1.655  12.435   0.265
85244SOL     OW57564   3.498   7.041   0.826
85244SOL    HW157565   3.582   7.080   0.853
85244SOL    HW257566   3.465   6.999   0.906
85245SOL     OW57567  11.094   8.443  13.060
85245SOL    HW157568  11.053   8.400  13.136
85245SOL    HW257569  11.140   8.373  13.014
85246SOL     OW57570   8.555   6.330  12.653
85246SOL    HW157571   8.483   6.383  12.687
85246SOL    HW257572   8.611   6.392  12.606
85247SOL     OW57573   8.641  14.290   7.488
85247SOL    HW157574   8.682  14.367   7.529
85247SOL    HW257575   8.680  14.286   7.401
85248SOL     OW57576   9.311   5.865   7.542
85248SOL    HW157577   9.405   5.877   7.528
85248SOL    HW257578   9.284   5.801   7.476
85249SOL     OW57579   7.479  10.922  13.128
85249SOL    HW157580   7.436  10.973  13.060
85249SOL    HW257581   7.414  10.856  13.154
85250SOL     OW57582  11.440  14.643  11.662
85250SOL    HW157583  11.451  14.671  11.571
85250SOL    HW257584  11.454  14.548  11.660
85251SOL     OW57585   0.093  13.924   7.020
85251SOL    HW157586   0.137  13.988   6.964
85251SOL    HW257587   0.011  13.905   6.976
85252SOL     OW57588  10.662   0.223   1.190
85252SOL    HW157589  10.626   0.219   1.101
85252SOL    HW257590  10.739   0.166   1.186
85253SOL     OW57591   5.042   0.343  13.214
85253SOL    HW157592   5.081   0.360  13.299
85253SOL    HW257593   5.092   0.269  13.179
85254SOL     OW57594  11.065   1.045   2.474
85254SOL    HW157595  11.097   1.132   2.499
85254SOL    HW257596  11.012   1.061   2.396
85255SOL     OW57597   2.376   5.163  13.217
85255SOL    HW157598   2.416   5.247  13.238
85255SOL    HW257599   2.328   5.138  13.296
85256SOL     OW57600  13.502   0.607   6.378
85256SOL    HW157601  13.480   0.518   6.349
85256SOL    HW257602  13.425   0.659   6.357
85257SOL     OW57603  13.319   8.898  10.826
85257SOL    HW157604  13.244   8.895  10.766
85257SOL    HW257605  13.323   8.989  10.855
85258SOL     OW57606   1.642   6.780   9.803
85258SOL    HW157607   1.587   6.757   9.878
85258SOL    HW257608   1.581   6.808   9.736
85259SOL     OW57609   8.701  11.314  10.323
85259SOL    HW157610   8.720  11.320  10.229
85259SOL    HW257611   8.768  11.367  10.364
85260SOL     OW57612   0.490   0.678   4.864
85260SOL    HW157613   0.497   0.738   4.938
85260SOL    HW257614   0.396   0.677   4.843
85261SOL     OW57615  10.478  14.471   1.354
85261SOL    HW157616  10.492  14.482   1.260
85261SOL    HW257617  10.397  14.420   1.361
85262SOL     OW57618   7.379  12.135  12.994
85262SOL    HW157619   7.368  12.171  13.082
85262SOL    HW257620   7.425  12.204  12.946
85263SOL     OW57621   0.918   5.790   1.162
85263SOL    HW157622   0.907   5.695   1.167
85263SOL    HW257623   0.851   5.825   1.220
85264SOL     OW57624  10.097  12.080  10.448
85264SOL    HW157625  10.113  12.148  10.383
85264SOL    HW257626  10.090  12.128  10.531
85265SOL     OW57627   0.267  12.606   9.324
85265SOL    HW157628   0.237  12.697   9.318
85265SOL    HW257629   0.238  12.566   9.243
85266SOL     OW57630   2.635  13.853   7.102
85266SOL    HW157631   2.654  13.943   7.128
85266SOL    HW257632   2.690  13.838   7.025
85267SOL     OW57633  12.723  14.641   7.852
85267SOL    HW157634  12.661  14.568   7.842
85267SOL    HW257635  12.803  14.601   7.884
85268SOL     OW57636   0.986  13.560  14.081
85268SOL    HW157637   0.959  13.574  13.990
85268SOL    HW257638   0.990  13.648  14.118
85269SOL     OW57639   2.393   1.813  12.428
85269SOL    HW157640   2.332   1.885  12.410
85269SOL    HW257641   2.342   1.734  12.412
85270SOL     OW57642   1.654   7.648   6.059
85270SOL    HW157643   1.584   7.703   6.024
85270SOL    HW257644   1.616   7.611   6.139
85271SOL     OW57645   7.852   2.769  12.495
85271SOL    HW157646   7.763   2.760  12.461
85271SOL    HW257647   7.841   2.808  12.582
85272SOL     OW57648  11.250   8.139   9.370
85272SOL    HW157649  11.265   8.122   9.277
85272SOL    HW257650  11.300   8.071   9.415
85273SOL     OW57651  13.835   4.025  12.507
85273SOL    HW157652  13.880   3.989  12.431
85273SOL    HW257653  13.867   3.972  12.581
85274SOL     OW57654  13.135   3.875   7.221
85274SOL    HW157655  13.117   3.844   7.132
85274SOL    HW257656  13.093   3.810   7.277
85275SOL     OW57657   4.132  13.490   3.270
85275SOL    HW157658   4.097  13.578   3.256
85275SOL    HW257659   4.089  13.437   3.203
85276SOL     OW57660   6.363   0.801  11.869
85276SOL    HW157661   6.309   0.756  11.934
85276SOL    HW257662   6.329   0.890  11.866
85277SOL     OW57663   1.533   3.780   6.891
85277SOL    HW157664   1.626   3.774   6.871
85277SOL    HW257665   1.490   3.781   6.806
85278SOL     OW57666   8.357   2.451  10.500
85278SOL    HW157667   8.401   2.367  10.494
85278SOL    HW257668   8.277   2.433  10.550
85279SOL     OW57669  10.192   9.088   1.530
85279SOL    HW157670  10.258   9.131   1.584
85279SOL    HW257671  10.109   9.125   1.559
85280SOL     OW57672   3.535   4.887  11.174
85280SOL    HW157673   3.611   4.861  11.121
85280SOL    HW257674   3.571   4.904  11.261
85281SOL     OW57675   0.187   3.943  10.491
85281SOL    HW157676   0.274   3.903  10.500
85281SOL    HW257677   0.128   3.870  10.472
85282SOL     OW57678  13.936   7.014  13.937
85282SOL    HW157679  13.963   6.982  13.851
85282SOL    HW257680  14.000   7.082  13.959
85283SOL     OW57681   9.722  10.395   5.533
85283SOL    HW157682   9.805  10.442   5.522
85283SOL    HW257683   9.685  10.431   5.615
85284SOL     OW57684   4.003  10.201   2.163
85284SOL    HW157685   3.947  10.125   2.154
85284SOL    HW257686   4.079  10.182   2.107
85285SOL     OW57687   9.921   8.554   4.589
85285SOL    HW157688   9.922   8.560   4.494
85285SOL    HW257689  10.002   8.595   4.617
85286SOL     OW57690  11.425   6.152  13.355
85286SOL    HW157691  11.499   6.205  13.327
85286SOL    HW257692  11.386   6.119  13.274
85287SOL     OW57693   8.810   0.680  13.444
85287SOL    HW157694   8.735   0.712  13.393
85287SOL    HW257695   8.876   0.661  13.377
85288SOL     OW57696  11.309  12.994   5.406
85288SOL    HW157697  11.246  12.992   5.478
85288SOL    HW257698  11.280  12.925   5.347
85289SOL     OW57699  13.557   3.993   1.583
85289SOL    HW157700  13.462   3.977   1.579
85289SOL    HW257701  13.588   3.973   1.495
85290SOL     OW57702  14.610   3.690   8.059
85290SOL    HW157703  14.671   3.749   8.017
85290SOL    HW257704  14.665   3.618   8.091
85291SOL     OW57705  14.271   2.331  13.731
85291SOL    HW157706  14.317   2.252  13.761
85291SOL    HW257707  14.337   2.400  13.735
85292SOL     OW57708  10.122  14.303   5.441
85292SOL    HW157709  10.194  14.345   5.489
85292SOL    HW257710  10.124  14.344   5.355
85293SOL     OW57711   2.858   8.131   3.630
85293SOL    HW157712   2.807   8.093   3.702
85293SOL    HW257713   2.885   8.056   3.578
85294SOL     OW57714   1.889  12.802   8.624
85294SOL    HW157715   1.802  12.803   8.585
85294SOL    HW257716   1.943  12.752   8.562
85295SOL     OW57717   6.183   0.834  14.307
85295SOL    HW157718   6.122   0.761  14.299
85295SOL    HW257719   6.153   0.882  14.384
85296SOL     OW57720  14.713  14.120   6.769
85296SOL    HW157721  14.743  14.034   6.799
85296SOL    HW257722  14.734  14.179   6.841
85297SOL     OW57723  11.272   2.857   4.729
85297SOL    HW157724  11.310   2.828   4.646
85297SOL    HW257725  11.243   2.947   4.712
85298SOL     OW57726  12.829  11.343   7.300
85298SOL    HW157727  12.922  11.322   7.309
85298SOL    HW257728  12.785  11.258   7.305
85299SOL     OW57729   9.180   6.800   1.304
85299SOL    HW157730   9.096   6.798   1.258
85299SOL    HW257731   9.156   6.810   1.396
85300SOL     OW57732   0.276   5.733  14.677
85300SOL    HW157733   0.345   5.684  14.722
85300SOL    HW257734   0.194   5.696  14.710
85301SOL     OW57735   9.349   0.060   0.057
85301SOL    HW157736   9.396   0.032   0.135
85301SOL    HW257737   9.372  14.873  14.870
85302SOL     OW57738   4.090  13.987   4.842
85302SOL    HW157739   4.028  13.969   4.913
85302SOL    HW257740   4.034  14.009   4.767
85303SOL     OW57741   9.095  13.593  12.659
85303SOL    HW157742   9.053  13.667  12.615
85303SOL    HW257743   9.169  13.633  12.706
85304SOL     OW57744  14.143   1.816   1.825
85304SOL    HW157745  14.127   1.852   1.737
85304SOL    HW257746  14.171   1.726   1.810
85305SOL     OW57747   1.888   7.896  12.941
85305SOL    HW157748   1.850   7.926  12.858
85305SOL    HW257749   1.820   7.913  13.006
85306SOL     OW57750  10.302  11.283   1.448
85306SOL    HW157751  10.350  11.319   1.522
85306SOL    HW257752  10.300  11.354   1.384
85307SOL     OW57753   2.596   6.773   6.730
85307SOL    HW157754   2.678   6.776   6.681
85307SOL    HW257755   2.545   6.703   6.688
85308SOL     OW57756   4.747   5.346  13.695
85308SOL    HW157757   4.753   5.404  13.771
85308SOL    HW257758   4.694   5.394  13.632
85309SOL     OW57759   5.956   2.739  12.667
85309SOL    HW157760   6.036   2.686  12.674
85309SOL    HW257761   5.887   2.683  12.701
85310SOL     OW57762   7.022   7.686   2.756
85310SOL    HW157763   7.020   7.776   2.723
85310SOL    HW257764   7.006   7.695   2.850
85311SOL     OW57765   4.321   2.093  11.687
85311SOL    HW157766   4.310   2.044  11.605
85311SOL    HW257767   4.414   2.118  11.687
85312SOL     OW57768  10.148  13.956   6.624
85312SOL    HW157769  10.092  13.883   6.597
85312SOL    HW257770  10.088  14.015   6.670
85313SOL     OW57771  11.573  12.662   0.844
85313SOL    HW157772  11.510  12.726   0.811
85313SOL    HW257773  11.551  12.581   0.799
85314SOL     OW57774   8.105   8.154   0.626
85314SOL    HW157775   8.189   8.182   0.662
85314SOL    HW257776   8.046   8.227   0.643
85315SOL     OW57777   8.932   3.873  11.632
85315SOL    HW157778   8.965   3.809  11.568
85315SOL    HW257779   8.841   3.846  11.646
85316SOL     OW57780   5.858  11.597   2.782
85316SOL    HW157781   5.870  11.639   2.696
85316SOL    HW257782   5.942  11.556   2.800
85317SOL     OW57783  11.474   3.329   1.369
85317SOL    HW157784  11.527   3.318   1.448
85317SOL    HW257785  11.420   3.406   1.387
85318SOL     OW57786  12.607   4.616   9.048
85318SOL    HW157787  12.648   4.561   8.981
85318SOL    HW257788  12.525   4.572   9.069
85319SOL     OW57789   3.870   3.075   2.875
85319SOL    HW157790   3.797   3.036   2.923
85319SOL    HW257791   3.879   3.163   2.912
85320SOL     OW57792  12.407   1.463   1.356
85320SOL    HW157793  12.332   1.505   1.398
85320SOL    HW257794  12.394   1.370   1.371
85321SOL     OW57795   0.509  10.604   0.168
85321SOL    HW157796   0.488  10.654   0.089
85321SOL    HW257797   0.548  10.668   0.227
85322SOL     OW57798  11.607  12.233  14.675
85322SOL    HW157799  11.643  12.156  14.629
85322SOL    HW257800  11.633  12.220  14.766
85323SOL     OW57801   2.740  10.628  10.575
85323SOL    HW157802   2.650  10.600  10.557
85323SOL    HW257803   2.787  10.614  10.493
85324SOL     OW57804  14.257   1.506  12.934
85324SOL    HW157805  14.172   1.464  12.935
85324SOL    HW257806  14.320   1.435  12.946
85325SOL     OW57807   0.400   1.114  10.619
85325SOL    HW157808   0.316   1.145  10.585
85325SOL    HW257809   0.436   1.061  10.548
85326SOL     OW57810  10.191   4.180   7.479
85326SOL    HW157811  10.202   4.206   7.387
85326SOL    HW257812  10.278   4.152   7.507
85327SOL     OW57813   4.845   6.565   6.102
85327SOL    HW157814   4.783   6.537   6.170
85327SOL    HW257815   4.891   6.639   6.141
85328SOL     OW57816   4.455  12.140   4.779
85328SOL    HW157817   4.521  12.086   4.821
85328SOL    HW257818   4.505  12.201   4.723
85329SOL     OW57819  13.334   7.176  11.745
85329SOL    HW157820  13.347   7.083  11.763
85329SOL    HW257821  13.382   7.192  11.664
85330SOL     OW57822   4.790  12.955   4.270
85330SOL    HW157823   4.836  13.039   4.279
85330SOL    HW257824   4.729  12.954   4.344
85331SOL     OW57825   9.823   2.015   0.232
85331SOL    HW157826   9.814   2.039   0.140
85331SOL    HW257827   9.904   2.057   0.260
85332SOL     OW57828   3.409   4.177  10.532
85332SOL    HW157829   3.457   4.096  10.517
85332SOL    HW257830   3.451   4.241  10.474
85333SOL     OW57831   7.281  13.278   9.258
85333SOL    HW157832   7.325  13.345   9.310
85333SOL    HW257833   7.321  13.286   9.171
85334SOL     OW57834   8.508   7.765   4.434
85334SOL    HW157835   8.476   7.810   4.512
85334SOL    HW257836   8.476   7.676   4.442
85335SOL     OW57837   1.449   7.213   7.602
85335SOL    HW157838   1.379   7.265   7.640
85335SOL    HW257839   1.444   7.128   7.647
85336SOL     OW57840  10.177   1.328   1.754
85336SOL    HW157841  10.146   1.417   1.736
85336SOL    HW257842  10.242   1.339   1.824
85337SOL     OW57843  10.362  11.211  11.143
85337SOL    HW157844  10.316  11.250  11.217
85337SOL    HW257845  10.454  11.233  11.159
85338SOL     OW57846   4.928   6.265  12.665
85338SOL    HW157847   5.021   6.279  12.685
85338SOL    HW257848   4.928   6.205  12.591
85339SOL     OW57849   9.354   1.032   7.679
85339SOL    HW157850   9.395   0.946   7.688
85339SOL    HW257851   9.350   1.048   7.585
85340SOL     OW57852  10.267   0.592   7.487
85340SOL    HW157853  10.337   0.540   7.526
85340SOL    HW257854  10.187   0.557   7.525
85341SOL     OW57855  14.081   5.842   8.578
85341SOL    HW157856  14.116   5.774   8.636
85341SOL    HW257857  14.104   5.924   8.621
85342SOL     OW57858   2.638  14.105  10.246
85342SOL    HW157859   2.650  14.198  10.225
85342SOL    HW257860   2.544  14.097  10.265
85343SOL     OW57861  11.594   7.080   9.061
85343SOL    HW157862  11.605   7.072   8.966
85343SOL    HW257863  11.508   7.121   9.071
85344SOL     OW57864   4.589   1.397   1.049
85344SOL    HW157865   4.528   1.464   1.018
85344SOL    HW257866   4.600   1.416   1.142
85345SOL     OW57867  13.312  13.076   6.360
85345SOL    HW157868  13.313  13.143   6.429
85345SOL    HW257869  13.399  13.035   6.365
85346SOL     OW57870  12.867   0.742   8.777
85346SOL    HW157871  12.844   0.794   8.854
85346SOL    HW257872  12.853   0.801   8.703
85347SOL     OW57873  13.855  13.950   7.850
85347SOL    HW157874  13.940  13.908   7.835
85347SOL    HW257875  13.875  14.043   7.857
85348SOL     OW57876  13.715  12.414   9.159
85348SOL    HW157877  13.659  12.474   9.110
85348SOL    HW257878  13.799  12.458   9.164
85349SOL     OW57879   4.270   8.981  10.560
85349SOL    HW157880   4.234   9.041  10.494
85349SOL    HW257881   4.198   8.967  10.621
85350SOL     OW57882   5.036   8.425   5.021
85350SOL    HW157883   5.036   8.351   4.960
85350SOL    HW257884   4.956   8.413   5.073
85351SOL     OW57885   1.234   2.738   6.538
85351SOL    HW157886   1.154   2.727   6.589
85351SOL    HW257887   1.227   2.674   6.467
85352SOL     OW57888   1.099  14.832  14.849
85352SOL    HW157889   1.192  14.855  14.858
85352SOL    HW257890   1.053   0.017   0.024
85353SOL     OW57891  11.340   9.139  13.680
85353SOL    HW157892  11.256   9.181  13.698
85353SOL    HW257893  11.390   9.149  13.761
85354SOL     OW57894  14.045  11.297   9.117
85354SOL    HW157895  14.000  11.250   9.047
85354SOL    HW257896  14.045  11.236   9.191
85355SOL     OW57897   4.356   0.423  11.326
85355SOL    HW157898   4.450   0.404  11.327
85355SOL    HW257899   4.330   0.418  11.417
85356SOL     OW57900  11.373  12.599   7.989
85356SOL    HW157901  11.333  12.521   8.027
85356SOL    HW257902  11.424  12.637   8.061
85357SOL     OW57903   7.292  13.121   2.101
85357SOL    HW157904   7.333  13.039   2.125
85357SOL    HW257905   7.361  13.172   2.059
85358SOL     OW57906  10.819   3.809  14.489
85358SOL    HW157907  10.839   3.794  14.582
85358SOL    HW257908  10.900   3.844  14.452
85359SOL     OW57909   8.525   7.206   2.529
85359SOL    HW157910   8.521   7.243   2.617
85359SOL    HW257911   8.610   7.160   2.526
85360SOL     OW57912   0.832   9.635  11.500
85360SOL    HW157913   0.839   9.730  11.505
85360SOL    HW257914   0.798   9.618  11.412
85361SOL     OW57915   6.233   0.844  11.298
85361SOL    HW157916   6.194   0.841  11.385
85361SOL    HW257917   6.159   0.859  11.239
85362SOL     OW57918   0.214   7.957  10.176
85362SOL    HW157919   0.256   8.042  10.160
85362SOL    HW257920   0.260   7.921  10.251
85363SOL     OW57921   7.257  10.023   0.236
85363SOL    HW157922   7.261   9.941   0.186
85363SOL    HW257923   7.319  10.010   0.307
85364SOL     OW57924  13.524   8.081   7.510
85364SOL    HW157925  13.505   8.133   7.432
85364SOL    HW257926  13.515   8.143   7.583
85365SOL     OW57927   0.631   1.160  12.745
85365SOL    HW157928   0.718   1.168  12.784
85365SOL    HW257929   0.570   1.174  12.817
85366SOL     OW57930  12.959   4.848   0.252
85366SOL    HW157931  12.965   4.752   0.251
85366SOL    HW257932  12.970   4.871   0.344
85367SOL     OW57933   7.165   5.966   6.687
85367SOL    HW157934   7.222   6.031   6.646
85367SOL    HW257935   7.164   5.990   6.780
85368SOL     OW57936  13.016  12.396   2.889
85368SOL    HW157937  13.098  12.409   2.937
85368SOL    HW257938  12.950  12.383   2.957
85369SOL     OW57939   2.862   4.386   6.517
85369SOL    HW157940   2.920   4.449   6.561
85369SOL    HW257941   2.852   4.315   6.580
85370SOL     OW57942   2.893   1.730  11.778
85370SOL    HW157943   2.820   1.700  11.832
85370SOL    HW257944   2.856   1.737  11.690
85371SOL     OW57945   5.726   8.384  13.691
85371SOL    HW157946   5.696   8.293  13.690
85371SOL    HW257947   5.647   8.436  13.701
85372SOL     OW57948  14.348  12.418   0.435
85372SOL    HW157949  14.315  12.493   0.386
85372SOL    HW257950  14.432  12.397   0.392
85373SOL     OW57951   8.313   7.971  11.891
85373SOL    HW157952   8.320   7.882  11.857
85373SOL    HW257953   8.339   7.963  11.983
85374SOL     OW57954   7.373   9.391  10.019
85374SOL    HW157955   7.419   9.400   9.936
85374SOL    HW257956   7.409   9.311  10.057
85375SOL     OW57957   8.712  13.597   8.216
85375SOL    HW157958   8.622  13.569   8.233
85375SOL    HW257959   8.765  13.523   8.245
85376SOL     OW57960   9.637   2.295   5.995
85376SOL    HW157961   9.626   2.285   6.089
85376SOL    HW257962   9.682   2.215   5.967
85377SOL     OW57963   4.350   3.542  10.456
85377SOL    HW157964   4.309   3.544  10.370
85377SOL    HW257965   4.302   3.607  10.507
85378SOL     OW57966   7.849  13.534   8.603
85378SOL    HW157967   7.783  13.532   8.673
85378SOL    HW257968   7.860  13.628   8.584
85379SOL     OW57969   0.101   2.988  13.276
85379SOL    HW157970   0.157   3.040  13.219
85379SOL    HW257971   0.041   3.051  13.315
85380SOL     OW57972  10.223   4.273   9.377
85380SOL    HW157973  10.186   4.242   9.294
85380SOL    HW257974  10.167   4.234   9.444
85381SOL     OW57975   0.120  12.504   0.853
85381SOL    HW157976   0.113  12.500   0.757
85381SOL    HW257977   0.035  12.471   0.883
85382SOL     OW57978  14.821   8.386   0.406
85382SOL    HW157979  14.874   8.344   0.338
85382SOL    HW257980  14.732   8.358   0.388
85383SOL     OW57981   3.821   8.647   0.849
85383SOL    HW157982   3.865   8.667   0.766
85383SOL    HW257983   3.797   8.555   0.842
85384SOL     OW57984   2.681   1.313   5.344
85384SOL    HW157985   2.701   1.389   5.289
85384SOL    HW257986   2.586   1.310   5.347
85385SOL     OW57987   8.671  14.181   1.887
85385SOL    HW157988   8.695  14.250   1.826
85385SOL    HW257989   8.621  14.118   1.834
85386SOL     OW57990  11.825   4.215  10.668
85386SOL    HW157991  11.883   4.278  10.711
85386SOL    HW257992  11.776   4.174  10.739
85387SOL     OW57993   5.793   5.751  10.999
85387SOL    HW157994   5.867   5.724  11.052
85387SOL    HW257995   5.813   5.718  10.911
85388SOL     OW57996   5.421   0.495  14.238
85388SOL    HW157997   5.436   0.581  14.200
85388SOL    HW257998   5.424   0.435  14.164
85389SOL     OW57999  11.725  13.031  11.563
85389SOL    HW158000  11.681  13.115  11.551
85389SOL    HW258001  11.678  12.971  11.507
85390SOL     OW58002   7.753   2.887  13.418
85390SOL    HW158003   7.694   2.962  13.413
85390SOL    HW258004   7.829   2.919  13.468
85391SOL     OW58005   2.293   8.591   2.525
85391SOL    HW158006   2.329   8.632   2.603
85391SOL    HW258007   2.242   8.661   2.483
85392SOL     OW58008   7.972   2.350   5.901
85392SOL    HW158009   7.969   2.397   5.817
85392SOL    HW258010   8.063   2.324   5.910
85393SOL     OW58011  13.498   6.099   8.308
85393SOL    HW158012  13.527   6.022   8.260
85393SOL    HW258013  13.469   6.065   8.393
85394SOL     OW58014   5.695  14.581   9.767
85394SOL    HW158015   5.681  14.675   9.770
85394SOL    HW258016   5.689  14.558   9.675
85395SOL     OW58017  10.387   9.632  10.971
85395SOL    HW158018  10.379   9.728  10.975
85395SOL    HW258019  10.363   9.602  11.058
85396SOL     OW58020  11.164   5.398  11.425
85396SOL    HW158021  11.256   5.380  11.406
85396SOL    HW258022  11.144   5.476  11.374
85397SOL     OW58023  10.345  13.900   5.846
85397SOL    HW158024  10.320  13.987   5.815
85397SOL    HW258025  10.410  13.870   5.783
85398SOL     OW58026   6.562   4.994  11.753
85398SOL    HW158027   6.476   4.952  11.754
85398SOL    HW258028   6.606   4.960  11.830
85399SOL     OW58029   4.851   7.187  10.834
85399SOL    HW158030   4.870   7.238  10.755
85399SOL    HW258031   4.927   7.203  10.891
85400SOL     OW58032   6.001   2.195   8.977
85400SOL    HW158033   6.006   2.154   8.891
85400SOL    HW258034   6.091   2.224   8.995
85401SOL     OW58035  12.111  12.505   7.005
85401SOL    HW158036  12.117  12.449   6.927
85401SOL    HW258037  12.202  12.526   7.027
85402SOL     OW58038   7.352   6.200  12.421
85402SOL    HW158039   7.440   6.238  12.417
85402SOL    HW258040   7.363   6.119  12.472
85403SOL     OW58041   3.654   1.102   9.341
85403SOL    HW158042   3.701   1.174   9.300
85403SOL    HW258043   3.720   1.034   9.353
85404SOL     OW58044   6.673   4.328   1.394
85404SOL    HW158045   6.607   4.397   1.382
85404SOL    HW258046   6.652   4.290   1.479
85405SOL     OW58047   9.338  14.391   2.146
85405SOL    HW158048   9.391  14.423   2.073
85405SOL    HW258049   9.320  14.469   2.198
85406SOL     OW58050   1.989   3.101  12.164
85406SOL    HW158051   2.055   3.158  12.126
85406SOL    HW258052   1.925   3.088  12.094
85407SOL     OW58053   2.153   3.818  11.655
85407SOL    HW158054   2.067   3.804  11.616
85407SOL    HW258055   2.161   3.913  11.663
85408SOL     OW58056  13.760   8.344   9.520
85408SOL    HW158057  13.769   8.363   9.613
85408SOL    HW258058  13.848   8.354   9.484
85409SOL     OW58059  13.855   9.715   7.790
85409SOL    HW158060  13.858   9.787   7.726
85409SOL    HW258061  13.940   9.720   7.835
85410SOL     OW58062  14.234   9.440  10.137
85410SOL    HW158063  14.263   9.531  10.137
85410SOL    HW258064  14.261   9.406  10.052
85411SOL     OW58065  10.601   4.655  13.799
85411SOL    HW158066  10.588   4.664  13.705
85411SOL    HW258067  10.664   4.583  13.807
85412SOL     OW58068   0.747   0.842   1.757
85412SOL    HW158069   0.752   0.833   1.662
85412SOL    HW258070   0.755   0.936   1.773
85413SOL     OW58071   2.025   6.543   7.504
85413SOL    HW158072   2.019   6.467   7.561
85413SOL    HW258073   2.097   6.523   7.444
85414SOL     OW58074  11.485  13.314   8.782
85414SOL    HW158075  11.424  13.387   8.790
85414SOL    HW258076  11.559  13.337   8.838
85415SOL     OW58077   7.632   9.795  11.743
85415SOL    HW158078   7.573   9.752  11.805
85415SOL    HW258079   7.583   9.872  11.713
85416SOL     OW58080  10.310   3.406  13.324
85416SOL    HW158081  10.279   3.497  13.317
85416SOL    HW258082  10.282   3.365  13.243
85417SOL     OW58083  10.344   3.902   8.699
85417SOL    HW158084  10.414   3.853   8.743
85417SOL    HW258085  10.264   3.875   8.744
85418SOL     OW58086   8.433  13.346   7.944
85418SOL    HW158087   8.410  13.274   7.886
85418SOL    HW258088   8.495  13.309   8.006
85419SOL     OW58089   1.312  11.637   4.399
85419SOL    HW158090   1.218  11.627   4.411
85419SOL    HW258091   1.329  11.600   4.312
85420SOL     OW58092   8.223   1.211  10.619
85420SOL    HW158093   8.214   1.291  10.671
85420SOL    HW258094   8.302   1.169  10.653
85421SOL     OW58095   6.971   4.861   6.616
85421SOL    HW158096   7.050   4.898   6.655
85421SOL    HW258097   6.925   4.937   6.580
85422SOL     OW58098   4.780   1.068   4.196
85422SOL    HW158099   4.765   1.151   4.150
85422SOL    HW258100   4.800   1.094   4.286
85423SOL     OW58101   3.194   6.044   8.004
85423SOL    HW158102   3.235   6.114   8.053
85423SOL    HW258103   3.122   6.086   7.957
85424SOL     OW58104   5.728  12.493   8.569
85424SOL    HW158105   5.686  12.543   8.498
85424SOL    HW258106   5.659  12.436   8.602
85425SOL     OW58107  12.763   6.934  14.879
85425SOL    HW158108  12.739   6.933   0.093
85425SOL    HW258109  12.753   7.026  14.853
85426SOL     OW58110   8.161  13.702   3.837
85426SOL    HW158111   8.251  13.701   3.805
85426SOL    HW258112   8.116  13.767   3.783
85427SOL     OW58113   3.354  13.931   5.248
85427SOL    HW158114   3.294  13.939   5.321
85427SOL    HW258115   3.440  13.952   5.284
85428SOL     OW58116  10.843   5.062  12.422
85428SOL    HW158117  10.902   5.096  12.354
85428SOL    HW258118  10.827   4.972  12.395
85429SOL     OW58119   2.609   0.580   1.852
85429SOL    HW158120   2.541   0.520   1.822
85429SOL    HW258121   2.600   0.657   1.795
85430SOL     OW58122  12.532  14.616   5.480
85430SOL    HW158123  12.463  14.636   5.417
85430SOL    HW258124  12.500  14.651   5.563
85431SOL     OW58125   6.110  11.557   9.027
85431SOL    HW158126   6.112  11.598   8.940
85431SOL    HW258127   6.074  11.470   9.011
85432SOL     OW58128   8.093   8.947  13.754
85432SOL    HW158129   8.122   8.934  13.845
85432SOL    HW258130   8.007   8.904  13.750
85433SOL     OW58131   0.937   1.852   0.064
85433SOL    HW158132   0.974   1.770   0.031
85433SOL    HW258133   0.856   1.825   0.109
85434SOL     OW58134  10.728   2.252   7.079
85434SOL    HW158135  10.821   2.253   7.057
85434SOL    HW258136  10.684   2.282   6.999
85435SOL     OW58137   5.821   8.497   1.372
85435SOL    HW158138   5.771   8.478   1.292
85435SOL    HW258139   5.754   8.522   1.436
85436SOL     OW58140   1.165   7.666   1.492
85436SOL    HW158141   1.247   7.625   1.518
85436SOL    HW258142   1.170   7.672   1.397
85437SOL     OW58143   3.500   4.419  11.572
85437SOL    HW158144   3.576   4.374  11.608
85437SOL    HW258145   3.438   4.349  11.551
85438SOL     OW58146   3.959   8.367  13.456
85438SOL    HW158147   4.017   8.305  13.411
85438SOL    HW258148   3.923   8.316  13.529
85439SOL     OW58149   0.364  11.026   9.039
85439SOL    HW158150   0.394  11.105   8.993
85439SOL    HW258151   0.315  11.059   9.114
85440SOL     OW58152   7.599  12.611  14.132
85440SOL    HW158153   7.524  12.649  14.086
85440SOL    HW258154   7.668  12.607  14.066
85441SOL     OW58155   6.764  10.224  11.527
85441SOL    HW158156   6.836  10.203  11.586
85441SOL    HW258157   6.709  10.145  11.527
85442SOL     OW58158   8.534  12.843   6.578
85442SOL    HW158159   8.502  12.804   6.660
85442SOL    HW258160   8.456  12.853   6.524
85443SOL     OW58161   7.000   4.112   5.379
85443SOL    HW158162   7.056   4.164   5.322
85443SOL    HW258163   6.920   4.163   5.388
85444SOL     OW58164   6.131   2.775   8.051
85444SOL    HW158165   6.082   2.694   8.067
85444SOL    HW258166   6.151   2.808   8.139
85445SOL     OW58167  14.498  10.938   7.006
85445SOL    HW158168  14.593  10.940   6.992
85445SOL    HW258169  14.484  10.866   7.067
85446SOL     OW58170  10.918   6.978  12.268
85446SOL    HW158171  11.009   6.959  12.291
85446SOL    HW258172  10.879   7.009  12.349
85447SOL     OW58173   6.031   8.538  13.122
85447SOL    HW158174   6.024   8.442  13.121
85447SOL    HW258175   6.109   8.557  13.070
85448SOL     OW58176   4.357  12.986   3.886
85448SOL    HW158177   4.344  12.898   3.851
85448SOL    HW258178   4.374  12.973   3.979
85449SOL     OW58179   7.642   9.400  13.442
85449SOL    HW158180   7.592   9.318  13.433
85449SOL    HW258181   7.733   9.374  13.427
85450SOL     OW58182   4.679  12.272   5.929
85450SOL    HW158183   4.664  12.238   5.840
85450SOL    HW258184   4.763  12.316   5.923
85451SOL     OW58185   8.981   0.985   7.050
85451SOL    HW158186   9.070   0.952   7.033
85451SOL    HW258187   8.987   1.025   7.137
85452SOL     OW58188   9.818   6.153  12.997
85452SOL    HW158189   9.773   6.069  12.999
85452SOL    HW258190   9.751   6.218  13.018
85453SOL     OW58191   1.173   4.299   4.654
85453SOL    HW158192   1.102   4.321   4.593
85453SOL    HW258193   1.131   4.241   4.718
85454SOL     OW58194   7.563  13.097   8.771
85454SOL    HW158195   7.472  13.090   8.744
85454SOL    HW258196   7.614  13.073   8.693
85455SOL     OW58197   0.273   1.488   8.213
85455SOL    HW158198   0.252   1.442   8.132
85455SOL    HW258199   0.347   1.439   8.250
85456SOL     OW58200   9.259  11.910  10.765
85456SOL    HW158201   9.188  11.909  10.829
85456SOL    HW258202   9.241  11.834  10.709
85457SOL     OW58203  11.904  12.241   7.636
85457SOL    HW158204  11.945  12.327   7.631
85457SOL    HW258205  11.884  12.229   7.729
85458SOL     OW58206   1.690   0.519  10.758
85458SOL    HW158207   1.683   0.615  10.764
85458SOL    HW258208   1.784   0.502  10.757
85459SOL     OW58209   6.060  12.346   6.344
85459SOL    HW158210   6.012  12.419   6.303
85459SOL    HW258211   6.047  12.273   6.283
85460SOL     OW58212   8.256   9.995   0.059
85460SOL    HW158213   8.292  10.036   0.138
85460SOL    HW258214   8.256  10.065  14.873
85461SOL     OW58215  10.269  10.781   6.704
85461SOL    HW158216  10.298  10.690   6.710
85461SOL    HW258217  10.319  10.819   6.632
85462SOL     OW58218   2.926  12.241   6.754
85462SOL    HW158219   2.835  12.267   6.740
85462SOL    HW258220   2.954  12.203   6.670
85463SOL     OW58221   0.846   4.519   3.528
85463SOL    HW158222   0.929   4.563   3.543
85463SOL    HW258223   0.850   4.490   3.437
85464SOL     OW58224   3.221  11.072  14.247
85464SOL    HW158225   3.311  11.049  14.273
85464SOL    HW258226   3.229  11.160  14.209
85465SOL     OW58227   6.022  14.323  10.479
85465SOL    HW158228   5.936  14.291  10.452
85465SOL    HW258229   6.070  14.245  10.506
85466SOL     OW58230  11.850   0.469  10.822
85466SOL    HW158231  11.878   0.543  10.875
85466SOL    HW258232  11.931   0.424  10.798
85467SOL     OW58233   2.501   2.009   8.674
85467SOL    HW158234   2.414   2.042   8.652
85467SOL    HW258235   2.547   2.003   8.591
85468SOL     OW58236   3.734  12.532   4.590
85468SOL    HW158237   3.700  12.598   4.651
85468SOL    HW258238   3.758  12.581   4.512
85469SOL     OW58239   2.494   2.189  14.521
85469SOL    HW158240   2.520   2.144  14.602
85469SOL    HW258241   2.466   2.276  14.550
85470SOL     OW58242   6.869  12.968  13.462
85470SOL    HW158243   6.778  12.960  13.435
85470SOL    HW258244   6.883  13.062  13.474
85471SOL     OW58245   5.211   9.022   9.458
85471SOL    HW158246   5.180   8.957   9.395
85471SOL    HW258247   5.304   9.001   9.470
85472SOL     OW58248   7.498   9.377   9.778
85472SOL    HW158249   7.425   9.342   9.729
85472SOL    HW258250   7.570   9.316   9.761
85473SOL     OW58251   8.543   9.799   8.775
85473SOL    HW158252   8.496   9.731   8.727
85473SOL    HW258253   8.476   9.845   8.826
85474SOL     OW58254   5.475   4.758   4.189
85474SOL    HW158255   5.452   4.723   4.276
85474SOL    HW258256   5.405   4.820   4.168
85475SOL     OW58257  14.042  11.741  11.988
85475SOL    HW158258  14.061  11.818  11.935
85475SOL    HW258259  14.027  11.671  11.924
85476SOL     OW58260   0.155   8.413   5.512
85476SOL    HW158261   0.095   8.455   5.573
85476SOL    HW258262   0.108   8.413   5.428
85477SOL     OW58263  11.576   7.385  14.856
85477SOL    HW158264  11.531   7.301  14.851
85477SOL    HW258265  11.663   7.364   0.009
85478SOL     OW58266   4.680  12.918  10.437
85478SOL    HW158267   4.686  12.959  10.523
85478SOL    HW258268   4.635  12.835  10.454
85479SOL     OW58269   2.542  13.307   0.516
85479SOL    HW158270   2.554  13.223   0.472
85479SOL    HW258271   2.524  13.283   0.607
85480SOL     OW58272   8.844  13.187   9.258
85480SOL    HW158273   8.858  13.133   9.335
85480SOL    HW258274   8.842  13.276   9.291
85481SOL     OW58275   7.528  10.196  11.871
85481SOL    HW158276   7.493  10.274  11.914
85481SOL    HW258277   7.621  10.216  11.857
85482SOL     OW58278  14.544  10.295  11.834
85482SOL    HW158279  14.460  10.320  11.795
85482SOL    HW258280  14.520  10.240  11.909
85483SOL     OW58281   2.544   1.085   9.948
85483SOL    HW158282   2.530   1.123   9.861
85483SOL    HW258283   2.565   0.993   9.930
85484SOL     OW58284   8.918   1.084   3.602
85484SOL    HW158285   8.881   1.029   3.671
85484SOL    HW258286   8.999   1.041   3.577
85485SOL     OW58287   3.639   8.428  14.358
85485SOL    HW158288   3.584   8.475  14.421
85485SOL    HW258289   3.696   8.373  14.413
85486SOL     OW58290   1.008  12.347   7.542
85486SOL    HW158291   0.963  12.294   7.476
85486SOL    HW258292   0.989  12.304   7.625
85487SOL     OW58293   8.686   3.016   9.177
85487SOL    HW158294   8.689   3.010   9.082
85487SOL    HW258295   8.664   2.928   9.206
85488SOL     OW58296  12.765   2.738  13.091
85488SOL    HW158297  12.758   2.748  13.186
85488SOL    HW258298  12.856   2.716  13.076
85489SOL     OW58299  11.728  13.432  14.490
85489SOL    HW158300  11.653  13.465  14.440
85489SOL    HW258301  11.803  13.482  14.457
85490SOL     OW58302   9.728   7.611   7.585
85490SOL    HW158303   9.717   7.659   7.504
85490SOL    HW258304   9.816   7.574   7.579
85491SOL     OW58305   6.050  12.537   1.568
85491SOL    HW158306   6.095  12.581   1.641
85491SOL    HW258307   6.115  12.477   1.532
85492SOL     OW58308  12.485   9.918   9.967
85492SOL    HW158309  12.498   9.837   9.917
85492SOL    HW258310  12.424   9.969   9.915
85493SOL     OW58311  10.950   7.497   8.522
85493SOL    HW158312  10.961   7.592   8.515
85493SOL    HW258313  10.998   7.461   8.447
85494SOL     OW58314   4.760   2.064   0.469
85494SOL    HW158315   4.758   1.984   0.522
85494SOL    HW258316   4.768   2.033   0.379
85495SOL     OW58317  10.511   5.085   8.305
85495SOL    HW158318  10.584   5.027   8.328
85495SOL    HW258319  10.527   5.109   8.214
85496SOL     OW58320  12.227   7.733  12.878
85496SOL    HW158321  12.141   7.729  12.835
85496SOL    HW258322  12.250   7.826  12.875
85497SOL     OW58323  10.515   6.414   8.301
85497SOL    HW158324  10.498   6.446   8.390
85497SOL    HW258325  10.603   6.444   8.281
85498SOL     OW58326  13.913   4.454   2.260
85498SOL    HW158327  13.867   4.475   2.342
85498SOL    HW258328  13.843   4.438   2.197
85499SOL     OW58329  14.365   9.761   2.190
85499SOL    HW158330  14.373   9.832   2.126
85499SOL    HW258331  14.271   9.751   2.202
85500SOL     OW58332   2.030  10.971  13.309
85500SOL    HW158333   1.980  10.953  13.230
85500SOL    HW258334   2.094  10.900  13.313
85501SOL     OW58335  12.731  11.353   8.902
85501SOL    HW158336  12.814  11.309   8.884
85501SOL    HW258337  12.739  11.438   8.858
85502SOL     OW58338  10.480   3.501   2.405
85502SOL    HW158339  10.408   3.521   2.345
85502SOL    HW258340  10.496   3.407   2.394
85503SOL     OW58341   5.708   4.490   1.534
85503SOL    HW158342   5.671   4.509   1.448
85503SOL    HW258343   5.764   4.414   1.520
85504SOL     OW58344   4.583   8.944   5.689
85504SOL    HW158345   4.553   8.919   5.777
85504SOL    HW258346   4.608   8.862   5.648
85505SOL     OW58347  12.171   2.956  14.149
85505SOL    HW158348  12.245   2.935  14.206
85505SOL    HW258349  12.209   3.004  14.076
85506SOL     OW58350   9.179   2.355   9.257
85506SOL    HW158351   9.192   2.299   9.334
85506SOL    HW258352   9.100   2.406   9.277
85507SOL     OW58353   8.640   2.662   4.941
85507SOL    HW158354   8.602   2.597   5.000
85507SOL    HW258355   8.625   2.746   4.984
85508SOL     OW58356   5.753  12.481   7.092
85508SOL    HW158357   5.705  12.422   7.150
85508SOL    HW258358   5.839  12.441   7.082
85509SOL     OW58359   2.871   2.003   3.899
85509SOL    HW158360   2.777   2.016   3.884
85509SOL    HW258361   2.876   1.920   3.947
85510SOL     OW58362   6.338   7.789   6.600
85510SOL    HW158363   6.334   7.884   6.608
85510SOL    HW258364   6.338   7.773   6.505
85511SOL     OW58365  11.530  11.331  14.876
85511SOL    HW158366  11.497  11.245  14.848
85511SOL    HW258367  11.485  11.393  14.819
85512SOL     OW58368   4.933  12.635   3.145
85512SOL    HW158369   4.896  12.627   3.057
85512SOL    HW258370   4.971  12.550   3.163
85513SOL     OW58371   4.849   6.477   1.522
85513SOL    HW158372   4.942   6.462   1.537
85513SOL    HW258373   4.844   6.570   1.497
85514SOL     OW58374   4.388  11.775   2.064
85514SOL    HW158375   4.387  11.730   1.979
85514SOL    HW258376   4.430  11.713   2.123
85515SOL     OW58377   1.360   3.545   0.770
85515SOL    HW158378   1.404   3.630   0.771
85515SOL    HW258379   1.269   3.565   0.794
85516SOL     OW58380  13.944  11.816   5.848
85516SOL    HW158381  13.969  11.723   5.852
85516SOL    HW258382  13.929  11.841   5.939
85517SOL     OW58383  10.656   6.984   8.920
85517SOL    HW158384  10.594   6.996   8.992
85517SOL    HW258385  10.731   7.038   8.944
85518SOL     OW58386   1.070   1.813   0.665
85518SOL    HW158387   1.114   1.811   0.580
85518SOL    HW258388   0.979   1.831   0.645
85519SOL     OW58389   1.286   6.209   4.147
85519SOL    HW158390   1.357   6.178   4.092
85519SOL    HW258391   1.282   6.303   4.132
85520SOL     OW58392   7.772  10.680   1.666
85520SOL    HW158393   7.735  10.737   1.599
85520SOL    HW258394   7.811  10.740   1.730
85521SOL     OW58395  10.134  10.068   9.122
85521SOL    HW158396  10.083  10.126   9.180
85521SOL    HW258397  10.085  10.067   9.040
85522SOL     OW58398   1.632   5.562  14.624
85522SOL    HW158399   1.629   5.653  14.652
85522SOL    HW258400   1.567   5.556  14.554
85523SOL     OW58401   3.431   0.934   5.337
85523SOL    HW158402   3.394   1.011   5.293
85523SOL    HW258403   3.358   0.871   5.341
85524SOL     OW58404  12.290   2.440   6.355
85524SOL    HW158405  12.289   2.353   6.395
85524SOL    HW258406  12.282   2.424   6.262
85525SOL     OW58407   9.839   8.510   8.226
85525SOL    HW158408   9.851   8.602   8.201
85525SOL    HW258409   9.915   8.466   8.187
85526SOL     OW58410   4.049   5.742   1.209
85526SOL    HW158411   3.997   5.664   1.231
85526SOL    HW258412   3.984   5.810   1.190
85527SOL     OW58413   3.844  12.361  11.985
85527SOL    HW158414   3.907  12.428  11.958
85527SOL    HW258415   3.873  12.282  11.940
85528SOL     OW58416   5.433  10.710   0.546
85528SOL    HW158417   5.499  10.779   0.545
85528SOL    HW258418   5.456  10.654   0.472
85529SOL     OW58419   2.643   5.212  11.775
85529SOL    HW158420   2.686   5.258  11.702
85529SOL    HW258421   2.663   5.265  11.852
85530SOL     OW58422   5.313   1.400  12.099
85530SOL    HW158423   5.223   1.428  12.088
85530SOL    HW258424   5.362   1.481  12.115
85531SOL     OW58425   0.266   4.608   6.278
85531SOL    HW158426   0.295   4.695   6.305
85531SOL    HW258427   0.304   4.597   6.190
85532SOL     OW58428   8.405   0.639   2.149
85532SOL    HW158429   8.333   0.637   2.086
85532SOL    HW258430   8.428   0.731   2.156
85533SOL     OW58431   6.436  10.966   8.957
85533SOL    HW158432   6.444  11.057   8.985
85533SOL    HW258433   6.526  10.936   8.946
85534SOL     OW58434   0.352   6.681   8.766
85534SOL    HW158435   0.368   6.715   8.854
85534SOL    HW258436   0.426   6.621   8.750
85535SOL     OW58437  13.914   9.741  14.271
85535SOL    HW158438  13.888   9.831  14.293
85535SOL    HW258439  13.892   9.690  14.348
85536SOL     OW58440   5.225  11.392   0.192
85536SOL    HW158441   5.317  11.393   0.219
85536SOL    HW258442   5.177  11.360   0.269
85537SOL     OW58443  10.825  10.938  10.945
85537SOL    HW158444  10.740  10.967  10.911
85537SOL    HW258445  10.888  10.970  10.880
85538SOL     OW58446   2.147  11.741  10.646
85538SOL    HW158447   2.162  11.659  10.693
85538SOL    HW258448   2.145  11.716  10.554
85539SOL     OW58449  11.118  12.807   2.252
85539SOL    HW158450  11.180  12.748   2.295
85539SOL    HW258451  11.081  12.754   2.181
85540SOL     OW58452  13.679  11.691   2.713
85540SOL    HW158453  13.666  11.617   2.772
85540SOL    HW258454  13.718  11.653   2.635
85541SOL     OW58455   2.762   1.502   0.407
85541SOL    HW158456   2.771   1.415   0.367
85541SOL    HW258457   2.667   1.514   0.413
85542SOL     OW58458   9.404   5.725  12.140
85542SOL    HW158459   9.360   5.682  12.067
85542SOL    HW258460   9.497   5.711  12.123
85543SOL     OW58461   5.399   9.425   0.927
85543SOL    HW158462   5.399   9.366   1.002
85543SOL    HW258463   5.384   9.367   0.852
85544SOL     OW58464   2.847  10.325   0.122
85544SOL    HW158465   2.900  10.260   0.168
85544SOL    HW258466   2.768  10.333   0.176
85545SOL     OW58467   7.604   3.983   6.328
85545SOL    HW158468   7.638   3.899   6.360
85545SOL    HW258469   7.681   4.027   6.292
85546SOL     OW58470   6.424   1.669   2.349
85546SOL    HW158471   6.361   1.639   2.283
85546SOL    HW258472   6.504   1.621   2.329
85547SOL     OW58473   9.779   2.832  14.307
85547SOL    HW158474   9.827   2.887  14.246
85547SOL    HW258475   9.715   2.786  14.252
85548SOL     OW58476  11.704  12.507   5.465
85548SOL    HW158477  11.769  12.561   5.511
85548SOL    HW258478  11.651  12.469   5.535
85549SOL     OW58479   6.900  13.982   5.921
85549SOL    HW158480   6.811  13.948   5.930
85549SOL    HW258481   6.944  13.922   5.861
85550SOL     OW58482   6.393   6.128   6.479
85550SOL    HW158483   6.372   6.049   6.528
85550SOL    HW258484   6.410   6.097   6.390
85551SOL     OW58485   4.127   0.983   6.690
85551SOL    HW158486   4.088   1.041   6.756
85551SOL    HW258487   4.137   1.038   6.612
85552SOL     OW58488   2.741   8.835  10.546
85552SOL    HW158489   2.714   8.912  10.595
85552SOL    HW258490   2.672   8.771  10.561
85553SOL     OW58491   8.105  10.648   7.108
85553SOL    HW158492   8.054  10.585   7.056
85553SOL    HW258493   8.085  10.626   7.199
85554SOL     OW58494   4.168   3.754   3.500
85554SOL    HW158495   4.086   3.796   3.527
85554SOL    HW258496   4.237   3.811   3.536
85555SOL     OW58497   3.890   6.684   8.626
85555SOL    HW158498   3.878   6.706   8.718
85555SOL    HW258499   3.801   6.689   8.589
85556SOL     OW58500   1.508   9.997   0.962
85556SOL    HW158501   1.484  10.027   0.875
85556SOL    HW258502   1.567  10.066   0.995
85557SOL     OW58503   6.720  12.508  11.670
85557SOL    HW158504   6.698  12.423  11.706
85557SOL    HW258505   6.638  12.557  11.670
85558SOL     OW58506   8.942   1.414  14.358
85558SOL    HW158507   8.901   1.462  14.430
85558SOL    HW258508   9.036   1.419  14.376
85559SOL     OW58509   9.945   2.581   9.613
85559SOL    HW158510   9.959   2.490   9.589
85559SOL    HW258511   9.940   2.628   9.529
85560SOL     OW58512  11.496   8.724  14.520
85560SOL    HW158513  11.572   8.666  14.513
85560SOL    HW258514  11.522   8.790  14.584
85561SOL     OW58515   7.238  10.122   6.862
85561SOL    HW158516   7.235  10.114   6.958
85561SOL    HW258517   7.331  10.137   6.843
85562SOL     OW58518   7.142   0.104  10.588
85562SOL    HW158519   7.076   0.034  10.582
85562SOL    HW258520   7.097   0.175  10.634
85563SOL     OW58521   6.845  13.666   4.751
85563SOL    HW158522   6.765  13.692   4.798
85563SOL    HW258523   6.905  13.638   4.820
85564SOL     OW58524  13.949   7.374  11.991
85564SOL    HW158525  13.922   7.439  11.926
85564SOL    HW258526  13.975   7.297  11.940
85565SOL     OW58527   5.260   0.061  11.324
85565SOL    HW158528   5.232  14.852  11.299
85565SOL    HW258529   5.192   0.118  11.288
85566SOL     OW58530   8.589  13.939   3.568
85566SOL    HW158531   8.630  13.873   3.512
85566SOL    HW258532   8.528  13.890   3.623
85567SOL     OW58533   5.144  10.187   2.438
85567SOL    HW158534   5.213  10.142   2.390
85567SOL    HW258535   5.117  10.258   2.379
85568SOL     OW58536   2.828  13.744   2.766
85568SOL    HW158537   2.813  13.687   2.691
85568SOL    HW258538   2.746  13.792   2.778
85569SOL     OW58539   0.888   1.611  12.904
85569SOL    HW158540   0.865   1.686  12.958
85569SOL    HW258541   0.969   1.578  12.943
85570SOL     OW58542   0.492  11.741  12.291
85570SOL    HW158543   0.518  11.651  12.272
85570SOL    HW258544   0.418  11.758  12.233
85571SOL     OW58545   9.130  13.643  10.095
85571SOL    HW158546   9.212  13.598  10.074
85571SOL    HW258547   9.097  13.673  10.011
85572SOL     OW58548  13.470   5.196   2.610
85572SOL    HW158549  13.470   5.100   2.609
85572SOL    HW258550  13.401   5.221   2.549
85573SOL     OW58551   9.983   3.345  12.428
85573SOL    HW158552   9.991   3.416  12.491
85573SOL    HW258553   9.916   3.374  12.366
85574SOL     OW58554  12.458  14.133   0.076
85574SOL    HW158555  12.501  14.217   0.088
85574SOL    HW258556  12.403  14.145  14.877
85575SOL     OW58557  12.954   4.109   4.706
85575SOL    HW158558  12.904   4.084   4.628
85575SOL    HW258559  13.035   4.146   4.671
85576SOL     OW58560   7.900   9.575   1.553
85576SOL    HW158561   7.889   9.485   1.582
85576SOL    HW258562   7.885   9.572   1.458
85577SOL     OW58563   2.376   7.974  12.135
85577SOL    HW158564   2.320   7.901  12.162
85577SOL    HW258565   2.326   8.052  12.157
85578SOL     OW58566   2.483   3.005   3.623
85578SOL    HW158567   2.495   3.058   3.545
85578SOL    HW258568   2.468   2.917   3.590
85579SOL     OW58569   3.798  10.255  14.356
85579SOL    HW158570   3.892  10.274  14.356
85579SOL    HW258571   3.756  10.341  14.352
85580SOL     OW58572  10.681  10.201   8.734
85580SOL    HW158573  10.683  10.296   8.743
85580SOL    HW258574  10.761  10.171   8.778
85581SOL     OW58575   3.403   6.586   1.175
85581SOL    HW158576   3.410   6.563   1.267
85581SOL    HW258577   3.391   6.502   1.130
85582SOL     OW58578   4.616  10.186   1.406
85582SOL    HW158579   4.605  10.167   1.500
85582SOL    HW258580   4.526  10.190   1.373
85583SOL     OW58581   1.791   7.603   6.469
85583SOL    HW158582   1.733   7.528   6.449
85583SOL    HW258583   1.767   7.628   6.558
85584SOL     OW58584   6.204   9.829   5.414
85584SOL    HW158585   6.234   9.762   5.352
85584SOL    HW258586   6.109   9.832   5.402
85585SOL     OW58587  12.779   3.751   7.783
85585SOL    HW158588  12.818   3.809   7.718
85585SOL    HW258589  12.841   3.753   7.856
85586SOL     OW58590   3.296  12.958   2.470
85586SOL    HW158591   3.384  12.956   2.508
85586SOL    HW258592   3.237  12.948   2.544
85587SOL     OW58593   1.399   6.419   4.814
85587SOL    HW158594   1.356   6.499   4.783
85587SOL    HW258595   1.327   6.360   4.837
85588SOL     OW58596  11.858  12.018   4.655
85588SOL    HW158597  11.884  12.086   4.594
85588SOL    HW258598  11.907  12.038   4.735
85589SOL     OW58599   3.226  11.886   4.469
85589SOL    HW158600   3.285  11.887   4.545
85589SOL    HW258601   3.139  11.899   4.507
85590SOL     OW58602   1.028  11.653   6.637
85590SOL    HW158603   0.954  11.652   6.698
85590SOL    HW258604   1.105  11.641   6.692
85591SOL     OW58605   0.808   8.476  10.475
85591SOL    HW158606   0.772   8.536  10.541
85591SOL    HW258607   0.744   8.405  10.470
85592SOL     OW58608   6.867   6.503  11.104
85592SOL    HW158609   6.941   6.548  11.145
85592SOL    HW258610   6.905   6.456  11.030
85593SOL     OW58611   9.962   3.787  12.182
85593SOL    HW158612   9.984   3.858  12.121
85593SOL    HW258613  10.024   3.717  12.160
85594SOL     OW58614   3.830  14.456   7.090
85594SOL    HW158615   3.791  14.415   7.167
85594SOL    HW258616   3.917  14.417   7.084
85595SOL     OW58617   5.304   0.289   9.006
85595SOL    HW158618   5.332   0.205   9.042
85595SOL    HW258619   5.357   0.301   8.927
85596SOL     OW58620  10.609   8.772   9.175
85596SOL    HW158621  10.566   8.855   9.151
85596SOL    HW258622  10.694   8.798   9.210
85597SOL     OW58623  12.587   0.513  14.643
85597SOL    HW158624  12.547   0.569  14.710
85597SOL    HW258625  12.618   0.436  14.692
85598SOL     OW58626   2.382  14.713   2.462
85598SOL    HW158627   2.463  14.762   2.453
85598SOL    HW258628   2.343  14.745   2.543
85599SOL     OW58629   5.526  10.565   3.848
85599SOL    HW158630   5.458  10.538   3.910
85599SOL    HW258631   5.517  10.660   3.843
85600SOL     OW58632  14.748   3.615  12.186
85600SOL    HW158633  14.737   3.615  12.281
85600SOL    HW258634  14.814   3.682  12.170
85601SOL     OW58635  14.193  12.306   6.275
85601SOL    HW158636  14.187  12.383   6.332
85601SOL    HW258637  14.201  12.232   6.335
85602SOL     OW58638   9.175  14.841   0.842
85602SOL    HW158639   9.110  14.844   0.772
85602SOL    HW258640   9.241   0.026   0.816
85603SOL     OW58641   2.160   5.427  12.831
85603SOL    HW158642   2.183   5.489  12.900
85603SOL    HW258643   2.065   5.432  12.825
85604SOL     OW58644   2.042   4.931  13.349
85604SOL    HW158645   2.134   4.936  13.375
85604SOL    HW258646   2.010   4.849  13.386
85605SOL     OW58647   4.985   1.497  14.296
85605SOL    HW158648   5.072   1.525  14.324
85605SOL    HW258649   4.995   1.478  14.203
85606SOL     OW58650  11.268  10.234  10.749
85606SOL    HW158651  11.307  10.147  10.749
85606SOL    HW258652  11.214  10.236  10.829
85607SOL     OW58653  14.184   9.982  14.245
85607SOL    HW158654  14.115   9.957  14.306
85607SOL    HW258655  14.216   9.899  14.210
85608SOL     OW58656  14.862   7.502  11.356
85608SOL    HW158657   0.039   7.434  11.318
85608SOL    HW258658   0.044   7.569  11.387
85609SOL     OW58659  12.593  12.267  11.402
85609SOL    HW158660  12.653  12.234  11.336
85609SOL    HW258661  12.579  12.194  11.462
85610SOL     OW58662   8.127   6.009   8.187
85610SOL    HW158663   8.180   5.930   8.178
85610SOL    HW258664   8.106   6.034   8.097
85611SOL     OW58665   6.537   1.623   3.312
85611SOL    HW158666   6.534   1.710   3.352
85611SOL    HW258667   6.530   1.562   3.386
85612SOL     OW58668   8.115   3.520  14.293
85612SOL    HW158669   8.160   3.436  14.298
85612SOL    HW258670   8.067   3.527  14.375
85613SOL     OW58671   5.814   2.855   9.003
85613SOL    HW158672   5.797   2.761   9.014
85613SOL    HW258673   5.727   2.894   8.997
85614SOL     OW58674   0.704   6.658   4.275
85614SOL    HW158675   0.796   6.635   4.264
85614SOL    HW258676   0.690   6.730   4.213
85615SOL     OW58677   8.595   7.896   5.478
85615SOL    HW158678   8.523   7.841   5.446
85615SOL    HW258679   8.556   7.950   5.546
85616SOL     OW58680   4.476   0.552   6.337
85616SOL    HW158681   4.407   0.616   6.358
85616SOL    HW258682   4.553   0.585   6.383
85617SOL     OW58683   9.749  14.603   2.324
85617SOL    HW158684   9.778  14.686   2.361
85617SOL    HW258685   9.803  14.591   2.246
85618SOL     OW58686   7.853   4.930   2.705
85618SOL    HW158687   7.808   4.984   2.641
85618SOL    HW258688   7.814   4.955   2.789
85619SOL     OW58689  11.097   1.015   5.071
85619SOL    HW158690  11.171   0.958   5.093
85619SOL    HW258691  11.068   0.984   4.985
85620SOL     OW58692  11.181   1.808  12.851
85620SOL    HW158693  11.143   1.893  12.831
85620SOL    HW258694  11.173   1.759  12.769
85621SOL     OW58695  11.318   2.140   8.055
85621SOL    HW158696  11.229   2.174   8.067
85621SOL    HW258697  11.323   2.064   8.112
85622SOL     OW58698  13.656   1.234   4.521
85622SOL    HW158699  13.620   1.181   4.592
85622SOL    HW258700  13.733   1.185   4.491
85623SOL     OW58701  11.080   4.679   8.226
85623SOL    HW158702  10.989   4.657   8.207
85623SOL    HW258703  11.084   4.680   8.322
85624SOL     OW58704   0.879  13.246   2.969
85624SOL    HW158705   0.788  13.215   2.970
85624SOL    HW258706   0.916  13.211   3.050
85625SOL     OW58707  13.352  13.654   7.847
85625SOL    HW158708  13.404  13.668   7.768
85625SOL    HW258709  13.417  13.638   7.915
85626SOL     OW58710  14.407  11.811   6.410
85626SOL    HW158711  14.382  11.727   6.449
85626SOL    HW258712  14.490  11.793   6.366
85627SOL     OW58713   1.544   1.082   6.159
85627SOL    HW158714   1.608   1.036   6.105
85627SOL    HW258715   1.468   1.094   6.103
85628SOL     OW58716   1.465  14.811   9.610
85628SOL    HW158717   1.497   0.019   9.587
85628SOL    HW258718   1.444  14.769   9.526
85629SOL     OW58719  11.832   5.106  10.530
85629SOL    HW158720  11.847   5.148  10.615
85629SOL    HW258721  11.765   5.160  10.489
85630SOL     OW58722  13.577  12.814  13.557
85630SOL    HW158723  13.616  12.731  13.584
85630SOL    HW258724  13.555  12.858  13.639
85631SOL     OW58725  11.879   3.237   5.651
85631SOL    HW158726  11.830   3.312   5.618
85631SOL    HW258727  11.969   3.253   5.624
85632SOL     OW58728   0.283   6.286  10.034
85632SOL    HW158729   0.226   6.228  10.085
85632SOL    HW258730   0.300   6.360  10.091
85633SOL     OW58731  10.569  14.226   7.935
85633SOL    HW158732  10.564  14.319   7.955
85633SOL    HW258733  10.624  14.189   8.004
85634SOL     OW58734   9.411   2.932   6.287
85634SOL    HW158735   9.356   2.923   6.365
85634SOL    HW258736   9.429   2.842   6.260
85635SOL     OW58737   0.266   8.485   7.965
85635SOL    HW158738   0.183   8.495   8.011
85635SOL    HW258739   0.243   8.491   7.872
85636SOL     OW58740   6.390  14.876   0.543
85636SOL    HW158741   6.392  14.781   0.549
85636SOL    HW258742   6.309   0.022   0.587
85637SOL     OW58743  14.602   2.864   4.518
85637SOL    HW158744  14.534   2.911   4.470
85637SOL    HW258745  14.560   2.835   4.598
85638SOL     OW58746  12.130   2.048   1.939
85638SOL    HW158747  12.037   2.031   1.951
85638SOL    HW258748  12.140   2.141   1.957
85639SOL     OW58749  11.434   9.431   6.036
85639SOL    HW158750  11.488   9.360   6.001
85639SOL    HW258751  11.468   9.445   6.124
85640SOL     OW58752   8.137  11.074   8.138
85640SOL    HW158753   8.192  11.081   8.061
85640SOL    HW258754   8.194  11.098   8.211
85641SOL     OW58755  14.316   4.061  12.609
85641SOL    HW158756  14.313   4.126  12.540
85641SOL    HW258757  14.299   3.978  12.565
85642SOL     OW58758   8.170   2.442  10.069
85642SOL    HW158759   8.139   2.492   9.993
85642SOL    HW258760   8.249   2.487  10.097
85643SOL     OW58761   6.742   2.378   2.688
85643SOL    HW158762   6.749   2.453   2.629
85643SOL    HW258763   6.734   2.303   2.630
85644SOL     OW58764  10.730   6.660   2.306
85644SOL    HW158765  10.703   6.688   2.218
85644SOL    HW258766  10.685   6.577   2.320
85645SOL     OW58767   6.948  12.218   4.586
85645SOL    HW158768   6.992  12.257   4.510
85645SOL    HW258769   6.858  12.249   4.580
85646SOL     OW58770  14.701   4.088   2.816
85646SOL    HW158771  14.728   3.998   2.797
85646SOL    HW258772  14.782   4.138   2.817
85647SOL     OW58773   7.895   0.503   9.133
85647SOL    HW158774   7.932   0.437   9.075
85647SOL    HW258775   7.972   0.549   9.168
85648SOL     OW58776   2.654  13.020   1.627
85648SOL    HW158777   2.616  13.081   1.565
85648SOL    HW258778   2.725  13.069   1.669
85649SOL     OW58779  12.804   8.713   6.385
85649SOL    HW158780  12.862   8.789   6.377
85649SOL    HW258781  12.717   8.747   6.361
85650SOL     OW58782  14.163   4.376   0.549
85650SOL    HW158783  14.187   4.428   0.625
85650SOL    HW258784  14.147   4.439   0.479
85651SOL     OW58785   4.075   7.702   9.813
85651SOL    HW158786   4.019   7.628   9.837
85651SOL    HW258787   4.138   7.666   9.751
85652SOL     OW58788   2.788   6.128  13.675
85652SOL    HW158789   2.787   6.221  13.699
85652SOL    HW258790   2.863   6.092  13.723
85653SOL     OW58791   6.035   8.087  14.084
85653SOL    HW158792   6.007   7.996  14.071
85653SOL    HW258793   6.030   8.125  13.996
85654SOL     OW58794   4.494   8.976   6.554
85654SOL    HW158795   4.559   8.906   6.547
85654SOL    HW258796   4.485   8.991   6.648
85655SOL     OW58797  14.691   8.227   4.047
85655SOL    HW158798  14.669   8.320   4.044
85655SOL    HW258799  14.737   8.216   4.130
85656SOL     OW58800   9.987   6.564   9.891
85656SOL    HW158801   9.973   6.592   9.982
85656SOL    HW258802   9.929   6.620   9.840
85657SOL     OW58803  12.833  11.462  13.881
85657SOL    HW158804  12.749  11.490  13.918
85657SOL    HW258805  12.818  11.373  13.851
85658SOL     OW58806   4.696   7.543   8.790
85658SOL    HW158807   4.685   7.487   8.867
85658SOL    HW258808   4.660   7.628   8.817
85659SOL     OW58809   3.759   1.559  13.474
85659SOL    HW158810   3.848   1.592  13.488
85659SOL    HW258811   3.742   1.504  13.550
85660SOL     OW58812  14.540   7.801  11.930
85660SOL    HW158813  14.471   7.851  11.886
85660SOL    HW258814  14.504   7.713  11.940
85661SOL     OW58815  14.636   7.751   4.821
85661SOL    HW158816  14.552   7.767   4.864
85661SOL    HW258817  14.665   7.838   4.792
85662SOL     OW58818  12.577   3.313   3.888
85662SOL    HW158819  12.557   3.235   3.837
85662SOL    HW258820  12.604   3.378   3.823
85663SOL     OW58821  14.826  11.281  12.575
85663SOL    HW158822  14.763  11.322  12.634
85663SOL    HW258823   0.014  11.246  12.634
85664SOL     OW58824  11.760   0.270  13.791
85664SOL    HW158825  11.844   0.295  13.831
85664SOL    HW258826  11.739   0.185  13.831
85665SOL     OW58827   0.383  13.043   1.563
85665SOL    HW158828   0.415  12.999   1.642
85665SOL    HW258829   0.301  12.998   1.542
85666SOL     OW58830   9.418   4.371   2.827
85666SOL    HW158831   9.487   4.431   2.857
85666SOL    HW258832   9.424   4.296   2.885
85667SOL     OW58833   4.333   1.543   1.664
85667SOL    HW158834   4.347   1.606   1.594
85667SOL    HW258835   4.421   1.525   1.699
85668SOL     OW58836   0.976  12.395   3.312
85668SOL    HW158837   0.928  12.430   3.386
85668SOL    HW258838   1.061  12.369   3.348
85669SOL     OW58839   2.915   0.925  12.849
85669SOL    HW158840   2.881   0.887  12.768
85669SOL    HW258841   2.972   0.996  12.820
85670SOL     OW58842   4.607  11.148   1.099
85670SOL    HW158843   4.591  11.209   1.028
85670SOL    HW258844   4.585  11.062   1.063
85671SOL     OW58845  12.739   9.708   3.878
85671SOL    HW158846  12.681   9.651   3.929
85671SOL    HW258847  12.819   9.714   3.930
85672SOL     OW58848   1.927   7.881  13.478
85672SOL    HW158849   1.929   7.957  13.536
85672SOL    HW258850   2.005   7.891  13.423
85673SOL     OW58851  12.911   0.277   1.117
85673SOL    HW158852  12.935   0.369   1.129
85673SOL    HW258853  12.865   0.254   1.198
85674SOL     OW58854  13.563  12.614   3.588
85674SOL    HW158855  13.577  12.574   3.674
85674SOL    HW258856  13.638  12.585   3.536
85675SOL     OW58857   9.250   3.636   9.376
85675SOL    HW158858   9.312   3.701   9.344
85675SOL    HW258859   9.260   3.638   9.471
85676SOL     OW58860   3.837   6.021   6.473
85676SOL    HW158861   3.891   5.952   6.434
85676SOL    HW258862   3.810   6.074   6.398
85677SOL     OW58863   6.532   8.789   5.020
85677SOL    HW158864   6.572   8.817   5.102
85677SOL    HW258865   6.509   8.697   5.035
85678SOL     OW58866   6.773   5.741   9.609
85678SOL    HW158867   6.743   5.770   9.695
85678SOL    HW258868   6.715   5.668   9.587
85679SOL     OW58869  14.768   4.184  13.114
85679SOL    HW158870  14.756   4.090  13.127
85679SOL    HW258871  14.766   4.221  13.202
85680SOL     OW58872   7.041   1.220  12.299
85680SOL    HW158873   7.051   1.259  12.212
85680SOL    HW258874   7.115   1.160  12.307
85681SOL     OW58875  11.375  10.537   7.110
85681SOL    HW158876  11.324  10.502   7.037
85681SOL    HW258877  11.374  10.632   7.096
85682SOL     OW58878   7.162   9.486   0.931
85682SOL    HW158879   7.125   9.427   0.866
85682SOL    HW258880   7.211   9.428   0.990
85683SOL     OW58881  10.495  14.528   4.487
85683SOL    HW158882  10.495  14.456   4.551
85683SOL    HW258883  10.521  14.605   4.538
85684SOL     OW58884   9.548   0.387  13.526
85684SOL    HW158885   9.511   0.474  13.511
85684SOL    HW258886   9.638   0.405  13.553
85685SOL     OW58887   2.603  11.170  13.792
85685SOL    HW158888   2.528  11.228  13.810
85685SOL    HW258889   2.676  11.210  13.838
85686SOL     OW58890  10.376   9.393   8.777
85686SOL    HW158891  10.422   9.311   8.756
85686SOL    HW258892  10.431   9.435   8.843
85687SOL     OW58893   8.439   7.086   6.341
85687SOL    HW158894   8.454   6.995   6.368
85687SOL    HW258895   8.527   7.122   6.329
85688SOL     OW58896   5.163  11.621   0.020
85688SOL    HW158897   5.074  11.649  14.876
85688SOL    HW258898   5.151  11.559   0.091
85689SOL     OW58899   9.161   9.821   8.362
85689SOL    HW158900   9.253   9.808   8.387
85689SOL    HW258901   9.163   9.831   8.267
85690SOL     OW58902  14.061   1.647   9.267
85690SOL    HW158903  14.010   1.567   9.278
85690SOL    HW258904  14.143   1.619   9.226
85691SOL     OW58905   4.891   3.951  14.374
85691SOL    HW158906   4.951   3.987  14.310
85691SOL    HW258907   4.875   4.022  14.436
85692SOL     OW58908   4.907  10.191   7.769
85692SOL    HW158909   4.844  10.250   7.728
85692SOL    HW258910   4.992  10.228   7.746
85693SOL     OW58911   9.716   2.584   7.008
85693SOL    HW158912   9.713   2.505   7.062
85693SOL    HW258913   9.803   2.582   6.968
85694SOL     OW58914   4.614   4.002   1.200
85694SOL    HW158915   4.689   3.955   1.238
85694SOL    HW258916   4.649   4.043   1.121
85695SOL     OW58917   8.958   0.659   8.913
85695SOL    HW158918   9.038   0.629   8.956
85695SOL    HW258919   8.898   0.678   8.985
85696SOL     OW58920   5.246   7.866  13.687
85696SOL    HW158921   5.284   7.892  13.770
85696SOL    HW258922   5.152   7.881  13.697
85697SOL     OW58923   9.808   2.777  12.956
85697SOL    HW158924   9.876   2.795  12.891
85697SOL    HW258925   9.726   2.803  12.914
85698SOL     OW58926  14.805   1.326   5.332
85698SOL    HW158927   0.004   1.286   5.369
85698SOL    HW258928  14.739   1.318   5.401
85699SOL     OW58929   1.366   3.393  12.709
85699SOL    HW158930   1.303   3.463  12.694
85699SOL    HW258931   1.315   3.324  12.753
85700SOL     OW58932   0.810  10.090   2.597
85700SOL    HW158933   0.820  10.038   2.517
85700SOL    HW258934   0.729  10.138   2.585
85701SOL     OW58935  13.125   9.795   1.918
85701SOL    HW158936  13.106   9.707   1.885
85701SOL    HW258937  13.052   9.849   1.887
85702SOL     OW58938  11.188  10.471  13.417
85702SOL    HW158939  11.127  10.539  13.446
85702SOL    HW258940  11.211  10.496  13.328
85703SOL     OW58941   4.061   9.324   4.216
85703SOL    HW158942   4.111   9.345   4.295
85703SOL    HW258943   4.071   9.402   4.161
85704SOL     OW58944   1.612   6.152  13.450
85704SOL    HW158945   1.637   6.244  13.462
85704SOL    HW258946   1.518   6.151  13.467
85705SOL     OW58947   0.806  13.932   1.063
85705SOL    HW158948   0.858  13.911   1.140
85705SOL    HW258949   0.867  13.974   1.003
85706SOL     OW58950   1.926   5.984  14.829
85706SOL    HW158951   2.014   6.004  14.798
85706SOL    HW258952   1.936   5.904   0.002
85707SOL     OW58953  13.235   1.795   1.124
85707SOL    HW158954  13.203   1.745   1.199
85707SOL    HW258955  13.158   1.844   1.094
85708SOL     OW58956   8.243   3.778  14.393
85708SOL    HW158957   8.308   3.712  14.372
85708SOL    HW258958   8.227   3.823  14.309
85709SOL     OW58959  14.325   6.142  10.773
85709SOL    HW158960  14.335   6.157  10.867
85709SOL    HW258961  14.356   6.223  10.732
85710SOL     OW58962   4.689   1.045   0.663
85710SOL    HW158963   4.759   0.981   0.669
85710SOL    HW258964   4.697   1.097   0.743
85711SOL     OW58965   0.430   5.899   2.296
85711SOL    HW158966   0.454   5.829   2.358
85711SOL    HW258967   0.355   5.942   2.336
85712SOL     OW58968   0.823   8.374   2.513
85712SOL    HW158969   0.812   8.336   2.600
85712SOL    HW258970   0.768   8.452   2.513
85713SOL     OW58971   6.055  13.422   4.307
85713SOL    HW158972   6.005  13.356   4.260
85713SOL    HW258973   6.005  13.438   4.387
85714SOL     OW58974   4.194   1.963   7.369
85714SOL    HW158975   4.186   1.891   7.306
85714SOL    HW258976   4.166   1.925   7.453
85715SOL     OW58977   3.295   5.940   4.810
85715SOL    HW158978   3.305   6.022   4.859
85715SOL    HW258979   3.307   5.964   4.719
85716SOL     OW58980   2.957   1.097  10.086
85716SOL    HW158981   2.867   1.121  10.106
85716SOL    HW258982   2.949   1.023  10.025
85717SOL     OW58983  14.215   1.573   1.733
85717SOL    HW158984  14.143   1.522   1.772
85717SOL    HW258985  14.216   1.546   1.641
85718SOL     OW58986   8.306  13.124  12.498
85718SOL    HW158987   8.274  13.195  12.554
85718SOL    HW258988   8.293  13.045  12.551
85719SOL     OW58989   5.750  10.021   8.126
85719SOL    HW158990   5.735  10.088   8.193
85719SOL    HW258991   5.662   9.992   8.101
85720SOL     OW58992  12.204   6.412  14.547
85720SOL    HW158993  12.132   6.389  14.605
85720SOL    HW258994  12.172   6.390  14.459
85721SOL     OW58995   4.083  10.642   9.236
85721SOL    HW158996   4.092  10.597   9.320
85721SOL    HW258997   4.019  10.711   9.253
85722SOL     OW58998  14.351   6.441   7.052
85722SOL    HW158999  14.326   6.409   6.965
85722SOL    HW259000  14.380   6.363   7.099
85723SOL     OW59001   8.566  13.067   0.163
85723SOL    HW159002   8.545  13.033   0.250
85723SOL    HW259003   8.586  12.990   0.111
85724SOL     OW59004  10.739   0.461   5.746
85724SOL    HW159005  10.654   0.444   5.706
85724SOL    HW259006  10.781   0.375   5.751
85725SOL     OW59007   0.748   0.485   9.689
85725SOL    HW159008   0.796   0.549   9.637
85725SOL    HW259009   0.657   0.494   9.661
85726SOL     OW59010   5.999   9.125  10.348
85726SOL    HW159011   5.982   9.219  10.359
85726SOL    HW259012   6.072   9.121  10.286
85727SOL     OW59013   9.122  13.963   6.976
85727SOL    HW159014   9.052  13.926   6.923
85727SOL    HW259015   9.154  13.889   7.028
85728SOL     OW59016   3.622   3.674   3.350
85728SOL    HW159017   3.605   3.580   3.337
85728SOL    HW259018   3.671   3.700   3.272
85729SOL     OW59019   6.042  10.064   9.766
85729SOL    HW159020   5.953  10.070   9.799
85729SOL    HW259021   6.034  10.016   9.683
85730SOL     OW59022   6.154  11.897  11.773
85730SOL    HW159023   6.165  11.802  11.767
85730SOL    HW259024   6.064  11.913  11.745
85731SOL     OW59025  13.156   9.036   5.954
85731SOL    HW159026  13.156   8.944   5.930
85731SOL    HW259027  13.191   9.081   5.877
85732SOL     OW59028   6.726   6.168  14.856
85732SOL    HW159029   6.804   6.143  14.808
85732SOL    HW259030   6.686   6.237  14.803
85733SOL     OW59031   9.513   2.078   0.893
85733SOL    HW159032   9.562   2.002   0.861
85733SOL    HW259033   9.523   2.144   0.824
85734SOL     OW59034  10.767  14.346   3.390
85734SOL    HW159035  10.845  14.402   3.394
85734SOL    HW259036  10.768  14.310   3.301
85735SOL     OW59037   6.038   4.506  12.969
85735SOL    HW159038   6.074   4.420  12.991
85735SOL    HW259039   5.967   4.487  12.908
85736SOL     OW59040   4.659  14.281  11.561
85736SOL    HW159041   4.564  14.287  11.573
85736SOL    HW259042   4.689  14.224  11.632
85737SOL     OW59043  12.429   6.623   3.845
85737SOL    HW159044  12.356   6.653   3.790
85737SOL    HW259045  12.467   6.703   3.881
85738SOL     OW59046   2.537   8.437   9.412
85738SOL    HW159047   2.563   8.419   9.503
85738SOL    HW259048   2.606   8.495   9.379
85739SOL     OW59049   3.537   9.094   1.297
85739SOL    HW159050   3.616   9.147   1.287
85739SOL    HW259051   3.531   9.044   1.216
85740SOL     OW59052  11.921   0.063   7.383
85740SOL    HW159053  11.892  14.864   7.430
85740SOL    HW259054  11.908   0.041   7.290
85741SOL     OW59055   0.709   7.405   8.808
85741SOL    HW159056   0.648   7.406   8.734
85741SOL    HW259057   0.694   7.320   8.850
85742SOL     OW59058   7.246   0.907   3.769
85742SOL    HW159059   7.235   0.858   3.850
85742SOL    HW259060   7.337   0.937   3.770
85743SOL     OW59061   7.013   2.901   2.706
85743SOL    HW159062   6.940   2.956   2.733
85743SOL    HW259063   7.034   2.850   2.784
85744SOL     OW59064   2.253   9.504   9.495
85744SOL    HW159065   2.312   9.429   9.509
85744SOL    HW259066   2.198   9.478   9.422
85745SOL     OW59067  11.493   5.070   3.035
85745SOL    HW159068  11.580   5.036   3.013
85745SOL    HW259069  11.434   5.030   2.971
85746SOL     OW59070  13.761  14.381   2.983
85746SOL    HW159071  13.767  14.286   2.986
85746SOL    HW259072  13.719  14.405   3.066
85747SOL     OW59073  12.658   7.071  12.349
85747SOL    HW159074  12.752   7.071  12.364
85747SOL    HW259075  12.619   7.053  12.435
85748SOL     OW59076  11.555   9.155  10.827
85748SOL    HW159077  11.536   9.205  10.906
85748SOL    HW259078  11.470   9.129  10.794
85749SOL     OW59079  11.384   3.589  12.977
85749SOL    HW159080  11.405   3.515  12.921
85749SOL    HW259081  11.418   3.665  12.931
85750SOL     OW59082   6.582   1.339   0.385
85750SOL    HW159083   6.549   1.418   0.341
85750SOL    HW259084   6.554   1.267   0.329
85751SOL     OW59085   9.796   1.613   2.020
85751SOL    HW159086   9.703   1.628   2.006
85751SOL    HW259087   9.825   1.566   1.942
85752SOL     OW59088  13.385   8.611  12.635
85752SOL    HW159089  13.330   8.617  12.713
85752SOL    HW259090  13.324   8.610  12.562
85753SOL     OW59091  11.587   9.120   7.634
85753SOL    HW159092  11.652   9.189   7.628
85753SOL    HW259093  11.608   9.074   7.716
85754SOL     OW59094  13.631  12.575   4.415
85754SOL    HW159095  13.697  12.642   4.431
85754SOL    HW259096  13.552  12.624   4.389
85755SOL     OW59097  12.100   9.564   1.791
85755SOL    HW159098  12.109   9.613   1.872
85755SOL    HW259099  12.079   9.631   1.725
85756SOL     OW59100   8.281  10.985  14.496
85756SOL    HW159101   8.201  10.959  14.451
85756SOL    HW259102   8.325  11.044  14.435
85757SOL     OW59103  12.152   1.556   0.635
85757SOL    HW159104  12.089   1.484   0.631
85757SOL    HW259105  12.222   1.524   0.692
85758SOL     OW59106  13.477   0.405   4.078
85758SOL    HW159107  13.504   0.327   4.126
85758SOL    HW259108  13.499   0.387   3.987
85759SOL     OW59109   5.633   1.241   8.819
85759SOL    HW159110   5.546   1.202   8.824
85759SOL    HW259111   5.690   1.177   8.860
85760SOL     OW59112  12.126   2.802   4.783
85760SOL    HW159113  12.038   2.768   4.801
85760SOL    HW259114  12.121   2.836   4.694
85761SOL     OW59115   9.274   6.161   9.646
85761SOL    HW159116   9.319   6.089   9.602
85761SOL    HW259117   9.206   6.119   9.698
85762SOL     OW59118   6.239   0.987   5.745
85762SOL    HW159119   6.287   1.024   5.671
85762SOL    HW259120   6.266   1.040   5.820
85763SOL     OW59121  11.403   1.601   7.850
85763SOL    HW159122  11.480   1.554   7.882
85763SOL    HW259123  11.329   1.559   7.895
85764SOL     OW59124  12.377   5.760  10.026
85764SOL    HW159125  12.308   5.742   9.962
85764SOL    HW259126  12.454   5.782   9.974
85765SOL     OW59127   8.237   5.580  14.353
85765SOL    HW159128   8.323   5.539  14.354
85765SOL    HW259129   8.248   5.657  14.297
85766SOL     OW59130   2.509  11.619   1.639
85766SOL    HW159131   2.504  11.629   1.734
85766SOL    HW259132   2.449  11.685   1.605
85767SOL     OW59133  10.797  12.734  10.380
85767SOL    HW159134  10.849  12.705  10.455
85767SOL    HW259135  10.860  12.742  10.309
85768SOL     OW59136   7.197   2.197   7.153
85768SOL    HW159137   7.256   2.153   7.216
85768SOL    HW259138   7.146   2.257   7.207
85769SOL     OW59139  14.713   9.323  11.455
85769SOL    HW159140  14.734   9.244  11.504
85769SOL    HW259141  14.630   9.353  11.492
85770SOL     OW59142   5.441   3.127   0.294
85770SOL    HW159143   5.429   3.191   0.223
85770SOL    HW259144   5.377   3.058   0.276
85771SOL     OW59145  10.841   1.358  11.030
85771SOL    HW159146  10.929   1.339  10.998
85771SOL    HW259147  10.847   1.448  11.064
85772SOL     OW59148   9.140   8.504   3.215
85772SOL    HW159149   9.051   8.529   3.240
85772SOL    HW259150   9.189   8.586   3.213
85773SOL     OW59151   5.352   6.385   3.688
85773SOL    HW159152   5.404   6.324   3.634
85773SOL    HW259153   5.403   6.394   3.768
85774SOL     OW59154  13.851   7.490   2.871
85774SOL    HW159155  13.801   7.572   2.863
85774SOL    HW259156  13.910   7.506   2.945
85775SOL     OW59157   7.352   9.443   2.545
85775SOL    HW159158   7.443   9.469   2.556
85775SOL    HW259159   7.303   9.526   2.545
85776SOL     OW59160   4.285  13.227   8.482
85776SOL    HW159161   4.263  13.320   8.492
85776SOL    HW259162   4.263  13.207   8.391
85777SOL     OW59163  12.567   5.262   2.830
85777SOL    HW159164  12.606   5.347   2.814
85777SOL    HW259165  12.582   5.212   2.749
85778SOL     OW59166   9.514   2.843   9.320
85778SOL    HW159167   9.521   2.815   9.229
85778SOL    HW259168   9.538   2.765   9.371
85779SOL     OW59169   5.854   0.866   9.033
85779SOL    HW159170   5.778   0.811   9.014
85779SOL    HW259171   5.865   0.860   9.128
85780SOL     OW59172   6.335  11.324   6.829
85780SOL    HW159173   6.395  11.358   6.895
85780SOL    HW259174   6.258  11.295   6.879
85781SOL     OW59175   1.807   3.322   7.703
85781SOL    HW159176   1.742   3.361   7.761
85781SOL    HW259177   1.824   3.389   7.637
85782SOL     OW59178  13.447   0.956   1.669
85782SOL    HW159179  13.403   0.883   1.627
85782SOL    HW259180  13.540   0.935   1.661
85783SOL     OW59181  11.772  14.451  11.953
85783SOL    HW159182  11.693  14.502  11.971
85783SOL    HW259183  11.843  14.515  11.955
85784SOL     OW59184   3.601   3.869   9.399
85784SOL    HW159185   3.642   3.936   9.454
85784SOL    HW259186   3.529   3.835   9.452
85785SOL     OW59187  10.395   6.442  12.565
85785SOL    HW159188  10.474   6.481  12.602
85785SOL    HW259189  10.349   6.405  12.640
85786SOL     OW59190   9.775   4.258   0.137
85786SOL    HW159191   9.746   4.222   0.053
85786SOL    HW259192   9.866   4.231   0.145
85787SOL     OW59193   0.586  10.732   5.990
85787SOL    HW159194   0.506  10.784   5.993
85787SOL    HW259195   0.566  10.653   6.041
85788SOL     OW59196   7.874   1.582  12.562
85788SOL    HW159197   7.876   1.668  12.603
85788SOL    HW259198   7.826   1.527  12.623
85789SOL     OW59199   4.484  14.670   6.458
85789SOL    HW159200   4.390  14.660   6.444
85789SOL    HW259201   4.495  14.762   6.482
85790SOL     OW59202   4.325  13.009   7.994
85790SOL    HW159203   4.380  13.010   8.072
85790SOL    HW259204   4.383  13.040   7.924
85791SOL     OW59205   6.105  11.482   1.117
85791SOL    HW159206   6.106  11.421   1.191
85791SOL    HW259207   6.020  11.468   1.075
85792SOL     OW59208   3.696  14.463   4.042
85792SOL    HW159209   3.777  14.513   4.026
85792SOL    HW259210   3.686  14.408   3.964
85793SOL     OW59211   2.003  13.651   4.953
85793SOL    HW159212   1.973  13.720   4.894
85793SOL    HW259213   1.931  13.639   5.015
85794SOL     OW59214   8.861  14.867   8.803
85794SOL    HW159215   8.810  14.813   8.742
85794SOL    HW259216   8.802   0.060   8.824
85795SOL     OW59217   1.331   3.664   6.081
85795SOL    HW159218   1.424   3.642   6.091
85795SOL    HW259219   1.332   3.755   6.051
85796SOL     OW59220   2.860  10.231   8.469
85796SOL    HW159221   2.890  10.154   8.517
85796SOL    HW259222   2.924  10.241   8.397
85797SOL     OW59223  13.427   6.276  10.296
85797SOL    HW159224  13.423   6.299  10.203
85797SOL    HW259225  13.516   6.297  10.322
85798SOL     OW59226  11.000   9.048  12.975
85798SOL    HW159227  10.960   9.089  13.052
85798SOL    HW259228  10.931   8.993  12.938
85799SOL     OW59229   7.935   6.973   6.071
85799SOL    HW159230   7.870   6.939   6.132
85799SOL    HW259231   8.019   6.957   6.114
85800SOL     OW59232   6.734  12.964   5.967
85800SOL    HW159233   6.731  12.874   5.935
85800SOL    HW259234   6.646  12.999   5.949
85801SOL     OW59235  12.692   9.710   7.533
85801SOL    HW159236  12.660   9.656   7.605
85801SOL    HW259237  12.613   9.744   7.491
85802SOL     OW59238   3.165  12.402   0.347
85802SOL    HW159239   3.178  12.439   0.260
85802SOL    HW259240   3.120  12.319   0.332
85803SOL     OW59241  11.386   4.316  14.588
85803SOL    HW159242  11.311   4.308  14.529
85803SOL    HW259243  11.370   4.397  14.636
85804SOL     OW59244   3.027  14.829   1.909
85804SOL    HW159245   2.934  14.818   1.928
85804SOL    HW259246   3.069  14.836   1.995
85805SOL     OW59247  11.179   1.495   2.462
85805SOL    HW159248  11.271   1.491   2.485
85805SOL    HW259249  11.152   1.404   2.454
85806SOL     OW59250  10.274  13.609   7.932
85806SOL    HW159251  10.278  13.580   8.023
85806SOL    HW259252  10.263  13.529   7.882
85807SOL     OW59253  14.527   2.363  12.320
85807SOL    HW159254  14.618   2.345  12.342
85807SOL    HW259255  14.512   2.451  12.353
85808SOL     OW59256  14.710   9.471   4.407
85808SOL    HW159257  14.792   9.457   4.455
85808SOL    HW259258  14.675   9.552   4.443
85809SOL     OW59259   0.538   1.292  10.274
85809SOL    HW159260   0.528   1.233  10.349
85809SOL    HW259261   0.512   1.239  10.198
85810SOL     OW59262   2.747   5.288   5.614
85810SOL    HW159263   2.693   5.307   5.538
85810SOL    HW259264   2.692   5.232   5.670
85811SOL     OW59265   4.467  12.041   2.897
85811SOL    HW159266   4.433  11.980   2.963
85811SOL    HW259267   4.520  12.103   2.946
85812SOL     OW59268   6.015   8.861  10.309
85812SOL    HW159269   5.992   8.861  10.216
85812SOL    HW259270   5.984   8.946  10.341
85813SOL     OW59271   1.248   5.969   3.852
85813SOL    HW159272   1.214   5.917   3.925
85813SOL    HW259273   1.268   5.905   3.784
85814SOL     OW59274   1.714   1.479  13.455
85814SOL    HW159275   1.688   1.387  13.449
85814SOL    HW259276   1.781   1.489  13.388
85815SOL     OW59277  10.239   6.853   0.560
85815SOL    HW159278  10.278   6.897   0.485
85815SOL    HW259279  10.169   6.800   0.523
85816SOL     OW59280   3.986   7.461   9.206
85816SOL    HW159281   4.072   7.481   9.243
85816SOL    HW259282   3.928   7.453   9.282
85817SOL     OW59283   8.671   5.057   1.928
85817SOL    HW159284   8.582   5.024   1.942
85817SOL    HW259285   8.659   5.138   1.879
85818SOL     OW59286   3.926   7.989   7.755
85818SOL    HW159287   4.007   7.961   7.713
85818SOL    HW259288   3.883   7.908   7.781
85819SOL     OW59289   2.795   8.189  10.069
85819SOL    HW159290   2.771   8.171   9.978
85819SOL    HW259291   2.887   8.164  10.074
85820SOL     OW59292  13.603   6.971  10.592
85820SOL    HW159293  13.508   6.985  10.587
85820SOL    HW259294  13.618   6.892  10.539
85821SOL     OW59295  10.354   3.709   6.573
85821SOL    HW159296  10.283   3.644   6.570
85821SOL    HW259297  10.308   3.794   6.569
85822SOL     OW59298   5.033   7.942  14.784
85822SOL    HW159299   4.942   7.964  14.764
85822SOL    HW259300   5.038   7.947   0.001
85823SOL     OW59301   6.098  13.514  12.239
85823SOL    HW159302   6.017  13.557  12.266
85823SOL    HW259303   6.167  13.575  12.266
85824SOL     OW59304   0.734   5.975  12.830
85824SOL    HW159305   0.799   5.939  12.891
85824SOL    HW259306   0.681   5.899  12.806
85825SOL     OW59307   2.851  14.809  14.817
85825SOL    HW159308   2.910  14.822  14.742
85825SOL    HW259309   2.821   0.017  14.840
85826SOL     OW59310   2.094   2.425   3.458
85826SOL    HW159311   2.045   2.445   3.538
85826SOL    HW259312   2.083   2.330   3.447
85827SOL     OW59313  12.718   0.058   4.089
85827SOL    HW159314  12.736  14.878   4.015
85827SOL    HW259315  12.803   0.068   4.132
85828SOL     OW59316   7.758   8.143  11.163
85828SOL    HW159317   7.680   8.193  11.138
85828SOL    HW259318   7.766   8.157  11.257
85829SOL     OW59319  12.530  13.258   9.257
85829SOL    HW159320  12.435  13.270   9.258
85829SOL    HW259321  12.542  13.174   9.212
85830SOL     OW59322   5.986  11.630   9.623
85830SOL    HW159323   6.035  11.681   9.688
85830SOL    HW259324   5.953  11.696   9.561
85831SOL     OW59325  12.620   6.396   5.719
85831SOL    HW159326  12.547   6.458   5.713
85831SOL    HW259327  12.606   6.335   5.647
85832SOL     OW59328   6.947   4.403   1.509
85832SOL    HW159329   6.861   4.364   1.522
85832SOL    HW259330   6.990   4.398   1.594
85833SOL     OW59331   5.777   4.373  11.536
85833SOL    HW159332   5.720   4.317  11.589
85833SOL    HW259333   5.782   4.455  11.584
85834SOL     OW59334  10.018   5.425   3.405
85834SOL    HW159335  10.050   5.459   3.488
85834SOL    HW259336   9.928   5.399   3.423
85835SOL     OW59337   3.287   0.308   0.704
85835SOL    HW159338   3.335   0.307   0.786
85835SOL    HW259339   3.253   0.397   0.696
85836SOL     OW59340  14.302  10.479  14.477
85836SOL    HW159341  14.249  10.495  14.399
85836SOL    HW259342  14.350  10.560  14.491
85837SOL     OW59343  14.156   6.891   7.749
85837SOL    HW159344  14.178   6.804   7.716
85837SOL    HW259345  14.241   6.931   7.770
85838SOL     OW59346   3.854   7.408   7.640
85838SOL    HW159347   3.912   7.350   7.591
85838SOL    HW259348   3.897   7.494   7.637
85839SOL     OW59349   6.294  10.965   3.685
85839SOL    HW159350   6.344  11.015   3.750
85839SOL    HW259351   6.315  10.873   3.704
85840SOL     OW59352   8.797  10.441  11.136
85840SOL    HW159353   8.793  10.456  11.041
85840SOL    HW259354   8.760  10.354  11.148
85841SOL     OW59355   9.615   7.587  12.310
85841SOL    HW159356   9.630   7.516  12.248
85841SOL    HW259357   9.611   7.666  12.257
85842SOL     OW59358   0.972   5.904  14.598
85842SOL    HW159359   0.971   5.959  14.677
85842SOL    HW259360   0.955   5.965  14.526
85843SOL     OW59361   7.134   3.128  10.724
85843SOL    HW159362   7.178   3.047  10.748
85843SOL    HW259363   7.182   3.196  10.771
85844SOL     OW59364  10.166   0.183   3.503
85844SOL    HW159365  10.078   0.177   3.465
85844SOL    HW259366  10.178   0.099   3.548
85845SOL     OW59367  11.217   3.721   0.263
85845SOL    HW159368  11.226   3.716   0.168
85845SOL    HW259369  11.233   3.813   0.283
85846SOL     OW59370   5.025   8.002   2.610
85846SOL    HW159371   5.026   7.990   2.705
85846SOL    HW259372   4.965   8.075   2.595
85847SOL     OW59373   7.915   6.579   2.772
85847SOL    HW159374   7.953   6.667   2.766
85847SOL    HW259375   7.823   6.595   2.793
85848SOL     OW59376  10.660   2.173   8.707
85848SOL    HW159377  10.668   2.108   8.638
85848SOL    HW259378  10.698   2.253   8.670
85849SOL     OW59379   7.935   6.621  14.630
85849SOL    HW159380   7.939   6.696  14.572
85849SOL    HW259381   7.911   6.657  14.715
85850SOL     OW59382   9.660  10.144  10.256
85850SOL    HW159383   9.609  10.069  10.225
85850SOL    HW259384   9.695  10.184  10.177
85851SOL     OW59385  13.741   4.334  11.248
85851SOL    HW159386  13.727   4.421  11.284
85851SOL    HW259387  13.663   4.317  11.195
85852SOL     OW59388   2.729   0.499   0.189
85852SOL    HW159389   2.648   0.451   0.204
85852SOL    HW259390   2.713   0.548   0.108
85853SOL     OW59391   7.926   2.461   1.383
85853SOL    HW159392   7.835   2.431   1.380
85853SOL    HW259393   7.924   2.536   1.444
85854SOL     OW59394  12.017   2.166   2.218
85854SOL    HW159395  12.013   2.071   2.210
85854SOL    HW259396  12.048   2.182   2.307
85855SOL     OW59397   1.033   3.963   9.960
85855SOL    HW159398   1.086   3.926   9.888
85855SOL    HW259399   0.971   4.022   9.916
85856SOL     OW59400   5.383   9.714  11.195
85856SOL    HW159401   5.360   9.676  11.110
85856SOL    HW259402   5.414   9.640  11.247
85857SOL     OW59403   5.744   8.234  12.555
85857SOL    HW159404   5.722   8.290  12.481
85857SOL    HW259405   5.695   8.271  12.628
85858SOL     OW59406   8.679   0.617   6.353
85858SOL    HW159407   8.599   0.566   6.349
85858SOL    HW259408   8.718   0.594   6.438
85859SOL     OW59409  13.405   2.978   2.510
85859SOL    HW159410  13.381   2.897   2.465
85859SOL    HW259411  13.469   3.019   2.453
85860SOL     OW59412   9.957   8.774  14.767
85860SOL    HW159413   9.963   8.681  14.788
85860SOL    HW259414   9.995   8.818  14.844
85861SOL     OW59415   8.714   6.410  12.309
85861SOL    HW159416   8.748   6.324  12.286
85861SOL    HW259417   8.791   6.465  12.321
85862SOL     OW59418   7.010  13.946   8.792
85862SOL    HW159419   6.964  14.005   8.732
85862SOL    HW259420   7.070  13.896   8.737
85863SOL     OW59421  13.978   7.179   5.726
85863SOL    HW159422  13.966   7.184   5.632
85863SOL    HW259423  14.051   7.118   5.737
85864SOL     OW59424   7.023  10.184   7.074
85864SOL    HW159425   7.075  10.125   7.129
85864SOL    HW259426   7.006  10.135   6.994
85865SOL     OW59427  14.486   1.939   7.952
85865SOL    HW159428  14.397   1.955   7.985
85865SOL    HW259429  14.525   1.880   8.016
85866SOL     OW59430  13.901   0.944   1.375
85866SOL    HW159431  13.991   0.925   1.402
85866SOL    HW259432  13.910   1.009   1.305
85867SOL     OW59433  10.858   6.386  11.061
85867SOL    HW159434  10.783   6.369  11.004
85867SOL    HW259435  10.853   6.479  11.081
85868SOL     OW59436   4.828  13.451   2.868
85868SOL    HW159437   4.793  13.443   2.779
85868SOL    HW259438   4.811  13.542   2.892
85869SOL     OW59439  11.708  11.407   8.922
85869SOL    HW159440  11.675  11.398   9.012
85869SOL    HW259441  11.792  11.360   8.923
85870SOL     OW59442   0.587   8.465   1.177
85870SOL    HW159443   0.602   8.376   1.209
85870SOL    HW259444   0.672   8.507   1.185
85871SOL     OW59445   1.122   4.577  11.702
85871SOL    HW159446   1.067   4.652  11.678
85871SOL    HW259447   1.108   4.513  11.632
85872SOL     OW59448   7.397   4.274   1.060
85872SOL    HW159449   7.388   4.288   0.966
85872SOL    HW259450   7.328   4.327   1.100
85873SOL     OW59451   6.009   3.182  11.315
85873SOL    HW159452   6.020   3.213  11.225
85873SOL    HW259453   5.947   3.110  11.309
85874SOL     OW59454   1.363  13.565   5.462
85874SOL    HW159455   1.448  13.524   5.443
85874SOL    HW259456   1.354  13.633   5.396
85875SOL     OW59457  11.816   9.955   7.312
85875SOL    HW159458  11.746  10.018   7.328
85875SOL    HW259459  11.821   9.949   7.216
85876SOL     OW59460   5.902   2.622   6.668
85876SOL    HW159461   5.968   2.568   6.711
85876SOL    HW259462   5.933   2.712   6.680
85877SOL     OW59463  10.707   0.769  12.075
85877SOL    HW159464  10.736   0.765  11.984
85877SOL    HW259465  10.764   0.708  12.121
85878SOL     OW59466  10.369  11.490   2.697
85878SOL    HW159467  10.305  11.449   2.756
85878SOL    HW259468  10.323  11.498   2.614
85879SOL     OW59469  10.672  12.171   5.255
85879SOL    HW159470  10.629  12.091   5.284
85879SOL    HW259471  10.615  12.205   5.186
85880SOL     OW59472  13.909   7.475  10.453
85880SOL    HW159473  13.940   7.519  10.533
85880SOL    HW259474  13.847   7.537  10.415
85881SOL     OW59475  11.407   4.299   9.941
85881SOL    HW159476  11.384   4.207   9.933
85881SOL    HW259477  11.497   4.298   9.975
85882SOL     OW59478   0.360  13.655   8.129
85882SOL    HW159479   0.359  13.712   8.206
85882SOL    HW259480   0.269  13.650   8.101
85883SOL     OW59481  11.238   9.032   8.922
85883SOL    HW159482  11.216   9.121   8.949
85883SOL    HW259483  11.214   9.028   8.830
85884SOL     OW59484   4.037   5.064   1.918
85884SOL    HW159485   4.076   5.040   2.002
85884SOL    HW259486   3.964   5.003   1.907
85885SOL     OW59487   5.054   7.852  14.301
85885SOL    HW159488   5.104   7.899  14.369
85885SOL    HW259489   5.102   7.771  14.288
85886SOL     OW59490   5.388   1.739  13.713
85886SOL    HW159491   5.437   1.725  13.631
85886SOL    HW259492   5.330   1.812  13.694
85887SOL     OW59493  11.744  12.819   6.137
85887SOL    HW159494  11.747  12.754   6.067
85887SOL    HW259495  11.716  12.770   6.214
85888SOL     OW59496   8.022   8.619   6.361
85888SOL    HW159497   8.114   8.628   6.386
85888SOL    HW259498   7.973   8.652   6.437
85889SOL     OW59499   2.984   0.450  12.087
85889SOL    HW159500   3.015   0.461  11.997
85889SOL    HW259501   2.898   0.490  12.088
85890SOL     OW59502   9.167   8.992   9.166
85890SOL    HW159503   9.206   9.079   9.175
85890SOL    HW259504   9.103   8.987   9.237
85891SOL     OW59505   0.646   0.632  11.257
85891SOL    HW159506   0.556   0.651  11.284
85891SOL    HW259507   0.699   0.658  11.332
85892SOL     OW59508   9.351  14.126   3.987
85892SOL    HW159509   9.381  14.037   4.007
85892SOL    HW259510   9.430  14.180   3.990
85893SOL     OW59511   0.360  12.096  11.618
85893SOL    HW159512   0.420  12.095  11.694
85893SOL    HW259513   0.302  12.170  11.635
85894SOL     OW59514   5.857   3.864  13.683
85894SOL    HW159515   5.817   3.812  13.613
85894SOL    HW259516   5.891   3.798  13.744
85895SOL     OW59517   6.833   9.288   2.015
85895SOL    HW159518   6.815   9.381   2.008
85895SOL    HW259519   6.862   9.276   2.105
85896SOL     OW59520   1.344   5.628   3.411
85896SOL    HW159521   1.274   5.613   3.475
85896SOL    HW259522   1.311   5.700   3.357
85897SOL     OW59523   2.370  12.833   4.980
85897SOL    HW159524   2.461  12.861   4.966
85897SOL    HW259525   2.373  12.782   5.061
85898SOL     OW59526   1.842   1.747   2.785
85898SOL    HW159527   1.859   1.820   2.726
85898SOL    HW259528   1.752   1.761   2.815
85899SOL     OW59529  11.970   6.145  10.817
85899SOL    HW159530  11.888   6.138  10.770
85899SOL    HW259531  11.946   6.134  10.909
85900SOL     OW59532  10.641   1.188   0.608
85900SOL    HW159533  10.712   1.204   0.670
85900SOL    HW259534  10.640   1.266   0.553
85901SOL     OW59535  11.463   4.710   5.480
85901SOL    HW159536  11.500   4.790   5.517
85901SOL    HW259537  11.427   4.663   5.555
85902SOL     OW59538  12.481  14.618   2.862
85902SOL    HW159539  12.445  14.566   2.791
85902SOL    HW259540  12.519  14.553   2.922
85903SOL     OW59541   6.760   1.347  10.508
85903SOL    HW159542   6.785   1.259  10.537
85903SOL    HW259543   6.839   1.400  10.519
85904SOL     OW59544   9.310   6.073   8.487
85904SOL    HW159545   9.367   6.003   8.458
85904SOL    HW259546   9.364   6.152   8.480
85905SOL     OW59547   1.888   3.274  13.654
85905SOL    HW159548   1.860   3.284  13.564
85905SOL    HW259549   1.960   3.336  13.664
85906SOL     OW59550   6.641  13.083   4.745
85906SOL    HW159551   6.564  13.068   4.799
85906SOL    HW259552   6.670  13.171   4.767
85907SOL     OW59553  14.840   9.162   0.906
85907SOL    HW159554  14.786   9.177   0.828
85907SOL    HW259555   0.004   9.078   0.890
85908SOL     OW59556  11.521  11.142   5.510
85908SOL    HW159557  11.580  11.214   5.490
85908SOL    HW259558  11.547  11.113   5.597
85909SOL     OW59559  11.250   0.849   2.334
85909SOL    HW159560  11.188   0.819   2.401
85909SOL    HW259561  11.239   0.787   2.262
85910SOL     OW59562   4.912   2.839   0.146
85910SOL    HW159563   4.906   2.851   0.240
85910SOL    HW259564   4.994   2.883   0.121
85911SOL     OW59565   1.524   1.607   7.387
85911SOL    HW159566   1.521   1.693   7.429
85911SOL    HW259567   1.575   1.552   7.447
85912SOL     OW59568  13.909   7.751  11.571
85912SOL    HW159569  13.974   7.804  11.525
85912SOL    HW259570  13.869   7.697  11.503
85913SOL     OW59571  10.567   5.620   0.471
85913SOL    HW159572  10.482   5.605   0.430
85913SOL    HW259573  10.562   5.573   0.554
85914SOL     OW59574   7.334  14.362   3.873
85914SOL    HW159575   7.297  14.319   3.796
85914SOL    HW259576   7.261  14.366   3.935
85915SOL     OW59577  13.877   3.657   5.033
85915SOL    HW159578  13.880   3.628   4.942
85915SOL    HW259579  13.969   3.671   5.057
85916SOL     OW59580   5.299   4.230   0.517
85916SOL    HW159581   5.332   4.146   0.549
85916SOL    HW259582   5.372   4.268   0.470
85917SOL     OW59583   0.812   8.123   3.740
85917SOL    HW159584   0.799   8.149   3.831
85917SOL    HW259585   0.759   8.044   3.730
85918SOL     OW59586  12.705  12.882   9.591
85918SOL    HW159587  12.742  12.946   9.531
85918SOL    HW259588  12.780  12.831   9.622
85919SOL     OW59589  14.760   3.562   6.316
85919SOL    HW159590  14.832   3.546   6.255
85919SOL    HW259591  14.799   3.550   6.403
85920SOL     OW59592   1.184   4.071   8.708
85920SOL    HW159593   1.092   4.093   8.726
85920SOL    HW259594   1.207   4.123   8.632
85921SOL     OW59595   4.608  11.278   0.876
85921SOL    HW159596   4.546  11.346   0.850
85921SOL    HW259597   4.692  11.325   0.884
85922SOL     OW59598   5.970  13.700   4.936
85922SOL    HW159599   5.898  13.760   4.923
85922SOL    HW259600   5.956  13.631   4.871
85923SOL     OW59601  11.552  12.883   5.514
85923SOL    HW159602  11.550  12.976   5.540
85923SOL    HW259603  11.515  12.882   5.426
85924SOL     OW59604  11.915  12.212   8.614
85924SOL    HW159605  11.940  12.180   8.527
85924SOL    HW259606  11.819  12.207   8.614
85925SOL     OW59607   7.757   8.552   2.552
85925SOL    HW159608   7.727   8.564   2.462
85925SOL    HW259609   7.691   8.596   2.605
85926SOL     OW59610   9.509   1.083  13.902
85926SOL    HW159611   9.566   1.158  13.922
85926SOL    HW259612   9.456   1.113  13.828
85927SOL     OW59613   1.699   9.536  14.491
85927SOL    HW159614   1.629   9.487  14.535
85927SOL    HW259615   1.687   9.626  14.520
85928SOL     OW59616  10.594  14.317  13.170
85928SOL    HW159617  10.503  14.315  13.198
85928SOL    HW259618  10.639  14.365  13.239
85929SOL     OW59619   8.015  12.616  10.953
85929SOL    HW159620   7.948  12.574  11.006
85929SOL    HW259621   8.007  12.577  10.866
85930SOL     OW59622   4.027   7.391   2.597
85930SOL    HW159623   4.107   7.360   2.638
85930SOL    HW259624   3.959   7.378   2.663
85931SOL     OW59625   9.507   6.747  12.179
85931SOL    HW159626   9.512   6.673  12.118
85931SOL    HW259627   9.486   6.822  12.124
85932SOL     OW59628   0.238   9.252   5.430
85932SOL    HW159629   0.309   9.189   5.415
85932SOL    HW259630   0.203   9.270   5.342
85933SOL     OW59631   2.677   9.380   5.896
85933SOL    HW159632   2.649   9.352   5.809
85933SOL    HW259633   2.663   9.304   5.952
85934SOL     OW59634   3.710  13.802  11.208
85934SOL    HW159635   3.765  13.733  11.244
85934SOL    HW259636   3.632  13.756  11.175
85935SOL     OW59637   9.091   8.085  12.515
85935SOL    HW159638   9.089   8.017  12.582
85935SOL    HW259639   9.139   8.045  12.442
85936SOL     OW59640   5.503  10.899   9.503
85936SOL    HW159641   5.542  10.972   9.456
85936SOL    HW259642   5.430  10.871   9.447
85937SOL     OW59643   4.497   7.298   3.470
85937SOL    HW159644   4.557   7.368   3.496
85937SOL    HW259645   4.498   7.237   3.544
85938SOL     OW59646   5.271  13.739  12.200
85938SOL    HW159647   5.204  13.799  12.235
85938SOL    HW259648   5.352  13.767  12.241
85939SOL     OW59649  13.244   5.427   7.914
85939SOL    HW159650  13.185   5.491   7.953
85939SOL    HW259651  13.294   5.476   7.849
85940SOL     OW59652   2.762   8.956   2.997
85940SOL    HW159653   2.732   9.043   3.025
85940SOL    HW259654   2.695   8.896   3.030
85941SOL     OW59655   8.984   5.520  14.851
85941SOL    HW159656   8.952   5.608  14.869
85941SOL    HW259657   8.936   5.492  14.773
85942SOL     OW59658  12.993   8.027   1.605
85942SOL    HW159659  13.013   8.119   1.587
85942SOL    HW259660  13.051   7.978   1.547
85943SOL     OW59661   4.189   5.594  10.150
85943SOL    HW159662   4.209   5.680  10.188
85943SOL    HW259663   4.199   5.606  10.056
85944SOL     OW59664  11.714   0.081   5.033
85944SOL    HW159665  11.752   0.061   4.947
85944SOL    HW259666  11.649   0.012   5.046
85945SOL     OW59667   6.452   6.316   9.439
85945SOL    HW159668   6.389   6.378   9.403
85945SOL    HW259669   6.460   6.340   9.531
85946SOL     OW59670   9.555   0.606   2.720
85946SOL    HW159671   9.514   0.540   2.665
85946SOL    HW259672   9.591   0.556   2.794
85947SOL     OW59673  13.089  11.120   9.311
85947SOL    HW159674  13.040  11.155   9.385
85947SOL    HW259675  13.050  11.162   9.234
85948SOL     OW59676  13.030   7.184   5.656
85948SOL    HW159677  13.094   7.235   5.706
85948SOL    HW259678  12.951   7.184   5.710
85949SOL     OW59679   7.870   7.979  11.504
85949SOL    HW159680   7.937   7.944  11.563
85949SOL    HW259681   7.787   7.950  11.542
85950SOL     OW59682   9.613  14.517   4.299
85950SOL    HW159683   9.631  14.423   4.295
85950SOL    HW259684   9.675  14.555   4.237
85951SOL     OW59685   3.717   9.381   9.199
85951SOL    HW159686   3.633   9.376   9.154
85951SOL    HW259687   3.740   9.291   9.218
85952SOL     OW59688   6.847  12.909  11.591
85952SOL    HW159689   6.893  12.887  11.510
85952SOL    HW259690   6.902  12.871  11.660
85953SOL     OW59691  13.718   5.080   4.997
85953SOL    HW159692  13.745   5.041   5.080
85953SOL    HW259693  13.622   5.085   5.004
85954SOL     OW59694  14.308   1.434  13.791
85954SOL    HW159695  14.254   1.435  13.870
85954SOL    HW259696  14.317   1.341  13.770
85955SOL     OW59697  14.825   9.006   7.401
85955SOL    HW159698  14.804   9.051   7.483
85955SOL    HW259699   0.033   8.970   7.415
85956SOL     OW59700  10.826   8.915  13.858
85956SOL    HW159701  10.892   8.855  13.823
85956SOL    HW259702  10.743   8.879  13.828
85957SOL     OW59703   3.179   1.272   7.185
85957SOL    HW159704   3.156   1.335   7.118
85957SOL    HW259705   3.131   1.300   7.263
85958SOL     OW59706   7.803  12.115  13.172
85958SOL    HW159707   7.808  12.178  13.100
85958SOL    HW259708   7.894  12.096  13.195
85959SOL     OW59709   8.946  10.575   9.065
85959SOL    HW159710   8.981  10.575   8.976
85959SOL    HW259711   8.985  10.652   9.106
85960SOL     OW59712  10.556  12.562   8.504
85960SOL    HW159713  10.594  12.561   8.416
85960SOL    HW259714  10.628  12.589   8.560
85961SOL     OW59715   1.304  13.444  13.266
85961SOL    HW159716   1.259  13.361  13.283
85961SOL    HW259717   1.239  13.498  13.221
85962SOL     OW59718   8.339   8.905   4.146
85962SOL    HW159719   8.305   8.842   4.210
85962SOL    HW259720   8.267   8.966   4.132
85963SOL     OW59721   5.013  11.921   7.829
85963SOL    HW159722   4.917  11.915   7.833
85963SOL    HW259723   5.044  11.839   7.867
85964SOL     OW59724   3.526   1.211   0.204
85964SOL    HW159725   3.603   1.154   0.197
85964SOL    HW259726   3.466   1.165   0.262
85965SOL     OW59727   0.127   2.789   0.290
85965SOL    HW159728   0.074   2.772   0.212
85965SOL    HW259729   0.118   2.884   0.305
85966SOL     OW59730   1.467  11.195   7.306
85966SOL    HW159731   1.415  11.148   7.372
85966SOL    HW259732   1.424  11.281   7.299
85967SOL     OW59733   7.583  13.776   3.962
85967SOL    HW159734   7.578  13.763   3.867
85967SOL    HW259735   7.493  13.774   3.992
85968SOL     OW59736   2.907   4.760   8.599
85968SOL    HW159737   3.000   4.753   8.577
85968SOL    HW259738   2.905   4.806   8.682
85969SOL     OW59739   5.888   5.253   0.688
85969SOL    HW159740   5.979   5.267   0.661
85969SOL    HW259741   5.865   5.169   0.649
85970SOL     OW59742   4.847   9.712  14.766
85970SOL    HW159743   4.757   9.728  14.736
85970SOL    HW259744   4.900   9.717  14.687
85971SOL     OW59745   5.684   6.637   5.302
85971SOL    HW159746   5.756   6.625   5.241
85971SOL    HW259747   5.626   6.563   5.285
85972SOL     OW59748   2.781   1.420  10.099
85972SOL    HW159749   2.710   1.376  10.145
85972SOL    HW259750   2.768   1.397  10.007
85973SOL     OW59751  13.615   8.360   8.865
85973SOL    HW159752  13.621   8.454   8.849
85973SOL    HW259753  13.649   8.349   8.954
85974SOL     OW59754   7.556   8.804   2.205
85974SOL    HW159755   7.619   8.875   2.212
85974SOL    HW259756   7.608   8.724   2.216
85975SOL     OW59757   7.348   6.651   9.241
85975SOL    HW159758   7.346   6.622   9.150
85975SOL    HW259759   7.257   6.674   9.261
85976SOL     OW59760   9.394   5.863  10.953
85976SOL    HW159761   9.311   5.843  10.909
85976SOL    HW259762   9.378   5.845  11.045
85977SOL     OW59763   8.995   2.733   6.871
85977SOL    HW159764   9.085   2.703   6.863
85977SOL    HW259765   8.943   2.653   6.875
85978SOL     OW59766   1.729   2.072   0.993
85978SOL    HW159767   1.743   2.139   1.060
85978SOL    HW259768   1.648   2.099   0.948
85979SOL     OW59769   8.324   7.348   9.270
85979SOL    HW159770   8.353   7.439   9.267
85979SOL    HW259771   8.236   7.349   9.233
85980SOL     OW59772   1.087   0.904   7.703
85980SOL    HW159773   1.003   0.865   7.728
85980SOL    HW259774   1.080   0.916   7.608
85981SOL     OW59775   5.338   3.051   8.273
85981SOL    HW159776   5.316   3.089   8.188
85981SOL    HW259777   5.265   2.992   8.292
85982SOL     OW59778   2.063   6.404   5.010
85982SOL    HW159779   2.039   6.322   4.967
85982SOL    HW259780   2.005   6.470   4.971
85983SOL     OW59781   7.302   9.831   0.064
85983SOL    HW159782   7.385   9.784   0.073
85983SOL    HW259783   7.279   9.823  14.851
85984SOL     OW59784   1.919   8.838   5.604
85984SOL    HW159785   1.897   8.888   5.525
85984SOL    HW259786   1.876   8.886   5.675
85985SOL     OW59787   9.640  11.363   8.951
85985SOL    HW159788   9.655  11.376   9.045
85985SOL    HW259789   9.582  11.287   8.946
85986SOL     OW59790   9.058   7.442  13.170
85986SOL    HW159791   9.104   7.479  13.094
85986SOL    HW259792   9.118   7.377  13.205
85987SOL     OW59793   1.460   0.753   6.210
85987SOL    HW159794   1.459   0.657   6.205
85987SOL    HW259795   1.533   0.779   6.154
85988SOL     OW59796   8.379   8.935   9.924
85988SOL    HW159797   8.394   8.897   9.838
85988SOL    HW259798   8.296   8.982   9.915
85989SOL     OW59799   8.709   4.798  10.660
85989SOL    HW159800   8.745   4.864  10.719
85989SOL    HW259801   8.659   4.848  10.596
85990SOL     OW59802   0.348  13.113   8.432
85990SOL    HW159803   0.435  13.083   8.458
85990SOL    HW259804   0.340  13.088   8.340
85991SOL     OW59805  14.632  12.727  12.986
85991SOL    HW159806  14.539  12.745  12.971
85991SOL    HW259807  14.675  12.751  12.903
85992SOL     OW59808  12.482   2.363   7.253
85992SOL    HW159809  12.522   2.401   7.331
85992SOL    HW259810  12.459   2.274   7.279
85993SOL     OW59811  10.117   4.071  13.458
85993SOL    HW159812  10.150   4.002  13.400
85993SOL    HW259813  10.057   4.122  13.404
85994SOL     OW59814  13.502   7.203   1.474
85994SOL    HW159815  13.421   7.253   1.482
85994SOL    HW259816  13.542   7.234   1.392
85995SOL     OW59817   1.153  13.510   4.968
85995SOL    HW159818   1.156  13.460   5.049
85995SOL    HW259819   1.068  13.488   4.930
85996SOL     OW59820  12.528   0.514  10.043
85996SOL    HW159821  12.453   0.457  10.059
85996SOL    HW259822  12.511   0.553   9.957
85997SOL     OW59823   9.196  10.084   7.990
85997SOL    HW159824   9.191   9.998   8.030
85997SOL    HW259825   9.110  10.097   7.949
85998SOL     OW59826  11.759   4.180   8.569
85998SOL    HW159827  11.699   4.115   8.604
85998SOL    HW259828  11.748   4.257   8.626
85999SOL     OW59829   0.468  12.060  13.382
85999SOL    HW159830   0.464  11.997  13.311
85999SOL    HW259831   0.392  12.117  13.369
86000SOL     OW59832   0.200   2.309   5.629
86000SOL    HW159833   0.143   2.271   5.561
86000SOL    HW259834   0.151   2.385   5.661
86001SOL     OW59835   6.768   4.410   7.004
86001SOL    HW159836   6.804   4.354   7.072
86001SOL    HW259837   6.780   4.362   6.923
86002SOL     OW59838   1.566   8.830  11.949
86002SOL    HW159839   1.578   8.783  12.032
86002SOL    HW259840   1.494   8.783  11.906
86003SOL     OW59841   3.388  13.681  13.054
86003SOL    HW159842   3.395  13.606  12.995
86003SOL    HW259843   3.430  13.651  13.135
86004SOL     OW59844   8.362   1.126   0.934
86004SOL    HW159845   8.446   1.085   0.915
86004SOL    HW259846   8.378   1.178   1.012
86005SOL     OW59847   1.665  13.838  14.148
86005SOL    HW159848   1.577  13.875  14.155
86005SOL    HW259849   1.682  13.835  14.054
86006SOL     OW59850  11.422   9.050   0.361
86006SOL    HW159851  11.395   9.001   0.438
86006SOL    HW259852  11.485   9.114   0.393
86007SOL     OW59853   1.384   8.912   6.482
86007SOL    HW159854   1.300   8.952   6.459
86007SOL    HW259855   1.403   8.852   6.409
86008SOL     OW59856   4.116  14.590   2.427
86008SOL    HW159857   4.102  14.530   2.501
86008SOL    HW259858   4.211  14.602   2.423
86009SOL     OW59859  14.869   8.752  12.261
86009SOL    HW159860   0.028   8.748  12.349
86009SOL    HW259861  14.794   8.693  12.265
86010SOL     OW59862   8.736   6.736   2.486
86010SOL    HW159863   8.825   6.711   2.458
86010SOL    HW259864   8.729   6.702   2.575
86011SOL     OW59865   7.804   8.620   7.811
86011SOL    HW159866   7.736   8.603   7.746
86011SOL    HW259867   7.780   8.565   7.885
86012SOL     OW59868   8.579   8.324  14.707
86012SOL    HW159869   8.520   8.311  14.632
86012SOL    HW259870   8.619   8.409  14.690
86013SOL     OW59871   6.382  11.467  13.714
86013SOL    HW159872   6.311  11.496  13.771
86013SOL    HW259873   6.338  11.430  13.638
86014SOL     OW59874   9.207   1.654   6.092
86014SOL    HW159875   9.248   1.593   6.154
86014SOL    HW259876   9.230   1.619   6.006
86015SOL     OW59877   1.413  13.046  10.608
86015SOL    HW159878   1.497  13.004  10.629
86015SOL    HW259879   1.435  13.137  10.591
86016SOL     OW59880  11.339  14.543  13.556
86016SOL    HW159881  11.319  14.552  13.650
86016SOL    HW259882  11.313  14.453  13.535
86017SOL     OW59883   7.645   9.673   8.714
86017SOL    HW159884   7.615   9.666   8.624
86017SOL    HW259885   7.740   9.663   8.709
86018SOL     OW59886  12.239   9.680   6.540
86018SOL    HW159887  12.328   9.696   6.511
86018SOL    HW259888  12.242   9.685   6.635
86019SOL     OW59889   2.020   0.952  11.611
86019SOL    HW159890   2.100   1.004  11.614
86019SOL    HW259891   1.963   0.992  11.677
86020SOL     OW59892   2.907   2.335   6.077
86020SOL    HW159893   2.812   2.322   6.078
86020SOL    HW259894   2.928   2.364   6.166
86021SOL     OW59895  13.301   7.331  10.922
86021SOL    HW159896  13.364   7.260  10.934
86021SOL    HW259897  13.282   7.331  10.828
86022SOL     OW59898   4.728   2.176   3.911
86022SOL    HW159899   4.740   2.243   3.844
86022SOL    HW259900   4.713   2.225   3.992
86023SOL     OW59901   6.530  10.115  11.220
86023SOL    HW159902   6.525  10.125  11.125
86023SOL    HW259903   6.580  10.191  11.249
86024SOL     OW59904   2.308   5.976  11.240
86024SOL    HW159905   2.312   5.931  11.156
86024SOL    HW259906   2.232   6.035  11.231
86025SOL     OW59907   9.190   8.837  12.711
86025SOL    HW159908   9.113   8.781  12.703
86025SOL    HW259909   9.238   8.824  12.629
86026SOL     OW59910   6.436   0.554   3.208
86026SOL    HW159911   6.383   0.632   3.192
86026SOL    HW259912   6.468   0.528   3.122
86027SOL     OW59913   4.526  10.493   7.430
86027SOL    HW159914   4.451  10.440   7.406
86027SOL    HW259915   4.594  10.430   7.453
86028SOL     OW59916   7.453  12.450   1.052
86028SOL    HW159917   7.515  12.468   1.123
86028SOL    HW259918   7.507  12.414   0.982
86029SOL     OW59919   4.030  13.596   9.478
86029SOL    HW159920   4.003  13.535   9.410
86029SOL    HW259921   4.090  13.545   9.533
86030SOL     OW59922   8.817  12.224  10.228
86030SOL    HW159923   8.795  12.131  10.227
86030SOL    HW259924   8.910  12.226  10.253
86031SOL     OW59925  10.606   7.883  11.790
86031SOL    HW159926  10.565   7.960  11.828
86031SOL    HW259927  10.698   7.890  11.815
86032SOL     OW59928   0.869   6.927   3.640
86032SOL    HW159929   0.879   6.903   3.732
86032SOL    HW259930   0.905   6.853   3.591
86033SOL     OW59931   0.935  13.238  11.063
86033SOL    HW159932   1.002  13.183  11.023
86033SOL    HW259933   0.903  13.187  11.138
86034SOL     OW59934  10.948   7.215   5.577
86034SOL    HW159935  10.904   7.299   5.586
86034SOL    HW259936  10.878   7.150   5.586
86035SOL     OW59937  13.526   5.497   6.782
86035SOL    HW159938  13.545   5.408   6.752
86035SOL    HW259939  13.431   5.508   6.768
86036SOL     OW59940  14.101   2.960   9.760
86036SOL    HW159941  14.006   2.955   9.763
86036SOL    HW259942  14.129   2.878   9.720
86037SOL     OW59943  13.091   8.340  10.270
86037SOL    HW159944  13.081   8.260  10.322
86037SOL    HW259945  13.123   8.405  10.333
86038SOL     OW59946   6.657   7.112   5.659
86038SOL    HW159947   6.698   7.026   5.646
86038SOL    HW259948   6.683   7.138   5.747
86039SOL     OW59949  12.536   1.468   1.625
86039SOL    HW159950  12.594   1.399   1.594
86039SOL    HW259951  12.481   1.490   1.550
86040SOL     OW59952   3.582  10.436   0.143
86040SOL    HW159953   3.583  10.341   0.157
86040SOL    HW259954   3.607  10.473   0.227
86041SOL     OW59955   0.326   0.247   6.983
86041SOL    HW159956   0.416   0.217   6.974
86041SOL    HW259957   0.331   0.323   7.042
86042SOL     OW59958  13.065  10.061  14.341
86042SOL    HW159959  13.092   9.972  14.317
86042SOL    HW259960  13.087  10.114  14.264
86043SOL     OW59961   7.595  12.669  10.608
86043SOL    HW159962   7.542  12.735  10.651
86043SOL    HW259963   7.678  12.713  10.587
86044SOL     OW59964   0.457   7.814   2.586
86044SOL    HW159965   0.430   7.880   2.649
86044SOL    HW259966   0.415   7.733   2.616
86045SOL     OW59967   9.886  13.936   9.441
86045SOL    HW159968   9.963  13.888   9.410
86045SOL    HW259969   9.855  13.984   9.363
86046SOL     OW59970   4.300   1.346  11.162
86046SOL    HW159971   4.359   1.336  11.237
86046SOL    HW259972   4.219   1.380  11.199
86047SOL     OW59973   2.049  14.293   5.943
86047SOL    HW159974   2.083  14.348   6.014
86047SOL    HW259975   1.988  14.350   5.896
86048SOL     OW59976   7.001   3.929  13.976
86048SOL    HW159977   6.926   3.956  14.029
86048SOL    HW259978   7.005   3.834  13.987
86049SOL     OW59979  10.188  12.544  11.206
86049SOL    HW159980  10.167  12.485  11.134
86049SOL    HW259981  10.146  12.505  11.283
86050SOL     OW59982   9.055   3.438   8.967
86050SOL    HW159983   9.071   3.356   9.015
86050SOL    HW259984   9.115   3.501   9.009
86051SOL     OW59985  11.715  11.738  14.286
86051SOL    HW159986  11.712  11.675  14.214
86051SOL    HW259987  11.626  11.735  14.323
86052SOL     OW59988  13.436  10.012   5.006
86052SOL    HW159989  13.405  10.096   5.040
86052SOL    HW259990  13.477  10.033   4.922
86053SOL     OW59991   1.485   8.070   5.826
86053SOL    HW159992   1.389   8.070   5.827
86053SOL    HW259993   1.508   8.127   5.900
86054SOL     OW59994  11.411   3.213  12.111
86054SOL    HW159995  11.443   3.301  12.091
86054SOL    HW259996  11.404   3.210  12.206
86055SOL     OW59997   5.482   7.024   1.811
86055SOL    HW159998   5.411   7.073   1.853
86055SOL    HW259999   5.475   6.936   1.848
86056SOL     OW60000  13.919  14.227   6.320
86056SOL    HW160001  13.874  14.170   6.256
86056SOL    HW260002  13.897  14.316   6.292
86057SOL     OW60003   8.604   6.749   3.319
86057SOL    HW160004   8.532   6.796   3.277
86057SOL    HW260005   8.574   6.736   3.409
86058SOL     OW60006   3.943   6.845   0.448
86058SOL    HW160007   3.881   6.893   0.393
86058SOL    HW260008   4.028   6.857   0.405
86059SOL     OW60009   1.078  10.362  12.997
86059SOL    HW160010   1.008  10.395  12.942
86059SOL    HW260011   1.043  10.367  13.086
86060SOL     OW60012  11.858   5.995   5.588
86060SOL    HW160013  11.894   5.939   5.519
86060SOL    HW260014  11.765   5.972   5.592
86061SOL     OW60015   3.087   2.255   0.884
86061SOL    HW160016   3.126   2.217   0.806
86061SOL    HW260017   2.993   2.251   0.868
86062SOL     OW60018  12.554  10.770   5.233
86062SOL    HW160019  12.507  10.844   5.194
86062SOL    HW260020  12.646  10.793   5.225
86063SOL     OW60021  10.396   4.775  11.354
86063SOL    HW160022  10.460   4.743  11.290
86063SOL    HW260023  10.447   4.793  11.432
86064SOL     OW60024   4.415  12.011   8.837
86064SOL    HW160025   4.499  11.966   8.850
86064SOL    HW260026   4.433  12.102   8.861
86065SOL     OW60027   2.791  12.185   8.582
86065SOL    HW160028   2.871  12.162   8.534
86065SOL    HW260029   2.720  12.162   8.521
86066SOL     OW60030  14.347   0.694   2.038
86066SOL    HW160031  14.294   0.754   1.986
86066SOL    HW260032  14.284   0.630   2.072
86067SOL     OW60033   9.568  12.511  12.602
86067SOL    HW160034   9.559  12.558  12.519
86067SOL    HW260035   9.619  12.571  12.658
86068SOL     OW60036   5.837   7.627   2.341
86068SOL    HW160037   5.818   7.702   2.286
86068SOL    HW260038   5.753   7.603   2.380
86069SOL     OW60039   2.442   2.779   4.898
86069SOL    HW160040   2.503   2.739   4.836
86069SOL    HW260041   2.405   2.854   4.850
86070SOL     OW60042   6.892  10.885   4.321
86070SOL    HW160043   6.946  10.909   4.245
86070SOL    HW260044   6.871  10.793   4.307
86071SOL     OW60045   2.936  10.206  11.407
86071SOL    HW160046   2.993  10.281  11.420
86071SOL    HW260047   2.893  10.222  11.322
86072SOL     OW60048  12.110   3.402   9.652
86072SOL    HW160049  12.042   3.343   9.686
86072SOL    HW260050  12.061   3.477   9.617
86073SOL     OW60051   9.646  14.137  12.892
86073SOL    HW160052   9.625  14.206  12.954
86073SOL    HW260053   9.664  14.060  12.947
86074SOL     OW60054   8.443  13.717   7.861
86074SOL    HW160055   8.471  13.789   7.917
86074SOL    HW260056   8.495  13.642   7.890
86075SOL     OW60057   3.840  12.282   4.647
86075SOL    HW160058   3.816  12.375   4.653
86075SOL    HW260059   3.885  12.264   4.729
86076SOL     OW60060   0.695   9.061   9.338
86076SOL    HW160061   0.709   9.087   9.246
86076SOL    HW260062   0.748   8.982   9.348
86077SOL     OW60063  12.260  12.682  14.385
86077SOL    HW160064  12.227  12.719  14.304
86077SOL    HW260065  12.350  12.655  14.364
86078SOL     OW60066   9.683   6.142   4.619
86078SOL    HW160067   9.603   6.194   4.613
86078SOL    HW260068   9.750   6.204   4.647
86079SOL     OW60069   7.439   9.923   8.074
86079SOL    HW160070   7.533   9.935   8.069
86079SOL    HW260071   7.407   9.936   7.985
86080SOL     OW60072  13.130   0.948  13.982
86080SOL    HW160073  13.143   0.856  13.959
86080SOL    HW260074  13.143   0.995  13.900
86081SOL     OW60075  10.346  12.854  12.695
86081SOL    HW160076  10.353  12.944  12.664
86081SOL    HW260077  10.252  12.835  12.691
86082SOL     OW60078   8.475   6.164  14.006
86082SOL    HW160079   8.541   6.136  14.070
86082SOL    HW260080   8.397   6.114  14.029
86083SOL     OW60081   6.021   4.426  10.548
86083SOL    HW160082   5.971   4.500  10.581
86083SOL    HW260083   6.111   4.445  10.575
86084SOL     OW60084  10.096   6.627   2.706
86084SOL    HW160085  10.004   6.602   2.693
86084SOL    HW260086  10.136   6.550   2.746
86085SOL     OW60087  10.926  13.200   5.229
86085SOL    HW160088  10.996  13.167   5.285
86085SOL    HW260089  10.879  13.122   5.199
86086SOL     OW60090   4.103  14.188   6.526
86086SOL    HW160091   4.111  14.278   6.558
86086SOL    HW260092   4.126  14.193   6.433
86087SOL     OW60093  10.471  10.844   4.072
86087SOL    HW160094  10.550  10.893   4.093
86087SOL    HW260095  10.444  10.878   3.987
86088SOL     OW60096   3.935   8.360   0.513
86088SOL    HW160097   4.013   8.388   0.465
86088SOL    HW260098   3.872   8.338   0.444
86089SOL     OW60099  12.790   9.737  13.702
86089SOL    HW160100  12.819   9.792  13.775
86089SOL    HW260101  12.734   9.794  13.649
86090SOL     OW60102   4.484   4.581   8.866
86090SOL    HW160103   4.476   4.490   8.892
86090SOL    HW260104   4.396   4.617   8.876
86091SOL     OW60105   2.738  10.419  14.280
86091SOL    HW160106   2.744  10.329  14.249
86091SOL    HW260107   2.828  10.442  14.305
86092SOL     OW60108   4.259   5.987  11.364
86092SOL    HW160109   4.189   5.922  11.361
86092SOL    HW260110   4.256   6.028  11.277
86093SOL     OW60111   4.547  13.722  10.891
86093SOL    HW160112   4.543  13.741  10.797
86093SOL    HW260113   4.499  13.794  10.931
86094SOL     OW60114   0.558   1.301   4.271
86094SOL    HW160115   0.653   1.302   4.272
86094SOL    HW260116   0.534   1.393   4.256
86095SOL     OW60117   5.552   7.722   4.043
86095SOL    HW160118   5.608   7.794   4.073
86095SOL    HW260119   5.550   7.731   3.948
86096SOL     OW60120   9.568   3.264  12.623
86096SOL    HW160121   9.506   3.267  12.696
86096SOL    HW260122   9.523   3.308  12.552
86097SOL     OW60123   8.041  12.239   5.581
86097SOL    HW160124   8.035  12.151   5.544
86097SOL    HW260125   8.121  12.275   5.543
86098SOL     OW60126   2.694   5.587  12.906
86098SOL    HW160127   2.614   5.542  12.933
86098SOL    HW260128   2.745   5.520  12.861
86099SOL     OW60129   9.771   6.870  10.320
86099SOL    HW160130   9.711   6.802  10.350
86099SOL    HW260131   9.745   6.888  10.230
86100SOL     OW60132   2.095  11.284   2.794
86100SOL    HW160133   2.166  11.260   2.854
86100SOL    HW260134   2.063  11.368   2.828
86101SOL     OW60135  10.899   6.964  11.727
86101SOL    HW160136  10.963   6.903  11.692
86101SOL    HW260137  10.938   6.998  11.807
86102SOL     OW60138   9.127  13.400  10.661
86102SOL    HW160139   9.127  13.438  10.749
86102SOL    HW260140   9.155  13.471  10.604
86103SOL     OW60141   5.724   6.891  10.400
86103SOL    HW160142   5.813   6.861  10.384
86103SOL    HW260143   5.706   6.954  10.330
86104SOL     OW60144   7.917   7.259  11.999
86104SOL    HW160145   7.863   7.337  11.992
86104SOL    HW260146   7.962   7.253  11.914
86105SOL     OW60147   4.226   5.830  10.265
86105SOL    HW160148   4.267   5.834  10.351
86105SOL    HW260149   4.166   5.905  10.264
86106SOL     OW60150   8.872  12.310  13.575
86106SOL    HW160151   8.834  12.385  13.531
86106SOL    HW260152   8.909  12.345  13.656
86107SOL     OW60153   1.675   7.473   4.912
86107SOL    HW160154   1.711   7.411   4.848
86107SOL    HW260155   1.636   7.418   4.980
86108SOL     OW60156   5.486   8.268  11.083
86108SOL    HW160157   5.565   8.319  11.099
86108SOL    HW260158   5.505   8.182  11.118
86109SOL     OW60159  11.791   2.161   7.066
86109SOL    HW160160  11.807   2.252   7.091
86109SOL    HW260161  11.877   2.119   7.074
86110SOL     OW60162  13.856   8.326   5.823
86110SOL    HW160163  13.919   8.364   5.884
86110SOL    HW260164  13.806   8.263   5.876
86111SOL     OW60165   7.043   5.417   1.533
86111SOL    HW160166   7.081   5.423   1.621
86111SOL    HW260167   6.982   5.343   1.538
86112SOL     OW60168   3.086   7.039   5.017
86112SOL    HW160169   3.159   7.020   5.075
86112SOL    HW260170   3.045   6.954   5.001
86113SOL     OW60171   9.602   7.818   5.329
86113SOL    HW160172   9.512   7.828   5.298
86113SOL    HW260173   9.655   7.864   5.264
86114SOL     OW60174   2.031   7.415   3.202
86114SOL    HW160175   2.003   7.454   3.284
86114SOL    HW260176   1.950   7.395   3.155
86115SOL     OW60177   8.086   1.606   2.615
86115SOL    HW160178   8.066   1.520   2.651
86115SOL    HW260179   8.154   1.590   2.550
86116SOL     OW60180   1.054  12.755   8.066
86116SOL    HW160181   1.088  12.833   8.023
86116SOL    HW260182   1.080  12.765   8.158
86117SOL     OW60183   8.432   3.198  13.383
86117SOL    HW160184   8.474   3.113  13.395
86117SOL    HW260185   8.502   3.254  13.348
86118SOL     OW60186   4.171   3.201   8.804
86118SOL    HW160187   4.202   3.209   8.714
86118SOL    HW260188   4.216   3.271   8.851
86119SOL     OW60189  11.869   7.079   3.858
86119SOL    HW160190  11.877   7.152   3.797
86119SOL    HW260191  11.944   7.023   3.837
86120SOL     OW60192   9.920   4.024   3.470
86120SOL    HW160193   9.832   4.062   3.467
86120SOL    HW260194   9.918   3.954   3.406
86121SOL     OW60195   7.073  10.620  12.362
86121SOL    HW160196   7.112  10.574  12.436
86121SOL    HW260197   6.994  10.570  12.341
86122SOL     OW60198   5.757   6.288   8.539
86122SOL    HW160199   5.739   6.244   8.622
86122SOL    HW260200   5.678   6.273   8.487
86123SOL     OW60201  13.783  12.993   3.531
86123SOL    HW160202  13.841  12.934   3.578
86123SOL    HW260203  13.697  12.949   3.534
86124SOL     OW60204  13.776   4.917  10.115
86124SOL    HW160205  13.793   5.002  10.074
86124SOL    HW260206  13.863   4.887  10.143
86125SOL     OW60207  14.632   6.538  11.087
86125SOL    HW160208  14.673   6.585  11.160
86125SOL    HW260209  14.699   6.536  11.019
86126SOL     OW60210   5.175  12.543   8.752
86126SOL    HW160211   5.165  12.638   8.754
86126SOL    HW260212   5.086  12.510   8.742
86127SOL     OW60213  11.843   8.315   7.215
86127SOL    HW160214  11.780   8.302   7.286
86127SOL    HW260215  11.921   8.349   7.258
86128SOL     OW60216   6.019   4.368  13.749
86128SOL    HW160217   6.045   4.276  13.751
86128SOL    HW260218   5.924   4.366  13.764
86129SOL     OW60219  13.413   2.765   3.005
86129SOL    HW160220  13.406   2.767   3.101
86129SOL    HW260221  13.462   2.685   2.986
86130SOL     OW60222  14.590   5.450   5.125
86130SOL    HW160223  14.536   5.379   5.093
86130SOL    HW260224  14.654   5.466   5.055
86131SOL     OW60225   8.866   2.739   6.483
86131SOL    HW160226   8.923   2.804   6.440
86131SOL    HW260227   8.795   2.725   6.420
86132SOL     OW60228   5.076   6.835  10.392
86132SOL    HW160229   5.013   6.861  10.459
86132SOL    HW260230   5.160   6.835  10.437
86133SOL     OW60231   7.618   3.447   0.811
86133SOL    HW160232   7.626   3.512   0.881
86133SOL    HW260233   7.620   3.498   0.730
86134SOL     OW60234   8.687   9.521  14.623
86134SOL    HW160235   8.764   9.558  14.581
86134SOL    HW260236   8.649   9.594  14.672
86135SOL     OW60237   5.969   7.682   8.128
86135SOL    HW160238   6.036   7.669   8.061
86135SOL    HW260239   5.920   7.600   8.129
86136SOL     OW60240  13.254   2.305  14.133
86136SOL    HW160241  13.237   2.365  14.206
86136SOL    HW260242  13.207   2.225  14.157
86137SOL     OW60243  11.765   9.070   5.603
86137SOL    HW160244  11.701   9.140   5.594
86137SOL    HW260245  11.713   8.990   5.604
86138SOL     OW60246   8.082   3.965   2.252
86138SOL    HW160247   8.154   4.026   2.266
86138SOL    HW260248   8.099   3.893   2.313
86139SOL     OW60249   6.537   5.438   1.555
86139SOL    HW160250   6.480   5.371   1.592
86139SOL    HW260251   6.477   5.495   1.506
86140SOL     OW60252  14.163  13.224   6.520
86140SOL    HW160253  14.169  13.234   6.425
86140SOL    HW260254  14.097  13.157   6.533
86141SOL     OW60255   4.932   0.990   9.015
86141SOL    HW160256   5.026   1.005   9.027
86141SOL    HW260257   4.924   0.896   9.000
86142SOL     OW60258  14.067  11.886   7.761
86142SOL    HW160259  14.022  11.804   7.781
86142SOL    HW260260  14.026  11.951   7.818
86143SOL     OW60261   2.335   2.375   4.629
86143SOL    HW160262   2.322   2.445   4.692
86143SOL    HW260263   2.274   2.396   4.558
86144SOL     OW60264  12.585   8.851   2.285
86144SOL    HW160265  12.499   8.834   2.323
86144SOL    HW260266  12.628   8.765   2.285
86145SOL     OW60267  13.917  11.304   3.769
86145SOL    HW160268  13.962  11.377   3.811
86145SOL    HW260269  13.825  11.315   3.791
86146SOL     OW60270   1.697   6.789  12.780
86146SOL    HW160271   1.732   6.786  12.691
86146SOL    HW260272   1.712   6.880  12.809
86147SOL     OW60273   4.717   1.363   8.338
86147SOL    HW160274   4.798   1.334   8.297
86147SOL    HW260275   4.745   1.406   8.419
86148SOL     OW60276  13.724   9.502   0.378
86148SOL    HW160277  13.731   9.532   0.468
86148SOL    HW260278  13.803   9.534   0.335
86149SOL     OW60279   6.799  10.064   7.505
86149SOL    HW160280   6.839   9.991   7.551
86149SOL    HW260281   6.734  10.024   7.447
86150SOL     OW60282   6.637  10.915   7.882
86150SOL    HW160283   6.659  10.826   7.853
86150SOL    HW260284   6.614  10.961   7.802
86151SOL     OW60285  13.104  12.583   0.226
86151SOL    HW160286  13.108  12.651   0.158
86151SOL    HW260287  13.191  12.545   0.227
86152SOL     OW60288   4.314   9.928   6.389
86152SOL    HW160289   4.258   9.876   6.446
86152SOL    HW260290   4.272   9.924   6.303
86153SOL     OW60291   8.374   1.816  10.559
86153SOL    HW160292   8.301   1.836  10.501
86153SOL    HW260293   8.391   1.722  10.544
86154SOL     OW60294   4.534  10.418   9.527
86154SOL    HW160295   4.614  10.368   9.537
86154SOL    HW260296   4.538  10.485   9.596
86155SOL     OW60297   2.161   6.601   1.451
86155SOL    HW160298   2.253   6.588   1.429
86155SOL    HW260299   2.132   6.672   1.393
86156SOL     OW60300   2.209  12.991   4.356
86156SOL    HW160301   2.188  12.926   4.424
86156SOL    HW260302   2.262  12.943   4.293
86157SOL     OW60303   7.348   5.925   8.187
86157SOL    HW160304   7.420   5.987   8.202
86157SOL    HW260305   7.387   5.855   8.135
86158SOL     OW60306  12.105   9.978   0.052
86158SOL    HW160307  12.187   9.963   0.100
86158SOL    HW260308  12.083  10.069   0.071
86159SOL     OW60309   0.193  11.378   2.416
86159SOL    HW160310   0.147  11.398   2.497
86159SOL    HW260311   0.285  11.396   2.435
86160SOL     OW60312  11.564   7.542   8.250
86160SOL    HW160313  11.537   7.577   8.165
86160SOL    HW260314  11.511   7.589   8.314
86161SOL     OW60315   1.020   1.537   0.654
86161SOL    HW160316   0.927   1.524   0.635
86161SOL    HW260317   1.033   1.631   0.641
86162SOL     OW60318   1.018   3.936   5.028
86162SOL    HW160319   1.066   4.018   5.021
86162SOL    HW260320   1.086   3.868   5.018
86163SOL     OW60321   1.280  13.020   9.772
86163SOL    HW160322   1.301  13.033   9.680
86163SOL    HW260323   1.223  12.943   9.774
86164SOL     OW60324   2.097   7.533  11.400
86164SOL    HW160325   2.125   7.624  11.414
86164SOL    HW260326   2.125   7.487  11.479
86165SOL     OW60327  12.180  14.548  11.924
86165SOL    HW160328  12.101  14.599  11.910
86165SOL    HW260329  12.150  14.468  11.968
86166SOL     OW60330  12.800  10.726   0.260
86166SOL    HW160331  12.726  10.665   0.252
86166SOL    HW260332  12.854  10.688   0.329
86167SOL     OW60333   4.676   6.874   6.881
86167SOL    HW160334   4.686   6.874   6.977
86167SOL    HW260335   4.582   6.872   6.867
86168SOL     OW60336   4.828  12.525  11.273
86168SOL    HW160337   4.734  12.542  11.268
86168SOL    HW260338   4.867  12.613  11.277
86169SOL     OW60339   8.881  13.198  13.120
86169SOL    HW160340   8.840  13.283  13.138
86169SOL    HW260341   8.827  13.135  13.167
86170SOL     OW60342   2.757   2.316   3.733
86170SOL    HW160343   2.820   2.265   3.683
86170SOL    HW260344   2.689   2.338   3.670
86171SOL     OW60345  13.139  13.914  11.174
86171SOL    HW160346  13.053  13.877  11.197
86171SOL    HW260347  13.182  13.927  11.258
86172SOL     OW60348   1.008   9.771   2.881
86172SOL    HW160349   0.964   9.687   2.867
86172SOL    HW260350   1.070   9.778   2.809
86173SOL     OW60351   0.123   1.303   0.717
86173SOL    HW160352   0.038   1.298   0.673
86173SOL    HW260353   0.186   1.278   0.650
86174SOL     OW60354   9.955   3.812  13.257
86174SOL    HW160355   9.878   3.777  13.212
86174SOL    HW260356   9.954   3.769  13.342
86175SOL     OW60357   1.521  14.093   7.698
86175SOL    HW160358   1.486  14.120   7.613
86175SOL    HW260359   1.545  14.175   7.740
86176SOL     OW60360   5.657   3.093  11.840
86176SOL    HW160361   5.628   3.174  11.798
86176SOL    HW260362   5.575   3.049  11.865
86177SOL     OW60363   4.891   6.787  14.285
86177SOL    HW160364   4.898   6.880  14.263
86177SOL    HW260365   4.866   6.786  14.377
86178SOL     OW60366   1.217   4.011  10.789
86178SOL    HW160367   1.204   4.028  10.696
86178SOL    HW260368   1.309   4.033  10.805
86179SOL     OW60369  12.138   7.836  13.988
86179SOL    HW160370  12.108   7.916  14.031
86179SOL    HW260371  12.230   7.829  14.012
86180SOL     OW60372   2.522   3.208   8.735
86180SOL    HW160373   2.504   3.232   8.826
86180SOL    HW260374   2.528   3.112   8.737
86181SOL     OW60375   1.398   4.298  12.896
86181SOL    HW160376   1.384   4.392  12.911
86181SOL    HW260377   1.321   4.271  12.846
86182SOL     OW60378  12.043   1.321   0.559
86182SOL    HW160379  11.956   1.283   0.565
86182SOL    HW260380  12.101   1.246   0.541
86183SOL     OW60381  13.810   1.338  10.293
86183SOL    HW160382  13.738   1.394  10.267
86183SOL    HW260383  13.877   1.352  10.226
86184SOL     OW60384   0.806   8.262  13.767
86184SOL    HW160385   0.786   8.223  13.682
86184SOL    HW260386   0.876   8.325  13.749
86185SOL     OW60387   1.555   7.218   8.050
86185SOL    HW160388   1.629   7.254   8.099
86185SOL    HW260389   1.586   7.215   7.959
86186SOL     OW60390   8.543  10.771   7.166
86186SOL    HW160391   8.492  10.851   7.156
86186SOL    HW260392   8.484  10.701   7.139
86187SOL     OW60393   0.462  12.127   1.405
86187SOL    HW160394   0.453  12.179   1.485
86187SOL    HW260395   0.500  12.045   1.435
86188SOL     OW60396  13.014   4.826   4.799
86188SOL    HW160397  12.946   4.816   4.732
86188SOL    HW260398  13.059   4.741   4.799
86189SOL     OW60399  10.010  10.593   4.718
86189SOL    HW160400   9.978  10.504   4.700
86189SOL    HW260401  10.085  10.604   4.661
86190SOL     OW60402   8.388  10.443   2.192
86190SOL    HW160403   8.333  10.510   2.232
86190SOL    HW260404   8.359  10.439   2.101
86191SOL     OW60405  12.827   2.196   6.786
86191SOL    HW160406  12.741   2.154   6.788
86191SOL    HW260407  12.816   2.274   6.841
86192SOL     OW60408  12.588   2.090   6.739
86192SOL    HW160409  12.541   2.143   6.675
86192SOL    HW260410  12.528   2.019   6.761
86193SOL     OW60411   2.858   5.247  14.165
86193SOL    HW160412   2.767   5.218  14.173
86193SOL    HW260413   2.909   5.180  14.208
86194SOL     OW60414   2.715   5.180   8.568
86194SOL    HW160415   2.801   5.174   8.528
86194SOL    HW260416   2.665   5.237   8.509
86195SOL     OW60417   8.167   3.825   3.770
86195SOL    HW160418   8.242   3.818   3.712
86195SOL    HW260419   8.203   3.813   3.858
86196SOL     OW60420   9.468  12.166   2.046
86196SOL    HW160421   9.416  12.233   2.001
86196SOL    HW260422   9.508  12.115   1.975
86197SOL     OW60423   5.146   1.233   9.195
86197SOL    HW160424   5.159   1.151   9.242
86197SOL    HW260425   5.219   1.238   9.134
86198SOL     OW60426  10.763   8.886   7.094
86198SOL    HW160427  10.834   8.939   7.130
86198SOL    HW260428  10.750   8.920   7.005
86199SOL     OW60429  12.543   8.422  10.761
86199SOL    HW160430  12.475   8.359  10.783
86199SOL    HW260431  12.557   8.471  10.842
86200SOL     OW60432  10.348   1.795  13.280
86200SOL    HW160433  10.280   1.829  13.338
86200SOL    HW260434  10.422   1.855  13.291
86201SOL     OW60435   9.025   4.484   8.400
86201SOL    HW160436   9.114   4.468   8.371
86201SOL    HW260437   9.032   4.497   8.495
86202SOL     OW60438   3.325  11.168  12.409
86202SOL    HW160439   3.277  11.085  12.413
86202SOL    HW260440   3.393  11.153  12.344
86203SOL     OW60441   9.972   9.481   1.994
86203SOL    HW160442  10.035   9.537   1.949
86203SOL    HW260443   9.907   9.458   1.926
86204SOL     OW60444   6.600   2.658  11.523
86204SOL    HW160445   6.695   2.659  11.520
86204SOL    HW260446   6.578   2.633  11.612
86205SOL     OW60447  12.627   8.082  12.594
86205SOL    HW160448  12.570   8.151  12.562
86205SOL    HW260449  12.568   8.017  12.632
86206SOL     OW60450   6.608   4.457  14.278
86206SOL    HW160451   6.639   4.427  14.364
86206SOL    HW260452   6.656   4.538  14.263
86207SOL     OW60453   9.983   4.647  11.838
86207SOL    HW160454   9.997   4.602  11.755
86207SOL    HW260455  10.017   4.735  11.824
86208SOL     OW60456  14.348   1.714  13.089
86208SOL    HW160457  14.312   1.641  13.038
86208SOL    HW260458  14.418   1.675  13.141
86209SOL     OW60459   0.589   2.102   9.862
86209SOL    HW160460   0.636   2.183   9.882
86209SOL    HW260461   0.606   2.046   9.938
86210SOL     OW60462   8.198  10.454  10.036
86210SOL    HW160463   8.181  10.415  10.121
86210SOL    HW260464   8.140  10.530  10.032
86211SOL     OW60465   3.700  12.465   2.956
86211SOL    HW160466   3.734  12.541   2.908
86211SOL    HW260467   3.778  12.421   2.990
86212SOL     OW60468   8.034   2.682   3.102
86212SOL    HW160469   7.999   2.734   3.029
86212SOL    HW260470   8.065   2.601   3.061
86213SOL     OW60471   5.854  14.710   1.369
86213SOL    HW160472   5.879  14.617   1.362
86213SOL    HW260473   5.768  14.708   1.411
86214SOL     OW60474  12.246  14.781  13.207
86214SOL    HW160475  12.173  14.842  13.215
86214SOL    HW260476  12.235  14.743  13.120
86215SOL     OW60477   4.301  12.285  14.678
86215SOL    HW160478   4.368  12.342  14.716
86215SOL    HW260479   4.314  12.201  14.721
86216SOL     OW60480  11.247  11.978   9.463
86216SOL    HW160481  11.196  12.007   9.538
86216SOL    HW260482  11.321  12.038   9.458
86217SOL     OW60483   5.682   2.532   2.576
86217SOL    HW160484   5.617   2.486   2.523
86217SOL    HW260485   5.767   2.503   2.542
86218SOL     OW60486   1.097   6.647   4.714
86218SOL    HW160487   1.183   6.658   4.673
86218SOL    HW260488   1.087   6.724   4.770
86219SOL     OW60489   2.765   3.765   4.778
86219SOL    HW160490   2.745   3.688   4.724
86219SOL    HW260491   2.858   3.754   4.801
86220SOL     OW60492   9.233   8.789   1.888
86220SOL    HW160493   9.192   8.757   1.808
86220SOL    HW260494   9.302   8.726   1.906
86221SOL     OW60495   5.797   9.769   9.936
86221SOL    HW160496   5.777   9.757  10.029
86221SOL    HW260497   5.890   9.793   9.934
86222SOL     OW60498  11.068   9.168   9.784
86222SOL    HW160499  11.054   9.073   9.778
86222SOL    HW260500  11.153   9.177   9.828
86223SOL     OW60501   4.919   3.272  13.066
86223SOL    HW160502   4.924   3.358  13.108
86223SOL    HW260503   4.867   3.287  12.987
86224SOL     OW60504   3.392  10.896   2.330
86224SOL    HW160505   3.304  10.858   2.329
86224SOL    HW260506   3.397  10.948   2.251
86225SOL     OW60507   5.027  14.377   4.390
86225SOL    HW160508   5.100  14.425   4.428
86225SOL    HW260509   4.958  14.382   4.456
86226SOL     OW60510  11.365   1.056   9.279
86226SOL    HW160511  11.303   0.982   9.276
86226SOL    HW260512  11.451   1.015   9.268
86227SOL     OW60513  10.273   2.711   4.646
86227SOL    HW160514  10.261   2.624   4.608
86227SOL    HW260515  10.288   2.695   4.739
86228SOL     OW60516  14.878  10.134   1.108
86228SOL    HW160517  14.821  10.063   1.079
86228SOL    HW260518  14.827  10.214   1.094
86229SOL     OW60519   2.543   0.343  14.015
86229SOL    HW160520   2.631   0.313  14.037
86229SOL    HW260521   2.501   0.362  14.099
86230SOL     OW60522   1.501   5.032  11.882
86230SOL    HW160523   1.557   5.031  11.805
86230SOL    HW260524   1.557   5.002  11.953
86231SOL     OW60525   1.368  11.842   8.486
86231SOL    HW160526   1.295  11.879   8.536
86231SOL    HW260527   1.427  11.915   8.471
86232SOL     OW60528   2.326  12.022  12.545
86232SOL    HW160529   2.291  11.933  12.537
86232SOL    HW260530   2.377  12.035  12.465
86233SOL     OW60531   5.214   6.918   6.579
86233SOL    HW160532   5.222   6.888   6.669
86233SOL    HW260533   5.171   6.847   6.533
86234SOL     OW60534   7.132   0.008   3.187
86234SOL    HW160535   7.111   0.039   3.275
86234SOL    HW260536   7.211   0.056   3.163
86235SOL     OW60537   1.801  12.494   8.621
86235SOL    HW160538   1.784  12.472   8.530
86235SOL    HW260539   1.834  12.412   8.660
86236SOL     OW60540   4.691   1.853   4.770
86236SOL    HW160541   4.712   1.880   4.860
86236SOL    HW260542   4.647   1.929   4.732
86237SOL     OW60543   3.554  10.012   8.403
86237SOL    HW160544   3.532   9.953   8.331
86237SOL    HW260545   3.650  10.011   8.407
86238SOL     OW60546  11.618  13.455   8.988
86238SOL    HW160547  11.572  13.538   8.990
86238SOL    HW260548  11.707  13.477   8.959
86239SOL     OW60549  11.413   4.912   9.419
86239SOL    HW160550  11.446   4.944   9.335
86239SOL    HW260551  11.380   4.990   9.463
86240SOL     OW60552   7.395  11.789   8.010
86240SOL    HW160553   7.426  11.865   8.059
86240SOL    HW260554   7.365  11.727   8.077
86241SOL     OW60555  12.685  14.628  11.469
86241SOL    HW160556  12.756  14.565  11.462
86241SOL    HW260557  12.684  14.673  11.385
86242SOL     OW60558   2.714   0.631   7.955
86242SOL    HW160559   2.659   0.569   7.907
86242SOL    HW260560   2.718   0.709   7.899
86243SOL     OW60561   5.428   2.178  14.052
86243SOL    HW160562   5.490   2.246  14.025
86243SOL    HW260563   5.380   2.218  14.125
86244SOL     OW60564   4.624  10.475   5.894
86244SOL    HW160565   4.541  10.436   5.920
86244SOL    HW260566   4.684  10.452   5.965
86245SOL     OW60567   7.781   3.317   7.732
86245SOL    HW160568   7.752   3.338   7.821
86245SOL    HW260569   7.797   3.222   7.734
86246SOL     OW60570  12.972   3.746   3.851
86246SOL    HW160571  12.983   3.702   3.767
86246SOL    HW260572  12.896   3.803   3.839
86247SOL     OW60573  14.266  10.129   9.878
86247SOL    HW160574  14.278  10.192   9.808
86247SOL    HW260575  14.210  10.173   9.942
86248SOL     OW60576  12.604   1.373  10.952
86248SOL    HW160577  12.662   1.397  11.024
86248SOL    HW260578  12.624   1.281  10.934
86249SOL     OW60579  14.822  13.223   8.033
86249SOL    HW160580  14.740  13.250   8.074
86249SOL    HW260581   0.010  13.243   8.099
86250SOL     OW60582   1.008   0.693   8.397
86250SOL    HW160583   1.045   0.697   8.485
86250SOL    HW260584   1.063   0.751   8.345
86251SOL     OW60585   0.521   9.587  11.049
86251SOL    HW160586   0.446   9.590  10.990
86251SOL    HW260587   0.587   9.641  11.007
86252SOL     OW60588   5.877  14.407   4.343
86252SOL    HW160589   5.794  14.363   4.328
86252SOL    HW260590   5.937  14.368   4.279
86253SOL     OW60591   1.500   7.059   6.815
86253SOL    HW160592   1.471   7.147   6.839
86253SOL    HW260593   1.566   7.073   6.748
86254SOL     OW60594  10.164   7.787   1.137
86254SOL    HW160595  10.131   7.795   1.227
86254SOL    HW260596  10.168   7.693   1.122
86255SOL     OW60597   2.189   4.704   2.792
86255SOL    HW160598   2.095   4.716   2.777
86255SOL    HW260599   2.229   4.723   2.706
86256SOL     OW60600  10.226   0.554   8.247
86256SOL    HW160601  10.180   0.614   8.305
86256SOL    HW260602  10.197   0.467   8.273
86257SOL     OW60603   8.121   0.060   1.325
86257SOL    HW160604   8.117  14.848   1.295
86257SOL    HW260605   8.032   0.078   1.357
86258SOL     OW60606   3.194   3.276   0.203
86258SOL    HW160607   3.265   3.315   0.254
86258SOL    HW260608   3.138   3.233   0.268
86259SOL     OW60609  11.205   0.430   8.937
86259SOL    HW160610  11.295   0.400   8.925
86259SOL    HW260611  11.212   0.526   8.942
86260SOL     OW60612   0.246  14.428   6.090
86260SOL    HW160613   0.273  14.483   6.016
86260SOL    HW260614   0.258  14.339   6.059
86261SOL     OW60615   2.660   8.048   5.641
86261SOL    HW160616   2.648   8.098   5.722
86261SOL    HW260617   2.730   7.986   5.662
86262SOL     OW60618  11.695   5.357   9.437
86262SOL    HW160619  11.605   5.375   9.409
86262SOL    HW260620  11.688   5.341   9.531
86263SOL     OW60621   7.391   9.564   2.246
86263SOL    HW160622   7.465   9.515   2.281
86263SOL    HW260623   7.344   9.500   2.192
86264SOL     OW60624   0.299  12.347   4.233
86264SOL    HW160625   0.237  12.278   4.208
86264SOL    HW260626   0.373  12.335   4.173
86265SOL     OW60627   7.764   8.482  10.493
86265SOL    HW160628   7.825   8.432  10.548
86265SOL    HW260629   7.758   8.567  10.536
86266SOL     OW60630   7.333   1.035   7.533
86266SOL    HW160631   7.333   0.954   7.482
86266SOL    HW260632   7.241   1.060   7.538
86267SOL     OW60633   2.666   9.883  13.328
86267SOL    HW160634   2.704   9.875  13.415
86267SOL    HW260635   2.633   9.973  13.324
86268SOL     OW60636   3.824   5.365  10.761
86268SOL    HW160637   3.858   5.384  10.848
86268SOL    HW260638   3.844   5.443  10.709
86269SOL     OW60639  10.809  13.582   6.031
86269SOL    HW160640  10.797  13.597   5.937
86269SOL    HW260641  10.747  13.513   6.052
86270SOL     OW60642  10.030   9.701   2.838
86270SOL    HW160643  10.060   9.612   2.817
86270SOL    HW260644   9.951   9.713   2.785
86271SOL     OW60645   6.091   8.144   3.754
86271SOL    HW160646   6.137   8.203   3.813
86271SOL    HW260647   6.137   8.061   3.763
86272SOL     OW60648   6.667   5.102  12.903
86272SOL    HW160649   6.619   5.031  12.946
86272SOL    HW260650   6.601   5.168  12.883
86273SOL     OW60651   3.424   2.648  13.496
86273SOL    HW160652   3.355   2.633  13.561
86273SOL    HW260653   3.450   2.739  13.510
86274SOL     OW60654   9.278   8.916  10.395
86274SOL    HW160655   9.313   8.827  10.398
86274SOL    HW260656   9.184   8.904  10.378
86275SOL     OW60657   7.995  13.191  10.395
86275SOL    HW160658   8.018  13.103  10.365
86275SOL    HW260659   7.978  13.180  10.488
86276SOL     OW60660  11.578   0.744   8.728
86276SOL    HW160661  11.535   0.660   8.741
86276SOL    HW260662  11.550   0.772   8.640
86277SOL     OW60663   8.612   0.300  12.138
86277SOL    HW160664   8.560   0.379  12.153
86277SOL    HW260665   8.614   0.256  12.223
86278SOL     OW60666   5.778   6.860   2.971
86278SOL    HW160667   5.710   6.805   2.931
86278SOL    HW260668   5.822   6.902   2.898
86279SOL     OW60669  13.815   2.714  12.382
86279SOL    HW160670  13.897   2.698  12.334
86279SOL    HW260671  13.746   2.696  12.318
86280SOL     OW60672   0.010   4.753  13.322
86280SOL    HW160673  14.825   4.684  13.337
86280SOL    HW260674  14.865   4.823  13.383
86281SOL     OW60675  10.494  10.388  10.976
86281SOL    HW160676  10.578  10.362  11.014
86281SOL    HW260677  10.517  10.427  10.892
86282SOL     OW60678   1.567   7.038   6.487
86282SOL    HW160679   1.578   6.949   6.454
86282SOL    HW260680   1.651   7.081   6.471
86283SOL     OW60681  12.253   0.865  10.294
86283SOL    HW160682  12.260   0.844  10.201
86283SOL    HW260683  12.168   0.830  10.320
86284SOL     OW60684  14.798  10.026   4.447
86284SOL    HW160685   0.004  10.014   4.490
86284SOL    HW260686  14.812  10.100   4.387
86285SOL     OW60687  14.745   4.120   1.972
86285SOL    HW160688  14.694   4.145   2.049
86285SOL    HW260689  14.836   4.133   1.998
86286SOL     OW60690   4.593   9.267   6.749
86286SOL    HW160691   4.679   9.306   6.737
86286SOL    HW260692   4.533   9.324   6.700
86287SOL     OW60693   8.424  14.527  11.211
86287SOL    HW160694   8.395  14.562  11.127
86287SOL    HW260695   8.400  14.595  11.274
86288SOL     OW60696  14.244   4.425   5.452
86288SOL    HW160697  14.164   4.445   5.403
86288SOL    HW260698  14.310   4.484   5.416
86289SOL     OW60699   6.703   9.533   4.662
86289SOL    HW160700   6.796   9.530   4.684
86289SOL    HW260701   6.658   9.520   4.745
86290SOL     OW60702   9.713   1.182  12.359
86290SOL    HW160703   9.803   1.213  12.349
86290SOL    HW260704   9.662   1.236  12.299
86291SOL     OW60705   6.866  12.743   0.855
86291SOL    HW160706   6.853  12.649   0.871
86291SOL    HW260707   6.953  12.749   0.816
86292SOL     OW60708   3.600   1.324  13.959
86292SOL    HW160709   3.645   1.408  13.971
86292SOL    HW260710   3.590   1.289  14.047
86293SOL     OW60711  13.666   0.218  14.007
86293SOL    HW160712  13.701   0.135  14.037
86293SOL    HW260713  13.650   0.205  13.913
86294SOL     OW60714  11.625   1.448  13.826
86294SOL    HW160715  11.576   1.443  13.908
86294SOL    HW260716  11.560   1.431  13.758
86295SOL     OW60717   0.458   3.102   6.204
86295SOL    HW160718   0.545   3.064   6.193
86295SOL    HW260719   0.424   3.060   6.284
86296SOL     OW60720   4.209   5.371   9.072
86296SOL    HW160721   4.240   5.401   8.986
86296SOL    HW260722   4.114   5.363   9.062
86297SOL     OW60723  12.363   0.312  14.282
86297SOL    HW160724  12.331   0.282  14.367
86297SOL    HW260725  12.450   0.347  14.299
86298SOL     OW60726  14.556  11.704   2.547
86298SOL    HW160727  14.493  11.753   2.599
86298SOL    HW260728  14.520  11.615   2.543
86299SOL     OW60729   8.654  13.439  10.881
86299SOL    HW160730   8.719  13.474  10.942
86299SOL    HW260731   8.706  13.385  10.820
86300SOL     OW60732  14.802   7.348   8.944
86300SOL    HW160733  14.757   7.390   8.870
86300SOL    HW260734  14.774   7.257   8.941
86301SOL     OW60735  13.249   8.429  11.756
86301SOL    HW160736  13.274   8.518  11.782
86301SOL    HW260737  13.331   8.389  11.726
86302SOL     OW60738   8.119   4.047   8.273
86302SOL    HW160739   8.152   4.129   8.237
86302SOL    HW260740   8.192   3.986   8.266
86303SOL     OW60741   2.062   0.232  11.460
86303SOL    HW160742   2.046   0.148  11.418
86303SOL    HW260743   2.058   0.296  11.389
86304SOL     OW60744  11.993   5.834  14.654
86304SOL    HW160745  11.988   5.748  14.697
86304SOL    HW260746  11.902   5.855  14.632
86305SOL     OW60747   1.926   4.058   7.214
86305SOL    HW160748   2.012   4.028   7.185
86305SOL    HW260749   1.937   4.073   7.308
86306SOL     OW60750   4.418  13.115   9.201
86306SOL    HW160751   4.424  13.029   9.159
86306SOL    HW260752   4.379  13.172   9.134
86307SOL     OW60753  10.740   2.736   4.373
86307SOL    HW160754  10.746   2.644   4.400
86307SOL    HW260755  10.659   2.740   4.322
86308SOL     OW60756   9.635   1.253   4.153
86308SOL    HW160757   9.591   1.169   4.156
86308SOL    HW260758   9.698   1.245   4.081
86309SOL     OW60759   0.169   8.482   2.603
86309SOL    HW160760   0.154   8.476   2.509
86309SOL    HW260761   0.258   8.447   2.615
86310SOL     OW60762  12.118   9.891   0.730
86310SOL    HW160763  12.166   9.961   0.687
86310SOL    HW260764  12.151   9.890   0.820
86311SOL     OW60765   0.815   9.015  13.136
86311SOL    HW160766   0.746   9.034  13.200
86311SOL    HW260767   0.773   8.956  13.073
86312SOL     OW60768   9.609  13.658   8.743
86312SOL    HW160769   9.598  13.713   8.820
86312SOL    HW260770   9.596  13.716   8.669
86313SOL     OW60771  13.207  11.868   3.102
86313SOL    HW160772  13.157  11.876   3.021
86313SOL    HW260773  13.215  11.957   3.135
86314SOL     OW60774   9.571   4.682   6.039
86314SOL    HW160775   9.610   4.636   6.113
86314SOL    HW260776   9.566   4.615   5.970
86315SOL     OW60777  14.477  12.263   9.972
86315SOL    HW160778  14.525  12.337  10.009
86315SOL    HW260779  14.516  12.186  10.013
86316SOL     OW60780   6.591   0.793   1.008
86316SOL    HW160781   6.521   0.855   0.986
86316SOL    HW260782   6.643   0.787   0.928
86317SOL     OW60783  11.757   0.932   3.536
86317SOL    HW160784  11.730   0.894   3.452
86317SOL    HW260785  11.675   0.954   3.580
86318SOL     OW60786   8.965   9.741  11.494
86318SOL    HW160787   8.951   9.792  11.574
86318SOL    HW260788   8.950   9.803  11.423
86319SOL     OW60789  11.053   3.050   8.000
86319SOL    HW160790  11.038   2.995   7.924
86319SOL    HW260791  11.082   3.134   7.964
86320SOL     OW60792   6.506  14.618   3.063
86320SOL    HW160793   6.461  14.571   2.992
86320SOL    HW260794   6.596  14.584   3.059
86321SOL     OW60795   4.344  12.935   6.984
86321SOL    HW160796   4.307  13.023   6.988
86321SOL    HW260797   4.291  12.883   7.044
86322SOL     OW60798  13.616   6.931   3.931
86322SOL    HW160799  13.520   6.923   3.931
86322SOL    HW260800  13.632   7.016   3.972
86323SOL     OW60801   1.566   2.698  12.076
86323SOL    HW160802   1.612   2.634  12.131
86323SOL    HW260803   1.634   2.757  12.044
86324SOL     OW60804  12.976   0.343  10.220
86324SOL    HW160805  13.042   0.286  10.181
86324SOL    HW260806  12.895   0.323  10.172
86325SOL     OW60807  11.818   3.522   7.456
86325SOL    HW160808  11.886   3.589   7.453
86325SOL    HW260809  11.744   3.560   7.410
86326SOL     OW60810  13.181   8.800   2.562
86326SOL    HW160811  13.220   8.730   2.510
86326SOL    HW260812  13.256   8.849   2.596
86327SOL     OW60813   7.719  13.006  10.450
86327SOL    HW160814   7.778  12.983  10.521
86327SOL    HW260815   7.767  12.984  10.370
86328SOL     OW60816  12.832   5.330   9.360
86328SOL    HW160817  12.889   5.372   9.296
86328SOL    HW260818  12.802   5.249   9.317
86329SOL     OW60819  12.990   7.277  10.777
86329SOL    HW160820  13.034   7.345  10.726
86329SOL    HW260821  12.987   7.311  10.866
86330SOL     OW60822  11.318   6.073  13.111
86330SOL    HW160823  11.327   5.985  13.074
86330SOL    HW260824  11.294   6.128  13.037
86331SOL     OW60825   4.888  12.212   1.520
86331SOL    HW160826   4.829  12.287   1.526
86331SOL    HW260827   4.968  12.240   1.565
86332SOL     OW60828   4.658  14.015   7.130
86332SOL    HW160829   4.563  14.002   7.130
86332SOL    HW260830   4.690  13.959   7.201
86333SOL     OW60831   4.167   5.443   6.473
86333SOL    HW160832   4.105   5.474   6.406
86333SOL    HW260833   4.136   5.482   6.555
86334SOL     OW60834   3.701   9.236   3.233
86334SOL    HW160835   3.756   9.204   3.162
86334SOL    HW260836   3.651   9.160   3.262
86335SOL     OW60837   2.140   3.745   3.650
86335SOL    HW160838   2.084   3.819   3.627
86335SOL    HW260839   2.206   3.741   3.580
86336SOL     OW60840   3.128  11.860   5.412
86336SOL    HW160841   3.134  11.824   5.501
86336SOL    HW260842   3.217  11.857   5.378
86337SOL     OW60843   0.613  11.619   4.519
86337SOL    HW160844   0.624  11.619   4.424
86337SOL    HW260845   0.667  11.546   4.549
86338SOL     OW60846   9.540   5.489   1.770
86338SOL    HW160847   9.578   5.497   1.858
86338SOL    HW260848   9.583   5.558   1.719
86339SOL     OW60849   4.961  11.681   5.630
86339SOL    HW160850   4.892  11.615   5.625
86339SOL    HW260851   4.915  11.761   5.658
86340SOL     OW60852   3.603  11.778  14.433
86340SOL    HW160853   3.677  11.727  14.465
86340SOL    HW260854   3.526  11.737  14.473
86341SOL     OW60855  14.310  13.597  12.731
86341SOL    HW160856  14.229  13.647  12.729
86341SOL    HW260857  14.348  13.615  12.817
86342SOL     OW60858   4.102   9.692  14.780
86342SOL    HW160859   4.153   9.752  14.836
86342SOL    HW260860   4.069   9.748  14.710
86343SOL     OW60861  11.112   3.915  14.820
86343SOL    HW160862  11.197   3.959  14.825
86343SOL    HW260863  11.068   3.939   0.022
86344SOL     OW60864   0.027   6.464   5.000
86344SOL    HW160865   0.073   6.381   5.013
86344SOL    HW260866  14.839   6.445   4.935
86345SOL     OW60867  13.866   7.840   3.568
86345SOL    HW160868  13.936   7.777   3.582
86345SOL    HW260869  13.831   7.818   3.481
86346SOL     OW60870   7.690  11.721   6.137
86346SOL    HW160871   7.608  11.673   6.150
86346SOL    HW260872   7.685  11.794   6.199
86347SOL     OW60873   4.518   0.702  10.259
86347SOL    HW160874   4.533   0.774  10.321
86347SOL    HW260875   4.576   0.632  10.289
86348SOL     OW60876  14.857   5.973   0.915
86348SOL    HW160877  14.765   5.989   0.893
86348SOL    HW260878   0.025   6.046   0.876
86349SOL     OW60879   6.430   7.931  12.882
86349SOL    HW160880   6.474   7.892  12.957
86349SOL    HW260881   6.425   7.860  12.817
86350SOL     OW60882   6.731   3.274   1.732
86350SOL    HW160883   6.722   3.179   1.743
86350SOL    HW260884   6.773   3.304   1.812
86351SOL     OW60885   6.213   2.103   2.490
86351SOL    HW160886   6.275   2.047   2.536
86351SOL    HW260887   6.253   2.190   2.491
86352SOL     OW60888  11.643   2.222   7.657
86352SOL    HW160889  11.559   2.183   7.680
86352SOL    HW260890  11.681   2.249   7.741
86353SOL     OW60891  10.657   4.237   5.088
86353SOL    HW160892  10.611   4.217   5.006
86353SOL    HW260893  10.738   4.280   5.060
86354SOL     OW60894  10.316   0.133   5.671
86354SOL    HW160895  10.280   0.046   5.653
86354SOL    HW260896  10.240   0.188   5.689
86355SOL     OW60897   8.529   5.457  12.294
86355SOL    HW160898   8.532   5.366  12.264
86355SOL    HW260899   8.451   5.493  12.251
86356SOL     OW60900   9.901   8.902   5.901
86356SOL    HW160901   9.885   8.936   5.990
86356SOL    HW260902   9.976   8.843   5.912
86357SOL     OW60903   8.075   0.139   4.428
86357SOL    HW160904   8.116   0.214   4.473
86357SOL    HW260905   8.146   0.100   4.377
86358SOL     OW60906   3.071   8.084   7.073
86358SOL    HW160907   3.068   8.124   6.987
86358SOL    HW260908   3.127   8.007   7.062
86359SOL     OW60909  11.767   8.079  10.188
86359SOL    HW160910  11.684   8.046  10.225
86359SOL    HW260911  11.831   8.011  10.209
86360SOL     OW60912   6.236   6.253   9.607
86360SOL    HW160913   6.238   6.349   9.614
86360SOL    HW260914   6.297   6.233   9.537
86361SOL     OW60915   6.035   4.008   6.369
86361SOL    HW160916   6.080   3.924   6.379
86361SOL    HW260917   6.014   4.035   6.458
86362SOL     OW60918   5.925  10.087  12.036
86362SOL    HW160919   5.891  10.050  12.118
86362SOL    HW260920   6.009  10.042  12.023
86363SOL     OW60921   7.113   3.472   0.588
86363SOL    HW160922   7.028   3.514   0.579
86363SOL    HW260923   7.172   3.524   0.533
86364SOL     OW60924   8.720   1.477  12.112
86364SOL    HW160925   8.684   1.389  12.102
86364SOL    HW260926   8.651   1.535  12.080
86365SOL     OW60927  13.020   9.815   1.623
86365SOL    HW160928  13.042   9.736   1.573
86365SOL    HW260929  12.926   9.825   1.612
86366SOL     OW60930   9.493   5.943   1.994
86366SOL    HW160931   9.435   5.882   2.039
86366SOL    HW260932   9.500   5.909   1.905
86367SOL     OW60933   9.150   0.855  14.486
86367SOL    HW160934   9.133   0.916  14.414
86367SOL    HW260935   9.221   0.895  14.536
86368SOL     OW60936   6.193   3.001   5.298
86368SOL    HW160937   6.244   3.032   5.373
86368SOL    HW260938   6.188   2.906   5.310
86369SOL     OW60939  11.448   1.851  12.946
86369SOL    HW160940  11.443   1.929  13.002
86369SOL    HW260941  11.358   1.839  12.915
86370SOL     OW60942   4.714   8.998  12.400
86370SOL    HW160943   4.808   9.002  12.418
86370SOL    HW260944   4.708   8.990  12.305
86371SOL     OW60945  14.853  14.539   6.892
86371SOL    HW160946  14.862  14.609   6.956
86371SOL    HW260947  14.800  14.576   6.822
86372SOL     OW60948  12.975   5.483   1.355
86372SOL    HW160949  12.936   5.430   1.425
86372SOL    HW260950  13.048   5.528   1.397
86373SOL     OW60951   4.471  11.264  14.514
86373SOL    HW160952   4.411  11.228  14.449
86373SOL    HW260953   4.484  11.192  14.576
86374SOL     OW60954  11.106   9.422   4.855
86374SOL    HW160955  11.101   9.337   4.899
86374SOL    HW260956  11.179   9.413   4.794
86375SOL     OW60957  14.418   9.230   3.146
86375SOL    HW160958  14.479   9.161   3.171
86375SOL    HW260959  14.344   9.220   3.206
86376SOL     OW60960   8.871   2.632   8.732
86376SOL    HW160961   8.805   2.566   8.752
86376SOL    HW260962   8.838   2.712   8.773
86377SOL     OW60963   1.002   2.147  11.508
86377SOL    HW160964   0.939   2.151  11.437
86377SOL    HW260965   1.087   2.162  11.465
86378SOL     OW60966   2.534  10.560  10.411
86378SOL    HW160967   2.609  10.608  10.375
86378SOL    HW260968   2.500  10.510  10.337
86379SOL     OW60969   9.078   3.931  11.876
86379SOL    HW160970   9.036   3.850  11.845
86379SOL    HW260971   9.148   3.946  11.814
86380SOL     OW60972   1.731  12.587  12.015
86380SOL    HW160973   1.748  12.681  12.009
86380SOL    HW260974   1.640  12.578  11.987
86381SOL     OW60975   1.174  10.071  12.552
86381SOL    HW160976   1.167  10.072  12.647
86381SOL    HW260977   1.267  10.088  12.535
86382SOL     OW60978   2.479   4.722  13.758
86382SOL    HW160979   2.478   4.782  13.683
86382SOL    HW260980   2.421   4.650  13.732
86383SOL     OW60981  10.134   6.146  13.424
86383SOL    HW160982  10.157   6.128  13.332
86383SOL    HW260983  10.217   6.172  13.464
86384SOL     OW60984   8.565   8.437   8.735
86384SOL    HW160985   8.520   8.459   8.654
86384SOL    HW260986   8.636   8.378   8.708
86385SOL     OW60987   9.198   7.106   1.543
86385SOL    HW160988   9.172   7.025   1.588
86385SOL    HW260989   9.120   7.133   1.496
86386SOL     OW60990   9.067  13.047  12.503
86386SOL    HW160991   9.019  12.983  12.450
86386SOL    HW260992   9.159  13.033  12.480
86387SOL     OW60993   8.231   6.632   4.881
86387SOL    HW160994   8.273   6.714   4.854
86387SOL    HW260995   8.167   6.659   4.946
86388SOL     OW60996   8.851  10.346  12.182
86388SOL    HW160997   8.761  10.329  12.209
86388SOL    HW260998   8.890  10.259  12.170
86389SOL     OW60999   0.158   2.499   9.183
86389SOL    HW161000   0.232   2.550   9.150
86389SOL    HW261001   0.081   2.552   9.162
86390SOL     OW61002  14.541  10.282   3.351
86390SOL    HW161003  14.612  10.344   3.371
86390SOL    HW261004  14.532  10.229   3.429
86391SOL     OW61005   0.786  13.124   6.310
86391SOL    HW161006   0.747  13.178   6.241
86391SOL    HW261007   0.721  13.122   6.380
86392SOL     OW61008   1.551   3.770  11.953
86392SOL    HW161009   1.585   3.710  12.020
86392SOL    HW261010   1.621   3.835  11.941
86393SOL     OW61011  13.085  11.727  13.614
86393SOL    HW161012  13.127  11.744  13.530
86393SOL    HW261013  13.144  11.665  13.658
86394SOL     OW61014  14.392  13.186  10.408
86394SOL    HW161015  14.328  13.231  10.464
86394SOL    HW261016  14.339  13.146  10.339
86395SOL     OW61017   6.190   4.925   2.057
86395SOL    HW161018   6.235   4.849   2.021
86395SOL    HW261019   6.098   4.901   2.056
86396SOL     OW61020   7.543  12.259  13.522
86396SOL    HW161021   7.632  12.285  13.549
86396SOL    HW261022   7.545  12.266  13.426
86397SOL     OW61023   0.650   8.598   4.693
86397SOL    HW161024   0.657   8.502   4.690
86397SOL    HW261025   0.683   8.627   4.608
86398SOL     OW61026  12.467   1.812   0.076
86398SOL    HW161027  12.460   1.799  14.861
86398SOL    HW261028  12.553   1.852   0.089
86399SOL     OW61029   0.921   6.152   1.135
86399SOL    HW161030   0.892   6.062   1.125
86399SOL    HW261031   0.918   6.168   1.230
86400SOL     OW61032   6.585  11.892  10.251
86400SOL    HW161033   6.600  11.968  10.308
86400SOL    HW261034   6.667  11.842  10.256
86401SOL     OW61035   1.995   7.020   6.620
86401SOL    HW161036   2.048   6.994   6.545
86401SOL    HW261037   2.052   7.079   6.670
86402SOL     OW61038   8.560  13.296   9.357
86402SOL    HW161039   8.642  13.334   9.387
86402SOL    HW261040   8.576  13.201   9.356
86403SOL     OW61041  11.042  14.320  11.095
86403SOL    HW161042  11.118  14.377  11.096
86403SOL    HW261043  10.969  14.376  11.122
86404SOL     OW61044   7.178  11.841  13.260
86404SOL    HW161045   7.258  11.824  13.310
86404SOL    HW261046   7.112  11.784  13.301
86405SOL     OW61047   3.600   2.548  12.367
86405SOL    HW161048   3.553   2.618  12.412
86405SOL    HW261049   3.565   2.548  12.278
86406SOL     OW61050  13.248   5.872   7.605
86406SOL    HW161051  13.234   5.852   7.697
86406SOL    HW261052  13.208   5.799   7.558
86407SOL     OW61053   0.328  13.951   6.607
86407SOL    HW161054   0.367  13.963   6.521
86407SOL    HW261055   0.234  13.948   6.592
86408SOL     OW61056  12.011  11.647   1.461
86408SOL    HW161057  12.100  11.668   1.434
86408SOL    HW261058  11.966  11.731   1.466
86409SOL     OW61059   7.075  12.998  14.562
86409SOL    HW161060   6.997  12.946  14.545
86409SOL    HW261061   7.133  12.979  14.488
86410SOL     OW61062   5.827   0.141   1.562
86410SOL    HW161063   5.795   0.229   1.584
86410SOL    HW261064   5.752   0.084   1.579
86411SOL     OW61065  10.410   6.691   2.300
86411SOL    HW161066  10.328   6.739   2.292
86411SOL    HW261067  10.472   6.742   2.247
86412SOL     OW61068   9.483  10.725   8.019
86412SOL    HW161069   9.433  10.713   8.099
86412SOL    HW261070   9.471  10.643   7.971
86413SOL     OW61071   8.064   7.214   9.025
86413SOL    HW161072   7.976   7.251   9.014
86413SOL    HW261073   8.053   7.146   9.092
86414SOL     OW61074   2.639   7.741   9.921
86414SOL    HW161075   2.611   7.831   9.938
86414SOL    HW261076   2.713   7.751   9.860
86415SOL     OW61077  13.471  13.976   6.383
86415SOL    HW161078  13.534  13.951   6.451
86415SOL    HW261079  13.494  13.921   6.308
86416SOL     OW61080   9.650  13.469   6.028
86416SOL    HW161081   9.626  13.443   5.939
86416SOL    HW261082   9.717  13.405   6.054
86417SOL     OW61083   7.923   4.646   5.358
86417SOL    HW161084   7.909   4.716   5.422
86417SOL    HW261085   7.835   4.619   5.332
86418SOL     OW61086   6.229  11.078  11.775
86418SOL    HW161087   6.317  11.069  11.739
86418SOL    HW261088   6.198  11.162  11.741
86419SOL     OW61089   2.928   3.947  13.234
86419SOL    HW161090   3.023   3.956  13.233
86419SOL    HW261091   2.902   3.956  13.142
86420SOL     OW61092   3.368   5.651   6.981
86420SOL    HW161093   3.348   5.723   7.041
86420SOL    HW261094   3.436   5.686   6.924
86421SOL     OW61095   1.348  13.902   6.639
86421SOL    HW161096   1.400  13.982   6.642
86421SOL    HW261097   1.332  13.881   6.731
86422SOL     OW61098  12.921   1.502   4.220
86422SOL    HW161099  12.831   1.477   4.241
86422SOL    HW261100  12.933   1.585   4.266
86423SOL     OW61101  10.554   8.087   3.273
86423SOL    HW161102  10.593   8.162   3.230
86423SOL    HW261103  10.526   8.120   3.358
86424SOL     OW61104   0.444  11.362   7.306
86424SOL    HW161105   0.532  11.385   7.277
86424SOL    HW261106   0.388  11.385   7.233
86425SOL     OW61107  12.764   8.533  13.431
86425SOL    HW161108  12.681   8.497  13.399
86425SOL    HW261109  12.777   8.493  13.517
86426SOL     OW61110   4.140   8.605  10.317
86426SOL    HW161111   4.059   8.556  10.329
86426SOL    HW261112   4.199   8.543  10.275
86427SOL     OW61113   5.325  14.729   7.270
86427SOL    HW161114   5.236  14.750   7.299
86427SOL    HW261115   5.313  14.685   7.186
86428SOL     OW61116   2.201  10.916   7.899
86428SOL    HW161117   2.184  10.959   7.816
86428SOL    HW261118   2.119  10.873   7.921
86429SOL     OW61119  12.043  10.780   8.795
86429SOL    HW161120  12.087  10.728   8.727
86429SOL    HW261121  11.991  10.844   8.748
86430SOL     OW61122   6.567   1.930   3.097
86430SOL    HW161123   6.472   1.930   3.101
86430SOL    HW261124   6.595   1.887   3.178
86431SOL     OW61125   3.193  11.026   5.964
86431SOL    HW161126   3.244  10.957   5.922
86431SOL    HW261127   3.106  10.988   5.976
86432SOL     OW61128  11.938   4.053   6.632
86432SOL    HW161129  11.885   4.130   6.613
86432SOL    HW261130  11.979   4.072   6.716
86433SOL     OW61131   0.721   3.245   2.390
86433SOL    HW161132   0.680   3.160   2.409
86433SOL    HW261133   0.783   3.226   2.320
86434SOL     OW61134   0.249   5.054  14.362
86434SOL    HW161135   0.219   5.028  14.450
86434SOL    HW261136   0.331   5.100  14.378
86435SOL     OW61137   2.718   2.567   8.606
86435SOL    HW161138   2.624   2.556   8.592
86435SOL    HW261139   2.759   2.524   8.532
86436SOL     OW61140  14.412   9.060  13.523
86436SOL    HW161141  14.390   9.112  13.601
86436SOL    HW261142  14.388   9.116  13.449
86437SOL     OW61143   2.829  14.551   0.055
86437SOL    HW161144   2.915  14.532   0.093
86437SOL    HW261145   2.843  14.628  14.879
86438SOL     OW61146  11.992   1.212  14.800
86438SOL    HW161147  11.949   1.127  14.793
86438SOL    HW261148  12.080   1.197  14.766
86439SOL     OW61149  11.400   9.165   2.913
86439SOL    HW161150  11.487   9.143   2.879
86439SOL    HW261151  11.344   9.167   2.835
86440SOL     OW61152   5.710  10.916   0.857
86440SOL    HW161153   5.798  10.885   0.878
86440SOL    HW261154   5.716  11.011   0.861
86441SOL     OW61155   3.896  11.117   8.046
86441SOL    HW161156   3.839  11.164   7.985
86441SOL    HW261157   3.836  11.072   8.105
86442SOL     OW61158   6.800   4.858   4.055
86442SOL    HW161159   6.847   4.882   3.975
86442SOL    HW261160   6.841   4.910   4.124
86443SOL     OW61161   5.059   7.453   6.153
86443SOL    HW161162   5.050   7.446   6.058
86443SOL    HW261163   5.147   7.486   6.168
86444SOL     OW61164   8.277   2.389  13.016
86444SOL    HW161165   8.266   2.430  13.101
86444SOL    HW261166   8.289   2.296  13.036
86445SOL     OW61167   3.606  10.909  10.940
86445SOL    HW161168   3.618  11.002  10.921
86445SOL    HW261169   3.695  10.874  10.947
86446SOL     OW61170  13.841   7.526  11.785
86446SOL    HW161171  13.806   7.592  11.844
86446SOL    HW261172  13.888   7.577  11.718
86447SOL     OW61173   1.989  10.808   4.716
86447SOL    HW161174   1.901  10.823   4.681
86447SOL    HW261175   2.048  10.851   4.655
86448SOL     OW61176   8.964   0.913   4.288
86448SOL    HW161177   8.872   0.902   4.264
86448SOL    HW261178   8.987   1.001   4.256
86449SOL     OW61179   9.241   9.632   4.182
86449SOL    HW161180   9.270   9.576   4.254
86449SOL    HW261181   9.189   9.700   4.224
86450SOL     OW61182   1.518  10.816   5.096
86450SOL    HW161183   1.483  10.817   5.185
86450SOL    HW261184   1.442  10.796   5.041
86451SOL     OW61185  14.113  12.481   6.746
86451SOL    HW161186  14.046  12.481   6.814
86451SOL    HW261187  14.196  12.480   6.794
86452SOL     OW61188  11.252   9.466  12.389
86452SOL    HW161189  11.263   9.479  12.295
86452SOL    HW261190  11.276   9.551  12.428
86453SOL     OW61191  10.272   0.509  13.443
86453SOL    HW161192  10.211   0.482  13.511
86453SOL    HW261193  10.260   0.604  13.436
86454SOL     OW61194  11.658   2.605   0.059
86454SOL    HW161195  11.591   2.536   0.055
86454SOL    HW261196  11.727   2.575  14.879
86455SOL     OW61197   0.209   1.575   9.173
86455SOL    HW161198   0.198   1.520   9.251
86455SOL    HW261199   0.292   1.619   9.187
86456SOL     OW61200   2.073   0.411   3.358
86456SOL    HW161201   2.077   0.496   3.402
86456SOL    HW261202   2.006   0.362   3.406
86457SOL     OW61203   1.553   8.177  14.547
86457SOL    HW161204   1.611   8.205  14.476
86457SOL    HW261205   1.467   8.214  14.524
86458SOL     OW61206   6.076   5.506  10.046
86458SOL    HW161207   6.087   5.572   9.977
86458SOL    HW261208   5.995   5.532  10.091
86459SOL     OW61209   1.021  12.921  12.631
86459SOL    HW161210   0.991  13.003  12.670
86459SOL    HW261211   1.033  12.862  12.705
86460SOL     OW61212   3.354  13.447  12.914
86460SOL    HW161213   3.423  13.382  12.907
86460SOL    HW261214   3.316  13.453  12.827
86461SOL     OW61215   8.751  13.907   6.297
86461SOL    HW161216   8.666  13.949   6.313
86461SOL    HW261217   8.731  13.833   6.240
86462SOL     OW61218   4.453   5.269   4.865
86462SOL    HW161219   4.370   5.243   4.825
86462SOL    HW261220   4.438   5.261   4.959
86463SOL     OW61221  10.966   3.555   8.106
86463SOL    HW161222  11.006   3.560   8.192
86463SOL    HW261223  11.038   3.531   8.047
86464SOL     OW61224   1.949   1.769   1.913
86464SOL    HW161225   1.921   1.857   1.887
86464SOL    HW261226   1.882   1.711   1.878
86465SOL     OW61227   4.274  13.368  11.849
86465SOL    HW161228   4.244  13.452  11.882
86465SOL    HW261229   4.346  13.343  11.906
86466SOL     OW61230   2.043   5.694   5.824
86466SOL    HW161231   2.103   5.719   5.894
86466SOL    HW261232   2.050   5.599   5.819
86467SOL     OW61233   2.540   8.152   4.430
86467SOL    HW161234   2.450   8.138   4.460
86467SOL    HW261235   2.578   8.064   4.426
86468SOL     OW61236   0.593   7.548   9.838
86468SOL    HW161237   0.547   7.541   9.922
86468SOL    HW261238   0.526   7.530   9.772
86469SOL     OW61239   2.893  12.733   2.888
86469SOL    HW161240   2.914  12.826   2.893
86469SOL    HW261241   2.798  12.729   2.893
86470SOL     OW61242   3.513  12.181   4.382
86470SOL    HW161243   3.598  12.146   4.409
86470SOL    HW261244   3.490  12.244   4.450
86471SOL     OW61245  13.558   9.258   1.659
86471SOL    HW161246  13.538   9.317   1.587
86471SOL    HW261247  13.632   9.206   1.629
86472SOL     OW61248   8.362   7.623   9.242
86472SOL    HW161249   8.456   7.633   9.226
86472SOL    HW261250   8.322   7.626   9.155
86473SOL     OW61251   4.669  13.349   2.580
86473SOL    HW161252   4.699  13.322   2.494
86473SOL    HW261253   4.715  13.293   2.642
86474SOL     OW61254   0.582  13.456  10.383
86474SOL    HW161255   0.605  13.546  10.362
86474SOL    HW261256   0.492  13.461  10.415
86475SOL     OW61257   9.414   6.614  11.673
86475SOL    HW161258   9.347   6.546  11.667
86475SOL    HW261259   9.365   6.696  11.675
86476SOL     OW61260   3.253   7.308   1.390
86476SOL    HW161261   3.333   7.299   1.337
86476SOL    HW261262   3.184   7.320   1.325
86477SOL     OW61263   0.491   5.972   4.019
86477SOL    HW161264   0.425   6.008   3.960
86477SOL    HW261265   0.574   5.998   3.980
86478SOL     OW61266   9.156   9.596   7.579
86478SOL    HW161267   9.172   9.690   7.582
86478SOL    HW261268   9.159   9.574   7.486
86479SOL     OW61269  14.598  13.493   7.959
86479SOL    HW161270  14.596  13.443   8.041
86479SOL    HW261271  14.628  13.580   7.985
86480SOL     OW61272  11.102   5.497   8.299
86480SOL    HW161273  11.061   5.581   8.277
86480SOL    HW261274  11.038   5.431   8.273
86481SOL     OW61275   7.384  14.795   9.639
86481SOL    HW161276   7.432  14.831   9.713
86481SOL    HW261277   7.452  14.776   9.574
86482SOL     OW61278   8.625  12.320  13.747
86482SOL    HW161279   8.682  12.283  13.815
86482SOL    HW261280   8.615  12.249  13.683
86483SOL     OW61281   4.867  11.458  14.818
86483SOL    HW161282   4.781  11.430  14.787
86483SOL    HW261283   4.864  11.554  14.814
86484SOL     OW61284  11.951   3.053   7.910
86484SOL    HW161285  12.003   2.973   7.919
86484SOL    HW261286  11.883   3.030   7.847
86485SOL     OW61287  10.393   2.882  10.722
86485SOL    HW161288  10.304   2.865  10.754
86485SOL    HW261289  10.402   2.824  10.646
86486SOL     OW61290   1.512   3.802   9.734
86486SOL    HW161291   1.489   3.871   9.673
86486SOL    HW261292   1.596   3.829   9.771
86487SOL     OW61293  12.216  12.112   0.630
86487SOL    HW161294  12.256  12.191   0.594
86487SOL    HW261295  12.227  12.120   0.724
86488SOL     OW61296   7.057   3.497  12.177
86488SOL    HW161297   7.150   3.519  12.181
86488SOL    HW261298   7.035   3.502  12.084
86489SOL     OW61299   6.189   3.888  10.167
86489SOL    HW161300   6.124   3.958  10.168
86489SOL    HW261301   6.170   3.839  10.087
86490SOL     OW61302   6.559  12.720   9.947
86490SOL    HW161303   6.577  12.747   9.857
86490SOL    HW261304   6.601  12.635   9.955
86491SOL     OW61305  10.798  11.493  11.008
86491SOL    HW161306  10.870  11.452  10.959
86491SOL    HW261307  10.779  11.573  10.959
86492SOL     OW61308   1.196  12.218   2.767
86492SOL    HW161309   1.233  12.174   2.690
86492SOL    HW261310   1.193  12.311   2.741
86493SOL     OW61311   1.397   5.542   4.258
86493SOL    HW161312   1.419   5.529   4.351
86493SOL    HW261313   1.478   5.573   4.219
86494SOL     OW61314   3.371  13.266   6.613
86494SOL    HW161315   3.327  13.196   6.660
86494SOL    HW261316   3.464  13.250   6.628
86495SOL     OW61317   0.229   2.579  12.529
86495SOL    HW161318   0.211   2.573  12.435
86495SOL    HW261319   0.239   2.488  12.557
86496SOL     OW61320   9.512   6.308   9.517
86496SOL    HW161321   9.429   6.267   9.493
86496SOL    HW261322   9.526   6.375   9.450
86497SOL     OW61323  10.116   3.743   1.612
86497SOL    HW161324  10.153   3.777   1.530
86497SOL    HW261325  10.187   3.691   1.649
86498SOL     OW61326  10.836   3.361   0.020
86498SOL    HW161327  10.921   3.373   0.063
86498SOL    HW261328  10.832   3.431  14.834
86499SOL     OW61329  14.001   7.342   5.942
86499SOL    HW161330  14.082   7.393   5.945
86499SOL    HW261331  14.005   7.295   5.858
86500SOL     OW61332   0.259  13.112   7.312
86500SOL    HW161333   0.316  13.174   7.268
86500SOL    HW261334   0.311  13.080   7.386
86501SOL     OW61335   1.104   9.075  11.264
86501SOL    HW161336   1.153   9.105  11.341
86501SOL    HW261337   1.151   8.996  11.236
86502SOL     OW61338   7.354  14.847   2.528
86502SOL    HW161339   7.406  14.866   2.450
86502SOL    HW261340   7.383   0.033   2.592
86503SOL     OW61341  13.260   3.698  10.268
86503SOL    HW161342  13.317   3.742  10.331
86503SOL    HW261343  13.281   3.738  10.184
86504SOL     OW61344  14.705   4.794   0.723
86504SOL    HW161345  14.788   4.803   0.770
86504SOL    HW261346  14.715   4.848   0.645
86505SOL     OW61347  10.772   4.733   6.748
86505SOL    HW161348  10.685   4.714   6.711
86505SOL    HW261349  10.833   4.713   6.677
86506SOL     OW61350   7.547   7.668   6.247
86506SOL    HW161351   7.563   7.656   6.340
86506SOL    HW261352   7.520   7.582   6.215
86507SOL     OW61353   3.131   1.764  14.772
86507SOL    HW161354   3.158   1.856  14.770
86507SOL    HW261355   3.178   1.724  14.699
86508SOL     OW61356   8.416   4.747   2.311
86508SOL    HW161357   8.478   4.820   2.318
86508SOL    HW261358   8.338   4.786   2.270
86509SOL     OW61359   2.514   5.995  11.713
86509SOL    HW161360   2.471   5.959  11.635
86509SOL    HW261361   2.545   6.081  11.686
86510SOL     OW61362  10.806   6.113   9.058
86510SOL    HW161363  10.735   6.177   9.066
86510SOL    HW261364  10.886   6.166   9.051
86511SOL     OW61365  14.619   0.313   9.881
86511SOL    HW161366  14.697   0.267   9.912
86511SOL    HW261367  14.552   0.245   9.874
86512SOL     OW61368   7.255  14.459   6.070
86512SOL    HW161369   7.244  14.406   6.149
86512SOL    HW261370   7.174  14.445   6.020
86513SOL     OW61371  11.712   8.696   3.007
86513SOL    HW161372  11.661   8.712   2.928
86513SOL    HW261373  11.647   8.673   3.073
86514SOL     OW61374  10.128  12.760  14.713
86514SOL    HW161375  10.042  12.717  14.718
86514SOL    HW261376  10.186  12.694  14.676
86515SOL     OW61377   8.088   7.212   0.305
86515SOL    HW161378   8.167   7.181   0.348
86515SOL    HW261379   8.034   7.133   0.296
86516SOL     OW61380  10.435   9.226  14.018
86516SOL    HW161381  10.431   9.141  13.973
86516SOL    HW261382  10.430   9.291  13.948
86517SOL     OW61383   6.047   0.368  12.506
86517SOL    HW161384   6.106   0.293  12.497
86517SOL    HW261385   6.013   0.383  12.418
86518SOL     OW61386   0.292  12.253   3.374
86518SOL    HW161387   0.322  12.328   3.425
86518SOL    HW261388   0.229  12.290   3.312
86519SOL     OW61389  13.801   8.996   1.216
86519SOL    HW161390  13.744   8.966   1.286
86519SOL    HW261391  13.886   9.009   1.259
86520SOL     OW61392   4.478   7.422  14.140
86520SOL    HW161393   4.477   7.517  14.132
86520SOL    HW261394   4.389   7.399  14.166
86521SOL     OW61395   6.466   1.989  10.367
86521SOL    HW161396   6.413   1.962  10.292
86521SOL    HW261397   6.547   1.939  10.358
86522SOL     OW61398   2.903   7.670  12.334
86522SOL    HW161399   2.995   7.666  12.361
86522SOL    HW261400   2.883   7.764  12.332
86523SOL     OW61401   3.149   3.065  13.983
86523SOL    HW161402   3.120   3.140  14.034
86523SOL    HW261403   3.124   3.086  13.893
86524SOL     OW61404  14.782   5.331  10.197
86524SOL    HW161405  14.723   5.315  10.123
86524SOL    HW261406  14.854   5.269  10.184
86525SOL     OW61407   2.739   9.970   9.643
86525SOL    HW161408   2.806   9.937   9.703
86525SOL    HW261409   2.686   9.893   9.621
86526SOL     OW61410   2.084  13.539   6.176
86526SOL    HW161411   2.059  13.469   6.117
86526SOL    HW261412   2.032  13.524   6.255
86527SOL     OW61413   1.899   4.833  10.508
86527SOL    HW161414   1.886   4.896  10.437
86527SOL    HW261415   1.972   4.868  10.558
86528SOL     OW61416   7.302  12.274   1.457
86528SOL    HW161417   7.314  12.285   1.363
86528SOL    HW261418   7.383  12.233   1.487
86529SOL     OW61419  11.836  13.682   9.760
86529SOL    HW161420  11.793  13.629   9.693
86529SOL    HW261421  11.803  13.646   9.843
86530SOL     OW61422   2.042   6.084   3.928
86530SOL    HW161423   2.050   6.145   3.855
86530SOL    HW261424   1.982   6.127   3.989
86531SOL     OW61425   3.417   4.516   7.039
86531SOL    HW161426   3.393   4.424   7.052
86531SOL    HW261427   3.388   4.536   6.950
86532SOL     OW61428   8.604   8.114  10.755
86532SOL    HW161429   8.677   8.173  10.736
86532SOL    HW261430   8.602   8.109  10.851
86533SOL     OW61431   8.526   0.064  11.586
86533SOL    HW161432   8.518   0.116  11.665
86533SOL    HW261433   8.558  14.858  11.616
86534SOL     OW61434  11.264  14.312   6.096
86534SOL    HW161435  11.216  14.379   6.145
86534SOL    HW261436  11.213  14.232   6.107
86535SOL     OW61437   3.900   1.962  13.705
86535SOL    HW161438   3.949   2.010  13.639
86535SOL    HW261439   3.881   1.877  13.665
86536SOL     OW61440   3.936   6.924   0.917
86536SOL    HW161441   3.936   6.882   1.003
86536SOL    HW261442   3.872   6.995   0.925
86537SOL     OW61443  13.553  12.889   3.478
86537SOL    HW161444  13.531  12.799   3.503
86537SOL    HW261445  13.504  12.904   3.397
86538SOL     OW61446   8.548   4.710   8.719
86538SOL    HW161447   8.619   4.765   8.689
86538SOL    HW261448   8.501   4.685   8.639
86539SOL     OW61449   0.046   1.825   7.538
86539SOL    HW161450   0.009   1.751   7.587
86539SOL    HW261451   0.033   1.901   7.595
86540SOL     OW61452   3.298   6.639  10.419
86540SOL    HW161453   3.212   6.604  10.397
86540SOL    HW261454   3.304   6.722  10.370
86541SOL     OW61455   6.695  13.300   9.380
86541SOL    HW161456   6.665  13.390   9.387
86541SOL    HW261457   6.775  13.297   9.433
86542SOL     OW61458  12.589   7.818   4.429
86542SOL    HW161459  12.500   7.788   4.451
86542SOL    HW261460  12.640   7.800   4.508
86543SOL     OW61461   0.340  12.367   3.001
86543SOL    HW161462   0.264  12.312   2.981
86543SOL    HW261463   0.414  12.306   2.999
86544SOL     OW61464   8.901   6.504   4.404
86544SOL    HW161465   8.822   6.554   4.385
86544SOL    HW261466   8.972   6.568   4.394
86545SOL     OW61467   0.897   5.679   7.443
86545SOL    HW161468   0.954   5.742   7.401
86545SOL    HW261469   0.892   5.606   7.382
86546SOL     OW61470   7.348  12.035   4.135
86546SOL    HW161471   7.430  11.989   4.151
86546SOL    HW261472   7.299  12.025   4.217
86547SOL     OW61473   9.719  14.507   6.954
86547SOL    HW161474   9.730  14.593   6.914
86547SOL    HW261475   9.702  14.525   7.046
86548SOL     OW61476  12.999   2.399   3.304
86548SOL    HW161477  13.026   2.486   3.275
86548SOL    HW261478  12.988   2.408   3.398
86549SOL     OW61479  13.151   1.810  11.026
86549SOL    HW161480  13.154   1.863  11.105
86549SOL    HW261481  13.225   1.841  10.973
86550SOL     OW61482  11.602   9.735  11.288
86550SOL    HW161483  11.597   9.782  11.372
86550SOL    HW261484  11.692   9.703  11.284
86551SOL     OW61485   7.921   6.791   7.871
86551SOL    HW161486   7.826   6.776   7.881
86551SOL    HW261487   7.932   6.810   7.778
86552SOL     OW61488   4.836   2.315  14.398
86552SOL    HW161489   4.844   2.395  14.451
86552SOL    HW261490   4.792   2.253  14.457
86553SOL     OW61491   0.298  13.967   1.390
86553SOL    HW161492   0.279  14.002   1.477
86553SOL    HW261493   0.393  13.967   1.384
86554SOL     OW61494   7.514  10.854   2.734
86554SOL    HW161495   7.478  10.939   2.756
86554SOL    HW261496   7.609  10.865   2.741
86555SOL     OW61497  12.748   4.841   1.404
86555SOL    HW161498  12.800   4.912   1.366
86555SOL    HW261499  12.673   4.832   1.345
86556SOL     OW61500   8.796   5.480  11.596
86556SOL    HW161501   8.822   5.558  11.546
86556SOL    HW261502   8.870   5.464  11.654
86557SOL     OW61503   2.122   1.657  14.544
86557SOL    HW161504   2.083   1.684  14.461
86557SOL    HW261505   2.064   1.588  14.577
86558SOL     OW61506  14.491   5.969   3.046
86558SOL    HW161507  14.483   5.891   2.991
86558SOL    HW261508  14.456   5.941   3.131
86559SOL     OW61509  12.487   6.638  14.368
86559SOL    HW161510  12.475   6.711  14.307
86559SOL    HW261511  12.582   6.625  14.371
86560SOL     OW61512  10.336   6.207  11.631
86560SOL    HW161513  10.324   6.263  11.707
86560SOL    HW261514  10.366   6.123  11.667
86561SOL     OW61515   4.259   3.614   8.058
86561SOL    HW161516   4.352   3.637   8.067
86561SOL    HW261517   4.247   3.537   8.113
86562SOL     OW61518  13.543   2.588  10.790
86562SOL    HW161519  13.622   2.589  10.735
86562SOL    HW261520  13.529   2.680  10.813
86563SOL     OW61521   1.161  10.782   6.038
86563SOL    HW161522   1.250  10.759   6.063
86563SOL    HW261523   1.107  10.712   6.075
86564SOL     OW61524   9.686   4.037   7.345
86564SOL    HW161525   9.633   4.093   7.402
86564SOL    HW261526   9.764   4.016   7.398
86565SOL     OW61527   4.592   4.365   8.654
86565SOL    HW161528   4.662   4.392   8.714
86565SOL    HW261529   4.601   4.270   8.649
86566SOL     OW61530   8.422   3.389   5.099
86566SOL    HW161531   8.422   3.481   5.074
86566SOL    HW261532   8.463   3.344   5.025
86567SOL     OW61533  10.426   6.966   1.000
86567SOL    HW161534  10.492   7.021   1.042
86567SOL    HW261535  10.343   6.991   1.042
86568SOL     OW61536   7.631   8.560   2.257
86568SOL    HW161537   7.688   8.505   2.203
86568SOL    HW261538   7.542   8.533   2.233
86569SOL     OW61539   4.001   6.371   4.532
86569SOL    HW161540   4.031   6.360   4.441
86569SOL    HW261541   4.033   6.457   4.558
86570SOL     OW61542   8.974   4.648   9.961
86570SOL    HW161543   9.002   4.641  10.053
86570SOL    HW261544   8.932   4.734   9.956
86571SOL     OW61545  10.404   5.146   3.010
86571SOL    HW161546  10.492   5.112   3.029
86571SOL    HW261547  10.349   5.068   3.003
86572SOL     OW61548  14.710   0.035   9.044
86572SOL    HW161549  14.691  14.855   9.116
86572SOL    HW261550  14.691   0.122   9.079
86573SOL     OW61551   2.173  10.891   7.286
86573SOL    HW161552   2.267  10.901   7.269
86573SOL    HW261553   2.140  10.841   7.211
86574SOL     OW61554   1.242  12.829  14.751
86574SOL    HW161555   1.243  12.854  14.659
86574SOL    HW261556   1.272  12.738  14.752
86575SOL     OW61557   6.088   0.702   4.644
86575SOL    HW161558   6.077   0.620   4.691
86575SOL    HW261559   6.133   0.677   4.563
86576SOL     OW61560   1.350   0.962  12.228
86576SOL    HW161561   1.395   0.884  12.195
86576SOL    HW261562   1.260   0.934  12.244
86577SOL     OW61563   9.845  13.235  13.944
86577SOL    HW161564   9.820  13.323  13.971
86577SOL    HW261565   9.785  13.177  13.992
86578SOL     OW61566  13.215   6.376   4.255
86578SOL    HW161567  13.193   6.467   4.234
86578SOL    HW261568  13.182   6.326   4.180
86579SOL     OW61569  12.297   4.808   2.498
86579SOL    HW161570  12.298   4.898   2.464
86579SOL    HW261571  12.292   4.753   2.421
86580SOL     OW61572  14.448   7.935   5.649
86580SOL    HW161573  14.505   8.009   5.628
86580SOL    HW261574  14.486   7.898   5.729
86581SOL     OW61575   9.546   8.867   4.951
86581SOL    HW161576   9.524   8.907   4.867
86581SOL    HW261577   9.618   8.921   4.985
86582SOL     OW61578  14.216  11.653  10.443
86582SOL    HW161579  14.247  11.721  10.503
86582SOL    HW261580  14.131  11.627  10.479
86583SOL     OW61581   4.132  11.589  11.184
86583SOL    HW161582   4.134  11.648  11.109
86583SOL    HW261583   4.222  11.590  11.217
86584SOL     OW61584   0.662   5.210   2.462
86584SOL    HW161585   0.717   5.277   2.503
86584SOL    HW261586   0.668   5.227   2.368
86585SOL     OW61587  10.519   7.492   8.895
86585SOL    HW161588  10.461   7.481   8.970
86585SOL    HW261589  10.510   7.584   8.870
86586SOL     OW61590   9.477   2.081   8.597
86586SOL    HW161591   9.546   2.025   8.635
86586SOL    HW261592   9.432   2.024   8.535
86587SOL     OW61593  13.041   5.128   0.082
86587SOL    HW161594  13.029   5.033   0.096
86587SOL    HW261595  12.982   5.168   0.146
86588SOL     OW61596   2.342   3.006   1.946
86588SOL    HW161597   2.419   3.059   1.966
86588SOL    HW261598   2.267   3.062   1.967
86589SOL     OW61599   4.074  13.048   2.614
86589SOL    HW161600   3.991  13.070   2.571
86589SOL    HW261601   4.083  13.113   2.683
86590SOL     OW61602   3.327   2.229   1.474
86590SOL    HW161603   3.309   2.178   1.395
86590SOL    HW261604   3.277   2.310   1.463
86591SOL     OW61605  12.304   8.409   3.682
86591SOL    HW161606  12.285   8.361   3.762
86591SOL    HW261607  12.317   8.342   3.615
86592SOL     OW61608  14.592  11.230  11.793
86592SOL    HW161609  14.602  11.323  11.772
86592SOL    HW261610  14.501  11.221  11.822
86593SOL     OW61611  13.945   7.152  13.021
86593SOL    HW161612  13.922   7.061  13.038
86593SOL    HW261613  14.024   7.147  12.966
86594SOL     OW61614   7.555   3.200   4.281
86594SOL    HW161615   7.525   3.151   4.357
86594SOL    HW261616   7.482   3.259   4.260
86595SOL     OW61617  12.565   9.134  14.542
86595SOL    HW161618  12.655   9.113  14.520
86595SOL    HW261619  12.520   9.137  14.458
86596SOL     OW61620   7.592   6.062   8.000
86596SOL    HW161621   7.594   6.146   8.047
86596SOL    HW261622   7.682   6.048   7.973
86597SOL     OW61623   8.309   9.533  11.232
86597SOL    HW161624   8.335   9.590  11.160
86597SOL    HW261625   8.249   9.470  11.191
86598SOL     OW61626   6.519   0.872  14.020
86598SOL    HW161627   6.496   0.791  14.065
86598SOL    HW261628   6.468   0.940  14.064
86599SOL     OW61629  11.434   4.091  14.322
86599SOL    HW161630  11.503   4.052  14.268
86599SOL    HW261631  11.362   4.029  14.317
86600SOL     OW61632   9.938  14.775   4.713
86600SOL    HW161633   9.972  14.820   4.636
86600SOL    HW261634  10.016  14.755   4.765
86601SOL     OW61635   0.867   0.754   8.077
86601SOL    HW161636   0.947   0.716   8.040
86601SOL    HW261637   0.850   0.702   8.155
86602SOL     OW61638   7.153   1.621   2.080
86602SOL    HW161639   7.184   1.586   2.164
86602SOL    HW261640   7.083   1.681   2.103
86603SOL     OW61641   1.857   7.655  10.553
86603SOL    HW161642   1.905   7.578  10.522
86603SOL    HW261643   1.863   7.650  10.649
86604SOL     OW61644   3.719   8.385   5.254
86604SOL    HW161645   3.745   8.339   5.334
86604SOL    HW261646   3.676   8.317   5.201
86605SOL     OW61647  13.225  13.826   6.012
86605SOL    HW161648  13.141  13.797   6.047
86605SOL    HW261649  13.274  13.745   5.999
86606SOL     OW61650   9.814  14.382   5.250
86606SOL    HW161651   9.775  14.448   5.193
86606SOL    HW261652   9.881  14.340   5.196
86607SOL     OW61653   8.197   3.663   9.675
86607SOL    HW161654   8.241   3.686   9.593
86607SOL    HW261655   8.157   3.746   9.704
86608SOL     OW61656   7.106  14.127   6.767
86608SOL    HW161657   7.164  14.065   6.810
86608SOL    HW261658   7.062  14.173   6.838
86609SOL     OW61659   3.388   3.816   9.566
86609SOL    HW161660   3.323   3.779   9.506
86609SOL    HW261661   3.336   3.862   9.632
86610SOL     OW61662  11.634   8.264   0.429
86610SOL    HW161663  11.696   8.327   0.391
86610SOL    HW261664  11.605   8.211   0.355
86611SOL     OW61665   9.573   9.394  11.661
86611SOL    HW161666   9.588   9.304  11.689
86611SOL    HW261667   9.622   9.447  11.725
86612SOL     OW61668   3.646   3.679   9.610
86612SOL    HW161669   3.628   3.586   9.596
86612SOL    HW261670   3.560   3.717   9.627
86613SOL     OW61671   7.819   1.131   7.396
86613SOL    HW161672   7.883   1.092   7.455
86613SOL    HW261673   7.737   1.128   7.445
86614SOL     OW61674  11.460  11.814   7.342
86614SOL    HW161675  11.520  11.878   7.303
86614SOL    HW261676  11.492  11.802   7.431
86615SOL     OW61677   1.897   0.935   4.618
86615SOL    HW161678   1.921   1.020   4.581
86615SOL    HW261679   1.912   0.872   4.547
86616SOL     OW61680   1.118  13.340  13.635
86616SOL    HW161681   1.104  13.426  13.594
86616SOL    HW261682   1.107  13.277  13.564
86617SOL     OW61683   7.493   3.202   0.735
86617SOL    HW161684   7.527   3.280   0.779
86617SOL    HW261685   7.415   3.178   0.785
86618SOL     OW61686   3.426  13.344   9.653
86618SOL    HW161687   3.439  13.316   9.744
86618SOL    HW261688   3.337  13.380   9.653
86619SOL     OW61689   6.025  11.733   4.500
86619SOL    HW161690   6.059  11.673   4.433
86619SOL    HW261691   6.079  11.714   4.577
86620SOL     OW61692   4.746   5.842   2.891
86620SOL    HW161693   4.787   5.821   2.807
86620SOL    HW261694   4.819   5.866   2.948
86621SOL     OW61695   0.019   6.983   5.075
86621SOL    HW161696  14.862   6.906   5.030
86621SOL    HW261697  14.839   6.996   5.149
86622SOL     OW61698  10.635  13.306   0.377
86622SOL    HW161699  10.672  13.376   0.432
86622SOL    HW261700  10.668  13.225   0.415
86623SOL     OW61701   5.147   0.693   2.356
86623SOL    HW161702   5.191   0.646   2.285
86623SOL    HW261703   5.067   0.643   2.371
86624SOL     OW61704   6.513  10.232  12.587
86624SOL    HW161705   6.440  10.270  12.539
86624SOL    HW261706   6.505  10.268  12.675
86625SOL     OW61707   2.791   4.412   0.058
86625SOL    HW161708   2.826   4.482   0.114
86625SOL    HW261709   2.789   4.451  14.850
86626SOL     OW61710   7.809  14.614   7.425
86626SOL    HW161711   7.830  14.707   7.433
86626SOL    HW261712   7.783  14.603   7.333
86627SOL     OW61713   8.387   2.193   3.701
86627SOL    HW161714   8.386   2.287   3.681
86627SOL    HW261715   8.371   2.151   3.617
86628SOL     OW61716   3.103   8.134   4.965
86628SOL    HW161717   3.110   8.217   4.918
86628SOL    HW261718   3.101   8.067   4.896
86629SOL     OW61719   0.120   4.814   1.364
86629SOL    HW161720   0.144   4.844   1.276
86629SOL    HW261721   0.192   4.756   1.390
86630SOL     OW61722   1.356   3.340  12.431
86630SOL    HW161723   1.380   3.341  12.524
86630SOL    HW261724   1.270   3.296  12.429
86631SOL     OW61725   1.083   4.205  10.946
86631SOL    HW161726   1.178   4.211  10.936
86631SOL    HW261727   1.060   4.119  10.909
86632SOL     OW61728   5.327   6.768   6.188
86632SOL    HW161729   5.273   6.715   6.130
86632SOL    HW261730   5.269   6.837   6.220
86633SOL     OW61731  12.720   1.582   3.668
86633SOL    HW161732  12.725   1.673   3.700
86633SOL    HW261733  12.628   1.571   3.641
86634SOL     OW61734   1.849   9.551   2.444
86634SOL    HW161735   1.889   9.483   2.498
86634SOL    HW261736   1.920   9.583   2.388
86635SOL     OW61737  10.859   6.691  12.108
86635SOL    HW161738  10.816   6.776  12.118
86635SOL    HW261739  10.871   6.660  12.197
86636SOL     OW61740   8.594   6.061   8.634
86636SOL    HW161741   8.535   6.068   8.709
86636SOL    HW261742   8.588   6.146   8.590
86637SOL     OW61743   2.107   6.875  12.654
86637SOL    HW161744   2.104   6.959  12.608
86637SOL    HW261745   2.072   6.812  12.590
86638SOL     OW61746   7.692   5.156   5.149
86638SOL    HW161747   7.774   5.189   5.186
86638SOL    HW261748   7.634   5.147   5.224
86639SOL     OW61749   9.780   5.858   2.021
86639SOL    HW161750   9.827   5.907   1.953
86639SOL    HW261751   9.704   5.913   2.042
86640SOL     OW61752   2.268   1.040   8.732
86640SOL    HW161753   2.205   1.105   8.765
86640SOL    HW261754   2.299   1.077   8.650
86641SOL     OW61755  10.253   1.762   3.310
86641SOL    HW161756  10.274   1.679   3.267
86641SOL    HW261757  10.158   1.769   3.301
86642SOL     OW61758  13.024  10.437   2.703
86642SOL    HW161759  13.069  10.390   2.634
86642SOL    HW261760  13.093  10.459   2.766
86643SOL     OW61761   4.208  11.308   9.921
86643SOL    HW161762   4.164  11.289   9.838
86643SOL    HW261763   4.266  11.232   9.935
86644SOL     OW61764   8.489   9.089  10.136
86644SOL    HW161765   8.454   9.057  10.053
86644SOL    HW261766   8.412   9.119  10.184
86645SOL     OW61767   2.390   9.563  13.015
86645SOL    HW161768   2.353   9.497  13.074
86645SOL    HW261769   2.429   9.628  13.073
86646SOL     OW61770   9.558  10.043   7.039
86646SOL    HW161771   9.581   9.952   7.055
86646SOL    HW261772   9.555  10.083   7.126
86647SOL     OW61773   8.702   8.299   5.521
86647SOL    HW161774   8.790   8.274   5.547
86647SOL    HW261775   8.700   8.288   5.426
86648SOL     OW61776   4.902   0.976   7.897
86648SOL    HW161777   4.846   0.988   7.820
86648SOL    HW261778   4.908   0.881   7.908
86649SOL     OW61779   8.480   8.218   4.898
86649SOL    HW161780   8.476   8.122   4.891
86649SOL    HW261781   8.409   8.241   4.959
86650SOL     OW61782   0.976  14.144   2.928
86650SOL    HW161783   0.946  14.232   2.954
86650SOL    HW261784   1.071  14.150   2.929
86651SOL     OW61785   4.489   2.402   5.774
86651SOL    HW161786   4.519   2.365   5.690
86651SOL    HW261787   4.532   2.488   5.778
86652SOL     OW61788  14.143   0.849  10.820
86652SOL    HW161789  14.112   0.769  10.862
86652SOL    HW261790  14.128   0.834  10.727
86653SOL     OW61791   2.575   2.412   6.696
86653SOL    HW161792   2.598   2.418   6.789
86653SOL    HW261793   2.487   2.450   6.691
86654SOL     OW61794   8.681   4.329  13.299
86654SOL    HW161795   8.741   4.374  13.240
86654SOL    HW261796   8.731   4.254  13.332
86655SOL     OW61797   5.520   6.634   8.668
86655SOL    HW161798   5.464   6.683   8.608
86655SOL    HW261799   5.539   6.696   8.738
86656SOL     OW61800  11.507   5.940   1.692
86656SOL    HW161801  11.540   5.891   1.768
86656SOL    HW261802  11.481   5.872   1.630
86657SOL     OW61803  13.868  13.297   9.590
86657SOL    HW161804  13.791  13.352   9.576
86657SOL    HW261805  13.869  13.279   9.684
86658SOL     OW61806   0.069   0.662   5.803
86658SOL    HW161807   0.140   0.604   5.830
86658SOL    HW261808   0.040   0.627   5.719
86659SOL     OW61809  13.348   9.664   6.335
86659SOL    HW161810  13.432   9.623   6.315
86659SOL    HW261811  13.335   9.647   6.428
86660SOL     OW61812   3.993  13.256   7.133
86660SOL    HW161813   4.052  13.312   7.182
86660SOL    HW261814   3.914  13.308   7.121
86661SOL     OW61815   5.891   7.326   1.937
86661SOL    HW161816   5.815   7.290   1.892
86661SOL    HW261817   5.859   7.351   2.023
86662SOL     OW61818   6.104  10.774   5.833
86662SOL    HW161819   6.051  10.847   5.804
86662SOL    HW261820   6.142  10.803   5.916
86663SOL     OW61821  13.467  12.888   2.803
86663SOL    HW161822  13.500  12.972   2.835
86663SOL    HW261823  13.514  12.874   2.721
86664SOL     OW61824   2.701  13.558  10.600
86664SOL    HW161825   2.757  13.635  10.607
86664SOL    HW261826   2.621  13.591  10.558
86665SOL     OW61827  12.996  11.884   0.743
86665SOL    HW161828  13.006  11.789   0.753
86665SOL    HW261829  12.979  11.897   0.650
86666SOL     OW61830   5.963   0.669   1.437
86666SOL    HW161831   5.983   0.629   1.353
86666SOL    HW261832   5.982   0.762   1.425
86667SOL     OW61833  11.224   0.186   4.574
86667SOL    HW161834  11.249   0.187   4.667
86667SOL    HW261835  11.303   0.214   4.528
86668SOL     OW61836   2.753   2.565   6.279
86668SOL    HW161837   2.785   2.512   6.352
86668SOL    HW261838   2.657   2.558   6.284
86669SOL     OW61839  13.614  13.804  12.150
86669SOL    HW161840  13.594  13.711  12.135
86669SOL    HW261841  13.638  13.837  12.063
86670SOL     OW61842  12.328   8.793   2.421
86670SOL    HW161843  12.318   8.707   2.380
86670SOL    HW261844  12.386   8.778   2.495
86671SOL     OW61845   6.296   3.033   7.791
86671SOL    HW161846   6.339   3.032   7.876
86671SOL    HW261847   6.343   2.968   7.739
86672SOL     OW61848   3.634   0.051  10.445
86672SOL    HW161849   3.610  14.871  10.373
86672SOL    HW261850   3.719   0.087  10.419
86673SOL     OW61851   7.893   0.738   8.005
86673SOL    HW161852   7.972   0.690   7.980
86673SOL    HW261853   7.908   0.764   8.096
86674SOL     OW61854   4.326   8.212  12.747
86674SOL    HW161855   4.296   8.266  12.821
86674SOL    HW261856   4.246   8.191  12.699
86675SOL     OW61857   5.568   5.989  10.331
86675SOL    HW161858   5.556   5.973  10.237
86675SOL    HW261859   5.486   5.962  10.371
86676SOL     OW61860  14.602   8.560   5.084
86676SOL    HW161861  14.664   8.633   5.082
86676SOL    HW261862  14.581   8.549   5.176
86677SOL     OW61863  10.369   3.964   7.903
86677SOL    HW161864  10.376   4.033   7.967
86677SOL    HW261865  10.424   3.993   7.830
86678SOL     OW61866  10.446   4.154  14.122
86678SOL    HW161867  10.517   4.144  14.059
86678SOL    HW261868  10.375   4.195  14.072
86679SOL     OW61869  13.897   8.833   5.450
86679SOL    HW161870  13.814   8.843   5.496
86679SOL    HW261871  13.964   8.849   5.517
86680SOL     OW61872  10.944   1.009   8.506
86680SOL    HW161873  10.932   1.104   8.501
86680SOL    HW261874  11.036   0.998   8.531
86681SOL     OW61875   7.255   6.247   6.002
86681SOL    HW161876   7.324   6.271   6.064
86681SOL    HW261877   7.228   6.330   5.963
86682SOL     OW61878  14.576   4.145  12.768
86682SOL    HW161879  14.494   4.134  12.719
86682SOL    HW261880  14.605   4.055  12.784
86683SOL     OW61881  10.469   4.764  10.729
86683SOL    HW161882  10.519   4.788  10.652
86683SOL    HW261883  10.438   4.675  10.712
86684SOL     OW61884   7.584   4.665   0.690
86684SOL    HW161885   7.677   4.671   0.672
86684SOL    HW261886   7.578   4.598   0.759
86685SOL     OW61887   2.089   4.896   2.164
86685SOL    HW161888   2.022   4.881   2.097
86685SOL    HW261889   2.047   4.956   2.226
86686SOL     OW61890   6.886   4.670   2.785
86686SOL    HW161891   6.954   4.720   2.740
86686SOL    HW261892   6.811   4.673   2.727
86687SOL     OW61893   4.937   9.966   2.320
86687SOL    HW161894   4.954   9.959   2.414
86687SOL    HW261895   4.949  10.058   2.299
86688SOL     OW61896   5.849  11.488  12.586
86688SOL    HW161897   5.811  11.545  12.519
86688SOL    HW261898   5.833  11.534  12.668
86689SOL     OW61899  12.486   6.112   3.474
86689SOL    HW161900  12.418   6.123   3.541
86689SOL    HW261901  12.556   6.172   3.501
86690SOL     OW61902  10.001  10.974   4.342
86690SOL    HW161903  10.081  11.025   4.327
86690SOL    HW261904   9.987  10.978   4.437
86691SOL     OW61905  12.358  11.295  12.802
86691SOL    HW161906  12.309  11.363  12.756
86691SOL    HW261907  12.353  11.219  12.744
86692SOL     OW61908   1.114  12.672  13.913
86692SOL    HW161909   1.162  12.733  13.858
86692SOL    HW261910   1.055  12.625  13.853
86693SOL     OW61911  10.936   1.723   3.561
86693SOL    HW161912  11.003   1.718   3.629
86693SOL    HW261913  10.863   1.770   3.602
86694SOL     OW61914   1.614  11.346   1.926
86694SOL    HW161915   1.637  11.377   2.014
86694SOL    HW261916   1.665  11.402   1.867
86695SOL     OW61917   2.384  14.142   4.088
86695SOL    HW161918   2.298  14.150   4.048
86695SOL    HW261919   2.435  14.091   4.025
86696SOL     OW61920   9.976  10.996  11.400
86696SOL    HW161921   9.986  10.909  11.440
86696SOL    HW261922  10.042  11.050  11.444
86697SOL     OW61923   7.318  10.280   8.433
86697SOL    HW161924   7.268  10.208   8.471
86697SOL    HW261925   7.360  10.241   8.356
86698SOL     OW61926   9.150   1.565  13.597
86698SOL    HW161927   9.087   1.525  13.538
86698SOL    HW261928   9.163   1.500  13.666
86699SOL     OW61929   3.631  10.211   2.459
86699SOL    HW161930   3.575  10.222   2.381
86699SOL    HW261931   3.574  10.166   2.522
86700SOL     OW61932   4.371   5.187   2.675
86700SOL    HW161933   4.376   5.234   2.758
86700SOL    HW261934   4.359   5.256   2.609
86701SOL     OW61935  11.929   2.104   3.286
86701SOL    HW161936  11.861   2.087   3.352
86701SOL    HW261937  11.909   2.043   3.215
86702SOL     OW61938   2.127  14.661   1.631
86702SOL    HW161939   2.109  14.568   1.627
86702SOL    HW261940   2.158  14.683   1.543
86703SOL     OW61941   9.826  13.840   1.045
86703SOL    HW161942   9.884  13.874   1.113
86703SOL    HW261943   9.773  13.915   1.018
86704SOL     OW61944  14.860   5.527   2.055
86704SOL    HW161945  14.847   5.477   2.135
86704SOL    HW261946   0.072   5.512   2.032
86705SOL     OW61947   8.716   4.458  12.513
86705SOL    HW161948   8.656   4.386  12.532
86705SOL    HW261949   8.755   4.480  12.598
86706SOL     OW61950  14.841  10.906   3.301
86706SOL    HW161951  14.806  10.817   3.310
86706SOL    HW261952  14.766  10.963   3.317
86707SOL     OW61953  13.084   3.419   8.042
86707SOL    HW161954  13.078   3.439   8.135
86707SOL    HW261955  13.143   3.344   8.038
86708SOL     OW61956   2.222   1.226   1.563
86708SOL    HW161957   2.196   1.318   1.556
86708SOL    HW261958   2.148   1.184   1.606
86709SOL     OW61959   2.519  11.758   8.164
86709SOL    HW161960   2.500  11.738   8.256
86709SOL    HW261961   2.595  11.816   8.167
86710SOL     OW61962  10.816  13.822   7.566
86710SOL    HW161963  10.877  13.885   7.604
86710SOL    HW261964  10.730  13.862   7.575
86711SOL     OW61965   4.456  13.456  10.865
86711SOL    HW161966   4.509  13.535  10.878
86711SOL    HW261967   4.367  13.483  10.888
86712SOL     OW61968   3.797   6.805  11.708
86712SOL    HW161969   3.860   6.758  11.763
86712SOL    HW261970   3.825   6.786  11.618
86713SOL     OW61971   3.532   5.158  14.527
86713SOL    HW161972   3.451   5.210  14.527
86713SOL    HW261973   3.556   5.152  14.619
86714SOL     OW61974   3.078  14.234   1.010
86714SOL    HW161975   3.144  14.200   1.070
86714SOL    HW261976   3.012  14.165   1.005
86715SOL     OW61977   2.713  10.664   5.096
86715SOL    HW161978   2.643  10.689   5.035
86715SOL    HW261979   2.732  10.745   5.145
86716SOL     OW61980   4.563  12.073   2.536
86716SOL    HW161981   4.630  12.010   2.509
86716SOL    HW261982   4.592  12.103   2.622
86717SOL     OW61983  11.567  12.237  13.347
86717SOL    HW161984  11.637  12.173  13.336
86717SOL    HW261985  11.514  12.228  13.268
86718SOL     OW61986   9.616   3.247   8.264
86718SOL    HW161987   9.693   3.238   8.207
86718SOL    HW261988   9.604   3.341   8.275
86719SOL     OW61989  13.651   9.970  12.807
86719SOL    HW161990  13.623  10.042  12.751
86719SOL    HW261991  13.583   9.964  12.874
86720SOL     OW61992   1.981   1.021   8.452
86720SOL    HW161993   2.073   1.045   8.440
86720SOL    HW261994   1.967   0.950   8.391
86721SOL     OW61995  13.701   7.175   3.429
86721SOL    HW161996  13.662   7.248   3.476
86721SOL    HW261997  13.658   7.098   3.465
86722SOL     OW61998   0.639  14.568   6.875
86722SOL    HW161999   0.714  14.613   6.835
86722SOL    HW262000   0.604  14.631   6.938
86723SOL     OW62001   3.456  10.737   0.459
86723SOL    HW162002   3.454  10.831   0.440
86723SOL    HW262003   3.372  10.704   0.425
86724SOL     OW62004  13.191   7.659   0.354
86724SOL    HW162005  13.202   7.589   0.419
86724SOL    HW262006  13.273   7.658   0.304
86725SOL     OW62007  13.449  10.824   8.224
86725SOL    HW162008  13.395  10.870   8.288
86725SOL    HW262009  13.386  10.772   8.174
86726SOL     OW62010  14.007   1.661  10.021
86726SOL    HW162011  13.972   1.574  10.042
86726SOL    HW262012  13.931   1.711   9.992
86727SOL     OW62013  12.103  10.520   2.821
86727SOL    HW162014  12.031  10.477   2.774
86727SOL    HW262015  12.177  10.517   2.761
86728SOL     OW62016   6.332  10.567   6.772
86728SOL    HW162017   6.345  10.586   6.864
86728SOL    HW262018   6.247  10.607   6.751
86729SOL     OW62019   4.079  11.744   4.776
86729SOL    HW162020   4.164  11.775   4.745
86729SOL    HW262021   4.100  11.679   4.843
86730SOL     OW62022   6.043   2.537   5.860
86730SOL    HW162023   6.108   2.538   5.929
86730SOL    HW262024   6.002   2.623   5.864
86731SOL     OW62025   4.486  14.473   3.552
86731SOL    HW162026   4.493  14.379   3.567
86731SOL    HW262027   4.550  14.512   3.611
86732SOL     OW62028  11.788  13.438   7.472
86732SOL    HW162029  11.739  13.377   7.416
86732SOL    HW262030  11.730  13.455   7.546
86733SOL     OW62031   3.181  14.263  13.687
86733SOL    HW162032   3.107  14.207  13.707
86733SOL    HW262033   3.249  14.238  13.749
86734SOL     OW62034   2.253   8.518   6.651
86734SOL    HW162035   2.294   8.604   6.648
86734SOL    HW262036   2.313   8.465   6.704
86735SOL     OW62037   1.373   4.134   5.374
86735SOL    HW162038   1.405   4.045   5.362
86735SOL    HW262039   1.374   4.172   5.286
86736SOL     OW62040  14.728   2.670   3.641
86736SOL    HW162041  14.640   2.665   3.604
86736SOL    HW262042  14.715   2.679   3.735
86737SOL     OW62043  14.488  10.047  11.419
86737SOL    HW162044  14.531  10.124  11.458
86737SOL    HW262045  14.428  10.083  11.354
86738SOL     OW62046   8.655   7.360   7.994
86738SOL    HW162047   8.748   7.341   8.007
86738SOL    HW262048   8.629   7.301   7.923
86739SOL     OW62049  11.847   1.384   9.344
86739SOL    HW162050  11.801   1.461   9.310
86739SOL    HW262051  11.909   1.419   9.408
86740SOL     OW62052  11.807  12.201   2.980
86740SOL    HW162053  11.753  12.135   3.023
86740SOL    HW262054  11.774  12.205   2.890
86741SOL     OW62055   4.896  14.702  13.047
86741SOL    HW162056   4.899  14.752  12.965
86741SOL    HW262057   4.808  14.665  13.049
86742SOL     OW62058   3.947   0.904  13.112
86742SOL    HW162059   3.897   0.822  13.118
86742SOL    HW262060   3.885   0.972  13.137
86743SOL     OW62061  13.641  10.566   9.541
86743SOL    HW162062  13.684  10.639   9.497
86743SOL    HW262063  13.548  10.578   9.523
86744SOL     OW62064  13.710  12.752   0.895
86744SOL    HW162065  13.705  12.847   0.903
86744SOL    HW262066  13.710  12.735   0.801
86745SOL     OW62067  12.338   3.983  12.129
86745SOL    HW162068  12.286   3.932  12.067
86745SOL    HW262069  12.376   3.918  12.188
86746SOL     OW62070   3.029   9.524   7.622
86746SOL    HW162071   2.987   9.610   7.629
86746SOL    HW262072   3.084   9.519   7.700
86747SOL     OW62073  14.253   6.196   4.299
86747SOL    HW162074  14.251   6.287   4.328
86747SOL    HW262075  14.175   6.186   4.245
86748SOL     OW62076  13.203   4.257  13.254
86748SOL    HW162077  13.150   4.204  13.315
86748SOL    HW262078  13.294   4.236  13.278
86749SOL     OW62079  12.257   7.840   8.605
86749SOL    HW162080  12.271   7.882   8.520
86749SOL    HW262081  12.246   7.747   8.585
86750SOL     OW62082   6.977   0.475   9.686
86750SOL    HW162083   6.896   0.525   9.696
86750SOL    HW262084   6.947   0.385   9.671
86751SOL     OW62085  13.989  10.008  14.666
86751SOL    HW162086  13.940  10.054  14.734
86751SOL    HW262087  14.036   9.939  14.714
86752SOL     OW62088  14.424   1.817   1.255
86752SOL    HW162089  14.455   1.790   1.341
86752SOL    HW262090  14.455   1.749   1.195
86753SOL     OW62091   5.691  11.971  13.123
86753SOL    HW162092   5.757  11.921  13.170
86753SOL    HW262093   5.613  11.965  13.179
86754SOL     OW62094   0.726   7.193  13.349
86754SOL    HW162095   0.657   7.129  13.362
86754SOL    HW262096   0.755   7.179  13.258
86755SOL     OW62097   7.237   5.593  14.691
86755SOL    HW162098   7.192   5.676  14.703
86755SOL    HW262099   7.311   5.613  14.634
86756SOL     OW62100   3.243   1.339  11.018
86756SOL    HW162101   3.291   1.393  10.955
86756SOL    HW262102   3.304   1.268  11.041
86757SOL     OW62103   0.796   4.248  13.000
86757SOL    HW162104   0.840   4.181  13.052
86757SOL    HW262105   0.726   4.281  13.057
86758SOL     OW62106  12.897   1.582   8.348
86758SOL    HW162107  12.961   1.530   8.299
86758SOL    HW262108  12.853   1.635   8.281
86759SOL     OW62109   0.758  10.858   8.335
86759SOL    HW162110   0.692  10.791   8.318
86759SOL    HW262111   0.837  10.809   8.359
86760SOL     OW62112  11.786   0.237  10.344
86760SOL    HW162113  11.802   0.324  10.380
86760SOL    HW262114  11.861   0.185  10.375
86761SOL     OW62115  12.429   5.258   3.905
86761SOL    HW162116  12.410   5.216   3.821
86761SOL    HW262117  12.513   5.303   3.890
86762SOL     OW62118  14.804   2.964  10.275
86762SOL    HW162119  14.765   2.884  10.238
86762SOL    HW262120  14.829   3.016  10.199
86763SOL     OW62121  10.444   5.772  14.294
86763SOL    HW162122  10.512   5.786  14.360
86763SOL    HW262123  10.401   5.857  14.285
86764SOL     OW62124   9.037   9.636   8.507
86764SOL    HW162125   9.070   9.719   8.473
86764SOL    HW262126   9.099   9.570   8.475
86765SOL     OW62127   1.101  14.452   5.163
86765SOL    HW162128   1.178  14.505   5.143
86765SOL    HW262129   1.136  14.378   5.214
86766SOL     OW62130   7.151   3.296  11.846
86766SOL    HW162131   7.173   3.235  11.916
86766SOL    HW262132   7.123   3.376  11.892
86767SOL     OW62133   3.492   2.490  13.037
86767SOL    HW162134   3.416   2.436  13.058
86767SOL    HW262135   3.501   2.484  12.942
86768SOL     OW62136   0.731   5.103   3.755
86768SOL    HW162137   0.730   5.012   3.725
86768SOL    HW262138   0.645   5.137   3.731
86769SOL     OW62139   1.435  10.739  12.085
86769SOL    HW162140   1.457  10.699  12.168
86769SOL    HW262141   1.507  10.715  12.026
86770SOL     OW62142  12.296  10.973   6.046
86770SOL    HW162143  12.240  10.951   5.972
86770SOL    HW262144  12.262  11.057   6.078
86771SOL     OW62145   1.980   8.518   7.791
86771SOL    HW162146   2.016   8.602   7.819
86771SOL    HW262147   1.996   8.459   7.864
86772SOL     OW62148   9.974   0.221   9.415
86772SOL    HW162149   9.928   0.202   9.497
86772SOL    HW262150  10.011   0.137   9.388
86773SOL     OW62151  11.234   6.980   3.912
86773SOL    HW162152  11.204   6.897   3.947
86773SOL    HW262153  11.189   6.989   3.828
86774SOL     OW62154   1.602  13.477   7.362
86774SOL    HW162155   1.689  13.455   7.393
86774SOL    HW262156   1.553  13.500   7.441
86775SOL     OW62157  10.884  11.023  12.597
86775SOL    HW162158  10.943  10.994  12.527
86775SOL    HW262159  10.807  11.056  12.551
86776SOL     OW62160   4.672   7.986  10.238
86776SOL    HW162161   4.649   7.939  10.158
86776SOL    HW262162   4.734   7.928  10.283
86777SOL     OW62163   7.504   5.926  11.630
86777SOL    HW162164   7.578   5.891  11.579
86777SOL    HW262165   7.430   5.872  11.604
86778SOL     OW62166   3.045   8.114   9.967
86778SOL    HW162167   3.021   8.023   9.985
86778SOL    HW262168   3.130   8.108   9.923
86779SOL     OW62169   4.540   9.360  11.686
86779SOL    HW162170   4.611   9.344  11.624
86779SOL    HW262171   4.575   9.426  11.746
86780SOL     OW62172  11.811   1.447   7.419
86780SOL    HW162173  11.720   1.436   7.390
86780SOL    HW262174  11.855   1.487   7.344
86781SOL     OW62175  14.068   7.470  10.223
86781SOL    HW162176  14.016   7.427  10.155
86781SOL    HW262177  14.010   7.474  10.299
86782SOL     OW62178   7.787   8.314   0.907
86782SOL    HW162179   7.852   8.339   0.972
86782SOL    HW262180   7.815   8.227   0.878
86783SOL     OW62181   0.741  13.293   5.256
86783SOL    HW162182   0.780  13.354   5.320
86783SOL    HW262183   0.727  13.212   5.306
86784SOL     OW62184  12.069   0.439   9.615
86784SOL    HW162185  12.114   0.416   9.697
86784SOL    HW262186  12.133   0.419   9.547
86785SOL     OW62187  12.495  11.971   5.599
86785SOL    HW162188  12.561  12.038   5.585
86785SOL    HW262189  12.502  11.914   5.523
86786SOL     OW62190   6.083   2.970  14.720
86786SOL    HW162191   6.056   2.946  14.809
86786SOL    HW262192   6.165   3.018  14.731
86787SOL     OW62193   9.662   1.393   6.726
86787SOL    HW162194   9.738   1.335   6.737
86787SOL    HW262195   9.700   1.479   6.707
86788SOL     OW62196  11.069   2.131   8.817
86788SOL    HW162197  11.064   2.154   8.724
86788SOL    HW262198  11.020   2.199   8.862
86789SOL     OW62199   8.745   5.234  11.521
86789SOL    HW162200   8.746   5.325  11.551
86789SOL    HW262201   8.837   5.207  11.522
86790SOL     OW62202   3.712   1.900   7.531
86790SOL    HW162203   3.624   1.893   7.566
86790SOL    HW262204   3.712   1.981   7.479
86791SOL     OW62205   7.093   1.097   4.289
86791SOL    HW162206   7.033   1.027   4.314
86791SOL    HW262207   7.058   1.175   4.331
86792SOL     OW62208   2.836   8.364   7.336
86792SOL    HW162209   2.748   8.333   7.315
86792SOL    HW262210   2.825   8.458   7.351
86793SOL     OW62211   1.908   7.925  10.582
86793SOL    HW162212   1.834   7.929  10.643
86793SOL    HW262213   1.894   7.844  10.533
86794SOL     OW62214   5.442   0.438   4.708
86794SOL    HW162215   5.534   0.438   4.735
86794SOL    HW262216   5.441   0.496   4.631
86795SOL     OW62217   7.940   5.088  13.670
86795SOL    HW162218   7.993   5.026  13.720
86795SOL    HW262219   7.973   5.174  13.696
86796SOL     OW62220   2.059   6.187   3.308
86796SOL    HW162221   2.004   6.230   3.242
86796SOL    HW262222   2.122   6.255   3.334
86797SOL     OW62223   3.722   2.469   8.656
86797SOL    HW162224   3.751   2.406   8.590
86797SOL    HW262225   3.749   2.430   8.739
86798SOL     OW62226   4.249  14.726   1.329
86798SOL    HW162227   4.185  14.781   1.373
86798SOL    HW262228   4.255  14.761   1.240
86799SOL     OW62229   2.736   5.195  12.317
86799SOL    HW162230   2.817   5.208  12.366
86799SOL    HW262231   2.695   5.120  12.359
86800SOL     OW62232   2.313   8.993   7.440
86800SOL    HW162233   2.326   8.898   7.440
86800SOL    HW262234   2.307   9.015   7.347
86801SOL     OW62235  14.414   1.996  14.140
86801SOL    HW162236  14.493   1.970  14.094
86801SOL    HW262237  14.435   2.082  14.176
86802SOL     OW62238  13.556   6.925   7.760
86802SOL    HW162239  13.583   7.014   7.782
86802SOL    HW262240  13.633   6.886   7.720
86803SOL     OW62241  12.274  12.033   2.780
86803SOL    HW162242  12.343  12.088   2.817
86803SOL    HW262243  12.225  12.001   2.856
86804SOL     OW62244   9.577  13.836   9.618
86804SOL    HW162245   9.503  13.896   9.624
86804SOL    HW262246   9.594  13.810   9.709
86805SOL     OW62247  14.092   7.095   7.576
86805SOL    HW162248  14.137   7.039   7.640
86805SOL    HW262249  14.036   7.034   7.527
86806SOL     OW62250   1.240  11.532   9.036
86806SOL    HW162251   1.203  11.504   8.953
86806SOL    HW262252   1.288  11.455   9.068
86807SOL     OW62253  10.988   4.161  14.659
86807SOL    HW162254  10.957   4.178  14.748
86807SOL    HW262255  11.054   4.092  14.670
86808SOL     OW62256  10.729   2.559   7.427
86808SOL    HW162257  10.643   2.578   7.464
86808SOL    HW262258  10.755   2.477   7.470
86809SOL     OW62259  11.786   7.560   7.915
86809SOL    HW162260  11.697   7.526   7.922
86809SOL    HW262261  11.835   7.493   7.867
86810SOL     OW62262   5.999   8.655  13.904
86810SOL    HW162263   5.930   8.673  13.969
86810SOL    HW262264   6.023   8.741  13.870
86811SOL     OW62265   8.965   7.500  11.577
86811SOL    HW162266   9.035   7.452  11.620
86811SOL    HW262267   8.886   7.450  11.597
86812SOL     OW62268   0.286   9.595  13.648
86812SOL    HW162269   0.309   9.512  13.689
86812SOL    HW262270   0.191   9.602  13.658
86813SOL     OW62271  12.261  10.052   9.871
86813SOL    HW162272  12.167  10.066   9.887
86813SOL    HW262273  12.274  10.080   9.781
86814SOL     OW62274   7.418  12.290  10.718
86814SOL    HW162275   7.353  12.246  10.773
86814SOL    HW262276   7.438  12.371  10.766
86815SOL     OW62277   5.049   3.061   9.049
86815SOL    HW162278   5.004   3.012   8.980
86815SOL    HW262279   5.094   3.132   9.003
86816SOL     OW62280  10.081   1.375   5.439
86816SOL    HW162281  10.054   1.423   5.518
86816SOL    HW262282  10.176   1.385   5.437
86817SOL     OW62283   4.999   6.101   5.843
86817SOL    HW162284   4.948   6.139   5.771
86817SOL    HW262285   4.978   6.156   5.919
86818SOL     OW62286   4.674   6.981  13.185
86818SOL    HW162287   4.700   7.035  13.110
86818SOL    HW262288   4.709   7.027  13.261
86819SOL     OW62289   1.061   6.628   2.292
86819SOL    HW162290   1.120   6.681   2.238
86819SOL    HW262291   1.111   6.548   2.310
86820SOL     OW62292   3.990  13.268   2.749
86820SOL    HW162293   4.034  13.268   2.834
86820SOL    HW262294   3.983  13.360   2.725
86821SOL     OW62295   3.815   2.362   8.876
86821SOL    HW162296   3.758   2.386   8.949
86821SOL    HW262297   3.821   2.267   8.881
86822SOL     OW62298   7.983   2.591  10.264
86822SOL    HW162299   8.054   2.656  10.260
86822SOL    HW262300   8.020   2.514  10.222
86823SOL     OW62301   1.030   9.839  13.022
86823SOL    HW162302   0.946   9.799  13.001
86823SOL    HW262303   1.088   9.766  13.041
86824SOL     OW62304   7.081  12.636   1.945
86824SOL    HW162305   7.089  12.687   2.025
86824SOL    HW262306   7.146  12.566   1.955
86825SOL     OW62307   2.201  11.710   9.232
86825SOL    HW162308   2.165  11.757   9.307
86825SOL    HW262309   2.294  11.700   9.253
86826SOL     OW62310   7.061   0.899   7.278
86826SOL    HW162311   7.002   0.971   7.301
86826SOL    HW262312   7.106   0.929   7.198
86827SOL     OW62313   9.434   3.933   1.518
86827SOL    HW162314   9.488   4.010   1.500
86827SOL    HW262315   9.345   3.962   1.501
86828SOL     OW62316   2.832   2.464   3.065
86828SOL    HW162317   2.926   2.449   3.073
86828SOL    HW262318   2.813   2.535   3.127
86829SOL     OW62319   5.504  12.856   6.392
86829SOL    HW162320   5.492  12.840   6.299
86829SOL    HW262321   5.487  12.770   6.433
86830SOL     OW62322   0.966   9.312   4.092
86830SOL    HW162323   0.908   9.264   4.033
86830SOL    HW262324   1.051   9.309   4.049
86831SOL     OW62325   5.754   8.355  10.768
86831SOL    HW162326   5.674   8.369  10.818
86831SOL    HW262327   5.825   8.380  10.828
86832SOL     OW62328   7.657   1.680  10.197
86832SOL    HW162329   7.594   1.639  10.137
86832SOL    HW262330   7.742   1.646  10.168
86833SOL     OW62331   1.768   1.819   0.711
86833SOL    HW162332   1.770   1.871   0.630
86833SOL    HW262333   1.684   1.841   0.752
86834SOL     OW62334   6.469  10.139   3.480
86834SOL    HW162335   6.477  10.079   3.406
86834SOL    HW262336   6.518  10.216   3.453
86835SOL     OW62337   0.793   1.407   7.864
86835SOL    HW162338   0.750   1.325   7.887
86835SOL    HW262339   0.793   1.408   7.768
86836SOL     OW62340   3.665   2.157   5.213
86836SOL    HW162341   3.589   2.100   5.223
86836SOL    HW262342   3.651   2.227   5.276
86837SOL     OW62343   1.763   0.410   2.674
86837SOL    HW162344   1.747   0.424   2.580
86837SOL    HW262345   1.816   0.486   2.700
86838SOL     OW62346  11.356  13.913   1.303
86838SOL    HW162347  11.424  13.845   1.308
86838SOL    HW262348  11.403  13.995   1.318
86839SOL     OW62349  10.556   9.809   2.014
86839SOL    HW162350  10.562   9.903   2.000
86839SOL    HW262351  10.524   9.774   1.931
86840SOL     OW62352   1.406  12.598   9.815
86840SOL    HW162353   1.424  12.662   9.746
86840SOL    HW262354   1.326  12.553   9.785
86841SOL     OW62355   8.482   5.065  13.937
86841SOL    HW162356   8.565   5.098  13.903
86841SOL    HW262357   8.502   4.976  13.964
86842SOL     OW62358   1.206   6.057   4.381
86842SOL    HW162359   1.209   6.122   4.311
86842SOL    HW262360   1.265   5.987   4.353
86843SOL     OW62361   2.574   2.604  11.945
86843SOL    HW162362   2.634   2.647  11.885
86843SOL    HW262363   2.616   2.611  12.030
86844SOL     OW62364   5.124   3.742   2.530
86844SOL    HW162365   5.105   3.691   2.609
86844SOL    HW262366   5.217   3.762   2.536
86845SOL     OW62367  13.067   0.341   8.960
86845SOL    HW162368  12.975   0.325   8.939
86845SOL    HW262369  13.098   0.397   8.889
86846SOL     OW62370  11.710   0.649  14.573
86846SOL    HW162371  11.659   0.604  14.506
86846SOL    HW262372  11.648   0.663  14.645
86847SOL     OW62373  11.641   7.487   4.615
86847SOL    HW162374  11.717   7.442   4.577
86847SOL    HW262375  11.678   7.548   4.678
86848SOL     OW62376  14.128   3.273  11.562
86848SOL    HW162377  14.131   3.361  11.598
86848SOL    HW262378  14.185   3.222  11.620
86849SOL     OW62379   7.876   3.794   9.498
86849SOL    HW162380   7.807   3.860   9.506
86849SOL    HW262381   7.941   3.834   9.440
86850SOL     OW62382   5.763  12.793   5.886
86850SOL    HW162383   5.833  12.728   5.889
86850SOL    HW262384   5.805  12.874   5.914
86851SOL     OW62385   4.366  10.486   5.743
86851SOL    HW162386   4.452  10.477   5.702
86851SOL    HW262387   4.366  10.422   5.815
86852SOL     OW62388   3.435   7.906  10.782
86852SOL    HW162389   3.493   7.981  10.769
86852SOL    HW262390   3.493   7.833  10.802
86853SOL     OW62391   4.572  13.918   2.828
86853SOL    HW162392   4.600  13.827   2.817
86853SOL    HW262393   4.555  13.949   2.739
86854SOL     OW62394  13.690   7.872  11.684
86854SOL    HW162395  13.647   7.817  11.749
86854SOL    HW262396  13.752   7.814  11.640
86855SOL     OW62397   9.601   1.000  14.230
86855SOL    HW162398   9.686   1.033  14.201
86855SOL    HW262399   9.614   0.905  14.235
86856SOL     OW62400   7.087  12.190  10.182
86856SOL    HW162401   7.106  12.096  10.178
86856SOL    HW262402   7.149  12.225  10.246
86857SOL     OW62403   3.705   1.071   4.725
86857SOL    HW162404   3.728   1.155   4.687
86857SOL    HW262405   3.628   1.043   4.675
86858SOL     OW62406   2.859  12.399   1.334
86858SOL    HW162407   2.843  12.361   1.247
86858SOL    HW262408   2.853  12.325   1.394
86859SOL     OW62409   7.753   3.660   2.433
86859SOL    HW162410   7.833   3.609   2.436
86859SOL    HW262411   7.773   3.733   2.375
86860SOL     OW62412  11.942   7.299  13.779
86860SOL    HW162413  12.019   7.277  13.833
86860SOL    HW262414  11.874   7.240  13.810
86861SOL     OW62415   9.769   1.035  14.628
86861SOL    HW162416   9.771   1.031  14.724
86861SOL    HW262417   9.706   0.968  14.602
86862SOL     OW62418   3.136  11.760   7.547
86862SOL    HW162419   3.096  11.791   7.629
86862SOL    HW262420   3.098  11.674   7.534
86863SOL     OW62421   6.312  14.870   6.901
86863SOL    HW162422   6.224   0.027   6.894
86863SOL    HW262423   6.351   0.037   6.975
86864SOL     OW62424   5.745   7.254   3.318
86864SOL    HW162425   5.820   7.220   3.269
86864SOL    HW262426   5.676   7.265   3.252
86865SOL     OW62427  13.999  13.684  10.890
86865SOL    HW162428  13.954  13.768  10.901
86865SOL    HW262429  13.959  13.645  10.813
86866SOL     OW62430   0.252   5.227   3.810
86866SOL    HW162431   0.204   5.209   3.729
86866SOL    HW262432   0.186   5.218   3.879
86867SOL     OW62433  11.863   7.912  12.214
86867SOL    HW162434  11.842   7.887  12.124
86867SOL    HW262435  11.884   8.005  12.209
86868SOL     OW62436  13.069   7.242   8.261
86868SOL    HW162437  13.016   7.165   8.286
86868SOL    HW262438  13.143   7.205   8.213
86869SOL     OW62439  12.123   7.090  11.472
86869SOL    HW162440  12.205   7.128  11.503
86869SOL    HW262441  12.110   7.129  11.386
86870SOL     OW62442  13.318  11.943  12.757
86870SOL    HW162443  13.236  11.894  12.767
86870SOL    HW262444  13.330  11.951  12.663
86871SOL     OW62445  11.193   8.671  10.719
86871SOL    HW162446  11.238   8.678  10.635
86871SOL    HW262447  11.246   8.610  10.770
86872SOL     OW62448   5.911  12.132   1.291
86872SOL    HW162449   5.883  12.045   1.261
86872SOL    HW262450   5.846  12.156   1.357
86873SOL     OW62451   8.819  13.868  13.498
86873SOL    HW162452   8.739  13.911  13.467
86873SOL    HW262453   8.838  13.803  13.430
86874SOL     OW62454   4.724   2.823   1.974
86874SOL    HW162455   4.745   2.740   1.931
86874SOL    HW262456   4.798   2.838   2.033
86875SOL     OW62457   5.452   1.863   7.267
86875SOL    HW162458   5.427   1.826   7.351
86875SOL    HW262459   5.547   1.873   7.272
86876SOL     OW62460   6.644  11.652   4.251
86876SOL    HW162461   6.624  11.724   4.192
86876SOL    HW262462   6.711  11.601   4.205
86877SOL     OW62463   1.085   3.348   1.442
86877SOL    HW162464   1.152   3.384   1.385
86877SOL    HW262465   1.117   3.366   1.531
86878SOL     OW62466   9.088   5.038   8.706
86878SOL    HW162467   9.024   5.031   8.777
86878SOL    HW262468   9.117   5.129   8.710
86879SOL     OW62469   9.070  12.717   7.744
86879SOL    HW162470   9.035  12.707   7.655
86879SOL    HW262471   9.018  12.657   7.797
86880SOL     OW62472  12.760   9.867   2.095
86880SOL    HW162473  12.727   9.781   2.068
86880SOL    HW262474  12.847   9.848   2.132
86881SOL     OW62475   0.063   9.651  14.494
86881SOL    HW162476   0.009   9.715  14.447
86881SOL    HW262477   0.019   9.640  14.578
86882SOL     OW62478   9.350  12.871   9.395
86882SOL    HW162479   9.289  12.814   9.347
86882SOL    HW262480   9.420  12.889   9.332
86883SOL     OW62481   5.991   1.503   4.031
86883SOL    HW162482   6.009   1.534   3.942
86883SOL    HW262483   5.969   1.411   4.021
86884SOL     OW62484   3.067   4.156   3.345
86884SOL    HW162485   3.115   4.115   3.418
86884SOL    HW262486   3.088   4.102   3.269
86885SOL     OW62487  14.644   4.737   5.388
86885SOL    HW162488  14.689   4.787   5.457
86885SOL    HW262489  14.678   4.648   5.397
86886SOL     OW62490   3.521  13.244   2.457
86886SOL    HW162491   3.489  13.208   2.374
86886SOL    HW262492   3.443  13.252   2.511
86887SOL     OW62493  12.844   1.641  11.739
86887SOL    HW162494  12.798   1.644  11.656
86887SOL    HW262495  12.860   1.548  11.755
86888SOL     OW62496   1.094   8.381   8.618
86888SOL    HW162497   1.156   8.448   8.649
86888SOL    HW262498   1.047   8.424   8.546
86889SOL     OW62499  14.534  12.364   7.508
86889SOL    HW162500  14.627  12.372   7.530
86889SOL    HW262501  14.513  12.273   7.525
86890SOL     OW62502  12.028   8.778   9.067
86890SOL    HW162503  12.041   8.782   9.162
86890SOL    HW262504  12.076   8.700   9.040
86891SOL     OW62505  10.811  14.477   2.555
86891SOL    HW162506  10.831  14.408   2.491
86891SOL    HW262507  10.894  14.492   2.600
86892SOL     OW62508  10.688   5.168  11.605
86892SOL    HW162509  10.669   5.246  11.658
86892SOL    HW262510  10.724   5.202  11.523
86893SOL     OW62511  12.803  12.669   6.030
86893SOL    HW162512  12.896  12.666   6.008
86893SOL    HW262513  12.784  12.581   6.062
86894SOL     OW62514   8.775   9.436   2.823
86894SOL    HW162515   8.842   9.468   2.763
86894SOL    HW262516   8.705   9.404   2.765
86895SOL     OW62517   6.950  13.506   0.247
86895SOL    HW162518   6.939  13.539   0.337
86895SOL    HW262519   6.983  13.417   0.258
86896SOL     OW62520   9.994   8.283   2.655
86896SOL    HW162521  10.088   8.304   2.654
86896SOL    HW262522   9.952   8.363   2.684
86897SOL     OW62523   5.172   0.772   7.393
86897SOL    HW162524   5.178   0.852   7.445
86897SOL    HW262525   5.186   0.701   7.456
86898SOL     OW62526   9.810   8.244  14.267
86898SOL    HW162527   9.735   8.211  14.217
86898SOL    HW262528   9.872   8.172  14.269
86899SOL     OW62529   6.906   0.007   8.298
86899SOL    HW162530   6.831  14.842   8.259
86899SOL    HW262531   6.876   0.030   8.386
86900SOL     OW62532   2.135  14.566   2.635
86900SOL    HW162533   2.093  14.652   2.637
86900SOL    HW262534   2.207  14.573   2.697
86901SOL     OW62535   9.863   1.559  11.312
86901SOL    HW162536   9.884   1.468  11.334
86901SOL    HW262537   9.776   1.572  11.349
86902SOL     OW62538   4.850   6.349  13.532
86902SOL    HW162539   4.867   6.411  13.460
86902SOL    HW262540   4.937   6.319  13.558
86903SOL     OW62541  13.350   2.411  10.817
86903SOL    HW162542  13.408   2.476  10.856
86903SOL    HW262543  13.409   2.351  10.770
86904SOL     OW62544  11.605   3.938   7.184
86904SOL    HW162545  11.564   3.940   7.098
86904SOL    HW262546  11.667   3.866   7.179
86905SOL     OW62547  10.973  14.333   5.476
86905SOL    HW162548  11.018  14.398   5.420
86905SOL    HW262549  11.017  14.250   5.456
86906SOL     OW62550   8.244  14.810   5.426
86906SOL    HW162551   8.208   0.013   5.459
86906SOL    HW262552   8.273  14.831   5.337
86907SOL     OW62553   7.449   0.428   4.297
86907SOL    HW162554   7.526   0.393   4.252
86907SOL    HW262555   7.457   0.523   4.287
86908SOL     OW62556   5.545  12.636  14.515
86908SOL    HW162557   5.521  12.592  14.596
86908SOL    HW262558   5.482  12.708  14.507
86909SOL     OW62559   3.814   1.458  10.927
86909SOL    HW162560   3.885   1.522  10.933
86909SOL    HW262561   3.750   1.488  10.992
86910SOL     OW62562   7.923  10.447   7.683
86910SOL    HW162563   7.896  10.357   7.703
86910SOL    HW262564   8.018  10.446   7.690
86911SOL     OW62565   1.839   2.569   3.478
86911SOL    HW162566   1.859   2.654   3.516
86911SOL    HW262567   1.909   2.555   3.413
86912SOL     OW62568  10.296   4.999  12.955
86912SOL    HW162569  10.283   5.094  12.959
86912SOL    HW262570  10.269   4.968  13.042
86913SOL     OW62571   2.872  11.155   3.054
86913SOL    HW162572   2.801  11.207   3.091
86913SOL    HW262573   2.952  11.199   3.083
86914SOL     OW62574   6.828   1.747  11.356
86914SOL    HW162575   6.804   1.666  11.401
86914SOL    HW262576   6.923   1.743  11.349
86915SOL     OW62577   4.902   5.921   8.268
86915SOL    HW162578   4.893   5.844   8.324
86915SOL    HW262579   4.973   5.899   8.208
86916SOL     OW62580   8.171  14.635   8.253
86916SOL    HW162581   8.138  14.549   8.281
86916SOL    HW262582   8.093  14.685   8.232
86917SOL     OW62583  14.312  13.994   6.079
86917SOL    HW162584  14.274  14.007   6.165
86917SOL    HW262585  14.266  14.055   6.022
86918SOL     OW62586  10.048  10.626   7.729
86918SOL    HW162587  10.108  10.555   7.750
86918SOL    HW262588  10.032  10.618   7.635
86919SOL     OW62589  10.148   5.071  14.318
86919SOL    HW162590  10.106   5.134  14.376
86919SOL    HW262591  10.161   4.993  14.371
86920SOL     OW62592   5.961   3.946   9.554
86920SOL    HW162593   5.953   3.852   9.538
86920SOL    HW262594   5.936   3.987   9.470
86921SOL     OW62595   5.063  11.168   6.429
86921SOL    HW162596   5.034  11.081   6.457
86921SOL    HW262597   5.159  11.165   6.440
86922SOL     OW62598  12.962   9.342   8.879
86922SOL    HW162599  12.953   9.301   8.965
86922SOL    HW262600  12.885   9.314   8.831
86923SOL     OW62601  11.968  10.068   8.237
86923SOL    HW162602  11.904  10.103   8.299
86923SOL    HW262603  12.053  10.084   8.278
86924SOL     OW62604   7.219   8.241   8.546
86924SOL    HW162605   7.186   8.164   8.591
86924SOL    HW262606   7.222   8.215   8.453
86925SOL     OW62607  11.475  14.328   2.853
86925SOL    HW162608  11.393  14.294   2.890
86925SOL    HW262609  11.519  14.252   2.817
86926SOL     OW62610  11.139   5.966   4.944
86926SOL    HW162611  11.175   6.042   4.989
86926SOL    HW262612  11.045   5.981   4.944
86927SOL     OW62613  10.795   6.523  14.865
86927SOL    HW162614  10.884   6.554  14.848
86927SOL    HW262615  10.739   6.596  14.842
86928SOL     OW62616   4.481  13.785   6.266
86928SOL    HW162617   4.448  13.778   6.176
86928SOL    HW262618   4.413  13.835   6.312
86929SOL     OW62619   8.185  13.985  10.684
86929SOL    HW162620   8.233  14.016  10.607
86929SOL    HW262621   8.179  14.061  10.742
86930SOL     OW62622  10.191  12.716   6.895
86930SOL    HW162623  10.098  12.738   6.903
86930SOL    HW262624  10.212  12.674   6.978
86931SOL     OW62625   3.565   2.150   7.938
86931SOL    HW162626   3.650   2.108   7.927
86931SOL    HW262627   3.577   2.238   7.902
86932SOL     OW62628   0.414   4.614   8.307
86932SOL    HW162629   0.395   4.690   8.362
86932SOL    HW262630   0.429   4.651   8.220
86933SOL     OW62631   9.966  14.487   7.625
86933SOL    HW162632   9.978  14.544   7.700
86933SOL    HW262633  10.028  14.415   7.638
86934SOL     OW62634   3.127  14.827   8.595
86934SOL    HW162635   3.113  14.761   8.528
86934SOL    HW262636   3.198  14.792   8.649
86935SOL     OW62637   5.744   6.557   8.535
86935SOL    HW162638   5.749   6.462   8.548
86935SOL    HW262639   5.680   6.587   8.600
86936SOL     OW62640   1.796  11.582   3.545
86936SOL    HW162641   1.820  11.523   3.474
86936SOL    HW262642   1.754  11.526   3.610
86937SOL     OW62643   4.647  11.277  13.717
86937SOL    HW162644   4.664  11.228  13.797
86937SOL    HW262645   4.648  11.369  13.744
86938SOL     OW62646   9.205   6.939   4.932
86938SOL    HW162647   9.138   6.989   4.979
86938SOL    HW262648   9.178   6.847   4.943
86939SOL     OW62649  10.817  14.435  14.496
86939SOL    HW162650  10.893  14.421  14.553
86939SOL    HW262651  10.848  14.498  14.431
86940SOL     OW62652   2.092   7.376   0.578
86940SOL    HW162653   2.024   7.430   0.536
86940SOL    HW262654   2.108   7.306   0.515
86941SOL     OW62655   5.447   5.334   4.098
86941SOL    HW162656   5.367   5.384   4.108
86941SOL    HW262657   5.437   5.288   4.014
86942SOL     OW62658   9.095   2.429  14.390
86942SOL    HW162659   9.036   2.500  14.365
86942SOL    HW262660   9.122   2.451  14.479
86943SOL     OW62661  10.298   0.657  13.712
86943SOL    HW162662  10.256   0.739  13.687
86943SOL    HW262663  10.231   0.590  13.695
86944SOL     OW62664   3.320   8.361  13.164
86944SOL    HW162665   3.275   8.443  13.144
86944SOL    HW262666   3.278   8.296  13.108
86945SOL     OW62667   0.791  11.660   1.859
86945SOL    HW162668   0.860  11.642   1.795
86945SOL    HW262669   0.723  11.595   1.839
86946SOL     OW62670  11.559  13.539   8.116
86946SOL    HW162671  11.535  13.446   8.126
86946SOL    HW262672  11.493  13.573   8.055
86947SOL     OW62673   6.266   9.780   4.861
86947SOL    HW162674   6.301   9.698   4.826
86947SOL    HW262675   6.221   9.754   4.941
86948SOL     OW62676   6.706  10.592   7.041
86948SOL    HW162677   6.771  10.555   7.100
86948SOL    HW262678   6.748  10.592   6.955
86949SOL     OW62679  14.757   6.337  12.226
86949SOL    HW162680  14.817   6.370  12.293
86949SOL    HW262681  14.689   6.291  12.276
86950SOL     OW62682   8.866  12.567   4.203
86950SOL    HW162683   8.940  12.616   4.167
86950SOL    HW262684   8.860  12.597   4.294
86951SOL     OW62685   7.741   2.858   3.643
86951SOL    HW162686   7.812   2.881   3.583
86951SOL    HW262687   7.694   2.941   3.657
86952SOL     OW62688   1.557   6.056   5.332
86952SOL    HW162689   1.639   6.067   5.283
86952SOL    HW262690   1.526   6.146   5.346
86953SOL     OW62691   5.239   6.031   9.970
86953SOL    HW162692   5.245   5.957   9.909
86953SOL    HW262693   5.170   6.087   9.933
86954SOL     OW62694  13.411   5.706   4.155
86954SOL    HW162695  13.476   5.688   4.224
86954SOL    HW262696  13.373   5.790   4.179
86955SOL     OW62697   2.841   9.627   8.304
86955SOL    HW162698   2.809   9.641   8.394
86955SOL    HW262699   2.860   9.534   8.299
86956SOL     OW62700  12.526  14.212   3.257
86956SOL    HW162701  12.437  14.182   3.243
86956SOL    HW262702  12.542  14.198   3.351
86957SOL     OW62703   9.990  10.363   9.165
86957SOL    HW162704  10.064  10.411   9.202
86957SOL    HW262705   9.972  10.407   9.082
86958SOL     OW62706   6.701  11.159   9.662
86958SOL    HW162707   6.777  11.113   9.697
86958SOL    HW262708   6.685  11.119   9.577
86959SOL     OW62709  14.478   9.345   6.543
86959SOL    HW162710  14.386   9.352   6.568
86959SOL    HW262711  14.509   9.267   6.589
86960SOL     OW62712  10.884   3.970  10.396
86960SOL    HW162713  10.897   3.876  10.384
86960SOL    HW262714  10.848   4.001  10.312
86961SOL     OW62715   0.618  14.564  10.130
86961SOL    HW162716   0.558  14.511  10.078
86961SOL    HW262717   0.662  14.501  10.187
86962SOL     OW62718   5.720   8.178   8.906
86962SOL    HW162719   5.771   8.256   8.885
86962SOL    HW262720   5.757   8.109   8.851
86963SOL     OW62721   2.558   2.270   5.268
86963SOL    HW162722   2.546   2.186   5.313
86963SOL    HW262723   2.643   2.262   5.224
86964SOL     OW62724  11.817   4.473  10.249
86964SOL    HW162725  11.793   4.420  10.325
86964SOL    HW262726  11.909   4.449  10.232
86965SOL     OW62727   3.932  13.327  11.912
86965SOL    HW162728   3.916  13.373  11.829
86965SOL    HW262729   3.865  13.361  11.972
86966SOL     OW62730   3.678   6.081   1.638
86966SOL    HW162731   3.677   6.027   1.717
86966SOL    HW262732   3.591   6.120   1.634
86967SOL     OW62733   0.580   9.673   4.084
86967SOL    HW162734   0.662   9.699   4.041
86967SOL    HW262735   0.559   9.587   4.048
86968SOL     OW62736   6.896   3.941   9.755
86968SOL    HW162737   6.892   3.848   9.731
86968SOL    HW262738   6.964   3.978   9.699
86969SOL     OW62739   6.329   1.987   9.011
86969SOL    HW162740   6.411   1.997   8.962
86969SOL    HW262741   6.310   2.075   9.043
86970SOL     OW62742  11.539   2.468   2.994
86970SOL    HW162743  11.529   2.486   3.088
86970SOL    HW262744  11.626   2.429   2.987
86971SOL     OW62745   5.546  10.394   6.942
86971SOL    HW162746   5.507  10.429   7.022
86971SOL    HW262747   5.640  10.409   6.952
86972SOL     OW62748  11.891   7.801   4.657
86972SOL    HW162749  11.961   7.858   4.689
86972SOL    HW262750  11.893   7.813   4.562
86973SOL     OW62751   3.672   3.794   5.920
86973SOL    HW162752   3.649   3.813   5.829
86973SOL    HW262753   3.622   3.857   5.971
86974SOL     OW62754   5.321   3.650   5.039
86974SOL    HW162755   5.292   3.717   5.102
86974SOL    HW262756   5.250   3.587   5.037
86975SOL     OW62757  13.361  10.891   8.472
86975SOL    HW162758  13.414  10.850   8.541
86975SOL    HW262759  13.282  10.838   8.469
86976SOL     OW62760   2.968  14.459   1.162
86976SOL    HW162761   3.036  14.523   1.182
86976SOL    HW262762   3.015  14.385   1.123
86977SOL     OW62763   2.014   8.456   6.289
86977SOL    HW162764   2.063   8.538   6.287
86977SOL    HW262765   2.010   8.433   6.382
86978SOL     OW62766   2.106  10.563   4.756
86978SOL    HW162767   2.069  10.651   4.746
86978SOL    HW262768   2.089  10.540   4.847
86979SOL     OW62769   4.562   2.206  11.676
86979SOL    HW162770   4.563   2.301  11.665
86979SOL    HW262771   4.653   2.183  11.693
86980SOL     OW62772   1.533   8.538  11.792
86980SOL    HW162773   1.452   8.579  11.761
86980SOL    HW262774   1.504   8.479  11.861
86981SOL     OW62775  13.673   9.070   8.189
86981SOL    HW162776  13.594   9.084   8.242
86981SOL    HW262777  13.646   9.093   8.101
86982SOL     OW62778   1.331  14.819   0.488
86982SOL    HW162779   1.345  14.756   0.559
86982SOL    HW262780   1.285  14.770   0.421
86983SOL     OW62781   6.260  10.437   0.762
86983SOL    HW162782   6.309  10.354   0.758
86983SOL    HW262783   6.184  10.417   0.816
86984SOL     OW62784  14.771  12.600   8.046
86984SOL    HW162785  14.695  12.550   8.073
86984SOL    HW262786  14.735  12.681   8.008
86985SOL     OW62787  10.646  13.545   0.941
86985SOL    HW162788  10.576  13.590   0.989
86985SOL    HW262789  10.721  13.549   1.000
86986SOL     OW62790   0.492   9.328   2.167
86986SOL    HW162791   0.549   9.381   2.112
86986SOL    HW262792   0.409   9.376   2.169
86987SOL     OW62793   7.817  14.228  10.470
86987SOL    HW162794   7.796  14.138  10.495
86987SOL    HW262795   7.733  14.268  10.450
86988SOL     OW62796  13.411   0.573   1.044
86988SOL    HW162797  13.347   0.588   1.114
86988SOL    HW262798  13.467   0.651   1.046
86989SOL     OW62799   5.358   2.210   9.393
86989SOL    HW162800   5.426   2.190   9.458
86989SOL    HW262801   5.398   2.277   9.337
86990SOL     OW62802  14.499   8.679  10.911
86990SOL    HW162803  14.494   8.757  10.967
86990SOL    HW262804  14.486   8.713  10.822
86991SOL     OW62805   5.151   9.981   8.498
86991SOL    HW162806   5.220   9.924   8.465
86991SOL    HW262807   5.178  10.001   8.588
86992SOL     OW62808  13.028   2.426  10.517
86992SOL    HW162809  12.971   2.442  10.592
86992SOL    HW262810  13.114   2.457  10.545
86993SOL     OW62811   2.976   7.990   6.384
86993SOL    HW162812   2.935   8.066   6.342
86993SOL    HW262813   3.062   8.022   6.411
86994SOL     OW62814  10.938  10.649  11.952
86994SOL    HW162815  10.903  10.670  12.039
86994SOL    HW262816  10.888  10.705  11.892
86995SOL     OW62817   1.667  13.836  10.626
86995SOL    HW162818   1.641  13.750  10.595
86995SOL    HW262819   1.713  13.819  10.709
86996SOL     OW62820   5.689   5.832  12.061
86996SOL    HW162821   5.740   5.867  11.988
86996SOL    HW262822   5.613   5.890  12.067
86997SOL     OW62823   5.016   1.362   2.490
86997SOL    HW162824   4.998   1.454   2.471
86997SOL    HW262825   4.929   1.322   2.501
86998SOL     OW62826   8.274   3.320   3.582
86998SOL    HW162827   8.208   3.361   3.637
86998SOL    HW262828   8.225   3.278   3.511
86999SOL     OW62829   6.370  10.923  10.077
86999SOL    HW162830   6.321  10.876  10.009
86999SOL    HW262831   6.313  10.921  10.153
87000SOL     OW62832   3.165   7.749   3.765
87000SOL    HW162833   3.220   7.701   3.703
87000SOL    HW262834   3.088   7.692   3.778
87001SOL     OW62835   2.259  13.310  12.987
87001SOL    HW162836   2.268  13.376  13.056
87001SOL    HW262837   2.171  13.275  12.998
87002SOL     OW62838   4.703  12.277   8.823
87002SOL    HW162839   4.732  12.345   8.884
87002SOL    HW262840   4.623  12.242   8.862
87003SOL     OW62841   6.345   1.107  13.071
87003SOL    HW162842   6.436   1.093  13.098
87003SOL    HW262843   6.296   1.038  13.115
87004SOL     OW62844  14.485  11.101  10.610
87004SOL    HW162845  14.487  11.080  10.703
87004SOL    HW262846  14.543  11.037  10.569
87005SOL     OW62847   1.650   4.240  13.377
87005SOL    HW162848   1.607   4.250  13.462
87005SOL    HW262849   1.707   4.164  13.388
87006SOL     OW62850   7.402  13.440   6.378
87006SOL    HW162851   7.442  13.443   6.291
87006SOL    HW262852   7.313  13.409   6.362
87007SOL     OW62853  10.825  10.092   5.277
87007SOL    HW162854  10.863  10.075   5.363
87007SOL    HW262855  10.732  10.105   5.294
87008SOL     OW62856  13.358   7.704   1.045
87008SOL    HW162857  13.423   7.770   1.022
87008SOL    HW262858  13.398   7.652   1.114
87009SOL     OW62859   2.374   8.979   8.582
87009SOL    HW162860   2.391   8.954   8.673
87009SOL    HW262861   2.282   9.005   8.580
87010SOL     OW62862   0.662  12.411  12.781
87010SOL    HW162863   0.727  12.385  12.847
87010SOL    HW262864   0.601  12.468  12.829
87011SOL     OW62865   1.966   4.410  13.581
87011SOL    HW162866   1.986   4.337  13.639
87011SOL    HW262867   1.870   4.411  13.576
87012SOL     OW62868  11.546   3.750  11.406
87012SOL    HW162869  11.476   3.783  11.349
87012SOL    HW262870  11.506   3.676  11.451
87013SOL     OW62871  11.194  13.631  10.173
87013SOL    HW162872  11.281  13.593  10.184
87013SOL    HW262873  11.206  13.699  10.106
87014SOL     OW62874  14.191  12.721   0.726
87014SOL    HW162875  14.212  12.627   0.732
87014SOL    HW262876  14.117  12.732   0.785
87015SOL     OW62877   0.978  14.718  11.857
87015SOL    HW162878   0.976  14.790  11.794
87015SOL    HW262879   0.944  14.643  11.810
87016SOL     OW62880   8.368   6.172  14.415
87016SOL    HW162881   8.411   6.218  14.488
87016SOL    HW262882   8.376   6.079  14.438
87017SOL     OW62883  11.906   3.843   5.062
87017SOL    HW162884  11.947   3.855   5.147
87017SOL    HW262885  11.876   3.752   5.062
87018SOL     OW62886   2.680   7.830  14.720
87018SOL    HW162887   2.689   7.764  14.789
87018SOL    HW262888   2.682   7.779  14.639
87019SOL     OW62889  14.557   0.891   0.002
87019SOL    HW162890  14.568   0.802   0.034
87019SOL    HW262891  14.469   0.892  14.842
87020SOL     OW62892  11.941   7.823   9.727
87020SOL    HW162893  11.946   7.785   9.814
87020SOL    HW262894  12.027   7.806   9.688
87021SOL     OW62895  10.029  10.464   1.028
87021SOL    HW162896   9.955  10.514   1.062
87021SOL    HW262897  10.092  10.462   1.100
87022SOL     OW62898   5.090  14.768   4.608
87022SOL    HW162899   5.126  14.843   4.654
87022SOL    HW262900   5.001  14.758   4.642
87023SOL     OW62901   6.909  12.063  13.944
87023SOL    HW162902   6.874  12.095  14.027
87023SOL    HW262903   6.971  11.995  13.969
87024SOL     OW62904  13.441   7.026  10.208
87024SOL    HW162905  13.471   6.951  10.157
87024SOL    HW262906  13.519   7.079  10.220
87025SOL     OW62907   8.972  10.200  12.671
87025SOL    HW162908   9.008  10.112  12.658
87025SOL    HW262909   8.881  10.193  12.645
87026SOL     OW62910   3.556  13.889   3.755
87026SOL    HW162911   3.554  13.963   3.816
87026SOL    HW262912   3.493  13.827   3.791
87027SOL     OW62913   8.938   5.596   1.044
87027SOL    HW162914   9.007   5.663   1.050
87027SOL    HW262915   8.915   5.593   0.951
87028SOL     OW62916   8.837   3.674   2.447
87028SOL    HW162917   8.895   3.599   2.456
87028SOL    HW262918   8.764   3.655   2.507
87029SOL     OW62919   4.632  12.639   4.298
87029SOL    HW162920   4.643  12.725   4.259
87029SOL    HW262921   4.553  12.604   4.257
87030SOL     OW62922   7.052   4.426   7.166
87030SOL    HW162923   7.039   4.344   7.212
87030SOL    HW262924   7.147   4.440   7.169
87031SOL     OW62925   5.371   9.201   0.757
87031SOL    HW162926   5.367   9.108   0.778
87031SOL    HW262927   5.285   9.221   0.719
87032SOL     OW62928   8.984   2.848   0.880
87032SOL    HW162929   8.948   2.799   0.954
87032SOL    HW262930   8.978   2.939   0.907
87033SOL     OW62931   2.179   0.198   4.174
87033SOL    HW162932   2.135   0.151   4.245
87033SOL    HW262933   2.259   0.232   4.213
87034SOL     OW62934   2.009   3.044   8.487
87034SOL    HW162935   1.995   2.952   8.507
87034SOL    HW262936   1.997   3.050   8.393
87035SOL     OW62937   9.233   9.353   7.158
87035SOL    HW162938   9.296   9.371   7.087
87035SOL    HW262939   9.157   9.317   7.113
87036SOL     OW62940   6.137   7.327   5.958
87036SOL    HW162941   6.187   7.375   6.024
87036SOL    HW262942   6.147   7.379   5.878
87037SOL     OW62943  12.626   7.940  14.331
87037SOL    HW162944  12.605   8.033  14.322
87037SOL    HW262945  12.540   7.897  14.337
87038SOL     OW62946  11.941   2.998  13.430
87038SOL    HW162947  12.037   3.004  13.436
87038SOL    HW262948  11.910   3.049  13.505
87039SOL     OW62949   7.754  14.778   2.446
87039SOL    HW162950   7.745  14.766   2.541
87039SOL    HW262951   7.848  14.784   2.431
87040SOL     OW62952   5.833   1.710   1.632
87040SOL    HW162953   5.824   1.635   1.574
87040SOL    HW262954   5.886   1.678   1.705
87041SOL     OW62955   1.198  10.399  12.620
87041SOL    HW162956   1.181  10.390  12.526
87041SOL    HW262957   1.111  10.414  12.658
87042SOL     OW62958  14.833  13.958  14.704
87042SOL    HW162959  14.779  13.889  14.667
87042SOL    HW262960  14.872  14.003  14.629
87043SOL     OW62961  12.060  10.121  14.484
87043SOL    HW162962  11.984  10.162  14.524
87043SOL    HW262963  12.135  10.168  14.520
87044SOL     OW62964   4.141   0.893   4.700
87044SOL    HW162965   4.057   0.890   4.746
87044SOL    HW262966   4.161   0.802   4.679
87045SOL     OW62967   3.010  13.045  10.070
87045SOL    HW162968   3.053  12.962  10.090
87045SOL    HW262969   2.955  13.062  10.147
87046SOL     OW62970   8.805   6.255   7.733
87046SOL    HW162971   8.878   6.309   7.701
87046SOL    HW262972   8.846   6.175   7.765
87047SOL     OW62973   7.368  10.791   8.729
87047SOL    HW162974   7.312  10.829   8.797
87047SOL    HW262975   7.451  10.773   8.773
87048SOL     OW62976   0.014   8.509  11.600
87048SOL    HW162977  14.828   8.513  11.670
87048SOL    HW262978   0.011   8.596  11.560
87049SOL     OW62979   3.883  10.756   6.568
87049SOL    HW162980   3.842  10.751   6.482
87049SOL    HW262981   3.974  10.779   6.550
87050SOL     OW62982  14.869  11.279   8.066
87050SOL    HW162983  14.796  11.277   8.129
87050SOL    HW262984   0.062  11.236   8.111
87051SOL     OW62985  12.008   5.676   9.660
87051SOL    HW162986  12.084   5.717   9.618
87051SOL    HW262987  11.985   5.603   9.603
87052SOL     OW62988  12.440   6.897   5.917
87052SOL    HW162989  12.369   6.849   5.960
87052SOL    HW262990  12.399   6.977   5.884
87053SOL     OW62991   0.659   7.786   7.651
87053SOL    HW162992   0.624   7.763   7.565
87053SOL    HW262993   0.667   7.881   7.649
87054SOL     OW62994  10.186  10.695   3.959
87054SOL    HW162995  10.154  10.604   3.961
87054SOL    HW262996  10.127  10.742   4.018
87055SOL     OW62997   7.554   1.938  14.619
87055SOL    HW162998   7.507   1.864  14.580
87055SOL    HW262999   7.488   2.007  14.627
87056SOL     OW63000   9.156  13.885   9.804
87056SOL    HW163001   9.102  13.954   9.764
87056SOL    HW263002   9.234  13.881   9.748
87057SOL     OW63003   8.815   0.540   1.501
87057SOL    HW163004   8.728   0.527   1.463
87057SOL    HW263005   8.816   0.632   1.527
87058SOL     OW63006  11.569  14.256  13.900
87058SOL    HW163007  11.582  14.286  13.809
87058SOL    HW263008  11.590  14.333  13.953
87059SOL     OW63009  13.586  13.660   0.015
87059SOL    HW163010  13.526  13.730   0.041
87059SOL    HW263011  13.605  13.613   0.096
87060SOL     OW63012   5.059  12.048   8.177
87060SOL    HW163013   5.115  11.979   8.212
87060SOL    HW263014   5.118  12.105   8.128
87061SOL     OW63015   0.564  11.290   6.459
87061SOL    HW163016   0.613  11.365   6.493
87061SOL    HW263017   0.472  11.314   6.470
87062SOL     OW63018   4.672   8.982   8.594
87062SOL    HW163019   4.633   9.061   8.631
87062SOL    HW263020   4.597   8.932   8.561
87063SOL     OW63021   7.725  12.871   6.608
87063SOL    HW163022   7.816  12.882   6.582
87063SOL    HW263023   7.677  12.866   6.525
87064SOL     OW63024   2.336   0.310  11.408
87064SOL    HW163025   2.301   0.394  11.378
87064SOL    HW263026   2.271   0.277  11.469
87065SOL     OW63027   9.912   6.826   1.638
87065SOL    HW163028   9.877   6.791   1.556
87065SOL    HW263029  10.001   6.793   1.643
87066SOL     OW63030   1.931   9.778   0.916
87066SOL    HW163031   1.960   9.867   0.894
87066SOL    HW263032   1.986   9.721   0.863
87067SOL     OW63033   8.827  12.354   4.364
87067SOL    HW163034   8.837  12.410   4.287
87067SOL    HW263035   8.844  12.412   4.438
87068SOL     OW63036   8.751  13.533   8.986
87068SOL    HW163037   8.838  13.501   8.963
87068SOL    HW263038   8.694  13.456   8.976
87069SOL     OW63039   1.748   1.737   3.328
87069SOL    HW163040   1.813   1.720   3.260
87069SOL    HW263041   1.702   1.816   3.299
87070SOL     OW63042   1.283   6.273  11.942
87070SOL    HW163043   1.267   6.245  11.852
87070SOL    HW263044   1.195   6.288  11.978
87071SOL     OW63045   0.934   2.132   7.519
87071SOL    HW163046   1.026   2.109   7.535
87071SOL    HW263047   0.887   2.099   7.595
87072SOL     OW63048   7.707  13.524   1.435
87072SOL    HW163049   7.783  13.473   1.406
87072SOL    HW263050   7.737  13.567   1.515
87073SOL     OW63051   8.767   1.266   5.240
87073SOL    HW163052   8.743   1.176   5.216
87073SOL    HW263053   8.740   1.275   5.331
87074SOL     OW63054   6.141   9.276  13.821
87074SOL    HW163055   6.103   9.199  13.864
87074SOL    HW263056   6.149   9.341  13.890
87075SOL     OW63057   7.625   5.998   9.894
87075SOL    HW163058   7.691   6.057   9.858
87075SOL    HW263059   7.631   6.010   9.989
87076SOL     OW63060   4.554  13.322   5.967
87076SOL    HW163061   4.485  13.263   5.934
87076SOL    HW263062   4.609  13.266   6.022
87077SOL     OW63063  13.666  14.586   7.533
87077SOL    HW163064  13.668  14.624   7.445
87077SOL    HW263065  13.719  14.507   7.527
87078SOL     OW63066  10.625   0.095   0.351
87078SOL    HW163067  10.583   0.178   0.374
87078SOL    HW263068  10.565   0.054   0.290
87079SOL     OW63069  12.193  13.430  10.755
87079SOL    HW163070  12.202  13.505  10.814
87079SOL    HW263071  12.121  13.379  10.791
87080SOL     OW63072   8.982  10.358   1.919
87080SOL    HW163073   9.021  10.415   1.985
87080SOL    HW263074   9.043  10.360   1.846
87081SOL     OW63075  14.010   9.864   6.518
87081SOL    HW163076  14.063   9.858   6.598
87081SOL    HW263077  14.039   9.792   6.463
87082SOL     OW63078  14.433  12.979   1.510
87082SOL    HW163079  14.528  12.971   1.519
87082SOL    HW263080  14.398  12.955   1.596
87083SOL     OW63081  13.348  11.692   6.601
87083SOL    HW163082  13.372  11.784   6.598
87083SOL    HW263083  13.258  11.690   6.570
87084SOL     OW63084   8.698   1.560   4.054
87084SOL    HW163085   8.758   1.539   4.126
87084SOL    HW263086   8.613   1.568   4.096
87085SOL     OW63087   7.447   5.584  13.515
87085SOL    HW163088   7.524   5.642  13.511
87085SOL    HW263089   7.379   5.638  13.555
87086SOL     OW63090   9.592  12.250   7.136
87086SOL    HW163091   9.592  12.233   7.230
87086SOL    HW263092   9.533  12.324   7.125
87087SOL     OW63093   3.302   4.891  14.673
87087SOL    HW163094   3.278   4.976  14.635
87087SOL    HW263095   3.218   4.853  14.700
87088SOL     OW63096  11.647  13.517   7.689
87088SOL    HW163097  11.595  13.597   7.696
87088SOL    HW263098  11.595  13.451   7.735
87089SOL     OW63099   9.116  12.763   0.849
87089SOL    HW163100   9.133  12.695   0.914
87089SOL    HW263101   9.117  12.845   0.898
87090SOL     OW63102   5.279  10.433   9.617
87090SOL    HW163103   5.246  10.521   9.629
87090SOL    HW263104   5.295  10.400   9.705
87091SOL     OW63105  11.730  10.571   3.458
87091SOL    HW163106  11.648  10.600   3.499
87091SOL    HW263107  11.739  10.627   3.381
87092SOL     OW63108   5.045   7.037  10.185
87092SOL    HW163109   5.042   6.952  10.229
87092SOL    HW263110   5.102   7.022  10.109
87093SOL     OW63111  11.743   2.545   1.610
87093SOL    HW163112  11.743   2.604   1.534
87093SOL    HW263113  11.708   2.463   1.575
87094SOL     OW63114  10.201  11.629  11.434
87094SOL    HW163115  10.224  11.577  11.356
87094SOL    HW263116  10.270  11.695  11.439
87095SOL     OW63117   4.671  14.201   2.584
87095SOL    HW163118   4.748  14.185   2.529
87095SOL    HW263119   4.692  14.281   2.632
87096SOL     OW63120  11.463  11.501  11.005
87096SOL    HW163121  11.451  11.420  10.956
87096SOL    HW263122  11.456  11.571  10.940
87097SOL     OW63123  10.835   6.425   7.877
87097SOL    HW163124  10.777   6.495   7.906
87097SOL    HW263125  10.900   6.468   7.822
87098SOL     OW63126   9.031   0.769   3.056
87098SOL    HW163127   9.119   0.760   3.090
87098SOL    HW263128   9.034   0.846   2.999
87099SOL     OW63129  13.210   3.430   8.655
87099SOL    HW163130  13.126   3.477   8.653
87099SOL    HW263131  13.201   3.363   8.587
87100SOL     OW63132  10.600  11.436  10.078
87100SOL    HW163133  10.643  11.387  10.148
87100SOL    HW263134  10.612  11.383  10.000
87101SOL     OW63135   9.077   2.322  13.582
87101SOL    HW163136   9.101   2.235  13.549
87101SOL    HW263137   8.988   2.336  13.549
87102SOL     OW63138  14.434  14.805   5.627
87102SOL    HW163139  14.472  14.814   5.715
87102SOL    HW263140  14.504  14.832   5.568
87103SOL     OW63141  11.442   2.371   7.996
87103SOL    HW163142  11.402   2.390   7.911
87103SOL    HW263143  11.412   2.282   8.017
87104SOL     OW63144  11.283  10.693   9.262
87104SOL    HW163145  11.295  10.633   9.336
87104SOL    HW263146  11.276  10.635   9.186
87105SOL     OW63147  11.979   8.288  10.921
87105SOL    HW163148  12.020   8.272  11.006
87105SOL    HW263149  11.917   8.359  10.936
87106SOL     OW63150  10.861   8.639   0.659
87106SOL    HW163151  10.845   8.576   0.730
87106SOL    HW263152  10.906   8.588   0.592
87107SOL     OW63153  13.772   9.280   1.079
87107SOL    HW163154  13.806   9.194   1.105
87107SOL    HW263155  13.817   9.298   0.996
87108SOL     OW63156   4.179   1.687   9.095
87108SOL    HW163157   4.099   1.733   9.071
87108SOL    HW263158   4.169   1.600   9.057
87109SOL     OW63159  14.801   6.040  13.314
87109SOL    HW163160  14.765   5.951  13.319
87109SOL    HW263161   0.004   6.030  13.266
87110SOL     OW63162  12.236   1.641  11.209
87110SOL    HW163163  12.298   1.590  11.156
87110SOL    HW263164  12.291   1.690  11.269
87111SOL     OW63165   3.095   5.037  13.338
87111SOL    HW163166   3.030   5.013  13.405
87111SOL    HW263167   3.091   4.966  13.274
87112SOL     OW63168   3.329   7.617   6.990
87112SOL    HW163169   3.315   7.710   6.968
87112SOL    HW263170   3.331   7.573   6.905
87113SOL     OW63171   4.801  14.156   2.109
87113SOL    HW163172   4.778  14.067   2.084
87113SOL    HW263173   4.857  14.187   2.038
87114SOL     OW63174  11.319   9.799   9.888
87114SOL    HW163175  11.235   9.763   9.860
87114SOL    HW263176  11.363   9.822   9.806
87115SOL     OW63177  11.486   6.315  12.436
87115SOL    HW163178  11.526   6.360  12.362
87115SOL    HW263179  11.488   6.222  12.413
87116SOL     OW63180   1.581  14.470  10.251
87116SOL    HW163181   1.487  14.484  10.236
87116SOL    HW263182   1.616  14.449  10.164
87117SOL     OW63183   6.387  10.521  12.416
87117SOL    HW163184   6.431  10.550  12.495
87117SOL    HW263185   6.354  10.433  12.437
87118SOL     OW63186   2.468  11.699   8.408
87118SOL    HW163187   2.395  11.728   8.462
87118SOL    HW263188   2.469  11.603   8.418
87119SOL     OW63189  11.488   2.577  10.765
87119SOL    HW163190  11.441   2.647  10.722
87119SOL    HW263191  11.467   2.498  10.714
87120SOL     OW63192   7.027   7.636   4.350
87120SOL    HW163193   6.999   7.558   4.302
87120SOL    HW263194   7.032   7.705   4.285
87121SOL     OW63195   1.297   0.759   4.477
87121SOL    HW163196   1.365   0.789   4.416
87121SOL    HW263197   1.247   0.695   4.426
87122SOL     OW63198   9.359   2.084   9.207
87122SOL    HW163199   9.348   2.122   9.120
87122SOL    HW263200   9.279   2.107   9.254
87123SOL     OW63201   9.539   1.078   4.605
87123SOL    HW163202   9.458   1.055   4.560
87123SOL    HW263203   9.516   1.153   4.659
87124SOL     OW63204   7.763  13.682   2.763
87124SOL    HW163205   7.708  13.616   2.720
87124SOL    HW263206   7.733  13.681   2.855
87125SOL     OW63207   1.570  13.401   4.452
87125SOL    HW163208   1.520  13.342   4.395
87125SOL    HW263209   1.541  13.379   4.540
87126SOL     OW63210   5.126   4.806  11.960
87126SOL    HW163211   5.044   4.829  11.917
87126SOL    HW263212   5.158   4.888  11.997
87127SOL     OW63213  11.153   6.743   6.059
87127SOL    HW163214  11.173   6.652   6.081
87127SOL    HW263215  11.238   6.786   6.053
87128SOL     OW63216   4.455   5.555  10.264
87128SOL    HW163217   4.375   5.557  10.212
87128SOL    HW263218   4.431   5.508  10.344
87129SOL     OW63219   8.991  12.240   9.740
87129SOL    HW163220   8.998  12.146   9.721
87129SOL    HW263221   9.048  12.254   9.815
87130SOL     OW63222  13.097   1.441   8.184
87130SOL    HW163223  13.155   1.512   8.158
87130SOL    HW263224  13.115   1.371   8.121
87131SOL     OW63225  13.323   2.781  11.897
87131SOL    HW163226  13.371   2.811  11.821
87131SOL    HW263227  13.231   2.800  11.877
87132SOL     OW63228   8.527   4.241   8.260
87132SOL    HW163229   8.530   4.197   8.345
87132SOL    HW263230   8.434   4.261   8.247
87133SOL     OW63231   9.136   9.802   0.241
87133SOL    HW163232   9.110   9.734   0.179
87133SOL    HW263233   9.124   9.761   0.327
87134SOL     OW63234  11.767   4.601   5.738
87134SOL    HW163235  11.802   4.549   5.666
87134SOL    HW263236  11.839   4.657   5.765
87135SOL     OW63237   0.763   0.521   2.807
87135SOL    HW163238   0.745   0.441   2.858
87135SOL    HW263239   0.676   0.556   2.787
87136SOL     OW63240   7.344   3.459   3.630
87136SOL    HW163241   7.366   3.379   3.582
87136SOL    HW263242   7.248   3.460   3.630
87137SOL     OW63243   5.408   5.624   6.648
87137SOL    HW163244   5.469   5.656   6.715
87137SOL    HW263245   5.322   5.648   6.681
87138SOL     OW63246   6.970   5.503  12.031
87138SOL    HW163247   6.959   5.585  11.983
87138SOL    HW263248   6.913   5.513  12.107
87139SOL     OW63249   3.136   1.353   5.056
87139SOL    HW163250   3.148   1.434   5.107
87139SOL    HW263251   3.044   1.355   5.030
87140SOL     OW63252  12.667   2.976  13.279
87140SOL    HW163253  12.753   2.935  13.280
87140SOL    HW263254  12.657   3.009  13.189
87141SOL     OW63255  11.636   6.531   0.684
87141SOL    HW163256  11.677   6.606   0.640
87141SOL    HW263257  11.572   6.570   0.744
87142SOL     OW63258   8.159   8.734   2.180
87142SOL    HW163259   8.119   8.813   2.144
87142SOL    HW263260   8.111   8.662   2.140
87143SOL     OW63261   9.221   3.731   0.013
87143SOL    HW163262   9.221   3.763   0.103
87143SOL    HW263263   9.314   3.730  14.867
87144SOL     OW63264   7.963  14.109   4.744
87144SOL    HW163265   8.009  14.058   4.811
87144SOL    HW263266   7.913  14.044   4.695
87145SOL     OW63267   5.483   0.595   0.491
87145SOL    HW163268   5.466   0.683   0.458
87145SOL    HW263269   5.490   0.541   0.413
87146SOL     OW63270   1.442  12.276   7.236
87146SOL    HW163271   1.527  12.302   7.270
87146SOL    HW263272   1.452  12.276   7.141
87147SOL     OW63273  10.129  12.616   1.876
87147SOL    HW163274  10.083  12.571   1.946
87147SOL    HW263275  10.068  12.685   1.848
87148SOL     OW63276   6.329   1.604   7.479
87148SOL    HW163277   6.382   1.683   7.467
87148SOL    HW263278   6.244   1.625   7.439
87149SOL     OW63279   5.333   8.614   8.717
87149SOL    HW163280   5.414   8.564   8.720
87149SOL    HW263281   5.347   8.678   8.647
87150SOL     OW63282   6.356   2.005   4.928
87150SOL    HW163283   6.392   1.934   4.981
87150SOL    HW263284   6.411   2.081   4.951
87151SOL     OW63285   1.852   0.391   6.136
87151SOL    HW163286   1.894   0.354   6.059
87151SOL    HW263287   1.858   0.485   6.124
87152SOL     OW63288   9.613  10.157   8.008
87152SOL    HW163289   9.626  10.247   8.038
87152SOL    HW263290   9.661  10.104   8.071
87153SOL     OW63291   0.581   0.148   8.602
87153SOL    HW163292   0.625   0.065   8.618
87153SOL    HW263293   0.646   0.215   8.623
87154SOL     OW63294   4.340   8.206  14.520
87154SOL    HW163295   4.364   8.255  14.442
87154SOL    HW263296   4.420   8.162  14.548
87155SOL     OW63297   6.986  13.445   8.573
87155SOL    HW163298   7.040  13.430   8.495
87155SOL    HW263299   6.907  13.393   8.557
87156SOL     OW63300  12.836   5.547   2.568
87156SOL    HW163301  12.862   5.462   2.602
87156SOL    HW263302  12.860   5.544   2.475
87157SOL     OW63303  14.318  13.285   1.077
87157SOL    HW163304  14.390  13.270   1.137
87157SOL    HW263305  14.262  13.349   1.121
87158SOL     OW63306  11.563   7.447   9.718
87158SOL    HW163307  11.578   7.541   9.706
87158SOL    HW263308  11.518   7.419   9.639
87159SOL     OW63309   9.310   0.947   3.365
87159SOL    HW163310   9.388   0.951   3.421
87159SOL    HW263311   9.286   1.039   3.352
87160SOL     OW63312   5.925   4.244   8.298
87160SOL    HW163313   6.007   4.211   8.334
87160SOL    HW263314   5.944   4.336   8.278
87161SOL     OW63315   0.039   6.634   1.121
87161SOL    HW163316  14.872   6.648   1.039
87161SOL    HW263317   0.045   6.721   1.161
87162SOL     OW63318   5.140  13.739  12.573
87162SOL    HW163319   5.234  13.747  12.591
87162SOL    HW263320   5.115  13.657  12.615
87163SOL     OW63321  14.630   0.819   0.706
87163SOL    HW163322  14.608   0.734   0.668
87163SOL    HW263323  14.546   0.855   0.735
87164SOL     OW63324   5.803  10.506  13.547
87164SOL    HW163325   5.807  10.411  13.536
87164SOL    HW263326   5.861  10.524  13.622
87165SOL     OW63327  13.072  13.672  10.112
87165SOL    HW163328  13.049  13.669  10.019
87165SOL    HW263329  13.063  13.582  10.143
87166SOL     OW63330   5.737  14.670  10.655
87166SOL    HW163331   5.682  14.747  10.665
87166SOL    HW263332   5.705  14.609  10.722
87167SOL     OW63333   9.269  14.009  13.402
87167SOL    HW163334   9.294  13.972  13.487
87167SOL    HW263335   9.173  14.018  13.407
87168SOL     OW63336   1.157   2.289   5.432
87168SOL    HW163337   1.075   2.270   5.480
87168SOL    HW263338   1.129   2.342   5.357
87169SOL     OW63339   7.142  10.976   1.568
87169SOL    HW163340   7.118  11.039   1.636
87169SOL    HW263341   7.111  10.892   1.602
87170SOL     OW63342   2.433   7.681  11.984
87170SOL    HW163343   2.398   7.755  11.934
87170SOL    HW263344   2.480   7.628  11.920
87171SOL     OW63345   1.792   6.156  10.018
87171SOL    HW163346   1.793   6.107   9.936
87171SOL    HW263347   1.730   6.227  10.003
87172SOL     OW63348   3.894  10.906   1.354
87172SOL    HW163349   3.875  10.813   1.370
87172SOL    HW263350   3.881  10.948   1.439
87173SOL     OW63351   4.728  13.321  11.086
87173SOL    HW163352   4.767  13.247  11.133
87173SOL    HW263353   4.706  13.384  11.155
87174SOL     OW63354  13.736  11.933   6.170
87174SOL    HW163355  13.731  12.027   6.155
87174SOL    HW263356  13.826  11.909   6.148
87175SOL     OW63357  11.618  12.775  10.565
87175SOL    HW163358  11.611  12.727  10.648
87175SOL    HW263359  11.528  12.787  10.536
87176SOL     OW63360   7.371  13.027   7.439
87176SOL    HW163361   7.297  13.086   7.454
87176SOL    HW263362   7.447  13.084   7.438
87177SOL     OW63363  10.379  11.366   6.157
87177SOL    HW163364  10.349  11.439   6.103
87177SOL    HW263365  10.304  11.342   6.210
87178SOL     OW63366   0.566   3.893   5.767
87178SOL    HW163367   0.483   3.929   5.735
87178SOL    HW263368   0.548   3.869   5.858
87179SOL     OW63369   5.491   5.772   9.455
87179SOL    HW163370   5.545   5.747   9.529
87179SOL    HW263371   5.414   5.715   9.460
87180SOL     OW63372   4.193  14.753   7.651
87180SOL    HW163373   4.165  14.820   7.589
87180SOL    HW263374   4.268  14.711   7.609
87181SOL     OW63375   6.031   4.897  11.522
87181SOL    HW163376   6.071   4.906  11.436
87181SOL    HW263377   6.086   4.833  11.568
87182SOL     OW63378   5.373   1.231   1.257
87182SOL    HW163379   5.436   1.207   1.326
87182SOL    HW263380   5.289   1.238   1.303
87183SOL     OW63381   6.976   2.406  10.371
87183SOL    HW163382   7.005   2.404  10.280
87183SOL    HW263383   7.015   2.485  10.407
87184SOL     OW63384   4.175   8.781   2.624
87184SOL    HW163385   4.219   8.779   2.709
87184SOL    HW263386   4.231   8.836   2.569
87185SOL     OW63387  10.135   2.231   0.952
87185SOL    HW163388  10.116   2.302   1.013
87185SOL    HW263389  10.121   2.269   0.866
87186SOL     OW63390   9.910   9.533   6.506
87186SOL    HW163391   9.973   9.576   6.448
87186SOL    HW263392   9.939   9.555   6.594
87187SOL     OW63393   1.085  12.308   5.405
87187SOL    HW163394   1.046  12.224   5.428
87187SOL    HW263395   1.173  12.286   5.374
87188SOL     OW63396  12.229   4.437   1.970
87188SOL    HW163397  12.317   4.439   2.010
87188SOL    HW263398  12.180   4.505   2.016
87189SOL     OW63399   6.161   1.432  11.909
87189SOL    HW163400   6.230   1.477  11.957
87189SOL    HW263401   6.204   1.399  11.830
87190SOL     OW63402   1.055  10.971   4.924
87190SOL    HW163403   1.144  11.008   4.925
87190SOL    HW263404   1.001  11.040   4.886
87191SOL     OW63405  14.673   9.198  10.470
87191SOL    HW163406  14.653   9.106  10.453
87191SOL    HW263407  14.742   9.219  10.406
87192SOL     OW63408   7.322   5.435   6.597
87192SOL    HW163409   7.374   5.492   6.542
87192SOL    HW263410   7.266   5.494   6.647
87193SOL     OW63411  10.393  12.478   3.702
87193SOL    HW163412  10.338  12.421   3.755
87193SOL    HW263413  10.431  12.540   3.764
87194SOL     OW63414   9.733  11.598   2.802
87194SOL    HW163415   9.802  11.663   2.813
87194SOL    HW263416   9.763  11.543   2.730
87195SOL     OW63417   3.636   4.157  12.050
87195SOL    HW163418   3.600   4.228  12.102
87195SOL    HW263419   3.705   4.198  11.997
87196SOL     OW63420   2.338   1.935   5.930
87196SOL    HW163421   2.330   2.012   5.874
87196SOL    HW263422   2.248   1.915   5.956
87197SOL     OW63423  11.242   6.605  13.504
87197SOL    HW163424  11.268   6.562  13.422
87197SOL    HW263425  11.320   6.602  13.559
87198SOL     OW63426   6.047   8.969   1.270
87198SOL    HW163427   5.970   9.019   1.242
87198SOL    HW263428   6.013   8.907   1.335
87199SOL     OW63429  13.314   7.419   9.072
87199SOL    HW163430  13.237   7.446   9.023
87199SOL    HW263431  13.308   7.466   9.155
87200SOL     OW63432   5.747   5.604   2.556
87200SOL    HW163433   5.720   5.516   2.581
87200SOL    HW263434   5.680   5.633   2.494
87201SOL     OW63435   0.625   6.030  14.539
87201SOL    HW163436   0.711   6.056  14.506
87201SOL    HW263437   0.564   6.051  14.469
87202SOL     OW63438   4.745   3.774   2.620
87202SOL    HW163439   4.695   3.693   2.614
87202SOL    HW263440   4.718   3.825   2.543
87203SOL     OW63441  12.734   1.110  10.604
87203SOL    HW163442  12.764   1.201  10.603
87203SOL    HW263443  12.669   1.106  10.534
87204SOL     OW63444   9.754  14.098   1.469
87204SOL    HW163445   9.766  14.182   1.424
87204SOL    HW263446   9.668  14.068   1.440
87205SOL     OW63447  10.441  14.291  12.565
87205SOL    HW163448  10.351  14.262  12.549
87205SOL    HW263449  10.438  14.329  12.653
87206SOL     OW63450   7.831  11.340   5.296
87206SOL    HW163451   7.917  11.319   5.332
87206SOL    HW263452   7.846  11.350   5.202
87207SOL     OW63453  13.735   8.387  13.444
87207SOL    HW163454  13.650   8.356  13.474
87207SOL    HW263455  13.785   8.402  13.524
87208SOL     OW63456  13.640  14.553  11.041
87208SOL    HW163457  13.687  14.628  11.078
87208SOL    HW263458  13.549  14.566  11.067
87209SOL     OW63459  10.214   8.629   1.334
87209SOL    HW163460  10.282   8.695   1.351
87209SOL    HW263461  10.138   8.679   1.305
87210SOL     OW63462   7.790   2.373  10.571
87210SOL    HW163463   7.860   2.321  10.531
87210SOL    HW263464   7.778   2.335  10.658
87211SOL     OW63465   1.164   0.502  11.865
87211SOL    HW163466   1.124   0.477  11.948
87211SOL    HW263467   1.247   0.542  11.889
87212SOL     OW63468  10.139   2.927   8.341
87212SOL    HW163469  10.066   2.887   8.294
87212SOL    HW263470  10.209   2.861   8.337
87213SOL     OW63471  14.866   1.735   2.080
87213SOL    HW163472   0.053   1.757   2.014
87213SOL    HW263473  14.805   1.808   2.078
87214SOL     OW63474   9.200   6.319   1.144
87214SOL    HW163475   9.108   6.313   1.171
87214SOL    HW263476   9.204   6.397   1.089
87215SOL     OW63477   5.617   3.220   5.054
87215SOL    HW163478   5.655   3.298   5.015
87215SOL    HW263479   5.679   3.150   5.031
87216SOL     OW63480   8.780   3.274   9.833
87216SOL    HW163481   8.756   3.239   9.748
87216SOL    HW263482   8.876   3.275   9.833
87217SOL     OW63483  12.099  12.786   0.845
87217SOL    HW163484  12.181  12.766   0.800
87217SOL    HW263485  12.058  12.853   0.789
87218SOL     OW63486   1.435  13.854   2.106
87218SOL    HW163487   1.426  13.941   2.147
87218SOL    HW263488   1.416  13.869   2.014
87219SOL     OW63489   5.811   7.168   4.456
87219SOL    HW163490   5.774   7.084   4.428
87219SOL    HW263491   5.762   7.234   4.406
87220SOL     OW63492   0.428   1.189   9.279
87220SOL    HW163493   0.388   1.190   9.192
87220SOL    HW263494   0.408   1.102   9.313
87221SOL     OW63495   5.426   2.918   8.524
87221SOL    HW163496   5.458   2.983   8.585
87221SOL    HW263497   5.407   2.967   8.444
87222SOL     OW63498  13.576  12.086  13.828
87222SOL    HW163499  13.506  12.064  13.766
87222SOL    HW263500  13.569  12.181  13.839
87223SOL     OW63501   3.437   1.242   4.837
87223SOL    HW163502   3.461   1.292   4.915
87223SOL    HW263503   3.480   1.157   4.849
87224SOL     OW63504   5.813   8.679   0.353
87224SOL    HW163505   5.874   8.693   0.281
87224SOL    HW263506   5.858   8.713   0.430
87225SOL     OW63507   7.022   2.296  14.342
87225SOL    HW163508   6.987   2.351  14.413
87225SOL    HW263509   7.107   2.335  14.323
87226SOL     OW63510   6.299   6.416  12.933
87226SOL    HW163511   6.382   6.376  12.907
87226SOL    HW263512   6.304   6.505  12.899
87227SOL     OW63513  12.554   5.804   7.652
87227SOL    HW163514  12.630   5.855   7.624
87227SOL    HW263515  12.577   5.770   7.738
87228SOL     OW63516  12.767   6.318   5.916
87228SOL    HW163517  12.712   6.350   5.845
87228SOL    HW263518  12.806   6.396   5.954
87229SOL     OW63519   6.263   5.765   5.315
87229SOL    HW163520   6.352   5.767   5.278
87229SOL    HW263521   6.271   5.807   5.400
87230SOL     OW63522   2.508   9.858   3.649
87230SOL    HW163523   2.552   9.942   3.660
87230SOL    HW263524   2.559   9.813   3.581
87231SOL     OW63525   0.852   1.117  11.323
87231SOL    HW163526   0.947   1.102  11.328
87231SOL    HW263527   0.822   1.110  11.414
87232SOL     OW63528  14.159  14.086  10.194
87232SOL    HW163529  14.199  14.024  10.133
87232SOL    HW263530  14.222  14.157  10.201
87233SOL     OW63531  13.655   4.504   2.114
87233SOL    HW163532  13.569   4.508   2.073
87233SOL    HW263533  13.657   4.419   2.157
87234SOL     OW63534   6.907   4.363   1.801
87234SOL    HW163535   7.002   4.363   1.814
87234SOL    HW263536   6.883   4.270   1.806
87235SOL     OW63537  13.204  11.039   4.435
87235SOL    HW163538  13.232  11.126   4.463
87235SOL    HW263539  13.147  11.055   4.361
87236SOL     OW63540  11.907  11.454   0.529
87236SOL    HW163541  11.874  11.473   0.617
87236SOL    HW263542  11.890  11.360   0.518
87237SOL     OW63543   4.730   0.209  11.265
87237SOL    HW163544   4.670   0.135  11.260
87237SOL    HW263545   4.802   0.186  11.206
87238SOL     OW63546   2.262   8.746   1.689
87238SOL    HW163547   2.246   8.808   1.760
87238SOL    HW263548   2.221   8.665   1.718
87239SOL     OW63549   2.386   1.695   5.224
87239SOL    HW163550   2.403   1.635   5.151
87239SOL    HW263551   2.372   1.780   5.182
87240SOL     OW63552   9.378   1.402   0.369
87240SOL    HW163553   9.334   1.356   0.297
87240SOL    HW263554   9.364   1.495   0.351
87241SOL     OW63555  12.996   7.726   3.812
87241SOL    HW163556  12.931   7.780   3.767
87241SOL    HW263557  12.945   7.661   3.860
87242SOL     OW63558   7.401  13.301   6.918
87242SOL    HW163559   7.385  13.266   7.006
87242SOL    HW263560   7.360  13.388   6.919
87243SOL     OW63561   4.223  13.237   0.203
87243SOL    HW163562   4.235  13.203   0.291
87243SOL    HW263563   4.293  13.196   0.151
87244SOL     OW63564   6.134  10.958  10.997
87244SOL    HW163565   6.067  11.014  11.035
87244SOL    HW263566   6.113  10.956  10.904
87245SOL     OW63567  13.696   4.833   9.880
87245SOL    HW163568  13.720   4.855   9.970
87245SOL    HW263569  13.780   4.827   9.834
87246SOL     OW63570   0.677   2.156   0.187
87246SOL    HW163571   0.747   2.222   0.179
87246SOL    HW263572   0.686   2.123   0.276
87247SOL     OW63573   5.108   5.940   9.498
87247SOL    HW163574   5.121   5.852   9.465
87247SOL    HW263575   5.152   5.997   9.435
87248SOL     OW63576   6.979   0.677  13.959
87248SOL    HW163577   7.015   0.609  13.902
87248SOL    HW263578   6.898   0.639  13.993
87249SOL     OW63579   0.978   9.216  13.361
87249SOL    HW163580   1.063   9.172  13.367
87249SOL    HW263581   0.982   9.265  13.280
87250SOL     OW63582   3.776   0.357  14.740
87250SOL    HW163583   3.730   0.279  14.711
87250SOL    HW263584   3.709   0.426  14.736
87251SOL     OW63585   9.598   3.777  13.400
87251SOL    HW163586   9.652   3.737  13.333
87251SOL    HW263587   9.621   3.731  13.481
87252SOL     OW63588   0.502   3.102   8.983
87252SOL    HW163589   0.538   3.175   9.035
87252SOL    HW263590   0.444   3.056   9.044
87253SOL     OW63591   5.770   3.556   6.805
87253SOL    HW163592   5.730   3.485   6.855
87253SOL    HW263593   5.861   3.527   6.791
87254SOL     OW63594   3.853  14.718   8.608
87254SOL    HW163595   3.808  14.674   8.535
87254SOL    HW263596   3.871  14.806   8.576
87255SOL     OW63597   8.847   9.847   5.460
87255SOL    HW163598   8.753   9.845   5.475
87255SOL    HW263599   8.881   9.901   5.531
87256SOL     OW63600   2.359   4.257   7.254
87256SOL    HW163601   2.396   4.299   7.332
87256SOL    HW263602   2.279   4.215   7.286
87257SOL     OW63603  11.454  14.689   8.112
87257SOL    HW163604  11.538  14.680   8.067
87257SOL    HW263605  11.476  14.691   8.205
87258SOL     OW63606   3.697   9.640   3.071
87258SOL    HW163607   3.619   9.695   3.073
87258SOL    HW263608   3.751   9.673   3.142
87259SOL     OW63609  14.111   4.329  12.442
87259SOL    HW163610  14.046   4.330  12.372
87259SOL    HW263611  14.073   4.382  12.512
87260SOL     OW63612  10.423  13.719  13.006
87260SOL    HW163613  10.350  13.659  13.020
87260SOL    HW263614  10.416  13.744  12.913
87261SOL     OW63615   1.263  12.377   3.227
87261SOL    HW163616   1.243  12.355   3.136
87261SOL    HW263617   1.358  12.391   3.229
87262SOL     OW63618  13.395   7.419   6.623
87262SOL    HW163619  13.431   7.331   6.620
87262SOL    HW263620  13.425   7.459   6.541
87263SOL     OW63621   7.202  13.983  11.749
87263SOL    HW163622   7.187  13.898  11.709
87263SOL    HW263623   7.191  14.046  11.678
87264SOL     OW63624   9.569   5.126   0.821
87264SOL    HW163625   9.534   5.129   0.732
87264SOL    HW263626   9.657   5.088   0.811
87265SOL     OW63627  11.758   9.248   5.947
87265SOL    HW163628  11.750   9.314   5.879
87265SOL    HW263629  11.672   9.207   5.951
87266SOL     OW63630   6.540  14.175   1.742
87266SOL    HW163631   6.595  14.252   1.730
87266SOL    HW263632   6.582  14.125   1.812
87267SOL     OW63633  11.643   0.485   9.192
87267SOL    HW163634  11.613   0.576   9.188
87267SOL    HW263635  11.564   0.433   9.174
87268SOL     OW63636  13.370   8.569   4.146
87268SOL    HW163637  13.449   8.525   4.179
87268SOL    HW263638  13.383   8.573   4.052
87269SOL     OW63639   3.147   8.363   4.765
87269SOL    HW163640   3.092   8.376   4.689
87269SOL    HW263641   3.202   8.442   4.769
87270SOL     OW63642   9.737   1.600   7.659
87270SOL    HW163643   9.780   1.550   7.590
87270SOL    HW263644   9.689   1.669   7.612
87271SOL     OW63645   7.531  13.043   7.825
87271SOL    HW163646   7.555  13.116   7.768
87271SOL    HW263647   7.586  12.970   7.797
87272SOL     OW63648   9.682   9.750  10.909
87272SOL    HW163649   9.765   9.792  10.886
87272SOL    HW263650   9.620   9.822  10.918
87273SOL     OW63651   6.129   9.111  13.599
87273SOL    HW163652   6.177   9.054  13.659
87273SOL    HW263653   6.119   9.194  13.646
87274SOL     OW63654  14.395   4.842   3.384
87274SOL    HW163655  14.347   4.803   3.457
87274SOL    HW263656  14.486   4.816   3.399
87275SOL     OW63657   4.282  14.304   5.511
87275SOL    HW163658   4.341  14.279   5.583
87275SOL    HW263659   4.278  14.227   5.455
87276SOL     OW63660   0.433   2.614   8.608
87276SOL    HW163661   0.468   2.642   8.524
87276SOL    HW263662   0.371   2.683   8.632
87277SOL     OW63663   1.518  10.920   1.260
87277SOL    HW163664   1.485  10.961   1.340
87277SOL    HW263665   1.446  10.928   1.198
87278SOL     OW63666   7.335  13.964   4.951
87278SOL    HW163667   7.358  13.921   5.033
87278SOL    HW263668   7.299  13.894   4.896
87279SOL     OW63669   2.974  10.778  12.074
87279SOL    HW163670   2.889  10.812  12.047
87279SOL    HW263671   2.954  10.699  12.124
87280SOL     OW63672   1.899   3.230  14.102
87280SOL    HW163673   1.829   3.291  14.079
87280SOL    HW263674   1.858   3.144  14.097
87281SOL     OW63675   6.669  13.639   1.713
87281SOL    HW163676   6.760  13.650   1.685
87281SOL    HW263677   6.668  13.554   1.756
87282SOL     OW63678  11.299  12.406   2.557
87282SOL    HW163679  11.327  12.416   2.648
87282SOL    HW263680  11.205  12.425   2.560
87283SOL     OW63681  12.378  10.535   0.088
87283SOL    HW163682  12.383  10.631   0.096
87283SOL    HW263683  12.366  10.520  14.873
87284SOL     OW63684  13.778   3.949   0.408
87284SOL    HW163685  13.852   3.984   0.458
87284SOL    HW263686  13.717   3.917   0.474
87285SOL     OW63687  10.937  10.831   9.100
87285SOL    HW163688  11.020  10.874   9.081
87285SOL    HW263689  10.878  10.860   9.031
87286SOL     OW63690  14.138  10.388   4.192
87286SOL    HW163691  14.150  10.411   4.100
87286SOL    HW263692  14.163  10.296   4.197
87287SOL     OW63693  10.802   3.243  14.316
87287SOL    HW163694  10.840   3.246  14.229
87287SOL    HW263695  10.719   3.290  14.308
87288SOL     OW63696   4.522   6.895  13.395
87288SOL    HW163697   4.557   6.913  13.308
87288SOL    HW263698   4.598   6.866  13.446
87289SOL     OW63699   0.848   8.590   9.406
87289SOL    HW163700   0.807   8.505   9.423
87289SOL    HW263701   0.942   8.572   9.410
87290SOL     OW63702  11.351  12.299  10.613
87290SOL    HW163703  11.256  12.311  10.623
87290SOL    HW263704  11.378  12.370  10.553
87291SOL     OW63705  14.183   3.914   1.570
87291SOL    HW163706  14.248   3.980   1.544
87291SOL    HW263707  14.161   3.937   1.660
87292SOL     OW63708   2.971   7.083   2.423
87292SOL    HW163709   2.908   7.149   2.449
87292SOL    HW263710   3.039   7.131   2.376
87293SOL     OW63711   8.426  13.932   2.693
87293SOL    HW163712   8.434  14.003   2.756
87293SOL    HW263713   8.455  13.854   2.741
87294SOL     OW63714   6.031   6.260  11.292
87294SOL    HW163715   5.973   6.337  11.293
87294SOL    HW263716   5.977   6.190  11.329
87295SOL     OW63717   2.642  14.654   8.851
87295SOL    HW163718   2.704  14.633   8.922
87295SOL    HW263719   2.646  14.577   8.794
87296SOL     OW63720   8.336   0.859   9.456
87296SOL    HW163721   8.255   0.909   9.463
87296SOL    HW263722   8.405   0.924   9.470
87297SOL     OW63723  11.384  14.557   2.172
87297SOL    HW163724  11.311  14.618   2.161
87297SOL    HW263725  11.380  14.501   2.094
87298SOL     OW63726   3.765  13.579   8.841
87298SOL    HW163727   3.789  13.503   8.788
87298SOL    HW263728   3.690  13.550   8.893
87299SOL     OW63729   2.201   2.649   1.544
87299SOL    HW163730   2.148   2.632   1.466
87299SOL    HW263731   2.261   2.718   1.517
87300SOL     OW63732   8.818  10.634   3.500
87300SOL    HW163733   8.750  10.566   3.501
87300SOL    HW263734   8.896  10.589   3.469
87301SOL     OW63735  10.481   3.948  11.428
87301SOL    HW163736  10.482   3.874  11.489
87301SOL    HW263737  10.419   4.010  11.467
87302SOL     OW63738   0.148  11.815   9.960
87302SOL    HW163739   0.176  11.882  10.023
87302SOL    HW263740   0.140  11.861   9.877
87303SOL     OW63741  11.444   7.153   0.624
87303SOL    HW163742  11.351   7.172   0.611
87303SOL    HW263743  11.480   7.233   0.662
87304SOL     OW63744  13.277   1.592   0.716
87304SOL    HW163745  13.266   1.523   0.782
87304SOL    HW263746  13.308   1.668   0.765
87305SOL     OW63747   7.999   2.568  10.871
87305SOL    HW163748   7.958   2.653  10.888
87305SOL    HW263749   7.926   2.508  10.862
87306SOL     OW63750   3.248   1.477   8.023
87306SOL    HW163751   3.339   1.450   8.027
87306SOL    HW263752   3.199   1.401   8.056
87307SOL     OW63753   5.063   2.561   3.501
87307SOL    HW163754   4.999   2.626   3.530
87307SOL    HW263755   5.132   2.612   3.458
87308SOL     OW63756  13.017  14.393  13.874
87308SOL    HW163757  12.957  14.354  13.937
87308SOL    HW263758  13.104  14.366  13.902
87309SOL     OW63759  13.201  14.583   5.497
87309SOL    HW163760  13.108  14.570   5.482
87309SOL    HW263761  13.218  14.674   5.471
87310SOL     OW63762   8.097  12.205   9.570
87310SOL    HW163763   8.003  12.215   9.577
87310SOL    HW263764   8.109  12.124   9.521
87311SOL     OW63765   1.352  12.488   5.627
87311SOL    HW163766   1.279  12.514   5.571
87311SOL    HW263767   1.374  12.568   5.676
87312SOL     OW63768   9.545   7.933  11.585
87312SOL    HW163769   9.544   7.998  11.655
87312SOL    HW263770   9.521   7.851  11.628
87313SOL     OW63771  10.005   1.930   3.541
87313SOL    HW163772   9.959   1.996   3.593
87313SOL    HW263773   9.978   1.847   3.578
87314SOL     OW63774  11.526   5.637  13.507
87314SOL    HW163775  11.485   5.721  13.488
87314SOL    HW263776  11.456   5.584  13.545
87315SOL     OW63777   6.380  12.982  10.363
87315SOL    HW163778   6.433  13.034  10.423
87315SOL    HW263779   6.409  13.008  10.276
87316SOL     OW63780   3.972   0.384   7.150
87316SOL    HW163781   4.061   0.416   7.164
87316SOL    HW263782   3.943   0.429   7.070
87317SOL     OW63783  11.206   2.402   0.807
87317SOL    HW163784  11.229   2.479   0.756
87317SOL    HW263785  11.167   2.342   0.743
87318SOL     OW63786   0.228   2.273   7.497
87318SOL    HW163787   0.285   2.350   7.495
87318SOL    HW263788   0.188   2.276   7.583
87319SOL     OW63789   8.418   6.486   4.320
87319SOL    HW163790   8.356   6.442   4.377
87319SOL    HW263791   8.475   6.416   4.288
87320SOL     OW63792   7.614  13.496   4.947
87320SOL    HW163793   7.621  13.411   4.990
87320SOL    HW263794   7.705  13.527   4.940
87321SOL     OW63795  13.887  14.255   8.337
87321SOL    HW163796  13.895  14.160   8.350
87321SOL    HW263797  13.849  14.287   8.419
87322SOL     OW63798  10.445   4.288  14.364
87322SOL    HW163799  10.460   4.239  14.284
87322SOL    HW263800  10.412   4.373  14.335
87323SOL     OW63801  13.854   0.755  13.613
87323SOL    HW163802  13.771   0.800  13.624
87323SOL    HW263803  13.898   0.801  13.541
87324SOL     OW63804  13.386   3.709  13.653
87324SOL    HW163805  13.482   3.715  13.659
87324SOL    HW263806  13.363   3.769  13.582
87325SOL     OW63807   1.537  14.306   4.328
87325SOL    HW163808   1.459  14.256   4.303
87325SOL    HW263809   1.577  14.253   4.397
87326SOL     OW63810  12.812   8.981  14.364
87326SOL    HW163811  12.753   9.014  14.296
87326SOL    HW263812  12.899   8.989  14.326
87327SOL     OW63813  12.369   7.533   0.867
87327SOL    HW163814  12.322   7.565   0.944
87327SOL    HW263815  12.413   7.610   0.832
87328SOL     OW63816   8.980   6.052  12.984
87328SOL    HW163817   9.049   5.997  13.021
87328SOL    HW263818   8.929   6.080  13.060
87329SOL     OW63819   5.098   5.419   8.843
87329SOL    HW163820   5.165   5.451   8.782
87329SOL    HW263821   5.015   5.443   8.801
87330SOL     OW63822   8.370   3.164   1.983
87330SOL    HW163823   8.340   3.224   2.051
87330SOL    HW263824   8.363   3.077   2.024
87331SOL     OW63825   3.724   8.591   8.867
87331SOL    HW163826   3.717   8.677   8.909
87331SOL    HW263827   3.687   8.530   8.930
87332SOL     OW63828   7.532  13.437   1.673
87332SOL    HW163829   7.566  13.410   1.758
87332SOL    HW263830   7.603  13.418   1.612
87333SOL     OW63831  11.877   5.437   1.603
87333SOL    HW163832  11.856   5.361   1.656
87333SOL    HW263833  11.967   5.460   1.626
87334SOL     OW63834   2.666   1.933   6.494
87334SOL    HW163835   2.663   1.848   6.448
87334SOL    HW263836   2.699   1.994   6.428
87335SOL     OW63837   4.265   2.896   0.813
87335SOL    HW163838   4.217   2.949   0.877
87335SOL    HW263839   4.322   2.959   0.768
87336SOL     OW63840   3.764   4.980   6.144
87336SOL    HW163841   3.696   4.991   6.211
87336SOL    HW263842   3.765   4.886   6.127
87337SOL     OW63843  13.699   1.454  13.070
87337SOL    HW163844  13.686   1.458  13.165
87337SOL    HW263845  13.782   1.500  13.055
87338SOL     OW63846   5.155   7.349  12.295
87338SOL    HW163847   5.091   7.339  12.225
87338SOL    HW263848   5.111   7.317  12.373
87339SOL     OW63849  12.370   7.877   2.170
87339SOL    HW163850  12.325   7.810   2.220
87339SOL    HW263851  12.450   7.894   2.219
87340SOL     OW63852  11.035   1.289   5.053
87340SOL    HW163853  11.030   1.330   5.139
87340SOL    HW263854  11.045   1.195   5.072
87341SOL     OW63855   8.103   2.893   7.214
87341SOL    HW163856   8.077   2.878   7.305
87341SOL    HW263857   8.026   2.868   7.163
87342SOL     OW63858   7.588   7.927   8.355
87342SOL    HW163859   7.569   7.837   8.329
87342SOL    HW263860   7.615   7.970   8.274
87343SOL     OW63861   4.282  11.770   8.772
87343SOL    HW163862   4.312  11.781   8.681
87343SOL    HW263863   4.319  11.845   8.818
87344SOL     OW63864   1.144   4.802   0.520
87344SOL    HW163865   1.103   4.716   0.510
87344SOL    HW263866   1.075   4.864   0.499
87345SOL     OW63867   4.124  13.272   4.792
87345SOL    HW163868   4.160  13.236   4.711
87345SOL    HW263869   4.123  13.198   4.852
87346SOL     OW63870  12.906   9.982   4.177
87346SOL    HW163871  12.894   9.957   4.086
87346SOL    HW263872  12.997   9.960   4.197
87347SOL     OW63873   5.009   2.708   7.340
87347SOL    HW163874   5.044   2.794   7.318
87347SOL    HW263875   5.028   2.698   7.434
87348SOL     OW63876   8.323   7.961  14.670
87348SOL    HW163877   8.254   8.025  14.654
87348SOL    HW263878   8.298   7.884  14.619
87349SOL     OW63879  12.101   6.193   9.730
87349SOL    HW163880  12.172   6.252   9.709
87349SOL    HW263881  12.040   6.246   9.782
87350SOL     OW63882   8.806   8.563   6.813
87350SOL    HW163883   8.862   8.522   6.879
87350SOL    HW263884   8.854   8.551   6.731
87351SOL     OW63885   6.339   9.049  14.108
87351SOL    HW163886   6.362   9.125  14.055
87351SOL    HW263887   6.399   8.981  14.079
87352SOL     OW63888  11.978   0.670  12.175
87352SOL    HW163889  11.910   0.737  12.174
87352SOL    HW263890  12.031   0.690  12.252
87353SOL     OW63891   2.790   0.520   1.635
87353SOL    HW163892   2.839   0.464   1.695
87353SOL    HW263893   2.742   0.580   1.691
87354SOL     OW63894   5.924   9.491  11.460
87354SOL    HW163895   5.955   9.542  11.535
87354SOL    HW263896   5.916   9.555  11.390
87355SOL     OW63897   3.540  10.232   4.684
87355SOL    HW163898   3.610  10.230   4.618
87355SOL    HW263899   3.532  10.142   4.714
87356SOL     OW63900  12.992  10.148  11.040
87356SOL    HW163901  13.028  10.084  10.979
87356SOL    HW263902  12.900  10.122  11.050
87357SOL     OW63903   5.672  13.995  14.460
87357SOL    HW163904   5.645  13.928  14.523
87357SOL    HW263905   5.590  14.020  14.416
87358SOL     OW63906   2.862   0.184   6.576
87358SOL    HW163907   2.873   0.222   6.489
87358SOL    HW263908   2.884   0.091   6.565
87359SOL     OW63909   0.664   8.248   0.646
87359SOL    HW163910   0.655   8.159   0.680
87359SOL    HW263911   0.581   8.290   0.668
87360SOL     OW63912   4.762  14.842   5.773
87360SOL    HW163913   4.704  14.785   5.723
87360SOL    HW263914   4.702   0.015   5.827
87361SOL     OW63915   5.240   1.839   1.855
87361SOL    HW163916   5.163   1.886   1.887
87361SOL    HW263917   5.311   1.870   1.911
87362SOL     OW63918   9.530  11.914  10.488
87362SOL    HW163919   9.462  11.979  10.500
87362SOL    HW263920   9.551  11.884  10.576
87363SOL     OW63921   6.943   2.574  10.892
87363SOL    HW163922   6.909   2.493  10.929
87363SOL    HW263923   6.865   2.629  10.880
87364SOL     OW63924   7.349   2.493   8.297
87364SOL    HW163925   7.287   2.531   8.358
87364SOL    HW263926   7.423   2.466   8.351
87365SOL     OW63927  13.865   1.610  11.492
87365SOL    HW163928  13.930   1.555  11.535
87365SOL    HW263929  13.841   1.562  11.413
87366SOL     OW63930   7.487  12.730  10.912
87366SOL    HW163931   7.574  12.726  10.951
87366SOL    HW263932   7.482  12.817  10.873
87367SOL     OW63933   9.489   6.626   6.687
87367SOL    HW163934   9.495   6.530   6.690
87367SOL    HW263935   9.573   6.654   6.650
87368SOL     OW63936   9.128   4.607   3.044
87368SOL    HW163937   9.196   4.641   3.102
87368SOL    HW263938   9.059   4.674   3.046
87369SOL     OW63939   3.643   1.653   8.248
87369SOL    HW163940   3.603   1.701   8.321
87369SOL    HW263941   3.725   1.700   8.231
87370SOL     OW63942  12.252  13.466  14.500
87370SOL    HW163943  12.231  13.516  14.421
87370SOL    HW263944  12.337  13.499  14.527
87371SOL     OW63945   0.730  13.742   8.299
87371SOL    HW163946   0.678  13.662   8.287
87371SOL    HW263947   0.789  13.744   8.224
87372SOL     OW63948   1.592   9.851   2.863
87372SOL    HW163949   1.614   9.882   2.776
87372SOL    HW263950   1.675   9.825   2.901
87373SOL     OW63951  11.947   5.290   1.046
87373SOL    HW163952  11.985   5.341   1.118
87373SOL    HW263953  12.020   5.237   1.014
87374SOL     OW63954   6.902   0.189   3.590
87374SOL    HW163955   6.972   0.131   3.561
87374SOL    HW263956   6.873   0.234   3.510
87375SOL     OW63957   0.356   8.587  13.286
87375SOL    HW163958   0.339   8.611  13.377
87375SOL    HW263959   0.283   8.625  13.237
87376SOL     OW63960   8.745   7.547   0.268
87376SOL    HW163961   8.706   7.618   0.318
87376SOL    HW263962   8.694   7.469   0.292
87377SOL     OW63963   4.879   1.731   4.589
87377SOL    HW163964   4.881   1.780   4.507
87377SOL    HW263965   4.824   1.784   4.647
87378SOL     OW63966   9.321   5.295   4.990
87378SOL    HW163967   9.257   5.338   5.047
87378SOL    HW263968   9.401   5.347   4.999
87379SOL     OW63969   2.435   1.110   1.814
87379SOL    HW163970   2.518   1.103   1.861
87379SOL    HW263971   2.398   1.193   1.843
87380SOL     OW63972   1.789   8.187  11.823
87380SOL    HW163973   1.711   8.132  11.821
87380SOL    HW263974   1.796   8.215  11.914
87381SOL     OW63975  12.453   3.685   5.540
87381SOL    HW163976  12.447   3.767   5.491
87381SOL    HW263977  12.463   3.618   5.472
87382SOL     OW63978   6.393   6.617   8.657
87382SOL    HW163979   6.396   6.555   8.584
87382SOL    HW263980   6.469   6.674   8.643
87383SOL     OW63981   0.998   1.157   9.694
87383SOL    HW163982   0.945   1.235   9.707
87383SOL    HW263983   1.012   1.152   9.599
87384SOL     OW63984  14.267  11.374   3.461
87384SOL    HW163985  14.217  11.358   3.381
87384SOL    HW263986  14.358  11.375   3.433
87385SOL     OW63987   4.198  10.108   5.483
87385SOL    HW163988   4.152  10.025   5.473
87385SOL    HW263989   4.147  10.156   5.547
87386SOL     OW63990   2.620   2.481   7.625
87386SOL    HW163991   2.694   2.434   7.587
87386SOL    HW263992   2.550   2.474   7.560
87387SOL     OW63993   5.811   8.998   9.869
87387SOL    HW163994   5.748   9.039   9.810
87387SOL    HW263995   5.891   9.049   9.858
87388SOL     OW63996  13.314  11.235  14.178
87388SOL    HW163997  13.350  11.275  14.257
87388SOL    HW263998  13.219  11.239  14.190
87389SOL     OW63999   9.954   4.218   6.623
87389SOL    HW164000   9.887   4.211   6.691
87389SOL    HW264001  10.035   4.190   6.667
87390SOL     OW64002  13.087   6.910   3.355
87390SOL    HW164003  13.152   6.899   3.424
87390SOL    HW264004  13.062   7.002   3.360
87391SOL     OW64005   7.481   3.232   1.807
87391SOL    HW164006   7.440   3.236   1.720
87391SOL    HW264007   7.435   3.297   1.859
87392SOL     OW64008   8.882  14.441  11.167
87392SOL    HW164009   8.805  14.396  11.199
87392SOL    HW264010   8.937  14.372  11.131
87393SOL     OW64011  10.268   7.711  10.005
87393SOL    HW164012  10.306   7.780  10.059
87393SOL    HW264013  10.247   7.755   9.922
87394SOL     OW64014  10.267   0.281  11.133
87394SOL    HW164015  10.183   0.291  11.178
87394SOL    HW264016  10.296   0.192  11.155
87395SOL     OW64017   2.340   0.494   9.461
87395SOL    HW164018   2.405   0.466   9.396
87395SOL    HW264019   2.258   0.501   9.411
87396SOL     OW64020   7.171   4.920   7.758
87396SOL    HW164021   7.107   4.891   7.824
87396SOL    HW264022   7.152   4.866   7.682
87397SOL     OW64023  10.241   0.615   6.464
87397SOL    HW164024  10.246   0.657   6.550
87397SOL    HW264025  10.279   0.678   6.403
87398SOL     OW64026   4.701   9.563   5.334
87398SOL    HW164027   4.794   9.551   5.357
87398SOL    HW264028   4.681   9.653   5.360
87399SOL     OW64029   8.921  11.173  12.603
87399SOL    HW164030   8.833  11.141  12.586
87399SOL    HW264031   8.975  11.134  12.534
87400SOL     OW64032  10.846   8.408   6.222
87400SOL    HW164033  10.886   8.447   6.300
87400SOL    HW264034  10.795   8.334   6.256
87401SOL     OW64035   9.315  14.441  11.912
87401SOL    HW164036   9.336  14.514  11.854
87401SOL    HW264037   9.398  14.415  11.950
87402SOL     OW64038  13.061   0.148  14.465
87402SOL    HW164039  12.998   0.180  14.531
87402SOL    HW264040  13.024   0.066  14.435
87403SOL     OW64041   1.433   8.489   6.658
87403SOL    HW164042   1.499   8.513   6.593
87403SOL    HW264043   1.418   8.570   6.707
87404SOL     OW64044   9.421   9.919   7.333
87404SOL    HW164045   9.479   9.857   7.377
87404SOL    HW264046   9.471  10.001   7.331
87405SOL     OW64047   7.739  12.158  12.226
87405SOL    HW164048   7.787  12.141  12.308
87405SOL    HW264049   7.684  12.081  12.214
87406SOL     OW64050   9.075   8.183   2.081
87406SOL    HW164051   9.153   8.238   2.073
87406SOL    HW264052   9.052   8.188   2.174
87407SOL     OW64053   1.880   2.865   3.553
87407SOL    HW164054   1.963   2.912   3.557
87407SOL    HW264055   1.815   2.932   3.531
87408SOL     OW64056  12.890   1.113  13.615
87408SOL    HW164057  12.799   1.111  13.644
87408SOL    HW264058  12.886   1.123  13.520
87409SOL     OW64059  14.677   6.910   7.988
87409SOL    HW164060  14.655   6.837   7.930
87409SOL    HW264061  14.735   6.871   8.054
87410SOL     OW64062   8.897   1.033  10.354
87410SOL    HW164063   8.894   1.111  10.299
87410SOL    HW264064   8.911   1.067  10.442
87411SOL     OW64065  12.656   3.099   6.817
87411SOL    HW164066  12.668   3.091   6.722
87411SOL    HW264067  12.687   3.187   6.837
87412SOL     OW64068   0.130   8.194   8.607
87412SOL    HW164069   0.220   8.200   8.641
87412SOL    HW264070   0.122   8.104   8.577
87413SOL     OW64071  12.410   6.878   3.363
87413SOL    HW164072  12.377   6.966   3.378
87413SOL    HW264073  12.331   6.822   3.365
87414SOL     OW64074   8.030   9.740   2.437
87414SOL    HW164075   7.992   9.760   2.351
87414SOL    HW264076   7.963   9.689   2.482
87415SOL     OW64077   5.984   9.925   9.507
87415SOL    HW164078   5.981   9.830   9.515
87415SOL    HW264079   6.021   9.940   9.419
87416SOL     OW64080  12.124   0.240   6.174
87416SOL    HW164081  12.214   0.213   6.191
87416SOL    HW264082  12.116   0.238   6.078
87417SOL     OW64083  12.957   6.983   9.181
87417SOL    HW164084  12.871   7.003   9.146
87417SOL    HW264085  12.945   6.903   9.231
87418SOL     OW64086  11.311   4.652  11.066
87418SOL    HW164087  11.252   4.667  10.992
87418SOL    HW264088  11.395   4.688  11.037
87419SOL     OW64089  12.100   4.893   3.690
87419SOL    HW164090  12.030   4.828   3.698
87419SOL    HW264091  12.179   4.841   3.679
87420SOL     OW64092   0.161  13.482   3.843
87420SOL    HW164093   0.242  13.500   3.796
87420SOL    HW264094   0.104  13.440   3.778
87421SOL     OW64095   4.120   4.379   4.098
87421SOL    HW164096   4.065   4.357   4.173
87421SOL    HW264097   4.107   4.473   4.086
87422SOL     OW64098  12.812   5.226   1.423
87422SOL    HW164099  12.829   5.237   1.329
87422SOL    HW264100  12.717   5.220   1.429
87423SOL     OW64101   2.929   8.043  10.766
87423SOL    HW164102   2.962   8.029  10.678
87423SOL    HW264103   2.996   8.004  10.823
87424SOL     OW64104   5.986  12.956   9.432
87424SOL    HW164105   5.969  12.923   9.344
87424SOL    HW264106   5.900  12.965   9.472
87425SOL     OW64107  10.197   7.279   8.120
87425SOL    HW164108  10.230   7.257   8.207
87425SOL    HW264109  10.272   7.266   8.062
87426SOL     OW64110  12.819   3.467   5.818
87426SOL    HW164111  12.731   3.482   5.852
87426SOL    HW264112  12.848   3.385   5.859
87427SOL     OW64113  10.318  12.534  12.072
87427SOL    HW164114  10.245  12.565  12.019
87427SOL    HW264115  10.391  12.526  12.011
87428SOL     OW64116   3.800   0.349   0.342
87428SOL    HW164117   3.841   0.285   0.400
87428SOL    HW264118   3.818   0.317   0.254
87429SOL     OW64119   0.655   0.300   0.552
87429SOL    HW164120   0.642   0.294   0.458
87429SOL    HW264121   0.617   0.219   0.587
87430SOL     OW64122   1.540  12.280  13.314
87430SOL    HW164123   1.619  12.323  13.347
87430SOL    HW264124   1.571  12.198  13.276
87431SOL     OW64125   8.319   6.671   6.046
87431SOL    HW164126   8.300   6.760   6.076
87431SOL    HW264127   8.410   6.676   6.015
87432SOL     OW64128   0.173  10.828  12.112
87432SOL    HW164129   0.089  10.791  12.139
87432SOL    HW264130   0.214  10.760  12.060
87433SOL     OW64131   2.247   8.836   9.655
87433SOL    HW164132   2.256   8.764   9.718
87433SOL    HW264133   2.255   8.794   9.569
87434SOL     OW64134  13.275   6.386   7.984
87434SOL    HW164135  13.339   6.378   8.055
87434SOL    HW264136  13.326   6.378   7.904
87435SOL     OW64137   8.835  13.308   8.007
87435SOL    HW164138   8.896  13.356   8.062
87435SOL    HW264139   8.768  13.277   8.067
87436SOL     OW64140   0.106   5.180   0.755
87436SOL    HW164141   0.057   5.258   0.729
87436SOL    HW264142   0.088   5.117   0.685
87437SOL     OW64143  11.206  10.405   6.908
87437SOL    HW164144  11.282  10.377   6.857
87437SOL    HW264145  11.143  10.334   6.897
87438SOL     OW64146   3.337   8.319   4.358
87438SOL    HW164147   3.417   8.319   4.305
87438SOL    HW264148   3.289   8.397   4.330
87439SOL     OW64149   5.859   9.731   5.685
87439SOL    HW164150   5.792   9.679   5.639
87439SOL    HW264151   5.942   9.690   5.659
87440SOL     OW64152   0.253   7.255   8.192
87440SOL    HW164153   0.347   7.237   8.191
87440SOL    HW264154   0.241   7.320   8.261
87441SOL     OW64155  13.074  13.617  10.429
87441SOL    HW164156  13.148  13.678  10.427
87441SOL    HW264157  13.112  13.532  10.406
87442SOL     OW64158  12.138   4.787   2.739
87442SOL    HW164159  12.199   4.770   2.810
87442SOL    HW264160  12.188   4.837   2.675
87443SOL     OW64161   8.287  10.749   5.653
87443SOL    HW164162   8.191  10.747   5.657
87443SOL    HW264163   8.307  10.795   5.572
87444SOL     OW64164   5.696   5.188   8.032
87444SOL    HW164165   5.660   5.275   8.045
87444SOL    HW264166   5.716   5.157   8.120
87445SOL     OW64167   7.679   3.515   5.283
87445SOL    HW164168   7.650   3.584   5.224
87445SOL    HW264169   7.637   3.537   5.367
87446SOL     OW64170  12.000  11.503   2.985
87446SOL    HW164171  11.904  11.499   2.980
87446SOL    HW264172  12.019  11.502   3.079
87447SOL     OW64173  12.563   4.699   3.210
87447SOL    HW164174  12.610   4.752   3.145
87447SOL    HW264175  12.504   4.644   3.158
87448SOL     OW64176   7.736   4.145   1.711
87448SOL    HW164177   7.697   4.170   1.627
87448SOL    HW264178   7.828   4.127   1.691
87449SOL     OW64179  14.661   9.215   1.653
87449SOL    HW164180  14.606   9.161   1.710
87449SOL    HW264181  14.667   9.299   1.698
87450SOL     OW64182   8.113   9.595   9.252
87450SOL    HW164183   8.037   9.649   9.273
87450SOL    HW264184   8.082   9.532   9.187
87451SOL     OW64185   7.389  10.724   5.744
87451SOL    HW164186   7.394  10.819   5.756
87451SOL    HW264187   7.468  10.703   5.694
87452SOL     OW64188   0.554   4.295  12.700
87452SOL    HW164189   0.540   4.360  12.769
87452SOL    HW264190   0.479   4.306  12.642
87453SOL     OW64191  13.885   5.762   9.041
87453SOL    HW164192  13.872   5.673   9.074
87453SOL    HW264193  13.970   5.760   8.998
87454SOL     OW64194   0.959  12.983   9.167
87454SOL    HW164195   0.944  13.061   9.114
87454SOL    HW264196   1.046  12.994   9.203
87455SOL     OW64197  12.098   0.337   4.102
87455SOL    HW164198  12.127   0.278   4.172
87455SOL    HW264199  12.025   0.385   4.140
87456SOL     OW64200   3.920  13.497  13.365
87456SOL    HW164201   3.844  13.502  13.307
87456SOL    HW264202   3.952  13.408  13.355
87457SOL     OW64203   2.467  10.443   7.612
87457SOL    HW164204   2.441  10.479   7.527
87457SOL    HW264205   2.484  10.350   7.594
87458SOL     OW64206   8.296  13.236   9.150
87458SOL    HW164207   8.204  13.260   9.159
87458SOL    HW264208   8.295  13.140   9.143
87459SOL     OW64209  12.999  14.871   8.094
87459SOL    HW164210  12.916   0.037   8.087
87459SOL    HW264211  12.976  14.781   8.118
87460SOL     OW64212   7.432  10.997   9.606
87460SOL    HW164213   7.398  11.076   9.647
87460SOL    HW264214   7.482  11.028   9.530
87461SOL     OW64215   6.145   5.424   1.555
87461SOL    HW164216   6.137   5.424   1.651
87461SOL    HW264217   6.056   5.411   1.524
87462SOL     OW64218   2.949   0.596   2.310
87462SOL    HW164219   2.953   0.649   2.231
87462SOL    HW264220   2.913   0.512   2.281
87463SOL     OW64221  12.147   0.326   2.567
87463SOL    HW164222  12.175   0.416   2.552
87463SOL    HW264223  12.181   0.277   2.491
87464SOL     OW64224   4.987   2.980   1.523
87464SOL    HW164225   4.894   2.966   1.502
87464SOL    HW264226   5.004   2.922   1.597
87465SOL     OW64227   9.664  13.974  13.476
87465SOL    HW164228   9.744  14.027  13.478
87465SOL    HW264229   9.631  13.976  13.565
87466SOL     OW64230  12.699  12.410  13.928
87466SOL    HW164231  12.741  12.407  14.015
87466SOL    HW264232  12.625  12.470  13.940
87467SOL     OW64233  14.258  10.666  10.682
87467SOL    HW164234  14.338  10.686  10.633
87467SOL    HW264235  14.284  10.670  10.774
87468SOL     OW64236   7.859   5.078  13.250
87468SOL    HW164237   7.941   5.031  13.235
87468SOL    HW264238   7.864   5.154  13.191
87469SOL     OW64239  11.162   3.347   2.647
87469SOL    HW164240  11.196   3.382   2.730
87469SOL    HW264241  11.240   3.335   2.593
87470SOL     OW64242   5.913  11.505  12.212
87470SOL    HW164243   5.909  11.410  12.198
87470SOL    HW264244   5.856  11.521  12.287
87471SOL     OW64245  12.503   5.327  13.399
87471SOL    HW164246  12.491   5.298  13.308
87471SOL    HW264247  12.476   5.419  13.398
87472SOL     OW64248   8.836   4.131   8.237
87472SOL    HW164249   8.775   4.057   8.238
87472SOL    HW264250   8.780   4.207   8.220
87473SOL     OW64251   7.325   6.353   5.437
87473SOL    HW164252   7.355   6.271   5.397
87473SOL    HW264253   7.405   6.402   5.455
87474SOL     OW64254   5.580  13.294   5.759
87474SOL    HW164255   5.485  13.282   5.761
87474SOL    HW264256   5.601  13.328   5.846
87475SOL     OW64257   0.779   1.109  11.914
87475SOL    HW164258   0.686   1.085  11.914
87475SOL    HW264259   0.781   1.194  11.959
87476SOL     OW64260   0.420   6.569  10.405
87476SOL    HW164261   0.330   6.563  10.434
87476SOL    HW264262   0.468   6.601  10.481
87477SOL     OW64263   8.318  14.096  11.082
87477SOL    HW164264   8.310  14.002  11.099
87477SOL    HW264265   8.411  14.108  11.061
87478SOL     OW64266   7.720   4.325   9.322
87478SOL    HW164267   7.775   4.347   9.247
87478SOL    HW264268   7.683   4.409   9.350
87479SOL     OW64269   3.438   8.431   2.582
87479SOL    HW164270   3.483   8.346   2.586
87479SOL    HW264271   3.345   8.408   2.574
87480SOL     OW64272  12.315   0.011  13.894
87480SOL    HW164273  12.227   0.001  13.858
87480SOL    HW264274  12.331  14.808  13.941
87481SOL     OW64275   0.590   9.886   2.979
87481SOL    HW164276   0.644   9.958   3.012
87481SOL    HW264277   0.621   9.873   2.889
87482SOL     OW64278  10.302   1.748   2.961
87482SOL    HW164279  10.274   1.676   3.018
87482SOL    HW264280  10.390   1.771   2.992
87483SOL     OW64281  10.522   6.590   1.269
87483SOL    HW164282  10.507   6.570   1.177
87483SOL    HW264283  10.498   6.510   1.316
87484SOL     OW64284  14.785   0.376   0.596
87484SOL    HW164285  14.779   0.471   0.586
87484SOL    HW264286  14.728   0.357   0.671
87485SOL     OW64287  12.985   8.840  13.784
87485SOL    HW164288  12.942   8.756  13.773
87485SOL    HW264289  13.043   8.848  13.709
87486SOL     OW64290  13.449  14.512   4.595
87486SOL    HW164291  13.513  14.583   4.599
87486SOL    HW264292  13.502  14.434   4.581
87487SOL     OW64293   2.659  13.987   1.910
87487SOL    HW164294   2.604  13.998   1.832
87487SOL    HW264295   2.610  14.032   1.980
87488SOL     OW64296   9.231  10.131   3.017
87488SOL    HW164297   9.301  10.091   2.965
87488SOL    HW264298   9.155  10.075   3.003
87489SOL     OW64299   5.700   5.565   2.131
87489SOL    HW164300   5.712   5.657   2.153
87489SOL    HW264301   5.788   5.530   2.120
87490SOL     OW64302  11.385  14.128   5.445
87490SOL    HW164303  11.344  14.046   5.473
87490SOL    HW264304  11.443  14.151   5.517
87491SOL     OW64305  12.462   4.596   7.518
87491SOL    HW164306  12.377   4.553   7.520
87491SOL    HW264307  12.460   4.659   7.590
87492SOL     OW64308   9.242   4.693   1.665
87492SOL    HW164309   9.155   4.702   1.704
87492SOL    HW264310   9.271   4.783   1.652
87493SOL     OW64311   1.302   4.661   7.840
87493SOL    HW164312   1.215   4.622   7.827
87493SOL    HW264313   1.288   4.754   7.825
87494SOL     OW64314   7.816   2.039   4.231
87494SOL    HW164315   7.851   1.993   4.155
87494SOL    HW264316   7.770   1.971   4.281
87495SOL     OW64317   4.572   0.914   4.115
87495SOL    HW164318   4.623   0.851   4.064
87495SOL    HW264319   4.638   0.970   4.156
87496SOL     OW64320  14.715   2.183  11.069
87496SOL    HW164321  14.782   2.232  11.116
87496SOL    HW264322  14.632   2.215  11.104
87497SOL     OW64323   9.513   6.794   8.627
87497SOL    HW164324   9.573   6.868   8.638
87497SOL    HW264325   9.534   6.736   8.700
87498SOL     OW64326  11.009   9.911  10.578
87498SOL    HW164327  11.031   9.858  10.502
87498SOL    HW264328  10.998   9.847  10.649
87499SOL     OW64329   5.776   4.897   6.102
87499SOL    HW164330   5.856   4.939   6.134
87499SOL    HW264331   5.766   4.819   6.157
87500SOL     OW64332   4.763  11.784  11.436
87500SOL    HW164333   4.721  11.822  11.359
87500SOL    HW264334   4.835  11.733  11.401
87501SOL     OW64335   0.737   5.049   3.382
87501SOL    HW164336   0.665   5.112   3.378
87501SOL    HW264337   0.815   5.103   3.393
87502SOL     OW64338   4.910   4.723  14.085
87502SOL    HW164339   4.880   4.633  14.092
87502SOL    HW264340   4.904   4.743  13.991
87503SOL     OW64341   2.343   9.100   9.799
87503SOL    HW164342   2.313   9.032   9.739
87503SOL    HW264343   2.398   9.053   9.862
87504SOL     OW64344   0.457   1.710   2.934
87504SOL    HW164345   0.492   1.623   2.913
87504SOL    HW264346   0.421   1.742   2.851
87505SOL     OW64347  11.054   9.507   2.794
87505SOL    HW164348  11.121   9.450   2.757
87505SOL    HW264349  11.068   9.592   2.751
87506SOL     OW64350  10.594  13.619  13.878
87506SOL    HW164351  10.510  13.584  13.908
87506SOL    HW264352  10.574  13.708  13.849
87507SOL     OW64353   3.724   2.192   5.988
87507SOL    HW164354   3.773   2.199   6.070
87507SOL    HW264355   3.791   2.186   5.920
87508SOL     OW64356   4.236  13.027   9.509
87508SOL    HW164357   4.244  12.946   9.458
87508SOL    HW264358   4.278  13.093   9.454
87509SOL     OW64359   2.827   1.931  10.028
87509SOL    HW164360   2.830   1.991  10.103
87509SOL    HW264361   2.890   1.863  10.051
87510SOL     OW64362  13.415   0.300   0.083
87510SOL    HW164363  13.366   0.300   0.000
87510SOL    HW264364  13.358   0.343   0.145
87511SOL     OW64365   0.430  13.745   3.808
87511SOL    HW164366   0.432  13.804   3.882
87511SOL    HW264367   0.493  13.676   3.830
87512SOL     OW64368  14.763   0.242   6.683
87512SOL    HW164369  14.851   0.250   6.646
87512SOL    HW264370  14.710   0.205   6.612
87513SOL     OW64371   7.667   8.081   2.430
87513SOL    HW164372   7.577   8.109   2.416
87513SOL    HW264373   7.705   8.078   2.343
87514SOL     OW64374  12.532   6.404  11.292
87514SOL    HW164375  12.447   6.406  11.249
87514SOL    HW264376  12.559   6.312  11.289
87515SOL     OW64377   9.631   1.657   7.958
87515SOL    HW164378   9.615   1.744   7.922
87515SOL    HW264379   9.574   1.599   7.909
87516SOL     OW64380   3.291  13.966   0.488
87516SOL    HW164381   3.314  13.936   0.400
87516SOL    HW264382   3.196  13.972   0.488
87517SOL     OW64383   9.381   2.036   1.123
87517SOL    HW164384   9.420   2.054   1.037
87517SOL    HW264385   9.322   1.963   1.107
87518SOL     OW64386   1.225  14.064  13.538
87518SOL    HW164387   1.177  14.145  13.554
87518SOL    HW264388   1.190  14.003  13.603
87519SOL     OW64389  12.259   6.271   6.997
87519SOL    HW164390  12.301   6.284   6.912
87519SOL    HW264391  12.284   6.349   7.047
87520SOL     OW64392  11.605  14.281   9.148
87520SOL    HW164393  11.609  14.236   9.063
87520SOL    HW264394  11.676  14.345   9.144
87521SOL     OW64395  14.764  11.685   5.306
87521SOL    HW164396  14.773  11.629   5.382
87521SOL    HW264397  14.707  11.637   5.246
87522SOL     OW64398   7.019   3.305  11.290
87522SOL    HW164399   7.096   3.299  11.348
87522SOL    HW264400   6.948   3.265  11.341
87523SOL     OW64401   1.973   2.243   5.088
87523SOL    HW164402   1.932   2.169   5.044
87523SOL    HW264403   2.064   2.241   5.059
87524SOL     OW64404   6.223  10.001   7.781
87524SOL    HW164405   6.221  10.034   7.870
87524SOL    HW264406   6.222   9.905   7.790
87525SOL     OW64407   9.366   6.800  13.855
87525SOL    HW164408   9.383   6.795  13.760
87525SOL    HW264409   9.413   6.878  13.884
87526SOL     OW64410   1.357   2.585   2.287
87526SOL    HW164411   1.359   2.602   2.193
87526SOL    HW264412   1.441   2.542   2.306
87527SOL     OW64413   2.207   3.342   7.377
87527SOL    HW164414   2.221   3.436   7.392
87527SOL    HW264415   2.229   3.301   7.461
87528SOL     OW64416   2.071   0.735   2.750
87528SOL    HW164417   2.027   0.798   2.806
87528SOL    HW264418   2.149   0.781   2.719
87529SOL     OW64419   6.580   7.136   1.827
87529SOL    HW164420   6.605   7.044   1.827
87529SOL    HW264421   6.603   7.168   1.740
87530SOL     OW64422   6.332  14.346   2.528
87530SOL    HW164423   6.283  14.265   2.542
87530SOL    HW264424   6.269  14.405   2.488
87531SOL     OW64425   5.941  13.916   4.649
87531SOL    HW164426   5.866  13.930   4.707
87531SOL    HW264427   5.942  13.994   4.593
87532SOL     OW64428  11.604   5.850   8.608
87532SOL    HW164429  11.678   5.911   8.602
87532SOL    HW264430  11.539   5.896   8.662
87533SOL     OW64431   3.149   6.089  10.832
87533SOL    HW164432   3.235   6.132  10.837
87533SOL    HW264433   3.106   6.111  10.914
87534SOL     OW64434   7.704   4.344   7.445
87534SOL    HW164435   7.673   4.381   7.363
87534SOL    HW264436   7.793   4.314   7.425
87535SOL     OW64437   8.428   0.355   8.960
87535SOL    HW164438   8.494   0.395   9.017
87535SOL    HW264439   8.381   0.294   9.017
87536SOL     OW64440  10.931   9.023   2.740
87536SOL    HW164441  10.927   9.101   2.685
87536SOL    HW264442  10.910   9.054   2.828
87537SOL     OW64443   3.461   1.938   2.671
87537SOL    HW164444   3.411   1.856   2.662
87537SOL    HW264445   3.528   1.918   2.736
87538SOL     OW64446   9.991   6.664  14.635
87538SOL    HW164447   9.920   6.608  14.665
87538SOL    HW264448   9.968   6.751  14.665
87539SOL     OW64449   3.119   2.004   7.159
87539SOL    HW164450   3.187   1.963   7.212
87539SOL    HW264451   3.093   1.937   7.097
87540SOL     OW64452  10.021   5.051   0.792
87540SOL    HW164453  10.010   5.099   0.710
87540SOL    HW264454  10.115   5.045   0.805
87541SOL     OW64455   3.664   2.120  14.755
87541SOL    HW164456   3.693   2.166  14.834
87541SOL    HW264457   3.596   2.177  14.718
87542SOL     OW64458   7.076   7.548  13.906
87542SOL    HW164459   7.020   7.556  13.983
87542SOL    HW264460   7.106   7.457  13.906
87543SOL     OW64461   9.868   2.567   0.750
87543SOL    HW164462   9.902   2.636   0.694
87543SOL    HW264463   9.778   2.554   0.719
87544SOL     OW64464   7.749   0.493   4.436
87544SOL    HW164465   7.700   0.447   4.504
87544SOL    HW264466   7.685   0.552   4.395
87545SOL     OW64467   9.089   7.166  10.287
87545SOL    HW164468   9.103   7.239  10.348
87545SOL    HW264469   9.176   7.132  10.270
87546SOL     OW64470  10.497  11.276   8.381
87546SOL    HW164471  10.516  11.216   8.453
87546SOL    HW264472  10.582  11.314   8.358
87547SOL     OW64473  13.634   3.153  13.785
87547SOL    HW164474  13.595   3.066  13.795
87547SOL    HW264475  13.676   3.170  13.869
87548SOL     OW64476  12.254   1.623  12.014
87548SOL    HW164477  12.181   1.631  12.076
87548SOL    HW264478  12.258   1.708  11.970
87549SOL     OW64479  11.576  12.535   7.793
87549SOL    HW164480  11.504  12.539   7.856
87549SOL    HW264481  11.581  12.623   7.756
87550SOL     OW64482   6.392   9.985   1.556
87550SOL    HW164483   6.320   9.954   1.500
87550SOL    HW264484   6.470   9.941   1.521
87551SOL     OW64485  11.562  11.172   2.655
87551SOL    HW164486  11.607  11.137   2.579
87551SOL    HW264487  11.633  11.202   2.713
87552SOL     OW64488   1.787   7.455   5.829
87552SOL    HW164489   1.757   7.527   5.884
87552SOL    HW264490   1.806   7.384   5.889
87553SOL     OW64491   6.436   9.062  11.915
87553SOL    HW164492   6.496   9.069  11.989
87553SOL    HW264493   6.488   9.021  11.846
87554SOL     OW64494   2.113   3.032   6.330
87554SOL    HW164495   2.049   2.965   6.307
87554SOL    HW264496   2.146   3.064   6.246
87555SOL     OW64497  12.472   7.383   8.998
87555SOL    HW164498  12.537   7.442   9.036
87555SOL    HW264499  12.427   7.436   8.932
87556SOL     OW64500  11.684   3.063   5.283
87556SOL    HW164501  11.751   3.012   5.237
87556SOL    HW264502  11.638   3.109   5.213
87557SOL     OW64503   7.551  10.942  10.498
87557SOL    HW164504   7.598  11.015  10.539
87557SOL    HW264505   7.471  10.982  10.463
87558SOL     OW64506   3.820   7.428   8.720
87558SOL    HW164507   3.778   7.506   8.686
87558SOL    HW264508   3.751   7.381   8.766
87559SOL     OW64509  12.994   7.122  13.004
87559SOL    HW164510  12.914   7.173  13.004
87559SOL    HW264511  13.055   7.173  13.057
87560SOL     OW64512  12.637   8.848   4.847
87560SOL    HW164513  12.730   8.873   4.846
87560SOL    HW264514  12.628   8.796   4.927
87561SOL     OW64515   5.298   0.520   8.469
87561SOL    HW164516   5.379   0.569   8.461
87561SOL    HW264517   5.231   0.586   8.490
87562SOL     OW64518   1.888  11.558   6.924
87562SOL    HW164519   1.956  11.496   6.951
87562SOL    HW264520   1.920  11.595   6.842
87563SOL     OW64521   9.683  11.160   4.534
87563SOL    HW164522   9.648  11.230   4.589
87563SOL    HW264523   9.658  11.079   4.580
87564SOL     OW64524   9.605   9.902   5.445
87564SOL    HW164525   9.601   9.991   5.480
87564SOL    HW264526   9.585   9.912   5.352
87565SOL     OW64527   9.525   9.549   3.541
87565SOL    HW164528   9.439   9.574   3.575
87565SOL    HW264529   9.508   9.473   3.486
87566SOL     OW64530   7.951   4.071  12.843
87566SOL    HW164531   7.941   4.019  12.922
87566SOL    HW264532   8.043   4.061  12.819
87567SOL     OW64533  12.844   9.433   4.928
87567SOL    HW164534  12.879   9.393   4.848
87567SOL    HW264535  12.861   9.368   4.996
87568SOL     OW64536   8.001   9.543   6.260
87568SOL    HW164537   7.961   9.565   6.345
87568SOL    HW264538   7.973   9.614   6.202
87569SOL     OW64539   0.772   4.781  14.285
87569SOL    HW164540   0.824   4.704  14.265
87569SOL    HW264541   0.768   4.830  14.203
87570SOL     OW64542  13.786   1.658   7.605
87570SOL    HW164543  13.744   1.611   7.678
87570SOL    HW264544  13.760   1.609   7.527
87571SOL     OW64545  11.600   7.620   4.280
87571SOL    HW164546  11.568   7.675   4.352
87571SOL    HW264547  11.562   7.659   4.202
87572SOL     OW64548  13.403   3.268  11.623
87572SOL    HW164549  13.497   3.277  11.610
87572SOL    HW264550  13.393   3.252  11.717
87573SOL     OW64551   0.967   9.217   3.141
87573SOL    HW164552   0.877   9.249   3.134
87573SOL    HW264553   0.967   9.164   3.220
87574SOL     OW64554   1.529  13.307   3.459
87574SOL    HW164555   1.448  13.333   3.414
87574SOL    HW264556   1.550  13.221   3.422
87575SOL     OW64557   4.820   0.153   2.957
87575SOL    HW164558   4.784   0.156   2.868
87575SOL    HW264559   4.861   0.067   2.964
87576SOL     OW64560  11.837   6.379  11.663
87576SOL    HW164561  11.903   6.312  11.680
87576SOL    HW264562  11.887   6.461  11.654
87577SOL     OW64563  14.361  10.831  13.169
87577SOL    HW164564  14.281  10.877  13.195
87577SOL    HW264565  14.378  10.771  13.241
87578SOL     OW64566   1.128   2.871   4.168
87578SOL    HW164567   1.155   2.800   4.111
87578SOL    HW264568   1.070   2.830   4.232
87579SOL     OW64569   1.984  11.446  10.125
87579SOL    HW164570   2.048  11.405  10.182
87579SOL    HW264571   1.912  11.384  10.119
87580SOL     OW64572  11.947  13.655  13.294
87580SOL    HW164573  12.003  13.731  13.301
87580SOL    HW264574  11.858  13.688  13.309
87581SOL     OW64575  11.851   0.450   5.369
87581SOL    HW164576  11.805   0.407   5.441
87581SOL    HW264577  11.825   0.542   5.375
87582SOL     OW64578   7.153  11.974   3.620
87582SOL    HW164579   7.061  11.949   3.612
87582SOL    HW264580   7.184  11.927   3.698
87583SOL     OW64581   9.807   7.082  12.050
87583SOL    HW164582   9.803   7.111  12.141
87583SOL    HW264583   9.868   7.009  12.051
87584SOL     OW64584  11.740  11.420   4.122
87584SOL    HW164585  11.780  11.395   4.038
87584SOL    HW264586  11.714  11.511   4.110
87585SOL     OW64587   2.984   7.370  13.949
87585SOL    HW164588   2.932   7.435  13.997
87585SOL    HW264589   3.071   7.374  13.990
87586SOL     OW64590   3.791   0.512   5.744
87586SOL    HW164591   3.823   0.423   5.757
87586SOL    HW264592   3.713   0.518   5.799
87587SOL     OW64593   5.967   5.869   8.527
87587SOL    HW164594   6.048   5.822   8.546
87587SOL    HW264595   5.969   5.945   8.585
87588SOL     OW64596  11.876   5.644   7.909
87588SOL    HW164597  11.869   5.739   7.900
87588SOL    HW264598  11.892   5.613   7.820
87589SOL     OW64599   4.309   6.710   0.264
87589SOL    HW164600   4.228   6.710   0.212
87589SOL    HW264601   4.286   6.659   0.342
87590SOL     OW64602  10.626  14.203   6.106
87590SOL    HW164603  10.643  14.132   6.168
87590SOL    HW264604  10.555  14.171   6.051
87591SOL     OW64605   1.395   8.905   4.722
87591SOL    HW164606   1.458   8.833   4.732
87591SOL    HW264607   1.450   8.982   4.708
87592SOL     OW64608   0.037   8.366  10.270
87592SOL    HW164609  14.855   8.433  10.241
87592SOL    HW264610   0.010   8.345  10.359
87593SOL     OW64611  13.448   6.004   2.878
87593SOL    HW164612  13.495   5.949   2.940
87593SOL    HW264613  13.356   5.981   2.889
87594SOL     OW64614  12.926   7.288  11.997
87594SOL    HW164615  12.970   7.262  11.916
87594SOL    HW264616  12.833   7.272  11.980
87595SOL     OW64617  11.199  12.282  14.623
87595SOL    HW164618  11.209  12.186  14.620
87595SOL    HW264619  11.257  12.314  14.554
87596SOL     OW64620   5.108   9.458   8.283
87596SOL    HW164621   5.146   9.381   8.242
87596SOL    HW264622   5.013   9.445   8.277
87597SOL     OW64623   0.946   9.290   5.833
87597SOL    HW164624   0.966   9.364   5.891
87597SOL    HW264625   1.012   9.295   5.764
87598SOL     OW64626   5.444  11.844   2.958
87598SOL    HW164627   5.456  11.886   3.044
87598SOL    HW264628   5.529  11.805   2.938
87599SOL     OW64629   5.442  10.995   0.041
87599SOL    HW164630   5.498  11.000  14.843
87599SOL    HW264631   5.484  10.930   0.097
87600SOL     OW64632   6.454  10.594   8.157
87600SOL    HW164633   6.458  10.504   8.187
87600SOL    HW264634   6.379  10.632   8.204
87601SOL     OW64635  13.620   8.774  12.559
87601SOL    HW164636  13.596   8.854  12.608
87601SOL    HW264637  13.537   8.728  12.549
87602SOL     OW64638  14.508   5.695   6.068
87602SOL    HW164639  14.489   5.730   5.981
87602SOL    HW264640  14.505   5.600   6.057
87603SOL     OW64641   1.052  14.850  14.594
87603SOL    HW164642   1.012   0.058  14.583
87603SOL    HW264643   1.069  14.844  14.687
87604SOL     OW64644   0.026   6.712  13.220
87604SOL    HW164645   0.119   6.698  13.240
87604SOL    HW264646  14.878   6.633  13.173
87605SOL     OW64647  10.784   5.743   6.633
87605SOL    HW164648  10.699   5.709   6.661
87605SOL    HW264649  10.804   5.812   6.697
87606SOL     OW64650   9.615  10.739   4.225
87606SOL    HW164651   9.613  10.680   4.300
87606SOL    HW264652   9.676  10.808   4.250
87607SOL     OW64653   0.811   1.024   7.819
87607SOL    HW164654   0.901   1.052   7.804
87607SOL    HW264655   0.812   0.929   7.803
87608SOL     OW64656   9.681   9.715  14.792
87608SOL    HW164657   9.620   9.652  14.830
87608SOL    HW264658   9.639   9.800  14.807
87609SOL     OW64659   8.352  10.986   3.813
87609SOL    HW164660   8.394  11.068   3.840
87609SOL    HW264661   8.312  11.006   3.729
87610SOL     OW64662  14.318   9.226   4.827
87610SOL    HW164663  14.403   9.184   4.814
87610SOL    HW264664  14.254   9.155   4.823
87611SOL     OW64665   7.968  11.354  11.684
87611SOL    HW164666   8.033  11.297  11.725
87611SOL    HW264667   7.911  11.294  11.635
87612SOL     OW64668   5.998  13.715  12.658
87612SOL    HW164669   5.992  13.731  12.752
87612SOL    HW264670   5.979  13.621  12.648
87613SOL     OW64671   6.970  12.424   9.194
87613SOL    HW164672   6.995  12.450   9.105
87613SOL    HW264673   6.951  12.331   9.187
87614SOL     OW64674  10.347   5.784   9.398
87614SOL    HW164675  10.427   5.806   9.350
87614SOL    HW264676  10.377   5.727   9.469
87615SOL     OW64677  13.275   1.123   8.193
87615SOL    HW164678  13.354   1.110   8.141
87615SOL    HW264679  13.211   1.159   8.132
87616SOL     OW64680   2.717  11.176   0.721
87616SOL    HW164681   2.713  11.088   0.760
87616SOL    HW264682   2.627  11.195   0.695
87617SOL     OW64683   0.846   1.820  11.764
87617SOL    HW164684   0.931   1.777  11.752
87617SOL    HW264685   0.845   1.848  11.855
87618SOL     OW64686   1.865   7.655   9.790
87618SOL    HW164687   1.864   7.687   9.881
87618SOL    HW264688   1.923   7.714   9.744
87619SOL     OW64689   1.496   1.580   6.609
87619SOL    HW164690   1.569   1.584   6.547
87619SOL    HW264691   1.525   1.631   6.684
87620SOL     OW64692   9.889  13.671   7.445
87620SOL    HW164693   9.814  13.722   7.476
87620SOL    HW264694   9.908  13.706   7.358
87621SOL     OW64695   9.831   4.505   5.451
87621SOL    HW164696   9.869   4.488   5.537
87621SOL    HW264697   9.767   4.574   5.466
87622SOL     OW64698   2.532   2.063   5.454
87622SOL    HW164699   2.440   2.041   5.469
87622SOL    HW264700   2.576   2.041   5.536
87623SOL     OW64701   8.967   5.623   4.453
87623SOL    HW164702   9.009   5.698   4.496
87623SOL    HW264703   8.897   5.662   4.400
87624SOL     OW64704  12.706   2.274  10.567
87624SOL    HW164705  12.636   2.244  10.625
87624SOL    HW264706  12.661   2.308  10.489
87625SOL     OW64707   1.502  14.711   2.339
87625SOL    HW164708   1.443  14.780   2.310
87625SOL    HW264709   1.556  14.754   2.406
87626SOL     OW64710   5.456   2.414  10.060
87626SOL    HW164711   5.529   2.357  10.037
87626SOL    HW264712   5.420   2.442   9.976
87627SOL     OW64713   6.471   5.895   2.859
87627SOL    HW164714   6.558   5.873   2.891
87627SOL    HW264715   6.462   5.989   2.875
87628SOL     OW64716  14.674   4.860   4.494
87628SOL    HW164717  14.591   4.864   4.445
87628SOL    HW264718  14.671   4.776   4.538
87629SOL     OW64719  12.981   0.921   5.102
87629SOL    HW164720  12.954   0.876   5.022
87629SOL    HW264721  12.946   0.867   5.173
87630SOL     OW64722   9.377  14.451   5.244
87630SOL    HW164723   9.390  14.435   5.338
87630SOL    HW264724   9.339  14.370   5.211
87631SOL     OW64725   0.432   7.241  14.324
87631SOL    HW164726   0.354   7.244  14.379
87631SOL    HW264727   0.407   7.286  14.243
87632SOL     OW64728   4.550   3.774   9.638
87632SOL    HW164729   4.471   3.822   9.611
87632SOL    HW264730   4.614   3.795   9.570
87633SOL     OW64731  13.942   7.728   7.442
87633SOL    HW164732  14.023   7.682   7.467
87633SOL    HW264733  13.891   7.730   7.523
87634SOL     OW64734   9.124   7.667   7.474
87634SOL    HW164735   9.034   7.696   7.488
87634SOL    HW264736   9.178   7.740   7.506
87635SOL     OW64737   7.405   7.294   0.457
87635SOL    HW164738   7.353   7.220   0.425
87635SOL    HW264739   7.478   7.301   0.396
87636SOL     OW64740   1.442   0.402  14.105
87636SOL    HW164741   1.525   0.444  14.127
87636SOL    HW264742   1.424   0.431  14.016
87637SOL     OW64743   4.419   0.391   7.621
87637SOL    HW164744   4.369   0.319   7.582
87637SOL    HW264745   4.355   0.438   7.675
87638SOL     OW64746   2.519  12.161   6.191
87638SOL    HW164747   2.496  12.251   6.214
87638SOL    HW264748   2.615  12.160   6.191
87639SOL     OW64749   0.119   6.531   5.916
87639SOL    HW164750   0.162   6.547   5.832
87639SOL    HW264751   0.064   6.454   5.900
87640SOL     OW64752  11.194   2.425  14.588
87640SOL    HW164753  11.152   2.460  14.509
87640SOL    HW264754  11.271   2.379  14.556
87641SOL     OW64755  11.770  14.450   4.596
87641SOL    HW164756  11.824  14.401   4.657
87641SOL    HW264757  11.717  14.508   4.651
87642SOL     OW64758  11.446   7.828  14.010
87642SOL    HW164759  11.506   7.754  14.016
87642SOL    HW264760  11.498   7.899  13.972
87643SOL     OW64761  12.875   9.811   3.404
87643SOL    HW164762  12.961   9.798   3.362
87643SOL    HW264763  12.819   9.842   3.333
87644SOL     OW64764   7.031  12.953   5.587
87644SOL    HW164765   7.096  12.888   5.611
87644SOL    HW264766   7.024  13.010   5.664
87645SOL     OW64767   0.104   9.029  13.570
87645SOL    HW164768   0.130   8.957  13.628
87645SOL    HW264769   0.009   9.019  13.562
87646SOL     OW64770  13.116   9.166   2.693
87646SOL    HW164771  13.111   9.212   2.777
87646SOL    HW264772  13.205   9.182   2.662
87647SOL     OW64773  11.849   4.959  12.975
87647SOL    HW164774  11.898   4.890  12.931
87647SOL    HW264775  11.778   4.981  12.915
87648SOL     OW64776   0.071  12.749  14.788
87648SOL    HW164777  14.873  12.804  14.802
87648SOL    HW264778   0.140  12.811  14.760
87649SOL     OW64779  13.894   4.048   9.030
87649SOL    HW164780  13.862   4.138   9.032
87649SOL    HW264781  13.856   4.007   9.107
87650SOL     OW64782  14.380   8.335   2.181
87650SOL    HW164783  14.300   8.366   2.223
87650SOL    HW264784  14.370   8.359   2.089
87651SOL     OW64785  10.907   9.948  13.611
87651SOL    HW164786  10.917  10.026  13.556
87651SOL    HW264787  10.860   9.979  13.688
87652SOL     OW64788  13.012  11.154   7.470
87652SOL    HW164789  13.099  11.193   7.459
87652SOL    HW264790  12.986  11.129   7.381
87653SOL     OW64791   0.970   5.328   2.070
87653SOL    HW164792   0.974   5.360   2.160
87653SOL    HW264793   1.039   5.376   2.024
87654SOL     OW64794  11.815   9.666  13.979
87654SOL    HW164795  11.756   9.637  14.049
87654SOL    HW264796  11.757   9.696  13.909
87655SOL     OW64797   9.808  11.848   6.566
87655SOL    HW164798   9.867  11.842   6.641
87655SOL    HW264799   9.724  11.875   6.603
87656SOL     OW64800  14.300  13.484   2.285
87656SOL    HW164801  14.225  13.455   2.233
87656SOL    HW264802  14.370  13.422   2.265
87657SOL     OW64803   3.152  11.304   1.246
87657SOL    HW164804   3.070  11.344   1.274
87657SOL    HW264805   3.144  11.212   1.271
87658SOL     OW64806  10.947   6.422  10.723
87658SOL    HW164807  10.919   6.334  10.748
87658SOL    HW264808  10.869   6.461  10.683
87659SOL     OW64809   5.919   8.660   7.453
87659SOL    HW164810   5.975   8.627   7.383
87659SOL    HW264811   5.972   8.650   7.533
87660SOL     OW64812   4.554   7.737   9.073
87660SOL    HW164813   4.583   7.760   8.985
87660SOL    HW264814   4.632   7.701   9.115
87661SOL     OW64815   0.804  13.188  12.998
87661SOL    HW164816   0.836  13.270  13.035
87661SOL    HW264817   0.781  13.135  13.074
87662SOL     OW64818  13.309  13.990   4.664
87662SOL    HW164819  13.215  13.989   4.644
87662SOL    HW264820  13.352  13.973   4.580
87663SOL     OW64821  13.634   3.149  12.009
87663SOL    HW164822  13.723   3.177  12.031
87663SOL    HW264823  13.594   3.125  12.092
87664SOL     OW64824   1.760   9.827   1.237
87664SOL    HW164825   1.734   9.760   1.172
87664SOL    HW264826   1.705   9.809   1.313
87665SOL     OW64827   9.428   2.919  10.836
87665SOL    HW164828   9.357   2.865  10.872
87665SOL    HW264829   9.494   2.856  10.808
87666SOL     OW64830  14.411   6.788   0.718
87666SOL    HW164831  14.424   6.707   0.767
87666SOL    HW264832  14.389   6.760   0.629
87667SOL     OW64833   5.634  14.689  13.934
87667SOL    HW164834   5.651  14.626  13.864
87667SOL    HW264835   5.717  14.697  13.980
87668SOL     OW64836   1.289   0.056  12.915
87668SOL    HW164837   1.268   0.071  13.007
87668SOL    HW264838   1.307   0.143  12.879
87669SOL     OW64839   4.741   5.567   0.832
87669SOL    HW164840   4.834   5.562   0.813
87669SOL    HW264841   4.729   5.651   0.876
87670SOL     OW64842  12.896   5.349   6.192
87670SOL    HW164843  12.983   5.338   6.154
87670SOL    HW264844  12.907   5.417   6.259
87671SOL     OW64845   0.582   2.696   1.675
87671SOL    HW164846   0.640   2.623   1.653
87671SOL    HW264847   0.559   2.735   1.591
87672SOL     OW64848   4.939   3.289  11.246
87672SOL    HW164849   4.969   3.242  11.325
87672SOL    HW264850   4.873   3.231  11.208
87673SOL     OW64851   1.409  12.064   7.076
87673SOL    HW164852   1.349  12.082   7.003
87673SOL    HW264853   1.368  12.107   7.151
87674SOL     OW64854   8.494  13.228   1.728
87674SOL    HW164855   8.469  13.320   1.738
87674SOL    HW264856   8.493  13.192   1.816
87675SOL     OW64857  12.574   8.454   0.606
87675SOL    HW164858  12.585   8.376   0.551
87675SOL    HW264859  12.592   8.527   0.547
87676SOL     OW64860  10.711  13.427   8.634
87676SOL    HW164861  10.796  13.430   8.678
87676SOL    HW264862  10.668  13.350   8.671
87677SOL     OW64863   2.891  12.787   8.079
87677SOL    HW164864   2.880  12.854   8.146
87677SOL    HW264865   2.944  12.829   8.011
87678SOL     OW64866  13.014  14.124   9.447
87678SOL    HW164867  13.064  14.201   9.421
87678SOL    HW264868  13.035  14.058   9.380
87679SOL     OW64869   5.759  11.408   5.776
87679SOL    HW164870   5.664  11.408   5.786
87679SOL    HW264871   5.788  11.478   5.835
87680SOL     OW64872   9.839  13.282   7.509
87680SOL    HW164873   9.926  13.259   7.477
87680SOL    HW264874   9.794  13.316   7.432
87681SOL     OW64875  13.465   4.887  13.082
87681SOL    HW164876  13.522   4.928  13.017
87681SOL    HW264877  13.507   4.905  13.166
87682SOL     OW64878   3.942   4.695  10.016
87682SOL    HW164879   3.855   4.655  10.012
87682SOL    HW264880   3.977   4.670  10.101
87683SOL     OW64881  12.406  11.527   5.923
87683SOL    HW164882  12.441  11.585   5.856
87683SOL    HW264883  12.433  11.566   6.006
87684SOL     OW64884  12.287  11.493   6.489
87684SOL    HW164885  12.307  11.573   6.537
87684SOL    HW264886  12.326  11.506   6.403
87685SOL     OW64887  13.469   9.941   2.946
87685SOL    HW164888  13.461   9.860   2.996
87685SOL    HW264889  13.563   9.955   2.938
87686SOL     OW64890   3.653  11.748  14.147
87686SOL    HW164891   3.617  11.660  14.144
87686SOL    HW264892   3.642  11.776  14.238
87687SOL     OW64893   5.071   1.191   7.034
87687SOL    HW164894   4.988   1.182   6.988
87687SOL    HW264895   5.048   1.196   7.126
87688SOL     OW64896  10.862   0.214   3.613
87688SOL    HW164897  10.887   0.300   3.580
87688SOL    HW264898  10.945   0.168   3.626
87689SOL     OW64899   5.834  13.810  12.008
87689SOL    HW164900   5.772  13.770  12.069
87689SOL    HW264901   5.824  13.761  11.927
87690SOL     OW64902   8.051   9.861  13.451
87690SOL    HW164903   8.138   9.836  13.422
87690SOL    HW264904   8.061   9.879  13.545
87691SOL     OW64905   2.834   6.802   1.992
87691SOL    HW164906   2.816   6.714   2.024
87691SOL    HW264907   2.876   6.789   1.908
87692SOL     OW64908  12.508  10.368   1.245
87692SOL    HW164909  12.507  10.403   1.334
87692SOL    HW264910  12.418  10.338   1.230
87693SOL     OW64911   8.704   2.504  10.684
87693SOL    HW164912   8.609   2.508  10.670
87693SOL    HW264913   8.725   2.588  10.724
87694SOL     OW64914  11.298   9.876   9.147
87694SOL    HW164915  11.219   9.929   9.133
87694SOL    HW264916  11.282   9.796   9.097
87695SOL     OW64917  11.709   6.075   1.983
87695SOL    HW164918  11.614   6.079   1.998
87695SOL    HW264919  11.725   6.144   1.919
87696SOL     OW64920   0.376   6.242   7.143
87696SOL    HW164921   0.352   6.334   7.149
87696SOL    HW264922   0.395   6.216   7.234
87697SOL     OW64923   7.822  11.118   6.631
87697SOL    HW164924   7.809  11.041   6.575
87697SOL    HW264925   7.917  11.133   6.630
87698SOL     OW64926   6.704   0.557  10.512
87698SOL    HW164927   6.618   0.529  10.542
87698SOL    HW264928   6.747   0.592  10.590
87699SOL     OW64929   8.716   0.393   0.979
87699SOL    HW164930   8.667   0.460   1.026
87699SOL    HW264931   8.807   0.408   1.004
87700SOL     OW64932   1.566   1.943  14.014
87700SOL    HW164933   1.495   1.878  14.020
87700SOL    HW264934   1.575   1.976  14.104
87701SOL     OW64935  14.038   2.765   1.186
87701SOL    HW164936  13.990   2.805   1.113
87701SOL    HW264937  13.977   2.771   1.260
87702SOL     OW64938  14.429   6.557  12.776
87702SOL    HW164939  14.401   6.590  12.861
87702SOL    HW264940  14.468   6.633  12.732
87703SOL     OW64941   5.831   8.017   4.567
87703SOL    HW164942   5.808   7.939   4.617
87703SOL    HW264943   5.924   8.008   4.549
87704SOL     OW64944   3.893  14.107  12.097
87704SOL    HW164945   3.798  14.098  12.108
87704SOL    HW264946   3.903  14.151  12.013
87705SOL     OW64947  12.576   0.715   1.412
87705SOL    HW164948  12.518   0.654   1.458
87705SOL    HW264949  12.517   0.771   1.361
87706SOL     OW64950  14.048   2.926   0.581
87706SOL    HW164951  14.141   2.946   0.573
87706SOL    HW264952  14.018   2.982   0.653
87707SOL     OW64953   1.923  14.492   6.750
87707SOL    HW164954   1.893  14.434   6.820
87707SOL    HW264955   1.898  14.580   6.779
87708SOL     OW64956   2.772   0.187  14.835
87708SOL    HW164957   2.771   0.267  14.784
87708SOL    HW264958   2.820   0.210   0.036
87709SOL     OW64959   6.442  12.926   1.068
87709SOL    HW164960   6.419  12.941   0.977
87709SOL    HW264961   6.516  12.985   1.085
87710SOL     OW64962   1.820  10.284  10.906
87710SOL    HW164963   1.768  10.364  10.914
87710SOL    HW264964   1.836  10.258  10.996
87711SOL     OW64965   8.520  13.557   5.709
87711SOL    HW164966   8.571  13.573   5.629
87711SOL    HW264967   8.484  13.643   5.731
87712SOL     OW64968  12.902  12.745   5.183
87712SOL    HW164969  12.882  12.833   5.151
87712SOL    HW264970  12.984  12.721   5.140
87713SOL     OW64971   3.358  11.814   6.163
87713SOL    HW164972   3.382  11.774   6.079
87713SOL    HW264973   3.438  11.813   6.214
87714SOL     OW64974   0.535   3.747  14.841
87714SOL    HW164975   0.541   3.750   0.057
87714SOL    HW264976   0.501   3.660  14.822
87715SOL     OW64977   3.276   7.949   8.988
87715SOL    HW164978   3.365   7.951   9.023
87715SOL    HW264979   3.287   7.938   8.894
87716SOL     OW64980   3.975  12.820  12.965
87716SOL    HW164981   4.031  12.896  12.947
87716SOL    HW264982   4.021  12.747  12.923
87717SOL     OW64983  12.822  14.071   0.678
87717SOL    HW164984  12.743  14.022   0.655
87717SOL    HW264985  12.796  14.124   0.753
87718SOL     OW64986   0.425   3.353  10.874
87718SOL    HW164987   0.443   3.385  10.963
87718SOL    HW264988   0.438   3.259  10.879
87719SOL     OW64989   2.012  10.110   5.985
87719SOL    HW164990   2.076  10.169   6.024
87719SOL    HW264991   2.028  10.115   5.891
87720SOL     OW64992   3.419   1.123  14.086
87720SOL    HW164993   3.477   1.122  14.162
87720SOL    HW264994   3.345   1.178  14.112
87721SOL     OW64995   1.157   0.508  12.537
87721SOL    HW164996   1.090   0.570  12.510
87721SOL    HW264997   1.172   0.527  12.630
87722SOL     OW64998  10.723   9.880   2.495
87722SOL    HW164999  10.665   9.868   2.571
87722SOL    HW265000  10.695   9.813   2.433
87723SOL     OW65001   8.109  12.974   4.066
87723SOL    HW165002   8.133  13.061   4.097
87723SOL    HW265003   8.193  12.928   4.055
87724SOL     OW65004   0.956   4.151   2.751
87724SOL    HW165005   0.878   4.199   2.723
87724SOL    HW265006   0.921   4.072   2.792
87725SOL     OW65007   5.140  14.558  13.991
87725SOL    HW165008   5.053  14.540  14.026
87725SOL    HW265009   5.135  14.647  13.957
87726SOL     OW65010   3.525  13.970   5.475
87726SOL    HW165011   3.588  13.977   5.547
87726SOL    HW265012   3.571  14.008   5.400
87727SOL     OW65013   1.956  12.426  11.171
87727SOL    HW165014   1.886  12.425  11.236
87727SOL    HW265015   1.916  12.464  11.093
87728SOL     OW65016  11.596   4.089   3.150
87728SOL    HW165017  11.522   4.136   3.114
87728SOL    HW265018  11.558   4.012   3.192
87729SOL     OW65019   9.672  14.525   8.165
87729SOL    HW165020   9.716  14.447   8.197
87729SOL    HW265021   9.622  14.557   8.240
87730SOL     OW65022   2.719   7.182   6.718
87730SOL    HW165023   2.732   7.224   6.803
87730SOL    HW265024   2.647   7.121   6.733
87731SOL     OW65025   9.922   4.727   9.001
87731SOL    HW165026   9.865   4.662   8.960
87731SOL    HW265027   9.946   4.787   8.930
87732SOL     OW65028  10.513  14.851  12.582
87732SOL    HW165029  10.551  14.803  12.656
87732SOL    HW265030  10.568  14.829  12.507
87733SOL     OW65031   3.563   2.665   0.450
87733SOL    HW165032   3.552   2.584   0.499
87733SOL    HW265033   3.624   2.717   0.503
87734SOL     OW65034   9.624  14.448  11.328
87734SOL    HW165035   9.553  14.384  11.323
87734SOL    HW265036   9.647  14.465  11.237
87735SOL     OW65037   5.482   4.644  11.758
87735SOL    HW165038   5.521   4.671  11.841
87735SOL    HW265039   5.459   4.552  11.771
87736SOL     OW65040   8.911   4.052   1.470
87736SOL    HW165041   8.849   4.111   1.428
87736SOL    HW265042   8.931   3.986   1.404
87737SOL     OW65043  10.824   7.397   1.704
87737SOL    HW165044  10.840   7.334   1.634
87737SOL    HW265045  10.849   7.351   1.784
87738SOL     OW65046   0.273   7.994  11.226
87738SOL    HW165047   0.255   8.086  11.244
87738SOL    HW265048   0.350   7.973  11.278
87739SOL     OW65049   3.839   1.606   0.577
87739SOL    HW165050   3.925   1.613   0.536
87739SOL    HW265051   3.795   1.537   0.528
87740SOL     OW65052   1.759   0.719   2.444
87740SOL    HW165053   1.722   0.790   2.496
87740SOL    HW265054   1.686   0.684   2.393
87741SOL     OW65055   5.626  14.525  12.945
87741SOL    HW165056   5.584  14.554  12.865
87741SOL    HW265057   5.615  14.598  13.006
87742SOL     OW65058   8.252  10.767  13.494
87742SOL    HW165059   8.221  10.677  13.508
87742SOL    HW265060   8.180  10.810  13.449
87743SOL     OW65061  10.377   2.271  12.338
87743SOL    HW165062  10.328   2.193  12.314
87743SOL    HW265063  10.313   2.326  12.382
87744SOL     OW65064   5.740   4.589   6.985
87744SOL    HW165065   5.806   4.633   7.039
87744SOL    HW265066   5.743   4.498   7.014
87745SOL     OW65067  10.883   3.450   1.684
87745SOL    HW165068  10.861   3.446   1.591
87745SOL    HW265069  10.936   3.529   1.692
87746SOL     OW65070   8.178   3.752  12.056
87746SOL    HW165071   8.131   3.671  12.073
87746SOL    HW265072   8.241   3.729  11.987
87747SOL     OW65073   2.349  10.780   7.722
87747SOL    HW165074   2.326  10.689   7.743
87747SOL    HW265075   2.314  10.831   7.796
87748SOL     OW65076   1.921  14.333  10.521
87748SOL    HW165077   1.862  14.336  10.446
87748SOL    HW265078   1.908  14.245  10.558
87749SOL     OW65079   6.294   1.093  14.401
87749SOL    HW165080   6.203   1.065  14.407
87749SOL    HW265081   6.343   1.024  14.445
87750SOL     OW65082   1.770   3.387   9.266
87750SOL    HW165083   1.707   3.350   9.205
87750SOL    HW265084   1.717   3.423   9.337
87751SOL     OW65085  10.657  10.447   1.658
87751SOL    HW165086  10.663  10.456   1.753
87751SOL    HW265087  10.702  10.525   1.624
87752SOL     OW65088   4.654   2.842  12.151
87752SOL    HW165089   4.730   2.883  12.109
87752SOL    HW265090   4.691   2.779  12.212
87753SOL     OW65091  10.963   1.682  12.431
87753SOL    HW165092  10.947   1.589  12.411
87753SOL    HW265093  10.880   1.725  12.411
87754SOL     OW65094   9.826   5.989  13.458
87754SOL    HW165095   9.764   5.942  13.402
87754SOL    HW265096   9.907   5.989  13.407
87755SOL     OW65097   1.922   2.836   6.310
87755SOL    HW165098   1.918   2.747   6.275
87755SOL    HW265099   1.852   2.839   6.376
87756SOL     OW65100  14.792   6.012  11.707
87756SOL    HW165101  14.716   6.005  11.649
87756SOL    HW265102  14.783   6.099  11.748
87757SOL     OW65103   6.753   1.139  10.684
87757SOL    HW165104   6.748   1.202  10.756
87757SOL    HW265105   6.735   1.054  10.724
87758SOL     OW65106   5.453   9.112  13.315
87758SOL    HW165107   5.511   9.043  13.348
87758SOL    HW265108   5.469   9.186  13.373
87759SOL     OW65109   3.351   3.278   7.073
87759SOL    HW165110   3.418   3.329   7.117
87759SOL    HW265111   3.377   3.187   7.085
87760SOL     OW65112  10.152  13.967   2.953
87760SOL    HW165113  10.120  14.042   2.902
87760SOL    HW265114  10.247  13.968   2.939
87761SOL     OW65115   1.208   8.022  12.018
87761SOL    HW165116   1.245   7.978  11.943
87761SOL    HW265117   1.258   7.990  12.093
87762SOL     OW65118  11.549   9.446   7.310
87762SOL    HW165119  11.622   9.494   7.351
87762SOL    HW265120  11.490   9.426   7.383
87763SOL     OW65121   5.711  11.030   7.819
87763SOL    HW165122   5.620  11.022   7.790
87763SOL    HW265123   5.706  11.064   7.908
87764SOL     OW65124  14.597   1.541  11.387
87764SOL    HW165125  14.662   1.611  11.378
87764SOL    HW265126  14.606   1.512  11.477
87765SOL     OW65127  12.770  14.193   4.772
87765SOL    HW165128  12.845  14.253   4.769
87765SOL    HW265129  12.711  14.224   4.703
87766SOL     OW65130   8.570   3.610   4.069
87766SOL    HW165131   8.634   3.547   4.037
87766SOL    HW265132   8.485   3.566   4.056
87767SOL     OW65133  13.299   1.178   1.614
87767SOL    HW165134  13.232   1.143   1.672
87767SOL    HW265135  13.367   1.110   1.613
87768SOL     OW65136   2.713   7.390   2.411
87768SOL    HW165137   2.673   7.462   2.361
87768SOL    HW265138   2.641   7.354   2.463
87769SOL     OW65139  12.942   3.436  11.385
87769SOL    HW165140  13.022   3.483  11.363
87769SOL    HW265141  12.877   3.504  11.399
87770SOL     OW65142   9.654   6.445  11.583
87770SOL    HW165143   9.728   6.498  11.552
87770SOL    HW265144   9.588   6.510  11.608
87771SOL     OW65145   9.526  13.227   6.619
87771SOL    HW165146   9.611  13.184   6.630
87771SOL    HW265147   9.492  13.236   6.708
87772SOL     OW65148   7.891   2.798   9.196
87772SOL    HW165149   7.877   2.763   9.284
87772SOL    HW265150   7.919   2.888   9.210
87773SOL     OW65151   4.960  10.430  12.029
87773SOL    HW165152   4.883  10.382  12.062
87773SOL    HW265153   4.966  10.405  11.937
87774SOL     OW65154  14.166   2.240  10.723
87774SOL    HW165155  14.159   2.250  10.817
87774SOL    HW265156  14.251   2.198  10.710
87775SOL     OW65157   7.231   3.068   6.402
87775SOL    HW165158   7.316   3.068   6.444
87775SOL    HW265159   7.248   3.031   6.315
87776SOL     OW65160   2.443  12.088  10.228
87776SOL    HW165161   2.528  12.077  10.186
87776SOL    HW265162   2.408  12.168  10.190
87777SOL     OW65163   5.738  14.208   5.588
87777SOL    HW165164   5.801  14.229   5.519
87777SOL    HW265165   5.751  14.276   5.654
87778SOL     OW65166   6.387   1.071  14.154
87778SOL    HW165167   6.387   1.155  14.109
87778SOL    HW265168   6.352   1.091  14.241
87779SOL     OW65169  13.694   2.373  10.101
87779SOL    HW165170  13.637   2.363  10.177
87779SOL    HW265171  13.640   2.344  10.027
87780SOL     OW65172  13.344   0.902  11.359
87780SOL    HW165173  13.429   0.858  11.353
87780SOL    HW265174  13.286   0.849  11.304
87781SOL     OW65175  14.852  10.611  12.254
87781SOL    HW165176  14.767  10.629  12.293
87781SOL    HW265177  14.841  10.527  12.210
87782SOL     OW65178  14.778   3.488   4.198
87782SOL    HW165179  14.810   3.576   4.176
87782SOL    HW265180  14.812   3.432   4.127
87783SOL     OW65181  13.295   8.705   3.498
87783SOL    HW165182  13.313   8.747   3.414
87783SOL    HW265183  13.349   8.626   3.498
87784SOL     OW65184  12.866   9.303  10.684
87784SOL    HW165185  12.881   9.394  10.657
87784SOL    HW265186  12.810   9.267  10.616
87785SOL     OW65187   9.347   3.506  12.713
87785SOL    HW165188   9.263   3.477  12.678
87785SOL    HW265189   9.353   3.598  12.688
87786SOL     OW65190   7.889   8.652   9.854
87786SOL    HW165191   7.816   8.628   9.798
87786SOL    HW265192   7.966   8.618   9.809
87787SOL     OW65193  14.239  11.237   1.412
87787SOL    HW165194  14.284  11.163   1.454
87787SOL    HW265195  14.230  11.302   1.481
87788SOL     OW65196  13.509   6.380   6.718
87788SOL    HW165197  13.531   6.308   6.778
87788SOL    HW265198  13.539   6.350   6.633
87789SOL     OW65199  11.283   3.244   2.289
87789SOL    HW165200  11.321   3.250   2.377
87789SOL    HW265201  11.189   3.239   2.303
87790SOL     OW65202   0.269  13.004   1.929
87790SOL    HW165203   0.189  12.996   1.877
87790SOL    HW265204   0.334  12.951   1.882
87791SOL     OW65205   3.713   2.641  13.711
87791SOL    HW165206   3.688   2.559  13.754
87791SOL    HW265207   3.757   2.613  13.631
87792SOL     OW65208   9.893  10.143  13.067
87792SOL    HW165209   9.840  10.126  12.989
87792SOL    HW265210   9.968  10.084  13.058
87793SOL     OW65211   5.102   1.698   7.540
87793SOL    HW165212   5.050   1.689   7.460
87793SOL    HW265213   5.094   1.614   7.584
87794SOL     OW65214   4.303   8.593   4.730
87794SOL    HW165215   4.227   8.633   4.688
87794SOL    HW265216   4.269   8.555   4.811
87795SOL     OW65217   2.951  12.113   8.058
87795SOL    HW165218   2.888  12.163   8.110
87795SOL    HW265219   3.018  12.176   8.033
87796SOL     OW65220  12.343   2.999   2.599
87796SOL    HW165221  12.324   2.924   2.656
87796SOL    HW265222  12.358   2.960   2.513
87797SOL     OW65223   7.487   5.612   3.668
87797SOL    HW165224   7.456   5.672   3.600
87797SOL    HW265225   7.408   5.567   3.699
87798SOL     OW65226   5.401   7.021  10.212
87798SOL    HW165227   5.420   6.935  10.251
87798SOL    HW265228   5.487   7.064  10.207
87799SOL     OW65229   7.114   3.851  11.085
87799SOL    HW165230   7.127   3.761  11.114
87799SOL    HW265231   7.037   3.847  11.029
87800SOL     OW65232  13.503   2.911   8.325
87800SOL    HW165233  13.412   2.886   8.341
87800SOL    HW265234  13.529   2.857   8.250
87801SOL     OW65235   4.331   9.726  14.597
87801SOL    HW165236   4.287   9.643  14.615
87801SOL    HW265237   4.308   9.746  14.506
87802SOL     OW65238  12.524  12.504  10.669
87802SOL    HW165239  12.491  12.582  10.713
87802SOL    HW265240  12.467  12.493  10.593
87803SOL     OW65241   8.149   1.073   5.771
87803SOL    HW165242   8.238   1.049   5.796
87803SOL    HW265243   8.152   1.168   5.761
87804SOL     OW65244  14.140   0.655  13.059
87804SOL    HW165245  14.187   0.667  12.976
87804SOL    HW265246  14.200   0.604  13.113
87805SOL     OW65247   7.641   7.098   1.707
87805SOL    HW165248   7.574   7.146   1.659
87805SOL    HW265249   7.721   7.110   1.656
87806SOL     OW65250   7.626   7.000  14.025
87806SOL    HW165251   7.583   6.937  14.084
87806SOL    HW265252   7.696   6.949  13.983
87807SOL     OW65253   3.544  14.225   8.503
87807SOL    HW165254   3.620  14.176   8.471
87807SOL    HW265255   3.561  14.237   8.596
87808SOL     OW65256   0.449  10.394   6.846
87808SOL    HW165257   0.488  10.445   6.776
87808SOL    HW265258   0.450  10.453   6.922
87809SOL     OW65259   2.572   6.912   2.039
87809SOL    HW165260   2.649   6.871   2.000
87809SOL    HW265261   2.607   6.971   2.106
87810SOL     OW65262   7.017   4.067  11.228
87810SOL    HW165263   7.041   3.997  11.168
87810SOL    HW265264   7.069   4.143  11.199
87811SOL     OW65265   9.018   5.177  14.454
87811SOL    HW165266   9.032   5.110  14.520
87811SOL    HW265267   8.927   5.205  14.467
87812SOL     OW65268   5.237  13.361  12.419
87812SOL    HW165269   5.215  13.279  12.464
87812SOL    HW265270   5.185  13.358  12.339
87813SOL     OW65271   7.697   4.545  14.309
87813SOL    HW165272   7.759   4.480  14.343
87813SOL    HW265273   7.619   4.494  14.290
87814SOL     OW65274   9.480  11.579   4.793
87814SOL    HW165275   9.558  11.615   4.752
87814SOL    HW265276   9.407  11.618   4.746
87815SOL     OW65277   7.994   2.837   4.127
87815SOL    HW165278   8.073   2.871   4.169
87815SOL    HW265279   7.926   2.900   4.150
87816SOL     OW65280   6.946   6.287   1.129
87816SOL    HW165281   6.925   6.239   1.209
87816SOL    HW265282   6.950   6.220   1.061
87817SOL     OW65283   6.988   4.079   5.942
87817SOL    HW165284   7.000   4.149   5.877
87817SOL    HW265285   6.980   3.999   5.890
87818SOL     OW65286   5.379   7.979  10.034
87818SOL    HW165287   5.374   8.061   9.985
87818SOL    HW265288   5.322   7.992  10.109
87819SOL     OW65289  14.079  10.269   2.168
87819SOL    HW165290  14.144  10.339   2.167
87819SOL    HW265291  14.003  10.305   2.124
87820SOL     OW65292  13.502   7.014   0.283
87820SOL    HW165293  13.471   6.927   0.306
87820SOL    HW265294  13.535   7.005   0.194
87821SOL     OW65295   3.716  13.171   0.542
87821SOL    HW165296   3.805  13.176   0.508
87821SOL    HW265297   3.689  13.262   0.552
87822SOL     OW65298  12.798   8.693   8.655
87822SOL    HW165299  12.703   8.682   8.645
87822SOL    HW265300  12.816   8.776   8.611
87823SOL     OW65301   1.772  12.167  10.651
87823SOL    HW165302   1.721  12.231  10.600
87823SOL    HW265303   1.779  12.091  10.593
87824SOL     OW65304   1.371   0.771   5.538
87824SOL    HW165305   1.429   0.828   5.590
87824SOL    HW265306   1.320   0.831   5.484
87825SOL     OW65307   9.493   0.672   9.381
87825SOL    HW165308   9.538   0.737   9.327
87825SOL    HW265309   9.429   0.722   9.432
87826SOL     OW65310   5.697  11.078   9.719
87826SOL    HW165311   5.666  11.140   9.785
87826SOL    HW265312   5.639  11.092   9.644
87827SOL     OW65313   7.736  10.511   5.344
87827SOL    HW165314   7.803  10.564   5.300
87827SOL    HW265315   7.779  10.426   5.359
87828SOL     OW65316  10.733   5.432  13.474
87828SOL    HW165317  10.771   5.413  13.387
87828SOL    HW265318  10.803   5.479  13.520
87829SOL     OW65319  11.996   1.649   8.465
87829SOL    HW165320  12.070   1.594   8.438
87829SOL    HW265321  11.977   1.620   8.554
87830SOL     OW65322   7.780  13.269   1.231
87830SOL    HW165323   7.719  13.199   1.255
87830SOL    HW265324   7.823  13.291   1.314
87831SOL     OW65325  11.895   8.247  10.386
87831SOL    HW165326  11.832   8.216  10.321
87831SOL    HW265327  11.896   8.179  10.453
87832SOL     OW65328   9.977   0.606   1.771
87832SOL    HW165329   9.986   0.520   1.731
87832SOL    HW265330   9.882   0.620   1.777
87833SOL     OW65331   9.389  10.255  10.233
87833SOL    HW165332   9.482  10.244  10.254
87833SOL    HW265333   9.352  10.298  10.310
87834SOL     OW65334  13.407   5.378   5.460
87834SOL    HW165335  13.341   5.341   5.518
87834SOL    HW265336  13.375   5.361   5.372
87835SOL     OW65337   5.241   6.647   8.983
87835SOL    HW165338   5.151   6.662   9.008
87835SOL    HW265339   5.287   6.628   9.065
87836SOL     OW65340   4.756   5.341   4.290
87836SOL    HW165341   4.810   5.393   4.349
87836SOL    HW265342   4.791   5.252   4.298
87837SOL     OW65343   8.568   8.363  13.688
87837SOL    HW165344   8.575   8.284  13.635
87837SOL    HW265345   8.501   8.416  13.644
87838SOL     OW65346  11.626   6.934   3.880
87838SOL    HW165347  11.700   6.994   3.877
87838SOL    HW265348  11.592   6.932   3.790
87839SOL     OW65349   6.437   6.483   1.411
87839SOL    HW165350   6.385   6.407   1.384
87839SOL    HW265351   6.380   6.558   1.393
87840SOL     OW65352   0.418   7.308   2.612
87840SOL    HW165353   0.364   7.383   2.639
87840SOL    HW265354   0.361   7.257   2.555
87841SOL     OW65355   9.638  12.400  12.024
87841SOL    HW165356   9.546  12.376  12.033
87841SOL    HW265357   9.652  12.406  11.929
87842SOL     OW65358  14.168   4.947   5.741
87842SOL    HW165359  14.107   4.996   5.686
87842SOL    HW265360  14.129   4.949   5.828
87843SOL     OW65361   6.798  13.476   7.498
87843SOL    HW165362   6.802  13.569   7.521
87843SOL    HW265363   6.855  13.468   7.421
87844SOL     OW65364  14.393  14.843   6.087
87844SOL    HW165365  14.372  14.752   6.109
87844SOL    HW265366  14.468  14.835   6.027
87845SOL     OW65367  10.074   1.020   6.785
87845SOL    HW165368  10.069   0.938   6.735
87845SOL    HW265369  10.166   1.047   6.777
87846SOL     OW65370   4.216   2.600   1.701
87846SOL    HW165371   4.267   2.588   1.621
87846SOL    HW265372   4.216   2.513   1.742
87847SOL     OW65373  10.860   6.926   2.083
87847SOL    HW165374  10.907   6.917   2.165
87847SOL    HW265375  10.839   6.836   2.057
87848SOL     OW65376   4.479   4.538   8.176
87848SOL    HW165377   4.476   4.526   8.271
87848SOL    HW265378   4.543   4.474   8.145
87849SOL     OW65379   5.593  12.215   0.028
87849SOL    HW165380   5.631  12.144   0.080
87849SOL    HW265381   5.623  12.198  14.817
87850SOL     OW65382   7.465   1.741  10.979
87850SOL    HW165383   7.525   1.755  10.906
87850SOL    HW265384   7.379   1.735  10.938
87851SOL     OW65385   0.592   9.481   4.555
87851SOL    HW165386   0.583   9.569   4.519
87851SOL    HW265387   0.596   9.424   4.479
87852SOL     OW65388  13.483   3.523   8.712
87852SOL    HW165389  13.399   3.487   8.684
87852SOL    HW265390  13.468   3.617   8.722
87853SOL     OW65391  12.925  11.278  11.079
87853SOL    HW165392  12.868  11.303  11.006
87853SOL    HW265393  12.870  11.219  11.132
87854SOL     OW65394   8.907   8.157   0.473
87854SOL    HW165395   8.857   8.193   0.546
87854SOL    HW265396   8.855   8.083   0.442
87855SOL     OW65397   0.215   1.939  12.983
87855SOL    HW165398   0.141   1.899  12.938
87855SOL    HW265399   0.183   2.025  13.010
87856SOL     OW65400   9.069   5.008  11.281
87856SOL    HW165401   9.001   4.943  11.301
87856SOL    HW265402   9.065   5.069  11.355
87857SOL     OW65403   7.707   7.042   3.007
87857SOL    HW165404   7.629   7.095   3.024
87857SOL    HW265405   7.696   6.964   3.062
87858SOL     OW65406   2.993  13.652   1.192
87858SOL    HW165407   3.062  13.605   1.239
87858SOL    HW265408   3.027  13.662   1.103
87859SOL     OW65409  12.614   5.402  10.150
87859SOL    HW165410  12.698   5.361  10.131
87859SOL    HW265411  12.564   5.395  10.068
87860SOL     OW65412   9.923  14.260   0.052
87860SOL    HW165413   9.857  14.190   0.048
87860SOL    HW265414   9.997  14.226   0.001
87861SOL     OW65415   6.797   1.976   8.337
87861SOL    HW165416   6.854   2.043   8.375
87861SOL    HW265417   6.709   2.015   8.342
87862SOL     OW65418  13.654  14.122  13.998
87862SOL    HW165419  13.622  14.207  14.028
87862SOL    HW265420  13.613  14.058  14.057
87863SOL     OW65421   0.896   4.842   0.792
87863SOL    HW165422   0.844   4.866   0.869
87863SOL    HW265423   0.835   4.848   0.719
87864SOL     OW65424   7.414   7.953  11.743
87864SOL    HW165425   7.360   8.029  11.763
87864SOL    HW265426   7.388   7.928  11.654
87865SOL     OW65427   3.634  11.592   9.580
87865SOL    HW165428   3.711  11.573   9.526
87865SOL    HW265429   3.574  11.519   9.564
87866SOL     OW65430  11.832   1.290  12.356
87866SOL    HW165431  11.877   1.246  12.284
87866SOL    HW265432  11.743   1.302  12.325
87867SOL     OW65433   6.372  12.310   2.078
87867SOL    HW165434   6.438  12.369   2.042
87867SOL    HW265435   6.290  12.359   2.073
87868SOL     OW65436   6.237   8.895  13.143
87868SOL    HW165437   6.259   8.923  13.232
87868SOL    HW265438   6.232   8.799  13.149
87869SOL     OW65439  13.922   8.089   4.836
87869SOL    HW165440  13.900   8.041   4.756
87869SOL    HW265441  13.879   8.039   4.906
87870SOL     OW65442   4.293  10.923  12.364
87870SOL    HW165443   4.344  10.847  12.334
87870SOL    HW265444   4.203  10.890  12.372
87871SOL     OW65445   8.396   3.059   9.524
87871SOL    HW165446   8.466   3.095   9.579
87871SOL    HW265447   8.316   3.100   9.557
87872SOL     OW65448   8.543   0.053  10.138
87872SOL    HW165449   8.566   0.145  10.121
87872SOL    HW265450   8.625   0.014  10.169
87873SOL     OW65451   3.628   8.283  10.961
87873SOL    HW165452   3.668   8.324  11.038
87873SOL    HW265453   3.534   8.287  10.978
87874SOL     OW65454  14.297   4.060   2.266
87874SOL    HW165455  14.256   4.121   2.204
87874SOL    HW265456  14.287   4.101   2.351
87875SOL     OW65457   4.655   7.588   4.619
87875SOL    HW165458   4.681   7.528   4.689
87875SOL    HW265459   4.704   7.557   4.543
87876SOL     OW65460  14.781   1.734  11.448
87876SOL    HW165461  14.870   1.761  11.425
87876SOL    HW265462  14.727   1.811  11.431
87877SOL     OW65463   5.567   3.193  12.208
87877SOL    HW165464   5.656   3.160  12.222
87877SOL    HW265465   5.529   3.134  12.143
87878SOL     OW65466  14.072   4.558   9.371
87878SOL    HW165467  13.990   4.594   9.338
87878SOL    HW265468  14.098   4.617   9.442
87879SOL     OW65469  12.576  14.571   1.599
87879SOL    HW165470  12.663  14.582   1.638
87879SOL    HW265471  12.572  14.478   1.576
87880SOL     OW65472   4.723  11.697  13.867
87880SOL    HW165473   4.736  11.675  13.959
87880SOL    HW265474   4.808  11.732  13.839
87881SOL     OW65475   0.926  11.011   5.567
87881SOL    HW165476   0.902  11.061   5.489
87881SOL    HW265477   0.849  11.014   5.623
87882SOL     OW65478   6.483   7.965  12.549
87882SOL    HW165479   6.447   8.048  12.517
87882SOL    HW265480   6.419   7.899  12.521
87883SOL     OW65481   2.002   8.204   1.501
87883SOL    HW165482   1.994   8.295   1.531
87883SOL    HW265483   2.096   8.188   1.500
87884SOL     OW65484   1.054  13.421  10.121
87884SOL    HW165485   1.127  13.471  10.083
87884SOL    HW265486   1.017  13.480  10.187
87885SOL     OW65487   5.552  13.312  11.260
87885SOL    HW165488   5.538  13.255  11.185
87885SOL    HW265489   5.516  13.397  11.232
87886SOL     OW65490   0.558  13.072   2.682
87886SOL    HW165491   0.526  13.125   2.755
87886SOL    HW265492   0.644  13.108   2.662
87887SOL     OW65493   2.682  14.407   8.739
87887SOL    HW165494   2.720  14.337   8.686
87887SOL    HW265495   2.625  14.361   8.801
87888SOL     OW65496  13.384  12.013  10.976
87888SOL    HW165497  13.393  12.027  10.881
87888SOL    HW265498  13.297  11.973  10.985
87889SOL     OW65499  11.027   5.905  10.605
87889SOL    HW165500  11.101   5.946  10.649
87889SOL    HW265501  11.047   5.910  10.512
87890SOL     OW65502  11.147  12.172   2.645
87890SOL    HW165503  11.178  12.117   2.718
87890SOL    HW265504  11.228  12.203   2.604
87891SOL     OW65505  14.240   9.328   9.490
87891SOL    HW165506  14.275   9.387   9.557
87891SOL    HW265507  14.291   9.347   9.412
87892SOL     OW65508  11.264   4.103   1.606
87892SOL    HW165509  11.248   4.013   1.633
87892SOL    HW265510  11.317   4.095   1.526
87893SOL     OW65511   1.884   4.635   9.238
87893SOL    HW165512   1.946   4.569   9.205
87893SOL    HW265513   1.937   4.688   9.298
87894SOL     OW65514   3.475   2.977   0.106
87894SOL    HW165515   3.490   2.956   0.198
87894SOL    HW265516   3.418   3.054   0.108
87895SOL     OW65517  14.613   3.521   4.596
87895SOL    HW165518  14.577   3.496   4.681
87895SOL    HW265519  14.644   3.611   4.609
87896SOL     OW65520   9.671   5.081  13.016
87896SOL    HW165521   9.753   5.040  12.989
87896SOL    HW265522   9.607   5.011  13.014
87897SOL     OW65523   5.520  10.040  10.277
87897SOL    HW165524   5.478   9.986  10.210
87897SOL    HW265525   5.527   9.981  10.353
87898SOL     OW65526  11.966   6.929   3.278
87898SOL    HW165527  11.950   6.878   3.199
87898SOL    HW265528  12.040   6.885   3.320
87899SOL     OW65529   0.123   4.319   1.292
87899SOL    HW165530   0.217   4.330   1.304
87899SOL    HW265531   0.084   4.365   1.367
87900SOL     OW65532   5.901   1.470   9.677
87900SOL    HW165533   5.871   1.394   9.628
87900SOL    HW265534   5.824   1.525   9.688
87901SOL     OW65535  10.672   4.877   1.351
87901SOL    HW165536  10.731   4.853   1.423
87901SOL    HW265537  10.614   4.943   1.390
87902SOL     OW65538   1.565  12.404  13.586
87902SOL    HW165539   1.536  12.331  13.531
87902SOL    HW265540   1.658  12.414  13.565
87903SOL     OW65541   6.486   1.197  10.332
87903SOL    HW165542   6.428   1.266  10.298
87903SOL    HW265543   6.574   1.229  10.314
87904SOL     OW65544   7.484  12.298   8.161
87904SOL    HW165545   7.426  12.373   8.147
87904SOL    HW265546   7.558  12.314   8.103
87905SOL     OW65547  11.308   0.453  11.226
87905SOL    HW165548  11.285   0.540  11.259
87905SOL    HW265549  11.243   0.394  11.266
87906SOL     OW65550  10.228   1.261  11.223
87906SOL    HW165551  10.161   1.245  11.156
87906SOL    HW265552  10.304   1.213  11.192
87907SOL     OW65553   4.219   0.953   3.245
87907SOL    HW165554   4.255   0.912   3.323
87907SOL    HW265555   4.206   0.881   3.183
87908SOL     OW65556  10.088  11.947   1.570
87908SOL    HW165557  10.139  11.999   1.507
87908SOL    HW265558  10.023  11.901   1.516
87909SOL     OW65559  13.614   7.104   8.594
87909SOL    HW165560  13.576   7.135   8.512
87909SOL    HW265561  13.549   7.129   8.661
87910SOL     OW65562  10.864  12.591   0.242
87910SOL    HW165563  10.912  12.645   0.179
87910SOL    HW265564  10.896  12.502   0.226
87911SOL     OW65565   0.135  14.388   3.283
87911SOL    HW165566   0.049  14.415   3.252
87911SOL    HW265567   0.188  14.468   3.280
87912SOL     OW65568   8.948   0.174   8.531
87912SOL    HW165569   8.893   0.215   8.597
87912SOL    HW265570   8.900   0.096   8.503
87913SOL     OW65571   5.881   2.559   8.207
87913SOL    HW165572   5.788   2.536   8.199
87913SOL    HW265573   5.921   2.527   8.126
87914SOL     OW65574   9.312   7.374   6.177
87914SOL    HW165575   9.331   7.411   6.090
87914SOL    HW265576   9.364   7.428   6.237
87915SOL     OW65577   1.914   7.172  13.979
87915SOL    HW165578   1.842   7.227  13.947
87915SOL    HW265579   1.972   7.164  13.904
87916SOL     OW65580  11.415  11.449   1.394
87916SOL    HW165581  11.474  11.519   1.366
87916SOL    HW265582  11.381  11.479   1.479
87917SOL     OW65583   8.487  12.060  12.605
87917SOL    HW165584   8.555  12.031  12.545
87917SOL    HW265585   8.494  12.156  12.605
87918SOL     OW65586  10.496   8.437   0.812
87918SOL    HW165587  10.410   8.479   0.804
87918SOL    HW265588  10.555   8.494   0.763
87919SOL     OW65589  11.601   9.762   8.255
87919SOL    HW165590  11.531   9.782   8.193
87919SOL    HW265591  11.607   9.667   8.255
87920SOL     OW65592   3.706   5.674   6.366
87920SOL    HW165593   3.791   5.630   6.370
87920SOL    HW265594   3.706   5.718   6.281
87921SOL     OW65595  12.906   1.298   0.213
87921SOL    HW165596  12.828   1.275   0.161
87921SOL    HW265597  12.930   1.386   0.183
87922SOL     OW65598  14.802   9.894   5.280
87922SOL    HW165599  14.745   9.918   5.352
87922SOL    HW265600  14.787   9.962   5.214
87923SOL     OW65601  13.466  12.873  12.225
87923SOL    HW165602  13.465  12.778  12.231
87923SOL    HW265603  13.385  12.895  12.178
87924SOL     OW65604  13.333   7.213   6.307
87924SOL    HW165605  13.411   7.268   6.306
87924SOL    HW265606  13.366   7.124   6.322
87925SOL     OW65607  12.734   3.501  13.699
87925SOL    HW165608  12.699   3.413  13.706
87925SOL    HW265609  12.660   3.558  13.718
87926SOL     OW65610   8.458   6.668  13.263
87926SOL    HW165611   8.415   6.671  13.178
87926SOL    HW265612   8.454   6.758  13.296
87927SOL     OW65613  13.418   1.401   6.064
87927SOL    HW165614  13.355   1.352   6.011
87927SOL    HW265615  13.368   1.473   6.102
87928SOL     OW65616  12.310   3.660   4.969
87928SOL    HW165617  12.232   3.635   4.920
87928SOL    HW265618  12.383   3.638   4.911
87929SOL     OW65619  12.633   9.000   7.118
87929SOL    HW165620  12.601   8.951   7.043
87929SOL    HW265621  12.617   8.943   7.193
87930SOL     OW65622   3.542   4.456  13.960
87930SOL    HW165623   3.520   4.440  13.868
87930SOL    HW265624   3.636   4.439  13.965
87931SOL     OW65625  12.636   1.733   8.608
87931SOL    HW165626  12.583   1.795   8.657
87931SOL    HW265627  12.588   1.719   8.526
87932SOL     OW65628   6.653   1.560   9.909
87932SOL    HW165629   6.617   1.525   9.828
87932SOL    HW265630   6.651   1.486   9.970
87933SOL     OW65631   0.174   2.346  10.965
87933SOL    HW165632   0.113   2.419  10.968
87933SOL    HW265633   0.122   2.273  10.932
87934SOL     OW65634  14.486  10.465   8.786
87934SOL    HW165635  14.562  10.436   8.736
87934SOL    HW265636  14.493  10.561   8.787
87935SOL     OW65637  12.220   7.795   6.489
87935SOL    HW165638  12.144   7.746   6.521
87935SOL    HW265639  12.204   7.806   6.396
87936SOL     OW65640  14.793  13.448   3.106
87936SOL    HW165641  14.774  13.355   3.123
87936SOL    HW265642  14.871  13.447   3.052
87937SOL     OW65643   3.657   1.572   7.112
87937SOL    HW165644   3.713   1.629   7.058
87937SOL    HW265645   3.658   1.488   7.067
87938SOL     OW65646   4.428  10.628   5.088
87938SOL    HW165647   4.360  10.675   5.137
87938SOL    HW265648   4.487  10.594   5.155
87939SOL     OW65649   8.290  12.073  13.366
87939SOL    HW165650   8.380  12.062  13.395
87939SOL    HW265651   8.245  12.112  13.441
87940SOL     OW65652  14.871  10.975  13.741
87940SOL    HW165653  14.877  10.887  13.703
87940SOL    HW265654  14.793  11.013  13.699
87941SOL     OW65655  10.283   3.712   0.948
87941SOL    HW165656  10.286   3.807   0.956
87941SOL    HW265657  10.293   3.696   0.854
87942SOL     OW65658   5.418  12.130  10.476
87942SOL    HW165659   5.431  12.225  10.472
87942SOL    HW265660   5.462  12.103  10.556
87943SOL     OW65661   4.917   4.836   9.311
87943SOL    HW165662   5.002   4.866   9.343
87943SOL    HW265663   4.862   4.914   9.311
87944SOL     OW65664   3.920  12.841   7.641
87944SOL    HW165665   3.924  12.881   7.554
87944SOL    HW265666   3.857  12.894   7.690
87945SOL     OW65667  14.153  11.781   3.196
87945SOL    HW165668  14.200  11.800   3.277
87945SOL    HW265669  14.091  11.712   3.220
87946SOL     OW65670   6.659   4.040   4.380
87946SOL    HW165671   6.715   3.969   4.347
87946SOL    HW265672   6.713   4.083   4.447
87947SOL     OW65673   1.327   2.314   6.409
87947SOL    HW165674   1.359   2.290   6.496
87947SOL    HW265675   1.382   2.264   6.348
87948SOL     OW65676   2.451  12.366   0.193
87948SOL    HW165677   2.444  12.271   0.200
87948SOL    HW265678   2.523  12.390   0.252
87949SOL     OW65679  13.779   1.092   7.831
87949SOL    HW165680  13.732   1.145   7.895
87949SOL    HW265681  13.807   1.155   7.765
87950SOL     OW65682   9.858  13.486   9.361
87950SOL    HW165683   9.811  13.565   9.388
87950SOL    HW265684   9.913  13.514   9.288
87951SOL     OW65685   7.083   0.003  11.575
87951SOL    HW165686   7.170   0.007  11.535
87951SOL    HW265687   7.022   0.019  11.503
87952SOL     OW65688   2.813  14.609   9.093
87952SOL    HW165689   2.879  14.662   9.048
87952SOL    HW265690   2.800  14.653   9.177
87953SOL     OW65691   5.884   2.019   9.935
87953SOL    HW165692   5.801   2.001   9.981
87953SOL    HW265693   5.858   2.031   9.843
87954SOL     OW65694   7.061   5.196   2.547
87954SOL    HW165695   7.037   5.105   2.531
87954SOL    HW265696   6.978   5.242   2.553
87955SOL     OW65697   8.851  10.553  11.553
87955SOL    HW165698   8.834  10.595  11.469
87955SOL    HW265699   8.944  10.531  11.550
87956SOL     OW65700   4.031   8.576   9.333
87956SOL    HW165701   3.988   8.643   9.281
87956SOL    HW265702   4.114   8.560   9.288
87957SOL     OW65703   6.517   8.330  13.980
87957SOL    HW165704   6.579   8.301  14.047
87957SOL    HW265705   6.432   8.328  14.024
87958SOL     OW65706   5.571   3.473   0.325
87958SOL    HW165707   5.561   3.415   0.249
87958SOL    HW265708   5.659   3.454   0.358
87959SOL     OW65709   1.033   5.564  10.518
87959SOL    HW165710   1.036   5.628  10.589
87959SOL    HW265711   1.126   5.548  10.497
87960SOL     OW65712   5.076   5.671   9.255
87960SOL    HW165713   5.019   5.595   9.261
87960SOL    HW265714   5.147   5.644   9.197
87961SOL     OW65715   5.483   6.619   9.837
87961SOL    HW165716   5.503   6.565   9.760
87961SOL    HW265717   5.568   6.639   9.876
87962SOL     OW65718  14.177   6.878   6.674
87962SOL    HW165719  14.128   6.960   6.683
87962SOL    HW265720  14.148   6.824   6.747
87963SOL     OW65721  11.175   6.120   4.679
87963SOL    HW165722  11.106   6.068   4.639
87963SOL    HW265723  11.133   6.164   4.753
87964SOL     OW65724   0.019  11.663   3.646
87964SOL    HW165725  14.868  11.753   3.652
87964SOL    HW265726   0.065  11.658   3.562
87965SOL     OW65727   5.439  12.070   5.894
87965SOL    HW165728   5.508  12.113   5.845
87965SOL    HW265729   5.430  11.984   5.854
87966SOL     OW65730   3.320  13.521   2.749
87966SOL    HW165731   3.399  13.538   2.801
87966SOL    HW265732   3.253  13.577   2.788
87967SOL     OW65733   6.460   2.716   8.207
87967SOL    HW165734   6.371   2.698   8.238
87967SOL    HW265735   6.501   2.764   8.279
87968SOL     OW65736   9.310   9.790   5.860
87968SOL    HW165737   9.384   9.765   5.805
87968SOL    HW265738   9.235   9.745   5.820
87969SOL     OW65739   0.351   8.564   4.476
87969SOL    HW165740   0.414   8.620   4.523
87969SOL    HW265741   0.281   8.624   4.450
87970SOL     OW65742   3.014   2.059  13.513
87970SOL    HW165743   2.970   2.011  13.443
87970SOL    HW265744   2.984   2.149  13.502
87971SOL     OW65745   1.338   2.860   5.470
87971SOL    HW165746   1.289   2.922   5.523
87971SOL    HW265747   1.413   2.835   5.524
87972SOL     OW65748   1.811  13.408  10.344
87972SOL    HW165749   1.730  13.458  10.341
87972SOL    HW265750   1.848  13.418  10.256
87973SOL     OW65751   5.080   9.007  10.625
87973SOL    HW165752   5.106   8.996  10.716
87973SOL    HW265753   5.021   8.933  10.608
87974SOL     OW65754   7.677   6.694   2.810
87974SOL    HW165755   7.662   6.784   2.781
87974SOL    HW265756   7.606   6.676   2.871
87975SOL     OW65757   1.350  13.198  11.080
87975SOL    HW165758   1.398  13.128  11.036
87975SOL    HW265759   1.320  13.255  11.008
87976SOL     OW65760   9.084   9.740  10.368
87976SOL    HW165761   9.036   9.701  10.441
87976SOL    HW265762   9.155   9.678  10.350
87977SOL     OW65763  11.637  11.811   3.750
87977SOL    HW165764  11.553  11.770   3.768
87977SOL    HW265765  11.692  11.739   3.717
87978SOL     OW65766   5.400  13.749  14.225
87978SOL    HW165767   5.396  13.686  14.152
87978SOL    HW265768   5.485  13.733  14.265
87979SOL     OW65769   6.701   9.448   3.984
87979SOL    HW165770   6.613   9.421   3.959
87979SOL    HW265771   6.712   9.415   4.073
87980SOL     OW65772   8.987  11.129  10.693
87980SOL    HW165773   8.909  11.098  10.648
87980SOL    HW265774   9.016  11.054  10.745
87981SOL     OW65775  13.018   0.879  10.203
87981SOL    HW165776  13.083   0.897  10.271
87981SOL    HW265777  13.003   0.964  10.162
87982SOL     OW65778   5.155   7.106  11.359
87982SOL    HW165779   5.110   7.141  11.282
87982SOL    HW265780   5.094   7.123  11.431
87983SOL     OW65781  12.483   8.308  12.520
87983SOL    HW165782  12.424   8.338  12.589
87983SOL    HW265783  12.428   8.307  12.441
87984SOL     OW65784   5.963   2.507   4.418
87984SOL    HW165785   5.968   2.581   4.479
87984SOL    HW265786   5.891   2.453   4.452
87985SOL     OW65787  11.943  14.316   8.227
87985SOL    HW165788  11.990  14.294   8.308
87985SOL    HW265789  11.943  14.411   8.225
87986SOL     OW65790   9.802  12.383   8.953
87986SOL    HW165791   9.721  12.356   8.909
87986SOL    HW265792   9.809  12.324   9.028
87987SOL     OW65793   1.971   6.370   3.100
87987SOL    HW165794   1.919   6.447   3.076
87987SOL    HW265795   1.947   6.304   3.035
87988SOL     OW65796  11.293   6.160   3.248
87988SOL    HW165797  11.372   6.110   3.226
87988SOL    HW265798  11.255   6.184   3.164
87989SOL     OW65799  12.674   3.186   9.663
87989SOL    HW165800  12.638   3.107   9.622
87989SOL    HW265801  12.716   3.154   9.743
87990SOL     OW65802  14.126   6.533  12.161
87990SOL    HW165803  14.220   6.520  12.158
87990SOL    HW265804  14.111   6.589  12.237
87991SOL     OW65805  14.153   5.078  10.556
87991SOL    HW165806  14.164   5.172  10.563
87991SOL    HW265807  14.061   5.063  10.578
87992SOL     OW65808   7.524  11.884   3.889
87992SOL    HW165809   7.547  11.891   3.982
87992SOL    HW265810   7.535  11.791   3.869
87993SOL     OW65811   9.644   1.535   9.041
87993SOL    HW165812   9.711   1.529   8.973
87993SOL    HW265813   9.655   1.622   9.079
87994SOL     OW65814   9.915   9.665   7.847
87994SOL    HW165815   9.992   9.654   7.904
87994SOL    HW265816   9.882   9.576   7.834
87995SOL     OW65817   7.907   0.422   5.123
87995SOL    HW165818   7.843   0.421   5.052
87995SOL    HW265819   7.934   0.331   5.133
87996SOL     OW65820  12.850   4.745   2.024
87996SOL    HW165821  12.801   4.825   2.043
87996SOL    HW265822  12.915   4.771   1.959
87997SOL     OW65823   1.433   4.473  14.710
87997SOL    HW165824   1.468   4.421  14.782
87997SOL    HW265825   1.438   4.416  14.633
87998SOL     OW65826  11.377   3.348   9.128
87998SOL    HW165827  11.316   3.284   9.091
87998SOL    HW265828  11.381   3.417   9.062
87999SOL     OW65829   0.334  14.183  13.329
87999SOL    HW165830   0.293  14.114  13.382
87999SOL    HW265831   0.346  14.142  13.243
88000SOL     OW65832   7.018   6.865   0.617
88000SOL    HW165833   6.985   6.776   0.624
88000SOL    HW265834   6.959   6.908   0.555
88001SOL     OW65835   9.099  13.976   7.623
88001SOL    HW165836   9.012  13.987   7.660
88001SOL    HW265837   9.101  13.886   7.592
88002SOL     OW65838   9.949   1.636   1.448
88002SOL    HW165839   9.920   1.727   1.437
88002SOL    HW265840   9.874   1.583   1.422
88003SOL     OW65841   1.365   5.568  13.963
88003SOL    HW165842   1.300   5.509  14.000
88003SOL    HW265843   1.396   5.619  14.038
88004SOL     OW65844   2.324   9.768   4.237
88004SOL    HW165845   2.274   9.850   4.227
88004SOL    HW265846   2.263   9.708   4.281
88005SOL     OW65847   5.477   7.258   5.213
88005SOL    HW165848   5.468   7.345   5.175
88005SOL    HW265849   5.455   7.269   5.305
88006SOL     OW65850   5.610   8.064   7.046
88006SOL    HW165851   5.526   8.062   7.092
88006SOL    HW265852   5.600   8.135   6.982
88007SOL     OW65853  12.809  11.678  10.886
88007SOL    HW165854  12.740  11.714  10.942
88007SOL    HW265855  12.865  11.629  10.946
88008SOL     OW65856   9.214  14.290  12.264
88008SOL    HW165857   9.262  14.257  12.189
88008SOL    HW265858   9.257  14.372  12.287
88009SOL     OW65859  14.273   3.838  10.470
88009SOL    HW165860  14.348   3.873  10.422
88009SOL    HW265861  14.279   3.878  10.557
88010SOL     OW65862   1.291   9.822  14.231
88010SOL    HW165863   1.339   9.881  14.173
88010SOL    HW265864   1.206   9.811  14.189
88011SOL     OW65865  13.910  12.698   9.967
88011SOL    HW165866  13.917  12.786   9.930
88011SOL    HW265867  13.906  12.711  10.061
88012SOL     OW65868   5.964   5.703  14.677
88012SOL    HW165869   5.932   5.793  14.678
88012SOL    HW265870   6.038   5.705  14.616
88013SOL     OW65871  11.458   0.153   4.252
88013SOL    HW165872  11.441   0.234   4.301
88013SOL    HW265873  11.372   0.112   4.244
88014SOL     OW65874   6.085   1.411   7.977
88014SOL    HW165875   6.018   1.478   7.963
88014SOL    HW265876   6.095   1.368   7.892
88015SOL     OW65877   9.615  10.376   2.484
88015SOL    HW165878   9.608  10.466   2.452
88015SOL    HW265879   9.614  10.386   2.580
88016SOL     OW65880   4.883   9.069   0.377
88016SOL    HW165881   4.958   9.117   0.341
88016SOL    HW265882   4.813   9.085   0.314
88017SOL     OW65883   9.822   1.994   6.477
88017SOL    HW165884   9.835   2.088   6.465
88017SOL    HW265885   9.802   1.961   6.389
88018SOL     OW65886   9.457   7.948  11.935
88018SOL    HW165887   9.487   8.007  11.866
88018SOL    HW265888   9.363   7.938  11.920
88019SOL     OW65889  11.380   7.917  11.569
88019SOL    HW165890  11.363   7.995  11.517
88019SOL    HW265891  11.419   7.855  11.508
88020SOL     OW65892   4.204   3.869   3.837
88020SOL    HW165893   4.285   3.846   3.790
88020SOL    HW265894   4.209   3.964   3.847
88021SOL     OW65895  12.325   5.615  12.092
88021SOL    HW165896  12.381   5.692  12.092
88021SOL    HW265897  12.267   5.629  12.016
88022SOL     OW65898   9.666   4.576   9.636
88022SOL    HW165899   9.574   4.576   9.663
88022SOL    HW265900   9.665   4.621   9.551
88023SOL     OW65901  13.716   2.360   9.263
88023SOL    HW165902  13.651   2.393   9.325
88023SOL    HW265903  13.767   2.437   9.239
88024SOL     OW65904   9.023  10.456   5.580
88024SOL    HW165905   8.961  10.390   5.549
88024SOL    HW265906   9.109  10.419   5.559
88025SOL     OW65907   7.502   6.105   3.206
88025SOL    HW165908   7.472   6.065   3.124
88025SOL    HW265909   7.588   6.141   3.185
88026SOL     OW65910   9.067   9.496   2.940
88026SOL    HW165911   9.032   9.483   2.852
88026SOL    HW265912   9.042   9.418   2.988
88027SOL     OW65913   6.919   2.583  13.067
88027SOL    HW165914   6.930   2.652  13.132
88027SOL    HW265915   6.877   2.512  13.115
88028SOL     OW65916   8.628  14.239   8.720
88028SOL    HW165917   8.539  14.223   8.688
88028SOL    HW265918   8.617  14.279   8.806
88029SOL     OW65919   6.394   4.966  12.360
88029SOL    HW165920   6.344   5.041  12.392
88029SOL    HW265921   6.422   4.921  12.440
88030SOL     OW65922  14.598   0.112  10.812
88030SOL    HW165923  14.638   0.191  10.847
88030SOL    HW265924  14.506   0.118  10.837
88031SOL     OW65925   8.610   4.184  11.572
88031SOL    HW165926   8.690   4.202  11.621
88031SOL    HW265927   8.553   4.258  11.591
88032SOL     OW65928  12.556   7.540  10.994
88032SOL    HW165929  12.514   7.618  10.957
88032SOL    HW265930  12.490   7.502  11.052
88033SOL     OW65931   0.266   3.872   5.942
88033SOL    HW165932   0.221   3.955   5.927
88033SOL    HW265933   0.354   3.898   5.970
88034SOL     OW65934   4.170   4.425   3.006
88034SOL    HW165935   4.213   4.339   3.001
88034SOL    HW265936   4.077   4.406   2.993
88035SOL     OW65937   6.234   5.518   4.328
88035SOL    HW165938   6.298   5.589   4.333
88035SOL    HW265939   6.181   5.528   4.407
88036SOL     OW65940   0.243   0.577   8.951
88036SOL    HW165941   0.205   0.554   9.036
88036SOL    HW265942   0.329   0.534   8.950
88037SOL     OW65943   5.667  10.630   5.605
88037SOL    HW165944   5.674  10.535   5.604
88037SOL    HW265945   5.729  10.660   5.539
88038SOL     OW65946   5.216   0.763  12.581
88038SOL    HW165947   5.270   0.729  12.510
88038SOL    HW265948   5.202   0.855  12.559
88039SOL     OW65949  10.397   1.822   8.656
88039SOL    HW165950  10.388   1.917   8.660
88039SOL    HW265951  10.466   1.801   8.719
88040SOL     OW65952   8.925   3.069  12.462
88040SOL    HW165953   8.963   3.077  12.550
88040SOL    HW265954   8.979   3.126  12.408
88041SOL     OW65955   2.204  12.678   5.542
88041SOL    HW165956   2.222  12.708   5.453
88041SOL    HW265957   2.288  12.647   5.575
88042SOL     OW65958   0.048   0.259  13.019
88042SOL    HW165959   0.017   0.304  12.941
88042SOL    HW265960   0.096   0.183  12.986
88043SOL     OW65961   0.364   4.734   4.292
88043SOL    HW165962   0.286   4.784   4.267
88043SOL    HW265963   0.415   4.795   4.345
88044SOL     OW65964   0.716   3.473   9.136
88044SOL    HW165965   0.723   3.536   9.207
88044SOL    HW265966   0.623   3.448   9.134
88045SOL     OW65967   9.230   1.848   4.808
88045SOL    HW165968   9.308   1.880   4.762
88045SOL    HW265969   9.183   1.797   4.742
88046SOL     OW65970   0.647   6.379   9.972
88046SOL    HW165971   0.690   6.423   9.899
88046SOL    HW265972   0.683   6.421  10.050
88047SOL     OW65973   2.968  14.455   8.634
88047SOL    HW165974   3.005  14.443   8.722
88047SOL    HW265975   2.886  14.501   8.648
88048SOL     OW65976   5.989   1.894   5.106
88048SOL    HW165977   6.018   1.853   5.024
88048SOL    HW265978   5.918   1.838   5.137
88049SOL     OW65979  11.095   6.823  13.404
88049SOL    HW165980  11.013   6.773  13.412
88049SOL    HW265981  11.163   6.761  13.431
88050SOL     OW65982  11.529   0.435   7.518
88050SOL    HW165983  11.464   0.379   7.474
88050SOL    HW265984  11.477   0.491   7.575
88051SOL     OW65985  11.233   8.782   4.711
88051SOL    HW165986  11.263   8.814   4.626
88051SOL    HW265987  11.311   8.788   4.767
88052SOL     OW65988  13.975  13.752   7.475
88052SOL    HW165989  13.909  13.725   7.538
88052SOL    HW265990  14.057  13.720   7.511
88053SOL     OW65991   0.375   4.176   7.358
88053SOL    HW165992   0.324   4.098   7.377
88053SOL    HW265993   0.435   4.184   7.431
88054SOL     OW65994  14.515   7.040  12.616
88054SOL    HW165995  14.599   7.032  12.570
88054SOL    HW265996  14.457   7.084  12.554
88055SOL     OW65997   9.452   6.715  13.185
88055SOL    HW165998   9.401   6.677  13.114
88055SOL    HW265999   9.474   6.641  13.241
88056SOL     OW66000   6.183  11.713  10.199
88056SOL    HW166001   6.257  11.725  10.258
88056SOL    HW266002   6.221  11.675  10.120
88057SOL     OW66003   4.739   0.730   2.991
88057SOL    HW166004   4.695   0.675   3.056
88057SOL    HW266005   4.674   0.742   2.922
88058SOL     OW66006  10.487  13.293   8.008
88058SOL    HW166007  10.452  13.297   7.919
88058SOL    HW266008  10.411  13.307   8.064
88059SOL     OW66009   3.024   0.765   6.827
88059SOL    HW166010   2.967   0.790   6.900
88059SOL    HW266011   3.062   0.681   6.853
88060SOL     OW66012   1.656  11.710  11.139
88060SOL    HW166013   1.729  11.740  11.194
88060SOL    HW266014   1.578  11.748  11.179
88061SOL     OW66015   3.973   5.156   6.174
88061SOL    HW166016   3.906   5.087   6.169
88061SOL    HW266017   3.941   5.216   6.241
88062SOL     OW66018  10.723  11.062  10.079
88062SOL    HW166019  10.777  11.065  10.000
88062SOL    HW266020  10.706  10.969  10.093
88063SOL     OW66021   2.031   5.105  12.666
88063SOL    HW166022   2.009   5.021  12.625
88063SOL    HW266023   2.124   5.117  12.648
88064SOL     OW66024  11.899   0.907  10.674
88064SOL    HW166025  11.904   0.997  10.707
88064SOL    HW266026  11.842   0.912  10.598
88065SOL     OW66027   0.390  14.394  12.071
88065SOL    HW166028   0.346  14.403  11.986
88065SOL    HW266029   0.352  14.316  12.110
88066SOL     OW66030  12.258  12.399   2.519
88066SOL    HW166031  12.300  12.357   2.444
88066SOL    HW266032  12.216  12.477   2.482
88067SOL     OW66033   4.686   2.306   4.141
88067SOL    HW166034   4.769   2.345   4.168
88067SOL    HW266035   4.622   2.339   4.205
88068SOL     OW66036  13.391   8.217  13.243
88068SOL    HW166037  13.352   8.297  13.278
88068SOL    HW266038  13.350   8.146  13.293
88069SOL     OW66039   2.506   9.878  10.203
88069SOL    HW166040   2.587   9.921  10.231
88069SOL    HW266041   2.525   9.845  10.115
88070SOL     OW66042   8.084   7.335   0.740
88070SOL    HW166043   8.044   7.389   0.808
88070SOL    HW266044   8.147   7.393   0.698
88071SOL     OW66045   5.229  12.012  13.385
88071SOL    HW166046   5.193  12.090  13.427
88071SOL    HW266047   5.157  11.979  13.332
88072SOL     OW66048   7.215   6.606   7.443
88072SOL    HW166049   7.222   6.543   7.515
88072SOL    HW266050   7.131   6.649   7.457
88073SOL     OW66051   2.058  14.734  11.565
88073SOL    HW166052   2.144  14.754  11.603
88073SOL    HW266053   2.049  14.639  11.575
88074SOL     OW66054   9.375  13.353   4.199
88074SOL    HW166055   9.450  13.352   4.140
88074SOL    HW266056   9.301  13.379   4.144
88075SOL     OW66057  12.338   2.604   7.206
88075SOL    HW166058  12.378   2.528   7.247
88075SOL    HW266059  12.411   2.654   7.171
88076SOL     OW66060  11.296  12.259  12.548
88076SOL    HW166061  11.276  12.298  12.463
88076SOL    HW266062  11.215  12.215  12.574
88077SOL     OW66063  12.444   8.981   5.305
88077SOL    HW166064  12.377   8.966   5.373
88077SOL    HW266065  12.454   8.896   5.262
88078SOL     OW66066  13.169   1.803   2.445
88078SOL    HW166067  13.081   1.827   2.417
88078SOL    HW266068  13.226   1.869   2.407
88079SOL     OW66069  14.093   3.701   3.059
88079SOL    HW166070  14.120   3.624   3.007
88079SOL    HW266071  13.998   3.705   3.048
88080SOL     OW66072  14.736   2.636   8.878
88080SOL    HW166073  14.678   2.559   8.875
88080SOL    HW266074  14.686   2.705   8.835
88081SOL     OW66075   5.314   2.190  13.507
88081SOL    HW166076   5.286   2.117  13.562
88081SOL    HW266077   5.278   2.267  13.550
88082SOL     OW66078  12.661  13.413   3.291
88082SOL    HW166079  12.665  13.480   3.224
88082SOL    HW266080  12.720  13.443   3.360
88083SOL     OW66081  13.600   5.551   9.020
88083SOL    HW166082  13.526   5.566   9.079
88083SOL    HW266083  13.601   5.627   8.963
88084SOL     OW66084   5.580   1.823  11.480
88084SOL    HW166085   5.514   1.789  11.419
88084SOL    HW266086   5.594   1.752  11.542
88085SOL     OW66087   1.347  12.264   1.277
88085SOL    HW166088   1.264  12.237   1.238
88085SOL    HW266089   1.383  12.184   1.314
88086SOL     OW66090   9.232   3.304   4.739
88086SOL    HW166091   9.315   3.313   4.693
88086SOL    HW266092   9.186   3.233   4.694
88087SOL     OW66093  11.812   9.930   4.289
88087SOL    HW166094  11.725   9.949   4.323
88087SOL    HW266095  11.821   9.836   4.298
88088SOL     OW66096   3.364   2.750   4.076
88088SOL    HW166097   3.413   2.803   4.139
88088SOL    HW266098   3.333   2.675   4.127
88089SOL     OW66099  13.985   0.442   7.165
88089SOL    HW166100  14.020   0.369   7.114
88089SOL    HW266101  14.016   0.520   7.119
88090SOL     OW66102   7.128   3.072  13.019
88090SOL    HW166103   7.160   3.092  12.931
88090SOL    HW266104   7.032   3.074  13.010
88091SOL     OW66105   1.489   3.986   0.934
88091SOL    HW166106   1.495   3.924   1.007
88091SOL    HW266107   1.457   3.934   0.860
88092SOL     OW66108  13.531   3.629   1.777
88092SOL    HW166109  13.534   3.636   1.872
88092SOL    HW266110  13.439   3.609   1.757
88093SOL     OW66111  11.305   6.175   4.422
88093SOL    HW166112  11.311   6.082   4.442
88093SOL    HW266113  11.256   6.212   4.496
88094SOL     OW66114   6.840   5.868   6.582
88094SOL    HW166115   6.814   5.924   6.509
88094SOL    HW266116   6.912   5.915   6.624
88095SOL     OW66117  10.988   5.642   4.329
88095SOL    HW166118  11.047   5.593   4.271
88095SOL    HW266119  10.901   5.611   4.306
88096SOL     OW66120   0.024  11.212   7.780
88096SOL    HW166121   0.046  11.302   7.758
88096SOL    HW266122   0.004  11.214   7.873
88097SOL     OW66123   3.819  12.506   7.025
88097SOL    HW166124   3.880  12.450   6.976
88097SOL    HW266125   3.738  12.502   6.974
88098SOL     OW66126  11.362  12.373   5.375
88098SOL    HW166127  11.426  12.351   5.442
88098SOL    HW266128  11.277  12.361   5.418
88099SOL     OW66129  10.451   4.909  12.328
88099SOL    HW166130  10.528   4.880  12.377
88099SOL    HW266131  10.486   4.935  12.242
88100SOL     OW66132  11.629   7.179   7.067
88100SOL    HW166133  11.535   7.195   7.076
88100SOL    HW266134  11.638   7.085   7.082
88101SOL     OW66135   0.068  14.066  12.806
88101SOL    HW166136   0.145  14.035  12.759
88101SOL    HW266137   0.025  13.986  12.836
88102SOL     OW66138   2.151  10.183   6.929
88102SOL    HW166139   2.076  10.137   6.968
88102SOL    HW266140   2.222  10.119   6.931
88103SOL     OW66141  12.123  11.321   2.537
88103SOL    HW166142  12.058  11.270   2.586
88103SOL    HW266143  12.197  11.330   2.597
88104SOL     OW66144   5.020   4.534   6.503
88104SOL    HW166145   5.026   4.440   6.519
88104SOL    HW266146   4.931   4.547   6.470
88105SOL     OW66147  13.337  10.609  13.002
88105SOL    HW166148  13.388  10.689  13.009
88105SOL    HW266149  13.290  10.617  12.919
88106SOL     OW66150   2.227   2.560   0.862
88106SOL    HW166151   2.171   2.616   0.915
88106SOL    HW266152   2.280   2.622   0.810
88107SOL     OW66153   4.046  11.970   6.952
88107SOL    HW166154   4.061  11.998   7.043
88107SOL    HW266155   3.992  11.891   6.961
88108SOL     OW66156  14.052   3.742   4.466
88108SOL    HW166157  13.992   3.816   4.477
88108SOL    HW266158  13.996   3.665   4.473
88109SOL     OW66159   7.050   4.805   2.636
88109SOL    HW166160   7.006   4.850   2.564
88109SOL    HW266161   7.135   4.848   2.643
88110SOL     OW66162   2.797  13.317  10.531
88110SOL    HW166163   2.765  13.406  10.545
88110SOL    HW266164   2.770  13.269  10.609
88111SOL     OW66165   2.099   1.259   0.110
88111SOL    HW166166   2.091   1.259   0.205
88111SOL    HW266167   2.028   1.315   0.079
88112SOL     OW66168   6.278   3.688   9.341
88112SOL    HW166169   6.221   3.672   9.417
88112SOL    HW266170   6.343   3.618   9.346
88113SOL     OW66171  14.112   0.799   5.711
88113SOL    HW166172  14.172   0.808   5.636
88113SOL    HW266173  14.169   0.784   5.786
88114SOL     OW66174  13.570   5.024  13.321
88114SOL    HW166175  13.569   5.112  13.285
88114SOL    HW266176  13.490   5.018  13.374
88115SOL     OW66177   1.161  12.446  10.861
88115SOL    HW166178   1.216  12.483  10.931
88115SOL    HW266179   1.221  12.436  10.787
88116SOL     OW66180   8.558   7.951   5.030
88116SOL    HW166181   8.637   7.965   5.083
88116SOL    HW266182   8.587   7.968   4.940
88117SOL     OW66183   5.489   3.315   0.093
88117SOL    HW166184   5.431   3.316   0.017
88117SOL    HW266185   5.576   3.298   0.056
88118SOL     OW66186   2.968  10.743   1.422
88118SOL    HW166187   3.019  10.794   1.360
88118SOL    HW266188   2.883  10.787   1.426
88119SOL     OW66189  11.776  14.791   9.428
88119SOL    HW166190  11.773  14.832   9.514
88119SOL    HW266191  11.852  14.830   9.385
88120SOL     OW66192   3.753   5.740   1.311
88120SOL    HW166193   3.817   5.672   1.335
88120SOL    HW266194   3.713   5.765   1.394
88121SOL     OW66195  13.399   1.971  14.612
88121SOL    HW166196  13.417   1.877  14.606
88121SOL    HW266197  13.362   1.993  14.527
88122SOL     OW66198  14.511  10.241  14.780
88122SOL    HW166199  14.499  10.256  14.686
88122SOL    HW266200  14.472  10.154  14.795
88123SOL     OW66201   7.407   8.562  14.385
88123SOL    HW166202   7.419   8.482  14.436
88123SOL    HW266203   7.451   8.630  14.435
88124SOL     OW66204  13.699   3.933   8.688
88124SOL    HW166205  13.630   3.878   8.724
88124SOL    HW266206  13.683   4.019   8.727
88125SOL     OW66207   2.680  12.986   7.696
88125SOL    HW166208   2.654  12.897   7.723
88125SOL    HW266209   2.775  12.981   7.688
88126SOL     OW66210   1.362  13.889   6.951
88126SOL    HW166211   1.305  13.814   6.970
88126SOL    HW266212   1.337  13.955   7.016
88127SOL     OW66213   1.421   4.124  12.509
88127SOL    HW166214   1.495   4.130  12.570
88127SOL    HW266215   1.402   4.214  12.485
88128SOL     OW66216   2.873   7.410   1.786
88128SOL    HW166217   2.924   7.413   1.867
88128SOL    HW266218   2.923   7.350   1.730
88129SOL     OW66219   2.654   9.481  14.838
88129SOL    HW166220   2.732   9.480  14.782
88129SOL    HW266221   2.665   9.559   0.013
88130SOL     OW66222   4.555   8.049   7.840
88130SOL    HW166223   4.471   8.019   7.875
88130SOL    HW266224   4.600   8.088   7.915
88131SOL     OW66225   5.512   3.106   7.309
88131SOL    HW166226   5.557   3.075   7.388
88131SOL    HW266227   5.582   3.122   7.246
88132SOL     OW66228   7.136  13.388   6.339
88132SOL    HW166229   7.128  13.476   6.376
88132SOL    HW266230   7.144  13.402   6.245
88133SOL     OW66231   3.121   3.199   2.078
88133SOL    HW166232   3.062   3.144   2.129
88133SOL    HW266233   3.201   3.204   2.131
88134SOL     OW66234  10.780   7.956  12.234
88134SOL    HW166235  10.694   7.975  12.195
88134SOL    HW266236  10.771   7.867  12.268
88135SOL     OW66237   8.369   2.761  12.230
88135SOL    HW166238   8.325   2.676  12.229
88135SOL    HW266239   8.298   2.825  12.217
88136SOL     OW66240   4.600  14.503   9.008
88136SOL    HW166241   4.621  14.541   9.093
88136SOL    HW266242   4.673  14.443   8.990
88137SOL     OW66243   2.554  11.074  10.052
88137SOL    HW166244   2.531  11.034   9.968
88137SOL    HW266245   2.474  11.118  10.081
88138SOL     OW66246  14.180   0.625   0.013
88138SOL    HW166247  14.237   0.574   0.071
88138SOL    HW266248  14.156   0.701   0.066
88139SOL     OW66249  13.305  12.082  11.503
88139SOL    HW166250  13.287  12.170  11.470
88139SOL    HW266251  13.219  12.042  11.513
88140SOL     OW66252   1.886   1.387   7.065
88140SOL    HW166253   1.943   1.313   7.043
88140SOL    HW266254   1.945   1.463   7.067
88141SOL     OW66255   7.791   4.422   1.769
88141SOL    HW166256   7.811   4.360   1.840
88141SOL    HW266257   7.702   4.398   1.742
88142SOL     OW66258  11.646  12.170   8.672
88142SOL    HW166259  11.616  12.155   8.583
88142SOL    HW266260  11.566  12.190   8.721
88143SOL     OW66261   1.831  13.480   5.625
88143SOL    HW166262   1.865  13.421   5.693
88143SOL    HW266263   1.893  13.554   5.625
88144SOL     OW66264   2.837   0.924   7.902
88144SOL    HW166265   2.926   0.917   7.935
88144SOL    HW266266   2.782   0.898   7.976
88145SOL     OW66267   1.136  10.294   0.821
88145SOL    HW166268   1.098  10.355   0.884
88145SOL    HW266269   1.066  10.230   0.804
88146SOL     OW66270  12.143   9.532   3.653
88146SOL    HW166271  12.149   9.508   3.561
88146SOL    HW266272  12.178   9.621   3.658
88147SOL     OW66273   7.419  12.210   1.890
88147SOL    HW166274   7.497  12.205   1.944
88147SOL    HW266275   7.414  12.124   1.847
88148SOL     OW66276   9.765   6.814   9.288
88148SOL    HW166277   9.807   6.873   9.227
88148SOL    HW266278   9.675   6.805   9.256
88149SOL     OW66279  12.264  13.564   3.303
88149SOL    HW166280  12.230  13.474   3.310
88149SOL    HW266281  12.327  13.571   3.374
88150SOL     OW66282   9.386  10.111   1.953
88150SOL    HW166283   9.303  10.124   1.999
88150SOL    HW266284   9.445  10.176   1.992
88151SOL     OW66285   4.431   7.911  11.426
88151SOL    HW166286   4.485   7.887  11.502
88151SOL    HW266287   4.472   7.866  11.352
88152SOL     OW66288  11.234  11.587  13.389
88152SOL    HW166289  11.211  11.658  13.329
88152SOL    HW266290  11.302  11.625  13.445
88153SOL     OW66291  10.583  14.447   2.422
88153SOL    HW166292  10.623  14.468   2.338
88153SOL    HW266293  10.652  14.463   2.487
88154SOL     OW66294   3.136   4.127   8.514
88154SOL    HW166295   3.075   4.056   8.493
88154SOL    HW266296   3.200   4.126   8.443
88155SOL     OW66297   8.852   0.089   3.947
88155SOL    HW166298   8.864  14.875   3.925
88155SOL    HW266299   8.768   0.092   3.991
88156SOL     OW66300   3.951   1.380   5.668
88156SOL    HW166301   3.907   1.452   5.713
88156SOL    HW266302   3.947   1.307   5.730
88157SOL     OW66303  12.721   1.060   3.803
88157SOL    HW166304  12.654   1.027   3.742
88157SOL    HW266305  12.726   1.154   3.785
88158SOL     OW66306  13.474   0.099   9.034
88158SOL    HW166307  13.495   0.013   8.998
88158SOL    HW266308  13.510   0.161   8.971
88159SOL     OW66309  14.357   9.931   1.047
88159SOL    HW166310  14.344   9.934   0.952
88159SOL    HW266311  14.336  10.020   1.076
88160SOL     OW66312   5.137   4.640  11.558
88160SOL    HW166313   5.203   4.575  11.533
88160SOL    HW266314   5.083   4.596  11.623
88161SOL     OW66315   7.397   3.915   0.221
88161SOL    HW166316   7.456   3.963   0.163
88161SOL    HW266317   7.311   3.953   0.206
88162SOL     OW66318   7.920   8.382  11.784
88162SOL    HW166319   7.990   8.432  11.742
88162SOL    HW266320   7.920   8.412  11.875
88163SOL     OW66321   0.992  14.746   4.973
88163SOL    HW166322   1.033  14.803   4.908
88163SOL    HW266323   0.961  14.671   4.922
88164SOL     OW66324  10.523   1.134   6.954
88164SOL    HW166325  10.502   1.110   7.044
88164SOL    HW266326  10.612   1.101   6.940
88165SOL     OW66327   0.924   7.523   4.841
88165SOL    HW166328   0.874   7.492   4.917
88165SOL    HW266329   0.923   7.618   4.849
88166SOL     OW66330   8.926   9.170   4.143
88166SOL    HW166331   9.016   9.150   4.119
88166SOL    HW266332   8.900   9.099   4.201
88167SOL     OW66333   9.474  11.808  14.606
88167SOL    HW166334   9.430  11.769  14.681
88167SOL    HW266335   9.417  11.879  14.579
88168SOL     OW66336   6.893   3.193   7.811
88168SOL    HW166337   6.938   3.274   7.834
88168SOL    HW266338   6.931   3.127   7.869
88169SOL     OW66339   2.181   6.223   5.589
88169SOL    HW166340   2.220   6.136   5.600
88169SOL    HW266341   2.254   6.284   5.601
88170SOL     OW66342   4.861   7.743  14.566
88170SOL    HW166343   4.807   7.790  14.629
88170SOL    HW266344   4.947   7.739  14.606
88171SOL     OW66345   9.601  14.358   2.377
88171SOL    HW166346   9.521  14.364   2.429
88171SOL    HW266347   9.633  14.448   2.371
88172SOL     OW66348   6.695  14.735   8.202
88172SOL    HW166349   6.624  14.799   8.204
88172SOL    HW266350   6.652  14.650   8.202
88173SOL     OW66351   4.556   4.116   8.756
88173SOL    HW166352   4.464   4.135   8.773
88173SOL    HW266353   4.554   4.042   8.695
88174SOL     OW66354   5.324  14.593   9.723
88174SOL    HW166355   5.353  14.538   9.650
88174SOL    HW266356   5.379  14.671   9.718
88175SOL     OW66357   6.286   2.916  14.152
88175SOL    HW166358   6.300   2.991  14.209
88175SOL    HW266359   6.324   2.942  14.068
88176SOL     OW66360   2.508   9.881  12.258
88176SOL    HW166361   2.467   9.804  12.296
88176SOL    HW266362   2.473   9.954  12.310
88177SOL     OW66363  11.735   1.835   2.334
88177SOL    HW166364  11.658   1.802   2.381
88177SOL    HW266365  11.699   1.876   2.255
88178SOL     OW66366   5.332   1.454  10.977
88178SOL    HW166367   5.270   1.511  11.023
88178SOL    HW266368   5.282   1.421  10.902
88179SOL     OW66369  10.689   1.507   1.301
88179SOL    HW166370  10.612   1.559   1.323
88179SOL    HW266371  10.743   1.509   1.380
88180SOL     OW66372  12.659   3.456  14.581
88180SOL    HW166373  12.651   3.548  14.604
88180SOL    HW266374  12.685   3.412  14.662
88181SOL     OW66375   5.258   4.125   8.576
88181SOL    HW166376   5.293   4.200   8.527
88181SOL    HW266377   5.308   4.050   8.543
88182SOL     OW66378   6.721   6.789   4.275
88182SOL    HW166379   6.630   6.816   4.286
88182SOL    HW266380   6.741   6.739   4.354
88183SOL     OW66381   6.020   0.078   3.971
88183SOL    HW166382   5.969   0.103   3.894
88183SOL    HW266383   5.978   0.124   4.044
88184SOL     OW66384  10.470  14.219   6.761
88184SOL    HW166385  10.548  14.203   6.813
88184SOL    HW266386  10.416  14.141   6.774
88185SOL     OW66387  10.486  10.371  13.780
88185SOL    HW166388  10.501  10.383  13.686
88185SOL    HW266389  10.482  10.460  13.815
88186SOL     OW66390  13.966  13.065   8.686
88186SOL    HW166391  13.952  12.985   8.635
88186SOL    HW266392  14.005  13.126   8.623
88187SOL     OW66393   5.476   0.768   1.566
88187SOL    HW166394   5.571   0.755   1.556
88187SOL    HW266395   5.444   0.684   1.598
88188SOL     OW66396   4.879   8.152   3.290
88188SOL    HW166397   4.810   8.204   3.249
88188SOL    HW266398   4.919   8.211   3.354
88189SOL     OW66399   2.376   0.126   4.775
88189SOL    HW166400   2.459   0.173   4.771
88189SOL    HW266401   2.309   0.194   4.782
88190SOL     OW66402  13.571   3.417  13.030
88190SOL    HW166403  13.475   3.415  13.024
88190SOL    HW266404  13.589   3.402  13.123
88191SOL     OW66405  14.577   8.477   7.608
88191SOL    HW166406  14.652   8.421   7.591
88191SOL    HW266407  14.515   8.422   7.655
88192SOL     OW66408   2.609  13.525   4.496
88192SOL    HW166409   2.628  13.556   4.407
88192SOL    HW266410   2.562  13.443   4.483
88193SOL     OW66411   6.844   2.556   7.217
88193SOL    HW166412   6.783   2.523   7.284
88193SOL    HW266413   6.788   2.573   7.141
88194SOL     OW66414   5.895   1.239  14.364
88194SOL    HW166415   5.818   1.242  14.308
88194SOL    HW266416   5.917   1.331  14.381
88195SOL     OW66417   4.329   3.338  12.319
88195SOL    HW166418   4.416   3.363  12.350
88195SOL    HW266419   4.298   3.273  12.382
88196SOL     OW66420  10.857  10.260   3.336
88196SOL    HW166421  10.905  10.251   3.419
88196SOL    HW266422  10.809  10.178   3.327
88197SOL     OW66423   1.182  12.871  13.754
88197SOL    HW166424   1.189  12.961  13.787
88197SOL    HW266425   1.237  12.871  13.675
88198SOL     OW66426   7.055  10.575   7.003
88198SOL    HW166427   7.131  10.524   6.974
88198SOL    HW266428   6.991  10.509   7.030
88199SOL     OW66429   0.698   4.207   9.261
88199SOL    HW166430   0.659   4.211   9.348
88199SOL    HW266431   0.762   4.135   9.266
88200SOL     OW66432  14.353  12.325   2.406
88200SOL    HW166433  14.263  12.294   2.417
88200SOL    HW266434  14.363  12.394   2.471
88201SOL     OW66435  11.822   7.885  11.942
88201SOL    HW166436  11.766   7.852  11.871
88201SOL    HW266437  11.859   7.966  11.908
88202SOL     OW66438  11.601  13.948   0.711
88202SOL    HW166439  11.575  14.001   0.636
88202SOL    HW266440  11.599  13.858   0.679
88203SOL     OW66441   8.993   0.644  14.174
88203SOL    HW166442   8.961   0.733  14.189
88203SOL    HW266443   9.068   0.635  14.233
88204SOL     OW66444   7.201   1.263  11.486
88204SOL    HW166445   7.122   1.245  11.536
88204SOL    HW266446   7.202   1.358  11.474
88205SOL     OW66447   7.475   0.148  10.947
88205SOL    HW166448   7.419   0.225  10.937
88205SOL    HW266449   7.452   0.092  10.872
88206SOL     OW66450   1.925   0.599  10.420
88206SOL    HW166451   1.893   0.631  10.505
88206SOL    HW266452   1.876   0.650  10.356
88207SOL     OW66453   0.728   3.486   2.934
88207SOL    HW166454   0.715   3.426   3.008
88207SOL    HW266455   0.823   3.490   2.922
88208SOL     OW66456   7.956  14.369  11.888
88208SOL    HW166457   7.930  14.278  11.897
88208SOL    HW266458   8.032  14.379  11.945
88209SOL     OW66459   3.121   8.778   1.446
88209SOL    HW166460   3.137   8.865   1.483
88209SOL    HW266461   3.061   8.793   1.373
88210SOL     OW66462   7.250   5.274  10.665
88210SOL    HW166463   7.295   5.350  10.628
88210SOL    HW266464   7.320   5.213  10.688
88211SOL     OW66465   2.109   0.731  13.866
88211SOL    HW166466   2.103   0.761  13.957
88211SOL    HW266467   2.115   0.636  13.873
88212SOL     OW66468  11.405   4.434   3.447
88212SOL    HW166469  11.444   4.508   3.399
88212SOL    HW266470  11.476   4.402   3.502
88213SOL     OW66471   7.686  12.344   9.226
88213SOL    HW166472   7.628  12.267   9.230
88213SOL    HW266473   7.635  12.410   9.180
88214SOL     OW66474  13.215   8.524  12.396
88214SOL    HW166475  13.140   8.496  12.449
88214SOL    HW266476  13.253   8.442  12.363
88215SOL     OW66477   5.303   2.819   1.814
88215SOL    HW166478   5.309   2.885   1.883
88215SOL    HW266479   5.389   2.823   1.771
88216SOL     OW66480   8.173  13.214   7.177
88216SOL    HW166481   8.254  13.258   7.200
88216SOL    HW266482   8.200  13.125   7.152
88217SOL     OW66483   9.251  14.586   4.137
88217SOL    HW166484   9.271  14.538   4.056
88217SOL    HW266485   9.307  14.545   4.203
88218SOL     OW66486   0.365  14.325   1.429
88218SOL    HW166487   0.316  14.284   1.358
88218SOL    HW266488   0.456  14.302   1.412
88219SOL     OW66489  12.795   0.057   0.636
88219SOL    HW166490  12.830  14.847   0.632
88219SOL    HW266491  12.804   0.082   0.728
88220SOL     OW66492   8.735   0.976   6.069
88220SOL    HW166493   8.804   1.022   6.117
88220SOL    HW266494   8.780   0.903   6.026
88221SOL     OW66495   0.738   2.155   4.742
88221SOL    HW166496   0.755   2.248   4.723
88221SOL    HW266497   0.692   2.156   4.826
88222SOL     OW66498   2.132   1.199  13.879
88222SOL    HW166499   2.046   1.161  13.866
88222SOL    HW266500   2.165   1.158  13.959
88223SOL     OW66501   3.288   7.323   8.411
88223SOL    HW166502   3.250   7.394   8.360
88223SOL    HW266503   3.271   7.347   8.502
88224SOL     OW66504   6.615   5.991  11.525
88224SOL    HW166505   6.633   6.083  11.543
88224SOL    HW266506   6.671   5.970  11.450
88225SOL     OW66507   1.022   0.376   2.913
88225SOL    HW166508   1.043   0.457   2.962
88225SOL    HW266509   0.950   0.337   2.962
88226SOL     OW66510   5.423   1.491  11.749
88226SOL    HW166511   5.339   1.456  11.777
88226SOL    HW266512   5.475   1.414  11.725
88227SOL     OW66513  14.737   5.811   9.811
88227SOL    HW166514  14.647   5.833   9.836
88227SOL    HW266515  14.786   5.816   9.893
88228SOL     OW66516  10.668   4.207   2.448
88228SOL    HW166517  10.748   4.259   2.441
88228SOL    HW266518  10.631   4.232   2.533
88229SOL     OW66519  13.503   8.211  10.783
88229SOL    HW166520  13.475   8.139  10.840
88229SOL    HW266521  13.483   8.180  10.694
88230SOL     OW66522   7.574   1.893   5.205
88230SOL    HW166523   7.563   1.802   5.230
88230SOL    HW266524   7.615   1.934   5.281
88231SOL     OW66525   2.965   3.476   9.728
88231SOL    HW166526   3.005   3.451   9.811
88231SOL    HW266527   2.879   3.435   9.729
88232SOL     OW66528  14.604  12.416   4.850
88232SOL    HW166529  14.552  12.491   4.879
88232SOL    HW266530  14.574  12.343   4.904
88233SOL     OW66531   3.813  10.521  14.577
88233SOL    HW166532   3.782  10.536  14.667
88233SOL    HW266533   3.880  10.454  14.586
88234SOL     OW66534  13.426  12.072   6.096
88234SOL    HW166535  13.494  12.138   6.095
88234SOL    HW266536  13.441  12.019   6.018
88235SOL     OW66537  13.631   7.897   4.758
88235SOL    HW166538  13.680   7.837   4.815
88235SOL    HW266539  13.563   7.934   4.814
88236SOL     OW66540   9.745   4.722   5.199
88236SOL    HW166541   9.745   4.677   5.114
88236SOL    HW266542   9.793   4.804   5.182
88237SOL     OW66543   0.635  11.961   0.673
88237SOL    HW166544   0.623  12.022   0.747
88237SOL    HW266545   0.547  11.931   0.653
88238SOL     OW66546   2.212   1.629   1.978
88238SOL    HW166547   2.277   1.696   1.957
88238SOL    HW266548   2.141   1.677   2.021
88239SOL     OW66549   0.052   0.106   3.275
88239SOL    HW166550   0.075   0.190   3.314
88239SOL    HW266551  14.847   0.121   3.231
88240SOL     OW66552  12.870   9.625   6.553
88240SOL    HW166553  12.813   9.700   6.569
88240SOL    HW266554  12.853   9.601   6.462
88241SOL     OW66555  10.009   2.670   5.354
88241SOL    HW166556   9.988   2.750   5.306
88241SOL    HW266557  10.068   2.699   5.424
88242SOL     OW66558   8.751   1.333  12.886
88242SOL    HW166559   8.743   1.331  12.791
88242SOL    HW266560   8.733   1.424  12.909
88243SOL     OW66561   7.956  11.775  11.564
88243SOL    HW166562   7.927  11.759  11.653
88243SOL    HW266563   7.915  11.705  11.512
88244SOL     OW66564   4.738   3.228  13.969
88244SOL    HW166565   4.686   3.300  13.933
88244SOL    HW266566   4.825   3.240  13.932
88245SOL     OW66567   2.088   0.282  10.911
88245SOL    HW166568   2.047   0.196  10.904
88245SOL    HW266569   2.138   0.279  10.992
88246SOL     OW66570  14.085  10.987   8.946
88246SOL    HW166571  14.037  10.905   8.930
88246SOL    HW266572  14.102  11.023   8.859
88247SOL     OW66573   7.980   8.369   6.624
88247SOL    HW166574   8.058   8.347   6.573
88247SOL    HW266575   8.008   8.442   6.680
88248SOL     OW66576   2.641   8.456  14.491
88248SOL    HW166577   2.600   8.534  14.529
88248SOL    HW266578   2.732   8.482  14.476
88249SOL     OW66579  12.225   7.547   8.529
88249SOL    HW166580  12.303   7.553   8.473
88249SOL    HW266581  12.187   7.461   8.510
88250SOL     OW66582   3.718   1.974   9.147
88250SOL    HW166583   3.626   1.962   9.170
88250SOL    HW266584   3.755   2.021   9.221
88251SOL     OW66585   1.385   1.078   5.889
88251SOL    HW166586   1.315   1.013   5.891
88251SOL    HW266587   1.359   1.139   5.820
88252SOL     OW66588   0.101   1.633  14.193
88252SOL    HW166589   0.084   1.570  14.263
88252SOL    HW266590   0.158   1.586  14.132
88253SOL     OW66591   2.416  10.408   3.290
88253SOL    HW166592   2.484  10.360   3.243
88253SOL    HW266593   2.334  10.372   3.255
88254SOL     OW66594   5.169   6.559   8.120
88254SOL    HW166595   5.139   6.647   8.143
88254SOL    HW266596   5.242   6.542   8.179
88255SOL     OW66597  11.997  13.065   9.668
88255SOL    HW166598  11.977  13.158   9.654
88255SOL    HW266599  12.066  13.046   9.605
88256SOL     OW66600   9.974  12.023   9.491
88256SOL    HW166601   9.983  12.111   9.454
88256SOL    HW266602   9.879  12.011   9.500
88257SOL     OW66603   5.226   2.812  12.254
88257SOL    HW166604   5.168   2.880  12.289
88257SOL    HW266605   5.190   2.792  12.168
88258SOL     OW66606  10.829   4.885  12.200
88258SOL    HW166607  10.844   4.865  12.108
88258SOL    HW266608  10.898   4.839  12.246
88259SOL     OW66609   1.869   0.805  12.626
88259SOL    HW166610   1.775   0.790  12.631
88259SOL    HW266611   1.894   0.832  12.714
88260SOL     OW66612   6.865   1.437  14.503
88260SOL    HW166613   6.836   1.524  14.478
88260SOL    HW266614   6.877   1.390  14.420
88261SOL     OW66615  13.890   0.614   2.060
88261SOL    HW166616  13.809   0.572   2.088
88261SOL    HW266617  13.889   0.700   2.102
88262SOL     OW66618   0.963  14.874  13.171
88262SOL    HW166619   1.043   0.048  13.183
88262SOL    HW266620   0.903   0.052  13.123
88263SOL     OW66621   7.154   5.061   6.990
88263SOL    HW166622   7.064   5.061   7.025
88263SOL    HW266623   7.202   5.120   7.048
88264SOL     OW66624   4.646  10.516  14.126
88264SOL    HW166625   4.622  10.456  14.055
88264SOL    HW266626   4.740  10.502  14.139
88265SOL     OW66627   6.425   3.740   3.175
88265SOL    HW166628   6.482   3.674   3.136
88265SOL    HW266629   6.440   3.732   3.269
88266SOL     OW66630  13.093  13.833   0.105
88266SOL    HW166631  13.003  13.838   0.139
88266SOL    HW266632  13.088  13.873   0.019
88267SOL     OW66633   2.133   8.127  11.087
88267SOL    HW166634   2.058   8.071  11.069
88267SOL    HW266635   2.194   8.109  11.016
88268SOL     OW66636  10.682   1.411   1.926
88268SOL    HW166637  10.638   1.480   1.975
88268SOL    HW266638  10.611   1.361   1.885
88269SOL     OW66639   4.557   1.292   8.755
88269SOL    HW166640   4.557   1.388   8.756
88269SOL    HW266641   4.647   1.268   8.777
88270SOL     OW66642   6.720  11.080   6.287
88270SOL    HW166643   6.760  10.995   6.308
88270SOL    HW266644   6.636  11.079   6.333
88271SOL     OW66645  14.485   5.701   4.332
88271SOL    HW166646  14.495   5.697   4.427
88271SOL    HW266647  14.502   5.793   4.310
88272SOL     OW66648   1.058   5.916  13.340
88272SOL    HW166649   1.137   5.863  13.351
88272SOL    HW266650   0.988   5.852  13.327
88273SOL     OW66651  12.658   2.174   3.503
88273SOL    HW166652  12.594   2.122   3.552
88273SOL    HW266653  12.639   2.155   3.411
88274SOL     OW66654  10.339   6.001   1.580
88274SOL    HW166655  10.405   6.001   1.510
88274SOL    HW266656  10.288   5.922   1.564
88275SOL     OW66657  10.598   4.955  11.093
88275SOL    HW166658  10.563   5.000  11.171
88275SOL    HW266659  10.648   5.023  11.048
88276SOL     OW66660   5.234   3.545   5.347
88276SOL    HW166661   5.206   3.474   5.406
88276SOL    HW266662   5.156   3.566   5.296
88277SOL     OW66663  13.269   1.238  10.958
88277SOL    HW166664  13.365   1.241  10.949
88277SOL    HW266665  13.240   1.325  10.930
88278SOL     OW66666   6.354   3.038   3.907
88278SOL    HW166667   6.378   3.029   3.999
88278SOL    HW266668   6.438   3.039   3.860
88279SOL     OW66669  11.424   0.269   9.185
88279SOL    HW166670  11.466   0.237   9.265
88279SOL    HW266671  11.330   0.258   9.201
88280SOL     OW66672   1.698   3.826   7.691
88280SOL    HW166673   1.702   3.864   7.604
88280SOL    HW266674   1.696   3.902   7.750
88281SOL     OW66675   4.324   0.955   0.501
88281SOL    HW166676   4.279   0.995   0.427
88281SOL    HW266677   4.296   0.864   0.500
88282SOL     OW66678   6.448   7.685   2.247
88282SOL    HW166679   6.449   7.751   2.177
88282SOL    HW266680   6.422   7.604   2.202
88283SOL     OW66681  11.879   6.663   0.990
88283SOL    HW166682  11.901   6.587   0.936
88283SOL    HW266683  11.888   6.632   1.080
88284SOL     OW66684   3.128   8.797   3.186
88284SOL    HW166685   3.136   8.708   3.219
88284SOL    HW266686   3.152   8.791   3.093
88285SOL     OW66687   6.373   8.178  12.896
88285SOL    HW166688   6.379   8.085  12.876
88285SOL    HW266689   6.422   8.187  12.978
88286SOL     OW66690  12.561   9.947   0.820
88286SOL    HW166691  12.623  10.021   0.818
88286SOL    HW266692  12.616   9.870   0.803
88287SOL     OW66693  11.717  11.261   9.984
88287SOL    HW166694  11.760  11.294  10.063
88287SOL    HW266695  11.774  11.189   9.955
88288SOL     OW66696   4.035   1.154  13.384
88288SOL    HW166697   4.100   1.121  13.322
88288SOL    HW266698   3.961   1.180  13.330
88289SOL     OW66699   2.637  12.471   9.669
88289SOL    HW166700   2.678  12.522   9.599
88289SOL    HW266701   2.633  12.531   9.744
88290SOL     OW66702  13.545   1.593   9.672
88290SOL    HW166703  13.456   1.558   9.663
88290SOL    HW266704  13.583   1.543   9.744
88291SOL     OW66705   9.799   0.473   3.140
88291SOL    HW166706   9.820   0.379   3.141
88291SOL    HW266707   9.873   0.514   3.095
88292SOL     OW66708   5.127  13.634   8.729
88292SOL    HW166709   5.189  13.595   8.667
88292SOL    HW266710   5.129  13.727   8.708
88293SOL     OW66711   7.719   4.482   4.138
88293SOL    HW166712   7.802   4.522   4.164
88293SOL    HW266713   7.652   4.536   4.182
88294SOL     OW66714  12.236   3.374   2.909
88294SOL    HW166715  12.162   3.391   2.851
88294SOL    HW266716  12.199   3.328   2.984
88295SOL     OW66717   6.436   0.622  11.650
88295SOL    HW166718   6.400   0.676  11.721
88295SOL    HW266719   6.361   0.604  11.593
88296SOL     OW66720   7.205   5.977  13.784
88296SOL    HW166721   7.171   6.004  13.870
88296SOL    HW266722   7.169   6.042  13.723
88297SOL     OW66723   0.605   4.173   6.005
88297SOL    HW166724   0.686   4.202   5.965
88297SOL    HW266725   0.537   4.194   5.941
88298SOL     OW66726   3.633  11.914  13.933
88298SOL    HW166727   3.639  11.854  14.008
88298SOL    HW266728   3.695  11.984  13.954
88299SOL     OW66729   3.426   5.543  13.997
88299SOL    HW166730   3.409   5.574  13.909
88299SOL    HW266731   3.520   5.522  13.998
88300SOL     OW66732  11.370   8.036   2.838
88300SOL    HW166733  11.372   7.945   2.810
88300SOL    HW266734  11.390   8.033   2.932
88301SOL     OW66735   7.595   7.319   6.591
88301SOL    HW166736   7.588   7.238   6.540
88301SOL    HW266737   7.549   7.300   6.673
88302SOL     OW66738   6.146   5.829  10.847
88302SOL    HW166739   6.103   5.890  10.907
88302SOL    HW266740   6.237   5.859  10.844
88303SOL     OW66741  11.370   3.496   3.164
88303SOL    HW166742  11.443   3.554   3.144
88303SOL    HW266743  11.307   3.552   3.210
88304SOL     OW66744   4.753   8.257   8.682
88304SOL    HW166745   4.735   8.288   8.593
88304SOL    HW266746   4.700   8.313   8.739
88305SOL     OW66747   9.981   4.547   1.705
88305SOL    HW166748  10.019   4.507   1.627
88305SOL    HW266749   9.917   4.610   1.671
88306SOL     OW66750  14.160  12.440   7.800
88306SOL    HW166751  14.151  12.358   7.751
88306SOL    HW266752  14.177  12.506   7.732
88307SOL     OW66753  14.811   9.867  14.352
88307SOL    HW166754  14.716   9.880  14.350
88307SOL    HW266755  14.831   9.823  14.270
88308SOL     OW66756   4.818  13.639   1.933
88308SOL    HW166757   4.760  13.666   2.003
88308SOL    HW266758   4.906  13.650   1.968
88309SOL     OW66759   5.935   1.648   5.802
88309SOL    HW166760   5.978   1.625   5.720
88309SOL    HW266761   5.998   1.705   5.847
88310SOL     OW66762   6.823  11.538   4.045
88310SOL    HW166763   6.917  11.548   4.059
88310SOL    HW266764   6.806  11.445   4.059
88311SOL     OW66765   1.575   0.301   8.627
88311SOL    HW166766   1.633   0.376   8.635
88311SOL    HW266767   1.593   0.248   8.705
88312SOL     OW66768   8.118  13.516  14.143
88312SOL    HW166769   8.212  13.530  14.144
88312SOL    HW266770   8.107  13.421  14.150
88313SOL     OW66771  14.531   3.049   0.816
88313SOL    HW166772  14.524   3.142   0.838
88313SOL    HW266773  14.553   3.006   0.899
88314SOL     OW66774   8.059   3.564   0.351
88314SOL    HW166775   8.093   3.653   0.348
88314SOL    HW266776   8.115   3.514   0.292
88315SOL     OW66777  10.221   3.373  13.621
88315SOL    HW166778  10.176   3.445  13.665
88315SOL    HW266779  10.262   3.412  13.544
88316SOL     OW66780   4.627   9.230   4.064
88316SOL    HW166781   4.580   9.183   3.995
88316SOL    HW266782   4.580   9.207   4.144
88317SOL     OW66783   7.856  12.972   9.350
88317SOL    HW166784   7.918  12.977   9.423
88317SOL    HW266785   7.796  13.046   9.364
88318SOL     OW66786   6.049   1.221   7.232
88318SOL    HW166787   6.077   1.271   7.155
88318SOL    HW266788   6.123   1.225   7.292
88319SOL     OW66789   1.953   4.595   8.894
88319SOL    HW166790   2.010   4.616   8.820
88319SOL    HW266791   1.958   4.499   8.902
88320SOL     OW66792   4.482   5.099  13.042
88320SOL    HW166793   4.526   5.097  13.127
88320SOL    HW266794   4.425   5.175  13.046
88321SOL     OW66795  10.492  12.188   3.403
88321SOL    HW166796  10.552  12.148   3.340
88321SOL    HW266797  10.506  12.139   3.484
88322SOL     OW66798  14.452   2.209  12.801
88322SOL    HW166799  14.425   2.213  12.893
88322SOL    HW266800  14.492   2.294  12.784
88323SOL     OW66801   0.713   0.262   1.941
88323SOL    HW166802   0.717   0.306   1.856
88323SOL    HW266803   0.740   0.329   2.004
88324SOL     OW66804   1.667   9.313  11.563
88324SOL    HW166805   1.655   9.370  11.640
88324SOL    HW266806   1.662   9.373  11.489
88325SOL     OW66807   5.956   7.351   4.258
88325SOL    HW166808   5.972   7.398   4.176
88325SOL    HW266809   5.863   7.331   4.258
88326SOL     OW66810  10.436   2.313   5.199
88326SOL    HW166811  10.438   2.314   5.294
88326SOL    HW266812  10.370   2.248   5.177
88327SOL     OW66813   5.255  10.366  12.457
88327SOL    HW166814   5.286  10.436  12.514
88327SOL    HW266815   5.188  10.321  12.509
88328SOL     OW66816   9.191  13.095  11.966
88328SOL    HW166817   9.260  13.152  12.000
88328SOL    HW266818   9.153  13.143  11.893
88329SOL     OW66819   4.475   0.026   5.792
88329SOL    HW166820   4.476  14.818   5.753
88329SOL    HW266821   4.430   0.015   5.875
88330SOL     OW66822   8.329   1.077  13.602
88330SOL    HW166823   8.418   1.045  13.620
88330SOL    HW266824   8.285   1.073  13.687
88331SOL     OW66825  10.620   5.263   5.402
88331SOL    HW166826  10.701   5.304   5.431
88331SOL    HW266827  10.627   5.171   5.430
88332SOL     OW66828   7.846  12.656   5.921
88332SOL    HW166829   7.907  12.644   5.849
88332SOL    HW266830   7.773  12.597   5.902
88333SOL     OW66831   5.872   6.038   7.185
88333SOL    HW166832   5.904   5.983   7.257
88333SOL    HW266833   5.896   5.991   7.106
88334SOL     OW66834   5.147   0.768   1.363
88334SOL    HW166835   5.238   0.744   1.345
88334SOL    HW266836   5.096   0.691   1.335
88335SOL     OW66837   0.421  12.517  12.461
88335SOL    HW166838   0.492  12.567  12.423
88335SOL    HW266839   0.460  12.432  12.482
88336SOL     OW66840   5.226   1.180   2.441
88336SOL    HW166841   5.202   1.095   2.404
88336SOL    HW266842   5.144   1.231   2.438
88337SOL     OW66843  10.853   6.672   2.007
88337SOL    HW166844  10.761   6.679   1.981
88337SOL    HW266845  10.866   6.578   2.024
88338SOL     OW66846   1.547   8.265   1.913
88338SOL    HW166847   1.473   8.235   1.965
88338SOL    HW266848   1.591   8.184   1.886
88339SOL     OW66849  12.370   4.919   4.452
88339SOL    HW166850  12.351   4.855   4.383
88339SOL    HW266851  12.465   4.911   4.466
88340SOL     OW66852   5.600  14.874   0.726
88340SOL    HW166853   5.587  14.834   0.812
88340SOL    HW266854   5.694  14.866   0.710
88341SOL     OW66855   6.599  11.659   1.785
88341SOL    HW166856   6.676  11.707   1.755
88341SOL    HW266857   6.535  11.672   1.715
88342SOL     OW66858   2.594  10.041   0.285
88342SOL    HW166859   2.631  10.105   0.346
88342SOL    HW266860   2.669  10.013   0.233
88343SOL     OW66861   6.137   8.684   7.056
88343SOL    HW166862   6.181   8.645   6.980
88343SOL    HW266863   6.207   8.701   7.118
88344SOL     OW66864  13.552   8.421   7.450
88344SOL    HW166865  13.474   8.476   7.447
88344SOL    HW266866  13.604   8.456   7.522
88345SOL     OW66867   8.800   8.738   9.166
88345SOL    HW166868   8.782   8.825   9.201
88345SOL    HW266869   8.735   8.681   9.207
88346SOL     OW66870   5.054   1.296   7.578
88346SOL    HW166871   5.125   1.243   7.544
88346SOL    HW266872   4.980   1.235   7.585
88347SOL     OW66873   2.133   2.632   7.881
88347SOL    HW166874   2.151   2.633   7.975
88347SOL    HW266875   2.082   2.552   7.868
88348SOL     OW66876   9.304   1.264   8.110
88348SOL    HW166877   9.325   1.210   8.186
88348SOL    HW266878   9.329   1.211   8.034
88349SOL     OW66879  12.787  13.366  12.816
88349SOL    HW166880  12.727  13.314  12.763
88349SOL    HW266881  12.733  13.397  12.889
88350SOL     OW66882  13.996   6.987   8.455
88350SOL    HW166883  13.978   7.064   8.510
88350SOL    HW266884  14.080   7.006   8.413
88351SOL     OW66885   7.212  14.214   8.366
88351SOL    HW166886   7.185  14.267   8.292
88351SOL    HW266887   7.155  14.240   8.438
88352SOL     OW66888   9.291   8.001   7.855
88352SOL    HW166889   9.203   7.997   7.819
88352SOL    HW266890   9.280   7.982   7.948
88353SOL     OW66891   5.624   9.771  12.868
88353SOL    HW166892   5.668   9.785  12.784
88353SOL    HW266893   5.558   9.705  12.850
88354SOL     OW66894  13.207  11.485  13.661
88354SOL    HW166895  13.283  11.518  13.709
88354SOL    HW266896  13.240  11.469  13.572
88355SOL     OW66897   5.406   8.955   9.753
88355SOL    HW166898   5.310   8.946   9.757
88355SOL    HW266899   5.429   8.933   9.663
88356SOL     OW66900   5.124   1.355  13.152
88356SOL    HW166901   5.187   1.387  13.089
88356SOL    HW266902   5.108   1.264  13.127
88357SOL     OW66903   1.850  13.806   2.131
88357SOL    HW166904   1.918  13.740   2.133
88357SOL    HW266905   1.894  13.885   2.099
88358SOL     OW66906  11.692   7.330   2.784
88358SOL    HW166907  11.687   7.373   2.869
88358SOL    HW266908  11.771   7.276   2.788
88359SOL     OW66909   1.107   8.285   0.270
88359SOL    HW166910   1.076   8.374   0.290
88359SOL    HW266911   1.127   8.247   0.355
88360SOL     OW66912   5.327   1.298   5.544
88360SOL    HW166913   5.271   1.321   5.470
88360SOL    HW266914   5.289   1.217   5.577
88361SOL     OW66915  14.373   8.286   9.834
88361SOL    HW166916  14.443   8.291   9.899
88361SOL    HW266917  14.314   8.218   9.867
88362SOL     OW66918   2.173  14.641   9.676
88362SOL    HW166919   2.095  14.600   9.714
88362SOL    HW266920   2.231  14.568   9.656
88363SOL     OW66921  11.230   8.534   0.944
88363SOL    HW166922  11.217   8.495   1.030
88363SOL    HW266923  11.161   8.495   0.890
88364SOL     OW66924   8.174   9.020   5.631
88364SOL    HW166925   8.215   8.943   5.671
88364SOL    HW266926   8.177   9.002   5.537
88365SOL     OW66927  11.663   1.976   1.519
88365SOL    HW166928  11.602   2.024   1.464
88365SOL    HW266929  11.610   1.908   1.560
88366SOL     OW66930   3.139   1.706   3.884
88366SOL    HW166931   3.163   1.712   3.792
88366SOL    HW266932   3.129   1.612   3.900
88367SOL     OW66933   4.512  10.339   9.209
88367SOL    HW166934   4.490  10.273   9.144
88367SOL    HW266935   4.488  10.300   9.293
88368SOL     OW66936   5.298  10.826   7.942
88368SOL    HW166937   5.204  10.810   7.952
88368SOL    HW266938   5.336  10.739   7.936
88369SOL     OW66939   8.617   6.180   3.377
88369SOL    HW166940   8.664   6.174   3.294
88369SOL    HW266941   8.531   6.215   3.353
88370SOL     OW66942  10.579  10.039   9.027
88370SOL    HW166943  10.506  10.057   8.967
88370SOL    HW266944  10.618   9.959   8.993
88371SOL     OW66945   2.494   2.743   9.316
88371SOL    HW166946   2.543   2.669   9.280
88371SOL    HW266947   2.427   2.761   9.250
88372SOL     OW66948   0.834  13.885   3.617
88372SOL    HW166949   0.770  13.913   3.551
88372SOL    HW266950   0.845  13.791   3.601
88373SOL     OW66951  13.234   3.065   8.210
88373SOL    HW166952  13.319   3.109   8.218
88373SOL    HW266953  13.232   3.034   8.119
88374SOL     OW66954   1.178  13.798  12.993
88374SOL    HW166955   1.087  13.818  12.970
88374SOL    HW266956   1.214  13.761  12.913
88375SOL     OW66957   8.051  11.680   8.438
88375SOL    HW166958   8.118  11.665   8.505
88375SOL    HW266959   8.091  11.742   8.377
88376SOL     OW66960   8.964   8.420   1.672
88376SOL    HW166961   8.994   8.341   1.717
88376SOL    HW266962   8.870   8.404   1.656
88377SOL     OW66963   4.901   3.602  14.511
88377SOL    HW166964   4.890   3.614  14.417
88377SOL    HW266965   4.974   3.660  14.534
88378SOL     OW66966   4.306  10.433   0.712
88378SOL    HW166967   4.351  10.510   0.677
88378SOL    HW266968   4.370  10.394   0.772
88379SOL     OW66969   7.815   0.112   0.265
88379SOL    HW166970   7.856   0.047   0.322
88379SOL    HW266971   7.855   0.099   0.180
88380SOL     OW66972  12.390   7.447   2.237
88380SOL    HW166973  12.403   7.503   2.313
88380SOL    HW266974  12.301   7.414   2.246
88381SOL     OW66975   9.141   3.178   2.799
88381SOL    HW166976   9.097   3.263   2.797
88381SOL    HW266977   9.234   3.200   2.798
88382SOL     OW66978   9.856   3.574   6.093
88382SOL    HW166979   9.783   3.557   6.152
88382SOL    HW266980   9.816   3.580   6.006
88383SOL     OW66981   3.669   1.662   6.041
88383SOL    HW166982   3.700   1.665   6.132
88383SOL    HW266983   3.574   1.656   6.047
88384SOL     OW66984  12.358   9.086   8.185
88384SOL    HW166985  12.377   9.109   8.276
88384SOL    HW266986  12.441   9.056   8.149
88385SOL     OW66987   5.555   7.539  13.325
88385SOL    HW166988   5.561   7.615  13.383
88385SOL    HW266989   5.572   7.464  13.382
88386SOL     OW66990   0.389  12.073   4.304
88386SOL    HW166991   0.406  12.016   4.379
88386SOL    HW266992   0.466  12.130   4.299
88387SOL     OW66993  14.225   6.148  13.523
88387SOL    HW166994  14.262   6.151  13.611
88387SOL    HW266995  14.244   6.234  13.486
88388SOL     OW66996   4.014   9.715   8.197
88388SOL    HW166997   3.979   9.804   8.190
88388SOL    HW266998   4.028   9.702   8.291
88389SOL     OW66999  10.058  10.687   8.775
88389SOL    HW167000  10.073  10.618   8.709
88389SOL    HW267001   9.965  10.679   8.797
88390SOL     OW67002  11.149   2.133   6.429
88390SOL    HW167003  11.065   2.094   6.452
88390SOL    HW267004  11.129   2.191   6.355
88391SOL     OW67005   5.631  11.867   4.936
88391SOL    HW167006   5.554  11.894   4.986
88391SOL    HW267007   5.604  11.877   4.844
88392SOL     OW67008   9.279   3.782   4.910
88392SOL    HW167009   9.352   3.779   4.972
88392SOL    HW267010   9.304   3.850   4.847
88393SOL     OW67011   6.100   3.679   2.065
88393SOL    HW167012   6.117   3.684   1.971
88393SOL    HW267013   6.101   3.585   2.085
88394SOL     OW67014   5.002   8.272   8.780
88394SOL    HW167015   4.922   8.284   8.730
88394SOL    HW267016   4.983   8.199   8.839
88395SOL     OW67017   8.928   6.357   6.503
88395SOL    HW167018   8.861   6.417   6.470
88395SOL    HW267019   8.962   6.401   6.581
88396SOL     OW67020   1.386   1.418   3.682
88396SOL    HW167021   1.432   1.482   3.627
88396SOL    HW267022   1.450   1.349   3.699
88397SOL     OW67023   0.473   2.933  13.651
88397SOL    HW167024   0.548   2.924  13.591
88397SOL    HW267025   0.512   2.955  13.735
88398SOL     OW67026   8.871  12.199   6.440
88398SOL    HW167027   8.777  12.211   6.424
88398SOL    HW267028   8.896  12.127   6.382
88399SOL     OW67029   4.793  13.110   2.712
88399SOL    HW167030   4.815  13.109   2.619
88399SOL    HW267031   4.798  13.018   2.739
88400SOL     OW67032   3.290   6.587  13.354
88400SOL    HW167033   3.219   6.563  13.413
88400SOL    HW267034   3.337   6.657  13.400
88401SOL     OW67035   2.710  14.584   8.502
88401SOL    HW167036   2.670  14.500   8.525
88401SOL    HW267037   2.760  14.565   8.423
88402SOL     OW67038  14.761   7.309   0.161
88402SOL    HW167039  14.790   7.230   0.115
88402SOL    HW267040  14.817   7.313   0.238
88403SOL     OW67041   0.541  11.648   7.125
88403SOL    HW167042   0.464  11.653   7.068
88403SOL    HW267043   0.585  11.567   7.098
88404SOL     OW67044   5.930   2.238  11.522
88404SOL    HW167045   5.966   2.321  11.553
88404SOL    HW267046   5.842   2.235  11.559
88405SOL     OW67047   1.171   5.874   1.077
88405SOL    HW167048   1.082   5.845   1.100
88405SOL    HW267049   1.220   5.865   1.159
88406SOL     OW67050   4.994  14.486  11.087
88406SOL    HW167051   5.003  14.502  11.181
88406SOL    HW267052   5.055  14.414  11.069
88407SOL     OW67053  14.850   7.924   6.174
88407SOL    HW167054  14.783   7.952   6.236
88407SOL    HW267055  14.832   7.973   6.094
88408SOL     OW67056   9.773   6.554  14.826
88408SOL    HW167057   9.812   6.622   0.002
88408SOL    HW267058   9.691   6.594  14.794
88409SOL     OW67059  12.504  10.469   1.498
88409SOL    HW167060  12.558  10.541   1.530
88409SOL    HW267061  12.414  10.498   1.512
88410SOL     OW67062   6.458  12.083   7.666
88410SOL    HW167063   6.408  12.164   7.678
88410SOL    HW267064   6.400  12.014   7.699
88411SOL     OW67065   8.194  13.932   2.510
88411SOL    HW167066   8.114  13.938   2.563
88411SOL    HW267067   8.264  13.918   2.574
88412SOL     OW67068  10.745   4.040   7.507
88412SOL    HW167069  10.743   3.976   7.436
88412SOL    HW267070  10.838   4.050   7.528
88413SOL     OW67071   5.849  11.840   7.252
88413SOL    HW167072   5.798  11.919   7.235
88413SOL    HW267073   5.786  11.779   7.290
88414SOL     OW67074  10.421   1.038  13.123
88414SOL    HW167075  10.437   0.983  13.200
88414SOL    HW267076  10.486   1.108  13.129
88415SOL     OW67077   4.719  12.137  12.774
88415SOL    HW167078   4.740  12.105  12.861
88415SOL    HW267079   4.709  12.059  12.720
88416SOL     OW67080   6.976   5.241  11.892
88416SOL    HW167081   6.985   5.311  11.957
88416SOL    HW267082   6.948   5.164  11.942
88417SOL     OW67083   6.129  10.957   7.501
88417SOL    HW167084   6.062  10.937   7.567
88417SOL    HW267085   6.208  10.913   7.533
88418SOL     OW67086  10.674  11.562   2.228
88418SOL    HW167087  10.679  11.467   2.233
88418SOL    HW267088  10.709  11.593   2.312
88419SOL     OW67089   5.804   0.110   8.541
88419SOL    HW167090   5.887   0.078   8.577
88419SOL    HW267091   5.778   0.042   8.478
88420SOL     OW67092   3.118   7.761  11.041
88420SOL    HW167093   3.201   7.738  11.083
88420SOL    HW267094   3.054   7.756  11.112
88421SOL     OW67095   8.374   2.426   2.608
88421SOL    HW167096   8.404   2.354   2.664
88421SOL    HW267097   8.356   2.498   2.668
88422SOL     OW67098  11.957   8.441  14.271
88422SOL    HW167099  11.921   8.519  14.230
88422SOL    HW267100  11.924   8.444  14.361
88423SOL     OW67101   5.452   0.766   5.996
88423SOL    HW167102   5.534   0.815   6.003
88423SOL    HW267103   5.401   0.814   5.931
88424SOL     OW67104  14.261  14.251   2.456
88424SOL    HW167105  14.182  14.200   2.439
88424SOL    HW267106  14.265  14.259   2.552
88425SOL     OW67107  12.825  12.390   7.847
88425SOL    HW167108  12.818  12.484   7.865
88425SOL    HW267109  12.735  12.360   7.840
88426SOL     OW67110   4.073  11.060  10.940
88426SOL    HW167111   4.112  11.133  10.989
88426SOL    HW267112   4.107  11.070  10.851
88427SOL     OW67113   6.280  11.701   0.550
88427SOL    HW167114   6.360  11.725   0.598
88427SOL    HW267115   6.309  11.691   0.459
88428SOL     OW67116   4.069  13.695   1.591
88428SOL    HW167117   4.091  13.668   1.680
88428SOL    HW267118   4.153  13.699   1.546
88429SOL     OW67119   9.527   8.161  11.733
88429SOL    HW167120   9.546   8.225  11.802
88429SOL    HW267121   9.443   8.191  11.696
88430SOL     OW67122  11.861   7.190   8.013
88430SOL    HW167123  11.946   7.149   7.995
88430SOL    HW267124  11.863   7.209   8.107
88431SOL     OW67125   7.068   2.731   2.454
88431SOL    HW167126   7.029   2.793   2.515
88431SOL    HW267127   7.056   2.646   2.497
88432SOL     OW67128   9.517   5.586  11.437
88432SOL    HW167129   9.500   5.654  11.502
88432SOL    HW267130   9.517   5.505  11.488
88433SOL     OW67131   9.994   3.564  13.028
88433SOL    HW167132   9.991   3.502  13.101
88433SOL    HW267133  10.085   3.595  13.027
88434SOL     OW67134  13.580  12.262   2.034
88434SOL    HW167135  13.671  12.290   2.021
88434SOL    HW267136  13.584  12.166   2.031
88435SOL     OW67137   9.472   1.422   5.488
88435SOL    HW167138   9.517   1.379   5.561
88435SOL    HW267139   9.513   1.385   5.410
88436SOL     OW67140  12.461   2.854   8.488
88436SOL    HW167141  12.555   2.859   8.467
88436SOL    HW267142  12.456   2.882   8.580
88437SOL     OW67143  13.084   4.254   9.300
88437SOL    HW167144  13.058   4.344   9.315
88437SOL    HW267145  13.011   4.214   9.254
88438SOL     OW67146  12.047  14.672   3.414
88438SOL    HW167147  11.973  14.727   3.438
88438SOL    HW267148  12.124  14.722   3.442
88439SOL     OW67149   2.030   7.178   7.060
88439SOL    HW167150   2.110   7.231   7.064
88439SOL    HW267151   2.001   7.172   7.151
88440SOL     OW67152   4.464  12.923  14.436
88440SOL    HW167153   4.426  12.845  14.398
88440SOL    HW267154   4.517  12.891  14.509
88441SOL     OW67155   3.905   6.618   5.013
88441SOL    HW167156   3.899   6.568   4.932
88441SOL    HW267157   3.933   6.553   5.079
88442SOL     OW67158   2.048   9.583   6.405
88442SOL    HW167159   2.035   9.488   6.402
88442SOL    HW267160   2.102   9.597   6.483
88443SOL     OW67161   0.715   3.791   9.893
88443SOL    HW167162   0.641   3.746   9.934
88443SOL    HW267163   0.688   3.883   9.890
88444SOL     OW67164  12.932   9.412  12.116
88444SOL    HW167165  12.974   9.359  12.184
88444SOL    HW267166  12.958   9.502  12.137
88445SOL     OW67167   9.331  12.233  14.468
88445SOL    HW167168   9.236  12.238  14.472
88445SOL    HW267169   9.350  12.202  14.379
88446SOL     OW67170   9.693  14.445  11.043
88446SOL    HW167171   9.773  14.391  11.042
88446SOL    HW267172   9.708  14.511  10.975
88447SOL     OW67173   0.085   6.841   4.776
88447SOL    HW167174  14.874   6.823   4.804
88447SOL    HW267175   0.100   6.781   4.704
88448SOL     OW67176   9.713   5.566  13.969
88448SOL    HW167177   9.804   5.584  13.992
88448SOL    HW267178   9.665   5.579  14.050
88449SOL     OW67179   8.296  11.168  14.704
88449SOL    HW167180   8.298  11.109  14.629
88449SOL    HW267181   8.228  11.132  14.761
88450SOL     OW67182   2.775   8.158  12.727
88450SOL    HW167183   2.769   8.172  12.821
88450SOL    HW267184   2.685   8.136  12.700
88451SOL     OW67185   8.058   5.633  11.462
88451SOL    HW167186   8.069   5.566  11.530
88451SOL    HW267187   8.036   5.584  11.383
88452SOL     OW67188  11.619   1.840   1.864
88452SOL    HW167189  11.600   1.815   1.773
88452SOL    HW267190  11.675   1.770   1.897
88453SOL     OW67191   0.833  14.047   8.160
88453SOL    HW167192   0.743  14.053   8.193
88453SOL    HW267193   0.837  13.962   8.116
88454SOL     OW67194   5.356  10.077   7.858
88454SOL    HW167195   5.293  10.141   7.827
88454SOL    HW267196   5.395  10.116   7.936
88455SOL     OW67197   1.781  13.862   1.876
88455SOL    HW167198   1.847  13.810   1.923
88455SOL    HW267199   1.714  13.798   1.852
88456SOL     OW67200   5.052   3.737   6.339
88456SOL    HW167201   5.144   3.762   6.344
88456SOL    HW267202   5.038   3.680   6.414
88457SOL     OW67203  13.679   1.754   3.507
88457SOL    HW167204  13.716   1.693   3.444
88457SOL    HW267205  13.750   1.770   3.570
88458SOL     OW67206  13.980   0.711   3.743
88458SOL    HW167207  14.039   0.703   3.818
88458SOL    HW267208  14.000   0.796   3.704
88459SOL     OW67209   8.767   8.983   0.201
88459SOL    HW167210   8.713   8.985   0.122
88459SOL    HW267211   8.853   9.012   0.171
88460SOL     OW67212   9.353  14.825   5.353
88460SOL    HW167213   9.331  14.805   5.444
88460SOL    HW267214   9.274  14.802   5.303
88461SOL     OW67215   9.663   2.660   5.686
88461SOL    HW167216   9.613   2.624   5.760
88461SOL    HW267217   9.597   2.691   5.625
88462SOL     OW67218   1.898   4.516   8.518
88462SOL    HW167219   1.930   4.486   8.433
88462SOL    HW267220   1.873   4.437   8.564
88463SOL     OW67221   0.454   0.206   5.525
88463SOL    HW167222   0.529   0.162   5.484
88463SOL    HW267223   0.378   0.172   5.478
88464SOL     OW67224   5.749   0.284   5.073
88464SOL    HW167225   5.701   0.362   5.100
88464SOL    HW267226   5.841   0.308   5.084
88465SOL     OW67227   2.508   8.048   4.895
88465SOL    HW167228   2.518   8.087   4.808
88465SOL    HW267229   2.597   8.048   4.932
88466SOL     OW67230   4.016   8.048   5.552
88466SOL    HW167231   4.052   7.999   5.477
88466SOL    HW267232   4.047   8.000   5.629
88467SOL     OW67233  10.001   6.944  14.191
88467SOL    HW167234  10.074   6.983  14.239
88467SOL    HW267235   9.955   6.891  14.256
88468SOL     OW67236   0.363  11.159  14.233
88468SOL    HW167237   0.357  11.193  14.144
88468SOL    HW267238   0.413  11.225  14.281
88469SOL     OW67239   4.585   3.550  13.677
88469SOL    HW167240   4.543   3.602  13.746
88469SOL    HW267241   4.592   3.610  13.603
88470SOL     OW67242   4.572  11.626   8.599
88470SOL    HW167243   4.549  11.564   8.668
88470SOL    HW267244   4.648  11.673   8.633
88471SOL     OW67245   4.665   2.274   9.123
88471SOL    HW167246   4.600   2.339   9.148
88471SOL    HW267247   4.617   2.213   9.066
88472SOL     OW67248  11.125  12.031  10.549
88472SOL    HW167249  11.100  12.123  10.539
88472SOL    HW267250  11.147  12.022  10.641
88473SOL     OW67251   1.451   3.306   1.960
88473SOL    HW167252   1.429   3.214   1.976
88473SOL    HW267253   1.544   3.305   1.936
88474SOL     OW67254  10.447   4.595   3.698
88474SOL    HW167255  10.521   4.550   3.657
88474SOL    HW267256  10.488   4.662   3.752
88475SOL     OW67257   0.250  10.394   1.399
88475SOL    HW167258   0.239  10.359   1.311
88475SOL    HW267259   0.292  10.323   1.448
88476SOL     OW67260   6.792   5.334  10.163
88476SOL    HW167261   6.788   5.382  10.080
88476SOL    HW267262   6.833   5.251  10.141
88477SOL     OW67263   8.452  13.820   8.727
88477SOL    HW167264   8.524  13.839   8.787
88477SOL    HW267265   8.403  13.902   8.721
88478SOL     OW67266   8.660  11.124  14.735
88478SOL    HW167267   8.722  11.149  14.666
88478SOL    HW267268   8.715  11.105  14.811
88479SOL     OW67269   2.870  10.551  12.247
88479SOL    HW167270   2.803  10.573  12.311
88479SOL    HW267271   2.912  10.472  12.282
88480SOL     OW67272   9.665   9.115  11.610
88480SOL    HW167273   9.630   9.161  11.535
88480SOL    HW267274   9.675   9.024  11.580
88481SOL     OW67275  14.675  12.564   9.236
88481SOL    HW167276  14.586  12.562   9.272
88481SOL    HW267277  14.686  12.477   9.198
88482SOL     OW67278   2.723  13.955   6.857
88482SOL    HW167279   2.767  14.033   6.892
88482SOL    HW267280   2.792  13.907   6.812
88483SOL     OW67281  13.112   9.177  12.253
88483SOL    HW167282  13.065   9.119  12.313
88483SOL    HW267283  13.141   9.119  12.182
88484SOL     OW67284   4.672  10.890   2.149
88484SOL    HW167285   4.671  10.914   2.056
88484SOL    HW267286   4.764  10.893   2.174
88485SOL     OW67287   2.351   1.793   7.757
88485SOL    HW167288   2.300   1.719   7.723
88485SOL    HW267289   2.287   1.863   7.768
88486SOL     OW67290   6.736   8.269   1.187
88486SOL    HW167291   6.780   8.353   1.170
88486SOL    HW267292   6.801   8.203   1.163
88487SOL     OW67293  12.459  13.684  10.172
88487SOL    HW167294  12.455  13.700  10.078
88487SOL    HW267295  12.541  13.727  10.200
88488SOL     OW67296   4.116  14.204   1.179
88488SOL    HW167297   4.130  14.243   1.092
88488SOL    HW267298   4.204  14.183   1.210
88489SOL     OW67299  12.631   4.418  13.429
88489SOL    HW167300  12.654   4.395  13.339
88489SOL    HW267301  12.703   4.383  13.482
88490SOL     OW67302   2.167  14.070   9.306
88490SOL    HW167303   2.207  14.082   9.392
88490SOL    HW267304   2.241  14.052   9.248
88491SOL     OW67305   4.798  12.273   2.255
88491SOL    HW167306   4.761  12.186   2.269
88491SOL    HW267307   4.841  12.267   2.170
88492SOL     OW67308   0.683   2.353   5.678
88492SOL    HW167309   0.616   2.364   5.610
88492SOL    HW267310   0.633   2.332   5.757
88493SOL     OW67311   4.737   1.590   7.717
88493SOL    HW167312   4.730   1.674   7.672
88493SOL    HW267313   4.702   1.606   7.804
88494SOL     OW67314   2.469  13.923   0.418
88494SOL    HW167315   2.536  13.955   0.358
88494SOL    HW267316   2.510  13.927   0.504
88495SOL     OW67317   2.631  11.985   8.914
88495SOL    HW167318   2.682  12.064   8.933
88495SOL    HW267319   2.547  12.019   8.883
88496SOL     OW67320   5.583   9.427  10.019
88496SOL    HW167321   5.628   9.440   9.935
88496SOL    HW267322   5.533   9.508  10.031
88497SOL     OW67323   7.245   4.896   1.924
88497SOL    HW167324   7.321   4.953   1.932
88497SOL    HW267325   7.170   4.953   1.940
88498SOL     OW67326   7.821   1.467   6.255
88498SOL    HW167327   7.755   1.445   6.190
88498SOL    HW267328   7.904   1.466   6.207
88499SOL     OW67329   8.437   0.095   6.903
88499SOL    HW167330   8.452   0.124   6.993
88499SOL    HW267331   8.344   0.109   6.889
88500SOL     OW67332   5.101   6.075   7.475
88500SOL    HW167333   5.175   6.047   7.421
88500SOL    HW267334   5.135   6.070   7.565
88501SOL     OW67335   6.784   9.818   2.916
88501SOL    HW167336   6.831   9.869   2.982
88501SOL    HW267337   6.833   9.831   2.835
88502SOL     OW67338   6.647  11.938   2.558
88502SOL    HW167339   6.683  11.850   2.560
88502SOL    HW267340   6.641  11.959   2.465
88503SOL     OW67341   4.368   3.946   7.588
88503SOL    HW167342   4.338   4.035   7.609
88503SOL    HW267343   4.303   3.888   7.627
88504SOL     OW67344  13.744   5.053  14.812
88504SOL    HW167345  13.692   5.034   0.011
88504SOL    HW267346  13.680   5.089  14.749
88505SOL     OW67347   1.712   7.824   8.907
88505SOL    HW167348   1.662   7.761   8.855
88505SOL    HW267349   1.646   7.885   8.940
88506SOL     OW67350  10.473   0.696  14.145
88506SOL    HW167351  10.533   0.727  14.213
88506SOL    HW267352  10.429   0.621  14.186
88507SOL     OW67353  13.367   0.635  14.593
88507SOL    HW167354  13.402   0.568  14.652
88507SOL    HW267355  13.427   0.709  14.603
88508SOL     OW67356   3.306   4.651  14.377
88508SOL    HW167357   3.276   4.602  14.453
88508SOL    HW267358   3.399   4.627  14.368
88509SOL     OW67359   4.082  10.464  13.656
88509SOL    HW167360   4.056  10.536  13.599
88509SOL    HW267361   4.151  10.501  13.712
88510SOL     OW67362   6.183  10.388   2.459
88510SOL    HW167363   6.233  10.310   2.433
88510SOL    HW267364   6.232  10.461   2.423
88511SOL     OW67365   5.491   5.819   7.525
88511SOL    HW167366   5.562   5.819   7.460
88511SOL    HW267367   5.503   5.899   7.575
88512SOL     OW67368   7.144   3.964  13.317
88512SOL    HW167369   7.159   3.908  13.393
88512SOL    HW267370   7.195   3.923  13.246
88513SOL     OW67371   2.877  10.615   2.118
88513SOL    HW167372   2.839  10.639   2.034
88513SOL    HW267373   2.816  10.650   2.183
88514SOL     OW67374  11.952   3.508   3.036
88514SOL    HW167375  11.978   3.490   2.946
88514SOL    HW267376  11.858   3.526   3.030
88515SOL     OW67377  13.914   0.906  12.549
88515SOL    HW167378  13.838   0.871  12.502
88515SOL    HW267379  13.941   0.835  12.607
88516SOL     OW67380  14.846   4.536   7.051
88516SOL    HW167381  14.832   4.533   6.957
88516SOL    HW267382   0.058   4.563   7.061
88517SOL     OW67383  13.410   8.962   5.150
88517SOL    HW167384  13.339   8.900   5.131
88517SOL    HW267385  13.384   9.002   5.233
88518SOL     OW67386  10.251   7.202  13.116
88518SOL    HW167387  10.277   7.183  13.206
88518SOL    HW267388  10.171   7.150  13.103
88519SOL     OW67389   2.427   5.965   7.199
88519SOL    HW167390   2.345   5.962   7.149
88519SOL    HW267391   2.486   6.016   7.144
88520SOL     OW67392  13.808   8.013  11.961
88520SOL    HW167393  13.902   8.021  11.977
88520SOL    HW267394  13.770   8.001  12.048
88521SOL     OW67395   7.147  13.043   4.251
88521SOL    HW167396   7.200  13.082   4.321
88521SOL    HW267397   7.187  12.957   4.236
88522SOL     OW67398   2.631   7.003   9.846
88522SOL    HW167399   2.665   7.067   9.908
88522SOL    HW267400   2.690   6.928   9.855
88523SOL     OW67401   9.760   3.358   2.472
88523SOL    HW167402   9.669   3.385   2.485
88523SOL    HW267403   9.781   3.307   2.551
88524SOL     OW67404   1.289   7.182   3.366
88524SOL    HW167405   1.256   7.206   3.279
88524SOL    HW267406   1.278   7.261   3.418
88525SOL     OW67407  10.688  12.206   9.886
88525SOL    HW167408  10.709  12.299   9.879
88525SOL    HW267409  10.764  12.161   9.849
88526SOL     OW67410  14.505  12.289   2.884
88526SOL    HW167411  14.480  12.341   2.961
88526SOL    HW267412  14.432  12.228   2.872
88527SOL     OW67413   9.217  14.228   2.770
88527SOL    HW167414   9.258  14.306   2.733
88527SOL    HW267415   9.147  14.261   2.826
88528SOL     OW67416  12.568   1.448   6.668
88528SOL    HW167417  12.528   1.362   6.654
88528SOL    HW267418  12.522   1.506   6.607
88529SOL     OW67419   1.076  13.635  13.767
88529SOL    HW167420   1.144  13.568  13.760
88529SOL    HW267421   1.012  13.612  13.700
88530SOL     OW67422   9.184   9.008  14.265
88530SOL    HW167423   9.230   8.929  14.293
88530SOL    HW267424   9.213   9.076  14.326
88531SOL     OW67425   1.823  13.195   2.162
88531SOL    HW167426   1.914  13.213   2.141
88531SOL    HW267427   1.823  13.181   2.257
88532SOL     OW67428   9.380   7.292   6.583
88532SOL    HW167429   9.425   7.208   6.573
88532SOL    HW267430   9.449   7.355   6.600
88533SOL     OW67431   5.731  14.654   7.541
88533SOL    HW167432   5.657  14.670   7.482
88533SOL    HW267433   5.745  14.560   7.537
88534SOL     OW67434  13.186   5.866   5.817
88534SOL    HW167435  13.266   5.844   5.864
88534SOL    HW267436  13.163   5.954   5.849
88535SOL     OW67437  14.677   2.536   7.395
88535SOL    HW167438  14.696   2.611   7.451
88535SOL    HW267439  14.762   2.508   7.363
88536SOL     OW67440   1.037   8.650   3.062
88536SOL    HW167441   1.108   8.668   3.123
88536SOL    HW267442   1.015   8.736   3.026
88537SOL     OW67443   5.700   8.873  14.367
88537SOL    HW167444   5.721   8.966  14.365
88537SOL    HW267445   5.732   8.843  14.452
88538SOL     OW67446   5.907  14.817   4.580
88538SOL    HW167447   5.937  14.761   4.508
88538SOL    HW267448   5.920  14.765   4.659
88539SOL     OW67449   3.769   7.164   4.628
88539SOL    HW167450   3.805   7.076   4.619
88539SOL    HW267451   3.726   7.181   4.544
88540SOL     OW67452  12.227  12.977  12.106
88540SOL    HW167453  12.162  13.029  12.058
88540SOL    HW267454  12.287  13.042  12.142
88541SOL     OW67455  13.714   0.302   5.733
88541SOL    HW167456  13.649   0.349   5.681
88541SOL    HW267457  13.758   0.371   5.784
88542SOL     OW67458  13.016   9.567   3.141
88542SOL    HW167459  13.019   9.489   3.197
88542SOL    HW267460  12.966   9.539   3.065
88543SOL     OW67461  11.609  11.412   5.830
88543SOL    HW167462  11.633  11.430   5.739
88543SOL    HW267463  11.673  11.346   5.859
88544SOL     OW67464  13.799   2.848   1.342
88544SOL    HW167465  13.788   2.937   1.375
88544SOL    HW267466  13.819   2.797   1.421
88545SOL     OW67467  12.329   4.334   4.397
88545SOL    HW167468  12.414   4.323   4.439
88545SOL    HW267469  12.277   4.260   4.428
88546SOL     OW67470   8.759  12.470   8.554
88546SOL    HW167471   8.747  12.377   8.533
88546SOL    HW267472   8.844  12.492   8.516
88547SOL     OW67473  13.836   7.833   4.151
88547SOL    HW167474  13.830   7.739   4.167
88547SOL    HW267475  13.851   7.841   4.057
88548SOL     OW67476  11.997   4.745  13.839
88548SOL    HW167477  11.984   4.724  13.932
88548SOL    HW267478  11.948   4.826  13.826
88549SOL     OW67479   6.168   3.953   3.587
88549SOL    HW167480   6.181   3.913   3.501
88549SOL    HW267481   6.095   3.904   3.626
88550SOL     OW67482   8.787   9.967   9.844
88550SOL    HW167483   8.783  10.027   9.769
88550SOL    HW267484   8.713   9.908   9.831
88551SOL     OW67485   9.449   5.404   9.754
88551SOL    HW167486   9.413   5.315   9.753
88551SOL    HW267487   9.544   5.392   9.753
88552SOL     OW67488  10.344   8.168   2.354
88552SOL    HW167489  10.437   8.144   2.355
88552SOL    HW267490  10.304   8.110   2.419
88553SOL     OW67491  10.620  11.021  10.441
88553SOL    HW167492  10.542  10.983  10.481
88553SOL    HW267493  10.693  10.973  10.480
88554SOL     OW67494   8.232   6.851   4.363
88554SOL    HW167495   8.198   6.936   4.391
88554SOL    HW267496   8.206   6.843   4.272
88555SOL     OW67497   2.666   8.822  12.849
88555SOL    HW167498   2.664   8.887  12.778
88555SOL    HW267499   2.603   8.755  12.822
88556SOL     OW67500   0.571   3.997  10.150
88556SOL    HW167501   0.514   3.931  10.189
88556SOL    HW267502   0.653   3.990  10.200
88557SOL     OW67503   0.385   2.576  11.832
88557SOL    HW167504   0.397   2.512  11.763
88557SOL    HW267505   0.307   2.625  11.807
88558SOL     OW67506   9.320   1.295  13.643
88558SOL    HW167507   9.250   1.309  13.707
88558SOL    HW267508   9.378   1.371  13.653
88559SOL     OW67509   1.245   3.759   3.748
88559SOL    HW167510   1.160   3.715   3.740
88559SOL    HW267511   1.288   3.716   3.821
88560SOL     OW67512   1.900   3.142   1.861
88560SOL    HW167513   1.825   3.100   1.902
88560SOL    HW267514   1.969   3.138   1.928
88561SOL     OW67515  13.184   2.819  12.780
88561SOL    HW167516  13.218   2.810  12.691
88561SOL    HW267517  13.194   2.911  12.801
88562SOL     OW67518   0.402   0.988   2.712
88562SOL    HW167519   0.310   0.969   2.695
88562SOL    HW267520   0.404   1.079   2.741
88563SOL     OW67521   2.241   4.166   6.268
88563SOL    HW167522   2.179   4.229   6.230
88563SOL    HW267523   2.202   4.142   6.352
88564SOL     OW67524   3.912   8.599   9.640
88564SOL    HW167525   3.990   8.563   9.682
88564SOL    HW267526   3.921   8.576   9.548
88565SOL     OW67527   9.774  10.108   6.202
88565SOL    HW167528   9.749  10.191   6.242
88565SOL    HW267529   9.833  10.133   6.131
88566SOL     OW67530   7.739   7.838  10.117
88566SOL    HW167531   7.691   7.888  10.183
88566SOL    HW267532   7.672   7.782  10.077
88567SOL     OW67533   5.271   4.080   3.545
88567SOL    HW167534   5.272   4.172   3.520
88567SOL    HW267535   5.353   4.044   3.510
88568SOL     OW67536   9.598  14.708  10.175
88568SOL    HW167537   9.575  14.693  10.083
88568SOL    HW267538   9.662  14.640  10.195
88569SOL     OW67539   1.938   3.440   8.745
88569SOL    HW167540   1.889   3.510   8.702
88569SOL    HW267541   1.920   3.452   8.838
88570SOL     OW67542   3.831   7.768  14.422
88570SOL    HW167543   3.916   7.737  14.453
88570SOL    HW267544   3.811   7.711  14.348
88571SOL     OW67545   2.263   3.699   0.819
88571SOL    HW167546   2.296   3.753   0.891
88571SOL    HW267547   2.303   3.614   0.834
88572SOL     OW67548   6.742   2.918  13.706
88572SOL    HW167549   6.817   2.922  13.648
88572SOL    HW267550   6.667   2.904  13.648
88573SOL     OW67551   5.261   5.939  12.951
88573SOL    HW167552   5.333   6.001  12.934
88573SOL    HW267553   5.265   5.923  13.045
88574SOL     OW67554   2.576  13.949  14.717
88574SOL    HW167555   2.645  13.920  14.657
88574SOL    HW267556   2.495  13.933  14.669
88575SOL     OW67557  13.177   1.190   2.196
88575SOL    HW167558  13.163   1.096   2.188
88575SOL    HW267559  13.243   1.199   2.265
88576SOL     OW67560   6.022   8.006   5.929
88576SOL    HW167561   6.022   8.087   5.879
88576SOL    HW267562   6.021   7.937   5.863
88577SOL     OW67563   3.969  11.875   7.287
88577SOL    HW167564   4.010  11.819   7.222
88577SOL    HW267565   3.963  11.820   7.366
88578SOL     OW67566   5.977  11.528   6.530
88578SOL    HW167567   6.068  11.553   6.512
88578SOL    HW267568   5.982  11.434   6.550
88579SOL     OW67569   7.150   9.141  10.023
88579SOL    HW167570   7.070   9.172   9.980
88579SOL    HW267571   7.208   9.217  10.025
88580SOL     OW67572   2.082  14.464   6.370
88580SOL    HW167573   2.015  14.424   6.315
88580SOL    HW267574   2.104  14.396   6.434
88581SOL     OW67575  11.216   4.339  10.884
88581SOL    HW167576  11.137   4.291  10.910
88581SOL    HW267577  11.263   4.353  10.966
88582SOL     OW67578   2.280  11.328  11.551
88582SOL    HW167579   2.203  11.372  11.515
88582SOL    HW267580   2.261  11.320  11.645
88583SOL     OW67581   4.886   3.635  10.141
88583SOL    HW167582   4.900   3.563  10.080
88583SOL    HW267583   4.971   3.647  10.183
88584SOL     OW67584   8.144   3.093  11.133
88584SOL    HW167585   8.135   3.179  11.091
88584SOL    HW267586   8.071   3.088  11.194
88585SOL     OW67587  13.128   5.741   4.764
88585SOL    HW167588  13.120   5.811   4.700
88585SOL    HW267589  13.091   5.664   4.720
88586SOL     OW67590   0.743   2.731   9.359
88586SOL    HW167591   0.719   2.802   9.418
88586SOL    HW267592   0.738   2.769   9.272
88587SOL     OW67593   5.328  11.586   2.984
88587SOL    HW167594   5.380  11.526   3.036
88587SOL    HW267595   5.388  11.658   2.962
88588SOL     OW67596   7.915   2.701   2.007
88588SOL    HW167597   7.845   2.641   1.982
88588SOL    HW267598   7.881   2.788   1.984
88589SOL     OW67599   2.656   1.211  13.647
88589SOL    HW167600   2.734   1.168  13.613
88589SOL    HW267601   2.605   1.140  13.687
88590SOL     OW67602  12.364   2.665   3.613
88590SOL    HW167603  12.302   2.592   3.607
88590SOL    HW267604  12.439   2.637   3.560
88591SOL     OW67605   4.634   2.525   1.978
88591SOL    HW167606   4.561   2.586   1.975
88591SOL    HW267607   4.629   2.476   1.897
88592SOL     OW67608   5.267   0.238   1.712
88592SOL    HW167609   5.217   0.281   1.643
88592SOL    HW267610   5.204   0.179   1.754
88593SOL     OW67611   4.427   9.237   0.447
88593SOL    HW167612   4.373   9.159   0.436
88593SOL    HW267613   4.397   9.276   0.529
88594SOL     OW67614   4.492   6.170   5.011
88594SOL    HW167615   4.496   6.125   5.095
88594SOL    HW267616   4.558   6.126   4.957
88595SOL     OW67617   3.272   6.326   1.946
88595SOL    HW167618   3.208   6.312   2.015
88595SOL    HW267619   3.354   6.345   1.992
88596SOL     OW67620   7.407  11.827   8.358
88596SOL    HW167621   7.327  11.813   8.408
88596SOL    HW267622   7.377  11.871   8.278
88597SOL     OW67623  12.333   0.640   8.690
88597SOL    HW167624  12.397   0.696   8.645
88597SOL    HW267625  12.335   0.558   8.640
88598SOL     OW67626   1.205  13.205  12.388
88598SOL    HW167627   1.214  13.205  12.484
88598SOL    HW267628   1.112  13.217  12.372
88599SOL     OW67629   7.513  10.592   4.460
88599SOL    HW167630   7.588  10.644   4.490
88599SOL    HW267631   7.538  10.502   4.476
88600SOL     OW67632   9.222  11.118  11.980
88600SOL    HW167633   9.136  11.135  12.020
88600SOL    HW267634   9.231  11.023  11.983
88601SOL     OW67635   7.909   0.831  11.868
88601SOL    HW167636   7.826   0.829  11.917
88601SOL    HW267637   7.970   0.783  11.923
88602SOL     OW67638   8.039   4.624  12.415
88602SOL    HW167639   8.050   4.698  12.355
88602SOL    HW267640   8.128   4.594  12.432
88603SOL     OW67641   5.656   5.798   5.248
88603SOL    HW167642   5.693   5.854   5.317
88603SOL    HW267643   5.566   5.783   5.276
88604SOL     OW67644  11.035   0.029   1.850
88604SOL    HW167645  11.108   0.071   1.804
88604SOL    HW267646  11.015  14.830   1.798
88605SOL     OW67647   6.587   6.564  12.084
88605SOL    HW167648   6.673   6.584  12.122
88605SOL    HW267649   6.606   6.505  12.011
88606SOL     OW67650   2.419   3.957   3.950
88606SOL    HW167651   2.431   3.956   4.045
88606SOL    HW267652   2.398   4.048   3.930
88607SOL     OW67653   4.535   9.879   8.007
88607SOL    HW167654   4.544   9.966   8.047
88607SOL    HW267655   4.557   9.818   8.078
88608SOL     OW67656   5.270   0.719  13.613
88608SOL    HW167657   5.278   0.758  13.700
88608SOL    HW267658   5.217   0.641  13.627
88609SOL     OW67659   6.001  14.746   9.803
88609SOL    HW167660   5.995  14.731   9.898
88609SOL    HW267661   5.914  14.779   9.779
88610SOL     OW67662   0.257  14.289  11.012
88610SOL    HW167663   0.195  14.343  11.061
88610SOL    HW267664   0.321  14.351  10.978
88611SOL     OW67665   8.614  14.766   6.815
88611SOL    HW167666   8.558  14.690   6.806
88611SOL    HW267667   8.555  14.836   6.844
88612SOL     OW67668  10.401   4.332   1.266
88612SOL    HW167669  10.415   4.279   1.188
88612SOL    HW267670  10.482   4.381   1.276
88613SOL     OW67671  12.454  14.347   4.800
88613SOL    HW167672  12.443  14.296   4.720
88613SOL    HW267673  12.430  14.287   4.870
88614SOL     OW67674   3.969   2.867   5.305
88614SOL    HW167675   4.011   2.874   5.390
88614SOL    HW267676   4.040   2.851   5.243
88615SOL     OW67677  14.791   8.739   5.086
88615SOL    HW167678  14.837   8.685   5.022
88615SOL    HW267679  14.857   8.758   5.153
88616SOL     OW67680  11.335   8.366   8.739
88616SOL    HW167681  11.332   8.393   8.831
88616SOL    HW267682  11.315   8.446   8.690
88617SOL     OW67683   5.583   0.775  14.595
88617SOL    HW167684   5.611   0.691  14.558
88617SOL    HW267685   5.598   0.766  14.689
88618SOL     OW67686   2.045   7.122   7.352
88618SOL    HW167687   2.114   7.156   7.410
88618SOL    HW267688   2.002   7.054   7.404
88619SOL     OW67689  13.342  14.319   3.417
88619SOL    HW167690  13.403  14.371   3.366
88619SOL    HW267691  13.315  14.249   3.358
88620SOL     OW67692  13.139   9.845   0.328
88620SOL    HW167693  13.070   9.872   0.268
88620SOL    HW267694  13.213   9.823   0.270
88621SOL     OW67695   4.443  13.354   1.783
88621SOL    HW167696   4.518  13.344   1.842
88621SOL    HW267697   4.478  13.402   1.708
88622SOL     OW67698   1.741   9.154   2.625
88622SOL    HW167699   1.691   9.109   2.692
88622SOL    HW267700   1.678   9.210   2.580
88623SOL     OW67701   6.471   0.879   9.147
88623SOL    HW167702   6.387   0.904   9.107
88623SOL    HW267703   6.497   0.957   9.197
88624SOL     OW67704   1.378   9.174  12.689
88624SOL    HW167705   1.436   9.244  12.658
88624SOL    HW267706   1.429   9.094  12.679
88625SOL     OW67707  11.918   0.256   8.073
88625SOL    HW167708  11.886   0.346   8.079
88625SOL    HW267709  11.942   0.246   7.981
88626SOL     OW67710  12.497  14.019   9.861
88626SOL    HW167711  12.446  14.099   9.878
88626SOL    HW267712  12.502  14.014   9.766
88627SOL     OW67713   4.937   0.347   1.102
88627SOL    HW167714   4.877   0.350   1.027
88627SOL    HW267715   5.024   0.343   1.063
88628SOL     OW67716   2.785   7.695   0.084
88628SOL    HW167717   2.874   7.724   0.067
88628SOL    HW267718   2.794   7.600   0.098
88629SOL     OW67719   8.463  14.580   3.905
88629SOL    HW167720   8.399  14.518   3.940
88629SOL    HW267721   8.546  14.532   3.907
88630SOL     OW67722   9.428   8.860  11.981
88630SOL    HW167723   9.358   8.808  11.942
88630SOL    HW267724   9.444   8.930  11.917
88631SOL     OW67725  11.080   4.176  10.128
88631SOL    HW167726  11.094   4.150  10.219
88631SOL    HW267727  11.112   4.266  10.124
88632SOL     OW67728   6.986  12.679   2.837
88632SOL    HW167729   6.941  12.700   2.756
88632SOL    HW267730   7.064  12.734   2.837
88633SOL     OW67731  11.520  11.353   6.864
88633SOL    HW167732  11.454  11.414   6.897
88633SOL    HW267733  11.484  11.267   6.881
88634SOL     OW67734  11.157   8.296   1.140
88634SOL    HW167735  11.229   8.302   1.202
88634SOL    HW267736  11.078   8.303   1.193
88635SOL     OW67737   8.280   7.287   4.196
88635SOL    HW167738   8.372   7.262   4.190
88635SOL    HW267739   8.263   7.338   4.117
88636SOL     OW67740   1.665   7.140   2.703
88636SOL    HW167741   1.700   7.107   2.786
88636SOL    HW267742   1.717   7.218   2.685
88637SOL     OW67743   5.910  10.920   7.680
88637SOL    HW167744   5.841  10.977   7.713
88637SOL    HW267745   5.876  10.831   7.693
88638SOL     OW67746   9.583  12.237  14.161
88638SOL    HW167747   9.615  12.158  14.206
88638SOL    HW267748   9.642  12.306  14.190
88639SOL     OW67749  11.740   2.068   6.328
88639SOL    HW167750  11.667   2.078   6.388
88639SOL    HW267751  11.807   2.129   6.360
88640SOL     OW67752  14.249   5.984   0.160
88640SOL    HW167753  14.302   5.942   0.227
88640SOL    HW267754  14.298   6.063   0.137
88641SOL     OW67755   5.453   6.747   0.711
88641SOL    HW167756   5.525   6.692   0.681
88641SOL    HW267757   5.479   6.836   0.687
88642SOL     OW67758  14.067   4.107   5.240
88642SOL    HW167759  14.079   4.143   5.328
88642SOL    HW267760  13.998   4.042   5.250
88643SOL     OW67761  14.341   0.416  12.214
88643SOL    HW167762  14.251   0.411  12.179
88643SOL    HW267763  14.330   0.406  12.308
88644SOL     OW67764   0.713   7.580   5.889
88644SOL    HW167765   0.763   7.641   5.942
88644SOL    HW267766   0.704   7.624   5.804
88645SOL     OW67767   6.392   0.215   9.082
88645SOL    HW167768   6.341   0.294   9.064
88645SOL    HW267769   6.393   0.209   9.177
88646SOL     OW67770   8.451   1.850   8.854
88646SOL    HW167771   8.529   1.835   8.908
88646SOL    HW267772   8.428   1.941   8.870
88647SOL     OW67773  10.154  14.277   7.701
88647SOL    HW167774  10.130  14.201   7.753
88647SOL    HW267775  10.250  14.279   7.704
88648SOL     OW67776   6.922   5.878  13.525
88648SOL    HW167777   6.927   5.971  13.503
88648SOL    HW267778   6.879   5.876  13.610
88649SOL     OW67779   9.916   0.569   0.156
88649SOL    HW167780   9.865   0.648   0.140
88649SOL    HW267781   9.849   0.501   0.169
88650SOL     OW67782   7.668  11.970   9.388
88650SOL    HW167783   7.754  11.952   9.349
88650SOL    HW267784   7.684  11.971   9.482
88651SOL     OW67785   7.168   3.672  13.793
88651SOL    HW167786   7.203   3.589  13.760
88651SOL    HW267787   7.170   3.730  13.717
88652SOL     OW67788   7.454   3.587  13.863
88652SOL    HW167789   7.496   3.584  13.948
88652SOL    HW267790   7.430   3.496  13.845
88653SOL     OW67791  13.564   4.300   6.448
88653SOL    HW167792  13.592   4.377   6.498
88653SOL    HW267793  13.514   4.248   6.511
88654SOL     OW67794   3.859  14.564   5.996
88654SOL    HW167795   3.891  14.531   5.912
88654SOL    HW267796   3.792  14.501   6.023
88655SOL     OW67797  13.601   8.991  14.853
88655SOL    HW167798  13.696   9.001  14.862
88655SOL    HW267799  13.569   8.977   0.063
88656SOL     OW67800   6.109   3.603  10.473
88656SOL    HW167801   6.189   3.592  10.525
88656SOL    HW267802   6.119   3.688  10.431
88657SOL     OW67803   4.350  14.315  10.086
88657SOL    HW167804   4.256  14.332  10.081
88657SOL    HW267805   4.386  14.352  10.005
88658SOL     OW67806  14.719  14.002   1.524
88658SOL    HW167807  14.751  13.989   1.434
88658SOL    HW267808  14.718  13.914   1.562
88659SOL     OW67809   0.021  14.030   9.660
88659SOL    HW167810  14.877  14.040   9.752
88659SOL    HW267811   0.114  14.052   9.657
88660SOL     OW67812   9.270  11.531   4.427
88660SOL    HW167813   9.360  11.509   4.403
88660SOL    HW267814   9.221  11.521   4.345
88661SOL     OW67815  13.054  10.084   5.201
88661SOL    HW167816  13.083   9.996   5.177
88661SOL    HW267817  12.979  10.070   5.258
88662SOL     OW67818   3.326   6.626   4.196
88662SOL    HW167819   3.334   6.632   4.101
88662SOL    HW267820   3.293   6.712   4.223
88663SOL     OW67821  10.190  13.235   8.663
88663SOL    HW167822  10.197  13.176   8.588
88663SOL    HW267823  10.230  13.187   8.735
88664SOL     OW67824   5.665   1.984   9.333
88664SOL    HW167825   5.740   2.043   9.320
88664SOL    HW267826   5.648   1.989   9.427
88665SOL     OW67827   4.252   6.399  13.670
88665SOL    HW167828   4.172   6.438  13.636
88665SOL    HW267829   4.315   6.471  13.670
88666SOL     OW67830   5.755   0.879  13.386
88666SOL    HW167831   5.778   0.931  13.309
88666SOL    HW267832   5.703   0.807  13.351
88667SOL     OW67833  10.860   0.070  12.707
88667SOL    HW167834  10.852   0.113  12.792
88667SOL    HW267835  10.809  14.869  12.715
88668SOL     OW67836  13.661  14.046  12.278
88668SOL    HW167837  13.664  13.953  12.254
88668SOL    HW267838  13.707  14.051  12.362
88669SOL     OW67839   9.429   1.010   6.318
88669SOL    HW167840   9.359   0.957   6.281
88669SOL    HW267841   9.455   1.070   6.248
88670SOL     OW67842   1.296   1.959  12.504
88670SOL    HW167843   1.275   1.896  12.573
88670SOL    HW267844   1.234   1.938  12.433
88671SOL     OW67845   4.612   1.236   0.065
88671SOL    HW167846   4.669   1.295   0.115
88671SOL    HW267847   4.546   1.294   0.026
88672SOL     OW67848   1.946   0.774   9.842
88672SOL    HW167849   2.002   0.847   9.813
88672SOL    HW267850   1.977   0.753   9.930
88673SOL     OW67851  11.677   8.506   2.672
88673SOL    HW167852  11.681   8.459   2.755
88673SOL    HW267853  11.735   8.456   2.613
88674SOL     OW67854  14.517   6.129   6.200
88674SOL    HW167855  14.587   6.183   6.236
88674SOL    HW267856  14.562   6.060   6.151
88675SOL     OW67857  12.448   7.854   3.427
88675SOL    HW167858  12.528   7.864   3.479
88675SOL    HW267859  12.381   7.899   3.479
88676SOL     OW67860  11.611   9.990   0.150
88676SOL    HW167861  11.644   9.948   0.071
88676SOL    HW267862  11.539   9.934   0.179
88677SOL     OW67863   0.878  13.535   5.427
88677SOL    HW167864   0.825  13.578   5.494
88677SOL    HW267865   0.965  13.525   5.467
88678SOL     OW67866   5.903   5.611   9.364
88678SOL    HW167867   5.825   5.615   9.309
88678SOL    HW267868   5.877   5.653   9.446
88679SOL     OW67869   1.428   0.021   3.616
88679SOL    HW167870   1.356  14.878   3.556
88679SOL    HW267871   1.423   0.116   3.624
88680SOL     OW67872   0.793   3.022   1.187
88680SOL    HW167873   0.837   3.042   1.104
88680SOL    HW267874   0.858   3.042   1.254
88681SOL     OW67875  13.264   2.595   3.478
88681SOL    HW167876  13.232   2.633   3.396
88681SOL    HW267877  13.316   2.519   3.451
88682SOL     OW67878  11.626   4.217   3.588
88682SOL    HW167879  11.699   4.160   3.562
88682SOL    HW267880  11.656   4.258   3.669
88683SOL     OW67881  13.117   8.680  14.789
88683SOL    HW167882  13.114   8.636  14.874
88683SOL    HW267883  13.164   8.762  14.806
88684SOL     OW67884   7.324  10.639   9.153
88684SOL    HW167885   7.395  10.640   9.216
88684SOL    HW267886   7.257  10.583   9.192
88685SOL     OW67887  14.350   3.752   1.438
88685SOL    HW167888  14.274   3.781   1.489
88685SOL    HW267889  14.421   3.745   1.502
88686SOL     OW67890  13.652   8.436   5.234
88686SOL    HW167891  13.721   8.371   5.248
88686SOL    HW267892  13.699   8.517   5.214
88687SOL     OW67893   2.053   5.274   5.632
88687SOL    HW167894   1.983   5.213   5.653
88687SOL    HW267895   2.120   5.220   5.591
88688SOL     OW67896   5.354   5.697   3.478
88688SOL    HW167897   5.302   5.720   3.402
88688SOL    HW267898   5.295   5.644   3.533
88689SOL     OW67899   5.084   5.230   4.157
88689SOL    HW167900   5.023   5.206   4.227
88689SOL    HW267901   5.037   5.209   4.076
88690SOL     OW67902   5.489   2.606   4.489
88690SOL    HW167903   5.540   2.545   4.541
88690SOL    HW267904   5.541   2.686   4.485
88691SOL     OW67905   1.219   1.741   7.307
88691SOL    HW167906   1.167   1.820   7.298
88691SOL    HW267907   1.306   1.772   7.334
88692SOL     OW67908   0.853  12.195   0.012
88692SOL    HW167909   0.799  12.134  14.841
88692SOL    HW267910   0.800  12.275   0.017
88693SOL     OW67911   9.544  14.135   2.672
88693SOL    HW167912   9.534  14.193   2.596
88693SOL    HW267913   9.475  14.070   2.662
88694SOL     OW67914  14.125   0.528  10.331
88694SOL    HW167915  14.215   0.537  10.299
88694SOL    HW267916  14.126   0.446  10.379
88695SOL     OW67917   0.389  12.534  10.125
88695SOL    HW167918   0.380  12.628  10.108
88695SOL    HW267919   0.442  12.528  10.204
88696SOL     OW67920   4.143   3.682   5.152
88696SOL    HW167921   4.216   3.644   5.200
88696SOL    HW267922   4.072   3.619   5.162
88697SOL     OW67923   8.482   9.871   6.462
88697SOL    HW167924   8.509   9.947   6.513
88697SOL    HW267925   8.404   9.900   6.415
88698SOL     OW67926   7.814   0.823   8.520
88698SOL    HW167927   7.776   0.741   8.489
88698SOL    HW267928   7.899   0.798   8.556
88699SOL     OW67929  11.973   8.568   1.575
88699SOL    HW167930  11.934   8.633   1.517
88699SOL    HW267931  11.921   8.573   1.655
88700SOL     OW67932  13.106   8.460   3.379
88700SOL    HW167933  13.196   8.456   3.411
88700SOL    HW267934  13.076   8.369   3.380
88701SOL     OW67935   0.657  14.543  11.236
88701SOL    HW167936   0.565  14.548  11.262
88701SOL    HW267937   0.669  14.453  11.206
88702SOL     OW67938  13.140   5.343   6.050
88702SOL    HW167939  13.206   5.413   6.052
88702SOL    HW267940  13.191   5.262   6.057
88703SOL     OW67941  10.739  11.738  14.853
88703SOL    HW167942  10.670  11.676  14.877
88703SOL    HW267943  10.753  11.722  14.760
88704SOL     OW67944  12.161   9.070   9.160
88704SOL    HW167945  12.080   9.058   9.210
88704SOL    HW267946  12.228   9.028   9.214
88705SOL     OW67947  14.278   9.660   1.762
88705SOL    HW167948  14.268   9.626   1.851
88705SOL    HW267949  14.266   9.583   1.706
88706SOL     OW67950   0.114  14.021  14.487
88706SOL    HW167951   0.192  14.015  14.431
88706SOL    HW267952   0.064  14.093  14.449
88707SOL     OW67953   7.184  11.162   0.609
88707SOL    HW167954   7.236  11.188   0.685
88707SOL    HW267955   7.149  11.076   0.633
88708SOL     OW67956  11.050   7.098  11.339
88708SOL    HW167957  11.000   7.017  11.345
88708SOL    HW267958  11.077   7.102  11.247
88709SOL     OW67959   7.860   6.286   2.784
88709SOL    HW167960   7.893   6.266   2.696
88709SOL    HW267961   7.876   6.380   2.794
88710SOL     OW67962   8.288  12.179  13.633
88710SOL    HW167963   8.278  12.230  13.713
88710SOL    HW267964   8.372  12.135  13.642
88711SOL     OW67965   1.122  12.813   1.459
88711SOL    HW167966   1.212  12.847   1.461
88711SOL    HW267967   1.070  12.882   1.500
88712SOL     OW67968   8.698  10.230   6.796
88712SOL    HW167969   8.714  10.315   6.836
88712SOL    HW267970   8.725  10.167   6.863
88713SOL     OW67971   3.564  14.788   6.043
88713SOL    HW167972   3.576  14.772   5.949
88713SOL    HW267973   3.638  14.843   6.068
88714SOL     OW67974   3.015   6.982   2.667
88714SOL    HW167975   2.995   7.032   2.589
88714SOL    HW267976   2.938   6.991   2.723
88715SOL     OW67977   0.038   7.091   9.169
88715SOL    HW167978   0.025   7.074   9.076
88715SOL    HW267979   0.104   7.159   9.172
88716SOL     OW67980   5.461  13.342   1.544
88716SOL    HW167981   5.394  13.315   1.481
88716SOL    HW267982   5.489  13.261   1.585
88717SOL     OW67983   5.583  13.775  14.600
88717SOL    HW167984   5.677  13.769  14.584
88717SOL    HW267985   5.575  13.797  14.692
88718SOL     OW67986   7.609   8.594  13.095
88718SOL    HW167987   7.684   8.558  13.142
88718SOL    HW267988   7.634   8.590  13.003
88719SOL     OW67989   2.569  13.368  11.130
88719SOL    HW167990   2.580  13.417  11.049
88719SOL    HW267991   2.656  13.366  11.169
88720SOL     OW67992   9.897   8.153   0.644
88720SOL    HW167993   9.821   8.139   0.588
88720SOL    HW267994   9.916   8.247   0.636
88721SOL     OW67995   0.612   0.143  13.785
88721SOL    HW167996   0.656   0.062  13.813
88721SOL    HW267997   0.575   0.178  13.866
88722SOL     OW67998   9.240  13.679  13.853
88722SOL    HW167999   9.316  13.666  13.910
88722SOL    HW268000   9.171  13.708  13.912
88723SOL     OW68001   2.400   1.738   8.748
88723SOL    HW168002   2.464   1.808   8.761
88723SOL    HW268003   2.443   1.659   8.781
88724SOL     OW68004  12.565   2.233  13.485
88724SOL    HW168005  12.558   2.150  13.533
88724SOL    HW268006  12.659   2.243  13.470
88725SOL     OW68007   5.975   9.978  14.531
88725SOL    HW168008   6.069   9.960  14.525
88725SOL    HW268009   5.970  10.067  14.566
88726SOL     OW68010   5.654   5.089  14.622
88726SOL    HW168011   5.732   5.140  14.600
88726SOL    HW268012   5.594   5.153  14.660
88727SOL     OW68013   4.719   1.342  12.646
88727SOL    HW168014   4.686   1.252  12.636
88727SOL    HW268015   4.709   1.360  12.739
88728SOL     OW68016   2.890  13.608   1.922
88728SOL    HW168017   2.913  13.544   1.855
88728SOL    HW268018   2.797  13.623   1.910
88729SOL     OW68019  11.279  14.606   9.349
88729SOL    HW168020  11.197  14.557   9.361
88729SOL    HW268021  11.320  14.565   9.273
88730SOL     OW68022   1.549   5.237   0.152
88730SOL    HW168023   1.605   5.162   0.129
88730SOL    HW268024   1.466   5.218   0.107
88731SOL     OW68025  13.645  10.101   3.708
88731SOL    HW168026  13.557  10.105   3.670
88731SOL    HW268027  13.638  10.036   3.777
88732SOL     OW68028   6.543   0.474   6.176
88732SOL    HW168029   6.458   0.431   6.162
88732SOL    HW268030   6.592   0.457   6.096
88733SOL     OW68031   5.111  12.307  11.796
88733SOL    HW168032   5.102  12.302  11.891
88733SOL    HW268033   5.162  12.229  11.773
88734SOL     OW68034   2.179   2.059   1.930
88734SOL    HW168035   2.221   2.079   1.847
88734SOL    HW268036   2.235   2.101   1.996
88735SOL     OW68037   9.548   0.987  11.204
88735SOL    HW168038   9.561   0.936  11.284
88735SOL    HW268039   9.483   1.053  11.228
88736SOL     OW68040   0.700  11.486   5.282
88736SOL    HW168041   0.653  11.425   5.225
88736SOL    HW268042   0.723  11.434   5.359
88737SOL     OW68043   7.062   6.381   3.809
88737SOL    HW168044   7.074   6.424   3.894
88737SOL    HW268045   7.028   6.294   3.832
88738SOL     OW68046   1.135   8.869   4.867
88738SOL    HW168047   1.106   8.790   4.821
88738SOL    HW268048   1.230   8.872   4.853
88739SOL     OW68049   6.524   1.532   7.872
88739SOL    HW168050   6.617   1.522   7.850
88739SOL    HW268051   6.479   1.477   7.807
88740SOL     OW68052  10.561  13.233   3.162
88740SOL    HW168053  10.573  13.142   3.189
88740SOL    HW268054  10.467  13.250   3.176
88741SOL     OW68055   1.645   2.887   9.172
88741SOL    HW168056   1.704   2.959   9.152
88741SOL    HW268057   1.603   2.866   9.089
88742SOL     OW68058  13.523   3.957   6.046
88742SOL    HW168059  13.589   3.936   6.113
88742SOL    HW268060  13.468   3.878   6.042
88743SOL     OW68061  12.832   0.933  12.133
88743SOL    HW168062  12.745   0.905  12.158
88743SOL    HW268063  12.825   1.027  12.119
88744SOL     OW68064   4.723   6.270   9.792
88744SOL    HW168065   4.639   6.309   9.818
88744SOL    HW268066   4.699   6.193   9.740
88745SOL     OW68067  11.294  14.640  10.002
88745SOL    HW168068  11.327  14.642   9.912
88745SOL    HW268069  11.368  14.669  10.055
88746SOL     OW68070   0.537   7.892  10.122
88746SOL    HW168071   0.462   7.901  10.180
88746SOL    HW268072   0.601   7.841  10.173
88747SOL     OW68073  14.619   7.761   0.599
88747SOL    HW168074  14.644   7.815   0.674
88747SOL    HW268075  14.672   7.795   0.527
88748SOL     OW68076   5.849  10.486  10.405
88748SOL    HW168077   5.808  10.572  10.413
88748SOL    HW268078   5.923  10.488  10.465
88749SOL     OW68079   5.351  14.051   7.919
88749SOL    HW168080   5.375  14.004   7.999
88749SOL    HW268081   5.435  14.071   7.877
88750SOL     OW68082   7.102   9.995   8.818
88750SOL    HW168083   7.152   9.926   8.775
88750SOL    HW268084   7.153  10.075   8.802
88751SOL     OW68085   0.122   5.149   5.206
88751SOL    HW168086   0.202   5.101   5.182
88751SOL    HW268087   0.095   5.192   5.125
88752SOL     OW68088   6.732   9.747   7.527
88752SOL    HW168089   6.641   9.762   7.552
88752SOL    HW268090   6.783   9.793   7.593
88753SOL     OW68091   4.024   2.347   5.481
88753SOL    HW168092   4.006   2.432   5.440
88753SOL    HW268093   4.079   2.367   5.556
88754SOL     OW68094   3.401   0.662   0.392
88754SOL    HW168095   3.342   0.624   0.327
88754SOL    HW268096   3.353   0.737   0.427
88755SOL     OW68097   5.991   8.982   3.912
88755SOL    HW168098   5.978   9.036   3.834
88755SOL    HW268099   5.953   8.897   3.889
88756SOL     OW68100   8.282   1.803   9.391
88756SOL    HW168101   8.245   1.842   9.470
88756SOL    HW268102   8.251   1.858   9.319
88757SOL     OW68103   9.552   2.755   3.349
88757SOL    HW168104   9.624   2.727   3.292
88757SOL    HW268105   9.477   2.763   3.290
88758SOL     OW68106   6.901   7.781   9.208
88758SOL    HW168107   6.859   7.695   9.217
88758SOL    HW268108   6.945   7.794   9.292
88759SOL     OW68109   2.968   9.862   2.364
88759SOL    HW168110   3.040   9.886   2.422
88759SOL    HW268111   2.939   9.945   2.326
88760SOL     OW68112   2.840  12.883   6.310
88760SOL    HW168113   2.769  12.840   6.357
88760SOL    HW268114   2.864  12.958   6.366
88761SOL     OW68115  13.651  13.420   5.511
88761SOL    HW168116  13.705  13.341   5.503
88761SOL    HW268117  13.668  13.470   5.431
88762SOL     OW68118   5.857   6.157  12.230
88762SOL    HW168119   5.897   6.228  12.280
88762SOL    HW268120   5.925   6.089  12.227
88763SOL     OW68121  10.327  14.867  11.616
88763SOL    HW168122  10.291   0.061  11.565
88763SOL    HW268123  10.268  14.858  11.691
88764SOL     OW68124   5.310  14.129   3.919
88764SOL    HW168125   5.218  14.153   3.924
88764SOL    HW268126   5.350  14.173   3.994
88765SOL     OW68127   6.512  13.269   5.873
88765SOL    HW168128   6.482  13.289   5.961
88765SOL    HW268129   6.517  13.174   5.870
88766SOL     OW68130   7.998   6.795   1.573
88766SOL    HW168131   7.918   6.788   1.625
88766SOL    HW268132   7.990   6.725   1.508
88767SOL     OW68133   2.830   5.073   1.070
88767SOL    HW168134   2.838   5.028   1.154
88767SOL    HW268135   2.741   5.106   1.068
88768SOL     OW68136  14.008  14.542  14.659
88768SOL    HW168137  14.024  14.611  14.723
88768SOL    HW268138  13.988  14.464  14.711
88769SOL     OW68139  12.825   3.380   3.961
88769SOL    HW168140  12.733   3.354   3.954
88769SOL    HW268141  12.823   3.472   3.988
88770SOL     OW68142  10.611   6.832  14.609
88770SOL    HW168143  10.593   6.917  14.567
88770SOL    HW268144  10.604   6.768  14.538
88771SOL     OW68145  14.742  13.459  12.014
88771SOL    HW168146  14.685  13.392  12.052
88771SOL    HW268147  14.708  13.471  11.925
88772SOL     OW68148   5.229  12.633   4.184
88772SOL    HW168149   5.269  12.677   4.259
88772SOL    HW268150   5.142  12.609   4.214
88773SOL     OW68151   5.618   7.267  13.439
88773SOL    HW168152   5.637   7.236  13.350
88773SOL    HW268153   5.524   7.253  13.450
88774SOL     OW68154   3.444   3.784  11.933
88774SOL    HW168155   3.390   3.813  12.006
88774SOL    HW268156   3.464   3.864  11.885
88775SOL     OW68157   4.796   1.975   0.172
88775SOL    HW168158   4.849   1.896   0.165
88775SOL    HW268159   4.859   2.045   0.189
88776SOL     OW68160   8.909   8.154  14.211
88776SOL    HW168161   8.892   8.060  14.217
88776SOL    HW268162   8.905   8.185  14.301
88777SOL     OW68163   5.706   0.128   3.939
88777SOL    HW168164   5.625   0.180   3.936
88777SOL    HW268165   5.721   0.111   4.032
88778SOL     OW68166   4.784   2.006   5.728
88778SOL    HW168167   4.712   2.018   5.666
88778SOL    HW268168   4.798   2.093   5.765
88779SOL     OW68169   1.807  10.726   6.220
88779SOL    HW168170   1.793  10.656   6.156
88779SOL    HW268171   1.891  10.704   6.261
88780SOL     OW68172  11.179   5.848  10.904
88780SOL    HW168173  11.112   5.887  10.959
88780SOL    HW268174  11.205   5.918  10.844
88781SOL     OW68175   0.076   7.581   3.551
88781SOL    HW168176   0.049   7.657   3.603
88781SOL    HW268177   0.171   7.578   3.559
88782SOL     OW68178   2.157  11.009  10.001
88782SOL    HW168179   2.172  10.942   9.934
88782SOL    HW268180   2.061  11.016  10.007
88783SOL     OW68181   8.274   1.908   2.247
88783SOL    HW168182   8.283   2.001   2.222
88783SOL    HW268183   8.307   1.860   2.171
88784SOL     OW68184   1.067   3.871   9.632
88784SOL    HW168185   1.042   3.926   9.558
88784SOL    HW268186   1.163   3.869   9.630
88785SOL     OW68187   9.596  12.670   9.084
88785SOL    HW168188   9.513  12.680   9.131
88785SOL    HW268189   9.578  12.701   8.996
88786SOL     OW68190   7.554  13.310  14.747
88786SOL    HW168191   7.506  13.301  14.664
88786SOL    HW268192   7.646  13.316  14.721
88787SOL     OW68193   5.491   0.555  13.934
88787SOL    HW168194   5.578   0.514  13.938
88787SOL    HW268195   5.508   0.648  13.919
88788SOL     OW68196   8.463   9.850   9.561
88788SOL    HW168197   8.408   9.781   9.523
88788SOL    HW268198   8.526   9.870   9.492
88789SOL     OW68199   6.513   2.668   7.513
88789SOL    HW168200   6.549   2.579   7.515
88789SOL    HW268201   6.456   2.670   7.437
88790SOL     OW68202   1.544   9.108  12.019
88790SOL    HW168203   1.548   9.015  11.997
88790SOL    HW268204   1.631   9.128  12.055
88791SOL     OW68205   6.451  13.667   3.693
88791SOL    HW168206   6.459  13.705   3.605
88791SOL    HW268207   6.542  13.657   3.722
88792SOL     OW68208   5.427   1.211   9.353
88792SOL    HW168209   5.377   1.174   9.426
88792SOL    HW268210   5.416   1.306   9.361
88793SOL     OW68211   1.224   1.402   8.638
88793SOL    HW168212   1.280   1.368   8.568
88793SOL    HW268213   1.145   1.348   8.634
88794SOL     OW68214   0.078   4.747  12.479
88794SOL    HW168215   0.018   4.726  12.551
88794SOL    HW268216   0.035   4.818  12.432
88795SOL     OW68217  11.342   1.913   5.907
88795SOL    HW168218  11.418   1.866   5.943
88795SOL    HW268219  11.284   1.925   5.982
88796SOL     OW68220   0.857  13.054   9.931
88796SOL    HW168221   0.857  13.094  10.018
88796SOL    HW268222   0.920  13.107   9.881
88797SOL     OW68223   8.812   0.506   3.899
88797SOL    HW168224   8.731   0.547   3.929
88797SOL    HW268225   8.858   0.482   3.980
88798SOL     OW68226   1.659   0.806   9.913
88798SOL    HW168227   1.750   0.777   9.909
88798SOL    HW268228   1.658   0.874   9.980
88799SOL     OW68229  12.714   7.508   1.846
88799SOL    HW168230  12.699   7.537   1.936
88799SOL    HW268231  12.629   7.517   1.804
88800SOL     OW68232   4.387   8.462   3.020
88800SOL    HW168233   4.476   8.430   3.007
88800SOL    HW268234   4.336   8.384   3.042
88801SOL     OW68235  11.147   6.313  13.291
88801SOL    HW168236  11.084   6.356  13.234
88801SOL    HW268237  11.230   6.355  13.271
88802SOL     OW68238   2.703   2.901  14.296
88802SOL    HW168239   2.625   2.847  14.285
88802SOL    HW268240   2.674   2.990  14.280
88803SOL     OW68241   4.862   7.396   7.682
88803SOL    HW168242   4.879   7.489   7.699
88803SOL    HW268243   4.767   7.389   7.679
88804SOL     OW68244   1.749   0.941   1.724
88804SOL    HW168245   1.800   0.877   1.774
88804SOL    HW268246   1.761   1.023   1.770
88805SOL     OW68247   3.918   2.956  13.293
88805SOL    HW168248   3.951   3.029  13.240
88805SOL    HW268249   3.879   2.999  13.369
88806SOL     OW68250   7.681   9.386   6.011
88806SOL    HW168251   7.662   9.344   5.927
88806SOL    HW268252   7.606   9.444   6.026
88807SOL     OW68253   6.580   0.204   2.001
88807SOL    HW168254   6.568   0.236   1.912
88807SOL    HW268255   6.626   0.121   1.991
88808SOL     OW68256  11.461   5.315  11.358
88808SOL    HW168257  11.494   5.300  11.447
88808SOL    HW268258  11.411   5.236  11.337
88809SOL     OW68259   6.375  11.806   0.279
88809SOL    HW168260   6.300  11.763   0.239
88809SOL    HW268261   6.343  11.894   0.300
88810SOL     OW68262   3.044   0.128   1.223
88810SOL    HW168263   3.134   0.160   1.216
88810SOL    HW268264   3.047   0.066   1.296
88811SOL     OW68265   7.501  13.718   6.466
88811SOL    HW168266   7.440  13.751   6.400
88811SOL    HW268267   7.447  13.660   6.521
88812SOL     OW68268   5.798   9.027  13.504
88812SOL    HW168269   5.819   9.116  13.476
88812SOL    HW268270   5.848   9.016  13.585
88813SOL     OW68271   8.494   1.829   3.795
88813SOL    HW168272   8.588   1.829   3.811
88813SOL    HW268273   8.485   1.804   3.703
88814SOL     OW68274   0.296  12.290   2.122
88814SOL    HW168275   0.280  12.207   2.169
88814SOL    HW268276   0.215  12.340   2.134
88815SOL     OW68277  14.623   7.378   1.915
88815SOL    HW168278  14.588   7.445   1.974
88815SOL    HW268279  14.554   7.312   1.910
88816SOL     OW68280  13.021  10.232   7.763
88816SOL    HW168281  13.054  10.143   7.771
88816SOL    HW268282  12.998  10.241   7.670
88817SOL     OW68283   2.727  14.009   4.197
88817SOL    HW168284   2.711  13.963   4.114
88817SOL    HW268285   2.777  14.087   4.172
88818SOL     OW68286   5.147   2.452   3.948
88818SOL    HW168287   5.227   2.423   3.991
88818SOL    HW268288   5.077   2.408   3.997
88819SOL     OW68289   0.429   8.977   7.896
88819SOL    HW168290   0.415   8.890   7.934
88819SOL    HW268291   0.436   9.035   7.971
88820SOL     OW68292   6.571   2.906  11.695
88820SOL    HW168293   6.629   2.855  11.638
88820SOL    HW268294   6.573   2.995  11.658
88821SOL     OW68295  11.933   4.244   8.039
88821SOL    HW168296  11.989   4.309   8.083
88821SOL    HW268297  11.959   4.160   8.076
88822SOL     OW68298   1.364  13.152  11.494
88822SOL    HW168299   1.395  13.209  11.565
88822SOL    HW268300   1.433  13.087  11.484
88823SOL     OW68301   7.141   6.938   2.005
88823SOL    HW168302   7.136   6.842   2.009
88823SOL    HW268303   7.180   6.964   2.088
88824SOL     OW68304   3.701   5.575   5.203
88824SOL    HW168305   3.794   5.588   5.219
88824SOL    HW268306   3.697   5.514   5.129
88825SOL     OW68307   4.463   8.715   2.970
88825SOL    HW168308   4.489   8.748   3.055
88825SOL    HW268309   4.432   8.626   2.987
88826SOL     OW68310  11.900   2.906   1.080
88826SOL    HW168311  11.986   2.869   1.100
88826SOL    HW268312  11.908   2.999   1.104
88827SOL     OW68313   3.736  12.979  10.532
88827SOL    HW168314   3.667  12.996  10.597
88827SOL    HW268315   3.794  13.054  10.537
88828SOL     OW68316   3.543   3.903  10.508
88828SOL    HW168317   3.569   3.969  10.571
88828SOL    HW268318   3.593   3.825  10.532
88829SOL     OW68319  13.275   3.928   9.003
88829SOL    HW168320  13.282   4.024   9.005
88829SOL    HW268321  13.226   3.906   9.082
88830SOL     OW68322   3.377   8.071  14.543
88830SOL    HW168323   3.392   8.108  14.456
88830SOL    HW268324   3.314   8.130  14.584
88831SOL     OW68325   9.913   8.058  11.202
88831SOL    HW168326  10.003   8.040  11.174
88831SOL    HW268327   9.914   8.044  11.296
88832SOL     OW68328   8.148  13.686  14.628
88832SOL    HW168329   8.133  13.759  14.687
88832SOL    HW268330   8.208  13.720  14.561
88833SOL     OW68331  12.614   1.549  11.246
88833SOL    HW168332  12.697   1.502  11.256
88833SOL    HW268333  12.561   1.521  11.321
88834SOL     OW68334  14.337   0.005   8.778
88834SOL    HW168335  14.266   0.038   8.834
88834SOL    HW268336  14.340   0.065   8.704
88835SOL     OW68337  13.137  13.052   3.441
88835SOL    HW168338  13.173  13.140   3.427
88835SOL    HW268339  13.146  13.037   3.535
88836SOL     OW68340   0.129  14.314   4.673
88836SOL    HW168341   0.185  14.250   4.718
88836SOL    HW268342   0.079  14.355   4.743
88837SOL     OW68343   6.103  10.332   7.670
88837SOL    HW168344   6.140  10.243   7.676
88837SOL    HW268345   6.043  10.328   7.596
88838SOL     OW68346  13.362   3.922   3.982
88838SOL    HW168347  13.299   3.855   4.011
88838SOL    HW268348  13.393   3.961   4.064
88839SOL     OW68349  10.903   5.303   8.714
88839SOL    HW168350  10.866   5.243   8.650
88839SOL    HW268351  10.837   5.308   8.784
88840SOL     OW68352  13.710   4.555   8.376
88840SOL    HW168353  13.795   4.599   8.371
88840SOL    HW268354  13.646   4.627   8.382
88841SOL     OW68355  14.831  13.205   7.330
88841SOL    HW168356   0.039  13.218   7.293
88841SOL    HW268357  14.780  13.280   7.298
88842SOL     OW68358   3.572  13.855   2.741
88842SOL    HW168359   3.619  13.803   2.806
88842SOL    HW268360   3.528  13.923   2.793
88843SOL     OW68361   0.803  11.344   4.926
88843SOL    HW168362   0.854  11.279   4.878
88843SOL    HW268363   0.868  11.396   4.973
88844SOL     OW68364  13.549  13.944   5.275
88844SOL    HW168365  13.596  13.944   5.192
88844SOL    HW268366  13.614  13.918   5.341
88845SOL     OW68367   9.969   2.001   8.679
88845SOL    HW168368  10.039   2.030   8.738
88845SOL    HW268369  10.011   1.997   8.593
88846SOL     OW68370   0.380  11.178  10.604
88846SOL    HW168371   0.381  11.161  10.510
88846SOL    HW268372   0.294  11.148  10.634
88847SOL     OW68373  10.089  12.206  14.220
88847SOL    HW168374  10.012  12.235  14.267
88847SOL    HW268375  10.163  12.244  14.267
88848SOL     OW68376  12.389   6.789   2.077
88848SOL    HW168377  12.301   6.778   2.043
88848SOL    HW268378  12.446   6.781   2.000
88849SOL     OW68379   6.352   0.035   8.471
88849SOL    HW168380   6.259   0.015   8.465
88849SOL    HW268381   6.391  14.836   8.508
88850SOL     OW68382  11.419  10.050   5.813
88850SOL    HW168383  11.334  10.034   5.772
88850SOL    HW268384  11.400  10.055   5.907
88851SOL     OW68385   5.093   5.651   6.184
88851SOL    HW168386   5.022   5.699   6.142
88851SOL    HW268387   5.071   5.651   6.277
88852SOL     OW68388   5.552   8.018  13.092
88852SOL    HW168389   5.470   8.058  13.121
88852SOL    HW268390   5.547   8.020  12.996
88853SOL     OW68391   8.862   9.185   3.443
88853SOL    HW168392   8.784   9.236   3.420
88853SOL    HW268393   8.908   9.173   3.360
88854SOL     OW68394   8.127   2.720  10.570
88854SOL    HW168395   8.063   2.775  10.615
88854SOL    HW268396   8.146   2.767  10.489
88855SOL     OW68397   2.496   5.685   6.512
88855SOL    HW168398   2.473   5.776   6.495
88855SOL    HW268399   2.514   5.681   6.606
88856SOL     OW68400   2.749   0.607  12.091
88856SOL    HW168401   2.691   0.534  12.072
88856SOL    HW268402   2.693   0.684  12.086
88857SOL     OW68403  13.891   9.895  12.925
88857SOL    HW168404  13.803   9.888  12.887
88857SOL    HW268405  13.879   9.948  13.003
88858SOL     OW68406   8.520   0.015   7.321
88858SOL    HW168407   8.585   0.047   7.384
88858SOL    HW268408   8.464  14.836   7.373
88859SOL     OW68409  13.453   6.488   3.106
88859SOL    HW168410  13.401   6.488   3.025
88859SOL    HW268411  13.400   6.440   3.169
88860SOL     OW68412   4.539   6.353   7.354
88860SOL    HW168413   4.615   6.295   7.358
88860SOL    HW268414   4.495   6.341   7.438
88861SOL     OW68415  12.342   3.938   5.027
88861SOL    HW168416  12.328   3.844   5.029
88861SOL    HW268417  12.405   3.955   5.096
88862SOL     OW68418  14.128  14.850   3.844
88862SOL    HW168419  14.167  14.845   3.931
88862SOL    HW268420  14.072  14.773   3.838
88863SOL     OW68421   6.356   4.338   4.399
88863SOL    HW168422   6.364   4.332   4.494
88863SOL    HW268423   6.384   4.252   4.367
88864SOL     OW68424  14.279  10.274   8.668
88864SOL    HW168425  14.227  10.330   8.611
88864SOL    HW268426  14.314  10.333   8.735
88865SOL     OW68427  14.064  14.674   5.808
88865SOL    HW168428  14.045  14.743   5.872
88865SOL    HW268429  14.127  14.617   5.853
88866SOL     OW68430   3.651   8.185   5.055
88866SOL    HW168431   3.703   8.178   4.975
88866SOL    HW268432   3.594   8.109   5.054
88867SOL     OW68433   1.054   5.697  14.368
88867SOL    HW168434   1.023   5.786  14.350
88867SOL    HW268435   0.975   5.648  14.389
88868SOL     OW68436  13.699   5.428   6.537
88868SOL    HW168437  13.766   5.389   6.481
88868SOL    HW268438  13.658   5.354   6.581
88869SOL     OW68439  13.173   9.411   2.385
88869SOL    HW168440  13.129   9.483   2.431
88869SOL    HW268441  13.107   9.342   2.380
88870SOL     OW68442   5.330   1.593  11.286
88870SOL    HW168443   5.374   1.669  11.247
88870SOL    HW268444   5.271   1.631  11.351
88871SOL     OW68445   1.492   0.630   1.812
88871SOL    HW168446   1.526   0.541   1.802
88871SOL    HW268447   1.565   0.680   1.847
88872SOL     OW68448   5.370   1.938   3.630
88872SOL    HW168449   5.347   1.925   3.538
88872SOL    HW268450   5.464   1.958   3.629
88873SOL     OW68451   4.847  10.211  13.946
88873SOL    HW168452   4.860  10.305  13.951
88873SOL    HW268453   4.868  10.188  13.856
88874SOL     OW68454   9.871   5.725   8.020
88874SOL    HW168455   9.867   5.775   7.939
88874SOL    HW268456   9.808   5.654   8.008
88875SOL     OW68457   2.798   6.983   5.633
88875SOL    HW168458   2.724   6.963   5.576
88875SOL    HW268459   2.875   6.960   5.581
88876SOL     OW68460   9.591   2.037  14.147
88876SOL    HW168461   9.685   2.050  14.164
88876SOL    HW268462   9.550   2.116  14.184
88877SOL     OW68463  14.211  10.569  11.960
88877SOL    HW168464  14.123  10.581  11.924
88877SOL    HW268465  14.270  10.599  11.891
88878SOL     OW68466   2.478   7.957   7.058
88878SOL    HW168467   2.411   7.930   6.995
88878SOL    HW268468   2.551   7.898   7.041
88879SOL     OW68469  13.086   3.905  11.627
88879SOL    HW168470  13.086   3.847  11.551
88879SOL    HW268471  13.124   3.853  11.698
88880SOL     OW68472   1.550  14.166   9.202
88880SOL    HW168473   1.607  14.240   9.220
88880SOL    HW268474   1.546  14.118   9.285
88881SOL     OW68475   7.717   4.029  12.660
88881SOL    HW168476   7.680   4.110  12.694
88881SOL    HW268477   7.808   4.031  12.691
88882SOL     OW68478  13.218  12.161   3.458
88882SOL    HW168479  13.132  12.203   3.451
88882SOL    HW268480  13.273  12.228   3.499
88883SOL     OW68481   6.862  11.404   9.616
88883SOL    HW168482   6.799  11.475   9.629
88883SOL    HW268483   6.812  11.324   9.628
88884SOL     OW68484  10.618   6.719   3.003
88884SOL    HW168485  10.701   6.680   3.031
88884SOL    HW268486  10.620   6.715   2.907
88885SOL     OW68487   9.652   6.597  11.112
88885SOL    HW168488   9.709   6.552  11.175
88885SOL    HW268489   9.710   6.617  11.038
88886SOL     OW68490   3.879   2.320   1.605
88886SOL    HW168491   3.924   2.401   1.583
88886SOL    HW268492   3.938   2.251   1.575
88887SOL     OW68493   5.007   8.456   9.770
88887SOL    HW168494   4.945   8.456   9.696
88887SOL    HW268495   4.964   8.403   9.837
88888SOL     OW68496   1.920  12.105   8.389
88888SOL    HW168497   1.868  12.184   8.374
88888SOL    HW268498   1.969  12.122   8.469
88889SOL     OW68499  10.416  13.000   1.095
88889SOL    HW168500  10.459  12.948   1.027
88889SOL    HW268501  10.460  13.085   1.092
88890SOL     OW68502  13.064  12.553  11.085
88890SOL    HW168503  13.062  12.458  11.098
88890SOL    HW268504  13.022  12.566  11.000
88891SOL     OW68505   6.865  12.032   2.689
88891SOL    HW168506   6.898  12.116   2.657
88891SOL    HW268507   6.782  12.020   2.644
88892SOL     OW68508   7.800   2.602   5.777
88892SOL    HW168509   7.828   2.693   5.772
88892SOL    HW268510   7.855   2.556   5.713
88893SOL     OW68511  13.673   4.455   3.279
88893SOL    HW168512  13.661   4.421   3.190
88893SOL    HW268513  13.628   4.392   3.335
88894SOL     OW68514   4.001   3.766   2.710
88894SOL    HW168515   4.007   3.808   2.624
88894SOL    HW268516   4.092   3.757   2.739
88895SOL     OW68517   7.159   0.618   1.168
88895SOL    HW168518   7.196   0.539   1.208
88895SOL    HW268519   7.179   0.611   1.075
88896SOL     OW68520   8.897   0.296   6.349
88896SOL    HW168521   8.933   0.284   6.260
88896SOL    HW268522   8.861   0.210   6.372
88897SOL     OW68523   1.852   6.301  12.955
88897SOL    HW168524   1.763   6.336  12.950
88897SOL    HW268525   1.844   6.210  12.927
88898SOL     OW68526   0.455   1.395   0.329
88898SOL    HW168527   0.498   1.323   0.284
88898SOL    HW268528   0.391   1.428   0.265
88899SOL     OW68529   1.930   2.732   2.337
88899SOL    HW168530   2.011   2.697   2.374
88899SOL    HW268531   1.891   2.783   2.408
88900SOL     OW68532  14.422   4.758   0.749
88900SOL    HW168533  14.394   4.790   0.835
88900SOL    HW268534  14.518   4.756   0.755
88901SOL     OW68535   6.014  10.378   0.904
88901SOL    HW168536   5.928  10.336   0.898
88901SOL    HW268537   6.045  10.357   0.993
88902SOL     OW68538   8.608   7.740  12.467
88902SOL    HW168539   8.546   7.812  12.458
88902SOL    HW268540   8.694   7.783  12.468
88903SOL     OW68541   9.898  14.035  13.156
88903SOL    HW168542   9.818  13.983  13.151
88903SOL    HW268543   9.925  14.047  13.065
88904SOL     OW68544  13.744   0.569   2.704
88904SOL    HW168545  13.679   0.635   2.727
88904SOL    HW268546  13.712   0.531   2.622
88905SOL     OW68547   9.304   6.961   9.526
88905SOL    HW168548   9.310   7.020   9.451
88905SOL    HW268549   9.393   6.957   9.560
88906SOL     OW68550  14.528  14.712   8.423
88906SOL    HW168551  14.459  14.724   8.358
88906SOL    HW268552  14.580  14.639   8.391
88907SOL     OW68553   5.354   3.952   0.553
88907SOL    HW168554   5.319   3.873   0.514
88907SOL    HW268555   5.365   3.931   0.646
88908SOL     OW68556   1.684   4.151   7.099
88908SOL    HW168557   1.762   4.113   7.140
88908SOL    HW268558   1.701   4.245   7.100
88909SOL     OW68559  11.731   7.514   7.105
88909SOL    HW168560  11.705   7.456   7.176
88909SOL    HW268561  11.690   7.597   7.125
88910SOL     OW68562  12.382   3.780   7.962
88910SOL    HW168563  12.344   3.692   7.957
88910SOL    HW268564  12.468   3.766   8.003
88911SOL     OW68565  10.797   3.656   4.412
88911SOL    HW168566  10.830   3.746   4.400
88911SOL    HW268567  10.745   3.660   4.492
88912SOL     OW68568   7.043  14.369   6.923
88912SOL    HW168569   7.009  14.401   7.007
88912SOL    HW268570   7.133  14.402   6.919
88913SOL     OW68571   8.784   0.673  10.696
88913SOL    HW168572   8.859   0.614  10.684
88913SOL    HW268573   8.710   0.626  10.658
88914SOL     OW68574  14.193   9.446  11.700
88914SOL    HW168575  14.227   9.381  11.638
88914SOL    HW268576  14.180   9.525  11.647
88915SOL     OW68577   6.053   1.489  13.147
88915SOL    HW168578   6.013   1.481  13.234
88915SOL    HW268579   6.139   1.526  13.163
88916SOL     OW68580   7.674  14.831   8.125
88916SOL    HW168581   7.628   0.035   8.135
88916SOL    HW268582   7.613  14.765   8.157
88917SOL     OW68583   2.406   2.039   9.964
88917SOL    HW168584   2.377   2.087  10.041
88917SOL    HW268585   2.345   2.065   9.895
88918SOL     OW68586   9.472  12.163   8.048
88918SOL    HW168587   9.529  12.186   8.122
88918SOL    HW268588   9.383  12.170   8.082
88919SOL     OW68589  12.876   0.203  11.778
88919SOL    HW168590  12.808   0.203  11.711
88919SOL    HW268591  12.839   0.253  11.851
88920SOL     OW68592   9.752   5.657   8.509
88920SOL    HW168593   9.800   5.577   8.487
88920SOL    HW268594   9.697   5.632   8.583
88921SOL     OW68595  14.040   1.970   4.860
88921SOL    HW168596  13.980   1.920   4.915
88921SOL    HW268597  14.105   2.005   4.922
88922SOL     OW68598   1.014   7.008  12.247
88922SOL    HW168599   0.958   7.006  12.325
88922SOL    HW268600   1.102   7.019  12.281
88923SOL     OW68601   9.286  10.499  13.335
88923SOL    HW168602   9.289  10.580  13.285
88923SOL    HW268603   9.333  10.436  13.281
88924SOL     OW68604   8.315   2.651  14.598
88924SOL    HW168605   8.403   2.670  14.565
88924SOL    HW268606   8.264   2.728  14.576
88925SOL     OW68607   8.262   6.047  14.731
88925SOL    HW168608   8.285   6.016  14.818
88925SOL    HW268609   8.255   6.142  14.740
88926SOL     OW68610   6.190   9.311  11.739
88926SOL    HW168611   6.206   9.222  11.707
88926SOL    HW268612   6.231   9.313  11.826
88927SOL     OW68613   6.575   7.641   5.485
88927SOL    HW168614   6.562   7.736   5.495
88927SOL    HW268615   6.655   7.634   5.433
88928SOL     OW68616  11.588   4.297   9.630
88928SOL    HW168617  11.528   4.316   9.703
88928SOL    HW268618  11.546   4.224   9.584
88929SOL     OW68619   9.377   9.003   7.547
88929SOL    HW168620   9.323   9.047   7.481
88929SOL    HW268621   9.359   8.910   7.535
88930SOL     OW68622   2.001   7.761  13.909
88930SOL    HW168623   1.910   7.785  13.927
88930SOL    HW268624   2.051   7.840  13.930
88931SOL     OW68625   6.951   0.384   9.214
88931SOL    HW168626   6.992   0.389   9.128
88931SOL    HW268627   6.898   0.463   9.220
88932SOL     OW68628   7.127   2.364   3.118
88932SOL    HW168629   7.192   2.434   3.121
88932SOL    HW268630   7.148   2.314   3.040
88933SOL     OW68631   3.895  12.840   3.770
88933SOL    HW168632   3.898  12.904   3.841
88933SOL    HW268633   3.930  12.760   3.809
88934SOL     OW68634  11.996   6.204  12.456
88934SOL    HW168635  11.986   6.299  12.462
88934SOL    HW268636  11.911   6.169  12.483
88935SOL     OW68637   1.511  13.074  10.887
88935SOL    HW168638   1.572  13.133  10.844
88935SOL    HW268639   1.492  13.006  10.822
88936SOL     OW68640   4.527  13.205   8.785
88936SOL    HW168641   4.471  13.282   8.773
88936SOL    HW268642   4.559  13.184   8.698
88937SOL     OW68643   3.952  14.366   1.699
88937SOL    HW168644   3.998  14.364   1.615
88937SOL    HW268645   3.971  14.281   1.739
88938SOL     OW68646   1.964   1.653  13.773
88938SOL    HW168647   1.876   1.682  13.797
88938SOL    HW268648   2.023   1.702  13.830
88939SOL     OW68649   8.408   4.805   3.021
88939SOL    HW168650   8.334   4.842   2.974
88939SOL    HW268651   8.485   4.851   2.986
88940SOL     OW68652  12.126  13.107   1.802
88940SOL    HW168653  12.174  13.181   1.766
88940SOL    HW268654  12.176  13.082   1.880
88941SOL     OW68655  11.699   7.364   3.469
88941SOL    HW168656  11.619   7.322   3.439
88941SOL    HW268657  11.770   7.308   3.436
88942SOL     OW68658   0.215   3.374   2.275
88942SOL    HW168659   0.212   3.341   2.365
88942SOL    HW268660   0.219   3.296   2.221
88943SOL     OW68661   2.502   2.147   8.104
88943SOL    HW168662   2.562   2.086   8.060
88943SOL    HW268663   2.415   2.110   8.091
88944SOL     OW68664   4.217   3.157   7.401
88944SOL    HW168665   4.282   3.154   7.471
88944SOL    HW268666   4.233   3.240   7.357
88945SOL     OW68667  10.300  10.289   9.244
88945SOL    HW168668  10.387  10.294   9.203
88945SOL    HW268669  10.255  10.220   9.195
88946SOL     OW68670   5.814  10.156  12.907
88946SOL    HW168671   5.848  10.120  12.825
88946SOL    HW268672   5.862  10.109  12.975
88947SOL     OW68673   9.147   6.609   0.162
88947SOL    HW168674   9.199   6.623   0.241
88947SOL    HW268675   9.096   6.530   0.180
88948SOL     OW68676   5.818  10.246  13.543
88948SOL    HW168677   5.740  10.200  13.512
88948SOL    HW268678   5.799  10.264  13.636
88949SOL     OW68679  14.819   6.896   1.662
88949SOL    HW168680  14.782   6.929   1.743
88949SOL    HW268681  14.790   6.805   1.658
88950SOL     OW68682   1.656   9.791   6.619
88950SOL    HW168683   1.621   9.800   6.707
88950SOL    HW268684   1.595   9.732   6.575
88951SOL     OW68685   3.775   2.958  12.720
88951SOL    HW168686   3.761   2.895  12.649
88951SOL    HW268687   3.708   2.937  12.785
88952SOL     OW68688   7.927   3.193   3.942
88952SOL    HW168689   7.897   3.257   4.006
88952SOL    HW268690   7.857   3.127   3.940
88953SOL     OW68691   6.127   3.974   8.675
88953SOL    HW168692   6.063   4.033   8.634
88953SOL    HW268693   6.077   3.894   8.694
88954SOL     OW68694   0.983  13.584  14.486
88954SOL    HW168695   0.977  13.619  14.575
88954SOL    HW268696   0.989  13.662  14.430
88955SOL     OW68697   0.183   8.989  10.015
88955SOL    HW168698   0.278   9.000  10.021
88955SOL    HW268699   0.161   8.934  10.091
88956SOL     OW68700   7.911  11.360  10.246
88956SOL    HW168701   7.825  11.400  10.236
88956SOL    HW268702   7.893  11.274  10.284
88957SOL     OW68703   5.137  10.697   1.437
88957SOL    HW168704   5.139  10.657   1.524
88957SOL    HW268705   5.221  10.674   1.398
88958SOL     OW68706   7.309  10.961   6.096
88958SOL    HW168707   7.217  10.956   6.071
88958SOL    HW268708   7.344  10.874   6.078
88959SOL     OW68709   5.685  13.891   0.281
88959SOL    HW168710   5.692  13.798   0.258
88959SOL    HW268711   5.615  13.924   0.225
88960SOL     OW68712  12.561   8.489   7.251
88960SOL    HW168713  12.482   8.436   7.237
88960SOL    HW268714  12.633   8.428   7.242
88961SOL     OW68715  12.322   7.580   7.825
88961SOL    HW168716  12.238   7.535   7.835
88961SOL    HW268717  12.364   7.536   7.752
88962SOL     OW68718   5.139  10.934   1.911
88962SOL    HW168719   5.211  10.877   1.882
88962SOL    HW268720   5.169  11.023   1.893
88963SOL     OW68721  11.940   2.509   3.776
88963SOL    HW168722  11.871   2.486   3.838
88963SOL    HW268723  12.020   2.473   3.815
88964SOL     OW68724   7.290   9.466   1.669
88964SOL    HW168725   7.342   9.541   1.639
88964SOL    HW268726   7.329   9.442   1.753
88965SOL     OW68727   6.971   3.296   9.180
88965SOL    HW168728   7.008   3.211   9.206
88965SOL    HW268729   6.880   3.292   9.210
88966SOL     OW68730   2.409   7.993   7.849
88966SOL    HW168731   2.340   8.054   7.876
88966SOL    HW268732   2.416   8.004   7.755
88967SOL     OW68733  10.243   2.780  11.089
88967SOL    HW168734  10.280   2.706  11.138
88967SOL    HW268735  10.262   2.856  11.143
88968SOL     OW68736   4.492   2.511   7.216
88968SOL    HW168737   4.472   2.420   7.195
88968SOL    HW268738   4.587   2.519   7.203
88969SOL     OW68739  10.476  12.580   6.515
88969SOL    HW168740  10.565  12.592   6.483
88969SOL    HW268741  10.445  12.668   6.534
88970SOL     OW68742   9.139  11.618   8.856
88970SOL    HW168743   9.221  11.665   8.865
88970SOL    HW268744   9.162  11.537   8.810
88971SOL     OW68745   4.299   4.686   7.177
88971SOL    HW168746   4.338   4.625   7.114
88971SOL    HW268747   4.369   4.702   7.241
88972SOL     OW68748   3.220  14.496  14.209
88972SOL    HW168749   3.241  14.435  14.280
88972SOL    HW268750   3.197  14.441  14.135
88973SOL     OW68751   3.942   5.739   5.745
88973SOL    HW168752   4.016   5.764   5.689
88973SOL    HW268753   3.977   5.669   5.801
88974SOL     OW68754  14.112   7.891   7.110
88974SOL    HW168755  14.095   7.926   7.197
88974SOL    HW268756  14.150   7.964   7.061
88975SOL     OW68757   4.103   8.329   7.601
88975SOL    HW168758   4.135   8.287   7.681
88975SOL    HW268759   4.167   8.306   7.534
88976SOL     OW68760  12.706  13.542  10.123
88976SOL    HW168761  12.672  13.585  10.201
88976SOL    HW268762  12.703  13.610  10.055
88977SOL     OW68763  11.982   0.742  13.760
88977SOL    HW168764  11.969   0.703  13.847
88977SOL    HW268765  12.031   0.676  13.711
88978SOL     OW68766   5.096  10.180   7.011
88978SOL    HW168767   5.123  10.180   7.103
88978SOL    HW268768   5.115  10.268   6.980
88979SOL     OW68769  13.511  13.572  14.347
88979SOL    HW168770  13.564  13.632  14.295
88979SOL    HW268771  13.498  13.617  14.430
88980SOL     OW68772   5.852   4.296   0.068
88980SOL    HW168773   5.895   4.288  14.862
88980SOL    HW268774   5.848   4.390   0.085
88981SOL     OW68775   2.782   4.526   8.695
88981SOL    HW168776   2.861   4.472   8.697
88981SOL    HW268777   2.809   4.605   8.646
88982SOL     OW68778   9.699   8.604  13.302
88982SOL    HW168779   9.717   8.568  13.389
88982SOL    HW268780   9.689   8.698  13.317
88983SOL     OW68781   5.348   1.148  12.016
88983SOL    HW168782   5.356   1.242  12.026
88983SOL    HW268783   5.360   1.133  11.922
88984SOL     OW68784  10.379  11.820   3.701
88984SOL    HW168785  10.315  11.818   3.773
88984SOL    HW268786  10.327  11.836   3.623
88985SOL     OW68787   6.626   1.669  13.907
88985SOL    HW168788   6.578   1.736  13.858
88985SOL    HW268789   6.705   1.713  13.936
88986SOL     OW68790   6.448  12.136   4.711
88986SOL    HW168791   6.473  12.045   4.725
88986SOL    HW268792   6.353  12.136   4.714
88987SOL     OW68793   5.629  10.927  10.009
88987SOL    HW168794   5.580  10.911   9.929
88987SOL    HW268795   5.685  11.002   9.988
88988SOL     OW68796  10.890   9.132   7.832
88988SOL    HW168797  10.981   9.105   7.817
88988SOL    HW268798  10.870   9.102   7.920
88989SOL     OW68799   9.078   9.222   3.839
88989SOL    HW168800   9.109   9.225   3.748
88989SOL    HW268801   9.156   9.243   3.891
88990SOL     OW68802  13.606   4.958  12.850
88990SOL    HW168803  13.674   4.900  12.816
88990SOL    HW268804  13.569   4.999  12.771
88991SOL     OW68805   3.588   3.295   8.314
88991SOL    HW168806   3.671   3.247   8.323
88991SOL    HW268807   3.600   3.348   8.236
88992SOL     OW68808  11.894   3.022   6.386
88992SOL    HW168809  11.817   3.065   6.349
88992SOL    HW268810  11.964   3.041   6.324
88993SOL     OW68811   3.673  11.242   5.205
88993SOL    HW168812   3.763  11.270   5.216
88993SOL    HW268813   3.632  11.312   5.155
88994SOL     OW68814   5.536   5.058   0.212
88994SOL    HW168815   5.539   5.154   0.209
88994SOL    HW268816   5.483   5.034   0.136
88995SOL     OW68817  11.643   4.906   7.236
88995SOL    HW168818  11.641   4.979   7.174
88995SOL    HW268819  11.573   4.848   7.205
88996SOL     OW68820  12.436   3.342   9.996
88996SOL    HW168821  12.445   3.364  10.089
88996SOL    HW268822  12.474   3.254   9.988
88997SOL     OW68823   8.197   8.319   1.864
88997SOL    HW168824   8.286   8.287   1.880
88997SOL    HW268825   8.209   8.398   1.812
88998SOL     OW68826   6.272  11.736   6.823
88998SOL    HW168827   6.215  11.747   6.747
88998SOL    HW268828   6.342  11.678   6.793
88999SOL     OW68829   3.772   6.276  10.821
88999SOL    HW168830   3.735   6.255  10.735
88999SOL    HW268831   3.796   6.369  10.814
89000SOL     OW68832  13.714   0.645   8.600
89000SOL    HW168833  13.804   0.677   8.604
89000SOL    HW268834  13.692   0.623   8.690
89001SOL     OW68835  13.361  12.398   6.277
89001SOL    HW168836  13.340  12.487   6.303
89001SOL    HW268837  13.325  12.343   6.347
89002SOL     OW68838   7.329   8.736   3.865
89002SOL    HW168839   7.324   8.750   3.770
89002SOL    HW268840   7.275   8.659   3.881
89003SOL     OW68841  14.681  12.184  12.053
89003SOL    HW168842  14.732  12.265  12.042
89003SOL    HW268843  14.645  12.190  12.141
89004SOL     OW68844   7.383  14.612  12.392
89004SOL    HW168845   7.362  14.701  12.365
89004SOL    HW268846   7.344  14.604  12.479
89005SOL     OW68847   3.614   7.042   4.347
89005SOL    HW168848   3.544   7.030   4.411
89005SOL    HW268849   3.643   6.953   4.328
89006SOL     OW68850   1.369  14.593   1.546
89006SOL    HW168851   1.323  14.597   1.630
89006SOL    HW268852   1.302  14.565   1.483
89007SOL     OW68853   5.444  13.693   8.281
89007SOL    HW168854   5.522  13.733   8.243
89007SOL    HW268855   5.373  13.752   8.257
89008SOL     OW68856   4.605   5.943   9.129
89008SOL    HW168857   4.694   5.912   9.142
89008SOL    HW268858   4.576   5.899   9.049
89009SOL     OW68859   9.273   1.781   1.115
89009SOL    HW168860   9.346   1.720   1.105
89009SOL    HW268861   9.226   1.750   1.192
89010SOL     OW68862   7.486  14.192   7.518
89010SOL    HW168863   7.464  14.106   7.481
89010SOL    HW268864   7.501  14.248   7.442
89011SOL     OW68865  14.447  13.519  11.063
89011SOL    HW168866  14.509  13.587  11.092
89011SOL    HW268867  14.383  13.566  11.010
89012SOL     OW68868  13.492  12.342  13.653
89012SOL    HW168869  13.575  12.355  13.698
89012SOL    HW268870  13.439  12.418  13.678
89013SOL     OW68871   2.748  13.332   0.971
89013SOL    HW168872   2.763  13.350   0.878
89013SOL    HW268873   2.676  13.270   0.973
89014SOL     OW68874   2.944   9.879   9.803
89014SOL    HW168875   2.972   9.788   9.790
89014SOL    HW268876   2.981   9.903   9.888
89015SOL     OW68877   6.697  13.602   3.817
89015SOL    HW168878   6.773  13.613   3.760
89015SOL    HW268879   6.709  13.516   3.857
89016SOL     OW68880  14.634   2.557   7.714
89016SOL    HW168881  14.554   2.546   7.662
89016SOL    HW268882  14.618   2.635   7.767
89017SOL     OW68883   9.314   8.715   3.151
89017SOL    HW168884   9.341   8.791   3.204
89017SOL    HW268885   9.275   8.753   3.073
89018SOL     OW68886   2.367   1.989   6.913
89018SOL    HW168887   2.438   1.989   6.848
89018SOL    HW268888   2.295   1.945   6.868
89019SOL     OW68889  11.577   4.078  12.453
89019SOL    HW168890  11.534   4.164  12.454
89019SOL    HW268891  11.626   4.077  12.371
89020SOL     OW68892   8.492  14.131   0.612
89020SOL    HW168893   8.534  14.183   0.681
89020SOL    HW268894   8.565  14.090   0.565
89021SOL     OW68895   5.412  12.648  12.376
89021SOL    HW168896   5.493  12.601  12.352
89021SOL    HW268897   5.441  12.715  12.438
89022SOL     OW68898   1.755   2.434  10.244
89022SOL    HW168899   1.733   2.483  10.165
89022SOL    HW268900   1.676   2.439  10.298
89023SOL     OW68901   9.571   5.966  12.707
89023SOL    HW168902   9.550   5.962  12.614
89023SOL    HW268903   9.643   6.028  12.713
89024SOL     OW68904  13.210  10.478  13.565
89024SOL    HW168905  13.155  10.402  13.584
89024SOL    HW268906  13.300  10.448  13.579
89025SOL     OW68907  11.045   5.696   3.426
89025SOL    HW168908  10.955   5.668   3.414
89025SOL    HW268909  11.059   5.759   3.355
89026SOL     OW68910   2.296   4.031   8.629
89026SOL    HW168911   2.234   3.973   8.675
89026SOL    HW268912   2.328   3.978   8.556
89027SOL     OW68913  13.581  11.604   7.938
89027SOL    HW168914  13.540  11.551   7.870
89027SOL    HW268915  13.650  11.549   7.974
89028SOL     OW68916   9.972   4.550   6.561
89028SOL    HW168917  10.027   4.530   6.637
89028SOL    HW268918  10.022   4.517   6.486
89029SOL     OW68919   1.490   3.159   7.693
89029SOL    HW168920   1.498   3.225   7.762
89029SOL    HW268921   1.524   3.202   7.615
89030SOL     OW68922  10.193   9.921   2.877
89030SOL    HW168923  10.181   9.910   2.971
89030SOL    HW268924  10.127   9.864   2.837
89031SOL     OW68925   3.819   9.237   7.048
89031SOL    HW168926   3.820   9.326   7.084
89031SOL    HW268927   3.849   9.183   7.121
89032SOL     OW68928   7.263   6.339  12.898
89032SOL    HW168929   7.281   6.386  12.980
89032SOL    HW268930   7.286   6.401  12.830
89033SOL     OW68931   6.662   1.653   2.798
89033SOL    HW168932   6.757   1.654   2.808
89033SOL    HW268933   6.643   1.567   2.760
89034SOL     OW68934  12.397   2.733   4.808
89034SOL    HW168935  12.386   2.642   4.835
89034SOL    HW268936  12.308   2.762   4.786
89035SOL     OW68937   4.169   2.941  12.109
89035SOL    HW168938   4.199   2.966  12.022
89035SOL    HW268939   4.247   2.905  12.152
89036SOL     OW68940   4.186  13.078  14.821
89036SOL    HW168941   4.254  13.066   0.008
89036SOL    HW268942   4.233  13.090  14.739
89037SOL     OW68943   7.338   3.392  13.463
89037SOL    HW168944   7.363   3.475  13.423
89037SOL    HW268945   7.381   3.326  13.409
89038SOL     OW68946   0.612   9.544  10.261
89038SOL    HW168947   0.596   9.565  10.353
89038SOL    HW268948   0.684   9.481  10.263
89039SOL     OW68949   9.029  11.617   0.294
89039SOL    HW168950   9.122  11.599   0.304
89039SOL    HW268951   9.010  11.594   0.203
89040SOL     OW68952   3.039   7.128   1.895
89040SOL    HW168953   3.062   7.062   1.961
89040SOL    HW268954   3.121   7.144   1.848
89041SOL     OW68955   3.874   3.077   1.329
89041SOL    HW168956   3.909   2.997   1.292
89041SOL    HW268957   3.929   3.147   1.293
89042SOL     OW68958   0.515   3.058  12.745
89042SOL    HW168959   0.442   3.084  12.689
89042SOL    HW268960   0.570   3.136  12.751
89043SOL     OW68961   8.937   8.419   8.281
89043SOL    HW168962   8.871   8.463   8.227
89043SOL    HW268963   8.904   8.426   8.370
89044SOL     OW68964   7.927   4.362   3.226
89044SOL    HW168965   7.977   4.336   3.303
89044SOL    HW268966   7.975   4.436   3.190
89045SOL     OW68967   3.732   6.767   3.424
89045SOL    HW168968   3.804   6.807   3.374
89045SOL    HW268969   3.693   6.840   3.472
89046SOL     OW68970   4.487   1.770   8.446
89046SOL    HW168971   4.514   1.848   8.397
89046SOL    HW268972   4.521   1.785   8.535
89047SOL     OW68973   9.086   6.989  12.922
89047SOL    HW168974   9.064   7.046  12.996
89047SOL    HW268975   9.180   6.977  12.928
89048SOL     OW68976  13.659   0.151   1.343
89048SOL    HW168977  13.685   0.232   1.299
89048SOL    HW268978  13.568   0.165   1.370
89049SOL     OW68979   1.127  10.514   0.665
89049SOL    HW168980   1.143  10.430   0.706
89049SOL    HW268981   1.186  10.516   0.590
89050SOL     OW68982   0.600  10.170   9.565
89050SOL    HW168983   0.561  10.151   9.651
89050SOL    HW268984   0.593  10.088   9.517
89051SOL     OW68985  14.207  12.737  10.435
89051SOL    HW168986  14.188  12.787  10.515
89051SOL    HW268987  14.127  12.688  10.418
89052SOL     OW68988   4.375   8.921   2.378
89052SOL    HW168989   4.397   8.930   2.286
89052SOL    HW268990   4.459   8.924   2.424
89053SOL     OW68991   0.902  14.313  12.222
89053SOL    HW168992   0.904  14.342  12.314
89053SOL    HW268993   0.869  14.388  12.174
89054SOL     OW68994  13.449   8.593  13.181
89054SOL    HW168995  13.527   8.607  13.234
89054SOL    HW268996  13.403   8.521  13.224
89055SOL     OW68997  14.447   8.784  13.484
89055SOL    HW168998  14.408   8.869  13.506
89055SOL    HW268999  14.516   8.804  13.421
89056SOL     OW69000   1.041   8.272   9.932
89056SOL    HW169001   1.046   8.177   9.922
89056SOL    HW269002   0.947   8.291   9.938
89057SOL     OW69003  11.599   8.612   0.791
89057SOL    HW169004  11.594   8.537   0.731
89057SOL    HW269005  11.685   8.603   0.833
89058SOL     OW69006   3.219   3.669  13.626
89058SOL    HW169007   3.157   3.720  13.573
89058SOL    HW269008   3.270   3.735  13.672
89059SOL     OW69009   3.295   8.052   9.362
89059SOL    HW169010   3.210   8.051   9.319
89059SOL    HW269011   3.296   7.973   9.417
89060SOL     OW69012   1.386   9.064   3.212
89060SOL    HW169013   1.459   9.123   3.229
89060SOL    HW269014   1.420   9.000   3.149
89061SOL     OW69015  13.826   0.597   3.140
89061SOL    HW169016  13.898   0.639   3.187
89061SOL    HW269017  13.859   0.583   3.052
89062SOL     OW69018  10.787  10.369   9.188
89062SOL    HW169019  10.857  10.425   9.221
89062SOL    HW269020  10.830  10.285   9.172
89063SOL     OW69021  11.694  11.576   3.635
89063SOL    HW169022  11.651  11.528   3.705
89063SOL    HW269023  11.629  11.579   3.564
89064SOL     OW69024   7.915   4.436  13.359
89064SOL    HW169025   8.009   4.443  13.342
89064SOL    HW269026   7.882   4.379  13.289
89065SOL     OW69027  11.290   5.510   5.422
89065SOL    HW169028  11.262   5.459   5.497
89065SOL    HW269029  11.327   5.590   5.460
89066SOL     OW69030   2.842  10.208   3.837
89066SOL    HW169031   2.919  10.238   3.885
89066SOL    HW269032   2.780  10.281   3.842
89067SOL     OW69033  13.983  14.767   0.842
89067SOL    HW169034  13.936  14.801   0.918
89067SOL    HW269035  13.962  14.674   0.841
89068SOL     OW69036   2.643  13.579   8.487
89068SOL    HW169037   2.690  13.632   8.553
89068SOL    HW269038   2.570  13.541   8.535
89069SOL     OW69039   2.031   0.783  11.917
89069SOL    HW169040   2.040   0.831  12.000
89069SOL    HW269041   1.950   0.816  11.879
89070SOL     OW69042  14.457   5.368  13.071
89070SOL    HW169043  14.416   5.447  13.037
89070SOL    HW269044  14.514   5.338  13.000
89071SOL     OW69045  10.945  11.522   4.234
89071SOL    HW169046  10.888  11.588   4.273
89071SOL    HW269047  10.891  11.482   4.166
89072SOL     OW69048   3.586   0.975   4.435
89072SOL    HW169049   3.555   0.885   4.424
89072SOL    HW269050   3.644   0.990   4.361
89073SOL     OW69051   9.588  11.351   8.152
89073SOL    HW169052   9.667  11.397   8.181
89073SOL    HW269053   9.589  11.269   8.202
89074SOL     OW69054   3.151   8.529   7.530
89074SOL    HW169055   3.232   8.577   7.517
89074SOL    HW269056   3.110   8.528   7.443
89075SOL     OW69057   1.201   8.517   1.203
89075SOL    HW169058   1.141   8.483   1.269
89075SOL    HW269059   1.219   8.607   1.231
89076SOL     OW69060  12.155  10.933  13.248
89076SOL    HW169061  12.100  10.881  13.307
89076SOL    HW269062  12.213  10.981  13.306
89077SOL     OW69063   0.369   8.785   5.758
89077SOL    HW169064   0.461   8.760   5.762
89077SOL    HW269065   0.321   8.706   5.784
89078SOL     OW69066   6.881   3.818  13.634
89078SOL    HW169067   6.804   3.769  13.604
89078SOL    HW269068   6.849   3.907  13.646
89079SOL     OW69069  14.434   6.355  10.659
89079SOL    HW169070  14.372   6.409  10.609
89079SOL    HW269071  14.514   6.356  10.606
89080SOL     OW69072   0.809  14.431   7.138
89080SOL    HW169073   0.769  14.361   7.088
89080SOL    HW269074   0.863  14.478   7.075
89081SOL     OW69075   0.326   1.277   8.016
89081SOL    HW169076   0.280   1.200   8.049
89081SOL    HW269077   0.319   1.271   7.921
89082SOL     OW69078  11.467  11.531   1.770
89082SOL    HW169079  11.420  11.524   1.853
89082SOL    HW269080  11.508  11.445   1.759
89083SOL     OW69081   2.167   9.901   6.278
89083SOL    HW169082   2.192   9.867   6.192
89083SOL    HW269083   2.107   9.836   6.313
89084SOL     OW69084   6.279  13.237   5.304
89084SOL    HW169085   6.250  13.151   5.336
89084SOL    HW269086   6.224  13.253   5.228
89085SOL     OW69087  14.763   7.600   9.553
89085SOL    HW169088  14.734   7.511   9.574
89085SOL    HW269089  14.705   7.657   9.604
89086SOL     OW69090   3.871   0.376  13.226
89086SOL    HW169091   3.924   0.436  13.174
89086SOL    HW269092   3.802   0.347  13.167
89087SOL     OW69093  11.091   0.282   2.638
89087SOL    HW169094  11.147   0.293   2.561
89087SOL    HW269095  11.013   0.334   2.618
89088SOL     OW69096   5.662  14.761  14.287
89088SOL    HW169097   5.575  14.730  14.263
89088SOL    HW269098   5.712  14.682  14.306
89089SOL     OW69099   4.225  13.583   9.798
89089SOL    HW169100   4.302  13.635   9.776
89089SOL    HW269101   4.241  13.498   9.757
89090SOL     OW69102   9.091   6.867   0.809
89090SOL    HW169103   9.052   6.952   0.829
89090SOL    HW269104   9.051   6.807   0.871
89091SOL     OW69105   1.331  11.997   6.069
89091SOL    HW169106   1.404  12.021   6.126
89091SOL    HW269107   1.367  11.930   6.010
89092SOL     OW69108   0.938   7.965   7.318
89092SOL    HW169109   0.956   7.964   7.224
89092SOL    HW269110   0.954   7.874   7.346
89093SOL     OW69111   1.456   4.354   8.909
89093SOL    HW169112   1.421   4.441   8.927
89093SOL    HW269113   1.396   4.317   8.844
89094SOL     OW69114   1.346   0.894   1.859
89094SOL    HW169115   1.349   0.856   1.771
89094SOL    HW269116   1.341   0.818   1.918
89095SOL     OW69117   3.678  14.416   6.343
89095SOL    HW169118   3.652  14.508   6.347
89095SOL    HW269119   3.646  14.378   6.425
89096SOL     OW69120   3.483   3.434  11.020
89096SOL    HW169121   3.463   3.346  11.051
89096SOL    HW269122   3.563   3.424  10.968
89097SOL     OW69123   0.566   1.192  13.049
89097SOL    HW169124   0.556   1.176  13.143
89097SOL    HW269125   0.483   1.166  13.011
89098SOL     OW69126   3.811   5.869   2.870
89098SOL    HW169127   3.857   5.785   2.871
89098SOL    HW269128   3.724   5.849   2.837
89099SOL     OW69129   5.498   3.823   7.610
89099SOL    HW169130   5.403   3.823   7.607
89099SOL    HW269131   5.521   3.890   7.673
89100SOL     OW69132   6.696  14.842   2.001
89100SOL    HW169133   6.785  14.856   1.970
89100SOL    HW269134   6.701  14.761   2.052
89101SOL     OW69135  12.110   3.760   7.103
89101SOL    HW169136  12.056   3.822   7.054
89101SOL    HW269137  12.074   3.760   7.191
89102SOL     OW69138  14.820  10.240   8.480
89102SOL    HW169139  14.805  10.267   8.389
89102SOL    HW269140   0.033  10.217   8.484
89103SOL     OW69141   9.326  10.985  11.645
89103SOL    HW169142   9.281  11.067  11.663
89103SOL    HW269143   9.413  11.011  11.614
89104SOL     OW69144   1.455  14.712  10.850
89104SOL    HW169145   1.375  14.763  10.859
89104SOL    HW269146   1.523  14.777  10.831
89105SOL     OW69147  13.294   4.652  13.143
89105SOL    HW169148  13.316   4.741  13.116
89105SOL    HW269149  13.298   4.601  13.062
89106SOL     OW69150   0.257   3.854   3.750
89106SOL    HW169151   0.251   3.764   3.718
89106SOL    HW269152   0.347   3.881   3.729
89107SOL     OW69153  11.681   9.951   3.657
89107SOL    HW169154  11.587   9.934   3.652
89107SOL    HW269155  11.702   9.996   3.575
89108SOL     OW69156   1.676   7.445   9.999
89108SOL    HW169157   1.640   7.356  10.001
89108SOL    HW269158   1.770   7.434  10.014
89109SOL     OW69159  12.165   5.333  11.667
89109SOL    HW169160  12.138   5.242  11.654
89109SOL    HW269161  12.237   5.329  11.729
89110SOL     OW69162  12.002   5.510   6.747
89110SOL    HW169163  11.999   5.417   6.724
89110SOL    HW269164  12.072   5.517   6.812
89111SOL     OW69165   4.557  13.538   9.370
89111SOL    HW169166   4.463  13.550   9.359
89111SOL    HW269167   4.565  13.478   9.444
89112SOL     OW69168   1.184  14.193   2.333
89112SOL    HW169169   1.109  14.199   2.392
89112SOL    HW269170   1.253  14.242   2.377
89113SOL     OW69171   4.408  11.676   1.376
89113SOL    HW169172   4.446  11.675   1.289
89113SOL    HW269173   4.313  11.672   1.361
89114SOL     OW69174   8.273   9.807  11.127
89114SOL    HW169175   8.183   9.776  11.135
89114SOL    HW269176   8.310   9.793  11.214
89115SOL     OW69177   2.757   8.161   1.343
89115SOL    HW169178   2.835   8.132   1.392
89115SOL    HW269179   2.684   8.121   1.389
89116SOL     OW69180   5.554   7.311   1.619
89116SOL    HW169181   5.519   7.231   1.581
89116SOL    HW269182   5.495   7.380   1.588
89117SOL     OW69183   1.852   8.765  10.720
89117SOL    HW169184   1.891   8.850  10.742
89117SOL    HW269185   1.876   8.707  10.792
89118SOL     OW69186  10.370   3.777  12.452
89118SOL    HW169187  10.311   3.797  12.525
89118SOL    HW269188  10.453   3.752  12.494
89119SOL     OW69189   8.710   8.465   5.129
89119SOL    HW169190   8.632   8.445   5.077
89119SOL    HW269191   8.750   8.539   5.084
89120SOL     OW69192  14.252  12.768   9.611
89120SOL    HW169193  14.264  12.761   9.706
89120SOL    HW269194  14.324  12.718   9.574
89121SOL     OW69195   0.114   3.836  14.318
89121SOL    HW169196   0.089   3.749  14.287
89121SOL    HW269197   0.204   3.847  14.290
89122SOL     OW69198   8.457   0.363   0.499
89122SOL    HW169199   8.463   0.447   0.453
89122SOL    HW269200   8.506   0.376   0.580
89123SOL     OW69201  14.157   5.065   5.350
89123SOL    HW169202  14.243   5.060   5.392
89123SOL    HW269203  14.157   5.151   5.307
89124SOL     OW69204   3.099   3.198   5.629
89124SOL    HW169205   3.112   3.138   5.703
89124SOL    HW269206   3.115   3.144   5.552
89125SOL     OW69207  11.562  10.578  12.398
89125SOL    HW169208  11.589  10.656  12.350
89125SOL    HW269209  11.473  10.598  12.427
89126SOL     OW69210   1.823  10.460  10.200
89126SOL    HW169211   1.810  10.371  10.231
89126SOL    HW269212   1.873  10.450  10.119
89127SOL     OW69213   4.955   1.096  11.572
89127SOL    HW169214   4.900   1.047  11.512
89127SOL    HW269215   5.036   1.112  11.523
89128SOL     OW69216  11.492   9.364  14.742
89128SOL    HW169217  11.412   9.413  14.721
89128SOL    HW269218  11.563   9.427  14.728
89129SOL     OW69219   3.727   2.963   4.833
89129SOL    HW169220   3.660   3.031   4.824
89129SOL    HW269221   3.682   2.891   4.878
89130SOL     OW69222   6.258   7.098   5.291
89130SOL    HW169223   6.270   7.185   5.251
89130SOL    HW269224   6.171   7.102   5.330
89131SOL     OW69225   7.578   0.933   0.824
89131SOL    HW169226   7.556   0.841   0.806
89131SOL    HW269227   7.521   0.983   0.766
89132SOL     OW69228  10.733   6.091   7.020
89132SOL    HW169229  10.810   6.132   7.061
89132SOL    HW269230  10.682   6.059   7.094
89133SOL     OW69231  11.743   1.122   8.259
89133SOL    HW169232  11.828   1.158   8.284
89133SOL    HW269233  11.763   1.031   8.234
89134SOL     OW69234  11.190   9.288   7.440
89134SOL    HW169235  11.263   9.252   7.390
89134SOL    HW269236  11.135   9.213   7.459
89135SOL     OW69237   5.217   4.353   8.950
89135SOL    HW169238   5.146   4.351   9.015
89135SOL    HW269239   5.211   4.268   8.905
89136SOL     OW69240   6.179   7.389   6.362
89136SOL    HW169241   6.164   7.459   6.425
89136SOL    HW269242   6.105   7.394   6.302
89137SOL     OW69243   5.461  14.460   7.411
89137SOL    HW169244   5.550  14.487   7.432
89137SOL    HW269245   5.407  14.536   7.431
89138SOL     OW69246   9.676   7.897  13.952
89138SOL    HW169247   9.748   7.854  13.998
89138SOL    HW269248   9.668   7.847  13.870
89139SOL     OW69249   2.207   3.037  12.361
89139SOL    HW169250   2.129   3.083  12.330
89139SOL    HW269251   2.172   2.968  12.418
89140SOL     OW69252  13.970   8.782  12.991
89140SOL    HW169253  13.949   8.721  12.919
89140SOL    HW269254  14.015   8.854  12.948
89141SOL     OW69255   8.386  11.456  13.605
89141SOL    HW169256   8.365  11.506  13.684
89141SOL    HW269257   8.309  11.467  13.548
89142SOL     OW69258  12.581  11.468  14.029
89142SOL    HW169259  12.501  11.516  14.052
89142SOL    HW269260  12.558  11.376  14.042
89143SOL     OW69261   8.295   7.916  12.155
89143SOL    HW169262   8.232   7.864  12.105
89143SOL    HW269263   8.368   7.856  12.172
89144SOL     OW69264   1.173   2.618   5.439
89144SOL    HW169265   1.219   2.662   5.368
89144SOL    HW269266   1.239   2.605   5.507
89145SOL     OW69267   3.202   0.488   0.221
89145SOL    HW169268   3.157   0.502   0.304
89145SOL    HW269269   3.144   0.527   0.156
89146SOL     OW69270   3.037   6.384  12.793
89146SOL    HW169271   2.993   6.351  12.715
89146SOL    HW269272   2.997   6.336  12.865
89147SOL     OW69273  13.421  11.821   0.274
89147SOL    HW169274  13.334  11.801   0.308
89147SOL    HW269275  13.419  11.789   0.184
89148SOL     OW69276   2.212   2.773  11.574
89148SOL    HW169277   2.261   2.825  11.638
89148SOL    HW269278   2.275   2.708  11.542
89149SOL     OW69279  14.302   5.339   1.260
89149SOL    HW169280  14.214   5.367   1.236
89149SOL    HW269281  14.310   5.251   1.223
89150SOL     OW69282   4.422   2.628   9.894
89150SOL    HW169283   4.430   2.634   9.799
89150SOL    HW269284   4.486   2.561   9.919
89151SOL     OW69285   8.089   0.111   0.578
89151SOL    HW169286   8.037   0.078   0.505
89151SOL    HW269287   8.059   0.060   0.654
89152SOL     OW69288   9.252  12.129   8.168
89152SOL    HW169289   9.223  12.044   8.133
89152SOL    HW269290   9.226  12.126   8.261
89153SOL     OW69291   8.895   4.388   6.135
89153SOL    HW169292   8.855   4.360   6.053
89153SOL    HW269293   8.981   4.345   6.135
89154SOL     OW69294   6.201   5.381   2.930
89154SOL    HW169295   6.235   5.471   2.928
89154SOL    HW269296   6.224   5.345   2.844
89155SOL     OW69297  14.796  13.269   9.671
89155SOL    HW169298  14.803  13.363   9.690
89155SOL    HW269299  14.703  13.254   9.656
89156SOL     OW69300   7.656   3.794  11.913
89156SOL    HW169301   7.601   3.816  11.988
89156SOL    HW269302   7.675   3.879  11.871
89157SOL     OW69303   2.215   8.740  12.601
89157SOL    HW169304   2.249   8.742  12.690
89157SOL    HW269305   2.144   8.803  12.600
89158SOL     OW69306   6.805   5.496   9.925
89158SOL    HW169307   6.803   5.434   9.852
89158SOL    HW269308   6.884   5.547   9.911
89159SOL     OW69309   2.493   5.751   1.684
89159SOL    HW169310   2.505   5.686   1.615
89159SOL    HW269311   2.579   5.793   1.692
89160SOL     OW69312  13.064   9.611   0.912
89160SOL    HW169313  13.128   9.640   0.977
89160SOL    HW269314  13.032   9.692   0.872
89161SOL     OW69315   7.946   7.345  11.022
89161SOL    HW169316   7.935   7.426  10.972
89161SOL    HW269317   8.026   7.306  10.987
89162SOL     OW69318   5.472   0.780   7.311
89162SOL    HW169319   5.475   0.707   7.249
89162SOL    HW269320   5.381   0.809   7.309
89163SOL     OW69321   9.416   1.134   9.651
89163SOL    HW169322   9.401   1.114   9.743
89163SOL    HW269323   9.405   1.228   9.644
89164SOL     OW69324   7.633  11.343  10.411
89164SOL    HW169325   7.675  11.268  10.369
89164SOL    HW269326   7.682  11.356  10.492
89165SOL     OW69327   4.424  12.245   7.942
89165SOL    HW169328   4.353  12.185   7.965
89165SOL    HW269329   4.384  12.332   7.944
89166SOL     OW69330   2.287   3.845   5.780
89166SOL    HW169331   2.341   3.922   5.760
89166SOL    HW269332   2.322   3.812   5.862
89167SOL     OW69333   7.456  13.220  11.900
89167SOL    HW169334   7.540  13.260  11.877
89167SOL    HW269335   7.468  13.127  11.884
89168SOL     OW69336   5.001   3.834   8.201
89168SOL    HW169337   5.031   3.915   8.242
89168SOL    HW269338   5.074   3.807   8.144
89169SOL     OW69339   1.994   7.983  12.002
89169SOL    HW169340   2.010   7.944  12.088
89169SOL    HW269341   1.905   8.016  12.006
89170SOL     OW69342  10.298   8.309   8.767
89170SOL    HW169343  10.389   8.289   8.786
89170SOL    HW269344  10.302   8.383   8.707
89171SOL     OW69345   8.155  11.192  11.845
89171SOL    HW169346   8.239  11.196  11.889
89171SOL    HW269347   8.094  11.159  11.911
89172SOL     OW69348   9.197  10.453  13.016
89172SOL    HW169349   9.274  10.417  13.060
89172SOL    HW269350   9.185  10.398  12.940
89173SOL     OW69351   0.327  11.504   1.121
89173SOL    HW169352   0.238  11.538   1.124
89173SOL    HW269353   0.381  11.575   1.155
89174SOL     OW69354  14.809   3.173   9.081
89174SOL    HW169355  14.863   3.108   9.125
89174SOL    HW269356  14.721   3.134   9.079
89175SOL     OW69357  11.707   6.842   3.621
89175SOL    HW169358  11.620   6.880   3.629
89175SOL    HW269359  11.709   6.805   3.532
89176SOL     OW69360  14.172   3.162   9.216
89176SOL    HW169361  14.246   3.190   9.161
89176SOL    HW269362  14.193   3.197   9.303
89177SOL     OW69363  10.549   9.867   7.033
89177SOL    HW169364  10.492   9.903   6.965
89177SOL    HW269365  10.633   9.856   6.990
89178SOL     OW69366   4.610   9.214  12.911
89178SOL    HW169367   4.704   9.196  12.905
89178SOL    HW269368   4.597   9.291  12.856
89179SOL     OW69369   6.156  10.891   1.665
89179SOL    HW169370   6.198  10.854   1.742
89179SOL    HW269371   6.187  10.981   1.661
89180SOL     OW69372   6.951  12.534   7.042
89180SOL    HW169373   6.857  12.540   7.025
89180SOL    HW269374   6.961  12.454   7.094
89181SOL     OW69375   8.303   9.337   3.803
89181SOL    HW169376   8.221   9.386   3.791
89181SOL    HW269377   8.326   9.308   3.715
89182SOL     OW69378   1.171   2.513  10.790
89182SOL    HW169379   1.165   2.432  10.842
89182SOL    HW269380   1.226   2.488  10.716
89183SOL     OW69381   6.884   4.618   9.954
89183SOL    HW169382   6.945   4.548   9.979
89183SOL    HW269383   6.829   4.580   9.886
89184SOL     OW69384  10.108   2.825   0.390
89184SOL    HW169385  10.106   2.883   0.314
89184SOL    HW269386  10.201   2.819   0.414
89185SOL     OW69387   3.919  13.552   8.351
89185SOL    HW169388   3.857  13.496   8.397
89185SOL    HW269389   3.965  13.599   8.421
89186SOL     OW69390   1.284   6.916   8.286
89186SOL    HW169391   1.257   6.825   8.295
89186SOL    HW269392   1.375   6.917   8.315
89187SOL     OW69393   6.146  11.144   5.093
89187SOL    HW169394   6.207  11.135   5.020
89187SOL    HW269395   6.202  11.157   5.169
89188SOL     OW69396  11.190  12.166   4.362
89188SOL    HW169397  11.239  12.093   4.326
89188SOL    HW269398  11.255  12.235   4.373
89189SOL     OW69399   5.240  10.377   0.226
89189SOL    HW169400   5.221  10.428   0.306
89189SOL    HW269401   5.261  10.290   0.258
89190SOL     OW69402   2.584   0.805   8.794
89190SOL    HW169403   2.557   0.877   8.851
89190SOL    HW269404   2.630   0.848   8.722
89191SOL     OW69405   9.843  11.324   5.816
89191SOL    HW169406   9.874  11.332   5.726
89191SOL    HW269407   9.769  11.263   5.810
89192SOL     OW69408  11.968  10.895   7.356
89192SOL    HW169409  11.905  10.828   7.328
89192SOL    HW269410  12.002  10.862   7.440
89193SOL     OW69411   6.440   3.088   5.012
89193SOL    HW169412   6.428   2.994   5.026
89193SOL    HW269413   6.352   3.125   5.024
89194SOL     OW69414  13.071   2.370   9.272
89194SOL    HW169415  12.988   2.386   9.317
89194SOL    HW269416  13.062   2.418   9.189
89195SOL     OW69417   0.313  10.109  12.004
89195SOL    HW169418   0.226  10.071  12.013
89195SOL    HW269419   0.298  10.203  11.998
89196SOL     OW69420   2.041  11.299  12.154
89196SOL    HW169421   2.081  11.220  12.117
89196SOL    HW269422   2.064  11.296  12.247
89197SOL     OW69423  13.050   9.751   8.004
89197SOL    HW169424  13.098   9.678   7.964
89197SOL    HW269425  13.012   9.799   7.931
89198SOL     OW69426   1.025   5.920   5.062
89198SOL    HW169427   1.033   5.825   5.066
89198SOL    HW269428   0.959   5.936   4.995
89199SOL     OW69429   7.118   7.541   3.555
89199SOL    HW169430   7.037   7.538   3.606
89199SOL    HW269431   7.173   7.605   3.600
89200SOL     OW69432   3.875  10.103   8.342
89200SOL    HW169433   3.964  10.092   8.377
89200SOL    HW269434   3.868  10.037   8.273
89201SOL     OW69435   4.011   5.101  14.161
89201SOL    HW169436   4.043   5.168  14.100
89201SOL    HW269437   3.944   5.145  14.212
89202SOL     OW69438   5.945   6.312  14.755
89202SOL    HW169439   5.926   6.244  14.691
89202SOL    HW269440   5.910   6.392  14.716
89203SOL     OW69441   1.374   7.595   0.790
89203SOL    HW169442   1.381   7.536   0.865
89203SOL    HW269443   1.456   7.582   0.741
89204SOL     OW69444   9.117  14.470   2.551
89204SOL    HW169445   9.058  14.397   2.532
89204SOL    HW269446   9.065  14.530   2.604
89205SOL     OW69447   6.208  10.811   0.802
89205SOL    HW169448   6.264  10.888   0.799
89205SOL    HW269449   6.221  10.774   0.889
89206SOL     OW69450  14.039   6.849   1.985
89206SOL    HW169451  14.064   6.843   2.077
89206SOL    HW269452  13.944   6.838   1.986
89207SOL     OW69453  11.623   7.775   0.863
89207SOL    HW169454  11.616   7.834   0.788
89207SOL    HW269455  11.717   7.774   0.884
89208SOL     OW69456   0.382   0.682   7.902
89208SOL    HW169457   0.372   0.628   7.981
89208SOL    HW269458   0.343   0.629   7.832
89209SOL     OW69459   6.741   8.131  10.643
89209SOL    HW169460   6.799   8.202  10.614
89209SOL    HW269461   6.664   8.139  10.588
89210SOL     OW69462  13.979   6.491   7.724
89210SOL    HW169463  13.905   6.484   7.784
89210SOL    HW269464  13.960   6.427   7.655
89211SOL     OW69465   5.089   4.621   9.645
89211SOL    HW169466   5.134   4.615   9.729
89211SOL    HW269467   5.058   4.712   9.642
89212SOL     OW69468  11.015  12.484   4.485
89212SOL    HW169469  10.962  12.448   4.414
89212SOL    HW269470  11.096  12.512   4.442
89213SOL     OW69471   7.869  12.425   7.208
89213SOL    HW169472   7.859  12.433   7.303
89213SOL    HW269473   7.877  12.331   7.193
89214SOL     OW69474  13.328   7.469   6.083
89214SOL    HW169475  13.357   7.515   6.004
89214SOL    HW269476  13.408   7.444   6.128
89215SOL     OW69477  10.903   6.699  11.104
89215SOL    HW169478  10.963   6.696  11.179
89215SOL    HW269479  10.846   6.773  11.122
89216SOL     OW69480  11.973  14.035   4.776
89216SOL    HW169481  11.994  13.980   4.701
89216SOL    HW269482  12.031  14.004   4.845
89217SOL     OW69483   5.630  11.093   2.915
89217SOL    HW169484   5.605  11.171   2.866
89217SOL    HW269485   5.695  11.050   2.860
89218SOL     OW69486   4.669  10.916   1.523
89218SOL    HW169487   4.691  10.992   1.471
89218SOL    HW269488   4.750  10.866   1.528
89219SOL     OW69489   1.945  13.368   8.294
89219SOL    HW169490   1.931  13.289   8.347
89219SOL    HW269491   2.023  13.350   8.242
89220SOL     OW69492   5.920   8.203   6.901
89220SOL    HW169493   5.904   8.177   6.992
89220SOL    HW269494   6.011   8.180   6.885
89221SOL     OW69495   8.084   8.505  14.788
89221SOL    HW169496   8.019   8.544  14.846
89221SOL    HW269497   8.167   8.518  14.834
89222SOL     OW69498   8.483   1.488   9.893
89222SOL    HW169499   8.545   1.426   9.931
89222SOL    HW269500   8.507   1.492   9.800
89223SOL     OW69501  13.100  10.477  11.838
89223SOL    HW169502  13.140  10.564  11.829
89223SOL    HW269503  13.103  10.441  11.749
89224SOL     OW69504   9.778   4.490  10.956
89224SOL    HW169505   9.758   4.531  10.872
89224SOL    HW269506   9.727   4.540  11.020
89225SOL     OW69507   3.659  11.021   1.877
89225SOL    HW169508   3.584  11.078   1.856
89225SOL    HW269509   3.649  10.947   1.817
89226SOL     OW69510   6.459   3.480   3.500
89226SOL    HW169511   6.457   3.425   3.578
89226SOL    HW269512   6.538   3.451   3.452
89227SOL     OW69513  12.182   1.397   3.223
89227SOL    HW169514  12.200   1.322   3.280
89227SOL    HW269515  12.094   1.425   3.249
89228SOL     OW69516  12.222   3.553  11.252
89228SOL    HW169517  12.283   3.618  11.286
89228SOL    HW269518  12.135   3.587  11.274
89229SOL     OW69519  10.266   4.679   7.708
89229SOL    HW169520  10.202   4.642   7.648
89229SOL    HW269521  10.333   4.611   7.717
89230SOL     OW69522   0.268   3.002  11.677
89230SOL    HW169523   0.271   2.996  11.773
89230SOL    HW269524   0.277   3.096  11.659
89231SOL     OW69525  10.741   1.558   9.023
89231SOL    HW169526  10.744   1.480   9.078
89231SOL    HW269527  10.801   1.620   9.065
89232SOL     OW69528  14.773  10.437  14.709
89232SOL    HW169529  14.839  10.479  14.764
89232SOL    HW269530  14.689  10.463  14.749
89233SOL     OW69531   6.172   0.390   2.636
89233SOL    HW169532   6.089   0.376   2.681
89233SOL    HW269533   6.192   0.305   2.596
89234SOL     OW69534   2.074   8.523  12.986
89234SOL    HW169535   2.037   8.449  13.033
89234SOL    HW269536   2.014   8.539  12.914
89235SOL     OW69537  13.723  12.589   7.082
89235SOL    HW169538  13.675  12.656   7.033
89235SOL    HW269539  13.655  12.534   7.120
89236SOL     OW69540   7.631   8.785  14.061
89236SOL    HW169541   7.711   8.738  14.040
89236SOL    HW269542   7.657   8.847  14.130
89237SOL     OW69543   2.286   9.001   9.060
89237SOL    HW169544   2.287   9.063   8.987
89237SOL    HW269545   2.249   9.051   9.133
89238SOL     OW69546   6.239   0.516  10.875
89238SOL    HW169547   6.169   0.547  10.933
89238SOL    HW269548   6.319   0.525  10.926
89239SOL     OW69549   2.455   6.850  12.729
89239SOL    HW169550   2.426   6.934  12.765
89239SOL    HW269551   2.549   6.861  12.715
89240SOL     OW69552  14.083   5.894   5.158
89240SOL    HW169553  14.164   5.866   5.200
89240SOL    HW269554  14.046   5.815   5.120
89241SOL     OW69555  12.068  14.229  14.106
89241SOL    HW169556  12.086  14.141  14.071
89241SOL    HW269557  12.029  14.213  14.192
89242SOL     OW69558  11.079   3.149  11.573
89242SOL    HW169559  11.006   3.134  11.633
89242SOL    HW269560  11.152   3.102  11.613
89243SOL     OW69561   5.248   3.808  10.480
89243SOL    HW169562   5.273   3.824  10.571
89243SOL    HW269563   5.316   3.852  10.429
89244SOL     OW69564   8.190   0.733  10.858
89244SOL    HW169565   8.140   0.652  10.852
89244SOL    HW269566   8.143   0.795  10.803
89245SOL     OW69567   3.968   0.321   8.944
89245SOL    HW169568   3.950   0.358   8.858
89245SOL    HW269569   4.022   0.386   8.988
89246SOL     OW69570  11.082   2.229   9.357
89246SOL    HW169571  11.055   2.318   9.380
89246SOL    HW269572  11.013   2.173   9.391
89247SOL     OW69573   2.301  11.711  10.275
89247SOL    HW169574   2.295  11.670  10.188
89247SOL    HW269575   2.213  11.702  10.311
89248SOL     OW69576   7.007  12.209   3.460
89248SOL    HW169577   7.041  12.283   3.511
89248SOL    HW269578   7.084  12.157   3.439
89249SOL     OW69579  13.629   1.366  11.513
89249SOL    HW169580  13.719   1.396  11.507
89249SOL    HW269581  13.636   1.278  11.552
89250SOL     OW69582  13.834   8.024   8.729
89250SOL    HW169583  13.866   7.970   8.657
89250SOL    HW269584  13.741   8.035   8.712
89251SOL     OW69585   5.316   7.492   8.990
89251SOL    HW169586   5.368   7.451   8.921
89251SOL    HW269587   5.359   7.576   9.006
89252SOL     OW69588   0.944  11.889   0.940
89252SOL    HW169589   0.967  11.872   0.849
89252SOL    HW269590   0.931  11.984   0.945
89253SOL     OW69591   3.794  11.581  11.485
89253SOL    HW169592   3.865  11.547  11.430
89253SOL    HW269593   3.726  11.606  11.422
89254SOL     OW69594   2.074   3.309   6.667
89254SOL    HW169595   2.004   3.369   6.693
89254SOL    HW269596   2.122   3.292   6.748
89255SOL     OW69597   5.227   6.126  12.036
89255SOL    HW169598   5.187   6.053  11.989
89255SOL    HW269599   5.164   6.149  12.104
89256SOL     OW69600   1.346   4.966   1.973
89256SOL    HW169601   1.356   5.025   1.899
89256SOL    HW269602   1.253   4.971   1.996
89257SOL     OW69603   3.087   0.159   4.999
89257SOL    HW169604   3.077   0.064   5.005
89257SOL    HW269605   3.149   0.172   4.927
89258SOL     OW69606   6.711   4.948  14.065
89258SOL    HW169607   6.715   4.995  13.981
89258SOL    HW269608   6.650   4.876  14.049
89259SOL     OW69609   2.040   8.935   8.841
89259SOL    HW169610   2.046   8.852   8.888
89259SOL    HW269611   1.961   8.977   8.877
89260SOL     OW69612  10.707   5.782   1.707
89260SOL    HW169613  10.702   5.862   1.759
89260SOL    HW269614  10.694   5.711   1.769
89261SOL     OW69615   8.293   0.946  11.945
89261SOL    HW169616   8.378   0.948  11.988
89261SOL    HW269617   8.233   0.911  12.011
89262SOL     OW69618  14.656   2.958   9.805
89262SOL    HW169619  14.574   2.941   9.850
89262SOL    HW269620  14.715   2.889   9.835
89263SOL     OW69621   0.217   0.729  11.361
89263SOL    HW169622   0.281   0.787  11.319
89263SOL    HW269623   0.269   0.676  11.421
89264SOL     OW69624   1.933  14.361   5.055
89264SOL    HW169625   1.963  14.438   5.006
89264SOL    HW269626   1.923  14.393   5.145
89265SOL     OW69627   3.194  10.020  11.481
89265SOL    HW169628   3.284  10.029  11.450
89265SOL    HW269629   3.148  10.097  11.446
89266SOL     OW69630   9.615   4.007   6.799
89266SOL    HW169631   9.676   4.079   6.815
89266SOL    HW269632   9.547   4.044   6.743
89267SOL     OW69633   9.907   3.831   9.124
89267SOL    HW169634   9.985   3.864   9.168
89267SOL    HW269635   9.938   3.759   9.069
89268SOL     OW69636   6.893   8.035   6.336
89268SOL    HW169637   6.969   7.981   6.315
89268SOL    HW269638   6.927   8.124   6.341
89269SOL     OW69639   4.017   8.185  11.840
89269SOL    HW169640   4.018   8.268  11.887
89269SOL    HW269641   4.031   8.118  11.907
89270SOL     OW69642   7.821   4.754   4.363
89270SOL    HW169643   7.726   4.748   4.359
89270SOL    HW269644   7.842   4.754   4.456
89271SOL     OW69645   3.264  10.509   2.218
89271SOL    HW169646   3.262  10.523   2.123
89271SOL    HW269647   3.216  10.585   2.254
89272SOL     OW69648  11.515   0.658   8.025
89272SOL    HW169649  11.463   0.611   7.960
89272SOL    HW269650  11.595   0.607   8.033
89273SOL     OW69651  14.162  12.697   4.010
89273SOL    HW169652  14.206  12.783   4.014
89273SOL    HW269653  14.074  12.714   4.044
89274SOL     OW69654   7.262   5.447   3.749
89274SOL    HW169655   7.172   5.454   3.780
89274SOL    HW269656   7.294   5.364   3.785
89275SOL     OW69657   1.572   2.744   5.263
89275SOL    HW169658   1.667   2.749   5.254
89275SOL    HW269659   1.557   2.738   5.358
89276SOL     OW69660  14.837   1.583  10.166
89276SOL    HW169661  14.805   1.660  10.118
89276SOL    HW269662   0.050   1.603  10.183
89277SOL     OW69663  13.176   9.778  12.870
89277SOL    HW169664  13.270   9.769  12.856
89277SOL    HW269665  13.158   9.870  12.854
89278SOL     OW69666   9.345  12.186   3.582
89278SOL    HW169667   9.333  12.098   3.617
89278SOL    HW269668   9.409  12.227   3.640
89279SOL     OW69669  14.393  12.071  12.568
89279SOL    HW169670  14.309  12.063  12.613
89279SOL    HW269671  14.409  11.984  12.531
89280SOL     OW69672   7.740  14.021  14.188
89280SOL    HW169673   7.733  14.033  14.093
89280SOL    HW269674   7.665  14.068  14.224
89281SOL     OW69675   1.689   6.916  11.642
89281SOL    HW169676   1.667   6.956  11.726
89281SOL    HW269677   1.681   6.988  11.579
89282SOL     OW69678  13.077   7.225   3.693
89282SOL    HW169679  13.050   7.177   3.615
89282SOL    HW269680  13.123   7.302   3.658
89283SOL     OW69681   4.009  13.137   7.533
89283SOL    HW169682   3.967  13.085   7.465
89283SOL    HW269683   4.049  13.210   7.486
89284SOL     OW69684  13.680   1.869   5.607
89284SOL    HW169685  13.636   1.915   5.535
89284SOL    HW269686  13.773   1.875   5.586
89285SOL     OW69687   8.515   0.726   2.463
89285SOL    HW169688   8.568   0.649   2.485
89285SOL    HW269689   8.426   0.693   2.458
89286SOL     OW69690  10.370  10.987  12.946
89286SOL    HW169691  10.365  10.993  13.041
89286SOL    HW269692  10.279  10.997  12.917
89287SOL     OW69693   7.383  10.891  12.407
89287SOL    HW169694   7.461  10.902  12.462
89287SOL    HW269695   7.417  10.864  12.322
89288SOL     OW69696  10.973   9.448   0.032
89288SOL    HW169697  10.933   9.364   0.052
89288SOL    HW269698  11.058   9.446   0.076
89289SOL     OW69699  10.342  12.881   6.454
89289SOL    HW169700  10.358  12.946   6.385
89289SOL    HW269701  10.251  12.896   6.480
89290SOL     OW69702   8.198   9.670  14.550
89290SOL    HW169703   8.247   9.601  14.504
89290SOL    HW269704   8.117   9.626  14.578
89291SOL     OW69705   2.737   4.225   4.587
89291SOL    HW169706   2.706   4.297   4.642
89291SOL    HW269707   2.735   4.149   4.646
89292SOL     OW69708  12.622   8.656   5.054
89292SOL    HW169709  12.595   8.630   5.142
89292SOL    HW269710  12.588   8.587   4.997
89293SOL     OW69711   4.744   1.639   9.321
89293SOL    HW169712   4.677   1.574   9.300
89293SOL    HW269713   4.813   1.624   9.257
89294SOL     OW69714   0.936  10.165  12.145
89294SOL    HW169715   1.015  10.190  12.097
89294SOL    HW269716   0.967  10.105  12.213
89295SOL     OW69717   2.068   1.108   1.138
89295SOL    HW169718   2.114   1.161   1.203
89295SOL    HW269719   2.083   1.153   1.055
89296SOL     OW69720   7.378   3.936   3.139
89296SOL    HW169721   7.323   4.010   3.110
89296SOL    HW269722   7.455   3.940   3.082
89297SOL     OW69723  12.059   0.830  11.251
89297SOL    HW169724  11.974   0.786  11.238
89297SOL    HW269725  12.104   0.817  11.168
89298SOL     OW69726  10.620  14.330   4.965
89298SOL    HW169727  10.598  14.419   4.937
89298SOL    HW269728  10.699  14.340   5.017
89299SOL     OW69729   9.808  10.010   3.624
89299SOL    HW169730   9.806   9.954   3.546
89299SOL    HW269731   9.815   9.949   3.697
89300SOL     OW69732   6.189   7.813  12.995
89300SOL    HW169733   6.159   7.884  12.939
89300SOL    HW269734   6.280   7.799  12.970
89301SOL     OW69735   3.597   9.645   7.363
89301SOL    HW169736   3.578   9.737   7.380
89301SOL    HW269737   3.632   9.612   7.446
89302SOL     OW69738   6.806   1.820  14.068
89302SOL    HW169739   6.823   1.891  14.005
89302SOL    HW269740   6.772   1.864  14.146
89303SOL     OW69741   5.557  10.484   0.090
89303SOL    HW169742   5.473  10.470   0.048
89303SOL    HW269743   5.612  10.411   0.061
89304SOL     OW69744  12.523   6.669   0.007
89304SOL    HW169745  12.446   6.621  14.858
89304SOL    HW269746  12.495   6.714   0.087
89305SOL     OW69747   1.301   7.211   1.186
89305SOL    HW169748   1.224   7.155   1.176
89305SOL    HW269749   1.274   7.296   1.151
89306SOL     OW69750   3.666   2.173   1.795
89306SOL    HW169751   3.579   2.164   1.757
89306SOL    HW269752   3.722   2.117   1.741
89307SOL     OW69753   6.116   0.911   1.034
89307SOL    HW169754   6.167   0.839   1.071
89307SOL    HW269755   6.153   0.990   1.073
89308SOL     OW69756   3.448   0.601   4.027
89308SOL    HW169757   3.519   0.590   4.089
89308SOL    HW269758   3.385   0.658   4.072
89309SOL     OW69759   4.371   2.266   7.546
89309SOL    HW169760   4.320   2.327   7.493
89309SOL    HW269761   4.395   2.196   7.485
89310SOL     OW69762   5.946   4.482   8.005
89310SOL    HW169763   5.989   4.484   8.090
89310SOL    HW269764   5.929   4.574   7.986
89311SOL     OW69765   3.291   4.197  11.817
89311SOL    HW169766   3.201   4.187  11.846
89311SOL    HW269767   3.287   4.187  11.722
89312SOL     OW69768   7.647  11.006  11.860
89312SOL    HW169769   7.565  11.052  11.839
89312SOL    HW269770   7.633  10.917  11.827
89313SOL     OW69771  10.401   2.369  12.879
89313SOL    HW169772  10.461   2.366  12.953
89313SOL    HW269773  10.387   2.463  12.863
89314SOL     OW69774  14.632  11.595   6.950
89314SOL    HW169775  14.582  11.556   6.879
89314SOL    HW269776  14.587  11.676   6.970
89315SOL     OW69777   1.752  14.714   3.793
89315SOL    HW169778   1.845  14.695   3.791
89315SOL    HW269779   1.715  14.662   3.721
89316SOL     OW69780  12.466   7.649   9.211
89316SOL    HW169781  12.518   7.687   9.282
89316SOL    HW269782  12.400   7.596   9.255
89317SOL     OW69783   8.000   0.942   9.400
89317SOL    HW169784   7.963   1.004   9.337
89317SOL    HW269785   7.924   0.910   9.449
89318SOL     OW69786   3.976   2.567  14.599
89318SOL    HW169787   3.950   2.605  14.683
89318SOL    HW269788   4.004   2.641  14.546
89319SOL     OW69789   2.783   2.292   7.476
89319SOL    HW169790   2.868   2.331   7.455
89319SOL    HW269791   2.801   2.199   7.485
89320SOL     OW69792   2.817   6.481  13.579
89320SOL    HW169793   2.751   6.418  13.551
89320SOL    HW269794   2.769   6.563  13.590
89321SOL     OW69795   0.944   9.197   6.335
89321SOL    HW169796   0.942   9.278   6.284
89321SOL    HW269797   0.875   9.143   6.297
89322SOL     OW69798  11.842  14.291   7.065
89322SOL    HW169799  11.888  14.327   6.990
89322SOL    HW269800  11.910  14.251   7.119
89323SOL     OW69801  14.547   6.127   5.529
89323SOL    HW169802  14.458   6.161   5.540
89323SOL    HW269803  14.579   6.171   5.451
89324SOL     OW69804   6.620   8.134   2.867
89324SOL    HW169805   6.672   8.054   2.860
89324SOL    HW269806   6.684   8.203   2.882
89325SOL     OW69807   5.775   6.492   6.241
89325SOL    HW169808   5.808   6.438   6.313
89325SOL    HW269809   5.854   6.529   6.201
89326SOL     OW69810   2.163   5.242   3.787
89326SOL    HW169811   2.071   5.267   3.784
89326SOL    HW269812   2.203   5.287   3.712
89327SOL     OW69813   7.345   1.806  12.541
89327SOL    HW169814   7.339   1.824  12.635
89327SOL    HW269815   7.363   1.892  12.502
89328SOL     OW69816  10.060   1.060   0.967
89328SOL    HW169817  10.021   1.033   1.050
89328SOL    HW269818  10.107   1.141   0.989
89329SOL     OW69819  13.284  12.817  11.502
89329SOL    HW169820  13.269  12.853  11.415
89329SOL    HW269821  13.379  12.802  11.506
89330SOL     OW69822  12.031   2.874   7.393
89330SOL    HW169823  12.097   2.876   7.462
89330SOL    HW269824  12.061   2.806   7.333
89331SOL     OW69825   9.505  13.180   1.188
89331SOL    HW169826   9.477  13.202   1.100
89331SOL    HW269827   9.589  13.226   1.199
89332SOL     OW69828   9.200   9.996   5.560
89332SOL    HW169829   9.214   9.955   5.645
89332SOL    HW269830   9.200  10.090   5.578
89333SOL     OW69831  13.340  14.172   9.535
89333SOL    HW169832  13.359  14.192   9.627
89333SOL    HW269833  13.337  14.257   9.491
89334SOL     OW69834   6.892   2.399   9.332
89334SOL    HW169835   6.879   2.463   9.261
89334SOL    HW269836   6.966   2.434   9.382
89335SOL     OW69837   4.184  12.792   8.067
89335SOL    HW169838   4.134  12.748   7.998
89335SOL    HW269839   4.222  12.868   8.023
89336SOL     OW69840   1.389   8.485  12.208
89336SOL    HW169841   1.457   8.418  12.208
89336SOL    HW269842   1.347   8.477  12.122
89337SOL     OW69843  14.442   2.211   2.716
89337SOL    HW169844  14.487   2.295   2.701
89337SOL    HW269845  14.351   2.228   2.689
89338SOL     OW69846  13.866  12.612   1.584
89338SOL    HW169847  13.901  12.649   1.502
89338SOL    HW269848  13.871  12.518   1.572
89339SOL     OW69849   2.242   9.613   6.669
89339SOL    HW169850   2.249   9.693   6.723
89339SOL    HW269851   2.328   9.606   6.628
89340SOL     OW69852   1.279  11.640   0.619
89340SOL    HW169853   1.214  11.614   0.553
89340SOL    HW269854   1.258  11.586   0.696
89341SOL     OW69855   1.288   0.343   1.249
89341SOL    HW169856   1.254   0.317   1.163
89341SOL    HW269857   1.223   0.405   1.282
89342SOL     OW69858   2.050   1.782   8.114
89342SOL    HW169859   2.043   1.695   8.075
89342SOL    HW269860   2.021   1.771   8.205
89343SOL     OW69861   1.895   4.122   0.044
89343SOL    HW169862   1.859   4.067  14.853
89343SOL    HW269863   1.949   4.186  14.877
89344SOL     OW69864  12.120   1.982   4.503
89344SOL    HW169865  12.091   1.903   4.457
89344SOL    HW269866  12.062   2.051   4.469
89345SOL     OW69867   0.869   2.586   9.062
89345SOL    HW169868   0.922   2.521   9.018
89345SOL    HW269869   0.780   2.572   9.030
89346SOL     OW69870   1.331   9.748   7.233
89346SOL    HW169871   1.342   9.653   7.232
89346SOL    HW269872   1.238   9.762   7.220
89347SOL     OW69873  11.731   8.792  12.216
89347SOL    HW169874  11.772   8.873  12.248
89347SOL    HW269875  11.784   8.767  12.141
89348SOL     OW69876   6.584   1.328   3.961
89348SOL    HW169877   6.622   1.263   3.902
89348SOL    HW269878   6.656   1.388   3.979
89349SOL     OW69879   4.813   1.710   9.857
89349SOL    HW169880   4.877   1.750   9.916
89349SOL    HW269881   4.799   1.622   9.892
89350SOL     OW69882   4.695  13.138   3.962
89350SOL    HW169883   4.633  13.193   3.915
89350SOL    HW269884   4.714  13.187   4.042
89351SOL     OW69885   6.348   1.572   4.614
89351SOL    HW169886   6.383   1.496   4.659
89351SOL    HW269887   6.379   1.563   4.524
89352SOL     OW69888   2.585   2.290  10.390
89352SOL    HW169889   2.554   2.211  10.436
89352SOL    HW269890   2.675   2.301  10.421
89353SOL     OW69891  13.566   2.310   0.751
89353SOL    HW169892  13.617   2.248   0.804
89353SOL    HW269893  13.511   2.255   0.695
89354SOL     OW69894  10.427   3.360   2.822
89354SOL    HW169895  10.357   3.307   2.782
89354SOL    HW269896  10.398   3.451   2.809
89355SOL     OW69897  11.991   7.582   7.405
89355SOL    HW169898  12.062   7.537   7.358
89355SOL    HW269899  11.930   7.513   7.428
89356SOL     OW69900   4.632   9.436   1.614
89356SOL    HW169901   4.574   9.362   1.632
89356SOL    HW269902   4.692   9.438   1.689
89357SOL     OW69903   2.913   2.421   4.203
89357SOL    HW169904   2.986   2.367   4.232
89357SOL    HW269905   2.869   2.369   4.135
89358SOL     OW69906   4.676   6.178  11.046
89358SOL    HW169907   4.697   6.271  11.049
89358SOL    HW269908   4.751   6.135  11.088
89359SOL     OW69909   2.693   0.603   8.229
89359SOL    HW169910   2.759   0.540   8.258
89359SOL    HW269911   2.716   0.622   8.138
89360SOL     OW69912   6.335   6.067  14.657
89360SOL    HW169913   6.411   6.010  14.663
89360SOL    HW269914   6.315   6.070  14.563
89361SOL     OW69915  10.468   0.235   5.195
89361SOL    HW169916  10.478   0.283   5.278
89361SOL    HW269917  10.376   0.209   5.193
89362SOL     OW69918  13.752   2.058   0.091
89362SOL    HW169919  13.813   2.009   0.036
89362SOL    HW269920  13.780   2.150   0.081
89363SOL     OW69921   5.016   9.755   7.149
89363SOL    HW169922   5.055   9.782   7.065
89363SOL    HW269923   5.087   9.767   7.213
89364SOL     OW69924  14.552   3.351   1.632
89364SOL    HW169925  14.480   3.374   1.691
89364SOL    HW269926  14.543   3.411   1.558
89365SOL     OW69927   2.781   6.965   1.367
89365SOL    HW169928   2.850   6.938   1.427
89365SOL    HW269929   2.705   6.981   1.422
89366SOL     OW69930   9.623  13.930  10.848
89366SOL    HW169931   9.558  13.983  10.804
89366SOL    HW269932   9.657  13.986  10.918
89367SOL     OW69933   9.292   2.753  13.600
89367SOL    HW169934   9.359   2.758  13.531
89367SOL    HW269935   9.232   2.684  13.569
89368SOL     OW69936   1.662   4.388   4.179
89368SOL    HW169937   1.589   4.436   4.218
89368SOL    HW269938   1.740   4.425   4.220
89369SOL     OW69939  11.582  12.717   2.018
89369SOL    HW169940  11.601  12.663   2.095
89369SOL    HW269941  11.534  12.792   2.053
89370SOL     OW69942   4.579  10.612   6.924
89370SOL    HW169943   4.622  10.691   6.890
89370SOL    HW269944   4.628  10.591   7.004
89371SOL     OW69945   6.904  14.837  13.320
89371SOL    HW169946   6.945  14.751  13.322
89371SOL    HW269947   6.850  14.840  13.398
89372SOL     OW69948   0.888  12.025   7.598
89372SOL    HW169949   0.798  12.000   7.577
89372SOL    HW269950   0.880  12.112   7.638
89373SOL     OW69951   7.114  13.304   2.731
89373SOL    HW169952   7.085  13.316   2.822
89373SOL    HW269953   7.059  13.235   2.697
89374SOL     OW69954  14.707  12.907   4.470
89374SOL    HW169955  14.680  12.923   4.379
89374SOL    HW269956  14.777  12.843   4.464
89375SOL     OW69957   0.089   9.667  11.104
89375SOL    HW169958   0.038   9.711  11.172
89375SOL    HW269959   0.037   9.679  11.024
89376SOL     OW69960   3.378  13.390   4.362
89376SOL    HW169961   3.320  13.466   4.369
89376SOL    HW269962   3.404  13.372   4.453
89377SOL     OW69963   7.489   9.002   5.433
89377SOL    HW169964   7.487   9.059   5.509
89377SOL    HW269965   7.487   9.062   5.358
89378SOL     OW69966  13.763   2.634   2.517
89378SOL    HW169967  13.739   2.720   2.550
89378SOL    HW269968  13.733   2.634   2.426
89379SOL     OW69969   4.181  11.509   2.021
89379SOL    HW169970   4.162  11.579   1.959
89379SOL    HW269971   4.276  11.513   2.033
89380SOL     OW69972  11.893   3.826   2.431
89380SOL    HW169973  11.837   3.813   2.507
89380SOL    HW269974  11.969   3.874   2.465
89381SOL     OW69975  10.620  10.701  11.944
89381SOL    HW169976  10.543  10.753  11.966
89381SOL    HW269977  10.694  10.761  11.954
89382SOL     OW69978  13.081   0.898   9.641
89382SOL    HW169979  13.043   0.959   9.703
89382SOL    HW269980  13.054   0.929   9.555
89383SOL     OW69981   6.444  13.332  12.214
89383SOL    HW169982   6.358  13.315  12.176
89383SOL    HW269983   6.467  13.251  12.259
89384SOL     OW69984   5.851  14.809   2.881
89384SOL    HW169985   5.826  14.862   2.805
89384SOL    HW269986   5.839  14.868   2.955
89385SOL     OW69987  14.337   2.689   0.907
89385SOL    HW169988  14.348   2.620   0.841
89385SOL    HW269989  14.288   2.757   0.862
89386SOL     OW69990   2.868   8.650   3.315
89386SOL    HW169991   2.801   8.717   3.303
89386SOL    HW269992   2.820   8.573   3.345
89387SOL     OW69993   3.914   3.808   7.100
89387SOL    HW169994   3.828   3.845   7.120
89387SOL    HW269995   3.895   3.727   7.053
89388SOL     OW69996  10.279  11.987  12.209
89388SOL    HW169997  10.211  12.006  12.274
89388SOL    HW269998  10.311  12.073  12.181
89389SOL     OW69999   4.505   9.591   1.361
89389SOL    HW170000   4.513   9.686   1.373
89389SOL    HW270001   4.526   9.554   1.447
89390SOL     OW70002  12.069  14.731   0.145
89390SOL    HW170003  11.991  14.784   0.160
89390SOL    HW270004  12.043  14.642   0.170
89391SOL     OW70005  11.775   8.952   7.370
89391SOL    HW170006  11.837   9.012   7.329
89391SOL    HW270007  11.814   8.865   7.357
89392SOL     OW70008  11.820  11.008   5.983
89392SOL    HW170009  11.825  10.936   5.921
89392SOL    HW270010  11.849  10.971   6.067
89393SOL     OW70011  12.479  13.190   8.184
89393SOL    HW170012  12.475  13.243   8.264
89393SOL    HW270013  12.471  13.253   8.113
89394SOL     OW70014   8.474   8.801   6.318
89394SOL    HW170015   8.434   8.878   6.359
89394SOL    HW270016   8.555   8.834   6.279
89395SOL     OW70017   9.794   1.097  13.671
89395SOL    HW170018   9.749   1.180  13.652
89395SOL    HW270019   9.869   1.096  13.611
89396SOL     OW70020  14.714   6.625   1.957
89396SOL    HW170021  14.695   6.603   1.866
89396SOL    HW270022  14.767   6.552   1.989
89397SOL     OW70023   2.169   4.954  11.804
89397SOL    HW170024   2.150   4.861  11.818
89397SOL    HW270025   2.177   4.991  11.892
89398SOL     OW70026   7.401   8.650   4.937
89398SOL    HW170027   7.426   8.705   5.012
89398SOL    HW270028   7.313   8.620   4.958
89399SOL     OW70029   6.838   9.253  13.394
89399SOL    HW170030   6.843   9.211  13.479
89399SOL    HW270031   6.818   9.183  13.332
89400SOL     OW70032   9.821   3.056   2.271
89400SOL    HW170033   9.843   2.964   2.256
89400SOL    HW270034   9.800   3.091   2.185
89401SOL     OW70035  13.706  13.085   5.915
89401SOL    HW170036  13.672  13.011   5.864
89401SOL    HW270037  13.650  13.087   5.993
89402SOL     OW70038  12.105   1.367   7.858
89402SOL    HW170039  12.105   1.383   7.763
89402SOL    HW270040  12.014   1.352   7.880
89403SOL     OW70041   3.864  11.180  11.153
89403SOL    HW170042   3.943  11.204  11.105
89403SOL    HW270043   3.890  11.107  11.208
89404SOL     OW70044  11.867   6.926   2.031
89404SOL    HW170045  11.828   6.846   1.994
89404SOL    HW270046  11.803   6.994   2.014
89405SOL     OW70047   0.250  13.383  12.608
89405SOL    HW170048   0.345  13.386  12.617
89405SOL    HW270049   0.233  13.409  12.518
89406SOL     OW70050   8.383  10.387   5.073
89406SOL    HW170051   8.306  10.436   5.042
89406SOL    HW270052   8.378  10.391   5.168
89407SOL     OW70053   5.659  13.412  12.025
89407SOL    HW170054   5.748  13.413  11.990
89407SOL    HW270055   5.666  13.364  12.108
89408SOL     OW70056   2.812   7.744   9.463
89408SOL    HW170057   2.781   7.732   9.553
89408SOL    HW270058   2.743   7.708   9.408
89409SOL     OW70059  10.795   0.904   4.397
89409SOL    HW170060  10.821   0.943   4.481
89409SOL    HW270061  10.835   0.961   4.331
89410SOL     OW70062   1.253  13.212   7.418
89410SOL    HW170063   1.344  13.214   7.390
89410SOL    HW270064   1.237  13.120   7.442
89411SOL     OW70065   3.265   0.960   6.782
89411SOL    HW170066   3.213   0.969   6.862
89411SOL    HW270067   3.203   0.973   6.711
89412SOL     OW70068   2.583   1.026   6.902
89412SOL    HW170069   2.541   1.109   6.882
89412SOL    HW270070   2.613   1.035   6.993
89413SOL     OW70071   7.480  11.099   6.914
89413SOL    HW170072   7.530  11.143   6.845
89413SOL    HW270073   7.539  11.099   6.989
89414SOL     OW70074  13.717  11.969   5.507
89414SOL    HW170075  13.760  11.890   5.540
89414SOL    HW270076  13.761  11.988   5.425
89415SOL     OW70077   3.920  13.106  12.653
89415SOL    HW170078   3.978  13.171  12.613
89415SOL    HW270079   3.890  13.148  12.734
89416SOL     OW70080   7.880  10.584   6.862
89416SOL    HW170081   7.837  10.667   6.884
89416SOL    HW270082   7.873  10.578   6.767
89417SOL     OW70083   8.150   2.950  12.184
89417SOL    HW170084   8.091   2.947  12.108
89417SOL    HW270085   8.205   3.027  12.169
89418SOL     OW70086   4.868  10.408   5.501
89418SOL    HW170087   4.858  10.323   5.544
89418SOL    HW270088   4.863  10.389   5.407
89419SOL     OW70089   0.015   6.672   5.188
89419SOL    HW170090  14.810   6.679   5.234
89419SOL    HW270091   0.005   6.595   5.132
89420SOL     OW70092  12.851   1.839  13.357
89420SOL    HW170093  12.893   1.918  13.390
89420SOL    HW270094  12.765   1.869  13.325
89421SOL     OW70095  12.214  11.093   5.033
89421SOL    HW170096  12.152  11.033   4.992
89421SOL    HW270097  12.270  11.123   4.961
89422SOL     OW70098  12.261   5.802  12.670
89422SOL    HW170099  12.248   5.890  12.635
89422SOL    HW270100  12.222   5.744  12.605
89423SOL     OW70101   3.302  12.286   7.066
89423SOL    HW170102   3.376  12.227   7.082
89423SOL    HW270103   3.303  12.301   6.971
89424SOL     OW70104   7.555   5.528   1.814
89424SOL    HW170105   7.541   5.436   1.837
89424SOL    HW270106   7.596   5.567   1.891
89425SOL     OW70107  13.509  11.473   4.578
89425SOL    HW170108  13.470  11.521   4.651
89425SOL    HW270109  13.597  11.509   4.570
89426SOL     OW70110  11.848   2.535  13.531
89426SOL    HW170111  11.840   2.619  13.485
89426SOL    HW270112  11.821   2.469  13.468
89427SOL     OW70113  10.501   1.173   9.973
89427SOL    HW170114  10.471   1.247   9.921
89427SOL    HW270115  10.596   1.176   9.969
89428SOL     OW70116   1.259   1.108   8.367
89428SOL    HW170117   1.308   1.186   8.391
89428SOL    HW270118   1.269   1.049   8.441
89429SOL     OW70119  10.192   9.534  12.258
89429SOL    HW170120  10.218   9.592  12.329
89429SOL    HW270121  10.273   9.493  12.228
89430SOL     OW70122  11.065  13.671   5.748
89430SOL    HW170123  10.990  13.694   5.693
89430SOL    HW270124  11.058  13.576   5.760
89431SOL     OW70125   2.288   5.072   6.876
89431SOL    HW170126   2.296   5.031   6.962
89431SOL    HW270127   2.374   5.058   6.835
89432SOL     OW70128   7.530  12.075   2.671
89432SOL    HW170129   7.566  12.024   2.598
89432SOL    HW270130   7.436  12.071   2.658
89433SOL     OW70131   0.455   4.047   4.535
89433SOL    HW170132   0.462   4.141   4.519
89433SOL    HW270133   0.483   4.036   4.626
89434SOL     OW70134  13.012  13.342   6.072
89434SOL    HW170135  12.935  13.301   6.112
89434SOL    HW270136  13.081  13.276   6.080
89435SOL     OW70137   2.812   5.151  12.029
89435SOL    HW170138   2.781   5.191  12.110
89435SOL    HW270139   2.893   5.198  12.009
89436SOL     OW70140  13.266   6.222   4.731
89436SOL    HW170141  13.325   6.296   4.721
89436SOL    HW270142  13.295   6.178   4.810
89437SOL     OW70143   3.273  12.326   1.427
89437SOL    HW170144   3.335  12.283   1.485
89437SOL    HW270145   3.326  12.390   1.379
89438SOL     OW70146   5.624   3.456   0.810
89438SOL    HW170147   5.677   3.526   0.771
89438SOL    HW270148   5.679   3.421   0.881
89439SOL     OW70149   2.859   6.223   7.851
89439SOL    HW170150   2.897   6.305   7.881
89439SOL    HW270151   2.842   6.173   7.931
89440SOL     OW70152   1.728   3.866   8.368
89440SOL    HW170153   1.732   3.802   8.297
89440SOL    HW270154   1.636   3.890   8.375
89441SOL     OW70155   1.084   8.270   7.237
89441SOL    HW170156   1.174   8.254   7.211
89441SOL    HW270157   1.076   8.366   7.239
89442SOL     OW70158  10.308   0.526   4.536
89442SOL    HW170159  10.332   0.439   4.504
89442SOL    HW270160  10.260   0.566   4.463
89443SOL     OW70161  10.854   2.366   7.598
89443SOL    HW170162  10.931   2.311   7.581
89443SOL    HW270163  10.814   2.329   7.676
89444SOL     OW70164  12.692   4.159   5.223
89444SOL    HW170165  12.744   4.087   5.189
89444SOL    HW270166  12.686   4.221   5.150
89445SOL     OW70167   0.459   9.215   4.822
89445SOL    HW170168   0.547   9.237   4.793
89445SOL    HW270169   0.471   9.182   4.912
89446SOL     OW70170   7.323  10.294  14.456
89446SOL    HW170171   7.235  10.256  14.463
89446SOL    HW270172   7.316  10.377  14.504
89447SOL     OW70173  12.286   1.113  11.994
89447SOL    HW170174  12.313   1.204  11.979
89447SOL    HW270175  12.252   1.084  11.910
89448SOL     OW70176   6.034  10.640   9.245
89448SOL    HW170177   6.019  10.546   9.233
89448SOL    HW270178   6.007  10.679   9.162
89449SOL     OW70179  14.314   0.279   5.664
89449SOL    HW170180  14.393   0.282   5.717
89449SOL    HW270181  14.262   0.209   5.704
89450SOL     OW70182   3.437   4.422  10.350
89450SOL    HW170183   3.356   4.469  10.334
89450SOL    HW270184   3.503   4.490  10.362
89451SOL     OW70185   3.159  10.282   7.802
89451SOL    HW170186   3.152  10.368   7.843
89451SOL    HW270187   3.069  10.258   7.780
89452SOL     OW70188  13.513  11.968   4.247
89452SOL    HW170189  13.457  11.925   4.182
89452SOL    HW270190  13.452  12.016   4.303
89453SOL     OW70191   6.204   9.442  11.045
89453SOL    HW170192   6.166   9.503  10.982
89453SOL    HW270193   6.129   9.392  11.077
89454SOL     OW70194   4.729  13.407  12.808
89454SOL    HW170195   4.821  13.423  12.829
89454SOL    HW270196   4.682  13.423  12.890
89455SOL     OW70197   5.298  13.715   7.939
89455SOL    HW170198   5.380  13.685   7.979
89455SOL    HW270199   5.315  13.711   7.845
89456SOL     OW70200  14.642   4.080   6.681
89456SOL    HW170201  14.690   4.016   6.734
89456SOL    HW270202  14.570   4.109   6.737
89457SOL     OW70203   5.309   3.257   5.134
89457SOL    HW170204   5.289   3.258   5.228
89457SOL    HW270205   5.405   3.259   5.130
89458SOL     OW70206   1.165  14.275   9.928
89458SOL    HW170207   1.228  14.346   9.938
89458SOL    HW270208   1.200  14.203   9.981
89459SOL     OW70209   4.328  10.877   3.998
89459SOL    HW170210   4.273  10.853   3.924
89459SOL    HW270211   4.415  10.844   3.975
89460SOL     OW70212   3.077  13.395   1.420
89460SOL    HW170213   3.159  13.353   1.444
89460SOL    HW270214   3.012  13.324   1.423
89461SOL     OW70215  10.662   5.869   1.221
89461SOL    HW170216  10.667   5.797   1.284
89461SOL    HW270217  10.736   5.925   1.242
89462SOL     OW70218  14.850   4.865   4.858
89462SOL    HW170219   0.058   4.902   4.847
89462SOL    HW270220  14.791   4.933   4.825
89463SOL     OW70221  12.429  14.251   3.843
89463SOL    HW170222  12.365  14.207   3.789
89463SOL    HW270223  12.493  14.183   3.865
89464SOL     OW70224   1.374   0.273  10.394
89464SOL    HW170225   1.451   0.241  10.441
89464SOL    HW270226   1.360   0.361  10.430
89465SOL     OW70227  12.634   3.094  10.528
89465SOL    HW170228  12.687   3.132  10.457
89465SOL    HW270229  12.545   3.123  10.509
89466SOL     OW70230  11.604   8.542  11.020
89466SOL    HW170231  11.681   8.594  11.044
89466SOL    HW270232  11.634   8.451  11.024
89467SOL     OW70233  11.318   8.255   2.684
89467SOL    HW170234  11.340   8.183   2.742
89467SOL    HW270235  11.235   8.229   2.644
89468SOL     OW70236   9.560   8.969   2.126
89468SOL    HW170237   9.638   8.984   2.072
89468SOL    HW270238   9.516   9.054   2.129
89469SOL     OW70239   1.655   4.485   2.771
89469SOL    HW170240   1.685   4.484   2.862
89469SOL    HW270241   1.715   4.427   2.725
89470SOL     OW70242   9.466  12.665  11.890
89470SOL    HW170243   9.442  12.733  11.952
89470SOL    HW270244   9.401  12.673  11.819
89471SOL     OW70245  13.260  13.483   0.901
89471SOL    HW170246  13.298  13.402   0.867
89471SOL    HW270247  13.267  13.545   0.828
89472SOL     OW70248  14.309   8.946  14.290
89472SOL    HW170249  14.305   8.925  14.383
89472SOL    HW270250  14.367   9.022  14.285
89473SOL     OW70251   1.311  10.318   2.688
89473SOL    HW170252   1.338  10.275   2.769
89473SOL    HW270253   1.224  10.281   2.669
89474SOL     OW70254   1.322  12.972   0.373
89474SOL    HW170255   1.369  12.898   0.334
89474SOL    HW270256   1.279  13.015   0.300
89475SOL     OW70257   8.415   5.018  10.024
89475SOL    HW170258   8.471   5.044   9.950
89475SOL    HW270259   8.426   4.923  10.030
89476SOL     OW70260   5.349   0.571   1.673
89476SOL    HW170261   5.313   0.506   1.613
89476SOL    HW270262   5.290   0.567   1.749
89477SOL     OW70263   3.191  10.296  13.271
89477SOL    HW170264   3.283  10.283  13.251
89477SOL    HW270265   3.163  10.366  13.212
89478SOL     OW70266  11.709   7.156   6.104
89478SOL    HW170267  11.766   7.225   6.069
89478SOL    HW270268  11.652   7.133   6.030
89479SOL     OW70269   4.461   8.232   9.511
89479SOL    HW170270   4.422   8.152   9.547
89479SOL    HW270271   4.549   8.235   9.547
89480SOL     OW70272   7.712  12.301   2.535
89480SOL    HW170273   7.632  12.280   2.487
89480SOL    HW270274   7.766  12.349   2.472
89481SOL     OW70275   7.072   0.798   1.366
89481SOL    HW170276   7.073   0.724   1.306
89481SOL    HW270277   7.164   0.820   1.379
89482SOL     OW70278   1.352   3.652  10.795
89482SOL    HW170279   1.384   3.702  10.719
89482SOL    HW270280   1.427   3.598  10.820
89483SOL     OW70281   7.234  11.616   5.667
89483SOL    HW170282   7.311  11.671   5.680
89483SOL    HW270283   7.218  11.619   5.572
89484SOL     OW70284   1.580  10.683   3.835
89484SOL    HW170285   1.533  10.746   3.780
89484SOL    HW270286   1.622  10.737   3.902
89485SOL     OW70287   3.863  14.813   3.700
89485SOL    HW170288   3.795  14.879   3.687
89485SOL    HW270289   3.854  14.754   3.625
89486SOL     OW70290   4.047   4.653  14.753
89486SOL    HW170291   3.959   4.686  14.772
89486SOL    HW270292   4.059   4.579  14.813
89487SOL     OW70293   3.017  14.515   9.453
89487SOL    HW170294   3.090  14.524   9.515
89487SOL    HW270295   3.041  14.572   9.380
89488SOL     OW70296   0.670  11.835   2.482
89488SOL    HW170297   0.626  11.853   2.399
89488SOL    HW270298   0.620  11.764   2.522
89489SOL     OW70299  12.071   9.110  14.772
89489SOL    HW170300  12.073   9.157  14.689
89489SOL    HW270301  11.991   9.058  14.769
89490SOL     OW70302   1.586  13.482   8.750
89490SOL    HW170303   1.597  13.529   8.668
89490SOL    HW270304   1.584  13.550   8.817
89491SOL     OW70305   6.079  13.966  14.760
89491SOL    HW170306   6.018  14.008  14.700
89491SOL    HW270307   6.131  13.908  14.706
89492SOL     OW70308   4.993   9.421   8.812
89492SOL    HW170309   5.048   9.500   8.813
89492SOL    HW270310   5.023   9.372   8.736
89493SOL     OW70311  12.265   4.581   7.957
89493SOL    HW170312  12.218   4.567   8.040
89493SOL    HW270313  12.229   4.515   7.898
89494SOL     OW70314   0.915  13.141   7.272
89494SOL    HW170315   0.835  13.190   7.288
89494SOL    HW270316   0.888  13.049   7.276
89495SOL     OW70317   2.482   1.051  12.604
89495SOL    HW170318   2.488   0.968  12.557
89495SOL    HW270319   2.478   1.027  12.696
89496SOL     OW70320   3.680   5.466  14.708
89496SOL    HW170321   3.644   5.549  14.676
89496SOL    HW270322   3.615   5.401  14.683
89497SOL     OW70323   8.468   4.457   5.937
89497SOL    HW170324   8.531   4.389   5.961
89497SOL    HW270325   8.394   4.408   5.899
89498SOL     OW70326  12.477   2.320  12.515
89498SOL    HW170327  12.504   2.234  12.481
89498SOL    HW270328  12.510   2.382  12.450
89499SOL     OW70329  13.687  14.629  10.753
89499SOL    HW170330  13.761  14.618  10.812
89499SOL    HW270331  13.688  14.550  10.698
89500SOL     OW70332  10.921   9.580  14.661
89500SOL    HW170333  11.006   9.577  14.616
89500SOL    HW270334  10.941   9.549  14.750
89501SOL     OW70335   4.049   5.664   8.318
89501SOL    HW170336   4.126   5.665   8.375
89501SOL    HW270337   3.984   5.614   8.367
89502SOL     OW70338  14.595   4.480  11.817
89502SOL    HW170339  14.589   4.458  11.725
89502SOL    HW270340  14.533   4.421  11.861
89503SOL     OW70341  11.820  13.985  11.851
89503SOL    HW170342  11.861  13.958  11.933
89503SOL    HW270343  11.865  13.934  11.784
89504SOL     OW70344  10.567  12.928   4.826
89504SOL    HW170345  10.579  12.845   4.780
89504SOL    HW270346  10.488  12.966   4.788
89505SOL     OW70347   7.713  12.897   6.214
89505SOL    HW170348   7.704  12.990   6.193
89505SOL    HW270349   7.642  12.880   6.276
89506SOL     OW70350   6.453   1.455   5.861
89506SOL    HW170351   6.392   1.416   5.923
89506SOL    HW270352   6.525   1.391   5.854
89507SOL     OW70353  10.572  10.816   1.131
89507SOL    HW170354  10.483  10.831   1.163
89507SOL    HW270355  10.562  10.810   1.036
89508SOL     OW70356   3.520   3.399   2.365
89508SOL    HW170357   3.482   3.477   2.323
89508SOL    HW270358   3.485   3.401   2.454
89509SOL     OW70359  10.226  12.633  12.974
89509SOL    HW170360  10.140  12.593  12.972
89509SOL    HW270361  10.263  12.616  12.887
89510SOL     OW70362   7.712  11.368   8.022
89510SOL    HW170363   7.783  11.317   8.060
89510SOL    HW270364   7.741  11.459   8.026
89511SOL     OW70365   2.099   1.666   0.562
89511SOL    HW170366   2.073   1.669   0.654
89511SOL    HW270367   2.194   1.656   0.564
89512SOL     OW70368  10.606   4.149  10.453
89512SOL    HW170369  10.596   4.168  10.547
89512SOL    HW270370  10.699   4.158  10.437
89513SOL     OW70371  10.421  14.222   2.647
89513SOL    HW170372  10.398  14.136   2.611
89513SOL    HW270373  10.346  14.277   2.626
89514SOL     OW70374  10.174   6.310  14.054
89514SOL    HW170375  10.156   6.233  14.000
89514SOL    HW270376  10.260   6.295  14.092
89515SOL     OW70377   9.790  14.162   3.509
89515SOL    HW170378   9.787  14.084   3.563
89515SOL    HW270379   9.815  14.130   3.422
89516SOL     OW70380   6.337   1.922   9.429
89516SOL    HW170381   6.345   1.860   9.502
89516SOL    HW270382   6.311   1.867   9.355
89517SOL     OW70383  10.671   9.775  13.539
89517SOL    HW170384  10.709   9.698  13.498
89517SOL    HW270385  10.740   9.808  13.597
89518SOL     OW70386   5.766   9.607  13.089
89518SOL    HW170387   5.829   9.640  13.153
89518SOL    HW270388   5.732   9.686  13.046
89519SOL     OW70389   5.801   0.494   3.768
89519SOL    HW170390   5.710   0.470   3.754
89519SOL    HW270391   5.814   0.572   3.714
89520SOL     OW70392   5.743   3.623  13.683
89520SOL    HW170393   5.779   3.673  13.756
89520SOL    HW270394   5.803   3.549  13.673
89521SOL     OW70395  12.994  13.694  14.397
89521SOL    HW170396  12.914  13.744  14.386
89521SOL    HW270397  13.007  13.649  14.313
89522SOL     OW70398  13.015   0.193   6.195
89522SOL    HW170399  12.986   0.183   6.105
89522SOL    HW270400  12.992   0.110   6.237
89523SOL     OW70401   8.042   1.704  14.568
89523SOL    HW170402   7.992   1.677  14.490
89523SOL    HW270403   7.978   1.749  14.623
89524SOL     OW70404   5.052   1.215  13.843
89524SOL    HW170405   4.957   1.207  13.846
89524SOL    HW270406   5.084   1.133  13.880
89525SOL     OW70407  12.381  13.588   7.182
89525SOL    HW170408  12.296  13.585   7.224
89525SOL    HW270409  12.434  13.646   7.237
89526SOL     OW70410  11.841  11.984   8.035
89526SOL    HW170411  11.924  11.954   7.999
89526SOL    HW270412  11.778  11.971   7.964
89527SOL     OW70413  10.416   6.188  13.021
89527SOL    HW170414  10.327   6.159  13.040
89527SOL    HW270415  10.405   6.262  12.962
89528SOL     OW70416   8.392   2.259   5.648
89528SOL    HW170417   8.407   2.352   5.633
89528SOL    HW270418   8.381   2.222   5.560
89529SOL     OW70419  13.934   4.620  12.980
89529SOL    HW170420  13.885   4.583  13.053
89529SOL    HW270421  14.006   4.559  12.965
89530SOL     OW70422   0.663   7.036  13.744
89530SOL    HW170423   0.752   7.004  13.758
89530SOL    HW270424   0.637   6.999  13.660
89531SOL     OW70425   3.250   5.248  13.482
89531SOL    HW170426   3.226   5.265  13.573
89531SOL    HW270427   3.197   5.172  13.457
89532SOL     OW70428  10.460   2.063  13.139
89532SOL    HW170429  10.407   2.060  13.218
89532SOL    HW270430  10.488   2.154  13.132
89533SOL     OW70431   8.217   8.795  11.520
89533SOL    HW170432   8.218   8.857  11.593
89533SOL    HW270433   8.264   8.840  11.450
89534SOL     OW70434   5.882   7.420   3.516
89534SOL    HW170435   5.823   7.368   3.461
89534SOL    HW270436   5.938   7.465   3.453
89535SOL     OW70437   4.818  11.746   9.904
89535SOL    HW170438   4.865  11.670   9.871
89535SOL    HW270439   4.809  11.804   9.829
89536SOL     OW70440   7.633   0.109  10.565
89536SOL    HW170441   7.665   0.182  10.618
89536SOL    HW270442   7.549   0.139  10.530
89537SOL     OW70443   3.486   8.627   4.042
89537SOL    HW170444   3.579   8.611   4.025
89537SOL    HW270445   3.481   8.721   4.060
89538SOL     OW70446  13.468   0.876   3.127
89538SOL    HW170447  13.388   0.915   3.161
89538SOL    HW270448  13.499   0.939   3.062
89539SOL     OW70449   8.707  12.806   2.119
89539SOL    HW170450   8.666  12.888   2.146
89539SOL    HW270451   8.720  12.757   2.200
89540SOL     OW70452   7.486   0.766  13.335
89540SOL    HW170453   7.499   0.688  13.390
89540SOL    HW270454   7.567   0.816  13.344
89541SOL     OW70455   4.611   7.137   4.857
89541SOL    HW170456   4.566   7.145   4.941
89541SOL    HW270457   4.582   7.214   4.807
89542SOL     OW70458  12.775   3.812  10.312
89542SOL    HW170459  12.858   3.859  10.325
89542SOL    HW270460  12.716   3.878  10.278
89543SOL     OW70461   7.126   3.802  11.568
89543SOL    HW170462   7.080   3.762  11.642
89543SOL    HW270463   7.086   3.888  11.558
89544SOL     OW70464   4.613   4.262   2.957
89544SOL    HW170465   4.656   4.217   3.029
89544SOL    HW270466   4.684   4.287   2.898
89545SOL     OW70467  14.710  12.050   3.875
89545SOL    HW170468  14.780  12.078   3.816
89545SOL    HW270469  14.630  12.069   3.827
89546SOL     OW70470   4.890  10.251  10.404
89546SOL    HW170471   4.874  10.346  10.404
89546SOL    HW270472   4.938  10.235  10.485
89547SOL     OW70473   4.383  10.692   4.817
89547SOL    HW170474   4.289  10.712   4.816
89547SOL    HW270475   4.399  10.659   4.906
89548SOL     OW70476   8.694  10.465  14.168
89548SOL    HW170477   8.621  10.499  14.116
89548SOL    HW270478   8.772  10.480  14.115
89549SOL     OW70479   7.163   8.743   4.255
89549SOL    HW170480   7.200   8.743   4.343
89549SOL    HW270481   7.236   8.716   4.199
89550SOL     OW70482   6.684   2.861  12.198
89550SOL    HW170483   6.624   2.826  12.263
89550SOL    HW270484   6.629   2.881  12.122
89551SOL     OW70485   6.426   4.494   6.083
89551SOL    HW170486   6.494   4.559   6.095
89551SOL    HW270487   6.393   4.509   5.995
89552SOL     OW70488   3.518   7.349   9.931
89552SOL    HW170489   3.492   7.365   9.840
89552SOL    HW270490   3.441   7.310   9.971
89553SOL     OW70491   3.383   9.863   3.834
89553SOL    HW170492   3.296   9.838   3.865
89553SOL    HW270493   3.415   9.926   3.899
89554SOL     OW70494   4.185   9.939  12.921
89554SOL    HW170495   4.199   9.932  12.826
89554SOL    HW270496   4.200   9.850  12.954
89555SOL     OW70497  12.001   3.780  12.734
89555SOL    HW170498  11.930   3.843  12.719
89555SOL    HW270499  12.080   3.826  12.706
89556SOL     OW70500   7.364   1.376  10.055
89556SOL    HW170501   7.283   1.326  10.045
89556SOL    HW270502   7.343   1.443  10.121
89557SOL     OW70503   0.525  10.405   4.785
89557SOL    HW170504   0.452  10.350   4.814
89557SOL    HW270505   0.579  10.415   4.863
89558SOL     OW70506   2.710   4.686  11.260
89558SOL    HW170507   2.781   4.662  11.319
89558SOL    HW270508   2.642   4.722  11.318
89559SOL     OW70509   2.804   3.632  12.393
89559SOL    HW170510   2.821   3.566  12.460
89559SOL    HW270511   2.870   3.616  12.326
89560SOL     OW70512  12.802   4.610   0.460
89560SOL    HW170513  12.715   4.569   0.465
89560SOL    HW270514  12.783   4.703   0.443
89561SOL     OW70515   3.880   5.091  11.480
89561SOL    HW170516   3.873   5.085  11.576
89561SOL    HW270517   3.819   5.162  11.457
89562SOL     OW70518   9.827   0.107   9.626
89562SOL    HW170519   9.871   0.097   9.710
89562SOL    HW270520   9.759   0.040   9.626
89563SOL     OW70521   6.352   1.728   9.628
89563SOL    HW170522   6.328   1.663   9.694
89563SOL    HW270523   6.429   1.771   9.664
89564SOL     OW70524  11.934  11.868   1.119
89564SOL    HW170525  11.971  11.815   1.048
89564SOL    HW270526  11.994  11.856   1.192
89565SOL     OW70527   4.430  14.147  12.933
89565SOL    HW170528   4.509  14.119  12.887
89565SOL    HW270529   4.461  14.178  13.018
89566SOL     OW70530   3.527   6.126   5.413
89566SOL    HW170531   3.441   6.093   5.442
89566SOL    HW270532   3.535   6.212   5.454
89567SOL     OW70533   7.375   2.771   4.440
89567SOL    HW170534   7.296   2.739   4.396
89567SOL    HW270535   7.407   2.696   4.491
89568SOL     OW70536   4.796  14.660  10.419
89568SOL    HW170537   4.868  14.610  10.381
89568SOL    HW270538   4.825  14.682  10.508
89569SOL     OW70539   0.704  14.469  11.824
89569SOL    HW170540   0.642  14.416  11.774
89569SOL    HW270541   0.782  14.472  11.768
89570SOL     OW70542   4.438   4.239   9.489
89570SOL    HW170543   4.383   4.255   9.412
89570SOL    HW270544   4.507   4.305   9.483
89571SOL     OW70545   9.432   8.638   2.681
89571SOL    HW170546   9.518   8.617   2.718
89571SOL    HW270547   9.393   8.553   2.661
89572SOL     OW70548   4.374   7.121   8.176
89572SOL    HW170549   4.443   7.067   8.214
89572SOL    HW270550   4.371   7.198   8.233
89573SOL     OW70551   2.329   3.710   3.426
89573SOL    HW170552   2.331   3.625   3.382
89573SOL    HW270553   2.409   3.713   3.477
89574SOL     OW70554   5.677   3.214   3.303
89574SOL    HW170555   5.738   3.283   3.279
89574SOL    HW270556   5.599   3.230   3.249
89575SOL     OW70557   9.459   8.357  13.153
89575SOL    HW170558   9.441   8.289  13.088
89575SOL    HW270559   9.478   8.435  13.101
89576SOL     OW70560   6.721   2.992   2.093
89576SOL    HW170561   6.811   2.973   2.065
89576SOL    HW270562   6.667   2.967   2.018
89577SOL     OW70563   3.481  10.317   9.699
89577SOL    HW170564   3.560  10.323   9.752
89577SOL    HW270565   3.442  10.233   9.723
89578SOL     OW70566   1.539   8.705   8.242
89578SOL    HW170567   1.582   8.620   8.229
89578SOL    HW270568   1.610   8.769   8.234
89579SOL     OW70569   8.660   5.928   3.141
89579SOL    HW170570   8.688   5.941   3.232
89579SOL    HW270571   8.676   5.835   3.124
89580SOL     OW70572   6.161   9.945  11.960
89580SOL    HW170573   6.201  10.014  11.908
89580SOL    HW270574   6.195   9.864  11.923
89581SOL     OW70575   8.625  14.433   6.924
89581SOL    HW170576   8.554  14.369   6.923
89581SOL    HW270577   8.598  14.498   6.989
89582SOL     OW70578   3.766   5.783  12.359
89582SOL    HW170579   3.848   5.752  12.397
89582SOL    HW270580   3.745   5.862  12.409
89583SOL     OW70581  11.449   4.131   5.685
89583SOL    HW170582  11.438   4.037   5.697
89583SOL    HW270583  11.462   4.141   5.590
89584SOL     OW70584   6.171  10.369  14.869
89584SOL    HW170585   6.079  10.349   0.010
89584SOL    HW270586   6.204  10.411   0.070
89585SOL     OW70587  14.205  13.914  14.060
89585SOL    HW170588  14.212  13.884  14.151
89585SOL    HW270589  14.191  14.008  14.067
89586SOL     OW70590   4.664  10.928  10.682
89586SOL    HW170591   4.575  10.914  10.649
89586SOL    HW270592   4.709  10.845  10.666
89587SOL     OW70593   1.974   1.452   8.645
89587SOL    HW170594   1.967   1.358   8.629
89587SOL    HW270595   2.067   1.472   8.634
89588SOL     OW70596   9.342   4.030   5.088
89588SOL    HW170597   9.303   4.037   5.001
89588SOL    HW270598   9.360   3.937   5.099
89589SOL     OW70599   3.247  10.282  14.064
89589SOL    HW170600   3.273  10.367  14.099
89589SOL    HW270601   3.152  10.281  14.072
89590SOL     OW70602  13.802   0.580   3.995
89590SOL    HW170603  13.789   0.656   4.053
89590SOL    HW270604  13.778   0.612   3.908
89591SOL     OW70605   7.282   6.683   3.499
89591SOL    HW170606   7.331   6.674   3.417
89591SOL    HW270607   7.323   6.621   3.559
89592SOL     OW70608   8.245  11.833   7.765
89592SOL    HW170609   8.300  11.910   7.753
89592SOL    HW270610   8.167  11.865   7.810
89593SOL     OW70611   4.576  10.812  14.078
89593SOL    HW170612   4.561  10.718  14.087
89593SOL    HW270613   4.655  10.829  14.128
89594SOL     OW70614   7.335   0.795   1.371
89594SOL    HW170615   7.344   0.728   1.303
89594SOL    HW270616   7.405   0.775   1.433
89595SOL     OW70617   3.869   6.881   1.665
89595SOL    HW170618   3.787   6.884   1.715
89595SOL    HW270619   3.869   6.794   1.625
89596SOL     OW70620  11.747   9.011   3.606
89596SOL    HW170621  11.823   9.035   3.660
89596SOL    HW270622  11.747   9.074   3.535
89597SOL     OW70623  10.058  11.457   4.715
89597SOL    HW170624  10.114  11.529   4.689
89597SOL    HW270625  10.078  11.387   4.652
89598SOL     OW70626  10.010   2.702   7.640
89598SOL    HW170627  10.101   2.732   7.638
89598SOL    HW270628  10.016   2.607   7.638
89599SOL     OW70629   2.961  11.827   6.557
89599SOL    HW170630   3.056  11.817   6.557
89599SOL    HW270631   2.940  11.848   6.466
89600SOL     OW70632   8.950   6.705   8.365
89600SOL    HW170633   8.983   6.619   8.393
89600SOL    HW270634   9.024   6.744   8.318
89601SOL     OW70635   4.237  13.497   9.291
89601SOL    HW170636   4.161  13.467   9.242
89601SOL    HW270637   4.223  13.592   9.300
89602SOL     OW70638   5.942   4.752   7.900
89602SOL    HW170639   6.000   4.759   7.824
89602SOL    HW270640   5.919   4.843   7.921
89603SOL     OW70641   8.616  10.563   9.625
89603SOL    HW170642   8.661  10.572   9.709
89603SOL    HW270643   8.524  10.549   9.648
89604SOL     OW70644   9.334   5.662   8.669
89604SOL    HW170645   9.353   5.752   8.697
89604SOL    HW270646   9.418   5.616   8.680
89605SOL     OW70647   6.953   4.092   2.591
89605SOL    HW170648   6.882   4.030   2.575
89605SOL    HW270649   6.908   4.174   2.612
89606SOL     OW70650   9.488   5.200   2.104
89606SOL    HW170651   9.525   5.167   2.022
89606SOL    HW270652   9.559   5.190   2.167
89607SOL     OW70653   6.984   8.418   9.474
89607SOL    HW170654   7.065   8.367   9.476
89607SOL    HW270655   6.958   8.426   9.566
89608SOL     OW70656   5.164   0.242  14.469
89608SOL    HW170657   5.098   0.311  14.465
89608SOL    HW270658   5.122   0.171  14.517
89609SOL     OW70659   6.396   3.681  13.214
89609SOL    HW170660   6.321   3.728  13.178
89609SOL    HW270661   6.471   3.712  13.164
89610SOL     OW70662  10.547  12.473  10.991
89610SOL    HW170663  10.602  12.552  10.988
89610SOL    HW270664  10.596  12.408  10.942
89611SOL     OW70665  12.500   2.139   0.210
89611SOL    HW170666  12.551   2.073   0.258
89611SOL    HW270667  12.502   2.109   0.119
89612SOL     OW70668   3.027  14.618   2.810
89612SOL    HW170669   2.969  14.619   2.886
89612SOL    HW270670   3.068  14.705   2.809
89613SOL     OW70671   1.454  13.962  10.584
89613SOL    HW170672   1.465  14.008  10.500
89613SOL    HW270673   1.527  13.900  10.587
89614SOL     OW70674   5.983  14.202  14.351
89614SOL    HW170675   5.974  14.290  14.315
89614SOL    HW270676   6.069  14.173  14.321
89615SOL     OW70677   6.297  11.775  13.688
89615SOL    HW170678   6.235  11.745  13.755
89615SOL    HW270679   6.280  11.719  13.613
89616SOL     OW70680   2.980   2.852   4.099
89616SOL    HW170681   3.031   2.771   4.088
89616SOL    HW270682   2.891   2.828   4.074
89617SOL     OW70683   1.038   2.979   0.516
89617SOL    HW170684   0.988   2.981   0.598
89617SOL    HW270685   1.084   2.895   0.519
89618SOL     OW70686   6.295  13.490   1.855
89618SOL    HW170687   6.293  13.577   1.896
89618SOL    HW270688   6.333  13.433   1.922
89619SOL     OW70689   7.232   8.269   9.104
89619SOL    HW170690   7.182   8.330   9.158
89619SOL    HW270691   7.168   8.202   9.077
89620SOL     OW70692   1.950   5.935   1.891
89620SOL    HW170693   1.880   6.001   1.894
89620SOL    HW270694   1.944   5.898   1.803
89621SOL     OW70695  11.931   9.344   6.771
89621SOL    HW170696  11.842   9.335   6.805
89621SOL    HW270697  11.935   9.280   6.700
89622SOL     OW70698   0.132  10.528   1.607
89622SOL    HW170699   0.093  10.457   1.657
89622SOL    HW270700   0.163  10.487   1.526
89623SOL     OW70701   2.868   3.528  14.295
89623SOL    HW170702   2.797   3.588  14.319
89623SOL    HW270703   2.856   3.452  14.352
89624SOL     OW70704  14.266   8.864  13.997
89624SOL    HW170705  14.275   8.902  14.085
89624SOL    HW270706  14.202   8.794  14.007
89625SOL     OW70707   2.114  11.111   7.707
89625SOL    HW170708   2.027  11.092   7.741
89625SOL    HW270709   2.101  11.123   7.613
89626SOL     OW70710   0.026  13.504   7.495
89626SOL    HW170711   0.044  13.452   7.573
89626SOL    HW270712  14.811  13.521   7.497
89627SOL     OW70713   0.791   2.715   7.750
89627SOL    HW170714   0.700   2.743   7.759
89627SOL    HW270715   0.785   2.624   7.721
89628SOL     OW70716  13.732  12.926   0.186
89628SOL    HW170717  13.672  12.876   0.129
89628SOL    HW270718  13.702  13.016   0.178
89629SOL     OW70719  12.154  14.075  10.315
89629SOL    HW170720  12.134  14.001  10.258
89629SOL    HW270721  12.078  14.082  10.372
89630SOL     OW70722  14.537   8.075   8.158
89630SOL    HW170723  14.600   8.103   8.091
89630SOL    HW270724  14.523   7.982   8.139
89631SOL     OW70725   0.187   3.781   7.915
89631SOL    HW170726   0.247   3.779   7.989
89631SOL    HW270727   0.209   3.704   7.863
89632SOL     OW70728   0.775   1.303   5.623
89632SOL    HW170729   0.709   1.346   5.677
89632SOL    HW270730   0.852   1.295   5.680
89633SOL     OW70731   6.052   5.242   5.309
89633SOL    HW170732   6.034   5.207   5.222
89633SOL    HW270733   6.069   5.335   5.295
89634SOL     OW70734   9.220   0.247  14.217
89634SOL    HW170735   9.162   0.240  14.141
89634SOL    HW270736   9.210   0.163  14.263
89635SOL     OW70737   0.319  11.736  14.013
89635SOL    HW170738   0.251  11.688  13.967
89635SOL    HW270739   0.296  11.730  14.105
89636SOL     OW70740   2.677   5.123   7.131
89636SOL    HW170741   2.722   5.172   7.199
89636SOL    HW270742   2.641   5.190   7.073
89637SOL     OW70743   0.354   4.397  13.860
89637SOL    HW170744   0.343   4.477  13.809
89637SOL    HW270745   0.414   4.421  13.931
89638SOL     OW70746   9.638   0.607   6.014
89638SOL    HW170747   9.711   0.655   6.054
89638SOL    HW270748   9.667   0.587   5.925
89639SOL     OW70749   9.069   3.806   5.866
89639SOL    HW170750   9.047   3.715   5.844
89639SOL    HW270751   9.103   3.843   5.785
89640SOL     OW70752   8.681   5.326  10.509
89640SOL    HW170753   8.747   5.372  10.561
89640SOL    HW270754   8.710   5.335  10.419
89641SOL     OW70755   6.601  14.222   1.235
89641SOL    HW170756   6.606  14.202   1.141
89641SOL    HW270757   6.595  14.137   1.277
89642SOL     OW70758   0.327   2.334  12.701
89642SOL    HW170759   0.420   2.320  12.681
89642SOL    HW270760   0.281   2.273  12.643
89643SOL     OW70761  10.749   4.091   1.711
89643SOL    HW170762  10.771   4.055   1.625
89643SOL    HW270763  10.823   4.067   1.767
89644SOL     OW70764   9.809  12.368  11.289
89644SOL    HW170765   9.774  12.366  11.200
89644SOL    HW270766   9.787  12.456  11.322
89645SOL     OW70767   7.971  13.324   5.448
89645SOL    HW170768   7.989  13.403   5.397
89645SOL    HW270769   7.942  13.260   5.383
89646SOL     OW70770  10.526  10.659   0.654
89646SOL    HW170771  10.614  10.622   0.667
89646SOL    HW270772  10.500  10.688   0.741
89647SOL     OW70773  10.668   8.938   8.376
89647SOL    HW170774  10.604   9.002   8.408
89647SOL    HW270775  10.626   8.898   8.300
89648SOL     OW70776   9.354  13.497  10.109
89648SOL    HW170777   9.411  13.496  10.032
89648SOL    HW270778   9.414  13.489  10.183
89649SOL     OW70779   5.596   0.921   4.701
89649SOL    HW170780   5.650   0.971   4.639
89649SOL    HW270781   5.659   0.871   4.753
89650SOL     OW70782  12.591  12.057   9.918
89650SOL    HW170783  12.506  12.052   9.962
89650SOL    HW270784  12.577  12.116   9.844
89651SOL     OW70785  13.381  11.579   0.707
89651SOL    HW170786  13.431  11.549   0.631
89651SOL    HW270787  13.312  11.514   0.717
89652SOL     OW70788   0.639   3.449  13.007
89652SOL    HW170789   0.714   3.442  13.066
89652SOL    HW270790   0.579   3.380  13.035
89653SOL     OW70791  14.412   2.153  10.672
89653SOL    HW170792  14.487   2.127  10.619
89653SOL    HW270793  14.423   2.107  10.755
89654SOL     OW70794  12.755   2.746  11.893
89654SOL    HW170795  12.667   2.745  11.930
89654SOL    HW270796  12.788   2.834  11.911
89655SOL     OW70797  12.474  10.476   7.235
89655SOL    HW170798  12.428  10.452   7.315
89655SOL    HW270799  12.487  10.570   7.242
89656SOL     OW70800  11.489   1.922   4.013
89656SOL    HW170801  11.433   1.904   4.088
89656SOL    HW270802  11.430   1.921   3.938
89657SOL     OW70803   0.579  14.348   0.332
89657SOL    HW170804   0.621  14.269   0.300
89657SOL    HW270805   0.515  14.317   0.396
89658SOL     OW70806   6.152   1.877   5.315
89658SOL    HW170807   6.181   1.786   5.315
89658SOL    HW270808   6.111   1.889   5.229
89659SOL     OW70809   9.278  10.953  10.266
89659SOL    HW170810   9.335  11.029  10.259
89659SOL    HW270811   9.203  10.983  10.318
89660SOL     OW70812  11.206  13.663  12.592
89660SOL    HW170813  11.234  13.743  12.637
89660SOL    HW270814  11.119  13.645  12.626
89661SOL     OW70815   1.766   8.977   3.230
89661SOL    HW170816   1.826   8.904   3.219
89661SOL    HW270817   1.823   9.054   3.242
89662SOL     OW70818   5.626   2.660   3.469
89662SOL    HW170819   5.706   2.616   3.498
89662SOL    HW270820   5.651   2.752   3.459
89663SOL     OW70821  11.610   7.875   1.764
89663SOL    HW170822  11.554   7.952   1.758
89663SOL    HW270823  11.607   7.837   1.676
89664SOL     OW70824  12.373  13.589   5.941
89664SOL    HW170825  12.360  13.514   5.883
89664SOL    HW270826  12.405  13.659   5.884
89665SOL     OW70827   3.123   8.125   0.976
89665SOL    HW170828   3.200   8.069   0.984
89665SOL    HW270829   3.081   8.119   1.062
89666SOL     OW70830   8.917   4.407   1.119
89666SOL    HW170831   8.884   4.416   1.029
89666SOL    HW270832   9.012   4.404   1.109
89667SOL     OW70833  14.841  11.010   0.328
89667SOL    HW170834  14.829  11.047   0.415
89667SOL    HW270835   0.024  11.070   0.285
89668SOL     OW70836  14.078   1.630   5.684
89668SOL    HW170837  13.994   1.603   5.722
89668SOL    HW270838  14.055   1.668   5.599
89669SOL     OW70839   3.019   7.678  10.820
89669SOL    HW170840   3.077   7.719  10.884
89669SOL    HW270841   2.943   7.650  10.871
89670SOL     OW70842   5.435   2.606  10.608
89670SOL    HW170843   5.358   2.634  10.558
89670SOL    HW270844   5.484   2.687  10.624
89671SOL     OW70845   9.631   5.812  13.360
89671SOL    HW170846   9.685   5.757  13.417
89671SOL    HW270847   9.629   5.765  13.276
89672SOL     OW70848   8.948  14.525   6.521
89672SOL    HW170849   8.918  14.538   6.611
89672SOL    HW270850   8.912  14.600   6.473
89673SOL     OW70851  13.337   3.821  10.039
89673SOL    HW170852  13.410   3.866  10.082
89673SOL    HW270853  13.374   3.788   9.957
89674SOL     OW70854   4.617   4.139  12.136
89674SOL    HW170855   4.581   4.187  12.210
89674SOL    HW270856   4.552   4.071  12.118
89675SOL     OW70857   6.858   6.136   6.787
89675SOL    HW170858   6.764   6.135   6.772
89675SOL    HW270859   6.892   6.201   6.724
89676SOL     OW70860   4.130  13.135  11.824
89676SOL    HW170861   4.051  13.189  11.830
89676SOL    HW270862   4.202  13.198  11.825
89677SOL     OW70863   7.095   0.270   5.920
89677SOL    HW170864   7.160   0.288   5.987
89677SOL    HW270865   7.124   0.188   5.880
89678SOL     OW70866  11.705   8.389   3.041
89678SOL    HW170867  11.619   8.373   3.078
89678SOL    HW270868  11.723   8.481   3.061
89679SOL     OW70869   9.636   0.214   9.366
89679SOL    HW170870   9.629   0.307   9.386
89679SOL    HW270871   9.715   0.185   9.411
89680SOL     OW70872  13.338   9.385  10.967
89680SOL    HW170873  13.374   9.364  11.053
89680SOL    HW270874  13.282   9.461  10.982
89681SOL     OW70875   7.821   1.280   1.159
89681SOL    HW170876   7.906   1.271   1.116
89681SOL    HW270877   7.761   1.227   1.107
89682SOL     OW70878   6.416  10.303   6.725
89682SOL    HW170879   6.383  10.390   6.750
89682SOL    HW270880   6.506  10.319   6.695
89683SOL     OW70881  10.688   0.752   6.800
89683SOL    HW170882  10.697   0.828   6.856
89683SOL    HW270883  10.668   0.680   6.860
89684SOL     OW70884   7.517  14.422  14.329
89684SOL    HW170885   7.487  14.358  14.394
89684SOL    HW270886   7.486  14.388  14.245
89685SOL     OW70887   5.565   6.994  11.154
89685SOL    HW170888   5.645   6.949  11.182
89685SOL    HW270889   5.588   7.087  11.157
89686SOL     OW70890  10.962   3.468   6.810
89686SOL    HW170891  11.029   3.412   6.773
89686SOL    HW270892  10.903   3.409   6.857
89687SOL     OW70893   0.510   9.676   0.163
89687SOL    HW170894   0.589   9.729   0.176
89687SOL    HW270895   0.478   9.660   0.252
89688SOL     OW70896   3.899   5.048   1.185
89688SOL    HW170897   3.971   5.004   1.139
89688SOL    HW270898   3.940   5.086   1.263
89689SOL     OW70899   4.218  13.909   5.174
89689SOL    HW170900   4.130  13.910   5.136
89689SOL    HW270901   4.254  13.824   5.149
89690SOL     OW70902   3.003   4.609  11.733
89690SOL    HW170903   3.003   4.680  11.669
89690SOL    HW270904   2.932   4.551  11.705
89691SOL     OW70905  11.428  13.628  13.630
89691SOL    HW170906  11.521  13.622  13.609
89691SOL    HW270907  11.425  13.622  13.726
89692SOL     OW70908   9.077   9.334  12.694
89692SOL    HW170909   9.067   9.357  12.787
89692SOL    HW270910   9.167   9.304  12.686
89693SOL     OW70911  12.573   5.567   9.310
89693SOL    HW170912  12.552   5.510   9.236
89693SOL    HW270913  12.548   5.655   9.282
89694SOL     OW70914   9.091   4.056  11.512
89694SOL    HW170915   9.037   4.108  11.452
89694SOL    HW270916   9.033   3.986  11.542
89695SOL     OW70917   6.036   1.244   3.682
89695SOL    HW170918   6.026   1.321   3.739
89695SOL    HW270919   5.952   1.238   3.637
89696SOL     OW70920  10.206   0.111   6.487
89696SOL    HW170921  10.141   0.128   6.419
89696SOL    HW270922  10.155   0.105   6.568
89697SOL     OW70923   1.741  11.097  12.173
89697SOL    HW170924   1.753  11.048  12.255
89697SOL    HW270925   1.723  11.186  12.202
89698SOL     OW70926  11.618   4.217   0.420
89698SOL    HW170927  11.618   4.232   0.514
89698SOL    HW270928  11.561   4.286   0.385
89699SOL     OW70929   4.052   6.494  13.074
89699SOL    HW170930   4.143   6.499  13.101
89699SOL    HW270931   4.015   6.422  13.126
89700SOL     OW70932   9.658   3.119   3.143
89700SOL    HW170933   9.703   3.037   3.123
89700SOL    HW270934   9.636   3.112   3.235
89701SOL     OW70935  13.864   7.584   0.179
89701SOL    HW170936  13.949   7.551   0.208
89701SOL    HW270937  13.851   7.664   0.231
89702SOL     OW70938   8.141  12.224   3.728
89702SOL    HW170939   8.071  12.288   3.720
89702SOL    HW270940   8.132  12.169   3.650
89703SOL     OW70941   9.290  11.766  12.676
89703SOL    HW170942   9.241  11.844  12.651
89703SOL    HW270943   9.282  11.707  12.600
89704SOL     OW70944  11.573   5.477  13.151
89704SOL    HW170945  11.660   5.447  13.124
89704SOL    HW270946  11.534   5.400  13.193
89705SOL     OW70947   8.438   1.827   5.873
89705SOL    HW170948   8.425   1.757   5.808
89705SOL    HW270949   8.454   1.781   5.955
89706SOL     OW70950   2.391  14.293   3.726
89706SOL    HW170951   2.410  14.199   3.732
89706SOL    HW270952   2.338  14.302   3.647
89707SOL     OW70953   4.410   2.895   4.964
89707SOL    HW170954   4.495   2.905   4.920
89707SOL    HW270955   4.375   2.813   4.929
89708SOL     OW70956   7.808   0.360   3.219
89708SOL    HW170957   7.720   0.395   3.231
89708SOL    HW270958   7.856   0.389   3.296
89709SOL     OW70959   3.078  10.255   5.989
89709SOL    HW170960   2.988  10.224   5.978
89709SOL    HW270961   3.121  10.186   6.040
89710SOL     OW70962  11.398   1.070  10.098
89710SOL    HW170963  11.488   1.069  10.065
89710SOL    HW270964  11.398   1.008  10.171
89711SOL     OW70965   6.675   8.507   2.705
89711SOL    HW170966   6.582   8.506   2.683
89711SOL    HW270967   6.720   8.493   2.622
89712SOL     OW70968  12.492  13.737  12.318
89712SOL    HW170969  12.564  13.797  12.299
89712SOL    HW270970  12.446  13.777  12.392
89713SOL     OW70971   6.892  10.491   5.969
89713SOL    HW170972   6.960  10.505   5.903
89713SOL    HW270973   6.933  10.517   6.051
89714SOL     OW70974  13.907   3.003   0.367
89714SOL    HW170975  13.969   2.975   0.434
89714SOL    HW270976  13.870   3.085   0.400
89715SOL     OW70977  14.821   0.646   6.980
89715SOL    HW170978   0.004   0.581   7.012
89715SOL    HW270979  14.805   0.620   6.889
89716SOL     OW70980  10.828   0.314   4.350
89716SOL    HW170981  10.797   0.394   4.307
89716SOL    HW270982  10.764   0.247   4.324
89717SOL     OW70983   5.729   6.588   2.572
89717SOL    HW170984   5.656   6.584   2.511
89717SOL    HW270985   5.804   6.612   2.518
89718SOL     OW70986   7.231  14.227   5.706
89718SOL    HW170987   7.313  14.259   5.744
89718SOL    HW270988   7.166  14.236   5.776
89719SOL     OW70989  12.433   6.504   8.434
89719SOL    HW170990  12.343   6.528   8.409
89719SOL    HW270991  12.450   6.422   8.387
89720SOL     OW70992   5.324  11.681   7.301
89720SOL    HW170993   5.251  11.657   7.245
89720SOL    HW270994   5.402  11.650   7.254
89721SOL     OW70995  14.111   5.157   0.152
89721SOL    HW170996  14.031   5.194   0.189
89721SOL    HW270997  14.175   5.162   0.223
89722SOL     OW70998   6.791  14.684  14.003
89722SOL    HW170999   6.734  14.612  14.030
89722SOL    HW271000   6.808  14.733  14.084
89723SOL     OW71001  14.445  14.323   7.124
89723SOL    HW171002  14.354  14.301   7.104
89723SOL    HW271003  14.457  14.412   7.089
89724SOL     OW71004   9.181  10.006   2.678
89724SOL    HW171005   9.134   9.969   2.603
89724SOL    HW271006   9.229   9.931   2.715
89725SOL     OW71007   7.639  12.793   4.691
89725SOL    HW171008   7.675  12.781   4.779
89725SOL    HW271009   7.551  12.755   4.695
89726SOL     OW71010   3.162   3.113  10.151
89726SOL    HW171011   3.089   3.110  10.212
89726SOL    HW271012   3.122   3.125  10.065
89727SOL     OW71013   2.125  11.690  14.751
89727SOL    HW171014   2.051  11.639  14.719
89727SOL    HW271015   2.096  11.781  14.749
89728SOL     OW71016   8.388  13.316   9.801
89728SOL    HW171017   8.417  13.240   9.852
89728SOL    HW271018   8.410  13.391   9.856
89729SOL     OW71019  14.640   7.150   4.480
89729SOL    HW171020  14.552   7.140   4.517
89729SOL    HW271021  14.688   7.201   4.545
89730SOL     OW71022   1.423   0.586   4.213
89730SOL    HW171023   1.485   0.655   4.238
89730SOL    HW271024   1.445   0.566   4.122
89731SOL     OW71025  14.543   9.608  14.723
89731SOL    HW171026  14.634   9.638  14.730
89731SOL    HW271027  14.528   9.600  14.629
89732SOL     OW71028   2.482   0.604  11.497
89732SOL    HW171029   2.538   0.599  11.575
89732SOL    HW271030   2.397   0.571  11.527
89733SOL     OW71031  10.363  12.296   5.356
89733SOL    HW171032  10.398  12.349   5.427
89733SOL    HW271033  10.379  12.206   5.384
89734SOL     OW71034  14.716   6.319   9.454
89734SOL    HW171035  14.709   6.347   9.545
89734SOL    HW271036  14.719   6.223   9.459
89735SOL     OW71037   6.186  10.989  14.232
89735SOL    HW171038   6.154  11.003  14.321
89735SOL    HW271039   6.133  10.916  14.198
89736SOL     OW71040   9.279  10.440  13.824
89736SOL    HW171041   9.323  10.486  13.752
89736SOL    HW271042   9.263  10.507  13.890
89737SOL     OW71043   1.280   2.258  11.387
89737SOL    HW171044   1.339   2.322  11.427
89737SOL    HW271045   1.221   2.311  11.332
89738SOL     OW71046   2.603   7.927   3.026
89738SOL    HW171047   2.534   7.908   3.090
89738SOL    HW271048   2.583   7.871   2.951
89739SOL     OW71049   6.222  13.204  10.619
89739SOL    HW171050   6.171  13.248  10.550
89739SOL    HW271051   6.197  13.248  10.700
89740SOL     OW71052  11.859   8.443   1.123
89740SOL    HW171053  11.951   8.434   1.146
89740SOL    HW271054  11.858   8.443   1.027
89741SOL     OW71055   9.697   9.694   8.173
89741SOL    HW171056   9.706   9.730   8.261
89741SOL    HW271057   9.603   9.685   8.160
89742SOL     OW71058   2.607   0.263   4.751
89742SOL    HW171059   2.699   0.236   4.741
89742SOL    HW271060   2.606   0.355   4.726
89743SOL     OW71061   3.328  10.713   3.578
89743SOL    HW171062   3.419  10.733   3.558
89743SOL    HW271063   3.285  10.709   3.492
89744SOL     OW71064   4.078   7.534   8.668
89744SOL    HW171065   4.095   7.484   8.588
89744SOL    HW271066   3.985   7.519   8.686
89745SOL     OW71067  11.532  10.735   4.977
89745SOL    HW171068  11.547  10.827   4.955
89745SOL    HW271069  11.457  10.709   4.923
89746SOL     OW71070   8.151   1.825   5.092
89746SOL    HW171071   8.187   1.914   5.088
89746SOL    HW271072   8.186   1.781   5.015
89747SOL     OW71073   7.098  10.070  11.667
89747SOL    HW171074   7.172  10.076  11.727
89747SOL    HW271075   7.023  10.099  11.719
89748SOL     OW71076   7.058   4.860   3.655
89748SOL    HW171077   7.140   4.848   3.703
89748SOL    HW271078   6.990   4.841   3.719
89749SOL     OW71079  11.064  14.210  11.480
89749SOL    HW171080  11.082  14.189  11.389
89749SOL    HW271081  11.148  14.199  11.525
89750SOL     OW71082  11.717   8.810   4.942
89750SOL    HW171083  11.737   8.755   5.018
89750SOL    HW271084  11.718   8.749   4.868
89751SOL     OW71085  13.906   3.593  11.414
89751SOL    HW171086  13.975   3.658  11.400
89751SOL    HW271087  13.829   3.630  11.371
89752SOL     OW71088   3.147   1.746   0.164
89752SOL    HW171089   3.137   1.741   0.069
89752SOL    HW271090   3.058   1.738   0.198
89753SOL     OW71091  11.641  13.632   3.097
89753SOL    HW171092  11.554  13.653   3.130
89753SOL    HW271093  11.638  13.538   3.079
89754SOL     OW71094  10.225  11.318  11.353
89754SOL    HW171095  10.227  11.347  11.444
89754SOL    HW271096  10.145  11.355  11.317
89755SOL     OW71097   8.573   8.735  11.288
89755SOL    HW171098   8.519   8.811  11.307
89755SOL    HW271099   8.513   8.672  11.248
89756SOL     OW71100   7.129  13.629   0.672
89756SOL    HW171101   7.187  13.696   0.637
89756SOL    HW271102   7.053  13.631   0.614
89757SOL     OW71103   2.521  14.286   4.840
89757SOL    HW171104   2.563  14.246   4.764
89757SOL    HW271105   2.455  14.344   4.804
89758SOL     OW71106   2.119   5.728   4.903
89758SOL    HW171107   2.045   5.702   4.847
89758SOL    HW271108   2.081   5.743   4.989
89759SOL     OW71109   9.037  11.857   2.476
89759SOL    HW171110   9.070  11.768   2.476
89759SOL    HW271111   8.949  11.851   2.437
89760SOL     OW71112   9.515   5.820   0.016
89760SOL    HW171113   9.571   5.897   0.010
89760SOL    HW271114   9.575   5.746   0.002
89761SOL     OW71115   9.561   5.698   5.159
89761SOL    HW171116   9.522   5.743   5.084
89761SOL    HW271117   9.611   5.766   5.204
89762SOL     OW71118   7.864   3.325   5.243
89762SOL    HW171119   7.954   3.357   5.240
89762SOL    HW271120   7.811   3.404   5.252
89763SOL     OW71121   3.028  14.697   8.969
89763SOL    HW171122   3.098  14.761   8.956
89763SOL    HW271123   3.061  14.616   8.931
89764SOL     OW71124   6.101  12.825   3.927
89764SOL    HW171125   6.013  12.794   3.904
89764SOL    HW271126   6.099  12.919   3.907
89765SOL     OW71127   9.458   2.039   3.766
89765SOL    HW171128   9.429   1.955   3.802
89765SOL    HW271129   9.441   2.031   3.672
89766SOL     OW71130   8.839  13.327   7.476
89766SOL    HW171131   8.800  13.413   7.464
89766SOL    HW271132   8.765  13.266   7.477
89767SOL     OW71133   9.250  11.968   1.341
89767SOL    HW171134   9.196  11.932   1.412
89767SOL    HW271135   9.261  12.060   1.365
89768SOL     OW71136   8.538   0.232   1.704
89768SOL    HW171137   8.605   0.180   1.661
89768SOL    HW271138   8.455   0.195   1.673
89769SOL     OW71139   7.191   7.861  13.206
89769SOL    HW171140   7.250   7.888  13.276
89769SOL    HW271141   7.241   7.871  13.126
89770SOL     OW71142   3.724   7.942   2.083
89770SOL    HW171143   3.749   8.032   2.060
89770SOL    HW271144   3.643   7.952   2.133
89771SOL     OW71145   5.351  12.745   4.402
89771SOL    HW171146   5.336  12.682   4.472
89771SOL    HW271147   5.447  12.747   4.392
89772SOL     OW71148  13.890   6.420   2.081
89772SOL    HW171149  13.892   6.514   2.098
89772SOL    HW271150  13.808   6.406   2.034
89773SOL     OW71151   1.259   7.643  10.144
89773SOL    HW171152   1.246   7.735  10.169
89773SOL    HW271153   1.333   7.645  10.083
89774SOL     OW71154   9.385   9.650  11.742
89774SOL    HW171155   9.396   9.674  11.650
89774SOL    HW271156   9.461   9.688  11.785
89775SOL     OW71157  13.994  11.163  10.120
89775SOL    HW171158  13.904  11.140  10.142
89775SOL    HW271159  13.987  11.212  10.038
89776SOL     OW71160   0.221  10.479  13.110
89776SOL    HW171161   0.181  10.395  13.133
89776SOL    HW271162   0.147  10.539  13.104
89777SOL     OW71163   6.869  10.387   8.683
89777SOL    HW171164   6.911  10.320   8.738
89777SOL    HW271165   6.936  10.455   8.675
89778SOL     OW71166   6.705  11.340  13.292
89778SOL    HW171167   6.614  11.330  13.266
89778SOL    HW271168   6.709  11.425  13.337
89779SOL     OW71169   4.388   9.273   6.053
89779SOL    HW171170   4.371   9.192   6.005
89779SOL    HW271171   4.386   9.246   6.145
89780SOL     OW71172   9.574   9.510  12.876
89780SOL    HW171173   9.626   9.433  12.899
89780SOL    HW271174   9.536   9.539  12.959
89781SOL     OW71175  10.612   7.244   7.666
89781SOL    HW171176  10.661   7.325   7.678
89781SOL    HW271177  10.521   7.273   7.655
89782SOL     OW71178  10.158   0.862   3.365
89782SOL    HW171179  10.123   0.945   3.397
89782SOL    HW271180  10.221   0.834   3.431
89783SOL     OW71181   2.919  14.409   6.527
89783SOL    HW171182   2.834  14.448   6.510
89783SOL    HW271183   2.920  14.393   6.622
89784SOL     OW71184   4.215   3.570   1.548
89784SOL    HW171185   4.219   3.488   1.499
89784SOL    HW271186   4.164   3.550   1.626
89785SOL     OW71187  14.466  10.469   0.129
89785SOL    HW171188  14.434  10.470   0.219
89785SOL    HW271189  14.391  10.441   0.077
89786SOL     OW71190   1.482   6.329   8.519
89786SOL    HW171191   1.517   6.371   8.441
89786SOL    HW271192   1.552   6.271   8.549
89787SOL     OW71193  13.510   8.715   5.761
89787SOL    HW171194  13.508   8.777   5.688
89787SOL    HW271195  13.584   8.657   5.741
89788SOL     OW71196   1.185   5.113   6.846
89788SOL    HW171197   1.118   5.050   6.874
89788SOL    HW271198   1.217   5.151   6.928
89789SOL     OW71199   4.291  11.777   3.490
89789SOL    HW171200   4.303  11.689   3.452
89789SOL    HW271201   4.326  11.769   3.579
89790SOL     OW71202   2.313   5.260  12.381
89790SOL    HW171203   2.270   5.198  12.322
89790SOL    HW271204   2.291   5.346  12.347
89791SOL     OW71205   2.184  14.852  11.865
89791SOL    HW171206   2.156   0.003  11.951
89791SOL    HW271207   2.242   0.042  11.833
89792SOL     OW71208   6.426  10.300   6.157
89792SOL    HW171209   6.513  10.259   6.166
89792SOL    HW271210   6.401  10.285   6.066
89793SOL     OW71211   6.345   6.074   8.749
89793SOL    HW171212   6.438   6.067   8.770
89793SOL    HW271213   6.307   6.124   8.821
89794SOL     OW71214  13.169   4.874   4.534
89794SOL    HW171215  13.121   4.850   4.613
89794SOL    HW271216  13.111   4.935   4.488
89795SOL     OW71217  13.486  10.818   8.716
89795SOL    HW171218  13.510  10.910   8.732
89795SOL    HW271219  13.570  10.772   8.714
89796SOL     OW71220   0.635   7.861   6.472
89796SOL    HW171221   0.658   7.953   6.486
89796SOL    HW271222   0.645   7.848   6.378
89797SOL     OW71223   6.793   5.592   5.991
89797SOL    HW171224   6.849   5.567   5.917
89797SOL    HW271225   6.854   5.626   6.056
89798SOL     OW71226   7.946   1.649   5.238
89798SOL    HW171227   7.910   1.614   5.157
89798SOL    HW271228   8.022   1.702   5.210
89799SOL     OW71229  13.332   3.907   3.138
89799SOL    HW171230  13.398   3.974   3.159
89799SOL    HW271231  13.360   3.830   3.188
89800SOL     OW71232  10.222   7.018  11.948
89800SOL    HW171233  10.277   7.074  11.894
89800SOL    HW271234  10.178   6.960  11.886
89801SOL     OW71235   1.656   4.593  11.142
89801SOL    HW171236   1.702   4.562  11.064
89801SOL    HW271237   1.720   4.585  11.213
89802SOL     OW71238   7.924   5.770  13.906
89802SOL    HW171239   7.843   5.755  13.955
89802SOL    HW271240   7.970   5.686  13.908
89803SOL     OW71241   3.475   4.718   9.084
89803SOL    HW171242   3.510   4.706   8.996
89803SOL    HW271243   3.449   4.631   9.112
89804SOL     OW71244   2.008   9.820  11.945
89804SOL    HW171245   2.056   9.863  11.874
89804SOL    HW271246   2.061   9.744  11.967
89805SOL     OW71247   9.678   0.613   1.503
89805SOL    HW171248   9.660   0.567   1.585
89805SOL    HW271249   9.723   0.693   1.530
89806SOL     OW71250   1.219   1.713  11.352
89806SOL    HW171251   1.310   1.685  11.344
89806SOL    HW271252   1.205   1.772  11.278
89807SOL     OW71253   1.006  10.784   3.600
89807SOL    HW171254   0.967  10.838   3.668
89807SOL    HW271255   0.989  10.694   3.630
89808SOL     OW71256  12.476   3.244   5.881
89808SOL    HW171257  12.562   3.214   5.852
89808SOL    HW271258  12.463   3.328   5.836
89809SOL     OW71259   7.469   9.966  11.057
89809SOL    HW171260   7.391   9.937  11.104
89809SOL    HW271261   7.499   9.889  11.009
89810SOL     OW71262  13.551  13.131   6.544
89810SOL    HW171263  13.583  13.066   6.606
89810SOL    HW271264  13.593  13.107   6.461
89811SOL     OW71265   7.995   0.896  13.874
89811SOL    HW171266   7.901   0.882  13.880
89811SOL    HW271267   8.022   0.913  13.964
89812SOL     OW71268  11.430   5.950  14.650
89812SOL    HW171269  11.353   5.898  14.675
89812SOL    HW271270  11.429   6.023  14.711
89813SOL     OW71271  13.633   1.923   8.636
89813SOL    HW171272  13.717   1.941   8.678
89813SOL    HW271273  13.629   1.828   8.628
89814SOL     OW71274   1.396   5.247   6.646
89814SOL    HW171275   1.382   5.189   6.572
89814SOL    HW271276   1.315   5.243   6.696
89815SOL     OW71277  14.712  11.654   2.926
89815SOL    HW171278  14.745  11.639   2.838
89815SOL    HW271279  14.643  11.590   2.938
89816SOL     OW71280   5.258   3.449  12.592
89816SOL    HW171281   5.336   3.501  12.575
89816SOL    HW271282   5.291   3.368  12.630
89817SOL     OW71283   0.992   0.692   5.381
89817SOL    HW171284   0.950   0.681   5.296
89817SOL    HW271285   1.062   0.628   5.382
89818SOL     OW71286   4.610  13.854  11.553
89818SOL    HW171287   4.648  13.923  11.607
89818SOL    HW271288   4.620  13.775  11.606
89819SOL     OW71289   6.553   6.840   3.019
89819SOL    HW171290   6.559   6.936   3.018
89819SOL    HW271291   6.482   6.821   2.957
89820SOL     OW71292  11.961   9.168   9.784
89820SOL    HW171293  12.034   9.132   9.834
89820SOL    HW271294  11.884   9.123   9.818
89821SOL     OW71295   7.370   7.309   6.270
89821SOL    HW171296   7.307   7.274   6.208
89821SOL    HW271297   7.444   7.338   6.215
89822SOL     OW71298  14.600   2.454   2.432
89822SOL    HW171299  14.667   2.521   2.413
89822SOL    HW271300  14.557   2.486   2.512
89823SOL     OW71301   1.810  10.886   7.750
89823SOL    HW171302   1.794  10.875   7.844
89823SOL    HW271303   1.901  10.859   7.738
89824SOL     OW71304   3.953   1.144   6.845
89824SOL    HW171305   3.928   1.224   6.892
89824SOL    HW271306   3.878   1.125   6.788
89825SOL     OW71307  14.200   3.476   0.600
89825SOL    HW171308  14.231   3.452   0.513
89825SOL    HW271309  14.107   3.494   0.588
89826SOL     OW71310   4.767   9.208  11.539
89826SOL    HW171311   4.793   9.182  11.627
89826SOL    HW271312   4.849   9.211  11.490
89827SOL     OW71313   9.273   9.609   3.606
89827SOL    HW171314   9.206   9.580   3.667
89827SOL    HW271315   9.255   9.702   3.592
89828SOL     OW71316   9.384   0.944  10.644
89828SOL    HW171317   9.314   0.879  10.650
89828SOL    HW271318   9.431   0.936  10.727
89829SOL     OW71319  11.164   1.261   2.620
89829SOL    HW171320  11.103   1.312   2.674
89829SOL    HW271321  11.238   1.243   2.677
89830SOL     OW71322   1.296   1.905   2.704
89830SOL    HW171323   1.337   1.877   2.786
89830SOL    HW271324   1.369   1.935   2.650
89831SOL     OW71325   4.346   3.600   6.582
89831SOL    HW171326   4.363   3.510   6.609
89831SOL    HW271327   4.335   3.595   6.487
89832SOL     OW71328   4.125   2.779  11.477
89832SOL    HW171329   4.198   2.837  11.454
89832SOL    HW271330   4.059   2.795  11.410
89833SOL     OW71331  10.996  11.445   7.289
89833SOL    HW171332  11.027  11.387   7.219
89833SOL    HW271333  10.996  11.390   7.367
89834SOL     OW71334   0.227   8.631   2.335
89834SOL    HW171335   0.169   8.555   2.323
89834SOL    HW271336   0.174   8.706   2.309
89835SOL     OW71337  10.996  14.178   9.118
89835SOL    HW171338  10.938  14.164   9.193
89835SOL    HW271339  10.944  14.153   9.042
89836SOL     OW71340   0.500   7.891  14.040
89836SOL    HW171341   0.513   7.965  13.980
89836SOL    HW271342   0.585   7.881  14.083
89837SOL     OW71343   8.267   6.748  12.744
89837SOL    HW171344   8.177   6.778  12.738
89837SOL    HW271345   8.304   6.762  12.657
89838SOL     OW71346  10.754  10.503   6.907
89838SOL    HW171347  10.757  10.411   6.931
89838SOL    HW271348  10.672  10.512   6.858
89839SOL     OW71349   4.699   9.864  12.951
89839SOL    HW171350   4.712   9.886  12.858
89839SOL    HW271351   4.753   9.928  12.998
89840SOL     OW71352   3.009   5.748   3.710
89840SOL    HW171353   3.010   5.800   3.629
89840SOL    HW271354   3.100   5.725   3.726
89841SOL     OW71355   9.691   6.045  11.479
89841SOL    HW171356   9.763   6.061  11.539
89841SOL    HW271357   9.621   6.010  11.535
89842SOL     OW71358   3.265   9.813   2.494
89842SOL    HW171359   3.290   9.849   2.409
89842SOL    HW271360   3.313   9.731   2.501
89843SOL     OW71361   2.073  10.249  13.691
89843SOL    HW171362   2.123  10.172  13.665
89843SOL    HW271363   2.075  10.248  13.787
89844SOL     OW71364   6.769   0.766   0.232
89844SOL    HW171365   6.729   0.681   0.211
89844SOL    HW271366   6.817   0.790   0.153
89845SOL     OW71367   4.924  12.994   4.966
89845SOL    HW171368   4.942  13.021   5.056
89845SOL    HW271369   4.829  13.002   4.958
89846SOL     OW71370  12.865  11.547   2.757
89846SOL    HW171371  12.850  11.624   2.812
89846SOL    HW271372  12.897  11.480   2.818
89847SOL     OW71373  12.209  10.451  11.450
89847SOL    HW171374  12.302  10.430  11.451
89847SOL    HW271375  12.165  10.366  11.459
89848SOL     OW71376  12.793   3.397   1.091
89848SOL    HW171377  12.778   3.488   1.115
89848SOL    HW271378  12.723   3.349   1.135
89849SOL     OW71379   1.233  13.363   3.030
89849SOL    HW171380   1.238  13.305   2.954
89849SOL    HW271381   1.144  13.352   3.064
89850SOL     OW71382   4.071   4.696   5.192
89850SOL    HW171383   3.977   4.704   5.176
89850SOL    HW271384   4.084   4.603   5.210
89851SOL     OW71385   5.994   8.217  11.943
89851SOL    HW171386   5.962   8.305  11.921
89851SOL    HW271387   6.006   8.219  12.038
89852SOL     OW71388  14.319   2.366   5.272
89852SOL    HW171389  14.253   2.298   5.281
89852SOL    HW271390  14.401   2.318   5.260
89853SOL     OW71391   9.025   4.583   0.059
89853SOL    HW171392   8.989   4.496   0.042
89853SOL    HW271393   8.953   4.643   0.037
89854SOL     OW71394   6.403   3.729   0.653
89854SOL    HW171395   6.393   3.635   0.637
89854SOL    HW271396   6.497   3.745   0.648
89855SOL     OW71397   8.739   0.643  11.459
89855SOL    HW171398   8.758   0.686  11.543
89855SOL    HW271399   8.798   0.687  11.397
89856SOL     OW71400   7.880   9.558   1.286
89856SOL    HW171401   7.795   9.519   1.267
89856SOL    HW271402   7.872   9.649   1.257
89857SOL     OW71403  14.693   5.915  10.356
89857SOL    HW171404  14.667   5.830  10.391
89857SOL    HW271405  14.639   5.978  10.403
89858SOL     OW71406  13.415   7.225   1.121
89858SOL    HW171407  13.350   7.294   1.136
89858SOL    HW271408  13.497   7.263   1.151
89859SOL     OW71409   2.584   7.706   6.238
89859SOL    HW171410   2.673   7.689   6.207
89859SOL    HW271411   2.531   7.642   6.190
89860SOL     OW71412   1.487   0.560   8.487
89860SOL    HW171413   1.480   0.465   8.483
89860SOL    HW271414   1.558   0.582   8.427
89861SOL     OW71415   9.135   3.149   3.726
89861SOL    HW171416   9.210   3.196   3.763
89861SOL    HW271417   9.059   3.186   3.771
89862SOL     OW71418  11.286   7.949   7.482
89862SOL    HW171419  11.243   7.991   7.556
89862SOL    HW271420  11.218   7.894   7.442
89863SOL     OW71421  12.520   7.788   6.945
89863SOL    HW171422  12.442   7.778   6.890
89863SOL    HW271423  12.538   7.882   6.945
89864SOL     OW71424   2.049   4.890  14.674
89864SOL    HW171425   2.100   4.925  14.601
89864SOL    HW271426   2.112   4.842  14.727
89865SOL     OW71427  13.176   0.564   2.326
89865SOL    HW171428  13.134   0.603   2.250
89865SOL    HW271429  13.109   0.566   2.394
89866SOL     OW71430  12.298   4.993   6.119
89866SOL    HW171431  12.246   4.913   6.127
89866SOL    HW271432  12.302   5.028   6.208
89867SOL     OW71433   0.342   6.661  14.822
89867SOL    HW171434   0.354   6.674   0.037
89867SOL    HW271435   0.383   6.577  14.804
89868SOL     OW71436   8.593   5.381   3.727
89868SOL    HW171437   8.510   5.425   3.742
89868SOL    HW271438   8.622   5.353   3.813
89869SOL     OW71439   2.486  13.191   1.988
89869SOL    HW171440   2.545  13.249   1.941
89869SOL    HW271441   2.443  13.139   1.920
89870SOL     OW71442  14.429  10.894  12.402
89870SOL    HW171443  14.523  10.879  12.411
89870SOL    HW271444  14.417  10.917  12.310
89871SOL     OW71445   0.858   6.377  11.837
89871SOL    HW171446   0.916   6.450  11.816
89871SOL    HW271447   0.832   6.343  11.751
89872SOL     OW71448   8.950   0.033   9.138
89872SOL    HW171449   8.902  14.831   9.118
89872SOL    HW271450   8.946   0.084   9.057
89873SOL     OW71451   1.420   0.712  11.508
89873SOL    HW171452   1.371   0.732  11.588
89873SOL    HW271453   1.510   0.738  11.529
89874SOL     OW71454  11.056  11.862   1.552
89874SOL    HW171455  11.034  11.772   1.529
89874SOL    HW271456  11.125  11.854   1.618
89875SOL     OW71457   6.633   1.820   7.951
89875SOL    HW171458   6.679   1.895   7.987
89875SOL    HW271459   6.643   1.751   8.016
89876SOL     OW71460   0.589   5.936   3.574
89876SOL    HW171461   0.606   5.969   3.486
89876SOL    HW271462   0.581   5.841   3.563
89877SOL     OW71463  10.279   8.439   3.363
89877SOL    HW171464  10.210   8.374   3.378
89877SOL    HW271465  10.258   8.511   3.422
89878SOL     OW71466   9.946  12.315  10.161
89878SOL    HW171467  10.005  12.280  10.227
89878SOL    HW271468   9.873  12.252  10.159
89879SOL     OW71469   4.023   5.703   0.078
89879SOL    HW171470   4.118   5.711   0.074
89879SOL    HW271471   4.004   5.623   0.028
89880SOL     OW71472   5.064   4.131   8.351
89880SOL    HW171473   5.058   4.223   8.378
89880SOL    HW271474   5.056   4.081   8.432
89881SOL     OW71475   6.635  14.231   5.475
89881SOL    HW171476   6.670  14.163   5.416
89881SOL    HW271477   6.547  14.199   5.498
89882SOL     OW71478  13.417  10.312   0.856
89882SOL    HW171479  13.415  10.403   0.824
89882SOL    HW271480  13.448  10.319   0.946
89883SOL     OW71481  14.635  12.429   5.797
89883SOL    HW171482  14.579  12.491   5.844
89883SOL    HW271483  14.723  12.467   5.803
89884SOL     OW71484   6.903   5.434   2.976
89884SOL    HW171485   6.987   5.418   3.020
89884SOL    HW271486   6.843   5.370   3.014
89885SOL     OW71487   9.518   0.815  10.297
89885SOL    HW171488   9.478   0.735  10.331
89885SOL    HW271489   9.583   0.840  10.363
89886SOL     OW71490   3.809  10.717   3.327
89886SOL    HW171491   3.832  10.753   3.242
89886SOL    HW271492   3.833  10.625   3.322
89887SOL     OW71493   7.679  14.408   1.657
89887SOL    HW171494   7.636  14.331   1.696
89887SOL    HW271495   7.668  14.397   1.563
89888SOL     OW71496   0.712  14.665   5.294
89888SOL    HW171497   0.659  14.713   5.231
89888SOL    HW271498   0.676  14.576   5.294
89889SOL     OW71499  11.969   7.634  14.323
89889SOL    HW171500  11.970   7.595  14.235
89889SOL    HW271501  11.882   7.614  14.357
89890SOL     OW71502   6.493  12.182  13.014
89890SOL    HW171503   6.584  12.199  13.040
89890SOL    HW271504   6.451  12.149  13.093
89891SOL     OW71505   7.624  12.214   0.185
89891SOL    HW171506   7.663  12.193   0.270
89891SOL    HW271507   7.651  12.304   0.167
89892SOL     OW71508   8.774   2.544  11.304
89892SOL    HW171509   8.793   2.505  11.219
89892SOL    HW271510   8.696   2.498  11.335
89893SOL     OW71511   4.485   6.449   4.812
89893SOL    HW171512   4.574   6.485   4.815
89893SOL    HW271513   4.484   6.383   4.881
89894SOL     OW71514   8.943   4.680  12.281
89894SOL    HW171515   8.858   4.689  12.325
89894SOL    HW271516   8.955   4.763  12.235
89895SOL     OW71517  11.530   6.841  10.740
89895SOL    HW171518  11.486   6.848  10.824
89895SOL    HW271519  11.600   6.777  10.754
89896SOL     OW71520   0.064   5.240  12.384
89896SOL    HW171521   0.046   5.319  12.333
89896SOL    HW271522   0.126   5.268  12.451
89897SOL     OW71523   3.701   6.742  12.570
89897SOL    HW171524   3.744   6.763  12.487
89897SOL    HW271525   3.706   6.823  12.621
89898SOL     OW71526  14.350   5.817   6.743
89898SOL    HW171527  14.360   5.861   6.827
89898SOL    HW271528  14.308   5.882   6.687
89899SOL     OW71529   0.588   3.176   7.606
89899SOL    HW171530   0.576   3.166   7.511
89899SOL    HW271531   0.657   3.114   7.628
89900SOL     OW71532   4.822   2.822   8.347
89900SOL    HW171533   4.821   2.777   8.262
89900SOL    HW271534   4.731   2.846   8.362
89901SOL     OW71535  12.103  14.345   6.426
89901SOL    HW171536  12.057  14.423   6.458
89901SOL    HW271537  12.181  14.339   6.481
89902SOL     OW71538   4.921   7.195  12.402
89902SOL    HW171539   4.893   7.272  12.353
89902SOL    HW271540   4.946   7.228  12.488
89903SOL     OW71541   3.295   3.293  13.682
89903SOL    HW171542   3.386   3.264  13.669
89903SOL    HW271543   3.251   3.268  13.601
89904SOL     OW71544   9.655  13.616   4.419
89904SOL    HW171545   9.691  13.537   4.378
89904SOL    HW271546   9.587  13.583   4.478
89905SOL     OW71547  10.424   1.426   9.796
89905SOL    HW171548  10.502   1.426   9.739
89905SOL    HW271549  10.354   1.392   9.741
89906SOL     OW71550   0.374   8.713   6.879
89906SOL    HW171551   0.434   8.727   6.952
89906SOL    HW271552   0.344   8.801   6.855
89907SOL     OW71553  13.118   8.057   6.947
89907SOL    HW171554  13.058   8.056   7.022
89907SOL    HW271555  13.082   8.124   6.889
89908SOL     OW71556   3.690   8.886   2.841
89908SOL    HW171557   3.686   8.808   2.897
89908SOL    HW271558   3.768   8.871   2.787
89909SOL     OW71559   5.679   2.377   5.644
89909SOL    HW171560   5.707   2.288   5.620
89909SOL    HW271561   5.756   2.432   5.624
89910SOL     OW71562  10.692   9.503  13.864
89910SOL    HW171563  10.675   9.462  13.780
89910SOL    HW271564  10.716   9.430  13.922
89911SOL     OW71565   5.333  12.038  12.877
89911SOL    HW171566   5.360  12.117  12.830
89911SOL    HW271567   5.407  11.978  12.867
89912SOL     OW71568   6.716   4.669   6.442
89912SOL    HW171569   6.645   4.605   6.436
89912SOL    HW271570   6.794   4.617   6.460
89913SOL     OW71571   0.325   7.082   6.189
89913SOL    HW171572   0.331   6.986   6.196
89913SOL    HW271573   0.232   7.101   6.197
89914SOL     OW71574  13.213   9.895   6.495
89914SOL    HW171575  13.120   9.880   6.515
89914SOL    HW271576  13.254   9.810   6.511
89915SOL     OW71577  14.408  10.700   0.455
89915SOL    HW171578  14.457  10.781   0.444
89915SOL    HW271579  14.474  10.634   0.476
89916SOL     OW71580   8.792  13.398   8.390
89916SOL    HW171581   8.828  13.310   8.382
89916SOL    HW271582   8.751  13.400   8.476
89917SOL     OW71583   8.743   3.308   2.626
89917SOL    HW171584   8.657   3.267   2.616
89917SOL    HW271585   8.742   3.346   2.713
89918SOL     OW71586   2.077  12.726   1.946
89918SOL    HW171587   1.993  12.770   1.930
89918SOL    HW271588   2.125  12.786   2.003
89919SOL     OW71589   4.141  12.054   2.746
89919SOL    HW171590   4.145  12.051   2.841
89919SOL    HW271591   4.232  12.053   2.718
89920SOL     OW71592  12.977   6.177   2.117
89920SOL    HW171593  13.038   6.154   2.047
89920SOL    HW271594  12.913   6.236   2.075
89921SOL     OW71595   6.556   5.750  13.144
89921SOL    HW171596   6.465   5.754  13.117
89921SOL    HW271597   6.564   5.668  13.192
89922SOL     OW71598   4.087   8.757  11.067
89922SOL    HW171599   4.002   8.801  11.063
89922SOL    HW271600   4.105   8.751  11.161
89923SOL     OW71601   7.820   8.102   2.185
89923SOL    HW171602   7.914   8.087   2.197
89923SOL    HW271603   7.807   8.096   2.090
89924SOL     OW71604   2.266   2.108   9.530
89924SOL    HW171605   2.257   2.202   9.541
89924SOL    HW271606   2.183   2.071   9.560
89925SOL     OW71607  12.140  10.156   4.265
89925SOL    HW171608  12.149  10.087   4.200
89925SOL    HW271609  12.109  10.111   4.344
89926SOL     OW71610  10.214  14.139   8.534
89926SOL    HW171611  10.307  14.160   8.537
89926SOL    HW271612  10.174  14.215   8.492
89927SOL     OW71613   8.779   8.103  11.752
89927SOL    HW171614   8.727   8.065  11.682
89927SOL    HW271615   8.831   8.030  11.786
89928SOL     OW71616  13.482   8.292  13.498
89928SOL    HW171617  13.488   8.304  13.593
89928SOL    HW271618  13.419   8.357  13.469
89929SOL     OW71619  13.259   0.487  14.814
89929SOL    HW171620  13.268   0.566  14.761
89929SOL    HW271621  13.272   0.415  14.753
89930SOL     OW71622   1.580   6.004   4.200
89930SOL    HW171623   1.652   5.946   4.179
89930SOL    HW271624   1.556   6.044   4.116
89931SOL     OW71625   1.695   7.688   2.076
89931SOL    HW171626   1.636   7.617   2.053
89931SOL    HW271627   1.638   7.765   2.084
89932SOL     OW71628  12.935  13.250   4.997
89932SOL    HW171629  13.026  13.246   4.968
89932SOL    HW271630  12.899  13.326   4.952
89933SOL     OW71631   4.217   0.370   0.474
89933SOL    HW171632   4.268   0.364   0.554
89933SOL    HW271633   4.142   0.312   0.488
89934SOL     OW71634   0.606   1.751   1.281
89934SOL    HW171635   0.546   1.798   1.223
89934SOL    HW271636   0.549   1.697   1.336
89935SOL     OW71637   2.860  11.145   1.365
89935SOL    HW171638   2.938  11.117   1.319
89935SOL    HW271639   2.883  11.230   1.404
89936SOL     OW71640   7.776  12.539   2.296
89936SOL    HW171641   7.761  12.533   2.202
89936SOL    HW271642   7.866  12.570   2.305
89937SOL     OW71643  13.738   5.003  14.378
89937SOL    HW171644  13.713   4.914  14.401
89937SOL    HW271645  13.815   5.021  14.432
89938SOL     OW71646   4.987   7.595  10.296
89938SOL    HW171647   5.042   7.559  10.366
89938SOL    HW271648   5.015   7.547  10.217
89939SOL     OW71649   3.847   0.921   9.477
89939SOL    HW171650   3.875   0.972   9.553
89939SOL    HW271651   3.856   0.830   9.505
89940SOL     OW71652   3.849   0.835  10.656
89940SOL    HW171653   3.768   0.884  10.646
89940SOL    HW271654   3.829   0.747  10.625
89941SOL     OW71655  14.252   2.951   4.757
89941SOL    HW171656  14.299   2.868   4.745
89941SOL    HW271657  14.210   2.967   4.672
89942SOL     OW71658   1.711  11.103   3.489
89942SOL    HW171659   1.652  11.031   3.466
89942SOL    HW271660   1.656  11.181   3.486
89943SOL     OW71661  12.132   1.396   1.100
89943SOL    HW171662  12.149   1.303   1.086
89943SOL    HW271663  12.189   1.440   1.036
89944SOL     OW71664  11.445   1.869  13.929
89944SOL    HW171665  11.417   1.941  13.874
89944SOL    HW271666  11.486   1.807  13.869
89945SOL     OW71667   6.767  13.575   8.141
89945SOL    HW171668   6.805  13.488   8.131
89945SOL    HW271669   6.697  13.578   8.076
89946SOL     OW71670  13.395  14.544   2.937
89946SOL    HW171671  13.382  14.523   3.030
89946SOL    HW271672  13.307  14.565   2.905
89947SOL     OW71673   5.158   9.003   8.852
89947SOL    HW171674   5.183   8.911   8.855
89947SOL    HW271675   5.220   9.046   8.912
89948SOL     OW71676   9.378  11.686   2.283
89948SOL    HW171677   9.305  11.624   2.277
89948SOL    HW271678   9.363  11.748   2.212
89949SOL     OW71679   5.161   6.715  12.368
89949SOL    HW171680   5.135   6.789  12.422
89949SOL    HW271681   5.112   6.641  12.404
89950SOL     OW71682  13.554   8.152   9.290
89950SOL    HW171683  13.513   8.207   9.357
89950SOL    HW271684  13.611   8.093   9.340
89951SOL     OW71685  11.732   1.787   5.055
89951SOL    HW171686  11.736   1.692   5.046
89951SOL    HW271687  11.668   1.815   4.989
89952SOL     OW71688  11.836  13.348   8.414
89952SOL    HW171689  11.830  13.418   8.350
89952SOL    HW271690  11.860  13.270   8.363
89953SOL     OW71691  10.369   0.282   3.066
89953SOL    HW171692  10.426   0.206   3.077
89953SOL    HW271693  10.283   0.244   3.047
89954SOL     OW71694  14.561  14.635   2.402
89954SOL    HW171695  14.619  14.710   2.413
89954SOL    HW271696  14.536  14.611   2.492
89955SOL     OW71697   6.791   1.382   5.182
89955SOL    HW171698   6.842   1.344   5.110
89955SOL    HW271699   6.744   1.307   5.220
89956SOL     OW71700   9.060   1.170  14.538
89956SOL    HW171701   9.038   1.095  14.593
89956SOL    HW271702   9.037   1.247  14.591
89957SOL     OW71703  14.681   5.123   3.472
89957SOL    HW171704  14.587   5.134   3.485
89957SOL    HW271705  14.717   5.116   3.560
89958SOL     OW71706  13.528   6.265   2.836
89958SOL    HW171707  13.449   6.317   2.850
89958SOL    HW271708  13.505   6.177   2.865
89959SOL     OW71709  12.712   6.804   2.421
89959SOL    HW171710  12.758   6.809   2.337
89959SOL    HW271711  12.633   6.752   2.402
89960SOL     OW71712  12.770  14.158   3.090
89960SOL    HW171713  12.849  14.140   3.142
89960SOL    HW271714  12.709  14.197   3.153
89961SOL     OW71715  14.358  11.835   5.018
89961SOL    HW171716  14.399  11.749   5.011
89961SOL    HW271717  14.429  11.896   4.997
89962SOL     OW71718   8.723  13.815   4.996
89962SOL    HW171719   8.692  13.735   4.956
89962SOL    HW271720   8.687  13.885   4.942
89963SOL     OW71721   5.486   1.694   1.627
89963SOL    HW171722   5.447   1.763   1.681
89963SOL    HW271723   5.508   1.624   1.689
89964SOL     OW71724  13.403   7.722   6.481
89964SOL    HW171725  13.434   7.713   6.571
89964SOL    HW271726  13.309   7.742   6.489
89965SOL     OW71727  13.552  14.101   2.602
89965SOL    HW171728  13.522  14.156   2.530
89965SOL    HW271729  13.475  14.093   2.660
89966SOL     OW71730  11.653  14.193  14.606
89966SOL    HW171731  11.712  14.184  14.531
89966SOL    HW271732  11.584  14.129  14.591
89967SOL     OW71733   7.045   3.511   7.942
89967SOL    HW171734   7.088   3.545   8.021
89967SOL    HW271735   6.972   3.571   7.927
89968SOL     OW71736   9.774  14.756   6.849
89968SOL    HW171737   9.758  14.774   6.757
89968SOL    HW271738   9.869  14.762   6.859
89969SOL     OW71739   8.376   6.308   9.677
89969SOL    HW171740   8.420   6.256   9.610
89969SOL    HW271741   8.299   6.256   9.701
89970SOL     OW71742   8.275   1.877   8.437
89970SOL    HW171743   8.286   1.805   8.498
89970SOL    HW271744   8.286   1.838   8.351
89971SOL     OW71745   6.957   4.292   7.862
89971SOL    HW171746   6.919   4.261   7.944
89971SOL    HW271747   6.955   4.388   7.869
89972SOL     OW71748   3.806   8.465  13.697
89972SOL    HW171749   3.733   8.407  13.718
89972SOL    HW271750   3.803   8.474  13.602
89973SOL     OW71751   7.952   9.294   6.116
89973SOL    HW171752   7.965   9.374   6.167
89973SOL    HW271753   7.879   9.315   6.058
89974SOL     OW71754  13.534   0.957   4.789
89974SOL    HW171755  13.510   0.938   4.699
89974SOL    HW271756  13.517   0.875   4.837
89975SOL     OW71757   2.006  13.648  12.039
89975SOL    HW171758   2.084  13.595  12.055
89975SOL    HW271759   1.945  13.589  11.996
89976SOL     OW71760   5.356  10.130  11.970
89976SOL    HW171761   5.411  10.150  12.046
89976SOL    HW271762   5.318  10.214  11.945
89977SOL     OW71763   4.831  13.441   1.139
89977SOL    HW171764   4.918  13.403   1.146
89977SOL    HW271765   4.839  13.527   1.179
89978SOL     OW71766   9.714  12.838   6.138
89978SOL    HW171767   9.800  12.869   6.166
89978SOL    HW271768   9.731  12.757   6.090
89979SOL     OW71769   8.138   0.360  12.328
89979SOL    HW171770   8.126   0.401  12.243
89979SOL    HW271771   8.049   0.343  12.360
89980SOL     OW71772  14.744   0.363  14.741
89980SOL    HW171773  14.747   0.278  14.697
89980SOL    HW271774  14.836   0.384  14.759
89981SOL     OW71775   0.351  12.344  12.920
89981SOL    HW171776   0.338  12.422  12.866
89981SOL    HW271777   0.269  12.295  12.911
89982SOL     OW71778   6.361  12.239   1.725
89982SOL    HW171779   6.445  12.284   1.735
89982SOL    HW271780   6.382  12.162   1.672
89983SOL     OW71781  12.358   5.502   3.060
89983SOL    HW171782  12.273   5.540   3.042
89983SOL    HW271783  12.351   5.411   3.031
89984SOL     OW71784  10.379   4.057  10.004
89984SOL    HW171785  10.380   4.107  10.086
89984SOL    HW271786  10.441   4.103   9.947
89985SOL     OW71787   8.580   6.025   4.032
89985SOL    HW171788   8.499   6.074   4.016
89985SOL    HW271789   8.639   6.055   3.963
89986SOL     OW71790  11.566   6.094   7.577
89986SOL    HW171791  11.604   6.174   7.612
89986SOL    HW271792  11.473   6.101   7.595
89987SOL     OW71793   3.049  10.084   7.568
89987SOL    HW171794   3.062  10.177   7.551
89987SOL    HW271795   3.011  10.050   7.487
89988SOL     OW71796  13.506   1.895   3.979
89988SOL    HW171797  13.574   1.839   3.943
89988SOL    HW271798  13.430   1.880   3.922
89989SOL     OW71799   9.118   9.805   3.277
89989SOL    HW171800   9.075   9.890   3.266
89989SOL    HW271801   9.055   9.753   3.325
89990SOL     OW71802   2.685   2.170   7.810
89990SOL    HW171803   2.733   2.160   7.892
89990SOL    HW271804   2.724   2.107   7.750
89991SOL     OW71805  14.813   9.375   8.820
89991SOL    HW171806  14.750   9.347   8.887
89991SOL    HW271807  14.763   9.372   8.738
89992SOL     OW71808  13.913   9.237  10.556
89992SOL    HW171809  13.921   9.310  10.618
89992SOL    HW271810  13.997   9.235  10.511
89993SOL     OW71811   4.024   7.501  13.512
89993SOL    HW171812   4.016   7.537  13.424
89993SOL    HW271813   3.991   7.411  13.504
89994SOL     OW71814   3.583  11.621  11.335
89994SOL    HW171815   3.523  11.690  11.364
89994SOL    HW271816   3.535  11.539  11.350
89995SOL     OW71817   4.440   8.410  13.933
89995SOL    HW171818   4.534   8.400  13.945
89995SOL    HW271819   4.431   8.454  13.849
89996SOL     OW71820   3.815   6.889  14.658
89996SOL    HW171821   3.725   6.858  14.651
89996SOL    HW271822   3.868   6.810  14.650
89997SOL     OW71823   1.986   0.382  11.886
89997SOL    HW171824   1.916   0.386  11.951
89997SOL    HW271825   1.948   0.334  11.812
89998SOL     OW71826   8.521   6.566   0.505
89998SOL    HW171827   8.588   6.634   0.516
89998SOL    HW271828   8.483   6.584   0.419
89999SOL     OW71829  11.598   8.848   1.097
89999SOL    HW171830  11.505   8.830   1.083
89999SOL    HW271831  11.638   8.762   1.111
90000SOL     OW71832   3.155   8.403  11.397
90000SOL    HW171833   3.172   8.452  11.477
90000SOL    HW271834   3.235   8.352  11.383
90001SOL     OW71835   9.416   5.735   5.819
90001SOL    HW171836   9.511   5.751   5.817
90001SOL    HW271837   9.408   5.639   5.823
90002SOL     OW71838   9.967   5.225   0.548
90002SOL    HW171839   9.903   5.289   0.581
90002SOL    HW271840   9.954   5.225   0.453
90003SOL     OW71841  12.012   7.352   1.115
90003SOL    HW171842  12.016   7.354   1.019
90003SOL    HW271843  12.029   7.443   1.141
90004SOL     OW71844   2.602  13.494   0.716
90004SOL    HW171845   2.688  13.489   0.675
90004SOL    HW271846   2.542  13.515   0.644
90005SOL     OW71847  11.336   6.444   6.287
90005SOL    HW171848  11.370   6.355   6.285
90005SOL    HW271849  11.414   6.500   6.287
90006SOL     OW71850  13.314   3.133   6.475
90006SOL    HW171851  13.272   3.054   6.443
90006SOL    HW271852  13.407   3.112   6.478
90007SOL     OW71853   6.830   4.797   4.429
90007SOL    HW171854   6.889   4.832   4.362
90007SOL    HW271855   6.809   4.872   4.485
90008SOL     OW71856  12.135   9.231   8.845
90008SOL    HW171857  12.178   9.249   8.928
90008SOL    HW271858  12.078   9.307   8.830
90009SOL     OW71859   6.522   3.120  10.987
90009SOL    HW171860   6.486   3.172  11.059
90009SOL    HW271861   6.592   3.069  11.027
90010SOL     OW71862  10.277   0.858  14.422
90010SOL    HW171863  10.353   0.884  14.474
90010SOL    HW271864  10.251   0.938  14.377
90011SOL     OW71865   6.634   7.878  14.105
90011SOL    HW171866   6.664   7.791  14.079
90011SOL    HW271867   6.664   7.887  14.196
90012SOL     OW71868   3.108   2.079  10.868
90012SOL    HW171869   3.147   2.081  10.781
90012SOL    HW271870   3.061   1.996  10.872
90013SOL     OW71871   5.239   1.969  13.678
90013SOL    HW171872   5.146   1.946  13.677
90013SOL    HW271873   5.249   2.025  13.755
90014SOL     OW71874  13.128   2.419   8.130
90014SOL    HW171875  13.180   2.456   8.058
90014SOL    HW271876  13.154   2.327   8.134
90015SOL     OW71877   4.944   1.224   3.645
90015SOL    HW171878   4.879   1.231   3.574
90015SOL    HW271879   4.988   1.141   3.629
90016SOL     OW71880  13.669   1.943   2.516
90016SOL    HW171881  13.591   1.993   2.540
90016SOL    HW271882  13.716   1.930   2.598
90017SOL     OW71883   7.368   2.985  14.076
90017SOL    HW171884   7.273   2.982  14.091
90017SOL    HW271885   7.397   2.895  14.094
90018SOL     OW71886  11.265   2.076  10.686
90018SOL    HW171887  11.178   2.039  10.704
90018SOL    HW271888  11.263   2.095  10.592
90019SOL     OW71889   6.709   4.630  10.645
90019SOL    HW171890   6.751   4.562  10.697
90019SOL    HW271891   6.773   4.651  10.577
90020SOL     OW71892  13.722  13.161   5.558
90020SOL    HW171893  13.799  13.174   5.613
90020SOL    HW271894  13.697  13.070   5.572
90021SOL     OW71895   9.410  10.820   4.087
90021SOL    HW171896   9.480  10.783   4.140
90021SOL    HW271897   9.330  10.788   4.128
90022SOL     OW71898   3.453  14.009   5.761
90022SOL    HW171899   3.530  14.064   5.755
90022SOL    HW271900   3.387  14.064   5.805
90023SOL     OW71901   3.903  13.822   4.117
90023SOL    HW171902   3.880  13.792   4.029
90023SOL    HW271903   3.966  13.758   4.149
90024SOL     OW71904   1.506   6.591   8.853
90024SOL    HW171905   1.553   6.544   8.922
90024SOL    HW271906   1.527   6.683   8.870
90025SOL     OW71907   3.342   7.117   8.799
90025SOL    HW171908   3.272   7.102   8.735
90025SOL    HW271909   3.321   7.058   8.871
90026SOL     OW71910  14.013  13.414   3.523
90026SOL    HW171911  14.001  13.345   3.589
90026SOL    HW271912  13.957  13.486   3.554
90027SOL     OW71913   3.418  12.247  10.598
90027SOL    HW171914   3.475  12.176  10.630
90027SOL    HW271915   3.384  12.214  10.515
90028SOL     OW71916   9.148   5.911   2.658
90028SOL    HW171917   9.068   5.940   2.615
90028SOL    HW271918   9.172   5.983   2.716
90029SOL     OW71919  14.289  10.220  13.785
90029SOL    HW171920  14.312  10.127  13.790
90029SOL    HW271921  14.346  10.262  13.849
90030SOL     OW71922   5.717   1.139   3.863
90030SOL    HW171923   5.755   1.103   3.783
90030SOL    HW271924   5.626   1.159   3.840
90031SOL     OW71925  13.993   4.974  14.873
90031SOL    HW171926  13.904   5.002  14.855
90031SOL    HW271927  14.031   5.047   0.044
90032SOL     OW71928   6.895   3.038   0.846
90032SOL    HW171929   6.951   2.991   0.908
90032SOL    HW271930   6.843   3.097   0.901
90033SOL     OW71931   5.339  13.811  10.751
90033SOL    HW171932   5.386  13.849  10.677
90033SOL    HW271933   5.253  13.853  10.749
90034SOL     OW71934   8.916  11.529   5.052
90034SOL    HW171935   8.982  11.573   4.998
90034SOL    HW271936   8.961  11.508   5.134
90035SOL     OW71937  14.563   5.280   1.469
90035SOL    HW171938  14.475   5.299   1.436
90035SOL    HW271939  14.614   5.258   1.390
90036SOL     OW71940   7.276  11.983  10.919
90036SOL    HW171941   7.245  12.048  10.857
90036SOL    HW271942   7.274  12.026  11.004
90037SOL     OW71943   7.622  13.936   4.420
90037SOL    HW171944   7.547  13.943   4.362
90037SOL    HW271945   7.649  13.844   4.414
90038SOL     OW71946   6.483  12.825   8.990
90038SOL    HW171947   6.419  12.756   9.006
90038SOL    HW271948   6.525  12.839   9.074
90039SOL     OW71949   8.043   1.394  11.434
90039SOL    HW171950   8.132   1.394  11.398
90039SOL    HW271951   8.037   1.312  11.483
90040SOL     OW71952   0.882   2.757   8.585
90040SOL    HW171953   0.847   2.809   8.513
90040SOL    HW271954   0.868   2.810   8.662
90041SOL     OW71955   1.483  10.425   7.236
90041SOL    HW171956   1.539  10.348   7.246
90041SOL    HW271957   1.394  10.393   7.252
90042SOL     OW71958   9.788  13.648   2.514
90042SOL    HW171959   9.823  13.633   2.426
90042SOL    HW271960   9.693  13.646   2.503
90043SOL     OW71961  12.130  13.140   5.986
90043SOL    HW171962  12.086  13.056   5.972
90043SOL    HW271963  12.067  13.206   5.957
90044SOL     OW71964   3.313   1.783   6.545
90044SOL    HW171965   3.269   1.739   6.617
90044SOL    HW271966   3.248   1.842   6.509
90045SOL     OW71967   2.742  10.891   2.173
90045SOL    HW171968   2.708  10.876   2.262
90045SOL    HW271969   2.664  10.889   2.118
90046SOL     OW71970   3.005  14.458   7.494
90046SOL    HW171971   2.929  14.425   7.446
90046SOL    HW271972   3.066  14.487   7.427
90047SOL     OW71973   1.392  11.467  12.346
90047SOL    HW171974   1.477  11.467  12.302
90047SOL    HW271975   1.403  11.527  12.420
90048SOL     OW71976  11.033  12.470   7.715
90048SOL    HW171977  10.972  12.478   7.788
90048SOL    HW271978  11.060  12.378   7.717
90049SOL     OW71979   9.827  13.265   2.259
90049SOL    HW171980   9.738  13.299   2.246
90049SOL    HW271981   9.820  13.210   2.336
90050SOL     OW71982   0.778   9.129  12.216
90050SOL    HW171983   0.724   9.205  12.198
90050SOL    HW271984   0.836   9.157  12.287
90051SOL     OW71985  11.666   8.869   2.068
90051SOL    HW171986  11.639   8.781   2.094
90051SOL    HW271987  11.622   8.884   1.984
90052SOL     OW71988   5.435   9.600   0.711
90052SOL    HW171989   5.500   9.539   0.675
90052SOL    HW271990   5.400   9.555   0.788
90053SOL     OW71991   9.453  12.355   8.319
90053SOL    HW171992   9.531  12.382   8.269
90053SOL    HW271993   9.446  12.420   8.389
90054SOL     OW71994  11.640  12.231   9.438
90054SOL    HW171995  11.608  12.243   9.527
90054SOL    HW271996  11.672  12.318   9.413
90055SOL     OW71997  14.251  11.072   2.943
90055SOL    HW171998  14.311  11.141   2.914
90055SOL    HW271999  14.304  11.015   2.998
90056SOL     OW72000   5.193   3.039   2.923
90056SOL    HW172001   5.125   3.016   2.860
90056SOL    HW272002   5.194   3.135   2.922
90057SOL     OW72003   8.934  10.444  12.790
90057SOL    HW172004   8.976  10.366  12.753
90057SOL    HW272005   8.882  10.411  12.863
90058SOL     OW72006   5.148   0.659  10.703
90058SOL    HW172007   5.084   0.648  10.773
90058SOL    HW272008   5.146   0.753  10.683
90059SOL     OW72009   9.394   7.726   9.404
90059SOL    HW172010   9.468   7.679   9.366
90059SOL    HW272011   9.417   7.819   9.395
90060SOL     OW72012  11.921   1.611   6.121
90060SOL    HW172013  11.991   1.558   6.083
90060SOL    HW272014  11.967   1.677   6.173
90061SOL     OW72015   9.864   3.595   4.292
90061SOL    HW172016   9.868   3.683   4.256
90061SOL    HW272017   9.835   3.607   4.383
90062SOL     OW72018   3.634  11.954   3.035
90062SOL    HW172019   3.614  12.014   3.107
90062SOL    HW272020   3.710  11.993   2.992
90063SOL     OW72021   8.551   1.461   8.575
90063SOL    HW172022   8.621   1.419   8.526
90063SOL    HW272023   8.470   1.426   8.538
90064SOL     OW72024  12.642  11.645   6.840
90064SOL    HW172025  12.711  11.621   6.902
90064SOL    HW272026  12.561  11.624   6.886
90065SOL     OW72027   0.848  14.667   6.738
90065SOL    HW172028   0.795  14.629   6.667
90065SOL    HW272029   0.938  14.656   6.708
90066SOL     OW72030   4.673  12.973   0.205
90066SOL    HW172031   4.675  12.879   0.191
90066SOL    HW272032   4.754  12.992   0.251
90067SOL     OW72033   2.054   6.492   2.066
90067SOL    HW172034   1.989   6.511   1.998
90067SOL    HW272035   2.136   6.481   2.018
90068SOL     OW72036  13.935   3.581   1.401
90068SOL    HW172037  13.845   3.567   1.428
90068SOL    HW272038  13.956   3.504   1.348
90069SOL     OW72039   0.253  14.425   9.677
90069SOL    HW172040   0.244  14.504   9.731
90069SOL    HW272041   0.268  14.458   9.588
90070SOL     OW72042  13.716   6.692  10.198
90070SOL    HW172043  13.669   6.756  10.252
90070SOL    HW272044  13.646   6.637  10.162
90071SOL     OW72045   4.869  14.499   6.236
90071SOL    HW172046   4.776  14.520   6.236
90071SOL    HW272047   4.912  14.583   6.221
90072SOL     OW72048   9.430   8.725   6.002
90072SOL    HW172049   9.410   8.721   5.909
90072SOL    HW272050   9.347   8.708   6.046
90073SOL     OW72051   1.341   3.679   2.004
90073SOL    HW172052   1.412   3.653   2.063
90073SOL    HW272053   1.311   3.763   2.039
90074SOL     OW72054  11.202   6.838   9.407
90074SOL    HW172055  11.122   6.881   9.437
90074SOL    HW272056  11.272   6.881   9.454
90075SOL     OW72057   4.259  12.703  14.676
90075SOL    HW172058   4.324  12.696  14.746
90075SOL    HW272059   4.312  12.709  14.596
90076SOL     OW72060  10.675   1.497   5.930
90076SOL    HW172061  10.770   1.492   5.926
90076SOL    HW272062  10.651   1.554   5.857
90077SOL     OW72063   9.961   7.699   9.461
90077SOL    HW172064   9.981   7.608   9.483
90077SOL    HW272065  10.040   7.748   9.485
90078SOL     OW72066   8.287   8.856   3.114
90078SOL    HW172067   8.314   8.765   3.126
90078SOL    HW272068   8.257   8.884   3.201
90079SOL     OW72069   6.078  13.797   9.411
90079SOL    HW172070   6.105  13.707   9.428
90079SOL    HW272071   6.044  13.795   9.321
90080SOL     OW72072   1.993   8.076   6.094
90080SOL    HW172073   1.987   8.099   6.002
90080SOL    HW272074   1.989   7.980   6.096
90081SOL     OW72075  10.137   6.996   9.318
90081SOL    HW172076  10.203   7.066   9.317
90081SOL    HW272077  10.069   7.027   9.378
90082SOL     OW72078   0.514   3.981   2.793
90082SOL    HW172079   0.546   4.056   2.744
90082SOL    HW272080   0.511   4.011   2.884
90083SOL     OW72081   9.432  12.019   8.396
90083SOL    HW172082   9.419  11.982   8.308
90083SOL    HW272083   9.526  12.011   8.412
90084SOL     OW72084   5.814  14.370  11.450
90084SOL    HW172085   5.856  14.417  11.378
90084SOL    HW272086   5.880  14.367  11.519
90085SOL     OW72087   5.425   9.959   5.175
90085SOL    HW172088   5.479   9.916   5.108
90085SOL    HW272089   5.487   9.978   5.246
90086SOL     OW72090   9.352   3.627   2.576
90086SOL    HW172091   9.279   3.682   2.604
90086SOL    HW272092   9.385   3.588   2.657
90087SOL     OW72093   6.404   5.281  13.310
90087SOL    HW172094   6.375   5.257  13.222
90087SOL    HW272095   6.332   5.252  13.367
90088SOL     OW72096   3.809   8.426   4.220
90088SOL    HW172097   3.759   8.493   4.267
90088SOL    HW272098   3.874   8.475   4.171
90089SOL     OW72099   9.615   8.746   6.944
90089SOL    HW172100   9.682   8.778   7.004
90089SOL    HW272101   9.610   8.814   6.876
90090SOL     OW72102  11.918  10.040   2.932
90090SOL    HW172103  11.970   9.973   2.976
90090SOL    HW272104  11.952  10.123   2.966
90091SOL     OW72105  12.724  12.205   6.377
90091SOL    HW172106  12.817  12.185   6.366
90091SOL    HW272107  12.683  12.120   6.396
90092SOL     OW72108  14.075   5.208   4.351
90092SOL    HW172109  14.110   5.296   4.349
90092SOL    HW272110  14.023   5.203   4.431
90093SOL     OW72111   7.397   0.795   7.653
90093SOL    HW172112   7.374   0.886   7.670
90093SOL    HW272113   7.325   0.745   7.691
90094SOL     OW72114  14.371   3.427  12.464
90094SOL    HW172115  14.423   3.380  12.530
90094SOL    HW272116  14.339   3.359  12.405
90095SOL     OW72117   3.908   4.040   6.519
90095SOL    HW172118   3.832   4.068   6.571
90095SOL    HW272119   3.926   4.113   6.461
90096SOL     OW72120   9.152   6.469  13.783
90096SOL    HW172121   9.210   6.493  13.710
90096SOL    HW272122   9.112   6.386  13.756
90097SOL     OW72123   6.294   6.138   9.218
90097SOL    HW172124   6.307   6.227   9.185
90097SOL    HW272125   6.370   6.124   9.276
90098SOL     OW72126  11.614   2.316  11.423
90098SOL    HW172127  11.608   2.288  11.515
90098SOL    HW272128  11.618   2.411  11.428
90099SOL     OW72129   8.596   9.269  10.955
90099SOL    HW172130   8.547   9.312  10.884
90099SOL    HW272131   8.669   9.225  10.911
90100SOL     OW72132   3.545  14.544   5.497
90100SOL    HW172133   3.479  14.563   5.431
90100SOL    HW272134   3.495  14.530   5.578
90101SOL     OW72135   1.925   7.599   6.234
90101SOL    HW172136   1.831   7.592   6.215
90101SOL    HW272137   1.930   7.613   6.328
90102SOL     OW72138  14.048   6.548  14.769
90102SOL    HW172139  14.034   6.477  14.831
90102SOL    HW272140  14.081   6.620  14.822
90103SOL     OW72141   3.505   7.485   5.353
90103SOL    HW172142   3.534   7.572   5.325
90103SOL    HW272143   3.556   7.424   5.299
90104SOL     OW72144   2.195   8.414   4.029
90104SOL    HW172145   2.169   8.390   3.940
90104SOL    HW272146   2.265   8.352   4.051
90105SOL     OW72147  10.338   2.479   1.326
90105SOL    HW172148  10.338   2.570   1.357
90105SOL    HW272149  10.326   2.487   1.232
90106SOL     OW72150   4.225   9.037   0.476
90106SOL    HW172151   4.200   9.060   0.565
90106SOL    HW272152   4.170   9.092   0.420
90107SOL     OW72153  10.646   2.433   9.807
90107SOL    HW172154  10.691   2.515   9.827
90107SOL    HW272155  10.691   2.399   9.729
90108SOL     OW72156  12.854  10.571   3.640
90108SOL    HW172157  12.847  10.479   3.617
90108SOL    HW272158  12.787  10.584   3.708
90109SOL     OW72159   7.652   6.605   0.881
90109SOL    HW172160   7.630   6.514   0.898
90109SOL    HW272161   7.601   6.655   0.944
90110SOL     OW72162   3.236  10.668  11.650
90110SOL    HW172163   3.310  10.607  11.653
90110SOL    HW272164   3.277  10.755  11.656
90111SOL     OW72165   9.830  13.753   5.915
90111SOL    HW172166   9.826  13.688   5.845
90111SOL    HW272167   9.921  13.749   5.946
90112SOL     OW72168  13.713  13.961   2.749
90112SOL    HW172169  13.659  14.022   2.699
90112SOL    HW272170  13.734  14.008   2.830
90113SOL     OW72171   7.637   1.158   1.022
90113SOL    HW172172   7.582   1.080   1.023
90113SOL    HW272173   7.594   1.217   0.960
90114SOL     OW72174   9.614   0.632   3.012
90114SOL    HW172175   9.692   0.584   3.040
90114SOL    HW272176   9.542   0.584   3.052
90115SOL     OW72177   2.177  10.996   0.034
90115SOL    HW172178   2.122  10.936  14.864
90115SOL    HW272179   2.219  10.941   0.100
90116SOL     OW72180   4.026   7.230   4.377
90116SOL    HW172181   4.039   7.135   4.378
90116SOL    HW272182   4.005   7.253   4.468
90117SOL     OW72183   1.977   4.304   3.052
90117SOL    HW172184   2.048   4.358   3.017
90117SOL    HW272185   1.978   4.226   2.998
90118SOL     OW72186  14.740   1.218   0.603
90118SOL    HW172187  14.762   1.139   0.554
90118SOL    HW272188  14.687   1.187   0.676
90119SOL     OW72189   0.163   7.397  13.736
90119SOL    HW172190   0.191   7.341  13.808
90119SOL    HW272191   0.137   7.479  13.779
90120SOL     OW72192  13.038  10.429   4.235
90120SOL    HW172193  13.081  10.504   4.194
90120SOL    HW272194  13.109  10.379   4.274
90121SOL     OW72195  12.814   1.171   5.491
90121SOL    HW172196  12.801   1.265   5.476
90121SOL    HW272197  12.895   1.151   5.444
90122SOL     OW72198   4.487   9.508   5.621
90122SOL    HW172199   4.525   9.422   5.600
90122SOL    HW272200   4.412   9.487   5.677
90123SOL     OW72201   4.461   7.291   4.102
90123SOL    HW172202   4.405   7.286   4.025
90123SOL    HW272203   4.401   7.311   4.174
90124SOL     OW72204   5.452   0.709   0.776
90124SOL    HW172205   5.516   0.780   0.774
90124SOL    HW272206   5.467   0.661   0.695
90125SOL     OW72207  11.634   9.769   1.393
90125SOL    HW172208  11.648   9.780   1.487
90125SOL    HW272209  11.589   9.684   1.386
90126SOL     OW72210  11.250  14.132  11.669
90126SOL    HW172211  11.201  14.061  11.711
90126SOL    HW272212  11.300  14.171  11.741
90127SOL     OW72213   6.205   1.976   3.293
90127SOL    HW172214   6.233   1.937   3.210
90127SOL    HW272215   6.250   1.924   3.360
90128SOL     OW72216  10.159  11.769  13.305
90128SOL    HW172217  10.132  11.702  13.368
90128SOL    HW272218  10.209  11.722  13.239
90129SOL     OW72219   9.588   7.328  10.347
90129SOL    HW172220   9.631   7.283  10.420
90129SOL    HW272221   9.580   7.262  10.279
90130SOL     OW72222   3.794   4.150   8.858
90130SOL    HW172223   3.729   4.192   8.801
90130SOL    HW272224   3.846   4.222   8.894
90131SOL     OW72225  10.905   4.745   1.118
90131SOL    HW172226  10.960   4.667   1.126
90131SOL    HW272227  10.965   4.819   1.123
90132SOL     OW72228  12.039   2.111   4.954
90132SOL    HW172229  12.006   2.022   4.941
90132SOL    HW272230  11.997   2.141   5.034
90133SOL     OW72231  11.397   8.470   3.080
90133SOL    HW172232  11.341   8.543   3.108
90133SOL    HW272233  11.398   8.411   3.155
90134SOL     OW72234  11.270  11.622   8.855
90134SOL    HW172235  11.276  11.716   8.867
90134SOL    HW272236  11.192  11.609   8.800
90135SOL     OW72237  13.343   5.540  10.766
90135SOL    HW172238  13.250   5.533  10.747
90135SOL    HW272239  13.361   5.467  10.825
90136SOL     OW72240   8.035   4.819   3.147
90136SOL    HW172241   8.077   4.872   3.079
90136SOL    HW272242   8.040   4.873   3.226
90137SOL     OW72243   9.411  14.572   8.917
90137SOL    HW172244   9.458  14.519   8.981
90137SOL    HW272245   9.475  14.638   8.889
90138SOL     OW72246  11.764   4.411  12.379
90138SOL    HW172247  11.838   4.420  12.318
90138SOL    HW272248  11.702   4.355  12.332
90139SOL     OW72249  14.646  12.673   6.781
90139SOL    HW172250  14.665  12.763   6.753
90139SOL    HW272251  14.637  12.680   6.877
90140SOL     OW72252  12.697   0.969   7.900
90140SOL    HW172253  12.700   0.880   7.865
90140SOL    HW272254  12.659   1.021   7.829
90141SOL     OW72255   0.728   3.624  10.250
90141SOL    HW172256   0.740   3.630  10.345
90141SOL    HW272257   0.759   3.708  10.216
90142SOL     OW72258   2.133   9.198  14.735
90142SOL    HW172259   2.103   9.138  14.667
90142SOL    HW272260   2.224   9.172  14.751
90143SOL     OW72261   9.738   7.856   9.487
90143SOL    HW172262   9.764   7.916   9.417
90143SOL    HW272263   9.813   7.798   9.498
90144SOL     OW72264   0.593   1.915   0.788
90144SOL    HW172265   0.616   1.987   0.847
90144SOL    HW272266   0.561   1.846   0.846
90145SOL     OW72267  10.155   6.680  11.515
90145SOL    HW172268  10.061   6.686  11.495
90145SOL    HW272269  10.168   6.587  11.535
90146SOL     OW72270   7.402   6.733   4.208
90146SOL    HW172271   7.351   6.794   4.155
90146SOL    HW272272   7.461   6.789   4.258
90147SOL     OW72273   9.383   3.914   6.266
90147SOL    HW172274   9.381   3.855   6.191
90147SOL    HW272275   9.294   3.911   6.301
90148SOL     OW72276  14.858  11.016  14.828
90148SOL    HW172277   0.016  11.101  14.852
90148SOL    HW272278   0.054  10.963  14.803
90149SOL     OW72279  11.797   0.780  14.320
90149SOL    HW172280  11.808   0.685  14.324
90149SOL    HW272281  11.788   0.806  14.412
90150SOL     OW72282   0.239  10.232  11.088
90150SOL    HW172283   0.319  10.202  11.045
90150SOL    HW272284   0.173  10.166  11.065
90151SOL     OW72285   0.463  12.008   9.355
90151SOL    HW172286   0.464  12.101   9.331
90151SOL    HW272287   0.399  12.003   9.427
90152SOL     OW72288   2.484   9.618   5.894
90152SOL    HW172289   2.430   9.608   5.816
90152SOL    HW272290   2.499   9.712   5.902
90153SOL     OW72291  14.875  11.381   4.591
90153SOL    HW172292   0.079  11.407   4.551
90153SOL    HW272293  14.831  11.464   4.611
90154SOL     OW72294   4.757   4.200  14.730
90154SOL    HW172295   4.812   4.139  14.779
90154SOL    HW272296   4.803   4.212  14.646
90155SOL     OW72297   2.303   0.708   5.759
90155SOL    HW172298   2.377   0.676   5.708
90155SOL    HW272299   2.275   0.633   5.811
90156SOL     OW72300  11.741   2.804   2.388
90156SOL    HW172301  11.754   2.865   2.315
90156SOL    HW272302  11.717   2.859   2.462
90157SOL     OW72303   1.920  14.443   8.883
90157SOL    HW172304   1.985  14.464   8.950
90157SOL    HW272305   1.838  14.437   8.932
90158SOL     OW72306  10.815  12.000   4.951
90158SOL    HW172307  10.859  11.932   4.900
90158SOL    HW272308  10.852  11.992   5.039
90159SOL     OW72309  14.503   3.655   4.062
90159SOL    HW172310  14.557   3.638   4.139
90159SOL    HW272311  14.508   3.750   4.049
90160SOL     OW72312   9.587  12.574   5.822
90160SOL    HW172313   9.509  12.550   5.872
90160SOL    HW272314   9.561  12.569   5.731
90161SOL     OW72315   7.188   5.799   7.663
90161SOL    HW172316   7.214   5.808   7.571
90161SOL    HW272317   7.221   5.879   7.705
90162SOL     OW72318   6.031   3.707   7.574
90162SOL    HW172319   5.977   3.696   7.652
90162SOL    HW272320   6.089   3.631   7.573
90163SOL     OW72321   5.948  10.332   4.513
90163SOL    HW172322   6.014  10.264   4.496
90163SOL    HW272323   5.865  10.289   4.495
90164SOL     OW72324   0.759  10.622   6.328
90164SOL    HW172325   0.733  10.708   6.361
90164SOL    HW272326   0.854  10.619   6.340
90165SOL     OW72327   9.134   0.848  10.644
90165SOL    HW172328   9.088   0.914  10.697
90165SOL    HW272329   9.072   0.825  10.575
90166SOL     OW72330   6.461   3.723   2.525
90166SOL    HW172331   6.369   3.698   2.532
90166SOL    HW272332   6.499   3.697   2.609
90167SOL     OW72333  10.303   6.711   3.330
90167SOL    HW172334  10.343   6.771   3.393
90167SOL    HW272335  10.224   6.755   3.301
90168SOL     OW72336   3.559   1.205  12.621
90168SOL    HW172337   3.544   1.247  12.706
90168SOL    HW272338   3.638   1.247  12.587
90169SOL     OW72339  10.311   7.603   9.429
90169SOL    HW172340  10.303   7.695   9.453
90169SOL    HW272341  10.306   7.556   9.512
90170SOL     OW72342   7.019  12.861   3.849
90170SOL    HW172343   7.095  12.819   3.809
90170SOL    HW272344   6.994  12.803   3.921
90171SOL     OW72345  14.608  12.634   3.391
90171SOL    HW172346  14.639  12.631   3.301
90171SOL    HW272347  14.687  12.622   3.444
90172SOL     OW72348   8.752   9.995  10.609
90172SOL    HW172349   8.714   9.997  10.696
90172SOL    HW272350   8.845  10.014  10.623
90173SOL     OW72351   2.292  11.978   8.330
90173SOL    HW172352   2.270  11.941   8.415
90173SOL    HW272353   2.239  11.928   8.268
90174SOL     OW72354   7.121   7.016   9.490
90174SOL    HW172355   7.068   7.048   9.563
90174SOL    HW272356   7.058   6.988   9.424
90175SOL     OW72357  10.892   3.222   8.746
90175SOL    HW172358  10.897   3.241   8.840
90175SOL    HW272359  10.871   3.307   8.706
90176SOL     OW72360   0.767   3.549   4.441
90176SOL    HW172361   0.858   3.570   4.424
90176SOL    HW272362   0.722   3.568   4.359
90177SOL     OW72363  10.212   4.557  13.408
90177SOL    HW172364  10.269   4.554  13.332
90177SOL    HW272365  10.159   4.636  13.395
90178SOL     OW72366  11.284   9.487   1.214
90178SOL    HW172367  11.346   9.494   1.287
90178SOL    HW272368  11.307   9.404   1.172
90179SOL     OW72369  12.897  11.199   0.364
90179SOL    HW172370  12.860  11.140   0.298
90179SOL    HW272371  12.885  11.151   0.447
90180SOL     OW72372  10.151  14.357   9.793
90180SOL    HW172373  10.105  14.436   9.762
90180SOL    HW272374  10.131  14.290   9.728
90181SOL     OW72375   0.530   7.195   0.217
90181SOL    HW172376   0.589   7.222   0.287
90181SOL    HW272377   0.552   7.103   0.201
90182SOL     OW72378   4.176  11.108   0.194
90182SOL    HW172379   4.217  11.193   0.179
90182SOL    HW272380   4.099  11.108   0.137
90183SOL     OW72381   4.340   1.809   0.757
90183SOL    HW172382   4.327   1.900   0.731
90183SOL    HW272383   4.327   1.809   0.852
90184SOL     OW72384   3.136  12.868  13.891
90184SOL    HW172385   3.137  12.823  13.806
90184SOL    HW272386   3.198  12.939  13.881
90185SOL     OW72387  14.663   6.688  10.582
90185SOL    HW172388  14.685   6.750  10.513
90185SOL    HW272389  14.601   6.735  10.638
90186SOL     OW72390   8.703   0.336  12.659
90186SOL    HW172391   8.697   0.273  12.731
90186SOL    HW272392   8.612   0.353  12.634
90187SOL     OW72393   8.485   5.240  12.120
90187SOL    HW172394   8.537   5.274  12.046
90187SOL    HW272395   8.409   5.298  12.123
90188SOL     OW72396  12.263  13.104  11.270
90188SOL    HW172397  12.310  13.113  11.353
90188SOL    HW272398  12.298  13.025  11.231
90189SOL     OW72399   0.040   2.021   5.627
90189SOL    HW172400   0.118   1.967   5.635
90189SOL    HW272401   0.060   2.082   5.555
90190SOL     OW72402  12.972  13.617  14.125
90190SOL    HW172403  13.003  13.672  14.052
90190SOL    HW272404  13.030  13.541  14.124
90191SOL     OW72405   3.445  10.170  10.404
90191SOL    HW172406   3.424  10.214  10.486
90191SOL    HW272407   3.538  10.151  10.409
90192SOL     OW72408  12.578   6.866  10.109
90192SOL    HW172409  12.498   6.904  10.074
90192SOL    HW272410  12.635   6.941  10.126
90193SOL     OW72411   6.433   9.015  12.996
90193SOL    HW172412   6.431   9.083  13.064
90193SOL    HW272413   6.348   8.972  13.002
90194SOL     OW72414  13.478  14.451  11.900
90194SOL    HW172415  13.559  14.438  11.948
90194SOL    HW272416  13.432  14.519  11.948
90195SOL     OW72417   2.736  10.780   6.494
90195SOL    HW172418   2.721  10.824   6.578
90195SOL    HW272419   2.808  10.828   6.454
90196SOL     OW72420  13.449  14.154   2.907
90196SOL    HW172421  13.480  14.159   2.997
90196SOL    HW272422  13.356  14.133   2.914
90197SOL     OW72423   0.864   8.245   7.044
90197SOL    HW172424   0.949   8.232   7.087
90197SOL    HW272425   0.808   8.280   7.113
90198SOL     OW72426   9.578   4.320   3.632
90198SOL    HW172427   9.529   4.240   3.615
90198SOL    HW272428   9.534   4.359   3.708
90199SOL     OW72429   6.550   4.327  12.757
90199SOL    HW172430   6.564   4.388  12.829
90199SOL    HW272431   6.493   4.374  12.697
90200SOL     OW72432   5.578   7.057   2.182
90200SOL    HW172433   5.657   7.095   2.220
90200SOL    HW272434   5.509   7.119   2.203
90201SOL     OW72435   9.833  14.553  12.055
90201SOL    HW172436   9.780  14.629  12.031
90201SOL    HW272437   9.915  14.564  12.005
90202SOL     OW72438   4.081   7.638  10.791
90202SOL    HW172439   4.033   7.613  10.870
90202SOL    HW272440   4.038   7.589  10.721
90203SOL     OW72441   1.347  13.527   6.921
90203SOL    HW172442   1.385  13.532   7.008
90203SOL    HW272443   1.292  13.449   6.924
90204SOL     OW72444  12.268  13.583   3.958
90204SOL    HW172445  12.212  13.651   3.994
90204SOL    HW272446  12.289  13.527   4.034
90205SOL     OW72447   0.132   3.159   3.013
90205SOL    HW172448   0.102   3.226   2.951
90205SOL    HW272449   0.053   3.124   3.052
90206SOL     OW72450   5.708  14.598  11.638
90206SOL    HW172451   5.625  14.645  11.643
90206SOL    HW272452   5.686  14.508  11.660
90207SOL     OW72453   8.321   9.687  10.201
90207SOL    HW172454   8.375   9.608  10.200
90207SOL    HW272455   8.305   9.706  10.108
90208SOL     OW72456  12.216   5.729   9.511
90208SOL    HW172457  12.283   5.797   9.509
90208SOL    HW272458  12.265   5.648   9.524
90209SOL     OW72459  12.836   7.558   4.652
90209SOL    HW172460  12.826   7.486   4.590
90209SOL    HW272461  12.800   7.524   4.734
90210SOL     OW72462   6.788   7.941   8.359
90210SOL    HW172463   6.810   8.003   8.290
90210SOL    HW272464   6.777   7.994   8.438
90211SOL     OW72465  14.372   5.774   3.602
90211SOL    HW172466  14.381   5.692   3.651
90211SOL    HW272467  14.459   5.815   3.608
90212SOL     OW72468  12.957   3.550   8.665
90212SOL    HW172469  12.866   3.520   8.660
90212SOL    HW272470  12.975   3.556   8.759
90213SOL     OW72471   7.523   6.696   1.090
90213SOL    HW172472   7.474   6.646   1.156
90213SOL    HW272473   7.551   6.775   1.137
90214SOL     OW72474   7.767   1.825   0.361
90214SOL    HW172475   7.771   1.868   0.275
90214SOL    HW272476   7.739   1.736   0.341
90215SOL     OW72477   4.849  12.442   7.795
90215SOL    HW172478   4.891  12.366   7.834
90215SOL    HW272479   4.761  12.412   7.772
90216SOL     OW72480   3.626   3.986   1.922
90216SOL    HW172481   3.578   3.944   1.993
90216SOL    HW272482   3.570   4.060   1.896
90217SOL     OW72483  12.836   6.670  13.132
90217SOL    HW172484  12.876   6.587  13.105
90217SOL    HW272485  12.884   6.737  13.083
90218SOL     OW72486   3.312  11.943   4.083
90218SOL    HW172487   3.329  11.872   4.021
90218SOL    HW272488   3.344  11.911   4.167
90219SOL     OW72489   9.724   4.972  12.334
90219SOL    HW172490   9.787   4.910  12.298
90219SOL    HW272491   9.663   4.988  12.262
90220SOL     OW72492  13.811   2.632   7.452
90220SOL    HW172493  13.838   2.720   7.481
90220SOL    HW272494  13.747   2.649   7.383
90221SOL     OW72495  10.830   0.250   6.083
90221SOL    HW172496  10.852   0.337   6.050
90221SOL    HW272497  10.746   0.262   6.127
90222SOL     OW72498  14.574  13.189   8.630
90222SOL    HW172499  14.538  13.131   8.563
90222SOL    HW272500  14.623  13.255   8.580
90223SOL     OW72501   2.138   7.966  13.962
90223SOL    HW172502   2.194   7.944  14.036
90223SOL    HW272503   2.181   8.041  13.921
90224SOL     OW72504   4.146   2.419  13.353
90224SOL    HW172505   4.103   2.503  13.336
90224SOL    HW272506   4.238   2.442  13.370
90225SOL     OW72507   0.369   2.152   4.527
90225SOL    HW172508   0.351   2.211   4.600
90225SOL    HW272509   0.440   2.195   4.478
90226SOL     OW72510   0.001   0.742   8.430
90226SOL    HW172511  14.855   0.677   8.365
90226SOL    HW272512   0.085   0.776   8.400
90227SOL     OW72513   4.005   5.224   3.377
90227SOL    HW172514   3.965   5.200   3.461
90227SOL    HW272515   3.951   5.296   3.344
90228SOL     OW72516   0.987   0.428   9.321
90228SOL    HW172517   1.078   0.457   9.309
90228SOL    HW272518   0.953   0.418   9.232
90229SOL     OW72519   2.584   9.702   1.054
90229SOL    HW172520   2.524   9.639   1.013
90229SOL    HW272521   2.590   9.673   1.146
90230SOL     OW72522   6.765  14.495   4.645
90230SOL    HW172523   6.848  14.540   4.629
90230SOL    HW272524   6.754  14.437   4.570
90231SOL     OW72525  12.607   8.697   7.444
90231SOL    HW172526  12.594   8.633   7.374
90231SOL    HW272527  12.676   8.658   7.498
90232SOL     OW72528   2.892   5.656  12.309
90232SOL    HW172529   2.907   5.605  12.388
90232SOL    HW272530   2.838   5.600  12.253
90233SOL     OW72531   3.417  12.757   5.953
90233SOL    HW172532   3.471  12.763   5.874
90233SOL    HW272533   3.435  12.670   5.988
90234SOL     OW72534   1.687   1.926   1.354
90234SOL    HW172535   1.632   2.001   1.375
90234SOL    HW272536   1.747   1.959   1.287
90235SOL     OW72537   0.289   6.272   2.008
90235SOL    HW172538   0.360   6.264   2.072
90235SOL    HW272539   0.247   6.186   2.010
90236SOL     OW72540  12.304   4.244   2.657
90236SOL    HW172541  12.367   4.217   2.723
90236SOL    HW272542  12.357   4.266   2.580
90237SOL     OW72543   5.448   9.616   7.266
90237SOL    HW172544   5.541   9.609   7.244
90237SOL    HW272545   5.402   9.588   7.187
90238SOL     OW72546   8.316   1.024   5.302
90238SOL    HW172547   8.331   0.930   5.318
90238SOL    HW272548   8.255   1.050   5.371
90239SOL     OW72549   7.387  14.652   6.221
90239SOL    HW172550   7.347  14.736   6.247
90239SOL    HW272551   7.322  14.613   6.163
90240SOL     OW72552   2.327  12.420   1.096
90240SOL    HW172553   2.408  12.446   1.140
90240SOL    HW272554   2.266  12.399   1.168
90241SOL     OW72555   5.017   5.110   6.720
90241SOL    HW172556   5.112   5.121   6.726
90241SOL    HW272557   4.983   5.153   6.799
90242SOL     OW72558  13.693  11.108   8.392
90242SOL    HW172559  13.701  11.033   8.333
90242SOL    HW272560  13.599  11.111   8.413
90243SOL     OW72561   6.483   1.782   7.169
90243SOL    HW172562   6.483   1.823   7.256
90243SOL    HW272563   6.420   1.710   7.177
90244SOL     OW72564   1.382  13.609   4.848
90244SOL    HW172565   1.304  13.567   4.885
90244SOL    HW272566   1.380  13.698   4.883
90245SOL     OW72567   1.552  14.148  12.280
90245SOL    HW172568   1.466  14.174  12.312
90245SOL    HW272569   1.551  14.171  12.187
90246SOL     OW72570   1.492   5.480  14.389
90246SOL    HW172571   1.396   5.479  14.380
90246SOL    HW272572   1.518   5.390  14.370
90247SOL     OW72573   5.615   7.857   3.598
90247SOL    HW172574   5.676   7.903   3.656
90247SOL    HW272575   5.634   7.892   3.511
90248SOL     OW72576   4.188   4.160   6.146
90248SOL    HW172577   4.252   4.219   6.106
90248SOL    HW272578   4.104   4.205   6.134
90249SOL     OW72579   4.966  11.860   9.666
90249SOL    HW172580   4.878  11.871   9.628
90249SOL    HW272581   4.995  11.949   9.687
90250SOL     OW72582   9.398  13.157   5.386
90250SOL    HW172583   9.320  13.211   5.391
90250SOL    HW272584   9.420  13.136   5.477
90251SOL     OW72585  14.172   1.991  13.978
90251SOL    HW172586  14.264   2.004  14.002
90251SOL    HW272587  14.129   1.970  14.061
90252SOL     OW72588  13.599  10.765  13.419
90252SOL    HW172589  13.610  10.698  13.351
90252SOL    HW272590  13.507  10.757  13.445
90253SOL     OW72591   7.062   7.599  13.412
90253SOL    HW172592   7.111   7.597  13.494
90253SOL    HW272593   6.995   7.667  13.426
90254SOL     OW72594   1.736   3.433   8.325
90254SOL    HW172595   1.724   3.506   8.264
90254SOL    HW272596   1.731   3.474   8.412
90255SOL     OW72597  11.117  12.297  14.166
90255SOL    HW172598  11.054  12.333  14.229
90255SOL    HW272599  11.094  12.204  14.161
90256SOL     OW72600   1.195   9.027  13.363
90256SOL    HW172601   1.269   8.976  13.396
90256SOL    HW272602   1.175   8.987  13.278
90257SOL     OW72603  10.884  10.625   1.021
90257SOL    HW172604  10.923  10.647   1.106
90257SOL    HW272605  10.881  10.530   1.020
90258SOL     OW72606  10.841  13.397   0.512
90258SOL    HW172607  10.809  13.460   0.577
90258SOL    HW272608  10.883  13.328   0.564
90259SOL     OW72609   8.457   3.808   3.841
90259SOL    HW172610   8.488   3.720   3.862
90259SOL    HW272611   8.492   3.864   3.910
90260SOL     OW72612  10.177   4.053   5.248
90260SOL    HW172613  10.161   4.005   5.166
90260SOL    HW272614  10.136   4.138   5.234
90261SOL     OW72615  11.448  10.487   6.401
90261SOL    HW172616  11.444  10.398   6.435
90261SOL    HW272617  11.541  10.502   6.384
90262SOL     OW72618   1.082  11.059   8.786
90262SOL    HW172619   1.123  10.989   8.736
90262SOL    HW272620   1.064  11.128   8.722
90263SOL     OW72621  10.923   0.811  10.730
90263SOL    HW172622  10.991   0.856  10.781
90263SOL    HW272623  10.863   0.881  10.703
90264SOL     OW72624   0.934   0.584   5.133
90264SOL    HW172625   0.922   0.605   5.040
90264SOL    HW272626   0.994   0.510   5.133
90265SOL     OW72627   8.822   2.894   0.191
90265SOL    HW172628   8.900   2.850   0.157
90265SOL    HW272629   8.833   2.892   0.286
90266SOL     OW72630  11.877   3.339  10.121
90266SOL    HW172631  11.889   3.246  10.100
90266SOL    HW272632  11.802   3.340  10.181
90267SOL     OW72633  12.392   3.841   6.346
90267SOL    HW172634  12.368   3.845   6.439
90267SOL    HW272635  12.377   3.930   6.314
90268SOL     OW72636   1.686  10.456   0.917
90268SOL    HW172637   1.728  10.395   0.978
90268SOL    HW272638   1.714  10.427   0.830
90269SOL     OW72639   9.938   9.111  13.829
90269SOL    HW172640   9.862   9.068  13.790
90269SOL    HW272641   9.917   9.204  13.827
90270SOL     OW72642   7.228  12.392   9.958
90270SOL    HW172643   7.276  12.440  10.025
90270SOL    HW272644   7.181  12.324  10.006
90271SOL     OW72645   0.649  12.593   3.786
90271SOL    HW172646   0.711  12.560   3.851
90271SOL    HW272647   0.689  12.674   3.754
90272SOL     OW72648   9.642  13.473   1.050
90272SOL    HW172649   9.655  13.530   1.126
90272SOL    HW272650   9.718  13.415   1.050
90273SOL     OW72651  11.715   0.893  13.126
90273SOL    HW172652  11.670   0.978  13.124
90273SOL    HW272653  11.758   0.891  13.211
90274SOL     OW72654  12.030   8.199   1.767
90274SOL    HW172655  11.983   8.193   1.684
90274SOL    HW272656  12.030   8.110   1.802
90275SOL     OW72657  11.263  14.772   4.036
90275SOL    HW172658  11.167  14.769   4.037
90275SOL    HW272659  11.290  14.698   4.090
90276SOL     OW72660   5.492   3.620   2.719
90276SOL    HW172661   5.582   3.600   2.743
90276SOL    HW272662   5.447   3.635   2.803
90277SOL     OW72663  12.775   4.137   4.500
90277SOL    HW172664  12.785   4.231   4.481
90277SOL    HW272665  12.685   4.117   4.475
90278SOL     OW72666  13.296   2.568  12.852
90278SOL    HW172667  13.260   2.655  12.836
90278SOL    HW272668  13.319   2.568  12.944
90279SOL     OW72669   7.968   0.095   1.804
90279SOL    HW172670   8.023   0.033   1.757
90279SOL    HW272671   7.903   0.124   1.740
90280SOL     OW72672   0.521   9.297   2.439
90280SOL    HW172673   0.459   9.227   2.458
90280SOL    HW272674   0.530   9.296   2.344
90281SOL     OW72675  14.652   2.343   6.451
90281SOL    HW172676  14.644   2.408   6.381
90281SOL    HW272677  14.746   2.328   6.460
90282SOL     OW72678   9.152   9.857  11.719
90282SOL    HW172679   9.189   9.921  11.780
90282SOL    HW272680   9.220   9.790  11.709
90283SOL     OW72681   0.741   7.367   0.932
90283SOL    HW172682   0.682   7.310   0.884
90283SOL    HW272683   0.794   7.308   0.986
90284SOL     OW72684   0.333   5.494   0.779
90284SOL    HW172685   0.249   5.451   0.766
90284SOL    HW272686   0.313   5.587   0.783
90285SOL     OW72687   8.430   6.662  11.435
90285SOL    HW172688   8.499   6.666  11.502
90285SOL    HW272689   8.477   6.664  11.352
90286SOL     OW72690   7.844  10.745  13.648
90286SOL    HW172691   7.801  10.661  13.632
90286SOL    HW272692   7.878  10.771  13.563
90287SOL     OW72693   0.465  10.059   1.279
90287SOL    HW172694   0.432  10.063   1.369
90287SOL    HW272695   0.519  10.138   1.270
90288SOL     OW72696  10.714   0.879   0.489
90288SOL    HW172697  10.707   0.800   0.543
90288SOL    HW272698  10.645   0.937   0.521
90289SOL     OW72699   7.405   3.645   9.451
90289SOL    HW172700   7.371   3.716   9.505
90289SOL    HW272701   7.428   3.687   9.368
90290SOL     OW72702   1.983   1.331   1.722
90290SOL    HW172703   2.048   1.386   1.766
90290SOL    HW272704   1.960   1.381   1.643
90291SOL     OW72705  12.200   1.842  10.469
90291SOL    HW172706  12.147   1.763  10.479
90291SOL    HW272707  12.184   1.870  10.379
90292SOL     OW72708  12.752  14.379  10.455
90292SOL    HW172709  12.833  14.412  10.493
90292SOL    HW272710  12.780  14.320  10.385
90293SOL     OW72711   5.406   9.416   2.362
90293SOL    HW172712   5.353   9.476   2.414
90293SOL    HW272713   5.364   9.331   2.374
90294SOL     OW72714   0.823   2.852  14.434
90294SOL    HW172715   0.902   2.799  14.423
90294SOL    HW272716   0.845   2.913  14.504
90295SOL     OW72717   1.794  12.995   8.940
90295SOL    HW172718   1.700  12.976   8.951
90295SOL    HW272719   1.834  12.910   8.924
90296SOL     OW72720  14.867  13.327   4.634
90296SOL    HW172721   0.079  13.318   4.663
90296SOL    HW272722  14.874  13.359   4.545
90297SOL     OW72723   6.028   2.664   7.683
90297SOL    HW172724   6.020   2.753   7.716
90297SOL    HW272725   6.066   2.673   7.595
90298SOL     OW72726   4.940   0.285  13.612
90298SOL    HW172727   4.912   0.377  13.616
90298SOL    HW272728   4.884   0.240  13.674
90299SOL     OW72729  11.058   4.576  12.051
90299SOL    HW172730  11.053   4.512  12.121
90299SOL    HW272731  11.060   4.661  12.096
90300SOL     OW72732   0.506  11.123   9.466
90300SOL    HW172733   0.480  11.141   9.376
90300SOL    HW272734   0.589  11.168   9.478
90301SOL     OW72735   9.167   4.835   3.848
90301SOL    HW172736   9.223   4.812   3.774
90301SOL    HW272737   9.100   4.892   3.811
90302SOL     OW72738  11.123   7.284   1.151
90302SOL    HW172739  11.102   7.367   1.108
90302SOL    HW272740  11.115   7.218   1.082
90303SOL     OW72741   7.780  12.410  13.588
90303SOL    HW172742   7.808  12.501  13.589
90303SOL    HW272743   7.753  12.392  13.678
90304SOL     OW72744   4.565  10.478  13.753
90304SOL    HW172745   4.607  10.419  13.691
90304SOL    HW272746   4.623  10.554  13.757
90305SOL     OW72747   9.022   1.080  14.781
90305SOL    HW172748   9.004   1.110  14.870
90305SOL    HW272749   8.936   1.058  14.745
90306SOL     OW72750   1.690   7.501   7.416
90306SOL    HW172751   1.628   7.483   7.346
90306SOL    HW272752   1.775   7.476   7.379
90307SOL     OW72753  14.697   3.636   6.616
90307SOL    HW172754  14.723   3.727   6.604
90307SOL    HW272755  14.752   3.604   6.687
90308SOL     OW72756   6.727   8.778   0.045
90308SOL    HW172757   6.642   8.807   0.010
90308SOL    HW272758   6.705   8.738   0.129
90309SOL     OW72759   2.275   8.813   0.499
90309SOL    HW172760   2.267   8.810   0.594
90309SOL    HW272761   2.328   8.891   0.482
90310SOL     OW72762  13.423   5.333   7.670
90310SOL    HW172763  13.433   5.270   7.741
90310SOL    HW272764  13.332   5.327   7.644
90311SOL     OW72765   7.221   4.959   6.736
90311SOL    HW172766   7.270   4.877   6.740
90311SOL    HW272767   7.179   4.966   6.821
90312SOL     OW72768   8.903   9.318   8.194
90312SOL    HW172769   8.843   9.257   8.151
90312SOL    HW272770   8.847   9.389   8.224
90313SOL     OW72771   7.603  12.185   2.112
90313SOL    HW172772   7.663  12.115   2.088
90313SOL    HW272773   7.584  12.170   2.205
90314SOL     OW72774   5.343  10.573  12.606
90314SOL    HW172775   5.376  10.662  12.613
90314SOL    HW272776   5.331  10.544  12.697
90315SOL     OW72777  11.041  13.871  13.136
90315SOL    HW172778  10.964  13.848  13.084
90315SOL    HW272779  11.027  13.828  13.221
90316SOL     OW72780   0.794  13.906  13.935
90316SOL    HW172781   0.878  13.937  13.970
90316SOL    HW272782   0.758  13.852  14.006
90317SOL     OW72783   0.435  13.827   7.296
90317SOL    HW172784   0.375  13.902   7.291
90317SOL    HW272785   0.519  13.865   7.318
90318SOL     OW72786   6.177   3.893   2.222
90318SOL    HW172787   6.169   3.809   2.177
90318SOL    HW272788   6.167   3.872   2.315
90319SOL     OW72789  12.266   4.885  14.367
90319SOL    HW172790  12.176   4.854  14.379
90319SOL    HW272791  12.310   4.812  14.323
90320SOL     OW72792  10.660   8.973   5.609
90320SOL    HW172793  10.754   8.982   5.593
90320SOL    HW272794  10.653   8.956   5.703
90321SOL     OW72795   6.173  10.106  10.063
90321SOL    HW172796   6.226  10.060   9.998
90321SOL    HW272797   6.110  10.157  10.011
90322SOL     OW72798  11.114   2.762   7.125
90322SOL    HW172799  11.034   2.710   7.127
90322SOL    HW272800  11.180   2.702   7.089
90323SOL     OW72801   6.337   6.286   5.313
90323SOL    HW172802   6.263   6.326   5.267
90323SOL    HW272803   6.409   6.347   5.301
90324SOL     OW72804   1.773   2.128   5.296
90324SOL    HW172805   1.798   2.167   5.380
90324SOL    HW272806   1.845   2.149   5.237
90325SOL     OW72807   8.624  12.387   2.236
90325SOL    HW172808   8.569  12.369   2.160
90325SOL    HW272809   8.578  12.455   2.284
90326SOL     OW72810   9.613   7.833  13.243
90326SOL    HW172811   9.559   7.835  13.321
90326SOL    HW272812   9.690   7.782  13.269
90327SOL     OW72813  12.483   6.971  13.411
90327SOL    HW172814  12.545   6.952  13.481
90327SOL    HW272815  12.524   6.935  13.332
90328SOL     OW72816   1.066  13.614   3.716
90328SOL    HW172817   1.012  13.652   3.785
90328SOL    HW272818   1.004  13.570   3.658
90329SOL     OW72819  11.894   6.457  11.964
90329SOL    HW172820  11.948   6.510  12.022
90329SOL    HW272821  11.954   6.427  11.896
90330SOL     OW72822   2.612   4.207  10.315
90330SOL    HW172823   2.613   4.116  10.342
90330SOL    HW272824   2.520   4.229  10.306
90331SOL     OW72825   7.781  13.051   0.800
90331SOL    HW172826   7.865  13.010   0.822
90331SOL    HW272827   7.717  13.007   0.855
90332SOL     OW72828  13.972   6.306   7.522
90332SOL    HW172829  14.056   6.283   7.481
90332SOL    HW272830  13.909   6.245   7.483
90333SOL     OW72831   4.702   5.693   7.121
90333SOL    HW172832   4.634   5.735   7.174
90333SOL    HW272833   4.750   5.766   7.082
90334SOL     OW72834   7.056  14.534   8.713
90334SOL    HW172835   7.071  14.590   8.636
90334SOL    HW272836   7.070  14.445   8.680
90335SOL     OW72837  11.612   6.749   4.761
90335SOL    HW172838  11.682   6.706   4.810
90335SOL    HW272839  11.532   6.706   4.790
90336SOL     OW72840   4.021   8.319   4.985
90336SOL    HW172841   4.021   8.378   4.910
90336SOL    HW272842   3.979   8.239   4.953
90337SOL     OW72843   4.034   4.114   1.348
90337SOL    HW172844   4.108   4.157   1.390
90337SOL    HW272845   3.957   4.148   1.394
90338SOL     OW72846   6.456  12.511   4.246
90338SOL    HW172847   6.443  12.602   4.272
90338SOL    HW272848   6.368  12.473   4.247
90339SOL     OW72849   0.971   4.313  11.184
90339SOL    HW172850   0.881   4.282  11.197
90339SOL    HW272851   1.013   4.244  11.134
90340SOL     OW72852  12.635   6.574  11.481
90340SOL    HW172853  12.729   6.589  11.489
90340SOL    HW272854  12.628   6.512  11.408
90341SOL     OW72855   8.637   1.000   9.605
90341SOL    HW172856   8.591   0.941   9.665
90341SOL    HW272857   8.568   1.056   9.569
90342SOL     OW72858   9.823   0.384   7.925
90342SOL    HW172859   9.738   0.385   7.969
90342SOL    HW272860   9.802   0.374   7.832
90343SOL     OW72861  11.847   4.585  13.097
90343SOL    HW172862  11.878   4.600  13.186
90343SOL    HW272863  11.831   4.490  13.093
90344SOL     OW72864   1.229  11.586   3.170
90344SOL    HW172865   1.145  11.559   3.207
90344SOL    HW272866   1.220  11.679   3.154
90345SOL     OW72867  14.840  11.488   3.220
90345SOL    HW172868  14.814  11.425   3.288
90345SOL    HW272869  14.805  11.572   3.249
90346SOL     OW72870   1.925   2.609   2.068
90346SOL    HW172871   1.921   2.652   2.153
90346SOL    HW272872   1.983   2.663   2.016
90347SOL     OW72873   4.495   9.105  14.121
90347SOL    HW172874   4.505   9.169  14.192
90347SOL    HW272875   4.495   9.158  14.041
90348SOL     OW72876   9.256   2.229   1.292
90348SOL    HW172877   9.299   2.169   1.231
90348SOL    HW272878   9.320   2.298   1.309
90349SOL     OW72879  14.391   4.631   5.037
90349SOL    HW172880  14.298   4.616   5.023
90349SOL    HW272881  14.405   4.614   5.130
90350SOL     OW72882   1.121   8.402   5.517
90350SOL    HW172883   1.035   8.437   5.540
90350SOL    HW272884   1.181   8.438   5.583
90351SOL     OW72885   6.999   5.444   0.962
90351SOL    HW172886   6.923   5.415   1.012
90351SOL    HW272887   7.003   5.385   0.887
90352SOL     OW72888   9.631   3.439   5.360
90352SOL    HW172889   9.646   3.438   5.265
90352SOL    HW272890   9.702   3.386   5.396
90353SOL     OW72891   9.980  14.152   4.512
90353SOL    HW172892  10.057  14.204   4.488
90353SOL    HW272893   9.969  14.168   4.606
90354SOL     OW72894  14.205   1.095   0.374
90354SOL    HW172895  14.225   1.158   0.443
90354SOL    HW272896  14.115   1.067   0.392
90355SOL     OW72897  12.183  10.505   4.522
90355SOL    HW172898  12.236  10.443   4.473
90355SOL    HW272899  12.205  10.590   4.484
90356SOL     OW72900  14.060   3.660  13.615
90356SOL    HW172901  14.093   3.741  13.575
90356SOL    HW272902  13.976   3.645  13.573
90357SOL     OW72903  10.334   3.522   8.500
90357SOL    HW172904  10.305   3.436   8.531
90357SOL    HW272905  10.401   3.503   8.435
90358SOL     OW72906  13.903  11.139  11.343
90358SOL    HW172907  13.851  11.128  11.263
90358SOL    HW272908  13.868  11.219  11.383
90359SOL     OW72909  13.213   1.768   4.941
90359SOL    HW172910  13.149   1.833   4.971
90359SOL    HW272911  13.271   1.818   4.883
90360SOL     OW72912   5.789   7.891  12.107
90360SOL    HW172913   5.884   7.901  12.099
90360SOL    HW272914   5.761   7.860  12.021
90361SOL     OW72915   9.737   2.412  10.598
90361SOL    HW172916   9.828   2.438  10.589
90361SOL    HW272917   9.734   2.322  10.565
90362SOL     OW72918  10.826   8.154   5.968
90362SOL    HW172919  10.811   8.086   6.034
90362SOL    HW272920  10.831   8.235   6.018
90363SOL     OW72921   8.376   4.929   1.976
90363SOL    HW172922   8.291   4.932   1.933
90363SOL    HW272923   8.356   4.915   2.069
90364SOL     OW72924  12.605  11.297   3.674
90364SOL    HW172925  12.672  11.364   3.659
90364SOL    HW272926  12.578  11.309   3.764
90365SOL     OW72927   0.606   4.728  13.844
90365SOL    HW172928   0.596   4.772  13.760
90365SOL    HW272929   0.517   4.699  13.866
90366SOL     OW72930  12.704   6.035   6.673
90366SOL    HW172931  12.613   6.006   6.662
90366SOL    HW272932  12.753   5.954   6.684
90367SOL     OW72933  11.830   0.335   6.001
90367SOL    HW172934  11.896   0.393   6.039
90367SOL    HW272935  11.766   0.394   5.962
90368SOL     OW72936   2.351   0.483  10.995
90368SOL    HW172937   2.332   0.390  11.007
90368SOL    HW272938   2.406   0.506  11.069
90369SOL     OW72939  14.854   8.170  10.075
90369SOL    HW172940   0.017   8.192  10.158
90369SOL    HW272941   0.043   8.127  10.024
90370SOL     OW72942   0.562  11.353   0.937
90370SOL    HW172943   0.516  11.431   0.906
90370SOL    HW272944   0.640  11.348   0.881
90371SOL     OW72945   1.033   5.286   2.683
90371SOL    HW172946   1.111   5.256   2.729
90371SOL    HW272947   0.965   5.223   2.706
90372SOL     OW72948   3.738   1.718  12.013
90372SOL    HW172949   3.678   1.786  11.983
90372SOL    HW272950   3.682   1.649  12.046
90373SOL     OW72951   9.745   9.916  12.092
90373SOL    HW172952   9.756  10.010  12.079
90373SOL    HW272953   9.820   9.876  12.049
90374SOL     OW72954   1.060   5.035   7.734
90374SOL    HW172955   1.003   5.003   7.664
90374SOL    HW272956   1.000   5.075   7.797
90375SOL     OW72957   1.231  13.108  13.848
90375SOL    HW172958   1.243  13.119  13.942
90375SOL    HW272959   1.163  13.171  13.824
90376SOL     OW72960   1.723   2.229   1.732
90376SOL    HW172961   1.728   2.298   1.798
90376SOL    HW272962   1.631   2.200   1.734
90377SOL     OW72963   7.346   7.660   7.179
90377SOL    HW172964   7.296   7.579   7.169
90377SOL    HW272965   7.286   7.720   7.223
90378SOL     OW72966   8.223   5.239   1.301
90378SOL    HW172967   8.193   5.234   1.392
90378SOL    HW272968   8.303   5.292   1.305
90379SOL     OW72969   6.064   5.641   3.731
90379SOL    HW172970   5.977   5.637   3.691
90379SOL    HW272971   6.076   5.733   3.753
90380SOL     OW72972  10.189  12.061   9.659
90380SOL    HW172973  10.104  12.051   9.616
90380SOL    HW272974  10.181  12.012   9.741
90381SOL     OW72975   4.108   7.140   3.117
90381SOL    HW172976   4.131   7.221   3.070
90381SOL    HW272977   4.186   7.119   3.168
90382SOL     OW72978  10.838   7.849   6.537
90382SOL    HW172979  10.807   7.889   6.618
90382SOL    HW272980  10.776   7.778   6.520
90383SOL     OW72981   4.392  10.303   3.010
90383SOL    HW172982   4.306  10.289   2.971
90383SOL    HW272983   4.373  10.327   3.101
90384SOL     OW72984   4.956   9.467   6.281
90384SOL    HW172985   4.931   9.559   6.289
90384SOL    HW272986   5.031   9.457   6.340
90385SOL     OW72987   7.847   3.621  11.894
90385SOL    HW172988   7.884   3.613  11.982
90385SOL    HW272989   7.780   3.689  11.902
90386SOL     OW72990   6.558   9.563   1.551
90386SOL    HW172991   6.477   9.579   1.502
90386SOL    HW272992   6.600   9.649   1.558
90387SOL     OW72993   5.481   0.796   2.664
90387SOL    HW172994   5.482   0.891   2.655
90387SOL    HW272995   5.389   0.773   2.672
90388SOL     OW72996   4.190  14.417   3.201
90388SOL    HW172997   4.209  14.457   3.286
90388SOL    HW272998   4.214  14.484   3.137
90389SOL     OW72999  11.473   2.822   0.152
90389SOL    HW173000  11.501   2.733   0.132
90389SOL    HW273001  11.532   2.850   0.222
90390SOL     OW73002   8.287   0.754  12.849
90390SOL    HW173003   8.358   0.782  12.908
90390SOL    HW273004   8.222   0.715  12.908
90391SOL     OW73005   7.645  13.447   0.381
90391SOL    HW173006   7.700  13.412   0.451
90391SOL    HW273007   7.698  13.438   0.302
90392SOL     OW73008   7.904  14.463   2.744
90392SOL    HW173009   7.859  14.424   2.819
90392SOL    HW273010   7.841  14.456   2.672
90393SOL     OW73011   2.716   1.047  11.268
90393SOL    HW173012   2.630   1.090  11.270
90393SOL    HW273013   2.700   0.964  11.223
90394SOL     OW73014  14.542   1.809  13.661
90394SOL    HW173015  14.554   1.715  13.677
90394SOL    HW273016  14.574   1.851  13.740
90395SOL     OW73017   0.619  13.125  13.236
90395SOL    HW173018   0.544  13.099  13.290
90395SOL    HW273019   0.670  13.045  13.225
90396SOL     OW73020   8.738  14.723   2.603
90396SOL    HW173021   8.684  14.644   2.611
90396SOL    HW273022   8.693  14.777   2.538
90397SOL     OW73023   2.744   7.055   4.652
90397SOL    HW173024   2.825   7.075   4.604
90397SOL    HW273025   2.712   6.974   4.611
90398SOL     OW73026   6.093   9.596  10.161
90398SOL    HW173027   6.129   9.685  10.151
90398SOL    HW273028   6.103   9.556  10.075
90399SOL     OW73029   3.685  11.853   5.044
90399SOL    HW173030   3.598  11.839   5.082
90399SOL    HW273031   3.745  11.846   5.118
90400SOL     OW73032  13.951  12.920  11.266
90400SOL    HW173033  13.927  12.931  11.358
90400SOL    HW273034  14.030  12.866  11.267
90401SOL     OW73035   4.470  11.055   6.855
90401SOL    HW173036   4.384  11.025   6.826
90401SOL    HW273037   4.516  11.080   6.775
90402SOL     OW73038  11.666  11.616   8.748
90402SOL    HW173039  11.750  11.629   8.703
90402SOL    HW273040  11.678  11.534   8.797
90403SOL     OW73041   0.379   5.503   2.350
90403SOL    HW173042   0.344   5.480   2.264
90403SOL    HW273043   0.382   5.420   2.398
90404SOL     OW73044   5.219  10.097   7.540
90404SOL    HW173045   5.170  10.023   7.574
90404SOL    HW273046   5.311  10.069   7.545
90405SOL     OW73047   1.820  14.209   9.080
90405SOL    HW173048   1.768  14.171   9.009
90405SOL    HW273049   1.861  14.133   9.122
90406SOL     OW73050  13.241   1.824   0.164
90406SOL    HW173051  13.197   1.908   0.150
90406SOL    HW273052  13.334   1.843   0.151
90407SOL     OW73053   0.414   1.188   3.663
90407SOL    HW173054   0.477   1.234   3.607
90407SOL    HW273055   0.379   1.256   3.721
90408SOL     OW73056  10.575  14.465   0.628
90408SOL    HW173057  10.575  14.559   0.611
90408SOL    HW273058  10.662  14.447   0.664
90409SOL     OW73059  13.019  10.587   6.172
90409SOL    HW173060  12.941  10.567   6.119
90409SOL    HW273061  12.985  10.605   6.259
90410SOL     OW73062  12.239  12.113   1.469
90410SOL    HW173063  12.289  12.032   1.469
90410SOL    HW273064  12.306  12.182   1.462
90411SOL     OW73065   2.539   1.329   2.118
90411SOL    HW173066   2.448   1.357   2.113
90411SOL    HW273067   2.571   1.335   2.028
90412SOL     OW73068  12.397  13.703   7.729
90412SOL    HW173069  12.322  13.742   7.684
90412SOL    HW273070  12.417  13.764   7.800
90413SOL     OW73071   2.428   3.765   5.990
90413SOL    HW173072   2.452   3.673   5.995
90413SOL    HW273073   2.391   3.785   6.076
90414SOL     OW73074   6.412   3.364   2.787
90414SOL    HW173075   6.478   3.328   2.847
90414SOL    HW273076   6.458   3.433   2.740
90415SOL     OW73077   3.279   2.220   6.215
90415SOL    HW173078   3.330   2.288   6.171
90415SOL    HW273079   3.233   2.266   6.285
90416SOL     OW73080   6.303  13.693  12.139
90416SOL    HW173081   6.243  13.765  12.157
90416SOL    HW273082   6.252  13.631  12.087
90417SOL     OW73083   6.507   5.085   6.619
90417SOL    HW173084   6.497   5.026   6.694
90417SOL    HW273085   6.563   5.037   6.558
90418SOL     OW73086  12.194  14.672   3.110
90418SOL    HW173087  12.128  14.740   3.110
90418SOL    HW273088  12.265  14.707   3.056
90419SOL     OW73089   1.949   0.618   6.081
90419SOL    HW173090   1.957   0.710   6.106
90419SOL    HW273091   2.036   0.593   6.051
90420SOL     OW73092  11.252   4.568   9.014
90420SOL    HW173093  11.188   4.498   9.026
90420SOL    HW273094  11.204   4.636   8.966
90421SOL     OW73095   3.613   7.721   2.862
90421SOL    HW173096   3.635   7.771   2.784
90421SOL    HW273097   3.698   7.693   2.897
90422SOL     OW73098   8.818   6.098   2.332
90422SOL    HW173099   8.777   6.172   2.285
90422SOL    HW273100   8.763   6.023   2.310
90423SOL     OW73101   7.656   4.839   0.115
90423SOL    HW173102   7.705   4.916   0.086
90423SOL    HW273103   7.604   4.813   0.040
90424SOL     OW73104   3.585   6.536  13.301
90424SOL    HW173105   3.498   6.576  13.303
90424SOL    HW273106   3.579   6.470  13.232
90425SOL     OW73107  13.874   3.807   8.869
90425SOL    HW173108  13.863   3.863   8.946
90425SOL    HW273109  13.855   3.865   8.795
90426SOL     OW73110   4.571  14.287   0.417
90426SOL    HW173111   4.592  14.362   0.361
90426SOL    HW273112   4.483  14.260   0.389
90427SOL     OW73113   2.817   7.651   0.643
90427SOL    HW173114   2.726   7.653   0.672
90427SOL    HW273115   2.866   7.617   0.718
90428SOL     OW73116  10.381   0.849   8.919
90428SOL    HW173117  10.290   0.841   8.889
90428SOL    HW273118  10.432   0.856   8.839
90429SOL     OW73119   0.173   4.786  10.032
90429SOL    HW173120   0.096   4.732  10.015
90429SOL    HW273121   0.225   4.735  10.093
90430SOL     OW73122  12.677   3.199  14.417
90430SOL    HW173123  12.644   3.262  14.481
90430SOL    HW273124  12.706   3.253  14.343
90431SOL     OW73125  13.527   8.278  14.001
90431SOL    HW173126  13.559   8.264  14.090
90431SOL    HW273127  13.590   8.233  13.946
90432SOL     OW73128   2.433   2.597   6.326
90432SOL    HW173129   2.386   2.671   6.363
90432SOL    HW273130   2.364   2.540   6.291
90433SOL     OW73131   8.155   4.219   1.929
90433SOL    HW173132   8.169   4.287   1.995
90433SOL    HW273133   8.202   4.143   1.963
90434SOL     OW73134   5.820  12.437   8.245
90434SOL    HW173135   5.790  12.358   8.289
90434SOL    HW273136   5.899  12.410   8.198
90435SOL     OW73137   3.675  13.025   7.581
90435SOL    HW173138   3.723  13.041   7.663
90435SOL    HW273139   3.586  13.006   7.609
90436SOL     OW73140  13.269   4.132  13.584
90436SOL    HW173141  13.186   4.091  13.606
90436SOL    HW273142  13.265   4.218  13.625
90437SOL     OW73143   4.492   8.895   1.451
90437SOL    HW173144   4.437   8.937   1.517
90437SOL    HW273145   4.432   8.838   1.403
90438SOL     OW73146  11.597  12.984  14.407
90438SOL    HW173147  11.572  13.044  14.337
90438SOL    HW273148  11.638  13.039  14.473
90439SOL     OW73149   5.475  13.610  12.366
90439SOL    HW173150   5.381  13.603  12.378
90439SOL    HW273151   5.510  13.626  12.453
90440SOL     OW73152  10.313   6.249   5.177
90440SOL    HW173153  10.321   6.156   5.200
90440SOL    HW273154  10.266   6.288   5.250
90441SOL     OW73155  10.855   0.358  10.693
90441SOL    HW173156  10.939   0.388  10.659
90441SOL    HW273157  10.847   0.402  10.778
90442SOL     OW73158   7.776   4.347  11.225
90442SOL    HW173159   7.863   4.336  11.187
90442SOL    HW273160   7.735   4.415  11.171
90443SOL     OW73161  11.127   9.359   9.596
90443SOL    HW173162  11.088   9.314   9.670
90443SOL    HW273163  11.099   9.309   9.519
90444SOL     OW73164   1.428   5.288   0.412
90444SOL    HW173165   1.385   5.205   0.392
90444SOL    HW273166   1.452   5.323   0.326
90445SOL     OW73167   9.910   5.730   3.911
90445SOL    HW173168   9.982   5.704   3.854
90445SOL    HW273169   9.844   5.764   3.852
90446SOL     OW73170  13.260   7.481   9.572
90446SOL    HW173171  13.319   7.519   9.638
90446SOL    HW273172  13.286   7.522   9.490
90447SOL     OW73173  13.606   0.336   9.496
90447SOL    HW173174  13.699   0.322   9.479
90447SOL    HW273175  13.595   0.431   9.499
90448SOL     OW73176  13.532   7.542   4.711
90448SOL    HW173177  13.550   7.565   4.802
90448SOL    HW273178  13.562   7.452   4.702
90449SOL     OW73179  12.962   2.408   3.030
90449SOL    HW173180  12.967   2.346   3.102
90449SOL    HW273181  12.981   2.493   3.070
90450SOL     OW73182  11.409   2.938  11.526
90450SOL    HW173183  11.431   2.895  11.444
90450SOL    HW273184  11.475   3.007  11.535
90451SOL     OW73185   5.528   0.396   5.913
90451SOL    HW173186   5.550   0.305   5.895
90451SOL    HW273187   5.607   0.444   5.889
90452SOL     OW73188  14.251   2.795   2.745
90452SOL    HW173189  14.335   2.810   2.789
90452SOL    HW273190  14.214   2.882   2.733
90453SOL     OW73191   0.743   7.193   8.339
90453SOL    HW173192   0.810   7.164   8.400
90453SOL    HW273193   0.761   7.286   8.325
90454SOL     OW73194  10.396   4.337   9.596
90454SOL    HW173195  10.353   4.296   9.522
90454SOL    HW273196  10.329   4.395   9.634
90455SOL     OW73197  10.415   6.809   1.459
90455SOL    HW173198  10.482   6.792   1.526
90455SOL    HW273199  10.438   6.749   1.388
90456SOL     OW73200  12.165  11.842   4.452
90456SOL    HW173201  12.124  11.798   4.527
90456SOL    HW273202  12.194  11.771   4.395
90457SOL     OW73203  11.396  14.614   5.485
90457SOL    HW173204  11.449  14.693   5.473
90457SOL    HW273205  11.370  14.616   5.577
90458SOL     OW73206   2.201   5.619  13.057
90458SOL    HW173207   2.169   5.702  13.093
90458SOL    HW273208   2.290   5.611  13.092
90459SOL     OW73209  13.546  13.900   2.273
90459SOL    HW173210  13.549  13.826   2.212
90459SOL    HW273211  13.453  13.909   2.293
90460SOL     OW73212   5.050   7.929   6.731
90460SOL    HW173213   5.019   7.838   6.725
90460SOL    HW273214   5.105   7.930   6.809
90461SOL     OW73215   7.129   0.014   9.679
90461SOL    HW173216   7.218  14.862   9.696
90461SOL    HW273217   7.141   0.089   9.621
90462SOL     OW73218   2.831  11.088   4.632
90462SOL    HW173219   2.862  11.172   4.665
90462SOL    HW273220   2.763  11.062   4.694
90463SOL     OW73221   7.456  12.743   4.407
90463SOL    HW173222   7.488  12.833   4.394
90463SOL    HW273223   7.419  12.743   4.495
90464SOL     OW73224   5.353   9.619   0.311
90464SOL    HW173225   5.345   9.528   0.341
90464SOL    HW273226   5.421   9.657   0.366
90465SOL     OW73227   1.081   0.947   9.187
90465SOL    HW173228   1.124   1.015   9.136
90465SOL    HW273229   1.091   0.868   9.135
90466SOL     OW73230  10.801   1.540  14.087
90466SOL    HW173231  10.879   1.546  14.142
90466SOL    HW273232  10.780   1.630  14.064
90467SOL     OW73233   0.560   4.223   1.067
90467SOL    HW173234   0.523   4.203   1.153
90467SOL    HW273235   0.647   4.258   1.086
90468SOL     OW73236  12.758   9.202   1.861
90468SOL    HW173237  12.803   9.241   1.936
90468SOL    HW273238  12.678   9.253   1.852
90469SOL     OW73239   9.707   4.715   3.278
90469SOL    HW173240   9.766   4.790   3.282
90469SOL    HW273241   9.765   4.639   3.269
90470SOL     OW73242  11.171   7.195  10.709
90470SOL    HW173243  11.200   7.274  10.753
90470SOL    HW273244  11.179   7.126  10.775
90471SOL     OW73245   3.444   0.262  14.857
90471SOL    HW173246   3.417   0.286   0.066
90471SOL    HW273247   3.385   0.191  14.832
90472SOL     OW73248  14.420   1.685   0.195
90472SOL    HW173249  14.472   1.705   0.272
90472SOL    HW273250  14.456   1.603   0.161
90473SOL     OW73251   9.990  14.861  12.802
90473SOL    HW173252  10.029   0.049  12.858
90473SOL    HW273253   9.971   0.027  12.720
90474SOL     OW73254   5.343   4.886  11.391
90474SOL    HW173255   5.308   4.894  11.479
90474SOL    HW273256   5.400   4.809  11.394
90475SOL     OW73257  13.642  10.523   2.721
90475SOL    HW173258  13.672  10.459   2.656
90475SOL    HW273259  13.593  10.470   2.785
90476SOL     OW73260  10.080   9.099  13.248
90476SOL    HW173261  10.005   9.157  13.253
90476SOL    HW273262  10.045   9.017  13.211
90477SOL     OW73263  12.940  13.501  14.587
90477SOL    HW173264  12.942  13.581  14.534
90477SOL    HW273265  13.032  13.476  14.597
90478SOL     OW73266   9.666  12.065  12.993
90478SOL    HW173267   9.643  12.006  13.064
90478SOL    HW273268   9.610  12.038  12.920
90479SOL     OW73269  11.111   1.462   0.239
90479SOL    HW173270  11.018   1.462   0.259
90479SOL    HW273271  11.146   1.535   0.289
90480SOL     OW73272   0.115   4.093  10.757
90480SOL    HW173273   0.101   4.024  10.692
90480SOL    HW273274   0.112   4.047  10.841
90481SOL     OW73275   9.951  12.493  11.762
90481SOL    HW173276   9.991  12.419  11.808
90481SOL    HW273277   9.974  12.569  11.815
90482SOL     OW73278   7.252  13.862  12.632
90482SOL    HW173279   7.338  13.856  12.674
90482SOL    HW273280   7.232  13.956  12.633
90483SOL     OW73281   3.784   1.619   8.571
90483SOL    HW173282   3.754   1.530   8.554
90483SOL    HW273283   3.764   1.633   8.664
90484SOL     OW73284   0.391   4.626   0.558
90484SOL    HW173285   0.295   4.620   0.564
90484SOL    HW273286   0.414   4.703   0.610
90485SOL     OW73287   3.603   4.715  12.042
90485SOL    HW173288   3.670   4.783  12.037
90485SOL    HW273289   3.624   4.655  11.971
90486SOL     OW73290   5.262   5.538   3.000
90486SOL    HW173291   5.305   5.519   2.917
90486SOL    HW273292   5.172   5.560   2.976
90487SOL     OW73293   1.688  10.609   7.830
90487SOL    HW173294   1.617  10.656   7.785
90487SOL    HW273295   1.688  10.522   7.790
90488SOL     OW73296   2.868  12.730  10.290
90488SOL    HW173297   2.884  12.732  10.384
90488SOL    HW273298   2.831  12.643  10.274
90489SOL     OW73299   2.656  10.066   1.165
90489SOL    HW173300   2.655  10.070   1.261
90489SOL    HW273301   2.735  10.015   1.145
90490SOL     OW73302   1.242   5.636  11.973
90490SOL    HW173303   1.194   5.700  12.025
90490SOL    HW273304   1.293   5.586  12.037
90491SOL     OW73305   3.083  10.935   9.623
90491SOL    HW173306   3.142  10.954   9.550
90491SOL    HW273307   3.139  10.895   9.689
90492SOL     OW73308  12.891  11.442   8.034
90492SOL    HW173309  12.928  11.358   8.005
90492SOL    HW273310  12.811  11.452   7.984
90493SOL     OW73311   9.988   5.793  14.402
90493SOL    HW173312  10.015   5.727  14.466
90493SOL    HW273313   9.969   5.743  14.323
90494SOL     OW73314   4.382   3.157  12.501
90494SOL    HW173315   4.470   3.128  12.524
90494SOL    HW273316   4.343   3.081  12.457
90495SOL     OW73317  14.075   3.919   4.806
90495SOL    HW173318  14.058   3.990   4.867
90495SOL    HW273319  13.990   3.878   4.791
90496SOL     OW73320  10.290  12.016   4.529
90496SOL    HW173321  10.242  12.035   4.448
90496SOL    HW273322  10.293  12.100   4.575
90497SOL     OW73323  11.600   0.272   8.125
90497SOL    HW173324  11.510   0.293   8.098
90497SOL    HW273325  11.608   0.313   8.212
90498SOL     OW73326   5.940   7.776  13.471
90498SOL    HW173327   5.899   7.797  13.388
90498SOL    HW273328   6.010   7.840  13.481
90499SOL     OW73329   2.575  13.370   5.529
90499SOL    HW173330   2.490  13.375   5.487
90499SOL    HW273331   2.556  13.374   5.623
90500SOL     OW73332  13.028  11.248   7.881
90500SOL    HW173333  13.086  11.173   7.889
90500SOL    HW273334  12.968  11.225   7.810
90501SOL     OW73335  13.813  14.701  11.171
90501SOL    HW173336  13.785  14.720  11.261
90501SOL    HW273337  13.909  14.702  11.175
90502SOL     OW73338  10.406  11.421   1.672
90502SOL    HW173339  10.411  11.511   1.640
90502SOL    HW273340  10.337  11.422   1.738
90503SOL     OW73341  11.630   4.944  12.227
90503SOL    HW173342  11.629   5.039  12.220
90503SOL    HW273343  11.706   4.917  12.175
90504SOL     OW73344   9.947  11.604   9.388
90504SOL    HW173345   9.927  11.662   9.315
90504SOL    HW273346   9.874  11.614   9.449
90505SOL     OW73347  14.035  11.985   1.933
90505SOL    HW173348  14.038  12.070   1.889
90505SOL    HW273349  13.949  11.949   1.909
90506SOL     OW73350   8.254   1.264   7.846
90506SOL    HW173351   8.309   1.327   7.893
90506SOL    HW273352   8.307   1.238   7.770
90507SOL     OW73353   1.049  14.167   1.757
90507SOL    HW173354   1.111  14.223   1.711
90507SOL    HW273355   1.055  14.195   1.849
90508SOL     OW73356  12.286  13.869  13.527
90508SOL    HW173357  12.370  13.855  13.483
90508SOL    HW273358  12.274  13.792  13.582
90509SOL     OW73359   7.385   0.466  12.611
90509SOL    HW173360   7.372   0.376  12.580
90509SOL    HW273361   7.386   0.459  12.706
90510SOL     OW73362   3.307   8.051   9.962
90510SOL    HW173363   3.392   8.009   9.973
90510SOL    HW273364   3.318   8.110   9.888
90511SOL     OW73365   1.483   1.181   2.704
90511SOL    HW173366   1.484   1.210   2.613
90511SOL    HW273367   1.416   1.113   2.708
90512SOL     OW73368   7.464   4.171   4.626
90512SOL    HW173369   7.500   4.100   4.573
90512SOL    HW273370   7.540   4.214   4.665
90513SOL     OW73371  10.169   0.301  12.429
90513SOL    HW173372  10.177   0.293  12.334
90513SOL    HW273373  10.217   0.225  12.464
90514SOL     OW73374   8.813  11.479   3.532
90514SOL    HW173375   8.824  11.385   3.521
90514SOL    HW273376   8.795  11.512   3.444
90515SOL     OW73377  10.952  13.516   7.996
90515SOL    HW173378  10.934  13.595   8.047
90515SOL    HW273379  11.000  13.459   8.055
90516SOL     OW73380  14.177   0.212  14.303
90516SOL    HW173381  14.268   0.209  14.274
90516SOL    HW273382  14.156   0.306  14.307
90517SOL     OW73383   1.398   5.900  10.941
90517SOL    HW173384   1.439   5.927  10.859
90517SOL    HW273385   1.412   5.806  10.946
90518SOL     OW73386   9.133   6.762   5.283
90518SOL    HW173387   9.183   6.681   5.281
90518SOL    HW273388   9.117   6.779   5.376
90519SOL     OW73389  13.174   7.448   8.393
90519SOL    HW173390  13.163   7.526   8.338
90519SOL    HW273391  13.108   7.387   8.361
90520SOL     OW73392   3.488   1.887   3.738
90520SOL    HW173393   3.474   1.981   3.743
90520SOL    HW273394   3.541   1.875   3.659
90521SOL     OW73395   3.714   3.539   8.177
90521SOL    HW173396   3.643   3.603   8.178
90521SOL    HW273397   3.710   3.500   8.090
90522SOL     OW73398   2.466   5.689   5.256
90522SOL    HW173399   2.411   5.648   5.323
90522SOL    HW273400   2.467   5.627   5.184
90523SOL     OW73401   1.943   2.044  11.327
90523SOL    HW173402   1.994   1.983  11.273
90523SOL    HW273403   1.975   2.031  11.416
90524SOL     OW73404   3.551   9.117   5.269
90524SOL    HW173405   3.639   9.153   5.260
90524SOL    HW273406   3.564   9.030   5.307
90525SOL     OW73407   3.837   1.858   7.289
90525SOL    HW173408   3.776   1.841   7.360
90525SOL    HW273409   3.857   1.951   7.295
90526SOL     OW73410  10.445  11.178   2.768
90526SOL    HW173411  10.488  11.101   2.806
90526SOL    HW273412  10.481  11.252   2.816
90527SOL     OW73413   1.469   4.575  10.021
90527SOL    HW173414   1.399   4.533  10.072
90527SOL    HW273415   1.533   4.506  10.007
90528SOL     OW73416   5.163   1.326   5.068
90528SOL    HW173417   5.078   1.286   5.048
90528SOL    HW273418   5.226   1.275   5.018
90529SOL     OW73419   7.963   4.957  10.798
90529SOL    HW173420   8.030   4.966  10.866
90529SOL    HW273421   7.984   5.025  10.734
90530SOL     OW73422   3.281   9.653   1.239
90530SOL    HW173423   3.317   9.597   1.170
90530SOL    HW273424   3.188   9.631   1.242
90531SOL     OW73425   0.483   4.745   8.735
90531SOL    HW173426   0.532   4.774   8.658
90531SOL    HW273427   0.391   4.747   8.706
90532SOL     OW73428  11.920   9.672   4.904
90532SOL    HW173429  11.979   9.747   4.898
90532SOL    HW273430  11.835   9.706   4.877
90533SOL     OW73431   5.929   9.435   6.352
90533SOL    HW173432   5.989   9.509   6.337
90533SOL    HW273433   5.848   9.462   6.310
90534SOL     OW73434   0.282   9.122   0.253
90534SOL    HW173435   0.280   9.026   0.252
90534SOL    HW273436   0.365   9.144   0.297
90535SOL     OW73437  10.456   6.214   6.105
90535SOL    HW173438  10.481   6.130   6.143
90535SOL    HW273439  10.530   6.238   6.049
90536SOL     OW73440  13.131   2.687  13.315
90536SOL    HW173441  13.175   2.762  13.355
90536SOL    HW273442  13.145   2.700  13.221
90537SOL     OW73443  13.502   5.402   0.451
90537SOL    HW173444  13.496   5.347   0.530
90537SOL    HW273445  13.551   5.479   0.480
90538SOL     OW73446   9.415  10.300  11.973
90538SOL    HW173447   9.338  10.317  11.918
90538SOL    HW273448   9.431  10.384  12.017
90539SOL     OW73449  10.843  12.476   7.909
90539SOL    HW173450  10.750  12.478   7.929
90539SOL    HW273451  10.872  12.391   7.942
90540SOL     OW73452  14.003   5.947   5.666
90540SOL    HW173453  14.043   5.996   5.594
90540SOL    HW273454  13.909   5.965   5.657
90541SOL     OW73455   0.752  10.958   3.403
90541SOL    HW173456   0.730  10.876   3.448
90541SOL    HW273457   0.750  10.935   3.310
90542SOL     OW73458   9.902   5.134  11.767
90542SOL    HW173459   9.997   5.127  11.780
90542SOL    HW273460   9.880   5.059  11.712
90543SOL     OW73461   0.445  10.652  10.449
90543SOL    HW173462   0.520  10.645  10.508
90543SOL    HW273463   0.371  10.621  10.500
90544SOL     OW73464   6.969  13.109  13.699
90544SOL    HW173465   7.036  13.138  13.637
90544SOL    HW273466   6.899  13.174  13.691
90545SOL     OW73467   0.909   6.961  10.302
90545SOL    HW173468   0.971   6.981  10.372
90545SOL    HW273469   0.881   7.047  10.270
90546SOL     OW73470  14.527   1.029  13.531
90546SOL    HW173471  14.544   0.970  13.458
90546SOL    HW273472  14.472   0.978  13.591
90547SOL     OW73473   4.748   0.828   5.611
90547SOL    HW173474   4.781   0.857   5.525
90547SOL    HW273475   4.725   0.909   5.656
90548SOL     OW73476  12.506   6.322   9.391
90548SOL    HW173477  12.446   6.321   9.316
90548SOL    HW273478  12.516   6.415   9.412
90549SOL     OW73479  11.569  10.173   6.216
90549SOL    HW173480  11.643  10.113   6.224
90549SOL    HW273481  11.600  10.243   6.158
90550SOL     OW73482   6.811  10.571   9.991
90550SOL    HW173483   6.736  10.523  10.027
90550SOL    HW273484   6.858  10.506   9.939
90551SOL     OW73485   0.808   3.537   5.033
90551SOL    HW173486   0.876   3.500   4.976
90551SOL    HW273487   0.747   3.465   5.048
90552SOL     OW73488   6.896   0.517   1.064
90552SOL    HW173489   6.917   0.543   0.975
90552SOL    HW273490   6.957   0.566   1.119
90553SOL     OW73491  10.182   2.172  12.881
90553SOL    HW173492  10.115   2.217  12.830
90553SOL    HW273493  10.260   2.227  12.872
90554SOL     OW73494  14.669   8.006   3.232
90554SOL    HW173495  14.608   8.055   3.287
90554SOL    HW273496  14.692   8.066   3.162
90555SOL     OW73497   8.766  11.635   4.102
90555SOL    HW173498   8.716  11.709   4.069
90555SOL    HW273499   8.752  11.565   4.037
90556SOL     OW73500   4.558   7.363   0.678
90556SOL    HW173501   4.538   7.430   0.744
90556SOL    HW273502   4.528   7.281   0.716
90557SOL     OW73503  12.590   6.694  12.490
90557SOL    HW173504  12.581   6.701  12.395
90557SOL    HW273505  12.548   6.772  12.525
90558SOL     OW73506   8.380   6.367   8.169
90558SOL    HW173507   8.403   6.291   8.222
90558SOL    HW273508   8.355   6.434   8.232
90559SOL     OW73509  11.375   1.933  14.462
90559SOL    HW173510  11.303   1.995  14.453
90559SOL    HW273511  11.444   1.982  14.507
90560SOL     OW73512   8.172   7.700   6.282
90560SOL    HW173513   8.115   7.623   6.285
90560SOL    HW273514   8.124   7.763   6.228
90561SOL     OW73515   8.456   4.284  10.710
90561SOL    HW173516   8.442   4.265  10.803
90561SOL    HW273517   8.548   4.309  10.704
90562SOL     OW73518  13.945   2.001   1.420
90562SOL    HW173519  13.966   1.977   1.510
90562SOL    HW273520  13.884   1.933   1.391
90563SOL     OW73521   9.122  13.574   4.741
90563SOL    HW173522   9.149  13.588   4.650
90563SOL    HW273523   9.182  13.628   4.792
90564SOL     OW73524   7.704   3.418  10.100
90564SOL    HW173525   7.716   3.426  10.195
90564SOL    HW273526   7.651   3.494  10.077
90565SOL     OW73527   9.582  13.902   1.774
90565SOL    HW173528   9.517  13.840   1.742
90565SOL    HW273529   9.549  13.929   1.860
90566SOL     OW73530   1.984   8.363  11.695
90566SOL    HW173531   1.930   8.305  11.750
90566SOL    HW273532   2.059   8.384  11.751
90567SOL     OW73533  12.817  11.790   0.301
90567SOL    HW173534  12.785  11.744   0.224
90567SOL    HW273535  12.754  11.768   0.370
90568SOL     OW73536   5.277   7.489   8.311
90568SOL    HW173537   5.347   7.525   8.256
90568SOL    HW273538   5.222   7.564   8.333
90569SOL     OW73539   7.849  11.483  13.354
90569SOL    HW173540   7.885  11.411  13.405
90569SOL    HW273541   7.802  11.440  13.282
90570SOL     OW73542   6.149   2.770   0.508
90570SOL    HW173543   6.183   2.853   0.475
90570SOL    HW273544   6.226   2.725   0.545
90571SOL     OW73545  11.489  10.874   9.339
90571SOL    HW173546  11.414  10.834   9.295
90571SOL    HW273547  11.450  10.927   9.409
90572SOL     OW73548   2.346   1.383   1.835
90572SOL    HW173549   2.395   1.387   1.752
90572SOL    HW273550   2.324   1.475   1.853
90573SOL     OW73551   3.969  14.350  13.872
90573SOL    HW173552   3.912  14.332  13.946
90573SOL    HW273553   3.913  14.396  13.809
90574SOL     OW73554   9.519  13.084   3.823
90574SOL    HW173555   9.467  13.056   3.748
90574SOL    HW273556   9.559  13.004   3.857
90575SOL     OW73557   0.505  12.296   4.769
90575SOL    HW173558   0.433  12.239   4.742
90575SOL    HW273559   0.578  12.236   4.787
90576SOL     OW73560  13.374   1.022  12.405
90576SOL    HW173561  13.400   1.106  12.367
90576SOL    HW273562  13.291   1.041  12.450
90577SOL     OW73563   0.151   2.607   8.823
90577SOL    HW173564   0.064   2.640   8.846
90577SOL    HW273565   0.211   2.676   8.852
90578SOL     OW73566   3.691   3.899   3.518
90578SOL    HW173567   3.624   3.896   3.586
90578SOL    HW273568   3.661   3.836   3.452
90579SOL     OW73569  13.468  14.630   0.489
90579SOL    HW173570  13.486  14.697   0.555
90579SOL    HW273571  13.483  14.674   0.405
90580SOL     OW73572   5.906  12.641   7.592
90580SOL    HW173573   5.859  12.723   7.583
90580SOL    HW273574   5.996  12.661   7.566
90581SOL     OW73575   0.596   4.746   0.346
90581SOL    HW173576   0.519   4.714   0.392
90581SOL    HW273577   0.649   4.668   0.330
90582SOL     OW73578  12.122  13.433   9.461
90582SOL    HW173579  12.048  13.396   9.510
90582SOL    HW273580  12.185  13.459   9.529
90583SOL     OW73581   6.792   5.172   3.157
90583SOL    HW173582   6.715   5.157   3.212
90583SOL    HW273583   6.834   5.087   3.150
90584SOL     OW73584   8.518   7.306   4.460
90584SOL    HW173585   8.575   7.329   4.387
90584SOL    HW273586   8.454   7.377   4.464
90585SOL     OW73587   8.764   6.160   5.701
90585SOL    HW173588   8.748   6.150   5.607
90585SOL    HW273589   8.705   6.097   5.743
90586SOL     OW73590   5.317  13.235  11.408
90586SOL    HW173591   5.369  13.273  11.478
90586SOL    HW273592   5.247  13.300  11.393
90587SOL     OW73593   0.274  14.201  12.642
90587SOL    HW173594   0.267  14.235  12.553
90587SOL    HW273595   0.295  14.109  12.630
90588SOL     OW73596   6.322   7.307   1.956
90588SOL    HW173597   6.376   7.250   1.900
90588SOL    HW273598   6.304   7.255   2.034
90589SOL     OW73599   9.085  14.786   2.284
90589SOL    HW173600   9.172  14.746   2.270
90589SOL    HW273601   9.029  14.712   2.308
90590SOL     OW73602   9.201   0.878   6.026
90590SOL    HW173603   9.274   0.832   5.985
90590SOL    HW273604   9.200   0.847   6.116
90591SOL     OW73605   2.033  10.085  12.465
90591SOL    HW173606   2.123  10.101  12.436
90591SOL    HW273607   2.027   9.990  12.473
90592SOL     OW73608  13.836   8.462  14.435
90592SOL    HW173609  13.768   8.517  14.395
90592SOL    HW273610  13.909   8.522  14.451
90593SOL     OW73611   4.544   6.290  11.377
90593SOL    HW173612   4.632   6.327  11.373
90593SOL    HW273613   4.494   6.353  11.428
90594SOL     OW73614   2.443   3.858   0.630
90594SOL    HW173615   2.435   3.768   0.660
90594SOL    HW273616   2.363   3.873   0.580
90595SOL     OW73617   1.003  12.580   1.415
90595SOL    HW173618   0.998  12.675   1.423
90595SOL    HW273619   1.093  12.563   1.385
90596SOL     OW73620   8.976   6.438   1.341
90596SOL    HW173621   8.925   6.497   1.287
90596SOL    HW273622   8.953   6.350   1.309
90597SOL     OW73623  13.763  12.868   6.182
90597SOL    HW173624  13.831  12.855   6.116
90597SOL    HW273625  13.776  12.958   6.213
90598SOL     OW73626   8.122   2.067   8.064
90598SOL    HW173627   8.211   2.073   8.029
90598SOL    HW273628   8.086   2.155   8.054
90599SOL     OW73629  12.876   6.816   1.639
90599SOL    HW173630  12.888   6.910   1.622
90599SOL    HW273631  12.842   6.811   1.728
90600SOL     OW73632   2.029   1.628   3.724
90600SOL    HW173633   2.029   1.554   3.663
90600SOL    HW273634   2.028   1.587   3.811
90601SOL     OW73635   3.303   1.861  10.038
90601SOL    HW173636   3.293   1.766  10.037
90601SOL    HW273637   3.388   1.876  10.080
90602SOL     OW73638   9.917   4.783   9.272
90602SOL    HW173639   9.922   4.765   9.178
90602SOL    HW273640   9.991   4.841   9.289
90603SOL     OW73641  12.063  13.082   9.410
90603SOL    HW173642  12.120  13.114   9.340
90603SOL    HW273643  11.975  13.085   9.372
90604SOL     OW73644   0.334   0.596   0.530
90604SOL    HW173645   0.405   0.647   0.569
90604SOL    HW273646   0.254   0.637   0.563
90605SOL     OW73647   3.030   0.586   2.993
90605SOL    HW173648   2.937   0.601   3.009
90605SOL    HW273649   3.075   0.649   3.050
90606SOL     OW73650  14.103   0.849  11.811
90606SOL    HW173651  14.098   0.871  11.904
90606SOL    HW273652  14.196   0.859  11.789
90607SOL     OW73653  13.234   2.410   2.726
90607SOL    HW173654  13.193   2.338   2.775
90607SOL    HW273655  13.328   2.396   2.738
90608SOL     OW73656   5.656  13.939  12.358
90608SOL    HW173657   5.586  13.984  12.406
90608SOL    HW273658   5.716  13.908  12.427
90609SOL     OW73659   5.741   5.921   5.526
90609SOL    HW173660   5.836   5.933   5.524
90609SOL    HW273661   5.724   5.886   5.614
90610SOL     OW73662   3.819   3.895   1.366
90610SOL    HW173663   3.903   3.940   1.365
90610SOL    HW273664   3.841   3.804   1.386
90611SOL     OW73665   6.129  12.764   7.258
90611SOL    HW173666   6.206  12.795   7.211
90611SOL    HW273667   6.092  12.843   7.297
90612SOL     OW73668  11.289   1.074   3.060
90612SOL    HW173669  11.198   1.084   3.089
90612SOL    HW273670  11.297   0.980   3.042
90613SOL     OW73671   2.988   8.011   5.180
90613SOL    HW173672   3.026   8.052   5.103
90613SOL    HW273673   3.038   8.048   5.254
90614SOL     OW73674   7.949   5.578   4.912
90614SOL    HW173675   7.970   5.627   4.992
90614SOL    HW273676   7.880   5.518   4.937
90615SOL     OW73677   1.550   8.206   5.389
90615SOL    HW173678   1.485   8.137   5.379
90615SOL    HW273679   1.597   8.207   5.305
90616SOL     OW73680   8.716   1.285  13.682
90616SOL    HW173681   8.653   1.315  13.747
90616SOL    HW273682   8.768   1.219  13.728
90617SOL     OW73683   3.708   2.600   7.153
90617SOL    HW173684   3.651   2.666   7.194
90617SOL    HW273685   3.774   2.651   7.107
90618SOL     OW73686   3.730   7.831   4.059
90618SOL    HW173687   3.639   7.821   4.031
90618SOL    HW273688   3.776   7.866   3.983
90619SOL     OW73689   0.572   0.519   7.673
90619SOL    HW173690   0.634   0.558   7.611
90619SOL    HW273691   0.486   0.544   7.640
90620SOL     OW73692   1.796   2.617  12.726
90620SOL    HW173693   1.763   2.693  12.775
90620SOL    HW273694   1.835   2.560  12.793
90621SOL     OW73695   5.635   5.279  11.755
90621SOL    HW173696   5.650   5.201  11.808
90621SOL    HW273697   5.690   5.267  11.678
90622SOL     OW73698  12.700   8.301   7.701
90622SOL    HW173699  12.627   8.287   7.762
90622SOL    HW273700  12.777   8.268   7.747
90623SOL     OW73701   9.302   8.455  12.735
90623SOL    HW173702   9.210   8.475  12.750
90623SOL    HW273703   9.348   8.498  12.808
90624SOL     OW73704   6.288  11.756   3.106
90624SOL    HW173705   6.298  11.830   3.166
90624SOL    HW273706   6.346  11.777   3.033
90625SOL     OW73707   7.287  14.612   1.753
90625SOL    HW173708   7.350  14.673   1.791
90625SOL    HW273709   7.215  14.667   1.723
90626SOL     OW73710   4.803   5.890  10.763
90626SOL    HW173711   4.802   5.985  10.751
90626SOL    HW273712   4.712   5.868  10.784
90627SOL     OW73713  13.404   4.032   2.502
90627SOL    HW173714  13.389   3.959   2.564
90627SOL    HW273715  13.386   4.110   2.554
90628SOL     OW73716   9.098   2.434   5.326
90628SOL    HW173717   9.062   2.456   5.240
90628SOL    HW273718   9.058   2.351   5.349
90629SOL     OW73719  14.090   7.870   8.134
90629SOL    HW173720  14.026   7.812   8.175
90629SOL    HW273721  14.173   7.824   8.143
90630SOL     OW73722   5.025   3.214  13.395
90630SOL    HW173723   4.974   3.171  13.326
90630SOL    HW273724   4.983   3.185  13.477
90631SOL     OW73725  12.344   9.647  10.595
90631SOL    HW173726  12.340   9.726  10.649
90631SOL    HW273727  12.404   9.589  10.642
90632SOL     OW73728   9.468  13.273   4.867
90632SOL    HW173729   9.484  13.263   4.961
90632SOL    HW273730   9.372  13.278   4.860
90633SOL     OW73731  11.641   7.705   6.399
90633SOL    HW173732  11.562   7.751   6.429
90633SOL    HW273733  11.645   7.628   6.456
90634SOL     OW73734   3.406  12.652   8.536
90634SOL    HW173735   3.403  12.600   8.456
90634SOL    HW273736   3.437  12.592   8.603
90635SOL     OW73737   3.987   6.747  13.037
90635SOL    HW173738   3.898   6.760  13.070
90635SOL    HW273739   4.013   6.661  13.071
90636SOL     OW73740   2.260  13.509  11.939
90636SOL    HW173741   2.235  13.416  11.937
90636SOL    HW273742   2.273  13.528  12.032
90637SOL     OW73743  10.974   9.946   2.429
90637SOL    HW173744  10.888   9.939   2.386
90637SOL    HW273745  11.037   9.925   2.360
90638SOL     OW73746  14.055   2.111  11.737
90638SOL    HW173747  13.983   2.047  11.734
90638SOL    HW273748  14.081   2.114  11.829
90639SOL     OW73749  10.596  14.498   6.039
90639SOL    HW173750  10.525  14.464   6.093
90639SOL    HW273751  10.662  14.429   6.040
90640SOL     OW73752   9.540  11.574   5.054
90640SOL    HW173753   9.485  11.644   5.089
90640SOL    HW273754   9.521  11.573   4.960
90641SOL     OW73755   0.801  11.904   5.415
90641SOL    HW173756   0.753  11.972   5.367
90641SOL    HW273757   0.833  11.845   5.346
90642SOL     OW73758   4.604   2.343  13.647
90642SOL    HW173759   4.618   2.255  13.681
90642SOL    HW273760   4.643   2.401  13.712
90643SOL     OW73761  12.561   3.031   9.445
90643SOL    HW173762  12.599   2.945   9.465
90643SOL    HW273763  12.613   3.063   9.372
90644SOL     OW73764  12.550  12.636   4.478
90644SOL    HW173765  12.502  12.587   4.545
90644SOL    HW273766  12.484  12.693   4.438
90645SOL     OW73767   0.858   8.946   5.072
90645SOL    HW173768   0.953   8.936   5.083
90645SOL    HW273769   0.837   8.893   4.995
90646SOL     OW73770   7.364  14.357  12.242
90646SOL    HW173771   7.456  14.372  12.221
90646SOL    HW273772   7.339  14.432  12.297
90647SOL     OW73773   8.344  14.803   3.120
90647SOL    HW173774   8.335  14.721   3.073
90647SOL    HW273775   8.273  14.802   3.184
90648SOL     OW73776   4.950   3.683   8.908
90648SOL    HW173777   4.939   3.591   8.886
90648SOL    HW273778   4.873   3.704   8.961
90649SOL     OW73779  13.014  10.341   8.937
90649SOL    HW173780  13.026  10.398   9.013
90649SOL    HW273781  13.081  10.370   8.875
90650SOL     OW73782   2.946   9.963   4.173
90650SOL    HW173783   2.946  10.028   4.243
90650SOL    HW273784   2.913   9.883   4.215
90651SOL     OW73785  11.268   6.201  10.529
90651SOL    HW173786  11.176   6.224  10.515
90651SOL    HW273787  11.316   6.280  10.503
90652SOL     OW73788   2.945   9.929   2.833
90652SOL    HW173789   2.895  10.002   2.795
90652SOL    HW273790   2.882   9.857   2.839
90653SOL     OW73791   9.309   3.426   6.569
90653SOL    HW173792   9.350   3.512   6.576
90653SOL    HW273793   9.326   3.384   6.654
90654SOL     OW73794   5.566   4.388   8.673
90654SOL    HW173795   5.602   4.307   8.708
90654SOL    HW273796   5.511   4.361   8.600
90655SOL     OW73797   3.042   5.807   9.272
90655SOL    HW173798   3.015   5.854   9.192
90655SOL    HW273799   2.967   5.750   9.292
90656SOL     OW73800   1.249   7.523  14.307
90656SOL    HW173801   1.295   7.497  14.387
90656SOL    HW273802   1.269   7.616  14.297
90657SOL     OW73803   6.963  13.999   1.636
90657SOL    HW173804   6.954  14.038   1.549
90657SOL    HW273805   7.018  14.060   1.684
90658SOL     OW73806   0.551   5.780  12.869
90658SOL    HW173807   0.484   5.794  12.936
90658SOL    HW273808   0.616   5.724  12.911
90659SOL     OW73809  11.948   7.578   2.205
90659SOL    HW173810  11.861   7.539   2.205
90659SOL    HW273811  11.933   7.672   2.206
90660SOL     OW73812   8.017   2.707  13.478
90660SOL    HW173813   8.000   2.694  13.385
90660SOL    HW273814   8.006   2.801  13.491
90661SOL     OW73815   0.196  10.375   8.738
90661SOL    HW173816   0.138  10.426   8.682
90661SOL    HW273817   0.187  10.415   8.824
90662SOL     OW73818  10.657   6.878  13.232
90662SOL    HW173819  10.677   6.966  13.264
90662SOL    HW273820  10.563   6.881  13.213
90663SOL     OW73821   2.773  13.660   5.695
90663SOL    HW173822   2.785  13.688   5.604
90663SOL    HW273823   2.807  13.571   5.698
90664SOL     OW73824  11.740  12.816   5.210
90664SOL    HW173825  11.771  12.907   5.214
90664SOL    HW273826  11.819  12.763   5.220
90665SOL     OW73827   8.749   7.943   9.389
90665SOL    HW173828   8.677   7.987   9.434
90665SOL    HW273829   8.762   7.995   9.310
90666SOL     OW73830  14.227   1.662   3.742
90666SOL    HW173831  14.189   1.713   3.670
90666SOL    HW273832  14.220   1.720   3.818
90667SOL     OW73833  12.467   2.684   3.878
90667SOL    HW173834  12.440   2.692   3.787
90667SOL    HW273835  12.416   2.751   3.924
90668SOL     OW73836   3.880   3.107   5.037
90668SOL    HW173837   3.824   3.071   4.968
90668SOL    HW273838   3.969   3.089   5.008
90669SOL     OW73839  13.458   5.400  13.907
90669SOL    HW173840  13.496   5.363  13.826
90669SOL    HW273841  13.522   5.466  13.934
90670SOL     OW73842   3.377   8.200  12.419
90670SOL    HW173843   3.406   8.284  12.384
90670SOL    HW273844   3.451   8.169  12.473
90671SOL     OW73845   5.230  11.391   2.786
90671SOL    HW173846   5.272  11.414   2.869
90671SOL    HW273847   5.150  11.443   2.784
90672SOL     OW73848  13.832   9.639   2.692
90672SOL    HW173849  13.824   9.731   2.668
90672SOL    HW273850  13.785   9.632   2.775
90673SOL     OW73851   8.649  13.422   4.709
90673SOL    HW173852   8.741  13.439   4.730
90673SOL    HW273853   8.625  13.493   4.649
90674SOL     OW73854   9.901  14.876  12.156
90674SOL    HW173855   9.967  14.808  12.172
90674SOL    HW273856   9.826  14.850  12.208
90675SOL     OW73857   1.676  11.838   3.507
90675SOL    HW173858   1.621  11.858   3.583
90675SOL    HW273859   1.709  11.750   3.523
90676SOL     OW73860   7.432   5.714   4.082
90676SOL    HW173861   7.442   5.763   4.001
90676SOL    HW273862   7.439   5.780   4.151
90677SOL     OW73863   9.891  10.963   2.504
90677SOL    HW173864   9.903  10.966   2.599
90677SOL    HW273865   9.797  10.977   2.491
90678SOL     OW73866   5.901  11.786   2.348
90678SOL    HW173867   5.862  11.775   2.434
90678SOL    HW273868   5.827  11.804   2.290
90679SOL     OW73869  10.125   0.558   5.021
90679SOL    HW173870  10.196   0.535   4.961
90679SOL    HW273871  10.168   0.569   5.106
90680SOL     OW73872   8.090  14.382   1.628
90680SOL    HW173873   8.180  14.406   1.652
90680SOL    HW273874   8.063  14.320   1.696
90681SOL     OW73875   0.287   8.658  12.869
90681SOL    HW173876   0.276   8.688  12.779
90681SOL    HW273877   0.370   8.696  12.897
90682SOL     OW73878   3.342  10.178  13.038
90682SOL    HW173879   3.273  10.200  12.976
90682SOL    HW273880   3.364  10.087  13.020
90683SOL     OW73881  13.734   3.129  10.801
90683SOL    HW173882  13.792   3.189  10.848
90683SOL    HW273883  13.760   3.136  10.709
90684SOL     OW73884   3.536  12.542   7.240
90684SOL    HW173885   3.516  12.540   7.146
90684SOL    HW273886   3.625  12.507   7.246
90685SOL     OW73887  10.499  10.011  10.058
90685SOL    HW173888  10.478  10.056   9.976
90685SOL    HW273889  10.500  10.081  10.124
90686SOL     OW73890  11.612   8.163   3.808
90686SOL    HW173891  11.560   8.181   3.729
90686SOL    HW273892  11.701   8.189   3.784
90687SOL     OW73893   5.846   7.592   3.012
90687SOL    HW173894   5.769   7.599   2.956
90687SOL    HW273895   5.910   7.649   2.972
90688SOL     OW73896   5.294   2.578  14.560
90688SOL    HW173897   5.310   2.671  14.543
90688SOL    HW273898   5.282   2.539  14.474
90689SOL     OW73899   3.514   6.828   5.895
90689SOL    HW173900   3.472   6.746   5.921
90689SOL    HW273901   3.502   6.834   5.800
90690SOL     OW73902  10.777   3.061   7.528
90690SOL    HW173903  10.738   2.977   7.503
90690SOL    HW273904  10.871   3.046   7.524
90691SOL     OW73905   7.808   1.151   7.942
90691SOL    HW173906   7.791   1.213   7.871
90691SOL    HW273907   7.723   1.140   7.985
90692SOL     OW73908  12.137   0.047   8.569
90692SOL    HW173909  12.216   0.049   8.514
90692SOL    HW273910  12.065   0.032   8.508
90693SOL     OW73911   4.123   3.325   5.835
90693SOL    HW173912   4.142   3.415   5.808
90693SOL    HW273913   4.112   3.277   5.753
90694SOL     OW73914  10.735   8.455   6.541
90694SOL    HW173915  10.830   8.458   6.530
90694SOL    HW273916  10.711   8.542   6.570
90695SOL     OW73917   7.379   6.683   7.780
90695SOL    HW173918   7.416   6.692   7.867
90695SOL    HW273919   7.375   6.772   7.745
90696SOL     OW73920   9.355   6.270   3.825
90696SOL    HW173921   9.356   6.214   3.747
90696SOL    HW273922   9.265   6.302   3.830
90697SOL     OW73923   6.052  11.349  14.654
90697SOL    HW173924   6.099  11.285  14.599
90697SOL    HW273925   6.113  11.370  14.724
90698SOL     OW73926   6.000   5.765  12.337
90698SOL    HW173927   6.006   5.670  12.347
90698SOL    HW273928   5.945   5.793  12.410
90699SOL     OW73929  12.123  13.107   7.285
90699SOL    HW173930  12.190  13.138   7.225
90699SOL    HW273931  12.041  13.113   7.236
90700SOL     OW73932  13.358   6.142   7.772
90700SOL    HW173933  13.378   6.235   7.761
90700SOL    HW273934  13.398   6.100   7.696
90701SOL     OW73935   6.086   6.039   7.995
90701SOL    HW173936   6.081   6.009   8.086
90701SOL    HW273937   6.128   5.967   7.948
90702SOL     OW73938   8.819   7.291   9.138
90702SOL    HW173939   8.770   7.367   9.106
90702SOL    HW273940   8.909   7.307   9.110
90703SOL     OW73941   0.748  14.707   3.380
90703SOL    HW173942   0.686  14.654   3.430
90703SOL    HW273943   0.729  14.798   3.407
90704SOL     OW73944  12.263   8.521  14.684
90704SOL    HW173945  12.250   8.524  14.778
90704SOL    HW273946  12.200   8.583  14.648
90705SOL     OW73947   8.901  14.111   7.330
90705SOL    HW173948   8.885  14.172   7.259
90705SOL    HW273949   8.870  14.027   7.296
90706SOL     OW73950   8.735  11.712   4.506
90706SOL    HW173951   8.701  11.643   4.562
90706SOL    HW273952   8.668  11.726   4.440
90707SOL     OW73953   2.973   4.709   9.129
90707SOL    HW173954   3.023   4.645   9.077
90707SOL    HW273955   3.014   4.707   9.215
90708SOL     OW73956   8.395   2.194   1.075
90708SOL    HW173957   8.313   2.152   1.048
90708SOL    HW273958   8.368   2.275   1.118
90709SOL     OW73959   6.227  10.308   7.285
90709SOL    HW173960   6.290  10.245   7.251
90709SOL    HW273961   6.254  10.392   7.247
90710SOL     OW73962   1.644   9.869  14.256
90710SOL    HW173963   1.636   9.965  14.257
90710SOL    HW273964   1.738   9.853  14.255
90711SOL     OW73965   3.251   3.210  10.791
90711SOL    HW173966   3.159   3.232  10.807
90711SOL    HW273967   3.285   3.186  10.877
90712SOL     OW73968   6.060  10.792   9.684
90712SOL    HW173969   5.994  10.861   9.680
90712SOL    HW273970   6.105  10.796   9.600
90713SOL     OW73971   3.237   6.731   5.269
90713SOL    HW173972   3.270   6.813   5.304
90713SOL    HW273973   3.298   6.665   5.301
90714SOL     OW73974  12.688   2.129   6.127
90714SOL    HW173975  12.610   2.131   6.182
90714SOL    HW273976  12.656   2.151   6.039
90715SOL     OW73977   4.316   3.368   4.070
90715SOL    HW173978   4.354   3.373   4.158
90715SOL    HW273979   4.238   3.313   4.081
90716SOL     OW73980   3.812   9.863   0.712
90716SOL    HW173981   3.829   9.956   0.698
90716SOL    HW273982   3.737   9.860   0.771
90717SOL     OW73983   5.805   7.795   2.125
90717SOL    HW173984   5.788   7.884   2.093
90717SOL    HW273985   5.901   7.787   2.124
90718SOL     OW73986   4.425  13.691   2.719
90718SOL    HW173987   4.417  13.748   2.643
90718SOL    HW273988   4.410  13.603   2.684
90719SOL     OW73989  13.036   8.212  13.250
90719SOL    HW173990  13.066   8.164  13.327
90719SOL    HW273991  12.963   8.160  13.216
90720SOL     OW73992   1.227   6.698  13.669
90720SOL    HW173993   1.175   6.654  13.603
90720SOL    HW273994   1.298   6.739  13.620
90721SOL     OW73995  11.147  12.808   0.528
90721SOL    HW173996  11.058  12.842   0.543
90721SOL    HW273997  11.159  12.740   0.594
90722SOL     OW73998  12.510   1.968  11.825
90722SOL    HW173999  12.529   2.059  11.849
90722SOL    HW274000  12.561   1.953  11.745
90723SOL     OW74001   2.248   4.786  14.844
90723SOL    HW174002   2.267   4.697  14.871
90723SOL    HW274003   2.288   4.841   0.033
90724SOL     OW74004   7.567  13.705   0.518
90724SOL    HW174005   7.613  13.673   0.595
90724SOL    HW274006   7.570  13.632   0.456
90725SOL     OW74007   8.886   0.987  13.806
90725SOL    HW174008   8.884   0.905  13.757
90725SOL    HW274009   8.979   1.005  13.818
90726SOL     OW74010  14.414  13.949   0.626
90726SOL    HW174011  14.337  13.905   0.663
90726SOL    HW274012  14.381  13.993   0.548
90727SOL     OW74013   2.364   5.771  10.748
90727SOL    HW174014   2.351   5.683  10.714
90727SOL    HW274015   2.430   5.810  10.691
90728SOL     OW74016   4.539   3.536   6.000
90728SOL    HW174017   4.555   3.602   6.068
90728SOL    HW274018   4.452   3.502   6.021
90729SOL     OW74019   4.302   7.137   8.583
90729SOL    HW174020   4.313   7.231   8.593
90729SOL    HW274021   4.357   7.099   8.652
90730SOL     OW74022  14.520  13.751  14.506
90730SOL    HW174023  14.565  13.692  14.445
90730SOL    HW274024  14.524  13.837  14.465
90731SOL     OW74025   2.149  13.187  14.108
90731SOL    HW174026   2.195  13.271  14.102
90731SOL    HW274027   2.066  13.202  14.063
90732SOL     OW74028   7.733   5.466   9.285
90732SOL    HW174029   7.685   5.467   9.368
90732SOL    HW274030   7.818   5.428   9.308
90733SOL     OW74031   9.573   8.340   3.492
90733SOL    HW174032   9.629   8.287   3.548
90733SOL    HW274033   9.504   8.373   3.551
90734SOL     OW74034   8.743  10.671   4.530
90734SOL    HW174035   8.750  10.628   4.445
90734SOL    HW274036   8.674  10.623   4.576
90735SOL     OW74037   5.388   2.550  11.287
90735SOL    HW174038   5.327   2.621  11.271
90735SOL    HW274039   5.475   2.590  11.277
90736SOL     OW74040  13.770  14.774   6.002
90736SOL    HW174041  13.820  14.769   6.083
90736SOL    HW274042  13.695  14.830   6.023
90737SOL     OW74043  11.645   9.779  13.793
90737SOL    HW174044  11.695   9.736  13.724
90737SOL    HW274045  11.680   9.868  13.797
90738SOL     OW74046  14.003  14.699   3.510
90738SOL    HW174047  14.034  14.788   3.525
90738SOL    HW274048  13.981  14.667   3.598
90739SOL     OW74049   9.621  11.970   6.950
90739SOL    HW174050   9.631  11.889   7.000
90739SOL    HW274051   9.605  11.940   6.860
90740SOL     OW74052   4.990   0.412  11.556
90740SOL    HW174053   4.938   0.393  11.634
90740SOL    HW274054   5.079   0.423  11.589
90741SOL     OW74055   4.653  11.832   1.833
90741SOL    HW174056   4.647  11.755   1.890
90741SOL    HW274057   4.718  11.888   1.876
90742SOL     OW74058   6.316   5.597   0.728
90742SOL    HW174059   6.283   5.545   0.801
90742SOL    HW274060   6.238   5.633   0.687
90743SOL     OW74061   8.440   4.231  10.349
90743SOL    HW174062   8.465   4.312  10.392
90743SOL    HW274063   8.403   4.177  10.420
90744SOL     OW74064   5.022   5.299  13.111
90744SOL    HW174065   5.083   5.365  13.078
90744SOL    HW274066   4.937   5.344  13.114
90745SOL     OW74067  13.768   1.802   0.905
90745SOL    HW174068  13.715   1.722   0.916
90745SOL    HW274069  13.797   1.824   0.993
90746SOL     OW74070   3.191  11.585   4.181
90746SOL    HW174071   3.129  11.545   4.120
90746SOL    HW274072   3.261  11.521   4.190
90747SOL     OW74073  10.490  12.962   6.971
90747SOL    HW174074  10.463  12.942   6.881
90747SOL    HW274075  10.428  13.029   7.000
90748SOL     OW74076   0.573  14.032  11.543
90748SOL    HW174077   0.482  14.054  11.563
90748SOL    HW274078   0.586  13.946  11.581
90749SOL     OW74079  14.495   6.539   4.825
90749SOL    HW174080  14.410   6.496   4.812
90749SOL    HW274081  14.485   6.624   4.783
90750SOL     OW74082  14.710  11.057   6.027
90750SOL    HW174083  14.658  10.980   6.004
90750SOL    HW274084  14.772  11.026   6.092
90751SOL     OW74085   7.714   3.112   6.866
90751SOL    HW174086   7.780   3.144   6.927
90751SOL    HW274087   7.757   3.115   6.781
90752SOL     OW74088   0.360   0.146   0.892
90752SOL    HW174089   0.267   0.154   0.914
90752SOL    HW274090   0.385   0.059   0.923
90753SOL     OW74091   2.108  14.185   7.497
90753SOL    HW174092   2.172  14.246   7.534
90753SOL    HW274093   2.150  14.151   7.418
90754SOL     OW74094   7.590   9.097  12.947
90754SOL    HW174095   7.568   9.004  12.958
90754SOL    HW274096   7.673   9.108  12.994
90755SOL     OW74097  11.908  10.171   1.346
90755SOL    HW174098  11.854  10.160   1.268
90755SOL    HW274099  11.899  10.264   1.368
90756SOL     OW74100   6.076   1.196   4.615
90756SOL    HW174101   6.140   1.244   4.563
90756SOL    HW274102   6.122   1.177   4.697
90757SOL     OW74103  10.314  14.039  14.512
90757SOL    HW174104  10.323  14.127  14.475
90757SOL    HW274105  10.321  13.981  14.436
90758SOL     OW74106   3.353   9.611   3.032
90758SOL    HW174107   3.408   9.541   2.997
90758SOL    HW274108   3.263   9.581   3.015
90759SOL     OW74109   3.170   8.830  11.105
90759SOL    HW174110   3.209   8.914  11.082
90759SOL    HW274111   3.095   8.853  11.161
90760SOL     OW74112  14.037  12.124   4.521
90760SOL    HW174113  14.015  12.118   4.614
90760SOL    HW274114  14.108  12.187   4.517
90761SOL     OW74115  12.692  14.458   1.326
90761SOL    HW174116  12.683  14.553   1.314
90761SOL    HW274117  12.719  14.426   1.240
90762SOL     OW74118   3.741   3.406  11.619
90762SOL    HW174119   3.712   3.327  11.665
90762SOL    HW274120   3.707   3.478  11.673
90763SOL     OW74121   8.870   6.681   8.805
90763SOL    HW174122   8.872   6.763   8.755
90763SOL    HW274123   8.863   6.709   8.896
90764SOL     OW74124  12.732   1.844   1.643
90764SOL    HW174125  12.711   1.763   1.690
90764SOL    HW274126  12.652   1.864   1.594
90765SOL     OW74127   6.086   7.463   1.828
90765SOL    HW174128   6.157   7.399   1.836
90765SOL    HW274129   6.008   7.415   1.853
90766SOL     OW74130   6.905  11.724  12.522
90766SOL    HW174131   6.977  11.708  12.460
90766SOL    HW274132   6.929  11.806  12.566
90767SOL     OW74133  10.133   9.808   2.433
90767SOL    HW174134  10.135   9.714   2.452
90767SOL    HW274135  10.060   9.818   2.372
90768SOL     OW74136   1.474   8.170  13.887
90768SOL    HW174137   1.518   8.101  13.837
90768SOL    HW274138   1.396   8.128  13.922
90769SOL     OW74139  11.163   6.049   3.462
90769SOL    HW174140  11.183   5.956   3.476
90769SOL    HW274141  11.201   6.069   3.376
90770SOL     OW74142  11.690   2.822   6.642
90770SOL    HW174143  11.681   2.916   6.627
90770SOL    HW274144  11.782   2.803   6.624
90771SOL     OW74145  14.778  13.437   5.765
90771SOL    HW174146  14.705  13.436   5.826
90771SOL    HW274147  14.844  13.380   5.806
90772SOL     OW74148  14.006   4.224   6.498
90772SOL    HW174149  14.061   4.264   6.566
90772SOL    HW274150  13.950   4.296   6.468
90773SOL     OW74151   3.590   9.216   4.327
90773SOL    HW174152   3.575   9.125   4.353
90773SOL    HW274153   3.620   9.259   4.408
90774SOL     OW74154   5.970   7.329   6.714
90774SOL    HW174155   5.926   7.287   6.640
90774SOL    HW274156   5.993   7.257   6.772
90775SOL     OW74157   3.764   0.870   2.583
90775SOL    HW174158   3.715   0.806   2.635
90775SOL    HW274159   3.856   0.847   2.597
90776SOL     OW74160  13.629   9.373  11.425
90776SOL    HW174161  13.708   9.351  11.474
90776SOL    HW274162  13.602   9.458  11.460
90777SOL     OW74163   2.673   3.480   0.130
90777SOL    HW174164   2.744   3.465   0.068
90777SOL    HW274165   2.642   3.392   0.152
90778SOL     OW74166   8.058   7.864  10.532
90778SOL    HW174167   8.057   7.930  10.464
90778SOL    HW274168   8.119   7.797  10.499
90779SOL     OW74169   6.730   3.667   7.599
90779SOL    HW174170   6.791   3.596   7.620
90779SOL    HW274171   6.782   3.747   7.610
90780SOL     OW74172  12.566   9.412   9.784
90780SOL    HW174173  12.520   9.346   9.836
90780SOL    HW274174  12.636   9.363   9.740
90781SOL     OW74175   5.477   1.172   6.371
90781SOL    HW174176   5.550   1.210   6.421
90781SOL    HW274177   5.506   1.083   6.351
90782SOL     OW74178   9.857   7.677  12.912
90782SOL    HW174179   9.936   7.715  12.874
90782SOL    HW274180   9.859   7.705  13.004
90783SOL     OW74181   4.382   6.641   1.352
90783SOL    HW174182   4.310   6.637   1.415
90783SOL    HW274183   4.447   6.698   1.394
90784SOL     OW74184  10.388  13.884  11.730
90784SOL    HW174185  10.294  13.880  11.749
90784SOL    HW274186  10.409  13.977  11.731
90785SOL     OW74187  11.189   4.354   6.660
90785SOL    HW174188  11.238   4.435   6.646
90785SOL    HW274189  11.163   4.357   6.752
90786SOL     OW74190   0.833  14.223   5.532
90786SOL    HW174191   0.814  14.184   5.617
90786SOL    HW274192   0.927  14.244   5.536
90787SOL     OW74193  11.838  10.621   0.186
90787SOL    HW174194  11.918  10.571   0.204
90787SOL    HW274195  11.788  10.616   0.267
90788SOL     OW74196   1.290   7.059  10.797
90788SOL    HW174197   1.293   6.984  10.856
90788SOL    HW274198   1.242   7.126  10.845
90789SOL     OW74199   6.229  10.998   9.295
90789SOL    HW174200   6.187  11.077   9.331
90789SOL    HW274201   6.213  11.003   9.201
90790SOL     OW74202  14.046   1.042   3.150
90790SOL    HW174203  14.095   1.011   3.227
90790SOL    HW274204  14.003   0.963   3.117
90791SOL     OW74205  10.603   1.112   7.414
90791SOL    HW174206  10.669   1.066   7.466
90791SOL    HW274207  10.527   1.118   7.473
90792SOL     OW74208  11.265  13.314  12.823
90792SOL    HW174209  11.333  13.267  12.871
90792SOL    HW274210  11.189  13.315  12.882
90793SOL     OW74211  11.135   0.451  14.413
90793SOL    HW174212  11.176   0.500  14.342
90793SOL    HW274213  11.140   0.509  14.489
90794SOL     OW74214   8.842   1.451   8.195
90794SOL    HW174215   8.897   1.435   8.118
90794SOL    HW274216   8.865   1.380   8.255
90795SOL     OW74217   8.313  13.495   7.038
90795SOL    HW174218   8.283  13.573   6.990
90795SOL    HW274219   8.307  13.521   7.131
90796SOL     OW74220   6.025  13.304   8.429
90796SOL    HW174221   6.089  13.354   8.379
90796SOL    HW274222   6.056  13.213   8.424
90797SOL     OW74223   3.842   4.766   9.698
90797SOL    HW174224   3.865   4.681   9.660
90797SOL    HW274225   3.922   4.819   9.689
90798SOL     OW74226   3.014   1.349   2.165
90798SOL    HW174227   2.934   1.397   2.186
90798SOL    HW274228   3.064   1.349   2.247
90799SOL     OW74229  12.562  12.381   7.594
90799SOL    HW174230  12.486  12.376   7.537
90799SOL    HW274231  12.592  12.471   7.586
90800SOL     OW74232   6.690   4.243  11.931
90800SOL    HW174233   6.656   4.256  11.842
90800SOL    HW274234   6.761   4.181  11.920
90801SOL     OW74235   7.000  10.461  14.170
90801SOL    HW174236   6.986  10.542  14.122
90801SOL    HW274237   7.051  10.487  14.247
90802SOL     OW74238   2.870  10.135  13.950
90802SOL    HW174239   2.922  10.080  14.008
90802SOL    HW274240   2.916  10.219  13.948
90803SOL     OW74241   9.760  11.835  11.753
90803SOL    HW174242   9.733  11.912  11.803
90803SOL    HW274243   9.851  11.819  11.780
90804SOL     OW74244  12.295   6.323   8.066
90804SOL    HW174245  12.222   6.261   8.074
90804SOL    HW274246  12.351   6.304   8.141
90805SOL     OW74247   3.091   5.709  14.215
90805SOL    HW174248   3.179   5.695  14.179
90805SOL    HW274249   3.033   5.686  14.143
90806SOL     OW74250  11.480  13.698  13.168
90806SOL    HW174251  11.477  13.636  13.095
90806SOL    HW274252  11.427  13.657  13.237
90807SOL     OW74253   6.274  10.280  12.491
90807SOL    HW174254   6.205  10.285  12.557
90807SOL    HW274255   6.239  10.223  12.423
90808SOL     OW74256  14.371   6.218  11.715
90808SOL    HW174257  14.297   6.247  11.662
90808SOL    HW274258  14.413   6.299  11.745
90809SOL     OW74259   2.959   0.574   0.834
90809SOL    HW174260   2.890   0.508   0.836
90809SOL    HW274261   2.976   0.595   0.926
90810SOL     OW74262   9.436  11.343   5.250
90810SOL    HW174263   9.380  11.287   5.304
90810SOL    HW274264   9.375  11.391   5.194
90811SOL     OW74265   6.415   0.602   8.173
90811SOL    HW174266   6.438   0.545   8.246
90811SOL    HW274267   6.499   0.632   8.139
90812SOL     OW74268   5.305   0.928   4.235
90812SOL    HW174269   5.307   0.942   4.329
90812SOL    HW274270   5.233   0.866   4.221
90813SOL     OW74271   3.580   3.165  13.191
90813SOL    HW174272   3.519   3.096  13.218
90813SOL    HW274273   3.529   3.246  13.200
90814SOL     OW74274   1.774   8.597   7.112
90814SOL    HW174275   1.865   8.577   7.092
90814SOL    HW274276   1.776   8.687   7.146
90815SOL     OW74277   1.280  12.448   6.088
90815SOL    HW174278   1.355  12.396   6.117
90815SOL    HW274279   1.210  12.385   6.076
90816SOL     OW74280  11.549  14.591   1.455
90816SOL    HW174281  11.630  14.623   1.414
90816SOL    HW274282  11.561  14.496   1.460
90817SOL     OW74283   4.144  14.344   1.507
90817SOL    HW174284   4.098  14.356   1.425
90817SOL    HW274285   4.215  14.407   1.505
90818SOL     OW74286   1.240  12.343   8.471
90818SOL    HW174287   1.271  12.353   8.381
90818SOL    HW274288   1.166  12.403   8.478
90819SOL     OW74289  10.966  14.126   4.865
90819SOL    HW174290  11.025  14.070   4.916
90819SOL    HW274291  11.002  14.214   4.877
90820SOL     OW74292  11.798   9.460  13.176
90820SOL    HW174293  11.742   9.423  13.107
90820SOL    HW274294  11.783   9.404  13.252
90821SOL     OW74295   5.575   0.779  10.555
90821SOL    HW174296   5.545   0.859  10.597
90821SOL    HW274297   5.546   0.709  10.613
90822SOL     OW74298   5.091   0.647   5.436
90822SOL    HW174299   5.092   0.663   5.342
90822SOL    HW274300   5.046   0.563   5.446
90823SOL     OW74301  10.285  10.287   9.702
90823SOL    HW174302  10.299  10.297   9.608
90823SOL    HW274303  10.207  10.339   9.720
90824SOL     OW74304   3.205  13.066   9.265
90824SOL    HW174305   3.283  13.012   9.277
90824SOL    HW274306   3.139  13.005   9.233
90825SOL     OW74307   2.888  10.156  12.884
90825SOL    HW174308   2.863  10.114  12.966
90825SOL    HW274309   2.873  10.249  12.900
90826SOL     OW74310  11.651   5.197   2.757
90826SOL    HW174311  11.567   5.243   2.754
90826SOL    HW274312  11.629   5.105   2.741
90827SOL     OW74313   5.184  10.483   8.104
90827SOL    HW174314   5.116  10.473   8.036
90827SOL    HW274315   5.135  10.490   8.186
90828SOL     OW74316   2.019  11.320  13.191
90828SOL    HW174317   2.112  11.300  13.203
90828SOL    HW274318   1.976  11.284  13.269
90829SOL     OW74319  10.670   8.619   8.845
90829SOL    HW174320  10.613   8.593   8.917
90829SOL    HW274321  10.613   8.623   8.768
90830SOL     OW74322   2.204   5.571   8.197
90830SOL    HW174323   2.116   5.550   8.228
90830SOL    HW274324   2.262   5.523   8.256
90831SOL     OW74325  11.918   5.430   2.189
90831SOL    HW174326  11.971   5.439   2.109
90831SOL    HW274327  11.877   5.344   2.181
90832SOL     OW74328   6.062   1.579   6.622
90832SOL    HW174329   5.983   1.607   6.669
90832SOL    HW274330   6.071   1.642   6.550
90833SOL     OW74331   7.637  14.813  12.648
90833SOL    HW174332   7.616  14.731  12.692
90833SOL    HW274333   7.608   0.002  12.709
90834SOL     OW74334   6.433   1.383   6.952
90834SOL    HW174335   6.493   1.336   6.895
90834SOL    HW274336   6.485   1.400   7.031
90835SOL     OW74337  10.813  11.743  13.194
90835SOL    HW174338  10.834  11.836  13.205
90835SOL    HW274339  10.771  11.738  13.108
90836SOL     OW74340   6.407   4.452   1.764
90836SOL    HW174341   6.502   4.451   1.771
90836SOL    HW274342   6.389   4.510   1.690
90837SOL     OW74343  11.357   3.949  13.415
90837SOL    HW174344  11.331   3.859  13.395
90837SOL    HW274345  11.450   3.953  13.390
90838SOL     OW74346  10.551  11.372   0.221
90838SOL    HW174347  10.529  11.443   0.283
90838SOL    HW274348  10.598  11.308   0.274
90839SOL     OW74349   6.745   2.393  14.277
90839SOL    HW174350   6.836   2.407  14.301
90839SOL    HW274351   6.695   2.426  14.352
90840SOL     OW74352   8.393   0.707   9.227
90840SOL    HW174353   8.375   0.749   9.311
90840SOL    HW274354   8.456   0.766   9.184
90841SOL     OW74355   0.174  12.948  10.113
90841SOL    HW174356   0.129  13.032  10.107
90841SOL    HW274357   0.103  12.883  10.113
90842SOL     OW74358   9.628   0.921   9.670
90842SOL    HW174359   9.578   0.987   9.623
90842SOL    HW274360   9.576   0.841   9.664
90843SOL     OW74361  10.271   9.830   4.637
90843SOL    HW174362  10.201   9.765   4.627
90843SOL    HW274363  10.275   9.873   4.551
90844SOL     OW74364  13.486   5.868   3.111
90844SOL    HW174365  13.564   5.855   3.165
90844SOL    HW274366  13.456   5.779   3.091
90845SOL     OW74367   2.725   3.718   8.247
90845SOL    HW174368   2.742   3.688   8.157
90845SOL    HW274369   2.796   3.680   8.298
90846SOL     OW74370   0.712   9.530   1.769
90846SOL    HW174371   0.676   9.503   1.684
90846SOL    HW274372   0.806   9.529   1.756
90847SOL     OW74373  11.460  11.689  10.813
90847SOL    HW174374  11.442  11.780  10.834
90847SOL    HW274375  11.553  11.687  10.790
90848SOL     OW74376  14.151   7.954   4.935
90848SOL    HW174377  14.081   8.014   4.909
90848SOL    HW274378  14.143   7.949   5.030
90849SOL     OW74379  14.312  13.549  13.799
90849SOL    HW174380  14.269  13.520  13.880
90849SOL    HW274381  14.373  13.478  13.778
90850SOL     OW74382  11.702  10.963   1.091
90850SOL    HW174383  11.743  10.929   1.170
90850SOL    HW274384  11.659  10.888   1.052
90851SOL     OW74385  10.920   8.302   1.311
90851SOL    HW174386  10.831   8.336   1.317
90851SOL    HW274387  10.913   8.211   1.342
90852SOL     OW74388  12.452   2.845   7.693
90852SOL    HW174389  12.465   2.759   7.733
90852SOL    HW274390  12.540   2.876   7.674
90853SOL     OW74391   6.773   0.158  13.749
90853SOL    HW174392   6.792   0.160  13.843
90853SOL    HW274393   6.740   0.070  13.732
90854SOL     OW74394   0.664   9.979  13.473
90854SOL    HW174395   0.715  10.059  13.489
90854SOL    HW274396   0.645   9.982  13.379
90855SOL     OW74397   7.455  11.020  13.865
90855SOL    HW174398   7.527  10.977  13.818
90855SOL    HW274399   7.478  11.113  13.865
90856SOL     OW74400  13.040  10.306   6.382
90856SOL    HW174401  13.109  10.240   6.390
90856SOL    HW274402  13.086  10.390   6.393
90857SOL     OW74403   2.716   5.628   2.589
90857SOL    HW174404   2.775   5.584   2.650
90857SOL    HW274405   2.734   5.586   2.504
90858SOL     OW74406   9.392  12.843   5.618
90858SOL    HW174407   9.424  12.821   5.706
90858SOL    HW274408   9.326  12.910   5.633
90859SOL     OW74409  13.249   3.458   2.121
90859SOL    HW174410  13.302   3.481   2.197
90859SOL    HW274411  13.160   3.451   2.154
90860SOL     OW74412  10.330   7.251   0.575
90860SOL    HW174413  10.353   7.185   0.640
90860SOL    HW274414  10.338   7.335   0.622
90861SOL     OW74415  12.588  13.049   5.196
90861SOL    HW174416  12.577  12.984   5.266
90861SOL    HW274417  12.543  13.127   5.228
90862SOL     OW74418  11.864  12.783   8.019
90862SOL    HW174419  11.779  12.807   8.054
90862SOL    HW274420  11.926  12.803   8.090
90863SOL     OW74421  14.310   5.618  10.536
90863SOL    HW174422  14.355   5.547  10.581
90863SOL    HW274423  14.311   5.691  10.598
90864SOL     OW74424  12.408  11.932  12.931
90864SOL    HW174425  12.455  12.005  12.972
90864SOL    HW274426  12.317  11.945  12.955
90865SOL     OW74427  11.551  13.705   0.615
90865SOL    HW174428  11.600  13.722   0.534
90865SOL    HW274429  11.539  13.610   0.616
90866SOL     OW74430   4.678   0.158   6.851
90866SOL    HW174431   4.692   0.226   6.785
90866SOL    HW274432   4.594   0.180   6.890
90867SOL     OW74433  13.250   4.406   2.509
90867SOL    HW174434  13.170   4.445   2.545
90867SOL    HW274435  13.282   4.349   2.578
90868SOL     OW74436   0.921   0.144   9.367
90868SOL    HW174437   0.965   0.226   9.343
90868SOL    HW274438   0.876   0.163   9.449
90869SOL     OW74439   3.355   6.656   1.797
90869SOL    HW174440   3.354   6.750   1.781
90869SOL    HW274441   3.265   6.634   1.819
90870SOL     OW74442   8.237   1.573  13.217
90870SOL    HW174443   8.255   1.632  13.144
90870SOL    HW274444   8.301   1.502  13.208
90871SOL     OW74445  12.367  10.647  11.001
90871SOL    HW174446  12.305  10.657  10.929
90871SOL    HW274447  12.338  10.709  11.068
90872SOL     OW74448   3.533   3.749   8.171
90872SOL    HW174449   3.596   3.818   8.150
90872SOL    HW274450   3.495   3.726   8.086
90873SOL     OW74451   8.799   6.169   0.504
90873SOL    HW174452   8.818   6.252   0.547
90873SOL    HW274453   8.706   6.155   0.518
90874SOL     OW74454   3.357   7.575   8.789
90874SOL    HW174455   3.393   7.613   8.870
90874SOL    HW274456   3.399   7.625   8.719
90875SOL     OW74457  14.063  11.948   2.668
90875SOL    HW174458  14.007  11.918   2.740
90875SOL    HW274459  14.005  11.995   2.609
90876SOL     OW74460   9.026   3.246  12.942
90876SOL    HW174461   9.016   3.227  13.035
90876SOL    HW274462   8.993   3.336  12.932
90877SOL     OW74463  11.379   2.765   3.532
90877SOL    HW174464  11.473   2.756   3.549
90877SOL    HW274465  11.365   2.860   3.523
90878SOL     OW74466   0.477  10.538  12.677
90878SOL    HW174467   0.403  10.597  12.665
90878SOL    HW274468   0.554  10.596  12.678
90879SOL     OW74469   9.422   0.009   4.945
90879SOL    HW174470   9.478   0.001   4.867
90879SOL    HW274471   9.441  14.810   4.997
90880SOL     OW74472   1.449   1.645   4.329
90880SOL    HW174473   1.535   1.606   4.345
90880SOL    HW274474   1.467   1.736   4.307
90881SOL     OW74475   2.361   7.027  14.729
90881SOL    HW174476   2.420   7.067  14.665
90881SOL    HW274477   2.400   7.048  14.814
90882SOL     OW74478   3.664   8.934  14.459
90882SOL    HW174479   3.717   8.926  14.539
90882SOL    HW274480   3.722   8.902  14.390
90883SOL     OW74481   5.772  12.409   5.676
90883SOL    HW174482   5.785  12.413   5.581
90883SOL    HW274483   5.858  12.431   5.712
90884SOL     OW74484   4.069  13.206   7.803
90884SOL    HW174485   4.037  13.165   7.723
90884SOL    HW274486   4.107  13.134   7.854
90885SOL     OW74487   7.684   6.312   8.228
90885SOL    HW174488   7.772   6.277   8.217
90885SOL    HW274489   7.697   6.403   8.255
90886SOL     OW74490   1.109  12.203   4.166
90886SOL    HW174491   1.086  12.123   4.119
90886SOL    HW274492   1.140  12.263   4.097
90887SOL     OW74493   9.586  12.908  10.535
90887SOL    HW174494   9.568  13.001  10.550
90887SOL    HW274495   9.653  12.907  10.467
90888SOL     OW74496   4.759   3.427   9.551
90888SOL    HW174497   4.845   3.468   9.556
90888SOL    HW274498   4.729   3.423   9.641
90889SOL     OW74499  14.582   7.715  13.405
90889SOL    HW174500  14.634   7.652  13.456
90889SOL    HW274501  14.496   7.714  13.448
90890SOL     OW74502  14.030   0.654  10.965
90890SOL    HW174503  14.109   0.601  10.979
90890SOL    HW274504  13.968   0.621  11.029
90891SOL     OW74505   6.885  12.811   5.413
90891SOL    HW174506   6.861  12.866   5.339
90891SOL    HW274507   6.943  12.866   5.466
90892SOL     OW74508   7.343  13.547   6.645
90892SOL    HW174509   7.389  13.469   6.616
90892SOL    HW274510   7.259  13.516   6.678
90893SOL     OW74511   2.933   4.445  14.247
90893SOL    HW174512   2.911   4.531  14.212
90893SOL    HW274513   2.856   4.419  14.296
90894SOL     OW74514  12.520   7.938   2.388
90894SOL    HW174515  12.500   7.912   2.478
90894SOL    HW274516  12.613   7.957   2.389
90895SOL     OW74517   2.527   2.130  14.087
90895SOL    HW174518   2.525   2.205  14.028
90895SOL    HW274519   2.528   2.054  14.029
90896SOL     OW74520   9.029  13.803   2.841
90896SOL    HW174521   9.006  13.797   2.933
90896SOL    HW274522   8.989  13.884   2.811
90897SOL     OW74523   3.277   6.906   4.221
90897SOL    HW174524   3.260   6.999   4.231
90897SOL    HW274525   3.304   6.895   4.130
90898SOL     OW74526   4.562  10.430   1.632
90898SOL    HW174527   4.473  10.464   1.626
90898SOL    HW274528   4.550  10.336   1.648
90899SOL     OW74529   8.516   8.923   2.989
90899SOL    HW174530   8.437   8.910   3.042
90899SOL    HW274531   8.568   8.844   3.003
90900SOL     OW74532   7.205   0.202  14.854
90900SOL    HW174533   7.174   0.199  14.763
90900SOL    HW274534   7.218   0.110  14.878
90901SOL     OW74535  14.801  10.697   1.752
90901SOL    HW174536  14.803  10.791   1.739
90901SOL    HW274537  14.866  10.662   1.691
90902SOL     OW74538  12.690   1.175   8.972
90902SOL    HW174539  12.723   1.244   9.030
90902SOL    HW274540  12.758   1.164   8.906
90903SOL     OW74541   6.293   5.415  11.271
90903SOL    HW174542   6.298   5.475  11.346
90903SOL    HW274543   6.358   5.348  11.290
90904SOL     OW74544   9.502  12.447   5.326
90904SOL    HW174545   9.460  12.520   5.281
90904SOL    HW274546   9.594  12.474   5.333
90905SOL     OW74547   9.838  11.122   1.604
90905SOL    HW174548   9.763  11.145   1.549
90905SOL    HW274549   9.826  11.029   1.622
90906SOL     OW74550   1.068  11.583   8.375
90906SOL    HW174551   1.137  11.582   8.309
90906SOL    HW274552   1.018  11.502   8.359
90907SOL     OW74553   1.461   5.897   8.510
90907SOL    HW174554   1.409   5.895   8.590
90907SOL    HW274555   1.406   5.943   8.446
90908SOL     OW74556   7.570   7.607   8.207
90908SOL    HW174557   7.649   7.602   8.260
90908SOL    HW274558   7.563   7.520   8.167
90909SOL     OW74559   7.966   4.545   2.870
90909SOL    HW174560   8.055   4.514   2.853
90909SOL    HW274561   7.917   4.521   2.791
90910SOL     OW74562   3.987  10.737   4.574
90910SOL    HW174563   3.957  10.785   4.497
90910SOL    HW274564   3.974  10.645   4.552
90911SOL     OW74565   3.878   7.925   9.983
90911SOL    HW174566   3.937   7.869   9.933
90911SOL    HW274567   3.922   7.937  10.067
90912SOL     OW74568  11.245  11.006   5.150
90912SOL    HW174569  11.181  11.055   5.202
90912SOL    HW274570  11.287  10.948   5.214
90913SOL     OW74571   9.201   1.374  12.447
90913SOL    HW174572   9.160   1.391  12.532
90913SOL    HW274573   9.163   1.441  12.389
90914SOL     OW74574  14.177  11.455   7.108
90914SOL    HW174575  14.109  11.407   7.060
90914SOL    HW274576  14.238  11.387   7.137
90915SOL     OW74577  12.578   7.232  11.218
90915SOL    HW174578  12.531   7.177  11.155
90915SOL    HW274579  12.662   7.250  11.176
90916SOL     OW74580  13.904   8.624   6.096
90916SOL    HW174581  13.974   8.688   6.085
90916SOL    HW274582  13.904   8.604   6.189
90917SOL     OW74583   4.228   0.578   1.728
90917SOL    HW174584   4.161   0.534   1.676
90917SOL    HW274585   4.200   0.669   1.730
90918SOL     OW74586  11.813  13.225  13.077
90918SOL    HW174587  11.810  13.315  13.046
90918SOL    HW274588  11.863  13.230  13.158
90919SOL     OW74589   1.092  12.707   5.208
90919SOL    HW174590   1.132  12.675   5.127
90919SOL    HW274591   1.038  12.781   5.180
90920SOL     OW74592  14.156  12.341   7.112
90920SOL    HW174593  14.108  12.261   7.093
90920SOL    HW274594  14.192  12.326   7.199
90921SOL     OW74595   9.010  14.269   6.522
90921SOL    HW174596   8.972  14.253   6.435
90921SOL    HW274597   8.992  14.361   6.538
90922SOL     OW74598   3.537  12.181   0.617
90922SOL    HW174599   3.565  12.258   0.566
90922SOL    HW274600   3.459  12.149   0.571
90923SOL     OW74601   6.111   8.820   3.544
90923SOL    HW174602   6.026   8.849   3.509
90923SOL    HW274603   6.155   8.901   3.569
90924SOL     OW74604   9.082   4.143   5.093
90924SOL    HW174605   9.037   4.063   5.068
90924SOL    HW274606   9.168   4.114   5.124
90925SOL     OW74607   9.488   1.503   0.592
90925SOL    HW174608   9.415   1.483   0.651
90925SOL    HW274609   9.464   1.460   0.510
90926SOL     OW74610   4.509  12.445   6.937
90926SOL    HW174611   4.538  12.521   6.988
90926SOL    HW274612   4.415  12.440   6.953
90927SOL     OW74613   5.839   3.031  14.588
90927SOL    HW174614   5.815   3.054  14.678
90927SOL    HW274615   5.918   2.977  14.597
90928SOL     OW74616  12.848   7.967   0.392
90928SOL    HW174617  12.861   8.050   0.347
90928SOL    HW274618  12.935   7.929   0.400
90929SOL     OW74619   8.598  14.795   2.389
90929SOL    HW174620   8.588   0.001   2.348
90929SOL    HW274621   8.544  14.736   2.335
90930SOL     OW74622   1.573  12.280  11.783
90930SOL    HW174623   1.540  12.277  11.694
90930SOL    HW274624   1.659  12.238  11.778
90931SOL     OW74625  12.425   1.544   7.765
90931SOL    HW174626  12.453   1.462   7.805
90931SOL    HW274627  12.330   1.545   7.775
90932SOL     OW74628   1.122   5.540   6.996
90932SOL    HW174629   1.190   5.473   6.995
90932SOL    HW274630   1.074   5.525   7.078
90933SOL     OW74631  11.196   1.253  10.417
90933SOL    HW174632  11.102   1.239  10.412
90933SOL    HW274633  11.216   1.310  10.344
90934SOL     OW74634   9.408   8.713   6.631
90934SOL    HW174635   9.457   8.787   6.666
90934SOL    HW274636   9.437   8.705   6.540
90935SOL     OW74637   9.504  11.966   9.982
90935SOL    HW174638   9.513  11.946  10.075
90935SOL    HW274639   9.557  11.899   9.938
90936SOL     OW74640   4.318   7.082   1.844
90936SOL    HW174641   4.388   7.140   1.813
90936SOL    HW274642   4.334   7.073   1.937
90937SOL     OW74643  10.970   3.604  12.036
90937SOL    HW174644  11.044   3.544  12.025
90937SOL    HW274645  11.009   3.690  12.045
90938SOL     OW74646   0.503   5.053  10.092
90938SOL    HW174647   0.567   5.022  10.156
90938SOL    HW274648   0.521   5.147  10.082
90939SOL     OW74649   5.610   8.489  14.462
90939SOL    HW174650   5.689   8.469  14.412
90939SOL    HW274651   5.629   8.573  14.504
90940SOL     OW74652  14.774   7.391  11.587
90940SOL    HW174653  14.710   7.451  11.626
90940SOL    HW274654  14.790   7.427  11.500
90941SOL     OW74655  13.334   8.197   5.877
90941SOL    HW174656  13.256   8.251   5.859
90941SOL    HW274657  13.299   8.113   5.907
90942SOL     OW74658   9.988  10.798   6.660
90942SOL    HW174659  10.023  10.863   6.599
90942SOL    HW274660  10.061  10.736   6.673
90943SOL     OW74661  13.816   2.864  13.828
90943SOL    HW174662  13.766   2.786  13.804
90943SOL    HW274663  13.815   2.919  13.750
90944SOL     OW74664   0.355   9.407   9.575
90944SOL    HW174665   0.342   9.501   9.564
90944SOL    HW274666   0.268   9.374   9.597
90945SOL     OW74667  11.723   6.189   3.028
90945SOL    HW174668  11.816   6.197   3.050
90945SOL    HW274669  11.681   6.262   3.073
90946SOL     OW74670   2.321   7.199   0.953
90946SOL    HW174671   2.325   7.196   1.048
90946SOL    HW274672   2.267   7.124   0.928
90947SOL     OW74673   2.276   1.831   3.135
90947SOL    HW174674   2.267   1.738   3.155
90947SOL    HW274675   2.276   1.874   3.220
90948SOL     OW74676   9.184   2.311   1.703
90948SOL    HW174677   9.275   2.332   1.684
90948SOL    HW274678   9.134   2.382   1.663
90949SOL     OW74679   8.250   3.791  13.670
90949SOL    HW174680   8.315   3.824  13.608
90949SOL    HW274681   8.166   3.820  13.635
90950SOL     OW74682   3.877   2.057   8.458
90950SOL    HW174683   3.836   2.091   8.379
90950SOL    HW274684   3.804   2.033   8.515
90951SOL     OW74685   0.388   8.678   8.578
90951SOL    HW174686   0.392   8.604   8.639
90951SOL    HW274687   0.463   8.666   8.521
90952SOL     OW74688  13.874   7.929  13.989
90952SOL    HW174689  13.939   7.880  14.039
90952SOL    HW274690  13.859   7.877  13.910
90953SOL     OW74691   2.204  12.031   2.442
90953SOL    HW174692   2.138  12.092   2.475
90953SOL    HW274693   2.192  11.952   2.495
90954SOL     OW74694  10.358  10.021  13.606
90954SOL    HW174695  10.434  10.060  13.564
90954SOL    HW274696  10.388   9.935  13.635
90955SOL     OW74697   3.827  13.911  14.594
90955SOL    HW174698   3.739  13.933  14.565
90955SOL    HW274699   3.828  13.933  14.688
90956SOL     OW74700  14.361   3.160   6.343
90956SOL    HW174701  14.328   3.097   6.406
90956SOL    HW274702  14.320   3.136   6.260
90957SOL     OW74703  13.136   3.388  12.007
90957SOL    HW174704  13.093   3.427  11.931
90957SOL    HW274705  13.113   3.447  12.079
90958SOL     OW74706   9.093   4.244   0.900
90958SOL    HW174707   9.119   4.154   0.880
90958SOL    HW274708   9.154   4.298   0.849
90959SOL     OW74709   0.322   7.029   5.926
90959SOL    HW174710   0.337   6.936   5.910
90959SOL    HW274711   0.341   7.041   6.019
90960SOL     OW74712  13.445   4.147  11.976
90960SOL    HW174713  13.464   4.132  12.069
90960SOL    HW274714  13.363   4.099  11.961
90961SOL     OW74715   2.146   6.703   0.324
90961SOL    HW174716   2.131   6.794   0.298
90961SOL    HW274717   2.153   6.656   0.241
90962SOL     OW74718   9.386   5.884   0.308
90962SOL    HW174719   9.377   5.963   0.253
90962SOL    HW274720   9.365   5.914   0.396
90963SOL     OW74721  10.650   7.103   1.568
90963SOL    HW174722  10.712   7.097   1.640
90963SOL    HW274723  10.703   7.085   1.490
90964SOL     OW74724   7.514   5.750  12.398
90964SOL    HW174725   7.478   5.694  12.466
90964SOL    HW274726   7.550   5.690  12.333
90965SOL     OW74727   3.206  11.615  10.288
90965SOL    HW174728   3.198  11.696  10.339
90965SOL    HW274729   3.206  11.546  10.354
90966SOL     OW74730   3.689   9.510  13.367
90966SOL    HW174731   3.661   9.448  13.299
90966SOL    HW274732   3.751   9.568  13.324
90967SOL     OW74733   2.822  14.018  11.431
90967SOL    HW174734   2.859  14.106  11.440
90967SOL    HW274735   2.772  14.004  11.511
90968SOL     OW74736   4.873  10.275   2.182
90968SOL    HW174737   4.923  10.216   2.124
90968SOL    HW274738   4.930  10.351   2.193
90969SOL     OW74739   5.986   3.224   9.229
90969SOL    HW174740   6.012   3.136   9.202
90969SOL    HW274741   5.898   3.214   9.264
90970SOL     OW74742   9.352  13.081   8.426
90970SOL    HW174743   9.287  13.110   8.362
90970SOL    HW274744   9.344  12.986   8.427
90971SOL     OW74745  14.461   9.456   4.652
90971SOL    HW174746  14.512   9.487   4.727
90971SOL    HW274747  14.486   9.364   4.642
90972SOL     OW74748  13.286   3.324  13.114
90972SOL    HW174749  13.211   3.274  13.145
90972SOL    HW274750  13.275   3.329  13.019
90973SOL     OW74751  11.991   7.729   7.742
90973SOL    HW174752  12.029   7.696   7.823
90973SOL    HW274753  11.897   7.711   7.750
90974SOL     OW74754   9.727  10.081   3.250
90974SOL    HW174755   9.771  10.051   3.170
90974SOL    HW274756   9.741  10.176   3.250
90975SOL     OW74757  14.451   2.612   4.264
90975SOL    HW174758  14.459   2.696   4.218
90975SOL    HW274759  14.529   2.563   4.239
90976SOL     OW74760  14.426   7.210  14.642
90976SOL    HW174761  14.403   7.150  14.713
90976SOL    HW274762  14.448   7.152  14.569
90977SOL     OW74763   4.906  12.614   5.270
90977SOL    HW174764   4.825  12.612   5.321
90977SOL    HW274765   4.944  12.701   5.287
90978SOL     OW74766   7.535   4.794  14.748
90978SOL    HW174767   7.530   4.854  14.673
90978SOL    HW274768   7.460   4.736  14.736
90979SOL     OW74769   3.626   9.121   1.854
90979SOL    HW174770   3.665   9.165   1.778
90979SOL    HW274771   3.700   9.081   1.899
90980SOL     OW74772   0.929   2.502   5.421
90980SOL    HW174773   0.887   2.521   5.505
90980SOL    HW274774   1.022   2.517   5.436
90981SOL     OW74775  13.151   4.580  12.325
90981SOL    HW174776  13.141   4.674  12.341
90981SOL    HW274777  13.067   4.553  12.289
90982SOL     OW74778   7.558  12.204   5.185
90982SOL    HW174779   7.590  12.152   5.111
90982SOL    HW274780   7.633  12.209   5.245
90983SOL     OW74781   8.354   7.525   4.440
90983SOL    HW174782   8.286   7.571   4.391
90983SOL    HW274783   8.318   7.516   4.529
90984SOL     OW74784   2.387   3.075  12.869
90984SOL    HW174785   2.479   3.064  12.895
90984SOL    HW274786   2.349   3.127  12.940
90985SOL     OW74787   4.654  14.830  10.963
90985SOL    HW174788   4.699  14.746  10.953
90985SOL    HW274789   4.591  14.832  10.890
90986SOL     OW74790  10.528  11.671   9.917
90986SOL    HW174791  10.604  11.660   9.860
90986SOL    HW274792  10.546  11.614   9.992
90987SOL     OW74793  12.083   7.012   8.481
90987SOL    HW174794  11.996   6.982   8.506
90987SOL    HW274795  12.138   6.934   8.486
90988SOL     OW74796  12.906   6.393   7.066
90988SOL    HW174797  12.883   6.430   7.151
90988SOL    HW274798  12.849   6.438   7.003
90989SOL     OW74799   0.011  10.650   6.759
90989SOL    HW174800  14.838  10.641   6.679
90989SOL    HW274801   0.045  10.562   6.776
90990SOL     OW74802   7.096   8.542   6.335
90990SOL    HW174803   7.087   8.619   6.278
90990SOL    HW274804   7.059   8.571   6.419
90991SOL     OW74805  14.496  13.187  10.950
90991SOL    HW174806  14.552  13.264  10.941
90991SOL    HW274807  14.546  13.117  10.909
90992SOL     OW74808   1.077   0.313  14.583
90992SOL    HW174809   1.006   0.261  14.544
90992SOL    HW274810   1.149   0.307  14.521
90993SOL     OW74811   5.204   7.221  14.262
90993SOL    HW174812   5.124   7.271  14.244
90993SOL    HW274813   5.264   7.285  14.300
90994SOL     OW74814   4.842  12.661   5.753
90994SOL    HW174815   4.813  12.607   5.826
90994SOL    HW274816   4.817  12.750   5.777
90995SOL     OW74817   8.429   0.737   8.241
90995SOL    HW174818   8.392   0.825   8.229
90995SOL    HW274819   8.374   0.698   8.309
90996SOL     OW74820   3.130   3.200   7.637
90996SOL    HW174821   3.041   3.228   7.613
90996SOL    HW274822   3.184   3.228   7.564
90997SOL     OW74823   3.089  14.215   9.177
90997SOL    HW174824   3.066  14.123   9.189
90997SOL    HW274825   3.012  14.254   9.135
90998SOL     OW74826   3.495   4.945  11.708
90998SOL    HW174827   3.455   4.867  11.746
90998SOL    HW274828   3.443   4.961  11.629
90999SOL     OW74829  13.291   7.806  11.657
90999SOL    HW174830  13.276   7.901  11.657
90999SOL    HW274831  13.217   7.770  11.608
91000SOL     OW74832  10.045   3.115   8.758
91000SOL    HW174833  10.119   3.058   8.740
91000SOL    HW274834   9.984   3.098   8.686
91001SOL     OW74835   1.755  11.446  11.256
91001SOL    HW174836   1.793  11.495  11.329
91001SOL    HW274837   1.666  11.479  11.249
91002SOL     OW74838   2.935   7.139   9.810
91002SOL    HW174839   2.879   7.204   9.854
91002SOL    HW274840   2.924   7.158   9.717
91003SOL     OW74841  14.334  13.847   1.593
91003SOL    HW174842  14.278  13.924   1.588
91003SOL    HW274843  14.371  13.839   1.506
91004SOL     OW74844   0.539   5.213  13.351
91004SOL    HW174845   0.524   5.123  13.380
91004SOL    HW274846   0.567   5.205  13.260
91005SOL     OW74847  13.042  13.668   1.284
91005SOL    HW174848  13.078  13.700   1.202
91005SOL    HW274849  13.083  13.723   1.352
91006SOL     OW74850  11.896   2.372   5.907
91006SOL    HW174851  11.853   2.354   5.990
91006SOL    HW274852  11.887   2.467   5.895
91007SOL     OW74853   6.986  14.768   2.979
91007SOL    HW174854   7.019  14.809   2.899
91007SOL    HW274855   7.042  14.803   3.049
91008SOL     OW74856   7.379   1.756  13.662
91008SOL    HW174857   7.429   1.707  13.727
91008SOL    HW274858   7.288   1.749  13.693
91009SOL     OW74859  13.909  10.513  14.759
91009SOL    HW174860  13.894  10.544  14.849
91009SOL    HW274861  14.003  10.518  14.747
91010SOL     OW74862   9.426   6.295   7.812
91010SOL    HW174863   9.462   6.345   7.885
91010SOL    HW274864   9.500   6.287   7.751
91011SOL     OW74865   7.654  14.690   7.852
91011SOL    HW174866   7.742  14.652   7.843
91011SOL    HW274867   7.644  14.703   7.946
91012SOL     OW74868   9.527   2.843   0.718
91012SOL    HW174869   9.525   2.894   0.638
91012SOL    HW274870   9.581   2.894   0.778
91013SOL     OW74871  13.566   1.579   1.675
91013SOL    HW174872  13.545   1.657   1.725
91013SOL    HW274873  13.481   1.537   1.659
91014SOL     OW74874   6.971  11.149  12.072
91014SOL    HW174875   6.962  11.178  11.981
91014SOL    HW274876   7.060  11.173  12.096
91015SOL     OW74877   4.088  12.278  11.583
91015SOL    HW174878   4.087  12.320  11.669
91015SOL    HW274879   4.181  12.265  11.564
91016SOL     OW74880   1.870   3.436   4.591
91016SOL    HW174881   1.789   3.434   4.540
91016SOL    HW274882   1.888   3.529   4.602
91017SOL     OW74883   7.197   7.933  10.186
91017SOL    HW174884   7.126   7.902  10.131
91017SOL    HW274885   7.154   7.972  10.262
91018SOL     OW74886   8.200   1.189   7.079
91018SOL    HW174887   8.252   1.123   7.124
91018SOL    HW274888   8.132   1.213   7.142
91019SOL     OW74889  12.809  13.733  12.392
91019SOL    HW174890  12.839  13.672  12.459
91019SOL    HW274891  12.838  13.694  12.309
91020SOL     OW74892   4.729  12.971   2.185
91020SOL    HW174893   4.728  12.876   2.182
91020SOL    HW274894   4.641  12.996   2.213
91021SOL     OW74895   2.803   1.015  13.204
91021SOL    HW174896   2.863   0.964  13.259
91021SOL    HW274897   2.856   1.043  13.130
91022SOL     OW74898   3.986   7.318  14.828
91022SOL    HW174899   3.963   7.376   0.021
91022SOL    HW274900   4.081   7.312  14.830
91023SOL     OW74901   8.617   0.942   8.421
91023SOL    HW174902   8.650   0.981   8.340
91023SOL    HW274903   8.526   0.919   8.401
91024SOL     OW74904  11.848   5.767  14.124
91024SOL    HW174905  11.929   5.805  14.089
91024SOL    HW274906  11.878   5.695  14.180
91025SOL     OW74907   4.484   7.974   2.261
91025SOL    HW174908   4.558   8.032   2.278
91025SOL    HW274909   4.431   8.022   2.196
91026SOL     OW74910  13.185   2.310  12.926
91026SOL    HW174911  13.165   2.318  13.019
91026SOL    HW274912  13.198   2.400  12.896
91027SOL     OW74913   5.438  13.876   4.127
91027SOL    HW174914   5.404  13.925   4.202
91027SOL    HW274915   5.370  13.811   4.108
91028SOL     OW74916   2.384  11.934  10.450
91028SOL    HW174917   2.370  11.847  10.415
91028SOL    HW274918   2.408  11.987  10.374
91029SOL     OW74919   5.817   2.018  13.073
91029SOL    HW174920   5.855   1.990  12.990
91029SOL    HW274921   5.737   1.966  13.081
91030SOL     OW74922   3.415   9.311   5.392
91030SOL    HW174923   3.476   9.249   5.352
91030SOL    HW274924   3.340   9.258   5.418
91031SOL     OW74925   3.860   4.177   4.921
91031SOL    HW174926   3.864   4.091   4.962
91031SOL    HW274927   3.828   4.160   4.832
91032SOL     OW74928   3.092   3.950  10.971
91032SOL    HW174929   3.097   3.972  11.064
91032SOL    HW274930   3.177   3.977  10.936
91033SOL     OW74931  14.467  12.762   2.670
91033SOL    HW174932  14.397  12.740   2.732
91033SOL    HW274933  14.453  12.854   2.650
91034SOL     OW74934   1.058   8.586   4.434
91034SOL    HW174935   1.086   8.508   4.387
91034SOL    HW274936   1.123   8.652   4.413
91035SOL     OW74937   9.991  11.044  11.841
91035SOL    HW174938   9.990  11.127  11.793
91035SOL    HW274939   9.975  11.069  11.932
91036SOL     OW74940   1.866  12.617   5.342
91036SOL    HW174941   1.961  12.614   5.330
91036SOL    HW274942   1.847  12.709   5.361
91037SOL     OW74943  14.790   5.662   9.510
91037SOL    HW174944   0.002   5.689   9.503
91037SOL    HW274945  14.781   5.632   9.601
91038SOL     OW74946   7.815   6.492   5.695
91038SOL    HW174947   7.894   6.545   5.709
91038SOL    HW274948   7.777   6.481   5.782
91039SOL     OW74949  13.058  12.483   5.037
91039SOL    HW174950  12.972  12.455   5.068
91039SOL    HW274951  13.061  12.455   4.946
91040SOL     OW74952  10.242  14.304  10.416
91040SOL    HW174953  10.235  14.388  10.462
91040SOL    HW274954  10.317  14.261  10.457
91041SOL     OW74955   0.875   7.865   0.770
91041SOL    HW174956   0.870   7.894   0.679
91041SOL    HW274957   0.829   7.781   0.771
91042SOL     OW74958   9.963   4.125  11.096
91042SOL    HW174959   9.924   4.076  11.168
91042SOL    HW274960   9.892   4.135  11.033
91043SOL     OW74961  10.360  13.171   2.593
91043SOL    HW174962  10.318  13.118   2.661
91043SOL    HW274963  10.453  13.171   2.618
91044SOL     OW74964   4.042   3.804   6.436
91044SOL    HW174965   4.138   3.808   6.432
91044SOL    HW274966   4.016   3.892   6.463
91045SOL     OW74967   9.705   1.126  10.604
91045SOL    HW174968   9.684   1.184  10.532
91045SOL    HW274969   9.779   1.169  10.648
91046SOL     OW74970   6.997   5.843   2.495
91046SOL    HW174971   7.059   5.813   2.430
91046SOL    HW274972   7.049   5.897   2.555
91047SOL     OW74973   5.363  12.794   4.708
91047SOL    HW174974   5.358  12.888   4.692
91047SOL    HW274975   5.446  12.781   4.753
91048SOL     OW74976  12.443   2.784  11.660
91048SOL    HW174977  12.490   2.786  11.743
91048SOL    HW274978  12.401   2.870  11.654
91049SOL     OW74979  14.792  14.628   9.775
91049SOL    HW174980  14.787  14.628   9.871
91049SOL    HW274981  14.856  14.559   9.755
91050SOL     OW74982  12.405   0.475   6.062
91050SOL    HW174983  12.497   0.481   6.038
91050SOL    HW274984  12.404   0.480   6.157
91051SOL     OW74985   2.272   4.944   0.202
91051SOL    HW174986   2.256   4.904   0.288
91051SOL    HW274987   2.316   5.026   0.221
91052SOL     OW74988   0.065   7.312   3.777
91052SOL    HW174989   0.155   7.282   3.794
91052SOL    HW274990   0.016   7.284   3.854
91053SOL     OW74991   7.808  11.407   3.996
91053SOL    HW174992   7.781  11.488   3.955
91053SOL    HW274993   7.898  11.424   4.026
91054SOL     OW74994  10.844  11.445   5.524
91054SOL    HW174995  10.796  11.367   5.496
91054SOL    HW274996  10.830  11.508   5.453
91055SOL     OW74997  13.500  10.371   8.802
91055SOL    HW174998  13.569  10.323   8.756
91055SOL    HW274999  13.452  10.303   8.849
91056SOL     OW75000   8.273  10.771  10.039
91056SOL    HW175001   8.341  10.813   9.985
91056SOL    HW275002   8.207  10.742   9.976
91057SOL     OW75003  11.441   4.553  13.698
91057SOL    HW175004  11.400   4.519  13.777
91057SOL    HW275005  11.430   4.483  13.633
91058SOL     OW75006   5.047  12.245   6.724
91058SOL    HW175007   5.114  12.209   6.782
91058SOL    HW275008   5.031  12.333   6.758
91059SOL     OW75009   8.179   7.318   1.366
91059SOL    HW175010   8.192   7.380   1.437
91059SOL    HW275011   8.177   7.372   1.287
91060SOL     OW75012  13.469   8.395  11.583
91060SOL    HW175013  13.543   8.334  11.587
91060SOL    HW275014  13.506   8.477  11.551
91061SOL     OW75015  11.182  11.301   6.127
91061SOL    HW175016  11.123  11.262   6.192
91061SOL    HW275017  11.125  11.359   6.075
91062SOL     OW75018  12.265   6.151   6.534
91062SOL    HW175019  12.296   6.139   6.445
91062SOL    HW275020  12.317   6.091   6.587
91063SOL     OW75021   4.889   1.792   5.578
91063SOL    HW175022   4.891   1.878   5.621
91063SOL    HW275023   4.818   1.745   5.621
91064SOL     OW75024  12.377  10.830   6.285
91064SOL    HW175025  12.370  10.837   6.189
91064SOL    HW275026  12.371  10.921   6.316
91065SOL     OW75027  12.958   8.569  11.073
91065SOL    HW175028  12.946   8.551  11.166
91065SOL    HW275029  13.051   8.552  11.058
91066SOL     OW75030   2.795   2.493   6.535
91066SOL    HW175031   2.723   2.446   6.576
91066SOL    HW275032   2.832   2.547   6.605
91067SOL     OW75033   1.033   6.366   4.437
91067SOL    HW175034   0.963   6.323   4.486
91067SOL    HW275035   1.011   6.351   4.345
91068SOL     OW75036   1.429   6.203  14.699
91068SOL    HW175037   1.475   6.216  14.782
91068SOL    HW275038   1.443   6.285  14.651
91069SOL     OW75039  12.572   8.450   5.808
91069SOL    HW175040  12.639   8.516   5.829
91069SOL    HW275041  12.577   8.387   5.880
91070SOL     OW75042  13.180   0.688  12.916
91070SOL    HW175043  13.192   0.776  12.951
91070SOL    HW275044  13.153   0.636  12.991
91071SOL     OW75045   2.771   2.389  14.392
91071SOL    HW175046   2.810   2.346  14.315
91071SOL    HW275047   2.692   2.338  14.410
91072SOL     OW75048   3.545   5.300   1.791
91072SOL    HW175049   3.597   5.351   1.729
91072SOL    HW275050   3.458   5.295   1.752
91073SOL     OW75051  14.627   4.877   5.132
91073SOL    HW175052  14.684   4.953   5.143
91073SOL    HW275053  14.625   4.835   5.218
91074SOL     OW75054  10.470   6.015   9.122
91074SOL    HW175055  10.382   5.988   9.151
91074SOL    HW275056  10.499   5.944   9.065
91075SOL     OW75057   9.785   7.724  14.384
91075SOL    HW175058   9.807   7.716  14.477
91075SOL    HW275059   9.707   7.779  14.382
91076SOL     OW75060   6.580   0.476   0.992
91076SOL    HW175061   6.616   0.563   1.006
91076SOL    HW275062   6.656   0.419   0.985
91077SOL     OW75063   3.624  12.045  14.397
91077SOL    HW175064   3.603  12.094  14.477
91077SOL    HW275065   3.619  11.953  14.424
91078SOL     OW75066  13.310   2.270   5.312
91078SOL    HW175067  13.382   2.240   5.368
91078SOL    HW275068  13.352   2.294   5.230
91079SOL     OW75069   9.616   8.118   3.287
91079SOL    HW175070   9.582   8.193   3.336
91079SOL    HW275071   9.647   8.058   3.355
91080SOL     OW75072   9.801  14.809   0.879
91080SOL    HW175073   9.833  14.753   0.808
91080SOL    HW275074   9.735  14.865   0.838
91081SOL     OW75075  10.328   9.292  10.092
91081SOL    HW175076  10.363   9.284  10.003
91081SOL    HW275077  10.242   9.252  10.088
91082SOL     OW75078   7.767   7.269   4.461
91082SOL    HW175079   7.853   7.236   4.436
91082SOL    HW275080   7.711   7.252   4.385
91083SOL     OW75081  11.200  11.764   1.273
91083SOL    HW175082  11.126  11.791   1.219
91083SOL    HW275083  11.168  11.687   1.320
91084SOL     OW75084   5.218   9.379   1.922
91084SOL    HW175085   5.222   9.324   2.001
91084SOL    HW275086   5.157   9.333   1.865
91085SOL     OW75087   2.127  11.578   9.009
91085SOL    HW175088   2.209  11.566   8.960
91085SOL    HW275089   2.150  11.637   9.080
91086SOL     OW75090   0.684   1.206   8.763
91086SOL    HW175091   0.741   1.130   8.758
91086SOL    HW275092   0.630   1.190   8.841
91087SOL     OW75093   6.995  14.744  10.532
91087SOL    HW175094   6.912  14.790  10.538
91087SOL    HW275095   6.981  14.662  10.579
91088SOL     OW75096   0.642   0.650  10.539
91088SOL    HW175097   0.556   0.638  10.578
91088SOL    HW275098   0.680   0.725  10.585
91089SOL     OW75099  11.843  14.759   5.319
91089SOL    HW175100  11.799  14.743   5.236
91089SOL    HW275101  11.893  14.839   5.304
91090SOL     OW75102   3.517   1.979  14.065
91090SOL    HW175103   3.519   2.023  14.150
91090SOL    HW275104   3.594   2.012  14.019
91091SOL     OW75105   2.854  13.239   6.388
91091SOL    HW175106   2.893  13.203   6.308
91091SOL    HW275107   2.925  13.289   6.428
91092SOL     OW75108   7.914   0.289  13.266
91092SOL    HW175109   7.821   0.283  13.242
91092SOL    HW275110   7.913   0.320  13.357
91093SOL     OW75111   5.611  14.626   1.483
91093SOL    HW175112   5.550  14.612   1.410
91093SOL    HW275113   5.619  14.540   1.525
91094SOL     OW75114  14.364   0.302   3.399
91094SOL    HW175115  14.367   0.382   3.347
91094SOL    HW275116  14.455   0.271   3.401
91095SOL     OW75117  10.712   4.395  10.277
91095SOL    HW175118  10.623   4.430  10.286
91095SOL    HW275119  10.755   4.417  10.359
91096SOL     OW75120   6.449   5.802  14.356
91096SOL    HW175121   6.479   5.749  14.282
91096SOL    HW275122   6.516   5.790  14.423
91097SOL     OW75123   2.123   6.867   6.417
91097SOL    HW175124   2.078   6.782   6.426
91097SOL    HW275125   2.216   6.845   6.419
91098SOL     OW75126  11.339   7.494  11.780
91098SOL    HW175127  11.310   7.463  11.866
91098SOL    HW275128  11.383   7.418  11.741
91099SOL     OW75129   8.199   7.166   8.331
91099SOL    HW175130   8.267   7.233   8.343
91099SOL    HW275131   8.246   7.091   8.294
91100SOL     OW75132  11.368   2.408   6.289
91100SOL    HW175133  11.443   2.396   6.346
91100SOL    HW275134  11.377   2.341   6.222
91101SOL     OW75135   9.525   7.432   2.519
91101SOL    HW175136   9.542   7.352   2.469
91101SOL    HW275137   9.470   7.403   2.592
91102SOL     OW75138   9.475   4.076  14.249
91102SOL    HW175139   9.427   4.072  14.332
91102SOL    HW275140   9.412   4.049  14.183
91103SOL     OW75141   3.102   7.615   7.862
91103SOL    HW175142   3.163   7.680   7.828
91103SOL    HW275143   3.024   7.624   7.808
91104SOL     OW75144  11.104  14.454   8.422
91104SOL    HW175145  11.191  14.415   8.419
91104SOL    HW275146  11.119  14.549   8.420
91105SOL     OW75147   8.464   3.658   4.466
91105SOL    HW175148   8.368   3.656   4.455
91105SOL    HW275149   8.481   3.592   4.534
91106SOL     OW75150  12.307   5.279   6.580
91106SOL    HW175151  12.337   5.350   6.637
91106SOL    HW275152  12.282   5.209   6.640
91107SOL     OW75153   8.529   8.380   4.666
91107SOL    HW175154   8.518   8.352   4.757
91107SOL    HW275155   8.477   8.318   4.615
91108SOL     OW75156   3.990  12.928   1.409
91108SOL    HW175157   4.045  13.007   1.416
91108SOL    HW275158   3.903  12.957   1.439
91109SOL     OW75159   9.670   7.279   1.569
91109SOL    HW175160   9.585   7.239   1.552
91109SOL    HW275161   9.675   7.286   1.664
91110SOL     OW75162   5.676   4.361   2.518
91110SOL    HW175163   5.663   4.277   2.564
91110SOL    HW275164   5.768   4.381   2.532
91111SOL     OW75165   3.453  11.652   7.178
91111SOL    HW175166   3.435  11.692   7.093
91111SOL    HW275167   3.450  11.725   7.240
91112SOL     OW75168   5.367   7.487   3.402
91112SOL    HW175169   5.328   7.400   3.409
91112SOL    HW275170   5.395   7.494   3.310
91113SOL     OW75171  12.621  13.383  13.047
91113SOL    HW175172  12.687  13.373  13.116
91113SOL    HW275173  12.538  13.376  13.093
91114SOL     OW75174   1.993   0.062  14.292
91114SOL    HW175175   1.948   0.014  14.221
91114SOL    HW275176   1.948   0.146  14.296
91115SOL     OW75177   6.790   5.452   5.005
91115SOL    HW175178   6.716   5.470   5.063
91115SOL    HW275179   6.757   5.472   4.917
91116SOL     OW75180   6.197  13.185   5.029
91116SOL    HW175181   6.211  13.186   4.935
91116SOL    HW275182   6.182  13.092   5.049
91117SOL     OW75183   3.499   8.425  12.285
91117SOL    HW175184   3.574   8.444  12.229
91117SOL    HW275185   3.446   8.505  12.282
91118SOL     OW75186  12.596   6.996  14.470
91118SOL    HW175187  12.533   7.066  14.449
91118SOL    HW275188  12.542   6.925  14.505
91119SOL     OW75189   2.808   4.595  13.913
91119SOL    HW175190   2.734   4.552  13.957
91119SOL    HW275191   2.802   4.687  13.941
91120SOL     OW75192   5.998   3.360   8.890
91120SOL    HW175193   6.069   3.420   8.865
91120SOL    HW275194   5.930   3.418   8.923
91121SOL     OW75195   4.312   1.121   3.059
91121SOL    HW175196   4.281   1.080   3.139
91121SOL    HW275197   4.314   1.215   3.080
91122SOL     OW75198   9.780   1.375  13.292
91122SOL    HW175199   9.716   1.393  13.222
91122SOL    HW275200   9.767   1.283  13.313
91123SOL     OW75201   1.603   3.598   6.138
91123SOL    HW175202   1.694   3.613   6.115
91123SOL    HW275203   1.607   3.543   6.217
91124SOL     OW75204   6.434   4.037   3.613
91124SOL    HW175205   6.452   4.035   3.707
91124SOL    HW275206   6.357   3.983   3.601
91125SOL     OW75207  11.017   7.882   1.118
91125SOL    HW175208  10.938   7.929   1.090
91125SOL    HW275209  11.003   7.863   1.210
91126SOL     OW75210  12.731   0.203   1.839
91126SOL    HW175211  12.792   0.260   1.794
91126SOL    HW275212  12.645   0.235   1.815
91127SOL     OW75213   9.556  12.224  13.842
91127SOL    HW175214   9.554  12.247  13.935
91127SOL    HW275215   9.525  12.302  13.796
91128SOL     OW75216   3.536   6.027  13.176
91128SOL    HW175217   3.555   5.936  13.155
91128SOL    HW275218   3.485   6.059  13.102
91129SOL     OW75219  13.019   4.868   5.538
91129SOL    HW175220  12.934   4.827   5.521
91129SOL    HW275221  13.068   4.855   5.457
91130SOL     OW75222   3.904   1.922   2.871
91130SOL    HW175223   3.809   1.921   2.873
91130SOL    HW275224   3.926   1.979   2.798
91131SOL     OW75225   8.958  13.009   1.448
91131SOL    HW175226   8.900  13.070   1.402
91131SOL    HW275227   8.916  12.994   1.532
91132SOL     OW75228   0.845  14.848   1.360
91132SOL    HW175229   0.904  14.854   1.285
91132SOL    HW275230   0.781   0.038   1.346
91133SOL     OW75231  14.069  10.069   6.767
91133SOL    HW175232  14.054  10.080   6.861
91133SOL    HW275233  14.124   9.990   6.762
91134SOL     OW75234   2.138   4.045   0.202
91134SOL    HW175235   2.057   4.064   0.154
91134SOL    HW275236   2.167   3.960   0.167
91135SOL     OW75237  10.641  10.018  11.797
91135SOL    HW175238  10.558  10.051  11.762
91135SOL    HW275239  10.668   9.951  11.735
91136SOL     OW75240   1.942  12.007  13.369
91136SOL    HW175241   2.018  12.056  13.402
91136SOL    HW275242   1.888  11.991  13.446
91137SOL     OW75243   1.003   5.851   2.546
91137SOL    HW175244   0.939   5.780   2.540
91137SOL    HW275245   0.949   5.929   2.561
91138SOL     OW75246   6.025   3.763   9.093
91138SOL    HW175247   6.045   3.833   9.156
91138SOL    HW275248   5.984   3.695   9.145
91139SOL     OW75249   0.187  11.616   4.836
91139SOL    HW175250   0.211  11.602   4.927
91139SOL    HW275251   0.271  11.623   4.790
91140SOL     OW75252   5.029  14.025  10.480
91140SOL    HW175253   5.094  13.967  10.442
91140SOL    HW275254   4.973  13.968  10.533
91141SOL     OW75255   9.397   6.888  11.444
91141SOL    HW175256   9.396   6.890  11.540
91141SOL    HW275257   9.320   6.835  11.421
91142SOL     OW75258  14.126  11.174   6.030
91142SOL    HW175259  14.178  11.094   6.022
91142SOL    HW275260  14.182  11.235   6.077
91143SOL     OW75261   5.828   8.802   3.394
91143SOL    HW175262   5.810   8.885   3.438
91143SOL    HW275263   5.798   8.815   3.304
91144SOL     OW75264  10.614   9.085   4.473
91144SOL    HW175265  10.568   9.023   4.529
91144SOL    HW275266  10.557   9.162   4.470
91145SOL     OW75267  14.613  14.023  13.623
91145SOL    HW175268  14.614  13.950  13.684
91145SOL    HW275269  14.706  14.038  13.603
91146SOL     OW75270   0.565   5.247  13.674
91146SOL    HW175271   0.498   5.298  13.628
91146SOL    HW275272   0.542   5.255  13.766
91147SOL     OW75273   6.104   2.186  14.236
91147SOL    HW175274   6.043   2.259  14.245
91147SOL    HW275275   6.190   2.224  14.254
91148SOL     OW75276   7.091   3.140   2.136
91148SOL    HW175277   7.153   3.172   2.202
91148SOL    HW275278   7.128   3.169   2.053
91149SOL     OW75279  14.683   5.304   8.720
91149SOL    HW175280  14.607   5.251   8.697
91149SOL    HW275281  14.646   5.383   8.760
91150SOL     OW75282   6.777   1.410   5.893
91150SOL    HW175283   6.718   1.402   5.968
91150SOL    HW275284   6.771   1.326   5.849
91151SOL     OW75285  12.422  12.334  14.736
91151SOL    HW175286  12.376  12.306  14.816
91151SOL    HW275287  12.352  12.358  14.675
91152SOL     OW75288  13.273   2.499   6.484
91152SOL    HW175289  13.217   2.485   6.408
91152SOL    HW275290  13.277   2.594   6.496
91153SOL     OW75291   9.695  13.611   3.649
91153SOL    HW175292   9.771  13.585   3.701
91153SOL    HW275293   9.647  13.529   3.635
91154SOL     OW75294   8.217   0.559   8.950
91154SOL    HW175295   8.135   0.510   8.962
91154SOL    HW275296   8.264   0.511   8.882
91155SOL     OW75297   3.698   0.289  14.356
91155SOL    HW175298   3.677   0.221  14.419
91155SOL    HW275299   3.672   0.253  14.271
91156SOL     OW75300   5.214   3.276  11.690
91156SOL    HW175301   5.218   3.362  11.732
91156SOL    HW275302   5.305   3.251  11.677
91157SOL     OW75303   1.004   6.669   9.567
91157SOL    HW175304   1.014   6.759   9.596
91157SOL    HW275305   1.007   6.617   9.647
91158SOL     OW75306   1.143   2.474   1.163
91158SOL    HW175307   1.154   2.483   1.069
91158SOL    HW275308   1.122   2.381   1.176
91159SOL     OW75309  13.964   8.252   2.917
91159SOL    HW175310  13.896   8.320   2.917
91159SOL    HW275311  14.026   8.281   2.850
91160SOL     OW75312   1.775  12.893   3.722
91160SOL    HW175313   1.686  12.912   3.754
91160SOL    HW275314   1.832  12.914   3.796
91161SOL     OW75315   9.709  14.276  14.722
91161SOL    HW175316   9.697  14.361  14.679
91161SOL    HW275317   9.769  14.229  14.665
91162SOL     OW75318   0.765  10.692   4.703
91162SOL    HW175319   0.768  10.635   4.780
91162SOL    HW275320   0.855  10.719   4.689
91163SOL     OW75321   0.352  13.621   1.449
91163SOL    HW175322   0.386  13.531   1.442
91163SOL    HW275323   0.292  13.619   1.523
91164SOL     OW75324   6.336   1.320   8.187
91164SOL    HW175325   6.342   1.412   8.161
91164SOL    HW275326   6.243   1.298   8.179
91165SOL     OW75327   5.126   1.690   9.120
91165SOL    HW175328   5.132   1.704   9.214
91165SOL    HW275329   5.091   1.601   9.111
91166SOL     OW75330   7.018   3.411   3.664
91166SOL    HW175331   6.981   3.451   3.586
91166SOL    HW275332   7.036   3.320   3.638
91167SOL     OW75333   8.050  14.825  12.395
91167SOL    HW175334   8.133  14.843  12.439
91167SOL    HW275335   8.049   0.007  12.321
91168SOL     OW75336  13.772   2.756   8.907
91168SOL    HW175337  13.731   2.688   8.961
91168SOL    HW275338  13.699   2.801   8.866
91169SOL     OW75339  14.659   3.799   9.613
91169SOL    HW175340  14.719   3.763   9.547
91169SOL    HW275341  14.590   3.842   9.562
91170SOL     OW75342  11.997   5.529  11.784
91170SOL    HW175343  12.062   5.488  11.726
91170SOL    HW275344  11.931   5.460  11.798
91171SOL     OW75345   5.318   8.703   2.223
91171SOL    HW175346   5.303   8.779   2.278
91171SOL    HW275347   5.245   8.644   2.243
91172SOL     OW75348   6.049  12.129   4.014
91172SOL    HW175349   5.995  12.174   3.949
91172SOL    HW275350   6.000  12.138   4.096
91173SOL     OW75351   6.152  12.601   1.189
91173SOL    HW175352   6.060  12.576   1.197
91173SOL    HW275353   6.157  12.648   1.106
91174SOL     OW75354   8.469  11.393  11.215
91174SOL    HW175355   8.465  11.477  11.261
91174SOL    HW275356   8.381  11.383  11.178
91175SOL     OW75357   7.017   5.618  14.110
91175SOL    HW175358   7.047   5.631  14.200
91175SOL    HW275359   7.078   5.670  14.057
91176SOL     OW75360   3.858   2.717   6.408
91176SOL    HW175361   3.781   2.742   6.357
91176SOL    HW275362   3.866   2.787   6.474
91177SOL     OW75363  14.786   7.086   8.903
91177SOL    HW175364  14.757   7.017   8.963
91177SOL    HW275365  14.813   7.039   8.824
91178SOL     OW75366   1.537  13.243  13.449
91178SOL    HW175367   1.575  13.224  13.363
91178SOL    HW275368   1.547  13.337  13.460
91179SOL     OW75369  14.170  12.485   9.154
91179SOL    HW175370  14.113  12.408   9.147
91179SOL    HW275371  14.208  12.494   9.067
91180SOL     OW75372   0.193  12.048   1.501
91180SOL    HW175373   0.226  12.117   1.559
91180SOL    HW275374   0.246  11.972   1.522
91181SOL     OW75375   8.207  13.890   1.801
91181SOL    HW175376   8.251  13.822   1.751
91181SOL    HW275377   8.161  13.942   1.735
91182SOL     OW75378   7.410   8.910   9.185
91182SOL    HW175379   7.353   8.980   9.154
91182SOL    HW275380   7.465   8.888   9.110
91183SOL     OW75381   0.847   0.911   2.214
91183SOL    HW175382   0.838   0.992   2.164
91183SOL    HW275383   0.793   0.924   2.292
91184SOL     OW75384   1.014   9.948   1.779
91184SOL    HW175385   1.089  10.007   1.763
91184SOL    HW275386   0.967   9.947   1.695
91185SOL     OW75387   2.178   2.417  10.531
91185SOL    HW175388   2.263   2.456  10.547
91185SOL    HW275389   2.136   2.413  10.617
91186SOL     OW75390   1.151   3.856   0.568
91186SOL    HW175391   1.138   3.891   0.656
91186SOL    HW275392   1.085   3.787   0.560
91187SOL     OW75393  12.409   2.059   1.317
91187SOL    HW175394  12.445   1.975   1.345
91187SOL    HW275395  12.415   2.115   1.395
91188SOL     OW75396   2.166   8.140   7.875
91188SOL    HW175397   2.077   8.112   7.898
91188SOL    HW275398   2.159   8.169   7.784
91189SOL     OW75399   3.701   5.842  14.170
91189SOL    HW175400   3.790   5.872  14.150
91189SOL    HW275401   3.646   5.919  14.157
91190SOL     OW75402   9.417   1.849   9.282
91190SOL    HW175403   9.392   1.940   9.265
91190SOL    HW275404   9.340   1.797   9.259
91191SOL     OW75405   3.086  11.629  10.700
91191SOL    HW175406   3.070  11.693  10.769
91191SOL    HW275407   3.000  11.596  10.677
91192SOL     OW75408   2.720   2.521  13.276
91192SOL    HW175409   2.733   2.428  13.290
91192SOL    HW275410   2.678   2.526  13.190
91193SOL     OW75411  13.763   8.811   4.940
91193SOL    HW175412  13.778   8.734   4.995
91193SOL    HW275413  13.811   8.881   4.984
91194SOL     OW75414   8.994  13.612   2.405
91194SOL    HW175415   9.053  13.614   2.480
91194SOL    HW275416   8.972  13.520   2.393
91195SOL     OW75417  10.346  10.392  11.762
91195SOL    HW175418  10.298  10.424  11.686
91195SOL    HW275419  10.284  10.400  11.835
91196SOL     OW75420   9.124  13.310   5.705
91196SOL    HW175421   9.196  13.254   5.736
91196SOL    HW275422   9.133  13.391   5.755
91197SOL     OW75423   7.190   8.003  14.229
91197SOL    HW175424   7.271   8.032  14.271
91197SOL    HW275425   7.152   8.084  14.194
91198SOL     OW75426   0.822  14.113   9.456
91198SOL    HW175427   0.899  14.135   9.509
91198SOL    HW275428   0.800  14.196   9.412
91199SOL     OW75429  10.015   7.675   1.405
91199SOL    HW175430   9.949   7.681   1.474
91199SOL    HW275431   9.971   7.630   1.333
91200SOL     OW75432  11.247  11.927   8.941
91200SOL    HW175433  11.185  11.854   8.942
91200SOL    HW275434  11.210  11.990   8.879
91201SOL     OW75435   8.862   4.969   4.096
91201SOL    HW175436   8.865   4.884   4.139
91201SOL    HW275437   8.868   4.949   4.002
91202SOL     OW75438  11.415  11.108   9.544
91202SOL    HW175439  11.481  11.161   9.499
91202SOL    HW275440  11.455  11.086   9.628
91203SOL     OW75441   0.274   3.625   1.256
91203SOL    HW175442   0.255   3.540   1.215
91203SOL    HW275443   0.369   3.630   1.257
91204SOL     OW75444   1.736  13.154   1.297
91204SOL    HW175445   1.829  13.142   1.278
91204SOL    HW275446   1.735  13.192   1.385
91205SOL     OW75447   2.913   1.800   8.109
91205SOL    HW175448   2.907   1.774   8.200
91205SOL    HW275449   2.892   1.721   8.059
91206SOL     OW75450   4.419   9.641   9.181
91206SOL    HW175451   4.423   9.628   9.086
91206SOL    HW275452   4.327   9.655   9.200
91207SOL     OW75453   7.448   3.429   3.942
91207SOL    HW175454   7.421   3.495   3.879
91207SOL    HW275455   7.374   3.369   3.947
91208SOL     OW75456   3.941   9.222   4.987
91208SOL    HW175457   3.862   9.255   5.030
91208SOL    HW275458   3.977   9.298   4.942
91209SOL     OW75459   0.464   6.590   3.416
91209SOL    HW175460   0.378   6.550   3.399
91209SOL    HW275461   0.512   6.522   3.463
91210SOL     OW75462   7.089  10.923   2.529
91210SOL    HW175463   7.067  10.947   2.619
91210SOL    HW275464   7.181  10.895   2.534
91211SOL     OW75465   6.304   8.471   5.173
91211SOL    HW175466   6.319   8.531   5.246
91211SOL    HW275467   6.332   8.386   5.207
91212SOL     OW75468   3.322   9.430  10.419
91212SOL    HW175469   3.297   9.362  10.481
91212SOL    HW275470   3.392   9.478  10.463
91213SOL     OW75471   4.005   0.721  13.945
91213SOL    HW175472   4.079   0.769  13.980
91213SOL    HW275473   4.004   0.744  13.852
91214SOL     OW75474  11.384   3.235   0.735
91214SOL    HW175475  11.427   3.281   0.663
91214SOL    HW275476  11.344   3.158   0.695
91215SOL     OW75477   6.567   2.193  12.416
91215SOL    HW175478   6.486   2.165  12.373
91215SOL    HW275479   6.636   2.144  12.372
91216SOL     OW75480  10.420  13.324   1.948
91216SOL    HW175481  10.430  13.235   1.916
91216SOL    HW275482  10.457  13.322   2.036
91217SOL     OW75483   8.613  11.023  12.665
91217SOL    HW175484   8.607  11.073  12.746
91217SOL    HW275485   8.532  11.042  12.618
91218SOL     OW75486  11.443   9.765  13.453
91218SOL    HW175487  11.440   9.826  13.526
91218SOL    HW275488  11.371   9.792  13.395
91219SOL     OW75489  11.455   5.993   6.924
91219SOL    HW175490  11.439   6.032   6.838
91219SOL    HW275491  11.540   5.951   6.915
91220SOL     OW75492   9.057  10.743   9.717
91220SOL    HW175493   9.122  10.791   9.769
91220SOL    HW275494   8.988  10.722   9.779
91221SOL     OW75495  13.734   5.633   0.259
91221SOL    HW175496  13.725   5.627   0.354
91221SOL    HW275497  13.687   5.713   0.236
91222SOL     OW75498   4.929   4.129  11.011
91222SOL    HW175499   4.943   4.041  10.976
91222SOL    HW275500   4.926   4.117  11.106
91223SOL     OW75501   2.848  12.255   3.341
91223SOL    HW175502   2.922  12.223   3.392
91223SOL    HW275503   2.776  12.196   3.362
91224SOL     OW75504   6.258   3.326  10.787
91224SOL    HW175505   6.196   3.392  10.817
91224SOL    HW275506   6.344   3.366  10.797
91225SOL     OW75507  12.086   9.888   1.148
91225SOL    HW175508  12.000   9.856   1.177
91225SOL    HW275509  12.068   9.974   1.112
91226SOL     OW75510  12.622   9.529  11.180
91226SOL    HW175511  12.637   9.559  11.269
91226SOL    HW275512  12.546   9.472  11.186
91227SOL     OW75513   7.613   1.274   7.000
91227SOL    HW175514   7.654   1.195   7.034
91227SOL    HW275515   7.521   1.267   7.026
91228SOL     OW75516   6.796   5.339   1.097
91228SOL    HW175517   6.762   5.368   1.182
91228SOL    HW275518   6.831   5.252   1.114
91229SOL     OW75519  13.024  12.082   5.949
91229SOL    HW175520  13.103  12.124   5.982
91229SOL    HW275521  12.967  12.155   5.925
91230SOL     OW75522   6.359  12.506   7.077
91230SOL    HW175523   6.280  12.560   7.088
91230SOL    HW275524   6.341  12.454   6.999
91231SOL     OW75525   9.957   3.491   8.716
91231SOL    HW175526   9.931   3.420   8.657
91231SOL    HW275527  10.003   3.553   8.659
91232SOL     OW75528   8.322   9.199  13.100
91232SOL    HW175529   8.240   9.166  13.136
91232SOL    HW275530   8.305   9.293  13.086
91233SOL     OW75531   5.748   0.184   3.336
91233SOL    HW175532   5.842   0.191   3.355
91233SOL    HW275533   5.723   0.099   3.371
91234SOL     OW75534   0.017  11.744  11.006
91234SOL    HW175535   0.033  11.668  10.949
91234SOL    HW275536   0.081  11.809  10.977
91235SOL     OW75537   4.983  12.765  14.010
91235SOL    HW175538   4.896  12.726  14.015
91235SOL    HW275539   5.040  12.699  14.050
91236SOL     OW75540   8.569   0.423   3.668
91236SOL    HW175541   8.510   0.348   3.680
91236SOL    HW275542   8.597   0.445   3.757
91237SOL     OW75543   1.363   0.899  10.721
91237SOL    HW175544   1.272   0.872  10.731
91237SOL    HW275545   1.400   0.896  10.809
91238SOL     OW75546   6.665  12.805   2.429
91238SOL    HW175547   6.573  12.804   2.403
91238SOL    HW275548   6.692  12.713   2.426
91239SOL     OW75549  10.603  13.166  14.027
91239SOL    HW175550  10.608  13.089  13.971
91239SOL    HW275551  10.537  13.222  13.986
91240SOL     OW75552  12.508   8.955   0.404
91240SOL    HW175553  12.580   8.979   0.462
91240SOL    HW275554  12.453   9.034   0.400
91241SOL     OW75555  11.968  11.738  12.490
91241SOL    HW175556  11.896  11.717  12.430
91241SOL    HW275557  12.044  11.750  12.432
91242SOL     OW75558   3.762   9.559   7.916
91242SOL    HW175559   3.755   9.550   8.011
91242SOL    HW275560   3.727   9.477   7.881
91243SOL     OW75561   2.235   0.282   7.561
91243SOL    HW175562   2.208   0.196   7.529
91243SOL    HW275563   2.182   0.298   7.639
91244SOL     OW75564   5.419  11.174   9.119
91244SOL    HW175565   5.463  11.215   9.044
91244SOL    HW275566   5.441  11.230   9.194
91245SOL     OW75567  13.118   2.952   3.315
91245SOL    HW175568  13.105   2.975   3.407
91245SOL    HW275569  13.072   3.020   3.266
91246SOL     OW75570  14.356   8.208  13.155
91246SOL    HW175571  14.380   8.281  13.213
91246SOL    HW275572  14.438   8.184  13.112
91247SOL     OW75573   6.633  12.493   5.588
91247SOL    HW175574   6.611  12.458   5.675
91247SOL    HW275575   6.574  12.568   5.577
91248SOL     OW75576  14.326  10.544   4.905
91248SOL    HW175577  14.368  10.473   4.954
91248SOL    HW275578  14.383  10.619   4.919
91249SOL     OW75579   4.140   3.968  10.409
91249SOL    HW175580   4.217   3.961  10.353
91249SOL    HW275581   4.073   3.916  10.365
91250SOL     OW75582   7.405   9.953  12.998
91250SOL    HW175583   7.455   9.962  13.079
91250SOL    HW275584   7.458   9.999  12.933
91251SOL     OW75585  13.481  10.311   1.389
91251SOL    HW175586  13.410  10.271   1.439
91251SOL    HW275587  13.508  10.387   1.441
91252SOL     OW75588   2.484   4.446  11.253
91252SOL    HW175589   2.449   4.374  11.201
91252SOL    HW275590   2.443   4.524  11.216
91253SOL     OW75591  13.218   9.534   8.074
91253SOL    HW175592  13.289   9.544   8.010
91253SOL    HW275593  13.251   9.578   8.152
91254SOL     OW75594   8.245   0.657   6.386
91254SOL    HW175595   8.189   0.672   6.462
91254SOL    HW275596   8.252   0.742   6.344
91255SOL     OW75597   2.872  13.858   1.349
91255SOL    HW175598   2.914  13.794   1.292
91255SOL    HW275599   2.943  13.915   1.378
91256SOL     OW75600  13.446  10.603   0.811
91256SOL    HW175601  13.495  10.683   0.828
91256SOL    HW275602  13.354  10.626   0.827
91257SOL     OW75603   3.574   5.773   2.773
91257SOL    HW175604   3.540   5.839   2.713
91257SOL    HW275605   3.542   5.690   2.737
91258SOL     OW75606  10.517   9.534   5.597
91258SOL    HW175607  10.450   9.601   5.585
91258SOL    HW275608  10.470   9.451   5.588
91259SOL     OW75609   0.565   3.909  14.614
91259SOL    HW175610   0.557   3.875  14.703
91259SOL    HW275611   0.525   3.842  14.558
91260SOL     OW75612   0.992   5.716   1.453
91260SOL    HW175613   1.011   5.759   1.370
91260SOL    HW275614   1.018   5.779   1.520
91261SOL     OW75615   9.039   3.713   7.816
91261SOL    HW175616   9.038   3.687   7.909
91261SOL    HW275617   9.051   3.808   7.818
91262SOL     OW75618   0.983   6.416  10.624
91262SOL    HW175619   1.002   6.395  10.533
91262SOL    HW275620   0.915   6.484  10.619
91263SOL     OW75621  14.004   8.702   8.492
91263SOL    HW175622  13.954   8.777   8.461
91263SOL    HW275623  14.021   8.650   8.413
91264SOL     OW75624   6.509  10.417   1.844
91264SOL    HW175625   6.530  10.382   1.931
91264SOL    HW275626   6.432  10.368   1.816
91265SOL     OW75627   5.909  13.842   9.692
91265SOL    HW175628   5.927  13.907   9.760
91265SOL    HW275629   5.973  13.773   9.707
91266SOL     OW75630  10.161   9.465   8.597
91266SOL    HW175631  10.131   9.376   8.581
91266SOL    HW275632  10.179   9.468   8.691
91267SOL     OW75633   5.851  13.722  14.606
91267SOL    HW175634   5.922  13.786  14.599
91267SOL    HW275635   5.896  13.639  14.623
91268SOL     OW75636   4.204  12.114  13.388
91268SOL    HW175637   4.114  12.147  13.397
91268SOL    HW275638   4.221  12.069  13.471
91269SOL     OW75639   5.194  13.785   5.922
91269SOL    HW175640   5.227  13.874   5.912
91269SOL    HW275641   5.152  13.784   6.008
91270SOL     OW75642  11.390   7.721   3.403
91270SOL    HW175643  11.483   7.713   3.385
91270SOL    HW275644  11.363   7.799   3.355
91271SOL     OW75645   2.829   7.486   5.108
91271SOL    HW175646   2.788   7.530   5.182
91271SOL    HW275647   2.918   7.467   5.137
91272SOL     OW75648   1.169   0.561   4.340
91272SOL    HW175649   1.130   0.474   4.336
91272SOL    HW275650   1.246   0.556   4.283
91273SOL     OW75651  10.647   9.032  13.452
91273SOL    HW175652  10.692   8.993  13.377
91273SOL    HW275653  10.567   9.070  13.414
91274SOL     OW75654   3.411  13.982   1.387
91274SOL    HW175655   3.459  14.013   1.310
91274SOL    HW275656   3.375  14.062   1.427
91275SOL     OW75657   4.710   4.311   4.125
91275SOL    HW175658   4.694   4.304   4.031
91275SOL    HW275659   4.716   4.405   4.141
91276SOL     OW75660   6.798   4.811   8.153
91276SOL    HW175661   6.783   4.903   8.133
91276SOL    HW275662   6.735   4.764   8.098
91277SOL     OW75663   5.977   5.092   9.822
91277SOL    HW175664   5.978   4.996   9.822
91277SOL    HW275665   6.065   5.117   9.792
91278SOL     OW75666   4.187   8.635   0.811
91278SOL    HW175667   4.203   8.717   0.858
91278SOL    HW275668   4.190   8.660   0.718
91279SOL     OW75669  11.622   8.033   9.716
91279SOL    HW175670  11.639   7.986   9.798
91279SOL    HW275671  11.536   8.004   9.689
91280SOL     OW75672  14.430  14.564   1.568
91280SOL    HW175673  14.498  14.555   1.635
91280SOL    HW275674  14.350  14.532   1.612
91281SOL     OW75675   5.687   8.573  12.057
91281SOL    HW175676   5.657   8.485  12.078
91281SOL    HW275677   5.637   8.598  11.979
91282SOL     OW75678   1.394  11.871   0.717
91282SOL    HW175679   1.328  11.816   0.674
91282SOL    HW275680   1.461  11.810   0.745
91283SOL     OW75681   0.073   3.718   7.630
91283SOL    HW175682   0.107   3.799   7.669
91283SOL    HW275683   0.133   3.650   7.661
91284SOL     OW75684   6.769   3.213   8.739
91284SOL    HW175685   6.858   3.230   8.770
91284SOL    HW275686   6.780   3.191   8.646
91285SOL     OW75687   6.098   5.094   2.271
91285SOL    HW175688   6.015   5.066   2.311
91285SOL    HW275689   6.113   5.031   2.200
91286SOL     OW75690   2.055  12.686  10.790
91286SOL    HW175691   1.972  12.671  10.836
91286SOL    HW275692   2.122  12.665  10.854
91287SOL     OW75693   4.399  10.578   6.716
91287SOL    HW175694   4.408  10.669   6.688
91287SOL    HW275695   4.454  10.571   6.794
91288SOL     OW75696   1.309   3.851   8.616
91288SOL    HW175697   1.363   3.894   8.550
91288SOL    HW275698   1.248   3.919   8.646
91289SOL     OW75699  14.472  13.654  13.271
91289SOL    HW175700  14.446  13.740  13.306
91289SOL    HW275701  14.542  13.625  13.329
91290SOL     OW75702   5.657   5.358   6.485
91290SOL    HW175703   5.675   5.369   6.392
91290SOL    HW275704   5.682   5.268   6.504
91291SOL     OW75705  13.980   4.964   9.430
91291SOL    HW175706  14.073   4.977   9.410
91291SOL    HW275707  13.942   5.052   9.426
91292SOL     OW75708   6.917  10.553  11.292
91292SOL    HW175709   6.955  10.626  11.342
91292SOL    HW275710   6.984  10.532  11.227
91293SOL     OW75711   0.513   3.536  11.054
91293SOL    HW175712   0.586   3.496  11.007
91293SOL    HW275713   0.555   3.597  11.114
91294SOL     OW75714  14.619  12.761   1.197
91294SOL    HW175715  14.657  12.741   1.283
91294SOL    HW275716  14.642  12.853   1.181
91295SOL     OW75717   6.358  12.172   9.786
91295SOL    HW175718   6.266  12.148   9.797
91295SOL    HW275719   6.400  12.146   9.868
91296SOL     OW75720   8.381  13.349   5.790
91296SOL    HW175721   8.427  13.423   5.752
91296SOL    HW275722   8.321  13.389   5.854
91297SOL     OW75723   5.058   3.605  11.531
91297SOL    HW175724   4.989   3.667  11.554
91297SOL    HW275725   5.072   3.618  11.437
91298SOL     OW75726   4.473   6.314   8.204
91298SOL    HW175727   4.424   6.233   8.191
91298SOL    HW275728   4.466   6.332   8.298
91299SOL     OW75729   9.688   9.347   4.699
91299SOL    HW175730   9.662   9.344   4.792
91299SOL    HW275731   9.754   9.278   4.691
91300SOL     OW75732   3.648   1.942   2.967
91300SOL    HW175733   3.571   1.891   2.992
91300SOL    HW275734   3.632   2.030   3.002
91301SOL     OW75735   4.624   5.944   9.870
91301SOL    HW175736   4.548   6.000   9.888
91301SOL    HW275737   4.685   5.962   9.942
91302SOL     OW75738   4.580   5.607  13.141
91302SOL    HW175739   4.574   5.670  13.070
91302SOL    HW275740   4.490   5.581  13.159
91303SOL     OW75741  12.460  14.758   9.169
91303SOL    HW175742  12.420  14.711   9.096
91303SOL    HW275743  12.551  14.726   9.171
91304SOL     OW75744   8.116   2.642   3.654
91304SOL    HW175745   8.099   2.561   3.701
91304SOL    HW275746   8.092   2.711   3.715
91305SOL     OW75747   2.696   9.594   1.960
91305SOL    HW175748   2.679   9.533   2.032
91305SOL    HW275749   2.725   9.537   1.888
91306SOL     OW75750   2.694   7.038  13.295
91306SOL    HW175751   2.752   7.074  13.228
91306SOL    HW275752   2.680   6.947  13.267
91307SOL     OW75753   1.874  14.287   2.251
91307SOL    HW175754   1.937  14.334   2.197
91307SOL    HW275755   1.813  14.355   2.280
91308SOL     OW75756   4.493   7.900   0.378
91308SOL    HW175757   4.503   7.877   0.470
91308SOL    HW275758   4.577   7.937   0.352
91309SOL     OW75759   4.789   5.459   7.187
91309SOL    HW175760   4.761   5.540   7.145
91309SOL    HW275761   4.830   5.486   7.268
91310SOL     OW75762   5.407  12.864  14.458
91310SOL    HW175763   5.377  12.953  14.475
91310SOL    HW275764   5.363  12.811  14.524
91311SOL     OW75765   4.945   5.078   5.231
91311SOL    HW175766   4.925   5.142   5.300
91311SOL    HW275767   5.039   5.067   5.236
91312SOL     OW75768   2.023  11.233   4.823
91312SOL    HW175769   1.942  11.251   4.871
91312SOL    HW275770   2.039  11.140   4.838
91313SOL     OW75771   6.808  11.120  13.373
91313SOL    HW175772   6.810  11.102  13.279
91313SOL    HW275773   6.747  11.192  13.383
91314SOL     OW75774   1.981   4.609   8.028
91314SOL    HW175775   2.071   4.614   7.999
91314SOL    HW275776   1.982   4.547   8.101
91315SOL     OW75777   9.525   5.907   1.709
91315SOL    HW175778   9.595   5.963   1.677
91315SOL    HW275779   9.472   5.888   1.631
91316SOL     OW75780   5.604  12.951  14.309
91316SOL    HW175781   5.525  12.939  14.362
91316SOL    HW275782   5.572  12.978  14.223
91317SOL     OW75783   4.708  14.522   8.608
91317SOL    HW175784   4.677  14.611   8.593
91317SOL    HW275785   4.793  14.533   8.651
91318SOL     OW75786  10.269   3.393   1.311
91318SOL    HW175787  10.331   3.452   1.269
91318SOL    HW275788  10.225   3.447   1.377
91319SOL     OW75789   8.373   4.851  11.413
91319SOL    HW175790   8.385   4.943  11.438
91319SOL    HW275791   8.373   4.803  11.495
91320SOL     OW75792  11.364   5.564   9.557
91320SOL    HW175793  11.432   5.632   9.567
91320SOL    HW275794  11.292   5.595   9.612
91321SOL     OW75795   8.727   8.126   6.134
91321SOL    HW175796   8.696   8.164   6.052
91321SOL    HW275797   8.716   8.032   6.123
91322SOL     OW75798   5.069   4.118   6.294
91322SOL    HW175799   5.102   4.208   6.286
91322SOL    HW275800   5.075   4.100   6.388
91323SOL     OW75801   2.253  11.064  12.152
91323SOL    HW175802   2.314  11.113  12.097
91323SOL    HW275803   2.245  10.979  12.109
91324SOL     OW75804   3.307   3.316   9.148
91324SOL    HW175805   3.232   3.371   9.122
91324SOL    HW275806   3.376   3.340   9.087
91325SOL     OW75807   8.078   7.528  11.333
91325SOL    HW175808   7.999   7.546  11.282
91325SOL    HW275809   8.103   7.612  11.370
91326SOL     OW75810   8.519   0.108   0.349
91326SOL    HW175811   8.509   0.191   0.394
91326SOL    HW275812   8.478   0.043   0.407
91327SOL     OW75813   4.635   3.235  13.369
91327SOL    HW175814   4.611   3.310  13.423
91327SOL    HW275815   4.579   3.243  13.291
91328SOL     OW75816  10.536   8.544   1.506
91328SOL    HW175817  10.462   8.602   1.487
91328SOL    HW275818  10.611   8.584   1.461
91329SOL     OW75819   9.718   2.392   3.062
91329SOL    HW175820   9.770   2.318   3.030
91329SOL    HW275821   9.690   2.437   2.982
91330SOL     OW75822   3.404   0.546   9.237
91330SOL    HW175823   3.382   0.455   9.258
91330SOL    HW275824   3.393   0.593   9.320
91331SOL     OW75825  11.208   6.802  11.022
91331SOL    HW175826  11.174   6.880  11.066
91331SOL    HW275827  11.145   6.785  10.952
91332SOL     OW75828   1.338  13.257  11.783
91332SOL    HW175829   1.269  13.242  11.848
91332SOL    HW275830   1.315  13.341  11.743
91333SOL     OW75831  12.582   9.374  12.114
91333SOL    HW175832  12.663   9.409  12.077
91333SOL    HW275833  12.537   9.333  12.040
91334SOL     OW75834   4.142   1.523   2.787
91334SOL    HW175835   4.134   1.614   2.816
91334SOL    HW275836   4.234   1.501   2.802
91335SOL     OW75837   6.719  12.460   9.779
91335SOL    HW175838   6.727  12.434   9.871
91335SOL    HW275839   6.637  12.421   9.750
91336SOL     OW75840   9.510   6.209   2.131
91336SOL    HW175841   9.518   6.116   2.109
91336SOL    HW275842   9.499   6.252   2.046
91337SOL     OW75843   6.356   5.954   8.378
91337SOL    HW175844   6.300   6.029   8.360
91337SOL    HW275845   6.387   5.924   8.292
91338SOL     OW75846   1.507   3.055   1.097
91338SOL    HW175847   1.596   3.057   1.132
91338SOL    HW275848   1.462   2.989   1.149
91339SOL     OW75849  10.632   3.861  12.574
91339SOL    HW175850  10.709   3.916  12.588
91339SOL    HW275851  10.643   3.788  12.635
91340SOL     OW75852   9.871  14.274   2.336
91340SOL    HW175853   9.899  14.242   2.250
91340SOL    HW275854   9.781  14.303   2.322
91341SOL     OW75855   2.986   9.051   3.584
91341SOL    HW175856   2.986   8.972   3.531
91341SOL    HW275857   2.969   9.020   3.673
91342SOL     OW75858   3.166   1.687  11.835
91342SOL    HW175859   3.167   1.765  11.890
91342SOL    HW275860   3.087   1.696  11.782
91343SOL     OW75861  14.525   6.930   0.324
91343SOL    HW175862  14.620   6.937   0.336
91343SOL    HW275863  14.490   7.008   0.365
91344SOL     OW75864  14.738  10.526   7.364
91344SOL    HW175865  14.819  10.552   7.408
91344SOL    HW275866  14.736  10.430   7.372
91345SOL     OW75867   3.269   0.262  13.564
91345SOL    HW175868   3.313   0.199  13.507
91345SOL    HW275869   3.187   0.218  13.589
91346SOL     OW75870  11.977  11.812   8.547
91346SOL    HW175871  12.052  11.796   8.603
91346SOL    HW275872  11.912  11.852   8.606
91347SOL     OW75873  14.470   4.683  12.592
91347SOL    HW175874  14.494   4.601  12.635
91347SOL    HW275875  14.527   4.688  12.516
91348SOL     OW75876  12.788   3.656   4.498
91348SOL    HW175877  12.784   3.641   4.593
91348SOL    HW275878  12.783   3.568   4.460
91349SOL     OW75879  11.345   7.011   6.062
91349SOL    HW175880  11.294   7.083   6.024
91349SOL    HW275881  11.433   7.022   6.025
91350SOL     OW75882   5.576  10.920  13.757
91350SOL    HW175883   5.592  11.014  13.761
91350SOL    HW275884   5.514  10.909  13.685
91351SOL     OW75885   0.232  11.424   5.476
91351SOL    HW175886   0.269  11.373   5.404
91351SOL    HW275887   0.296  11.416   5.547
91352SOL     OW75888   5.391   4.023   4.123
91352SOL    HW175889   5.310   3.981   4.152
91352SOL    HW275890   5.366   4.113   4.102
91353SOL     OW75891  11.194   3.294   7.413
91353SOL    HW175892  11.246   3.357   7.363
91353SOL    HW275893  11.117   3.343   7.442
91354SOL     OW75894  11.938   9.400   8.743
91354SOL    HW175895  12.017   9.439   8.705
91354SOL    HW275896  11.881   9.384   8.668
91355SOL     OW75897  13.596  14.318   5.463
91355SOL    HW175898  13.618  14.307   5.556
91355SOL    HW275899  13.531  14.250   5.446
91356SOL     OW75900  11.264   4.701   5.263
91356SOL    HW175901  11.330   4.745   5.317
91356SOL    HW275902  11.258   4.613   5.300
91357SOL     OW75903   4.318  14.136  14.289
91357SOL    HW175904   4.316  14.101  14.378
91357SOL    HW275905   4.314  14.058  14.233
91358SOL     OW75906  13.005   8.902   7.590
91358SOL    HW175907  13.079   8.849   7.559
91358SOL    HW275908  12.972   8.853   7.666
91359SOL     OW75909   2.003  10.364   9.572
91359SOL    HW175910   1.942  10.391   9.640
91359SOL    HW275911   2.078  10.327   9.619
91360SOL     OW75912  11.067  14.062  11.148
91360SOL    HW175913  11.045  14.153  11.130
91360SOL    HW275914  11.155  14.051  11.111
91361SOL     OW75915   1.056   5.107   1.283
91361SOL    HW175916   1.050   5.047   1.357
91361SOL    HW275917   1.113   5.061   1.221
91362SOL     OW75918   6.190  13.801  10.284
91362SOL    HW175919   6.221  13.746  10.356
91362SOL    HW275920   6.159  13.881  10.326
91363SOL     OW75921   6.852   6.831  11.980
91363SOL    HW175922   6.781   6.832  11.916
91363SOL    HW275923   6.841   6.748  12.027
91364SOL     OW75924   4.942   4.155   5.795
91364SOL    HW175925   4.954   4.175   5.702
91364SOL    HW275926   4.957   4.238   5.840
91365SOL     OW75927  10.101   0.872   3.844
91365SOL    HW175928  10.059   0.790   3.872
91365SOL    HW275929  10.158   0.846   3.772
91366SOL     OW75930  12.521   2.751  12.972
91366SOL    HW175931  12.610   2.742  13.005
91366SOL    HW275932  12.465   2.725  13.045
91367SOL     OW75933   5.907   2.631   3.498
91367SOL    HW175934   5.957   2.620   3.417
91367SOL    HW275935   5.965   2.600   3.567
91368SOL     OW75936   9.688  14.875  10.784
91368SOL    HW175937   9.689   0.069  10.846
91368SOL    HW275938   9.700   0.036  10.698
91369SOL     OW75939   4.688   1.761  10.644
91369SOL    HW175940   4.617   1.754  10.581
91369SOL    HW275941   4.673   1.689  10.706
91370SOL     OW75942   5.461   2.050   3.955
91370SOL    HW175943   5.409   1.976   3.987
91370SOL    HW275944   5.398   2.122   3.950
91371SOL     OW75945   8.047   4.357   3.524
91371SOL    HW175946   7.954   4.361   3.547
91371SOL    HW275947   8.086   4.431   3.570
91372SOL     OW75948   1.866   1.453   9.537
91372SOL    HW175949   1.843   1.543   9.512
91372SOL    HW275950   1.825   1.442   9.623
91373SOL     OW75951  10.096  13.993   9.960
91373SOL    HW175952  10.073  14.048   9.884
91373SOL    HW275953  10.125  14.055  10.026
91374SOL     OW75954  12.945   8.549   9.628
91374SOL    HW175955  13.034   8.545   9.662
91374SOL    HW275956  12.894   8.494   9.688
91375SOL     OW75957   6.378   9.069  10.390
91375SOL    HW175958   6.447   9.018  10.433
91375SOL    HW275959   6.425   9.125  10.328
91376SOL     OW75960   2.017   2.879   2.963
91376SOL    HW175961   1.983   2.957   3.008
91376SOL    HW275962   1.939   2.835   2.930
91377SOL     OW75963  13.787   0.922   6.676
91377SOL    HW175964  13.694   0.905   6.661
91377SOL    HW275965  13.796   1.017   6.668
91378SOL     OW75966   1.108  12.764   4.539
91378SOL    HW175967   1.131  12.778   4.447
91378SOL    HW275968   1.021  12.804   4.547
91379SOL     OW75969  13.246   2.494  13.904
91379SOL    HW175970  13.233   2.419  13.962
91379SOL    HW275971  13.160   2.509  13.865
91380SOL     OW75972   2.366   5.040  14.172
91380SOL    HW175973   2.344   4.972  14.108
91380SOL    HW275974   2.331   5.008  14.255
91381SOL     OW75975   4.767  14.433  12.483
91381SOL    HW175976   4.835  14.403  12.424
91381SOL    HW275977   4.711  14.489  12.429
91382SOL     OW75978   7.650   8.944   9.749
91382SOL    HW175979   7.604   9.010   9.698
91382SOL    HW275980   7.726   8.920   9.696
91383SOL     OW75981   1.365  14.267   8.805
91383SOL    HW175982   1.305  14.318   8.751
91383SOL    HW275983   1.452  14.286   8.768
91384SOL     OW75984   4.780  11.593   4.153
91384SOL    HW175985   4.749  11.511   4.191
91384SOL    HW275986   4.875  11.587   4.156
91385SOL     OW75987   4.960   8.052  13.833
91385SOL    HW175988   4.959   7.982  13.768
91385SOL    HW275989   4.984   8.007  13.915
91386SOL     OW75990   8.880  11.087   3.961
91386SOL    HW175991   8.839  11.156   3.907
91386SOL    HW275992   8.974  11.101   3.950
91387SOL     OW75993  11.587  10.931   2.029
91387SOL    HW175994  11.582  11.001   1.964
91387SOL    HW275995  11.556  10.971   2.110
91388SOL     OW75996  11.871   7.928   9.003
91388SOL    HW175997  11.852   7.991   9.073
91388SOL    HW275998  11.960   7.949   8.974
91389SOL     OW75999  12.392   8.643   8.253
91389SOL    HW176000  12.332   8.600   8.192
91389SOL    HW276001  12.342   8.650   8.335
91390SOL     OW76002   2.346   7.754   4.086
91390SOL    HW176003   2.303   7.833   4.119
91390SOL    HW276004   2.358   7.772   3.992
91391SOL     OW76005   0.932  10.632   9.898
91391SOL    HW176006   0.852  10.670   9.933
91391SOL    HW276007   0.913  10.614   9.806
91392SOL     OW76008   9.824  12.147   2.305
91392SOL    HW176009   9.733  12.119   2.303
91392SOL    HW276010   9.822  12.230   2.352
91393SOL     OW76011   1.382   7.629  13.421
91393SOL    HW176012   1.386   7.652  13.329
91393SOL    HW276013   1.356   7.709  13.466
91394SOL     OW76014   4.391   2.022  11.979
91394SOL    HW176015   4.354   2.030  11.891
91394SOL    HW276016   4.403   2.112  12.008
91395SOL     OW76017   8.128  13.431  10.107
91395SOL    HW176018   8.043  13.417  10.066
91395SOL    HW276019   8.178  13.482  10.044
91396SOL     OW76020  10.112   5.158   9.527
91396SOL    HW176021  10.179   5.223   9.547
91396SOL    HW276022  10.085   5.179   9.438
91397SOL     OW76023  14.804   7.908   1.062
91397SOL    HW176024  14.827   7.956   0.983
91397SOL    HW276025  14.733   7.959   1.101
91398SOL     OW76026  14.438   0.941   4.474
91398SOL    HW176027  14.469   1.011   4.417
91398SOL    HW276028  14.443   0.978   4.562
91399SOL     OW76029   5.459   2.813   1.396
91399SOL    HW176030   5.496   2.725   1.386
91399SOL    HW276031   5.367   2.804   1.372
91400SOL     OW76032   1.281   2.654   2.562
91400SOL    HW176033   1.299   2.626   2.472
91400SOL    HW276034   1.186   2.650   2.570
91401SOL     OW76035  10.295   5.178   5.062
91401SOL    HW176036  10.282   5.085   5.047
91401SOL    HW276037  10.380   5.184   5.107
91402SOL     OW76038   2.462   4.464  13.399
91402SOL    HW176039   2.521   4.521  13.449
91402SOL    HW276040   2.471   4.493  13.309
91403SOL     OW76041  10.603  10.687  13.241
91403SOL    HW176042  10.555  10.652  13.167
91403SOL    HW276043  10.548  10.758  13.275
91404SOL     OW76044  10.188  10.191   7.464
91404SOL    HW176045  10.164  10.160   7.551
91404SOL    HW276046  10.276  10.156   7.450
91405SOL     OW76047   9.732   6.177   0.252
91405SOL    HW176048   9.784   6.241   0.204
91405SOL    HW276049   9.773   6.173   0.339
91406SOL     OW76050   7.878   7.126   8.112
91406SOL    HW176051   7.931   7.073   8.171
91406SOL    HW276052   7.809   7.162   8.168
91407SOL     OW76053  10.199   6.803   9.695
91407SOL    HW176054  10.135   6.837   9.758
91407SOL    HW276055  10.147   6.760   9.628
91408SOL     OW76056   5.905  13.031   4.921
91408SOL    HW176057   5.903  13.055   4.828
91408SOL    HW276058   5.899  13.114   4.967
91409SOL     OW76059   1.729   0.864   7.599
91409SOL    HW176060   1.648   0.838   7.557
91409SOL    HW276061   1.719   0.835   7.690
91410SOL     OW76062  14.010  12.289   9.287
91410SOL    HW176063  14.052  12.219   9.337
91410SOL    HW276064  13.956  12.242   9.223
91411SOL     OW76065  13.252   3.629   5.463
91411SOL    HW176066  13.217   3.571   5.396
91411SOL    HW276067  13.248   3.578   5.544
91412SOL     OW76068   1.662   6.689  14.568
91412SOL    HW176069   1.595   6.752  14.540
91412SOL    HW276070   1.737   6.744  14.591
91413SOL     OW76071  12.455   5.310  12.061
91413SOL    HW176072  12.431   5.398  12.092
91413SOL    HW276073  12.470   5.260  12.141
91414SOL     OW76074   4.991   0.590   4.089
91414SOL    HW176075   4.900   0.617   4.098
91414SOL    HW276076   4.990   0.526   4.017
91415SOL     OW76077   0.471   4.058   6.622
91415SOL    HW176078   0.539   4.000   6.587
91415SOL    HW276079   0.401   4.054   6.557
91416SOL     OW76080   5.657  10.128   3.765
91416SOL    HW176081   5.630  10.104   3.853
91416SOL    HW276082   5.588  10.187   3.734
91417SOL     OW76083   9.177   2.356   0.447
91417SOL    HW176084   9.183   2.378   0.354
91417SOL    HW276085   9.244   2.289   0.461
91418SOL     OW76086  13.686  13.763   7.371
91418SOL    HW176087  13.700  13.704   7.297
91418SOL    HW276088  13.772  13.797   7.392
91419SOL     OW76089   5.460   2.772   0.543
91419SOL    HW176090   5.435   2.705   0.607
91419SOL    HW276091   5.377   2.807   0.510
91420SOL     OW76092  10.426  10.370   2.028
91420SOL    HW176093  10.362  10.416   2.082
91420SOL    HW276094  10.504  10.362   2.083
91421SOL     OW76095  12.293   8.180  10.269
91421SOL    HW176096  12.251   8.260  10.300
91421SOL    HW276097  12.222   8.128  10.231
91422SOL     OW76098   0.453  10.574  10.981
91422SOL    HW176099   0.479  10.579  10.889
91422SOL    HW276100   0.490  10.492  11.012
91423SOL     OW76101   1.969   7.913   0.440
91423SOL    HW176102   1.910   7.979   0.404
91423SOL    HW276103   1.980   7.939   0.532
91424SOL     OW76104   9.549  12.983  12.252
91424SOL    HW176105   9.477  12.927  12.223
91424SOL    HW276106   9.519  13.072  12.233
91425SOL     OW76107  12.253   8.017  14.383
91425SOL    HW176108  12.196   8.091  14.403
91425SOL    HW276109  12.288   8.036  14.296
91426SOL     OW76110  14.869  10.439  11.442
91426SOL    HW176111   0.073  10.409  11.404
91426SOL    HW276112  14.833  10.498  11.377
91427SOL     OW76113  14.225   5.285   3.276
91427SOL    HW176114  14.254   5.299   3.367
91427SOL    HW276115  14.277   5.210   3.246
91428SOL     OW76116   2.989   8.462  12.412
91428SOL    HW176117   3.076   8.438  12.444
91428SOL    HW276118   2.937   8.477  12.491
91429SOL     OW76119  14.821   4.943  12.359
91429SOL    HW176120  14.866   5.026  12.373
91429SOL    HW276121  14.732   4.958  12.392
91430SOL     OW76122  14.014   6.638   1.570
91430SOL    HW176123  13.953   6.623   1.498
91430SOL    HW276124  14.063   6.556   1.576
91431SOL     OW76125   2.499   1.347  11.535
91431SOL    HW176126   2.450   1.422  11.504
91431SOL    HW276127   2.547   1.378  11.612
91432SOL     OW76128   7.791  10.822   7.516
91432SOL    HW176129   7.776  10.802   7.424
91432SOL    HW276130   7.782  10.738   7.561
91433SOL     OW76131   3.651   2.465  14.699
91433SOL    HW176132   3.616   2.502  14.780
91433SOL    HW276133   3.728   2.416  14.727
91434SOL     OW76134   7.590  14.299   7.846
91434SOL    HW176135   7.663  14.361   7.848
91434SOL    HW276136   7.578  14.273   7.937
91435SOL     OW76137   4.684  10.271   3.121
91435SOL    HW176138   4.600  10.231   3.097
91435SOL    HW276139   4.742  10.197   3.137
91436SOL     OW76140   7.272   2.122   9.855
91436SOL    HW176141   7.292   2.187   9.788
91436SOL    HW276142   7.177   2.126   9.865
91437SOL     OW76143   5.185   7.974   9.598
91437SOL    HW176144   5.193   8.068   9.618
91437SOL    HW276145   5.188   7.932   9.684
91438SOL     OW76146  13.396   6.238  13.938
91438SOL    HW176147  13.385   6.159  13.991
91438SOL    HW276148  13.484   6.269  13.959
91439SOL     OW76149   9.546   7.264  12.549
91439SOL    HW176150   9.638   7.286  12.539
91439SOL    HW276151   9.499   7.341  12.518
91440SOL     OW76152   7.160   0.169   0.636
91440SOL    HW176153   7.148   0.246   0.581
91440SOL    HW276154   7.149   0.201   0.725
91441SOL     OW76155   2.467   7.520   5.438
91441SOL    HW176156   2.440   7.545   5.350
91441SOL    HW276157   2.472   7.603   5.486
91442SOL     OW76158   3.012   1.715  10.113
91442SOL    HW176159   3.041   1.665  10.189
91442SOL    HW276160   2.988   1.649  10.048
91443SOL     OW76161  11.260   8.946   7.450
91443SOL    HW176162  11.324   8.883   7.484
91443SOL    HW276163  11.304   8.986   7.374
91444SOL     OW76164   5.495   3.685  12.894
91444SOL    HW176165   5.507   3.744  12.969
91444SOL    HW276166   5.583   3.650  12.878
91445SOL     OW76167   7.497   0.948  12.752
91445SOL    HW176168   7.586   0.921  12.728
91445SOL    HW276169   7.462   0.874  12.802
91446SOL     OW76170  10.017  13.702  10.458
91446SOL    HW176171   9.961  13.745  10.394
91446SOL    HW276172   9.958  13.674  10.528
91447SOL     OW76173   5.402   0.314   4.124
91447SOL    HW176174   5.359   0.384   4.074
91447SOL    HW276175   5.460   0.361   4.184
91448SOL     OW76176   7.811  11.601   7.158
91448SOL    HW176177   7.853  11.616   7.243
91448SOL    HW276178   7.780  11.510   7.162
91449SOL     OW76179  11.099   7.588   6.362
91449SOL    HW176180  11.111   7.681   6.343
91449SOL    HW276181  11.046   7.555   6.288
91450SOL     OW76182   5.213   9.985   4.066
91450SOL    HW176183   5.288   9.946   4.020
91450SOL    HW276184   5.201   9.929   4.143
91451SOL     OW76185   9.456   6.432   1.049
91451SOL    HW176186   9.431   6.371   1.119
91451SOL    HW276187   9.473   6.515   1.094
91452SOL     OW76188  10.688  11.097   4.388
91452SOL    HW176189  10.711  11.095   4.296
91452SOL    HW276190  10.618  11.032   4.397
91453SOL     OW76191  13.615  13.520   0.247
91453SOL    HW176192  13.650  13.437   0.281
91453SOL    HW276193  13.526  13.499   0.220
91454SOL     OW76194   5.835  10.436   6.949
91454SOL    HW176195   5.825  10.516   7.000
91454SOL    HW276196   5.929  10.418   6.951
91455SOL     OW76197  11.859   3.455  13.162
91455SOL    HW176198  11.848   3.391  13.092
91455SOL    HW276199  11.857   3.404  13.242
91456SOL     OW76200   3.891  13.263  10.619
91456SOL    HW176201   3.952  13.327  10.656
91456SOL    HW276202   3.880  13.291  10.528
91457SOL     OW76203   8.410  11.624   5.789
91457SOL    HW176204   8.462  11.697   5.821
91457SOL    HW276205   8.412  11.560   5.861
91458SOL     OW76206   2.527   1.669   6.924
91458SOL    HW176207   2.433   1.655   6.913
91458SOL    HW276208   2.568   1.610   6.861
91459SOL     OW76209   1.746   8.180  11.028
91459SOL    HW176210   1.754   8.272  11.003
91459SOL    HW276211   1.776   8.177  11.119
91460SOL     OW76212   6.649   6.624  10.974
91460SOL    HW176213   6.727   6.575  10.998
91460SOL    HW276214   6.679   6.686  10.907
91461SOL     OW76215   9.656   5.918  10.824
91461SOL    HW176216   9.700   5.844  10.782
91461SOL    HW276217   9.585   5.878  10.874
91462SOL     OW76218  11.331  13.924   1.722
91462SOL    HW176219  11.290  13.874   1.792
91462SOL    HW276220  11.297  13.884   1.641
91463SOL     OW76221   2.094   3.151   2.079
91463SOL    HW176222   2.055   3.233   2.109
91463SOL    HW276223   2.100   3.097   2.158
91464SOL     OW76224  10.156   9.982  13.186
91464SOL    HW176225  10.236  10.030  13.206
91464SOL    HW276226  10.109   9.977  13.269
91465SOL     OW76227   3.522   6.143   9.434
91465SOL    HW176228   3.559   6.148   9.522
91465SOL    HW276229   3.582   6.086   9.386
91466SOL     OW76230   1.103   0.642   1.506
91466SOL    HW176231   1.060   0.592   1.575
91466SOL    HW276232   1.178   0.682   1.550
91467SOL     OW76233   5.448  12.770   3.135
91467SOL    HW176234   5.424  12.750   3.225
91467SOL    HW276235   5.513  12.840   3.142
91468SOL     OW76236   4.645   7.846   8.836
91468SOL    HW176237   4.557   7.884   8.830
91468SOL    HW276238   4.689   7.875   8.756
91469SOL     OW76239   0.646   7.986   0.117
91469SOL    HW176240   0.560   7.990   0.159
91469SOL    HW276241   0.697   7.927   0.173
91470SOL     OW76242   2.749  12.039   2.162
91470SOL    HW176243   2.760  12.131   2.138
91470SOL    HW276244   2.661  12.016   2.133
91471SOL     OW76245  10.212   8.926   6.212
91471SOL    HW176246  10.266   8.978   6.152
91471SOL    HW276247  10.188   8.987   6.282
91472SOL     OW76248   8.836   1.530   5.504
91472SOL    HW176249   8.845   1.513   5.410
91472SOL    HW276250   8.926   1.540   5.535
91473SOL     OW76251  13.609   0.020   4.910
91473SOL    HW176252  13.531   0.037   4.857
91473SOL    HW276253  13.631   0.105   4.949
91474SOL     OW76254  10.988  12.279   3.089
91474SOL    HW176255  10.989  12.240   3.002
91474SOL    HW276256  10.901  12.317   3.098
91475SOL     OW76257   1.911   6.697  13.466
91475SOL    HW176258   1.944   6.617  13.507
91475SOL    HW276259   1.827   6.713  13.509
91476SOL     OW76260  13.557   6.533   9.965
91476SOL    HW176261  13.589   6.467   9.903
91476SOL    HW276262  13.473   6.499   9.995
91477SOL     OW76263   6.802  13.115   1.908
91477SOL    HW176264   6.792  13.059   1.985
91477SOL    HW276265   6.895  13.138   1.908
91478SOL     OW76266   8.623  11.651   6.043
91478SOL    HW176267   8.704  11.610   6.014
91478SOL    HW276268   8.554  11.589   6.020
91479SOL     OW76269  11.476  13.192  12.957
91479SOL    HW176270  11.518  13.190  13.043
91479SOL    HW276271  11.545  13.167  12.895
91480SOL     OW76272   2.354   2.146  14.300
91480SOL    HW176273   2.425   2.151  14.364
91480SOL    HW276274   2.399   2.147  14.215
91481SOL     OW76275   2.959   4.326   2.712
91481SOL    HW176276   2.866   4.326   2.687
91481SOL    HW276277   2.993   4.408   2.676
91482SOL     OW76278  10.002  10.646  11.914
91482SOL    HW176279  10.078  10.596  11.945
91482SOL    HW276280   9.942  10.579  11.880
91483SOL     OW76281   6.360   9.714   2.778
91483SOL    HW176282   6.302   9.719   2.854
91483SOL    HW276283   6.350   9.624   2.747
91484SOL     OW76284   9.898   0.189  12.638
91484SOL    HW176285   9.926   0.221  12.724
91484SOL    HW276286   9.850   0.262  12.599
91485SOL     OW76287   2.247   6.719  13.287
91485SOL    HW176288   2.264   6.796  13.232
91485SOL    HW276289   2.200   6.753  13.363
91486SOL     OW76290  14.582   3.019   4.981
91486SOL    HW176291  14.667   3.033   4.938
91486SOL    HW276292  14.524   3.083   4.940
91487SOL     OW76293   0.315   3.573   3.781
91487SOL    HW176294   0.403   3.611   3.784
91487SOL    HW276295   0.321   3.503   3.716
91488SOL     OW76296  13.476   2.121   6.626
91488SOL    HW176297  13.403   2.077   6.670
91488SOL    HW276298  13.442   2.142   6.539
91489SOL     OW76299   1.877  10.494   8.025
91489SOL    HW176300   1.796  10.518   7.979
91489SOL    HW276301   1.855  10.499   8.118
91490SOL     OW76302   0.863   1.388   2.047
91490SOL    HW176303   0.896   1.395   2.137
91490SOL    HW276304   0.826   1.475   2.029
91491SOL     OW76305   0.977   4.462   6.659
91491SOL    HW176306   0.989   4.533   6.723
91491SOL    HW276307   0.891   4.426   6.679
91492SOL     OW76308   6.165  13.604   4.142
91492SOL    HW176309   6.109  13.536   4.180
91492SOL    HW276310   6.252  13.564   4.138
91493SOL     OW76311   1.914   8.055   9.183
91493SOL    HW176312   1.842   8.117   9.171
91493SOL    HW276313   1.875   7.984   9.234
91494SOL     OW76314   6.603   7.849   7.221
91494SOL    HW176315   6.647   7.922   7.178
91494SOL    HW276316   6.514   7.882   7.238
91495SOL     OW76317   1.606  11.344  14.241
91495SOL    HW176318   1.552  11.415  14.277
91495SOL    HW276319   1.597  11.354  14.146
91496SOL     OW76320   8.699   9.473  13.255
91496SOL    HW176321   8.776   9.515  13.292
91496SOL    HW276322   8.730   9.385  13.230
91497SOL     OW76323   1.082  14.418  10.190
91497SOL    HW176324   1.021  14.484  10.156
91497SOL    HW276325   1.027  14.346  10.219
91498SOL     OW76326  12.160  12.050   7.272
91498SOL    HW176327  12.174  12.014   7.184
91498SOL    HW276328  12.131  12.140   7.257
91499SOL     OW76329  12.804   3.268   1.881
91499SOL    HW176330  12.713   3.297   1.892
91499SOL    HW276331  12.827   3.229   1.964
91500SOL     OW76332  11.004   6.245  14.670
91500SOL    HW176333  11.010   6.337  14.645
91500SOL    HW276334  11.052   6.198  14.601
91501SOL     OW76335   9.103   3.418   2.203
91501SOL    HW176336   9.075   3.410   2.294
91501SOL    HW276337   9.022   3.424   2.153
91502SOL     OW76338   6.460  11.427  11.211
91502SOL    HW176339   6.542  11.404  11.254
91502SOL    HW276340   6.392  11.391  11.268
91503SOL     OW76341   6.098   8.017  14.750
91503SOL    HW176342   6.098   7.986  14.840
91503SOL    HW276343   6.075   7.940  14.698
91504SOL     OW76344   0.815   3.888   0.155
91504SOL    HW176345   0.804   3.851   0.068
91504SOL    HW276346   0.894   3.847   0.189
91505SOL     OW76347   7.145  11.047  12.393
91505SOL    HW176348   7.068  10.992  12.376
91505SOL    HW276349   7.219  10.986  12.387
91506SOL     OW76350   5.009  13.652  13.146
91506SOL    HW176351   4.994  13.628  13.055
91506SOL    HW276352   5.070  13.587  13.179
91507SOL     OW76353   4.048   2.457  11.224
91507SOL    HW176354   4.005   2.542  11.237
91507SOL    HW276355   4.004   2.419  11.148
91508SOL     OW76356   0.357  12.199   0.090
91508SOL    HW176357   0.285  12.186   0.152
91508SOL    HW276358   0.337  12.283   0.048
91509SOL     OW76359   6.023   5.461  12.706
91509SOL    HW176360   6.077   5.382  12.707
91509SOL    HW276361   5.935   5.429  12.726
91510SOL     OW76362  13.138   7.703  12.754
91510SOL    HW176363  13.206   7.745  12.807
91510SOL    HW276364  13.061   7.759  12.765
91511SOL     OW76365   9.760   8.388  14.670
91511SOL    HW176366   9.781   8.299  14.643
91511SOL    HW276367   9.844   8.425  14.698
91512SOL     OW76368   2.775  10.581  10.295
91512SOL    HW176369   2.841  10.650  10.306
91512SOL    HW276370   2.824  10.504  10.268
91513SOL     OW76371   3.191   2.931  11.264
91513SOL    HW176372   3.224   3.019  11.247
91513SOL    HW276373   3.240   2.902  11.342
91514SOL     OW76374  11.700   4.068   4.048
91514SOL    HW176375  11.745   4.092   3.967
91514SOL    HW276376  11.742   3.986   4.075
91515SOL     OW76377  12.985  10.063   9.714
91515SOL    HW176378  13.033  10.033   9.791
91515SOL    HW276379  13.052  10.103   9.658
91516SOL     OW76380   5.127   8.640   6.964
91516SOL    HW176381   5.217   8.608   6.972
91516SOL    HW276382   5.133   8.714   6.903
91517SOL     OW76383  14.097  14.269  11.718
91517SOL    HW176384  14.143  14.208  11.775
91517SOL    HW276385  14.127  14.247  11.630
91518SOL     OW76386  10.454  10.261   5.932
91518SOL    HW176387  10.481  10.352   5.917
91518SOL    HW276388  10.380  10.248   5.873
91519SOL     OW76389   5.276   9.442   7.918
91519SOL    HW176390   5.211   9.406   7.858
91519SOL    HW276391   5.272   9.537   7.905
91520SOL     OW76392  14.163   2.419  13.017
91520SOL    HW176393  14.226   2.351  13.040
91520SOL    HW276394  14.101   2.376  12.957
91521SOL     OW76395   1.490  13.247   3.173
91521SOL    HW176396   1.418  13.311   3.167
91521SOL    HW276397   1.545  13.267   3.097
91522SOL     OW76398  13.566  10.339   2.333
91522SOL    HW176399  13.570  10.375   2.245
91522SOL    HW276400  13.623  10.396   2.385
91523SOL     OW76401   5.781  12.403   7.564
91523SOL    HW176402   5.729  12.446   7.632
91523SOL    HW276403   5.846  12.468   7.539
91524SOL     OW76404   4.785   1.559  11.264
91524SOL    HW176405   4.802   1.567  11.358
91524SOL    HW276406   4.802   1.467  11.244
91525SOL     OW76407  13.803  13.239   2.415
91525SOL    HW176408  13.895  13.238   2.391
91525SOL    HW276409  13.758  13.197   2.341
91526SOL     OW76410   0.424  13.905  12.141
91526SOL    HW176411   0.489  13.961  12.182
91526SOL    HW276412   0.373  13.870  12.215
91527SOL     OW76413   3.257   7.847  13.728
91527SOL    HW176414   3.293   7.886  13.807
91527SOL    HW276415   3.298   7.761  13.723
91528SOL     OW76416   6.704   1.309  14.249
91528SOL    HW176417   6.797   1.328  14.237
91528SOL    HW276418   6.664   1.327  14.163
91529SOL     OW76419   2.390  10.507   0.011
91529SOL    HW176420   2.470  10.476  14.848
91529SOL    HW276421   2.361  10.580  14.835
91530SOL     OW76422   4.524   7.299   2.680
91530SOL    HW176423   4.582   7.256   2.616
91530SOL    HW276424   4.572   7.377   2.707
91531SOL     OW76425   9.165   3.526  11.327
91531SOL    HW176426   9.243   3.576  11.353
91531SOL    HW276427   9.179   3.504  11.235
91532SOL     OW76428  10.011   2.217  11.375
91532SOL    HW176429   9.939   2.174  11.328
91532SOL    HW276430   9.967   2.276  11.437
91533SOL     OW76431  13.656  12.462   0.791
91533SOL    HW176432  13.644  12.373   0.759
91533SOL    HW276433  13.568  12.489   0.819
91534SOL     OW76434  14.861   2.720   4.592
91534SOL    HW176435  14.876   2.695   4.501
91534SOL    HW276436  14.766   2.726   4.601
91535SOL     OW76437   7.540   8.508   0.024
91535SOL    HW176438   7.604   8.452  14.858
91535SOL    HW276439   7.584   8.593   0.031
91536SOL     OW76440   2.900   6.953  11.610
91536SOL    HW176441   2.923   7.025  11.669
91536SOL    HW276442   2.929   6.984  11.524
91537SOL     OW76443   3.104   0.615  13.466
91537SOL    HW176444   3.048   0.646  13.396
91537SOL    HW276445   3.188   0.659  13.452
91538SOL     OW76446   2.507  13.144  12.896
91538SOL    HW176447   2.498  13.126  12.803
91538SOL    HW276448   2.427  13.108  12.935
91539SOL     OW76449   4.647   1.788  13.861
91539SOL    HW176450   4.679   1.866  13.906
91539SOL    HW276451   4.724   1.756  13.812
91540SOL     OW76452  10.173   4.326  14.356
91540SOL    HW176453  10.213   4.331  14.270
91540SOL    HW276454  10.187   4.412  14.395
91541SOL     OW76455   3.625  10.541   3.100
91541SOL    HW176456   3.657  10.546   3.010
91541SOL    HW276457   3.597  10.630   3.120
91542SOL     OW76458  12.577   8.086  11.803
91542SOL    HW176459  12.618   8.084  11.889
91542SOL    HW276460  12.644   8.052  11.743
91543SOL     OW76461  10.920  10.907   6.073
91543SOL    HW176462  10.916  10.997   6.041
91543SOL    HW276463  11.002  10.904   6.123
91544SOL     OW76464   0.006  12.513   1.610
91544SOL    HW176465  14.814  12.450   1.625
91544SOL    HW276466   0.045  12.486   1.527
91545SOL     OW76467   1.327   5.291  13.102
91545SOL    HW176468   1.254   5.312  13.044
91545SOL    HW276469   1.404   5.321  13.055
91546SOL     OW76470   3.015   0.636   3.457
91546SOL    HW176471   2.990   0.569   3.522
91546SOL    HW276472   3.097   0.672   3.490
91547SOL     OW76473   3.326  10.930  10.684
91547SOL    HW176474   3.413  10.961  10.656
91547SOL    HW276475   3.341  10.889  10.769
91548SOL     OW76476   9.461   7.337  11.820
91548SOL    HW176477   9.488   7.247  11.802
91548SOL    HW276478   9.388   7.327  11.881
91549SOL     OW76479   0.308   9.105  12.313
91549SOL    HW176480   0.355   9.061  12.385
91549SOL    HW276481   0.350   9.190  12.306
91550SOL     OW76482  10.030   1.371   4.860
91550SOL    HW176483   9.937   1.377   4.882
91550SOL    HW276484  10.034   1.390   4.767
91551SOL     OW76485  14.150   7.279  10.604
91551SOL    HW176486  14.060   7.271  10.636
91551SOL    HW276487  14.204   7.259  10.681
91552SOL     OW76488  13.200   3.989   0.130
91552SOL    HW176489  13.254   3.910   0.136
91552SOL    HW276490  13.115   3.962   0.166
91553SOL     OW76491   8.445   3.403   9.848
91553SOL    HW176492   8.403   3.462   9.911
91553SOL    HW276493   8.525   3.449   9.822
91554SOL     OW76494   5.474   0.786  12.742
91554SOL    HW176495   5.392   0.791  12.692
91554SOL    HW276496   5.531   0.849  12.698
91555SOL     OW76497   0.342   7.445  14.151
91555SOL    HW176498   0.433   7.451  14.123
91555SOL    HW276499   0.332   7.516  14.215
91556SOL     OW76500  11.082   6.858   2.541
91556SOL    HW176501  11.073   6.943   2.584
91556SOL    HW276502  11.010   6.856   2.477
91557SOL     OW76503   3.861   8.268  11.628
91557SOL    HW176504   3.902   8.239  11.709
91557SOL    HW276505   3.770   8.287  11.651
91558SOL     OW76506   2.018   7.006   4.583
91558SOL    HW176507   2.024   7.000   4.678
91558SOL    HW276508   2.105   6.979   4.552
91559SOL     OW76509   8.204  14.769   7.344
91559SOL    HW176510   8.194  14.704   7.274
91559SOL    HW276511   8.252  14.723   7.413
91560SOL     OW76512   8.459  11.368   5.280
91560SOL    HW176513   8.390  11.423   5.319
91560SOL    HW276514   8.491  11.315   5.353
91561SOL     OW76515   9.011   9.863   9.252
91561SOL    HW176516   9.075   9.837   9.318
91561SOL    HW276517   9.051   9.838   9.168
91562SOL     OW76518   2.267  13.083   9.295
91562SOL    HW176519   2.220  13.047   9.370
91562SOL    HW276520   2.312  13.160   9.330
91563SOL     OW76521   8.924  12.137   4.491
91563SOL    HW176522   8.882  12.211   4.449
91563SOL    HW276523   8.892  12.060   4.443
91564SOL     OW76524  11.756   3.179   5.949
91564SOL    HW176525  11.778   3.088   5.932
91564SOL    HW276526  11.702   3.205   5.875
91565SOL     OW76527   2.930  13.810   3.159
91565SOL    HW176528   2.851  13.858   3.132
91565SOL    HW276529   2.900  13.756   3.233
91566SOL     OW76530   2.619  13.185  14.611
91566SOL    HW176531   2.621  13.092  14.589
91566SOL    HW276532   2.701  13.200  14.657
91567SOL     OW76533   7.163   6.422  11.400
91567SOL    HW176534   7.114   6.340  11.409
91567SOL    HW276535   7.197   6.420  11.311
91568SOL     OW76536   5.335   5.474  10.686
91568SOL    HW176537   5.412   5.510  10.730
91568SOL    HW276538   5.339   5.511  10.598
91569SOL     OW76539   3.772   0.773  10.287
91569SOL    HW176540   3.858   0.736  10.309
91569SOL    HW276541   3.766   0.762  10.192
91570SOL     OW76542   2.841  13.180   2.321
91570SOL    HW176543   2.899  13.106   2.308
91570SOL    HW276544   2.883  13.233   2.388
91571SOL     OW76545   6.485   2.120   8.086
91571SOL    HW176546   6.429   2.047   8.059
91571SOL    HW276547   6.434   2.198   8.067
91572SOL     OW76548  11.881   0.545   8.200
91572SOL    HW176549  11.942   0.558   8.272
91572SOL    HW276550  11.794   0.543   8.241
91573SOL     OW76551  13.062  11.248  10.446
91573SOL    HW176552  13.077  11.305  10.370
91573SOL    HW276553  12.982  11.283  10.486
91574SOL     OW76554   9.174   4.276   9.884
91574SOL    HW176555   9.219   4.270   9.801
91574SOL    HW276556   9.206   4.357   9.924
91575SOL     OW76557   4.103  10.429   2.697
91575SOL    HW176558   4.101  10.385   2.782
91575SOL    HW276559   4.022  10.402   2.654
91576SOL     OW76560  10.450  12.523   9.347
91576SOL    HW176561  10.368  12.528   9.395
91576SOL    HW276562  10.517  12.511   9.415
91577SOL     OW76563  10.301   5.494   4.159
91577SOL    HW176564  10.293   5.536   4.244
91577SOL    HW276565  10.248   5.549   4.100
91578SOL     OW76566   0.900   4.140   9.835
91578SOL    HW176567   0.916   4.187   9.753
91578SOL    HW276568   0.806   4.118   9.832
91579SOL     OW76569   7.864   6.842  13.949
91579SOL    HW176570   7.866   6.817  13.857
91579SOL    HW276571   7.899   6.932  13.950
91580SOL     OW76572   3.996   2.073  10.447
91580SOL    HW176573   4.079   2.082  10.400
91580SOL    HW276574   4.020   2.036  10.532
91581SOL     OW76575   1.666   1.568   0.877
91581SOL    HW176576   1.615   1.601   0.951
91581SOL    HW276577   1.703   1.645   0.835
91582SOL     OW76578   2.006   5.950   6.869
91582SOL    HW176579   1.973   6.018   6.809
91582SOL    HW276580   1.929   5.898   6.891
91583SOL     OW76581   8.366   8.483  13.936
91583SOL    HW176582   8.337   8.407  13.987
91583SOL    HW276583   8.461   8.486  13.950
91584SOL     OW76584  11.515  12.624   8.230
91584SOL    HW176585  11.565  12.542   8.224
91584SOL    HW276586  11.582  12.693   8.225
91585SOL     OW76587   5.443   7.461   5.474
91585SOL    HW176588   5.355   7.484   5.445
91585SOL    HW276589   5.501   7.507   5.414
91586SOL     OW76590   6.179   4.944  13.292
91586SOL    HW176591   6.100   4.891  13.289
91586SOL    HW276592   6.148   5.032  13.310
91587SOL     OW76593   4.199   9.527   1.671
91587SOL    HW176594   4.150   9.534   1.753
91587SOL    HW276595   4.250   9.446   1.681
91588SOL     OW76596   0.309   9.950  14.153
91588SOL    HW176597   0.396   9.954  14.113
91588SOL    HW276598   0.255  10.008  14.099
91589SOL     OW76599   7.278  11.141   8.382
91589SOL    HW176600   7.190  11.110   8.361
91589SOL    HW276601   7.329  11.122   8.303
91590SOL     OW76602   8.257  13.457   3.095
91590SOL    HW176603   8.297  13.543   3.110
91590SOL    HW276604   8.327  13.404   3.056
91591SOL     OW76605   1.572  13.037   7.558
91591SOL    HW176606   1.521  13.103   7.604
91591SOL    HW276607   1.661  13.072   7.557
91592SOL     OW76608   9.087   3.872  12.853
91592SOL    HW176609   9.016   3.934  12.862
91592SOL    HW276610   9.072   3.807  12.921
91593SOL     OW76611   7.820   3.728   3.280
91593SOL    HW176612   7.747   3.668   3.293
91593SOL    HW276613   7.781   3.815   3.291
91594SOL     OW76614   6.465  12.381   1.348
91594SOL    HW176615   6.498  12.462   1.388
91594SOL    HW276616   6.531  12.359   1.281
91595SOL     OW76617   3.212  12.783   4.229
91595SOL    HW176618   3.241  12.696   4.204
91595SOL    HW276619   3.237  12.791   4.321
91596SOL     OW76620   6.895   2.326   6.243
91596SOL    HW176621   6.847   2.250   6.278
91596SOL    HW276622   6.939   2.364   6.319
91597SOL     OW76623   2.917  10.180   7.348
91597SOL    HW176624   2.870  10.238   7.288
91597SOL    HW276625   2.955  10.238   7.413
91598SOL     OW76626  11.358   2.509   9.775
91598SOL    HW176627  11.311   2.586   9.806
91598SOL    HW276628  11.445   2.542   9.750
91599SOL     OW76629   0.478   6.935  14.518
91599SOL    HW176630   0.550   6.976  14.469
91599SOL    HW276631   0.406   6.931  14.455
91600SOL     OW76632   7.824   0.882   9.765
91600SOL    HW176633   7.833   0.895   9.859
91600SOL    HW276634   7.784   0.963   9.734
91601SOL     OW76635   2.361   1.016   6.434
91601SOL    HW176636   2.436   0.986   6.485
91601SOL    HW276637   2.394   1.026   6.345
91602SOL     OW76638   6.776  13.327   4.769
91602SOL    HW176639   6.812  13.299   4.685
91602SOL    HW276640   6.853  13.340   4.825
91603SOL     OW76641   2.781  11.296   5.028
91603SOL    HW176642   2.747  11.207   5.018
91603SOL    HW276643   2.706  11.353   5.010
91604SOL     OW76644  10.625   4.263   1.496
91604SOL    HW176645  10.559   4.311   1.546
91604SOL    HW276646  10.669   4.209   1.561
91605SOL     OW76647   1.261   7.531  10.923
91605SOL    HW176648   1.214   7.447  10.921
91605SOL    HW276649   1.205   7.588  10.976
91606SOL     OW76650  14.398  12.397  11.898
91606SOL    HW176651  14.338  12.462  11.936
91606SOL    HW276652  14.484  12.421  11.933
91607SOL     OW76653   3.076   7.555   1.916
91607SOL    HW176654   3.157   7.594   1.948
91607SOL    HW276655   3.010   7.580   1.981
91608SOL     OW76656   1.122   1.602   1.558
91608SOL    HW176657   1.065   1.586   1.633
91608SOL    HW276658   1.162   1.517   1.540
91609SOL     OW76659   3.081  11.468   9.193
91609SOL    HW176660   3.136  11.412   9.138
91609SOL    HW276661   2.997  11.470   9.147
91610SOL     OW76662   2.998  12.203   0.245
91610SOL    HW176663   3.020  12.143   0.174
91610SOL    HW276664   2.903  12.207   0.245
91611SOL     OW76665   3.767  12.069   9.992
91611SOL    HW176666   3.785  12.100   9.903
91611SOL    HW276667   3.741  12.147  10.040
91612SOL     OW76668   5.095   5.615   4.359
91612SOL    HW176669   5.121   5.593   4.448
91612SOL    HW276670   5.173   5.654   4.320
91613SOL     OW76671  11.383   1.865  10.340
91613SOL    HW176672  11.473   1.881  10.367
91613SOL    HW276673  11.330   1.913  10.404
91614SOL     OW76674   0.272   2.817   5.950
91614SOL    HW176675   0.253   2.889   6.011
91614SOL    HW276676   0.367   2.816   5.943
91615SOL     OW76677  12.943  10.639  14.399
91615SOL    HW176678  13.035  10.633  14.373
91615SOL    HW276679  12.895  10.635  14.316
91616SOL     OW76680   7.522   0.748  13.818
91616SOL    HW176681   7.542   0.727  13.727
91616SOL    HW276682   7.563   0.678  13.869
91617SOL     OW76683   0.096   3.333  12.927
91617SOL    HW176684   0.122   3.425  12.937
91617SOL    HW276685   0.097   3.318  12.833
91618SOL     OW76686   4.504   8.710   4.876
91618SOL    HW176687   4.431   8.712   4.938
91618SOL    HW276688   4.467   8.672   4.796
91619SOL     OW76689   3.027   4.534   8.083
91619SOL    HW176690   2.958   4.499   8.027
91619SOL    HW276691   3.048   4.619   8.045
91620SOL     OW76692   0.210  10.175  11.609
91620SOL    HW176693   0.213  10.081  11.591
91620SOL    HW276694   0.185  10.215  11.526
91621SOL     OW76695   1.810   6.477  10.400
91621SOL    HW176696   1.864   6.555  10.385
91621SOL    HW276697   1.850   6.409  10.347
91622SOL     OW76698   7.691   6.776  10.102
91622SOL    HW176699   7.698   6.751  10.194
91622SOL    HW276700   7.605   6.816  10.093
91623SOL     OW76701   3.769   3.577  13.080
91623SOL    HW176702   3.716   3.498  13.093
91623SOL    HW276703   3.835   3.573  13.149
91624SOL     OW76704  12.659  14.809   8.938
91624SOL    HW176705  12.651   0.021   8.965
91624SOL    HW276706  12.679  14.761   9.019
91625SOL     OW76707   0.219  14.468   2.429
91625SOL    HW176708   0.142  14.413   2.439
91625SOL    HW276709   0.189  14.556   2.453
91626SOL     OW76710  13.420   1.987   2.617
91626SOL    HW176711  13.436   1.896   2.643
91626SOL    HW276712  13.416   2.035   2.700
91627SOL     OW76713   1.911   8.502   1.064
91627SOL    HW176714   1.885   8.594   1.067
91627SOL    HW276715   1.861   8.465   0.992
91628SOL     OW76716  13.846   0.551   7.869
91628SOL    HW176717  13.920   0.579   7.814
91628SOL    HW276718  13.877   0.564   7.959
91629SOL     OW76719  11.314   9.579   8.755
91629SOL    HW176720  11.353   9.603   8.671
91629SOL    HW276721  11.296   9.485   8.746
91630SOL     OW76722   3.467   4.655   0.272
91630SOL    HW176723   3.444   4.695   0.356
91630SOL    HW276724   3.495   4.567   0.293
91631SOL     OW76725  12.445   9.656   1.584
91631SOL    HW176726  12.469   9.596   1.514
91631SOL    HW276727  12.352   9.674   1.570
91632SOL     OW76728   6.406   1.518  12.794
91632SOL    HW176729   6.437   1.468  12.719
91632SOL    HW276730   6.334   1.570  12.759
91633SOL     OW76731  10.648  14.126  13.478
91633SOL    HW176732  10.701  14.196  13.440
91633SOL    HW276733  10.681  14.046  13.436
91634SOL     OW76734   7.614  12.043   4.998
91634SOL    HW176735   7.522  12.014   4.994
91634SOL    HW276736   7.660  11.986   4.937
91635SOL     OW76737  12.175   1.454  11.429
91635SOL    HW176738  12.169   1.510  11.352
91635SOL    HW276739  12.178   1.515  11.503
91636SOL     OW76740  11.935   8.063  11.233
91636SOL    HW176741  11.943   8.156  11.215
91636SOL    HW276742  11.916   8.058  11.327
91637SOL     OW76743  12.810   7.567  12.015
91637SOL    HW176744  12.786   7.643  12.069
91637SOL    HW276745  12.759   7.495  12.052
91638SOL     OW76746  11.107   5.643  11.243
91638SOL    HW176747  11.143   5.731  11.252
91638SOL    HW276748  11.119   5.622  11.151
91639SOL     OW76749   6.712  10.645   7.789
91639SOL    HW176750   6.754  10.668   7.706
91639SOL    HW276751   6.769  10.579   7.827
91640SOL     OW76752  13.382   5.769  12.146
91640SOL    HW176753  13.385   5.698  12.082
91640SOL    HW276754  13.296   5.808  12.134
91641SOL     OW76755  13.752   9.106  12.376
91641SOL    HW176756  13.746   9.017  12.341
91641SOL    HW276757  13.760   9.161  12.298
91642SOL     OW76758  12.067   9.017   7.483
91642SOL    HW176759  12.118   8.941   7.453
91642SOL    HW276760  11.989   8.979   7.523
91643SOL     OW76761  11.054   2.530   2.211
91643SOL    HW176762  10.977   2.490   2.250
91643SOL    HW276763  11.030   2.543   2.119
91644SOL     OW76764   5.083  11.382   4.372
91644SOL    HW176765   5.178  11.388   4.376
91644SOL    HW276766   5.060  11.316   4.438
91645SOL     OW76767   7.089   9.800  10.350
91645SOL    HW176768   7.106   9.709  10.329
91645SOL    HW276769   7.124   9.850  10.276
91646SOL     OW76770   4.651   2.962   6.815
91646SOL    HW176771   4.666   2.867   6.819
91646SOL    HW276772   4.663   2.991   6.905
91647SOL     OW76773   6.683  11.614  12.382
91647SOL    HW176774   6.728  11.647  12.459
91647SOL    HW276775   6.750  11.565  12.334
91648SOL     OW76776  11.844   7.910   8.432
91648SOL    HW176777  11.899   7.833   8.440
91648SOL    HW276778  11.832   7.941   8.522
91649SOL     OW76779  13.097   3.370   7.311
91649SOL    HW176780  13.025   3.317   7.346
91649SOL    HW276781  13.099   3.350   7.218
91650SOL     OW76782   6.349  13.179  14.163
91650SOL    HW176783   6.261  13.215  14.171
91650SOL    HW276784   6.393  13.206  14.244
91651SOL     OW76785  12.228   4.794   5.174
91651SOL    HW176786  12.207   4.751   5.091
91651SOL    HW276787  12.312   4.836   5.158
91652SOL     OW76788   9.209  10.198  10.458
91652SOL    HW176789   9.206  10.163  10.370
91652SOL    HW276790   9.133  10.161  10.502
91653SOL     OW76791   9.446  12.825  10.862
91653SOL    HW176792   9.482  12.738  10.847
91653SOL    HW276793   9.352  12.816  10.843
91654SOL     OW76794  14.806  13.315   1.772
91654SOL    HW176795  14.735  13.368   1.809
91654SOL    HW276796   0.002  13.374   1.769
91655SOL     OW76797  10.856   0.531   3.582
91655SOL    HW176798  10.935   0.481   3.564
91655SOL    HW276799  10.884   0.598   3.644
91656SOL     OW76800  14.657   5.183   4.204
91656SOL    HW176801  14.716   5.255   4.179
91656SOL    HW276802  14.643   5.196   4.298
91657SOL     OW76803   1.092   2.325  12.710
91657SOL    HW176804   1.183   2.304  12.734
91657SOL    HW276805   1.100   2.382  12.633
91658SOL     OW76806   9.683   9.568   2.713
91658SOL    HW176807   9.720   9.656   2.715
91658SOL    HW276808   9.627   9.564   2.791
91659SOL     OW76809   2.552   7.798   0.222
91659SOL    HW176810   2.493   7.744   0.170
91659SOL    HW276811   2.638   7.784   0.182
91660SOL     OW76812   0.344   6.003  12.718
91660SOL    HW176813   0.410   6.055  12.671
91660SOL    HW276814   0.284   6.068  12.755
91661SOL     OW76815  11.666   2.707  12.902
91661SOL    HW176816  11.676   2.635  12.964
91661SOL    HW276817  11.579   2.744  12.920
91662SOL     OW76818  12.273   4.742  11.093
91662SOL    HW176819  12.270   4.830  11.056
91662SOL    HW276820  12.335   4.695  11.037
91663SOL     OW76821   4.669  11.124  13.944
91663SOL    HW176822   4.613  11.093  14.015
91663SOL    HW276823   4.712  11.045  13.911
91664SOL     OW76824   1.237   5.922   2.691
91664SOL    HW176825   1.300   5.861   2.653
91664SOL    HW276826   1.152   5.891   2.661
91665SOL     OW76827  11.661   5.302   5.670
91665SOL    HW176828  11.754   5.287   5.651
91665SOL    HW276829  11.617   5.225   5.634
91666SOL     OW76830  11.869  12.953  11.200
91666SOL    HW176831  11.775  12.959  11.215
91666SOL    HW276832  11.906  12.927  11.285
91667SOL     OW76833   4.109  11.324  11.083
91667SOL    HW176834   4.139  11.405  11.124
91667SOL    HW276835   4.111  11.342  10.989
91668SOL     OW76836   1.715  14.039   1.678
91668SOL    HW176837   1.747  13.984   1.750
91668SOL    HW276838   1.633  13.997   1.651
91669SOL     OW76839   0.145   8.327   7.245
91669SOL    HW176840   0.089   8.397   7.209
91669SOL    HW276841   0.180   8.283   7.168
91670SOL     OW76842  13.226   3.490   1.506
91670SOL    HW176843  13.193   3.400   1.509
91670SOL    HW276844  13.249   3.510   1.597
91671SOL     OW76845  14.788  10.405  10.984
91671SOL    HW176846  14.777  10.335  10.920
91671SOL    HW276847  14.871  10.447  10.960
91672SOL     OW76848   1.082   5.215   3.900
91672SOL    HW176849   1.110   5.128   3.871
91672SOL    HW276850   1.007   5.198   3.957
91673SOL     OW76851   9.610  13.891  11.881
91673SOL    HW176852   9.609  13.980  11.918
91673SOL    HW276853   9.606  13.834  11.958
91674SOL     OW76854  10.244  10.886   1.997
91674SOL    HW176855  10.329  10.852   1.967
91674SOL    HW276856  10.190  10.807   2.010
91675SOL     OW76857  13.646  10.791  10.811
91675SOL    HW176858  13.675  10.823  10.726
91675SOL    HW276859  13.664  10.697  10.809
91676SOL     OW76860  10.422  14.424   2.125
91676SOL    HW176861  10.397  14.514   2.143
91676SOL    HW276862  10.422  14.381   2.211
91677SOL     OW76863   5.392   1.650   8.624
91677SOL    HW176864   5.323   1.597   8.664
91677SOL    HW276865   5.384   1.634   8.530
91678SOL     OW76866  10.524  13.613  11.918
91678SOL    HW176867  10.594  13.588  11.979
91678SOL    HW276868  10.564  13.675  11.858
91679SOL     OW76869   3.999   1.388  11.354
91679SOL    HW176870   3.910   1.397  11.390
91679SOL    HW276871   4.005   1.457  11.288
91680SOL     OW76872  13.969   8.538   2.486
91680SOL    HW176873  13.933   8.449   2.480
91680SOL    HW276874  14.047   8.536   2.431
91681SOL     OW76875   0.394   4.409   2.445
91681SOL    HW176876   0.312   4.383   2.402
91681SOL    HW276877   0.374   4.402   2.539
91682SOL     OW76878   1.720   1.151   5.300
91682SOL    HW176879   1.807   1.189   5.300
91682SOL    HW276880   1.735   1.057   5.312
91683SOL     OW76881   8.076   8.293   7.662
91683SOL    HW176882   8.065   8.281   7.567
91683SOL    HW276883   7.994   8.260   7.700
91684SOL     OW76884  10.090   7.279   3.145
91684SOL    HW176885  10.146   7.221   3.093
91684SOL    HW276886  10.093   7.362   3.099
91685SOL     OW76887   6.155   3.127   5.040
91685SOL    HW176888   6.178   3.071   5.114
91685SOL    HW276889   6.117   3.068   4.976
91686SOL     OW76890  11.700  11.989   1.187
91686SOL    HW176891  11.688  11.960   1.277
91686SOL    HW276892  11.778  11.942   1.157
91687SOL     OW76893   2.995  11.479   5.053
91687SOL    HW176894   2.949  11.557   5.083
91687SOL    HW276895   2.933  11.408   5.068
91688SOL     OW76896  10.888   4.027   1.464
91688SOL    HW176897  10.890   3.932   1.473
91688SOL    HW276898  10.957   4.046   1.400
91689SOL     OW76899   1.987   2.686  10.780
91689SOL    HW176900   1.941   2.713  10.700
91689SOL    HW276901   1.970   2.756  10.842
91690SOL     OW76902   5.060   9.198   1.789
91690SOL    HW176903   5.060   9.131   1.720
91690SOL    HW276904   4.976   9.185   1.834
91691SOL     OW76905   7.163   3.400  13.675
91691SOL    HW176906   7.214   3.350  13.739
91691SOL    HW276907   7.222   3.413  13.601
91692SOL     OW76908  14.664   2.942  14.860
91692SOL    HW176909  14.725   2.871  14.879
91692SOL    HW276910  14.715   3.005  14.810
91693SOL     OW76911   2.377  13.864  14.258
91693SOL    HW176912   2.447  13.908  14.305
91693SOL    HW276913   2.297  13.904  14.292
91694SOL     OW76914   2.066   6.041   1.151
91694SOL    HW176915   2.022   5.998   1.225
91694SOL    HW276916   2.116   6.111   1.191
91695SOL     OW76917   2.941  14.808   4.335
91695SOL    HW176918   2.916  14.805   4.242
91695SOL    HW276919   2.876  14.864   4.376
91696SOL     OW76920   4.134   6.312   8.007
91696SOL    HW176921   4.129   6.401   7.971
91696SOL    HW276922   4.090   6.319   8.092
91697SOL     OW76923   6.834  13.980  14.684
91697SOL    HW176924   6.787  13.898  14.670
91697SOL    HW276925   6.765  14.043  14.706
91698SOL     OW76926  13.065   1.872   1.742
91698SOL    HW176927  12.993   1.849   1.683
91698SOL    HW276928  13.039   1.957   1.779
91699SOL     OW76929   7.393   8.635  14.122
91699SOL    HW176930   7.381   8.614  14.215
91699SOL    HW276931   7.468   8.694  14.121
91700SOL     OW76932  10.701  11.515  14.596
91700SOL    HW176933  10.682  11.473  14.680
91700SOL    HW276934  10.758  11.588  14.618
91701SOL     OW76935   6.033   3.707   0.746
91701SOL    HW176936   5.965   3.756   0.793
91701SOL    HW276937   6.109   3.766   0.748
91702SOL     OW76938  10.877   2.071   9.414
91702SOL    HW176939  10.846   2.017   9.487
91702SOL    HW276940  10.875   2.012   9.339
91703SOL     OW76941  14.675   3.477  13.258
91703SOL    HW176942  14.621   3.550  13.229
91703SOL    HW276943  14.714   3.506  13.340
91704SOL     OW76944   3.628  11.881  13.193
91704SOL    HW176945   3.692  11.929  13.140
91704SOL    HW276946   3.598  11.811  13.136
91705SOL     OW76947  12.563  14.363  12.507
91705SOL    HW176948  12.610  14.394  12.584
91705SOL    HW276949  12.624  14.378  12.435
91706SOL     OW76950  10.011   2.803   3.365
91706SOL    HW176951  10.081   2.740   3.347
91706SOL    HW276952  10.005   2.804   3.460
91707SOL     OW76953   1.392   7.769   5.950
91707SOL    HW176954   1.329   7.697   5.947
91707SOL    HW276955   1.432   7.769   5.863
91708SOL     OW76956   1.637  12.843  12.827
91708SOL    HW176957   1.649  12.932  12.860
91708SOL    HW276958   1.639  12.787  12.905
91709SOL     OW76959  13.316   7.342  13.899
91709SOL    HW176960  13.241   7.299  13.858
91709SOL    HW276961  13.391   7.313  13.848
91710SOL     OW76962   5.331   8.219   9.891
91710SOL    HW176963   5.281   8.213   9.810
91710SOL    HW276964   5.379   8.302   9.884
91711SOL     OW76965  10.030   2.168   4.301
91711SOL    HW176966  10.035   2.142   4.393
91711SOL    HW276967   9.945   2.135   4.271
91712SOL     OW76968   1.536   6.942   3.868
91712SOL    HW176969   1.629   6.920   3.876
91712SOL    HW276970   1.509   6.900   3.786
91713SOL     OW76971  11.417  13.042   6.397
91713SOL    HW176972  11.512  13.040   6.386
91713SOL    HW276973  11.386  12.964   6.352
91714SOL     OW76974   8.672  12.333   7.613
91714SOL    HW176975   8.583  12.299   7.603
91714SOL    HW276976   8.728  12.262   7.582
91715SOL     OW76977   0.712  11.240  14.844
91715SOL    HW176978   0.707  11.258  14.750
91715SOL    HW276979   0.794  11.279  14.871
91716SOL     OW76980  14.720  13.296   0.090
91716SOL    HW176981  14.731  13.238   0.165
91716SOL    HW276982  14.761  13.249   0.018
91717SOL     OW76983  11.705   2.127   9.875
91717SOL    HW176984  11.796   2.111   9.850
91717SOL    HW276985  11.659   2.137   9.791
91718SOL     OW76986   4.256   2.635   4.834
91718SOL    HW176987   4.241   2.548   4.871
91718SOL    HW276988   4.168   2.669   4.817
91719SOL     OW76989   4.211   4.869   9.419
91719SOL    HW176990   4.234   4.869   9.326
91719SOL    HW276991   4.142   4.934   9.426
91720SOL     OW76992   2.282  14.646   8.750
91720SOL    HW176993   2.345  14.684   8.689
91720SOL    HW276994   2.225  14.719   8.775
91721SOL     OW76995   7.682   6.160  11.258
91721SOL    HW176996   7.728   6.083  11.291
91721SOL    HW276997   7.642   6.130  11.176
91722SOL     OW76998   7.825   6.307  12.866
91722SOL    HW176999   7.775   6.288  12.787
91722SOL    HW277000   7.772   6.370  12.914
91723SOL     OW77001  12.023   2.170  14.662
91723SOL    HW177002  12.005   2.108  14.592
91723SOL    HW277003  12.016   2.119  14.743
91724SOL     OW77004   4.657   8.119   3.011
91724SOL    HW177005   4.689   8.043   3.059
91724SOL    HW277006   4.637   8.085   2.924
91725SOL     OW77007   2.126  13.018  12.657
91725SOL    HW177008   2.141  12.953  12.588
91725SOL    HW277009   2.166  13.098  12.623
91726SOL     OW77010   9.413  14.321  10.806
91726SOL    HW177011   9.417  14.348  10.898
91726SOL    HW277012   9.333  14.362  10.772
91727SOL     OW77013   3.725   0.060  12.983
91727SOL    HW177014   3.756  14.874  13.048
91727SOL    HW277015   3.806   0.094  12.944
91728SOL     OW77016   6.637   8.565   1.526
91728SOL    HW177017   6.653   8.617   1.604
91728SOL    HW277018   6.662   8.622   1.453
91729SOL     OW77019   2.855   5.641   9.259
91729SOL    HW177020   2.805   5.586   9.319
91729SOL    HW277021   2.876   5.583   9.186
91730SOL     OW77022   3.739  13.328  11.530
91730SOL    HW177023   3.818  13.282  11.559
91730SOL    HW277024   3.668  13.286  11.579
91731SOL     OW77025   7.822   1.296   4.760
91731SOL    HW177026   7.885   1.304   4.831
91731SOL    HW277027   7.853   1.222   4.708
91732SOL     OW77028   9.710  12.737   4.243
91732SOL    HW177029   9.660  12.660   4.216
91732SOL    HW277030   9.683  12.752   4.334
91733SOL     OW77031   0.546   8.055   5.174
91733SOL    HW177032   0.552   8.140   5.131
91733SOL    HW277033   0.454   8.030   5.166
91734SOL     OW77034  13.973  12.482  12.032
91734SOL    HW177035  13.892  12.513  12.072
91734SOL    HW277036  13.987  12.395  12.069
91735SOL     OW77037  14.672  12.683   7.056
91735SOL    HW177038  14.706  12.639   7.134
91735SOL    HW277039  14.620  12.755   7.090
91736SOL     OW77040  13.502  11.028  10.684
91736SOL    HW177041  13.507  10.939  10.649
91736SOL    HW277042  13.426  11.067  10.641
91737SOL     OW77043   2.541   9.406  12.416
91737SOL    HW177044   2.571   9.422  12.505
91737SOL    HW277045   2.547   9.311  12.405
91738SOL     OW77046   3.357  12.997   7.547
91738SOL    HW177047   3.340  12.907   7.519
91738SOL    HW277048   3.335  13.050   7.470
91739SOL     OW77049  10.377  10.412  13.297
91739SOL    HW177050  10.342  10.335  13.252
91739SOL    HW277051  10.300  10.459  13.328
91740SOL     OW77052  13.761   1.797   0.272
91740SOL    HW177053  13.836   1.848   0.242
91740SOL    HW277054  13.694   1.811   0.205
91741SOL     OW77055  11.439   9.972   7.185
91741SOL    HW177056  11.423  10.066   7.196
91741SOL    HW277057  11.415   9.933   7.269
91742SOL     OW77058  10.048   1.204   2.471
91742SOL    HW177059  10.136   1.170   2.489
91742SOL    HW277060  10.004   1.133   2.424
91743SOL     OW77061   8.340   3.238   8.768
91743SOL    HW177062   8.282   3.163   8.779
91743SOL    HW277063   8.370   3.258   8.857
91744SOL     OW77064   9.550   4.051  10.568
91744SOL    HW177065   9.536   4.028  10.476
91744SOL    HW277066   9.467   4.091  10.595
91745SOL     OW77067   5.392   9.943   3.329
91745SOL    HW177068   5.485   9.929   3.345
91745SOL    HW277069   5.380  10.038   3.340
91746SOL     OW77070   8.596  14.801   8.133
91746SOL    HW177071   8.625  14.809   8.042
91746SOL    HW277072   8.662  14.745   8.174
91747SOL     OW77073   9.100   5.197   5.661
91747SOL    HW177074   9.171   5.134   5.648
91747SOL    HW277075   9.144   5.282   5.668
91748SOL     OW77076   4.968   9.494   2.485
91748SOL    HW177077   4.959   9.407   2.447
91748SOL    HW277078   4.885   9.510   2.529
91749SOL     OW77079   1.992   9.701   2.223
91749SOL    HW177080   2.024   9.639   2.157
91749SOL    HW277081   2.043   9.780   2.208
91750SOL     OW77082   2.780   2.673  11.202
91750SOL    HW177083   2.875   2.675  11.209
91750SOL    HW277084   2.751   2.752  11.246
91751SOL     OW77085  13.756   0.154   6.223
91751SOL    HW177086  13.710   0.202   6.292
91751SOL    HW277087  13.690   0.137   6.156
91752SOL     OW77088  13.498   3.391  14.541
91752SOL    HW177089  13.418   3.444  14.539
91752SOL    HW277090  13.543   3.414  14.460
91753SOL     OW77091   3.976  14.044   6.241
91753SOL    HW177092   4.023  14.118   6.204
91753SOL    HW277093   3.884  14.070   6.238
91754SOL     OW77094   3.062   6.698   9.830
91754SOL    HW177095   3.116   6.627   9.866
91754SOL    HW277096   3.055   6.678   9.737
91755SOL     OW77097   5.174   7.004  13.253
91755SOL    HW177098   5.094   7.051  13.231
91755SOL    HW277099   5.145   6.919  13.285
91756SOL     OW77100   2.497   4.669   2.851
91756SOL    HW177101   2.461   4.638   2.934
91756SOL    HW277102   2.430   4.648   2.786
91757SOL     OW77103   6.095  12.566   7.082
91757SOL    HW177104   6.073  12.624   7.155
91757SOL    HW277105   6.082  12.619   7.004
91758SOL     OW77106  13.793  11.565   4.499
91758SOL    HW177107  13.818  11.505   4.429
91758SOL    HW277108  13.780  11.649   4.455
91759SOL     OW77109   4.526   6.348  14.563
91759SOL    HW177110   4.589   6.314  14.499
91759SOL    HW277111   4.499   6.433  14.527
91760SOL     OW77112   5.419  10.287  10.295
91760SOL    HW177113   5.381  10.278  10.383
91760SOL    HW277114   5.484  10.217  10.289
91761SOL     OW77115   5.847  12.853   3.825
91761SOL    HW177116   5.756  12.837   3.798
91761SOL    HW277117   5.864  12.944   3.800
91762SOL     OW77118  12.117   1.024   5.035
91762SOL    HW177119  12.054   0.999   4.967
91762SOL    HW277120  12.182   1.078   4.989
91763SOL     OW77121  14.027   8.174   5.124
91763SOL    HW177122  14.039   8.237   5.053
91763SOL    HW277123  14.115   8.139   5.140
91764SOL     OW77124  11.375  12.668   3.469
91764SOL    HW177125  11.437  12.727   3.511
91764SOL    HW277126  11.301  12.724   3.443
91765SOL     OW77127   1.825   8.866   7.230
91765SOL    HW177128   1.904   8.916   7.248
91765SOL    HW277129   1.784   8.911   7.156
91766SOL     OW77130  10.342   0.829   4.372
91766SOL    HW177131  10.403   0.826   4.298
91766SOL    HW277132  10.274   0.766   4.349
91767SOL     OW77133  13.112   4.800   7.339
91767SOL    HW177134  13.185   4.812   7.279
91767SOL    HW277135  13.153   4.785   7.424
91768SOL     OW77136   3.935   0.478   0.736
91768SOL    HW177137   3.946   0.510   0.646
91768SOL    HW277138   3.929   0.558   0.788
91769SOL     OW77139   6.426   0.424   7.691
91769SOL    HW177140   6.381   0.469   7.762
91769SOL    HW277141   6.379   0.341   7.681
91770SOL     OW77142  14.674   1.192  12.806
91770SOL    HW177143  14.683   1.249  12.883
91770SOL    HW277144  14.707   1.107  12.835
91771SOL     OW77145  10.280  14.433   6.815
91771SOL    HW177146  10.357  14.377   6.815
91771SOL    HW277147  10.275  14.467   6.725
91772SOL     OW77148   5.617   6.621   8.148
91772SOL    HW177149   5.564   6.683   8.196
91772SOL    HW277150   5.559   6.546   8.133
91773SOL     OW77151   5.106   8.132  14.212
91773SOL    HW177152   5.155   8.200  14.166
91773SOL    HW277153   5.047   8.180  14.270
91774SOL     OW77154   8.840   2.991  12.196
91774SOL    HW177155   8.864   3.011  12.287
91774SOL    HW277156   8.844   3.075  12.151
91775SOL     OW77157  12.119  13.355  11.899
91775SOL    HW177158  12.030  13.320  11.909
91775SOL    HW277159  12.151  13.314  11.818
91776SOL     OW77160   0.537  13.196   7.939
91776SOL    HW177161   0.467  13.179   7.875
91776SOL    HW277162   0.524  13.287   7.965
91777SOL     OW77163   2.060  11.457   9.458
91777SOL    HW177164   2.090  11.394   9.392
91777SOL    HW277165   2.130  11.457   9.524
91778SOL     OW77166  10.646  11.130   9.491
91778SOL    HW177167  10.688  11.141   9.405
91778SOL    HW277168  10.719  11.127   9.553
91779SOL     OW77169   3.941   1.942  10.974
91779SOL    HW177170   3.894   1.893  11.042
91779SOL    HW277171   4.033   1.915  10.984
91780SOL     OW77172   1.509   2.492  10.347
91780SOL    HW177173   1.440   2.550  10.380
91780SOL    HW277174   1.462   2.424  10.299
91781SOL     OW77175   7.239   0.974  12.632
91781SOL    HW177176   7.322   0.979  12.680
91781SOL    HW277177   7.222   1.064  12.604
91782SOL     OW77178  12.272  12.186   3.905
91782SOL    HW177179  12.321  12.104   3.916
91782SOL    HW277180  12.222  12.195   3.986
91783SOL     OW77181   8.555   0.682   1.849
91783SOL    HW177182   8.518   0.611   1.901
91783SOL    HW277183   8.482   0.743   1.837
91784SOL     OW77184  12.536   2.712   9.073
91784SOL    HW177185  12.513   2.706   9.165
91784SOL    HW277186  12.528   2.805   9.052
91785SOL     OW77187   1.718   9.187   1.045
91785SOL    HW177188   1.758   9.212   0.962
91785SOL    HW277189   1.648   9.252   1.058
91786SOL     OW77190   2.213  14.101   7.928
91786SOL    HW177191   2.265  14.180   7.939
91786SOL    HW277192   2.267  14.044   7.874
91787SOL     OW77193  14.102  13.273  12.509
91787SOL    HW177194  14.084  13.332  12.583
91787SOL    HW277195  14.166  13.211  12.544
91788SOL     OW77196   9.244   9.483  11.901
91788SOL    HW177197   9.159   9.516  11.872
91788SOL    HW277198   9.308   9.538  11.856
91789SOL     OW77199  10.151   4.806   2.182
91789SOL    HW177200  10.086   4.786   2.114
91789SOL    HW277201  10.166   4.900   2.174
91790SOL     OW77202  12.579  14.112  14.268
91790SOL    HW177203  12.569  14.068  14.184
91790SOL    HW277204  12.549  14.201  14.253
91791SOL     OW77205   2.826   2.432   8.363
91791SOL    HW177206   2.856   2.343   8.380
91791SOL    HW277207   2.744   2.422   8.315
91792SOL     OW77208  12.797   6.120   6.417
91792SOL    HW177209  12.751   6.069   6.483
91792SOL    HW277210  12.731   6.179   6.381
91793SOL     OW77211   6.726  14.206   3.943
91793SOL    HW177212   6.797  14.157   3.904
91793SOL    HW277213   6.652  14.145   3.945
91794SOL     OW77214   4.191   0.825   3.764
91794SOL    HW177215   4.274   0.870   3.783
91794SOL    HW277216   4.206   0.783   3.680
91795SOL     OW77217  10.430   7.831   1.848
91795SOL    HW177218  10.417   7.770   1.775
91795SOL    HW277219  10.449   7.775   1.923
91796SOL     OW77220   6.743  14.329   3.648
91796SOL    HW177221   6.767  14.271   3.575
91796SOL    HW277222   6.743  14.272   3.724
91797SOL     OW77223   9.664  11.573  10.481
91797SOL    HW177224   9.711  11.653  10.508
91797SOL    HW277225   9.705  11.503  10.533
91798SOL     OW77226   1.755  12.981   6.866
91798SOL    HW177227   1.669  13.020   6.851
91798SOL    HW277228   1.810  13.055   6.892
91799SOL     OW77229   0.752   3.774   6.081
91799SOL    HW177230   0.831   3.804   6.036
91799SOL    HW277231   0.724   3.697   6.032
91800SOL     OW77232  11.043  11.325  13.511
91800SOL    HW177233  11.071  11.280  13.431
91800SOL    HW277234  11.093  11.407  13.511
91801SOL     OW77235   4.141   0.983  11.915
91801SOL    HW177236   4.225   1.026  11.928
91801SOL    HW277237   4.084   1.018  11.983
91802SOL     OW77238  13.161   0.265   7.192
91802SOL    HW177239  13.186   0.330   7.257
91802SOL    HW277240  13.245   0.227   7.164
91803SOL     OW77241   2.277   4.849   4.278
91803SOL    HW177242   2.367   4.868   4.303
91803SOL    HW277243   2.282   4.771   4.223
91804SOL     OW77244   9.076   6.229   5.425
91804SOL    HW177245   9.099   6.265   5.510
91804SOL    HW277246   9.084   6.134   5.436
91805SOL     OW77247   9.393   8.570   8.659
91805SOL    HW177248   9.420   8.654   8.696
91805SOL    HW277249   9.299   8.579   8.644
91806SOL     OW77250   2.840   7.125   0.299
91806SOL    HW177251   2.808   7.201   0.348
91806SOL    HW277252   2.818   7.050   0.355
91807SOL     OW77253  13.066  13.373  11.040
91807SOL    HW177254  13.009  13.447  11.058
91807SOL    HW277255  13.152  13.412  11.025
91808SOL     OW77256   9.550   0.901   4.975
91808SOL    HW177257   9.528   0.994   4.983
91808SOL    HW277258   9.639   0.900   4.940
91809SOL     OW77259   8.595   1.334   2.417
91809SOL    HW177260   8.627   1.378   2.496
91809SOL    HW277261   8.595   1.402   2.350
91810SOL     OW77262   6.840  13.229   8.500
91810SOL    HW177263   6.759  13.187   8.530
91810SOL    HW277264   6.844  13.208   8.407
91811SOL     OW77265  11.403   0.776   6.826
91811SOL    HW177266  11.420   0.683   6.814
91811SOL    HW277267  11.434   0.794   6.915
91812SOL     OW77268   7.404   2.714  10.608
91812SOL    HW177269   7.441   2.736  10.693
91812SOL    HW277270   7.311   2.700  10.625
91813SOL     OW77271  10.536  12.426   0.891
91813SOL    HW177272  10.582  12.488   0.834
91813SOL    HW277273  10.548  12.341   0.848
91814SOL     OW77274  13.295  14.591   7.195
91814SOL    HW177275  13.241  14.630   7.264
91814SOL    HW277276  13.370  14.650   7.188
91815SOL     OW77277   0.015   0.048   5.326
91815SOL    HW177278  14.862   0.046   5.236
91815SOL    HW277279  14.816   0.031   5.380
91816SOL     OW77280   2.249   3.794  10.500
91816SOL    HW177281   2.296   3.874  10.525
91816SOL    HW277282   2.198   3.819  10.424
91817SOL     OW77283   8.968  12.635   7.491
91817SOL    HW177284   8.875  12.639   7.513
91817SOL    HW277285   8.978  12.693   7.415
91818SOL     OW77286   5.195  11.524   1.005
91818SOL    HW177287   5.164  11.597   0.950
91818SOL    HW277288   5.229  11.460   0.943
91819SOL     OW77289  10.356   7.568   3.598
91819SOL    HW177290  10.452   7.574   3.602
91819SOL    HW277291  10.338   7.547   3.506
91820SOL     OW77292   4.934   1.433   8.803
91820SOL    HW177293   4.899   1.433   8.714
91820SOL    HW277294   4.879   1.371   8.851
91821SOL     OW77295   0.655  10.796   7.427
91821SOL    HW177296   0.749  10.810   7.424
91821SOL    HW277297   0.618  10.865   7.372
91822SOL     OW77298  11.544  10.353   8.671
91822SOL    HW177299  11.506  10.409   8.739
91822SOL    HW277300  11.619  10.402   8.639
91823SOL     OW77301  13.880   8.002   2.192
91823SOL    HW177302  13.835   7.918   2.193
91823SOL    HW277303  13.915   8.012   2.280
91824SOL     OW77304   1.875  11.212   3.879
91824SOL    HW177305   1.906  11.148   3.815
91824SOL    HW277306   1.948  11.273   3.888
91825SOL     OW77307  10.420  11.135   4.692
91825SOL    HW177308  10.355  11.128   4.762
91825SOL    HW277309  10.501  11.101   4.730
91826SOL     OW77310  14.138   0.836  14.272
91826SOL    HW177311  14.160   0.794  14.188
91826SOL    HW277312  14.054   0.798  14.296
91827SOL     OW77313   1.092  13.021   5.004
91827SOL    HW177314   1.018  13.020   4.943
91827SOL    HW277315   1.169  13.017   4.947
91828SOL     OW77316   8.950   6.385  14.501
91828SOL    HW177317   8.920   6.410  14.414
91828SOL    HW277318   9.046   6.377  14.492
91829SOL     OW77319   8.042  10.299  12.332
91829SOL    HW177320   8.073  10.344  12.410
91829SOL    HW277321   7.978  10.236  12.364
91830SOL     OW77322   1.209   5.118  12.416
91830SOL    HW177323   1.170   5.039  12.378
91830SOL    HW277324   1.279   5.142  12.355
91831SOL     OW77325   9.608   5.101   8.853
91831SOL    HW177326   9.524   5.134   8.823
91831SOL    HW277327   9.587   5.025   8.907
91832SOL     OW77328   8.960   7.490   9.330
91832SOL    HW177329   8.962   7.581   9.360
91832SOL    HW277330   8.879   7.454   9.368
91833SOL     OW77331   3.709   8.659   5.228
91833SOL    HW177332   3.712   8.566   5.249
91833SOL    HW277333   3.721   8.663   5.133
91834SOL     OW77334   0.087   8.203   5.782
91834SOL    HW177335   0.177   8.234   5.793
91834SOL    HW277336   0.093   8.136   5.714
91835SOL     OW77337   3.828   7.964  11.806
91835SOL    HW177338   3.898   8.029  11.803
91835SOL    HW277339   3.845   7.908  11.730
91836SOL     OW77340   4.407   1.618   7.578
91836SOL    HW177341   4.498   1.642   7.562
91836SOL    HW277342   4.378   1.676   7.649
91837SOL     OW77343   5.599  10.627   4.994
91837SOL    HW177344   5.566  10.572   5.065
91837SOL    HW277345   5.627  10.708   5.038
91838SOL     OW77346  13.524  11.490   1.381
91838SOL    HW177347  13.589  11.515   1.447
91838SOL    HW277348  13.577  11.461   1.306
91839SOL     OW77349   7.622   6.142   8.872
91839SOL    HW177350   7.622   6.153   8.967
91839SOL    HW277351   7.640   6.049   8.859
91840SOL     OW77352   0.214  10.669  11.247
91840SOL    HW177353   0.280  10.698  11.184
91840SOL    HW277354   0.262  10.610  11.306
91841SOL     OW77355   6.188   7.433   5.705
91841SOL    HW177356   6.156   7.347   5.679
91841SOL    HW277357   6.268   7.446   5.654
91842SOL     OW77358   6.243   0.800  13.635
91842SOL    HW177359   6.171   0.766  13.582
91842SOL    HW277360   6.316   0.811  13.573
91843SOL     OW77361   0.326   1.564   6.348
91843SOL    HW177362   0.254   1.618   6.381
91843SOL    HW277363   0.401   1.624   6.345
91844SOL     OW77364  10.310   5.278   9.969
91844SOL    HW177365  10.360   5.238   9.897
91844SOL    HW277366  10.326   5.372   9.959
91845SOL     OW77367   9.773  13.301  14.428
91845SOL    HW177368   9.811  13.214  14.417
91845SOL    HW277369   9.681  13.291  14.404
91846SOL     OW77370   6.926  14.529  14.835
91846SOL    HW177371   6.972  14.454  14.871
91846SOL    HW277372   6.957  14.536  14.745
91847SOL     OW77373  11.616   2.020   4.534
91847SOL    HW177374  11.670   1.954   4.492
91847SOL    HW277375  11.675   2.065   4.595
91848SOL     OW77376   2.919  13.829  12.850
91848SOL    HW177377   2.959  13.875  12.924
91848SOL    HW277378   2.925  13.737  12.873
91849SOL     OW77379   9.397   8.345   0.938
91849SOL    HW177380   9.370   8.295   0.860
91849SOL    HW277381   9.436   8.424   0.902
91850SOL     OW77382  10.002   0.934   4.969
91850SOL    HW177383  10.060   0.890   4.906
91850SOL    HW277384   9.955   0.999   4.917
91851SOL     OW77385  11.763   9.099  10.117
91851SOL    HW177386  11.844   9.150  10.114
91851SOL    HW277387  11.733   9.108  10.208
91852SOL     OW77388  11.397  13.984   4.728
91852SOL    HW177389  11.487  13.980   4.697
91852SOL    HW277390  11.351  14.040   4.665
91853SOL     OW77391   1.062  11.752  11.342
91853SOL    HW177392   1.088  11.820  11.404
91853SOL    HW277393   0.967  11.750  11.347
91854SOL     OW77394   6.217  12.883  13.915
91854SOL    HW177395   6.192  12.962  13.964
91854SOL    HW277396   6.307  12.899  13.887
91855SOL     OW77397  11.701   5.834  13.810
91855SOL    HW177398  11.679   5.755  13.860
91855SOL    HW277399  11.618   5.882  13.805
91856SOL     OW77400   0.178   7.929   0.119
91856SOL    HW177401   0.250   7.921   0.181
91856SOL    HW277402   0.113   7.865   0.149
91857SOL     OW77403   2.853  10.459   2.702
91857SOL    HW177404   2.798  10.385   2.676
91857SOL    HW277405   2.802  10.504   2.770
91858SOL     OW77406  11.548   6.481  12.218
91858SOL    HW177407  11.461   6.517  12.199
91858SOL    HW277408  11.604   6.516  12.149
91859SOL     OW77409   6.709   3.194  10.483
91859SOL    HW177410   6.746   3.282  10.489
91859SOL    HW277411   6.654   3.186  10.560
91860SOL     OW77412   7.194  14.477   2.007
91860SOL    HW177413   7.107  14.478   1.967
91860SOL    HW277414   7.252  14.511   1.939
91861SOL     OW77415   1.402   0.603  12.681
91861SOL    HW177416   1.328   0.569  12.732
91861SOL    HW277417   1.450   0.525  12.654
91862SOL     OW77418  14.008   4.109  14.653
91862SOL    HW177419  14.031   4.201  14.650
91862SOL    HW277420  13.937   4.104  14.718
91863SOL     OW77421   6.140  11.694   0.200
91863SOL    HW177422   6.079  11.726   0.267
91863SOL    HW277423   6.085  11.643   0.141
91864SOL     OW77424  11.681   8.663   6.028
91864SOL    HW177425  11.634   8.595   5.979
91864SOL    HW277426  11.770   8.660   5.993
91865SOL     OW77427   3.668   2.120   7.378
91865SOL    HW177428   3.721   2.190   7.340
91865SOL    HW277429   3.577   2.149   7.367
91866SOL     OW77430  12.725   7.754   0.097
91866SOL    HW177431  12.794   7.748   0.163
91866SOL    HW277432  12.769   7.792   0.020
91867SOL     OW77433  10.051   5.327   4.976
91867SOL    HW177434  10.095   5.342   4.892
91867SOL    HW277435  10.105   5.262   5.020
91868SOL     OW77436  14.479  12.238  14.670
91868SOL    HW177437  14.474  12.323  14.713
91868SOL    HW277438  14.388  12.210  14.660
91869SOL     OW77439   4.072   0.400  11.504
91869SOL    HW177440   4.092   0.492  11.520
91869SOL    HW277441   3.985   0.400  11.465
91870SOL     OW77442   8.382   4.566   0.186
91870SOL    HW177443   8.393   4.581   0.092
91870SOL    HW277444   8.351   4.650   0.220
91871SOL     OW77445   9.099   3.828  13.663
91871SOL    HW177446   9.103   3.872  13.579
91871SOL    HW277447   9.062   3.894  13.723
91872SOL     OW77448  10.584   3.040   0.808
91872SOL    HW177449  10.597   2.949   0.785
91872SOL    HW277450  10.490   3.047   0.828
91873SOL     OW77451  14.777  12.437   7.298
91873SOL    HW177452  14.843  12.373   7.325
91873SOL    HW277453  14.828  12.509   7.260
91874SOL     OW77454   5.134   6.302   6.586
91874SOL    HW177455   5.142   6.394   6.611
91874SOL    HW277456   5.202   6.258   6.636
91875SOL     OW77457  10.984   8.917  10.350
91875SOL    HW177458  10.906   8.872  10.383
91875SOL    HW277459  11.039   8.847  10.314
91876SOL     OW77460   6.438  13.678   9.388
91876SOL    HW177461   6.440  13.649   9.297
91876SOL    HW277462   6.459  13.771   9.384
91877SOL     OW77463   8.987  10.122   1.107
91877SOL    HW177464   8.918  10.174   1.065
91877SOL    HW277465   9.067  10.174   1.095
91878SOL     OW77466  12.199   6.667   9.595
91878SOL    HW177467  12.125   6.607   9.594
91878SOL    HW277468  12.174   6.737   9.535
91879SOL     OW77469   2.541   9.018   6.867
91879SOL    HW177470   2.478   9.048   6.801
91879SOL    HW277471   2.506   9.050   6.950
91880SOL     OW77472   8.904   0.135   7.314
91880SOL    HW177473   8.836   0.129   7.381
91880SOL    HW277474   8.901   0.226   7.284
91881SOL     OW77475   4.256  10.729   5.282
91881SOL    HW177476   4.291  10.733   5.371
91881SOL    HW277477   4.163  10.752   5.292
91882SOL     OW77478  12.870   4.233  14.342
91882SOL    HW177479  12.938   4.173  14.314
91882SOL    HW277480  12.888   4.248  14.435
91883SOL     OW77481   2.310   4.927  14.468
91883SOL    HW177482   2.328   4.849  14.521
91883SOL    HW277483   2.361   4.996  14.509
91884SOL     OW77484  11.752  13.869   5.024
91884SOL    HW177485  11.841  13.868   4.990
91884SOL    HW277486  11.701  13.822   4.958
91885SOL     OW77487   8.451  12.525   0.805
91885SOL    HW177488   8.460  12.477   0.722
91885SOL    HW277489   8.508  12.601   0.795
91886SOL     OW77490   5.228   3.483   1.141
91886SOL    HW177491   5.188   3.410   1.094
91886SOL    HW277492   5.239   3.551   1.075
91887SOL     OW77493  12.571   7.299   6.487
91887SOL    HW177494  12.481   7.275   6.465
91887SOL    HW277495  12.575   7.393   6.470
91888SOL     OW77496  11.990   0.742  10.380
91888SOL    HW177497  11.923   0.721  10.315
91888SOL    HW277498  11.944   0.792  10.447
91889SOL     OW77499   2.115  12.488  14.239
91889SOL    HW177500   2.136  12.395  14.231
91889SOL    HW277501   2.036  12.490  14.293
91890SOL     OW77502   3.035   6.593  11.939
91890SOL    HW177503   3.050   6.683  11.968
91890SOL    HW277504   2.975   6.557  12.005
91891SOL     OW77505   8.530   3.637   2.315
91891SOL    HW177506   8.492   3.564   2.363
91891SOL    HW277507   8.608   3.601   2.274
91892SOL     OW77508   3.224  12.730   9.229
91892SOL    HW177509   3.141  12.777   9.237
91892SOL    HW277510   3.289  12.790   9.265
91893SOL     OW77511  13.677   6.096   6.607
91893SOL    HW177512  13.622   6.147   6.547
91893SOL    HW277513  13.703   6.159   6.674
91894SOL     OW77514   9.521   3.884  11.358
91894SOL    HW177515   9.429   3.870  11.338
91894SOL    HW277516   9.565   3.806  11.325
91895SOL     OW77517   9.485   6.025   3.737
91895SOL    HW177518   9.534   6.049   3.815
91895SOL    HW277519   9.525   6.075   3.666
91896SOL     OW77520   2.754   0.143  13.374
91896SOL    HW177521   2.754   0.236  13.396
91896SOL    HW277522   2.719   0.140  13.285
91897SOL     OW77523  12.857  14.039   9.157
91897SOL    HW177524  12.847  13.974   9.227
91897SOL    HW277525  12.785  14.021   9.098
91898SOL     OW77526   9.390   0.264  13.718
91898SOL    HW177527   9.319   0.254  13.654
91898SOL    HW277528   9.450   0.327  13.679
91899SOL     OW77529  12.257   6.964  11.167
91899SOL    HW177530  12.242   6.870  11.153
91899SOL    HW277531  12.326   6.968  11.233
91900SOL     OW77532  11.390  11.668   4.356
91900SOL    HW177533  11.437  11.664   4.439
91900SOL    HW277534  11.328  11.595   4.359
91901SOL     OW77535   9.730   8.244  10.207
91901SOL    HW177536   9.804   8.263  10.150
91901SOL    HW277537   9.657   8.228  10.147
91902SOL     OW77538   7.106   6.914   4.899
91902SOL    HW177539   7.175   6.969   4.936
91902SOL    HW277540   7.125   6.826   4.931
91903SOL     OW77541   8.795  11.710  14.836
91903SOL    HW177542   8.725  11.696   0.021
91903SOL    HW277543   8.765  11.785  14.785
91904SOL     OW77544   5.306   0.505   6.529
91904SOL    HW177545   5.351   0.506   6.613
91904SOL    HW277546   5.291   0.597   6.509
91905SOL     OW77547   1.637   1.876  12.940
91905SOL    HW177548   1.608   1.947  12.998
91905SOL    HW277549   1.567   1.811  12.945
91906SOL     OW77550  11.900   6.113  11.398
91906SOL    HW177551  11.960   6.102  11.472
91906SOL    HW277552  11.821   6.065  11.424
91907SOL     OW77553   8.158   5.965   2.128
91907SOL    HW177554   8.200   5.953   2.043
91907SOL    HW277555   8.229   5.952   2.191
91908SOL     OW77556   7.772  13.805  10.794
91908SOL    HW177557   7.716  13.839  10.864
91908SOL    HW277558   7.736  13.718  10.775
91909SOL     OW77559   7.992   0.591   5.614
91909SOL    HW177560   7.966   0.673   5.656
91909SOL    HW277561   7.952   0.595   5.527
91910SOL     OW77562   3.505   7.725   2.249
91910SOL    HW177563   3.455   7.704   2.327
91910SOL    HW277564   3.560   7.648   2.234
91911SOL     OW77565   1.051   8.427  11.497
91911SOL    HW177566   1.030   8.520  11.491
91911SOL    HW277567   1.031   8.403  11.588
91912SOL     OW77568   0.854  11.028   8.553
91912SOL    HW177569   0.803  11.035   8.473
91912SOL    HW277570   0.916  11.100   8.549
91913SOL     OW77571   8.932  11.159  13.170
91913SOL    HW177572   8.928  11.237  13.224
91913SOL    HW277573   8.892  11.091  13.223
91914SOL     OW77574  14.742  12.415   2.401
91914SOL    HW177575  14.680  12.486   2.419
91914SOL    HW277576  14.793  12.406   2.482
91915SOL     OW77577   8.553  10.419   2.659
91915SOL    HW177578   8.560  10.499   2.712
91915SOL    HW277579   8.511  10.355   2.717
91916SOL     OW77580   1.889   6.522  11.385
91916SOL    HW177581   1.802   6.558  11.366
91916SOL    HW277582   1.922   6.575  11.457
91917SOL     OW77583  10.472  13.069   1.800
91917SOL    HW177584  10.472  13.081   1.704
91917SOL    HW277585  10.549  13.015   1.817
91918SOL     OW77586   6.447  13.614   9.114
91918SOL    HW177587   6.407  13.701   9.106
91918SOL    HW277588   6.540  13.629   9.096
91919SOL     OW77589   5.751   6.362   1.518
91919SOL    HW177590   5.795   6.350   1.434
91919SOL    HW277591   5.802   6.430   1.563
91920SOL     OW77592   7.829  12.240   8.526
91920SOL    HW177593   7.859  12.154   8.555
91920SOL    HW277594   7.882  12.259   8.448
91921SOL     OW77595   7.282   9.011  11.529
91921SOL    HW177596   7.236   9.092  11.509
91921SOL    HW277597   7.218   8.959  11.578
91922SOL     OW77598   6.852   0.780   4.173
91922SOL    HW177599   6.843   0.743   4.085
91922SOL    HW277600   6.845   0.874   4.160
91923SOL     OW77601   1.822   1.939  10.075
91923SOL    HW177602   1.749   1.974  10.025
91923SOL    HW277603   1.782   1.873  10.132
91924SOL     OW77604   8.752   9.061  11.413
91924SOL    HW177605   8.764   8.969  11.436
91924SOL    HW277606   8.838   9.101  11.426
91925SOL     OW77607   0.408  12.807   9.811
91925SOL    HW177608   0.390  12.794   9.904
91925SOL    HW277609   0.394  12.900   9.797
91926SOL     OW77610   2.689   3.275   4.123
91926SOL    HW177611   2.646   3.190   4.118
91926SOL    HW277612   2.738   3.273   4.205
91927SOL     OW77613  10.238  13.695  13.490
91927SOL    HW177614  10.329  13.712  13.466
91927SOL    HW277615  10.188  13.759  13.440
91928SOL     OW77616   2.952   5.523   0.340
91928SOL    HW177617   2.935   5.563   0.255
91928SOL    HW277618   3.023   5.461   0.324
91929SOL     OW77619   5.253   3.185   1.169
91929SOL    HW177620   5.334   3.215   1.209
91929SOL    HW277621   5.187   3.193   1.238
91930SOL     OW77622  11.881   4.030  13.697
91930SOL    HW177623  11.878   4.115  13.653
91930SOL    HW277624  11.972   4.001  13.686
91931SOL     OW77625   9.298   2.121   4.892
91931SOL    HW177626   9.270   2.030   4.888
91931SOL    HW277627   9.363   2.123   4.963
91932SOL     OW77628   6.364   1.936   2.627
91932SOL    HW177629   6.346   1.879   2.702
91932SOL    HW277630   6.440   1.896   2.584
91933SOL     OW77631  11.176   1.435   4.871
91933SOL    HW177632  11.131   1.386   4.940
91933SOL    HW277633  11.123   1.421   4.793
91934SOL     OW77634   3.191   8.104   6.504
91934SOL    HW177635   3.280   8.073   6.516
91934SOL    HW277636   3.199   8.180   6.446
91935SOL     OW77637  13.835   9.566  11.301
91935SOL    HW177638  13.795   9.512  11.232
91935SOL    HW277639  13.875   9.503  11.361
91936SOL     OW77640   7.593  10.958  10.206
91936SOL    HW177641   7.500  10.952  10.185
91936SOL    HW277642   7.599  10.927  10.296
91937SOL     OW77643  10.845   9.180  12.257
91937SOL    HW177644  10.890   9.255  12.295
91937SOL    HW277645  10.914   9.115  12.245
91938SOL     OW77646   7.401   4.969  13.957
91938SOL    HW177647   7.324   4.991  13.905
91938SOL    HW277648   7.441   4.894  13.912
91939SOL     OW77649   4.495  13.263  14.784
91939SOL    HW177650   4.434  13.211  14.732
91939SOL    HW277651   4.561  13.293  14.721
91940SOL     OW77652   7.846   8.212   5.522
91940SOL    HW177653   7.927   8.199   5.570
91940SOL    HW277654   7.863   8.290   5.468
91941SOL     OW77655   8.499   5.553  13.995
91941SOL    HW177656   8.528   5.603  13.918
91941SOL    HW277657   8.574   5.498  14.017
91942SOL     OW77658   5.623   2.076   2.911
91942SOL    HW177659   5.545   2.066   2.857
91942SOL    HW277660   5.597   2.045   2.997
91943SOL     OW77661   1.350   9.371   4.617
91943SOL    HW177662   1.409   9.446   4.627
91943SOL    HW277663   1.400   9.296   4.650
91944SOL     OW77664  12.167   8.774   2.143
91944SOL    HW177665  12.232   8.743   2.080
91944SOL    HW277666  12.197   8.861   2.168
91945SOL     OW77667   9.959   4.993   2.653
91945SOL    HW177668  10.052   4.971   2.655
91945SOL    HW277669   9.937   4.998   2.560
91946SOL     OW77670  11.537  10.534   4.605
91946SOL    HW177671  11.596  10.542   4.679
91946SOL    HW277672  11.554  10.446   4.570
91947SOL     OW77673   4.041  12.690   7.850
91947SOL    HW177674   3.988  12.759   7.811
91947SOL    HW277675   4.039  12.619   7.787
91948SOL     OW77676  10.697   7.137  10.262
91948SOL    HW177677  10.702   7.188  10.343
91948SOL    HW277678  10.723   7.049  10.289
91949SOL     OW77679   2.663   9.042  10.208
91949SOL    HW177680   2.708   9.034  10.292
91949SOL    HW277681   2.698   9.122  10.170
91950SOL     OW77682   1.124   8.880   7.173
91950SOL    HW177683   1.072   8.931   7.236
91950SOL    HW277684   1.199   8.850   7.224
91951SOL     OW77685   4.792   2.979  14.049
91951SOL    HW177686   4.770   3.067  14.017
91951SOL    HW277687   4.883   2.967  14.024
91952SOL     OW77688   1.731   3.340   3.982
91952SOL    HW177689   1.672   3.406   4.018
91952SOL    HW277690   1.686   3.308   3.904
91953SOL     OW77691  12.448  13.486   1.908
91953SOL    HW177692  12.490  13.572   1.908
91953SOL    HW277693  12.422  13.471   2.000
91954SOL     OW77694   2.548   2.258   2.372
91954SOL    HW177695   2.514   2.258   2.283
91954SOL    HW277696   2.633   2.216   2.366
91955SOL     OW77697   9.692   4.974   2.950
91955SOL    HW177698   9.629   5.007   2.886
91955SOL    HW277699   9.640   4.959   3.029
91956SOL     OW77700   8.674   8.838  12.214
91956SOL    HW177701   8.704   8.928  12.226
91956SOL    HW277702   8.724   8.806  12.139
91957SOL     OW77703   7.386   3.161   1.548
91957SOL    HW177704   7.426   3.099   1.486
91957SOL    HW277705   7.296   3.131   1.558
91958SOL     OW77706  13.407  10.624   4.249
91958SOL    HW177707  13.353  10.612   4.326
91958SOL    HW277708  13.371  10.702   4.205
91959SOL     OW77709   6.531  13.385   4.896
91959SOL    HW177710   6.625  13.390   4.878
91959SOL    HW277711   6.524  13.326   4.972
91960SOL     OW77712   1.613  11.373  11.988
91960SOL    HW177713   1.572  11.327  11.916
91960SOL    HW277714   1.552  11.444  12.009
91961SOL     OW77715   2.927   3.673   5.629
91961SOL    HW177716   2.921   3.754   5.679
91961SOL    HW277717   2.859   3.617   5.665
91962SOL     OW77718  13.797   0.161  12.631
91962SOL    HW177719  13.816   0.067  12.637
91962SOL    HW277720  13.875   0.204  12.665
91963SOL     OW77721  11.778  11.625  13.018
91963SOL    HW177722  11.828  11.693  12.974
91963SOL    HW277723  11.688  11.659  13.021
91964SOL     OW77724   8.130   9.898   4.706
91964SOL    HW177725   8.050   9.852   4.733
91964SOL    HW277726   8.119   9.987   4.740
91965SOL     OW77727   6.888   4.768  12.959
91965SOL    HW177728   6.867   4.745  12.869
91965SOL    HW277729   6.896   4.863  12.959
91966SOL     OW77730  14.127  13.264  13.537
91966SOL    HW177731  14.201  13.316  13.505
91966SOL    HW277732  14.061  13.329  13.563
91967SOL     OW77733   2.780   1.650   8.776
91967SOL    HW177734   2.697   1.603   8.775
91967SOL    HW277735   2.779   1.698   8.859
91968SOL     OW77736   9.667   8.728   5.571
91968SOL    HW177737   9.707   8.778   5.642
91968SOL    HW277738   9.676   8.784   5.494
91969SOL     OW77739   3.256   5.683  11.116
91969SOL    HW177740   3.247   5.721  11.203
91969SOL    HW277741   3.167   5.686  11.080
91970SOL     OW77742   3.329  14.572   5.306
91970SOL    HW177743   3.306  14.555   5.215
91970SOL    HW277744   3.245  14.583   5.351
91971SOL     OW77745   7.566   0.773   5.964
91971SOL    HW177746   7.647   0.773   6.015
91971SOL    HW277747   7.496   0.769   6.029
91972SOL     OW77748   6.244  11.596   1.348
91972SOL    HW177749   6.273  11.662   1.285
91972SOL    HW277750   6.201  11.529   1.295
91973SOL     OW77751   9.577   0.109  13.880
91973SOL    HW177752   9.524   0.066  13.946
91973SOL    HW277753   9.517   0.168  13.835
91974SOL     OW77754   0.327   5.509   2.823
91974SOL    HW177755   0.283   5.514   2.908
91974SOL    HW277756   0.289   5.431   2.782
91975SOL     OW77757   8.242   2.948   3.767
91975SOL    HW177758   8.238   3.037   3.733
91975SOL    HW277759   8.154   2.913   3.753
91976SOL     OW77760   0.158  11.979   6.756
91976SOL    HW177761   0.242  11.933   6.752
91976SOL    HW277762   0.093  11.908   6.761
91977SOL     OW77763  11.987  12.609  14.450
91977SOL    HW177764  11.972  12.514  14.452
91977SOL    HW277765  12.080  12.618  14.428
91978SOL     OW77766   3.392  11.670  14.572
91978SOL    HW177767   3.363  11.758  14.598
91978SOL    HW277768   3.364  11.614  14.645
91979SOL     OW77769  11.061  12.857   6.093
91979SOL    HW177770  11.054  12.946   6.060
91979SOL    HW277771  11.120  12.813   6.032
91980SOL     OW77772   9.298   4.578  13.751
91980SOL    HW177773   9.356   4.503  13.761
91980SOL    HW277774   9.329   4.642  13.816
91981SOL     OW77775  13.625   7.143   9.836
91981SOL    HW177776  13.545   7.128   9.886
91981SOL    HW277777  13.595   7.186   9.756
91982SOL     OW77778   2.845   0.987   1.043
91982SOL    HW177779   2.856   0.933   0.965
91982SOL    HW277780   2.934   1.010   1.069
91983SOL     OW77781   7.285   8.054  12.531
91983SOL    HW177782   7.317   8.002  12.605
91983SOL    HW277783   7.227   8.119  12.571
91984SOL     OW77784   8.603   5.634  11.753
91984SOL    HW177785   8.538   5.676  11.697
91984SOL    HW277786   8.650   5.574  11.696
91985SOL     OW77787  10.901   5.237   0.674
91985SOL    HW177788  10.825   5.210   0.623
91985SOL    HW277789  10.866   5.295   0.741
91986SOL     OW77790   8.541   1.079   2.949
91986SOL    HW177791   8.597   1.012   2.989
91986SOL    HW277792   8.489   1.113   3.022
91987SOL     OW77793   2.687  11.298   3.640
91987SOL    HW177794   2.704  11.329   3.551
91987SOL    HW277795   2.716  11.207   3.639
91988SOL     OW77796   3.243   4.901   3.371
91988SOL    HW177797   3.181   4.843   3.327
91988SOL    HW277798   3.192   4.943   3.439
91989SOL     OW77799  11.932  14.364   8.536
91989SOL    HW177800  12.024  14.340   8.549
91989SOL    HW277801  11.882  14.291   8.571
91990SOL     OW77802   5.918   7.003   5.059
91990SOL    HW177803   5.852   7.057   5.102
91990SOL    HW277804   5.966   7.064   5.004
91991SOL     OW77805   3.703  11.924   9.358
91991SOL    HW177806   3.781  11.960   9.316
91991SOL    HW277807   3.684  11.844   9.309
91992SOL     OW77808  11.712   6.529  14.257
91992SOL    HW177809  11.760   6.482  14.190
91992SOL    HW277810  11.650   6.584  14.209
91993SOL     OW77811  10.209   4.327  12.231
91993SOL    HW177812  10.186   4.395  12.168
91993SOL    HW277813  10.265   4.371  12.295
91994SOL     OW77814   9.790   8.603  12.682
91994SOL    HW177815   9.814   8.676  12.624
91994SOL    HW277816   9.709   8.632  12.725
91995SOL     OW77817   1.044   6.636   6.910
91995SOL    HW177818   0.960   6.663   6.872
91995SOL    HW277819   1.031   6.544   6.933
91996SOL     OW77820   8.569   1.452   8.886
91996SOL    HW177821   8.497   1.389   8.889
91996SOL    HW277822   8.611   1.436   8.802
91997SOL     OW77823   0.854   8.774   2.278
91997SOL    HW177824   0.800   8.743   2.351
91997SOL    HW277825   0.842   8.707   2.210
91998SOL     OW77826  11.241   8.357   4.778
91998SOL    HW177827  11.323   8.316   4.753
91998SOL    HW277828  11.243   8.361   4.874
91999SOL     OW77829   5.986  13.736   6.624
91999SOL    HW177830   6.046  13.695   6.562
91999SOL    HW277831   5.997  13.686   6.705
92000SOL     OW77832   4.286   2.373   1.991
92000SOL    HW177833   4.280   2.337   1.903
92000SOL    HW277834   4.276   2.297   2.049
92001SOL     OW77835  12.174   1.012   9.679
92001SOL    HW177836  12.217   1.073   9.740
92001SOL    HW277837  12.081   1.019   9.700
92002SOL     OW77838  14.485  12.544  13.897
92002SOL    HW177839  14.540  12.470  13.924
92002SOL    HW277840  14.480  12.537  13.802
92003SOL     OW77841   9.638   8.661  11.681
92003SOL    HW177842   9.544   8.661  11.704
92003SOL    HW277843   9.648   8.587  11.622
92004SOL     OW77844   6.901  14.032   3.804
92004SOL    HW177845   6.988  14.036   3.763
92004SOL    HW277846   6.877  13.939   3.799
92005SOL     OW77847   7.049   2.166   2.694
92005SOL    HW177848   7.074   2.155   2.603
92005SOL    HW277849   6.967   2.117   2.703
92006SOL     OW77850   7.846   2.188   8.169
92006SOL    HW177851   7.833   2.177   8.263
92006SOL    HW277852   7.899   2.112   8.143
92007SOL     OW77853  10.528   9.657   0.923
92007SOL    HW177854  10.515   9.649   0.828
92007SOL    HW277855  10.441   9.644   0.960
92008SOL     OW77856   4.263   0.620   5.194
92008SOL    HW177857   4.328   0.565   5.150
92008SOL    HW277858   4.224   0.672   5.124
92009SOL     OW77859   6.526   4.465   6.552
92009SOL    HW177860   6.536   4.440   6.644
92009SOL    HW277861   6.523   4.381   6.505
92010SOL     OW77862   9.141  11.420   5.212
92010SOL    HW177863   9.147  11.374   5.128
92010SOL    HW277864   9.140  11.351   5.277
92011SOL     OW77865  11.679   5.668   9.954
92011SOL    HW177866  11.733   5.728   9.901
92011SOL    HW277867  11.705   5.685  10.044
92012SOL     OW77868   4.217   8.590  12.323
92012SOL    HW177869   4.123   8.582  12.304
92012SOL    HW277870   4.227   8.550  12.410
92013SOL     OW77871   5.090   8.661   2.579
92013SOL    HW177872   5.115   8.610   2.656
92013SOL    HW277873   5.081   8.597   2.509
92014SOL     OW77874   1.431   2.594  10.061
92014SOL    HW177875   1.410   2.602  10.154
92014SOL    HW277876   1.347   2.593  10.016
92015SOL     OW77877   0.954  14.103   4.529
92015SOL    HW177878   0.991  14.124   4.615
92015SOL    HW277879   0.941  14.008   4.531
92016SOL     OW77880  13.679   0.834   2.368
92016SOL    HW177881  13.642   0.754   2.407
92016SOL    HW277882  13.630   0.845   2.286
92017SOL     OW77883   7.052   4.966   8.482
92017SOL    HW177884   7.032   5.046   8.432
92017SOL    HW277885   6.981   4.906   8.459
92018SOL     OW77886   1.076   8.304  10.212
92018SOL    HW177887   1.021   8.228  10.196
92018SOL    HW277888   1.100   8.335  10.124
92019SOL     OW77889  12.993   0.392  10.482
92019SOL    HW177890  12.987   0.488  10.486
92019SOL    HW277891  12.997   0.372  10.389
92020SOL     OW77892  13.057  10.893   4.632
92020SOL    HW177893  13.025  10.808   4.602
92020SOL    HW277894  13.093  10.934   4.554
92021SOL     OW77895   7.139   1.014   6.515
92021SOL    HW177896   7.196   1.061   6.577
92021SOL    HW277897   7.167   0.923   6.522
92022SOL     OW77898   6.638   1.990  11.801
92022SOL    HW177899   6.542   1.996  11.796
92022SOL    HW277900   6.663   1.951  11.717
92023SOL     OW77901   1.938  10.932   9.698
92023SOL    HW177902   1.934  10.838   9.681
92023SOL    HW277903   1.892  10.971   9.624
92024SOL     OW77904  13.935   8.157   7.117
92024SOL    HW177905  13.970   8.079   7.159
92024SOL    HW277906  13.841   8.154   7.137
92025SOL     OW77907  10.419  13.465   6.329
92025SOL    HW177908  10.443  13.556   6.315
92025SOL    HW277909  10.503  13.418   6.330
92026SOL     OW77910   9.300   1.621   3.400
92026SOL    HW177911   9.286   1.545   3.344
92026SOL    HW277912   9.306   1.695   3.339
92027SOL     OW77913   0.786   1.695   8.218
92027SOL    HW177914   0.768   1.601   8.223
92027SOL    HW277915   0.727   1.727   8.150
92028SOL     OW77916   7.433   8.190   5.193
92028SOL    HW177917   7.452   8.267   5.139
92028SOL    HW277918   7.511   8.136   5.185
92029SOL     OW77919   9.040  13.594   1.582
92029SOL    HW177920   8.945  13.590   1.571
92029SOL    HW277921   9.052  13.615   1.675
92030SOL     OW77922  14.600  10.716  11.106
92030SOL    HW177923  14.659  10.691  11.177
92030SOL    HW277924  14.656  10.756  11.040
92031SOL     OW77925   4.518  14.112  11.251
92031SOL    HW177926   4.468  14.187  11.219
92031SOL    HW277927   4.607  14.147  11.263
92032SOL     OW77928   6.417   6.573   9.810
92032SOL    HW177929   6.337   6.593   9.858
92032SOL    HW277930   6.462   6.657   9.802
92033SOL     OW77931   5.786   4.996  10.722
92033SOL    HW177932   5.824   5.024  10.639
92033SOL    HW277933   5.862   4.970  10.775
92034SOL     OW77934   2.985  14.200   0.440
92034SOL    HW177935   3.013  14.109   0.429
92034SOL    HW277936   3.006  14.221   0.531
92035SOL     OW77937   4.384  11.007   2.467
92035SOL    HW177938   4.308  10.986   2.522
92035SOL    HW277939   4.443  10.932   2.479
92036SOL     OW77940   9.606  13.383   1.658
92036SOL    HW177941   9.695  13.368   1.690
92036SOL    HW277942   9.579  13.298   1.622
92037SOL     OW77943   6.126  12.587  12.279
92037SOL    HW177944   6.117  12.499  12.315
92037SOL    HW277945   6.036  12.612  12.255
92038SOL     OW77946  10.774  13.459  13.732
92038SOL    HW177947  10.695  13.478  13.783
92038SOL    HW277948  10.745  13.402  13.662
92039SOL     OW77949  10.994  11.988   5.165
92039SOL    HW177950  11.070  11.977   5.108
92039SOL    HW277951  11.003  11.918   5.230
92040SOL     OW77952   6.595  14.074   6.516
92040SOL    HW177953   6.683  14.041   6.499
92040SOL    HW277954   6.550  14.067   6.432
92041SOL     OW77955   6.080   4.398   8.625
92041SOL    HW177956   5.992   4.436   8.626
92041SOL    HW277957   6.133   4.460   8.676
92042SOL     OW77958  11.749   2.363   3.165
92042SOL    HW177959  11.698   2.379   3.245
92042SOL    HW277960  11.837   2.342   3.197
92043SOL     OW77961  10.279  12.676   1.240
92043SOL    HW177962  10.354  12.655   1.185
92043SOL    HW277963  10.290  12.769   1.262
92044SOL     OW77964   1.925  10.141  13.939
92044SOL    HW177965   1.830  10.150  13.944
92044SOL    HW277966   1.959  10.208  13.998
92045SOL     OW77967   4.741   4.660   9.756
92045SOL    HW177968   4.674   4.673   9.824
92045SOL    HW277969   4.784   4.746   9.749
92046SOL     OW77970  10.932  14.766   4.794
92046SOL    HW177971  10.887  14.843   4.761
92046SOL    HW277972  10.915  14.767   4.889
92047SOL     OW77973  11.163   1.101  13.755
92047SOL    HW177974  11.198   1.136  13.673
92047SOL    HW277975  11.193   1.009  13.757
92048SOL     OW77976  11.477   7.433  13.366
92048SOL    HW177977  11.564   7.438  13.405
92048SOL    HW277978  11.493   7.438  13.272
92049SOL     OW77979   1.630   9.093   8.972
92049SOL    HW177980   1.629   9.045   9.054
92049SOL    HW277981   1.706   9.152   8.979
92050SOL     OW77982   6.439   0.433   2.603
92050SOL    HW177983   6.345   0.429   2.585
92050SOL    HW277984   6.451   0.515   2.650
92051SOL     OW77985   3.582   8.258   2.787
92051SOL    HW177986   3.589   8.186   2.849
92051SOL    HW277987   3.633   8.230   2.711
92052SOL     OW77988   1.982   6.637   9.006
92052SOL    HW177989   2.049   6.667   8.945
92052SOL    HW277990   1.940   6.717   9.037
92053SOL     OW77991   5.780   9.035   2.316
92053SOL    HW177992   5.702   9.001   2.359
92053SOL    HW277993   5.787   8.984   2.235
92054SOL     OW77994   4.420   7.853   6.566
92054SOL    HW177995   4.476   7.856   6.489
92054SOL    HW277996   4.389   7.762   6.569
92055SOL     OW77997  10.179  14.794   9.933
92055SOL    HW177998  10.196  14.729  10.001
92055SOL    HW277999  10.252  14.855   9.940
92056SOL     OW78000   0.195   1.907  11.027
92056SOL    HW178001   0.171   1.836  10.967
92056SOL    HW278002   0.171   1.987  10.981
92057SOL     OW78003   7.189  10.528  13.782
92057SOL    HW178004   7.159  10.449  13.826
92057SOL    HW278005   7.237  10.577  13.848
92058SOL     OW78006   1.302   7.182   5.507
92058SOL    HW178007   1.303   7.189   5.602
92058SOL    HW278008   1.394   7.170   5.483
92059SOL     OW78009   9.844   9.702   0.646
92059SOL    HW178010   9.853   9.738   0.558
92059SOL    HW278011   9.877   9.612   0.638
92060SOL     OW78012   5.542   4.812   2.931
92060SOL    HW178013   5.558   4.906   2.931
92060SOL    HW278014   5.580   4.781   2.849
92061SOL     OW78015   9.616  13.342  13.214
92061SOL    HW178016   9.546  13.319  13.153
92061SOL    HW278017   9.575  13.403  13.275
92062SOL     OW78018  11.038  13.370  10.349
92062SOL    HW178019  10.965  13.310  10.367
92062SOL    HW278020  11.089  13.325  10.281
92063SOL     OW78021  13.891   0.324   4.137
92063SOL    HW178022  13.881   0.397   4.076
92063SOL    HW278023  13.860   0.248   4.088
92064SOL     OW78024   9.701   0.107  13.104
92064SOL    HW178025   9.792   0.136  13.098
92064SOL    HW278026   9.655   0.180  13.146
92065SOL     OW78027   4.759  11.259   9.899
92065SOL    HW178028   4.712  11.189   9.853
92065SOL    HW278029   4.692  11.307   9.947
92066SOL     OW78030  14.617  11.235   9.300
92066SOL    HW178031  14.711  11.232   9.313
92066SOL    HW278032  14.595  11.328   9.306
92067SOL     OW78033  11.169   0.458   8.182
92067SOL    HW178034  11.142   0.541   8.145
92067SOL    HW278035  11.090   0.404   8.183
92068SOL     OW78036  14.480   9.657  14.193
92068SOL    HW178037  14.392   9.635  14.223
92068SOL    HW278038  14.469   9.737  14.141
92069SOL     OW78039   8.546  12.162   1.611
92069SOL    HW178040   8.633  12.129   1.637
92069SOL    HW278041   8.485  12.107   1.660
92070SOL     OW78042   1.131   4.761   8.691
92070SOL    HW178043   1.149   4.745   8.783
92070SOL    HW278044   1.090   4.848   8.689
92071SOL     OW78045   0.504   8.659  10.066
92071SOL    HW178046   0.470   8.734  10.017
92071SOL    HW278047   0.599   8.667  10.059
92072SOL     OW78048   2.764   1.013   3.612
92072SOL    HW178049   2.855   1.042   3.606
92072SOL    HW278050   2.716   1.072   3.554
92073SOL     OW78051   4.016  10.222   9.737
92073SOL    HW178052   3.965  10.187   9.664
92073SOL    HW278053   4.001  10.160   9.809
92074SOL     OW78054   8.400   7.359   2.343
92074SOL    HW178055   8.361   7.418   2.407
92074SOL    HW278056   8.447   7.294   2.396
92075SOL     OW78057   3.190   5.870   6.828
92075SOL    HW178058   3.151   5.916   6.902
92075SOL    HW278059   3.267   5.827   6.864
92076SOL     OW78060  12.529  10.488  12.341
92076SOL    HW178061  12.474  10.465  12.266
92076SOL    HW278062  12.506  10.424  12.408
92077SOL     OW78063   9.160   2.662   7.599
92077SOL    HW178064   9.181   2.744   7.555
92077SOL    HW278065   9.245   2.624   7.622
92078SOL     OW78066   7.691  11.531   0.997
92078SOL    HW178067   7.681  11.623   1.024
92078SOL    HW278068   7.601  11.501   0.985
92079SOL     OW78069  13.032   6.046   5.073
92079SOL    HW178070  12.978   6.026   5.149
92079SOL    HW278071  13.098   6.107   5.105
92080SOL     OW78072   4.280  11.382   7.361
92080SOL    HW178073   4.304  11.370   7.453
92080SOL    HW278074   4.282  11.295   7.323
92081SOL     OW78075   1.903   4.909   3.608
92081SOL    HW178076   1.827   4.960   3.635
92081SOL    HW278077   1.944   4.962   3.540
92082SOL     OW78078   2.362   0.175  13.875
92082SOL    HW178079   2.350   0.119  13.953
92082SOL    HW278080   2.399   0.256  13.909
92083SOL     OW78081  10.697   4.883   9.654
92083SOL    HW178082  10.667   4.974   9.652
92083SOL    HW278083  10.621   4.832   9.626
92084SOL     OW78084   5.050   5.229   9.066
92084SOL    HW178085   5.072   5.290   8.995
92084SOL    HW278086   5.125   5.171   9.073
92085SOL     OW78087   0.491  14.052  12.397
92085SOL    HW178088   0.571  14.095  12.426
92085SOL    HW278089   0.455  14.013  12.476
92086SOL     OW78090  10.372  13.262  12.127
92086SOL    HW178091  10.372  13.179  12.079
92086SOL    HW278092  10.353  13.328  12.061
92087SOL     OW78093  12.231   5.719  13.326
92087SOL    HW178094  12.290   5.783  13.366
92087SOL    HW278095  12.170   5.772  13.274
92088SOL     OW78096  13.844   6.349   4.041
92088SOL    HW178097  13.810   6.261   4.024
92088SOL    HW278098  13.781   6.387   4.102
92089SOL     OW78099  14.811  12.922   8.009
92089SOL    HW178100  14.773  12.870   7.938
92089SOL    HW278101  14.774  13.010   7.998
92090SOL     OW78102   4.676  12.119   6.263
92090SOL    HW178103   4.745  12.132   6.198
92090SOL    HW278104   4.686  12.193   6.323
92091SOL     OW78105  13.973   9.520   5.060
92091SOL    HW178106  14.041   9.457   5.083
92091SOL    HW278107  13.925   9.535   5.141
92092SOL     OW78108   6.900   8.186   4.922
92092SOL    HW178109   6.980   8.145   4.887
92092SOL    HW278110   6.836   8.176   4.852
92093SOL     OW78111  12.058   4.561   3.026
92093SOL    HW178112  12.083   4.515   2.945
92093SOL    HW278113  11.962   4.564   3.023
92094SOL     OW78114   0.546   6.409  14.409
92094SOL    HW178115   0.460   6.399  14.450
92094SOL    HW278116   0.557   6.329  14.357
92095SOL     OW78117   3.172  14.762  13.506
92095SOL    HW178118   3.142  14.722  13.425
92095SOL    HW278119   3.137  14.851  13.504
92096SOL     OW78120   7.639   9.449  14.706
92096SOL    HW178121   7.598   9.417  14.786
92096SOL    HW278122   7.685   9.529  14.732
92097SOL     OW78123   2.298   9.655  13.968
92097SOL    HW178124   2.238   9.727  13.948
92097SOL    HW278125   2.305   9.655  14.064
92098SOL     OW78126   1.976  11.916   6.115
92098SOL    HW178127   2.011  11.830   6.140
92098SOL    HW278128   1.947  11.955   6.197
92099SOL     OW78129   3.680  10.258  10.696
92099SOL    HW178130   3.723  10.335  10.658
92099SOL    HW278131   3.721  10.184  10.652
92100SOL     OW78132  13.203   1.676   1.618
92100SOL    HW178133  13.129   1.623   1.589
92100SOL    HW278134  13.163   1.755   1.656
92101SOL     OW78135  10.222   6.192  11.386
92101SOL    HW178136  10.253   6.193  11.477
92101SOL    HW278137  10.191   6.282  11.371
92102SOL     OW78138   9.787  14.653  12.850
92102SOL    HW178139   9.832  14.585  12.901
92102SOL    HW278140   9.857  14.711  12.822
92103SOL     OW78141   5.964   3.680   9.460
92103SOL    HW178142   5.962   3.633   9.543
92103SOL    HW278143   5.964   3.611   9.393
92104SOL     OW78144   6.877   6.683   9.411
92104SOL    HW178145   6.859   6.765   9.365
92104SOL    HW278146   6.898   6.711   9.501
92105SOL     OW78147   1.508   3.956   7.153
92105SOL    HW178148   1.556   4.038   7.162
92105SOL    HW278149   1.561   3.902   7.095
92106SOL     OW78150   3.794   6.714   2.154
92106SOL    HW178151   3.744   6.652   2.207
92106SOL    HW278152   3.826   6.779   2.217
92107SOL     OW78153  14.790   7.452  10.762
92107SOL    HW178154  14.836   7.458  10.846
92107SOL    HW278155  14.698   7.445  10.785
92108SOL     OW78156  14.072   3.797  14.663
92108SOL    HW178157  14.167   3.804  14.650
92108SOL    HW278158  14.044   3.886  14.685
92109SOL     OW78159   2.370   7.707   3.515
92109SOL    HW178160   2.322   7.624   3.518
92109SOL    HW278161   2.334   7.753   3.439
92110SOL     OW78162  12.559   4.921   6.793
92110SOL    HW178163  12.572   4.858   6.722
92110SOL    HW278164  12.632   4.906   6.853
92111SOL     OW78165   7.364   0.233   5.337
92111SOL    HW178166   7.380   0.327   5.339
92111SOL    HW278167   7.424   0.196   5.401
92112SOL     OW78168   4.722   2.867   4.322
92112SOL    HW178169   4.650   2.837   4.377
92112SOL    HW278170   4.770   2.929   4.377
92113SOL     OW78171   9.918   5.686   7.564
92113SOL    HW178172   9.996   5.649   7.604
92113SOL    HW278173   9.897   5.626   7.492
92114SOL     OW78174   3.572   6.952   9.290
92114SOL    HW178175   3.596   6.923   9.203
92114SOL    HW278176   3.648   7.002   9.321
92115SOL     OW78177  10.417   5.358   3.513
92115SOL    HW178178  10.355   5.306   3.463
92115SOL    HW278179  10.370   5.382   3.593
92116SOL     OW78180  10.827   9.205   5.794
92116SOL    HW178181  10.839   9.147   5.869
92116SOL    HW278182  10.916   9.224   5.764
92117SOL     OW78183  13.812   3.437   0.727
92117SOL    HW178184  13.840   3.455   0.637
92117SOL    HW278185  13.891   3.405   0.771
92118SOL     OW78186   5.939  14.790  12.597
92118SOL    HW178187   6.024  14.823  12.628
92118SOL    HW278188   5.960  14.709  12.552
92119SOL     OW78189   5.618  10.106   6.530
92119SOL    HW178190   5.566  10.109   6.610
92119SOL    HW278191   5.648  10.197   6.517
92120SOL     OW78192   2.581   0.597   2.805
92120SOL    HW178193   2.528   0.549   2.868
92120SOL    HW278194   2.594   0.535   2.733
92121SOL     OW78195   8.482  13.290   3.385
92121SOL    HW178196   8.515  13.251   3.304
92121SOL    HW278197   8.442  13.217   3.432
92122SOL     OW78198  11.537   6.862   0.176
92122SOL    HW178199  11.476   6.801   0.135
92122SOL    HW278200  11.485   6.903   0.246
92123SOL     OW78201   1.553   7.238  10.684
92123SOL    HW178202   1.471   7.196  10.658
92123SOL    HW278203   1.540   7.331  10.665
92124SOL     OW78204   2.533  11.495   6.370
92124SOL    HW178205   2.506  11.565   6.310
92124SOL    HW278206   2.623  11.473   6.342
92125SOL     OW78207  12.987   9.444   5.796
92125SOL    HW178208  12.926   9.370   5.802
92125SOL    HW278209  13.047   9.432   5.870
92126SOL     OW78210   0.620   0.946   7.099
92126SOL    HW178211   0.657   1.029   7.069
92126SOL    HW278212   0.526   0.962   7.104
92127SOL     OW78213   1.037  10.675  12.251
92127SOL    HW178214   1.080  10.735  12.189
92127SOL    HW278215   0.944  10.684  12.232
92128SOL     OW78216  14.044  12.747   7.004
92128SOL    HW178217  13.985  12.822   7.010
92128SOL    HW278218  13.986  12.670   7.011
92129SOL     OW78219   0.897  13.886  10.458
92129SOL    HW178220   0.872  13.897  10.550
92129SOL    HW278221   0.814  13.868  10.413
92130SOL     OW78222   0.199  11.146  14.472
92130SOL    HW178223   0.164  11.058  14.487
92130SOL    HW278224   0.265  11.134  14.405
92131SOL     OW78225   8.308  11.343  10.561
92131SOL    HW178226   8.261  11.318  10.481
92131SOL    HW278227   8.375  11.276  10.572
92132SOL     OW78228   1.426  11.555  12.038
92132SOL    HW178229   1.357  11.506  11.992
92132SOL    HW278230   1.383  11.635  12.067
92133SOL     OW78231   8.663   4.593  10.826
92133SOL    HW178232   8.722   4.614  10.898
92133SOL    HW278233   8.660   4.672  10.772
92134SOL     OW78234   1.954   6.418   9.193
92134SOL    HW178235   1.967   6.470   9.114
92134SOL    HW278236   1.867   6.379   9.181
92135SOL     OW78237   6.222  10.306  14.394
92135SOL    HW178238   6.286  10.377  14.401
92135SOL    HW278239   6.264  10.242  14.336
92136SOL     OW78240   0.239   5.142  12.001
92136SOL    HW178241   0.324   5.135  12.044
92136SOL    HW278242   0.237   5.070  11.938
92137SOL     OW78243  11.412   2.904  12.982
92137SOL    HW178244  11.373   2.858  12.907
92137SOL    HW278245  11.338   2.926  13.038
92138SOL     OW78246  11.377   8.730  10.486
92138SOL    HW178247  11.467   8.756  10.504
92138SOL    HW278248  11.378   8.698  10.396
92139SOL     OW78249   4.538  12.149   1.629
92139SOL    HW178250   4.496  12.074   1.673
92139SOL    HW278251   4.550  12.119   1.538
92140SOL     OW78252   6.416   9.549   3.573
92140SOL    HW178253   6.457   9.558   3.487
92140SOL    HW278254   6.323   9.539   3.555
92141SOL     OW78255   6.640  10.457   3.101
92141SOL    HW178256   6.689  10.516   3.045
92141SOL    HW278257   6.677  10.370   3.083
92142SOL     OW78258   7.106   0.901  10.810
92142SOL    HW178259   7.086   0.843  10.884
92142SOL    HW278260   7.029   0.896  10.754
92143SOL     OW78261   6.802  13.066   9.854
92143SOL    HW178262   6.863  13.020   9.796
92143SOL    HW278263   6.764  12.998   9.909
92144SOL     OW78264   9.279   2.605   9.064
92144SOL    HW178265   9.363   2.560   9.073
92144SOL    HW278266   9.241   2.569   8.985
92145SOL     OW78267   9.332  13.304   9.001
92145SOL    HW178268   9.423  13.280   8.988
92145SOL    HW278269   9.322  13.387   8.953
92146SOL     OW78270  13.073   9.048   3.250
92146SOL    HW178271  12.998   8.989   3.246
92146SOL    HW278272  13.111   9.032   3.337
92147SOL     OW78273  11.285   8.750  12.159
92147SOL    HW178274  11.237   8.742  12.241
92147SOL    HW278275  11.221   8.731  12.091
92148SOL     OW78276   7.748  13.033   5.431
92148SOL    HW178277   7.791  13.078   5.359
92148SOL    HW278278   7.660  13.070   5.434
92149SOL     OW78279  12.182   8.280   4.621
92149SOL    HW178280  12.205   8.250   4.533
92149SOL    HW278281  12.087   8.285   4.620
92150SOL     OW78282   6.666   6.071   9.606
92150SOL    HW178283   6.733   6.140   9.601
92150SOL    HW278284   6.668   6.042   9.697
92151SOL     OW78285   9.862   5.463   6.632
92151SOL    HW178286   9.926   5.407   6.588
92151SOL    HW278287   9.857   5.541   6.576
92152SOL     OW78288  14.002   6.110   0.144
92152SOL    HW178289  13.972   6.116   0.235
92152SOL    HW278290  14.072   6.045   0.145
92153SOL     OW78291  13.827  12.037  13.455
92153SOL    HW178292  13.750  12.093  13.463
92153SOL    HW278293  13.889  12.073  13.519
92154SOL     OW78294   6.024   3.190  12.494
92154SOL    HW178295   5.943   3.204  12.445
92154SOL    HW278296   6.008   3.113  12.548
92155SOL     OW78297   2.625  13.019  10.438
92155SOL    HW178298   2.576  12.949  10.396
92155SOL    HW278299   2.675  12.976  10.507
92156SOL     OW78300   5.169   5.954   3.041
92156SOL    HW178301   5.236   6.000   3.091
92156SOL    HW278302   5.169   5.866   3.078
92157SOL     OW78303   1.183   1.922  13.851
92157SOL    HW178304   1.183   2.003  13.901
92157SOL    HW278305   1.125   1.863  13.899
92158SOL     OW78306  14.244  11.798  13.386
92158SOL    HW178307  14.241  11.848  13.467
92158SOL    HW278308  14.156  11.806  13.349
92159SOL     OW78309   8.768  14.056   3.359
92159SOL    HW178310   8.712  14.040   3.435
92159SOL    HW278311   8.811  13.972   3.344
92160SOL     OW78312   3.684  12.613   1.194
92160SOL    HW178313   3.679  12.583   1.103
92160SOL    HW278314   3.776  12.598   1.218
92161SOL     OW78315   2.200   4.902  10.151
92161SOL    HW178316   2.148   4.824  10.131
92161SOL    HW278317   2.138   4.961  10.193
92162SOL     OW78318   6.967   2.342  14.605
92162SOL    HW178319   7.015   2.263  14.630
92162SOL    HW278320   6.876   2.323  14.625
92163SOL     OW78321   3.318   4.254   6.523
92163SOL    HW178322   3.281   4.166   6.521
92163SOL    HW278323   3.407   4.244   6.489
92164SOL     OW78324  10.663  11.599   1.534
92164SOL    HW178325  10.630  11.689   1.531
92164SOL    HW278326  10.694  11.582   1.445
92165SOL     OW78327  10.344  10.080   6.425
92165SOL    HW178328  10.267  10.130   6.449
92165SOL    HW278329  10.373  10.119   6.342
92166SOL     OW78330   0.456   9.318   2.700
92166SOL    HW178331   0.529   9.281   2.750
92166SOL    HW278332   0.485   9.315   2.609
92167SOL     OW78333   4.266   8.204   6.319
92167SOL    HW178334   4.345   8.203   6.373
92167SOL    HW278335   4.228   8.116   6.331
92168SOL     OW78336   5.104   3.798  14.586
92168SOL    HW178337   5.179   3.791  14.645
92168SOL    HW278338   5.143   3.807  14.499
92169SOL     OW78339   4.326  10.325   4.822
92169SOL    HW178340   4.410  10.363   4.845
92169SOL    HW278341   4.338  10.292   4.733
92170SOL     OW78342  14.385   2.223   3.675
92170SOL    HW178343  14.459   2.206   3.733
92170SOL    HW278344  14.408   2.182   3.592
92171SOL     OW78345   1.763   3.930  13.134
92171SOL    HW178346   1.744   3.936  13.228
92171SOL    HW278347   1.819   4.006  13.116
92172SOL     OW78348   4.994   8.006   8.874
92172SOL    HW178349   4.999   7.911   8.890
92172SOL    HW278350   5.085   8.035   8.879
92173SOL     OW78351  14.530  12.949  12.491
92173SOL    HW178352  14.624  12.943  12.505
92173SOL    HW278353  14.515  12.907  12.407
92174SOL     OW78354  14.005  12.731   1.781
92174SOL    HW178355  13.950  12.681   1.721
92174SOL    HW278356  14.094  12.700   1.762
92175SOL     OW78357   7.668  11.603   4.839
92175SOL    HW178358   7.701  11.513   4.849
92175SOL    HW278359   7.646  11.630   4.928
92176SOL     OW78360  10.857   4.814   5.955
92176SOL    HW178361  10.848   4.722   5.928
92176SOL    HW278362  10.915   4.852   5.889
92177SOL     OW78363   9.421   0.695   4.360
92177SOL    HW178364   9.460   0.630   4.418
92177SOL    HW278365   9.481   0.700   4.285
92178SOL     OW78366  12.202  10.915   8.377
92178SOL    HW178367  12.166  10.907   8.288
92178SOL    HW278368  12.293  10.942   8.364
92179SOL     OW78369   7.946  13.375   6.429
92179SOL    HW178370   7.955  13.470   6.429
92179SOL    HW278371   7.855  13.359   6.404
92180SOL     OW78372   6.132   0.129   2.126
92180SOL    HW178373   6.092   0.196   2.182
92180SOL    HW278374   6.086   0.139   2.042
92181SOL     OW78375  12.506   2.836   2.819
92181SOL    HW178376  12.418   2.824   2.854
92181SOL    HW278377  12.518   2.931   2.816
92182SOL     OW78378   7.051  10.915   8.573
92182SOL    HW178379   7.038  10.900   8.480
92182SOL    HW278380   7.053  10.827   8.611
92183SOL     OW78381   9.012   3.892   1.277
92183SOL    HW178382   9.107   3.901   1.266
92183SOL    HW278383   8.983   3.853   1.194
92184SOL     OW78384   4.059   8.994  10.714
92184SOL    HW178385   4.010   8.915  10.736
92184SOL    HW278386   4.003   9.066  10.746
92185SOL     OW78387  10.356  13.754   6.331
92185SOL    HW178388  10.354  13.730   6.239
92185SOL    HW278389  10.309  13.838   6.335
92186SOL     OW78390   6.481   2.266   9.954
92186SOL    HW178391   6.537   2.188   9.950
92186SOL    HW278392   6.480   2.290  10.047
92187SOL     OW78393   1.815   5.896  13.011
92187SOL    HW178394   1.853   5.831  12.952
92187SOL    HW278395   1.752   5.846  13.064
92188SOL     OW78396  11.417  10.241   7.184
92188SOL    HW178397  11.447  10.321   7.141
92188SOL    HW278398  11.321  10.248   7.181
92189SOL     OW78399   3.565   2.871   7.593
92189SOL    HW178400   3.481   2.845   7.631
92189SOL    HW278401   3.626   2.802   7.621
92190SOL     OW78402   3.084   6.072   2.081
92190SOL    HW178403   3.167   6.065   2.035
92190SOL    HW278404   3.094   6.149   2.138
92191SOL     OW78405  14.813  12.585  10.751
92191SOL    HW178406  14.823  12.660  10.692
92191SOL    HW278407  14.770  12.622  10.828
92192SOL     OW78408   9.612   7.963   9.686
92192SOL    HW178409   9.667   7.928   9.616
92192SOL    HW278410   9.672   7.972   9.761
92193SOL     OW78411   0.547   8.556   3.773
92193SOL    HW178412   0.459   8.539   3.737
92193SOL    HW278413   0.597   8.478   3.752
92194SOL     OW78414   2.856   3.269  13.556
92194SOL    HW178415   2.874   3.352  13.600
92194SOL    HW278416   2.847   3.292  13.464
92195SOL     OW78417  13.807  14.367  11.161
92195SOL    HW178418  13.754  14.289  11.148
92195SOL    HW278419  13.748  14.440  11.139
92196SOL     OW78420  13.427  11.763   2.598
92196SOL    HW178421  13.512  11.732   2.627
92196SOL    HW278422  13.417  11.728   2.510
92197SOL     OW78423   4.968   2.669  11.791
92197SOL    HW178424   4.974   2.763  11.802
92197SOL    HW278425   5.055   2.642  11.761
92198SOL     OW78426  11.634  13.287  11.571
92198SOL    HW178427  11.569  13.291  11.642
92198SOL    HW278428  11.710  13.334  11.606
92199SOL     OW78429  12.564   6.148  12.597
92199SOL    HW178430  12.519   6.107  12.523
92199SOL    HW278431  12.533   6.100  12.674
92200SOL     OW78432  10.625   6.778   0.934
92200SOL    HW178433  10.574   6.853   0.961
92200SOL    HW278434  10.563   6.720   0.890
92201SOL     OW78435   1.071   0.501   7.047
92201SOL    HW178436   1.165   0.482   7.046
92201SOL    HW278437   1.056   0.556   6.970
92202SOL     OW78438  12.773  10.582   6.733
92202SOL    HW178439  12.760  10.616   6.822
92202SOL    HW278440  12.714  10.508   6.726
92203SOL     OW78441   2.538  11.905   6.479
92203SOL    HW178442   2.478  11.979   6.478
92203SOL    HW278443   2.503  11.845   6.412
92204SOL     OW78444   6.347  13.201   0.595
92204SOL    HW178445   6.402  13.125   0.573
92204SOL    HW278446   6.278  13.200   0.529
92205SOL     OW78447  14.687  14.875   1.471
92205SOL    HW178448  14.747   0.015   1.399
92205SOL    HW278449  14.678   0.078   1.519
92206SOL     OW78450   3.907  14.105   7.286
92206SOL    HW178451   3.901  14.013   7.311
92206SOL    HW278452   3.940  14.103   7.196
92207SOL     OW78453   8.966   7.076   9.040
92207SOL    HW178454   8.974   7.032   9.124
92207SOL    HW278455   8.896   7.028   8.995
92208SOL     OW78456   6.485  10.916  14.014
92208SOL    HW178457   6.469  10.864  14.092
92208SOL    HW278458   6.471  11.007  14.042
92209SOL     OW78459   1.107   8.987   9.999
92209SOL    HW178460   1.138   9.026   9.918
92209SOL    HW278461   1.085   9.062  10.055
92210SOL     OW78462   6.253   2.466   6.498
92210SOL    HW178463   6.186   2.501   6.439
92210SOL    HW278464   6.293   2.394   6.449
92211SOL     OW78465   3.707   2.020   6.643
92211SOL    HW178466   3.771   2.064   6.699
92211SOL    HW278467   3.653   1.969   6.703
92212SOL     OW78468   1.914   7.568   0.481
92212SOL    HW178469   1.894   7.516   0.403
92212SOL    HW278470   1.907   7.659   0.452
92213SOL     OW78471  11.249  14.450   0.855
92213SOL    HW178472  11.177  14.415   0.802
92213SOL    HW278473  11.228  14.424   0.945
92214SOL     OW78474   4.929  11.620  11.293
92214SOL    HW178475   4.938  11.582  11.205
92214SOL    HW278476   5.018  11.628  11.325
92215SOL     OW78477   2.951   3.132   1.850
92215SOL    HW178478   2.974   3.189   1.923
92215SOL    HW278479   3.034   3.093   1.823
92216SOL     OW78480   3.264  11.869   2.205
92216SOL    HW178481   3.187  11.924   2.193
92216SOL    HW278482   3.337  11.926   2.180
92217SOL     OW78483  12.398  14.259  13.756
92217SOL    HW178484  12.442  14.343  13.767
92217SOL    HW278485  12.361  14.263  13.668
92218SOL     OW78486   1.717   7.630   6.719
92218SOL    HW178487   1.632   7.669   6.740
92218SOL    HW278488   1.716   7.544   6.762
92219SOL     OW78489   2.138   9.746  14.602
92219SOL    HW178490   2.098   9.706  14.526
92219SOL    HW278491   2.093   9.830  14.612
92220SOL     OW78492   1.791  12.660   1.074
92220SOL    HW178493   1.774  12.629   0.985
92220SOL    HW278494   1.760  12.589   1.130
92221SOL     OW78495   2.942  12.027  10.082
92221SOL    HW178496   3.007  11.966  10.116
92221SOL    HW278497   2.981  12.061  10.002
92222SOL     OW78498  11.781   1.241   0.609
92222SOL    HW178499  11.735   1.325   0.614
92222SOL    HW278500  11.713   1.176   0.627
92223SOL     OW78501   3.114  10.500  12.892
92223SOL    HW178502   3.164  10.518  12.971
92223SOL    HW278503   3.137  10.410  12.869
92224SOL     OW78504  10.912   6.040   3.064
92224SOL    HW178505  10.838   5.990   3.099
92224SOL    HW278506  10.892   6.051   2.971
92225SOL     OW78507   1.086   4.618   8.113
92225SOL    HW178508   1.023   4.682   8.146
92225SOL    HW278509   1.171   4.658   8.129
92226SOL     OW78510   2.072   3.202   5.253
92226SOL    HW178511   2.164   3.200   5.280
92226SOL    HW278512   2.068   3.145   5.177
92227SOL     OW78513  14.547  11.434   8.098
92227SOL    HW178514  14.628  11.484   8.102
92227SOL    HW278515  14.558  11.365   8.164
92228SOL     OW78516   7.290  14.106   1.698
92228SOL    HW178517   7.349  14.131   1.770
92228SOL    HW278518   7.303  14.174   1.632
92229SOL     OW78519   5.930   8.966   6.926
92229SOL    HW178520   5.909   8.909   6.852
92229SOL    HW278521   5.992   9.030   6.892
92230SOL     OW78522   9.118  12.515   6.759
92230SOL    HW178523   9.093  12.457   6.830
92230SOL    HW278524   9.048  12.506   6.695
92231SOL     OW78525   5.737   6.127   9.524
92231SOL    HW178526   5.655   6.079   9.515
92231SOL    HW278527   5.788   6.078   9.588
92232SOL     OW78528   0.148  12.660   3.770
92232SOL    HW178529   0.243  12.654   3.766
92232SOL    HW278530   0.128  12.749   3.743
92233SOL     OW78531   3.128  13.183  11.033
92233SOL    HW178532   3.080  13.119  10.981
92233SOL    HW278533   3.153  13.136  11.113
92234SOL     OW78534   8.597   8.063  10.240
92234SOL    HW178535   8.601   8.008  10.317
92234SOL    HW278536   8.684   8.101  10.232
92235SOL     OW78537  13.566   7.157  12.562
92235SOL    HW178538  13.504   7.218  12.603
92235SOL    HW278539  13.641   7.156  12.621
92236SOL     OW78540   8.807  13.321   4.386
92236SOL    HW178541   8.742  13.264   4.428
92236SOL    HW278542   8.763  13.406   4.379
92237SOL     OW78543   3.601  13.860  13.632
92237SOL    HW178544   3.695  13.871  13.616
92237SOL    HW278545   3.585  13.902  13.716
92238SOL     OW78546   9.597   3.146  14.572
92238SOL    HW178547   9.662   3.119  14.637
92238SOL    HW278548   9.648   3.184  14.501
92239SOL     OW78549  12.832   5.537  14.026
92239SOL    HW178550  12.759   5.539  13.963
92239SOL    HW278551  12.829   5.623  14.069
92240SOL     OW78552  13.852  13.326   0.160
92240SOL    HW178553  13.877  13.411   0.124
92240SOL    HW278554  13.934  13.284   0.182
92241SOL     OW78555  12.449  11.586   9.591
92241SOL    HW178556  12.487  11.667   9.556
92241SOL    HW278557  12.430  11.606   9.682
92242SOL     OW78558  12.044   4.540  10.568
92242SOL    HW178559  11.950   4.532  10.554
92242SOL    HW278560  12.083   4.509  10.486
92243SOL     OW78561   6.231  12.264   8.399
92243SOL    HW178562   6.229  12.326   8.327
92243SOL    HW278563   6.264  12.183   8.360
92244SOL     OW78564   8.128   4.380  11.658
92244SOL    HW178565   8.048   4.381  11.605
92244SOL    HW278566   8.138   4.289  11.685
92245SOL     OW78567   9.906   3.499   4.036
92245SOL    HW178568   9.982   3.447   4.061
92245SOL    HW278569   9.872   3.533   4.119
92246SOL     OW78570   4.754   6.242  10.257
92246SOL    HW178571   4.833   6.256  10.309
92246SOL    HW278572   4.689   6.301  10.297
92247SOL     OW78573  11.032   7.308  13.263
92247SOL    HW178574  10.993   7.275  13.181
92247SOL    HW278575  11.077   7.389  13.237
92248SOL     OW78576  13.807   7.701   7.211
92248SOL    HW178577  13.844   7.718   7.298
92248SOL    HW278578  13.870   7.642   7.169
92249SOL     OW78579   1.670  10.599   4.389
92249SOL    HW178580   1.606  10.578   4.320
92249SOL    HW278581   1.755  10.590   4.346
92250SOL     OW78582   7.053  14.857   0.997
92250SOL    HW178583   7.002  14.845   1.077
92250SOL    HW278584   7.139  14.820   1.018
92251SOL     OW78585  13.125   5.063  14.644
92251SOL    HW178586  13.087   5.133  14.698
92251SOL    HW278587  13.156   5.109  14.566
92252SOL     OW78588   2.680   7.196  12.602
92252SOL    HW178589   2.686   7.282  12.644
92252SOL    HW278590   2.702   7.134  12.671
92253SOL     OW78591   4.973  11.960   5.733
92253SOL    HW178592   5.051  12.011   5.711
92253SOL    HW278593   4.899  12.016   5.708
92254SOL     OW78594   7.480   7.977  11.218
92254SOL    HW178595   7.469   7.883  11.234
92254SOL    HW278596   7.434   7.993  11.136
92255SOL     OW78597  13.902   0.207  14.369
92255SOL    HW178598  13.989   0.210  14.328
92255SOL    HW278599  13.921   0.210  14.463
92256SOL     OW78600   3.841  14.728   3.046
92256SOL    HW178601   3.854  14.763   2.958
92256SOL    HW278602   3.875  14.638   3.041
92257SOL     OW78603  14.304  14.223   6.570
92257SOL    HW178604  14.390  14.264   6.578
92257SOL    HW278605  14.246  14.294   6.542
92258SOL     OW78606   9.678   4.507  13.288
92258SOL    HW178607   9.593   4.492  13.329
92258SOL    HW278608   9.667   4.589  13.239
92259SOL     OW78609   6.006  10.483   8.264
92259SOL    HW178610   6.038  10.414   8.323
92259SOL    HW278611   5.967  10.436   8.191
92260SOL     OW78612  13.845   4.456  10.879
92260SOL    HW178613  13.777   4.449  10.947
92260SOL    HW278614  13.837   4.545  10.846
92261SOL     OW78615   9.643  14.740   3.196
92261SOL    HW178616   9.590  14.696   3.262
92261SOL    HW278617   9.733  14.722   3.221
92262SOL     OW78618   1.930   9.594   9.919
92262SOL    HW178619   1.957   9.548   9.839
92262SOL    HW278620   2.010   9.638   9.949
92263SOL     OW78621   7.534   2.203   1.590
92263SOL    HW178622   7.464   2.264   1.569
92263SOL    HW278623   7.489   2.127   1.627
92264SOL     OW78624   3.400  11.819  11.382
92264SOL    HW178625   3.310  11.790  11.368
92264SOL    HW278626   3.394  11.887  11.449
92265SOL     OW78627   8.043   0.260   2.033
92265SOL    HW178628   7.990   0.272   2.112
92265SOL    HW278629   7.994   0.197   1.981
92266SOL     OW78630   9.265  13.201   6.598
92266SOL    HW178631   9.361  13.193   6.600
92266SOL    HW278632   9.237  13.130   6.540
92267SOL     OW78633   6.923   4.984   2.370
92267SOL    HW178634   6.847   5.036   2.346
92267SOL    HW278635   6.911   4.901   2.323
92268SOL     OW78636   7.136  10.514  10.273
92268SOL    HW178637   7.127  10.529  10.179
92268SOL    HW278638   7.133  10.601  10.312
92269SOL     OW78639   6.420   7.675  12.785
92269SOL    HW178640   6.462   7.601  12.828
92269SOL    HW278641   6.360   7.635  12.721
92270SOL     OW78642   0.096   8.398  12.823
92270SOL    HW178643   0.008   8.402  12.787
92270SOL    HW278644   0.147   8.349  12.759
92271SOL     OW78645   9.570  10.916   3.105
92271SOL    HW178646   9.516  10.965   3.166
92271SOL    HW278647   9.647  10.972   3.092
92272SOL     OW78648  12.824   4.944   6.491
92272SOL    HW178649  12.775   5.025   6.504
92272SOL    HW278650  12.781   4.900   6.418
92273SOL     OW78651   5.892  13.955   7.051
92273SOL    HW178652   5.819  14.016   7.042
92273SOL    HW278653   5.938  13.959   6.967
92274SOL     OW78654  12.455   1.121   6.265
92274SOL    HW178655  12.533   1.090   6.218
92274SOL    HW278656  12.382   1.083   6.217
92275SOL     OW78657   9.045   2.062   0.222
92275SOL    HW178658   9.018   2.154   0.229
92275SOL    HW278659   9.054   2.033   0.312
92276SOL     OW78660  13.290   4.840   5.065
92276SOL    HW178661  13.219   4.877   5.118
92276SOL    HW278662  13.340   4.786   5.127
92277SOL     OW78663   1.396  10.891   7.009
92277SOL    HW178664   1.419  10.803   7.038
92277SOL    HW278665   1.474  10.944   7.025
92278SOL     OW78666   9.579   3.648  11.704
92278SOL    HW178667   9.526   3.603  11.770
92278SOL    HW278668   9.660   3.598  11.700
92279SOL     OW78669   0.170   5.476  13.583
92279SOL    HW178670   0.258   5.488  13.617
92279SOL    HW278671   0.164   5.383  13.564
92280SOL     OW78672   7.625   2.705   3.126
92280SOL    HW178673   7.603   2.663   3.043
92280SOL    HW278674   7.703   2.660   3.157
92281SOL     OW78675   9.842   4.596   1.944
92281SOL    HW178676   9.809   4.507   1.952
92281SOL    HW278677   9.893   4.596   1.863
92282SOL     OW78678  13.017  10.818   8.238
92282SOL    HW178679  12.925  10.792   8.230
92282SOL    HW278680  13.030  10.879   8.165
92283SOL     OW78681   6.708  13.410   0.888
92283SOL    HW178682   6.763  13.367   0.822
92283SOL    HW278683   6.620  13.376   0.872
92284SOL     OW78684   3.142   8.205   3.717
92284SOL    HW178685   3.060   8.243   3.685
92284SOL    HW278686   3.193   8.280   3.747
92285SOL     OW78687  10.416   7.819  11.028
92285SOL    HW178688  10.355   7.812  11.102
92285SOL    HW278689  10.405   7.909  10.997
92286SOL     OW78690   1.609   9.745   3.774
92286SOL    HW178691   1.662   9.728   3.851
92286SOL    HW278692   1.673   9.773   3.707
92287SOL     OW78693   7.367   2.148  10.583
92287SOL    HW178694   7.421   2.089  10.531
92287SOL    HW278695   7.353   2.224  10.527
92288SOL     OW78696   9.646  10.403   0.044
92288SOL    HW178697   9.640  10.469   0.113
92288SOL    HW278698   9.556  10.377   0.026
92289SOL     OW78699   3.383   0.081  13.371
92289SOL    HW178700   3.478   0.078  13.383
92289SOL    HW278701   3.362   0.004  13.319
92290SOL     OW78702   5.172   5.537  13.007
92290SOL    HW178703   5.259   5.574  12.989
92290SOL    HW278704   5.114   5.582  12.945
92291SOL     OW78705   0.040   9.114   5.613
92291SOL    HW178706  14.846   9.140   5.556
92291SOL    HW278707   0.118   9.140   5.564
92292SOL     OW78708  11.979   0.227   6.597
92292SOL    HW178709  12.063   0.273   6.602
92292SOL    HW278710  11.991   0.150   6.653
92293SOL     OW78711  12.990  14.770  13.712
92293SOL    HW178712  12.948  14.802  13.632
92293SOL    HW278713  12.975  14.839  13.776
92294SOL     OW78714   0.770   5.358  12.726
92294SOL    HW178715   0.782   5.453  12.734
92294SOL    HW278716   0.851   5.327  12.686
92295SOL     OW78717   0.395   1.235   4.969
92295SOL    HW178718   0.381   1.183   4.890
92295SOL    HW278719   0.481   1.275   4.958
92296SOL     OW78720   3.883   9.922   4.133
92296SOL    HW178721   3.952   9.953   4.192
92296SOL    HW278722   3.874   9.829   4.154
92297SOL     OW78723  12.707   6.326   6.690
92297SOL    HW178724  12.798   6.349   6.709
92297SOL    HW278725  12.709   6.230   6.680
92298SOL     OW78726   4.039   9.665   0.234
92298SOL    HW178727   4.091   9.734   0.194
92298SOL    HW278728   4.077   9.655   0.322
92299SOL     OW78729  12.494  11.090   0.600
92299SOL    HW178730  12.457  11.052   0.680
92299SOL    HW278731  12.428  11.154   0.572
92300SOL     OW78732   7.976   6.621   9.579
92300SOL    HW178733   7.893   6.663   9.601
92300SOL    HW278734   8.042   6.673   9.625
92301SOL     OW78735  14.869   2.175   1.092
92301SOL    HW178736  14.791   2.229   1.084
92301SOL    HW278737  14.837   2.085   1.092
92302SOL     OW78738  11.124   8.689  10.269
92302SOL    HW178739  11.216   8.669  10.251
92302SOL    HW278740  11.098   8.623  10.334
92303SOL     OW78741  12.838  10.467  11.934
92303SOL    HW178742  12.926  10.495  11.908
92303SOL    HW278743  12.849  10.433  12.023
92304SOL     OW78744   7.029   0.793   2.906
92304SOL    HW178745   6.974   0.749   2.841
92304SOL    HW278746   7.062   0.871   2.861
92305SOL     OW78747   3.727  10.168  10.428
92305SOL    HW178748   3.705  10.076  10.441
92305SOL    HW278749   3.813  10.166  10.385
92306SOL     OW78750   7.497   4.994   1.986
92306SOL    HW178751   7.506   5.052   2.061
92306SOL    HW278752   7.576   4.940   1.989
92307SOL     OW78753   7.310   9.953   1.357
92307SOL    HW178754   7.351  10.037   1.337
92307SOL    HW278755   7.251   9.937   1.283
92308SOL     OW78756   8.075  10.356  10.680
92308SOL    HW178757   8.131  10.388  10.751
92308SOL    HW278758   7.988  10.391  10.699
92309SOL     OW78759   5.368   1.273  12.606
92309SOL    HW178760   5.356   1.208  12.675
92309SOL    HW278761   5.445   1.323  12.633
92310SOL     OW78762  12.160   9.720   9.449
92310SOL    HW178763  12.186   9.670   9.372
92310SOL    HW278764  12.203   9.676   9.522
92311SOL     OW78765  14.782  14.299   6.997
92311SOL    HW178766  14.795  14.387   6.961
92311SOL    HW278767  14.813  14.306   7.088
92312SOL     OW78768  10.076  13.310   3.186
92312SOL    HW178769  10.156  13.362   3.190
92312SOL    HW278770  10.019  13.357   3.125
92313SOL     OW78771   4.138   1.744   2.511
92313SOL    HW178772   4.173   1.822   2.468
92313SOL    HW278773   4.170   1.750   2.601
92314SOL     OW78774  12.860   4.670  11.371
92314SOL    HW178775  12.925   4.639  11.308
92314SOL    HW278776  12.909   4.726  11.431
92315SOL     OW78777   5.617   2.525   8.064
92315SOL    HW178778   5.615   2.456   8.130
92315SOL    HW278779   5.679   2.493   7.998
92316SOL     OW78780   9.148  13.339   4.024
92316SOL    HW178781   9.054  13.354   4.022
92316SOL    HW278782   9.163  13.269   3.960
92317SOL     OW78783   8.045   7.369  13.888
92317SOL    HW178784   8.098   7.344  13.963
92317SOL    HW278785   8.084   7.452  13.858
92318SOL     OW78786   9.739   4.553   3.926
92318SOL    HW178787   9.832   4.536   3.938
92318SOL    HW278788   9.698   4.467   3.931
92319SOL     OW78789  11.632  14.637   2.503
92319SOL    HW178790  11.651  14.602   2.590
92319SOL    HW278791  11.593  14.723   2.520
92320SOL     OW78792   7.691  14.379   3.404
92320SOL    HW178793   7.604  14.381   3.445
92320SOL    HW278794   7.702  14.467   3.369
92321SOL     OW78795  13.114   6.955  14.216
92321SOL    HW178796  13.180   6.892  14.186
92321SOL    HW278797  13.125   6.957  14.311
92322SOL     OW78798   4.489  13.521  14.862
92322SOL    HW178799   4.548  13.538   0.056
92322SOL    HW278800   4.502  13.429  14.841
92323SOL     OW78801   5.179  12.528   3.004
92323SOL    HW178802   5.188  12.563   3.093
92323SOL    HW278803   5.258  12.555   2.958
92324SOL     OW78804   3.038   4.386   8.632
92324SOL    HW178805   3.057   4.305   8.584
92324SOL    HW278806   3.073   4.455   8.576
92325SOL     OW78807   1.266  13.699   8.816
92325SOL    HW178808   1.229  13.772   8.766
92325SOL    HW278809   1.190  13.653   8.852
92326SOL     OW78810  14.790  11.276   0.105
92326SOL    HW178811  14.766  11.315   0.021
92326SOL    HW278812  14.710  11.232   0.135
92327SOL     OW78813  11.843   6.881   6.795
92327SOL    HW178814  11.892   6.908   6.873
92327SOL    HW278815  11.846   6.957   6.737
92328SOL     OW78816   3.548   3.406   4.462
92328SOL    HW178817   3.508   3.351   4.396
92328SOL    HW278818   3.534   3.360   4.545
92329SOL     OW78819  11.858  14.342   7.738
92329SOL    HW178820  11.906  14.374   7.815
92329SOL    HW278821  11.822  14.258   7.765
92330SOL     OW78822   8.735   6.411   4.804
92330SOL    HW178823   8.820   6.440   4.836
92330SOL    HW278824   8.714   6.474   4.734
92331SOL     OW78825   2.343   5.901  12.813
92331SOL    HW178826   2.414   5.961  12.791
92331SOL    HW278827   2.374   5.854  12.890
92332SOL     OW78828   7.650  10.786   0.143
92332SOL    HW178829   7.667  10.869   0.188
92332SOL    HW278830   7.702  10.722   0.191
92333SOL     OW78831   1.286   6.511   4.442
92333SOL    HW178832   1.340   6.448   4.395
92333SOL    HW278833   1.197   6.476   4.437
92334SOL     OW78834   9.817   7.715   5.751
92334SOL    HW178835   9.826   7.665   5.670
92334SOL    HW278836   9.906   7.738   5.776
92335SOL     OW78837  12.568  12.614  10.296
92335SOL    HW178838  12.615  12.656  10.368
92335SOL    HW278839  12.540  12.685  10.239
92336SOL     OW78840   6.082   2.259   4.428
92336SOL    HW178841   6.072   2.354   4.433
92336SOL    HW278842   5.998   2.224   4.458
92337SOL     OW78843   4.815   2.122   2.727
92337SOL    HW178844   4.759   2.109   2.804
92337SOL    HW278845   4.899   2.149   2.764
92338SOL     OW78846   7.153   9.079  14.684
92338SOL    HW178847   7.221   9.011  14.681
92338SOL    HW278848   7.106   9.069  14.601
92339SOL     OW78849  14.631  11.757  12.745
92339SOL    HW178850  14.581  11.793  12.819
92339SOL    HW278851  14.684  11.687  12.784
92340SOL     OW78852   2.782   0.884   9.374
92340SOL    HW178853   2.731   0.854   9.299
92340SOL    HW278854   2.716   0.907   9.440
92341SOL     OW78855   3.564   5.464   0.404
92341SOL    HW178856   3.635   5.400   0.395
92341SOL    HW278857   3.489   5.423   0.362
92342SOL     OW78858  12.220   8.954   5.791
92342SOL    HW178859  12.269   8.990   5.864
92342SOL    HW278860  12.142   9.009   5.785
92343SOL     OW78861   7.027   1.552   2.889
92343SOL    HW178862   7.086   1.590   2.823
92343SOL    HW278863   6.977   1.626   2.922
92344SOL     OW78864  13.151  13.281  10.704
92344SOL    HW178865  13.077  13.340  10.689
92344SOL    HW278866  13.227  13.338  10.706
92345SOL     OW78867  12.225  10.067   2.466
92345SOL    HW178868  12.254   9.980   2.495
92345SOL    HW278869  12.238  10.123   2.543
92346SOL     OW78870   8.762  10.785   2.956
92346SOL    HW178871   8.851  10.779   2.991
92346SOL    HW278872   8.742  10.878   2.956
92347SOL     OW78873   8.205   3.270  12.364
92347SOL    HW178874   8.188   3.364  12.359
92347SOL    HW278875   8.193   3.250  12.457
92348SOL     OW78876  14.725   3.986   8.647
92348SOL    HW178877  14.773   3.945   8.575
92348SOL    HW278878  14.650   3.928   8.661
92349SOL     OW78879   7.851   7.279   2.593
92349SOL    HW178880   7.930   7.288   2.645
92349SOL    HW278881   7.837   7.184   2.586
92350SOL     OW78882   5.331   1.490   4.374
92350SOL    HW178883   5.302   1.402   4.348
92350SOL    HW278884   5.252   1.543   4.374
92351SOL     OW78885   7.521  10.038   8.777
92351SOL    HW178886   7.507  10.003   8.865
92351SOL    HW278887   7.497  10.130   8.784
92352SOL     OW78888   1.225   7.067  11.150
92352SOL    HW178889   1.268   7.047  11.234
92352SOL    HW278890   1.162   6.996  11.138
92353SOL     OW78891  14.632   1.415   0.163
92353SOL    HW178892  14.676   1.412   0.248
92353SOL    HW278893  14.623   1.323   0.137
92354SOL     OW78894  14.491  12.220  11.166
92354SOL    HW178895  14.451  12.157  11.107
92354SOL    HW278896  14.560  12.261  11.114
92355SOL     OW78897   7.664   0.836   7.459
92355SOL    HW178898   7.623   0.835   7.545
92355SOL    HW278899   7.594   0.861   7.399
92356SOL     OW78900   5.428  13.907   5.764
92356SOL    HW178901   5.489  13.888   5.835
92356SOL    HW278902   5.389  13.991   5.788
92357SOL     OW78903   7.873  12.144   5.098
92357SOL    HW178904   7.952  12.124   5.048
92357SOL    HW278905   7.801  12.134   5.035
92358SOL     OW78906  13.565  10.117  12.587
92358SOL    HW178907  13.634  10.175  12.555
92358SOL    HW278908  13.516  10.091  12.508
92359SOL     OW78909   1.480   1.633  11.279
92359SOL    HW178910   1.466   1.564  11.215
92359SOL    HW278911   1.550   1.687  11.243
92360SOL     OW78912   9.423   6.883   6.378
92360SOL    HW178913   9.386   6.965   6.347
92360SOL    HW278914   9.457   6.841   6.299
92361SOL     OW78915   6.757   3.714   8.183
92361SOL    HW178916   6.777   3.698   8.091
92361SOL    HW278917   6.785   3.634   8.228
92362SOL     OW78918  11.006  12.512  10.353
92362SOL    HW178919  10.981  12.559  10.273
92362SOL    HW278920  10.978  12.422  10.338
92363SOL     OW78921   4.538   7.394   1.334
92363SOL    HW178922   4.605   7.461   1.342
92363SOL    HW278923   4.498   7.409   1.249
92364SOL     OW78924   8.737   9.079  10.832
92364SOL    HW178925   8.829   9.056  10.819
92364SOL    HW278926   8.690   8.999  10.808
92365SOL     OW78927   4.229   2.277  14.336
92365SOL    HW178928   4.159   2.266  14.400
92365SOL    HW278929   4.185   2.302  14.256
92366SOL     OW78930   3.616   6.817  11.246
92366SOL    HW178931   3.652   6.748  11.190
92366SOL    HW278932   3.594   6.772  11.327
92367SOL     OW78933   1.553  11.682  10.027
92367SOL    HW178934   1.523  11.595  10.001
92367SOL    HW278935   1.632  11.697   9.974
92368SOL     OW78936  12.991  10.534   5.059
92368SOL    HW178937  12.907  10.498   5.088
92368SOL    HW278938  13.016  10.595   5.129
92369SOL     OW78939  12.394   3.356   6.184
92369SOL    HW178940  12.329   3.422   6.161
92369SOL    HW278941  12.379   3.284   6.122
92370SOL     OW78942  11.707  12.951   0.784
92370SOL    HW178943  11.636  12.928   0.844
92370SOL    HW278944  11.705  12.881   0.718
92371SOL     OW78945   5.088   7.999  11.061
92371SOL    HW178946   5.038   8.060  11.114
92371SOL    HW278947   5.152   8.053  11.014
92372SOL     OW78948   4.319   7.913   8.715
92372SOL    HW178949   4.327   8.000   8.755
92372SOL    HW278950   4.320   7.930   8.621
92373SOL     OW78951   8.471   8.077   7.672
92373SOL    HW178952   8.457   8.124   7.754
92373SOL    HW278953   8.561   8.096   7.648
92374SOL     OW78954   3.619   7.056  11.560
92374SOL    HW178955   3.699   7.050  11.509
92374SOL    HW278956   3.569   7.127  11.519
92375SOL     OW78957  11.636  12.368   2.846
92375SOL    HW178958  11.593  12.292   2.886
92375SOL    HW278959  11.589  12.443   2.883
92376SOL     OW78960  11.697   4.384   8.745
92376SOL    HW178961  11.609   4.414   8.726
92376SOL    HW278962  11.706   4.391   8.840
92377SOL     OW78963   6.847   4.786  13.809
92377SOL    HW178964   6.816   4.706  13.850
92377SOL    HW278965   6.855   4.764  13.716
92378SOL     OW78966   8.390   9.797  11.370
92378SOL    HW178967   8.447   9.863  11.410
92378SOL    HW278968   8.302   9.821  11.400
92379SOL     OW78969  14.058   3.268   4.749
92379SOL    HW178970  14.007   3.274   4.668
92379SOL    HW278971  14.149   3.264   4.719
92380SOL     OW78972   0.116   7.031  11.461
92380SOL    HW178973   0.055   6.959  11.476
92380SOL    HW278974   0.086   7.100  11.520
92381SOL     OW78975  12.284   3.829  11.539
92381SOL    HW178976  12.339   3.860  11.610
92381SOL    HW278977  12.280   3.902  11.478
92382SOL     OW78978  14.712   1.441   3.560
92382SOL    HW178979  14.618   1.455   3.562
92382SOL    HW278980  14.750   1.523   3.592
92383SOL     OW78981   2.144   9.835  12.627
92383SOL    HW178982   2.240   9.829  12.624
92383SOL    HW278983   2.114   9.749  12.598
92384SOL     OW78984  14.154   1.176  14.804
92384SOL    HW178985  14.065   1.150  14.827
92384SOL    HW278986  14.207   1.153   0.001
92385SOL     OW78987   3.451  11.378  14.354
92385SOL    HW178988   3.402  11.459  14.338
92385SOL    HW278989   3.403  11.336  14.425
92386SOL     OW78990  12.231   7.886  11.232
92386SOL    HW178991  12.229   7.907  11.325
92386SOL    HW278992  12.200   7.795  11.227
92387SOL     OW78993   3.249  12.181  14.285
92387SOL    HW178994   3.304  12.114  14.243
92387SOL    HW278995   3.163  12.171  14.244
92388SOL     OW78996   5.222  10.874   2.667
92388SOL    HW178997   5.264  10.960   2.660
92388SOL    HW278998   5.247  10.843   2.754
92389SOL     OW78999   0.189  14.531   7.847
92389SOL    HW179000   0.159  14.455   7.797
92389SOL    HW279001   0.284  14.528   7.842
92390SOL     OW79002   1.836  14.485   0.433
92390SOL    HW179003   1.832  14.432   0.353
92390SOL    HW279004   1.814  14.574   0.403
92391SOL     OW79005  12.101  12.254   2.718
92391SOL    HW179006  12.154  12.309   2.660
92391SOL    HW279007  12.160  12.183   2.744
92392SOL     OW79008   1.722   7.766   7.531
92392SOL    HW179009   1.720   7.689   7.474
92392SOL    HW279010   1.790   7.822   7.493
92393SOL     OW79011   7.261   4.967  12.775
92393SOL    HW179012   7.350   4.963  12.810
92393SOL    HW279013   7.225   5.048  12.810
92394SOL     OW79014  12.012   4.189   3.321
92394SOL    HW179015  11.958   4.262   3.350
92394SOL    HW279016  11.985   4.116   3.378
92395SOL     OW79017   1.679   0.123  11.620
92395SOL    HW179018   1.758   0.134  11.673
92395SOL    HW279019   1.691   0.039  11.577
92396SOL     OW79020  10.535   1.496  13.956
92396SOL    HW179021  10.605   1.541  14.004
92396SOL    HW279022  10.507   1.426  14.015
92397SOL     OW79023   8.308   9.834   8.193
92397SOL    HW179024   8.384   9.778   8.210
92397SOL    HW279025   8.249   9.779   8.141
92398SOL     OW79026  10.999   7.598  11.816
92398SOL    HW179027  11.028   7.507  11.803
92398SOL    HW279028  10.906   7.597  11.796
92399SOL     OW79029  11.687   3.420   9.600
92399SOL    HW179030  11.721   3.495   9.648
92399SOL    HW279031  11.615   3.454   9.547
92400SOL     OW79032   2.139   4.448  11.311
92400SOL    HW179033   2.155   4.418  11.222
92400SOL    HW279034   2.076   4.520  11.302
92401SOL     OW79035   3.598   9.630   5.407
92401SOL    HW179036   3.689   9.614   5.429
92401SOL    HW279037   3.590   9.725   5.404
92402SOL     OW79038   7.017   6.197   6.398
92402SOL    HW179039   7.005   6.238   6.483
92402SOL    HW279040   7.071   6.259   6.349
92403SOL     OW79041   6.611   7.974  11.694
92403SOL    HW179042   6.671   8.043  11.722
92403SOL    HW279043   6.627   7.965  11.600
92404SOL     OW79044   0.502  11.820  10.654
92404SOL    HW179045   0.429  11.764  10.626
92404SOL    HW279046   0.463  11.906  10.666
92405SOL     OW79047  13.240   5.213  12.516
92405SOL    HW179048  13.175   5.156  12.556
92405SOL    HW279049  13.295   5.241  12.590
92406SOL     OW79050  11.618   6.814  14.589
92406SOL    HW179051  11.680   6.748  14.619
92406SOL    HW279052  11.532   6.772  14.600
92407SOL     OW79053  10.290   2.139   3.091
92407SOL    HW179054  10.311   2.233   3.088
92407SOL    HW279055  10.375   2.096   3.100
92408SOL     OW79056   2.326   4.936   2.036
92408SOL    HW179057   2.302   5.027   2.023
92408SOL    HW279058   2.260   4.901   2.096
92409SOL     OW79059  12.095  11.296   7.150
92409SOL    HW179060  12.111  11.276   7.058
92409SOL    HW279061  12.002  11.319   7.154
92410SOL     OW79062   6.029  12.361   7.817
92410SOL    HW179063   5.984  12.277   7.827
92410SOL    HW279064   5.972  12.411   7.759
92411SOL     OW79065   7.887   5.007   6.819
92411SOL    HW179066   7.959   4.958   6.857
92411SOL    HW279067   7.836   4.941   6.771
92412SOL     OW79068   5.450   6.249   3.049
92412SOL    HW179069   5.420   6.191   3.119
92412SOL    HW279070   5.371   6.270   3.000
92413SOL     OW79071   2.117   9.261   4.394
92413SOL    HW179072   2.044   9.300   4.440
92413SOL    HW279073   2.100   9.279   4.301
92414SOL     OW79074   5.976  13.257  13.338
92414SOL    HW179075   5.890  13.261  13.380
92414SOL    HW279076   5.959  13.285  13.247
92415SOL     OW79077   2.374   7.567  14.059
92415SOL    HW179078   2.292   7.600  14.096
92415SOL    HW279079   2.391   7.623  13.984
92416SOL     OW79080   0.226  11.742   5.934
92416SOL    HW179081   0.155  11.721   5.995
92416SOL    HW279082   0.191  11.812   5.880
92417SOL     OW79083   4.244   4.202   7.702
92417SOL    HW179084   4.222   4.225   7.793
92417SOL    HW279085   4.329   4.244   7.686
92418SOL     OW79086   3.998  13.745   0.835
92418SOL    HW179087   4.085  13.706   0.827
92418SOL    HW279088   4.014  13.832   0.873
92419SOL     OW79089   4.697   2.901  11.577
92419SOL    HW179090   4.657   2.891  11.663
92419SOL    HW279091   4.694   2.814  11.539
92420SOL     OW79092  11.652  10.520  13.931
92420SOL    HW179093  11.709  10.540  14.005
92420SOL    HW279094  11.704  10.542  13.854
92421SOL     OW79095  12.409   0.022   9.940
92421SOL    HW179096  12.322   0.058   9.954
92421SOL    HW279097  12.439  14.876  10.027
92422SOL     OW79098  13.768   5.672   1.062
92422SOL    HW179099  13.777   5.684   1.157
92422SOL    HW279100  13.691   5.616   1.052
92423SOL     OW79101   4.663  12.618   0.676
92423SOL    HW179102   4.665  12.597   0.582
92423SOL    HW279103   4.604  12.693   0.682
92424SOL     OW79104  13.617   4.193   4.561
92424SOL    HW179105  13.668   4.241   4.627
92424SOL    HW279106  13.610   4.255   4.487
92425SOL     OW79107   6.862  14.259   9.068
92425SOL    HW179108   6.838  14.178   9.111
92425SOL    HW279109   6.953  14.274   9.091
92426SOL     OW79110  14.819   8.269   7.464
92426SOL    HW179111   0.005   8.317   7.413
92426SOL    HW279112  14.864   8.247   7.546
92427SOL     OW79113   5.903   2.681   4.891
92427SOL    HW179114   5.901   2.589   4.918
92427SOL    HW279115   5.814   2.712   4.905
92428SOL     OW79116   7.790  13.701  12.243
92428SOL    HW179117   7.885  13.707  12.240
92428SOL    HW279118   7.759  13.786  12.211
92429SOL     OW79119   6.615   4.268  14.780
92429SOL    HW179120   6.567   4.188  14.803
92429SOL    HW279121   6.703   4.255  14.816
92430SOL     OW79122  13.809  10.816  13.949
92430SOL    HW179123  13.835  10.790  13.860
92430SOL    HW279124  13.718  10.846  13.940
92431SOL     OW79125  11.728  12.496   9.411
92431SOL    HW179126  11.764  12.479   9.324
92431SOL    HW279127  11.805  12.513   9.465
92432SOL     OW79128  14.433   7.776  10.910
92432SOL    HW179129  14.343   7.749  10.930
92432SOL    HW279130  14.443   7.860  10.953
92433SOL     OW79131  12.252  12.579   5.009
92433SOL    HW179132  12.259  12.644   4.939
92433SOL    HW279133  12.171  12.532   4.990
92434SOL     OW79134   7.687   1.263   2.603
92434SOL    HW179135   7.664   1.197   2.669
92434SOL    HW279136   7.776   1.291   2.628
92435SOL     OW79137   4.849  14.115   2.401
92435SOL    HW179138   4.826  14.148   2.315
92435SOL    HW279139   4.871  14.023   2.387
92436SOL     OW79140  10.597  13.041  13.429
92436SOL    HW179141  10.563  12.999  13.350
92436SOL    HW279142  10.655  12.975  13.467
92437SOL     OW79143  14.553  13.797   0.852
92437SOL    HW179144  14.502  13.719   0.831
92437SOL    HW279145  14.551  13.850   0.772
92438SOL     OW79146   9.823  11.379  12.977
92438SOL    HW179147   9.865  11.316  12.918
92438SOL    HW279148   9.886  11.392  13.047
92439SOL     OW79149  14.486  11.004  12.984
92439SOL    HW179150  14.461  10.939  13.050
92439SOL    HW279151  14.529  11.073  13.034
92440SOL     OW79152  13.348   7.057   5.774
92440SOL    HW179153  13.424   7.106   5.803
92440SOL    HW279154  13.278   7.084   5.833
92441SOL     OW79155  12.708  11.042  13.002
92441SOL    HW179156  12.718  11.097  13.079
92441SOL    HW279157  12.783  10.982  13.005
92442SOL     OW79158   0.445  12.860   0.850
92442SOL    HW179159   0.371  12.911   0.820
92442SOL    HW279160   0.438  12.777   0.802
92443SOL     OW79161   6.061   2.297   5.980
92443SOL    HW179162   6.125   2.293   5.910
92443SOL    HW279163   6.006   2.373   5.958
92444SOL     OW79164   7.689  11.591   9.266
92444SOL    HW179165   7.696  11.683   9.238
92444SOL    HW279166   7.618  11.555   9.212
92445SOL     OW79167   5.396   1.319  12.929
92445SOL    HW179168   5.458   1.257  12.891
92445SOL    HW279169   5.442   1.357  13.003
92446SOL     OW79170   1.155   3.001   5.993
92446SOL    HW179171   1.137   3.079   6.045
92446SOL    HW279172   1.250   3.003   5.978
92447SOL     OW79173   1.272   0.407  12.956
92447SOL    HW179174   1.301   0.423  13.046
92447SOL    HW279175   1.244   0.492  12.924
92448SOL     OW79176   1.638   9.296   6.230
92448SOL    HW179177   1.662   9.210   6.267
92448SOL    HW279178   1.681   9.298   6.145
92449SOL     OW79179   5.309   0.815  13.886
92449SOL    HW179180   5.393   0.849  13.856
92449SOL    HW279181   5.320   0.803  13.980
92450SOL     OW79182   0.780  10.041   8.009
92450SOL    HW179183   0.748   9.965   7.961
92450SOL    HW279184   0.804  10.104   7.941
92451SOL     OW79185   1.763   5.096   6.366
92451SOL    HW179186   1.822   5.022   6.385
92451SOL    HW279187   1.800   5.136   6.288
92452SOL     OW79188  11.058  13.038   0.903
92452SOL    HW179189  11.122  13.083   0.849
92452SOL    HW279190  11.110  12.986   0.964
92453SOL     OW79191   4.800   3.706   1.623
92453SOL    HW179192   4.781   3.730   1.533
92453SOL    HW279193   4.892   3.731   1.636
92454SOL     OW79194  13.996  10.365   6.067
92454SOL    HW179195  14.005  10.410   5.983
92454SOL    HW279196  13.992  10.436   6.131
92455SOL     OW79197  14.293  13.083   7.106
92455SOL    HW179198  14.230  13.155   7.108
92455SOL    HW279199  14.276  13.038   7.023
92456SOL     OW79200   6.144   2.550  13.818
92456SOL    HW179201   6.176   2.469  13.860
92456SOL    HW279202   6.083   2.520  13.751
92457SOL     OW79203  13.140  14.574  13.451
92457SOL    HW179204  13.142  14.616  13.537
92457SOL    HW279205  13.100  14.488  13.468
92458SOL     OW79206   0.133   3.706   0.921
92458SOL    HW179207   0.149   3.799   0.911
92458SOL    HW279208   0.120   3.674   0.831
92459SOL     OW79209   5.778  11.925  14.587
92459SOL    HW179210   5.825  11.906  14.668
92459SOL    HW279211   5.799  11.852  14.529
92460SOL     OW79212  10.944   3.195   5.885
92460SOL    HW179213  10.967   3.147   5.805
92460SOL    HW279214  10.894   3.132   5.937
92461SOL     OW79215   0.784   0.864   6.325
92461SOL    HW179216   0.783   0.913   6.407
92461SOL    HW279217   0.693   0.836   6.313
92462SOL     OW79218   7.591   5.447   0.785
92462SOL    HW179219   7.630   5.534   0.795
92462SOL    HW279220   7.575   5.417   0.874
92463SOL     OW79221  10.087   3.018   7.890
92463SOL    HW179222  10.037   3.006   7.971
92463SOL    HW279223  10.178   3.024   7.918
92464SOL     OW79224   9.413   0.696  10.051
92464SOL    HW179225   9.442   0.751   9.978
92464SOL    HW279226   9.448   0.740  10.129
92465SOL     OW79227   9.552  10.541  12.283
92465SOL    HW179228   9.608  10.609  12.321
92465SOL    HW279229   9.567  10.464  12.339
92466SOL     OW79230   9.921   9.893  12.561
92466SOL    HW179231   9.884   9.870  12.476
92466SOL    HW279232   9.898   9.818  12.617
92467SOL     OW79233   8.764   8.542   8.109
92467SOL    HW179234   8.769   8.579   8.021
92467SOL    HW279235   8.673   8.553   8.135
92468SOL     OW79236   0.699   7.001   1.664
92468SOL    HW179237   0.620   6.979   1.614
92468SOL    HW279238   0.705   7.096   1.659
92469SOL     OW79239   6.021   8.881  13.380
92469SOL    HW179240   5.960   8.929  13.437
92469SOL    HW279241   5.997   8.908  13.291
92470SOL     OW79242   2.550  14.586   2.886
92470SOL    HW179243   2.519  14.519   2.825
92470SOL    HW279244   2.574  14.660   2.830
92471SOL     OW79245  13.584   9.383  13.682
92471SOL    HW179246  13.545   9.426  13.759
92471SOL    HW279247  13.552   9.293  13.687
92472SOL     OW79248   7.463   4.286   5.426
92472SOL    HW179249   7.449   4.192   5.441
92472SOL    HW279250   7.381   4.317   5.387
92473SOL     OW79251  10.682   6.009   8.614
92473SOL    HW179252  10.608   6.011   8.552
92473SOL    HW279253  10.652   5.953   8.685
92474SOL     OW79254  13.159   0.731   8.646
92474SOL    HW179255  13.164   0.710   8.553
92474SOL    HW279256  13.133   0.648   8.688
92475SOL     OW79257  10.852  13.131  10.237
92475SOL    HW179258  10.908  13.064  10.278
92475SOL    HW279259  10.855  13.110  10.144
92476SOL     OW79260  13.657  14.366   6.615
92476SOL    HW179261  13.702  14.446   6.590
92476SOL    HW279262  13.649  14.317   6.533
92477SOL     OW79263   6.660  13.456  11.219
92477SOL    HW179264   6.677  13.521  11.152
92477SOL    HW279265   6.566  13.462  11.236
92478SOL     OW79266   4.045   0.062   7.063
92478SOL    HW179267   4.024   0.063   6.969
92478SOL    HW279268   4.080  14.854   7.078
92479SOL     OW79269   1.711  14.072   9.850
92479SOL    HW179270   1.751  14.011   9.911
92479SOL    HW279271   1.681  14.018   9.777
92480SOL     OW79272  12.220  14.811   0.390
92480SOL    HW179273  12.126  14.809   0.407
92480SOL    HW279274  12.259  14.766   0.464
92481SOL     OW79275   3.272   1.787   9.139
92481SOL    HW179276   3.254   1.712   9.083
92481SOL    HW279277   3.280   1.861   9.078
92482SOL     OW79278   6.918   8.889   9.553
92482SOL    HW179279   6.977   8.838   9.608
92482SOL    HW279280   6.874   8.824   9.498
92483SOL     OW79281   1.477   9.265   7.371
92483SOL    HW179282   1.534   9.197   7.334
92483SOL    HW279283   1.407   9.217   7.414
92484SOL     OW79284   0.590   2.565   8.966
92484SOL    HW179285   0.504   2.541   8.932
92484SOL    HW279286   0.646   2.490   8.945
92485SOL     OW79287   6.552  10.487   4.695
92485SOL    HW179288   6.507  10.445   4.622
92485SOL    HW279289   6.587  10.415   4.747
92486SOL     OW79290   0.576  11.450  13.859
92486SOL    HW179291   0.529  11.523  13.818
92486SOL    HW279292   0.530  11.436  13.942
92487SOL     OW79293   9.408   0.243   1.455
92487SOL    HW179294   9.314   0.261   1.447
92487SOL    HW279295   9.448   0.299   1.388
92488SOL     OW79296   6.000   3.895  14.090
92488SOL    HW179297   5.961   3.961  14.148
92488SOL    HW279298   6.093   3.893  14.115
92489SOL     OW79299  12.540  12.566  14.391
92489SOL    HW179300  12.558  12.617  14.312
92489SOL    HW279301  12.579  12.480  14.373
92490SOL     OW79302   9.019   9.045   9.378
92490SOL    HW179303   8.930   9.027   9.347
92490SOL    HW279304   9.028   8.990   9.456
92491SOL     OW79305   6.516   6.942   0.831
92491SOL    HW179306   6.586   6.879   0.849
92491SOL    HW279307   6.562   7.023   0.811
92492SOL     OW79308   2.281   9.731   0.870
92492SOL    HW179309   2.366   9.742   0.829
92492SOL    HW279310   2.268   9.811   0.921
92493SOL     OW79311   0.632  13.506  10.823
92493SOL    HW179312   0.651  13.600  10.826
92493SOL    HW279313   0.716  13.463  10.835
92494SOL     OW79314   9.996   5.288   2.774
92494SOL    HW179315   9.927   5.231   2.739
92494SOL    HW279316   9.954   5.334   2.847
92495SOL     OW79317   6.434   0.251  10.684
92495SOL    HW179318   6.350   0.245  10.729
92495SOL    HW279319   6.449   0.162  10.651
92496SOL     OW79320  14.465   2.250  11.180
92496SOL    HW179321  14.394   2.217  11.236
92496SOL    HW279322  14.422   2.315  11.124
92497SOL     OW79323  10.137   1.848   0.798
92497SOL    HW179324  10.170   1.811   0.716
92497SOL    HW279325  10.049   1.810   0.807
92498SOL     OW79326   5.948   0.240   8.337
92498SOL    HW179327   6.029   0.190   8.327
92498SOL    HW279328   5.900   0.195   8.406
92499SOL     OW79329   5.096   7.133  10.631
92499SOL    HW179330   5.038   7.204  10.603
92499SOL    HW279331   5.159   7.124  10.559
92500SOL     OW79332  10.418  10.134  12.266
92500SOL    HW179333  10.509  10.149  12.241
92500SOL    HW279334  10.396  10.049  12.229
92501SOL     OW79335  14.172  10.045   4.301
92501SOL    HW179336  14.231   9.970   4.313
92501SOL    HW279337  14.151  10.073   4.389
92502SOL     OW79338  10.853  13.699  14.598
92502SOL    HW179339  10.900  13.772  14.639
92502SOL    HW279340  10.843  13.724  14.507
92503SOL     OW79341   2.113  13.251   3.276
92503SOL    HW179342   2.123  13.157   3.287
92503SOL    HW279343   2.048  13.260   3.206
92504SOL     OW79344   4.018   2.659  13.344
92504SOL    HW179345   3.994   2.639  13.253
92504SOL    HW279346   4.036   2.753  13.344
92505SOL     OW79347   7.253  13.034   4.876
92505SOL    HW179348   7.222  13.100   4.938
92505SOL    HW279349   7.220  12.951   4.911
92506SOL     OW79350   2.793   4.948   3.729
92506SOL    HW179351   2.816   4.879   3.667
92506SOL    HW279352   2.860   5.015   3.717
92507SOL     OW79353  11.346   3.035   3.014
92507SOL    HW179354  11.331   2.941   3.026
92507SOL    HW279355  11.436   3.050   3.042
92508SOL     OW79356   9.819   4.149  10.685
92508SOL    HW179357   9.756   4.112  10.622
92508SOL    HW279358   9.904   4.138  10.643
92509SOL     OW79359   2.896   2.666   0.842
92509SOL    HW179360   2.879   2.601   0.775
92509SOL    HW279361   2.858   2.630   0.922
92510SOL     OW79362   2.422   6.478  12.425
92510SOL    HW179363   2.438   6.389  12.396
92510SOL    HW279364   2.349   6.471  12.486
92511SOL     OW79365   3.923  10.385   1.647
92511SOL    HW179366   3.999  10.424   1.691
92511SOL    HW279367   3.869  10.459   1.622
92512SOL     OW79368  10.707   3.039  10.464
92512SOL    HW179369  10.733   3.122  10.505
92512SOL    HW279370  10.619   3.056  10.431
92513SOL     OW79371   9.266  13.813  11.711
92513SOL    HW179372   9.233  13.903  11.713
92513SOL    HW279373   9.354  13.821  11.674
92514SOL     OW79374   1.475   3.958  12.230
92514SOL    HW179375   1.556   3.937  12.183
92514SOL    HW279376   1.492   4.044  12.269
92515SOL     OW79377   2.429  12.476   0.862
92515SOL    HW179378   2.391  12.468   0.949
92515SOL    HW279379   2.490  12.403   0.856
92516SOL     OW79380   3.411   6.316  12.625
92516SOL    HW179381   3.388   6.378  12.556
92516SOL    HW279382   3.372   6.354  12.705
92517SOL     OW79383   5.524   8.530   2.150
92517SOL    HW179384   5.570   8.524   2.234
92517SOL    HW279385   5.475   8.611   2.155
92518SOL     OW79386   2.301   9.657   2.120
92518SOL    HW179387   2.280   9.564   2.109
92518SOL    HW279388   2.386   9.658   2.162
92519SOL     OW79389   3.364   2.960   0.791
92519SOL    HW179390   3.340   2.970   0.883
92519SOL    HW279391   3.331   2.874   0.767
92520SOL     OW79392   8.725   7.646   5.746
92520SOL    HW179393   8.760   7.634   5.657
92520SOL    HW279394   8.795   7.688   5.794
92521SOL     OW79395   0.610   2.672   1.177
92521SOL    HW179396   0.704   2.660   1.189
92521SOL    HW279397   0.586   2.739   1.242
92522SOL     OW79398  13.236  11.973   9.443
92522SOL    HW179399  13.317  12.006   9.481
92522SOL    HW279400  13.224  12.023   9.362
92523SOL     OW79401  12.377   5.289   0.750
92523SOL    HW179402  12.380   5.286   0.654
92523SOL    HW279403  12.409   5.203   0.778
92524SOL     OW79404   6.256   2.176   9.566
92524SOL    HW179405   6.220   2.254   9.523
92524SOL    HW279406   6.276   2.117   9.493
92525SOL     OW79407   7.179   4.735  12.886
92525SOL    HW179408   7.144   4.680  12.816
92525SOL    HW279409   7.190   4.821  12.845
92526SOL     OW79410   2.844   0.452   8.383
92526SOL    HW179411   2.860   0.358   8.373
92526SOL    HW279412   2.903   0.480   8.453
92527SOL     OW79413   4.513  12.886   9.489
92527SOL    HW179414   4.466  12.850   9.413
92527SOL    HW279415   4.488  12.829   9.562
92528SOL     OW79416   2.022  14.022  14.619
92528SOL    HW179417   1.936  14.052  14.589
92528SOL    HW279418   2.018  14.032  14.714
92529SOL     OW79419   5.881   4.210   7.981
92529SOL    HW179420   5.933   4.168   8.049
92529SOL    HW279421   5.896   4.304   7.993
92530SOL     OW79422  12.287  12.948   9.913
92530SOL    HW179423  12.280  13.043   9.902
92530SOL    HW279424  12.372  12.925   9.875
92531SOL     OW79425   0.738   4.533  10.939
92531SOL    HW179426   0.659   4.535  10.993
92531SOL    HW279427   0.765   4.624  10.931
92532SOL     OW79428   3.111   4.657  11.124
92532SOL    HW179429   3.199   4.647  11.088
92532SOL    HW279430   3.053   4.620  11.057
92533SOL     OW79431   1.354   1.420   7.203
92533SOL    HW179432   1.336   1.502   7.249
92533SOL    HW279433   1.444   1.398   7.226
92534SOL     OW79434   3.062  12.558  11.841
92534SOL    HW179435   3.006  12.483  11.823
92534SOL    HW279436   3.014  12.634  11.807
92535SOL     OW79437   9.400  13.958   4.409
92535SOL    HW179438   9.470  13.930   4.467
92535SOL    HW279439   9.403  13.897   4.335
92536SOL     OW79440  13.478  10.860  12.955
92536SOL    HW179441  13.451  10.918  13.026
92536SOL    HW279442  13.431  10.893  12.878
92537SOL     OW79443  12.590  13.660  11.912
92537SOL    HW179444  12.624  13.574  11.889
92537SOL    HW279445  12.660  13.702  11.962
92538SOL     OW79446   8.600   7.453   5.498
92538SOL    HW179447   8.597   7.358   5.489
92538SOL    HW279448   8.520   7.476   5.544
92539SOL     OW79449   4.890   2.301   0.804
92539SOL    HW179450   4.976   2.265   0.824
92539SOL    HW279451   4.898   2.330   0.713
92540SOL     OW79452   4.890   9.606   0.956
92540SOL    HW179453   4.798   9.627   0.943
92540SOL    HW279454   4.898   9.514   0.932
92541SOL     OW79455  14.567   6.070   8.286
92541SOL    HW179456  14.520   6.144   8.247
92541SOL    HW279457  14.657   6.102   8.296
92542SOL     OW79458   2.665  10.050   1.975
92542SOL    HW179459   2.618  10.039   2.058
92542SOL    HW279460   2.729  10.118   1.993
92543SOL     OW79461   1.495  13.920   0.882
92543SOL    HW179462   1.553  13.869   0.939
92543SOL    HW279463   1.407  13.897   0.912
92544SOL     OW79464   8.416  14.182  14.271
92544SOL    HW179465   8.504  14.214  14.250
92544SOL    HW279466   8.361  14.217  14.201
92545SOL     OW79467   6.837  13.050   7.870
92545SOL    HW179468   6.768  13.043   7.936
92545SOL    HW279469   6.859  13.143   7.867
92546SOL     OW79470   2.477   5.527  11.718
92546SOL    HW179471   2.516   5.604  11.758
92546SOL    HW279472   2.481   5.543  11.624
92547SOL     OW79473   8.941   1.767   4.647
92547SOL    HW179474   8.940   1.671   4.641
92547SOL    HW279475   8.947   1.796   4.556
92548SOL     OW79476  10.218   9.726   0.296
92548SOL    HW179477  10.248   9.807   0.336
92548SOL    HW279478  10.239   9.659   0.361
92549SOL     OW79479   1.951   0.225  14.713
92549SOL    HW179480   2.023   0.188  14.661
92549SOL    HW279481   1.931   0.157  14.777
92550SOL     OW79482   4.335   6.026   9.441
92550SOL    HW179483   4.267   6.092   9.429
92550SOL    HW279484   4.326   5.967   9.366
92551SOL     OW79485  13.874   1.436  13.624
92551SOL    HW179486  13.882   1.370  13.692
92551SOL    HW279487  13.827   1.392  13.553
92552SOL     OW79488   0.729  13.937   0.663
92552SOL    HW179489   0.787  13.969   0.595
92552SOL    HW279490   0.661  13.889   0.617
92553SOL     OW79491  13.235   3.119   1.179
92553SOL    HW179492  13.221   3.043   1.123
92553SOL    HW279493  13.169   3.182   1.152
92554SOL     OW79494   7.387   8.848   5.136
92554SOL    HW179495   7.331   8.837   5.212
92554SOL    HW279496   7.453   8.912   5.164
92555SOL     OW79497   5.013   9.396  10.899
92555SOL    HW179498   5.088   9.392  10.840
92555SOL    HW279499   4.957   9.323  10.871
92556SOL     OW79500   7.771   7.857   0.432
92556SOL    HW179501   7.722   7.827   0.356
92556SOL    HW279502   7.809   7.940   0.404
92557SOL     OW79503  13.147  11.323   4.491
92557SOL    HW179504  13.235  11.353   4.513
92557SOL    HW279505  13.136  11.345   4.399
92558SOL     OW79506  13.835   9.734   9.916
92558SOL    HW179507  13.867   9.824   9.919
92558SOL    HW279508  13.914   9.681   9.918
92559SOL     OW79509   2.851   3.706   3.826
92559SOL    HW179510   2.780   3.762   3.794
92559SOL    HW279511   2.891   3.671   3.747
92560SOL     OW79512   8.874  10.985  11.212
92560SOL    HW179513   8.808  10.932  11.168
92560SOL    HW279514   8.874  11.069  11.165
92561SOL     OW79515  10.514   7.839   8.149
92561SOL    HW179516  10.474   7.906   8.094
92561SOL    HW279517  10.442   7.805   8.201
92562SOL     OW79518   9.214   0.655  11.498
92562SOL    HW179519   9.299   0.694  11.521
92562SOL    HW279520   9.150   0.721  11.522
92563SOL     OW79521   8.571   9.533  11.987
92563SOL    HW179522   8.598   9.622  12.010
92563SOL    HW279523   8.511   9.546  11.913
92564SOL     OW79524  13.108   1.582   1.955
92564SOL    HW179525  13.101   1.678   1.958
92564SOL    HW279526  13.097   1.561   1.862
92565SOL     OW79527  13.921  13.641   5.280
92565SOL    HW179528  13.968  13.724   5.279
92565SOL    HW279529  13.975  13.583   5.334
92566SOL     OW79530   4.431   2.938   1.781
92566SOL    HW179531   4.462   2.864   1.729
92566SOL    HW279532   4.348   2.908   1.818
92567SOL     OW79533   7.408   9.287   3.377
92567SOL    HW179534   7.485   9.229   3.375
92567SOL    HW279535   7.354   9.252   3.447
92568SOL     OW79536   8.367  12.434   8.843
92568SOL    HW179537   8.280  12.401   8.820
92568SOL    HW279538   8.367  12.438   8.938
92569SOL     OW79539   9.560   1.754  13.599
92569SOL    HW179540   9.518   1.693  13.660
92569SOL    HW279541   9.590   1.698  13.527
92570SOL     OW79542  13.901  12.791   7.894
92570SOL    HW179543  13.893  12.723   7.827
92570SOL    HW279544  13.851  12.865   7.860
92571SOL     OW79545   1.755  10.331   5.701
92571SOL    HW179546   1.659  10.332   5.695
92571SOL    HW279547   1.774  10.321   5.794
92572SOL     OW79548   2.475   7.175   0.265
92572SOL    HW179549   2.506   7.172   0.355
92572SOL    HW279550   2.493   7.088   0.229
92573SOL     OW79551  13.551   7.638   7.730
92573SOL    HW179552  13.485   7.701   7.701
92573SOL    HW279553  13.547   7.642   7.825
92574SOL     OW79554   3.282  12.732  11.773
92574SOL    HW179555   3.247  12.818  11.748
92574SOL    HW279556   3.206  12.686  11.809
92575SOL     OW79557  10.566   0.907   9.178
92575SOL    HW179558  10.549   0.861   9.260
92575SOL    HW279559  10.548   0.843   9.110
92576SOL     OW79560  14.836   3.637  12.858
92576SOL    HW179561  14.797   3.598  12.780
92576SOL    HW279562   0.008   3.711  12.825
92577SOL     OW79563   5.509   6.773  10.306
92577SOL    HW179564   5.572   6.815  10.366
92577SOL    HW279565   5.529   6.680  10.311
92578SOL     OW79566   3.000   4.392   6.191
92578SOL    HW179567   2.937   4.398   6.120
92578SOL    HW279568   2.988   4.474   6.240
92579SOL     OW79569  14.639  11.234   2.551
92579SOL    HW179570  14.565  11.183   2.584
92579SOL    HW279571  14.656  11.198   2.464
92580SOL     OW79572   7.867  13.007  14.826
92580SOL    HW179573   7.938  12.983  14.767
92580SOL    HW279574   7.910  13.022   0.031
92581SOL     OW79575   2.446  11.496  12.011
92581SOL    HW179576   2.410  11.426  12.066
92581SOL    HW279577   2.531  11.515  12.050
92582SOL     OW79578   4.097   6.106   3.930
92582SOL    HW179579   4.189   6.088   3.912
92582SOL    HW279580   4.062   6.024   3.965
92583SOL     OW79581   3.729   9.490   7.164
92583SOL    HW179582   3.772   9.528   7.087
92583SOL    HW279583   3.690   9.565   7.209
92584SOL     OW79584  11.997   8.561   4.349
92584SOL    HW179585  11.981   8.476   4.390
92584SOL    HW279586  12.074   8.547   4.295
92585SOL     OW79587   3.051  14.707  14.658
92585SOL    HW179588   3.111  14.633  14.668
92585SOL    HW279589   2.982  14.674  14.600
92586SOL     OW79590   4.482   0.480   5.804
92586SOL    HW179591   4.435   0.563   5.794
92586SOL    HW279592   4.484   0.465   5.899
92587SOL     OW79593   9.868  13.768   5.224
92587SOL    HW179594   9.775  13.791   5.227
92587SOL    HW279595   9.869  13.672   5.222
92588SOL     OW79596  14.467  12.981   5.335
92588SOL    HW179597  14.522  12.918   5.289
92588SOL    HW279598  14.378  12.946   5.328
92589SOL     OW79599   6.235  10.880  12.885
92589SOL    HW179600   6.215  10.889  12.979
92589SOL    HW279601   6.330  10.874  12.881
92590SOL     OW79602   6.547   6.587  14.577
92590SOL    HW179603   6.472   6.634  14.541
92590SOL    HW279604   6.614   6.654  14.591
92591SOL     OW79605   3.947  11.182  13.016
92591SOL    HW179606   3.954  11.274  13.039
92591SOL    HW279607   4.038  11.151  13.014
92592SOL     OW79608  10.116   5.108   8.570
92592SOL    HW179609  10.151   5.049   8.503
92592SOL    HW279610  10.035   5.066   8.599
92593SOL     OW79611   6.917  11.000   4.575
92593SOL    HW179612   6.860  11.076   4.573
92593SOL    HW279613   6.894  10.952   4.495
92594SOL     OW79614   0.318   9.117   4.614
92594SOL    HW179615   0.399   9.067   4.607
92594SOL    HW279616   0.326   9.166   4.696
92595SOL     OW79617   8.932   4.342   6.747
92595SOL    HW179618   9.025   4.350   6.727
92595SOL    HW279619   8.894   4.425   6.719
92596SOL     OW79620   5.487   0.043  14.566
92596SOL    HW179621   5.437  14.847  14.534
92596SOL    HW279622   5.447   0.119  14.524
92597SOL     OW79623  12.656   1.181   9.763
92597SOL    HW179624  12.693   1.218   9.843
92597SOL    HW279625  12.732   1.153   9.712
92598SOL     OW79626   8.574   9.583   1.826
92598SOL    HW179627   8.513   9.640   1.874
92598SOL    HW279628   8.650   9.575   1.884
92599SOL     OW79629   6.468   1.114  10.860
92599SOL    HW179630   6.445   1.185  10.920
92599SOL    HW279631   6.487   1.157  10.777
92600SOL     OW79632  12.657  10.484  10.469
92600SOL    HW179633  12.650  10.461  10.377
92600SOL    HW279634  12.577  10.534  10.488
92601SOL     OW79635  12.225   8.123   4.389
92601SOL    HW179636  12.198   8.047   4.337
92601SOL    HW279637  12.319   8.111   4.402
92602SOL     OW79638  14.570   0.313  13.971
92602SOL    HW179639  14.553   0.277  14.058
92602SOL    HW279640  14.522   0.396  13.970
92603SOL     OW79641   6.132   5.116   5.968
92603SOL    HW179642   6.223   5.129   5.940
92603SOL    HW279643   6.104   5.201   6.000
92604SOL     OW79644   5.791   2.164  10.489
92604SOL    HW179645   5.790   2.070  10.473
92604SOL    HW279646   5.850   2.175  10.564
92605SOL     OW79647  11.851  11.797   6.463
92605SOL    HW179648  11.809  11.883   6.469
92605SOL    HW279649  11.920  11.800   6.531
92606SOL     OW79650   8.624   2.007  14.389
92606SOL    HW179651   8.618   1.988  14.296
92606SOL    HW279652   8.716   1.989  14.411
92607SOL     OW79653   7.255   4.800   1.627
92607SOL    HW179654   7.314   4.774   1.698
92607SOL    HW279655   7.188   4.732   1.625
92608SOL     OW79656   3.428  14.441   6.689
92608SOL    HW179657   3.496  14.458   6.624
92608SOL    HW279658   3.407  14.348   6.677
92609SOL     OW79659  12.254   9.463   1.270
92609SOL    HW179660  12.171   9.506   1.253
92609SOL    HW279661  12.240   9.372   1.242
92610SOL     OW79662   7.189   5.123   5.678
92610SOL    HW179663   7.223   5.095   5.763
92610SOL    HW279664   7.245   5.196   5.652
92611SOL     OW79665   3.571   2.948  11.364
92611SOL    HW179666   3.530   3.035  11.364
92611SOL    HW279667   3.567   2.920  11.455
92612SOL     OW79668   6.938   2.806  13.488
92612SOL    HW179669   6.998   2.775  13.421
92612SOL    HW279670   6.957   2.752  13.565
92613SOL     OW79671  10.588   5.959   8.080
92613SOL    HW179672  10.514   5.927   8.029
92613SOL    HW279673  10.594   6.052   8.058
92614SOL     OW79674   6.168  14.437   1.175
92614SOL    HW179675   6.175  14.531   1.162
92614SOL    HW279676   6.082  14.425   1.217
92615SOL     OW79677   1.674  10.875   4.026
92615SOL    HW179678   1.758  10.905   3.992
92615SOL    HW279679   1.687  10.867   4.120
92616SOL     OW79680  10.030  11.791   8.052
92616SOL    HW179681  10.010  11.775   7.960
92616SOL    HW279682  10.097  11.726   8.073
92617SOL     OW79683   8.534   4.604  12.717
92617SOL    HW179684   8.505   4.629  12.804
92617SOL    HW279685   8.629   4.595  12.725
92618SOL     OW79686   1.691   7.124   7.827
92618SOL    HW179687   1.725   7.037   7.851
92618SOL    HW279688   1.706   7.130   7.733
92619SOL     OW79689  11.966   0.029  12.077
92619SOL    HW179690  11.974  14.827  12.128
92619SOL    HW279691  12.022   0.014  12.001
92620SOL     OW79692  13.633   1.126  12.179
92620SOL    HW179693  13.569   1.141  12.248
92620SOL    HW279694  13.715   1.109  12.226
92621SOL     OW79695  13.925   6.697   8.850
92621SOL    HW179696  13.859   6.750   8.804
92621SOL    HW279697  13.946   6.627   8.789
92622SOL     OW79698  13.871  13.697   2.948
92622SOL    HW179699  13.805  13.749   2.993
92622SOL    HW279700  13.905  13.638   3.015
92623SOL     OW79701   6.167   9.406   1.694
92623SOL    HW179702   6.201   9.347   1.760
92623SOL    HW279703   6.175   9.357   1.612
92624SOL     OW79704  14.350  12.328  10.272
92624SOL    HW179705  14.337  12.394  10.341
92624SOL    HW279706  14.287  12.351  10.204
92625SOL     OW79707  13.406  13.852   0.023
92625SOL    HW179708  13.314  13.849   0.049
92625SOL    HW279709  13.439  13.934   0.060
92626SOL     OW79710   7.830  13.581   6.732
92626SOL    HW179711   7.786  13.508   6.689
92626SOL    HW279712   7.900  13.540   6.783
92627SOL     OW79713  12.256   4.629   4.919
92627SOL    HW179714  12.307   4.550   4.940
92627SOL    HW279715  12.323   4.696   4.905
92628SOL     OW79716   6.032  14.478   7.356
92628SOL    HW179717   6.121  14.474   7.323
92628SOL    HW279718   6.010  14.572   7.354
92629SOL     OW79719   8.586  10.318  12.280
92629SOL    HW179720   8.541  10.316  12.364
92629SOL    HW279721   8.573  10.231  12.243
92630SOL     OW79722  14.215   4.010   4.599
92630SOL    HW179723  14.147   3.984   4.661
92630SOL    HW279724  14.295   4.011   4.651
92631SOL     OW79725   3.355   7.245   9.051
92631SOL    HW179726   3.393   7.237   8.964
92631SOL    HW279727   3.296   7.319   9.046
92632SOL     OW79728  11.894   7.153   3.375
92632SOL    HW179729  11.920   7.196   3.294
92632SOL    HW279730  11.900   7.059   3.355
92633SOL     OW79731   1.084   0.422   0.615
92633SOL    HW179732   1.170   0.395   0.647
92633SOL    HW279733   1.071   0.508   0.654
92634SOL     OW79734   3.975   1.342   7.168
92634SOL    HW179735   4.051   1.390   7.136
92634SOL    HW279736   4.003   1.304   7.251
92635SOL     OW79737  11.678   8.016  13.049
92635SOL    HW179738  11.744   8.040  13.115
92635SOL    HW279739  11.699   7.926  13.026
92636SOL     OW79740  11.549   6.399   2.716
92636SOL    HW179741  11.494   6.475   2.694
92636SOL    HW279742  11.611   6.431   2.781
92637SOL     OW79743   7.886   1.004   8.778
92637SOL    HW179744   7.897   0.910   8.794
92637SOL    HW279745   7.798   1.011   8.740
92638SOL     OW79746   1.052  14.255   8.497
92638SOL    HW179747   1.124  14.239   8.436
92638SOL    HW279748   0.977  14.277   8.441
92639SOL     OW79749  12.213   7.953   7.574
92639SOL    HW179750  12.136   7.945   7.518
92639SOL    HW279751  12.205   7.881   7.636
92640SOL     OW79752   9.707   9.559  10.235
92640SOL    HW179753   9.741   9.584  10.321
92640SOL    HW279754   9.692   9.642  10.190
92641SOL     OW79755  12.938  10.265   4.027
92641SOL    HW179756  13.033  10.264   4.018
92641SOL    HW279757  12.923  10.283   4.120
92642SOL     OW79758   8.505   5.363   1.327
92642SOL    HW179759   8.556   5.332   1.402
92642SOL    HW279760   8.534   5.308   1.254
92643SOL     OW79761  14.412   7.599   3.948
92643SOL    HW179762  14.469   7.540   3.998
92643SOL    HW279763  14.324   7.568   3.966
92644SOL     OW79764   5.031   8.532   7.726
92644SOL    HW179765   5.021   8.525   7.631
92644SOL    HW279766   5.066   8.620   7.740
92645SOL     OW79767  10.261   5.622   1.096
92645SOL    HW179768  10.172   5.610   1.129
92645SOL    HW279769  10.316   5.613   1.174
92646SOL     OW79770  13.376   6.631   7.487
92646SOL    HW179771  13.446   6.656   7.427
92646SOL    HW279772  13.403   6.666   7.572
92647SOL     OW79773   7.965   7.212  14.766
92647SOL    HW179774   8.046   7.217  14.816
92647SOL    HW279775   7.993   7.203  14.675
92648SOL     OW79776   2.462   9.730   1.533
92648SOL    HW179777   2.372   9.697   1.539
92648SOL    HW279778   2.482   9.761   1.621
92649SOL     OW79779   1.376   1.204   0.204
92649SOL    HW179780   1.431   1.216   0.281
92649SOL    HW279781   1.388   1.112   0.180
92650SOL     OW79782   3.562  10.119   4.389
92650SOL    HW179783   3.572  10.075   4.304
92650SOL    HW279784   3.645  10.104   4.434
92651SOL     OW79785  13.794   7.738   7.666
92651SOL    HW179786  13.823   7.754   7.756
92651SOL    HW279787  13.700   7.719   7.674
92652SOL     OW79788   5.801   8.875   7.968
92652SOL    HW179789   5.762   8.948   8.014
92652SOL    HW279790   5.801   8.803   8.031
92653SOL     OW79791  13.173  14.155   3.936
92653SOL    HW179792  13.225  14.103   3.997
92653SOL    HW279793  13.085  14.157   3.974
92654SOL     OW79794   7.025  11.798  10.801
92654SOL    HW179795   6.997  11.712  10.831
92654SOL    HW279796   7.057  11.842  10.880
92655SOL     OW79797  13.734   4.980   8.154
92655SOL    HW179798  13.762   4.905   8.101
92655SOL    HW279799  13.777   4.966   8.239
92656SOL     OW79800   2.618  10.527   9.221
92656SOL    HW179801   2.702  10.485   9.239
92656SOL    HW279802   2.637  10.591   9.153
92657SOL     OW79803  12.099  13.788   4.062
92657SOL    HW179804  12.043  13.789   3.985
92657SOL    HW279805  12.039  13.778   4.135
92658SOL     OW79806   8.532  10.273   5.462
92658SOL    HW179807   8.475  10.198   5.477
92658SOL    HW279808   8.483  10.328   5.401
92659SOL     OW79809   3.009   3.485   7.482
92659SOL    HW179810   3.036   3.445   7.400
92659SOL    HW279811   2.927   3.530   7.460
92660SOL     OW79812   8.145  10.620   8.022
92660SOL    HW179813   8.135  10.708   8.057
92660SOL    HW279814   8.065  10.574   8.048
92661SOL     OW79815   0.016   2.216   0.285
92661SOL    HW179816  14.848   2.133   0.283
92661SOL    HW279817   0.034   2.232   0.378
92662SOL     OW79818   7.227  12.762   4.159
92662SOL    HW179819   7.290  12.788   4.093
92662SOL    HW279820   7.259  12.677   4.190
92663SOL     OW79821   5.043   8.987   7.690
92663SOL    HW179822   4.988   9.001   7.612
92663SOL    HW279823   5.133   9.001   7.658
92664SOL     OW79824   7.492   2.780  13.058
92664SOL    HW179825   7.536   2.740  12.983
92664SOL    HW279826   7.551   2.850  13.086
92665SOL     OW79827   8.209   8.535  11.945
92665SOL    HW179828   8.206   8.591  11.867
92665SOL    HW279829   8.293   8.488  11.938
92666SOL     OW79830  13.559   5.145  10.563
92666SOL    HW179831  13.598   5.154  10.476
92666SOL    HW279832  13.540   5.052  10.571
92667SOL     OW79833   3.264   8.475   7.168
92667SOL    HW179834   3.230   8.468   7.079
92667SOL    HW279835   3.221   8.405   7.217
92668SOL     OW79836   4.906   7.527   9.757
92668SOL    HW179837   4.967   7.476   9.704
92668SOL    HW279838   4.848   7.461   9.795
92669SOL     OW79839  14.118   7.877   2.507
92669SOL    HW179840  14.037   7.829   2.489
92669SOL    HW279841  14.187   7.811   2.505
92670SOL     OW79842   9.004  13.448   8.179
92670SOL    HW179843   9.048  13.426   8.262
92670SOL    HW279844   9.024  13.540   8.165
92671SOL     OW79845  10.109  11.363  10.131
92671SOL    HW179846  10.053  11.439  10.146
92671SOL    HW279847  10.157  11.353  10.214
92672SOL     OW79848   0.687   5.524   1.216
92672SOL    HW179849   0.685   5.516   1.311
92672SOL    HW279850   0.595   5.539   1.192
92673SOL     OW79851   2.408   2.151  12.573
92673SOL    HW179852   2.333   2.091  12.563
92673SOL    HW279853   2.426   2.151  12.667
92674SOL     OW79854   6.197   1.828   4.538
92674SOL    HW179855   6.271   1.878   4.504
92674SOL    HW279856   6.232   1.741   4.554
92675SOL     OW79857   3.102   4.838   3.024
92675SOL    HW179858   3.082   4.774   3.093
92675SOL    HW279859   3.090   4.788   2.943
92676SOL     OW79860  11.050   4.606   3.322
92676SOL    HW179861  11.125   4.656   3.289
92676SOL    HW279862  10.984   4.615   3.254
92677SOL     OW79863  13.587  14.699   2.495
92677SOL    HW179864  13.554  14.728   2.580
92677SOL    HW279865  13.644  14.625   2.515
92678SOL     OW79866   0.104   5.510  14.008
92678SOL    HW179867   0.182   5.495  13.956
92678SOL    HW279868   0.035   5.461  13.963
92679SOL     OW79869  14.155  11.054  11.462
92679SOL    HW179870  14.076  11.078  11.415
92679SOL    HW279871  14.227  11.080  11.404
92680SOL     OW79872  11.348  13.560   7.096
92680SOL    HW179873  11.266  13.591   7.055
92680SOL    HW279874  11.321  13.486   7.150
92681SOL     OW79875  10.033   3.339   2.480
92681SOL    HW179876   9.950   3.376   2.451
92681SOL    HW279877  10.014   3.301   2.566
92682SOL     OW79878  10.522   3.762   3.788
92682SOL    HW179879  10.553   3.671   3.786
92682SOL    HW279880  10.577   3.807   3.724
92683SOL     OW79881   1.082  11.556   2.902
92683SOL    HW179882   1.061  11.643   2.937
92683SOL    HW279883   1.029  11.496   2.955
92684SOL     OW79884   6.654   9.974   9.629
92684SOL    HW179885   6.597  10.048   9.608
92684SOL    HW279886   6.651   9.919   9.550
92685SOL     OW79887  11.424   5.145  10.640
92685SOL    HW179888  11.462   5.099  10.565
92685SOL    HW279889  11.465   5.232  10.639
92686SOL     OW79890  14.349   2.274  10.422
92686SOL    HW179891  14.367   2.264  10.516
92686SOL    HW279892  14.321   2.187  10.394
92687SOL     OW79893   5.985  14.489   1.724
92687SOL    HW179894   6.080  14.486   1.737
92687SOL    HW279895   5.974  14.529   1.637
92688SOL     OW79896   6.993   6.668   5.967
92688SOL    HW179897   7.038   6.590   5.932
92688SOL    HW279898   6.904   6.638   5.987
92689SOL     OW79899   7.858  14.273  12.521
92689SOL    HW179900   7.878  14.227  12.439
92689SOL    HW279901   7.809  14.350  12.493
92690SOL     OW79902   6.554   4.107   2.435
92690SOL    HW179903   6.610   4.162   2.381
92690SOL    HW279904   6.616   4.052   2.484
92691SOL     OW79905   8.371  11.273   0.080
92691SOL    HW179906   8.355  11.225  14.878
92691SOL    HW279907   8.387  11.205   0.145
92692SOL     OW79908   1.181  13.213  13.329
92692SOL    HW179909   1.116  13.170  13.384
92692SOL    HW279910   1.247  13.145  13.313
92693SOL     OW79911   5.347   1.921  14.772
92693SOL    HW179912   5.414   1.927  14.840
92693SOL    HW279913   5.389   1.957  14.694
92694SOL     OW79914   8.679  11.973   2.220
92694SOL    HW179915   8.716  12.060   2.237
92694SOL    HW279916   8.616  11.987   2.150
92695SOL     OW79917   0.286  10.316   3.834
92695SOL    HW179918   0.253  10.247   3.776
92695SOL    HW279919   0.366  10.346   3.793
92696SOL     OW79920   8.104   4.859   2.634
92696SOL    HW179921   8.085   4.816   2.551
92696SOL    HW279922   8.019   4.866   2.678
92697SOL     OW79923   9.975   8.355   2.063
92697SOL    HW179924  10.041   8.301   2.020
92697SOL    HW279925   9.982   8.332   2.156
92698SOL     OW79926  13.883   8.635   5.152
92698SOL    HW179927  13.967   8.620   5.108
92698SOL    HW279928  13.881   8.730   5.166
92699SOL     OW79929   9.706   9.481  10.963
92699SOL    HW179930   9.778   9.468  10.901
92699SOL    HW279931   9.703   9.576  10.976
92700SOL     OW79932  14.107  11.521   3.815
92700SOL    HW179933  14.192  11.477   3.815
92700SOL    HW279934  14.100  11.560   3.728
92701SOL     OW79935  12.530  14.336   5.345
92701SOL    HW179936  12.519  14.422   5.385
92701SOL    HW279937  12.547  14.278   5.419
92702SOL     OW79938   2.968  11.072   0.595
92702SOL    HW179939   2.891  11.118   0.630
92702SOL    HW279940   3.004  11.132   0.530
92703SOL     OW79941  14.256   3.711   4.843
92703SOL    HW179942  14.187   3.778   4.839
92703SOL    HW279943  14.239   3.664   4.925
92704SOL     OW79944   5.584   1.204   1.071
92704SOL    HW179945   5.646   1.271   1.102
92704SOL    HW279946   5.510   1.211   1.132
92705SOL     OW79947   1.264   1.775   9.180
92705SOL    HW179948   1.351   1.812   9.195
92705SOL    HW279949   1.211   1.850   9.152
92706SOL     OW79950   8.288   5.056  13.735
92706SOL    HW179951   8.369   5.063  13.786
92706SOL    HW279952   8.225   5.018  13.796
92707SOL     OW79953   6.853   4.892   2.998
92707SOL    HW179954   6.887   4.808   2.970
92707SOL    HW279955   6.931   4.945   3.016
92708SOL     OW79956   3.589   1.649   1.658
92708SOL    HW179957   3.647   1.708   1.609
92708SOL    HW279958   3.614   1.562   1.629
92709SOL     OW79959  12.117  10.950   5.808
92709SOL    HW179960  12.058  11.012   5.764
92709SOL    HW279961  12.058  10.892   5.857
92710SOL     OW79962   3.882  14.258  12.548
92710SOL    HW179963   3.792  14.288  12.542
92710SOL    HW279964   3.934  14.330  12.511
92711SOL     OW79965   4.949   3.744   4.138
92711SOL    HW179966   4.928   3.772   4.049
92711SOL    HW279967   5.012   3.673   4.127
92712SOL     OW79968  12.954   7.610   6.564
92712SOL    HW179969  12.910   7.541   6.515
92712SOL    HW279970  13.001   7.564   6.633
92713SOL     OW79971   5.100   4.136  11.690
92713SOL    HW179972   5.032   4.076  11.661
92713SOL    HW279973   5.066   4.173  11.772
92714SOL     OW79974   6.805  10.470   9.383
92714SOL    HW179975   6.733  10.517   9.341
92714SOL    HW279976   6.786  10.378   9.367
92715SOL     OW79977   0.469   1.513  12.604
92715SOL    HW179978   0.548   1.546  12.560
92715SOL    HW279979   0.487   1.526  12.697
92716SOL     OW79980   5.107   1.670   4.293
92716SOL    HW179981   5.070   1.628   4.215
92716SOL    HW279982   5.051   1.747   4.307
92717SOL     OW79983   1.599  14.459   0.171
92717SOL    HW179984   1.594  14.532   0.110
92717SOL    HW279985   1.668  14.402   0.135
92718SOL     OW79986   5.452  12.695   7.680
92718SOL    HW179987   5.538  12.657   7.700
92718SOL    HW279988   5.393  12.655   7.744
92719SOL     OW79989   7.279   6.981   9.232
92719SOL    HW179990   7.205   7.024   9.191
92719SOL    HW279991   7.253   6.889   9.240
92720SOL     OW79992   4.330   7.308   1.515
92720SOL    HW179993   4.351   7.369   1.585
92720SOL    HW279994   4.393   7.327   1.445
92721SOL     OW79995  13.472   3.602  11.810
92721SOL    HW179996  13.492   3.555  11.891
92721SOL    HW279997  13.425   3.680  11.840
92722SOL     OW79998   9.946   0.523   2.927
92722SOL    HW179999   9.921   0.434   2.902
92722SOL    HW280000  10.036   0.514   2.961
92723SOL     OW80001  12.371   9.377   6.753
92723SOL    HW180002  12.312   9.343   6.686
92723SOL    HW280003  12.432   9.305   6.769
92724SOL     OW80004   9.532   9.942   0.009
92724SOL    HW180005   9.466   9.943  14.819
92724SOL    HW280006   9.569  10.030   0.007
92725SOL     OW80007   6.363   8.654   0.572
92725SOL    HW180008   6.352   8.564   0.540
92725SOL    HW280009   6.302   8.660   0.646
92726SOL     OW80010   8.878   8.704  10.866
92726SOL    HW180011   8.922   8.789  10.861
92726SOL    HW280012   8.937   8.643  10.822
92727SOL     OW80013   1.473   0.060   1.088
92727SOL    HW180014   1.385   0.093   1.068
92727SOL    HW280015   1.458  14.854   1.128
92728SOL     OW80016   5.832   9.615   8.603
92728SOL    HW180017   5.844   9.568   8.521
92728SOL    HW280018   5.914   9.603   8.650
92729SOL     OW80019   8.542   5.832   8.517
92729SOL    HW180020   8.468   5.860   8.463
92729SOL    HW280021   8.549   5.899   8.584
92730SOL     OW80022  12.687   1.932   1.054
92730SOL    HW180023  12.751   1.966   0.990
92730SOL    HW280024  12.615   1.995   1.050
92731SOL     OW80025  14.464   5.247  10.358
92731SOL    HW180026  14.498   5.326  10.316
92731SOL    HW280027  14.390   5.221  10.302
92732SOL     OW80028   0.855   3.222   8.202
92732SOL    HW180029   0.868   3.146   8.259
92732SOL    HW280030   0.820   3.185   8.121
92733SOL     OW80031   3.719   9.363   1.401
92733SOL    HW180032   3.728   9.404   1.315
92733SOL    HW280033   3.786   9.404   1.455
92734SOL     OW80034   7.251  14.746  10.335
92734SOL    HW180035   7.313  14.810  10.368
92734SOL    HW280036   7.169  14.767  10.378
92735SOL     OW80037   2.260   4.875   3.173
92735SOL    HW180038   2.181   4.924   3.148
92735SOL    HW280039   2.272   4.896   3.266
92736SOL     OW80040   3.198   6.072  14.201
92736SOL    HW180041   3.163   6.064  14.289
92736SOL    HW280042   3.149   6.008  14.149
92737SOL     OW80043   5.120   2.928   2.457
92737SOL    HW180044   5.102   3.008   2.506
92737SOL    HW280045   5.121   2.956   2.365
92738SOL     OW80046   7.594   4.558   8.228
92738SOL    HW180047   7.622   4.618   8.297
92738SOL    HW280048   7.534   4.609   8.174
92739SOL     OW80049  14.863   2.493   8.312
92739SOL    HW180050  14.855   2.489   8.408
92739SOL    HW280051   0.070   2.531   8.297
92740SOL     OW80052  13.545  11.786  12.827
92740SOL    HW180053  13.458  11.826  12.836
92740SOL    HW280054  13.527  11.696  12.800
92741SOL     OW80055   4.561   5.521   4.378
92741SOL    HW180056   4.641   5.472   4.358
92741SOL    HW280057   4.557   5.589   4.310
92742SOL     OW80058  13.326   2.864   2.245
92742SOL    HW180059  13.405   2.900   2.203
92742SOL    HW280060  13.262   2.861   2.174
92743SOL     OW80061  10.149   2.016   6.533
92743SOL    HW180062  10.165   2.075   6.607
92743SOL    HW280063  10.060   1.983   6.548
92744SOL     OW80064   7.291   7.459   3.372
92744SOL    HW180065   7.376   7.420   3.394
92744SOL    HW280066   7.243   7.458   3.455
92745SOL     OW80067   9.046  11.580  12.856
92745SOL    HW180068   9.135  11.565  12.887
92745SOL    HW280069   8.993  11.515  12.903
92746SOL     OW80070   9.012   4.918   2.987
92746SOL    HW180071   8.934   4.973   2.996
92746SOL    HW280072   9.071   4.950   3.055
92747SOL     OW80073   2.460   9.134   7.115
92747SOL    HW180074   2.374   9.097   7.135
92747SOL    HW280075   2.443   9.227   7.100
92748SOL     OW80076   9.051  14.589  11.779
92748SOL    HW180077   9.130  14.538  11.762
92748SOL    HW280078   9.060  14.620  11.869
92749SOL     OW80079   1.892   9.991   2.038
92749SOL    HW180080   1.974   9.978   2.087
92749SOL    HW280081   1.880   9.910   1.990
92750SOL     OW80082  11.280   1.801   6.624
92750SOL    HW180083  11.270   1.837   6.712
92750SOL    HW280084  11.284   1.706   6.637
92751SOL     OW80085   7.697   3.413   3.712
92751SOL    HW180086   7.775   3.449   3.755
92751SOL    HW280087   7.634   3.484   3.713
92752SOL     OW80088  10.071  13.403   2.248
92752SOL    HW180089  10.132  13.387   2.319
92752SOL    HW280090   9.999  13.341   2.263
92753SOL     OW80091  12.179  14.435  10.381
92753SOL    HW180092  12.181  14.452  10.475
92753SOL    HW280093  12.272  14.431  10.355
92754SOL     OW80094   6.446   4.998   5.329
92754SOL    HW180095   6.409   4.935   5.392
92754SOL    HW280096   6.541   4.994   5.345
92755SOL     OW80097   3.018  13.017   3.523
92755SOL    HW180098   3.025  13.048   3.433
92755SOL    HW280099   3.061  13.084   3.575
92756SOL     OW80100   2.890  10.287   8.917
92756SOL    HW180101   2.881  10.332   8.833
92756SOL    HW280102   2.934  10.350   8.974
92757SOL     OW80103   3.070   7.973   3.891
92757SOL    HW180104   3.106   8.056   3.859
92757SOL    HW280105   3.103   7.908   3.830
92758SOL     OW80106   9.550   5.236   5.638
92758SOL    HW180107   9.468   5.191   5.618
92758SOL    HW280108   9.616   5.187   5.591
92759SOL     OW80109   0.871   7.494  14.418
92759SOL    HW180110   0.782   7.507  14.387
92759SOL    HW280111   0.864   7.427  14.486
92760SOL     OW80112  14.446   1.536   3.604
92760SOL    HW180113  14.374   1.575   3.654
92760SOL    HW280114  14.502   1.611   3.582
92761SOL     OW80115  10.028  14.528   1.040
92761SOL    HW180116   9.940  14.503   1.066
92761SOL    HW280117  10.036  14.620   1.068
92762SOL     OW80118  11.483   8.804   6.727
92762SOL    HW180119  11.482   8.708   6.731
92762SOL    HW280120  11.532   8.825   6.648
92763SOL     OW80121   4.734   1.706  13.221
92763SOL    HW180122   4.796   1.751  13.278
92763SOL    HW280123   4.649   1.715  13.264
92764SOL     OW80124   4.637   9.335   7.010
92764SOL    HW180125   4.614   9.322   6.918
92764SOL    HW280126   4.729   9.361   7.009
92765SOL     OW80127   7.101   3.761   9.983
92765SOL    HW180128   7.164   3.790   9.917
92765SOL    HW280129   7.154   3.717  10.049
92766SOL     OW80130   8.453  11.550   0.853
92766SOL    HW180131   8.510  11.582   0.783
92766SOL    HW280132   8.496  11.470   0.884
92767SOL     OW80133  11.634  12.463   8.629
92767SOL    HW180134  11.631  12.375   8.591
92767SOL    HW280135  11.681  12.452   8.712
92768SOL     OW80136   2.030  11.593   3.764
92768SOL    HW180137   1.975  11.573   3.688
92768SOL    HW280138   1.979  11.655   3.816
92769SOL     OW80139   9.794  12.196   5.218
92769SOL    HW180140   9.747  12.264   5.171
92769SOL    HW280141   9.835  12.143   5.149
92770SOL     OW80142   8.309   1.787   2.784
92770SOL    HW180143   8.283   1.844   2.710
92770SOL    HW280144   8.280   1.700   2.758
92771SOL     OW80145  14.811   7.843  11.965
92771SOL    HW180146  14.853   7.762  11.996
92771SOL    HW280147  14.722   7.816  11.944
92772SOL     OW80148   8.278  11.170  10.124
92772SOL    HW180149   8.259  11.136  10.037
92772SOL    HW280150   8.280  11.093  10.181
92773SOL     OW80151   2.607   8.965   6.243
92773SOL    HW180152   2.659   8.885   6.253
92773SOL    HW280153   2.631   9.019   6.318
92774SOL     OW80154   1.364   5.298  11.373
92774SOL    HW180155   1.334   5.262  11.456
92774SOL    HW280156   1.285   5.310  11.321
92775SOL     OW80157  13.177  13.190   1.261
92775SOL    HW180158  13.193  13.275   1.219
92775SOL    HW280159  13.263  13.161   1.290
92776SOL     OW80160   7.543   2.629  12.823
92776SOL    HW180161   7.512   2.552  12.870
92776SOL    HW280162   7.616   2.598  12.771
92777SOL     OW80163   6.570   4.849   3.406
92777SOL    HW180164   6.529   4.782   3.351
92777SOL    HW280165   6.647   4.877   3.357
92778SOL     OW80166  14.345  12.168   8.947
92778SOL    HW180167  14.347  12.083   8.902
92778SOL    HW280168  14.267  12.212   8.913
92779SOL     OW80169   8.144   6.996   7.321
92779SOL    HW180170   8.211   7.040   7.269
92779SOL    HW280171   8.179   6.908   7.335
92780SOL     OW80172   4.918   7.290  11.249
92780SOL    HW180173   4.845   7.351  11.262
92780SOL    HW280174   4.934   7.292  11.155
92781SOL     OW80175   3.806  11.060  12.269
92781SOL    HW180176   3.854  11.120  12.326
92781SOL    HW280177   3.787  10.984  12.324
92782SOL     OW80178   5.972  10.794   2.247
92782SOL    HW180179   6.032  10.824   2.179
92782SOL    HW280180   6.020  10.806   2.329
92783SOL     OW80181   3.255   4.042   3.517
92783SOL    HW180182   3.286   3.963   3.563
92783SOL    HW280183   3.308   4.045   3.437
92784SOL     OW80184  14.399   2.145   5.867
92784SOL    HW180185  14.488   2.180   5.853
92784SOL    HW280186  14.406   2.095   5.948
92785SOL     OW80187  11.365   1.117  13.524
92785SOL    HW180188  11.436   1.054  13.536
92785SOL    HW280189  11.357   1.127  13.429
92786SOL     OW80190  11.833  13.529   8.595
92786SOL    HW180191  11.830  13.448   8.543
92786SOL    HW280192  11.919  13.566   8.576
92787SOL     OW80193   0.827   7.958   7.008
92787SOL    HW180194   0.815   8.049   7.038
92787SOL    HW280195   0.789   7.957   6.921
92788SOL     OW80196   3.094   5.945   1.642
92788SOL    HW180197   3.047   5.970   1.722
92788SOL    HW280198   3.026   5.916   1.582
92789SOL     OW80199   1.471   4.326  12.168
92789SOL    HW180200   1.412   4.259  12.202
92789SOL    HW280201   1.559   4.291  12.183
92790SOL     OW80202  13.390   4.425   9.769
92790SOL    HW180203  13.309   4.469   9.794
92790SOL    HW280204  13.445   4.495   9.732
92791SOL     OW80205  10.685   4.743   4.539
92791SOL    HW180206  10.732   4.668   4.577
92791SOL    HW280207  10.647   4.788   4.614
92792SOL     OW80208  11.756  10.305  13.708
92792SOL    HW180209  11.766  10.395  13.678
92792SOL    HW280210  11.714  10.312  13.793
92793SOL     OW80211  11.957  10.706   8.509
92793SOL    HW180212  11.940  10.781   8.567
92793SOL    HW280213  11.970  10.745   8.423
92794SOL     OW80214   2.290  13.243   7.853
92794SOL    HW180215   2.326  13.332   7.845
92794SOL    HW280216   2.199  13.257   7.880
92795SOL     OW80217   5.292   2.769   9.095
92795SOL    HW180218   5.213   2.715   9.103
92795SOL    HW280219   5.275   2.845   9.150
92796SOL     OW80220   8.854  14.156  12.919
92796SOL    HW180221   8.947  14.142  12.936
92796SOL    HW280222   8.811  14.080  12.960
92797SOL     OW80223  12.198   5.997   6.963
92797SOL    HW180224  12.288   5.986   6.932
92797SOL    HW280225  12.195   6.088   6.993
92798SOL     OW80226   0.549   8.683  13.119
92798SOL    HW180227   0.477   8.630  13.153
92798SOL    HW280228   0.624   8.623  13.117
92799SOL     OW80229   3.426  10.159   0.931
92799SOL    HW180230   3.454  10.250   0.944
92799SOL    HW280231   3.487  10.124   0.866
92800SOL     OW80232  10.224   8.259   4.234
92800SOL    HW180233  10.277   8.328   4.272
92800SOL    HW280234  10.142   8.262   4.284
92801SOL     OW80235   2.258   9.823   6.028
92801SOL    HW180236   2.221   9.851   5.944
92801SOL    HW280237   2.346   9.859   6.029
92802SOL     OW80238  14.726  11.615   4.634
92802SOL    HW180239  14.679  11.694   4.610
92802SOL    HW280240  14.664  11.544   4.615
92803SOL     OW80241   5.751   2.593   3.112
92803SOL    HW180242   5.809   2.600   3.036
92803SOL    HW280243   5.783   2.661   3.172
92804SOL     OW80244   6.798   0.978  12.344
92804SOL    HW180245   6.883   0.936  12.350
92804SOL    HW280246   6.786   1.021  12.428
92805SOL     OW80247  13.244   0.580   9.894
92805SOL    HW180248  13.259   0.497   9.848
92805SOL    HW280249  13.160   0.567   9.939
92806SOL     OW80250  12.874  13.380   6.826
92806SOL    HW180251  12.792  13.362   6.780
92806SOL    HW280252  12.905  13.462   6.789
92807SOL     OW80253  11.830  12.063  11.920
92807SOL    HW180254  11.904  12.114  11.889
92807SOL    HW280255  11.858  12.028  12.005
92808SOL     OW80256   8.587   2.695   3.622
92808SOL    HW180257   8.500   2.724   3.595
92808SOL    HW280258   8.643   2.771   3.607
92809SOL     OW80259  10.691   3.143  13.224
92809SOL    HW180260  10.762   3.206  13.212
92809SOL    HW280261  10.727   3.060  13.194
92810SOL     OW80262  12.443   9.653   3.243
92810SOL    HW180263  12.425   9.629   3.334
92810SOL    HW280264  12.458   9.570   3.198
92811SOL     OW80265  10.063   9.698   6.388
92811SOL    HW180266  10.107   9.761   6.331
92811SOL    HW280267  10.062   9.739   6.474
92812SOL     OW80268   9.861   3.112   0.139
92812SOL    HW180269   9.791   3.105   0.075
92812SOL    HW280270   9.863   3.204   0.164
92813SOL     OW80271   7.000  13.055   2.331
92813SOL    HW180272   7.074  13.077   2.387
92813SOL    HW280273   6.974  13.138   2.291
92814SOL     OW80274   9.140   7.613   6.754
92814SOL    HW180275   9.165   7.563   6.832
92814SOL    HW280276   9.055   7.575   6.728
92815SOL     OW80277  14.696   6.633   6.699
92815SOL    HW180278  14.625   6.670   6.750
92815SOL    HW280279  14.662   6.550   6.666
92816SOL     OW80280   0.399   3.363   6.196
92816SOL    HW180281   0.423   3.406   6.277
92816SOL    HW280282   0.440   3.277   6.201
92817SOL     OW80283   3.135   2.160   7.665
92817SOL    HW180284   3.071   2.212   7.712
92817SOL    HW280285   3.204   2.143   7.729
92818SOL     OW80286  10.107   4.441   7.860
92818SOL    HW180287  10.090   4.433   7.766
92818SOL    HW280288  10.198   4.414   7.870
92819SOL     OW80289  12.416   8.223   5.104
92819SOL    HW180290  12.496   8.207   5.054
92819SOL    HW280291  12.446   8.239   5.194
92820SOL     OW80292   3.559   0.201  11.371
92820SOL    HW180293   3.614   0.129  11.403
92820SOL    HW280294   3.567   0.196  11.276
92821SOL     OW80295   7.222   9.723   2.533
92821SOL    HW180296   7.232   9.712   2.627
92821SOL    HW280297   7.200   9.815   2.521
92822SOL     OW80298  11.874   6.352  14.136
92822SOL    HW180299  11.851   6.261  14.117
92822SOL    HW280300  11.917   6.383  14.057
92823SOL     OW80301   3.007  12.214   1.670
92823SOL    HW180302   3.025  12.163   1.591
92823SOL    HW280303   2.925  12.260   1.651
92824SOL     OW80304  13.487  11.659   0.933
92824SOL    HW180305  13.467  11.748   0.959
92824SOL    HW280306  13.450  11.650   0.845
92825SOL     OW80307   3.079   4.517  13.958
92825SOL    HW180308   3.106   4.462  13.884
92825SOL    HW280309   2.987   4.537  13.941
92826SOL     OW80310   7.186   4.896   3.949
92826SOL    HW180311   7.232   4.925   4.028
92826SOL    HW280312   7.242   4.828   3.913
92827SOL     OW80313   9.863   1.408   4.619
92827SOL    HW180314   9.824   1.396   4.533
92827SOL    HW280315   9.865   1.503   4.632
92828SOL     OW80316  12.792   4.967  13.817
92828SOL    HW180317  12.849   4.994  13.889
92828SOL    HW280318  12.725   5.036  13.812
92829SOL     OW80319   5.053  11.211  11.612
92829SOL    HW180320   5.064  11.304  11.634
92829SOL    HW280321   5.054  11.166  11.696
92830SOL     OW80322   3.701   9.013   7.349
92830SOL    HW180323   3.794   9.018   7.326
92830SOL    HW280324   3.676   9.104   7.364
92831SOL     OW80325  10.792  11.480   1.327
92831SOL    HW180326  10.726  11.412   1.338
92831SOL    HW280327  10.868  11.449   1.377
92832SOL     OW80328   4.915   5.286   3.642
92832SOL    HW180329   4.856   5.356   3.615
92832SOL    HW280330   4.865   5.206   3.626
92833SOL     OW80331  12.306   5.886   7.592
92833SOL    HW180332  12.398   5.868   7.611
92833SOL    HW280333  12.284   5.825   7.522
92834SOL     OW80334   0.313   2.187   3.606
92834SOL    HW180335   0.264   2.121   3.556
92834SOL    HW280336   0.381   2.216   3.545
92835SOL     OW80337   0.167   5.286   7.523
92835SOL    HW180338   0.245   5.281   7.578
92835SOL    HW280339   0.116   5.359   7.559
92836SOL     OW80340  10.238  11.858   0.348
92836SOL    HW180341  10.169  11.817   0.400
92836SOL    HW280342  10.285  11.913   0.411
92837SOL     OW80343   5.800   2.857   3.740
92837SOL    HW180344   5.821   2.822   3.654
92837SOL    HW280345   5.868   2.822   3.798
92838SOL     OW80346   1.967   8.652   8.406
92838SOL    HW180347   1.881   8.617   8.427
92838SOL    HW280348   2.010   8.662   8.490
92839SOL     OW80349   7.826  11.526   0.748
92839SOL    HW180350   7.790  11.508   0.835
92839SOL    HW280351   7.759  11.494   0.688
92840SOL     OW80352   7.190   5.986   6.967
92840SOL    HW180353   7.180   5.920   7.035
92840SOL    HW280354   7.222   6.063   7.013
92841SOL     OW80355   4.435  14.036  11.816
92841SOL    HW180356   4.373  13.988  11.761
92841SOL    HW280357   4.381  14.076  11.884
92842SOL     OW80358   4.271  13.725   4.282
92842SOL    HW180359   4.280  13.707   4.188
92842SOL    HW280360   4.355  13.702   4.320
92843SOL     OW80361   4.359   1.191   9.780
92843SOL    HW180362   4.395   1.245   9.709
92843SOL    HW280363   4.418   1.207   9.854
92844SOL     OW80364   8.707  11.284  11.580
92844SOL    HW180365   8.710  11.322  11.492
92844SOL    HW280366   8.615  11.269  11.597
92845SOL     OW80367   9.172   4.380   4.064
92845SOL    HW180368   9.132   4.295   4.044
92845SOL    HW280369   9.244   4.359   4.123
92846SOL     OW80370   9.088   1.770  11.570
92846SOL    HW180371   9.048   1.737  11.651
92846SOL    HW280372   9.019   1.819  11.527
92847SOL     OW80373   1.523   6.230  13.774
92847SOL    HW180374   1.575   6.156  13.743
92847SOL    HW280375   1.470   6.195  13.845
92848SOL     OW80376   4.238   9.510   1.366
92848SOL    HW180377   4.309   9.570   1.342
92848SOL    HW280378   4.218   9.531   1.457
92849SOL     OW80379   4.395   9.516   6.206
92849SOL    HW180380   4.439   9.489   6.286
92849SOL    HW280381   4.376   9.434   6.160
92850SOL     OW80382   2.215  10.757   9.875
92850SOL    HW180383   2.181  10.678   9.916
92850SOL    HW280384   2.220  10.735   9.782
92851SOL     OW80385   9.466   6.596   3.497
92851SOL    HW180386   9.399   6.541   3.538
92851SOL    HW280387   9.548   6.550   3.515
92852SOL     OW80388  13.347   4.377   8.105
92852SOL    HW180389  13.260   4.361   8.069
92852SOL    HW280390  13.407   4.329   8.048
92853SOL     OW80391  12.997  12.519  14.205
92853SOL    HW180392  13.028  12.431  14.183
92853SOL    HW280393  12.965  12.511  14.295
92854SOL     OW80394   4.687   4.541   6.873
92854SOL    HW180395   4.738   4.622   6.885
92854SOL    HW280396   4.751   4.478   6.839
92855SOL     OW80397   2.122   6.098   4.946
92855SOL    HW180398   2.152   6.058   4.865
92855SOL    HW280399   2.028   6.113   4.932
92856SOL     OW80400  10.551  14.500   7.682
92856SOL    HW180401  10.536  14.545   7.599
92856SOL    HW280402  10.638  14.462   7.673
92857SOL     OW80403   8.601   1.044   5.207
92857SOL    HW180404   8.633   0.960   5.176
92857SOL    HW280405   8.551   1.024   5.286
92858SOL     OW80406  11.857   7.404  10.708
92858SOL    HW180407  11.780   7.383  10.761
92858SOL    HW280408  11.931   7.381  10.764
92859SOL     OW80409  10.734  14.272   6.526
92859SOL    HW180410  10.790  14.322   6.586
92859SOL    HW280411  10.776  14.187   6.519
92860SOL     OW80412   1.973   3.143   3.967
92860SOL    HW180413   2.028   3.090   4.025
92860SOL    HW280414   1.884   3.125   3.996
92861SOL     OW80415   4.004   7.083   9.511
92861SOL    HW180416   3.963   7.001   9.537
92861SOL    HW280417   4.015   7.076   9.416
92862SOL     OW80418  12.611   4.737  14.841
92862SOL    HW180419  12.523   4.758  14.809
92862SOL    HW280420  12.620   4.643  14.826
92863SOL     OW80421   9.510   3.379   7.400
92863SOL    HW180422   9.426   3.421   7.386
92863SOL    HW280423   9.573   3.435   7.354
92864SOL     OW80424  10.147  10.491  14.757
92864SOL    HW180425  10.113  10.486  14.847
92864SOL    HW280426  10.240  10.469  14.766
92865SOL     OW80427  13.543   5.174   5.922
92865SOL    HW180428  13.599   5.135   5.856
92865SOL    HW280429  13.498   5.099   5.962
92866SOL     OW80430  12.679   7.736   1.189
92866SOL    HW180431  12.716   7.690   1.114
92866SOL    HW280432  12.593   7.767   1.159
92867SOL     OW80433   5.285   7.428  10.277
92867SOL    HW180434   5.198   7.389  10.269
92867SOL    HW280435   5.288   7.461  10.367
92868SOL     OW80436   5.653   5.675   9.270
92868SOL    HW180437   5.614   5.696   9.185
92868SOL    HW280438   5.590   5.711   9.334
92869SOL     OW80439   0.480   3.492  10.387
92869SOL    HW180440   0.427   3.465  10.462
92869SOL    HW280441   0.564   3.516  10.425
92870SOL     OW80442   1.590   5.063   6.785
92870SOL    HW180443   1.527   5.093   6.720
92870SOL    HW280444   1.590   5.131   6.853
92871SOL     OW80445  12.077   2.570   1.975
92871SOL    HW180446  12.156   2.625   1.980
92871SOL    HW280447  12.006   2.626   2.006
92872SOL     OW80448   6.544   1.041   5.708
92872SOL    HW180449   6.535   1.107   5.776
92872SOL    HW280450   6.482   1.068   5.640
92873SOL     OW80451  11.247  12.804   4.771
92873SOL    HW180452  11.185  12.811   4.699
92873SOL    HW280453  11.197  12.834   4.848
92874SOL     OW80454   5.158  12.524  13.592
92874SOL    HW180455   5.164  12.596  13.655
92874SOL    HW280456   5.073  12.537  13.550
92875SOL     OW80457   3.074  10.518   7.171
92875SOL    HW180458   3.117  10.546   7.091
92875SOL    HW280459   3.146  10.492   7.229
92876SOL     OW80460   2.720   4.360   5.720
92876SOL    HW180461   2.723   4.384   5.627
92876SOL    HW280462   2.747   4.268   5.721
92877SOL     OW80463   5.288  11.860   6.482
92877SOL    HW180464   5.235  11.913   6.423
92877SOL    HW280465   5.238  11.779   6.494
92878SOL     OW80466  13.080   0.075   9.175
92878SOL    HW180467  13.034   0.151   9.210
92878SOL    HW280468  13.171   0.088   9.199
92879SOL     OW80469   8.368  10.512  10.577
92879SOL    HW180470   8.421  10.506  10.498
92879SOL    HW280471   8.278  10.519  10.545
92880SOL     OW80472   8.536  14.448  12.773
92880SOL    HW180473   8.587  14.370  12.796
92880SOL    HW280474   8.583  14.487  12.700
92881SOL     OW80475   2.939   5.934  11.682
92881SOL    HW180476   2.926   5.920  11.776
92881SOL    HW280477   2.907   6.022  11.666
92882SOL     OW80478   5.505   9.174   4.268
92882SOL    HW180479   5.600   9.178   4.261
92882SOL    HW280480   5.490   9.120   4.346
92883SOL     OW80481   4.763   8.674   5.552
92883SOL    HW180482   4.788   8.704   5.465
92883SOL    HW280483   4.819   8.724   5.611
92884SOL     OW80484  11.308   4.097   8.222
92884SOL    HW180485  11.352   4.026   8.268
92884SOL    HW280486  11.316   4.172   8.281
92885SOL     OW80487   6.341   2.741  13.778
92885SOL    HW180488   6.374   2.652  13.773
92885SOL    HW280489   6.247   2.731  13.794
92886SOL     OW80490  10.994   2.830  13.574
92886SOL    HW180491  11.066   2.832  13.511
92886SOL    HW280492  10.925   2.884  13.535
92887SOL     OW80493   5.253  11.079  12.702
92887SOL    HW180494   5.207  11.138  12.643
92887SOL    HW280495   5.282  11.134  12.774
92888SOL     OW80496   2.741   9.866   8.036
92888SOL    HW180497   2.769   9.913   8.115
92888SOL    HW280498   2.732   9.935   7.970
92889SOL     OW80499   7.588  13.622  10.553
92889SOL    HW180500   7.599  13.716  10.539
92889SOL    HW280501   7.677  13.589  10.565
92890SOL     OW80502  10.906  12.209   3.441
92890SOL    HW180503  10.994  12.173   3.430
92890SOL    HW280504  10.847  12.136   3.420
92891SOL     OW80505   7.104   8.247   5.211
92891SOL    HW180506   7.083   8.337   5.233
92891SOL    HW280507   7.045   8.194   5.266
92892SOL     OW80508   0.807   3.531   5.408
92892SOL    HW180509   0.879   3.554   5.467
92892SOL    HW280510   0.810   3.436   5.403
92893SOL     OW80511   1.284   1.428   2.976
92893SOL    HW180512   1.252   1.351   3.022
92893SOL    HW280513   1.377   1.411   2.961
92894SOL     OW80514  12.677   9.814   4.670
92894SOL    HW180515  12.753   9.793   4.725
92894SOL    HW280516  12.695   9.772   4.586
92895SOL     OW80517   0.297   1.578  13.334
92895SOL    HW180518   0.234   1.508  13.318
92895SOL    HW280519   0.382   1.537  13.319
92896SOL     OW80520   3.499   0.126  12.849
92896SOL    HW180521   3.522   0.180  12.773
92896SOL    HW280522   3.583   0.091  12.879
92897SOL     OW80523  14.087   8.819   2.468
92897SOL    HW180524  14.009   8.780   2.429
92897SOL    HW280525  14.097   8.774   2.552
92898SOL     OW80526  11.808   9.584  12.012
92898SOL    HW180527  11.817   9.499  11.968
92898SOL    HW280528  11.878   9.585  12.077
92899SOL     OW80529  14.869  11.736  11.295
92899SOL    HW180530   0.018  11.738  11.204
92899SOL    HW280531   0.029  11.814  11.334
92900SOL     OW80532  13.806  10.365   6.887
92900SOL    HW180533  13.746  10.304   6.930
92900SOL    HW280534  13.809  10.335   6.796
92901SOL     OW80535   7.857  11.049  14.579
92901SOL    HW180536   7.820  11.025  14.664
92901SOL    HW280537   7.783  11.086  14.531
92902SOL     OW80538  10.505   7.512   9.271
92902SOL    HW180539  10.583   7.568   9.277
92902SOL    HW280540  10.443   7.551   9.333
92903SOL     OW80541  12.161   9.642   9.763
92903SOL    HW180542  12.117   9.719   9.729
92903SOL    HW280543  12.115   9.622   9.845
92904SOL     OW80544   0.161   0.730   4.832
92904SOL    HW180545   0.072   0.713   4.864
92904SOL    HW280546   0.149   0.793   4.761
92905SOL     OW80547   5.611   4.238  14.324
92905SOL    HW180548   5.635   4.230  14.232
92905SOL    HW280549   5.610   4.332  14.341
92906SOL     OW80550   5.370   8.714  11.522
92906SOL    HW180551   5.430   8.778  11.560
92906SOL    HW280552   5.411   8.691  11.438
92907SOL     OW80553  14.830   9.125   9.443
92907SOL    HW180554  14.759   9.185   9.419
92907SOL    HW280555   0.000   9.171   9.510
92908SOL     OW80556   1.018   8.435   4.126
92908SOL    HW180557   1.037   8.384   4.047
92908SOL    HW280558   0.962   8.506   4.096
92909SOL     OW80559   8.681   9.865  14.611
92909SOL    HW180560   8.680   9.955  14.642
92909SOL    HW280561   8.596   9.830  14.636
92910SOL     OW80562   0.471   9.881   3.737
92910SOL    HW180563   0.502   9.954   3.792
92910SOL    HW280564   0.394   9.848   3.783
92911SOL     OW80565   3.385   5.629  13.751
92911SOL    HW180566   3.360   5.712  13.709
92911SOL    HW280567   3.309   5.573  13.740
92912SOL     OW80568  11.576   1.391  12.233
92912SOL    HW180569  11.539   1.425  12.152
92912SOL    HW280570  11.500   1.362  12.283
92913SOL     OW80571  10.602   5.515  14.817
92913SOL    HW180572  10.650   5.508  14.734
92913SOL    HW280573  10.595   5.609  14.833
92914SOL     OW80574   3.000   9.623   9.771
92914SOL    HW180575   3.053   9.604   9.849
92914SOL    HW280576   2.915   9.583   9.789
92915SOL     OW80577   1.924   0.546   7.578
92915SOL    HW180578   1.845   0.545   7.632
92915SOL    HW280579   1.991   0.582   7.636
92916SOL     OW80580   3.875   8.413  13.111
92916SOL    HW180581   3.906   8.382  13.196
92916SOL    HW280582   3.796   8.362  13.094
92917SOL     OW80583  12.549   2.025   3.746
92917SOL    HW180584  12.498   2.000   3.823
92917SOL    HW280585  12.640   2.024   3.777
92918SOL     OW80586   7.399   7.976   6.891
92918SOL    HW180587   7.423   8.029   6.967
92918SOL    HW280588   7.382   8.040   6.822
92919SOL     OW80589   7.410  13.831   2.150
92919SOL    HW180590   7.421  13.736   2.152
92919SOL    HW280591   7.495  13.865   2.124
92920SOL     OW80592   7.101   1.523   4.287
92920SOL    HW180593   7.151   1.442   4.280
92920SOL    HW280594   7.099   1.558   4.198
92921SOL     OW80595   3.115   7.121  13.805
92921SOL    HW180596   3.063   7.191  13.843
92921SOL    HW280597   3.062   7.042  13.816
92922SOL     OW80598   0.642  11.116  11.701
92922SOL    HW180599   0.681  11.069  11.774
92922SOL    HW280600   0.693  11.089  11.624
92923SOL     OW80601   7.657   5.298  14.707
92923SOL    HW180602   7.610   5.278  14.626
92923SOL    HW280603   7.596   5.352  14.757
92924SOL     OW80604   3.559   4.224   7.560
92924SOL    HW180605   3.598   4.137   7.561
92924SOL    HW280606   3.479   4.216   7.612
92925SOL     OW80607   2.965  11.866  12.351
92925SOL    HW180608   2.891  11.815  12.316
92925SOL    HW280609   2.989  11.925  12.280
92926SOL     OW80610   7.510   2.828   5.480
92926SOL    HW180611   7.546   2.823   5.569
92926SOL    HW280612   7.587   2.831   5.423
92927SOL     OW80613   2.326  10.474   8.378
92927SOL    HW180614   2.344  10.566   8.358
92927SOL    HW280615   2.257  10.478   8.445
92928SOL     OW80616  14.765   3.759   4.632
92928SOL    HW180617  14.813   3.783   4.553
92928SOL    HW280618  14.809   3.681   4.664
92929SOL     OW80619   5.824  14.418  12.227
92929SOL    HW180620   5.829  14.439  12.134
92929SOL    HW280621   5.829  14.323  12.231
92930SOL     OW80622  10.646   3.860  10.213
92930SOL    HW180623  10.670   3.862  10.121
92930SOL    HW280624  10.688   3.937  10.252
92931SOL     OW80625  13.927  14.125   5.394
92931SOL    HW180626  13.910  14.090   5.482
92931SOL    HW280627  13.976  14.206   5.410
92932SOL     OW80628   6.986   1.904   4.641
92932SOL    HW180629   6.928   1.951   4.581
92932SOL    HW280630   7.027   1.837   4.587
92933SOL     OW80631  11.288   4.211   2.350
92933SOL    HW180632  11.381   4.189   2.352
92933SOL    HW280633  11.264   4.221   2.443
92934SOL     OW80634   4.910  10.799   1.556
92934SOL    HW180635   4.984  10.784   1.497
92934SOL    HW280636   4.874  10.711   1.572
92935SOL     OW80637  10.116   5.163  12.249
92935SOL    HW180638  10.041   5.153  12.308
92935SOL    HW280639  10.192   5.169  12.307
92936SOL     OW80640   5.053   2.309  14.868
92936SOL    HW180641   5.010   2.266  14.794
92936SOL    HW280642   5.027   2.257   0.065
92937SOL     OW80643   4.018  13.903   5.574
92937SOL    HW180644   4.076  13.831   5.549
92937SOL    HW280645   4.015  13.898   5.670
92938SOL     OW80646  13.198  12.324   2.170
92938SOL    HW180647  13.277  12.362   2.208
92938SOL    HW280648  13.129  12.386   2.190
92939SOL     OW80649   6.558   5.044   4.659
92939SOL    HW180650   6.550   4.967   4.717
92939SOL    HW280651   6.525   5.014   4.575
92940SOL     OW80652   6.444   1.674  14.136
92940SOL    HW180653   6.407   1.754  14.174
92940SOL    HW280654   6.489   1.704  14.057
92941SOL     OW80655   4.548   3.662   3.101
92941SOL    HW180656   4.466   3.670   3.150
92941SOL    HW280657   4.561   3.749   3.063
92942SOL     OW80658  11.372  10.873  11.967
92942SOL    HW180659  11.443  10.914  12.016
92942SOL    HW280660  11.346  10.939  11.902
92943SOL     OW80661   0.791   7.181   7.381
92943SOL    HW180662   0.832   7.122   7.318
92943SOL    HW280663   0.848   7.258   7.383
92944SOL     OW80664   5.171   3.076   4.683
92944SOL    HW180665   5.120   3.047   4.607
92944SOL    HW280666   5.231   3.004   4.700
92945SOL     OW80667   2.524  13.324   2.217
92945SOL    HW180668   2.496  13.276   2.139
92945SOL    HW280669   2.614  13.351   2.197
92946SOL     OW80670   4.176   8.150  10.395
92946SOL    HW180671   4.172   8.234  10.440
92946SOL    HW280672   4.270   8.133  10.383
92947SOL     OW80673   0.927   6.964  14.038
92947SOL    HW180674   0.919   6.898  13.968
92947SOL    HW280675   0.840   6.966  14.078
92948SOL     OW80676   0.482   3.303   0.749
92948SOL    HW180677   0.513   3.260   0.670
92948SOL    HW280678   0.391   3.272   0.759
92949SOL     OW80679   4.328  14.640   9.271
92949SOL    HW180680   4.368  14.556   9.293
92949SOL    HW280681   4.280  14.623   9.190
92950SOL     OW80682   8.313  14.800  13.623
92950SOL    HW180683   8.359   0.004  13.634
92950SOL    HW280684   8.356  14.740  13.684
92951SOL     OW80685   3.679   8.799   9.019
92951SOL    HW180686   3.681   8.889   8.987
92951SOL    HW280687   3.658   8.808   9.112
92952SOL     OW80688   6.742   3.985  14.075
92952SOL    HW180689   6.673   4.048  14.053
92952SOL    HW280690   6.695   3.913  14.118
92953SOL     OW80691   9.571   0.659   7.956
92953SOL    HW180692   9.477   0.660   7.973
92953SOL    HW280693   9.600   0.571   7.980
92954SOL     OW80694  11.142  13.675   5.312
92954SOL    HW180695  11.096  13.723   5.243
92954SOL    HW280696  11.234  13.697   5.299
92955SOL     OW80697   9.312   1.045   7.955
92955SOL    HW180698   9.232   1.031   8.005
92955SOL    HW280699   9.287   1.032   7.864
92956SOL     OW80700  10.262   0.524   1.608
92956SOL    HW180701  10.344   0.485   1.578
92956SOL    HW280702  10.214   0.451   1.646
92957SOL     OW80703   1.513   9.862   5.170
92957SOL    HW180704   1.544   9.809   5.244
92957SOL    HW280705   1.495   9.799   5.101
92958SOL     OW80706   6.487  13.132   9.540
92958SOL    HW180707   6.411  13.130   9.598
92958SOL    HW280708   6.560  13.158   9.596
92959SOL     OW80709  12.089  13.174   7.543
92959SOL    HW180710  12.047  13.088   7.552
92959SOL    HW280711  12.102  13.184   7.448
92960SOL     OW80712   6.784   9.502   3.697
92960SOL    HW180713   6.740   9.441   3.639
92960SOL    HW280714   6.870   9.516   3.657
92961SOL     OW80715   9.338   8.909   3.652
92961SOL    HW180716   9.264   8.859   3.686
92961SOL    HW280717   9.300   8.972   3.591
92962SOL     OW80718   4.628   5.326   4.662
92962SOL    HW180719   4.583   5.343   4.579
92962SOL    HW280720   4.563   5.280   4.715
92963SOL     OW80721  10.305  13.618  10.340
92963SOL    HW180722  10.255  13.693  10.306
92963SOL    HW280723  10.394  13.633  10.309
92964SOL     OW80724   3.046   4.478   7.391
92964SOL    HW180725   3.008   4.390   7.391
92964SOL    HW280726   3.140   4.463   7.379
92965SOL     OW80727  11.902  12.737   2.553
92965SOL    HW180728  11.870  12.658   2.596
92965SOL    HW280729  11.972  12.707   2.496
92966SOL     OW80730  13.613   0.641   6.733
92966SOL    HW180731  13.604   0.565   6.792
92966SOL    HW280732  13.542   0.630   6.670
92967SOL     OW80733   9.352  10.708   6.266
92967SOL    HW180734   9.342  10.669   6.353
92967SOL    HW280735   9.263  10.714   6.232
92968SOL     OW80736   0.906  10.126   0.458
92968SOL    HW180737   0.996  10.155   0.469
92968SOL    HW280738   0.911  10.031   0.453
92969SOL     OW80739   1.692  11.270   4.729
92969SOL    HW180740   1.705  11.279   4.824
92969SOL    HW280741   1.666  11.357   4.700
92970SOL     OW80742   9.878   1.639  14.206
92970SOL    HW180743   9.814   1.657  14.275
92970SOL    HW280744   9.884   1.721  14.157
92971SOL     OW80745   4.929   4.849   3.572
92971SOL    HW180746   4.908   4.940   3.591
92971SOL    HW280747   4.849   4.814   3.532
92972SOL     OW80748   4.784  11.590  10.960
92972SOL    HW180749   4.878  11.595  10.977
92972SOL    HW280750   4.769  11.654  10.891
92973SOL     OW80751   3.598   2.496  11.152
92973SOL    HW180752   3.673   2.455  11.194
92973SOL    HW280753   3.626   2.585  11.134
92974SOL     OW80754  14.472   3.297   0.958
92974SOL    HW180755  14.409   3.286   0.887
92974SOL    HW280756  14.473   3.391   0.976
92975SOL     OW80757   5.234   2.098   2.300
92975SOL    HW180758   5.304   2.052   2.345
92975SOL    HW280759   5.279   2.152   2.235
92976SOL     OW80760   5.326   4.644   8.001
92976SOL    HW180761   5.349   4.595   8.080
92976SOL    HW280762   5.374   4.600   7.931
92977SOL     OW80763   2.857   8.554   2.560
92977SOL    HW180764   2.766   8.530   2.580
92977SOL    HW280765   2.850   8.625   2.496
92978SOL     OW80766  11.140   9.018  13.900
92978SOL    HW180767  11.135   9.085  13.832
92978SOL    HW280768  11.210   8.960  13.872
92979SOL     OW80769   6.352   1.067   6.034
92979SOL    HW180770   6.315   1.125   6.101
92979SOL    HW280771   6.378   0.989   6.083
92980SOL     OW80772  10.112   4.464   9.684
92980SOL    HW180773  10.060   4.470   9.604
92980SOL    HW280774  10.063   4.516   9.748
92981SOL     OW80775   3.766  13.486   2.998
92981SOL    HW180776   3.759  13.456   3.088
92981SOL    HW280777   3.710  13.563   2.993
92982SOL     OW80778  11.818   8.174   1.938
92982SOL    HW180779  11.755   8.212   1.877
92982SOL    HW280780  11.904   8.201   1.905
92983SOL     OW80781   3.327   7.199   2.537
92983SOL    HW180782   3.305   7.194   2.444
92983SOL    HW280783   3.308   7.290   2.561
92984SOL     OW80784   5.412   5.766   0.798
92984SOL    HW180785   5.351   5.744   0.728
92984SOL    HW280786   5.473   5.828   0.759
92985SOL     OW80787  11.790  12.232   5.730
92985SOL    HW180788  11.885  12.232   5.742
92985SOL    HW280789  11.770  12.145   5.694
92986SOL     OW80790  10.175   2.251   0.516
92986SOL    HW180791  10.251   2.309   0.525
92986SOL    HW280792  10.114   2.282   0.583
92987SOL     OW80793   8.303   1.899   4.279
92987SOL    HW180794   8.235   1.832   4.276
92987SOL    HW280795   8.319   1.922   4.188
92988SOL     OW80796  10.451   8.872   2.213
92988SOL    HW180797  10.445   8.811   2.287
92988SOL    HW280798  10.365   8.869   2.172
92989SOL     OW80799   6.148   9.952   9.070
92989SOL    HW180800   6.231   9.911   9.094
92989SOL    HW280801   6.132  10.016   9.138
92990SOL     OW80802  11.316  11.724   3.753
92990SOL    HW180803  11.315  11.686   3.841
92990SOL    HW280804  11.228  11.761   3.743
92991SOL     OW80805  13.011   3.495   5.603
92991SOL    HW180806  12.956   3.563   5.564
92991SOL    HW280807  12.960   3.463   5.678
92992SOL     OW80808   7.393   0.372   7.005
92992SOL    HW180809   7.440   0.423   6.939
92992SOL    HW280810   7.306   0.359   6.969
92993SOL     OW80811   4.416   4.621  13.421
92993SOL    HW180812   4.368   4.701  13.441
92993SOL    HW280813   4.365   4.578  13.352
92994SOL     OW80814   6.298  12.516  11.376
92994SOL    HW180815   6.207  12.513  11.408
92994SOL    HW280816   6.350  12.534  11.454
92995SOL     OW80817  14.022   5.505   9.256
92995SOL    HW180818  14.079   5.428   9.265
92995SOL    HW280819  13.953   5.477   9.196
92996SOL     OW80820   5.762  13.587  10.168
92996SOL    HW180821   5.755  13.622  10.079
92996SOL    HW280822   5.854  13.597  10.191
92997SOL     OW80823  10.992   8.142  11.956
92997SOL    HW180824  11.084   8.116  11.952
92997SOL    HW280825  10.993   8.226  12.002
92998SOL     OW80826   1.037   8.000  13.622
92998SOL    HW180827   0.948   7.977  13.647
92998SOL    HW280828   1.088   7.920  13.635
92999SOL     OW80829   6.947   3.769  10.731
92999SOL    HW180830   7.036   3.743  10.754
92999SOL    HW280831   6.958   3.822  10.652
93000SOL     OW80832   4.284   2.849   4.253
93000SOL    HW180833   4.268   2.904   4.176
93000SOL    HW280834   4.355   2.790   4.226
93001SOL     OW80835   0.364   9.752  10.437
93001SOL    HW180836   0.367   9.670  10.486
93001SOL    HW280837   0.271   9.773  10.431
93002SOL     OW80838  14.027   5.115   5.566
93002SOL    HW180839  13.947   5.167   5.556
93002SOL    HW280840  14.042   5.076   5.480
93003SOL     OW80841  10.199   6.097   2.833
93003SOL    HW180842  10.257   6.138   2.897
93003SOL    HW280843  10.241   6.014   2.812
93004SOL     OW80844   5.698  14.081  12.795
93004SOL    HW180845   5.649  14.002  12.770
93004SOL    HW280846   5.784  14.048  12.819
93005SOL     OW80847  11.132   1.851   8.858
93005SOL    HW180848  11.124   1.946   8.867
93005SOL    HW280849  11.184   1.825   8.934
93006SOL     OW80850  11.043  10.415   9.555
93006SOL    HW180851  10.974  10.421   9.621
93006SOL    HW280852  11.120  10.451   9.598
93007SOL     OW80853  10.995   1.887   2.209
93007SOL    HW180854  11.045   1.834   2.147
93007SOL    HW280855  10.918   1.915   2.160
93008SOL     OW80856   3.341   7.563  13.514
93008SOL    HW180857   3.371   7.650  13.487
93008SOL    HW280858   3.340   7.567  13.610
93009SOL     OW80859   4.512   1.219   1.722
93009SOL    HW180860   4.448   1.196   1.789
93009SOL    HW280861   4.467   1.203   1.639
93010SOL     OW80862   8.181  12.367   7.778
93010SOL    HW180863   8.122  12.429   7.735
93010SOL    HW280864   8.168  12.383   7.872
93011SOL     OW80865   0.535   7.208   8.180
93011SOL    HW180866   0.549   7.277   8.115
93011SOL    HW280867   0.599   7.227   8.249
93012SOL     OW80868  11.880   0.321  11.582
93012SOL    HW180869  11.895   0.361  11.497
93012SOL    HW280870  11.785   0.319  11.592
93013SOL     OW80871   6.866   9.956   1.831
93013SOL    HW180872   6.962   9.951   1.832
93013SOL    HW280873   6.843   9.964   1.739
93014SOL     OW80874  13.387  12.575   3.278
93014SOL    HW180875  13.461  12.616   3.232
93014SOL    HW280876  13.326  12.646   3.295
93015SOL     OW80877   5.953  13.041  14.225
93015SOL    HW180878   5.942  13.014  14.316
93015SOL    HW280879   5.957  12.959  14.176
93016SOL     OW80880   5.123  13.226   0.846
93016SOL    HW180881   5.069  13.299   0.814
93016SOL    HW280882   5.063  13.152   0.851
93017SOL     OW80883   1.672   5.043   3.676
93017SOL    HW180884   1.617   5.098   3.621
93017SOL    HW280885   1.636   5.054   3.765
93018SOL     OW80886   3.907   0.316   3.863
93018SOL    HW180887   3.829   0.320   3.918
93018SOL    HW280888   3.956   0.395   3.886
93019SOL     OW80889  12.673   4.539  11.195
93019SOL    HW180890  12.764   4.536  11.164
93019SOL    HW280891  12.675   4.603  11.267
93020SOL     OW80892  14.511   7.299   7.255
93020SOL    HW180893  14.463   7.339   7.182
93020SOL    HW280894  14.450   7.305   7.329
93021SOL     OW80895   2.325  11.724  14.469
93021SOL    HW180896   2.257  11.785  14.498
93021SOL    HW280897   2.404  11.753  14.514
93022SOL     OW80898  13.509  10.997   1.450
93022SOL    HW180899  13.449  10.952   1.510
93022SOL    HW280900  13.466  11.080   1.432
93023SOL     OW80901  13.148   7.553   1.592
93023SOL    HW180902  13.062   7.568   1.554
93023SOL    HW280903  13.191   7.639   1.589
93024SOL     OW80904   4.829   9.632   1.485
93024SOL    HW180905   4.828   9.630   1.389
93024SOL    HW280906   4.752   9.581   1.511
93025SOL     OW80907  11.422  14.124  10.020
93025SOL    HW180908  11.378  14.102   9.938
93025SOL    HW280909  11.415  14.045  10.073
93026SOL     OW80910  12.777   6.707  13.811
93026SOL    HW180911  12.738   6.755  13.738
93026SOL    HW280912  12.710   6.707  13.879
93027SOL     OW80913  10.230  10.450   7.838
93027SOL    HW180914  10.299  10.410   7.783
93027SOL    HW280915  10.277  10.512   7.893
93028SOL     OW80916   6.288   9.508  12.392
93028SOL    HW180917   6.250   9.573  12.451
93028SOL    HW280918   6.382   9.519  12.402
93029SOL     OW80919   6.787   2.174   9.223
93029SOL    HW180920   6.770   2.204   9.133
93029SOL    HW280921   6.804   2.254   9.272
93030SOL     OW80922   6.431  13.638   6.585
93030SOL    HW180923   6.399  13.555   6.551
93030SOL    HW280924   6.358  13.698   6.576
93031SOL     OW80925   9.992  13.494   0.131
93031SOL    HW180926   9.958  13.420   0.183
93031SOL    HW280927  10.038  13.452   0.059
93032SOL     OW80928  10.701  13.651   1.903
93032SOL    HW180929  10.627  13.618   1.954
93032SOL    HW280930  10.678  13.741   1.883
93033SOL     OW80931  13.132  10.606   1.955
93033SOL    HW180932  13.077  10.532   1.931
93033SOL    HW280933  13.150  10.651   1.873
93034SOL     OW80934  14.407   9.938   0.780
93034SOL    HW180935  14.328   9.947   0.727
93034SOL    HW280936  14.476   9.915   0.717
93035SOL     OW80937  13.311   5.641  11.358
93035SOL    HW180938  13.332   5.728  11.392
93035SOL    HW280939  13.366   5.632  11.279
93036SOL     OW80940   5.553  10.846   3.818
93036SOL    HW180941   5.539  10.936   3.790
93036SOL    HW280942   5.647  10.832   3.805
93037SOL     OW80943   6.271   9.267   1.970
93037SOL    HW180944   6.202   9.285   2.033
93037SOL    HW280945   6.352   9.289   2.015
93038SOL     OW80946  10.632   9.873   9.768
93038SOL    HW180947  10.702   9.854   9.829
93038SOL    HW280948  10.561   9.908   9.822
93039SOL     OW80949   8.056  10.490  11.943
93039SOL    HW180950   8.082  10.547  11.871
93039SOL    HW280951   8.000  10.424  11.902
93040SOL     OW80952  11.138   1.673  11.340
93040SOL    HW180953  11.200   1.731  11.296
93040SOL    HW280954  11.065   1.729  11.365
93041SOL     OW80955  10.398   9.610   8.564
93041SOL    HW180956  10.452   9.587   8.640
93041SOL    HW280957  10.320   9.554   8.573
93042SOL     OW80958  12.751   3.088  11.616
93042SOL    HW180959  12.657   3.086  11.600
93042SOL    HW280960  12.760   3.104  11.709
93043SOL     OW80961  14.370   5.161   5.663
93043SOL    HW180962  14.340   5.086   5.714
93043SOL    HW280963  14.398   5.225   5.729
93044SOL     OW80964   8.979  12.029  10.420
93044SOL    HW180965   8.985  12.104  10.480
93044SOL    HW280966   8.919  11.969  10.463
93045SOL     OW80967   3.384   3.376  10.587
93045SOL    HW180968   3.365   3.451  10.643
93045SOL    HW280969   3.346   3.302  10.634
93046SOL     OW80970  14.407   4.283   5.772
93046SOL    HW180971  14.394   4.299   5.866
93046SOL    HW280972  14.372   4.360   5.729
93047SOL     OW80973   4.957   0.105   4.357
93047SOL    HW180974   4.929   0.074   4.443
93047SOL    HW280975   5.027   0.168   4.375
93048SOL     OW80976  11.229  12.518   1.131
93048SOL    HW180977  11.287  12.592   1.147
93048SOL    HW280978  11.244  12.459   1.204
93049SOL     OW80979  13.554   9.455  10.326
93049SOL    HW180980  13.509   9.515  10.266
93049SOL    HW280981  13.487   9.391  10.350
93050SOL     OW80982   1.566  13.678   1.889
93050SOL    HW180983   1.505  13.615   1.851
93050SOL    HW280984   1.602  13.633   1.966
93051SOL     OW80985   8.107   5.582  13.240
93051SOL    HW180986   8.016   5.609  13.232
93051SOL    HW280987   8.143   5.637  13.309
93052SOL     OW80988   2.539  10.221  10.368
93052SOL    HW180989   2.527  10.285  10.298
93052SOL    HW280990   2.462  10.233  10.425
93053SOL     OW80991   8.055   5.999  10.249
93053SOL    HW180992   8.058   6.044  10.164
93053SOL    HW280993   8.021   5.912  10.229
93054SOL     OW80994  10.405   3.509   9.908
93054SOL    HW180995  10.327   3.483   9.859
93054SOL    HW280996  10.382   3.594   9.946
93055SOL     OW80997  11.706   9.179  14.781
93055SOL    HW180998  11.695   9.115  14.710
93055SOL    HW280999  11.630   9.237  14.772
93056SOL     OW81000   3.288   3.402   5.721
93056SOL    HW181001   3.354   3.338   5.694
93056SOL    HW281002   3.206   3.369   5.684
93057SOL     OW81003   7.171  11.108  13.443
93057SOL    HW181004   7.213  11.027  13.414
93057SOL    HW281005   7.151  11.093  13.535
93058SOL     OW81006   6.445   4.453   3.549
93058SOL    HW181007   6.510   4.460   3.479
93058SOL    HW281008   6.486   4.396   3.614
93059SOL     OW81009  10.208   3.084   4.505
93059SOL    HW181010  10.151   3.159   4.487
93059SOL    HW281011  10.156   3.028   4.563
93060SOL     OW81012   1.388   8.684   9.748
93060SOL    HW181013   1.430   8.747   9.808
93060SOL    HW281014   1.295   8.708   9.749
93061SOL     OW81015   3.482   4.410  14.246
93061SOL    HW181016   3.542   4.476  14.279
93061SOL    HW281017   3.521   4.379  14.165
93062SOL     OW81018  14.273   2.172   6.208
93062SOL    HW181019  14.326   2.228   6.264
93062SOL    HW281020  14.307   2.084   6.224
93063SOL     OW81021  12.212   5.489  12.291
93063SOL    HW181022  12.250   5.523  12.209
93063SOL    HW281023  12.157   5.416  12.263
93064SOL     OW81024   5.399   2.152   2.088
93064SOL    HW181025   5.405   2.057   2.087
93064SOL    HW281026   5.485   2.182   2.116
93065SOL     OW81027  14.144   6.801   2.243
93065SOL    HW181028  14.123   6.854   2.319
93065SOL    HW281029  14.193   6.726   2.278
93066SOL     OW81030  10.574   3.294   9.206
93066SOL    HW181031  10.486   3.330   9.210
93066SOL    HW281032  10.607   3.302   9.295
93067SOL     OW81033   1.906  10.116   1.797
93067SOL    HW181034   1.890  10.076   1.883
93067SOL    HW281035   1.999  10.104   1.781
93068SOL     OW81036   4.263  10.693   4.296
93068SOL    HW181037   4.263  10.788   4.281
93068SOL    HW281038   4.353  10.673   4.322
93069SOL     OW81039   9.942   9.107   4.043
93069SOL    HW181040   9.858   9.099   3.999
93069SOL    HW281041   9.984   9.022   4.030
93070SOL     OW81042   9.579   4.448   7.145
93070SOL    HW181043   9.593   4.432   7.052
93070SOL    HW281044   9.501   4.503   7.148
93071SOL     OW81045   1.787  14.266  12.961
93071SOL    HW181046   1.778  14.266  13.056
93071SOL    HW281047   1.881  14.276  12.946
93072SOL     OW81048   8.563   1.342  10.656
93072SOL    HW181049   8.603   1.291  10.585
93072SOL    HW281050   8.475   1.363  10.624
93073SOL     OW81051  10.580   8.679  13.215
93073SOL    HW181052  10.617   8.687  13.303
93073SOL    HW281053  10.656   8.675  13.157
93074SOL     OW81054   6.534  12.853   8.474
93074SOL    HW181055   6.573  12.864   8.560
93074SOL    HW281056   6.602  12.883   8.413
93075SOL     OW81057   7.228  10.847  14.552
93075SOL    HW181058   7.278  10.833  14.632
93075SOL    HW281059   7.294  10.864  14.485
93076SOL     OW81060  10.982   3.714  10.328
93076SOL    HW181061  11.078   3.707  10.333
93076SOL    HW281062  10.951   3.627  10.354
93077SOL     OW81063  12.235  13.978   9.127
93077SOL    HW181064  12.152  13.930   9.131
93077SOL    HW281065  12.218  14.050   9.066
93078SOL     OW81066  11.184   9.469  11.331
93078SOL    HW181067  11.122   9.450  11.401
93078SOL    HW281068  11.205   9.562  11.343
93079SOL     OW81069  12.884   1.002  12.700
93079SOL    HW181070  12.844   1.022  12.615
93079SOL    HW281071  12.840   1.061  12.761
93080SOL     OW81072  13.915   2.302   7.353
93080SOL    HW181073  13.988   2.349   7.313
93080SOL    HW281074  13.926   2.212   7.323
93081SOL     OW81075   7.952   8.345   9.782
93081SOL    HW181076   7.942   8.250   9.780
93081SOL    HW281077   7.871   8.377   9.822
93082SOL     OW81078  13.677  12.707   4.743
93082SOL    HW181079  13.729  12.767   4.796
93082SOL    HW281080  13.644  12.761   4.671
93083SOL     OW81081   6.983  11.204   3.214
93083SOL    HW181082   6.993  11.110   3.229
93083SOL    HW281083   7.042  11.245   3.276
93084SOL     OW81084   7.284   4.032   8.934
93084SOL    HW181085   7.349   4.047   8.865
93084SOL    HW281086   7.250   3.944   8.916
93085SOL     OW81087  13.728   0.333  11.299
93085SOL    HW181088  13.638   0.363  11.289
93085SOL    HW281089  13.731   0.296  11.387
93086SOL     OW81090  10.923   3.805  10.955
93086SOL    HW181091  10.940   3.711  10.961
93086SOL    HW281092  11.009   3.844  10.938
93087SOL     OW81093   6.799   3.722   5.449
93087SOL    HW181094   6.815   3.628   5.450
93087SOL    HW281095   6.849   3.753   5.373
93088SOL     OW81096   0.217   3.874   2.841
93088SOL    HW181097   0.308   3.843   2.835
93088SOL    HW281098   0.191   3.853   2.930
93089SOL     OW81099   7.470   6.191   5.250
93089SOL    HW181100   7.445   6.255   5.183
93089SOL    HW281101   7.564   6.206   5.263
93090SOL     OW81102  14.621   7.055   7.076
93090SOL    HW181103  14.562   6.996   7.123
93090SOL    HW281104  14.564   7.100   7.013
93091SOL     OW81105   3.610   4.299   9.344
93091SOL    HW181106   3.593   4.205   9.334
93091SOL    HW281107   3.704   4.309   9.331
93092SOL     OW81108  13.535   3.242   2.731
93092SOL    HW181109  13.547   3.155   2.769
93092SOL    HW281110  13.451   3.236   2.686
93093SOL     OW81111   6.011   8.841   1.892
93093SOL    HW181112   6.092   8.886   1.918
93093SOL    HW281113   5.947   8.911   1.881
93094SOL     OW81114   2.658   4.718   3.750
93094SOL    HW181115   2.727   4.675   3.802
93094SOL    HW281116   2.683   4.811   3.750
93095SOL     OW81117   0.079   8.059  11.724
93095SOL    HW181118   0.087   8.031  11.815
93095SOL    HW281119   0.153   8.119  11.711
93096SOL     OW81120   7.038   0.715   4.470
93096SOL    HW181121   7.086   0.662   4.534
93096SOL    HW281122   7.069   0.684   4.385
93097SOL     OW81123   6.704  13.270  10.133
93097SOL    HW181124   6.617  13.299  10.160
93097SOL    HW281125   6.722  13.319  10.053
93098SOL     OW81126   7.146   7.700   4.575
93098SOL    HW181127   7.226   7.744   4.545
93098SOL    HW281128   7.112   7.655   4.498
93099SOL     OW81129  12.471   8.657   5.606
93099SOL    HW181130  12.523   8.676   5.684
93099SOL    HW281131  12.384   8.634   5.639
93100SOL     OW81132  11.518   8.701   2.786
93100SOL    HW181133  11.427   8.675   2.777
93100SOL    HW281134  11.567   8.641   2.730
93101SOL     OW81135   0.655  11.563   7.400
93101SOL    HW181136   0.607  11.618   7.338
93101SOL    HW281137   0.730  11.530   7.350
93102SOL     OW81138   8.300   8.409  10.834
93102SOL    HW181139   8.233   8.404  10.902
93102SOL    HW281140   8.283   8.334  10.777
93103SOL     OW81141  12.612   5.236   2.390
93103SOL    HW181142  12.624   5.141   2.398
93103SOL    HW281143  12.633   5.256   2.299
93104SOL     OW81144   4.198   9.661  13.732
93104SOL    HW181145   4.179   9.588  13.792
93104SOL    HW281146   4.138   9.731  13.760
93105SOL     OW81147  10.812  14.366   5.133
93105SOL    HW181148  10.762  14.431   5.181
93105SOL    HW281149  10.903  14.394   5.143
93106SOL     OW81150   8.561   0.448   0.746
93106SOL    HW181151   8.611   0.405   0.815
93106SOL    HW281152   8.600   0.535   0.737
93107SOL     OW81153  11.988  11.392   1.178
93107SOL    HW181154  11.981  11.378   1.273
93107SOL    HW281155  11.928  11.464   1.160
93108SOL     OW81156   3.906   2.375   1.884
93108SOL    HW181157   3.888   2.316   1.810
93108SOL    HW281158   3.827   2.428   1.891
93109SOL     OW81159   6.482   2.239   7.344
93109SOL    HW181160   6.436   2.157   7.323
93109SOL    HW281161   6.442   2.304   7.286
93110SOL     OW81162   1.281   0.132   5.380
93110SOL    HW181163   1.315   0.118   5.468
93110SOL    HW281164   1.339   0.199   5.342
93111SOL     OW81165   6.800  10.151   2.120
93111SOL    HW181166   6.854  10.143   2.199
93111SOL    HW281167   6.825  10.076   2.066
93112SOL     OW81168  13.822   5.181   9.189
93112SOL    HW181169  13.880   5.186   9.112
93112SOL    HW281170  13.755   5.118   9.165
93113SOL     OW81171   0.374   4.394   9.453
93113SOL    HW181172   0.381   4.392   9.548
93113SOL    HW281173   0.457   4.432   9.424
93114SOL     OW81174   8.931   3.923   9.205
93114SOL    HW181175   8.999   3.894   9.143
93114SOL    HW281176   8.922   3.849   9.265
93115SOL     OW81177   5.923  10.321   0.070
93115SOL    HW181178   5.923  10.244   0.127
93115SOL    HW281179   5.853  10.304   0.007
93116SOL     OW81180   5.714   4.598  10.904
93116SOL    HW181181   5.669   4.540  10.842
93116SOL    HW281182   5.799   4.557  10.917
93117SOL     OW81183  11.028  12.341   1.772
93117SOL    HW181184  11.090  12.410   1.748
93117SOL    HW281185  10.978  12.378   1.844
93118SOL     OW81186   3.599   7.241  14.260
93118SOL    HW181187   3.506   7.248  14.282
93118SOL    HW281188   3.633   7.173  14.317
93119SOL     OW81189   8.797   2.195   4.608
93119SOL    HW181190   8.891   2.182   4.604
93119SOL    HW281191   8.759   2.112   4.578
93120SOL     OW81192   8.445  14.108   6.713
93120SOL    HW181193   8.427  14.129   6.804
93120SOL    HW281194   8.383  14.038   6.691
93121SOL     OW81195  12.363   6.485  10.884
93121SOL    HW181196  12.358   6.548  10.812
93121SOL    HW281197  12.296   6.420  10.864
93122SOL     OW81198   3.490   3.661  14.861
93122SOL    HW181199   3.478   3.696  14.773
93122SOL    HW281200   3.572   3.611  14.856
93123SOL     OW81201   4.975   7.009   4.402
93123SOL    HW181202   4.970   6.995   4.307
93123SOL    HW281203   5.063   7.043   4.417
93124SOL     OW81204  12.879  12.290  12.946
93124SOL    HW181205  12.789  12.319  12.936
93124SOL    HW281206  12.913  12.283  12.856
93125SOL     OW81207  11.591  11.674   5.954
93125SOL    HW181208  11.608  11.587   5.918
93125SOL    HW281209  11.588  11.660   6.049
93126SOL     OW81210  13.678   7.799   8.164
93126SOL    HW181211  13.637   7.875   8.203
93126SOL    HW281212  13.743   7.771   8.228
93127SOL     OW81213   6.751   1.673  10.554
93127SOL    HW181214   6.779   1.699  10.642
93127SOL    HW281215   6.707   1.750  10.520
93128SOL     OW81216   2.515   5.293   5.462
93128SOL    HW181217   2.435   5.331   5.500
93128SOL    HW281218   2.515   5.323   5.371
93129SOL     OW81219   9.853   5.872   7.790
93129SOL    HW181220   9.762   5.847   7.800
93129SOL    HW281221   9.881   5.829   7.709
93130SOL     OW81222   8.327   2.914   0.806
93130SOL    HW181223   8.358   2.925   0.896
93130SOL    HW281224   8.331   2.819   0.791
93131SOL     OW81225   9.680  13.207   9.786
93131SOL    HW181226   9.665  13.155   9.707
93131SOL    HW281227   9.749  13.160   9.833
93132SOL     OW81228   1.862  14.622   1.107
93132SOL    HW181229   1.950  14.622   1.069
93132SOL    HW281230   1.867  14.560   1.179
93133SOL     OW81231  10.787   5.390   1.428
93133SOL    HW181232  10.847   5.431   1.366
93133SOL    HW281233  10.767   5.305   1.389
93134SOL     OW81234  10.576   6.488  13.386
93134SOL    HW181235  10.504   6.492  13.449
93134SOL    HW281236  10.609   6.399  13.393
93135SOL     OW81237   7.043   3.720   9.608
93135SOL    HW181238   7.025   3.765   9.525
93135SOL    HW281239   6.959   3.681   9.633
93136SOL     OW81240   1.898   4.403   1.016
93136SOL    HW181241   1.840   4.329   0.997
93136SOL    HW281242   1.900   4.454   0.935
93137SOL     OW81243  14.375  14.277   5.537
93137SOL    HW181244  14.324  14.200   5.561
93137SOL    HW281245  14.319  14.351   5.559
93138SOL     OW81246   7.740   1.452  14.110
93138SOL    HW181247   7.803   1.509  14.066
93138SOL    HW281248   7.793   1.394  14.164
93139SOL     OW81249   1.675   5.458   1.040
93139SOL    HW181250   1.658   5.400   0.965
93139SOL    HW281251   1.698   5.542   1.000
93140SOL     OW81252   4.396  14.155   4.123
93140SOL    HW181253   4.384  14.250   4.122
93140SOL    HW281254   4.479  14.140   4.078
93141SOL     OW81255   0.361   7.390   4.747
93141SOL    HW181256   0.359   7.457   4.815
93141SOL    HW281257   0.365   7.307   4.794
93142SOL     OW81258   5.819  12.910  13.366
93142SOL    HW181259   5.784  12.990  13.325
93142SOL    HW281260   5.852  12.858  13.293
93143SOL     OW81261   3.090   5.127  12.211
93143SOL    HW181262   3.133   5.048  12.177
93143SOL    HW281263   3.079   5.183  12.135
93144SOL     OW81264  11.913   0.573   2.656
93144SOL    HW181265  11.877   0.533   2.578
93144SOL    HW281266  11.969   0.644   2.623
93145SOL     OW81267   4.772   0.336  12.290
93145SOL    HW181268   4.843   0.392  12.259
93145SOL    HW281269   4.787   0.252  12.248
93146SOL     OW81270  11.553  12.356   1.317
93146SOL    HW181271  11.624  12.419   1.304
93146SOL    HW281272  11.477  12.409   1.341
93147SOL     OW81273  13.769   4.813   5.269
93147SOL    HW181274  13.733   4.780   5.187
93147SOL    HW281275  13.713   4.775   5.337
93148SOL     OW81276  14.135   5.181  13.819
93148SOL    HW181277  14.044   5.164  13.795
93148SOL    HW281278  14.132   5.205  13.912
93149SOL     OW81279   1.599   5.694   6.549
93149SOL    HW181280   1.542   5.617   6.546
93149SOL    HW281281   1.588   5.735   6.464
93150SOL     OW81282   4.480  10.806   6.008
93150SOL    HW181283   4.411  10.863   5.975
93150SOL    HW281284   4.436  10.749   6.072
93151SOL     OW81285  11.002  14.844   9.444
93151SOL    HW181286  10.951  14.798   9.511
93151SOL    HW281287  11.045  14.775   9.394
93152SOL     OW81288  13.652  11.137   6.510
93152SOL    HW181289  13.721  11.094   6.460
93152SOL    HW281290  13.698  11.205   6.560
93153SOL     OW81291   9.554   9.704  10.636
93153SOL    HW181292   9.575   9.759  10.711
93153SOL    HW281293   9.459   9.689  10.644
93154SOL     OW81294  13.282  10.338   4.352
93154SOL    HW181295  13.351  10.354   4.288
93154SOL    HW281296  13.328  10.329   4.435
93155SOL     OW81297  11.677   9.384  13.827
93155SOL    HW181298  11.585   9.405  13.838
93155SOL    HW281299  11.698   9.410  13.738
93156SOL     OW81300   4.414  13.200   4.996
93156SOL    HW181301   4.403  13.236   5.085
93156SOL    HW281302   4.340  13.142   4.984
93157SOL     OW81303   7.361   0.440   1.291
93157SOL    HW181304   7.443   0.393   1.273
93157SOL    HW281305   7.298   0.370   1.310
93158SOL     OW81306  13.810   2.985  10.269
93158SOL    HW181307  13.878   2.972  10.202
93158SOL    HW281308  13.805   2.901  10.314
93159SOL     OW81309   0.660   6.415  13.810
93159SOL    HW181310   0.699   6.420  13.897
93159SOL    HW281311   0.727   6.452  13.752
93160SOL     OW81312   4.314   9.832  11.517
93160SOL    HW181313   4.268   9.839  11.600
93160SOL    HW281314   4.400   9.872  11.533
93161SOL     OW81315   9.418  10.968   6.353
93161SOL    HW181316   9.378  10.887   6.323
93161SOL    HW281317   9.505  10.942   6.385
93162SOL     OW81318  10.721   5.808  10.723
93162SOL    HW181319  10.727   5.753  10.644
93162SOL    HW281320  10.805   5.795  10.766
93163SOL     OW81321   3.535   9.522  11.246
93163SOL    HW181322   3.534   9.426  11.240
93163SOL    HW281323   3.451   9.544  11.286
93164SOL     OW81324   9.703  11.283  11.635
93164SOL    HW181325   9.793  11.251  11.648
93164SOL    HW281326   9.700  11.367  11.680
93165SOL     OW81327  11.976   9.873   7.646
93165SOL    HW181328  11.931   9.818   7.582
93165SOL    HW281329  11.908   9.900   7.707
93166SOL     OW81330  13.459  13.802   9.235
93166SOL    HW181331  13.522  13.849   9.181
93166SOL    HW281332  13.394  13.869   9.259
93167SOL     OW81333   3.877   3.128  11.962
93167SOL    HW181334   3.854   3.063  11.896
93167SOL    HW281335   3.894   3.078  12.042
93168SOL     OW81336   9.537   3.750   1.320
93168SOL    HW181337   9.504   3.828   1.365
93168SOL    HW281338   9.472   3.682   1.340
93169SOL     OW81339  12.382   4.164   2.952
93169SOL    HW181340  12.360   4.072   2.965
93169SOL    HW281341  12.299   4.211   2.964
93170SOL     OW81342   0.095  12.834   9.321
93170SOL    HW181343   0.119  12.908   9.265
93170SOL    HW281344   0.071  12.765   9.260
93171SOL     OW81345  12.315   8.880   6.888
93171SOL    HW181346  12.379   8.813   6.863
93171SOL    HW281347  12.262   8.894   6.809
93172SOL     OW81348   5.372   4.818   3.763
93172SOL    HW181349   5.278   4.814   3.745
93172SOL    HW281350   5.397   4.908   3.741
93173SOL     OW81351   2.615  14.543   5.018
93173SOL    HW181352   2.649  14.453   5.014
93173SOL    HW281353   2.646  14.583   4.937
93174SOL     OW81354  12.123   2.238  13.168
93174SOL    HW181355  12.175   2.294  13.112
93174SOL    HW281356  12.117   2.285  13.251
93175SOL     OW81357  12.686   7.047  13.892
93175SOL    HW181358  12.762   7.008  13.935
93175SOL    HW281359  12.612   6.995  13.923
93176SOL     OW81360   4.438   0.461   5.044
93176SOL    HW181361   4.517   0.415   5.016
93176SOL    HW281362   4.376   0.447   4.972
93177SOL     OW81363   0.165   7.928   7.136
93177SOL    HW181364   0.126   7.964   7.056
93177SOL    HW281365   0.119   7.973   7.207
93178SOL     OW81366   9.422   4.138   5.346
93178SOL    HW181367   9.332   4.146   5.377
93178SOL    HW281368   9.415   4.096   5.261
93179SOL     OW81369   3.273  11.169   4.461
93179SOL    HW181370   3.187  11.205   4.482
93179SOL    HW281371   3.260  11.074   4.463
93180SOL     OW81372   3.669   2.306   0.083
93180SOL    HW181373   3.762   2.284   0.073
93180SOL    HW281374   3.667   2.402   0.080
93181SOL     OW81375   9.414   8.782  11.416
93181SOL    HW181376   9.353   8.711  11.434
93181SOL    HW281377   9.389   8.814  11.329
93182SOL     OW81378  13.524   8.763   0.656
93182SOL    HW181379  13.497   8.811   0.734
93182SOL    HW281380  13.447   8.711   0.632
93183SOL     OW81381   3.198   3.068   9.225
93183SOL    HW181382   3.234   3.156   9.228
93183SOL    HW281383   3.232   3.030   9.144
93184SOL     OW81384  10.178   4.372   4.830
93184SOL    HW181385  10.244   4.441   4.830
93184SOL    HW281386  10.112   4.402   4.893
93185SOL     OW81387   6.264  13.455   9.429
93185SOL    HW181388   6.318  13.522   9.386
93185SOL    HW281389   6.292  13.373   9.389
93186SOL     OW81390   0.001  14.773   8.599
93186SOL    HW181391  14.804  14.788   8.655
93186SOL    HW281392  14.860  14.823   8.519
93187SOL     OW81393   9.135   4.012  12.415
93187SOL    HW181394   9.207   4.062  12.454
93187SOL    HW281395   9.056   4.061  12.437
93188SOL     OW81396  11.254  13.830   9.940
93188SOL    HW181397  11.195  13.904   9.932
93188SOL    HW281398  11.317  13.857  10.007
93189SOL     OW81399   3.014   2.336  10.899
93189SOL    HW181400   2.962   2.340  10.979
93189SOL    HW281401   3.053   2.249  10.900
93190SOL     OW81402  10.356   8.656  11.398
93190SOL    HW181403  10.389   8.740  11.366
93190SOL    HW281404  10.331   8.673  11.489
93191SOL     OW81405   0.436   4.988   4.073
93191SOL    HW181406   0.368   4.946   4.020
93191SOL    HW281407   0.421   5.082   4.062
93192SOL     OW81408  10.806  10.410   9.712
93192SOL    HW181409  10.783  10.346   9.644
93192SOL    HW281410  10.771  10.372   9.793
93193SOL     OW81411  14.598   7.953  14.815
93193SOL    HW181412  14.551   7.870  14.807
93193SOL    HW281413  14.683   7.937  14.774
93194SOL     OW81414   1.596   5.489  10.373
93194SOL    HW181415   1.670   5.507  10.316
93194SOL    HW281416   1.548   5.572  10.376
93195SOL     OW81417  12.816   9.591   5.992
93195SOL    HW181418  12.726   9.569   5.969
93195SOL    HW281419  12.866   9.575   5.912
93196SOL     OW81420   5.825   2.185   4.579
93196SOL    HW181421   5.888   2.135   4.631
93196SOL    HW281422   5.752   2.126   4.565
93197SOL     OW81423   9.605   5.857   3.012
93197SOL    HW181424   9.571   5.806   3.085
93197SOL    HW281425   9.545   5.838   2.940
93198SOL     OW81426   8.140  12.497   4.972
93198SOL    HW181427   8.104  12.419   4.931
93198SOL    HW281428   8.164  12.469   5.060
93199SOL     OW81429   5.843   2.208   3.309
93199SOL    HW181430   5.931   2.226   3.343
93199SOL    HW281431   5.849   2.118   3.275
93200SOL     OW81432   2.865   9.663  14.101
93200SOL    HW181433   2.904   9.751  14.099
93200SOL    HW281434   2.871   9.632  14.010
93201SOL     OW81435   4.693   8.262   0.337
93201SOL    HW181436   4.689   8.274   0.242
93201SOL    HW281437   4.683   8.350   0.372
93202SOL     OW81438   7.729   7.736   2.727
93202SOL    HW181439   7.705   7.652   2.688
93202SOL    HW281440   7.653   7.791   2.713
93203SOL     OW81441   5.142   9.299   5.511
93203SOL    HW181442   5.122   9.213   5.548
93203SOL    HW281443   5.059   9.330   5.474
93204SOL     OW81444   0.791   7.301  12.350
93204SOL    HW181445   0.742   7.350  12.284
93204SOL    HW281446   0.869   7.269  12.303
93205SOL     OW81447  10.668  14.760  10.660
93205SOL    HW181448  10.627  14.728  10.580
93205SOL    HW281449  10.638  14.850  10.669
93206SOL     OW81450  12.409  13.099   4.973
93206SOL    HW181451  12.473  13.101   4.901
93206SOL    HW281452  12.438  13.168   5.032
93207SOL     OW81453   2.792   2.905   9.196
93207SOL    HW181454   2.706   2.871   9.222
93207SOL    HW281455   2.816   2.965   9.266
93208SOL     OW81456   0.628   0.215  10.950
93208SOL    HW181457   0.684   0.137  10.949
93208SOL    HW281458   0.639   0.253  10.863
93209SOL     OW81459   8.342   3.230   2.783
93209SOL    HW181460   8.402   3.157   2.798
93209SOL    HW281461   8.398   3.307   2.782
93210SOL     OW81462   3.090  11.331   3.114
93210SOL    HW181463   3.147  11.312   3.039
93210SOL    HW281464   3.150  11.359   3.183
93211SOL     OW81465   7.829  13.840   1.545
93211SOL    HW181466   7.795  13.837   1.456
93211SOL    HW281467   7.860  13.930   1.557
93212SOL     OW81468   8.070   4.310   6.166
93212SOL    HW181469   8.098   4.221   6.144
93212SOL    HW281470   8.034   4.344   6.084
93213SOL     OW81471   7.734   3.455   9.108
93213SOL    HW181472   7.643   3.485   9.112
93213SOL    HW281473   7.771   3.480   9.193
93214SOL     OW81474   0.769   4.306   8.905
93214SOL    HW181475   0.771   4.381   8.964
93214SOL    HW281476   0.677   4.281   8.900
93215SOL     OW81477  11.985   9.781   9.962
93215SOL    HW181478  12.025   9.854   9.913
93215SOL    HW281479  11.896   9.774   9.926
93216SOL     OW81480  11.588  14.451  13.098
93216SOL    HW181481  11.545  14.373  13.064
93216SOL    HW281482  11.584  14.442  13.193
93217SOL     OW81483   6.985   8.838   0.041
93217SOL    HW181484   6.993   8.925   0.003
93217SOL    HW281485   6.892   8.816   0.033
93218SOL     OW81486   5.468   5.947   3.394
93218SOL    HW181487   5.521   5.948   3.314
93218SOL    HW281488   5.466   5.855   3.419
93219SOL     OW81489  13.851  10.940   2.736
93219SOL    HW181490  13.773  10.886   2.724
93219SOL    HW281491  13.909  10.915   2.665
93220SOL     OW81492  12.133   2.355  12.500
93220SOL    HW181493  12.079   2.278  12.512
93220SOL    HW281494  12.214   2.336  12.548
93221SOL     OW81495   5.201   3.371   6.499
93221SOL    HW181496   5.140   3.444   6.493
93221SOL    HW281497   5.263   3.397   6.567
93222SOL     OW81498  10.968   9.264   0.544
93222SOL    HW181499  10.989   9.220   0.626
93222SOL    HW281500  10.923   9.198   0.492
93223SOL     OW81501  14.160   3.702   8.905
93223SOL    HW181502  14.084   3.724   8.853
93223SOL    HW281503  14.179   3.781   8.955
93224SOL     OW81504   8.167   5.243   1.568
93224SOL    HW181505   8.193   5.273   1.655
93224SOL    HW281506   8.078   5.277   1.556
93225SOL     OW81507   6.926  11.858   6.334
93225SOL    HW181508   7.013  11.884   6.364
93225SOL    HW281509   6.942  11.790   6.268
93226SOL     OW81510  11.175  11.082   2.509
93226SOL    HW181511  11.161  11.008   2.568
93226SOL    HW281512  11.106  11.074   2.443
93227SOL     OW81513   7.628  12.486   1.240
93227SOL    HW181514   7.623  12.530   1.325
93227SOL    HW281515   7.688  12.413   1.255
93228SOL     OW81516   0.631   8.054   9.316
93228SOL    HW181517   0.607   8.002   9.393
93228SOL    HW281518   0.563   8.121   9.310
93229SOL     OW81519   8.510   2.279   2.435
93229SOL    HW181520   8.588   2.325   2.404
93229SOL    HW281521   8.456   2.347   2.475
93230SOL     OW81522   7.607  10.084   9.689
93230SOL    HW181523   7.625   9.990   9.696
93230SOL    HW281524   7.512  10.092   9.692
93231SOL     OW81525  13.444   7.595   8.521
93231SOL    HW181526  13.350   7.608   8.507
93231SOL    HW281527  13.482   7.682   8.510
93232SOL     OW81528   9.046   0.374  12.501
93232SOL    HW181529   9.115   0.316  12.534
93232SOL    HW281530   8.985   0.316  12.456
93233SOL     OW81531  11.090   0.357  11.385
93233SOL    HW181532  11.040   0.426  11.429
93233SOL    HW281533  11.038   0.335  11.308
93234SOL     OW81534   5.026   0.848   1.765
93234SOL    HW181535   5.107   0.856   1.815
93234SOL    HW281536   5.040   0.902   1.687
93235SOL     OW81537  13.709   0.337   7.163
93235SOL    HW181538  13.683   0.401   7.096
93235SOL    HW281539  13.801   0.358   7.182
93236SOL     OW81540   8.101  12.096   4.970
93236SOL    HW181541   8.137  12.151   4.900
93236SOL    HW281542   8.165  12.026   4.980
93237SOL     OW81543   6.184   5.470  10.983
93237SOL    HW181544   6.153   5.379  10.976
93237SOL    HW281545   6.237   5.471  11.063
93238SOL     OW81546   1.177  11.672   7.226
93238SOL    HW181547   1.265  11.709   7.228
93238SOL    HW281548   1.134  11.707   7.303
93239SOL     OW81549   3.301   3.514  10.326
93239SOL    HW181550   3.388   3.550  10.343
93239SOL    HW281551   3.282   3.460  10.403
93240SOL     OW81552   7.453  14.324   4.472
93240SOL    HW181553   7.458  14.374   4.553
93240SOL    HW281554   7.408  14.382   4.410
93241SOL     OW81555   6.975   7.727   1.580
93241SOL    HW181556   6.892   7.689   1.553
93241SOL    HW281557   6.951   7.806   1.630
93242SOL     OW81558   9.846  14.070   9.176
93242SOL    HW181559   9.834  14.134   9.106
93242SOL    HW281560   9.781  14.094   9.242
93243SOL     OW81561   2.830  14.074   7.102
93243SOL    HW181562   2.865  14.002   7.154
93243SOL    HW281563   2.867  14.152   7.141
93244SOL     OW81564   6.442   6.173   1.576
93244SOL    HW181565   6.438   6.175   1.481
93244SOL    HW281566   6.366   6.121   1.602
93245SOL     OW81567   0.708   6.301   0.510
93245SOL    HW181568   0.677   6.213   0.531
93245SOL    HW281569   0.803   6.292   0.505
93246SOL     OW81570  12.123   6.725  13.887
93246SOL    HW181571  12.201   6.673  13.866
93246SOL    HW281572  12.157   6.798  13.939
93247SOL     OW81573   3.298  14.538   5.014
93247SOL    HW181574   3.299  14.619   4.963
93247SOL    HW281575   3.314  14.469   4.951
93248SOL     OW81576   7.976  14.853   7.515
93248SOL    HW181577   8.063  14.868   7.476
93248SOL    HW281578   7.950   0.060   7.548
93249SOL     OW81579   1.241   8.232  14.196
93249SOL    HW181580   1.324   8.185  14.210
93249SOL    HW281581   1.224   8.276  14.279
93250SOL     OW81582   3.091   6.310  11.781
93250SOL    HW181583   3.063   6.372  11.714
93250SOL    HW281584   3.017   6.305  11.842
93251SOL     OW81585   2.534   7.946   2.747
93251SOL    HW181586   2.567   7.874   2.694
93251SOL    HW281587   2.446   7.919   2.773
93252SOL     OW81588  10.891  11.974   5.762
93252SOL    HW181589  10.914  11.891   5.722
93252SOL    HW281590  10.948  11.981   5.838
93253SOL     OW81591   0.402  12.987   7.538
93253SOL    HW181592   0.416  12.896   7.512
93253SOL    HW281593   0.361  12.981   7.624
93254SOL     OW81594  10.680   6.747  13.630
93254SOL    HW181595  10.585   6.746  13.629
93254SOL    HW281596  10.705   6.655  13.615
93255SOL     OW81597  10.503  14.878   2.024
93255SOL    HW181598  10.440   0.020   1.955
93255SOL    HW281599  10.577  14.838   1.978
93256SOL     OW81600  10.992  12.680   2.030
93256SOL    HW181601  10.981  12.585   2.020
93256SOL    HW281602  10.903  12.714   2.036
93257SOL     OW81603  11.087  10.260  12.411
93257SOL    HW181604  10.992  10.245  12.414
93257SOL    HW281605  11.113  10.262  12.503
93258SOL     OW81606  11.886   1.390   2.666
93258SOL    HW181607  11.943   1.405   2.742
93258SOL    HW281608  11.799   1.378   2.704
93259SOL     OW81609   8.216   9.991   1.244
93259SOL    HW181610   8.131   9.950   1.254
93259SOL    HW281611   8.259   9.980   1.329
93260SOL     OW81612  12.463   1.909   7.054
93260SOL    HW181613  12.413   1.880   7.131
93260SOL    HW281614  12.430   1.996   7.035
93261SOL     OW81615  12.421   5.146  11.543
93261SOL    HW181616  12.446   5.211  11.477
93261SOL    HW281617  12.501   5.131  11.593
93262SOL     OW81618  11.953   0.931  10.052
93262SOL    HW181619  11.975   0.900   9.965
93262SOL    HW281620  11.989   0.864  10.111
93263SOL     OW81621   0.792  12.191   8.281
93263SOL    HW181622   0.767  12.099   8.291
93263SOL    HW281623   0.882  12.188   8.249
93264SOL     OW81624   4.667   1.703   5.199
93264SOL    HW181625   4.635   1.755   5.125
93264SOL    HW281626   4.738   1.755   5.235
93265SOL     OW81627  13.333   0.060   9.254
93265SOL    HW181628  13.421   0.060   9.292
93265SOL    HW281629  13.347   0.051   9.160
93266SOL     OW81630   7.126   5.675   3.155
93266SOL    HW181631   7.155   5.607   3.215
93266SOL    HW281632   7.194   5.679   3.088
93267SOL     OW81633  13.517  13.393  12.708
93267SOL    HW181634  13.442  13.442  12.673
93267SOL    HW281635  13.558  13.453  12.769
93268SOL     OW81636  12.677   9.360  10.142
93268SOL    HW181637  12.719   9.290  10.093
93268SOL    HW281638  12.584   9.337  10.141
93269SOL     OW81639   1.819   9.249   6.605
93269SOL    HW181640   1.810   9.330   6.556
93269SOL    HW281641   1.869   9.192   6.548
93270SOL     OW81642  13.566   4.559   5.120
93270SOL    HW181643  13.653   4.531   5.151
93270SOL    HW281644  13.585   4.628   5.056
93271SOL     OW81645   4.045   6.956   4.314
93271SOL    HW181646   4.096   6.930   4.391
93271SOL    HW281647   4.042   6.877   4.260
93272SOL     OW81648   3.323  12.191   3.941
93272SOL    HW181649   3.230  12.183   3.917
93272SOL    HW281650   3.338  12.120   4.004
93273SOL     OW81651   8.930  10.190  14.340
93273SOL    HW181652   8.921  10.095  14.341
93273SOL    HW281653   8.872  10.221  14.409
93274SOL     OW81654   4.894   5.229   7.330
93274SOL    HW181655   4.862   5.139   7.332
93274SOL    HW281656   4.849   5.268   7.255
93275SOL     OW81657   2.387   9.723   4.790
93275SOL    HW181658   2.473   9.741   4.751
93275SOL    HW281659   2.407   9.697   4.880
93276SOL     OW81660  14.094   3.411   3.001
93276SOL    HW181661  14.136   3.372   3.078
93276SOL    HW281662  14.041   3.340   2.965
93277SOL     OW81663  10.878  11.737   4.442
93277SOL    HW181664  10.925  11.811   4.404
93277SOL    HW281665  10.939  11.699   4.505
93278SOL     OW81666  14.688   2.505   6.843
93278SOL    HW181667  14.612   2.561   6.858
93278SOL    HW281668  14.680   2.435   6.907
93279SOL     OW81669   4.273   2.077   9.800
93279SOL    HW181670   4.290   2.046   9.888
93279SOL    HW281671   4.206   2.018   9.766
93280SOL     OW81672  12.089   5.774   4.248
93280SOL    HW181673  12.160   5.761   4.310
93280SOL    HW281674  12.097   5.700   4.187
93281SOL     OW81675   8.436   8.525  13.213
93281SOL    HW181676   8.475   8.604  13.251
93281SOL    HW281677   8.495   8.502  13.141
93282SOL     OW81678   1.603   5.263   0.855
93282SOL    HW181679   1.589   5.220   0.771
93282SOL    HW281680   1.551   5.213   0.917
93283SOL     OW81681   0.462   3.571  13.695
93283SOL    HW181682   0.388   3.608  13.648
93283SOL    HW281683   0.472   3.627  13.772
93284SOL     OW81684  11.501   6.577   3.617
93284SOL    HW181685  11.407   6.572   3.633
93284SOL    HW281686  11.511   6.643   3.548
93285SOL     OW81687   5.104  12.862   0.394
93285SOL    HW181688   5.146  12.825   0.471
93285SOL    HW281689   5.149  12.945   0.379
93286SOL     OW81690   9.863   1.219   6.832
93286SOL    HW181691   9.886   1.222   6.925
93286SOL    HW281692   9.924   1.155   6.794
93287SOL     OW81693   9.171   8.565   7.827
93287SOL    HW181694   9.226   8.617   7.885
93287SOL    HW281695   9.091   8.617   7.818
93288SOL     OW81696  11.968   1.389  10.440
93288SOL    HW181697  12.008   1.380  10.353
93288SOL    HW281698  12.034   1.436  10.492
93289SOL     OW81699  10.686  12.315  10.549
93289SOL    HW181700  10.711  12.241  10.494
93289SOL    HW281701  10.713  12.291  10.637
93290SOL     OW81702   5.377  12.337   8.876
93290SOL    HW181703   5.342  12.412   8.826
93290SOL    HW281704   5.449  12.305   8.823
93291SOL     OW81705   3.363  13.624   1.693
93291SOL    HW181706   3.274  13.643   1.665
93291SOL    HW281707   3.418  13.675   1.632
93292SOL     OW81708   5.980  14.202  12.449
93292SOL    HW181709   5.989  14.252  12.531
93292SOL    HW281710   6.070  14.189  12.420
93293SOL     OW81711  13.610   6.521   1.642
93293SOL    HW181712  13.545   6.478   1.586
93293SOL    HW281713  13.614   6.611   1.610
93294SOL     OW81714   9.606  11.530   3.153
93294SOL    HW181715   9.572  11.609   3.109
93294SOL    HW281716   9.672  11.496   3.092
93295SOL     OW81717  14.470  10.929   3.040
93295SOL    HW181718  14.457  10.842   3.004
93295SOL    HW281719  14.545  10.920   3.099
93296SOL     OW81720   7.459  11.333  11.941
93296SOL    HW181721   7.455  11.415  11.991
93296SOL    HW281722   7.536  11.288  11.975
93297SOL     OW81723   6.230   7.474   8.174
93297SOL    HW181724   6.176   7.401   8.206
93297SOL    HW281725   6.220   7.541   8.241
93298SOL     OW81726  12.580   1.929  10.700
93298SOL    HW181727  12.651   1.993  10.700
93298SOL    HW281728  12.553   1.925  10.792
93299SOL     OW81729  11.816   1.184  10.090
93299SOL    HW181730  11.900   1.140  10.079
93299SOL    HW281731  11.799   1.179  10.184
93300SOL     OW81732   0.137  14.565   7.331
93300SOL    HW181733   0.182  14.598   7.253
93300SOL    HW281734   0.205  14.564   7.399
93301SOL     OW81735   0.089  11.692   3.013
93301SOL    HW181736   0.100  11.599   3.032
93301SOL    HW281737  14.877  11.701   2.985
93302SOL     OW81738   0.538   5.707   2.438
93302SOL    HW181739   0.503   5.706   2.528
93302SOL    HW281740   0.499   5.629   2.398
93303SOL     OW81741   2.026   2.437  11.667
93303SOL    HW181742   1.985   2.501  11.725
93303SOL    HW281743   2.010   2.471  11.579
93304SOL     OW81744   8.904  13.790   3.085
93304SOL    HW181745   8.944  13.816   3.168
93304SOL    HW281746   8.836  13.727   3.110
93305SOL     OW81747  14.386   4.971   5.073
93305SOL    HW181748  14.457   4.910   5.094
93305SOL    HW281749  14.315   4.945   5.132
93306SOL     OW81750   4.405  10.216   6.894
93306SOL    HW181751   4.329  10.211   6.837
93306SOL    HW281752   4.455  10.137   6.876
93307SOL     OW81753   9.797   8.041   0.281
93307SOL    HW181754   9.819   8.019   0.372
93307SOL    HW281755   9.702   8.032   0.277
93308SOL     OW81756  14.850  11.264   5.896
93308SOL    HW181757  14.794  11.216   5.957
93308SOL    HW281758   0.056  11.268   5.939
93309SOL     OW81759  10.631   2.079  12.350
93309SOL    HW181760  10.605   2.035  12.269
93309SOL    HW281761  10.560   2.140  12.369
93310SOL     OW81762  12.739   9.104  10.511
93310SOL    HW181763  12.729   9.011  10.531
93310SOL    HW281764  12.780   9.107  10.425
93311SOL     OW81765   3.083   3.676   8.162
93311SOL    HW181766   3.016   3.626   8.207
93311SOL    HW281767   3.166   3.636   8.190
93312SOL     OW81768  12.741  10.965   2.810
93312SOL    HW181769  12.744  11.060   2.813
93312SOL    HW281770  12.752  10.944   2.717
93313SOL     OW81771   3.301   1.942   3.975
93313SOL    HW181772   3.375   1.889   3.945
93313SOL    HW281773   3.224   1.898   3.939
93314SOL     OW81774  13.872   8.090   3.698
93314SOL    HW181775  13.782   8.106   3.725
93314SOL    HW281776  13.875   7.996   3.680
93315SOL     OW81777   1.552   4.760   0.518
93315SOL    HW181778   1.640   4.761   0.479
93315SOL    HW281779   1.493   4.770   0.444
93316SOL     OW81780   7.075  12.877  11.382
93316SOL    HW181781   7.126  12.858  11.461
93316SOL    HW281782   7.134  12.928  11.327
93317SOL     OW81783   0.054   4.412  10.809
93317SOL    HW181784   0.056   4.318  10.826
93317SOL    HW281785   0.141   4.432  10.777
93318SOL     OW81786   9.869   2.132   0.955
93318SOL    HW181787   9.958   2.129   0.920
93318SOL    HW281788   9.825   2.057   0.915
93319SOL     OW81789   9.756   8.263   1.910
93319SOL    HW181790   9.723   8.180   1.944
93319SOL    HW281791   9.824   8.290   1.972
93320SOL     OW81792   3.249   3.566   3.058
93320SOL    HW181793   3.195   3.610   3.124
93320SOL    HW281794   3.334   3.611   3.064
93321SOL     OW81795  13.016   5.206  13.272
93321SOL    HW181796  13.085   5.146  13.244
93321SOL    HW281797  12.938   5.176  13.226
93322SOL     OW81798   6.666  13.797   5.887
93322SOL    HW181799   6.605  13.866   5.914
93322SOL    HW281800   6.642  13.778   5.796
93323SOL     OW81801   7.847   8.870   0.851
93323SOL    HW181802   7.817   8.788   0.813
93323SOL    HW281803   7.858   8.928   0.775
93324SOL     OW81804  12.456  14.453  10.910
93324SOL    HW181805  12.454  14.483  10.819
93324SOL    HW281806  12.444  14.533  10.962
93325SOL     OW81807  11.883   7.114   1.730
93325SOL    HW181808  11.954   7.053   1.706
93325SOL    HW281809  11.804   7.073   1.696
93326SOL     OW81810   6.470  12.892   4.885
93326SOL    HW181811   6.545  12.841   4.915
93326SOL    HW281812   6.394  12.838   4.908
93327SOL     OW81813   7.515   8.806  13.502
93327SOL    HW181814   7.469   8.869  13.556
93327SOL    HW281815   7.476   8.721  13.525
93328SOL     OW81816   1.016   0.121   4.537
93328SOL    HW181817   0.943   0.091   4.482
93328SOL    HW281818   1.004   0.074   4.620
93329SOL     OW81819   6.100   0.968   6.629
93329SOL    HW181820   6.169   0.998   6.569
93329SOL    HW281821   6.051   0.903   6.578
93330SOL     OW81822   7.878   7.109  10.135
93330SOL    HW181823   7.944   7.046  10.166
93330SOL    HW281824   7.798   7.083  10.180
93331SOL     OW81825   2.366   2.600  11.407
93331SOL    HW181826   2.319   2.544  11.346
93331SOL    HW281827   2.390   2.677  11.354
93332SOL     OW81828  14.184   8.259   7.252
93332SOL    HW181829  14.093   8.257   7.221
93332SOL    HW281830  14.235   8.231   7.176
93333SOL     OW81831  14.110   2.468  12.431
93333SOL    HW181832  14.185   2.499  12.380
93333SOL    HW281833  14.056   2.420  12.368
93334SOL     OW81834  12.844   1.549   6.722
93334SOL    HW181835  12.760   1.506   6.709
93334SOL    HW281836  12.909   1.481   6.703
93335SOL     OW81837   6.501  11.881   4.758
93335SOL    HW181838   6.592  11.866   4.735
93335SOL    HW281839   6.481  11.816   4.825
93336SOL     OW81840  11.470   0.819   6.529
93336SOL    HW181841  11.530   0.757   6.488
93336SOL    HW281842  11.504   0.831   6.618
93337SOL     OW81843  12.287  12.703  14.100
93337SOL    HW181844  12.212  12.708  14.041
93337SOL    HW281845  12.313  12.611  14.099
93338SOL     OW81846   6.872   7.458   2.353
93338SOL    HW181847   6.914   7.542   2.336
93338SOL    HW281848   6.887   7.407   2.273
93339SOL     OW81849  11.442   4.853  13.708
93339SOL    HW181850  11.472   4.762  13.705
93339SOL    HW281851  11.476   4.887  13.791
93340SOL     OW81852   7.466   5.010   3.893
93340SOL    HW181853   7.479   5.032   3.801
93340SOL    HW281854   7.542   4.957   3.916
93341SOL     OW81855   3.339  11.689   8.362
93341SOL    HW181856   3.341  11.597   8.386
93341SOL    HW281857   3.407  11.699   8.296
93342SOL     OW81858   4.641   8.420   2.586
93342SOL    HW181859   4.611   8.503   2.549
93342SOL    HW281860   4.561   8.375   2.612
93343SOL     OW81861   2.425   6.668   8.974
93343SOL    HW181862   2.361   6.637   8.911
93343SOL    HW281863   2.465   6.744   8.932
93344SOL     OW81864   4.699  13.742   3.378
93344SOL    HW181865   4.677  13.745   3.284
93344SOL    HW281866   4.696  13.833   3.406
93345SOL     OW81867  14.066   8.948   3.499
93345SOL    HW181868  14.091   8.876   3.441
93345SOL    HW281869  13.978   8.972   3.469
93346SOL     OW81870   6.135  13.020   8.413
93346SOL    HW181871   6.170  12.971   8.487
93346SOL    HW281872   6.050  12.981   8.396
93347SOL     OW81873  10.845   8.552   5.082
93347SOL    HW181874  10.886   8.634   5.053
93347SOL    HW281875  10.919   8.496   5.106
93348SOL     OW81876   4.768   7.847   9.477
93348SOL    HW181877   4.765   7.801   9.561
93348SOL    HW281878   4.844   7.811   9.432
93349SOL     OW81879  13.481   6.513  11.914
93349SOL    HW181880  13.547   6.444  11.913
93349SOL    HW281881  13.530   6.594  11.902
93350SOL     OW81882   4.192   6.444   0.983
93350SOL    HW181883   4.216   6.499   1.057
93350SOL    HW281884   4.230   6.358   1.004
93351SOL     OW81885  11.266   7.241  13.391
93351SOL    HW181886  11.193   7.267  13.334
93351SOL    HW281887  11.334   7.306  13.373
93352SOL     OW81888   5.198   1.193   6.346
93352SOL    HW181889   5.288   1.169   6.366
93352SOL    HW281890   5.185   1.277   6.390
93353SOL     OW81891   3.146   5.829   7.859
93353SOL    HW181892   3.134   5.865   7.771
93353SOL    HW281893   3.162   5.905   7.914
93354SOL     OW81894   6.995  12.742   4.690
93354SOL    HW181895   7.058  12.795   4.643
93354SOL    HW281896   7.016  12.757   4.783
93355SOL     OW81897  13.733   8.546   6.551
93355SOL    HW181898  13.736   8.629   6.599
93355SOL    HW281899  13.642   8.537   6.523
93356SOL     OW81900   6.745  11.688   0.598
93356SOL    HW181901   6.805  11.747   0.643
93356SOL    HW281902   6.779  11.600   0.615
93357SOL     OW81903  12.150  14.426  12.623
93357SOL    HW181904  12.224  14.485  12.610
93357SOL    HW281905  12.172  14.348  12.572
93358SOL     OW81906   8.091   3.304   9.214
93358SOL    HW181907   8.172   3.354   9.205
93358SOL    HW281908   8.029   3.367   9.252
93359SOL     OW81909   3.231   2.418   2.505
93359SOL    HW181910   3.170   2.359   2.549
93359SOL    HW281911   3.244   2.490   2.567
93360SOL     OW81912  12.119  10.620   9.404
93360SOL    HW181913  12.063  10.696   9.421
93360SOL    HW281914  12.131  10.620   9.309
93361SOL     OW81915  11.481   1.802   8.837
93361SOL    HW181916  11.446   1.890   8.844
93361SOL    HW281917  11.414   1.746   8.875
93362SOL     OW81918  11.630   8.262  14.296
93362SOL    HW181919  11.620   8.286  14.388
93362SOL    HW281920  11.559   8.200  14.280
93363SOL     OW81921   6.378   7.865   3.503
93363SOL    HW181922   6.361   7.938   3.444
93363SOL    HW281923   6.449   7.896   3.560
93364SOL     OW81924   1.183   2.868  11.128
93364SOL    HW181925   1.262   2.891  11.079
93364SOL    HW281926   1.204   2.783  11.167
93365SOL     OW81927  11.855   3.837  12.297
93365SOL    HW181928  11.827   3.806  12.383
93365SOL    HW281929  11.864   3.931  12.306
93366SOL     OW81930   4.294   5.378   7.504
93366SOL    HW181931   4.242   5.455   7.480
93366SOL    HW281932   4.374   5.386   7.454
93367SOL     OW81933   7.845   7.388  10.137
93367SOL    HW181934   7.771   7.378  10.197
93367SOL    HW281935   7.880   7.300  10.128
93368SOL     OW81936   0.482   6.458   0.984
93368SOL    HW181937   0.470   6.363   0.991
93368SOL    HW281938   0.560   6.468   0.930
93369SOL     OW81939   0.981   4.334   1.249
93369SOL    HW181940   1.056   4.382   1.282
93369SOL    HW281941   0.921   4.329   1.324
93370SOL     OW81942   2.820   8.012   4.222
93370SOL    HW181943   2.838   7.944   4.288
93370SOL    HW281944   2.737   7.986   4.183
93371SOL     OW81945   0.482   8.585  11.815
93371SOL    HW181946   0.473   8.496  11.848
93371SOL    HW281947   0.400   8.628  11.840
93372SOL     OW81948   6.674   2.685   1.885
93372SOL    HW181949   6.712   2.633   1.955
93372SOL    HW281950   6.581   2.663   1.886
93373SOL     OW81951   2.798   1.918   0.018
93373SOL    HW181952   2.804   1.866   0.098
93373SOL    HW281953   2.791   1.853  14.827
93374SOL     OW81954   3.655   3.233   4.088
93374SOL    HW181955   3.580   3.270   4.136
93374SOL    HW281956   3.664   3.289   4.011
93375SOL     OW81957   2.751   6.446   8.400
93375SOL    HW181958   2.763   6.529   8.354
93375SOL    HW281959   2.670   6.410   8.364
93376SOL     OW81960  13.170   6.659   8.956
93376SOL    HW181961  13.251   6.666   8.905
93376SOL    HW281962  13.143   6.750   8.971
93377SOL     OW81963  10.078   7.255  10.933
93377SOL    HW181964  10.019   7.221  11.000
93377SOL    HW281965  10.021   7.307  10.875
93378SOL     OW81966  12.634   9.921  13.574
93378SOL    HW181967  12.661   9.921  13.482
93378SOL    HW281968  12.539   9.912  13.571
93379SOL     OW81969  13.337   5.795   8.506
93379SOL    HW181970  13.272   5.814   8.438
93379SOL    HW281971  13.285   5.771   8.583
93380SOL     OW81972   4.980   1.351   6.684
93380SOL    HW181973   5.046   1.335   6.617
93380SOL    HW281974   4.906   1.389   6.637
93381SOL     OW81975   0.141  10.418  13.665
93381SOL    HW181976   0.085  10.365  13.722
93381SOL    HW281977   0.080  10.465  13.609
93382SOL     OW81978  10.348  14.806   6.767
93382SOL    HW181979  10.329   0.007   6.719
93382SOL    HW281980  10.444  14.798   6.764
93383SOL     OW81981   4.482  14.017  12.359
93383SOL    HW181982   4.432  13.952  12.409
93383SOL    HW281983   4.450  14.101  12.391
93384SOL     OW81984   9.180   7.957   3.413
93384SOL    HW181985   9.238   8.019   3.457
93384SOL    HW281986   9.238   7.905   3.358
93385SOL     OW81987   8.269   6.041  11.497
93385SOL    HW181988   8.202   6.098  11.535
93385SOL    HW281989   8.339   6.102  11.470
93386SOL     OW81990   8.852   3.736   9.435
93386SOL    HW181991   8.763   3.709   9.411
93386SOL    HW281992   8.909   3.670   9.395
93387SOL     OW81993  11.573   0.852   5.532
93387SOL    HW181994  11.635   0.891   5.593
93387SOL    HW281995  11.608   0.765   5.514
93388SOL     OW81996  11.485   3.878   6.591
93388SOL    HW181997  11.553   3.814   6.571
93388SOL    HW281998  11.528   3.963   6.580
93389SOL     OW81999  12.627  14.317   7.255
93389SOL    HW182000  12.707  14.349   7.214
93389SOL    HW282001  12.556  14.366   7.213
93390SOL     OW82002   9.456   5.653   9.641
93390SOL    HW182003   9.472   5.574   9.693
93390SOL    HW282004   9.512   5.643   9.564
93391SOL     OW82005   8.570   4.448  14.253
93391SOL    HW182006   8.584   4.365  14.207
93391SOL    HW282007   8.653   4.494  14.245
93392SOL     OW82008  11.112   5.664   3.756
93392SOL    HW182009  11.018   5.668   3.776
93392SOL    HW282010  11.118   5.600   3.685
93393SOL     OW82011   4.968   0.608   7.174
93393SOL    HW182012   4.908   0.596   7.101
93393SOL    HW282013   5.032   0.537   7.164
93394SOL     OW82014  12.046  13.828   3.806
93394SOL    HW182015  12.095  13.803   3.727
93394SOL    HW282016  11.976  13.884   3.773
93395SOL     OW82017   9.892   9.137   4.444
93395SOL    HW182018   9.978   9.174   4.462
93395SOL    HW282019   9.908   9.044   4.429
93396SOL     OW82020   3.345  10.103   5.174
93396SOL    HW182021   3.349  10.033   5.239
93396SOL    HW282022   3.310  10.178   5.221
93397SOL     OW82023   7.420   4.222   3.328
93397SOL    HW182024   7.420   4.137   3.373
93397SOL    HW282025   7.453   4.284   3.393
93398SOL     OW82026  12.272  13.053  13.859
93398SOL    HW182027  12.354  13.087  13.896
93398SOL    HW282028  12.268  13.092  13.772
93399SOL     OW82029   3.413   7.078   8.065
93399SOL    HW182030   3.426   6.983   8.058
93399SOL    HW282031   3.410   7.108   7.974
93400SOL     OW82032   6.881   7.481   8.012
93400SOL    HW182033   6.883   7.513   8.102
93400SOL    HW282034   6.946   7.411   8.010
93401SOL     OW82035  10.342   1.893   1.445
93401SOL    HW182036  10.347   1.862   1.535
93401SOL    HW282037  10.386   1.978   1.446
93402SOL     OW82038   1.231  12.339   4.979
93402SOL    HW182039   1.233  12.422   5.026
93402SOL    HW282040   1.264  12.360   4.891
93403SOL     OW82041   6.332   5.489  11.537
93403SOL    HW182042   6.304   5.572  11.577
93403SOL    HW282043   6.404   5.458  11.593
93404SOL     OW82044   2.343   9.856   1.747
93404SOL    HW182045   2.418   9.858   1.806
93404SOL    HW282046   2.286   9.787   1.782
93405SOL     OW82047   0.790   0.717  14.676
93405SOL    HW182048   0.755   0.629  14.694
93405SOL    HW282049   0.874   0.702  14.633
93406SOL     OW82050   2.169   1.654  12.350
93406SOL    HW182051   2.137   1.629  12.437
93406SOL    HW282052   2.092   1.687  12.305
93407SOL     OW82053   8.752   8.984   5.651
93407SOL    HW182054   8.690   9.003   5.721
93407SOL    HW282055   8.822   9.049   5.663
93408SOL     OW82056  12.308  12.359   1.974
93408SOL    HW182057  12.287  12.271   2.005
93408SOL    HW282058  12.240  12.379   1.909
93409SOL     OW82059  13.748   1.897   6.518
93409SOL    HW182060  13.733   1.832   6.449
93409SOL    HW282061  13.693   1.869   6.591
93410SOL     OW82062   9.035  10.267   5.241
93410SOL    HW182063   9.096  10.217   5.295
93410SOL    HW282064   8.989  10.201   5.189
93411SOL     OW82065  11.816   2.619   7.342
93411SOL    HW182066  11.892   2.593   7.289
93411SOL    HW282067  11.746   2.633   7.278
93412SOL     OW82068   6.925   4.122  13.301
93412SOL    HW182069   6.869   4.088  13.370
93412SOL    HW282070   7.004   4.067  13.305
93413SOL     OW82071  12.737   3.956  13.309
93413SOL    HW182072  12.813   4.001  13.345
93413SOL    HW282073  12.773   3.890  13.250
93414SOL     OW82074   2.836  11.447   5.332
93414SOL    HW182075   2.830  11.368   5.278
93414SOL    HW282076   2.803  11.517   5.275
93415SOL     OW82077   1.958   3.478  10.360
93415SOL    HW182078   1.931   3.446  10.274
93415SOL    HW282079   2.036   3.426  10.381
93416SOL     OW82080  12.199  12.802  11.339
93416SOL    HW182081  12.257  12.823  11.265
93416SOL    HW282082  12.257  12.760  11.402
93417SOL     OW82083  14.041  13.454  12.702
93417SOL    HW182084  14.071  13.440  12.791
93417SOL    HW282085  14.042  13.549  12.691
93418SOL     OW82086   3.321   9.823   3.455
93418SOL    HW182087   3.366   9.896   3.413
93418SOL    HW282088   3.262   9.865   3.518
93419SOL     OW82089   1.432   4.011  11.165
93419SOL    HW182090   1.438   3.964  11.082
93419SOL    HW282091   1.402   3.945  11.227
93420SOL     OW82092   9.798   7.120   0.273
93420SOL    HW182093   9.812   7.165   0.357
93420SOL    HW282094   9.770   7.032   0.298
93421SOL     OW82095   7.763   5.611  12.599
93421SOL    HW182096   7.715   5.528  12.592
93421SOL    HW282097   7.807   5.620  12.514
93422SOL     OW82098   5.194   3.804  11.870
93422SOL    HW182099   5.107   3.839  11.888
93422SOL    HW282100   5.254   3.875  11.893
93423SOL     OW82101   8.293   9.711  13.134
93423SOL    HW182102   8.220   9.767  13.107
93423SOL    HW282103   8.302   9.727  13.228
93424SOL     OW82104   8.747  11.949  11.539
93424SOL    HW182105   8.754  11.953  11.634
93424SOL    HW282106   8.837  11.934  11.509
93425SOL     OW82107   9.646  14.256   5.785
93425SOL    HW182108   9.554  14.253   5.811
93425SOL    HW282109   9.674  14.164   5.787
93426SOL     OW82110  10.606   5.915   6.156
93426SOL    HW182111  10.550   5.937   6.231
93426SOL    HW282112  10.687   5.882   6.195
93427SOL     OW82113  12.040   9.893   3.822
93427SOL    HW182114  11.997   9.931   3.899
93427SOL    HW282115  11.971   9.843   3.779
93428SOL     OW82116   6.587   1.203  12.345
93428SOL    HW182117   6.611   1.223  12.255
93428SOL    HW282118   6.608   1.110  12.355
93429SOL     OW82119   3.800   9.366   4.041
93429SOL    HW182120   3.826   9.278   4.015
93429SOL    HW282121   3.706   9.370   4.024
93430SOL     OW82122  11.309  14.384  11.273
93430SOL    HW182123  11.330  14.290  11.278
93430SOL    HW282124  11.367  14.418  11.205
93431SOL     OW82125   9.160   7.969   7.537
93431SOL    HW182126   9.227   8.032   7.507
93431SOL    HW282127   9.117   8.013   7.610
93432SOL     OW82128   7.728   9.304   3.749
93432SOL    HW182129   7.752   9.370   3.813
93432SOL    HW282130   7.636   9.284   3.768
93433SOL     OW82131  11.473   1.346  11.758
93433SOL    HW182132  11.484   1.287  11.683
93433SOL    HW282133  11.395   1.397  11.738
93434SOL     OW82134   0.168  10.935   3.500
93434SOL    HW182135   0.120  10.937   3.418
93434SOL    HW282136   0.106  10.899   3.564
93435SOL     OW82137   0.856  13.874   2.271
93435SOL    HW182138   0.828  13.794   2.227
93435SOL    HW282139   0.843  13.856   2.364
93436SOL     OW82140  12.591   2.135   3.256
93436SOL    HW182141  12.510   2.162   3.214
93436SOL    HW282142  12.648   2.109   3.184
93437SOL     OW82143  11.559   0.451   6.173
93437SOL    HW182144  11.588   0.450   6.082
93437SOL    HW282145  11.502   0.374   6.180
93438SOL     OW82146  13.499   6.460   5.442
93438SOL    HW182147  13.567   6.405   5.402
93438SOL    HW282148  13.476   6.523   5.374
93439SOL     OW82149  11.307   0.745   6.004
93439SOL    HW182150  11.238   0.780   5.948
93439SOL    HW282151  11.266   0.735   6.090
93440SOL     OW82152  12.228   3.196   8.817
93440SOL    HW182153  12.160   3.244   8.865
93440SOL    HW282154  12.309   3.245   8.835
93441SOL     OW82155   6.616   4.887   7.144
93441SOL    HW182156   6.660   4.805   7.121
93441SOL    HW282157   6.670   4.926   7.212
93442SOL     OW82158   2.208   2.840  12.838
93442SOL    HW182159   2.127   2.860  12.884
93442SOL    HW282160   2.251   2.925  12.826
93443SOL     OW82161   6.510   3.003   8.786
93443SOL    HW182162   6.445   3.054   8.738
93443SOL    HW282163   6.583   3.063   8.800
93444SOL     OW82164  11.653   8.886   0.820
93444SOL    HW182165  11.641   8.791   0.815
93444SOL    HW282166  11.684   8.902   0.909
93445SOL     OW82167   1.956   2.775   8.456
93445SOL    HW182168   1.863   2.796   8.452
93445SOL    HW282169   1.962   2.701   8.516
93446SOL     OW82170   7.749   0.348   7.009
93446SOL    HW182171   7.696   0.403   7.068
93446SOL    HW282172   7.830   0.396   6.997
93447SOL     OW82173   2.203   9.034  11.355
93447SOL    HW182174   2.191   8.968  11.423
93447SOL    HW282175   2.200   8.985  11.273
93448SOL     OW82176   0.085   1.873   6.199
93448SOL    HW182177   0.004   1.832   6.167
93448SOL    HW282178   0.072   1.967   6.185
93449SOL     OW82179  10.726   8.465  12.797
93449SOL    HW182180  10.787   8.413  12.848
93449SOL    HW282181  10.646   8.411  12.792
93450SOL     OW82182   7.119   1.802   8.407
93450SOL    HW182183   7.183   1.750   8.358
93450SOL    HW282184   7.164   1.824   8.489
93451SOL     OW82185   9.455   2.511  11.219
93451SOL    HW182186   9.533   2.565  11.236
93451SOL    HW282187   9.407   2.561  11.153
93452SOL     OW82188  12.718   0.904   0.250
93452SOL    HW182189  12.657   0.977   0.235
93452SOL    HW282190  12.761   0.925   0.333
93453SOL     OW82191   4.698  11.523  10.408
93453SOL    HW182192   4.720  11.604  10.362
93453SOL    HW282193   4.776  11.469  10.401
93454SOL     OW82194   6.781   1.630  12.526
93454SOL    HW182195   6.825   1.569  12.467
93454SOL    HW282196   6.796   1.593  12.613
93455SOL     OW82197  11.349   7.079   2.388
93455SOL    HW182198  11.295   7.056   2.312
93455SOL    HW282199  11.414   7.140   2.353
93456SOL     OW82200   9.447   9.801  10.406
93456SOL    HW182201   9.518   9.838  10.458
93456SOL    HW282202   9.459   9.706  10.412
93457SOL     OW82203  10.291   0.518   4.823
93457SOL    HW182204  10.251   0.465   4.754
93457SOL    HW282205  10.353   0.574   4.776
93458SOL     OW82206  10.027  14.776   5.807
93458SOL    HW182207  10.083  14.749   5.879
93458SOL    HW282208  10.006  14.868   5.826
93459SOL     OW82209   5.453   0.669   3.041
93459SOL    HW182210   5.395   0.594   3.050
93459SOL    HW282211   5.541   0.632   3.043
93460SOL     OW82212   0.008   7.784   3.763
93460SOL    HW182213   0.015   7.869   3.807
93460SOL    HW282214   0.047   7.722   3.824
93461SOL     OW82215  13.045   2.075   8.940
93461SOL    HW182216  13.016   1.998   8.891
93461SOL    HW282217  12.967   2.104   8.988
93462SOL     OW82218  10.388   6.784  13.212
93462SOL    HW182219  10.295   6.762  13.219
93462SOL    HW282220  10.406   6.781  13.118
93463SOL     OW82221  11.365   7.125   1.716
93463SOL    HW182222  11.419   7.047   1.710
93463SOL    HW282223  11.277   7.096   1.692
93464SOL     OW82224   5.588   1.793  10.956
93464SOL    HW182225   5.538   1.736  10.897
93464SOL    HW282226   5.660   1.826  10.902
93465SOL     OW82227   2.826   3.915   4.230
93465SOL    HW182228   2.871   3.889   4.150
93465SOL    HW282229   2.879   3.986   4.266
93466SOL     OW82230   8.234   3.682   1.676
93466SOL    HW182231   8.311   3.648   1.722
93466SOL    HW282232   8.253   3.775   1.663
93467SOL     OW82233   4.997   1.111   9.935
93467SOL    HW182234   5.083   1.125   9.897
93467SOL    HW282235   5.013   1.056  10.012
93468SOL     OW82236   9.306   1.948   4.107
93468SOL    HW182237   9.348   1.945   4.193
93468SOL    HW282238   9.277   1.859   4.090
93469SOL     OW82239  14.496  12.533  12.418
93469SOL    HW182240  14.462  12.569  12.499
93469SOL    HW282241  14.568  12.591  12.393
93470SOL     OW82242   6.757   0.084  12.122
93470SOL    HW182243   6.753   0.007  12.065
93470SOL    HW282244   6.764   0.048  12.211
93471SOL     OW82245   7.136  11.904  13.982
93471SOL    HW182246   7.078  11.863  13.918
93471SOL    HW282247   7.210  11.844  13.988
93472SOL     OW82248  14.281   4.729   6.096
93472SOL    HW182249  14.246   4.706   6.010
93472SOL    HW282250  14.237   4.668   6.156
93473SOL     OW82251   7.430   9.403  13.947
93473SOL    HW182252   7.455   9.360  13.865
93473SOL    HW282253   7.476   9.355  14.015
93474SOL     OW82254  10.091   7.863  10.612
93474SOL    HW182255  10.092   7.771  10.640
93474SOL    HW282256  10.001   7.891  10.628
93475SOL     OW82257  11.290   3.092   4.081
93475SOL    HW182258  11.282   3.156   4.152
93475SOL    HW282259  11.374   3.049   4.097
93476SOL     OW82260  12.822   0.592   2.874
93476SOL    HW182261  12.729   0.568   2.875
93476SOL    HW282262  12.825   0.675   2.826
93477SOL     OW82263   2.228   3.576   5.228
93477SOL    HW182264   2.222   3.547   5.137
93477SOL    HW282265   2.148   3.542   5.269
93478SOL     OW82266  10.448   7.838   3.842
93478SOL    HW182267  10.519   7.854   3.780
93478SOL    HW282268  10.483   7.868   3.926
93479SOL     OW82269   4.853   2.906   4.098
93479SOL    HW182270   4.808   2.870   4.175
93479SOL    HW282271   4.782   2.936   4.041
93480SOL     OW82272   5.472   6.059   5.838
93480SOL    HW182273   5.402   6.016   5.887
93480SOL    HW282274   5.541   5.992   5.832
93481SOL     OW82275  13.757   4.593  12.375
93481SOL    HW182276  13.706   4.523  12.335
93481SOL    HW282277  13.692   4.650  12.416
93482SOL     OW82278   7.082  12.816   2.178
93482SOL    HW182279   7.042  12.903   2.177
93482SOL    HW282280   7.076  12.788   2.269
93483SOL     OW82281   6.610  11.950   9.194
93483SOL    HW182282   6.660  11.901   9.260
93483SOL    HW282283   6.547  11.886   9.160
93484SOL     OW82284  14.793   3.642  11.614
93484SOL    HW182285  14.736   3.712  11.644
93484SOL    HW282286  14.738   3.587  11.558
93485SOL     OW82287   9.884   4.943   8.541
93485SOL    HW182288   9.834   4.902   8.470
93485SOL    HW282289   9.937   4.873   8.577
93486SOL     OW82290   7.916   5.279   5.239
93486SOL    HW182291   8.009   5.290   5.259
93486SOL    HW282292   7.871   5.319   5.314
93487SOL     OW82293   1.735  12.865   1.570
93487SOL    HW182294   1.719  12.795   1.508
93487SOL    HW282295   1.797  12.923   1.525
93488SOL     OW82296   8.238  11.459  11.090
93488SOL    HW182297   8.231  11.491  11.000
93488SOL    HW282298   8.161  11.402  11.101
93489SOL     OW82299   0.088  12.997  10.445
93489SOL    HW182300   0.105  13.016  10.537
93489SOL    HW282301   0.160  12.941  10.417
93490SOL     OW82302   9.923   5.257   2.046
93490SOL    HW182303   9.934   5.212   1.962
93490SOL    HW282304   9.828   5.266   2.056
93491SOL     OW82305   9.081  12.335   0.806
93491SOL    HW182306   9.032  12.385   0.872
93491SOL    HW282307   9.133  12.273   0.858
93492SOL     OW82308  10.025   3.314   0.490
93492SOL    HW182309   9.982   3.355   0.414
93492SOL    HW282310  10.113   3.292   0.458
93493SOL     OW82311   5.225  11.734  10.822
93493SOL    HW182312   5.312  11.724  10.785
93493SOL    HW282313   5.235  11.805  10.886
93494SOL     OW82314   5.647   5.125  11.197
93494SOL    HW182315   5.582   5.117  11.127
93494SOL    HW282316   5.724   5.079  11.164
93495SOL     OW82317  10.536   1.002   3.460
93495SOL    HW182318  10.628   1.025   3.448
93495SOL    HW282319  10.537   0.907   3.472
93496SOL     OW82320   1.425  10.807   5.332
93496SOL    HW182321   1.428  10.848   5.419
93496SOL    HW282322   1.343  10.757   5.333
93497SOL     OW82323  10.222   5.726  14.048
93497SOL    HW182324  10.260   5.756  13.965
93497SOL    HW282325  10.266   5.779  14.115
93498SOL     OW82326   1.074   8.064   4.881
93498SOL    HW182327   1.140   8.008   4.921
93498SOL    HW282328   1.020   8.004   4.830
93499SOL     OW82329   7.124  12.940  11.872
93499SOL    HW182330   7.083  13.017  11.835
93499SOL    HW282331   7.142  12.963  11.963
93500SOL     OW82332  13.835  13.741  11.843
93500SOL    HW182333  13.876  13.667  11.797
93500SOL    HW282334  13.861  13.730  11.934
93501SOL     OW82335  13.589   2.486  12.747
93501SOL    HW182336  13.507   2.479  12.699
93501SOL    HW282337  13.647   2.422  12.705
93502SOL     OW82338   3.795   7.561  13.684
93502SOL    HW182339   3.871   7.531  13.635
93502SOL    HW282340   3.752   7.624  13.625
93503SOL     OW82341  10.926  10.152  10.919
93503SOL    HW182342  11.001  10.197  10.959
93503SOL    HW282343  10.850  10.201  10.951
93504SOL     OW82344  14.070   9.603   6.397
93504SOL    HW182345  14.062   9.519   6.442
93504SOL    HW282346  14.129   9.585   6.324
93505SOL     OW82347  10.039   0.274  11.291
93505SOL    HW182348  10.005   0.358  11.322
93505SOL    HW282349   9.962   0.230  11.254
93506SOL     OW82350   3.583  13.554   6.775
93506SOL    HW182351   3.609  13.469   6.812
93506SOL    HW282352   3.642  13.567   6.701
93507SOL     OW82353   3.249   6.511   4.757
93507SOL    HW182354   3.328   6.502   4.704
93507SOL    HW282355   3.274   6.573   4.826
93508SOL     OW82356  10.697   1.127   8.303
93508SOL    HW182357  10.741   1.062   8.248
93508SOL    HW282358  10.765   1.157   8.363
93509SOL     OW82359  11.167   0.277   5.762
93509SOL    HW182360  11.136   0.203   5.813
93509SOL    HW282361  11.099   0.290   5.695
93510SOL     OW82362   6.125  14.829  13.618
93510SOL    HW182363   6.091  14.778  13.545
93510SOL    HW282364   6.053  14.832  13.681
93511SOL     OW82365   5.991   0.393   5.126
93511SOL    HW182366   5.981   0.351   5.212
93511SOL    HW282367   6.085   0.390   5.109
93512SOL     OW82368  13.362  13.322   4.036
93512SOL    HW182369  13.318  13.242   4.007
93512SOL    HW282370  13.429  13.291   4.098
93513SOL     OW82371   3.882   7.504   9.821
93513SOL    HW182372   3.833   7.440   9.770
93513SOL    HW282373   3.854   7.490   9.911
93514SOL     OW82374  11.763   9.121  11.487
93514SOL    HW182375  11.695   9.184  11.461
93514SOL    HW282376  11.722   9.035  11.477
93515SOL     OW82377  11.900   5.104   8.442
93515SOL    HW182378  11.853   5.144   8.368
93515SOL    HW282379  11.841   5.117   8.517
93516SOL     OW82380  12.167   1.315   2.412
93516SOL    HW182381  12.192   1.405   2.430
93516SOL    HW282382  12.222   1.288   2.339
93517SOL     OW82383  11.215   5.464   1.972
93517SOL    HW182384  11.278   5.531   1.947
93517SOL    HW282385  11.194   5.419   1.890
93518SOL     OW82386   1.182   9.570   1.423
93518SOL    HW182387   1.268   9.560   1.382
93518SOL    HW282388   1.136   9.488   1.403
93519SOL     OW82389  10.603  12.033   6.330
93519SOL    HW182390  10.601  12.022   6.425
93519SOL    HW282391  10.518  12.000   6.301
93520SOL     OW82392  13.043  13.488   5.268
93520SOL    HW182393  13.088  13.409   5.238
93520SOL    HW282394  12.966  13.455   5.314
93521SOL     OW82395   4.078   1.280   2.036
93521SOL    HW182396   3.984   1.288   2.019
93521SOL    HW282397   4.118   1.344   1.978
93522SOL     OW82398   7.695   6.788   3.107
93522SOL    HW182399   7.720   6.758   3.020
93522SOL    HW282400   7.668   6.709   3.153
93523SOL     OW82401   7.126   3.717   0.445
93523SOL    HW182402   7.167   3.790   0.492
93523SOL    HW282403   7.192   3.689   0.382
93524SOL     OW82404   5.342   5.744  12.206
93524SOL    HW182405   5.416   5.786  12.161
93524SOL    HW282406   5.300   5.816  12.253
93525SOL     OW82407   2.076  13.821   7.390
93525SOL    HW182408   2.016  13.789   7.457
93525SOL    HW282409   2.127  13.744   7.364
93526SOL     OW82410   9.016   2.895  10.165
93526SOL    HW182411   8.931   2.924  10.196
93526SOL    HW282412   9.063   2.975  10.143
93527SOL     OW82413   1.132   9.441  12.517
93527SOL    HW182414   1.176   9.525  12.506
93527SOL    HW282415   1.048   9.463  12.558
93528SOL     OW82416   1.928   6.461   5.732
93528SOL    HW182417   1.968   6.479   5.817
93528SOL    HW282418   1.932   6.544   5.685
93529SOL     OW82419   9.903   7.780   6.853
93529SOL    HW182420   9.837   7.769   6.922
93529SOL    HW282421   9.873   7.857   6.804
93530SOL     OW82422   2.465  12.211  14.695
93530SOL    HW182423   2.417  12.134  14.727
93530SOL    HW282424   2.397  12.267  14.657
93531SOL     OW82425   9.809   3.670   0.289
93531SOL    HW182426   9.772   3.677   0.377
93531SOL    HW282427   9.903   3.677   0.302
93532SOL     OW82428   6.626   1.980   0.096
93532SOL    HW182429   6.667   2.045   0.154
93532SOL    HW282430   6.560   1.938   0.151
93533SOL     OW82431   6.484   6.560   8.394
93533SOL    HW182432   6.576   6.541   8.412
93533SOL    HW282433   6.485   6.640   8.341
93534SOL     OW82434   3.961  11.470   7.292
93534SOL    HW182435   4.055  11.486   7.300
93534SOL    HW282436   3.919  11.550   7.324
93535SOL     OW82437  14.335   0.422  10.172
93535SOL    HW182438  14.258   0.371  10.145
93535SOL    HW282439  14.403   0.357  10.189
93536SOL     OW82440  13.894   8.117   5.626
93536SOL    HW182441  13.898   8.072   5.711
93536SOL    HW282442  13.887   8.210   5.648
93537SOL     OW82443   0.754  12.228  12.283
93537SOL    HW182444   0.684  12.243  12.347
93537SOL    HW282445   0.826  12.191  12.335
93538SOL     OW82446  14.850   7.112   3.095
93538SOL    HW182447  14.796   7.154   3.161
93538SOL    HW282448   0.061   7.132   3.121
93539SOL     OW82449   4.581   6.909   8.061
93539SOL    HW182450   4.612   6.940   8.146
93539SOL    HW282451   4.576   6.988   8.007
93540SOL     OW82452  12.667  13.838  10.235
93540SOL    HW182453  12.758  13.838  10.264
93540SOL    HW282454  12.665  13.898  10.160
93541SOL     OW82455   8.576   8.955   5.856
93541SOL    HW182456   8.535   8.879   5.898
93541SOL    HW282457   8.592   9.016   5.929
93542SOL     OW82458  12.196   6.429  12.043
93542SOL    HW182459  12.198   6.383  11.960
93542SOL    HW282460  12.209   6.361  12.109
93543SOL     OW82461  14.546   5.164   6.220
93543SOL    HW182462  14.495   5.089   6.190
93543SOL    HW282463  14.497   5.240   6.190
93544SOL     OW82464  14.808   5.557   9.765
93544SOL    HW182465  14.799   5.650   9.788
93544SOL    HW282466   0.018   5.534   9.790
93545SOL     OW82467   0.677  10.705   2.511
93545SOL    HW182468   0.623  10.779   2.481
93545SOL    HW282469   0.764  10.724   2.476
93546SOL     OW82470   6.726  11.485  10.861
93546SOL    HW182471   6.705  11.573  10.831
93546SOL    HW282472   6.810  11.494  10.906
93547SOL     OW82473  13.096   2.180   3.621
93547SOL    HW182474  13.028   2.123   3.584
93547SOL    HW282475  13.057   2.267   3.618
93548SOL     OW82476   2.601   0.595  13.549
93548SOL    HW182477   2.585   0.518  13.603
93548SOL    HW282478   2.523   0.650  13.562
93549SOL     OW82479   4.048  12.470   5.152
93549SOL    HW182480   4.109  12.447   5.082
93549SOL    HW282481   3.967  12.492   5.107
93550SOL     OW82482   1.357   5.590   4.877
93550SOL    HW182483   1.325   5.638   4.801
93550SOL    HW282484   1.411   5.653   4.924
93551SOL     OW82485   9.832   2.494  12.887
93551SOL    HW182486   9.788   2.577  12.904
93551SOL    HW282487   9.777   2.451  12.822
93552SOL     OW82488  11.124   0.219   6.151
93552SOL    HW182489  11.106   0.137   6.104
93552SOL    HW282490  11.038   0.249   6.180
93553SOL     OW82491  12.153   4.354   7.819
93553SOL    HW182492  12.184   4.328   7.733
93553SOL    HW282493  12.087   4.289   7.843
93554SOL     OW82494  14.404   4.538  14.300
93554SOL    HW182495  14.409   4.601  14.371
93554SOL    HW282496  14.315   4.546  14.266
93555SOL     OW82497   4.969   3.510   2.332
93555SOL    HW182498   4.893   3.530   2.277
93555SOL    HW282499   4.979   3.588   2.387
93556SOL     OW82500   8.066   8.008   2.326
93556SOL    HW182501   8.039   8.054   2.406
93556SOL    HW282502   8.008   7.932   2.322
93557SOL     OW82503   2.737  13.002   3.522
93557SOL    HW182504   2.709  13.056   3.596
93557SOL    HW282505   2.830  12.986   3.538
93558SOL     OW82506   5.178   4.853   0.666
93558SOL    HW182507   5.194   4.876   0.575
93558SOL    HW282508   5.120   4.921   0.699
93559SOL     OW82509  10.573   6.811  10.982
93559SOL    HW182510  10.626   6.735  10.960
93559SOL    HW282511  10.570   6.863  10.902
93560SOL     OW82512   4.932   1.727  10.918
93560SOL    HW182513   4.885   1.645  10.909
93560SOL    HW282514   4.867   1.795  10.900
93561SOL     OW82515  10.521   7.685   2.047
93561SOL    HW182516  10.458   7.673   2.118
93561SOL    HW282517  10.568   7.602   2.042
93562SOL     OW82518  11.674  13.016   6.352
93562SOL    HW182519  11.746  13.043   6.409
93562SOL    HW282520  11.705  13.032   6.263
93563SOL     OW82521   4.869   6.746   1.632
93563SOL    HW182522   4.887   6.695   1.712
93563SOL    HW282523   4.779   6.723   1.609
93564SOL     OW82524  13.117  12.785   8.984
93564SOL    HW182525  13.036  12.790   9.034
93564SOL    HW282526  13.144  12.694   8.989
93565SOL     OW82527   5.760   7.482   0.422
93565SOL    HW182528   5.694   7.426   0.380
93565SOL    HW282529   5.791   7.539   0.351
93566SOL     OW82530   2.701  11.807  14.140
93566SOL    HW182531   2.789  11.841  14.155
93566SOL    HW282532   2.695  11.797  14.045
93567SOL     OW82533   8.582   0.869   9.128
93567SOL    HW182534   8.646   0.864   9.200
93567SOL    HW282535   8.577   0.962   9.106
93568SOL     OW82536   9.776   7.745   6.499
93568SOL    HW182537   9.737   7.721   6.583
93568SOL    HW282538   9.800   7.662   6.458
93569SOL     OW82539   2.685  10.415   3.927
93569SOL    HW182540   2.623  10.460   3.869
93569SOL    HW282541   2.676  10.461   4.011
93570SOL     OW82542   5.468  14.058   1.561
93570SOL    HW182543   5.471  14.040   1.467
93570SOL    HW282544   5.422  13.983   1.598
93571SOL     OW82545  11.469  12.936   5.117
93571SOL    HW182546  11.536  12.868   5.108
93571SOL    HW282547  11.386  12.891   5.102
93572SOL     OW82548   2.470   7.379   8.963
93572SOL    HW182549   2.525   7.452   8.992
93572SOL    HW282550   2.398   7.376   9.025
93573SOL     OW82551   9.331  11.294   3.007
93573SOL    HW182552   9.251  11.345   2.999
93573SOL    HW282553   9.308  11.208   2.971
93574SOL     OW82554  13.780  10.244   2.033
93574SOL    HW182555  13.866  10.204   2.020
93574SOL    HW282556  13.722  10.196   1.973
93575SOL     OW82557  13.935   7.458   1.523
93575SOL    HW182558  14.001   7.518   1.489
93575SOL    HW282559  13.944   7.379   1.469
93576SOL     OW82560   8.910   1.654  12.173
93576SOL    HW182561   8.865   1.578  12.134
93576SOL    HW282562   8.891   1.726  12.113
93577SOL     OW82563   4.224   9.404   3.069
93577SOL    HW182564   4.133   9.425   3.091
93577SOL    HW282565   4.275   9.445   3.139
93578SOL     OW82566  14.420   8.029  13.927
93578SOL    HW182567  14.381   7.943  13.908
93578SOL    HW282568  14.349   8.091  13.910
93579SOL     OW82569   9.179  10.074   7.339
93579SOL    HW182570   9.110  10.018   7.372
93579SOL    HW282571   9.258  10.019   7.340
93580SOL     OW82572  11.708  13.868  14.606
93580SOL    HW182573  11.760  13.851  14.528
93580SOL    HW282574  11.626  13.820  14.592
93581SOL     OW82575   3.454   3.354   0.834
93581SOL    HW182576   3.537   3.317   0.864
93581SOL    HW282577   3.458   3.348   0.739
93582SOL     OW82578   8.794   3.497   3.145
93582SOL    HW182579   8.798   3.577   3.198
93582SOL    HW282580   8.884   3.463   3.147
93583SOL     OW82581   6.377  12.488   7.619
93583SOL    HW182582   6.438  12.557   7.594
93583SOL    HW282583   6.290  12.526   7.602
93584SOL     OW82584   5.638   1.768  10.383
93584SOL    HW182585   5.653   1.675  10.399
93584SOL    HW282586   5.726   1.806  10.382
93585SOL     OW82587   6.623  14.304   0.592
93585SOL    HW182588   6.588  14.219   0.620
93585SOL    HW282589   6.699  14.317   0.648
93586SOL     OW82590  10.060   9.653   5.772
93586SOL    HW182591  10.071   9.665   5.867
93586SOL    HW282592  10.075   9.740   5.735
93587SOL     OW82593   8.259  10.442   2.452
93587SOL    HW182594   8.200  10.368   2.441
93587SOL    HW282595   8.201  10.516   2.472
93588SOL     OW82596   3.872   8.739   0.289
93588SOL    HW182597   3.932   8.809   0.265
93588SOL    HW282598   3.815   8.728   0.213
93589SOL     OW82599  12.899  14.786   6.962
93589SOL    HW182600  12.852  14.708   6.932
93589SOL    HW282601  12.992  14.765   6.951
93590SOL     OW82602  10.479   9.081  13.215
93590SOL    HW182603  10.445   9.170  13.219
93590SOL    HW282604  10.405   9.028  13.186
93591SOL     OW82605   3.884  10.738   1.853
93591SOL    HW182606   3.825  10.754   1.780
93591SOL    HW282607   3.856  10.654   1.889
93592SOL     OW82608  12.884  13.368   2.815
93592SOL    HW182609  12.939  13.402   2.886
93592SOL    HW282610  12.795  13.391   2.842
93593SOL     OW82611  12.295  11.342  13.187
93593SOL    HW182612  12.385  11.322  13.212
93593SOL    HW282613  12.268  11.269  13.133
93594SOL     OW82614   6.801  11.416   4.906
93594SOL    HW182615   6.751  11.435   4.826
93594SOL    HW282616   6.836  11.501   4.933
93595SOL     OW82617   4.286   3.706   6.306
93595SOL    HW182618   4.259   3.648   6.235
93595SOL    HW282619   4.265   3.794   6.275
93596SOL     OW82620  13.604   7.310   9.578
93596SOL    HW182621  13.512   7.292   9.557
93596SOL    HW282622  13.622   7.395   9.540
93597SOL     OW82623  10.399   2.585   6.191
93597SOL    HW182624  10.366   2.622   6.109
93597SOL    HW282625  10.389   2.490   6.179
93598SOL     OW82626  14.512  11.037   4.905
93598SOL    HW182627  14.478  11.093   4.975
93598SOL    HW282628  14.481  11.078   4.824
93599SOL     OW82629  10.432  12.246   9.813
93599SOL    HW182630  10.434  12.216   9.722
93599SOL    HW282631  10.498  12.193   9.858
93600SOL     OW82632   7.681   4.599  10.404
93600SOL    HW182633   7.620   4.554  10.344
93600SOL    HW282634   7.690   4.686  10.366
93601SOL     OW82635   5.166   1.813  11.045
93601SOL    HW182636   5.158   1.751  11.117
93601SOL    HW282637   5.092   1.794  10.988
93602SOL     OW82638  10.457  11.778   2.903
93602SOL    HW182639  10.378  11.814   2.865
93602SOL    HW282640  10.435  11.763   2.995
93603SOL     OW82641  10.603   8.890   3.851
93603SOL    HW182642  10.514   8.876   3.818
93603SOL    HW282643  10.596   8.968   3.906
93604SOL     OW82644   0.589   6.289  10.837
93604SOL    HW182645   0.560   6.198  10.843
93604SOL    HW282646   0.509   6.339  10.825
93605SOL     OW82647  12.882   3.880   9.141
93605SOL    HW182648  12.820   3.825   9.190
93605SOL    HW282649  12.865   3.858   9.049
93606SOL     OW82650   7.386   6.010   7.350
93606SOL    HW182651   7.373   6.065   7.273
93606SOL    HW282652   7.393   6.072   7.423
93607SOL     OW82653  12.165   1.222  11.306
93607SOL    HW182654  12.185   1.308  11.342
93607SOL    HW282655  12.246   1.194  11.263
93608SOL     OW82656   8.352   7.781   4.666
93608SOL    HW182657   8.288   7.852   4.658
93608SOL    HW282658   8.361   7.769   4.761
93609SOL     OW82659   9.425   3.162  11.115
93609SOL    HW182660   9.422   3.077  11.159
93609SOL    HW282661   9.512   3.197  11.135
93610SOL     OW82662  14.424   1.725   6.405
93610SOL    HW182663  14.391   1.658   6.346
93610SOL    HW282664  14.357   1.734   6.472
93611SOL     OW82665   0.007   6.569  10.143
93611SOL    HW182666  14.858   6.478  10.154
93611SOL    HW282667   0.102   6.563  10.128
93612SOL     OW82668   7.271   8.717   0.303
93612SOL    HW182669   7.265   8.812   0.296
93612SOL    HW282670   7.188   8.690   0.341
93613SOL     OW82671   8.777   0.360  13.750
93613SOL    HW182672   8.771   0.416  13.828
93613SOL    HW282673   8.692   0.371  13.706
93614SOL     OW82674   3.054  12.151   3.886
93614SOL    HW182675   2.977  12.094   3.880
93614SOL    HW282676   3.081  12.165   3.796
93615SOL     OW82677   7.211  10.321   6.493
93615SOL    HW182678   7.230  10.349   6.403
93615SOL    HW282679   7.147  10.384   6.524
93616SOL     OW82680   3.137  10.299   5.303
93616SOL    HW182681   3.103  10.331   5.386
93616SOL    HW282682   3.083  10.222   5.283
93617SOL     OW82683   2.188  12.173  14.385
93617SOL    HW182684   2.190  12.197  14.293
93617SOL    HW282685   2.233  12.089  14.389
93618SOL     OW82686   9.782   2.541   3.871
93618SOL    HW182687   9.820   2.476   3.811
93618SOL    HW282688   9.770   2.619   3.817
93619SOL     OW82689  13.563   2.021   5.997
93619SOL    HW182690  13.658   2.013   5.986
93619SOL    HW282691  13.542   2.108   5.961
93620SOL     OW82692   9.166   6.119   0.751
93620SOL    HW182693   9.102   6.049   0.732
93620SOL    HW282694   9.131   6.196   0.705
93621SOL     OW82695  12.820   3.943  12.564
93621SOL    HW182696  12.767   3.998  12.507
93621SOL    HW282697  12.882   3.899  12.506
93622SOL     OW82698   6.921   8.931  10.451
93622SOL    HW182699   7.011   8.951  10.425
93622SOL    HW282700   6.870   9.006  10.420
93623SOL     OW82701   0.188   9.166  12.680
93623SOL    HW182702   0.219   9.101  12.744
93623SOL    HW282703   0.177   9.246  12.732
93624SOL     OW82704   4.506   2.509  12.274
93624SOL    HW182705   4.411   2.499  12.267
93624SOL    HW282706   4.537   2.503  12.183
93625SOL     OW82707   0.953   7.941   8.936
93625SOL    HW182708   0.903   7.934   9.018
93625SOL    HW282709   1.037   7.901   8.957
93626SOL     OW82710  13.674  12.682  10.392
93626SOL    HW182711  13.642  12.769  10.416
93626SOL    HW282712  13.612  12.622  10.432
93627SOL     OW82713   5.247   8.989  13.186
93627SOL    HW182714   5.281   8.899  13.194
93627SOL    HW282715   5.312   9.043  13.230
93628SOL     OW82716  14.704   0.189   3.859
93628SOL    HW182717  14.700   0.093   3.861
93628SOL    HW282718  14.686   0.215   3.949
93629SOL     OW82719  11.481   3.296   6.228
93629SOL    HW182720  11.501   3.388   6.214
93629SOL    HW282721  11.437   3.293   6.313
93630SOL     OW82722   7.604  12.437   9.509
93630SOL    HW182723   7.521  12.398   9.536
93630SOL    HW282724   7.601  12.436   9.413
93631SOL     OW82725   3.275  11.187   3.506
93631SOL    HW182726   3.289  11.131   3.430
93631SOL    HW282727   3.249  11.272   3.470
93632SOL     OW82728  14.525   4.616   8.462
93632SOL    HW182729  14.446   4.565   8.444
93632SOL    HW282730  14.566   4.570   8.536
93633SOL     OW82731   5.278   6.102  13.539
93633SOL    HW182732   5.353   6.046  13.520
93633SOL    HW282733   5.225   6.050  13.601
93634SOL     OW82734  10.968   5.534  14.674
93634SOL    HW182735  10.945   5.531  14.767
93634SOL    HW282736  10.885   5.547  14.629
93635SOL     OW82737  11.453   7.756   3.104
93635SOL    HW182738  11.547   7.742   3.094
93635SOL    HW282739  11.423   7.782   3.017
93636SOL     OW82740   4.905  12.425  12.446
93636SOL    HW182741   4.922  12.340  12.487
93636SOL    HW282742   4.850  12.472  12.508
93637SOL     OW82743   5.046   5.747  13.272
93637SOL    HW182744   5.114   5.703  13.221
93637SOL    HW282745   4.965   5.727  13.226
93638SOL     OW82746  10.581  12.511   8.240
93638SOL    HW182747  10.507  12.565   8.212
93638SOL    HW282748  10.562  12.424   8.206
93639SOL     OW82749  11.995   6.838   0.434
93639SOL    HW182750  12.061   6.863   0.499
93639SOL    HW282751  12.022   6.750   0.406
93640SOL     OW82752   2.372   5.007  13.740
93640SOL    HW182753   2.298   5.050  13.783
93640SOL    HW282754   2.396   4.935  13.798
93641SOL     OW82755  11.501   8.455  12.730
93641SOL    HW182756  11.427   8.516  12.722
93641SOL    HW282757  11.469   8.375  12.689
93642SOL     OW82758   1.539   7.315   4.595
93642SOL    HW182759   1.593   7.238   4.611
93642SOL    HW282760   1.592   7.370   4.537
93643SOL     OW82761   7.833   6.444   7.384
93643SOL    HW182762   7.770   6.376   7.359
93643SOL    HW282763   7.828   6.446   7.480
93644SOL     OW82764  11.582   9.153   9.579
93644SOL    HW182765  11.615   9.212   9.512
93644SOL    HW282766  11.525   9.207   9.634
93645SOL     OW82767   7.584   7.663   1.428
93645SOL    HW182768   7.619   7.749   1.404
93645SOL    HW282769   7.512   7.649   1.366
93646SOL     OW82770  10.118   3.507  11.386
93646SOL    HW182771  10.140   3.542  11.473
93646SOL    HW282772  10.098   3.415  11.401
93647SOL     OW82773  11.097   7.831   1.375
93647SOL    HW182774  11.141   7.754   1.339
93647SOL    HW282775  11.156   7.862   1.444
93648SOL     OW82776  13.791   5.724   1.309
93648SOL    HW182777  13.791   5.657   1.377
93648SOL    HW282778  13.703   5.762   1.311
93649SOL     OW82779   4.962   0.328   0.523
93649SOL    HW182780   4.987   0.340   0.431
93649SOL    HW282781   4.873   0.364   0.528
93650SOL     OW82782   1.019   2.001   3.082
93650SOL    HW182783   1.044   1.965   3.167
93650SOL    HW282784   1.037   2.094   3.089
93651SOL     OW82785   4.771   3.795   3.587
93651SOL    HW182786   4.698   3.756   3.635
93651SOL    HW282787   4.848   3.779   3.643
93652SOL     OW82788   6.833   0.245   1.059
93652SOL    HW182789   6.836   0.210   1.148
93652SOL    HW282790   6.857   0.337   1.068
93653SOL     OW82791   7.299  14.596   5.544
93653SOL    HW182792   7.337  14.572   5.460
93653SOL    HW282793   7.225  14.537   5.556
93654SOL     OW82794   0.643   2.308   3.925
93654SOL    HW182795   0.660   2.378   3.862
93654SOL    HW282796   0.654   2.227   3.875
93655SOL     OW82797   2.571  13.427   9.239
93655SOL    HW182798   2.602  13.449   9.151
93655SOL    HW282799   2.647  13.440   9.295
93656SOL     OW82800   8.705   5.018   2.584
93656SOL    HW182801   8.677   5.108   2.597
93656SOL    HW282802   8.625   4.966   2.594
93657SOL     OW82803  11.031  14.490   5.214
93657SOL    HW182804  10.985  14.569   5.245
93657SOL    HW282805  11.115  14.523   5.181
93658SOL     OW82806   2.174  12.460   4.978
93658SOL    HW182807   2.173  12.375   5.023
93658SOL    HW282808   2.243  12.510   5.022
93659SOL     OW82809  10.845   0.095  13.644
93659SOL    HW182810  10.867   0.024  13.584
93659SOL    HW282811  10.749   0.102  13.640
93660SOL     OW82812   2.906   2.497  13.789
93660SOL    HW182813   2.982   2.448  13.756
93660SOL    HW282814   2.854   2.516  13.711
93661SOL     OW82815   9.228   2.915   6.518
93661SOL    HW182816   9.211   2.961   6.601
93661SOL    HW282817   9.143   2.911   6.474
93662SOL     OW82818   4.359   9.428   6.617
93662SOL    HW182819   4.304   9.359   6.654
93662SOL    HW282820   4.403   9.466   6.693
93663SOL     OW82821  12.148   8.244   9.884
93663SOL    HW182822  12.083   8.181   9.917
93663SOL    HW282823  12.212   8.191   9.837
93664SOL     OW82824  14.149  11.893   9.652
93664SOL    HW182825  14.112  11.879   9.739
93664SOL    HW282826  14.078  11.936   9.603
93665SOL     OW82827   0.618   8.033   8.673
93665SOL    HW182828   0.649   8.123   8.667
93665SOL    HW282829   0.598   8.007   8.583
93666SOL     OW82830   2.223   1.180   9.379
93666SOL    HW182831   2.181   1.263   9.357
93666SOL    HW282832   2.269   1.154   9.299
93667SOL     OW82833  12.448  11.792  12.404
93667SOL    HW182834  12.522  11.739  12.433
93667SOL    HW282835  12.464  11.878  12.444
93668SOL     OW82836  11.749  12.408   8.887
93668SOL    HW182837  11.837  12.435   8.913
93668SOL    HW282838  11.736  12.323   8.930
93669SOL     OW82839  10.961   4.725  12.396
93669SOL    HW182840  11.011   4.783  12.454
93669SOL    HW282841  11.007   4.641  12.401
93670SOL     OW82842   2.079   9.062   9.638
93670SOL    HW182843   2.089   9.037   9.730
93670SOL    HW282844   2.118   8.989   9.589
93671SOL     OW82845   9.656  13.663  14.592
93671SOL    HW182846   9.593  13.591  14.582
93671SOL    HW282847   9.718  13.632  14.658
93672SOL     OW82848   3.504   2.991   5.199
93672SOL    HW182849   3.457   2.929   5.143
93672SOL    HW282850   3.489   3.076   5.157
93673SOL     OW82851  14.507   0.574  12.049
93673SOL    HW182852  14.463   0.500  12.090
93673SOL    HW282853  14.533   0.630  12.123
93674SOL     OW82854  13.087  10.529  13.809
93674SOL    HW182855  13.122  10.580  13.736
93674SOL    HW282856  13.056  10.448  13.769
93675SOL     OW82857  12.770   7.769   8.404
93675SOL    HW182858  12.781   7.732   8.492
93675SOL    HW282859  12.682   7.807   8.405
93676SOL     OW82860  13.602   6.193  13.041
93676SOL    HW182861  13.657   6.196  13.119
93676SOL    HW282862  13.548   6.115  13.052
93677SOL     OW82863  12.579   9.412   3.692
93677SOL    HW182864  12.555   9.449   3.777
93677SOL    HW282865  12.552   9.320   3.697
93678SOL     OW82866  14.448   0.810   1.171
93678SOL    HW182867  14.404   0.870   1.230
93678SOL    HW282868  14.417   0.723   1.197
93679SOL     OW82869   6.634   2.345  14.032
93679SOL    HW182870   6.671   2.362  14.119
93679SOL    HW282871   6.611   2.432  13.999
93680SOL     OW82872  11.113  12.058  10.836
93680SOL    HW182873  11.099  12.108  10.916
93680SOL    HW282874  11.073  11.972  10.854
93681SOL     OW82875   2.354   5.897  14.507
93681SOL    HW182876   2.434   5.846  14.493
93681SOL    HW282877   2.373   5.949  14.585
93682SOL     OW82878   1.727  13.143   5.878
93682SOL    HW182879   1.692  13.130   5.790
93682SOL    HW282880   1.650  13.161   5.932
93683SOL     OW82881  10.338  12.517   8.064
93683SOL    HW182882  10.336  12.594   8.121
93683SOL    HW282883  10.246  12.489   8.059
93684SOL     OW82884   4.472  12.896   4.668
93684SOL    HW182885   4.487  12.856   4.753
93684SOL    HW282886   4.407  12.839   4.626
93685SOL     OW82887  11.525   5.779   3.913
93685SOL    HW182888  11.593   5.757   3.976
93685SOL    HW282889  11.570   5.833   3.848
93686SOL     OW82890   3.142   3.412   9.496
93686SOL    HW182891   3.080   3.439   9.564
93686SOL    HW282892   3.087   3.390   9.420
93687SOL     OW82893  11.705   2.850   3.002
93687SOL    HW182894  11.669   2.802   3.077
93687SOL    HW282895  11.680   2.941   3.017
93688SOL     OW82896   4.209  13.338   5.184
93688SOL    HW182897   4.132  13.284   5.202
93688SOL    HW282898   4.182  13.428   5.204
93689SOL     OW82899   3.486   2.157   5.906
93689SOL    HW182900   3.456   2.085   5.963
93689SOL    HW282901   3.576   2.174   5.935
93690SOL     OW82902   6.050  12.639  13.002
93690SOL    HW182903   6.139  12.663  12.977
93690SOL    HW282904   6.051  12.543  13.003
93691SOL     OW82905  11.391   8.455   4.448
93691SOL    HW182906  11.363   8.486   4.362
93691SOL    HW282907  11.315   8.469   4.504
93692SOL     OW82908   8.443   0.883  14.387
93692SOL    HW182909   8.354   0.848  14.396
93692SOL    HW282910   8.458   0.887  14.292
93693SOL     OW82911   6.795  14.593  13.085
93693SOL    HW182912   6.746  14.595  13.167
93693SOL    HW282913   6.886  14.609  13.110
93694SOL     OW82914  12.448  14.089  12.907
93694SOL    HW182915  12.540  14.064  12.911
93694SOL    HW282916  12.437  14.151  12.980
93695SOL     OW82917   2.767  11.165   6.524
93695SOL    HW182918   2.700  11.114   6.478
93695SOL    HW282919   2.781  11.241   6.468
93696SOL     OW82920   6.235   7.512  14.776
93696SOL    HW182921   6.305   7.533  14.714
93696SOL    HW282922   6.191   7.596  14.792
93697SOL     OW82923   7.393  14.189   0.367
93697SOL    HW182924   7.458  14.196   0.297
93697SOL    HW282925   7.322  14.137   0.328
93698SOL     OW82926   3.708   1.650   6.335
93698SOL    HW182927   3.771   1.698   6.388
93698SOL    HW282928   3.673   1.583   6.393
93699SOL     OW82929   4.043   4.333  14.563
93699SOL    HW182930   3.954   4.364  14.579
93699SOL    HW282931   4.076   4.311  14.650
93700SOL     OW82932   9.998  14.722   4.310
93700SOL    HW182933   9.948  14.667   4.251
93700SOL    HW282934  10.088  14.690   4.303
93701SOL     OW82935   8.689   1.409  12.612
93701SOL    HW182936   8.737   1.425  12.530
93701SOL    HW282937   8.651   1.494  12.634
93702SOL     OW82938  13.798  10.629   8.335
93702SOL    HW182939  13.796  10.577   8.254
93702SOL    HW282940  13.793  10.564   8.405
93703SOL     OW82941   3.318  13.078  14.702
93703SOL    HW182942   3.243  13.123  14.663
93703SOL    HW282943   3.279  13.014  14.761
93704SOL     OW82944  10.689  10.241  10.490
93704SOL    HW182945  10.606  10.202  10.464
93704SOL    HW282946  10.716  10.192  10.568
93705SOL     OW82947  11.016  12.837   9.337
93705SOL    HW182948  11.002  12.923   9.377
93705SOL    HW282949  10.983  12.775   9.402
93706SOL     OW82950  10.298   3.603   0.143
93706SOL    HW182951  10.277   3.509   0.147
93706SOL    HW282952  10.386   3.609   0.180
93707SOL     OW82953   7.580   0.211   9.124
93707SOL    HW182954   7.551   0.296   9.091
93707SOL    HW282955   7.531   0.147   9.072
93708SOL     OW82956  10.033   1.060   4.290
93708SOL    HW182957   9.955   1.043   4.342
93708SOL    HW282958  10.033   0.991   4.223
93709SOL     OW82959   0.843  12.631   8.339
93709SOL    HW182960   0.831  12.649   8.245
93709SOL    HW282961   0.755  12.611   8.370
93710SOL     OW82962  12.857   1.216   3.993
93710SOL    HW182963  12.866   1.128   3.955
93710SOL    HW282964  12.836   1.200   4.085
93711SOL     OW82965  10.189   2.699   9.758
93711SOL    HW182966  10.236   2.617   9.773
93711SOL    HW282967  10.116   2.674   9.701
93712SOL     OW82968   7.771  10.082   7.433
93712SOL    HW182969   7.729  10.062   7.517
93712SOL    HW282970   7.815  10.000   7.408
93713SOL     OW82971   8.830  14.557   6.759
93713SOL    HW182972   8.778  14.635   6.738
93713SOL    HW282973   8.770  14.502   6.810
93714SOL     OW82974   1.684   8.964   3.478
93714SOL    HW182975   1.693   9.006   3.392
93714SOL    HW282976   1.666   9.036   3.538
93715SOL     OW82977  14.508   3.261  14.493
93715SOL    HW182978  14.580   3.222  14.443
93715SOL    HW282979  14.552   3.307  14.565
93716SOL     OW82980   3.431   3.595  13.900
93716SOL    HW182981   3.356   3.619  13.954
93716SOL    HW282982   3.401   3.604  13.810
93717SOL     OW82983   8.122  10.938   6.159
93717SOL    HW182984   8.127  10.980   6.073
93717SOL    HW282985   8.031  10.907   6.166
93718SOL     OW82986   0.397  13.071   4.195
93718SOL    HW182987   0.434  13.017   4.265
93718SOL    HW282988   0.383  13.157   4.236
93719SOL     OW82989   9.955   1.807  12.640
93719SOL    HW182990   9.900   1.803  12.562
93719SOL    HW282991   9.999   1.722  12.643
93720SOL     OW82992   1.386   0.101   8.954
93720SOL    HW182993   1.319   0.162   8.924
93720SOL    HW282994   1.336   0.027   8.990
93721SOL     OW82995   8.252  14.038   3.821
93721SOL    HW182996   8.327  14.018   3.765
93721SOL    HW282997   8.176  14.014   3.769
93722SOL     OW82998   5.659   9.765   1.573
93722SOL    HW182999   5.603   9.736   1.502
93722SOL    HW283000   5.679   9.857   1.553
93723SOL     OW83001   8.583  10.261  11.497
93723SOL    HW183002   8.593  10.295  11.586
93723SOL    HW283003   8.574  10.339  11.443
93724SOL     OW83004   4.058   1.519   8.535
93724SOL    HW183005   3.992   1.577   8.498
93724SOL    HW283006   4.140   1.568   8.529
93725SOL     OW83007   8.041   8.406   7.270
93725SOL    HW183008   8.126   8.376   7.239
93725SOL    HW283009   7.984   8.330   7.261
93726SOL     OW83010   9.267   0.713   3.200
93726SOL    HW183011   9.213   0.662   3.260
93726SOL    HW283012   9.273   0.799   3.242
93727SOL     OW83013   5.238   0.195   2.473
93727SOL    HW183014   5.276   0.180   2.559
93727SOL    HW283015   5.192   0.114   2.452
93728SOL     OW83016   8.084  12.392   8.053
93728SOL    HW183017   8.076  12.385   8.148
93728SOL    HW283018   8.056  12.482   8.034
93729SOL     OW83019   1.792   6.070  13.850
93729SOL    HW183020   1.863   6.007  13.835
93729SOL    HW283021   1.716   6.015  13.869
93730SOL     OW83022  10.466   6.330   7.434
93730SOL    HW183023  10.376   6.328   7.402
93730SOL    HW283024  10.471   6.261   7.500
93731SOL     OW83025  11.328  13.553   0.809
93731SOL    HW183026  11.409  13.508   0.784
93731SOL    HW283027  11.296  13.590   0.727
93732SOL     OW83028   0.577   9.888   9.443
93732SOL    HW183029   0.526   9.818   9.484
93732SOL    HW283030   0.582   9.863   9.351
93733SOL     OW83031   3.021  12.059  14.875
93733SOL    HW183032   2.999  12.069  14.783
93733SOL    HW283033   2.965  11.988   0.026
93734SOL     OW83034   4.390   7.126   9.997
93734SOL    HW183035   4.345   7.195  10.046
93734SOL    HW283036   4.394   7.052  10.058
93735SOL     OW83037   9.211   3.766   5.329
93735SOL    HW183038   9.173   3.742   5.245
93735SOL    HW283039   9.273   3.695   5.349
93736SOL     OW83040   7.134   3.989   4.428
93736SOL    HW183041   7.140   4.077   4.390
93736SOL    HW283042   7.191   3.992   4.505
93737SOL     OW83043   4.969  12.669  11.576
93737SOL    HW183044   4.991  12.587  11.531
93737SOL    HW283045   4.874  12.678  11.564
93738SOL     OW83046   9.878   1.689   0.675
93738SOL    HW183047   9.859   1.615   0.733
93738SOL    HW283048   9.948   1.657   0.618
93739SOL     OW83049  11.812   3.679   6.960
93739SOL    HW183050  11.855   3.761   6.983
93739SOL    HW283051  11.763   3.699   6.880
93740SOL     OW83052   9.829   7.145   9.750
93740SOL    HW183053   9.863   7.234   9.762
93740SOL    HW283054   9.745   7.145   9.795
93741SOL     OW83055   6.824   7.549   7.458
93741SOL    HW183056   6.734   7.581   7.448
93741SOL    HW283057   6.814   7.455   7.471
93742SOL     OW83058   0.952   1.700   2.317
93742SOL    HW183059   0.957   1.668   2.407
93742SOL    HW283060   1.025   1.762   2.309
93743SOL     OW83061  14.194   5.453  11.938
93743SOL    HW183062  14.204   5.423  11.848
93743SOL    HW283063  14.100   5.448  11.955
93744SOL     OW83064   5.251  14.438  10.126
93744SOL    HW183065   5.177  14.491  10.098
93744SOL    HW283066   5.305  14.429  10.048
93745SOL     OW83067  14.114   8.805   3.934
93745SOL    HW183068  14.048   8.873   3.952
93745SOL    HW283069  14.155   8.832   3.852
93746SOL     OW83070   2.919  12.919   0.953
93746SOL    HW183071   2.874  12.994   0.914
93746SOL    HW283072   2.966  12.879   0.879
93747SOL     OW83073  12.932   7.008  12.288
93747SOL    HW183074  12.929   6.987  12.381
93747SOL    HW283075  12.939   6.923  12.244
93748SOL     OW83076   1.563  11.091   5.379
93748SOL    HW183077   1.604  11.016   5.421
93748SOL    HW283078   1.565  11.160   5.446
93749SOL     OW83079   9.657   5.547   1.988
93749SOL    HW183080   9.727   5.596   1.945
93749SOL    HW283081   9.618   5.610   2.048
93750SOL     OW83082   1.812  10.563   8.975
93750SOL    HW183083   1.850  10.476   8.991
93750SOL    HW283084   1.888  10.620   8.959
93751SOL     OW83085   3.593   0.967   0.746
93751SOL    HW183086   3.541   0.957   0.665
93751SOL    HW283087   3.553   0.906   0.808
93752SOL     OW83088   9.367   0.438   2.051
93752SOL    HW183089   9.294   0.405   2.104
93752SOL    HW283090   9.362   0.533   2.061
93753SOL     OW83091  11.563   4.556  14.073
93753SOL    HW183092  11.540   4.634  14.125
93753SOL    HW283093  11.512   4.485  14.113
93754SOL     OW83094  12.724  14.003   4.295
93754SOL    HW183095  12.736  14.088   4.337
93754SOL    HW283096  12.813  13.972   4.278
93755SOL     OW83097  14.175   5.305   9.786
93755SOL    HW183098  14.255   5.255   9.772
93755SOL    HW283099  14.196   5.394   9.760
93756SOL     OW83100  12.613   9.046   1.699
93756SOL    HW183101  12.685   9.088   1.746
93756SOL    HW283102  12.580   8.980   1.759
93757SOL     OW83103  14.502   3.991   5.041
93757SOL    HW183104  14.428   3.959   5.093
93757SOL    HW283105  14.579   3.969   5.094
93758SOL     OW83106   3.838   7.636   9.039
93758SOL    HW183107   3.854   7.719   9.085
93758SOL    HW283108   3.887   7.571   9.089
93759SOL     OW83109  10.446   4.166   1.063
93759SOL    HW183110  10.471   4.155   0.972
93759SOL    HW283111  10.521   4.132   1.112
93760SOL     OW83112   0.380   3.485   7.552
93760SOL    HW183113   0.343   3.441   7.475
93760SOL    HW283114   0.466   3.516   7.522
93761SOL     OW83115  12.683  11.773  11.318
93761SOL    HW183116  12.674  11.869  11.313
93761SOL    HW283117  12.776  11.759  11.339
93762SOL     OW83118   2.784   1.847   6.152
93762SOL    HW183119   2.793   1.929   6.201
93762SOL    HW283120   2.706   1.806   6.189
93763SOL     OW83121   2.410  13.539   3.769
93763SOL    HW183122   2.431  13.550   3.862
93763SOL    HW283123   2.332  13.484   3.768
93764SOL     OW83124  14.317  10.085  11.207
93764SOL    HW183125  14.262  10.161  11.225
93764SOL    HW283126  14.257  10.010  11.211
93765SOL     OW83127   9.024  11.876   3.769
93765SOL    HW183128   9.071  11.954   3.739
93765SOL    HW283129   8.991  11.834   3.690
93766SOL     OW83130  13.856  12.192   2.089
93766SOL    HW183131  13.927  12.136   2.122
93766SOL    HW283132  13.784  12.131   2.071
93767SOL     OW83133  12.385  13.392   9.625
93767SOL    HW183134  12.474  13.412   9.594
93767SOL    HW283135  12.380  13.296   9.622
93768SOL     OW83136  14.272  10.657   6.519
93768SOL    HW183137  14.332  10.655   6.593
93768SOL    HW283138  14.321  10.619   6.446
93769SOL     OW83139   1.635   6.125   7.777
93769SOL    HW183140   1.625   6.100   7.869
93769SOL    HW283141   1.652   6.219   7.780
93770SOL     OW83142  14.666   3.507   2.815
93770SOL    HW183143  14.659   3.472   2.726
93770SOL    HW283144  14.585   3.481   2.857
93771SOL     OW83145   7.460  14.608  11.312
93771SOL    HW183146   7.445  14.595  11.218
93771SOL    HW283147   7.379  14.580  11.354
93772SOL     OW83148   3.971  10.373  11.465
93772SOL    HW183149   3.980  10.385  11.371
93772SOL    HW283150   3.980  10.279  11.479
93773SOL     OW83151  10.715  12.380   5.422
93773SOL    HW183152  10.688  12.348   5.509
93773SOL    HW283153  10.702  12.305   5.364
93774SOL     OW83154  14.601   9.141   5.250
93774SOL    HW183155  14.537   9.191   5.300
93774SOL    HW283156  14.611   9.190   5.168
93775SOL     OW83157   9.373  10.604  13.622
93775SOL    HW183158   9.340  10.684  13.581
93775SOL    HW283159   9.437  10.569  13.559
93776SOL     OW83160  12.861   3.985   1.099
93776SOL    HW183161  12.923   3.969   1.170
93776SOL    HW283162  12.775   3.971   1.139
93777SOL     OW83163   1.668   7.255   8.609
93777SOL    HW183164   1.644   7.166   8.585
93777SOL    HW283165   1.671   7.302   8.525
93778SOL     OW83166   6.491   8.219   0.654
93778SOL    HW183167   6.419   8.169   0.691
93778SOL    HW283168   6.499   8.296   0.710
93779SOL     OW83169  12.259  10.009   3.925
93779SOL    HW183170  12.182   9.976   3.877
93779SOL    HW283171  12.265   9.952   4.002
93780SOL     OW83172   1.661   9.862  13.685
93780SOL    HW183173   1.616   9.824  13.760
93780SOL    HW283174   1.737   9.907  13.723
93781SOL     OW83175   3.449   4.465   9.177
93781SOL    HW183176   3.505   4.417   9.238
93781SOL    HW283177   3.398   4.397   9.133
93782SOL     OW83178  13.518  14.852  12.257
93782SOL    HW183179  13.442  14.825  12.309
93782SOL    HW283180  13.510  14.803  12.176
93783SOL     OW83181   2.542  13.235   2.773
93783SOL    HW183182   2.485  13.311   2.758
93783SOL    HW283183   2.483  13.168   2.807
93784SOL     OW83184   9.502   6.242  11.669
93784SOL    HW183185   9.579   6.291  11.642
93784SOL    HW283186   9.440   6.253  11.596
93785SOL     OW83187   3.240   8.898   4.292
93785SOL    HW183188   3.235   8.927   4.201
93785SOL    HW283189   3.276   8.809   4.287
93786SOL     OW83190   9.690   8.933  12.709
93786SOL    HW183191   9.602   8.925  12.673
93786SOL    HW283192   9.698   8.860  12.771
93787SOL     OW83193  11.025   9.909   6.896
93787SOL    HW183194  11.110   9.867   6.914
93787SOL    HW283195  10.977   9.845   6.844
93788SOL     OW83196   9.122  10.224   9.491
93788SOL    HW183197   9.139  10.173   9.569
93788SOL    HW283198   9.144  10.314   9.516
93789SOL     OW83199   6.900   7.727   0.042
93789SOL    HW183200   6.956   7.650   0.045
93789SOL    HW283201   6.812   7.693   0.060
93790SOL     OW83202   3.311   3.024   8.133
93790SOL    HW183203   3.358   3.106   8.122
93790SOL    HW283204   3.375   2.965   8.174
93791SOL     OW83205  13.739   4.007   1.022
93791SOL    HW183206  13.791   3.969   0.951
93791SOL    HW283207  13.684   4.072   0.979
93792SOL     OW83208   1.073   2.745  14.477
93792SOL    HW183209   1.130   2.813  14.442
93792SOL    HW283210   1.109   2.663  14.444
93793SOL     OW83211   9.513   5.464   8.712
93793SOL    HW183212   9.602   5.431   8.698
93793SOL    HW283213   9.468   5.394   8.759
93794SOL     OW83214   4.787   5.170  11.360
93794SOL    HW183215   4.750   5.109  11.296
93794SOL    HW283216   4.846   5.117  11.413
93795SOL     OW83217  10.625   7.978   3.679
93795SOL    HW183218  10.590   8.067   3.692
93795SOL    HW283219  10.705   7.991   3.628
93796SOL     OW83220   2.897   7.125   9.532
93796SOL    HW183221   2.879   7.036   9.500
93796SOL    HW283222   2.895   7.180   9.454
93797SOL     OW83223   7.641   0.894   7.766
93797SOL    HW183224   7.634   0.799   7.775
93797SOL    HW283225   7.725   0.908   7.722
93798SOL     OW83226   3.720   2.536   1.971
93798SOL    HW183227   3.651   2.497   2.025
93798SOL    HW283228   3.675   2.602   1.918
93799SOL     OW83229   4.943  13.239   5.137
93799SOL    HW183230   4.863  13.275   5.100
93799SOL    HW283231   5.013  13.281   5.089
93800SOL     OW83232  13.777   1.423  14.566
93800SOL    HW183233  13.696   1.471  14.549
93800SOL    HW283234  13.751   1.351  14.623
93801SOL     OW83235   1.127   3.268   2.043
93801SOL    HW183236   1.149   3.282   1.951
93801SOL    HW283237   1.198   3.215   2.077
93802SOL     OW83238   6.577   5.600  10.050
93802SOL    HW183239   6.518   5.555   9.990
93802SOL    HW283240   6.664   5.583  10.015
93803SOL     OW83241  14.434   7.493   9.915
93803SOL    HW183242  14.518   7.465   9.880
93803SOL    HW283243  14.410   7.570   9.863
93804SOL     OW83244  10.385   0.724   2.452
93804SOL    HW183245  10.306   0.712   2.505
93804SOL    HW283246  10.353   0.763   2.371
93805SOL     OW83247  13.347   4.956   2.933
93805SOL    HW183248  13.436   4.986   2.953
93805SOL    HW283249  13.348   4.862   2.953
93806SOL     OW83250   6.132  10.080   2.989
93806SOL    HW183251   6.207  10.030   2.958
93806SOL    HW283252   6.146  10.169   2.956
93807SOL     OW83253   3.904   5.062   7.308
93807SOL    HW183254   3.833   4.998   7.311
93807SOL    HW283255   3.965   5.033   7.375
93808SOL     OW83256  10.171   2.763  13.877
93808SOL    HW183257  10.170   2.672  13.847
93808SOL    HW283258  10.089   2.773  13.926
93809SOL     OW83259  10.647   1.189  12.201
93809SOL    HW183260  10.593   1.128  12.150
93809SOL    HW283261  10.604   1.192  12.287
93810SOL     OW83262  10.134   6.706  13.743
93810SOL    HW183263  10.185   6.776  13.704
93810SOL    HW283264  10.071   6.750  13.800
93811SOL     OW83265  12.132   2.389  11.085
93811SOL    HW183266  12.054   2.336  11.099
93811SOL    HW283267  12.099   2.477  11.066
93812SOL     OW83268  11.073   7.266   8.097
93812SOL    HW183269  11.145   7.266   8.034
93812SOL    HW283270  11.017   7.338   8.069
93813SOL     OW83271   6.944  13.307   2.283
93813SOL    HW183272   6.921  13.381   2.227
93813SOL    HW283273   6.885  13.315   2.358
93814SOL     OW83274   7.753  14.442   8.185
93814SOL    HW183275   7.672  14.492   8.182
93814SOL    HW283276   7.779  14.444   8.278
93815SOL     OW83277  13.572   0.894   8.308
93815SOL    HW183278  13.557   0.887   8.402
93815SOL    HW283279  13.515   0.827   8.270
93816SOL     OW83280  10.034   9.169   3.721
93816SOL    HW183281  10.087   9.113   3.777
93816SOL    HW283282  10.090   9.185   3.644
93817SOL     OW83283   3.045   5.947   6.314
93817SOL    HW183284   2.971   6.007   6.310
93817SOL    HW283285   3.083   5.961   6.401
93818SOL     OW83286   2.190  12.744  14.274
93818SOL    HW183287   2.103  12.766  14.307
93818SOL    HW283288   2.182  12.655  14.241
93819SOL     OW83289   3.845  10.701   4.207
93819SOL    HW183290   3.771  10.656   4.248
93819SOL    HW283291   3.913  10.633   4.201
93820SOL     OW83292   0.941   8.365  11.224
93820SOL    HW183293   1.021   8.382  11.175
93820SOL    HW283294   0.965   8.381  11.315
93821SOL     OW83295  13.768   6.902  14.514
93821SOL    HW183296  13.672   6.900  14.513
93821SOL    HW283297  13.793   6.822  14.561
93822SOL     OW83298   3.867   2.105  12.282
93822SOL    HW183299   3.810   2.107  12.205
93822SOL    HW283300   3.810   2.129  12.355
93823SOL     OW83301   3.120   2.850   4.538
93823SOL    HW183302   3.114   2.766   4.493
93823SOL    HW283303   3.100   2.830   4.629
93824SOL     OW83304  12.171  11.527   7.991
93824SOL    HW183305  12.178  11.490   7.903
93824SOL    HW283306  12.109  11.470   8.036
93825SOL     OW83307   3.055  10.371   7.520
93825SOL    HW183308   2.994  10.445   7.520
93825SOL    HW283309   3.140  10.409   7.541
93826SOL     OW83310   3.735   3.850  14.835
93826SOL    HW183311   3.728   3.822  14.744
93826SOL    HW283312   3.811   3.802  14.869
93827SOL     OW83313   2.149   3.595  10.130
93827SOL    HW183314   2.235   3.578  10.169
93827SOL    HW283315   2.157   3.565  10.040
93828SOL     OW83316  11.085   1.742   9.396
93828SOL    HW183317  11.048   1.654   9.388
93828SOL    HW283318  11.019   1.799   9.356
93829SOL     OW83319   0.724   5.598  11.961
93829SOL    HW183320   0.781   5.528  11.993
93829SOL    HW283321   0.781   5.653  11.907
93830SOL     OW83322  11.919   9.059   7.150
93830SOL    HW183323  12.001   9.093   7.114
93830SOL    HW283324  11.862   9.136   7.155
93831SOL     OW83325  11.003   0.490   1.328
93831SOL    HW183326  10.911   0.512   1.314
93831SOL    HW283327  11.016   0.410   1.278
93832SOL     OW83328  12.638   6.406   3.119
93832SOL    HW183329  12.682   6.421   3.036
93832SOL    HW283330  12.634   6.493   3.160
93833SOL     OW83331  11.299   6.500  14.489
93833SOL    HW183332  11.384   6.458  14.476
93833SOL    HW283333  11.242   6.458  14.424
93834SOL     OW83334   0.201   6.471   3.452
93834SOL    HW183335   0.155   6.554   3.465
93834SOL    HW283336   0.133   6.404   3.464
93835SOL     OW83337   1.285   1.255   3.964
93835SOL    HW183338   1.300   1.179   3.908
93835SOL    HW283339   1.292   1.221   4.053
93836SOL     OW83340  11.922   6.450   9.578
93836SOL    HW183341  11.836   6.467   9.540
93836SOL    HW283342  11.903   6.420   9.667
93837SOL     OW83343   5.361   5.069   1.605
93837SOL    HW183344   5.432   5.005   1.596
93837SOL    HW283345   5.341   5.096   1.515
93838SOL     OW83346   5.576   2.662   8.816
93838SOL    HW183347   5.527   2.603   8.759
93838SOL    HW283348   5.530   2.745   8.810
93839SOL     OW83349  14.093  11.827  12.467
93839SOL    HW183350  14.020  11.878  12.430
93839SOL    HW283351  14.121  11.770  12.396
93840SOL     OW83352   4.654  11.040  10.414
93840SOL    HW183353   4.675  10.949  10.392
93840SOL    HW283354   4.692  11.053  10.501
93841SOL     OW83355   4.857  14.078  11.969
93841SOL    HW183356   4.924  14.010  11.960
93841SOL    HW283357   4.790  14.038  12.026
93842SOL     OW83358   4.555   4.440   0.538
93842SOL    HW183359   4.585   4.424   0.449
93842SOL    HW283360   4.594   4.369   0.589
93843SOL     OW83361   4.037   6.045  14.341
93843SOL    HW183362   4.015   6.122  14.394
93843SOL    HW283363   4.116   6.010  14.382
93844SOL     OW83364  10.313  12.560  10.820
93844SOL    HW183365  10.239  12.499  10.820
93844SOL    HW283366  10.379  12.518  10.876
93845SOL     OW83367   7.452   7.597   4.402
93845SOL    HW183368   7.430   7.690   4.407
93845SOL    HW283369   7.505   7.589   4.323
93846SOL     OW83370   7.741   0.608   2.366
93846SOL    HW183371   7.733   0.544   2.296
93846SOL    HW283372   7.769   0.689   2.322
93847SOL     OW83373   8.649   1.866  10.426
93847SOL    HW183374   8.582   1.815  10.471
93847SOL    HW283375   8.621   1.868  10.335
93848SOL     OW83376   2.076   6.663  14.481
93848SOL    HW183377   2.164   6.638  14.511
93848SOL    HW283378   2.039   6.710  14.556
93849SOL     OW83379   4.218   2.225   2.415
93849SOL    HW183380   4.271   2.200   2.490
93849SOL    HW283381   4.238   2.318   2.401
93850SOL     OW83382   9.028  14.294  11.478
93850SOL    HW183383   9.081  14.292  11.558
93850SOL    HW283384   9.018  14.387  11.458
93851SOL     OW83385   0.898   2.996   5.392
93851SOL    HW183386   0.970   3.004   5.329
93851SOL    HW283387   0.840   2.930   5.354
93852SOL     OW83388   5.579   2.247   1.740
93852SOL    HW183389   5.517   2.179   1.714
93852SOL    HW283390   5.655   2.199   1.774
93853SOL     OW83391   3.468   5.680  14.220
93853SOL    HW183392   3.542   5.740  14.212
93853SOL    HW283393   3.458   5.641  14.133
93854SOL     OW83394   0.153  10.462   9.779
93854SOL    HW183395   0.104  10.527   9.730
93854SOL    HW283396   0.203  10.414   9.713
93855SOL     OW83397  12.699   6.725  10.731
93855SOL    HW183398  12.647   6.774  10.794
93855SOL    HW283399  12.710   6.639  10.772
93856SOL     OW83400  11.401   6.688   4.935
93856SOL    HW183401  11.310   6.717   4.926
93856SOL    HW283402  11.449   6.768   4.957
93857SOL     OW83403   4.407   7.029  14.744
93857SOL    HW183404   4.465   6.978  14.801
93857SOL    HW283405   4.319   7.002  14.769
93858SOL     OW83406   8.397  13.411   0.104
93858SOL    HW183407   8.401  13.408   0.200
93858SOL    HW283408   8.305  13.430   0.085
93859SOL     OW83409   4.513   3.508  11.497
93859SOL    HW183410   4.489   3.599  11.484
93859SOL    HW283411   4.554   3.506  11.583
93860SOL     OW83412   9.149   7.405  14.145
93860SOL    HW183413   9.096   7.415  14.066
93860SOL    HW283414   9.100   7.449  14.214
93861SOL     OW83415   7.539   3.824  11.591
93861SOL    HW183416   7.468   3.797  11.533
93861SOL    HW283417   7.519   3.782  11.675
93862SOL     OW83418   7.575  10.086   8.501
93862SOL    HW183419   7.570  10.003   8.453
93862SOL    HW283420   7.540  10.065   8.588
93863SOL     OW83421   0.710   8.737  11.989
93863SOL    HW183422   0.688   8.829  12.003
93863SOL    HW283423   0.626   8.691  11.996
93864SOL     OW83424   9.196   1.323  13.141
93864SOL    HW183425   9.111   1.366  13.130
93864SOL    HW283426   9.241   1.337  13.058
93865SOL     OW83427  14.678   5.375  11.250
93865SOL    HW183428  14.667   5.394  11.343
93865SOL    HW283429  14.745   5.306  11.247
93866SOL     OW83430   1.068   1.796  12.361
93866SOL    HW183431   0.982   1.838  12.358
93866SOL    HW283432   1.049   1.706  12.385
93867SOL     OW83433   2.597   0.740   7.212
93867SOL    HW183434   2.513   0.702   7.184
93867SOL    HW283435   2.649   0.665   7.241
93868SOL     OW83436   1.122   8.063  10.552
93868SOL    HW183437   1.062   8.009  10.603
93868SOL    HW283438   1.199   8.008  10.539
93869SOL     OW83439  11.094   7.663   2.195
93869SOL    HW183440  11.022   7.726   2.190
93869SOL    HW283441  11.158   7.694   2.132
93870SOL     OW83442  12.558   9.483   6.266
93870SOL    HW183443  12.649   9.478   6.295
93870SOL    HW283444  12.517   9.546   6.325
93871SOL     OW83445   2.484   7.117  14.100
93871SOL    HW183446   2.575   7.109  14.127
93871SOL    HW283447   2.485   7.179  14.027
93872SOL     OW83448   4.155   3.878   8.769
93872SOL    HW183449   4.129   3.967   8.791
93872SOL    HW283450   4.187   3.883   8.679
93873SOL     OW83451  12.369   7.268   1.868
93873SOL    HW183452  12.313   7.325   1.814
93873SOL    HW283453  12.307   7.213   1.915
93874SOL     OW83454  12.967   4.016  14.006
93874SOL    HW183455  13.030   3.963  13.958
93874SOL    HW283456  13.017   4.057  14.076
93875SOL     OW83457   5.122   1.757   0.964
93875SOL    HW183458   5.035   1.718   0.969
93875SOL    HW283459   5.127   1.794   0.875
93876SOL     OW83460   5.734   9.515   7.270
93876SOL    HW183461   5.756   9.448   7.205
93876SOL    HW283462   5.809   9.574   7.271
93877SOL     OW83463   7.626   2.383   7.576
93877SOL    HW183464   7.609   2.477   7.571
93877SOL    HW283465   7.672   2.362   7.495
93878SOL     OW83466   9.304   6.340   5.576
93878SOL    HW183467   9.339   6.251   5.581
93878SOL    HW283468   9.381   6.395   5.561
93879SOL     OW83469  11.324   2.669  14.680
93879SOL    HW183470  11.410   2.655  14.640
93879SOL    HW283471  11.267   2.607  14.635
93880SOL     OW83472   2.568  14.286   6.781
93880SOL    HW183473   2.520  14.203   6.781
93880SOL    HW283474   2.501  14.353   6.767
93881SOL     OW83475   1.424  13.638   2.591
93881SOL    HW183476   1.351  13.662   2.533
93881SOL    HW283477   1.494  13.699   2.566
93882SOL     OW83478   5.986   4.156   6.607
93882SOL    HW183479   5.909   4.213   6.618
93882SOL    HW283480   6.050   4.211   6.562
93883SOL     OW83481   6.842  12.467   0.896
93883SOL    HW183482   6.773  12.418   0.850
93883SOL    HW283483   6.799  12.500   0.975
93884SOL     OW83484   6.100  12.761   9.073
93884SOL    HW183485   6.029  12.750   9.136
93884SOL    HW283486   6.056  12.773   8.989
93885SOL     OW83487  14.609   6.057  10.981
93885SOL    HW183488  14.685   6.068  11.039
93885SOL    HW283489  14.643   6.006  10.907
93886SOL     OW83490  11.924  14.111   4.114
93886SOL    HW183491  11.901  14.195   4.154
93886SOL    HW283492  11.991  14.075   4.172
93887SOL     OW83493  11.283   0.643   6.279
93887SOL    HW183494  11.343   0.589   6.331
93887SOL    HW283495  11.222   0.680   6.343
93888SOL     OW83496  13.782   6.751   2.061
93888SOL    HW183497  13.764   6.821   1.999
93888SOL    HW283498  13.782   6.671   2.009
93889SOL     OW83499   5.424  13.446  11.589
93889SOL    HW183500   5.520  13.447  11.598
93889SOL    HW283501   5.400  13.538  11.581
93890SOL     OW83502   8.859  10.185   3.066
93890SOL    HW183503   8.909  10.265   3.056
93890SOL    HW283504   8.895  10.125   3.000
93891SOL     OW83505   0.075   2.218   2.273
93891SOL    HW183506   0.016   2.221   2.198
93891SOL    HW283507   0.027   2.169   2.339
93892SOL     OW83508   3.161   1.606   5.196
93892SOL    HW183509   3.256   1.602   5.204
93892SOL    HW283510   3.146   1.668   5.124
93893SOL     OW83511  12.893  14.687   9.541
93893SOL    HW183512  12.950  14.762   9.521
93893SOL    HW283513  12.824  14.725   9.596
93894SOL     OW83514   7.953   5.760   1.284
93894SOL    HW183515   7.926   5.668   1.284
93894SOL    HW283516   7.887   5.804   1.231
93895SOL     OW83517   5.507  10.306   7.290
93895SOL    HW183518   5.489  10.260   7.372
93895SOL    HW283519   5.593  10.274   7.263
93896SOL     OW83520   9.931  10.557  14.525
93896SOL    HW183521  10.003  10.501  14.554
93896SOL    HW283522   9.873  10.564  14.601
93897SOL     OW83523  10.961  12.743  13.429
93897SOL    HW183524  10.980  12.671  13.369
93897SOL    HW283525  11.046  12.785  13.444
93898SOL     OW83526   6.612   3.470   4.984
93898SOL    HW183527   6.560   3.526   5.041
93898SOL    HW283528   6.640   3.397   5.039
93899SOL     OW83529  12.319   8.486   5.213
93899SOL    HW183530  12.261   8.422   5.255
93899SOL    HW283531  12.338   8.449   5.127
93900SOL     OW83532   7.797  13.532   5.671
93900SOL    HW183533   7.744  13.514   5.593
93900SOL    HW283534   7.736  13.569   5.734
93901SOL     OW83535  12.562   8.784   9.970
93901SOL    HW183536  12.567   8.841  10.047
93901SOL    HW283537  12.470   8.762   9.962
93902SOL     OW83538   8.717   1.192   0.441
93902SOL    HW183539   8.635   1.168   0.484
93902SOL    HW283540   8.780   1.125   0.468
93903SOL     OW83541   5.295  11.950  10.946
93903SOL    HW183542   5.385  11.979  10.964
93903SOL    HW283543   5.245  12.032  10.939
93904SOL     OW83544   6.891  13.549  13.617
93904SOL    HW183545   6.857  13.638  13.626
93904SOL    HW283546   6.968  13.547  13.675
93905SOL     OW83547  14.094   1.397   3.650
93905SOL    HW183548  14.017   1.434   3.695
93905SOL    HW283549  14.163   1.398   3.717
93906SOL     OW83550   1.001   5.487   8.240
93906SOL    HW183551   0.924   5.431   8.244
93906SOL    HW283552   1.075   5.426   8.235
93907SOL     OW83553   4.862  13.942   7.900
93907SOL    HW183554   4.836  14.034   7.892
93907SOL    HW283555   4.936  13.933   7.840
93908SOL     OW83556   6.831   5.403   3.579
93908SOL    HW183557   6.746   5.434   3.609
93908SOL    HW283558   6.860   5.468   3.516
93909SOL     OW83559  13.562   0.159   2.672
93909SOL    HW183560  13.501   0.183   2.603
93909SOL    HW283561  13.525   0.078   2.709
93910SOL     OW83562   2.310  13.735  13.354
93910SOL    HW183563   2.226  13.703  13.386
93910SOL    HW283564   2.313  13.827  13.383
93911SOL     OW83565   5.718   0.650  11.537
93911SOL    HW183566   5.773   0.576  11.563
93911SOL    HW283567   5.779   0.712  11.497
93912SOL     OW83568  10.020   4.449  11.621
93912SOL    HW183569  10.115   4.444  11.629
93912SOL    HW283570   9.987   4.373  11.669
93913SOL     OW83571   0.516  10.026   8.684
93913SOL    HW183572   0.566   9.959   8.636
93913SOL    HW283573   0.494   9.984   8.767
93914SOL     OW83574  13.557   1.786  11.157
93914SOL    HW183575  13.596   1.856  11.209
93914SOL    HW283576  13.580   1.705  11.203
93915SOL     OW83577  10.743  13.199  11.367
93915SOL    HW183578  10.698  13.186  11.283
93915SOL    HW283579  10.695  13.268  11.410
93916SOL     OW83580  10.332   4.109   2.138
93916SOL    HW183581  10.352   4.178   2.202
93916SOL    HW283582  10.408   4.051   2.141
93917SOL     OW83583   9.504   6.583  11.957
93917SOL    HW183584   9.479   6.606  11.867
93917SOL    HW283585   9.497   6.487  11.959
93918SOL     OW83586   4.306   2.030  13.027
93918SOL    HW183587   4.379   1.969  13.039
93918SOL    HW283588   4.332   2.109  13.076
93919SOL     OW83589  13.540   3.312   8.448
93919SOL    HW183590  13.528   3.237   8.507
93919SOL    HW283591  13.522   3.388   8.503
93920SOL     OW83592  11.964  10.475  12.605
93920SOL    HW183593  12.045  10.498  12.558
93920SOL    HW283594  11.957  10.540  12.674
93921SOL     OW83595   2.002   0.191   9.013
93921SOL    HW183596   1.955   0.270   9.042
93921SOL    HW283597   1.980   0.182   8.921
93922SOL     OW83598  12.489   2.120  11.372
93922SOL    HW183599  12.563   2.102  11.315
93922SOL    HW283600  12.517   2.193  11.426
93923SOL     OW83601   7.756  12.475   0.144
93923SOL    HW183602   7.780  12.541   0.079
93923SOL    HW283603   7.830  12.414   0.145
93924SOL     OW83604  13.573   4.590   9.660
93924SOL    HW183605  13.579   4.683   9.639
93924SOL    HW283606  13.658   4.554   9.637
93925SOL     OW83607   3.219   2.403   6.432
93925SOL    HW183608   3.311   2.406   6.407
93925SOL    HW283609   3.219   2.423   6.526
93926SOL     OW83610   0.653   4.211   2.218
93926SOL    HW183611   0.616   4.236   2.133
93926SOL    HW283612   0.581   4.166   2.263
93927SOL     OW83613   0.813   6.546   3.812
93927SOL    HW183614   0.730   6.500   3.818
93927SOL    HW283615   0.824   6.564   3.719
93928SOL     OW83616  14.565   0.210   5.781
93928SOL    HW183617  14.610   0.126   5.795
93928SOL    HW283618  14.544   0.241   5.869
93929SOL     OW83619  10.146   8.177   5.121
93929SOL    HW183620  10.061   8.204   5.156
93929SOL    HW283621  10.189   8.259   5.097
93930SOL     OW83622   1.176   7.312   2.516
93930SOL    HW183623   1.228   7.346   2.588
93930SOL    HW283624   1.091   7.291   2.554
93931SOL     OW83625   5.330  14.463   0.565
93931SOL    HW183626   5.425  14.472   0.577
93931SOL    HW283627   5.314  14.498   0.477
93932SOL     OW83628  10.765  10.829  14.541
93932SOL    HW183629  10.761  10.738  14.573
93932SOL    HW283630  10.677  10.863  14.557
93933SOL     OW83631   1.632   6.961   5.339
93933SOL    HW183632   1.588   6.895   5.287
93933SOL    HW283633   1.709   6.916   5.375
93934SOL     OW83634   1.536  13.843   9.739
93934SOL    HW183635   1.630  13.835   9.754
93934SOL    HW283636   1.510  13.758   9.704
93935SOL     OW83637  13.775  11.933  12.893
93935SOL    HW183638  13.701  11.876  12.871
93935SOL    HW283639  13.850  11.893  12.851
93936SOL     OW83640   7.150   0.049   3.816
93936SOL    HW183641   7.205  14.867   3.767
93936SOL    HW283642   7.071  14.877   3.837
93937SOL     OW83643   4.024  13.372   1.205
93937SOL    HW183644   3.963  13.388   1.277
93937SOL    HW283645   3.974  13.321   1.141
93938SOL     OW83646   2.064   4.773   9.070
93938SOL    HW183647   2.068   4.835   8.998
93938SOL    HW283648   2.014   4.698   9.036
93939SOL     OW83649  11.211  11.531   8.430
93939SOL    HW183650  11.278  11.587   8.392
93939SOL    HW283651  11.249  11.502   8.513
93940SOL     OW83652   2.731   7.390   2.088
93940SOL    HW183653   2.790   7.452   2.130
93940SOL    HW283654   2.775   7.305   2.096
93941SOL     OW83655   0.812   3.340  11.417
93941SOL    HW183656   0.815   3.244  11.409
93941SOL    HW283657   0.728   3.357  11.459
93942SOL     OW83658   9.587   4.430   1.811
93942SOL    HW183659   9.521   4.448   1.744
93942SOL    HW283660   9.654   4.380   1.765
93943SOL     OW83661   8.893   7.654   9.643
93943SOL    HW183662   8.882   7.682   9.734
93943SOL    HW283663   8.969   7.703   9.611
93944SOL     OW83664   3.850   2.281   6.518
93944SOL    HW183665   3.916   2.218   6.490
93944SOL    HW283666   3.851   2.275   6.614
93945SOL     OW83667   1.142   4.439  14.647
93945SOL    HW183668   1.144   4.379  14.722
93945SOL    HW283669   1.228   4.481  14.647
93946SOL     OW83670  11.063   5.660  13.151
93946SOL    HW183671  11.075   5.631  13.060
93946SOL    HW283672  11.151   5.656  13.189
93947SOL     OW83673  13.385   6.905   7.370
93947SOL    HW183674  13.416   6.992   7.344
93947SOL    HW283675  13.416   6.894   7.460
93948SOL     OW83676  10.807   1.885   8.690
93948SOL    HW183677  10.772   1.918   8.607
93948SOL    HW283678  10.896   1.858   8.669
93949SOL     OW83679  14.690   4.904   3.276
93949SOL    HW183680  14.691   4.941   3.187
93949SOL    HW283681  14.710   4.979   3.333
93950SOL     OW83682  12.021  14.850   7.101
93950SOL    HW183683  12.074  14.798   7.161
93950SOL    HW283684  12.058   0.059   7.106
93951SOL     OW83685   4.906   1.907  10.564
93951SOL    HW183686   4.896   1.963  10.642
93951SOL    HW283687   4.836   1.843  10.572
93952SOL     OW83688   9.424   0.308   4.925
93952SOL    HW183689   9.382   0.318   4.840
93952SOL    HW283690   9.437   0.214   4.936
93953SOL     OW83691  11.153  12.693  12.502
93953SOL    HW183692  11.201  12.765  12.543
93953SOL    HW283693  11.221  12.637  12.464
93954SOL     OW83694   8.643   6.726  14.593
93954SOL    HW183695   8.666   6.770  14.511
93954SOL    HW283696   8.727   6.702  14.632
93955SOL     OW83697   2.651   5.687   6.733
93955SOL    HW183698   2.666   5.770   6.688
93955SOL    HW283699   2.716   5.686   6.803
93956SOL     OW83700  12.822  11.677   7.301
93956SOL    HW183701  12.775  11.654   7.221
93956SOL    HW283702  12.864  11.595   7.328
93957SOL     OW83703   9.835   4.871  13.563
93957SOL    HW183704   9.849   4.916  13.646
93957SOL    HW283705   9.912   4.816  13.551
93958SOL     OW83706   3.168   1.888  10.288
93958SOL    HW183707   3.078   1.898  10.319
93958SOL    HW283708   3.158   1.849  10.200
93959SOL     OW83709   7.888  14.580   1.833
93959SOL    HW183710   7.962  14.541   1.786
93959SOL    HW283711   7.855  14.510   1.889
93960SOL     OW83712  10.764   0.982   6.927
93960SOL    HW183713  10.816   1.061   6.940
93960SOL    HW283714  10.818   0.911   6.963
93961SOL     OW83715   6.839   3.123   3.600
93961SOL    HW183716   6.829   3.057   3.531
93961SOL    HW283717   6.846   3.073   3.681
93962SOL     OW83718   3.987   9.897   3.663
93962SOL    HW183719   3.922   9.908   3.593
93962SOL    HW283720   3.963   9.963   3.728
93963SOL     OW83721   1.225   9.229   3.051
93963SOL    HW183722   1.137   9.195   3.069
93963SOL    HW283723   1.282   9.179   3.108
93964SOL     OW83724   4.785   1.236   1.364
93964SOL    HW183725   4.719   1.302   1.386
93964SOL    HW283726   4.804   1.192   1.446
93965SOL     OW83727  13.235  10.376   7.117
93965SOL    HW183728  13.207  10.317   7.047
93965SOL    HW283729  13.156  10.392   7.168
93966SOL     OW83730  13.020   8.275  11.662
93966SOL    HW183731  13.088   8.337  11.634
93966SOL    HW283732  12.998   8.227  11.582
93967SOL     OW83733   8.352   5.495   3.737
93967SOL    HW183734   8.354   5.516   3.644
93967SOL    HW283735   8.268   5.451   3.751
93968SOL     OW83736   3.450   3.116   2.625
93968SOL    HW183737   3.541   3.132   2.651
93968SOL    HW283738   3.400   3.125   2.706
93969SOL     OW83739  14.392   1.738  10.591
93969SOL    HW183740  14.445   1.729  10.670
93969SOL    HW283741  14.451   1.715  10.519
93970SOL     OW83742  12.367   3.736  13.123
93970SOL    HW183743  12.274   3.754  13.130
93970SOL    HW283744  12.409   3.819  13.146
93971SOL     OW83745   6.680   7.667   4.349
93971SOL    HW183746   6.735   7.741   4.323
93971SOL    HW283747   6.593   7.704   4.361
93972SOL     OW83748   0.349   5.799   9.869
93972SOL    HW183749   0.413   5.857   9.828
93972SOL    HW283750   0.264   5.830   9.836
93973SOL     OW83751  13.559   0.154   3.355
93973SOL    HW183752  13.614   0.232   3.355
93973SOL    HW283753  13.562   0.122   3.265
93974SOL     OW83754   6.906  11.400   9.918
93974SOL    HW183755   6.812  11.415   9.915
93974SOL    HW283756   6.919  11.342   9.993
93975SOL     OW83757  11.754   3.610   5.912
93975SOL    HW183758  11.819   3.675   5.938
93975SOL    HW283759  11.697   3.602   5.989
93976SOL     OW83760   0.915   4.372  10.804
93976SOL    HW183761   0.974   4.324  10.862
93976SOL    HW283762   0.855   4.417  10.863
93977SOL     OW83763   0.130   2.361   0.783
93977SOL    HW183764   0.179   2.286   0.817
93977SOL    HW283765   0.081   2.394   0.859
93978SOL     OW83766  11.149   0.298   4.064
93978SOL    HW183767  11.146   0.256   4.149
93978SOL    HW283768  11.059   0.295   4.032
93979SOL     OW83769   4.959  13.144   9.777
93979SOL    HW183770   5.020  13.210   9.810
93979SOL    HW283771   5.001  13.060   9.796
93980SOL     OW83772   6.399   4.898   2.247
93980SOL    HW183773   6.311   4.919   2.217
93980SOL    HW283774   6.386   4.832   2.315
93981SOL     OW83775   4.872   5.385  11.539
93981SOL    HW183776   4.847   5.324  11.469
93981SOL    HW283777   4.910   5.330  11.607
93982SOL     OW83778   0.572   9.595   2.515
93982SOL    HW183779   0.487   9.636   2.498
93982SOL    HW283780   0.564   9.507   2.476
93983SOL     OW83781  14.282  12.300   1.893
93983SOL    HW183782  14.194  12.263   1.895
93983SOL    HW283783  14.324  12.268   1.973
93984SOL     OW83784   2.928   8.118   4.655
93984SOL    HW183785   2.971   8.142   4.573
93984SOL    HW283786   2.988   8.057   4.697
93985SOL     OW83787   1.942   4.123  13.728
93985SOL    HW183788   1.855   4.162  13.739
93985SOL    HW283789   1.945   4.051  13.791
93986SOL     OW83790   4.046   7.699  13.707
93986SOL    HW183791   3.959   7.739  13.710
93986SOL    HW283792   4.034   7.620  13.655
93987SOL     OW83793   2.241  13.239   7.233
93987SOL    HW183794   2.282  13.214   7.150
93987SOL    HW283795   2.220  13.332   7.222
93988SOL     OW83796  14.368  12.853   0.210
93988SOL    HW183797  14.290  12.898   0.244
93988SOL    HW283798  14.403  12.913   0.144
93989SOL     OW83799   8.420  11.920   5.429
93989SOL    HW183800   8.372  12.001   5.450
93989SOL    HW283801   8.351  11.856   5.411
93990SOL     OW83802   9.246  12.622   2.375
93990SOL    HW183803   9.243  12.666   2.460
93990SOL    HW283804   9.339  12.606   2.360
93991SOL     OW83805   2.666  13.967  11.216
93991SOL    HW183806   2.710  13.993  11.135
93991SOL    HW283807   2.734  13.973  11.283
93992SOL     OW83808   6.435  14.422   5.309
93992SOL    HW183809   6.394  14.398   5.226
93992SOL    HW283810   6.370  14.474   5.355
93993SOL     OW83811  10.518   8.046   5.005
93993SOL    HW183812  10.449   7.981   5.021
93993SOL    HW283813  10.599   8.000   5.024
93994SOL     OW83814   7.498   9.550  10.187
93994SOL    HW183815   7.564   9.483  10.202
93994SOL    HW283816   7.451   9.520  10.109
93995SOL     OW83817  11.947  13.551   4.346
93995SOL    HW183818  11.972  13.643   4.344
93995SOL    HW283819  11.852  13.552   4.359
93996SOL     OW83820  14.635   4.074   5.814
93996SOL    HW183821  14.651   4.076   5.909
93996SOL    HW283822  14.577   4.148   5.798
93997SOL     OW83823  14.719   4.657   8.982
93997SOL    HW183824  14.647   4.710   9.016
93997SOL    HW283825  14.683   4.568   8.977
93998SOL     OW83826   6.371   0.254   8.647
93998SOL    HW183827   6.360   0.182   8.585
93998SOL    HW283828   6.283   0.290   8.659
93999SOL     OW83829   3.879   8.350  12.448
93999SOL    HW183830   3.921   8.326  12.365
93999SOL    HW283831   3.889   8.445  12.453
94000SOL     OW83832   4.031   2.103  14.781
94000SOL    HW183833   4.010   2.011  14.763
94000SOL    HW283834   4.120   2.114  14.749
94001SOL     OW83835   3.901   2.530   4.758
94001SOL    HW183836   3.986   2.525   4.712
94001SOL    HW283837   3.862   2.612   4.727
94002SOL     OW83838   2.346   8.072   3.160
94002SOL    HW183839   2.345   8.101   3.069
94002SOL    HW283840   2.438   8.066   3.183
94003SOL     OW83841   8.503   0.306  14.632
94003SOL    HW183842   8.516   0.367  14.560
94003SOL    HW283843   8.591   0.288  14.664
94004SOL     OW83844  14.741  13.547   9.746
94004SOL    HW183845  14.822  13.592   9.725
94004SOL    HW283846  14.672  13.606   9.718
94005SOL     OW83847   1.803   3.165   5.156
94005SOL    HW183848   1.743   3.235   5.131
94005SOL    HW283849   1.833   3.190   5.243
94006SOL     OW83850   5.263  14.088   8.508
94006SOL    HW183851   5.321  14.163   8.525
94006SOL    HW283852   5.182  14.110   8.554
94007SOL     OW83853   5.268  11.703   4.271
94007SOL    HW183854   5.207  11.709   4.345
94007SOL    HW283855   5.254  11.616   4.236
94008SOL     OW83856   3.811   7.113  14.832
94008SOL    HW183857   3.893   7.157  14.852
94008SOL    HW283858   3.835   7.048  14.765
94009SOL     OW83859  11.689   7.438  10.494
94009SOL    HW183860  11.716   7.371  10.431
94009SOL    HW283861  11.735   7.416  10.574
94010SOL     OW83862  11.002   7.334  12.120
94010SOL    HW183863  10.936   7.403  12.123
94010SOL    HW283864  11.081   7.378  12.087
94011SOL     OW83865   0.203   1.829   4.696
94011SOL    HW183866   0.232   1.831   4.787
94011SOL    HW283867   0.155   1.746   4.688
94012SOL     OW83868   5.492  13.379   8.834
94012SOL    HW183869   5.455  13.401   8.920
94012SOL    HW283870   5.580  13.416   8.836
94013SOL     OW83871  13.002   3.248  11.680
94013SOL    HW183872  13.057   3.182  11.638
94013SOL    HW283873  12.983   3.311  11.611
94014SOL     OW83874   1.339   9.353   5.412
94014SOL    HW183875   1.312   9.335   5.502
94014SOL    HW283876   1.260   9.387   5.370
94015SOL     OW83877  12.760   8.458  12.316
94015SOL    HW183878  12.679   8.407  12.322
94015SOL    HW283879  12.814   8.408  12.255
94016SOL     OW83880   6.794  10.953  12.136
94016SOL    HW183881   6.782  10.888  12.067
94016SOL    HW283882   6.853  11.018  12.098
94017SOL     OW83883   9.541  12.463   2.784
94017SOL    HW183884   9.531  12.387   2.727
94017SOL    HW283885   9.636  12.470   2.797
94018SOL     OW83886   0.497   9.720  12.081
94018SOL    HW183887   0.590   9.718  12.104
94018SOL    HW283888   0.461   9.788  12.138
94019SOL     OW83889  10.915   5.617   0.074
94019SOL    HW183890  10.836   5.667   0.094
94019SOL    HW283891  10.917   5.548   0.140
94020SOL     OW83892   6.676   0.022  10.230
94020SOL    HW183893   6.601   0.023  10.171
94020SOL    HW283894   6.692   0.114  10.252
94021SOL     OW83895   9.108   6.641   6.829
94021SOL    HW183896   9.048   6.676   6.896
94021SOL    HW283897   9.068   6.667   6.746
94022SOL     OW83898  11.092   2.334   5.792
94022SOL    HW183899  11.073   2.268   5.726
94022SOL    HW283900  11.070   2.418   5.750
94023SOL     OW83901  10.574   9.921   4.104
94023SOL    HW183902  10.502   9.983   4.114
94023SOL    HW283903  10.641   9.970   4.056
94024SOL     OW83904   0.227  14.860   9.480
94024SOL    HW183905   0.292  14.822   9.421
94024SOL    HW283906   0.164   0.025   9.422
94025SOL     OW83907   7.693   7.646   0.814
94025SOL    HW183908   7.714   7.739   0.804
94025SOL    HW283909   7.721   7.607   0.732
94026SOL     OW83910  13.084   1.014   9.102
94026SOL    HW183911  13.024   0.941   9.088
94026SOL    HW283912  13.139   1.017   9.023
94027SOL     OW83913   3.580   5.084  14.034
94027SOL    HW183914   3.537   5.139  14.100
94027SOL    HW283915   3.556   4.994  14.058
94028SOL     OW83916  13.927   2.324   6.523
94028SOL    HW183917  13.859   2.264   6.496
94028SOL    HW283918  13.882   2.389   6.577
94029SOL     OW83919   4.634  13.883  13.147
94029SOL    HW183920   4.697  13.955  13.144
94029SOL    HW283921   4.641  13.843  13.060
94030SOL     OW83922  11.488   7.808   4.068
94030SOL    HW183923  11.450   7.893   4.093
94030SOL    HW283924  11.429   7.774   4.002
94031SOL     OW83925  13.404   0.896   8.635
94031SOL    HW183926  13.381   0.962   8.570
94031SOL    HW283927  13.329   0.837   8.637
94032SOL     OW83928   4.537  11.165  12.579
94032SOL    HW183929   4.568  11.229  12.515
94032SOL    HW283930   4.444  11.154  12.559
94033SOL     OW83931  12.469  11.477   5.102
94033SOL    HW183932  12.506  11.496   5.015
94033SOL    HW283933  12.505  11.392   5.126
94034SOL     OW83934  13.033   0.320   6.533
94034SOL    HW183935  13.032   0.250   6.598
94034SOL    HW283936  13.067   0.396   6.581
94035SOL     OW83937  14.248   7.277  11.795
94035SOL    HW183938  14.168   7.225  11.786
94035SOL    HW283939  14.240   7.346  11.730
94036SOL     OW83940   8.440   9.874   6.933
94036SOL    HW183941   8.525   9.895   6.892
94036SOL    HW283942   8.446   9.910   7.021
94037SOL     OW83943   4.132   9.365  13.128
94037SOL    HW183944   4.087   9.449  13.120
94037SOL    HW283945   4.219   9.388  13.159
94038SOL     OW83946  10.507   9.763   3.223
94038SOL    HW183947  10.586   9.730   3.180
94038SOL    HW283948  10.514   9.858   3.218
94039SOL     OW83949   4.375  12.742   6.535
94039SOL    HW183950   4.441  12.799   6.575
94039SOL    HW283951   4.318  12.717   6.608
94040SOL     OW83952   0.253   5.313   5.587
94040SOL    HW183953   0.185   5.251   5.560
94040SOL    HW283954   0.334   5.263   5.580
94041SOL     OW83955   1.375   6.102   4.940
94041SOL    HW183956   1.384   6.056   5.024
94041SOL    HW283957   1.307   6.167   4.956
94042SOL     OW83958  12.313  13.265  14.680
94042SOL    HW183959  12.294  13.351  14.642
94042SOL    HW283960  12.370  13.222  14.615
94043SOL     OW83961  12.678  14.655   0.058
94043SOL    HW183962  12.719  14.596   0.121
94043SOL    HW283963  12.635  14.722   0.112
94044SOL     OW83964  10.902  10.623   1.554
94044SOL    HW183965  10.977  10.682   1.558
94044SOL    HW283966  10.912  10.576   1.471
94045SOL     OW83967   2.511   0.505   5.851
94045SOL    HW183968   2.517   0.524   5.757
94045SOL    HW283969   2.531   0.412   5.859
94046SOL     OW83970  13.831   6.017   4.847
94046SOL    HW183971  13.760   5.990   4.906
94046SOL    HW283972  13.833   5.948   4.780
94047SOL     OW83973   8.910   1.443   2.358
94047SOL    HW183974   8.955   1.392   2.425
94047SOL    HW283975   8.979   1.478   2.302
94048SOL     OW83976   4.678   7.897   3.154
94048SOL    HW183977   4.705   7.896   3.246
94048SOL    HW283978   4.687   7.806   3.126
94049SOL     OW83979   6.838  11.135  12.875
94049SOL    HW183980   6.783  11.212  12.859
94049SOL    HW283981   6.923  11.157  12.838
94050SOL     OW83982   8.563  12.649  10.507
94050SOL    HW183983   8.499  12.657  10.436
94050SOL    HW283984   8.579  12.555  10.515
94051SOL     OW83985   3.234   8.466  12.552
94051SOL    HW183986   3.178   8.505  12.619
94051SOL    HW283987   3.316   8.445  12.598
94052SOL     OW83988   0.442   0.248  11.154
94052SOL    HW183989   0.402   0.320  11.106
94052SOL    HW283990   0.522   0.228  11.104
94053SOL     OW83991  10.605   5.299   2.166
94053SOL    HW183992  10.567   5.329   2.248
94053SOL    HW283993  10.689   5.261   2.191
94054SOL     OW83994  14.554   1.561  13.747
94054SOL    HW183995  14.477   1.519  13.785
94054SOL    HW283996  14.592   1.494  13.690
94055SOL     OW83997   9.597   1.779  14.240
94055SOL    HW183998   9.593   1.866  14.201
94055SOL    HW283999   9.545   1.786  14.320
94056SOL     OW84000   5.182   2.645   9.669
94056SOL    HW184001   5.244   2.598   9.725
94056SOL    HW284002   5.113   2.674   9.729
94057SOL     OW84003   7.502  12.116   4.387
94057SOL    HW184004   7.536  12.091   4.473
94057SOL    HW284005   7.409  12.092   4.391
94058SOL     OW84006   0.592  14.832   0.822
94058SOL    HW184007   0.577   0.010   0.747
94058SOL    HW284008   0.653  14.766   0.790
94059SOL     OW84009   3.449  10.065  12.059
94059SOL    HW184010   3.416   9.996  12.002
94059SOL    HW284011   3.383  10.073  12.127
94060SOL     OW84012  14.388   0.992   7.874
94060SOL    HW184013  14.383   0.899   7.853
94060SOL    HW284014  14.305   1.028   7.843
94061SOL     OW84015   0.191  14.392  14.843
94061SOL    HW184016   0.260  14.370   0.026
94061SOL    HW284017   0.219  14.350  14.761
94062SOL     OW84018  11.931   5.557  13.182
94062SOL    HW184019  11.962   5.548  13.272
94062SOL    HW284020  11.892   5.472  13.162
94063SOL     OW84021   5.556  11.376   6.830
94063SOL    HW184022   5.461  11.361   6.823
94063SOL    HW284023   5.594  11.320   6.763
94064SOL     OW84024   9.398   6.859   7.254
94064SOL    HW184025   9.461   6.854   7.326
94064SOL    HW284026   9.451   6.876   7.177
94065SOL     OW84027   1.722  14.587   8.019
94065SOL    HW184028   1.795  14.630   8.063
94065SOL    HW284029   1.681  14.533   8.087
94066SOL     OW84030  11.503   2.749   6.073
94066SOL    HW184031  11.508   2.843   6.086
94066SOL    HW284032  11.414   2.726   6.098
94067SOL     OW84033   8.335   3.324  11.279
94067SOL    HW184034   8.270   3.377  11.325
94067SOL    HW284035   8.299   3.235  11.280
94068SOL     OW84036   8.929  13.984   1.043
94068SOL    HW184037   8.914  14.061   0.988
94068SOL    HW284038   8.951  13.914   0.981
94069SOL     OW84039   1.709   6.345  11.885
94069SOL    HW184040   1.714   6.272  11.823
94069SOL    HW284041   1.621   6.380  11.874
94070SOL     OW84042   7.678  11.948  11.806
94070SOL    HW184043   7.694  11.978  11.717
94070SOL    HW284044   7.761  11.908  11.833
94071SOL     OW84045   9.805  12.022  12.315
94071SOL    HW184046   9.748  12.047  12.388
94071SOL    HW284047   9.787  12.086  12.247
94072SOL     OW84048  13.093  10.524  13.302
94072SOL    HW184049  13.124  10.518  13.392
94072SOL    HW284050  13.123  10.443  13.261
94073SOL     OW84051  13.405   3.203   7.740
94073SOL    HW184052  13.387   3.252   7.819
94073SOL    HW284053  13.368   3.256   7.669
94074SOL     OW84054  13.523   7.664   3.129
94074SOL    HW184055  13.482   7.627   3.051
94074SOL    HW284056  13.587   7.597   3.156
94075SOL     OW84057   6.817  14.250   3.406
94075SOL    HW184058   6.900  14.298   3.408
94075SOL    HW284059   6.791  14.251   3.314
94076SOL     OW84060  11.161  13.841   9.471
94076SOL    HW184061  11.190  13.750   9.465
94076SOL    HW284062  11.242  13.891   9.482
94077SOL     OW84063   0.418   5.211   0.245
94077SOL    HW184064   0.466   5.138   0.208
94077SOL    HW284065   0.377   5.254   0.170
94078SOL     OW84066  14.131   2.254  13.482
94078SOL    HW184067  14.170   2.317  13.543
94078SOL    HW284068  14.192   2.180  13.483
94079SOL     OW84069   0.117   0.106   6.897
94079SOL    HW184070   0.121   0.152   6.813
94079SOL    HW284071   0.178   0.154   6.953
94080SOL     OW84072   1.359   7.208  14.055
94080SOL    HW184073   1.410   7.141  14.011
94080SOL    HW284074   1.268   7.180  14.044
94081SOL     OW84075  12.946  11.773   9.360
94081SOL    HW184076  13.017  11.745   9.417
94081SOL    HW284077  12.870  11.724   9.390
94082SOL     OW84078  10.930  14.168   1.472
94082SOL    HW184079  10.881  14.245   1.444
94082SOL    HW284080  10.996  14.201   1.532
94083SOL     OW84081  12.496   3.661   2.966
94083SOL    HW184082  12.484   3.617   2.882
94083SOL    HW284083  12.408   3.683   2.994
94084SOL     OW84084   9.266   1.115   5.577
94084SOL    HW184085   9.296   1.078   5.494
94084SOL    HW284086   9.343   1.160   5.612
94085SOL     OW84087   6.349   7.934   7.289
94085SOL    HW184088   6.264   7.897   7.314
94085SOL    HW284089   6.370   7.995   7.360
94086SOL     OW84090   8.969   0.492   4.137
94086SOL    HW184091   8.956   0.494   4.232
94086SOL    HW284092   9.057   0.526   4.124
94087SOL     OW84093   7.879   2.440  11.386
94087SOL    HW184094   7.821   2.416  11.313
94087SOL    HW284095   7.836   2.405  11.463
94088SOL     OW84096   3.400   2.759   9.735
94088SOL    HW184097   3.323   2.732   9.785
94088SOL    HW284098   3.473   2.744   9.794
94089SOL     OW84099  12.048   1.417   2.883
94089SOL    HW184100  12.128   1.420   2.831
94089SOL    HW284101  12.063   1.346   2.946
94090SOL     OW84102   9.397   9.970   1.187
94090SOL    HW184103   9.337   9.917   1.240
94090SOL    HW284104   9.393  10.057   1.228
94091SOL     OW84105  11.855   7.968   2.842
94091SOL    HW184106  11.896   8.044   2.883
94091SOL    HW284107  11.783   8.004   2.790
94092SOL     OW84108   9.659   9.539   6.165
94092SOL    HW184109   9.675   9.627   6.200
94092SOL    HW284110   9.615   9.554   6.081
94093SOL     OW84111   4.328  13.597   2.268
94093SOL    HW184112   4.276  13.674   2.293
94093SOL    HW284113   4.282  13.523   2.307
94094SOL     OW84114   1.011   0.367  13.053
94094SOL    HW184115   1.093   0.410  13.028
94094SOL    HW284116   1.009   0.372  13.148
94095SOL     OW84117  12.496  12.081   5.226
94095SOL    HW184118  12.577  12.031   5.217
94095SOL    HW284119  12.432  12.016   5.257
94096SOL     OW84120  12.358  12.336  11.279
94096SOL    HW184121  12.416  12.295  11.343
94096SOL    HW284122  12.276  12.350  11.326
94097SOL     OW84123  11.151  12.767   9.620
94097SOL    HW184124  11.224  12.719   9.581
94097SOL    HW284125  11.188  12.851   9.645
94098SOL     OW84126   2.853  10.247   7.932
94098SOL    HW184127   2.799  10.309   7.884
94098SOL    HW284128   2.851  10.167   7.879
94099SOL     OW84129   5.954   6.131   5.209
94099SOL    HW184130   5.910   6.122   5.125
94099SOL    HW284131   5.929   6.218   5.240
94100SOL     OW84132   2.261   6.015   3.234
94100SOL    HW184133   2.318   6.038   3.307
94100SOL    HW284134   2.190   6.079   3.238
94101SOL     OW84135   2.936   2.202   8.535
94101SOL    HW184136   3.003   2.180   8.469
94101SOL    HW284137   2.870   2.133   8.526
94102SOL     OW84138   2.542  10.318  11.130
94102SOL    HW184139   2.474  10.385  11.139
94102SOL    HW284140   2.498  10.246  11.086
94103SOL     OW84141  10.251   3.461   4.262
94103SOL    HW184142  10.240   3.550   4.226
94103SOL    HW284143  10.325   3.425   4.215
94104SOL     OW84144   2.650   4.616  12.417
94104SOL    HW184145   2.718   4.579  12.361
94104SOL    HW284146   2.677   4.706  12.430
94105SOL     OW84147  10.808   2.846   2.737
94105SOL    HW184148  10.789   2.891   2.655
94105SOL    HW284149  10.759   2.894   2.803
94106SOL     OW84150  11.007  14.723  13.053
94106SOL    HW184151  11.036  14.729  12.962
94106SOL    HW284152  10.946  14.796  13.064
94107SOL     OW84153   0.950   2.044   8.643
94107SOL    HW184154   0.999   1.996   8.710
94107SOL    HW284155   0.859   2.034   8.668
94108SOL     OW84156  11.109   0.046   6.480
94108SOL    HW184157  11.026   0.090   6.459
94108SOL    HW284158  11.099  14.837   6.444
94109SOL     OW84159   0.191  14.085   1.616
94109SOL    HW184160   0.117  14.054   1.669
94109SOL    HW284161   0.256  14.115   1.681
94110SOL     OW84162  10.062  11.310   7.249
94110SOL    HW184163  10.068  11.227   7.297
94110SOL    HW284164  10.098  11.375   7.309
94111SOL     OW84165   5.540  12.762   7.446
94111SOL    HW184166   5.602  12.690   7.435
94111SOL    HW284167   5.504  12.749   7.534
94112SOL     OW84168   6.928  11.207  10.146
94112SOL    HW184169   6.884  11.137  10.195
94112SOL    HW284170   7.002  11.232  10.202
94113SOL     OW84171  12.951   5.848   9.924
94113SOL    HW184172  12.991   5.765   9.948
94113SOL    HW284173  12.957   5.850   9.828
94114SOL     OW84174   5.558   0.905  13.820
94114SOL    HW184175   5.553   0.996  13.789
94114SOL    HW284176   5.642   0.873  13.786
94115SOL     OW84177   1.554   4.584   5.905
94115SOL    HW184178   1.614   4.517   5.875
94115SOL    HW284179   1.599   4.667   5.887
94116SOL     OW84180  13.184   6.449  10.699
94116SOL    HW184181  13.221   6.527  10.658
94116SOL    HW284182  13.189   6.381  10.631
94117SOL     OW84183   5.183  14.585   1.234
94117SOL    HW184184   5.111  14.546   1.184
94117SOL    HW284185   5.144  14.661   1.277
94118SOL     OW84186   1.636   7.567  13.583
94118SOL    HW184187   1.568   7.563  13.516
94118SOL    HW284188   1.717   7.584  13.535
94119SOL     OW84189   6.732   1.402   1.351
94119SOL    HW184190   6.664   1.466   1.328
94119SOL    HW284191   6.713   1.379   1.442
94120SOL     OW84192  13.778  12.187   3.133
94120SOL    HW184193  13.730  12.108   3.109
94120SOL    HW284194  13.710  12.253   3.148
94121SOL     OW84195  10.592   1.271   7.824
94121SOL    HW184196  10.618   1.301   7.736
94121SOL    HW284197  10.672   1.236   7.862
94122SOL     OW84198   4.875   0.869   0.708
94122SOL    HW184199   4.854   0.802   0.642
94122SOL    HW284200   4.964   0.847   0.736
94123SOL     OW84201  14.355   6.996   1.134
94123SOL    HW184202  14.433   6.948   1.164
94123SOL    HW284203  14.284   6.931   1.137
94124SOL     OW84204   1.753  11.192  14.821
94124SOL    HW184205   1.680  11.131  14.814
94124SOL    HW284206   1.807  11.173  14.745
94125SOL     OW84207  14.727  12.301   9.172
94125SOL    HW184208  14.785  12.261   9.106
94125SOL    HW284209  14.730  12.239   9.246
94126SOL     OW84210   1.826  13.169   8.717
94126SOL    HW184211   1.740  13.177   8.674
94126SOL    HW284212   1.811  13.107   8.788
94127SOL     OW84213   7.409   6.148   1.231
94127SOL    HW184214   7.498   6.172   1.257
94127SOL    HW284215   7.358   6.228   1.244
94128SOL     OW84216  12.346   9.825  13.636
94128SOL    HW184217  12.300   9.900  13.673
94128SOL    HW284218  12.276   9.770  13.599
94129SOL     OW84219  13.602  10.312   3.314
94129SOL    HW184220  13.540  10.363   3.366
94129SOL    HW284221  13.673  10.291   3.374
94130SOL     OW84222  12.747   3.691  14.687
94130SOL    HW184223  12.792   3.737  14.616
94130SOL    HW284224  12.815   3.641  14.731
94131SOL     OW84225   4.735   5.809   0.931
94131SOL    HW184226   4.680   5.857   0.993
94131SOL    HW284227   4.813   5.864   0.921
94132SOL     OW84228   3.675  12.417  13.567
94132SOL    HW184229   3.766  12.402  13.593
94132SOL    HW284230   3.654  12.505  13.599
94133SOL     OW84231   4.044  10.055  11.601
94133SOL    HW184232   4.079   9.976  11.643
94133SOL    HW284233   3.954  10.033  11.580
94134SOL     OW84234  10.659   4.997  14.144
94134SOL    HW184235  10.727   5.052  14.184
94134SOL    HW284236  10.657   4.919  14.199
94135SOL     OW84237   5.852   3.326  11.490
94135SOL    HW184238   5.904   3.248  11.471
94135SOL    HW284239   5.907   3.399  11.461
94136SOL     OW84240  12.038   8.929   5.054
94136SOL    HW184241  12.112   8.973   5.010
94136SOL    HW284242  11.985   9.001   5.088
94137SOL     OW84243  11.499   4.138   6.843
94137SOL    HW184244  11.516   4.053   6.882
94137SOL    HW284245  11.505   4.199   6.917
94138SOL     OW84246   1.198  14.795  10.609
94138SOL    HW184247   1.228  14.878  10.647
94138SOL    HW284248   1.273  14.764  10.558
94139SOL     OW84249   8.442   1.580   8.299
94139SOL    HW184250   8.448   1.489   8.328
94139SOL    HW284251   8.530   1.615   8.314
94140SOL     OW84252   7.063   4.313   4.113
94140SOL    HW184253   7.011   4.362   4.049
94140SOL    HW284254   7.027   4.225   4.111
94141SOL     OW84255   2.840   4.082   5.175
94141SOL    HW184256   2.853   4.167   5.216
94141SOL    HW284257   2.905   4.025   5.216
94142SOL     OW84258   2.774   7.473   3.095
94142SOL    HW184259   2.863   7.458   3.126
94142SOL    HW284260   2.747   7.390   3.057
94143SOL     OW84261  12.180   2.552  11.353
94143SOL    HW184262  12.136   2.556  11.268
94143SOL    HW284263  12.165   2.463  11.384
94144SOL     OW84264   8.368   6.642  14.193
94144SOL    HW184265   8.325   6.557  14.204
94144SOL    HW284266   8.461   6.623  14.201
94145SOL     OW84267  13.345  12.181   8.380
94145SOL    HW184268  13.251  12.199   8.376
94145SOL    HW284269  13.371  12.167   8.289
94146SOL     OW84270   4.411  13.842   1.723
94146SOL    HW184271   4.356  13.920   1.716
94146SOL    HW284272   4.387  13.804   1.808
94147SOL     OW84273  10.514   4.152   3.559
94147SOL    HW184274  10.497   4.228   3.614
94147SOL    HW284275  10.601   4.167   3.523
94148SOL     OW84276   0.487   8.034   5.447
94148SOL    HW184277   0.472   8.111   5.393
94148SOL    HW284278   0.527   7.970   5.388
94149SOL     OW84279   0.109   0.958   8.924
94149SOL    HW184280   0.043   0.944   8.856
94149SOL    HW284281   0.062   0.947   9.006
94150SOL     OW84282   9.908   4.632  10.511
94150SOL    HW184283   9.985   4.576  10.525
94150SOL    HW284284   9.849   4.610  10.582
94151SOL     OW84285   1.648   6.672  11.954
94151SOL    HW184286   1.610   6.586  11.974
94151SOL    HW284287   1.734   6.651  11.917
94152SOL     OW84288  14.679  14.188   1.148
94152SOL    HW184289  14.623  14.191   1.226
94152SOL    HW284290  14.655  14.107   1.104
94153SOL     OW84291   1.700   3.946   7.447
94153SOL    HW184292   1.725   3.925   7.357
94153SOL    HW284293   1.616   3.990   7.439
94154SOL     OW84294   6.439   4.517  12.590
94154SOL    HW184295   6.437   4.521  12.494
94154SOL    HW284296   6.497   4.589  12.616
94155SOL     OW84297   2.695  14.160   7.611
94155SOL    HW184298   2.675  14.084   7.666
94155SOL    HW284299   2.790  14.161   7.604
94156SOL     OW84300   1.512   8.756   8.617
94156SOL    HW184301   1.506   8.726   8.707
94156SOL    HW284302   1.601   8.790   8.608
94157SOL     OW84303  10.194   8.448  13.822
94157SOL    HW184304  10.200   8.381  13.754
94157SOL    HW284305  10.113   8.429  13.868
94158SOL     OW84306   4.459   3.216   3.911
94158SOL    HW184307   4.405   3.274   3.965
94158SOL    HW284308   4.400   3.187   3.841
94159SOL     OW84309   5.757   6.943  14.228
94159SOL    HW184310   5.822   7.001  14.188
94159SOL    HW284311   5.740   6.982  14.314
94160SOL     OW84312   7.273   0.619   0.608
94160SOL    HW184313   7.253   0.543   0.554
94160SOL    HW284314   7.241   0.693   0.558
94161SOL     OW84315  11.884   2.481  10.623
94161SOL    HW184316  11.795   2.451  10.607
94161SOL    HW284317  11.874   2.558  10.678
94162SOL     OW84318  11.626   0.157   2.117
94162SOL    HW184319  11.584   0.188   2.037
94162SOL    HW284320  11.604   0.222   2.183
94163SOL     OW84321   2.921   2.858   3.361
94163SOL    HW184322   2.972   2.778   3.370
94163SOL    HW284323   2.910   2.889   3.451
94164SOL     OW84324  10.472   4.604   9.862
94164SOL    HW184325  10.491   4.685   9.911
94164SOL    HW284326  10.558   4.573   9.834
94165SOL     OW84327   2.464  14.364   0.599
94165SOL    HW184328   2.394  14.409   0.646
94165SOL    HW284329   2.484  14.288   0.653
94166SOL     OW84330   5.505   2.830   7.077
94166SOL    HW184331   5.539   2.912   7.114
94166SOL    HW284332   5.527   2.834   6.984
94167SOL     OW84333  12.456   1.084  12.220
94167SOL    HW184334  12.408   1.129  12.150
94167SOL    HW284335  12.389   1.055  12.281
94168SOL     OW84336   8.226   8.963  12.117
94168SOL    HW184337   8.168   9.024  12.071
94168SOL    HW284338   8.311   9.007  12.117
94169SOL     OW84339   0.290   4.079   6.381
94169SOL    HW184340   0.337   4.148   6.333
94169SOL    HW284341   0.200   4.112   6.387
94170SOL     OW84342   9.403   3.705   6.944
94170SOL    HW184343   9.414   3.797   6.969
94170SOL    HW284344   9.491   3.672   6.932
94171SOL     OW84345   7.445   5.970  12.526
94171SOL    HW184346   7.454   5.890  12.475
94171SOL    HW284347   7.513   5.964  12.594
94172SOL     OW84348  11.865   9.553   7.344
94172SOL    HW184349  11.943   9.530   7.295
94172SOL    HW284350  11.863   9.491   7.417
94173SOL     OW84351   2.055  12.655   8.147
94173SOL    HW184352   2.105  12.599   8.205
94173SOL    HW284353   2.114  12.727   8.126
94174SOL     OW84354   1.037  13.408   3.998
94174SOL    HW184355   0.976  13.480   4.015
94174SOL    HW284356   1.123  13.443   4.021
94175SOL     OW84357   0.956  10.017   8.382
94175SOL    HW184358   1.018  10.008   8.454
94175SOL    HW284359   1.008   9.998   8.304
94176SOL     OW84360  11.956  12.834  11.420
94176SOL    HW184361  12.044  12.835  11.382
94176SOL    HW284362  11.970  12.819  11.513
94177SOL     OW84363   2.005  14.861  10.981
94177SOL    HW184364   2.080  14.832  11.033
94177SOL    HW284365   1.955  14.781  10.965
94178SOL     OW84366  10.358  14.207   9.940
94178SOL    HW184367  10.321  14.200  10.028
94178SOL    HW284368  10.287  14.240   9.886
94179SOL     OW84369  13.799   0.818  12.121
94179SOL    HW184370  13.774   0.847  12.209
94179SOL    HW284371  13.723   0.771  12.089
94180SOL     OW84372   4.983   9.729  11.282
94180SOL    HW184373   5.006   9.666  11.215
94180SOL    HW284374   5.050   9.717  11.350
94181SOL     OW84375   2.671   6.650   7.981
94181SOL    HW184376   2.705   6.627   7.894
94181SOL    HW284377   2.630   6.570   8.012
94182SOL     OW84378  12.658   4.658  13.865
94182SOL    HW184379  12.684   4.658  13.773
94182SOL    HW284380  12.699   4.736  13.902
94183SOL     OW84381   5.138   6.580   4.230
94183SOL    HW184382   5.190   6.528   4.291
94183SOL    HW284383   5.090   6.515   4.178
94184SOL     OW84384  11.930  11.027  12.700
94184SOL    HW184385  11.950  11.049  12.609
94184SOL    HW284386  11.911  11.111  12.742
94185SOL     OW84387   9.435  10.356   9.180
94185SOL    HW184388   9.358  10.304   9.202
94185SOL    HW284389   9.470  10.385   9.264
94186SOL     OW84390   4.599  14.501   6.268
94186SOL    HW184391   4.541  14.499   6.193
94186SOL    HW284392   4.556  14.560   6.330
94187SOL     OW84393   4.716  11.816  10.452
94187SOL    HW184394   4.749  11.795  10.539
94187SOL    HW284395   4.743  11.907  10.437
94188SOL     OW84396  11.772  13.030   6.891
94188SOL    HW184397  11.696  12.997   6.843
94188SOL    HW284398  11.813  12.951   6.927
94189SOL     OW84399   5.368   8.561  11.008
94189SOL    HW184400   5.360   8.649  10.972
94189SOL    HW284401   5.415   8.512  10.940
94190SOL     OW84402   2.047   6.554  11.166
94190SOL    HW184403   1.976   6.522  11.222
94190SOL    HW284404   2.126   6.543  11.219
94191SOL     OW84405   5.225  11.839  13.734
94191SOL    HW184406   5.205  11.909  13.672
94191SOL    HW284407   5.320  11.831  13.732
94192SOL     OW84408   9.241   4.995  13.144
94192SOL    HW184409   9.219   4.926  13.207
94192SOL    HW284410   9.224   5.077  13.192
94193SOL     OW84411   0.475  12.460   1.827
94193SOL    HW184412   0.514  12.393   1.772
94193SOL    HW284413   0.401  12.493   1.776
94194SOL     OW84414   0.654   9.555   2.953
94194SOL    HW184415   0.631   9.646   2.969
94194SOL    HW284416   0.733   9.540   3.006
94195SOL     OW84417   0.343   1.450   1.699
94195SOL    HW184418   0.381   1.506   1.768
94195SOL    HW284419   0.419   1.414   1.654
94196SOL     OW84420   8.172  14.677   9.743
94196SOL    HW184421   8.097  14.704   9.796
94196SOL    HW284422   8.224  14.621   9.801
94197SOL     OW84423   3.765   4.924   0.985
94197SOL    HW184424   3.681   4.968   0.972
94197SOL    HW284425   3.793   4.950   1.073
94198SOL     OW84426   6.807   3.081   7.227
94198SOL    HW184427   6.856   3.140   7.284
94198SOL    HW284428   6.870   3.052   7.161
94199SOL     OW84429  10.487   6.043   2.568
94199SOL    HW184430  10.404   6.087   2.548
94199SOL    HW284431  10.536   6.107   2.620
94200SOL     OW84432   9.424   1.820  11.881
94200SOL    HW184433   9.422   1.915  11.891
94200SOL    HW284434   9.516   1.800  11.862
94201SOL     OW84435  13.278   7.598   9.332
94201SOL    HW184436  13.326   7.679   9.349
94201SOL    HW284437  13.189   7.627   9.311
94202SOL     OW84438   4.455   9.488   4.534
94202SOL    HW184439   4.495   9.436   4.464
94202SOL    HW284440   4.530   9.521   4.584
94203SOL     OW84441  12.880   1.482   1.378
94203SOL    HW184442  12.792   1.499   1.343
94203SOL    HW284443  12.881   1.525   1.463
94204SOL     OW84444   4.058   7.029   2.440
94204SOL    HW184445   4.112   6.986   2.506
94204SOL    HW284446   3.979   7.056   2.488
94205SOL     OW84447   1.566   4.372   3.487
94205SOL    HW184448   1.534   4.334   3.569
94205SOL    HW284449   1.547   4.465   3.496
94206SOL     OW84450   6.178  10.542   5.309
94206SOL    HW184451   6.269  10.568   5.301
94206SOL    HW284452   6.168  10.517   5.401
94207SOL     OW84453  12.876  11.604  14.620
94207SOL    HW184454  12.946  11.586  14.558
94207SOL    HW284455  12.839  11.519  14.642
94208SOL     OW84456   0.839  12.508  12.393
94208SOL    HW184457   0.911  12.558  12.431
94208SOL    HW284458   0.861  12.502  12.300
94209SOL     OW84459   3.930   4.951   2.438
94209SOL    HW184460   3.943   4.861   2.408
94209SOL    HW284461   3.966   4.951   2.527
94210SOL     OW84462  14.847   6.529   9.312
94210SOL    HW184463  14.811   6.470   9.378
94210SOL    HW284464   0.049   6.561   9.351
94211SOL     OW84465  12.811  12.378   3.634
94211SOL    HW184466  12.816  12.315   3.705
94211SOL    HW284467  12.721  12.411   3.637
94212SOL     OW84468  10.861   6.107   1.687
94212SOL    HW184469  10.825   6.079   1.770
94212SOL    HW284470  10.915   6.184   1.708
94213SOL     OW84471   4.736   4.865   5.450
94213SOL    HW184472   4.693   4.786   5.481
94213SOL    HW284473   4.829   4.850   5.466
94214SOL     OW84474   3.468  10.269   7.693
94214SOL    HW184475   3.543  10.225   7.733
94214SOL    HW284476   3.392  10.218   7.722
94215SOL     OW84477   6.051   6.198  11.712
94215SOL    HW184478   6.073   6.152  11.793
94215SOL    HW284479   5.968   6.161  11.685
94216SOL     OW84480  11.386  13.069   3.488
94216SOL    HW184481  11.467  13.086   3.537
94216SOL    HW284482  11.413  13.015   3.414
94217SOL     OW84483   8.628   5.728   4.638
94217SOL    HW184484   8.632   5.824   4.629
94217SOL    HW284485   8.585   5.713   4.722
94218SOL     OW84486   5.912   1.227  13.340
94218SOL    HW184487   5.977   1.180  13.393
94218SOL    HW284488   5.917   1.318  13.371
94219SOL     OW84489  13.326  11.854   0.674
94219SOL    HW184490  13.363  11.770   0.699
94219SOL    HW284491  13.285  11.838   0.589
94220SOL     OW84492   6.123   1.604  14.761
94220SOL    HW184493   6.121   1.675  14.825
94220SOL    HW284494   6.031   1.590  14.739
94221SOL     OW84495   6.236   3.020  10.494
94221SOL    HW184496   6.181   2.966  10.551
94221SOL    HW284497   6.174   3.061  10.433
94222SOL     OW84498  10.294   9.326  14.677
94222SOL    HW184499  10.222   9.388  14.671
94222SOL    HW284500  10.372   9.380  14.686
94223SOL     OW84501   1.012  14.615   9.823
94223SOL    HW184502   0.965  14.586   9.901
94223SOL    HW284503   1.091  14.658   9.857
94224SOL     OW84504  10.988  10.070   1.077
94224SOL    HW184505  10.893  10.077   1.083
94224SOL    HW284506  11.003  10.005   1.008
94225SOL     OW84507  11.239   9.103   3.590
94225SOL    HW184508  11.190   9.109   3.671
94225SOL    HW284509  11.331   9.105   3.617
94226SOL     OW84510  11.645   7.941   4.763
94226SOL    HW184511  11.563   7.911   4.725
94226SOL    HW284512  11.707   7.871   4.747
94227SOL     OW84513   0.257   3.793  12.036
94227SOL    HW184514   0.338   3.748  12.013
94227SOL    HW284515   0.211   3.804  11.952
94228SOL     OW84516   1.051   7.457  13.405
94228SOL    HW184517   1.081   7.511  13.478
94228SOL    HW284518   0.960   7.484  13.391
94229SOL     OW84519   8.838   8.881  14.098
94229SOL    HW184520   8.892   8.808  14.127
94229SOL    HW284521   8.884   8.959  14.130
94230SOL     OW84522   5.115   4.283  13.870
94230SOL    HW184523   5.068   4.361  13.841
94230SOL    HW284524   5.047   4.223  13.898
94231SOL     OW84525  12.698   4.444   2.311
94231SOL    HW184526  12.729   4.460   2.222
94231SOL    HW284527  12.759   4.379   2.346
94232SOL     OW84528   4.263   0.404   3.285
94232SOL    HW184529   4.244   0.313   3.262
94232SOL    HW284530   4.323   0.434   3.217
94233SOL     OW84531   3.577   4.707   9.713
94233SOL    HW184532   3.670   4.725   9.723
94233SOL    HW284533   3.566   4.682   9.622
94234SOL     OW84534  13.607   1.164  11.708
94234SOL    HW184535  13.535   1.114  11.670
94234SOL    HW284536  13.648   1.104  11.770
94235SOL     OW84537   7.905   6.582   6.841
94235SOL    HW184538   7.887   6.588   6.747
94235SOL    HW284539   7.972   6.515   6.849
94236SOL     OW84540  11.051   3.971   5.153
94236SOL    HW184541  11.000   3.999   5.077
94236SOL    HW284542  11.108   4.046   5.173
94237SOL     OW84543   4.400  11.556  14.230
94237SOL    HW184544   4.316  11.570  14.274
94237SOL    HW284545   4.383  11.484  14.170
94238SOL     OW84546   8.369   9.329   3.298
94238SOL    HW184547   8.416   9.304   3.219
94238SOL    HW284548   8.328   9.413   3.276
94239SOL     OW84549   8.022  14.505   7.528
94239SOL    HW184550   7.940  14.548   7.505
94239SOL    HW284551   8.073  14.506   7.447
94240SOL     OW84552   3.470   0.027   8.489
94240SOL    HW184553   3.476   0.032   8.394
94240SOL    HW284554   3.470  14.812   8.507
94241SOL     OW84555   5.680   2.968   0.628
94241SOL    HW184556   5.605   2.910   0.618
94241SOL    HW284557   5.663   3.040   0.566
94242SOL     OW84558   1.773   0.511   8.364
94242SOL    HW184559   1.755   0.604   8.364
94242SOL    HW284560   1.782   0.487   8.272
94243SOL     OW84561   9.284   7.186   9.870
94243SOL    HW184562   9.271   7.104   9.918
94243SOL    HW284563   9.242   7.253   9.924
94244SOL     OW84564  12.267   0.621   2.307
94244SOL    HW184565  12.329   0.655   2.242
94244SOL    HW284566  12.294   0.663   2.389
94245SOL     OW84567   7.574   1.563   7.692
94245SOL    HW184568   7.541   1.544   7.780
94245SOL    HW284569   7.621   1.646   7.702
94246SOL     OW84570   3.603   4.047  10.156
94246SOL    HW184571   3.648   3.994  10.090
94246SOL    HW284572   3.532   3.991  10.187
94247SOL     OW84573   6.080   0.956  10.928
94247SOL    HW184574   6.042   1.015  10.863
94247SOL    HW284575   6.056   0.868  10.898
94248SOL     OW84576   4.114   2.298   6.308
94248SOL    HW184577   4.071   2.378   6.279
94248SOL    HW284578   4.206   2.323   6.320
94249SOL     OW84579   6.954   1.125  10.436
94249SOL    HW184580   6.970   1.057  10.502
94249SOL    HW284581   7.032   1.124  10.380
94250SOL     OW84582  12.618   5.649  10.882
94250SOL    HW184583  12.577   5.580  10.829
94250SOL    HW284584  12.545   5.688  10.930
94251SOL     OW84585   4.595   4.497   1.745
94251SOL    HW184586   4.648   4.421   1.771
94251SOL    HW284587   4.659   4.564   1.723
94252SOL     OW84588   8.936  12.489   1.001
94252SOL    HW184589   8.870  12.552   0.973
94252SOL    HW284590   8.911  12.466   1.091
94253SOL     OW84591  10.787  13.448  10.165
94253SOL    HW184592  10.695  13.472  10.178
94253SOL    HW284593  10.836  13.522  10.200
94254SOL     OW84594  14.876   5.166   9.309
94254SOL    HW184595  14.827   5.220   9.371
94254SOL    HW284596  14.836   5.185   9.224
94255SOL     OW84597   5.528   3.986   7.818
94255SOL    HW184598   5.547   3.906   7.867
94255SOL    HW284599   5.435   4.004   7.836
94256SOL     OW84600   7.125  14.383   4.792
94256SOL    HW184601   7.176  14.303   4.783
94256SOL    HW284602   7.045  14.356   4.837
94257SOL     OW84603   5.513  10.110   9.542
94257SOL    HW184604   5.470  10.174   9.599
94257SOL    HW284605   5.596  10.092   9.586
94258SOL     OW84606   7.536   6.081  11.028
94258SOL    HW184607   7.442   6.070  11.015
94258SOL    HW284608   7.561   6.149  10.965
94259SOL     OW84609   3.881   5.843  12.118
94259SOL    HW184610   3.842   5.839  12.205
94259SOL    HW284611   3.806   5.836  12.058
94260SOL     OW84612  14.174  10.230   4.558
94260SOL    HW184613  14.119  10.164   4.601
94260SOL    HW284614  14.116  10.305   4.544
94261SOL     OW84615   0.925  14.063  13.684
94261SOL    HW184616   0.953  14.128  13.749
94261SOL    HW284617   1.003  14.009  13.669
94262SOL     OW84618   4.658   5.801   5.241
94262SOL    HW184619   4.598   5.800   5.316
94262SOL    HW284620   4.658   5.711   5.209
94263SOL     OW84621   5.971  11.084   9.700
94263SOL    HW184622   5.879  11.071   9.724
94263SOL    HW284623   5.972  11.164   9.648
94264SOL     OW84624  12.277   6.446  14.126
94264SOL    HW184625  12.366   6.424  14.097
94264SOL    HW284626  12.262   6.534  14.089
94265SOL     OW84627   9.285   6.009   6.334
94265SOL    HW184628   9.317   5.979   6.249
94265SOL    HW284629   9.346   6.077   6.360
94266SOL     OW84630   5.614   8.721   1.634
94266SOL    HW184631   5.666   8.758   1.563
94266SOL    HW284632   5.542   8.782   1.646
94267SOL     OW84633   6.590   9.071  13.285
94267SOL    HW184634   6.568   9.032  13.369
94267SOL    HW284635   6.543   9.155  13.285
94268SOL     OW84636  13.340   4.595  10.732
94268SOL    HW184637  13.345   4.629  10.821
94268SOL    HW284638  13.429   4.606  10.698
94269SOL     OW84639   4.268   3.084  11.898
94269SOL    HW184640   4.258   3.174  11.929
94269SOL    HW284641   4.318   3.092  11.817
94270SOL     OW84642  12.877   9.419  13.028
94270SOL    HW184643  12.804   9.426  13.089
94270SOL    HW284644  12.910   9.330  13.039
94271SOL     OW84645   8.789  12.943   5.141
94271SOL    HW184646   8.811  12.874   5.204
94271SOL    HW284647   8.742  13.008   5.193
94272SOL     OW84648   5.470   7.205  10.798
94272SOL    HW184649   5.495   7.138  10.861
94272SOL    HW284650   5.539   7.202  10.731
94273SOL     OW84651   0.184  10.830   8.552
94273SOL    HW184652   0.278  10.824   8.565
94273SOL    HW284653   0.157  10.741   8.529
94274SOL     OW84654   1.781   5.468   5.836
94274SOL    HW184655   1.742   5.397   5.784
94274SOL    HW284656   1.866   5.484   5.796
94275SOL     OW84657   6.274  14.229   0.533
94275SOL    HW184658   6.298  14.289   0.462
94275SOL    HW284659   6.347  14.168   0.538
94276SOL     OW84660  10.140  14.734  11.478
94276SOL    HW184661  10.138  14.641  11.501
94276SOL    HW284662  10.232  14.759  11.484
94277SOL     OW84663   7.296  11.032  10.414
94277SOL    HW184664   7.314  11.126  10.414
94277SOL    HW284665   7.243  11.017  10.336
94278SOL     OW84666   9.226   9.309   0.289
94278SOL    HW184667   9.240   9.371   0.218
94278SOL    HW284668   9.313   9.271   0.305
94279SOL     OW84669  14.358   6.342   0.281
94279SOL    HW184670  14.359   6.311   0.191
94279SOL    HW284671  14.446   6.378   0.294
94280SOL     OW84672  13.238   9.626   5.847
94280SOL    HW184673  13.252   9.533   5.831
94280SOL    HW284674  13.155   9.630   5.896
94281SOL     OW84675  13.732   2.245   2.851
94281SOL    HW184676  13.820   2.207   2.849
94281SOL    HW284677  13.720   2.272   2.942
94282SOL     OW84678  12.488  12.034   1.758
94282SOL    HW184679  12.530  12.015   1.841
94282SOL    HW284680  12.491  12.130   1.751
94283SOL     OW84681   6.866  12.497   3.183
94283SOL    HW184682   6.841  12.588   3.201
94283SOL    HW284683   6.785  12.447   3.193
94284SOL     OW84684  13.975   2.457   6.270
94284SOL    HW184685  13.972   2.391   6.201
94284SOL    HW284686  13.970   2.408   6.352
94285SOL     OW84687  12.989  14.610   1.191
94285SOL    HW184688  12.897  14.631   1.202
94285SOL    HW284689  13.019  14.583   1.278
94286SOL     OW84690   6.081  14.085  11.210
94286SOL    HW184691   6.069  14.016  11.145
94286SOL    HW284692   6.075  14.040  11.294
94287SOL     OW84693   4.173   1.806  13.075
94287SOL    HW184694   4.228   1.884  13.080
94287SOL    HW284695   4.094   1.829  13.124
94288SOL     OW84696   0.813  12.813   4.537
94288SOL    HW184697   0.778  12.746   4.479
94288SOL    HW284698   0.802  12.777   4.625
94289SOL     OW84699   9.091   3.455   9.910
94289SOL    HW184700   9.159   3.410   9.861
94289SOL    HW284701   9.137   3.522   9.961
94290SOL     OW84702   2.140  13.273  12.487
94290SOL    HW184703   2.048  13.255  12.505
94290SOL    HW284704   2.166  13.335  12.555
94291SOL     OW84705  12.039  11.546   2.373
94291SOL    HW184706  12.051  11.491   2.451
94291SOL    HW284707  12.102  11.511   2.310
94292SOL     OW84708   4.224   7.101   4.060
94292SOL    HW184709   4.179   7.179   4.094
94292SOL    HW284710   4.238   7.046   4.138
94293SOL     OW84711   9.554  10.247  14.457
94293SOL    HW184712   9.557  10.194  14.378
94293SOL    HW284713   9.604  10.326  14.435
94294SOL     OW84714   2.509   0.995   5.532
94294SOL    HW184715   2.536   1.086   5.537
94294SOL    HW284716   2.570   0.949   5.590
94295SOL     OW84717  10.696  11.981  12.888
94295SOL    HW184718  10.614  11.953  12.929
94295SOL    HW284719  10.682  11.968  12.794
94296SOL     OW84720   4.863  11.049   5.138
94296SOL    HW184721   4.889  11.124   5.191
94296SOL    HW284722   4.814  11.087   5.065
94297SOL     OW84723   1.076   0.685   0.728
94297SOL    HW184724   0.991   0.702   0.768
94297SOL    HW284725   1.140   0.710   0.795
94298SOL     OW84726   3.363   4.444   5.679
94298SOL    HW184727   3.327   4.493   5.753
94298SOL    HW284728   3.450   4.481   5.666
94299SOL     OW84729  12.374  11.733   7.618
94299SOL    HW184730  12.379  11.638   7.609
94299SOL    HW284731  12.358  11.765   7.529
94300SOL     OW84732   9.490   1.698   3.585
94300SOL    HW184733   9.404   1.662   3.561
94300SOL    HW284734   9.522   1.738   3.504
94301SOL     OW84735   7.856  10.266  14.235
94301SOL    HW184736   7.941  10.274  14.192
94301SOL    HW284737   7.874  10.283  14.327
94302SOL     OW84738   6.145   5.229  10.505
94302SOL    HW184739   6.075   5.271  10.456
94302SOL    HW284740   6.218   5.223  10.444
94303SOL     OW84741   3.182   9.492   7.084
94303SOL    HW184742   3.266   9.528   7.056
94303SOL    HW284743   3.143   9.458   7.003
94304SOL     OW84744   1.486  10.677  10.547
94304SOL    HW184745   1.547  10.636  10.486
94304SOL    HW284746   1.438  10.604  10.586
94305SOL     OW84747  12.369   6.582  12.934
94305SOL    HW184748  12.394   6.525  13.006
94305SOL    HW284749  12.429   6.558  12.863
94306SOL     OW84750   9.327   2.077  14.701
94306SOL    HW184751   9.232   2.079  14.688
94306SOL    HW284752   9.338   2.037  14.787
94307SOL     OW84753  14.009   5.608   6.840
94307SOL    HW184754  13.914   5.599   6.832
94307SOL    HW284755  14.024   5.615   6.934
94308SOL     OW84756   8.643   3.343   5.821
94308SOL    HW184757   8.716   3.387   5.864
94308SOL    HW284758   8.626   3.266   5.876
94309SOL     OW84759   3.373  13.633   3.001
94309SOL    HW184760   3.333  13.582   3.072
94309SOL    HW284761   3.332  13.719   3.008
94310SOL     OW84762  14.487  13.015   0.028
94310SOL    HW184763  14.553  12.975  14.850
94310SOL    HW284764  14.416  13.040  14.847
94311SOL     OW84765   2.772   0.896   4.967
94311SOL    HW184766   2.744   0.818   5.016
94311SOL    HW284767   2.702   0.959   4.981
94312SOL     OW84768   7.490   6.543  13.895
94312SOL    HW184769   7.411   6.498  13.866
94312SOL    HW284770   7.484   6.543  13.991
94313SOL     OW84771  11.532   7.830  10.546
94313SOL    HW184772  11.512   7.882  10.624
94313SOL    HW284773  11.454   7.776  10.532
94314SOL     OW84774  10.877   8.236   9.049
94314SOL    HW184775  10.958   8.232   9.099
94314SOL    HW284776  10.872   8.326   9.018
94315SOL     OW84777   9.306   8.688  11.150
94315SOL    HW184778   9.347   8.607  11.120
94315SOL    HW284779   9.251   8.662  11.224
94316SOL     OW84780  14.734  12.931   7.283
94316SOL    HW184781  14.649  12.939   7.239
94316SOL    HW284782  14.754  13.020   7.313
94317SOL     OW84783   5.292   9.784   4.790
94317SOL    HW184784   5.297   9.708   4.847
94317SOL    HW284785   5.380   9.792   4.752
94318SOL     OW84786  14.249  14.320   0.968
94318SOL    HW184787  14.207  14.403   0.990
94318SOL    HW284788  14.342  14.337   0.978
94319SOL     OW84789   2.855  14.450  11.829
94319SOL    HW184790   2.908  14.373  11.810
94319SOL    HW284791   2.807  14.466  11.748
94320SOL     OW84792  14.742   7.817   5.508
94320SOL    HW184793  14.715   7.893   5.558
94320SOL    HW284794  14.714   7.742   5.559
94321SOL     OW84795   7.720   2.651  13.779
94321SOL    HW184796   7.764   2.640  13.695
94321SOL    HW284797   7.742   2.740  13.807
94322SOL     OW84798  11.923   7.597   3.960
94322SOL    HW184799  11.996   7.537   3.946
94322SOL    HW284800  11.852   7.561   3.908
94323SOL     OW84801  14.232  12.544   4.367
94323SOL    HW184802  14.325  12.530   4.350
94323SOL    HW284803  14.223  12.639   4.372
94324SOL     OW84804   8.611  13.046  14.653
94324SOL    HW184805   8.594  13.082  14.566
94324SOL    HW284806   8.665  13.112  14.697
94325SOL     OW84807   0.354   1.016  14.021
94325SOL    HW184808   0.278   1.060  13.983
94325SOL    HW284809   0.410   1.088  14.051
94326SOL     OW84810   9.871  13.032   9.948
94326SOL    HW184811   9.900  13.030  10.039
94326SOL    HW284812   9.935  12.978   9.902
94327SOL     OW84813   6.238  13.405   8.287
94327SOL    HW184814   6.305  13.346   8.321
94327SOL    HW284815   6.237  13.388   8.193
94328SOL     OW84816  13.483   4.952  11.423
94328SOL    HW184817  13.564   4.914  11.388
94328SOL    HW284818  13.462   4.898  11.500
94329SOL     OW84819   1.961   8.034   7.314
94329SOL    HW184820   1.973   8.128   7.302
94329SOL    HW284821   1.908   8.007   7.239
94330SOL     OW84822   0.429  11.978   4.050
94330SOL    HW184823   0.480  12.054   4.023
94330SOL    HW284824   0.407  11.995   4.142
94331SOL     OW84825  13.141   6.199   2.944
94331SOL    HW184826  13.190   6.183   2.864
94331SOL    HW284827  13.193   6.156   3.012
94332SOL     OW84828  11.688   5.667  11.949
94332SOL    HW184829  11.604   5.691  11.910
94332SOL    HW284830  11.751   5.725  11.907
94333SOL     OW84831   5.263  13.021   0.749
94333SOL    HW184832   5.212  13.101   0.756
94333SOL    HW284833   5.345  13.048   0.706
94334SOL     OW84834   6.804   7.409  11.036
94334SOL    HW184835   6.888   7.444  11.008
94334SOL    HW284836   6.789   7.334  10.978
94335SOL     OW84837   9.710   7.081   7.768
94335SOL    HW184838   9.784   7.047   7.818
94335SOL    HW284839   9.678   7.155   7.819
94336SOL     OW84840  12.129   0.583   6.811
94336SOL    HW184841  12.145   0.613   6.721
94336SOL    HW284842  12.049   0.629   6.837
94337SOL     OW84843   2.984   8.237  13.844
94337SOL    HW184844   2.964   8.166  13.905
94337SOL    HW284845   3.011   8.192  13.764
94338SOL     OW84846   4.937   1.891  13.326
94338SOL    HW184847   4.871   1.905  13.393
94338SOL    HW284848   5.021   1.899  13.372
94339SOL     OW84849  13.698  12.700   7.473
94339SOL    HW184850  13.616  12.686   7.520
94339SOL    HW284851  13.713  12.794   7.478
94340SOL     OW84852  13.414   5.025   6.160
94340SOL    HW184853  13.348   4.980   6.212
94340SOL    HW284854  13.489   5.034   6.219
94341SOL     OW84855   3.364   3.655  13.219
94341SOL    HW184856   3.369   3.675  13.126
94341SOL    HW284857   3.345   3.739  13.261
94342SOL     OW84858   9.105  14.367   5.755
94342SOL    HW184859   9.043  14.350   5.684
94342SOL    HW284860   9.078  14.452   5.791
94343SOL     OW84861   2.326   1.308   7.290
94343SOL    HW184862   2.408   1.261   7.301
94343SOL    HW284863   2.272   1.249   7.237
94344SOL     OW84864  12.368   9.072  13.310
94344SOL    HW184865  12.301   9.140  13.313
94344SOL    HW284866  12.442   9.107  13.359
94345SOL     OW84867   8.221   9.806  11.762
94345SOL    HW184868   8.173   9.878  11.804
94345SOL    HW284869   8.196   9.811  11.670
94346SOL     OW84870  10.211   5.353   2.126
94346SOL    HW184871  10.202   5.448   2.116
94346SOL    HW284872  10.209   5.319   2.037
94347SOL     OW84873  13.865   1.253  12.915
94347SOL    HW184874  13.832   1.343  12.902
94347SOL    HW284875  13.811   1.219  12.986
94348SOL     OW84876   7.835  11.743   5.695
94348SOL    HW184877   7.866  11.797   5.623
94348SOL    HW284878   7.749  11.711   5.666
94349SOL     OW84879   4.779  12.318  13.565
94349SOL    HW184880   4.819  12.375  13.630
94349SOL    HW284881   4.836  12.241  13.563
94350SOL     OW84882   0.706  11.031   4.411
94350SOL    HW184883   0.733  10.941   4.396
94350SOL    HW284884   0.616  11.035   4.378
94351SOL     OW84885  13.102   7.819   3.504
94351SOL    HW184886  13.101   7.738   3.453
94351SOL    HW284887  13.045   7.801   3.579
94352SOL     OW84888  12.634  10.174  12.623
94352SOL    HW184889  12.560  10.129  12.582
94352SOL    HW284890  12.666  10.112  12.689
94353SOL     OW84891  11.094   5.233  13.482
94353SOL    HW184892  11.109   5.197  13.570
94353SOL    HW284893  11.063   5.159  13.431
94354SOL     OW84894   0.319   5.792  11.453
94354SOL    HW184895   0.228   5.808  11.478
94354SOL    HW284896   0.361   5.763  11.534
94355SOL     OW84897   8.641   9.631   1.577
94355SOL    HW184898   8.614   9.604   1.665
94355SOL    HW284899   8.678   9.718   1.589
94356SOL     OW84900  14.848   9.314   5.203
94356SOL    HW184901   0.018   9.325   5.121
94356SOL    HW284902  14.872   9.227   5.234
94357SOL     OW84903   9.167   3.775   8.703
94357SOL    HW184904   9.215   3.858   8.711
94357SOL    HW284905   9.220   3.713   8.753
94358SOL     OW84906   0.980   2.153   2.379
94358SOL    HW184907   1.020   2.068   2.399
94358SOL    HW284908   1.053   2.208   2.350
94359SOL     OW84909   8.005  14.149  13.437
94359SOL    HW184910   7.933  14.092  13.464
94359SOL    HW284911   7.968  14.237  13.438
94360SOL     OW84912   3.536  14.006   6.792
94360SOL    HW184913   3.456  14.039   6.751
94360SOL    HW284914   3.592  13.982   6.718
94361SOL     OW84915   6.645   0.426   3.669
94361SOL    HW184916   6.640   0.355   3.605
94361SOL    HW284917   6.656   0.505   3.616
94362SOL     OW84918   6.953   7.401   4.192
94362SOL    HW184919   6.965   7.311   4.162
94362SOL    HW284920   6.859   7.418   4.181
94363SOL     OW84921   8.896   1.812   7.136
94363SOL    HW184922   8.956   1.740   7.120
94363SOL    HW284923   8.822   1.772   7.183
94364SOL     OW84924  11.420   8.218  11.673
94364SOL    HW184925  11.365   8.169  11.734
94364SOL    HW284926  11.358   8.266  11.618
94365SOL     OW84927   9.031  13.927   5.247
94365SOL    HW184928   9.048  13.970   5.331
94365SOL    HW284929   9.072  13.841   5.255
94366SOL     OW84930   6.088   9.388   0.688
94366SOL    HW184931   6.093   9.416   0.596
94366SOL    HW284932   6.030   9.450   0.730
94367SOL     OW84933   6.557   2.006   4.699
94367SOL    HW184934   6.550   1.917   4.664
94367SOL    HW284935   6.475   2.018   4.747
94368SOL     OW84936   4.812   3.507   4.504
94368SOL    HW184937   4.830   3.532   4.595
94368SOL    HW284938   4.898   3.508   4.462
94369SOL     OW84939  14.406   5.432   4.520
94369SOL    HW184940  14.329   5.439   4.577
94369SOL    HW284941  14.370   5.428   4.431
94370SOL     OW84942   3.313   7.746   0.113
94370SOL    HW184943   3.299   7.652   0.124
94370SOL    HW284944   3.307   7.781   0.202
94371SOL     OW84945  12.696   4.518   4.668
94371SOL    HW184946  12.616   4.487   4.710
94371SOL    HW284947  12.754   4.540   4.741
94372SOL     OW84948   1.071   7.076   0.441
94372SOL    HW184949   0.996   7.024   0.470
94372SOL    HW284950   1.046   7.106   0.353
94373SOL     OW84951  10.713  10.918  11.202
94373SOL    HW184952  10.704  10.824  11.216
94373SOL    HW284953  10.757  10.926  11.118
94374SOL     OW84954  12.201  10.268  11.726
94374SOL    HW184955  12.131  10.333  11.715
94374SOL    HW284956  12.157  10.183  11.719
94375SOL     OW84957  14.264   6.665   6.851
94375SOL    HW184958  14.255   6.624   6.765
94375SOL    HW284959  14.301   6.597   6.907
94376SOL     OW84960  11.365  12.622  13.791
94376SOL    HW184961  11.380  12.679  13.866
94376SOL    HW284962  11.411  12.541  13.813
94377SOL     OW84963   6.761   8.807  13.616
94377SOL    HW184964   6.683   8.840  13.573
94377SOL    HW284965   6.834   8.851  13.571
94378SOL     OW84966  14.036   9.063   1.661
94378SOL    HW184967  14.016   9.003   1.734
94378SOL    HW284968  14.114   9.111   1.690
94379SOL     OW84969   6.004  13.768   3.877
94379SOL    HW184970   5.929  13.818   3.846
94379SOL    HW284971   5.972  13.722   3.955
94380SOL     OW84972   8.285  12.404   4.313
94380SOL    HW184973   8.349  12.382   4.245
94380SOL    HW284974   8.218  12.336   4.306
94381SOL     OW84975  12.013   1.758   9.620
94381SOL    HW184976  12.045   1.669   9.633
94381SOL    HW284977  11.951   1.751   9.548
94382SOL     OW84978   2.619   0.361  13.702
94382SOL    HW184979   2.705   0.369  13.744
94382SOL    HW284980   2.557   0.360  13.774
94383SOL     OW84981  12.651   5.506  14.790
94383SOL    HW184982  12.589   5.535  14.723
94383SOL    HW284983  12.668   5.414  14.768
94384SOL     OW84984   5.689   2.956   7.804
94384SOL    HW184985   5.686   3.012   7.882
94384SOL    HW284986   5.723   2.872   7.836
94385SOL     OW84987  13.397   6.694   8.827
94385SOL    HW184988  13.377   6.749   8.752
94385SOL    HW284989  13.479   6.650   8.803
94386SOL     OW84990   2.988  12.185   4.713
94386SOL    HW184991   3.068  12.220   4.751
94386SOL    HW284992   2.961  12.250   4.648
94387SOL     OW84993   6.549  14.870  10.885
94387SOL    HW184994   6.466   0.022  10.848
94387SOL    HW284995   6.563  14.785  10.844
94388SOL     OW84996   4.184   7.200   4.680
94388SOL    HW184997   4.103   7.249   4.671
94388SOL    HW284998   4.199   7.195   4.775
94389SOL     OW84999   5.720   0.901   7.661
94389SOL    HW185000   5.783   0.840   7.699
94389SOL    HW285001   5.720   0.881   7.568
94390SOL     OW85002  10.478   0.651   9.676
94390SOL    HW185003  10.481   0.565   9.634
94390SOL    HW285004  10.490   0.713   9.605
94391SOL     OW85005   2.040   9.176   0.565
94391SOL    HW185006   2.114   9.141   0.615
94391SOL    HW285007   2.077   9.247   0.513
94392SOL     OW85008   7.649  12.614   9.879
94392SOL    HW185009   7.707  12.539   9.889
94392SOL    HW285010   7.706  12.685   9.850
94393SOL     OW85011   3.011   0.872  13.333
94393SOL    HW185012   3.065   0.896  13.408
94393SOL    HW285013   3.073   0.835  13.270
94394SOL     OW85014   3.311  10.929  12.823
94394SOL    HW185015   3.351  10.856  12.776
94394SOL    HW285016   3.220  10.902  12.836
94395SOL     OW85017   7.832   6.669   4.321
94395SOL    HW185018   7.850   6.752   4.278
94395SOL    HW285019   7.768   6.626   4.264
94396SOL     OW85020   9.846   8.019  12.759
94396SOL    HW185021   9.914   8.043  12.822
94396SOL    HW285022   9.887   7.953  12.703
94397SOL     OW85023   3.901  11.094   6.817
94397SOL    HW185024   3.935  11.172   6.860
94397SOL    HW285025   3.878  11.123   6.729
94398SOL     OW85026   9.167  11.609   4.186
94398SOL    HW185027   9.152  11.592   4.093
94398SOL    HW285028   9.079  11.611   4.224
94399SOL     OW85029   9.906  13.182  11.123
94399SOL    HW185030   9.870  13.150  11.040
94399SOL    HW285031   9.896  13.277  11.119
94400SOL     OW85032  11.371   8.117  14.276
94400SOL    HW185033  11.301   8.136  14.338
94400SOL    HW285034  11.373   8.022  14.271
94401SOL     OW85035  14.064   0.738  12.794
94401SOL    HW185036  14.146   0.785  12.778
94401SOL    HW285037  14.016   0.794  12.855
94402SOL     OW85038   9.696   6.225  10.513
94402SOL    HW185039   9.716   6.248  10.422
94402SOL    HW285040   9.601   6.231  10.519
94403SOL     OW85041   2.274   4.420  11.906
94403SOL    HW185042   2.365   4.410  11.878
94403SOL    HW285043   2.223   4.411  11.826
94404SOL     OW85044   3.224  11.603   0.971
94404SOL    HW185045   3.276  11.572   1.045
94404SOL    HW285046   3.287  11.644   0.913
94405SOL     OW85047   5.044  14.631   0.363
94405SOL    HW185048   4.987  14.604   0.435
94405SOL    HW285049   5.034  14.726   0.358
94406SOL     OW85050  13.318   4.688   5.582
94406SOL    HW185051  13.237   4.652   5.546
94406SOL    HW285052  13.364   4.613   5.620
94407SOL     OW85053  10.551   6.026   8.361
94407SOL    HW185054  10.593   6.111   8.372
94407SOL    HW285055  10.585   5.994   8.277
94408SOL     OW85056   7.509   2.718  12.066
94408SOL    HW185057   7.416   2.739  12.074
94408SOL    HW285058   7.549   2.799  12.033
94409SOL     OW85059  11.044  12.827   2.995
94409SOL    HW185060  10.991  12.835   3.074
94409SOL    HW285061  11.105  12.901   3.000
94410SOL     OW85062   5.803  10.006   5.610
94410SOL    HW185063   5.860  10.065   5.659
94410SOL    HW285064   5.847   9.921   5.615
94411SOL     OW85065  12.420  12.102   2.294
94411SOL    HW185066  12.400  12.044   2.368
94411SOL    HW285067  12.494  12.060   2.250
94412SOL     OW85068   4.827   2.376   9.788
94412SOL    HW185069   4.869   2.344   9.708
94412SOL    HW285070   4.860   2.465   9.798
94413SOL     OW85071   0.472   6.153   0.939
94413SOL    HW185072   0.471   6.072   0.888
94413SOL    HW285073   0.538   6.137   1.007
94414SOL     OW85074   6.365   8.792  12.609
94414SOL    HW185075   6.445   8.822  12.653
94414SOL    HW285076   6.376   8.697  12.604
94415SOL     OW85077  11.556  11.683  14.637
94415SOL    HW185078  11.509  11.600  14.641
94415SOL    HW285079  11.528  11.723  14.555
94416SOL     OW85080  13.912   1.863   1.955
94416SOL    HW185081  13.832   1.834   1.910
94416SOL    HW285082  13.980   1.858   1.889
94417SOL     OW85083  10.237   1.690  10.626
94417SOL    HW185084  10.313   1.680  10.569
94417SOL    HW285085  10.238   1.782  10.652
94418SOL     OW85086  13.766   7.846   1.393
94418SOL    HW185087  13.809   7.839   1.307
94418SOL    HW285088  13.820   7.908   1.442
94419SOL     OW85089   8.894   5.646  10.485
94419SOL    HW185090   8.851   5.703  10.422
94419SOL    HW285091   8.956   5.594  10.433
94420SOL     OW85092   7.440  10.389   9.890
94420SOL    HW185093   7.435  10.326   9.962
94420SOL    HW285094   7.379  10.356   9.825
94421SOL     OW85095  12.041   5.648  10.146
94421SOL    HW185096  12.080   5.692  10.070
94421SOL    HW285097  11.965   5.701  10.168
94422SOL     OW85098   4.973  11.814  13.861
94422SOL    HW185099   5.000  11.903  13.884
94422SOL    HW285100   5.036  11.786  13.794
94423SOL     OW85101   0.735   2.224  10.749
94423SOL    HW185102   0.645   2.229  10.780
94423SOL    HW285103   0.737   2.280  10.672
94424SOL     OW85104   4.119  11.981   9.632
94424SOL    HW185105   4.041  11.926   9.639
94424SOL    HW285106   4.094  12.063   9.675
94425SOL     OW85107   0.269   2.821   7.640
94425SOL    HW185108   0.294   2.838   7.550
94425SOL    HW285109   0.288   2.903   7.687
94426SOL     OW85110   0.976   3.462   6.329
94426SOL    HW185111   0.908   3.473   6.262
94426SOL    HW285112   1.050   3.513   6.297
94427SOL     OW85113  14.594  10.205   4.161
94427SOL    HW185114  14.678  10.213   4.206
94427SOL    HW285115  14.530  10.191   4.231
94428SOL     OW85116   2.690   1.357   0.043
94428SOL    HW185117   2.600   1.346   0.071
94428SOL    HW285118   2.742   1.310   0.107
94429SOL     OW85119   6.229  11.998   4.364
94429SOL    HW185120   6.246  11.952   4.447
94429SOL    HW285121   6.146  12.042   4.379
94430SOL     OW85122   2.708  13.614  13.396
94430SOL    HW185123   2.787  13.604  13.449
94430SOL    HW285124   2.731  13.575  13.311
94431SOL     OW85125   8.773   5.690   9.382
94431SOL    HW185126   8.737   5.716   9.467
94431SOL    HW285127   8.772   5.770   9.330
94432SOL     OW85128   5.682   9.045   7.140
94432SOL    HW185129   5.763   9.074   7.098
94432SOL    HW285130   5.705   8.963   7.182
94433SOL     OW85131   7.148   1.351   3.172
94433SOL    HW185132   7.166   1.441   3.200
94433SOL    HW285133   7.174   1.349   3.080
94434SOL     OW85134   9.142   1.327   7.759
94434SOL    HW185135   9.236   1.318   7.740
94434SOL    HW285136   9.100   1.326   7.674
94435SOL     OW85137   1.945  13.030  13.192
94435SOL    HW185138   1.888  12.957  13.166
94435SOL    HW285139   1.895  13.108  13.172
94436SOL     OW85140   3.166   7.062  12.761
94436SOL    HW185141   3.215   7.099  12.687
94436SOL    HW285142   3.170   7.130  12.829
94437SOL     OW85143   4.145   9.326   9.730
94437SOL    HW185144   4.126   9.323   9.824
94437SOL    HW285145   4.059   9.325   9.688
94438SOL     OW85146   5.876   3.876   0.916
94438SOL    HW185147   5.850   3.960   0.953
94438SOL    HW285148   5.795   3.838   0.882
94439SOL     OW85149   2.573  10.520  13.188
94439SOL    HW185150   2.522  10.601  13.191
94439SOL    HW285151   2.635  10.533  13.117
94440SOL     OW85152   3.946   9.596  10.356
94440SOL    HW185153   4.025   9.620  10.405
94440SOL    HW285154   3.978   9.544  10.282
94441SOL     OW85155  12.098  11.771   0.300
94441SOL    HW185156  12.040  11.838   0.262
94441SOL    HW285157  12.118  11.712   0.228
94442SOL     OW85158   7.625   7.569   1.050
94442SOL    HW185159   7.644   7.597   0.960
94442SOL    HW285160   7.690   7.614   1.103
94443SOL     OW85161   4.335   4.131  14.509
94443SOL    HW185162   4.393   4.161  14.440
94443SOL    HW285163   4.257   4.100  14.463
94444SOL     OW85164   3.258   2.236  11.561
94444SOL    HW185165   3.183   2.226  11.619
94444SOL    HW285166   3.223   2.284  11.485
94445SOL     OW85167   8.681  12.069   1.102
94445SOL    HW185168   8.753  12.119   1.063
94445SOL    HW285169   8.688  11.982   1.062
94446SOL     OW85170   3.168   9.442   1.020
94446SOL    HW185171   3.139   9.353   1.003
94446SOL    HW285172   3.262   9.434   1.035
94447SOL     OW85173   0.488  10.436   6.526
94447SOL    HW185174   0.451  10.411   6.441
94447SOL    HW285175   0.421  10.490   6.567
94448SOL     OW85176   1.115  10.382   8.272
94448SOL    HW185177   1.079  10.436   8.202
94448SOL    HW285178   1.061  10.303   8.273
94449SOL     OW85179   5.874   6.504   8.130
94449SOL    HW185180   5.923   6.559   8.069
94449SOL    HW285181   5.802   6.560   8.160
94450SOL     OW85182   7.711   9.113   8.890
94450SOL    HW185183   7.691   9.193   8.938
94450SOL    HW285184   7.731   9.143   8.801
94451SOL     OW85185   2.763   2.295   3.267
94451SOL    HW185186   2.768   2.370   3.208
94451SOL    HW285187   2.781   2.219   3.211
94452SOL     OW85188   0.833   0.987   8.797
94452SOL    HW185189   0.827   0.927   8.871
94452SOL    HW285190   0.917   1.031   8.809
94453SOL     OW85191  10.500   5.358   1.899
94453SOL    HW185192  10.428   5.407   1.937
94453SOL    HW285193  10.558   5.338   1.972
94454SOL     OW85194  11.681   1.094  12.667
94454SOL    HW185195  11.614   1.044  12.714
94454SOL    HW285196  11.739   1.028  12.631
94455SOL     OW85197   4.576   2.536  10.669
94455SOL    HW185198   4.625   2.552  10.750
94455SOL    HW285199   4.644   2.524  10.603
94456SOL     OW85200  13.137   4.961   3.320
94456SOL    HW185201  13.223   4.918   3.314
94456SOL    HW285202  13.079   4.906   3.267
94457SOL     OW85203   0.413  13.892   6.882
94457SOL    HW185204   0.368  13.921   6.802
94457SOL    HW285205   0.451  13.972   6.918
94458SOL     OW85206   4.736  14.340   6.490
94458SOL    HW185207   4.659  14.283   6.492
94458SOL    HW285208   4.708  14.416   6.439
94459SOL     OW85209   8.659  12.600   7.232
94459SOL    HW185210   8.597  12.537   7.195
94459SOL    HW285211   8.736  12.594   7.177
94460SOL     OW85212  10.410  12.189   9.342
94460SOL    HW185213  10.471  12.187   9.416
94460SOL    HW285214  10.391  12.096   9.326
94461SOL     OW85215  12.671   9.637   4.982
94461SOL    HW185216  12.716   9.557   4.955
94461SOL    HW285217  12.637   9.674   4.900
94462SOL     OW85218  14.342  11.804   2.720
94462SOL    HW185219  14.314  11.754   2.796
94462SOL    HW285220  14.274  11.869   2.707
94463SOL     OW85221   6.858  10.188   5.696
94463SOL    HW185222   6.786  10.197   5.634
94463SOL    HW285223   6.820  10.210   5.781
94464SOL     OW85224  12.779  12.795   8.808
94464SOL    HW185225  12.776  12.700   8.810
94464SOL    HW285226  12.806  12.820   8.896
94465SOL     OW85227   8.311   5.149   5.097
94465SOL    HW185228   8.383   5.154   5.160
94465SOL    HW285229   8.317   5.230   5.047
94466SOL     OW85230   9.600  13.111   7.271
94466SOL    HW185231   9.685  13.125   7.230
94466SOL    HW285232   9.559  13.197   7.272
94467SOL     OW85233   1.487   5.494   7.441
94467SOL    HW185234   1.462   5.462   7.528
94467SOL    HW285235   1.405   5.497   7.392
94468SOL     OW85236   8.521   7.698   5.144
94468SOL    HW185237   8.475   7.704   5.227
94468SOL    HW285238   8.526   7.788   5.111
94469SOL     OW85239  12.177   1.605   8.098
94469SOL    HW185240  12.179   1.696   8.068
94469SOL    HW285241  12.086   1.589   8.122
94470SOL     OW85242  13.507   2.536  14.287
94470SOL    HW185243  13.561   2.615  14.282
94470SOL    HW285244  13.418   2.566  14.272
94471SOL     OW85245   6.655  10.780   2.311
94471SOL    HW185246   6.746  10.804   2.326
94471SOL    HW285247   6.644  10.782   2.216
94472SOL     OW85248  12.977   7.533   9.517
94472SOL    HW185249  13.065   7.521   9.554
94472SOL    HW285250  12.992   7.543   9.423
94473SOL     OW85251   7.982  14.630   6.671
94473SOL    HW185252   7.889  14.612   6.683
94473SOL    HW285253   7.984  14.720   6.636
94474SOL     OW85254   7.917  14.362  14.067
94474SOL    HW185255   7.896  14.287  14.122
94474SOL    HW285256   7.832  14.396  14.038
94475SOL     OW85257   2.068   4.459   5.103
94475SOL    HW185258   2.046   4.379   5.057
94475SOL    HW285259   2.127   4.431   5.174
94476SOL     OW85260  10.221   8.175   4.509
94476SOL    HW185261  10.157   8.114   4.472
94476SOL    HW285262  10.297   8.120   4.529
94477SOL     OW85263   1.259   5.477  14.280
94477SOL    HW185264   1.260   5.467  14.184
94477SOL    HW285265   1.204   5.553  14.296
94478SOL     OW85266  13.115  12.994  13.529
94478SOL    HW185267  13.034  13.045  13.525
94478SOL    HW285268  13.135  12.973  13.438
94479SOL     OW85269   4.082  14.148  10.574
94479SOL    HW185270   4.113  14.151  10.665
94479SOL    HW285271   4.154  14.107  10.526
94480SOL     OW85272  12.828  12.789   1.211
94480SOL    HW185273  12.760  12.850   1.181
94480SOL    HW285274  12.903  12.845   1.231
94481SOL     OW85275   1.039   5.206   8.859
94481SOL    HW185276   1.001   5.294   8.869
94481SOL    HW285277   1.096   5.197   8.935
94482SOL     OW85278   7.794   0.612  14.613
94482SOL    HW185279   7.710   0.644  14.647
94482SOL    HW285280   7.856   0.629  14.684
94483SOL     OW85281  12.830   4.054  10.689
94483SOL    HW185282  12.787   4.036  10.773
94483SOL    HW285283  12.912   4.097  10.713
94484SOL     OW85284   3.601   1.516  12.107
94484SOL    HW185285   3.517   1.507  12.153
94484SOL    HW285286   3.596   1.452  12.035
94485SOL     OW85287  12.779   3.056   0.557
94485SOL    HW185288  12.723   3.073   0.481
94485SOL    HW285289  12.846   3.125   0.552
94486SOL     OW85290   6.119   6.876   0.035
94486SOL    HW185291   6.123   6.891   0.129
94486SOL    HW285292   6.166   6.950  14.875
94487SOL     OW85293   1.739   1.600  14.064
94487SOL    HW185294   1.776   1.667  14.006
94487SOL    HW285295   1.757   1.517  14.019
94488SOL     OW85296   5.855   6.468  13.359
94488SOL    HW185297   5.781   6.486  13.301
94488SOL    HW285298   5.931   6.503  13.312
94489SOL     OW85299   4.464  14.197  13.716
94489SOL    HW185300   4.408  14.136  13.667
94489SOL    HW285301   4.430  14.193  13.805
94490SOL     OW85302   1.936   6.194   1.692
94490SOL    HW185303   1.967   6.252   1.761
94490SOL    HW285304   2.013   6.178   1.637
94491SOL     OW85305   3.463   9.720  12.140
94491SOL    HW185306   3.510   9.646  12.178
94491SOL    HW285307   3.519   9.749  12.068
94492SOL     OW85308   2.567   1.072   4.991
94492SOL    HW185309   2.527   1.152   4.957
94492SOL    HW285310   2.505   1.040   5.057
94493SOL     OW85311   7.658   1.071   4.010
94493SOL    HW185312   7.596   1.066   3.937
94493SOL    HW285313   7.737   1.108   3.971
94494SOL     OW85314   4.269  11.020  14.750
94494SOL    HW185315   4.204  11.043  14.818
94494SOL    HW285316   4.220  10.967  14.688
94495SOL     OW85317   2.313   4.771   0.938
94495SOL    HW185318   2.295   4.725   0.856
94495SOL    HW285319   2.250   4.843   0.940
94496SOL     OW85320   5.992  11.422   3.233
94496SOL    HW185321   6.070  11.470   3.259
94496SOL    HW285322   5.990  11.346   3.292
94497SOL     OW85323   8.996   4.118   5.995
94497SOL    HW185324   8.962   4.103   5.907
94497SOL    HW285325   9.089   4.136   5.983
94498SOL     OW85326   6.129   6.670   6.966
94498SOL    HW185327   6.136   6.765   6.960
94498SOL    HW285328   6.048   6.655   7.015
94499SOL     OW85329   6.795  10.802   1.516
94499SOL    HW185330   6.865  10.796   1.451
94499SOL    HW285331   6.779  10.711   1.541
94500SOL     OW85332   0.439   0.583   1.028
94500SOL    HW185333   0.385   0.562   0.952
94500SOL    HW285334   0.475   0.499   1.056
94501SOL     OW85335   3.425   9.016  13.079
94501SOL    HW185336   3.447   8.961  13.154
94501SOL    HW285337   3.395   8.955  13.012
94502SOL     OW85338   6.517   4.304  10.496
94502SOL    HW185339   6.563   4.270  10.573
94502SOL    HW285340   6.585   4.350  10.447
94503SOL     OW85341   6.112   6.203   1.496
94503SOL    HW185342   6.075   6.275   1.547
94503SOL    HW285343   6.134   6.241   1.412
94504SOL     OW85344   1.095   0.270   5.693
94504SOL    HW185345   1.016   0.220   5.713
94504SOL    HW285346   1.081   0.355   5.735
94505SOL     OW85347   5.127   0.215   2.034
94505SOL    HW185348   5.079   0.269   1.970
94505SOL    HW285349   5.168   0.279   2.093
94506SOL     OW85350   9.237   2.017  11.264
94506SOL    HW185351   9.226   2.034  11.358
94506SOL    HW285352   9.300   1.945  11.260
94507SOL     OW85353   7.707   4.719   1.959
94507SOL    HW185354   7.793   4.678   1.972
94507SOL    HW285355   7.723   4.785   1.891
94508SOL     OW85356   3.666   1.225   8.682
94508SOL    HW185357   3.750   1.201   8.721
94508SOL    HW285358   3.689   1.273   8.603
94509SOL     OW85359  12.223   1.730   6.845
94509SOL    HW185360  12.208   1.635   6.839
94509SOL    HW285361  12.161   1.759   6.912
94510SOL     OW85362  12.073   9.427  12.527
94510SOL    HW185363  12.125   9.349  12.508
94510SOL    HW285364  12.049   9.417  12.620
94511SOL     OW85365   1.446  12.196   0.241
94511SOL    HW185366   1.487  12.133   0.301
94511SOL    HW285367   1.480  12.281   0.268
94512SOL     OW85368   8.128  11.829   7.381
94512SOL    HW185369   8.131  11.871   7.467
94512SOL    HW285370   8.142  11.736   7.399
94513SOL     OW85371   1.742  10.262   6.959
94513SOL    HW185372   1.708  10.329   7.020
94513SOL    HW285373   1.663  10.223   6.921
94514SOL     OW85374  12.061  11.605  11.432
94514SOL    HW185375  11.995  11.535  11.424
94514SOL    HW285376  12.112  11.581  11.509
94515SOL     OW85377   1.577   3.211   5.602
94515SOL    HW185378   1.513   3.151   5.640
94515SOL    HW285379   1.607   3.264   5.676
94516SOL     OW85380   2.390   4.570  10.849
94516SOL    HW185381   2.370   4.664  10.841
94516SOL    HW285382   2.478   4.567  10.885
94517SOL     OW85383   3.417   5.053   0.279
94517SOL    HW185384   3.354   5.082   0.345
94517SOL    HW285385   3.423   4.958   0.292
94518SOL     OW85386   1.436   9.765   0.645
94518SOL    HW185387   1.494   9.690   0.652
94518SOL    HW285388   1.410   9.785   0.735
94519SOL     OW85389   0.187  10.146   8.140
94519SOL    HW185390   0.226  10.183   8.061
94519SOL    HW285391   0.093  10.154   8.127
94520SOL     OW85392  10.875  13.806   2.757
94520SOL    HW185393  10.966  13.779   2.769
94520SOL    HW285394  10.825  13.751   2.817
94521SOL     OW85395  10.278   5.717   1.590
94521SOL    HW185396  10.230   5.640   1.619
94521SOL    HW285397  10.363   5.684   1.560
94522SOL     OW85398   2.379  13.053   7.064
94522SOL    HW185399   2.313  13.029   6.999
94522SOL    HW285400   2.401  12.971   7.108
94523SOL     OW85401   4.239   8.063  11.313
94523SOL    HW185402   4.158   8.044  11.360
94523SOL    HW285403   4.307   8.016  11.362
94524SOL     OW85404   9.798   2.560   9.179
94524SOL    HW185405   9.803   2.518   9.265
94524SOL    HW285406   9.825   2.492   9.117
94525SOL     OW85407   0.811   1.282   4.295
94525SOL    HW185408   0.813   1.316   4.206
94525SOL    HW285409   0.899   1.296   4.329
94526SOL     OW85410   9.728  10.332  10.656
94526SOL    HW185411   9.794  10.281  10.703
94526SOL    HW285412   9.650  10.327  10.711
94527SOL     OW85413   7.117   5.869  12.147
94527SOL    HW185414   7.066   5.805  12.195
94527SOL    HW285415   7.052   5.926  12.105
94528SOL     OW85416   0.677  10.009  13.209
94528SOL    HW185417   0.687   9.962  13.126
94528SOL    HW285418   0.763  10.046  13.226
94529SOL     OW85419  10.231  14.445   0.355
94529SOL    HW185420  10.274  14.486   0.430
94529SOL    HW285421  10.138  14.461   0.368
94530SOL     OW85422   6.964  11.683   6.080
94530SOL    HW185423   6.883  11.633   6.067
94530SOL    HW285424   7.016  11.665   6.001
94531SOL     OW85425   3.433   3.401  13.233
94531SOL    HW185426   3.437   3.493  13.205
94531SOL    HW285427   3.368   3.399  13.303
94532SOL     OW85428  10.816   2.536  13.852
94532SOL    HW185429  10.841   2.589  13.928
94532SOL    HW285430  10.879   2.463  13.854
94533SOL     OW85431   3.916   5.414   2.173
94533SOL    HW185432   3.858   5.371   2.109
94533SOL    HW285433   3.951   5.342   2.225
94534SOL     OW85434  14.364  12.517   8.863
94534SOL    HW185435  14.455  12.547   8.862
94534SOL    HW285436  14.315  12.588   8.820
94535SOL     OW85437   0.084  14.170  11.781
94535SOL    HW185438   0.124  14.109  11.843
94535SOL    HW285439   0.006  14.124  11.750
94536SOL     OW85440  10.498   6.500   7.674
94536SOL    HW185441  10.475   6.442   7.601
94536SOL    HW285442  10.564   6.559   7.638
94537SOL     OW85443  12.511   1.994  13.616
94537SOL    HW185444  12.514   2.001  13.712
94537SOL    HW285445  12.432   1.943  13.598
94538SOL     OW85446   1.526   5.407   3.701
94538SOL    HW185447   1.542   5.377   3.611
94538SOL    HW285448   1.468   5.341   3.739
94539SOL     OW85449   1.522   4.128   3.344
94539SOL    HW185450   1.448   4.123   3.284
94539SOL    HW285451   1.539   4.221   3.354
94540SOL     OW85452   3.508   0.824   4.989
94540SOL    HW185453   3.517   0.912   5.026
94540SOL    HW285454   3.516   0.766   5.064
94541SOL     OW85455   6.601   8.735   3.605
94541SOL    HW185456   6.518   8.701   3.638
94541SOL    HW285457   6.581   8.825   3.578
94542SOL     OW85458   3.804   6.089  14.797
94542SOL    HW185459   3.846   6.009  14.827
94542SOL    HW285460   3.874   6.154  14.795
94543SOL     OW85461   0.633   5.454   4.709
94543SOL    HW185462   0.557   5.410   4.673
94543SOL    HW285463   0.665   5.395   4.778
94544SOL     OW85464   2.227   9.662  11.948
94544SOL    HW185465   2.295   9.729  11.962
94544SOL    HW285466   2.258   9.586  11.997
94545SOL     OW85467   4.923   7.929   3.643
94545SOL    HW185468   5.019   7.935   3.636
94545SOL    HW285469   4.894   8.020   3.652
94546SOL     OW85470   3.640   4.407  12.462
94546SOL    HW185471   3.595   4.393  12.546
94546SOL    HW285472   3.690   4.487  12.475
94547SOL     OW85473   0.267   1.886   9.977
94547SOL    HW185474   0.358   1.904  10.003
94547SOL    HW285475   0.245   1.805  10.022
94548SOL     OW85476   1.203   0.601   5.802
94548SOL    HW185477   1.120   0.575   5.841
94548SOL    HW285478   1.182   0.680   5.751
94549SOL     OW85479  13.001   4.060   5.022
94549SOL    HW185480  12.961   4.009   5.093
94549SOL    HW285481  12.937   4.059   4.952
94550SOL     OW85482  11.823   6.038  12.927
94550SOL    HW185483  11.811   5.977  13.001
94550SOL    HW285484  11.747   6.096  12.931
94551SOL     OW85485  12.355   0.700   0.988
94551SOL    HW185486  12.361   0.606   1.003
94551SOL    HW285487  12.390   0.740   1.067
94552SOL     OW85488   6.845   2.239   4.940
94552SOL    HW185489   6.786   2.229   4.866
94552SOL    HW285490   6.876   2.150   4.959
94553SOL     OW85491   7.658   1.396   9.575
94553SOL    HW185492   7.675   1.462   9.642
94553SOL    HW285493   7.610   1.444   9.507
94554SOL     OW85494   5.797   7.657  14.126
94554SOL    HW185495   5.794   7.612  14.042
94554SOL    HW285496   5.886   7.643  14.158
94555SOL     OW85497   9.350   7.156   5.490
94555SOL    HW185498   9.319   7.123   5.406
94555SOL    HW285499   9.445   7.165   5.479
94556SOL     OW85500   0.277   1.402  10.070
94556SOL    HW185501   0.325   1.422   9.990
94556SOL    HW285502   0.212   1.336  10.043
94557SOL     OW85503   8.453   8.999   5.188
94557SOL    HW185504   8.519   8.979   5.255
94557SOL    HW285505   8.369   8.986   5.232
94558SOL     OW85506   4.043  11.672   7.105
94558SOL    HW185507   3.993  11.597   7.136
94558SOL    HW285508   3.993  11.707   7.032
94559SOL     OW85509  14.731   9.071   7.136
94559SOL    HW185510  14.779   9.027   7.066
94559SOL    HW285511  14.788   9.063   7.213
94560SOL     OW85512   5.703  11.166  12.833
94560SOL    HW185513   5.741  11.212  12.758
94560SOL    HW285514   5.769  11.102  12.859
94561SOL     OW85515  10.609   0.129   4.469
94561SOL    HW185516  10.552   0.194   4.510
94561SOL    HW285517  10.571   0.114   4.382
94562SOL     OW85518  13.179  13.683  10.814
94562SOL    HW185519  13.086  13.665  10.831
94562SOL    HW285520  13.180  13.730  10.731
94563SOL     OW85521  12.266   8.920   0.010
94563SOL    HW185522  12.237   8.861   0.080
94563SOL    HW285523  12.187   8.969  14.866
94564SOL     OW85524   5.961   6.232   7.416
94564SOL    HW185525   6.034   6.195   7.465
94564SOL    HW285526   5.981   6.214   7.325
94565SOL     OW85527   8.691  13.718   6.656
94565SOL    HW185528   8.719  13.641   6.706
94565SOL    HW285529   8.758  13.784   6.675
94566SOL     OW85530   1.978   7.549   6.781
94566SOL    HW185531   1.947   7.518   6.866
94566SOL    HW285532   1.901   7.587   6.740
94567SOL     OW85533  14.065  13.862   7.028
94567SOL    HW185534  14.049  13.821   6.944
94567SOL    HW285535  14.155  13.839   7.050
94568SOL     OW85536  12.620   2.333   4.562
94568SOL    HW185537  12.650   2.408   4.613
94568SOL    HW285538  12.597   2.267   4.627
94569SOL     OW85539   0.931  10.379   3.187
94569SOL    HW185540   0.925  10.348   3.277
94569SOL    HW285541   0.968  10.467   3.194
94570SOL     OW85542   1.409  13.372   5.749
94570SOL    HW185543   1.457  13.368   5.666
94570SOL    HW285544   1.319  13.349   5.725
94571SOL     OW85545   6.354   1.352   1.022
94571SOL    HW185546   6.363   1.447   1.028
94571SOL    HW285547   6.428   1.325   0.967
94572SOL     OW85548   7.805  14.426   0.064
94572SOL    HW185549   7.747  14.396   0.134
94572SOL    HW285550   7.757  14.407  14.862
94573SOL     OW85551   4.635  11.050   8.785
94573SOL    HW185552   4.652  11.079   8.875
94573SOL    HW285553   4.667  10.960   8.783
94574SOL     OW85554  11.971  14.718  14.000
94574SOL    HW185555  12.002  14.776  13.930
94574SOL    HW285556  11.994  14.764  14.080
94575SOL     OW85557  14.345  11.390  13.246
94575SOL    HW185558  14.434  11.411  13.218
94575SOL    HW285559  14.341  11.417  13.338
94576SOL     OW85560   5.732   9.372   4.832
94576SOL    HW185561   5.775   9.351   4.915
94576SOL    HW285562   5.720   9.466   4.834
94577SOL     OW85563   8.763  11.009  10.547
94577SOL    HW185564   8.753  10.925  10.590
94577SOL    HW285565   8.787  10.987  10.457
94578SOL     OW85566   5.484   9.398   6.725
94578SOL    HW185567   5.389   9.408   6.724
94578SOL    HW285568   5.503   9.339   6.652
94579SOL     OW85569   1.863   3.172   8.665
94579SOL    HW185570   1.912   3.245   8.703
94579SOL    HW285571   1.926   3.127   8.609
94580SOL     OW85572   4.758   2.242   5.837
94580SOL    HW185573   4.817   2.310   5.869
94580SOL    HW285574   4.702   2.221   5.913
94581SOL     OW85575  14.460   7.980  11.087
94581SOL    HW185576  14.439   8.071  11.107
94581SOL    HW285577  14.553   7.972  11.106
94582SOL     OW85578   1.657   4.538  13.530
94582SOL    HW185579   1.692   4.534  13.441
94582SOL    HW285580   1.571   4.496  13.524
94583SOL     OW85581   0.512   8.468   4.215
94583SOL    HW185582   0.439   8.514   4.258
94583SOL    HW285583   0.590   8.514   4.247
94584SOL     OW85584   6.269  12.718   0.567
94584SOL    HW185585   6.292  12.744   0.478
94584SOL    HW285586   6.275  12.623   0.566
94585SOL     OW85587   3.378  11.969   1.231
94585SOL    HW185588   3.364  12.048   1.178
94585SOL    HW285589   3.370  12.000   1.322
94586SOL     OW85590   6.886   2.626  14.379
94586SOL    HW185591   6.928   2.688  14.439
94586SOL    HW285592   6.798   2.616  14.414
94587SOL     OW85593  13.218   5.864   9.330
94587SOL    HW185594  13.139   5.918   9.327
94587SOL    HW285595  13.289   5.926   9.314
94588SOL     OW85596  13.971   7.197   3.364
94588SOL    HW185597  13.978   7.203   3.269
94588SOL    HW285598  13.877   7.195   3.381
94589SOL     OW85599   8.496   1.950   0.806
94589SOL    HW185600   8.453   1.947   0.892
94589SOL    HW285601   8.577   1.999   0.822
94590SOL     OW85602   3.965   7.011   5.458
94590SOL    HW185603   4.008   6.936   5.500
94590SOL    HW285604   4.013   7.024   5.377
94591SOL     OW85605   0.965   2.657  11.333
94591SOL    HW185606   0.895   2.669  11.268
94591SOL    HW285607   0.984   2.745  11.365
94592SOL     OW85608   9.528   2.198   7.563
94592SOL    HW185609   9.559   2.210   7.653
94592SOL    HW285610   9.443   2.242   7.561
94593SOL     OW85611   4.967   9.853   4.320
94593SOL    HW185612   4.975   9.943   4.353
94593SOL    HW285613   5.058   9.825   4.306
94594SOL     OW85614   4.418   2.472   7.995
94594SOL    HW185615   4.448   2.496   8.082
94594SOL    HW285616   4.498   2.468   7.942
94595SOL     OW85617   5.229   6.508   6.766
94595SOL    HW185618   5.215   6.602   6.749
94595SOL    HW285619   5.246   6.504   6.861
94596SOL     OW85620  14.483   3.465   0.654
94596SOL    HW185621  14.409   3.527   0.654
94596SOL    HW285622  14.449   3.389   0.701
94597SOL     OW85623   1.782   8.253  10.683
94597SOL    HW185624   1.792   8.163  10.717
94597SOL    HW285625   1.774   8.307  10.762
94598SOL     OW85626   1.569   8.287   4.926
94598SOL    HW185627   1.607   8.244   4.850
94598SOL    HW285628   1.475   8.280   4.913
94599SOL     OW85629  11.399   8.981   8.596
94599SOL    HW185630  11.441   8.897   8.614
94599SOL    HW285631  11.416   8.998   8.504
94600SOL     OW85632   4.572  12.472   9.752
94600SOL    HW185633   4.589  12.553   9.704
94600SOL    HW285634   4.529  12.500   9.832
94601SOL     OW85635  11.062   8.114   2.988
94601SOL    HW185636  11.156   8.106   3.005
94601SOL    HW285637  11.033   8.024   2.974
94602SOL     OW85638  11.033  13.556   6.192
94602SOL    HW185639  11.094  13.627   6.214
94602SOL    HW285640  10.972  13.595   6.130
94603SOL     OW85641   9.029   5.817   8.901
94603SOL    HW185642   9.083   5.892   8.927
94603SOL    HW285643   8.962   5.855   8.844
94604SOL     OW85644   9.071   2.111  11.054
94604SOL    HW185645   9.116   2.082  11.133
94604SOL    HW285646   9.021   2.188  11.081
94605SOL     OW85647  12.719   9.672   1.334
94605SOL    HW185648  12.656   9.604   1.308
94605SOL    HW285649  12.732   9.724   1.254
94606SOL     OW85650  14.463  12.725   0.667
94606SOL    HW185651  14.367  12.728   0.663
94606SOL    HW285652  14.483  12.689   0.754
94607SOL     OW85653  11.498   6.349   9.078
94607SOL    HW185654  11.511   6.274   9.136
94607SOL    HW285655  11.554   6.331   9.002
94608SOL     OW85656   2.845   4.512   9.564
94608SOL    HW185657   2.788   4.476   9.632
94608SOL    HW285658   2.790   4.574   9.517
94609SOL     OW85659  14.376   6.475  13.996
94609SOL    HW185660  14.368   6.471  13.901
94609SOL    HW285661  14.290   6.503  14.027
94610SOL     OW85662   2.052   1.911   5.964
94610SOL    HW185663   1.993   1.980   5.997
94610SOL    HW285664   2.002   1.867   5.896
94611SOL     OW85665   0.781   8.372   7.263
94611SOL    HW185666   0.794   8.333   7.350
94611SOL    HW285667   0.689   8.400   7.263
94612SOL     OW85668   0.027   1.808  12.828
94612SOL    HW185669  14.867   1.722  12.843
94612SOL    HW285670  14.831   1.866  12.811
94613SOL     OW85671   3.002  10.436   3.019
94613SOL    HW185672   3.032  10.377   3.088
94613SOL    HW285673   2.914  10.405   2.996
94614SOL     OW85674  12.154   6.548  11.412
94614SOL    HW185675  12.218   6.568  11.344
94614SOL    HW285676  12.192   6.583  11.492
94615SOL     OW85677   4.098  13.214   6.201
94615SOL    HW185678   4.090  13.135   6.253
94615SOL    HW285679   4.180  13.253   6.229
94616SOL     OW85680   5.574  13.713   5.543
94616SOL    HW185681   5.669  13.699   5.536
94616SOL    HW285682   5.562  13.803   5.512
94617SOL     OW85683   4.341   7.511   2.353
94617SOL    HW185684   4.304   7.447   2.292
94617SOL    HW285685   4.266   7.542   2.404
94618SOL     OW85686   0.619   8.447   6.341
94618SOL    HW185687   0.627   8.511   6.412
94618SOL    HW285688   0.649   8.365   6.380
94619SOL     OW85689   7.868   8.202   5.224
94619SOL    HW185690   7.866   8.178   5.317
94619SOL    HW285691   7.927   8.277   5.220
94620SOL     OW85692  14.085  13.036   7.602
94620SOL    HW185693  14.027  13.035   7.678
94620SOL    HW285694  14.115  13.127   7.596
94621SOL     OW85695  13.769   1.039   3.661
94621SOL    HW185696  13.827   0.997   3.598
94621SOL    HW285697  13.820   1.111   3.698
94622SOL     OW85698   8.175   9.594   4.351
94622SOL    HW185699   8.238   9.659   4.384
94622SOL    HW285700   8.113   9.582   4.423
94623SOL     OW85701   1.725  14.721  11.810
94623SOL    HW185702   1.713  14.766  11.727
94623SOL    HW285703   1.743  14.630  11.786
94624SOL     OW85704  10.008   6.066   0.363
94624SOL    HW185705   9.958   6.004   0.416
94624SOL    HW285706  10.058   6.118   0.426
94625SOL     OW85707  13.378  12.741   0.904
94625SOL    HW185708  13.403  12.759   0.994
94625SOL    HW285709  13.388  12.646   0.895
94626SOL     OW85710   1.814  14.284   0.855
94626SOL    HW185711   1.904  14.297   0.885
94626SOL    HW285712   1.787  14.202   0.895
94627SOL     OW85713  14.258  12.738   8.773
94627SOL    HW185714  14.314  12.815   8.784
94627SOL    HW285715  14.252  12.727   8.678
94628SOL     OW85716   9.015  11.691   0.756
94628SOL    HW185717   9.032  11.784   0.767
94628SOL    HW285718   9.102  11.652   0.745
94629SOL     OW85719  13.358  13.121   3.139
94629SOL    HW185720  13.410  13.184   3.089
94629SOL    HW285721  13.339  13.166   3.221
94630SOL     OW85722  13.512   5.164   1.414
94630SOL    HW185723  13.549   5.170   1.502
94630SOL    HW285724  13.570   5.105   1.367
94631SOL     OW85725   6.307  11.808  14.646
94631SOL    HW185726   6.272  11.800  14.557
94631SOL    HW285727   6.401  11.821  14.633
94632SOL     OW85728   1.006  11.557   4.012
94632SOL    HW185729   0.960  11.615   3.952
94632SOL    HW285730   1.096  11.555   3.980
94633SOL     OW85731  14.388   3.839   8.153
94633SOL    HW185732  14.411   3.888   8.232
94633SOL    HW285733  14.469   3.796   8.127
94634SOL     OW85734   6.604   8.330   6.204
94634SOL    HW185735   6.663   8.397   6.239
94634SOL    HW285736   6.561   8.293   6.281
94635SOL     OW85737   5.702   8.731   1.219
94635SOL    HW185738   5.627   8.687   1.260
94635SOL    HW285739   5.736   8.788   1.288
94636SOL     OW85740   2.528   1.896  13.921
94636SOL    HW185741   2.528   1.830  13.852
94636SOL    HW285742   2.589   1.862  13.987
94637SOL     OW85743   2.954   4.785   9.616
94637SOL    HW185744   2.891   4.759   9.683
94637SOL    HW285745   2.988   4.702   9.582
94638SOL     OW85746   6.593  11.819  13.720
94638SOL    HW185747   6.608  11.724  13.714
94638SOL    HW285748   6.501  11.829  13.696
94639SOL     OW85749   4.858  11.004  14.231
94639SOL    HW185750   4.804  11.024  14.307
94639SOL    HW285751   4.849  11.081  14.175
94640SOL     OW85752   1.833   5.421  14.364
94640SOL    HW185753   1.919   5.453  14.392
94640SOL    HW285754   1.777   5.498  14.367
94641SOL     OW85755   5.489   8.115   3.738
94641SOL    HW185756   5.457   8.025   3.731
94641SOL    HW285757   5.581   8.110   3.711
94642SOL     OW85758  13.231  13.093   3.994
94642SOL    HW185759  13.219  13.012   4.044
94642SOL    HW285760  13.244  13.064   3.903
94643SOL     OW85761   3.502  12.013  11.220
94643SOL    HW185762   3.473  11.932  11.262
94643SOL    HW285763   3.479  12.003  11.128
94644SOL     OW85764   7.546   3.701   6.318
94644SOL    HW185765   7.560   3.687   6.224
94644SOL    HW285766   7.557   3.614   6.357
94645SOL     OW85767   9.581   7.364   5.396
94645SOL    HW185768   9.565   7.431   5.330
94645SOL    HW285769   9.675   7.368   5.413
94646SOL     OW85770   9.455   4.372   4.726
94646SOL    HW185771   9.506   4.416   4.658
94646SOL    HW285772   9.510   4.298   4.752
94647SOL     OW85773   7.277   7.069  12.103
94647SOL    HW185774   7.197   7.071  12.051
94647SOL    HW285775   7.313   7.157  12.097
94648SOL     OW85776   2.880   8.115   0.063
94648SOL    HW185777   2.905   8.048   0.127
94648SOL    HW285778   2.940   8.187   0.078
94649SOL     OW85779  11.812  11.931   8.740
94649SOL    HW185780  11.747  11.998   8.719
94649SOL    HW285781  11.882  11.979   8.785
94650SOL     OW85782   0.824  13.557   7.234
94650SOL    HW185783   0.752  13.594   7.184
94650SOL    HW285784   0.787  13.481   7.278
94651SOL     OW85785  12.956  10.872   9.695
94651SOL    HW185786  12.969  10.871   9.601
94651SOL    HW285787  12.982  10.960   9.722
94652SOL     OW85788  12.562   6.899  13.120
94652SOL    HW185789  12.598   6.840  13.054
94652SOL    HW285790  12.467   6.887  13.114
94653SOL     OW85791   0.999   4.427  14.405
94653SOL    HW185792   1.054   4.435  14.484
94653SOL    HW285793   1.022   4.504  14.353
94654SOL     OW85794   2.764  12.227   5.188
94654SOL    HW185795   2.672  12.239   5.211
94654SOL    HW285796   2.763  12.166   5.114
94655SOL     OW85797   0.326   2.762  11.107
94655SOL    HW185798   0.334   2.720  11.021
94655SOL    HW285799   0.352   2.695  11.170
94656SOL     OW85800   4.902   5.883   3.119
94656SOL    HW185801   4.982   5.931   3.103
94656SOL    HW285802   4.872   5.914   3.204
94657SOL     OW85803   0.467   8.799   3.963
94657SOL    HW185804   0.520   8.734   3.917
94657SOL    HW285805   0.377   8.767   3.952
94658SOL     OW85806   1.873  13.715  13.287
94658SOL    HW185807   1.937  13.656  13.327
94658SOL    HW285808   1.848  13.672  13.206
94659SOL     OW85809  13.744   2.822  13.200
94659SOL    HW185810  13.719   2.731  13.182
94659SOL    HW285811  13.838   2.818  13.214
94660SOL     OW85812  13.299  11.670   7.219
94660SOL    HW185813  13.228  11.708   7.167
94660SOL    HW285814  13.262  11.658   7.306
94661SOL     OW85815   4.687   2.076   6.431
94661SOL    HW185816   4.658   2.130   6.505
94661SOL    HW285817   4.690   1.987   6.466
94662SOL     OW85818  11.498   3.626   1.277
94662SOL    HW185819  11.417   3.613   1.228
94662SOL    HW285820  11.565   3.637   1.209
94663SOL     OW85821  14.801   5.443   6.308
94663SOL    HW185822  14.762   5.361   6.336
94663SOL    HW285823  14.812   5.434   6.213
94664SOL     OW85824  11.301   1.758   9.049
94664SOL    HW185825  11.294   1.671   9.088
94664SOL    HW285826  11.292   1.818   9.124
94665SOL     OW85827   8.606  14.380   1.490
94665SOL    HW185828   8.562  14.428   1.420
94665SOL    HW285829   8.655  14.447   1.537
94666SOL     OW85830   3.174   4.564   8.996
94666SOL    HW185831   3.131   4.510   8.929
94666SOL    HW285832   3.207   4.501   9.060
94667SOL     OW85833   3.675   8.813  12.296
94667SOL    HW185834   3.712   8.881  12.352
94667SOL    HW285835   3.644   8.746  12.357
94668SOL     OW85836   9.197   4.378  11.440
94668SOL    HW185837   9.119   4.429  11.419
94668SOL    HW285838   9.209   4.320  11.365
94669SOL     OW85839  14.295   5.628   4.817
94669SOL    HW185840  14.253   5.603   4.900
94669SOL    HW285841  14.229   5.609   4.751
94670SOL     OW85842   4.035   0.288   2.991
94670SOL    HW185843   3.976   0.213   2.981
94670SOL    HW285844   4.020   0.341   2.913
94671SOL     OW85845   8.248   6.821   7.796
94671SOL    HW185846   8.167   6.789   7.757
94671SOL    HW285847   8.288   6.875   7.728
94672SOL     OW85848   5.153  14.825   2.125
94672SOL    HW185849   5.154   0.042   2.118
94672SOL    HW285850   5.086  14.797   2.063
94673SOL     OW85851  12.307   6.863  12.768
94673SOL    HW185852  12.249   6.788  12.783
94673SOL    HW285853  12.288   6.923  12.840
94674SOL     OW85854  10.579   7.786  13.764
94674SOL    HW185855  10.557   7.795  13.857
94674SOL    HW285856  10.549   7.867  13.724
94675SOL     OW85857  14.530   8.741   4.717
94675SOL    HW185858  14.613   8.727   4.670
94675SOL    HW285859  14.465   8.696   4.664
94676SOL     OW85860   9.538   5.802  10.282
94676SOL    HW185861   9.591   5.866  10.235
94676SOL    HW285862   9.581   5.792  10.367
94677SOL     OW85863  12.104   9.176  11.916
94677SOL    HW185864  12.174   9.111  11.921
94677SOL    HW285865  12.028   9.128  11.882
94678SOL     OW85866   7.828   4.716   4.640
94678SOL    HW185867   7.888   4.642   4.631
94678SOL    HW285868   7.878   4.781   4.689
94679SOL     OW85869  12.755  11.890   0.919
94679SOL    HW185870  12.719  11.802   0.910
94679SOL    HW285871  12.827  11.893   0.856
94680SOL     OW85872   7.171  11.012   5.554
94680SOL    HW185873   7.092  11.043   5.510
94680SOL    HW285874   7.155  11.032   5.646
94681SOL     OW85875   1.657  12.118   6.897
94681SOL    HW185876   1.714  12.141   6.970
94681SOL    HW285877   1.685  12.031   6.870
94682SOL     OW85878  14.187   5.340  12.392
94682SOL    HW185879  14.156   5.362  12.304
94682SOL    HW285880  14.242   5.262  12.379
94683SOL     OW85881   9.835   7.845   0.986
94683SOL    HW185882   9.876   7.914   0.934
94683SOL    HW285883   9.741   7.854   0.967
94684SOL     OW85884  14.668  10.727   0.761
94684SOL    HW185885  14.655  10.653   0.703
94684SOL    HW285886  14.717  10.791   0.709
94685SOL     OW85887   4.609   6.928  10.483
94685SOL    HW185888   4.519   6.920  10.454
94685SOL    HW285889   4.661   6.924  10.403
94686SOL     OW85890   6.641  11.770   8.141
94686SOL    HW185891   6.691  11.718   8.204
94686SOL    HW285892   6.637  11.857   8.180
94687SOL     OW85893  10.353   7.155   1.785
94687SOL    HW185894  10.349   7.223   1.718
94687SOL    HW285895  10.446   7.142   1.802
94688SOL     OW85896   9.157   3.739   3.554
94688SOL    HW185897   9.114   3.789   3.485
94688SOL    HW285898   9.086   3.692   3.598
94689SOL     OW85899   6.027  14.750  10.513
94689SOL    HW185900   5.955  14.736  10.575
94689SOL    HW285901   6.009  14.836  10.475
94690SOL     OW85902  12.077  11.827   5.636
94690SOL    HW185903  12.019  11.799   5.707
94690SOL    HW285904  12.101  11.746   5.591
94691SOL     OW85905   7.272   6.365  12.043
94691SOL    HW185906   7.249   6.326  12.128
94691SOL    HW285907   7.189   6.389  12.004
94692SOL     OW85908   5.561  10.872   2.516
94692SOL    HW185909   5.569  10.802   2.581
94692SOL    HW285910   5.477  10.913   2.536
94693SOL     OW85911   3.604   4.925   9.208
94693SOL    HW185912   3.632   4.974   9.131
94693SOL    HW285913   3.562   4.847   9.172
94694SOL     OW85914   7.193  12.354   2.511
94694SOL    HW185915   7.147  12.378   2.592
94694SOL    HW285916   7.125  12.313   2.457
94695SOL     OW85917   5.702  13.994   8.064
94695SOL    HW185918   5.671  13.939   8.136
94695SOL    HW285919   5.667  13.954   7.985
94696SOL     OW85920  12.756   2.603   2.147
94696SOL    HW185921  12.808   2.684   2.147
94696SOL    HW285922  12.683   2.622   2.089
94697SOL     OW85923   6.123   6.265   9.944
94697SOL    HW185924   6.050   6.326   9.931
94697SOL    HW285925   6.122   6.210   9.866
94698SOL     OW85926  14.521  14.772   3.333
94698SOL    HW185927  14.459  14.845   3.334
94698SOL    HW285928  14.499  14.724   3.253
94699SOL     OW85929  14.152  13.286  14.725
94699SOL    HW185930  14.104  13.329  14.796
94699SOL    HW285931  14.199  13.358  14.682
94700SOL     OW85932  12.054   1.310  11.912
94700SOL    HW185933  12.145   1.336  11.901
94700SOL    HW285934  12.018   1.376  11.972
94701SOL     OW85935  13.486   4.173   5.866
94701SOL    HW185936  13.578   4.168   5.839
94701SOL    HW285937  13.480   4.112   5.940
94702SOL     OW85938  14.414   6.319   3.638
94702SOL    HW185939  14.476   6.313   3.565
94702SOL    HW285940  14.343   6.375   3.605
94703SOL     OW85941  14.819   4.002  11.713
94703SOL    HW185942  14.845   4.044  11.631
94703SOL    HW285943  14.750   4.060  11.748
94704SOL     OW85944   7.775  12.095   1.722
94704SOL    HW185945   7.748  12.062   1.807
94704SOL    HW285946   7.856  12.046   1.703
94705SOL     OW85947  10.093  13.214  10.703
94705SOL    HW185948  10.186  13.228  10.720
94705SOL    HW285949  10.090  13.146  10.636
94706SOL     OW85950  13.127   5.555   3.861
94706SOL    HW185951  13.050   5.561   3.803
94706SOL    HW285952  13.201   5.569   3.802
94707SOL     OW85953   8.601   4.269   8.575
94707SOL    HW185954   8.653   4.311   8.506
94707SOL    HW285955   8.632   4.179   8.577
94708SOL     OW85956   0.211   5.410   3.057
94708SOL    HW185957   0.294   5.402   3.104
94708SOL    HW285958   0.162   5.332   3.084
94709SOL     OW85959   1.657   7.344   2.253
94709SOL    HW185960   1.590   7.292   2.297
94709SOL    HW285961   1.609   7.398   2.191
94710SOL     OW85962   3.802   6.406  13.401
94710SOL    HW185963   3.747   6.473  13.359
94710SOL    HW285964   3.832   6.351  13.329
94711SOL     OW85965   1.304   9.752   4.370
94711SOL    HW185966   1.252   9.693   4.424
94711SOL    HW285967   1.292   9.838   4.410
94712SOL     OW85968  12.580   7.910   3.181
94712SOL    HW185969  12.535   7.895   3.264
94712SOL    HW285970  12.654   7.850   3.182
94713SOL     OW85971   4.990  12.084  14.018
94713SOL    HW185972   4.916  12.095  13.957
94713SOL    HW285973   4.977  12.153  14.083
94714SOL     OW85974  13.327   3.679   4.255
94714SOL    HW185975  13.249   3.642   4.296
94714SOL    HW285976  13.299   3.703   4.167
94715SOL     OW85977  10.467   5.273   3.846
94715SOL    HW185978  10.400   5.338   3.822
94715SOL    HW285979  10.419   5.191   3.853
94716SOL     OW85980  12.121   2.617  10.008
94716SOL    HW185981  12.145   2.640  10.098
94716SOL    HW285982  12.096   2.525  10.012
94717SOL     OW85983   6.953  10.733   5.233
94717SOL    HW185984   7.043  10.705   5.220
94717SOL    HW285985   6.929  10.776   5.151
94718SOL     OW85986   0.402  10.301   0.845
94718SOL    HW185987   0.407  10.289   0.750
94718SOL    HW285988   0.308  10.296   0.865
94719SOL     OW85989   1.926   0.244  12.720
94719SOL    HW185990   1.966   0.201  12.644
94719SOL    HW285991   1.832   0.225  12.711
94720SOL     OW85992   9.729   7.210   2.413
94720SOL    HW185993   9.747   7.296   2.376
94720SOL    HW285994   9.719   7.152   2.337
94721SOL     OW85995   1.703   9.148  12.414
94721SOL    HW185996   1.653   9.067  12.424
94721SOL    HW285997   1.728   9.171  12.504
94722SOL     OW85998   6.443   7.891   8.117
94722SOL    HW185999   6.484   7.830   8.178
94722SOL    HW286000   6.356   7.906   8.152
94723SOL     OW86001   2.855  13.815  11.850
94723SOL    HW186002   2.779  13.778  11.895
94723SOL    HW286003   2.926  13.810  11.914
94724SOL     OW86004   7.231  12.444  12.085
94724SOL    HW186005   7.302  12.434  12.148
94724SOL    HW286006   7.274  12.450  12.000
94725SOL     OW86007   8.531   2.234   9.927
94725SOL    HW186008   8.580   2.316   9.923
94725SOL    HW286009   8.459   2.246   9.864
94726SOL     OW86010   2.920   8.907   5.030
94726SOL    HW186011   2.937   8.871   5.117
94726SOL    HW286012   2.935   8.833   4.970
94727SOL     OW86013  13.417   0.975  11.997
94727SOL    HW186014  13.498   1.025  12.000
94727SOL    HW286015  13.430   0.911  11.927
94728SOL     OW86016  11.526   6.036   3.188
94728SOL    HW186017  11.607   6.041   3.137
94728SOL    HW286018  11.553   6.060   3.277
94729SOL     OW86019   4.617   7.427  14.429
94729SOL    HW186020   4.575   7.364  14.371
94729SOL    HW286021   4.690   7.462  14.378
94730SOL     OW86022   0.363   5.187   4.542
94730SOL    HW186023   0.359   5.092   4.531
94730SOL    HW286024   0.281   5.218   4.504
94731SOL     OW86025  10.682   2.611   2.023
94731SOL    HW186026  10.731   2.666   2.085
94731SOL    HW286027  10.609   2.576   2.074
94732SOL     OW86028  14.450   8.270   4.253
94732SOL    HW186029  14.517   8.284   4.320
94732SOL    HW286030  14.495   8.224   4.183
94733SOL     OW86031   6.293   6.469   7.042
94733SOL    HW186032   6.239   6.546   7.022
94733SOL    HW286033   6.321   6.483   7.133
94734SOL     OW86034   1.378   5.772   9.867
94734SOL    HW186035   1.457   5.792   9.917
94734SOL    HW286036   1.378   5.836   9.796
94735SOL     OW86037   9.095   0.509   1.532
94735SOL    HW186038   9.006   0.541   1.513
94735SOL    HW286039   9.105   0.431   1.477
94736SOL     OW86040   1.755   5.474   8.040
94736SOL    HW186041   1.791   5.429   7.964
94736SOL    HW286042   1.718   5.555   8.005
94737SOL     OW86043  12.431  11.315   2.407
94737SOL    HW186044  12.365  11.245   2.401
94737SOL    HW286045  12.509  11.277   2.366
94738SOL     OW86046  12.624   5.340   3.677
94738SOL    HW186047  12.570   5.404   3.631
94738SOL    HW286048  12.653   5.279   3.609
94739SOL     OW86049  13.070   8.258   4.825
94739SOL    HW186050  13.100   8.262   4.915
94739SOL    HW286051  13.150   8.257   4.773
94740SOL     OW86052   1.228   7.467   4.921
94740SOL    HW186053   1.174   7.441   4.996
94740SOL    HW286054   1.183   7.431   4.845
94741SOL     OW86055  12.588   1.985   4.503
94741SOL    HW186056  12.630   2.025   4.579
94741SOL    HW286057  12.661   1.953   4.450
94742SOL     OW86058  13.621   6.205   6.898
94742SOL    HW186059  13.677   6.234   6.970
94742SOL    HW286060  13.594   6.117   6.923
94743SOL     OW86061  14.600   3.332   6.167
94743SOL    HW186062  14.692   3.305   6.176
94743SOL    HW286063  14.581   3.377   6.249
94744SOL     OW86064   3.673   6.455   6.384
94744SOL    HW186065   3.661   6.550   6.384
94744SOL    HW286066   3.628   6.425   6.305
94745SOL     OW86067   5.345   4.976   0.026
94745SOL    HW186068   5.317   5.026  14.829
94745SOL    HW286069   5.327   4.885   0.004
94746SOL     OW86070   4.075  12.369   8.455
94746SOL    HW186071   3.986  12.359   8.489
94746SOL    HW286072   4.071  12.339   8.364
94747SOL     OW86073   2.704   5.634   3.061
94747SOL    HW186074   2.798   5.648   3.057
94747SOL    HW286075   2.690   5.594   3.147
94748SOL     OW86076   7.088   2.590   7.663
94748SOL    HW186077   7.049   2.617   7.580
94748SOL    HW286078   7.016   2.595   7.726
94749SOL     OW86079   3.961  10.099  10.193
94749SOL    HW186080   4.004  10.181  10.165
94749SOL    HW286081   3.966  10.043  10.115
94750SOL     OW86082   1.958   5.885   4.519
94750SOL    HW186083   1.872   5.922   4.537
94750SOL    HW286084   1.973   5.903   4.426
94751SOL     OW86085   4.158  14.833  12.571
94751SOL    HW186086   4.079  14.833  12.516
94751SOL    HW286087   4.229  14.812  12.510
94752SOL     OW86088   1.821   3.833   3.192
94752SOL    HW186089   1.889   3.853   3.257
94752SOL    HW286090   1.801   3.917   3.152
94753SOL     OW86091   6.342  11.102   1.676
94753SOL    HW186092   6.357  11.196   1.674
94753SOL    HW286093   6.397  11.070   1.748
94754SOL     OW86094   3.601   0.318  12.659
94754SOL    HW186095   3.659   0.388  12.688
94754SOL    HW286096   3.544   0.359  12.595
94755SOL     OW86097  14.790  11.134  11.457
94755SOL    HW186098  14.766  11.147  11.366
94755SOL    HW286099  14.798  11.223  11.492
94756SOL     OW86100  11.506  10.315   2.468
94756SOL    HW186101  11.559  10.242   2.499
94756SOL    HW286102  11.418  10.278   2.457
94757SOL     OW86103   4.378   5.928   6.872
94757SOL    HW186104   4.327   5.866   6.923
94757SOL    HW286105   4.314   5.991   6.839
94758SOL     OW86106   7.858  12.158   7.221
94758SOL    HW186107   7.781  12.207   7.247
94758SOL    HW286108   7.843  12.069   7.254
94759SOL     OW86109   0.896   5.045  12.805
94759SOL    HW186110   0.892   5.104  12.881
94759SOL    HW286111   0.985   5.057  12.771
94760SOL     OW86112   5.351  10.562   8.952
94760SOL    HW186113   5.290  10.553   8.879
94760SOL    HW286114   5.381  10.652   8.948
94761SOL     OW86115   1.659  10.337  11.790
94761SOL    HW186116   1.726  10.269  11.791
94761SOL    HW286117   1.707  10.417  11.767
94762SOL     OW86118   6.722  11.842   1.112
94762SOL    HW186119   6.688  11.829   1.023
94762SOL    HW286120   6.649  11.882   1.159
94763SOL     OW86121   4.434  10.154  12.687
94763SOL    HW186122   4.513  10.119  12.730
94763SOL    HW286123   4.365  10.143  12.752
94764SOL     OW86124   5.006   1.527  12.307
94764SOL    HW186125   5.057   1.471  12.366
94764SOL    HW286126   5.035   1.503  12.219
94765SOL     OW86127  10.769  10.477   2.614
94765SOL    HW186128  10.740  10.390   2.585
94765SOL    HW286129  10.784  10.526   2.533
94766SOL     OW86130   6.434   4.166   0.873
94766SOL    HW186131   6.510   4.180   0.929
94766SOL    HW286132   6.362   4.148   0.934
94767SOL     OW86133   3.986   2.421   2.142
94767SOL    HW186134   3.976   2.389   2.052
94767SOL    HW286135   3.983   2.342   2.196
94768SOL     OW86136   6.786  13.270  14.092
94768SOL    HW186137   6.709  13.248  14.038
94768SOL    HW286138   6.780  13.210  14.167
94769SOL     OW86139   3.745   4.334   0.926
94769SOL    HW186140   3.762   4.337   0.832
94769SOL    HW286141   3.735   4.426   0.952
94770SOL     OW86142  13.235   9.901  11.755
94770SOL    HW186143  13.215   9.993  11.771
94770SOL    HW286144  13.149   9.860  11.741
94771SOL     OW86145   3.837   3.911   5.027
94771SOL    HW186146   3.817   3.823   5.059
94771SOL    HW286147   3.821   3.906   4.932
94772SOL     OW86148  14.561  11.844   5.588
94772SOL    HW186149  14.586  11.861   5.679
94772SOL    HW286150  14.578  11.751   5.575
94773SOL     OW86151   6.136  13.291  10.909
94773SOL    HW186152   6.148  13.206  10.952
94773SOL    HW286153   6.044  13.312  10.923
94774SOL     OW86154   6.998  13.617   2.795
94774SOL    HW186155   7.027  13.549   2.857
94774SOL    HW286156   6.911  13.588   2.768
94775SOL     OW86157   5.134   0.974   8.409
94775SOL    HW186158   5.138   1.055   8.460
94775SOL    HW286159   5.145   0.904   8.474
94776SOL     OW86160   9.279   3.526   8.329
94776SOL    HW186161   9.334   3.467   8.380
94776SOL    HW286162   9.292   3.499   8.238
94777SOL     OW86163  10.310   3.123   3.548
94777SOL    HW186164  10.226   3.167   3.560
94777SOL    HW286165  10.375   3.191   3.564
94778SOL     OW86166  14.384  12.074   7.570
94778SOL    HW186167  14.321  12.008   7.600
94778SOL    HW286168  14.407  12.123   7.649
94779SOL     OW86169   3.629   1.634  14.369
94779SOL    HW186170   3.618   1.682  14.451
94779SOL    HW286171   3.541   1.605  14.346
94780SOL     OW86172   0.563   6.950   0.622
94780SOL    HW186173   0.581   6.926   0.713
94780SOL    HW286174   0.470   6.930   0.610
94781SOL     OW86175   8.085  12.688   3.085
94781SOL    HW186176   8.000  12.651   3.061
94781SOL    HW286177   8.067  12.745   3.160
94782SOL     OW86178   6.324   2.761   9.231
94782SOL    HW186179   6.352   2.670   9.237
94782SOL    HW286180   6.231   2.756   9.208
94783SOL     OW86181   3.738   5.182   2.723
94783SOL    HW186182   3.813   5.198   2.781
94783SOL    HW286183   3.689   5.264   2.725
94784SOL     OW86184  11.359   9.074  11.553
94784SOL    HW186185  11.331   9.038  11.469
94784SOL    HW286186  11.294   9.041  11.616
94785SOL     OW86187   9.061   8.679  10.482
94785SOL    HW186188   8.977   8.706  10.519
94785SOL    HW286189   9.045   8.673  10.388
94786SOL     OW86190   1.280  13.639  11.047
94786SOL    HW186191   1.342  13.686  11.102
94786SOL    HW286192   1.241  13.574  11.106
94787SOL     OW86193   5.700   4.727  14.006
94787SOL    HW186194   5.737   4.753  14.091
94787SOL    HW286195   5.605   4.727  14.020
94788SOL     OW86196  13.698   6.790   4.393
94788SOL    HW186197  13.704   6.771   4.299
94788SOL    HW286198  13.769   6.852   4.410
94789SOL     OW86199  12.672   5.480  10.474
94789SOL    HW186200  12.576   5.479  10.476
94789SOL    HW286201  12.697   5.395  10.509
94790SOL     OW86202  12.559   2.198   1.804
94790SOL    HW186203  12.482   2.144   1.786
94790SOL    HW286204  12.631   2.135   1.808
94791SOL     OW86205   0.289   2.556   2.148
94791SOL    HW186206   0.232   2.518   2.081
94791SOL    HW286207   0.353   2.488   2.167
94792SOL     OW86208   0.430  11.143  12.066
94792SOL    HW186209   0.424  11.072  12.002
94792SOL    HW286210   0.387  11.218  12.024
94793SOL     OW86211   9.297   0.006  11.581
94793SOL    HW186212   9.222   0.024  11.524
94793SOL    HW286213   9.325   0.092  11.612
94794SOL     OW86214   1.805  14.733   0.329
94794SOL    HW186215   1.732  14.794   0.341
94794SOL    HW286216   1.876  14.768   0.383
94795SOL     OW86217  12.088   3.074   5.246
94795SOL    HW186218  12.173   3.107   5.216
94795SOL    HW286219  12.086   2.983   5.217
94796SOL     OW86220  11.729  10.441  11.586
94796SOL    HW186221  11.697  10.515  11.638
94796SOL    HW286222  11.719  10.470  11.495
94797SOL     OW86223   8.381   1.210   4.488
94797SOL    HW186224   8.317   1.142   4.469
94797SOL    HW286225   8.385   1.263   4.409
94798SOL     OW86226  11.193   9.140  12.827
94798SOL    HW186227  11.138   9.097  12.892
94798SOL    HW286228  11.135   9.151  12.751
94799SOL     OW86229   1.317   3.782  10.362
94799SOL    HW186230   1.341   3.701  10.318
94799SOL    HW286231   1.293   3.842  10.292
94800SOL     OW86232   1.393   3.295   1.022
94800SOL    HW186233   1.417   3.207   1.050
94800SOL    HW286234   1.468   3.349   1.046
94801SOL     OW86235  13.637  11.714   5.851
94801SOL    HW186236  13.723  11.735   5.814
94801SOL    HW286237  13.589  11.673   5.779
94802SOL     OW86238   1.353  13.017   3.266
94802SOL    HW186239   1.395  13.102   3.260
94802SOL    HW286240   1.310  13.005   3.182
94803SOL     OW86241   1.007   5.281  14.367
94803SOL    HW186242   1.086   5.336  14.372
94803SOL    HW286243   1.017   5.219  14.440
94804SOL     OW86244  13.314  13.410   2.618
94804SOL    HW186245  13.253  13.459   2.673
94804SOL    HW286246  13.354  13.475   2.562
94805SOL     OW86247   9.082   1.393   8.018
94805SOL    HW186248   9.113   1.367   7.931
94805SOL    HW286249   9.133   1.339   8.079
94806SOL     OW86250  10.527  13.221  11.764
94806SOL    HW186251  10.605  13.229  11.819
94806SOL    HW286252  10.476  13.300  11.783
94807SOL     OW86253   4.402   2.033   3.923
94807SOL    HW186254   4.440   2.111   3.963
94807SOL    HW286255   4.460   2.013   3.849
94808SOL     OW86256  13.188   5.986  10.442
94808SOL    HW186257  13.168   5.952  10.355
94808SOL    HW286258  13.125   5.942  10.500
94809SOL     OW86259   8.082   5.644   7.671
94809SOL    HW186260   8.176   5.640   7.687
94809SOL    HW286261   8.072   5.715   7.607
94810SOL     OW86262   0.025   8.173   2.504
94810SOL    HW186263   0.072   8.112   2.447
94810SOL    HW286264   0.050   8.260   2.474
94811SOL     OW86265  11.053   4.941   3.817
94811SOL    HW186266  11.032   5.007   3.884
94811SOL    HW286267  11.104   4.988   3.751
94812SOL     OW86268   6.837   3.721   4.763
94812SOL    HW186269   6.796   3.800   4.798
94812SOL    HW286270   6.783   3.698   4.688
94813SOL     OW86271   2.893   2.915   5.188
94813SOL    HW186272   2.819   2.946   5.136
94813SOL    HW286273   2.865   2.829   5.219
94814SOL     OW86274  10.487  11.594  12.042
94814SOL    HW186275  10.431  11.649  11.987
94814SOL    HW286276  10.534  11.656  12.098
94815SOL     OW86277  13.394   3.239   2.280
94815SOL    HW186278  13.440   3.319   2.305
94815SOL    HW286279  13.461   3.171   2.279
94816SOL     OW86280   2.616   3.867   8.749
94816SOL    HW186281   2.663   3.945   8.777
94816SOL    HW286282   2.567   3.839   8.826
94817SOL     OW86283   1.869  13.890   3.553
94817SOL    HW186284   1.888  13.797   3.563
94817SOL    HW286285   1.837  13.898   3.463
94818SOL     OW86286   9.646   7.091   6.192
94818SOL    HW186287   9.552   7.086   6.209
94818SOL    HW286288   9.684   7.122   6.275
94819SOL     OW86289  12.806   9.661   8.449
94819SOL    HW186290  12.780   9.708   8.529
94819SOL    HW286291  12.811   9.728   8.382
94820SOL     OW86292  11.350   9.646   8.489
94820SOL    HW186293  11.403   9.722   8.466
94820SOL    HW286294  11.260   9.676   8.479
94821SOL     OW86295   3.053   3.397   8.801
94821SOL    HW186296   3.138   3.356   8.781
94821SOL    HW286297   2.991   3.324   8.803
94822SOL     OW86298   3.339   3.100   3.798
94822SOL    HW186299   3.257   3.089   3.847
94822SOL    HW286300   3.335   3.190   3.766
94823SOL     OW86301   4.237   0.743  10.941
94823SOL    HW186302   4.240   0.711  10.851
94823SOL    HW286303   4.188   0.825  10.935
94824SOL     OW86304  10.626   9.235  12.753
94824SOL    HW186305  10.679   9.289  12.695
94824SOL    HW286306  10.689   9.179  12.799
94825SOL     OW86307   8.990  13.699   7.520
94825SOL    HW186308   9.030  13.628   7.569
94825SOL    HW286309   8.990  13.668   7.429
94826SOL     OW86310   7.547   8.664   3.148
94826SOL    HW186311   7.594   8.680   3.229
94826SOL    HW286312   7.612   8.625   3.089
94827SOL     OW86313  12.019   2.903  10.222
94827SOL    HW186314  11.942   2.952  10.195
94827SOL    HW286315  12.078   2.907  10.147
94828SOL     OW86316  10.392   8.724   3.080
94828SOL    HW186317  10.428   8.690   2.998
94828SOL    HW286318  10.439   8.677   3.149
94829SOL     OW86319   5.104   9.085   4.294
94829SOL    HW186320   5.142   9.077   4.381
94829SOL    HW286321   5.081   8.995   4.270
94830SOL     OW86322   3.223   1.597   7.470
94830SOL    HW186323   3.188   1.615   7.382
94830SOL    HW286324   3.180   1.516   7.497
94831SOL     OW86325  13.371  10.630   7.565
94831SOL    HW186326  13.433  10.609   7.496
94831SOL    HW286327  13.412  10.702   7.613
94832SOL     OW86328  10.840   1.040   7.231
94832SOL    HW186329  10.746   1.052   7.216
94832SOL    HW286330  10.859   0.956   7.189
94833SOL     OW86331   6.324  13.771  13.264
94833SOL    HW186332   6.339  13.821  13.344
94833SOL    HW286333   6.398  13.792  13.207
94834SOL     OW86334   7.640  10.189  13.478
94834SOL    HW186335   7.715  10.220  13.429
94834SOL    HW286336   7.674  10.116  13.531
94835SOL     OW86337  11.402  13.370   3.333
94835SOL    HW186338  11.400  13.463   3.308
94835SOL    HW286339  11.492  13.343   3.317
94836SOL     OW86340   3.258   6.688   4.969
94836SOL    HW186341   3.180   6.721   4.925
94836SOL    HW286342   3.257   6.731   5.055
94837SOL     OW86343   2.472  13.183   0.194
94837SOL    HW186344   2.539  13.155   0.256
94837SOL    HW286345   2.520  13.229   0.125
94838SOL     OW86346   1.442   3.600  11.155
94838SOL    HW186347   1.401   3.518  11.181
94838SOL    HW286348   1.368   3.661  11.143
94839SOL     OW86349   6.043   9.107   5.380
94839SOL    HW186350   5.991   9.188   5.375
94839SOL    HW286351   5.983   9.042   5.417
94840SOL     OW86352   1.666  11.000  13.202
94840SOL    HW186353   1.593  11.039  13.250
94840SOL    HW286354   1.711  11.074  13.161
94841SOL     OW86355  10.294   8.674   7.899
94841SOL    HW186356  10.356   8.603   7.915
94841SOL    HW286357  10.253   8.652   7.815
94842SOL     OW86358   7.029   8.268   6.272
94842SOL    HW186359   7.088   8.332   6.312
94842SOL    HW286360   7.086   8.204   6.230
94843SOL     OW86361   6.352   7.554   2.745
94843SOL    HW186362   6.431   7.512   2.711
94843SOL    HW286363   6.312   7.595   2.669
94844SOL     OW86364   2.180   9.058   5.476
94844SOL    HW186365   2.134   9.094   5.401
94844SOL    HW286366   2.268   9.037   5.443
94845SOL     OW86367   1.042   9.866   6.530
94845SOL    HW186368   1.007   9.936   6.475
94845SOL    HW286369   0.986   9.866   6.608
94846SOL     OW86370  14.797   4.731   8.172
94846SOL    HW186371  14.847   4.736   8.090
94846SOL    HW286372  14.818   4.645   8.207
94847SOL     OW86373   6.758  11.051  12.473
94847SOL    HW186374   6.820  10.989  12.433
94847SOL    HW286375   6.735  11.110  12.402
94848SOL     OW86376   2.393  10.267  13.319
94848SOL    HW186377   2.431  10.207  13.383
94848SOL    HW286378   2.419  10.231  13.234
94849SOL     OW86379  12.290   0.264   1.222
94849SOL    HW186380  12.259   0.177   1.247
94849SOL    HW286381  12.230   0.291   1.153
94850SOL     OW86382  10.452   6.150  13.836
94850SOL    HW186383  10.533   6.139  13.785
94850SOL    HW286384  10.477   6.206  13.909
94851SOL     OW86385   2.306   5.114   9.168
94851SOL    HW186386   2.294   5.167   9.089
94851SOL    HW286387   2.300   5.177   9.240
94852SOL     OW86388   8.923   0.762   4.812
94852SOL    HW186389   8.876   0.682   4.837
94852SOL    HW286390   8.871   0.833   4.849
94853SOL     OW86391   2.028  14.857  11.341
94853SOL    HW186392   2.044  14.796  11.412
94853SOL    HW286393   2.116  14.878  11.307
94854SOL     OW86394  14.563   7.489  12.292
94854SOL    HW186395  14.550   7.448  12.377
94854SOL    HW286396  14.589   7.579  12.313
94855SOL     OW86397   9.407   4.198  13.895
94855SOL    HW186398   9.381   4.270  13.952
94855SOL    HW286399   9.391   4.119  13.947
94856SOL     OW86400  14.797  12.371   7.612
94856SOL    HW186401  14.878  12.381   7.562
94856SOL    HW286402  14.813  12.297   7.671
94857SOL     OW86403   0.393   2.164   8.790
94857SOL    HW186404   0.394   2.248   8.835
94857SOL    HW286405   0.312   2.165   8.739
94858SOL     OW86406  10.231   5.170   2.310
94858SOL    HW186407  10.266   5.112   2.242
94858SOL    HW286408  10.243   5.258   2.276
94859SOL     OW86409  11.013   8.515   6.986
94859SOL    HW186410  11.007   8.592   6.930
94859SOL    HW286411  11.010   8.549   7.075
94860SOL     OW86412   7.235   4.298   9.062
94860SOL    HW186413   7.253   4.204   9.056
94860SOL    HW286414   7.205   4.311   9.152
94861SOL     OW86415   8.854   9.229  13.256
94861SOL    HW186416   8.806   9.160  13.301
94861SOL    HW286417   8.913   9.265  13.322
94862SOL     OW86418  10.973   4.177   8.039
94862SOL    HW186419  11.028   4.098   8.039
94862SOL    HW286420  11.016   4.236   8.101
94863SOL     OW86421  12.747   8.648   3.989
94863SOL    HW186422  12.705   8.592   3.924
94863SOL    HW286423  12.829   8.603   4.010
94864SOL     OW86424   5.617   7.160   6.280
94864SOL    HW186425   5.580   7.099   6.344
94864SOL    HW286426   5.550   7.228   6.271
94865SOL     OW86427  10.794  13.060  10.870
94865SOL    HW186428  10.812  13.139  10.819
94865SOL    HW286429  10.698  13.051  10.868
94866SOL     OW86430   0.339   0.958   3.976
94866SOL    HW186431   0.334   0.942   4.070
94866SOL    HW286432   0.342   1.053   3.967
94867SOL     OW86433   3.300  10.964   5.522
94867SOL    HW186434   3.378  11.015   5.500
94867SOL    HW286435   3.326  10.912   5.598
94868SOL     OW86436   3.281   0.643  10.337
94868SOL    HW186437   3.210   0.658  10.274
94868SOL    HW286438   3.359   0.631  10.283
94869SOL     OW86439   4.668   4.809   3.495
94869SOL    HW186440   4.628   4.847   3.417
94869SOL    HW286441   4.598   4.810   3.560
94870SOL     OW86442  11.256   2.631   6.166
94870SOL    HW186443  11.297   2.565   6.222
94870SOL    HW286444  11.255   2.711   6.219
94871SOL     OW86445   8.895   5.073   8.040
94871SOL    HW186446   8.972   5.109   7.997
94871SOL    HW286447   8.821   5.099   7.985
94872SOL     OW86448   9.855   9.025   5.540
94872SOL    HW186449   9.865   9.061   5.452
94872SOL    HW286450   9.940   8.985   5.560
94873SOL     OW86451   2.333  14.613   5.352
94873SOL    HW186452   2.291  14.566   5.424
94873SOL    HW286453   2.318  14.558   5.275
94874SOL     OW86454   5.119   3.830   5.193
94874SOL    HW186455   5.063   3.897   5.231
94874SOL    HW286456   5.184   3.879   5.142
94875SOL     OW86457   9.404   5.456  12.437
94875SOL    HW186458   9.322   5.432  12.394
94875SOL    HW286459   9.395   5.425  12.527
94876SOL     OW86460  13.739   0.204   8.422
94876SOL    HW186461  13.645   0.197   8.440
94876SOL    HW286462  13.743   0.250   8.338
94877SOL     OW86463   3.209   9.548   3.842
94877SOL    HW186464   3.155   9.625   3.860
94877SOL    HW286465   3.231   9.555   3.749
94878SOL     OW86466   8.135   7.563   5.301
94878SOL    HW186467   8.050   7.595   5.332
94878SOL    HW286468   8.158   7.493   5.362
94879SOL     OW86469   9.269   4.054   2.558
94879SOL    HW186470   9.287   4.148   2.553
94879SOL    HW286471   9.212   4.037   2.483
94880SOL     OW86472  11.193   0.292  13.555
94880SOL    HW186473  11.230   0.239  13.626
94880SOL    HW286474  11.261   0.293  13.488
94881SOL     OW86475   8.550   3.361   0.884
94881SOL    HW186476   8.528   3.437   0.830
94881SOL    HW286477   8.467   3.337   0.925
94882SOL     OW86478  14.725   6.591  13.434
94882SOL    HW186479  14.821   6.585  13.431
94882SOL    HW286480  14.705   6.599  13.528
94883SOL     OW86481  12.861   7.768  14.718
94883SOL    HW186482  12.948   7.778  14.756
94883SOL    HW286483  12.870   7.803  14.629
94884SOL     OW86484   7.204   7.129  10.326
94884SOL    HW186485   7.136   7.121  10.260
94884SOL    HW286486   7.259   7.052  10.314
94885SOL     OW86487  14.194   0.913   1.870
94885SOL    HW186488  14.120   0.926   1.810
94885SOL    HW286489  14.245   0.994   1.863
94886SOL     OW86490  10.960   5.965   4.585
94886SOL    HW186491  10.901   5.961   4.509
94886SOL    HW286492  10.902   5.963   4.661
94887SOL     OW86493   1.358   1.741  12.995
94887SOL    HW186494   1.337   1.744  13.088
94887SOL    HW286495   1.384   1.650  12.979
94888SOL     OW86496  10.412   3.151   1.281
94888SOL    HW186497  10.453   3.172   1.197
94888SOL    HW286498  10.349   3.221   1.296
94889SOL     OW86499  11.227   0.945  13.202
94889SOL    HW186500  11.135   0.949  13.227
94889SOL    HW286501  11.258   1.035  13.209
94890SOL     OW86502   7.956   8.093   7.457
94890SOL    HW186503   7.906   8.030   7.509
94890SOL    HW286504   7.891   8.134   7.400
94891SOL     OW86505   0.562   8.839  10.319
94891SOL    HW186506   0.492   8.866  10.259
94891SOL    HW286507   0.563   8.743  10.311
94892SOL     OW86508  11.028   8.389   2.797
94892SOL    HW186509  11.013   8.306   2.751
94892SOL    HW286510  11.121   8.387   2.819
94893SOL     OW86511  10.385   4.154   6.243
94893SOL    HW186512  10.306   4.190   6.202
94893SOL    HW286513  10.389   4.064   6.213
94894SOL     OW86514   6.030   7.129  12.280
94894SOL    HW186515   6.012   7.045  12.321
94894SOL    HW286516   5.984   7.193  12.334
94895SOL     OW86517   9.274   4.274  11.690
94895SOL    HW186518   9.247   4.266  11.599
94895SOL    HW286519   9.308   4.364  11.696
94896SOL     OW86520   0.847   5.078   1.683
94896SOL    HW186521   0.861   4.991   1.646
94896SOL    HW286522   0.827   5.062   1.775
94897SOL     OW86523  10.724   8.367  14.414
94897SOL    HW186524  10.719   8.276  14.386
94897SOL    HW286525  10.814   8.394  14.393
94898SOL     OW86526   1.267  10.123   9.952
94898SOL    HW186527   1.234  10.040   9.919
94898SOL    HW286528   1.188  10.174   9.971
94899SOL     OW86529   2.494   4.644   2.505
94899SOL    HW186530   2.553   4.719   2.518
94899SOL    HW286531   2.544   4.583   2.450
94900SOL     OW86532  13.269  10.801   3.500
94900SOL    HW186533  13.312  10.820   3.417
94900SOL    HW286534  13.185  10.763   3.476
94901SOL     OW86535   0.306  14.051   3.013
94901SOL    HW186536   0.336  13.990   3.080
94901SOL    HW286537   0.245  13.999   2.959
94902SOL     OW86538   9.537   9.255   8.604
94902SOL    HW186539   9.602   9.196   8.641
94902SOL    HW286540   9.466   9.198   8.574
94903SOL     OW86541   0.716   1.815  14.633
94903SOL    HW186542   0.724   1.892  14.689
94903SOL    HW286543   0.622   1.796  14.630
94904SOL     OW86544   5.223   8.341  14.027
94904SOL    HW186545   5.284   8.269  14.007
94904SOL    HW286546   5.280   8.418  14.037
94905SOL     OW86547  13.381   7.907  10.642
94905SOL    HW186548  13.439   7.893  10.716
94905SOL    HW286549  13.334   7.988  10.663
94906SOL     OW86550  11.797   2.013   0.691
94906SOL    HW186551  11.784   1.980   0.781
94906SOL    HW286552  11.849   1.945   0.649
94907SOL     OW86553   5.655   1.229  11.953
94907SOL    HW186554   5.574   1.231  11.902
94907SOL    HW286555   5.664   1.138  11.981
94908SOL     OW86556   6.276   3.217   9.084
94908SOL    HW186557   6.326   3.149   9.129
94908SOL    HW286558   6.190   3.216   9.126
94909SOL     OW86559  13.051   3.935   6.116
94909SOL    HW186560  12.983   3.954   6.182
94909SOL    HW286561  13.025   3.851   6.079
94910SOL     OW86562   6.369   3.826  12.128
94910SOL    HW186563   6.339   3.756  12.186
94910SOL    HW286564   6.464   3.826  12.140
94911SOL     OW86565   9.575  13.282   0.412
94911SOL    HW186566   9.587  13.229   0.333
94911SOL    HW286567   9.560  13.217   0.481
94912SOL     OW86568   7.243   2.565   6.772
94912SOL    HW186569   7.339   2.558   6.778
94912SOL    HW286570   7.213   2.552   6.862
94913SOL     OW86571   3.738   9.399  12.829
94913SOL    HW186572   3.685   9.475  12.852
94913SOL    HW286573   3.705   9.329  12.885
94914SOL     OW86574   6.401   2.973  13.931
94914SOL    HW186575   6.392   2.888  13.888
94914SOL    HW286576   6.449   3.026  13.868
94915SOL     OW86577   1.249   8.618   8.343
94915SOL    HW186578   1.329   8.651   8.303
94915SOL    HW286579   1.275   8.593   8.432
94916SOL     OW86580  13.765   7.858  10.703
94916SOL    HW186581  13.751   7.944  10.663
94916SOL    HW286582  13.677   7.829  10.728
94917SOL     OW86583   1.521   9.368  12.544
94917SOL    HW186584   1.546   9.460  12.540
94917SOL    HW286585   1.482   9.350  12.458
94918SOL     OW86586  11.423   8.076   1.695
94918SOL    HW186587  11.447   8.126   1.772
94918SOL    HW286588  11.461   8.125   1.622
94919SOL     OW86589  14.402   0.790  11.445
94919SOL    HW186590  14.444   0.780  11.530
94919SOL    HW286591  14.344   0.865  11.455
94920SOL     OW86592   5.900   0.101   8.105
94920SOL    HW186593   5.989   0.065   8.104
94920SOL    HW286594   5.901   0.166   8.175
94921SOL     OW86595   8.253  13.124   0.709
94921SOL    HW186596   8.281  13.035   0.731
94921SOL    HW286597   8.269  13.132   0.615
94922SOL     OW86598   7.449   2.980  14.635
94922SOL    HW186599   7.455   2.887  14.655
94922SOL    HW286600   7.494   2.990  14.551
94923SOL     OW86601   3.049  14.214   3.767
94923SOL    HW186602   3.137  14.191   3.739
94923SOL    HW286603   3.044  14.309   3.758
94924SOL     OW86604  10.238   6.597   7.379
94924SOL    HW186605  10.305   6.587   7.312
94924SOL    HW286606  10.212   6.508   7.401
94925SOL     OW86607   6.120  14.607   5.015
94925SOL    HW186608   6.154  14.694   5.033
94925SOL    HW286609   6.132  14.595   4.921
94926SOL     OW86610   5.548  10.741   2.765
94926SOL    HW186611   5.489  10.691   2.821
94926SOL    HW286612   5.616  10.774   2.824
94927SOL     OW86613  11.889   1.810   3.517
94927SOL    HW186614  11.869   1.733   3.464
94927SOL    HW286615  11.968   1.847   3.475
94928SOL     OW86616   2.909   1.052  13.862
94928SOL    HW186617   2.990   1.069  13.910
94928SOL    HW286618   2.851   1.011  13.926
94929SOL     OW86619   1.079   8.207  12.357
94929SOL    HW186620   1.015   8.277  12.348
94929SOL    HW286621   1.028   8.132  12.388
94930SOL     OW86622  11.356   3.057  13.957
94930SOL    HW186623  11.449   3.054  13.978
94930SOL    HW286624  11.322   3.132  14.005
94931SOL     OW86625   0.665  11.163  10.655
94931SOL    HW186626   0.581  11.123  10.680
94931SOL    HW286627   0.706  11.098  10.599
94932SOL     OW86628   0.109   5.770   5.018
94932SOL    HW186629   0.179   5.733   4.964
94932SOL    HW286630   0.029   5.741   4.975
94933SOL     OW86631   8.604   0.083   3.598
94933SOL    HW186632   8.508   0.087   3.594
94933SOL    HW286633   8.623   0.059   3.688
94934SOL     OW86634   9.848  11.654   1.096
94934SOL    HW186635   9.793  11.599   1.153
94934SOL    HW286636   9.785  11.707   1.046
94935SOL     OW86637  11.183   6.599   7.968
94935SOL    HW186638  11.179   6.506   7.992
94935SOL    HW286639  11.093   6.621   7.946
94936SOL     OW86640  10.082  14.082   9.011
94936SOL    HW186641  10.106  14.163   9.056
94936SOL    HW286642  10.018  14.040   9.070
94937SOL     OW86643   6.442  12.545  11.596
94937SOL    HW186644   6.411  12.501  11.675
94937SOL    HW286645   6.474  12.630  11.626
94938SOL     OW86646  14.018  10.137   7.055
94938SOL    HW186647  14.103  10.178   7.068
94938SOL    HW286648  13.988  10.115   7.143
94939SOL     OW86649  10.650   7.149   3.889
94939SOL    HW186650  10.711   7.171   3.818
94939SOL    HW286651  10.704   7.149   3.968
94940SOL     OW86652   3.692   7.010   5.522
94940SOL    HW186653   3.704   7.082   5.584
94940SOL    HW286654   3.779   6.993   5.487
94941SOL     OW86655  14.123   2.264   5.623
94941SOL    HW186656  14.180   2.275   5.699
94941SOL    HW286657  14.123   2.349   5.580
94942SOL     OW86658   4.199  11.141   4.705
94942SOL    HW186659   4.215  11.069   4.645
94942SOL    HW286660   4.222  11.106   4.791
94943SOL     OW86661   9.910   6.285   0.883
94943SOL    HW186662   9.817   6.310   0.886
94943SOL    HW286663   9.944   6.309   0.969
94944SOL     OW86664  12.023   2.550  13.168
94944SOL    HW186665  12.110   2.510  13.171
94944SOL    HW286666  12.032   2.630  13.219
94945SOL     OW86667  14.667  14.349   9.758
94945SOL    HW186668  14.601  14.402   9.714
94945SOL    HW286669  14.727  14.412   9.797
94946SOL     OW86670   6.784  13.148   2.504
94946SOL    HW186671   6.810  13.068   2.459
94946SOL    HW286672   6.714  13.183   2.449
94947SOL     OW86673   8.547   8.418   7.841
94947SOL    HW186674   8.567   8.386   7.929
94947SOL    HW286675   8.452   8.413   7.834
94948SOL     OW86676  13.854   1.837  14.028
94948SOL    HW186677  13.900   1.816  13.946
94948SOL    HW286678  13.910   1.902  14.070
94949SOL     OW86679   1.927   9.812   8.055
94949SOL    HW186680   1.962   9.723   8.065
94949SOL    HW286681   1.832   9.801   8.063
94950SOL     OW86682  14.616  14.153   8.173
94950SOL    HW186683  14.537  14.204   8.191
94950SOL    HW286684  14.688  14.212   8.197
94951SOL     OW86685   4.411   7.278   7.417
94951SOL    HW186686   4.487   7.247   7.368
94951SOL    HW286687   4.359   7.199   7.433
94952SOL     OW86688   4.302   0.920   9.770
94952SOL    HW186689   4.370   0.892   9.709
94952SOL    HW286690   4.302   1.016   9.764
94953SOL     OW86691   1.566   0.343   1.057
94953SOL    HW186692   1.569   0.314   0.966
94953SOL    HW286693   1.519   0.274   1.103
94954SOL     OW86694   4.936   3.649   5.109
94954SOL    HW186695   4.945   3.602   5.192
94954SOL    HW286696   5.011   3.708   5.107
94955SOL     OW86697   6.041  14.149   5.463
94955SOL    HW186698   5.974  14.206   5.427
94955SOL    HW286699   6.072  14.097   5.389
94956SOL     OW86700   4.322   7.352   3.829
94956SOL    HW186701   4.245   7.360   3.885
94956SOL    HW286702   4.296   7.286   3.764
94957SOL     OW86703  12.060   4.190   9.849
94957SOL    HW186704  12.084   4.259   9.912
94957SOL    HW286705  11.970   4.166   9.873
94958SOL     OW86706   4.054   2.114   4.460
94958SOL    HW186707   4.018   2.194   4.420
94958SOL    HW286708   3.977   2.060   4.478
94959SOL     OW86709   7.534   9.708   8.476
94959SOL    HW186710   7.476   9.678   8.406
94959SOL    HW286711   7.606   9.752   8.430
94960SOL     OW86712   8.706  14.620  12.303
94960SOL    HW186713   8.620  14.661  12.299
94960SOL    HW286714   8.721  14.588  12.214
94961SOL     OW86715   7.400   4.746  12.103
94961SOL    HW186716   7.390   4.833  12.144
94961SOL    HW286717   7.390   4.763  12.010
94962SOL     OW86718  14.764   8.216   9.573
94962SOL    HW186719  14.781   8.147   9.510
94962SOL    HW286720  14.685   8.187   9.620
94963SOL     OW86721   7.903   1.578  10.165
94963SOL    HW186722   7.914   1.632  10.243
94963SOL    HW286723   7.969   1.509  10.173
94964SOL     OW86724   3.519  14.683   6.432
94964SOL    HW186725   3.513  14.757   6.371
94964SOL    HW286726   3.544  14.722   6.515
94965SOL     OW86727   1.962  11.537   8.580
94965SOL    HW186728   1.923  11.584   8.506
94965SOL    HW286729   1.926  11.580   8.658
94966SOL     OW86730  10.441   8.716   9.376
94966SOL    HW186731  10.492   8.732   9.297
94966SOL    HW286732  10.358   8.680   9.344
94967SOL     OW86733   3.175   9.372   7.458
94967SOL    HW186734   3.122   9.430   7.512
94967SOL    HW286735   3.114   9.334   7.395
94968SOL     OW86736   7.394  10.511  14.285
94968SOL    HW186737   7.307  10.491  14.318
94968SOL    HW286738   7.450  10.442  14.320
94969SOL     OW86739   3.129   9.665   4.796
94969SOL    HW186740   3.167   9.579   4.816
94969SOL    HW286741   3.135   9.672   4.701
94970SOL     OW86742   5.453  10.017  11.728
94970SOL    HW186743   5.518  10.087  11.717
94970SOL    HW286744   5.462   9.990  11.820
94971SOL     OW86745  13.115   4.126  14.216
94971SOL    HW186746  13.203   4.096  14.196
94971SOL    HW286747  13.125   4.220  14.232
94972SOL     OW86748  10.873   5.410  10.435
94972SOL    HW186749  10.935   5.358  10.486
94972SOL    HW286750  10.831   5.347  10.376
94973SOL     OW86751   1.835   7.749  11.604
94973SOL    HW186752   1.834   7.657  11.578
94973SOL    HW286753   1.800   7.749  11.693
94974SOL     OW86754   9.039   5.500  13.652
94974SOL    HW186755   9.118   5.460  13.618
94974SOL    HW286756   8.996   5.538  13.576
94975SOL     OW86757   6.502   7.316   3.054
94975SOL    HW186758   6.576   7.274   3.098
94975SOL    HW286759   6.518   7.410   3.064
94976SOL     OW86760   9.257   2.625  11.025
94976SOL    HW186761   9.279   2.578  10.944
94976SOL    HW286762   9.183   2.681  11.000
94977SOL     OW86763   2.693   4.648   0.271
94977SOL    HW186764   2.721   4.739   0.261
94977SOL    HW286765   2.727   4.621   0.356
94978SOL     OW86766  10.698   2.159   7.475
94978SOL    HW186767  10.764   2.201   7.421
94978SOL    HW286768  10.648   2.231   7.514
94979SOL     OW86769  14.478  12.790   4.219
94979SOL    HW186770  14.531  12.864   4.189
94979SOL    HW286771  14.504  12.718   4.163
94980SOL     OW86772   5.640  10.166   1.211
94980SOL    HW186773   5.559  10.133   1.249
94980SOL    HW286774   5.612  10.237   1.154
94981SOL     OW86775   3.275   5.152  13.127
94981SOL    HW186776   3.238   5.156  13.215
94981SOL    HW286777   3.342   5.084  13.133
94982SOL     OW86778  13.415  14.152   8.459
94982SOL    HW186779  13.350  14.101   8.410
94982SOL    HW286780  13.483  14.172   8.396
94983SOL     OW86781   0.308   0.802   2.953
94983SOL    HW186782   0.372   0.796   2.883
94983SOL    HW286783   0.329   0.884   2.998
94984SOL     OW86784   6.435  11.421  14.168
94984SOL    HW186785   6.492  11.474  14.112
94984SOL    HW286786   6.457  11.447  14.257
94985SOL     OW86787   8.579  12.780   2.507
94985SOL    HW186788   8.650  12.835   2.474
94985SOL    HW286789   8.564  12.812   2.596
94986SOL     OW86790   0.954   3.503  11.242
94986SOL    HW186791   1.037   3.526  11.283
94986SOL    HW286792   0.907   3.455  11.310
94987SOL     OW86793  14.834  12.164   7.000
94987SOL    HW186794  14.847  12.133   7.090
94987SOL    HW286795  14.832  12.084   6.948
94988SOL     OW86796   2.027   3.782   8.819
94988SOL    HW186797   1.960   3.834   8.863
94988SOL    HW286798   1.985   3.697   8.802
94989SOL     OW86799   0.726  14.362  13.957
94989SOL    HW186800   0.700  14.425  13.891
94989SOL    HW286801   0.680  14.281  13.933
94990SOL     OW86802   1.656   8.122   6.894
94990SOL    HW186803   1.644   8.049   6.832
94990SOL    HW286804   1.586   8.184   6.871
94991SOL     OW86805   0.072   6.723   5.464
94991SOL    HW186806   0.120   6.729   5.382
94991SOL    HW286807   0.075   6.812   5.501
94992SOL     OW86808   5.940   2.001  13.895
94992SOL    HW186809   5.936   1.985  13.989
94992SOL    HW286810   5.878   2.073  13.881
94993SOL     OW86811   1.057   5.207  10.729
94993SOL    HW186812   1.073   5.279  10.789
94993SOL    HW286813   0.988   5.238  10.671
94994SOL     OW86814  14.816   2.477   8.628
94994SOL    HW186815  14.784   2.396   8.667
94994SOL    HW286816  14.877   2.512   8.693
94995SOL     OW86817   6.600   1.506   9.638
94995SOL    HW186818   6.538   1.497   9.565
94995SOL    HW286819   6.673   1.556   9.602
94996SOL     OW86820   5.177   6.351  12.732
94996SOL    HW186821   5.272   6.356  12.739
94996SOL    HW286822   5.146   6.435  12.767
94997SOL     OW86823   2.952  11.777   0.498
94997SOL    HW186824   2.985  11.750   0.584
94997SOL    HW286825   2.860  11.750   0.497
94998SOL     OW86826   1.423   8.850   1.513
94998SOL    HW186827   1.483   8.921   1.492
94998SOL    HW286828   1.478   8.783   1.555
94999SOL     OW86829   3.231   8.984   4.030
94999SOL    HW186830   3.166   9.032   3.979
94999SOL    HW286831   3.296   9.050   4.055
95000SOL     OW86832  13.263   0.085   5.931
95000SOL    HW186833  13.201   0.019   5.900
95000SOL    HW286834  13.341   0.071   5.877
95001SOL     OW86835  11.572   6.203   0.985
95001SOL    HW186836  11.553   6.119   1.025
95001SOL    HW286837  11.644   6.185   0.924
95002SOL     OW86838   6.290   2.148  13.624
95002SOL    HW186839   6.273   2.088  13.696
95002SOL    HW286840   6.358   2.105  13.572
95003SOL     OW86841   5.125   9.992   9.119
95003SOL    HW186842   5.081   9.939   9.053
95003SOL    HW286843   5.166  10.063   9.070
95004SOL     OW86844   3.521  10.522   5.468
95004SOL    HW186845   3.438  10.566   5.448
95004SOL    HW286846   3.570  10.526   5.385
95005SOL     OW86847   4.306   8.617  11.573
95005SOL    HW186848   4.360   8.568  11.511
95005SOL    HW286849   4.370   8.662  11.630
95006SOL     OW86850   7.926   0.715   1.506
95006SOL    HW186851   8.010   0.670   1.516
95006SOL    HW286852   7.911   0.716   1.411
95007SOL     OW86853   7.210   4.314  10.864
95007SOL    HW186854   7.175   4.306  10.775
95007SOL    HW286855   7.266   4.392  10.861
95008SOL     OW86856  11.612   2.988   9.008
95008SOL    HW186857  11.563   3.034   8.940
95008SOL    HW286858  11.654   3.057   9.059
95009SOL     OW86859   9.290  10.042  10.843
95009SOL    HW186860   9.371  10.085  10.869
95009SOL    HW286861   9.306  10.012  10.753
95010SOL     OW86862   3.355   5.769   4.488
95010SOL    HW186863   3.373   5.833   4.420
95010SOL    HW286864   3.392   5.687   4.455
95011SOL     OW86865   5.294  11.701   4.674
95011SOL    HW186866   5.377  11.671   4.638
95011SOL    HW286867   5.232  11.695   4.601
95012SOL     OW86868  14.358   4.922  10.973
95012SOL    HW186869  14.378   4.943  10.882
95012SOL    HW286870  14.408   4.842  10.990
95013SOL     OW86871   6.857   0.366   3.386
95013SOL    HW186872   6.765   0.372   3.357
95013SOL    HW286873   6.878   0.454   3.417
95014SOL     OW86874   1.323   9.948   1.796
95014SOL    HW186875   1.344   9.927   1.705
95014SOL    HW286876   1.403   9.988   1.830
95015SOL     OW86877   7.698  10.984   5.854
95015SOL    HW186878   7.602  10.986   5.845
95015SOL    HW286879   7.722  10.894   5.835
95016SOL     OW86880  13.951   5.067   7.529
95016SOL    HW186881  13.999   4.998   7.573
95016SOL    HW286882  13.864   5.066   7.569
95017SOL     OW86883   5.300   5.123   3.057
95017SOL    HW186884   5.387   5.090   3.035
95017SOL    HW286885   5.259   5.052   3.107
95018SOL     OW86886   4.591   1.649   9.034
95018SOL    HW186887   4.619   1.740   9.042
95018SOL    HW286888   4.523   1.639   9.101
95019SOL     OW86889  14.516  12.949   0.938
95019SOL    HW186890  14.435  12.999   0.952
95019SOL    HW286891  14.581  12.995   0.991
95020SOL     OW86892   6.103   8.650   2.521
95020SOL    HW186893   6.021   8.653   2.472
95020SOL    HW286894   6.099   8.725   2.580
95021SOL     OW86895   8.494  10.853  10.800
95021SOL    HW186896   8.486  10.792  10.873
95021SOL    HW286897   8.567  10.910  10.824
95022SOL     OW86898   7.421  11.060   1.521
95022SOL    HW186899   7.326  11.052   1.525
95022SOL    HW286900   7.454  10.972   1.542
95023SOL     OW86901  12.859   6.550  12.880
95023SOL    HW186902  12.939   6.519  12.923
95023SOL    HW286903  12.835   6.480  12.819
95024SOL     OW86904   7.300   0.261  10.109
95024SOL    HW186905   7.337   0.244  10.022
95024SOL    HW286906   7.224   0.203  10.114
95025SOL     OW86907   0.798   5.502   9.596
95025SOL    HW186908   0.749   5.584   9.596
95025SOL    HW286909   0.876   5.520   9.648
95026SOL     OW86910   4.980  12.562   3.556
95026SOL    HW186911   5.012  12.652   3.554
95026SOL    HW286912   5.043  12.512   3.505
95027SOL     OW86913   4.568   3.584  11.140
95027SOL    HW186914   4.546   3.665  11.185
95027SOL    HW286915   4.497   3.524  11.161
95028SOL     OW86916   6.175   7.997   7.080
95028SOL    HW186917   6.258   7.992   7.128
95028SOL    HW286918   6.109   8.013   7.148
95029SOL     OW86919   6.040   2.307   7.608
95029SOL    HW186920   5.955   2.344   7.633
95029SOL    HW286921   6.103   2.374   7.634
95030SOL     OW86922   2.701  11.649  12.322
95030SOL    HW186923   2.699  11.697  12.405
95030SOL    HW286924   2.617  11.603  12.319
95031SOL     OW86925   4.399   0.739  13.708
95031SOL    HW186926   4.347   0.804  13.662
95031SOL    HW286927   4.384   0.756  13.801
95032SOL     OW86928   9.209   7.566   5.285
95032SOL    HW186929   9.270   7.542   5.354
95032SOL    HW286930   9.260   7.559   5.204
95033SOL     OW86931   0.695   8.067   7.663
95033SOL    HW186932   0.773   8.109   7.697
95033SOL    HW286933   0.704   8.072   7.568
95034SOL     OW86934  12.865  10.819  13.157
95034SOL    HW186935  12.809  10.773  13.095
95034SOL    HW286936  12.848  10.777  13.241
95035SOL     OW86937   8.363   6.616   5.181
95035SOL    HW186938   8.436   6.598   5.240
95035SOL    HW286939   8.376   6.555   5.108
95036SOL     OW86940   2.952   8.443  13.050
95036SOL    HW186941   3.032   8.487  13.078
95036SOL    HW286942   2.976   8.350  13.047
95037SOL     OW86943   1.052  12.766   2.764
95037SOL    HW186944   1.016  12.721   2.840
95037SOL    HW286945   0.976  12.797   2.716
95038SOL     OW86946   0.213   0.359   1.123
95038SOL    HW186947   0.164   0.412   1.186
95038SOL    HW286948   0.298   0.346   1.164
95039SOL     OW86949   4.853  10.902  10.078
95039SOL    HW186950   4.764  10.888  10.046
95039SOL    HW286951   4.856  10.996  10.099
95040SOL     OW86952  13.946   0.906   6.125
95040SOL    HW186953  13.877   0.948   6.177
95040SOL    HW286954  13.986   0.978   6.075
95041SOL     OW86955  12.271  11.672  10.550
95041SOL    HW186956  12.187  11.712  10.571
95041SOL    HW286957  12.302  11.635  10.632
95042SOL     OW86958  10.724   4.309   0.111
95042SOL    HW186959  10.776   4.262   0.045
95042SOL    HW286960  10.756   4.276   0.195
95043SOL     OW86961   7.292   6.965  14.085
95043SOL    HW186962   7.355   6.907  14.044
95043SOL    HW286963   7.216   6.963  14.027
95044SOL     OW86964   9.365  14.466   0.181
95044SOL    HW186965   9.285  14.494   0.224
95044SOL    HW286966   9.348  14.477   0.088
95045SOL     OW86967  13.833   4.720   3.021
95045SOL    HW186968  13.911   4.669   3.002
95045SOL    HW286969  13.862   4.787   3.083
95046SOL     OW86970   9.165   4.141   7.271
95046SOL    HW186971   9.259   4.134   7.252
95046SOL    HW286972   9.123   4.097   7.197
95047SOL     OW86973  14.056   0.668   3.295
95047SOL    HW186974  14.132   0.704   3.340
95047SOL    HW286975  14.093   0.619   3.221
95048SOL     OW86976   0.003  14.218   2.415
95048SOL    HW186977   0.034  14.150   2.355
95048SOL    HW286978  14.801  14.182   2.451
95049SOL     OW86979   2.629  10.101   5.545
95049SOL    HW186980   2.624  10.187   5.503
95049SOL    HW286981   2.681  10.047   5.486
95050SOL     OW86982   6.489   5.966  10.582
95050SOL    HW186983   6.438   5.954  10.502
95050SOL    HW286984   6.552   6.035  10.560
95051SOL     OW86985   3.653   6.557  11.325
95051SOL    HW186986   3.662   6.531  11.417
95051SOL    HW286987   3.598   6.489  11.286
95052SOL     OW86988   2.730  10.361   8.680
95052SOL    HW186989   2.641  10.393   8.665
95052SOL    HW286990   2.760  10.335   8.593
95053SOL     OW86991  13.491   5.299  11.397
95053SOL    HW186992  13.555   5.229  11.380
95053SOL    HW286993  13.544   5.373  11.427
95054SOL     OW86994   0.926   9.500   7.934
95054SOL    HW186995   0.874   9.521   8.012
95054SOL    HW286996   0.967   9.416   7.953
95055SOL     OW86997   9.532  13.413   8.813
95055SOL    HW186998   9.526  13.379   8.724
95055SOL    HW286999   9.557  13.505   8.802
95056SOL     OW87000   2.926  14.775  11.600
95056SOL    HW187001   2.985  14.708  11.565
95056SOL    HW287002   2.953  14.855  11.556
95057SOL     OW87003  14.803   6.089   7.158
95057SOL    HW187004  14.791   6.184   7.153
95057SOL    HW287005  14.840   6.065   7.073
95058SOL     OW87006   0.522   7.905  11.393
95058SOL    HW187007   0.573   7.846  11.449
95058SOL    HW287008   0.529   7.991  11.435
95059SOL     OW87009   5.998  10.723   8.966
95059SOL    HW187010   5.965  10.645   8.919
95059SOL    HW287011   5.929  10.788   8.954
95060SOL     OW87012   7.721   2.495  12.613
95060SOL    HW187013   7.739   2.401  12.617
95060SOL    HW287014   7.715   2.515  12.520
95061SOL     OW87015   3.680   5.433   1.626
95061SOL    HW187016   3.741   5.395   1.564
95061SOL    HW287017   3.698   5.527   1.624
95062SOL     OW87018  12.954  11.363   5.506
95062SOL    HW187019  12.875  11.371   5.453
95062SOL    HW287020  13.000  11.446   5.494
95063SOL     OW87021   0.189   8.823   8.451
95063SOL    HW187022   0.227   8.902   8.413
95063SOL    HW287023   0.265   8.774   8.485
95064SOL     OW87024   9.741   5.669   0.705
95064SOL    HW187025   9.836   5.675   0.714
95064SOL    HW287026   9.709   5.653   0.793
95065SOL     OW87027   2.914  13.002   9.825
95065SOL    HW187028   2.960  13.034   9.902
95065SOL    HW287029   2.909  13.077   9.766
95066SOL     OW87030  12.917  12.357   3.385
95066SOL    HW187031  12.877  12.360   3.472
95066SOL    HW287032  12.996  12.410   3.393
95067SOL     OW87033   1.096   4.869  13.242
95067SOL    HW187034   1.079   4.920  13.321
95067SOL    HW287035   1.010   4.838  13.214
95068SOL     OW87036   2.139  11.550  10.826
95068SOL    HW187037   2.189  11.474  10.854
95068SOL    HW287038   2.058  11.545  10.877
95069SOL     OW87039  10.283   2.881   6.108
95069SOL    HW187040  10.256   2.800   6.065
95069SOL    HW287041  10.306   2.854   6.197
95070SOL     OW87042   3.726   4.263  11.697
95070SOL    HW187043   3.750   4.198  11.630
95070SOL    HW287044   3.805   4.272  11.750
95071SOL     OW87045   6.646   2.228  11.476
95071SOL    HW187046   6.671   2.137  11.493
95071SOL    HW287047   6.564   2.240  11.524
95072SOL     OW87048  11.548   6.748   2.853
95072SOL    HW187049  11.642   6.733   2.842
95072SOL    HW287050  11.527   6.708   2.937
95073SOL     OW87051  13.312   9.998   3.894
95073SOL    HW187052  13.299  10.045   3.977
95073SOL    HW287053  13.293  10.063   3.827
95074SOL     OW87054   3.746   6.001   8.960
95074SOL    HW187055   3.746   6.059   8.884
95074SOL    HW287056   3.780   5.918   8.926
95075SOL     OW87057   7.656   5.602  12.855
95075SOL    HW187058   7.704   5.620  12.774
95075SOL    HW287059   7.724   5.590  12.921
95076SOL     OW87060  12.798   3.723  11.052
95076SOL    HW187061  12.811   3.788  10.984
95076SOL    HW287062  12.703   3.712  11.059
95077SOL     OW87063   1.454  14.130   0.724
95077SOL    HW187064   1.364  14.162   0.737
95077SOL    HW287065   1.463  14.059   0.788
95078SOL     OW87066   0.921   5.119   5.098
95078SOL    HW187067   1.008   5.099   5.063
95078SOL    HW287068   0.869   5.146   5.023
95079SOL     OW87069  12.211   9.069  10.519
95079SOL    HW187070  12.179   9.155  10.492
95079SOL    HW287071  12.301   9.084  10.548
95080SOL     OW87072   4.273   9.312   8.592
95080SOL    HW187073   4.367   9.299   8.605
95080SOL    HW287074   4.236   9.224   8.592
95081SOL     OW87075   6.934   5.450  11.528
95081SOL    HW187076   6.890   5.469  11.444
95081SOL    HW287077   6.866   5.463  11.594
95082SOL     OW87078  14.045   8.644  10.617
95082SOL    HW187079  14.040   8.572  10.680
95082SOL    HW287080  14.113   8.702  10.651
95083SOL     OW87081  12.754  12.632   5.716
95083SOL    HW187082  12.677  12.628   5.772
95083SOL    HW287083  12.777  12.725   5.714
95084SOL     OW87084  12.143   3.880   1.887
95084SOL    HW187085  12.195   3.800   1.890
95084SOL    HW287086  12.091   3.878   1.968
95085SOL     OW87087  12.379  14.752   5.290
95085SOL    HW187088  12.320  14.738   5.216
95085SOL    HW287089  12.332  14.811   5.347
95086SOL     OW87090  13.737  10.873   4.885
95086SOL    HW187091  13.764  10.784   4.864
95086SOL    HW287092  13.707  10.869   4.976
95087SOL     OW87093   7.761   5.852   5.079
95087SOL    HW187094   7.847   5.816   5.099
95087SOL    HW287095   7.775   5.910   5.005
95088SOL     OW87096   9.744   0.972   6.203
95088SOL    HW187097   9.666   0.946   6.153
95088SOL    HW287098   9.730   0.934   6.290
95089SOL     OW87099   7.216   3.547   8.924
95089SOL    HW187100   7.127   3.521   8.899
95089SOL    HW287101   7.273   3.481   8.884
95090SOL     OW87102  12.700   8.399   3.075
95090SOL    HW187103  12.676   8.319   3.027
95090SOL    HW287104  12.790   8.417   3.049
95091SOL     OW87105  12.825   5.229   3.907
95091SOL    HW187106  12.756   5.227   3.841
95091SOL    HW287107  12.807   5.154   3.964
95092SOL     OW87108   6.846   6.143   4.852
95092SOL    HW187109   6.790   6.215   4.824
95092SOL    HW287110   6.878   6.169   4.938
95093SOL     OW87111   4.455   3.269   2.523
95093SOL    HW187112   4.545   3.262   2.490
95093SOL    HW287113   4.408   3.317   2.455
95094SOL     OW87114   0.001  10.820   9.537
95094SOL    HW187115   0.067  10.779   9.594
95094SOL    HW287116   0.018  10.782   9.451
95095SOL     OW87117   8.543   5.171   3.184
95095SOL    HW187118   8.451   5.183   3.208
95095SOL    HW287119   8.586   5.147   3.266
95096SOL     OW87120  11.173   2.870   2.068
95096SOL    HW187121  11.115   2.941   2.097
95096SOL    HW287122  11.179   2.812   2.143
95097SOL     OW87123   9.843  12.106  12.731
95097SOL    HW187124   9.892  12.187  12.742
95097SOL    HW287125   9.813  12.084  12.820
95098SOL     OW87126  12.053  14.864  13.794
95098SOL    HW187127  12.042  14.795  13.728
95098SOL    HW287128  12.037   0.066  13.747
95099SOL     OW87129   4.161   9.000   3.921
95099SOL    HW187130   4.171   9.072   3.859
95099SOL    HW287131   4.231   9.014   3.985
95100SOL     OW87132   2.240   3.299   1.853
95100SOL    HW187133   2.157   3.328   1.891
95100SOL    HW287134   2.307   3.338   1.909
95101SOL     OW87135   4.694   7.356   1.043
95101SOL    HW187136   4.629   7.286   1.036
95101SOL    HW287137   4.774   7.318   1.007
95102SOL     OW87138  12.260   9.427   7.073
95102SOL    HW187139  12.315   9.501   7.097
95102SOL    HW287140  12.321   9.357   7.049
95103SOL     OW87141   3.760  11.237   1.018
95103SOL    HW187142   3.807  11.274   0.943
95103SOL    HW287143   3.687  11.297   1.033
95104SOL     OW87144  11.315  10.799  13.003
95104SOL    HW187145  11.331  10.842  12.919
95104SOL    HW287146  11.343  10.864  13.068
95105SOL     OW87147  12.998   0.468   0.528
95105SOL    HW187148  12.979   0.436   0.440
95105SOL    HW287149  13.088   0.501   0.523
95106SOL     OW87150   4.769   5.999   9.646
95106SOL    HW187151   4.714   6.024   9.572
95106SOL    HW287152   4.707   5.966   9.711
95107SOL     OW87153  11.761  14.364  11.695
95107SOL    HW187154  11.712  14.282  11.706
95107SOL    HW287155  11.742  14.414  11.774
95108SOL     OW87156   1.191  13.211   5.678
95108SOL    HW187157   1.263  13.164   5.637
95108SOL    HW287158   1.120  13.147   5.684
95109SOL     OW87159   0.204  13.063   4.517
95109SOL    HW187160   0.142  13.096   4.452
95109SOL    HW287161   0.290  13.091   4.486
95110SOL     OW87162   0.616   6.294  14.127
95110SOL    HW187163   0.635   6.201  14.110
95110SOL    HW287164   0.702   6.336  14.127
95111SOL     OW87165   5.590   2.775   2.323
95111SOL    HW187166   5.578   2.869   2.314
95111SOL    HW287167   5.677   2.766   2.363
95112SOL     OW87168   2.551   2.900  14.623
95112SOL    HW187169   2.575   2.810  14.602
95112SOL    HW287170   2.584   2.913  14.712
95113SOL     OW87171   0.038  10.112   1.580
95113SOL    HW187172   0.070  10.109   1.490
95113SOL    HW287173   0.089  10.045   1.626
95114SOL     OW87174  10.329   9.037   9.482
95114SOL    HW187175  10.317   9.023   9.388
95114SOL    HW287176  10.240   9.045   9.516
95115SOL     OW87177   3.743  11.560   8.474
95115SOL    HW187178   3.662  11.511   8.488
95115SOL    HW287179   3.810  11.507   8.516
95116SOL     OW87180   4.567   1.368   3.755
95116SOL    HW187181   4.599   1.289   3.799
95116SOL    HW287182   4.560   1.433   3.825
95117SOL     OW87183   2.909  11.209   7.650
95117SOL    HW187184   2.905  11.120   7.686
95117SOL    HW287185   2.951  11.198   7.565
95118SOL     OW87186  13.193  10.225   9.209
95118SOL    HW187187  13.223  10.292   9.270
95118SOL    HW287188  13.105  10.202   9.240
95119SOL     OW87189   1.528   3.720   9.400
95119SOL    HW187190   1.450   3.769   9.374
95119SOL    HW287191   1.498   3.629   9.406
95120SOL     OW87192   1.593   0.067   2.491
95120SOL    HW187193   1.597   0.150   2.444
95120SOL    HW287194   1.532   0.084   2.563
95121SOL     OW87195  11.615   2.733   7.498
95121SOL    HW187196  11.671   2.666   7.459
95121SOL    HW287197  11.624   2.809   7.440
95122SOL     OW87198   6.252   3.824  14.669
95122SOL    HW187199   6.207   3.854  14.591
95122SOL    HW287200   6.202   3.748  14.699
95123SOL     OW87201  12.929  11.521  13.528
95123SOL    HW187202  12.974  11.581  13.587
95123SOL    HW287203  12.920  11.440  13.578
95124SOL     OW87204  10.482   9.776   1.766
95124SOL    HW187205  10.566   9.745   1.731
95124SOL    HW287206  10.451   9.838   1.700
95125SOL     OW87207   9.041   0.369   3.296
95125SOL    HW187208   8.962   0.383   3.348
95125SOL    HW287209   9.017   0.299   3.235
95126SOL     OW87210   6.882  13.382   9.593
95126SOL    HW187211   6.809  13.344   9.641
95126SOL    HW287212   6.950  13.314   9.595
95127SOL     OW87213   8.539   7.330   0.289
95127SOL    HW187214   8.452   7.362   0.311
95127SOL    HW287215   8.526   7.275   0.211
95128SOL     OW87216  14.649   5.670  13.898
95128SOL    HW187217  14.731   5.719  13.889
95128SOL    HW287218  14.591   5.711  13.834
95129SOL     OW87219  13.650  14.763   5.148
95129SOL    HW187220  13.636  14.807   5.064
95129SOL    HW287221  13.695  14.827   5.202
95130SOL     OW87222   7.429   5.554   0.603
95130SOL    HW187223   7.384   5.480   0.563
95130SOL    HW287224   7.477   5.515   0.677
95131SOL     OW87225  13.363   5.484   0.202
95131SOL    HW187226  13.363   5.427   0.125
95131SOL    HW287227  13.432   5.449   0.258
95132SOL     OW87228   0.350   1.016   7.080
95132SOL    HW187229   0.292   0.948   7.045
95132SOL    HW287230   0.362   1.076   7.007
95133SOL     OW87231  13.964  11.257   5.842
95133SOL    HW187232  13.886  11.203   5.855
95133SOL    HW287233  14.024  11.230   5.912
95134SOL     OW87234   6.983   5.744  13.297
95134SOL    HW187235   6.978   5.786  13.382
95134SOL    HW287236   7.066   5.772  13.260
95135SOL     OW87237  10.170   3.992  14.193
95135SOL    HW187238  10.180   3.929  14.123
95135SOL    HW287239  10.249   4.046  14.188
95136SOL     OW87240   9.852   8.012   2.599
95136SOL    HW187241   9.901   8.087   2.632
95136SOL    HW287242   9.904   7.980   2.525
95137SOL     OW87243   8.321   0.430   4.875
95137SOL    HW187244   8.271   0.480   4.940
95137SOL    HW287245   8.272   0.439   4.794
95138SOL     OW87246  12.766   9.291   4.609
95138SOL    HW187247  12.710   9.343   4.551
95138SOL    HW287248  12.771   9.205   4.567
95139SOL     OW87249  13.935   5.444  14.023
95139SOL    HW187250  14.024   5.424  14.053
95139SOL    HW287251  13.937   5.538  14.006
95140SOL     OW87252  12.041   2.600   6.301
95140SOL    HW187253  12.016   2.690   6.323
95140SOL    HW287254  11.984   2.546   6.355
95141SOL     OW87255  10.252   6.588   7.793
95141SOL    HW187256  10.242   6.683   7.790
95141SOL    HW287257  10.341   6.573   7.761
95142SOL     OW87258   8.568  13.527   1.346
95142SOL    HW187259   8.500  13.500   1.408
95142SOL    HW287260   8.600  13.446   1.308
95143SOL     OW87261  14.101  11.219   6.567
95143SOL    HW187262  14.079  11.170   6.488
95143SOL    HW287263  14.018  11.228   6.614
95144SOL     OW87264   0.976  12.986   2.297
95144SOL    HW187265   1.056  13.019   2.338
95144SOL    HW287266   0.921  13.063   2.287
95145SOL     OW87267   3.650   4.929  11.424
95145SOL    HW187268   3.730   4.978  11.443
95145SOL    HW287269   3.655   4.852  11.481
95146SOL     OW87270   1.415  11.933   6.774
95146SOL    HW187271   1.357  12.002   6.805
95146SOL    HW287272   1.466  11.907   6.851
95147SOL     OW87273   8.889  13.692  10.406
95147SOL    HW187274   8.970  13.644  10.422
95147SOL    HW287275   8.873  13.680  10.312
95148SOL     OW87276   1.286   0.214  11.215
95148SOL    HW187277   1.294   0.286  11.151
95148SOL    HW287278   1.247   0.142  11.165
95149SOL     OW87279   9.903  11.183   6.584
95149SOL    HW187280   9.941  11.114   6.529
95149SOL    HW287281   9.920  11.264   6.537
95150SOL     OW87282  12.015   5.794   0.230
95150SOL    HW187283  12.036   5.820   0.140
95150SOL    HW287284  12.100   5.774   0.269
95151SOL     OW87285   4.192   8.904   1.293
95151SOL    HW187286   4.141   8.982   1.271
95151SOL    HW287287   4.139   8.859   1.359
95152SOL     OW87288   7.978  13.770   1.938
95152SOL    HW187289   7.921  13.723   1.877
95152SOL    HW287290   8.043  13.813   1.882
95153SOL     OW87291  13.861   2.458  11.708
95153SOL    HW187292  13.895   2.527  11.765
95153SOL    HW287293  13.802   2.408  11.764
95154SOL     OW87294  14.042   5.697  14.628
95154SOL    HW187295  14.052   5.787  14.595
95154SOL    HW287296  14.094   5.696  14.708
95155SOL     OW87297  10.969   5.726   2.566
95155SOL    HW187298  10.950   5.662   2.636
95155SOL    HW287299  11.064   5.722   2.556
95156SOL     OW87300   4.349  11.296   4.440
95156SOL    HW187301   4.398  11.379   4.445
95156SOL    HW287302   4.257  11.323   4.435
95157SOL     OW87303   8.877  14.287  14.014
95157SOL    HW187304   8.830  14.240  14.083
95157SOL    HW287305   8.910  14.218  13.957
95158SOL     OW87306  13.946   0.935   3.477
95158SOL    HW187307  14.035   0.968   3.463
95158SOL    HW287308  13.917   0.905   3.391
95159SOL     OW87309  12.948  14.557  12.463
95159SOL    HW187310  12.930  14.464  12.450
95159SOL    HW287311  12.948  14.568  12.558
95160SOL     OW87312  12.263   3.698   5.226
95160SOL    HW187313  12.192   3.644   5.262
95160SOL    HW287314  12.282   3.658   5.141
95161SOL     OW87315   0.185   3.002   7.036
95161SOL    HW187316   0.146   3.039   7.115
95161SOL    HW287317   0.259   2.950   7.068
95162SOL     OW87318  11.765   9.790   3.166
95162SOL    HW187319  11.706   9.719   3.142
95162SOL    HW287320  11.709   9.866   3.176
95163SOL     OW87321   3.676   0.470  13.884
95163SOL    HW187322   3.610   0.403  13.867
95163SOL    HW287323   3.630   0.553  13.870
95164SOL     OW87324   4.521   7.876   9.340
95164SOL    HW187325   4.609   7.875   9.378
95164SOL    HW287326   4.531   7.832   9.256
95165SOL     OW87327  14.678  12.235   6.652
95165SOL    HW187328  14.765  12.203   6.627
95165SOL    HW287329  14.620  12.161   6.635
95166SOL     OW87330   8.477   1.381  10.223
95166SOL    HW187331   8.535   1.363  10.149
95166SOL    HW287332   8.405   1.319  10.213
95167SOL     OW87333   6.684   4.520   1.807
95167SOL    HW187334   6.640   4.551   1.886
95167SOL    HW287335   6.746   4.454   1.837
95168SOL     OW87336   0.895  14.401  12.481
95168SOL    HW187337   0.855  14.485  12.458
95168SOL    HW287338   0.925  14.413  12.571
95169SOL     OW87339  14.001  12.010   0.378
95169SOL    HW187340  13.992  11.998   0.284
95169SOL    HW287341  14.029  12.101   0.389
95170SOL     OW87342  11.894  14.169   8.799
95170SOL    HW187343  11.987  14.169   8.822
95170SOL    HW287344  11.891  14.131   8.712
95171SOL     OW87345  11.143   5.734   0.456
95171SOL    HW187346  11.175   5.684   0.381
95171SOL    HW287347  11.064   5.687   0.483
95172SOL     OW87348  10.933   8.181   0.191
95172SOL    HW187349  10.974   8.267   0.186
95172SOL    HW287350  10.993   8.123   0.144
95173SOL     OW87351   1.819   7.674   0.863
95173SOL    HW187352   1.897   7.634   0.825
95173SOL    HW287353   1.837   7.677   0.957
95174SOL     OW87354   5.828   6.807   9.208
95174SOL    HW187355   5.737   6.826   9.229
95174SOL    HW287356   5.838   6.713   9.227
95175SOL     OW87357  11.047   0.328   5.489
95175SOL    HW187358  10.992   0.286   5.423
95175SOL    HW287359  11.011   0.416   5.498
95176SOL     OW87360   0.614   7.166   0.825
95176SOL    HW187361   0.526   7.131   0.833
95176SOL    HW287362   0.671   7.092   0.846
95177SOL     OW87363  14.274   9.689   7.191
95177SOL    HW187364  14.331   9.685   7.268
95177SOL    HW287365  14.232   9.774   7.198
95178SOL     OW87366  10.744   9.624   5.732
95178SOL    HW187367  10.718   9.594   5.819
95178SOL    HW287368  10.677   9.590   5.673
95179SOL     OW87369   0.038  10.831   5.237
95179SOL    HW187370   0.004  10.901   5.181
95179SOL    HW287371   0.116  10.800   5.191
95180SOL     OW87372   9.745  14.012   8.827
95180SOL    HW187373   9.796  14.075   8.776
95180SOL    HW287374   9.805  13.939   8.840
95181SOL     OW87375   4.239   1.874   6.116
95181SOL    HW187376   4.267   1.823   6.041
95181SOL    HW287377   4.174   1.818   6.160
95182SOL     OW87378  11.879  13.710  10.143
95182SOL    HW187379  11.841  13.671  10.065
95182SOL    HW287380  11.814  13.773  10.173
95183SOL     OW87381   4.218   2.426   3.834
95183SOL    HW187382   4.280   2.494   3.809
95183SOL    HW287383   4.186   2.391   3.751
95184SOL     OW87384   9.917   6.460   6.008
95184SOL    HW187385   9.889   6.435   6.096
95184SOL    HW287386   9.987   6.399   5.986
95185SOL     OW87387   9.813  10.503   3.017
95185SOL    HW187388   9.842  10.594   3.025
95185SOL    HW287389   9.721  10.504   3.045
95186SOL     OW87390  14.641   9.922   4.970
95186SOL    HW187391  14.701   9.987   5.007
95186SOL    HW287392  14.559   9.935   5.018
95187SOL     OW87393  14.248   9.846   6.721
95187SOL    HW187394  14.268   9.753   6.725
95187SOL    HW287395  14.319   9.888   6.770
95188SOL     OW87396  11.248  13.319   0.070
95188SOL    HW187397  11.182  13.271   0.020
95188SOL    HW287398  11.331  13.294   0.030
95189SOL     OW87399   3.220   2.505   2.242
95189SOL    HW187400   3.288   2.558   2.283
95189SOL    HW287401   3.202   2.436   2.306
95190SOL     OW87402   1.734   9.897  14.797
95190SOL    HW187403   1.775   9.813  14.816
95190SOL    HW287404   1.652   9.895  14.847
95191SOL     OW87405   6.304  12.267   0.795
95191SOL    HW187406   6.330  12.275   0.887
95191SOL    HW287407   6.319  12.175   0.775
95192SOL     OW87408  14.752   9.818   9.617
95192SOL    HW187409  14.777   9.880   9.549
95192SOL    HW287410  14.728   9.872   9.692
95193SOL     OW87411   6.397  10.064   7.576
95193SOL    HW187412   6.352  10.040   7.657
95193SOL    HW287413   6.426  10.154   7.590
95194SOL     OW87414  12.474   9.440  12.709
95194SOL    HW187415  12.521   9.357  12.704
95194SOL    HW287416  12.382   9.417  12.706
95195SOL     OW87417   1.546   1.197   9.409
95195SOL    HW187418   1.549   1.108   9.446
95195SOL    HW287419   1.497   1.248   9.473
95196SOL     OW87420   8.497   5.525   4.002
95196SOL    HW187421   8.422   5.549   4.057
95196SOL    HW287422   8.468   5.446   3.955
95197SOL     OW87423   8.771   3.731   2.836
95197SOL    HW187424   8.711   3.791   2.880
95197SOL    HW287425   8.827   3.787   2.784
95198SOL     OW87426   8.729   3.988  14.170
95198SOL    HW187427   8.824   3.979  14.172
95198SOL    HW287428   8.700   3.921  14.108
95199SOL     OW87429  14.618  10.171  12.289
95199SOL    HW187430  14.599  10.220  12.369
95199SOL    HW287431  14.678  10.228  12.240
95200SOL     OW87432   6.464   7.767  10.207
95200SOL    HW187433   6.388   7.708  10.207
95200SOL    HW287434   6.426   7.854  10.221
95201SOL     OW87435   8.051   6.654   5.760
95201SOL    HW187436   8.105   6.731   5.774
95201SOL    HW287437   8.106   6.581   5.786
95202SOL     OW87438   0.307   3.178  12.569
95202SOL    HW187439   0.307   3.196  12.475
95202SOL    HW287440   0.260   3.252  12.607
95203SOL     OW87441   5.408   9.148   3.588
95203SOL    HW187442   5.443   9.146   3.677
95203SOL    HW287443   5.359   9.230   3.583
95204SOL     OW87444   8.362   5.379   2.187
95204SOL    HW187445   8.441   5.377   2.134
95204SOL    HW287446   8.354   5.470   2.215
95205SOL     OW87447   1.240   1.800   4.047
95205SOL    HW187448   1.273   1.760   4.128
95205SOL    HW287449   1.275   1.745   3.977
95206SOL     OW87450  13.650   6.303  11.938
95206SOL    HW187451  13.684   6.233  11.993
95206SOL    HW287452  13.696   6.292  11.855
95207SOL     OW87453  12.432   0.648   9.249
95207SOL    HW187454  12.373   0.671   9.177
95207SOL    HW287455  12.374   0.629   9.323
95208SOL     OW87456   7.575   7.295  10.739
95208SOL    HW187457   7.492   7.314  10.696
95208SOL    HW287458   7.552   7.231  10.807
95209SOL     OW87459   9.271  14.748   1.941
95209SOL    HW187460   9.279  14.821   2.002
95209SOL    HW287461   9.357  14.743   1.898
95210SOL     OW87462   6.438   5.771   8.829
95210SOL    HW187463   6.500   5.842   8.846
95210SOL    HW287464   6.388   5.801   8.752
95211SOL     OW87465  14.149  12.244   0.448
95211SOL    HW187466  14.215  12.310   0.428
95211SOL    HW287467  14.175  12.209   0.533
95212SOL     OW87468   5.863  14.774  14.068
95212SOL    HW187469   5.931  14.824  14.111
95212SOL    HW287470   5.784  14.789  14.121
95213SOL     OW87471   8.228  12.803   3.727
95213SOL    HW187472   8.230  12.721   3.678
95213SOL    HW287473   8.178  12.782   3.806
95214SOL     OW87474  11.240   1.034   0.281
95214SOL    HW187475  11.178   0.997   0.218
95214SOL    HW287476  11.233   0.977   0.357
95215SOL     OW87477   9.178  10.373   6.233
95215SOL    HW187478   9.168  10.466   6.254
95215SOL    HW287479   9.242  10.371   6.161
95216SOL     OW87480   8.453   1.085   3.667
95216SOL    HW187481   8.520   1.135   3.713
95216SOL    HW287482   8.447   1.002   3.716
95217SOL     OW87483   0.744  12.828  11.852
95217SOL    HW187484   0.743  12.744  11.805
95217SOL    HW287485   0.801  12.812  11.927
95218SOL     OW87486   9.784   2.595   3.213
95218SOL    HW187487   9.749   2.512   3.181
95218SOL    HW287488   9.770   2.657   3.142
95219SOL     OW87489  12.218  13.802   6.253
95219SOL    HW187490  12.147  13.741   6.274
95219SOL    HW287491  12.182  13.888   6.273
95220SOL     OW87492   3.855   3.295   5.922
95220SOL    HW187493   3.881   3.282   6.013
95220SOL    HW287494   3.937   3.307   5.875
95221SOL     OW87495   4.251  13.332   9.684
95221SOL    HW187496   4.328  13.275   9.682
95221SOL    HW287497   4.190  13.292   9.623
95222SOL     OW87498   8.270   6.924   2.635
95222SOL    HW187499   8.196   6.867   2.613
95222SOL    HW287500   8.306   6.886   2.715
95223SOL     OW87501  10.654   0.359   3.763
95223SOL    HW187502  10.560   0.362   3.744
95223SOL    HW287503  10.695   0.371   3.677
95224SOL     OW87504  10.111  14.691  12.153
95224SOL    HW187505  10.135  14.599  12.163
95224SOL    HW287506  10.176  14.739  12.204
95225SOL     OW87507   9.084   2.968   6.768
95225SOL    HW187508   9.041   2.909   6.830
95225SOL    HW287509   9.160   3.002   6.815
95226SOL     OW87510  11.039   5.599  14.278
95226SOL    HW187511  11.125   5.559  14.283
95226SOL    HW287512  10.987   5.539  14.224
95227SOL     OW87513   4.711  11.432   1.232
95227SOL    HW187514   4.633  11.395   1.274
95227SOL    HW287515   4.766  11.357   1.212
95228SOL     OW87516  10.514   0.662   3.715
95228SOL    HW187517  10.464   0.671   3.634
95228SOL    HW287518  10.512   0.568   3.734
95229SOL     OW87519   2.117   1.960  14.142
95229SOL    HW187520   2.148   1.895  14.080
95229SOL    HW287521   2.138   2.044  14.100
95230SOL     OW87522  12.792   1.789   0.575
95230SOL    HW187523  12.871   1.786   0.629
95230SOL    HW287524  12.720   1.788   0.638
95231SOL     OW87525   4.116   8.751   8.158
95231SOL    HW187526   4.153   8.834   8.188
95231SOL    HW287527   4.054   8.777   8.089
95232SOL     OW87528   7.133  12.315   5.660
95232SOL    HW187529   7.056  12.347   5.613
95232SOL    HW287530   7.129  12.220   5.650
95233SOL     OW87531  14.597   9.003   3.207
95233SOL    HW187532  14.681   9.030   3.169
95233SOL    HW287533  14.612   9.006   3.301
95234SOL     OW87534   5.067  10.957   7.175
95234SOL    HW187535   5.154  10.988   7.149
95234SOL    HW287536   5.082  10.865   7.200
95235SOL     OW87537   6.180   5.399  12.028
95235SOL    HW187538   6.134   5.340  11.968
95235SOL    HW287539   6.115   5.466  12.049
95236SOL     OW87540   9.832  13.122  10.873
95236SOL    HW187541   9.915  13.137  10.828
95236SOL    HW287542   9.766  13.132  10.805
95237SOL     OW87543   5.757  14.858   9.805
95237SOL    HW187544   5.710  14.869   9.888
95237SOL    HW287545   5.771   0.068   9.773
95238SOL     OW87546   7.015   1.730   9.925
95238SOL    HW187547   7.065   1.685   9.856
95238SOL    HW287548   7.022   1.672  10.001
95239SOL     OW87549   7.233   3.899   7.244
95239SOL    HW187550   7.294   3.847   7.191
95239SOL    HW287551   7.273   3.986   7.248
95240SOL     OW87552   9.902   2.412   0.282
95240SOL    HW187553   9.974   2.470   0.308
95240SOL    HW287554   9.936   2.324   0.295
95241SOL     OW87555   0.950  13.947  14.872
95241SOL    HW187556   0.986  14.000   0.064
95241SOL    HW287557   0.947  13.858   0.028
95242SOL     OW87558   4.450   6.104   1.527
95242SOL    HW187559   4.399   6.083   1.449
95242SOL    HW287560   4.481   6.193   1.513
95243SOL     OW87561   5.265   0.848   3.518
95243SOL    HW187562   5.350   0.892   3.519
95243SOL    HW287563   5.268   0.793   3.439
95244SOL     OW87564   5.602   6.302   4.498
95244SOL    HW187565   5.554   6.383   4.513
95244SOL    HW287566   5.664   6.324   4.428
95245SOL     OW87567   4.956  14.196  11.456
95245SOL    HW187568   4.866  14.164  11.448
95245SOL    HW287569   5.011  14.118  11.448
95246SOL     OW87570   4.779   9.257  13.802
95246SOL    HW187571   4.711   9.220  13.858
95246SOL    HW287572   4.787   9.348  13.831
95247SOL     OW87573   4.342  10.975   9.363
95247SOL    HW187574   4.342  11.054   9.311
95247SOL    HW287575   4.329  10.904   9.300
95248SOL     OW87576   7.819  13.803  14.335
95248SOL    HW187577   7.762  13.807  14.411
95248SOL    HW287578   7.795  13.879  14.282
95249SOL     OW87579   2.255  10.598  13.643
95249SOL    HW187580   2.180  10.645  13.680
95249SOL    HW287581   2.295  10.660  13.581
95250SOL     OW87582  10.980   6.645  14.431
95250SOL    HW187583  10.885   6.644  14.437
95250SOL    HW287584  11.008   6.570  14.483
95251SOL     OW87585   3.561   4.645  14.570
95251SOL    HW187586   3.529   4.720  14.620
95251SOL    HW287587   3.531   4.569  14.620
95252SOL     OW87588  11.086   3.161  11.279
95252SOL    HW187589  11.094   3.066  11.283
95252SOL    HW287590  11.091   3.189  11.370
95253SOL     OW87591   3.370   7.226   1.863
95253SOL    HW187592   3.370   7.191   1.774
95253SOL    HW287593   3.413   7.311   1.855
95254SOL     OW87594   4.906   8.316  14.381
95254SOL    HW187595   4.911   8.280  14.470
95254SOL    HW287596   4.900   8.411  14.393
95255SOL     OW87597   9.935  12.092  11.127
95255SOL    HW187598   9.910  12.063  11.215
95255SOL    HW287599   9.855  12.132  11.092
95256SOL     OW87600   7.892   9.304  13.371
95256SOL    HW187601   7.961   9.370  13.373
95256SOL    HW287602   7.930   9.228  13.415
95257SOL     OW87603   8.517   6.528   0.016
95257SOL    HW187604   8.446   6.569   0.067
95257SOL    HW287605   8.547   6.456   0.071
95258SOL     OW87606   3.444   8.973   0.728
95258SOL    HW187607   3.476   9.003   0.643
95258SOL    HW287608   3.500   8.900   0.751
95259SOL     OW87609   0.663  14.400   5.351
95259SOL    HW187610   0.715  14.387   5.271
95259SOL    HW287611   0.711  14.350   5.417
95260SOL     OW87612  10.247  14.606  14.596
95260SOL    HW187613  10.261  14.576  14.507
95260SOL    HW287614  10.288  14.539  14.651
95261SOL     OW87615   1.834   9.625   0.299
95261SOL    HW187616   1.742   9.623   0.325
95261SOL    HW287617   1.877   9.675   0.368
95262SOL     OW87618  10.723   3.849   6.885
95262SOL    HW187619  10.685   3.775   6.932
95262SOL    HW287620  10.690   3.840   6.795
95263SOL     OW87621   9.898   0.198  13.778
95263SOL    HW187622   9.803   0.207  13.787
95263SOL    HW287623   9.932   0.284  13.805
95264SOL     OW87624   3.987   5.591  12.657
95264SOL    HW187625   4.021   5.648  12.588
95264SOL    HW287626   3.932   5.648  12.711
95265SOL     OW87627  11.727  12.743   0.604
95265SOL    HW187628  11.791  12.712   0.667
95265SOL    HW287629  11.667  12.669   0.592
95266SOL     OW87630   9.342   7.059  10.288
95266SOL    HW187631   9.412   7.092  10.231
95266SOL    HW287632   9.388   7.010  10.356
95267SOL     OW87633   7.817   8.726   1.773
95267SOL    HW187634   7.764   8.713   1.853
95267SOL    HW287635   7.762   8.780   1.717
95268SOL     OW87636   0.870   4.535   5.938
95268SOL    HW187637   0.776   4.540   5.920
95268SOL    HW287638   0.893   4.620   5.974
95269SOL     OW87639   8.048   3.006   9.877
95269SOL    HW187640   8.089   3.087   9.909
95269SOL    HW287641   7.955   3.026   9.873
95270SOL     OW87642   9.012  14.619   0.090
95270SOL    HW187643   9.025  14.684   0.159
95270SOL    HW287644   9.032  14.535   0.131
95271SOL     OW87645  10.596  10.736  12.272
95271SOL    HW187646  10.585  10.646  12.303
95271SOL    HW287647  10.520  10.751  12.215
95272SOL     OW87648  13.717   9.213   2.468
95272SOL    HW187649  13.661   9.232   2.543
95272SOL    HW287650  13.770   9.139   2.495
95273SOL     OW87651  14.464   6.728  14.748
95273SOL    HW187652  14.410   6.737  14.826
95273SOL    HW287653  14.510   6.644  14.760
95274SOL     OW87654  13.527   2.848   5.919
95274SOL    HW187655  13.575   2.879   5.843
95274SOL    HW287656  13.448   2.808   5.882
95275SOL     OW87657  10.979   5.721  11.653
95275SOL    HW187658  10.982   5.748  11.562
95275SOL    HW287659  10.914   5.779  11.693
95276SOL     OW87660  11.123   9.931   4.658
95276SOL    HW187661  11.062   9.930   4.732
95276SOL    HW287662  11.104   9.850   4.610
95277SOL     OW87663  13.546   6.822   8.014
95277SOL    HW187664  13.526   6.845   7.924
95277SOL    HW287665  13.514   6.897   8.065
95278SOL     OW87666   8.554   4.571   3.116
95278SOL    HW187667   8.632   4.624   3.101
95278SOL    HW287668   8.481   4.627   3.091
95279SOL     OW87669  10.470  10.092  10.451
95279SOL    HW187670  10.381  10.078  10.419
95279SOL    HW287671  10.494  10.009  10.492
95280SOL     OW87672   3.113   3.004   5.832
95280SOL    HW187673   3.027   2.974   5.802
95280SOL    HW287674   3.159   2.923   5.857
95281SOL     OW87675  11.795  13.222  13.373
95281SOL    HW187676  11.845  13.266  13.441
95281SOL    HW287677  11.769  13.292  13.313
95282SOL     OW87678  11.059  13.914   5.855
95282SOL    HW187679  11.044  13.973   5.782
95282SOL    HW287680  11.064  13.827   5.816
95283SOL     OW87681   5.916   2.642   0.814
95283SOL    HW187682   5.852   2.601   0.873
95283SOL    HW287683   5.915   2.735   0.839
95284SOL     OW87684   3.562   3.221   9.396
95284SOL    HW187685   3.522   3.144   9.436
95284SOL    HW287686   3.523   3.226   9.309
95285SOL     OW87687   5.850   6.944   6.503
95285SOL    HW187688   5.835   6.898   6.586
95285SOL    HW287689   5.848   7.036   6.526
95286SOL     OW87690  13.412   8.173   8.902
95286SOL    HW187691  13.482   8.237   8.886
95286SOL    HW287692  13.333   8.226   8.913
95287SOL     OW87693   4.597  14.112   6.856
95287SOL    HW187694   4.655  14.177   6.815
95287SOL    HW287695   4.626  14.109   6.947
95288SOL     OW87696   0.145   1.364   3.767
95288SOL    HW187697   0.117   1.287   3.719
95288SOL    HW287698   0.093   1.363   3.848
95289SOL     OW87699  13.370   5.697  14.763
95289SOL    HW187700  13.293   5.705  14.707
95289SOL    HW287701  13.345   5.741  14.844
95290SOL     OW87702   0.890   5.403   2.332
95290SOL    HW187703   0.821   5.415   2.266
95290SOL    HW287704   0.859   5.451   2.408
95291SOL     OW87705   0.416   0.928   0.768
95291SOL    HW187706   0.468   1.008   0.772
95291SOL    HW287707   0.477   0.862   0.733
95292SOL     OW87708  12.755  13.565   1.218
95292SOL    HW187709  12.751  13.604   1.306
95292SOL    HW287710  12.827  13.611   1.175
95293SOL     OW87711   7.690   5.164  13.472
95293SOL    HW187712   7.757   5.158  13.404
95293SOL    HW287713   7.734   5.132  13.551
95294SOL     OW87714  14.350  14.659   4.036
95294SOL    HW187715  14.381  14.568   4.031
95294SOL    HW287716  14.428  14.710   4.057
95295SOL     OW87717   7.224  13.787   3.567
95295SOL    HW187718   7.205  13.842   3.643
95295SOL    HW287719   7.140  13.776   3.523
95296SOL     OW87720  12.441  14.042   6.341
95296SOL    HW187721  12.526  14.020   6.304
95296SOL    HW287722  12.461  14.073   6.429
95297SOL     OW87723   8.228  13.759   9.659
95297SOL    HW187724   8.193  13.672   9.679
95297SOL    HW287725   8.258  13.752   9.568
95298SOL     OW87726  14.674  11.558   3.504
95298SOL    HW187727  14.605  11.544   3.569
95298SOL    HW287728  14.740  11.610   3.549
95299SOL     OW87729   1.785  14.482   4.687
95299SOL    HW187730   1.876  14.512   4.690
95299SOL    HW287731   1.741  14.545   4.630
95300SOL     OW87732   9.402   0.082   9.496
95300SOL    HW187733   9.479   0.123   9.457
95300SOL    HW287734   9.340   0.074   9.424
95301SOL     OW87735   1.467   5.398   2.044
95301SOL    HW187736   1.403   5.460   2.008
95301SOL    HW287737   1.524   5.378   1.971
95302SOL     OW87738   1.611   0.007   0.839
95302SOL    HW187739   1.595  14.792   0.832
95302SOL    HW287740   1.571   0.033   0.923
95303SOL     OW87741  11.182  14.239   4.276
95303SOL    HW187742  11.256  14.202   4.227
95303SOL    HW287743  11.106  14.221   4.221
95304SOL     OW87744   1.762  10.971   1.162
95304SOL    HW187745   1.815  10.897   1.191
95304SOL    HW287746   1.673  10.949   1.189
95305SOL     OW87747   0.919   1.114  12.376
95305SOL    HW187748   0.827   1.102  12.352
95305SOL    HW287749   0.919   1.185  12.439
95306SOL     OW87750  13.097   9.630  12.251
95306SOL    HW187751  13.124   9.583  12.330
95306SOL    HW287752  13.138   9.716  12.259
95307SOL     OW87753  13.023   6.389   1.850
95307SOL    HW187754  12.948   6.413   1.906
95307SOL    HW287755  13.090   6.454   1.872
95308SOL     OW87756   9.013   1.508   4.686
95308SOL    HW187757   9.031   1.475   4.774
95308SOL    HW287758   9.029   1.434   4.628
95309SOL     OW87759  14.588   7.507  11.272
95309SOL    HW187760  14.684   7.501  11.277
95309SOL    HW287761  14.572   7.551  11.188
95310SOL     OW87762  12.414  13.423   7.710
95310SOL    HW187763  12.407  13.406   7.616
95310SOL    HW287764  12.418  13.518   7.717
95311SOL     OW87765  14.325   3.765   2.227
95311SOL    HW187766  14.322   3.850   2.184
95311SOL    HW287767  14.250   3.765   2.287
95312SOL     OW87768   2.995  10.575  12.594
95312SOL    HW187769   3.023  10.499  12.544
95312SOL    HW287770   2.922  10.544  12.647
95313SOL     OW87771   8.891   2.107   1.532
95313SOL    HW187772   8.827   2.065   1.475
95313SOL    HW287773   8.953   2.038   1.555
95314SOL     OW87774   1.354   1.131  12.671
95314SOL    HW187775   1.341   1.132  12.577
95314SOL    HW287776   1.291   1.196  12.705
95315SOL     OW87777   5.369  14.781   4.779
95315SOL    HW187778   5.411  14.782   4.693
95315SOL    HW287779   5.310  14.856   4.777
95316SOL     OW87780   2.911   5.578   0.020
95316SOL    HW187781   2.968   5.594  14.824
95316SOL    HW287782   2.825   5.558  14.861
95317SOL     OW87783   5.148   0.381   2.893
95317SOL    HW187784   5.176   0.427   2.814
95317SOL    HW287785   5.089   0.443   2.936
95318SOL     OW87786   4.346  11.710  11.846
95318SOL    HW187787   4.267  11.657  11.852
95318SOL    HW287788   4.415  11.656  11.885
95319SOL     OW87789   5.154   1.632   6.639
95319SOL    HW187790   5.215   1.705   6.642
95319SOL    HW287791   5.122   1.622   6.728
95320SOL     OW87792   1.198  11.323   4.489
95320SOL    HW187793   1.201  11.358   4.400
95320SOL    HW287794   1.137  11.249   4.483
95321SOL     OW87795   4.420   7.044   2.111
95321SOL    HW187796   4.421   6.970   2.171
95321SOL    HW287797   4.354   7.103   2.146
95322SOL     OW87798  11.563  11.809   9.445
95322SOL    HW187799  11.617  11.881   9.414
95322SOL    HW287800  11.568  11.814   9.541
95323SOL     OW87801   8.333  13.494   1.507
95323SOL    HW187802   8.317  13.399   1.511
95323SOL    HW287803   8.255  13.528   1.462
95324SOL     OW87804   4.128   8.428   0.970
95324SOL    HW187805   4.122   8.364   0.899
95324SOL    HW287806   4.139   8.512   0.926
95325SOL     OW87807  11.491   1.262   9.414
95325SOL    HW187808  11.435   1.202   9.365
95325SOL    HW287809  11.536   1.314   9.347
95326SOL     OW87810  10.151  13.570  11.474
95326SOL    HW187811  10.147  13.641  11.410
95326SOL    HW287812  10.064  13.566  11.512
95327SOL     OW87813   7.282   0.917  11.471
95327SOL    HW187814   7.356   0.866  11.438
95327SOL    HW287815   7.319   1.003  11.490
95328SOL     OW87816  13.061  11.702   6.542
95328SOL    HW187817  12.986  11.676   6.596
95328SOL    HW287818  13.046  11.795   6.524
95329SOL     OW87819  10.536  13.540  10.121
95329SOL    HW187820  10.530  13.618  10.067
95329SOL    HW287821  10.452  13.496  10.109
95330SOL     OW87822  14.098   1.854   6.911
95330SOL    HW187823  14.089   1.937   6.864
95330SOL    HW287824  14.192   1.846   6.928
95331SOL     OW87825   3.810  10.173  13.368
95331SOL    HW187826   3.892  10.191  13.413
95331SOL    HW287827   3.749  10.149  13.437
95332SOL     OW87828   7.157   3.103  12.729
95332SOL    HW187829   7.071   3.117  12.692
95332SOL    HW287830   7.202   3.187  12.720
95333SOL     OW87831   0.488   1.275  14.192
95333SOL    HW187832   0.443   1.261  14.276
95333SOL    HW287833   0.565   1.218  14.197
95334SOL     OW87834  11.138   0.435   7.081
95334SOL    HW187835  11.054   0.436   7.128
95334SOL    HW287836  11.126   0.368   7.013
95335SOL     OW87837   3.704   8.570   9.280
95335SOL    HW187838   3.683   8.531   9.196
95335SOL    HW287839   3.654   8.518   9.344
95336SOL     OW87840  14.117  12.773   4.742
95336SOL    HW187841  14.038  12.734   4.705
95336SOL    HW287842  14.172  12.699   4.766
95337SOL     OW87843  11.509   6.510   5.882
95337SOL    HW187844  11.550   6.583   5.928
95337SOL    HW287845  11.581   6.453   5.857
95338SOL     OW87846   9.768   5.528   3.563
95338SOL    HW187847   9.845   5.585   3.567
95338SOL    HW287848   9.743   5.527   3.471
95339SOL     OW87849   6.905   1.303   3.338
95339SOL    HW187850   6.962   1.308   3.261
95339SOL    HW287851   6.954   1.249   3.400
95340SOL     OW87852   6.594  10.662   2.552
95340SOL    HW187853   6.662  10.694   2.612
95340SOL    HW287854   6.616  10.702   2.468
95341SOL     OW87855   2.176   1.616  11.118
95341SOL    HW187856   2.241   1.549  11.098
95341SOL    HW287857   2.136   1.588  11.200
95342SOL     OW87858   5.716  12.620   6.389
95342SOL    HW187859   5.698  12.535   6.349
95342SOL    HW287860   5.697  12.607   6.482
95343SOL     OW87861   8.766   5.742   5.784
95343SOL    HW187862   8.751   5.647   5.777
95343SOL    HW287863   8.846   5.758   5.735
95344SOL     OW87864   0.888  10.199   7.800
95344SOL    HW187865   0.879  10.133   7.732
95344SOL    HW287866   0.983  10.202   7.817
95345SOL     OW87867  11.109   4.627   5.681
95345SOL    HW187868  11.020   4.631   5.717
95345SOL    HW287869  11.110   4.690   5.610
95346SOL     OW87870   1.744   1.723  10.219
95346SOL    HW187871   1.655   1.694  10.233
95346SOL    HW287872   1.785   1.721  10.305
95347SOL     OW87873  11.494   6.128  10.331
95347SOL    HW187874  11.426   6.155  10.393
95347SOL    HW287875  11.576   6.135  10.380
95348SOL     OW87876   8.855   4.497  12.105
95348SOL    HW187877   8.928   4.473  12.049
95348SOL    HW287878   8.890   4.563  12.164
95349SOL     OW87879   8.234   1.756   8.210
95349SOL    HW187880   8.182   1.707   8.146
95349SOL    HW287881   8.309   1.700   8.229
95350SOL     OW87882  11.415  10.633  13.745
95350SOL    HW187883  11.428  10.727  13.733
95350SOL    HW287884  11.436  10.596  13.659
95351SOL     OW87885  13.385   8.700  11.809
95351SOL    HW187886  13.421   8.738  11.729
95351SOL    HW287887  13.456   8.707  11.873
95352SOL     OW87888  12.039   2.973   2.354
95352SOL    HW187889  12.107   2.978   2.288
95352SOL    HW287890  12.055   2.891   2.400
95353SOL     OW87891   9.745   6.514   2.904
95353SOL    HW187892   9.741   6.517   2.999
95353SOL    HW287893   9.685   6.443   2.880
95354SOL     OW87894   3.105  13.776   3.400
95354SOL    HW187895   3.149  13.768   3.315
95354SOL    HW287896   3.058  13.694   3.410
95355SOL     OW87897  14.245   6.566   2.380
95355SOL    HW187898  14.221   6.519   2.459
95355SOL    HW287899  14.318   6.623   2.407
95356SOL     OW87900   9.508   7.219  12.842
95356SOL    HW187901   9.519   7.236  12.749
95356SOL    HW287902   9.593   7.184  12.870
95357SOL     OW87903   3.093   6.835  12.029
95357SOL    HW187904   3.163   6.852  11.966
95357SOL    HW287905   3.043   6.916  12.032
95358SOL     OW87906   0.455   2.244   5.064
95358SOL    HW187907   0.373   2.195   5.059
95358SOL    HW287908   0.429   2.335   5.051
95359SOL     OW87909   1.606   7.815   5.775
95359SOL    HW187910   1.555   7.887   5.811
95359SOL    HW287911   1.697   7.844   5.783
95360SOL     OW87912   4.433   2.059   0.899
95360SOL    HW187913   4.444   1.978   0.950
95360SOL    HW287914   4.522   2.092   0.887
95361SOL     OW87915   2.959   8.625   4.245
95361SOL    HW187916   2.971   8.579   4.161
95361SOL    HW287917   2.920   8.709   4.221
95362SOL     OW87918   2.973   8.913  11.277
95362SOL    HW187919   2.905   8.872  11.330
95362SOL    HW287920   2.929   8.987  11.235
95363SOL     OW87921   2.932  10.849  14.222
95363SOL    HW187922   3.006  10.857  14.161
95363SOL    HW287923   2.966  10.884  14.305
95364SOL     OW87924   6.554  12.494   0.834
95364SOL    HW187925   6.492  12.512   0.763
95364SOL    HW287926   6.515  12.536   0.911
95365SOL     OW87927   0.129   7.799   6.857
95365SOL    HW187928   0.051   7.756   6.820
95365SOL    HW287929   0.202   7.754   6.815
95366SOL     OW87930   7.440  14.071   3.756
95366SOL    HW187931   7.513  14.099   3.812
95366SOL    HW287932   7.431  13.977   3.775
95367SOL     OW87933  10.952   3.061   0.174
95367SOL    HW187934  10.906   3.144   0.164
95367SOL    HW287935  11.002   3.051   0.093
95368SOL     OW87936   7.377   9.668   3.173
95368SOL    HW187937   7.407   9.650   3.084
95368SOL    HW287938   7.298   9.722   3.162
95369SOL     OW87939  14.044  10.325  13.354
95369SOL    HW187940  14.129  10.314  13.313
95369SOL    HW287941  14.053  10.285  13.440
95370SOL     OW87942   0.507   6.278  13.368
95370SOL    HW187943   0.461   6.194  13.361
95370SOL    HW287944   0.559   6.270  13.448
95371SOL     OW87945   7.867   1.220  13.452
95371SOL    HW187946   7.942   1.262  13.495
95371SOL    HW287947   7.848   1.276  13.377
95372SOL     OW87948  14.842   7.192  13.066
95372SOL    HW187949   0.001   7.211  13.152
95372SOL    HW287950   0.005   7.255  13.007
95373SOL     OW87951   7.683   8.015   4.421
95373SOL    HW187952   7.651   8.065   4.345
95373SOL    HW287953   7.624   8.038   4.492
95374SOL     OW87954   2.633   0.551  11.767
95374SOL    HW187955   2.691   0.622  11.796
95374SOL    HW287956   2.581   0.529  11.844
95375SOL     OW87957   8.933   8.163   3.414
95375SOL    HW187958   8.860   8.201   3.366
95375SOL    HW287959   9.007   8.221   3.397
95376SOL     OW87960   9.822  11.948  11.314
95376SOL    HW187961   9.821  11.857  11.285
95376SOL    HW287962   9.759  11.951  11.387
95377SOL     OW87963  12.648   3.551  12.734
95377SOL    HW187964  12.601   3.479  12.692
95377SOL    HW287965  12.628   3.542  12.827
95378SOL     OW87966   4.685   4.268   2.478
95378SOL    HW187967   4.681   4.329   2.404
95378SOL    HW287968   4.764   4.216   2.462
95379SOL     OW87969  10.706  11.698   0.713
95379SOL    HW187970  10.699  11.625   0.650
95379SOL    HW287971  10.644  11.675   0.782
95380SOL     OW87972  10.908   7.576   9.205
95380SOL    HW187973  10.886   7.624   9.125
95380SOL    HW287974  10.992   7.535   9.185
95381SOL     OW87975   7.861  12.917   1.982
95381SOL    HW187976   7.829  12.849   1.923
95381SOL    HW287977   7.782  12.955   2.020
95382SOL     OW87978  11.913  14.135   0.450
95382SOL    HW187979  11.950  14.089   0.375
95382SOL    HW287980  11.833  14.176   0.417
95383SOL     OW87981  14.430  13.591   7.647
95383SOL    HW187982  14.524  13.603   7.636
95383SOL    HW287983  14.422  13.508   7.694
95384SOL     OW87984   0.667   3.211   4.019
95384SOL    HW187985   0.700   3.128   4.054
95384SOL    HW287986   0.672   3.271   4.093
95385SOL     OW87987  14.050  11.449  12.541
95385SOL    HW187988  13.990  11.482  12.473
95385SOL    HW287989  13.997  11.387  12.591
95386SOL     OW87990  14.310   4.362  11.023
95386SOL    HW187991  14.268   4.384  11.106
95386SOL    HW287992  14.266   4.418  10.959
95387SOL     OW87993   0.286   9.086  10.585
95387SOL    HW187994   0.296   9.123  10.673
95387SOL    HW287995   0.205   9.034  10.590
95388SOL     OW87996  11.420   2.788   8.145
95388SOL    HW187997  11.352   2.720   8.149
95388SOL    HW287998  11.398   2.848   8.215
95389SOL     OW87999   2.972   5.594   5.113
95389SOL    HW188000   2.904   5.658   5.092
95389SOL    HW288001   2.928   5.531   5.170
95390SOL     OW88002   3.006   5.582   1.768
95390SOL    HW188003   3.096   5.565   1.741
95390SOL    HW288004   3.011   5.587   1.863
95391SOL     OW88005  14.296  11.446   8.244
95391SOL    HW188006  14.361  11.442   8.175
95391SOL    HW288007  14.266  11.537   8.245
95392SOL     OW88008   3.003   5.369  11.389
95392SOL    HW188009   3.022   5.441  11.328
95392SOL    HW288010   2.972   5.298  11.333
95393SOL     OW88011  10.937  11.025   5.548
95393SOL    HW188012  11.017  10.979   5.525
95393SOL    HW288013  10.938  11.029   5.644
95394SOL     OW88014  11.235   0.927   8.492
95394SOL    HW188015  11.196   0.872   8.424
95394SOL    HW288016  11.327   0.935   8.468
95395SOL     OW88017   1.874   4.677   3.763
95395SOL    HW188018   1.882   4.737   3.690
95395SOL    HW288019   1.961   4.675   3.802
95396SOL     OW88020   3.993   8.622   1.814
95396SOL    HW188021   3.934   8.697   1.805
95396SOL    HW288022   4.015   8.598   1.724
95397SOL     OW88023   8.977   0.846   6.414
95397SOL    HW188024   8.950   0.931   6.380
95397SOL    HW288025   8.919   0.830   6.489
95398SOL     OW88026  12.809   7.949   0.871
95398SOL    HW188027  12.766   7.935   0.955
95398SOL    HW288028  12.859   7.869   0.856
95399SOL     OW88029   0.563   3.244  11.593
95399SOL    HW188030   0.572   3.158  11.552
95399SOL    HW288031   0.475   3.244  11.630
95400SOL     OW88032   9.736  13.143   5.435
95400SOL    HW188033   9.707  13.053   5.446
95400SOL    HW288034   9.689  13.175   5.358
95401SOL     OW88035   6.278   5.085  11.613
95401SOL    HW188036   6.274   4.995  11.580
95401SOL    HW288037   6.236   5.138  11.545
95402SOL     OW88038  14.043  13.772   1.680
95402SOL    HW188039  14.112  13.837   1.664
95402SOL    HW288040  14.034  13.726   1.596
95403SOL     OW88041   7.280  12.699  11.213
95403SOL    HW188042   7.299  12.787  11.245
95403SOL    HW288043   7.366  12.658  11.203
95404SOL     OW88044   7.036  12.443   2.723
95404SOL    HW188045   7.043  12.532   2.757
95404SOL    HW288046   7.007  12.390   2.797
95405SOL     OW88047   5.695   4.303   7.067
95405SOL    HW188048   5.664   4.213   7.056
95405SOL    HW288049   5.785   4.293   7.098
95406SOL     OW88050   4.634   2.657   7.514
95406SOL    HW188051   4.703   2.597   7.543
95406SOL    HW288052   4.653   2.672   7.422
95407SOL     OW88053  12.593  12.965   8.747
95407SOL    HW188054  12.654  12.892   8.756
95407SOL    HW288055  12.645  13.037   8.712
95408SOL     OW88056   2.357   4.264   1.852
95408SOL    HW188057   2.285   4.268   1.915
95408SOL    HW288058   2.400   4.180   1.870
95409SOL     OW88059   2.997   8.251  14.618
95409SOL    HW188060   2.973   8.158  14.620
95409SOL    HW288061   2.930   8.293  14.672
95410SOL     OW88062  10.451   5.637   8.092
95410SOL    HW188063  10.371   5.600   8.128
95410SOL    HW288064  10.421   5.702   8.028
95411SOL     OW88065   4.887  14.460  13.813
95411SOL    HW188066   4.953  14.517  13.773
95411SOL    HW288067   4.907  14.372  13.781
95412SOL     OW88068  14.328   8.613   9.579
95412SOL    HW188069  14.249   8.619   9.526
95412SOL    HW288070  14.399   8.610   9.515
95413SOL     OW88071   2.639   2.975  14.846
95413SOL    HW188072   2.583   3.016   0.033
95413SOL    HW288073   2.705   3.042  14.825
95414SOL     OW88074   1.483  14.294   1.086
95414SOL    HW188075   1.572  14.263   1.105
95414SOL    HW288076   1.426  14.223   1.115
95415SOL     OW88077   5.452  11.063   7.714
95415SOL    HW188078   5.393  11.082   7.787
95415SOL    HW288079   5.471  11.149   7.675
95416SOL     OW88080   6.955   0.046   1.905
95416SOL    HW188081   6.946   0.069   1.813
95416SOL    HW288082   7.045   0.012   1.913
95417SOL     OW88083   4.842   9.268   5.393
95417SOL    HW188084   4.876   9.353   5.366
95417SOL    HW288085   4.823   9.278   5.486
95418SOL     OW88086  13.364  12.471   1.197
95418SOL    HW188087  13.414  12.509   1.270
95418SOL    HW288088  13.414  12.394   1.171
95419SOL     OW88089   7.075  11.823   8.827
95419SOL    HW188090   7.155  11.799   8.874
95419SOL    HW288091   7.074  11.919   8.830
95420SOL     OW88092   1.965   7.224   0.203
95420SOL    HW188093   2.054   7.254   0.223
95420SOL    HW288094   1.909   7.298   0.226
95421SOL     OW88095   9.481  14.844   2.495
95421SOL    HW188096   9.407   0.023   2.514
95421SOL    HW288097   9.524   0.005   2.419
95422SOL     OW88098   0.039  13.713   9.161
95422SOL    HW188099   0.010  13.780   9.099
95422SOL    HW288100  14.838  13.673   9.193
95423SOL     OW88101  12.415   5.837   5.292
95423SOL    HW188102  12.509   5.853   5.288
95423SOL    HW288103  12.383   5.894   5.362
95424SOL     OW88104  14.189   5.171   8.440
95424SOL    HW188105  14.252   5.102   8.461
95424SOL    HW288106  14.104   5.134   8.465
95425SOL     OW88107  14.687   9.676   6.183
95425SOL    HW188108  14.737   9.707   6.258
95425SOL    HW288109  14.734   9.709   6.106
95426SOL     OW88110   4.472  12.604   2.853
95426SOL    HW188111   4.424  12.576   2.931
95426SOL    HW288112   4.410  12.659   2.805
95427SOL     OW88113   9.174   2.571  10.052
95427SOL    HW188114   9.206   2.630  10.120
95427SOL    HW288115   9.252   2.550  10.000
95428SOL     OW88116   6.429   9.673  10.805
95428SOL    HW188117   6.391   9.745  10.856
95428SOL    HW288118   6.454   9.608  10.870
95429SOL     OW88119  12.767   2.494   7.934
95429SOL    HW188120  12.801   2.405   7.934
95429SOL    HW288121  12.751   2.513   7.841
95430SOL     OW88122   1.409   0.418   8.832
95430SOL    HW188123   1.459   0.378   8.761
95430SOL    HW288124   1.342   0.353   8.854
95431SOL     OW88125  13.544  12.111   1.303
95431SOL    HW188126  13.499  12.192   1.327
95431SOL    HW288127  13.507  12.086   1.219
95432SOL     OW88128   1.858   2.621   9.431
95432SOL    HW188129   1.763   2.634   9.433
95432SOL    HW288130   1.894   2.706   9.455
95433SOL     OW88131   5.866  14.070   3.199
95433SOL    HW188132   5.832  14.019   3.273
95433SOL    HW288133   5.907  14.146   3.239
95434SOL     OW88134   7.900   1.056   3.606
95434SOL    HW188135   7.991   1.034   3.588
95434SOL    HW288136   7.894   1.150   3.586
95435SOL     OW88137   5.214  12.018   2.915
95435SOL    HW188138   5.272  11.946   2.892
95435SOL    HW288139   5.202  12.067   2.834
95436SOL     OW88140   8.938  12.224  11.231
95436SOL    HW188141   8.895  12.226  11.146
95436SOL    HW288142   9.026  12.191  11.212
95437SOL     OW88143   3.330   5.807  12.393
95437SOL    HW188144   3.264   5.738  12.401
95437SOL    HW288145   3.320   5.860  12.472
95438SOL     OW88146   4.736   8.727  14.758
95438SOL    HW188147   4.668   8.660  14.747
95438SOL    HW288148   4.788   8.722  14.678
95439SOL     OW88149   7.309   4.903   2.643
95439SOL    HW188150   7.355   4.925   2.724
95439SOL    HW288151   7.357   4.949   2.575
95440SOL     OW88152   2.120  11.865   8.098
95440SOL    HW188153   2.056  11.841   8.165
95440SOL    HW288154   2.076  11.845   8.015
95441SOL     OW88155  10.811   4.922   7.701
95441SOL    HW188156  10.729   4.875   7.688
95441SOL    HW288157  10.794   5.010   7.668
95442SOL     OW88158   2.516   6.293   4.583
95442SOL    HW188159   2.426   6.267   4.603
95442SOL    HW288160   2.568   6.213   4.597
95443SOL     OW88161   7.950   5.791  12.971
95443SOL    HW188162   8.032   5.811  13.017
95443SOL    HW288163   7.957   5.840  12.889
95444SOL     OW88164  10.056   2.991  13.220
95444SOL    HW188165  10.119   2.930  13.257
95444SOL    HW288166  10.057   3.066  13.279
95445SOL     OW88167   7.608   7.327   1.985
95445SOL    HW188168   7.675   7.369   1.930
95445SOL    HW288169   7.636   7.236   1.991
95446SOL     OW88170  13.405   5.260   4.039
95446SOL    HW188171  13.384   5.267   4.132
95446SOL    HW288172  13.382   5.171   4.015
95447SOL     OW88173   0.349   6.879   3.901
95447SOL    HW188174   0.337   6.907   3.811
95447SOL    HW288175   0.276   6.919   3.949
95448SOL     OW88176   6.491  10.920   7.401
95448SOL    HW188177   6.577  10.879   7.417
95448SOL    HW288178   6.435  10.847   7.375
95449SOL     OW88179   7.511   1.891   8.791
95449SOL    HW188180   7.421   1.880   8.820
95449SOL    HW288181   7.548   1.803   8.792
95450SOL     OW88182   4.547   1.961   5.546
95450SOL    HW188183   4.463   2.006   5.536
95450SOL    HW288184   4.523   1.875   5.580
95451SOL     OW88185  10.968  10.553   5.666
95451SOL    HW188186  10.955  10.631   5.613
95451SOL    HW288187  10.987  10.586   5.754
95452SOL     OW88188  11.249  13.913   2.418
95452SOL    HW188189  11.320  13.853   2.438
95452SOL    HW288190  11.290  13.982   2.366
95453SOL     OW88191   2.747   9.679   0.119
95453SOL    HW188192   2.773   9.768   0.094
95453SOL    HW288193   2.829   9.631   0.126
95454SOL     OW88194   3.954  11.330   2.609
95454SOL    HW188195   3.904  11.256   2.575
95454SOL    HW288196   3.994  11.369   2.532
95455SOL     OW88197  12.472  10.885  10.836
95455SOL    HW188198  12.458  10.979  10.832
95455SOL    HW288199  12.403  10.853  10.894
95456SOL     OW88200   8.195  12.646  12.895
95456SOL    HW188201   8.165  12.734  12.873
95456SOL    HW288202   8.115  12.599  12.918
95457SOL     OW88203   6.291   2.133   5.363
95457SOL    HW188204   6.259   2.045   5.381
95457SOL    HW288205   6.352   2.151   5.435
95458SOL     OW88206   3.755   0.972   5.936
95458SOL    HW188207   3.684   1.032   5.957
95458SOL    HW288208   3.735   0.893   5.985
95459SOL     OW88209   7.160  10.781   7.124
95459SOL    HW188210   7.246  10.769   7.084
95459SOL    HW288211   7.104  10.715   7.082
95460SOL     OW88212  11.970   2.900  11.886
95460SOL    HW188213  11.876   2.881  11.882
95460SOL    HW288214  11.980   2.959  11.960
95461SOL     OW88215  14.708   6.257   6.347
95461SOL    HW188216  14.773   6.198   6.384
95461SOL    HW288217  14.759   6.319   6.294
95462SOL     OW88218   2.218  13.983   0.929
95462SOL    HW188219   2.214  13.989   0.834
95462SOL    HW288220   2.220  13.889   0.947
95463SOL     OW88221   2.396  13.618   9.844
95463SOL    HW188222   2.369  13.588   9.931
95463SOL    HW288223   2.314  13.647   9.802
95464SOL     OW88224   4.894   6.942   9.858
95464SOL    HW188225   4.940   7.009   9.807
95464SOL    HW288226   4.959   6.873   9.870
95465SOL     OW88227  12.492   4.363   4.805
95465SOL    HW188228  12.415   4.393   4.853
95465SOL    HW288229  12.472   4.271   4.784
95466SOL     OW88230   5.795  12.908   7.646
95466SOL    HW188231   5.800  12.961   7.566
95466SOL    HW288232   5.711  12.930   7.684
95467SOL     OW88233   3.704  11.276   7.880
95467SOL    HW188234   3.715  11.281   7.785
95467SOL    HW288235   3.611  11.259   7.893
95468SOL     OW88236   0.133  13.496   6.403
95468SOL    HW188237   0.227  13.516   6.397
95468SOL    HW288238   0.094  13.578   6.434
95469SOL     OW88239   1.438   7.649   9.098
95469SOL    HW188240   1.531   7.634   9.117
95469SOL    HW288241   1.397   7.655   9.184
95470SOL     OW88242   8.015   8.737   7.666
95470SOL    HW188243   7.954   8.802   7.631
95470SOL    HW288244   7.960   8.672   7.710
95471SOL     OW88245  10.024   5.954   4.474
95471SOL    HW188246   9.929   5.942   4.477
95471SOL    HW288247  10.053   5.941   4.564
95472SOL     OW88248  11.453   6.897  12.251
95472SOL    HW188249  11.422   6.818  12.295
95472SOL    HW288250  11.481   6.955  12.321
95473SOL     OW88251   6.638   7.112   6.936
95473SOL    HW188252   6.688   7.172   6.881
95473SOL    HW288253   6.696   7.094   7.010
95474SOL     OW88254   1.727   3.440  14.278
95474SOL    HW188255   1.668   3.366  14.293
95474SOL    HW288256   1.711   3.498  14.353
95475SOL     OW88257   0.271   0.922   8.003
95475SOL    HW188258   0.312   0.876   7.929
95475SOL    HW288259   0.178   0.924   7.981
95476SOL     OW88260  14.017  10.165  11.037
95476SOL    HW188261  14.031  10.244  11.090
95476SOL    HW288262  14.046  10.189  10.949
95477SOL     OW88263   2.389   5.459   1.232
95477SOL    HW188264   2.450   5.520   1.273
95477SOL    HW288265   2.427   5.442   1.145
95478SOL     OW88266   4.662   9.473  12.324
95478SOL    HW188267   4.751   9.437  12.323
95478SOL    HW288268   4.650   9.511  12.237
95479SOL     OW88269  11.708   6.433   9.411
95479SOL    HW188270  11.732   6.348   9.374
95479SOL    HW288271  11.701   6.491   9.335
95480SOL     OW88272   0.862   1.972   1.050
95480SOL    HW188273   0.845   1.889   1.006
95480SOL    HW288274   0.943   1.958   1.098
95481SOL     OW88275  13.469   0.742   4.917
95481SOL    HW188276  13.478   0.663   4.863
95481SOL    HW288277  13.376   0.747   4.937
95482SOL     OW88278   3.414   7.837  14.443
95482SOL    HW188279   3.507   7.833  14.419
95482SOL    HW288280   3.402   7.925  14.478
95483SOL     OW88281   9.598   1.802   7.188
95483SOL    HW188282   9.504   1.787   7.181
95483SOL    HW288283   9.610   1.839   7.276
95484SOL     OW88284   9.433   9.812   8.108
95484SOL    HW188285   9.410   9.719   8.110
95484SOL    HW288286   9.355   9.854   8.071
95485SOL     OW88287   0.776   6.466  10.883
95485SOL    HW188288   0.706   6.402  10.870
95485SOL    HW288289   0.731   6.550  10.888
95486SOL     OW88290   5.070   2.475   5.256
95486SOL    HW188291   5.165   2.488   5.253
95486SOL    HW288292   5.035   2.540   5.195
95487SOL     OW88293   7.439   8.937  10.310
95487SOL    HW188294   7.422   8.880  10.386
95487SOL    HW288295   7.516   8.899  10.268
95488SOL     OW88296   7.123   5.447   9.717
95488SOL    HW188297   7.082   5.509   9.777
95488SOL    HW288298   7.209   5.485   9.699
95489SOL     OW88299   2.194   7.490   6.172
95489SOL    HW188300   2.110   7.530   6.195
95489SOL    HW288301   2.204   7.418   6.233
95490SOL     OW88302   0.869  13.092   4.833
95490SOL    HW188303   0.824  13.040   4.766
95490SOL    HW288304   0.810  13.165   4.851
95491SOL     OW88305  13.768   8.541   7.296
95491SOL    HW188306  13.745   8.471   7.357
95491SOL    HW288307  13.685   8.582   7.273
95492SOL     OW88308   6.624   6.335  11.084
95492SOL    HW188309   6.585   6.408  11.036
95492SOL    HW288310   6.716   6.358  11.093
95493SOL     OW88311   1.209   4.406   6.191
95493SOL    HW188312   1.252   4.409   6.276
95493SOL    HW288313   1.247   4.479   6.142
95494SOL     OW88314   8.194   8.905   6.313
95494SOL    HW188315   8.252   8.829   6.319
95494SOL    HW288316   8.163   8.918   6.403
95495SOL     OW88317  12.093  14.824   9.599
95495SOL    HW188318  12.010  14.844   9.642
95495SOL    HW288319  12.099  14.728   9.602
95496SOL     OW88320   9.258   7.125   8.242
95496SOL    HW188321   9.334   7.184   8.240
95496SOL    HW288322   9.279   7.056   8.180
95497SOL     OW88323   6.808   2.650   6.755
95497SOL    HW188324   6.836   2.630   6.666
95497SOL    HW288325   6.817   2.745   6.763
95498SOL     OW88326   3.917   2.954  12.157
95498SOL    HW188327   3.880   2.878  12.113
95498SOL    HW288328   4.011   2.947  12.141
95499SOL     OW88329  12.167   3.594  14.530
95499SOL    HW188330  12.194   3.558  14.614
95499SOL    HW288331  12.080   3.630  14.547
95500SOL     OW88332   7.374   0.490   5.338
95500SOL    HW188333   7.291   0.537   5.326
95500SOL    HW288334   7.437   0.559   5.358
95501SOL     OW88335  12.082   0.474   6.312
95501SOL    HW188336  12.056   0.515   6.230
95501SOL    HW288337  12.086   0.380   6.291
95502SOL     OW88338   0.098   9.598   7.153
95502SOL    HW188339   0.178   9.632   7.112
95502SOL    HW288340   0.033   9.666   7.139
95503SOL     OW88341   7.644   7.587  14.864
95503SOL    HW188342   7.566   7.532  14.877
95503SOL    HW288343   7.631   7.660   0.045
95504SOL     OW88344   9.122   0.101  14.778
95504SOL    HW188345   9.142   0.187  14.741
95504SOL    HW288346   9.187   0.090  14.848
95505SOL     OW88347   0.947   4.290   5.338
95505SOL    HW188348   1.022   4.231   5.349
95505SOL    HW288349   0.894   4.250   5.269
95506SOL     OW88350  11.360   3.848  14.578
95506SOL    HW188351  11.366   3.787  14.651
95506SOL    HW288352  11.431   3.910  14.593
95507SOL     OW88353  10.575   4.935  12.645
95507SOL    HW188354  10.596   4.883  12.568
95507SOL    HW288355  10.652   4.929  12.701
95508SOL     OW88356   8.245  12.803   5.228
95508SOL    HW188357   8.304  12.735   5.197
95508SOL    HW288358   8.191  12.760   5.294
95509SOL     OW88359   7.066   0.503  13.731
95509SOL    HW188360   6.985   0.455  13.717
95509SOL    HW288361   7.135   0.442  13.703
95510SOL     OW88362   8.066  10.889  10.238
95510SOL    HW188363   7.985  10.912  10.193
95510SOL    HW288364   8.131  10.878  10.168
95511SOL     OW88365  13.330  13.380   1.409
95511SOL    HW188366  13.292  13.296   1.436
95511SOL    HW288367  13.261  13.444   1.428
95512SOL     OW88368   3.094   9.573   4.379
95512SOL    HW188369   3.175   9.526   4.361
95512SOL    HW288370   3.031   9.503   4.399
95513SOL     OW88371   7.409   7.463   0.047
95513SOL    HW188372   7.373   7.529   0.106
95513SOL    HW288373   7.333   7.424   0.005
95514SOL     OW88374   5.983   0.182   2.430
95514SOL    HW188375   5.901   0.141   2.401
95514SOL    HW288376   5.971   0.275   2.413
95515SOL     OW88377  14.310   6.124  13.773
95515SOL    HW188378  14.302   6.216  13.800
95515SOL    HW288379  14.404   6.106  13.778
95516SOL     OW88380   2.696   8.360  10.662
95516SOL    HW188381   2.722   8.352  10.754
95516SOL    HW288382   2.701   8.270  10.628
95517SOL     OW88383   0.630   1.016  11.182
95517SOL    HW188384   0.603   1.077  11.113
95517SOL    HW288385   0.694   1.064  11.233
95518SOL     OW88386   6.152   3.840   8.301
95518SOL    HW188387   6.116   3.778   8.365
95518SOL    HW288388   6.240   3.859   8.333
95519SOL     OW88389  14.337   9.645  11.489
95519SOL    HW188390  14.272   9.702  11.531
95519SOL    HW288391  14.418   9.696  11.492
95520SOL     OW88392  12.372  13.858   4.084
95520SOL    HW188393  12.375  13.927   4.151
95520SOL    HW288394  12.286  13.816   4.097
95521SOL     OW88395   9.990   4.719   1.170
95521SOL    HW188396   9.987   4.814   1.178
95521SOL    HW288397   9.995   4.703   1.076
95522SOL     OW88398   1.023  14.483  14.406
95522SOL    HW188399   1.099  14.517  14.453
95522SOL    HW288400   1.054  14.467  14.317
95523SOL     OW88401   3.831  14.571   7.418
95523SOL    HW188402   3.830  14.601   7.509
95523SOL    HW288403   3.924  14.559   7.398
95524SOL     OW88404   3.820   6.297   6.994
95524SOL    HW188405   3.727   6.303   6.973
95524SOL    HW288406   3.836   6.370   7.054
95525SOL     OW88407  10.664   6.729   3.948
95525SOL    HW188408  10.751   6.768   3.956
95525SOL    HW288409  10.667   6.652   4.005
95526SOL     OW88410   2.281   9.475   4.461
95526SOL    HW188411   2.347   9.460   4.393
95526SOL    HW288412   2.230   9.395   4.463
95527SOL     OW88413   8.683   9.531   0.208
95527SOL    HW188414   8.696   9.540   0.302
95527SOL    HW288415   8.589   9.541   0.195
95528SOL     OW88416   3.969   1.550  10.324
95528SOL    HW188417   4.034   1.604  10.370
95528SOL    HW288418   3.949   1.599  10.245
95529SOL     OW88419  10.206  12.583   6.393
95529SOL    HW188420  10.251  12.629   6.464
95529SOL    HW288421  10.273  12.526   6.355
95530SOL     OW88422  12.831   4.393   8.614
95530SOL    HW188423  12.834   4.413   8.707
95530SOL    HW288424  12.919   4.413   8.582
95531SOL     OW88425   3.831   2.871  14.259
95531SOL    HW188426   3.876   2.906  14.336
95531SOL    HW288427   3.888   2.893  14.185
95532SOL     OW88428   8.135  11.604  13.716
95532SOL    HW188429   8.063  11.666  13.723
95532SOL    HW288430   8.093  11.521  13.691
95533SOL     OW88431  10.670   8.011   8.303
95533SOL    HW188432  10.647   7.945   8.238
95533SOL    HW288433  10.765   8.018   8.298
95534SOL     OW88434  11.186   5.428   3.605
95534SOL    HW188435  11.099   5.388   3.608
95534SOL    HW288436  11.201   5.446   3.512
95535SOL     OW88437   1.472   3.846  10.625
95535SOL    HW188438   1.450   3.845  10.532
95535SOL    HW288439   1.558   3.887  10.629
95536SOL     OW88440  10.926  14.706   2.808
95536SOL    HW188441  10.910  14.644   2.737
95536SOL    HW288442  10.840  14.721   2.846
95537SOL     OW88443   9.402  10.757   7.316
95537SOL    HW188444   9.348  10.682   7.292
95537SOL    HW288445   9.489  10.720   7.333
95538SOL     OW88446  14.613   3.236  11.649
95538SOL    HW188447  14.582   3.282  11.571
95538SOL    HW288448  14.596   3.144  11.630
95539SOL     OW88449  10.349  12.081   7.137
95539SOL    HW188450  10.268  12.034   7.159
95539SOL    HW288451  10.346  12.160   7.190
95540SOL     OW88452  10.398  12.262   8.333
95540SOL    HW188453  10.340  12.333   8.360
95540SOL    HW288454  10.466  12.259   8.401
95541SOL     OW88455  14.850   9.096   7.973
95541SOL    HW188456  14.872   9.081   8.065
95541SOL    HW288457  14.755   9.110   7.973
95542SOL     OW88458   4.852   6.523   0.504
95542SOL    HW188459   4.892   6.555   0.423
95542SOL    HW288460   4.883   6.432   0.511
95543SOL     OW88461  13.294   2.506   0.531
95543SOL    HW188462  13.256   2.575   0.586
95543SOL    HW288463  13.362   2.551   0.480
95544SOL     OW88464   3.599   2.213   7.015
95544SOL    HW188465   3.647   2.242   6.937
95544SOL    HW288466   3.650   2.248   7.088
95545SOL     OW88467   4.376   0.134  10.472
95545SOL    HW188468   4.332   0.053  10.499
95545SOL    HW288469   4.424   0.111  10.393
95546SOL     OW88470  10.103   2.293   6.417
95546SOL    HW188471  10.114   2.294   6.512
95546SOL    HW288472  10.008   2.298   6.404
95547SOL     OW88473  11.347   8.934   9.803
95547SOL    HW188474  11.272   8.904   9.752
95547SOL    HW288475  11.309   8.970   9.883
95548SOL     OW88476   6.529   6.582   6.164
95548SOL    HW188477   6.469   6.524   6.212
95548SOL    HW288478   6.561   6.643   6.230
95549SOL     OW88479   1.633   4.013   6.461
95549SOL    HW188480   1.591   4.061   6.389
95549SOL    HW288481   1.612   4.065   6.539
95550SOL     OW88482   3.423  11.839   3.831
95550SOL    HW188483   3.422  11.744   3.823
95550SOL    HW288484   3.453  11.870   3.746
95551SOL     OW88485   4.187   9.275  11.824
95551SOL    HW188486   4.241   9.253  11.748
95551SOL    HW288487   4.246   9.266  11.899
95552SOL     OW88488  14.687   6.504  11.993
95552SOL    HW188489  14.726   6.465  12.071
95552SOL    HW288490  14.705   6.597  12.001
95553SOL     OW88491  13.953   0.460   2.549
95553SOL    HW188492  13.976   0.372   2.519
95553SOL    HW288493  13.862   0.472   2.521
95554SOL     OW88494   5.219  13.951  13.614
95554SOL    HW188495   5.275  13.931  13.539
95554SOL    HW288496   5.194  14.043  13.602
95555SOL     OW88497   8.087  11.971   5.480
95555SOL    HW188498   8.117  11.918   5.553
95555SOL    HW288499   8.105  11.918   5.402
95556SOL     OW88500  12.441   1.424  10.686
95556SOL    HW188501  12.475   1.510  10.662
95556SOL    HW288502  12.480   1.406  10.772
95557SOL     OW88503  12.069   4.854  11.420
95557SOL    HW188504  12.123   4.797  11.366
95557SOL    HW288505  11.992   4.872  11.366
95558SOL     OW88506  14.271   2.844   1.628
95558SOL    HW188507  14.262   2.936   1.605
95558SOL    HW288508  14.186   2.820   1.664
95559SOL     OW88509   8.664   6.591  13.083
95559SOL    HW188510   8.631   6.621  13.168
95559SOL    HW288511   8.729   6.657  13.059
95560SOL     OW88512   1.874   6.301  10.786
95560SOL    HW188513   1.941   6.309  10.718
95560SOL    HW288514   1.870   6.208  10.806
95561SOL     OW88515  14.469   2.061   4.986
95561SOL    HW188516  14.560   2.044   4.962
95561SOL    HW288517  14.423   1.982   4.960
95562SOL     OW88518   9.438   8.803  14.130
95562SOL    HW188519   9.443   8.728  14.189
95562SOL    HW288520   9.352   8.795  14.089
95563SOL     OW88521   3.047   5.439   4.908
95563SOL    HW188522   2.988   5.452   4.834
95563SOL    HW288523   3.029   5.513   4.966
95564SOL     OW88524  10.801   3.014   6.865
95564SOL    HW188525  10.877   3.057   6.904
95564SOL    HW288526  10.747   2.987   6.939
95565SOL     OW88527   2.611  13.704   9.482
95565SOL    HW188528   2.634  13.630   9.539
95565SOL    HW288529   2.520  13.725   9.506
95566SOL     OW88530   4.996   3.152   5.987
95566SOL    HW188531   5.063   3.201   5.940
95566SOL    HW288532   4.958   3.216   6.048
95567SOL     OW88533   5.369   5.265  11.065
95567SOL    HW188534   5.338   5.184  11.105
95567SOL    HW288535   5.443   5.238  11.010
95568SOL     OW88536  12.629   3.783   0.052
95568SOL    HW188537  12.664   3.746  14.850
95568SOL    HW288538  12.696   3.763   0.118
95569SOL     OW88539  13.156  13.616   9.461
95569SOL    HW188540  13.223  13.591   9.398
95569SOL    HW288541  13.106  13.536   9.476
95570SOL     OW88542  10.416   8.203   6.686
95570SOL    HW188543  10.338   8.197   6.631
95570SOL    HW288544  10.414   8.123   6.739
95571SOL     OW88545  14.126  10.558  11.551
95571SOL    HW188546  14.069  10.520  11.485
95571SOL    HW288547  14.154  10.642  11.514
95572SOL     OW88548  13.868   2.086   5.565
95572SOL    HW188549  13.888   2.172   5.603
95572SOL    HW288550  13.853   2.103   5.472
95573SOL     OW88551   5.714  14.124  10.107
95573SOL    HW188552   5.634  14.081  10.077
95573SOL    HW288553   5.773  14.052  10.128
95574SOL     OW88554   9.623   1.775   4.181
95574SOL    HW188555   9.658   1.695   4.142
95574SOL    HW288556   9.617   1.837   4.108
95575SOL     OW88557  10.559   5.624   3.805
95575SOL    HW188558  10.547   5.598   3.896
95575SOL    HW288559  10.483   5.679   3.785
95576SOL     OW88560  13.366   1.012  11.635
95576SOL    HW188561  13.384   1.005  11.541
95576SOL    HW288562  13.372   0.923  11.667
95577SOL     OW88563  10.043   1.772   7.805
95577SOL    HW188564  10.090   1.753   7.724
95577SOL    HW288565   9.966   1.822   7.777
95578SOL     OW88566  12.752   5.827   3.161
95578SOL    HW188567  12.775   5.916   3.187
95578SOL    HW288568  12.721   5.785   3.241
95579SOL     OW88569   7.644   3.872  14.753
95579SOL    HW188570   7.601   3.799  14.708
95579SOL    HW288571   7.706   3.831  14.812
95580SOL     OW88572   5.670   8.534   7.991
95580SOL    HW188573   5.598   8.596   7.996
95580SOL    HW288574   5.741   8.575   8.039
95581SOL     OW88575   7.930  11.605   6.281
95581SOL    HW188576   7.870  11.675   6.254
95581SOL    HW288577   7.925  11.541   6.210
95582SOL     OW88578  14.644  12.225   5.964
95582SOL    HW188579  14.726  12.249   6.007
95582SOL    HW288580  14.634  12.290   5.895
95583SOL     OW88581   4.832  14.624   3.147
95583SOL    HW188582   4.887  14.633   3.224
95583SOL    HW288583   4.752  14.672   3.170
95584SOL     OW88584   6.707  14.420  13.455
95584SOL    HW188585   6.772  14.353  13.478
95584SOL    HW288586   6.660  14.383  13.380
95585SOL     OW88587   5.164  14.175  12.272
95585SOL    HW188588   5.136  14.102  12.327
95585SOL    HW288589   5.214  14.134  12.202
95586SOL     OW88590  14.855  11.390   7.392
95586SOL    HW188591   0.048  11.400   7.455
95586SOL    HW288592  14.849  11.296   7.377
95587SOL     OW88593   4.567  10.716   3.928
95587SOL    HW188594   4.554  10.687   4.019
95587SOL    HW288595   4.660  10.702   3.911
95588SOL     OW88596   5.090  13.341   1.197
95588SOL    HW188597   5.153  13.288   1.148
95588SOL    HW288598   5.116  13.431   1.180
95589SOL     OW88599   7.727   2.300   7.304
95589SOL    HW188600   7.728   2.256   7.219
95589SOL    HW288601   7.717   2.229   7.368
95590SOL     OW88602   1.882   3.365   4.951
95590SOL    HW188603   1.815   3.338   4.889
95590SOL    HW288604   1.927   3.285   4.975
95591SOL     OW88605   6.982   9.545   4.698
95591SOL    HW188606   7.070   9.512   4.713
95591SOL    HW288607   6.995   9.635   4.668
95592SOL     OW88608   2.387   7.427  12.359
95592SOL    HW188609   2.392   7.347  12.307
95592SOL    HW288610   2.356   7.493  12.298
95593SOL     OW88611   0.254   2.759   4.392
95593SOL    HW188612   0.239   2.793   4.303
95593SOL    HW288613   0.256   2.664   4.381
95594SOL     OW88614   0.509  13.692   6.720
95594SOL    HW188615   0.507  13.730   6.632
95594SOL    HW288616   0.496  13.767   6.778
95595SOL     OW88617   8.275   5.519   9.843
95595SOL    HW188618   8.292   5.427   9.823
95595SOL    HW288619   8.327   5.536   9.922
95596SOL     OW88620  10.664   1.106  14.425
95596SOL    HW188621  10.664   1.118  14.330
95596SOL    HW288622  10.607   1.174  14.459
95597SOL     OW88623   4.094   6.500  10.888
95597SOL    HW188624   4.052   6.538  10.811
95597SOL    HW288625   4.022   6.471  10.943
95598SOL     OW88626   2.946  11.978   7.383
95598SOL    HW188627   2.991  11.897   7.406
95598SOL    HW288628   2.872  11.949   7.329
95599SOL     OW88629  10.551   3.985   5.131
95599SOL    HW188630  10.627   3.973   5.073
95599SOL    HW288631  10.543   4.080   5.141
95600SOL     OW88632  14.759   8.344   0.021
95600SOL    HW188633  14.757   8.265   0.074
95600SOL    HW288634  14.684   8.395   0.050
95601SOL     OW88635   0.732  11.320  11.171
95601SOL    HW188636   0.699  11.338  11.260
95601SOL    HW288637   0.778  11.237  11.180
95602SOL     OW88638  14.257  12.120   5.571
95602SOL    HW188639  14.311  12.151   5.644
95602SOL    HW288640  14.219  12.038   5.603
95603SOL     OW88641  13.167   5.812   8.320
95603SOL    HW188642  13.144   5.902   8.296
95603SOL    HW288643  13.096   5.759   8.284
95604SOL     OW88644  13.499  10.193   7.808
95604SOL    HW188645  13.490  10.099   7.825
95604SOL    HW288646  13.457  10.206   7.723
95605SOL     OW88647   4.497   2.075  10.465
95605SOL    HW188648   4.554   2.129  10.409
95605SOL    HW288649   4.492   2.124  10.547
95606SOL     OW88650   0.058  14.325  11.547
95606SOL    HW188651   0.051  14.260  11.618
95606SOL    HW288652  14.847  14.342  11.521
95607SOL     OW88653  10.466   8.464  14.485
95607SOL    HW188654  10.406   8.418  14.427
95607SOL    HW288655  10.553   8.448  14.448
95608SOL     OW88656  10.755  10.662   1.276
95608SOL    HW188657  10.739  10.698   1.189
95608SOL    HW288658  10.823  10.718   1.314
95609SOL     OW88659   3.816   8.119   3.495
95609SOL    HW188660   3.785   8.204   3.526
95609SOL    HW288661   3.821   8.128   3.400
95610SOL     OW88662   5.923   3.268   5.926
95610SOL    HW188663   6.013   3.293   5.945
95610SOL    HW288664   5.908   3.298   5.836
95611SOL     OW88665   4.830   7.183  13.841
95611SOL    HW188666   4.764   7.246  13.868
95611SOL    HW288667   4.825   7.182  13.746
95612SOL     OW88668  10.457   8.171   7.069
95612SOL    HW188669  10.442   8.112   6.995
95612SOL    HW288670  10.471   8.256   7.029
95613SOL     OW88671   8.475   5.547  11.306
95613SOL    HW188672   8.560   5.591  11.309
95613SOL    HW288673   8.431   5.584  11.230
95614SOL     OW88674  10.678   6.635   4.756
95614SOL    HW188675  10.631   6.554   4.776
95614SOL    HW288676  10.621   6.681   4.695
95615SOL     OW88677   5.306  13.129   4.753
95615SOL    HW188678   5.329  13.127   4.846
95615SOL    HW288679   5.214  13.155   4.752
95616SOL     OW88680   5.722  13.352   7.407
95616SOL    HW188681   5.792  13.350   7.473
95616SOL    HW288682   5.752  13.417   7.343
95617SOL     OW88683   0.815   6.657   7.571
95617SOL    HW188684   0.807   6.573   7.524
95617SOL    HW288685   0.805   6.723   7.503
95618SOL     OW88686  11.845  11.236  12.337
95618SOL    HW188687  11.780  11.216  12.405
95618SOL    HW288688  11.929  11.223  12.379
95619SOL     OW88689   8.412  10.858  10.547
95619SOL    HW188690   8.482  10.805  10.507
95619SOL    HW288691   8.444  10.879  10.634
95620SOL     OW88692   9.472   9.153  11.096
95620SOL    HW188693   9.381   9.126  11.108
95620SOL    HW288694   9.480   9.174  11.003
95621SOL     OW88695  13.953   2.713   5.126
95621SOL    HW188696  13.914   2.693   5.211
95621SOL    HW288697  13.893   2.672   5.063
95622SOL     OW88698   6.571   2.354   8.478
95622SOL    HW188699   6.648   2.384   8.429
95622SOL    HW288700   6.509   2.426   8.471
95623SOL     OW88701   4.957   4.604   0.575
95623SOL    HW188702   4.978   4.680   0.628
95623SOL    HW288703   5.003   4.531   0.617
95624SOL     OW88704   8.453   5.650   1.671
95624SOL    HW188705   8.506   5.644   1.591
95624SOL    HW288706   8.393   5.723   1.655
95625SOL     OW88707   7.878   7.029   2.446
95625SOL    HW188708   7.941   7.088   2.405
95625SOL    HW288709   7.796   7.046   2.398
95626SOL     OW88710   0.988   0.570   6.006
95626SOL    HW188711   0.997   0.665   6.021
95626SOL    HW288712   0.894   0.554   6.010
95627SOL     OW88713  12.259   0.135   8.961
95627SOL    HW188714  12.323   0.148   8.891
95627SOL    HW288715  12.175   0.131   8.916
95628SOL     OW88716   1.045  12.678  12.481
95628SOL    HW188717   1.018  12.765  12.512
95628SOL    HW288718   1.131  12.664  12.520
95629SOL     OW88719  13.240   0.053  13.460
95629SOL    HW188720  13.173   0.098  13.409
95629SOL    HW288721  13.217   0.072  13.551
95630SOL     OW88722   2.412   4.933   1.207
95630SOL    HW188723   2.334   4.982   1.232
95630SOL    HW288724   2.388   4.841   1.220
95631SOL     OW88725   5.574  11.788  10.797
95631SOL    HW188726   5.595  11.737  10.719
95631SOL    HW288727   5.636  11.758  10.863
95632SOL     OW88728   4.731   4.672   2.005
95632SOL    HW188729   4.754   4.581   1.990
95632SOL    HW288730   4.679   4.697   1.929
95633SOL     OW88731   2.876  11.152  11.535
95633SOL    HW188732   2.841  11.232  11.495
95633SOL    HW288733   2.971  11.164  11.531
95634SOL     OW88734   6.574   3.753  14.107
95634SOL    HW188735   6.510   3.697  14.150
95634SOL    HW288736   6.613   3.696  14.040
95635SOL     OW88737   8.051  12.600  13.804
95635SOL    HW188738   8.007  12.530  13.757
95635SOL    HW288739   8.142  12.570  13.812
95636SOL     OW88740   5.958   5.955  14.507
95636SOL    HW188741   5.929   6.027  14.450
95636SOL    HW288742   6.004   5.895  14.448
95637SOL     OW88743   2.983  14.702   6.743
95637SOL    HW188744   2.942  14.708   6.656
95637SOL    HW288745   3.070  14.666   6.725
95638SOL     OW88746   3.863  10.411  12.587
95638SOL    HW188747   3.775  10.386  12.558
95638SOL    HW288748   3.848  10.482  12.649
95639SOL     OW88749  13.537   7.795   5.327
95639SOL    HW188750  13.632   7.785   5.341
95639SOL    HW288751  13.522   7.889   5.335
95640SOL     OW88752  10.370  10.473   3.455
95640SOL    HW188753  10.304  10.516   3.509
95640SOL    HW288754  10.411  10.544   3.406
95641SOL     OW88755   3.010   4.896   0.081
95641SOL    HW188756   2.960   4.824   0.040
95641SOL    HW288757   3.034   4.861   0.167
95642SOL     OW88758  12.215   4.878   1.842
95642SOL    HW188759  12.299   4.853   1.805
95642SOL    HW288760  12.155   4.881   1.767
95643SOL     OW88761  10.846   2.326   0.113
95643SOL    HW188762  10.837   2.388   0.186
95643SOL    HW288763  10.939   2.324   0.095
95644SOL     OW88764   1.041   6.012   3.311
95644SOL    HW188765   1.033   5.989   3.404
95644SOL    HW288766   1.135   6.009   3.294
95645SOL     OW88767   4.626  10.773   5.789
95645SOL    HW188768   4.560  10.766   5.858
95645SOL    HW288769   4.665  10.686   5.784
95646SOL     OW88770  14.836   2.897  14.481
95646SOL    HW188771   0.011   2.973  14.500
95646SOL    HW288772  14.747   2.924  14.505
95647SOL     OW88773   0.290   2.277   7.881
95647SOL    HW188774   0.231   2.352   7.879
95647SOL    HW288775   0.233   2.200   7.877
95648SOL     OW88776   7.655   4.499  11.039
95648SOL    HW188777   7.709   4.526  10.965
95648SOL    HW288778   7.567   4.530  11.017
95649SOL     OW88779   2.337   1.138  11.577
95649SOL    HW188780   2.349   1.096  11.662
95649SOL    HW288781   2.401   1.210  11.577
95650SOL     OW88782   5.693   4.843  10.310
95650SOL    HW188783   5.610   4.805  10.337
95650SOL    HW288784   5.670   4.903  10.239
95651SOL     OW88785   7.717   3.845   0.845
95651SOL    HW188786   7.799   3.812   0.809
95651SOL    HW288787   7.725   3.940   0.842
95652SOL     OW88788   3.506   7.116   5.304
95652SOL    HW188789   3.572   7.088   5.367
95652SOL    HW288790   3.551   7.179   5.248
95653SOL     OW88791   5.040  11.761   2.319
95653SOL    HW188792   5.037  11.783   2.413
95653SOL    HW288793   5.120  11.802   2.287
95654SOL     OW88794   6.210   7.186   0.176
95654SOL    HW188795   6.254   7.119   0.228
95654SOL    HW288796   6.140   7.218   0.233
95655SOL     OW88797   1.398   3.181  13.765
95655SOL    HW188798   1.475   3.185  13.821
95655SOL    HW288799   1.344   3.111  13.802
95656SOL     OW88800   8.877  14.833   2.801
95656SOL    HW188801   8.834  14.778   2.735
95656SOL    HW288802   8.956  14.784   2.825
95657SOL     OW88803   7.306   9.086  13.576
95657SOL    HW188804   7.262   9.011  13.535
95657SOL    HW288805   7.365   9.119  13.509
95658SOL     OW88806   2.753   5.439  12.175
95658SOL    HW188807   2.753   5.373  12.244
95658SOL    HW288808   2.662   5.443  12.146
95659SOL     OW88809   2.528   2.911  12.007
95659SOL    HW188810   2.468   2.885  12.076
95659SOL    HW288811   2.609   2.934  12.052
95660SOL     OW88812   0.613   3.248   0.970
95660SOL    HW188813   0.622   3.327   1.023
95660SOL    HW288814   0.556   3.274   0.897
95661SOL     OW88815  13.417  12.749   6.643
95661SOL    HW188816  13.357  12.684   6.680
95661SOL    HW288817  13.384  12.833   6.675
95662SOL     OW88818  13.654  13.143   2.197
95662SOL    HW188819  13.714  13.138   2.123
95662SOL    HW288820  13.572  13.107   2.163
95663SOL     OW88821   2.641   3.888   3.778
95663SOL    HW188822   2.690   3.966   3.754
95663SOL    HW288823   2.564   3.921   3.824
95664SOL     OW88824  14.731   2.023   8.308
95664SOL    HW188825  14.704   2.031   8.400
95664SOL    HW288826  14.651   2.001   8.261
95665SOL     OW88827   1.101   8.603   9.757
95665SOL    HW188828   1.090   8.695   9.731
95665SOL    HW288829   1.104   8.606   9.852
95666SOL     OW88830   3.227  10.725  14.268
95666SOL    HW188831   3.262  10.761  14.349
95666SOL    HW288832   3.239  10.794  14.203
95667SOL     OW88833   3.128   6.828   7.558
95667SOL    HW188834   3.066   6.834   7.632
95667SOL    HW288835   3.108   6.904   7.504
95668SOL     OW88836  13.909   2.376  14.766
95668SOL    HW188837  13.847   2.346  14.700
95668SOL    HW288838  13.974   2.305  14.770
95669SOL     OW88839   8.969   4.666  10.347
95669SOL    HW188840   8.983   4.727  10.420
95669SOL    HW288841   9.052   4.665  10.300
95670SOL     OW88842   3.429  13.454   1.026
95670SOL    HW188843   3.385  13.491   1.103
95670SOL    HW288844   3.359  13.415   0.974
95671SOL     OW88845   6.445   8.523  12.612
95671SOL    HW188846   6.452   8.479  12.527
95671SOL    HW288847   6.375   8.477  12.658
95672SOL     OW88848  11.253   1.574   9.837
95672SOL    HW188849  11.341   1.578   9.798
95672SOL    HW288850  11.242   1.659   9.880
95673SOL     OW88851  11.051   4.660   2.340
95673SOL    HW188852  11.102   4.610   2.403
95673SOL    HW288853  10.982   4.600   2.311
95674SOL     OW88854  13.650  14.095   4.884
95674SOL    HW188855  13.724  14.156   4.886
95674SOL    HW288856  13.658  14.044   4.964
95675SOL     OW88857   7.558  14.599   5.333
95675SOL    HW188858   7.528  14.622   5.244
95675SOL    HW288859   7.521  14.512   5.348
95676SOL     OW88860   3.151   3.059   8.654
95676SOL    HW188861   3.167   2.966   8.665
95676SOL    HW288862   3.070   3.065   8.604
95677SOL     OW88863   4.588   9.223  11.324
95677SOL    HW188864   4.645   9.215  11.400
95677SOL    HW288865   4.501   9.201  11.358
95678SOL     OW88866   3.595   8.931  13.925
95678SOL    HW188867   3.519   8.943  13.868
95678SOL    HW288868   3.623   9.021  13.946
95679SOL     OW88869  11.646  10.546   3.934
95679SOL    HW188870  11.711  10.501   3.879
95679SOL    HW288871  11.681  10.634   3.946
95680SOL     OW88872  12.914   8.218   7.833
95680SOL    HW188873  12.966   8.291   7.868
95680SOL    HW288874  12.919   8.150   7.901
95681SOL     OW88875   2.298  10.889  11.076
95681SOL    HW188876   2.248  10.820  11.120
95681SOL    HW288877   2.231  10.948  11.041
95682SOL     OW88878   1.188   4.438   0.804
95682SOL    HW188879   1.168   4.531   0.816
95682SOL    HW288880   1.283   4.432   0.819
95683SOL     OW88881  11.198   3.954   4.108
95683SOL    HW188882  11.236   3.874   4.145
95683SOL    HW288883  11.262   3.982   4.042
95684SOL     OW88884  14.687   0.475   8.012
95684SOL    HW188885  14.657   0.477   7.921
95684SOL    HW288886  14.659   0.390   8.046
95685SOL     OW88887   3.843   8.758   5.908
95685SOL    HW188888   3.844   8.729   5.999
95685SOL    HW288889   3.916   8.713   5.867
95686SOL     OW88890   9.735  11.982   0.807
95686SOL    HW188891   9.706  11.949   0.722
95686SOL    HW288892   9.694  11.923   0.870
95687SOL     OW88893   7.702   7.887   0.678
95687SOL    HW188894   7.733   7.868   0.590
95687SOL    HW288895   7.612   7.917   0.666
95688SOL     OW88896  13.458   6.182   4.277
95688SOL    HW188897  13.509   6.173   4.358
95688SOL    HW288898  13.390   6.245   4.299
95689SOL     OW88899   6.572   5.865   2.393
95689SOL    HW188900   6.650   5.811   2.384
95689SOL    HW288901   6.518   5.820   2.458
95690SOL     OW88902   4.105  13.110  10.799
95690SOL    HW188903   4.193  13.129  10.767
95690SOL    HW288904   4.093  13.171  10.872
95691SOL     OW88905  11.235   9.765  14.111
95691SOL    HW188906  11.266   9.785  14.022
95691SOL    HW288907  11.144   9.738  14.099
95692SOL     OW88908  11.794  12.222   3.452
95692SOL    HW188909  11.844  12.208   3.533
95692SOL    HW288910  11.712  12.175   3.468
95693SOL     OW88911   6.625   7.601   8.544
95693SOL    HW188912   6.563   7.566   8.480
95693SOL    HW288913   6.575   7.666   8.593
95694SOL     OW88914  10.356   2.531  10.282
95694SOL    HW188915  10.325   2.454  10.234
95694SOL    HW288916  10.282   2.592  10.281
95695SOL     OW88917   6.544   5.531  13.285
95695SOL    HW188918   6.578   5.531  13.375
95695SOL    HW288919   6.471   5.469  13.287
95696SOL     OW88920  13.184  14.289   5.548
95696SOL    HW188921  13.257  14.331   5.594
95696SOL    HW288922  13.114  14.354   5.549
95697SOL     OW88923   5.965  14.200  13.992
95697SOL    HW188924   5.888  14.159  13.953
95697SOL    HW288925   6.038  14.167  13.940
95698SOL     OW88926   0.780  10.751  14.451
95698SOL    HW188927   0.722  10.817  14.413
95698SOL    HW288928   0.868  10.779  14.426
95699SOL     OW88929   0.803  10.883  11.669
95699SOL    HW188930   0.797  10.940  11.592
95699SOL    HW288931   0.894  10.891  11.698
95700SOL     OW88932  12.606   4.199   7.475
95700SOL    HW188933  12.546   4.217   7.549
95700SOL    HW288934  12.616   4.284   7.432
95701SOL     OW88935   1.299   2.805   8.092
95701SOL    HW188936   1.352   2.752   8.033
95701SOL    HW288937   1.246   2.860   8.033
95702SOL     OW88938  11.447   6.983   3.684
95702SOL    HW188939  11.409   7.059   3.641
95702SOL    HW288940  11.391   6.967   3.760
95703SOL     OW88941  10.402  14.413   3.234
95703SOL    HW188942  10.481  14.367   3.206
95703SOL    HW288943  10.367  14.452   3.154
95704SOL     OW88944   9.512   4.570  10.370
95704SOL    HW188945   9.576   4.542  10.435
95704SOL    HW288946   9.552   4.549  10.286
95705SOL     OW88947  12.650   5.466  14.290
95705SOL    HW188948  12.667   5.560  14.276
95705SOL    HW288949  12.705   5.442  14.364
95706SOL     OW88950  14.311  12.801   1.214
95706SOL    HW188951  14.402  12.808   1.187
95706SOL    HW288952  14.264  12.864   1.159
95707SOL     OW88953   5.423  12.370   5.372
95707SOL    HW188954   5.510  12.329   5.371
95707SOL    HW288955   5.426  12.435   5.303
95708SOL     OW88956   6.836   7.378   9.716
95708SOL    HW188957   6.931   7.368   9.720
95708SOL    HW288958   6.812   7.339   9.632
95709SOL     OW88959   3.050   2.621  11.629
95709SOL    HW188960   3.058   2.541  11.578
95709SOL    HW288961   2.978   2.669  11.588
95710SOL     OW88962   4.499   9.852   3.963
95710SOL    HW188963   4.406   9.867   3.945
95710SOL    HW288964   4.501   9.774   4.018
95711SOL     OW88965  13.747  10.787  13.023
95711SOL    HW188966  13.784  10.705  12.991
95711SOL    HW288967  13.661  10.793  12.982
95712SOL     OW88968   4.504   3.905   7.987
95712SOL    HW188969   4.522   3.813   8.007
95712SOL    HW288970   4.416   3.920   8.020
95713SOL     OW88971   0.704   4.389  13.794
95713SOL    HW188972   0.676   4.443  13.868
95713SOL    HW288973   0.656   4.307  13.805
95714SOL     OW88974   6.474  12.185  11.117
95714SOL    HW188975   6.450  12.276  11.138
95714SOL    HW288976   6.562  12.175  11.154
95715SOL     OW88977  12.671  10.002   1.883
95715SOL    HW188978  12.709   9.946   1.951
95715SOL    HW288979  12.601   9.950   1.845
95716SOL     OW88980   2.743   3.492   6.685
95716SOL    HW188981   2.809   3.474   6.752
95716SOL    HW288982   2.713   3.581   6.704
95717SOL     OW88983   8.415   1.001  10.664
95717SOL    HW188984   8.504   0.981  10.637
95717SOL    HW288985   8.399   0.944  10.740
95718SOL     OW88986   2.846   7.133   2.088
95718SOL    HW188987   2.855   7.041   2.062
95718SOL    HW288988   2.919   7.177   2.045
95719SOL     OW88989   5.582   2.451   9.654
95719SOL    HW188990   5.575   2.501   9.573
95719SOL    HW288991   5.575   2.359   9.626
95720SOL     OW88992   0.620   0.816   8.066
95720SOL    HW188993   0.595   0.823   7.974
95720SOL    HW288994   0.711   0.788   8.065
95721SOL     OW88995  11.697   7.717   9.087
95721SOL    HW188996  11.768   7.739   9.026
95721SOL    HW288997  11.621   7.765   9.053
95722SOL     OW88998   2.837  10.849   9.524
95722SOL    HW188999   2.785  10.921   9.489
95722SOL    HW289000   2.923  10.887   9.541
95723SOL     OW89001  14.045  10.855   4.868
95723SOL    HW189002  13.974  10.825   4.811
95723SOL    HW289003  14.001  10.908   4.935
95724SOL     OW89004  12.271  12.971   5.718
95724SOL    HW189005  12.274  12.876   5.730
95724SOL    HW289006  12.361  12.996   5.699
95725SOL     OW89007   2.960   6.932  12.366
95725SOL    HW189008   2.911   6.956  12.287
95725SOL    HW289009   3.049   6.917  12.335
95726SOL     OW89010  12.263   5.577  14.764
95726SOL    HW189011  12.169   5.570  14.778
95726SOL    HW289012  12.274   5.656  14.711
95727SOL     OW89013   7.890   6.527   6.566
95727SOL    HW189014   7.965   6.474   6.540
95727SOL    HW289015   7.910   6.616   6.536
95728SOL     OW89016  10.463   8.940   0.276
95728SOL    HW189017  10.492   9.029   0.297
95728SOL    HW289018  10.463   8.894   0.360
95729SOL     OW89019   9.548  11.617  11.551
95729SOL    HW189020   9.616  11.576  11.605
95729SOL    HW289021   9.560  11.580  11.464
95730SOL     OW89022   6.902   0.787   8.173
95730SOL    HW189023   6.981   0.733   8.169
95730SOL    HW289024   6.832   0.725   8.195
95731SOL     OW89025  10.988   1.569  13.523
95731SOL    HW189026  10.993   1.485  13.476
95731SOL    HW289027  10.908   1.610  13.491
95732SOL     OW89028   3.451   7.251  13.089
95732SOL    HW189029   3.505   7.186  13.134
95732SOL    HW289030   3.402   7.294  13.159
95733SOL     OW89031   0.426   8.221   9.419
95733SOL    HW189032   0.357   8.287   9.421
95733SOL    HW289033   0.406   8.164   9.494
95734SOL     OW89034   0.300   2.829   3.548
95734SOL    HW189035   0.330   2.742   3.575
95734SOL    HW289036   0.205   2.820   3.541
95735SOL     OW89037   3.635   4.529  11.862
95735SOL    HW189038   3.541   4.528  11.880
95735SOL    HW289039   3.651   4.446  11.817
95736SOL     OW89040   8.414   0.801  13.581
95736SOL    HW189041   8.370   0.726  13.621
95736SOL    HW289042   8.450   0.850  13.655
95737SOL     OW89043   4.322   8.156   0.011
95737SOL    HW189044   4.328   8.168   0.105
95737SOL    HW289045   4.231   8.131  14.874
95738SOL     OW89046   2.856  10.572   0.298
95738SOL    HW189047   2.806  10.545   0.376
95738SOL    HW289048   2.846  10.499   0.237
95739SOL     OW89049   1.197  13.590  12.109
95739SOL    HW189050   1.242  13.511  12.080
95739SOL    HW289051   1.252  13.623  12.180
95740SOL     OW89052   4.294  11.148   6.474
95740SOL    HW189053   4.381  11.177   6.503
95740SOL    HW289054   4.312  11.084   6.406
95741SOL     OW89055   9.046  14.736  14.073
95741SOL    HW189056   9.044  14.648  14.034
95741SOL    HW289057   8.954  14.759  14.085
95742SOL     OW89058   0.117  10.858   6.915
95742SOL    HW189059   0.178  10.822   6.980
95742SOL    HW289060   0.093  10.783   6.861
95743SOL     OW89061  10.409  12.306  10.522
95743SOL    HW189062  10.390  12.244  10.452
95743SOL    HW289063  10.504  12.319  10.517
95744SOL     OW89064  12.303   8.048   9.777
95744SOL    HW189065  12.280   7.974   9.720
95744SOL    HW289066  12.367   8.012   9.839
95745SOL     OW89067   5.147   9.700   5.598
95745SOL    HW189068   5.171   9.608   5.612
95745SOL    HW289069   5.076   9.716   5.659
95746SOL     OW89070   0.562  13.210  12.281
95746SOL    HW189071   0.520  13.242  12.201
95746SOL    HW289072   0.519  13.127  12.300
95747SOL     OW89073  10.456  13.748   3.705
95747SOL    HW189074  10.520  13.693   3.750
95747SOL    HW289075  10.460  13.832   3.751
95748SOL     OW89076  14.313   0.799  14.694
95748SOL    HW189077  14.265   0.758  14.765
95748SOL    HW289078  14.251   0.862  14.657
95749SOL     OW89079   3.168   9.163   4.441
95749SOL    HW189080   3.191   9.150   4.533
95749SOL    HW289081   3.173   9.076   4.402
95750SOL     OW89082   6.033   1.049  14.496
95750SOL    HW189083   5.979   1.120  14.462
95750SOL    HW289084   5.971   0.978  14.513
95751SOL     OW89085   6.338  13.294   0.282
95751SOL    HW189086   6.330  13.227   0.215
95751SOL    HW289087   6.251  13.299   0.323
95752SOL     OW89088   0.282   1.644  12.182
95752SOL    HW189089   0.192   1.638  12.148
95752SOL    HW289090   0.282   1.725  12.234
95753SOL     OW89091   0.934  14.223  12.826
95753SOL    HW189092   0.989  14.201  12.901
95753SOL    HW289093   0.846  14.227  12.861
95754SOL     OW89094   2.959   2.570   1.278
95754SOL    HW189095   2.999   2.651   1.248
95754SOL    HW289096   3.025   2.530   1.334
95755SOL     OW89097   9.853   1.233   5.074
95755SOL    HW189098   9.871   1.325   5.096
95755SOL    HW289099   9.939   1.195   5.057
95756SOL     OW89100   3.161  14.787   3.092
95756SOL    HW189101   3.097  14.798   3.162
95756SOL    HW289102   3.116  14.820   3.014
95757SOL     OW89103   4.194  13.710   5.527
95757SOL    HW189104   4.261  13.706   5.459
95757SOL    HW289105   4.234  13.666   5.603
95758SOL     OW89106   2.857   3.310  10.043
95758SOL    HW189107   2.919   3.255   9.995
95758SOL    HW289108   2.904   3.392  10.059
95759SOL     OW89109   1.054  14.471   2.759
95759SOL    HW189110   1.047  14.541   2.825
95759SOL    HW289111   0.969  14.427   2.763
95760SOL     OW89112   4.721   8.222  12.082
95760SOL    HW189113   4.807   8.247  12.051
95760SOL    HW289114   4.728   8.224  12.178
95761SOL     OW89115   4.009   4.728   0.553
95761SOL    HW189116   4.042   4.665   0.617
95761SOL    HW289117   4.084   4.786   0.536
95762SOL     OW89118  14.132  11.685   1.466
95762SOL    HW189119  14.059  11.702   1.408
95762SOL    HW289120  14.204  11.659   1.408
95763SOL     OW89121  11.232  10.456   9.140
95763SOL    HW189122  11.201  10.390   9.201
95763SOL    HW289123  11.286  10.407   9.078
95764SOL     OW89124   0.530  11.740  11.185
95764SOL    HW189125   0.467  11.669  11.169
95764SOL    HW289126   0.494  11.788  11.259
95765SOL     OW89127   7.637  14.800  11.907
95765SOL    HW189128   7.702  14.739  11.942
95765SOL    HW289129   7.605  14.760  11.827
95766SOL     OW89130  13.237   4.704  10.403
95766SOL    HW189131  13.222   4.691  10.496
95766SOL    HW289132  13.217   4.796  10.387
95767SOL     OW89133   6.181   1.867  14.534
95767SOL    HW189134   6.086   1.881  14.534
95767SOL    HW289135   6.191   1.772  14.546
95768SOL     OW89136  12.494   2.953  10.217
95768SOL    HW189137  12.534   2.870  10.244
95768SOL    HW289138  12.418   2.962  10.275
95769SOL     OW89139   1.188   7.818  14.319
95769SOL    HW189140   1.148   7.870  14.250
95769SOL    HW289141   1.114   7.792  14.375
95770SOL     OW89142  12.275  14.217   0.507
95770SOL    HW189143  12.183  14.228   0.529
95770SOL    HW289144  12.281  14.241   0.415
95771SOL     OW89145   8.310   3.312   3.114
95771SOL    HW189146   8.274   3.389   3.069
95771SOL    HW289147   8.405   3.326   3.111
95772SOL     OW89148   8.866   4.450   3.615
95772SOL    HW189149   8.817   4.469   3.695
95772SOL    HW289150   8.926   4.524   3.606
95773SOL     OW89151   4.023   0.182   0.494
95773SOL    HW189152   4.012   0.106   0.435
95773SOL    HW289153   3.992   0.150   0.579
95774SOL     OW89154   0.738  14.131   6.317
95774SOL    HW189155   0.815  14.105   6.368
95774SOL    HW289156   0.680  14.173   6.381
95775SOL     OW89157   9.440   9.406  13.737
95775SOL    HW189158   9.504   9.360  13.792
95775SOL    HW289159   9.492   9.446  13.668
95776SOL     OW89160   1.430  10.358  13.804
95776SOL    HW189161   1.404  10.266  13.799
95776SOL    HW289162   1.376  10.402  13.738
95777SOL     OW89163  14.862   8.853  12.744
95777SOL    HW189164   0.021   8.917  12.804
95777SOL    HW289165  14.784   8.896  12.709
95778SOL     OW89166  10.408  12.606   5.031
95778SOL    HW189167  10.377  12.696   5.025
95778SOL    HW289168  10.491  12.605   4.983
95779SOL     OW89169   3.633  11.318  10.960
95779SOL    HW189170   3.599  11.401  10.994
95779SOL    HW289171   3.725  11.318  10.985
95780SOL     OW89172   8.224  14.193  12.868
95780SOL    HW189173   8.229  14.289  12.877
95780SOL    HW289174   8.290  14.160  12.928
95781SOL     OW89175   6.001   5.241   6.196
95781SOL    HW189176   6.056   5.286   6.259
95781SOL    HW289177   6.013   5.148   6.215
95782SOL     OW89178   0.468   5.959   4.417
95782SOL    HW189179   0.558   5.953   4.448
95782SOL    HW289180   0.465   6.040   4.367
95783SOL     OW89181   2.134  14.442  14.651
95783SOL    HW189182   2.104  14.401  14.732
95783SOL    HW289183   2.190  14.376  14.611
95784SOL     OW89184   5.287   8.463  12.028
95784SOL    HW189185   5.269   8.532  11.965
95784SOL    HW289186   5.338   8.398  11.979
95785SOL     OW89187   3.734   6.219   8.783
95785SOL    HW189188   3.792   6.288   8.815
95785SOL    HW289189   3.759   6.206   8.692
95786SOL     OW89190  12.037   8.902   6.788
95786SOL    HW189191  12.000   8.871   6.705
95786SOL    HW289192  11.993   8.849   6.855
95787SOL     OW89193  14.198   2.198   9.986
95787SOL    HW189194  14.150   2.167  10.063
95787SOL    HW289195  14.203   2.121   9.929
95788SOL     OW89196   5.498  11.347   7.607
95788SOL    HW189197   5.570  11.349   7.544
95788SOL    HW289198   5.491  11.437   7.639
95789SOL     OW89199   7.980   1.261  13.875
95789SOL    HW189200   7.944   1.349  13.882
95789SOL    HW289201   7.926   1.209  13.935
95790SOL     OW89202  10.631  14.708   7.160
95790SOL    HW189203  10.720  14.677   7.174
95790SOL    HW289204  10.588  14.638   7.111
95791SOL     OW89205   7.064   6.787  10.953
95791SOL    HW189206   7.133   6.851  10.969
95791SOL    HW289207   7.059   6.780  10.858
95792SOL     OW89208  12.042  12.375   5.086
95792SOL    HW189209  12.084  12.290   5.088
95792SOL    HW289210  12.099  12.432   5.138
95793SOL     OW89211  14.382   2.873  11.356
95793SOL    HW189212  14.384   2.914  11.443
95793SOL    HW289213  14.321   2.800  11.366
95794SOL     OW89214   9.312   9.477   5.644
95794SOL    HW189215   9.332   9.537   5.573
95794SOL    HW289216   9.230   9.509   5.681
95795SOL     OW89217   3.408   1.782   2.291
95795SOL    HW189218   3.387   1.770   2.384
95795SOL    HW289219   3.384   1.699   2.250
95796SOL     OW89220   8.532   7.457   1.932
95796SOL    HW189221   8.567   7.494   2.013
95796SOL    HW289222   8.523   7.531   1.873
95797SOL     OW89223  10.365  11.596   9.572
95797SOL    HW189224  10.409  11.514   9.594
95797SOL    HW289225  10.414  11.630   9.497
95798SOL     OW89226  11.233   1.398   3.276
95798SOL    HW189227  11.161   1.422   3.218
95798SOL    HW289228  11.192   1.352   3.348
95799SOL     OW89229   3.666   1.651   9.110
95799SOL    HW189230   3.678   1.732   9.159
95799SOL    HW289231   3.593   1.607   9.154
95800SOL     OW89232   8.495   7.553  11.882
95800SOL    HW189233   8.433   7.497  11.929
95800SOL    HW289234   8.574   7.552  11.935
95801SOL     OW89235  10.651  14.787  11.826
95801SOL    HW189236  10.564  14.812  11.857
95801SOL    HW289237  10.646  14.692  11.814
95802SOL     OW89238   9.026  13.088   9.750
95802SOL    HW189239   9.112  13.093   9.792
95802SOL    HW289240   8.965  13.068   9.822
95803SOL     OW89241   9.897   8.720   6.534
95803SOL    HW189242   9.992   8.729   6.540
95803SOL    HW289243   9.883   8.650   6.471
95804SOL     OW89244   3.771   8.683   3.975
95804SOL    HW189245   3.766   8.778   3.965
95804SOL    HW289246   3.859   8.667   4.009
95805SOL     OW89247   0.569   6.008   6.592
95805SOL    HW189248   0.630   5.958   6.647
95805SOL    HW289249   0.614   6.018   6.508
95806SOL     OW89250  13.645   7.030   2.226
95806SOL    HW189251  13.621   7.107   2.278
95806SOL    HW289252  13.735   7.011   2.252
95807SOL     OW89253   6.842   5.457   2.319
95807SOL    HW189254   6.925   5.473   2.274
95807SOL    HW289255   6.856   5.491   2.407
95808SOL     OW89256  10.951   9.714   2.167
95808SOL    HW189257  11.022   9.776   2.150
95808SOL    HW289258  10.980   9.633   2.125
95809SOL     OW89259   6.259   1.238  12.534
95809SOL    HW189260   6.211   1.303  12.585
95809SOL    HW289261   6.252   1.268  12.443
95810SOL     OW89262   1.664  13.531   3.835
95810SOL    HW189263   1.675  13.572   3.750
95810SOL    HW289264   1.665  13.437   3.817
95811SOL     OW89265   9.912   7.745  14.004
95811SOL    HW189266   9.932   7.671  13.946
95811SOL    HW289267   9.985   7.806  13.990
95812SOL     OW89268   2.109   3.986  10.915
95812SOL    HW189269   2.025   3.940  10.920
95812SOL    HW289270   2.174   3.917  10.912
95813SOL     OW89271  10.404   6.421  11.427
95813SOL    HW189272  10.385   6.365  11.502
95813SOL    HW289273  10.500   6.421  11.420
95814SOL     OW89274   5.560  12.717   0.298
95814SOL    HW189275   5.534  12.679   0.214
95814SOL    HW289276   5.477  12.742   0.339
95815SOL     OW89277   4.231   8.741   0.560
95815SOL    HW189278   4.289   8.816   0.544
95815SOL    HW289279   4.213   8.707   0.472
95816SOL     OW89280  10.466  12.878   5.454
95816SOL    HW189281  10.408  12.837   5.390
95816SOL    HW289282  10.411  12.943   5.499
95817SOL     OW89283   8.628   1.737   5.012
95817SOL    HW189284   8.573   1.690   5.074
95817SOL    HW289285   8.700   1.678   4.994
95818SOL     OW89286   0.007  11.794   2.053
95818SOL    HW189287  14.806  11.770   2.006
95818SOL    HW289288   0.001  11.889   2.066
95819SOL     OW89289   5.880  10.702  12.148
95819SOL    HW189290   5.927  10.735  12.224
95819SOL    HW289291   5.840  10.620  12.177
95820SOL     OW89292   9.689  10.055   1.268
95820SOL    HW189293   9.752  10.117   1.232
95820SOL    HW289294   9.629  10.109   1.320
95821SOL     OW89295  12.281   7.769   9.055
95821SOL    HW189296  12.331   7.809   8.984
95821SOL    HW289297  12.347   7.736   9.116
95822SOL     OW89298   7.563   3.070   0.496
95822SOL    HW189299   7.491   3.012   0.473
95822SOL    HW289300   7.534   3.113   0.577
95823SOL     OW89301   2.225   7.245  11.768
95823SOL    HW189302   2.317   7.245  11.794
95823SOL    HW289303   2.180   7.287  11.841
95824SOL     OW89304   1.021   2.889  11.460
95824SOL    HW189305   1.095   2.949  11.470
95824SOL    HW289306   0.987   2.878  11.549
95825SOL     OW89307  11.980   9.599   7.707
95825SOL    HW189308  11.947   9.633   7.624
95825SOL    HW289309  12.061   9.647   7.723
95826SOL     OW89310  12.867   1.541   2.384
95826SOL    HW189311  12.908   1.623   2.410
95826SOL    HW289312  12.883   1.535   2.289
95827SOL     OW89313   1.953  10.877   2.976
95827SOL    HW189314   2.021  10.828   2.929
95827SOL    HW289315   1.919  10.938   2.910
95828SOL     OW89316   5.981   8.181   3.516
95828SOL    HW189317   5.994   8.156   3.608
95828SOL    HW289318   6.063   8.158   3.474
95829SOL     OW89319   6.374   0.522   1.520
95829SOL    HW189320   6.433   0.483   1.455
95829SOL    HW289321   6.351   0.450   1.579
95830SOL     OW89322  13.972   2.060   8.522
95830SOL    HW189323  13.935   2.016   8.599
95830SOL    HW289324  13.897   2.107   8.483
95831SOL     OW89325   9.817  11.303  13.998
95831SOL    HW189326   9.802  11.361  13.923
95831SOL    HW289327   9.822  11.361  14.073
95832SOL     OW89328  12.112  12.929   3.074
95832SOL    HW189329  12.100  12.982   2.995
95832SOL    HW289330  12.112  12.838   3.042
95833SOL     OW89331  14.649   5.421   8.259
95833SOL    HW189332  14.585   5.350   8.261
95833SOL    HW289333  14.733   5.379   8.274
95834SOL     OW89334  10.965   3.884   4.221
95834SOL    HW189335  10.882   3.916   4.187
95834SOL    HW289336  11.031   3.933   4.173
95835SOL     OW89337   4.067   1.380  14.181
95835SOL    HW189338   4.115   1.370  14.263
95835SOL    HW289339   4.132   1.412  14.119
95836SOL     OW89340  12.442   5.941   6.627
95836SOL    HW189341  12.439   5.940   6.532
95836SOL    HW289342  12.387   5.867   6.653
95837SOL     OW89343  13.727   8.699   3.594
95837SOL    HW189344  13.724   8.795   3.595
95837SOL    HW289345  13.812   8.678   3.633
95838SOL     OW89346  11.932   5.831  12.298
95838SOL    HW189347  11.840   5.832  12.272
95838SOL    HW289348  11.943   5.909  12.351
95839SOL     OW89349  10.801   9.619  13.079
95839SOL    HW189350  10.715   9.587  13.054
95839SOL    HW289351  10.784   9.698  13.130
95840SOL     OW89352   8.819   5.579   2.065
95840SOL    HW189353   8.824   5.590   1.970
95840SOL    HW289354   8.892   5.520   2.085
95841SOL     OW89355   2.913  11.987  14.642
95841SOL    HW189356   2.883  11.979  14.551
95841SOL    HW289357   2.879  11.909  14.686
95842SOL     OW89358   2.597   5.442  14.337
95842SOL    HW189359   2.638   5.527  14.319
95842SOL    HW289360   2.622   5.387  14.263
95843SOL     OW89361   5.294   6.594   7.407
95843SOL    HW189362   5.203   6.618   7.425
95843SOL    HW289363   5.329   6.668   7.358
95844SOL     OW89364   6.047   0.884   7.750
95844SOL    HW189365   6.047   0.937   7.830
95844SOL    HW289366   5.981   0.816   7.767
95845SOL     OW89367   5.550  12.393   6.031
95845SOL    HW189368   5.516  12.463   5.975
95845SOL    HW289369   5.601  12.337   5.972
95846SOL     OW89370   3.904   1.629   2.538
95846SOL    HW189371   3.922   1.537   2.519
95846SOL    HW289372   3.986   1.675   2.518
95847SOL     OW89373   7.052   4.617   2.368
95847SOL    HW189374   7.147   4.609   2.376
95847SOL    HW289375   7.018   4.566   2.442
95848SOL     OW89376   5.812   9.733   7.867
95848SOL    HW189377   5.773   9.766   7.786
95848SOL    HW289378   5.820   9.639   7.853
95849SOL     OW89379  14.086  11.098   9.345
95849SOL    HW189380  14.132  11.135   9.421
95849SOL    HW289381  13.993  11.102   9.369
95850SOL     OW89382   9.032   3.253  12.303
95850SOL    HW189383   8.966   3.276  12.237
95850SOL    HW289384   9.115   3.256  12.255
95851SOL     OW89385   9.127  13.644   1.343
95851SOL    HW189386   9.098  13.734   1.331
95851SOL    HW289387   9.140  13.636   1.437
95852SOL     OW89388   6.933   0.308   4.409
95852SOL    HW189389   6.948   0.314   4.504
95852SOL    HW289390   6.839   0.318   4.399
95853SOL     OW89391  13.606  14.406  14.349
95853SOL    HW189392  13.547  14.476  14.375
95853SOL    HW289393  13.644  14.374  14.431
95854SOL     OW89394  14.857   4.018  14.697
95854SOL    HW189395  14.806   3.998  14.776
95854SOL    HW289396  14.869   3.933  14.655
95855SOL     OW89397  11.989   6.875   5.880
95855SOL    HW189398  12.007   6.835   5.966
95855SOL    HW289399  12.037   6.820   5.818
95856SOL     OW89400   0.672   5.486   6.112
95856SOL    HW189401   0.666   5.396   6.081
95856SOL    HW289402   0.584   5.522   6.102
95857SOL     OW89403  14.459   3.174  13.106
95857SOL    HW189404  14.449   3.201  13.197
95857SOL    HW289405  14.552   3.152  13.097
95858SOL     OW89406  10.583   6.652   1.976
95858SOL    HW189407  10.510   6.609   2.019
95858SOL    HW289408  10.545   6.731   1.937
95859SOL     OW89409   3.050   7.323  12.637
95859SOL    HW189410   3.099   7.341  12.718
95859SOL    HW289411   2.981   7.263  12.664
95860SOL     OW89412   4.040   6.220  14.799
95860SOL    HW189413   4.039   6.302  14.848
95860SOL    HW289414   4.108   6.167  14.842
95861SOL     OW89415   5.660  13.181  10.496
95861SOL    HW189416   5.664  13.096  10.539
95861SOL    HW289417   5.741  13.187  10.446
95862SOL     OW89418   6.274   1.244   0.532
95862SOL    HW189419   6.262   1.197   0.450
95862SOL    HW289420   6.196   1.222   0.583
95863SOL     OW89421   8.588   6.605   8.774
95863SOL    HW189422   8.575   6.700   8.776
95863SOL    HW289423   8.680   6.594   8.747
95864SOL     OW89424  10.932  14.419  12.126
95864SOL    HW189425  10.994  14.492  12.125
95864SOL    HW289426  10.987  14.341  12.111
95865SOL     OW89427   8.682  13.717   6.101
95865SOL    HW189428   8.609  13.752   6.050
95865SOL    HW289429   8.642  13.650   6.156
95866SOL     OW89430   5.816   7.785   5.005
95866SOL    HW189431   5.770   7.869   5.000
95866SOL    HW289432   5.908   7.808   4.999
95867SOL     OW89433   6.178   6.340   1.258
95867SOL    HW189434   6.237   6.265   1.247
95867SOL    HW289435   6.225   6.414   1.221
95868SOL     OW89436   3.651  12.741   9.007
95868SOL    HW189437   3.601  12.670   9.047
95868SOL    HW289438   3.592  12.816   9.009
95869SOL     OW89439  14.420  11.478  11.521
95869SOL    HW189440  14.326  11.471  11.541
95869SOL    HW289441  14.423  11.515  11.433
95870SOL     OW89442   3.744   9.355   5.230
95870SOL    HW189443   3.688   9.414   5.180
95870SOL    HW289444   3.826   9.403   5.241
95871SOL     OW89445  12.245  10.428   6.327
95871SOL    HW189446  12.294  10.346   6.335
95871SOL    HW289447  12.213  10.428   6.237
95872SOL     OW89448  12.923  11.334  14.626
95872SOL    HW189449  12.941  11.241  14.643
95872SOL    HW289450  12.841  11.334  14.576
95873SOL     OW89451   6.457  14.158   5.079
95873SOL    HW189452   6.459  14.076   5.127
95873SOL    HW289453   6.404  14.217   5.134
95874SOL     OW89454   4.730  10.400  13.560
95874SOL    HW189455   4.649  10.391  13.509
95874SOL    HW289456   4.770  10.480  13.527
95875SOL     OW89457   2.205   5.390   3.330
95875SOL    HW189458   2.131   5.353   3.280
95875SOL    HW289459   2.246   5.451   3.269
95876SOL     OW89460   7.481   2.649  11.386
95876SOL    HW189461   7.508   2.644  11.478
95876SOL    HW289462   7.563   2.645  11.336
95877SOL     OW89463  12.892   2.867   0.041
95877SOL    HW189464  12.940   2.872   0.124
95877SOL    HW289465  12.958   2.844  14.855
95878SOL     OW89466   0.882   3.624  11.941
95878SOL    HW189467   0.788   3.632  11.959
95878SOL    HW289468   0.922   3.686  12.002
95879SOL     OW89469   4.351   1.208   3.569
95879SOL    HW189470   4.407   1.133   3.586
95879SOL    HW289471   4.370   1.269   3.641
95880SOL     OW89472   9.317   7.974   0.879
95880SOL    HW189473   9.345   8.043   0.818
95880SOL    HW289474   9.298   8.020   0.960
95881SOL     OW89475   9.604   5.217   7.649
95881SOL    HW189476   9.670   5.202   7.717
95881SOL    HW289477   9.537   5.270   7.692
95882SOL     OW89478   2.414   6.120   2.059
95882SOL    HW189479   2.352   6.074   2.003
95882SOL    HW289480   2.388   6.098   2.148
95883SOL     OW89481   7.134  13.267   0.002
95883SOL    HW189482   7.198  13.338   0.006
95883SOL    HW289483   7.183  13.192  14.846
95884SOL     OW89484  14.702   6.217   5.300
95884SOL    HW189485  14.711   6.186   5.210
95884SOL    HW289486  14.790   6.245   5.325
95885SOL     OW89487  14.277   4.093   9.908
95885SOL    HW189488  14.304   4.012   9.865
95885SOL    HW289489  14.263   4.069   9.999
95886SOL     OW89490  13.713   0.865   1.661
95886SOL    HW189491  13.790   0.910   1.626
95886SOL    HW289492  13.732   0.772   1.649
95887SOL     OW89493   8.477   5.853   9.235
95887SOL    HW189494   8.414   5.847   9.307
95887SOL    HW289495   8.545   5.912   9.268
95888SOL     OW89496  10.913   4.471   8.908
95888SOL    HW189497  10.957   4.556   8.917
95888SOL    HW289498  10.929   4.427   8.991
95889SOL     OW89499  11.298  11.677   5.931
95889SOL    HW189500  11.377  11.667   5.984
95889SOL    HW289501  11.329  11.716   5.849
95890SOL     OW89502  14.326   6.417  13.718
95890SOL    HW189503  14.406   6.420  13.665
95890SOL    HW289504  14.271   6.487  13.683
95891SOL     OW89505   9.069   8.057  11.626
95891SOL    HW189506   9.027   8.011  11.554
95891SOL    HW289507   9.071   8.148  11.599
95892SOL     OW89508  13.889  12.503   4.723
95892SOL    HW189509  13.812  12.560   4.726
95892SOL    HW289510  13.896  12.477   4.631
95893SOL     OW89511   7.648   7.560  10.776
95893SOL    HW189512   7.629   7.556  10.870
95893SOL    HW289513   7.637   7.470  10.745
95894SOL     OW89514   7.185   1.420   8.179
95894SOL    HW189515   7.184   1.342   8.236
95894SOL    HW289516   7.226   1.389   8.098
95895SOL     OW89517   6.264   2.976   0.382
95895SOL    HW189518   6.350   3.003   0.416
95895SOL    HW289519   6.213   3.056   0.380
95896SOL     OW89520   3.889   3.805  12.121
95896SOL    HW189521   3.810   3.839  12.161
95896SOL    HW289522   3.885   3.835  12.030
95897SOL     OW89523   3.346   9.385   0.201
95897SOL    HW189524   3.344   9.452   0.270
95897SOL    HW289525   3.342   9.302   0.249
95898SOL     OW89526   8.297  11.769   4.203
95898SOL    HW189527   8.243  11.778   4.125
95898SOL    HW289528   8.242  11.800   4.275
95899SOL     OW89529   2.852  12.374  11.326
95899SOL    HW189530   2.784  12.314  11.298
95899SOL    HW289531   2.843  12.378  11.421
95900SOL     OW89532   1.016  11.761   9.032
95900SOL    HW189533   1.011  11.675   8.990
95900SOL    HW289534   0.974  11.749   9.117
95901SOL     OW89535   9.309   5.067  12.280
95901SOL    HW189536   9.223   5.087  12.316
95901SOL    HW289537   9.361   5.041  12.356
95902SOL     OW89538   9.209  10.357   7.075
95902SOL    HW189539   9.175  10.304   7.003
95902SOL    HW289540   9.285  10.401   7.038
95903SOL     OW89541  10.660   7.453  10.818
95903SOL    HW189542  10.598   7.487  10.753
95903SOL    HW289543  10.627   7.486  10.902
95904SOL     OW89544   5.330   5.629   9.766
95904SOL    HW189545   5.273   5.568   9.719
95904SOL    HW289546   5.304   5.716   9.735
95905SOL     OW89547   4.377  11.081   3.750
95905SOL    HW189548   4.416  11.019   3.811
95905SOL    HW289549   4.287  11.091   3.782
95906SOL     OW89550   1.818   6.868   8.594
95906SOL    HW189551   1.830   6.921   8.672
95906SOL    HW289552   1.907   6.844   8.568
95907SOL     OW89553   9.461   6.498   2.718
95907SOL    HW189554   9.483   6.419   2.767
95907SOL    HW289555   9.490   6.570   2.774
95908SOL     OW89556   8.810   1.337   3.747
95908SOL    HW189557   8.885   1.333   3.807
95908SOL    HW289558   8.839   1.289   3.670
95909SOL     OW89559   1.048  12.109  11.824
95909SOL    HW189560   1.017  12.138  11.910
95909SOL    HW289561   1.137  12.144  11.817
95910SOL     OW89562  13.222  13.223   5.153
95910SOL    HW189563  13.242  13.192   5.241
95910SOL    HW289564  13.212  13.144   5.101
95911SOL     OW89565   9.791  13.545   8.535
95911SOL    HW189566   9.854  13.475   8.553
95911SOL    HW289567   9.710  13.516   8.577
95912SOL     OW89568   5.875  12.509   2.343
95912SOL    HW189569   5.819  12.438   2.312
95912SOL    HW289570   5.886  12.566   2.267
95913SOL     OW89571   2.111  11.778  13.484
95913SOL    HW189572   2.033  11.793  13.430
95913SOL    HW289573   2.171  11.847  13.458
95914SOL     OW89574   9.494  10.474   1.485
95914SOL    HW189575   9.564  10.420   1.449
95914SOL    HW289576   9.446  10.414   1.542
95915SOL     OW89577   0.028   4.021   9.267
95915SOL    HW189578   0.091   4.081   9.306
95915SOL    HW289579   0.027   4.045   9.174
95916SOL     OW89580  13.207  10.221   4.063
95916SOL    HW189581  13.175  10.202   4.151
95916SOL    HW289582  13.295  10.257   4.076
95917SOL     OW89583   9.755   8.835   7.220
95917SOL    HW189584   9.673   8.815   7.265
95917SOL    HW289585   9.802   8.752   7.215
95918SOL     OW89586   4.240  14.743   3.757
95918SOL    HW189587   4.323  14.790   3.752
95918SOL    HW289588   4.176  14.810   3.782
95919SOL     OW89589   8.251   5.861   1.623
95919SOL    HW189590   8.171   5.813   1.644
95919SOL    HW289591   8.228   5.911   1.544
95920SOL     OW89592   9.275   7.278   3.644
95920SOL    HW189593   9.338   7.256   3.713
95920SOL    HW289594   9.285   7.209   3.579
95921SOL     OW89595   7.752  14.223  14.507
95921SOL    HW189596   7.691  14.188  14.442
95921SOL    HW289597   7.838  14.207  14.470
95922SOL     OW89598   9.723   4.574   2.494
95922SOL    HW189599   9.758   4.657   2.528
95922SOL    HW289600   9.801   4.519   2.483
95923SOL     OW89601  12.691  13.717   0.819
95923SOL    HW189602  12.718  13.787   0.759
95923SOL    HW289603  12.606  13.746   0.852
95924SOL     OW89604  11.634  12.443   0.005
95924SOL    HW189605  11.680  12.463  14.802
95924SOL    HW289606  11.548  12.484  14.875
95925SOL     OW89607   1.862  13.890   7.228
95925SOL    HW189608   1.891  13.974   7.191
95925SOL    HW289609   1.926  13.872   7.298
95926SOL     OW89610   1.589  12.247  13.820
95926SOL    HW189611   1.609  12.299  13.742
95926SOL    HW289612   1.637  12.289  13.891
95927SOL     OW89613  14.563   9.266  12.528
95927SOL    HW189614  14.509   9.316  12.466
95927SOL    HW289615  14.652   9.276  12.495
95928SOL     OW89616   3.394   4.323   3.922
95928SOL    HW189617   3.487   4.346   3.915
95928SOL    HW289618   3.375   4.276   3.841
95929SOL     OW89619   4.673   0.936   0.017
95929SOL    HW189620   4.688   1.016  14.846
95929SOL    HW289621   4.611   0.885  14.843
95930SOL     OW89622  12.400   4.582   0.936
95930SOL    HW189623  12.480   4.588   0.883
95930SOL    HW289624  12.330   4.611   0.878
95931SOL     OW89625   9.070   4.294  11.140
95931SOL    HW189626   9.164   4.279  11.132
95931SOL    HW289627   9.061   4.389  11.146
95932SOL     OW89628   4.541   4.374  14.779
95932SOL    HW189629   4.585   4.436  14.838
95932SOL    HW289630   4.600   4.299  14.775
95933SOL     OW89631   7.158   0.100   8.312
95933SOL    HW189632   7.187   0.066   8.228
95933SOL    HW289633   7.075   0.055   8.329
95934SOL     OW89634   1.640   1.598   5.886
95934SOL    HW189635   1.553   1.627   5.859
95934SOL    HW289636   1.647   1.508   5.854
95935SOL     OW89637  11.755  12.092   6.457
95935SOL    HW189638  11.806  12.157   6.408
95935SOL    HW289639  11.750  12.127   6.546
95936SOL     OW89640   4.711   9.523   9.218
95936SOL    HW189641   4.655   9.571   9.158
95936SOL    HW289642   4.651   9.468   9.269
95937SOL     OW89643   7.469   1.517  13.296
95937SOL    HW189644   7.467   1.585  13.228
95937SOL    HW289645   7.380   1.515  13.331
95938SOL     OW89646  10.938  11.169   8.594
95938SOL    HW189647  10.979  11.131   8.516
95938SOL    HW289648  10.852  11.128   8.598
95939SOL     OW89649   4.816   3.731  11.926
95939SOL    HW189650   4.820   3.798  11.994
95939SOL    HW289651   4.730   3.744  11.885
95940SOL     OW89652   2.440   9.157   2.834
95940SOL    HW189653   2.435   9.249   2.808
95940SOL    HW289654   2.384   9.111   2.772
95941SOL     OW89655   9.532   1.572   8.339
95941SOL    HW189656   9.477   1.646   8.313
95941SOL    HW289657   9.548   1.585   8.432
95942SOL     OW89658   4.506  12.615   5.171
95942SOL    HW189659   4.411  12.603   5.180
95942SOL    HW289660   4.543  12.531   5.199
95943SOL     OW89661   4.008   5.552   7.716
95943SOL    HW189662   4.075   5.602   7.762
95943SOL    HW289663   4.029   5.563   7.623
95944SOL     OW89664  10.557   2.813  13.619
95944SOL    HW189665  10.609   2.764  13.555
95944SOL    HW289666  10.479   2.841  13.571
95945SOL     OW89667   5.611   4.106   2.086
95945SOL    HW189668   5.566   4.057   2.155
95945SOL    HW289669   5.559   4.090   2.007
95946SOL     OW89670   4.739   2.434   3.061
95946SOL    HW189671   4.685   2.450   3.138
95946SOL    HW289672   4.828   2.431   3.093
95947SOL     OW89673  13.487  14.857  12.837
95947SOL    HW189674  13.500   0.023  12.754
95947SOL    HW289675  13.519  14.768  12.821
95948SOL     OW89676   7.884   2.984   3.443
95948SOL    HW189677   7.922   2.972   3.356
95948SOL    HW289678   7.867   3.078   3.449
95949SOL     OW89679   5.134   6.509   2.301
95949SOL    HW189680   5.046   6.482   2.274
95949SOL    HW289681   5.123   6.538   2.392
95950SOL     OW89682  12.200   0.441   9.385
95950SOL    HW189683  12.129   0.504   9.387
95950SOL    HW289684  12.210   0.418   9.292
95951SOL     OW89685   8.024  10.022  14.641
95951SOL    HW189686   8.027   9.947  14.701
95951SOL    HW289687   7.973   9.991  14.566
95952SOL     OW89688   1.872   5.691   2.243
95952SOL    HW189689   1.782   5.660   2.254
95952SOL    HW289690   1.864   5.786   2.236
95953SOL     OW89691  11.372   5.620   6.886
95953SOL    HW189692  11.403   5.669   6.963
95953SOL    HW289693  11.430   5.544   6.882
95954SOL     OW89694   8.277   0.324   2.319
95954SOL    HW189695   8.201   0.277   2.353
95954SOL    HW289696   8.275   0.408   2.364
95955SOL     OW89697   7.493   3.629   7.677
95955SOL    HW189698   7.443   3.575   7.737
95955SOL    HW289699   7.511   3.710   7.726
95956SOL     OW89700   3.373  10.799   9.339
95956SOL    HW189701   3.402  10.709   9.350
95956SOL    HW289702   3.286  10.802   9.378
95957SOL     OW89703   7.937   0.361  13.536
95957SOL    HW189704   7.864   0.322  13.583
95957SOL    HW289705   8.010   0.301  13.551
95958SOL     OW89706  11.375  10.885   8.215
95958SOL    HW189707  11.329  10.835   8.282
95958SOL    HW289708  11.423  10.952   8.263
95959SOL     OW89709   1.226   0.496   9.249
95959SOL    HW189710   1.261   0.408   9.240
95959SOL    HW289711   1.295   0.553   9.214
95960SOL     OW89712   8.475   6.699  13.869
95960SOL    HW189713   8.523   6.717  13.950
95960SOL    HW289714   8.419   6.625  13.890
95961SOL     OW89715   3.329  14.661   7.530
95961SOL    HW189716   3.362  14.742   7.494
95961SOL    HW289717   3.291  14.615   7.455
95962SOL     OW89718   4.856   4.782   5.730
95962SOL    HW189719   4.783   4.740   5.777
95962SOL    HW289720   4.910   4.708   5.701
95963SOL     OW89721   7.667   6.519  12.650
95963SOL    HW189722   7.602   6.477  12.705
95963SOL    HW289723   7.696   6.450  12.590
95964SOL     OW89724  10.078   3.188  13.445
95964SOL    HW189725   9.995   3.178  13.491
95964SOL    HW289726  10.137   3.226  13.510
95965SOL     OW89727   7.125   0.374  11.030
95965SOL    HW189728   7.192   0.410  11.087
95965SOL    HW289729   7.173   0.337  10.956
95966SOL     OW89730   5.384   4.596   2.981
95966SOL    HW189731   5.444   4.668   2.960
95966SOL    HW289732   5.441   4.524   3.008
95967SOL     OW89733   1.132   2.567   7.824
95967SOL    HW189734   1.153   2.575   7.917
95967SOL    HW289735   1.064   2.500   7.820
95968SOL     OW89736   0.877  12.486   9.166
95968SOL    HW189737   0.866  12.575   9.200
95968SOL    HW289738   0.924  12.440   9.235
95969SOL     OW89739   4.470  11.350   8.343
95969SOL    HW189740   4.408  11.277   8.340
95969SOL    HW289741   4.429  11.419   8.292
95970SOL     OW89742   9.864  13.077  11.989
95970SOL    HW189743   9.862  12.988  12.025
95970SOL    HW289744   9.956  13.103  11.995
95971SOL     OW89745  10.257  13.540   3.172
95971SOL    HW189746  10.282  13.620   3.218
95971SOL    HW289747  10.227  13.570   3.086
95972SOL     OW89748  10.802   2.259   7.867
95972SOL    HW189749  10.753   2.178   7.856
95972SOL    HW289750  10.754   2.307   7.935
95973SOL     OW89751   2.937   5.985  12.327
95973SOL    HW189752   3.004   5.982  12.259
95973SOL    HW289753   2.912   5.894  12.341
95974SOL     OW89754  10.878  11.191   3.351
95974SOL    HW189755  10.861  11.106   3.391
95974SOL    HW289756  10.971  11.207   3.366
95975SOL     OW89757   6.312   2.716   6.575
95975SOL    HW189758   6.275   2.636   6.538
95975SOL    HW289759   6.407   2.706   6.564
95976SOL     OW89760   4.737  12.702   8.170
95976SOL    HW189761   4.708  12.725   8.082
95976SOL    HW289762   4.807  12.765   8.190
95977SOL     OW89763  11.788   5.363   6.219
95977SOL    HW189764  11.877   5.380   6.188
95977SOL    HW289765  11.768   5.276   6.185
95978SOL     OW89766   3.677  10.704  13.885
95978SOL    HW189767   3.714  10.747  13.808
95978SOL    HW289768   3.615  10.768  13.921
95979SOL     OW89769  14.847  11.605  10.252
95979SOL    HW189770  14.770  11.606  10.309
95979SOL    HW289771  14.865  11.513  10.237
95980SOL     OW89772   5.004   2.728  14.390
95980SOL    HW189773   4.980   2.648  14.436
95980SOL    HW289774   4.975   2.714  14.300
95981SOL     OW89775   9.808   7.862  11.748
95981SOL    HW189776   9.853   7.837  11.829
95981SOL    HW289777   9.817   7.957  11.744
95982SOL     OW89778  11.242  13.026   5.744
95982SOL    HW189779  11.319  12.985   5.785
95982SOL    HW289780  11.273  13.111   5.713
95983SOL     OW89781   8.598  12.454  11.301
95983SOL    HW189782   8.606  12.546  11.277
95983SOL    HW289783   8.671  12.411  11.255
95984SOL     OW89784   9.340  14.571  13.920
95984SOL    HW189785   9.360  14.490  13.872
95984SOL    HW289786   9.244  14.571  13.927
95985SOL     OW89787   4.022   7.974  13.155
95985SOL    HW189788   4.032   7.913  13.081
95985SOL    HW289789   4.076   7.936  13.224
95986SOL     OW89790   8.738   4.556   9.670
95986SOL    HW189791   8.776   4.620   9.611
95986SOL    HW289792   8.652   4.593   9.692
95987SOL     OW89793   3.031   7.972  12.086
95987SOL    HW189794   2.947   8.019  12.083
95987SOL    HW289795   3.071   8.001  12.168
95988SOL     OW89796  12.767  10.613   2.180
95988SOL    HW189797  12.758  10.651   2.268
95988SOL    HW289798  12.857  10.581   2.177
95989SOL     OW89799   9.008  12.114   2.530
95989SOL    HW189800   8.913  12.108   2.530
95989SOL    HW289801   9.038  12.023   2.523
95990SOL     OW89802   8.950   0.955  13.249
95990SOL    HW189803   8.916   1.033  13.205
95990SOL    HW289804   9.025   0.986  13.300
95991SOL     OW89805  13.775  10.932   1.455
95991SOL    HW189806  13.773  10.841   1.426
95991SOL    HW289807  13.683  10.957   1.463
95992SOL     OW89808  14.304  12.860   7.743
95992SOL    HW189809  14.395  12.892   7.742
95992SOL    HW289810  14.269  12.887   7.658
95993SOL     OW89811   4.155   7.872   3.218
95993SOL    HW189812   4.125   7.891   3.307
95993SOL    HW289813   4.239   7.917   3.210
95994SOL     OW89814   3.158   0.330   7.637
95994SOL    HW189815   3.126   0.346   7.726
95994SOL    HW289816   3.248   0.300   7.649
95995SOL     OW89817   3.897   8.182  13.636
95995SOL    HW189818   3.938   8.100  13.662
95995SOL    HW289819   3.814   8.184  13.684
95996SOL     OW89820   8.978   5.887  11.787
95996SOL    HW189821   9.053   5.829  11.778
95996SOL    HW289822   8.914   5.835  11.836
95997SOL     OW89823   3.027   5.245   5.567
95997SOL    HW189824   3.015   5.336   5.593
95997SOL    HW289825   2.990   5.240   5.478
95998SOL     OW89826   1.967   8.916   3.940
95998SOL    HW189827   2.024   8.840   3.930
95998SOL    HW289828   2.002   8.981   3.878
95999SOL     OW89829  11.188   8.544   4.595
95999SOL    HW189830  11.199   8.629   4.638
95999SOL    HW289831  11.182   8.482   4.667
96000SOL     OW89832  11.962   6.747  13.506
96000SOL    HW189833  11.975   6.657  13.476
96000SOL    HW289834  12.005   6.801  13.439
96001SOL     OW89835   6.791   1.419   6.603
96001SOL    HW189836   6.876   1.404   6.644
96001SOL    HW289837   6.728   1.382   6.666
96002SOL     OW89838   0.979  13.515   0.293
96002SOL    HW189839   1.034  13.439   0.312
96002SOL    HW289840   0.908  13.509   0.357
96003SOL     OW89841   2.938   1.805   2.095
96003SOL    HW189842   2.915   1.772   2.008
96003SOL    HW289843   2.946   1.726   2.149
96004SOL     OW89844   0.668   2.439   7.460
96004SOL    HW189845   0.698   2.430   7.550
96004SOL    HW289846   0.656   2.533   7.447
96005SOL     OW89847  12.541   8.352   2.559
96005SOL    HW189848  12.492   8.308   2.490
96005SOL    HW289849  12.520   8.304   2.639
96006SOL     OW89850   7.698  11.121   9.137
96006SOL    HW189851   7.726  11.143   9.048
96006SOL    HW289852   7.739  11.037   9.156
96007SOL     OW89853   2.158   2.655   2.792
96007SOL    HW189854   2.160   2.742   2.754
96007SOL    HW289855   2.065   2.635   2.804
96008SOL     OW89856   1.261   7.236   7.027
96008SOL    HW189857   1.278   7.225   6.933
96008SOL    HW289858   1.183   7.292   7.030
96009SOL     OW89859  14.625   9.163   3.907
96009SOL    HW189860  14.558   9.168   3.974
96009SOL    HW289861  14.577   9.165   3.824
96010SOL     OW89862   2.827   1.611   3.588
96010SOL    HW189863   2.808   1.677   3.522
96010SOL    HW289864   2.742   1.583   3.620
96011SOL     OW89865  10.896   8.207  11.140
96011SOL    HW189866  10.842   8.201  11.219
96011SOL    HW289867  10.838   8.244  11.074
96012SOL     OW89868   8.960   6.013  13.401
96012SOL    HW189869   8.985   6.099  13.435
96012SOL    HW289870   8.873   5.998  13.438
96013SOL     OW89871   1.551  10.041  13.500
96013SOL    HW189872   1.541  10.001  13.414
96013SOL    HW289873   1.586   9.972  13.556
96014SOL     OW89874   9.701   7.115   6.864
96014SOL    HW189875   9.653   7.098   6.783
96014SOL    HW289876   9.772   7.050   6.864
96015SOL     OW89877  10.080   1.681   9.573
96015SOL    HW189878  10.086   1.772   9.602
96015SOL    HW289879  10.049   1.633   9.650
96016SOL     OW89880   8.496  11.659   3.199
96016SOL    HW189881   8.551  11.673   3.276
96016SOL    HW289882   8.558  11.648   3.127
96017SOL     OW89883   8.938   5.680   0.764
96017SOL    HW189884   8.952   5.618   0.692
96017SOL    HW289885   8.844   5.674   0.782
96018SOL     OW89886   3.630  13.985  13.870
96018SOL    HW189887   3.683  14.044  13.923
96018SOL    HW289888   3.629  13.903  13.919
96019SOL     OW89889   3.858   3.809   8.320
96019SOL    HW189890   3.771   3.787   8.287
96019SOL    HW289891   3.917   3.753   8.270
96020SOL     OW89892   7.071  10.966   4.070
96020SOL    HW189893   7.118  10.943   3.991
96020SOL    HW289894   7.113  11.045   4.102
96021SOL     OW89895   2.653  10.359   0.299
96021SOL    HW189896   2.616  10.386   0.383
96021SOL    HW289897   2.578  10.350   0.241
96022SOL     OW89898   3.522   0.532   0.977
96022SOL    HW189899   3.519   0.609   0.920
96022SOL    HW289900   3.431   0.516   1.001
96023SOL     OW89901   5.119  10.112   6.449
96023SOL    HW189902   5.155  10.067   6.372
96023SOL    HW289903   5.153  10.201   6.444
96024SOL     OW89904   1.687   8.179   4.320
96024SOL    HW189905   1.740   8.158   4.242
96024SOL    HW289906   1.611   8.122   4.313
96025SOL     OW89907  10.769   1.201   6.741
96025SOL    HW189908  10.845   1.146   6.720
96025SOL    HW289909  10.808   1.284   6.769
96026SOL     OW89910   2.713   0.960   8.596
96026SOL    HW189911   2.768   0.976   8.673
96026SOL    HW289912   2.775   0.946   8.525
96027SOL     OW89913  11.858   5.678   6.598
96027SOL    HW189914  11.932   5.688   6.538
96027SOL    HW289915  11.887   5.614   6.662
96028SOL     OW89916   4.535  11.514   3.669
96028SOL    HW189917   4.494  11.597   3.642
96028SOL    HW289918   4.550  11.525   3.763
96029SOL     OW89919   0.387   9.749  13.444
96029SOL    HW189920   0.352   9.693  13.513
96029SOL    HW289921   0.481   9.752  13.461
96030SOL     OW89922   9.501   3.283   1.101
96030SOL    HW189923   9.419   3.285   1.151
96030SOL    HW289924   9.537   3.371   1.111
96031SOL     OW89925   3.777  10.982   2.310
96031SOL    HW189926   3.803  11.002   2.220
96031SOL    HW289927   3.720  11.054   2.336
96032SOL     OW89928   1.235   8.549   7.875
96032SOL    HW189929   1.203   8.640   7.872
96032SOL    HW289930   1.245   8.530   7.968
96033SOL     OW89931  12.592   3.644   3.634
96033SOL    HW189932  12.672   3.696   3.624
96033SOL    HW289933  12.590   3.589   3.556
96034SOL     OW89934   3.673   9.181  14.033
96034SOL    HW189935   3.599   9.214  14.084
96034SOL    HW289936   3.721   9.260  14.007
96035SOL     OW89937   7.961  14.070   7.787
96035SOL    HW189938   7.904  14.095   7.860
96035SOL    HW289939   8.005  14.151   7.761
96036SOL     OW89940   4.446   0.533  14.092
96036SOL    HW189941   4.506   0.463  14.120
96036SOL    HW289942   4.389   0.547  14.167
96037SOL     OW89943   6.244   6.304   6.073
96037SOL    HW189944   6.295   6.313   6.153
96037SOL    HW289945   6.272   6.221   6.035
96038SOL     OW89946  11.303   7.673   2.369
96038SOL    HW189947  11.334   7.584   2.352
96038SOL    HW289948  11.220   7.678   2.322
96039SOL     OW89949   2.019  12.624   0.319
96039SOL    HW189950   2.021  12.667   0.233
96039SOL    HW289951   1.963  12.679   0.373
96040SOL     OW89952   2.654  10.071  10.605
96040SOL    HW189953   2.749  10.071  10.590
96040SOL    HW289954   2.618  10.118  10.529
96041SOL     OW89955   2.231  14.165   0.699
96041SOL    HW189956   2.325  14.158   0.714
96041SOL    HW289957   2.222  14.234   0.633
96042SOL     OW89958   8.347  10.278   6.574
96042SOL    HW189959   8.309  10.230   6.500
96042SOL    HW289960   8.422  10.323   6.537
96043SOL     OW89961   1.497   6.492   5.981
96043SOL    HW189962   1.432   6.553   6.016
96043SOL    HW289963   1.580   6.540   5.983
96044SOL     OW89964  14.848   6.297  14.639
96044SOL    HW189965   0.034   6.322  14.704
96044SOL    HW289966   0.017   6.244  14.575
96045SOL     OW89967   7.003   8.344   0.428
96045SOL    HW189968   7.023   8.436   0.445
96045SOL    HW289969   7.028   8.331   0.336
96046SOL     OW89970   5.700  11.791  13.777
96046SOL    HW189971   5.752  11.855  13.826
96046SOL    HW289972   5.619  11.782  13.827
96047SOL     OW89973   1.377   8.815  14.300
96047SOL    HW189974   1.418   8.900  14.283
96047SOL    HW289975   1.335   8.826  14.385
96048SOL     OW89976   7.638  10.411  14.435
96048SOL    HW189977   7.647  10.476  14.504
96048SOL    HW289978   7.692  10.445  14.363
96049SOL     OW89979  12.991  12.703  13.175
96049SOL    HW189980  13.020  12.612  13.173
96049SOL    HW289981  12.945  12.715  13.092
96050SOL     OW89982   0.201   0.965   0.970
96050SOL    HW189983   0.273   0.956   0.908
96050SOL    HW289984   0.243   0.968   1.056
96051SOL     OW89985   2.497   7.515   8.506
96051SOL    HW189986   2.433   7.581   8.478
96051SOL    HW289987   2.460   7.432   8.477
96052SOL     OW89988   3.397   1.734  10.368
96052SOL    HW189989   3.309   1.774  10.365
96052SOL    HW289990   3.455   1.807  10.389
96053SOL     OW89991   0.654  12.620  14.184
96053SOL    HW189992   0.691  12.533  14.201
96053SOL    HW289993   0.730  12.677  14.175
96054SOL     OW89994   5.183  14.773   2.410
96054SOL    HW189995   5.167  14.798   2.319
96054SOL    HW289996   5.251  14.705   2.405
96055SOL     OW89997   5.454   1.461   4.736
96055SOL    HW189998   5.522   1.515   4.693
96055SOL    HW289999   5.373   1.511   4.724
96056SOL     OW90000   3.702   7.428  14.821
96056SOL    HW190001   3.775   7.366  14.823
96056SOL    HW290002   3.674   7.435   0.033
96057SOL     OW90003   6.625   2.100   6.572
96057SOL    HW190004   6.563   2.127   6.504
96057SOL    HW290005   6.581   2.029   6.619
96058SOL     OW90006  10.210  11.394   0.520
96058SOL    HW190007  10.195  11.305   0.552
96058SOL    HW290008  10.172  11.451   0.587
96059SOL     OW90009  11.881   1.567  13.823
96059SOL    HW190010  11.794   1.529  13.818
96059SOL    HW290011  11.937   1.496  13.855
96060SOL     OW90012  14.025  11.586   7.567
96060SOL    HW190013  13.994  11.595   7.657
96060SOL    HW290014  13.950  11.614   7.513
96061SOL     OW90015   4.113   5.290  11.026
96061SOL    HW190016   4.031   5.338  11.031
96061SOL    HW290017   4.114   5.235  11.104
96062SOL     OW90018  13.064   0.185   7.699
96062SOL    HW190019  13.054   0.273   7.735
96062SOL    HW290020  12.974   0.155   7.685
96063SOL     OW90021   2.955   6.810   1.500
96063SOL    HW190022   2.969   6.787   1.592
96063SOL    HW290023   2.944   6.725   1.456
96064SOL     OW90024   0.529  14.485   9.653
96064SOL    HW190025   0.476  14.547   9.703
96064SOL    HW290026   0.482  14.473   9.571
96065SOL     OW90027  14.556   6.683   9.549
96065SOL    HW190028  14.546   6.687   9.645
96065SOL    HW290029  14.502   6.609   9.523
96066SOL     OW90030   1.611   7.978   7.734
96066SOL    HW190031   1.662   7.973   7.653
96066SOL    HW290032   1.628   7.894   7.777
96067SOL     OW90033   9.890  14.704  12.512
96067SOL    HW190034   9.865  14.626  12.462
96067SOL    HW290035   9.815  14.720  12.570
96068SOL     OW90036   3.587   4.366   2.963
96068SOL    HW190037   3.573   4.293   3.024
96068SOL    HW290038   3.666   4.408   2.994
96069SOL     OW90039   4.278   8.490   2.749
96069SOL    HW190040   4.302   8.489   2.842
96069SOL    HW290041   4.183   8.502   2.749
96070SOL     OW90042   1.718   1.183   7.494
96070SOL    HW190043   1.787   1.177   7.560
96070SOL    HW290044   1.748   1.127   7.422
96071SOL     OW90045  11.184  10.874   2.667
96071SOL    HW190046  11.267  10.905   2.702
96071SOL    HW290047  11.146  10.821   2.738
96072SOL     OW90048  10.473   8.788   8.223
96072SOL    HW190049  10.445   8.838   8.146
96072SOL    HW290050  10.473   8.697   8.193
96073SOL     OW90051   6.966   7.677   6.827
96073SOL    HW190052   7.043   7.620   6.825
96073SOL    HW290053   6.976   7.729   6.906
96074SOL     OW90054  14.730   0.502   4.106
96074SOL    HW190055  14.706   0.423   4.154
96074SOL    HW290056  14.649   0.528   4.062
96075SOL     OW90057   1.680  14.165   0.403
96075SOL    HW190058   1.664  14.175   0.309
96075SOL    HW290059   1.617  14.224   0.444
96076SOL     OW90060   6.840  10.142  11.786
96076SOL    HW190061   6.846  10.147  11.882
96076SOL    HW290062   6.749  10.163  11.766
96077SOL     OW90063  14.016   3.032   8.189
96077SOL    HW190064  14.042   3.122   8.167
96077SOL    HW290065  13.979   2.998   8.108
96078SOL     OW90066   7.708   9.603  14.395
96078SOL    HW190067   7.625   9.648  14.407
96078SOL    HW290068   7.690   9.511  14.417
96079SOL     OW90069   6.724   9.996  12.761
96079SOL    HW190070   6.664   9.971  12.831
96079SOL    HW290071   6.810   9.996  12.802
96080SOL     OW90072  10.409  10.590   3.787
96080SOL    HW190073  10.337  10.651   3.802
96080SOL    HW290074  10.368  10.503   3.795
96081SOL     OW90075   6.896   5.107   6.516
96081SOL    HW190076   6.814   5.096   6.469
96081SOL    HW290077   6.930   5.191   6.486
96082SOL     OW90078  14.625   0.580   9.935
96082SOL    HW190079  14.587   0.493   9.932
96082SOL    HW290080  14.656   0.589  10.026
96083SOL     OW90081   0.670  11.468   2.925
96083SOL    HW190082   0.743  11.409   2.941
96083SOL    HW290083   0.643  11.450   2.835
96084SOL     OW90084  10.048  12.581   0.878
96084SOL    HW190085  10.048  12.502   0.932
96084SOL    HW290086  10.086  12.554   0.795
96085SOL     OW90087   5.954   0.191   4.200
96085SOL    HW190088   5.996   0.112   4.233
96085SOL    HW290089   6.019   0.260   4.211
96086SOL     OW90090  14.217   1.393   9.547
96086SOL    HW190091  14.223   1.384   9.452
96086SOL    HW290092  14.286   1.337   9.581
96087SOL     OW90093  12.676   1.067   2.057
96087SOL    HW190094  12.651   1.159   2.040
96087SOL    HW290095  12.592   1.022   2.069
96088SOL     OW90096   7.065  11.302   5.325
96088SOL    HW190097   7.027  11.219   5.355
96088SOL    HW290098   6.992  11.364   5.327
96089SOL     OW90099   7.133   6.155  11.413
96089SOL    HW190100   7.066   6.094  11.442
96089SOL    HW290101   7.144   6.137  11.319
96090SOL     OW90102   5.960   9.386   2.641
96090SOL    HW190103   5.884   9.423   2.597
96090SOL    HW290104   5.971   9.300   2.600
96091SOL     OW90105   2.681   3.872  10.936
96091SOL    HW190106   2.647   3.789  10.970
96091SOL    HW290107   2.753   3.894  10.996
96092SOL     OW90108   3.470  11.514   6.800
96092SOL    HW190109   3.384  11.497   6.837
96092SOL    HW290110   3.499  11.595   6.841
96093SOL     OW90111  14.398  11.477   2.519
96093SOL    HW190112  14.434  11.413   2.581
96093SOL    HW290113  14.316  11.506   2.559
96094SOL     OW90114   4.156   6.585   5.644
96094SOL    HW190115   4.181   6.550   5.558
96094SOL    HW290116   4.077   6.536   5.668
96095SOL     OW90117   3.941   2.572   7.915
96095SOL    HW190118   3.925   2.485   7.952
96095SOL    HW290119   4.036   2.584   7.925
96096SOL     OW90120  12.204   1.350   0.839
96096SOL    HW190121  12.217   1.295   0.761
96096SOL    HW290122  12.110   1.342   0.857
96097SOL     OW90123  14.110   9.807   7.889
96097SOL    HW190124  14.087   9.808   7.982
96097SOL    HW290125  14.206   9.798   7.889
96098SOL     OW90126   1.623   6.583   1.844
96098SOL    HW190127   1.615   6.546   1.756
96098SOL    HW290128   1.634   6.677   1.829
96099SOL     OW90129   6.789   5.516   4.715
96099SOL    HW190130   6.743   5.453   4.659
96099SOL    HW290131   6.788   5.598   4.665
96100SOL     OW90132  10.482   4.937   7.955
96100SOL    HW190133  10.408   4.934   8.016
96100SOL    HW290134  10.441   4.929   7.868
96101SOL     OW90135   1.269  14.274   5.313
96101SOL    HW190136   1.358  14.302   5.335
96101SOL    HW290137   1.281  14.192   5.266
96102SOL     OW90138   5.715  14.238   6.711
96102SOL    HW190139   5.680  14.153   6.739
96102SOL    HW290140   5.800  14.217   6.672
96103SOL     OW90141   3.823   0.798   0.024
96103SOL    HW190142   3.888   0.730   0.039
96103SOL    HW290143   3.820   0.809  14.808
96104SOL     OW90144   7.946   3.400  13.108
96104SOL    HW190145   7.909   3.401  13.020
96104SOL    HW290146   8.041   3.400  13.095
96105SOL     OW90147   1.621  14.506   4.184
96105SOL    HW190148   1.549  14.568   4.196
96105SOL    HW290149   1.591  14.426   4.226
96106SOL     OW90150  14.568   6.936  11.269
96106SOL    HW190151  14.629   7.007  11.247
96106SOL    HW290152  14.592   6.865  11.210
96107SOL     OW90153  13.819   7.997  13.515
96107SOL    HW190154  13.748   8.007  13.578
96107SOL    HW290155  13.785   8.036  13.434
96108SOL     OW90156   8.582   7.733   4.846
96108SOL    HW190157   8.536   7.721   4.929
96108SOL    HW290158   8.565   7.651   4.798
96109SOL     OW90159  13.172   5.388  11.059
96109SOL    HW190160  13.094   5.370  11.111
96109SOL    HW290161  13.156   5.474  11.021
96110SOL     OW90162   5.729   9.457   2.444
96110SOL    HW190163   5.663   9.394   2.474
96110SOL    HW290164   5.715   9.463   2.350
96111SOL     OW90165   4.929  10.748   5.265
96111SOL    HW190166   5.019  10.726   5.290
96111SOL    HW290167   4.900  10.811   5.330
96112SOL     OW90168  11.005   0.223   9.566
96112SOL    HW190169  11.021   0.132   9.543
96112SOL    HW290170  11.084   0.251   9.612
96113SOL     OW90171   7.564  10.663   4.166
96113SOL    HW190172   7.557  10.667   4.261
96113SOL    HW290173   7.657  10.676   4.148
96114SOL     OW90174  10.667   6.595   0.513
96114SOL    HW190175  10.669   6.578   0.419
96114SOL    HW290176  10.605   6.668   0.523
96115SOL     OW90177  12.767   1.299   3.667
96115SOL    HW190178  12.699   1.299   3.601
96115SOL    HW290179  12.765   1.387   3.704
96116SOL     OW90180  13.663   9.462  14.688
96116SOL    HW190181  13.568   9.455  14.677
96116SOL    HW290182  13.674   9.502  14.775
96117SOL     OW90183  13.367   4.561  13.579
96117SOL    HW190184  13.364   4.628  13.648
96117SOL    HW290185  13.299   4.499  13.603
96118SOL     OW90186  13.723   9.335  10.161
96118SOL    HW190187  13.665   9.402  10.196
96118SOL    HW290188  13.804   9.381  10.139
96119SOL     OW90189  12.018   8.258  11.897
96119SOL    HW190190  12.010   8.278  11.803
96119SOL    HW290191  12.020   8.163  11.901
96120SOL     OW90192   9.446   6.685  12.734
96120SOL    HW190193   9.452   6.724  12.646
96120SOL    HW290194   9.496   6.745  12.790
96121SOL     OW90195  12.023   9.476  13.751
96121SOL    HW190196  12.056   9.526  13.825
96121SOL    HW290197  11.972   9.406  13.791
96122SOL     OW90198   4.985   1.336   1.229
96122SOL    HW190199   4.924   1.279   1.275
96122SOL    HW290200   5.059   1.346   1.289
96123SOL     OW90201   7.079  12.305   5.281
96123SOL    HW190202   7.040  12.385   5.247
96123SOL    HW290203   7.157  12.291   5.227
96124SOL     OW90204   3.914   0.519  10.022
96124SOL    HW190205   3.998   0.504   9.979
96124SOL    HW290206   3.871   0.585   9.967
96125SOL     OW90207   8.933   7.316  11.345
96125SOL    HW190208   9.020   7.304  11.383
96125SOL    HW290209   8.904   7.402  11.378
96126SOL     OW90210   3.183  10.060  13.456
96126SOL    HW190211   3.125  10.081  13.530
96126SOL    HW290212   3.191  10.142  13.408
96127SOL     OW90213  13.140   1.938   3.287
96127SOL    HW190214  13.210   1.988   3.328
96127SOL    HW290215  13.146   1.851   3.326
96128SOL     OW90216   3.942  14.561   0.525
96128SOL    HW190217   3.855  14.571   0.486
96128SOL    HW290218   3.932  14.592   0.615
96129SOL     OW90219  10.203   0.177   5.288
96129SOL    HW190220  10.188   0.261   5.331
96129SOL    HW290221  10.148   0.115   5.337
96130SOL     OW90222   1.090  13.624   1.101
96130SOL    HW190223   1.008  13.610   1.054
96130SOL    HW290224   1.072  13.700   1.157
96131SOL     OW90225   1.508   7.716   5.521
96131SOL    HW190226   1.548   7.755   5.599
96131SOL    HW290227   1.414   7.731   5.533
96132SOL     OW90228  12.766   5.435   8.456
96132SOL    HW190229  12.671   5.431   8.442
96132SOL    HW290230  12.789   5.351   8.495
96133SOL     OW90231  10.928   5.142  14.205
96133SOL    HW190232  10.967   5.068  14.159
96133SOL    HW290233  10.984   5.156  14.282
96134SOL     OW90234   9.117  11.791   1.980
96134SOL    HW190235   9.086  11.799   1.890
96134SOL    HW290236   9.064  11.719   2.017
96135SOL     OW90237   4.040   9.497  12.273
96135SOL    HW190238   3.963   9.459  12.232
96135SOL    HW290239   4.065   9.434  12.340
96136SOL     OW90240  12.036   3.538  10.361
96136SOL    HW190241  12.121   3.555  10.320
96136SOL    HW290242  12.013   3.621  10.403
96137SOL     OW90243  10.471   4.293   2.266
96137SOL    HW190244  10.503   4.297   2.176
96137SOL    HW290245  10.548   4.274   2.318
96138SOL     OW90246   4.096   6.357   1.557
96138SOL    HW190247   4.017   6.403   1.528
96138SOL    HW290248   4.129   6.314   1.478
96139SOL     OW90249   4.615   0.932   5.101
96139SOL    HW190250   4.527   0.946   5.137
96139SOL    HW290251   4.660   1.015   5.117
96140SOL     OW90252   6.856   3.244   5.321
96140SOL    HW190253   6.880   3.162   5.278
96140SOL    HW290254   6.773   3.269   5.281
96141SOL     OW90255   9.187  11.658  11.596
96141SOL    HW190256   9.275  11.673  11.630
96141SOL    HW290257   9.198  11.593  11.528
96142SOL     OW90258  11.075   0.566   5.094
96142SOL    HW190259  11.132   0.597   5.024
96142SOL    HW290260  10.999   0.625   5.090
96143SOL     OW90261   8.322  13.722  12.891
96143SOL    HW190262   8.328  13.627  12.894
96143SOL    HW290263   8.286  13.741  12.805
96144SOL     OW90264   3.601   1.313  14.284
96144SOL    HW190265   3.551   1.395  14.290
96144SOL    HW290266   3.679   1.328  14.337
96145SOL     OW90267  14.162   3.882   0.109
96145SOL    HW190268  14.195   3.806   0.060
96145SOL    HW290269  14.073   3.895   0.076
96146SOL     OW90270   4.670  11.427   3.417
96146SOL    HW190271   4.664  11.462   3.505
96146SOL    HW290272   4.582  11.435   3.381
96147SOL     OW90273   2.758   4.486   9.101
96147SOL    HW190274   2.827   4.551   9.115
96147SOL    HW290275   2.687   4.535   9.060
96148SOL     OW90276   2.403  14.141   1.070
96148SOL    HW190277   2.328  14.093   1.034
96148SOL    HW290278   2.478  14.086   1.050
96149SOL     OW90279  14.593   5.084   2.507
96149SOL    HW190280  14.617   5.027   2.434
96149SOL    HW290281  14.669   5.142   2.518
96150SOL     OW90282   7.475   1.882  13.452
96150SOL    HW190283   7.450   1.830  13.528
96150SOL    HW290284   7.426   1.844  13.379
96151SOL     OW90285  14.542  11.955   1.479
96151SOL    HW190286  14.622  11.973   1.528
96151SOL    HW290287  14.520  11.865   1.500
96152SOL     OW90288   1.959  11.161   1.236
96152SOL    HW190289   2.031  11.136   1.294
96152SOL    HW290290   1.902  11.085   1.235
96153SOL     OW90291   9.265   6.714   6.535
96153SOL    HW190292   9.331   6.666   6.586
96153SOL    HW290293   9.315   6.782   6.490
96154SOL     OW90294  10.848   7.055   7.355
96154SOL    HW190295  10.775   7.028   7.410
96154SOL    HW290296  10.922   7.000   7.382
96155SOL     OW90297   7.418   3.207   1.040
96155SOL    HW190298   7.489   3.143   1.035
96155SOL    HW290299   7.461   3.290   1.062
96156SOL     OW90300  14.351   3.280   9.062
96156SOL    HW190301  14.306   3.363   9.077
96156SOL    HW290302  14.315   3.247   8.980
96157SOL     OW90303  13.983  10.559  13.218
96157SOL    HW190304  14.058  10.593  13.266
96157SOL    HW290305  13.986  10.464  13.233
96158SOL     OW90306  10.501   7.206   6.435
96158SOL    HW190307  10.574   7.147   6.452
96158SOL    HW290308  10.463   7.223   6.521
96159SOL     OW90309  11.177  13.082   4.236
96159SOL    HW190310  11.109  13.149   4.243
96159SOL    HW290311  11.238  13.102   4.307
96160SOL     OW90312   1.134   3.485   6.665
96160SOL    HW190313   1.048   3.445   6.668
96160SOL    HW290314   1.194   3.417   6.695
96161SOL     OW90315   8.462   1.533  13.435
96161SOL    HW190316   8.379   1.574  13.411
96161SOL    HW290317   8.443   1.483  13.514
96162SOL     OW90318   4.076  14.104  13.768
96162SOL    HW190319   4.037  14.050  13.838
96162SOL    HW290320   4.043  14.192  13.785
96163SOL     OW90321   3.140   5.480   0.824
96163SOL    HW190322   3.208   5.545   0.807
96163SOL    HW290323   3.075   5.495   0.755
96164SOL     OW90324   0.058   3.287   5.180
96164SOL    HW190325   0.032   3.241   5.100
96164SOL    HW290326   0.148   3.314   5.165
96165SOL     OW90327  13.203  10.660   0.920
96165SOL    HW190328  13.145  10.586   0.940
96165SOL    HW290329  13.144  10.735   0.911
96166SOL     OW90330   2.059   1.628  12.891
96166SOL    HW190331   2.127   1.581  12.940
96166SOL    HW290332   2.101   1.710  12.865
96167SOL     OW90333  12.214   9.589   5.270
96167SOL    HW190334  12.122   9.588   5.247
96167SOL    HW290335  12.260   9.557   5.192
96168SOL     OW90336  12.730   9.125   6.033
96168SOL    HW190337  12.677   9.069   5.977
96168SOL    HW290338  12.667   9.178   6.081
96169SOL     OW90339   5.511   6.934   1.269
96169SOL    HW190340   5.524   7.001   1.336
96169SOL    HW290341   5.594   6.929   1.223
96170SOL     OW90342   5.419  11.524  14.821
96170SOL    HW190343   5.331  11.541  14.852
96170SOL    HW290344   5.459  11.471   0.011
96171SOL     OW90345   5.640   6.330  10.099
96171SOL    HW190346   5.665   6.311  10.009
96171SOL    HW290347   5.547   6.354  10.093
96172SOL     OW90348   8.287   3.752   8.015
96172SOL    HW190349   8.338   3.676   7.989
96172SOL    HW290350   8.262   3.794   7.932
96173SOL     OW90351   3.648   6.133   2.545
96173SOL    HW190352   3.729   6.118   2.496
96173SOL    HW290353   3.677   6.173   2.627
96174SOL     OW90354  12.617   5.274   4.618
96174SOL    HW190355  12.561   5.221   4.675
96174SOL    HW290356  12.706   5.251   4.645
96175SOL     OW90357   5.859  12.351  12.869
96175SOL    HW190358   5.952  12.332  12.882
96175SOL    HW290359   5.814  12.286  12.923
96176SOL     OW90360  13.654  13.422  13.428
96176SOL    HW190361  13.653  13.363  13.352
96176SOL    HW290362  13.677  13.507  13.393
96177SOL     OW90363   5.931   7.765  14.832
96177SOL    HW190364   5.929   7.669  14.832
96177SOL    HW290365   5.997   7.788  14.767
96178SOL     OW90366   4.893  13.221   9.043
96178SOL    HW190367   4.798  13.234   9.042
96178SOL    HW290368   4.927  13.293   8.991
96179SOL     OW90369   8.206   5.084   8.853
96179SOL    HW190370   8.220   5.178   8.868
96179SOL    HW290371   8.132   5.061   8.909
96180SOL     OW90372   5.105   0.947   5.417
96180SOL    HW190373   5.138   0.858   5.433
96180SOL    HW290374   5.022   0.934   5.371
96181SOL     OW90375  11.390   7.813   0.273
96181SOL    HW190376  11.357   7.743   0.216
96181SOL    HW290377  11.484   7.799   0.276
96182SOL     OW90378   2.968  14.398   3.482
96182SOL    HW190379   2.992  14.479   3.527
96182SOL    HW290380   2.878  14.382   3.510
96183SOL     OW90381   6.058  12.167   7.279
96183SOL    HW190382   6.131  12.197   7.334
96183SOL    HW290383   6.016  12.099   7.330
96184SOL     OW90384   3.986   9.547   3.476
96184SOL    HW190385   3.920   9.491   3.517
96184SOL    HW290386   4.037   9.488   3.420
96185SOL     OW90387  12.804   0.545  13.194
96185SOL    HW190388  12.760   0.580  13.117
96185SOL    HW290389  12.733   0.517  13.252
96186SOL     OW90390   0.301  13.759  12.327
96186SOL    HW190391   0.220  13.710  12.341
96186SOL    HW290392   0.371  13.699  12.355
96187SOL     OW90393   5.808   2.953  11.632
96187SOL    HW190394   5.886   2.961  11.686
96187SOL    HW290395   5.736   2.981  11.690
96188SOL     OW90396  14.862   7.648   7.409
96188SOL    HW190397   0.051   7.715   7.405
96188SOL    HW290398  14.781   7.697   7.428
96189SOL     OW90399  12.418   9.765  11.651
96189SOL    HW190400  12.341   9.731  11.697
96189SOL    HW290401  12.439   9.846  11.697
96190SOL     OW90402  13.845   3.595   5.808
96190SOL    HW190403  13.854   3.639   5.893
96190SOL    HW290404  13.929   3.612   5.764
96191SOL     OW90405   4.341   9.166   4.732
96191SOL    HW190406   4.417   9.110   4.740
96191SOL    HW290407   4.365   9.247   4.778
96192SOL     OW90408   6.435   3.174   1.919
96192SOL    HW190409   6.420   3.217   2.003
96192SOL    HW290410   6.392   3.231   1.855
96193SOL     OW90411  14.022   2.018  11.093
96193SOL    HW190412  14.022   1.934  11.137
96193SOL    HW290413  13.938   2.058  11.116
96194SOL     OW90414   1.883   9.137   7.954
96194SOL    HW190415   1.855   9.228   7.951
96194SOL    HW290416   1.811   9.091   7.997
96195SOL     OW90417   6.294   9.427   0.271
96195SOL    HW190418   6.314   9.334   0.278
96195SOL    HW290419   6.275   9.441   0.178
96196SOL     OW90420   7.177   1.566   5.500
96196SOL    HW190421   7.146   1.477   5.491
96196SOL    HW290422   7.163   1.605   5.413
96197SOL     OW90423   6.637  11.188   2.329
96197SOL    HW190424   6.612  11.149   2.245
96197SOL    HW290425   6.707  11.132   2.361
96198SOL     OW90426   7.359   9.344   2.879
96198SOL    HW190427   7.434   9.333   2.820
96198SOL    HW290428   7.315   9.259   2.878
96199SOL     OW90429  10.496   6.597   5.042
96199SOL    HW190430  10.532   6.682   5.015
96199SOL    HW290431  10.533   6.535   4.979
96200SOL     OW90432   5.560   7.530  12.090
96200SOL    HW190433   5.495   7.460  12.089
96200SOL    HW290434   5.644   7.485  12.097
96201SOL     OW90435   5.390  14.398   9.901
96201SOL    HW190436   5.375  14.454   9.825
96201SOL    HW290437   5.463  14.342   9.876
96202SOL     OW90438   1.483   9.039   7.118
96202SOL    HW190439   1.562   9.040   7.064
96202SOL    HW290440   1.515   9.017   7.206
96203SOL     OW90441   6.261  11.032   9.691
96203SOL    HW190442   6.313  10.960   9.726
96203SOL    HW290443   6.172  11.015   9.722
96204SOL     OW90444  11.330   7.506   0.499
96204SOL    HW190445  11.350   7.453   0.576
96204SOL    HW290446  11.415   7.536   0.468
96205SOL     OW90447   5.586   2.410  12.449
96205SOL    HW190448   5.643   2.477  12.487
96205SOL    HW290449   5.568   2.350  12.521
96206SOL     OW90450  12.796   9.601   0.657
96206SOL    HW190451  12.812   9.520   0.706
96206SOL    HW290452  12.706   9.593   0.626
96207SOL     OW90453  13.606   7.113  13.281
96207SOL    HW190454  13.672   7.160  13.331
96207SOL    HW290455  13.562   7.180  13.229
96208SOL     OW90456   9.117   4.979   7.611
96208SOL    HW190457   9.210   5.000   7.615
96208SOL    HW290458   9.101   4.927   7.690
96209SOL     OW90459   3.887   0.713   8.237
96209SOL    HW190460   3.838   0.692   8.317
96209SOL    HW290461   3.933   0.795   8.258
96210SOL     OW90462   8.599  13.718  11.487
96210SOL    HW190463   8.637  13.789  11.436
96210SOL    HW290464   8.518  13.696  11.439
96211SOL     OW90465  13.626   7.510   6.088
96211SOL    HW190466  13.628   7.458   6.008
96211SOL    HW290467  13.712   7.496   6.127
96212SOL     OW90468   7.555   2.660   0.734
96212SOL    HW190469   7.495   2.715   0.684
96212SOL    HW290470   7.593   2.719   0.799
96213SOL     OW90471   2.656   5.474  10.995
96213SOL    HW190472   2.568   5.500  11.021
96213SOL    HW290473   2.679   5.534  10.924
96214SOL     OW90474   1.641   1.339   1.276
96214SOL    HW190475   1.722   1.315   1.321
96214SOL    HW290476   1.573   1.335   1.344
96215SOL     OW90477  11.725   5.137   7.127
96215SOL    HW190478  11.727   5.189   7.207
96215SOL    HW290479  11.674   5.189   7.065
96216SOL     OW90480  11.262   2.442   1.062
96216SOL    HW190481  11.217   2.373   1.111
96216SOL    HW290482  11.252   2.416   0.970
96217SOL     OW90483   3.019   4.619   6.644
96217SOL    HW190484   2.967   4.576   6.711
96217SOL    HW290485   2.968   4.695   6.618
96218SOL     OW90486   2.715   8.971   9.780
96218SOL    HW190487   2.662   8.915   9.837
96218SOL    HW290488   2.773   9.018   9.839
96219SOL     OW90489   5.329   4.503   5.528
96219SOL    HW190490   5.295   4.507   5.439
96219SOL    HW290491   5.422   4.485   5.518
96220SOL     OW90492   5.510  11.438  11.122
96220SOL    HW190493   5.456  11.403  11.051
96220SOL    HW290494   5.492  11.532  11.123
96221SOL     OW90495   4.456   6.299   8.530
96221SOL    HW190496   4.373   6.339   8.506
96221SOL    HW290497   4.502   6.367   8.580
96222SOL     OW90498   4.019  11.183   9.313
96222SOL    HW190499   4.031  11.273   9.344
96222SOL    HW290500   4.093  11.167   9.255
96223SOL     OW90501   9.187  10.480   7.755
96223SOL    HW190502   9.146  10.407   7.708
96223SOL    HW290503   9.188  10.552   7.692
96224SOL     OW90504  12.788  13.723   2.252
96224SOL    HW190505  12.780  13.629   2.235
96224SOL    HW290506  12.881  13.741   2.242
96225SOL     OW90507   2.731  13.816   0.913
96225SOL    HW190508   2.819  13.792   0.884
96225SOL    HW290509   2.702  13.741   0.964
96226SOL     OW90510  12.696   2.031   7.970
96226SOL    HW190511  12.754   2.105   7.952
96226SOL    HW290512  12.754   1.956   7.977
96227SOL     OW90513   0.175   5.994  10.362
96227SOL    HW190514   0.129   5.948  10.292
96227SOL    HW290515   0.234   5.928  10.399
96228SOL     OW90516   3.299  11.769  13.196
96228SOL    HW190517   3.338  11.795  13.113
96228SOL    HW290518   3.327  11.836  13.258
96229SOL     OW90519   1.113   9.034   6.665
96229SOL    HW190520   1.098   8.941   6.644
96229SOL    HW290521   1.134   9.034   6.759
96230SOL     OW90522   0.502  13.496   7.675
96230SOL    HW190523   0.436  13.471   7.610
96230SOL    HW290524   0.560  13.421   7.681
96231SOL     OW90525  11.382   7.597   7.145
96231SOL    HW190526  11.290   7.575   7.128
96231SOL    HW290527  11.391   7.587   7.240
96232SOL     OW90528   8.993  13.336   8.974
96232SOL    HW190529   9.026  13.295   9.055
96232SOL    HW290530   8.963  13.262   8.921
96233SOL     OW90531   4.195   0.796  14.716
96233SOL    HW190532   4.218   0.878  14.672
96233SOL    HW290533   4.133   0.754  14.656
96234SOL     OW90534   0.298  11.564  14.636
96234SOL    HW190535   0.386  11.593  14.659
96234SOL    HW290536   0.297  11.471  14.658
96235SOL     OW90537   5.331   7.839   2.926
96235SOL    HW190538   5.366   7.882   2.848
96235SOL    HW290539   5.365   7.749   2.921
96236SOL     OW90540  12.472   6.838  14.197
96236SOL    HW190541  12.564   6.856  14.179
96236SOL    HW290542  12.432   6.924  14.206
96237SOL     OW90543  13.310   9.841   9.834
96237SOL    HW190544  13.326   9.867   9.743
96237SOL    HW290545  13.244   9.772   9.828
96238SOL     OW90546   8.644  10.541  13.302
96238SOL    HW190547   8.718  10.485  13.323
96238SOL    HW290548   8.606  10.501  13.223
96239SOL     OW90549   8.311   7.741  11.732
96239SOL    HW190550   8.343   7.722  11.644
96239SOL    HW290551   8.350   7.672  11.786
96240SOL     OW90552  14.532   4.651   5.989
96240SOL    HW190553  14.548   4.740   5.957
96240SOL    HW290554  14.445   4.655   6.028
96241SOL     OW90555  10.894  10.916  11.813
96241SOL    HW190556  10.964  10.926  11.749
96241SOL    HW290557  10.820  10.963  11.774
96242SOL     OW90558  12.987   6.279   8.806
96242SOL    HW190559  12.985   6.316   8.894
96242SOL    HW290560  13.067   6.227   8.803
96243SOL     OW90561   0.194   6.245  10.329
96243SOL    HW190562   0.185   6.150  10.338
96243SOL    HW290563   0.119   6.271  10.277
96244SOL     OW90564   0.917   0.756   2.764
96244SOL    HW190565   0.898   0.663   2.776
96244SOL    HW290566   0.980   0.776   2.833
96245SOL     OW90567   4.627   6.037  14.465
96245SOL    HW190568   4.559   6.055  14.530
96245SOL    HW290569   4.634   6.118  14.414
96246SOL     OW90570  11.930   7.255  14.127
96246SOL    HW190571  11.931   7.162  14.108
96246SOL    HW290572  11.996   7.267  14.196
96247SOL     OW90573   1.610   6.652   5.457
96247SOL    HW190574   1.563   6.734   5.474
96247SOL    HW290575   1.543   6.584   5.468
96248SOL     OW90576   4.304   9.275  13.433
96248SOL    HW190577   4.361   9.211  13.476
96248SOL    HW290578   4.215   9.241  13.447
96249SOL     OW90579   2.556   8.385   3.647
96249SOL    HW190580   2.578   8.467   3.691
96249SOL    HW290581   2.623   8.375   3.580
96250SOL     OW90582   1.109   3.002   5.196
96250SOL    HW190583   1.095   3.000   5.101
96250SOL    HW290584   1.188   2.949   5.210
96251SOL     OW90585   7.180   8.753  11.662
96251SOL    HW190586   7.257   8.714  11.703
96251SOL    HW290587   7.117   8.763  11.733
96252SOL     OW90588  13.547   7.275  12.321
96252SOL    HW190589  13.586   7.241  12.402
96252SOL    HW290590  13.479   7.335  12.352
96253SOL     OW90591   4.793  12.445   3.732
96253SOL    HW190592   4.714  12.499   3.726
96253SOL    HW290593   4.860  12.495   3.685
96254SOL     OW90594   7.222   8.949  14.429
96254SOL    HW190595   7.273   9.028  14.411
96254SOL    HW290596   7.275   8.899  14.491
96255SOL     OW90597  14.349   7.978   9.177
96255SOL    HW190598  14.260   8.012   9.169
96255SOL    HW290599  14.381   7.973   9.087
96256SOL     OW90600   4.425   2.245   3.529
96256SOL    HW190601   4.474   2.325   3.549
96256SOL    HW290602   4.335   2.266   3.554
96257SOL     OW90603   3.864   4.976   4.141
96257SOL    HW190604   3.828   5.025   4.215
96257SOL    HW290605   3.958   4.972   4.158
96258SOL     OW90606   5.197   0.697  11.006
96258SOL    HW190607   5.120   0.660  10.962
96258SOL    HW290608   5.162   0.742  11.083
96259SOL     OW90609  11.296  14.151   0.985
96259SOL    HW190610  11.379  14.122   1.024
96259SOL    HW290611  11.316  14.164   0.893
96260SOL     OW90612   9.733   5.956  12.300
96260SOL    HW190613   9.747   5.915  12.215
96260SOL    HW290614   9.750   6.049  12.285
96261SOL     OW90615  13.959   5.175  12.392
96261SOL    HW190616  13.965   5.106  12.458
96261SOL    HW290617  14.007   5.249  12.430
96262SOL     OW90618  12.447   0.092  10.855
96262SOL    HW190619  12.462   0.146  10.777
96262SOL    HW290620  12.424   0.155  10.923
96263SOL     OW90621  12.770  10.835  10.776
96263SOL    HW190622  12.682  10.861  10.748
96263SOL    HW290623  12.766  10.837  10.872
96264SOL     OW90624   3.815   6.629   3.634
96264SOL    HW190625   3.762   6.663   3.562
96264SOL    HW290626   3.905   6.648   3.609
96265SOL     OW90627   2.177   0.097  12.606
96265SOL    HW190628   2.160   0.065  12.517
96265SOL    HW290629   2.258   0.147  12.598
96266SOL     OW90630   0.440   1.764   3.254
96266SOL    HW190631   0.506   1.721   3.199
96266SOL    HW290632   0.357   1.723   3.228
96267SOL     OW90633   4.769  13.133  14.834
96267SOL    HW190634   4.775  13.088   0.039
96267SOL    HW290635   4.820  13.213  14.845
96268SOL     OW90636   5.497   9.220   5.873
96268SOL    HW190637   5.577   9.209   5.925
96268SOL    HW290638   5.450   9.291   5.916
96269SOL     OW90639   8.565   8.709  12.443
96269SOL    HW190640   8.615   8.768  12.386
96269SOL    HW290641   8.518   8.652  12.383
96270SOL     OW90642   6.692  14.278   8.775
96270SOL    HW190643   6.634  14.280   8.851
96270SOL    HW290644   6.668  14.356   8.725
96271SOL     OW90645   4.816  14.793   9.564
96271SOL    HW190646   4.900  14.789   9.518
96271SOL    HW290647   4.762  14.852   9.510
96272SOL     OW90648   9.087   2.332   6.914
96272SOL    HW190649   9.094   2.305   6.822
96272SOL    HW290650   9.019   2.399   6.914
96273SOL     OW90651   3.966   7.350   4.641
96273SOL    HW190652   3.960   7.444   4.622
96273SOL    HW290653   3.875   7.321   4.650
96274SOL     OW90654   9.823  12.366  14.257
96274SOL    HW190655   9.844  12.417  14.335
96274SOL    HW290656   9.890  12.389  14.193
96275SOL     OW90657   0.171   2.137  13.808
96275SOL    HW190658   0.188   2.151  13.715
96275SOL    HW290659   0.246   2.177  13.852
96276SOL     OW90660   6.793   7.953   1.973
96276SOL    HW190661   6.746   7.919   1.897
96276SOL    HW290662   6.866   7.892   1.985
96277SOL     OW90663  13.281  10.213   5.104
96277SOL    HW190664  13.238  10.278   5.047
96277SOL    HW290665  13.210  10.159   5.137
96278SOL     OW90666   2.573  13.188   4.826
96278SOL    HW190667   2.573  13.185   4.730
96278SOL    HW290668   2.613  13.272   4.848
96279SOL     OW90669   6.959   6.695   1.673
96279SOL    HW190670   6.947   6.603   1.650
96279SOL    HW290671   6.938   6.743   1.593
96280SOL     OW90672  12.538   0.571   8.978
96280SOL    HW190673  12.475   0.625   8.930
96280SOL    HW290674  12.492   0.549   9.060
96281SOL     OW90675   4.663  14.712   4.936
96281SOL    HW190676   4.747  14.752   4.958
96281SOL    HW290677   4.597  14.771   4.973
96282SOL     OW90678   7.962  10.450  12.654
96282SOL    HW190679   8.027  10.498  12.602
96282SOL    HW290680   8.000  10.363  12.664
96283SOL     OW90681   5.250  10.599   5.736
96283SOL    HW190682   5.210  10.531   5.681
96283SOL    HW290683   5.291  10.659   5.674
96284SOL     OW90684   8.242  14.037  13.991
96284SOL    HW190685   8.200  14.113  13.952
96284SOL    HW290686   8.233  13.968  13.925
96285SOL     OW90687   8.588   8.957   1.549
96285SOL    HW190688   8.683   8.970   1.559
96285SOL    HW290689   8.551   8.985   1.632
96286SOL     OW90690   0.868  13.309   4.422
96286SOL    HW190691   0.856  13.217   4.399
96286SOL    HW290692   0.880  13.310   4.517
96287SOL     OW90693  10.787  10.764   4.058
96287SOL    HW190694  10.838  10.700   4.008
96287SOL    HW290695  10.696  10.747   4.033
96288SOL     OW90696   0.310   0.666   4.330
96288SOL    HW190697   0.363   0.648   4.407
96288SOL    HW290698   0.222   0.639   4.354
96289SOL     OW90699   1.755   2.430  14.327
96289SOL    HW190700   1.770   2.525  14.325
96289SOL    HW290701   1.811   2.399  14.398
96290SOL     OW90702   7.929   3.973  13.110
96290SOL    HW190703   7.882   4.024  13.175
96290SOL    HW290704   7.863   3.913  13.074
96291SOL     OW90705   2.100  12.606   3.104
96291SOL    HW190706   2.173  12.667   3.093
96291SOL    HW290707   2.085  12.572   3.016
96292SOL     OW90708   7.645   1.907   4.915
96292SOL    HW190709   7.651   1.815   4.888
96292SOL    HW290710   7.623   1.903   5.008
96293SOL     OW90711   5.090   5.299   3.129
96293SOL    HW190712   5.085   5.380   3.078
96293SOL    HW290713   5.168   5.255   3.097
96294SOL     OW90714  14.121   1.851  12.081
96294SOL    HW190715  14.176   1.825  12.007
96294SOL    HW290716  14.146   1.792  12.152
96295SOL     OW90717  12.639  12.115   0.317
96295SOL    HW190718  12.668  12.162   0.239
96295SOL    HW290719  12.638  12.023   0.292
96296SOL     OW90720   3.700   1.365  11.288
96296SOL    HW190721   3.718   1.306  11.214
96296SOL    HW290722   3.659   1.310  11.354
96297SOL     OW90723  10.478   4.406   0.693
96297SOL    HW190724  10.436   4.324   0.720
96297SOL    HW290725  10.570   4.383   0.679
96298SOL     OW90726   1.062   8.283   1.773
96298SOL    HW190727   1.028   8.310   1.859
96298SOL    HW290728   1.036   8.191   1.765
96299SOL     OW90729   4.397   7.067   8.879
96299SOL    HW190730   4.439   6.998   8.829
96299SOL    HW290731   4.315   7.027   8.909
96300SOL     OW90732  10.132   4.915   7.075
96300SOL    HW190733  10.130   5.008   7.052
96300SOL    HW290734  10.050   4.880   7.041
96301SOL     OW90735   7.517  14.689  13.897
96301SOL    HW190736   7.425  14.706  13.877
96301SOL    HW290737   7.559  14.775  13.896
96302SOL     OW90738  11.262  12.345   1.360
96302SOL    HW190739  11.167  12.356   1.368
96302SOL    HW290740  11.283  12.274   1.420
96303SOL     OW90741  11.221  12.320   2.245
96303SOL    HW190742  11.247  12.267   2.170
96303SOL    HW290743  11.126  12.308   2.252
96304SOL     OW90744  13.352  11.891   0.951
96304SOL    HW190745  13.335  11.893   0.857
96304SOL    HW290746  13.265  11.886   0.991
96305SOL     OW90747  12.675   8.723   5.800
96305SOL    HW190748  12.714   8.757   5.881
96305SOL    HW290749  12.723   8.767   5.730
96306SOL     OW90750   2.717  12.752  13.959
96306SOL    HW190751   2.683  12.824  14.012
96306SOL    HW290752   2.698  12.776  13.869
96307SOL     OW90753   0.852  11.473  13.212
96307SOL    HW190754   0.867  11.379  13.215
96307SOL    HW290755   0.903  11.503  13.136
96308SOL     OW90756   0.420   2.981  11.254
96308SOL    HW190757   0.412   2.913  11.186
96308SOL    HW290758   0.365   3.052  11.223
96309SOL     OW90759  12.705   9.408   9.288
96309SOL    HW190760  12.758   9.465   9.344
96309SOL    HW290761  12.681   9.335   9.344
96310SOL     OW90762   5.040  12.886   9.757
96310SOL    HW190763   4.953  12.847   9.746
96310SOL    HW290764   5.078  12.840   9.831
96311SOL     OW90765   6.229   1.314   9.634
96311SOL    HW190766   6.238   1.403   9.668
96311SOL    HW290767   6.223   1.260   9.712
96312SOL     OW90768   2.074   0.315   0.704
96312SOL    HW190769   2.034   0.334   0.620
96312SOL    HW290770   2.045   0.226   0.725
96313SOL     OW90771  14.387  12.792  12.903
96313SOL    HW190772  14.316  12.797  12.968
96313SOL    HW290773  14.346  12.820  12.821
96314SOL     OW90774   5.220  10.845   4.745
96314SOL    HW190775   5.149  10.831   4.682
96314SOL    HW290776   5.293  10.794   4.710
96315SOL     OW90777   8.241   1.376   9.896
96315SOL    HW190778   8.317   1.433   9.899
96315SOL    HW290779   8.278   1.287   9.893
96316SOL     OW90780  13.263   4.353   5.672
96316SOL    HW190781  13.211   4.390   5.601
96316SOL    HW290782  13.199   4.312   5.730
96317SOL     OW90783   9.197   1.224  12.116
96317SOL    HW190784   9.205   1.257  12.205
96317SOL    HW290785   9.104   1.234  12.094
96318SOL     OW90786  10.983   4.768   4.745
96318SOL    HW190787  11.074   4.757   4.773
96318SOL    HW290788  10.931   4.746   4.823
96319SOL     OW90789  11.826   2.489  14.767
96319SOL    HW190790  11.901   2.536  14.731
96319SOL    HW290791  11.865   2.423  14.825
96320SOL     OW90792   9.917  12.181   0.296
96320SOL    HW190793  10.007  12.214   0.301
96320SOL    HW290794   9.927  12.086   0.290
96321SOL     OW90795   8.015  13.186   7.962
96321SOL    HW190796   7.976  13.253   7.906
96321SOL    HW290797   7.974  13.104   7.934
96322SOL     OW90798  13.611  11.104   3.336
96322SOL    HW190799  13.670  11.033   3.312
96322SOL    HW290800  13.579  11.137   3.253
96323SOL     OW90801   2.390  10.128   0.465
96323SOL    HW190802   2.373  10.220   0.444
96323SOL    HW290803   2.483  10.127   0.489
96324SOL     OW90804   1.001  13.137  11.590
96324SOL    HW190805   0.974  13.229  11.590
96324SOL    HW290806   1.061  13.129  11.664
96325SOL     OW90807   0.705  14.538   8.531
96325SOL    HW190808   0.729  14.548   8.623
96325SOL    HW290809   0.610  14.522   8.533
96326SOL     OW90810   4.749   7.997   6.406
96326SOL    HW190811   4.782   7.913   6.374
96326SOL    HW290812   4.813   8.061   6.375
96327SOL     OW90813  12.490   5.961   1.312
96327SOL    HW190814  12.549   6.022   1.268
96327SOL    HW290815  12.532   5.945   1.396
96328SOL     OW90816   4.392  11.650  14.604
96328SOL    HW190817   4.347  11.672  14.523
96328SOL    HW290818   4.348  11.571  14.636
96329SOL     OW90819  13.219   6.863   0.613
96329SOL    HW190820  13.127   6.854   0.590
96329SOL    HW290821  13.224   6.839   0.705
96330SOL     OW90822  13.204  10.842   0.272
96330SOL    HW190823  13.250  10.899   0.211
96330SOL    HW290824  13.166  10.774   0.218
96331SOL     OW90825   9.256   5.007  13.742
96331SOL    HW190826   9.243   4.937  13.806
96331SOL    HW290827   9.323   5.063  13.782
96332SOL     OW90828   1.911   1.336   6.013
96332SOL    HW190829   2.004   1.312   6.016
96332SOL    HW290830   1.889   1.359   6.103
96333SOL     OW90831   8.914  14.545   4.474
96333SOL    HW190832   8.999  14.560   4.516
96333SOL    HW290833   8.923  14.584   4.387
96334SOL     OW90834  11.945   2.041   9.720
96334SOL    HW190835  11.967   1.949   9.731
96334SOL    HW290836  11.923   2.049   9.627
96335SOL     OW90837   4.487   4.824   8.117
96335SOL    HW190838   4.434   4.843   8.040
96335SOL    HW290839   4.447   4.746   8.155
96336SOL     OW90840   4.848  14.068   4.879
96336SOL    HW190841   4.856  14.077   4.784
96336SOL    HW290842   4.791  14.140   4.905
96337SOL     OW90843   4.125  10.867   6.484
96337SOL    HW190844   4.217  10.849   6.466
96337SOL    HW290845   4.086  10.880   6.398
96338SOL     OW90846   5.402   7.644   7.325
96338SOL    HW190847   5.441   7.557   7.335
96338SOL    HW290848   5.477   7.704   7.330
96339SOL     OW90849  10.880   5.029  10.844
96339SOL    HW190850  10.842   5.002  10.760
96339SOL    HW290851  10.819   5.096  10.877
96340SOL     OW90852   2.580  10.114   5.836
96340SOL    HW190853   2.495  10.158   5.832
96340SOL    HW290854   2.609  10.109   5.745
96341SOL     OW90855   6.112   9.264   5.942
96341SOL    HW190856   6.027   9.256   5.899
96341SOL    HW290857   6.136   9.356   5.931
96342SOL     OW90858   8.621  10.055   5.242
96342SOL    HW190859   8.582  10.075   5.156
96342SOL    HW290860   8.545  10.046   5.300
96343SOL     OW90861   8.965   8.262  13.769
96343SOL    HW190862   9.021   8.216  13.832
96343SOL    HW290863   8.880   8.267  13.813
96344SOL     OW90864  10.246   4.917   2.604
96344SOL    HW190865  10.305   4.879   2.669
96344SOL    HW290866  10.304   4.956   2.539
96345SOL     OW90867  12.975   7.252  10.467
96345SOL    HW190868  12.907   7.319  10.457
96345SOL    HW290869  12.975   7.205  10.384
96346SOL     OW90870   5.598   4.534   8.994
96346SOL    HW190871   5.535   4.504   9.059
96346SOL    HW290872   5.621   4.622   9.022
96347SOL     OW90873  13.069   9.812  13.536
96347SOL    HW190874  13.061   9.733  13.482
96347SOL    HW290875  13.130   9.787  13.605
96348SOL     OW90876  12.522  14.189   9.619
96348SOL    HW190877  12.521  14.183   9.524
96348SOL    HW290878  12.615  14.189   9.642
96349SOL     OW90879  14.157  14.416   6.146
96349SOL    HW190880  14.064  14.430   6.128
96349SOL    HW290881  14.162  14.327   6.179
96350SOL     OW90882   7.424  13.587  12.961
96350SOL    HW190883   7.392  13.522  13.024
96350SOL    HW290884   7.402  13.671  13.001
96351SOL     OW90885   1.583   7.931   9.807
96351SOL    HW190886   1.635   7.892   9.737
96351SOL    HW290887   1.496   7.941   9.769
96352SOL     OW90888  14.169  14.470  13.716
96352SOL    HW190889  14.174  14.520  13.798
96352SOL    HW290890  14.190  14.535  13.648
96353SOL     OW90891   9.104   4.926   1.450
96353SOL    HW190892   9.163   4.905   1.522
96353SOL    HW290893   9.062   4.842   1.428
96354SOL     OW90894   0.427   0.676  10.691
96354SOL    HW190895   0.354   0.616  10.706
96354SOL    HW290896   0.424   0.736  10.765
96355SOL     OW90897  10.334   7.067   8.918
96355SOL    HW190898  10.376   7.140   8.873
96355SOL    HW290899  10.406   7.018   8.957
96356SOL     OW90900  12.598  12.703  13.413
96356SOL    HW190901  12.515  12.677  13.453
96356SOL    HW290902  12.607  12.795  13.436
96357SOL     OW90903  10.310   8.538   3.651
96357SOL    HW190904  10.301   8.443   3.645
96357SOL    HW290905  10.220   8.570   3.663
96358SOL     OW90906   5.792   5.197   9.998
96358SOL    HW190907   5.795   5.293   9.996
96358SOL    HW290908   5.840   5.170   9.920
96359SOL     OW90909  12.771   1.901   4.754
96359SOL    HW190910  12.756   1.807   4.765
96359SOL    HW290911  12.806   1.930   4.838
96360SOL     OW90912   9.230  11.384   8.702
96360SOL    HW190913   9.315  11.379   8.659
96360SOL    HW290914   9.173  11.327   8.649
96361SOL     OW90915   9.760  11.338   2.348
96361SOL    HW190916   9.778  11.276   2.278
96361SOL    HW290917   9.665  11.334   2.360
96362SOL     OW90918   2.713   2.280  11.408
96362SOL    HW190919   2.665   2.314  11.483
96362SOL    HW290920   2.773   2.216  11.445
96363SOL     OW90921  10.146  12.418   5.238
96363SOL    HW190922  10.098  12.345   5.201
96363SOL    HW290923  10.223  12.378   5.280
96364SOL     OW90924   8.106   0.815   5.977
96364SOL    HW190925   8.162   0.866   6.034
96364SOL    HW290926   8.019   0.819   6.018
96365SOL     OW90927   9.545   9.769   5.999
96365SOL    HW190928   9.611   9.783   5.931
96365SOL    HW290929   9.474   9.722   5.954
96366SOL     OW90930   5.967   7.438   6.178
96366SOL    HW190931   5.885   7.472   6.212
96366SOL    HW290932   5.942   7.360   6.128
96367SOL     OW90933   8.523   6.509  10.463
96367SOL    HW190934   8.602   6.500  10.410
96367SOL    HW290935   8.519   6.602  10.485
96368SOL     OW90936  11.104   9.662   7.694
96368SOL    HW190937  11.171   9.679   7.628
96368SOL    HW290938  11.034   9.725   7.675
96369SOL     OW90939   8.540   1.568   3.198
96369SOL    HW190940   8.574   1.564   3.288
96369SOL    HW290941   8.461   1.513   3.200
96370SOL     OW90942   4.425   9.306   0.993
96370SOL    HW190943   4.454   9.307   1.085
96370SOL    HW290944   4.489   9.252   0.948
96371SOL     OW90945   4.863   1.482   7.506
96371SOL    HW190946   4.941   1.445   7.548
96371SOL    HW290947   4.811   1.516   7.579
96372SOL     OW90948   9.156   5.778   4.277
96372SOL    HW190949   9.099   5.725   4.221
96372SOL    HW290950   9.235   5.725   4.287
96373SOL     OW90951  12.526  13.706  14.127
96373SOL    HW190952  12.597  13.696  14.064
96373SOL    HW290953  12.561  13.670  14.209
96374SOL     OW90954   0.176   2.260   3.263
96374SOL    HW190955   0.231   2.191   3.226
96374SOL    HW290956   0.154   2.316   3.188
96375SOL     OW90957   3.129   2.051   1.601
96375SOL    HW190958   3.151   2.058   1.508
96375SOL    HW290959   3.074   2.127   1.619
96376SOL     OW90960  14.289  14.370   8.101
96376SOL    HW190961  14.312  14.460   8.079
96376SOL    HW290962  14.304  14.320   8.021
96377SOL     OW90963  10.935   4.374   7.452
96377SOL    HW190964  11.019   4.389   7.496
96377SOL    HW290965  10.921   4.280   7.459
96378SOL     OW90966   4.008   6.035   7.149
96378SOL    HW190967   4.043   6.124   7.151
96378SOL    HW290968   3.917   6.044   7.178
96379SOL     OW90969   0.205  13.703   7.797
96379SOL    HW190970   0.223  13.701   7.703
96379SOL    HW290971   0.282  13.745   7.836
96380SOL     OW90972   0.122  13.236   7.031
96380SOL    HW190973   0.134  13.283   7.114
96380SOL    HW290974   0.102  13.305   6.968
96381SOL     OW90975   6.715   1.056   9.369
96381SOL    HW190976   6.624   1.040   9.344
96381SOL    HW290977   6.737   1.139   9.327
96382SOL     OW90978   9.901   1.169   8.974
96382SOL    HW190979   9.923   1.169   9.067
96382SOL    HW290980   9.982   1.143   8.931
96383SOL     OW90981   5.430  12.597   6.292
96383SOL    HW190982   5.411  12.541   6.367
96383SOL    HW290983   5.473  12.539   6.229
96384SOL     OW90984  14.750   8.195   5.324
96384SOL    HW190985  14.705   8.189   5.239
96384SOL    HW290986  14.685   8.162   5.387
96385SOL     OW90987   2.058   4.105   8.234
96385SOL    HW190988   2.143   4.144   8.256
96385SOL    HW290989   2.072   4.011   8.241
96386SOL     OW90990  11.023  13.067  13.034
96386SOL    HW190991  10.975  13.036  13.110
96386SOL    HW290992  11.041  13.159  13.052
96387SOL     OW90993   0.055  11.493   9.217
96387SOL    HW190994   0.036  11.583   9.190
96387SOL    HW290995   0.082  11.448   9.137
96388SOL     OW90996  12.119   6.885   3.846
96388SOL    HW190997  12.079   6.827   3.911
96388SOL    HW290998  12.156   6.826   3.780
96389SOL     OW90999   9.666   2.585   9.681
96389SOL    HW191000   9.757   2.577   9.652
96389SOL    HW291001   9.631   2.497   9.676
96390SOL     OW91002   7.777  11.738   2.542
96390SOL    HW191003   7.830  11.661   2.559
96390SOL    HW291004   7.825  11.788   2.476
96391SOL     OW91005   7.814   4.512   8.070
96391SOL    HW191006   7.724   4.516   8.102
96391SOL    HW291007   7.854   4.593   8.101
96392SOL     OW91008   4.718  14.664   5.991
96392SOL    HW191009   4.764  14.683   5.909
96392SOL    HW291010   4.765  14.715   6.057
96393SOL     OW91011   2.317   8.621   4.149
96393SOL    HW191012   2.340   8.667   4.068
96393SOL    HW291013   2.262   8.548   4.121
96394SOL     OW91014   9.074   8.785   4.399
96394SOL    HW191015   8.990   8.787   4.445
96394SOL    HW291016   9.114   8.871   4.416
96395SOL     OW91017   1.043   9.919   8.129
96395SOL    HW191018   0.957   9.909   8.088
96395SOL    HW291019   1.087   9.985   8.075
96396SOL     OW91020   5.515   6.794   5.186
96396SOL    HW191021   5.561   6.823   5.107
96396SOL    HW291022   5.578   6.740   5.232
96397SOL     OW91023   4.833   7.602   5.502
96397SOL    HW191024   4.769   7.645   5.558
96397SOL    HW291025   4.904   7.666   5.493
96398SOL     OW91026  11.041  11.173   2.767
96398SOL    HW191027  11.116  11.175   2.707
96398SOL    HW291028  10.976  11.230   2.725
96399SOL     OW91029  12.491   1.739   1.999
96399SOL    HW191030  12.505   1.664   2.058
96399SOL    HW291031  12.560   1.801   2.021
96400SOL     OW91032  11.788   2.132  11.319
96400SOL    HW191033  11.724   2.194  11.355
96400SOL    HW291034  11.867   2.184  11.306
96401SOL     OW91035   2.326  12.496   8.358
96401SOL    HW191036   2.329  12.524   8.449
96401SOL    HW291037   2.316  12.401   8.362
96402SOL     OW91038  12.891   4.235   0.972
96402SOL    HW191039  12.907   4.204   1.062
96402SOL    HW291040  12.803   4.272   0.975
96403SOL     OW91041   9.693   5.155   7.022
96403SOL    HW191042   9.709   5.227   6.961
96403SOL    HW291043   9.679   5.198   7.106
96404SOL     OW91044  13.723  12.215   4.627
96404SOL    HW191045  13.779  12.293   4.623
96404SOL    HW291046  13.732  12.174   4.541
96405SOL     OW91047   6.821   4.381   4.847
96405SOL    HW191048   6.817   4.353   4.755
96405SOL    HW291049   6.751   4.446   4.854
96406SOL     OW91050   5.869   2.644   6.141
96406SOL    HW191051   5.787   2.618   6.181
96406SOL    HW291052   5.872   2.595   6.059
96407SOL     OW91053   5.115   3.360   7.544
96407SOL    HW191054   5.153   3.357   7.632
96407SOL    HW291055   5.144   3.444   7.508
96408SOL     OW91056   5.586   0.196   0.322
96408SOL    HW191057   5.548   0.109   0.310
96408SOL    HW291058   5.516   0.248   0.361
96409SOL     OW91059  14.529  14.337   2.495
96409SOL    HW191060  14.463  14.332   2.426
96409SOL    HW291061  14.494  14.401   2.557
96410SOL     OW91062  12.711   0.878   5.402
96410SOL    HW191063  12.707   0.974   5.407
96410SOL    HW291064  12.692   0.858   5.310
96411SOL     OW91065   8.945  14.711   7.194
96411SOL    HW191066   8.910  14.790   7.235
96411SOL    HW291067   9.026  14.739   7.152
96412SOL     OW91068   2.716   3.403  11.155
96412SOL    HW191069   2.739   3.341  11.086
96412SOL    HW291070   2.678   3.348  11.224
96413SOL     OW91071   8.095   5.226  12.181
96413SOL    HW191072   8.056   5.311  12.199
96413SOL    HW291073   8.023   5.172  12.148
96414SOL     OW91074  13.857   0.041   5.245
96414SOL    HW191075  13.894  14.839   5.279
96414SOL    HW291076  13.905   0.110   5.292
96415SOL     OW91077   7.129  10.959  10.191
96415SOL    HW191078   7.116  11.025  10.123
96415SOL    HW291079   7.046  10.911  10.193
96416SOL     OW91080  10.102   5.649  11.233
96416SOL    HW191081  10.159   5.651  11.310
96416SOL    HW291082  10.072   5.558  11.228
96417SOL     OW91083  14.313  13.546   0.062
96417SOL    HW191084  14.311  13.641   0.053
96417SOL    HW291085  14.239  13.514   0.010
96418SOL     OW91086   3.638   2.822   0.690
96418SOL    HW191087   3.714   2.838   0.634
96418SOL    HW291088   3.635   2.899   0.747
96419SOL     OW91089  13.309  12.337   0.547
96419SOL    HW191090  13.255  12.296   0.479
96419SOL    HW291091  13.311  12.273   0.618
96420SOL     OW91092   4.752   1.869   8.722
96420SOL    HW191093   4.739   1.842   8.813
96420SOL    HW291094   4.688   1.939   8.708
96421SOL     OW91095   0.901  14.518   9.571
96421SOL    HW191096   0.928  14.516   9.663
96421SOL    HW291097   0.916  14.609   9.543
96422SOL     OW91098   2.610  13.207   6.985
96422SOL    HW191099   2.536  13.149   7.006
96422SOL    HW291100   2.640  13.238   7.071
96423SOL     OW91101   6.270   7.507  12.605
96423SOL    HW191102   6.273   7.461  12.522
96423SOL    HW291103   6.218   7.586  12.587
96424SOL     OW91104   3.875   2.473  11.015
96424SOL    HW191105   3.865   2.378  11.006
96424SOL    HW291106   3.812   2.510  10.953
96425SOL     OW91107  13.428   8.579   7.183
96425SOL    HW191108  13.461   8.530   7.108
96425SOL    HW291109  13.464   8.667   7.172
96426SOL     OW91110  12.575   4.974   8.743
96426SOL    HW191111  12.579   4.930   8.658
96426SOL    HW291112  12.490   5.016   8.744
96427SOL     OW91113  12.070   4.635  14.702
96427SOL    HW191114  12.032   4.614  14.617
96427SOL    HW291115  12.050   4.560  14.757
96428SOL     OW91116   9.769  11.652   5.771
96428SOL    HW191117   9.745  11.742   5.747
96428SOL    HW291118   9.746  11.600   5.695
96429SOL     OW91119   3.939   5.619   4.126
96429SOL    HW191120   3.991   5.542   4.144
96429SOL    HW291121   3.848   5.588   4.127
96430SOL     OW91122  13.722  11.069   5.852
96430SOL    HW191123  13.652  11.133   5.842
96430SOL    HW291124  13.744  11.043   5.763
96431SOL     OW91125   9.736  14.006  12.166
96431SOL    HW191126   9.745  14.065  12.241
96431SOL    HW291127   9.671  13.941  12.194
96432SOL     OW91128   7.898   1.024   5.895
96432SOL    HW191129   7.982   1.022   5.850
96432SOL    HW291130   7.913   1.076   5.974
96433SOL     OW91131  10.033   8.839   4.049
96433SOL    HW191132   9.997   8.802   4.129
96433SOL    HW291133  10.089   8.770   4.013
96434SOL     OW91134   5.128   1.401   9.998
96434SOL    HW191135   5.062   1.470   9.995
96434SOL    HW291136   5.114   1.358  10.082
96435SOL     OW91137  14.416  13.691   4.518
96435SOL    HW191138  14.473  13.615   4.509
96435SOL    HW291139  14.338  13.658   4.562
96436SOL     OW91140   2.203   1.012   6.669
96436SOL    HW191141   2.249   1.016   6.585
96436SOL    HW291142   2.266   0.973   6.729
96437SOL     OW91143  14.180  13.829   5.772
96437SOL    HW191144  14.255  13.775   5.746
96437SOL    HW291145  14.183  13.831   5.867
96438SOL     OW91146  13.113   1.414   0.471
96438SOL    HW191147  13.092   1.483   0.408
96438SOL    HW291148  13.142   1.461   0.549
96439SOL     OW91149  12.727  12.194   6.706
96439SOL    HW191150  12.731  12.115   6.760
96439SOL    HW291151  12.713  12.265   6.768
96440SOL     OW91152   8.675   2.302  14.838
96440SOL    HW191153   8.588   2.329  14.869
96440SOL    HW291154   8.699   2.369  14.774
96441SOL     OW91155   6.966   2.400   0.612
96441SOL    HW191156   7.026   2.325   0.612
96441SOL    HW291157   6.933   2.404   0.702
96442SOL     OW91158   2.676   0.688   3.958
96442SOL    HW191159   2.693   0.667   3.866
96442SOL    HW291160   2.688   0.606   4.005
96443SOL     OW91161   4.884   4.403   7.351
96443SOL    HW191162   4.905   4.327   7.297
96443SOL    HW291163   4.914   4.478   7.300
96444SOL     OW91164   6.645   8.676   1.829
96444SOL    HW191165   6.704   8.606   1.857
96444SOL    HW291166   6.560   8.651   1.864
96445SOL     OW91167  10.548  13.050  12.814
96445SOL    HW191168  10.623  13.060  12.755
96445SOL    HW291169  10.472  13.078  12.763
96446SOL     OW91170   6.273   1.934  10.143
96446SOL    HW191171   6.251   1.841  10.149
96446SOL    HW291172   6.313   1.945  10.057
96447SOL     OW91173   1.708   7.644  11.240
96447SOL    HW191174   1.661   7.632  11.157
96447SOL    HW291175   1.680   7.570  11.294
96448SOL     OW91176  12.893   8.338  12.125
96448SOL    HW191177  12.874   8.250  12.094
96448SOL    HW291178  12.985   8.353  12.103
96449SOL     OW91179   7.454  11.787  11.955
96449SOL    HW191180   7.508  11.808  11.879
96449SOL    HW291181   7.366  11.815  11.930
96450SOL     OW91182   1.553   0.826   6.687
96450SOL    HW191183   1.579   0.915   6.662
96450SOL    HW291184   1.509   0.792   6.608
96451SOL     OW91185   0.098   5.798   8.501
96451SOL    HW191186   0.115   5.734   8.570
96451SOL    HW291187   0.184   5.816   8.464
96452SOL     OW91188   9.434  13.238  14.356
96452SOL    HW191189   9.349  13.198  14.337
96452SOL    HW291190   9.475  13.248  14.271
96453SOL     OW91191   2.672   7.897  12.723
96453SOL    HW191192   2.595   7.941  12.689
96453SOL    HW291193   2.742   7.920  12.661
96454SOL     OW91194   0.392   4.271  13.552
96454SOL    HW191195   0.407   4.206  13.483
96454SOL    HW291196   0.355   4.220  13.624
96455SOL     OW91197   2.318   1.798   0.668
96455SOL    HW191198   2.246   1.848   0.630
96455SOL    HW291199   2.381   1.864   0.697
96456SOL     OW91200  11.395   5.612   1.844
96456SOL    HW191201  11.316   5.649   1.804
96456SOL    HW291202  11.446   5.689   1.870
96457SOL     OW91203  10.127   4.086   8.905
96457SOL    HW191204  10.089   4.011   8.859
96457SOL    HW291205  10.171   4.136   8.836
96458SOL     OW91206   4.670   0.145   6.004
96458SOL    HW191207   4.653   0.114   6.093
96458SOL    HW291208   4.658   0.240   6.009
96459SOL     OW91209  14.148  14.717  13.493
96459SOL    HW191210  14.152  14.807  13.460
96459SOL    HW291211  14.197  14.719  13.575
96460SOL     OW91212   8.854   4.975   5.434
96460SOL    HW191213   8.830   5.018   5.515
96460SOL    HW291214   8.931   4.922   5.457
96461SOL     OW91215   8.402   9.609   7.381
96461SOL    HW191216   8.479   9.661   7.360
96461SOL    HW291217   8.372   9.574   7.296
96462SOL     OW91218  13.736   2.426   8.651
96462SOL    HW191219  13.656   2.400   8.696
96462SOL    HW291220  13.716   2.512   8.614
96463SOL     OW91221   9.559  10.586  12.017
96463SOL    HW191222   9.566  10.568  12.111
96463SOL    HW291223   9.551  10.681  12.012
96464SOL     OW91224  13.400  13.423   8.723
96464SOL    HW191225  13.347  13.475   8.663
96464SOL    HW291226  13.471  13.389   8.669
96465SOL     OW91227   1.506  14.481   6.956
96465SOL    HW191228   1.511  14.556   7.015
96465SOL    HW291229   1.500  14.519   6.869
96466SOL     OW91230  14.058   7.937  11.447
96466SOL    HW191231  14.060   8.018  11.497
96466SOL    HW291232  14.146   7.900  11.458
96467SOL     OW91233  11.833  10.412  13.284
96467SOL    HW191234  11.746  10.379  13.264
96467SOL    HW291235  11.887  10.333  13.293
96468SOL     OW91236   2.351  13.572  11.706
96468SOL    HW191237   2.287  13.542  11.642
96468SOL    HW291238   2.311  13.553  11.791
96469SOL     OW91239  14.236  11.493  11.117
96469SOL    HW191240  14.313  11.483  11.173
96469SOL    HW291241  14.169  11.529  11.174
96470SOL     OW91242   1.155  12.447   2.610
96470SOL    HW191243   1.168  12.521   2.552
96470SOL    HW291244   1.060  12.442   2.621
96471SOL     OW91245  10.597   8.780  10.758
96471SOL    HW191246  10.596   8.870  10.723
96471SOL    HW291247  10.533   8.781  10.829
96472SOL     OW91248   5.038   3.504   9.552
96472SOL    HW191249   5.117   3.527   9.601
96472SOL    HW291250   5.025   3.578   9.492
96473SOL     OW91251   3.500   9.226  14.267
96473SOL    HW191252   3.419   9.275  14.254
96473SOL    HW291253   3.471   9.142  14.302
96474SOL     OW91254   7.114   5.561   8.296
96474SOL    HW191255   7.082   5.472   8.309
96474SOL    HW291256   7.189   5.551   8.236
96475SOL     OW91257  14.839   9.770  14.080
96475SOL    HW191258  14.831   9.813  13.995
96475SOL    HW291259   0.054   9.762  14.095
96476SOL     OW91260   4.532   9.186  14.612
96476SOL    HW191261   4.526   9.098  14.649
96476SOL    HW291262   4.625   9.209  14.621
96477SOL     OW91263  12.177   0.834  12.494
96477SOL    HW191264  12.119   0.758  12.502
96477SOL    HW291265  12.126   0.906  12.530
96478SOL     OW91266   5.168   6.988   8.412
96478SOL    HW191267   5.228   7.035   8.354
96478SOL    HW291268   5.145   7.052   8.479
96479SOL     OW91269   8.995  10.881  10.848
96479SOL    HW191270   9.009  10.794  10.809
96479SOL    HW291271   9.045  10.879  10.929
96480SOL     OW91272   5.470   2.710   5.007
96480SOL    HW191273   5.407   2.758   5.060
96480SOL    HW291274   5.531   2.672   5.071
96481SOL     OW91275   4.924  12.059   4.397
96481SOL    HW191276   4.885  12.111   4.327
96481SOL    HW291277   5.009  12.100   4.413
96482SOL     OW91278  14.318   5.107  12.337
96482SOL    HW191279  14.322   5.057  12.255
96482SOL    HW291280  14.309   5.040  12.405
96483SOL     OW91281  11.425  13.641  12.860
96483SOL    HW191282  11.344  13.627  12.910
96483SOL    HW291283  11.402  13.622  12.770
96484SOL     OW91284  12.109   2.599   4.355
96484SOL    HW191285  12.131   2.520   4.405
96484SOL    HW291286  12.142   2.581   4.267
96485SOL     OW91287   8.644   8.728   4.045
96485SOL    HW191288   8.663   8.635   4.061
96485SOL    HW291289   8.599   8.757   4.125
96486SOL     OW91290   7.419  11.525   0.945
96486SOL    HW191291   7.437  11.607   0.899
96486SOL    HW291292   7.335  11.495   0.909
96487SOL     OW91293   6.140   2.070  11.649
96487SOL    HW191294   6.083   2.123  11.592
96487SOL    HW291295   6.082   2.037  11.718
96488SOL     OW91296   3.527   7.652   6.383
96488SOL    HW191297   3.569   7.675   6.466
96488SOL    HW291298   3.579   7.578   6.350
96489SOL     OW91299   8.807   2.375  11.083
96489SOL    HW191300   8.717   2.349  11.063
96489SOL    HW291301   8.857   2.347  11.007
96490SOL     OW91302  13.377  11.148   6.479
96490SOL    HW191303  13.348  11.174   6.391
96490SOL    HW291304  13.472  11.153   6.476
96491SOL     OW91305  10.097   6.214   1.525
96491SOL    HW191306  10.122   6.121   1.530
96491SOL    HW291307  10.097   6.244   1.616
96492SOL     OW91308  12.331   6.309   4.249
96492SOL    HW191309  12.365   6.283   4.334
96492SOL    HW291310  12.283   6.232   4.217
96493SOL     OW91311   6.089   3.885   1.119
96493SOL    HW191312   6.022   3.851   1.060
96493SOL    HW291313   6.161   3.823   1.111
96494SOL     OW91314   4.570   3.244  11.440
96494SOL    HW191315   4.546   3.336  11.453
96494SOL    HW291316   4.665   3.245  11.431
96495SOL     OW91317  14.057  13.893  12.487
96495SOL    HW191318  13.977  13.943  12.476
96495SOL    HW291319  14.120  13.955  12.524
96496SOL     OW91320   7.154   7.194  14.188
96496SOL    HW191321   7.214   7.121  14.173
96496SOL    HW291322   7.068   7.153  14.198
96497SOL     OW91323  10.125   8.029   1.435
96497SOL    HW191324  10.064   7.959   1.410
96497SOL    HW291325  10.071   8.108   1.436
96498SOL     OW91326  10.693   5.456   6.012
96498SOL    HW191327  10.730   5.367   6.011
96498SOL    HW291328  10.602   5.444   6.040
96499SOL     OW91329   8.365  10.103   5.692
96499SOL    HW191330   8.337  10.024   5.739
96499SOL    HW291331   8.368  10.076   5.600
96500SOL     OW91332   5.186   2.194   8.974
96500SOL    HW191333   5.115   2.203   8.911
96500SOL    HW291334   5.265   2.189   8.921
96501SOL     OW91335   3.007  11.603   0.274
96501SOL    HW191336   3.003  11.644   0.360
96501SOL    HW291337   3.097  11.572   0.266
96502SOL     OW91338   4.410  14.237   2.844
96502SOL    HW191339   4.353  14.222   2.769
96502SOL    HW291340   4.416  14.152   2.888
96503SOL     OW91341   2.947  10.551   9.332
96503SOL    HW191342   2.888  10.600   9.390
96503SOL    HW291343   2.933  10.459   9.356
96504SOL     OW91344   1.512   3.356   3.282
96504SOL    HW191345   1.559   3.440   3.274
96504SOL    HW291346   1.535   3.308   3.202
96505SOL     OW91347  11.558  12.578  12.360
96505SOL    HW191348  11.613  12.600  12.285
96505SOL    HW291349  11.521  12.493  12.338
96506SOL     OW91350  14.194   5.746   2.685
96506SOL    HW191351  14.148   5.802   2.622
96506SOL    HW291352  14.146   5.758   2.767
96507SOL     OW91353  14.440   8.691   7.008
96507SOL    HW191354  14.428   8.620   7.071
96507SOL    HW291355  14.388   8.764   7.044
96508SOL     OW91356  14.334   5.502   5.128
96508SOL    HW191357  14.358   5.579   5.179
96508SOL    HW291358  14.409   5.487   5.070
96509SOL     OW91359  10.039  11.776   3.274
96509SOL    HW191360  10.097  11.734   3.210
96509SOL    HW291361   9.960  11.797   3.224
96510SOL     OW91362   8.036   6.447   3.314
96510SOL    HW191363   7.999   6.410   3.234
96510SOL    HW291364   7.999   6.535   3.320
96511SOL     OW91365   6.406   9.650   8.782
96511SOL    HW191366   6.497   9.621   8.771
96511SOL    HW291367   6.360   9.614   8.706
96512SOL     OW91368   3.459   9.666   4.312
96512SOL    HW191369   3.394   9.596   4.307
96512SOL    HW291370   3.491   9.675   4.222
96513SOL     OW91371   4.946  13.071  13.946
96513SOL    HW191372   4.850  13.065  13.953
96513SOL    HW291373   4.976  12.980  13.956
96514SOL     OW91374  11.741  12.739   1.055
96514SOL    HW191375  11.728  12.693   0.972
96514SOL    HW291376  11.790  12.818   1.032
96515SOL     OW91377   7.958  10.691  14.717
96515SOL    HW191378   8.052  10.707  14.717
96515SOL    HW291379   7.918  10.778  14.714
96516SOL     OW91380  14.800  12.860  11.975
96516SOL    HW191381   0.010  12.887  11.950
96516SOL    HW291382  14.759  12.941  12.006
96517SOL     OW91383   3.804  11.256   4.482
96517SOL    HW191384   3.778  11.221   4.397
96517SOL    HW291385   3.885  11.304   4.464
96518SOL     OW91386  11.825   5.660   2.540
96518SOL    HW191387  11.845   5.753   2.551
96518SOL    HW291388  11.817   5.649   2.445
96519SOL     OW91389   1.191   1.845  10.087
96519SOL    HW191390   1.205   1.881  10.000
96519SOL    HW291391   1.197   1.750  10.075
96520SOL     OW91392  10.894   3.235   1.211
96520SOL    HW191393  10.844   3.245   1.293
96520SOL    HW291394  10.917   3.142   1.208
96521SOL     OW91395   4.674   4.477  11.697
96521SOL    HW191396   4.748   4.505  11.751
96521SOL    HW291397   4.671   4.382  11.707
96522SOL     OW91398   3.725  12.403   6.555
96522SOL    HW191399   3.727  12.446   6.469
96522SOL    HW291400   3.795  12.339   6.551
96523SOL     OW91401   8.892  10.012   7.957
96523SOL    HW191402   8.801   9.999   7.986
96523SOL    HW291403   8.910   9.935   7.903
96524SOL     OW91404  12.031   4.792  11.682
96524SOL    HW191405  11.951   4.739  11.687
96524SOL    HW291406  12.036   4.819  11.591
96525SOL     OW91407   6.973   9.166   3.099
96525SOL    HW191408   7.059   9.175   3.141
96525SOL    HW291409   6.925   9.244   3.124
96526SOL     OW91410  12.766   7.626   8.625
96526SOL    HW191411  12.735   7.681   8.696
96526SOL    HW291412  12.857   7.608   8.647
96527SOL     OW91413  14.206  14.849   9.172
96527SOL    HW191414  14.147  14.773   9.175
96527SOL    HW291415  14.291  14.813   9.148
96528SOL     OW91416   7.338   0.376  10.852
96528SOL    HW191417   7.393   0.409  10.780
96528SOL    HW291418   7.322   0.452  10.907
96529SOL     OW91419  11.412  10.087   5.220
96529SOL    HW191420  11.402  10.083   5.125
96529SOL    HW291421  11.343  10.147   5.248
96530SOL     OW91422   8.236  12.548   7.505
96530SOL    HW191423   8.320  12.575   7.467
96530SOL    HW291424   8.236  12.452   7.497
96531SOL     OW91425  11.550  11.376   1.076
96531SOL    HW191426  11.561  11.469   1.059
96531SOL    HW291427  11.456  11.364   1.089
96532SOL     OW91428   0.960   6.712   8.652
96532SOL    HW191429   1.026   6.776   8.626
96532SOL    HW291430   0.926   6.677   8.569
96533SOL     OW91431   8.628   1.069  10.214
96533SOL    HW191432   8.703   1.010  10.218
96533SOL    HW291433   8.634   1.110  10.128
96534SOL     OW91434   2.889  14.397   8.028
96534SOL    HW191435   2.833  14.378   7.952
96534SOL    HW291436   2.965  14.340   8.015
96535SOL     OW91437   4.350  14.059   1.283
96535SOL    HW191438   4.400  14.140   1.275
96535SOL    HW291439   4.408  13.991   1.251
96536SOL     OW91440   5.796   9.312   1.803
96536SOL    HW191441   5.840   9.387   1.844
96536SOL    HW291442   5.741   9.276   1.872
96537SOL     OW91443  11.251  12.364   8.091
96537SOL    HW191444  11.302  12.310   8.152
96537SOL    HW291445  11.166  12.320   8.085
96538SOL     OW91446  10.292   7.049  10.875
96538SOL    HW191447  10.304   7.074  10.967
96538SOL    HW291448  10.232   7.115  10.841
96539SOL     OW91449   2.080  13.334  11.665
96539SOL    HW191450   2.099  13.290  11.748
96539SOL    HW291451   2.081  13.427  11.687
96540SOL     OW91452  10.450   2.530   0.788
96540SOL    HW191453  10.454   2.435   0.798
96540SOL    HW291454  10.370   2.545   0.736
96541SOL     OW91455   6.546  10.218   5.218
96541SOL    HW191456   6.594  10.227   5.136
96541SOL    HW291457   6.458  10.251   5.199
96542SOL     OW91458   0.221  14.813   8.964
96542SOL    HW191459   0.259  14.859   9.039
96542SOL    HW291460   0.247  14.865   8.888
96543SOL     OW91461  13.602   8.092   3.812
96543SOL    HW191462  13.573   8.072   3.901
96543SOL    HW291463  13.578   8.184   3.799
96544SOL     OW91464   8.699   1.460   6.203
96544SOL    HW191465   8.680   1.421   6.118
96544SOL    HW291466   8.775   1.516   6.187
96545SOL     OW91467   5.982   9.047  10.620
96545SOL    HW191468   6.026   9.126  10.654
96545SOL    HW291469   5.970   9.065  10.527
96546SOL     OW91470  11.233  11.817  11.898
96546SOL    HW191471  11.185  11.747  11.942
96546SOL    HW291472  11.169  11.859  11.841
96547SOL     OW91473   9.294   6.172   0.333
96547SOL    HW191474   9.214   6.191   0.381
96547SOL    HW291475   9.279   6.208   0.245
96548SOL     OW91476   2.538   2.381   3.952
96548SOL    HW191477   2.604   2.348   3.891
96548SOL    HW291478   2.570   2.357   4.039
96549SOL     OW91479   8.450   4.396   3.282
96549SOL    HW191480   8.401   4.442   3.351
96549SOL    HW291481   8.500   4.464   3.238
96550SOL     OW91482   5.910  12.303  11.730
96550SOL    HW191483   5.933  12.385  11.775
96550SOL    HW291484   5.883  12.244  11.800
96551SOL     OW91485  14.713  13.589   2.247
96551SOL    HW191486  14.791  13.611   2.297
96551SOL    HW291487  14.644  13.645   2.283
96552SOL     OW91488   1.640   9.219   4.166
96552SOL    HW191489   1.684   9.163   4.102
96552SOL    HW291490   1.695   9.297   4.172
96553SOL     OW91491   4.208  11.811  10.022
96553SOL    HW191492   4.295  11.777  10.000
96553SOL    HW291493   4.218  11.846  10.110
96554SOL     OW91494   9.555   2.191  10.320
96554SOL    HW191495   9.530   2.100  10.334
96554SOL    HW291496   9.639   2.200  10.365
96555SOL     OW91497  11.847   0.017   0.883
96555SOL    HW191498  11.878  14.854   0.963
96555SOL    HW291499  11.759   0.046   0.903
96556SOL     OW91500   7.394   1.000   3.385
96556SOL    HW191501   7.460   1.066   3.407
96556SOL    HW291502   7.444   0.926   3.350
96557SOL     OW91503  11.799  10.422   0.682
96557SOL    HW191504  11.776  10.409   0.774
96557SOL    HW291505  11.843  10.341   0.656
96558SOL     OW91506  10.949  11.952  14.804
96558SOL    HW191507  10.886  11.897  14.757
96558SOL    HW291508  10.977  11.898  14.878
96559SOL     OW91509   2.068   9.812   9.238
96559SOL    HW191510   2.087   9.866   9.315
96559SOL    HW291511   2.011   9.743   9.271
96560SOL     OW91512  14.417   9.602   3.332
96560SOL    HW191513  14.505   9.640   3.336
96560SOL    HW291514  14.363   9.670   3.293
96561SOL     OW91515   1.274  11.236  12.882
96561SOL    HW191516   1.366  11.234  12.907
96561SOL    HW291517   1.242  11.147  12.899
96562SOL     OW91518   3.240   2.261   1.131
96562SOL    HW191519   3.335   2.269   1.121
96562SOL    HW291520   3.206   2.253   1.042
96563SOL     OW91521   9.514  14.151   3.290
96563SOL    HW191522   9.547  14.240   3.302
96563SOL    HW291523   9.593  14.097   3.278
96564SOL     OW91524  14.872   1.711  11.707
96564SOL    HW191525  14.827   1.751  11.633
96564SOL    HW291526  14.808   1.713  11.779
96565SOL     OW91527   0.843  10.083  12.791
96565SOL    HW191528   0.760  10.115  12.825
96565SOL    HW291529   0.839  10.101  12.697
96566SOL     OW91530   6.544  11.488  10.279
96566SOL    HW191531   6.616  11.451  10.330
96566SOL    HW291532   6.468  11.438  10.306
96567SOL     OW91533   6.515  11.945   5.836
96567SOL    HW191534   6.609  11.928   5.829
96567SOL    HW291535   6.481  11.870   5.884
96568SOL     OW91536  12.851  13.692  12.897
96568SOL    HW191537  12.923  13.701  12.835
96568SOL    HW291538  12.848  13.598  12.917
96569SOL     OW91539   3.631   4.586  13.051
96569SOL    HW191540   3.712   4.546  13.022
96569SOL    HW291541   3.626   4.564  13.144
96570SOL     OW91542   7.025  13.735  11.183
96570SOL    HW191543   6.937  13.765  11.203
96570SOL    HW291544   7.036  13.753  11.089
96571SOL     OW91545   7.826  11.479   4.440
96571SOL    HW191546   7.763  11.418   4.481
96571SOL    HW291547   7.787  11.500   4.355
96572SOL     OW91548   5.524  13.996   8.854
96572SOL    HW191549   5.553  13.918   8.902
96572SOL    HW291550   5.433  14.009   8.882
96573SOL     OW91551   1.308   6.947   4.566
96573SOL    HW191552   1.240   6.967   4.501
96573SOL    HW291553   1.313   7.025   4.621
96574SOL     OW91554  12.574  12.620   7.406
96574SOL    HW191555  12.559  12.711   7.378
96574SOL    HW291556  12.654  12.624   7.458
96575SOL     OW91557  13.499   4.073  12.231
96575SOL    HW191558  13.473   4.115  12.313
96575SOL    HW291559  13.572   4.017  12.255
96576SOL     OW91560  12.109   4.874   8.892
96576SOL    HW191561  12.028   4.849   8.847
96576SOL    HW291562  12.163   4.795   8.889
96577SOL     OW91563   7.259  12.473  14.115
96577SOL    HW191564   7.308  12.553  14.132
96577SOL    HW291565   7.315  12.424  14.054
96578SOL     OW91566   9.318   5.877   6.691
96578SOL    HW191567   9.318   5.973   6.695
96578SOL    HW291568   9.402   5.851   6.728
96579SOL     OW91569   2.172  13.219   4.660
96579SOL    HW191570   2.125  13.193   4.581
96579SOL    HW291571   2.128  13.171   4.730
96580SOL     OW91572  11.867   8.861   0.583
96580SOL    HW191573  11.797   8.854   0.648
96580SOL    HW291574  11.829   8.913   0.512
96581SOL     OW91575   5.487  12.805   9.230
96581SOL    HW191576   5.454  12.895   9.231
96581SOL    HW291577   5.409  12.751   9.216
96582SOL     OW91578   6.017   6.584   2.467
96582SOL    HW191579   6.082   6.618   2.404
96582SOL    HW291580   6.058   6.598   2.553
96583SOL     OW91581   8.553  14.567   2.056
96583SOL    HW191582   8.645  14.542   2.065
96583SOL    HW291583   8.517  14.558   2.144
96584SOL     OW91584   8.473   2.903   8.631
96584SOL    HW191585   8.508   2.893   8.543
96584SOL    HW291586   8.404   2.969   8.622
96585SOL     OW91587   1.634   7.399  12.695
96585SOL    HW191588   1.695   7.403  12.768
96585SOL    HW291589   1.548   7.415  12.735
96586SOL     OW91590  14.033  11.300   7.548
96586SOL    HW191591  14.035  11.393   7.573
96586SOL    HW291592  14.124  11.279   7.528
96587SOL     OW91593   5.550   4.404   7.550
96587SOL    HW191594   5.638   4.383   7.579
96587SOL    HW291595   5.556   4.406   7.455
96588SOL     OW91596   8.107   9.941   1.777
96588SOL    HW191597   8.184   9.995   1.796
96588SOL    HW291598   8.035   9.987   1.820
96589SOL     OW91599  14.319   3.177  10.681
96589SOL    HW191600  14.352   3.147  10.766
96589SOL    HW291601  14.226   3.158  10.683
96590SOL     OW91602   4.135   9.373  10.588
96590SOL    HW191603   4.161   9.448  10.534
96590SOL    HW291604   4.081   9.410  10.657
96591SOL     OW91605   2.398   8.859   8.844
96591SOL    HW191606   2.345   8.896   8.914
96591SOL    HW291607   2.352   8.779   8.818
96592SOL     OW91608  11.320   0.090   2.264
96592SOL    HW191609  11.250   0.027   2.253
96592SOL    HW291610  11.386   0.064   2.200
96593SOL     OW91611   5.604   1.820   5.763
96593SOL    HW191612   5.577   1.821   5.671
96593SOL    HW291613   5.693   1.785   5.761
96594SOL     OW91614  14.625   8.171   0.655
96594SOL    HW191615  14.627   8.218   0.572
96594SOL    HW291616  14.544   8.200   0.697
96595SOL     OW91617   2.385   0.101   4.445
96595SOL    HW191618   2.384   0.024   4.388
96595SOL    HW291619   2.331   0.076   4.520
96596SOL     OW91620   5.423   6.068   6.986
96596SOL    HW191621   5.378   5.984   6.993
96596SOL    HW291622   5.499   6.060   7.043
96597SOL     OW91623  12.105   0.805   2.675
96597SOL    HW191624  12.197   0.829   2.677
96597SOL    HW291625  12.058   0.888   2.683
96598SOL     OW91626   5.130   2.076  11.146
96598SOL    HW191627   5.169   2.092  11.061
96598SOL    HW291628   5.130   1.980  11.155
96599SOL     OW91629  11.474   7.524  10.631
96599SOL    HW191630  11.414   7.577  10.579
96599SOL    HW291631  11.551   7.515  10.575
96600SOL     OW91632  13.968   2.288   3.637
96600SOL    HW191633  13.934   2.208   3.595
96600SOL    HW291634  13.971   2.266   3.730
96601SOL     OW91635   1.838   2.641   4.512
96601SOL    HW191636   1.836   2.730   4.546
96601SOL    HW291637   1.781   2.591   4.571
96602SOL     OW91638  11.970   6.209  13.125
96602SOL    HW191639  11.955   6.300  13.147
96602SOL    HW291640  11.885   6.176  13.098
96603SOL     OW91641   6.158  14.163  12.736
96603SOL    HW191642   6.163  14.250  12.696
96603SOL    HW291643   6.234  14.117  12.701
96604SOL     OW91644   3.702  14.465  10.494
96604SOL    HW191645   3.751  14.383  10.485
96604SOL    HW291646   3.613  14.436  10.515
96605SOL     OW91647   2.822   3.408   3.192
96605SOL    HW191648   2.848   3.500   3.198
96605SOL    HW291649   2.818   3.379   3.283
96606SOL     OW91650  11.013   3.262   3.862
96606SOL    HW191651  10.957   3.307   3.925
96606SOL    HW291652  11.015   3.171   3.892
96607SOL     OW91653   8.919   3.141   4.304
96607SOL    HW191654   8.994   3.121   4.360
96607SOL    HW291655   8.885   3.224   4.338
96608SOL     OW91656  10.190   2.340   7.150
96608SOL    HW191657  10.143   2.372   7.226
96608SOL    HW291658  10.271   2.304   7.186
96609SOL     OW91659   8.356  11.680  13.275
96609SOL    HW191660   8.337  11.761  13.227
96609SOL    HW291661   8.448  11.687  13.299
96610SOL     OW91662   1.341  14.207   7.510
96610SOL    HW191663   1.306  14.209   7.421
96610SOL    HW291664   1.277  14.257   7.561
96611SOL     OW91665   9.277  10.039   0.358
96611SOL    HW191666   9.233  10.020   0.441
96611SOL    HW291667   9.234   9.982   0.295
96612SOL     OW91668   3.139   5.080   2.848
96612SOL    HW191669   3.224   5.036   2.841
96612SOL    HW291670   3.113   5.068   2.940
96613SOL     OW91671  14.642   6.721   4.322
96613SOL    HW191672  14.725   6.766   4.306
96613SOL    HW291673  14.659   6.630   4.298
96614SOL     OW91674   1.083   3.422  11.657
96614SOL    HW191675   1.084   3.424  11.752
96614SOL    HW291676   1.015   3.486  11.632
96615SOL     OW91677   5.258  12.565   7.225
96615SOL    HW191678   5.329  12.544   7.164
96615SOL    HW291679   5.269  12.502   7.297
96616SOL     OW91680   3.900  10.656  13.494
96616SOL    HW191681   3.848  10.708  13.433
96616SOL    HW291682   3.942  10.721  13.551
96617SOL     OW91683  13.605   4.796  10.284
96617SOL    HW191684  13.671   4.814  10.350
96617SOL    HW291685  13.641   4.834  10.203
96618SOL     OW91686  12.721   4.788   0.937
96618SOL    HW191687  12.671   4.803   1.017
96618SOL    HW291688  12.729   4.875   0.897
96619SOL     OW91689   4.156   7.482   5.014
96619SOL    HW191690   4.194   7.394   5.012
96619SOL    HW291691   4.192   7.526   4.937
96620SOL     OW91692   0.951   2.208   4.413
96620SOL    HW191693   1.036   2.163   4.408
96620SOL    HW291694   0.889   2.138   4.435
96621SOL     OW91695  11.654   1.384   3.655
96621SOL    HW191696  11.729   1.444   3.652
96621SOL    HW291697  11.681   1.317   3.719
96622SOL     OW91698  13.322   0.573   3.645
96622SOL    HW191699  13.352   0.551   3.557
96622SOL    HW291700  13.271   0.497   3.673
96623SOL     OW91701   9.716   7.428  11.774
96623SOL    HW191702   9.725   7.469  11.860
96623SOL    HW291703   9.629   7.388  11.775
96624SOL     OW91704   1.002  12.851   8.431
96624SOL    HW191705   0.932  12.787   8.422
96624SOL    HW291706   1.082  12.800   8.423
96625SOL     OW91707   9.451  14.093   5.338
96625SOL    HW191708   9.530  14.054   5.375
96625SOL    HW291709   9.412  14.141   5.411
96626SOL     OW91710  14.408   5.468  10.938
96626SOL    HW191711  14.490   5.501  10.975
96626SOL    HW291712  14.429   5.379  10.910
96627SOL     OW91713   3.133  13.442   4.143
96627SOL    HW191714   3.144  13.486   4.228
96627SOL    HW291715   3.211  13.466   4.093
96628SOL     OW91716   4.911   4.725   0.850
96628SOL    HW191717   4.923   4.630   0.850
96628SOL    HW291718   4.816   4.738   0.855
96629SOL     OW91719   7.010   6.389  10.493
96629SOL    HW191720   6.957   6.325  10.445
96629SOL    HW291721   7.027   6.347  10.577
96630SOL     OW91722   2.625   5.749  11.304
96630SOL    HW191723   2.611   5.742  11.209
96630SOL    HW291724   2.719   5.760  11.314
96631SOL     OW91725   5.802   8.125  11.514
96631SOL    HW191726   5.845   8.133  11.429
96631SOL    HW291727   5.862   8.072  11.567
96632SOL     OW91728  13.163   0.641   9.635
96632SOL    HW191729  13.170   0.624   9.729
96632SOL    HW291730  13.131   0.730   9.628
96633SOL     OW91731   1.010   0.238   1.594
96633SOL    HW191732   1.001   0.172   1.663
96633SOL    HW291733   1.059   0.193   1.525
96634SOL     OW91734  10.584  14.193   0.114
96634SOL    HW191735  10.605  14.150   0.031
96634SOL    HW291736  10.501  14.238   0.098
96635SOL     OW91737   8.076   9.393   9.528
96635SOL    HW191738   8.054   9.385   9.435
96635SOL    HW291739   8.077   9.303   9.560
96636SOL     OW91740  10.294   7.294   1.547
96636SOL    HW191741  10.314   7.374   1.500
96636SOL    HW291742  10.315   7.224   1.485
96637SOL     OW91743  11.648  14.259  13.639
96637SOL    HW191744  11.622  14.201  13.567
96637SOL    HW291745  11.707  14.206  13.693
96638SOL     OW91746   1.648   6.833   7.095
96638SOL    HW191747   1.720   6.879   7.052
96638SOL    HW291748   1.632   6.756   7.041
96639SOL     OW91749   1.092   2.834   3.677
96639SOL    HW191750   1.155   2.763   3.693
96639SOL    HW291751   1.095   2.848   3.583
96640SOL     OW91752  13.886   1.681   6.818
96640SOL    HW191753  13.948   1.751   6.837
96640SOL    HW291754  13.805   1.726   6.796
96641SOL     OW91755  14.861  13.635  12.177
96641SOL    HW191756  14.844  13.574  12.106
96641SOL    HW291757  14.826  13.719  12.146
96642SOL     OW91758   2.204  10.370   0.991
96642SOL    HW191759   2.119  10.415   0.998
96642SOL    HW291760   2.189  10.301   0.926
96643SOL     OW91761  12.782  12.029  10.104
96643SOL    HW191762  12.854  12.035  10.041
96643SOL    HW291763  12.703  12.029  10.051
96644SOL     OW91764  14.542  13.651   6.818
96644SOL    HW191765  14.556  13.584   6.752
96644SOL    HW291766  14.531  13.603   6.900
96645SOL     OW91767   0.704  10.942  12.778
96645SOL    HW191768   0.738  10.975  12.861
96645SOL    HW291769   0.718  11.013  12.716
96646SOL     OW91770   9.494   6.162   6.383
96646SOL    HW191771   9.461   6.236   6.434
96646SOL    HW291772   9.541   6.203   6.310
96647SOL     OW91773   9.210   7.644   1.577
96647SOL    HW191774   9.297   7.683   1.571
96647SOL    HW291775   9.226   7.555   1.611
96648SOL     OW91776   6.218   0.809   1.704
96648SOL    HW191777   6.300   0.816   1.655
96648SOL    HW291778   6.223   0.724   1.747
96649SOL     OW91779   1.496   9.078   5.082
96649SOL    HW191780   1.413   9.109   5.045
96649SOL    HW291781   1.559   9.087   5.010
96650SOL     OW91782   1.946  11.940   5.825
96650SOL    HW191783   1.978  11.955   5.914
96650SOL    HW291784   1.973  12.018   5.777
96651SOL     OW91785   9.251   9.066  12.867
96651SOL    HW191786   9.266   9.121  12.790
96651SOL    HW291787   9.210   8.987  12.832
96652SOL     OW91788   2.149   4.606   8.268
96652SOL    HW191789   2.196   4.556   8.201
96652SOL    HW291790   2.214   4.669   8.300
96653SOL     OW91791   7.886  13.656   8.320
96653SOL    HW191792   7.829  13.705   8.378
96653SOL    HW291793   7.973  13.692   8.336
96654SOL     OW91794   2.942  10.732  10.689
96654SOL    HW191795   2.987  10.668  10.745
96654SOL    HW291796   2.871  10.683  10.648
96655SOL     OW91797  10.721   0.922  12.329
96655SOL    HW191798  10.631   0.915  12.363
96655SOL    HW291799  10.714   0.892  12.239
96656SOL     OW91800   5.311   2.683   8.618
96656SOL    HW191801   5.352   2.756   8.572
96656SOL    HW291802   5.288   2.620   8.550
96657SOL     OW91803  14.119   9.788   9.708
96657SOL    HW191804  14.058   9.843   9.756
96657SOL    HW291805  14.115   9.702   9.751
96658SOL     OW91806   7.922  13.562  14.481
96658SOL    HW191807   7.996  13.555  14.541
96658SOL    HW291808   7.928  13.651  14.445
96659SOL     OW91809   8.995   7.018  11.724
96659SOL    HW191810   8.937   7.032  11.649
96659SOL    HW291811   9.030   7.105  11.744
96660SOL     OW91812   2.196   1.753  13.956
96660SOL    HW191813   2.264   1.776  13.892
96660SOL    HW291814   2.217   1.663  13.981
96661SOL     OW91815   0.605   9.964  14.724
96661SOL    HW191816   0.614  10.011  14.641
96661SOL    HW291817   0.579  10.032  14.786
96662SOL     OW91818   1.237   9.303   1.627
96662SOL    HW191819   1.143   9.298   1.614
96662SOL    HW291820   1.259   9.222   1.675
96663SOL     OW91821   9.474   3.002   4.013
96663SOL    HW191822   9.429   3.070   3.963
96663SOL    HW291823   9.549   2.978   3.960
96664SOL     OW91824   8.599   8.517  10.247
96664SOL    HW191825   8.594   8.613  10.245
96664SOL    HW291826   8.518   8.490  10.291
96665SOL     OW91827   2.739   6.485  11.541
96665SOL    HW191828   2.752   6.579  11.548
96665SOL    HW291829   2.741   6.467  11.447
96666SOL     OW91830  11.304   7.486   5.685
96666SOL    HW191831  11.293   7.580   5.703
96666SOL    HW291832  11.281   7.476   5.593
96667SOL     OW91833  11.762   9.777   9.833
96667SOL    HW191834  11.745   9.801   9.742
96667SOL    HW291835  11.708   9.700   9.848
96668SOL     OW91836   0.681   6.558   0.245
96668SOL    HW191837   0.684   6.465   0.265
96668SOL    HW291838   0.749   6.572   0.179
96669SOL     OW91839   8.223  13.017   8.392
96669SOL    HW191840   8.158  13.020   8.323
96669SOL    HW291841   8.249  12.925   8.398
96670SOL     OW91842   6.681  14.473   8.003
96670SOL    HW191843   6.757  14.464   8.060
96670SOL    HW291844   6.716  14.462   7.914
96671SOL     OW91845   1.018  13.383  14.768
96671SOL    HW191846   1.013  13.333  14.686
96671SOL    HW291847   1.102  13.428  14.764
96672SOL     OW91848   6.539  13.836  11.489
96672SOL    HW191849   6.560  13.775  11.560
96672SOL    HW291850   6.623  13.854  11.447
96673SOL     OW91851   4.197  13.247   1.831
96673SOL    HW191852   4.197  13.173   1.770
96673SOL    HW291853   4.276  13.296   1.810
96674SOL     OW91854   7.866   0.338  12.341
96674SOL    HW191855   7.806   0.264  12.336
96674SOL    HW291856   7.861   0.367  12.432
96675SOL     OW91857   9.503   0.695   2.413
96675SOL    HW191858   9.423   0.684   2.360
96675SOL    HW291859   9.574   0.668   2.354
96676SOL     OW91860   3.865  12.053   2.974
96676SOL    HW191861   3.864  12.148   2.970
96676SOL    HW291862   3.958  12.030   2.981
96677SOL     OW91863   5.621  11.692  14.529
96677SOL    HW191864   5.525  11.690  14.531
96677SOL    HW291865   5.643  11.661  14.441
96678SOL     OW91866   0.422  13.505   1.849
96678SOL    HW191867   0.486  13.557   1.896
96678SOL    HW291868   0.344  13.506   1.905
96679SOL     OW91869   4.192  10.772   3.442
96679SOL    HW191870   4.159  10.682   3.438
96679SOL    HW291871   4.258  10.770   3.511
96680SOL     OW91872  10.583   0.062   9.883
96680SOL    HW191873  10.632   0.108   9.815
96680SOL    HW291874  10.648   0.011   9.931
96681SOL     OW91875  12.452  13.568  14.683
96681SOL    HW191876  12.522  13.509  14.654
96681SOL    HW291877  12.498  13.644  14.719
96682SOL     OW91878  13.622   4.607   0.927
96682SOL    HW191879  13.707   4.608   0.971
96682SOL    HW291880  13.634   4.549   0.852
96683SOL     OW91881   1.953   8.069   2.548
96683SOL    HW191882   2.041   8.059   2.584
96683SOL    HW291883   1.908   8.126   2.611
96684SOL     OW91884   6.450   8.040   1.433
96684SOL    HW191885   6.420   7.949   1.441
96684SOL    HW291886   6.388   8.090   1.485
96685SOL     OW91887  10.131   7.998   6.899
96685SOL    HW191888  10.103   7.910   6.873
96685SOL    HW291889  10.136   7.995   6.994
96686SOL     OW91890   1.879   5.546  10.085
96686SOL    HW191891   1.953   5.549  10.025
96686SOL    HW291892   1.859   5.453  10.094
96687SOL     OW91893   1.241   0.156   6.492
96687SOL    HW191894   1.328   0.135   6.457
96687SOL    HW291895   1.181   0.098   6.444
96688SOL     OW91896  10.912  14.832   4.485
96688SOL    HW191897  10.857  14.840   4.407
96688SOL    HW291898  10.865   0.002   4.553
96689SOL     OW91899   9.268   7.387   1.698
96689SOL    HW191900   9.279   7.292   1.701
96689SOL    HW291901   9.222   7.408   1.780
96690SOL     OW91902   8.233   6.743  10.414
96690SOL    HW191903   8.216   6.756  10.508
96690SOL    HW291904   8.152   6.704  10.380
96691SOL     OW91905   4.484   6.658   9.203
96691SOL    HW191906   4.505   6.719   9.273
96691SOL    HW291907   4.418   6.599   9.241
96692SOL     OW91908   4.235   8.548  14.189
96692SOL    HW191909   4.198   8.588  14.268
96692SOL    HW291910   4.277   8.468  14.220
96693SOL     OW91911   4.756   1.948   5.006
96693SOL    HW191912   4.678   1.999   5.026
96693SOL    HW291913   4.829   2.007   5.028
96694SOL     OW91914  10.786  12.919  13.961
96694SOL    HW191915  10.706  12.889  14.003
96694SOL    HW291916  10.756  12.966  13.883
96695SOL     OW91917   3.352   6.961   2.648
96695SOL    HW191918   3.334   7.048   2.611
96695SOL    HW291919   3.415   6.923   2.587
96696SOL     OW91920   1.248   4.767  10.616
96696SOL    HW191921   1.306   4.782  10.690
96696SOL    HW291922   1.305   4.736  10.546
96697SOL     OW91923  10.049   9.961  14.818
96697SOL    HW191924   9.963   9.989  14.787
96697SOL    HW291925  10.108  10.031  14.791
96698SOL     OW91926   1.523  10.105   9.846
96698SOL    HW191927   1.451  10.135   9.901
96698SOL    HW291928   1.584  10.063   9.908
96699SOL     OW91929  10.928   8.477   3.044
96699SOL    HW191930  10.931   8.568   3.014
96699SOL    HW291931  10.948   8.426   2.965
96700SOL     OW91932  12.380   3.827  13.819
96700SOL    HW191933  12.364   3.918  13.841
96700SOL    HW291934  12.299   3.782  13.844
96701SOL     OW91935   5.333   6.529   4.718
96701SOL    HW191936   5.377   6.539   4.803
96701SOL    HW291937   5.325   6.434   4.707
96702SOL     OW91938   9.271   0.141   0.448
96702SOL    HW191939   9.307   0.163   0.362
96702SOL    HW291940   9.307   0.055   0.468
96703SOL     OW91941   8.790   8.520  12.493
96703SOL    HW191942   8.717   8.564  12.451
96703SOL    HW291943   8.754   8.486  12.575
96704SOL     OW91944  12.802  13.269  10.952
96704SOL    HW191945  12.894  13.258  10.930
96704SOL    HW291946  12.758  13.277  10.867
96705SOL     OW91947   5.409  12.705   0.838
96705SOL    HW191948   5.493  12.680   0.800
96705SOL    HW291949   5.398  12.649   0.914
96706SOL     OW91950   4.467   9.555   7.774
96706SOL    HW191951   4.380   9.594   7.767
96706SOL    HW291952   4.474   9.497   7.698
96707SOL     OW91953  11.300  12.570   8.386
96707SOL    HW191954  11.307  12.477   8.365
96707SOL    HW291955  11.387  12.605   8.365
96708SOL     OW91956  10.260  14.387   6.554
96708SOL    HW191957  10.231  14.473   6.525
96708SOL    HW291958  10.182  14.332   6.549
96709SOL     OW91959   7.350   1.003   4.296
96709SOL    HW191960   7.417   1.071   4.289
96709SOL    HW291961   7.268   1.049   4.279
96710SOL     OW91962   0.131  10.299   5.391
96710SOL    HW191963   0.201  10.255   5.343
96710SOL    HW291964   0.152  10.392   5.384
96711SOL     OW91965   7.684  11.966   6.277
96711SOL    HW191966   7.771  11.966   6.316
96711SOL    HW291967   7.698  11.991   6.186
96712SOL     OW91968   3.488   0.078   4.263
96712SOL    HW191969   3.508  14.865   4.244
96712SOL    HW291970   3.424   0.103   4.197
96713SOL     OW91971  13.484  13.742   1.150
96713SOL    HW191972  13.563  13.780   1.188
96713SOL    HW291973  13.413  13.776   1.204
96714SOL     OW91974   2.670  11.377   8.003
96714SOL    HW191975   2.748  11.361   8.056
96714SOL    HW291976   2.690  11.458   7.955
96715SOL     OW91977  13.762  12.265   7.741
96715SOL    HW191978  13.802  12.273   7.654
96715SOL    HW291979  13.690  12.203   7.727
96716SOL     OW91980   8.146   4.600  14.402
96716SOL    HW191981   8.071   4.607  14.461
96716SOL    HW291982   8.128   4.521  14.351
96717SOL     OW91983   2.321   0.101   7.128
96717SOL    HW191984   2.355   0.170   7.071
96717SOL    HW291985   2.226   0.105   7.118
96718SOL     OW91986   2.170   4.973   9.543
96718SOL    HW191987   2.177   4.898   9.602
96718SOL    HW291988   2.260   4.999   9.527
96719SOL     OW91989  13.350   1.814   9.350
96719SOL    HW191990  13.329   1.877   9.281
96719SOL    HW291991  13.297   1.737   9.328
96720SOL     OW91992   1.465   9.312  13.984
96720SOL    HW191993   1.500   9.318  13.895
96720SOL    HW291994   1.415   9.231  13.985
96721SOL     OW91995   1.124  14.190  14.611
96721SOL    HW191996   1.117  14.098  14.636
96721SOL    HW291997   1.034  14.223  14.612
96722SOL     OW91998  11.619   3.647  11.890
96722SOL    HW191999  11.682   3.656  11.819
96722SOL    HW292000  11.547   3.705  11.866
96723SOL     OW92001  13.529  12.448   7.616
96723SOL    HW192002  13.573  12.451   7.701
96723SOL    HW292003  13.598  12.425   7.553
96724SOL     OW92004  13.447   7.872   2.482
96724SOL    HW192005  13.494   7.892   2.563
96724SOL    HW292006  13.513   7.881   2.413
96725SOL     OW92007   0.656  14.688  12.788
96725SOL    HW192008   0.623  14.630  12.856
96725SOL    HW292009   0.638  14.642  12.706
96726SOL     OW92010   1.667   2.172  13.919
96726SOL    HW192011   1.640   2.090  13.961
96726SOL    HW292012   1.588   2.205  13.878
96727SOL     OW92013   8.501  10.380   7.093
96727SOL    HW192014   8.490  10.315   7.023
96727SOL    HW292015   8.443  10.452   7.068
96728SOL     OW92016  11.926  11.716   4.245
96728SOL    HW192017  11.861  11.775   4.283
96728SOL    HW292018  11.900  11.629   4.274
96729SOL     OW92019   7.834   3.335   8.078
96729SOL    HW192020   7.866   3.286   8.154
96729SOL    HW292021   7.913   3.373   8.039
96730SOL     OW92022   0.816  14.325  14.879
96730SOL    HW192023   0.860  14.393  14.827
96730SOL    HW292024   0.734  14.309  14.832
96731SOL     OW92025  12.619   5.587  13.804
96731SOL    HW192026  12.609   5.509  13.749
96731SOL    HW292027  12.555   5.649  13.770
96732SOL     OW92028  14.860   5.999  13.712
96732SOL    HW192029  14.779   5.982  13.665
96732SOL    HW292030  14.868   5.926  13.774
96733SOL     OW92031   5.180   1.471  12.878
96733SOL    HW192032   5.260   1.419  12.886
96733SOL    HW292033   5.114   1.410  12.847
96734SOL     OW92034  14.469   7.348   5.250
96734SOL    HW192035  14.563   7.360   5.240
96734SOL    HW292036  14.437   7.331   5.162
96735SOL     OW92037   8.085  10.009  11.889
96735SOL    HW192038   8.078  10.025  11.983
96735SOL    HW292039   7.995  10.017  11.857
96736SOL     OW92040   3.414  13.447   7.413
96736SOL    HW192041   3.361  13.524   7.433
96736SOL    HW292042   3.351  13.380   7.390
96737SOL     OW92043   8.250   2.650   8.904
96737SOL    HW192044   8.178   2.638   8.966
96737SOL    HW292045   8.210   2.634   8.818
96738SOL     OW92046   5.092   6.083  10.828
96738SOL    HW192047   5.083   5.997  10.868
96738SOL    HW292048   5.104   6.143  10.903
96739SOL     OW92049  12.030   7.207  11.868
96739SOL    HW192050  11.958   7.179  11.812
96739SOL    HW292051  12.094   7.137  11.862
96740SOL     OW92052   3.179  10.229  12.840
96740SOL    HW192053   3.098  10.184  12.866
96740SOL    HW292054   3.190  10.208  12.747
96741SOL     OW92055   7.561   4.856   8.995
96741SOL    HW192056   7.593   4.946   8.992
96741SOL    HW292057   7.639   4.802   8.982
96742SOL     OW92058   6.500   6.751   1.172
96742SOL    HW192059   6.595   6.753   1.168
96742SOL    HW292060   6.473   6.843   1.175
96743SOL     OW92061  14.135  13.506  14.298
96743SOL    HW192062  14.201  13.453  14.342
96743SOL    HW292063  14.052  13.463  14.317
96744SOL     OW92064   5.159   8.342   6.096
96744SOL    HW192065   5.094   8.287   6.053
96744SOL    HW292066   5.243   8.302   6.073
96745SOL     OW92067  13.772   3.304   1.678
96745SOL    HW192068  13.685   3.279   1.710
96745SOL    HW292069  13.759   3.390   1.639
96746SOL     OW92070   9.673   4.732   0.420
96746SOL    HW192071   9.689   4.728   0.325
96746SOL    HW292072   9.759   4.750   0.457
96747SOL     OW92073   6.829  10.539  12.236
96747SOL    HW192074   6.780  10.616  12.265
96747SOL    HW292075   6.762  10.474  12.217
96748SOL     OW92076  10.418   7.711   7.116
96748SOL    HW192077  10.400   7.723   7.023
96748SOL    HW292078  10.370   7.631   7.139
96749SOL     OW92079   9.312   9.312   3.959
96749SOL    HW192080   9.345   9.300   4.048
96749SOL    HW292081   9.330   9.403   3.939
96750SOL     OW92082   1.168  14.180   6.241
96750SOL    HW192083   1.117  14.132   6.176
96750SOL    HW292084   1.216  14.112   6.289
96751SOL     OW92085   6.149  12.345   6.617
96751SOL    HW192086   6.089  12.270   6.622
96751SOL    HW292087   6.146  12.371   6.525
96752SOL     OW92088  10.401   8.939  14.697
96752SOL    HW192089  10.371   9.009  14.755
96752SOL    HW292090  10.375   8.859  14.741
96753SOL     OW92091   6.356  10.024   9.832
96753SOL    HW192092   6.319  10.074   9.759
96753SOL    HW292093   6.385   9.942   9.793
96754SOL     OW92094   3.229   7.124   7.762
96754SOL    HW192095   3.141   7.113   7.727
96754SOL    HW292096   3.254   7.037   7.792
96755SOL     OW92097   7.434   7.400   0.811
96755SOL    HW192098   7.453   7.324   0.756
96755SOL    HW292099   7.494   7.392   0.885
96756SOL     OW92100   7.072   4.122   1.792
96756SOL    HW192101   7.038   4.067   1.721
96756SOL    HW292102   7.154   4.158   1.759
96757SOL     OW92103   3.625  13.254   6.361
96757SOL    HW192104   3.549  13.257   6.304
96757SOL    HW292105   3.698  13.278   6.305
96758SOL     OW92106  10.083  12.376   1.090
96758SOL    HW192107  10.173  12.344   1.088
96758SOL    HW292108  10.039  12.319   1.153
96759SOL     OW92109  14.334  12.115   8.291
96759SOL    HW192110  14.351  12.086   8.381
96759SOL    HW292111  14.253  12.165   8.297
96760SOL     OW92112   3.072   0.848  11.193
96760SOL    HW192113   3.052   0.902  11.270
96760SOL    HW292114   3.035   0.762  11.214
96761SOL     OW92115   0.034   5.705   0.866
96761SOL    HW192116   0.018   5.796   0.891
96761SOL    HW292117  14.827   5.673   0.839
96762SOL     OW92118   6.666  13.117  14.873
96762SOL    HW192119   6.579  13.153  14.860
96762SOL    HW292120   6.711  13.181   0.049
96763SOL     OW92121  10.956   5.557   9.347
96763SOL    HW192122  10.953   5.568   9.442
96763SOL    HW292123  10.896   5.485   9.330
96764SOL     OW92124   9.494   9.621   7.338
96764SOL    HW192125   9.513   9.698   7.392
96764SOL    HW292126   9.474   9.552   7.401
96765SOL     OW92127  12.691  14.458  12.715
96765SOL    HW192128  12.753  14.529  12.726
96765SOL    HW292129  12.633  14.465  12.791
96766SOL     OW92130   5.929   0.321  12.871
96766SOL    HW192131   5.878   0.391  12.912
96766SOL    HW292132   5.864   0.254  12.850
96767SOL     OW92133   1.245  10.100  13.109
96767SOL    HW192134   1.311  10.085  13.042
96767SOL    HW292135   1.178  10.154  13.066
96768SOL     OW92136   3.561   4.609  12.650
96768SOL    HW192137   3.527   4.690  12.614
96768SOL    HW292138   3.646   4.633  12.688
96769SOL     OW92139   7.385  14.488   2.263
96769SOL    HW192140   7.370  14.471   2.170
96769SOL    HW292141   7.373  14.403   2.305
96770SOL     OW92142   2.630  10.580   2.866
96770SOL    HW192143   2.588  10.657   2.904
96770SOL    HW292144   2.651  10.525   2.942
96771SOL     OW92145   6.451   3.327   4.779
96771SOL    HW192146   6.501   3.369   4.849
96771SOL    HW292147   6.518   3.296   4.718
96772SOL     OW92148   3.744   8.930   8.727
96772SOL    HW192149   3.701   8.968   8.803
96772SOL    HW292150   3.673   8.891   8.676
96773SOL     OW92151   3.462  12.945   8.994
96773SOL    HW192152   3.517  12.990   8.930
96773SOL    HW292153   3.381  12.996   8.995
96774SOL     OW92154   1.356  12.666  11.418
96774SOL    HW192155   1.284  12.613  11.454
96774SOL    HW292156   1.315  12.749  11.395
96775SOL     OW92157   8.747  12.861   3.980
96775SOL    HW192158   8.680  12.864   3.911
96775SOL    HW292159   8.700  12.829   4.057
96776SOL     OW92160  11.391   9.067   0.789
96776SOL    HW192161  11.435   9.012   0.853
96776SOL    HW292162  11.460   9.095   0.730
96777SOL     OW92163   2.963  11.509   4.048
96777SOL    HW192164   2.901  11.574   4.015
96777SOL    HW292165   2.919  11.425   4.035
96778SOL     OW92166   4.330  14.826   3.253
96778SOL    HW192167   4.325  14.765   3.179
96778SOL    HW292168   4.243  14.866   3.257
96779SOL     OW92169   2.120  11.041  11.849
96779SOL    HW192170   2.155  11.128  11.828
96779SOL    HW292171   2.036  11.058  11.891
96780SOL     OW92172   2.866  14.021   6.302
96780SOL    HW192173   2.879  14.006   6.208
96780SOL    HW292174   2.934  13.968   6.344
96781SOL     OW92175   2.362   7.845   4.391
96781SOL    HW192176   2.398   7.777   4.334
96781SOL    HW292177   2.417   7.841   4.470
96782SOL     OW92178   5.320   1.548   7.997
96782SOL    HW192179   5.385   1.480   7.979
96782SOL    HW292180   5.368   1.630   7.988
96783SOL     OW92181   0.772   0.217  13.323
96783SOL    HW192182   0.727   0.144  13.281
96783SOL    HW292183   0.744   0.214  13.414
96784SOL     OW92184  11.379   0.573  12.484
96784SOL    HW192185  11.472   0.552  12.498
96784SOL    HW292186  11.352   0.613  12.567
96785SOL     OW92187   3.624  13.229   4.992
96785SOL    HW192188   3.546  13.284   5.000
96785SOL    HW292189   3.690  13.284   4.950
96786SOL     OW92190  10.834   8.350   7.252
96786SOL    HW192191  10.764   8.359   7.317
96786SOL    HW292192  10.789   8.356   7.167
96787SOL     OW92193   5.027  14.400   2.225
96787SOL    HW192194   5.074  14.321   2.196
96787SOL    HW292195   5.086  14.472   2.203
96788SOL     OW92196  14.015   3.763  12.113
96788SOL    HW192197  13.959   3.706  12.060
96788SOL    HW292198  14.043   3.833  12.053
96789SOL     OW92199  14.715  14.236   3.387
96789SOL    HW192200  14.668  14.244   3.470
96789SOL    HW292201  14.721  14.325   3.353
96790SOL     OW92202   7.426  11.527   9.174
96790SOL    HW192203   7.383  11.606   9.208
96790SOL    HW292204   7.382  11.455   9.218
96791SOL     OW92205   7.486  10.379   5.381
96791SOL    HW192206   7.549  10.345   5.318
96791SOL    HW292207   7.513  10.469   5.396
96792SOL     OW92208   8.952   1.380  11.883
96792SOL    HW192209   8.902   1.435  11.944
96792SOL    HW292210   8.948   1.292  11.921
96793SOL     OW92211   2.591   7.946  14.155
96793SOL    HW192212   2.531   7.878  14.184
96793SOL    HW292213   2.631   7.979  14.235
96794SOL     OW92214  13.486   0.814  12.227
96794SOL    HW192215  13.414   0.850  12.279
96794SOL    HW292216  13.479   0.858  12.142
96795SOL     OW92217   6.362  13.734   7.037
96795SOL    HW192218   6.296  13.770   6.977
96795SOL    HW292219   6.329  13.648   7.060
96796SOL     OW92220   3.290   0.316   1.271
96796SOL    HW192221   3.238   0.349   1.344
96796SOL    HW292222   3.317   0.228   1.298
96797SOL     OW92223   0.369  10.077   2.149
96797SOL    HW192224   0.457  10.043   2.165
96797SOL    HW292225   0.382  10.168   2.121
96798SOL     OW92226   5.405   2.547   0.791
96798SOL    HW192227   5.310   2.544   0.791
96798SOL    HW292228   5.427   2.619   0.850
96799SOL     OW92229  12.479  14.857   7.076
96799SOL    HW192230  12.473  14.869   6.981
96799SOL    HW292231  12.567  14.824   7.091
96800SOL     OW92232  10.838   2.594   0.795
96800SOL    HW192233  10.753   2.572   0.834
96800SOL    HW292234  10.900   2.534   0.836
96801SOL     OW92235   3.755  10.457   3.615
96801SOL    HW192236   3.686  10.442   3.680
96801SOL    HW292237   3.714  10.435   3.531
96802SOL     OW92238   9.352  14.389   6.572
96802SOL    HW192239   9.332  14.470   6.526
96802SOL    HW292240   9.280  14.330   6.551
96803SOL     OW92241   9.012   8.376   0.969
96803SOL    HW192242   8.984   8.454   0.920
96803SOL    HW292243   9.078   8.409   1.030
96804SOL     OW92244   7.395   5.340   6.240
96804SOL    HW192245   7.361   5.378   6.159
96804SOL    HW292246   7.382   5.409   6.305
96805SOL     OW92247   7.921  11.223  12.744
96805SOL    HW192248   7.986  11.292  12.742
96805SOL    HW292249   7.963  11.150  12.790
96806SOL     OW92250   3.392  11.126   7.605
96806SOL    HW192251   3.470  11.075   7.582
96806SOL    HW292252   3.418  11.217   7.593
96807SOL     OW92253   1.147  14.370  10.859
96807SOL    HW192254   1.089  14.420  10.917
96807SOL    HW292255   1.180  14.299  10.914
96808SOL     OW92256   9.781   6.822   1.358
96808SOL    HW192257   9.833   6.822   1.278
96808SOL    HW292258   9.782   6.913   1.388
96809SOL     OW92259   7.660  12.248   5.804
96809SOL    HW192260   7.748  12.276   5.827
96809SOL    HW292261   7.658  12.251   5.708
96810SOL     OW92262   2.580   9.282   0.389
96810SOL    HW192263   2.517   9.330   0.336
96810SOL    HW292264   2.655   9.269   0.331
96811SOL     OW92265   5.785  13.963   5.700
96811SOL    HW192266   5.694  13.945   5.675
96811SOL    HW292267   5.804  14.049   5.663
96812SOL     OW92268  10.732   5.230   3.780
96812SOL    HW192269  10.645   5.229   3.820
96812SOL    HW292270  10.786   5.279   3.842
96813SOL     OW92271   3.630   9.991   4.154
96813SOL    HW192272   3.726   9.990   4.151
96813SOL    HW292273   3.605   9.899   4.147
96814SOL     OW92274  14.305   8.310   5.790
96814SOL    HW192275  14.227   8.300   5.736
96814SOL    HW292276  14.289   8.254   5.866
96815SOL     OW92277   5.626   0.208   6.518
96815SOL    HW192278   5.559   0.258   6.471
96815SOL    HW292279   5.708   0.235   6.478
96816SOL     OW92280   5.018   5.365   8.039
96816SOL    HW192281   5.088   5.320   8.087
96816SOL    HW292282   4.965   5.294   8.002
96817SOL     OW92283  11.661   8.663  12.671
96817SOL    HW192284  11.629   8.575  12.693
96817SOL    HW292285  11.675   8.661  12.577
96818SOL     OW92286   5.443  13.998   1.293
96818SOL    HW192287   5.402  13.987   1.208
96818SOL    HW292288   5.536  14.007   1.274
96819SOL     OW92289   3.090   3.417   6.467
96819SOL    HW192290   3.011   3.471   6.469
96819SOL    HW292291   3.064   3.338   6.419
96820SOL     OW92292   8.610   8.033  12.722
96820SOL    HW192293   8.594   8.012  12.814
96820SOL    HW292294   8.523   8.041  12.683
96821SOL     OW92295  12.069   5.899  11.168
96821SOL    HW192296  12.027   5.835  11.225
96821SOL    HW292297  12.148   5.855  11.136
96822SOL     OW92298   7.100   0.432   2.450
96822SOL    HW192299   7.023   0.408   2.502
96822SOL    HW292300   7.175   0.411   2.506
96823SOL     OW92301   4.790  12.244  14.792
96823SOL    HW192302   4.827  12.329  14.815
96823SOL    HW292303   4.848  12.180  14.835
96824SOL     OW92304   3.300   3.498   1.940
96824SOL    HW192305   3.344   3.583   1.929
96824SOL    HW292306   3.226   3.502   1.879
96825SOL     OW92307  12.773   7.093   7.365
96825SOL    HW192308  12.783   7.003   7.333
96825SOL    HW292309  12.731   7.140   7.293
96826SOL     OW92310   5.200  13.855  10.322
96826SOL    HW192311   5.172  13.876  10.232
96826SOL    HW292312   5.293  13.876  10.323
96827SOL     OW92313  11.077   6.358   1.861
96827SOL    HW192314  11.142   6.414   1.903
96827SOL    HW292315  10.996   6.372   1.911
96828SOL     OW92316  11.386   0.812  14.658
96828SOL    HW192317  11.403   0.902  14.688
96828SOL    HW292318  11.447   0.758  14.708
96829SOL     OW92319   4.748  13.237   3.097
96829SOL    HW192320   4.691  13.213   3.023
96829SOL    HW292321   4.809  13.300   3.061
96830SOL     OW92322   1.096   4.019   1.544
96830SOL    HW192323   1.189   4.031   1.527
96830SOL    HW292324   1.088   3.928   1.572
96831SOL     OW92325   0.935  11.567   1.549
96831SOL    HW192326   0.999  11.569   1.478
96831SOL    HW292327   0.917  11.474   1.564
96832SOL     OW92328   3.831   0.853  14.653
96832SOL    HW192329   3.786   0.937  14.645
96832SOL    HW292330   3.921   0.871  14.628
96833SOL     OW92331  13.971   1.150   2.552
96833SOL    HW192332  13.978   1.202   2.632
96833SOL    HW292333  14.024   1.072   2.570
96834SOL     OW92334  11.600   8.868  10.670
96834SOL    HW192335  11.666   8.822  10.722
96834SOL    HW292336  11.520   8.860  10.721
96835SOL     OW92337   1.573   8.824   0.651
96835SOL    HW192338   1.657   8.782   0.634
96835SOL    HW292339   1.522   8.759   0.698
96836SOL     OW92340  10.893   7.159   4.023
96836SOL    HW192341  10.950   7.190   3.952
96836SOL    HW292342  10.888   7.232   4.084
96837SOL     OW92343  10.530  12.281   5.982
96837SOL    HW192344  10.441  12.247   5.974
96837SOL    HW292345  10.557  12.256   6.071
96838SOL     OW92346  12.721   7.074   6.226
96838SOL    HW192347  12.720   7.050   6.319
96838SOL    HW292348  12.648   7.134   6.216
96839SOL     OW92349  12.095  14.088  13.022
96839SOL    HW192350  12.176  14.079  13.072
96839SOL    HW292351  12.100  14.175  12.983
96840SOL     OW92352   0.712   2.520   3.426
96840SOL    HW192353   0.697   2.589   3.360
96840SOL    HW292354   0.769   2.457   3.382
96841SOL     OW92355   3.888  13.661  11.355
96841SOL    HW192356   3.960  13.691  11.410
96841SOL    HW292357   3.930  13.620  11.280
96842SOL     OW92358   7.971   5.022  11.234
96842SOL    HW192359   8.066   5.033  11.231
96842SOL    HW292360   7.958   4.928  11.248
96843SOL     OW92361   9.290   1.441   8.754
96843SOL    HW192362   9.311   1.416   8.664
96843SOL    HW292363   9.260   1.532   8.747
96844SOL     OW92364   0.737   4.461   5.202
96844SOL    HW192365   0.831   4.462   5.181
96844SOL    HW292366   0.734   4.478   5.296
96845SOL     OW92367   1.854   3.280  13.375
96845SOL    HW192368   1.911   3.305  13.303
96845SOL    HW292369   1.766   3.305  13.345
96846SOL     OW92370  11.309  13.043   7.822
96846SOL    HW192371  11.262  13.116   7.781
96846SOL    HW292372  11.281  13.043   7.913
96847SOL     OW92373   5.088   7.230   8.517
96847SOL    HW192374   5.067   7.197   8.604
96847SOL    HW292375   5.135   7.311   8.533
96848SOL     OW92376   2.138  13.907   0.668
96848SOL    HW192377   2.111  13.897   0.577
96848SOL    HW292378   2.139  14.002   0.683
96849SOL     OW92379   5.478  13.449   5.399
96849SOL    HW192380   5.384  13.435   5.406
96849SOL    HW292381   5.503  13.490   5.482
96850SOL     OW92382  11.107   3.835  14.429
96850SOL    HW192383  11.165   3.858  14.356
96850SOL    HW292384  11.157   3.855  14.507
96851SOL     OW92385   8.235   3.849  13.016
96851SOL    HW192386   8.144   3.819  13.017
96851SOL    HW292387   8.241   3.905  12.939
96852SOL     OW92388   5.429  10.976   3.219
96852SOL    HW192389   5.504  11.032   3.200
96852SOL    HW292390   5.463  10.887   3.210
96853SOL     OW92391   8.196   3.669   4.502
96853SOL    HW192392   8.173   3.605   4.569
96853SOL    HW292393   8.143   3.644   4.426
96854SOL     OW92394  10.910   5.427   7.857
96854SOL    HW192395  10.921   5.332   7.854
96854SOL    HW292396  10.843   5.446   7.792
96855SOL     OW92397  11.379  12.813   6.238
96855SOL    HW192398  11.469  12.792   6.266
96855SOL    HW292399  11.338  12.728   6.224
96856SOL     OW92400  10.705  13.710   6.970
96856SOL    HW192401  10.654  13.645   6.921
96856SOL    HW292402  10.649  13.734   7.044
96857SOL     OW92403  10.730   0.366   1.806
96857SOL    HW192404  10.680   0.348   1.886
96857SOL    HW292405  10.696   0.304   1.741
96858SOL     OW92406   0.926   8.546   3.600
96858SOL    HW192407   1.017   8.537   3.572
96858SOL    HW292408   0.931   8.582   3.688
96859SOL     OW92409   5.365  11.471  13.434
96859SOL    HW192410   5.284  11.454  13.482
96859SOL    HW292411   5.372  11.566  13.431
96860SOL     OW92412   5.789   7.544  13.886
96860SOL    HW192413   5.778   7.579  13.798
96860SOL    HW292414   5.832   7.459  13.874
96861SOL     OW92415   0.842   1.915   9.957
96861SOL    HW192416   0.792   1.931  10.037
96861SOL    HW292417   0.913   1.979   9.960
96862SOL     OW92418   5.538  14.742  11.990
96862SOL    HW192419   5.599  14.673  11.966
96862SOL    HW292420   5.548  14.752  12.085
96863SOL     OW92421   8.465   8.166  10.020
96863SOL    HW192422   8.504   8.135  10.102
96863SOL    HW292423   8.463   8.089   9.963
96864SOL     OW92424   2.855   9.796   3.438
96864SOL    HW192425   2.833   9.889   3.429
96864SOL    HW292426   2.946   9.790   3.410
96865SOL     OW92427   0.260  12.032   7.007
96865SOL    HW192428   0.218  11.949   7.031
96865SOL    HW292429   0.238  12.044   6.915
96866SOL     OW92430   2.571  13.105  10.996
96866SOL    HW192431   2.613  13.068  11.073
96866SOL    HW292432   2.556  13.197  11.017
96867SOL     OW92433   0.465   9.448   3.990
96867SOL    HW192434   0.376   9.413   3.982
96867SOL    HW292435   0.506   9.429   3.906
96868SOL     OW92436   6.465   8.126   3.349
96868SOL    HW192437   6.481   8.126   3.254
96868SOL    HW292438   6.552   8.117   3.388
96869SOL     OW92439   2.325   0.919   6.890
96869SOL    HW192440   2.420   0.913   6.895
96869SOL    HW292441   2.300   0.959   6.973
96870SOL     OW92442  11.213   1.412   5.706
96870SOL    HW192443  11.276   1.378   5.642
96870SOL    HW292444  11.190   1.337   5.759
96871SOL     OW92445   8.915   0.949   9.057
96871SOL    HW192446   8.933   1.007   8.984
96871SOL    HW292447   8.860   0.879   9.021
96872SOL     OW92448   2.610   5.034   5.443
96872SOL    HW192449   2.534   5.001   5.491
96872SOL    HW292450   2.604   5.129   5.451
96873SOL     OW92451   5.063  12.082   7.199
96873SOL    HW192452   5.063  12.027   7.120
96873SOL    HW292453   5.038  12.022   7.269
96874SOL     OW92454  14.657   0.850  13.362
96874SOL    HW192455  14.729   0.895  13.317
96874SOL    HW292456  14.690   0.762  13.377
96875SOL     OW92457  10.519   5.694   4.242
96875SOL    HW192458  10.466   5.634   4.189
96875SOL    HW292459  10.608   5.682   4.210
96876SOL     OW92460   7.724   2.503  12.343
96876SOL    HW192461   7.748   2.412  12.359
96876SOL    HW292462   7.665   2.500  12.268
96877SOL     OW92463   1.484   4.927   0.886
96877SOL    HW192464   1.408   4.986   0.888
96877SOL    HW292465   1.554   4.979   0.846
96878SOL     OW92466   1.307   5.187   0.042
96878SOL    HW192467   1.245   5.132   0.089
96878SOL    HW292468   1.294   5.165  14.829
96879SOL     OW92469   6.700  13.493  10.500
96879SOL    HW192470   6.757  13.416  10.506
96879SOL    HW292471   6.709  13.524  10.410
96880SOL     OW92472  13.189   2.138  14.721
96880SOL    HW192473  13.249   2.066  14.700
96880SOL    HW292474  13.197   2.150  14.815
96881SOL     OW92475   6.411  14.572   1.536
96881SOL    HW192476   6.410  14.515   1.459
96881SOL    HW292477   6.452  14.653   1.505
96882SOL     OW92478   6.099   6.059   9.756
96882SOL    HW192479   6.141   5.973   9.747
96882SOL    HW292480   6.144   6.114   9.692
96883SOL     OW92481   8.320   1.262  12.859
96883SOL    HW192482   8.238   1.235  12.899
96883SOL    HW292483   8.295   1.321  12.788
96884SOL     OW92484   1.753   1.502   3.784
96884SOL    HW192485   1.710   1.588   3.779
96884SOL    HW292486   1.717   1.462   3.863
96885SOL     OW92487  12.564   1.940  14.292
96885SOL    HW192488  12.575   1.912  14.201
96885SOL    HW292489  12.640   1.906  14.337
96886SOL     OW92490   8.736  10.947   9.287
96886SOL    HW192491   8.752  10.974   9.197
96886SOL    HW292492   8.727  10.852   9.283
96887SOL     OW92493  14.275   9.087   0.884
96887SOL    HW192494  14.340   9.061   0.949
96887SOL    HW292495  14.317   9.070   0.800
96888SOL     OW92496   6.680   2.721  13.306
96888SOL    HW192497   6.663   2.764  13.390
96888SOL    HW292498   6.739   2.648  13.328
96889SOL     OW92499   5.134   7.746   5.692
96889SOL    HW192500   5.143   7.651   5.688
96889SOL    HW292501   5.223   7.779   5.700
96890SOL     OW92502   4.238   5.349  11.457
96890SOL    HW192503   4.163   5.291  11.446
96890SOL    HW292504   4.309   5.306  11.409
96891SOL     OW92505  14.021  11.013   6.955
96891SOL    HW192506  14.048  10.921   6.958
96891SOL    HW292507  13.946  11.018   7.013
96892SOL     OW92508  11.692   3.988  13.165
96892SOL    HW192509  11.725   4.019  13.249
96892SOL    HW292510  11.754   4.022  13.101
96893SOL     OW92511  10.597  10.250  14.715
96893SOL    HW192512  10.690  10.270  14.700
96893SOL    HW292513  10.594  10.154  14.718
96894SOL     OW92514   3.368   8.933   1.929
96894SOL    HW192515   3.445   8.976   1.891
96894SOL    HW292516   3.394   8.841   1.937
96895SOL     OW92517   7.956   7.404   7.299
96895SOL    HW192518   8.014   7.472   7.332
96895SOL    HW292519   7.912   7.370   7.377
96896SOL     OW92520   1.739   4.137   6.151
96896SOL    HW192521   1.731   4.122   6.057
96896SOL    HW292522   1.666   4.193   6.174
96897SOL     OW92523  12.367   3.149  13.067
96897SOL    HW192524  12.294   3.203  13.099
96897SOL    HW292525  12.324   3.076  13.022
96898SOL     OW92526   6.321  10.222   2.206
96898SOL    HW192527   6.286  10.133   2.213
96898SOL    HW292528   6.402  10.212   2.155
96899SOL     OW92529  12.191   9.617   2.171
96899SOL    HW192530  12.216   9.710   2.178
96899SOL    HW292531  12.269   9.570   2.201
96900SOL     OW92532   4.718   6.876  10.757
96900SOL    HW192533   4.687   6.926  10.833
96900SOL    HW292534   4.655   6.896  10.688
96901SOL     OW92535   2.228   9.538   0.224
96901SOL    HW192536   2.209   9.580   0.140
96901SOL    HW292537   2.313   9.495   0.210
96902SOL     OW92538  12.306  13.056   2.016
96902SOL    HW192539  12.307  13.061   2.112
96902SOL    HW292540  12.366  13.125   1.987
96903SOL     OW92541   1.168   1.568  14.476
96903SOL    HW192542   1.099   1.635  14.478
96903SOL    HW292543   1.139   1.503  14.541
96904SOL     OW92544   8.075  13.406   0.338
96904SOL    HW192545   8.043  13.430   0.425
96904SOL    HW292546   8.154  13.459   0.326
96905SOL     OW92547  10.430   1.937   4.375
96905SOL    HW192548  10.363   1.872   4.393
96905SOL    HW292549  10.381   2.018   4.359
96906SOL     OW92550   8.817   6.080  11.474
96906SOL    HW192551   8.834   6.121  11.559
96906SOL    HW292552   8.742   6.023  11.490
96907SOL     OW92553  13.344   0.798   7.715
96907SOL    HW192554  13.334   0.865   7.647
96907SOL    HW292555  13.438   0.780   7.717
96908SOL     OW92556   5.162   7.811   3.473
96908SOL    HW192557   5.120   7.741   3.423
96908SOL    HW292558   5.141   7.891   3.425
96909SOL     OW92559  12.917   8.074   8.049
96909SOL    HW192560  12.841   8.037   8.094
96909SOL    HW292561  12.992   8.027   8.085
96910SOL     OW92562   5.100   3.979   9.276
96910SOL    HW192563   5.129   4.018   9.194
96910SOL    HW292564   5.072   3.890   9.252
96911SOL     OW92565   4.654   7.216  12.695
96911SOL    HW192566   4.590   7.287  12.689
96911SOL    HW292567   4.653   7.176  12.608
96912SOL     OW92568   4.492  10.781   4.541
96912SOL    HW192569   4.497  10.857   4.483
96912SOL    HW292570   4.462  10.816   4.625
96913SOL     OW92571   1.077   8.349   5.263
96913SOL    HW192572   1.098   8.370   5.353
96913SOL    HW292573   1.154   8.303   5.230
96914SOL     OW92574  11.070  11.560   1.027
96914SOL    HW192575  10.976  11.546   1.012
96914SOL    HW292576  11.075  11.647   1.067
96915SOL     OW92577  12.514   9.485   1.352
96915SOL    HW192578  12.428   9.487   1.311
96915SOL    HW292579  12.519   9.399   1.394
96916SOL     OW92580  11.712  14.369   1.414
96916SOL    HW192581  11.767  14.297   1.442
96916SOL    HW292582  11.710  14.362   1.318
96917SOL     OW92583  10.955   2.499   8.217
96917SOL    HW192584  10.974   2.588   8.248
96917SOL    HW292585  10.966   2.504   8.122
96918SOL     OW92586   6.142   8.386   2.388
96918SOL    HW192587   6.197   8.407   2.312
96918SOL    HW292588   6.143   8.466   2.441
96919SOL     OW92589   9.696   1.935   3.967
96919SOL    HW192590   9.673   1.984   3.888
96919SOL    HW292591   9.709   1.845   3.937
96920SOL     OW92592   9.016  10.902  14.362
96920SOL    HW192593   8.956  10.856  14.304
96920SOL    HW292594   9.031  10.842  14.435
96921SOL     OW92595   4.783   6.397   8.055
96921SOL    HW192596   4.772   6.476   8.107
96921SOL    HW292597   4.700   6.387   8.008
96922SOL     OW92598   2.004   6.040   5.932
96922SOL    HW192599   1.957   6.061   5.852
96922SOL    HW292600   1.963   5.959   5.964
96923SOL     OW92601   8.078   1.823  10.615
96923SOL    HW192602   8.029   1.904  10.632
96923SOL    HW292603   8.090   1.784  10.701
96924SOL     OW92604  14.161   2.383   4.584
96924SOL    HW192605  14.242   2.434   4.582
96924SOL    HW292606  14.120   2.406   4.668
96925SOL     OW92607   1.526   6.151   3.723
96925SOL    HW192608   1.440   6.194   3.726
96925SOL    HW292609   1.579   6.208   3.666
96926SOL     OW92610   3.552   7.894  11.620
96926SOL    HW192611   3.500   7.928  11.692
96926SOL    HW292612   3.532   7.952  11.546
96927SOL     OW92613  11.449   9.766  10.219
96927SOL    HW192614  11.497   9.686  10.238
96927SOL    HW292615  11.406   9.748  10.135
96928SOL     OW92616  13.719  11.946  13.181
96928SOL    HW192617  13.726  11.945  13.086
96928SOL    HW292618  13.737  12.036  13.206
96929SOL     OW92619   4.182   9.987  12.635
96929SOL    HW192620   4.229  10.014  12.555
96929SOL    HW292621   4.090   9.998  12.613
96930SOL     OW92622  13.273   8.963   7.363
96930SOL    HW192623  13.335   8.932   7.296
96930SOL    HW292624  13.270   8.892   7.427
96931SOL     OW92625   5.096   3.975  12.433
96931SOL    HW192626   5.110   3.980  12.528
96931SOL    HW292627   5.059   3.888  12.419
96932SOL     OW92628   0.669   2.908   7.148
96932SOL    HW192629   0.675   2.968   7.074
96932SOL    HW292630   0.759   2.877   7.161
96933SOL     OW92631   0.525   3.733   0.504
96933SOL    HW192632   0.476   3.782   0.570
96933SOL    HW292633   0.556   3.655   0.551
96934SOL     OW92634  12.375   4.224   9.406
96934SOL    HW192635  12.422   4.290   9.354
96934SOL    HW292636  12.308   4.274   9.452
96935SOL     OW92637   7.730   9.862   0.674
96935SOL    HW192638   7.734   9.879   0.580
96935SOL    HW292639   7.817   9.827   0.695
96936SOL     OW92640   1.555   3.560  13.364
96936SOL    HW192641   1.585   3.499  13.296
96936SOL    HW292642   1.495   3.619  13.318
96937SOL     OW92643   8.720   2.871  12.513
96937SOL    HW192644   8.772   2.949  12.530
96937SOL    HW292645   8.745   2.809  12.582
96938SOL     OW92646   5.573  10.482   9.933
96938SOL    HW192647   5.587  10.550   9.866
96938SOL    HW292648   5.661  10.461   9.964
96939SOL     OW92649   0.402   6.887  11.207
96939SOL    HW192650   0.341   6.911  11.137
96939SOL    HW292651   0.470   6.954  11.205
96940SOL     OW92652   3.151  10.961   8.959
96940SOL    HW192653   3.132  10.925   9.046
96940SOL    HW292654   3.121  10.893   8.898
96941SOL     OW92655   1.401   1.766   5.854
96941SOL    HW192656   1.394   1.834   5.787
96941SOL    HW292657   1.314   1.761   5.893
96942SOL     OW92658   3.246  12.431   6.787
96942SOL    HW192659   3.215  12.459   6.701
96942SOL    HW292660   3.297  12.352   6.770
96943SOL     OW92661   6.377   8.048  10.209
96943SOL    HW192662   6.332   8.105  10.272
96943SOL    HW292663   6.460   8.093  10.192
96944SOL     OW92664   7.068   8.809  11.906
96944SOL    HW192665   7.134   8.814  11.976
96944SOL    HW292666   7.009   8.739  11.934
96945SOL     OW92667   0.468   1.838  11.817
96945SOL    HW192668   0.386   1.791  11.835
96945SOL    HW292669   0.496   1.807  11.732
96946SOL     OW92670   6.195  12.987   7.046
96946SOL    HW192671   6.104  12.962   7.061
96946SOL    HW292672   6.209  12.974   6.953
96947SOL     OW92673   5.807   3.980   2.387
96947SOL    HW192674   5.853   4.009   2.466
96947SOL    HW292675   5.851   4.027   2.316
96948SOL     OW92676  11.837   1.260   7.886
96948SOL    HW192677  11.820   1.268   7.792
96948SOL    HW292678  11.751   1.272   7.927
96949SOL     OW92679  14.041  14.609   9.459
96949SOL    HW192680  14.119  14.617   9.405
96949SOL    HW292681  14.074  14.580   9.544
96950SOL     OW92682   3.187  10.367   8.458
96950SOL    HW192683   3.221  10.392   8.372
96950SOL    HW292684   3.240  10.292   8.484
96951SOL     OW92685  11.153  14.345   4.525
96951SOL    HW192686  11.164  14.308   4.437
96951SOL    HW292687  11.138  14.269   4.581
96952SOL     OW92688   3.818   5.602  14.218
96952SOL    HW192689   3.781   5.542  14.153
96952SOL    HW292690   3.772   5.685  14.204
96953SOL     OW92691   6.691  11.883   7.759
96953SOL    HW192692   6.763  11.908   7.817
96953SOL    HW292693   6.687  11.954   7.695
96954SOL     OW92694  10.348   0.975   1.132
96954SOL    HW192695  10.377   0.888   1.160
96954SOL    HW292696  10.372   0.979   1.040
96955SOL     OW92697  10.878   3.463   3.250
96955SOL    HW192698  10.954   3.447   3.194
96955SOL    HW292699  10.848   3.376   3.276
96956SOL     OW92700   5.306   4.420   1.359
96956SOL    HW192701   5.320   4.337   1.403
96956SOL    HW292702   5.391   4.441   1.319
96957SOL     OW92703   8.063   6.506  12.927
96957SOL    HW192704   8.120   6.449  12.876
96957SOL    HW292705   8.104   6.510  13.013
96958SOL     OW92706   4.786   1.225   6.408
96958SOL    HW192707   4.771   1.304   6.459
96958SOL    HW292708   4.782   1.153   6.471
96959SOL     OW92709  14.344   6.317  12.236
96959SOL    HW192710  14.353   6.411  12.225
96959SOL    HW292711  14.348   6.283  12.146
96960SOL     OW92712   1.417   7.164   3.042
96960SOL    HW192713   1.341   7.158   3.099
96960SOL    HW292714   1.413   7.085   2.988
96961SOL     OW92715  13.553  12.078   1.740
96961SOL    HW192716  13.532  12.011   1.675
96961SOL    HW292717  13.468  12.101   1.779
96962SOL     OW92718   1.409   0.478   6.305
96962SOL    HW192719   1.435   0.421   6.233
96962SOL    HW292720   1.456   0.444   6.381
96963SOL     OW92721  14.564   7.212  13.561
96963SOL    HW192722  14.649   7.188  13.597
96963SOL    HW292723  14.532   7.131  13.520
96964SOL     OW92724   6.212   6.008   0.031
96964SOL    HW192725   6.288   6.003  14.852
96964SOL    HW292726   6.247   5.989   0.118
96965SOL     OW92727   0.926   8.221  12.837
96965SOL    HW192728   0.893   8.146  12.887
96965SOL    HW292729   0.859   8.237  12.771
96966SOL     OW92730  10.302   3.889   1.791
96966SOL    HW192731  10.253   3.952   1.844
96966SOL    HW292732  10.268   3.900   1.702
96967SOL     OW92733  12.389   2.754  13.367
96967SOL    HW192734  12.365   2.843  13.340
96967SOL    HW292735  12.485   2.753  13.363
96968SOL     OW92736   6.042   6.024  13.663
96968SOL    HW192737   6.001   6.060  13.584
96968SOL    HW292738   6.133   6.054  13.658
96969SOL     OW92739   7.834   2.165   6.031
96969SOL    HW192740   7.891   2.220   5.977
96969SOL    HW292741   7.834   2.080   5.987
96970SOL     OW92742  10.015   6.205   7.536
96970SOL    HW192743   9.982   6.212   7.626
96970SOL    HW292744   9.982   6.121   7.505
96971SOL     OW92745   7.108   9.945   0.501
96971SOL    HW192746   7.112   9.925   0.595
96971SOL    HW292747   7.029   9.998   0.491
96972SOL     OW92748   7.597  12.382  14.301
96972SOL    HW192749   7.692  12.369  14.306
96972SOL    HW292750   7.586  12.456  14.241
96973SOL     OW92751   3.158   9.341  14.859
96973SOL    HW192752   3.216   9.353   0.056
96973SOL    HW292753   3.072   9.366   0.012
96974SOL     OW92754   1.499   8.372   1.650
96974SOL    HW192755   1.437   8.319   1.600
96974SOL    HW292756   1.519   8.318   1.727
96975SOL     OW92757   5.220  12.528   4.691
96975SOL    HW192758   5.189  12.511   4.780
96975SOL    HW292759   5.262  12.615   4.697
96976SOL     OW92760  12.978   2.964   4.095
96976SOL    HW192761  12.972   2.871   4.075
96976SOL    HW292762  12.997   3.006   4.011
96977SOL     OW92763   5.953  14.004  12.808
96977SOL    HW192764   5.978  13.925  12.855
96977SOL    HW292765   6.036  14.047  12.787
96978SOL     OW92766   2.632   3.599   9.173
96978SOL    HW192767   2.588   3.623   9.255
96978SOL    HW292768   2.642   3.504   9.177
96979SOL     OW92769   3.670   0.567   0.145
96979SOL    HW192770   3.660   0.572   0.050
96979SOL    HW292771   3.584   0.542   0.178
96980SOL     OW92772   5.347  14.564   8.767
96980SOL    HW192773   5.424  14.614   8.739
96980SOL    HW292774   5.273  14.616   8.738
96981SOL     OW92775  14.002  11.797   9.265
96981SOL    HW192776  13.936  11.816   9.332
96981SOL    HW292777  13.986  11.705   9.242
96982SOL     OW92778   9.001   1.158  11.342
96982SOL    HW192779   8.909   1.138  11.325
96982SOL    HW292780   9.012   1.143  11.436
96983SOL     OW92781  12.079  14.513   0.842
96983SOL    HW192782  12.175  14.515   0.846
96983SOL    HW292783  12.059  14.461   0.764
96984SOL     OW92784  10.707   6.585  14.423
96984SOL    HW192785  10.660   6.625  14.349
96984SOL    HW292786  10.641   6.532  14.467
96985SOL     OW92787   3.542  12.276  13.301
96985SOL    HW192788   3.467  12.329  13.274
96985SOL    HW292789   3.583  12.327  13.371
96986SOL     OW92790   0.597  11.483  12.297
96986SOL    HW192791   0.688  11.456  12.286
96986SOL    HW292792   0.548  11.401  12.298
96987SOL     OW92793   4.159   5.132   5.232
96987SOL    HW192794   4.106   5.183   5.293
96987SOL    HW292795   4.156   5.043   5.266
96988SOL     OW92796   2.531   3.507  14.480
96988SOL    HW192797   2.570   3.434  14.431
96988SOL    HW292798   2.457   3.468  14.526
96989SOL     OW92799   7.088  12.567  13.879
96989SOL    HW192800   7.166  12.531  13.837
96989SOL    HW292801   7.115  12.585  13.969
96990SOL     OW92802  11.449  11.272   9.135
96990SOL    HW192803  11.398  11.308   9.062
96990SOL    HW292804  11.440  11.336   9.205
96991SOL     OW92805   0.507  13.368   8.943
96991SOL    HW192806   0.560  13.292   8.968
96991SOL    HW292807   0.448  13.382   9.017
96992SOL     OW92808   2.071  14.657   9.385
96992SOL    HW192809   2.057  14.657   9.480
96992SOL    HW292810   2.062  14.749   9.359
96993SOL     OW92811  12.139  10.261  12.546
96993SOL    HW192812  12.104  10.172  12.538
96993SOL    HW292813  12.061  10.316  12.558
96994SOL     OW92814   3.127  11.102   9.332
96994SOL    HW192815   3.088  11.033   9.279
96994SOL    HW292816   3.214  11.115   9.296
96995SOL     OW92817   8.297   1.702   0.071
96995SOL    HW192818   8.378   1.726   0.116
96995SOL    HW292819   8.237   1.677   0.141
96996SOL     OW92820  14.097   3.547   6.004
96996SOL    HW192821  14.042   3.614   6.045
96996SOL    HW292822  14.067   3.543   5.913
96997SOL     OW92823   1.610  14.816  12.290
96997SOL    HW192824   1.592  14.724  12.306
96997SOL    HW292825   1.527  14.852  12.260
96998SOL     OW92826  10.612   5.253  12.443
96998SOL    HW192827  10.684   5.190  12.442
96998SOL    HW292828  10.568   5.242  12.358
96999SOL     OW92829  10.588   9.483   3.102
96999SOL    HW192830  10.618   9.550   3.041
96999SOL    HW292831  10.495   9.473   3.082
97000SOL     OW92832   6.241   2.649   3.471
97000SOL    HW192833   6.243   2.608   3.557
97000SOL    HW292834   6.215   2.740   3.488
97001SOL     OW92835   3.674   7.023  13.459
97001SOL    HW192836   3.684   7.095  13.398
97001SOL    HW292837   3.750   6.967  13.444
97002SOL     OW92838   8.512   1.409   5.981
97002SOL    HW192839   8.446   1.341   5.992
97002SOL    HW292840   8.575   1.371   5.919
97003SOL     OW92841   2.475   8.561   1.754
97003SOL    HW192842   2.502   8.560   1.846
97003SOL    HW292843   2.413   8.634   1.748
97004SOL     OW92844  12.020   7.563   4.641
97004SOL    HW192845  11.980   7.507   4.574
97004SOL    HW292846  11.993   7.652   4.618
97005SOL     OW92847  10.811   4.974  13.080
97005SOL    HW192848  10.816   4.928  13.164
97005SOL    HW292849  10.717   4.980  13.061
97006SOL     OW92850   4.092   2.135  11.833
97006SOL    HW192851   4.163   2.106  11.776
97006SOL    HW292852   4.034   2.185  11.776
97007SOL     OW92853   4.505   5.354   5.911
97007SOL    HW192854   4.414   5.329   5.922
97007SOL    HW292855   4.535   5.303   5.836
97008SOL     OW92856   7.424   7.177  11.006
97008SOL    HW192857   7.335   7.151  11.028
97008SOL    HW292858   7.469   7.095  10.988
97009SOL     OW92859  11.669  11.353   6.238
97009SOL    HW192860  11.576  11.367   6.221
97009SOL    HW292861  11.696  11.431   6.287
97010SOL     OW92862   2.189   4.614   6.587
97010SOL    HW192863   2.169   4.664   6.509
97010SOL    HW292864   2.181   4.677   6.659
97011SOL     OW92865   2.952   9.395  12.527
97011SOL    HW192866   2.974   9.478  12.485
97011SOL    HW292867   2.918   9.341  12.456
97012SOL     OW92868  10.686   3.626  12.060
97012SOL    HW192869  10.781   3.619  12.057
97012SOL    HW292870  10.668   3.715  12.029
97013SOL     OW92871   8.654  14.661  12.956
97013SOL    HW192872   8.579  14.604  12.976
97013SOL    HW292873   8.722  14.600  12.928
97014SOL     OW92874   1.086   1.161   0.428
97014SOL    HW192875   1.171   1.117   0.427
97014SOL    HW292876   1.103   1.245   0.470
97015SOL     OW92877  11.186  12.104  11.955
97015SOL    HW192878  11.213  12.020  11.992
97015SOL    HW292879  11.140  12.080  11.874
97016SOL     OW92880   1.772  14.296   8.397
97016SOL    HW192881   1.698  14.319   8.341
97016SOL    HW292882   1.785  14.373   8.453
97017SOL     OW92883  13.068   7.132   6.353
97017SOL    HW192884  13.108   7.064   6.408
97017SOL    HW292885  13.142   7.188   6.328
97018SOL     OW92886   7.901   3.258   2.887
97018SOL    HW192887   7.941   3.259   2.974
97018SOL    HW292888   7.974   3.245   2.827
97019SOL     OW92889   3.995   7.108   1.760
97019SOL    HW192890   3.959   7.024   1.731
97019SOL    HW292891   4.087   7.106   1.731
97020SOL     OW92892  12.988  14.234   0.231
97020SOL    HW192893  12.901  14.202   0.252
97020SOL    HW292894  13.031  14.244   0.316
97021SOL     OW92895  12.079  13.928   7.062
97021SOL    HW192896  12.122  13.883   7.134
97021SOL    HW292897  11.992  13.887   7.055
97022SOL     OW92898  11.401  14.218  11.863
97022SOL    HW192899  11.490  14.210  11.830
97022SOL    HW292900  11.393  14.150  11.930
97023SOL     OW92901   8.133   4.803  10.367
97023SOL    HW192902   8.203   4.839  10.422
97023SOL    HW292903   8.087   4.741  10.424
97024SOL     OW92904  14.233   2.035  14.402
97024SOL    HW192905  14.266   2.124  14.396
97024SOL    HW292906  14.301   1.988  14.451
97025SOL     OW92907  14.204   5.921   7.476
97025SOL    HW192908  14.257   5.841   7.479
97025SOL    HW292909  14.224   5.966   7.558
97026SOL     OW92910   6.502   2.446   2.228
97026SOL    HW192911   6.497   2.401   2.144
97026SOL    HW292912   6.460   2.386   2.290
97027SOL     OW92913   0.250   1.513   0.182
97027SOL    HW192914   0.189   1.563   0.236
97027SOL    HW292915   0.309   1.579   0.144
97028SOL     OW92916   9.184   3.552   3.188
97028SOL    HW192917   9.136   3.515   3.262
97028SOL    HW292918   9.276   3.535   3.208
97029SOL     OW92919   3.395   8.252   9.155
97029SOL    HW192920   3.327   8.248   9.222
97029SOL    HW292921   3.413   8.161   9.133
97030SOL     OW92922   8.410   7.269   3.528
97030SOL    HW192923   8.415   7.198   3.592
97030SOL    HW292924   8.354   7.334   3.569
97031SOL     OW92925   0.838  14.613   8.083
97031SOL    HW192926   0.878  14.643   8.164
97031SOL    HW292927   0.763  14.672   8.070
97032SOL     OW92928  12.806   4.886   2.524
97032SOL    HW192929  12.759   4.806   2.502
97032SOL    HW292930  12.867   4.900   2.451
97033SOL     OW92931   6.773   4.576   9.141
97033SOL    HW192932   6.775   4.610   9.230
97033SOL    HW292933   6.714   4.500   9.145
97034SOL     OW92934  10.609   7.229   3.352
97034SOL    HW192935  10.542   7.259   3.291
97034SOL    HW292936  10.692   7.256   3.312
97035SOL     OW92937   8.320   9.714   2.769
97035SOL    HW192938   8.292   9.632   2.727
97035SOL    HW292939   8.311   9.696   2.863
97036SOL     OW92940   0.680   2.983   5.788
97036SOL    HW192941   0.591   3.000   5.756
97036SOL    HW292942   0.678   2.892   5.817
97037SOL     OW92943   8.793   7.475  12.325
97037SOL    HW192944   8.794   7.438  12.236
97037SOL    HW292945   8.875   7.524  12.330
97038SOL     OW92946   7.622  13.067   1.288
97038SOL    HW192947   7.647  12.998   1.227
97038SOL    HW292948   7.529  13.084   1.268
97039SOL     OW92949  12.736   3.706   0.305
97039SOL    HW192950  12.814   3.726   0.356
97039SOL    HW292951  12.665   3.750   0.352
97040SOL     OW92952   6.336   6.677  14.417
97040SOL    HW192953   6.316   6.588  14.387
97040SOL    HW292954   6.251   6.718  14.431
97041SOL     OW92955  12.463   4.013   0.671
97041SOL    HW192956  12.540   4.016   0.615
97041SOL    HW292957  12.498   4.020   0.760
97042SOL     OW92958   7.657   5.496   7.825
97042SOL    HW192959   7.715   5.527   7.894
97042SOL    HW292960   7.603   5.572   7.803
97043SOL     OW92961   4.501   6.310   9.155
97043SOL    HW192962   4.457   6.226   9.154
97043SOL    HW292963   4.433   6.373   9.179
97044SOL     OW92964  12.073   0.582  10.074
97044SOL    HW192965  11.978   0.576  10.081
97044SOL    HW292966  12.105   0.566  10.162
97045SOL     OW92967  13.049  13.229  12.179
97045SOL    HW192968  13.021  13.295  12.116
97045SOL    HW292969  13.121  13.183  12.134
97046SOL     OW92970  14.515  14.536   0.319
97046SOL    HW192971  14.436  14.544   0.373
97046SOL    HW292972  14.578  14.596   0.359
97047SOL     OW92973   2.454  10.505  12.618
97047SOL    HW192974   2.460  10.482  12.526
97047SOL    HW292975   2.463  10.422  12.665
97048SOL     OW92976  14.847   1.701   0.999
97048SOL    HW192977  14.847   1.796   1.000
97048SOL    HW292978  14.786   1.676   1.068
97049SOL     OW92979   3.574  13.011  10.159
97049SOL    HW192980   3.530  13.010  10.074
97049SOL    HW292981   3.507  12.983  10.221
97050SOL     OW92982   6.691  14.026   9.388
97050SOL    HW192983   6.731  13.992   9.308
97050SOL    HW292984   6.732  14.111   9.402
97051SOL     OW92985   9.327   7.550   6.501
97051SOL    HW192986   9.299   7.459   6.512
97051SOL    HW292987   9.277   7.599   6.567
97052SOL     OW92988  11.280  12.957  10.268
97052SOL    HW192989  11.220  12.993  10.333
97052SOL    HW292990  11.324  12.885  10.312
97053SOL     OW92991   9.731   4.250  13.048
97053SOL    HW192992   9.792   4.265  12.975
97053SOL    HW292993   9.756   4.314  13.114
97054SOL     OW92994   7.861   7.611   9.665
97054SOL    HW192995   7.871   7.575   9.753
97054SOL    HW292996   7.939   7.583   9.618
97055SOL     OW92997   0.876  12.406   8.044
97055SOL    HW192998   0.894  12.363   8.127
97055SOL    HW292999   0.958  12.451   8.022
97056SOL     OW93000   5.068   8.624  13.395
97056SOL    HW193001   5.036   8.564  13.463
97056SOL    HW293002   5.015   8.703  13.405
97057SOL     OW93003   0.862  14.383   6.797
97057SOL    HW193004   0.882  14.291   6.780
97057SOL    HW293005   0.779  14.382   6.844
97058SOL     OW93006   3.758  11.723   3.128
97058SOL    HW193007   3.695  11.651   3.131
97058SOL    HW293008   3.709  11.797   3.091
97059SOL     OW93009   7.642   1.804   6.620
97059SOL    HW193010   7.720   1.847   6.655
97059SOL    HW293011   7.675   1.722   6.583
97060SOL     OW93012  10.972  13.886   1.414
97060SOL    HW193013  10.895  13.868   1.361
97060SOL    HW293014  10.974  13.982   1.423
97061SOL     OW93015   2.906  14.289   1.776
97061SOL    HW193016   2.821  14.275   1.733
97061SOL    HW293017   2.954  14.208   1.762
97062SOL     OW93018   6.514   1.019   4.879
97062SOL    HW193019   6.556   1.083   4.821
97062SOL    HW293020   6.583   0.956   4.898
97063SOL     OW93021   1.693  10.106   0.626
97063SOL    HW193022   1.750  10.169   0.671
97063SOL    HW293023   1.748  10.030   0.609
97064SOL     OW93024  14.605   1.932   6.442
97064SOL    HW193025  14.611   1.973   6.356
97064SOL    HW293026  14.545   1.858   6.429
97065SOL     OW93027  10.950   7.620   0.495
97065SOL    HW193028  10.950   7.712   0.468
97065SOL    HW293029  10.993   7.574   0.423
97066SOL     OW93030  13.911  11.347   4.273
97066SOL    HW193031  13.944  11.396   4.197
97066SOL    HW293032  13.957  11.264   4.269
97067SOL     OW93033   9.929  10.862  13.505
97067SOL    HW193034   9.869  10.842  13.432
97067SOL    HW293035   9.906  10.799  13.573
97068SOL     OW93036   9.366   4.326   5.742
97068SOL    HW193037   9.348   4.410   5.701
97068SOL    HW293038   9.362   4.262   5.671
97069SOL     OW93039   2.021   7.971   3.137
97069SOL    HW193040   2.008   7.898   3.077
97069SOL    HW293041   2.044   8.045   3.080
97070SOL     OW93042   5.397   9.471  13.050
97070SOL    HW193043   5.317   9.419  13.048
97070SOL    HW293044   5.415   9.490  12.958
97071SOL     OW93045  11.921  10.481   4.573
97071SOL    HW193046  12.015  10.493   4.564
97071SOL    HW293047  11.908  10.387   4.583
97072SOL     OW93048   4.829  13.106   8.152
97072SOL    HW193049   4.830  13.057   8.069
97072SOL    HW293050   4.787  13.189   8.130
97073SOL     OW93051   1.706   9.441   8.884
97073SOL    HW193052   1.697   9.534   8.905
97073SOL    HW293053   1.633   9.398   8.930
97074SOL     OW93054  12.991   8.545   7.187
97074SOL    HW193055  12.912   8.494   7.206
97074SOL    HW293056  12.985   8.622   7.244
97075SOL     OW93057   1.768  10.366   1.707
97075SOL    HW193058   1.840  10.383   1.767
97075SOL    HW293059   1.810  10.342   1.624
97076SOL     OW93060   8.036   2.199   7.015
97076SOL    HW193061   7.951   2.173   7.051
97076SOL    HW293062   8.016   2.231   6.927
97077SOL     OW93063   0.160  14.286  10.222
97077SOL    HW193064   0.229  14.220  10.230
97077SOL    HW293065   0.100  14.250  10.156
97078SOL     OW93066   8.923  13.076   4.861
97078SOL    HW193067   8.961  13.026   4.934
97078SOL    HW293068   8.850  13.023   4.831
97079SOL     OW93069  10.441   2.025  14.806
97079SOL    HW193070  10.495   1.953  14.773
97079SOL    HW293071  10.351   2.000  14.782
97080SOL     OW93072   0.628  10.679   5.719
97080SOL    HW193073   0.624  10.584   5.713
97080SOL    HW293074   0.609  10.698   5.811
97081SOL     OW93075  12.008   2.123   5.847
97081SOL    HW193076  12.010   2.212   5.882
97081SOL    HW293077  11.962   2.072   5.914
97082SOL     OW93078   5.533  13.232   7.143
97082SOL    HW193079   5.500  13.253   7.056
97082SOL    HW293080   5.481  13.157   7.171
97083SOL     OW93081   6.354   2.557   8.851
97083SOL    HW193082   6.342   2.649   8.876
97083SOL    HW293083   6.428   2.557   8.791
97084SOL     OW93084   0.219   3.552  13.107
97084SOL    HW193085   0.225   3.594  13.192
97084SOL    HW293086   0.125   3.537  13.094
97085SOL     OW93087   2.007  14.682   2.051
97085SOL    HW193088   2.055  14.637   2.121
97085SOL    HW293089   1.943  14.736   2.096
97086SOL     OW93090   9.913   1.542  10.082
97086SOL    HW193091   9.964   1.622  10.099
97086SOL    HW293092   9.979   1.476  10.060
97087SOL     OW93093   3.424   7.979  14.027
97087SOL    HW193094   3.375   7.901  14.053
97087SOL    HW293095   3.476   8.001  14.105
97088SOL     OW93096   5.319  12.332  13.980
97088SOL    HW193097   5.330  12.272  14.054
97088SOL    HW293098   5.403  12.378  13.974
97089SOL     OW93099   9.767  14.286   8.256
97089SOL    HW193100   9.749  14.267   8.348
97089SOL    HW293101   9.729  14.212   8.208
97090SOL     OW93102  12.242   1.884   9.953
97090SOL    HW193103  12.172   1.847  10.007
97090SOL    HW293104  12.303   1.922  10.016
97091SOL     OW93105  10.690   1.926   3.283
97091SOL    HW193106  10.759   1.952   3.344
97091SOL    HW293107  10.724   1.846   3.242
97092SOL     OW93108  11.433   6.843  10.491
97092SOL    HW193109  11.374   6.768  10.481
97092SOL    HW293110  11.461   6.840  10.583
97093SOL     OW93111   5.859   1.644  13.790
97093SOL    HW193112   5.901   1.630  13.875
97093SOL    HW293113   5.772   1.679  13.812
97094SOL     OW93114   9.550   3.614   6.571
97094SOL    HW193115   9.563   3.646   6.660
97094SOL    HW293116   9.625   3.555   6.556
97095SOL     OW93117   1.151  12.209   6.062
97095SOL    HW193118   1.181  12.118   6.067
97095SOL    HW293119   1.159  12.231   5.970
97096SOL     OW93120  10.960   8.952   0.694
97096SOL    HW193121  10.902   9.027   0.698
97096SOL    HW293122  11.027   8.969   0.760
97097SOL     OW93123   4.082  12.534   1.987
97097SOL    HW193124   4.035  12.563   2.066
97097SOL    HW293125   4.043  12.450   1.966
97098SOL     OW93126   5.034  11.536  13.368
97098SOL    HW193127   5.093  11.554  13.295
97098SOL    HW293128   5.009  11.444  13.356
97099SOL     OW93129   6.440  13.804   1.778
97099SOL    HW193130   6.494  13.725   1.777
97099SOL    HW293131   6.484  13.864   1.717
97100SOL     OW93132  14.507  14.037   9.364
97100SOL    HW193133  14.483  14.087   9.443
97100SOL    HW293134  14.583  14.084   9.329
97101SOL     OW93135  10.064   5.779  13.349
97101SOL    HW193136  10.074   5.715  13.419
97101SOL    HW293137   9.988   5.750  13.299
97102SOL     OW93138   1.207   3.738   4.429
97102SOL    HW193139   1.163   3.813   4.389
97102SOL    HW293140   1.283   3.722   4.373
97103SOL     OW93141   8.915   4.345  14.011
97103SOL    HW193142   8.952   4.257  14.001
97103SOL    HW293143   8.905   4.377  13.922
97104SOL     OW93144   6.823   5.592  13.701
97104SOL    HW193145   6.810   5.683  13.728
97104SOL    HW293146   6.820   5.542  13.782
97105SOL     OW93147   4.683   0.182   0.350
97105SOL    HW193148   4.637   0.183   0.266
97105SOL    HW293149   4.616   0.206   0.414
97106SOL     OW93150  13.303  10.750   9.169
97106SOL    HW193151  13.391  10.786   9.159
97106SOL    HW293152  13.250  10.798   9.105
97107SOL     OW93153   5.625   8.795   6.535
97107SOL    HW193154   5.704   8.747   6.509
97107SOL    HW293155   5.612   8.859   6.465
97108SOL     OW93156   5.075   1.456   7.123
97108SOL    HW193157   5.082   1.381   7.065
97108SOL    HW293158   4.986   1.451   7.158
97109SOL     OW93159   9.457   0.192  12.410
97109SOL    HW193160   9.386   0.207  12.348
97109SOL    HW293161   9.452   0.265  12.471
97110SOL     OW93162   3.021   6.730   8.579
97110SOL    HW193163   3.067   6.809   8.551
97110SOL    HW293164   2.935   6.736   8.538
97111SOL     OW93165   5.867   3.544  12.279
97111SOL    HW193166   5.784   3.592  12.284
97111SOL    HW293167   5.905   3.572  12.196
97112SOL     OW93168   1.559   3.856   0.330
97112SOL    HW193169   1.635   3.903   0.365
97112SOL    HW293170   1.484   3.906   0.363
97113SOL     OW93171   6.335   0.735   4.421
97113SOL    HW193172   6.331   0.830   4.406
97113SOL    HW293173   6.271   0.699   4.359
97114SOL     OW93174   6.114   3.985  13.296
97114SOL    HW193175   6.204   3.977  13.329
97114SOL    HW293176   6.107   3.916  13.230
97115SOL     OW93177   6.626  10.595  12.952
97115SOL    HW193178   6.700  10.651  12.929
97115SOL    HW293179   6.620  10.601  13.048
97116SOL     OW93180   6.827   5.893   5.785
97116SOL    HW193181   6.753   5.950   5.803
97116SOL    HW293182   6.802   5.845   5.706
97117SOL     OW93183  10.235   4.984   7.311
97117SOL    HW193184  10.327   5.005   7.299
97117SOL    HW293185  10.201   4.973   7.222
97118SOL     OW93186  11.602   3.895   7.771
97118SOL    HW193187  11.579   3.827   7.706
97118SOL    HW293188  11.579   3.856   7.855
97119SOL     OW93189   0.282  14.714  12.484
97119SOL    HW193190   0.292  14.697  12.391
97119SOL    HW293191   0.218  14.649  12.513
97120SOL     OW93192   9.186   1.342   3.728
97120SOL    HW193193   9.160   1.336   3.636
97120SOL    HW293194   9.196   1.436   3.744
97121SOL     OW93195  13.296   4.303   2.183
97121SOL    HW193196  13.208   4.265   2.179
97121SOL    HW293197  13.308   4.328   2.274
97122SOL     OW93198   8.630  12.238   8.342
97122SOL    HW193199   8.673  12.170   8.290
97122SOL    HW293200   8.561  12.273   8.286
97123SOL     OW93201   8.808   8.798   2.513
97123SOL    HW193202   8.737   8.853   2.481
97123SOL    HW293203   8.826   8.737   2.441
97124SOL     OW93204   0.453  11.413   2.493
97124SOL    HW193205   0.500  11.390   2.413
97124SOL    HW293206   0.469  11.507   2.504
97125SOL     OW93207  11.897   5.522   0.598
97125SOL    HW193208  11.991   5.503   0.607
97125SOL    HW293209  11.875   5.569   0.679
97126SOL     OW93210   1.033   8.559  14.628
97126SOL    HW193211   1.003   8.590  14.542
97126SOL    HW293212   1.080   8.478  14.609
97127SOL     OW93213  12.394  14.139  10.184
97127SOL    HW193214  12.449  14.090  10.246
97127SOL    HW293215  12.307  14.137  10.224
97128SOL     OW93216   8.986   9.135  13.041
97128SOL    HW193217   8.944   9.049  13.038
97128SOL    HW293218   8.934   9.186  13.103
97129SOL     OW93219   4.443   7.445   5.469
97129SOL    HW193220   4.502   7.469   5.397
97129SOL    HW293221   4.380   7.516   5.473
97130SOL     OW93222   8.165  13.512  14.876
97130SOL    HW193223   8.099  13.456  14.834
97130SOL    HW293224   8.194  13.570  14.806
97131SOL     OW93225   6.609   1.836   2.508
97131SOL    HW193226   6.604   1.741   2.503
97131SOL    HW293227   6.702   1.856   2.506
97132SOL     OW93228  11.546   2.728   3.201
97132SOL    HW193229  11.452   2.732   3.220
97132SOL    HW293230  11.584   2.691   3.281
97133SOL     OW93231   3.543   0.308   3.633
97133SOL    HW193232   3.633   0.295   3.605
97133SOL    HW293233   3.545   0.388   3.686
97134SOL     OW93234   1.967   6.095  12.505
97134SOL    HW193235   2.063   6.090  12.513
97134SOL    HW293236   1.935   6.049  12.583
97135SOL     OW93237   4.706  13.673  11.771
97135SOL    HW193238   4.791  13.691  11.731
97135SOL    HW293239   4.727  13.624  11.851
97136SOL     OW93240  14.339   8.934   0.242
97136SOL    HW193241  14.388   8.998   0.190
97136SOL    HW293242  14.327   8.977   0.327
97137SOL     OW93243  11.168   6.991   3.628
97137SOL    HW193244  11.087   6.950   3.598
97137SOL    HW293245  11.194   7.048   3.556
97138SOL     OW93246   8.332   9.375  12.822
97138SOL    HW193247   8.281   9.305  12.782
97138SOL    HW293248   8.283   9.398  12.901
97139SOL     OW93249   8.012   8.336   4.183
97139SOL    HW193250   8.067   8.306   4.110
97139SOL    HW293251   8.029   8.272   4.253
97140SOL     OW93252   4.108   2.994   8.558
97140SOL    HW193253   4.050   2.923   8.531
97140SOL    HW293254   4.176   2.952   8.610
97141SOL     OW93255   9.334  14.490   9.770
97141SOL    HW193256   9.415  14.529   9.803
97141SOL    HW293257   9.354  14.465   9.680
97142SOL     OW93258  12.883   2.573  11.749
97142SOL    HW193259  12.828   2.648  11.773
97142SOL    HW293260  12.858   2.504  11.811
97143SOL     OW93261   6.447  10.836  12.242
97143SOL    HW193262   6.404  10.759  12.205
97143SOL    HW293263   6.475  10.887  12.166
97144SOL     OW93264   8.875   8.402   5.331
97144SOL    HW193265   8.817   8.430   5.260
97144SOL    HW293266   8.850   8.456   5.406
97145SOL     OW93267   3.158   0.448   7.328
97145SOL    HW193268   3.068   0.418   7.336
97145SOL    HW293269   3.202   0.412   7.405
97146SOL     OW93270  11.314  12.516  10.442
97146SOL    HW193271  11.230  12.536  10.401
97146SOL    HW293272  11.379  12.529  10.373
97147SOL     OW93273  12.862  14.629   4.040
97147SOL    HW193274  12.927  14.684   4.085
97147SOL    HW293275  12.847  14.556   4.100
97148SOL     OW93276   9.819   5.695   3.082
97148SOL    HW193277   9.905   5.737   3.078
97148SOL    HW293278   9.762   5.754   3.032
97149SOL     OW93279  12.407   6.790  11.853
97149SOL    HW193280  12.465   6.815  11.925
97149SOL    HW293281  12.461   6.733  11.798
97150SOL     OW93282   2.599  10.849   3.418
97150SOL    HW193283   2.642  10.930   3.392
97150SOL    HW293284   2.548  10.872   3.495
97151SOL     OW93285   4.112   4.052   3.045
97151SOL    HW193286   4.194   4.068   2.998
97151SOL    HW293287   4.138   4.051   3.137
97152SOL     OW93288   5.933   1.195  12.002
97152SOL    HW193289   5.986   1.261  11.956
97152SOL    HW293290   5.843   1.215  11.978
97153SOL     OW93291   4.891  10.906  12.553
97153SOL    HW193292   4.958  10.903  12.621
97153SOL    HW293293   4.813  10.869  12.594
97154SOL     OW93294  10.762   0.394  10.426
97154SOL    HW193295  10.748   0.481  10.463
97154SOL    HW293296  10.788   0.340  10.500
97155SOL     OW93297  13.183  13.967   3.298
97155SOL    HW193298  13.182  13.996   3.390
97155SOL    HW293299  13.090  13.958   3.275
97156SOL     OW93300   0.043  13.939   1.292
97156SOL    HW193301   0.131  13.923   1.328
97156SOL    HW293302   0.059  13.964   1.201
97157SOL     OW93303   8.765   5.741   3.712
97157SOL    HW193304   8.774   5.785   3.627
97157SOL    HW293305   8.671   5.732   3.725
97158SOL     OW93306   7.823   2.546   7.248
97158SOL    HW193307   7.847   2.557   7.156
97158SOL    HW293308   7.786   2.458   7.252
97159SOL     OW93309   6.754   6.132   5.200
97159SOL    HW193310   6.735   6.207   5.257
97159SOL    HW293311   6.667   6.097   5.178
97160SOL     OW93312   6.080   7.251   9.351
97160SOL    HW193313   6.155   7.243   9.292
97160SOL    HW293314   6.119   7.275   9.436
97161SOL     OW93315   4.013   8.848   7.136
97161SOL    HW193316   4.003   8.759   7.104
97161SOL    HW293317   4.105   8.854   7.163
97162SOL     OW93318   3.319   4.594   3.201
97162SOL    HW193319   3.306   4.572   3.108
97162SOL    HW293320   3.401   4.551   3.225
97163SOL     OW93321   0.055   7.232   1.384
97163SOL    HW193322   0.131   7.198   1.432
97163SOL    HW293323   0.017   7.297   1.443
97164SOL     OW93324  14.178   4.997   1.962
97164SOL    HW193325  14.208   5.042   2.041
97164SOL    HW293326  14.206   5.054   1.890
97165SOL     OW93327   6.874  11.616   1.161
97165SOL    HW193328   6.961  11.649   1.182
97165SOL    HW293329   6.819  11.694   1.157
97166SOL     OW93330   7.821  13.252   6.002
97166SOL    HW193331   7.847  13.246   5.910
97166SOL    HW293332   7.897  13.291   6.045
97167SOL     OW93333   4.704   2.660  12.346
97167SOL    HW193334   4.748   2.598  12.405
97167SOL    HW293335   4.622   2.617  12.323
97168SOL     OW93336  11.221   0.153   9.758
97168SOL    HW193337  11.197   0.119   9.844
97168SOL    HW293338  11.298   0.207   9.775
97169SOL     OW93339  12.948   6.894   3.640
97169SOL    HW193340  13.042   6.903   3.623
97169SOL    HW293341  12.942   6.817   3.697
97170SOL     OW93342  14.624   8.854  14.460
97170SOL    HW193343  14.529   8.845  14.457
97170SOL    HW293344  14.655   8.809  14.381
97171SOL     OW93345  11.876  12.601   0.842
97171SOL    HW193346  11.922  12.520   0.820
97171SOL    HW293347  11.946  12.666   0.852
97172SOL     OW93348   5.055   5.833  10.979
97172SOL    HW193349   5.115   5.777  10.931
97172SOL    HW293350   5.083   5.827  11.070
97173SOL     OW93351   4.320   2.406  11.084
97173SOL    HW193352   4.291   2.358  11.161
97173SOL    HW293353   4.326   2.497  11.114
97174SOL     OW93354  11.846  13.186   4.078
97174SOL    HW193355  11.769  13.132   4.062
97174SOL    HW293356  11.819  13.250   4.144
97175SOL     OW93357  14.306  14.479  12.257
97175SOL    HW193358  14.225  14.482  12.206
97175SOL    HW293359  14.367  14.534  12.209
97176SOL     OW93360   6.582  14.646  10.708
97176SOL    HW193361   6.519  14.689  10.650
97176SOL    HW293362   6.631  14.587  10.651
97177SOL     OW93363   6.822  10.262  12.748
97177SOL    HW193364   6.801  10.170  12.733
97177SOL    HW293365   6.806  10.304  12.663
97178SOL     OW93366   9.448   9.961  11.222
97178SOL    HW193367   9.362   9.954  11.264
97178SOL    HW293368   9.490   9.878  11.240
97179SOL     OW93369  13.180  11.206   0.904
97179SOL    HW193370  13.239  11.162   0.965
97179SOL    HW293371  13.158  11.139   0.840
97180SOL     OW93372   3.877  12.706   6.289
97180SOL    HW193373   3.907  12.739   6.205
97180SOL    HW293374   3.917  12.763   6.354
97181SOL     OW93375   5.248   1.121   0.981
97181SOL    HW193376   5.175   1.178   0.957
97181SOL    HW293377   5.281   1.158   1.063
97182SOL     OW93378  14.118  12.197   7.644
97182SOL    HW193379  14.112  12.125   7.581
97182SOL    HW293380  14.199  12.181   7.692
97183SOL     OW93381  12.995   5.695   3.261
97183SOL    HW193382  12.903   5.699   3.232
97183SOL    HW293383  13.011   5.601   3.273
97184SOL     OW93384  11.644  14.595   6.550
97184SOL    HW193385  11.710  14.538   6.588
97184SOL    HW293386  11.667  14.683   6.581
97185SOL     OW93387   8.019   4.028   5.012
97185SOL    HW193388   8.047   4.085   4.941
97185SOL    HW293389   7.929   4.057   5.032
97186SOL     OW93390  14.473   9.767  12.311
97186SOL    HW193391  14.418   9.756  12.233
97186SOL    HW293392  14.456   9.857  12.339
97187SOL     OW93393  11.024   6.984   1.364
97187SOL    HW193394  11.006   6.909   1.307
97187SOL    HW293395  11.116   7.004   1.348
97188SOL     OW93396   6.228   3.412   6.522
97188SOL    HW193397   6.265   3.498   6.540
97188SOL    HW293398   6.203   3.415   6.430
97189SOL     OW93399   2.661   6.439   4.765
97189SOL    HW193400   2.715   6.368   4.801
97189SOL    HW293401   2.599   6.395   4.708
97190SOL     OW93402  14.643   9.075  14.621
97190SOL    HW193403  14.634   9.003  14.558
97190SOL    HW293404  14.569   9.065  14.680
97191SOL     OW93405  10.822  14.362  10.631
97191SOL    HW193406  10.773  14.375  10.550
97191SOL    HW293407  10.854  14.449  10.654
97192SOL     OW93408   5.293   7.167   2.641
97192SOL    HW193409   5.235   7.096   2.613
97192SOL    HW293410   5.346   7.129   2.711
97193SOL     OW93411  14.457   5.605   9.751
97193SOL    HW193412  14.482   5.697   9.744
97193SOL    HW293413  14.495   5.564   9.674
97194SOL     OW93414   8.049   9.834   0.041
97194SOL    HW193415   8.004   9.866   0.119
97194SOL    HW293416   8.131   9.883   0.040
97195SOL     OW93417   3.892   2.397  13.504
97195SOL    HW193418   3.851   2.463  13.448
97195SOL    HW293419   3.985   2.417  13.500
97196SOL     OW93420   4.736   0.049   9.794
97196SOL    HW193421   4.819   0.078   9.833
97196SOL    HW293422   4.761   0.013   9.709
97197SOL     OW93423   2.612   0.098   7.695
97197SOL    HW193424   2.630   0.188   7.669
97197SOL    HW293425   2.637   0.093   7.787
97198SOL     OW93426   3.699  11.596  11.093
97198SOL    HW193427   3.664  11.617  11.179
97198SOL    HW293428   3.638  11.636  11.032
97199SOL     OW93429  13.297   8.734   6.503
97199SOL    HW193430  13.302   8.822   6.540
97199SOL    HW293431  13.308   8.676   6.578
97200SOL     OW93432   8.684   7.994  14.543
97200SOL    HW193433   8.636   7.919  14.579
97200SOL    HW293434   8.637   8.016  14.463
97201SOL     OW93435   4.187   3.144   3.754
97201SOL    HW193436   4.155   3.220   3.705
97201SOL    HW293437   4.112   3.119   3.808
97202SOL     OW93438   1.314   2.997  10.365
97202SOL    HW193439   1.352   3.007  10.452
97202SOL    HW293440   1.257   2.921  10.372
97203SOL     OW93441   2.692   8.733   0.042
97203SOL    HW193442   2.649   8.795  14.862
97203SOL    HW293443   2.659   8.647   0.015
97204SOL     OW93444   5.108   5.564   6.830
97204SOL    HW193445   5.047   5.498   6.797
97204SOL    HW293446   5.159   5.518   6.897
97205SOL     OW93447  13.461   5.734   5.269
97205SOL    HW193448  13.475   5.695   5.355
97205SOL    HW293449  13.463   5.660   5.208
97206SOL     OW93450   2.200   8.196   7.504
97206SOL    HW193451   2.109   8.167   7.510
97206SOL    HW293452   2.203   8.276   7.557
97207SOL     OW93453  12.111   7.676  11.645
97207SOL    HW193454  12.087   7.709  11.731
97207SOL    HW293455  12.135   7.584  11.660
97208SOL     OW93456  10.374  11.648   0.720
97208SOL    HW193457  10.292  11.600   0.721
97208SOL    HW293458  10.415  11.626   0.637
97209SOL     OW93459   5.815   3.766   1.835
97209SOL    HW193460   5.896   3.719   1.815
97209SOL    HW293461   5.762   3.758   1.756
97210SOL     OW93462  14.198  13.496  13.195
97210SOL    HW193463  14.152  13.562  13.246
97210SOL    HW293464  14.245  13.443  13.260
97211SOL     OW93465   8.077   1.715  10.856
97211SOL    HW193466   8.135   1.666  10.914
97211SOL    HW293467   8.012   1.753  10.915
97212SOL     OW93468  11.853  10.028   4.812
97212SOL    HW193469  11.793   9.953   4.820
97212SOL    HW293470  11.877  10.049   4.902
97213SOL     OW93471  14.224  11.936   1.561
97213SOL    HW193472  14.317  11.938   1.586
97213SOL    HW293473  14.199  11.845   1.569
97214SOL     OW93474  10.342   1.922  12.336
97214SOL    HW193475  10.352   1.963  12.422
97214SOL    HW293476  10.421   1.946  12.289
97215SOL     OW93477  10.733   4.773  14.242
97215SOL    HW193478  10.755   4.750  14.333
97215SOL    HW293479  10.814   4.759  14.194
97216SOL     OW93480   6.755  12.201   3.409
97216SOL    HW193481   6.781  12.254   3.334
97216SOL    HW293482   6.838  12.178   3.452
97217SOL     OW93483   5.360   6.435   8.357
97217SOL    HW193484   5.366   6.372   8.428
97217SOL    HW293485   5.447   6.475   8.353
97218SOL     OW93486  12.923   7.475   6.037
97218SOL    HW193487  12.858   7.446   5.974
97218SOL    HW293488  12.871   7.510   6.110
97219SOL     OW93489   3.718   5.573   5.959
97219SOL    HW193490   3.660   5.648   5.973
97219SOL    HW293491   3.806   5.610   5.967
97220SOL     OW93492   7.505   6.663  13.408
97220SOL    HW193493   7.518   6.758  13.410
97220SOL    HW293494   7.410   6.653  13.413
97221SOL     OW93495   8.697   2.233   3.813
97221SOL    HW193496   8.613   2.216   3.771
97221SOL    HW293497   8.720   2.321   3.786
97222SOL     OW93498  10.664   9.528   2.410
97222SOL    HW193499  10.646   9.613   2.371
97222SOL    HW293500  10.671   9.468   2.336
97223SOL     OW93501   1.791   8.614   3.874
97223SOL    HW193502   1.870   8.663   3.897
97223SOL    HW293503   1.800   8.597   3.780
97224SOL     OW93504  14.779   2.746  12.571
97224SOL    HW193505  14.816   2.732  12.658
97224SOL    HW293506  14.771   2.657  12.535
97225SOL     OW93507  13.194   5.056   4.257
97225SOL    HW193508  13.162   5.137   4.218
97225SOL    HW293509  13.180   4.990   4.189
97226SOL     OW93510   5.986   8.342   1.048
97226SOL    HW193511   5.932   8.265   1.027
97226SOL    HW293512   6.076   8.311   1.040
97227SOL     OW93513  12.661  13.663  14.471
97227SOL    HW193514  12.737  13.706  14.510
97227SOL    HW293515  12.658  13.577  14.514
97228SOL     OW93516   7.083   9.383  14.436
97228SOL    HW193517   7.033   9.303  14.449
97228SOL    HW293518   7.021   9.454  14.453
97229SOL     OW93519  10.205   9.794   3.454
97229SOL    HW193520  10.134   9.778   3.516
97229SOL    HW293521  10.251   9.710   3.449
97230SOL     OW93522   0.393   2.126  11.629
97230SOL    HW193523   0.402   2.099  11.720
97230SOL    HW293524   0.344   2.054  11.588
97231SOL     OW93525   5.508   8.728   8.497
97231SOL    HW193526   5.496   8.746   8.404
97231SOL    HW293527   5.576   8.660   8.499
97232SOL     OW93528   5.999   1.308   5.556
97232SOL    HW193529   5.940   1.368   5.603
97232SOL    HW293530   6.066   1.365   5.518
97233SOL     OW93531   1.763   5.350  13.958
97233SOL    HW193532   1.692   5.358  14.022
97233SOL    HW293533   1.800   5.437  13.952
97234SOL     OW93534  10.355  12.406   2.943
97234SOL    HW193535  10.419  12.466   2.905
97234SOL    HW293536  10.284  12.462   2.974
97235SOL     OW93537  10.837  10.281   2.863
97235SOL    HW193538  10.816  10.190   2.841
97235SOL    HW293539  10.796  10.332   2.793
97236SOL     OW93540   7.873   8.636   5.080
97236SOL    HW193541   7.937   8.685   5.028
97236SOL    HW293542   7.834   8.701   5.139
97237SOL     OW93543   6.894   8.781  13.899
97237SOL    HW193544   6.834   8.854  13.911
97237SOL    HW293545   6.870   8.745  13.813
97238SOL     OW93546  13.855   7.170  14.824
97238SOL    HW193547  13.842   7.149  14.732
97238SOL    HW293548  13.877   7.086  14.865
97239SOL     OW93549   4.738  12.679   2.215
97239SOL    HW193550   4.659  12.634   2.184
97239SOL    HW293551   4.762  12.632   2.295
97240SOL     OW93552   0.868   1.789  10.752
97240SOL    HW193553   0.957   1.759  10.735
97240SOL    HW293554   0.818   1.710  10.771
97241SOL     OW93555   9.038   2.485   3.729
97241SOL    HW193556   8.949   2.451   3.733
97241SOL    HW293557   9.056   2.515   3.819
97242SOL     OW93558  13.830   8.955   2.628
97242SOL    HW193559  13.823   8.860   2.629
97242SOL    HW293560  13.855   8.979   2.717
97243SOL     OW93561   2.969   9.881  14.361
97243SOL    HW193562   3.061   9.906  14.354
97243SOL    HW293563   2.930   9.948  14.418
97244SOL     OW93564  11.236   3.850   1.709
97244SOL    HW193565  11.143   3.832   1.725
97244SOL    HW293566  11.271   3.769   1.673
97245SOL     OW93567   5.501   3.752   2.997
97245SOL    HW193568   5.591   3.738   3.027
97245SOL    HW293569   5.472   3.830   3.043
97246SOL     OW93570   2.094  12.346   8.045
97246SOL    HW193571   2.176  12.393   8.054
97246SOL    HW293572   2.084  12.298   8.127
97247SOL     OW93573  12.604   5.668   7.905
97247SOL    HW193574  12.508   5.659   7.908
97247SOL    HW293575  12.635   5.609   7.974
97248SOL     OW93576  13.662  12.287   7.221
97248SOL    HW193577  13.724  12.248   7.282
97248SOL    HW293578  13.666  12.231   7.143
97249SOL     OW93579  12.404   0.742   9.838
97249SOL    HW193580  12.392   0.693   9.757
97249SOL    HW293581  12.486   0.789   9.826
97250SOL     OW93582   4.433   6.184   0.173
97250SOL    HW193583   4.449   6.173   0.267
97250SOL    HW293584   4.515   6.156   0.132
97251SOL     OW93585  10.220   7.632   5.760
97251SOL    HW193586  10.276   7.591   5.694
97251SOL    HW293587  10.231   7.726   5.746
97252SOL     OW93588   1.073  10.585  11.307
97252SOL    HW193589   1.127  10.554  11.380
97252SOL    HW293590   0.985  10.554  11.327
97253SOL     OW93591  13.384   6.906  11.767
97253SOL    HW193592  13.460   6.878  11.818
97253SOL    HW293593  13.412   6.898  11.676
97254SOL     OW93594   9.336   0.588   5.448
97254SOL    HW193595   9.404   0.652   5.425
97254SOL    HW293596   9.302   0.618   5.532
97255SOL     OW93597   1.270   2.855  14.309
97255SOL    HW193598   1.336   2.785  14.303
97255SOL    HW293599   1.208   2.835  14.239
97256SOL     OW93600   9.752  13.112   7.720
97256SOL    HW193601   9.768  13.154   7.636
97256SOL    HW293602   9.657  13.106   7.727
97257SOL     OW93603  14.309   5.020   1.364
97257SOL    HW193604  14.333   5.054   1.278
97257SOL    HW293605  14.376   4.954   1.383
97258SOL     OW93606   0.107  13.741   6.080
97258SOL    HW193607   0.172  13.754   6.010
97258SOL    HW293608   0.102  13.646   6.090
97259SOL     OW93609   7.445  11.666   6.221
97259SOL    HW193610   7.372  11.728   6.220
97259SOL    HW293611   7.406  11.583   6.195
97260SOL     OW93612   3.707   9.146   0.692
97260SOL    HW193613   3.749   9.069   0.730
97260SOL    HW293614   3.746   9.154   0.605
97261SOL     OW93615   5.538   0.224   8.009
97261SOL    HW193616   5.566   0.262   7.926
97261SOL    HW293617   5.572   0.135   8.009
97262SOL     OW93618  10.495  14.673   9.784
97262SOL    HW193619  10.499  14.647   9.876
97262SOL    HW293620  10.540  14.757   9.781
97263SOL     OW93621   8.638  12.275  14.434
97263SOL    HW193622   8.641  12.226  14.351
97263SOL    HW293623   8.545  12.285  14.452
97264SOL     OW93624   4.214   3.754  14.466
97264SOL    HW193625   4.151   3.719  14.530
97264SOL    HW293626   4.298   3.753  14.513
97265SOL     OW93627   6.556  14.107   4.540
97265SOL    HW193628   6.581  14.037   4.600
97265SOL    HW293629   6.582  14.076   4.454
97266SOL     OW93630   6.173  11.530  10.554
97266SOL    HW193631   6.203  11.532  10.645
97266SOL    HW293632   6.110  11.602  10.549
97267SOL     OW93633   3.685   4.546   8.031
97267SOL    HW193634   3.699   4.521   8.123
97267SOL    HW293635   3.593   4.523   8.014
97268SOL     OW93636   4.486   2.457   6.043
97268SOL    HW193637   4.555   2.522   6.033
97268SOL    HW293638   4.476   2.418   5.956
97269SOL     OW93639   2.230  13.835   1.619
97269SOL    HW193640   2.225  13.929   1.638
97269SOL    HW293641   2.148  13.815   1.576
97270SOL     OW93642   0.397   1.917  11.219
97270SOL    HW193643   0.333   1.913  11.148
97270SOL    HW293644   0.408   1.826  11.246
97271SOL     OW93645   7.954   6.591  11.939
97271SOL    HW193646   7.905   6.673  11.933
97271SOL    HW293647   7.908   6.530  11.881
97272SOL     OW93648   7.661  11.710   1.748
97272SOL    HW193649   7.674  11.784   1.808
97272SOL    HW293650   7.702  11.739   1.666
97273SOL     OW93651   7.763  14.708  12.241
97273SOL    HW193652   7.732  14.768  12.309
97273SOL    HW293653   7.850  14.680  12.271
97274SOL     OW93654   7.766   6.554   8.351
97274SOL    HW193655   7.826   6.628   8.356
97274SOL    HW293656   7.777   6.508   8.434
97275SOL     OW93657  14.685   5.465   2.808
97275SOL    HW193658  14.669   5.535   2.745
97275SOL    HW293659  14.755   5.500   2.864
97276SOL     OW93660  14.831   6.142   8.258
97276SOL    HW193661   0.038   6.137   8.299
97276SOL    HW293662  14.845   6.111   8.169
97277SOL     OW93663   0.905   7.673  10.070
97277SOL    HW193664   0.967   7.626  10.015
97277SOL    HW293665   0.957   7.703  10.145
97278SOL     OW93666  13.654  12.961  10.440
97278SOL    HW193667  13.623  12.920  10.521
97278SOL    HW293668  13.576  13.002  10.403
97279SOL     OW93669   5.019   8.403  13.559
97279SOL    HW193670   5.021   8.307  13.566
97279SOL    HW293671   4.926   8.425  13.556
97280SOL     OW93672   6.779  13.816   6.694
97280SOL    HW193673   6.696  13.831   6.738
97280SOL    HW293674   6.756  13.773   6.612
97281SOL     OW93675   5.905   6.246   0.901
97281SOL    HW193676   5.898   6.153   0.881
97281SOL    HW293677   5.999   6.265   0.895
97282SOL     OW93678  10.236  11.278   3.996
97282SOL    HW193679  10.153  11.275   4.044
97282SOL    HW293680  10.231  11.204   3.936
97283SOL     OW93681   1.550   5.091   3.102
97283SOL    HW193682   1.629   5.104   3.154
97283SOL    HW293683   1.564   5.143   3.023
97284SOL     OW93684  13.492  11.448   9.332
97284SOL    HW193685  13.444  11.488   9.260
97284SOL    HW293686  13.577  11.425   9.294
97285SOL     OW93687  10.096  10.458   8.626
97285SOL    HW193688  10.179  10.469   8.581
97285SOL    HW293689  10.053  10.386   8.581
97286SOL     OW93690   5.292   4.214  14.738
97286SOL    HW193691   5.301   4.132  14.788
97286SOL    HW293692   5.209   4.204  14.691
97287SOL     OW93693  11.448  12.966   3.213
97287SOL    HW193694  11.462  12.872   3.201
97287SOL    HW293695  11.517  13.008   3.161
97288SOL     OW93696  14.204  14.848   2.195
97288SOL    HW193697  14.165   0.056   2.193
97288SOL    HW293698  14.130  14.789   2.205
97289SOL     OW93699  13.445   4.912  14.549
97289SOL    HW193700  13.434   4.823  14.581
97289SOL    HW293701  13.415   4.909  14.458
97290SOL     OW93702   5.684   8.438   4.124
97290SOL    HW193703   5.625   8.501   4.164
97290SOL    HW293704   5.629   8.388   4.064
97291SOL     OW93705   2.364   1.764  10.502
97291SOL    HW193706   2.333   1.755  10.411
97291SOL    HW293707   2.427   1.693  10.512
97292SOL     OW93708   3.723   3.837  11.347
97292SOL    HW193709   3.729   3.874  11.259
97292SOL    HW293710   3.661   3.764  11.338
97293SOL     OW93711   2.619  13.374   0.045
97293SOL    HW193712   2.607  13.418   0.129
97293SOL    HW293713   2.585  13.435  14.859
97294SOL     OW93714   5.661  13.862  13.960
97294SOL    HW193715   5.664  13.769  13.936
97294SOL    HW293716   5.570  13.877  13.987
97295SOL     OW93717   4.141   3.041   5.011
97295SOL    HW193718   4.216   3.056   5.069
97295SOL    HW293719   4.165   3.085   4.930
97296SOL     OW93720  14.347   6.644  13.022
97296SOL    HW193721  14.271   6.678  13.070
97296SOL    HW293722  14.422   6.686  13.062
97297SOL     OW93723   0.715   0.617   2.335
97297SOL    HW193724   0.634   0.619   2.283
97297SOL    HW293725   0.741   0.708   2.343
97298SOL     OW93726  11.149  14.545  11.438
97298SOL    HW193727  11.212  14.487  11.397
97298SOL    HW293728  11.161  14.531  11.532
97299SOL     OW93729   5.528   4.313   6.130
97299SOL    HW193730   5.506   4.403   6.156
97299SOL    HW293731   5.552   4.270   6.212
97300SOL     OW93732   0.672   2.544   8.037
97300SOL    HW193733   0.669   2.566   7.944
97300SOL    HW293734   0.621   2.464   8.045
97301SOL     OW93735   3.092  13.303  10.561
97301SOL    HW193736   3.013  13.250  10.558
97301SOL    HW293737   3.147  13.261  10.627
97302SOL     OW93738   3.629  10.542   0.386
97302SOL    HW193739   3.566  10.609   0.413
97302SOL    HW293740   3.652  10.497   0.467
97303SOL     OW93741   5.216   9.378   8.589
97303SOL    HW193742   5.294   9.345   8.545
97303SOL    HW293743   5.220   9.473   8.577
97304SOL     OW93744   5.612   4.675   6.523
97304SOL    HW193745   5.600   4.747   6.461
97304SOL    HW293746   5.563   4.602   6.484
97305SOL     OW93747   0.551  14.192   7.773
97305SOL    HW193748   0.592  14.106   7.760
97305SOL    HW293749   0.615  14.240   7.825
97306SOL     OW93750  10.972   0.660   4.314
97306SOL    HW193751  10.889   0.681   4.358
97306SOL    HW293752  10.999   0.577   4.353
97307SOL     OW93753   5.181   8.331   3.023
97307SOL    HW193754   5.189   8.389   3.099
97307SOL    HW293755   5.224   8.250   3.051
97308SOL     OW93756   7.440  10.828  12.104
97308SOL    HW193757   7.346  10.833  12.090
97308SOL    HW293758   7.472  10.771  12.034
97309SOL     OW93759   9.916   0.108  13.525
97309SOL    HW193760   9.844   0.049  13.546
97309SOL    HW293761   9.940   0.148  13.609
97310SOL     OW93762  13.403   4.849  14.168
97310SOL    HW193763  13.336   4.889  14.224
97310SOL    HW293764  13.354   4.816  14.092
97311SOL     OW93765   7.484  10.089   6.309
97311SOL    HW193766   7.459  10.078   6.400
97311SOL    HW293767   7.460  10.180   6.288
97312SOL     OW93768  13.792   2.441  12.536
97312SOL    HW193769  13.731   2.514  12.526
97312SOL    HW293770  13.858   2.455  12.468
97313SOL     OW93771   4.463  14.226   0.160
97313SOL    HW193772   4.544  14.276   0.168
97313SOL    HW293773   4.470  14.182   0.075
97314SOL     OW93774   5.571   1.038   8.402
97314SOL    HW193775   5.542   1.114   8.453
97314SOL    HW293776   5.647   1.070   8.353
97315SOL     OW93777  14.185  13.165   5.031
97315SOL    HW193778  14.183  13.070   5.043
97315SOL    HW293779  14.245  13.196   5.099
97316SOL     OW93780   4.058  11.314   3.791
97316SOL    HW193781   4.068  11.319   3.886
97316SOL    HW293782   4.085  11.224   3.770
97317SOL     OW93783   2.107   9.441   9.274
97317SOL    HW193784   2.152   9.476   9.197
97317SOL    HW293785   2.019   9.478   9.269
97318SOL     OW93786  13.837  10.809   8.534
97318SOL    HW193787  13.845  10.888   8.481
97318SOL    HW293788  13.813  10.740   8.472
97319SOL     OW93789   7.226  11.240  12.199
97319SOL    HW193790   7.211  11.171  12.263
97319SOL    HW293791   7.296  11.293  12.237
97320SOL     OW93792   1.972  13.140   0.138
97320SOL    HW193793   1.968  13.226   0.180
97320SOL    HW293794   2.063  13.131   0.110
97321SOL     OW93795   1.123   8.341   9.688
97321SOL    HW193796   1.112   8.315   9.780
97321SOL    HW293797   1.108   8.435   9.688
97322SOL     OW93798  12.222   1.121  14.651
97322SOL    HW193799  12.274   1.136  14.572
97322SOL    HW293800  12.175   1.040  14.634
97323SOL     OW93801   7.545   0.823   6.548
97323SOL    HW193802   7.585   0.900   6.508
97323SOL    HW293803   7.613   0.756   6.545
97324SOL     OW93804   4.439   3.005  12.960
97324SOL    HW193805   4.401   2.969  12.880
97324SOL    HW293806   4.515   2.949  12.978
97325SOL     OW93807  12.180   5.643   0.941
97325SOL    HW193808  12.149   5.573   0.884
97325SOL    HW293809  12.227   5.598   1.011
97326SOL     OW93810   0.607   1.593  11.163
97326SOL    HW193811   0.643   1.520  11.214
97326SOL    HW293812   0.536   1.627  11.218
97327SOL     OW93813   8.763  14.173  11.710
97327SOL    HW193814   8.765  14.125  11.793
97327SOL    HW293815   8.777  14.264  11.735
97328SOL     OW93816   1.725  13.981  14.822
97328SOL    HW193817   1.684  13.897  14.800
97328SOL    HW293818   1.810  13.958  14.859
97329SOL     OW93819   5.656   3.287   7.524
97329SOL    HW193820   5.660   3.286   7.620
97329SOL    HW293821   5.656   3.195   7.498
97330SOL     OW93822   9.985  13.998   8.472
97330SOL    HW193823   9.980  13.913   8.515
97330SOL    HW293824  10.066  14.037   8.506
97331SOL     OW93825   6.677   0.288   1.743
97331SOL    HW193826   6.763   0.316   1.774
97331SOL    HW293827   6.638   0.367   1.706
97332SOL     OW93828   6.550  10.530  13.710
97332SOL    HW193829   6.600  10.469  13.764
97332SOL    HW293830   6.611  10.603  13.695
97333SOL     OW93831   4.600   2.526  11.148
97333SOL    HW193832   4.551   2.445  11.163
97333SOL    HW293833   4.558   2.591  11.204
97334SOL     OW93834  11.116   9.439   6.639
97334SOL    HW193835  11.044   9.501   6.650
97334SOL    HW293836  11.084   9.375   6.575
97335SOL     OW93837  13.550  11.848  14.310
97335SOL    HW193838  13.573  11.940  14.322
97335SOL    HW293839  13.478  11.849  14.247
97336SOL     OW93840   4.671  11.229   4.047
97336SOL    HW193841   4.733  11.269   3.987
97336SOL    HW293842   4.721  11.217   4.128
97337SOL     OW93843   8.457   4.560   7.194
97337SOL    HW193844   8.549   4.534   7.203
97337SOL    HW293845   8.409   4.495   7.244
97338SOL     OW93846  11.204  10.027  11.635
97338SOL    HW193847  11.293   9.998  11.615
97338SOL    HW293848  11.162   9.952  11.677
97339SOL     OW93849   4.485   2.848   2.123
97339SOL    HW193850   4.447   2.781   2.066
97339SOL    HW293851   4.559   2.883   2.072
97340SOL     OW93852  10.533   8.852   9.602
97340SOL    HW193853  10.457   8.911   9.599
97340SOL    HW293854  10.519   8.792   9.529
97341SOL     OW93855   2.419   2.804   5.541
97341SOL    HW193856   2.406   2.869   5.472
97341SOL    HW293857   2.332   2.770   5.559
97342SOL     OW93858   8.701   8.433   3.216
97342SOL    HW193859   8.692   8.503   3.152
97342SOL    HW293860   8.722   8.478   3.298
97343SOL     OW93861   1.820   4.933   2.834
97343SOL    HW193862   1.773   4.899   2.911
97343SOL    HW293863   1.857   4.855   2.792
97344SOL     OW93864   2.200  10.294   1.928
97344SOL    HW193865   2.189  10.199   1.934
97344SOL    HW293866   2.293  10.309   1.947
97345SOL     OW93867  10.681   6.800  12.550
97345SOL    HW193868  10.663   6.868  12.616
97345SOL    HW293869  10.615   6.813  12.483
97346SOL     OW93870  10.564  14.268   4.322
97346SOL    HW193871  10.513  14.333   4.370
97346SOL    HW293872  10.526  14.184   4.347
97347SOL     OW93873  11.599   6.953  13.356
97347SOL    HW193874  11.504   6.961  13.349
97347SOL    HW293875  11.626   7.029  13.406
97348SOL     OW93876   8.050   6.219  13.058
97348SOL    HW193877   7.990   6.272  13.005
97348SOL    HW293878   7.994   6.151  13.096
97349SOL     OW93879   6.090   8.415  13.774
97349SOL    HW193880   6.041   8.488  13.736
97349SOL    HW293881   6.139   8.454  13.846
97350SOL     OW93882  11.422  13.998   3.709
97350SOL    HW193883  11.517  14.007   3.699
97350SOL    HW293884  11.412  13.936   3.782
97351SOL     OW93885   3.153   0.085   9.469
97351SOL    HW193886   3.091   0.081   9.541
97351SOL    HW293887   3.171  14.873   9.447
97352SOL     OW93888   5.710  11.525  14.783
97352SOL    HW193889   5.714  11.591  14.714
97352SOL    HW293890   5.622  11.533  14.819
97353SOL     OW93891   3.471   6.345   1.092
97353SOL    HW193892   3.483   6.257   1.059
97353SOL    HW293893   3.555   6.388   1.076
97354SOL     OW93894  11.109   5.138  14.420
97354SOL    HW193895  11.105   5.210  14.482
97354SOL    HW293896  11.095   5.059  14.473
97355SOL     OW93897  14.644   0.532  11.113
97355SOL    HW193898  14.726   0.544  11.159
97355SOL    HW293899  14.621   0.619  11.080
97356SOL     OW93900   0.292  14.590  14.340
97356SOL    HW193901   0.356  14.620  14.404
97356SOL    HW293902   0.218  14.649  14.351
97357SOL     OW93903   2.545   2.406   3.563
97357SOL    HW193904   2.491   2.361   3.628
97357SOL    HW293905   2.518   2.368   3.480
97358SOL     OW93906   4.346  11.726   6.196
97358SOL    HW193907   4.358  11.666   6.122
97358SOL    HW293908   4.417  11.789   6.189
97359SOL     OW93909   1.485   8.718   8.924
97359SOL    HW193910   1.530   8.735   9.007
97359SOL    HW293911   1.434   8.638   8.940
97360SOL     OW93912   8.595   4.382   7.511
97360SOL    HW193913   8.669   4.323   7.525
97360SOL    HW293914   8.627   4.468   7.537
97361SOL     OW93915  14.536  12.525  13.214
97361SOL    HW193916  14.593  12.580  13.159
97361SOL    HW293917  14.477  12.483  13.152
97362SOL     OW93918   3.101  11.223   8.795
97362SOL    HW193919   3.152  11.278   8.855
97362SOL    HW293920   3.096  11.138   8.839
97363SOL     OW93921   0.944   8.510   8.965
97363SOL    HW193922   0.860   8.553   8.949
97363SOL    HW293923   0.989   8.515   8.881
97364SOL     OW93924   6.676   5.622  14.833
97364SOL    HW193925   6.661   5.691   0.019
97364SOL    HW293926   6.589   5.586  14.815
97365SOL     OW93927   6.845  13.371   0.031
97365SOL    HW193928   6.931  13.349  14.875
97365SOL    HW293929   6.862  13.440   0.096
97366SOL     OW93930  12.469   6.603   9.541
97366SOL    HW193931  12.376   6.610   9.564
97366SOL    HW293932  12.513   6.596   9.625
97367SOL     OW93933   5.402  14.505  10.377
97367SOL    HW193934   5.363  14.465  10.299
97367SOL    HW293935   5.330  14.556  10.416
97368SOL     OW93936  12.076  12.561   3.887
97368SOL    HW193937  12.061  12.655   3.884
97368SOL    HW293938  12.149  12.551   3.949
97369SOL     OW93939  13.534   2.558   4.992
97369SOL    HW193940  13.610   2.615   4.982
97369SOL    HW293941  13.490   2.561   4.906
97370SOL     OW93942   8.830  10.644   9.460
97370SOL    HW193943   8.789  10.598   9.386
97370SOL    HW293944   8.765  10.638   9.530
97371SOL     OW93945   3.345   9.914   4.963
97371SOL    HW193946   3.255   9.914   4.995
97371SOL    HW293947   3.395   9.956   5.033
97372SOL     OW93948   8.577   7.017  11.932
97372SOL    HW193949   8.604   6.929  11.909
97372SOL    HW293950   8.483   7.019  11.914
97373SOL     OW93951   0.551  13.857   2.873
97373SOL    HW193952   0.619  13.921   2.853
97373SOL    HW293953   0.489  13.864   2.801
97374SOL     OW93954   0.555   1.298   1.553
97374SOL    HW193955   0.579   1.210   1.523
97374SOL    HW293956   0.601   1.357   1.494
97375SOL     OW93957   2.121   3.611   1.562
97375SOL    HW193958   2.049   3.615   1.624
97375SOL    HW293959   2.079   3.613   1.476
97376SOL     OW93960  12.373   7.745   1.427
97376SOL    HW193961  12.333   7.708   1.506
97376SOL    HW293962  12.426   7.818   1.459
97377SOL     OW93963  10.314  11.631   6.870
97377SOL    HW193964  10.375  11.562   6.896
97377SOL    HW293965  10.253  11.638   6.943
97378SOL     OW93966   5.050   3.499   4.397
97378SOL    HW193967   5.134   3.505   4.441
97378SOL    HW293968   5.060   3.428   4.334
97379SOL     OW93969   0.683   9.680   0.863
97379SOL    HW193970   0.599   9.646   0.894
97379SOL    HW293971   0.747   9.649   0.926
97380SOL     OW93972   2.691   4.615   1.843
97380SOL    HW193973   2.710   4.708   1.828
97380SOL    HW293974   2.760   4.586   1.903
97381SOL     OW93975  13.724  14.324   3.538
97381SOL    HW193976  13.710  14.415   3.563
97381SOL    HW293977  13.751  14.280   3.619
97382SOL     OW93978   8.566   2.625  12.776
97382SOL    HW193979   8.500   2.644  12.709
97382SOL    HW293980   8.638   2.685  12.756
97383SOL     OW93981   7.084   0.929   2.671
97383SOL    HW193982   7.110   0.944   2.580
97383SOL    HW293983   6.998   0.969   2.679
97384SOL     OW93984   8.161   6.379   4.704
97384SOL    HW193985   8.246   6.401   4.743
97384SOL    HW293986   8.132   6.460   4.662
97385SOL     OW93987   3.129  13.195  14.549
97385SOL    HW193988   3.048  13.246  14.551
97385SOL    HW293989   3.164  13.210  14.461
97386SOL     OW93990   8.363   0.347  10.994
97386SOL    HW193991   8.311   0.393  11.059
97386SOL    HW293992   8.452   0.348  11.030
97387SOL     OW93993  13.128   9.204   1.242
97387SOL    HW193994  13.034   9.196   1.263
97387SOL    HW293995  13.158   9.276   1.298
97388SOL     OW93996   9.237   4.616   5.412
97388SOL    HW193997   9.150   4.582   5.433
97388SOL    HW293998   9.262   4.571   5.331
97389SOL     OW93999   6.083  13.853  12.196
97389SOL    HW194000   6.009  13.796  12.176
97389SOL    HW294001   6.066  13.933  12.146
97390SOL     OW94002   7.029   5.726   2.843
97390SOL    HW194003   7.045   5.672   2.767
97390SOL    HW294004   7.022   5.664   2.916
97391SOL     OW94005   1.718   7.157   5.757
97391SOL    HW194006   1.761   7.228   5.708
97391SOL    HW294007   1.788   7.093   5.771
97392SOL     OW94008   7.169   2.772  13.088
97392SOL    HW194009   7.115   2.850  13.076
97392SOL    HW294010   7.259   2.802  13.072
97393SOL     OW94011   6.575   3.613   0.876
97393SOL    HW194012   6.485   3.590   0.855
97393SOL    HW294013   6.597   3.684   0.815
97394SOL     OW94014  14.332  10.774  14.047
97394SOL    HW194015  14.323  10.858  14.092
97394SOL    HW294016  14.422  10.747  14.065
97395SOL     OW94017   2.902   6.248   7.440
97395SOL    HW194018   2.851   6.303   7.381
97395SOL    HW294019   2.931   6.307   7.509
97396SOL     OW94020   3.603   8.621  12.917
97396SOL    HW194021   3.591   8.610  13.011
97396SOL    HW294022   3.697   8.634  12.906
97397SOL     OW94023   1.214   4.766   4.945
97397SOL    HW194024   1.232   4.731   5.032
97397SOL    HW294025   1.241   4.697   4.885
97398SOL     OW94026  11.645   0.290   7.231
97398SOL    HW194027  11.728   0.279   7.278
97398SOL    HW294028  11.621   0.381   7.247
97399SOL     OW94029   8.880   6.140   8.313
97399SOL    HW194030   8.796   6.101   8.288
97399SOL    HW294031   8.920   6.165   8.229
97400SOL     OW94032   0.091  13.061   0.318
97400SOL    HW194033   0.007  13.106   0.313
97400SOL    HW294034   0.077  12.990   0.381
97401SOL     OW94035   6.978  11.749   9.668
97401SOL    HW194036   7.034  11.680   9.634
97401SOL    HW294037   6.890  11.711   9.668
97402SOL     OW94038  14.594  13.625   4.256
97402SOL    HW194039  14.585  13.713   4.220
97402SOL    HW294040  14.505  13.589   4.253
97403SOL     OW94041   1.346   5.439   6.248
97403SOL    HW194042   1.390   5.404   6.171
97403SOL    HW294043   1.252   5.430   6.229
97404SOL     OW94044   0.839   9.489  13.824
97404SOL    HW194045   0.791   9.461  13.746
97404SOL    HW294046   0.896   9.415  13.844
97405SOL     OW94047  12.715  13.528   9.761
97405SOL    HW194048  12.730  13.452   9.705
97405SOL    HW294049  12.684  13.596   9.701
97406SOL     OW94050   6.275  14.813  11.131
97406SOL    HW194051   6.232   0.018  11.147
97406SOL    HW294052   6.290  14.777  11.218
97407SOL     OW94053   8.036  12.496   4.084
97407SOL    HW194054   8.116  12.536   4.049
97407SOL    HW294055   8.061  12.407   4.107
97408SOL     OW94056  13.375   4.846   9.086
97408SOL    HW194057  13.328   4.834   9.003
97408SOL    HW294058  13.334   4.785   9.146
97409SOL     OW94059   4.961   1.778  11.242
97409SOL    HW194060   4.905   1.700  11.243
97409SOL    HW294061   5.008   1.774  11.325
97410SOL     OW94062   0.815   8.028   1.007
97410SOL    HW194063   0.813   8.017   0.912
97410SOL    HW294064   0.730   7.997   1.037
97411SOL     OW94065   6.003  14.612  12.406
97411SOL    HW194066   5.954  14.565  12.339
97411SOL    HW294067   6.094  14.603  12.380
97412SOL     OW94068   8.465   1.782   4.588
97412SOL    HW194069   8.437   1.691   4.585
97412SOL    HW294070   8.512   1.790   4.671
97413SOL     OW94071   4.568   5.371  11.293
97413SOL    HW194072   4.632   5.330  11.351
97413SOL    HW294073   4.529   5.441  11.346
97414SOL     OW94074   5.061   1.597   3.236
97414SOL    HW194075   4.985   1.590   3.294
97414SOL    HW294076   5.047   1.679   3.189
97415SOL     OW94077  10.493  11.282   3.053
97415SOL    HW194078  10.423  11.348   3.050
97415SOL    HW294079  10.563  11.325   3.103
97416SOL     OW94080  13.414   1.124   7.772
97416SOL    HW194081  13.447   1.120   7.862
97416SOL    HW294082  13.329   1.080   7.776
97417SOL     OW94083  14.392   5.946  13.378
97417SOL    HW194084  14.322   5.994  13.423
97417SOL    HW294085  14.420   6.005  13.308
97418SOL     OW94086   3.397   2.606  12.143
97418SOL    HW194087   3.359   2.555  12.214
97418SOL    HW294088   3.362   2.694  12.154
97419SOL     OW94089   3.621   4.961   3.085
97419SOL    HW194090   3.641   4.959   2.991
97419SOL    HW294091   3.527   4.939   3.090
97420SOL     OW94092  10.672  14.479  14.758
97420SOL    HW194093  10.719  14.437  14.686
97420SOL    HW294094  10.739  14.533  14.801
97421SOL     OW94095   0.370  12.885  11.115
97421SOL    HW194096   0.316  12.848  11.186
97421SOL    HW294097   0.415  12.809  11.078
97422SOL     OW94098  10.018   5.288  13.231
97422SOL    HW194099  10.006   5.196  13.254
97422SOL    HW294100  10.087   5.319  13.289
97423SOL     OW94101  10.651  10.788   5.084
97423SOL    HW194102  10.743  10.766   5.094
97423SOL    HW294103  10.607  10.703   5.080
97424SOL     OW94104   3.919   3.406   9.639
97424SOL    HW194105   3.859   3.439   9.706
97424SOL    HW294106   3.993   3.370   9.688
97425SOL     OW94107   4.192   9.254  14.792
97425SOL    HW194108   4.255   9.244  14.863
97425SOL    HW294109   4.127   9.317  14.826
97426SOL     OW94110   7.470  13.566   2.108
97426SOL    HW194111   7.432  13.482   2.134
97426SOL    HW294112   7.513  13.547   2.024
97427SOL     OW94113  14.353  10.047  12.920
97427SOL    HW194114  14.365  10.139  12.942
97427SOL    HW294115  14.287  10.046  12.851
97428SOL     OW94116  13.521  11.798  10.400
97428SOL    HW194117  13.608  11.770  10.428
97428SOL    HW294118  13.534  11.834  10.312
97429SOL     OW94119   1.820   1.263   3.711
97429SOL    HW194120   1.816   1.356   3.731
97429SOL    HW294121   1.730   1.231   3.726
97430SOL     OW94122  14.511   4.287   5.278
97430SOL    HW194123  14.426   4.298   5.235
97430SOL    HW294124  14.555   4.372   5.266
97431SOL     OW94125   1.931  12.982   8.188
97431SOL    HW194126   1.955  12.956   8.277
97431SOL    HW294127   1.984  13.060   8.171
97432SOL     OW94128  13.706   0.787   5.345
97432SOL    HW194129  13.736   0.726   5.412
97432SOL    HW294130  13.737   0.873   5.375
97433SOL     OW94131   8.666  10.537   8.411
97433SOL    HW194132   8.596  10.581   8.363
97433SOL    HW294133   8.747  10.577   8.378
97434SOL     OW94134   3.520   8.579   1.009
97434SOL    HW194135   3.471   8.530   0.943
97434SOL    HW294136   3.580   8.514   1.046
97435SOL     OW94137   4.963   0.454   7.543
97435SOL    HW194138   4.917   0.501   7.612
97435SOL    HW294139   5.042   0.505   7.528
97436SOL     OW94140   1.742  11.812   4.909
97436SOL    HW194141   1.660  11.861   4.913
97436SOL    HW294142   1.761  11.788   5.000
97437SOL     OW94143   5.366   2.900   4.697
97437SOL    HW194144   5.415   2.901   4.616
97437SOL    HW294145   5.425   2.936   4.762
97438SOL     OW94146  12.353  13.201  12.189
97438SOL    HW194147  12.442  13.222  12.218
97438SOL    HW294148  12.306  13.284  12.196
97439SOL     OW94149   1.684   4.868  14.245
97439SOL    HW194150   1.623   4.830  14.309
97439SOL    HW294151   1.767   4.872  14.291
97440SOL     OW94152   9.031   1.682  14.170
97440SOL    HW194153   9.065   1.635  14.245
97440SOL    HW294154   8.976   1.618  14.124
97441SOL     OW94155  13.866   2.229  13.892
97441SOL    HW194156  13.949   2.232  13.844
97441SOL    HW294157  13.885   2.174  13.968
97442SOL     OW94158   5.178   9.509   4.207
97442SOL    HW194159   5.257   9.563   4.202
97442SOL    HW294160   5.177   9.475   4.297
97443SOL     OW94161  10.795   8.822   7.504
97443SOL    HW194162  10.812   8.761   7.576
97443SOL    HW294163  10.722   8.876   7.535
97444SOL     OW94164  12.912   8.789  11.817
97444SOL    HW194165  13.003   8.789  11.847
97444SOL    HW294166  12.869   8.722  11.870
97445SOL     OW94167   9.420  14.472  11.046
97445SOL    HW194168   9.431  14.566  11.029
97445SOL    HW294169   9.510  14.438  11.050
97446SOL     OW94170   1.472   2.113   0.859
97446SOL    HW194171   1.436   2.178   0.920
97446SOL    HW294172   1.401   2.095   0.797
97447SOL     OW94173   7.778   2.010   8.789
97447SOL    HW194174   7.694   1.965   8.796
97447SOL    HW294175   7.798   2.009   8.695
97448SOL     OW94176   3.939   8.062  12.317
97448SOL    HW194177   3.943   8.021  12.230
97448SOL    HW294178   4.020   8.112  12.324
97449SOL     OW94179   7.829   0.262   1.376
97449SOL    HW194180   7.846   0.168   1.374
97449SOL    HW294181   7.857   0.294   1.290
97450SOL     OW94182   3.179   1.929   8.126
97450SOL    HW194183   3.211   1.896   8.042
97450SOL    HW294184   3.086   1.944   8.112
97451SOL     OW94185   8.403   1.320   9.357
97451SOL    HW194186   8.342   1.384   9.393
97451SOL    HW294187   8.432   1.358   9.274
97452SOL     OW94188   4.538   1.406  10.557
97452SOL    HW194189   4.596   1.332  10.571
97452SOL    HW294190   4.576   1.454  10.483
97453SOL     OW94191   6.753  14.006  12.683
97453SOL    HW194192   6.718  13.921  12.654
97453SOL    HW294193   6.848  13.993  12.687
97454SOL     OW94194   2.214   0.394   5.621
97454SOL    HW194195   2.306   0.369   5.612
97454SOL    HW294196   2.211   0.443   5.704
97455SOL     OW94197   6.886  12.915  14.031
97455SOL    HW194198   6.910  13.002  14.064
97455SOL    HW294199   6.825  12.881  14.097
97456SOL     OW94200   1.622   4.735   9.428
97456SOL    HW194201   1.600   4.828   9.437
97456SOL    HW294202   1.600   4.715   9.337
97457SOL     OW94203  11.839   0.241   7.756
97457SOL    HW194204  11.832   0.295   7.677
97457SOL    HW294205  11.933   0.233   7.771
97458SOL     OW94206   7.438   7.310  11.754
97458SOL    HW194207   7.488   7.271  11.825
97458SOL    HW294208   7.357   7.340  11.795
97459SOL     OW94209   8.386   7.783   7.873
97459SOL    HW194210   8.442   7.710   7.899
97459SOL    HW294211   8.354   7.758   7.786
97460SOL     OW94212   9.710  13.953   7.207
97460SOL    HW194213   9.685  13.901   7.284
97460SOL    HW294214   9.629  13.995   7.179
97461SOL     OW94215   5.820   3.072   6.517
97461SOL    HW194216   5.849   2.994   6.564
97461SOL    HW294217   5.767   3.120   6.580
97462SOL     OW94218   9.694   8.039   4.436
97462SOL    HW194219   9.680   8.043   4.341
97462SOL    HW294220   9.716   8.129   4.461
97463SOL     OW94221   6.871   9.700   9.327
97463SOL    HW194222   6.835   9.659   9.248
97463SOL    HW294223   6.827   9.784   9.333
97464SOL     OW94224  12.640   6.517   9.745
97464SOL    HW194225  12.682   6.592   9.787
97464SOL    HW294226  12.711   6.473   9.698
97465SOL     OW94227  10.875   4.258   2.730
97465SOL    HW194228  10.925   4.244   2.649
97465SOL    HW294229  10.806   4.319   2.706
97466SOL     OW94230  13.819  11.897   7.946
97466SOL    HW194231  13.839  11.892   8.039
97466SOL    HW294232  13.849  11.984   7.920
97467SOL     OW94233   5.412   2.756   6.210
97467SOL    HW194234   5.479   2.786   6.149
97467SOL    HW294235   5.403   2.828   6.272
97468SOL     OW94236   4.212   1.858   4.483
97468SOL    HW194237   4.178   1.946   4.467
97468SOL    HW294238   4.288   1.850   4.425
97469SOL     OW94239   9.957   6.616  10.599
97469SOL    HW194240   9.862   6.627  10.588
97469SOL    HW294241   9.993   6.705  10.588
97470SOL     OW94242  14.405  13.478   3.240
97470SOL    HW194243  14.478  13.537   3.224
97470SOL    HW294244  14.343  13.496   3.171
97471SOL     OW94245   5.602   5.499  12.343
97471SOL    HW194246   5.596   5.496  12.248
97471SOL    HW294247   5.695   5.488  12.362
97472SOL     OW94248   6.451   0.842  13.458
97472SOL    HW194249   6.512   0.768  13.463
97472SOL    HW294250   6.507   0.918  13.441
97473SOL     OW94251   1.077   0.256  12.797
97473SOL    HW194252   1.147   0.241  12.734
97473SOL    HW294253   1.120   0.299  12.871
97474SOL     OW94254   9.673  10.352  10.935
97474SOL    HW194255   9.665  10.443  10.905
97474SOL    HW294256   9.761  10.326  10.910
97475SOL     OW94257  10.900  10.167   5.884
97475SOL    HW194258  10.901  10.200   5.794
97475SOL    HW294259  10.987  10.188   5.918
97476SOL     OW94260   6.056   7.808   0.918
97476SOL    HW194261   6.003   7.846   0.989
97476SOL    HW294262   6.146   7.833   0.939
97477SOL     OW94263   3.292  10.318   2.438
97477SOL    HW194264   3.340  10.256   2.383
97477SOL    HW294265   3.262  10.386   2.377
97478SOL     OW94266   6.599   6.389  14.762
97478SOL    HW194267   6.512   6.355  14.780
97478SOL    HW294268   6.584   6.469  14.711
97479SOL     OW94269   3.738   8.976  10.639
97479SOL    HW194270   3.778   9.062  10.651
97479SOL    HW294271   3.708   8.950  10.726
97480SOL     OW94272  12.344   7.551   8.791
97480SOL    HW194273  12.274   7.593   8.842
97480SOL    HW294274  12.303   7.527   8.708
97481SOL     OW94275  14.417  11.921   3.423
97481SOL    HW194276  14.412  11.989   3.356
97481SOL    HW294277  14.325  11.905   3.448
97482SOL     OW94278   0.049  10.321   2.192
97482SOL    HW194279   0.082  10.261   2.125
97482SOL    HW294280   0.022  10.399   2.142
97483SOL     OW94281   5.713   5.223   9.609
97483SOL    HW194282   5.780   5.272   9.561
97483SOL    HW294283   5.631   5.267   9.588
97484SOL     OW94284  10.622   7.907   6.334
97484SOL    HW194285  10.635   7.876   6.424
97484SOL    HW294286  10.546   7.858   6.302
97485SOL     OW94287  12.327   2.073  14.771
97485SOL    HW194288  12.421   2.062  14.789
97485SOL    HW294289  12.301   1.990  14.730
97486SOL     OW94290  13.251  13.014   7.256
97486SOL    HW194291  13.213  12.996   7.341
97486SOL    HW294292  13.180  13.054   7.205
97487SOL     OW94293   9.793   3.310   8.921
97487SOL    HW194294   9.863   3.306   8.855
97487SOL    HW294295   9.748   3.226   8.912
97488SOL     OW94296   7.827   8.038  10.873
97488SOL    HW194297   7.814   8.110  10.934
97488SOL    HW294298   7.772   8.059  10.798
97489SOL     OW94299   6.518  12.021  10.014
97489SOL    HW194300   6.560  12.101  10.046
97489SOL    HW294301   6.544  11.954  10.078
97490SOL     OW94302   3.255   4.370  12.455
97490SOL    HW194303   3.200   4.293  12.437
97490SOL    HW294304   3.332   4.335  12.499
97491SOL     OW94305   2.808   1.726  12.746
97491SOL    HW194306   2.742   1.666  12.780
97491SOL    HW294307   2.758   1.792  12.698
97492SOL     OW94308  12.270   5.761  11.094
97492SOL    HW194309  12.350   5.807  11.071
97492SOL    HW294310  12.299   5.687  11.148
97493SOL     OW94311  14.305   8.132   3.552
97493SOL    HW194312  14.213   8.108   3.538
97493SOL    HW294313  14.304   8.180   3.634
97494SOL     OW94314   2.159   4.816   9.785
97494SOL    HW194315   2.122   4.731   9.808
97494SOL    HW294316   2.088   4.878   9.801
97495SOL     OW94317   8.086   0.580  10.196
97495SOL    HW194318   8.039   0.498  10.189
97495SOL    HW294319   8.018   0.647  10.193
97496SOL     OW94320   4.876   9.976  13.720
97496SOL    HW194321   4.892   9.933  13.636
97496SOL    HW294322   4.781   9.990  13.722
97497SOL     OW94323   4.165   0.894   1.408
97497SOL    HW194324   4.132   0.806   1.427
97497SOL    HW294325   4.090   0.952   1.422
97498SOL     OW94326   8.934   8.953   7.835
97498SOL    HW194327   8.997   9.024   7.851
97498SOL    HW294328   8.851   8.989   7.866
97499SOL     OW94329   9.235   4.419   8.761
97499SOL    HW194330   9.264   4.453   8.845
97499SOL    HW294331   9.191   4.336   8.782
97500SOL     OW94332   1.399  14.562   7.647
97500SOL    HW194333   1.399  14.492   7.713
97500SOL    HW294334   1.306  14.573   7.624
97501SOL     OW94335   5.739   8.424  14.219
97501SOL    HW194336   5.650   8.389  14.225
97501SOL    HW294337   5.750   8.448  14.127
97502SOL     OW94338   2.050   2.054   5.341
97502SOL    HW194339   2.053   1.960   5.324
97502SOL    HW294340   2.048   2.094   5.253
97503SOL     OW94341  11.509   1.595   9.707
97503SOL    HW194342  11.519   1.653   9.632
97503SOL    HW294343  11.591   1.603   9.755
97504SOL     OW94344   9.246   7.120  11.867
97504SOL    HW194345   9.290   7.052  11.919
97504SOL    HW294346   9.214   7.183  11.932
97505SOL     OW94347   5.095  10.926  10.801
97505SOL    HW194348   5.156  10.998  10.784
97505SOL    HW294349   5.038  10.923  10.725
97506SOL     OW94350   5.277   6.999   5.141
97506SOL    HW194351   5.224   6.924   5.113
97506SOL    HW294352   5.358   6.991   5.089
97507SOL     OW94353  13.119   5.569   9.878
97507SOL    HW194354  13.189   5.602   9.936
97507SOL    HW294355  13.052   5.536   9.939
97508SOL     OW94356  13.047   2.030   0.143
97508SOL    HW194357  13.055   2.126   0.145
97508SOL    HW294358  12.996   2.009   0.221
97509SOL     OW94359   0.806   9.908   4.205
97509SOL    HW194360   0.887   9.859   4.195
97509SOL    HW294361   0.800   9.961   4.125
97510SOL     OW94362   9.552   3.558  12.911
97510SOL    HW194363   9.603   3.478  12.921
97510SOL    HW294364   9.474   3.531  12.862
97511SOL     OW94365   2.535   9.956  10.973
97511SOL    HW194366   2.490   9.874  10.953
97511SOL    HW294367   2.469  10.024  10.957
97512SOL     OW94368   5.440   3.490   1.336
97512SOL    HW194369   5.397   3.540   1.267
97512SOL    HW294370   5.448   3.402   1.300
97513SOL     OW94371   3.101  13.686   2.803
97513SOL    HW194372   3.024  13.742   2.803
97513SOL    HW294373   3.171  13.741   2.770
97514SOL     OW94374   6.053  14.688  14.540
97514SOL    HW194375   6.111  14.682  14.616
97514SOL    HW294376   5.985  14.749  14.566
97515SOL     OW94377   2.243  11.970   3.343
97515SOL    HW194378   2.161  11.948   3.387
97515SOL    HW294379   2.309  11.916   3.386
97516SOL     OW94380  14.722   8.267  12.489
97516SOL    HW194381  14.690   8.285  12.400
97516SOL    HW294382  14.813   8.298  12.487
97517SOL     OW94383   3.345  10.536  10.505
97517SOL    HW194384   3.280  10.490  10.452
97517SOL    HW294385   3.305  10.543  10.592
97518SOL     OW94386  14.600  14.302  11.173
97518SOL    HW194387  14.641  14.371  11.225
97518SOL    HW294388  14.516  14.340  11.146
97519SOL     OW94389   2.300   8.802   6.960
97519SOL    HW194390   2.212   8.805   6.923
97519SOL    HW294391   2.354   8.760   6.893
97520SOL     OW94392   3.957   2.383   4.396
97520SOL    HW194393   3.950   2.466   4.349
97520SOL    HW294394   4.000   2.405   4.478
97521SOL     OW94395   4.991   2.417  10.923
97521SOL    HW194396   5.074   2.465  10.928
97521SOL    HW294397   4.967   2.400  11.014
97522SOL     OW94398  13.438  10.070  14.274
97522SOL    HW194399  13.390  10.147  14.244
97522SOL    HW294400  13.471  10.094  14.361
97523SOL     OW94401   9.115  14.719  10.639
97523SOL    HW194402   9.038  14.711  10.581
97523SOL    HW294403   9.083  14.769  10.714
97524SOL     OW94404   9.585   0.968   2.309
97524SOL    HW194405   9.551   1.030   2.245
97524SOL    HW294406   9.551   0.883   2.281
97525SOL     OW94407   1.410  11.153   8.008
97525SOL    HW194408   1.465  11.076   7.999
97525SOL    HW294409   1.335  11.123   8.059
97526SOL     OW94410   2.157  10.615   1.671
97526SOL    HW194411   2.188  10.659   1.750
97526SOL    HW294412   2.232  10.566   1.639
97527SOL     OW94413   7.765   5.488  13.811
97527SOL    HW194414   7.688   5.448  13.850
97527SOL    HW294415   7.741   5.580  13.798
97528SOL     OW94416  13.421   0.333   6.651
97528SOL    HW194417  13.339   0.380   6.665
97528SOL    HW294418  13.453   0.314   6.739
97529SOL     OW94419   6.740  10.100   0.819
97529SOL    HW194420   6.798  10.168   0.853
97529SOL    HW294421   6.764  10.093   0.726
97530SOL     OW94422   9.137   6.748   9.678
97530SOL    HW194423   9.043   6.733   9.677
97530SOL    HW294424   9.152   6.814   9.610
97531SOL     OW94425  13.936   1.738   2.205
97531SOL    HW194426  13.997   1.664   2.206
97531SOL    HW294427  13.942   1.773   2.116
97532SOL     OW94428  14.604   2.990   5.278
97532SOL    HW194429  14.677   2.984   5.341
97532SOL    HW294430  14.620   2.920   5.216
97533SOL     OW94431   6.047  13.560   5.417
97533SOL    HW194432   6.046  13.556   5.321
97533SOL    HW294433   6.084  13.476   5.444
97534SOL     OW94434   4.256   9.715  13.051
97534SOL    HW194435   4.345   9.734  13.081
97534SOL    HW294436   4.262   9.629  13.009
97535SOL     OW94437   3.364   4.323  13.573
97535SOL    HW194438   3.454   4.323  13.542
97535SOL    HW294439   3.315   4.280  13.502
97536SOL     OW94440  13.179   4.495  10.184
97536SOL    HW194441  13.215   4.407  10.194
97536SOL    HW294442  13.254   4.551  10.164
97537SOL     OW94443  11.239  10.267   8.495
97537SOL    HW194444  11.157  10.316   8.496
97537SOL    HW294445  11.301  10.322   8.544
97538SOL     OW94446   0.458   0.155   1.756
97538SOL    HW194447   0.374   0.117   1.730
97538SOL    HW294448   0.472   0.125   1.846
97539SOL     OW94449  13.955   5.974   4.278
97539SOL    HW194450  13.899   5.919   4.224
97539SOL    HW294451  13.983   6.044   4.220
97540SOL     OW94452  11.527  10.009  11.233
97540SOL    HW194453  11.600   9.953  11.262
97540SOL    HW294454  11.450   9.973  11.277
97541SOL     OW94455   5.587  11.945  12.607
97541SOL    HW194456   5.598  11.910  12.695
97541SOL    HW294457   5.562  11.869  12.554
97542SOL     OW94458  10.491   1.026   7.194
97542SOL    HW194459  10.473   0.933   7.211
97542SOL    HW294460  10.510   1.062   7.281
97543SOL     OW94461   5.320   1.871   4.371
97543SOL    HW194462   5.405   1.844   4.335
97543SOL    HW294463   5.257   1.811   4.330
97544SOL     OW94464   8.296  12.209   9.756
97544SOL    HW194465   8.228  12.229   9.691
97544SOL    HW294466   8.248  12.197   9.838
97545SOL     OW94467   0.942   8.993   8.849
97545SOL    HW194468   0.966   8.927   8.914
97545SOL    HW294469   0.913   9.068   8.901
97546SOL     OW94470   5.641  13.689   1.188
97546SOL    HW194471   5.552  13.691   1.222
97546SOL    HW294472   5.675  13.604   1.215
97547SOL     OW94473   4.372   0.025   7.128
97547SOL    HW194474   4.396   0.086   7.198
97547SOL    HW294475   4.331  14.830   7.173
97548SOL     OW94476  13.231   5.043  13.128
97548SOL    HW194477  13.299   4.981  13.102
97548SOL    HW294478  13.156   5.020  13.074
97549SOL     OW94479  10.630   2.897   0.282
97549SOL    HW194480  10.620   2.804   0.299
97549SOL    HW294481  10.722   2.908   0.257
97550SOL     OW94482   5.099   1.077  13.213
97550SOL    HW194483   5.050   1.033  13.143
97550SOL    HW294484   5.046   1.062  13.292
97551SOL     OW94485   0.279  13.614   3.597
97551SOL    HW194486   0.299  13.520   3.601
97551SOL    HW294487   0.336  13.653   3.663
97552SOL     OW94488   0.270   3.394   4.129
97552SOL    HW194489   0.329   3.343   4.073
97552SOL    HW294490   0.284   3.357   4.216
97553SOL     OW94491   1.982  10.173   4.764
97553SOL    HW194492   2.029  10.229   4.826
97553SOL    HW294493   2.048  10.110   4.734
97554SOL     OW94494  10.222  14.306  13.514
97554SOL    HW194495  10.303  14.339  13.475
97554SOL    HW294496  10.218  14.214  13.487
97555SOL     OW94497   8.850  13.931   2.402
97555SOL    HW194498   8.861  13.858   2.341
97555SOL    HW294499   8.913  13.997   2.373
97556SOL     OW94500   2.334   4.144   2.834
97556SOL    HW194501   2.301   4.117   2.919
97556SOL    HW294502   2.427   4.161   2.848
97557SOL     OW94503  10.947  14.755   0.255
97557SOL    HW194504  10.940  14.800   0.340
97557SOL    HW294505  10.945  14.662   0.276
97558SOL     OW94506   9.748   4.536   6.198
97558SOL    HW194507   9.814   4.521   6.130
97558SOL    HW294508   9.727   4.448   6.230
97559SOL     OW94509   7.433   2.029   6.018
97559SOL    HW194510   7.415   1.954   5.961
97559SOL    HW294511   7.528   2.029   6.029
97560SOL     OW94512   2.750   9.191   3.555
97560SOL    HW194513   2.761   9.286   3.563
97560SOL    HW294514   2.839   9.157   3.545
97561SOL     OW94515   8.538  13.653   4.890
97561SOL    HW194516   8.452  13.682   4.921
97561SOL    HW294517   8.521  13.570   4.845
97562SOL     OW94518   7.620   7.268  11.560
97562SOL    HW194519   7.546   7.296  11.614
97562SOL    HW294520   7.695   7.312  11.598
97563SOL     OW94521   8.883   4.310   9.653
97563SOL    HW194522   8.819   4.261   9.704
97563SOL    HW294523   8.865   4.402   9.673
97564SOL     OW94524   5.334   3.509   9.473
97564SOL    HW194525   5.354   3.484   9.383
97564SOL    HW294526   5.239   3.517   9.475
97565SOL     OW94527   4.458   7.907   7.212
97565SOL    HW194528   4.539   7.957   7.202
97565SOL    HW294529   4.426   7.931   7.299
97566SOL     OW94530  14.343   4.746  10.059
97566SOL    HW194531  14.396   4.798   9.998
97566SOL    HW294532  14.259   4.735  10.015
97567SOL     OW94533  14.600   8.854   7.408
97567SOL    HW194534  14.663   8.922   7.386
97567SOL    HW294535  14.646   8.772   7.389
97568SOL     OW94536   4.970   9.513   3.466
97568SOL    HW194537   5.041   9.571   3.495
97568SOL    HW294538   4.894   9.539   3.518
97569SOL     OW94539  14.473   1.932   8.922
97569SOL    HW194540  14.508   1.846   8.898
97569SOL    HW294541  14.541   1.972   8.976
97570SOL     OW94542  11.377   4.852   8.053
97570SOL    HW194543  11.306   4.810   8.102
97570SOL    HW294544  11.336   4.931   8.015
97571SOL     OW94545  13.718   7.605  11.414
97571SOL    HW194546  13.638   7.598  11.465
97571SOL    HW294547  13.763   7.522  11.428
97572SOL     OW94548   9.338   9.228  11.997
97572SOL    HW194549   9.304   9.314  11.972
97572SOL    HW294550   9.395   9.203  11.924
97573SOL     OW94551  10.008  11.505   5.548
97573SOL    HW194552   9.971  11.419   5.567
97573SOL    HW294553   9.978  11.526   5.459
97574SOL     OW94554  13.508   2.250  12.195
97574SOL    HW194555  13.567   2.288  12.259
97574SOL    HW294556  13.559   2.181  12.152
97575SOL     OW94557  11.464   0.857   4.445
97575SOL    HW194558  11.481   0.923   4.512
97575SOL    HW294559  11.372   0.832   4.457
97576SOL     OW94560  13.268   0.615   0.570
97576SOL    HW194561  13.225   0.689   0.612
97576SOL    HW294562  13.351   0.607   0.617
97577SOL     OW94563   4.871   8.272   1.799
97577SOL    HW194564   4.826   8.196   1.761
97577SOL    HW294565   4.804   8.341   1.801
97578SOL     OW94566   6.748   5.948  14.025
97578SOL    HW194567   6.674   5.888  14.033
97578SOL    HW294568   6.809   5.921  14.093
97579SOL     OW94569   0.332   4.733  13.931
97579SOL    HW194570   0.239   4.755  13.922
97579SOL    HW294571   0.359   4.779  14.010
97580SOL     OW94572   7.926   9.906  14.408
97580SOL    HW194573   8.001   9.867  14.364
97580SOL    HW294574   7.850   9.872  14.361
97581SOL     OW94575   8.053   8.077   8.767
97581SOL    HW194576   7.980   8.121   8.811
97581SOL    HW294577   8.118   8.147   8.754
97582SOL     OW94578   5.968   4.847   9.469
97582SOL    HW194579   6.060   4.820   9.472
97582SOL    HW294580   5.966   4.922   9.409
97583SOL     OW94581   8.942   0.110  12.721
97583SOL    HW194582   9.018   0.166  12.741
97583SOL    HW294583   8.883   0.124  12.796
97584SOL     OW94584   7.096   2.180   0.727
97584SOL    HW194585   7.187   2.197   0.754
97584SOL    HW294586   7.045   2.194   0.807
97585SOL     OW94587  11.286   8.540   0.248
97585SOL    HW194588  11.263   8.631   0.234
97585SOL    HW294589  11.352   8.542   0.317
97586SOL     OW94590  10.002   5.837   6.053
97586SOL    HW194591   9.973   5.894   5.982
97586SOL    HW294592   9.980   5.748   6.024
97587SOL     OW94593   6.585   6.160   6.738
97587SOL    HW194594   6.541   6.212   6.806
97587SOL    HW294595   6.527   6.085   6.724
97588SOL     OW94596   3.837   4.075   0.618
97588SOL    HW194597   3.793   4.044   0.539
97588SOL    HW294598   3.813   4.168   0.624
97589SOL     OW94599  10.526  14.151  12.119
97589SOL    HW194600  10.609  14.186  12.085
97589SOL    HW294601  10.553  14.087  12.185
97590SOL     OW94602   5.400   3.031   4.943
97590SOL    HW194603   5.319   3.070   4.975
97590SOL    HW294604   5.469   3.075   4.993
97591SOL     OW94605   8.137   7.576  10.688
97591SOL    HW194606   8.220   7.534  10.666
97591SOL    HW294607   8.113   7.624  10.608
97592SOL     OW94608   1.300  14.867   2.945
97592SOL    HW194609   1.309   0.058   3.009
97592SOL    HW294610   1.217   0.004   2.902
97593SOL     OW94611  13.229  13.730   4.392
97593SOL    HW194612  13.145  13.690   4.413
97593SOL    HW294613  13.294  13.669   4.429
97594SOL     OW94614  14.383   4.136   8.597
97594SOL    HW194615  14.360   4.203   8.533
97594SOL    HW294616  14.305   4.129   8.653
97595SOL     OW94617   6.826  10.445   9.645
97595SOL    HW194618   6.788  10.523   9.685
97595SOL    HW294619   6.847  10.471   9.556
97596SOL     OW94620   1.602   9.671   1.703
97596SOL    HW194621   1.537   9.602   1.719
97596SOL    HW294622   1.685   9.634   1.735
97597SOL     OW94623   7.677   8.476  10.837
97597SOL    HW194624   7.628   8.542  10.885
97597SOL    HW294625   7.662   8.395  10.887
97598SOL     OW94626   6.749   5.541   3.814
97598SOL    HW194627   6.687   5.470   3.800
97598SOL    HW294628   6.702   5.620   3.790
97599SOL     OW94629   1.085   7.934   3.337
97599SOL    HW194630   1.171   7.972   3.317
97599SOL    HW294631   1.072   7.868   3.269
97600SOL     OW94632   9.197   5.669   9.515
97600SOL    HW194633   9.209   5.655   9.421
97600SOL    HW294634   9.278   5.638   9.555
97601SOL     OW94635   0.493   5.512  14.395
97601SOL    HW194636   0.579   5.486  14.363
97601SOL    HW294637   0.510   5.592  14.446
97602SOL     OW94638   6.655  12.593   8.306
97602SOL    HW194639   6.643  12.598   8.211
97602SOL    HW294640   6.648  12.684   8.335
97603SOL     OW94641   6.223   0.214   7.747
97603SOL    HW194642   6.129   0.230   7.755
97603SOL    HW294643   6.253   0.202   7.837
97604SOL     OW94644   6.189   4.171   7.403
97604SOL    HW194645   6.229   4.088   7.429
97604SOL    HW294646   6.157   4.209   7.485
97605SOL     OW94647   5.235  13.815   2.318
97605SOL    HW194648   5.177  13.879   2.360
97605SOL    HW294649   5.209  13.731   2.357
97606SOL     OW94650   5.316   5.968  10.410
97606SOL    HW194651   5.258   6.014  10.470
97606SOL    HW294652   5.259   5.937  10.339
97607SOL     OW94653  14.322   2.947   5.482
97607SOL    HW194654  14.413   2.917   5.473
97607SOL    HW294655  14.325   3.016   5.548
97608SOL     OW94656   6.045   8.332  12.614
97608SOL    HW194657   5.956   8.296  12.616
97608SOL    HW294658   6.032   8.425  12.592
97609SOL     OW94659   9.289   9.898  12.982
97609SOL    HW194660   9.364   9.905  12.923
97609SOL    HW294661   9.214   9.880  12.925
97610SOL     OW94662  12.400  14.357   4.422
97610SOL    HW194663  12.356  14.416   4.360
97610SOL    HW294664  12.347  14.363   4.502
97611SOL     OW94665  13.029   5.526   8.539
97611SOL    HW194666  12.943   5.487   8.530
97611SOL    HW294667  13.090   5.456   8.517
97612SOL     OW94668  13.444  12.306   9.876
97612SOL    HW194669  13.350  12.314   9.891
97612SOL    HW294670  13.455  12.216   9.844
97613SOL     OW94671  13.468   5.027   2.325
97613SOL    HW194672  13.461   5.052   2.233
97613SOL    HW294673  13.488   4.934   2.323
97614SOL     OW94674  12.705   0.562  10.857
97614SOL    HW194675  12.758   0.499  10.807
97614SOL    HW294676  12.648   0.508  10.910
97615SOL     OW94677   9.963   9.836  10.417
97615SOL    HW194678   9.955   9.823  10.323
97615SOL    HW294679   9.902   9.773  10.455
97616SOL     OW94680  11.400  12.600  11.004
97616SOL    HW194681  11.422  12.664  10.936
97616SOL    HW294682  11.425  12.643  11.086
97617SOL     OW94683   2.842   7.048   3.363
97617SOL    HW194684   2.847   7.143   3.373
97617SOL    HW294685   2.917   7.025   3.308
97618SOL     OW94686   5.222   5.818   4.793
97618SOL    HW194687   5.143   5.767   4.811
97618SOL    HW294688   5.286   5.786   4.857
97619SOL     OW94689   1.996   2.271   5.916
97619SOL    HW194690   1.976   2.359   5.947
97619SOL    HW294691   1.930   2.215   5.958
97620SOL     OW94692   6.431  11.088  11.555
97620SOL    HW194693   6.412  11.109  11.463
97620SOL    HW294694   6.409  10.995  11.563
97621SOL     OW94695   9.844  14.219  12.021
97621SOL    HW194696   9.810  14.141  12.065
97621SOL    HW294697   9.909  14.186  11.959
97622SOL     OW94698   1.399  10.930   5.579
97622SOL    HW194699   1.379  10.894   5.665
97622SOL    HW294700   1.473  10.989   5.594
97623SOL     OW94701  12.204   6.872   2.545
97623SOL    HW194702  12.231   6.793   2.592
97623SOL    HW294703  12.284   6.904   2.503
97624SOL     OW94704   1.439   0.769   0.441
97624SOL    HW194705   1.509   0.719   0.400
97624SOL    HW294706   1.429   0.730   0.527
97625SOL     OW94707   8.319   4.725   5.003
97625SOL    HW194708   8.286   4.675   4.929
97625SOL    HW294709   8.241   4.745   5.055
97626SOL     OW94710  14.062   2.405   8.499
97626SOL    HW194711  14.061   2.492   8.539
97626SOL    HW294712  13.979   2.366   8.524
97627SOL     OW94713   9.268  13.361   1.809
97627SOL    HW194714   9.324  13.282   1.804
97627SOL    HW294715   9.327  13.430   1.839
97628SOL     OW94716   7.394   1.781  14.464
97628SOL    HW194717   7.319   1.744  14.510
97628SOL    HW294718   7.356   1.828  14.390
97629SOL     OW94719   6.826   4.399  13.277
97629SOL    HW194720   6.737   4.371  13.257
97629SOL    HW294721   6.876   4.317  13.281
97630SOL     OW94722   8.027   1.791  11.582
97630SOL    HW194723   8.095   1.757  11.640
97630SOL    HW294724   8.074   1.850  11.523
97631SOL     OW94725  14.188  12.701  10.140
97631SOL    HW194726  14.247  12.725  10.212
97631SOL    HW294727  14.103  12.734  10.167
97632SOL     OW94728   0.851  14.726   2.466
97632SOL    HW194729   0.823  14.709   2.556
97632SOL    HW294730   0.935  14.679   2.457
97633SOL     OW94731  13.026  12.449   9.092
97633SOL    HW194732  13.084  12.419   9.022
97633SOL    HW294733  13.085  12.489   9.156
97634SOL     OW94734   1.853   8.681   1.749
97634SOL    HW194735   1.919   8.690   1.818
97634SOL    HW294736   1.902   8.648   1.673
97635SOL     OW94737   2.647  12.324  13.725
97635SOL    HW194738   2.633  12.371  13.807
97635SOL    HW294739   2.697  12.246  13.749
97636SOL     OW94740   2.642  13.657   7.288
97636SOL    HW194741   2.709  13.700   7.340
97636SOL    HW294742   2.614  13.723   7.224
97637SOL     OW94743   8.360   8.236   0.731
97637SOL    HW194744   8.406   8.157   0.761
97637SOL    HW294745   8.428   8.303   0.728
97638SOL     OW94746   5.310   8.514  11.305
97638SOL    HW194747   5.304   8.529  11.211
97638SOL    HW294748   5.320   8.419  11.314
97639SOL     OW94749   8.687   6.430   5.111
97639SOL    HW194750   8.657   6.372   5.041
97639SOL    HW294751   8.716   6.371   5.180
97640SOL     OW94752   2.303   5.375   3.586
97640SOL    HW194753   2.326   5.461   3.620
97640SOL    HW294754   2.277   5.391   3.495
97641SOL     OW94755  10.573   2.755   0.834
97641SOL    HW194756  10.641   2.697   0.869
97641SOL    HW294757  10.495   2.700   0.829
97642SOL     OW94758   4.067   1.676   1.431
97642SOL    HW194759   4.041   1.714   1.347
97642SOL    HW294760   4.162   1.685   1.432
97643SOL     OW94761  11.128   0.526  12.010
97643SOL    HW194762  11.206   0.489  12.052
97643SOL    HW294763  11.064   0.455  12.011
97644SOL     OW94764   5.007   7.536  10.726
97644SOL    HW194765   4.934   7.595  10.745
97644SOL    HW294766   5.071   7.591  10.681
97645SOL     OW94767   5.609  13.415   9.629
97645SOL    HW194768   5.609  13.508   9.652
97645SOL    HW294769   5.657  13.372   9.700
97646SOL     OW94770   6.417   6.327   9.941
97646SOL    HW194771   6.323   6.314   9.930
97646SOL    HW294772   6.438   6.400   9.883
97647SOL     OW94773  14.532   5.476  10.217
97647SOL    HW194774  14.625   5.487  10.235
97647SOL    HW294775  14.526   5.465  10.122
97648SOL     OW94776  12.986   1.840   0.790
97648SOL    HW194777  13.074   1.868   0.814
97648SOL    HW294778  12.928   1.909   0.824
97649SOL     OW94779  13.451   6.400   7.745
97649SOL    HW194780  13.443   6.495   7.739
97649SOL    HW294781  13.527   6.379   7.690
97650SOL     OW94782   0.808  12.591  14.459
97650SOL    HW194783   0.840  12.589  14.549
97650SOL    HW294784   0.729  12.538  14.460
97651SOL     OW94785   3.211  14.730   4.617
97651SOL    HW194786   3.221  14.637   4.638
97651SOL    HW294787   3.222  14.734   4.522
97652SOL     OW94788   0.226   3.799   1.461
97652SOL    HW194789   0.139   3.758   1.460
97652SOL    HW294790   0.282   3.737   1.415
97653SOL     OW94791  12.805   2.073  12.675
97653SOL    HW194792  12.853   1.996  12.706
97653SOL    HW294793  12.780   2.051  12.585
97654SOL     OW94794  13.660  11.962  12.018
97654SOL    HW194795  13.616  11.950  12.102
97654SOL    HW294796  13.727  12.028  12.034
97655SOL     OW94797   2.984   1.819   4.080
97655SOL    HW194798   3.054   1.817   4.015
97655SOL    HW294799   2.988   1.733   4.122
97656SOL     OW94800  12.990  12.247  12.171
97656SOL    HW194801  13.074  12.210  12.144
97656SOL    HW294802  13.014  12.323  12.224
97657SOL     OW94803   1.196   8.434   8.132
97657SOL    HW194804   1.282   8.394   8.130
97657SOL    HW294805   1.198   8.491   8.209
97658SOL     OW94806   7.509  13.422   1.220
97658SOL    HW194807   7.560  13.453   1.295
97658SOL    HW294808   7.554  13.342   1.192
97659SOL     OW94809   6.961   6.258   8.488
97659SOL    HW194810   6.876   6.281   8.525
97659SOL    HW294811   6.941   6.205   8.411
97660SOL     OW94812   7.436   4.864   4.430
97660SOL    HW194813   7.503   4.933   4.439
97660SOL    HW294814   7.376   4.879   4.503
97661SOL     OW94815   4.092   8.057  12.651
97661SOL    HW194816   4.120   8.067  12.560
97661SOL    HW294817   3.997   8.068  12.648
97662SOL     OW94818   6.563  13.614   1.105
97662SOL    HW194819   6.630  13.634   1.040
97662SOL    HW294820   6.578  13.677   1.176
97663SOL     OW94821   9.521   3.953   2.530
97663SOL    HW194822   9.428   3.974   2.540
97663SOL    HW294823   9.523   3.858   2.518
97664SOL     OW94824   2.059   5.918  14.244
97664SOL    HW194825   2.089   5.840  14.292
97664SOL    HW294826   2.077   5.991  14.304
97665SOL     OW94827  12.186   2.723   2.250
97665SOL    HW194828  12.200   2.639   2.294
97665SOL    HW294829  12.094   2.721   2.224
97666SOL     OW94830   5.512   5.745   3.176
97666SOL    HW194831   5.502   5.808   3.104
97666SOL    HW294832   5.568   5.676   3.140
97667SOL     OW94833   7.942   9.118   3.182
97667SOL    HW194834   8.026   9.157   3.157
97667SOL    HW294835   7.885   9.134   3.107
97668SOL     OW94836   5.145   2.683  13.549
97668SOL    HW194837   5.186   2.608  13.593
97668SOL    HW294838   5.056   2.654  13.530
97669SOL     OW94839   6.056   8.115   7.654
97669SOL    HW194840   6.005   8.077   7.726
97669SOL    HW294841   6.070   8.206   7.680
97670SOL     OW94842   4.603   5.536  11.857
97670SOL    HW194843   4.574   5.597  11.924
97670SOL    HW294844   4.651   5.591  11.794
97671SOL     OW94845  10.520   7.941   0.327
97671SOL    HW194846  10.579   8.016   0.321
97671SOL    HW294847  10.578   7.865   0.335
97672SOL     OW94848   9.744  14.663   7.642
97672SOL    HW194849   9.692  14.684   7.564
97672SOL    HW294850   9.827  14.631   7.608
97673SOL     OW94851   1.930   6.723   7.315
97673SOL    HW194852   1.962   6.677   7.392
97673SOL    HW294853   1.875   6.660   7.270
97674SOL     OW94854   4.101   4.196   8.579
97674SOL    HW194855   4.028   4.240   8.622
97674SOL    HW294856   4.175   4.206   8.639
97675SOL     OW94857   1.060  11.165   7.280
97675SOL    HW194858   1.036  11.233   7.217
97675SOL    HW294859   1.092  11.212   7.356
97676SOL     OW94860   1.211  12.145   6.864
97676SOL    HW194861   1.133  12.101   6.896
97676SOL    HW294862   1.179  12.224   6.821
97677SOL     OW94863   7.204  11.628  11.017
97677SOL    HW194864   7.289  11.588  11.034
97677SOL    HW294865   7.224  11.719  10.995
97678SOL     OW94866   9.663  11.635   2.092
97678SOL    HW194867   9.670  11.729   2.079
97678SOL    HW294868   9.686  11.622   2.184
97679SOL     OW94869   6.851   6.826   0.345
97679SOL    HW194870   6.915   6.765   0.307
97679SOL    HW294871   6.783   6.835   0.277
97680SOL     OW94872   2.309   7.321  10.733
97680SOL    HW194873   2.235   7.262  10.718
97680SOL    HW294874   2.298   7.350  10.824
97681SOL     OW94875   3.114  10.470   6.449
97681SOL    HW194876   3.077  10.491   6.535
97681SOL    HW294877   3.176  10.399   6.466
97682SOL     OW94878  14.434   3.775  13.856
97682SOL    HW194879  14.339   3.762  13.862
97682SOL    HW294880  14.456   3.748  13.767
97683SOL     OW94881   5.125   0.193  14.190
97683SOL    HW194882   5.150   0.234  14.273
97683SOL    HW294883   5.062   0.125  14.215
97684SOL     OW94884   6.500   0.455   0.574
97684SOL    HW194885   6.472   0.370   0.540
97684SOL    HW294886   6.594   0.458   0.558
97685SOL     OW94887  14.148   9.027  13.714
97685SOL    HW194888  14.216   9.078  13.758
97685SOL    HW294889  14.078   9.020  13.780
97686SOL     OW94890  13.876   5.207   9.446
97686SOL    HW194891  13.848   5.293   9.477
97686SOL    HW294892  13.844   5.203   9.356
97687SOL     OW94893   2.144  12.875   4.821
97687SOL    HW194894   2.224  12.885   4.873
97687SOL    HW294895   2.096  12.957   4.834
97688SOL     OW94896   4.423   5.175   8.102
97688SOL    HW194897   4.496   5.235   8.118
97688SOL    HW294898   4.345   5.228   8.119
97689SOL     OW94899   3.569   2.910   3.481
97689SOL    HW194900   3.609   2.826   3.463
97689SOL    HW294901   3.630   2.974   3.445
97690SOL     OW94902   2.441   4.906   4.872
97690SOL    HW194903   2.435   4.927   4.965
97690SOL    HW294904   2.532   4.925   4.849
97691SOL     OW94905  11.291   0.905  11.782
97691SOL    HW194906  11.234   0.979  11.761
97691SOL    HW294907  11.247   0.859  11.853
97692SOL     OW94908  12.671   0.166  14.621
97692SOL    HW194909  12.606   0.097  14.638
97692SOL    HW294910  12.679   0.168  14.526
97693SOL     OW94911   1.260   8.513   4.921
97693SOL    HW194912   1.313   8.573   4.972
97693SOL    HW294913   1.273   8.428   4.962
97694SOL     OW94914   4.741   1.954   9.733
97694SOL    HW194915   4.701   1.923   9.651
97694SOL    HW294916   4.813   1.892   9.749
97695SOL     OW94917   5.540  13.098   8.138
97695SOL    HW194918   5.581  13.092   8.224
97695SOL    HW294919   5.566  13.017   8.094
97696SOL     OW94920   3.255   3.894  13.284
97696SOL    HW194921   3.348   3.917  13.284
97696SOL    HW294922   3.228   3.902  13.376
97697SOL     OW94923  11.701   5.593   8.615
97697SOL    HW194924  11.668   5.682   8.609
97697SOL    HW294925  11.634   5.539   8.572
97698SOL     OW94926  12.295  12.357   8.979
97698SOL    HW194927  12.379  12.367   9.025
97698SOL    HW294928  12.313  12.386   8.890
97699SOL     OW94929  12.468  14.731   8.464
97699SOL    HW194930  12.477  14.750   8.557
97699SOL    HW294931  12.404  14.796   8.432
97700SOL     OW94932   2.133   8.314  11.449
97700SOL    HW194933   2.218   8.285  11.481
97700SOL    HW294934   2.086   8.343  11.528
97701SOL     OW94935   4.418  10.205   7.852
97701SOL    HW194936   4.481  10.276   7.859
97701SOL    HW294937   4.348  10.239   7.796
97702SOL     OW94938  14.579   1.524  14.039
97702SOL    HW194939  14.618   1.567  13.963
97702SOL    HW294940  14.513   1.586  14.070
97703SOL     OW94941   5.182   8.858   3.723
97703SOL    HW194942   5.271   8.828   3.703
97703SOL    HW294943   5.195   8.930   3.785
97704SOL     OW94944   5.213   8.242   9.620
97704SOL    HW194945   5.259   8.260   9.538
97704SOL    HW294946   5.177   8.328   9.646
97705SOL     OW94947   6.745   1.617   4.425
97705SOL    HW194948   6.734   1.696   4.373
97705SOL    HW294949   6.746   1.546   4.361
97706SOL     OW94950  12.380  13.033  13.485
97706SOL    HW194951  12.449  13.050  13.550
97706SOL    HW294952  12.319  13.105  13.496
97707SOL     OW94953  14.089   4.304   9.453
97707SOL    HW194954  14.086   4.398   9.433
97707SOL    HW294955  14.092   4.300   9.549
97708SOL     OW94956   1.002   4.572   3.199
97708SOL    HW194957   0.974   4.480   3.198
97708SOL    HW294958   0.921   4.622   3.193
97709SOL     OW94959   6.957   6.987   5.347
97709SOL    HW194960   6.962   6.922   5.277
97709SOL    HW294961   6.970   7.071   5.302
97710SOL     OW94962   5.203   3.343   4.711
97710SOL    HW194963   5.214   3.251   4.732
97710SOL    HW294964   5.246   3.354   4.626
97711SOL     OW94965   5.196  11.797   5.587
97711SOL    HW194966   5.245  11.723   5.549
97711SOL    HW294967   5.110  11.761   5.607
97712SOL     OW94968   1.333   0.542   5.066
97712SOL    HW194969   1.338   0.508   5.156
97712SOL    HW294970   1.422   0.570   5.047
97713SOL     OW94971  13.974  12.284  11.662
97713SOL    HW194972  14.053  12.271  11.608
97713SOL    HW294973  13.907  12.312  11.600
97714SOL     OW94974   4.785   5.886  13.980
97714SOL    HW194975   4.821   5.969  13.950
97714SOL    HW294976   4.764   5.900  14.072
97715SOL     OW94977   8.335  11.884   3.134
97715SOL    HW194978   8.273  11.852   3.069
97715SOL    HW294979   8.394  11.810   3.151
97716SOL     OW94980   6.781  14.056   0.464
97716SOL    HW194981   6.756  14.021   0.549
97716SOL    HW294982   6.736  14.000   0.401
97717SOL     OW94983   1.959   6.387  12.507
97717SOL    HW194984   1.949   6.294  12.528
97717SOL    HW294985   1.970   6.390  12.412
97718SOL     OW94986   9.227   7.649   8.892
97718SOL    HW194987   9.270   7.590   8.955
97718SOL    HW294988   9.136   7.619   8.889
97719SOL     OW94989   1.436   9.722   9.195
97719SOL    HW194990   1.438   9.627   9.184
97719SOL    HW294991   1.528   9.747   9.205
97720SOL     OW94992   8.040   9.356   3.600
97720SOL    HW194993   8.032   9.374   3.507
97720SOL    HW294994   8.069   9.439   3.639
97721SOL     OW94995   2.403  11.880   7.051
97721SOL    HW194996   2.397  11.890   7.146
97721SOL    HW294997   2.338  11.812   7.031
97722SOL     OW94998  14.052   5.975   2.571
97722SOL    HW194999  13.972   6.027   2.586
97722SOL    HW295000  14.060   5.970   2.476
97723SOL     OW95001  12.324   8.471   3.258
97723SOL    HW195002  12.275   8.552   3.243
97723SOL    HW295003  12.277   8.405   3.208
97724SOL     OW95004  10.565   8.936  12.194
97724SOL    HW195005  10.551   8.938  12.288
97724SOL    HW295006  10.660   8.924  12.184
97725SOL     OW95007   2.882   2.812   6.981
97725SOL    HW195008   2.803   2.810   7.034
97725SOL    HW295009   2.907   2.720   6.970
97726SOL     OW95010  10.530   3.155   6.844
97726SOL    HW195011  10.466   3.125   6.779
97726SOL    HW295012  10.609   3.103   6.825
97727SOL     OW95013  13.306   0.978   0.271
97727SOL    HW195014  13.325   1.008   0.182
97727SOL    HW295015  13.245   1.043   0.306
97728SOL     OW95016   0.706   0.925   6.588
97728SOL    HW195017   0.701   0.839   6.630
97728SOL    HW295018   0.686   0.987   6.658
97729SOL     OW95019   8.038   8.851   8.683
97729SOL    HW195020   8.063   8.940   8.710
97729SOL    HW295021   8.019   8.859   8.589
97730SOL     OW95022   9.181   5.074   2.038
97730SOL    HW195023   9.102   5.038   2.079
97730SOL    HW295024   9.149   5.116   1.958
97731SOL     OW95025   6.591  10.876  10.578
97731SOL    HW195026   6.625  10.915  10.659
97731SOL    HW295027   6.669  10.843  10.534
97732SOL     OW95028   6.358   8.650  11.520
97732SOL    HW195029   6.282   8.708  11.517
97732SOL    HW295030   6.391   8.651  11.430
97733SOL     OW95031   5.178  12.820   8.705
97733SOL    HW195032   5.124  12.805   8.627
97733SOL    HW295033   5.115  12.852   8.771
97734SOL     OW95034   8.068   1.633   8.387
97734SOL    HW195035   8.133   1.682   8.336
97734SOL    HW295036   8.115   1.556   8.418
97735SOL     OW95037  10.096  13.374   9.687
97735SOL    HW195038  10.049  13.451   9.655
97735SOL    HW295039  10.184  13.383   9.651
97736SOL     OW95040  14.776   5.415  13.884
97736SOL    HW195041  14.750   5.359  13.810
97736SOL    HW295042  14.721   5.493  13.876
97737SOL     OW95043   6.520   6.673  11.643
97737SOL    HW195044   6.558   6.626  11.718
97737SOL    HW295045   6.492   6.604  11.584
97738SOL     OW95046   8.556   9.498   7.946
97738SOL    HW195047   8.487   9.504   7.880
97738SOL    HW295048   8.518   9.535   8.025
97739SOL     OW95049  11.715  14.696  13.861
97739SOL    HW195050  11.721  14.622  13.800
97739SOL    HW295051  11.799  14.696  13.907
97740SOL     OW95052   2.889   7.490  13.143
97740SOL    HW195053   2.853   7.416  13.094
97740SOL    HW295054   2.953   7.529  13.084
97741SOL     OW95055  10.780   0.932   8.139
97741SOL    HW195056  10.842   0.938   8.067
97741SOL    HW295057  10.699   0.901   8.098
97742SOL     OW95058   7.876  10.244  14.698
97742SOL    HW195059   7.807  10.234  14.633
97742SOL    HW295060   7.933  10.167  14.685
97743SOL     OW95061   1.588   6.618  10.826
97743SOL    HW195062   1.672   6.662  10.812
97743SOL    HW295063   1.585   6.551  10.757
97744SOL     OW95064  13.769   6.255  13.301
97744SOL    HW195065  13.704   6.213  13.357
97744SOL    HW295066  13.799   6.331  13.351
97745SOL     OW95067   0.908   4.514  14.816
97745SOL    HW195068   0.971   4.523  14.744
97745SOL    HW295069   0.830   4.477  14.775
97746SOL     OW95070  10.587   6.873   2.164
97746SOL    HW195071  10.576   6.966   2.187
97746SOL    HW295072  10.615   6.874   2.073
97747SOL     OW95073  10.413   9.259   6.758
97747SOL    HW195074  10.425   9.205   6.680
97747SOL    HW295075  10.477   9.330   6.749
97748SOL     OW95076   7.801  14.596   6.407
97748SOL    HW195077   7.789  14.602   6.502
97748SOL    HW295078   7.765  14.677   6.373
97749SOL     OW95079   6.688  13.895  12.325
97749SOL    HW195080   6.767  13.945  12.308
97749SOL    HW295081   6.699  13.862  12.414
97750SOL     OW95082   4.755  10.699  12.995
97750SOL    HW195083   4.845  10.704  13.028
97750SOL    HW295084   4.730  10.790  12.981
97751SOL     OW95085  12.223   8.670   5.716
97751SOL    HW195086  12.154   8.604   5.728
97751SOL    HW295087  12.183   8.751   5.746
97752SOL     OW95088   2.178   5.152  11.454
97752SOL    HW195089   2.135   5.145  11.369
97752SOL    HW295090   2.212   5.242  11.456
97753SOL     OW95091   6.747   2.807   9.628
97753SOL    HW195092   6.670   2.772   9.582
97753SOL    HW295093   6.733   2.902   9.629
97754SOL     OW95094   0.651   4.650   3.236
97754SOL    HW195095   0.603   4.589   3.179
97754SOL    HW295096   0.690   4.713   3.175
97755SOL     OW95097  13.014  11.118  12.024
97755SOL    HW195098  12.975  11.115  11.937
97755SOL    HW295099  12.963  11.055  12.075
97756SOL     OW95100   6.306   5.802  13.035
97756SOL    HW195101   6.329   5.808  12.942
97756SOL    HW295102   6.255   5.881  13.052
97757SOL     OW95103   1.247   0.032   9.950
97757SOL    HW195104   1.289   0.034  10.036
97757SOL    HW295105   1.301  14.851   9.899
97758SOL     OW95106  12.480  12.229   2.683
97758SOL    HW195107  12.527  12.281   2.748
97758SOL    HW295108  12.418  12.291   2.644
97759SOL     OW95109   6.959   4.316   3.063
97759SOL    HW195110   6.958   4.411   3.076
97759SOL    HW295111   6.876   4.285   3.100
97760SOL     OW95112  13.146   9.880   4.311
97760SOL    HW195113  13.159   9.825   4.389
97760SOL    HW295114  13.184   9.830   4.239
97761SOL     OW95115   0.635  13.138   0.624
97761SOL    HW195116   0.626  13.226   0.589
97761SOL    HW295117   0.554  13.093   0.599
97762SOL     OW95118   6.309  11.859   4.583
97762SOL    HW195119   6.239  11.843   4.646
97762SOL    HW295120   6.388  11.869   4.636
97763SOL     OW95121  10.195   3.302   8.575
97763SOL    HW195122  10.132   3.255   8.630
97763SOL    HW295123  10.236   3.234   8.522
97764SOL     OW95124   1.058  12.210   4.800
97764SOL    HW195125   1.028  12.296   4.769
97764SOL    HW295126   1.116  12.231   4.873
97765SOL     OW95127   2.325   9.687  14.248
97765SOL    HW195128   2.413   9.697  14.282
97765SOL    HW295129   2.311   9.593  14.241
97766SOL     OW95130  12.966   4.566   3.416
97766SOL    HW195131  12.993   4.636   3.356
97766SOL    HW295132  12.884   4.534   3.379
97767SOL     OW95133  13.510  11.213   5.784
97767SOL    HW195134  13.454  11.141   5.755
97767SOL    HW295135  13.508  11.276   5.712
97768SOL     OW95136  14.350   0.022   7.863
97768SOL    HW195137  14.299   0.097   7.894
97768SOL    HW295138  14.345   0.026   7.768
97769SOL     OW95139   1.969   8.108  14.824
97769SOL    HW195140   1.923   8.166   0.006
97769SOL    HW295141   1.940   8.137  14.738
97770SOL     OW95142   2.301  14.833  11.242
97770SOL    HW195143   2.394  14.847  11.263
97770SOL    HW295144   2.286  14.740  11.257
97771SOL     OW95145  12.059  12.178   5.823
97771SOL    HW195146  12.119  12.250   5.844
97771SOL    HW295147  12.104  12.130   5.753
97772SOL     OW95148   8.256   6.767   0.016
97772SOL    HW195149   8.163   6.771  14.875
97772SOL    HW295150   8.299   6.803  14.818
97773SOL     OW95151   8.556  12.381  10.487
97773SOL    HW195152   8.500  12.317  10.532
97773SOL    HW295153   8.638  12.334  10.472
97774SOL     OW95154   3.959  12.322   9.474
97774SOL    HW195155   3.883  12.274   9.507
97774SOL    HW295156   3.933  12.352   9.387
97775SOL     OW95157   2.014   0.318   6.593
97775SOL    HW195158   1.922   0.292   6.580
97775SOL    HW295159   2.030   0.385   6.527
97776SOL     OW95160   6.232   8.175   0.330
97776SOL    HW195161   6.226   8.110   0.260
97776SOL    HW295162   6.314   8.220   0.315
97777SOL     OW95163  10.565  12.805  14.081
97777SOL    HW195164  10.582  12.726  14.132
97777SOL    HW295165  10.482  12.839  14.116
97778SOL     OW95166  14.109   3.158  10.026
97778SOL    HW195167  14.165   3.080  10.029
97778SOL    HW295168  14.024   3.127  10.058
97779SOL     OW95169  10.820   0.312   7.780
97779SOL    HW195170  10.773   0.358   7.849
97779SOL    HW295171  10.840   0.226   7.817
97780SOL     OW95172   9.884  13.546  12.081
97780SOL    HW195173   9.812  13.556  12.019
97780SOL    HW295174   9.846  13.498  12.155
97781SOL     OW95175   9.109   3.195   9.090
97781SOL    HW195176   9.081   3.114   9.046
97781SOL    HW295177   9.180   3.167   9.148
97782SOL     OW95178  10.870  12.912   9.027
97782SOL    HW195179  10.941  12.898   8.965
97782SOL    HW295180  10.913  12.918   9.112
97783SOL     OW95181  10.021   0.065   8.377
97783SOL    HW195182   9.966   0.046   8.300
97783SOL    HW295183  10.099   0.010   8.364
97784SOL     OW95184   9.342  13.997   3.139
97784SOL    HW195185   9.393  14.042   3.207
97784SOL    HW295186   9.397  13.922   3.115
97785SOL     OW95187   4.620  12.409  14.320
97785SOL    HW195188   4.661  12.479  14.270
97785SOL    HW295189   4.606  12.339  14.257
97786SOL     OW95190   4.515   8.565   5.647
97786SOL    HW195191   4.595   8.601   5.609
97786SOL    HW295192   4.545   8.498   5.708
97787SOL     OW95193  12.152   7.631  11.237
97787SOL    HW195194  12.099   7.596  11.309
97787SOL    HW295195  12.213   7.560  11.215
97788SOL     OW95196   6.477   4.477   9.820
97788SOL    HW195197   6.569   4.480   9.793
97788SOL    HW295198   6.479   4.438   9.907
97789SOL     OW95199   4.254   9.237   7.022
97789SOL    HW195200   4.272   9.319   6.977
97789SOL    HW295201   4.167   9.211   6.993
97790SOL     OW95202  14.277   6.189  12.475
97790SOL    HW195203  14.249   6.275  12.504
97790SOL    HW295204  14.284   6.197  12.380
97791SOL     OW95205   0.713   8.738   5.223
97791SOL    HW195206   0.671   8.677   5.163
97791SOL    HW295207   0.762   8.798   5.166
97792SOL     OW95208  10.587  11.998  12.343
97792SOL    HW195209  10.542  11.967  12.422
97792SOL    HW295210  10.555  12.088  12.332
97793SOL     OW95211  11.363   9.428  12.654
97793SOL    HW195212  11.421   9.351  12.653
97793SOL    HW295213  11.363   9.457  12.563
97794SOL     OW95214   4.157   0.718   6.666
97794SOL    HW195215   4.136   0.809   6.688
97794SOL    HW295216   4.173   0.720   6.572
97795SOL     OW95217  14.508   3.592   0.964
97795SOL    HW195218  14.414   3.607   0.966
97795SOL    HW295219  14.543   3.662   0.909
97796SOL     OW95220   2.622   1.540  12.784
97796SOL    HW195221   2.532   1.550  12.817
97796SOL    HW295222   2.612   1.521  12.691
97797SOL     OW95223   8.076  10.528  13.456
97797SOL    HW195224   8.107  10.521  13.365
97797SOL    HW295225   7.995  10.477  13.457
97798SOL     OW95226  12.463  13.020  10.495
97798SOL    HW195227  12.441  13.077  10.569
97798SOL    HW295228  12.474  13.080  10.421
97799SOL     OW95229  14.677  14.575   6.300
97799SOL    HW195230  14.743  14.537   6.358
97799SOL    HW295231  14.702  14.667   6.293
97800SOL     OW95232   1.728   1.136  11.138
97800SOL    HW195233   1.807   1.189  11.127
97800SOL    HW295234   1.710   1.101  11.051
97801SOL     OW95235   2.005   9.114  10.618
97801SOL    HW195236   2.006   9.209  10.619
97801SOL    HW295237   2.096   9.089  10.634
97802SOL     OW95238  13.687   2.557   4.013
97802SOL    HW195239  13.695   2.615   3.938
97802SOL    HW295240  13.695   2.469   3.977
97803SOL     OW95241   9.950   6.482   7.824
97803SOL    HW195242  10.025   6.542   7.826
97803SOL    HW295243   9.951   6.440   7.909
97804SOL     OW95244  10.119  10.963  12.830
97804SOL    HW195245  10.029  10.933  12.829
97804SOL    HW295246  10.149  10.952  12.740
97805SOL     OW95247  14.600   4.135   7.826
97805SOL    HW195248  14.591   4.040   7.824
97805SOL    HW295249  14.541   4.163   7.895
97806SOL     OW95250   9.207  13.071   8.923
97806SOL    HW195251   9.255  13.137   8.974
97806SOL    HW295252   9.182  13.116   8.843
97807SOL     OW95253   0.350   2.996   8.341
97807SOL    HW195254   0.308   2.930   8.396
97807SOL    HW295255   0.403   3.048   8.402
97808SOL     OW95256  14.242  12.996   1.035
97808SOL    HW195257  14.177  12.990   0.965
97808SOL    HW295258  14.253  13.091   1.048
97809SOL     OW95259   5.036   9.887   2.569
97809SOL    HW195260   5.108   9.827   2.551
97809SOL    HW295261   5.077   9.972   2.580
97810SOL     OW95262   0.050   9.510  12.614
97810SOL    HW195263   0.039   9.562  12.694
97810SOL    HW295264   0.130   9.543  12.574
97811SOL     OW95265  14.695   7.815   4.091
97811SOL    HW195266  14.695   7.722   4.112
97811SOL    HW295267  14.623   7.851   4.142
97812SOL     OW95268   9.162   9.382  14.204
97812SOL    HW195269   9.231   9.414  14.145
97812SOL    HW295270   9.081   9.394  14.154
97813SOL     OW95271   1.707  12.567   0.784
97813SOL    HW195272   1.651  12.583   0.707
97813SOL    HW295273   1.708  12.472   0.793
97814SOL     OW95274  10.138   1.199   7.641
97814SOL    HW195275  10.114   1.247   7.720
97814SOL    HW295276  10.228   1.226   7.623
97815SOL     OW95277   3.451   2.640   2.309
97815SOL    HW195278   3.483   2.722   2.272
97815SOL    HW295279   3.432   2.659   2.401
97816SOL     OW95280   9.751   1.209  11.190
97816SOL    HW195281   9.709   1.282  11.143
97816SOL    HW295282   9.716   1.131  11.147
97817SOL     OW95283   3.692  11.098  12.758
97817SOL    HW195284   3.631  11.119  12.829
97817SOL    HW295285   3.668  11.157  12.687
97818SOL     OW95286  11.263   2.612  11.275
97818SOL    HW195287  11.222   2.558  11.343
97818SOL    HW295288  11.260   2.558  11.197
97819SOL     OW95289  10.267   3.927   3.204
97819SOL    HW195290  10.174   3.948   3.203
97819SOL    HW295291  10.276   3.855   3.142
97820SOL     OW95292   7.950  12.944   6.105
97820SOL    HW195293   7.877  12.891   6.137
97820SOL    HW295294   7.909  13.009   6.047
97821SOL     OW95295   6.041   2.016  10.594
97821SOL    HW195296   6.062   2.024  10.687
97821SOL    HW295297   6.098   2.080  10.551
97822SOL     OW95298   5.813  12.186   7.843
97822SOL    HW195299   5.769  12.126   7.783
97822SOL    HW295300   5.745  12.247   7.871
97823SOL     OW95301  14.387   5.494   0.559
97823SOL    HW195302  14.408   5.587   0.562
97823SOL    HW295303  14.321   5.481   0.627
97824SOL     OW95304   5.009   4.552  13.194
97824SOL    HW195305   4.984   4.615  13.127
97824SOL    HW295306   5.104   4.556  13.196
97825SOL     OW95307  12.322   9.900  10.782
97825SOL    HW195308  12.273   9.977  10.810
97825SOL    HW295309  12.414   9.921  10.803
97826SOL     OW95310   7.677   6.807  12.491
97826SOL    HW195311   7.597   6.760  12.469
97826SOL    HW295312   7.662   6.897  12.463
97827SOL     OW95313   2.663   2.975  13.281
97827SOL    HW195314   2.725   3.025  13.335
97827SOL    HW295315   2.668   2.886  13.315
97828SOL     OW95316   1.961  13.747   0.263
97828SOL    HW195317   2.043  13.774   0.306
97828SOL    HW295318   1.893  13.770   0.326
97829SOL     OW95319   4.516   9.369   7.569
97829SOL    HW195320   4.587   9.308   7.589
97829SOL    HW295321   4.453   9.318   7.520
97830SOL     OW95322   6.135   7.273  11.720
97830SOL    HW195323   6.129   7.364  11.690
97830SOL    HW295324   6.105   7.222  11.645
97831SOL     OW95325  10.165   1.728   4.059
97831SOL    HW195326  10.219   1.753   3.984
97831SOL    HW295327  10.114   1.652   4.029
97832SOL     OW95328   6.495  12.814  12.730
97832SOL    HW195329   6.433  12.785  12.796
97832SOL    HW295330   6.440  12.856  12.663
97833SOL     OW95331   2.361   1.945  13.403
97833SOL    HW195332   2.307   1.960  13.480
97833SOL    HW295333   2.306   1.892  13.345
97834SOL     OW95334   4.087   4.032   0.338
97834SOL    HW195335   4.118   4.009   0.251
97834SOL    HW295336   4.018   3.969   0.356
97835SOL     OW95337   1.837  12.142   0.379
97835SOL    HW195338   1.756  12.130   0.427
97835SOL    HW295339   1.900  12.171   0.444
97836SOL     OW95340   5.071   2.357   2.064
97836SOL    HW195341   5.049   2.392   2.151
97836SOL    HW295342   5.114   2.430   2.019
97837SOL     OW95343   3.631  13.679   2.264
97837SOL    HW195344   3.583  13.666   2.346
97837SOL    HW295345   3.610  13.603   2.211
97838SOL     OW95346  10.646  14.435  12.146
97838SOL    HW195347  10.740  14.413  12.148
97838SOL    HW295348  10.611  14.398  12.227
97839SOL     OW95349   5.911  10.524  11.333
97839SOL    HW195350   5.977  10.494  11.271
97839SOL    HW295351   5.960  10.555  11.408
97840SOL     OW95352   0.562  10.872   2.343
97840SOL    HW195353   0.485  10.915   2.379
97840SOL    HW295354   0.530  10.791   2.304
97841SOL     OW95355  14.303   1.923   4.085
97841SOL    HW195356  14.379   1.972   4.053
97841SOL    HW295357  14.280   1.966   4.167
97842SOL     OW95358  12.328   2.370   6.105
97842SOL    HW195359  12.301   2.279   6.090
97842SOL    HW295360  12.387   2.390   6.032
97843SOL     OW95361  12.576  11.088   4.904
97843SOL    HW195362  12.548  11.030   4.975
97843SOL    HW295363  12.500  11.144   4.887
97844SOL     OW95364   1.049   6.768  11.559
97844SOL    HW195365   1.008   6.852  11.537
97844SOL    HW295366   1.142   6.783  11.545
97845SOL     OW95367  14.106   7.761   5.740
97845SOL    HW195368  14.033   7.779   5.800
97845SOL    HW295369  14.130   7.847   5.706
97846SOL     OW95370  13.904   5.751  10.170
97846SOL    HW195371  13.829   5.798  10.205
97846SOL    HW295372  13.950   5.718  10.247
97847SOL     OW95373   4.657   9.526   2.531
97847SOL    HW195374   4.631   9.555   2.444
97847SOL    HW295375   4.604   9.579   2.591
97848SOL     OW95376  14.117  10.848  10.285
97848SOL    HW195377  14.150  10.774  10.337
97848SOL    HW295378  14.157  10.925  10.325
97849SOL     OW95379   7.656   0.867   8.064
97849SOL    HW195380   7.728   0.806   8.050
97849SOL    HW295381   7.631   0.896   7.977
97850SOL     OW95382   7.901   7.643  11.160
97850SOL    HW195383   7.835   7.709  11.141
97850SOL    HW295384   7.906   7.590  11.081
97851SOL     OW95385   6.583   0.298   3.361
97851SOL    HW195386   6.547   0.211   3.345
97851SOL    HW295387   6.523   0.357   3.316
97852SOL     OW95388  12.621   7.386   8.639
97852SOL    HW195389  12.641   7.345   8.723
97852SOL    HW295390  12.631   7.480   8.655
97853SOL     OW95391   9.621   9.059   7.634
97853SOL    HW195392   9.660   9.137   7.594
97853SOL    HW295393   9.531   9.059   7.602
97854SOL     OW95394   1.709  12.700   3.534
97854SOL    HW195395   1.729  12.767   3.600
97854SOL    HW295396   1.644  12.740   3.477
97855SOL     OW95397   1.577  11.646   3.892
97855SOL    HW195398   1.572  11.570   3.833
97855SOL    HW295399   1.485  11.666   3.912
97856SOL     OW95400   5.363  12.526  12.895
97856SOL    HW195401   5.282  12.573  12.878
97856SOL    HW295402   5.340  12.461  12.961
97857SOL     OW95403   0.358  14.283   1.716
97857SOL    HW195404   0.427  14.350   1.712
97857SOL    HW295405   0.310  14.293   1.634
97858SOL     OW95406   9.691   4.431   3.409
97858SOL    HW195407   9.753   4.408   3.340
97858SOL    HW295408   9.740   4.419   3.491
97859SOL     OW95409   9.533   3.357  14.273
97859SOL    HW195410   9.603   3.331  14.333
97859SOL    HW295411   9.527   3.285  14.210
97860SOL     OW95412  14.523  14.420  12.483
97860SOL    HW195413  14.477  14.469  12.414
97860SOL    HW295414  14.591  14.372  12.437
97861SOL     OW95415   1.847   8.178  11.276
97861SOL    HW195416   1.929   8.216  11.308
97861SOL    HW295417   1.824   8.112  11.342
97862SOL     OW95418  14.688   4.813  10.573
97862SOL    HW195419  14.593   4.821  10.564
97862SOL    HW295420  14.723   4.890  10.527
97863SOL     OW95421   2.621   5.653   4.790
97863SOL    HW195422   2.563   5.728   4.775
97863SOL    HW295423   2.571   5.596   4.849
97864SOL     OW95424   2.516   4.295   1.491
97864SOL    HW195425   2.575   4.309   1.418
97864SOL    HW295426   2.572   4.302   1.569
97865SOL     OW95427   0.368   1.500   3.902
97865SOL    HW195428   0.293   1.482   3.845
97865SOL    HW295429   0.350   1.586   3.939
97866SOL     OW95430  11.599   6.001   8.098
97866SOL    HW195431  11.680   5.984   8.146
97866SOL    HW295432  11.559   5.915   8.086
97867SOL     OW95433  14.343   6.602   3.709
97867SOL    HW195434  14.258   6.643   3.702
97867SOL    HW295435  14.357   6.593   3.803
97868SOL     OW95436   4.626   1.133   7.701
97868SOL    HW195437   4.570   1.064   7.735
97868SOL    HW295438   4.599   1.212   7.749
97869SOL     OW95439  14.144  14.197  14.455
97869SOL    HW195440  14.070  14.223  14.400
97869SOL    HW295441  14.220  14.202  14.397
97870SOL     OW95442  12.166   9.624  12.850
97870SOL    HW195443  12.113   9.585  12.920
97870SOL    HW295444  12.146   9.570  12.773
97871SOL     OW95445   2.405  11.930  11.757
97871SOL    HW195446   2.422  11.851  11.705
97871SOL    HW295447   2.485  11.941  11.810
97872SOL     OW95448   6.766  12.506  10.344
97872SOL    HW195449   6.671  12.507  10.341
97872SOL    HW295450   6.790  12.414  10.344
97873SOL     OW95451  14.263   4.081  12.871
97873SOL    HW195452  14.261   4.085  12.775
97873SOL    HW295453  14.336   4.023  12.891
97874SOL     OW95454  14.348   1.987  14.822
97874SOL    HW195455  14.373   1.929  14.751
97874SOL    HW295456  14.407   2.062  14.814
97875SOL     OW95457  14.683   9.975  14.646
97875SOL    HW195458  14.683  10.069  14.629
97875SOL    HW295459  14.617   9.940  14.586
97876SOL     OW95460  13.803  11.956   4.142
97876SOL    HW195461  13.711  11.934   4.151
97876SOL    HW295462  13.824  11.932   4.051
97877SOL     OW95463   4.410  12.531  13.712
97877SOL    HW195464   4.362  12.524  13.795
97877SOL    HW295465   4.353  12.583  13.656
97878SOL     OW95466  11.423  12.613   9.102
97878SOL    HW195467  11.414  12.557   9.025
97878SOL    HW295468  11.420  12.553   9.177
97879SOL     OW95469  10.969   0.860   3.426
97879SOL    HW195470  11.023   0.817   3.492
97879SOL    HW295471  10.881   0.824   3.440
97880SOL     OW95472   7.504  13.467  11.580
97880SOL    HW195473   7.449  13.472  11.502
97880SOL    HW295474   7.576  13.408  11.556
97881SOL     OW95475   9.525  11.889   5.463
97881SOL    HW195476   9.521  11.891   5.558
97881SOL    HW295477   9.439  11.855   5.436
97882SOL     OW95478  14.691   8.862   8.366
97882SOL    HW195479  14.745   8.786   8.346
97882SOL    HW295480  14.740   8.909   8.433
97883SOL     OW95481  14.720   2.015   4.904
97883SOL    HW195482  14.790   1.979   4.959
97883SOL    HW295483  14.759   2.093   4.863
97884SOL     OW95484   4.012  12.260   1.918
97884SOL    HW195485   4.103  12.242   1.895
97884SOL    HW295486   3.975  12.303   1.841
97885SOL     OW95487   9.375  10.680   3.787
97885SOL    HW195488   9.424  10.755   3.819
97885SOL    HW295489   9.283  10.702   3.805
97886SOL     OW95490   3.009   9.862   5.593
97886SOL    HW195491   3.105   9.866   5.588
97886SOL    HW295492   2.990   9.771   5.614
97887SOL     OW95493   2.462   6.690   4.226
97887SOL    HW195494   2.377   6.655   4.201
97887SOL    HW295495   2.491   6.632   4.297
97888SOL     OW95496   0.966   1.010  14.666
97888SOL    HW195497   0.891   0.950  14.670
97888SOL    HW295498   0.929   1.093  14.636
97889SOL     OW95499   2.379  11.952  14.788
97889SOL    HW195500   2.405  11.864  14.817
97889SOL    HW295501   2.284  11.951  14.789
97890SOL     OW95502  12.266  10.419  12.263
97890SOL    HW195503  12.178  10.400  12.295
97890SOL    HW295504  12.267  10.514  12.250
97891SOL     OW95505   9.223   1.949   7.500
97891SOL    HW195506   9.181   2.005   7.565
97891SOL    HW295507   9.226   2.002   7.421
97892SOL     OW95508  12.135  10.177   2.695
97892SOL    HW195509  12.070  10.247   2.700
97892SOL    HW295510  12.181  10.179   2.779
97893SOL     OW95511  12.382   8.560   1.506
97893SOL    HW195512  12.332   8.508   1.569
97893SOL    HW295513  12.442   8.612   1.559
97894SOL     OW95514  13.233   9.484  12.447
97894SOL    HW195515  13.252   9.421  12.378
97894SOL    HW295516  13.190   9.433  12.515
97895SOL     OW95517   9.822  13.063   3.049
97895SOL    HW195518   9.747  13.032   3.099
97895SOL    HW295519   9.883  12.990   3.048
97896SOL     OW95520   6.740   2.797   9.264
97896SOL    HW195521   6.687   2.729   9.305
97896SOL    HW295522   6.780   2.754   9.189
97897SOL     OW95523  11.217   9.039   3.083
97897SOL    HW195524  11.270   9.084   3.017
97897SOL    HW295525  11.150   9.103   3.109
97898SOL     OW95526   5.773   8.875   7.395
97898SOL    HW195527   5.811   8.947   7.445
97898SOL    HW295528   5.822   8.797   7.423
97899SOL     OW95529  11.472   4.169   1.376
97899SOL    HW195530  11.543   4.107   1.358
97899SOL    HW295531  11.517   4.252   1.393
97900SOL     OW95532   9.331   8.752   7.629
97900SOL    HW195533   9.292   8.725   7.712
97900SOL    HW295534   9.399   8.686   7.613
97901SOL     OW95535   9.141   4.425  13.524
97901SOL    HW195536   9.186   4.457  13.602
97901SOL    HW295537   9.150   4.495  13.460
97902SOL     OW95538   9.410  13.603  11.886
97902SOL    HW195539   9.423  13.606  11.791
97902SOL    HW295540   9.347  13.532  11.899
97903SOL     OW95541   5.820   9.991  10.563
97903SOL    HW195542   5.891   9.981  10.499
97903SOL    HW295543   5.809  10.086  10.572
97904SOL     OW95544   1.410  11.922  11.507
97904SOL    HW195545   1.434  11.995  11.449
97904SOL    HW295546   1.318  11.939  11.529
97905SOL     OW95547   0.559   9.333   9.728
97905SOL    HW195548   0.489   9.367   9.672
97905SOL    HW295549   0.608   9.411   9.756
97906SOL     OW95550   4.468  13.058   3.013
97906SOL    HW195551   4.482  12.995   2.942
97906SOL    HW295552   4.392  13.109   2.985
97907SOL     OW95553  11.099  10.560   7.860
97907SOL    HW195554  11.084  10.652   7.881
97907SOL    HW295555  11.029  10.537   7.800
97908SOL     OW95556   9.326   6.759   8.125
97908SOL    HW195557   9.410   6.800   8.107
97908SOL    HW295558   9.332   6.732   8.217
97909SOL     OW95559  12.966   3.912   0.222
97909SOL    HW195560  13.021   3.839   0.251
97909SOL    HW295561  12.887   3.906   0.275
97910SOL     OW95562   4.404   3.748   4.775
97910SOL    HW195563   4.494   3.723   4.799
97910SOL    HW295564   4.360   3.760   4.858
97911SOL     OW95565  13.038   1.917   5.083
97911SOL    HW195566  12.947   1.889   5.087
97911SOL    HW295567  13.035   2.012   5.100
97912SOL     OW95568   6.797   6.916   8.486
97912SOL    HW195569   6.883   6.874   8.496
97912SOL    HW295570   6.801   6.959   8.401
97913SOL     OW95571   7.666   7.554   0.500
97913SOL    HW195572   7.598   7.621   0.496
97913SOL    HW295573   7.687   7.535   0.408
97914SOL     OW95574  12.627   1.743  10.095
97914SOL    HW195575  12.587   1.830  10.104
97914SOL    HW295576  12.689   1.737  10.167
97915SOL     OW95577   9.478   9.579   0.006
97915SOL    HW195578   9.446   9.646   0.066
97915SOL    HW295579   9.406   9.516   0.001
97916SOL     OW95580   4.605   7.757   5.059
97916SOL    HW195581   4.653   7.716   5.131
97916SOL    HW295582   4.666   7.753   4.985
97917SOL     OW95583   5.645   2.486   6.201
97917SOL    HW195584   5.688   2.459   6.120
97917SOL    HW295585   5.554   2.504   6.175
97918SOL     OW95586   1.088   5.636   1.741
97918SOL    HW195587   1.144   5.599   1.673
97918SOL    HW295588   1.133   5.716   1.768
97919SOL     OW95589   4.010   9.861  13.794
97919SOL    HW195590   4.058   9.941  13.815
97919SOL    HW295591   3.953   9.846  13.870
97920SOL     OW95592   1.078  10.283  14.190
97920SOL    HW195593   1.084  10.238  14.105
97920SOL    HW295594   0.987  10.270  14.217
97921SOL     OW95595   0.394   9.379  13.842
97921SOL    HW195596   0.474   9.351  13.886
97921SOL    HW295597   0.330   9.392  13.913
97922SOL     OW95598   6.242  12.962  12.900
97922SOL    HW195599   6.274  12.873  12.912
97922SOL    HW295600   6.192  12.981  12.980
97923SOL     OW95601   0.472  12.438   6.116
97923SOL    HW195602   0.385  12.468   6.089
97923SOL    HW295603   0.531  12.507   6.087
97924SOL     OW95604   0.985   9.032  12.033
97924SOL    HW195605   0.926   9.056  12.104
97924SOL    HW295606   1.006   9.116  11.990
97925SOL     OW95607   3.872   9.678   4.225
97925SOL    HW195608   3.959   9.656   4.259
97925SOL    HW295609   3.843   9.598   4.181
97926SOL     OW95610   8.490   2.482  12.046
97926SOL    HW195611   8.566   2.522  12.003
97926SOL    HW295612   8.489   2.392  12.012
97927SOL     OW95613  11.941   6.623  14.365
97927SOL    HW195614  12.006   6.557  14.389
97927SOL    HW295615  11.873   6.573  14.320
97928SOL     OW95616   7.166  14.498   7.434
97928SOL    HW195617   7.219  14.551   7.493
97928SOL    HW295618   7.137  14.424   7.487
97929SOL     OW95619  14.043   0.594   4.772
97929SOL    HW195620  13.965   0.591   4.827
97929SOL    HW295621  14.051   0.686   4.745
97930SOL     OW95622   3.499  14.783   2.352
97930SOL    HW195623   3.482  14.840   2.427
97930SOL    HW295624   3.546  14.708   2.389
97931SOL     OW95625  14.089   7.384   5.081
97931SOL    HW195626  14.055   7.376   4.992
97931SOL    HW295627  14.036   7.323   5.133
97932SOL     OW95628   2.121   9.354   0.372
97932SOL    HW195629   2.166   9.296   0.311
97932SOL    HW295630   2.132   9.441   0.335
97933SOL     OW95631  12.831   1.445   5.457
97933SOL    HW195632  12.817   1.485   5.372
97933SOL    HW295633  12.921   1.467   5.479
97934SOL     OW95634  11.071  13.032   6.474
97934SOL    HW195635  11.037  13.087   6.544
97934SOL    HW295636  11.165  13.028   6.491
97935SOL     OW95637   8.076   3.013   1.375
97935SOL    HW195638   8.025   3.082   1.416
97935SOL    HW295639   8.166   3.047   1.375
97936SOL     OW95640   8.236  12.322   3.079
97936SOL    HW195641   8.312  12.263   3.085
97936SOL    HW295642   8.193  12.314   3.164
97937SOL     OW95643   7.353   4.703   7.050
97937SOL    HW195644   7.441   4.739   7.054
97937SOL    HW295645   7.337   4.668   7.138
97938SOL     OW95646   3.646   7.544  10.057
97938SOL    HW195647   3.600   7.478  10.005
97938SOL    HW295648   3.626   7.627  10.014
97939SOL     OW95649  10.515  12.074   6.632
97939SOL    HW195650  10.489  12.145   6.573
97939SOL    HW295651  10.440  12.015   6.633
97940SOL     OW95652   3.574   6.642   0.461
97940SOL    HW195653   3.545   6.623   0.372
97940SOL    HW295654   3.516   6.713   0.490
97941SOL     OW95655  12.425  14.507   9.411
97941SOL    HW195656  12.434  14.495   9.505
97941SOL    HW295657  12.515  14.515   9.379
97942SOL     OW95658  13.622   5.978  12.669
97942SOL    HW195659  13.565   5.910  12.706
97942SOL    HW295660  13.701   5.975  12.723
97943SOL     OW95661  10.490   3.304  14.304
97943SOL    HW195662  10.517   3.393  14.283
97943SOL    HW295663  10.497   3.257  14.221
97944SOL     OW95664   2.780   8.692  14.065
97944SOL    HW195665   2.842   8.757  14.030
97944SOL    HW295666   2.804   8.611  14.021
97945SOL     OW95667   6.602  12.258   6.937
97945SOL    HW195668   6.627  12.203   7.011
97945SOL    HW295669   6.582  12.196   6.867
97946SOL     OW95670  14.315   5.562   2.216
97946SOL    HW195671  14.253   5.498   2.181
97946SOL    HW295672  14.311   5.551   2.311
97947SOL     OW95673   5.857  12.585   3.912
97947SOL    HW195674   5.853  12.675   3.881
97947SOL    HW295675   5.806  12.585   3.993
97948SOL     OW95676   5.825  12.020   1.998
97948SOL    HW195677   5.764  12.094   1.996
97948SOL    HW295678   5.899  12.052   2.049
97949SOL     OW95679   0.454   2.729   9.667
97949SOL    HW195680   0.489   2.642   9.687
97949SOL    HW295681   0.444   2.772   9.751
97950SOL     OW95682  10.244   8.320   6.940
97950SOL    HW195683  10.221   8.231   6.967
97950SOL    HW295684  10.312   8.308   6.874
97951SOL     OW95685   3.820  14.708   9.609
97951SOL    HW195686   3.912  14.732   9.617
97951SOL    HW295687   3.796  14.736   9.521
97952SOL     OW95688  14.779   1.019  12.323
97952SOL    HW195689  14.842   1.008  12.395
97952SOL    HW295690  14.831   1.054  12.251
97953SOL     OW95691   5.075   0.762   5.912
97953SOL    HW195692   5.007   0.748   5.978
97953SOL    HW295693   5.105   0.851   5.926
97954SOL     OW95694  10.732   3.523   5.160
97954SOL    HW195695  10.666   3.571   5.110
97954SOL    HW295696  10.816   3.563   5.134
97955SOL     OW95697   2.761   8.807  10.013
97955SOL    HW195698   2.751   8.712  10.014
97955SOL    HW295699   2.744   8.834  10.103
97956SOL     OW95700   9.852   6.706   4.807
97956SOL    HW195701   9.783   6.640   4.796
97956SOL    HW295702   9.883   6.722   4.718
97957SOL     OW95703   8.641   6.025   9.348
97957SOL    HW195704   8.721   6.074   9.368
97957SOL    HW295705   8.570   6.085   9.372
97958SOL     OW95706  13.643   2.109   7.935
97958SOL    HW195707  13.653   2.176   7.868
97958SOL    HW295708  13.671   2.028   7.892
97959SOL     OW95709  10.007  14.797   2.046
97959SOL    HW195710  10.042  14.830   2.128
97959SOL    HW295711   9.977  14.708   2.067
97960SOL     OW95712  14.038   7.470   2.669
97960SOL    HW195713  14.100   7.409   2.709
97960SOL    HW295714  13.965   7.475   2.730
97961SOL     OW95715  11.664   4.020  13.460
97961SOL    HW195716  11.669   4.111  13.488
97961SOL    HW295717  11.756   3.991  13.456
97962SOL     OW95718  11.435  13.828   8.630
97962SOL    HW195719  11.425  13.782   8.547
97962SOL    HW295720  11.367  13.792   8.686
97963SOL     OW95721   2.182  12.814   7.616
97963SOL    HW195722   2.165  12.759   7.693
97963SOL    HW295723   2.202  12.900   7.652
97964SOL     OW95724   5.367   4.898  12.218
97964SOL    HW195725   5.418   4.964  12.171
97964SOL    HW295726   5.275   4.922  12.201
97965SOL     OW95727   4.630   2.186   6.063
97965SOL    HW195728   4.560   2.148   6.116
97965SOL    HW295729   4.700   2.205   6.126
97966SOL     OW95730   8.315   6.457   2.621
97966SOL    HW195731   8.361   6.536   2.650
97966SOL    HW295732   8.293   6.474   2.530
97967SOL     OW95733   1.749   2.556   1.858
97967SOL    HW195734   1.827   2.547   1.803
97967SOL    HW295735   1.783   2.581   1.944
97968SOL     OW95736   2.445   0.219  12.944
97968SOL    HW195737   2.452   0.202  13.038
97968SOL    HW295738   2.533   0.201  12.910
97969SOL     OW95739   9.001   6.799   3.535
97969SOL    HW195740   8.970   6.882   3.497
97969SOL    HW295741   8.948   6.732   3.491
97970SOL     OW95742  11.155   1.589  10.572
97970SOL    HW195743  11.103   1.660  10.608
97970SOL    HW295744  11.174   1.533  10.647
97971SOL     OW95745   6.200  13.706  13.541
97971SOL    HW195746   6.130  13.746  13.592
97971SOL    HW295747   6.192  13.613  13.558
97972SOL     OW95748  10.328   3.907   9.666
97972SOL    HW195749  10.395   3.973   9.655
97972SOL    HW295750  10.358   3.853   9.739
97973SOL     OW95751   2.641   6.759   2.875
97973SOL    HW195752   2.648   6.734   2.967
97973SOL    HW295753   2.569   6.706   2.842
97974SOL     OW95754   6.535   0.160   4.794
97974SOL    HW195755   6.474   0.089   4.809
97974SOL    HW295756   6.544   0.164   4.698
97975SOL     OW95757   3.056   2.794   0.071
97975SOL    HW195758   3.073   2.885   0.045
97975SOL    HW295759   3.030   2.751  14.869
97976SOL     OW95760  14.145  10.099  13.111
97976SOL    HW195761  14.179  10.162  13.175
97976SOL    HW295762  14.223  10.054  13.078
97977SOL     OW95763   8.531   6.920  13.332
97977SOL    HW195764   8.623   6.899  13.321
97977SOL    HW295765   8.525   7.014  13.314
97978SOL     OW95766  11.771  11.504  10.113
97978SOL    HW195767  11.689  11.525  10.068
97978SOL    HW295768  11.760  11.540  10.201
97979SOL     OW95769   7.964   8.649  14.238
97979SOL    HW195770   8.057   8.657  14.217
97979SOL    HW295771   7.922   8.635  14.153
97980SOL     OW95772   6.040   2.739   3.868
97980SOL    HW195773   6.130   2.742   3.899
97980SOL    HW295774   6.014   2.648   3.878
97981SOL     OW95775   0.019   3.075   5.367
97981SOL    HW195776   0.027   3.165   5.336
97981SOL    HW295777   0.001   3.083   5.461
97982SOL     OW95778   6.222   8.248   1.737
97982SOL    HW195779   6.240   8.256   1.831
97982SOL    HW295780   6.304   8.275   1.695
97983SOL     OW95781   1.712   8.991  14.295
97983SOL    HW195782   1.768   9.044  14.237
97983SOL    HW295783   1.696   9.048  14.370
97984SOL     OW95784   8.646   5.321  13.536
97984SOL    HW195785   8.692   5.354  13.459
97984SOL    HW295786   8.615   5.234  13.509
97985SOL     OW95787   1.517   1.049   4.962
97985SOL    HW195788   1.534   0.961   4.928
97985SOL    HW295789   1.561   1.108   4.901
97986SOL     OW95790   4.587   5.433   3.846
97986SOL    HW195791   4.646   5.423   3.921
97986SOL    HW295792   4.586   5.527   3.829
97987SOL     OW95793   4.534   2.181  14.605
97987SOL    HW195794   4.596   2.145  14.541
97987SOL    HW295795   4.586   2.191  14.685
97988SOL     OW95796   0.788  13.257   5.733
97988SOL    HW195797   0.842  13.295   5.802
97988SOL    HW295798   0.842  13.189   5.693
97989SOL     OW95799   2.198   1.747   2.714
97989SOL    HW195800   2.133   1.702   2.660
97989SOL    HW295801   2.199   1.698   2.796
97990SOL     OW95802   5.122   3.798  13.534
97990SOL    HW195803   5.161   3.713  13.554
97990SOL    HW295804   5.129   3.806  13.439
97991SOL     OW95805   0.233   9.734   3.746
97991SOL    HW195806   0.223   9.641   3.765
97991SOL    HW295807   0.215   9.742   3.653
97992SOL     OW95808   9.419  11.135  13.766
97992SOL    HW195809   9.436  11.130  13.860
97992SOL    HW295810   9.328  11.164  13.759
97993SOL     OW95811   0.777  12.758   9.523
97993SOL    HW195812   0.755  12.792   9.610
97993SOL    HW295813   0.867  12.727   9.531
97994SOL     OW95814   9.525   1.420   3.110
97994SOL    HW195815   9.469   1.389   3.039
97994SOL    HW295816   9.508   1.360   3.182
97995SOL     OW95817   9.067   4.596   8.636
97995SOL    HW195818   9.133   4.536   8.671
97995SOL    HW295819   9.116   4.674   8.610
97996SOL     OW95820   3.523   6.250   4.425
97996SOL    HW195821   3.585   6.236   4.497
97996SOL    HW295822   3.487   6.337   4.441
97997SOL     OW95823   8.371   5.105   7.323
97997SOL    HW195824   8.394   5.013   7.308
97997SOL    HW295825   8.284   5.102   7.363
97998SOL     OW95826  13.391  11.405   5.582
97998SOL    HW195827  13.443  11.485   5.595
97998SOL    HW295828  13.371  11.404   5.488
97999SOL     OW95829   4.805  13.210   2.080
97999SOL    HW195830   4.864  13.194   2.006
97999SOL    HW295831   4.778  13.123   2.109
98000SOL     OW95832   9.439  13.051   4.526
98000SOL    HW195833   9.489  13.049   4.608
98000SOL    HW295834   9.461  13.136   4.486
98001SOL     OW95835   3.586   9.570  14.097
98001SOL    HW195836   3.657   9.513  14.066
98001SOL    HW295837   3.553   9.612  14.018
98002SOL     OW95838   5.356  11.448   1.931
98002SOL    HW195839   5.339  11.526   1.983
98002SOL    HW295840   5.341  11.475   1.840
98003SOL     OW95841   9.061   6.108  14.591
98003SOL    HW195842   9.014   6.159  14.525
98003SOL    HW295843   8.999   6.042  14.620
98004SOL     OW95844  11.736  14.767  10.206
98004SOL    HW195845  11.698  14.830  10.267
98004SOL    HW295846  11.822  14.748  10.241
98005SOL     OW95847   5.388   2.313  10.305
98005SOL    HW195848   5.392   2.338  10.213
98005SOL    HW295849   5.480   2.302  10.330
98006SOL     OW95850   5.136  13.075   6.341
98006SOL    HW195851   5.123  13.102   6.432
98006SOL    HW295852   5.128  12.979   6.344
98007SOL     OW95853  12.149   2.641   9.156
98007SOL    HW195854  12.212   2.580   9.194
98007SOL    HW295855  12.131   2.607   9.069
98008SOL     OW95856  11.390  11.276  13.910
98008SOL    HW195857  11.481  11.276  13.941
98008SOL    HW295858  11.378  11.190  13.872
98009SOL     OW95859   2.493   4.364   8.137
98009SOL    HW195860   2.491   4.450   8.180
98009SOL    HW295861   2.482   4.384   8.044
98010SOL     OW95862  13.724   1.510   1.911
98010SOL    HW195863  13.710   1.605   1.918
98010SOL    HW295864  13.676   1.485   1.832
98011SOL     OW95865   9.848   0.719  10.681
98011SOL    HW195866   9.926   0.770  10.704
98011SOL    HW295867   9.881   0.645  10.631
98012SOL     OW95868  11.909   6.104   9.069
98012SOL    HW195869  11.925   6.157   8.991
98012SOL    HW295870  11.817   6.078   9.061
98013SOL     OW95871   7.089   5.780   9.587
98013SOL    HW195872   7.083   5.816   9.498
98013SOL    HW295873   7.007   5.732   9.599
98014SOL     OW95874  13.611   7.454   4.955
98014SOL    HW195875  13.544   7.498   5.006
98014SOL    HW295876  13.629   7.373   5.003
98015SOL     OW95877   9.422   2.732   6.581
98015SOL    HW195878   9.462   2.794   6.642
98015SOL    HW295879   9.346   2.778   6.545
98016SOL     OW95880   9.660   0.484   9.428
98016SOL    HW195881   9.610   0.564   9.414
98016SOL    HW295882   9.747   0.514   9.455
98017SOL     OW95883   2.531  11.616  14.258
98017SOL    HW195884   2.608  11.629  14.203
98017SOL    HW295885   2.543  11.677  14.331
98018SOL     OW95886  14.115  12.439   1.137
98018SOL    HW195887  14.036  12.493   1.125
98018SOL    HW295888  14.171  12.462   1.063
98019SOL     OW95889   0.816   9.068   1.782
98019SOL    HW195890   0.903   9.105   1.797
98019SOL    HW295891   0.798   9.016   1.861
98020SOL     OW95892   4.922  14.171  13.767
98020SOL    HW195893   5.010  14.199  13.791
98020SOL    HW295894   4.884  14.140  13.850
98021SOL     OW95895   9.983   9.642  14.221
98021SOL    HW195896   9.966   9.654  14.128
98021SOL    HW295897  10.032   9.561  14.227
98022SOL     OW95898   4.692  11.463   5.101
98022SOL    HW195899   4.715  11.441   5.010
98022SOL    HW295900   4.724  11.552   5.112
98023SOL     OW95901  11.201  13.801  13.566
98023SOL    HW195902  11.278  13.746  13.580
98023SOL    HW295903  11.208  13.870  13.631
98024SOL     OW95904  14.728   6.957   9.902
98024SOL    HW195905  14.735   6.944   9.807
98024SOL    HW295906  14.762   7.046   9.916
98025SOL     OW95907   5.397   7.099  14.579
98025SOL    HW195908   5.378   7.192  14.590
98025SOL    HW295909   5.443   7.093  14.495
98026SOL     OW95910  12.491   8.457   2.219
98026SOL    HW195911  12.508   8.364   2.208
98026SOL    HW295912  12.443   8.482   2.140
98027SOL     OW95913   4.814   0.373   3.794
98027SOL    HW195914   4.908   0.385   3.805
98027SOL    HW295915   4.790   0.313   3.865
98028SOL     OW95916   6.016   0.343   0.907
98028SOL    HW195917   5.924   0.329   0.883
98028SOL    HW295918   6.014   0.413   0.972
98029SOL     OW95919   7.969   5.940  12.735
98029SOL    HW195920   8.021   6.016  12.710
98029SOL    HW295921   7.906   5.929  12.665
98030SOL     OW95922   0.034   5.119  10.676
98030SOL    HW195923   0.062   5.095  10.764
98030SOL    HW295924  14.820   5.096  10.673
98031SOL     OW95925   6.632   5.953   8.467
98031SOL    HW195926   6.539   5.949   8.444
98031SOL    HW295927   6.672   5.880   8.419
98032SOL     OW95928  11.839   2.129   5.407
98032SOL    HW195929  11.784   2.109   5.483
98032SOL    HW295930  11.829   2.053   5.349
98033SOL     OW95931  14.517   4.466   2.883
98033SOL    HW195932  14.536   4.522   2.958
98033SOL    HW295933  14.452   4.403   2.916
98034SOL     OW95934   4.003   8.518   2.766
98034SOL    HW195935   3.911   8.537   2.751
98034SOL    HW295936   4.040   8.510   2.678
98035SOL     OW95937   5.948   1.232   4.021
98035SOL    HW195938   5.885   1.213   3.952
98035SOL    HW295939   5.929   1.167   4.089
98036SOL     OW95940   9.161   4.920  11.580
98036SOL    HW195941   9.152   4.825  11.587
98036SOL    HW295942   9.241   4.940  11.629
98037SOL     OW95943  11.454  10.374   8.265
98037SOL    HW195944  11.516  10.302   8.258
98037SOL    HW295945  11.371  10.333   8.289
98038SOL     OW95946   8.863   9.631   7.357
98038SOL    HW195947   8.852   9.585   7.440
98038SOL    HW295948   8.952   9.610   7.329
98039SOL     OW95949   9.270   0.962   4.864
98039SOL    HW195950   9.227   1.046   4.879
98039SOL    HW295951   9.287   0.928   4.951
98040SOL     OW95952   6.102  14.412   8.696
98040SOL    HW195953   6.124  14.329   8.739
98040SOL    HW295954   6.127  14.479   8.759
98041SOL     OW95955  13.805   5.299   7.652
98041SOL    HW195956  13.781   5.225   7.707
98041SOL    HW295957  13.861   5.354   7.708
98042SOL     OW95958   3.027  14.143   4.279
98042SOL    HW195959   2.977  14.169   4.202
98042SOL    HW295960   3.051  14.226   4.320
98043SOL     OW95961   3.208   3.197  12.179
98043SOL    HW195962   3.186   3.287  12.158
98043SOL    HW295963   3.124   3.151  12.180
98044SOL     OW95964   5.155   9.042   3.900
98044SOL    HW195965   5.064   9.056   3.874
98044SOL    HW295966   5.173   9.113   3.962
98045SOL     OW95967   0.339  11.232  13.962
98045SOL    HW195968   0.279  11.159  13.954
98045SOL    HW295969   0.289  11.308  13.933
98046SOL     OW95970  10.732   2.371  11.859
98046SOL    HW195971  10.770   2.390  11.944
98046SOL    HW295972  10.742   2.277  11.848
98047SOL     OW95973   1.344   2.488  13.443
98047SOL    HW195974   1.283   2.532  13.502
98047SOL    HW295975   1.352   2.547  13.369
98048SOL     OW95976  10.038   1.563  12.658
98048SOL    HW195977  10.052   1.528  12.746
98048SOL    HW295978  10.053   1.489  12.600
98049SOL     OW95979  10.060   5.373   7.462
98049SOL    HW195980  10.139   5.372   7.408
98049SOL    HW295981  10.014   5.292   7.438
98050SOL     OW95982   3.246  11.943   0.090
98050SOL    HW195983   3.163  11.980   0.060
98050SOL    HW295984   3.312  11.982   0.032
98051SOL     OW95985   0.010   2.425  14.635
98051SOL    HW195986  14.840   2.504  14.657
98051SOL    HW295987   0.009   2.372  14.715
98052SOL     OW95988   0.061  13.381  13.842
98052SOL    HW195989   0.094  13.360  13.930
98052SOL    HW295990   0.090  13.308  13.787
98053SOL     OW95991  10.363   4.639   8.409
98053SOL    HW195992  10.298   4.646   8.339
98053SOL    HW295993  10.354   4.549   8.440
98054SOL     OW95994   3.798  10.177  11.203
98054SOL    HW195995   3.826  10.199  11.114
98054SOL    HW295996   3.868  10.123  11.237
98055SOL     OW95997   6.809  14.371   2.102
98055SOL    HW195998   6.778  14.280   2.096
98055SOL    HW295999   6.745  14.414   2.159
98056SOL     OW96000   6.025  13.313   5.735
98056SOL    HW196001   6.115  13.304   5.702
98056SOL    HW296002   5.978  13.240   5.696
98057SOL     OW96003   6.077  10.203   5.431
98057SOL    HW196004   6.117  10.116   5.434
98057SOL    HW296005   6.151  10.263   5.420
98058SOL     OW96006  12.960   2.764   7.762
98058SOL    HW196007  12.968   2.813   7.680
98058SOL    HW296008  12.897   2.695   7.743
98059SOL     OW96009   6.576  13.857   6.863
98059SOL    HW196010   6.497  13.808   6.887
98059SOL    HW296011   6.611  13.888   6.946
98060SOL     OW96012  11.894  13.118   7.140
98060SOL    HW196013  11.818  13.170   7.113
98060SOL    HW296014  11.936  13.092   7.058
98061SOL     OW96015   3.507   7.978   5.448
98061SOL    HW196016   3.503   8.020   5.362
98061SOL    HW296017   3.594   7.999   5.481
98062SOL     OW96018  11.055   8.792  12.417
98062SOL    HW196019  11.040   8.811  12.510
98062SOL    HW296020  11.110   8.714  12.417
98063SOL     OW96021   5.106  11.612   7.126
98063SOL    HW196022   5.115  11.656   7.041
98063SOL    HW296023   5.019  11.637   7.157
98064SOL     OW96024  11.307   0.506   5.674
98064SOL    HW196025  11.292   0.415   5.700
98064SOL    HW296026  11.230   0.553   5.707
98065SOL     OW96027   4.468  13.164   9.726
98065SOL    HW196028   4.447  13.087   9.673
98065SOL    HW296029   4.561  13.154   9.747
98066SOL     OW96030  12.815  13.276   6.237
98066SOL    HW196031  12.837  13.267   6.330
98066SOL    HW296032  12.751  13.347   6.234
98067SOL     OW96033   3.232   0.187   4.511
98067SOL    HW196034   3.173   0.157   4.442
98067SOL    HW296035   3.307   0.129   4.505
98068SOL     OW96036   3.020  12.316   5.583
98068SOL    HW196037   2.966  12.333   5.507
98068SOL    HW296038   3.075  12.241   5.558
98069SOL     OW96039   2.720   3.992  11.242
98069SOL    HW196040   2.667   4.038  11.307
98069SOL    HW296041   2.677   3.907  11.232
98070SOL     OW96042   9.439   0.890   7.413
98070SOL    HW196043   9.499   0.824   7.445
98070SOL    HW296044   9.490   0.939   7.347
98071SOL     OW96045  14.384   5.766  13.701
98071SOL    HW196046  14.334   5.692  13.737
98071SOL    HW296047  14.317   5.823  13.663
98072SOL     OW96048  12.039   8.052  14.129
98072SOL    HW196049  12.075   8.124  14.181
98072SOL    HW296050  11.967   8.018  14.182
98073SOL     OW96051   2.303   0.902   1.703
98073SOL    HW196052   2.280   0.832   1.764
98073SOL    HW296053   2.340   0.970   1.759
98074SOL     OW96054   1.787  14.831   2.111
98074SOL    HW196055   1.776   0.022   2.174
98074SOL    HW296056   1.732  14.760   2.144
98075SOL     OW96057   2.605  10.334  14.856
98075SOL    HW196058   2.680  10.350   0.034
98075SOL    HW296059   2.613  10.242  14.831
98076SOL     OW96060   6.568   7.402   6.305
98076SOL    HW196061   6.627   7.329   6.290
98076SOL    HW296062   6.507   7.371   6.373
98077SOL     OW96063   7.173  11.246   4.669
98077SOL    HW196064   7.169  11.168   4.614
98077SOL    HW296065   7.266  11.268   4.674
98078SOL     OW96066   6.961   2.834   2.046
98078SOL    HW196067   7.021   2.909   2.046
98078SOL    HW296068   7.003   2.769   2.102
98079SOL     OW96069   5.241   4.120  10.941
98079SOL    HW196070   5.205   4.206  10.921
98079SOL    HW296071   5.167   4.060  10.931
98080SOL     OW96072   5.489   4.097   6.573
98080SOL    HW196073   5.455   4.179   6.609
98080SOL    HW296074   5.535   4.056   6.647
98081SOL     OW96075   0.739   6.155   9.121
98081SOL    HW196076   0.821   6.125   9.083
98081SOL    HW296077   0.691   6.195   9.048
98082SOL     OW96078   1.231  14.312   1.598
98082SOL    HW196079   1.206  14.305   1.506
98082SOL    HW296080   1.309  14.367   1.598
98083SOL     OW96081   5.392  12.526  13.193
98083SOL    HW196082   5.367  12.448  13.242
98083SOL    HW296083   5.314  12.550  13.143
98084SOL     OW96084  10.570   7.613   9.624
98084SOL    HW196085  10.540   7.699   9.654
98084SOL    HW296086  10.623   7.631   9.546
98085SOL     OW96087  12.958   3.975   8.252
98085SOL    HW196088  12.907   3.894   8.244
98085SOL    HW296089  12.984   3.977   8.344
98086SOL     OW96090   3.515  13.556  11.127
98086SOL    HW196091   3.517  13.607  11.046
98086SOL    HW296092   3.443  13.495  11.115
98087SOL     OW96093   0.915   4.852   7.929
98087SOL    HW196094   0.890   4.821   8.016
98087SOL    HW296095   0.832   4.864   7.883
98088SOL     OW96096   5.933  11.915  11.418
98088SOL    HW196097   5.917  11.912  11.513
98088SOL    HW296098   6.027  11.932  11.410
98089SOL     OW96099   8.052  11.149   8.978
98089SOL    HW196100   7.987  11.121   8.913
98089SOL    HW296101   8.043  11.085   9.049
98090SOL     OW96102   6.518   6.157   2.868
98090SOL    HW196103   6.605   6.152   2.829
98090SOL    HW296104   6.485   6.243   2.841
98091SOL     OW96105   0.311  12.139   1.809
98091SOL    HW196106   0.390  12.086   1.815
98091SOL    HW296107   0.292  12.164   1.899
98092SOL     OW96108   7.607   9.864   6.913
98092SOL    HW196109   7.548   9.796   6.943
98092SOL    HW296110   7.659   9.886   6.991
98093SOL     OW96111   4.572  14.686   9.408
98093SOL    HW196112   4.581  14.659   9.500
98093SOL    HW296113   4.478  14.691   9.394
98094SOL     OW96114   2.265   8.776   5.432
98094SOL    HW196115   2.186   8.729   5.406
98094SOL    HW296116   2.263   8.776   5.528
98095SOL     OW96117  12.516   5.898  11.087
98095SOL    HW196118  12.558   5.850  11.158
98095SOL    HW296119  12.587   5.946  11.045
98096SOL     OW96120   0.468   5.666   6.754
98096SOL    HW196121   0.532   5.735   6.768
98096SOL    HW296122   0.447   5.670   6.661
98097SOL     OW96123   8.694   0.475  10.330
98097SOL    HW196124   8.777   0.507  10.365
98097SOL    HW296125   8.704   0.380  10.328
98098SOL     OW96126   2.459  11.720   0.043
98098SOL    HW196127   2.541  11.679   0.016
98098SOL    HW296128   2.393  11.652   0.029
98099SOL     OW96129  14.090  14.819   8.576
98099SOL    HW196130  14.001  14.850   8.590
98099SOL    HW296131  14.144   0.019   8.589
98100SOL     OW96132  10.602   1.676   2.089
98100SOL    HW196133  10.666   1.665   2.159
98100SOL    HW296134  10.521   1.700   2.134
98101SOL     OW96135  12.034   3.485   9.905
98101SOL    HW196136  12.096   3.421   9.869
98101SOL    HW296137  11.983   3.435   9.968
98102SOL     OW96138   8.123   3.878   7.820
98102SOL    HW196139   8.058   3.825   7.775
98102SOL    HW296140   8.139   3.953   7.762
98103SOL     OW96141   9.830   5.853   5.830
98103SOL    HW196142   9.882   5.815   5.759
98103SOL    HW296143   9.758   5.898   5.786
98104SOL     OW96144  11.632   4.891   9.107
98104SOL    HW196145  11.554   4.837   9.094
98104SOL    HW296146  11.603   4.962   9.163
98105SOL     OW96147   0.167   3.535   2.631
98105SOL    HW196148   0.154   3.584   2.550
98105SOL    HW296149   0.251   3.490   2.619
98106SOL     OW96150   3.215   1.336  13.735
98106SOL    HW196151   3.148   1.404  13.740
98106SOL    HW296152   3.265   1.357  13.656
98107SOL     OW96153  12.372   2.540  14.372
98107SOL    HW196154  12.339   2.591  14.445
98107SOL    HW296155  12.340   2.451  14.388
98108SOL     OW96156   2.019   4.497   0.106
98108SOL    HW196157   2.108   4.529   0.098
98108SOL    HW296158   1.999   4.460   0.020
98109SOL     OW96159   4.544   9.468   7.240
98109SOL    HW196160   4.580   9.425   7.163
98109SOL    HW296161   4.467   9.415   7.263
98110SOL     OW96162   5.005   3.564  12.045
98110SOL    HW196163   4.982   3.476  12.015
98110SOL    HW296164   4.944   3.622  11.999
98111SOL     OW96165   7.918   5.088   3.669
98111SOL    HW196166   7.867   5.094   3.588
98111SOL    HW296167   7.852   5.078   3.738
98112SOL     OW96168  10.088   5.671   8.465
98112SOL    HW196169   9.993   5.681   8.467
98112SOL    HW296170  10.111   5.681   8.372
98113SOL     OW96171  10.631   0.491   1.311
98113SOL    HW196172  10.641   0.400   1.284
98113SOL    HW296173  10.569   0.488   1.384
98114SOL     OW96174   6.842   4.703  10.414
98114SOL    HW196175   6.818   4.685  10.323
98114SOL    HW296176   6.925   4.750  10.408
98115SOL     OW96177  13.811  14.557   5.493
98115SOL    HW196178  13.772  14.477   5.458
98115SOL    HW296179  13.761  14.575   5.573
98116SOL     OW96180  13.810   5.478  13.121
98116SOL    HW196181  13.737   5.440  13.169
98116SOL    HW296182  13.776   5.561  13.087
98117SOL     OW96183   9.426   8.573   4.857
98117SOL    HW196184   9.453   8.488   4.894
98117SOL    HW296185   9.500   8.631   4.875
98118SOL     OW96186  11.020   9.492   7.340
98118SOL    HW196187  10.934   9.503   7.380
98118SOL    HW296188  11.059   9.418   7.386
98119SOL     OW96189   3.084   6.431  13.541
98119SOL    HW196190   3.066   6.372  13.468
98119SOL    HW296191   2.998   6.463  13.568
98120SOL     OW96192   1.732   1.472  11.248
98120SOL    HW196193   1.658   1.448  11.303
98120SOL    HW296194   1.802   1.412  11.276
98121SOL     OW96195  14.485  13.583  12.368
98121SOL    HW196196  14.463  13.653  12.307
98121SOL    HW296197  14.401  13.553  12.402
98122SOL     OW96198   7.285   5.173   1.443
98122SOL    HW196199   7.249   5.141   1.526
98122SOL    HW296200   7.263   5.266   1.441
98123SOL     OW96201  10.462   6.033   6.341
98123SOL    HW196202  10.386   6.089   6.355
98123SOL    HW296203  10.530   6.071   6.397
98124SOL     OW96204   4.737  14.535  11.399
98124SOL    HW196205   4.648  14.551  11.368
98124SOL    HW296206   4.739  14.441  11.420
98125SOL     OW96207  14.245   8.680   1.618
98125SOL    HW196208  14.325   8.669   1.668
98125SOL    HW296209  14.250   8.769   1.582
98126SOL     OW96210   0.182  12.910  12.485
98126SOL    HW196211   0.169  12.817  12.466
98126SOL    HW296212   0.247  12.911  12.555
98127SOL     OW96213  14.375   8.196  10.699
98127SOL    HW196214  14.401   8.256  10.769
98127SOL    HW296215  14.448   8.199  10.637
98128SOL     OW96216   2.033   6.701  14.765
98128SOL    HW196217   1.967   6.688  14.833
98128SOL    HW296218   2.114   6.720  14.812
98129SOL     OW96219   4.830   1.781   2.631
98129SOL    HW196220   4.884   1.839   2.578
98129SOL    HW296221   4.742   1.819   2.628
98130SOL     OW96222   4.317   9.738  10.192
98130SOL    HW196223   4.320   9.689  10.110
98130SOL    HW296224   4.244   9.798  10.182
98131SOL     OW96225   2.720   3.105   6.971
98131SOL    HW196226   2.675   3.069   7.048
98131SOL    HW296227   2.698   3.198   6.972
98132SOL     OW96228  13.899   6.411  10.011
98132SOL    HW196229  13.859   6.347   9.953
98132SOL    HW296230  13.971   6.364  10.053
98133SOL     OW96231   1.039   0.379   8.284
98133SOL    HW196232   1.109   0.438   8.260
98133SOL    HW296233   1.064   0.295   8.245
98134SOL     OW96234   4.260   3.042   4.065
98134SOL    HW196235   4.173   3.075   4.041
98134SOL    HW296236   4.321   3.109   4.036
98135SOL     OW96237   2.211  11.505  13.550
98135SOL    HW196238   2.164  11.454  13.616
98135SOL    HW296239   2.177  11.594  13.561
98136SOL     OW96240  14.591  10.722  11.895
98136SOL    HW196241  14.560  10.749  11.981
98136SOL    HW296242  14.518  10.742  11.836
98137SOL     OW96243   0.181   4.991  14.614
98137SOL    HW196244   0.253   4.932  14.635
98137SOL    HW296245   0.187   5.061  14.679
98138SOL     OW96246   0.169  13.460   9.266
98138SOL    HW196247   0.168  13.555   9.270
98138SOL    HW296248   0.256  13.437   9.235
98139SOL     OW96249   0.965  13.216   7.604
98139SOL    HW196250   0.971  13.148   7.537
98139SOL    HW296251   1.054  13.253   7.608
98140SOL     OW96252   4.893  11.753   0.058
98140SOL    HW196253   4.949  11.828   0.076
98140SOL    HW296254   4.808  11.791   0.036
98141SOL     OW96255   5.633   8.763  12.531
98141SOL    HW196256   5.708   8.821  12.517
98141SOL    HW296257   5.669   8.675  12.523
98142SOL     OW96258   0.971   5.217   5.917
98142SOL    HW196259   1.022   5.172   5.849
98142SOL    HW296260   0.942   5.146   5.975
98143SOL     OW96261  11.789   5.005   6.258
98143SOL    HW196262  11.695   5.016   6.242
98143SOL    HW296263  11.813   4.926   6.210
98144SOL     OW96264   5.898   0.917   8.660
98144SOL    HW196265   5.893   0.823   8.675
98144SOL    HW296266   5.892   0.927   8.565
98145SOL     OW96267   4.230   7.817  12.455
98145SOL    HW196268   4.165   7.868  12.503
98145SOL    HW296269   4.185   7.791  12.375
98146SOL     OW96270   0.525  13.353   0.481
98146SOL    HW196271   0.576  13.359   0.400
98146SOL    HW296272   0.439  13.321   0.452
98147SOL     OW96273   8.335  13.077   1.592
98147SOL    HW196274   8.412  13.126   1.622
98147SOL    HW296275   8.264  13.141   1.596
98148SOL     OW96276   0.307   4.657   1.658
98148SOL    HW196277   0.273   4.638   1.745
98148SOL    HW296278   0.369   4.728   1.672
98149SOL     OW96279  14.205   0.971   3.393
98149SOL    HW196280  14.221   1.019   3.474
98149SOL    HW296281  14.262   1.012   3.329
98150SOL     OW96282  14.240   8.963   5.508
98150SOL    HW196283  14.180   8.923   5.571
98150SOL    HW296284  14.320   8.979   5.558
98151SOL     OW96285   2.036   3.955   5.719
98151SOL    HW196286   2.054   4.049   5.717
98151SOL    HW296287   2.122   3.915   5.731
98152SOL     OW96288   0.342   3.543   4.432
98152SOL    HW196289   0.418   3.521   4.487
98152SOL    HW296290   0.347   3.638   4.424
98153SOL     OW96291  11.210  14.010   4.929
98153SOL    HW196292  11.276  13.992   4.862
98153SOL    HW296293  11.246  14.083   4.978
98154SOL     OW96294   6.050   6.483   0.457
98154SOL    HW196295   6.006   6.568   0.464
98154SOL    HW296296   6.101   6.476   0.538
98155SOL     OW96297  12.364  14.476   3.277
98155SOL    HW196298  12.326  14.389   3.273
98155SOL    HW296299  12.304  14.531   3.227
98156SOL     OW96300   0.746  12.312  11.467
98156SOL    HW196301   0.782  12.376  11.406
98156SOL    HW296302   0.664  12.284  11.426
98157SOL     OW96303   5.632  10.243  10.913
98157SOL    HW196304   5.722  10.268  10.889
98157SOL    HW296305   5.591  10.219  10.830
98158SOL     OW96306  14.604  12.976   3.251
98158SOL    HW196307  14.554  12.983   3.332
98158SOL    HW296308  14.542  12.944   3.186
98159SOL     OW96309  12.338  13.558   9.008
98159SOL    HW196310  12.290  13.559   9.091
98159SOL    HW296311  12.382  13.473   9.007
98160SOL     OW96312  14.820   2.858  13.946
98160SOL    HW196313  14.800   2.765  13.935
98160SOL    HW296314   0.031   2.867  13.915
98161SOL     OW96315  10.090   6.345   4.831
98161SOL    HW196316  10.046   6.381   4.908
98161SOL    HW296317  10.036   6.371   4.757
98162SOL     OW96318   6.789  12.273  13.682
98162SOL    HW196319   6.694  12.276  13.676
98162SOL    HW296320   6.811  12.180  13.677
98163SOL     OW96321   0.576   3.540  11.585
98163SOL    HW196322   0.567   3.445  11.591
98163SOL    HW296323   0.503   3.567  11.529
98164SOL     OW96324   2.604  11.379   4.654
98164SOL    HW196325   2.641  11.456   4.698
98164SOL    HW296326   2.510  11.388   4.667
98165SOL     OW96327  12.144   0.647   6.531
98165SOL    HW196328  12.103   0.606   6.456
98165SOL    HW296329  12.085   0.718   6.555
98166SOL     OW96330  13.752   2.740  14.678
98166SOL    HW196331  13.835   2.737  14.726
98166SOL    HW296332  13.687   2.709  14.740
98167SOL     OW96333   4.057   2.644  14.224
98167SOL    HW196334   3.973   2.651  14.178
98167SOL    HW296335   4.034   2.656  14.317
98168SOL     OW96336   5.268   3.701  13.990
98168SOL    HW196337   5.300   3.766  13.927
98168SOL    HW296338   5.186   3.738  14.024
98169SOL     OW96339  14.746   6.520  11.654
98169SOL    HW196340  14.813   6.454  11.635
98169SOL    HW296341  14.688   6.517  11.577
98170SOL     OW96342  10.022  11.828  11.859
98170SOL    HW196343  10.030  11.816  11.954
98170SOL    HW296344  10.107  11.803  11.824
98171SOL     OW96345   3.996  10.834   8.259
98171SOL    HW196346   3.944  10.914   8.256
98171SOL    HW296347   4.037  10.828   8.173
98172SOL     OW96348   7.282   1.507   2.295
98172SOL    HW196349   7.330   1.424   2.292
98172SOL    HW296350   7.201   1.486   2.342
98173SOL     OW96351   5.527   9.301   5.194
98173SOL    HW196352   5.583   9.245   5.140
98173SOL    HW296353   5.448   9.249   5.208
98174SOL     OW96354  10.574   0.937  14.866
98174SOL    HW196355  10.625   1.016   0.006
98174SOL    HW296356  10.546   0.905   0.073
98175SOL     OW96357   8.220  12.708  12.482
98175SOL    HW196358   8.248  12.711  12.391
98175SOL    HW296359   8.136  12.662  12.480
98176SOL     OW96360   6.845   3.910  12.271
98176SOL    HW196361   6.844   3.998  12.308
98176SOL    HW296362   6.864   3.923  12.178
98177SOL     OW96363   0.840   7.311   4.232
98177SOL    HW196364   0.807   7.376   4.294
98177SOL    HW296365   0.818   7.227   4.272
98178SOL     OW96366  10.812  13.329   4.680
98178SOL    HW196367  10.732  13.276   4.677
98178SOL    HW296368  10.802  13.383   4.758
98179SOL     OW96369   2.618  14.676  11.850
98179SOL    HW196370   2.678  14.749  11.839
98179SOL    HW296371   2.601  14.645  11.761
98180SOL     OW96372   3.733   1.724   5.309
98180SOL    HW196373   3.756   1.811   5.276
98180SOL    HW296374   3.768   1.664   5.243
98181SOL     OW96375   6.026   2.751   8.561
98181SOL    HW196376   5.953   2.702   8.599
98181SOL    HW296377   6.070   2.791   8.637
98182SOL     OW96378  11.403  12.418   1.661
98182SOL    HW196379  11.360  12.337   1.635
98182SOL    HW296380  11.492  12.391   1.686
98183SOL     OW96381   6.582  10.760   0.917
98183SOL    HW196382   6.656  10.699   0.925
98183SOL    HW296383   6.536  10.733   0.839
98184SOL     OW96384   9.502   1.116   0.156
98184SOL    HW196385   9.450   1.037   0.170
98184SOL    HW296386   9.526   1.145   0.244
98185SOL     OW96387   3.054   3.011   4.896
98185SOL    HW196388   2.972   3.031   4.943
98185SOL    HW296389   3.045   2.920   4.869
98186SOL     OW96390  14.404   0.747   4.708
98186SOL    HW196391  14.368   0.752   4.619
98186SOL    HW296392  14.356   0.813   4.757
98187SOL     OW96393   4.630   7.231  10.517
98187SOL    HW196394   4.633   7.136  10.513
98187SOL    HW296395   4.536   7.251  10.523
98188SOL     OW96396  13.378   7.630  13.836
98188SOL    HW196397  13.434   7.663  13.906
98188SOL    HW296398  13.395   7.535  13.834
98189SOL     OW96399   4.161   4.152   3.914
98189SOL    HW196400   4.079   4.127   3.871
98189SOL    HW296401   4.137   4.225   3.971
98190SOL     OW96402  11.819   2.407   2.748
98190SOL    HW196403  11.874   2.334   2.719
98190SOL    HW296404  11.768   2.431   2.671
98191SOL     OW96405  12.764  13.699   5.375
98191SOL    HW196406  12.802  13.617   5.407
98191SOL    HW296407  12.771  13.692   5.280
98192SOL     OW96408  13.872   0.914   5.782
98192SOL    HW196409  13.884   1.006   5.757
98192SOL    HW296410  13.941   0.867   5.736
98193SOL     OW96411   4.533   4.901   4.753
98193SOL    HW196412   4.513   4.980   4.703
98193SOL    HW296413   4.477   4.834   4.715
98194SOL     OW96414   1.206   2.568  13.654
98194SOL    HW196415   1.116   2.537  13.659
98194SOL    HW296416   1.234   2.577  13.746
98195SOL     OW96417   6.057   2.862   2.857
98195SOL    HW196418   5.969   2.880   2.824
98195SOL    HW296419   6.067   2.767   2.849
98196SOL     OW96420   0.904   1.139  13.089
98196SOL    HW196421   0.901   1.126  12.994
98196SOL    HW296422   0.883   1.232  13.101
98197SOL     OW96423   3.667   1.435   2.291
98197SOL    HW196424   3.598   1.374   2.315
98197SOL    HW296425   3.744   1.404   2.338
98198SOL     OW96426  14.309   2.477  11.282
98198SOL    HW196427  14.248   2.550  11.272
98198SOL    HW296428  14.297   2.449  11.373
98199SOL     OW96429   8.301   4.119   6.754
98199SOL    HW196430   8.211   4.129   6.724
98199SOL    HW296431   8.351   4.099   6.674
98200SOL     OW96432  14.335   2.063  12.631
98200SOL    HW196433  14.366   2.120  12.701
98200SOL    HW296434  14.386   2.089  12.554
98201SOL     OW96435  12.706   6.574  11.145
98201SOL    HW196436  12.678   6.551  11.056
98201SOL    HW296437  12.637   6.538  11.202
98202SOL     OW96438  13.851   4.341   9.326
98202SOL    HW196439  13.798   4.265   9.351
98202SOL    HW296440  13.940   4.318   9.352
98203SOL     OW96441   3.996  13.578   0.614
98203SOL    HW196442   4.065  13.542   0.669
98203SOL    HW296443   3.967  13.657   0.660
98204SOL     OW96444  12.086  11.692   4.721
98204SOL    HW196445  12.161  11.739   4.758
98204SOL    HW296446  12.122  11.645   4.646
98205SOL     OW96447   9.533   1.110  13.151
98205SOL    HW196448   9.518   1.155  13.235
98205SOL    HW296449   9.601   1.161  13.108
98206SOL     OW96450  13.730   3.182   0.525
98206SOL    HW196451  13.774   3.218   0.601
98206SOL    HW296452  13.662   3.125   0.561
98207SOL     OW96453  13.557  11.992   4.579
98207SOL    HW196454  13.479  12.024   4.623
98207SOL    HW296455  13.615  11.965   4.650
98208SOL     OW96456   3.344  14.639  10.891
98208SOL    HW196457   3.432  14.676  10.890
98208SOL    HW296458   3.288  14.710  10.859
98209SOL     OW96459   3.927  11.213  11.574
98209SOL    HW196460   3.979  11.159  11.634
98209SOL    HW296461   3.890  11.152  11.511
98210SOL     OW96462   0.685  13.665   0.208
98210SOL    HW196463   0.760  13.715   0.243
98210SOL    HW296464   0.716  13.630   0.125
98211SOL     OW96465   5.105   9.204  13.463
98211SOL    HW196466   5.111   9.184  13.370
98211SOL    HW296467   5.024   9.253  13.473
98212SOL     OW96468   3.709   9.703   2.035
98212SOL    HW196469   3.771   9.631   2.050
98212SOL    HW296470   3.660   9.676   1.957
98213SOL     OW96471   0.694   4.285   8.080
98213SOL    HW196472   0.710   4.192   8.096
98213SOL    HW296473   0.712   4.327   8.163
98214SOL     OW96474  10.132  12.781   0.261
98214SOL    HW196475  10.152  12.820   0.176
98214SOL    HW296476  10.055  12.727   0.246
98215SOL     OW96477   1.945   2.061   3.829
98215SOL    HW196478   1.872   2.118   3.852
98215SOL    HW296479   1.909   2.000   3.765
98216SOL     OW96480  12.523  10.101  11.034
98216SOL    HW196481  12.592  10.078  10.972
98216SOL    HW296482  12.446  10.118  10.980
98217SOL     OW96483   2.665   8.755   2.426
98217SOL    HW196484   2.740   8.815   2.424
98217SOL    HW296485   2.589   8.812   2.419
98218SOL     OW96486   8.672   9.206  11.888
98218SOL    HW196487   8.626   9.261  11.825
98218SOL    HW296488   8.652   9.244  11.973
98219SOL     OW96489   6.874   9.177  14.485
98219SOL    HW196490   6.906   9.087  14.488
98219SOL    HW296491   6.779   9.169  14.494
98220SOL     OW96492   8.453   3.893  10.222
98220SOL    HW196493   8.538   3.938  10.224
98220SOL    HW296494   8.403   3.937  10.154
98221SOL     OW96495   4.473   0.663   1.039
98221SOL    HW196496   4.434   0.747   1.063
98221SOL    HW296497   4.560   0.685   1.005
98222SOL     OW96498   1.575  10.129   3.105
98222SOL    HW196499   1.633  10.188   3.154
98222SOL    HW296500   1.558  10.057   3.165
98223SOL     OW96501   9.519  13.863   4.125
98223SOL    HW196502   9.462  13.856   4.048
98223SOL    HW296503   9.507  13.779   4.170
98224SOL     OW96504   9.349  12.110   9.312
98224SOL    HW196505   9.363  12.201   9.288
98224SOL    HW296506   9.268  12.110   9.362
98225SOL     OW96507  10.578   5.818  14.540
98225SOL    HW196508  10.656   5.867  14.512
98225SOL    HW296509  10.585   5.815  14.635
98226SOL     OW96510   1.465   1.312   8.464
98226SOL    HW196511   1.485   1.261   8.542
98226SOL    HW296512   1.548   1.354   8.441
98227SOL     OW96513   6.170  10.361   3.859
98227SOL    HW196514   6.215  10.420   3.919
98227SOL    HW296515   6.182  10.274   3.898
98228SOL     OW96516   5.470   2.037  11.629
98228SOL    HW196517   5.495   1.957  11.582
98228SOL    HW296518   5.422   2.006  11.706
98229SOL     OW96519   5.447  10.649  13.243
98229SOL    HW196520   5.527  10.670  13.292
98229SOL    HW296521   5.479  10.620  13.157
98230SOL     OW96522  12.961   7.278   9.183
98230SOL    HW196523  12.992   7.190   9.204
98230SOL    HW296524  12.980   7.288   9.090
98231SOL     OW96525   4.488  12.019   2.155
98231SOL    HW196526   4.453  11.934   2.130
98231SOL    HW296527   4.498  12.066   2.073
98232SOL     OW96528  13.094   7.956   5.717
98232SOL    HW196529  13.110   7.964   5.811
98232SOL    HW296530  13.159   8.015   5.677
98233SOL     OW96531  13.954   3.340   4.499
98233SOL    HW196532  13.897   3.395   4.446
98233SOL    HW296533  14.025   3.316   4.440
98234SOL     OW96534   0.232   3.368   1.152
98234SOL    HW196535   0.162   3.305   1.170
98234SOL    HW296536   0.307   3.335   1.202
98235SOL     OW96537  11.621   5.190   6.821
98235SOL    HW196538  11.712   5.183   6.793
98235SOL    HW296539  11.580   5.246   6.755
98236SOL     OW96540   8.468   8.130   8.654
98236SOL    HW196541   8.479   8.068   8.726
98236SOL    HW296542   8.425   8.079   8.585
98237SOL     OW96543  10.661   3.899   5.805
98237SOL    HW196544  10.719   3.929   5.875
98237SOL    HW296545  10.575   3.890   5.846
98238SOL     OW96546   9.404  14.623   1.142
98238SOL    HW196547   9.328  14.679   1.162
98238SOL    HW296548   9.477  14.684   1.139
98239SOL     OW96549   1.030  10.433   1.931
98239SOL    HW196550   1.050  10.527   1.929
98239SOL    HW296551   1.116  10.391   1.939
98240SOL     OW96552   3.226   8.456  10.378
98240SOL    HW196553   3.290   8.385  10.387
98240SOL    HW296554   3.162   8.440  10.447
98241SOL     OW96555  10.754  12.221   6.729
98241SOL    HW196556  10.741  12.275   6.807
98241SOL    HW296557  10.678  12.163   6.727
98242SOL     OW96558   3.939   0.579  13.012
98242SOL    HW196559   3.909   0.640  12.945
98242SOL    HW296560   4.031   0.600  13.025
98243SOL     OW96561   2.387   3.916  10.091
98243SOL    HW196562   2.293   3.937  10.099
98243SOL    HW296563   2.391   3.854  10.018
98244SOL     OW96564   9.625   7.110  11.823
98244SOL    HW196565   9.694   7.135  11.762
98244SOL    HW296566   9.671   7.092  11.905
98245SOL     OW96567  14.144   7.546  14.787
98245SOL    HW196568  14.176   7.531  14.698
98245SOL    HW296569  14.049   7.553  14.779
98246SOL     OW96570   7.343   1.859   9.563
98246SOL    HW196571   7.351   1.837   9.656
98246SOL    HW296572   7.432   1.846   9.528
98247SOL     OW96573  14.831   4.457   8.254
98247SOL    HW196574  14.868   4.444   8.166
98247SOL    HW296575  14.747   4.411   8.251
98248SOL     OW96576   4.197   5.024  14.636
98248SOL    HW196577   4.109   5.023  14.673
98248SOL    HW296578   4.249   4.973  14.698
98249SOL     OW96579  12.532   8.869  10.490
98249SOL    HW196580  12.498   8.945  10.537
98249SOL    HW296581  12.505   8.794  10.542
98250SOL     OW96582   3.174   7.692   2.719
98250SOL    HW196583   3.111   7.725   2.784
98250SOL    HW296584   3.163   7.749   2.644
98251SOL     OW96585  13.202   9.219  14.529
98251SOL    HW196586  13.155   9.156  14.584
98251SOL    HW296587  13.165   9.206  14.442
98252SOL     OW96588   5.898  13.478   5.881
98252SOL    HW196589   5.821  13.422   5.886
98252SOL    HW296590   5.959  13.429   5.826
98253SOL     OW96591   4.440   9.266  10.143
98253SOL    HW196592   4.474   9.349  10.109
98253SOL    HW296593   4.345   9.279  10.145
98254SOL     OW96594   3.116  11.719   3.375
98254SOL    HW196595   3.064  11.778   3.431
98254SOL    HW296596   3.085  11.738   3.286
98255SOL     OW96597   8.134   9.268  13.553
98255SOL    HW196598   8.100   9.352  13.524
98255SOL    HW296599   8.071   9.238  13.619
98256SOL     OW96600   4.801   2.537  12.052
98256SOL    HW196601   4.861   2.608  12.074
98256SOL    HW296602   4.832   2.462  12.102
98257SOL     OW96603   2.806  14.785   3.600
98257SOL    HW196604   2.800  14.874   3.635
98257SOL    HW296605   2.729  14.777   3.543
98258SOL     OW96606   4.260   2.314   0.416
98258SOL    HW196607   4.290   2.401   0.441
98258SOL    HW296608   4.168   2.327   0.391
98259SOL     OW96609   9.318   4.702  12.808
98259SOL    HW196610   9.315   4.751  12.890
98259SOL    HW296611   9.351   4.616  12.833
98260SOL     OW96612   8.503   6.773  10.600
98260SOL    HW196613   8.432   6.736  10.652
98260SOL    HW296614   8.461   6.841  10.547
98261SOL     OW96615   3.951   1.218   7.782
98261SOL    HW196616   3.996   1.159   7.843
98261SOL    HW296617   3.858   1.199   7.795
98262SOL     OW96618  14.123  12.093  10.191
98262SOL    HW196619  14.091  12.060  10.275
98262SOL    HW296620  14.177  12.022  10.157
98263SOL     OW96621   0.738   3.409   7.947
98263SOL    HW196622   0.664   3.433   7.890
98263SOL    HW296623   0.741   3.313   7.944
98264SOL     OW96624   3.334  11.350   4.220
98264SOL    HW196625   3.299  11.277   4.271
98264SOL    HW296626   3.387  11.308   4.152
98265SOL     OW96627   7.030   2.637   0.277
98265SOL    HW196628   6.992   2.721   0.304
98265SOL    HW296629   7.121   2.643   0.305
98266SOL     OW96630   7.218   5.490   1.100
98266SOL    HW196631   7.200   5.529   1.186
98266SOL    HW296632   7.132   5.477   1.061
98267SOL     OW96633   3.814   1.028   3.786
98267SOL    HW196634   3.787   1.004   3.697
98267SOL    HW296635   3.907   1.046   3.779
98268SOL     OW96636   1.698   6.521   8.666
98268SOL    HW196637   1.621   6.488   8.711
98268SOL    HW296638   1.681   6.614   8.654
98269SOL     OW96639   8.243   2.544  12.281
98269SOL    HW196640   8.225   2.465  12.332
98269SOL    HW296641   8.156   2.575  12.255
98270SOL     OW96642   2.839   1.265  12.066
98270SOL    HW196643   2.878   1.191  12.113
98270SOL    HW296644   2.890   1.340  12.094
98271SOL     OW96645   3.147   8.824  12.445
98271SOL    HW196646   3.102   8.783  12.518
98271SOL    HW296647   3.077   8.848  12.384
98272SOL     OW96648   9.435   6.938   2.009
98272SOL    HW196649   9.496   6.885   1.958
98272SOL    HW296650   9.400   7.001   1.946
98273SOL     OW96651  10.311   9.520   5.821
98273SOL    HW196652  10.250   9.592   5.803
98273SOL    HW296653  10.280   9.448   5.766
98274SOL     OW96654  13.105  11.512   5.246
98274SOL    HW196655  13.143  11.501   5.159
98274SOL    HW296656  13.159  11.457   5.302
98275SOL     OW96657   3.935   2.592   8.518
98275SOL    HW196658   3.959   2.500   8.513
98275SOL    HW296659   3.912   2.606   8.609
98276SOL     OW96660   1.993   8.383   8.016
98276SOL    HW196661   1.942   8.302   8.016
98276SOL    HW296662   2.062   8.367   8.081
98277SOL     OW96663  10.823   2.795   5.837
98277SOL    HW196664  10.834   2.830   5.749
98277SOL    HW296665  10.908   2.756   5.858
98278SOL     OW96666  13.815  10.247   9.182
98278SOL    HW196667  13.763  10.173   9.214
98278SOL    HW296668  13.762  10.285   9.112
98279SOL     OW96669   2.344   4.388   7.622
98279SOL    HW196670   2.279   4.447   7.583
98279SOL    HW296671   2.296   4.307   7.639
98280SOL     OW96672   6.226   0.115   2.537
98280SOL    HW196673   6.160   0.146   2.476
98280SOL    HW296674   6.296   0.081   2.482
98281SOL     OW96675   8.944  12.252   7.319
98281SOL    HW196676   8.876  12.231   7.254
98281SOL    HW296677   9.021  12.203   7.289
98282SOL     OW96678   9.459   3.869   5.575
98282SOL    HW196679   9.505   3.915   5.505
98282SOL    HW296680   9.440   3.782   5.540
98283SOL     OW96681   3.047   5.413   6.958
98283SOL    HW196682   3.122   5.389   7.012
98283SOL    HW296683   3.085   5.442   6.875
98284SOL     OW96684   3.068   7.890   2.839
98284SOL    HW196685   3.133   7.958   2.825
98284SOL    HW296686   2.996   7.934   2.885
98285SOL     OW96687   7.580   3.999  13.851
98285SOL    HW196688   7.500   3.948  13.863
98285SOL    HW296689   7.583   4.017  13.757
98286SOL     OW96690   0.535   8.492  14.840
98286SOL    HW196691   0.608   8.507  14.780
98286SOL    HW296692   0.537   8.398  14.858
98287SOL     OW96693  11.597   9.813   5.814
98287SOL    HW196694  11.572   9.774   5.898
98287SOL    HW296695  11.533   9.883   5.800
98288SOL     OW96696   7.239   0.303   4.744
98288SOL    HW196697   7.257   0.363   4.671
98288SOL    HW296698   7.315   0.311   4.801
98289SOL     OW96699   0.653  14.351   3.007
98289SOL    HW196700   0.566  14.342   2.967
98289SOL    HW296701   0.636  14.383   3.096
98290SOL     OW96702   4.846   6.510   3.962
98290SOL    HW196703   4.794   6.494   3.884
98290SOL    HW296704   4.784   6.500   4.035
98291SOL     OW96705   8.622  13.914   9.323
98291SOL    HW196706   8.688  13.862   9.370
98291SOL    HW296707   8.666  13.941   9.242
98292SOL     OW96708   4.867   7.171   3.242
98292SOL    HW196709   4.885   7.077   3.243
98292SOL    HW296710   4.851   7.190   3.149
98293SOL     OW96711   5.241   5.097   5.009
98293SOL    HW196712   5.271   5.066   5.095
98293SOL    HW296713   5.230   5.017   4.957
98294SOL     OW96714   4.189   8.749  12.640
98294SOL    HW196715   4.206   8.833  12.597
98294SOL    HW296716   4.189   8.770  12.734
98295SOL     OW96717   1.609   9.584  13.597
98295SOL    HW196718   1.656   9.664  13.621
98295SOL    HW296719   1.519   9.612  13.585
98296SOL     OW96720  11.760   9.493   0.120
98296SOL    HW196721  11.848   9.517   0.147
98296SOL    HW296722  11.753   9.399   0.137
98297SOL     OW96723   0.601   4.962  11.159
98297SOL    HW196724   0.654   5.039  11.138
98297SOL    HW296725   0.511   4.992  11.150
98298SOL     OW96726   5.945   1.624   1.272
98298SOL    HW196727   5.889   1.656   1.201
98298SOL    HW296728   6.028   1.669   1.260
98299SOL     OW96729  11.804   5.510  12.408
98299SOL    HW196730  11.764   5.583  12.360
98299SOL    HW296731  11.810   5.542  12.499
98300SOL     OW96732   0.668   6.707   1.111
98300SOL    HW196733   0.735   6.645   1.082
98300SOL    HW296734   0.599   6.651   1.149
98301SOL     OW96735   0.167  12.246   6.178
98301SOL    HW196736   0.076  12.271   6.190
98301SOL    HW296737   0.213  12.288   6.250
98302SOL     OW96738   7.588  12.588  12.690
98302SOL    HW196739   7.615  12.610  12.601
98302SOL    HW296740   7.520  12.652  12.711
98303SOL     OW96741   4.993   0.944  12.981
98303SOL    HW196742   4.907   0.905  12.972
98303SOL    HW296743   5.047   0.899  12.916
98304SOL     OW96744  11.693  13.595   4.442
98304SOL    HW196745  11.684  13.524   4.505
98304SOL    HW296746  11.654  13.671   4.485
98305SOL     OW96747   7.771  10.641   3.919
98305SOL    HW196748   7.731  10.555   3.931
98305SOL    HW296749   7.730  10.676   3.840
98306SOL     OW96750  11.539  13.665   3.687
98306SOL    HW196751  11.515  13.581   3.648
98306SOL    HW296752  11.635  13.669   3.678
98307SOL     OW96753  10.168   4.334   2.621
98307SOL    HW196754  10.104   4.296   2.561
98307SOL    HW296755  10.115   4.373   2.691
98308SOL     OW96756  14.483   4.480   1.076
98308SOL    HW196757  14.556   4.496   1.016
98308SOL    HW296758  14.411   4.451   1.019
98309SOL     OW96759  12.452   9.082  10.661
98309SOL    HW196760  12.471   9.036  10.742
98309SOL    HW296761  12.480   9.172  10.677
98310SOL     OW96762   5.562   6.133  12.438
98310SOL    HW196763   5.515   6.192  12.380
98310SOL    HW296764   5.643   6.179  12.459
98311SOL     OW96765   9.133   5.781   1.642
98311SOL    HW196766   9.202   5.714   1.637
98311SOL    HW296767   9.055   5.738   1.608
98312SOL     OW96768   4.468  11.911   0.368
98312SOL    HW196769   4.494  11.819   0.380
98312SOL    HW296770   4.413  11.929   0.444
98313SOL     OW96771  11.998  11.297   1.791
98313SOL    HW196772  12.040  11.346   1.720
98313SOL    HW296773  12.042  11.328   1.870
98314SOL     OW96774  10.391  14.629  14.010
98314SOL    HW196775  10.460  14.614  14.074
98314SOL    HW296776  10.322  14.673  14.059
98315SOL     OW96777  11.882  11.889   0.185
98315SOL    HW196778  11.864  11.975   0.226
98315SOL    HW296779  11.799  11.865   0.144
98316SOL     OW96780  13.001  14.821  13.075
98316SOL    HW196781  13.088  14.854  13.051
98316SOL    HW296782  13.018  14.752  13.139
98317SOL     OW96783   3.603   1.928  12.311
98317SOL    HW196784   3.590   2.010  12.263
98317SOL    HW296785   3.673   1.883  12.263
98318SOL     OW96786   8.681  14.528  12.555
98318SOL    HW196787   8.732  14.606  12.571
98318SOL    HW296788   8.680  14.519  12.459
98319SOL     OW96789  14.120   6.545   4.647
98319SOL    HW196790  14.039   6.555   4.595
98319SOL    HW296791  14.089   6.537   4.737
98320SOL     OW96792   0.579   1.271   9.807
98320SOL    HW196793   0.640   1.199   9.822
98320SOL    HW296794   0.574   1.316   9.892
98321SOL     OW96795   8.527   2.449  12.462
98321SOL    HW196796   8.567   2.519  12.412
98321SOL    HW296797   8.489   2.493  12.538
98322SOL     OW96798   3.386   7.336  14.028
98322SOL    HW196799   3.365   7.284  14.106
98322SOL    HW296800   3.447   7.281  13.979
98323SOL     OW96801   0.857   9.722   3.501
98323SOL    HW196802   0.881   9.772   3.579
98323SOL    HW296803   0.762   9.726   3.498
98324SOL     OW96804  12.405  10.021  13.921
98324SOL    HW196805  12.337  10.017  13.854
98324SOL    HW296806  12.487  10.016  13.872
98325SOL     OW96807   8.098  12.885  12.800
98325SOL    HW196808   8.091  12.897  12.705
98325SOL    HW296809   8.011  12.853  12.826
98326SOL     OW96810   2.100   2.676  13.523
98326SOL    HW196811   2.059   2.600  13.564
98326SOL    HW296812   2.071   2.750  13.577
98327SOL     OW96813   9.871   7.278   0.495
98327SOL    HW196814   9.959   7.268   0.459
98327SOL    HW296815   9.877   7.242   0.583
98328SOL     OW96816   1.263   8.086   4.444
98328SOL    HW196817   1.331   8.153   4.434
98328SOL    HW296818   1.251   8.050   4.356
98329SOL     OW96819   4.482   1.557   0.470
98329SOL    HW196820   4.508   1.481   0.418
98329SOL    HW296821   4.411   1.524   0.526
98330SOL     OW96822  13.955   0.942   0.325
98330SOL    HW196823  13.883   0.976   0.272
98330SOL    HW296824  13.941   0.980   0.412
98331SOL     OW96825   7.600   6.081   6.125
98331SOL    HW196826   7.549   6.159   6.106
98331SOL    HW296827   7.554   6.010   6.080
98332SOL     OW96828  14.646  13.180  13.886
98332SOL    HW196829  14.737  13.154  13.901
98332SOL    HW296830  14.608  13.188  13.973
98333SOL     OW96831   4.420  11.422  13.243
98333SOL    HW196832   4.397  11.498  13.297
98333SOL    HW296833   4.511  11.437  13.217
98334SOL     OW96834   1.433   7.063  11.361
98334SOL    HW196835   1.373   7.018  11.421
98334SOL    HW296836   1.511   7.080  11.414
98335SOL     OW96837  11.413   7.647   8.625
98335SOL    HW196838  11.498   7.638   8.669
98335SOL    HW296839  11.432   7.702   8.549
98336SOL     OW96840   2.425   1.191  14.697
98336SOL    HW196841   2.341   1.238  14.700
98336SOL    HW296842   2.417   1.123  14.764
98337SOL     OW96843   3.085   6.913  14.135
98337SOL    HW196844   3.155   6.867  14.088
98337SOL    HW296845   3.014   6.849  14.140
98338SOL     OW96846   3.320  14.542  12.507
98338SOL    HW196847   3.338  14.602  12.580
98338SOL    HW296848   3.286  14.463  12.550
98339SOL     OW96849  10.732  12.993   1.880
98339SOL    HW196850  10.785  13.071   1.897
98339SOL    HW296851  10.775  12.951   1.806
98340SOL     OW96852   3.135   0.189   8.271
98340SOL    HW196853   3.147   0.283   8.283
98340SOL    HW296854   3.175   0.150   8.348
98341SOL     OW96855   9.209  13.916   4.891
98341SOL    HW196856   9.187  13.956   4.807
98341SOL    HW296857   9.151  13.840   4.897
98342SOL     OW96858   0.398  14.535   2.221
98342SOL    HW196859   0.337  14.579   2.162
98342SOL    HW296860   0.439  14.605   2.271
98343SOL     OW96861   7.528   2.563   5.790
98343SOL    HW196862   7.502   2.566   5.882
98343SOL    HW296863   7.621   2.585   5.791
98344SOL     OW96864  14.711   5.073   8.512
98344SOL    HW196865  14.736   5.138   8.578
98344SOL    HW296866  14.692   4.994   8.561
98345SOL     OW96867   3.168  13.656   9.734
98345SOL    HW196868   3.158  13.584   9.671
98345SOL    HW296869   3.080  13.675   9.764
98346SOL     OW96870   7.691  12.244  11.129
98346SOL    HW196871   7.774  12.242  11.176
98346SOL    HW296872   7.644  12.319  11.166
98347SOL     OW96873  13.918   4.137   1.152
98347SOL    HW196874  13.882   4.225   1.140
98347SOL    HW296875  13.855   4.079   1.108
98348SOL     OW96876   5.651   7.278   9.928
98348SOL    HW196877   5.646   7.309  10.018
98348SOL    HW296878   5.739   7.299   9.899
98349SOL     OW96879  10.413   3.721  10.208
98349SOL    HW196880  10.491   3.776  10.203
98349SOL    HW296881  10.391   3.719  10.301
98350SOL     OW96882   6.975  14.343  10.739
98350SOL    HW196883   6.958  14.438  10.738
98350SOL    HW296884   6.902  14.306  10.788
98351SOL     OW96885  11.256   1.433   7.436
98351SOL    HW196886  11.251   1.338   7.447
98351SOL    HW296887  11.228   1.448   7.345
98352SOL     OW96888   4.440   8.222   1.796
98352SOL    HW196889   4.368   8.265   1.751
98352SOL    HW296890   4.517   8.272   1.771
98353SOL     OW96891  13.703  13.528  10.399
98353SOL    HW196892  13.642  13.598  10.375
98353SOL    HW296893  13.786  13.573  10.413
98354SOL     OW96894   4.874   9.976   2.775
98354SOL    HW196895   4.889   9.940   2.863
98354SOL    HW296896   4.922   9.918   2.717
98355SOL     OW96897   2.724   9.428  14.432
98355SOL    HW196898   2.660   9.372  14.388
98355SOL    HW296899   2.717   9.513  14.388
98356SOL     OW96900   9.068   7.347   3.331
98356SOL    HW196901   8.997   7.335   3.394
98356SOL    HW296902   9.096   7.437   3.343
98357SOL     OW96903   7.736  13.142   7.168
98357SOL    HW196904   7.722  13.074   7.103
98357SOL    HW296905   7.808  13.194   7.133
98358SOL     OW96906  11.129   1.847  13.729
98358SOL    HW196907  11.100   1.888  13.648
98358SOL    HW296908  11.170   1.918  13.778
98359SOL     OW96909  11.460   1.949   0.010
98359SOL    HW196910  11.489   1.859   0.018
98359SOL    HW296911  11.460   1.967  14.795
98360SOL     OW96912  13.080  10.095   2.306
98360SOL    HW196913  13.008  10.142   2.264
98360SOL    HW296914  13.060  10.003   2.293
98361SOL     OW96915   9.540  10.715   1.344
98361SOL    HW196916   9.570  10.718   1.435
98361SOL    HW296917   9.509  10.625   1.332
98362SOL     OW96918   1.203   2.623  12.769
98362SOL    HW196919   1.290   2.648  12.737
98362SOL    HW296920   1.149   2.620  12.690
98363SOL     OW96921   7.944  14.842  10.142
98363SOL    HW196922   7.931  14.864  10.234
98363SOL    HW296923   8.026   0.006  10.118
98364SOL     OW96924  12.817  14.774   2.164
98364SOL    HW196925  12.781  14.856   2.129
98364SOL    HW296926  12.862  14.800   2.244
98365SOL     OW96927   6.958  10.871  12.357
98365SOL    HW196928   7.002  10.787  12.349
98365SOL    HW296929   6.880  10.862  12.302
98366SOL     OW96930   5.508   1.470   5.354
98366SOL    HW196931   5.416   1.442   5.351
98366SOL    HW296932   5.537   1.465   5.263
98367SOL     OW96933   8.963  12.784   4.999
98367SOL    HW196934   8.941  12.774   4.906
98367SOL    HW296935   8.892  12.837   5.034
98368SOL     OW96936   7.687  11.788   1.168
98368SOL    HW196937   7.777  11.780   1.200
98368SOL    HW296938   7.633  11.792   1.247
98369SOL     OW96939  10.035   7.137   6.165
98369SOL    HW196940   9.975   7.141   6.240
98369SOL    HW296941  10.109   7.085   6.197
98370SOL     OW96942   9.749   4.954   2.170
98370SOL    HW196943   9.825   4.928   2.118
98370SOL    HW296944   9.691   4.878   2.169
98371SOL     OW96945  10.450   5.877   4.607
98371SOL    HW196946  10.533   5.856   4.564
98371SOL    HW296947  10.416   5.792   4.636
98372SOL     OW96948   6.471   0.058  11.867
98372SOL    HW196949   6.418   0.022  11.939
98372SOL    HW296950   6.461   0.153  11.875
98373SOL     OW96951  14.634  13.684   6.315
98373SOL    HW196952  14.637  13.693   6.411
98373SOL    HW296953  14.614  13.591   6.301
98374SOL     OW96954  12.572  12.261   7.830
98374SOL    HW196955  12.481  12.243   7.852
98374SOL    HW296956  12.570  12.294   7.740
98375SOL     OW96957  13.873   3.234   7.115
98375SOL    HW196958  13.808   3.212   7.049
98375SOL    HW296959  13.908   3.320   7.087
98376SOL     OW96960   4.596   7.839   8.245
98376SOL    HW196961   4.552   7.774   8.191
98376SOL    HW296962   4.684   7.804   8.259
98377SOL     OW96963   1.918  12.091   5.332
98377SOL    HW196964   1.832  12.080   5.372
98377SOL    HW296965   1.965  12.011   5.353
98378SOL     OW96966   5.492   2.925   4.470
98378SOL    HW196967   5.409   2.961   4.437
98378SOL    HW296968   5.542   2.905   4.391
98379SOL     OW96969   1.599  12.526   7.559
98379SOL    HW196970   1.564  12.599   7.509
98379SOL    HW296971   1.640  12.469   7.494
98380SOL     OW96972   3.427  12.389  13.652
98380SOL    HW196973   3.516  12.376  13.619
98380SOL    HW296974   3.392  12.462  13.600
98381SOL     OW96975   5.887  11.886  11.992
98381SOL    HW196976   5.960  11.915  12.047
98381SOL    HW296977   5.842  11.967  11.968
98382SOL     OW96978   0.206  11.645   2.169
98382SOL    HW196979   0.192  11.627   2.262
98382SOL    HW296980   0.124  11.686   2.140
98383SOL     OW96981   4.772  13.950  14.403
98383SOL    HW196982   4.832  13.880  14.429
98383SOL    HW296983   4.823  14.030  14.412
98384SOL     OW96984  12.545   2.853   9.825
98384SOL    HW196985  12.454   2.823   9.818
98384SOL    HW296986  12.541   2.929   9.883
98385SOL     OW96987  11.898  13.095   1.247
98385SOL    HW196988  11.981  13.140   1.264
98385SOL    HW296989  11.921  13.025   1.185
98386SOL     OW96990  14.011  12.252   1.857
98386SOL    HW196991  13.954  12.256   1.934
98386SOL    HW296992  13.962  12.296   1.788
98387SOL     OW96993   2.727   6.907  10.239
98387SOL    HW196994   2.636   6.922  10.265
98387SOL    HW296995   2.728   6.817  10.206
98388SOL     OW96996   6.683  11.938   7.312
98388SOL    HW196997   6.630  11.858   7.317
98388SOL    HW296998   6.772  11.909   7.327
98389SOL     OW96999  13.195  14.405  10.837
98389SOL    HW197000  13.202  14.310  10.834
98389SOL    HW297001  13.202  14.427  10.930
98390SOL     OW97002  11.546   1.762   9.296
98390SOL    HW197003  11.476   1.697   9.301
98390SOL    HW297004  11.534   1.816   9.374
98391SOL     OW97005   6.943  12.720   5.053
98391SOL    HW197006   6.879  12.755   5.115
98391SOL    HW297007   6.897  12.650   5.007
98392SOL     OW97008   8.761   7.994  10.001
98392SOL    HW197009   8.844   7.947  10.011
98392SOL    HW297010   8.776   8.078  10.044
98393SOL     OW97011  12.101   0.723   7.517
98393SOL    HW197012  12.034   0.760   7.460
98393SOL    HW297013  12.169   0.790   7.520
98394SOL     OW97014  13.149  14.667   6.413
98394SOL    HW197015  13.121  14.757   6.394
98394SOL    HW297016  13.237  14.676   6.448
98395SOL     OW97017   7.470  14.676   6.546
98395SOL    HW197018   7.514  14.759   6.568
98395SOL    HW297019   7.494  14.661   6.455
98396SOL     OW97020  10.582   5.933  10.029
98396SOL    HW197021  10.554   6.010  10.079
98396SOL    HW297022  10.663   5.960   9.986
98397SOL     OW97023   7.159  12.817  10.003
98397SOL    HW197024   7.243  12.782   9.975
98397SOL    HW297025   7.101  12.741  10.006
98398SOL     OW97026  14.678   8.142   0.198
98398SOL    HW197027  14.625   8.102   0.129
98398SOL    HW297028  14.716   8.068   0.246
98399SOL     OW97029   5.031   9.064   6.305
98399SOL    HW197030   4.957   9.090   6.249
98399SOL    HW297031   5.064   8.984   6.265
98400SOL     OW97032   7.346  11.945  11.711
98400SOL    HW197033   7.266  11.894  11.701
98400SOL    HW297034   7.373  11.965  11.621
98401SOL     OW97035  10.197   7.828  14.858
98401SOL    HW197036  10.109   7.794  14.839
98401SOL    HW297037  10.181   7.910   0.026
98402SOL     OW97038   0.323   3.173  13.654
98402SOL    HW197039   0.365   3.088  13.640
98402SOL    HW297040   0.393   3.230  13.685
98403SOL     OW97041   2.929   1.052   7.250
98403SOL    HW197042   2.930   1.146   7.264
98403SOL    HW297043   2.930   1.015   7.339
98404SOL     OW97044  12.831  14.313   8.347
98404SOL    HW197045  12.742  14.284   8.330
98404SOL    HW297046  12.830  14.340   8.439
98405SOL     OW97047   9.581   5.673   0.243
98405SOL    HW197048   9.544   5.761   0.245
98405SOL    HW297049   9.657   5.678   0.301
98406SOL     OW97050   3.356   6.553  12.134
98406SOL    HW197051   3.268   6.552  12.097
98406SOL    HW297052   3.411   6.588  12.063
98407SOL     OW97053   0.646   4.882   7.282
98407SOL    HW197054   0.600   4.808   7.322
98407SOL    HW297055   0.723   4.843   7.242
98408SOL     OW97056   3.448  10.436  13.087
98408SOL    HW197057   3.415  10.350  13.060
98408SOL    HW297058   3.510  10.417  13.157
98409SOL     OW97059   4.728  14.286   0.068
98409SOL    HW197060   4.732  14.222  14.876
98409SOL    HW297061   4.792  14.254   0.132
98410SOL     OW97062  13.983   9.765   1.655
98410SOL    HW197063  14.039   9.768   1.577
98410SOL    HW297064  13.904   9.719   1.626
98411SOL     OW97065   5.580  14.371  13.184
98411SOL    HW197066   5.602  14.428  13.110
98411SOL    HW297067   5.572  14.284  13.145
98412SOL     OW97068   0.127   4.841   4.181
98412SOL    HW197069   0.047   4.799   4.149
98412SOL    HW297070   0.180   4.853   4.102
98413SOL     OW97071   0.275  10.525   7.641
98413SOL    HW197072   0.346  10.468   7.672
98413SOL    HW297073   0.314  10.576   7.571
98414SOL     OW97074   2.905   6.975  10.997
98414SOL    HW197075   2.936   7.054  11.041
98414SOL    HW297076   2.865   6.923  11.067
98415SOL     OW97077   1.236   9.332   2.610
98415SOL    HW197078   1.189   9.272   2.666
98415SOL    HW297079   1.174   9.355   2.541
98416SOL     OW97080   7.833   7.677  13.276
98416SOL    HW197081   7.785   7.610  13.325
98416SOL    HW297082   7.776   7.754  13.280
98417SOL     OW97083   2.402   7.104   7.932
98417SOL    HW197084   2.442   7.111   8.019
98417SOL    HW297085   2.439   7.023   7.895
98418SOL     OW97086   6.216   0.546  11.506
98418SOL    HW197087   6.197   0.504  11.422
98418SOL    HW297088   6.144   0.608  11.519
98419SOL     OW97089   9.374   1.295  10.117
98419SOL    HW197090   9.314   1.338  10.178
98419SOL    HW297091   9.429   1.240  10.173
98420SOL     OW97092  10.261   9.609  10.032
98420SOL    HW197093  10.200   9.565  10.091
98420SOL    HW297094  10.310   9.538   9.991
98421SOL     OW97095   9.138  13.904   2.064
98421SOL    HW197096   9.106  13.994   2.070
98421SOL    HW297097   9.063  13.854   2.031
98422SOL     OW97098   9.105   6.478   0.629
98422SOL    HW197099   9.125   6.562   0.587
98422SOL    HW297100   9.164   6.475   0.705
98423SOL     OW97101   3.888  14.513  13.642
98423SOL    HW197102   3.966  14.518  13.587
98423SOL    HW297103   3.815  14.514  13.580
98424SOL     OW97104   4.316  11.653   5.225
98424SOL    HW197105   4.306  11.570   5.179
98424SOL    HW297106   4.255  11.712   5.181
98425SOL     OW97107   2.301   3.192   1.462
98425SOL    HW197108   2.247   3.145   1.525
98425SOL    HW297109   2.239   3.229   1.399
98426SOL     OW97110   9.867  13.037  11.371
98426SOL    HW197111   9.899  13.109  11.316
98426SOL    HW297112   9.909  12.959  11.335
98427SOL     OW97113   8.767  11.558  13.581
98427SOL    HW197114   8.741  11.503  13.655
98427SOL    HW297115   8.861  11.541  13.570
98428SOL     OW97116   3.252   6.558   0.213
98428SOL    HW197117   3.240   6.512   0.296
98428SOL    HW297118   3.218   6.498   0.147
98429SOL     OW97119   2.861  13.805   9.412
98429SOL    HW197120   2.767  13.793   9.405
98429SOL    HW297121   2.884  13.772   9.499
98430SOL     OW97122  10.271  14.112   1.140
98430SOL    HW197123  10.245  14.196   1.179
98430SOL    HW297124  10.345  14.083   1.192
98431SOL     OW97125   4.665  13.129   4.927
98431SOL    HW197126   4.704  13.216   4.930
98431SOL    HW297127   4.576  13.141   4.962
98432SOL     OW97128   9.956   1.845   5.981
98432SOL    HW197129   9.978   1.766   5.931
98432SOL    HW297130  10.024   1.908   5.958
98433SOL     OW97131   9.046   5.179   4.052
98433SOL    HW197132   8.959   5.174   4.091
98433SOL    HW297133   9.066   5.089   4.026
98434SOL     OW97134   3.370   2.450   5.449
98434SOL    HW197135   3.300   2.491   5.399
98434SOL    HW297136   3.325   2.390   5.508
98435SOL     OW97137  10.593  10.504   4.368
98435SOL    HW197138  10.544  10.586   4.353
98435SOL    HW297139  10.662  10.529   4.429
98436SOL     OW97140   9.406   6.184  12.271
98436SOL    HW197141   9.405   6.117  12.339
98436SOL    HW297142   9.370   6.141  12.194
98437SOL     OW97143   2.538   3.485  13.851
98437SOL    HW197144   2.528   3.580  13.857
98437SOL    HW297145   2.554   3.457  13.941
98438SOL     OW97146   4.234   5.835   9.281
98438SOL    HW197147   4.142   5.838   9.309
98438SOL    HW297148   4.260   5.743   9.293
98439SOL     OW97149  14.717   6.661   0.498
98439SOL    HW197150  14.780   6.648   0.570
98439SOL    HW297151  14.699   6.755   0.499
98440SOL     OW97152   3.577  13.999   4.491
98440SOL    HW197153   3.581  13.925   4.552
98440SOL    HW297154   3.484  14.021   4.485
98441SOL     OW97155   8.826   0.080   1.579
98441SOL    HW197156   8.810   0.049   1.668
98441SOL    HW297157   8.806   0.005   1.524
98442SOL     OW97158   9.948   2.275  12.771
98442SOL    HW197159   9.886   2.232  12.830
98442SOL    HW297160   9.934   2.369  12.785
98443SOL     OW97161   8.539   5.633   6.969
98443SOL    HW197162   8.465   5.582   7.002
98443SOL    HW297163   8.577   5.673   7.047
98444SOL     OW97164   8.359  10.600   7.026
98444SOL    HW197165   8.382  10.605   6.934
98444SOL    HW297166   8.263  10.591   7.027
98445SOL     OW97167   3.562   6.279   7.650
98445SOL    HW197168   3.622   6.306   7.719
98445SOL    HW297169   3.476   6.281   7.692
98446SOL     OW97170   7.804   3.142  11.888
98446SOL    HW197171   7.860   3.206  11.933
98446SOL    HW297172   7.855   3.061  11.890
98447SOL     OW97173  12.597  11.931   6.401
98447SOL    HW197174  12.581  11.910   6.493
98447SOL    HW297175  12.650  11.858   6.369
98448SOL     OW97176   8.520  12.703   9.125
98448SOL    HW197177   8.453  12.636   9.112
98448SOL    HW297178   8.538  12.736   9.037
98449SOL     OW97179   0.091  11.454   1.363
98449SOL    HW197180   0.138  11.536   1.378
98449SOL    HW297181   0.156  11.396   1.323
98450SOL     OW97182   9.507   8.492   5.746
98450SOL    HW197183   9.463   8.576   5.756
98450SOL    HW297184   9.550   8.497   5.661
98451SOL     OW97185   6.753   0.408  13.393
98451SOL    HW197186   6.725   0.321  13.366
98451SOL    HW297187   6.824   0.430  13.333
98452SOL     OW97188   3.980   9.742   3.907
98452SOL    HW197189   3.992   9.774   3.818
98452SOL    HW297190   3.944   9.816   3.955
98453SOL     OW97191  13.376  13.228   5.838
98453SOL    HW197192  13.366  13.324   5.842
98453SOL    HW297193  13.345  13.205   5.751
98454SOL     OW97194   2.898  11.506   3.113
98454SOL    HW197195   2.913  11.561   3.036
98454SOL    HW297196   2.979  11.456   3.123
98455SOL     OW97197  10.763   9.366   3.296
98455SOL    HW197198  10.722   9.435   3.244
98455SOL    HW297199  10.714   9.287   3.274
98456SOL     OW97200   3.734  13.632   4.936
98456SOL    HW197201   3.819  13.590   4.951
98456SOL    HW297202   3.703  13.654   5.024
98457SOL     OW97203   2.911  10.099  10.536
98457SOL    HW197204   2.966  10.171  10.565
98457SOL    HW297205   2.971  10.024  10.531
98458SOL     OW97206  11.332  12.046   6.995
98458SOL    HW197207  11.372  12.024   6.911
98458SOL    HW297208  11.270  11.975   7.012
98459SOL     OW97209   4.563   6.982   4.043
98459SOL    HW197210   4.536   7.074   4.048
98459SOL    HW297211   4.494   6.935   4.090
98460SOL     OW97212   9.354   2.368   7.386
98460SOL    HW197213   9.284   2.400   7.442
98460SOL    HW297214   9.310   2.337   7.307
98461SOL     OW97215   3.278  14.724   0.560
98461SOL    HW197216   3.320  14.810   0.564
98461SOL    HW297217   3.348  14.663   0.584
98462SOL     OW97218  13.948   9.812   3.163
98462SOL    HW197219  13.968   9.781   3.074
98462SOL    HW297220  13.915   9.735   3.208
98463SOL     OW97221   5.391   6.962  10.628
98463SOL    HW197222   5.358   7.046  10.597
98463SOL    HW297223   5.417   6.977  10.719
98464SOL     OW97224  10.853   3.213   6.612
98464SOL    HW197225  10.934   3.167   6.633
98464SOL    HW297226  10.874   3.306   6.621
98465SOL     OW97227   3.402  11.350   7.932
98465SOL    HW197228   3.344  11.295   7.985
98465SOL    HW297229   3.369  11.439   7.946
98466SOL     OW97230   9.512  12.749   8.830
98466SOL    HW197231   9.537  12.838   8.805
98466SOL    HW297232   9.429  12.760   8.878
98467SOL     OW97233   0.820   3.218  14.193
98467SOL    HW197234   0.898   3.272  14.202
98467SOL    HW297235   0.757   3.254  14.255
98468SOL     OW97236   1.490   1.199   6.994
98468SOL    HW197237   1.581   1.195   6.963
98468SOL    HW297238   1.496   1.226   7.085
98469SOL     OW97239  12.465   5.082  10.065
98469SOL    HW197240  12.441   5.174  10.056
98469SOL    HW297241  12.520   5.079  10.144
98470SOL     OW97242   4.864  11.436   8.781
98470SOL    HW197243   4.873  11.364   8.719
98470SOL    HW297244   4.774  11.429   8.813
98471SOL     OW97245  12.052   3.520  12.178
98471SOL    HW197246  11.988   3.463  12.221
98471SOL    HW297247  12.007   3.553  12.100
98472SOL     OW97248   7.340   9.873  14.052
98472SOL    HW197249   7.386   9.886  14.135
98472SOL    HW297250   7.250   9.851  14.077
98473SOL     OW97251   9.045  12.196   8.416
98473SOL    HW197252   9.112  12.163   8.475
98473SOL    HW297253   8.993  12.257   8.469
98474SOL     OW97254   8.563   3.442  12.043
98474SOL    HW197255   8.550   3.535  12.024
98474SOL    HW297256   8.547   3.434  12.137
98475SOL     OW97257   5.820   2.905   2.758
98475SOL    HW197258   5.764   2.981   2.742
98475SOL    HW297259   5.760   2.837   2.786
98476SOL     OW97260   7.603   1.719   0.804
98476SOL    HW197261   7.517   1.727   0.763
98476SOL    HW297262   7.659   1.680   0.736
98477SOL     OW97263   8.003  13.061   1.722
98477SOL    HW197264   8.034  13.037   1.809
98477SOL    HW297265   7.983  12.978   1.679
98478SOL     OW97266  14.306   4.871   4.573
98478SOL    HW197267  14.346   4.929   4.637
98478SOL    HW297268  14.327   4.783   4.604
98479SOL     OW97269   2.856  11.685   5.146
98479SOL    HW197270   2.892  11.728   5.224
98479SOL    HW297271   2.804  11.752   5.103
98480SOL     OW97272   9.864   0.562   8.887
98480SOL    HW197273   9.831   0.524   8.968
98480SOL    HW297274   9.945   0.515   8.869
98481SOL     OW97275   9.774  11.237   3.883
98481SOL    HW197276   9.831  11.312   3.904
98481SOL    HW297277   9.687  11.265   3.910
98482SOL     OW97278   0.070   4.793   3.735
98482SOL    HW197279  14.871   4.788   3.791
98482SOL    HW297280   0.040   4.840   3.657
98483SOL     OW97281   0.875   5.498   5.516
98483SOL    HW197282   0.907   5.572   5.568
98483SOL    HW297283   0.849   5.538   5.432
98484SOL     OW97284  14.119   7.597   0.711
98484SOL    HW197285  14.205   7.625   0.679
98484SOL    HW297286  14.102   7.654   0.786
98485SOL     OW97287  12.165  14.368  10.981
98485SOL    HW197288  12.254  14.345  10.956
98485SOL    HW297289  12.131  14.289  11.023
98486SOL     OW97290  13.935   8.710   7.548
98486SOL    HW197291  13.966   8.731   7.636
98486SOL    HW297292  14.001   8.650   7.513
98487SOL     OW97293   3.678  13.636   4.323
98487SOL    HW197294   3.592  13.645   4.362
98487SOL    HW297295   3.665  13.659   4.231
98488SOL     OW97296   2.555   7.217   2.621
98488SOL    HW197297   2.598   7.144   2.577
98488SOL    HW297298   2.528   7.182   2.706
98489SOL     OW97299  12.465  12.256   1.404
98489SOL    HW197300  12.530  12.189   1.429
98489SOL    HW297301  12.515  12.337   1.401
98490SOL     OW97302   8.302  13.300  12.733
98490SOL    HW197303   8.285  13.231  12.798
98490SOL    HW297304   8.333  13.374  12.785
98491SOL     OW97305   9.866  10.874   0.129
98491SOL    HW197306   9.942  10.920   0.094
98491SOL    HW297307   9.837  10.927   0.203
98492SOL     OW97308   5.345   3.876   0.811
98492SOL    HW197309   5.361   3.782   0.820
98492SOL    HW297310   5.249   3.883   0.814
98493SOL     OW97311   9.829   1.741  10.690
98493SOL    HW197312   9.869   1.697  10.615
98493SOL    HW297313   9.768   1.676  10.725
98494SOL     OW97314   7.596   0.299   1.242
98494SOL    HW197315   7.654   0.285   1.317
98494SOL    HW297316   7.654   0.316   1.168
98495SOL     OW97317   6.798  12.218  11.797
98495SOL    HW197318   6.883  12.231  11.840
98495SOL    HW297319   6.738  12.199  11.869
98496SOL     OW97320  11.124   1.236   5.894
98496SOL    HW197321  11.061   1.166   5.879
98496SOL    HW297322  11.187   1.199   5.956
98497SOL     OW97323  12.068   1.122   4.497
98497SOL    HW197324  12.039   1.062   4.428
98497SOL    HW297325  11.988   1.147   4.542
98498SOL     OW97326  11.844   8.431   6.400
98498SOL    HW197327  11.856   8.470   6.486
98498SOL    HW297328  11.790   8.354   6.416
98499SOL     OW97329   4.512   7.208   7.880
98499SOL    HW197330   4.591   7.240   7.836
98499SOL    HW297331   4.510   7.256   7.963
98500SOL     OW97332   4.270  11.179   8.350
98500SOL    HW197333   4.176  11.160   8.351
98500SOL    HW297334   4.306  11.125   8.422
98501SOL     OW97335   3.480   8.080  11.403
98501SOL    HW197336   3.550   8.133  11.441
98501SOL    HW297337   3.404   8.096  11.459
98502SOL     OW97338  10.384  11.471   1.236
98502SOL    HW197339  10.391  11.555   1.280
98502SOL    HW297340  10.293  11.467   1.205
98503SOL     OW97341  11.689   5.755  11.315
98503SOL    HW197342  11.641   5.676  11.289
98503SOL    HW297343  11.635   5.794  11.383
98504SOL     OW97344   2.431   0.994   5.261
98504SOL    HW197345   2.421   1.086   5.287
98504SOL    HW297346   2.480   0.954   5.333
98505SOL     OW97347   4.862  11.266   2.108
98505SOL    HW197348   4.780  11.315   2.109
98505SOL    HW297349   4.903  11.291   2.025
98506SOL     OW97350   2.986   1.995   3.353
98506SOL    HW197351   3.010   1.929   3.418
98506SOL    HW297352   2.894   1.978   3.333
98507SOL     OW97353   0.834   0.378   5.791
98507SOL    HW197354   0.795   0.352   5.875
98507SOL    HW297355   0.816   0.305   5.732
98508SOL     OW97356  10.385  11.240   6.990
98508SOL    HW197357  10.367  11.146   6.986
98508SOL    HW297358  10.418  11.262   6.903
98509SOL     OW97359   7.094  13.007   8.109
98509SOL    HW197360   7.155  13.040   8.175
98509SOL    HW297361   7.149  12.984   8.035
98510SOL     OW97362   6.018  11.437   2.220
98510SOL    HW197363   6.076  11.471   2.288
98510SOL    HW297364   6.061  11.358   2.188
98511SOL     OW97365   0.504   8.129  10.604
98511SOL    HW197366   0.524   8.044  10.566
98511SOL    HW297367   0.414   8.148  10.577
98512SOL     OW97368   4.634   8.082  11.704
98512SOL    HW197369   4.706   8.139  11.678
98512SOL    HW297370   4.653   8.058  11.795
98513SOL     OW97371   7.530   2.641   1.766
98513SOL    HW197372   7.541   2.722   1.715
98513SOL    HW297373   7.444   2.650   1.806
98514SOL     OW97374  14.750  10.646   0.363
98514SOL    HW197375  14.710  10.725   0.400
98514SOL    HW297376  14.840  10.672   0.344
98515SOL     OW97377   1.354   4.818   2.281
98515SOL    HW197378   1.316   4.739   2.319
98515SOL    HW297379   1.412   4.786   2.212
98516SOL     OW97380   5.080   7.616   7.983
98516SOL    HW197381   5.017   7.675   7.943
98516SOL    HW297382   5.098   7.655   8.069
98517SOL     OW97383   9.247  13.319   3.654
98517SOL    HW197384   9.220  13.264   3.726
98517SOL    HW297385   9.197  13.287   3.578
98518SOL     OW97386   8.835   1.911  10.133
98518SOL    HW197387   8.916   1.947  10.095
98518SOL    HW297388   8.767   1.935  10.070
98519SOL     OW97389   1.830  11.680   5.124
98519SOL    HW197390   1.762  11.695   5.191
98519SOL    HW297391   1.822  11.587   5.103
98520SOL     OW97392   1.207   5.273   8.231
98520SOL    HW197393   1.286   5.257   8.179
98520SOL    HW297394   1.240   5.309   8.313
98521SOL     OW97395   1.767   4.387   3.792
98521SOL    HW197396   1.740   4.475   3.817
98521SOL    HW297397   1.803   4.397   3.704
98522SOL     OW97398  12.992   8.450   3.973
98522SOL    HW197399  12.960   8.407   3.893
98522SOL    HW297400  13.075   8.490   3.947
98523SOL     OW97401   9.316   5.792  14.039
98523SOL    HW197402   9.315   5.887  14.049
98523SOL    HW297403   9.408   5.771  14.024
98524SOL     OW97404   5.694   5.889   5.807
98524SOL    HW197405   5.756   5.916   5.875
98524SOL    HW297406   5.684   5.795   5.819
98525SOL     OW97407   6.855  13.889   4.561
98525SOL    HW197408   6.859  13.795   4.544
98525SOL    HW297409   6.763  13.906   4.583
98526SOL     OW97410  14.595  14.237   2.187
98526SOL    HW197411  14.618  14.154   2.228
98526SOL    HW297412  14.542  14.212   2.111
98527SOL     OW97413   8.534   6.165   0.571
98527SOL    HW197414   8.463   6.158   0.634
98527SOL    HW297415   8.490   6.173   0.486
98528SOL     OW97416   5.362   6.247   4.784
98528SOL    HW197417   5.346   6.216   4.695
98528SOL    HW297418   5.411   6.176   4.826
98529SOL     OW97419   9.628   6.353   6.163
98529SOL    HW197420   9.703   6.371   6.220
98529SOL    HW297421   9.651   6.271   6.119
98530SOL     OW97422   4.832   4.479  12.387
98530SOL    HW197423   4.835   4.556  12.442
98530SOL    HW297424   4.880   4.412  12.435
98531SOL     OW97425   1.177   9.270   7.462
98531SOL    HW197426   1.231   9.208   7.511
98531SOL    HW297427   1.115   9.215   7.413
98532SOL     OW97428   0.008  10.712   7.567
98532SOL    HW197429   0.090  10.747   7.532
98532SOL    HW297430  14.822  10.778   7.545
98533SOL     OW97431   5.676   6.910   8.046
98533SOL    HW197432   5.607   6.942   7.988
98533SOL    HW297433   5.753   6.901   7.990
98534SOL     OW97434   4.439   0.507  13.543
98534SOL    HW197435   4.412   0.569  13.611
98534SOL    HW297436   4.366   0.506  13.481
98535SOL     OW97437   3.521  12.818   5.096
98535SOL    HW197438   3.505  12.743   5.039
98535SOL    HW297439   3.442  12.871   5.090
98536SOL     OW97440   9.442  10.470   0.875
98536SOL    HW197441   9.507  10.491   0.807
98536SOL    HW297442   9.493  10.431   0.945
98537SOL     OW97443   7.064   6.512   3.288
98537SOL    HW197444   7.026   6.472   3.366
98537SOL    HW297445   7.065   6.442   3.223
98538SOL     OW97446   7.910   9.230   0.993
98538SOL    HW197447   7.965   9.152   0.985
98538SOL    HW297448   7.961   9.299   0.950
98539SOL     OW97449   0.835   6.510  13.231
98539SOL    HW197450   0.886   6.575  13.182
98539SOL    HW297451   0.774   6.475  13.167
98540SOL     OW97452  14.258   8.761   0.599
98540SOL    HW197453  14.286   8.848   0.570
98540SOL    HW297454  14.180   8.742   0.546
98541SOL     OW97455  13.544   1.120   3.950
98541SOL    HW197456  13.511   1.076   3.872
98541SOL    HW297457  13.477   1.104   4.016
98542SOL     OW97458   9.011   6.406   7.596
98542SOL    HW197459   9.046   6.373   7.678
98542SOL    HW297460   9.082   6.393   7.533
98543SOL     OW97461   4.551   0.756   2.737
98543SOL    HW197462   4.567   0.844   2.705
98543SOL    HW297463   4.457   0.752   2.753
98544SOL     OW97464   6.890  10.393   7.199
98544SOL    HW197465   6.950  10.319   7.209
98544SOL    HW297466   6.855  10.409   7.286
98545SOL     OW97467   2.209   0.700   1.869
98545SOL    HW197468   2.121   0.723   1.839
98545SOL    HW297469   2.213   0.734   1.959
98546SOL     OW97470   1.930   7.560   8.654
98546SOL    HW197471   2.000   7.619   8.627
98546SOL    HW297472   1.850   7.609   8.639
98547SOL     OW97473  11.299  11.208   2.324
98547SOL    HW197474  11.257  11.155   2.392
98547SOL    HW297475  11.238  11.206   2.251
98548SOL     OW97476   2.910  13.400   8.972
98548SOL    HW197477   2.951  13.386   9.057
98548SOL    HW297478   2.983  13.401   8.910
98549SOL     OW97479   8.351  14.498  13.550
98549SOL    HW197480   8.313  14.575  13.591
98549SOL    HW297481   8.445  14.518  13.544
98550SOL     OW97482   2.734   1.897  12.076
98550SOL    HW197483   2.703   1.988  12.078
98550SOL    HW297484   2.698   1.861  11.995
98551SOL     OW97485  13.032   8.872   1.138
98551SOL    HW197486  12.939   8.869   1.118
98551SOL    HW297487  13.068   8.933   1.074
98552SOL     OW97488  12.702   3.452   3.440
98552SOL    HW197489  12.757   3.423   3.513
98552SOL    HW297490  12.619   3.406   3.453
98553SOL     OW97491  13.715  13.773   5.503
98553SOL    HW197492  13.774  13.745   5.572
98553SOL    HW297493  13.757  13.745   5.421
98554SOL     OW97494  10.639   8.353   4.374
98554SOL    HW197495  10.642   8.262   4.347
98554SOL    HW297496  10.685   8.356   4.458
98555SOL     OW97497  11.082   6.302  12.770
98555SOL    HW197498  11.138   6.314  12.694
98555SOL    HW297499  11.046   6.214  12.759
98556SOL     OW97500   4.641   8.012   2.752
98556SOL    HW197501   4.570   7.989   2.691
98556SOL    HW297502   4.689   7.930   2.764
98557SOL     OW97503  10.615  14.236   9.050
98557SOL    HW197504  10.593  14.194   9.133
98557SOL    HW297505  10.551  14.201   8.988
98558SOL     OW97506   8.588   0.441   2.178
98558SOL    HW197507   8.521   0.509   2.184
98558SOL    HW297508   8.606   0.433   2.084
98559SOL     OW97509  10.800  13.278   7.864
98559SOL    HW197510  10.833  13.351   7.917
98559SOL    HW297511  10.764  13.217   7.928
98560SOL     OW97512   9.001   7.615   7.888
98560SOL    HW197513   9.070   7.680   7.873
98560SOL    HW297514   8.949   7.650   7.960
98561SOL     OW97515   8.102   6.752  13.770
98561SOL    HW197516   8.083   6.839  13.733
98561SOL    HW297517   8.146   6.705  13.699
98562SOL     OW97518   5.502  12.775  10.046
98562SOL    HW197519   5.535  12.727   9.970
98562SOL    HW297520   5.414  12.802  10.020
98563SOL     OW97521   7.147  14.282   6.292
98563SOL    HW197522   7.154  14.196   6.333
98563SOL    HW297523   7.084  14.330   6.346
98564SOL     OW97524   5.183  13.943   5.107
98564SOL    HW197525   5.189  13.889   5.186
98564SOL    HW297526   5.239  14.019   5.125
98565SOL     OW97527   5.690   2.175   7.307
98565SOL    HW197528   5.637   2.226   7.369
98565SOL    HW297529   5.777   2.215   7.312
98566SOL     OW97530   0.746  13.665   4.680
98566SOL    HW197531   0.737  13.731   4.749
98566SOL    HW297532   0.684  13.693   4.612
98567SOL     OW97533   3.098   4.444  13.700
98567SOL    HW197534   3.036   4.374  13.679
98567SOL    HW297535   3.182   4.412  13.668
98568SOL     OW97536  14.404   6.703   7.693
98568SOL    HW197537  14.453   6.654   7.759
98568SOL    HW297538  14.346   6.639   7.653
98569SOL     OW97539   3.630   9.585  13.626
98569SOL    HW197540   3.716   9.570  13.665
98569SOL    HW297541   3.640   9.555  13.535
98570SOL     OW97542  10.615  14.107   1.309
98570SOL    HW197543  10.553  14.039   1.337
98570SOL    HW297544  10.696  14.060   1.291
98571SOL     OW97545   4.718  11.467   0.679
98571SOL    HW197546   4.736  11.435   0.591
98571SOL    HW297547   4.627  11.499   0.675
98572SOL     OW97548   6.110  11.558  12.749
98572SOL    HW197549   6.130  11.573  12.657
98572SOL    HW297550   6.195  11.568  12.794
98573SOL     OW97551   0.101   4.852   6.122
98573SOL    HW197552   0.044   4.819   6.192
98573SOL    HW297553   0.185   4.869   6.166
98574SOL     OW97554   0.397   4.952   7.611
98574SOL    HW197555   0.445   4.870   7.621
98574SOL    HW297556   0.462   5.016   7.584
98575SOL     OW97557   1.461   6.581   3.156
98575SOL    HW197558   1.542   6.606   3.199
98575SOL    HW297559   1.402   6.655   3.168
98576SOL     OW97560  11.910  12.174  14.053
98576SOL    HW197561  11.815  12.186  14.044
98576SOL    HW297562  11.932  12.112  13.984
98577SOL     OW97563   4.200   8.591   0.063
98577SOL    HW197564   4.250   8.528   0.012
98577SOL    HW297565   4.140   8.537   0.116
98578SOL     OW97566   5.031   3.218   4.308
98578SOL    HW197567   5.093   3.155   4.345
98578SOL    HW297568   4.948   3.198   4.351
98579SOL     OW97569   4.413   2.741  10.713
98579SOL    HW197570   4.332   2.716  10.757
98579SOL    HW297571   4.463   2.660  10.709
98580SOL     OW97572  13.500  11.067   9.082
98580SOL    HW197573  13.441  11.104   9.148
98580SOL    HW297574  13.472  11.108   9.000
98581SOL     OW97575  12.310   3.117   5.589
98581SOL    HW197576  12.324   3.024   5.610
98581SOL    HW297577  12.388   3.142   5.538
98582SOL     OW97578   8.470   5.096  11.476
98582SOL    HW197579   8.423   5.163  11.427
98582SOL    HW297580   8.561   5.125  11.477
98583SOL     OW97581  13.375   3.298   8.003
98583SOL    HW197582  13.431   3.375   8.013
98583SOL    HW297583  13.398   3.243   8.077
98584SOL     OW97584  13.947  10.355  14.515
98584SOL    HW197585  13.962  10.442  14.480
98584SOL    HW297586  13.935  10.368  14.609
98585SOL     OW97587   8.052   5.218   3.262
98585SOL    HW197588   8.107   5.230   3.339
98585SOL    HW297589   7.973   5.268   3.281
98586SOL     OW97590  12.496  13.998  10.386
98586SOL    HW197591  12.474  13.964  10.473
98586SOL    HW297592  12.553  13.931  10.347
98587SOL     OW97593   0.748   2.342   9.880
98587SOL    HW197594   0.827   2.321   9.830
98587SOL    HW297595   0.772   2.420   9.931
98588SOL     OW97596  13.655   5.674   3.910
98588SOL    HW197597  13.689   5.595   3.951
98588SOL    HW297598  13.565   5.681   3.943
98589SOL     OW97599   3.962   2.851   9.638
98589SOL    HW197600   3.906   2.865   9.562
98589SOL    HW297601   3.951   2.930   9.691
98590SOL     OW97602  12.257  14.216   3.282
98590SOL    HW197603  12.206  14.225   3.362
98590SOL    HW297604  12.192  14.200   3.213
98591SOL     OW97605   6.741   1.544   8.750
98591SOL    HW197606   6.700   1.602   8.686
98591SOL    HW297607   6.829   1.579   8.761
98592SOL     OW97608  10.079   0.024  12.469
98592SOL    HW197609  10.017  14.834  12.492
98592SOL    HW297610  10.030   0.105  12.480
98593SOL     OW97611  10.659  13.905   8.875
98593SOL    HW197612  10.655  13.830   8.816
98593SOL    HW297613  10.751  13.931   8.876
98594SOL     OW97614   2.881   2.384   0.661
98594SOL    HW197615   2.883   2.447   0.589
98594SOL    HW297616   2.901   2.300   0.620
98595SOL     OW97617   5.023  12.026  13.677
98595SOL    HW197618   5.085  12.092  13.710
98595SOL    HW297619   4.937  12.063  13.696
98596SOL     OW97620   7.300   7.057   8.466
98596SOL    HW197621   7.291   7.151   8.446
98596SOL    HW297622   7.289   7.014   8.381
98597SOL     OW97623   9.443   0.388   9.976
98597SOL    HW197624   9.363   0.437   9.957
98597SOL    HW297625   9.497   0.449  10.027
98598SOL     OW97626   8.355   3.135   9.837
98598SOL    HW197627   8.381   3.225   9.815
98598SOL    HW297628   8.298   3.145   9.913
98599SOL     OW97629  11.575  11.881  10.378
98599SOL    HW197630  11.480  11.875  10.372
98599SOL    HW297631  11.591  11.940  10.452
98600SOL     OW97632   5.139   7.950  10.292
98600SOL    HW197633   5.177   7.866  10.314
98600SOL    HW297634   5.106   7.984  10.375
98601SOL     OW97635   9.967   2.862   6.764
98601SOL    HW197636   9.872   2.852   6.757
98601SOL    HW297637  10.002   2.803   6.696
98602SOL     OW97638   4.861   1.637  12.789
98602SOL    HW197639   4.848   1.553  12.833
98602SOL    HW297640   4.940   1.624  12.736
98603SOL     OW97641   4.606   7.549   3.503
98603SOL    HW197642   4.629   7.549   3.596
98603SOL    HW297643   4.576   7.639   3.486
98604SOL     OW97644   7.714   8.414  13.932
98604SOL    HW197645   7.675   8.362  14.003
98604SOL    HW297646   7.646   8.416  13.864
98605SOL     OW97647   3.622   9.135   2.346
98605SOL    HW197648   3.571   9.215   2.334
98605SOL    HW297649   3.606   9.110   2.437
98606SOL     OW97650   6.810   4.721   3.643
98606SOL    HW197651   6.775   4.794   3.593
98606SOL    HW297652   6.849   4.663   3.578
98607SOL     OW97653   7.054   4.855  11.541
98607SOL    HW197654   7.134   4.802  11.539
98607SOL    HW297655   7.072   4.928  11.483
98608SOL     OW97656   4.913  11.943   6.564
98608SOL    HW197657   4.937  12.018   6.510
98608SOL    HW297658   4.941  11.867   6.513
98609SOL     OW97659   3.475  11.579  13.917
98609SOL    HW197660   3.497  11.522  13.991
98609SOL    HW297661   3.395  11.542  13.881
98610SOL     OW97662   9.134  14.274   0.553
98610SOL    HW197663   9.150  14.355   0.504
98610SOL    HW297664   9.114  14.303   0.642
98611SOL     OW97665   8.397   4.881  12.422
98611SOL    HW197666   8.369   4.951  12.363
98611SOL    HW297667   8.349   4.804  12.393
98612SOL     OW97668   4.659   2.397   3.510
98612SOL    HW197669   4.649   2.492   3.512
98612SOL    HW297670   4.729   2.379   3.572
98613SOL     OW97671   4.763   4.563   6.389
98613SOL    HW197672   4.744   4.472   6.367
98613SOL    HW297673   4.784   4.604   6.305
98614SOL     OW97674   8.212  13.318  12.089
98614SOL    HW197675   8.192  13.231  12.122
98614SOL    HW297676   8.239  13.368  12.167
98615SOL     OW97677   3.327   8.012   1.882
98615SOL    HW197678   3.391   7.944   1.860
98615SOL    HW297679   3.312   8.058   1.800
98616SOL     OW97680  11.568   3.310   8.559
98616SOL    HW197681  11.636   3.359   8.605
98616SOL    HW297682  11.615   3.238   8.516
98617SOL     OW97683   8.307   0.393   4.180
98617SOL    HW197684   8.222   0.351   4.194
98617SOL    HW297685   8.322   0.444   4.260
98618SOL     OW97686  14.038   5.545  13.243
98618SOL    HW197687  14.047   5.640  13.233
98618SOL    HW297688  13.954   5.525  13.201
98619SOL     OW97689   0.641   9.694   5.842
98619SOL    HW197690   0.629   9.602   5.816
98619SOL    HW297691   0.552   9.730   5.843
98620SOL     OW97692   1.926   1.179  11.334
98620SOL    HW197693   1.833   1.157  11.334
98620SOL    HW297694   1.950   1.186  11.426
98621SOL     OW97695   1.600  13.493  12.116
98621SOL    HW197696   1.679  13.480  12.064
98621SOL    HW297697   1.542  13.421  12.092
98622SOL     OW97698   4.352  14.805   9.633
98622SOL    HW197699   4.269  14.788   9.678
98622SOL    HW297700   4.356   0.021   9.625
98623SOL     OW97701   9.754  13.823   8.081
98623SOL    HW197702   9.725  13.732   8.089
98623SOL    HW297703   9.818  13.823   8.010
98624SOL     OW97704  10.187   5.999   3.303
98624SOL    HW197705  10.282   6.014   3.310
98624SOL    HW297706  10.176   5.906   3.319
98625SOL     OW97707   0.532   7.605   6.918
98625SOL    HW197708   0.541   7.524   6.969
98625SOL    HW297709   0.495   7.668   6.980
98626SOL     OW97710   9.930   5.977   7.201
98626SOL    HW197711   9.866   6.036   7.241
98626SOL    HW297712   9.880   5.897   7.182
98627SOL     OW97713   2.434  13.030   6.741
98627SOL    HW197714   2.367  13.091   6.770
98627SOL    HW297715   2.429  12.957   6.804
98628SOL     OW97716   5.742  10.510   4.631
98628SOL    HW197717   5.796  10.583   4.662
98628SOL    HW297718   5.801  10.435   4.628
98629SOL     OW97719   2.746  12.458   5.662
98629SOL    HW197720   2.685  12.386   5.648
98629SOL    HW297721   2.807  12.453   5.588
98630SOL     OW97722   3.092   4.445   1.851
98630SOL    HW197723   3.062   4.430   1.761
98630SOL    HW297724   3.154   4.517   1.844
98631SOL     OW97725  13.820  12.147   9.142
98631SOL    HW197726  13.769  12.227   9.146
98631SOL    HW297727  13.795  12.098   9.221
98632SOL     OW97728   7.592   7.635  11.978
98632SOL    HW197729   7.512   7.684  11.958
98632SOL    HW297730   7.562   7.553  12.015
98633SOL     OW97731  11.919  14.686   4.912
98633SOL    HW197732  12.002  14.724   4.940
98633SOL    HW297733  11.913  14.602   4.958
98634SOL     OW97734   0.339   3.605   3.214
98634SOL    HW197735   0.314   3.524   3.258
98634SOL    HW297736   0.355   3.579   3.123
98635SOL     OW97737   0.731   1.392  11.982
98635SOL    HW197738   0.810   1.433  11.948
98635SOL    HW297739   0.709   1.442  12.061
98636SOL     OW97740  14.359   4.861   6.757
98636SOL    HW197741  14.398   4.784   6.718
98636SOL    HW297742  14.430   4.926   6.759
98637SOL     OW97743  11.915   0.055   3.392
98637SOL    HW197744  11.897   0.140   3.351
98637SOL    HW297745  11.829   0.011   3.392
98638SOL     OW97746   8.282   5.040   2.568
98638SOL    HW197747   8.322   5.066   2.651
98638SOL    HW297748   8.228   4.964   2.590
98639SOL     OW97749  11.583   3.242   6.714
98639SOL    HW197750  11.569   3.180   6.785
98639SOL    HW297751  11.662   3.211   6.670
98640SOL     OW97752  12.215   1.241   4.175
98640SOL    HW197753  12.263   1.316   4.138
98640SOL    HW297754  12.232   1.246   4.269
98641SOL     OW97755   7.125   3.992   7.630
98641SOL    HW197756   7.117   4.002   7.725
98641SOL    HW297757   7.050   3.938   7.605
98642SOL     OW97758   2.729   8.363  12.547
98642SOL    HW197759   2.648   8.316  12.570
98642SOL    HW297760   2.783   8.357  12.626
98643SOL     OW97761   3.969   6.242   1.198
98643SOL    HW197762   4.061   6.228   1.223
98643SOL    HW297763   3.920   6.183   1.255
98644SOL     OW97764   3.119   9.405   3.357
98644SOL    HW197765   3.079   9.322   3.333
98644SOL    HW297766   3.046   9.459   3.387
98645SOL     OW97767   7.420   1.813   3.985
98645SOL    HW197768   7.365   1.856   4.050
98645SOL    HW297769   7.419   1.872   3.909
98646SOL     OW97770   5.738   6.830  12.615
98646SOL    HW197771   5.664   6.775  12.591
98646SOL    HW297772   5.715   6.917  12.582
98647SOL     OW97773  10.735   6.320  12.363
98647SOL    HW197774  10.798   6.376  12.318
98647SOL    HW297775  10.788   6.246  12.395
98648SOL     OW97776   6.430   2.184   8.726
98648SOL    HW197777   6.392   2.115   8.671
98648SOL    HW297778   6.443   2.257   8.666
98649SOL     OW97779   4.782   7.406   4.806
98649SOL    HW197780   4.854   7.386   4.745
98649SOL    HW297781   4.786   7.337   4.872
98650SOL     OW97782  13.461   9.398   8.850
98650SOL    HW197783  13.453   9.321   8.906
98650SOL    HW297784  13.378   9.403   8.804
98651SOL     OW97785   7.553   1.070  12.218
98651SOL    HW197786   7.523   1.068  12.127
98651SOL    HW297787   7.648   1.082  12.212
98652SOL     OW97788   6.721  11.660   3.844
98652SOL    HW197789   6.753  11.617   3.924
98652SOL    HW297790   6.745  11.599   3.774
98653SOL     OW97791   3.647   0.976   6.342
98653SOL    HW197792   3.625   0.906   6.280
98653SOL    HW297793   3.733   0.952   6.375
98654SOL     OW97794   5.294   3.005   8.885
98654SOL    HW197795   5.251   3.058   8.818
98654SOL    HW297796   5.247   2.922   8.884
98655SOL     OW97797  10.654  13.392   5.727
98655SOL    HW197798  10.720  13.323   5.724
98655SOL    HW297799  10.573  13.348   5.753
98656SOL     OW97800   1.412  10.518  14.038
98656SOL    HW197801   1.429  10.468  14.118
98656SOL    HW297802   1.402  10.451  13.970
98657SOL     OW97803  11.364  12.544   1.957
98657SOL    HW197804  11.344  12.520   1.867
98657SOL    HW297805  11.412  12.626   1.951
98658SOL     OW97806   5.558  11.049   5.953
98658SOL    HW197807   5.536  11.073   5.863
98658SOL    HW297808   5.535  11.126   6.005
98659SOL     OW97809   9.439   4.445   3.845
98659SOL    HW197810   9.347   4.461   3.864
98659SOL    HW297811   9.474   4.405   3.925
98660SOL     OW97812   8.377   4.676  12.063
98660SOL    HW197813   8.465   4.693  12.095
98660SOL    HW297814   8.326   4.660  12.142
98661SOL     OW97815   1.315  10.796  14.174
98661SOL    HW197816   1.370  10.872  14.156
98661SOL    HW297817   1.363  10.748  14.241
98662SOL     OW97818   1.686   0.674   5.385
98662SOL    HW197819   1.731   0.754   5.359
98662SOL    HW297820   1.738   0.639   5.458
98663SOL     OW97821   8.833   6.803   7.393
98663SOL    HW197822   8.874   6.872   7.342
98663SOL    HW297823   8.896   6.783   7.462
98664SOL     OW97824   1.143   4.709   7.028
98664SOL    HW197825   1.160   4.681   7.118
98664SOL    HW297826   1.168   4.801   7.027
98665SOL     OW97827   7.970   4.092   3.562
98665SOL    HW197828   7.878   4.115   3.567
98665SOL    HW297829   8.015   4.175   3.548
98666SOL     OW97830  10.414  14.147  11.744
98666SOL    HW197831  10.419  14.221  11.804
98666SOL    HW297832  10.380  14.184  11.662
98667SOL     OW97833   7.573  12.022   3.143
98667SOL    HW197834   7.482  11.994   3.127
98667SOL    HW297835   7.579  12.107   3.099
98668SOL     OW97836   2.104   3.986  11.235
98668SOL    HW197837   2.164   3.955  11.303
98668SOL    HW297838   2.157   3.992  11.156
98669SOL     OW97839  13.681   5.573  13.423
98669SOL    HW197840  13.732   5.579  13.503
98669SOL    HW297841  13.667   5.479  13.410
98670SOL     OW97842  13.686  12.881   2.629
98670SOL    HW197843  13.675  12.876   2.534
98670SOL    HW297844  13.706  12.973   2.647
98671SOL     OW97845  13.396   9.395  11.756
98671SOL    HW197846  13.369   9.317  11.709
98671SOL    HW297847  13.464   9.434  11.701
98672SOL     OW97848  12.940   5.356   7.595
98672SOL    HW197849  12.927   5.451   7.597
98672SOL    HW297850  12.913   5.326   7.682
98673SOL     OW97851   6.466   9.483  11.002
98673SOL    HW197852   6.525   9.422  11.046
98673SOL    HW297853   6.378   9.453  11.027
98674SOL     OW97854  14.755  13.888  12.092
98674SOL    HW197855  14.720  13.948  12.158
98674SOL    HW297856  14.678  13.845  12.056
98675SOL     OW97857  10.929   5.480   2.032
98675SOL    HW197858  10.916   5.427   2.110
98675SOL    HW297859  11.017   5.459   2.002
98676SOL     OW97860  12.627  13.363   4.220
98676SOL    HW197861  12.682  13.396   4.149
98676SOL    HW297862  12.570  13.436   4.242
98677SOL     OW97863   1.002   3.306   5.927
98677SOL    HW197864   0.913   3.270   5.935
98677SOL    HW297865   1.046   3.280   6.008
98678SOL     OW97866   9.195   9.262   9.177
98678SOL    HW197867   9.132   9.322   9.216
98678SOL    HW297868   9.279   9.308   9.184
98679SOL     OW97869   5.713   8.070   5.493
98679SOL    HW197870   5.618   8.074   5.502
98679SOL    HW297871   5.744   8.154   5.526
98680SOL     OW97872   5.781   4.307   2.163
98680SOL    HW197873   5.846   4.256   2.210
98680SOL    HW297874   5.726   4.242   2.119
98681SOL     OW97875   7.293   6.616  11.020
98681SOL    HW197876   7.348   6.636  10.944
98681SOL    HW297877   7.207   6.650  10.998
98682SOL     OW97878   8.081  14.213   2.120
98682SOL    HW197879   8.082  14.305   2.146
98682SOL    HW297880   8.027  14.170   2.187
98683SOL     OW97881  13.582  10.062   9.067
98683SOL    HW197882  13.614  10.036   9.153
98683SOL    HW297883  13.610   9.992   9.008
98684SOL     OW97884  12.413   2.232   2.284
98684SOL    HW197885  12.495   2.255   2.328
98684SOL    HW297886  12.412   2.286   2.205
98685SOL     OW97887   6.637   6.679  13.224
98685SOL    HW197888   6.689   6.601  13.204
98685SOL    HW297889   6.618   6.718  13.138
98686SOL     OW97890  10.853   8.358   4.590
98686SOL    HW197891  10.897   8.277   4.617
98686SOL    HW297892  10.826   8.399   4.672
98687SOL     OW97893  11.201   5.928  10.385
98687SOL    HW197894  11.239   6.014  10.402
98687SOL    HW297895  11.277   5.871  10.369
98688SOL     OW97896  14.524   6.778   6.840
98688SOL    HW197897  14.435   6.750   6.859
98688SOL    HW297898  14.575   6.755   6.918
98689SOL     OW97899   6.101   4.733   6.992
98689SOL    HW197900   6.046   4.722   7.070
98689SOL    HW297901   6.179   4.779   7.023
98690SOL     OW97902   5.966   0.525   7.030
98690SOL    HW197903   6.020   0.507   7.108
98690SOL    HW297904   5.939   0.617   7.040
98691SOL     OW97905  13.127   6.230  12.982
98691SOL    HW197906  13.156   6.321  12.974
98691SOL    HW297907  13.181   6.194  13.052
98692SOL     OW97908  12.581  12.062  12.712
98692SOL    HW197909  12.540  11.989  12.758
98692SOL    HW297910  12.627  12.111  12.780
98693SOL     OW97911   6.886   4.952   0.248
98693SOL    HW197912   6.966   4.993   0.280
98693SOL    HW297913   6.916   4.875   0.200
98694SOL     OW97914  13.924   5.458  14.641
98694SOL    HW197915  14.002   5.402  14.639
98694SOL    HW297916  13.958   5.546  14.626
98695SOL     OW97917   9.226   8.200  14.580
98695SOL    HW197918   9.136   8.190  14.611
98695SOL    HW297919   9.271   8.244  14.653
98696SOL     OW97920   3.619   5.443   8.245
98696SOL    HW197921   3.684   5.382   8.211
98696SOL    HW297922   3.636   5.447   8.339
98697SOL     OW97923   0.999   8.426  14.302
98697SOL    HW197924   0.974   8.404  14.212
98697SOL    HW297925   1.064   8.495  14.293
98698SOL     OW97926   2.668  13.942   2.468
98698SOL    HW197927   2.652  13.870   2.530
98698SOL    HW297928   2.720  13.902   2.399
98699SOL     OW97929   6.062  12.227  13.399
98699SOL    HW197930   6.071  12.132  13.389
98699SOL    HW297931   6.052  12.239  13.494
98700SOL     OW97932   3.165  13.953   5.450
98700SOL    HW197933   3.119  14.027   5.411
98700SOL    HW297934   3.096  13.890   5.470
98701SOL     OW97935   6.030   1.019   7.047
98701SOL    HW197936   6.079   1.082   7.100
98701SOL    HW297937   6.034   0.938   7.097
98702SOL     OW97938  13.797   6.409  12.730
98702SOL    HW197939  13.838   6.432  12.813
98702SOL    HW297940  13.860   6.352  12.686
98703SOL     OW97941   9.218   2.465  13.220
98703SOL    HW197942   9.287   2.470  13.154
98703SOL    HW297943   9.211   2.371  13.239
98704SOL     OW97944   9.524  12.788   1.007
98704SOL    HW197945   9.595  12.756   0.952
98704SOL    HW297946   9.455  12.723   0.998
98705SOL     OW97947   8.932   4.907  12.120
98705SOL    HW197948   8.935   4.904  12.025
98705SOL    HW297949   8.842   4.935  12.141
98706SOL     OW97950  14.856   0.203   5.637
98706SOL    HW197951  14.840   0.231   5.547
98706SOL    HW297952  14.772   0.169   5.666
98707SOL     OW97953  10.382   8.951  11.980
98707SOL    HW197954  10.434   8.945  12.060
98707SOL    HW297955  10.300   8.992  12.008
98708SOL     OW97956  14.025   1.340   0.407
98708SOL    HW197957  13.975   1.403   0.458
98708SOL    HW297958  14.116   1.355   0.433
98709SOL     OW97959   9.337  12.158   8.962
98709SOL    HW197960   9.321  12.217   9.036
98709SOL    HW297961   9.411  12.198   8.916
98710SOL     OW97962   1.634   0.955   7.096
98710SOL    HW197963   1.598   1.000   7.020
98710SOL    HW297964   1.581   0.875   7.104
98711SOL     OW97965  11.897  11.553   8.133
98711SOL    HW197966  11.914  11.468   8.092
98711SOL    HW297967  11.862  11.607   8.063
98712SOL     OW97968   9.402  12.523  10.939
98712SOL    HW197969   9.328  12.463  10.951
98712SOL    HW297970   9.427  12.548  11.028
98713SOL     OW97971  13.613   1.684   1.102
98713SOL    HW197972  13.654   1.598   1.088
98713SOL    HW297973  13.592   1.685   1.195
98714SOL     OW97974   4.781   0.347   0.873
98714SOL    HW197975   4.720   0.274   0.866
98714SOL    HW297976   4.724   0.425   0.875
98715SOL     OW97977   0.389  13.565   7.278
98715SOL    HW197978   0.392  13.559   7.182
98715SOL    HW297979   0.404  13.658   7.296
98716SOL     OW97980   5.872   0.876  14.595
98716SOL    HW197981   5.782   0.903  14.612
98716SOL    HW297982   5.871   0.781  14.601
98717SOL     OW97983   5.141  12.221   3.268
98717SOL    HW197984   5.091  12.140   3.254
98717SOL    HW297985   5.213  12.214   3.205
98718SOL     OW97986   4.641   4.112   1.711
98718SOL    HW197987   4.709   4.178   1.718
98718SOL    HW297988   4.606   4.122   1.622
98719SOL     OW97989   8.180   3.438   6.742
98719SOL    HW197990   8.136   3.356   6.720
98719SOL    HW297991   8.204   3.429   6.834
98720SOL     OW97992  10.482   2.001  10.900
98720SOL    HW197993  10.429   2.078  10.882
98720SOL    HW297994  10.513   1.973  10.814
98721SOL     OW97995   5.438   5.917  13.779
98721SOL    HW197996   5.350   5.921  13.817
98721SOL    HW297997   5.438   5.984  13.711
98722SOL     OW97998   6.515   7.761   0.793
98722SOL    HW197999   6.445   7.791   0.735
98722SOL    HW298000   6.552   7.841   0.829
98723SOL     OW98001   2.672  12.168   1.809
98723SOL    HW198002   2.705  12.253   1.780
98723SOL    HW298003   2.586  12.187   1.845
98724SOL     OW98004  12.220  11.175   3.147
98724SOL    HW198005  12.167  11.176   3.067
98724SOL    HW298006  12.303  11.136   3.120
98725SOL     OW98007   5.708   4.730   2.360
98725SOL    HW198008   5.706   4.673   2.283
98725SOL    HW298009   5.621   4.722   2.399
98726SOL     OW98010  14.280  12.684   8.489
98726SOL    HW198011  14.261  12.598   8.451
98726SOL    HW298012  14.370  12.703   8.463
98727SOL     OW98013   5.643   5.056   4.955
98727SOL    HW198014   5.718   5.000   4.973
98727SOL    HW298015   5.669   5.108   4.879
98728SOL     OW98016  12.103   0.253  13.827
98728SOL    HW198017  12.132   0.257  13.736
98728SOL    HW298018  12.184   0.250  13.878
98729SOL     OW98019  13.557   5.134   1.073
98729SOL    HW198020  13.613   5.090   1.136
98729SOL    HW298021  13.543   5.069   1.003
98730SOL     OW98022   6.415   6.468  11.527
98730SOL    HW198023   6.344   6.405  11.540
98730SOL    HW298024   6.427   6.472  11.432
98731SOL     OW98025   4.667   0.821   3.716
98731SOL    HW198026   4.741   0.780   3.672
98731SOL    HW298027   4.618   0.747   3.753
98732SOL     OW98028  13.037  11.449  10.001
98732SOL    HW198029  12.947  11.480  10.000
98732SOL    HW298030  13.087  11.518   9.957
98733SOL     OW98031  11.325   8.155   0.933
98733SOL    HW198032  11.236   8.179   0.959
98733SOL    HW298033  11.345   8.077   0.984
98734SOL     OW98034   2.826   4.358  13.291
98734SOL    HW198035   2.797   4.442  13.255
98734SOL    HW298036   2.920   4.356  13.273
98735SOL     OW98037  12.618   9.411   0.406
98735SOL    HW198038  12.553   9.389   0.340
98735SOL    HW298039  12.575   9.475   0.462
98736SOL     OW98040  13.003   8.258  10.870
98736SOL    HW198041  12.998   8.331  10.809
98736SOL    HW298042  12.980   8.296  10.955
98737SOL     OW98043   7.737   2.654   6.485
98737SOL    HW198044   7.746   2.684   6.394
98737SOL    HW298045   7.734   2.559   6.478
98738SOL     OW98046   2.572   5.749   0.897
98738SOL    HW198047   2.661   5.726   0.925
98738SOL    HW298048   2.549   5.683   0.833
98739SOL     OW98049  10.038   1.897   7.062
98739SOL    HW198050  10.055   1.812   7.102
98739SOL    HW298051   9.960   1.882   7.008
98740SOL     OW98052  12.944   6.064  11.865
98740SOL    HW198053  12.992   6.147  11.870
98740SOL    HW298054  12.954   6.036  11.774
98741SOL     OW98055  12.848  12.686  14.038
98741SOL    HW198056  12.908  12.633  14.091
98741SOL    HW298057  12.854  12.774  14.076
98742SOL     OW98058   8.902   2.611   4.905
98742SOL    HW198059   8.830   2.671   4.923
98742SOL    HW298060   8.865   2.523   4.915
98743SOL     OW98061   1.980   8.240  10.135
98743SOL    HW198062   1.911   8.184  10.098
98743SOL    HW298063   1.945   8.267  10.220
98744SOL     OW98064   8.134   0.628  12.465
98744SOL    HW198065   8.226   0.602  12.476
98744SOL    HW298066   8.127   0.647  12.371
98745SOL     OW98067   4.351  13.943   1.003
98745SOL    HW198068   4.384  13.898   1.081
98745SOL    HW298069   4.365  14.036   1.020
98746SOL     OW98070  10.179   8.334   9.249
98746SOL    HW198071  10.092   8.347   9.212
98746SOL    HW298072  10.223   8.418   9.236
98747SOL     OW98073  11.582   8.791   4.579
98747SOL    HW198074  11.637   8.751   4.646
98747SOL    HW298075  11.528   8.854   4.625
98748SOL     OW98076   4.629  12.180   8.319
98748SOL    HW198077   4.708  12.184   8.266
98748SOL    HW298078   4.585  12.100   8.290
98749SOL     OW98079   4.182   5.527   8.576
98749SOL    HW198080   4.239   5.453   8.555
98749SOL    HW298081   4.238   5.587   8.625
98750SOL     OW98082  12.110   0.577   0.275
98750SOL    HW198083  12.135   0.565   0.366
98750SOL    HW298084  12.097   0.489   0.241
98751SOL     OW98085   4.752  13.349   3.354
98751SOL    HW198086   4.757  13.309   3.267
98751SOL    HW298087   4.828  13.407   3.358
98752SOL     OW98088   5.345  11.588  11.960
98752SOL    HW198089   5.326  11.502  11.996
98752SOL    HW298090   5.406  11.570  11.888
98753SOL     OW98091   0.116   5.612   8.708
98753SOL    HW198092   0.193   5.556   8.712
98753SOL    HW298093   0.042   5.554   8.726
98754SOL     OW98094   1.805  14.059  14.249
98754SOL    HW198095   1.890  14.047  14.206
98754SOL    HW298096   1.753  13.986  14.218
98755SOL     OW98097  10.883   7.740   4.870
98755SOL    HW198098  10.942   7.696   4.931
98755SOL    HW298099  10.894   7.833   4.887
98756SOL     OW98100   6.771   1.975  11.538
98756SOL    HW198101   6.858   1.963  11.576
98756SOL    HW298102   6.764   1.907  11.472
98757SOL     OW98103  13.222   5.096  11.384
98757SOL    HW198104  13.315   5.119  11.379
98757SOL    HW298105  13.177   5.180  11.381
98758SOL     OW98106   2.677  14.035  10.556
98758SOL    HW198107   2.606  13.999  10.609
98758SOL    HW298108   2.633  14.067  10.477
98759SOL     OW98109  14.308  14.562  13.306
98759SOL    HW198110  14.271  14.604  13.384
98759SOL    HW298111  14.337  14.636  13.251
98760SOL     OW98112  11.052  11.477   0.488
98760SOL    HW198113  11.073  11.384   0.499
98760SOL    HW298114  10.973  11.490   0.540
98761SOL     OW98115   5.272  10.300  10.841
98761SOL    HW198116   5.303  10.211  10.852
98761SOL    HW298117   5.296  10.344  10.923
98762SOL     OW98118  14.801  12.769   2.183
98762SOL    HW198119  14.819  12.728   2.099
98762SOL    HW298120  14.875  12.744   2.238
98763SOL     OW98121   8.567   9.547   0.963
98763SOL    HW198122   8.579   9.490   1.039
98763SOL    HW298123   8.496   9.507   0.913
98764SOL     OW98124   8.778   6.343   7.456
98764SOL    HW198125   8.853   6.388   7.495
98764SOL    HW298126   8.767   6.264   7.510
98765SOL     OW98127  13.903   0.954  10.136
98765SOL    HW198128  13.888   0.910  10.052
98765SOL    HW298129  13.902   1.048  10.115
98766SOL     OW98130   9.619   8.068   2.292
98766SOL    HW198131   9.612   8.154   2.333
98766SOL    HW298132   9.655   8.012   2.361
98767SOL     OW98133   1.861   5.485   7.575
98767SOL    HW198134   1.935   5.536   7.608
98767SOL    HW298135   1.814   5.546   7.518
98768SOL     OW98136   3.483   9.439   3.672
98768SOL    HW198137   3.417   9.507   3.660
98768SOL    HW298138   3.464   9.375   3.603
98769SOL     OW98139   2.833   5.268  13.496
98769SOL    HW198140   2.847   5.247  13.588
98769SOL    HW298141   2.739   5.280  13.488
98770SOL     OW98142  13.071  13.366   9.916
98770SOL    HW198143  13.026  13.394   9.995
98770SOL    HW298144  13.160  13.347   9.944
98771SOL     OW98145   0.245  11.098  11.158
98771SOL    HW198146   0.330  11.137  11.135
98771SOL    HW298147   0.208  11.158  11.224
98772SOL     OW98148   7.798  13.984  11.676
98772SOL    HW198149   7.767  13.893  11.671
98772SOL    HW298150   7.808  14.011  11.584
98773SOL     OW98151  10.356   4.329  11.831
98773SOL    HW198152  10.389   4.409  11.871
98773SOL    HW298153  10.423   4.263  11.851
98774SOL     OW98154   4.588   4.549   5.124
98774SOL    HW198155   4.631   4.487   5.065
98774SOL    HW298156   4.585   4.631   5.076
98775SOL     OW98157  10.588   6.746   1.652
98775SOL    HW198158  10.595   6.769   1.744
98775SOL    HW298159  10.597   6.651   1.650
98776SOL     OW98160   5.380  14.659   7.671
98776SOL    HW198161   5.294  14.667   7.631
98776SOL    HW298162   5.399  14.746   7.706
98777SOL     OW98163   5.081  13.170   6.084
98777SOL    HW198164   5.025  13.105   6.040
98777SOL    HW298165   5.108  13.127   6.165
98778SOL     OW98166   7.610   2.882   7.032
98778SOL    HW198167   7.680   2.840   6.983
98778SOL    HW298168   7.577   2.951   6.974
98779SOL     OW98169   7.877   9.321   9.848
98779SOL    HW198170   7.908   9.404   9.885
98779SOL    HW298171   7.918   9.316   9.762
98780SOL     OW98172   8.535  14.121  10.664
98780SOL    HW198173   8.530  14.026  10.659
98780SOL    HW298174   8.629  14.139  10.672
98781SOL     OW98175   9.334  12.627   3.601
98781SOL    HW198176   9.403  12.583   3.650
98781SOL    HW298177   9.375  12.706   3.566
98782SOL     OW98178   1.862   7.448   3.737
98782SOL    HW198179   1.942   7.406   3.770
98782SOL    HW298180   1.873   7.541   3.760
98783SOL     OW98181   8.363   0.391  10.386
98783SOL    HW198182   8.452   0.425  10.391
98783SOL    HW298183   8.315   0.439  10.454
98784SOL     OW98184   3.412   3.572   2.587
98784SOL    HW198185   3.474   3.645   2.597
98784SOL    HW298186   3.341   3.607   2.533
98785SOL     OW98187   4.901   2.416   9.194
98785SOL    HW198188   4.963   2.357   9.237
98785SOL    HW298189   4.835   2.358   9.156
98786SOL     OW98190   7.227   9.953   9.364
98786SOL    HW198191   7.138   9.933   9.394
98786SOL    HW298192   7.242  10.044   9.390
98787SOL     OW98193  10.087   4.183   9.169
98787SOL    HW198194  10.012   4.242   9.168
98787SOL    HW298195  10.103   4.164   9.077
98788SOL     OW98196  12.557   0.604   3.631
98788SOL    HW198197  12.477   0.563   3.664
98788SOL    HW298198  12.627   0.547   3.661
98789SOL     OW98199   0.428   8.854   2.322
98789SOL    HW198200   0.458   8.922   2.262
98789SOL    HW298201   0.489   8.781   2.307
98790SOL     OW98202   9.395  11.060   2.305
98790SOL    HW198203   9.426  11.110   2.229
98790SOL    HW298204   9.352  11.125   2.361
98791SOL     OW98205  12.226   2.468   1.109
98791SOL    HW198206  12.215   2.550   1.062
98791SOL    HW298207  12.247   2.404   1.041
98792SOL     OW98208   9.491  14.211   5.084
98792SOL    HW198209   9.572  14.255   5.056
98792SOL    HW298210   9.511  14.177   5.171
98793SOL     OW98211   2.674   8.314   7.078
98793SOL    HW198212   2.624   8.316   7.159
98793SOL    HW298213   2.719   8.229   7.080
98794SOL     OW98214   3.987  13.242   4.400
98794SOL    HW198215   4.023  13.329   4.416
98794SOL    HW298216   3.893  13.255   4.395
98795SOL     OW98217   3.775   6.969   3.891
98795SOL    HW198218   3.842   6.965   3.823
98795SOL    HW298219   3.819   7.007   3.967
98796SOL     OW98220   5.830   8.825   2.123
98796SOL    HW198221   5.747   8.828   2.076
98796SOL    HW298222   5.896   8.818   2.054
98797SOL     OW98223   0.271   2.667   2.564
98797SOL    HW198224   0.252   2.592   2.507
98797SOL    HW298225   0.233   2.742   2.518
98798SOL     OW98226   6.950   1.448   8.312
98798SOL    HW198227   7.039   1.450   8.278
98798SOL    HW298228   6.896   1.427   8.236
98799SOL     OW98229   8.131   4.969   0.638
98799SOL    HW198230   8.119   4.959   0.543
98799SOL    HW298231   8.073   5.041   0.661
98800SOL     OW98232   8.263   4.872   1.131
98800SOL    HW198233   8.294   4.941   1.072
98800SOL    HW298234   8.341   4.846   1.180
98801SOL     OW98235  12.876   4.544   5.769
98801SOL    HW198236  12.796   4.595   5.784
98801SOL    HW298237  12.942   4.586   5.824
98802SOL     OW98238   4.646   5.685  12.583
98802SOL    HW198239   4.587   5.747  12.625
98802SOL    HW298240   4.734   5.720  12.600
98803SOL     OW98241   3.494   5.132  10.005
98803SOL    HW198242   3.540   5.065   9.955
98803SOL    HW298243   3.562   5.197  10.024
98804SOL     OW98244   4.647   1.553   9.638
98804SOL    HW198245   4.740   1.540   9.620
98804SOL    HW298246   4.642   1.565   9.733
98805SOL     OW98247   7.061   1.039   9.914
98805SOL    HW198248   7.149   1.015   9.886
98805SOL    HW298249   7.035   0.971   9.976
98806SOL     OW98250   1.889  12.547  14.455
98806SOL    HW198251   1.806  12.590  14.475
98806SOL    HW298252   1.885  12.463  14.500
98807SOL     OW98253   0.572   0.879  13.918
98807SOL    HW198254   0.526   0.940  13.975
98807SOL    HW298255   0.623   0.934  13.859
98808SOL     OW98256   1.813  10.545   3.736
98808SOL    HW198257   1.738  10.574   3.788
98808SOL    HW298258   1.889  10.560   3.792
98809SOL     OW98259   9.136  12.975  11.239
98809SOL    HW198260   9.075  12.986  11.166
98809SOL    HW298261   9.220  12.954  11.198
98810SOL     OW98262  11.234   0.115   1.689
98810SOL    HW198263  11.256   0.043   1.631
98810SOL    HW298264  11.203   0.185   1.631
98811SOL     OW98265  13.828   6.811  14.080
98811SOL    HW198266  13.748   6.838  14.034
98811SOL    HW298267  13.895   6.873  14.050
98812SOL     OW98268   8.441   7.180   9.458
98812SOL    HW198269   8.527   7.166   9.420
98812SOL    HW298270   8.389   7.220   9.388
98813SOL     OW98271   2.751  12.991   8.748
98813SOL    HW198272   2.784  12.991   8.658
98813SOL    HW298273   2.663  12.956   8.741
98814SOL     OW98274  14.419   7.893   0.847
98814SOL    HW198275  14.370   7.820   0.808
98814SOL    HW298276  14.499   7.852   0.881
98815SOL     OW98277   9.520   7.568   4.849
98815SOL    HW198278   9.473   7.555   4.766
98815SOL    HW298279   9.476   7.643   4.889
98816SOL     OW98280  12.735   3.822  12.832
98816SOL    HW198281  12.660   3.767  12.810
98816SOL    HW298282  12.763   3.859  12.748
98817SOL     OW98283   6.861   3.068  11.474
98817SOL    HW198284   6.806   3.021  11.411
98817SOL    HW298285   6.948   3.029  11.464
98818SOL     OW98286   2.327   1.808  11.619
98818SOL    HW198287   2.396   1.756  11.578
98818SOL    HW298288   2.257   1.745  11.636
98819SOL     OW98289   5.199   0.037   9.865
98819SOL    HW198290   5.285   0.014   9.829
98819SOL    HW298291   5.198  14.876   9.952
98820SOL     OW98292   6.719   0.509   6.371
98820SOL    HW198293   6.671   0.539   6.448
98820SOL    HW298294   6.652   0.498   6.304
98821SOL     OW98295  13.810   8.825  14.377
98821SOL    HW198296  13.812   8.916  14.406
98821SOL    HW298297  13.899   8.807  14.347
98822SOL     OW98298   3.206  12.109   1.949
98822SOL    HW198299   3.203  12.131   2.042
98822SOL    HW298300   3.187  12.192   1.904
98823SOL     OW98301   3.881   3.078   9.807
98823SOL    HW198302   3.953   3.137   9.788
98823SOL    HW298303   3.805   3.119   9.766
98824SOL     OW98304   1.634   6.311  11.524
98824SOL    HW198305   1.692   6.277  11.456
98824SOL    HW298306   1.648   6.253  11.599
98825SOL     OW98307   2.848  12.985  14.515
98825SOL    HW198308   2.864  12.986  14.610
98825SOL    HW298309   2.936  12.982  14.477
98826SOL     OW98310  14.440  10.501   2.813
98826SOL    HW198311  14.469  10.409   2.808
98826SOL    HW298312  14.519  10.552   2.796
98827SOL     OW98313   6.105  11.273   8.998
98827SOL    HW198314   6.197  11.273   8.969
98827SOL    HW298315   6.077  11.182   8.988
98828SOL     OW98316  12.191  11.296  12.055
98828SOL    HW198317  12.214  11.208  12.087
98828SOL    HW298318  12.161  11.343  12.132
98829SOL     OW98319   1.095  11.804  14.783
98829SOL    HW198320   1.116  11.762  14.867
98829SOL    HW298321   1.156  11.878  14.777
98830SOL     OW98322   7.511   6.484  11.079
98830SOL    HW198323   7.513   6.463  11.172
98830SOL    HW298324   7.433   6.539  11.069
98831SOL     OW98325  14.325  13.385   4.861
98831SOL    HW198326  14.307  13.462   4.916
98831SOL    HW298327  14.292  13.311   4.912
98832SOL     OW98328   9.617  10.450   6.410
98832SOL    HW198329   9.606  10.379   6.347
98832SOL    HW298330   9.541  10.442   6.467
98833SOL     OW98331   8.559  11.512  11.748
98833SOL    HW198332   8.492  11.460  11.704
98833SOL    HW298333   8.521  11.535  11.833
98834SOL     OW98334  13.641  13.957   6.606
98834SOL    HW198335  13.570  13.940   6.668
98834SOL    HW298336  13.701  14.013   6.654
98835SOL     OW98337   8.724   3.040   2.929
98835SOL    HW198338   8.727   3.102   3.002
98835SOL    HW298339   8.816   3.023   2.908
98836SOL     OW98340   8.481   4.116  13.304
98836SOL    HW198341   8.552   4.180  13.309
98836SOL    HW298342   8.417   4.154  13.244
98837SOL     OW98343   0.864  13.698   4.403
98837SOL    HW198344   0.904  13.763   4.461
98837SOL    HW298345   0.781  13.676   4.446
98838SOL     OW98346  14.282  14.065   0.886
98838SOL    HW198347  14.249  14.154   0.900
98838SOL    HW298348  14.359  14.077   0.830
98839SOL     OW98349   9.105  12.276   9.280
98839SOL    HW198350   9.041  12.208   9.257
98839SOL    HW298351   9.132  12.254   9.370
98840SOL     OW98352   6.746   9.681  14.717
98840SOL    HW198353   6.765   9.708  14.627
98840SOL    HW298354   6.817   9.719  14.769
98841SOL     OW98355   2.327   5.278   4.653
98841SOL    HW198356   2.310   5.311   4.742
98841SOL    HW298357   2.240   5.257   4.619
98842SOL     OW98358  13.880   0.230  13.180
98842SOL    HW198359  13.848   0.162  13.239
98842SOL    HW298360  13.830   0.308  13.203
98843SOL     OW98361   7.650   0.535   6.576
98843SOL    HW198362   7.598   0.509   6.652
98843SOL    HW298363   7.734   0.489   6.587
98844SOL     OW98364   1.541   7.030   5.591
98844SOL    HW198365   1.625   7.016   5.546
98844SOL    HW298366   1.564   7.076   5.671
98845SOL     OW98367  14.677   7.271   4.233
98845SOL    HW198368  14.628   7.201   4.190
98845SOL    HW298369  14.670   7.250   4.327
98846SOL     OW98370   3.716   5.445  10.490
98846SOL    HW198371   3.788   5.506  10.509
98846SOL    HW298372   3.760   5.362  10.471
98847SOL     OW98373  12.512  13.845  11.213
98847SOL    HW198374  12.539  13.849  11.305
98847SOL    HW298375  12.440  13.908  11.207
98848SOL     OW98376  13.096   0.977  11.711
98848SOL    HW198377  13.172   1.027  11.679
98848SOL    HW298378  13.097   0.896  11.660
98849SOL     OW98379   1.749   8.009  12.228
98849SOL    HW198380   1.741   7.926  12.182
98849SOL    HW298381   1.670   8.014  12.283
98850SOL     OW98382  10.661   9.344   1.598
98850SOL    HW198383  10.680   9.365   1.690
98850SOL    HW298384  10.724   9.397   1.549
98851SOL     OW98385   6.564  10.876  13.210
98851SOL    HW198386   6.622  10.929  13.156
98851SOL    HW298387   6.622  10.815  13.256
98852SOL     OW98388  10.182   2.344   2.119
98852SOL    HW198389  10.199   2.300   2.035
98852SOL    HW298390  10.108   2.297   2.157
98853SOL     OW98391   9.277  13.956   2.835
98853SOL    HW198392   9.274  14.043   2.796
98853SOL    HW298393   9.186  13.924   2.828
98854SOL     OW98394  12.411   3.833  12.358
98854SOL    HW198395  12.336   3.774  12.365
98854SOL    HW298396  12.485   3.783  12.393
98855SOL     OW98397   3.743  11.482  10.692
98855SOL    HW198398   3.805  11.425  10.645
98855SOL    HW298399   3.775  11.484  10.782
98856SOL     OW98400   2.561  14.043   9.718
98856SOL    HW198401   2.611  14.092   9.652
98856SOL    HW298402   2.593  13.953   9.711
98857SOL     OW98403  12.538   7.162   3.529
98857SOL    HW198404  12.594   7.086   3.517
98857SOL    HW298405  12.531   7.171   3.624
98858SOL     OW98406   0.927   1.304  12.572
98858SOL    HW198407   0.891   1.391  12.553
98858SOL    HW298408   1.016   1.321  12.602
98859SOL     OW98409  12.252  12.809  10.144
98859SOL    HW198410  12.291  12.869  10.080
98859SOL    HW298411  12.317  12.804  10.214
98860SOL     OW98412   6.332   8.253   7.004
98860SOL    HW198413   6.352   8.335   6.958
98860SOL    HW298414   6.260   8.215   6.953
98861SOL     OW98415   6.311   1.625  13.148
98861SOL    HW198416   6.337   1.542  13.108
98861SOL    HW298417   6.394   1.668  13.169
98862SOL     OW98418   8.357   8.436   2.751
98862SOL    HW198419   8.377   8.496   2.679
98862SOL    HW298420   8.359   8.349   2.710
98863SOL     OW98421   7.398   3.010   7.401
98863SOL    HW198422   7.366   2.995   7.312
98863SOL    HW298423   7.481   2.963   7.405
98864SOL     OW98424   2.056   4.154   3.667
98864SOL    HW198425   2.094   4.111   3.590
98864SOL    HW298426   2.092   4.243   3.665
98865SOL     OW98427  12.993   7.148   4.235
98865SOL    HW198428  12.899   7.134   4.222
98865SOL    HW298429  13.001   7.176   4.326
98866SOL     OW98430   7.835   4.292   0.567
98866SOL    HW198431   7.750   4.314   0.604
98866SOL    HW298432   7.820   4.213   0.516
98867SOL     OW98433  13.169   8.389   4.203
98867SOL    HW198434  13.100   8.448   4.235
98867SOL    HW298435  13.237   8.448   4.171
98868SOL     OW98436   4.877  11.095  12.342
98868SOL    HW198437   4.879  11.017  12.398
98868SOL    HW298438   4.968  11.107  12.315
98869SOL     OW98439   5.034   3.404  12.770
98869SOL    HW198440   5.101   3.431  12.832
98869SOL    HW298441   5.067   3.430  12.685
98870SOL     OW98442   7.797   5.567   0.130
98870SOL    HW198443   7.823   5.481   0.163
98870SOL    HW298444   7.750   5.607   0.203
98871SOL     OW98445   6.160   6.179   2.433
98871SOL    HW198446   6.146   6.198   2.340
98871SOL    HW298447   6.210   6.098   2.434
98872SOL     OW98448   1.123   2.526   8.094
98872SOL    HW198449   1.196   2.556   8.148
98872SOL    HW298450   1.082   2.456   8.145
98873SOL     OW98451   9.233  13.718   5.654
98873SOL    HW198452   9.164  13.696   5.592
98873SOL    HW298453   9.191  13.712   5.740
98874SOL     OW98454   2.141   9.424  11.461
98874SOL    HW198455   2.133   9.475  11.542
98874SOL    HW298456   2.136   9.333  11.489
98875SOL     OW98457  12.368   0.711   4.764
98875SOL    HW198458  12.341   0.682   4.852
98875SOL    HW298459  12.358   0.633   4.709
98876SOL     OW98460   9.785   5.988   1.609
98876SOL    HW198461   9.820   5.922   1.549
98876SOL    HW298462   9.723   6.038   1.556
98877SOL     OW98463   4.174  12.837  11.648
98877SOL    HW198464   4.145  12.759  11.600
98877SOL    HW298465   4.098  12.895  11.646
98878SOL     OW98466   7.439   1.971   0.377
98878SOL    HW198467   7.446   2.018   0.294
98878SOL    HW298468   7.498   1.896   0.367
98879SOL     OW98469  14.491   7.748  10.639
98879SOL    HW198470  14.483   7.710  10.727
98879SOL    HW298471  14.505   7.673  10.581
98880SOL     OW98472   7.368   5.594   9.761
98880SOL    HW198473   7.388   5.681   9.796
98880SOL    HW298474   7.451   5.563   9.726
98881SOL     OW98475   0.753   1.169  14.188
98881SOL    HW198476   0.791   1.188  14.102
98881SOL    HW298477   0.796   1.230  14.248
98882SOL     OW98478   0.917  12.456   1.698
98882SOL    HW198479   0.944  12.406   1.775
98882SOL    HW298480   0.864  12.395   1.647
98883SOL     OW98481   3.616   3.664   4.426
98883SOL    HW198482   3.617   3.572   4.452
98883SOL    HW298483   3.525   3.681   4.402
98884SOL     OW98484   6.176   3.112  13.616
98884SOL    HW198485   6.197   3.165  13.693
98884SOL    HW298486   6.092   3.145  13.586
98885SOL     OW98487  13.076   8.895   6.430
98885SOL    HW198488  13.166   8.863   6.435
98885SOL    HW298489  13.060   8.910   6.337
98886SOL     OW98490  13.326   6.015   2.435
98886SOL    HW198491  13.245   5.964   2.442
98886SOL    HW298492  13.355   6.002   2.345
98887SOL     OW98493   6.864   9.693  12.694
98887SOL    HW198494   6.857   9.628  12.763
98887SOL    HW298495   6.774   9.713  12.669
98888SOL     OW98496   6.786   7.828   8.034
98888SOL    HW198497   6.876   7.799   8.021
98888SOL    HW298498   6.753   7.845   7.946
98889SOL     OW98499   9.611   5.215   8.394
98889SOL    HW198500   9.658   5.298   8.400
98889SOL    HW298501   9.613   5.180   8.483
98890SOL     OW98502   7.881   5.895   7.751
98890SOL    HW198503   7.928   5.824   7.795
98890SOL    HW298504   7.851   5.951   7.822
98891SOL     OW98505   5.363  12.099   3.766
98891SOL    HW198506   5.358  12.080   3.859
98891SOL    HW298507   5.295  12.164   3.750
98892SOL     OW98508   1.421   0.090   6.077
98892SOL    HW198509   1.336   0.107   6.035
98892SOL    HW298510   1.451   0.177   6.105
98893SOL     OW98511   1.876  10.528   3.285
98893SOL    HW198512   1.875  10.612   3.239
98893SOL    HW298513   1.849  10.550   3.374
98894SOL     OW98514  14.630   1.678  11.908
98894SOL    HW198515  14.577   1.719  11.977
98894SOL    HW298516  14.619   1.584  11.922
98895SOL     OW98517   2.900   7.016   6.914
98895SOL    HW198518   2.947   7.072   6.976
98895SOL    HW298519   2.904   7.064   6.831
98896SOL     OW98520  11.765  13.869   8.979
98896SOL    HW198521  11.726  13.956   8.981
98896SOL    HW298522  11.756  13.840   8.888
98897SOL     OW98523  11.326   5.658   0.687
98897SOL    HW198524  11.273   5.647   0.608
98897SOL    HW298525  11.353   5.749   0.685
98898SOL     OW98526  10.360   2.487   9.855
98898SOL    HW198527  10.330   2.403   9.820
98898SOL    HW298528  10.455   2.477   9.864
98899SOL     OW98529   3.494   8.997   7.844
98899SOL    HW198530   3.517   8.905   7.834
98899SOL    HW298531   3.540   9.025   7.924
98900SOL     OW98532  10.660  12.575   4.929
98900SOL    HW198533  10.700  12.532   4.853
98900SOL    HW298534  10.734  12.614   4.976
98901SOL     OW98535  13.041   2.391   7.406
98901SOL    HW198536  13.045   2.422   7.497
98901SOL    HW298537  13.095   2.313   7.405
98902SOL     OW98538   3.427   0.471   7.108
98902SOL    HW198539   3.332   0.474   7.100
98902SOL    HW298540   3.449   0.550   7.157
98903SOL     OW98541  11.996   5.777   3.814
98903SOL    HW198542  11.922   5.719   3.794
98903SOL    HW298543  12.044   5.732   3.884
98904SOL     OW98544  14.422   9.182   0.139
98904SOL    HW198545  14.373   9.212   0.215
98904SOL    HW298546  14.477   9.256   0.115
98905SOL     OW98547   6.338   7.956   5.635
98905SOL    HW198548   6.254   8.002   5.642
98905SOL    HW298549   6.400   8.024   5.611
98906SOL     OW98550   2.531  11.111   9.314
98906SOL    HW198551   2.543  11.078   9.225
98906SOL    HW298552   2.618  11.106   9.354
98907SOL     OW98553   8.434  12.124   0.215
98907SOL    HW198554   8.417  12.128   0.121
98907SOL    HW298555   8.506  12.062   0.224
98908SOL     OW98556   1.404  11.815   5.848
98908SOL    HW198557   1.485  11.766   5.835
98908SOL    HW298558   1.353  11.762   5.908
98909SOL     OW98559   6.659   8.031   4.233
98909SOL    HW198560   6.647   8.107   4.176
98909SOL    HW298561   6.617   8.056   4.316
98910SOL     OW98562   6.033  14.568   3.719
98910SOL    HW198563   6.094  14.541   3.789
98910SOL    HW298564   6.090  14.588   3.645
98911SOL     OW98565  13.829   2.609   9.865
98911SOL    HW198566  13.920   2.610   9.834
98911SOL    HW298567  13.799   2.520   9.846
98912SOL     OW98568   5.518   0.870   3.385
98912SOL    HW198569   5.463   0.881   3.307
98912SOL    HW298570   5.597   0.826   3.352
98913SOL     OW98571   8.936   3.320   5.951
98913SOL    HW198572   8.924   3.244   5.894
98913SOL    HW298573   8.917   3.287   6.039
98914SOL     OW98574   4.696  11.362  12.053
98914SOL    HW198575   4.772  11.351  12.111
98914SOL    HW298576   4.725  11.426  11.988
98915SOL     OW98577  13.070  10.474   3.284
98915SOL    HW198578  13.044  10.488   3.193
98915SOL    HW298579  13.165  10.466   3.281
98916SOL     OW98580   2.478  13.951  12.061
98916SOL    HW198581   2.419  13.992  11.997
98916SOL    HW298582   2.518  13.878  12.014
98917SOL     OW98583  13.460   8.549   1.851
98917SOL    HW198584  13.470   8.593   1.766
98917SOL    HW298585  13.370   8.515   1.849
98918SOL     OW98586   3.026   2.597   3.988
98918SOL    HW198587   3.016   2.521   4.045
98918SOL    HW298588   3.076   2.564   3.913
98919SOL     OW98589   6.694   3.948  10.706
98919SOL    HW198590   6.659   4.036  10.724
98919SOL    HW298591   6.733   3.921  10.788
98920SOL     OW98592   7.825   9.926   6.338
98920SOL    HW198593   7.816   9.913   6.432
98920SOL    HW298594   7.894   9.992   6.330
98921SOL     OW98595  11.144  10.666   3.502
98921SOL    HW198596  11.102  10.622   3.429
98921SOL    HW298597  11.216  10.716   3.463
98922SOL     OW98598   5.678   2.918   5.182
98922SOL    HW198599   5.606   2.881   5.233
98922SOL    HW298600   5.756   2.895   5.231
98923SOL     OW98601   0.292   1.289  12.703
98923SOL    HW198602   0.329   1.350  12.639
98923SOL    HW298603   0.208   1.264  12.666
98924SOL     OW98604   6.482   0.353   8.324
98924SOL    HW198605   6.577   0.337   8.328
98924SOL    HW298606   6.466   0.415   8.395
98925SOL     OW98607   0.586   9.130  14.529
98925SOL    HW198608   0.501   9.125  14.572
98925SOL    HW298609   0.638   9.061  14.570
98926SOL     OW98610   2.360   9.235   9.525
98926SOL    HW198611   2.431   9.180   9.492
98926SOL    HW298612   2.338   9.199   9.610
98927SOL     OW98613   0.369   4.254   4.764
98927SOL    HW198614   0.378   4.347   4.787
98927SOL    HW298615   0.277   4.235   4.781
98928SOL     OW98616   2.244   9.834   6.817
98928SOL    HW198617   2.311   9.898   6.840
98928SOL    HW298618   2.177   9.885   6.771
98929SOL     OW98619   9.153  11.562   9.130
98929SOL    HW198620   9.202  11.488   9.093
98929SOL    HW298621   9.139  11.620   9.056
98930SOL     OW98622   0.248  12.027   3.510
98930SOL    HW198623   0.337  12.016   3.542
98930SOL    HW298624   0.247  12.113   3.469
98931SOL     OW98625  14.182  11.152  10.717
98931SOL    HW198626  14.271  11.166  10.751
98931SOL    HW298627  14.125  11.168  10.791
98932SOL     OW98628   2.130   1.907  11.190
98932SOL    HW198629   2.155   1.908  11.097
98932SOL    HW298630   2.093   1.820  11.204
98933SOL     OW98631   8.398   7.678   6.416
98933SOL    HW198632   8.441   7.601   6.380
98933SOL    HW298633   8.312   7.680   6.374
98934SOL     OW98634  11.798  14.172  11.293
98934SOL    HW198635  11.835  14.245  11.341
98934SOL    HW298636  11.779  14.207  11.206
98935SOL     OW98637  11.849   5.334   7.622
98935SOL    HW198638  11.824   5.426   7.614
98935SOL    HW298639  11.813   5.307   7.707
98936SOL     OW98640   6.563   4.362  11.718
98936SOL    HW198641   6.470   4.358  11.740
98936SOL    HW298642   6.567   4.335  11.627
98937SOL     OW98643   3.650  14.852  10.715
98937SOL    HW198644   3.651   0.022  10.633
98937SOL    HW298645   3.722  14.789  10.706
98938SOL     OW98646   3.824   1.509  13.905
98938SOL    HW198647   3.795   1.597  13.929
98938SOL    HW298648   3.915   1.504  13.935
98939SOL     OW98649   0.381   6.161   7.405
98939SOL    HW198650   0.317   6.105   7.448
98939SOL    HW298651   0.466   6.135   7.441
98940SOL     OW98652  14.596   4.771  11.713
98940SOL    HW198653  14.604   4.694  11.769
98940SOL    HW298654  14.676   4.770  11.660
98941SOL     OW98655   1.965  10.629   7.698
98941SOL    HW198656   1.989  10.693   7.630
98941SOL    HW298657   1.875  10.653   7.721
98942SOL     OW98658   3.110   1.914   7.530
98942SOL    HW198659   3.136   1.848   7.595
98942SOL    HW298660   3.124   1.997   7.574
98943SOL     OW98661  12.868  13.658   5.111
98943SOL    HW198662  12.944  13.615   5.150
98943SOL    HW298663  12.844  13.602   5.037
98944SOL     OW98664   0.485   9.151   3.949
98944SOL    HW198665   0.397   9.115   3.949
98944SOL    HW298666   0.478   9.231   4.002
98945SOL     OW98667   4.515   8.947   4.743
98945SOL    HW198668   4.510   8.887   4.817
98945SOL    HW298669   4.589   8.915   4.691
98946SOL     OW98670   4.018  12.523   7.604
98946SOL    HW198671   3.923  12.524   7.596
98946SOL    HW298672   4.037  12.443   7.653
98947SOL     OW98673  11.519  12.833  12.890
98947SOL    HW198674  11.431  12.795  12.894
98947SOL    HW298675  11.536  12.863  12.980
98948SOL     OW98676   4.687   5.928  12.125
98948SOL    HW198677   4.778   5.904  12.142
98948SOL    HW298678   4.685   5.956  12.034
98949SOL     OW98679   3.444   0.407   2.716
98949SOL    HW198680   3.448   0.358   2.634
98949SOL    HW298681   3.436   0.498   2.689
98950SOL     OW98682   0.357   7.311   7.611
98950SOL    HW198683   0.425   7.271   7.557
98950SOL    HW298684   0.348   7.251   7.686
98951SOL     OW98685   7.735  11.812  14.736
98951SOL    HW198686   7.680  11.785  14.809
98951SOL    HW298687   7.784  11.888  14.768
98952SOL     OW98688  10.233  14.182  12.447
98952SOL    HW198689  10.249  14.174  12.353
98952SOL    HW298690  10.143  14.152  12.459
98953SOL     OW98691   3.538   9.190  13.494
98953SOL    HW198692   3.479   9.265  13.506
98953SOL    HW298693   3.553   9.186  13.400
98954SOL     OW98694   6.289   3.534   0.884
98954SOL    HW198695   6.332   3.450   0.870
98954SOL    HW298696   6.211   3.530   0.828
98955SOL     OW98697   6.961  13.529   9.373
98955SOL    HW198698   7.051  13.537   9.404
98955SOL    HW298699   6.910  13.511   9.452
98956SOL     OW98700   2.355   2.860   6.399
98956SOL    HW198701   2.280   2.919   6.401
98956SOL    HW298702   2.430   2.917   6.380
98957SOL     OW98703   3.321   9.211   6.113
98957SOL    HW198704   3.276   9.295   6.116
98957SOL    HW298705   3.339   9.196   6.020
98958SOL     OW98706   2.254  12.618  13.621
98958SOL    HW198707   2.346  12.631  13.644
98958SOL    HW298708   2.214  12.704  13.630
98959SOL     OW98709  12.696   6.982  14.210
98959SOL    HW198710  12.724   7.070  14.184
98959SOL    HW298711  12.665   6.993  14.300
98960SOL     OW98712  12.671   3.063   4.723
98960SOL    HW198713  12.704   3.065   4.633
98960SOL    HW298714  12.746   3.089   4.776
98961SOL     OW98715   3.332  13.537   3.990
98961SOL    HW198716   3.416  13.526   3.945
98961SOL    HW298717   3.330  13.629   4.016
98962SOL     OW98718   8.416   2.710  11.266
98962SOL    HW198719   8.403   2.805  11.260
98962SOL    HW298720   8.403   2.678  11.177
98963SOL     OW98721   8.444  11.711   7.465
98963SOL    HW198722   8.507  11.730   7.534
98963SOL    HW298723   8.374  11.663   7.508
98964SOL     OW98724   0.775  13.179   2.541
98964SOL    HW198725   0.776  13.163   2.447
98964SOL    HW298726   0.742  13.268   2.551
98965SOL     OW98727   6.248   6.717   1.549
98965SOL    HW198728   6.201   6.778   1.493
98965SOL    HW298729   6.197   6.713   1.629
98966SOL     OW98730  14.699  13.572   1.798
98966SOL    HW198731  14.614  13.599   1.833
98966SOL    HW298732  14.761  13.636   1.831
98967SOL     OW98733   1.600   8.667   4.710
98967SOL    HW198734   1.641   8.677   4.624
98967SOL    HW298735   1.663   8.615   4.760
98968SOL     OW98736   4.639   1.829   3.286
98968SOL    HW198737   4.726   1.868   3.280
98968SOL    HW298738   4.587   1.896   3.331
98969SOL     OW98739  10.541  11.222   9.813
98969SOL    HW198740  10.485  11.148   9.837
98969SOL    HW298741  10.489  11.273   9.751
98970SOL     OW98742   4.596   9.027   3.669
98970SOL    HW198743   4.678   8.978   3.665
98970SOL    HW298744   4.609   9.101   3.610
98971SOL     OW98745   4.591   7.342   8.121
98971SOL    HW198746   4.685   7.326   8.127
98971SOL    HW298747   4.559   7.330   8.210
98972SOL     OW98748  11.758   5.378  12.771
98972SOL    HW198749  11.800   5.296  12.744
98972SOL    HW298750  11.820   5.446  12.746
98973SOL     OW98751  10.618   3.328   9.831
98973SOL    HW198752  10.586   3.238   9.841
98973SOL    HW298753  10.542   3.382   9.854
98974SOL     OW98754   6.348   4.297  13.600
98974SOL    HW198755   6.294   4.282  13.522
98974SOL    HW298756   6.356   4.392  13.605
98975SOL     OW98757  13.133   6.926   6.966
98975SOL    HW198758  13.064   6.860   6.965
98975SOL    HW298759  13.201   6.888   7.023
98976SOL     OW98760  13.743   5.068   8.826
98976SOL    HW198761  13.705   5.156   8.815
98976SOL    HW298762  13.701   5.034   8.905
98977SOL     OW98763  10.596   6.530   5.855
98977SOL    HW198764  10.652   6.565   5.924
98977SOL    HW298765  10.634   6.444   5.834
98978SOL     OW98766   7.607   9.403   9.072
98978SOL    HW198767   7.612   9.480   9.128
98978SOL    HW298768   7.513   9.393   9.054
98979SOL     OW98769   4.992  10.220  14.444
98979SOL    HW198770   4.967  10.148  14.501
98979SOL    HW298771   4.973  10.299  14.495
98980SOL     OW98772   5.256   0.012   3.649
98980SOL    HW198773   5.297  14.868   3.565
98980SOL    HW298774   5.310  14.849   3.715
98981SOL     OW98775  11.388   6.222  10.064
98981SOL    HW198776  11.455   6.204   9.997
98981SOL    HW298777  11.438   6.228  10.146
98982SOL     OW98778  13.173   9.388  12.957
98982SOL    HW198779  13.158   9.473  12.998
98982SOL    HW298780  13.174   9.326  13.029
98983SOL     OW98781   8.300   9.039   0.064
98983SOL    HW198782   8.278   9.047   0.157
98983SOL    HW298783   8.321   9.128   0.036
98984SOL     OW98784   9.050  10.668  11.885
98984SOL    HW198785   9.078  10.758  11.904
98984SOL    HW298786   8.961  10.663  11.919
98985SOL     OW98787  11.245   0.138   1.134
98985SOL    HW198788  11.250   0.051   1.093
98985SOL    HW298789  11.314   0.137   1.201
98986SOL     OW98790  14.003   4.144   0.277
98986SOL    HW198791  14.024   4.054   0.251
98986SOL    HW298792  13.975   4.137   0.368
98987SOL     OW98793   8.068   7.992   9.052
98987SOL    HW198794   8.039   8.074   9.011
98987SOL    HW298795   8.096   7.937   8.978
98988SOL     OW98796   9.136   9.148  13.984
98988SOL    HW198797   9.113   9.116  14.071
98988SOL    HW298798   9.053   9.171  13.944
98989SOL     OW98799  12.152   8.065   3.104
98989SOL    HW198800  12.103   8.144   3.083
98989SOL    HW298801  12.091   8.012   3.156
98990SOL     OW98802   1.285  13.418  13.828
98990SOL    HW198803   1.313  13.346  13.885
98990SOL    HW298804   1.243  13.375  13.753
98991SOL     OW98805   4.295  13.645   5.100
98991SOL    HW198806   4.346  13.566   5.118
98991SOL    HW298807   4.279  13.641   5.005
98992SOL     OW98808   5.951  12.598   8.749
98992SOL    HW198809   6.026  12.565   8.700
98992SOL    HW298810   5.875  12.557   8.708
98993SOL     OW98811   1.148   3.641   7.063
98993SOL    HW198812   1.062   3.601   7.046
98993SOL    HW298813   1.165   3.695   6.986
98994SOL     OW98814   4.792   7.882  11.505
98994SOL    HW198815   4.831   7.942  11.568
98994SOL    HW298816   4.787   7.798  11.550
98995SOL     OW98817   6.647   5.539   4.171
98995SOL    HW198818   6.629   5.502   4.257
98995SOL    HW298819   6.696   5.470   4.125
98996SOL     OW98820   3.204   9.782   9.181
98996SOL    HW198821   3.216   9.717   9.250
98996SOL    HW298822   3.291   9.796   9.144
98997SOL     OW98823   5.297   7.725   0.579
98997SOL    HW198824   5.332   7.697   0.664
98997SOL    HW298825   5.206   7.751   0.598
98998SOL     OW98826   2.527   0.845   6.547
98998SOL    HW198827   2.575   0.864   6.627
98998SOL    HW298828   2.502   0.753   6.555
98999SOL     OW98829  11.328   8.686   1.878
98999SOL    HW198830  11.369   8.633   1.947
98999SOL    HW298831  11.400   8.736   1.841
99000SOL     OW98832   1.112  11.572   0.421
99000SOL    HW198833   1.164  11.573   0.340
99000SOL    HW298834   1.049  11.502   0.408
99001SOL     OW98835   2.342   2.624  10.384
99001SOL    HW198836   2.291   2.705  10.390
99001SOL    HW298837   2.305   2.578  10.309
99002SOL     OW98838  13.268   2.786   9.496
99002SOL    HW198839  13.199   2.831   9.448
99002SOL    HW298840  13.288   2.710   9.441
99003SOL     OW98841   8.708  10.193  13.969
99003SOL    HW198842   8.655  10.258  13.924
99003SOL    HW298843   8.777  10.243  14.012
99004SOL     OW98844  10.215  12.498   6.694
99004SOL    HW198845  10.233  12.590   6.711
99004SOL    HW298846  10.142  12.476   6.752
99005SOL     OW98847   9.796   4.795   6.624
99005SOL    HW198848   9.754   4.757   6.701
99005SOL    HW298849   9.862   4.730   6.599
99006SOL     OW98850   6.509   1.043   8.745
99006SOL    HW198851   6.489   1.055   8.652
99006SOL    HW298852   6.477   1.123   8.786
99007SOL     OW98853   0.585   8.673   5.473
99007SOL    HW198854   0.505   8.724   5.468
99007SOL    HW298855   0.631   8.693   5.391
99008SOL     OW98856   9.370   5.105   8.015
99008SOL    HW198857   9.356   5.154   8.095
99008SOL    HW298858   9.340   5.016   8.035
99009SOL     OW98859  11.173  12.391   0.001
99009SOL    HW198860  11.082  12.399   0.030
99009SOL    HW298861  11.167  12.348  14.795
99010SOL     OW98862  12.436   5.011   8.317
99010SOL    HW198863  12.431   4.948   8.389
99010SOL    HW298864  12.395   4.966   8.243
99011SOL     OW98865   1.293   6.395   2.037
99011SOL    HW198866   1.368   6.335   2.042
99011SOL    HW298867   1.294   6.442   2.120
99012SOL     OW98868  11.996   8.128   5.019
99012SOL    HW198869  12.064   8.076   5.062
99012SOL    HW298870  12.045   8.191   4.966
99013SOL     OW98871   9.538   5.380   0.879
99013SOL    HW198872   9.517   5.415   0.793
99013SOL    HW298873   9.534   5.285   0.868
99014SOL     OW98874   1.244   9.724   6.618
99014SOL    HW198875   1.207   9.660   6.679
99014SOL    HW298876   1.170   9.779   6.593
99015SOL     OW98877   3.816   6.346   5.434
99015SOL    HW198878   3.844   6.254   5.434
99015SOL    HW298879   3.796   6.365   5.343
99016SOL     OW98880  13.250   5.952   6.300
99016SOL    HW198881  13.168   5.973   6.256
99016SOL    HW298882  13.296   6.036   6.306
99017SOL     OW98883  12.228   3.454   2.116
99017SOL    HW198884  12.191   3.399   2.185
99017SOL    HW298885  12.281   3.394   2.063
99018SOL     OW98886   6.594  14.485  11.456
99018SOL    HW198887   6.658  14.543  11.498
99018SOL    HW298888   6.637  14.457  11.375
99019SOL     OW98889   4.775   2.469   1.212
99019SOL    HW198890   4.818   2.552   1.232
99019SOL    HW298891   4.681   2.487   1.224
99020SOL     OW98892   4.712   9.747   4.312
99020SOL    HW198893   4.800   9.770   4.341
99020SOL    HW298894   4.715   9.653   4.296
99021SOL     OW98895  10.869   3.248  11.692
99021SOL    HW198896  10.897   3.339  11.702
99021SOL    HW298897  10.774   3.250  11.702
99022SOL     OW98898  10.935   0.241  14.550
99022SOL    HW198899  10.918   0.191  14.470
99022SOL    HW298900  10.849   0.272  14.578
99023SOL     OW98901   1.271   4.935   7.867
99023SOL    HW198902   1.179   4.948   7.846
99023SOL    HW298903   1.316   5.009   7.825
99024SOL     OW98904   2.111   0.429  12.654
99024SOL    HW198905   2.042   0.374  12.691
99024SOL    HW298906   2.128   0.494  12.722
99025SOL     OW98907  14.195  10.281   1.675
99025SOL    HW198908  14.195  10.341   1.750
99025SOL    HW298909  14.288  10.266   1.657
99026SOL     OW98910   6.530  13.389   4.311
99026SOL    HW198911   6.525  13.476   4.352
99026SOL    HW298912   6.538  13.329   4.385
99027SOL     OW98913  10.536   3.356   7.594
99027SOL    HW198914  10.476   3.331   7.524
99027SOL    HW298915  10.609   3.399   7.549
99028SOL     OW98916  11.972   2.791   9.322
99028SOL    HW198917  11.903   2.823   9.263
99028SOL    HW298918  12.024   2.731   9.269
99029SOL     OW98919   5.733   0.087  13.090
99029SOL    HW198920   5.768   0.071  13.002
99029SOL    HW298921   5.708  14.879  13.121
99030SOL     OW98922   8.854   2.228  14.049
99030SOL    HW198923   8.913   2.223  14.124
99030SOL    HW298924   8.911   2.229  13.973
99031SOL     OW98925  10.273  12.108   5.947
99031SOL    HW198926  10.181  12.089   5.927
99031SOL    HW298927  10.319  12.026   5.928
99032SOL     OW98928   3.502   2.997   0.353
99032SOL    HW198929   3.457   3.039   0.426
99032SOL    HW298930   3.550   2.924   0.393
99033SOL     OW98931   4.972   0.360   6.715
99033SOL    HW198932   5.034   0.433   6.716
99033SOL    HW298933   5.026   0.283   6.734
99034SOL     OW98934   6.295   4.405   0.456
99034SOL    HW198935   6.363   4.470   0.475
99034SOL    HW298936   6.247   4.442   0.382
99035SOL     OW98937  12.949   4.123   9.665
99035SOL    HW198938  13.039   4.094   9.650
99035SOL    HW298939  12.955   4.218   9.672
99036SOL     OW98940   2.702  10.270   2.502
99036SOL    HW198941   2.612  10.276   2.470
99036SOL    HW298942   2.756  10.305   2.430
99037SOL     OW98943   3.885   2.282  13.884
99037SOL    HW198944   3.945   2.234  13.828
99037SOL    HW298945   3.941   2.322  13.951
99038SOL     OW98946   8.413   7.084  14.536
99038SOL    HW198947   8.401   7.179  14.530
99038SOL    HW298948   8.358   7.048  14.466
99039SOL     OW98949   9.300   6.703   1.867
99039SOL    HW198950   9.270   6.647   1.796
99039SOL    HW298951   9.301   6.647   1.945
99040SOL     OW98952   1.050  10.758   4.725
99040SOL    HW198953   1.058  10.819   4.799
99040SOL    HW298954   1.131  10.707   4.728
99041SOL     OW98955   0.166  11.951   5.173
99041SOL    HW198956   0.083  11.997   5.190
99041SOL    HW298957   0.220  11.972   5.249
99042SOL     OW98958  12.642   8.398   8.471
99042SOL    HW198959  12.631   8.345   8.550
99042SOL    HW298960  12.737   8.403   8.458
99043SOL     OW98961   9.679  12.406   8.070
99043SOL    HW198962   9.685  12.497   8.100
99043SOL    HW298963   9.647  12.413   7.980
99044SOL     OW98964   3.398   8.871   4.811
99044SOL    HW198965   3.406   8.887   4.905
99044SOL    HW298966   3.304   8.861   4.797
99045SOL     OW98967   2.924   0.492  10.372
99045SOL    HW198968   2.993   0.426  10.373
99045SOL    HW298969   2.886   0.489  10.460
99046SOL     OW98970  12.619   9.004   8.187
99046SOL    HW198971  12.683   8.939   8.217
99046SOL    HW298972  12.633   9.010   8.093
99047SOL     OW98973   6.538   3.115   0.157
99047SOL    HW198974   6.480   3.191   0.151
99047SOL    HW298975   6.608   3.142   0.216
99048SOL     OW98976   1.112   8.046   0.508
99048SOL    HW198977   1.113   8.116   0.574
99048SOL    HW298978   1.024   8.009   0.514
99049SOL     OW98979   5.385  12.924  11.530
99049SOL    HW198980   5.314  12.971  11.487
99049SOL    HW298981   5.344  12.844  11.563
99050SOL     OW98982   2.644   2.275   6.131
99050SOL    HW198983   2.586   2.255   6.058
99050SOL    HW298984   2.586   2.288   6.206
99051SOL     OW98985   7.608  10.610   1.072
99051SOL    HW198986   7.613  10.535   1.013
99051SOL    HW298987   7.697  10.646   1.074
99052SOL     OW98988   7.485   8.016   0.957
99052SOL    HW198989   7.450   7.985   1.040
99052SOL    HW298990   7.559   8.071   0.981
99053SOL     OW98991   3.767  11.781  10.314
99053SOL    HW198992   3.822  11.706  10.336
99053SOL    HW298993   3.677  11.748  10.320
99054SOL     OW98994   4.676   6.685   7.509
99054SOL    HW198995   4.645   6.631   7.436
99054SOL    HW298996   4.603   6.685   7.571
99055SOL     OW98997   0.439   6.592   3.710
99055SOL    HW198998   0.387   6.656   3.756
99055SOL    HW298999   0.430   6.615   3.617
99056SOL     OW99000   8.640  12.522  14.555
99056SOL    HW199001   8.666  12.448  14.501
99056SOL    HW299002   8.712  12.585  14.548
99057SOL     OW99003  11.664   7.410   7.367
99057SOL    HW199004  11.636   7.395   7.457
99057SOL    HW299005  11.752   7.371   7.363
99058SOL     OW99006  14.122   6.849   3.557
99058SOL    HW199007  14.098   6.805   3.639
99058SOL    HW299008  14.186   6.791   3.516
99059SOL     OW99009   2.800  11.823   6.969
99059SOL    HW199010   2.785  11.822   6.874
99059SOL    HW299011   2.764  11.741   7.000
99060SOL     OW99012  10.128   8.304   7.762
99060SOL    HW199013  10.183   8.238   7.805
99060SOL    HW299014  10.090   8.258   7.687
99061SOL     OW99015  13.973  13.905   4.289
99061SOL    HW199016  13.927  13.956   4.355
99061SOL    HW299017  14.062  13.895   4.324
99062SOL     OW99018  13.239  10.543   6.784
99062SOL    HW199019  13.323  10.498   6.789
99062SOL    HW299020  13.174  10.474   6.774
99063SOL     OW99021   2.923   0.717   5.878
99063SOL    HW199022   2.876   0.799   5.869
99063SOL    HW299023   2.898   0.666   5.801
99064SOL     OW99024  10.289  12.517   0.014
99064SOL    HW199025  10.204  12.490   0.048
99064SOL    HW299026  10.297  12.609   0.039
99065SOL     OW99027   1.151  10.052  13.714
99065SOL    HW199028   1.128   9.959  13.710
99065SOL    HW299029   1.080  10.096  13.668
99066SOL     OW99030  12.346   5.902   5.013
99066SOL    HW199031  12.357   5.995   4.994
99066SOL    HW299032  12.357   5.896   5.108
99067SOL     OW99033   4.344   9.783  12.752
99067SOL    HW199034   4.287   9.845  12.707
99067SOL    HW299035   4.311   9.697  12.725
99068SOL     OW99036  12.977   7.685   0.212
99068SOL    HW199037  12.972   7.767   0.163
99068SOL    HW299038  13.052   7.697   0.271
99069SOL     OW99039  10.712   7.025  11.530
99069SOL    HW199040  10.774   7.006  11.601
99069SOL    HW299041  10.723   7.118  11.514
99070SOL     OW99042   1.135   9.505   9.929
99070SOL    HW199043   1.185   9.494  10.010
99070SOL    HW299044   1.175   9.444   9.868
99071SOL     OW99045   3.979   8.233  14.776
99071SOL    HW199046   3.993   8.196  14.689
99071SOL    HW299047   4.024   8.318  14.774
99072SOL     OW99048   2.912   1.217  12.442
99072SOL    HW199049   2.918   1.179  12.355
99072SOL    HW299050   2.838   1.278  12.436
99073SOL     OW99051  13.984   8.516   8.291
99073SOL    HW199052  13.942   8.585   8.240
99073SOL    HW299053  14.078   8.529   8.277
99074SOL     OW99054   4.162  12.959   0.600
99074SOL    HW199055   4.213  12.896   0.651
99074SOL    HW299056   4.106  12.905   0.545
99075SOL     OW99057  14.810   7.944  10.267
99075SOL    HW199058   0.015   7.953  10.222
99075SOL    HW299059  14.746   7.936  10.197
99076SOL     OW99060   2.494  11.645  10.473
99076SOL    HW199061   2.451  11.658  10.388
99076SOL    HW299062   2.542  11.726  10.488
99077SOL     OW99063   0.788  12.101  13.924
99077SOL    HW199064   0.861  12.160  13.943
99077SOL    HW299065   0.745  12.087  14.009
99078SOL     OW99066   5.202   8.126   5.437
99078SOL    HW199067   5.112   8.156   5.452
99078SOL    HW299068   5.254   8.206   5.436
99079SOL     OW99069   5.428   4.683   8.592
99079SOL    HW199070   5.379   4.611   8.633
99079SOL    HW299071   5.451   4.740   8.665
99080SOL     OW99072   7.538   9.900   1.884
99080SOL    HW199073   7.506   9.969   1.825
99080SOL    HW299074   7.520   9.934   1.971
99081SOL     OW99075  11.069   3.323  10.127
99081SOL    HW199076  11.114   3.407  10.114
99081SOL    HW299077  10.981   3.338  10.094
99082SOL     OW99078   7.042  11.138   4.867
99082SOL    HW199079   7.079  11.182   4.790
99082SOL    HW299080   7.118  11.119   4.922
99083SOL     OW99081   7.491   1.773  14.098
99083SOL    HW199082   7.494   1.868  14.108
99083SOL    HW299083   7.399   1.754  14.080
99084SOL     OW99084   4.443   8.980   1.197
99084SOL    HW199085   4.478   8.976   1.286
99084SOL    HW299086   4.349   8.993   1.209
99085SOL     OW99087   2.196  10.271  10.771
99085SOL    HW199088   2.197  10.352  10.823
99085SOL    HW299089   2.104  10.261  10.744
99086SOL     OW99090   6.515  13.252   5.138
99086SOL    HW199091   6.443  13.252   5.201
99086SOL    HW299092   6.551  13.164   5.143
99087SOL     OW99093  10.703  13.159   1.041
99087SOL    HW199094  10.679  13.226   1.105
99087SOL    HW299095  10.757  13.097   1.090
99088SOL     OW99096   7.385  11.300  11.358
99088SOL    HW199097   7.415  11.297  11.449
99088SOL    HW299098   7.407  11.214  11.323
99089SOL     OW99099  10.919   7.208   2.217
99089SOL    HW199100  10.878   7.132   2.257
99089SOL    HW299101  10.908   7.278   2.281
99090SOL     OW99102   1.362   9.208   9.234
99090SOL    HW199103   1.368   9.140   9.301
99090SOL    HW299104   1.352   9.161   9.152
99091SOL     OW99105   9.686   1.709   3.789
99091SOL    HW199106   9.636   1.718   3.709
99091SOL    HW299107   9.777   1.698   3.760
99092SOL     OW99108   5.017  12.510   8.298
99092SOL    HW199109   4.948  12.486   8.236
99092SOL    HW299110   5.040  12.429   8.343
99093SOL     OW99111   2.728  12.557   8.075
99093SOL    HW199112   2.729  12.522   7.986
99093SOL    HW299113   2.785  12.634   8.072
99094SOL     OW99114  13.378   5.318  12.082
99094SOL    HW199115  13.339   5.396  12.122
99094SOL    HW299116  13.381   5.254  12.153
99095SOL     OW99117   1.628   0.915  14.806
99095SOL    HW199118   1.593   0.838  14.761
99095SOL    HW299119   1.588   0.989  14.762
99096SOL     OW99120   0.577  10.890   1.654
99096SOL    HW199121   0.644  10.938   1.703
99096SOL    HW299122   0.573  10.805   1.696
99097SOL     OW99123  10.633   9.354   2.195
99097SOL    HW199124  10.654   9.263   2.173
99097SOL    HW299125  10.656   9.404   2.117
99098SOL     OW99126  11.809   4.848  14.691
99098SOL    HW199127  11.713   4.849  14.694
99098SOL    HW299128  11.835   4.798  14.768
99099SOL     OW99129  14.402  13.807   3.195
99099SOL    HW199130  14.380  13.825   3.104
99099SOL    HW299131  14.480  13.752   3.191
99100SOL     OW99132  13.668   6.255  14.010
99100SOL    HW199133  13.688   6.347  13.994
99100SOL    HW299134  13.730   6.207  13.955
99101SOL     OW99135  13.996   8.024   9.472
99101SOL    HW199136  14.091   8.014   9.466
99101SOL    HW299137  13.984   8.092   9.538
99102SOL     OW99138  10.001   0.822   7.017
99102SOL    HW199139  10.096   0.818   7.026
99102SOL    HW299140   9.983   0.912   6.990
99103SOL     OW99141   1.412   0.935   0.167
99103SOL    HW199142   1.497   0.904   0.136
99103SOL    HW299143   1.376   0.862   0.217
99104SOL     OW99144   9.623   8.095   5.532
99104SOL    HW199145   9.626   8.069   5.440
99104SOL    HW299146   9.557   8.165   5.534
99105SOL     OW99147   0.535   9.565   3.251
99105SOL    HW199148   0.503   9.542   3.339
99105SOL    HW299149   0.630   9.572   3.261
99106SOL     OW99150   9.712  11.609   7.841
99106SOL    HW199151   9.758  11.537   7.883
99106SOL    HW299152   9.637  11.626   7.898
99107SOL     OW99153   6.257   4.605   4.189
99107SOL    HW199154   6.216   4.518   4.191
99107SOL    HW299155   6.316   4.602   4.113
99108SOL     OW99156   5.424   9.439   4.278
99108SOL    HW199157   5.438   9.346   4.294
99108SOL    HW299158   5.435   9.480   4.364
99109SOL     OW99159   5.507   7.981   1.461
99109SOL    HW199160   5.552   8.033   1.527
99109SOL    HW299161   5.472   7.906   1.510
99110SOL     OW99162   5.561   1.620   0.153
99110SOL    HW199163   5.561   1.576   0.238
99110SOL    HW299164   5.526   1.555   0.093
99111SOL     OW99165   3.605   5.749  13.158
99111SOL    HW199166   3.573   5.662  13.181
99111SOL    HW299167   3.679   5.733  13.099
99112SOL     OW99168   1.331   8.011   5.392
99112SOL    HW199169   1.250   8.051   5.421
99112SOL    HW299170   1.334   7.927   5.438
99113SOL     OW99171   5.710  12.325   2.258
99113SOL    HW199172   5.714  12.254   2.322
99113SOL    HW299173   5.688  12.282   2.175
99114SOL     OW99174   3.148   8.106   2.534
99114SOL    HW199175   3.165   8.157   2.455
99114SOL    HW299176   3.136   8.173   2.602
99115SOL     OW99177   8.858  13.706   7.046
99115SOL    HW199178   8.881  13.775   6.984
99115SOL    HW299179   8.775  13.672   7.014
99116SOL     OW99180   4.309  13.371   3.010
99116SOL    HW199181   4.358  13.394   3.088
99116SOL    HW299182   4.218  13.392   3.032
99117SOL     OW99183  11.044   9.071   6.935
99117SOL    HW199184  11.096   9.150   6.949
99117SOL    HW299185  11.079   9.008   6.998
99118SOL     OW99186   5.957  14.302   9.773
99118SOL    HW199187   6.001  14.217   9.767
99118SOL    HW299188   5.985  14.337   9.857
99119SOL     OW99189   9.537  14.160  10.404
99119SOL    HW199190   9.494  14.078  10.380
99119SOL    HW299191   9.503  14.224  10.342
99120SOL     OW99192   8.318  12.615  13.188
99120SOL    HW199193   8.276  12.584  13.108
99120SOL    HW299194   8.364  12.538  13.223
99121SOL     OW99195  11.851   9.833   2.110
99121SOL    HW199196  11.873   9.860   2.198
99121SOL    HW299197  11.888   9.745   2.102
99122SOL     OW99198   4.533   0.854  12.076
99122SOL    HW199199   4.616   0.901  12.070
99122SOL    HW299200   4.529   0.823  12.167
99123SOL     OW99201   3.343  11.602   0.215
99123SOL    HW199202   3.313  11.598   0.305
99123SOL    HW299203   3.427  11.555   0.215
99124SOL     OW99204  12.433   9.654   7.152
99124SOL    HW199205  12.417   9.687   7.241
99124SOL    HW299206  12.529   9.650   7.146
99125SOL     OW99207  12.271   6.218  12.444
99125SOL    HW199208  12.180   6.219  12.474
99125SOL    HW299209  12.305   6.305  12.466
99126SOL     OW99210   3.733   6.860   9.879
99126SOL    HW199211   3.729   6.900   9.966
99126SOL    HW299212   3.648   6.880   9.840
99127SOL     OW99213   1.522   0.378  12.485
99127SOL    HW199214   1.608   0.419  12.493
99127SOL    HW299215   1.482   0.420  12.409
99128SOL     OW99216   1.252   3.782  11.236
99128SOL    HW199217   1.159   3.804  11.243
99128SOL    HW299218   1.265   3.713  11.300
99129SOL     OW99219  14.314   1.550  13.485
99129SOL    HW199220  14.384   1.485  13.474
99129SOL    HW299221  14.285   1.540  13.575
99130SOL     OW99222  10.670  10.761   0.419
99130SOL    HW199223  10.681  10.666   0.409
99130SOL    HW299224  10.595  10.770   0.478
99131SOL     OW99225  12.160  11.247  10.345
99131SOL    HW199226  12.118  11.240  10.259
99131SOL    HW299227  12.188  11.338  10.351
99132SOL     OW99228  14.731   5.893   7.677
99132SOL    HW199229  14.759   5.971   7.630
99132SOL    HW299230  14.649   5.919   7.720
99133SOL     OW99231   1.596  12.736   0.550
99133SOL    HW199232   1.561  12.717   0.463
99133SOL    HW299233   1.524  12.779   0.596
99134SOL     OW99234   6.521   3.715   7.766
99134SOL    HW199235   6.598   3.701   7.711
99134SOL    HW299236   6.492   3.627   7.790
99135SOL     OW99237   9.676   9.775   2.072
99135SOL    HW199238   9.662   9.707   2.006
99135SOL    HW299239   9.647   9.735   2.154
99136SOL     OW99240  10.065   4.011  13.108
99136SOL    HW199241  10.043   4.000  13.015
99136SOL    HW299242  10.046   3.926  13.147
99137SOL     OW99243   3.576   4.736   5.244
99137SOL    HW199244   3.584   4.760   5.336
99137SOL    HW299245   3.506   4.792   5.211
99138SOL     OW99246   9.276   3.293   9.780
99138SOL    HW199247   9.253   3.200   9.777
99138SOL    HW299248   9.345   3.304   9.715
99139SOL     OW99249   3.072   4.348  11.934
99139SOL    HW199250   3.015   4.310  12.000
99139SOL    HW299251   3.087   4.438  11.964
99140SOL     OW99252   8.893   9.507   4.359
99140SOL    HW199253   8.882   9.429   4.413
99140SOL    HW299254   8.814   9.559   4.376
99141SOL     OW99255   4.295   8.757   3.861
99141SOL    HW199256   4.323   8.819   3.928
99141SOL    HW299257   4.323   8.672   3.893
99142SOL     OW99258   0.345  14.614   5.234
99142SOL    HW199259   0.399  14.673   5.182
99142SOL    HW299260   0.334  14.536   5.178
99143SOL     OW99261  14.314   5.628   7.814
99143SOL    HW199262  14.273   5.552   7.773
99143SOL    HW299263  14.266   5.640   7.896
99144SOL     OW99264   4.970   0.802  12.299
99144SOL    HW199265   4.986   0.776  12.209
99144SOL    HW299266   5.028   0.876  12.314
99145SOL     OW99267   2.635  14.706   6.795
99145SOL    HW199268   2.582  14.680   6.870
99145SOL    HW299269   2.698  14.769   6.830
99146SOL     OW99270   4.416   5.242  10.011
99146SOL    HW199271   4.479   5.307  10.043
99146SOL    HW299272   4.428   5.242   9.916
99147SOL     OW99273   0.901   5.297   6.498
99147SOL    HW199274   0.924   5.337   6.414
99147SOL    HW299275   0.850   5.365   6.542
99148SOL     OW99276   7.394  11.784   2.225
99148SOL    HW199277   7.403  11.811   2.134
99148SOL    HW299278   7.368  11.691   2.220
99149SOL     OW99279   6.858   3.564   0.635
99149SOL    HW199280   6.840   3.584   0.726
99149SOL    HW299281   6.785   3.602   0.587
99150SOL     OW99282   0.275  10.740  13.469
99150SOL    HW199283   0.330  10.661  13.466
99150SOL    HW299284   0.334  10.812  13.447
99151SOL     OW99285  10.836   1.886  14.219
99151SOL    HW199286  10.742   1.885  14.234
99151SOL    HW299287  10.874   1.890  14.306
99152SOL     OW99288   5.279  13.646   2.954
99152SOL    HW199289   5.312  13.612   3.037
99152SOL    HW299290   5.342  13.715   2.930
99153SOL     OW99291  10.307   2.167   4.296
99153SOL    HW199292  10.333   2.254   4.264
99153SOL    HW299293  10.222   2.152   4.256
99154SOL     OW99294  10.811   5.496   4.578
99154SOL    HW199295  10.790   5.587   4.560
99154SOL    HW299296  10.759   5.446   4.515
99155SOL     OW99297  13.154  11.851   2.593
99155SOL    HW199298  13.150  11.923   2.656
99155SOL    HW299299  13.245  11.823   2.594
99156SOL     OW99300   7.036   7.556   0.480
99156SOL    HW199301   7.114   7.567   0.534
99156SOL    HW299302   7.003   7.644   0.466
99157SOL     OW99303   8.146   8.119  13.450
99157SOL    HW199304   8.206   8.186  13.416
99157SOL    HW299305   8.064   8.166  13.467
99158SOL     OW99306   3.769   9.787   6.057
99158SOL    HW199307   3.848   9.828   6.021
99158SOL    HW299308   3.762   9.703   6.010
99159SOL     OW99309   3.590   9.868  14.443
99159SOL    HW199310   3.557   9.934  14.382
99159SOL    HW299311   3.564   9.785  14.404
99160SOL     OW99312  11.525   4.046   8.604
99160SOL    HW199313  11.469   4.101   8.550
99160SOL    HW299314  11.521   3.960   8.563
99161SOL     OW99315   1.360   6.147  13.994
99161SOL    HW199316   1.340   6.235  14.027
99161SOL    HW299317   1.390   6.099  14.071
99162SOL     OW99318   8.811   9.238   3.857
99162SOL    HW199319   8.905   9.249   3.874
99162SOL    HW299320   8.788   9.311   3.801
99163SOL     OW99321   6.535   6.884   9.593
99163SOL    HW199322   6.445   6.856   9.608
99163SOL    HW299323   6.529   6.978   9.578
99164SOL     OW99324  12.936   4.493  10.346
99164SOL    HW199325  12.973   4.423  10.400
99164SOL    HW299326  13.004   4.513  10.283
99165SOL     OW99327   2.245   4.630   7.954
99165SOL    HW199328   2.309   4.576   7.906
99165SOL    HW299329   2.259   4.718   7.921
99166SOL     OW99330   8.057   1.832  14.167
99166SOL    HW199331   7.979   1.797  14.124
99166SOL    HW299332   8.124   1.764  14.155
99167SOL     OW99333   3.108   3.651   2.177
99167SOL    HW199334   3.093   3.557   2.167
99167SOL    HW299335   3.022   3.687   2.196
99168SOL     OW99336   9.067  11.294  10.084
99168SOL    HW199337   8.995  11.349  10.052
99168SOL    HW299338   9.122  11.354  10.134
99169SOL     OW99339   2.669   3.057   8.974
99169SOL    HW199340   2.610   3.095   9.039
99169SOL    HW299341   2.732   3.006   9.026
99170SOL     OW99342  10.176  10.364  14.293
99170SOL    HW199343  10.212  10.293  14.241
99170SOL    HW299344  10.173  10.329  14.382
99171SOL     OW99345   2.607  12.592   5.426
99171SOL    HW199346   2.679  12.653   5.416
99171SOL    HW299347   2.648  12.511   5.455
99172SOL     OW99348   7.575   4.364   6.982
99172SOL    HW199349   7.589   4.427   7.053
99172SOL    HW299350   7.498   4.314   7.009
99173SOL     OW99351   6.783  11.027  13.124
99173SOL    HW199352   6.864  10.976  13.121
99173SOL    HW299353   6.779  11.070  13.038
99174SOL     OW99354  14.372   9.810   9.044
99174SOL    HW199355  14.460   9.847   9.037
99174SOL    HW299356  14.317   9.884   9.072
99175SOL     OW99357   3.396   9.339   3.395
99175SOL    HW199358   3.452   9.406   3.358
99175SOL    HW299359   3.316   9.343   3.343
99176SOL     OW99360   1.434   3.542   4.869
99176SOL    HW199361   1.343   3.527   4.893
99176SOL    HW299362   1.429   3.606   4.797
99177SOL     OW99363   3.857   8.370   7.521
99177SOL    HW199364   3.934   8.334   7.566
99177SOL    HW299365   3.784   8.317   7.554
99178SOL     OW99366  13.550   0.932  11.035
99178SOL    HW199367  13.612   0.952  11.105
99178SOL    HW299368  13.599   0.879  10.973
99179SOL     OW99369   6.754   7.688  11.526
99179SOL    HW199370   6.666   7.722  11.538
99179SOL    HW299371   6.797   7.702  11.611
99180SOL     OW99372   8.876   8.185   9.558
99180SOL    HW199373   8.893   8.274   9.527
99180SOL    HW299374   8.830   8.196   9.641
99181SOL     OW99375   1.853   5.574   0.432
99181SOL    HW199376   1.829   5.505   0.369
99181SOL    HW299377   1.943   5.596   0.411
99182SOL     OW99378  13.077   4.272  11.810
99182SOL    HW199379  13.034   4.297  11.891
99182SOL    HW299380  13.019   4.304  11.741
99183SOL     OW99381   6.512   9.144   1.522
99183SOL    HW199382   6.528   9.148   1.616
99183SOL    HW299383   6.537   9.230   1.489
99184SOL     OW99384  14.191   3.999   7.235
99184SOL    HW199385  14.201   3.991   7.330
99184SOL    HW299386  14.274   4.034   7.204
99185SOL     OW99387   4.871   0.166   3.213
99185SOL    HW199388   4.957   0.206   3.224
99185SOL    HW299389   4.857   0.165   3.118
99186SOL     OW99390   2.480   6.740   3.259
99186SOL    HW199391   2.461   6.785   3.341
99186SOL    HW299392   2.570   6.709   3.269
99187SOL     OW99393  13.731  13.256   3.982
99187SOL    HW199394  13.670  13.253   4.056
99187SOL    HW299395  13.710  13.178   3.931
99188SOL     OW99396  12.596   5.961   7.936
99188SOL    HW199397  12.501   5.958   7.950
99188SOL    HW299398  12.626   5.871   7.952
99189SOL     OW99399  11.082  14.369   0.672
99189SOL    HW199400  11.037  14.444   0.634
99189SOL    HW299401  11.068  14.298   0.610
99190SOL     OW99402  11.999   4.988   5.282
99190SOL    HW199403  12.022   5.060   5.222
99190SOL    HW299404  12.002   4.910   5.227
99191SOL     OW99405   2.357  14.732  10.079
99191SOL    HW199406   2.281  14.789  10.090
99191SOL    HW299407   2.377  14.736   9.986
99192SOL     OW99408   4.616  12.642  12.197
99192SOL    HW199409   4.556  12.569  12.184
99192SOL    HW299410   4.677  12.637  12.123
99193SOL     OW99411  10.740  11.132   9.232
99193SOL    HW199412  10.733  11.164   9.142
99193SOL    HW299413  10.835  11.126   9.248
99194SOL     OW99414  10.085  10.980   5.722
99194SOL    HW199415  10.098  10.895   5.679
99194SOL    HW299416  10.012  10.964   5.782
99195SOL     OW99417  13.553   7.335   5.666
99195SOL    HW199418  13.479   7.387   5.698
99195SOL    HW299419  13.596   7.392   5.602
99196SOL     OW99420   8.134   3.650   7.400
99196SOL    HW199421   8.199   3.713   7.432
99196SOL    HW299422   8.098   3.610   7.479
99197SOL     OW99423   3.248   3.122   1.763
99197SOL    HW199424   3.266   3.153   1.851
99197SOL    HW299425   3.312   3.168   1.708
99198SOL     OW99426   6.405   9.258   1.010
99198SOL    HW199427   6.447   9.328   1.061
99198SOL    HW299428   6.369   9.304   0.933
99199SOL     OW99429   9.830  13.631  10.179
99199SOL    HW199430   9.862  13.545  10.207
99199SOL    HW299431   9.772  13.612  10.105
99200SOL     OW99432   7.124  12.158   3.094
99200SOL    HW199433   7.056  12.094   3.075
99200SOL    HW299434   7.076  12.235   3.126
99201SOL     OW99435   8.484   0.405   8.318
99201SOL    HW199436   8.456   0.320   8.350
99201SOL    HW299437   8.404   0.444   8.280
99202SOL     OW99438   2.493   5.613   2.311
99202SOL    HW199439   2.578   5.577   2.338
99202SOL    HW299440   2.515   5.693   2.263
99203SOL     OW99441  10.670  12.952  12.447
99203SOL    HW199442  10.683  12.858  12.460
99203SOL    HW299443  10.595  12.957  12.387
99204SOL     OW99444  14.854   0.201   9.948
99204SOL    HW199445  14.879   0.277  10.000
99204SOL    HW299446   0.035   0.204   9.873
99205SOL     OW99447  11.110   8.826   1.141
99205SOL    HW199448  11.076   8.747   1.183
99205SOL    HW299449  11.087   8.817   1.049
99206SOL     OW99450   5.015   9.894   1.415
99206SOL    HW199451   4.963   9.973   1.403
99206SOL    HW299452   4.956   9.832   1.459
99207SOL     OW99453  13.989  12.772   3.266
99207SOL    HW199454  13.907  12.732   3.297
99207SOL    HW299455  14.058  12.713   3.297
99208SOL     OW99456   7.435   2.538  14.409
99208SOL    HW199457   7.519   2.569  14.375
99208SOL    HW299458   7.450   2.529  14.504
99209SOL     OW99459   9.022  12.638  13.838
99209SOL    HW199460   8.933  12.630  13.803
99209SOL    HW299461   9.023  12.581  13.914
99210SOL     OW99462   0.176   3.922  13.365
99210SOL    HW199463   0.236   3.994  13.345
99210SOL    HW299464   0.091   3.965  13.382
99211SOL     OW99465   9.143   0.718  10.943
99211SOL    HW199466   9.053   0.699  10.967
99211SOL    HW299467   9.145   0.707  10.848
99212SOL     OW99468   7.630  12.598   5.096
99212SOL    HW199469   7.725  12.600   5.106
99212SOL    HW299470   7.596  12.612   5.185
99213SOL     OW99471   6.015  14.443  10.012
99213SOL    HW199472   5.926  14.410  10.027
99213SOL    HW299473   6.019  14.523  10.065
99214SOL     OW99474  10.532   8.880   4.673
99214SOL    HW199475  10.554   8.814   4.607
99214SOL    HW299476  10.438   8.891   4.666
99215SOL     OW99477  10.541   4.931  13.919
99215SOL    HW199478  10.591   4.949  13.999
99215SOL    HW299479  10.592   4.863  13.874
99216SOL     OW99480   8.713   0.201   7.506
99216SOL    HW199481   8.762   0.283   7.497
99216SOL    HW299482   8.706   0.187   7.600
99217SOL     OW99483  11.942   6.930  10.086
99217SOL    HW199484  11.940   6.861  10.152
99217SOL    HW299485  12.017   6.984  10.110
99218SOL     OW99486   4.745   7.605  10.143
99218SOL    HW199487   4.826   7.573  10.184
99218SOL    HW299488   4.773   7.679  10.090
99219SOL     OW99489   1.088  13.452   2.335
99219SOL    HW199490   1.112  13.469   2.244
99219SOL    HW299491   1.135  13.519   2.384
99220SOL     OW99492   2.421   9.725   0.046
99220SOL    HW199493   2.495   9.701  14.870
99220SOL    HW299494   2.345   9.691  14.878
99221SOL     OW99495  12.755   4.245   9.334
99221SOL    HW199496  12.804   4.236   9.252
99221SOL    HW299497  12.765   4.160   9.377
99222SOL     OW99498   4.992  14.630  14.387
99222SOL    HW199499   5.030  14.587  14.463
99222SOL    HW299500   4.929  14.567  14.353
99223SOL     OW99501   4.780   0.797   2.193
99223SOL    HW199502   4.842   0.724   2.196
99223SOL    HW299503   4.793   0.837   2.107
99224SOL     OW99504   6.569   9.518  12.022
99224SOL    HW199505   6.480   9.549  12.043
99224SOL    HW299506   6.596   9.575  11.950
99225SOL     OW99507   7.368  10.726   6.321
99225SOL    HW199508   7.363  10.802   6.263
99225SOL    HW299509   7.328  10.655   6.272
99226SOL     OW99510   2.727  10.927  10.977
99226SOL    HW199511   2.653  10.872  10.951
99226SOL    HW299512   2.781  10.935  10.898
99227SOL     OW99513   3.443   0.109  11.774
99227SOL    HW199514   3.442   0.125  11.868
99227SOL    HW299515   3.527   0.065  11.758
99228SOL     OW99516  13.328  12.263   8.068
99228SOL    HW199517  13.355  12.345   8.110
99228SOL    HW299518  13.247  12.285   8.022
99229SOL     OW99519  12.092  11.586   5.498
99229SOL    HW199520  12.101  11.516   5.562
99229SOL    HW299521  12.153  11.563   5.428
99230SOL     OW99522   9.806   4.663   2.196
99230SOL    HW199523   9.832   4.645   2.106
99230SOL    HW299524   9.873   4.620   2.249
99231SOL     OW99525  12.544   6.886  12.046
99231SOL    HW199526  12.605   6.899  11.974
99231SOL    HW299527  12.581   6.814  12.096
99232SOL     OW99528  13.706   7.469   3.189
99232SOL    HW199529  13.698   7.376   3.168
99232SOL    HW299530  13.777   7.473   3.253
99233SOL     OW99531   5.242   1.222   9.840
99233SOL    HW199532   5.193   1.279   9.899
99233SOL    HW299533   5.327   1.212   9.881
99234SOL     OW99534   9.034   0.148  12.203
99234SOL    HW199535   8.952   0.156  12.251
99234SOL    HW299536   9.084   0.081  12.250
99235SOL     OW99537   1.342  14.143   2.653
99235SOL    HW199538   1.390  14.069   2.616
99235SOL    HW299539   1.366  14.218   2.599
99236SOL     OW99540   4.784   4.058   9.621
99236SOL    HW199541   4.774   4.113   9.699
99236SOL    HW299542   4.788   4.120   9.548
99237SOL     OW99543  13.884   5.351  10.725
99237SOL    HW199544  13.926   5.376  10.643
99237SOL    HW299545  13.934   5.396  10.792
99238SOL     OW99546   0.176   9.857   3.475
99238SOL    HW199547   0.086   9.886   3.461
99238SOL    HW299548   0.213   9.920   3.537
99239SOL     OW99549   4.229  10.038   7.597
99239SOL    HW199550   4.261  10.022   7.508
99239SOL    HW299551   4.301  10.012   7.654
99240SOL     OW99552  10.514  13.889  10.721
99240SOL    HW199553  10.502  13.823  10.789
99240SOL    HW299554  10.461  13.964  10.749
99241SOL     OW99555  14.267   8.082  10.273
99241SOL    HW199556  14.275   8.051  10.363
99241SOL    HW299557  14.297   8.009  10.219
99242SOL     OW99558   8.591   3.607  10.440
99242SOL    HW199559   8.575   3.594  10.347
99242SOL    HW299560   8.504   3.623  10.478
99243SOL     OW99561   5.300   6.108   0.889
99243SOL    HW199562   5.324   6.156   0.810
99243SOL    HW299563   5.219   6.150   0.920
99244SOL     OW99564   6.879   8.595   4.841
99244SOL    HW199565   6.941   8.668   4.845
99244SOL    HW299566   6.799   8.633   4.804
99245SOL     OW99567  14.588   3.119   2.064
99245SOL    HW199568  14.595   3.197   2.008
99245SOL    HW299569  14.626   3.147   2.148
99246SOL     OW99570   8.051  10.921   6.860
99246SOL    HW199571   7.961  10.911   6.889
99246SOL    HW299572   8.050  10.999   6.804
99247SOL     OW99573   9.847   3.344   8.075
99247SOL    HW199574   9.899   3.422   8.058
99247SOL    HW299575   9.909   3.283   8.116
99248SOL     OW99576  14.421   3.284   2.454
99248SOL    HW199577  14.460   3.295   2.541
99248SOL    HW299578  14.477   3.336   2.396
99249SOL     OW99579  11.993   4.368   7.551
99249SOL    HW199580  11.922   4.309   7.576
99249SOL    HW299581  11.951   4.439   7.503
99250SOL     OW99582  13.668   4.972   6.618
99250SOL    HW199583  13.592   4.954   6.673
99250SOL    HW299584  13.729   4.900   6.639
99251SOL     OW99585  11.521   2.806   0.532
99251SOL    HW199586  11.572   2.848   0.462
99251SOL    HW299587  11.503   2.718   0.499
99252SOL     OW99588  11.197   8.729   2.900
99252SOL    HW199589  11.111   8.718   2.941
99252SOL    HW299590  11.217   8.642   2.865
99253SOL     OW99591   6.799   7.463  14.759
99253SOL    HW199592   6.827   7.390  14.704
99253SOL    HW299593   6.815   7.541  14.705
99254SOL     OW99594  10.045   5.240   7.006
99254SOL    HW199595   9.970   5.256   6.948
99254SOL    HW299596  10.032   5.301   7.079
99255SOL     OW99597   5.536   4.434  10.788
99255SOL    HW199598   5.506   4.406  10.701
99255SOL    HW299599   5.456   4.455  10.836
99256SOL     OW99600   7.946   3.036   6.393
99256SOL    HW199601   7.898   3.109   6.353
99256SOL    HW299602   8.032   3.038   6.353
99257SOL     OW99603   9.890   5.056   6.603
99257SOL    HW199604   9.980   5.024   6.607
99257SOL    HW299605   9.836   4.979   6.621
99258SOL     OW99606   5.411  14.020   8.272
99258SOL    HW199607   5.345  13.959   8.240
99258SOL    HW299608   5.379  14.047   8.358
99259SOL     OW99609  11.564   7.200   4.673
99259SOL    HW199610  11.595   7.232   4.588
99259SOL    HW299611  11.566   7.105   4.666
99260SOL     OW99612  10.966   7.626   2.539
99260SOL    HW199613  10.952   7.598   2.630
99260SOL    HW299614  10.945   7.719   2.539
99261SOL     OW99615  10.006   2.132  14.566
99261SOL    HW199616  10.086   2.152  14.518
99261SOL    HW299617   9.937   2.134  14.500
99262SOL     OW99618   2.956   1.510  13.682
99262SOL    HW199619   3.017   1.576  13.649
99262SOL    HW299620   2.874   1.529  13.636
99263SOL     OW99621   9.978   3.422  10.272
99263SOL    HW199622   9.949   3.350  10.216
99263SOL    HW299623   9.897   3.463  10.301
99264SOL     OW99624   5.466  10.129  11.431
99264SOL    HW199625   5.417  10.192  11.378
99264SOL    HW299626   5.487  10.177  11.511
99265SOL     OW99627   4.611   5.658   9.930
99265SOL    HW199628   4.620   5.750   9.904
99265SOL    HW299629   4.520   5.650   9.958
99266SOL     OW99630   2.539   8.252  10.937
99266SOL    HW199631   2.587   8.183  10.891
99266SOL    HW299632   2.462   8.268  10.882
99267SOL     OW99633   7.992   1.492  10.484
99267SOL    HW199634   8.008   1.508  10.578
99267SOL    HW299635   8.029   1.569  10.441
99268SOL     OW99636  13.909  10.293   1.216
99268SOL    HW199637  13.944  10.366   1.166
99268SOL    HW299638  13.913  10.323   1.307
99269SOL     OW99639   7.129   5.963   1.219
99269SOL    HW199640   7.107   6.020   1.145
99269SOL    HW299641   7.195   5.903   1.184
99270SOL     OW99642  10.646   4.561   2.092
99270SOL    HW199643  10.660   4.467   2.091
99270SOL    HW299644  10.554   4.572   2.069
99271SOL     OW99645  11.520  10.851   3.194
99271SOL    HW199646  11.548  10.822   3.107
99271SOL    HW299647  11.599  10.844   3.248
99272SOL     OW99648   5.548   4.181  13.747
99272SOL    HW199649   5.600   4.255  13.717
99272SOL    HW299650   5.460   4.198  13.713
99273SOL     OW99651  10.272   8.057  11.801
99273SOL    HW199652  10.213   7.989  11.835
99273SOL    HW299653  10.238   8.076  11.714
99274SOL     OW99654  10.714   2.174   2.075
99274SOL    HW199655  10.796   2.205   2.037
99274SOL    HW299656  10.718   2.200   2.167
99275SOL     OW99657  10.348   4.759   2.365
99275SOL    HW199658  10.269   4.763   2.311
99275SOL    HW299659  10.352   4.668   2.395
99276SOL     OW99660   0.589  13.592   0.866
99276SOL    HW199661   0.588  13.593   0.962
99276SOL    HW299662   0.498  13.604   0.841
99277SOL     OW99663  10.615   9.365  13.636
99277SOL    HW199664  10.675   9.291  13.646
99277SOL    HW299665  10.648   9.412  13.559
99278SOL     OW99666  12.601   9.430   5.826
99278SOL    HW199667  12.675   9.393   5.779
99278SOL    HW299668  12.562   9.493   5.766
99279SOL     OW99669   9.632   1.238   7.563
99279SOL    HW199670   9.664   1.160   7.608
99279SOL    HW299671   9.711   1.285   7.539
99280SOL     OW99672   3.763   7.308  10.940
99280SOL    HW199673   3.716   7.257  10.874
99280SOL    HW299674   3.795   7.243  11.003
99281SOL     OW99675   3.518  13.491  10.325
99281SOL    HW199676   3.579  13.515  10.255
99281SOL    HW299677   3.458  13.565  10.332
99282SOL     OW99678   6.954   8.077   1.146
99282SOL    HW199679   7.040   8.102   1.113
99282SOL    HW299680   6.936   7.992   1.106
99283SOL     OW99681  10.558   3.735   8.450
99283SOL    HW199682  10.468   3.761   8.431
99283SOL    HW299683  10.562   3.642   8.426
99284SOL     OW99684   8.574  13.831  10.928
99284SOL    HW199685   8.569  13.770  10.854
99284SOL    HW299686   8.498  13.810  10.982
99285SOL     OW99687   3.880  10.652   0.345
99285SOL    HW199688   3.914  10.677   0.431
99285SOL    HW299689   3.788  10.631   0.361
99286SOL     OW99690  13.037  10.000   0.059
99286SOL    HW199691  13.093   9.930   0.025
99286SOL    HW299692  13.038  10.067  14.869
99287SOL     OW99693   4.486   4.772   9.927
99287SOL    HW199694   4.439   4.743  10.005
99287SOL    HW299695   4.465   4.865   9.919
99288SOL     OW99696   2.231  13.945   6.021
99288SOL    HW199697   2.321  13.918   6.039
99288SOL    HW299698   2.239  14.007   5.948
99289SOL     OW99699   8.307   3.995  11.473
99289SOL    HW199700   8.388   4.012  11.425
99289SOL    HW299701   8.238   3.999  11.407
99290SOL     OW99702   9.952  14.207  14.544
99290SOL    HW199703   9.942  14.222  14.450
99290SOL    HW299704   9.976  14.292  14.580
99291SOL     OW99705   6.082   5.354  14.056
99291SOL    HW199706   6.012   5.317  14.002
99291SOL    HW299707   6.142   5.394  13.993
99292SOL     OW99708   7.383   3.094   8.061
99292SOL    HW199709   7.359   3.184   8.040
99292SOL    HW299710   7.415   3.099   8.151
99293SOL     OW99711   0.114   7.566   4.948
99293SOL    HW199712   0.076   7.488   4.988
99293SOL    HW299713   0.208   7.558   4.964
99294SOL     OW99714   3.525   4.005   6.039
99294SOL    HW199715   3.469   4.031   5.966
99294SOL    HW299716   3.469   4.014   6.116
99295SOL     OW99717   7.707  13.396  14.360
99295SOL    HW199718   7.796  13.410  14.327
99295SOL    HW299719   7.718  13.384  14.454
99296SOL     OW99720   9.510   9.923  10.172
99296SOL    HW199721   9.475   9.890  10.255
99296SOL    HW299722   9.439   9.908  10.109
99297SOL     OW99723  11.056   9.331   8.089
99297SOL    HW199724  11.139   9.292   8.062
99297SOL    HW299725  11.047   9.409   8.035
99298SOL     OW99726   6.185   3.060   3.708
99298SOL    HW199727   6.169   3.152   3.727
99298SOL    HW299728   6.240   3.030   3.781
99299SOL     OW99729   9.708  12.991   5.810
99299SOL    HW199730   9.668  13.061   5.862
99299SOL    HW299731   9.776  12.955   5.867
99300SOL     OW99732  14.098   5.540   1.453
99300SOL    HW199733  14.124   5.607   1.516
99300SOL    HW299734  14.051   5.474   1.505
99301SOL     OW99735  13.185   1.761   6.815
99301SOL    HW199736  13.200   1.719   6.730
99301SOL    HW299737  13.117   1.708   6.856
99302SOL     OW99738  11.990   7.230   5.193
99302SOL    HW199739  12.020   7.149   5.235
99302SOL    HW299740  12.070   7.271   5.161
99303SOL     OW99741   8.632   0.614   4.130
99303SOL    HW199742   8.606   0.700   4.164
99303SOL    HW299743   8.700   0.585   4.191
99304SOL     OW99744   8.805  13.316   6.525
99304SOL    HW199745   8.837  13.347   6.609
99304SOL    HW299746   8.786  13.224   6.539
99305SOL     OW99747   8.531   7.910  12.995
99305SOL    HW199748   8.436   7.905  12.988
99305SOL    HW299749   8.549   8.001  13.015
99306SOL     OW99750  12.262   8.736  13.947
99306SOL    HW199751  12.219   8.742  14.033
99306SOL    HW299752  12.302   8.649  13.947
99307SOL     OW99753   7.972  10.563   0.904
99307SOL    HW199754   7.906  10.511   0.856
99307SOL    HW299755   7.963  10.651   0.868
99308SOL     OW99756   0.927   5.680  12.822
99308SOL    HW199757   0.963   5.677  12.733
99308SOL    HW299758   0.987   5.736  12.871
99309SOL     OW99759   4.089   0.789  12.510
99309SOL    HW199760   4.127   0.831  12.433
99309SOL    HW299761   4.066   0.861  12.569
99310SOL     OW99762  10.791   2.430   8.646
99310SOL    HW199763  10.745   2.513   8.645
99310SOL    HW299764  10.875   2.448   8.604
99311SOL     OW99765   9.457   1.079  10.275
99311SOL    HW199766   9.395   1.106  10.343
99311SOL    HW299767   9.463   0.984  10.285
99312SOL     OW99768  10.380  14.737   0.768
99312SOL    HW199769  10.392  14.805   0.702
99312SOL    HW299770  10.356  14.784   0.847
99313SOL     OW99771   3.369   6.519   6.681
99313SOL    HW199772   3.306   6.556   6.620
99313SOL    HW299773   3.414   6.451   6.631
99314SOL     OW99774   1.411  11.203   1.177
99314SOL    HW199775   1.485  11.210   1.116
99314SOL    HW299776   1.334  11.196   1.121
99315SOL     OW99777   8.231   8.754  13.391
99315SOL    HW199778   8.242   8.710  13.307
99315SOL    HW299779   8.166   8.822  13.374
99316SOL     OW99780   0.177  11.767  14.824
99316SOL    HW199781   0.207  11.687  14.781
99316SOL    HW299782   0.256  11.820  14.834
99317SOL     OW99783   9.404  11.086   5.069
99317SOL    HW199784   9.491  11.073   5.108
99317SOL    HW299785   9.390  11.008   5.016
99318SOL     OW99786   0.887   1.120   7.312
99318SOL    HW199787   0.809   1.161   7.348
99318SOL    HW299788   0.898   1.161   7.226
99319SOL     OW99789   6.446  10.038   9.239
99319SOL    HW199790   6.450   9.952   9.198
99319SOL    HW299791   6.436  10.099   9.166
99320SOL     OW99792   3.426   6.449   0.803
99320SOL    HW199793   3.512   6.414   0.825
99320SOL    HW299794   3.435   6.544   0.810
99321SOL     OW99795   9.560  13.465   3.275
99321SOL    HW199796   9.491  13.445   3.338
99321SOL    HW299797   9.628  13.400   3.292
99322SOL     OW99798  14.246  10.651   4.244
99322SOL    HW199799  14.333  10.615   4.227
99322SOL    HW299800  14.186  10.581   4.220
99323SOL     OW99801   8.665   4.576   2.558
99323SOL    HW199802   8.758   4.586   2.535
99323SOL    HW299803   8.667   4.538   2.647
99324SOL     OW99804  14.087   5.041   6.377
99324SOL    HW199805  14.025   4.976   6.343
99324SOL    HW299806  14.039   5.123   6.377
99325SOL     OW99807  10.941   0.617   6.201
99325SOL    HW199808  10.914   0.568   6.124
99325SOL    HW299809  11.033   0.637   6.186
99326SOL     OW99810   1.159  11.142  14.498
99326SOL    HW199811   1.163  11.237  14.506
99326SOL    HW299812   1.251  11.116  14.490
99327SOL     OW99813   7.328   6.622   5.672
99327SOL    HW199814   7.292   6.664   5.594
99327SOL    HW299815   7.423   6.628   5.662
99328SOL     OW99816   4.729   8.741   5.052
99328SOL    HW199817   4.655   8.726   4.992
99328SOL    HW299818   4.803   8.698   5.010
99329SOL     OW99819   5.100   4.117   9.817
99329SOL    HW199820   5.041   4.049   9.848
99329SOL    HW299821   5.152   4.075   9.749
99330SOL     OW99822   3.767   0.432  12.858
99330SOL    HW199823   3.835   0.493  12.886
99330SOL    HW299824   3.718   0.412  12.938
99331SOL     OW99825  11.303   1.127   1.410
99331SOL    HW199826  11.316   1.222   1.403
99331SOL    HW299827  11.342   1.092   1.330
99332SOL     OW99828  11.305  12.556   9.518
99332SOL    HW199829  11.396  12.586   9.507
99332SOL    HW299830  11.277  12.533   9.430
99333SOL     OW99831   0.345   7.164   4.938
99333SOL    HW199832   0.335   7.069   4.927
99333SOL    HW299833   0.421   7.173   4.996
99334SOL     OW99834   7.512   4.022   5.318
99334SOL    HW199835   7.601   4.031   5.353
99334SOL    HW299836   7.472   3.955   5.373
99335SOL     OW99837   0.585   1.562  14.189
99335SOL    HW199838   0.510   1.617  14.212
99335SOL    HW299839   0.573   1.482  14.241
99336SOL     OW99840   9.704   3.616  14.108
99336SOL    HW199841   9.653   3.594  14.030
99336SOL    HW299842   9.681   3.707  14.127
99337SOL     OW99843   8.905   0.905  14.227
99337SOL    HW199844   8.961   0.983  14.229
99337SOL    HW299845   8.826   0.933  14.180
99338SOL     OW99846   7.895   6.668   8.951
99338SOL    HW199847   7.801   6.651   8.938
99338SOL    HW299848   7.922   6.603   9.015
99339SOL     OW99849  13.223   3.431  10.250
99339SOL    HW199850  13.241   3.398  10.161
99339SOL    HW299851  13.199   3.522  10.237
99340SOL     OW99852  13.707   5.477  14.781
99340SOL    HW199853  13.781   5.458  14.724
99340SOL    HW299854  13.732   5.441  14.866
99341SOL     OW99855  13.059   7.254  11.746
99341SOL    HW199856  13.151   7.227  11.741
99341SOL    HW299857  13.061   7.349  11.735
99342SOL     OW99858   1.154  10.278   8.877
99342SOL    HW199859   1.180  10.368   8.897
99342SOL    HW299860   1.101  10.286   8.798
99343SOL     OW99861   2.159   6.039   0.834
99343SOL    HW199862   2.131   5.969   0.893
99343SOL    HW299863   2.246   6.012   0.803
99344SOL     OW99864   7.154  11.135  14.733
99344SOL    HW199865   7.248  11.124  14.720
99344SOL    HW299866   7.127  11.056  14.780
99345SOL     OW99867   4.378   8.163   6.051
99345SOL    HW199868   4.434   8.152   6.127
99345SOL    HW299869   4.290   8.174   6.087
99346SOL     OW99870   2.489   3.017   8.003
99346SOL    HW199871   2.497   3.105   8.040
99346SOL    HW299872   2.394   3.002   7.999
99347SOL     OW99873  11.172   3.943  11.777
99347SOL    HW199874  11.079   3.934  11.799
99347SOL    HW299875  11.173   3.958  11.682
99348SOL     OW99876  11.255  13.278   5.019
99348SOL    HW199877  11.263  13.281   5.114
99348SOL    HW299878  11.315  13.209   4.991
99349SOL     OW99879   6.982   1.902   0.578
99349SOL    HW199880   6.914   1.952   0.623
99349SOL    HW299881   7.064   1.930   0.619
99350SOL     OW99882   0.610  10.652  14.644
99350SOL    HW199883   0.679  10.689  14.589
99350SOL    HW299884   0.625  10.558  14.642
99351SOL     OW99885  13.574  14.230   5.704
99351SOL    HW199886  13.517  14.184   5.642
99351SOL    HW299887  13.523  14.233   5.785
99352SOL     OW99888   0.767   6.695   7.841
99352SOL    HW199889   0.788   6.687   7.748
99352SOL    HW299890   0.673   6.708   7.844
99353SOL     OW99891   9.693   1.341   0.603
99353SOL    HW199892   9.629   1.411   0.597
99353SOL    HW299893   9.767   1.380   0.649
99354SOL     OW99894   8.604  13.201   4.559
99354SOL    HW199895   8.611  13.113   4.597
99354SOL    HW299896   8.627  13.260   4.631
99355SOL     OW99897   1.214   3.518   4.580
99355SOL    HW199898   1.219   3.606   4.542
99355SOL    HW299899   1.125   3.489   4.561
99356SOL     OW99900   3.857   3.506  12.467
99356SOL    HW199901   3.926   3.443  12.489
99356SOL    HW299902   3.882   3.539  12.380
99357SOL     OW99903  12.544  12.380   9.077
99357SOL    HW199904  12.533  12.343   9.164
99357SOL    HW299905  12.638  12.371   9.059
99358SOL     OW99906   6.612  14.866   3.807
99358SOL    HW199907   6.519   0.009   3.809
99358SOL    HW299908   6.644   0.011   3.894
99359SOL     OW99909   2.768   7.771  10.529
99359SOL    HW199910   2.780   7.863  10.504
99359SOL    HW299911   2.845   7.727  10.494
99360SOL     OW99912   0.545  10.676   9.230
99360SOL    HW199913   0.609  10.678   9.301
99360SOL    HW299914   0.593  10.644   9.154
99361SOL     OW99915   3.260   2.513   9.590
99361SOL    HW199916   3.186   2.507   9.651
99361SOL    HW299917   3.289   2.604   9.597
99362SOL     OW99918   6.931  12.893   6.378
99362SOL    HW199919   7.001  12.951   6.349
99362SOL    HW299920   6.942  12.814   6.326
99363SOL     OW99921   3.225   1.142  10.073
99363SOL    HW199922   3.132   1.126  10.057
99363SOL    HW299923   3.244   1.223  10.026
99364SOL     OW99924  12.282   5.159   6.948
99364SOL    HW199925  12.253   5.142   7.037
99364SOL    HW299926  12.329   5.242   6.953
99365SOL     OW99927  12.591   6.845   3.941
99365SOL    HW199928  12.595   6.938   3.921
99365SOL    HW299929  12.564   6.841   4.033
99366SOL     OW99930   6.158   4.734   3.582
99366SOL    HW199931   6.066   4.759   3.578
99366SOL    HW299932   6.174   4.714   3.674
99367SOL     OW99933   2.431  14.322   5.545
99367SOL    HW199934   2.463  14.325   5.455
99367SOL    HW299935   2.409  14.230   5.560
99368SOL     OW99936  10.793   7.007   5.392
99368SOL    HW199937  10.770   7.023   5.483
99368SOL    HW299938  10.730   7.058   5.341
99369SOL     OW99939   7.614  10.326   1.604
99369SOL    HW199940   7.525  10.352   1.579
99369SOL    HW299941   7.611  10.231   1.607
99370SOL     OW99942   1.156  10.824  12.060
99370SOL    HW199943   1.163  10.915  12.030
99370SOL    HW299944   1.243  10.787  12.043
99371SOL     OW99945   0.235   6.111   3.378
99371SOL    HW199946   0.298   6.118   3.306
99371SOL    HW299947   0.254   6.187   3.433
99372SOL     OW99948   6.396   7.875   9.844
99372SOL    HW199949   6.389   7.971   9.843
99372SOL    HW299950   6.491   7.858   9.846
99373SOL     OW99951   8.353   5.837  12.848
99373SOL    HW199952   8.343   5.926  12.883
99373SOL    HW299953   8.354   5.781  12.925
99374SOL     OW99954   6.953   2.576   9.090
99374SOL    HW199955   6.923   2.602   9.003
99374SOL    HW299956   7.033   2.626   9.103
99375SOL     OW99957   5.690   7.134   4.910
99375SOL    HW199958   5.686   7.229   4.914
99375SOL    HW299959   5.686   7.105   5.001
99376SOL     OW99960   7.820  11.973   5.322
99376SOL    HW199961   7.807  11.999   5.231
99376SOL    HW299962   7.892  12.029   5.353
99377SOL     OW99963   9.612   6.453  14.529
99377SOL    HW199964   9.650   6.370  14.558
99377SOL    HW299965   9.589   6.437  14.437
99378SOL     OW99966   6.210   4.118  12.355
99378SOL    HW199967   6.139   4.174  12.385
99378SOL    HW299968   6.190   4.032  12.392
99379SOL     OW99969   4.137  12.554   9.536
99379SOL    HW199970   4.081  12.481   9.512
99379SOL    HW299971   4.209  12.551   9.473
99380SOL     OW99972  10.057   3.962  10.580
99380SOL    HW199973  10.017   3.888  10.534
99380SOL    HW299974  10.064   4.030  10.512
99381SOL     OW99975  11.709   4.524   6.789
99381SOL    HW199976  11.615   4.540   6.777
99381SOL    HW299977  11.727   4.550   6.879
99382SOL     OW99978   3.206   0.578   6.271
99382SOL    HW199979   3.296   0.546   6.274
99382SOL    HW299980   3.184   0.596   6.362
99383SOL     OW99981   0.889   7.704   5.694
99383SOL    HW199982   0.953   7.635   5.678
99383SOL    HW299983   0.922   7.750   5.772
99384SOL     OW99984   9.726   4.244  10.346
99384SOL    HW199985   9.769   4.305  10.286
99384SOL    HW299986   9.724   4.161  10.299
99385SOL     OW99987   3.602   6.860   3.730
99385SOL    HW199988   3.666   6.873   3.800
99385SOL    HW299989   3.622   6.927   3.665
99386SOL     OW99990   7.811   7.791   8.542
99386SOL    HW199991   7.741   7.727   8.529
99386SOL    HW299992   7.855   7.795   8.457
99387SOL     OW99993  10.309   3.147   6.315
99387SOL    HW199994  10.266   3.093   6.248
99387SOL    HW299995  10.334   3.226   6.269
99388SOL     OW99996   6.832   9.865  14.525
99388SOL    HW199997   6.862   9.913  14.448
99388SOL    HW299998   6.817   9.932  14.592
99389SOL     OW99999   4.696   3.326   4.337
99389SOL    HW1    0   4.750   3.376   4.397
99389SOL    HW2    1   4.739   3.241   4.330
99390SOL     OW    2  10.784   0.570   6.433
99390SOL    HW1    3  10.726   0.506   6.394
99390SOL    HW2    4  10.838   0.602   6.360
99391SOL     OW    5   1.092  14.211  14.242
99391SOL    HW1    6   1.145  14.234  14.318
99391SOL    HW2    7   1.114  14.276  14.176
99392SOL     OW    8  13.716   6.594  12.519
99392SOL    HW1    9  13.736   6.536  12.592
99392SOL    HW2   10  13.744   6.547  12.441
99393SOL     OW   11  14.633   3.591   1.211
99393SOL    HW1   12  14.728   3.600   1.208
99393SOL    HW2   13  14.607   3.588   1.119
99394SOL     OW   14   3.717   1.084   3.117
99394SOL    HW1   15   3.703   0.997   3.154
99394SOL    HW2   16   3.800   1.113   3.154
99395SOL     OW   17   6.607   3.974   8.990
99395SOL    HW1   18   6.570   4.014   8.911
99395SOL    HW2   19   6.532   3.958   9.047
99396SOL     OW   20  11.255  13.102   0.731
99396SOL    HW1   21  11.217  13.091   0.644
99396SOL    HW2   22  11.350  13.100   0.716
99397SOL     OW   23  11.210   0.590   8.527
99397SOL    HW1   24  11.131   0.563   8.574
99397SOL    HW2   25  11.178   0.644   8.455
99398SOL     OW   26   9.775   7.714   3.155
99398SOL    HW1   27   9.816   7.796   3.130
99398SOL    HW2   28   9.737   7.680   3.074
99399SOL     OW   29   7.539   0.678   3.013
99399SOL    HW1   30   7.492   0.736   2.953
99399SOL    HW2   31   7.544   0.595   2.966
99400SOL     OW   32  13.024   4.849   3.889
99400SOL    HW1   33  13.038   4.760   3.854
99400SOL    HW2   34  13.060   4.907   3.822
99401SOL     OW   35   2.762   7.971  12.439
99401SOL    HW1   36   2.791   8.048  12.389
99401SOL    HW2   37   2.667   7.975  12.435
99402SOL     OW   38  10.764   3.568  14.717
99402SOL    HW1   39  10.676   3.546  14.750
99402SOL    HW2   40  10.770   3.663  14.729
99403SOL     OW   41   8.829   8.596   5.532
99403SOL    HW1   42   8.798   8.669   5.585
99403SOL    HW2   43   8.792   8.518   5.574
99404SOL     OW   44   6.695   8.779   1.182
99404SOL    HW1   45   6.627   8.827   1.229
99404SOL    HW2   46   6.696   8.819   1.095
99405SOL     OW   47   5.703   2.430   2.039
99405SOL    HW1   48   5.759   2.501   2.071
99405SOL    HW2   49   5.707   2.438   1.944
99406SOL     OW   50  12.008  12.589   4.360
99406SOL    HW1   51  11.916  12.598   4.387
99406SOL    HW2   52  12.057  12.592   4.442
99407SOL     OW   53  12.964  10.330  10.198
99407SOL    HW1   54  12.876  10.328  10.159
99407SOL    HW2   55  12.959  10.400  10.264
99408SOL     OW   56   1.745  13.296  11.076
99408SOL    HW1   57   1.764  13.258  11.162
99408SOL    HW2   58   1.823  13.347  11.054
99409SOL     OW   59  10.714   7.458  12.721
99409SOL    HW1   60  10.645   7.428  12.663
99409SOL    HW2   61  10.675   7.457  12.808
99410SOL     OW   62   2.007  10.119  13.107
99410SOL    HW1   63   2.077  10.056  13.092
99410SOL    HW2   64   2.035  10.198  13.060
99411SOL     OW   65   8.337  14.248   8.535
99411SOL    HW1   66   8.310  14.339   8.541
99411SOL    HW2   67   8.350  14.233   8.441
99412SOL     OW   68   0.227  13.822   2.125
99412SOL    HW1   69   0.276  13.873   2.061
99412SOL    HW2   70   0.256  13.732   2.110
99413SOL     OW   71   3.403   7.521   9.294
99413SOL    HW1   72   3.421   7.434   9.331
99413SOL    HW2   73   3.485   7.569   9.305
99414SOL     OW   74  13.753   6.127  11.711
99414SOL    HW1   75  13.848   6.129  11.701
99414SOL    HW2   76  13.719   6.139  11.622
99415SOL     OW   77   8.012   2.273  13.932
99415SOL    HW1   78   8.069   2.212  13.884
99415SOL    HW2   79   8.070   2.344  13.958
99416SOL     OW   80   0.767   5.518   3.382
99416SOL    HW1   81   0.830   5.588   3.363
99416SOL    HW2   82   0.796   5.482   3.465
99417SOL     OW   83  14.406   8.604   4.921
99417SOL    HW1   84  14.435   8.663   4.852
99417SOL    HW2   85  14.482   8.596   4.979
99418SOL     OW   86   4.945  14.751   1.937
99418SOL    HW1   87   4.865  14.792   1.970
99418SOL    HW2   88   4.921  14.659   1.924
99419SOL     OW   89   6.258   9.439   0.876
99419SOL    HW1   90   6.191   9.399   0.820
99419SOL    HW2   91   6.297   9.508   0.823
99420SOL     OW   92   1.743  10.221   9.273
99420SOL    HW1   93   1.668  10.165   9.293
99420SOL    HW2   94   1.748  10.282   9.347
99421SOL     OW   95  14.204   6.197   5.396
99421SOL    HW1   96  14.232   6.211   5.487
99421SOL    HW2   97  14.226   6.106   5.378
99422SOL     OW   98   0.812  13.233   3.447
99422SOL    HW1   99   0.744  13.276   3.394
99422SOL    HW2  100   0.810  13.142   3.419
99423SOL     OW  101   9.057  11.154  11.389
99423SOL    HW1  102   8.996  11.112  11.328
99423SOL    HW2  103   9.141  11.110  11.373
99424SOL     OW  104  10.998  12.325   4.218
99424SOL    HW1  105  11.018  12.292   4.130
99424SOL    HW2  106  11.055  12.273   4.276
99425SOL     OW  107  12.417  12.555   2.761
99425SOL    HW1  108  12.329  12.585   2.736
99425SOL    HW2  109  12.463  12.544   2.677
99426SOL     OW  110   1.783   4.368   1.313
99426SOL    HW1  111   1.820   4.417   1.386
99426SOL    HW2  112   1.858   4.345   1.258
99427SOL     OW  113  13.707   4.265   2.759
99427SOL    HW1  114  13.692   4.228   2.672
99427SOL    HW2  115  13.765   4.340   2.744
99428SOL     OW  116  10.356  10.467  12.874
99428SOL    HW1  117  10.282  10.410  12.895
99428SOL    HW2  118  10.384  10.440  12.787
99429SOL     OW  119   2.801  12.140  10.544
99429SOL    HW1  120   2.763  12.053  10.558
99429SOL    HW2  121   2.743  12.181  10.479
99430SOL     OW  122   2.720   0.014   8.365
99430SOL    HW1  123   2.703   0.085   8.426
99430SOL    HW2  124   2.690  14.814   8.410
99431SOL     OW  125  11.856   1.537  11.962
99431SOL    HW1  126  11.810   1.612  11.999
99431SOL    HW2  127  11.806   1.461  11.993
99432SOL     OW  128   4.510  13.684   4.419
99432SOL    HW1  129   4.568  13.742   4.369
99432SOL    HW2  130   4.569  13.633   4.474
99433SOL     OW  131  12.921   3.256   6.183
99433SOL    HW1  132  12.981   3.317   6.226
99433SOL    HW2  133  12.847   3.310   6.156
99434SOL     OW  134   9.755  12.290   9.283
99434SOL    HW1  135   9.699  12.368   9.281
99434SOL    HW2  136   9.693  12.217   9.294
99435SOL     OW  137   8.987   8.506   8.717
99435SOL    HW1  138   8.981   8.506   8.813
99435SOL    HW2  139   9.018   8.593   8.695
99436SOL     OW  140   1.718   3.714   1.171
99436SOL    HW1  141   1.633   3.719   1.129
99436SOL    HW2  142   1.776   3.766   1.114
99437SOL     OW  143   6.134  10.316  13.187
99437SOL    HW1  144   6.095  10.368  13.117
99437SOL    HW2  145   6.095  10.352  13.267
99438SOL     OW  146  13.773   7.144  12.772
99438SOL    HW1  147  13.774   7.221  12.828
99438SOL    HW2  148  13.834   7.083  12.814
99439SOL     OW  149  14.263  10.348   9.755
99439SOL    HW1  150  14.266  10.419   9.690
99439SOL    HW2  151  14.267  10.393   9.839
99440SOL     OW  152   1.889   5.355   4.067
99440SOL    HW1  153   1.932   5.419   4.123
99440SOL    HW2  154   1.948   5.279   4.068
99441SOL     OW  155   6.208   7.909   8.282
99441SOL    HW1  156   6.136   7.972   8.287
99441SOL    HW2  157   6.166   7.825   8.266
99442SOL     OW  158   5.252  10.010  12.568
99442SOL    HW1  159   5.229   9.964  12.649
99442SOL    HW2  160   5.194   9.974  12.502
99443SOL     OW  161  12.113  12.697   7.261
99443SOL    HW1  162  12.166  12.636   7.209
99443SOL    HW2  163  12.175  12.736   7.322
99444SOL     OW  164   0.380  13.785   9.793
99444SOL    HW1  165   0.453  13.725   9.810
99444SOL    HW2  166   0.420  13.871   9.786
99445SOL     OW  167  14.829   6.576   3.351
99445SOL    HW1  168  14.792   6.503   3.403
99445SOL    HW2  169  14.812   6.653   3.405
99446SOL     OW  170   0.193  12.417   5.966
99446SOL    HW1  171   0.188  12.365   6.046
99446SOL    HW2  172   0.209  12.354   5.897
99447SOL     OW  173   2.287   3.008   9.407
99447SOL    HW1  174   2.249   3.076   9.463
99447SOL    HW2  175   2.232   2.931   9.421
99448SOL     OW  176  13.430   2.501   5.422
99448SOL    HW1  177  13.474   2.449   5.489
99448SOL    HW2  178  13.341   2.466   5.419
99449SOL     OW  179   7.251   3.348   5.090
99449SOL    HW1  180   7.343   3.327   5.105
99449SOL    HW2  181   7.252   3.416   5.023
99450SOL     OW  182   6.343  11.048  12.390
99450SOL    HW1  183   6.413  11.097  12.347
99450SOL    HW2  184   6.352  10.959  12.357
99451SOL     OW  185   5.356   3.405  10.299
99451SOL    HW1  186   5.301   3.426  10.375
99451SOL    HW2  187   5.433   3.362  10.336
99452SOL     OW  188  11.803   5.577   3.754
99452SOL    HW1  189  11.732   5.555   3.813
99452SOL    HW2  190  11.770   5.556   3.667
99453SOL     OW  191  10.222  10.522   0.655
99453SOL    HW1  192  10.214  10.460   0.727
99453SOL    HW2  193  10.292  10.488   0.600
99454SOL     OW  194   7.308   8.163  13.652
99454SOL    HW1  195   7.283   8.143  13.562
99454SOL    HW2  196   7.224   8.174  13.697
99455SOL     OW  197  14.177   0.419   3.568
99455SOL    HW1  198  14.103   0.368   3.602
99455SOL    HW2  199  14.211   0.366   3.496
99456SOL     OW  200   0.338   0.238   9.867
99456SOL    HW1  201   0.251   0.259   9.832
99456SOL    HW2  202   0.320   0.181   9.942
99457SOL     OW  203   1.366   0.824   6.468
99457SOL    HW1  204   1.368   0.920   6.468
99457SOL    HW2  205   1.421   0.799   6.393
99458SOL     OW  206  11.130   1.031   3.275
99458SOL    HW1  207  11.128   1.099   3.343
99458SOL    HW2  208  11.052   0.978   3.293
99459SOL     OW  209   5.689   2.182   2.190
99459SOL    HW1  210   5.624   2.206   2.255
99459SOL    HW2  211   5.706   2.263   2.141
99460SOL     OW  212   5.591  13.574   2.368
99460SOL    HW1  213   5.552  13.659   2.349
99460SOL    HW2  214   5.677  13.595   2.405
99461SOL     OW  215   2.424  12.832   7.855
99461SOL    HW1  216   2.419  12.914   7.806
99461SOL    HW2  217   2.337  12.821   7.892
99462SOL     OW  218   3.347  13.324   1.417
99462SOL    HW1  219   3.387  13.245   1.381
99462SOL    HW2  220   3.417  13.389   1.417
99463SOL     OW  221  13.924  10.284   4.831
99463SOL    HW1  222  13.982  10.359   4.831
99463SOL    HW2  223  13.979  10.211   4.800
99464SOL     OW  224  10.979   7.545  10.380
99464SOL    HW1  225  10.902   7.566  10.326
99464SOL    HW2  226  11.019   7.469  10.336
99465SOL     OW  227   4.246   3.734   9.984
99465SOL    HW1  228   4.259   3.829   9.994
99465SOL    HW2  229   4.171   3.727   9.924
99466SOL     OW  230   1.485   4.851   4.786
99466SOL    HW1  231   1.521   4.856   4.875
99466SOL    HW2  232   1.391   4.862   4.798
99467SOL     OW  233   0.192   6.164  14.735
99467SOL    HW1  234   0.121   6.100  14.730
99467SOL    HW2  235   0.262   6.120  14.784
99468SOL     OW  236  12.452   7.482   5.235
99468SOL    HW1  237  12.498   7.484   5.319
99468SOL    HW2  238  12.494   7.412   5.186
99469SOL     OW  239  11.349   1.201  13.245
99469SOL    HW1  240  11.440   1.175  13.229
99469SOL    HW2  241  11.335   1.276  13.187
99470SOL     OW  242   2.758   3.047   6.701
99470SOL    HW1  243   2.672   3.064   6.662
99470SOL    HW2  244   2.742   3.046   6.795
99471SOL     OW  245  14.700   7.078   1.843
99471SOL    HW1  246  14.771   7.130   1.879
99471SOL    HW2  247  14.652   7.045   1.919
99472SOL     OW  248  13.477  10.471   0.139
99472SOL    HW1  249  13.399  10.424   0.170
99472SOL    HW2  250  13.549  10.408   0.150
99473SOL     OW  251   4.196   1.840   0.037
99473SOL    HW1  252   4.241   1.907   0.089
99473SOL    HW2  253   4.232   1.849  14.828
99474SOL     OW  254   8.573   0.828  12.648
99474SOL    HW1  255   8.502   0.818  12.712
99474SOL    HW2  256   8.625   0.900  12.682
99475SOL     OW  257  12.044  10.354   1.130
99475SOL    HW1  258  12.119  10.412   1.119
99475SOL    HW2  259  12.000  10.386   1.209
99476SOL     OW  260   5.228  11.295  13.604
99476SOL    HW1  261   5.144  11.326  13.572
99476SOL    HW2  262   5.207  11.221  13.661
99477SOL     OW  263   3.602  10.849   6.629
99477SOL    HW1  264   3.696  10.832   6.623
99477SOL    HW2  265   3.590  10.883   6.717
99478SOL     OW  266  11.831  11.825   7.571
99478SOL    HW1  267  11.897  11.892   7.586
99478SOL    HW2  268  11.756  11.853   7.624
99479SOL     OW  269  13.767   2.797  11.964
99479SOL    HW1  270  13.692   2.741  11.987
99479SOL    HW2  271  13.765   2.868  12.028
99480SOL     OW  272   0.357   6.912   2.746
99480SOL    HW1  273   0.308   6.830   2.752
99480SOL    HW2  274   0.448   6.887   2.763
99481SOL     OW  275  13.618   4.854  14.010
99481SOL    HW1  276  13.551   4.869  14.076
99481SOL    HW2  277  13.598   4.766  13.976
99482SOL     OW  278  13.650   3.372   3.474
99482SOL    HW1  279  13.606   3.338   3.551
99482SOL    HW2  280  13.742   3.351   3.487
99483SOL     OW  281   2.627   3.724  11.240
99483SOL    HW1  282   2.587   3.681  11.165
99483SOL    HW2  283   2.561   3.720  11.309
99484SOL     OW  284   4.664  11.890   6.433
99484SOL    HW1  285   4.663  11.968   6.378
99484SOL    HW2  286   4.730  11.908   6.500
99485SOL     OW  287   7.855  12.076   2.601
99485SOL    HW1  288   7.852  12.005   2.538
99485SOL    HW2  289   7.792  12.140   2.568
99486SOL     OW  290   5.772  11.159   1.157
99486SOL    HW1  291   5.797  11.084   1.212
99486SOL    HW2  292   5.853  11.209   1.147
99487SOL     OW  293  12.245  12.069   5.612
99487SOL    HW1  294  12.339  12.050   5.609
99487SOL    HW2  295  12.204  11.983   5.611
99488SOL     OW  296   7.148   6.103   0.747
99488SOL    HW1  297   7.229   6.083   0.794
99488SOL    HW2  298   7.147   6.041   0.674
99489SOL     OW  299   4.931  11.415   6.983
99489SOL    HW1  300   4.956  11.484   7.045
99489SOL    HW2  301   4.888  11.462   6.911
99490SOL     OW  302  10.731   4.156   3.948
99490SOL    HW1  303  10.819   4.194   3.949
99490SOL    HW2  304  10.729   4.102   3.869
99491SOL     OW  305  13.771  12.509   8.149
99491SOL    HW1  306  13.711  12.566   8.197
99491SOL    HW2  307  13.848  12.564   8.132
99492SOL     OW  308  11.792  10.859   2.194
99492SOL    HW1  309  11.732  10.890   2.125
99492SOL    HW2  310  11.807  10.767   2.173
99493SOL     OW  311   2.824   9.418   9.541
99493SOL    HW1  312   2.730   9.424   9.523
99493SOL    HW2  313   2.846   9.327   9.520
99494SOL     OW  314   7.405   0.238   3.131
99494SOL    HW1  315   7.483   0.242   3.185
99494SOL    HW2  316   7.412   0.155   3.083
99495SOL     OW  317   2.432   5.241  11.080
99495SOL    HW1  318   2.407   5.271  10.992
99495SOL    HW2  319   2.474   5.156  11.065
99496SOL     OW  320   2.181  10.746  12.474
99496SOL    HW1  321   2.198  10.656  12.446
99496SOL    HW2  322   2.247  10.798  12.428
99497SOL     OW  323  14.672   0.832   5.062
99497SOL    HW1  324  14.757   0.804   5.096
99497SOL    HW2  325  14.609   0.774   5.104
99498SOL     OW  326   1.920   7.983  10.951
99498SOL    HW1  327   1.900   7.894  10.980
99498SOL    HW2  328   1.846   8.035  10.981
99499SOL     OW  329   3.335  11.492   4.503
99499SOL    HW1  330   3.313  11.404   4.532
99499SOL    HW2  331   3.286  11.503   4.421
99500SOL     OW  332   9.489   7.253   3.819
99500SOL    HW1  333   9.450   7.190   3.880
99500SOL    HW2  334   9.583   7.240   3.827
99501SOL     OW  335   0.789  10.083   3.056
99501SOL    HW1  336   0.721  10.147   3.077
99501SOL    HW2  337   0.863  10.136   3.027
99502SOL     OW  338   0.218   8.130   2.291
99502SOL    HW1  339   0.260   8.216   2.293
99502SOL    HW2  340   0.279   8.075   2.243
99503SOL     OW  341   7.311  10.023   7.836
99503SOL    HW1  342   7.339   9.982   7.754
99503SOL    HW2  343   7.224   9.987   7.852
99504SOL     OW  344   3.069  11.998   2.560
99504SOL    HW1  345   3.014  11.972   2.486
99504SOL    HW2  346   3.155  11.962   2.539
99505SOL     OW  347  13.162   3.072  10.773
99505SOL    HW1  348  13.120   3.065  10.858
99505SOL    HW2  349  13.229   3.004  10.773
99506SOL     OW  350   6.908  11.514   2.989
99506SOL    HW1  351   6.935  11.505   2.898
99506SOL    HW2  352   6.815  11.491   2.989
99507SOL     OW  353  14.515   6.842   5.731
99507SOL    HW1  354  14.554   6.784   5.796
99507SOL    HW2  355  14.515   6.928   5.773
99508SOL     OW  356  11.626  10.239  13.305
99508SOL    HW1  357  11.553  10.211  13.250
99508SOL    HW2  358  11.585  10.285  13.379
99509SOL     OW  359   0.717   1.536   9.405
99509SOL    HW1  360   0.656   1.467   9.431
99509SOL    HW2  361   0.666   1.617   9.412
99510SOL     OW  362  10.350   9.071   9.876
99510SOL    HW1  363  10.333   9.147   9.822
99510SOL    HW2  364  10.277   9.012   9.859
99511SOL     OW  365   2.217   5.917  11.831
99511SOL    HW1  366   2.207   5.822  11.820
99511SOL    HW2  367   2.306   5.935  11.801
99512SOL     OW  368   6.106   2.406   9.514
99512SOL    HW1  369   6.079   2.417   9.423
99512SOL    HW2  370   6.107   2.495   9.550
99513SOL     OW  371  12.946  12.810   9.698
99513SOL    HW1  372  12.915  12.772   9.781
99513SOL    HW2  373  12.990  12.890   9.724
99514SOL     OW  374  12.744  11.999   3.561
99514SOL    HW1  375  12.815  12.031   3.617
99514SOL    HW2  376  12.746  12.056   3.484
99515SOL     OW  377   0.605  14.390   2.370
99515SOL    HW1  378   0.545  14.442   2.316
99515SOL    HW2  379   0.580  14.299   2.354
99516SOL     OW  380  14.091   2.022   4.318
99516SOL    HW1  381  14.062   1.930   4.313
99516SOL    HW2  382  14.164   2.021   4.379
99517SOL     OW  383  13.977  14.803   0.545
99517SOL    HW1  384  13.885  14.789   0.520
99517SOL    HW2  385  13.985  14.760   0.630
99518SOL     OW  386   2.548   0.320   6.600
99518SOL    HW1  387   2.559   0.272   6.518
99518SOL    HW2  388   2.635   0.321   6.640
99519SOL     OW  389   5.071   3.603  11.253
99519SOL    HW1  390   5.018   3.524  11.240
99519SOL    HW2  391   5.007   3.675  11.248
99520SOL     OW  392   0.832  14.208   5.805
99520SOL    HW1  393   0.888  14.223   5.881
99520SOL    HW2  394   0.754  14.166   5.840
99521SOL     OW  395   8.536  14.566   6.539
99521SOL    HW1  396   8.582  14.503   6.593
99521SOL    HW2  397   8.451  14.525   6.521
99522SOL     OW  398   1.568   9.497   2.493
99522SOL    HW1  399   1.653   9.523   2.456
99522SOL    HW2  400   1.540   9.423   2.439
99523SOL     OW  401  10.373  10.821   7.266
99523SOL    HW1  402  10.383  10.898   7.322
99523SOL    HW2  403  10.403  10.849   7.180
99524SOL     OW  404  13.229   0.018   3.828
99524SOL    HW1  405  13.318   0.053   3.821
99524SOL    HW2  406  13.217  14.879   3.921
99525SOL     OW  407  14.392  13.691  12.999
99525SOL    HW1  408  14.307  13.699  13.041
99525SOL    HW2  409  14.455  13.685  13.071
99526SOL     OW  410   6.499   3.405   1.697
99526SOL    HW1  411   6.574   3.348   1.714
99526SOL    HW2  412   6.504   3.471   1.767
99527SOL     OW  413   2.518   8.872  13.236
99527SOL    HW1  414   2.467   8.822  13.300
99527SOL    HW2  415   2.593   8.815  13.216
99528SOL     OW  416   7.290   3.400   9.442
99528SOL    HW1  417   7.338   3.483   9.451
99528SOL    HW2  418   7.241   3.410   9.360
99529SOL     OW  419   6.381   4.359   7.755
99529SOL    HW1  420   6.316   4.323   7.696
99529SOL    HW2  421   6.454   4.297   7.750
99530SOL     OW  422   8.633   7.893  11.600
99530SOL    HW1  423   8.704   7.835  11.571
99530SOL    HW2  424   8.590   7.921  11.519
99531SOL     OW  425   7.563   0.976  11.191
99531SOL    HW1  426   7.531   0.888  11.213
99531SOL    HW2  427   7.550   1.027  11.271
99532SOL     OW  428  12.742   1.525  13.277
99532SOL    HW1  429  12.754   1.525  13.372
99532SOL    HW2  430  12.736   1.433  13.253
99533SOL     OW  431   3.357   1.166   5.643
99533SOL    HW1  432   3.358   1.144   5.550
99533SOL    HW2  433   3.449   1.171   5.667
99534SOL     OW  434   4.362   2.417   3.204
99534SOL    HW1  435   4.399   2.330   3.217
99534SOL    HW2  436   4.282   2.402   3.154
99535SOL     OW  437   4.478   1.789  10.453
99535SOL    HW1  438   4.397   1.781  10.503
99535SOL    HW2  439   4.491   1.883  10.442
99536SOL     OW  440  10.719   6.949   4.702
99536SOL    HW1  441  10.717   7.035   4.661
99536SOL    HW2  442  10.652   6.898   4.656
99537SOL     OW  443  13.628  12.174   2.456
99537SOL    HW1  444  13.621  12.085   2.422
99537SOL    HW2  445  13.541  12.212   2.444
99538SOL     OW  446  14.624   6.566   1.301
99538SOL    HW1  447  14.663   6.494   1.251
99538SOL    HW2  448  14.627   6.641   1.242
99539SOL     OW  449   9.647   6.879  10.082
99539SOL    HW1  450   9.605   6.904  10.000
99539SOL    HW2  451   9.696   6.800  10.061
99540SOL     OW  452  10.908   7.178  10.082
99540SOL    HW1  453  10.834   7.159  10.140
99540SOL    HW2  454  10.939   7.092  10.056
99541SOL     OW  455   0.225   2.298   2.856
99541SOL    HW1  456   0.210   2.277   2.763
99541SOL    HW2  457   0.252   2.390   2.855
99542SOL     OW  458   9.282  12.259   1.445
99542SOL    HW1  459   9.289  12.280   1.538
99542SOL    HW2  460   9.191  12.277   1.423
99543SOL     OW  461  12.750   9.498   2.919
99543SOL    HW1  462  12.684   9.448   2.870
99543SOL    HW2  463  12.760   9.580   2.870
99544SOL     OW  464   6.027  11.842  13.885
99544SOL    HW1  465   6.017  11.764  13.831
99544SOL    HW2  466   6.095  11.819  13.948
99545SOL     OW  467   4.599   8.031   5.956
99545SOL    HW1  468   4.679   8.076   5.983
99545SOL    HW2  469   4.533   8.100   5.952
99546SOL     OW  470  14.121  10.797   6.133
99546SOL    HW1  471  14.199  10.763   6.178
99546SOL    HW2  472  14.057  10.807   6.203
99547SOL     OW  473  14.280  14.343  10.185
99547SOL    HW1  474  14.325  14.356  10.102
99547SOL    HW2  475  14.347  14.359  10.251
99548SOL     OW  476   6.911   1.185   1.518
99548SOL    HW1  477   6.999   1.186   1.555
99548SOL    HW2  478   6.920   1.137   1.436
99549SOL     OW  479  14.167  10.685  12.678
99549SOL    HW1  480  14.252  10.727  12.690
99549SOL    HW2  481  14.120  10.702  12.759
99550SOL     OW  482   1.797   9.166  12.679
99550SOL    HW1  483   1.744   9.096  12.717
99550SOL    HW2  484   1.869   9.177  12.741
99551SOL     OW  485  14.868   7.092  12.760
99551SOL    HW1  486   0.078   7.057  12.751
99551SOL    HW2  487  14.825   7.031  12.820
99552SOL     OW  488   0.879   2.049  10.555
99552SOL    HW1  489   0.800   2.063  10.607
99552SOL    HW2  490   0.940   2.006  10.614
99553SOL     OW  491   9.252   7.781   1.923
99553SOL    HW1  492   9.276   7.823   1.840
99553SOL    HW2  493   9.322   7.805   1.983
99554SOL     OW  494  11.293   3.755   8.500
99554SOL    HW1  495  11.387   3.764   8.517
99554SOL    HW2  496  11.257   3.841   8.524
99555SOL     OW  497   0.283   6.430   2.354
99555SOL    HW1  498   0.247   6.504   2.305
99555SOL    HW2  499   0.354   6.469   2.405
99556SOL     OW  500  14.058   8.057   3.968
99556SOL    HW1  501  14.001   7.981   3.984
99556SOL    HW2  502  14.025   8.124   4.028
99557SOL     OW  503  11.061   2.182   0.575
99557SOL    HW1  504  11.053   2.105   0.519
99557SOL    HW2  505  11.090   2.252   0.516
99558SOL     OW  506   8.637   9.864  10.125
99558SOL    HW1  507   8.695   9.866  10.201
99558SOL    HW2  508   8.674   9.928  10.064
99559SOL     OW  509  12.957  12.365  11.907
99559SOL    HW1  510  13.037  12.318  11.930
99559SOL    HW2  511  12.908  12.372  11.989
99560SOL     OW  512   6.747   6.736   6.931
99560SOL    HW1  513   6.700   6.707   7.009
99560SOL    HW2  514   6.816   6.794   6.964
99561SOL     OW  515   9.555   3.179  12.134
99561SOL    HW1  516   9.553   3.259  12.081
99561SOL    HW2  517   9.635   3.134  12.106
99562SOL     OW  518  11.952  11.931   1.467
99562SOL    HW1  519  11.899  12.011   1.469
99562SOL    HW2  520  12.042  11.962   1.457
99563SOL     OW  521  10.450   6.733   5.708
99563SOL    HW1  522  10.372   6.789   5.713
99563SOL    HW2  523  10.417   6.645   5.720
99564SOL     OW  524   0.322  10.620  14.644
99564SOL    HW1  525   0.417  10.632  14.651
99564SOL    HW2  526   0.312  10.544  14.586
99565SOL     OW  527   5.474   1.882   2.114
99565SOL    HW1  528   5.553   1.862   2.163
99565SOL    HW2  529   5.418   1.805   2.128
99566SOL     OW  530  12.520   3.952  10.376
99566SOL    HW1  531  12.472   3.988  10.302
99566SOL    HW2  532  12.571   4.026  10.410
99567SOL     OW  533   4.756  13.245  10.425
99567SOL    HW1  534   4.848  13.240  10.450
99567SOL    HW2  535   4.709  13.260  10.507
99568SOL     OW  536  12.531   1.336   2.838
99568SOL    HW1  537  12.515   1.310   2.929
99568SOL    HW2  538  12.610   1.390   2.842
99569SOL     OW  539   5.174   2.925   5.992
99569SOL    HW1  540   5.115   3.000   5.984
99569SOL    HW2  541   5.261   2.961   5.980
99570SOL     OW  542   3.245   2.879  10.411
99570SOL    HW1  543   3.274   2.889  10.320
99570SOL    HW2  544   3.301   2.938  10.460
99571SOL     OW  545   0.445   1.569  10.335
99571SOL    HW1  546   0.421   1.539  10.423
99571SOL    HW2  547   0.436   1.492  10.279
99572SOL     OW  548   6.008  10.861  10.043
99572SOL    HW1  549   6.046  10.824  10.122
99572SOL    HW2  550   6.077  10.855   9.977
99573SOL     OW  551   9.644   3.683   0.051
99573SOL    HW1  552   9.697   3.672   0.130
99573SOL    HW2  553   9.578   3.613   0.057
99574SOL     OW  554   5.089   1.812   9.497
99574SOL    HW1  555   5.101   1.839   9.588
99574SOL    HW2  556   5.040   1.730   9.503
99575SOL     OW  557  13.215   6.036  10.843
99575SOL    HW1  558  13.254   5.949  10.839
99575SOL    HW2  559  13.290   6.096  10.837
99576SOL     OW  560  12.664   9.103   9.945
99576SOL    HW1  561  12.729   9.168   9.921
99576SOL    HW2  562  12.712   9.038   9.995
99577SOL     OW  563   7.943   5.502   0.556
99577SOL    HW1  564   7.922   5.594   0.568
99577SOL    HW2  565   7.988   5.498   0.472
99578SOL     OW  566  11.753  12.605   4.447
99578SOL    HW1  567  11.667  12.639   4.470
99578SOL    HW2  568  11.762  12.524   4.498
99579SOL     OW  569   6.496   0.556  13.782
99579SOL    HW1  570   6.411   0.581  13.748
99579SOL    HW2  571   6.516   0.474  13.737
99580SOL     OW  572  12.751  10.755   8.299
99580SOL    HW1  573  12.774  10.679   8.352
99580SOL    HW2  574  12.674  10.728   8.249
99581SOL     OW  575   7.259   0.299   6.186
99581SOL    HW1  576   7.350   0.306   6.155
99581SOL    HW2  577   7.239   0.206   6.184
99582SOL     OW  578   1.167  12.970  10.522
99582SOL    HW1  579   1.178  12.971  10.427
99582SOL    HW2  580   1.255  12.980  10.556
99583SOL     OW  581  11.297   5.273   3.160
99583SOL    HW1  582  11.332   5.344   3.106
99583SOL    HW2  583  11.329   5.193   3.120
99584SOL     OW  584   3.671  14.039   8.978
99584SOL    HW1  585   3.618  13.990   9.041
99584SOL    HW2  586   3.689  13.977   8.908
99585SOL     OW  587   1.717   4.936   4.663
99585SOL    HW1  588   1.633   4.909   4.701
99585SOL    HW2  589   1.783   4.893   4.717
99586SOL     OW  590   8.023   7.716   4.951
99586SOL    HW1  591   7.962   7.789   4.965
99586SOL    HW2  592   7.990   7.672   4.872
99587SOL     OW  593   3.803   7.036   8.680
99587SOL    HW1  594   3.807   7.114   8.735
99587SOL    HW2  595   3.835   6.965   8.736
99588SOL     OW  596   1.134   7.234   0.902
99588SOL    HW1  597   1.046   7.224   0.866
99588SOL    HW2  598   1.192   7.223   0.827
99589SOL     OW  599   9.283   8.848   9.711
99589SOL    HW1  600   9.303   8.855   9.805
99589SOL    HW2  601   9.341   8.779   9.679
99590SOL     OW  602  14.744   9.545  13.204
99590SOL    HW1  603  14.649   9.540  13.209
99590SOL    HW2  604  14.774   9.522  13.292
99591SOL     OW  605  14.631   9.320   9.374
99591SOL    HW1  606  14.548   9.334   9.328
99591SOL    HW2  607  14.691   9.384   9.336
99592SOL     OW  608   5.646  10.506  12.547
99592SOL    HW1  609   5.634  10.480  12.638
99592SOL    HW2  610   5.558  10.529  12.516
99593SOL     OW  611   3.839   5.139  12.342
99593SOL    HW1  612   3.918   5.193  12.350
99593SOL    HW2  613   3.767   5.197  12.368
99594SOL     OW  614   6.488   7.173   2.814
99594SOL    HW1  615   6.488   7.215   2.728
99594SOL    HW2  616   6.520   7.240   2.874
99595SOL     OW  617  10.764  13.302   7.607
99595SOL    HW1  618  10.745  13.396   7.601
99595SOL    HW2  619  10.784  13.287   7.700
99596SOL     OW  620   1.602   6.253   0.593
99596SOL    HW1  621   1.544   6.327   0.573
99596SOL    HW2  622   1.561   6.179   0.549
99597SOL     OW  623   9.442   9.830   2.527
99597SOL    HW1  624   9.455   9.891   2.600
99597SOL    HW2  625   9.410   9.750   2.567
99598SOL     OW  626   7.263   4.465  13.253
99598SOL    HW1  627   7.347   4.447  13.211
99598SOL    HW2  628   7.198   4.446  13.186
99599SOL     OW  629   0.289   6.758  12.896
99599SOL    HW1  630   0.274   6.813  12.973
99599SOL    HW2  631   0.279   6.669  12.929
99600SOL     OW  632   2.820  12.978   5.086
99600SOL    HW1  633   2.804  13.070   5.109
99600SOL    HW2  634   2.805  12.930   5.167
99601SOL     OW  635  10.855   7.564  12.203
99601SOL    HW1  636  10.827   7.626  12.271
99601SOL    HW2  637  10.931   7.606  12.163
99602SOL     OW  638  14.533   0.827   6.833
99602SOL    HW1  639  14.627   0.834   6.843
99602SOL    HW2  640  14.511   0.886   6.761
99603SOL     OW  641   0.046   6.156   9.850
99603SOL    HW1  642   0.010   6.126   9.934
99603SOL    HW2  643   0.029   6.250   9.848
99604SOL     OW  644  11.915   7.867   3.967
99604SOL    HW1  645  11.927   7.773   3.984
99604SOL    HW2  646  11.845   7.871   3.902
99605SOL     OW  647   3.180   9.372   2.039
99605SOL    HW1  648   3.237   9.449   2.034
99605SOL    HW2  649   3.105   9.394   1.984
99606SOL     OW  650  12.680   9.704   7.978
99606SOL    HW1  651  12.747   9.763   7.945
99606SOL    HW2  652  12.728   9.624   8.001
99607SOL     OW  653   5.373   9.296  14.200
99607SOL    HW1  654   5.391   9.313  14.292
99607SOL    HW2  655   5.456   9.312  14.155
99608SOL     OW  656  11.238   8.074  11.871
99608SOL    HW1  657  11.200   7.989  11.846
99608SOL    HW2  658  11.316   8.052  11.923
99609SOL     OW  659   1.992   0.733   3.118
99609SOL    HW1  660   1.989   0.803   3.053
99609SOL    HW2  661   1.903   0.729   3.153
99610SOL     OW  662   1.572   4.839   5.053
99610SOL    HW1  663   1.497   4.850   5.111
99610SOL    HW2  664   1.631   4.781   5.101
99611SOL     OW  665   2.104   6.756   9.592
99611SOL    HW1  666   2.122   6.793   9.679
99611SOL    HW2  667   2.171   6.796   9.536
99612SOL     OW  668  11.514   9.542  13.580
99612SOL    HW1  669  11.600   9.565  13.615
99612SOL    HW2  670  11.480   9.625  13.545
99613SOL     OW  671   5.933   7.930   7.260
99613SOL    HW1  672   5.981   7.996   7.309
99613SOL    HW2  673   5.857   7.911   7.313
99614SOL     OW  674   3.564   8.327  10.264
99614SOL    HW1  675   3.553   8.334  10.358
99614SOL    HW2  676   3.613   8.405  10.239
99615SOL     OW  677   5.610  10.460  10.684
99615SOL    HW1  678   5.667  10.535  10.699
99615SOL    HW2  679   5.523  10.498  10.673
99616SOL     OW  680   8.621   6.987   8.585
99616SOL    HW1  681   8.708   6.953   8.608
99616SOL    HW2  682   8.630   7.082   8.590
99617SOL     OW  683   9.680  11.714   6.364
99617SOL    HW1  684   9.673  11.731   6.458
99617SOL    HW2  685   9.751  11.772   6.335
99618SOL     OW  686  13.048   7.687   1.941
99618SOL    HW1  687  13.024   7.674   1.850
99618SOL    HW2  688  13.094   7.606   1.966
99619SOL     OW  689  12.103   0.197  13.073
99619SOL    HW1  690  12.086   0.280  13.118
99619SOL    HW2  691  12.064   0.208  12.986
99620SOL     OW  692  13.182  11.862   4.869
99620SOL    HW1  693  13.156  11.782   4.823
99620SOL    HW2  694  13.103  11.892   4.912
99621SOL     OW  695   3.018   6.477   5.604
99621SOL    HW1  696   3.003   6.565   5.640
99621SOL    HW2  697   3.051   6.492   5.516
99622SOL     OW  698   6.660  11.118  14.473
99622SOL    HW1  699   6.718  11.096  14.546
99622SOL    HW2  700   6.718  11.138  14.401
99623SOL     OW  701   9.536  13.767   6.384
99623SOL    HW1  702   9.586  13.781   6.303
99623SOL    HW2  703   9.592  13.803   6.453
99624SOL     OW  704   6.507  10.543  12.684
99624SOL    HW1  705   6.586  10.528  12.632
99624SOL    HW2  706   6.537  10.538  12.775
99625SOL     OW  707  11.843   5.681   3.231
99625SOL    HW1  708  11.911   5.744   3.207
99625SOL    HW2  709  11.847   5.678   3.327
99626SOL     OW  710   0.021   8.003   8.871
99626SOL    HW1  711   0.013   7.947   8.793
99626SOL    HW2  712  14.859   8.085   8.846
99627SOL     OW  713   7.319  11.281   1.695
99627SOL    HW1  714   7.325  11.287   1.790
99627SOL    HW2  715   7.396  11.231   1.670
99628SOL     OW  716  13.546   2.539   2.954
99628SOL    HW1  717  13.623   2.553   2.898
99628SOL    HW2  718  13.572   2.467   3.012
99629SOL     OW  719   6.550   0.444   1.284
99629SOL    HW1  720   6.616   0.376   1.298
99629SOL    HW2  721   6.533   0.442   1.190
99630SOL     OW  722   0.199   0.272  14.056
99630SOL    HW1  723   0.200   0.238  13.966
99630SOL    HW2  724   0.139   0.214  14.103
99631SOL     OW  725   4.859   8.872  13.075
99631SOL    HW1  726   4.775   8.841  13.039
99631SOL    HW2  727   4.925   8.831  13.020
99632SOL     OW  728   6.841   1.327   3.662
99632SOL    HW1  729   6.802   1.258   3.715
99632SOL    HW2  730   6.935   1.314   3.671
99633SOL     OW  731   2.655  14.358   1.029
99633SOL    HW1  732   2.622  14.298   1.096
99633SOL    HW2  733   2.738  14.391   1.064
99634SOL     OW  734   8.376  10.082   0.933
99634SOL    HW1  735   8.464  10.112   0.910
99634SOL    HW2  736   8.353  10.133   1.011
99635SOL     OW  737   7.183   7.727  12.857
99635SOL    HW1  738   7.229   7.645  12.877
99635SOL    HW2  739   7.094   7.713  12.888
99636SOL     OW  740   0.662   4.938  13.340
99636SOL    HW1  741   0.618   4.870  13.391
99636SOL    HW2  742   0.738   4.894  13.301
99637SOL     OW  743   7.468   1.966   6.909
99637SOL    HW1  744   7.427   1.917   6.838
99637SOL    HW2  745   7.523   1.901   6.954
99638SOL     OW  746   6.806  11.135   0.347
99638SOL    HW1  747   6.752  11.201   0.391
99638SOL    HW2  748   6.843  11.083   0.419
99639SOL     OW  749   1.008   4.177  10.487
99639SOL    HW1  750   1.047   4.264  10.499
99639SOL    HW2  751   1.083   4.119  10.473
99640SOL     OW  752  10.117   7.556   3.015
99640SOL    HW1  753  10.054   7.594   2.953
99640SOL    HW2  754  10.186   7.622   3.023
99641SOL     OW  755   9.507   8.384   4.363
99641SOL    HW1  756   9.435   8.323   4.343
99641SOL    HW2  757   9.470   8.444   4.427
99642SOL     OW  758   8.258   8.883  12.397
99642SOL    HW1  759   8.274   8.967  12.440
99642SOL    HW2  760   8.265   8.902  12.304
99643SOL     OW  761   3.263   0.056   5.223
99643SOL    HW1  762   3.274   0.140   5.180
99643SOL    HW2  763   3.349   0.014   5.217
99644SOL     OW  764   7.425   1.138   1.587
99644SOL    HW1  765   7.490   1.122   1.655
99644SOL    HW2  766   7.464   1.204   1.530
99645SOL     OW  767   3.591  13.301   6.901
99645SOL    HW1  768   3.576  13.288   6.807
99645SOL    HW2  769   3.522  13.250   6.944
99646SOL     OW  770  11.748   5.730   5.248
99646SOL    HW1  771  11.662   5.690   5.234
99646SOL    HW2  772  11.808   5.674   5.200
99647SOL     OW  773  11.906   8.200  12.171
99647SOL    HW1  774  11.928   8.269  12.234
99647SOL    HW2  775  11.946   8.229  12.089
99648SOL     OW  776   6.845   6.189  10.372
99648SOL    HW1  777   6.829   6.202  10.279
99648SOL    HW2  778   6.759   6.174  10.410
99649SOL     OW  779   4.588   8.707  10.522
99649SOL    HW1  780   4.568   8.687  10.613
99649SOL    HW2  781   4.509   8.747  10.487
99650SOL     OW  782  10.900   0.198   3.930
99650SOL    HW1  783  10.936   0.109   3.937
99650SOL    HW2  784  10.842   0.194   3.854
99651SOL     OW  785   4.630   0.380   1.802
99651SOL    HW1  786   4.647   0.379   1.896
99651SOL    HW2  787   4.682   0.454   1.770
99652SOL     OW  788   9.962   6.047   4.222
99652SOL    HW1  789  10.022   6.047   4.297
99652SOL    HW2  790   9.884   6.091   4.254
99653SOL     OW  791  14.396   5.111   1.131
99653SOL    HW1  792  14.474   5.165   1.145
99653SOL    HW2  793  14.371   5.127   1.040
99654SOL     OW  794   5.794  14.441   9.164
99654SOL    HW1  795   5.890  14.440   9.161
99654SOL    HW2  796   5.772  14.533   9.180
99655SOL     OW  797   0.653   7.445  12.106
99655SOL    HW1  798   0.717   7.517  12.114
99655SOL    HW2  799   0.576   7.476  12.152
99656SOL     OW  800   5.892   1.779   7.899
99656SOL    HW1  801   5.906   1.848   7.834
99656SOL    HW2  802   5.895   1.698   7.848
99657SOL     OW  803  14.495  10.754   5.681
99657SOL    HW1  804  14.440  10.806   5.739
99657SOL    HW2  805  14.457  10.767   5.594
99658SOL     OW  806   3.554   7.570   5.898
99658SOL    HW1  807   3.642   7.601   5.917
99658SOL    HW2  808   3.558   7.536   5.809
99659SOL     OW  809   9.371   5.963   7.049
99659SOL    HW1  810   9.384   6.050   7.086
99659SOL    HW2  811   9.316   5.978   6.972
99660SOL     OW  812  10.648   1.339  10.565
99660SOL    HW1  813  10.670   1.317  10.656
99660SOL    HW2  814  10.720   1.395  10.536
99661SOL     OW  815   4.138   1.575   3.088
99661SOL    HW1  816   4.062   1.521   3.066
99661SOL    HW2  817   4.214   1.522   3.061
99662SOL     OW  818   3.334   8.650  12.286
99662SOL    HW1  819   3.261   8.624  12.231
99662SOL    HW2  820   3.299   8.718  12.344
99663SOL     OW  821   5.752  14.611  11.045
99663SOL    HW1  822   5.819  14.572  11.101
99663SOL    HW2  823   5.749  14.554  10.969
99664SOL     OW  824   2.320   6.558  14.632
99664SOL    HW1  825   2.332   6.554  14.727
99664SOL    HW2  826   2.327   6.467  14.603
99665SOL     OW  827  12.427   0.589  10.742
99665SOL    HW1  828  12.432   0.564  10.650
99665SOL    HW2  829  12.477   0.671  10.748
99666SOL     OW  830   8.312  11.973   1.142
99666SOL    HW1  831   8.305  11.981   1.237
99666SOL    HW2  832   8.360  12.051   1.114
99667SOL     OW  833   5.072  10.181  13.198
99667SOL    HW1  834   5.060  10.172  13.292
99667SOL    HW2  835   5.167  10.182  13.186
99668SOL     OW  836   9.626   7.511   3.926
99668SOL    HW1  837   9.547   7.513   3.873
99668SOL    HW2  838   9.600   7.549   4.010
99669SOL     OW  839  10.207   0.774  13.396
99669SOL    HW1  840  10.138   0.812  13.341
99669SOL    HW2  841  10.203   0.825  13.476
99670SOL     OW  842   2.453   5.043   9.512
99670SOL    HW1  843   2.518   4.983   9.476
99670SOL    HW2  844   2.489   5.131   9.498
99671SOL     OW  845  11.063   3.665   3.652
99671SOL    HW1  846  11.097   3.577   3.637
99671SOL    HW2  847  11.013   3.686   3.573
99672SOL     OW  848   1.149  12.495   7.336
99672SOL    HW1  849   1.101  12.461   7.411
99672SOL    HW2  850   1.113  12.448   7.261
99673SOL     OW  851   2.053   0.372  12.163
99673SOL    HW1  852   2.085   0.376  12.073
99673SOL    HW2  853   2.003   0.291  12.167
99674SOL     OW  854   2.120   0.537   9.287
99674SOL    HW1  855   2.124   0.447   9.254
99674SOL    HW2  856   2.041   0.573   9.247
99675SOL     OW  857   6.354   3.605  10.564
99675SOL    HW1  858   6.380   3.576  10.651
99675SOL    HW2  859   6.426   3.578  10.507
99676SOL     OW  860  12.312   4.815   9.226
99676SOL    HW1  861  12.327   4.732   9.179
99676SOL    HW2  862  12.287   4.788   9.314
99677SOL     OW  863   3.809   6.916   0.652
99677SOL    HW1  864   3.869   6.905   0.725
99677SOL    HW2  865   3.857   6.883   0.576
99678SOL     OW  866  13.176   7.820   2.860
99678SOL    HW1  867  13.169   7.725   2.876
99678SOL    HW2  868  13.269   7.835   2.849
99679SOL     OW  869   8.436   9.532   8.590
99679SOL    HW1  870   8.351   9.491   8.608
99679SOL    HW2  871   8.474   9.477   8.521
99680SOL     OW  872   8.171   5.218   0.940
99680SOL    HW1  873   8.107   5.159   0.900
99680SOL    HW2  874   8.249   5.165   0.952
99681SOL     OW  875   1.856   2.738   7.583
99681SOL    HW1  876   1.862   2.676   7.511
99681SOL    HW2  877   1.909   2.813   7.555
99682SOL     OW  878  12.101  14.233   1.749
99682SOL    HW1  879  12.115  14.141   1.770
99682SOL    HW2  880  12.022  14.233   1.695
99683SOL     OW  881  12.825   7.434   5.536
99683SOL    HW1  882  12.826   7.463   5.627
99683SOL    HW2  883  12.918   7.433   5.510
99684SOL     OW  884  13.799   3.470  12.864
99684SOL    HW1  885  13.734   3.442  12.927
99684SOL    HW2  886  13.749   3.491  12.785
99685SOL     OW  887   6.486  12.283   7.224
99685SOL    HW1  888   6.550  12.309   7.290
99685SOL    HW2  889   6.466  12.364   7.178
99686SOL     OW  890   9.583  13.331   4.013
99686SOL    HW1  891   9.554  13.257   3.960
99686SOL    HW2  892   9.675  13.313   4.031
99687SOL     OW  893   8.821  14.680   8.140
99687SOL    HW1  894   8.818  14.613   8.209
99687SOL    HW2  895   8.912  14.708   8.139
99688SOL     OW  896   2.308   9.391   0.682
99688SOL    HW1  897   2.309   9.303   0.644
99688SOL    HW2  898   2.276   9.447   0.611
99689SOL     OW  899   9.371   1.491   4.223
99689SOL    HW1  900   9.383   1.411   4.273
99689SOL    HW2  901   9.391   1.466   4.133
99690SOL     OW  902  10.357   7.847   4.319
99690SOL    HW1  903  10.287   7.835   4.255
99690SOL    HW2  904  10.312   7.865   4.401
99691SOL     OW  905   4.722   4.778   4.917
99691SOL    HW1  906   4.654   4.828   4.872
99691SOL    HW2  907   4.751   4.835   4.988
99692SOL     OW  908   3.069   2.175  11.859
99692SOL    HW1  909   3.098   2.111  11.794
99692SOL    HW2  910   2.978   2.193  11.836
99693SOL     OW  911  14.182  10.915  13.618
99693SOL    HW1  912  14.137  10.833  13.639
99693SOL    HW2  913  14.273  10.890  13.605
99694SOL     OW  914  14.567   8.641   1.452
99694SOL    HW1  915  14.516   8.606   1.379
99694SOL    HW2  916  14.656   8.611   1.435
99695SOL     OW  917  13.972   8.058   7.973
99695SOL    HW1  918  14.016   7.994   8.029
99695SOL    HW2  919  14.039   8.081   7.908
99696SOL     OW  920  12.243   8.792  10.408
99696SOL    HW1  921  12.242   8.884  10.435
99696SOL    HW2  922  12.211   8.794  10.317
99697SOL     OW  923  12.787  14.089   8.066
99697SOL    HW1  924  12.765  14.172   8.107
99697SOL    HW2  925  12.722  14.079   7.997
99698SOL     OW  926  12.309   1.525   2.540
99698SOL    HW1  927  12.394   1.481   2.534
99698SOL    HW2  928  12.321   1.606   2.490
99699SOL     OW  929   8.689   2.211   8.817
99699SOL    HW1  930   8.611   2.260   8.790
99699SOL    HW2  931   8.759   2.276   8.818
99700SOL     OW  932   3.174   9.675  10.011
99700SOL    HW1  933   3.205   9.602  10.065
99700SOL    HW2  934   3.247   9.737  10.011
99701SOL     OW  935   6.159  12.668   3.082
99701SOL    HW1  936   6.169  12.630   3.169
99701SOL    HW2  937   6.075  12.712   3.084
99702SOL     OW  938  10.873   6.212  10.015
99702SOL    HW1  939  10.888   6.264   9.935
99702SOL    HW2  940  10.893   6.122   9.989
99703SOL     OW  941   2.686   2.531  10.220
99703SOL    HW1  942   2.600   2.515  10.259
99703SOL    HW2  943   2.732   2.447  10.229
99704SOL     OW  944  13.355   5.836   2.110
99704SOL    HW1  945  13.350   5.798   2.198
99704SOL    HW2  946  13.347   5.930   2.125
99705SOL     OW  947   0.598   1.438   6.356
99705SOL    HW1  948   0.644   1.431   6.440
99705SOL    HW2  949   0.512   1.400   6.372
99706SOL     OW  950  13.715   7.154  10.767
99706SOL    HW1  951  13.736   7.203  10.688
99706SOL    HW2  952  13.657   7.084  10.737
99707SOL     OW  953   2.168   9.950  10.581
99707SOL    HW1  954   2.126   9.911  10.504
99707SOL    HW2  955   2.094   9.976  10.637
99708SOL     OW  956   4.995   0.587   2.991
99708SOL    HW1  957   4.988   0.577   3.086
99708SOL    HW2  958   4.941   0.664   2.972
99709SOL     OW  959  14.208   0.546  11.369
99709SOL    HW1  960  14.127   0.577  11.329
99709SOL    HW2  961  14.273   0.613  11.346
99710SOL     OW  962   8.534   1.922   9.688
99710SOL    HW1  963   8.573   1.946   9.772
99710SOL    HW2  964   8.577   1.979   9.624
99711SOL     OW  965   7.512   5.926   2.744
99711SOL    HW1  966   7.582   5.860   2.738
99711SOL    HW2  967   7.553   6.007   2.714
99712SOL     OW  968  14.862  13.458   5.023
99712SOL    HW1  969   0.038  13.381   5.007
99712SOL    HW2  970  14.789  13.425   5.075
99713SOL     OW  971   6.449   1.326  11.532
99713SOL    HW1  972   6.492   1.254  11.486
99713SOL    HW2  973   6.425   1.388  11.463
99714SOL     OW  974   7.997   6.324   1.291
99714SOL    HW1  975   8.084   6.305   1.325
99714SOL    HW2  976   7.996   6.284   1.204
99715SOL     OW  977  13.447   3.830   0.046
99715SOL    HW1  978  13.459   3.735   0.039
99715SOL    HW2  979  13.476   3.852   0.134
99716SOL     OW  980   6.009  13.277   0.888
99716SOL    HW1  981   6.044  13.235   0.966
99716SOL    HW2  982   5.915  13.284   0.903
99717SOL     OW  983   9.847   3.933  11.855
99717SOL    HW1  984   9.797   3.857  11.886
99717SOL    HW2  985   9.857   3.918  11.761
99718SOL     OW  986   5.258   0.561   7.555
99718SOL    HW1  987   5.253   0.471   7.523
99718SOL    HW2  988   5.339   0.564   7.606
99719SOL     OW  989   9.834   8.570   1.608
99719SOL    HW1  990   9.881   8.498   1.565
99719SOL    HW2  991   9.902   8.631   1.634
99720SOL     OW  992   8.878   0.677  11.023
99720SOL    HW1  993   8.893   0.675  11.118
99720SOL    HW2  994   8.784   0.664  11.013
99721SOL     OW  995  11.063   2.228   1.779
99721SOL    HW1  996  11.152   2.253   1.756
99721SOL    HW2  997  11.035   2.170   1.708
99722SOL     OW  998   8.007  12.403   2.481
99722SOL    HW1  999   7.990  12.350   2.403
99722SOL    HW2 1000   8.004  12.341   2.554
99723SOL     OW 1001   9.232   6.881   4.642
99723SOL    HW1 1002   9.209   6.922   4.725
99723SOL    HW2 1003   9.323   6.905   4.628
99724SOL     OW 1004   2.850   3.000  11.801
99724SOL    HW1 1005   2.841   3.094  11.788
99724SOL    HW2 1006   2.919   2.974  11.741
99725SOL     OW 1007   8.071   5.846  11.942
99725SOL    HW1 1008   8.039   5.933  11.967
99725SOL    HW2 1009   7.991   5.794  11.932
99726SOL     OW 1010   2.987   8.775   3.965
99726SOL    HW1 1011   2.904   8.787   4.012
99726SOL    HW2 1012   3.014   8.864   3.943
99727SOL     OW 1013   5.357   1.491   9.436
99727SOL    HW1 1014   5.267   1.483   9.469
99727SOL    HW2 1015   5.412   1.482   9.514
99728SOL     OW 1016  12.134  13.316   7.794
99728SOL    HW1 1017  12.208  13.376   7.797
99728SOL    HW2 1018  12.126  13.293   7.701
99729SOL     OW 1019   1.972   9.343   8.856
99729SOL    HW1 1020   1.957   9.266   8.911
99729SOL    HW2 1021   1.903   9.404   8.882
99730SOL     OW 1022   6.541  11.441   0.913
99730SOL    HW1 1023   6.569  11.451   1.004
99730SOL    HW2 1024   6.609  11.388   0.872
99731SOL     OW 1025   9.435  12.098   8.685
99731SOL    HW1 1026   9.434  12.002   8.683
99731SOL    HW2 1027   9.434  12.124   8.594
99732SOL     OW 1028  13.606   6.888  13.965
99732SOL    HW1 1029  13.534   6.950  13.959
99732SOL    HW2 1030  13.576   6.812  13.914
99733SOL     OW 1031   1.218   6.132   0.047
99733SOL    HW1 1032   1.197   6.051   0.093
99733SOL    HW2 1033   1.253   6.103  14.841
99734SOL     OW 1034   4.424   1.324  12.216
99734SOL    HW1 1035   4.404   1.296  12.127
99734SOL    HW2 1036   4.405   1.418  12.217
99735SOL     OW 1037   6.792   1.030   6.300
99735SOL    HW1 1038   6.846   0.951   6.292
99735SOL    HW2 1039   6.827   1.091   6.235
99736SOL     OW 1040   2.464  10.379   1.977
99736SOL    HW1 1041   2.471  10.474   1.985
99736SOL    HW2 1042   2.555  10.348   1.981
99737SOL     OW 1043   0.279   4.743   9.601
99737SOL    HW1 1044   0.325   4.770   9.680
99737SOL    HW2 1045   0.321   4.793   9.531
99738SOL     OW 1046   8.165  14.561   5.480
99738SOL    HW1 1047   8.185  14.649   5.448
99738SOL    HW2 1048   8.141  14.512   5.402
99739SOL     OW 1049   7.046   3.968   6.768
99739SOL    HW1 1050   7.127   3.965   6.820
99739SOL    HW2 1051   7.075   3.952   6.678
99740SOL     OW 1052   5.627   8.836   0.202
99740SOL    HW1 1053   5.554   8.785   0.166
99740SOL    HW2 1054   5.643   8.797   0.288
99741SOL     OW 1055   5.358   1.376   2.332
99741SOL    HW1 1056   5.428   1.322   2.294
99741SOL    HW2 1057   5.317   1.319   2.397
99742SOL     OW 1058  13.474   3.808   1.324
99742SOL    HW1 1059  13.554   3.859   1.312
99742SOL    HW2 1060  13.498   3.719   1.299
99743SOL     OW 1061   2.052   8.745   1.962
99743SOL    HW1 1062   2.128   8.802   1.963
99743SOL    HW2 1063   1.986   8.793   2.013
99744SOL     OW 1064  13.506   5.490   3.222
99744SOL    HW1 1065  13.443   5.513   3.290
99744SOL    HW2 1066  13.491   5.555   3.153
99745SOL     OW 1067  14.018  11.104   4.300
99745SOL    HW1 1068  14.050  11.040   4.236
99745SOL    HW2 1069  14.013  11.055   4.382
99746SOL     OW 1070   8.516   3.501   0.347
99746SOL    HW1 1071   8.484   3.434   0.407
99746SOL    HW2 1072   8.606   3.517   0.373
99747SOL     OW 1073   0.039   9.224  13.108
99747SOL    HW1 1074   0.080   9.144  13.142
99747SOL    HW2 1075  14.839   9.234  13.161
99748SOL     OW 1076  11.006   5.211   5.220
99748SOL    HW1 1077  11.089   5.170   5.246
99748SOL    HW2 1078  11.004   5.202   5.125
99749SOL     OW 1079  10.796   5.027   7.342
99749SOL    HW1 1080  10.782   4.933   7.350
99749SOL    HW2 1081  10.851   5.050   7.417
99750SOL     OW 1082  12.038   8.961   4.172
99750SOL    HW1 1083  11.977   8.888   4.163
99750SOL    HW2 1084  11.982   9.038   4.186
99751SOL     OW 1085  10.827   7.632  13.787
99751SOL    HW1 1086  10.747   7.646  13.736
99751SOL    HW2 1087  10.848   7.540  13.775
99752SOL     OW 1088   0.293   5.684   7.149
99752SOL    HW1 1089   0.252   5.604   7.116
99752SOL    HW2 1090   0.220   5.734   7.186
99753SOL     OW 1091   6.645   7.895   4.500
99753SOL    HW1 1092   6.731   7.934   4.508
99753SOL    HW2 1093   6.585   7.969   4.489
99754SOL     OW 1094   8.412   5.231   7.051
99754SOL    HW1 1095   8.380   5.183   7.127
99754SOL    HW2 1096   8.387   5.322   7.068
99755SOL     OW 1097   0.653   5.101   0.832
99755SOL    HW1 1098   0.577   5.061   0.791
99755SOL    HW2 1099   0.698   5.146   0.760
99756SOL     OW 1100   6.005   5.899   1.058
99756SOL    HW1 1101   5.917   5.910   1.023
99756SOL    HW2 1102   6.053   5.852   0.991
99757SOL     OW 1103   3.152  14.365   5.600
99757SOL    HW1 1104   3.209  14.301   5.556
99757SOL    HW2 1105   3.202  14.393   5.677
99758SOL     OW 1106   0.568  11.024  10.998
99758SOL    HW1 1107   0.527  11.106  11.027
99758SOL    HW2 1108   0.526  11.004  10.915
99759SOL     OW 1109  11.093   4.170   8.968
99759SOL    HW1 1110  11.072   4.257   9.002
99759SOL    HW2 1111  11.028   4.112   9.009
99760SOL     OW 1112   8.849   4.704   7.203
99760SOL    HW1 1113   8.855   4.793   7.169
99760SOL    HW2 1114   8.925   4.695   7.260
99761SOL     OW 1115  10.336  12.318   4.580
99761SOL    HW1 1116  10.387  12.355   4.652
99761SOL    HW2 1117  10.352  12.378   4.507
99762SOL     OW 1118  11.426   1.043  10.777
99762SOL    HW1 1119  11.514   1.070  10.751
99762SOL    HW2 1120  11.417   1.077  10.866
99763SOL     OW 1121   4.022   7.926   6.323
99763SOL    HW1 1122   3.939   7.881   6.340
99763SOL    HW2 1123   4.049   7.961   6.408
99764SOL     OW 1124   9.576   2.532  10.426
99764SOL    HW1 1125   9.636   2.476  10.474
99764SOL    HW2 1126   9.630   2.578  10.362
99765SOL     OW 1127  14.214   9.551   4.020
99765SOL    HW1 1128  14.196   9.572   4.112
99765SOL    HW2 1129  14.291   9.604   3.999
99766SOL     OW 1130   8.051  14.226   9.439
99766SOL    HW1 1131   8.098  14.168   9.498
99766SOL    HW2 1132   8.004  14.286   9.498
99767SOL     OW 1133   9.042   6.837   1.540
99767SOL    HW1 1134   8.987   6.908   1.572
99767SOL    HW2 1135   8.986   6.760   1.543
99768SOL     OW 1136  11.898   9.574  10.358
99768SOL    HW1 1137  11.977   9.608  10.317
99768SOL    HW2 1138  11.835   9.565  10.286
99769SOL     OW 1139  12.733  12.239   0.086
99769SOL    HW1 1140  12.710  12.197   0.003
99769SOL    HW2 1141  12.724  12.333   0.069
99770SOL     OW 1142   5.034  12.365  14.446
99770SOL    HW1 1143   5.007  12.286  14.492
99770SOL    HW2 1144   5.120  12.386  14.483
99771SOL     OW 1145   8.251   9.859   0.580
99771SOL    HW1 1146   8.327   9.801   0.575
99771SOL    HW2 1147   8.288   9.947   0.582
99772SOL     OW 1148   6.272   0.921   8.893
99772SOL    HW1 1149   6.341   0.972   8.850
99772SOL    HW2 1150   6.201   0.984   8.908
99773SOL     OW 1151  14.697   7.347   9.599
99773SOL    HW1 1152  14.602   7.354   9.592
99773SOL    HW2 1153  14.719   7.264   9.556
99774SOL     OW 1154   4.946   6.875   0.602
99774SOL    HW1 1155   4.868   6.845   0.648
99774SOL    HW2 1156   5.012   6.808   0.619
99775SOL     OW 1157   3.441  10.829  14.029
99775SOL    HW1 1158   3.408  10.745  13.997
99775SOL    HW2 1159   3.378  10.893  13.997
99776SOL     OW 1160   6.385  12.622   5.181
99776SOL    HW1 1161   6.308  12.677   5.195
99776SOL    HW2 1162   6.397  12.621   5.086
99777SOL     OW 1163   1.995   4.253   0.714
99777SOL    HW1 1164   2.065   4.286   0.771
99777SOL    HW2 1165   2.020   4.282   0.626
99778SOL     OW 1166  10.191  13.843  10.272
99778SOL    HW1 1167  10.152  13.799  10.347
99778SOL    HW2 1168  10.143  13.925  10.265
99779SOL     OW 1169   7.093   8.351   9.762
99779SOL    HW1 1170   7.087   8.365   9.856
99779SOL    HW2 1171   7.184   8.371   9.740
99780SOL     OW 1172   3.543  14.308   2.594
99780SOL    HW1 1173   3.599  14.231   2.582
99780SOL    HW2 1174   3.465  14.290   2.542
99781SOL     OW 1175   7.297  13.141   9.956
99781SOL    HW1 1176   7.202  13.129   9.953
99781SOL    HW2 1177   7.309  13.235   9.973
99782SOL     OW 1178   1.557  14.125   3.195
99782SOL    HW1 1179   1.603  14.206   3.216
99782SOL    HW2 1180   1.552  14.123   3.100
99783SOL     OW 1181   6.294  10.513   9.359
99783SOL    HW1 1182   6.266  10.604   9.361
99783SOL    HW2 1183   6.243  10.474   9.287
99784SOL     OW 1184   2.345   0.426   3.308
99784SOL    HW1 1185   2.329   0.500   3.249
99784SOL    HW2 1186   2.265   0.419   3.361
99785SOL     OW 1187  10.787  13.381   3.760
99785SOL    HW1 1188  10.809  13.327   3.683
99785SOL    HW2 1189  10.710  13.339   3.797
99786SOL     OW 1190   8.862   3.490   5.052
99786SOL    HW1 1191   8.785   3.450   5.011
99786SOL    HW2 1192   8.875   3.571   5.003
99787SOL     OW 1193   4.892   2.310   0.528
99787SOL    HW1 1194   4.817   2.266   0.487
99787SOL    HW2 1195   4.900   2.393   0.482
99788SOL     OW 1196   5.236  12.179  13.748
99788SOL    HW1 1197   5.239  12.265  13.705
99788SOL    HW2 1198   5.238  12.199  13.842
99789SOL     OW 1199   9.270   9.748   5.400
99789SOL    HW1 1200   9.328   9.738   5.324
99789SOL    HW2 1201   9.316   9.809   5.457
99790SOL     OW 1202  12.791   7.495   3.205
99790SOL    HW1 1203  12.751   7.415   3.238
99790SOL    HW2 1204  12.805   7.478   3.111
99791SOL     OW 1205   6.806   7.078   9.010
99791SOL    HW1 1206   6.808   7.092   8.915
99791SOL    HW2 1207   6.740   7.139   9.042
99792SOL     OW 1208  12.665  13.931   6.226
99792SOL    HW1 1209  12.595  13.886   6.180
99792SOL    HW2 1210  12.730  13.864   6.244
99793SOL     OW 1211   7.919   6.592   0.976
99793SOL    HW1 1212   7.829   6.577   0.948
99793SOL    HW2 1213   7.912   6.660   1.043
99794SOL     OW 1214   7.031   3.576   8.493
99794SOL    HW1 1215   6.952   3.628   8.504
99794SOL    HW2 1216   7.042   3.530   8.576
99795SOL     OW 1217   9.136  14.027  10.297
99795SOL    HW1 1218   9.159  14.114  10.330
99795SOL    HW2 1219   9.048  14.038  10.260
99796SOL     OW 1220   6.163   9.710  12.524
99796SOL    HW1 1221   6.131   9.764  12.452
99796SOL    HW2 1222   6.113   9.739  12.600
99797SOL     OW 1223  10.141   4.572   8.846
99797SOL    HW1 1224  10.106   4.531   8.926
99797SOL    HW2 1225  10.213   4.514   8.820
99798SOL     OW 1226   6.560   6.206  10.418
99798SOL    HW1 1227   6.504   6.259  10.362
99798SOL    HW2 1228   6.590   6.265  10.486
99799SOL     OW 1229   8.611  12.799   4.201
99799SOL    HW1 1230   8.603  12.883   4.246
99799SOL    HW2 1231   8.616  12.734   4.271
99800SOL     OW 1232   4.491   9.916  10.945
99800SOL    HW1 1233   4.436   9.841  10.964
99800SOL    HW2 1234   4.475   9.977  11.018
99801SOL     OW 1235   5.511  12.822  12.560
99801SOL    HW1 1236   5.476  12.906  12.530
99801SOL    HW2 1237   5.482  12.816  12.651
99802SOL     OW 1238  10.444   6.945   3.189
99802SOL    HW1 1239  10.423   7.015   3.252
99802SOL    HW2 1240  10.488   6.878   3.241
99803SOL     OW 1241  13.567   9.453   1.449
99803SOL    HW1 1242  13.586   9.545   1.432
99803SOL    HW2 1243  13.524   9.422   1.369
99804SOL     OW 1244   6.325   1.367   2.909
99804SOL    HW1 1245   6.378   1.298   2.869
99804SOL    HW2 1246   6.238   1.354   2.872
99805SOL     OW 1247   5.550   9.857   9.825
99805SOL    HW1 1248   5.638   9.831   9.851
99805SOL    HW2 1249   5.515   9.782   9.778
99806SOL     OW 1250   2.393  13.280   5.333
99806SOL    HW1 1251   2.316  13.274   5.389
99806SOL    HW2 1252   2.394  13.199   5.282
99807SOL     OW 1253   5.939   9.632  13.319
99807SOL    HW1 1254   6.027   9.612  13.285
99807SOL    HW2 1255   5.940   9.597  13.408
99808SOL     OW 1256   8.023   8.376   0.262
99808SOL    HW1 1257   8.048   8.468   0.259
99808SOL    HW2 1258   8.101   8.330   0.293
99809SOL     OW 1259  14.384  12.640  12.643
99809SOL    HW1 1260  14.354  12.731  12.653
99809SOL    HW2 1261  14.466  12.637  12.694
99810SOL     OW 1262   6.570  12.286  12.074
99810SOL    HW1 1263   6.504  12.262  12.139
99810SOL    HW2 1264   6.608  12.367  12.106
99811SOL     OW 1265   6.072   6.940   2.370
99811SOL    HW1 1266   6.107   6.986   2.446
99811SOL    HW2 1267   6.133   6.868   2.356
99812SOL     OW 1268  12.379  13.221   5.948
99812SOL    HW1 1269  12.387  13.243   5.856
99812SOL    HW2 1270  12.299  13.168   5.953
99813SOL     OW 1271   3.796  14.205   6.626
99813SOL    HW1 1272   3.861  14.188   6.559
99813SOL    HW2 1273   3.785  14.300   6.626
99814SOL     OW 1274   4.520   4.798   4.086
99814SOL    HW1 1275   4.599   4.841   4.119
99814SOL    HW2 1276   4.532   4.705   4.109
99815SOL     OW 1277   6.573   0.904  14.775
99815SOL    HW1 1278   6.634   0.839  14.809
99815SOL    HW2 1279   6.596   0.985  14.821
99816SOL     OW 1280   7.117   6.206  14.523
99816SOL    HW1 1281   7.135   6.294  14.554
99816SOL    HW2 1282   7.094   6.217  14.430
99817SOL     OW 1283   9.123   9.386   8.065
99817SOL    HW1 1284   9.117   9.470   8.020
99817SOL    HW2 1285   9.039   9.376   8.109
99818SOL     OW 1286   8.057  13.667  12.128
99818SOL    HW1 1287   8.000  13.680  12.052
99818SOL    HW2 1288   8.140  13.707  12.103
99819SOL     OW 1289   0.529  11.518   8.244
99819SOL    HW1 1290   0.513  11.495   8.336
99819SOL    HW2 1291   0.603  11.579   8.248
99820SOL     OW 1292  13.907   5.684  11.089
99820SOL    HW1 1293  13.850   5.626  11.141
99820SOL    HW2 1294  13.935   5.629  11.016
99821SOL     OW 1295  12.282   7.849   9.584
99821SOL    HW1 1296  12.365   7.812   9.555
99821SOL    HW2 1297  12.242   7.780   9.637
99822SOL     OW 1298   1.289  10.191   5.792
99822SOL    HW1 1299   1.199  10.214   5.813
99822SOL    HW2 1300   1.313  10.123   5.855
99823SOL     OW 1301   7.556   5.434   5.700
99823SOL    HW1 1302   7.543   5.382   5.779
99823SOL    HW2 1303   7.618   5.503   5.726
99824SOL     OW 1304  14.540  10.260   1.304
99824SOL    HW1 1305  14.568  10.198   1.371
99824SOL    HW2 1306  14.620  10.306   1.278
99825SOL     OW 1307   7.677  11.445   6.120
99825SOL    HW1 1308   7.642  11.440   6.209
99825SOL    HW2 1309   7.695  11.353   6.097
99826SOL     OW 1310  10.076   6.205   6.940
99826SOL    HW1 1311  10.053   6.267   6.870
99826SOL    HW2 1312  10.170   6.218   6.954
99827SOL     OW 1313   3.179   1.480   2.845
99827SOL    HW1 1314   3.104   1.429   2.815
99827SOL    HW2 1315   3.254   1.423   2.829
99828SOL     OW 1316   8.703  10.579  13.568
99828SOL    HW1 1317   8.666  10.578  13.479
99828SOL    HW2 1318   8.633  10.614  13.622
99829SOL     OW 1319   5.229   3.380   0.854
99829SOL    HW1 1320   5.267   3.292   0.853
99829SOL    HW2 1321   5.135   3.366   0.849
99830SOL     OW 1322   3.878   9.399   7.538
99830SOL    HW1 1323   3.965   9.411   7.500
99830SOL    HW2 1324   3.857   9.483   7.578
99831SOL     OW 1325   3.358   9.698  13.297
99831SOL    HW1 1326   3.416   9.773  13.281
99831SOL    HW2 1327   3.307   9.724  13.374
99832SOL     OW 1328   4.938  12.329   7.161
99832SOL    HW1 1329   4.983  12.246   7.174
99832SOL    HW2 1330   4.882  12.315   7.085
99833SOL     OW 1331   7.590   6.646   5.255
99833SOL    HW1 1332   7.614   6.727   5.300
99833SOL    HW2 1333   7.498   6.659   5.230
99834SOL     OW 1334   9.538   2.479   9.095
99834SOL    HW1 1335   9.548   2.430   9.013
99834SOL    HW2 1336   9.627   2.507   9.117
99835SOL     OW 1337   4.770   0.657  11.998
99835SOL    HW1 1338   4.758   0.601  11.922
99835SOL    HW2 1339   4.716   0.617  12.066
99836SOL     OW 1340  10.298   5.568   9.647
99836SOL    HW1 1341  10.364   5.579   9.715
99836SOL    HW2 1342  10.214   5.579   9.693
99837SOL     OW 1343   0.585   6.319   3.414
99837SOL    HW1 1344   0.592   6.329   3.319
99837SOL    HW2 1345   0.623   6.233   3.431
99838SOL     OW 1346   5.656   5.297  13.706
99838SOL    HW1 1347   5.645   5.235  13.634
99838SOL    HW2 1348   5.607   5.259  13.779
99839SOL     OW 1349   9.835   2.236   3.443
99839SOL    HW1 1350   9.825   2.331   3.447
99839SOL    HW2 1351   9.927   2.221   3.467
99840SOL     OW 1352  12.680  13.228   5.510
99840SOL    HW1 1353  12.756  13.170   5.513
99840SOL    HW2 1354  12.610  13.173   5.476
99841SOL     OW 1355   0.805  12.828   3.161
99841SOL    HW1 1356   0.739  12.767   3.194
99841SOL    HW2 1357   0.842  12.785   3.084
99842SOL     OW 1358   1.702  12.787   9.679
99842SOL    HW1 1359   1.786  12.796   9.634
99842SOL    HW2 1360   1.682  12.875   9.711
99843SOL     OW 1361   7.806   0.844   5.041
99843SOL    HW1 1362   7.821   0.773   5.104
99843SOL    HW2 1363   7.879   0.903   5.053
99844SOL     OW 1364  13.553   7.244   5.948
99844SOL    HW1 1365  13.620   7.284   5.893
99844SOL    HW2 1366  13.598   7.221   6.029
99845SOL     OW 1367   4.825   7.448   4.458
99845SOL    HW1 1368   4.773   7.430   4.380
99845SOL    HW2 1369   4.821   7.367   4.509
99846SOL     OW 1370   9.537   0.251   5.819
99846SOL    HW1 1371   9.570   0.164   5.797
99846SOL    HW2 1372   9.515   0.291   5.735
99847SOL     OW 1373   1.211   9.665   5.366
99847SOL    HW1 1374   1.174   9.713   5.292
99847SOL    HW2 1375   1.138   9.654   5.427
99848SOL     OW 1376   3.402   3.741   4.086
99848SOL    HW1 1377   3.498   3.737   4.091
99848SOL    HW2 1378   3.377   3.665   4.035
99849SOL     OW 1379  12.259   4.381   5.607
99849SOL    HW1 1380  12.181   4.414   5.652
99849SOL    HW2 1381  12.259   4.287   5.625
99850SOL     OW 1382   1.813  14.874   4.229
99850SOL    HW1 1383   1.726  14.878   4.190
99850SOL    HW2 1384   1.813  14.792   4.280
99851SOL     OW 1385   9.841  12.690  13.118
99851SOL    HW1 1386   9.866  12.778  13.087
99851SOL    HW2 1387   9.754  12.701  13.155
99852SOL     OW 1388   0.149   0.249   2.548
99852SOL    HW1 1389   0.225   0.301   2.575
99852SOL    HW2 1390   0.127   0.196   2.625
99853SOL     OW 1391   7.319   6.387   9.695
99853SOL    HW1 1392   7.253   6.440   9.740
99853SOL    HW2 1393   7.290   6.387   9.603
99854SOL     OW 1394   5.885   5.647   1.767
99854SOL    HW1 1395   5.915   5.692   1.846
99854SOL    HW2 1396   5.914   5.556   1.778
99855SOL     OW 1397   6.294  10.946  10.454
99855SOL    HW1 1398   6.329  10.987  10.533
99855SOL    HW2 1399   6.355  10.874  10.436
99856SOL     OW 1400  11.629   1.731   2.886
99856SOL    HW1 1401  11.696   1.676   2.925
99856SOL    HW2 1402  11.656   1.821   2.908
99857SOL     OW 1403   3.671   7.376   9.664
99857SOL    HW1 1404   3.722   7.377   9.583
99857SOL    HW2 1405   3.601   7.313   9.648
99858SOL     OW 1406   7.725   6.252   5.563
99858SOL    HW1 1407   7.730   6.336   5.608
99858SOL    HW2 1408   7.727   6.275   5.470
99859SOL     OW 1409   0.420  12.820  10.093
99859SOL    HW1 1410   0.471  12.899  10.073
99859SOL    HW2 1411   0.331  12.852  10.105
99860SOL     OW 1412  13.028  11.978  13.245
99860SOL    HW1 1413  13.027  12.071  13.266
99860SOL    HW2 1414  12.936  11.954  13.238
99861SOL     OW 1415  10.562  11.209   3.688
99861SOL    HW1 1416  10.559  11.114   3.677
99861SOL    HW2 1417  10.531  11.244   3.605
99862SOL     OW 1418   8.851   6.333  11.126
99862SOL    HW1 1419   8.880   6.421  11.105
99862SOL    HW2 1420   8.927   6.278  11.105
99863SOL     OW 1421   3.249  12.913   6.946
99863SOL    HW1 1422   3.230  12.919   7.040
99863SOL    HW2 1423   3.260  12.820   6.929
99864SOL     OW 1424   9.198  11.787   9.817
99864SOL    HW1 1425   9.213  11.868   9.866
99864SOL    HW2 1426   9.216  11.717   9.880
99865SOL     OW 1427  13.257   9.939  11.328
99865SOL    HW1 1428  13.221   9.978  11.408
99865SOL    HW2 1429  13.348   9.971  11.325
99866SOL     OW 1430   1.933   8.846   3.524
99866SOL    HW1 1431   1.970   8.767   3.484
99866SOL    HW2 1432   1.845   8.853   3.486
99867SOL     OW 1433  10.797   4.679   5.226
99867SOL    HW1 1434  10.733   4.730   5.276
99867SOL    HW2 1435  10.771   4.587   5.241
99868SOL     OW 1436   5.868  10.582   2.650
99868SOL    HW1 1437   5.932  10.517   2.678
99868SOL    HW2 1438   5.862  10.571   2.555
99869SOL     OW 1439   3.348  14.008   6.109
99869SOL    HW1 1440   3.328  14.074   6.042
99869SOL    HW2 1441   3.267  13.958   6.119
99870SOL     OW 1442  14.574  12.606  10.547
99870SOL    HW1 1443  14.635  12.670  10.512
99870SOL    HW2 1444  14.624  12.524  10.550
99871SOL     OW 1445   9.015   8.449   0.339
99871SOL    HW1 1446   8.944   8.509   0.361
99871SOL    HW2 1447   8.985   8.364   0.369
99872SOL     OW 1448   8.273   1.598   0.378
99872SOL    HW1 1449   8.276   1.694   0.386
99872SOL    HW2 1450   8.202   1.581   0.316
99873SOL     OW 1451  14.533   2.855  12.540
99873SOL    HW1 1452  14.533   2.945  12.507
99873SOL    HW2 1453  14.625   2.832  12.550
99874SOL     OW 1454  13.664   4.643   4.179
99874SOL    HW1 1455  13.753   4.610   4.190
99874SOL    HW2 1456  13.637   4.611   4.093
99875SOL     OW 1457   5.258   9.293   9.034
99875SOL    HW1 1458   5.329   9.285   9.097
99875SOL    HW2 1459   5.180   9.261   9.081
99876SOL     OW 1460   0.518   4.408   6.239
99876SOL    HW1 1461   0.492   4.361   6.319
99876SOL    HW2 1462   0.482   4.355   6.168
99877SOL     OW 1463   4.662  10.661   6.309
99877SOL    HW1 1464   4.684  10.737   6.254
99877SOL    HW2 1465   4.746  10.634   6.346
99878SOL     OW 1466  11.126   5.756   4.546
99878SOL    HW1 1467  11.051   5.813   4.563
99878SOL    HW2 1468  11.101   5.706   4.469
99879SOL     OW 1469   4.296   8.993  13.268
99879SOL    HW1 1470   4.270   8.935  13.340
99879SOL    HW2 1471   4.391   9.001  13.277
99880SOL     OW 1472   2.270  13.715  10.618
99880SOL    HW1 1473   2.316  13.638  10.585
99880SOL    HW2 1474   2.206  13.735  10.549
99881SOL     OW 1475  11.720   0.193  13.163
99881SOL    HW1 1476  11.755   0.262  13.107
99881SOL    HW2 1477  11.673   0.134  13.104
99882SOL     OW 1478  14.474   7.167   2.892
99882SOL    HW1 1479  14.519   7.151   2.810
99882SOL    HW2 1480  14.519   7.242   2.930
99883SOL     OW 1481   8.588   4.879   5.877
99883SOL    HW1 1482   8.570   4.971   5.896
99883SOL    HW2 1483   8.504   4.843   5.848
99884SOL     OW 1484   1.427  14.598   3.652
99884SOL    HW1 1485   1.495  14.531   3.646
99884SOL    HW2 1486   1.471  14.673   3.694
99885SOL     OW 1487   0.958  13.170   4.110
99885SOL    HW1 1488   1.016  13.246   4.113
99885SOL    HW2 1489   1.000  13.105   4.166
99886SOL     OW 1490  14.205   5.964   8.302
99886SOL    HW1 1491  14.265   6.038   8.316
99886SOL    HW2 1492  14.216   5.910   8.380
99887SOL     OW 1493  12.898  10.910  14.016
99887SOL    HW1 1494  12.869  10.992  14.057
99887SOL    HW2 1495  12.819  10.875  13.975
99888SOL     OW 1496   5.263   5.014   7.541
99888SOL    HW1 1497   5.268   5.038   7.448
99888SOL    HW2 1498   5.193   5.068   7.576
99889SOL     OW 1499  13.747   3.702  10.117
99889SOL    HW1 1500  13.747   3.674  10.209
99889SOL    HW2 1501  13.817   3.767  10.112
99890SOL     OW 1502   3.092  11.540   7.167
99890SOL    HW1 1503   3.101  11.510   7.257
99890SOL    HW2 1504   3.085  11.635   7.173
99891SOL     OW 1505   5.771  10.787  14.391
99891SOL    HW1 1506   5.861  10.789  14.423
99891SOL    HW2 1507   5.717  10.789  14.470
99892SOL     OW 1508   3.182   5.404   9.408
99892SOL    HW1 1509   3.152   5.384   9.319
99892SOL    HW2 1510   3.141   5.487   9.430
99893SOL     OW 1511  10.701   7.034  13.626
99893SOL    HW1 1512  10.762   7.063  13.695
99893SOL    HW2 1513  10.701   6.938  13.633
99894SOL     OW 1514   3.656   6.732   6.341
99894SOL    HW1 1515   3.560   6.737   6.340
99894SOL    HW2 1516   3.684   6.823   6.345
99895SOL     OW 1517   7.431   1.961   8.450
99895SOL    HW1 1518   7.478   1.907   8.514
99895SOL    HW2 1519   7.371   2.014   8.503
99896SOL     OW 1520   5.398  14.101   4.295
99896SOL    HW1 1521   5.347  14.101   4.376
99896SOL    HW2 1522   5.373  14.181   4.250
99897SOL     OW 1523  10.940   2.830   8.596
99897SOL    HW1 1524  10.970   2.758   8.651
99897SOL    HW2 1525  10.996   2.904   8.621
99898SOL     OW 1526   5.175   5.793  14.073
99898SOL    HW1 1527   5.111   5.774  14.141
99898SOL    HW2 1528   5.250   5.829  14.120
99899SOL     OW 1529   9.200  13.512  13.106
99899SOL    HW1 1530   9.193  13.529  13.012
99899SOL    HW2 1531   9.187  13.418  13.114
99900SOL     OW 1532   1.707   6.909   0.999
99900SOL    HW1 1533   1.675   6.922   0.909
99900SOL    HW2 1534   1.743   6.821   0.999
99901SOL     OW 1535  14.026   5.998  13.849
99901SOL    HW1 1536  14.032   6.008  13.944
99901SOL    HW2 1537  14.111   6.028  13.816
99902SOL     OW 1538   9.671   9.782   7.908
99902SOL    HW1 1539   9.757   9.751   7.880
99902SOL    HW2 1540   9.676   9.783   8.004
99903SOL     OW 1541   4.228  10.215   3.587
99903SOL    HW1 1542   4.304  10.200   3.530
99903SOL    HW2 1543   4.261  10.274   3.655
99904SOL     OW 1544  11.185   7.040   0.987
99904SOL    HW1 1545  11.183   6.944   0.981
99904SOL    HW2 1546  11.112   7.069   0.932
99905SOL     OW 1547   5.415   6.465   2.703
99905SOL    HW1 1548   5.472   6.456   2.779
99905SOL    HW2 1549   5.387   6.375   2.684
99906SOL     OW 1550   5.968  13.413  12.658
99906SOL    HW1 1551   6.039  13.390  12.599
99906SOL    HW2 1552   6.004  13.401  12.746
99907SOL     OW 1553   2.571   4.891   9.256
99907SOL    HW1 1554   2.527   4.971   9.286
99907SOL    HW2 1555   2.501   4.838   9.219
99908SOL     OW 1556   3.599  13.689   4.083
99908SOL    HW1 1557   3.553  13.771   4.061
99908SOL    HW2 1558   3.600  13.639   4.001
99909SOL     OW 1559   0.299   1.051   2.013
99909SOL    HW1 1560   0.377   1.019   2.058
99909SOL    HW2 1561   0.328   1.130   1.967
99910SOL     OW 1562  10.919   7.045   8.156
99910SOL    HW1 1563  10.843   7.103   8.162
99910SOL    HW2 1564  10.991   7.103   8.129
99911SOL     OW 1565   3.658   3.677   4.090
99911SOL    HW1 1566   3.680   3.677   4.183
99911SOL    HW2 1567   3.720   3.739   4.050
99912SOL     OW 1568  10.470   8.244   3.501
99912SOL    HW1 1569  10.523   8.268   3.577
99912SOL    HW2 1570  10.456   8.327   3.455
99913SOL     OW 1571  13.940   6.241  11.036
99913SOL    HW1 1572  13.899   6.273  10.956
99913SOL    HW2 1573  13.953   6.320  11.089
99914SOL     OW 1574   7.128   2.182   6.880
99914SOL    HW1 1575   7.164   2.201   6.966
99914SOL    HW2 1576   7.101   2.090   6.885
99915SOL     OW 1577   7.078   1.609   4.012
99915SOL    HW1 1578   7.055   1.699   3.987
99915SOL    HW2 1579   7.136   1.579   3.942
99916SOL     OW 1580   8.591   7.238   5.160
99916SOL    HW1 1581   8.615   7.317   5.112
99916SOL    HW2 1582   8.673   7.208   5.200
99917SOL     OW 1583   9.389  14.541   8.085
99917SOL    HW1 1584   9.318  14.490   8.125
99917SOL    HW2 1585   9.468  14.492   8.104
99918SOL     OW 1586   8.047   7.818  13.046
99918SOL    HW1 1587   8.045   7.913  13.059
99918SOL    HW2 1588   7.964   7.787  13.083
99919SOL     OW 1589   0.644  13.668   7.069
99919SOL    HW1 1590   0.690  13.729   7.011
99919SOL    HW2 1591   0.566  13.714   7.097
99920SOL     OW 1592   7.777   8.605   9.597
99920SOL    HW1 1593   7.785   8.700   9.609
99920SOL    HW2 1594   7.790   8.591   9.504
99921SOL     OW 1595  14.772   7.056   5.310
99921SOL    HW1 1596  14.684   7.094   5.302
99921SOL    HW2 1597  14.779   7.032   5.402
99922SOL     OW 1598   7.395   8.438   2.190
99922SOL    HW1 1599   7.333   8.461   2.259
99922SOL    HW2 1600   7.351   8.461   2.108
99923SOL     OW 1601  11.878   0.661   6.871
99923SOL    HW1 1602  11.829   0.591   6.915
99923SOL    HW2 1603  11.851   0.655   6.779
99924SOL     OW 1604  11.952  11.037   1.345
99924SOL    HW1 1605  12.026  11.095   1.329
99924SOL    HW2 1606  11.875  11.093   1.335
99925SOL     OW 1607  12.127   1.421  12.856
99925SOL    HW1 1608  12.122   1.464  12.770
99925SOL    HW2 1609  12.157   1.490  12.915
99926SOL     OW 1610   1.419  13.967  14.251
99926SOL    HW1 1611   1.360  13.908  14.299
99926SOL    HW2 1612   1.435  14.039  14.312
99927SOL     OW 1613  14.517  12.971  10.510
99927SOL    HW1 1614  14.465  13.051  10.510
99927SOL    HW2 1615  14.531  12.951  10.603
99928SOL     OW 1616  11.953   3.932  10.350
99928SOL    HW1 1617  12.033   3.984  10.341
99928SOL    HW2 1618  11.967   3.880  10.429
99929SOL     OW 1619   6.361  13.950   8.279
99929SOL    HW1 1620   6.318  13.884   8.334
99929SOL    HW2 1621   6.360  13.912   8.191
99930SOL     OW 1622  12.101  13.800   9.744
99930SOL    HW1 1623  12.014  13.764   9.727
99930SOL    HW2 1624  12.099  13.825   9.837
99931SOL     OW 1625   0.269  11.683  10.564
99931SOL    HW1 1626   0.325  11.608  10.547
99931SOL    HW2 1627   0.181  11.645  10.569
99932SOL     OW 1628   3.736  10.368   9.765
99932SOL    HW1 1629   3.761  10.365   9.673
99932SOL    HW2 1630   3.818  10.374   9.813
99933SOL     OW 1631  11.506  12.066   7.211
99933SOL    HW1 1632  11.583  12.100   7.165
99933SOL    HW2 1633  11.448  12.036   7.141
99934SOL     OW 1634  13.376  14.861  10.647
99934SOL    HW1 1635  13.350   0.031  10.569
99934SOL    HW2 1636  13.469  14.842  10.634
99935SOL     OW 1637   5.579  14.290  11.169
99935SOL    HW1 1638   5.661  14.337  11.185
99935SOL    HW2 1639   5.535  14.341  11.100
99936SOL     OW 1640  13.599   7.997   6.786
99936SOL    HW1 1641  13.677   7.945   6.806
99936SOL    HW2 1642  13.528   7.952   6.833
99937SOL     OW 1643   1.215   3.395   5.761
99937SOL    HW1 1644   1.164   3.352   5.828
99937SOL    HW2 1645   1.279   3.329   5.732
99938SOL     OW 1646  10.925   0.867   6.337
99938SOL    HW1 1647  10.972   0.874   6.420
99938SOL    HW2 1648  10.934   0.776   6.311
99939SOL     OW 1649   2.953   8.528   9.097
99939SOL    HW1 1650   3.036   8.482   9.108
99939SOL    HW2 1651   2.926   8.508   9.007
99940SOL     OW 1652   7.213   8.005  13.912
99940SOL    HW1 1653   7.228   7.972  13.824
99940SOL    HW2 1654   7.287   8.063  13.930
99941SOL     OW 1655   4.567   1.606   5.869
99941SOL    HW1 1656   4.605   1.575   5.786
99941SOL    HW2 1657   4.640   1.648   5.914
99942SOL     OW 1658  13.616  13.215  13.229
99942SOL    HW1 1659  13.625  13.146  13.295
99942SOL    HW2 1660  13.539  13.191  13.179
99943SOL     OW 1661   9.568   8.690   4.505
99943SOL    HW1 1662   9.524   8.615   4.544
99943SOL    HW2 1663   9.635   8.715   4.569
99944SOL     OW 1664   7.575   5.329  12.838
99944SOL    HW1 1665   7.602   5.318  12.746
99944SOL    HW2 1666   7.570   5.424  12.850
99945SOL     OW 1667  13.587   6.126   9.503
99945SOL    HW1 1668  13.575   6.221   9.496
99945SOL    HW2 1669  13.682   6.114   9.494
99946SOL     OW 1670  13.730   9.592   9.711
99946SOL    HW1 1671  13.714   9.508   9.753
99946SOL    HW2 1672  13.769   9.646   9.780
99947SOL     OW 1673  13.246   6.329   6.779
99947SOL    HW1 1674  13.333   6.367   6.768
99947SOL    HW2 1675  13.225   6.291   6.694
99948SOL     OW 1676  11.814  10.654   4.410
99948SOL    HW1 1677  11.836  10.597   4.483
99948SOL    HW2 1678  11.750  10.604   4.360
99949SOL     OW 1679  10.481  14.551   9.494
99949SOL    HW1 1680  10.488  14.595   9.579
99949SOL    HW2 1681  10.425  14.609   9.442
99950SOL     OW 1682   1.196   7.643   3.859
99950SOL    HW1 1683   1.285   7.609   3.860
99950SOL    HW2 1684   1.200   7.724   3.910
99951SOL     OW 1685   3.167   0.799   1.889
99951SOL    HW1 1686   3.170   0.778   1.982
99951SOL    HW2 1687   3.166   0.714   1.845
99952SOL     OW 1688   8.155   8.195   3.983
99952SOL    HW1 1689   8.208   8.238   3.916
99952SOL    HW2 1690   8.219   8.153   4.041
99953SOL     OW 1691  12.799   6.412  13.469
99953SOL    HW1 1692  12.764   6.469  13.401
99953SOL    HW2 1693  12.785   6.324  13.436
99954SOL     OW 1694   5.952   6.744   0.490
99954SOL    HW1 1695   5.878   6.733   0.550
99954SOL    HW2 1696   5.967   6.838   0.487
99955SOL     OW 1697   0.919   9.647   2.385
99955SOL    HW1 1698   1.013   9.633   2.384
99955SOL    HW2 1699   0.889   9.607   2.466
99956SOL     OW 1700   5.467   9.471   2.661
99956SOL    HW1 1701   5.468   9.535   2.732
99956SOL    HW2 1702   5.426   9.517   2.588
99957SOL     OW 1703   1.115   9.854   2.224
99957SOL    HW1 1704   1.145   9.784   2.283
99957SOL    HW2 1705   1.062   9.808   2.159
99958SOL     OW 1706  12.855   1.996   5.549
99958SOL    HW1 1707  12.913   1.996   5.625
99958SOL    HW2 1708  12.782   2.053   5.575
99959SOL     OW 1709   1.537   8.976   5.547
99959SOL    HW1 1710   1.551   9.041   5.478
99959SOL    HW2 1711   1.572   8.895   5.511
99960SOL     OW 1712   5.427   7.106  11.480
99960SOL    HW1 1713   5.478   7.152  11.413
99960SOL    HW2 1714   5.338   7.106  11.447
99961SOL     OW 1715   0.978   3.282  10.023
99961SOL    HW1 1716   1.026   3.264  10.103
99961SOL    HW2 1717   1.034   3.343   9.975
99962SOL     OW 1718   6.296   0.426   7.956
99962SOL    HW1 1719   6.205   0.443   7.979
99962SOL    HW2 1720   6.345   0.497   8.000
99963SOL     OW 1721   3.028   0.521   0.445
99963SOL    HW1 1722   3.000   0.609   0.468
99963SOL    HW2 1723   2.970   0.464   0.495
99964SOL     OW 1724  12.211  12.684   4.185
99964SOL    HW1 1725  12.170  12.769   4.170
99964SOL    HW2 1726  12.158  12.644   4.254
99965SOL     OW 1727  12.864  11.450   3.685
99965SOL    HW1 1728  12.960  11.452   3.684
99965SOL    HW2 1729  12.838  11.542   3.676
99966SOL     OW 1730   2.235  12.134   2.167
99966SOL    HW1 1731   2.264  12.225   2.175
99966SOL    HW2 1732   2.215  12.108   2.257
99967SOL     OW 1733   5.161   2.562   1.903
99967SOL    HW1 1734   5.081   2.610   1.880
99967SOL    HW2 1735   5.219   2.628   1.940
99968SOL     OW 1736   4.036  12.683  10.238
99968SOL    HW1 1737   4.022  12.778  10.236
99968SOL    HW2 1738   3.966  12.647  10.185
99969SOL     OW 1739  10.296   6.798   4.407
99969SOL    HW1 1740  10.369   6.799   4.344
99969SOL    HW2 1741  10.266   6.889   4.410
99970SOL     OW 1742   4.727   1.361   2.582
99970SOL    HW1 1743   4.684   1.297   2.639
99970SOL    HW2 1744   4.734   1.440   2.637
99971SOL     OW 1745  14.061   0.665  12.483
99971SOL    HW1 1746  14.048   0.590  12.424
99971SOL    HW2 1747  14.036   0.632  12.569
99972SOL     OW 1748   4.901   3.438  14.177
99972SOL    HW1 1749   4.874   3.351  14.206
99972SOL    HW2 1750   4.831   3.496  14.206
99973SOL     OW 1751   6.120  11.223   6.991
99973SOL    HW1 1752   6.077  11.303   7.023
99973SOL    HW2 1753   6.140  11.173   7.070
99974SOL     OW 1754   5.315   0.337  10.795
99974SOL    HW1 1755   5.292   0.283  10.719
99974SOL    HW2 1756   5.408   0.321  10.808
99975SOL     OW 1757  12.893   7.084   1.549
99975SOL    HW1 1758  12.854   7.137   1.618
99975SOL    HW2 1759  12.904   7.144   1.475
99976SOL     OW 1760  10.522   1.899   0.680
99976SOL    HW1 1761  10.448   1.933   0.730
99976SOL    HW2 1762  10.489   1.888   0.591
99977SOL     OW 1763   6.407   7.468   3.764
99977SOL    HW1 1764   6.458   7.387   3.765
99977SOL    HW2 1765   6.331   7.448   3.710
99978SOL     OW 1766   1.426  11.580   2.406
99978SOL    HW1 1767   1.474  11.590   2.488
99978SOL    HW2 1768   1.476  11.631   2.342
99979SOL     OW 1769   8.194   4.621   0.960
99979SOL    HW1 1770   8.213   4.701   1.008
99979SOL    HW2 1771   8.174   4.650   0.871
99980SOL     OW 1772   8.040   1.776   2.212
99980SOL    HW1 1773   8.114   1.834   2.229
99980SOL    HW2 1774   7.964   1.824   2.247
99981SOL     OW 1775   8.481   5.854   7.801
99981SOL    HW1 1776   8.571   5.825   7.814
99981SOL    HW2 1777   8.487   5.922   7.734
99982SOL     OW 1778   3.444   1.847  13.342
99982SOL    HW1 1779   3.506   1.881  13.407
99982SOL    HW2 1780   3.422   1.923  13.288
99983SOL     OW 1781   3.270   1.394   9.495
99983SOL    HW1 1782   3.321   1.389   9.575
99983SOL    HW2 1783   3.295   1.478   9.456
99984SOL     OW 1784  13.532   4.833   9.549
99984SOL    HW1 1785  13.438   4.850   9.553
99984SOL    HW2 1786  13.544   4.778   9.472
99985SOL     OW 1787   3.374  12.030  11.823
99985SOL    HW1 1788   3.349  11.939  11.843
99985SOL    HW2 1789   3.433  12.054  11.895
99986SOL     OW 1790   4.243  10.954   4.264
99986SOL    HW1 1791   4.259  10.949   4.169
99986SOL    HW2 1792   4.161  11.003   4.271
99987SOL     OW 1793   0.800   4.640   2.784
99987SOL    HW1 1794   0.724   4.606   2.737
99987SOL    HW2 1795   0.809   4.583   2.861
99988SOL     OW 1796   0.586   2.388   8.391
99988SOL    HW1 1797   0.642   2.446   8.442
99988SOL    HW2 1798   0.646   2.343   8.332
99989SOL     OW 1799   9.751   8.004  10.347
99989SOL    HW1 1800   9.700   8.084  10.332
99989SOL    HW2 1801   9.722   7.944  10.278
99990SOL     OW 1802   0.310   4.775   4.998
99990SOL    HW1 1803   0.403   4.770   5.021
99990SOL    HW2 1804   0.309   4.774   4.903
99991SOL     OW 1805   7.643  11.722   7.703
99991SOL    HW1 1806   7.681  11.746   7.788
99991SOL    HW2 1807   7.548  11.725   7.718
99992SOL     OW 1808  10.559   2.723   5.821
99992SOL    HW1 1809  10.645   2.750   5.852
99992SOL    HW2 1810  10.499   2.791   5.852
99993SOL     OW 1811   0.749   7.736   7.142
99993SOL    HW1 1812   0.796   7.813   7.112
99993SOL    HW2 1813   0.802   7.662   7.113
99994SOL     OW 1814  10.976   3.668   5.147
99994SOL    HW1 1815  10.956   3.747   5.198
99994SOL    HW2 1816  11.010   3.702   5.064
99995SOL     OW 1817  12.178   2.503   8.552
99995SOL    HW1 1818  12.103   2.562   8.559
99995SOL    HW2 1819  12.139   2.418   8.531
99996SOL     OW 1820   1.332   3.321   4.263
99996SOL    HW1 1821   1.327   3.400   4.209
99996SOL    HW2 1822   1.382   3.259   4.209
99997SOL     OW 1823  13.991   5.583   0.182
99997SOL    HW1 1824  13.989   5.625   0.096
99997SOL    HW2 1825  13.905   5.603   0.220
99998SOL     OW 1826   1.713   7.120  11.455
99998SOL    HW1 1827   1.716   7.215  11.457
99998SOL    HW2 1828   1.789   7.094  11.403
99999SOL     OW 1829   6.452  12.008   1.584
99999SOL    HW1 1830   6.509  11.952   1.532
99999SOL    HW2 1831   6.365  11.969   1.575
    0SOL     OW 1832  10.909  11.393   6.538
    0SOL    HW1 1833  10.971  11.427   6.602
    0SOL    HW2 1834  10.851  11.466   6.520
    1SOL     OW 1835   4.930   0.171   1.539
    1SOL    HW1 1836   4.936   0.106   1.608
    1SOL    HW2 1837   4.852   0.147   1.489
    2SOL     OW 1838   6.447   1.327  14.528
    2SOL    HW1 1839   6.394   1.252  14.500
    2SOL    HW2 1840   6.463   1.376  14.447
    3SOL     OW 1841   7.686   3.934   7.584
    3SOL    HW1 1842   7.700   4.025   7.610
    3SOL    HW2 1843   7.763   3.912   7.532
    4SOL     OW 1844   0.056   0.683  10.461
    4SOL    HW1 1845   0.132   0.722  10.418
    4SOL    HW2 1846   0.005   0.643  10.390
    5SOL     OW 1847  10.032   3.353   9.388
    5SOL    HW1 1848   9.982   3.365   9.307
    5SOL    HW2 1849  10.075   3.437   9.403
    6SOL     OW 1850  14.060   0.464   7.693
    6SOL    HW1 1851  13.988   0.411   7.656
    6SOL    HW2 1852  14.117   0.482   7.618
    7SOL     OW 1853   1.118   1.972   7.263
    7SOL    HW1 1854   1.030   1.939   7.242
    7SOL    HW2 1855   1.103   2.060   7.298
    8SOL     OW 1856   3.502   1.787   4.917
    8SOL    HW1 1857   3.588   1.747   4.922
    8SOL    HW2 1858   3.450   1.744   4.985
    9SOL     OW 1859   1.926   8.519  14.341
    9SOL    HW1 1860   1.868   8.526  14.266
    9SOL    HW2 1861   1.929   8.607  14.378
   10SOL     OW 1862   7.624  13.176   5.663
   10SOL    HW1 1863   7.616  13.150   5.755
   10SOL    HW2 1864   7.716  13.200   5.653
   11SOL     OW 1865   5.511  13.356   0.771
   11SOL    HW1 1866   5.593  13.394   0.802
   11SOL    HW2 1867   5.466  13.329   0.851
   12SOL     OW 1868   9.440  13.560   1.540
   12SOL    HW1 1869   9.488  13.618   1.480
   12SOL    HW2 1870   9.508  13.508   1.582
   13SOL     OW 1871   8.188   0.791  14.393
   13SOL    HW1 1872   8.129   0.717  14.406
   13SOL    HW2 1873   8.141   0.866  14.430
   14SOL     OW 1874  11.163  13.318   0.471
   14SOL    HW1 1875  11.197  13.357   0.391
   14SOL    HW2 1876  11.169  13.387   0.537
   15SOL     OW 1877   7.903   8.814   3.114
   15SOL    HW1 1878   7.890   8.908   3.103
   15SOL    HW2 1879   7.843   8.790   3.185
   16SOL     OW 1880   2.794   2.698  10.572
   16SOL    HW1 1881   2.859   2.629  10.586
   16SOL    HW2 1882   2.712   2.660  10.604
   17SOL     OW 1883   9.033   4.867   5.981
   17SOL    HW1 1884   9.084   4.936   6.024
   17SOL    HW2 1885   8.963   4.847   6.043
   18SOL     OW 1886  10.338   8.077  13.466
   18SOL    HW1 1887  10.415   8.063  13.411
   18SOL    HW2 1888  10.269   8.101  13.405
   19SOL     OW 1889   6.878   6.510   4.325
   19SOL    HW1 1890   6.834   6.548   4.400
   19SOL    HW2 1891   6.921   6.584   4.282
   20SOL     OW 1892  10.951   6.367   0.365
   20SOL    HW1 1893  11.015   6.416   0.416
   20SOL    HW2 1894  10.898   6.434   0.322
   21SOL     OW 1895  13.886   3.317   9.374
   21SOL    HW1 1896  13.937   3.282   9.446
   21SOL    HW2 1897  13.837   3.242   9.341
   22SOL     OW 1898  12.945  14.653  11.728
   22SOL    HW1 1899  13.032  14.633  11.763
   22SOL    HW2 1900  12.892  14.674  11.805
   23SOL     OW 1901  14.000  14.360   2.269
   23SOL    HW1 1902  14.070  14.371   2.205
   23SOL    HW2 1903  14.045  14.355   2.353
   24SOL     OW 1904  12.541   6.426   7.037
   24SOL    HW1 1905  12.498   6.415   6.952
   24SOL    HW2 1906  12.473   6.464   7.093
   25SOL     OW 1907  13.493  10.399  14.424
   25SOL    HW1 1908  13.563  10.465  14.430
   25SOL    HW2 1909  13.449  10.418  14.341
   26SOL     OW 1910   4.144  11.224  13.835
   26SOL    HW1 1911   4.177  11.287  13.900
   26SOL    HW2 1912   4.222  11.174  13.810
   27SOL     OW 1913   9.390  13.246  14.855
   27SOL    HW1 1914   9.353  13.189  14.787
   27SOL    HW2 1915   9.326  13.315  14.866
   28SOL     OW 1916   4.352  14.432   8.635
   28SOL    HW1 1917   4.277  14.489   8.622
   28SOL    HW2 1918   4.419  14.466   8.576
   29SOL     OW 1919   8.180  12.954  13.491
   29SOL    HW1 1920   8.144  12.884  13.436
   29SOL    HW2 1921   8.172  12.921  13.581
   30SOL     OW 1922  13.730   4.385   4.359
   30SOL    HW1 1923  13.781   4.460   4.329
   30SOL    HW2 1924  13.724   4.328   4.283
   31SOL     OW 1925  12.583   9.169  11.278
   31SOL    HW1 1926  12.571   9.243  11.218
   31SOL    HW2 1927  12.543   9.198  11.360
   32SOL     OW 1928   8.943   1.437   0.128
   32SOL    HW1 1929   8.886   1.389   0.068
   32SOL    HW2 1930   8.892   1.514   0.153
   33SOL     OW 1931  11.616   6.565  13.889
   33SOL    HW1 1932  11.582   6.483  13.924
   33SOL    HW2 1933  11.669   6.540  13.814
   34SOL     OW 1934  11.124   1.764  13.401
   34SOL    HW1 1935  11.065   1.711  13.455
   34SOL    HW2 1936  11.116   1.852  13.436
   35SOL     OW 1937  13.900   1.086   4.515
   35SOL    HW1 1938  13.993   1.088   4.537
   35SOL    HW2 1939  13.865   1.010   4.561
   36SOL     OW 1940   2.238  10.418   4.575
   36SOL    HW1 1941   2.187  10.488   4.617
   36SOL    HW2 1942   2.259  10.451   4.488
   37SOL     OW 1943   8.227  12.609   9.063
   37SOL    HW1 1944   8.212  12.667   9.137
   37SOL    HW2 1945   8.153  12.548   9.065
   38SOL     OW 1946   4.320   9.705  11.066
   38SOL    HW1 1947   4.410   9.673  11.071
   38SOL    HW2 1948   4.267   9.627  11.061
   39SOL     OW 1949   8.926   4.720  13.345
   39SOL    HW1 1950   8.895   4.757  13.428
   39SOL    HW2 1951   8.880   4.770  13.278
   40SOL     OW 1952   4.946   6.779   2.242
   40SOL    HW1 1953   4.860   6.758   2.277
   40SOL    HW2 1954   4.949   6.874   2.240
   41SOL     OW 1955   8.968   7.689   5.287
   41SOL    HW1 1956   9.048   7.640   5.267
   41SOL    HW2 1957   8.934   7.647   5.366
   42SOL     OW 1958   9.410   1.114   8.978
   42SOL    HW1 1959   9.408   1.210   8.972
   42SOL    HW2 1960   9.442   1.086   8.892
   43SOL     OW 1961   7.421   5.503  10.656
   43SOL    HW1 1962   7.442   5.573  10.594
   43SOL    HW2 1963   7.505   5.462  10.676
   44SOL     OW 1964   4.687   6.659   3.383
   44SOL    HW1 1965   4.781   6.671   3.368
   44SOL    HW2 1966   4.663   6.728   3.445
   45SOL     OW 1967   3.158   7.977  10.555
   45SOL    HW1 1968   3.191   8.025  10.631
   45SOL    HW2 1969   3.232   7.922  10.528
   46SOL     OW 1970   3.019   3.549   0.233
   46SOL    HW1 1971   3.057   3.471   0.193
   46SOL    HW2 1972   2.971   3.593   0.163
   47SOL     OW 1973   3.666  14.508   1.419
   47SOL    HW1 1974   3.713  14.523   1.337
   47SOL    HW2 1975   3.731  14.466   1.476
   48SOL     OW 1976   7.470   1.466   7.451
   48SOL    HW1 1977   7.548   1.486   7.399
   48SOL    HW2 1978   7.490   1.501   7.538
   49SOL     OW 1979   2.789   9.202  12.971
   49SOL    HW1 1980   2.834   9.268  13.023
   49SOL    HW2 1981   2.720   9.169  13.029
   50SOL     OW 1982   3.908   6.933  12.453
   50SOL    HW1 1983   3.951   6.935  12.368
   50SOL    HW2 1984   3.972   6.893  12.512
   51SOL     OW 1985   4.467   6.361   7.949
   51SOL    HW1 1986   4.483   6.363   8.044
   51SOL    HW2 1987   4.372   6.353   7.941
   52SOL     OW 1988   0.156   9.471   8.038
   52SOL    HW1 1989   0.138   9.409   8.109
   52SOL    HW2 1990   0.070   9.493   8.003
   53SOL     OW 1991   1.764  13.490   3.234
   53SOL    HW1 1992   1.751  13.405   3.193
   53SOL    HW2 1993   1.678  13.512   3.271
   54SOL     OW 1994   8.769   3.775   8.833
   54SOL    HW1 1995   8.815   3.728   8.902
   54SOL    HW2 1996   8.687   3.804   8.874
   55SOL     OW 1997   4.198  13.711   7.272
   55SOL    HW1 1998   4.247  13.665   7.204
   55SOL    HW2 1999   4.249  13.790   7.289
   56SOL     OW 2000   9.515   0.739  11.351
   56SOL    HW1 2001   9.514   0.694  11.436
   56SOL    HW2 2002   9.441   0.702  11.303
   57SOL     OW 2003   0.614  10.286   1.329
   57SOL    HW1 2004   0.647  10.285   1.419
   57SOL    HW2 2005   0.592  10.378   1.313
   58SOL     OW 2006   6.496  11.683  11.104
   58SOL    HW1 2007   6.515  11.593  11.132
   58SOL    HW2 2008   6.501  11.734  11.185
   59SOL     OW 2009  12.444   4.119   5.252
   59SOL    HW1 2010  12.401   4.204   5.261
   59SOL    HW2 2011  12.537   4.141   5.243
   60SOL     OW 2012  13.616   2.960  12.567
   60SOL    HW1 2013  13.569   2.899  12.623
   60SOL    HW2 2014  13.707   2.954  12.596
   61SOL     OW 2015   0.108   2.105   3.825
   61SOL    HW1 2016   0.014   2.093   3.808
   61SOL    HW2 2017   0.150   2.035   3.775
   62SOL     OW 2018   9.304   1.984  11.609
   62SOL    HW1 2019   9.266   2.069  11.632
   62SOL    HW2 2020   9.228   1.928  11.590
   63SOL     OW 2021  11.519   6.323  10.732
   63SOL    HW1 2022  11.427   6.348  10.731
   63SOL    HW2 2023  11.566   6.406  10.727
   64SOL     OW 2024   5.557   8.575   6.344
   64SOL    HW1 2025   5.564   8.662   6.382
   64SOL    HW2 2026   5.620   8.575   6.272
   65SOL     OW 2027   1.552   6.938   8.346
   65SOL    HW1 2028   1.584   7.006   8.405
   65SOL    HW2 2029   1.628   6.917   8.291
   66SOL     OW 2030   6.618   0.808  11.034
   66SOL    HW1 2031   6.649   0.886  11.080
   66SOL    HW2 2032   6.577   0.754  11.101
   67SOL     OW 2033  12.821   7.357   2.857
   67SOL    HW1 2034  12.757   7.289   2.833
   67SOL    HW2 2035  12.786   7.437   2.817
   68SOL     OW 2036   6.753   4.448   5.723
   68SOL    HW1 2037   6.743   4.358   5.755
   68SOL    HW2 2038   6.672   4.492   5.748
   69SOL     OW 2039  12.215   6.120   9.279
   69SOL    HW1 2040  12.282   6.177   9.242
   69SOL    HW2 2041  12.138   6.175   9.286
   70SOL     OW 2042   8.173   8.689   2.749
   70SOL    HW1 2043   8.101   8.749   2.771
   70SOL    HW2 2044   8.157   8.667   2.657
   71SOL     OW 2045   5.017   1.237   3.012
   71SOL    HW1 2046   4.957   1.273   3.078
   71SOL    HW2 2047   5.059   1.314   2.973
   72SOL     OW 2048  11.748  11.204   2.448
   72SOL    HW1 2049  11.821  11.209   2.510
   72SOL    HW2 2050  11.733  11.295   2.422
   73SOL     OW 2051   6.823   8.292  12.769
   73SOL    HW1 2052   6.775   8.373  12.749
   73SOL    HW2 2053   6.758   8.222  12.758
   74SOL     OW 2054   5.319  10.451  12.197
   74SOL    HW1 2055   5.266  10.427  12.122
   74SOL    HW2 2056   5.284  10.400  12.270
   75SOL     OW 2057  10.990   5.686   7.821
   75SOL    HW1 2058  11.003   5.761   7.879
   75SOL    HW2 2059  10.913   5.641   7.856
   76SOL     OW 2060  14.219  10.674   1.344
   76SOL    HW1 2061  14.238  10.762   1.377
   76SOL    HW2 2062  14.286  10.619   1.384
   77SOL     OW 2063  12.168   5.598  11.522
   77SOL    HW1 2064  12.098   5.640  11.471
   77SOL    HW2 2065  12.147   5.505  11.519
   78SOL     OW 2066   7.836  12.161   4.823
   78SOL    HW1 2067   7.915  12.196   4.782
   78SOL    HW2 2068   7.764  12.210   4.783
   79SOL     OW 2069   8.034   7.270  11.463
   79SOL    HW1 2070   8.020   7.183  11.425
   79SOL    HW2 2071   8.030   7.329  11.389
   80SOL     OW 2072  12.545  14.688   3.270
   80SOL    HW1 2073  12.509  14.729   3.349
   80SOL    HW2 2074  12.518  14.596   3.277
   81SOL     OW 2075   6.805  14.735   1.733
   81SOL    HW1 2076   6.751  14.811   1.756
   81SOL    HW2 2077   6.756  14.692   1.663
   82SOL     OW 2078  10.539   6.243   1.739
   82SOL    HW1 2079  10.547   6.333   1.708
   82SOL    HW2 2080  10.548   6.189   1.660
   83SOL     OW 2081  10.499  14.130   9.298
   83SOL    HW1 2082  10.519  14.057   9.240
   83SOL    HW2 2083  10.501  14.093   9.386
   84SOL     OW 2084  10.646   7.461  10.353
   84SOL    HW1 2085  10.607   7.461  10.265
   84SOL    HW2 2086  10.577   7.495  10.410
   85SOL     OW 2087  14.146   7.005  11.018
   85SOL    HW1 2088  14.183   7.009  11.106
   85SOL    HW2 2089  14.134   6.911  11.001
   86SOL     OW 2090   1.330   2.979  10.815
   86SOL    HW1 2091   1.349   2.938  10.899
   86SOL    HW2 2092   1.252   3.033  10.831
   87SOL     OW 2093   7.095   2.321  10.128
   87SOL    HW1 2094   7.113   2.402  10.080
   87SOL    HW2 2095   7.102   2.252  10.062
   88SOL     OW 2096  10.511   3.458  10.152
   88SOL    HW1 2097  10.479   3.541  10.189
   88SOL    HW2 2098  10.480   3.459  10.062
   89SOL     OW 2099   4.680   3.015   0.027
   89SOL    HW1 2100   4.701   2.930   0.065
   89SOL    HW2 2101   4.709   3.008  14.815
   90SOL     OW 2102  14.715  14.741   0.301
   90SOL    HW1 2103  14.767  14.794   0.362
   90SOL    HW2 2104  14.773  14.728   0.226
   91SOL     OW 2105   4.724  13.515   5.445
   91SOL    HW1 2106   4.718  13.482   5.535
   91SOL    HW2 2107   4.680  13.601   5.448
   92SOL     OW 2108  13.026  13.294  13.412
   92SOL    HW1 2109  13.107  13.289  13.362
   92SOL    HW2 2110  13.053  13.323  13.499
   93SOL     OW 2111   5.322   4.028   2.826
   93SOL    HW1 2112   5.417   4.040   2.834
   93SOL    HW2 2113   5.313   3.946   2.778
   94SOL     OW 2114   7.282  13.453   1.740
   94SOL    HW1 2115   7.371  13.451   1.706
   94SOL    HW2 2116   7.235  13.388   1.688
   95SOL     OW 2117   5.097  11.266   2.351
   95SOL    HW1 2118   5.085  11.314   2.433
   95SOL    HW2 2119   5.042  11.188   2.362
   96SOL     OW 2120   8.400   7.125   3.757
   96SOL    HW1 2121   8.391   7.178   3.836
   96SOL    HW2 2122   8.339   7.052   3.769
   97SOL     OW 2123   4.815   4.053  10.454
   97SOL    HW1 2124   4.787   4.023  10.540
   97SOL    HW2 2125   4.750   4.119  10.429
   98SOL     OW 2126  10.969   3.657   3.892
   98SOL    HW1 2127  11.013   3.661   3.807
   98SOL    HW2 2128  10.922   3.740   3.899
   99SOL     OW 2129  12.988   8.500   3.054
   99SOL    HW1 2130  13.013   8.584   3.094
   99SOL    HW2 2131  13.031   8.501   2.969
  100SOL     OW 2132   2.302   5.116  12.866
  100SOL    HW1 2133   2.330   5.155  12.949
  100SOL    HW2 2134   2.289   5.191  12.807
  101SOL     OW 2135   8.508  13.714   1.151
  101SOL    HW1 2136   8.512  13.662   1.232
  101SOL    HW2 2137   8.488  13.802   1.181
  102SOL     OW 2138   9.879   6.018   6.892
  102SOL    HW1 2139   9.950   6.082   6.899
  102SOL    HW2 2140   9.864   5.990   6.982
  103SOL     OW 2141  11.400   2.497  10.483
  103SOL    HW1 2142  11.390   2.585  10.518
  103SOL    HW2 2143  11.312   2.472  10.456
  104SOL     OW 2144   1.903   4.951   9.871
  104SOL    HW1 2145   1.845   4.887   9.830
  104SOL    HW2 2146   1.921   5.015   9.803
  105SOL     OW 2147   4.004   7.349  13.104
  105SOL    HW1 2148   4.003   7.287  13.031
  105SOL    HW2 2149   3.942   7.417  13.078
  106SOL     OW 2150   0.737  14.385   9.366
  106SOL    HW1 2151   0.763  14.412   9.278
  106SOL    HW2 2152   0.771  14.454   9.424
  107SOL     OW 2153   5.868   8.328   4.478
  107SOL    HW1 2154   5.852   8.420   4.499
  107SOL    HW2 2155   5.867   8.324   4.382
  108SOL     OW 2156   0.910   0.915   4.996
  108SOL    HW1 2157   0.979   0.851   4.981
  108SOL    HW2 2158   0.866   0.884   5.075
  109SOL     OW 2159   1.604  10.340  11.366
  109SOL    HW1 2160   1.522  10.335  11.317
  109SOL    HW2 2161   1.610  10.431  11.393
  110SOL     OW 2162   8.268   1.168   6.308
  110SOL    HW1 2163   8.279   1.198   6.218
  110SOL    HW2 2164   8.253   1.248   6.359
  111SOL     OW 2165  11.650  11.591  10.346
  111SOL    HW1 2166  11.564  11.561  10.375
  111SOL    HW2 2167  11.643  11.687  10.345
  112SOL     OW 2168  12.592   4.805  12.482
  112SOL    HW1 2169  12.512   4.857  12.476
  112SOL    HW2 2170  12.651   4.857  12.536
  113SOL     OW 2171  10.559   2.576   3.565
  113SOL    HW1 2172  10.502   2.557   3.639
  113SOL    HW2 2173  10.648   2.567   3.600
  114SOL     OW 2174   7.498  13.256   4.334
  114SOL    HW1 2175   7.408  13.285   4.316
  114SOL    HW2 2176   7.532  13.322   4.395
  115SOL     OW 2177   8.536   4.138   4.529
  115SOL    HW1 2178   8.593   4.209   4.557
  115SOL    HW2 2179   8.541   4.139   4.434
  116SOL     OW 2180   3.924  10.043   9.908
  116SOL    HW1 2181   3.838  10.023   9.944
  116SOL    HW2 2182   3.946   9.967   9.854
  117SOL     OW 2183  10.384   9.373   0.240
  117SOL    HW1 2184  10.304   9.322   0.226
  117SOL    HW2 2185  10.357   9.444   0.298
  118SOL     OW 2186   4.518   8.827  11.855
  118SOL    HW1 2187   4.452   8.895  11.841
  118SOL    HW2 2188   4.498   8.792  11.942
  119SOL     OW 2189  12.948  12.448   5.806
  119SOL    HW1 2190  12.874  12.502   5.778
  119SOL    HW2 2191  13.020  12.474   5.749
  120SOL     OW 2192  10.861   4.753  13.637
  120SOL    HW1 2193  10.865   4.715  13.549
  120SOL    HW2 2194  10.952   4.765  13.662
  121SOL     OW 2195  10.026   3.123  10.897
  121SOL    HW1 2196   9.954   3.080  10.943
  121SOL    HW2 2197  10.000   3.215  10.893
  122SOL     OW 2198   3.329   3.655   5.260
  122SOL    HW1 2199   3.259   3.640   5.323
  122SOL    HW2 2200   3.381   3.726   5.299
  123SOL     OW 2201   2.862   1.327   4.994
  123SOL    HW1 2202   2.787   1.364   5.039
  123SOL    HW2 2203   2.840   1.333   4.901
  124SOL     OW 2204   6.874   1.654   8.471
  124SOL    HW1 2205   6.948   1.712   8.452
  124SOL    HW2 2206   6.881   1.585   8.404
  125SOL     OW 2207   0.537   3.685   8.569
  125SOL    HW1 2208   0.534   3.780   8.585
  125SOL    HW2 2209   0.626   3.660   8.591
  126SOL     OW 2210  13.555   0.630   3.140
  126SOL    HW1 2211  13.533   0.722   3.126
  126SOL    HW2 2212  13.649   0.625   3.123
  127SOL     OW 2213  11.047   0.445  12.338
  127SOL    HW1 2214  10.979   0.478  12.279
  127SOL    HW2 2215  11.011   0.364  12.374
  128SOL     OW 2216   3.984   6.483   0.632
  128SOL    HW1 2217   3.921   6.505   0.564
  128SOL    HW2 2218   4.014   6.568   0.665
  129SOL     OW 2219  12.350   3.833   2.783
  129SOL    HW1 2220  12.376   3.866   2.869
  129SOL    HW2 2221  12.432   3.805   2.743
  130SOL     OW 2222   0.549   1.632   0.451
  130SOL    HW1 2223   0.522   1.552   0.407
  130SOL    HW2 2224   0.469   1.666   0.491
  131SOL     OW 2225  12.579   9.177  12.526
  131SOL    HW1 2226  12.586   9.112  12.456
  131SOL    HW2 2227  12.552   9.257  12.482
  132SOL     OW 2228  14.853   3.241   7.472
  132SOL    HW1 2229  14.874   3.334   7.461
  132SOL    HW2 2230  14.779   3.240   7.534
  133SOL     OW 2231  13.952   3.289   2.114
  133SOL    HW1 2232  14.025   3.336   2.155
  133SOL    HW2 2233  13.987   3.260   2.030
  134SOL     OW 2234   0.612   2.145   0.949
  134SOL    HW1 2235   0.617   2.224   0.895
  134SOL    HW2 2236   0.542   2.164   1.012
  135SOL     OW 2237   8.126  14.207  10.953
  135SOL    HW1 2238   8.182  14.228  10.878
  135SOL    HW2 2239   8.183  14.159  11.013
  136SOL     OW 2240  12.686   0.254  11.575
  136SOL    HW1 2241  12.704   0.185  11.510
  136SOL    HW2 2242  12.612   0.221  11.626
  137SOL     OW 2243   5.282  13.356   0.379
  137SOL    HW1 2244   5.196  13.394   0.362
  137SOL    HW2 2245   5.287  13.353   0.475
  138SOL     OW 2246   9.214   4.825   8.573
  138SOL    HW1 2247   9.300   4.817   8.613
  138SOL    HW2 2248   9.186   4.915   8.593
  139SOL     OW 2249  10.646   4.709   3.847
  139SOL    HW1 2250  10.679   4.799   3.850
  139SOL    HW2 2251  10.716   4.659   3.805
  140SOL     OW 2252   1.226   5.105  13.721
  140SOL    HW1 2253   1.249   5.030  13.776
  140SOL    HW2 2254   1.207   5.066  13.636
  141SOL     OW 2255  10.434   3.153  13.545
  141SOL    HW1 2256  10.372   3.208  13.592
  141SOL    HW2 2257  10.484   3.214  13.490
  142SOL     OW 2258   5.562  14.537   2.002
  142SOL    HW1 2259   5.559  14.571   2.092
  142SOL    HW2 2260   5.638  14.479   2.001
  143SOL     OW 2261   7.726   3.169   8.452
  143SOL    HW1 2262   7.763   3.157   8.539
  143SOL    HW2 2263   7.799   3.201   8.398
  144SOL     OW 2264  11.395   5.881  12.932
  144SOL    HW1 2265  11.451   5.804  12.925
  144SOL    HW2 2266  11.383   5.909  12.842
  145SOL     OW 2267   3.546   1.587   0.326
  145SOL    HW1 2268   3.509   1.549   0.246
  145SOL    HW2 2269   3.630   1.542   0.337
  146SOL     OW 2270   8.985   8.897   8.556
  146SOL    HW1 2271   8.922   8.825   8.557
  146SOL    HW2 2272   8.945   8.963   8.499
  147SOL     OW 2273   8.630   7.849   7.542
  147SOL    HW1 2274   8.556   7.901   7.574
  147SOL    HW2 2275   8.599   7.810   7.460
  148SOL     OW 2276   8.274   7.702   8.640
  148SOL    HW1 2277   8.278   7.758   8.718
  148SOL    HW2 2278   8.247   7.761   8.570
  149SOL     OW 2279  14.637   1.647  14.426
  149SOL    HW1 2280  14.658   1.579  14.490
  149SOL    HW2 2281  14.550   1.623  14.393
  150SOL     OW 2282   7.296   3.893   9.833
  150SOL    HW1 2283   7.336   3.973   9.867
  150SOL    HW2 2284   7.294   3.905   9.738
  151SOL     OW 2285   6.939  11.819  11.648
  151SOL    HW1 2286   6.845  11.807  11.633
  151SOL    HW2 2287   6.948  11.814  11.743
  152SOL     OW 2288   8.704   6.665   4.677
  152SOL    HW1 2289   8.664   6.684   4.761
  152SOL    HW2 2290   8.710   6.749   4.633
  153SOL     OW 2291  12.054   4.603   4.676
  153SOL    HW1 2292  12.075   4.690   4.640
  153SOL    HW2 2293  12.139   4.566   4.699
  154SOL     OW 2294   9.194   4.629   9.442
  154SOL    HW1 2295   9.111   4.671   9.421
  154SOL    HW2 2296   9.217   4.663   9.528
  155SOL     OW 2297   2.097   6.517   9.989
  155SOL    HW1 2298   2.038   6.454  10.031
  155SOL    HW2 2299   2.112   6.482   9.901
  156SOL     OW 2300   8.836   7.980   6.424
  156SOL    HW1 2301   8.792   7.913   6.371
  156SOL    HW2 2302   8.847   7.939   6.510
  157SOL     OW 2303  14.854  12.461   6.733
  157SOL    HW1 2304  14.810  12.382   6.704
  157SOL    HW2 2305  14.786  12.529   6.729
  158SOL     OW 2306   8.339   4.213   2.633
  158SOL    HW1 2307   8.398   4.265   2.687
  158SOL    HW2 2308   8.397   4.168   2.571
  159SOL     OW 2309  13.710   8.997   5.617
  159SOL    HW1 2310  13.688   9.080   5.659
  159SOL    HW2 2311  13.750   8.944   5.686
  160SOL     OW 2312   4.511  14.056   8.428
  160SOL    HW1 2313   4.468  14.013   8.502
  160SOL    HW2 2314   4.596  14.083   8.463
  161SOL     OW 2315   8.347   0.119   9.056
  161SOL    HW1 2316   8.283   0.082   9.117
  161SOL    HW2 2317   8.422   0.143   9.112
  162SOL     OW 2318   9.826   3.360   7.368
  162SOL    HW1 2319   9.873   3.381   7.449
  162SOL    HW2 2320   9.783   3.276   7.386
  163SOL     OW 2321  12.454  10.189   5.842
  163SOL    HW1 2322  12.394  10.235   5.784
  163SOL    HW2 2323  12.410  10.107   5.864
  164SOL     OW 2324   7.070   8.204   5.506
  164SOL    HW1 2325   7.055   8.284   5.557
  164SOL    HW2 2326   6.988   8.156   5.511
  165SOL     OW 2327   9.384  11.973   0.836
  165SOL    HW1 2328   9.436  12.007   0.763
  165SOL    HW2 2329   9.400  11.879   0.835
  166SOL     OW 2330  13.700  12.882   9.362
  166SOL    HW1 2331  13.788  12.863   9.397
  166SOL    HW2 2332  13.709  12.967   9.319
  167SOL     OW 2333   4.275   5.773   3.977
  167SOL    HW1 2334   4.329   5.852   3.965
  167SOL    HW2 2335   4.304   5.736   4.060
  168SOL     OW 2336  13.886  11.914   6.955
  168SOL    HW1 2337  13.915  11.911   6.863
  168SOL    HW2 2338  13.852  11.826   6.972
  169SOL     OW 2339   9.915   5.707   1.068
  169SOL    HW1 2340   9.944   5.798   1.069
  169SOL    HW2 2341   9.859   5.700   0.991
  170SOL     OW 2342  14.017   5.308   1.219
  170SOL    HW1 2343  13.982   5.370   1.283
  170SOL    HW2 2344  14.015   5.224   1.265
  171SOL     OW 2345   6.155   0.712   2.150
  171SOL    HW1 2346   6.076   0.665   2.123
  171SOL    HW2 2347   6.214   0.644   2.182
  172SOL     OW 2348   4.808   3.146   7.720
  172SOL    HW1 2349   4.765   3.114   7.641
  172SOL    HW2 2350   4.804   3.241   7.713
  173SOL     OW 2351   0.512  14.329   7.419
  173SOL    HW1 2352   0.487  14.326   7.326
  173SOL    HW2 2353   0.434  14.297   7.465
  174SOL     OW 2354   8.974  13.259  11.505
  174SOL    HW1 2355   9.067  13.237  11.494
  174SOL    HW2 2356   8.969  13.353  11.487
  175SOL     OW 2357   2.563  14.862   8.150
  175SOL    HW1 2358   2.630  14.836   8.086
  175SOL    HW2 2359   2.609  14.863   8.234
  176SOL     OW 2360   4.831  14.027   8.248
  176SOL    HW1 2361   4.877  13.972   8.184
  176SOL    HW2 2362   4.798  14.101   8.196
  177SOL     OW 2363   6.255   2.118   3.556
  177SOL    HW1 2364   6.235   2.025   3.568
  177SOL    HW2 2365   6.188   2.164   3.606
  178SOL     OW 2366   0.409  11.921   4.522
  178SOL    HW1 2367   0.388  11.978   4.595
  178SOL    HW2 2368   0.337  11.858   4.518
  179SOL     OW 2369   1.717   8.399   9.494
  179SOL    HW1 2370   1.758   8.435   9.573
  179SOL    HW2 2371   1.779   8.416   9.424
  180SOL     OW 2372  14.136   5.418  13.462
  180SOL    HW1 2373  14.106   5.480  13.396
  180SOL    HW2 2374  14.057   5.394  13.511
  181SOL     OW 2375   5.655   7.805  11.404
  181SOL    HW1 2376   5.619   7.770  11.485
  181SOL    HW2 2377   5.587   7.789  11.339
  182SOL     OW 2378   1.985   7.084   1.169
  182SOL    HW1 2379   1.982   7.135   1.087
  182SOL    HW2 2380   1.894   7.061   1.186
  183SOL     OW 2381   7.354   3.077  11.686
  183SOL    HW1 2382   7.421   3.018  11.654
  183SOL    HW2 2383   7.389   3.112  11.768
  184SOL     OW 2384   8.274   0.206   3.301
  184SOL    HW1 2385   8.316   0.136   3.252
  184SOL    HW2 2386   8.181   0.198   3.280
  185SOL     OW 2387   7.005   0.141   1.591
  185SOL    HW1 2388   7.029   0.225   1.630
  185SOL    HW2 2389   6.961   0.165   1.509
  186SOL     OW 2390  12.512   0.638   2.114
  186SOL    HW1 2391  12.482   0.555   2.077
  186SOL    HW2 2392  12.593   0.657   2.066
  187SOL     OW 2393   0.253   7.828  13.968
  187SOL    HW1 2394   0.340   7.856  13.995
  187SOL    HW2 2395   0.213   7.907  13.932
  188SOL     OW 2396   9.963   8.850  13.202
  188SOL    HW1 2397   9.976   8.760  13.171
  188SOL    HW2 2398   9.912   8.841  13.282
  189SOL     OW 2399   5.716  12.154   1.491
  189SOL    HW1 2400   5.635  12.189   1.453
  189SOL    HW2 2401   5.753  12.227   1.540
  190SOL     OW 2402  12.624   8.576   9.118
  190SOL    HW1 2403  12.581   8.588   9.203
  190SOL    HW2 2404  12.568   8.515   9.071
  191SOL     OW 2405  13.045  11.429   9.369
  191SOL    HW1 2406  12.966  11.412   9.421
  191SOL    HW2 2407  13.110  11.456   9.434
  192SOL     OW 2408   7.790   7.188   6.199
  192SOL    HW1 2409   7.854   7.121   6.172
  192SOL    HW2 2410   7.705   7.145   6.188
  193SOL     OW 2411   2.259   9.355  12.773
  193SOL    HW1 2412   2.232   9.374  12.683
  193SOL    HW2 2413   2.309   9.432  12.800
  194SOL     OW 2414  10.192   1.738   9.015
  194SOL    HW1 2415  10.212   1.701   8.929
  194SOL    HW2 2416  10.277   1.740   9.060
  195SOL     OW 2417   6.791  10.547   7.395
  195SOL    HW1 2418   6.701  10.570   7.420
  195SOL    HW2 2419   6.841  10.555   7.476
  196SOL     OW 2420   4.544   8.850   3.465
  196SOL    HW1 2421   4.543   8.801   3.548
  196SOL    HW2 2422   4.507   8.936   3.487
  197SOL     OW 2423   8.982   3.877   6.115
  197SOL    HW1 2424   9.001   3.963   6.076
  197SOL    HW2 2425   8.960   3.822   6.040
  198SOL     OW 2426   9.337   0.167   1.807
  198SOL    HW1 2427   9.317   0.214   1.888
  198SOL    HW2 2428   9.258   0.117   1.787
  199SOL     OW 2429  12.144   4.501  12.975
  199SOL    HW1 2430  12.180   4.413  12.983
  199SOL    HW2 2431  12.062   4.498  13.024
  200SOL     OW 2432   4.823   1.215  14.008
  200SOL    HW1 2433   4.828   1.124  14.038
  200SOL    HW2 2434   4.731   1.227  13.982
  201SOL     OW 2435   8.364   8.992   4.883
  201SOL    HW1 2436   8.431   9.060   4.894
  201SOL    HW2 2437   8.330   8.978   4.971
  202SOL     OW 2438   9.844  14.505  12.312
  202SOL    HW1 2439   9.838  14.539  12.223
  202SOL    HW2 2440   9.870  14.414  12.301
  203SOL     OW 2441  13.043  14.597   3.408
  203SOL    HW1 2442  13.101  14.672   3.394
  203SOL    HW2 2443  12.987  14.596   3.330
  204SOL     OW 2444  12.888   2.865   1.119
  204SOL    HW1 2445  12.927   2.828   1.040
  204SOL    HW2 2446  12.909   2.958   1.115
  205SOL     OW 2447   4.990  11.937   4.814
  205SOL    HW1 2448   4.952  11.969   4.896
  205SOL    HW2 2449   4.938  11.979   4.745
  206SOL     OW 2450   3.811   8.187   4.841
  206SOL    HW1 2451   3.767   8.237   4.772
  206SOL    HW2 2452   3.855   8.115   4.794
  207SOL     OW 2453   3.508   6.464  10.221
  207SOL    HW1 2454   3.414   6.446  10.215
  207SOL    HW2 2455   3.547   6.410  10.152
  208SOL     OW 2456  11.581   6.853   1.349
  208SOL    HW1 2457  11.564   6.946   1.357
  208SOL    HW2 2458  11.583   6.837   1.255
  209SOL     OW 2459   6.750  11.272   9.050
  209SOL    HW1 2460   6.764  11.190   9.003
  209SOL    HW2 2461   6.809  11.335   9.008
  210SOL     OW 2462  12.245   8.065   8.422
  210SOL    HW1 2463  12.282   8.152   8.433
  210SOL    HW2 2464  12.168   8.078   8.367
  211SOL     OW 2465  10.204   1.056  10.638
  211SOL    HW1 2466  10.189   1.039  10.545
  211SOL    HW2 2467  10.297   1.036  10.651
  212SOL     OW 2468  10.457   1.672   1.372
  212SOL    HW1 2469  10.413   1.750   1.406
  212SOL    HW2 2470  10.451   1.680   1.277
  213SOL     OW 2471   5.244  10.244   9.847
  213SOL    HW1 2472   5.328  10.205   9.824
  213SOL    HW2 2473   5.233  10.225   9.940
  214SOL     OW 2474  11.062   1.224  12.366
  214SOL    HW1 2475  11.004   1.270  12.425
  214SOL    HW2 2476  11.012   1.214  12.285
  215SOL     OW 2477  13.141   0.276   4.262
  215SOL    HW1 2478  13.131   0.260   4.356
  215SOL    HW2 2479  13.169   0.367   4.256
  216SOL     OW 2480   2.006  14.360   2.521
  216SOL    HW1 2481   1.925  14.392   2.480
  216SOL    HW2 2482   2.056  14.439   2.540
  217SOL     OW 2483   3.465   5.073   7.006
  217SOL    HW1 2484   3.416   4.991   7.013
  217SOL    HW2 2485   3.443   5.108   6.920
  218SOL     OW 2486  14.027  14.067   1.086
  218SOL    HW1 2487  14.076  14.086   1.006
  218SOL    HW2 2488  14.036  14.146   1.139
  219SOL     OW 2489  11.391   8.684  10.182
  219SOL    HW1 2490  11.462   8.737  10.144
  219SOL    HW2 2491  11.429   8.596  10.189
  220SOL     OW 2492  12.752  11.937   6.862
  220SOL    HW1 2493  12.673  11.983   6.889
  220SOL    HW2 2494  12.721  11.870   6.801
  221SOL     OW 2495   5.204   0.782   0.710
  221SOL    HW1 2496   5.233   0.870   0.686
  221SOL    HW2 2497   5.284   0.737   0.737
  222SOL     OW 2498   1.716   7.672   1.786
  222SOL    HW1 2499   1.787   7.611   1.770
  222SOL    HW2 2500   1.715   7.684   1.881
  223SOL     OW 2501   2.434  12.944   6.465
  223SOL    HW1 2502   2.345  12.958   6.433
  223SOL    HW2 2503   2.445  13.007   6.536
  224SOL     OW 2504   0.929   0.162  12.002
  224SOL    HW1 2505   0.952   0.254  12.016
  224SOL    HW2 2506   0.907   0.157  11.909
  225SOL     OW 2507   3.399  13.615  11.791
  225SOL    HW1 2508   3.325  13.650  11.841
  225SOL    HW2 2509   3.362  13.591  11.706
  226SOL     OW 2510   3.908  13.508  11.114
  226SOL    HW1 2511   3.850  13.551  11.052
  226SOL    HW2 2512   3.856  13.435  11.148
  227SOL     OW 2513   3.398  14.324   3.858
  227SOL    HW1 2514   3.355  14.274   3.789
  227SOL    HW2 2515   3.424  14.406   3.816
  228SOL     OW 2516   7.991   3.767  14.058
  228SOL    HW1 2517   7.899   3.753  14.037
  228SOL    HW2 2518   7.998   3.748  14.152
  229SOL     OW 2519   5.982   7.496  14.582
  229SOL    HW1 2520   5.937   7.580  14.573
  229SOL    HW2 2521   5.928   7.435  14.531
  230SOL     OW 2522  13.028  12.313  12.688
  230SOL    HW1 2523  13.103  12.369  12.707
  230SOL    HW2 2524  13.049  12.274  12.603
  231SOL     OW 2525   5.810   7.589   8.471
  231SOL    HW1 2526   5.718   7.617   8.474
  231SOL    HW2 2527   5.834   7.579   8.563
  232SOL     OW 2528   2.590   5.258   9.451
  232SOL    HW1 2529   2.612   5.326   9.387
  232SOL    HW2 2530   2.629   5.289   9.533
  233SOL     OW 2531   0.862   7.448  10.704
  233SOL    HW1 2532   0.826   7.535  10.722
  233SOL    HW2 2533   0.814   7.419  10.626
  234SOL     OW 2534   1.060   9.923   0.673
  234SOL    HW1 2535   1.098   9.897   0.757
  234SOL    HW2 2536   1.030  10.013   0.686
  235SOL     OW 2537   1.827   2.373  13.712
  235SOL    HW1 2538   1.844   2.287  13.750
  235SOL    HW2 2539   1.903   2.425  13.734
  236SOL     OW 2540   2.800  11.826   8.770
  236SOL    HW1 2541   2.749  11.815   8.689
  236SOL    HW2 2542   2.743  11.879   8.826
  237SOL     OW 2543   1.505   7.721   1.153
  237SOL    HW1 2544   1.527   7.640   1.107
  237SOL    HW2 2545   1.507   7.697   1.246
  238SOL     OW 2546  13.807   2.635   1.519
  238SOL    HW1 2547  13.797   2.561   1.580
  238SOL    HW2 2548  13.802   2.595   1.432
  239SOL     OW 2549   9.363  10.218  14.000
  239SOL    HW1 2550   9.449  10.244  14.032
  239SOL    HW2 2551   9.340  10.286  13.937
  240SOL     OW 2552  11.278   3.124  13.716
  240SOL    HW1 2553  11.187   3.137  13.743
  240SOL    HW2 2554  11.319   3.083  13.793
  241SOL     OW 2555  14.425  10.671   7.091
  241SOL    HW1 2556  14.484  10.596   7.101
  241SOL    HW2 2557  14.400  10.694   7.180
  242SOL     OW 2558   0.079   2.827   9.401
  242SOL    HW1 2559   0.103   2.736   9.416
  242SOL    HW2 2560  14.866   2.832   9.427
  243SOL     OW 2561   8.011   3.638   1.836
  243SOL    HW1 2562   8.048   3.642   1.924
  243SOL    HW2 2563   8.086   3.621   1.779
  244SOL     OW 2564   1.088   2.992   8.495
  244SOL    HW1 2565   1.048   2.949   8.420
  244SOL    HW2 2566   1.017   2.998   8.559
  245SOL     OW 2567  12.724   1.516   4.551
  245SOL    HW1 2568  12.810   1.542   4.518
  245SOL    HW2 2569  12.674   1.597   4.556
  246SOL     OW 2570  10.992   6.965   9.558
  246SOL    HW1 2571  11.001   7.060   9.565
  246SOL    HW2 2572  10.988   6.935   9.648
  247SOL     OW 2573   8.023   1.288   7.271
  247SOL    HW1 2574   7.934   1.252   7.272
  247SOL    HW2 2575   8.044   1.302   7.363
  248SOL     OW 2576   9.898   0.571   9.597
  248SOL    HW1 2577   9.973   0.606   9.548
  248SOL    HW2 2578   9.879   0.638   9.663
  249SOL     OW 2579   1.431   5.366   9.830
  249SOL    HW1 2580   1.383   5.397   9.753
  249SOL    HW2 2581   1.378   5.294   9.864
  250SOL     OW 2582   1.863  11.599   8.824
  250SOL    HW1 2583   1.935  11.618   8.884
  250SOL    HW2 2584   1.823  11.684   8.806
  251SOL     OW 2585  10.494   1.218   1.174
  251SOL    HW1 2586  10.581   1.198   1.140
  251SOL    HW2 2587  10.450   1.133   1.179
  252SOL     OW 2588   7.626  13.823   8.273
  252SOL    HW1 2589   7.592  13.760   8.336
  252SOL    HW2 2590   7.570  13.900   8.283
  253SOL     OW 2591   7.531   7.741  10.446
  253SOL    HW1 2592   7.617   7.782  10.442
  253SOL    HW2 2593   7.472   7.813  10.471
  254SOL     OW 2594  10.711   2.191   4.574
  254SOL    HW1 2595  10.705   2.218   4.482
  254SOL    HW2 2596  10.689   2.098   4.573
  255SOL     OW 2597   4.334  13.082   5.292
  255SOL    HW1 2598   4.299  13.166   5.264
  255SOL    HW2 2599   4.305  13.073   5.383
  256SOL     OW 2600  14.212   4.247  10.158
  256SOL    HW1 2601  14.217   4.151  10.157
  256SOL    HW2 2602  14.125   4.267  10.124
  257SOL     OW 2603   0.937   5.386   6.252
  257SOL    HW1 2604   0.974   5.379   6.165
  257SOL    HW2 2605   0.845   5.361   6.241
  258SOL     OW 2606   1.359   9.348   0.952
  258SOL    HW1 2607   1.392   9.297   0.877
  258SOL    HW2 2608   1.268   9.366   0.930
  259SOL     OW 2609   9.881   3.856   4.206
  259SOL    HW1 2610   9.920   3.930   4.159
  259SOL    HW2 2611   9.788   3.877   4.211
  260SOL     OW 2612   1.435  12.314   9.974
  260SOL    HW1 2613   1.388  12.380   9.924
  260SOL    HW2 2614   1.368  12.251   9.999
  261SOL     OW 2615   3.243  14.138   1.642
  261SOL    HW1 2616   3.175  14.074   1.665
  261SOL    HW2 2617   3.325  14.094   1.663
  262SOL     OW 2618   5.736  14.072   1.165
  262SOL    HW1 2619   5.726  14.167   1.170
  262SOL    HW2 2620   5.760  14.046   1.253
  263SOL     OW 2621   9.697   2.538   6.294
  263SOL    HW1 2622   9.606   2.543   6.262
  263SOL    HW2 2623   9.750   2.550   6.215
  264SOL     OW 2624   9.085   5.685  10.091
  264SOL    HW1 2625   9.101   5.777  10.109
  264SOL    HW2 2626   9.043   5.683  10.006
  265SOL     OW 2627   5.988  12.920   6.344
  265SOL    HW1 2628   6.063  12.868   6.316
  265SOL    HW2 2629   5.920  12.901   6.279
  266SOL     OW 2630   9.936   9.180   4.775
  266SOL    HW1 2631   9.904   9.092   4.795
  266SOL    HW2 2632   9.980   9.171   4.690
  267SOL     OW 2633  14.399   1.126  11.663
  267SOL    HW1 2634  14.476   1.154  11.614
  267SOL    HW2 2635  14.418   1.149  11.754
  268SOL     OW 2636   1.708  10.373  13.079
  268SOL    HW1 2637   1.780  10.386  13.141
  268SOL    HW2 2638   1.644  10.320  13.128
  269SOL     OW 2639   7.367  10.689  11.142
  269SOL    HW1 2640   7.297  10.723  11.197
  269SOL    HW2 2641   7.341  10.714  11.053
  270SOL     OW 2642  14.322   7.117  14.872
  270SOL    HW1 2643  14.247   7.110  14.813
  270SOL    HW2 2644  14.352   7.027   0.004
  271SOL     OW 2645   2.023   4.967   8.020
  271SOL    HW1 2646   2.009   4.922   8.104
  271SOL    HW2 2647   1.947   4.942   7.967
  272SOL     OW 2648  10.531   4.645  14.823
  272SOL    HW1 2649  10.590   4.647   0.019
  272SOL    HW2 2650  10.577   4.592  14.758
  273SOL     OW 2651  12.840  10.212   6.035
  273SOL    HW1 2652  12.926  10.204   6.076
  273SOL    HW2 2653  12.816  10.304   6.046
  274SOL     OW 2654   5.630   4.995   1.263
  274SOL    HW1 2655   5.718   5.019   1.232
  274SOL    HW2 2656   5.615   5.053   1.338
  275SOL     OW 2657   3.676   8.586  10.255
  275SOL    HW1 2658   3.679   8.681  10.253
  275SOL    HW2 2659   3.602   8.565  10.312
  276SOL     OW 2660   7.299  13.250   7.603
  276SOL    HW1 2661   7.287  13.328   7.659
  276SOL    HW2 2662   7.367  13.200   7.647
  277SOL     OW 2663  10.599  12.219   0.698
  277SOL    HW1 2664  10.600  12.124   0.715
  277SOL    HW2 2665  10.690  12.246   0.712
  278SOL     OW 2666  14.750   9.453  10.587
  278SOL    HW1 2667  14.769   9.444  10.680
  278SOL    HW2 2668  14.716   9.367  10.561
  279SOL     OW 2669  13.401   8.693  10.973
  279SOL    HW1 2670  13.396   8.760  10.905
  279SOL    HW2 2671  13.443   8.619  10.930
  280SOL     OW 2672   7.007  11.815   4.150
  280SOL    HW1 2673   6.960  11.830   4.068
  280SOL    HW2 2674   7.011  11.901   4.192
  281SOL     OW 2675  13.878  14.260   9.992
  281SOL    HW1 2676  13.890  14.172   9.958
  281SOL    HW2 2677  13.823  14.248  10.069
  282SOL     OW 2678  11.056  12.171   7.719
  282SOL    HW1 2679  11.005  12.142   7.643
  282SOL    HW2 2680  11.023  12.118   7.791
  283SOL     OW 2681  11.096  11.118  11.817
  283SOL    HW1 2682  11.188  11.139  11.806
  283SOL    HW2 2683  11.054  11.144  11.735
  284SOL     OW 2684   0.294   0.405  11.361
  284SOL    HW1 2685   0.315   0.312  11.369
  284SOL    HW2 2686   0.241   0.412  11.282
  285SOL     OW 2687   6.396   0.686  10.091
  285SOL    HW1 2688   6.370   0.707  10.180
  285SOL    HW2 2689   6.484   0.651  10.099
  286SOL     OW 2690  10.488  13.970  11.304
  286SOL    HW1 2691  10.581  13.960  11.324
  286SOL    HW2 2692  10.444  13.917  11.370
  287SOL     OW 2693  12.149   0.699   0.543
  287SOL    HW1 2694  12.140   0.612   0.581
  287SOL    HW2 2695  12.183   0.753   0.614
  288SOL     OW 2696   5.309   2.213   2.545
  288SOL    HW1 2697   5.274   2.189   2.460
  288SOL    HW2 2698   5.328   2.307   2.538
  289SOL     OW 2699  12.397   6.542  12.169
  289SOL    HW1 2700  12.326   6.516  12.110
  289SOL    HW2 2701  12.380   6.495  12.250
  290SOL     OW 2702  13.594   8.017  10.050
  290SOL    HW1 2703  13.577   8.008  10.144
  290SOL    HW2 2704  13.544   7.946  10.010
  291SOL     OW 2705   0.911  14.567  10.411
  291SOL    HW1 2706   0.964  14.567  10.332
  291SOL    HW2 2707   0.964  14.520  10.476
  292SOL     OW 2708   6.752   1.684   9.246
  292SOL    HW1 2709   6.788   1.620   9.186
  292SOL    HW2 2710   6.751   1.766   9.197
  293SOL     OW 2711   5.579  10.009   7.098
  293SOL    HW1 2712   5.608   9.918   7.103
  293SOL    HW2 2713   5.587  10.042   7.188
  294SOL     OW 2714   2.476   1.012   8.937
  294SOL    HW1 2715   2.388   1.016   8.899
  294SOL    HW2 2716   2.464   1.040   9.028
  295SOL     OW 2717  10.469  14.651  12.114
  295SOL    HW1 2718  10.557  14.614  12.122
  295SOL    HW2 2719  10.416  14.600  12.176
  296SOL     OW 2720   8.269  12.336  13.853
  296SOL    HW1 2721   8.319  12.417  13.847
  296SOL    HW2 2722   8.274  12.312  13.945
  297SOL     OW 2723  14.561   2.561   8.323
  297SOL    HW1 2724  14.637   2.601   8.365
  297SOL    HW2 2725  14.592   2.536   8.236
  298SOL     OW 2726  13.725  13.914  13.516
  298SOL    HW1 2727  13.746  14.000  13.550
  298SOL    HW2 2728  13.702  13.862  13.594
  299SOL     OW 2729   8.239  10.916   8.621
  299SOL    HW1 2730   8.235  10.947   8.531
  299SOL    HW2 2731   8.319  10.956   8.656
  300SOL     OW 2732  12.627   5.697   6.628
  300SOL    HW1 2733  12.623   5.751   6.549
  300SOL    HW2 2734  12.679   5.749   6.690
  301SOL     OW 2735  12.325   0.529   7.010
  301SOL    HW1 2736  12.277   0.552   6.931
  301SOL    HW2 2737  12.258   0.523   7.078
  302SOL     OW 2738   9.929  13.579   3.770
  302SOL    HW1 2739  10.017  13.615   3.759
  302SOL    HW2 2740   9.886  13.638   3.832
  303SOL     OW 2741   6.136  13.447   2.613
  303SOL    HW1 2742   6.142  13.394   2.693
  303SOL    HW2 2743   6.065  13.407   2.563
  304SOL     OW 2744   4.821   2.292  12.211
  304SOL    HW1 2745   4.886   2.253  12.153
  304SOL    HW2 2746   4.737   2.269  12.173
  305SOL     OW 2747   5.937   1.795   2.105
  305SOL    HW1 2748   5.964   1.748   2.185
  305SOL    HW2 2749   6.012   1.784   2.046
  306SOL     OW 2750   8.699   0.942   7.013
  306SOL    HW1 2751   8.696   0.965   6.920
  306SOL    HW2 2752   8.790   0.957   7.038
  307SOL     OW 2753  13.297   5.395   2.968
  307SOL    HW1 2754  13.209   5.386   2.930
  307SOL    HW2 2755  13.293   5.344   3.049
  308SOL     OW 2756  12.488  11.397  10.982
  308SOL    HW1 2757  12.524  11.430  11.065
  308SOL    HW2 2758  12.558  11.410  10.919
  309SOL     OW 2759   1.686  13.059   2.640
  309SOL    HW1 2760   1.720  13.067   2.729
  309SOL    HW2 2761   1.592  13.069   2.648
  310SOL     OW 2762   0.122  10.566   5.370
  310SOL    HW1 2763   0.084  10.650   5.394
  310SOL    HW2 2764   0.196  10.555   5.429
  311SOL     OW 2765   4.238  14.852   4.871
  311SOL    HW1 2766   4.172  14.826   4.935
  311SOL    HW2 2767   4.238  14.780   4.807
  312SOL     OW 2768   1.345   3.403  14.145
  312SOL    HW1 2769   1.307   3.399  14.233
  312SOL    HW2 2770   1.413   3.336  14.145
  313SOL     OW 2771   6.886  12.408   8.095
  313SOL    HW1 2772   6.975  12.436   8.073
  313SOL    HW2 2773   6.865  12.457   8.174
  314SOL     OW 2774  10.356   0.719  10.135
  314SOL    HW1 2775  10.448   0.693  10.132
  314SOL    HW2 2776  10.346   0.779  10.061
  315SOL     OW 2777   5.751  10.541   3.977
  315SOL    HW1 2778   5.731  10.631   4.005
  315SOL    HW2 2779   5.679  10.519   3.918
  316SOL     OW 2780   5.611   4.097  13.399
  316SOL    HW1 2781   5.705   4.082  13.405
  316SOL    HW2 2782   5.592   4.159  13.470
  317SOL     OW 2783   1.159  12.226   0.197
  317SOL    HW1 2784   1.215  12.226   0.274
  317SOL    HW2 2785   1.078  12.184   0.226
  318SOL     OW 2786   8.630   1.726  11.875
  318SOL    HW1 2787   8.597   1.779  11.802
  318SOL    HW2 2788   8.552   1.703  11.925
  319SOL     OW 2789   4.618   1.733   1.998
  319SOL    HW1 2790   4.526   1.733   1.973
  319SOL    HW2 2791   4.665   1.747   1.915
  320SOL     OW 2792  11.715   4.015   6.277
  320SOL    HW1 2793  11.796   3.963   6.271
  320SOL    HW2 2794  11.722   4.061   6.360
  321SOL     OW 2795   4.791   0.913  11.457
  321SOL    HW1 2796   4.759   0.823  11.457
  321SOL    HW2 2797   4.723   0.963  11.411
  322SOL     OW 2798   2.543  14.673  10.524
  322SOL    HW1 2799   2.549  14.697  10.616
  322SOL    HW2 2800   2.606  14.729  10.479
  323SOL     OW 2801  14.179   3.694  14.150
  323SOL    HW1 2802  14.176   3.680  14.056
  323SOL    HW2 2803  14.182   3.789  14.160
  324SOL     OW 2804   5.556  10.888  12.968
  324SOL    HW1 2805   5.472  10.909  13.009
  324SOL    HW2 2806   5.555  10.792  12.961
  325SOL     OW 2807   2.176   6.634  13.805
  325SOL    HW1 2808   2.122   6.602  13.877
  325SOL    HW2 2809   2.146   6.584  13.729
  326SOL     OW 2810   7.327  12.865   7.876
  326SOL    HW1 2811   7.241  12.897   7.851
  326SOL    HW2 2812   7.388  12.926   7.835
  327SOL     OW 2813  12.501   7.703  11.839
  327SOL    HW1 2814  12.528   7.751  11.917
  327SOL    HW2 2815  12.475   7.771  11.776
  328SOL     OW 2816  10.140   5.678   3.776
  328SOL    HW1 2817  10.099   5.666   3.690
  328SOL    HW2 2818  10.218   5.730   3.758
  329SOL     OW 2819   4.799  10.185  11.468
  329SOL    HW1 2820   4.879  10.133  11.461
  329SOL    HW2 2821   4.797  10.238  11.388
  330SOL     OW 2822   9.272   1.594   1.467
  330SOL    HW1 2823   9.214   1.643   1.409
  330SOL    HW2 2824   9.294   1.515   1.417
  331SOL     OW 2825   4.264   9.306   2.532
  331SOL    HW1 2826   4.266   9.316   2.627
  331SOL    HW2 2827   4.176   9.332   2.507
  332SOL     OW 2828  10.906  11.833   0.177
  332SOL    HW1 2829  10.849  11.828   0.255
  332SOL    HW2 2830  10.853  11.794   0.107
  333SOL     OW 2831   0.938   2.727  10.349
  333SOL    HW1 2832   0.897   2.706  10.433
  333SOL    HW2 2833   0.896   2.810  10.323
  334SOL     OW 2834   1.481   9.416  14.609
  334SOL    HW1 2835   1.446   9.458  14.688
  334SOL    HW2 2836   1.403   9.385  14.562
  335SOL     OW 2837   1.037  10.136   3.736
  335SOL    HW1 2838   1.014  10.140   3.644
  335SOL    HW2 2839   1.125  10.173   3.740
  336SOL     OW 2840  12.430  10.625  11.346
  336SOL    HW1 2841  12.479  10.564  11.401
  336SOL    HW2 2842  12.379  10.678  11.408
  337SOL     OW 2843   7.696  12.305  11.403
  337SOL    HW1 2844   7.743  12.272  11.479
  337SOL    HW2 2845   7.688  12.399  11.419
  338SOL     OW 2846   6.087  14.742   4.107
  338SOL    HW1 2847   6.182  14.741   4.124
  338SOL    HW2 2848   6.075  14.815   4.046
  339SOL     OW 2849   6.677   7.702   3.450
  339SOL    HW1 2850   6.618   7.664   3.384
  339SOL    HW2 2851   6.645   7.668   3.533
  340SOL     OW 2852   4.687   0.233  12.671
  340SOL    HW1 2853   4.665   0.310  12.620
  340SOL    HW2 2854   4.636   0.242  12.752
  341SOL     OW 2855  14.220   4.762   3.613
  341SOL    HW1 2856  14.137   4.771   3.662
  341SOL    HW2 2857  14.252   4.675   3.636
  342SOL     OW 2858   8.712  12.811  10.325
  342SOL    HW1 2859   8.750  12.723  10.313
  342SOL    HW2 2860   8.650  12.800  10.397
  343SOL     OW 2861  10.890   0.063  13.204
  343SOL    HW1 2862  10.832  14.872  13.236
  343SOL    HW2 2863  10.906   0.117  13.282
  344SOL     OW 2864  14.622  11.770   1.921
  344SOL    HW1 2865  14.587  11.693   1.967
  344SOL    HW2 2866  14.564  11.781   1.846
  345SOL     OW 2867   9.190   5.447   9.977
  345SOL    HW1 2868   9.267   5.459   9.921
  345SOL    HW2 2869   9.172   5.535  10.011
  346SOL     OW 2870   9.003   6.430  11.857
  346SOL    HW1 2871   9.013   6.350  11.909
  346SOL    HW2 2872   9.057   6.494  11.902
  347SOL     OW 2873  13.671   0.696  13.936
  347SOL    HW1 2874  13.605   0.740  13.989
  347SOL    HW2 2875  13.683   0.611  13.977
  348SOL     OW 2876   4.508  14.484   2.925
  348SOL    HW1 2877   4.484  14.392   2.917
  348SOL    HW2 2878   4.603  14.485   2.930
  349SOL     OW 2879   1.753  13.578   0.740
  349SOL    HW1 2880   1.846  13.600   0.733
  349SOL    HW2 2881   1.720  13.582   0.650
  350SOL     OW 2882   2.961   1.885   2.623
  350SOL    HW1 2883   2.962   1.954   2.689
  350SOL    HW2 2884   3.039   1.901   2.570
  351SOL     OW 2885   1.588   7.963   3.167
  351SOL    HW1 2886   1.657   7.897   3.156
  351SOL    HW2 2887   1.535   7.956   3.088
  352SOL     OW 2888  14.238   2.298   1.915
  352SOL    HW1 2889  14.238   2.203   1.930
  352SOL    HW2 2890  14.227   2.335   2.003
  353SOL     OW 2891   2.668   3.123  11.023
  353SOL    HW1 2892   2.749   3.091  10.982
  353SOL    HW2 2893   2.670   3.088  11.112
  354SOL     OW 2894   7.622   0.325   7.453
  354SOL    HW1 2895   7.558   0.378   7.500
  354SOL    HW2 2896   7.621   0.360   7.364
  355SOL     OW 2897   1.142   9.271   5.628
  355SOL    HW1 2898   1.214   9.208   5.634
  355SOL    HW2 2899   1.126   9.280   5.535
  356SOL     OW 2900  10.482   8.373  12.746
  356SOL    HW1 2901  10.475   8.367  12.651
  356SOL    HW2 2902  10.393   8.393  12.776
  357SOL     OW 2903   2.513   4.117  11.386
  357SOL    HW1 2904   2.463   4.093  11.464
  357SOL    HW2 2905   2.447   4.149  11.324
  358SOL     OW 2906  14.699   4.480   5.453
  358SOL    HW1 2907  14.657   4.476   5.539
  358SOL    HW2 2908  14.753   4.401   5.449
  359SOL     OW 2909   5.475  14.017   9.446
  359SOL    HW1 2910   5.441  13.929   9.428
  359SOL    HW2 2911   5.518  14.043   9.364
  360SOL     OW 2912   5.279   8.044  11.350
  360SOL    HW1 2913   5.193   8.008  11.374
  360SOL    HW2 2914   5.261   8.133  11.322
  361SOL     OW 2915  13.975  14.802  10.903
  361SOL    HW1 2916  13.919  14.860  10.954
  361SOL    HW2 2917  14.019  14.748  10.969
  362SOL     OW 2918   0.068   6.667   2.742
  362SOL    HW1 2919   0.063   6.737   2.807
  362SOL    HW2 2920   0.087   6.713   2.659
  363SOL     OW 2921   0.617   4.350  10.213
  363SOL    HW1 2922   0.582   4.271  10.255
  363SOL    HW2 2923   0.607   4.418  10.279
  364SOL     OW 2924   6.932   7.522  12.337
  364SOL    HW1 2925   6.880   7.493  12.411
  364SOL    HW2 2926   6.901   7.611  12.318
  365SOL     OW 2927  10.532   8.642  12.913
  365SOL    HW1 2928  10.498   8.577  12.975
  365SOL    HW2 2929  10.616   8.605  12.884
  366SOL     OW 2930   6.556  10.941   5.238
  366SOL    HW1 2931   6.495  10.911   5.171
  366SOL    HW2 2932   6.616  10.868   5.251
  367SOL     OW 2933   9.599   9.214  11.375
  367SOL    HW1 2934   9.516   9.221  11.329
  367SOL    HW2 2935   9.665   9.214  11.306
  368SOL     OW 2936   2.522   7.114   8.987
  368SOL    HW1 2937   2.558   7.075   9.067
  368SOL    HW2 2938   2.528   7.208   9.000
  369SOL     OW 2939   8.050   4.501  10.980
  369SOL    HW1 2940   8.034   4.563  10.909
  369SOL    HW2 2941   8.143   4.511  10.999
  370SOL     OW 2942  14.260   4.464   0.108
  370SOL    HW1 2943  14.320   4.402   0.066
  370SOL    HW2 2944  14.307   4.547   0.106
  371SOL     OW 2945   6.089   9.478   5.312
  371SOL    HW1 2946   6.114   9.445   5.398
  371SOL    HW2 2947   6.165   9.527   5.281
  372SOL     OW 2948  12.702   3.929  13.632
  372SOL    HW1 2949  12.749   4.013  13.634
  372SOL    HW2 2950  12.748   3.878  13.566
  373SOL     OW 2951   8.769   9.892   8.925
  373SOL    HW1 2952   8.705   9.858   8.862
  373SOL    HW2 2953   8.844   9.917   8.872
  374SOL     OW 2954   5.806   3.020  11.373
  374SOL    HW1 2955   5.837   2.991  11.459
  374SOL    HW2 2956   5.772   2.940  11.332
  375SOL     OW 2957   5.378   7.767   8.942
  375SOL    HW1 2958   5.470   7.759   8.917
  375SOL    HW2 2959   5.365   7.861   8.957
  376SOL     OW 2960   6.647  14.358   9.499
  376SOL    HW1 2961   6.665  14.388   9.410
  376SOL    HW2 2962   6.572  14.411   9.528
  377SOL     OW 2963  14.442   7.177   6.254
  377SOL    HW1 2964  14.452   7.105   6.317
  377SOL    HW2 2965  14.372   7.148   6.196
  378SOL     OW 2966   8.447   3.820   8.643
  378SOL    HW1 2967   8.403   3.739   8.667
  378SOL    HW2 2968   8.505   3.839   8.717
  379SOL     OW 2969   3.274   9.078  11.713
  379SOL    HW1 2970   3.295   9.132  11.789
  379SOL    HW2 2971   3.328   9.113  11.643
  380SOL     OW 2972   2.236   6.636   5.817
  380SOL    HW1 2973   2.303   6.705   5.819
  380SOL    HW2 2974   2.195   6.645   5.732
  381SOL     OW 2975   2.513   6.544   4.468
  381SOL    HW1 2976   2.604   6.568   4.485
  381SOL    HW2 2977   2.506   6.453   4.499
  382SOL     OW 2978   5.065   8.298   3.438
  382SOL    HW1 2979   5.112   8.320   3.518
  382SOL    HW2 2980   5.124   8.327   3.368
  383SOL     OW 2981   2.575   9.098  11.869
  383SOL    HW1 2982   2.604   9.177  11.825
  383SOL    HW2 2983   2.609   9.105  11.958
  384SOL     OW 2984   2.385   0.205  10.210
  384SOL    HW1 2985   2.383   0.279  10.271
  384SOL    HW2 2986   2.320   0.229  10.143
  385SOL     OW 2987  10.599  11.524   0.007
  385SOL    HW1 2988  10.609  11.462   0.080
  385SOL    HW2 2989  10.514  11.503  14.848
  386SOL     OW 2990  14.783  13.863   9.476
  386SOL    HW1 2991  14.713  13.916   9.439
  386SOL    HW2 2992  14.824  13.919   9.542
  387SOL     OW 2993   0.167   0.931  12.539
  387SOL    HW1 2994   0.131   0.842  12.539
  387SOL    HW2 2995   0.262   0.918  12.537
  388SOL     OW 2996   3.110   9.434  12.119
  388SOL    HW1 2997   3.017   9.435  12.096
  388SOL    HW2 2998   3.116   9.369  12.189
  389SOL     OW 2999  10.701   1.563   5.076
  389SOL    HW1 3000  10.703   1.603   4.989
  389SOL    HW2 3001  10.706   1.637   5.136
  390SOL     OW 3002   9.899  10.573   4.304
  390SOL    HW1 3003   9.810  10.546   4.279
  390SOL    HW2 3004   9.933  10.617   4.227
  391SOL     OW 3005   7.568  14.458   6.309
  391SOL    HW1 3006   7.628  14.508   6.364
  391SOL    HW2 3007   7.517  14.524   6.262
  392SOL     OW 3008   9.658   2.501  13.146
  392SOL    HW1 3009   9.691   2.456  13.224
  392SOL    HW2 3010   9.604   2.436  13.101
  393SOL     OW 3011   6.526  10.060   1.316
  393SOL    HW1 3012   6.514  10.128   1.382
  393SOL    HW2 3013   6.514  10.105   1.232
  394SOL     OW 3014   4.428   5.108   2.337
  394SOL    HW1 3015   4.437   5.113   2.242
  394SOL    HW2 3016   4.516   5.087   2.368
  395SOL     OW 3017  11.838  11.726   0.440
  395SOL    HW1 3018  11.869  11.643   0.477
  395SOL    HW2 3019  11.900  11.745   0.369
  396SOL     OW 3020  13.108   1.531   4.806
  396SOL    HW1 3021  13.135   1.463   4.868
  396SOL    HW2 3022  13.139   1.612   4.846
  397SOL     OW 3023   9.696   6.334   9.917
  397SOL    HW1 3024   9.749   6.290   9.851
  397SOL    HW2 3025   9.606   6.306   9.899
  398SOL     OW 3026   8.145   6.489   7.450
  398SOL    HW1 3027   8.208   6.497   7.379
  398SOL    HW2 3028   8.197   6.503   7.530
  399SOL     OW 3029  14.563  10.153   0.281
  399SOL    HW1 3030  14.607  10.170   0.198
  399SOL    HW2 3031  14.501  10.225   0.291
  400SOL     OW 3032  11.347  12.460  13.173
  400SOL    HW1 3033  11.340  12.508  13.255
  400SOL    HW2 3034  11.299  12.378  13.188
  401SOL     OW 3035   0.016   8.575   4.902
  401SOL    HW1 3036  14.859   8.487   4.906
  401SOL    HW2 3037   0.020   8.596   4.809
  402SOL     OW 3038   9.069   5.975   8.405
  402SOL    HW1 3039   9.000   6.035   8.378
  402SOL    HW2 3040   9.128   6.029   8.458
  403SOL     OW 3041   1.091  10.210   7.495
  403SOL    HW1 3042   1.006  10.183   7.528
  403SOL    HW2 3043   1.154  10.157   7.543
  404SOL     OW 3044   1.363  10.851   4.227
  404SOL    HW1 3045   1.418  10.773   4.228
  404SOL    HW2 3046   1.377  10.891   4.313
  405SOL     OW 3047  11.812  10.840  10.125
  405SOL    HW1 3048  11.772  10.760  10.159
  405SOL    HW2 3049  11.883  10.810  10.068
  406SOL     OW 3050  11.671   4.795  10.515
  406SOL    HW1 3051  11.711   4.709  10.529
  406SOL    HW2 3052  11.650   4.826  10.603
  407SOL     OW 3053   8.829  12.073   0.436
  407SOL    HW1 3054   8.874  11.989   0.442
  407SOL    HW2 3055   8.866  12.114   0.358
  408SOL     OW 3056   2.297   9.171  12.966
  408SOL    HW1 3057   2.273   9.230  13.037
  408SOL    HW2 3058   2.298   9.226  12.888
  409SOL     OW 3059   3.142   8.941   2.267
  409SOL    HW1 3060   3.190   9.001   2.211
  409SOL    HW2 3061   3.050   8.961   2.250
  410SOL     OW 3062   8.338   7.990  14.163
  410SOL    HW1 3063   8.248   7.957  14.160
  410SOL    HW2 3064   8.387   7.929  14.106
  411SOL     OW 3065   0.236  11.158   0.065
  411SOL    HW1 3066   0.307  11.093   0.062
  411SOL    HW2 3067   0.196  11.146   0.151
  412SOL     OW 3068   5.648   4.153   0.179
  412SOL    HW1 3069   5.735   4.187   0.155
  412SOL    HW2 3070   5.597   4.161   0.099
  413SOL     OW 3071   0.692   1.950  13.869
  413SOL    HW1 3072   0.666   1.865  13.905
  413SOL    HW2 3073   0.744   1.991  13.938
  414SOL     OW 3074   2.085   4.026   5.370
  414SOL    HW1 3075   2.152   3.973   5.413
  414SOL    HW2 3076   2.118   4.039   5.281
  415SOL     OW 3077   4.816  12.093   4.645
  415SOL    HW1 3078   4.817  12.053   4.558
  415SOL    HW2 3079   4.790  12.184   4.629
  416SOL     OW 3080  13.335   3.139   3.128
  416SOL    HW1 3081  13.404   3.176   3.182
  416SOL    HW2 3082  13.265   3.117   3.191
  417SOL     OW 3083   5.678  12.168  14.671
  417SOL    HW1 3084   5.767  12.197  14.692
  417SOL    HW2 3085   5.689  12.083  14.629
  418SOL     OW 3086  14.504   0.129   6.779
  418SOL    HW1 3087  14.576   0.084   6.824
  418SOL    HW2 3088  14.523   0.222   6.791
  419SOL     OW 3089   0.323  14.231  14.630
  419SOL    HW1 3090   0.353  14.276  14.552
  419SOL    HW2 3091   0.253  14.173  14.600
  420SOL     OW 3092  11.128   3.396   4.712
  420SOL    HW1 3093  11.061   3.437   4.658
  420SOL    HW2 3094  11.096   3.406   4.802
  421SOL     OW 3095  10.398   2.834   3.583
  421SOL    HW1 3096  10.336   2.906   3.592
  421SOL    HW2 3097  10.471   2.857   3.641
  422SOL     OW 3098   0.975   0.864   1.410
  422SOL    HW1 3099   1.045   0.884   1.348
  422SOL    HW2 3100   0.986   0.771   1.429
  423SOL     OW 3101   7.586   5.216   3.118
  423SOL    HW1 3102   7.559   5.200   3.208
  423SOL    HW2 3103   7.533   5.291   3.090
  424SOL     OW 3104  11.442   5.484   0.852
  424SOL    HW1 3105  11.390   5.557   0.816
  424SOL    HW2 3106  11.533   5.513   0.843
  425SOL     OW 3107   7.036  10.874   5.995
  425SOL    HW1 3108   7.111  10.816   5.987
  425SOL    HW2 3109   6.970  10.821   6.040
  426SOL     OW 3110   5.765  10.986  12.480
  426SOL    HW1 3111   5.706  10.960  12.410
  426SOL    HW2 3112   5.761  11.082  12.480
  427SOL     OW 3113  10.704  12.867   9.894
  427SOL    HW1 3114  10.637  12.901   9.835
  427SOL    HW2 3115  10.763  12.940   9.910
  428SOL     OW 3116  12.482   0.718   3.011
  428SOL    HW1 3117  12.408   0.780   3.012
  428SOL    HW2 3118  12.514   0.718   3.101
  429SOL     OW 3119  10.419   3.937   6.776
  429SOL    HW1 3120  10.349   3.940   6.711
  429SOL    HW2 3121  10.374   3.940   6.861
  430SOL     OW 3122   4.460  14.830   5.067
  430SOL    HW1 3123   4.425  14.877   5.142
  430SOL    HW2 3124   4.397  14.846   4.997
  431SOL     OW 3125  13.604   7.492  10.779
  431SOL    HW1 3126  13.641   7.417  10.734
  431SOL    HW2 3127  13.572   7.549  10.709
  432SOL     OW 3128   8.693   1.805  11.573
  432SOL    HW1 3129   8.748   1.862  11.520
  432SOL    HW2 3130   8.748   1.730  11.594
  433SOL     OW 3131  12.780   5.083  13.165
  433SOL    HW1 3132  12.745   5.061  13.079
  433SOL    HW2 3133  12.731   5.160  13.192
  434SOL     OW 3134   4.451   8.097  12.960
  434SOL    HW1 3135   4.402   8.090  12.878
  434SOL    HW2 3136   4.495   8.181  12.955
  435SOL     OW 3137   3.513   4.007  11.544
  435SOL    HW1 3138   3.517   4.025  11.638
  435SOL    HW2 3139   3.550   3.919  11.535
  436SOL     OW 3140   4.712   5.105   0.387
  436SOL    HW1 3141   4.681   5.048   0.316
  436SOL    HW2 3142   4.805   5.085   0.395
  437SOL     OW 3143   5.227  11.149   5.978
  437SOL    HW1 3144   5.135  11.124   5.992
  437SOL    HW2 3145   5.222  11.229   5.926
  438SOL     OW 3146   5.255  11.142   1.776
  438SOL    HW1 3147   5.298  11.135   1.691
  438SOL    HW2 3148   5.324  11.169   1.836
  439SOL     OW 3149   4.945   6.988   2.840
  439SOL    HW1 3150   5.023   7.042   2.847
  439SOL    HW2 3151   4.962   6.929   2.766
  440SOL     OW 3152   4.230   0.500   7.767
  440SOL    HW1 3153   4.195   0.587   7.788
  440SOL    HW2 3154   4.160   0.440   7.791
  441SOL     OW 3155   6.837   2.997   4.286
  441SOL    HW1 3156   6.835   2.901   4.290
  441SOL    HW2 3157   6.757   3.024   4.331
  442SOL     OW 3158   3.551  13.551  11.390
  442SOL    HW1 3159   3.565  13.558  11.296
  442SOL    HW2 3160   3.629  13.506  11.422
  443SOL     OW 3161   1.373   7.099  11.659
  443SOL    HW1 3162   1.439   7.167  11.673
  443SOL    HW2 3163   1.405   7.024  11.709
  444SOL     OW 3164   5.995   7.086  14.631
  444SOL    HW1 3165   6.055   7.140  14.683
  444SOL    HW2 3166   6.047   7.009  14.608
  445SOL     OW 3167   3.855  12.703   2.872
  445SOL    HW1 3168   3.898  12.704   2.787
  445SOL    HW2 3169   3.790  12.772   2.867
  446SOL     OW 3170  13.496   1.644  14.338
  446SOL    HW1 3171  13.494   1.571  14.401
  446SOL    HW2 3172  13.453   1.608  14.260
  447SOL     OW 3173   0.145  12.773   7.688
  447SOL    HW1 3174   0.119  12.752   7.598
  447SOL    HW2 3175   0.111  12.701   7.740
  448SOL     OW 3176   2.109   0.368   2.572
  448SOL    HW1 3177   2.092   0.414   2.654
  448SOL    HW2 3178   2.074   0.426   2.504
  449SOL     OW 3179   5.679  12.962   3.110
  449SOL    HW1 3180   5.682  13.007   3.195
  449SOL    HW2 3181   5.651  13.030   3.048
  450SOL     OW 3182   2.245   5.322   9.427
  450SOL    HW1 3183   2.182   5.342   9.358
  450SOL    HW2 3184   2.197   5.267   9.489
  451SOL     OW 3185   8.611  12.954  11.366
  451SOL    HW1 3186   8.659  12.979  11.287
  451SOL    HW2 3187   8.674  12.965  11.437
  452SOL     OW 3188   3.479   0.843   3.815
  452SOL    HW1 3189   3.499   0.904   3.744
  452SOL    HW2 3190   3.559   0.842   3.868
  453SOL     OW 3191   2.226   5.101   1.334
  453SOL    HW1 3192   2.193   5.176   1.286
  453SOL    HW2 3193   2.151   5.072   1.387
  454SOL     OW 3194   2.245  14.131   3.481
  454SOL    HW1 3195   2.180  14.093   3.423
  454SOL    HW2 3196   2.200  14.203   3.524
  455SOL     OW 3197  14.227   4.324   4.867
  455SOL    HW1 3198  14.320   4.302   4.865
  455SOL    HW2 3199  14.185   4.246   4.904
  456SOL     OW 3200  12.356   7.200   8.776
  456SOL    HW1 3201  12.417   7.142   8.731
  456SOL    HW2 3202  12.405   7.235   8.850
  457SOL     OW 3203   8.707  11.283  11.317
  457SOL    HW1 3204   8.673  11.343  11.251
  457SOL    HW2 3205   8.639  11.216  11.326
  458SOL     OW 3206   9.794   8.047   7.480
  458SOL    HW1 3207   9.721   8.025   7.422
  458SOL    HW2 3208   9.862   7.984   7.458
  459SOL     OW 3209   4.590   5.693   3.801
  459SOL    HW1 3210   4.501   5.725   3.782
  459SOL    HW2 3211   4.619   5.748   3.874
  460SOL     OW 3212   0.395  12.276  14.336
  460SOL    HW1 3213   0.330  12.262  14.405
  460SOL    HW2 3214   0.436  12.190  14.323
  461SOL     OW 3215   2.196   3.849   9.402
  461SOL    HW1 3216   2.200   3.887   9.490
  461SOL    HW2 3217   2.120   3.790   9.405
  462SOL     OW 3218   1.047  11.726   2.154
  462SOL    HW1 3219   0.970  11.768   2.116
  462SOL    HW2 3220   1.041  11.746   2.248
  463SOL     OW 3221  13.202   3.332  10.949
  463SOL    HW1 3222  13.145   3.408  10.954
  463SOL    HW2 3223  13.283   3.365  10.911
  464SOL     OW 3224  11.661   5.959   3.745
  464SOL    HW1 3225  11.744   6.007   3.735
  464SOL    HW2 3226  11.625   5.957   3.656
  465SOL     OW 3227  12.412   2.491  10.438
  465SOL    HW1 3228  12.470   2.426  10.397
  465SOL    HW2 3229  12.419   2.475  10.532
  466SOL     OW 3230   7.016  14.020  12.711
  466SOL    HW1 3231   7.028  13.962  12.786
  466SOL    HW2 3232   7.047  14.105  12.741
  467SOL     OW 3233   3.689   8.360   4.680
  467SOL    HW1 3234   3.607   8.379   4.636
  467SOL    HW2 3235   3.679   8.396   4.768
  468SOL     OW 3236  12.870   7.412   1.202
  468SOL    HW1 3237  12.889   7.436   1.111
  468SOL    HW2 3238  12.780   7.442   1.216
  469SOL     OW 3239   1.611   3.583   2.895
  469SOL    HW1 3240   1.707   3.583   2.888
  469SOL    HW2 3241   1.588   3.676   2.901
  470SOL     OW 3242  10.122   3.628   3.828
  470SOL    HW1 3243  10.126   3.708   3.880
  470SOL    HW2 3244  10.029   3.605   3.826
  471SOL     OW 3245  10.703   3.015   3.477
  471SOL    HW1 3246  10.701   2.925   3.443
  471SOL    HW2 3247  10.645   3.063   3.418
  472SOL     OW 3248   1.878   6.244   1.379
  472SOL    HW1 3249   1.879   6.314   1.443
  472SOL    HW2 3250   1.789   6.243   1.345
  473SOL     OW 3251  13.392   5.636   3.010
  473SOL    HW1 3252  13.402   5.673   2.922
  473SOL    HW2 3253  13.362   5.546   2.996
  474SOL     OW 3254  14.441  10.506  13.423
  474SOL    HW1 3255  14.357  10.549  13.408
  474SOL    HW2 3256  14.505  10.576  13.415
  475SOL     OW 3257   6.677   9.991   3.701
  475SOL    HW1 3258   6.712  10.046   3.630
  475SOL    HW2 3259   6.738  10.003   3.773
  476SOL     OW 3260   9.203  12.445  13.444
  476SOL    HW1 3261   9.135  12.501  13.405
  476SOL    HW2 3262   9.277  12.452  13.385
  477SOL     OW 3263   6.145   9.784  12.934
  477SOL    HW1 3264   6.213   9.806  12.871
  477SOL    HW2 3265   6.087   9.724  12.887
  478SOL     OW 3266   9.985   9.986   5.426
  478SOL    HW1 3267   9.912  10.031   5.383
  478SOL    HW2 3268  10.060  10.004   5.369
  479SOL     OW 3269   1.076   7.427   5.155
  479SOL    HW1 3270   1.145   7.433   5.220
  479SOL    HW2 3271   1.044   7.517   5.145
  480SOL     OW 3272   0.963   1.807   4.061
  480SOL    HW1 3273   0.945   1.858   4.140
  480SOL    HW2 3274   1.056   1.822   4.044
  481SOL     OW 3275   8.504  12.397  11.551
  481SOL    HW1 3276   8.414  12.383  11.522
  481SOL    HW2 3277   8.553  12.413  11.470
  482SOL     OW 3278  10.660  10.676   9.915
  482SOL    HW1 3279  10.596  10.725   9.863
  482SOL    HW2 3280  10.737  10.671   9.859
  483SOL     OW 3281   9.202  12.598   8.671
  483SOL    HW1 3282   9.172  12.674   8.721
  483SOL    HW2 3283   9.229  12.534   8.738
  484SOL     OW 3284   6.098   4.046   7.834
  484SOL    HW1 3285   6.067   4.043   7.925
  484SOL    HW2 3286   6.148   3.965   7.823
  485SOL     OW 3287   5.084   8.197   4.856
  485SOL    HW1 3288   5.033   8.140   4.798
  485SOL    HW2 3289   5.116   8.138   4.924
  486SOL     OW 3290  12.689  14.823  13.905
  486SOL    HW1 3291  12.646  14.809  13.989
  486SOL    HW2 3292  12.769  14.771  13.910
  487SOL     OW 3293   3.298   1.645   5.529
  487SOL    HW1 3294   3.298   1.609   5.618
  487SOL    HW2 3295   3.226   1.600   5.485
  488SOL     OW 3296  12.089  13.641   8.155
  488SOL    HW1 3297  12.168  13.614   8.201
  488SOL    HW2 3298  12.053  13.560   8.118
  489SOL     OW 3299   0.028   8.740   9.060
  489SOL    HW1 3300  14.853   8.667   9.031
  489SOL    HW2 3301  14.848   8.795   9.112
  490SOL     OW 3302  13.287  12.069   3.935
  490SOL    HW1 3303  13.212  12.043   3.988
  490SOL    HW2 3304  13.351  11.999   3.949
  491SOL     OW 3305  10.310   4.166   0.621
  491SOL    HW1 3306  10.234   4.196   0.669
  491SOL    HW2 3307  10.276   4.101   0.560
  492SOL     OW 3308   0.288   6.296  10.598
  492SOL    HW1 3309   0.285   6.320  10.505
  492SOL    HW2 3310   0.338   6.214  10.601
  493SOL     OW 3311   4.415   8.711   8.208
  493SOL    HW1 3312   4.424   8.619   8.186
  493SOL    HW2 3313   4.372   8.712   8.293
  494SOL     OW 3314  11.458   1.414   2.589
  494SOL    HW1 3315  11.485   1.440   2.677
  494SOL    HW2 3316  11.458   1.318   2.591
  495SOL     OW 3317   1.238  11.052  11.932
  495SOL    HW1 3318   1.193  11.127  11.971
  495SOL    HW2 3319   1.325  11.053  11.972
  496SOL     OW 3320   7.488  13.828  13.814
  496SOL    HW1 3321   7.547  13.817  13.740
  496SOL    HW2 3322   7.534  13.788  13.888
  497SOL     OW 3323  10.927   6.382   5.490
  497SOL    HW1 3324  10.939   6.414   5.579
  497SOL    HW2 3325  10.845   6.423   5.461
  498SOL     OW 3326   8.759   1.931   0.369
  498SOL    HW1 3327   8.820   1.981   0.424
  498SOL    HW2 3328   8.719   1.997   0.312
  499SOL     OW 3329  14.036   7.451   1.914
  499SOL    HW1 3330  14.002   7.429   1.827
  499SOL    HW2 3331  14.094   7.378   1.936
  500SOL     OW 3332  13.762  12.694   0.297
  500SOL    HW1 3333  13.770  12.713   0.391
  500SOL    HW2 3334  13.778  12.777   0.254
  501SOL     OW 3335   9.183   4.263   9.590
  501SOL    HW1 3336   9.150   4.197   9.528
  501SOL    HW2 3337   9.104   4.310   9.618
  502SOL     OW 3338  14.262   6.415   3.290
  502SOL    HW1 3339  14.289   6.325   3.307
  502SOL    HW2 3340  14.184   6.406   3.234
  503SOL     OW 3341   5.145   4.528   7.639
  503SOL    HW1 3342   5.128   4.559   7.728
  503SOL    HW2 3343   5.195   4.447   7.651
  504SOL     OW 3344   3.859  12.835  10.017
  504SOL    HW1 3345   3.896  12.914   9.979
  504SOL    HW2 3346   3.854  12.854  10.111
  505SOL     OW 3347   2.769   9.831  12.166
  505SOL    HW1 3348   2.789   9.789  12.249
  505SOL    HW2 3349   2.681   9.868  12.179
  506SOL     OW 3350   1.420  14.715   9.355
  506SOL    HW1 3351   1.339  14.700   9.307
  506SOL    HW2 3352   1.472  14.772   9.299
  507SOL     OW 3353  13.998  13.372   2.836
  507SOL    HW1 3354  13.910  13.390   2.804
  507SOL    HW2 3355  14.019  13.286   2.800
  508SOL     OW 3356   8.062  10.241   9.142
  508SOL    HW1 3357   8.079  10.183   9.216
  508SOL    HW2 3358   8.026  10.321   9.180
  509SOL     OW 3359  11.147   8.698  11.443
  509SOL    HW1 3360  11.081   8.687  11.511
  509SOL    HW2 3361  11.205   8.622  11.454
  510SOL     OW 3362  13.446   1.368  12.006
  510SOL    HW1 3363  13.434   1.320  12.088
  510SOL    HW2 3364  13.359   1.371  11.967
  511SOL     OW 3365   1.036   5.336   9.744
  511SOL    HW1 3366   1.000   5.385   9.818
  511SOL    HW2 3367   0.963   5.281   9.715
  512SOL     OW 3368   4.382  13.941   8.631
  512SOL    HW1 3369   4.359  13.997   8.705
  512SOL    HW2 3370   4.442  13.876   8.668
  513SOL     OW 3371  10.471   9.836   7.888
  513SOL    HW1 3372  10.469   9.817   7.794
  513SOL    HW2 3373  10.438   9.925   7.895
  514SOL     OW 3374   6.404  14.512  10.283
  514SOL    HW1 3375   6.314  14.484  10.295
  514SOL    HW2 3376   6.435  14.532  10.371
  515SOL     OW 3377   5.519   5.620   6.091
  515SOL    HW1 3378   5.505   5.656   6.179
  515SOL    HW2 3379   5.444   5.563   6.076
  516SOL     OW 3380  11.621   7.968   0.651
  516SOL    HW1 3381  11.607   8.056   0.686
  516SOL    HW2 3382  11.682   7.981   0.578
  517SOL     OW 3383   6.054   6.352  10.805
  517SOL    HW1 3384   6.026   6.262  10.786
  517SOL    HW2 3385   6.101   6.345  10.888
  518SOL     OW 3386   9.294  14.431   3.337
  518SOL    HW1 3387   9.330  14.435   3.248
  518SOL    HW2 3388   9.248  14.347   3.341
  519SOL     OW 3389   7.351   5.544  13.275
  519SOL    HW1 3390   7.375   5.527  13.366
  519SOL    HW2 3391   7.259   5.519  13.269
  520SOL     OW 3392   1.557   3.842   5.061
  520SOL    HW1 3393   1.602   3.774   5.010
  520SOL    HW2 3394   1.610   3.854   5.139
  521SOL     OW 3395   0.400   1.710   5.796
  521SOL    HW1 3396   0.402   1.634   5.738
  521SOL    HW2 3397   0.392   1.673   5.884
  522SOL     OW 3398  12.522   7.175  13.084
  522SOL    HW1 3399  12.537   7.090  13.127
  522SOL    HW2 3400  12.483   7.230  13.153
  523SOL     OW 3401   9.558  14.637   6.442
  523SOL    HW1 3402   9.466  14.649   6.422
  523SOL    HW2 3403   9.586  14.564   6.386
  524SOL     OW 3404   9.849  10.132   1.590
  524SOL    HW1 3405   9.915  10.140   1.521
  524SOL    HW2 3406   9.852  10.217   1.635
  525SOL     OW 3407  10.780  14.602   9.234
  525SOL    HW1 3408  10.720  14.539   9.272
  525SOL    HW2 3409  10.808  14.562   9.152
  526SOL     OW 3410   2.643  13.947   3.712
  526SOL    HW1 3411   2.667  14.029   3.755
  526SOL    HW2 3412   2.707  13.937   3.642
  527SOL     OW 3413   6.941   6.089   9.694
  527SOL    HW1 3414   6.980   6.093   9.782
  527SOL    HW2 3415   6.993   6.023   9.648
  528SOL     OW 3416  14.877   7.709  10.694
  528SOL    HW1 3417  14.828   7.706  10.612
  528SOL    HW2 3418  14.853   7.628  10.739
  529SOL     OW 3419   4.043   8.656  14.440
  529SOL    HW1 3420   4.000   8.592  14.384
  529SOL    HW2 3421   3.986   8.733  14.436
  530SOL     OW 3422   2.027   2.557   0.151
  530SOL    HW1 3423   2.022   2.653   0.152
  530SOL    HW2 3424   2.097   2.537   0.213
  531SOL     OW 3425   6.584   4.886   1.852
  531SOL    HW1 3426   6.539   4.942   1.915
  531SOL    HW2 3427   6.589   4.800   1.895
  532SOL     OW 3428  13.889  14.396  10.658
  532SOL    HW1 3429  13.900  14.397  10.753
  532SOL    HW2 3430  13.961  14.342  10.627
  533SOL     OW 3431   9.094  14.826   3.125
  533SOL    HW1 3432   9.032   0.020   3.126
  533SOL    HW2 3433   9.153  14.847   3.053
  534SOL     OW 3434   3.886  12.776  14.711
  534SOL    HW1 3435   3.832  12.757  14.787
  534SOL    HW2 3436   3.867  12.706  14.649
  535SOL     OW 3437   0.760  13.822   1.944
  535SOL    HW1 3438   0.847  13.836   1.980
  535SOL    HW2 3439   0.711  13.900   1.967
  536SOL     OW 3440   7.698   4.990  11.906
  536SOL    HW1 3441   7.609   4.977  11.873
  536SOL    HW2 3442   7.724   4.904  11.940
  537SOL     OW 3443  11.776   5.180  12.007
  537SOL    HW1 3444  11.821   5.101  12.037
  537SOL    HW2 3445  11.841   5.249  12.015
  538SOL     OW 3446   8.582   7.047   4.431
  538SOL    HW1 3447   8.650   7.078   4.372
  538SOL    HW2 3448   8.540   7.127   4.463
  539SOL     OW 3449   9.155  13.110   3.288
  539SOL    HW1 3450   9.182  13.024   3.321
  539SOL    HW2 3451   9.089  13.091   3.221
  540SOL     OW 3452   8.503  14.436   6.142
  540SOL    HW1 3453   8.410  14.456   6.130
  540SOL    HW2 3454   8.516  14.354   6.094
  541SOL     OW 3455   1.275  14.404   8.150
  541SOL    HW1 3456   1.318  14.467   8.093
  541SOL    HW2 3457   1.330  14.325   8.146
  542SOL     OW 3458   5.425  13.104   6.290
  542SOL    HW1 3459   5.469  13.033   6.338
  542SOL    HW2 3460   5.332  13.093   6.312
  543SOL     OW 3461  10.675   4.847   2.196
  543SOL    HW1 3462  10.666   4.753   2.178
  543SOL    HW2 3463  10.769   4.860   2.208
  544SOL     OW 3464   7.251   5.218   7.596
  544SOL    HW1 3465   7.259   5.313   7.605
  544SOL    HW2 3466   7.285   5.184   7.678
  545SOL     OW 3467   7.053   8.746   9.723
  545SOL    HW1 3468   7.082   8.810   9.788
  545SOL    HW2 3469   7.001   8.683   9.774
  546SOL     OW 3470   2.851   3.239   5.752
  546SOL    HW1 3471   2.853   3.144   5.746
  546SOL    HW2 3472   2.939   3.266   5.724
  547SOL     OW 3473  11.281   1.256   8.007
  547SOL    HW1 3474  11.317   1.196   7.941
  547SOL    HW2 3475  11.324   1.231   8.089
  548SOL     OW 3476  12.873   6.489   5.641
  548SOL    HW1 3477  12.873   6.584   5.633
  548SOL    HW2 3478  12.785   6.468   5.673
  549SOL     OW 3479   2.471   3.407  12.865
  549SOL    HW1 3480   2.378   3.391  12.882
  549SOL    HW2 3481   2.516   3.370  12.940
  550SOL     OW 3482  13.487   0.193   1.634
  550SOL    HW1 3483  13.466   0.259   1.700
  550SOL    HW2 3484  13.556   0.139   1.674
  551SOL     OW 3485   4.411   3.358   2.146
  551SOL    HW1 3486   4.328   3.394   2.178
  551SOL    HW2 3487   4.396   3.263   2.145
  552SOL     OW 3488   1.549   9.419   1.120
  552SOL    HW1 3489   1.494   9.400   1.044
  552SOL    HW2 3490   1.529   9.511   1.141
  553SOL     OW 3491  14.745  11.289  10.864
  553SOL    HW1 3492  14.753  11.279  10.769
  553SOL    HW2 3493  14.663  11.245  10.886
  554SOL     OW 3494   9.509   1.814   8.226
  554SOL    HW1 3495   9.484   1.829   8.135
  554SOL    HW2 3496   9.579   1.877   8.242
  555SOL     OW 3497   6.655   7.125  11.070
  555SOL    HW1 3498   6.711   7.141  11.146
  555SOL    HW2 3499   6.686   7.042  11.035
  556SOL     OW 3500   5.732   8.201   1.072
  556SOL    HW1 3501   5.673   8.275   1.088
  556SOL    HW2 3502   5.728   8.151   1.154
  557SOL     OW 3503   8.247  14.361   5.213
  557SOL    HW1 3504   8.192  14.356   5.134
  557SOL    HW2 3505   8.214  14.292   5.270
  558SOL     OW 3506   5.163   5.064   6.053
  558SOL    HW1 3507   5.152   5.133   6.118
  558SOL    HW2 3508   5.127   5.101   5.973
  559SOL     OW 3509   1.791   6.796   1.460
  559SOL    HW1 3510   1.845   6.830   1.532
  559SOL    HW2 3511   1.852   6.746   1.406
  560SOL     OW 3512   9.391   3.713  13.045
  560SOL    HW1 3513   9.422   3.803  13.043
  560SOL    HW2 3514   9.458   3.663  12.998
  561SOL     OW 3515   3.894  10.066  13.105
  561SOL    HW1 3516   3.869  10.109  13.186
  561SOL    HW2 3517   3.930   9.982  13.133
  562SOL     OW 3518   5.674   1.001   1.947
  562SOL    HW1 3519   5.742   0.974   2.008
  562SOL    HW2 3520   5.640   0.919   1.912
  563SOL     OW 3521  14.139   3.094   3.287
  563SOL    HW1 3522  14.151   3.071   3.379
  563SOL    HW2 3523  14.045   3.091   3.272
  564SOL     OW 3524  14.362  13.897   2.898
  564SOL    HW1 3525  14.432  13.911   2.834
  564SOL    HW2 3526  14.317  13.818   2.867
  565SOL     OW 3527   7.352   6.806  11.237
  565SOL    HW1 3528   7.331   6.727  11.187
  565SOL    HW2 3529   7.269   6.831  11.278
  566SOL     OW 3530  12.898  12.264   4.129
  566SOL    HW1 3531  12.988  12.286   4.152
  566SOL    HW2 3532  12.845  12.312   4.192
  567SOL     OW 3533   9.883  10.869   9.800
  567SOL    HW1 3534   9.941  10.921   9.744
  567SOL    HW2 3535   9.822  10.828   9.740
  568SOL     OW 3536   2.164  12.776   3.435
  568SOL    HW1 3537   2.098  12.722   3.477
  568SOL    HW2 3538   2.245  12.758   3.483
  569SOL     OW 3539   3.861   9.579   5.468
  569SOL    HW1 3540   3.931   9.545   5.523
  569SOL    HW2 3541   3.899   9.582   5.380
  570SOL     OW 3542   6.339   1.992   6.144
  570SOL    HW1 3543   6.320   2.019   6.234
  570SOL    HW2 3544   6.434   1.980   6.142
  571SOL     OW 3545  12.178   5.658  13.714
  571SOL    HW1 3546  12.152   5.638  13.624
  571SOL    HW2 3547  12.120   5.730  13.739
  572SOL     OW 3548   3.720   8.522   2.769
  572SOL    HW1 3549   3.693   8.432   2.783
  572SOL    HW2 3550   3.651   8.574   2.811
  573SOL     OW 3551   0.496  13.618   5.577
  573SOL    HW1 3552   0.503  13.522   5.573
  573SOL    HW2 3553   0.416  13.634   5.627
  574SOL     OW 3554  14.404  12.863  10.270
  574SOL    HW1 3555  14.359  12.856  10.354
  574SOL    HW2 3556  14.497  12.853  10.291
  575SOL     OW 3557   2.038   4.219   6.774
  575SOL    HW1 3558   1.960   4.270   6.754
  575SOL    HW2 3559   2.084   4.211   6.690
  576SOL     OW 3560  12.852   1.087  11.482
  576SOL    HW1 3561  12.941   1.073  11.448
  576SOL    HW2 3562  12.830   1.007  11.529
  577SOL     OW 3563   6.090  11.633  14.736
  577SOL    HW1 3564   6.116  11.553  14.691
  577SOL    HW2 3565   6.171  11.681  14.750
  578SOL     OW 3566   3.673  11.034   4.033
  578SOL    HW1 3567   3.703  11.053   3.944
  578SOL    HW2 3568   3.646  10.942   4.030
  579SOL     OW 3569   1.519   5.492  11.270
  579SOL    HW1 3570   1.461   5.420  11.296
  579SOL    HW2 3571   1.514   5.554  11.342
  580SOL     OW 3572   4.044   6.054   9.072
  580SOL    HW1 3573   4.002   6.070   8.987
  580SOL    HW2 3574   3.995   5.980   9.109
  581SOL     OW 3575   5.045   2.588   4.255
  581SOL    HW1 3576   5.089   2.640   4.188
  581SOL    HW2 3577   5.102   2.593   4.332
  582SOL     OW 3578   9.901   0.171   3.424
  582SOL    HW1 3579   9.890   0.093   3.369
  582SOL    HW2 3580   9.863   0.147   3.509
  583SOL     OW 3581  14.610   9.442   7.274
  583SOL    HW1 3582  14.556   9.467   7.349
  583SOL    HW2 3583  14.572   9.359   7.244
  584SOL     OW 3584   2.883   4.422   3.745
  584SOL    HW1 3585   2.965   4.464   3.717
  584SOL    HW2 3586   2.883   4.430   3.840
  585SOL     OW 3587  14.875   7.228  10.640
  585SOL    HW1 3588  14.842   7.313  10.667
  585SOL    HW2 3589  14.832   7.211  10.556
  586SOL     OW 3590   2.314  12.264   4.065
  586SOL    HW1 3591   2.371  12.198   4.106
  586SOL    HW2 3592   2.374  12.328   4.027
  587SOL     OW 3593   3.162   0.674   4.112
  587SOL    HW1 3594   3.071   0.704   4.120
  587SOL    HW2 3595   3.192   0.712   4.029
  588SOL     OW 3596   4.854  10.092   1.355
  588SOL    HW1 3597   4.907  10.152   1.408
  588SOL    HW2 3598   4.764  10.109   1.382
  589SOL     OW 3599  11.940   3.940   7.020
  589SOL    HW1 3600  11.900   4.017   7.060
  589SOL    HW2 3601  12.004   3.975   6.958
  590SOL     OW 3602  13.638   5.985   7.907
  590SOL    HW1 3603  13.596   5.928   7.843
  590SOL    HW2 3604  13.614   5.947   7.992
  591SOL     OW 3605  10.134  12.925   9.859
  591SOL    HW1 3606  10.198  12.950   9.926
  591SOL    HW2 3607  10.125  13.003   9.805
  592SOL     OW 3608  12.549   9.430   9.050
  592SOL    HW1 3609  12.591   9.416   9.134
  592SOL    HW2 3610  12.556   9.524   9.035
  593SOL     OW 3611   3.296  13.051  13.467
  593SOL    HW1 3612   3.221  13.012  13.422
  593SOL    HW2 3613   3.360  12.980  13.471
  594SOL     OW 3614  14.169   2.047   3.707
  594SOL    HW1 3615  14.154   2.086   3.794
  594SOL    HW2 3616  14.238   2.101   3.669
  595SOL     OW 3617   0.396  13.027  11.800
  595SOL    HW1 3618   0.308  13.057  11.821
  595SOL    HW2 3619   0.454  13.086  11.848
  596SOL     OW 3620   8.981   3.080  14.763
  596SOL    HW1 3621   8.977   2.994  14.720
  596SOL    HW2 3622   9.027   3.063  14.845
  597SOL     OW 3623   6.101   4.210  12.649
  597SOL    HW1 3624   6.007   4.223  12.661
  597SOL    HW2 3625   6.140   4.295  12.672
  598SOL     OW 3626   4.290   6.130   2.886
  598SOL    HW1 3627   4.205   6.086   2.891
  598SOL    HW2 3628   4.354   6.060   2.879
  599SOL     OW 3629   1.877   9.847   1.627
  599SOL    HW1 3630   1.966   9.858   1.658
  599SOL    HW2 3631   1.885   9.836   1.532
  600SOL     OW 3632   7.367   1.898   8.174
  600SOL    HW1 3633   7.442   1.938   8.131
  600SOL    HW2 3634   7.375   1.924   8.265
  601SOL     OW 3635  11.014  13.726   0.064
  601SOL    HW1 3636  11.029  13.634   0.082
  601SOL    HW2 3637  10.930  13.729   0.019
  602SOL     OW 3638   9.995   8.343   8.028
  602SOL    HW1 3639  10.025   8.322   7.940
  602SOL    HW2 3640   9.966   8.259   8.064
  603SOL     OW 3641  11.055   2.939   4.522
  603SOL    HW1 3642  11.106   2.896   4.453
  603SOL    HW2 3643  11.053   2.876   4.594
  604SOL     OW 3644  14.065   5.798  12.308
  604SOL    HW1 3645  14.143   5.744  12.316
  604SOL    HW2 3646  14.070   5.835  12.220
  605SOL     OW 3647  12.270   4.953   6.742
  605SOL    HW1 3648  12.260   4.970   6.836
  605SOL    HW2 3649  12.364   4.959   6.727
  606SOL     OW 3650  13.257   4.662  12.644
  606SOL    HW1 3651  13.244   4.569  12.624
  606SOL    HW2 3652  13.195   4.708  12.587
  607SOL     OW 3653   0.390   2.563   5.100
  607SOL    HW1 3654   0.474   2.526   5.127
  607SOL    HW2 3655   0.413   2.630   5.037
  608SOL     OW 3656   8.419   9.441  12.204
  608SOL    HW1 3657   8.355   9.386  12.159
  608SOL    HW2 3658   8.477   9.472  12.134
  609SOL     OW 3659   7.280   1.101  12.232
  609SOL    HW1 3660   7.373   1.120  12.219
  609SOL    HW2 3661   7.271   1.009  12.206
  610SOL     OW 3662   0.816   6.602   2.785
  610SOL    HW1 3663   0.857   6.688   2.770
  610SOL    HW2 3664   0.846   6.576   2.872
  611SOL     OW 3665   3.737   5.774   9.801
  611SOL    HW1 3666   3.826   5.807   9.791
  611SOL    HW2 3667   3.685   5.828   9.742
  612SOL     OW 3668  12.927  12.582  12.735
  612SOL    HW1 3669  12.926  12.486  12.732
  612SOL    HW2 3670  12.975  12.603  12.815
  613SOL     OW 3671  11.056  13.651   3.954
  613SOL    HW1 3672  11.092  13.583   3.896
  613SOL    HW2 3673  11.120  13.723   3.949
  614SOL     OW 3674   9.127  13.239   0.780
  614SOL    HW1 3675   9.143  13.157   0.733
  614SOL    HW2 3676   9.050  13.276   0.736
  615SOL     OW 3677  11.375   5.079   8.943
  615SOL    HW1 3678  11.309   5.148   8.933
  615SOL    HW2 3679  11.389   5.046   8.854
  616SOL     OW 3680   6.958   4.295   8.964
  616SOL    HW1 3681   7.053   4.282   8.965
  616SOL    HW2 3682   6.928   4.261   9.048
  617SOL     OW 3683  13.141   1.114   4.028
  617SOL    HW1 3684  13.167   1.024   4.046
  617SOL    HW2 3685  13.085   1.108   3.950
  618SOL     OW 3686   8.634   4.850   6.389
  618SOL    HW1 3687   8.567   4.805   6.440
  618SOL    HW2 3688   8.702   4.872   6.453
  619SOL     OW 3689   2.212   6.415  12.587
  619SOL    HW1 3690   2.252   6.403  12.673
  619SOL    HW2 3691   2.126   6.375  12.594
  620SOL     OW 3692  12.438  14.415   1.267
  620SOL    HW1 3693  12.412  14.323   1.264
  620SOL    HW2 3694  12.519  14.415   1.317
  621SOL     OW 3695   5.788  14.400   3.033
  621SOL    HW1 3696   5.863  14.460   3.037
  621SOL    HW2 3697   5.749  14.405   3.121
  622SOL     OW 3698  14.495   4.236   3.777
  622SOL    HW1 3699  14.584   4.262   3.803
  622SOL    HW2 3700  14.439   4.278   3.843
  623SOL     OW 3701   6.244  13.084  12.528
  623SOL    HW1 3702   6.191  13.094  12.607
  623SOL    HW2 3703   6.255  13.173  12.494
  624SOL     OW 3704   8.037  14.689  12.075
  624SOL    HW1 3705   7.960  14.650  12.035
  624SOL    HW2 3706   8.038  14.780  12.044
  625SOL     OW 3707  10.530  14.868   4.038
  625SOL    HW1 3708  10.527   0.037   3.955
  625SOL    HW2 3709  10.606  14.810   4.029
  626SOL     OW 3710   2.198   2.040  13.589
  626SOL    HW1 3711   2.107   2.056  13.613
  626SOL    HW2 3712   2.241   2.020  13.673
  627SOL     OW 3713  13.831  10.805   9.467
  627SOL    HW1 3714  13.870  10.773   9.385
  627SOL    HW2 3715  13.827  10.900   9.455
  628SOL     OW 3716   9.506   0.813   7.705
  628SOL    HW1 3717   9.536   0.771   7.785
  628SOL    HW2 3718   9.477   0.742   7.649
  629SOL     OW 3719   7.696   6.734   8.638
  629SOL    HW1 3720   7.601   6.742   8.631
  629SOL    HW2 3721   7.712   6.640   8.640
  630SOL     OW 3722   0.626  13.578   3.425
  630SOL    HW1 3723   0.609  13.667   3.454
  630SOL    HW2 3724   0.688  13.589   3.352
  631SOL     OW 3725  13.301  13.283   7.715
  631SOL    HW1 3726  13.329  13.218   7.651
  631SOL    HW2 3727  13.210  13.303   7.691
  632SOL     OW 3728   1.839   0.804   9.582
  632SOL    HW1 3729   1.821   0.711   9.567
  632SOL    HW2 3730   1.875   0.807   9.671
  633SOL     OW 3731  14.133   0.830   5.368
  633SOL    HW1 3732  14.138   0.808   5.275
  633SOL    HW2 3733  14.076   0.908   5.370
  634SOL     OW 3734  12.502   1.326   3.581
  634SOL    HW1 3735  12.440   1.393   3.608
  634SOL    HW2 3736  12.452   1.245   3.584
  635SOL     OW 3737   4.822   6.080   2.533
  635SOL    HW1 3738   4.732   6.081   2.502
  635SOL    HW2 3739   4.861   6.003   2.490
  636SOL     OW 3740   0.804   7.820   4.518
  636SOL    HW1 3741   0.781   7.903   4.560
  636SOL    HW2 3742   0.769   7.753   4.575
  637SOL     OW 3743   9.236   0.621  10.291
  637SOL    HW1 3744   9.303   0.589  10.351
  637SOL    HW2 3745   9.280   0.624  10.206
  638SOL     OW 3746   4.692   8.668   6.873
  638SOL    HW1 3747   4.617   8.678   6.814
  638SOL    HW2 3748   4.686   8.577   6.903
  639SOL     OW 3749   4.230   3.159  10.174
  639SOL    HW1 3750   4.202   3.166  10.265
  639SOL    HW2 3751   4.252   3.249  10.149
  640SOL     OW 3752   7.516  12.307   9.875
  640SOL    HW1 3753   7.430  12.331   9.840
  640SOL    HW2 3754   7.498  12.282   9.966
  641SOL     OW 3755  10.769  11.424   0.562
  641SOL    HW1 3756  10.808  11.337   0.549
  641SOL    HW2 3757  10.680  11.416   0.526
  642SOL     OW 3758  14.621   4.127  12.237
  642SOL    HW1 3759  14.616   4.221  12.220
  642SOL    HW2 3760  14.709   4.103  12.211
  643SOL     OW 3761  12.625   8.121   0.775
  643SOL    HW1 3762  12.625   8.106   0.680
  643SOL    HW2 3763  12.707   8.082   0.805
  644SOL     OW 3764   8.104  12.409  12.733
  644SOL    HW1 3765   8.192  12.388  12.764
  644SOL    HW2 3766   8.065  12.324  12.713
  645SOL     OW 3767   6.102   8.814   2.773
  645SOL    HW1 3768   6.107   8.908   2.758
  645SOL    HW2 3769   6.062   8.805   2.859
  646SOL     OW 3770  13.590   7.503   0.272
  646SOL    HW1 3771  13.594   7.565   0.345
  646SOL    HW2 3772  13.659   7.533   0.212
  647SOL     OW 3773   7.012   7.182   8.367
  647SOL    HW1 3774   6.922   7.210   8.350
  647SOL    HW2 3775   7.036   7.225   8.449
  648SOL     OW 3776   4.876   5.234  11.079
  648SOL    HW1 3777   4.894   5.314  11.029
  648SOL    HW2 3778   4.863   5.264  11.169
  649SOL     OW 3779  10.587   6.442   2.278
  649SOL    HW1 3780  10.506   6.486   2.253
  649SOL    HW2 3781  10.562   6.350   2.287
  650SOL     OW 3782  14.675   2.149   7.913
  650SOL    HW1 3783  14.654   2.096   7.989
  650SOL    HW2 3784  14.645   2.098   7.838
  651SOL     OW 3785  10.583   9.365  13.032
  651SOL    HW1 3786  10.587   9.457  13.007
  651SOL    HW2 3787  10.524   9.325  12.968
  652SOL     OW 3788   8.092   5.256   9.720
  652SOL    HW1 3789   8.135   5.222   9.798
  652SOL    HW2 3790   8.163   5.297   9.670
  653SOL     OW 3791   0.264   9.515   9.058
  653SOL    HW1 3792   0.359   9.509   9.072
  653SOL    HW2 3793   0.252   9.601   9.017
  654SOL     OW 3794  11.184   3.852   5.555
  654SOL    HW1 3795  11.197   3.775   5.610
  654SOL    HW2 3796  11.090   3.870   5.561
  655SOL     OW 3797   9.099   7.730   2.755
  655SOL    HW1 3798   9.165   7.675   2.796
  655SOL    HW2 3799   9.113   7.817   2.794
  656SOL     OW 3800   4.389   3.202   6.878
  656SOL    HW1 3801   4.371   3.283   6.926
  656SOL    HW2 3802   4.465   3.164   6.922
  657SOL     OW 3803  13.803  11.891   2.850
  657SOL    HW1 3804  13.775  11.980   2.870
  657SOL    HW2 3805  13.725  11.849   2.813
  658SOL     OW 3806  14.106   0.776   7.793
  658SOL    HW1 3807  14.083   0.793   7.885
  658SOL    HW2 3808  14.037   0.820   7.743
  659SOL     OW 3809   5.617  13.156  13.786
  659SOL    HW1 3810   5.596  13.197  13.702
  659SOL    HW2 3811   5.539  13.168  13.839
  660SOL     OW 3812  12.211   5.502   9.972
  660SOL    HW1 3813  12.162   5.555   9.910
  660SOL    HW2 3814  12.189   5.539  10.058
  661SOL     OW 3815   3.545   4.627   1.851
  661SOL    HW1 3816   3.638   4.636   1.827
  661SOL    HW2 3817   3.545   4.575   1.931
  662SOL     OW 3818   9.144  13.645   9.557
  662SOL    HW1 3819   9.228  13.612   9.588
  662SOL    HW2 3820   9.147  13.635   9.462
  663SOL     OW 3821  11.219   1.837   9.907
  663SOL    HW1 3822  11.148   1.894   9.880
  663SOL    HW2 3823  11.283   1.895   9.947
  664SOL     OW 3824  14.602   5.608  11.125
  664SOL    HW1 3825  14.628   5.518  11.146
  664SOL    HW2 3826  14.683   5.649  11.095
  665SOL     OW 3827   3.621   6.340  10.005
  665SOL    HW1 3828   3.680   6.287  10.059
  665SOL    HW2 3829   3.674   6.415   9.978
  666SOL     OW 3830   1.144   9.591   5.802
  666SOL    HW1 3831   1.081   9.571   5.872
  666SOL    HW2 3832   1.093   9.582   5.721
  667SOL     OW 3833   2.528   0.145  11.518
  667SOL    HW1 3834   2.474   0.201  11.462
  667SOL    HW2 3835   2.540   0.065  11.467
  668SOL     OW 3836   1.991   1.305   4.130
  668SOL    HW1 3837   1.975   1.315   4.223
  668SOL    HW2 3838   2.066   1.245   4.124
  669SOL     OW 3839   9.773   4.220   5.569
  669SOL    HW1 3840   9.854   4.270   5.573
  669SOL    HW2 3841   9.705   4.281   5.596
  670SOL     OW 3842   8.095  13.718  11.667
  670SOL    HW1 3843   8.178  13.762  11.648
  670SOL    HW2 3844   8.115  13.625  11.657
  671SOL     OW 3845  14.147   1.085   9.475
  671SOL    HW1 3846  14.054   1.107   9.464
  671SOL    HW2 3847  14.159   1.082   9.570
  672SOL     OW 3848  13.857   4.275   8.420
  672SOL    HW1 3849  13.809   4.192   8.420
  672SOL    HW2 3850  13.808   4.330   8.359
  673SOL     OW 3851  10.964   1.240   7.420
  673SOL    HW1 3852  11.000   1.273   7.338
  673SOL    HW2 3853  10.924   1.156   7.397
  674SOL     OW 3854   3.330   7.806  13.139
  674SOL    HW1 3855   3.256   7.839  13.087
  674SOL    HW2 3856   3.352   7.722  13.098
  675SOL     OW 3857   4.185  13.633   6.522
  675SOL    HW1 3858   4.102  13.637   6.571
  675SOL    HW2 3859   4.208  13.724   6.507
  676SOL     OW 3860   9.270   9.002  11.512
  676SOL    HW1 3861   9.329   8.928  11.499
  676SOL    HW2 3862   9.321   9.063  11.566
  677SOL     OW 3863   7.060   8.858  13.104
  677SOL    HW1 3864   6.997   8.826  13.169
  677SOL    HW2 3865   7.009   8.864  13.023
  678SOL     OW 3866   6.571   8.394   4.487
  678SOL    HW1 3867   6.658   8.432   4.495
  678SOL    HW2 3868   6.516   8.446   4.545
  679SOL     OW 3869   4.968  14.055   3.705
  679SOL    HW1 3870   4.888  14.037   3.656
  679SOL    HW2 3871   4.938  14.103   3.783
  680SOL     OW 3872   1.882  14.146  11.451
  680SOL    HW1 3873   1.968  14.109  11.432
  680SOL    HW2 3874   1.833  14.073  11.489
  681SOL     OW 3875  11.025   6.945   3.187
  681SOL    HW1 3876  11.070   7.004   3.127
  681SOL    HW2 3877  10.932   6.961   3.172
  682SOL     OW 3878   1.191   0.324   0.005
  682SOL    HW1 3879   1.207   0.362  14.798
  682SOL    HW2 3880   1.263   0.261   0.016
  683SOL     OW 3881   9.911   6.271  13.532
  683SOL    HW1 3882   9.986   6.221  13.499
  683SOL    HW2 3883   9.948   6.325  13.603
  684SOL     OW 3884   9.314   3.240   0.683
  684SOL    HW1 3885   9.405   3.225   0.709
  684SOL    HW2 3886   9.289   3.160   0.637
  685SOL     OW 3887   9.367   4.110  13.631
  685SOL    HW1 3888   9.391   4.154  13.712
  685SOL    HW2 3889   9.279   4.141  13.612
  686SOL     OW 3890   2.298  12.959  14.110
  686SOL    HW1 3891   2.256  13.044  14.126
  686SOL    HW2 3892   2.270  12.904  14.184
  687SOL     OW 3893   2.491   3.485   1.209
  687SOL    HW1 3894   2.515   3.560   1.263
  687SOL    HW2 3895   2.537   3.411   1.249
  688SOL     OW 3896   6.644   0.726   4.904
  688SOL    HW1 3897   6.553   0.716   4.875
  688SOL    HW2 3898   6.665   0.642   4.946
  689SOL     OW 3899   8.975  13.110  14.850
  689SOL    HW1 3900   8.920  13.182  14.819
  689SOL    HW2 3901   9.059  13.151  14.870
  690SOL     OW 3902  11.309   0.973   9.616
  690SOL    HW1 3903  11.372   0.905   9.591
  690SOL    HW2 3904  11.361   1.053   9.624
  691SOL     OW 3905   2.168   1.253   6.077
  691SOL    HW1 3906   2.209   1.338   6.090
  691SOL    HW2 3907   2.240   1.194   6.055
  692SOL     OW 3908   5.205  13.019   9.463
  692SOL    HW1 3909   5.248  13.021   9.377
  692SOL    HW2 3910   5.205  13.109   9.493
  693SOL     OW 3911   2.934   7.807   7.329
  693SOL    HW1 3912   2.848   7.768   7.309
  693SOL    HW2 3913   2.914   7.893   7.365
  694SOL     OW 3914   3.677  12.662   9.901
  694SOL    HW1 3915   3.758  12.700   9.936
  694SOL    HW2 3916   3.636  12.619   9.976
  695SOL     OW 3917   7.558  13.133  14.086
  695SOL    HW1 3918   7.566  13.122  14.181
  695SOL    HW2 3919   7.474  13.093  14.064
  696SOL     OW 3920   8.190   4.417  10.421
  696SOL    HW1 3921   8.274   4.452  10.452
  696SOL    HW2 3922   8.208   4.324  10.406
  697SOL     OW 3923   0.245   5.260   2.770
  697SOL    HW1 3924   0.286   5.193   2.824
  697SOL    HW2 3925   0.152   5.236   2.768
  698SOL     OW 3926   5.615   1.075   9.238
  698SOL    HW1 3927   5.675   1.148   9.221
  698SOL    HW2 3928   5.540   1.115   9.281
  699SOL     OW 3929  10.232   0.908  12.827
  699SOL    HW1 3930  10.199   0.819  12.815
  699SOL    HW2 3931  10.171   0.948  12.889
  700SOL     OW 3932   8.286   4.855   8.724
  700SOL    HW1 3933   8.222   4.921   8.749
  700SOL    HW2 3934   8.347   4.850   8.798
  701SOL     OW 3935   4.004   6.893   5.831
  701SOL    HW1 3936   4.047   6.865   5.749
  701SOL    HW2 3937   3.919   6.849   5.829
  702SOL     OW 3938  10.623   3.034   4.664
  702SOL    HW1 3939  10.654   3.045   4.574
  702SOL    HW2 3940  10.533   3.003   4.655
  703SOL     OW 3941  12.817   5.904   2.473
  703SOL    HW1 3942  12.755   5.848   2.518
  703SOL    HW2 3943  12.860   5.954   2.543
  704SOL     OW 3944   5.883   7.278   5.419
  704SOL    HW1 3945   5.814   7.212   5.411
  704SOL    HW2 3946   5.885   7.321   5.334
  705SOL     OW 3947  14.787   9.553  12.200
  705SOL    HW1 3948  14.829   9.638  12.214
  705SOL    HW2 3949  14.757   9.527  12.287
  706SOL     OW 3950  12.332  10.319   9.431
  706SOL    HW1 3951  12.367  10.407   9.445
  706SOL    HW2 3952  12.342  10.304   9.336
  707SOL     OW 3953   9.594   3.182   8.666
  707SOL    HW1 3954   9.554   3.122   8.603
  707SOL    HW2 3955   9.637   3.125   8.730
  708SOL     OW 3956   3.927   6.382   0.976
  708SOL    HW1 3957   4.010   6.428   0.980
  708SOL    HW2 3958   3.925   6.328   1.056
  709SOL     OW 3959  12.473   3.058   1.773
  709SOL    HW1 3960  12.549   2.999   1.780
  709SOL    HW2 3961  12.494   3.114   1.698
  710SOL     OW 3962  12.607   2.364   1.453
  710SOL    HW1 3963  12.620   2.270   1.457
  710SOL    HW2 3964  12.543   2.376   1.383
  711SOL     OW 3965   8.361  11.036  12.870
  711SOL    HW1 3966   8.295  10.982  12.912
  711SOL    HW2 3967   8.436  10.978  12.860
  712SOL     OW 3968   7.810   6.918   0.566
  712SOL    HW1 3969   7.865   6.870   0.503
  712SOL    HW2 3970   7.872   6.965   0.621
  713SOL     OW 3971   4.681   8.903   2.948
  713SOL    HW1 3972   4.613   8.969   2.955
  713SOL    HW2 3973   4.635   8.819   2.957
  714SOL     OW 3974  13.242  14.414   4.764
  714SOL    HW1 3975  13.297  14.345   4.803
  714SOL    HW2 3976  13.298  14.455   4.699
  715SOL     OW 3977   0.811   2.271  14.385
  715SOL    HW1 3978   0.720   2.288  14.411
  715SOL    HW2 3979   0.862   2.340  14.428
  716SOL     OW 3980  14.542  14.305   5.799
  716SOL    HW1 3981  14.456  14.275   5.768
  716SOL    HW2 3982  14.586  14.225   5.828
  717SOL     OW 3983   4.614   6.039   5.750
  717SOL    HW1 3984   4.638   5.970   5.688
  717SOL    HW2 3985   4.529   6.071   5.720
  718SOL     OW 3986   5.711   8.242   3.484
  718SOL    HW1 3987   5.800   8.208   3.494
  718SOL    HW2 3988   5.677   8.196   3.407
  719SOL     OW 3989   8.907  10.618   8.319
  719SOL    HW1 3990   8.953  10.689   8.365
  719SOL    HW2 3991   8.897  10.650   8.230
  720SOL     OW 3992   8.220   8.532   5.956
  720SOL    HW1 3993   8.207   8.627   5.952
  720SOL    HW2 3994   8.207   8.503   5.866
  721SOL     OW 3995   5.157   9.901  13.238
  721SOL    HW1 3996   5.074   9.858  13.217
  721SOL    HW2 3997   5.222   9.831  13.233
  722SOL     OW 3998   3.286   5.424   5.285
  722SOL    HW1 3999   3.367   5.417   5.335
  722SOL    HW2 4000   3.286   5.513   5.249
  723SOL     OW 4001   3.168  10.686   9.483
  723SOL    HW1 4002   3.225  10.625   9.530
  723SOL    HW2 4003   3.080  10.662   9.510
  724SOL     OW 4004   7.239   6.982   5.774
  724SOL    HW1 4005   7.201   6.951   5.857
  724SOL    HW2 4006   7.227   6.909   5.713
  725SOL     OW 4007   0.645   1.174  10.740
  725SOL    HW1 4008   0.564   1.187  10.689
  725SOL    HW2 4009   0.615   1.171  10.831
  726SOL     OW 4010   7.361  12.564   2.836
  726SOL    HW1 4011   7.448  12.604   2.841
  726SOL    HW2 4012   7.357  12.525   2.749
  727SOL     OW 4013  14.408   0.590   6.752
  727SOL    HW1 4014  14.385   0.606   6.660
  727SOL    HW2 4015  14.459   0.667   6.778
  728SOL     OW 4016  11.904  10.449   9.469
  728SOL    HW1 4017  11.900  10.365   9.423
  728SOL    HW2 4018  11.969  10.499   9.421
  729SOL     OW 4019  12.677  10.497   4.575
  729SOL    HW1 4020  12.616  10.424   4.577
  729SOL    HW2 4021  12.742  10.472   4.509
  730SOL     OW 4022   3.772   9.286   4.571
  730SOL    HW1 4023   3.807   9.372   4.549
  730SOL    HW2 4024   3.849   9.232   4.587
  731SOL     OW 4025  14.398  14.387  11.036
  731SOL    HW1 4026  14.348  14.308  11.013
  731SOL    HW2 4027  14.346  14.459  11.001
  732SOL     OW 4028   3.779   7.805   4.624
  732SOL    HW1 4029   3.756   7.773   4.711
  732SOL    HW2 4030   3.716   7.874   4.606
  733SOL     OW 4031   5.590  13.914   4.420
  733SOL    HW1 4032   5.552  13.866   4.494
  733SOL    HW2 4033   5.539  13.995   4.415
  734SOL     OW 4034  11.998  12.832   2.109
  734SOL    HW1 4035  12.082  12.823   2.063
  734SOL    HW2 4036  11.952  12.750   2.090
  735SOL     OW 4037  10.770   9.696   9.282
  735SOL    HW1 4038  10.802   9.619   9.329
  735SOL    HW2 4039  10.754   9.761   9.351
  736SOL     OW 4040   5.085   5.192  10.096
  736SOL    HW1 4041   5.011   5.223  10.148
  736SOL    HW2 4042   5.154   5.257  10.111
  737SOL     OW 4043  12.870   8.016   2.096
  737SOL    HW1 4044  12.951   8.067   2.093
  737SOL    HW2 4045  12.823   8.041   2.017
  738SOL     OW 4046   5.062   9.284   6.125
  738SOL    HW1 4047   5.103   9.237   6.198
  738SOL    HW2 4048   5.018   9.358   6.166
  739SOL     OW 4049  13.381  11.557   4.818
  739SOL    HW1 4050  13.390  11.626   4.884
  739SOL    HW2 4051  13.315  11.498   4.854
  740SOL     OW 4052  13.084  12.479   7.639
  740SOL    HW1 4053  13.056  12.439   7.556
  740SOL    HW2 4054  13.057  12.416   7.706
  741SOL     OW 4055  10.682   8.226   1.880
  741SOL    HW1 4056  10.611   8.164   1.899
  741SOL    HW2 4057  10.640   8.295   1.829
  742SOL     OW 4058   1.273  12.994   9.202
  742SOL    HW1 4059   1.368  12.984   9.198
  742SOL    HW2 4060   1.250  13.037   9.120
  743SOL     OW 4061  12.812   3.919   1.514
  743SOL    HW1 4062  12.868   3.920   1.592
  743SOL    HW2 4063  12.734   3.870   1.542
  744SOL     OW 4064  11.947   9.455  12.779
  744SOL    HW1 4065  11.889   9.380  12.769
  744SOL    HW2 4066  11.896   9.529  12.746
  745SOL     OW 4067  10.449  12.657  14.433
  745SOL    HW1 4068  10.471  12.610  14.353
  745SOL    HW2 4069  10.405  12.591  14.488
  746SOL     OW 4070   8.378   0.334   1.365
  746SOL    HW1 4071   8.313   0.303   1.427
  746SOL    HW2 4072   8.382   0.266   1.298
  747SOL     OW 4073   3.537   4.887  14.817
  747SOL    HW1 4074   3.580   4.972  14.825
  747SOL    HW2 4075   3.448   4.907  14.790
  748SOL     OW 4076   0.868   8.236   8.460
  748SOL    HW1 4077   0.924   8.159   8.455
  748SOL    HW2 4078   0.862   8.256   8.554
  749SOL     OW 4079   5.313   8.996   7.642
  749SOL    HW1 4080   5.350   8.921   7.595
  749SOL    HW2 4081   5.385   9.060   7.645
  750SOL     OW 4082   9.618   7.992   5.089
  750SOL    HW1 4083   9.643   8.084   5.082
  750SOL    HW2 4084   9.558   7.978   5.016
  751SOL     OW 4085  11.891   0.921  12.457
  751SOL    HW1 4086  11.860   0.942  12.369
  751SOL    HW2 4087  11.937   1.000  12.486
  752SOL     OW 4088  11.411  11.090   6.609
  752SOL    HW1 4089  11.394  11.138   6.528
  752SOL    HW2 4090  11.355  11.012   6.604
  753SOL     OW 4091   0.779   0.515   8.248
  753SOL    HW1 4092   0.733   0.457   8.308
  753SOL    HW2 4093   0.869   0.482   8.246
  754SOL     OW 4094   1.346   9.784   7.575
  754SOL    HW1 4095   1.392   9.775   7.658
  754SOL    HW2 4096   1.366   9.703   7.527
  755SOL     OW 4097   5.051  12.393  11.549
  755SOL    HW1 4098   5.072  12.370  11.640
  755SOL    HW2 4099   5.136  12.396  11.505
  756SOL     OW 4100  12.093   2.836   4.499
  756SOL    HW1 4101  12.112   2.767   4.436
  756SOL    HW2 4102  11.998   2.840   4.504
  757SOL     OW 4103   8.647  14.710  11.636
  757SOL    HW1 4104   8.716  14.653  11.668
  757SOL    HW2 4105   8.573  14.651  11.621
  758SOL     OW 4106   9.077  11.863   4.556
  758SOL    HW1 4107   9.058  11.898   4.469
  758SOL    HW2 4108   9.002  11.890   4.609
  759SOL     OW 4109   2.643   5.264   7.789
  759SOL    HW1 4110   2.671   5.185   7.742
  759SOL    HW2 4111   2.565   5.293   7.743
  760SOL     OW 4112   5.124  11.942   1.940
  760SOL    HW1 4113   5.189  11.997   1.896
  760SOL    HW2 4114   5.114  11.866   1.883
  761SOL     OW 4115   1.138   0.884   8.232
  761SOL    HW1 4116   1.065   0.903   8.174
  761SOL    HW2 4117   1.157   0.968   8.275
  762SOL     OW 4118  12.726   8.603   1.445
  762SOL    HW1 4119  12.759   8.663   1.512
  762SOL    HW2 4120  12.780   8.525   1.454
  763SOL     OW 4121   5.830  11.593  13.980
  763SOL    HW1 4122   5.896  11.532  13.946
  763SOL    HW2 4123   5.876  11.642  14.049
  764SOL     OW 4124   5.783   3.363   1.040
  764SOL    HW1 4125   5.850   3.309   0.999
  764SOL    HW2 4126   5.825   3.400   1.118
  765SOL     OW 4127  12.991  12.262   6.599
  765SOL    HW1 4128  12.906  12.244   6.638
  765SOL    HW2 4129  13.024  12.338   6.646
  766SOL     OW 4130  14.623  12.985  10.815
  766SOL    HW1 4131  14.701  12.955  10.861
  766SOL    HW2 4132  14.566  12.908  10.811
  767SOL     OW 4133   5.480   2.768   5.392
  767SOL    HW1 4134   5.551   2.708   5.373
  767SOL    HW2 4135   5.500   2.804   5.478
  768SOL     OW 4136   7.894   9.594  12.274
  768SOL    HW1 4137   7.925   9.505  12.286
  768SOL    HW2 4138   7.841   9.590  12.194
  769SOL     OW 4139   2.835  11.753   5.726
  769SOL    HW1 4140   2.832  11.847   5.711
  769SOL    HW2 4141   2.880  11.717   5.650
  770SOL     OW 4142   4.233   4.333   4.650
  770SOL    HW1 4143   4.181   4.287   4.583
  770SOL    HW2 4144   4.317   4.287   4.651
  771SOL     OW 4145  11.213   9.956   3.811
  771SOL    HW1 4146  11.257  10.038   3.832
  771SOL    HW2 4147  11.181   9.923   3.895
  772SOL     OW 4148  13.471  12.446   8.664
  772SOL    HW1 4149  13.480  12.512   8.734
  772SOL    HW2 4150  13.523  12.372   8.695
  773SOL     OW 4151   6.053   1.132  11.169
  773SOL    HW1 4152   6.082   1.101  11.084
  773SOL    HW2 4153   5.974   1.184  11.151
  774SOL     OW 4154   9.894   9.048   8.601
  774SOL    HW1 4155   9.956   9.099   8.550
  774SOL    HW2 4156   9.868   9.107   8.673
  775SOL     OW 4157   5.939  10.982   5.693
  775SOL    HW1 4158   5.890  11.034   5.629
  775SOL    HW2 4159   5.961  11.045   5.762
  776SOL     OW 4160   4.155   4.269  10.697
  776SOL    HW1 4161   4.187   4.345  10.747
  776SOL    HW2 4162   4.068   4.294  10.667
  777SOL     OW 4163  12.745   9.235   3.223
  777SOL    HW1 4164  12.824   9.190   3.252
  777SOL    HW2 4165  12.716   9.284   3.300
  778SOL     OW 4166   5.418   2.140   0.637
  778SOL    HW1 4167   5.322   2.141   0.639
  778SOL    HW2 4168   5.440   2.053   0.604
  779SOL     OW 4169   2.304   3.781  10.944
  779SOL    HW1 4170   2.259   3.737  10.872
  779SOL    HW2 4171   2.347   3.709  10.991
  780SOL     OW 4172  11.380  13.554  13.380
  780SOL    HW1 4173  11.389  13.589  13.469
  780SOL    HW2 4174  11.292  13.516  13.378
  781SOL     OW 4175   4.104   1.033   2.879
  781SOL    HW1 4176   4.072   1.123   2.873
  781SOL    HW2 4177   4.195   1.043   2.910
  782SOL     OW 4178   4.558  14.019  10.102
  782SOL    HW1 4179   4.546  13.937  10.150
  782SOL    HW2 4180   4.589  14.081  10.168
  783SOL     OW 4181  14.583   9.303   8.070
  783SOL    HW1 4182  14.498   9.347   8.073
  783SOL    HW2 4183  14.602   9.279   8.161
  784SOL     OW 4184  11.330   4.260  12.723
  784SOL    HW1 4185  11.257   4.308  12.764
  784SOL    HW2 4186  11.408   4.291  12.769
  785SOL     OW 4187   9.435   3.763   0.561
  785SOL    HW1 4188   9.512   3.806   0.598
  785SOL    HW2 4189   9.386   3.834   0.520
  786SOL     OW 4190   8.656   6.748   7.622
  786SOL    HW1 4191   8.704   6.790   7.551
  786SOL    HW2 4192   8.723   6.724   7.685
  787SOL     OW 4193   8.057   9.790   7.662
  787SOL    HW1 4194   7.997   9.717   7.647
  787SOL    HW2 4195   8.144   9.752   7.650
  788SOL     OW 4196  11.620   7.254  12.112
  788SOL    HW1 4197  11.642   7.346  12.122
  788SOL    HW2 4198  11.686   7.207  12.163
  789SOL     OW 4199  12.257  13.732   6.519
  789SOL    HW1 4200  12.282  13.789   6.446
  789SOL    HW2 4201  12.299  13.648   6.499
  790SOL     OW 4202  11.359  11.638   0.823
  790SOL    HW1 4203  11.295  11.701   0.789
  790SOL    HW2 4204  11.309  11.580   0.879
  791SOL     OW 4205  12.147  13.323   3.071
  791SOL    HW1 4206  12.150  13.241   3.021
  791SOL    HW2 4207  12.237  13.338   3.099
  792SOL     OW 4208   1.908   9.641  12.264
  792SOL    HW1 4209   1.868   9.561  12.298
  792SOL    HW2 4210   1.839   9.707  12.271
  793SOL     OW 4211   4.815  10.939  13.797
  793SOL    HW1 4212   4.870  10.865  13.771
  793SOL    HW2 4213   4.856  11.015  13.757
  794SOL     OW 4214   2.198   1.681   5.958
  794SOL    HW1 4215   2.191   1.689   6.053
  794SOL    HW2 4216   2.156   1.761   5.925
  795SOL     OW 4217  10.334   3.506   4.528
  795SOL    HW1 4218  10.391   3.429   4.538
  795SOL    HW2 4219  10.290   3.493   4.444
  796SOL     OW 4220   9.576   2.916  13.186
  796SOL    HW1 4221   9.576   2.851  13.115
  796SOL    HW2 4222   9.494   2.964  13.174
  797SOL     OW 4223   3.887  11.605   1.320
  797SOL    HW1 4224   3.959  11.546   1.298
  797SOL    HW2 4225   3.841  11.560   1.391
  798SOL     OW 4226   5.057   6.497   2.793
  798SOL    HW1 4227   4.963   6.484   2.784
  798SOL    HW2 4228   5.094   6.462   2.712
  799SOL     OW 4229   2.383  12.860   1.872
  799SOL    HW1 4230   2.370  12.872   1.966
  799SOL    HW2 4231   2.298  12.882   1.833
  800SOL     OW 4232   5.148   0.068   6.239
  800SOL    HW1 4233   5.164   0.154   6.199
  800SOL    HW2 4234   5.076   0.082   6.300
  801SOL     OW 4235  13.723   6.416   5.798
  801SOL    HW1 4236  13.642   6.442   5.753
  801SOL    HW2 4237  13.756   6.497   5.837
  802SOL     OW 4238   4.253   1.289   8.129
  802SOL    HW1 4239   4.239   1.382   8.112
  802SOL    HW2 4240   4.347   1.277   8.116
  803SOL     OW 4241  10.555   3.212   1.049
  803SOL    HW1 4242  10.484   3.261   1.008
  803SOL    HW2 4243  10.599   3.168   0.977
  804SOL     OW 4244   4.312   5.459  10.967
  804SOL    HW1 4245   4.242   5.395  10.982
  804SOL    HW2 4246   4.393   5.412  10.988
  805SOL     OW 4247   9.376   3.069  14.724
  805SOL    HW1 4248   9.460   3.102  14.690
  805SOL    HW2 4249   9.310   3.126  14.683
  806SOL     OW 4250   5.993   5.715   4.059
  806SOL    HW1 4251   5.909   5.721   4.105
  806SOL    HW2 4252   5.985   5.636   4.004
  807SOL     OW 4253   3.592  14.680   1.837
  807SOL    HW1 4254   3.601  14.605   1.777
  807SOL    HW2 4255   3.621  14.755   1.786
  808SOL     OW 4256   4.094   2.183  12.115
  808SOL    HW1 4257   4.014   2.147  12.152
  808SOL    HW2 4258   4.099   2.147  12.027
  809SOL     OW 4259   6.818   7.710   5.364
  809SOL    HW1 4260   6.826   7.633   5.307
  809SOL    HW2 4261   6.781   7.778   5.308
  810SOL     OW 4262   6.681   0.899   7.762
  810SOL    HW1 4263   6.667   0.842   7.838
  810SOL    HW2 4264   6.696   0.838   7.689
  811SOL     OW 4265  11.568   4.819  13.290
  811SOL    HW1 4266  11.576   4.742  13.347
  811SOL    HW2 4267  11.623   4.885  13.333
  812SOL     OW 4268   4.348   9.196   8.298
  812SOL    HW1 4269   4.413   9.242   8.246
  812SOL    HW2 4270   4.270   9.252   8.295
  813SOL     OW 4271  10.130   6.468   5.297
  813SOL    HW1 4272  10.151   6.561   5.292
  813SOL    HW2 4273  10.123   6.450   5.391
  814SOL     OW 4274  10.457   8.062   9.918
  814SOL    HW1 4275  10.442   8.074  10.012
  814SOL    HW2 4276  10.450   8.151   9.882
  815SOL     OW 4277   7.163   2.016   1.571
  815SOL    HW1 4278   7.168   2.061   1.486
  815SOL    HW2 4279   7.148   1.924   1.547
  816SOL     OW 4280   3.067   4.748   7.607
  816SOL    HW1 4281   3.016   4.828   7.590
  816SOL    HW2 4282   3.148   4.760   7.557
  817SOL     OW 4283   1.538  10.895   3.485
  817SOL    HW1 4284   1.586  10.813   3.497
  817SOL    HW2 4285   1.450  10.875   3.516
  818SOL     OW 4286   0.752  12.440   9.550
  818SOL    HW1 4287   0.800  12.501   9.494
  818SOL    HW2 4288   0.760  12.478   9.638
  819SOL     OW 4289   8.086   3.019   4.899
  819SOL    HW1 4290   8.103   2.978   4.814
  819SOL    HW2 4291   8.001   2.984   4.926
  820SOL     OW 4292   7.080   6.173   1.712
  820SOL    HW1 4293   7.147   6.136   1.770
  820SOL    HW2 4294   7.129   6.228   1.651
  821SOL     OW 4295  11.555  11.544   0.670
  821SOL    HW1 4296  11.497  11.471   0.649
  821SOL    HW2 4297  11.500  11.606   0.717
  822SOL     OW 4298   4.321  11.042   1.609
  822SOL    HW1 4299   4.360  11.091   1.682
  822SOL    HW2 4300   4.243  11.001   1.647
  823SOL     OW 4301   8.797   3.982   9.811
  823SOL    HW1 4302   8.794   3.966   9.905
  823SOL    HW2 4303   8.751   4.065   9.800
  824SOL     OW 4304   2.503  10.691   1.519
  824SOL    HW1 4305   2.433  10.634   1.487
  824SOL    HW2 4306   2.509  10.760   1.452
  825SOL     OW 4307   8.051   3.620   4.297
  825SOL    HW1 4308   8.030   3.711   4.275
  825SOL    HW2 4309   7.997   3.568   4.238
  826SOL     OW 4310   5.473  14.671   4.449
  826SOL    HW1 4311   5.525  14.635   4.377
  826SOL    HW2 4312   5.514  14.755   4.468
  827SOL     OW 4313  14.405   5.685  11.748
  827SOL    HW1 4314  14.397   5.690  11.844
  827SOL    HW2 4315  14.417   5.776  11.721
  828SOL     OW 4316  13.822  11.335  11.978
  828SOL    HW1 4317  13.754  11.271  11.998
  828SOL    HW2 4318  13.845  11.372  12.063
  829SOL     OW 4319   6.567   7.230   1.561
  829SOL    HW1 4320   6.623   7.299   1.525
  829SOL    HW2 4321   6.533   7.184   1.484
  830SOL     OW 4322   6.680   3.638   6.693
  830SOL    HW1 4323   6.693   3.552   6.733
  830SOL    HW2 4324   6.671   3.619   6.600
  831SOL     OW 4325   1.502   7.013   3.423
  831SOL    HW1 4326   1.442   7.087   3.412
  831SOL    HW2 4327   1.518   6.981   3.334
  832SOL     OW 4328   8.397  12.725   2.193
  832SOL    HW1 4329   8.326  12.781   2.160
  832SOL    HW2 4330   8.439  12.692   2.114
  833SOL     OW 4331   7.676  13.609   5.370
  833SOL    HW1 4332   7.629  13.688   5.395
  833SOL    HW2 4333   7.764  13.638   5.348
  834SOL     OW 4334   1.824   8.784  12.634
  834SOL    HW1 4335   1.899   8.842  12.624
  834SOL    HW2 4336   1.767   8.805  12.559
  835SOL     OW 4337   9.254   9.712  14.099
  835SOL    HW1 4338   9.347   9.729  14.112
  835SOL    HW2 4339   9.217   9.712  14.188
  836SOL     OW 4340  14.772   4.300  10.293
  836SOL    HW1 4341  14.687   4.309  10.335
  836SOL    HW2 4342  14.834   4.334  10.357
  837SOL     OW 4343  13.584  13.306   2.600
  837SOL    HW1 4344  13.620  13.288   2.513
  837SOL    HW2 4345  13.497  13.266   2.599
  838SOL     OW 4346   4.442   1.370   9.544
  838SOL    HW1 4347   4.385   1.420   9.486
  838SOL    HW2 4348   4.521   1.424   9.552
  839SOL     OW 4349   5.017  10.511   1.165
  839SOL    HW1 4350   5.090  10.461   1.201
  839SOL    HW2 4351   4.945  10.495   1.226
  840SOL     OW 4352   7.951   9.715  12.533
  840SOL    HW1 4353   7.955   9.646  12.600
  840SOL    HW2 4354   7.897   9.677  12.463
  841SOL     OW 4355  11.848   4.086  12.962
  841SOL    HW1 4356  11.943   4.087  12.975
  841SOL    HW2 4357  11.837   4.067  12.869
  842SOL     OW 4358   5.803  10.906  12.735
  842SOL    HW1 4359   5.781  10.954  12.655
  842SOL    HW2 4360   5.720  10.867  12.763
  843SOL     OW 4361   7.478   5.366   7.348
  843SOL    HW1 4362   7.555   5.402   7.304
  843SOL    HW2 4363   7.499   5.370   7.441
  844SOL     OW 4364   6.034  13.088   8.088
  844SOL    HW1 4365   5.988  13.044   8.016
  844SOL    HW2 4366   6.014  13.034   8.165
  845SOL     OW 4367   0.459   4.778  10.309
  845SOL    HW1 4368   0.504   4.852  10.350
  845SOL    HW2 4369   0.496   4.774  10.221
  846SOL     OW 4370   8.182  13.396   1.995
  846SOL    HW1 4371   8.160  13.450   2.071
  846SOL    HW2 4372   8.118  13.325   1.996
  847SOL     OW 4373   4.222   2.341   5.695
  847SOL    HW1 4374   4.214   2.249   5.719
  847SOL    HW2 4375   4.313   2.363   5.714
  848SOL     OW 4376  11.895   5.269   3.784
  848SOL    HW1 4377  11.893   5.350   3.835
  848SOL    HW2 4378  11.940   5.206   3.840
  849SOL     OW 4379   5.273   6.491   7.041
  849SOL    HW1 4380   5.261   6.397   7.059
  849SOL    HW2 4381   5.206   6.534   7.095
  850SOL     OW 4382   4.011  12.795   5.986
  850SOL    HW1 4383   3.952  12.734   5.943
  850SOL    HW2 4384   4.092  12.745   5.998
  851SOL     OW 4385   1.954  11.673  14.499
  851SOL    HW1 4386   1.987  11.762  14.484
  851SOL    HW2 4387   1.888  11.660  14.430
  852SOL     OW 4388   1.022   7.521  12.974
  852SOL    HW1 4389   0.960   7.491  12.908
  852SOL    HW2 4390   1.033   7.445  13.032
  853SOL     OW 4391  10.685  10.179  12.181
  853SOL    HW1 4392  10.726  10.169  12.095
  853SOL    HW2 4393  10.758  10.178  12.243
  854SOL     OW 4394   6.832  12.721   6.153
  854SOL    HW1 4395   6.771  12.749   6.085
  854SOL    HW2 4396   6.826  12.625   6.153
  855SOL     OW 4397   5.723  11.362  10.971
  855SOL    HW1 4398   5.649  11.384  11.028
  855SOL    HW2 4399   5.798  11.356  11.031
  856SOL     OW 4400   7.552   3.399   9.647
  856SOL    HW1 4401   7.524   3.484   9.681
  856SOL    HW2 4402   7.573   3.347   9.724
  857SOL     OW 4403   6.456   6.873   4.026
  857SOL    HW1 4404   6.485   6.819   3.952
  857SOL    HW2 4405   6.457   6.962   3.991
  858SOL     OW 4406   2.553  14.153   3.429
  858SOL    HW1 4407   2.587  14.080   3.376
  858SOL    HW2 4408   2.458  14.137   3.434
  859SOL     OW 4409   9.974   1.344  11.473
  859SOL    HW1 4410  10.059   1.340  11.430
  859SOL    HW2 4411   9.935   1.258  11.458
  860SOL     OW 4412  12.122   5.743  11.871
  860SOL    HW1 4413  12.087   5.675  11.814
  860SOL    HW2 4414  12.068   5.739  11.950
  861SOL     OW 4415   3.300   4.349   2.005
  861SOL    HW1 4416   3.234   4.390   1.949
  861SOL    HW2 4417   3.253   4.278   2.048
  862SOL     OW 4418   9.833  11.497   8.227
  862SOL    HW1 4419   9.891  11.544   8.167
  862SOL    HW2 4420   9.880  11.498   8.311
  863SOL     OW 4421   0.420   0.610   9.591
  863SOL    HW1 4422   0.370   0.647   9.663
  863SOL    HW2 4423   0.432   0.518   9.615
  864SOL     OW 4424   2.977  13.317  12.057
  864SOL    HW1 4425   2.909  13.259  12.022
  864SOL    HW2 4426   3.005  13.369  11.982
  865SOL     OW 4427   6.835   3.525  12.511
  865SOL    HW1 4428   6.863   3.540  12.601
  865SOL    HW2 4429   6.744   3.496  12.519
  866SOL     OW 4430   2.832   6.659   1.280
  866SOL    HW1 4431   2.865   6.670   1.191
  866SOL    HW2 4432   2.770   6.731   1.292
  867SOL     OW 4433   6.037   3.364  10.584
  867SOL    HW1 4434   6.111   3.303  10.585
  867SOL    HW2 4435   6.076   3.449  10.566
  868SOL     OW 4436   1.438  10.913   3.805
  868SOL    HW1 4437   1.419  10.907   3.898
  868SOL    HW2 4438   1.433  11.006   3.785
  869SOL     OW 4439  11.254   6.562   1.764
  869SOL    HW1 4440  11.343   6.553   1.729
  869SOL    HW2 4441  11.262   6.538   1.856
  870SOL     OW 4442   8.794   5.306   4.658
  870SOL    HW1 4443   8.864   5.256   4.700
  870SOL    HW2 4444   8.753   5.355   4.729
  871SOL     OW 4445   4.492   0.898   0.811
  871SOL    HW1 4446   4.542   0.979   0.800
  871SOL    HW2 4447   4.402   0.928   0.828
  872SOL     OW 4448   1.080  12.206   6.352
  872SOL    HW1 4449   0.985  12.206   6.349
  872SOL    HW2 4450   1.107  12.221   6.261
  873SOL     OW 4451   9.016   6.182   9.410
  873SOL    HW1 4452   9.025   6.087   9.404
  873SOL    HW2 4453   8.936   6.202   9.361
  874SOL     OW 4454   8.037   2.370   1.122
  874SOL    HW1 4455   7.997   2.285   1.142
  874SOL    HW2 4456   8.024   2.422   1.201
  875SOL     OW 4457   8.230   3.232  13.932
  875SOL    HW1 4458   8.229   3.203  14.023
  875SOL    HW2 4459   8.313   3.278  13.923
  876SOL     OW 4460   6.028   4.029   8.099
  876SOL    HW1 4461   5.957   3.966   8.090
  876SOL    HW2 4462   6.074   4.001   8.179
  877SOL     OW 4463   2.941  11.557  14.013
  877SOL    HW1 4464   2.943  11.501  13.935
  877SOL    HW2 4465   2.947  11.495  14.087
  878SOL     OW 4466   8.363   8.961  13.505
  878SOL    HW1 4467   8.346   8.872  13.475
  878SOL    HW2 4468   8.280   8.991  13.540
  879SOL     OW 4469  12.561  13.449   6.877
  879SOL    HW1 4470  12.554  13.462   6.782
  879SOL    HW2 4471  12.605  13.528   6.908
  880SOL     OW 4472   1.631   4.149   0.777
  880SOL    HW1 4473   1.597   4.233   0.746
  880SOL    HW2 4474   1.556   4.107   0.819
  881SOL     OW 4475   8.391   5.310   7.984
  881SOL    HW1 4476   8.474   5.348   8.013
  881SOL    HW2 4477   8.371   5.355   7.902
  882SOL     OW 4478  12.912  14.590   3.180
  882SOL    HW1 4479  12.829  14.545   3.169
  882SOL    HW2 4480  12.920  14.646   3.102
  883SOL     OW 4481   6.841   4.128   7.408
  883SOL    HW1 4482   6.824   4.214   7.370
  883SOL    HW2 4483   6.929   4.135   7.445
  884SOL     OW 4484  14.543  12.697   8.394
  884SOL    HW1 4485  14.530  12.717   8.302
  884SOL    HW2 4486  14.618  12.751   8.420
  885SOL     OW 4487   5.161  10.216   3.938
  885SOL    HW1 4488   5.213  10.284   3.982
  885SOL    HW2 4489   5.187  10.135   3.982
  886SOL     OW 4490  10.792  11.176   7.172
  886SOL    HW1 4491  10.713  11.205   7.218
  886SOL    HW2 4492  10.763  11.161   7.082
  887SOL     OW 4493   0.245   7.120  14.805
  887SOL    HW1 4494   0.301   7.044  14.796
  887SOL    HW2 4495   0.284   7.171  14.876
  888SOL     OW 4496  10.743   1.693   2.296
  888SOL    HW1 4497  10.745   1.775   2.345
  888SOL    HW2 4498  10.751   1.625   2.363
  889SOL     OW 4499  11.590   9.285   5.481
  889SOL    HW1 4500  11.664   9.346   5.482
  889SOL    HW2 4501  11.565   9.280   5.389
  890SOL     OW 4502   5.092  14.605  12.861
  890SOL    HW1 4503   5.028  14.673  12.838
  890SOL    HW2 4504   5.042  14.524  12.860
  891SOL     OW 4505   5.782   3.788   3.307
  891SOL    HW1 4506   5.801   3.875   3.342
  891SOL    HW2 4507   5.848   3.732   3.346
  892SOL     OW 4508  13.969   5.763   6.331
  892SOL    HW1 4509  14.011   5.697   6.386
  892SOL    HW2 4510  13.880   5.770   6.366
  893SOL     OW 4511   0.677   2.339   0.478
  893SOL    HW1 4512   0.702   2.431   0.482
  893SOL    HW2 4513   0.757   2.292   0.501
  894SOL     OW 4514   2.214   0.375  14.865
  894SOL    HW1 4515   2.127   0.367  14.826
  894SOL    HW2 4516   2.207   0.453   0.042
  895SOL     OW 4517   4.145   1.213   3.943
  895SOL    HW1 4518   4.131   1.126   3.981
  895SOL    HW2 4519   4.240   1.224   3.943
  896SOL     OW 4520  14.118   5.965   6.442
  896SOL    HW1 4521  14.055   5.910   6.396
  896SOL    HW2 4522  14.203   5.935   6.411
  897SOL     OW 4523   7.574   5.584   9.518
  897SOL    HW1 4524   7.590   5.525   9.592
  897SOL    HW2 4525   7.576   5.671   9.557
  898SOL     OW 4526  13.209  13.100   8.568
  898SOL    HW1 4527  13.271  13.090   8.640
  898SOL    HW2 4528  13.253  13.157   8.505
  899SOL     OW 4529  11.625  13.709   6.441
  899SOL    HW1 4530  11.637  13.626   6.395
  899SOL    HW2 4531  11.713  13.745   6.450
  900SOL     OW 4532   2.998   8.674  11.504
  900SOL    HW1 4533   2.903   8.689  11.513
  900SOL    HW2 4534   3.009   8.646  11.413
  901SOL     OW 4535   7.105   4.612   8.105
  901SOL    HW1 4536   7.081   4.523   8.131
  901SOL    HW2 4537   7.053   4.630   8.027
  902SOL     OW 4538   0.179  14.171  13.918
  902SOL    HW1 4539   0.211  14.235  13.854
  902SOL    HW2 4540   0.221  14.089  13.892
  903SOL     OW 4541   8.011   7.159   9.723
  903SOL    HW1 4542   8.054   7.185   9.642
  903SOL    HW2 4543   8.052   7.214   9.790
  904SOL     OW 4544   7.764  13.113   8.312
  904SOL    HW1 4545   7.724  13.080   8.392
  904SOL    HW2 4546   7.772  13.208   8.327
  905SOL     OW 4547   3.926   8.897   2.669
  905SOL    HW1 4548   4.006   8.845   2.660
  905SOL    HW2 4549   3.910   8.932   2.582
  906SOL     OW 4550   5.745  12.769   7.143
  906SOL    HW1 4551   5.763  12.675   7.144
  906SOL    HW2 4552   5.651  12.775   7.129
  907SOL     OW 4553   7.881   2.289   3.066
  907SOL    HW1 4554   7.942   2.216   3.051
  907SOL    HW2 4555   7.900   2.317   3.156
  908SOL     OW 4556  12.254   9.857   1.943
  908SOL    HW1 4557  12.253   9.904   2.027
  908SOL    HW2 4558  12.193   9.906   1.888
  909SOL     OW 4559  14.625   0.760   3.895
  909SOL    HW1 4560  14.584   0.775   3.980
  909SOL    HW2 4561  14.657   0.846   3.868
  910SOL     OW 4562   4.889  11.299   5.578
  910SOL    HW1 4563   4.868  11.220   5.629
  910SOL    HW2 4564   4.871  11.274   5.487
  911SOL     OW 4565   9.735  13.697   1.671
  911SOL    HW1 4566   9.729  13.644   1.750
  911SOL    HW2 4567   9.683  13.775   1.689
  912SOL     OW 4568   5.992  13.755  12.944
  912SOL    HW1 4569   6.056  13.698  12.987
  912SOL    HW2 4570   5.918  13.757  13.003
  913SOL     OW 4571   0.478   9.986  12.187
  913SOL    HW1 4572   0.527  10.067  12.198
  913SOL    HW2 4573   0.393  10.014  12.152
  914SOL     OW 4574  11.208  11.310   0.846
  914SOL    HW1 4575  11.226  11.292   0.938
  914SOL    HW2 4576  11.115  11.331   0.843
  915SOL     OW 4577  10.071   2.791   5.605
  915SOL    HW1 4578  10.131   2.856   5.641
  915SOL    HW2 4579   9.989   2.805   5.653
  916SOL     OW 4580   7.091  12.827   1.677
  916SOL    HW1 4581   7.110  12.804   1.768
  916SOL    HW2 4582   7.175  12.859   1.643
  917SOL     OW 4583   2.244   2.138   7.091
  917SOL    HW1 4584   2.309   2.096   7.035
  917SOL    HW2 4585   2.278   2.128   7.180
  918SOL     OW 4586  10.371  10.625   7.990
  918SOL    HW1 4587  10.370  10.611   8.085
  918SOL    HW2 4588  10.460  10.600   7.963
  919SOL     OW 4589  13.523   8.342  13.006
  919SOL    HW1 4590  13.459   8.344  12.935
  919SOL    HW2 4591  13.482   8.288  13.074
  920SOL     OW 4592   8.027  10.220   5.081
  920SOL    HW1 4593   7.957  10.174   5.128
  920SOL    HW2 4594   8.057  10.287   5.142
  921SOL     OW 4595   7.566   5.293   5.925
  921SOL    HW1 4596   7.500   5.352   5.962
  921SOL    HW2 4597   7.562   5.215   5.980
  922SOL     OW 4598  12.035   0.467   3.594
  922SOL    HW1 4599  12.045   0.374   3.613
  922SOL    HW2 4600  11.982   0.501   3.666
  923SOL     OW 4601  11.753   8.077   5.161
  923SOL    HW1 4602  11.835   8.097   5.117
  923SOL    HW2 4603  11.741   7.983   5.147
  924SOL     OW 4604  14.109  10.978   1.822
  924SOL    HW1 4605  14.156  11.060   1.807
  924SOL    HW2 4606  14.019  10.997   1.798
  925SOL     OW 4607   2.820   2.273  13.937
  925SOL    HW1 4608   2.845   2.357  13.898
  925SOL    HW2 4609   2.728   2.263  13.914
  926SOL     OW 4610  14.780  12.344  14.657
  926SOL    HW1 4611  14.735  12.280  14.601
  926SOL    HW2 4612  14.817  12.292  14.728
  927SOL     OW 4613  13.965  11.173   8.440
  927SOL    HW1 4614  13.987  11.091   8.396
  927SOL    HW2 4615  13.869  11.175   8.439
  928SOL     OW 4616   1.362   0.748   0.905
  928SOL    HW1 4617   1.406   0.831   0.922
  928SOL    HW2 4618   1.379   0.695   0.983
  929SOL     OW 4619   9.334   7.187   9.008
  929SOL    HW1 4620   9.257   7.191   8.950
  929SOL    HW2 4621   9.408   7.189   8.948
  930SOL     OW 4622  14.393  14.654   8.645
  930SOL    HW1 4623  14.392  14.735   8.697
  930SOL    HW2 4624  14.443  14.677   8.567
  931SOL     OW 4625  10.004   5.907   8.988
  931SOL    HW1 4626   9.956   5.957   8.922
  931SOL    HW2 4627   9.945   5.836   9.013
  932SOL     OW 4628   7.494   2.311  12.186
  932SOL    HW1 4629   7.522   2.357  12.107
  932SOL    HW2 4630   7.575   2.283  12.229
  933SOL     OW 4631   6.482   9.461   1.170
  933SOL    HW1 4632   6.533   9.524   1.119
  933SOL    HW2 4633   6.421   9.514   1.221
  934SOL     OW 4634  13.743  10.253  10.517
  934SOL    HW1 4635  13.785  10.179  10.472
  934SOL    HW2 4636  13.816  10.300  10.558
  935SOL     OW 4637   7.349  13.444  14.859
  935SOL    HW1 4638   7.427  13.389  14.850
  935SOL    HW2 4639   7.341  13.488  14.774
  936SOL     OW 4640   3.720  11.471   1.995
  936SOL    HW1 4641   3.805  11.431   2.013
  936SOL    HW2 4642   3.719  11.551   2.048
  937SOL     OW 4643   4.303   8.426  14.757
  937SOL    HW1 4644   4.223   8.412  14.706
  937SOL    HW2 4645   4.321   8.341  14.797
  938SOL     OW 4646  11.041  11.411  10.860
  938SOL    HW1 4647  11.100  11.368  10.922
  938SOL    HW2 4648  11.099  11.457  10.800
  939SOL     OW 4649  10.427  13.154  11.483
  939SOL    HW1 4650  10.476  13.142  11.565
  939SOL    HW2 4651  10.414  13.249  11.476
  940SOL     OW 4652  12.020  12.138   8.170
  940SOL    HW1 4653  12.054  12.188   8.096
  940SOL    HW2 4654  11.942  12.094   8.136
  941SOL     OW 4655  10.865   7.370   5.317
  941SOL    HW1 4656  10.831   7.282   5.335
  941SOL    HW2 4657  10.827   7.425   5.386
  942SOL     OW 4658   9.131  13.451   2.125
  942SOL    HW1 4659   9.064  13.383   2.124
  942SOL    HW2 4660   9.187  13.429   2.199
  943SOL     OW 4661  14.128   3.983   8.608
  943SOL    HW1 4662  14.137   4.006   8.516
  943SOL    HW2 4663  14.176   3.901   8.617
  944SOL     OW 4664   7.157   2.562   8.688
  944SOL    HW1 4665   7.147   2.575   8.593
  944SOL    HW2 4666   7.190   2.646   8.719
  945SOL     OW 4667  11.352   3.312  11.277
  945SOL    HW1 4668  11.301   3.393  11.281
  945SOL    HW2 4669  11.286   3.243  11.285
  946SOL     OW 4670   8.853  14.805  14.849
  946SOL    HW1 4671   8.919  14.743   0.000
  946SOL    HW2 4672   8.836  14.779  14.758
  947SOL     OW 4673   0.204   0.356   5.646
  947SOL    HW1 4674   0.131   0.294   5.640
  947SOL    HW2 4675   0.281   0.302   5.663
  948SOL     OW 4676   1.734   7.010   4.803
  948SOL    HW1 4677   1.674   7.072   4.843
  948SOL    HW2 4678   1.725   7.025   4.709
  949SOL     OW 4679  11.511   0.138   3.252
  949SOL    HW1 4680  11.554   0.060   3.287
  949SOL    HW2 4681  11.580   0.184   3.204
  950SOL     OW 4682   5.558   1.809   4.212
  950SOL    HW1 4683   5.563   1.721   4.248
  950SOL    HW2 4684   5.623   1.810   4.141
  951SOL     OW 4685   3.291   1.409   8.623
  951SOL    HW1 4686   3.323   1.426   8.712
  951SOL    HW2 4687   3.346   1.464   8.567
  952SOL     OW 4688  12.975   1.695   3.213
  952SOL    HW1 4689  12.928   1.778   3.221
  952SOL    HW2 4690  12.942   1.642   3.286
  953SOL     OW 4691   3.275  12.621   2.182
  953SOL    HW1 4692   3.180  12.630   2.179
  953SOL    HW2 4693   3.291  12.555   2.249
  954SOL     OW 4694  14.574   3.492   7.830
  954SOL    HW1 4695  14.482   3.475   7.812
  954SOL    HW2 4696  14.573   3.559   7.899
  955SOL     OW 4697  12.704  13.717  11.061
  955SOL    HW1 4698  12.699  13.623  11.049
  955SOL    HW2 4699  12.623  13.740  11.106
  956SOL     OW 4700  13.139  14.473   6.829
  956SOL    HW1 4701  13.228  14.448   6.804
  956SOL    HW2 4702  13.117  14.415   6.902
  957SOL     OW 4703   9.553   9.188   1.069
  957SOL    HW1 4704   9.532   9.188   1.162
  957SOL    HW2 4705   9.606   9.267   1.057
  958SOL     OW 4706   2.201  11.106  14.463
  958SOL    HW1 4707   2.121  11.152  14.491
  958SOL    HW2 4708   2.262  11.119  14.535
  959SOL     OW 4709  11.566   5.372   4.713
  959SOL    HW1 4710  11.584   5.431   4.639
  959SOL    HW2 4711  11.530   5.428   4.781
  960SOL     OW 4712   4.406   6.954   6.904
  960SOL    HW1 4713   4.313   6.943   6.884
  960SOL    HW2 4714   4.408   7.010   6.981
  961SOL     OW 4715  13.884   4.586  11.442
  961SOL    HW1 4716  13.913   4.624  11.359
  961SOL    HW2 4717  13.927   4.638  11.509
  962SOL     OW 4718   2.819   7.553   7.158
  962SOL    HW1 4719   2.900   7.554   7.107
  962SOL    HW2 4720   2.839   7.500   7.235
  963SOL     OW 4721   8.215   5.919   0.864
  963SOL    HW1 4722   8.308   5.930   0.881
  963SOL    HW2 4723   8.179   5.889   0.948
  964SOL     OW 4724   8.232  12.168   6.576
  964SOL    HW1 4725   8.323  12.142   6.567
  964SOL    HW2 4726   8.204  12.193   6.488
  965SOL     OW 4727   9.449   1.319  12.577
  965SOL    HW1 4728   9.365   1.337  12.534
  965SOL    HW2 4729   9.439   1.231  12.612
  966SOL     OW 4730   9.654   5.339  11.547
  966SOL    HW1 4731   9.703   5.324  11.467
  966SOL    HW2 4732   9.627   5.252  11.576
  967SOL     OW 4733  14.044   7.517   5.376
  967SOL    HW1 4734  14.096   7.443   5.406
  967SOL    HW2 4735  14.020   7.495   5.286
  968SOL     OW 4736  11.922   0.315  14.718
  968SOL    HW1 4737  11.972   0.270  14.786
  968SOL    HW2 4738  11.924   0.407  14.744
  969SOL     OW 4739   6.582   1.828   9.706
  969SOL    HW1 4740   6.627   1.899   9.660
  969SOL    HW2 4741   6.634   1.750   9.686
  970SOL     OW 4742   6.370   3.874  13.412
  970SOL    HW1 4743   6.336   3.852  13.499
  970SOL    HW2 4744   6.373   3.791  13.366
  971SOL     OW 4745   2.824   3.638   2.062
  971SOL    HW1 4746   2.749   3.632   2.003
  971SOL    HW2 4747   2.825   3.553   2.107
  972SOL     OW 4748   4.621   6.949   9.078
  972SOL    HW1 4749   4.669   6.941   9.161
  972SOL    HW2 4750   4.548   7.008   9.098
  973SOL     OW 4751   1.484   6.154   9.344
  973SOL    HW1 4752   1.488   6.206   9.424
  973SOL    HW2 4753   1.426   6.203   9.286
  974SOL     OW 4754   8.666   6.705  12.479
  974SOL    HW1 4755   8.751   6.746  12.465
  974SOL    HW2 4756   8.659   6.697  12.574
  975SOL     OW 4757   8.082  10.115   4.851
  975SOL    HW1 4758   8.060  10.121   4.944
  975SOL    HW2 4759   8.038  10.190   4.811
  976SOL     OW 4760  13.922   4.902   2.020
  976SOL    HW1 4761  13.871   4.963   1.967
  976SOL    HW2 4762  14.014   4.926   2.003
  977SOL     OW 4763  14.834   1.788  14.019
  977SOL    HW1 4764   0.006   1.869  14.015
  977SOL    HW2 4765   0.010   1.727  14.069
  978SOL     OW 4766  13.854   6.132  12.919
  978SOL    HW1 4767  13.768   6.143  12.960
  978SOL    HW2 4768  13.858   6.039  12.896
  979SOL     OW 4769  13.798   5.475  13.668
  979SOL    HW1 4770  13.794   5.389  13.709
  979SOL    HW2 4771  13.744   5.531  13.725
  980SOL     OW 4772   9.565   5.614   6.254
  980SOL    HW1 4773   9.560   5.575   6.341
  980SOL    HW2 4774   9.567   5.539   6.194
  981SOL     OW 4775   2.169  11.477   1.730
  981SOL    HW1 4776   2.190  11.549   1.789
  981SOL    HW2 4777   2.160  11.518   1.644
  982SOL     OW 4778  11.243   9.422  14.784
  982SOL    HW1 4779  11.226   9.380  14.869
  982SOL    HW2 4780  11.187   9.374  14.722
  983SOL     OW 4781   8.380   6.334   4.948
  983SOL    HW1 4782   8.373   6.417   4.902
  983SOL    HW2 4783   8.442   6.283   4.896
  984SOL     OW 4784  13.531  14.559  13.434
  984SOL    HW1 4785  13.526  14.477  13.385
  984SOL    HW2 4786  13.570  14.621  13.373
  985SOL     OW 4787   2.643   5.358   9.204
  985SOL    HW1 4788   2.665   5.439   9.159
  985SOL    HW2 4789   2.566   5.325   9.157
  986SOL     OW 4790   4.050   7.311   3.921
  986SOL    HW1 4791   4.009   7.307   3.834
  986SOL    HW2 4792   3.996   7.253   3.975
  987SOL     OW 4793   0.460   5.632  11.658
  987SOL    HW1 4794   0.510   5.556  11.629
  987SOL    HW2 4795   0.379   5.596  11.694
  988SOL     OW 4796   9.769   9.422  14.636
  988SOL    HW1 4797   9.828   9.399  14.565
  988SOL    HW2 4798   9.783   9.516  14.650
  989SOL     OW 4799   2.346  14.146   5.841
  989SOL    HW1 4800   2.430  14.144   5.887
  989SOL    HW2 4801   2.319  14.238   5.844
  990SOL     OW 4802  12.453   4.894  12.816
  990SOL    HW1 4803  12.397   4.835  12.866
  990SOL    HW2 4804  12.395   4.964  12.787
  991SOL     OW 4805   5.434  12.804  14.012
  991SOL    HW1 4806   5.454  12.712  13.999
  991SOL    HW2 4807   5.518  12.844  14.033
  992SOL     OW 4808  13.908   3.334   0.239
  992SOL    HW1 4809  13.898   3.373   0.153
  992SOL    HW2 4810  13.986   3.279   0.231
  993SOL     OW 4811   5.858   6.746   1.889
  993SOL    HW1 4812   5.895   6.814   1.945
  993SOL    HW2 4813   5.830   6.678   1.950
  994SOL     OW 4814  12.337   6.148  13.137
  994SOL    HW1 4815  12.245   6.141  13.159
  994SOL    HW2 4816  12.352   6.242  13.125
  995SOL     OW 4817   9.704  11.669   5.471
  995SOL    HW1 4818   9.782  11.718   5.498
  995SOL    HW2 4819   9.644  11.736   5.436
  996SOL     OW 4820  14.452   7.891   5.299
  996SOL    HW1 4821  14.479   7.970   5.344
  996SOL    HW2 4822  14.394   7.846   5.361
  997SOL     OW 4823   5.042   4.429   1.486
  997SOL    HW1 4824   4.968   4.423   1.426
  997SOL    HW2 4825   5.118   4.445   1.430
  998SOL     OW 4826  10.163   3.728   4.910
  998SOL    HW1 4827  10.119   3.806   4.943
  998SOL    HW2 4828  10.140   3.659   4.973
  999SOL     OW 4829   7.555  11.468   7.384
  999SOL    HW1 4830   7.499  11.410   7.436
  999SOL    HW2 4831   7.502  11.546   7.369
 1000SOL     OW 4832   7.385  13.367   5.156
 1000SOL    HW1 4833   7.476  13.382   5.130
 1000SOL    HW2 4834   7.343  13.452   5.149
 1001SOL     OW 4835  14.277   0.536   7.878
 1001SOL    HW1 4836  14.311   0.455   7.916
 1001SOL    HW2 4837  14.212   0.509   7.815
 1002SOL     OW 4838   1.461  14.600  12.425
 1002SOL    HW1 4839   1.491  14.549  12.349
 1002SOL    HW2 4840   1.375  14.632  12.400
 1003SOL     OW 4841   0.976   4.660   6.835
 1003SOL    HW1 4842   1.034   4.684   6.907
 1003SOL    HW2 4843   0.889   4.688   6.864
 1004SOL     OW 4844   8.851  12.600   7.055
 1004SOL    HW1 4845   8.846  12.679   7.001
 1004SOL    HW2 4846   8.803  12.534   7.006
 1005SOL     OW 4847   2.186   7.821   0.799
 1005SOL    HW1 4848   2.228   7.794   0.881
 1005SOL    HW2 4849   2.137   7.744   0.771
 1006SOL     OW 4850   6.539  13.568   2.737
 1006SOL    HW1 4851   6.524  13.505   2.666
 1006SOL    HW2 4852   6.486  13.535   2.810
 1007SOL     OW 4853   6.491   7.183   4.168
 1007SOL    HW1 4854   6.538   7.261   4.198
 1007SOL    HW2 4855   6.451   7.146   4.247
 1008SOL     OW 4856   8.534   2.975   1.670
 1008SOL    HW1 4857   8.575   2.949   1.752
 1008SOL    HW2 4858   8.516   2.892   1.624
 1009SOL     OW 4859   2.333   5.372   8.386
 1009SOL    HW1 4860   2.329   5.278   8.368
 1009SOL    HW2 4861   2.357   5.378   8.478
 1010SOL     OW 4862   1.965   5.514   0.142
 1010SOL    HW1 4863   1.923   5.436   0.178
 1010SOL    HW2 4864   1.929   5.522   0.054
 1011SOL     OW 4865   9.988   2.812  11.231
 1011SOL    HW1 4866   9.963   2.754  11.303
 1011SOL    HW2 4867  10.080   2.833  11.247
 1012SOL     OW 4868   5.017  14.292  10.475
 1012SOL    HW1 4869   5.018  14.197  10.467
 1012SOL    HW2 4870   5.082  14.311  10.543
 1013SOL     OW 4871   2.932   5.255   3.623
 1013SOL    HW1 4872   3.021   5.265   3.658
 1013SOL    HW2 4873   2.875   5.265   3.699
 1014SOL     OW 4874   2.031   9.899  10.132
 1014SOL    HW1 4875   2.000   9.827  10.187
 1014SOL    HW2 4876   2.117   9.922  10.169
 1015SOL     OW 4877   4.794   3.759   0.593
 1015SOL    HW1 4878   4.775   3.772   0.686
 1015SOL    HW2 4879   4.843   3.837   0.568
 1016SOL     OW 4880   7.088  13.824   9.620
 1016SOL    HW1 4881   7.142  13.797   9.695
 1016SOL    HW2 4882   7.136  13.792   9.543
 1017SOL     OW 4883   6.819  13.106   5.312
 1017SOL    HW1 4884   6.914  13.103   5.320
 1017SOL    HW2 4885   6.795  13.192   5.345
 1018SOL     OW 4886  14.004   1.344   9.254
 1018SOL    HW1 4887  13.982   1.258   9.289
 1018SOL    HW2 4888  13.926   1.372   9.206
 1019SOL     OW 4889   1.012  14.819  12.742
 1019SOL    HW1 4890   0.944  14.770  12.788
 1019SOL    HW2 4891   1.085  14.822  12.803
 1020SOL     OW 4892  14.426  13.593   9.832
 1020SOL    HW1 4893  14.476  13.650   9.773
 1020SOL    HW2 4894  14.336  13.596   9.798
 1021SOL     OW 4895   8.149   9.781   3.914
 1021SOL    HW1 4896   8.137   9.863   3.865
 1021SOL    HW2 4897   8.137   9.807   4.005
 1022SOL     OW 4898  13.887  13.637   1.116
 1022SOL    HW1 4899  13.896  13.631   1.021
 1022SOL    HW2 4900  13.976  13.651   1.148
 1023SOL     OW 4901   0.730   8.285  12.637
 1023SOL    HW1 4902   0.747   8.284  12.543
 1023SOL    HW2 4903   0.638   8.310  12.645
 1024SOL     OW 4904  11.465   2.287   4.841
 1024SOL    HW1 4905  11.414   2.210   4.818
 1024SOL    HW2 4906  11.544   2.252   4.883
 1025SOL     OW 4907  13.091  11.229   5.728
 1025SOL    HW1 4908  13.056  11.253   5.642
 1025SOL    HW2 4909  13.047  11.147   5.749
 1026SOL     OW 4910  10.574  12.583   9.584
 1026SOL    HW1 4911  10.539  12.572   9.673
 1026SOL    HW2 4912  10.536  12.665   9.554
 1027SOL     OW 4913   5.098  11.592  13.626
 1027SOL    HW1 4914   5.078  11.585  13.532
 1027SOL    HW2 4915   5.166  11.659  13.630
 1028SOL     OW 4916   1.053   4.998  13.487
 1028SOL    HW1 4917   1.117   5.054  13.443
 1028SOL    HW2 4918   0.970   5.045  13.478
 1029SOL     OW 4919   0.527  14.638   3.542
 1029SOL    HW1 4920   0.497  14.727   3.563
 1029SOL    HW2 4921   0.462  14.581   3.583
 1030SOL     OW 4922  11.602   6.195   7.198
 1030SOL    HW1 4923  11.647   6.254   7.138
 1030SOL    HW2 4924  11.558   6.132   7.140
 1031SOL     OW 4925   0.632   0.910   8.587
 1031SOL    HW1 4926   0.555   0.966   8.577
 1031SOL    HW2 4927   0.690   0.960   8.645
 1032SOL     OW 4928   3.743  13.386  12.083
 1032SOL    HW1 4929   3.653  13.390  12.051
 1032SOL    HW2 4930   3.737  13.332  12.162
 1033SOL     OW 4931  10.033   5.264  14.073
 1033SOL    HW1 4932  10.125   5.243  14.087
 1033SOL    HW2 4933   9.987   5.227  14.148
 1034SOL     OW 4934   5.809  12.665   2.882
 1034SOL    HW1 4935   5.730  12.711   2.855
 1034SOL    HW2 4936   5.856  12.648   2.801
 1035SOL     OW 4937  13.774   0.459   0.900
 1035SOL    HW1 4938  13.860   0.503   0.901
 1035SOL    HW2 4939  13.765   0.427   0.810
 1036SOL     OW 4940  14.673   8.233   8.952
 1036SOL    HW1 4941  14.705   8.252   8.864
 1036SOL    HW2 4942  14.610   8.162   8.939
 1037SOL     OW 4943  10.049  12.890   7.399
 1037SOL    HW1 4944   9.964  12.865   7.361
 1037SOL    HW2 4945  10.111  12.828   7.361
 1038SOL     OW 4946  14.798   0.046   0.673
 1038SOL    HW1 4947  14.787   0.083   0.585
 1038SOL    HW2 4948  14.810  14.831   0.657
 1039SOL     OW 4949  12.623   3.088  12.497
 1039SOL    HW1 4950  12.661   3.001  12.480
 1039SOL    HW2 4951  12.530   3.071  12.509
 1040SOL     OW 4952   1.171   1.076   1.989
 1040SOL    HW1 4953   1.226   1.026   1.929
 1040SOL    HW2 4954   1.118   1.132   1.932
 1041SOL     OW 4955   1.914  10.057   7.943
 1041SOL    HW1 4956   1.896  10.107   8.022
 1041SOL    HW2 4957   1.939   9.970   7.975
 1042SOL     OW 4958   2.044  12.200  10.410
 1042SOL    HW1 4959   2.012  12.258  10.478
 1042SOL    HW2 4960   2.063  12.257  10.335
 1043SOL     OW 4961  11.681  12.097  11.680
 1043SOL    HW1 4962  11.717  12.177  11.642
 1043SOL    HW2 4963  11.738  12.077  11.753
 1044SOL     OW 4964   1.652   6.382  11.112
 1044SOL    HW1 4965   1.635   6.319  11.043
 1044SOL    HW2 4966   1.730   6.348  11.157
 1045SOL     OW 4967  12.995  14.389   2.127
 1045SOL    HW1 4968  13.000  14.462   2.188
 1045SOL    HW2 4969  13.068  14.332   2.151
 1046SOL     OW 4970   6.834   8.795   1.620
 1046SOL    HW1 4971   6.787   8.806   1.702
 1046SOL    HW2 4972   6.887   8.716   1.633
 1047SOL     OW 4973   4.690   3.290   2.139
 1047SOL    HW1 4974   4.605   3.331   2.122
 1047SOL    HW2 4975   4.673   3.196   2.132
 1048SOL     OW 4976  10.056  12.854  12.426
 1048SOL    HW1 4977  10.033  12.770  12.386
 1048SOL    HW2 4978  10.142  12.875  12.389
 1049SOL     OW 4979   5.513  11.039  11.260
 1049SOL    HW1 4980   5.485  11.025  11.169
 1049SOL    HW2 4981   5.461  10.976  11.311
 1050SOL     OW 4982  14.829   9.890   1.861
 1050SOL    HW1 4983   0.001   9.896   1.780
 1050SOL    HW2 4984  14.846   9.801   1.893
 1051SOL     OW 4985   7.279  12.539   4.396
 1051SOL    HW1 4986   7.342  12.607   4.371
 1051SOL    HW2 4987   7.322  12.492   4.468
 1052SOL     OW 4988  14.599  14.654   1.273
 1052SOL    HW1 4989  14.684  14.620   1.300
 1052SOL    HW2 4990  14.582  14.727   1.333
 1053SOL     OW 4991   1.415   6.318   8.775
 1053SOL    HW1 4992   1.416   6.296   8.682
 1053SOL    HW2 4993   1.408   6.413   8.778
 1054SOL     OW 4994  12.970  12.266   9.567
 1054SOL    HW1 4995  13.063  12.264   9.544
 1054SOL    HW2 4996  12.934  12.186   9.528
 1055SOL     OW 4997   5.608   4.280   6.390
 1055SOL    HW1 4998   5.661   4.334   6.449
 1055SOL    HW2 4999   5.581   4.205   6.445
 1056SOL     OW 5000   0.884   2.239   1.749
 1056SOL    HW1 5001   0.889   2.161   1.805
 1056SOL    HW2 5002   0.868   2.205   1.661
 1057SOL     OW 5003  14.058  12.787   8.965
 1057SOL    HW1 5004  13.972  12.803   8.925
 1057SOL    HW2 5005  14.117  12.772   8.891
 1058SOL     OW 5006   6.929   3.017   0.171
 1058SOL    HW1 5007   6.922   2.966   0.251
 1058SOL    HW2 5008   6.873   3.093   0.185
 1059SOL     OW 5009  11.738  14.601   4.063
 1059SOL    HW1 5010  11.762  14.649   3.983
 1059SOL    HW2 5011  11.703  14.668   4.122
 1060SOL     OW 5012   4.153   4.727  12.631
 1060SOL    HW1 5013   4.243   4.729  12.663
 1060SOL    HW2 5014   4.162   4.715  12.536
 1061SOL     OW 5015   9.198   1.141  11.021
 1061SOL    HW1 5016   9.121   1.086  11.007
 1061SOL    HW2 5017   9.225   1.122  11.111
 1062SOL     OW 5018   6.784  12.084   8.760
 1062SOL    HW1 5019   6.812  12.012   8.816
 1062SOL    HW2 5020   6.688  12.082   8.765
 1063SOL     OW 5021   9.764   2.001   8.437
 1063SOL    HW1 5022   9.764   1.913   8.399
 1063SOL    HW2 5023   9.749   1.987   8.531
 1064SOL     OW 5024   0.145   1.258   5.485
 1064SOL    HW1 5025   0.236   1.283   5.497
 1064SOL    HW2 5026   0.131   1.185   5.545
 1065SOL     OW 5027   1.555   6.783   6.378
 1065SOL    HW1 5028   1.516   6.781   6.290
 1065SOL    HW2 5029   1.637   6.736   6.369
 1066SOL     OW 5030   4.201   3.308  11.614
 1066SOL    HW1 5031   4.280   3.261  11.640
 1066SOL    HW2 5032   4.214   3.397  11.647
 1067SOL     OW 5033  11.645  11.859  13.382
 1067SOL    HW1 5034  11.689  11.777  13.360
 1067SOL    HW2 5035  11.703  11.901  13.446
 1068SOL     OW 5036  10.520  14.616   5.373
 1068SOL    HW1 5037  10.611  14.610   5.401
 1068SOL    HW2 5038  10.523  14.663   5.290
 1069SOL     OW 5039  12.449   8.648   6.822
 1069SOL    HW1 5040  12.470   8.559   6.850
 1069SOL    HW2 5041  12.509   8.666   6.750
 1070SOL     OW 5042  13.094   0.542  12.209
 1070SOL    HW1 5043  13.100   0.637  12.218
 1070SOL    HW2 5044  13.000   0.525  12.196
 1071SOL     OW 5045  10.154   7.493  12.792
 1071SOL    HW1 5046  10.140   7.410  12.747
 1071SOL    HW2 5047  10.212   7.542  12.733
 1072SOL     OW 5048   4.489  10.053   3.194
 1072SOL    HW1 5049   4.482   9.995   3.270
 1072SOL    HW2 5050   4.405  10.100   3.192
 1073SOL     OW 5051   0.766   9.742  14.807
 1073SOL    HW1 5052   0.768   9.759   0.023
 1073SOL    HW2 5053   0.720   9.817  14.770
 1074SOL     OW 5054  10.830  13.356   1.466
 1074SOL    HW1 5055  10.896  13.424   1.461
 1074SOL    HW2 5056  10.794  13.363   1.554
 1075SOL     OW 5057  14.330  13.791   4.266
 1075SOL    HW1 5058  14.361  13.750   4.346
 1075SOL    HW2 5059  14.312  13.881   4.290
 1076SOL     OW 5060   3.061   1.398   6.243
 1076SOL    HW1 5061   3.137   1.401   6.302
 1076SOL    HW2 5062   3.011   1.477   6.264
 1077SOL     OW 5063   0.102   8.334   1.063
 1077SOL    HW1 5064   0.147   8.255   1.034
 1077SOL    HW2 5065   0.081   8.381   0.982
 1078SOL     OW 5066   6.328   8.058   6.583
 1078SOL    HW1 5067   6.246   8.033   6.540
 1078SOL    HW2 5068   6.356   8.137   6.538
 1079SOL     OW 5069   2.114   8.780   9.915
 1079SOL    HW1 5070   2.206   8.804   9.923
 1079SOL    HW2 5071   2.104   8.702   9.970
 1080SOL     OW 5072   0.792   4.522  12.105
 1080SOL    HW1 5073   0.860   4.497  12.043
 1080SOL    HW2 5074   0.724   4.455  12.095
 1081SOL     OW 5075   6.232   6.590  13.926
 1081SOL    HW1 5076   6.228   6.583  13.831
 1081SOL    HW2 5077   6.153   6.545  13.957
 1082SOL     OW 5078   5.298  10.712  10.301
 1082SOL    HW1 5079   5.369  10.776  10.295
 1082SOL    HW2 5080   5.321  10.645  10.236
 1083SOL     OW 5081   9.798   0.403   1.654
 1083SOL    HW1 5082   9.722   0.346   1.642
 1083SOL    HW2 5083   9.843   0.402   1.570
 1084SOL     OW 5084   2.894  13.995  11.023
 1084SOL    HW1 5085   2.935  13.920  10.981
 1084SOL    HW2 5086   2.959  14.066  11.015
 1085SOL     OW 5087   4.055   6.837  10.207
 1085SOL    HW1 5088   4.149   6.855  10.201
 1085SOL    HW2 5089   4.019   6.912  10.255
 1086SOL     OW 5090  10.659   3.993  14.843
 1086SOL    HW1 5091  10.608   4.031   0.036
 1086SOL    HW2 5092  10.599   3.993  14.768
 1087SOL     OW 5093   1.594   2.940   6.930
 1087SOL    HW1 5094   1.553   3.026   6.918
 1087SOL    HW2 5095   1.530   2.891   6.982
 1088SOL     OW 5096   2.974   5.949   9.537
 1088SOL    HW1 5097   3.052   6.001   9.556
 1088SOL    HW2 5098   2.985   5.921   9.446
 1089SOL     OW 5099   1.027   4.344  13.168
 1089SOL    HW1 5100   0.957   4.326  13.105
 1089SOL    HW2 5101   1.006   4.430  13.203
 1090SOL     OW 5102  10.786   1.111   1.524
 1090SOL    HW1 5103  10.694   1.135   1.524
 1090SOL    HW2 5104  10.831   1.185   1.484
 1091SOL     OW 5105  12.659   1.247   3.247
 1091SOL    HW1 5106  12.629   1.191   3.318
 1091SOL    HW2 5107  12.743   1.281   3.277
 1092SOL     OW 5108   5.352   9.065   1.297
 1092SOL    HW1 5109   5.289   9.124   1.255
 1092SOL    HW2 5110   5.300   9.012   1.357
 1093SOL     OW 5111   8.003   9.379  14.385
 1093SOL    HW1 5112   7.980   9.433  14.461
 1093SOL    HW2 5113   7.926   9.324  14.370
 1094SOL     OW 5114  13.863  10.069  13.134
 1094SOL    HW1 5115  13.955  10.082  13.155
 1094SOL    HW2 5116  13.820  10.149  13.165
 1095SOL     OW 5117   2.950  13.853   6.762
 1095SOL    HW1 5118   2.945  13.902   6.680
 1095SOL    HW2 5119   3.010  13.781   6.743
 1096SOL     OW 5120  10.746   8.538   7.980
 1096SOL    HW1 5121  10.763   8.472   8.048
 1096SOL    HW2 5122  10.655   8.523   7.954
 1097SOL     OW 5123   3.323   4.499   3.542
 1097SOL    HW1 5124   3.364   4.489   3.456
 1097SOL    HW2 5125   3.388   4.546   3.594
 1098SOL     OW 5126   4.175   2.035   5.714
 1098SOL    HW1 5127   4.222   2.063   5.636
 1098SOL    HW2 5128   4.243   2.020   5.780
 1099SOL     OW 5129  11.306   7.661  10.471
 1099SOL    HW1 5130  11.220   7.670  10.513
 1099SOL    HW2 5131  11.287   7.659  10.378
 1100SOL     OW 5132   2.331   3.909   5.459
 1100SOL    HW1 5133   2.394   3.910   5.388
 1100SOL    HW2 5134   2.377   3.950   5.533
 1101SOL     OW 5135   7.209   6.353   1.237
 1101SOL    HW1 5136   7.225   6.447   1.245
 1101SOL    HW2 5137   7.129   6.346   1.185
 1102SOL     OW 5138   8.069  12.464   4.471
 1102SOL    HW1 5139   7.997  12.496   4.417
 1102SOL    HW2 5140   8.140  12.447   4.409
 1103SOL     OW 5141   1.897   0.367   5.621
 1103SOL    HW1 5142   1.871   0.460   5.619
 1103SOL    HW2 5143   1.932   0.351   5.534
 1104SOL     OW 5144  12.303   0.034   2.664
 1104SOL    HW1 5145  12.363   0.098   2.627
 1104SOL    HW2 5146  12.233   0.026   2.599
 1105SOL     OW 5147  11.516   4.989  10.057
 1105SOL    HW1 5148  11.423   4.965  10.059
 1105SOL    HW2 5149  11.560   4.919  10.104
 1106SOL     OW 5150  13.608  12.365   9.446
 1106SOL    HW1 5151  13.617  12.391   9.355
 1106SOL    HW2 5152  13.623  12.445   9.496
 1107SOL     OW 5153  11.739  11.250  12.074
 1107SOL    HW1 5154  11.768  11.253  12.165
 1107SOL    HW2 5155  11.676  11.322  12.067
 1108SOL     OW 5156   1.482   4.165  14.007
 1108SOL    HW1 5157   1.502   4.191  13.917
 1108SOL    HW2 5158   1.429   4.086  13.998
 1109SOL     OW 5159  10.361   7.573   3.939
 1109SOL    HW1 5160  10.330   7.551   3.852
 1109SOL    HW2 5161  10.367   7.668   3.940
 1110SOL     OW 5162   0.201  10.361   6.026
 1110SOL    HW1 5163   0.133  10.294   6.035
 1110SOL    HW2 5164   0.154  10.439   5.996
 1111SOL     OW 5165   7.677   3.127  14.120
 1111SOL    HW1 5166   7.770   3.147  14.106
 1111SOL    HW2 5167   7.635   3.213  14.128
 1112SOL     OW 5168   1.329   5.123   5.913
 1112SOL    HW1 5169   1.259   5.095   5.855
 1112SOL    HW2 5170   1.407   5.077   5.881
 1113SOL     OW 5171   7.260  13.163  12.767
 1113SOL    HW1 5172   7.290  13.253  12.756
 1113SOL    HW2 5173   7.177  13.159  12.721
 1114SOL     OW 5174   6.868   8.232   2.898
 1114SOL    HW1 5175   6.858   8.229   2.803
 1114SOL    HW2 5176   6.929   8.160   2.918
 1115SOL     OW 5177   7.923   2.307   2.121
 1115SOL    HW1 5178   7.886   2.374   2.178
 1115SOL    HW2 5179   7.929   2.229   2.176
 1116SOL     OW 5180  10.647   7.661   7.586
 1116SOL    HW1 5181  10.731   7.650   7.540
 1116SOL    HW2 5182  10.656   7.608   7.665
 1117SOL     OW 5183  14.270   1.334  12.080
 1117SOL    HW1 5184  14.341   1.289  12.035
 1117SOL    HW2 5185  14.264   1.292  12.166
 1118SOL     OW 5186  10.577   7.667   5.463
 1118SOL    HW1 5187  10.534   7.664   5.377
 1118SOL    HW2 5188  10.603   7.759   5.473
 1119SOL     OW 5189  11.932  10.458   3.296
 1119SOL    HW1 5190  12.026  10.458   3.318
 1119SOL    HW2 5191  11.889  10.488   3.376
 1120SOL     OW 5192   2.406   3.592   5.675
 1120SOL    HW1 5193   2.322   3.638   5.681
 1120SOL    HW2 5194   2.417   3.573   5.582
 1121SOL     OW 5195   7.408   2.796   0.535
 1121SOL    HW1 5196   7.346   2.862   0.505
 1121SOL    HW2 5197   7.426   2.743   0.458
 1122SOL     OW 5198  12.017   0.413   1.389
 1122SOL    HW1 5199  11.928   0.405   1.425
 1122SOL    HW2 5200  12.032   0.330   1.344
 1123SOL     OW 5201  11.031   6.230  12.056
 1123SOL    HW1 5202  11.003   6.169  11.988
 1123SOL    HW2 5203  11.063   6.306  12.007
 1124SOL     OW 5204   9.475  14.484   1.661
 1124SOL    HW1 5205   9.539  14.414   1.675
 1124SOL    HW2 5206   9.394  14.439   1.639
 1125SOL     OW 5207   7.672  10.485   6.217
 1125SOL    HW1 5208   7.703  10.528   6.297
 1125SOL    HW2 5209   7.576  10.484   6.226
 1126SOL     OW 5210   1.157   0.388   2.691
 1126SOL    HW1 5211   1.107   0.380   2.772
 1126SOL    HW2 5212   1.133   0.311   2.640
 1127SOL     OW 5213   8.036   7.203   3.603
 1127SOL    HW1 5214   7.982   7.168   3.674
 1127SOL    HW2 5215   8.093   7.267   3.645
 1128SOL     OW 5216   7.900  11.935   2.386
 1128SOL    HW1 5217   7.868  11.924   2.297
 1128SOL    HW2 5218   7.977  11.877   2.391
 1129SOL     OW 5219  12.200   3.522   6.078
 1129SOL    HW1 5220  12.274   3.561   6.031
 1129SOL    HW2 5221  12.142   3.491   6.009
 1130SOL     OW 5222   0.997  13.060   0.349
 1130SOL    HW1 5223   0.983  13.138   0.296
 1130SOL    HW2 5224   1.027  12.994   0.286
 1131SOL     OW 5225   4.455   4.458   7.036
 1131SOL    HW1 5226   4.414   4.374   7.019
 1131SOL    HW2 5227   4.534   4.458   6.982
 1132SOL     OW 5228   4.662   3.988   3.406
 1132SOL    HW1 5229   4.677   4.076   3.442
 1132SOL    HW2 5230   4.710   3.930   3.464
 1133SOL     OW 5231  13.257   3.598   1.806
 1133SOL    HW1 5232  13.217   3.677   1.843
 1133SOL    HW2 5233  13.229   3.528   1.864
 1134SOL     OW 5234   8.938   4.112   5.700
 1134SOL    HW1 5235   8.909   4.194   5.660
 1134SOL    HW2 5236   9.026   4.097   5.665
 1135SOL     OW 5237  14.843   4.038  10.301
 1135SOL    HW1 5238  14.820   4.131  10.295
 1135SOL    HW2 5239  14.856   4.022  10.394
 1136SOL     OW 5240  11.356   9.684  12.782
 1136SOL    HW1 5241  11.388   9.596  12.763
 1136SOL    HW2 5242  11.395   9.706  12.866
 1137SOL     OW 5243  12.924   8.883   3.693
 1137SOL    HW1 5244  12.892   8.795   3.708
 1137SOL    HW2 5245  12.852   8.928   3.649
 1138SOL     OW 5246  11.554   8.585  11.517
 1138SOL    HW1 5247  11.541   8.602  11.610
 1138SOL    HW2 5248  11.504   8.653  11.473
 1139SOL     OW 5249  13.128  13.433   1.144
 1139SOL    HW1 5250  13.127  13.511   1.199
 1139SOL    HW2 5251  13.185  13.456   1.071
 1140SOL     OW 5252  10.204   9.792  13.850
 1140SOL    HW1 5253  10.272   9.792  13.783
 1140SOL    HW2 5254  10.234   9.731  13.916
 1141SOL     OW 5255   1.461   6.335   5.200
 1141SOL    HW1 5256   1.463   6.361   5.291
 1141SOL    HW2 5257   1.369   6.342   5.174
 1142SOL     OW 5258   9.391  13.061   0.561
 1142SOL    HW1 5259   9.318  13.026   0.614
 1142SOL    HW2 5260   9.440  13.116   0.622
 1143SOL     OW 5261   1.671   8.664  13.154
 1143SOL    HW1 5262   1.694   8.728  13.086
 1143SOL    HW2 5263   1.642   8.587  13.106
 1144SOL     OW 5264   9.343   1.902   8.419
 1144SOL    HW1 5265   9.270   1.945   8.375
 1144SOL    HW2 5266   9.404   1.881   8.348
 1145SOL     OW 5267   1.937   9.375   8.301
 1145SOL    HW1 5268   1.962   9.352   8.390
 1145SOL    HW2 5269   2.018   9.368   8.250
 1146SOL     OW 5270  12.565   2.950   6.224
 1146SOL    HW1 5271  12.485   2.994   6.254
 1146SOL    HW2 5272  12.534   2.878   6.170
 1147SOL     OW 5273  13.474   9.108   4.182
 1147SOL    HW1 5274  13.556   9.075   4.143
 1147SOL    HW2 5275  13.407   9.086   4.117
 1148SOL     OW 5276   7.411   6.675   9.926
 1148SOL    HW1 5277   7.407   6.588   9.965
 1148SOL    HW2 5278   7.372   6.665   9.840
 1149SOL     OW 5279  10.387  11.825   5.672
 1149SOL    HW1 5280  10.414  11.855   5.759
 1149SOL    HW2 5281  10.336  11.745   5.689
 1150SOL     OW 5282   0.152  10.203  12.732
 1150SOL    HW1 5283   0.201  10.283  12.754
 1150SOL    HW2 5284   0.107  10.179  12.813
 1151SOL     OW 5285  12.850   1.463   3.948
 1151SOL    HW1 5286  12.867   1.489   4.038
 1151SOL    HW2 5287  12.853   1.367   3.950
 1152SOL     OW 5288   8.709   4.265   5.410
 1152SOL    HW1 5289   8.642   4.296   5.350
 1152SOL    HW2 5290   8.665   4.261   5.495
 1153SOL     OW 5291  11.469  14.285   8.749
 1153SOL    HW1 5292  11.477  14.372   8.789
 1153SOL    HW2 5293  11.381  14.257   8.771
 1154SOL     OW 5294  10.718   9.255  14.559
 1154SOL    HW1 5295  10.644   9.210  14.517
 1154SOL    HW2 5296  10.739   9.326  14.499
 1155SOL     OW 5297  12.425   9.481   5.413
 1155SOL    HW1 5298  12.348   9.527   5.382
 1155SOL    HW2 5299  12.490   9.493   5.344
 1156SOL     OW 5300  10.510  10.318   5.100
 1156SOL    HW1 5301  10.603  10.325   5.080
 1156SOL    HW2 5302  10.466  10.349   5.021
 1157SOL     OW 5303  10.451  12.458   3.431
 1157SOL    HW1 5304  10.423  12.479   3.520
 1157SOL    HW2 5305  10.447  12.363   3.426
 1158SOL     OW 5306  12.664   1.047   6.133
 1158SOL    HW1 5307  12.705   0.961   6.126
 1158SOL    HW2 5308  12.734   1.109   6.115
 1159SOL     OW 5309   6.578  11.820  12.786
 1159SOL    HW1 5310   6.638  11.762  12.832
 1159SOL    HW2 5311   6.619  11.906  12.792
 1160SOL     OW 5312   2.515   1.854  14.714
 1160SOL    HW1 5313   2.463   1.802  14.653
 1160SOL    HW2 5314   2.451   1.886  14.778
 1161SOL     OW 5315   8.246   6.660  14.508
 1161SOL    HW1 5316   8.154   6.660  14.484
 1161SOL    HW2 5317   8.285   6.730  14.454
 1162SOL     OW 5318  13.396  12.090  12.974
 1162SOL    HW1 5319  13.370  12.007  12.933
 1162SOL    HW2 5320  13.403  12.151  12.901
 1163SOL     OW 5321   7.308  11.966  10.485
 1163SOL    HW1 5322   7.326  12.011  10.568
 1163SOL    HW2 5323   7.214  11.950  10.486
 1164SOL     OW 5324   1.644   0.580  14.222
 1164SOL    HW1 5325   1.735   0.608  14.212
 1164SOL    HW2 5326   1.594   0.645  14.172
 1165SOL     OW 5327  11.469  12.603   2.907
 1165SOL    HW1 5328  11.494  12.641   2.991
 1165SOL    HW2 5329  11.375  12.588   2.914
 1166SOL     OW 5330  12.287   3.720   3.315
 1166SOL    HW1 5331  12.253   3.672   3.240
 1166SOL    HW2 5332  12.272   3.663   3.390
 1167SOL     OW 5333   7.380   5.682   4.948
 1167SOL    HW1 5334   7.468   5.656   4.975
 1167SOL    HW2 5335   7.367   5.639   4.864
 1168SOL     OW 5336  14.408  14.686   4.381
 1168SOL    HW1 5337  14.330  14.741   4.380
 1168SOL    HW2 5338  14.374  14.598   4.400
 1169SOL     OW 5339   6.712  11.256   3.234
 1169SOL    HW1 5340   6.689  11.229   3.323
 1169SOL    HW2 5341   6.807  11.243   3.229
 1170SOL     OW 5342   9.846  13.122   1.237
 1170SOL    HW1 5343   9.872  13.185   1.170
 1170SOL    HW2 5344   9.820  13.044   1.188
 1171SOL     OW 5345   3.497   1.572   3.924
 1171SOL    HW1 5346   3.411   1.546   3.959
 1171SOL    HW2 5347   3.534   1.627   3.992
 1172SOL     OW 5348   8.424  12.193   1.037
 1172SOL    HW1 5349   8.507  12.159   1.072
 1172SOL    HW2 5350   8.435  12.189   0.942
 1173SOL     OW 5351  10.323   1.687   8.349
 1173SOL    HW1 5352  10.328   1.747   8.424
 1173SOL    HW2 5353  10.238   1.706   8.309
 1174SOL     OW 5354  11.840  11.943  13.570
 1174SOL    HW1 5355  11.756  11.985  13.590
 1174SOL    HW2 5356  11.895  12.014  13.538
 1175SOL     OW 5357  11.884   4.909  12.068
 1175SOL    HW1 5358  11.948   4.951  12.010
 1175SOL    HW2 5359  11.936   4.852  12.124
 1176SOL     OW 5360   4.191  14.599   5.693
 1176SOL    HW1 5361   4.106  14.593   5.649
 1176SOL    HW2 5362   4.255  14.584   5.623
 1177SOL     OW 5363  10.834   9.961  14.644
 1177SOL    HW1 5364  10.851   9.964  14.738
 1177SOL    HW2 5365  10.794  10.046  14.624
 1178SOL     OW 5366   8.283  11.892   4.976
 1178SOL    HW1 5367   8.234  11.839   4.913
 1178SOL    HW2 5368   8.295  11.835   5.051
 1179SOL     OW 5369   2.187   9.603  14.812
 1179SOL    HW1 5370   2.179   9.659  14.736
 1179SOL    HW2 5371   2.110   9.545  14.808
 1180SOL     OW 5372   1.220  10.638  14.450
 1180SOL    HW1 5373   1.190  10.615  14.537
 1180SOL    HW2 5374   1.156  10.598  14.391
 1181SOL     OW 5375  14.744   3.425   0.707
 1181SOL    HW1 5376  14.658   3.440   0.669
 1181SOL    HW2 5377  14.743   3.473   0.790
 1182SOL     OW 5378  14.718   6.391   0.094
 1182SOL    HW1 5379  14.798   6.343   0.114
 1182SOL    HW2 5380  14.679   6.409   0.180
 1183SOL     OW 5381  12.928  14.263   5.877
 1183SOL    HW1 5382  12.892  14.220   5.800
 1183SOL    HW2 5383  12.981  14.195   5.920
 1184SOL     OW 5384  14.628   9.289   0.357
 1184SOL    HW1 5385  14.650   9.199   0.383
 1184SOL    HW2 5386  14.649   9.292   0.263
 1185SOL     OW 5387   8.321   7.214   8.644
 1185SOL    HW1 5388   8.309   7.171   8.729
 1185SOL    HW2 5389   8.240   7.199   8.597
 1186SOL     OW 5390   6.972   7.148  10.117
 1186SOL    HW1 5391   6.886   7.129  10.155
 1186SOL    HW2 5392   6.957   7.222  10.060
 1187SOL     OW 5393   8.792   1.506   7.392
 1187SOL    HW1 5394   8.776   1.499   7.298
 1187SOL    HW2 5395   8.772   1.597   7.414
 1188SOL     OW 5396   2.480   2.821   6.098
 1188SOL    HW1 5397   2.413   2.791   6.037
 1188SOL    HW2 5398   2.442   2.804   6.185
 1189SOL     OW 5399   2.204   6.306   0.344
 1189SOL    HW1 5400   2.229   6.380   0.289
 1189SOL    HW2 5401   2.219   6.336   0.433
 1190SOL     OW 5402   7.361   2.990   8.992
 1190SOL    HW1 5403   7.418   3.030   8.927
 1190SOL    HW2 5404   7.421   2.946   9.053
 1191SOL     OW 5405  12.614   0.554   4.847
 1191SOL    HW1 5406  12.571   0.469   4.833
 1191SOL    HW2 5407  12.588   0.606   4.771
 1192SOL     OW 5408   5.486   4.701  13.388
 1192SOL    HW1 5409   5.519   4.775  13.337
 1192SOL    HW2 5410   5.492   4.730  13.479
 1193SOL     OW 5411   9.897   8.667   6.797
 1193SOL    HW1 5412   9.806   8.643   6.812
 1193SOL    HW2 5413   9.900   8.693   6.705
 1194SOL     OW 5414   5.364  13.122   0.284
 1194SOL    HW1 5415   5.343  13.211   0.310
 1194SOL    HW2 5416   5.349  13.119   0.190
 1195SOL     OW 5417   0.289   2.542   7.516
 1195SOL    HW1 5418   0.332   2.571   7.436
 1195SOL    HW2 5419   0.315   2.607   7.582
 1196SOL     OW 5420   0.546   8.098   6.174
 1196SOL    HW1 5421   0.641   8.113   6.174
 1196SOL    HW2 5422   0.516   8.137   6.256
 1197SOL     OW 5423  14.109  10.464   5.078
 1197SOL    HW1 5424  14.198  10.449   5.047
 1197SOL    HW2 5425  14.060  10.489   4.999
 1198SOL     OW 5426  14.380   9.843   0.114
 1198SOL    HW1 5427  14.465   9.885   0.100
 1198SOL    HW2 5428  14.400   9.750   0.122
 1199SOL     OW 5429  12.041   5.101   3.895
 1199SOL    HW1 5430  12.084   5.064   3.972
 1199SOL    HW2 5431  12.062   5.040   3.824
 1200SOL     OW 5432  14.529   8.476   1.767
 1200SOL    HW1 5433  14.539   8.460   1.673
 1200SOL    HW2 5434  14.581   8.555   1.784
 1201SOL     OW 5435  13.976   9.068  12.596
 1201SOL    HW1 5436  13.905   9.088  12.535
 1201SOL    HW2 5437  14.028   9.148  12.600
 1202SOL     OW 5438  11.657   4.341   9.361
 1202SOL    HW1 5439  11.658   4.340   9.457
 1202SOL    HW2 5440  11.565   4.354   9.338
 1203SOL     OW 5441   6.537  12.424   8.485
 1203SOL    HW1 5442   6.476  12.489   8.520
 1203SOL    HW2 5443   6.580  12.469   8.413
 1204SOL     OW 5444  10.112   2.312  10.660
 1204SOL    HW1 5445  10.171   2.245  10.625
 1204SOL    HW2 5446  10.025   2.271  10.657
 1205SOL     OW 5447  12.906   1.331  10.621
 1205SOL    HW1 5448  12.920   1.378  10.704
 1205SOL    HW2 5449  12.884   1.400  10.558
 1206SOL     OW 5450   6.994  13.281   0.417
 1206SOL    HW1 5451   7.006  13.200   0.466
 1206SOL    HW2 5452   7.083  13.311   0.398
 1207SOL     OW 5453   9.982   9.051   1.101
 1207SOL    HW1 5454   9.927   9.049   1.180
 1207SOL    HW2 5455  10.070   9.072   1.133
 1208SOL     OW 5456   1.615   1.424   7.574
 1208SOL    HW1 5457   1.532   1.409   7.618
 1208SOL    HW2 5458   1.652   1.336   7.563
 1209SOL     OW 5459  14.428   8.328   7.762
 1209SOL    HW1 5460  14.470   8.267   7.823
 1209SOL    HW2 5461  14.345   8.350   7.804
 1210SOL     OW 5462   6.542   5.420   5.103
 1210SOL    HW1 5463   6.495   5.467   5.034
 1210SOL    HW2 5464   6.475   5.364   5.143
 1211SOL     OW 5465   4.094   8.265   0.719
 1211SOL    HW1 5466   4.179   8.270   0.675
 1211SOL    HW2 5467   4.031   8.293   0.652
 1212SOL     OW 5468  13.981   3.595   2.550
 1212SOL    HW1 5469  14.077   3.594   2.549
 1212SOL    HW2 5470  13.958   3.688   2.550
 1213SOL     OW 5471  14.403  11.008   4.354
 1213SOL    HW1 5472  14.326  10.975   4.307
 1213SOL    HW2 5473  14.471  10.942   4.338
 1214SOL     OW 5474   0.313   3.319   3.256
 1214SOL    HW1 5475   0.324   3.231   3.293
 1214SOL    HW2 5476   0.223   3.321   3.225
 1215SOL     OW 5477  13.023   7.832   2.381
 1215SOL    HW1 5478  13.002   7.832   2.474
 1215SOL    HW2 5479  12.965   7.765   2.343
 1216SOL     OW 5480   1.266   2.988   2.919
 1216SOL    HW1 5481   1.307   2.949   2.842
 1216SOL    HW2 5482   1.183   2.942   2.929
 1217SOL     OW 5483  10.943   6.313   5.096
 1217SOL    HW1 5484  11.021   6.294   5.044
 1217SOL    HW2 5485  10.915   6.400   5.066
 1218SOL     OW 5486   6.844   8.852   6.015
 1218SOL    HW1 5487   6.833   8.876   5.923
 1218SOL    HW2 5488   6.914   8.909   6.046
 1219SOL     OW 5489   3.458   3.364   3.689
 1219SOL    HW1 5490   3.434   3.415   3.612
 1219SOL    HW2 5491   3.554   3.359   3.685
 1220SOL     OW 5492  12.997  14.431  10.211
 1220SOL    HW1 5493  13.075  14.454  10.159
 1220SOL    HW2 5494  13.018  14.346  10.249
 1221SOL     OW 5495   2.326  10.448   5.411
 1221SOL    HW1 5496   2.242  10.488   5.436
 1221SOL    HW2 5497   2.367  10.424   5.494
 1222SOL     OW 5498   1.112   1.452  12.320
 1222SOL    HW1 5499   1.108   1.373  12.266
 1222SOL    HW2 5500   1.192   1.442  12.371
 1223SOL     OW 5501  11.640   4.982  10.773
 1223SOL    HW1 5502  11.578   5.054  10.761
 1223SOL    HW2 5503  11.718   5.023  10.810
 1224SOL     OW 5504   4.021   9.374   7.310
 1224SOL    HW1 5505   3.941   9.414   7.274
 1224SOL    HW2 5506   4.002   9.280   7.310
 1225SOL     OW 5507  11.344   8.025  12.424
 1225SOL    HW1 5508  11.302   8.090  12.367
 1225SOL    HW2 5509  11.354   7.948  12.369
 1226SOL     OW 5510   1.087   0.140   9.751
 1226SOL    HW1 5511   1.033   0.063   9.738
 1226SOL    HW2 5512   1.151   0.114   9.818
 1227SOL     OW 5513   8.903   2.063   9.404
 1227SOL    HW1 5514   8.943   2.141   9.444
 1227SOL    HW2 5515   8.961   2.041   9.331
 1228SOL     OW 5516   3.139  13.017   4.519
 1228SOL    HW1 5517   3.181  13.079   4.460
 1228SOL    HW2 5518   3.210  12.986   4.575
 1229SOL     OW 5519  11.429   0.527   3.127
 1229SOL    HW1 5520  11.504   0.550   3.183
 1229SOL    HW2 5521  11.395   0.446   3.165
 1230SOL     OW 5522   1.075   8.540   7.211
 1230SOL    HW1 5523   0.998   8.582   7.249
 1230SOL    HW2 5524   1.148   8.576   7.261
 1231SOL     OW 5525   3.771  11.801   6.557
 1231SOL    HW1 5526   3.758  11.862   6.484
 1231SOL    HW2 5527   3.685  11.795   6.598
 1232SOL     OW 5528  14.003   1.830  11.331
 1232SOL    HW1 5529  13.998   1.747  11.378
 1232SOL    HW2 5530  13.914   1.847  11.302
 1233SOL     OW 5531   3.629  10.501   7.741
 1233SOL    HW1 5532   3.593  10.412   7.737
 1233SOL    HW2 5533   3.724  10.488   7.743
 1234SOL     OW 5534   6.791   2.632   1.138
 1234SOL    HW1 5535   6.784   2.643   1.232
 1234SOL    HW2 5536   6.882   2.605   1.123
 1235SOL     OW 5537   4.668   3.981  10.204
 1235SOL    HW1 5538   4.714   3.927  10.268
 1235SOL    HW2 5539   4.657   4.065  10.247
 1236SOL     OW 5540   6.543   8.797   0.775
 1236SOL    HW1 5541   6.563   8.729   0.711
 1236SOL    HW2 5542   6.456   8.829   0.748
 1237SOL     OW 5543   5.246   0.457  13.814
 1237SOL    HW1 5544   5.341   0.464  13.827
 1237SOL    HW2 5545   5.227   0.364  13.826
 1238SOL     OW 5546  14.238   7.139   0.614
 1238SOL    HW1 5547  14.253   7.211   0.674
 1238SOL    HW2 5548  14.324   7.121   0.575
 1239SOL     OW 5549   6.914   8.476  10.821
 1239SOL    HW1 5550   6.895   8.499  10.730
 1239SOL    HW2 5551   6.831   8.444  10.855
 1240SOL     OW 5552  10.200   7.910   7.187
 1240SOL    HW1 5553  10.224   7.992   7.230
 1240SOL    HW2 5554  10.278   7.856   7.194
 1241SOL     OW 5555  10.202   6.947   1.841
 1241SOL    HW1 5556  10.254   7.024   1.819
 1241SOL    HW2 5557  10.111   6.979   1.840
 1242SOL     OW 5558   4.453  13.658   9.717
 1242SOL    HW1 5559   4.507  13.580   9.704
 1242SOL    HW2 5560   4.508  13.716   9.770
 1243SOL     OW 5561   7.964   0.396   8.018
 1243SOL    HW1 5562   7.907   0.361   8.086
 1243SOL    HW2 5563   8.048   0.352   8.031
 1244SOL     OW 5564  10.471  10.858   3.386
 1244SOL    HW1 5565  10.417  10.796   3.338
 1244SOL    HW2 5566  10.517  10.805   3.451
 1245SOL     OW 5567  12.954   6.353  14.836
 1245SOL    HW1 5568  13.039   6.358  14.793
 1245SOL    HW2 5569  12.916   6.440  14.823
 1246SOL     OW 5570  12.841  14.116   8.811
 1246SOL    HW1 5571  12.877  14.055   8.746
 1246SOL    HW2 5572  12.779  14.064   8.861
 1247SOL     OW 5573   9.837   3.375   0.214
 1247SOL    HW1 5574   9.829   3.461   0.257
 1247SOL    HW2 5575   9.760   3.369   0.158
 1248SOL     OW 5576   2.536   0.348   8.072
 1248SOL    HW1 5577   2.541   0.353   7.977
 1248SOL    HW2 5578   2.552   0.437   8.102
 1249SOL     OW 5579   7.600   9.080   3.377
 1249SOL    HW1 5580   7.696   9.075   3.377
 1249SOL    HW2 5581   7.574   9.037   3.459
 1250SOL     OW 5582   5.406   2.918   3.186
 1250SOL    HW1 5583   5.439   2.928   3.275
 1250SOL    HW2 5584   5.328   2.863   3.196
 1251SOL     OW 5585  13.687   3.964   4.912
 1251SOL    HW1 5586  13.700   3.896   4.846
 1251SOL    HW2 5587  13.704   3.920   4.996
 1252SOL     OW 5588   0.571   6.926   0.165
 1252SOL    HW1 5589   0.547   6.854   0.224
 1252SOL    HW2 5590   0.525   6.906   0.083
 1253SOL     OW 5591   1.858   7.682  14.383
 1253SOL    HW1 5592   1.912   7.605  14.398
 1253SOL    HW2 5593   1.921   7.752  14.366
 1254SOL     OW 5594   8.355   7.371  12.035
 1254SOL    HW1 5595   8.301   7.418  12.099
 1254SOL    HW2 5596   8.433   7.345  12.084
 1255SOL     OW 5597  14.684   9.815   4.707
 1255SOL    HW1 5598  14.777   9.833   4.718
 1255SOL    HW2 5599  14.640   9.887   4.753
 1256SOL     OW 5600   8.435   3.377   2.527
 1256SOL    HW1 5601   8.370   3.326   2.480
 1256SOL    HW2 5602   8.396   3.393   2.613
 1257SOL     OW 5603   2.548   1.507   8.827
 1257SOL    HW1 5604   2.578   1.427   8.783
 1257SOL    HW2 5605   2.509   1.476   8.909
 1258SOL     OW 5606   7.642   2.935   0.793
 1258SOL    HW1 5607   7.613   2.975   0.875
 1258SOL    HW2 5608   7.604   2.989   0.724
 1259SOL     OW 5609   1.195  11.405  14.537
 1259SOL    HW1 5610   1.290  11.407  14.542
 1259SOL    HW2 5611   1.169  11.496  14.523
 1260SOL     OW 5612   3.072  10.122   7.096
 1260SOL    HW1 5613   3.031  10.043   7.061
 1260SOL    HW2 5614   3.001  10.186   7.101
 1261SOL     OW 5615   2.182   3.095  14.484
 1261SOL    HW1 5616   2.125   3.144  14.424
 1261SOL    HW2 5617   2.143   3.107  14.570
 1262SOL     OW 5618   1.655   3.046  10.043
 1262SOL    HW1 5619   1.559   3.046  10.049
 1262SOL    HW2 5620   1.678   2.959  10.012
 1263SOL     OW 5621   2.564   7.101   7.614
 1263SOL    HW1 5622   2.506   7.176   7.630
 1263SOL    HW2 5623   2.641   7.119   7.668
 1264SOL     OW 5624   6.086   1.452   4.265
 1264SOL    HW1 5625   6.093   1.535   4.313
 1264SOL    HW2 5626   6.061   1.477   4.176
 1265SOL     OW 5627   3.547  13.923   6.297
 1265SOL    HW1 5628   3.477  13.959   6.244
 1265SOL    HW2 5629   3.519  13.834   6.318
 1266SOL     OW 5630  14.355   9.812   8.659
 1266SOL    HW1 5631  14.332   9.722   8.685
 1266SOL    HW2 5632  14.447   9.821   8.684
 1267SOL     OW 5633   6.486   0.503  13.393
 1267SOL    HW1 5634   6.461   0.476  13.305
 1267SOL    HW2 5635   6.580   0.484  13.398
 1268SOL     OW 5636   3.059  12.705   0.179
 1268SOL    HW1 5637   2.968  12.677   0.177
 1268SOL    HW2 5638   3.107  12.637   0.132
 1269SOL     OW 5639  10.064   1.952   9.594
 1269SOL    HW1 5640  10.120   2.022   9.560
 1269SOL    HW2 5641   9.985   1.956   9.539
 1270SOL     OW 5642  10.911   7.187   0.524
 1270SOL    HW1 5643  10.875   7.273   0.546
 1270SOL    HW2 5644  10.887   7.174   0.432
 1271SOL     OW 5645   1.931  10.044   7.025
 1271SOL    HW1 5646   1.895   9.984   6.959
 1271SOL    HW2 5647   1.872  10.120   7.023
 1272SOL     OW 5648  11.877   2.256   3.702
 1272SOL    HW1 5649  11.854   2.316   3.773
 1272SOL    HW2 5650  11.801   2.259   3.644
 1273SOL     OW 5651  13.387   0.130   1.301
 1273SOL    HW1 5652  13.336   0.058   1.265
 1273SOL    HW2 5653  13.323   0.199   1.317
 1274SOL     OW 5654  11.396   3.489  13.897
 1274SOL    HW1 5655  11.372   3.581  13.908
 1274SOL    HW2 5656  11.360   3.465  13.811
 1275SOL     OW 5657   3.105   3.980   6.695
 1275SOL    HW1 5658   3.194   3.954   6.671
 1275SOL    HW2 5659   3.070   3.904   6.741
 1276SOL     OW 5660   6.755  14.680   5.823
 1276SOL    HW1 5661   6.687  14.700   5.759
 1276SOL    HW2 5662   6.837  14.699   5.777
 1277SOL     OW 5663   5.451   1.659   2.708
 1277SOL    HW1 5664   5.495   1.630   2.788
 1277SOL    HW2 5665   5.498   1.616   2.637
 1278SOL     OW 5666   3.909  12.906  13.211
 1278SOL    HW1 5667   3.921  12.876  13.121
 1278SOL    HW2 5668   3.885  12.827  13.259
 1279SOL     OW 5669   4.035   0.473   3.459
 1279SOL    HW1 5670   4.036   0.474   3.363
 1279SOL    HW2 5671   4.126   0.482   3.484
 1280SOL     OW 5672   1.154  11.455   8.629
 1280SOL    HW1 5673   1.117  11.496   8.551
 1280SOL    HW2 5674   1.216  11.520   8.664
 1281SOL     OW 5675   3.017   9.820   7.300
 1281SOL    HW1 5676   2.935   9.848   7.341
 1281SOL    HW2 5677   2.995   9.736   7.259
 1282SOL     OW 5678   1.061   3.209   8.872
 1282SOL    HW1 5679   1.074   3.117   8.850
 1282SOL    HW2 5680   0.976   3.211   8.916
 1283SOL     OW 5681   2.954   5.989   2.934
 1283SOL    HW1 5682   2.908   5.942   2.864
 1283SOL    HW2 5683   2.888   6.044   2.975
 1284SOL     OW 5684  10.713  12.601   2.627
 1284SOL    HW1 5685  10.660  12.634   2.555
 1284SOL    HW2 5686  10.802  12.629   2.606
 1285SOL     OW 5687  14.543   5.541  13.270
 1285SOL    HW1 5688  14.542   5.474  13.202
 1285SOL    HW2 5689  14.452   5.570  13.277
 1286SOL     OW 5690   9.027   6.615   6.543
 1286SOL    HW1 5691   9.112   6.660   6.539
 1286SOL    HW2 5692   8.985   6.635   6.459
 1287SOL     OW 5693   8.131   3.929   5.924
 1287SOL    HW1 5694   8.124   3.997   5.856
 1287SOL    HW2 5695   8.154   3.850   5.876
 1288SOL     OW 5696  10.426  12.736   8.195
 1288SOL    HW1 5697  10.484  12.792   8.142
 1288SOL    HW2 5698  10.429  12.775   8.282
 1289SOL     OW 5699  12.520   9.364   2.071
 1289SOL    HW1 5700  12.508   9.274   2.103
 1289SOL    HW2 5701  12.498   9.359   1.978
 1290SOL     OW 5702  14.569   6.299   3.399
 1290SOL    HW1 5703  14.547   6.373   3.342
 1290SOL    HW2 5704  14.627   6.244   3.347
 1291SOL     OW 5705   0.869  12.432  11.224
 1291SOL    HW1 5706   0.912  12.512  11.193
 1291SOL    HW2 5707   0.874  12.372  11.150
 1292SOL     OW 5708   2.679   8.299   1.927
 1292SOL    HW1 5709   2.633   8.326   2.006
 1292SOL    HW2 5710   2.611   8.262   1.871
 1293SOL     OW 5711  13.412   4.669   2.029
 1293SOL    HW1 5712  13.421   4.733   1.958
 1293SOL    HW2 5713  13.331   4.622   2.008
 1294SOL     OW 5714  11.335  13.161   4.043
 1294SOL    HW1 5715  11.269  13.109   4.089
 1294SOL    HW2 5716  11.292  13.245   4.027
 1295SOL     OW 5717  12.678  10.624   4.117
 1295SOL    HW1 5718  12.599  10.656   4.162
 1295SOL    HW2 5719  12.727  10.577   4.184
 1296SOL     OW 5720  11.117   3.983   8.524
 1296SOL    HW1 5721  11.136   4.075   8.505
 1296SOL    HW2 5722  11.094   3.982   8.617
 1297SOL     OW 5723   6.749   0.088  14.721
 1297SOL    HW1 5724   6.683   0.088  14.652
 1297SOL    HW2 5725   6.747   0.176  14.757
 1298SOL     OW 5726   4.375   0.334   2.118
 1298SOL    HW1 5727   4.289   0.293   2.119
 1298SOL    HW2 5728   4.372   0.393   2.042
 1299SOL     OW 5729  11.383   1.198   8.466
 1299SOL    HW1 5730  11.416   1.146   8.393
 1299SOL    HW2 5731  11.410   1.150   8.544
 1300SOL     OW 5732   9.734   5.369  12.140
 1300SOL    HW1 5733   9.643   5.347  12.119
 1300SOL    HW2 5734   9.785   5.295  12.106
 1301SOL     OW 5735  13.291   4.489   0.975
 1301SOL    HW1 5736  13.277   4.553   1.045
 1301SOL    HW2 5737  13.203   4.464   0.948
 1302SOL     OW 5738   2.303   0.673   3.198
 1302SOL    HW1 5739   2.210   0.654   3.186
 1302SOL    HW2 5740   2.326   0.729   3.124
 1303SOL     OW 5741  13.774   8.158   1.317
 1303SOL    HW1 5742  13.832   8.135   1.244
 1303SOL    HW2 5743  13.825   8.138   1.395
 1304SOL     OW 5744  11.520   8.051  11.069
 1304SOL    HW1 5745  11.447   8.103  11.103
 1304SOL    HW2 5746  11.492   7.960  11.080
 1305SOL     OW 5747  11.842  13.455  11.655
 1305SOL    HW1 5748  11.819  13.488  11.568
 1305SOL    HW2 5749  11.864  13.533  11.705
 1306SOL     OW 5750   6.532   8.508  11.708
 1306SOL    HW1 5751   6.542   8.438  11.644
 1306SOL    HW2 5752   6.462   8.563  11.673
 1307SOL     OW 5753  13.041  10.899   3.701
 1307SOL    HW1 5754  13.088  10.837   3.645
 1307SOL    HW2 5755  12.994  10.844   3.764
 1308SOL     OW 5756   0.721  14.485  13.428
 1308SOL    HW1 5757   0.775  14.501  13.506
 1308SOL    HW2 5758   0.777  14.435  13.370
 1309SOL     OW 5759   5.967   2.642   9.588
 1309SOL    HW1 5760   5.907   2.631   9.663
 1309SOL    HW2 5761   5.911   2.671   9.517
 1310SOL     OW 5762   4.767  13.127   4.590
 1310SOL    HW1 5763   4.830  13.055   4.600
 1310SOL    HW2 5764   4.703  13.112   4.660
 1311SOL     OW 5765   0.747  12.739  13.449
 1311SOL    HW1 5766   0.837  12.758  13.477
 1311SOL    HW2 5767   0.693  12.771  13.521
 1312SOL     OW 5768  10.952   7.260   0.920
 1312SOL    HW1 5769  11.006   7.315   0.863
 1312SOL    HW2 5770  10.937   7.180   0.870
 1313SOL     OW 5771   4.551   2.468   6.509
 1313SOL    HW1 5772   4.508   2.437   6.430
 1313SOL    HW2 5773   4.590   2.552   6.484
 1314SOL     OW 5774   5.146   8.191   8.395
 1314SOL    HW1 5775   5.157   8.182   8.300
 1314SOL    HW2 5776   5.075   8.255   8.404
 1315SOL     OW 5777  11.579  12.418   2.389
 1315SOL    HW1 5778  11.585  12.328   2.421
 1315SOL    HW2 5779  11.486  12.440   2.398
 1316SOL     OW 5780  12.391  14.322   4.098
 1316SOL    HW1 5781  12.403  14.291   4.009
 1316SOL    HW2 5782  12.313  14.376   4.095
 1317SOL     OW 5783   1.180  10.454   7.519
 1317SOL    HW1 5784   1.160  10.361   7.503
 1317SOL    HW2 5785   1.253  10.452   7.581
 1318SOL     OW 5786  14.315   7.708  13.254
 1318SOL    HW1 5787  14.277   7.785  13.211
 1318SOL    HW2 5788  14.309   7.639  13.188
 1319SOL     OW 5789   8.253  12.756   2.659
 1319SOL    HW1 5790   8.333  12.738   2.708
 1319SOL    HW2 5791   8.189  12.693   2.694
 1320SOL     OW 5792   7.226   3.699  12.297
 1320SOL    HW1 5793   7.265   3.749  12.369
 1320SOL    HW2 5794   7.132   3.702  12.314
 1321SOL     OW 5795  10.749  11.053   1.904
 1321SOL    HW1 5796  10.676  11.099   1.948
 1321SOL    HW2 5797  10.716  10.964   1.890
 1322SOL     OW 5798   1.891  12.727   8.913
 1322SOL    HW1 5799   1.870  12.634   8.912
 1322SOL    HW2 5800   1.915  12.747   8.822
 1323SOL     OW 5801   9.460   9.243  10.298
 1323SOL    HW1 5802   9.437   9.286  10.380
 1323SOL    HW2 5803   9.481   9.315  10.238
 1324SOL     OW 5804   7.119  14.739  10.100
 1324SOL    HW1 5805   7.079  14.822  10.125
 1324SOL    HW2 5806   7.196  14.732  10.157
 1325SOL     OW 5807   0.451  14.330   0.983
 1325SOL    HW1 5808   0.475  14.240   1.002
 1325SOL    HW2 5809   0.363  14.340   1.018
 1326SOL     OW 5810   9.044  12.330  14.763
 1326SOL    HW1 5811   9.007  12.335  14.851
 1326SOL    HW2 5812   9.016  12.245  14.730
 1327SOL     OW 5813   9.322  13.480   6.631
 1327SOL    HW1 5814   9.296  13.391   6.608
 1327SOL    HW2 5815   9.246  13.534   6.609
 1328SOL     OW 5816   8.705   0.311   4.389
 1328SOL    HW1 5817   8.740   0.399   4.405
 1328SOL    HW2 5818   8.773   0.266   4.340
 1329SOL     OW 5819   8.360   8.190  11.486
 1329SOL    HW1 5820   8.324   8.177  11.573
 1329SOL    HW2 5821   8.424   8.120  11.475
 1330SOL     OW 5822   4.761   1.176   1.817
 1330SOL    HW1 5823   4.668   1.185   1.795
 1330SOL    HW2 5824   4.777   1.247   1.880
 1331SOL     OW 5825  14.403   6.788   1.972
 1331SOL    HW1 5826  14.476   6.730   1.950
 1331SOL    HW2 5827  14.336   6.769   1.906
 1332SOL     OW 5828  10.058   1.405  10.362
 1332SOL    HW1 5829  10.001   1.365  10.296
 1332SOL    HW2 5830  10.141   1.418  10.316
 1333SOL     OW 5831   8.617   9.896   2.139
 1333SOL    HW1 5832   8.712   9.887   2.144
 1333SOL    HW2 5833   8.602   9.987   2.114
 1334SOL     OW 5834   6.672  13.621  10.758
 1334SOL    HW1 5835   6.670  13.595  10.850
 1334SOL    HW2 5836   6.722  13.552  10.715
 1335SOL     OW 5837  12.804   3.791  10.645
 1335SOL    HW1 5838  12.801   3.885  10.663
 1335SOL    HW2 5839  12.811   3.786  10.549
 1336SOL     OW 5840  10.714   1.410   4.193
 1336SOL    HW1 5841  10.720   1.447   4.105
 1336SOL    HW2 5842  10.621   1.401   4.209
 1337SOL     OW 5843   0.541   6.715   5.010
 1337SOL    HW1 5844   0.467   6.691   5.065
 1337SOL    HW2 5845   0.505   6.722   4.922
 1338SOL     OW 5846  13.792   7.129   4.669
 1338SOL    HW1 5847  13.836   7.100   4.589
 1338SOL    HW2 5848  13.704   7.152   4.641
 1339SOL     OW 5849   9.890  10.113   9.880
 1339SOL    HW1 5850   9.945  10.036   9.895
 1339SOL    HW2 5851   9.879  10.116   9.785
 1340SOL     OW 5852   7.815  11.542  10.804
 1340SOL    HW1 5853   7.777  11.528  10.891
 1340SOL    HW2 5854   7.854  11.629  10.808
 1341SOL     OW 5855   1.543  10.020   3.548
 1341SOL    HW1 5856   1.509  10.077   3.479
 1341SOL    HW2 5857   1.483   9.945   3.550
 1342SOL     OW 5858   7.208  14.873  13.629
 1342SOL    HW1 5859   7.216  14.806  13.561
 1342SOL    HW2 5860   7.205  14.824  13.711
 1343SOL     OW 5861  12.871   5.311   4.231
 1343SOL    HW1 5862  12.792   5.299   4.178
 1343SOL    HW2 5863  12.840   5.353   4.311
 1344SOL     OW 5864   5.351   0.054   2.683
 1344SOL    HW1 5865   5.287   0.003   2.732
 1344SOL    HW2 5866   5.419  14.870   2.658
 1345SOL     OW 5867  11.894   6.466   6.104
 1345SOL    HW1 5868  11.870   6.554   6.134
 1345SOL    HW2 5869  11.892   6.472   6.008
 1346SOL     OW 5870   8.217   4.102  11.717
 1346SOL    HW1 5871   8.247   4.067  11.633
 1346SOL    HW2 5872   8.162   4.033  11.754
 1347SOL     OW 5873   4.515  10.082   5.888
 1347SOL    HW1 5874   4.479  10.099   5.801
 1347SOL    HW2 5875   4.502   9.988   5.901
 1348SOL     OW 5876   2.408   5.569  13.504
 1348SOL    HW1 5877   2.323   5.538  13.473
 1348SOL    HW2 5878   2.389   5.652  13.547
 1349SOL     OW 5879   7.298   7.996   2.944
 1349SOL    HW1 5880   7.296   8.016   2.851
 1349SOL    HW2 5881   7.385   8.023   2.973
 1350SOL     OW 5882   6.385   2.569   5.307
 1350SOL    HW1 5883   6.437   2.587   5.229
 1350SOL    HW2 5884   6.446   2.582   5.380
 1351SOL     OW 5885   4.443   2.163   5.094
 1351SOL    HW1 5886   4.488   2.161   5.179
 1351SOL    HW2 5887   4.360   2.208   5.112
 1352SOL     OW 5888   5.017  10.842   4.981
 1352SOL    HW1 5889   4.957  10.917   4.977
 1352SOL    HW2 5890   5.080  10.857   4.911
 1353SOL     OW 5891   6.513  11.564  13.375
 1353SOL    HW1 5892   6.594  11.606  13.403
 1353SOL    HW2 5893   6.477  11.624  13.309
 1354SOL     OW 5894  10.435  13.770   1.955
 1354SOL    HW1 5895  10.423  13.698   2.018
 1354SOL    HW2 5896  10.462  13.845   2.009
 1355SOL     OW 5897   3.139   0.600   1.675
 1355SOL    HW1 5898   3.169   0.686   1.645
 1355SOL    HW2 5899   3.046   0.613   1.694
 1356SOL     OW 5900   9.242   5.257   9.078
 1356SOL    HW1 5901   9.290   5.285   9.157
 1356SOL    HW2 5902   9.224   5.338   9.031
 1357SOL     OW 5903  13.214   8.018  11.468
 1357SOL    HW1 5904  13.291   8.005  11.413
 1357SOL    HW2 5905  13.176   7.931  11.478
 1358SOL     OW 5906  12.109  12.053  12.596
 1358SOL    HW1 5907  12.140  12.003  12.520
 1358SOL    HW2 5908  12.035  12.002  12.629
 1359SOL     OW 5909   1.361   6.274   8.013
 1359SOL    HW1 5910   1.287   6.239   8.063
 1359SOL    HW2 5911   1.437   6.232   8.052
 1360SOL     OW 5912   6.913   6.828   7.798
 1360SOL    HW1 5913   6.898   6.856   7.708
 1360SOL    HW2 5914   7.006   6.842   7.813
 1361SOL     OW 5915   3.852   5.636   2.321
 1361SOL    HW1 5916   3.923   5.653   2.384
 1361SOL    HW2 5917   3.882   5.559   2.273
 1362SOL     OW 5918  10.323   2.124   8.009
 1362SOL    HW1 5919  10.375   2.060   7.961
 1362SOL    HW2 5920  10.370   2.135   8.092
 1363SOL     OW 5921   3.156   7.994   0.641
 1363SOL    HW1 5922   3.221   7.995   0.570
 1363SOL    HW2 5923   3.102   8.071   0.624
 1364SOL     OW 5924  11.293  10.441   1.284
 1364SOL    HW1 5925  11.335  10.498   1.219
 1364SOL    HW2 5926  11.281  10.358   1.238
 1365SOL     OW 5927   4.754   1.171   4.498
 1365SOL    HW1 5928   4.842   1.207   4.500
 1365SOL    HW2 5929   4.696   1.248   4.503
 1366SOL     OW 5930   7.608  11.482  11.541
 1366SOL    HW1 5931   7.643  11.519  11.623
 1366SOL    HW2 5932   7.552  11.410  11.570
 1367SOL     OW 5933   8.692  12.099  13.278
 1367SOL    HW1 5934   8.686  12.074  13.185
 1367SOL    HW2 5935   8.782  12.081  13.302
 1368SOL     OW 5936   8.879  11.089  12.183
 1368SOL    HW1 5937   8.918  11.002  12.194
 1368SOL    HW2 5938   8.911  11.119  12.097
 1369SOL     OW 5939   2.089   6.970   3.083
 1369SOL    HW1 5940   2.006   7.008   3.112
 1369SOL    HW2 5941   2.156   7.017   3.132
 1370SOL     OW 5942  11.075   3.520   8.809
 1370SOL    HW1 5943  11.085   3.615   8.819
 1370SOL    HW2 5944  11.077   3.505   8.715
 1371SOL     OW 5945  10.342   0.179   9.882
 1371SOL    HW1 5946  10.429   0.139   9.886
 1371SOL    HW2 5947  10.357   0.273   9.886
 1372SOL     OW 5948   7.208  11.010  13.708
 1372SOL    HW1 5949   7.260  11.005  13.788
 1372SOL    HW2 5950   7.224  10.926  13.664
 1373SOL     OW 5951   8.148  12.975  12.313
 1373SOL    HW1 5952   8.197  12.966  12.231
 1373SOL    HW2 5953   8.083  13.043  12.295
 1374SOL     OW 5954   4.590   0.761   3.334
 1374SOL    HW1 5955   4.652   0.826   3.303
 1374SOL    HW2 5956   4.620   0.679   3.294
 1375SOL     OW 5957   2.207   1.108  14.157
 1375SOL    HW1 5958   2.284   1.160  14.136
 1375SOL    HW2 5959   2.168   1.152  14.233
 1376SOL     OW 5960  13.580   4.129  10.537
 1376SOL    HW1 5961  13.503   4.186  10.531
 1376SOL    HW2 5962  13.623   4.156  10.618
 1377SOL     OW 5963   9.288   7.475   3.999
 1377SOL    HW1 5964   9.319   7.563   3.975
 1377SOL    HW2 5965   9.346   7.448   4.070
 1378SOL     OW 5966   6.669  10.535  11.192
 1378SOL    HW1 5967   6.745  10.564  11.243
 1378SOL    HW2 5968   6.660  10.601  11.123
 1379SOL     OW 5969   7.744   4.019   7.266
 1379SOL    HW1 5970   7.786   4.097   7.231
 1379SOL    HW2 5971   7.732   3.962   7.191
 1380SOL     OW 5972   5.916   9.484   7.782
 1380SOL    HW1 5973   5.995   9.533   7.759
 1380SOL    HW2 5974   5.892   9.436   7.703
 1381SOL     OW 5975   8.253   7.142  10.112
 1381SOL    HW1 5976   8.262   7.217  10.171
 1381SOL    HW2 5977   8.240   7.067  10.169
 1382SOL     OW 5978   6.963  14.173   4.456
 1382SOL    HW1 5979   6.933  14.086   4.482
 1382SOL    HW2 5980   6.891  14.232   4.479
 1383SOL     OW 5981   6.142   9.256   7.154
 1383SOL    HW1 5982   6.113   9.307   7.230
 1383SOL    HW2 5983   6.194   9.185   7.191
 1384SOL     OW 5984  14.699  11.696  14.038
 1384SOL    HW1 5985  14.609  11.729  14.042
 1384SOL    HW2 5986  14.737  11.719  14.123
 1385SOL     OW 5987   9.079  10.140   3.887
 1385SOL    HW1 5988   9.036  10.152   3.972
 1385SOL    HW2 5989   9.012  10.164   3.823
 1386SOL     OW 5990   2.824  11.478   8.429
 1386SOL    HW1 5991   2.843  11.570   8.409
 1386SOL    HW2 5992   2.729  11.470   8.416
 1387SOL     OW 5993   3.617   4.277  13.448
 1387SOL    HW1 5994   3.707   4.271  13.480
 1387SOL    HW2 5995   3.586   4.186  13.444
 1388SOL     OW 5996   9.281  11.299   1.641
 1388SOL    HW1 5997   9.366  11.331   1.609
 1388SOL    HW2 5998   9.268  11.216   1.595
 1389SOL     OW 5999   1.172   1.865   2.374
 1389SOL    HW1 6000   1.157   1.869   2.469
 1389SOL    HW2 6001   1.265   1.845   2.366
 1390SOL     OW 6002  12.465  13.616   8.490
 1390SOL    HW1 6003  12.442  13.660   8.572
 1390SOL    HW2 6004  12.433  13.527   8.502
 1391SOL     OW 6005   0.062   6.991   3.896
 1391SOL    HW1 6006   0.090   7.057   3.958
 1391SOL    HW2 6007  14.862   6.954   3.934
 1392SOL     OW 6008  13.381   5.490   5.750
 1392SOL    HW1 6009  13.414   5.433   5.681
 1392SOL    HW2 6010  13.309   5.538   5.710
 1393SOL     OW 6011  12.986   8.262  13.593
 1393SOL    HW1 6012  13.004   8.169  13.598
 1393SOL    HW2 6013  13.069   8.305  13.613
 1394SOL     OW 6014   8.863   8.791  11.994
 1394SOL    HW1 6015   8.909   8.861  11.947
 1394SOL    HW2 6016   8.798   8.759  11.931
 1395SOL     OW 6017   3.825  10.587  12.279
 1395SOL    HW1 6018   3.744  10.544  12.304
 1395SOL    HW2 6019   3.879  10.518  12.241
 1396SOL     OW 6020   2.580   4.797   2.124
 1396SOL    HW1 6021   2.603   4.776   2.034
 1396SOL    HW2 6022   2.493   4.836   2.118
 1397SOL     OW 6023   4.038  13.964   0.420
 1397SOL    HW1 6024   4.097  14.039   0.421
 1397SOL    HW2 6025   3.956  13.998   0.455
 1398SOL     OW 6026   6.523   1.177  13.721
 1398SOL    HW1 6027   6.534   1.138  13.635
 1398SOL    HW2 6028   6.430   1.203  13.723
 1399SOL     OW 6029   5.899   0.642  12.521
 1399SOL    HW1 6030   5.976   0.687  12.556
 1399SOL    HW2 6031   5.924   0.549  12.521
 1400SOL     OW 6032   7.343  14.760   3.653
 1400SOL    HW1 6033   7.360  14.703   3.728
 1400SOL    HW2 6034   7.403  14.729   3.585
 1401SOL     OW 6035   6.432  13.804   7.851
 1401SOL    HW1 6036   6.475  13.889   7.843
 1401SOL    HW2 6037   6.363  13.818   7.915
 1402SOL     OW 6038  10.203   4.703   3.605
 1402SOL    HW1 6039  10.288   4.686   3.643
 1402SOL    HW2 6040  10.158   4.618   3.607
 1403SOL     OW 6041   2.331   7.685   8.392
 1403SOL    HW1 6042   2.401   7.713   8.332
 1403SOL    HW2 6043   2.257   7.665   8.334
 1404SOL     OW 6044   5.509   0.615   9.279
 1404SOL    HW1 6045   5.484   0.630   9.370
 1404SOL    HW2 6046   5.489   0.698   9.235
 1405SOL     OW 6047   3.956   7.245   5.054
 1405SOL    HW1 6048   4.033   7.218   5.005
 1405SOL    HW2 6049   3.978   7.229   5.146
 1406SOL     OW 6050  11.351  12.410  12.892
 1406SOL    HW1 6051  11.421  12.454  12.843
 1406SOL    HW2 6052  11.374  12.423  12.984
 1407SOL     OW 6053   8.581  13.057   3.214
 1407SOL    HW1 6054   8.650  13.104   3.262
 1407SOL    HW2 6055   8.625  12.980   3.178
 1408SOL     OW 6056  10.021   5.087   4.517
 1408SOL    HW1 6057   9.982   5.175   4.519
 1408SOL    HW2 6058  10.015   5.060   4.425
 1409SOL     OW 6059   8.711  11.723   9.419
 1409SOL    HW1 6060   8.733  11.703   9.328
 1409SOL    HW2 6061   8.763  11.661   9.471
 1410SOL     OW 6062   7.980  11.217   4.552
 1410SOL    HW1 6063   8.073  11.212   4.530
 1410SOL    HW2 6064   7.972  11.299   4.602
 1411SOL     OW 6065  14.168  11.406   8.465
 1411SOL    HW1 6066  14.113  11.334   8.432
 1411SOL    HW2 6067  14.220  11.432   8.390
 1412SOL     OW 6068   2.568   9.387  11.714
 1412SOL    HW1 6069   2.622   9.334  11.655
 1412SOL    HW2 6070   2.616   9.469  11.723
 1413SOL     OW 6071   9.696   1.081  12.638
 1413SOL    HW1 6072   9.601   1.067  12.641
 1413SOL    HW2 6073   9.713   1.108  12.548
 1414SOL     OW 6074   4.505   0.683   8.442
 1414SOL    HW1 6075   4.433   0.746   8.453
 1414SOL    HW2 6076   4.580   0.736   8.417
 1415SOL     OW 6077   7.063   0.187  13.375
 1415SOL    HW1 6078   7.015   0.110  13.345
 1415SOL    HW2 6079   7.025   0.260  13.327
 1416SOL     OW 6080   3.299   6.488  13.118
 1416SOL    HW1 6081   3.318   6.536  13.199
 1416SOL    HW2 6082   3.207   6.508  13.100
 1417SOL     OW 6083   7.014   5.979   9.211
 1417SOL    HW1 6084   7.053   6.060   9.243
 1417SOL    HW2 6085   6.942   5.961   9.273
 1418SOL     OW 6086  13.662   3.372  11.409
 1418SOL    HW1 6087  13.690   3.287  11.377
 1418SOL    HW2 6088  13.701   3.380  11.496
 1419SOL     OW 6089   6.260   3.854   2.990
 1419SOL    HW1 6090   6.178   3.811   3.012
 1419SOL    HW2 6091   6.319   3.831   3.061
 1420SOL     OW 6092   5.655   1.555   9.813
 1420SOL    HW1 6093   5.612   1.528   9.894
 1420SOL    HW2 6094   5.606   1.633   9.784
 1421SOL     OW 6095   3.980   7.790  11.414
 1421SOL    HW1 6096   4.034   7.759  11.487
 1421SOL    HW2 6097   3.967   7.883  11.431
 1422SOL     OW 6098  11.163  14.652   1.389
 1422SOL    HW1 6099  11.163  14.607   1.304
 1422SOL    HW2 6100  11.127  14.587   1.449
 1423SOL     OW 6101  10.081   7.583   8.744
 1423SOL    HW1 6102  10.102   7.490   8.749
 1423SOL    HW2 6103  10.012   7.596   8.810
 1424SOL     OW 6104   2.978   7.066   1.149
 1424SOL    HW1 6105   2.898   7.030   1.188
 1424SOL    HW2 6106   2.958   7.158   1.135
 1425SOL     OW 6107   7.078  12.870  12.484
 1425SOL    HW1 6108   7.089  12.775  12.480
 1425SOL    HW2 6109   7.007  12.888  12.423
 1426SOL     OW 6110  12.310   9.141   7.623
 1426SOL    HW1 6111  12.264   9.104   7.699
 1426SOL    HW2 6112  12.279   9.089   7.549
 1427SOL     OW 6113   2.268  12.774  11.443
 1427SOL    HW1 6114   2.258  12.822  11.360
 1427SOL    HW2 6115   2.199  12.708  11.441
 1428SOL     OW 6116   2.867   4.270   1.021
 1428SOL    HW1 6117   2.808   4.239   0.952
 1428SOL    HW2 6118   2.927   4.198   1.036
 1429SOL     OW 6119   8.863  12.461  11.867
 1429SOL    HW1 6120   8.835  12.373  11.840
 1429SOL    HW2 6121   8.812  12.480  11.945
 1430SOL     OW 6122   1.722  12.616   1.453
 1430SOL    HW1 6123   1.773  12.559   1.511
 1430SOL    HW2 6124   1.685  12.557   1.387
 1431SOL     OW 6125   1.275   6.309   9.468
 1431SOL    HW1 6126   1.228   6.232   9.499
 1431SOL    HW2 6127   1.248   6.320   9.377
 1432SOL     OW 6128  14.470   8.380   8.292
 1432SOL    HW1 6129  14.536   8.355   8.227
 1432SOL    HW2 6130  14.521   8.396   8.372
 1433SOL     OW 6131  10.340   7.330   2.598
 1433SOL    HW1 6132  10.304   7.249   2.636
 1433SOL    HW2 6133  10.412   7.354   2.657
 1434SOL     OW 6134   7.873  12.524  11.215
 1434SOL    HW1 6135   7.903  12.556  11.300
 1434SOL    HW2 6136   7.938  12.458  11.190
 1435SOL     OW 6137  11.897   4.826   3.413
 1435SOL    HW1 6138  11.953   4.750   3.427
 1435SOL    HW2 6139  11.889   4.833   3.318
 1436SOL     OW 6140   6.505   5.003   6.024
 1436SOL    HW1 6141   6.458   5.054   5.958
 1436SOL    HW2 6142   6.447   5.005   6.101
 1437SOL     OW 6143  13.278   9.582   7.533
 1437SOL    HW1 6144  13.194   9.613   7.501
 1437SOL    HW2 6145  13.264   9.490   7.554
 1438SOL     OW 6146   1.424   5.794   0.797
 1438SOL    HW1 6147   1.397   5.703   0.784
 1438SOL    HW2 6148   1.515   5.796   0.769
 1439SOL     OW 6149   6.497   3.267  14.616
 1439SOL    HW1 6150   6.579   3.276  14.665
 1439SOL    HW2 6151   6.428   3.278  14.682
 1440SOL     OW 6152  10.214  12.037   8.311
 1440SOL    HW1 6153  10.251  12.001   8.231
 1440SOL    HW2 6154  10.248  12.126   8.316
 1441SOL     OW 6155  11.379  11.448  13.671
 1441SOL    HW1 6156  11.435  11.460  13.595
 1441SOL    HW2 6157  11.427  11.387  13.727
 1442SOL     OW 6158  14.686  11.016  14.609
 1442SOL    HW1 6159  14.748  11.011  14.681
 1442SOL    HW2 6160  14.618  10.952  14.631
 1443SOL     OW 6161  10.585   5.361  10.675
 1443SOL    HW1 6162  10.585   5.341  10.581
 1443SOL    HW2 6163  10.639   5.292  10.714
 1444SOL     OW 6164   8.591  12.759  12.068
 1444SOL    HW1 6165   8.630  12.791  12.149
 1444SOL    HW2 6166   8.648  12.791  11.999
 1445SOL     OW 6167  13.049   9.717  10.907
 1445SOL    HW1 6168  12.967   9.681  10.942
 1445SOL    HW2 6169  13.117   9.677  10.961
 1446SOL     OW 6170   5.077  12.654   3.879
 1446SOL    HW1 6171   5.061  12.734   3.830
 1446SOL    HW2 6172   5.118  12.594   3.816
 1447SOL     OW 6173   1.409  12.400  11.265
 1447SOL    HW1 6174   1.399  12.305  11.266
 1447SOL    HW2 6175   1.330  12.433  11.308
 1448SOL     OW 6176  13.741   6.180   0.069
 1448SOL    HW1 6177  13.826   6.147   0.098
 1448SOL    HW2 6178  13.713   6.120   0.000
 1449SOL     OW 6179   0.222   9.453   3.792
 1449SOL    HW1 6180   0.132   9.424   3.775
 1449SOL    HW2 6181   0.277   9.388   3.749
 1450SOL     OW 6182   0.069  10.474  11.706
 1450SOL    HW1 6183   0.021  10.549  11.740
 1450SOL    HW2 6184   0.039  10.466  11.615
 1451SOL     OW 6185   0.543  14.145  11.287
 1451SOL    HW1 6186   0.535  14.111  11.376
 1451SOL    HW2 6187   0.637  14.146  11.270
 1452SOL     OW 6188   5.896   0.574  13.702
 1452SOL    HW1 6189   5.849   0.587  13.785
 1452SOL    HW2 6190   5.828   0.546  13.641
 1453SOL     OW 6191   1.524   3.781   4.341
 1453SOL    HW1 6192   1.608   3.817   4.372
 1453SOL    HW2 6193   1.546   3.737   4.259
 1454SOL     OW 6194   0.663  12.352   0.654
 1454SOL    HW1 6195   0.602  12.301   0.708
 1454SOL    HW2 6196   0.715  12.402   0.717
 1455SOL     OW 6197   1.425  10.548   8.151
 1455SOL    HW1 6198   1.399  10.515   8.065
 1455SOL    HW2 6199   1.431  10.471   8.207
 1456SOL     OW 6200  12.237   4.646   8.893
 1456SOL    HW1 6201  12.282   4.576   8.846
 1456SOL    HW2 6202  12.155   4.606   8.924
 1457SOL     OW 6203   1.410   5.883  11.565
 1457SOL    HW1 6204   1.363   5.859  11.644
 1457SOL    HW2 6205   1.341   5.904  11.501
 1458SOL     OW 6206   0.207  14.687   2.113
 1458SOL    HW1 6207   0.267  14.731   2.054
 1458SOL    HW2 6208   0.202  14.744   2.189
 1459SOL     OW 6209  10.841   9.812   8.767
 1459SOL    HW1 6210  10.788   9.769   8.699
 1459SOL    HW2 6211  10.914   9.850   8.720
 1460SOL     OW 6212   0.461   2.857  13.234
 1460SOL    HW1 6213   0.484   2.897  13.150
 1460SOL    HW2 6214   0.379   2.810  13.216
 1461SOL     OW 6215  14.190  10.211  14.628
 1461SOL    HW1 6216  14.183  10.267  14.551
 1461SOL    HW2 6217  14.116  10.150  14.619
 1462SOL     OW 6218  11.029  14.051   2.417
 1462SOL    HW1 6219  11.105  13.993   2.416
 1462SOL    HW2 6220  10.963  14.005   2.366
 1463SOL     OW 6221  12.020   1.717   5.223
 1463SOL    HW1 6222  12.030   1.735   5.317
 1463SOL    HW2 6223  12.001   1.624   5.218
 1464SOL     OW 6224   8.887  10.923   1.035
 1464SOL    HW1 6225   8.815  10.860   1.044
 1464SOL    HW2 6226   8.892  10.941   0.941
 1465SOL     OW 6227   8.740  10.184   4.830
 1465SOL    HW1 6228   8.694  10.258   4.868
 1465SOL    HW2 6229   8.793  10.149   4.902
 1466SOL     OW 6230   8.931   7.147  13.105
 1466SOL    HW1 6231   8.860   7.101  13.060
 1466SOL    HW2 6232   8.891   7.180  13.186
 1467SOL     OW 6233   6.068  12.019   0.672
 1467SOL    HW1 6234   6.163  12.025   0.665
 1467SOL    HW2 6235   6.046  12.070   0.749
 1468SOL     OW 6236   5.104   6.782   8.712
 1468SOL    HW1 6237   5.162   6.858   8.708
 1468SOL    HW2 6238   5.141   6.727   8.781
 1469SOL     OW 6239  10.820  13.999   9.303
 1469SOL    HW1 6240  10.737  13.959   9.279
 1469SOL    HW2 6241  10.804  14.038   9.389
 1470SOL     OW 6242   9.808   2.668  14.808
 1470SOL    HW1 6243   9.840   2.724  14.879
 1470SOL    HW2 6244   9.790   2.584  14.849
 1471SOL     OW 6245  12.084  10.691  11.563
 1471SOL    HW1 6246  12.142  10.724  11.631
 1471SOL    HW2 6247  12.131  10.617  11.524
 1472SOL     OW 6248   4.649   5.896   8.485
 1472SOL    HW1 6249   4.559   5.913   8.514
 1472SOL    HW2 6250   4.685   5.982   8.463
 1473SOL     OW 6251   6.740   2.347   8.205
 1473SOL    HW1 6252   6.673   2.406   8.170
 1473SOL    HW2 6253   6.760   2.288   8.132
 1474SOL     OW 6254  11.936   5.574   5.141
 1474SOL    HW1 6255  11.921   5.580   5.047
 1474SOL    HW2 6256  12.019   5.621   5.155
 1475SOL     OW 6257  13.586   1.388   5.699
 1475SOL    HW1 6258  13.602   1.388   5.793
 1475SOL    HW2 6259  13.549   1.475   5.681
 1476SOL     OW 6260   8.350  10.057  14.218
 1476SOL    HW1 6261   8.343  10.022  14.307
 1476SOL    HW2 6262   8.440  10.087  14.211
 1477SOL     OW 6263   5.032  10.566   6.635
 1477SOL    HW1 6264   4.970  10.507   6.676
 1477SOL    HW2 6265   5.066  10.620   6.707
 1478SOL     OW 6266   3.513  12.625  13.297
 1478SOL    HW1 6267   3.474  12.563  13.236
 1478SOL    HW2 6268   3.446  12.641  13.362
 1479SOL     OW 6269   4.742   0.328  14.503
 1479SOL    HW1 6270   4.814   0.356  14.446
 1479SOL    HW2 6271   4.765   0.239  14.529
 1480SOL     OW 6272   9.974   1.529   7.942
 1480SOL    HW1 6273   9.983   1.613   7.897
 1480SOL    HW2 6274   9.886   1.498   7.919
 1481SOL     OW 6275   8.863   8.147  13.377
 1481SOL    HW1 6276   8.891   8.125  13.288
 1481SOL    HW2 6277   8.929   8.106  13.433
 1482SOL     OW 6278   1.053   6.965  10.651
 1482SOL    HW1 6279   1.051   6.963  10.746
 1482SOL    HW2 6280   1.057   6.873  10.625
 1483SOL     OW 6281  11.387   7.446   4.517
 1483SOL    HW1 6282  11.394   7.356   4.486
 1483SOL    HW2 6283  11.473   7.464   4.556
 1484SOL     OW 6284   4.744   2.768  12.626
 1484SOL    HW1 6285   4.700   2.787  12.544
 1484SOL    HW2 6286   4.831   2.807  12.616
 1485SOL     OW 6287  14.839  10.293  13.876
 1485SOL    HW1 6288  14.771  10.249  13.824
 1485SOL    HW2 6289  14.793  10.367  13.917
 1486SOL     OW 6290   4.218  12.784   4.950
 1486SOL    HW1 6291   4.291  12.751   4.898
 1486SOL    HW2 6292   4.243  12.765   5.040
 1487SOL     OW 6293   9.907  12.070  14.019
 1487SOL    HW1 6294   9.891  11.978  14.042
 1487SOL    HW2 6295   9.939  12.110  14.100
 1488SOL     OW 6296   1.840   9.845   6.069
 1488SOL    HW1 6297   1.894   9.924   6.064
 1488SOL    HW2 6298   1.900   9.777   6.100
 1489SOL     OW 6299   4.737   0.176   3.990
 1489SOL    HW1 6300   4.771   0.097   4.032
 1489SOL    HW2 6301   4.654   0.194   4.034
 1490SOL     OW 6302   7.228   0.761   6.142
 1490SOL    HW1 6303   7.248   0.715   6.223
 1490SOL    HW2 6304   7.183   0.697   6.088
 1491SOL     OW 6305   9.933   3.735  13.529
 1491SOL    HW1 6306   9.908   3.821  13.561
 1491SOL    HW2 6307   9.859   3.678  13.553
 1492SOL     OW 6308   6.137   5.934   9.213
 1492SOL    HW1 6309   6.063   5.980   9.253
 1492SOL    HW2 6310   6.213   5.989   9.233
 1493SOL     OW 6311   5.129   0.981   1.539
 1493SOL    HW1 6312   5.124   0.905   1.480
 1493SOL    HW2 6313   5.041   1.018   1.537
 1494SOL     OW 6314  14.810   8.796   4.594
 1494SOL    HW1 6315  14.868   8.723   4.614
 1494SOL    HW2 6316  14.869   8.871   4.585
 1495SOL     OW 6317   8.030   4.831  12.783
 1495SOL    HW1 6318   8.033   4.884  12.703
 1495SOL    HW2 6319   8.045   4.741  12.754
 1496SOL     OW 6320   9.205   8.617   4.167
 1496SOL    HW1 6321   9.163   8.671   4.234
 1496SOL    HW2 6322   9.176   8.527   4.187
 1497SOL     OW 6323   4.882   0.478  12.572
 1497SOL    HW1 6324   4.898   0.465  12.666
 1497SOL    HW2 6325   4.946   0.420  12.529
 1498SOL     OW 6326  12.379  14.472   8.729
 1498SOL    HW1 6327  12.326  14.551   8.717
 1498SOL    HW2 6328  12.461  14.492   8.683
 1499SOL     OW 6329   4.020   8.291   5.851
 1499SOL    HW1 6330   4.062   8.235   5.917
 1499SOL    HW2 6331   4.081   8.290   5.777
 1500SOL     OW 6332   3.657   2.773   2.785
 1500SOL    HW1 6333   3.739   2.728   2.769
 1500SOL    HW2 6334   3.605   2.758   2.706
 1501SOL     OW 6335   5.348   8.519  11.675
 1501SOL    HW1 6336   5.357   8.583  11.605
 1501SOL    HW2 6337   5.290   8.562  11.739
 1502SOL     OW 6338   3.788   8.172   5.834
 1502SOL    HW1 6339   3.728   8.215   5.895
 1502SOL    HW2 6340   3.873   8.210   5.853
 1503SOL     OW 6341   0.121   4.501   8.055
 1503SOL    HW1 6342   0.095   4.583   8.014
 1503SOL    HW2 6343   0.175   4.457   7.989
 1504SOL     OW 6344   5.584   1.079  10.928
 1504SOL    HW1 6345   5.489   1.071  10.935
 1504SOL    HW2 6346   5.607   1.151  10.986
 1505SOL     OW 6347   3.631   4.528  13.328
 1505SOL    HW1 6348   3.724   4.551  13.328
 1505SOL    HW2 6349   3.630   4.435  13.352
 1506SOL     OW 6350  14.845   0.297  11.888
 1506SOL    HW1 6351  14.819   0.205  11.890
 1506SOL    HW2 6352  14.788   0.340  11.951
 1507SOL     OW 6353   0.311   4.784   0.931
 1507SOL    HW1 6354   0.310   4.697   0.971
 1507SOL    HW2 6355   0.341   4.843   1.000
 1508SOL     OW 6356   2.316  11.224  10.534
 1508SOL    HW1 6357   2.403  11.207  10.571
 1508SOL    HW2 6358   2.265  11.145  10.554
 1509SOL     OW 6359   9.350   5.411   2.144
 1509SOL    HW1 6360   9.387   5.324   2.134
 1509SOL    HW2 6361   9.424   5.470   2.132
 1510SOL     OW 6362   2.915   7.571   3.630
 1510SOL    HW1 6363   2.825   7.597   3.615
 1510SOL    HW2 6364   2.963   7.604   3.554
 1511SOL     OW 6365  14.150   6.355   0.082
 1511SOL    HW1 6366  14.103   6.277   0.113
 1511SOL    HW2 6367  14.164   6.407   0.161
 1512SOL     OW 6368   5.242   6.422  13.069
 1512SOL    HW1 6369   5.291   6.433  12.988
 1512SOL    HW2 6370   5.150   6.423  13.042
 1513SOL     OW 6371   0.822   4.027   0.583
 1513SOL    HW1 6372   0.756   3.963   0.557
 1513SOL    HW2 6373   0.850   3.999   0.671
 1514SOL     OW 6374   7.742   1.506   6.991
 1514SOL    HW1 6375   7.823   1.492   6.942
 1514SOL    HW2 6376   7.689   1.429   6.970
 1515SOL     OW 6377  14.629  13.116   7.048
 1515SOL    HW1 6378  14.655  13.189   7.105
 1515SOL    HW2 6379  14.559  13.073   7.096
 1516SOL     OW 6380   9.699   2.593  12.268
 1516SOL    HW1 6381   9.740   2.588  12.181
 1516SOL    HW2 6382   9.610   2.562  12.253
 1517SOL     OW 6383   7.047  10.758   0.211
 1517SOL    HW1 6384   7.106  10.730   0.280
 1517SOL    HW2 6385   6.965  10.713   0.230
 1518SOL     OW 6386   0.276   9.454   6.705
 1518SOL    HW1 6387   0.197   9.500   6.734
 1518SOL    HW2 6388   0.275   9.462   6.610
 1519SOL     OW 6389   7.688   7.806   6.060
 1519SOL    HW1 6390   7.639   7.771   6.135
 1519SOL    HW2 6391   7.655   7.895   6.049
 1520SOL     OW 6392   6.432  11.857   7.026
 1520SOL    HW1 6393   6.392  11.846   6.939
 1520SOL    HW2 6394   6.409  11.946   7.052
 1521SOL     OW 6395   5.624  14.310   9.759
 1521SOL    HW1 6396   5.679  14.389   9.768
 1521SOL    HW2 6397   5.684  14.238   9.777
 1522SOL     OW 6398  11.741   5.638   4.791
 1522SOL    HW1 6399  11.734   5.706   4.858
 1522SOL    HW2 6400  11.691   5.673   4.717
 1523SOL     OW 6401   3.152   0.586   1.343
 1523SOL    HW1 6402   3.160   0.675   1.376
 1523SOL    HW2 6403   3.129   0.533   1.420
 1524SOL     OW 6404   5.610   5.875   1.635
 1524SOL    HW1 6405   5.528   5.829   1.655
 1524SOL    HW2 6406   5.676   5.806   1.632
 1525SOL     OW 6407   3.271   4.074   4.926
 1525SOL    HW1 6408   3.225   4.009   4.980
 1525SOL    HW2 6409   3.309   4.135   4.989
 1526SOL     OW 6410   6.817  11.098   8.032
 1526SOL    HW1 6411   6.761  11.029   7.996
 1526SOL    HW2 6412   6.805  11.173   7.974
 1527SOL     OW 6413   9.555   2.295  12.356
 1527SOL    HW1 6414   9.522   2.368  12.303
 1527SOL    HW2 6415   9.649   2.293  12.337
 1528SOL     OW 6416   4.611   5.501   9.652
 1528SOL    HW1 6417   4.646   5.561   9.717
 1528SOL    HW2 6418   4.593   5.556   9.575
 1529SOL     OW 6419   9.056  12.198  14.354
 1529SOL    HW1 6420   8.982  12.149  14.319
 1529SOL    HW2 6421   9.093  12.244  14.279
 1530SOL     OW 6422   8.196  13.378   6.566
 1530SOL    HW1 6423   8.117  13.367   6.513
 1530SOL    HW2 6424   8.266  13.390   6.503
 1531SOL     OW 6425   9.076  10.386  11.561
 1531SOL    HW1 6426   9.009  10.337  11.609
 1531SOL    HW2 6427   9.143  10.406  11.627
 1532SOL     OW 6428  13.147   8.891  12.884
 1532SOL    HW1 6429  13.161   8.819  12.945
 1532SOL    HW2 6430  13.233   8.931  12.873
 1533SOL     OW 6431   3.304  13.739   6.650
 1533SOL    HW1 6432   3.335  13.829   6.653
 1533SOL    HW2 6433   3.299  13.712   6.742
 1534SOL     OW 6434   8.320  14.391   5.783
 1534SOL    HW1 6435   8.360  14.426   5.703
 1534SOL    HW2 6436   8.241  14.347   5.754
 1535SOL     OW 6437   0.864   7.313  13.925
 1535SOL    HW1 6438   0.889   7.345  14.012
 1535SOL    HW2 6439   0.844   7.221  13.938
 1536SOL     OW 6440  11.350   9.740  11.795
 1536SOL    HW1 6441  11.405   9.815  11.773
 1536SOL    HW2 6442  11.392   9.699  11.870
 1537SOL     OW 6443   1.846  13.728  12.235
 1537SOL    HW1 6444   1.912  13.706  12.169
 1537SOL    HW2 6445   1.842  13.824  12.233
 1538SOL     OW 6446   3.326   8.567   4.827
 1538SOL    HW1 6447   3.361   8.566   4.916
 1538SOL    HW2 6448   3.267   8.642   4.824
 1539SOL     OW 6449  11.006   0.337  10.355
 1539SOL    HW1 6450  11.054   0.370  10.431
 1539SOL    HW2 6451  10.916   0.366  10.369
 1540SOL     OW 6452   1.147  13.186   1.272
 1540SOL    HW1 6453   1.125  13.093   1.264
 1540SOL    HW2 6454   1.065  13.229   1.294
 1541SOL     OW 6455  13.571  10.747   7.959
 1541SOL    HW1 6456  13.625  10.758   8.036
 1541SOL    HW2 6457  13.507  10.679   7.983
 1542SOL     OW 6458   7.047  12.471   3.937
 1542SOL    HW1 6459   6.988  12.546   3.947
 1542SOL    HW2 6460   7.001  12.399   3.981
 1543SOL     OW 6461   1.625   6.911   3.189
 1543SOL    HW1 6462   1.573   6.883   3.114
 1543SOL    HW2 6463   1.639   6.831   3.240
 1544SOL     OW 6464  13.289   1.613   7.561
 1544SOL    HW1 6465  13.265   1.606   7.468
 1544SOL    HW2 6466  13.232   1.550   7.605
 1545SOL     OW 6467   8.416   5.970  10.596
 1545SOL    HW1 6468   8.412   6.046  10.538
 1545SOL    HW2 6469   8.334   5.923  10.581
 1546SOL     OW 6470   2.555  11.784  10.818
 1546SOL    HW1 6471   2.566  11.781  10.723
 1546SOL    HW2 6472   2.461  11.783  10.832
 1547SOL     OW 6473   0.478   4.236   7.588
 1547SOL    HW1 6474   0.510   4.172   7.652
 1547SOL    HW2 6475   0.556   4.282   7.559
 1548SOL     OW 6476   8.135   5.106  10.592
 1548SOL    HW1 6477   8.193   5.181  10.593
 1548SOL    HW2 6478   8.192   5.031  10.606
 1549SOL     OW 6479  11.302   4.687   9.286
 1549SOL    HW1 6480  11.243   4.693   9.211
 1549SOL    HW2 6481  11.329   4.778   9.303
 1550SOL     OW 6482   2.869   3.440   3.571
 1550SOL    HW1 6483   2.776   3.466   3.566
 1550SOL    HW2 6484   2.882   3.415   3.662
 1551SOL     OW 6485  11.293   5.632   3.968
 1551SOL    HW1 6486  11.359   5.690   3.931
 1551SOL    HW2 6487  11.233   5.615   3.895
 1552SOL     OW 6488   2.124   7.140  10.682
 1552SOL    HW1 6489   2.168   7.059  10.659
 1552SOL    HW2 6490   2.036   7.113  10.710
 1553SOL     OW 6491   2.557   2.801   4.142
 1553SOL    HW1 6492   2.635   2.761   4.105
 1553SOL    HW2 6493   2.492   2.794   4.072
 1554SOL     OW 6494  10.883  13.278   0.731
 1554SOL    HW1 6495  10.947  13.337   0.770
 1554SOL    HW2 6496  10.866  13.212   0.800
 1555SOL     OW 6497  10.702   8.600   7.119
 1555SOL    HW1 6498  10.709   8.692   7.146
 1555SOL    HW2 6499  10.669   8.604   7.029
 1556SOL     OW 6500   2.550   9.510   9.769
 1556SOL    HW1 6501   2.466   9.538   9.805
 1556SOL    HW2 6502   2.541   9.522   9.675
 1557SOL     OW 6503   1.779  11.105   9.830
 1557SOL    HW1 6504   1.842  11.156   9.881
 1557SOL    HW2 6505   1.832  11.038   9.787
 1558SOL     OW 6506   2.098   7.933   9.421
 1558SOL    HW1 6507   2.164   7.959   9.358
 1558SOL    HW2 6508   2.015   7.946   9.375
 1559SOL     OW 6509   7.847   2.763   9.968
 1559SOL    HW1 6510   7.808   2.759   9.880
 1559SOL    HW2 6511   7.776   2.795  10.024
 1560SOL     OW 6512  14.021  11.566   5.878
 1560SOL    HW1 6513  14.098  11.563   5.821
 1560SOL    HW2 6514  13.984  11.478   5.873
 1561SOL     OW 6515  14.406   2.633   7.419
 1561SOL    HW1 6516  14.501   2.621   7.430
 1561SOL    HW2 6517  14.376   2.549   7.384
 1562SOL     OW 6518  11.445  12.692   6.656
 1562SOL    HW1 6519  11.477  12.604   6.637
 1562SOL    HW2 6520  11.375  12.706   6.592
 1563SOL     OW 6521  14.683   7.666   8.411
 1563SOL    HW1 6522  14.753   7.683   8.348
 1563SOL    HW2 6523  14.637   7.749   8.418
 1564SOL     OW 6524   4.348   1.230  13.584
 1564SOL    HW1 6525   4.357   1.201  13.675
 1564SOL    HW2 6526   4.308   1.155  13.539
 1565SOL     OW 6527  12.648  14.335   6.382
 1565SOL    HW1 6528  12.697  14.269   6.334
 1565SOL    HW2 6529  12.566  14.346   6.334
 1566SOL     OW 6530   6.805   9.111  12.844
 1566SOL    HW1 6531   6.728   9.070  12.884
 1566SOL    HW2 6532   6.775   9.199  12.821
 1567SOL     OW 6533  12.248   1.951   9.133
 1567SOL    HW1 6534  12.235   1.857   9.148
 1567SOL    HW2 6535  12.189   1.973   9.061
 1568SOL     OW 6536   8.099   8.855   1.781
 1568SOL    HW1 6537   8.158   8.787   1.749
 1568SOL    HW2 6538   8.011   8.823   1.760
 1569SOL     OW 6539   5.558  12.006   7.906
 1569SOL    HW1 6540   5.505  12.065   7.960
 1569SOL    HW2 6541   5.535  12.031   7.816
 1570SOL     OW 6542   3.126   7.932  13.021
 1570SOL    HW1 6543   3.031   7.943  13.017
 1570SOL    HW2 6544   3.149   7.887  12.940
 1571SOL     OW 6545  12.119   2.449  12.180
 1571SOL    HW1 6546  12.055   2.519  12.171
 1571SOL    HW2 6547  12.088   2.381  12.119
 1572SOL     OW 6548   8.896  11.968   9.666
 1572SOL    HW1 6549   8.911  11.888   9.717
 1572SOL    HW2 6550   8.815  12.004   9.703
 1573SOL     OW 6551   3.014   4.343   8.891
 1573SOL    HW1 6552   3.037   4.363   8.800
 1573SOL    HW2 6553   3.057   4.260   8.909
 1574SOL     OW 6554   0.056   4.907  13.092
 1574SOL    HW1 6555   0.026   4.837  13.151
 1574SOL    HW2 6556   0.099   4.860  13.020
 1575SOL     OW 6557   8.274   1.259   0.544
 1575SOL    HW1 6558   8.217   1.229   0.615
 1575SOL    HW2 6559   8.216   1.273   0.470
 1576SOL     OW 6560  12.508   0.260  11.330
 1576SOL    HW1 6561  12.591   0.216  11.348
 1576SOL    HW2 6562  12.466   0.207  11.262
 1577SOL     OW 6563  12.229   8.724   0.240
 1577SOL    HW1 6564  12.204   8.682   0.323
 1577SOL    HW2 6565  12.325   8.723   0.241
 1578SOL     OW 6566   7.012   7.490   0.047
 1578SOL    HW1 6567   6.955   7.444  14.865
 1578SOL    HW2 6568   6.997   7.448   0.132
 1579SOL     OW 6569   0.326  14.221   5.906
 1579SOL    HW1 6570   0.327  14.264   5.821
 1579SOL    HW2 6571   0.411  14.177   5.912
 1580SOL     OW 6572  14.111   0.100   6.360
 1580SOL    HW1 6573  14.125   0.194   6.349
 1580SOL    HW2 6574  14.164   0.059   6.291
 1581SOL     OW 6575   2.096   1.593   9.154
 1581SOL    HW1 6576   2.140   1.674   9.178
 1581SOL    HW2 6577   2.008   1.620   9.129
 1582SOL     OW 6578  12.708  14.571   7.575
 1582SOL    HW1 6579  12.623  14.614   7.574
 1582SOL    HW2 6580  12.747  14.595   7.659
 1583SOL     OW 6581   8.888   2.533   8.400
 1583SOL    HW1 6582   8.845   2.449   8.390
 1583SOL    HW2 6583   8.936   2.526   8.483
 1584SOL     OW 6584   8.599  14.301   2.451
 1584SOL    HW1 6585   8.512  14.264   2.434
 1584SOL    HW2 6586   8.656  14.259   2.387
 1585SOL     OW 6587   3.297  11.587  14.296
 1585SOL    HW1 6588   3.312  11.630  14.381
 1585SOL    HW2 6589   3.232  11.642  14.253
 1586SOL     OW 6590  14.707   7.988   0.431
 1586SOL    HW1 6591  14.793   7.997   0.472
 1586SOL    HW2 6592  14.649   8.038   0.488
 1587SOL     OW 6593   3.626  10.705   8.110
 1587SOL    HW1 6594   3.602  10.761   8.184
 1587SOL    HW2 6595   3.590  10.750   8.033
 1588SOL     OW 6596  13.946   7.606   6.522
 1588SOL    HW1 6597  13.994   7.671   6.471
 1588SOL    HW2 6598  13.866   7.650   6.549
 1589SOL     OW 6599  10.748   8.331   8.151
 1589SOL    HW1 6600  10.730   8.254   8.097
 1589SOL    HW2 6601  10.805   8.299   8.221
 1590SOL     OW 6602  13.750  13.922   5.086
 1590SOL    HW1 6603  13.728  13.841   5.040
 1590SOL    HW2 6604  13.839  13.909   5.117
 1591SOL     OW 6605  11.781  11.598  13.316
 1591SOL    HW1 6606  11.791  11.624  13.224
 1591SOL    HW2 6607  11.871  11.578  13.345
 1592SOL     OW 6608  12.189  10.099   8.399
 1592SOL    HW1 6609  12.226  10.130   8.317
 1592SOL    HW2 6610  12.144  10.174   8.436
 1593SOL     OW 6611  11.045  14.401   5.718
 1593SOL    HW1 6612  11.036  14.354   5.635
 1593SOL    HW2 6613  11.116  14.356   5.764
 1594SOL     OW 6614  10.710   0.222  10.219
 1594SOL    HW1 6615  10.707   0.282  10.294
 1594SOL    HW2 6616  10.672   0.272  10.147
 1595SOL     OW 6617   8.567  14.797   1.699
 1595SOL    HW1 6618   8.642  14.815   1.756
 1595SOL    HW2 6619   8.515  14.734   1.748
 1596SOL     OW 6620  13.805   6.597   4.876
 1596SOL    HW1 6621  13.774   6.610   4.966
 1596SOL    HW2 6622  13.884   6.544   4.884
 1597SOL     OW 6623   4.629  12.743   8.456
 1597SOL    HW1 6624   4.709  12.710   8.414
 1597SOL    HW2 6625   4.601  12.671   8.513
 1598SOL     OW 6626  11.044  13.480   0.822
 1598SOL    HW1 6627  10.987  13.557   0.825
 1598SOL    HW2 6628  11.131  13.514   0.845
 1599SOL     OW 6629  10.355  11.698   7.828
 1599SOL    HW1 6630  10.262  11.677   7.825
 1599SOL    HW2 6631  10.399  11.615   7.808
 1600SOL     OW 6632  12.435  11.391   9.387
 1600SOL    HW1 6633  12.389  11.319   9.430
 1600SOL    HW2 6634  12.470  11.443   9.459
 1601SOL     OW 6635  12.387   4.514   3.108
 1601SOL    HW1 6636  12.395   4.444   3.172
 1601SOL    HW2 6637  12.433   4.480   3.031
 1602SOL     OW 6638  12.820   4.272   7.856
 1602SOL    HW1 6639  12.824   4.247   7.949
 1602SOL    HW2 6640  12.740   4.324   7.849
 1603SOL     OW 6641   7.600   7.092   9.043
 1603SOL    HW1 6642   7.533   7.067   9.107
 1603SOL    HW2 6643   7.596   7.025   8.975
 1604SOL     OW 6644   1.961   7.116   9.904
 1604SOL    HW1 6645   1.988   7.170   9.829
 1604SOL    HW2 6646   2.022   7.139   9.973
 1605SOL     OW 6647   0.628   4.612   1.779
 1605SOL    HW1 6648   0.565   4.684   1.771
 1605SOL    HW2 6649   0.713   4.654   1.766
 1606SOL     OW 6650   4.767   2.844  11.296
 1606SOL    HW1 6651   4.748   2.764  11.345
 1606SOL    HW2 6652   4.724   2.913  11.348
 1607SOL     OW 6653   0.230  11.504   7.430
 1607SOL    HW1 6654   0.320  11.473   7.422
 1607SOL    HW2 6655   0.237  11.599   7.435
 1608SOL     OW 6656  11.357   5.109   9.591
 1608SOL    HW1 6657  11.409   5.186   9.615
 1608SOL    HW2 6658  11.303   5.091   9.668
 1609SOL     OW 6659  13.505   2.397   9.449
 1609SOL    HW1 6660  13.495   2.429   9.539
 1609SOL    HW2 6661  13.469   2.467   9.394
 1610SOL     OW 6662  12.862   1.928   8.528
 1610SOL    HW1 6663  12.781   1.879   8.528
 1610SOL    HW2 6664  12.840   2.012   8.569
 1611SOL     OW 6665  10.562  11.063  10.938
 1611SOL    HW1 6666  10.593  11.144  10.978
 1611SOL    HW2 6667  10.468  11.077  10.924
 1612SOL     OW 6668   1.079   3.045   2.608
 1612SOL    HW1 6669   0.996   3.007   2.577
 1612SOL    HW2 6670   1.077   3.033   2.703
 1613SOL     OW 6671   4.084   0.436   6.708
 1613SOL    HW1 6672   4.102   0.518   6.662
 1613SOL    HW2 6673   4.071   0.372   6.639
 1614SOL     OW 6674   0.400   6.462  12.744
 1614SOL    HW1 6675   0.430   6.383  12.699
 1614SOL    HW2 6676   0.393   6.437  12.836
 1615SOL     OW 6677   9.960   7.689   7.904
 1615SOL    HW1 6678  10.040   7.657   7.946
 1615SOL    HW2 6679   9.911   7.610   7.881
 1616SOL     OW 6680   3.772  10.109  13.895
 1616SOL    HW1 6681   3.855  10.090  13.939
 1616SOL    HW2 6682   3.797  10.163  13.820
 1617SOL     OW 6683   3.970   6.445   3.366
 1617SOL    HW1 6684   3.894   6.394   3.392
 1617SOL    HW2 6685   3.982   6.508   3.437
 1618SOL     OW 6686  13.834  12.102   6.571
 1618SOL    HW1 6687  13.783  12.030   6.535
 1618SOL    HW2 6688  13.823  12.173   6.507
 1619SOL     OW 6689  12.681   1.405   0.988
 1619SOL    HW1 6690  12.678   1.479   0.927
 1619SOL    HW2 6691  12.592   1.369   0.987
 1620SOL     OW 6692   0.221   3.942   2.003
 1620SOL    HW1 6693   0.195   3.907   1.918
 1620SOL    HW2 6694   0.248   4.032   1.984
 1621SOL     OW 6695   7.285  13.659   4.600
 1621SOL    HW1 6696   7.272  13.746   4.638
 1621SOL    HW2 6697   7.256  13.669   4.509
 1622SOL     OW 6698   7.925   8.886   5.885
 1622SOL    HW1 6699   7.865   8.886   5.959
 1622SOL    HW2 6700   7.880   8.938   5.818
 1623SOL     OW 6701  14.038   1.363  14.452
 1623SOL    HW1 6702  14.042   1.270  14.434
 1623SOL    HW2 6703  13.948   1.379  14.482
 1624SOL     OW 6704   0.588   2.321   4.437
 1624SOL    HW1 6705   0.589   2.413   4.465
 1624SOL    HW2 6706   0.550   2.324   4.349
 1625SOL     OW 6707   7.349  13.838   9.214
 1625SOL    HW1 6708   7.338  13.902   9.143
 1625SOL    HW2 6709   7.387  13.889   9.286
 1626SOL     OW 6710   5.041   6.536  11.296
 1626SOL    HW1 6711   5.127   6.538  11.254
 1626SOL    HW2 6712   5.056   6.572  11.383
 1627SOL     OW 6713   2.691   0.575   6.991
 1627SOL    HW1 6714   2.783   0.576   7.019
 1627SOL    HW2 6715   2.653   0.501   7.038
 1628SOL     OW 6716   6.869   3.075  12.670
 1628SOL    HW1 6717   6.786   3.028  12.665
 1628SOL    HW2 6718   6.891   3.096  12.579
 1629SOL     OW 6719   6.531   8.791   2.663
 1629SOL    HW1 6720   6.475   8.723   2.627
 1629SOL    HW2 6721   6.525   8.781   2.758
 1630SOL     OW 6722  10.391   5.965  11.835
 1630SOL    HW1 6723  10.384   5.871  11.823
 1630SOL    HW2 6724  10.368   5.979  11.927
 1631SOL     OW 6725   4.176   5.489  11.782
 1631SOL    HW1 6726   4.112   5.493  11.710
 1631SOL    HW2 6727   4.155   5.564  11.837
 1632SOL     OW 6728   3.087  12.319   3.632
 1632SOL    HW1 6729   3.121  12.386   3.573
 1632SOL    HW2 6730   3.145  12.244   3.620
 1633SOL     OW 6731  14.843  11.387  11.541
 1633SOL    HW1 6732  14.812  11.459  11.597
 1633SOL    HW2 6733   0.020  11.335  11.598
 1634SOL     OW 6734  12.756   7.651   4.027
 1634SOL    HW1 6735  12.724   7.588   3.963
 1634SOL    HW2 6736  12.784   7.598   4.102
 1635SOL     OW 6737   6.317   4.085   5.081
 1635SOL    HW1 6738   6.321   4.008   5.024
 1635SOL    HW2 6739   6.263   4.148   5.032
 1636SOL     OW 6740  13.325  14.753  13.272
 1636SOL    HW1 6741  13.350  14.835  13.316
 1636SOL    HW2 6742  13.286  14.699  13.340
 1637SOL     OW 6743  14.020   4.606   6.567
 1637SOL    HW1 6744  14.045   4.550   6.641
 1637SOL    HW2 6745  14.102   4.631   6.526
 1638SOL     OW 6746  10.130  13.241   2.811
 1638SOL    HW1 6747  10.161  13.330   2.796
 1638SOL    HW2 6748  10.180  13.210   2.886
 1639SOL     OW 6749   3.540   2.433   2.143
 1639SOL    HW1 6750   3.514   2.485   2.219
 1639SOL    HW2 6751   3.546   2.344   2.176
 1640SOL     OW 6752  11.673   5.865   6.829
 1640SOL    HW1 6753  11.755   5.891   6.787
 1640SOL    HW2 6754  11.628   5.812   6.763
 1641SOL     OW 6755   6.620   0.187   8.747
 1641SOL    HW1 6756   6.639   0.229   8.831
 1641SOL    HW2 6757   6.551   0.241   8.709
 1642SOL     OW 6758  11.018   0.120   6.726
 1642SOL    HW1 6759  11.053   0.118   6.637
 1642SOL    HW2 6760  11.017   0.028   6.753
 1643SOL     OW 6761   8.663   0.498   2.446
 1643SOL    HW1 6762   8.640   0.472   2.357
 1643SOL    HW2 6763   8.758   0.488   2.451
 1644SOL     OW 6764  11.881   3.861   7.738
 1644SOL    HW1 6765  11.792   3.863   7.774
 1644SOL    HW2 6766  11.930   3.806   7.800
 1645SOL     OW 6767  12.189   2.857   7.597
 1645SOL    HW1 6768  12.281   2.870   7.619
 1645SOL    HW2 6769  12.155   2.802   7.668
 1646SOL     OW 6770   4.594   1.135   2.943
 1646SOL    HW1 6771   4.513   1.093   2.974
 1646SOL    HW2 6772   4.573   1.228   2.941
 1647SOL     OW 6773   1.740  14.194   7.974
 1647SOL    HW1 6774   1.810  14.236   7.923
 1647SOL    HW2 6775   1.740  14.103   7.945
 1648SOL     OW 6776   5.060   4.961   5.729
 1648SOL    HW1 6777   4.994   4.895   5.706
 1648SOL    HW2 6778   5.012   5.024   5.782
 1649SOL     OW 6779  11.882   0.477   8.994
 1649SOL    HW1 6780  11.810   0.520   9.041
 1649SOL    HW2 6781  11.902   0.399   9.045
 1650SOL     OW 6782   0.134  14.853   5.858
 1650SOL    HW1 6783   0.093  14.773   5.825
 1650SOL    HW2 6784   0.102   0.043   5.800
 1651SOL     OW 6785  13.926   2.282  13.241
 1651SOL    HW1 6786  14.010   2.242  13.265
 1651SOL    HW2 6787  13.936   2.374  13.265
 1652SOL     OW 6788   5.131   2.470   7.023
 1652SOL    HW1 6789   5.208   2.413   7.022
 1652SOL    HW2 6790   5.148   2.535   6.955
 1653SOL     OW 6791   1.039   7.499   3.224
 1653SOL    HW1 6792   1.052   7.482   3.131
 1653SOL    HW2 6793   1.012   7.414   3.260
 1654SOL     OW 6794   5.111   9.669   2.853
 1654SOL    HW1 6795   5.193   9.682   2.901
 1654SOL    HW2 6796   5.059   9.748   2.872
 1655SOL     OW 6797   1.038  13.106   6.988
 1655SOL    HW1 6798   1.059  13.151   7.070
 1655SOL    HW2 6799   0.960  13.151   6.956
 1656SOL     OW 6800   3.101   9.587   0.784
 1656SOL    HW1 6801   3.153   9.523   0.734
 1656SOL    HW2 6802   3.125   9.571   0.875
 1657SOL     OW 6803  11.998   5.820   5.371
 1657SOL    HW1 6804  12.066   5.753   5.362
 1657SOL    HW2 6805  11.919   5.780   5.333
 1658SOL     OW 6806   6.134   0.043   9.476
 1658SOL    HW1 6807   6.050   0.087   9.491
 1658SOL    HW2 6808   6.192   0.113   9.445
 1659SOL     OW 6809   2.899  12.146   9.433
 1659SOL    HW1 6810   2.887  12.197   9.353
 1659SOL    HW2 6811   2.812  12.141   9.472
 1660SOL     OW 6812   0.117  13.686   9.702
 1660SOL    HW1 6813   0.195  13.708   9.753
 1660SOL    HW2 6814   0.152  13.654   9.619
 1661SOL     OW 6815   1.377   4.046   2.342
 1661SOL    HW1 6816   1.473   4.048   2.334
 1661SOL    HW2 6817   1.348   4.131   2.309
 1662SOL     OW 6818  11.009  10.747  13.047
 1662SOL    HW1 6819  11.098  10.744  13.013
 1662SOL    HW2 6820  10.961  10.800  12.983
 1663SOL     OW 6821   2.296   5.164   4.104
 1663SOL    HW1 6822   2.288   5.152   4.198
 1663SOL    HW2 6823   2.208   5.191   4.076
 1664SOL     OW 6824  12.571   7.953   3.773
 1664SOL    HW1 6825  12.479   7.929   3.780
 1664SOL    HW2 6826  12.571   8.047   3.755
 1665SOL     OW 6827   6.704   2.427   0.748
 1665SOL    HW1 6828   6.740   2.363   0.809
 1665SOL    HW2 6829   6.609   2.413   0.753
 1666SOL     OW 6830  12.866   2.647  11.466
 1666SOL    HW1 6831  12.862   2.589  11.543
 1666SOL    HW2 6832  12.896   2.590  11.395
 1667SOL     OW 6833   3.726   0.611   3.225
 1667SOL    HW1 6834   3.677   0.610   3.307
 1667SOL    HW2 6835   3.807   0.565   3.244
 1668SOL     OW 6836  12.792   2.780   9.362
 1668SOL    HW1 6837  12.822   2.838   9.431
 1668SOL    HW2 6838  12.856   2.708   9.361
 1669SOL     OW 6839   0.264   8.822   4.747
 1669SOL    HW1 6840   0.258   8.818   4.652
 1669SOL    HW2 6841   0.297   8.735   4.772
 1670SOL     OW 6842   1.558   9.807  10.996
 1670SOL    HW1 6843   1.638   9.759  11.020
 1670SOL    HW2 6844   1.492   9.774  11.057
 1671SOL     OW 6845   2.288  10.208  10.497
 1671SOL    HW1 6846   2.274  10.245  10.584
 1671SOL    HW2 6847   2.252  10.120  10.502
 1672SOL     OW 6848  13.894   2.898  12.564
 1672SOL    HW1 6849  13.989   2.900  12.561
 1672SOL    HW2 6850  13.869   2.834  12.497
 1673SOL     OW 6851  12.804   9.231   5.745
 1673SOL    HW1 6852  12.762   9.147   5.763
 1673SOL    HW2 6853  12.821   9.231   5.651
 1674SOL     OW 6854   2.563   4.817   7.513
 1674SOL    HW1 6855   2.569   4.860   7.427
 1674SOL    HW2 6856   2.603   4.879   7.574
 1675SOL     OW 6857   4.561   4.008  14.658
 1675SOL    HW1 6858   4.489   4.061  14.623
 1675SOL    HW2 6859   4.627   4.072  14.686
 1676SOL     OW 6860  11.908   3.120   8.187
 1676SOL    HW1 6861  11.897   3.084   8.099
 1676SOL    HW2 6862  12.003   3.132   8.195
 1677SOL     OW 6863   6.405   2.472  12.089
 1677SOL    HW1 6864   6.479   2.479  12.149
 1677SOL    HW2 6865   6.424   2.393  12.037
 1678SOL     OW 6866  10.921  10.965  11.388
 1678SOL    HW1 6867  10.854  10.945  11.322
 1678SOL    HW2 6868  10.884  11.038  11.438
 1679SOL     OW 6869   0.301  14.338   3.938
 1679SOL    HW1 6870   0.308  14.243   3.923
 1679SOL    HW2 6871   0.392  14.367   3.947
 1680SOL     OW 6872  12.066  14.626  11.601
 1680SOL    HW1 6873  12.159  14.617  11.620
 1680SOL    HW2 6874  12.062  14.687  11.527
 1681SOL     OW 6875   8.775   4.347   5.889
 1681SOL    HW1 6876   8.817   4.431   5.872
 1681SOL    HW2 6877   8.731   4.325   5.807
 1682SOL     OW 6878  14.163  14.621  10.380
 1682SOL    HW1 6879  14.144  14.623  10.474
 1682SOL    HW2 6880  14.192  14.531  10.363
 1683SOL     OW 6881   8.502   7.761  10.556
 1683SOL    HW1 6882   8.489   7.667  10.569
 1683SOL    HW2 6883   8.467   7.801  10.635
 1684SOL     OW 6884   4.142   1.390   1.423
 1684SOL    HW1 6885   4.104   1.353   1.502
 1684SOL    HW2 6886   4.084   1.462   1.399
 1685SOL     OW 6887   3.874   5.562   9.431
 1685SOL    HW1 6888   3.789   5.597   9.460
 1685SOL    HW2 6889   3.853   5.475   9.399
 1686SOL     OW 6890   6.797   9.989   8.843
 1686SOL    HW1 6891   6.813   9.923   8.911
 1686SOL    HW2 6892   6.867   9.977   8.780
 1687SOL     OW 6893  10.218   9.848   7.337
 1687SOL    HW1 6894  10.151   9.800   7.385
 1687SOL    HW2 6895  10.220   9.806   7.251
 1688SOL     OW 6896  10.917  12.420   2.033
 1688SOL    HW1 6897  10.821  12.414   2.038
 1688SOL    HW2 6898  10.949  12.357   2.097
 1689SOL     OW 6899   9.619  12.373   2.467
 1689SOL    HW1 6900   9.558  12.301   2.486
 1689SOL    HW2 6901   9.645  12.359   2.375
 1690SOL     OW 6902  12.965   9.920  11.254
 1690SOL    HW1 6903  12.975   9.829  11.283
 1690SOL    HW2 6904  13.051   9.944  11.222
 1691SOL     OW 6905   8.755   3.955  10.074
 1691SOL    HW1 6906   8.769   3.924  10.163
 1691SOL    HW2 6907   8.724   4.045  10.084
 1692SOL     OW 6908   2.998   2.278   2.280
 1692SOL    HW1 6909   2.976   2.351   2.223
 1692SOL    HW2 6910   3.008   2.203   2.221
 1693SOL     OW 6911  10.585   0.672   7.511
 1693SOL    HW1 6912  10.564   0.630   7.428
 1693SOL    HW2 6913  10.673   0.709   7.498
 1694SOL     OW 6914   2.495   1.306   6.563
 1694SOL    HW1 6915   2.554   1.231   6.574
 1694SOL    HW2 6916   2.413   1.268   6.533
 1695SOL     OW 6917   4.877   5.526   1.711
 1695SOL    HW1 6918   4.784   5.545   1.699
 1695SOL    HW2 6919   4.922   5.603   1.675
 1696SOL     OW 6920   5.588  12.679  10.861
 1696SOL    HW1 6921   5.615  12.742  10.928
 1696SOL    HW2 6922   5.663  12.621  10.851
 1697SOL     OW 6923   2.838  10.656   7.194
 1697SOL    HW1 6924   2.806  10.619   7.277
 1697SOL    HW2 6925   2.922  10.614   7.180
 1698SOL     OW 6926   6.184  12.044  13.752
 1698SOL    HW1 6927   6.131  12.108  13.704
 1698SOL    HW2 6928   6.120  11.980  13.784
 1699SOL     OW 6929  14.657   2.733  12.243
 1699SOL    HW1 6930  14.577   2.762  12.288
 1699SOL    HW2 6931  14.626   2.687  12.165
 1700SOL     OW 6932   2.621  11.960  11.318
 1700SOL    HW1 6933   2.532  11.925  11.316
 1700SOL    HW2 6934   2.677  11.884  11.304
 1701SOL     OW 6935   2.331   8.883   4.639
 1701SOL    HW1 6936   2.246   8.897   4.680
 1701SOL    HW2 6937   2.352   8.966   4.598
 1702SOL     OW 6938  12.907   1.311  12.468
 1702SOL    HW1 6939  12.832   1.275  12.515
 1702SOL    HW2 6940  12.871   1.382  12.416
 1703SOL     OW 6941   1.012  10.113   2.159
 1703SOL    HW1 6942   1.057  10.032   2.183
 1703SOL    HW2 6943   1.016  10.167   2.238
 1704SOL     OW 6944   2.558   5.820  10.589
 1704SOL    HW1 6945   2.632   5.873  10.557
 1704SOL    HW2 6946   2.596   5.734  10.604
 1705SOL     OW 6947  12.575   2.162   4.757
 1705SOL    HW1 6948  12.640   2.151   4.826
 1705SOL    HW2 6949  12.494   2.184   4.803
 1706SOL     OW 6950  11.481  14.155   8.489
 1706SOL    HW1 6951  11.472  14.183   8.580
 1706SOL    HW2 6952  11.575  14.141   8.478
 1707SOL     OW 6953   2.963   7.364  14.525
 1707SOL    HW1 6954   2.951   7.291  14.464
 1707SOL    HW2 6955   3.052   7.395  14.507
 1708SOL     OW 6956   9.590   5.103  11.623
 1708SOL    HW1 6957   9.518   5.050  11.657
 1708SOL    HW2 6958   9.663   5.041  11.615
 1709SOL     OW 6959   7.010  12.904   6.034
 1709SOL    HW1 6960   7.020  12.838   6.103
 1709SOL    HW2 6961   6.943  12.868   5.976
 1710SOL     OW 6962  11.408   3.005   2.437
 1710SOL    HW1 6963  11.422   2.973   2.526
 1710SOL    HW2 6964  11.314   2.993   2.422
 1711SOL     OW 6965  12.006   0.348  12.815
 1711SOL    HW1 6966  12.075   0.410  12.838
 1711SOL    HW2 6967  12.042   0.297  12.742
 1712SOL     OW 6968   3.695   9.641   0.867
 1712SOL    HW1 6969   3.786   9.667   0.880
 1712SOL    HW2 6970   3.700   9.552   0.834
 1713SOL     OW 6971   2.440  13.156   0.752
 1713SOL    HW1 6972   2.475  13.068   0.739
 1713SOL    HW2 6973   2.460  13.178   0.843
 1714SOL     OW 6974   5.981  10.682   0.291
 1714SOL    HW1 6975   5.908  10.634   0.329
 1714SOL    HW2 6976   6.048  10.682   0.359
 1715SOL     OW 6977  11.233   7.392   5.922
 1715SOL    HW1 6978  11.264   7.425   5.838
 1715SOL    HW2 6979  11.195   7.307   5.902
 1716SOL     OW 6980   1.959   0.760  14.524
 1716SOL    HW1 6981   1.989   0.735  14.612
 1716SOL    HW2 6982   1.999   0.845  14.508
 1717SOL     OW 6983  12.050   9.537  13.076
 1717SOL    HW1 6984  12.097   9.527  13.159
 1717SOL    HW2 6985  11.966   9.493  13.090
 1718SOL     OW 6986   6.938  10.808   7.315
 1718SOL    HW1 6987   6.949  10.741   7.248
 1718SOL    HW2 6988   7.027  10.826   7.346
 1719SOL     OW 6989   2.451   4.415   1.117
 1719SOL    HW1 6990   2.515   4.389   1.183
 1719SOL    HW2 6991   2.499   4.412   1.034
 1720SOL     OW 6992  13.040   2.499  13.504
 1720SOL    HW1 6993  13.064   2.582  13.462
 1720SOL    HW2 6994  13.108   2.438  13.476
 1721SOL     OW 6995  14.681   8.622   9.769
 1721SOL    HW1 6996  14.683   8.591   9.860
 1721SOL    HW2 6997  14.661   8.544   9.717
 1722SOL     OW 6998  10.342   1.439   0.262
 1722SOL    HW1 6999  10.256   1.443   0.303
 1722SOL    HW2 7000  10.404   1.431   0.334
 1723SOL     OW 7001  12.888   2.393   1.951
 1723SOL    HW1 7002  12.795   2.383   1.932
 1723SOL    HW2 7003  12.895   2.375   2.045
 1724SOL     OW 7004   9.713   8.832   6.327
 1724SOL    HW1 7005   9.746   8.760   6.273
 1724SOL    HW2 7006   9.776   8.840   6.399
 1725SOL     OW 7007   4.525   4.117  12.871
 1725SOL    HW1 7008   4.547   4.028  12.843
 1725SOL    HW2 7009   4.580   4.173  12.816
 1726SOL     OW 7010   4.924   2.504   2.247
 1726SOL    HW1 7011   4.866   2.437   2.210
 1726SOL    HW2 7012   4.935   2.478   2.339
 1727SOL     OW 7013   3.065  14.223   6.049
 1727SOL    HW1 7014   3.146  14.240   6.098
 1727SOL    HW2 7015   3.013  14.302   6.061
 1728SOL     OW 7016  13.045   0.547   1.084
 1728SOL    HW1 7017  13.029   0.641   1.078
 1728SOL    HW2 7018  13.089   0.525   1.002
 1729SOL     OW 7019   4.525  13.850   1.200
 1729SOL    HW1 7020   4.553  13.820   1.287
 1729SOL    HW2 7021   4.603  13.890   1.162
 1730SOL     OW 7022  13.806   5.148   2.027
 1730SOL    HW1 7023  13.884   5.157   2.083
 1730SOL    HW2 7024  13.741   5.105   2.082
 1731SOL     OW 7025   5.561  10.267   2.698
 1731SOL    HW1 7026   5.477  10.271   2.744
 1731SOL    HW2 7027   5.567  10.350   2.651
 1732SOL     OW 7028   5.243   5.881   4.541
 1732SOL    HW1 7029   5.257   5.852   4.631
 1732SOL    HW2 7030   5.256   5.803   4.488
 1733SOL     OW 7031  14.575   6.820  10.085
 1733SOL    HW1 7032  14.629   6.860  10.017
 1733SOL    HW2 7033  14.613   6.849  10.168
 1734SOL     OW 7034   5.075   1.759   4.785
 1734SOL    HW1 7035   5.031   1.754   4.870
 1734SOL    HW2 7036   5.004   1.749   4.721
 1735SOL     OW 7037   2.897   5.174   6.007
 1735SOL    HW1 7038   2.988   5.151   6.025
 1735SOL    HW2 7039   2.899   5.216   5.921
 1736SOL     OW 7040   6.334   2.081  14.632
 1736SOL    HW1 7041   6.368   2.047  14.715
 1736SOL    HW2 7042   6.305   2.004  14.584
 1737SOL     OW 7043   2.411   6.656  14.384
 1737SOL    HW1 7044   2.400   6.640  14.478
 1737SOL    HW2 7045   2.415   6.751  14.376
 1738SOL     OW 7046   2.788  12.009   7.871
 1738SOL    HW1 7047   2.830  11.954   7.805
 1738SOL    HW2 7048   2.861  12.051   7.917
 1739SOL     OW 7049   6.466   3.152  12.027
 1739SOL    HW1 7050   6.472   3.222  11.962
 1739SOL    HW2 7051   6.503   3.190  12.107
 1740SOL     OW 7052   9.126   4.300   2.116
 1740SOL    HW1 7053   9.032   4.299   2.097
 1740SOL    HW2 7054   9.168   4.283   2.032
 1741SOL     OW 7055   1.148   1.979   1.050
 1741SOL    HW1 7056   1.226   1.945   1.094
 1741SOL    HW2 7057   1.178   1.998   0.961
 1742SOL     OW 7058  13.567   0.675  11.986
 1742SOL    HW1 7059  13.517   0.695  12.065
 1742SOL    HW2 7060  13.538   0.587  11.960
 1743SOL     OW 7061   2.523   9.135  12.374
 1743SOL    HW1 7062   2.580   9.090  12.312
 1743SOL    HW2 7063   2.460   9.068  12.401
 1744SOL     OW 7064   2.469   7.726   7.726
 1744SOL    HW1 7065   2.388   7.735   7.676
 1744SOL    HW2 7066   2.492   7.815   7.752
 1745SOL     OW 7067  11.487  12.157   2.961
 1745SOL    HW1 7068  11.412  12.118   2.916
 1745SOL    HW2 7069  11.449  12.212   3.029
 1746SOL     OW 7070   3.808   2.345   0.430
 1746SOL    HW1 7071   3.891   2.299   0.439
 1746SOL    HW2 7072   3.814   2.419   0.490
 1747SOL     OW 7073   3.507  14.369   7.966
 1747SOL    HW1 7074   3.504  14.347   8.059
 1747SOL    HW2 7075   3.599  14.388   7.948
 1748SOL     OW 7076   4.884   1.915  11.974
 1748SOL    HW1 7077   4.836   1.971  12.035
 1748SOL    HW2 7078   4.975   1.919  12.005
 1749SOL     OW 7079   4.023   1.022   9.034
 1749SOL    HW1 7080   3.973   1.056   8.959
 1749SOL    HW2 7081   3.966   0.956   9.072
 1750SOL     OW 7082  11.531   1.760   8.570
 1750SOL    HW1 7083  11.511   1.666   8.567
 1750SOL    HW2 7084  11.513   1.785   8.661
 1751SOL     OW 7085   7.336   6.266   3.608
 1751SOL    HW1 7086   7.314   6.242   3.698
 1751SOL    HW2 7087   7.262   6.321   3.579
 1752SOL     OW 7088   2.611   9.512  12.870
 1752SOL    HW1 7089   2.538   9.501  12.931
 1752SOL    HW2 7090   2.615   9.606  12.854
 1753SOL     OW 7091   4.306   4.369  13.876
 1753SOL    HW1 7092   4.227   4.348  13.925
 1753SOL    HW2 7093   4.316   4.464  13.885
 1754SOL     OW 7094   4.763   9.386   2.295
 1754SOL    HW1 7095   4.728   9.409   2.382
 1754SOL    HW2 7096   4.824   9.315   2.312
 1755SOL     OW 7097  13.728   6.878  11.117
 1755SOL    HW1 7098  13.657   6.860  11.178
 1755SOL    HW2 7099  13.690   6.939  11.053
 1756SOL     OW 7100   0.207   7.860   3.210
 1756SOL    HW1 7101   0.227   7.771   3.182
 1756SOL    HW2 7102   0.177   7.904   3.130
 1757SOL     OW 7103   2.060   3.327  11.992
 1757SOL    HW1 7104   2.096   3.409  12.025
 1757SOL    HW2 7105   2.108   3.310  11.911
 1758SOL     OW 7106  10.212  11.489  10.720
 1758SOL    HW1 7107  10.264  11.409  10.728
 1758SOL    HW2 7108  10.246  11.531  10.640
 1759SOL     OW 7109   8.059   0.932  13.536
 1759SOL    HW1 7110   8.141   0.975  13.511
 1759SOL    HW2 7111   7.993   1.000  13.530
 1760SOL     OW 7112   1.900   1.780   6.696
 1760SOL    HW1 7113   1.834   1.825   6.644
 1760SOL    HW2 7114   1.886   1.811   6.786
 1761SOL     OW 7115  14.076  11.388   8.742
 1761SOL    HW1 7116  14.152  11.440   8.768
 1761SOL    HW2 7117  14.065  11.406   8.649
 1762SOL     OW 7118   5.579   3.226  14.153
 1762SOL    HW1 7119   5.600   3.137  14.180
 1762SOL    HW2 7120   5.492   3.221  14.115
 1763SOL     OW 7121  12.514  13.056  10.959
 1763SOL    HW1 7122  12.592  13.033  11.009
 1763SOL    HW2 7123  12.519  13.004  10.880
 1764SOL     OW 7124  13.233   6.953  11.338
 1764SOL    HW1 7125  13.142   6.926  11.353
 1764SOL    HW2 7126  13.281   6.920  11.414
 1765SOL     OW 7127   2.338   4.865   9.059
 1765SOL    HW1 7128   2.264   4.814   9.092
 1765SOL    HW2 7129   2.317   4.955   9.082
 1766SOL     OW 7130   4.211   1.734   8.465
 1766SOL    HW1 7131   4.170   1.820   8.477
 1766SOL    HW2 7132   4.303   1.754   8.447
 1767SOL     OW 7133   3.732  11.849   3.430
 1767SOL    HW1 7134   3.695  11.817   3.348
 1767SOL    HW2 7135   3.825  11.823   3.425
 1768SOL     OW 7136   2.578   6.039   2.697
 1768SOL    HW1 7137   2.558   5.979   2.769
 1768SOL    HW2 7138   2.514   6.017   2.630
 1769SOL     OW 7139  11.722   3.040   5.553
 1769SOL    HW1 7140  11.712   3.067   5.462
 1769SOL    HW2 7141  11.781   3.106   5.591
 1770SOL     OW 7142   0.342  10.280   0.587
 1770SOL    HW1 7143   0.253  10.287   0.622
 1770SOL    HW2 7144   0.341  10.200   0.534
 1771SOL     OW 7145   4.237  14.051   9.710
 1771SOL    HW1 7146   4.284  13.971   9.687
 1771SOL    HW2 7147   4.305  14.113   9.736
 1772SOL     OW 7148   1.576   7.413   3.628
 1772SOL    HW1 7149   1.508   7.480   3.634
 1772SOL    HW2 7150   1.658   7.463   3.631
 1773SOL     OW 7151   6.497   3.781   1.209
 1773SOL    HW1 7152   6.422   3.743   1.165
 1773SOL    HW2 7153   6.471   3.870   1.230
 1774SOL     OW 7154   9.641  12.903   9.844
 1774SOL    HW1 7155   9.723  12.935   9.880
 1774SOL    HW2 7156   9.631  12.950   9.761
 1775SOL     OW 7157  11.019  10.738  13.686
 1775SOL    HW1 7158  10.932  10.718  13.652
 1775SOL    HW2 7159  11.054  10.653  13.714
 1776SOL     OW 7160   0.381  10.280   4.467
 1776SOL    HW1 7161   0.361  10.233   4.387
 1776SOL    HW2 7162   0.363  10.218   4.537
 1777SOL     OW 7163   5.949  11.455   4.638
 1777SOL    HW1 7164   6.029  11.496   4.671
 1777SOL    HW2 7165   5.979  11.379   4.589
 1778SOL     OW 7166  14.315  13.834   1.850
 1778SOL    HW1 7167  14.371  13.832   1.773
 1778SOL    HW2 7168  14.267  13.751   1.847
 1779SOL     OW 7169  14.552   2.481  14.085
 1779SOL    HW1 7170  14.614   2.536  14.133
 1779SOL    HW2 7171  14.468   2.496  14.129
 1780SOL     OW 7172   1.653   8.176   9.650
 1780SOL    HW1 7173   1.690   8.246   9.597
 1780SOL    HW2 7174   1.625   8.219   9.731
 1781SOL     OW 7175  10.380  12.924   2.022
 1781SOL    HW1 7176  10.419  12.959   1.942
 1781SOL    HW2 7177  10.289  12.951   2.018
 1782SOL     OW 7178   0.585   0.451   0.775
 1782SOL    HW1 7179   0.527   0.381   0.803
 1782SOL    HW2 7180   0.619   0.422   0.691
 1783SOL     OW 7181   6.055   9.821   9.869
 1783SOL    HW1 7182   6.063   9.909   9.833
 1783SOL    HW2 7183   6.053   9.764   9.791
 1784SOL     OW 7184   6.984  12.433   2.287
 1784SOL    HW1 7185   6.917  12.389   2.234
 1784SOL    HW2 7186   7.067  12.404   2.249
 1785SOL     OW 7187   0.748   6.880  13.286
 1785SOL    HW1 7188   0.841   6.880  13.308
 1785SOL    HW2 7189   0.704   6.890  13.371
 1786SOL     OW 7190   1.886  12.208  10.129
 1786SOL    HW1 7191   1.805  12.258  10.127
 1786SOL    HW2 7192   1.926  12.230  10.213
 1787SOL     OW 7193   0.614   7.446   8.076
 1787SOL    HW1 7194   0.645   7.496   8.151
 1787SOL    HW2 7195   0.567   7.509   8.022
 1788SOL     OW 7196  14.261   8.079   5.189
 1788SOL    HW1 7197  14.329   8.041   5.244
 1788SOL    HW2 7198  14.301   8.159   5.155
 1789SOL     OW 7199  12.859  13.850   0.202
 1789SOL    HW1 7200  12.768  13.877   0.189
 1789SOL    HW2 7201  12.857  13.799   0.283
 1790SOL     OW 7202   5.962  10.125   7.994
 1790SOL    HW1 7203   5.889  10.077   8.034
 1790SOL    HW2 7204   6.040  10.081   8.028
 1791SOL     OW 7205   3.884   2.012  12.720
 1791SOL    HW1 7206   3.913   1.922  12.703
 1791SOL    HW2 7207   3.957   2.052  12.766
 1792SOL     OW 7208   9.059   8.415   5.688
 1792SOL    HW1 7209   9.021   8.365   5.760
 1792SOL    HW2 7210   9.018   8.379   5.610
 1793SOL     OW 7211   6.854   8.900  10.156
 1793SOL    HW1 7212   6.812   8.856  10.083
 1793SOL    HW2 7213   6.922   8.839  10.186
 1794SOL     OW 7214   7.336   7.722   8.492
 1794SOL    HW1 7215   7.363   7.788   8.555
 1794SOL    HW2 7216   7.417   7.679   8.465
 1795SOL     OW 7217   2.171  10.753   3.769
 1795SOL    HW1 7218   2.098  10.806   3.802
 1795SOL    HW2 7219   2.244  10.815   3.761
 1796SOL     OW 7220  14.780  10.681   9.854
 1796SOL    HW1 7221  14.693  10.710   9.880
 1796SOL    HW2 7222  14.765  10.623   9.779
 1797SOL     OW 7223   6.566   5.843  12.198
 1797SOL    HW1 7224   6.619   5.840  12.278
 1797SOL    HW2 7225   6.476   5.832  12.228
 1798SOL     OW 7226  12.537   9.992  14.402
 1798SOL    HW1 7227  12.503  10.047  14.331
 1798SOL    HW2 7228  12.624  10.027  14.419
 1799SOL     OW 7229   0.781   6.468   8.955
 1799SOL    HW1 7230   0.735   6.551   8.961
 1799SOL    HW2 7231   0.717   6.408   8.917
 1800SOL     OW 7232   2.868   9.904   7.065
 1800SOL    HW1 7233   2.823   9.885   6.982
 1800SOL    HW2 7234   2.912   9.822   7.088
 1801SOL     OW 7235   2.867   2.674   6.067
 1801SOL    HW1 7236   2.959   2.676   6.092
 1801SOL    HW2 7237   2.825   2.623   6.136
 1802SOL     OW 7238  13.335  10.828  10.925
 1802SOL    HW1 7239  13.381  10.749  10.952
 1802SOL    HW2 7240  13.366  10.845  10.836
 1803SOL     OW 7241   9.505   0.006   6.692
 1803SOL    HW1 7242   9.423  14.837   6.708
 1803SOL    HW2 7243   9.550  14.832   6.626
 1804SOL     OW 7244   7.147   3.451   2.220
 1804SOL    HW1 7245   7.079   3.395   2.257
 1804SOL    HW2 7246   7.222   3.438   2.278
 1805SOL     OW 7247  12.882   7.369  10.102
 1805SOL    HW1 7248  12.793   7.381  10.133
 1805SOL    HW2 7249  12.912   7.288  10.144
 1806SOL     OW 7250  11.458  11.644   3.498
 1806SOL    HW1 7251  11.408  11.682   3.570
 1806SOL    HW2 7252  11.439  11.550   3.502
 1807SOL     OW 7253   0.437   3.650  11.370
 1807SOL    HW1 7254   0.392   3.677  11.451
 1807SOL    HW2 7255   0.473   3.731  11.335
 1808SOL     OW 7256  12.176  11.346   5.652
 1808SOL    HW1 7257  12.243  11.338   5.584
 1808SOL    HW2 7258  12.223  11.328   5.734
 1809SOL     OW 7259  11.414   7.010   6.823
 1809SOL    HW1 7260  11.378   7.048   6.743
 1809SOL    HW2 7261  11.353   6.939   6.845
 1810SOL     OW 7262   4.482   2.576   0.166
 1810SOL    HW1 7263   4.399   2.531   0.182
 1810SOL    HW2 7264   4.477   2.603   0.074
 1811SOL     OW 7265   9.652  13.858   2.958
 1811SOL    HW1 7266   9.672  13.788   2.897
 1811SOL    HW2 7267   9.681  13.938   2.914
 1812SOL     OW 7268  10.847   0.241   9.915
 1812SOL    HW1 7269  10.803   0.171   9.963
 1812SOL    HW2 7270  10.934   0.247   9.954
 1813SOL     OW 7271   9.412   1.342   2.865
 1813SOL    HW1 7272   9.355   1.326   2.790
 1813SOL    HW2 7273   9.485   1.281   2.851
 1814SOL     OW 7274   0.321   0.107   7.829
 1814SOL    HW1 7275   0.327   0.201   7.811
 1814SOL    HW2 7276   0.226   0.090   7.831
 1815SOL     OW 7277  11.857   2.826  14.505
 1815SOL    HW1 7278  11.846   2.806  14.412
 1815SOL    HW2 7279  11.907   2.752  14.539
 1816SOL     OW 7280   8.443   7.832   9.428
 1816SOL    HW1 7281   8.425   7.893   9.356
 1816SOL    HW2 7282   8.393   7.754   9.406
 1817SOL     OW 7283   9.171   4.400   2.878
 1817SOL    HW1 7284   9.266   4.395   2.862
 1817SOL    HW2 7285   9.160   4.477   2.934
 1818SOL     OW 7286  12.799   2.227  11.462
 1818SOL    HW1 7287  12.756   2.291  11.405
 1818SOL    HW2 7288  12.781   2.258  11.551
 1819SOL     OW 7289   1.548   9.871   4.789
 1819SOL    HW1 7290   1.622   9.921   4.752
 1819SOL    HW2 7291   1.472   9.926   4.774
 1820SOL     OW 7292   4.905  10.430   0.920
 1820SOL    HW1 7293   4.938  10.453   1.007
 1820SOL    HW2 7294   4.978  10.447   0.861
 1821SOL     OW 7295   1.714   2.287  11.422
 1821SOL    HW1 7296   1.743   2.211  11.474
 1821SOL    HW2 7297   1.785   2.351  11.433
 1822SOL     OW 7298   3.591   6.634   8.380
 1822SOL    HW1 7299   3.609   6.721   8.343
 1822SOL    HW2 7300   3.582   6.649   8.474
 1823SOL     OW 7301   7.123   4.493   4.832
 1823SOL    HW1 7302   7.130   4.469   4.739
 1823SOL    HW2 7303   7.029   4.488   4.851
 1824SOL     OW 7304   9.453   5.792  11.717
 1824SOL    HW1 7305   9.527   5.742  11.751
 1824SOL    HW2 7306   9.471   5.883  11.742
 1825SOL     OW 7307   4.067  10.903   9.027
 1825SOL    HW1 7308   4.062  10.872   8.937
 1825SOL    HW2 7309   4.160  10.903   9.047
 1826SOL     OW 7310  12.328  13.040   8.659
 1826SOL    HW1 7311  12.264  12.988   8.709
 1826SOL    HW2 7312  12.412  12.999   8.678
 1827SOL     OW 7313  11.354   7.915   5.150
 1827SOL    HW1 7314  11.323   7.897   5.239
 1827SOL    HW2 7315  11.412   7.842   5.129
 1828SOL     OW 7316   6.199   2.417   0.379
 1828SOL    HW1 7317   6.165   2.469   0.307
 1828SOL    HW2 7318   6.217   2.481   0.448
 1829SOL     OW 7319  10.671   3.935   9.299
 1829SOL    HW1 7320  10.585   3.977   9.311
 1829SOL    HW2 7321  10.662   3.849   9.341
 1830SOL     OW 7322  10.336   1.543   5.906
 1830SOL    HW1 7323  10.397   1.499   5.846
 1830SOL    HW2 7324  10.342   1.494   5.987
 1831SOL     OW 7325   6.347   6.683   3.769
 1831SOL    HW1 7326   6.365   6.771   3.800
 1831SOL    HW2 7327   6.403   6.672   3.692
 1832SOL     OW 7328   2.579   9.546  11.070
 1832SOL    HW1 7329   2.541   9.505  10.992
 1832SOL    HW2 7330   2.638   9.613  11.035
 1833SOL     OW 7331   6.550  14.216  13.255
 1833SOL    HW1 7332   6.483  14.218  13.323
 1833SOL    HW2 7333   6.507  14.253  13.178
 1834SOL     OW 7334   6.223   1.762   3.854
 1834SOL    HW1 7335   6.143   1.796   3.894
 1834SOL    HW2 7336   6.277   1.840   3.837
 1835SOL     OW 7337   6.640   6.978  13.589
 1835SOL    HW1 7338   6.632   6.885  13.566
 1835SOL    HW2 7339   6.730   7.001  13.564
 1836SOL     OW 7340  14.054   4.852   4.703
 1836SOL    HW1 7341  14.137   4.864   4.657
 1836SOL    HW2 7342  14.072   4.883   4.792
 1837SOL     OW 7343   9.627   6.493   8.563
 1837SOL    HW1 7344   9.602   6.509   8.654
 1837SOL    HW2 7345   9.688   6.564   8.542
 1838SOL     OW 7346   4.366   7.259   4.477
 1838SOL    HW1 7347   4.298   7.218   4.531
 1838SOL    HW2 7348   4.380   7.345   4.517
 1839SOL     OW 7349   4.798   7.843   3.880
 1839SOL    HW1 7350   4.838   7.794   3.951
 1839SOL    HW2 7351   4.859   7.833   3.806
 1840SOL     OW 7352   4.492   9.450   9.385
 1840SOL    HW1 7353   4.474   9.541   9.360
 1840SOL    HW2 7354   4.429   9.432   9.455
 1841SOL     OW 7355   5.603   5.761   9.001
 1841SOL    HW1 7356   5.581   5.684   8.947
 1841SOL    HW2 7357   5.689   5.789   8.970
 1842SOL     OW 7358   6.948   5.284   4.105
 1842SOL    HW1 7359   7.037   5.249   4.117
 1842SOL    HW2 7360   6.909   5.278   4.192
 1843SOL     OW 7361   7.273   7.879  13.662
 1843SOL    HW1 7362   7.187   7.912  13.634
 1843SOL    HW2 7363   7.325   7.877  13.582
 1844SOL     OW 7364   9.992  11.629  13.515
 1844SOL    HW1 7365   9.996  11.562  13.583
 1844SOL    HW2 7366   9.925  11.690  13.546
 1845SOL     OW 7367   3.476  12.315   4.870
 1845SOL    HW1 7368   3.515  12.229   4.854
 1845SOL    HW2 7369   3.383  12.297   4.883
 1846SOL     OW 7370   1.236  13.207  12.670
 1846SOL    HW1 7371   1.218  13.150  12.745
 1846SOL    HW2 7372   1.271  13.287  12.709
 1847SOL     OW 7373   5.456   7.646   4.282
 1847SOL    HW1 7374   5.490   7.674   4.197
 1847SOL    HW2 7375   5.529   7.659   4.342
 1848SOL     OW 7376  14.635  11.351   3.117
 1848SOL    HW1 7377  14.692  11.413   3.162
 1848SOL    HW2 7378  14.676  11.338   3.032
 1849SOL     OW 7379   8.467   2.860   0.120
 1849SOL    HW1 7380   8.513   2.856   0.204
 1849SOL    HW2 7381   8.432   2.771   0.108
 1850SOL     OW 7382  13.762  14.152   0.870
 1850SOL    HW1 7383  13.692  14.110   0.920
 1850SOL    HW2 7384  13.802  14.214   0.931
 1851SOL     OW 7385   2.132   5.389   5.857
 1851SOL    HW1 7386   2.153   5.316   5.915
 1851SOL    HW2 7387   2.104   5.347   5.776
 1852SOL     OW 7388   4.275   2.355  11.385
 1852SOL    HW1 7389   4.201   2.403  11.347
 1852SOL    HW2 7390   4.274   2.379  11.478
 1853SOL     OW 7391  11.638   2.341   5.244
 1853SOL    HW1 7392  11.715   2.365   5.296
 1853SOL    HW2 7393  11.567   2.392   5.282
 1854SOL     OW 7394   0.464   7.022   3.400
 1854SOL    HW1 7395   0.398   6.994   3.337
 1854SOL    HW2 7396   0.526   6.949   3.404
 1855SOL     OW 7397  11.164  14.364   1.736
 1855SOL    HW1 7398  11.099  14.378   1.667
 1855SOL    HW2 7399  11.229  14.433   1.721
 1856SOL     OW 7400   7.876   7.984  13.936
 1856SOL    HW1 7401   7.807   8.034  13.980
 1856SOL    HW2 7402   7.859   7.997  13.842
 1857SOL     OW 7403  13.604  13.536  10.831
 1857SOL    HW1 7404  13.617  13.442  10.818
 1857SOL    HW2 7405  13.674  13.576  10.779
 1858SOL     OW 7406  12.749   4.485  14.226
 1858SOL    HW1 7407  12.790   4.399  14.236
 1858SOL    HW2 7408  12.731   4.492  14.132
 1859SOL     OW 7409   9.558   2.111  12.667
 1859SOL    HW1 7410   9.554   2.084  12.759
 1859SOL    HW2 7411   9.469   2.098  12.634
 1860SOL     OW 7412   3.986  11.656   5.514
 1860SOL    HW1 7413   4.025  11.573   5.540
 1860SOL    HW2 7414   4.057  11.720   5.526
 1861SOL     OW 7415   1.777   7.558  12.302
 1861SOL    HW1 7416   1.716   7.576  12.373
 1861SOL    HW2 7417   1.752   7.471  12.269
 1862SOL     OW 7418   1.486   6.831   2.067
 1862SOL    HW1 7419   1.492   6.927   2.065
 1862SOL    HW2 7420   1.528   6.803   1.985
 1863SOL     OW 7421  10.228   5.269  12.948
 1863SOL    HW1 7422  10.255   5.357  12.975
 1863SOL    HW2 7423  10.137   5.279  12.921
 1864SOL     OW 7424   7.386  11.825   4.981
 1864SOL    HW1 7425   7.423  11.740   5.006
 1864SOL    HW2 7426   7.306  11.803   4.933
 1865SOL     OW 7427   2.917   9.014   3.844
 1865SOL    HW1 7428   2.988   9.078   3.852
 1865SOL    HW2 7429   2.837   9.064   3.863
 1866SOL     OW 7430   8.263   6.309   3.122
 1866SOL    HW1 7431   8.350   6.329   3.090
 1866SOL    HW2 7432   8.217   6.273   3.046
 1867SOL     OW 7433   6.491   8.801  14.840
 1867SOL    HW1 7434   6.461   8.711  14.844
 1867SOL    HW2 7435   6.437   8.842  14.772
 1868SOL     OW 7436  11.205  13.230  13.567
 1868SOL    HW1 7437  11.290  13.227  13.523
 1868SOL    HW2 7438  11.204  13.153  13.624
 1869SOL     OW 7439   2.542   7.095  12.399
 1869SOL    HW1 7440   2.616   7.034  12.398
 1869SOL    HW2 7441   2.553   7.144  12.481
 1870SOL     OW 7442  13.507  11.714   8.965
 1870SOL    HW1 7443  13.458  11.794   8.982
 1870SOL    HW2 7444  13.572  11.710   9.036
 1871SOL     OW 7445   0.381   4.640  14.811
 1871SOL    HW1 7446   0.341   4.565  14.767
 1871SOL    HW2 7447   0.420   4.604   0.011
 1872SOL     OW 7448   6.201   6.537   9.569
 1872SOL    HW1 7449   6.108   6.527   9.592
 1872SOL    HW2 7450   6.237   6.590   9.641
 1873SOL     OW 7451   6.266  10.285   5.229
 1873SOL    HW1 7452   6.201  10.355   5.222
 1873SOL    HW2 7453   6.233  10.216   5.171
 1874SOL     OW 7454   6.885  13.217  10.804
 1874SOL    HW1 7455   6.900  13.311  10.799
 1874SOL    HW2 7456   6.791  13.207  10.816
 1875SOL     OW 7457   9.236  10.641   4.212
 1875SOL    HW1 7458   9.141  10.629   4.211
 1875SOL    HW2 7459   9.269  10.569   4.266
 1876SOL     OW 7460   7.855  12.353  11.860
 1876SOL    HW1 7461   7.776  12.338  11.809
 1876SOL    HW2 7462   7.824  12.389  11.943
 1877SOL     OW 7463   2.299   3.390   3.550
 1877SOL    HW1 7464   2.300   3.313   3.493
 1877SOL    HW2 7465   2.207   3.403   3.572
 1878SOL     OW 7466  12.263  13.053  14.853
 1878SOL    HW1 7467  12.207  13.091   0.041
 1878SOL    HW2 7468  12.272  13.122  14.787
 1879SOL     OW 7469  13.497   0.941   0.062
 1879SOL    HW1 7470  13.470   0.860   0.104
 1879SOL    HW2 7471  13.502   0.919  14.848
 1880SOL     OW 7472   3.896  11.816   9.594
 1880SOL    HW1 7473   3.883  11.804   9.499
 1880SOL    HW2 7474   3.831  11.758   9.634
 1881SOL     OW 7475   4.680  13.224   1.520
 1881SOL    HW1 7476   4.604  13.279   1.503
 1881SOL    HW2 7477   4.755  13.284   1.519
 1882SOL     OW 7478  14.049  14.169   1.830
 1882SOL    HW1 7479  14.034  14.123   1.912
 1882SOL    HW2 7480  14.141  14.153   1.810
 1883SOL     OW 7481  12.234   7.221   9.820
 1883SOL    HW1 7482  12.292   7.232   9.745
 1883SOL    HW2 7483  12.148   7.205   9.781
 1884SOL     OW 7484   5.804  10.692   7.779
 1884SOL    HW1 7485   5.763  10.674   7.863
 1884SOL    HW2 7486   5.834  10.607   7.748
 1885SOL     OW 7487  12.190   1.848   1.448
 1885SOL    HW1 7488  12.186   1.786   1.375
 1885SOL    HW2 7489  12.140   1.923   1.418
 1886SOL     OW 7490  10.732  10.727  13.658
 1886SOL    HW1 7491  10.760  10.681  13.578
 1886SOL    HW2 7492  10.638  10.737  13.649
 1887SOL     OW 7493   1.810  14.854   7.120
 1887SOL    HW1 7494   1.814  14.841   7.025
 1887SOL    HW2 7495   1.836  14.769   7.156
 1888SOL     OW 7496   7.082   0.928  11.699
 1888SOL    HW1 7497   7.147   0.917  11.629
 1888SOL    HW2 7498   7.132   0.924  11.780
 1889SOL     OW 7499   8.739  11.694  14.076
 1889SOL    HW1 7500   8.745  11.711  14.170
 1889SOL    HW2 7501   8.830  11.683  14.047
 1890SOL     OW 7502  13.325   8.844   9.245
 1890SOL    HW1 7503  13.315   8.761   9.292
 1890SOL    HW2 7504  13.373   8.901   9.305
 1891SOL     OW 7505   0.461  12.995   5.219
 1891SOL    HW1 7506   0.461  13.043   5.136
 1891SOL    HW2 7507   0.385  13.029   5.267
 1892SOL     OW 7508  13.565   9.066  11.846
 1892SOL    HW1 7509  13.641   9.081  11.902
 1892SOL    HW2 7510  13.530   8.982  11.876
 1893SOL     OW 7511   2.072  14.153   5.351
 1893SOL    HW1 7512   2.082  14.248   5.344
 1893SOL    HW2 7513   2.150  14.124   5.398
 1894SOL     OW 7514   9.487  10.461   7.108
 1894SOL    HW1 7515   9.562  10.413   7.073
 1894SOL    HW2 7516   9.510  10.554   7.097
 1895SOL     OW 7517  14.148  11.248  14.659
 1895SOL    HW1 7518  14.096  11.168  14.651
 1895SOL    HW2 7519  14.085  11.319  14.647
 1896SOL     OW 7520   3.364  14.261   0.551
 1896SOL    HW1 7521   3.297  14.260   0.619
 1896SOL    HW2 7522   3.317  14.283   0.471
 1897SOL     OW 7523  13.426  12.095  12.243
 1897SOL    HW1 7524  13.435  12.000  12.248
 1897SOL    HW2 7525  13.489  12.123  12.177
 1898SOL     OW 7526   5.338   4.869   6.730
 1898SOL    HW1 7527   5.378   4.926   6.664
 1898SOL    HW2 7528   5.307   4.793   6.680
 1899SOL     OW 7529  13.138   9.810   5.175
 1899SOL    HW1 7530  13.084   9.733   5.193
 1899SOL    HW2 7531  13.177   9.793   5.089
 1900SOL     OW 7532   6.966   9.494  10.793
 1900SOL    HW1 7533   7.006   9.506  10.707
 1900SOL    HW2 7534   6.904   9.567  10.801
 1901SOL     OW 7535   4.401   3.986  12.086
 1901SOL    HW1 7536   4.349   4.040  12.145
 1901SOL    HW2 7537   4.348   3.908  12.070
 1902SOL     OW 7538   5.094   0.080   4.801
 1902SOL    HW1 7539   5.137   0.137   4.866
 1902SOL    HW2 7540   5.061   0.141   4.735
 1903SOL     OW 7541  14.631   6.671   8.894
 1903SOL    HW1 7542  14.625   6.576   8.905
 1903SOL    HW2 7543  14.671   6.702   8.975
 1904SOL     OW 7544  12.435   9.995  12.262
 1904SOL    HW1 7545  12.393  10.057  12.322
 1904SOL    HW2 7546  12.516   9.969  12.307
 1905SOL     OW 7547   5.838   6.455   0.773
 1905SOL    HW1 7548   5.923   6.494   0.793
 1905SOL    HW2 7549   5.838   6.372   0.820
 1906SOL     OW 7550   3.797   5.561  12.080
 1906SOL    HW1 7551   3.747   5.635  12.116
 1906SOL    HW2 7552   3.823   5.591  11.992
 1907SOL     OW 7553  11.831   6.498   1.200
 1907SOL    HW1 7554  11.875   6.425   1.244
 1907SOL    HW2 7555  11.738   6.476   1.205
 1908SOL     OW 7556   3.226  11.444  13.786
 1908SOL    HW1 7557   3.140  11.457  13.824
 1908SOL    HW2 7558   3.227  11.352  13.760
 1909SOL     OW 7559   9.658   2.532   5.286
 1909SOL    HW1 7560   9.716   2.483   5.227
 1909SOL    HW2 7561   9.669   2.623   5.259
 1910SOL     OW 7562  11.471   6.686   7.325
 1910SOL    HW1 7563  11.401   6.747   7.349
 1910SOL    HW2 7564  11.504   6.718   7.241
 1911SOL     OW 7565  12.765   5.899  12.974
 1911SOL    HW1 7566  12.829   5.961  12.938
 1911SOL    HW2 7567  12.779   5.819  12.922
 1912SOL     OW 7568   3.054   3.071   1.258
 1912SOL    HW1 7569   3.134   3.024   1.281
 1912SOL    HW2 7570   3.067   3.159   1.294
 1913SOL     OW 7571  12.174  11.799  12.336
 1913SOL    HW1 7572  12.185  11.763  12.248
 1913SOL    HW2 7573  12.263  11.803  12.372
 1914SOL     OW 7574   5.724   7.325  14.677
 1914SOL    HW1 7575   5.784   7.250  14.681
 1914SOL    HW2 7576   5.748   7.371  14.597
 1915SOL     OW 7577   9.414  11.544   9.565
 1915SOL    HW1 7578   9.382  11.493   9.640
 1915SOL    HW2 7579   9.347  11.532   9.498
 1916SOL     OW 7580  14.211   1.108   3.625
 1916SOL    HW1 7581  14.234   1.088   3.716
 1916SOL    HW2 7582  14.143   1.174   3.631
 1917SOL     OW 7583   7.283  13.595   8.436
 1917SOL    HW1 7584   7.262  13.522   8.378
 1917SOL    HW2 7585   7.223  13.664   8.410
 1918SOL     OW 7586  14.221  11.951  14.413
 1918SOL    HW1 7587  14.284  11.951  14.340
 1918SOL    HW2 7588  14.163  12.024  14.394
 1919SOL     OW 7589   6.273  11.378   3.494
 1919SOL    HW1 7590   6.201  11.315   3.482
 1919SOL    HW2 7591   6.232  11.464   3.481
 1920SOL     OW 7592   6.937   9.719   2.239
 1920SOL    HW1 7593   7.027   9.732   2.210
 1920SOL    HW2 7594   6.941   9.646   2.300
 1921SOL     OW 7595  14.474  10.501   6.700
 1921SOL    HW1 7596  14.465  10.417   6.655
 1921SOL    HW2 7597  14.492  10.479   6.791
 1922SOL     OW 7598   3.578   2.185   3.062
 1922SOL    HW1 7599   3.622   2.245   3.001
 1922SOL    HW2 7600   3.584   2.230   3.146
 1923SOL     OW 7601   6.288  13.464   7.052
 1923SOL    HW1 7602   6.275  13.423   6.967
 1923SOL    HW2 7603   6.333  13.398   7.104
 1924SOL     OW 7604   1.004   5.592  10.255
 1924SOL    HW1 7605   1.008   5.543  10.337
 1924SOL    HW2 7606   0.932   5.654  10.269
 1925SOL     OW 7607   7.465   5.954   6.384
 1925SOL    HW1 7608   7.476   5.860   6.367
 1925SOL    HW2 7609   7.373   5.971   6.362
 1926SOL     OW 7610  10.360   0.846   2.995
 1926SOL    HW1 7611  10.380   0.935   2.967
 1926SOL    HW2 7612  10.264   0.843   2.999
 1927SOL     OW 7613   8.421   1.617  12.682
 1927SOL    HW1 7614   8.429   1.654  12.594
 1927SOL    HW2 7615   8.348   1.555  12.675
 1928SOL     OW 7616   7.175   5.117  13.013
 1928SOL    HW1 7617   7.090   5.114  12.970
 1928SOL    HW2 7618   7.166   5.059  13.089
 1929SOL     OW 7619   9.496   3.957  10.306
 1929SOL    HW1 7620   9.431   4.023  10.284
 1929SOL    HW2 7621   9.445   3.885  10.343
 1930SOL     OW 7622   7.339  14.875  11.482
 1930SOL    HW1 7623   7.312   0.039  11.402
 1930SOL    HW2 7624   7.413  14.819  11.456
 1931SOL     OW 7625   4.405   6.914   5.680
 1931SOL    HW1 7626   4.475   6.966   5.719
 1931SOL    HW2 7627   4.415   6.827   5.719
 1932SOL     OW 7628   9.006  10.897   9.514
 1932SOL    HW1 7629   8.969  10.848   9.441
 1932SOL    HW2 7630   9.008  10.835   9.587
 1933SOL     OW 7631  13.015   0.547   2.089
 1933SOL    HW1 7632  13.081   0.522   2.024
 1933SOL    HW2 7633  12.987   0.464   2.128
 1934SOL     OW 7634  11.217   0.894   0.515
 1934SOL    HW1 7635  11.206   0.929   0.604
 1934SOL    HW2 7636  11.304   0.853   0.516
 1935SOL     OW 7637  13.533  12.357  14.441
 1935SOL    HW1 7638  13.563  12.271  14.413
 1935SOL    HW2 7639  13.449  12.340  14.485
 1936SOL     OW 7640   3.799  12.141   1.256
 1936SOL    HW1 7641   3.894  12.152   1.254
 1936SOL    HW2 7642   3.785  12.060   1.305
 1937SOL     OW 7643  13.980  12.063   8.553
 1937SOL    HW1 7644  13.967  12.075   8.647
 1937SOL    HW2 7645  13.960  12.148   8.514
 1938SOL     OW 7646   0.318   7.439   9.386
 1938SOL    HW1 7647   0.316   7.348   9.357
 1938SOL    HW2 7648   0.287   7.489   9.311
 1939SOL     OW 7649   7.008   9.741  12.460
 1939SOL    HW1 7650   6.971   9.677  12.399
 1939SOL    HW2 7651   6.961   9.726  12.542
 1940SOL     OW 7652  13.022   5.566   1.067
 1940SOL    HW1 7653  12.947   5.541   1.012
 1940SOL    HW2 7654  12.995   5.545   1.156
 1941SOL     OW 7655   0.534   2.287   4.178
 1941SOL    HW1 7656   0.580   2.303   4.096
 1941SOL    HW2 7657   0.441   2.290   4.155
 1942SOL     OW 7658   0.598   3.083  12.080
 1942SOL    HW1 7659   0.612   3.024  12.153
 1942SOL    HW2 7660   0.584   3.026  12.005
 1943SOL     OW 7661   9.081   7.785   8.475
 1943SOL    HW1 7662   9.030   7.844   8.420
 1943SOL    HW2 7663   9.128   7.842   8.536
 1944SOL     OW 7664   2.350  14.682   5.980
 1944SOL    HW1 7665   2.274  14.698   5.923
 1944SOL    HW2 7666   2.333  14.735   6.058
 1945SOL     OW 7667   8.983   7.755   9.396
 1945SOL    HW1 7668   9.051   7.822   9.398
 1945SOL    HW2 7669   8.901   7.803   9.410
 1946SOL     OW 7670  10.234  10.834   9.475
 1946SOL    HW1 7671  10.183  10.802   9.401
 1946SOL    HW2 7672  10.311  10.777   9.478
 1947SOL     OW 7673  10.142   7.508   9.846
 1947SOL    HW1 7674  10.204   7.497   9.775
 1947SOL    HW2 7675  10.167   7.590   9.888
 1948SOL     OW 7676   0.425   1.330   9.613
 1948SOL    HW1 7677   0.491   1.310   9.547
 1948SOL    HW2 7678   0.469   1.314   9.697
 1949SOL     OW 7679   2.916   3.036  12.855
 1949SOL    HW1 7680   2.931   3.069  12.766
 1949SOL    HW2 7681   2.971   3.091  12.911
 1950SOL     OW 7682  13.738  12.212  13.201
 1950SOL    HW1 7683  13.678  12.286  13.201
 1950SOL    HW2 7684  13.808  12.237  13.261
 1951SOL     OW 7685   4.266   4.274   5.776
 1951SOL    HW1 7686   4.240   4.365   5.791
 1951SOL    HW2 7687   4.343   4.261   5.830
 1952SOL     OW 7688   0.253   3.678  12.297
 1952SOL    HW1 7689   0.281   3.729  12.222
 1952SOL    HW2 7690   0.227   3.593  12.261
 1953SOL     OW 7691  13.331  14.092   9.847
 1953SOL    HW1 7692  13.242  14.127   9.848
 1953SOL    HW2 7693  13.366  14.113   9.933
 1954SOL     OW 7694  12.378   1.975  11.125
 1954SOL    HW1 7695  12.422   2.011  11.202
 1954SOL    HW2 7696  12.447   1.927  11.078
 1955SOL     OW 7697   5.330   2.303   6.444
 1955SOL    HW1 7698   5.292   2.384   6.408
 1955SOL    HW2 7699   5.418   2.328   6.470
 1956SOL     OW 7700   0.574   8.364   0.243
 1956SOL    HW1 7701   0.596   8.439   0.298
 1956SOL    HW2 7702   0.634   8.295   0.272
 1957SOL     OW 7703  11.430   3.368   3.404
 1957SOL    HW1 7704  11.363   3.391   3.467
 1957SOL    HW2 7705  11.396   3.398   3.320
 1958SOL     OW 7706   9.630   9.709   0.355
 1958SOL    HW1 7707   9.551   9.724   0.302
 1958SOL    HW2 7708   9.682   9.647   0.304
 1959SOL     OW 7709   5.330  11.204  12.442
 1959SOL    HW1 7710   5.371  11.246  12.518
 1959SOL    HW2 7711   5.365  11.115  12.442
 1960SOL     OW 7712   0.249   6.939   4.246
 1960SOL    HW1 7713   0.219   7.029   4.230
 1960SOL    HW2 7714   0.343   6.943   4.233
 1961SOL     OW 7715   5.523   8.341   3.925
 1961SOL    HW1 7716   5.468   8.409   3.964
 1961SOL    HW2 7717   5.462   8.287   3.874
 1962SOL     OW 7718   2.608   4.363   1.747
 1962SOL    HW1 7719   2.630   4.448   1.786
 1962SOL    HW2 7720   2.516   4.350   1.768
 1963SOL     OW 7721  13.066   5.199   5.056
 1963SOL    HW1 7722  13.116   5.246   4.989
 1963SOL    HW2 7723  13.022   5.268   5.106
 1964SOL     OW 7724   2.815   7.708   2.720
 1964SOL    HW1 7725   2.852   7.625   2.749
 1964SOL    HW2 7726   2.879   7.774   2.745
 1965SOL     OW 7727   7.902   1.726   1.533
 1965SOL    HW1 7728   7.956   1.739   1.610
 1965SOL    HW2 7729   7.891   1.631   1.526
 1966SOL     OW 7730  13.515   7.194  14.357
 1966SOL    HW1 7731  13.467   7.274  14.336
 1966SOL    HW2 7732  13.528   7.151  14.272
 1967SOL     OW 7733  14.704   8.240  13.367
 1967SOL    HW1 7734  14.758   8.251  13.288
 1967SOL    HW2 7735  14.668   8.152  13.359
 1968SOL     OW 7736  12.650   1.244  14.620
 1968SOL    HW1 7737  12.704   1.229  14.542
 1968SOL    HW2 7738  12.704   1.300  14.676
 1969SOL     OW 7739  14.108   7.349  13.710
 1969SOL    HW1 7740  14.158   7.423  13.676
 1969SOL    HW2 7741  14.105   7.363  13.805
 1970SOL     OW 7742  12.369   6.230   5.640
 1970SOL    HW1 7743  12.446   6.174   5.627
 1970SOL    HW2 7744  12.393   6.312   5.597
 1971SOL     OW 7745   6.245   8.122   5.060
 1971SOL    HW1 7746   6.169   8.170   5.029
 1971SOL    HW2 7747   6.305   8.122   4.985
 1972SOL     OW 7748  12.527   8.535  14.843
 1972SOL    HW1 7749  12.600   8.543  14.782
 1972SOL    HW2 7750  12.452   8.514  14.788
 1973SOL     OW 7751   2.767   9.895   4.855
 1973SOL    HW1 7752   2.823   9.973   4.855
 1973SOL    HW2 7753   2.745   9.881   4.947
 1974SOL     OW 7754  14.669   5.869  13.032
 1974SOL    HW1 7755  14.657   5.869  12.937
 1974SOL    HW2 7756  14.691   5.778  13.054
 1975SOL     OW 7757   5.038  12.799  11.184
 1975SOL    HW1 7758   5.065  12.890  11.189
 1975SOL    HW2 7759   4.958  12.795  11.236
 1976SOL     OW 7760   2.044   3.250  14.868
 1976SOL    HW1 7761   2.002   3.260   0.075
 1976SOL    HW2 7762   2.015   3.326  14.818
 1977SOL     OW 7763  10.519  12.338  14.676
 1977SOL    HW1 7764  10.437  12.308  14.715
 1977SOL    HW2 7765  10.529  12.285  14.597
 1978SOL     OW 7766  11.688   1.843  12.520
 1978SOL    HW1 7767  11.661   1.808  12.605
 1978SOL    HW2 7768  11.712   1.934  12.538
 1979SOL     OW 7769   6.346   9.518   4.827
 1979SOL    HW1 7770   6.363   9.430   4.791
 1979SOL    HW2 7771   6.375   9.512   4.918
 1980SOL     OW 7772  11.476   5.871   2.561
 1980SOL    HW1 7773  11.505   5.952   2.519
 1980SOL    HW2 7774  11.508   5.877   2.650
 1981SOL     OW 7775   5.354  14.190   2.208
 1981SOL    HW1 7776   5.313  14.158   2.289
 1981SOL    HW2 7777   5.393  14.111   2.169
 1982SOL     OW 7778   7.118   4.935   9.042
 1982SOL    HW1 7779   7.154   4.876   9.108
 1982SOL    HW2 7780   7.184   4.936   8.972
 1983SOL     OW 7781   3.334   0.658   8.981
 1983SOL    HW1 7782   3.256   0.614   8.947
 1983SOL    HW2 7783   3.346   0.620   9.068
 1984SOL     OW 7784   5.848   7.609   7.630
 1984SOL    HW1 7785   5.920   7.551   7.652
 1984SOL    HW2 7786   5.884   7.697   7.642
 1985SOL     OW 7787   4.814  13.883   3.910
 1985SOL    HW1 7788   4.832  13.848   3.823
 1985SOL    HW2 7789   4.722  13.860   3.926
 1986SOL     OW 7790   6.503   9.127  10.859
 1986SOL    HW1 7791   6.417   9.086  10.871
 1986SOL    HW2 7792   6.489   9.190  10.788
 1987SOL     OW 7793   5.694  11.619   7.761
 1987SOL    HW1 7794   5.689  11.524   7.750
 1987SOL    HW2 7795   5.720  11.631   7.852
 1988SOL     OW 7796   8.896   2.071  13.298
 1988SOL    HW1 7797   8.826   2.026  13.251
 1988SOL    HW2 7798   8.857   2.154  13.325
 1989SOL     OW 7799   9.348   8.116  10.691
 1989SOL    HW1 7800   9.311   8.186  10.745
 1989SOL    HW2 7801   9.292   8.113  10.614
 1990SOL     OW 7802   2.565  14.548   7.666
 1990SOL    HW1 7803   2.577  14.566   7.573
 1990SOL    HW2 7804   2.492  14.605   7.693
 1991SOL     OW 7805   3.864  11.261   1.528
 1991SOL    HW1 7806   3.953  11.258   1.492
 1991SOL    HW2 7807   3.877  11.275   1.621
 1992SOL     OW 7808   4.439   4.769  12.683
 1992SOL    HW1 7809   4.485   4.702  12.632
 1992SOL    HW2 7810   4.509   4.814  12.731
 1993SOL     OW 7811  11.964   6.131   1.748
 1993SOL    HW1 7812  11.889   6.135   1.689
 1993SOL    HW2 7813  11.942   6.061   1.810
 1994SOL     OW 7814   3.424  14.410   4.175
 1994SOL    HW1 7815   3.348  14.378   4.128
 1994SOL    HW2 7816   3.495  14.408   4.110
 1995SOL     OW 7817   9.943  13.096  14.435
 1995SOL    HW1 7818   9.993  13.144  14.369
 1995SOL    HW2 7819  10.003  13.090  14.510
 1996SOL     OW 7820  12.543   6.019  12.843
 1996SOL    HW1 7821  12.490   5.944  12.871
 1996SOL    HW2 7822  12.627   6.007  12.889
 1997SOL     OW 7823   0.848  13.122   3.839
 1997SOL    HW1 7824   0.843  13.037   3.883
 1997SOL    HW2 7825   0.887  13.180   3.905
 1998SOL     OW 7826   3.153   6.493   1.309
 1998SOL    HW1 7827   3.206   6.559   1.354
 1998SOL    HW2 7828   3.116   6.440   1.380
 1999SOL     OW 7829  13.291   3.276   2.550
 1999SOL    HW1 7830  13.267   3.315   2.466
 1999SOL    HW2 7831  13.264   3.185   2.542
 2000SOL     OW 7832  12.907   1.893   2.419
 2000SOL    HW1 7833  12.888   1.941   2.338
 2000SOL    HW2 7834  12.900   1.959   2.488
 2001SOL     OW 7835  11.813   7.011  12.445
 2001SOL    HW1 7836  11.832   7.046  12.358
 2001SOL    HW2 7837  11.718   6.998  12.446
 2002SOL     OW 7838   7.031  14.291   1.741
 2002SOL    HW1 7839   7.057  14.248   1.822
 2002SOL    HW2 7840   6.997  14.376   1.770
 2003SOL     OW 7841   7.378   7.238  14.427
 2003SOL    HW1 7842   7.458   7.205  14.468
 2003SOL    HW2 7843   7.382   7.206  14.337
 2004SOL     OW 7844  10.556  12.744   2.468
 2004SOL    HW1 7845  10.482  12.802   2.489
 2004SOL    HW2 7846  10.520  12.681   2.405
 2005SOL     OW 7847  12.093   3.811   8.429
 2005SOL    HW1 7848  12.158   3.832   8.362
 2005SOL    HW2 7849  12.094   3.886   8.488
 2006SOL     OW 7850  14.393   9.127   6.839
 2006SOL    HW1 7851  14.371   9.034   6.850
 2006SOL    HW2 7852  14.485   9.127   6.810
 2007SOL     OW 7853  10.870   7.460   2.806
 2007SOL    HW1 7854  10.947   7.515   2.814
 2007SOL    HW2 7855  10.817   7.479   2.884
 2008SOL     OW 7856   5.756   6.634   7.847
 2008SOL    HW1 7857   5.676   6.661   7.893
 2008SOL    HW2 7858   5.822   6.696   7.878
 2009SOL     OW 7859   5.746   9.327   6.826
 2009SOL    HW1 7860   5.667   9.377   6.803
 2009SOL    HW2 7861   5.792   9.317   6.744
 2010SOL     OW 7862   0.136  12.114   4.229
 2010SOL    HW1 7863   0.218  12.081   4.265
 2010SOL    HW2 7864   0.082  12.036   4.217
 2011SOL     OW 7865   0.257  11.601   5.096
 2011SOL    HW1 7866   0.279  11.582   5.187
 2011SOL    HW2 7867   0.330  11.654   5.064
 2012SOL     OW 7868  12.640   8.117   4.149
 2012SOL    HW1 7869  12.615   8.158   4.232
 2012SOL    HW2 7870  12.600   8.030   4.152
 2013SOL     OW 7871   3.140  13.536  14.226
 2013SOL    HW1 7872   3.102  13.623  14.238
 2013SOL    HW2 7873   3.066  13.476  14.238
 2014SOL     OW 7874   0.770  14.839   7.666
 2014SOL    HW1 7875   0.858  14.875   7.680
 2014SOL    HW2 7876   0.714   0.011   7.724
 2015SOL     OW 7877   9.130  12.088   0.490
 2015SOL    HW1 7878   9.084  12.127   0.416
 2015SOL    HW2 7879   9.136  11.995   0.469
 2016SOL     OW 7880   1.283   2.630  10.453
 2016SOL    HW1 7881   1.217   2.652  10.518
 2016SOL    HW2 7882   1.238   2.636  10.369
 2017SOL     OW 7883  13.629   3.486   4.002
 2017SOL    HW1 7884  13.537   3.513   4.010
 2017SOL    HW2 7885  13.661   3.480   4.092
 2018SOL     OW 7886   9.909   3.154  10.221
 2018SOL    HW1 7887   9.962   3.141  10.143
 2018SOL    HW2 7888   9.948   3.095  10.286
 2019SOL     OW 7889   4.882  11.606   3.149
 2019SOL    HW1 7890   4.901  11.513   3.133
 2019SOL    HW2 7891   4.967  11.649   3.147
 2020SOL     OW 7892   1.117   5.868   2.105
 2020SOL    HW1 7893   1.030   5.828   2.096
 2020SOL    HW2 7894   1.177   5.803   2.069
 2021SOL     OW 7895  13.310  13.380  14.276
 2021SOL    HW1 7896  13.394  13.418  14.303
 2021SOL    HW2 7897  13.335  13.311  14.214
 2022SOL     OW 7898   9.020  14.512   1.460
 2022SOL    HW1 7899   9.010  14.441   1.524
 2022SOL    HW2 7900   9.057  14.470   1.383
 2023SOL     OW 7901  12.551   4.313   4.543
 2023SOL    HW1 7902  12.630   4.365   4.554
 2023SOL    HW2 7903  12.538   4.270   4.627
 2024SOL     OW 7904  14.483  12.282   1.325
 2024SOL    HW1 7905  14.423  12.243   1.389
 2024SOL    HW2 7906  14.451  12.372   1.315
 2025SOL     OW 7907   0.890  13.372   7.811
 2025SOL    HW1 7908   0.952  13.363   7.883
 2025SOL    HW2 7909   0.945  13.369   7.732
 2026SOL     OW 7910  10.951  11.438   6.002
 2026SOL    HW1 7911  10.946  11.502   6.073
 2026SOL    HW2 7912  10.901  11.478   5.930
 2027SOL     OW 7913  14.356   0.987   1.386
 2027SOL    HW1 7914  14.400   0.998   1.471
 2027SOL    HW2 7915  14.267   0.960   1.409
 2028SOL     OW 7916   0.151  13.657   2.966
 2028SOL    HW1 7917   0.245  13.640   2.957
 2028SOL    HW2 7918   0.110  13.572   2.954
 2029SOL     OW 7919   5.211   3.837   7.567
 2029SOL    HW1 7920   5.178   3.921   7.536
 2029SOL    HW2 7921   5.154   3.815   7.641
 2030SOL     OW 7922   0.280  12.173   8.553
 2030SOL    HW1 7923   0.296  12.104   8.617
 2030SOL    HW2 7924   0.269  12.127   8.470
 2031SOL     OW 7925  14.067  12.899  12.481
 2031SOL    HW1 7926  14.012  12.848  12.540
 2031SOL    HW2 7927  14.099  12.835  12.417
 2032SOL     OW 7928   4.896   9.529  14.318
 2032SOL    HW1 7929   4.931   9.612  14.285
 2032SOL    HW2 7930   4.915   9.465  14.249
 2033SOL     OW 7931  12.498  14.416   3.038
 2033SOL    HW1 7932  12.474  14.437   3.128
 2033SOL    HW2 7933  12.479  14.323   3.028
 2034SOL     OW 7934   1.332   5.079  10.803
 2034SOL    HW1 7935   1.341   4.987  10.829
 2034SOL    HW2 7936   1.241   5.088  10.777
 2035SOL     OW 7937  11.244  14.101   8.805
 2035SOL    HW1 7938  11.207  14.044   8.872
 2035SOL    HW2 7939  11.182  14.097   8.732
 2036SOL     OW 7940   0.181  10.262   7.858
 2036SOL    HW1 7941   0.255  10.283   7.801
 2036SOL    HW2 7942   0.159  10.346   7.900
 2037SOL     OW 7943   9.539  10.963   6.915
 2037SOL    HW1 7944   9.623  10.999   6.886
 2037SOL    HW2 7945   9.547  10.869   6.902
 2038SOL     OW 7946   8.583   2.998  13.481
 2038SOL    HW1 7947   8.676   3.015  13.500
 2038SOL    HW2 7948   8.585   2.934  13.410
 2039SOL     OW 7949  14.249  13.509  12.481
 2039SOL    HW1 7950  14.206  13.428  12.509
 2039SOL    HW2 7951  14.279  13.549  12.562
 2040SOL     OW 7952  13.847  10.731   1.014
 2040SOL    HW1 7953  13.799  10.665   0.964
 2040SOL    HW2 7954  13.835  10.812   0.965
 2041SOL     OW 7955  12.637   4.349   0.968
 2041SOL    HW1 7956  12.556   4.392   0.941
 2041SOL    HW2 7957  12.614   4.305   1.050
 2042SOL     OW 7958   8.572   6.481  13.441
 2042SOL    HW1 7959   8.639   6.540  13.476
 2042SOL    HW2 7960   8.522   6.534  13.380
 2043SOL     OW 7961   2.600  14.187   0.450
 2043SOL    HW1 7962   2.540  14.250   0.488
 2043SOL    HW2 7963   2.681  14.237   0.435
 2044SOL     OW 7964   9.157   2.417   0.191
 2044SOL    HW1 7965   9.187   2.501   0.155
 2044SOL    HW2 7966   9.062   2.421   0.187
 2045SOL     OW 7967   9.631   2.694  14.115
 2045SOL    HW1 7968   9.618   2.669  14.023
 2045SOL    HW2 7969   9.653   2.612  14.159
 2046SOL     OW 7970   6.584  11.147   3.667
 2046SOL    HW1 7971   6.584  11.150   3.572
 2046SOL    HW2 7972   6.664  11.099   3.690
 2047SOL     OW 7973   8.254   6.678   3.914
 2047SOL    HW1 7974   8.221   6.678   4.003
 2047SOL    HW2 7975   8.341   6.718   3.920
 2048SOL     OW 7976   6.929  13.037   1.651
 2048SOL    HW1 7977   6.876  13.021   1.729
 2048SOL    HW2 7978   6.983  12.958   1.643
 2049SOL     OW 7979   6.112   4.703   0.776
 2049SOL    HW1 7980   6.125   4.793   0.806
 2049SOL    HW2 7981   6.062   4.662   0.846
 2050SOL     OW 7982  14.799   2.761   5.001
 2050SOL    HW1 7983  14.863   2.696   5.032
 2050SOL    HW2 7984  14.744   2.712   4.940
 2051SOL     OW 7985   0.137   6.825   9.603
 2051SOL    HW1 7986   0.048   6.855   9.617
 2051SOL    HW2 7987   0.153   6.839   9.510
 2052SOL     OW 7988  11.156   4.688  10.844
 2052SOL    HW1 7989  11.078   4.741  10.857
 2052SOL    HW2 7990  11.133   4.627  10.773
 2053SOL     OW 7991   3.764   3.971   7.522
 2053SOL    HW1 7992   3.829   3.939   7.585
 2053SOL    HW2 7993   3.746   3.896   7.466
 2054SOL     OW 7994   8.312   3.314   0.958
 2054SOL    HW1 7995   8.276   3.226   0.960
 2054SOL    HW2 7996   8.240   3.371   0.983
 2055SOL     OW 7997   8.928   4.961  11.763
 2055SOL    HW1 7998   8.856   5.022  11.782
 2055SOL    HW2 7999   8.901   4.918  11.682
 2056SOL     OW 8000  11.307   0.069   7.490
 2056SOL    HW1 8001  11.360   0.090   7.413
 2056SOL    HW2 8002  11.368   0.027   7.550
 2057SOL     OW 8003   7.452  14.024   0.862
 2057SOL    HW1 8004   7.547  14.015   0.868
 2057SOL    HW2 8005   7.418  13.942   0.898
 2058SOL     OW 8006   3.697   9.809   4.422
 2058SOL    HW1 8007   3.741   9.779   4.343
 2058SOL    HW2 8008   3.610   9.770   4.417
 2059SOL     OW 8009  11.326   2.664   6.949
 2059SOL    HW1 8010  11.399   2.725   6.938
 2059SOL    HW2 8011  11.341   2.598   6.881
 2060SOL     OW 8012  11.266   7.982   9.151
 2060SOL    HW1 8013  11.248   8.013   9.062
 2060SOL    HW2 8014  11.206   7.908   9.163
 2061SOL     OW 8015   9.840  10.510   0.798
 2061SOL    HW1 8016   9.908  10.532   0.861
 2061SOL    HW2 8017   9.820  10.418   0.815
 2062SOL     OW 8018   9.016   6.642  10.496
 2062SOL    HW1 8019   9.063   6.725  10.492
 2062SOL    HW2 8020   8.931   6.665  10.533
 2063SOL     OW 8021   1.059   6.581   1.047
 2063SOL    HW1 8022   1.065   6.487   1.027
 2063SOL    HW2 8023   1.008   6.585   1.128
 2064SOL     OW 8024   6.540  11.215   6.669
 2064SOL    HW1 8025   6.631  11.215   6.698
 2064SOL    HW2 8026   6.489  11.234   6.748
 2065SOL     OW 8027   0.119  12.832   4.648
 2065SOL    HW1 8028   0.170  12.895   4.597
 2065SOL    HW2 8029   0.089  12.768   4.584
 2066SOL     OW 8030  13.600  14.783  11.443
 2066SOL    HW1 8031  13.693  14.792  11.422
 2066SOL    HW2 8032  13.589  14.690  11.461
 2067SOL     OW 8033  11.818   2.635   7.860
 2067SOL    HW1 8034  11.724   2.636   7.848
 2067SOL    HW2 8035  11.851   2.701   7.799
 2068SOL     OW 8036  13.385   6.333   2.498
 2068SOL    HW1 8037  13.326   6.381   2.556
 2068SOL    HW2 8038  13.334   6.319   2.418
 2069SOL     OW 8039   8.379  14.314  11.595
 2069SOL    HW1 8040   8.367  14.257  11.519
 2069SOL    HW2 8041   8.466  14.352  11.584
 2070SOL     OW 8042   6.600   4.731   2.138
 2070SOL    HW1 8043   6.686   4.747   2.178
 2070SOL    HW2 8044   6.541   4.790   2.185
 2071SOL     OW 8045   4.941   5.868   6.145
 2071SOL    HW1 8046   4.865   5.903   6.099
 2071SOL    HW2 8047   4.971   5.940   6.202
 2072SOL     OW 8048  13.540  11.809  11.807
 2072SOL    HW1 8049  13.577  11.851  11.885
 2072SOL    HW2 8050  13.546  11.715  11.827
 2073SOL     OW 8051   7.361  10.811   2.521
 2073SOL    HW1 8052   7.424  10.801   2.449
 2073SOL    HW2 8053   7.415  10.835   2.596
 2074SOL     OW 8054  11.255   5.368  10.203
 2074SOL    HW1 8055  11.236   5.312  10.279
 2074SOL    HW2 8056  11.345   5.344  10.178
 2075SOL     OW 8057  14.393   7.067   7.743
 2075SOL    HW1 8058  14.425   7.149   7.705
 2075SOL    HW2 8059  14.416   7.073   7.836
 2076SOL     OW 8060   0.612   5.025   1.951
 2076SOL    HW1 8061   0.700   5.063   1.950
 2076SOL    HW2 8062   0.612   4.966   2.027
 2077SOL     OW 8063  11.328   4.263  13.359
 2077SOL    HW1 8064  11.369   4.177  13.369
 2077SOL    HW2 8065  11.398   4.325  13.381
 2078SOL     OW 8066   0.441   0.835   6.236
 2078SOL    HW1 8067   0.468   0.909   6.291
 2078SOL    HW2 8068   0.349   0.821   6.258
 2079SOL     OW 8069   5.737   0.215  13.779
 2079SOL    HW1 8070   5.676   0.144  13.801
 2079SOL    HW2 8071   5.694   0.263  13.708
 2080SOL     OW 8072   6.305  12.180   8.656
 2080SOL    HW1 8073   6.294  12.216   8.568
 2080SOL    HW2 8074   6.226  12.207   8.703
 2081SOL     OW 8075   8.164   0.636   3.064
 2081SOL    HW1 8076   8.087   0.670   3.019
 2081SOL    HW2 8077   8.146   0.543   3.076
 2082SOL     OW 8078  13.689   0.450   1.586
 2082SOL    HW1 8079  13.759   0.496   1.539
 2082SOL    HW2 8080  13.648   0.394   1.519
 2083SOL     OW 8081  14.028  13.318   3.282
 2083SOL    HW1 8082  13.999  13.354   3.366
 2083SOL    HW2 8083  14.016  13.223   3.291
 2084SOL     OW 8084   9.021  12.613  12.099
 2084SOL    HW1 8085   9.044  12.689  12.045
 2084SOL    HW2 8086   9.058  12.633  12.185
 2085SOL     OW 8087   0.547   8.759   2.083
 2085SOL    HW1 8088   0.464   8.802   2.062
 2085SOL    HW2 8089   0.614   8.820   2.053
 2086SOL     OW 8090   9.490   9.570   7.060
 2086SOL    HW1 8091   9.512   9.589   7.151
 2086SOL    HW2 8092   9.558   9.509   7.031
 2087SOL     OW 8093   6.352   2.449  13.558
 2087SOL    HW1 8094   6.333   2.363  13.596
 2087SOL    HW2 8095   6.269   2.477  13.519
 2088SOL     OW 8096  11.420   8.755   0.019
 2088SOL    HW1 8097  11.378   8.673  14.873
 2088SOL    HW2 8098  11.348   8.816   0.033
 2089SOL     OW 8099  13.933   0.866   5.046
 2089SOL    HW1 8100  13.927   0.961   5.051
 2089SOL    HW2 8101  14.027   0.848   5.043
 2090SOL     OW 8102   7.346   8.102   4.906
 2090SOL    HW1 8103   7.381   8.099   4.995
 2090SOL    HW2 8104   7.296   8.183   4.903
 2091SOL     OW 8105  11.083   7.821   5.610
 2091SOL    HW1 8106  11.133   7.770   5.675
 2091SOL    HW2 8107  11.061   7.902   5.655
 2092SOL     OW 8108   1.240   1.680   6.510
 2092SOL    HW1 8109   1.314   1.627   6.540
 2092SOL    HW2 8110   1.223   1.740   6.582
 2093SOL     OW 8111   0.071  10.205   9.235
 2093SOL    HW1 8112   0.016  10.196   9.158
 2093SOL    HW2 8113   0.139  10.139   9.225
 2094SOL     OW 8114   1.292  11.293   5.726
 2094SOL    HW1 8115   1.206  11.322   5.695
 2094SOL    HW2 8116   1.300  11.203   5.695
 2095SOL     OW 8117   5.289   6.727   2.199
 2095SOL    HW1 8118   5.225   6.662   2.228
 2095SOL    HW2 8119   5.242   6.811   2.207
 2096SOL     OW 8120   7.366   1.670   2.533
 2096SOL    HW1 8121   7.344   1.636   2.446
 2096SOL    HW2 8122   7.455   1.640   2.549
 2097SOL     OW 8123   8.754   4.247   2.760
 2097SOL    HW1 8124   8.747   4.338   2.792
 2097SOL    HW2 8125   8.848   4.229   2.763
 2098SOL     OW 8126  12.312   8.998  11.954
 2098SOL    HW1 8127  12.343   8.963  12.038
 2098SOL    HW2 8128  12.262   8.927  11.915
 2099SOL     OW 8129   4.023   1.087  11.670
 2099SOL    HW1 8130   4.051   1.178  11.663
 2099SOL    HW2 8131   4.067   1.053  11.748
 2100SOL     OW 8132   6.073   7.463  13.659
 2100SOL    HW1 8133   6.114   7.513  13.589
 2100SOL    HW2 8134   6.001   7.417  13.617
 2101SOL     OW 8135   8.866   3.174   6.471
 2101SOL    HW1 8136   8.801   3.243   6.484
 2101SOL    HW2 8137   8.938   3.198   6.529
 2102SOL     OW 8138   6.526  11.204   1.171
 2102SOL    HW1 8139   6.572  11.288   1.174
 2102SOL    HW2 8140   6.580  11.146   1.225
 2103SOL     OW 8141   4.957   0.294   0.184
 2103SOL    HW1 8142   5.039   0.302   0.137
 2103SOL    HW2 8143   4.889   0.312   0.119
 2104SOL     OW 8144   2.859  11.199   6.096
 2104SOL    HW1 8145   2.839  11.107   6.108
 2104SOL    HW2 8146   2.858  11.212   6.001
 2105SOL     OW 8147   4.202   7.188   0.137
 2105SOL    HW1 8148   4.282   7.240   0.144
 2105SOL    HW2 8149   4.170   7.180   0.226
 2106SOL     OW 8150  10.762   0.939  10.405
 2106SOL    HW1 8151  10.705   1.013  10.382
 2106SOL    HW2 8152  10.784   0.953  10.497
 2107SOL     OW 8153  11.454  11.749  11.748
 2107SOL    HW1 8154  11.468  11.655  11.758
 2107SOL    HW2 8155  11.380  11.769  11.805
 2108SOL     OW 8156  10.821   5.532   6.883
 2108SOL    HW1 8157  10.914   5.556   6.874
 2108SOL    HW2 8158  10.811   5.455   6.827
 2109SOL     OW 8159   0.174   8.588   9.461
 2109SOL    HW1 8160   0.137   8.521   9.404
 2109SOL    HW2 8161   0.182   8.665   9.405
 2110SOL     OW 8162  10.948   8.622   0.105
 2110SOL    HW1 8163  10.875   8.681   0.121
 2110SOL    HW2 8164  10.934   8.590   0.016
 2111SOL     OW 8165  13.845   3.759   7.367
 2111SOL    HW1 8166  13.831   3.842   7.412
 2111SOL    HW2 8167  13.770   3.751   7.308
 2112SOL     OW 8168  13.867   5.693   3.077
 2112SOL    HW1 8169  13.800   5.735   3.131
 2112SOL    HW2 8170  13.941   5.681   3.137
 2113SOL     OW 8171   9.385   4.984   0.965
 2113SOL    HW1 8172   9.453   5.036   0.921
 2113SOL    HW2 8173   9.351   4.927   0.896
 2114SOL     OW 8174   4.644   5.869   6.835
 2114SOL    HW1 8175   4.561   5.897   6.874
 2114SOL    HW2 8176   4.711   5.897   6.898
 2115SOL     OW 8177  13.177   5.882   5.538
 2115SOL    HW1 8178  13.223   5.942   5.479
 2115SOL    HW2 8179  13.206   5.910   5.626
 2116SOL     OW 8180  10.971   1.102   5.657
 2116SOL    HW1 8181  10.937   1.123   5.743
 2116SOL    HW2 8182  10.928   1.020   5.633
 2117SOL     OW 8183  12.649  13.973   1.307
 2117SOL    HW1 8184  12.732  13.993   1.263
 2117SOL    HW2 8185  12.670  13.902   1.367
 2118SOL     OW 8186   3.271  11.943  14.565
 2118SOL    HW1 8187   3.245  12.004  14.633
 2118SOL    HW2 8188   3.210  11.959  14.493
 2119SOL     OW 8189   5.863   3.434   4.278
 2119SOL    HW1 8190   5.908   3.358   4.241
 2119SOL    HW2 8191   5.934   3.492   4.307
 2120SOL     OW 8192   0.361  12.074  13.099
 2120SOL    HW1 8193   0.266  12.069  13.089
 2120SOL    HW2 8194   0.393  11.989  13.071
 2121SOL     OW 8195  11.224  10.761   9.925
 2121SOL    HW1 8196  11.304  10.811   9.938
 2121SOL    HW2 8197  11.174  10.773  10.006
 2122SOL     OW 8198  12.748   0.068   2.424
 2122SOL    HW1 8199  12.719   0.149   2.465
 2122SOL    HW2 8200  12.704   0.066   2.339
 2123SOL     OW 8201  13.695   9.448  12.398
 2123SOL    HW1 8202  13.687   9.385  12.327
 2123SOL    HW2 8203  13.738   9.524  12.358
 2124SOL     OW 8204  10.497   6.598   6.177
 2124SOL    HW1 8205  10.431   6.542   6.137
 2124SOL    HW2 8206  10.579   6.572   6.135
 2125SOL     OW 8207   6.121   8.535   1.891
 2125SOL    HW1 8208   6.065   8.511   1.817
 2125SOL    HW2 8209   6.111   8.630   1.899
 2126SOL     OW 8210   2.898   0.330  13.830
 2126SOL    HW1 8211   2.921   0.370  13.746
 2126SOL    HW2 8212   2.943   0.245  13.830
 2127SOL     OW 8213   4.070   6.980   6.512
 2127SOL    HW1 8214   4.165   6.986   6.502
 2127SOL    HW2 8215   4.043   6.920   6.442
 2128SOL     OW 8216   9.777   8.048   6.113
 2128SOL    HW1 8217   9.839   7.977   6.095
 2128SOL    HW2 8218   9.828   8.128   6.102
 2129SOL     OW 8219   2.642   5.255   2.499
 2129SOL    HW1 8220   2.601   5.190   2.443
 2129SOL    HW2 8221   2.570   5.290   2.553
 2130SOL     OW 8222  13.579   0.312  10.210
 2130SOL    HW1 8223  13.673   0.301  10.226
 2130SOL    HW2 8224  13.572   0.401  10.175
 2131SOL     OW 8225   5.160  13.857   7.001
 2131SOL    HW1 8226   5.067  13.875   7.014
 2131SOL    HW2 8227   5.198  13.860   7.089
 2132SOL     OW 8228  13.562   1.502  13.809
 2132SOL    HW1 8229  13.571   1.408  13.822
 2132SOL    HW2 8230  13.639   1.539  13.853
 2133SOL     OW 8231   2.492   1.107   7.897
 2133SOL    HW1 8232   2.484   1.171   7.968
 2133SOL    HW2 8233   2.402   1.091   7.868
 2134SOL     OW 8234  10.065   4.469   3.597
 2134SOL    HW1 8235   9.980   4.426   3.598
 2134SOL    HW2 8236  10.121   4.411   3.545
 2135SOL     OW 8237   8.149  12.922  13.176
 2135SOL    HW1 8238   8.244  12.910  13.179
 2135SOL    HW2 8239   8.136  13.015  13.190
 2136SOL     OW 8240   1.351  14.165  12.660
 2136SOL    HW1 8241   1.417  14.101  12.635
 2136SOL    HW2 8242   1.384  14.204  12.741
 2137SOL     OW 8243   6.373   6.278  14.826
 2137SOL    HW1 8244   6.292   6.271  14.877
 2137SOL    HW2 8245   6.370   6.204  14.766
 2138SOL     OW 8246   4.783   9.102   1.239
 2138SOL    HW1 8247   4.750   9.189   1.214
 2138SOL    HW2 8248   4.850   9.120   1.305
 2139SOL     OW 8249  13.849   4.699   4.629
 2139SOL    HW1 8250  13.916   4.762   4.656
 2139SOL    HW2 8251  13.770   4.752   4.617
 2140SOL     OW 8252  13.224   0.391   1.957
 2140SOL    HW1 8253  13.272   0.425   1.881
 2140SOL    HW2 8254  13.237   0.297   1.954
 2141SOL     OW 8255   0.287   2.485  14.641
 2141SOL    HW1 8256   0.205   2.435  14.641
 2141SOL    HW2 8257   0.339   2.446  14.711
 2142SOL     OW 8258  13.243  12.772   8.121
 2142SOL    HW1 8259  13.148  12.761   8.131
 2142SOL    HW2 8260  13.258  12.864   8.143
 2143SOL     OW 8261  11.670   7.072   8.801
 2143SOL    HW1 8262  11.700   7.153   8.761
 2143SOL    HW2 8263  11.736   7.007   8.777
 2144SOL     OW 8264  13.905   8.171  10.028
 2144SOL    HW1 8265  13.866   8.092   9.992
 2144SOL    HW2 8266  13.835   8.237  10.023
 2145SOL     OW 8267   2.483   7.000   6.749
 2145SOL    HW1 8268   2.523   6.913   6.752
 2145SOL    HW2 8269   2.397   6.988   6.790
 2146SOL     OW 8270  11.358   0.311  13.343
 2146SOL    HW1 8271  11.298   0.266  13.285
 2146SOL    HW2 8272  11.424   0.349  13.284
 2147SOL     OW 8273   7.745  12.620   6.186
 2147SOL    HW1 8274   7.714  12.704   6.219
 2147SOL    HW2 8275   7.773  12.638   6.096
 2148SOL     OW 8276  14.833  14.049   9.957
 2148SOL    HW1 8277  14.854  13.957   9.938
 2148SOL    HW2 8278   0.039  14.092   9.966
 2149SOL     OW 8279   7.563  14.592  12.829
 2149SOL    HW1 8280   7.647  14.557  12.797
 2149SOL    HW2 8281   7.574  14.594  12.924
 2150SOL     OW 8282   8.563  13.914   3.154
 2150SOL    HW1 8283   8.611  13.914   3.070
 2150SOL    HW2 8284   8.573  14.003   3.187
 2151SOL     OW 8285  13.275   3.977   5.713
 2151SOL    HW1 8286  13.306   4.050   5.766
 2151SOL    HW2 8287  13.180   3.983   5.716
 2152SOL     OW 8288   8.027  14.206   6.952
 2152SOL    HW1 8289   8.015  14.157   7.033
 2152SOL    HW2 8290   7.941  14.203   6.909
 2153SOL     OW 8291   4.810  10.724  10.580
 2153SOL    HW1 8292   4.878  10.790  10.560
 2153SOL    HW2 8293   4.765  10.711  10.496
 2154SOL     OW 8294   0.872   8.665   4.097
 2154SOL    HW1 8295   0.941   8.726   4.123
 2154SOL    HW2 8296   0.791   8.714   4.110
 2155SOL     OW 8297  12.585  12.292  14.386
 2155SOL    HW1 8298  12.642  12.277  14.311
 2155SOL    HW2 8299  12.610  12.224  14.449
 2156SOL     OW 8300  11.055   3.726  11.518
 2156SOL    HW1 8301  11.003   3.663  11.568
 2156SOL    HW2 8302  11.026   3.714  11.427
 2157SOL     OW 8303   4.072  11.254  14.565
 2157SOL    HW1 8304   4.143  11.191  14.551
 2157SOL    HW2 8305   4.044  11.277  14.477
 2158SOL     OW 8306  12.746   9.794   5.197
 2158SOL    HW1 8307  12.699   9.738   5.134
 2158SOL    HW2 8308  12.782   9.865   5.143
 2159SOL     OW 8309   8.598  11.223   9.083
 2159SOL    HW1 8310   8.690  11.245   9.070
 2159SOL    HW2 8311   8.595  11.176   9.166
 2160SOL     OW 8312  11.965   9.449   2.766
 2160SOL    HW1 8313  12.049   9.462   2.809
 2160SOL    HW2 8314  11.903   9.440   2.839
 2161SOL     OW 8315   1.969   7.503  13.998
 2161SOL    HW1 8316   1.996   7.581  13.949
 2161SOL    HW2 8317   1.945   7.439  13.930
 2162SOL     OW 8318   9.241   4.759   8.851
 2162SOL    HW1 8319   9.181   4.779   8.780
 2162SOL    HW2 8320   9.217   4.819   8.922
 2163SOL     OW 8321   8.096  13.360   0.720
 2163SOL    HW1 8322   8.007  13.354   0.754
 2163SOL    HW2 8323   8.129  13.270   0.725
 2164SOL     OW 8324   3.061  10.656  10.940
 2164SOL    HW1 8325   2.977  10.611  10.947
 2164SOL    HW2 8326   3.048  10.738  10.987
 2165SOL     OW 8327   5.406   2.858  14.385
 2165SOL    HW1 8328   5.460   2.780  14.376
 2165SOL    HW2 8329   5.418   2.885  14.476
 2166SOL     OW 8330  10.853   9.845   3.763
 2166SOL    HW1 8331  10.898   9.869   3.682
 2166SOL    HW2 8332  10.774   9.899   3.763
 2167SOL     OW 8333   2.804  10.985  10.464
 2167SOL    HW1 8334   2.730  10.958  10.409
 2167SOL    HW2 8335   2.877  10.930  10.435
 2168SOL     OW 8336   4.781   4.422   1.363
 2168SOL    HW1 8337   4.728   4.490   1.404
 2168SOL    HW2 8338   4.777   4.441   1.269
 2169SOL     OW 8339   8.103  14.215   4.299
 2169SOL    HW1 8340   8.158  14.148   4.339
 2169SOL    HW2 8341   8.029  14.166   4.262
 2170SOL     OW 8342   9.810   1.996  10.186
 2170SOL    HW1 8343   9.772   1.967  10.269
 2170SOL    HW2 8344   9.783   2.088  10.178
 2171SOL     OW 8345   2.564   5.303   6.940
 2171SOL    HW1 8346   2.645   5.304   6.889
 2171SOL    HW2 8347   2.515   5.379   6.909
 2172SOL     OW 8348   8.444   9.743   2.002
 2172SOL    HW1 8349   8.525   9.776   2.041
 2172SOL    HW2 8350   8.374   9.783   2.053
 2173SOL     OW 8351  12.319  13.888   2.568
 2173SOL    HW1 8352  12.301  13.980   2.548
 2173SOL    HW2 8353  12.379  13.859   2.499
 2174SOL     OW 8354  10.575  11.992  14.828
 2174SOL    HW1 8355  10.620  12.012  14.746
 2174SOL    HW2 8356  10.643  12.000   0.016
 2175SOL     OW 8357  11.559   5.329   5.310
 2175SOL    HW1 8358  11.647   5.336   5.271
 2175SOL    HW2 8359  11.531   5.419   5.323
 2176SOL     OW 8360   7.608   7.191   7.813
 2176SOL    HW1 8361   7.652   7.275   7.825
 2176SOL    HW2 8362   7.659   7.146   7.746
 2177SOL     OW 8363   2.259   4.858   3.485
 2177SOL    HW1 8364   2.263   4.954   3.484
 2177SOL    HW2 8365   2.285   4.834   3.574
 2178SOL     OW 8366  12.054  10.732   1.056
 2178SOL    HW1 8367  11.972  10.702   1.017
 2178SOL    HW2 8368  12.121  10.714   0.990
 2179SOL     OW 8369  11.729  11.588   4.473
 2179SOL    HW1 8370  11.705  11.509   4.425
 2179SOL    HW2 8371  11.676  11.584   4.553
 2180SOL     OW 8372   6.892   4.713   8.948
 2180SOL    HW1 8373   6.977   4.725   8.990
 2180SOL    HW2 8374   6.834   4.684   9.019
 2181SOL     OW 8375  13.804  14.537   5.061
 2181SOL    HW1 8376  13.732  14.595   5.085
 2181SOL    HW2 8377  13.822  14.487   5.140
 2182SOL     OW 8378   7.837   6.033  10.433
 2182SOL    HW1 8379   7.854   6.118  10.474
 2182SOL    HW2 8380   7.913   6.017  10.378
 2183SOL     OW 8381   1.653  12.202  10.910
 2183SOL    HW1 8382   1.699  12.176  10.830
 2183SOL    HW2 8383   1.597  12.128  10.931
 2184SOL     OW 8384  12.859  14.764   7.415
 2184SOL    HW1 8385  12.867  14.838   7.475
 2184SOL    HW2 8386  12.786  14.712   7.451
 2185SOL     OW 8387   7.710   9.525   2.031
 2185SOL    HW1 8388   7.684   9.474   2.107
 2185SOL    HW2 8389   7.685   9.615   2.053
 2186SOL     OW 8390  10.142   5.404  12.103
 2186SOL    HW1 8391  10.124   5.482  12.156
 2186SOL    HW2 8392  10.115   5.331  12.159
 2187SOL     OW 8393   1.433   1.164   4.659
 2187SOL    HW1 8394   1.460   1.217   4.733
 2187SOL    HW2 8395   1.412   1.227   4.590
 2188SOL     OW 8396   9.021   6.627  10.785
 2188SOL    HW1 8397   8.960   6.664  10.721
 2188SOL    HW2 8398   9.090   6.693  10.793
 2189SOL     OW 8399  11.447  10.924   5.867
 2189SOL    HW1 8400  11.375  10.871   5.833
 2189SOL    HW2 8401  11.405  10.986   5.927
 2190SOL     OW 8402  10.173  13.731  13.763
 2190SOL    HW1 8403  10.182  13.733  13.668
 2190SOL    HW2 8404  10.110  13.661  13.780
 2191SOL     OW 8405   6.889  12.886   3.176
 2191SOL    HW1 8406   6.905  12.909   3.267
 2191SOL    HW2 8407   6.797  12.859   3.174
 2192SOL     OW 8408  11.549   8.044  11.380
 2192SOL    HW1 8409  11.465   8.040  11.334
 2192SOL    HW2 8410  11.553   8.133  11.415
 2193SOL     OW 8411  10.764   7.221   4.602
 2193SOL    HW1 8412  10.855   7.246   4.616
 2193SOL    HW2 8413  10.762   7.187   4.512
 2194SOL     OW 8414   0.175  13.157   6.447
 2194SOL    HW1 8415   0.246  13.185   6.505
 2194SOL    HW2 8416   0.101  13.213   6.471
 2195SOL     OW 8417   8.758   6.883   1.869
 2195SOL    HW1 8418   8.793   6.829   1.798
 2195SOL    HW2 8419   8.670   6.906   1.841
 2196SOL     OW 8420   7.599  10.734   3.731
 2196SOL    HW1 8421   7.584  10.827   3.717
 2196SOL    HW2 8422   7.540  10.690   3.669
 2197SOL     OW 8423   8.517  11.545   7.814
 2197SOL    HW1 8424   8.566  11.620   7.781
 2197SOL    HW2 8425   8.547  11.534   7.904
 2198SOL     OW 8426   8.560  10.081   6.610
 2198SOL    HW1 8427   8.503  10.156   6.596
 2198SOL    HW2 8428   8.633  10.115   6.662
 2199SOL     OW 8429   0.359  12.866  12.688
 2199SOL    HW1 8430   0.374  12.952  12.725
 2199SOL    HW2 8431   0.445  12.836  12.658
 2200SOL     OW 8432  12.687  10.530  13.592
 2200SOL    HW1 8433  12.628  10.604  13.608
 2200SOL    HW2 8434  12.629  10.458  13.569
 2201SOL     OW 8435   0.469   3.873   2.545
 2201SOL    HW1 8436   0.461   3.911   2.633
 2201SOL    HW2 8437   0.563   3.860   2.533
 2202SOL     OW 8438  14.534   0.723  11.680
 2202SOL    HW1 8439  14.557   0.631  11.668
 2202SOL    HW2 8440  14.608   0.761  11.726
 2203SOL     OW 8441   6.227   0.416   9.447
 2203SOL    HW1 8442   6.224   0.380   9.536
 2203SOL    HW2 8443   6.280   0.353   9.398
 2204SOL     OW 8444   9.369  14.783   3.737
 2204SOL    HW1 8445   9.283  14.757   3.704
 2204SOL    HW2 8446   9.375  14.743   3.824
 2205SOL     OW 8447   4.842   5.730   9.584
 2205SOL    HW1 8448   4.765   5.716   9.528
 2205SOL    HW2 8449   4.861   5.823   9.576
 2206SOL     OW 8450   0.194   7.110   5.364
 2206SOL    HW1 8451   0.269   7.052   5.383
 2206SOL    HW2 8452   0.135   7.055   5.312
 2207SOL     OW 8453   1.452   5.834   7.130
 2207SOL    HW1 8454   1.396   5.869   7.060
 2207SOL    HW2 8455   1.509   5.771   7.086
 2208SOL     OW 8456   0.475   4.481  10.998
 2208SOL    HW1 8457   0.485   4.465  10.905
 2208SOL    HW2 8458   0.466   4.393  11.037
 2209SOL     OW 8459  10.297   9.381   6.996
 2209SOL    HW1 8460  10.373   9.438   7.007
 2209SOL    HW2 8461  10.293   9.363   6.903
 2210SOL     OW 8462  13.516   2.133  10.966
 2210SOL    HW1 8463  13.573   2.192  10.917
 2210SOL    HW2 8464  13.496   2.180  11.047
 2211SOL     OW 8465   0.811   6.084  10.953
 2211SOL    HW1 8466   0.772   6.137  10.883
 2211SOL    HW2 8467   0.873   6.143  10.996
 2212SOL     OW 8468   5.459   2.411  11.513
 2212SOL    HW1 8469   5.433   2.461  11.436
 2212SOL    HW2 8470   5.385   2.353  11.531
 2213SOL     OW 8471  14.468   3.597   3.659
 2213SOL    HW1 8472  14.523   3.612   3.736
 2213SOL    HW2 8473  14.521   3.630   3.586
 2214SOL     OW 8474   0.125   3.991   7.656
 2214SOL    HW1 8475   0.140   4.084   7.638
 2214SOL    HW2 8476   0.031   3.978   7.640
 2215SOL     OW 8477  11.208   0.727   6.524
 2215SOL    HW1 8478  11.204   0.711   6.618
 2215SOL    HW2 8479  11.291   0.773   6.511
 2216SOL     OW 8480  11.178   3.688   1.958
 2216SOL    HW1 8481  11.166   3.612   2.016
 2216SOL    HW2 8482  11.256   3.732   1.992
 2217SOL     OW 8483   4.386  11.590   6.912
 2217SOL    HW1 8484   4.323  11.653   6.876
 2217SOL    HW2 8485   4.446  11.643   6.964
 2218SOL     OW 8486   3.613  11.387   8.151
 2218SOL    HW1 8487   3.705  11.364   8.164
 2218SOL    HW2 8488   3.604  11.396   8.056
 2219SOL     OW 8489  10.550   5.646   2.742
 2219SOL    HW1 8490  10.577   5.702   2.669
 2219SOL    HW2 8491  10.613   5.663   2.811
 2220SOL     OW 8492   0.679   1.644   2.418
 2220SOL    HW1 8493   0.663   1.565   2.367
 2220SOL    HW2 8494   0.767   1.672   2.392
 2221SOL     OW 8495   6.267   0.778   7.428
 2221SOL    HW1 8496   6.327   0.850   7.407
 2221SOL    HW2 8497   6.187   0.821   7.459
 2222SOL     OW 8498   3.096   8.737   7.733
 2222SOL    HW1 8499   3.007   8.743   7.699
 2222SOL    HW2 8500   3.138   8.670   7.679
 2223SOL     OW 8501   8.665  14.292   8.284
 2223SOL    HW1 8502   8.744  14.251   8.318
 2223SOL    HW2 8503   8.594  14.234   8.313
 2224SOL     OW 8504   4.684   1.813  14.732
 2224SOL    HW1 8505   4.689   1.851  14.644
 2224SOL    HW2 8506   4.594   1.780  14.739
 2225SOL     OW 8507   7.486  10.378   7.813
 2225SOL    HW1 8508   7.428  10.326   7.868
 2225SOL    HW2 8509   7.492  10.463   7.857
 2226SOL     OW 8510  14.554  14.335   3.644
 2226SOL    HW1 8511  14.519  14.421   3.619
 2226SOL    HW2 8512  14.626  14.355   3.703
 2227SOL     OW 8513   4.449   5.795  14.720
 2227SOL    HW1 8514   4.464   5.889  14.710
 2227SOL    HW2 8515   4.422   5.765  14.634
 2228SOL     OW 8516  14.782  12.730   4.928
 2228SOL    HW1 8517  14.810  12.686   4.847
 2228SOL    HW2 8518  14.688  12.711   4.934
 2229SOL     OW 8519   8.537   9.962   7.528
 2229SOL    HW1 8520   8.618   9.929   7.488
 2229SOL    HW2 8521   8.522   9.904   7.602
 2230SOL     OW 8522  12.442  13.330   5.151
 2230SOL    HW1 8523  12.530  13.364   5.130
 2230SOL    HW2 8524  12.408  13.393   5.216
 2231SOL     OW 8525  13.034   2.798   1.755
 2231SOL    HW1 8526  12.955   2.782   1.702
 2231SOL    HW2 8527  13.104   2.810   1.691
 2232SOL     OW 8528   7.316   7.324   8.101
 2232SOL    HW1 8529   7.325   7.229   8.113
 2232SOL    HW2 8530   7.405   7.358   8.110
 2233SOL     OW 8531   4.709   2.748   6.394
 2233SOL    HW1 8532   4.712   2.834   6.436
 2233SOL    HW2 8533   4.651   2.760   6.319
 2234SOL     OW 8534   3.792   2.746   9.359
 2234SOL    HW1 8535   3.798   2.834   9.396
 2234SOL    HW2 8536   3.746   2.695   9.426
 2235SOL     OW 8537  12.111  14.803  14.224
 2235SOL    HW1 8538  12.170  14.803  14.298
 2235SOL    HW2 8539  12.056   0.002  14.237
 2236SOL     OW 8540   7.851  10.032   1.792
 2236SOL    HW1 8541   7.837   9.950   1.744
 2236SOL    HW2 8542   7.782  10.034   1.857
 2237SOL     OW 8543   1.733   8.544   6.557
 2237SOL    HW1 8544   1.733   8.582   6.645
 2237SOL    HW2 8545   1.789   8.601   6.506
 2238SOL     OW 8546   0.573  13.837  11.715
 2238SOL    HW1 8547   0.542  13.899  11.781
 2238SOL    HW2 8548   0.645  13.791  11.757
 2239SOL     OW 8549   9.174   1.747   6.919
 2239SOL    HW1 8550   9.187   1.840   6.935
 2239SOL    HW2 8551   9.090   1.741   6.874
 2240SOL     OW 8552   8.373   9.193   9.575
 2240SOL    HW1 8553   8.404   9.244   9.499
 2240SOL    HW2 8554   8.452   9.153   9.610
 2241SOL     OW 8555   8.532   5.749   0.124
 2241SOL    HW1 8556   8.465   5.781   0.062
 2241SOL    HW2 8557   8.498   5.665   0.155
 2242SOL     OW 8558   9.904   4.948   5.108
 2242SOL    HW1 8559   9.930   4.964   5.017
 2242SOL    HW2 8560   9.890   5.035   5.145
 2243SOL     OW 8561  10.971  13.078  14.313
 2243SOL    HW1 8562  10.904  13.065  14.380
 2243SOL    HW2 8563  11.036  13.134  14.355
 2244SOL     OW 8564   8.511   4.101   5.851
 2244SOL    HW1 8565   8.427   4.077   5.813
 2244SOL    HW2 8566   8.509   4.065   5.940
 2245SOL     OW 8567   7.824   3.168  12.612
 2245SOL    HW1 8568   7.787   3.129  12.532
 2245SOL    HW2 8569   7.762   3.237  12.635
 2246SOL     OW 8570   2.753   1.273  14.364
 2246SOL    HW1 8571   2.702   1.207  14.316
 2246SOL    HW2 8572   2.814   1.222  14.417
 2247SOL     OW 8573   6.703  10.099   7.829
 2247SOL    HW1 8574   6.754  10.029   7.788
 2247SOL    HW2 8575   6.683  10.159   7.758
 2248SOL     OW 8576   9.841  13.010   1.499
 2248SOL    HW1 8577   9.828  13.069   1.425
 2248SOL    HW2 8578   9.894  12.938   1.463
 2249SOL     OW 8579  12.300  10.851   9.616
 2249SOL    HW1 8580  12.375  10.840   9.557
 2249SOL    HW2 8581  12.226  10.811   9.569
 2250SOL     OW 8582   8.901   4.626   5.523
 2250SOL    HW1 8583   8.848   4.682   5.579
 2250SOL    HW2 8584   8.853   4.623   5.440
 2251SOL     OW 8585   0.676   3.426   2.052
 2251SOL    HW1 8586   0.600   3.480   2.074
 2251SOL    HW2 8587   0.689   3.440   1.959
 2252SOL     OW 8588   8.343   0.127   6.141
 2252SOL    HW1 8589   8.372   0.047   6.097
 2252SOL    HW2 8590   8.424   0.172   6.164
 2253SOL     OW 8591   2.136  12.545   1.759
 2253SOL    HW1 8592   2.111  12.624   1.807
 2253SOL    HW2 8593   2.204  12.574   1.699
 2254SOL     OW 8594   6.477  13.915  14.743
 2254SOL    HW1 8595   6.443  13.938  14.829
 2254SOL    HW2 8596   6.486  13.999  14.697
 2255SOL     OW 8597  14.311   4.301   9.276
 2255SOL    HW1 8598  14.228   4.320   9.319
 2255SOL    HW2 8599  14.289   4.242   9.204
 2256SOL     OW 8600   1.023  14.518   3.233
 2256SOL    HW1 8601   1.050  14.497   3.322
 2256SOL    HW2 8602   0.957  14.452   3.212
 2257SOL     OW 8603   0.730   5.661   1.530
 2257SOL    HW1 8604   0.724   5.695   1.619
 2257SOL    HW2 8605   0.821   5.676   1.505
 2258SOL     OW 8606  10.992   1.784   1.300
 2258SOL    HW1 8607  11.058   1.851   1.316
 2258SOL    HW2 8608  10.925   1.828   1.247
 2259SOL     OW 8609   4.708   8.491  13.984
 2259SOL    HW1 8610   4.770   8.419  13.979
 2259SOL    HW2 8611   4.759   8.568  13.958
 2260SOL     OW 8612  13.791  11.062   3.631
 2260SOL    HW1 8613  13.847  11.121   3.681
 2260SOL    HW2 8614  13.718  11.117   3.603
 2261SOL     OW 8615   8.098  12.988   7.458
 2261SOL    HW1 8616   8.002  12.979   7.461
 2261SOL    HW2 8617   8.120  12.975   7.366
 2262SOL     OW 8618   8.108   5.891  11.362
 2262SOL    HW1 8619   8.138   5.813  11.409
 2262SOL    HW2 8620   8.166   5.961  11.392
 2263SOL     OW 8621   8.687   5.191   7.892
 2263SOL    HW1 8622   8.669   5.151   7.806
 2263SOL    HW2 8623   8.669   5.284   7.879
 2264SOL     OW 8624   5.757  13.118   1.552
 2264SOL    HW1 8625   5.673  13.130   1.597
 2264SOL    HW2 8626   5.786  13.207   1.532
 2265SOL     OW 8627   2.360   6.643   2.316
 2265SOL    HW1 8628   2.305   6.566   2.299
 2265SOL    HW2 8629   2.382   6.636   2.409
 2266SOL     OW 8630  10.117   6.515   1.780
 2266SOL    HW1 8631  10.141   6.595   1.733
 2266SOL    HW2 8632  10.198   6.463   1.781
 2267SOL     OW 8633   9.571   8.270  11.001
 2267SOL    HW1 8634   9.574   8.203  10.934
 2267SOL    HW2 8635   9.658   8.270  11.040
 2268SOL     OW 8636   9.789   0.692  12.472
 2268SOL    HW1 8637   9.785   0.765  12.534
 2268SOL    HW2 8638   9.704   0.693  12.429
 2269SOL     OW 8639   6.328   3.639   9.678
 2269SOL    HW1 8640   6.349   3.717   9.626
 2269SOL    HW2 8641   6.388   3.572   9.645
 2270SOL     OW 8642   6.698   3.166   7.598
 2270SOL    HW1 8643   6.767   3.164   7.664
 2270SOL    HW2 8644   6.725   3.236   7.538
 2271SOL     OW 8645   2.983   2.771   4.775
 2271SOL    HW1 8646   2.915   2.715   4.811
 2271SOL    HW2 8647   3.065   2.727   4.798
 2272SOL     OW 8648   9.451   2.539   9.360
 2272SOL    HW1 8649   9.473   2.519   9.269
 2272SOL    HW2 8650   9.368   2.585   9.355
 2273SOL     OW 8651   0.454   3.169   8.700
 2273SOL    HW1 8652   0.487   3.160   8.790
 2273SOL    HW2 8653   0.360   3.155   8.708
 2274SOL     OW 8654  10.778   6.152   5.573
 2274SOL    HW1 8655  10.843   6.210   5.533
 2274SOL    HW2 8656  10.809   6.064   5.555
 2275SOL     OW 8657   1.701  14.712   2.894
 2275SOL    HW1 8658   1.680  14.783   2.954
 2275SOL    HW2 8659   1.616  14.681   2.863
 2276SOL     OW 8660   5.832   9.913   8.632
 2276SOL    HW1 8661   5.893   9.877   8.697
 2276SOL    HW2 8662   5.830   9.846   8.563
 2277SOL     OW 8663  11.183  10.122  10.491
 2277SOL    HW1 8664  11.122  10.065  10.538
 2277SOL    HW2 8665  11.222  10.177  10.558
 2278SOL     OW 8666  13.993   1.090  11.983
 2278SOL    HW1 8667  13.994   1.025  12.053
 2278SOL    HW2 8668  13.994   1.174  12.030
 2279SOL     OW 8669   3.383   4.861  13.775
 2279SOL    HW1 8670   3.338   4.778  13.757
 2279SOL    HW2 8671   3.431   4.845  13.855
 2280SOL     OW 8672   5.195  13.725  11.620
 2280SOL    HW1 8673   5.236  13.669  11.686
 2280SOL    HW2 8674   5.221  13.814  11.645
 2281SOL     OW 8675   6.582   4.924   7.961
 2281SOL    HW1 8676   6.541   4.901   7.877
 2281SOL    HW2 8677   6.571   5.018   7.969
 2282SOL     OW 8678  14.852   9.495   3.696
 2282SOL    HW1 8679  14.796   9.457   3.628
 2282SOL    HW2 8680  14.792   9.545   3.751
 2283SOL     OW 8681   6.158  10.624   0.577
 2283SOL    HW1 8682   6.158  10.694   0.643
 2283SOL    HW2 8683   6.190  10.547   0.624
 2284SOL     OW 8684   1.673   7.598   0.651
 2284SOL    HW1 8685   1.728   7.649   0.591
 2284SOL    HW2 8686   1.687   7.638   0.737
 2285SOL     OW 8687  10.036   0.280   7.002
 2285SOL    HW1 8688   9.960   0.222   7.011
 2285SOL    HW2 8689  10.046   0.321   7.087
 2286SOL     OW 8690   0.271  11.967   2.777
 2286SOL    HW1 8691   0.342  12.030   2.762
 2286SOL    HW2 8692   0.316  11.883   2.789
 2287SOL     OW 8693   2.701  13.003   6.692
 2287SOL    HW1 8694   2.609  13.011   6.720
 2287SOL    HW2 8695   2.721  13.088   6.654
 2288SOL     OW 8696   6.376  13.902  13.492
 2288SOL    HW1 8697   6.358  13.983  13.540
 2288SOL    HW2 8698   6.329  13.835  13.541
 2289SOL     OW 8699   4.421  13.906   5.713
 2289SOL    HW1 8700   4.433  13.865   5.628
 2289SOL    HW2 8701   4.327  13.896   5.732
 2290SOL     OW 8702  10.677   2.900   6.264
 2290SOL    HW1 8703  10.680   2.961   6.338
 2290SOL    HW2 8704  10.754   2.923   6.212
 2291SOL     OW 8705  13.301   9.062  11.756
 2291SOL    HW1 8706  13.296   8.993  11.690
 2291SOL    HW2 8707  13.395   9.080  11.766
 2292SOL     OW 8708  10.203   6.390   2.844
 2292SOL    HW1 8709  10.173   6.299   2.842
 2292SOL    HW2 8710  10.293   6.385   2.812
 2293SOL     OW 8711   4.885  11.153  13.653
 2293SOL    HW1 8712   4.906  11.180  13.564
 2293SOL    HW2 8713   4.821  11.218  13.683
 2294SOL     OW 8714   4.308  10.534   1.654
 2294SOL    HW1 8715   4.240  10.488   1.702
 2294SOL    HW2 8716   4.318  10.618   1.700
 2295SOL     OW 8717   5.492   4.094   8.121
 2295SOL    HW1 8718   5.512   4.093   8.028
 2295SOL    HW2 8719   5.560   4.149   8.160
 2296SOL     OW 8720  12.432   7.159   9.124
 2296SOL    HW1 8721  12.462   7.231   9.068
 2296SOL    HW2 8722  12.510   7.104   9.136
 2297SOL     OW 8723   1.357   6.999   8.040
 2297SOL    HW1 8724   1.312   6.996   8.125
 2297SOL    HW2 8725   1.430   7.059   8.054
 2298SOL     OW 8726   2.041  11.660   7.488
 2298SOL    HW1 8727   2.015  11.665   7.396
 2298SOL    HW2 8728   2.067  11.749   7.511
 2299SOL     OW 8729   8.469   4.577   7.774
 2299SOL    HW1 8730   8.374   4.565   7.779
 2299SOL    HW2 8731   8.500   4.502   7.722
 2300SOL     OW 8732   6.838   8.976   3.919
 2300SOL    HW1 8733   6.872   8.986   4.008
 2300SOL    HW2 8734   6.899   8.915   3.877
 2301SOL     OW 8735  10.991   4.580   9.701
 2301SOL    HW1 8736  11.044   4.542   9.770
 2301SOL    HW2 8737  11.053   4.623   9.642
 2302SOL     OW 8738   0.385   6.188   2.246
 2302SOL    HW1 8739   0.359   6.123   2.311
 2302SOL    HW2 8740   0.348   6.270   2.277
 2303SOL     OW 8741   5.678   0.291   7.763
 2303SOL    HW1 8742   5.721   0.217   7.719
 2303SOL    HW2 8743   5.623   0.330   7.696
 2304SOL     OW 8744  11.106   4.260   9.347
 2304SOL    HW1 8745  11.192   4.218   9.350
 2304SOL    HW2 8746  11.100   4.308   9.430
 2305SOL     OW 8747   2.114   3.577   5.795
 2305SOL    HW1 8748   2.099   3.629   5.873
 2305SOL    HW2 8749   2.108   3.639   5.722
 2306SOL     OW 8750   7.603  14.474  10.864
 2306SOL    HW1 8751   7.549  14.398  10.882
 2306SOL    HW2 8752   7.693  14.441  10.868
 2307SOL     OW 8753  13.345  13.554   1.759
 2307SOL    HW1 8754  13.277  13.497   1.723
 2307SOL    HW2 8755  13.422  13.536   1.706
 2308SOL     OW 8756  12.289  14.409   1.735
 2308SOL    HW1 8757  12.221  14.343   1.748
 2308SOL    HW2 8758  12.322  14.428   1.822
 2309SOL     OW 8759   8.229   7.622  12.553
 2309SOL    HW1 8760   8.191   7.660  12.633
 2309SOL    HW2 8761   8.198   7.679  12.483
 2310SOL     OW 8762  12.119   1.710   9.136
 2310SOL    HW1 8763  12.053   1.675   9.077
 2310SOL    HW2 8764  12.166   1.633   9.168
 2311SOL     OW 8765   4.395   2.006   1.922
 2311SOL    HW1 8766   4.433   2.030   2.006
 2311SOL    HW2 8767   4.314   1.960   1.944
 2312SOL     OW 8768   3.923  10.677   5.219
 2312SOL    HW1 8769   3.894  10.698   5.130
 2312SOL    HW2 8770   3.977  10.598   5.208
 2313SOL     OW 8771   1.849   6.229  11.388
 2313SOL    HW1 8772   1.877   6.318  11.410
 2313SOL    HW2 8773   1.895   6.209  11.306
 2314SOL     OW 8774   2.581   2.759   1.054
 2314SOL    HW1 8775   2.492   2.727   1.069
 2314SOL    HW2 8776   2.638   2.685   1.074
 2315SOL     OW 8777   9.100  12.556  13.089
 2315SOL    HW1 8778   9.105  12.462  13.072
 2315SOL    HW2 8779   9.071  12.593  13.006
 2316SOL     OW 8780  14.230   8.381   7.958
 2316SOL    HW1 8781  14.296   8.419   8.016
 2316SOL    HW2 8782  14.237   8.286   7.973
 2317SOL     OW 8783  10.900  11.137   1.552
 2317SOL    HW1 8784  10.936  11.204   1.611
 2317SOL    HW2 8785  10.805  11.152   1.555
 2318SOL     OW 8786   3.950  10.558  11.158
 2318SOL    HW1 8787   4.007  10.599  11.093
 2318SOL    HW2 8788   4.002  10.486  11.194
 2319SOL     OW 8789  13.679   8.138  13.294
 2319SOL    HW1 8790  13.587   8.163  13.289
 2319SOL    HW2 8791  13.725   8.218  13.317
 2320SOL     OW 8792   3.160   8.347   6.920
 2320SOL    HW1 8793   3.240   8.359   6.870
 2320SOL    HW2 8794   3.104   8.294   6.863
 2321SOL     OW 8795  11.048  14.312   7.491
 2321SOL    HW1 8796  11.000  14.319   7.574
 2321SOL    HW2 8797  11.116  14.248   7.508
 2322SOL     OW 8798   2.663   4.810  10.838
 2322SOL    HW1 8799   2.738   4.867  10.818
 2322SOL    HW2 8800   2.649   4.760  10.758
 2323SOL     OW 8801   7.667  13.207  10.160
 2323SOL    HW1 8802   7.697  13.116  10.161
 2323SOL    HW2 8803   7.623  13.218  10.245
 2324SOL     OW 8804   3.734   5.793   6.133
 2324SOL    HW1 8805   3.662   5.775   6.074
 2324SOL    HW2 8806   3.788   5.857   6.087
 2325SOL     OW 8807   7.632   5.240  10.913
 2325SOL    HW1 8808   7.617   5.152  10.946
 2325SOL    HW2 8809   7.700   5.276  10.969
 2326SOL     OW 8810   6.977   4.612   0.800
 2326SOL    HW1 8811   6.899   4.624   0.745
 2326SOL    HW2 8812   6.942   4.600   0.888
 2327SOL     OW 8813  12.567   4.474   8.529
 2327SOL    HW1 8814  12.655   4.447   8.503
 2327SOL    HW2 8815  12.568   4.469   8.624
 2328SOL     OW 8816   7.728   3.560  14.630
 2328SOL    HW1 8817   7.691   3.492  14.574
 2328SOL    HW2 8818   7.705   3.533  14.719
 2329SOL     OW 8819   9.115   3.351   1.374
 2329SOL    HW1 8820   9.045   3.376   1.434
 2329SOL    HW2 8821   9.087   3.383   1.288
 2330SOL     OW 8822  14.036  10.176   7.414
 2330SOL    HW1 8823  14.007  10.246   7.474
 2330SOL    HW2 8824  13.956  10.130   7.390
 2331SOL     OW 8825  10.046   1.568   1.688
 2331SOL    HW1 8826  10.016   1.566   1.597
 2331SOL    HW2 8827   9.972   1.533   1.738
 2332SOL     OW 8828  12.473   5.074   2.028
 2332SOL    HW1 8829  12.381   5.101   2.017
 2332SOL    HW2 8830  12.469   4.978   2.032
 2333SOL     OW 8831   3.421   7.537   4.669
 2333SOL    HW1 8832   3.496   7.500   4.623
 2333SOL    HW2 8833   3.445   7.534   4.762
 2334SOL     OW 8834   0.850   4.521  10.175
 2334SOL    HW1 8835   0.911   4.520  10.102
 2334SOL    HW2 8836   0.816   4.431  10.179
 2335SOL     OW 8837  13.664  11.477  12.467
 2335SOL    HW1 8838  13.612  11.399  12.446
 2335SOL    HW2 8839  13.615  11.549  12.427
 2336SOL     OW 8840   7.671  14.638   0.837
 2336SOL    HW1 8841   7.702  14.728   0.837
 2336SOL    HW2 8842   7.578  14.644   0.813
 2337SOL     OW 8843   3.480  10.200   1.795
 2337SOL    HW1 8844   3.514  10.177   1.881
 2337SOL    HW2 8845   3.470  10.116   1.750
 2338SOL     OW 8846   6.220   2.298  13.909
 2338SOL    HW1 8847   6.279   2.287  13.835
 2338SOL    HW2 8848   6.256   2.242  13.978
 2339SOL     OW 8849   7.447  12.596   5.266
 2339SOL    HW1 8850   7.377  12.594   5.201
 2339SOL    HW2 8851   7.435  12.514   5.316
 2340SOL     OW 8852   9.231   9.078  11.244
 2340SOL    HW1 8853   9.232   9.039  11.331
 2340SOL    HW2 8854   9.191   9.164  11.257
 2341SOL     OW 8855  12.347   7.403  11.157
 2341SOL    HW1 8856  12.418   7.349  11.191
 2341SOL    HW2 8857  12.268   7.353  11.174
 2342SOL     OW 8858   4.510   5.705   9.518
 2342SOL    HW1 8859   4.452   5.761   9.569
 2342SOL    HW2 8860   4.453   5.659   9.457
 2343SOL     OW 8861   0.347  14.173   7.971
 2343SOL    HW1 8862   0.424  14.195   7.918
 2343SOL    HW2 8863   0.383  14.136   8.051
 2344SOL     OW 8864   0.229   1.135   9.733
 2344SOL    HW1 8865   0.295   1.198   9.704
 2344SOL    HW2 8866   0.261   1.050   9.704
 2345SOL     OW 8867   6.850  13.781   8.316
 2345SOL    HW1 8868   6.800  13.856   8.284
 2345SOL    HW2 8869   6.834  13.711   8.252
 2346SOL     OW 8870   7.782   6.409   7.036
 2346SOL    HW1 8871   7.815   6.459   6.962
 2346SOL    HW2 8872   7.857   6.361   7.069
 2347SOL     OW 8873   8.616   1.724   1.301
 2347SOL    HW1 8874   8.545   1.732   1.365
 2347SOL    HW2 8875   8.571   1.700   1.219
 2348SOL     OW 8876   0.033   7.351   6.424
 2348SOL    HW1 8877   0.111   7.383   6.470
 2348SOL    HW2 8878  14.850   7.330   6.494
 2349SOL     OW 8879   8.810  14.412   8.905
 2349SOL    HW1 8880   8.783  14.414   8.813
 2349SOL    HW2 8881   8.906  14.409   8.902
 2350SOL     OW 8882   4.634   5.476  10.629
 2350SOL    HW1 8883   4.564   5.537  10.654
 2350SOL    HW2 8884   4.593   5.389  10.635
 2351SOL     OW 8885   8.983  13.954  12.710
 2351SOL    HW1 8886   9.015  13.919  12.626
 2351SOL    HW2 8887   8.892  13.925  12.715
 2352SOL     OW 8888   0.225   7.654   2.053
 2352SOL    HW1 8889   0.170   7.720   2.095
 2352SOL    HW2 8890   0.255   7.695   1.972
 2353SOL     OW 8891   6.109   1.244   7.756
 2353SOL    HW1 8892   6.083   1.289   7.676
 2353SOL    HW2 8893   6.188   1.195   7.732
 2354SOL     OW 8894   3.576  13.788  10.778
 2354SOL    HW1 8895   3.489  13.762  10.748
 2354SOL    HW2 8896   3.630  13.785  10.700
 2355SOL     OW 8897   3.251  12.920  10.888
 2355SOL    HW1 8898   3.322  12.856  10.875
 2355SOL    HW2 8899   3.247  12.932  10.983
 2356SOL     OW 8900   0.173   9.156   6.431
 2356SOL    HW1 8901   0.266   9.155   6.453
 2356SOL    HW2 8902   0.153   9.248   6.415
 2357SOL     OW 8903   2.234   0.842   2.096
 2357SOL    HW1 8904   2.272   0.773   2.151
 2357SOL    HW2 8905   2.296   0.915   2.104
 2358SOL     OW 8906   1.136  13.190   2.433
 2358SOL    HW1 8907   1.093  13.196   2.519
 2358SOL    HW2 8908   1.131  13.279   2.398
 2359SOL     OW 8909  11.889  10.328   9.713
 2359SOL    HW1 8910  11.823  10.359   9.651
 2359SOL    HW2 8911  11.972  10.356   9.675
 2360SOL     OW 8912  10.985   2.893   0.563
 2360SOL    HW1 8913  11.058   2.933   0.516
 2360SOL    HW2 8914  10.917   2.960   0.563
 2361SOL     OW 8915  12.469  13.767   2.353
 2361SOL    HW1 8916  12.488  13.713   2.276
 2361SOL    HW2 8917  12.554  13.804   2.376
 2362SOL     OW 8918  12.714   4.366   0.256
 2362SOL    HW1 8919  12.745   4.299   0.195
 2362SOL    HW2 8920  12.773   4.440   0.243
 2363SOL     OW 8921   7.634  13.764   1.256
 2363SOL    HW1 8922   7.630  13.705   1.332
 2363SOL    HW2 8923   7.548  13.804   1.252
 2364SOL     OW 8924   8.926   5.066  12.643
 2364SOL    HW1 8925   8.980   5.014  12.703
 2364SOL    HW2 8926   8.837   5.055  12.676
 2365SOL     OW 8927   1.641  14.160   3.523
 2365SOL    HW1 8928   1.691  14.121   3.451
 2365SOL    HW2 8929   1.651  14.098   3.596
 2366SOL     OW 8930   2.539   1.400  13.351
 2366SOL    HW1 8931   2.592   1.376  13.427
 2366SOL    HW2 8932   2.565   1.338  13.283
 2367SOL     OW 8933   0.856  13.565   0.989
 2367SOL    HW1 8934   0.885  13.475   0.978
 2367SOL    HW2 8935   0.800  13.583   0.913
 2368SOL     OW 8936   9.167  11.880   5.510
 2368SOL    HW1 8937   9.147  11.962   5.464
 2368SOL    HW2 8938   9.144  11.812   5.447
 2369SOL     OW 8939  14.024   1.452   1.883
 2369SOL    HW1 8940  14.053   1.473   1.972
 2369SOL    HW2 8941  13.929   1.464   1.885
 2370SOL     OW 8942  11.806   0.293  14.472
 2370SOL    HW1 8943  11.842   0.295  14.560
 2370SOL    HW2 8944  11.718   0.256  14.482
 2371SOL     OW 8945   3.124  11.285   6.048
 2371SOL    HW1 8946   3.160  11.198   6.030
 2371SOL    HW2 8947   3.031  11.270   6.063
 2372SOL     OW 8948   2.544  10.976  10.345
 2372SOL    HW1 8949   2.478  10.920  10.304
 2372SOL    HW2 8950   2.583  11.024  10.272
 2373SOL     OW 8951  11.578  10.513  11.844
 2373SOL    HW1 8952  11.543  10.583  11.788
 2373SOL    HW2 8953  11.525  10.518  11.924
 2374SOL     OW 8954   0.673   0.050   6.507
 2374SOL    HW1 8955   0.620   0.068   6.430
 2374SOL    HW2 8956   0.694  14.836   6.501
 2375SOL     OW 8957   2.433   8.389  11.138
 2375SOL    HW1 8958   2.344   8.364  11.163
 2375SOL    HW2 8959   2.449   8.340  11.058
 2376SOL     OW 8960   7.713   7.573   3.471
 2376SOL    HW1 8961   7.778   7.617   3.525
 2376SOL    HW2 8962   7.764   7.521   3.409
 2377SOL     OW 8963   2.006   8.030   0.683
 2377SOL    HW1 8964   1.919   8.025   0.723
 2377SOL    HW2 8965   2.066   8.002   0.751
 2378SOL     OW 8966   7.968  11.322  14.572
 2378SOL    HW1 8967   7.953  11.231  14.546
 2378SOL    HW2 8968   7.928  11.328  14.659
 2379SOL     OW 8969   8.280   8.889  14.699
 2379SOL    HW1 8970   8.306   8.797  14.703
 2379SOL    HW2 8971   8.284   8.919  14.790
 2380SOL     OW 8972   4.613   6.900   3.500
 2380SOL    HW1 8973   4.584   6.914   3.410
 2380SOL    HW2 8974   4.640   6.987   3.530
 2381SOL     OW 8975   9.040  11.390   6.064
 2381SOL    HW1 8976   8.980  11.441   6.010
 2381SOL    HW2 8977   9.105  11.453   6.095
 2382SOL     OW 8978   0.075   6.153   6.128
 2382SOL    HW1 8979   0.154   6.099   6.128
 2382SOL    HW2 8980   0.012   6.103   6.180
 2383SOL     OW 8981  14.706   1.385  13.604
 2383SOL    HW1 8982  14.769   1.377  13.676
 2383SOL    HW2 8983  14.722   1.307  13.551
 2384SOL     OW 8984   4.439   7.720  12.309
 2384SOL    HW1 8985   4.416   7.721  12.402
 2384SOL    HW2 8986   4.387   7.648  12.273
 2385SOL     OW 8987   8.488   3.625   5.669
 2385SOL    HW1 8988   8.534   3.703   5.638
 2385SOL    HW2 8989   8.487   3.566   5.594
 2386SOL     OW 8990   6.372   3.044   4.184
 2386SOL    HW1 8991   6.395   3.023   4.274
 2386SOL    HW2 8992   6.281   3.015   4.174
 2387SOL     OW 8993  11.603   4.277  14.826
 2387SOL    HW1 8994  11.686   4.230  14.840
 2387SOL    HW2 8995  11.609   4.309  14.736
 2388SOL     OW 8996   1.099  12.954   6.218
 2388SOL    HW1 8997   1.061  12.982   6.134
 2388SOL    HW2 8998   1.112  12.859   6.207
 2389SOL     OW 8999   1.554   4.187   8.135
 2389SOL    HW1 9000   1.611   4.191   8.212
 2389SOL    HW2 9001   1.509   4.271   8.134
 2390SOL     OW 9002   7.864   0.445   1.127
 2390SOL    HW1 9003   7.884   0.531   1.162
 2390SOL    HW2 9004   7.947   0.398   1.129
 2391SOL     OW 9005   3.577  12.210   7.929
 2391SOL    HW1 9006   3.654  12.267   7.928
 2391SOL    HW2 9007   3.503  12.270   7.920
 2392SOL     OW 9008  10.017   4.814   5.744
 2392SOL    HW1 9009   9.925   4.835   5.729
 2392SOL    HW2 9010  10.054   4.892   5.785
 2393SOL     OW 9011  13.549   6.543  14.363
 2393SOL    HW1 9012  13.471   6.521  14.413
 2393SOL    HW2 9013  13.622   6.514  14.417
 2394SOL     OW 9014   5.521   0.790   3.680
 2394SOL    HW1 9015   5.500   0.709   3.633
 2394SOL    HW2 9016   5.465   0.788   3.757
 2395SOL     OW 9017   9.824   1.450  10.713
 2395SOL    HW1 9018   9.779   1.431  10.630
 2395SOL    HW2 9019   9.890   1.382  10.720
 2396SOL     OW 9020   7.157   1.815   2.790
 2396SOL    HW1 9021   7.063   1.827   2.806
 2396SOL    HW2 9022   7.161   1.741   2.730
 2397SOL     OW 9023   9.118   9.210   0.869
 2397SOL    HW1 9024   9.139   9.131   0.820
 2397SOL    HW2 9025   9.022   9.212   0.872
 2398SOL     OW 9026   7.339   3.247   6.087
 2398SOL    HW1 9027   7.383   3.296   6.017
 2398SOL    HW2 9028   7.322   3.312   6.155
 2399SOL     OW 9029   4.011  12.933   5.710
 2399SOL    HW1 9030   3.982  12.845   5.732
 2399SOL    HW2 9031   3.930  12.984   5.706
 2400SOL     OW 9032  11.650  12.519   5.210
 2400SOL    HW1 9033  11.590  12.592   5.194
 2400SOL    HW2 9034  11.661  12.518   5.305
 2401SOL     OW 9035   4.067   1.274   1.667
 2401SOL    HW1 9036   4.000   1.291   1.734
 2401SOL    HW2 9037   4.150   1.287   1.712
 2402SOL     OW 9038  12.743   2.119   4.977
 2402SOL    HW1 9039  12.832   2.152   4.990
 2402SOL    HW2 9040  12.746   2.029   5.010
 2403SOL     OW 9041  10.581   9.085  10.367
 2403SOL    HW1 9042  10.594   8.992  10.350
 2403SOL    HW2 9043  10.528   9.116  10.293
 2404SOL     OW 9044  11.293  12.395   0.322
 2404SOL    HW1 9045  11.306  12.431   0.234
 2404SOL    HW2 9046  11.200  12.374   0.326
 2405SOL     OW 9047   2.695   5.904   3.321
 2405SOL    HW1 9048   2.656   5.986   3.351
 2405SOL    HW2 9049   2.779   5.930   3.281
 2406SOL     OW 9050   0.340   0.815  14.838
 2406SOL    HW1 9051   0.308   0.905  14.844
 2406SOL    HW2 9052   0.382   0.799   0.044
 2407SOL     OW 9053  13.888  12.974   3.889
 2407SOL    HW1 9054  13.799  12.980   3.923
 2407SOL    HW2 9055  13.914  13.065   3.874
 2408SOL     OW 9056   5.411  13.282   8.589
 2408SOL    HW1 9057   5.393  13.357   8.533
 2408SOL    HW2 9058   5.437  13.320   8.673
 2409SOL     OW 9059  14.563   3.065   6.117
 2409SOL    HW1 9060  14.572   3.147   6.165
 2409SOL    HW2 9061  14.495   3.017   6.165
 2410SOL     OW 9062   2.321  10.628   2.691
 2410SOL    HW1 9063   2.236  10.612   2.650
 2410SOL    HW2 9064   2.325  10.568   2.765
 2411SOL     OW 9065   9.146   5.225   0.427
 2411SOL    HW1 9066   9.181   5.279   0.498
 2411SOL    HW2 9067   9.133   5.286   0.354
 2412SOL     OW 9068  14.657   9.277   8.323
 2412SOL    HW1 9069  14.623   9.333   8.392
 2412SOL    HW2 9070  14.751   9.297   8.319
 2413SOL     OW 9071  13.532   6.786  12.586
 2413SOL    HW1 9072  13.584   6.717  12.546
 2413SOL    HW2 9073  13.589   6.824  12.653
 2414SOL     OW 9074   8.160   3.385   6.227
 2414SOL    HW1 9075   8.099   3.392   6.154
 2414SOL    HW2 9076   8.182   3.292   6.231
 2415SOL     OW 9077   4.036   0.281   1.658
 2415SOL    HW1 9078   3.963   0.226   1.633
 2415SOL    HW2 9079   4.051   0.260   1.750
 2416SOL     OW 9080   5.509   0.374  14.716
 2416SOL    HW1 9081   5.599   0.388  14.685
 2416SOL    HW2 9082   5.459   0.359  14.636
 2417SOL     OW 9083   3.919   8.684   3.494
 2417SOL    HW1 9084   3.956   8.732   3.420
 2417SOL    HW2 9085   3.903   8.750   3.560
 2418SOL     OW 9086   3.019   9.820   1.972
 2418SOL    HW1 9087   2.963   9.812   1.894
 2418SOL    HW2 9088   3.009   9.911   2.000
 2419SOL     OW 9089   8.127   8.580  11.304
 2419SOL    HW1 9090   8.085   8.624  11.378
 2419SOL    HW2 9091   8.066   8.511  11.279
 2420SOL     OW 9092  10.800  14.186  10.014
 2420SOL    HW1 9093  10.795  14.256   9.950
 2420SOL    HW2 9094  10.874  14.209  10.070
 2421SOL     OW 9095  13.928   7.735   8.302
 2421SOL    HW1 9096  13.909   7.644   8.322
 2421SOL    HW2 9097  13.937   7.777   8.388
 2422SOL     OW 9098   5.836  13.222   3.542
 2422SOL    HW1 9099   5.779  13.169   3.597
 2422SOL    HW2 9100   5.923  13.215   3.583
 2423SOL     OW 9101  13.494  13.665   5.051
 2423SOL    HW1 9102  13.418  13.632   5.098
 2423SOL    HW2 9103  13.458  13.724   4.985
 2424SOL     OW 9104  11.866  10.051   1.959
 2424SOL    HW1 9105  11.845  10.116   2.027
 2424SOL    HW2 9106  11.858   9.966   2.004
 2425SOL     OW 9107   3.384   3.235   4.618
 2425SOL    HW1 9108   3.331   3.171   4.571
 2425SOL    HW2 9109   3.344   3.319   4.597
 2426SOL     OW 9110  12.731   1.124   9.289
 2426SOL    HW1 9111  12.664   1.163   9.345
 2426SOL    HW2 9112  12.756   1.194   9.229
 2427SOL     OW 9113   8.836   4.292  11.730
 2427SOL    HW1 9114   8.864   4.384  11.731
 2427SOL    HW2 9115   8.911   4.243  11.765
 2428SOL     OW 9116   0.218   1.642  10.183
 2428SOL    HW1 9117   0.239   1.563  10.134
 2428SOL    HW2 9118   0.266   1.632  10.266
 2429SOL     OW 9119  10.282  13.554  10.024
 2429SOL    HW1 9120  10.297  13.626  10.086
 2429SOL    HW2 9121  10.195  13.571   9.988
 2430SOL     OW 9122   7.311  10.786   4.604
 2430SOL    HW1 9123   7.252  10.746   4.668
 2430SOL    HW2 9124   7.334  10.715   4.545
 2431SOL     OW 9125   0.830   8.925   5.748
 2431SOL    HW1 9126   0.902   8.910   5.687
 2431SOL    HW2 9127   0.791   9.007   5.721
 2432SOL     OW 9128   4.661   3.051  12.558
 2432SOL    HW1 9129   4.714   3.074  12.481
 2432SOL    HW2 9130   4.712   3.084  12.632
 2433SOL     OW 9131  12.905   5.324   6.897
 2433SOL    HW1 9132  12.910   5.238   6.854
 2433SOL    HW2 9133  12.903   5.304   6.990
 2434SOL     OW 9134   4.116   5.523   9.780
 2434SOL    HW1 9135   4.128   5.539   9.687
 2434SOL    HW2 9136   4.128   5.429   9.790
 2435SOL     OW 9137   1.762   4.472   3.015
 2435SOL    HW1 9138   1.810   4.551   3.038
 2435SOL    HW2 9139   1.830   4.406   3.003
 2436SOL     OW 9140  10.316  14.550   7.242
 2436SOL    HW1 9141  10.224  14.564   7.262
 2436SOL    HW2 9142  10.322  14.564   7.148
 2437SOL     OW 9143   1.318  10.663   4.686
 2437SOL    HW1 9144   1.394  10.617   4.648
 2437SOL    HW2 9145   1.346  10.754   4.693
 2438SOL     OW 9146  12.644  11.381   9.664
 2438SOL    HW1 9147  12.586  11.456   9.679
 2438SOL    HW2 9148  12.621  11.319   9.734
 2439SOL     OW 9149  13.862  12.346  13.441
 2439SOL    HW1 9150  13.869  12.411  13.510
 2439SOL    HW2 9151  13.910  12.270  13.475
 2440SOL     OW 9152  10.457  14.336  11.142
 2440SOL    HW1 9153  10.420  14.260  11.098
 2440SOL    HW2 9154  10.409  14.411  11.106
 2441SOL     OW 9155   1.311   5.586   3.999
 2441SOL    HW1 9156   1.335   5.548   4.084
 2441SOL    HW2 9157   1.340   5.522   3.935
 2442SOL     OW 9158  13.473  13.610   4.751
 2442SOL    HW1 9159  13.414  13.570   4.814
 2442SOL    HW2 9160  13.472  13.703   4.773
 2443SOL     OW 9161  12.387  10.902  14.108
 2443SOL    HW1 9162  12.345  10.962  14.170
 2443SOL    HW2 9163  12.318  10.883  14.044
 2444SOL     OW 9164   5.137   7.559  13.524
 2444SOL    HW1 9165   5.218   7.577  13.572
 2444SOL    HW2 9166   5.123   7.465  13.534
 2445SOL     OW 9167  14.469   9.914  13.659
 2445SOL    HW1 9168  14.377   9.910  13.636
 2445SOL    HW2 9169  14.487   9.831  13.703
 2446SOL     OW 9170   3.994   8.462   0.162
 2446SOL    HW1 9171   3.970   8.510   0.083
 2446SOL    HW2 9172   3.911   8.434   0.200
 2447SOL     OW 9173   2.228  11.127  14.044
 2447SOL    HW1 9174   2.182  11.044  14.053
 2447SOL    HW2 9175   2.247  11.134  13.951
 2448SOL     OW 9176   9.636   4.119   3.405
 2448SOL    HW1 9177   9.621   4.211   3.425
 2448SOL    HW2 9178   9.604   4.108   3.315
 2449SOL     OW 9179   6.728   0.554   2.904
 2449SOL    HW1 9180   6.658   0.494   2.880
 2449SOL    HW2 9181   6.778   0.567   2.824
 2450SOL     OW 9182   5.000  11.230   1.484
 2450SOL    HW1 9183   5.066  11.162   1.467
 2450SOL    HW2 9184   4.921  11.181   1.508
 2451SOL     OW 9185   1.470   4.001   8.810
 2451SOL    HW1 9186   1.406   4.008   8.739
 2451SOL    HW2 9187   1.502   3.911   8.805
 2452SOL     OW 9188  13.069   1.354  14.220
 2452SOL    HW1 9189  13.144   1.413  14.215
 2452SOL    HW2 9190  13.024   1.366  14.137
 2453SOL     OW 9191  13.464   7.699   3.586
 2453SOL    HW1 9192  13.457   7.795   3.588
 2453SOL    HW2 9193  13.545   7.681   3.634
 2454SOL     OW 9194  11.641  10.914  13.465
 2454SOL    HW1 9195  11.553  10.877  13.475
 2454SOL    HW2 9196  11.648  10.977  13.537
 2455SOL     OW 9197   0.544   9.896   7.576
 2455SOL    HW1 9198   0.539   9.992   7.580
 2455SOL    HW2 9199   0.453   9.867   7.571
 2456SOL     OW 9200  12.483   4.840   2.729
 2456SOL    HW1 9201  12.413   4.871   2.671
 2456SOL    HW2 9202  12.440   4.826   2.814
 2457SOL     OW 9203   3.251  11.503   5.566
 2457SOL    HW1 9204   3.330  11.476   5.612
 2457SOL    HW2 9205   3.251  11.599   5.570
 2458SOL     OW 9206   3.298   1.461   9.997
 2458SOL    HW1 9207   3.378   1.458  10.050
 2458SOL    HW2 9208   3.227   1.449  10.060
 2459SOL     OW 9209   5.982   0.748   6.015
 2459SOL    HW1 9210   5.966   0.835   6.050
 2459SOL    HW2 9211   5.992   0.693   6.093
 2460SOL     OW 9212  10.323   7.139   3.821
 2460SOL    HW1 9213  10.381   7.140   3.744
 2460SOL    HW2 9214  10.369   7.191   3.887
 2461SOL     OW 9215  14.666   0.032  13.619
 2461SOL    HW1 9216  14.615   0.035  13.700
 2461SOL    HW2 9217  14.708  14.825  13.621
 2462SOL     OW 9218  13.883  13.659   6.604
 2462SOL    HW1 9219  13.890  13.740   6.555
 2462SOL    HW2 9220  13.845  13.597   6.542
 2463SOL     OW 9221   2.170   9.695   1.879
 2463SOL    HW1 9222   2.200   9.678   1.968
 2463SOL    HW2 9223   2.133   9.612   1.850
 2464SOL     OW 9224  14.242   0.566   0.403
 2464SOL    HW1 9225  14.294   0.556   0.323
 2464SOL    HW2 9226  14.250   0.658   0.425
 2465SOL     OW 9227  11.319   4.517  14.228
 2465SOL    HW1 9228  11.364   4.591  14.270
 2465SOL    HW2 9229  11.263   4.481  14.297
 2466SOL     OW 9230   4.853  13.439   9.532
 2466SOL    HW1 9231   4.943  13.442   9.564
 2466SOL    HW2 9232   4.862  13.439   9.436
 2467SOL     OW 9233  14.821  10.164   8.963
 2467SOL    HW1 9234   0.001  10.233   8.932
 2467SOL    HW2 9235  14.745  10.212   8.998
 2468SOL     OW 9236   6.315   0.626  12.802
 2468SOL    HW1 9237   6.243   0.564  12.799
 2468SOL    HW2 9238   6.357   0.618  12.716
 2469SOL     OW 9239   3.164  13.625   2.067
 2469SOL    HW1 9240   3.094  13.670   2.020
 2469SOL    HW2 9241   3.118  13.565   2.126
 2470SOL     OW 9242   8.292   7.327  11.250
 2470SOL    HW1 9243   8.281   7.322  11.345
 2470SOL    HW2 9244   8.280   7.419  11.229
 2471SOL     OW 9245  11.925   7.651   8.506
 2471SOL    HW1 9246  12.019   7.632   8.504
 2471SOL    HW2 9247  11.911   7.691   8.591
 2472SOL     OW 9248  14.664   7.010   6.712
 2472SOL    HW1 9249  14.649   6.924   6.751
 2472SOL    HW2 9250  14.759   7.022   6.717
 2473SOL     OW 9251   3.871  12.524   0.669
 2473SOL    HW1 9252   3.812  12.475   0.612
 2473SOL    HW2 9253   3.949  12.539   0.616
 2474SOL     OW 9254   1.201   3.969  10.181
 2474SOL    HW1 9255   1.172   4.054  10.214
 2474SOL    HW2 9256   1.166   3.966  10.091
 2475SOL     OW 9257  12.822   9.132  13.274
 2475SOL    HW1 9258  12.833   9.163  13.184
 2475SOL    HW2 9259  12.858   9.044  13.274
 2476SOL     OW 9260   8.963   2.671   5.177
 2476SOL    HW1 9261   8.988   2.681   5.085
 2476SOL    HW2 9262   8.978   2.758   5.215
 2477SOL     OW 9263  14.183  14.435   0.175
 2477SOL    HW1 9264  14.206  14.526   0.194
 2477SOL    HW2 9265  14.264  14.386   0.193
 2478SOL     OW 9266   9.154  10.155   4.301
 2478SOL    HW1 9267   9.065  10.155   4.268
 2478SOL    HW2 9268   9.148  10.108   4.385
 2479SOL     OW 9269   1.498   6.795   5.123
 2479SOL    HW1 9270   1.582   6.780   5.079
 2479SOL    HW2 9271   1.449   6.713   5.110
 2480SOL     OW 9272  10.406   4.531  10.993
 2480SOL    HW1 9273  10.368   4.478  11.063
 2480SOL    HW2 9274  10.428   4.467  10.924
 2481SOL     OW 9275   4.953   8.207  14.669
 2481SOL    HW1 9276   4.998   8.147  14.610
 2481SOL    HW2 9277   4.980   8.180  14.756
 2482SOL     OW 9278   0.097   2.500  11.483
 2482SOL    HW1 9279   0.112   2.578  11.429
 2482SOL    HW2 9280   0.007   2.474  11.464
 2483SOL     OW 9281   0.169  14.509  12.722
 2483SOL    HW1 9282   0.097  14.471  12.772
 2483SOL    HW2 9283   0.222  14.555  12.787
 2484SOL     OW 9284  10.827   5.287   6.747
 2484SOL    HW1 9285  10.733   5.268   6.745
 2484SOL    HW2 9286  10.868   5.204   6.770
 2485SOL     OW 9287   2.845   8.331   9.295
 2485SOL    HW1 9288   2.790   8.267   9.338
 2485SOL    HW2 9289   2.787   8.376   9.234
 2486SOL     OW 9290   1.734   0.002  14.519
 2486SOL    HW1 9291   1.738   0.094  14.496
 2486SOL    HW2 9292   1.790  14.837  14.455
 2487SOL     OW 9293   8.148   7.587  13.793
 2487SOL    HW1 9294   8.199   7.667  13.780
 2487SOL    HW2 9295   8.131   7.555  13.704
 2488SOL     OW 9296   4.140   2.780   9.236
 2488SOL    HW1 9297   4.079   2.853   9.250
 2488SOL    HW2 9298   4.085   2.710   9.203
 2489SOL     OW 9299  11.760  11.249   2.829
 2489SOL    HW1 9300  11.759  11.197   2.909
 2489SOL    HW2 9301  11.762  11.340   2.858
 2490SOL     OW 9302   3.835   3.679  14.203
 2490SOL    HW1 9303   3.770   3.621  14.243
 2490SOL    HW2 9304   3.795   3.766  14.206
 2491SOL     OW 9305  14.601  10.318  11.208
 2491SOL    HW1 9306  14.660  10.363  11.147
 2491SOL    HW2 9307  14.596  10.376  11.284
 2492SOL     OW 9308   0.281   9.467   2.189
 2492SOL    HW1 9309   0.251   9.416   2.264
 2492SOL    HW2 9310   0.233   9.550   2.196
 2493SOL     OW 9311   6.642   9.832   1.507
 2493SOL    HW1 9312   6.730   9.862   1.528
 2493SOL    HW2 9313   6.650   9.794   1.420
 2494SOL     OW 9314   2.851   6.005   3.780
 2494SOL    HW1 9315   2.888   5.938   3.723
 2494SOL    HW2 9316   2.900   5.998   3.862
 2495SOL     OW 9317   6.294   0.225  12.729
 2495SOL    HW1 9318   6.276   0.316  12.752
 2495SOL    HW2 9319   6.285   0.222  12.634
 2496SOL     OW 9320  11.898   7.873  11.047
 2496SOL    HW1 9321  11.897   7.924  11.128
 2496SOL    HW2 9322  11.829   7.913  10.993
 2497SOL     OW 9323   5.997   2.990   6.310
 2497SOL    HW1 9324   6.075   2.968   6.360
 2497SOL    HW2 9325   5.930   3.007   6.376
 2498SOL     OW 9326   8.215  12.708  10.589
 2498SOL    HW1 9327   8.157  12.641  10.625
 2498SOL    HW2 9328   8.303  12.671  10.599
 2499SOL     OW 9329   6.420   2.236  11.885
 2499SOL    HW1 9330   6.434   2.237  11.790
 2499SOL    HW2 9331   6.360   2.163  11.899
 2500SOL     OW 9332   5.936   7.827   1.504
 2500SOL    HW1 9333   5.867   7.889   1.479
 2500SOL    HW2 9334   5.985   7.812   1.423
 2501SOL     OW 9335  11.539   6.595   1.460
 2501SOL    HW1 9336  11.571   6.678   1.427
 2501SOL    HW2 9337  11.612   6.534   1.449
 2502SOL     OW 9338   1.229   4.743   4.002
 2502SOL    HW1 9339   1.247   4.713   3.914
 2502SOL    HW2 9340   1.215   4.663   4.053
 2503SOL     OW 9341   5.782   1.700   4.100
 2503SOL    HW1 9342   5.807   1.616   4.138
 2503SOL    HW2 9343   5.714   1.677   4.036
 2504SOL     OW 9344   3.063   4.406   5.663
 2504SOL    HW1 9345   3.107   4.440   5.741
 2504SOL    HW2 9346   3.078   4.473   5.596
 2505SOL     OW 9347   4.883   1.837   5.304
 2505SOL    HW1 9348   4.893   1.820   5.397
 2505SOL    HW2 9349   4.930   1.919   5.289
 2506SOL     OW 9350   2.080  14.100   8.272
 2506SOL    HW1 9351   2.149  14.105   8.339
 2506SOL    HW2 9352   2.087  14.183   8.225
 2507SOL     OW 9353   5.719   4.989   1.763
 2507SOL    HW1 9354   5.795   4.967   1.817
 2507SOL    HW2 9355   5.658   4.917   1.776
 2508SOL     OW 9356   5.448   7.776   3.786
 2508SOL    HW1 9357   5.396   7.704   3.750
 2508SOL    HW2 9358   5.507   7.801   3.716
 2509SOL     OW 9359   9.306   9.621  12.177
 2509SOL    HW1 9360   9.300   9.583  12.090
 2509SOL    HW2 9361   9.345   9.707  12.164
 2510SOL     OW 9362  13.437   1.057   4.217
 2510SOL    HW1 9363  13.475   1.139   4.188
 2510SOL    HW2 9364  13.377   1.082   4.287
 2511SOL     OW 9365  12.054   2.220   2.915
 2511SOL    HW1 9366  11.979   2.262   2.871
 2511SOL    HW2 9367  12.040   2.238   3.008
 2512SOL     OW 9368   9.389   5.633  14.260
 2512SOL    HW1 9369   9.359   5.682  14.337
 2512SOL    HW2 9370   9.359   5.684  14.186
 2513SOL     OW 9371   7.229   5.508   7.626
 2513SOL    HW1 9372   7.136   5.487   7.632
 2513SOL    HW2 9373   7.231   5.604   7.623
 2514SOL     OW 9374   9.217   8.518   5.271
 2514SOL    HW1 9375   9.142   8.542   5.217
 2514SOL    HW2 9376   9.234   8.594   5.326
 2515SOL     OW 9377   7.445  11.746   2.885
 2515SOL    HW1 9378   7.454  11.713   2.974
 2515SOL    HW2 9379   7.514  11.702   2.836
 2516SOL     OW 9380   0.047   4.743   2.652
 2516SOL    HW1 9381   0.088   4.818   2.695
 2516SOL    HW2 9382   0.083   4.666   2.697
 2517SOL     OW 9383  10.127  11.845  10.591
 2517SOL    HW1 9384  10.164  11.792  10.520
 2517SOL    HW2 9385  10.116  11.932  10.553
 2518SOL     OW 9386  10.652  13.138   2.632
 2518SOL    HW1 9387  10.743  13.110   2.646
 2518SOL    HW2 9388  10.622  13.087   2.557
 2519SOL     OW 9389   3.385   2.182   4.382
 2519SOL    HW1 9390   3.438   2.196   4.303
 2519SOL    HW2 9391   3.444   2.204   4.454
 2520SOL     OW 9392  10.909   0.530   9.647
 2520SOL    HW1 9393  10.870   0.573   9.724
 2520SOL    HW2 9394  10.834   0.495   9.599
 2521SOL     OW 9395   9.164   8.879  12.239
 2521SOL    HW1 9396   9.233   8.945  12.246
 2521SOL    HW2 9397   9.092   8.914  12.291
 2522SOL     OW 9398  10.387  10.381   7.620
 2522SOL    HW1 9399  10.338  10.359   7.541
 2522SOL    HW2 9400  10.473  10.407   7.588
 2523SOL     OW 9401   4.567   2.686   2.343
 2523SOL    HW1 9402   4.521   2.770   2.349
 2523SOL    HW2 9403   4.641   2.703   2.285
 2524SOL     OW 9404   4.093   4.106   5.208
 2524SOL    HW1 9405   4.119   4.024   5.250
 2524SOL    HW2 9406   4.134   4.102   5.122
 2525SOL     OW 9407  14.610   6.476   0.323
 2525SOL    HW1 9408  14.637   6.555   0.371
 2525SOL    HW2 9409  14.667   6.407   0.356
 2526SOL     OW 9410   6.651  11.578  14.061
 2526SOL    HW1 9411   6.711  11.636  14.108
 2526SOL    HW2 9412   6.682  11.581  13.970
 2527SOL     OW 9413   0.620   4.813  11.374
 2527SOL    HW1 9414   0.586   4.730  11.341
 2527SOL    HW2 9415   0.636   4.866  11.296
 2528SOL     OW 9416   6.213  10.680  13.902
 2528SOL    HW1 9417   6.136  10.736  13.910
 2528SOL    HW2 9418   6.219  10.660  13.809
 2529SOL     OW 9419   4.391  11.525   9.763
 2529SOL    HW1 9420   4.434  11.604   9.795
 2529SOL    HW2 9421   4.418  11.456   9.824
 2530SOL     OW 9422  10.404  13.002  12.024
 2530SOL    HW1 9423  10.332  12.966  11.971
 2530SOL    HW2 9424  10.459  12.926  12.044
 2531SOL     OW 9425  14.096   1.424   7.770
 2531SOL    HW1 9426  14.108   1.351   7.830
 2531SOL    HW2 9427  14.036   1.483   7.814
 2532SOL     OW 9428   2.517   6.669   4.748
 2532SOL    HW1 9429   2.443   6.648   4.805
 2532SOL    HW2 9430   2.567   6.588   4.743
 2533SOL     OW 9431   5.853  11.714   6.364
 2533SOL    HW1 9432   5.882  11.660   6.438
 2533SOL    HW2 9433   5.758  11.708   6.365
 2534SOL     OW 9434   0.274   6.900   4.964
 2534SOL    HW1 9435   0.204   6.858   4.913
 2534SOL    HW2 9436   0.240   6.902   5.053
 2535SOL     OW 9437  12.348   1.388  10.182
 2535SOL    HW1 9438  12.356   1.293  10.198
 2535SOL    HW2 9439  12.411   1.427  10.242
 2536SOL     OW 9440  11.598  10.536   4.216
 2536SOL    HW1 9441  11.569  10.447   4.237
 2536SOL    HW2 9442  11.630  10.530   4.126
 2537SOL     OW 9443   0.961   4.796   3.954
 2537SOL    HW1 9444   0.958   4.892   3.961
 2537SOL    HW2 9445   1.051   4.774   3.977
 2538SOL     OW 9446   9.546  14.037   6.065
 2538SOL    HW1 9447   9.460  14.055   6.028
 2538SOL    HW2 9448   9.554  13.941   6.061
 2539SOL     OW 9449   2.225   7.828   3.313
 2539SOL    HW1 9450   2.169   7.899   3.281
 2539SOL    HW2 9451   2.276   7.801   3.236
 2540SOL     OW 9452   3.618   3.001   0.905
 2540SOL    HW1 9453   3.607   2.959   0.990
 2540SOL    HW2 9454   3.530   3.004   0.868
 2541SOL     OW 9455   8.541   3.342   0.078
 2541SOL    HW1 9456   8.546   3.397   0.157
 2541SOL    HW2 9457   8.596   3.266   0.098
 2542SOL     OW 9458   8.672  10.369   8.796
 2542SOL    HW1 9459   8.646  10.280   8.819
 2542SOL    HW2 9460   8.750  10.386   8.848
 2543SOL     OW 9461   9.679  13.894  13.058
 2543SOL    HW1 9462   9.610  13.898  13.124
 2543SOL    HW2 9463   9.652  13.824  12.998
 2544SOL     OW 9464  13.032   0.023   0.852
 2544SOL    HW1 9465  12.958   0.060   0.901
 2544SOL    HW2 9466  13.109   0.056   0.897
 2545SOL     OW 9467   8.400  11.940  13.965
 2545SOL    HW1 9468   8.432  11.850  13.974
 2545SOL    HW2 9469   8.387  11.952  13.871
 2546SOL     OW 9470  11.694   0.326   5.559
 2546SOL    HW1 9471  11.731   0.287   5.639
 2546SOL    HW2 9472  11.616   0.273   5.541
 2547SOL     OW 9473   0.457   0.977   4.753
 2547SOL    HW1 9474   0.386   0.994   4.814
 2547SOL    HW2 9475   0.526   0.936   4.806
 2548SOL     OW 9476   8.570   1.641   5.372
 2548SOL    HW1 9477   8.493   1.586   5.356
 2548SOL    HW2 9478   8.549   1.725   5.333
 2549SOL     OW 9479  14.438  13.765   5.949
 2549SOL    HW1 9480  14.528  13.757   5.981
 2549SOL    HW2 9481  14.393  13.815   6.017
 2550SOL     OW 9482   2.562  13.705  12.785
 2550SOL    HW1 9483   2.628  13.643  12.816
 2550SOL    HW2 9484   2.571  13.704  12.689
 2551SOL     OW 9485  12.389   8.483  13.960
 2551SOL    HW1 9486  12.483   8.497  13.973
 2551SOL    HW2 9487  12.380   8.388  13.954
 2552SOL     OW 9488   1.925   3.149   5.923
 2552SOL    HW1 9489   1.992   3.130   5.857
 2552SOL    HW2 9490   1.896   3.063   5.954
 2553SOL     OW 9491   0.545   4.507   6.847
 2553SOL    HW1 9492   0.550   4.535   6.756
 2553SOL    HW2 9493   0.533   4.412   6.842
 2554SOL     OW 9494  13.742  14.526  12.710
 2554SOL    HW1 9495  13.827  14.500  12.677
 2554SOL    HW2 9496  13.749  14.621  12.722
 2555SOL     OW 9497   2.807   4.514  14.667
 2555SOL    HW1 9498   2.878   4.578  14.678
 2555SOL    HW2 9499   2.744   4.558  14.610
 2556SOL     OW 9500  14.425   8.097   1.563
 2556SOL    HW1 9501  14.462   8.152   1.494
 2556SOL    HW2 9502  14.483   8.111   1.638
 2557SOL     OW 9503   2.896  12.513   8.610
 2557SOL    HW1 9504   2.932  12.461   8.682
 2557SOL    HW2 9505   2.887  12.450   8.538
 2558SOL     OW 9506  10.399   7.171   3.539
 2558SOL    HW1 9507  10.476   7.223   3.516
 2558SOL    HW2 9508  10.326   7.217   3.497
 2559SOL     OW 9509  13.261  12.861  14.247
 2559SOL    HW1 9510  13.189  12.856  14.310
 2559SOL    HW2 9511  13.296  12.772  14.244
 2560SOL     OW 9512  14.664   0.282   7.523
 2560SOL    HW1 9513  14.759   0.291   7.518
 2560SOL    HW2 9514  14.640   0.242   7.440
 2561SOL     OW 9515  12.541   0.859   9.379
 2561SOL    HW1 9516  12.518   0.791   9.316
 2561SOL    HW2 9517  12.577   0.812   9.454
 2562SOL     OW 9518  10.844   1.708   4.587
 2562SOL    HW1 9519  10.890   1.729   4.506
 2562SOL    HW2 9520  10.799   1.626   4.568
 2563SOL     OW 9521   0.045   1.880   5.037
 2563SOL    HW1 9522   0.130   1.848   5.005
 2563SOL    HW2 9523   0.016   1.813   5.098
 2564SOL     OW 9524   6.739  12.218  13.105
 2564SOL    HW1 9525   6.747  12.289  13.041
 2564SOL    HW2 9526   6.827  12.181  13.110
 2565SOL     OW 9527   7.647   1.052   2.840
 2565SOL    HW1 9528   7.683   0.986   2.780
 2565SOL    HW2 9529   7.558   1.023   2.857
 2566SOL     OW 9530   1.334   2.240   7.653
 2566SOL    HW1 9531   1.274   2.245   7.580
 2566SOL    HW2 9532   1.282   2.204   7.725
 2567SOL     OW 9533  13.249   8.500   1.387
 2567SOL    HW1 9534  13.322   8.454   1.346
 2567SOL    HW2 9535  13.235   8.576   1.331
 2568SOL     OW 9536   7.697   2.991   2.393
 2568SOL    HW1 9537   7.683   3.060   2.329
 2568SOL    HW2 9538   7.658   3.025   2.474
 2569SOL     OW 9539  11.012  10.498   1.286
 2569SOL    HW1 9540  10.967  10.449   1.218
 2569SOL    HW2 9541  11.105  10.480   1.270
 2570SOL     OW 9542   7.885  12.648   4.603
 2570SOL    HW1 9543   7.824  12.720   4.620
 2570SOL    HW2 9544   7.874  12.627   4.510
 2571SOL     OW 9545  13.299   4.284   3.331
 2571SOL    HW1 9546  13.339   4.233   3.402
 2571SOL    HW2 9547  13.212   4.308   3.365
 2572SOL     OW 9548   9.334  12.216  10.118
 2572SOL    HW1 9549   9.388  12.221  10.039
 2572SOL    HW2 9550   9.392  12.244  10.189
 2573SOL     OW 9551   2.909   9.181  11.147
 2573SOL    HW1 9552   2.914   9.166  11.052
 2573SOL    HW2 9553   2.816   9.185  11.167
 2574SOL     OW 9554   3.649  11.579  12.246
 2574SOL    HW1 9555   3.581  11.647  12.251
 2574SOL    HW2 9556   3.632  11.535  12.162
 2575SOL     OW 9557   6.648   4.955  13.319
 2575SOL    HW1 9558   6.597   4.906  13.383
 2575SOL    HW2 9559   6.642   5.046  13.348
 2576SOL     OW 9560  11.275   1.903   9.278
 2576SOL    HW1 9561  11.221   1.842   9.328
 2576SOL    HW2 9562  11.351   1.920   9.333
 2577SOL     OW 9563  14.716   8.915   6.727
 2577SOL    HW1 9564  14.748   8.987   6.781
 2577SOL    HW2 9565  14.795   8.870   6.697
 2578SOL     OW 9566   0.426   1.622   1.907
 2578SOL    HW1 9567   0.363   1.651   1.973
 2578SOL    HW2 9568   0.458   1.702   1.867
 2579SOL     OW 9569   2.045   7.349  12.901
 2579SOL    HW1 9570   2.070   7.387  12.817
 2579SOL    HW2 9571   1.966   7.396  12.926
 2580SOL     OW 9572  14.664   6.926  12.215
 2580SOL    HW1 9573  14.648   7.009  12.260
 2580SOL    HW2 9574  14.577   6.891  12.198
 2581SOL     OW 9575   4.319   4.629   3.381
 2581SOL    HW1 9576   4.354   4.667   3.462
 2581SOL    HW2 9577   4.314   4.703   3.321
 2582SOL     OW 9578  12.786   7.071   5.229
 2582SOL    HW1 9579  12.778   7.008   5.301
 2582SOL    HW2 9580  12.765   7.155   5.268
 2583SOL     OW 9581   3.338   8.002   0.453
 2583SOL    HW1 9582   3.433   8.010   0.448
 2583SOL    HW2 9583   3.321   7.910   0.432
 2584SOL     OW 9584   9.961  13.435   0.634
 2584SOL    HW1 9585   9.907  13.493   0.689
 2584SOL    HW2 9586   9.917  13.436   0.549
 2585SOL     OW 9587   7.504   4.341   3.091
 2585SOL    HW1 9588   7.454   4.422   3.101
 2585SOL    HW2 9589   7.464   4.280   3.153
 2586SOL     OW 9590   9.350   2.478  13.962
 2586SOL    HW1 9591   9.345   2.390  13.925
 2586SOL    HW2 9592   9.346   2.465  14.057
 2587SOL     OW 9593  14.856   3.713   4.057
 2587SOL    HW1 9594  14.853   3.746   3.968
 2587SOL    HW2 9595  14.797   3.770   4.106
 2588SOL     OW 9596   2.052   6.958   0.171
 2588SOL    HW1 9597   2.005   7.041   0.178
 2588SOL    HW2 9598   1.984   6.892   0.159
 2589SOL     OW 9599   4.342   8.763  10.417
 2589SOL    HW1 9600   4.307   8.843  10.456
 2589SOL    HW2 9601   4.264   8.712  10.393
 2590SOL     OW 9602   1.615  13.480   0.969
 2590SOL    HW1 9603   1.653  13.519   0.890
 2590SOL    HW2 9604   1.522  13.473   0.948
 2591SOL     OW 9605  10.612  14.196   0.743
 2591SOL    HW1 9606  10.644  14.273   0.790
 2591SOL    HW2 9607  10.665  14.193   0.664
 2592SOL     OW 9608  10.249  11.774  10.873
 2592SOL    HW1 9609  10.229  11.811  10.787
 2592SOL    HW2 9610  10.171  11.792  10.926
 2593SOL     OW 9611   6.177   4.878  13.600
 2593SOL    HW1 9612   6.178   4.792  13.643
 2593SOL    HW2 9613   6.090   4.884  13.560
 2594SOL     OW 9614   0.692   0.037  14.785
 2594SOL    HW1 9615   0.597   0.033  14.795
 2594SOL    HW2 9616   0.716  14.831  14.748
 2595SOL     OW 9617   3.286  11.543  13.546
 2595SOL    HW1 9618   3.289  11.529  13.641
 2595SOL    HW2 9619   3.310  11.635  13.535
 2596SOL     OW 9620   4.103  14.006   7.847
 2596SOL    HW1 9621   4.130  13.915   7.848
 2596SOL    HW2 9622   4.027  14.010   7.904
 2597SOL     OW 9623   9.613   4.429   0.818
 2597SOL    HW1 9624   9.601   4.505   0.761
 2597SOL    HW2 9625   9.700   4.396   0.794
 2598SOL     OW 9626   9.340   3.778  10.694
 2598SOL    HW1 9627   9.359   3.808  10.605
 2598SOL    HW2 9628   9.268   3.835  10.723
 2599SOL     OW 9629  11.493  13.533  10.903
 2599SOL    HW1 9630  11.488  13.451  10.855
 2599SOL    HW2 9631  11.492  13.507  10.995
 2600SOL     OW 9632  11.235   4.466   0.744
 2600SOL    HW1 9633  11.294   4.390   0.738
 2600SOL    HW2 9634  11.291   4.541   0.724
 2601SOL     OW 9635   7.292   2.677   5.164
 2601SOL    HW1 9636   7.283   2.768   5.194
 2601SOL    HW2 9637   7.351   2.637   5.228
 2602SOL     OW 9638   4.256  12.591   9.068
 2602SOL    HW1 9639   4.185  12.597   9.132
 2602SOL    HW2 9640   4.213  12.601   8.983
 2603SOL     OW 9641  11.932  13.269  10.552
 2603SOL    HW1 9642  11.875  13.331  10.507
 2603SOL    HW2 9643  11.909  13.279  10.645
 2604SOL     OW 9644   0.667   9.274   5.403
 2604SOL    HW1 9645   0.665   9.360   5.359
 2604SOL    HW2 9646   0.704   9.215   5.337
 2605SOL     OW 9647  14.377   9.605  10.767
 2605SOL    HW1 9648  14.347   9.661  10.839
 2605SOL    HW2 9649  14.347   9.517  10.791
 2606SOL     OW 9650   4.859  10.846   0.979
 2606SOL    HW1 9651   4.864  10.887   1.065
 2606SOL    HW2 9652   4.941  10.798   0.970
 2607SOL     OW 9653   8.190   7.112  13.416
 2607SOL    HW1 9654   8.274   7.121  13.461
 2607SOL    HW2 9655   8.200   7.163  13.335
 2608SOL     OW 9656  14.317   8.420   1.947
 2608SOL    HW1 9657  14.400   8.449   1.908
 2608SOL    HW2 9658  14.250   8.469   1.900
 2609SOL     OW 9659   9.510   3.670  10.857
 2609SOL    HW1 9660   9.544   3.750  10.898
 2609SOL    HW2 9661   9.426   3.697  10.819
 2610SOL     OW 9662  10.977   6.766   1.206
 2610SOL    HW1 9663  10.893   6.751   1.163
 2610SOL    HW2 9664  11.040   6.713   1.157
 2611SOL     OW 9665   5.756  11.568  10.397
 2611SOL    HW1 9666   5.703  11.634  10.442
 2611SOL    HW2 9667   5.819  11.619  10.345
 2612SOL     OW 9668   8.801  11.216   3.477
 2612SOL    HW1 9669   8.837  11.203   3.389
 2612SOL    HW2 9670   8.721  11.164   3.478
 2613SOL     OW 9671   4.150   4.900   8.667
 2613SOL    HW1 9672   4.085   4.957   8.709
 2613SOL    HW2 9673   4.098   4.837   8.618
 2614SOL     OW 9674   1.171   7.020   9.384
 2614SOL    HW1 9675   1.235   6.971   9.332
 2614SOL    HW2 9676   1.128   7.077   9.320
 2615SOL     OW 9677  13.473  12.168  11.944
 2615SOL    HW1 9678  13.560  12.171  11.985
 2615SOL    HW2 9679  13.445  12.077  11.954
 2616SOL     OW 9680   0.954   2.876   7.182
 2616SOL    HW1 9681   0.918   2.942   7.242
 2616SOL    HW2 9682   0.994   2.810   7.240
 2617SOL     OW 9683   4.534  12.741   1.954
 2617SOL    HW1 9684   4.495  12.702   2.031
 2617SOL    HW2 9685   4.488  12.701   1.880
 2618SOL     OW 9686  12.798   9.327   2.703
 2618SOL    HW1 9687  12.884   9.366   2.687
 2618SOL    HW2 9688  12.737   9.381   2.652
 2619SOL     OW 9689   2.676   6.604   8.699
 2619SOL    HW1 9690   2.699   6.627   8.609
 2619SOL    HW2 9691   2.598   6.655   8.718
 2620SOL     OW 9692  12.895   0.363   3.995
 2620SOL    HW1 9693  12.802   0.386   3.992
 2620SOL    HW2 9694  12.940   0.441   3.963
 2621SOL     OW 9695   8.937  11.534  11.489
 2621SOL    HW1 9696   8.867  11.580  11.535
 2621SOL    HW2 9697   8.989  11.494  11.558
 2622SOL     OW 9698   9.765   4.849  14.469
 2622SOL    HW1 9699   9.722   4.792  14.405
 2622SOL    HW2 9700   9.698   4.867  14.534
 2623SOL     OW 9701  13.311   3.963   1.163
 2623SOL    HW1 9702  13.369   4.036   1.184
 2623SOL    HW2 9703  13.354   3.886   1.201
 2624SOL     OW 9704   1.573   5.244   6.999
 2624SOL    HW1 9705   1.492   5.194   7.009
 2624SOL    HW2 9706   1.548   5.335   7.015
 2625SOL     OW 9707   7.007   3.507   4.826
 2625SOL    HW1 9708   6.954   3.584   4.808
 2625SOL    HW2 9709   6.953   3.434   4.797
 2626SOL     OW 9710   8.610   6.863   9.833
 2626SOL    HW1 9711   8.607   6.768   9.842
 2626SOL    HW2 9712   8.645   6.878   9.745
 2627SOL     OW 9713   2.826   1.226   8.199
 2627SOL    HW1 9714   2.767   1.206   8.272
 2627SOL    HW2 9715   2.770   1.221   8.121
 2628SOL     OW 9716   0.820  11.753  14.810
 2628SOL    HW1 9717   0.799  11.794   0.015
 2628SOL    HW2 9718   0.914  11.765  14.800
 2629SOL     OW 9719  13.531   1.244   1.825
 2629SOL    HW1 9720  13.484   1.327   1.823
 2629SOL    HW2 9721  13.482   1.188   1.765
 2630SOL     OW 9722  13.117   5.334   0.744
 2630SOL    HW1 9723  13.121   5.363   0.653
 2630SOL    HW2 9724  13.027   5.355   0.771
 2631SOL     OW 9725   4.856   9.701   8.270
 2631SOL    HW1 9726   4.943   9.741   8.268
 2631SOL    HW2 9727   4.859   9.633   8.203
 2632SOL     OW 9728  13.409   9.766   0.607
 2632SOL    HW1 9729  13.395   9.677   0.574
 2632SOL    HW2 9730  13.409   9.756   0.702
 2633SOL     OW 9731   6.345   5.356   6.129
 2633SOL    HW1 9732   6.430   5.377   6.089
 2633SOL    HW2 9733   6.281   5.385   6.065
 2634SOL     OW 9734  14.135   0.857   0.125
 2634SOL    HW1 9735  14.099   0.873   0.213
 2634SOL    HW2 9736  14.094   0.923   0.070
 2635SOL     OW 9737   4.907  11.955   1.211
 2635SOL    HW1 9738   4.854  12.021   1.166
 2635SOL    HW2 9739   4.868  11.948   1.298
 2636SOL     OW 9740   0.880  10.624  10.676
 2636SOL    HW1 9741   0.941  10.681  10.629
 2636SOL    HW2 9742   0.917  10.536  10.666
 2637SOL     OW 9743  11.822  13.404   6.448
 2637SOL    HW1 9744  11.824  13.421   6.542
 2637SOL    HW2 9745  11.773  13.322   6.439
 2638SOL     OW 9746  11.094  13.647   9.831
 2638SOL    HW1 9747  11.147  13.724   9.853
 2638SOL    HW2 9748  11.010  13.662   9.874
 2639SOL     OW 9749  12.288   9.639   6.817
 2639SOL    HW1 9750  12.200   9.613   6.845
 2639SOL    HW2 9751  12.331   9.557   6.795
 2640SOL     OW 9752   1.117   2.911   8.874
 2640SOL    HW1 9753   1.173   2.914   8.796
 2640SOL    HW2 9754   1.172   2.870   8.941
 2641SOL     OW 9755   2.360  13.880   2.152
 2641SOL    HW1 9756   2.401  13.966   2.156
 2641SOL    HW2 9757   2.431  13.818   2.166
 2642SOL     OW 9758   3.225   4.559  10.201
 2642SOL    HW1 9759   3.136   4.588  10.182
 2642SOL    HW2 9760   3.280   4.631  10.172
 2643SOL     OW 9761   8.706   0.094   3.329
 2643SOL    HW1 9762   8.690   0.116   3.420
 2643SOL    HW2 9763   8.686   0.001   3.323
 2644SOL     OW 9764   4.298   8.752  14.493
 2644SOL    HW1 9765   4.213   8.717  14.465
 2644SOL    HW2 9766   4.280   8.793  14.578
 2645SOL     OW 9767  11.105   6.087  14.462
 2645SOL    HW1 9768  11.057   6.122  14.388
 2645SOL    HW2 9769  11.103   5.992  14.448
 2646SOL     OW 9770   7.307   7.254   2.878
 2646SOL    HW1 9771   7.221   7.259   2.920
 2646SOL    HW2 9772   7.366   7.223   2.947
 2647SOL     OW 9773   7.387   9.428   9.343
 2647SOL    HW1 9774   7.309   9.475   9.313
 2647SOL    HW2 9775   7.428   9.396   9.262
 2648SOL     OW 9776   6.359   3.508   5.182
 2648SOL    HW1 9777   6.399   3.595   5.181
 2648SOL    HW2 9778   6.360   3.483   5.275
 2649SOL     OW 9779  11.407   8.862   8.205
 2649SOL    HW1 9780  11.490   8.849   8.159
 2649SOL    HW2 9781  11.426   8.930   8.270
 2650SOL     OW 9782  14.142  11.139   3.469
 2650SOL    HW1 9783  14.162  11.230   3.494
 2650SOL    HW2 9784  14.183  11.129   3.383
 2651SOL     OW 9785   5.868   5.452  12.453
 2651SOL    HW1 9786   5.895   5.370  12.411
 2651SOL    HW2 9787   5.950   5.492  12.480
 2652SOL     OW 9788  11.883  10.006   4.032
 2652SOL    HW1 9789  11.855   9.986   4.121
 2652SOL    HW2 9790  11.854  10.097   4.018
 2653SOL     OW 9791  13.370  14.086  12.720
 2653SOL    HW1 9792  13.424  14.148  12.671
 2653SOL    HW2 9793  13.431  14.047  12.783
 2654SOL     OW 9794   0.953   8.266   6.580
 2654SOL    HW1 9795   0.911   8.179   6.578
 2654SOL    HW2 9796   0.915   8.308   6.658
 2655SOL     OW 9797   2.368   4.960  11.563
 2655SOL    HW1 9798   2.301   4.892  11.573
 2655SOL    HW2 9799   2.319   5.041  11.553
 2656SOL     OW 9800   7.061   4.140   4.786
 2656SOL    HW1 9801   7.073   4.132   4.881
 2656SOL    HW2 9802   7.069   4.234   4.769
 2657SOL     OW 9803   6.600  14.789  11.212
 2657SOL    HW1 9804   6.613  14.864  11.154
 2657SOL    HW2 9805   6.528  14.815  11.269
 2658SOL     OW 9806   8.367   5.607   1.240
 2658SOL    HW1 9807   8.373   5.657   1.321
 2658SOL    HW2 9808   8.433   5.539   1.249
 2659SOL     OW 9809   7.463  11.822   1.439
 2659SOL    HW1 9810   7.549  11.781   1.430
 2659SOL    HW2 9811   7.415  11.764   1.499
 2660SOL     OW 9812   4.706  12.913   5.794
 2660SOL    HW1 9813   4.754  12.967   5.731
 2660SOL    HW2 9814   4.614  12.932   5.777
 2661SOL     OW 9815  12.632   6.055   5.655
 2661SOL    HW1 9816  12.706   6.080   5.710
 2661SOL    HW2 9817  12.658   6.079   5.566
 2662SOL     OW 9818  13.513  10.220  13.849
 2662SOL    HW1 9819  13.437  10.189  13.899
 2662SOL    HW2 9820  13.589  10.186  13.895
 2663SOL     OW 9821   0.166   5.096   1.894
 2663SOL    HW1 9822   0.126   5.087   1.807
 2663SOL    HW2 9823   0.196   5.008   1.916
 2664SOL     OW 9824  13.316   3.691   9.207
 2664SOL    HW1 9825  13.254   3.763   9.223
 2664SOL    HW2 9826  13.391   3.734   9.166
 2665SOL     OW 9827   7.868  14.522   4.869
 2665SOL    HW1 9828   7.889  14.600   4.817
 2665SOL    HW2 9829   7.826  14.462   4.807
 2666SOL     OW 9830   8.427   0.715  12.437
 2666SOL    HW1 9831   8.445   0.621  12.432
 2666SOL    HW2 9832   8.473   0.744  12.516
 2667SOL     OW 9833  12.816   8.426   6.853
 2667SOL    HW1 9834  12.725   8.413   6.829
 2667SOL    HW2 9835  12.823   8.518   6.875
 2668SOL     OW 9836   0.545   2.555   6.961
 2668SOL    HW1 9837   0.633   2.550   7.000
 2668SOL    HW2 9838   0.486   2.555   7.036
 2669SOL     OW 9839   5.404   0.678  12.373
 2669SOL    HW1 9840   5.493   0.643  12.380
 2669SOL    HW2 9841   5.416   0.768  12.343
 2670SOL     OW 9842  12.710   1.544   2.944
 2670SOL    HW1 9843  12.690   1.602   2.871
 2670SOL    HW2 9844  12.801   1.562   2.966
 2671SOL     OW 9845   1.570  12.974  11.443
 2671SOL    HW1 9846   1.615  12.937  11.519
 2671SOL    HW2 9847   1.528  12.900  11.401
 2672SOL     OW 9848  14.436   1.289   1.022
 2672SOL    HW1 9849  14.507   1.341   1.058
 2672SOL    HW2 9850  14.390   1.254   1.099
 2673SOL     OW 9851  12.375  11.351  10.652
 2673SOL    HW1 9852  12.432  11.427  10.667
 2673SOL    HW2 9853  12.398  11.321  10.564
 2674SOL     OW 9854  14.656   0.849   4.794
 2674SOL    HW1 9855  14.579   0.794   4.777
 2674SOL    HW2 9856  14.670   0.841   4.888
 2675SOL     OW 9857  11.033   0.148   7.008
 2675SOL    HW1 9858  11.022   0.123   6.916
 2675SOL    HW2 9859  10.945   0.168   7.038
 2676SOL     OW 9860  10.276   9.036   7.779
 2676SOL    HW1 9861  10.282   9.025   7.684
 2676SOL    HW2 9862  10.222   9.114   7.791
 2677SOL     OW 9863   7.186   1.220   9.402
 2677SOL    HW1 9864   7.212   1.225   9.310
 2677SOL    HW2 9865   7.105   1.169   9.401
 2678SOL     OW 9866   5.572   9.573   5.236
 2678SOL    HW1 9867   5.543   9.497   5.185
 2678SOL    HW2 9868   5.492   9.622   5.254
 2679SOL     OW 9869   1.858   8.504   7.548
 2679SOL    HW1 9870   1.887   8.508   7.639
 2679SOL    HW2 9871   1.887   8.588   7.511
 2680SOL     OW 9872   7.962   2.937  11.928
 2680SOL    HW1 9873   8.022   2.920  11.856
 2680SOL    HW2 9874   7.924   2.852  11.949
 2681SOL     OW 9875   1.504   9.414   7.007
 2681SOL    HW1 9876   1.560   9.471   7.060
 2681SOL    HW2 9877   1.564   9.372   6.945
 2682SOL     OW 9878   4.581  10.578   2.409
 2682SOL    HW1 9879   4.630  10.572   2.327
 2682SOL    HW2 9880   4.582  10.672   2.430
 2683SOL     OW 9881   4.921   9.294   4.299
 2683SOL    HW1 9882   4.912   9.333   4.212
 2683SOL    HW2 9883   4.979   9.219   4.287
 2684SOL     OW 9884   6.974   0.268   0.184
 2684SOL    HW1 9885   7.046   0.280   0.123
 2684SOL    HW2 9886   6.954   0.174   0.179
 2685SOL     OW 9887  11.467   1.079  14.684
 2685SOL    HW1 9888  11.427   1.160  14.653
 2685SOL    HW2 9889  11.561   1.094  14.675
 2686SOL     OW 9890   5.902   5.578   6.063
 2686SOL    HW1 9891   5.926   5.656   6.012
 2686SOL    HW2 9892   5.883   5.612   6.150
 2687SOL     OW 9893   8.435   9.252   6.819
 2687SOL    HW1 9894   8.345   9.240   6.788
 2687SOL    HW2 9895   8.435   9.213   6.906
 2688SOL     OW 9896   6.299  11.273   8.067
 2688SOL    HW1 9897   6.321  11.199   8.010
 2688SOL    HW2 9898   6.242  11.328   8.014
 2689SOL     OW 9899  10.052   9.846  14.410
 2689SOL    HW1 9900  10.033   9.775  14.349
 2689SOL    HW2 9901  10.119   9.810  14.468
 2690SOL     OW 9902  10.130  14.106  14.836
 2690SOL    HW1 9903  10.098  14.029   0.003
 2690SOL    HW2 9904  10.197  14.072  14.776
 2691SOL     OW 9905   8.741   1.166   9.253
 2691SOL    HW1 9906   8.682   1.143   9.182
 2691SOL    HW2 9907   8.761   1.082   9.296
 2692SOL     OW 9908   0.144   8.349   8.369
 2692SOL    HW1 9909   0.211   8.408   8.334
 2692SOL    HW2 9910   0.182   8.315   8.450
 2693SOL     OW 9911  12.608   8.049   7.630
 2693SOL    HW1 9912  12.522   8.070   7.667
 2693SOL    HW2 9913  12.665   8.119   7.661
 2694SOL     OW 9914   6.308   5.104   7.694
 2694SOL    HW1 9915   6.260   5.105   7.776
 2694SOL    HW2 9916   6.400   5.111   7.719
 2695SOL     OW 9917   0.010  13.279   3.701
 2695SOL    HW1 9918  14.806  13.242   3.729
 2695SOL    HW2 9919   0.032  13.230   3.621
 2696SOL     OW 9920  12.566   4.462  12.234
 2696SOL    HW1 9921  12.644   4.405  12.228
 2696SOL    HW2 9922  12.568   4.512  12.153
 2697SOL     OW 9923   9.580  11.849   6.681
 2697SOL    HW1 9924   9.500  11.897   6.659
 2697SOL    HW2 9925   9.557  11.757   6.665
 2698SOL     OW 9926  11.918   8.792  12.667
 2698SOL    HW1 9927  11.840   8.741  12.689
 2698SOL    HW2 9928  11.983   8.765  12.733
 2699SOL     OW 9929  14.331  12.843  11.354
 2699SOL    HW1 9930  14.299  12.849  11.264
 2699SOL    HW2 9931  14.408  12.900  11.356
 2700SOL     OW 9932   1.953   9.566  10.555
 2700SOL    HW1 9933   1.882   9.509  10.529
 2700SOL    HW2 9934   1.916   9.654  10.552
 2701SOL     OW 9935  14.262   4.760   2.090
 2701SOL    HW1 9936  14.220   4.677   2.114
 2701SOL    HW2 9937  14.190   4.823   2.090
 2702SOL     OW 9938   7.130   6.104  10.248
 2702SOL    HW1 9939   7.103   6.137  10.163
 2702SOL    HW2 9940   7.054   6.117  10.304
 2703SOL     OW 9941  13.207  11.620  10.907
 2703SOL    HW1 9942  13.131  11.563  10.890
 2703SOL    HW2 9943  13.178  11.676  10.979
 2704SOL     OW 9944   0.168   5.557   1.083
 2704SOL    HW1 9945   0.131   5.473   1.056
 2704SOL    HW2 9946   0.129   5.621   1.023
 2705SOL     OW 9947  13.798  13.573   9.263
 2705SOL    HW1 9948  13.889  13.560   9.238
 2705SOL    HW2 9949  13.751  13.502   9.220
 2706SOL     OW 9950   3.534  12.986   3.466
 2706SOL    HW1 9951   3.577  13.042   3.530
 2706SOL    HW2 9952   3.460  12.948   3.513
 2707SOL     OW 9953   0.818   6.039   6.441
 2707SOL    HW1 9954   0.908   6.019   6.465
 2707SOL    HW2 9955   0.802   6.126   6.478
 2708SOL     OW 9956   4.283   6.382  11.196
 2708SOL    HW1 9957   4.305   6.469  11.164
 2708SOL    HW2 9958   4.326   6.376  11.281
 2709SOL     OW 9959   2.277   9.272  12.508
 2709SOL    HW1 9960   2.352   9.300  12.455
 2709SOL    HW2 9961   2.274   9.177  12.497
 2710SOL     OW 9962   4.847  13.662   2.558
 2710SOL    HW1 9963   4.917  13.636   2.497
 2710SOL    HW2 9964   4.789  13.587   2.561
 2711SOL     OW 9965   9.942   8.235   2.359
 2711SOL    HW1 9966   9.959   8.222   2.452
 2711SOL    HW2 9967   9.910   8.150   2.329
 2712SOL     OW 9968   0.711  12.152   4.923
 2712SOL    HW1 9969   0.773  12.096   4.968
 2712SOL    HW2 9970   0.667  12.201   4.993
 2713SOL     OW 9971  13.824   8.048   9.264
 2713SOL    HW1 9972  13.895   8.062   9.327
 2713SOL    HW2 9973  13.861   8.078   9.180
 2714SOL     OW 9974   5.214   7.863   1.787
 2714SOL    HW1 9975   5.215   7.940   1.844
 2714SOL    HW2 9976   5.294   7.815   1.810
 2715SOL     OW 9977   6.385   7.837  10.723
 2715SOL    HW1 9978   6.303   7.870  10.686
 2715SOL    HW2 9979   6.427   7.793  10.650
 2716SOL     OW 9980   5.054  10.396   9.392
 2716SOL    HW1 9981   5.122  10.418   9.327
 2716SOL    HW2 9982   5.102  10.386   9.474
 2717SOL     OW 9983  13.636  13.513   1.767
 2717SOL    HW1 9984  13.702  13.562   1.817
 2717SOL    HW2 9985  13.665  13.520   1.676
 2718SOL     OW 9986  12.481   3.067  11.542
 2718SOL    HW1 9987  12.400   3.116  11.529
 2718SOL    HW2 9988  12.531   3.083  11.461
 2719SOL     OW 9989   5.750   3.150  12.749
 2719SOL    HW1 9990   5.725   3.072  12.700
 2719SOL    HW2 9991   5.714   3.223  12.699
 2720SOL     OW 9992   5.154   3.398   7.819
 2720SOL    HW1 9993   5.236   3.357   7.793
 2720SOL    HW2 9994   5.175   3.444   7.900
 2721SOL     OW 9995   6.039   8.771   1.601
 2721SOL    HW1 9996   6.011   8.829   1.672
 2721SOL    HW2 9997   6.134   8.762   1.613
 2722SOL     OW 9998   2.072   9.008   7.551
 2722SOL    HW1 9999   2.160   8.990   7.518
 2722SOL    HW210000   2.086   9.043   7.639
 2723SOL     OW10001   2.729  10.389   4.851
 2723SOL    HW110002   2.639  10.424   4.859
 2723SOL    HW210003   2.779  10.439   4.915
 2724SOL     OW10004  10.363  11.854  11.973
 2724SOL    HW110005  10.287  11.880  12.024
 2724SOL    HW210006  10.409  11.936  11.955
 2725SOL     OW10007  11.771   2.477   9.444
 2725SOL    HW110008  11.718   2.529   9.503
 2725SOL    HW210009  11.861   2.507   9.458
 2726SOL     OW10010   0.347   4.447   3.289
 2726SOL    HW110011   0.284   4.516   3.273
 2726SOL    HW210012   0.327   4.416   3.378
 2727SOL     OW10013  13.421  11.279   3.972
 2727SOL    HW110014  13.381  11.357   4.010
 2727SOL    HW210015  13.381  11.206   4.020
 2728SOL     OW10016   9.615  13.105   6.060
 2728SOL    HW110017   9.691  13.153   6.093
 2728SOL    HW210018   9.633  13.013   6.082
 2729SOL     OW10019  10.145  10.015   4.839
 2729SOL    HW110020  10.128  10.109   4.837
 2729SOL    HW210021  10.174   9.993   4.751
 2730SOL     OW10022   5.135  12.699   5.739
 2730SOL    HW110023   5.043  12.680   5.758
 2730SOL    HW210024   5.175  12.613   5.724
 2731SOL     OW10025   6.393   8.061   6.261
 2731SOL    HW110026   6.309   8.067   6.215
 2731SOL    HW210027   6.391   8.132   6.325
 2732SOL     OW10028   5.156   4.650  14.302
 2732SOL    HW110029   5.158   4.571  14.249
 2732SOL    HW210030   5.074   4.644  14.352
 2733SOL     OW10031   4.335   3.259   1.665
 2733SOL    HW110032   4.318   3.306   1.747
 2733SOL    HW210033   4.419   3.294   1.635
 2734SOL     OW10034  11.671   0.829   1.320
 2734SOL    HW110035  11.669   0.889   1.394
 2734SOL    HW210036  11.589   0.780   1.326
 2735SOL     OW10037   2.426   8.571   3.262
 2735SOL    HW110038   2.460   8.515   3.192
 2735SOL    HW210039   2.371   8.512   3.314
 2736SOL     OW10040   1.733   2.430   1.470
 2736SOL    HW110041   1.792   2.455   1.541
 2736SOL    HW210042   1.749   2.337   1.456
 2737SOL     OW10043   8.661   5.403   5.301
 2737SOL    HW110044   8.594   5.351   5.256
 2737SOL    HW210045   8.653   5.490   5.261
 2738SOL     OW10046   1.882  10.460  13.755
 2738SOL    HW110047   1.941  10.385  13.744
 2738SOL    HW210048   1.807  10.440  13.700
 2739SOL     OW10049   4.770   8.212  14.176
 2739SOL    HW110050   4.811   8.237  14.258
 2739SOL    HW210051   4.822   8.256  14.108
 2740SOL     OW10052  11.940   1.098   1.349
 2740SOL    HW110053  11.919   1.014   1.308
 2740SOL    HW210054  11.875   1.159   1.315
 2741SOL     OW10055   1.480  14.515   6.090
 2741SOL    HW110056   1.484  14.607   6.113
 2741SOL    HW210057   1.389  14.500   6.066
 2742SOL     OW10058   7.019  11.381   4.334
 2742SOL    HW110059   7.016  11.411   4.425
 2742SOL    HW210060   6.928  11.382   4.305
 2743SOL     OW10061  12.886  14.645  14.045
 2743SOL    HW110062  12.941  14.611  14.116
 2743SOL    HW210063  12.842  14.568  14.009
 2744SOL     OW10064   0.251  12.396  14.843
 2744SOL    HW110065   0.246  12.485  14.807
 2744SOL    HW210066   0.188  12.397   0.036
 2745SOL     OW10067   4.953   7.039  11.093
 2745SOL    HW110068   5.032   7.055  11.041
 2745SOL    HW210069   4.983   6.991  11.170
 2746SOL     OW10070  12.995  12.936  10.002
 2746SOL    HW110071  13.039  12.984  10.072
 2746SOL    HW210072  13.038  12.966   9.921
 2747SOL     OW10073  12.897  12.407   7.066
 2747SOL    HW110074  12.874  12.351   6.992
 2747SOL    HW210075  12.814  12.419   7.113
 2748SOL     OW10076   3.510  12.175  10.110
 2748SOL    HW110077   3.584  12.208  10.161
 2748SOL    HW210078   3.490  12.245  10.049
 2749SOL     OW10079  13.637   9.873   7.542
 2749SOL    HW110080  13.709   9.893   7.601
 2749SOL    HW210081  13.599   9.958   7.521
 2750SOL     OW10082   3.942   1.400   0.210
 2750SOL    HW110083   4.037   1.403   0.225
 2750SOL    HW210084   3.933   1.406   0.115
 2751SOL     OW10085   1.697   4.664   5.278
 2751SOL    HW110086   1.629   4.659   5.345
 2751SOL    HW210087   1.701   4.575   5.242
 2752SOL     OW10088  14.871   9.350  14.387
 2752SOL    HW110089  14.873   9.346  14.292
 2752SOL    HW210090   0.072   9.397  14.411
 2753SOL     OW10091   6.593  14.109  11.751
 2753SOL    HW110092   6.685  14.120  11.729
 2753SOL    HW210093   6.593  14.058  11.833
 2754SOL     OW10094   6.679   1.472  13.518
 2754SOL    HW110095   6.729   1.502  13.594
 2754SOL    HW210096   6.612   1.415  13.555
 2755SOL     OW10097   3.029   2.489   9.077
 2755SOL    HW110098   3.032   2.531   9.163
 2755SOL    HW210099   2.937   2.461   9.068
 2756SOL     OW10100   2.252  11.302  11.839
 2756SOL    HW110101   2.218  11.375  11.891
 2756SOL    HW210102   2.336  11.281  11.880
 2757SOL     OW10103   8.373  12.281  14.424
 2757SOL    HW110104   8.359  12.373  14.447
 2757SOL    HW210105   8.288  12.239  14.439
 2758SOL     OW10106   0.756   9.727  12.108
 2758SOL    HW110107   0.827   9.669  12.083
 2758SOL    HW210108   0.781   9.760  12.195
 2759SOL     OW10109   2.765   9.724  11.550
 2759SOL    HW110110   2.846   9.768  11.525
 2759SOL    HW210111   2.733   9.684  11.469
 2760SOL     OW10112  14.506   4.404   6.988
 2760SOL    HW110113  14.443   4.399   7.059
 2760SOL    HW210114  14.459   4.446   6.916
 2761SOL     OW10115   8.102   8.962   3.340
 2761SOL    HW110116   8.060   8.990   3.421
 2761SOL    HW210117   8.034   8.969   3.274
 2762SOL     OW10118   7.311   1.074   8.159
 2762SOL    HW110119   7.243   1.054   8.095
 2762SOL    HW210120   7.263   1.114   8.232
 2763SOL     OW10121   8.401  14.750   1.936
 2763SOL    HW110122   8.462  14.823   1.924
 2763SOL    HW210123   8.456  14.678   1.965
 2764SOL     OW10124  12.599  11.683  11.592
 2764SOL    HW110125  12.637  11.714  11.510
 2764SOL    HW210126  12.531  11.622  11.566
 2765SOL     OW10127   3.340   3.717   4.355
 2765SOL    HW110128   3.372   3.745   4.269
 2765SOL    HW210129   3.294   3.634   4.338
 2766SOL     OW10130  10.986   1.666   7.882
 2766SOL    HW110131  11.060   1.647   7.824
 2766SOL    HW210132  10.981   1.590   7.939
 2767SOL     OW10133   7.783   0.205   9.797
 2767SOL    HW110134   7.876   0.192   9.819
 2767SOL    HW210135   7.782   0.208   9.702
 2768SOL     OW10136   3.586  10.964   5.994
 2768SOL    HW110137   3.554  10.986   6.081
 2768SOL    HW210138   3.642  10.888   6.007
 2769SOL     OW10139   9.479   8.930   4.106
 2769SOL    HW110140   9.384   8.934   4.118
 2769SOL    HW210141   9.502   8.840   4.126
 2770SOL     OW10142   7.885   1.887   4.613
 2770SOL    HW110143   7.808   1.891   4.556
 2770SOL    HW210144   7.887   1.971   4.658
 2771SOL     OW10145   1.287   3.847  12.035
 2771SOL    HW110146   1.369   3.819  11.994
 2771SOL    HW210147   1.314   3.886  12.118
 2772SOL     OW10148  13.540   0.371   8.588
 2772SOL    HW110149  13.542   0.467   8.592
 2772SOL    HW210150  13.449   0.348   8.605
 2773SOL     OW10151   2.642   9.636  14.244
 2773SOL    HW110152   2.719   9.659  14.191
 2773SOL    HW210153   2.591   9.578  14.187
 2774SOL     OW10154  14.516   8.834  10.168
 2774SOL    HW110155  14.537   8.907  10.226
 2774SOL    HW210156  14.536   8.756  10.220
 2775SOL     OW10157  12.101  11.872   8.249
 2775SOL    HW110158  12.058  11.870   8.334
 2775SOL    HW210159  12.030  11.860   8.186
 2776SOL     OW10160   9.989  10.976   8.040
 2776SOL    HW110161   9.934  10.899   8.055
 2776SOL    HW210162  10.010  10.973   7.947
 2777SOL     OW10163  14.434  10.027  14.340
 2777SOL    HW110164  14.487  10.002  14.265
 2777SOL    HW210165  14.344  10.019  14.309
 2778SOL     OW10166   9.546   7.522   7.765
 2778SOL    HW110167   9.528   7.452   7.702
 2778SOL    HW210168   9.605   7.581   7.719
 2779SOL     OW10169   3.652  11.512   0.301
 2779SOL    HW110170   3.720  11.517   0.233
 2779SOL    HW210171   3.697  11.473   0.376
 2780SOL     OW10172  13.920  13.740   8.403
 2780SOL    HW110173  13.976  13.775   8.472
 2780SOL    HW210174  13.831  13.759   8.432
 2781SOL     OW10175  14.554   4.464   2.131
 2781SOL    HW110176  14.483   4.471   2.068
 2781SOL    HW210177  14.625   4.516   2.093
 2782SOL     OW10178  11.002   6.941   9.994
 2782SOL    HW110179  11.037   6.881  10.061
 2782SOL    HW210180  10.921   6.901   9.965
 2783SOL     OW10181  13.706  13.139  14.249
 2783SOL    HW110182  13.790  13.130  14.293
 2783SOL    HW210183  13.657  13.203  14.301
 2784SOL     OW10184   9.111  13.758  13.201
 2784SOL    HW110185   9.154  13.677  13.174
 2784SOL    HW210186   9.126  13.818  13.128
 2785SOL     OW10187   7.533   4.395   3.486
 2785SOL    HW110188   7.553   4.462   3.421
 2785SOL    HW210189   7.513   4.445   3.565
 2786SOL     OW10190   0.667  13.840  10.317
 2786SOL    HW110191   0.600  13.908  10.316
 2786SOL    HW210192   0.652  13.790  10.236
 2787SOL     OW10193  14.759   1.379   6.098
 2787SOL    HW110194  14.785   1.331   6.019
 2787SOL    HW210195  14.765   1.314   6.168
 2788SOL     OW10196   4.389   0.328   6.603
 2788SOL    HW110197   4.454   0.396   6.621
 2788SOL    HW210198   4.335   0.325   6.682
 2789SOL     OW10199  12.170  10.209   1.329
 2789SOL    HW110200  12.170  10.251   1.243
 2789SOL    HW210201  12.078  10.197   1.350
 2790SOL     OW10202   5.105   6.264  13.330
 2790SOL    HW110203   5.168   6.224  13.389
 2790SOL    HW210204   5.021   6.259  13.377
 2791SOL     OW10205   9.450   1.361  13.300
 2791SOL    HW110206   9.476   1.450  13.274
 2791SOL    HW210207   9.361   1.352  13.268
 2792SOL     OW10208  11.935   8.032  14.697
 2792SOL    HW110209  11.956   7.943  14.671
 2792SOL    HW210210  12.012   8.062  14.746
 2793SOL     OW10211   6.792  13.285  13.585
 2793SOL    HW110212   6.707  13.294  13.629
 2793SOL    HW210213   6.827  13.375  13.583
 2794SOL     OW10214   4.261   4.468  10.162
 2794SOL    HW110215   4.289   4.557  10.141
 2794SOL    HW210216   4.173   4.478  10.197
 2795SOL     OW10217  11.469   1.598   1.436
 2795SOL    HW110218  11.394   1.631   1.486
 2795SOL    HW210219  11.538   1.662   1.453
 2796SOL     OW10220   4.879   9.308   3.060
 2796SOL    HW110221   4.932   9.344   2.989
 2796SOL    HW210222   4.928   9.328   3.140
 2797SOL     OW10223   5.511   2.541   1.353
 2797SOL    HW110224   5.442   2.521   1.417
 2797SOL    HW210225   5.486   2.491   1.275
 2798SOL     OW10226  14.275   0.169   8.570
 2798SOL    HW110227  14.297   0.248   8.619
 2798SOL    HW210228  14.295   0.191   8.479
 2799SOL     OW10229  12.253  11.885  11.483
 2799SOL    HW110230  12.164  11.868  11.451
 2799SOL    HW210231  12.268  11.817  11.549
 2800SOL     OW10232   9.830   6.234   2.156
 2800SOL    HW110233   9.782   6.164   2.199
 2800SOL    HW210234   9.811   6.223   2.063
 2801SOL     OW10235   2.419  14.072  12.326
 2801SOL    HW110236   2.435  14.007  12.257
 2801SOL    HW210237   2.497  14.129  12.323
 2802SOL     OW10238  10.395  14.416  14.706
 2802SOL    HW110239  10.371  14.356  14.776
 2802SOL    HW210240  10.490  14.423  14.712
 2803SOL     OW10241  12.352   4.261  14.231
 2803SOL    HW110242  12.405   4.295  14.159
 2803SOL    HW210243  12.350   4.166  14.216
 2804SOL     OW10244  12.484   0.704   7.142
 2804SOL    HW110245  12.454   0.622   7.101
 2804SOL    HW210246  12.499   0.763   7.068
 2805SOL     OW10247   9.688  13.964   6.752
 2805SOL    HW110248   9.680  14.059   6.756
 2805SOL    HW210249   9.769  13.949   6.702
 2806SOL     OW10250   9.234   1.587   5.479
 2806SOL    HW110251   9.203   1.624   5.396
 2806SOL    HW210252   9.252   1.495   5.459
 2807SOL     OW10253   4.970   9.741   5.066
 2807SOL    HW110254   5.001   9.651   5.070
 2807SOL    HW210255   4.960   9.767   5.157
 2808SOL     OW10256   1.596   0.683   7.112
 2808SOL    HW110257   1.520   0.669   7.055
 2808SOL    HW210258   1.671   0.669   7.054
 2809SOL     OW10259  11.991   4.779   5.859
 2809SOL    HW110260  11.998   4.713   5.928
 2809SOL    HW210261  12.080   4.786   5.823
 2810SOL     OW10262   5.752   9.286  10.831
 2810SOL    HW110263   5.778   9.193  10.836
 2810SOL    HW210264   5.708   9.294  10.746
 2811SOL     OW10265  12.160   2.006  13.302
 2811SOL    HW110266  12.200   2.038  13.222
 2811SOL    HW210267  12.110   2.080  13.336
 2812SOL     OW10268  13.587  11.529   0.231
 2812SOL    HW110269  13.496  11.553   0.213
 2812SOL    HW210270  13.632  11.546   0.148
 2813SOL     OW10271   5.028  11.365  10.081
 2813SOL    HW110272   4.988  11.434  10.028
 2813SOL    HW210273   5.064  11.303  10.018
 2814SOL     OW10274   5.240  14.060   5.925
 2814SOL    HW110275   5.159  14.050   5.975
 2814SOL    HW210276   5.297  14.110   5.983
 2815SOL     OW10277  10.861   2.893   9.147
 2815SOL    HW110278  10.841   2.984   9.166
 2815SOL    HW210279  10.953   2.883   9.173
 2816SOL     OW10280  13.577   7.905   6.371
 2816SOL    HW110281  13.504   7.938   6.317
 2816SOL    HW210282  13.540   7.830   6.417
 2817SOL     OW10283  10.652   2.357   1.684
 2817SOL    HW110284  10.588   2.289   1.704
 2817SOL    HW210285  10.667   2.350   1.590
 2818SOL     OW10286   3.985  13.173   3.168
 2818SOL    HW110287   4.027  13.164   3.254
 2818SOL    HW210288   3.906  13.120   3.174
 2819SOL     OW10289   1.897  13.248   3.677
 2819SOL    HW110290   1.803  13.251   3.694
 2819SOL    HW210291   1.908  13.292   3.593
 2820SOL     OW10292  13.535  13.365  10.537
 2820SOL    HW110293  13.611  13.419  10.514
 2820SOL    HW210294  13.484  13.420  10.596
 2821SOL     OW10295  12.229   4.149  12.725
 2821SOL    HW110296  12.319   4.120  12.707
 2821SOL    HW210297  12.212   4.120  12.814
 2822SOL     OW10298   8.969  11.296   7.153
 2822SOL    HW110299   9.015  11.274   7.234
 2822SOL    HW210300   8.975  11.392   7.148
 2823SOL     OW10301   2.748   3.023   2.014
 2823SOL    HW110302   2.800   3.022   2.095
 2823SOL    HW210303   2.804   3.067   1.950
 2824SOL     OW10304  12.966  12.904   3.303
 2824SOL    HW110305  12.999  12.962   3.372
 2824SOL    HW210306  12.875  12.932   3.289
 2825SOL     OW10307   6.264  14.581   4.381
 2825SOL    HW110308   6.178  14.620   4.366
 2825SOL    HW210309   6.308  14.643   4.439
 2826SOL     OW10310   8.831   1.899   5.140
 2826SOL    HW110311   8.841   1.947   5.222
 2826SOL    HW210312   8.737   1.903   5.121
 2827SOL     OW10313  13.889  13.711  12.130
 2827SOL    HW110314  13.814  13.655  12.113
 2827SOL    HW210315  13.941  13.664  12.196
 2828SOL     OW10316  12.556   8.721   7.098
 2828SOL    HW110317  12.480   8.716   7.041
 2828SOL    HW210318  12.545   8.647   7.158
 2829SOL     OW10319   1.497   7.012  13.717
 2829SOL    HW110320   1.552   7.077  13.672
 2829SOL    HW210321   1.532   7.009  13.806
 2830SOL     OW10322  13.388   7.897   4.985
 2830SOL    HW110323  13.422   7.987   4.993
 2830SOL    HW210324  13.300   7.902   5.020
 2831SOL     OW10325  12.114   0.444  14.232
 2831SOL    HW110326  12.181   0.404  14.176
 2831SOL    HW210327  12.162   0.479  14.306
 2832SOL     OW10328   0.466   1.701   4.611
 2832SOL    HW110329   0.385   1.743   4.642
 2832SOL    HW210330   0.436   1.619   4.573
 2833SOL     OW10331   1.595  14.249  10.747
 2833SOL    HW110332   1.539  14.310  10.699
 2833SOL    HW210333   1.536  14.179  10.774
 2834SOL     OW10334   3.919   8.674  12.236
 2834SOL    HW110335   3.832   8.710  12.216
 2834SOL    HW210336   3.915   8.655  12.330
 2835SOL     OW10337  12.390  14.578   5.965
 2835SOL    HW110338  12.427  14.529   6.038
 2835SOL    HW210339  12.349  14.654   6.005
 2836SOL     OW10340   1.605  12.521   9.106
 2836SOL    HW110341   1.559  12.497   9.026
 2836SOL    HW210342   1.651  12.602   9.085
 2837SOL     OW10343  12.878   9.116  12.977
 2837SOL    HW110344  12.955   9.062  12.957
 2837SOL    HW210345  12.835   9.128  12.892
 2838SOL     OW10346   7.894   9.333   0.671
 2838SOL    HW110347   7.897   9.303   0.581
 2838SOL    HW210348   7.810   9.301   0.705
 2839SOL     OW10349  14.144   0.865   6.623
 2839SOL    HW110350  14.131   0.845   6.716
 2839SOL    HW210351  14.090   0.943   6.608
 2840SOL     OW10352  11.051  10.129   1.832
 2840SOL    HW110353  11.120  10.128   1.766
 2840SOL    HW210354  11.025  10.221   1.839
 2841SOL     OW10355   8.470   7.298   8.166
 2841SOL    HW110356   8.553   7.312   8.121
 2841SOL    HW210357   8.488   7.224   8.225
 2842SOL     OW10358   4.601   9.830   1.665
 2842SOL    HW110359   4.658   9.798   1.734
 2842SOL    HW210360   4.513   9.812   1.696
 2843SOL     OW10361  10.929   8.222  12.357
 2843SOL    HW110362  10.839   8.253  12.342
 2843SOL    HW210363  10.955   8.185  12.272
 2844SOL     OW10364   5.782   6.382   9.468
 2844SOL    HW110365   5.821   6.374   9.381
 2844SOL    HW210366   5.767   6.292   9.496
 2845SOL     OW10367   5.492   8.025   0.484
 2845SOL    HW110368   5.432   7.997   0.416
 2845SOL    HW210369   5.478   8.120   0.491
 2846SOL     OW10370   8.079   8.021   5.471
 2846SOL    HW110371   8.131   7.965   5.413
 2846SOL    HW210372   7.999   7.971   5.486
 2847SOL     OW10373   1.532   4.852   8.951
 2847SOL    HW110374   1.551   4.766   8.914
 2847SOL    HW210375   1.603   4.868   9.013
 2848SOL     OW10376  14.833   2.173   1.595
 2848SOL    HW110377  14.792   2.208   1.516
 2848SOL    HW210378  14.864   2.086   1.570
 2849SOL     OW10379  14.393   5.026  10.718
 2849SOL    HW110380  14.343   5.099  10.681
 2849SOL    HW210381  14.482   5.060  10.727
 2850SOL     OW10382   9.329  10.879   8.592
 2850SOL    HW110383   9.422  10.874   8.570
 2850SOL    HW210384   9.322  10.841   8.679
 2851SOL     OW10385   3.249   2.453  10.739
 2851SOL    HW110386   3.166   2.415  10.766
 2851SOL    HW210387   3.315   2.403  10.787
 2852SOL     OW10388   8.073  13.961  11.982
 2852SOL    HW110389   7.995  14.017  11.985
 2852SOL    HW210390   8.044  13.882  11.938
 2853SOL     OW10391  14.581   7.829  11.471
 2853SOL    HW110392  14.669   7.846  11.438
 2853SOL    HW210393  14.591   7.756  11.531
 2854SOL     OW10394  10.120  13.186  14.024
 2854SOL    HW110395  10.036  13.225  13.998
 2854SOL    HW210396  10.128  13.205  14.117
 2855SOL     OW10397   8.720  12.232   2.599
 2855SOL    HW110398   8.661  12.219   2.673
 2855SOL    HW210399   8.717  12.326   2.583
 2856SOL     OW10400   0.251   1.516   9.797
 2856SOL    HW110401   0.241   1.607   9.769
 2856SOL    HW210402   0.307   1.476   9.731
 2857SOL     OW10403   5.202   1.905  14.089
 2857SOL    HW110404   5.230   1.961  14.018
 2857SOL    HW210405   5.158   1.832  14.046
 2858SOL     OW10406   0.104  12.025   7.968
 2858SOL    HW110407   0.164  12.062   8.033
 2858SOL    HW210408   0.080  11.940   8.004
 2859SOL     OW10409  10.295   3.560  10.889
 2859SOL    HW110410  10.377   3.519  10.861
 2859SOL    HW210411  10.227   3.515  10.839
 2860SOL     OW10412   9.143  11.405  10.727
 2860SOL    HW110413   9.074  11.345  10.699
 2860SOL    HW210414   9.097  11.473  10.776
 2861SOL     OW10415   9.063  14.553  12.615
 2861SOL    HW110416   9.131  14.562  12.548
 2861SOL    HW210417   9.043  14.459  12.616
 2862SOL     OW10418   5.809   2.519   7.692
 2862SOL    HW110419   5.723   2.559   7.676
 2862SOL    HW210420   5.871   2.580   7.652
 2863SOL     OW10421   8.637   3.531   5.431
 2863SOL    HW110422   8.692   3.597   5.474
 2863SOL    HW210423   8.599   3.577   5.356
 2864SOL     OW10424   5.547  12.170   2.867
 2864SOL    HW110425   5.456  12.150   2.845
 2864SOL    HW210426   5.555  12.264   2.857
 2865SOL     OW10427  13.747  14.136   6.123
 2865SOL    HW110428  13.713  14.185   6.049
 2865SOL    HW210429  13.803  14.069   6.083
 2866SOL     OW10430  11.462  13.112   4.915
 2866SOL    HW110431  11.455  13.056   4.992
 2866SOL    HW210432  11.553  13.101   4.885
 2867SOL     OW10433   2.588   2.389  11.724
 2867SOL    HW110434   2.496   2.399  11.699
 2867SOL    HW210435   2.599   2.450  11.797
 2868SOL     OW10436  10.609  10.466  11.796
 2868SOL    HW110437  10.519  10.436  11.804
 2868SOL    HW210438  10.612  10.547  11.847
 2869SOL     OW10439   0.230   1.119   8.420
 2869SOL    HW110440   0.193   1.208   8.420
 2869SOL    HW210441   0.324   1.133   8.410
 2870SOL     OW10442  12.105   2.619  10.781
 2870SOL    HW110443  12.101   2.700  10.731
 2870SOL    HW210444  12.028   2.570  10.754
 2871SOL     OW10445  11.433   9.166   4.065
 2871SOL    HW110446  11.412   9.258   4.055
 2871SOL    HW210447  11.464   9.157   4.155
 2872SOL     OW10448   7.152   9.383  13.854
 2872SOL    HW110449   7.161   9.451  13.787
 2872SOL    HW210450   7.218   9.406  13.919
 2873SOL     OW10451   4.990  13.838   8.102
 2873SOL    HW110452   4.958  13.864   8.016
 2873SOL    HW210453   4.950  13.753   8.119
 2874SOL     OW10454   4.572   6.310   7.707
 2874SOL    HW110455   4.509   6.367   7.664
 2874SOL    HW210456   4.571   6.337   7.799
 2875SOL     OW10457   5.480   3.429   3.403
 2875SOL    HW110458   5.535   3.507   3.406
 2875SOL    HW210459   5.403   3.456   3.353
 2876SOL     OW10460   9.104  12.799  10.358
 2876SOL    HW110461   9.131  12.719  10.314
 2876SOL    HW210462   9.085  12.861  10.287
 2877SOL     OW10463   5.758   0.926   0.680
 2877SOL    HW110464   5.833   0.903   0.735
 2877SOL    HW210465   5.716   0.999   0.726
 2878SOL     OW10466  13.407   9.770   0.879
 2878SOL    HW110467  13.460   9.827   0.935
 2878SOL    HW210468  13.383   9.697   0.935
 2879SOL     OW10469   9.443  14.727  14.316
 2879SOL    HW110470   9.409  14.638  14.307
 2879SOL    HW210471   9.427  14.749  14.408
 2880SOL     OW10472   9.155   0.478   5.818
 2880SOL    HW110473   9.199   0.411   5.871
 2880SOL    HW210474   9.098   0.523   5.880
 2881SOL     OW10475  13.177   9.054   2.983
 2881SOL    HW110476  13.167   9.025   3.073
 2881SOL    HW210477  13.088   9.064   2.951
 2882SOL     OW10478  13.140   5.502  12.172
 2882SOL    HW110479  13.086   5.441  12.222
 2882SOL    HW210480  13.092   5.513  12.089
 2883SOL     OW10481   2.679   1.468   5.138
 2883SOL    HW110482   2.588   1.469   5.108
 2883SOL    HW210483   2.710   1.557   5.121
 2884SOL     OW10484  12.904  11.885   7.862
 2884SOL    HW110485  12.820  11.918   7.894
 2884SOL    HW210486  12.967  11.910   7.929
 2885SOL     OW10487  11.368   4.310   0.099
 2885SOL    HW110488  11.328   4.223   0.090
 2885SOL    HW210489  11.455   4.300   0.060
 2886SOL     OW10490   3.034   6.032   9.107
 2886SOL    HW110491   3.006   6.017   9.016
 2886SOL    HW210492   3.055   6.126   9.110
 2887SOL     OW10493   1.974   1.770   9.387
 2887SOL    HW110494   1.939   1.802   9.470
 2887SOL    HW210495   2.067   1.794   9.389
 2888SOL     OW10496  14.361   8.904   1.971
 2888SOL    HW110497  14.392   8.847   1.901
 2888SOL    HW210498  14.441   8.929   2.018
 2889SOL     OW10499   1.239   3.979   5.996
 2889SOL    HW110500   1.175   4.011   6.060
 2889SOL    HW210501   1.320   3.972   6.045
 2890SOL     OW10502   4.525   8.082  14.689
 2890SOL    HW110503   4.482   8.000  14.666
 2890SOL    HW210504   4.494   8.103  14.777
 2891SOL     OW10505  10.334   7.589   1.722
 2891SOL    HW110506  10.295   7.581   1.634
 2891SOL    HW210507  10.259   7.591   1.781
 2892SOL     OW10508   3.679  13.945   6.578
 2892SOL    HW110509   3.666  13.937   6.483
 2892SOL    HW210510   3.698  14.037   6.592
 2893SOL     OW10511  12.549   6.454  13.718
 2893SOL    HW110512  12.576   6.405  13.795
 2893SOL    HW210513  12.614   6.434  13.651
 2894SOL     OW10514  11.028   3.576   6.444
 2894SOL    HW110515  11.093   3.629   6.490
 2894SOL    HW210516  11.074   3.542   6.368
 2895SOL     OW10517   8.401   6.924  10.984
 2895SOL    HW110518   8.406   6.913  10.889
 2895SOL    HW210519   8.315   6.890  11.008
 2896SOL     OW10520   3.912   2.715  13.884
 2896SOL    HW110521   3.889   2.712  13.977
 2896SOL    HW210522   3.830   2.699  13.838
 2897SOL     OW10523   5.915   1.844   3.618
 2897SOL    HW110524   5.908   1.883   3.706
 2897SOL    HW210525   5.825   1.842   3.586
 2898SOL     OW10526   9.113   9.684  14.601
 2898SOL    HW110527   9.192   9.710  14.648
 2898SOL    HW210528   9.137   9.603  14.556
 2899SOL     OW10529   6.151   1.203   1.095
 2899SOL    HW110530   6.216   1.257   1.050
 2899SOL    HW210531   6.066   1.239   1.067
 2900SOL     OW10532   0.970   6.293   6.560
 2900SOL    HW110533   1.040   6.250   6.510
 2900SOL    HW210534   0.996   6.283   6.651
 2901SOL     OW10535   5.955   3.643  12.034
 2901SOL    HW110536   6.038   3.677  12.001
 2901SOL    HW210537   5.888   3.686  11.980
 2902SOL     OW10538  11.581   9.987   3.142
 2902SOL    HW110539  11.516   9.922   3.114
 2902SOL    HW210540  11.532  10.068   3.151
 2903SOL     OW10541   2.533   6.285   3.610
 2903SOL    HW110542   2.533   6.381   3.613
 2903SOL    HW210543   2.618   6.260   3.647
 2904SOL     OW10544   6.407   2.971   1.268
 2904SOL    HW110545   6.437   3.043   1.323
 2904SOL    HW210546   6.485   2.942   1.221
 2905SOL     OW10547  14.508   4.117  14.703
 2905SOL    HW110548  14.559   4.060  14.646
 2905SOL    HW210549  14.472   4.184  14.644
 2906SOL     OW10550  12.953   4.458   3.990
 2906SOL    HW110551  12.925   4.391   4.053
 2906SOL    HW210552  12.873   4.480   3.942
 2907SOL     OW10553   3.579   8.925  12.013
 2907SOL    HW110554   3.615   8.924  11.924
 2907SOL    HW210555   3.654   8.909  12.070
 2908SOL     OW10556  10.574   2.042  14.167
 2908SOL    HW110557  10.516   2.111  14.135
 2908SOL    HW210558  10.570   2.050  14.262
 2909SOL     OW10559  11.120   2.616   9.291
 2909SOL    HW110560  11.108   2.705   9.258
 2909SOL    HW210561  11.145   2.565   9.213
 2910SOL     OW10562  12.889   1.858   8.003
 2910SOL    HW110563  12.958   1.839   7.939
 2910SOL    HW210564  12.936   1.874   8.085
 2911SOL     OW10565   7.512  10.795   1.582
 2911SOL    HW110566   7.467  10.730   1.528
 2911SOL    HW210567   7.499  10.764   1.672
 2912SOL     OW10568   1.711   8.843   9.126
 2912SOL    HW110569   1.776   8.775   9.110
 2912SOL    HW210570   1.759   8.913   9.170
 2913SOL     OW10571  11.769   4.629   7.039
 2913SOL    HW110572  11.707   4.682   7.090
 2913SOL    HW210573  11.855   4.666   7.058
 2914SOL     OW10574   7.015  11.381   6.503
 2914SOL    HW110575   7.091  11.324   6.514
 2914SOL    HW210576   6.954  11.329   6.451
 2915SOL     OW10577   8.029  13.606   1.062
 2915SOL    HW110578   8.002  13.525   1.106
 2915SOL    HW210579   7.950  13.660   1.063
 2916SOL     OW10580   8.932   0.518   2.532
 2916SOL    HW110581   8.947   0.594   2.587
 2916SOL    HW210582   9.019   0.481   2.517
 2917SOL     OW10583   1.630  13.261   3.717
 2917SOL    HW110584   1.602  13.299   3.634
 2917SOL    HW210585   1.579  13.181   3.726
 2918SOL     OW10586   8.808  13.370   5.398
 2918SOL    HW110587   8.835  13.375   5.306
 2918SOL    HW210588   8.843  13.287   5.429
 2919SOL     OW10589   0.117  13.938   2.873
 2919SOL    HW110590   0.132  13.922   2.779
 2919SOL    HW210591   0.080  13.855   2.905
 2920SOL     OW10592   9.913   7.171   8.833
 2920SOL    HW110593   9.939   7.221   8.911
 2920SOL    HW210594   9.860   7.232   8.782
 2921SOL     OW10595  11.344  13.578   7.934
 2921SOL    HW110596  11.318  13.572   8.026
 2921SOL    HW210597  11.274  13.627   7.892
 2922SOL     OW10598   2.399   9.700  10.388
 2922SOL    HW110599   2.433   9.767  10.328
 2922SOL    HW210600   2.431   9.617  10.353
 2923SOL     OW10601  10.941   9.871   4.843
 2923SOL    HW110602  10.878   9.933   4.807
 2923SOL    HW210603  10.889   9.806   4.889
 2924SOL     OW10604   2.069  13.609   3.024
 2924SOL    HW110605   1.996  13.663   3.054
 2924SOL    HW210606   2.143  13.637   3.078
 2925SOL     OW10607  11.860   1.806   7.376
 2925SOL    HW110608  11.835   1.825   7.286
 2925SOL    HW210609  11.926   1.737   7.368
 2926SOL     OW10610   6.401   0.482   6.776
 2926SOL    HW110611   6.395   0.387   6.762
 2926SOL    HW210612   6.314   0.507   6.807
 2927SOL     OW10613  14.216  14.016   4.385
 2927SOL    HW110614  14.221  14.104   4.348
 2927SOL    HW210615  14.251  14.024   4.473
 2928SOL     OW10616   0.220   7.083  13.690
 2928SOL    HW110617   0.300   7.114  13.731
 2928SOL    HW210618   0.155   7.151  13.709
 2929SOL     OW10619   2.040   2.441   2.626
 2929SOL    HW110620   2.001   2.421   2.711
 2929SOL    HW210621   2.133   2.422   2.637
 2930SOL     OW10622   2.147   2.803  11.983
 2930SOL    HW110623   2.203   2.805  12.061
 2930SOL    HW210624   2.205   2.775  11.912
 2931SOL     OW10625  10.367   1.197   3.525
 2931SOL    HW110626  10.336   1.152   3.603
 2931SOL    HW210627  10.423   1.133   3.481
 2932SOL     OW10628  11.198  11.093  14.837
 2932SOL    HW110629  11.112  11.054  14.850
 2932SOL    HW210630  11.180  11.175  14.792
 2933SOL     OW10631   3.470   6.371  11.210
 2933SOL    HW110632   3.385   6.375  11.255
 2933SOL    HW210633   3.499   6.281  11.221
 2934SOL     OW10634   4.651   5.035   7.977
 2934SOL    HW110635   4.561   5.001   7.972
 2934SOL    HW210636   4.659   5.066   8.067
 2935SOL     OW10637  13.611   3.674   7.229
 2935SOL    HW110638  13.606   3.591   7.180
 2935SOL    HW210639  13.546   3.730   7.187
 2936SOL     OW10640   5.100   2.313   1.349
 2936SOL    HW110641   5.141   2.378   1.406
 2936SOL    HW210642   5.161   2.240   1.349
 2937SOL     OW10643   7.440   7.921   8.664
 2937SOL    HW110644   7.438   7.986   8.734
 2937SOL    HW210645   7.515   7.946   8.610
 2938SOL     OW10646   4.128   2.332   2.678
 2938SOL    HW110647   4.196   2.379   2.727
 2938SOL    HW210648   4.048   2.345   2.729
 2939SOL     OW10649  12.014  10.986   3.965
 2939SOL    HW110650  12.038  10.970   3.874
 2939SOL    HW210651  11.945  10.922   3.983
 2940SOL     OW10652   6.272   2.484   2.949
 2940SOL    HW110653   6.245   2.450   3.034
 2940SOL    HW210654   6.363   2.456   2.940
 2941SOL     OW10655   6.100   5.859  10.507
 2941SOL    HW110656   6.085   5.874  10.601
 2941SOL    HW210657   6.023   5.811  10.478
 2942SOL     OW10658  13.607  13.177   0.057
 2942SOL    HW110659  13.537  13.202   0.117
 2942SOL    HW210660  13.677  13.240   0.074
 2943SOL     OW10661   1.349  13.912   7.810
 2943SOL    HW110662   1.396  13.988   7.775
 2943SOL    HW210663   1.416  13.863   7.858
 2944SOL     OW10664   6.855   5.219  10.577
 2944SOL    HW110665   6.800   5.296  10.585
 2944SOL    HW210666   6.820   5.157  10.640
 2945SOL     OW10667  13.051   0.577  11.340
 2945SOL    HW110668  13.139   0.611  11.357
 2945SOL    HW210669  13.020   0.628  11.265
 2946SOL     OW10670   5.390   3.681   9.690
 2946SOL    HW110671   5.372   3.637   9.606
 2946SOL    HW210672   5.484   3.695   9.690
 2947SOL     OW10673  10.929  10.350   4.613
 2947SOL    HW110674  10.912  10.280   4.551
 2947SOL    HW210675  10.949  10.305   4.696
 2948SOL     OW10676  11.593  14.770  11.467
 2948SOL    HW110677  11.651  14.704  11.430
 2948SOL    HW210678  11.650  14.844  11.487
 2949SOL     OW10679   0.968   4.619  14.171
 2949SOL    HW110680   0.910   4.547  14.149
 2949SOL    HW210681   1.011   4.641  14.088
 2950SOL     OW10682   0.826  14.756   1.614
 2950SOL    HW110683   0.870  14.824   1.664
 2950SOL    HW210684   0.848  14.774   1.523
 2951SOL     OW10685  13.381   5.986  14.038
 2951SOL    HW110686  13.430   5.965  13.958
 2951SOL    HW210687  13.389   5.907  14.091
 2952SOL     OW10688   5.395   2.521   6.040
 2952SOL    HW110689   5.371   2.607   6.076
 2952SOL    HW210690   5.345   2.459   6.093
 2953SOL     OW10691   4.717   4.994   7.375
 2953SOL    HW110692   4.670   5.034   7.448
 2953SOL    HW210693   4.785   4.941   7.416
 2954SOL     OW10694   5.050   1.626   9.777
 2954SOL    HW110695   4.998   1.640   9.698
 2954SOL    HW210696   5.105   1.704   9.784
 2955SOL     OW10697   4.616  11.056   5.754
 2955SOL    HW110698   4.621  10.961   5.744
 2955SOL    HW210699   4.694  11.079   5.803
 2956SOL     OW10700   2.129   4.771  12.942
 2956SOL    HW110701   2.063   4.823  12.988
 2956SOL    HW210702   2.213   4.805  12.974
 2957SOL     OW10703   3.198   4.569  12.040
 2957SOL    HW110704   3.127   4.633  12.045
 2957SOL    HW210705   3.213   4.543  12.130
 2958SOL     OW10706  13.204  10.435   8.785
 2958SOL    HW110707  13.294  10.405   8.786
 2958SOL    HW210708  13.181  10.439   8.692
 2959SOL     OW10709   6.139  14.199   0.931
 2959SOL    HW110710   6.128  14.209   1.026
 2959SOL    HW210711   6.151  14.105   0.918
 2960SOL     OW10712  11.000   2.333  12.669
 2960SOL    HW110713  11.040   2.398  12.727
 2960SOL    HW210714  10.907   2.355  12.670
 2961SOL     OW10715   4.984  13.559   5.321
 2961SOL    HW110716   4.962  13.532   5.232
 2961SOL    HW210717   4.900  13.560   5.367
 2962SOL     OW10718   1.264   3.195   7.254
 2962SOL    HW110719   1.332   3.131   7.275
 2962SOL    HW210720   1.310   3.262   7.203
 2963SOL     OW10721   3.511  11.394   2.226
 2963SOL    HW110722   3.437  11.450   2.250
 2963SOL    HW210723   3.544  11.432   2.144
 2964SOL     OW10724   6.687   2.028   5.269
 2964SOL    HW110725   6.765   1.977   5.291
 2964SOL    HW210726   6.716   2.119   5.271
 2965SOL     OW10727  10.470   2.969   5.039
 2965SOL    HW110728  10.465   2.894   4.981
 2965SOL    HW210729  10.476   2.931   5.127
 2966SOL     OW10730   2.150  14.850   9.937
 2966SOL    HW110731   2.104   0.031   9.877
 2966SOL    HW210732   2.242  14.863   9.916
 2967SOL     OW10733  14.063   7.210   3.628
 2967SOL    HW110734  14.020   7.216   3.543
 2967SOL    HW210735  14.012   7.144   3.676
 2968SOL     OW10736  10.620   3.791   6.633
 2968SOL    HW110737  10.668   3.709   6.622
 2968SOL    HW210738  10.529   3.768   6.615
 2969SOL     OW10739  13.646  11.817  12.527
 2969SOL    HW110740  13.588  11.840  12.600
 2969SOL    HW210741  13.727  11.789  12.569
 2970SOL     OW10742   3.936   3.701   8.559
 2970SOL    HW110743   3.904   3.767   8.497
 2970SOL    HW210744   3.974   3.752   8.630
 2971SOL     OW10745   5.447   0.701   9.528
 2971SOL    HW110746   5.461   0.665   9.616
 2971SOL    HW210747   5.383   0.771   9.541
 2972SOL     OW10748   7.197   7.721  10.594
 2972SOL    HW110749   7.274   7.667  10.580
 2972SOL    HW210750   7.123   7.660  10.593
 2973SOL     OW10751  10.447   5.648   8.458
 2973SOL    HW110752  10.401   5.732   8.467
 2973SOL    HW210753  10.528   5.669   8.413
 2974SOL     OW10754   9.025   4.456   7.091
 2974SOL    HW110755   8.969   4.485   7.163
 2974SOL    HW210756   8.988   4.371   7.065
 2975SOL     OW10757   6.557   0.089   4.500
 2975SOL    HW110758   6.644   0.071   4.536
 2975SOL    HW210759   6.571   0.164   4.441
 2976SOL     OW10760   1.431   3.539   3.727
 2976SOL    HW110761   1.418   3.458   3.679
 2976SOL    HW210762   1.437   3.607   3.660
 2977SOL     OW10763  13.152  11.608  10.591
 2977SOL    HW110764  13.174  11.665  10.517
 2977SOL    HW210765  13.103  11.665  10.650
 2978SOL     OW10766   6.181  11.455   1.765
 2978SOL    HW110767   6.199  11.543   1.799
 2978SOL    HW210768   6.118  11.419   1.827
 2979SOL     OW10769   9.870   9.616  11.236
 2979SOL    HW110770   9.939   9.548  11.239
 2979SOL    HW210771   9.789   9.567  11.247
 2980SOL     OW10772   9.976   3.992  14.585
 2980SOL    HW110773   9.910   3.928  14.609
 2980SOL    HW210774  10.039   3.990  14.657
 2981SOL     OW10775  10.885  11.643  10.601
 2981SOL    HW110776  10.799  11.600  10.600
 2981SOL    HW210777  10.935  11.597  10.533
 2982SOL     OW10778   0.397  11.529   5.991
 2982SOL    HW110779   0.490  11.545   5.975
 2982SOL    HW210780   0.352  11.597   5.941
 2983SOL     OW10781  11.064   7.546   1.092
 2983SOL    HW110782  10.988   7.543   1.150
 2983SOL    HW210783  11.041   7.610   1.026
 2984SOL     OW10784   7.202   4.908   4.828
 2984SOL    HW110785   7.199   4.892   4.734
 2984SOL    HW210786   7.231   4.825   4.866
 2985SOL     OW10787  12.839   9.479   0.225
 2985SOL    HW110788  12.767   9.502   0.167
 2985SOL    HW210789  12.798   9.467   0.311
 2986SOL     OW10790  11.939   4.706   4.251
 2986SOL    HW110791  11.879   4.764   4.204
 2986SOL    HW210792  11.916   4.716   4.343
 2987SOL     OW10793   7.278   2.412  13.728
 2987SOL    HW110794   7.359   2.367  13.754
 2987SOL    HW210795   7.296   2.505  13.741
 2988SOL     OW10796  13.249  14.721   1.668
 2988SOL    HW110797  13.222  14.705   1.759
 2988SOL    HW210798  13.193  14.664   1.616
 2989SOL     OW10799   1.885  14.060   2.698
 2989SOL    HW110800   1.845  14.079   2.613
 2989SOL    HW210801   1.955  14.124   2.706
 2990SOL     OW10802  14.787   0.590  10.256
 2990SOL    HW110803  14.755   0.532  10.325
 2990SOL    HW210804  14.710   0.642  10.232
 2991SOL     OW10805   5.937   6.036   2.562
 2991SOL    HW110806   5.958   5.954   2.518
 2991SOL    HW210807   5.965   6.104   2.501
 2992SOL     OW10808   0.252   3.940   7.352
 2992SOL    HW110809   0.159   3.940   7.377
 2992SOL    HW210810   0.277   3.848   7.356
 2993SOL     OW10811  13.454   0.544  10.482
 2993SOL    HW110812  13.384   0.539  10.416
 2993SOL    HW210813  13.488   0.454  10.486
 2994SOL     OW10814  13.937   3.614   7.936
 2994SOL    HW110815  13.927   3.563   8.016
 2994SOL    HW210816  13.871   3.579   7.876
 2995SOL     OW10817  10.674   2.193   4.305
 2995SOL    HW110818  10.731   2.117   4.315
 2995SOL    HW210819  10.617   2.171   4.231
 2996SOL     OW10820   9.711  10.965   1.868
 2996SOL    HW110821   9.683  10.878   1.896
 2996SOL    HW210822   9.668  10.978   1.784
 2997SOL     OW10823   2.875   8.582   7.642
 2997SOL    HW110824   2.952   8.529   7.620
 2997SOL    HW210825   2.817   8.521   7.687
 2998SOL     OW10826  12.660   5.885   5.189
 2998SOL    HW110827  12.645   5.961   5.133
 2998SOL    HW210828  12.693   5.817   5.129
 2999SOL     OW10829  11.848  10.798   5.804
 2999SOL    HW110830  11.869  10.818   5.712
 2999SOL    HW210831  11.797  10.718   5.800
 3000SOL     OW10832   3.149   4.183   6.278
 3000SOL    HW110833   3.078   4.160   6.338
 3000SOL    HW210834   3.120   4.266   6.239
 3001SOL     OW10835   7.990   2.861   0.730
 3001SOL    HW110836   8.024   2.792   0.788
 3001SOL    HW210837   7.938   2.813   0.665
 3002SOL     OW10838  11.380  12.998  11.492
 3002SOL    HW110839  11.327  13.022  11.416
 3002SOL    HW210840  11.324  13.016  11.567
 3003SOL     OW10841   9.671   8.312   9.017
 3003SOL    HW110842   9.671   8.344   8.927
 3003SOL    HW210843   9.760   8.330   9.049
 3004SOL     OW10844  11.626   9.078   4.294
 3004SOL    HW110845  11.615   9.083   4.389
 3004SOL    HW210846  11.617   8.985   4.274
 3005SOL     OW10847   7.181  10.848  12.094
 3005SOL    HW110848   7.096  10.853  12.049
 3005SOL    HW210849   7.159  10.817  12.182
 3006SOL     OW10850   6.193   6.687   4.313
 3006SOL    HW110851   6.280   6.682   4.274
 3006SOL    HW210852   6.153   6.763   4.272
 3007SOL     OW10853  13.976  10.893  14.771
 3007SOL    HW110854  14.022  10.952  14.831
 3007SOL    HW210855  13.904  10.857  14.823
 3008SOL     OW10856   6.065  11.988  10.131
 3008SOL    HW110857   6.076  12.028  10.217
 3008SOL    HW210858   6.077  11.894  10.145
 3009SOL     OW10859   5.913   7.117  12.632
 3009SOL    HW110860   5.825   7.141  12.662
 3009SOL    HW210861   5.960   7.201  12.628
 3010SOL     OW10862  14.465   7.146  12.256
 3010SOL    HW110863  14.377   7.133  12.220
 3010SOL    HW210864  14.498   7.224  12.211
 3011SOL     OW10865   8.407  13.833   5.632
 3011SOL    HW110866   8.326  13.818   5.681
 3011SOL    HW210867   8.414  13.756   5.574
 3012SOL     OW10868  14.816   1.437   5.079
 3012SOL    HW110869   0.013   1.399   5.036
 3012SOL    HW210870  14.829   1.419   5.172
 3013SOL     OW10871   1.574  14.435   1.315
 3013SOL    HW110872   1.533  14.380   1.248
 3013SOL    HW210873   1.565  14.385   1.396
 3014SOL     OW10874  13.831   5.743   3.531
 3014SOL    HW110875  13.923   5.731   3.507
 3014SOL    HW210876  13.784   5.681   3.475
 3015SOL     OW10877  11.380   6.145   6.004
 3015SOL    HW110878  11.391   6.139   6.099
 3015SOL    HW210879  11.463   6.181   5.973
 3016SOL     OW10880  12.174   3.212   2.613
 3016SOL    HW110881  12.247   3.153   2.597
 3016SOL    HW210882  12.109   3.158   2.659
 3017SOL     OW10883  13.703   1.043  14.800
 3017SOL    HW110884  13.693   1.132  14.766
 3017SOL    HW210885  13.645   1.040  14.877
 3018SOL     OW10886   1.498  11.352   4.304
 3018SOL    HW110887   1.485  11.297   4.381
 3018SOL    HW210888   1.561  11.418   4.332
 3019SOL     OW10889   4.678   5.379   8.830
 3019SOL    HW110890   4.753   5.413   8.782
 3019SOL    HW210891   4.710   5.299   8.872
 3020SOL     OW10892  13.649   7.986   4.227
 3020SOL    HW110893  13.713   7.926   4.189
 3020SOL    HW210894  13.631   7.951   4.314
 3021SOL     OW10895   0.678   2.628  13.974
 3021SOL    HW110896   0.765   2.589  13.981
 3021SOL    HW210897   0.687   2.692  13.904
 3022SOL     OW10898   6.662  12.002   7.059
 3022SOL    HW110899   6.638  12.019   7.150
 3022SOL    HW210900   6.616  11.921   7.036
 3023SOL     OW10901   2.590   6.777   1.465
 3023SOL    HW110902   2.598   6.718   1.541
 3023SOL    HW210903   2.502   6.813   1.472
 3024SOL     OW10904   8.192   4.016   8.989
 3024SOL    HW110905   8.103   3.983   8.975
 3024SOL    HW210906   8.225   4.036   8.901
 3025SOL     OW10907   0.639  13.838  13.184
 3025SOL    HW110908   0.647  13.929  13.211
 3025SOL    HW210909   0.564  13.804  13.234
 3026SOL     OW10910   6.778  10.214  10.626
 3026SOL    HW110911   6.871  10.215  10.605
 3026SOL    HW210912   6.772  10.158  10.704
 3027SOL     OW10913   5.816   0.297  11.035
 3027SOL    HW110914   5.812   0.311  11.129
 3027SOL    HW210915   5.763   0.368  10.998
 3028SOL     OW10916   8.054   7.983   6.966
 3028SOL    HW110917   8.087   8.073   6.956
 3028SOL    HW210918   7.963   7.988   6.936
 3029SOL     OW10919   6.926   0.884  14.158
 3029SOL    HW110920   6.983   0.846  14.091
 3029SOL    HW210921   6.837   0.869  14.125
 3030SOL     OW10922   0.750   5.373   1.494
 3030SOL    HW110923   0.747   5.327   1.578
 3030SOL    HW210924   0.744   5.466   1.518
 3031SOL     OW10925   2.882  13.704   9.673
 3031SOL    HW110926   2.807  13.682   9.729
 3031SOL    HW210927   2.899  13.796   9.691
 3032SOL     OW10928  10.646   0.152  14.585
 3032SOL    HW110929  10.565   0.103  14.570
 3032SOL    HW210930  10.703   0.092  14.633
 3033SOL     OW10931  11.540   9.080  12.159
 3033SOL    HW110932  11.623   9.065  12.205
 3033SOL    HW210933  11.554   9.159  12.109
 3034SOL     OW10934   8.772   3.551   0.199
 3034SOL    HW110935   8.805   3.512   0.118
 3034SOL    HW210936   8.806   3.494   0.269
 3035SOL     OW10937   9.377  10.014   1.601
 3035SOL    HW110938   9.299  10.043   1.647
 3035SOL    HW210939   9.345   9.986   1.515
 3036SOL     OW10940   9.048   1.467   2.754
 3036SOL    HW110941   9.083   1.445   2.840
 3036SOL    HW210942   9.032   1.562   2.758
 3037SOL     OW10943   3.417  10.900   4.311
 3037SOL    HW110944   3.368  10.953   4.248
 3037SOL    HW210945   3.362  10.899   4.389
 3038SOL     OW10946  14.588   9.639   2.302
 3038SOL    HW110947  14.619   9.700   2.370
 3038SOL    HW210948  14.524   9.690   2.252
 3039SOL     OW10949   9.132   8.770   3.435
 3039SOL    HW110950   9.064   8.725   3.385
 3039SOL    HW210951   9.105   8.862   3.435
 3040SOL     OW10952  10.295   8.515   1.096
 3040SOL    HW110953  10.252   8.560   1.170
 3040SOL    HW210954  10.223   8.496   1.036
 3041SOL     OW10955  14.497   7.674   5.613
 3041SOL    HW110956  14.510   7.641   5.523
 3041SOL    HW210957  14.478   7.767   5.602
 3042SOL     OW10958   6.888   7.263   6.126
 3042SOL    HW110959   6.976   7.226   6.121
 3042SOL    HW210960   6.901   7.358   6.125
 3043SOL     OW10961  11.705  11.840  10.777
 3043SOL    HW110962  11.701  11.881  10.863
 3043SOL    HW210963  11.781  11.878  10.735
 3044SOL     OW10964   1.761   8.762   6.369
 3044SOL    HW110965   1.850   8.771   6.332
 3044SOL    HW210966   1.709   8.726   6.297
 3045SOL     OW10967  10.234   6.656   9.956
 3045SOL    HW110968  10.153   6.656   9.904
 3045SOL    HW210969  10.304   6.648   9.892
 3046SOL     OW10970  12.818   5.677  14.636
 3046SOL    HW110971  12.745   5.650  14.692
 3046SOL    HW210972  12.811   5.622  14.559
 3047SOL     OW10973   0.998   1.357   1.176
 3047SOL    HW110974   1.062   1.311   1.122
 3047SOL    HW210975   0.913   1.330   1.142
 3048SOL     OW10976  10.911   2.910   1.300
 3048SOL    HW110977  10.963   2.954   1.367
 3048SOL    HW210978  10.955   2.933   1.217
 3049SOL     OW10979   9.175   0.540  13.678
 3049SOL    HW110980   9.205   0.539  13.769
 3049SOL    HW210981   9.127   0.458  13.667
 3050SOL     OW10982  10.701   3.228   1.396
 3050SOL    HW110983  10.640   3.182   1.339
 3050SOL    HW210984  10.682   3.195   1.484
 3051SOL     OW10985  10.476   8.547   9.042
 3051SOL    HW110986  10.538   8.603   9.089
 3051SOL    HW210987  10.412   8.608   9.004
 3052SOL     OW10988   8.362  12.236  10.676
 3052SOL    HW110989   8.325  12.148  10.690
 3052SOL    HW210990   8.422  12.247  10.749
 3053SOL     OW10991   3.575  11.305  13.881
 3053SOL    HW110992   3.554  11.312  13.788
 3053SOL    HW210993   3.670  11.299  13.884
 3054SOL     OW10994   5.273  11.417   0.765
 3054SOL    HW110995   5.345  11.355   0.755
 3054SOL    HW210996   5.208  11.388   0.702
 3055SOL     OW10997  14.210  14.705   0.244
 3055SOL    HW110998  14.257  14.691   0.326
 3055SOL    HW210999  14.130  14.750   0.270
 3056SOL     OW11000  10.234   1.125  14.054
 3056SOL    HW111001  10.205   1.138  13.964
 3056SOL    HW211002  10.267   1.035  14.055
 3057SOL     OW11003   3.438  13.373   3.731
 3057SOL    HW111004   3.398  13.322   3.802
 3057SOL    HW211005   3.387  13.351   3.653
 3058SOL     OW11006  13.181   7.770  14.755
 3058SOL    HW111007  13.265   7.816  14.749
 3058SOL    HW211008  13.137   7.810  14.830
 3059SOL     OW11009  12.276  12.879   7.392
 3059SOL    HW111010  12.240  12.965   7.369
 3059SOL    HW211011  12.367  12.883   7.363
 3060SOL     OW11012  10.599   1.382   4.803
 3060SOL    HW111013  10.672   1.342   4.851
 3060SOL    HW211014  10.533   1.313   4.799
 3061SOL     OW11015   6.828  14.447   6.249
 3061SOL    HW111016   6.870  14.384   6.307
 3061SOL    HW211017   6.746  14.469   6.294
 3062SOL     OW11018   8.333   0.631   0.636
 3062SOL    HW111019   8.305   0.539   0.631
 3062SOL    HW211020   8.389   0.634   0.714
 3063SOL     OW11021   1.810   9.648  11.050
 3063SOL    HW111022   1.793   9.562  11.012
 3063SOL    HW211023   1.870   9.631  11.122
 3064SOL     OW11024   2.719   7.102   7.840
 3064SOL    HW111025   2.692   7.169   7.903
 3064SOL    HW211026   2.720   7.021   7.890
 3065SOL     OW11027   9.336   1.464   9.648
 3065SOL    HW111028   9.349   1.550   9.688
 3065SOL    HW211029   9.290   1.414   9.715
 3066SOL     OW11030   3.263   9.832   0.512
 3066SOL    HW111031   3.321   9.775   0.563
 3066SOL    HW211032   3.315   9.911   0.497
 3067SOL     OW11033   0.122  11.379  12.875
 3067SOL    HW111034   0.169  11.382  12.959
 3067SOL    HW211035   0.165  11.446  12.822
 3068SOL     OW11036   2.211  12.436  10.617
 3068SOL    HW111037   2.190  12.517  10.663
 3068SOL    HW211038   2.204  12.368  10.684
 3069SOL     OW11039   8.203  13.701   0.227
 3069SOL    HW111040   8.271  13.644   0.263
 3069SOL    HW211041   8.176  13.659   0.146
 3070SOL     OW11042   0.097   0.658   3.287
 3070SOL    HW111043   0.034   0.632   3.220
 3070SOL    HW211044   0.082   0.752   3.298
 3071SOL     OW11045   7.217  14.752   6.463
 3071SOL    HW111046   7.221  14.657   6.459
 3071SOL    HW211047   7.281  14.776   6.531
 3072SOL     OW11048   8.087  14.875   0.883
 3072SOL    HW111049   8.108  14.781   0.888
 3072SOL    HW211050   7.993  14.878   0.869
 3073SOL     OW11051  10.997   4.983  13.363
 3073SOL    HW111052  11.056   4.910  13.342
 3073SOL    HW211053  10.910   4.944  13.360
 3074SOL     OW11054   2.206   4.029   5.984
 3074SOL    HW111055   2.281   4.026   5.924
 3074SOL    HW211056   2.204   4.120   6.015
 3075SOL     OW11057   5.658   3.256  13.624
 3075SOL    HW111058   5.655   3.163  13.647
 3075SOL    HW211059   5.624   3.301  13.702
 3076SOL     OW11060   5.841  12.393   9.014
 3076SOL    HW111061   5.765  12.365   9.066
 3076SOL    HW211062   5.822  12.485   8.993
 3077SOL     OW11063   4.872   9.318  13.524
 3077SOL    HW111064   4.790   9.303  13.476
 3077SOL    HW211065   4.861   9.266  13.605
 3078SOL     OW11066  12.736   3.736   9.294
 3078SOL    HW111067  12.702   3.808   9.347
 3078SOL    HW211068  12.790   3.686   9.354
 3079SOL     OW11069   1.728   5.746   5.042
 3079SOL    HW111070   1.802   5.801   5.070
 3079SOL    HW211071   1.770   5.671   4.999
 3080SOL     OW11072  12.118   2.301   2.000
 3080SOL    HW111073  12.093   2.279   2.089
 3080SOL    HW211074  12.094   2.393   1.990
 3081SOL     OW11075  12.248   4.658   2.276
 3081SOL    HW111076  12.195   4.697   2.207
 3081SOL    HW211077  12.211   4.571   2.289
 3082SOL     OW11078   9.369  12.058   9.710
 3082SOL    HW111079   9.451  12.094   9.676
 3082SOL    HW211080   9.379  11.963   9.701
 3083SOL     OW11081   9.522  10.674   7.650
 3083SOL    HW111082   9.553  10.627   7.572
 3083SOL    HW211083   9.546  10.618   7.723
 3084SOL     OW11084  14.378   2.428  10.980
 3084SOL    HW111085  14.319   2.467  10.915
 3084SOL    HW211086  14.333   2.441  11.063
 3085SOL     OW11087  14.443   3.264  11.426
 3085SOL    HW111088  14.396   3.193  11.470
 3085SOL    HW211089  14.385   3.292  11.356
 3086SOL     OW11090  14.468   1.474   2.394
 3086SOL    HW111091  14.454   1.398   2.338
 3086SOL    HW211092  14.474   1.548   2.332
 3087SOL     OW11093  13.356  12.134   2.683
 3087SOL    HW111094  13.265  12.122   2.711
 3087SOL    HW211095  13.350  12.163   2.592
 3088SOL     OW11096   1.704  12.816   0.168
 3088SOL    HW111097   1.728  12.898   0.211
 3088SOL    HW211098   1.774  12.802   0.104
 3089SOL     OW11099   7.603   2.733   8.963
 3089SOL    HW111100   7.614   2.827   8.951
 3089SOL    HW211101   7.573   2.701   8.878
 3090SOL     OW11102  13.729   7.211   3.084
 3090SOL    HW111103  13.726   7.119   3.113
 3090SOL    HW211104  13.822   7.228   3.069
 3091SOL     OW11105   7.424   4.912   2.892
 3091SOL    HW111106   7.500   4.970   2.883
 3091SOL    HW211107   7.461   4.824   2.887
 3092SOL     OW11108   0.866   8.144  10.405
 3092SOL    HW111109   0.943   8.153  10.461
 3092SOL    HW211110   0.815   8.073  10.445
 3093SOL     OW11111  12.818  10.339  14.230
 3093SOL    HW111112  12.734  10.356  14.186
 3093SOL    HW211113  12.852  10.425  14.253
 3094SOL     OW11114  11.842   9.056  13.519
 3094SOL    HW111115  11.873   9.075  13.607
 3094SOL    HW211116  11.751   9.028  13.531
 3095SOL     OW11117   4.810   3.488  12.540
 3095SOL    HW111118   4.814   3.393  12.539
 3095SOL    HW211119   4.728   3.508  12.585
 3096SOL     OW11120  14.601  11.028   0.131
 3096SOL    HW111121  14.686  11.013   0.172
 3096SOL    HW211122  14.558  11.092   0.188
 3097SOL     OW11123   6.406   2.373   0.866
 3097SOL    HW111124   6.321   2.416   0.858
 3097SOL    HW211125   6.387   2.281   0.849
 3098SOL     OW11126  10.973  13.611  12.770
 3098SOL    HW111127  10.888  13.655  12.767
 3098SOL    HW211128  10.951  13.518  12.779
 3099SOL     OW11129   8.034   1.809   7.156
 3099SOL    HW111130   8.048   1.717   7.174
 3099SOL    HW211131   7.967   1.837   7.219
 3100SOL     OW11132   2.184  12.270  13.203
 3100SOL    HW111133   2.140  12.305  13.126
 3100SOL    HW211134   2.167  12.334  13.272
 3101SOL     OW11135   9.316   1.380   3.963
 3101SOL    HW111136   9.375   1.425   3.903
 3101SOL    HW211137   9.248   1.342   3.907
 3102SOL     OW11138   2.375  12.385   9.636
 3102SOL    HW111139   2.465  12.414   9.620
 3102SOL    HW211140   2.381  12.290   9.640
 3103SOL     OW11141   3.613   4.219   8.660
 3103SOL    HW111142   3.524   4.198   8.688
 3103SOL    HW211143   3.620   4.182   8.572
 3104SOL     OW11144   5.851   4.166   5.954
 3104SOL    HW111145   5.788   4.159   6.026
 3104SOL    HW211146   5.822   4.242   5.903
 3105SOL     OW11147   9.965  14.532   0.387
 3105SOL    HW111148   9.924  14.509   0.471
 3105SOL    HW211149   9.908  14.491   0.321
 3106SOL     OW11150  14.704   3.636   9.835
 3106SOL    HW111151  14.673   3.707   9.891
 3106SOL    HW211152  14.692   3.668   9.745
 3107SOL     OW11153  12.448   8.937   1.906
 3107SOL    HW111154  12.426   8.847   1.930
 3107SOL    HW211155  12.389   8.959   1.835
 3108SOL     OW11156  14.830   6.079  12.964
 3108SOL    HW111157  14.800   6.018  13.032
 3108SOL    HW211158  14.871   6.022  12.898
 3109SOL     OW11159   8.286  14.347   0.718
 3109SOL    HW111160   8.258  14.358   0.627
 3109SOL    HW211161   8.381  14.334   0.712
 3110SOL     OW11162   2.542  10.189  14.027
 3110SOL    HW111163   2.607  10.126  14.059
 3110SOL    HW211164   2.588  10.273  14.028
 3111SOL     OW11165   6.531   5.990  11.942
 3111SOL    HW111166   6.528   6.085  11.954
 3111SOL    HW211167   6.551   5.955  12.029
 3112SOL     OW11168   5.282  14.863  10.342
 3112SOL    HW111169   5.255  14.858  10.433
 3112SOL    HW211170   5.371  14.827  10.341
 3113SOL     OW11171   8.290  13.069   7.988
 3113SOL    HW111172   8.216  13.129   7.999
 3113SOL    HW211173   8.336  13.101   7.910
 3114SOL     OW11174   3.783   2.769   8.915
 3114SOL    HW111175   3.699   2.727   8.895
 3114SOL    HW211176   3.759   2.859   8.937
 3115SOL     OW11177  13.221   7.985   0.928
 3115SOL    HW111178  13.172   7.927   0.987
 3115SOL    HW211179  13.313   7.963   0.945
 3116SOL     OW11180   2.268  14.381  13.604
 3116SOL    HW111181   2.231  14.461  13.567
 3116SOL    HW211182   2.203  14.313  13.585
 3117SOL     OW11183  10.769   7.529  13.321
 3117SOL    HW111184  10.808   7.513  13.407
 3117SOL    HW211185  10.780   7.623  13.306
 3118SOL     OW11186  10.450   9.644   5.152
 3118SOL    HW111187  10.416   9.578   5.091
 3118SOL    HW211188  10.471   9.719   5.096
 3119SOL     OW11189  13.352   6.041  13.536
 3119SOL    HW111190  13.286   5.973  13.521
 3119SOL    HW211191  13.302   6.120  13.555
 3120SOL     OW11192   2.553   3.259   0.229
 3120SOL    HW111193   2.565   3.170   0.262
 3120SOL    HW211194   2.460   3.276   0.238
 3121SOL     OW11195   9.447   7.443  11.507
 3121SOL    HW111196   9.490   7.392  11.576
 3121SOL    HW211197   9.505   7.434  11.431
 3122SOL     OW11198  11.708   4.257   0.981
 3122SOL    HW111199  11.798   4.257   1.012
 3122SOL    HW211200  11.669   4.336   1.020
 3123SOL     OW11201   1.615  10.711   4.622
 3123SOL    HW111202   1.640  10.803   4.628
 3123SOL    HW211203   1.628  10.688   4.530
 3124SOL     OW11204   3.663   9.895  10.355
 3124SOL    HW111205   3.715   9.873  10.431
 3124SOL    HW211206   3.660   9.814  10.303
 3125SOL     OW11207   5.819   1.156   2.499
 3125SOL    HW111208   5.837   1.078   2.551
 3125SOL    HW211209   5.854   1.136   2.413
 3126SOL     OW11210  11.408   3.312  14.300
 3126SOL    HW111211  11.472   3.281  14.365
 3126SOL    HW211212  11.325   3.316  14.348
 3127SOL     OW11213   5.111  11.137  13.180
 3127SOL    HW111214   5.100  11.104  13.090
 3127SOL    HW211215   5.204  11.124  13.199
 3128SOL     OW11216   8.394  11.915  13.121
 3128SOL    HW111217   8.381  12.009  13.135
 3128SOL    HW211218   8.439  11.910  13.036
 3129SOL     OW11219   2.907  14.268  11.454
 3129SOL    HW111220   2.881  14.326  11.381
 3129SOL    HW211221   2.970  14.320  11.503
 3130SOL     OW11222   3.677   2.437   0.926
 3130SOL    HW111223   3.610   2.488   0.881
 3130SOL    HW211224   3.753   2.495   0.930
 3131SOL     OW11225  13.896   8.227  10.547
 3131SOL    HW111226  13.895   8.298  10.482
 3131SOL    HW211227  13.951   8.160  10.507
 3132SOL     OW11228  13.058   3.115  14.092
 3132SOL    HW111229  13.141   3.090  14.132
 3132SOL    HW211230  13.076   3.200  14.051
 3133SOL     OW11231   4.109   7.577  11.799
 3133SOL    HW111232   4.184   7.554  11.854
 3133SOL    HW211233   4.120   7.525  11.719
 3134SOL     OW11234   0.886   1.561   4.900
 3134SOL    HW111235   0.846   1.515   4.826
 3134SOL    HW211236   0.850   1.649   4.896
 3135SOL     OW11237   1.280   5.632   0.307
 3135SOL    HW111238   1.371   5.659   0.318
 3135SOL    HW211239   1.281   5.573   0.232
 3136SOL     OW11240   9.386  13.091  14.631
 3136SOL    HW111241   9.462  13.125  14.584
 3136SOL    HW211242   9.416  13.007  14.666
 3137SOL     OW11243   9.363  11.427  14.104
 3137SOL    HW111244   9.424  11.498  14.082
 3137SOL    HW211245   9.417  11.362  14.148
 3138SOL     OW11246  12.908   4.745   4.311
 3138SOL    HW111247  12.837   4.689   4.280
 3138SOL    HW211248  12.880   4.772   4.399
 3139SOL     OW11249   2.238  10.199   6.095
 3139SOL    HW111250   2.306  10.153   6.145
 3139SOL    HW211251   2.234  10.285   6.135
 3140SOL     OW11252  13.117   4.354   7.951
 3140SOL    HW111253  13.108   4.338   7.857
 3140SOL    HW211254  13.096   4.270   7.992
 3141SOL     OW11255  14.572   1.946   9.318
 3141SOL    HW111256  14.573   1.954   9.413
 3141SOL    HW211257  14.660   1.917   9.296
 3142SOL     OW11258  14.427  14.306   8.324
 3142SOL    HW111259  14.367  14.341   8.258
 3142SOL    HW211260  14.370  14.264   8.388
 3143SOL     OW11261   8.427   1.440   7.319
 3143SOL    HW111262   8.390   1.475   7.238
 3143SOL    HW211263   8.484   1.369   7.291
 3144SOL     OW11264   0.296   1.055   1.216
 3144SOL    HW111265   0.329   1.039   1.304
 3144SOL    HW211266   0.334   1.140   1.191
 3145SOL     OW11267   2.074  13.695  12.657
 3145SOL    HW111268   2.035  13.782  12.647
 3145SOL    HW211269   2.155  13.711  12.706
 3146SOL     OW11270   8.901   2.242  10.205
 3146SOL    HW111271   8.808   2.217  10.202
 3146SOL    HW211272   8.907   2.302  10.279
 3147SOL     OW11273   7.717   1.153   6.130
 3147SOL    HW111274   7.676   1.232   6.095
 3147SOL    HW211275   7.811   1.167   6.115
 3148SOL     OW11276   5.528   1.392  11.312
 3148SOL    HW111277   5.486   1.333  11.250
 3148SOL    HW211278   5.466   1.464  11.324
 3149SOL     OW11279   3.565   6.486   2.543
 3149SOL    HW111280   3.617   6.413   2.576
 3149SOL    HW211281   3.499   6.501   2.611
 3150SOL     OW11282   2.000   8.062  13.701
 3150SOL    HW111283   2.087   8.103  13.696
 3150SOL    HW211284   2.000   8.018  13.786
 3151SOL     OW11285   3.523  12.146  14.101
 3151SOL    HW111286   3.488  12.064  14.135
 3151SOL    HW211287   3.454  12.180  14.044
 3152SOL     OW11288   4.903   5.808   2.419
 3152SOL    HW111289   4.883   5.729   2.369
 3152SOL    HW211290   4.948   5.865   2.356
 3153SOL     OW11291  14.338   3.791  14.622
 3153SOL    HW111292  14.423   3.825  14.595
 3153SOL    HW211293  14.350   3.764  14.712
 3154SOL     OW11294   8.567  11.724   9.046
 3154SOL    HW111295   8.496  11.661   9.041
 3154SOL    HW211296   8.637  11.678   9.092
 3155SOL     OW11297   0.347   4.335  10.394
 3155SOL    HW111298   0.410   4.407  10.388
 3155SOL    HW211299   0.352   4.305  10.485
 3156SOL     OW11300   8.921   1.580   6.096
 3156SOL    HW111301   8.989   1.632   6.138
 3156SOL    HW211302   8.961   1.547   6.015
 3157SOL     OW11303   8.054  11.879   1.151
 3157SOL    HW111304   8.139  11.923   1.145
 3157SOL    HW211305   8.047  11.831   1.068
 3158SOL     OW11306   6.943   8.727   9.171
 3158SOL    HW111307   6.870   8.726   9.232
 3158SOL    HW211308   6.910   8.772   9.093
 3159SOL     OW11309   8.576  10.991   5.912
 3159SOL    HW111310   8.650  11.002   5.851
 3159SOL    HW211311   8.500  11.019   5.862
 3160SOL     OW11312   0.145   6.214  12.715
 3160SOL    HW111313   0.188   6.276  12.656
 3160SOL    HW211314   0.077   6.174  12.662
 3161SOL     OW11315  14.570  13.577   8.448
 3161SOL    HW111316  14.630  13.624   8.390
 3161SOL    HW211317  14.564  13.489   8.410
 3162SOL     OW11318   4.259   3.156   5.560
 3162SOL    HW111319   4.302   3.097   5.498
 3162SOL    HW211320   4.220   3.098   5.625
 3163SOL     OW11321  11.243  13.628  14.237
 3163SOL    HW111322  11.248  13.553  14.178
 3163SOL    HW211323  11.159  13.618  14.282
 3164SOL     OW11324   1.630   2.545   8.494
 3164SOL    HW111325   1.684   2.477   8.454
 3164SOL    HW211326   1.545   2.538   8.450
 3165SOL     OW11327   1.262   0.233  11.511
 3165SOL    HW111328   1.239   0.141  11.520
 3165SOL    HW211329   1.280   0.244  11.417
 3166SOL     OW11330   6.025   9.855  13.659
 3166SOL    HW111331   6.004   9.921  13.725
 3166SOL    HW211332   5.940   9.823  13.628
 3167SOL     OW11333  10.421   6.723  11.681
 3167SOL    HW111334  10.357   6.715  11.752
 3167SOL    HW211335  10.504   6.738  11.725
 3168SOL     OW11336   1.377   7.501   2.942
 3168SOL    HW111337   1.346   7.497   2.851
 3168SOL    HW211338   1.446   7.435   2.947
 3169SOL     OW11339   7.045   0.210   4.036
 3169SOL    HW111340   6.973   0.163   4.077
 3169SOL    HW211341   7.077   0.150   3.968
 3170SOL     OW11342   0.417   7.234  13.183
 3170SOL    HW111343   0.423   7.314  13.130
 3170SOL    HW211344   0.434   7.164  13.121
 3171SOL     OW11345  10.092   3.441   6.069
 3171SOL    HW111346  10.018   3.500   6.088
 3171SOL    HW211347  10.051   3.358   6.045
 3172SOL     OW11348   1.102   1.012  11.345
 3172SOL    HW111349   1.140   1.031  11.430
 3172SOL    HW211350   1.124   0.920  11.329
 3173SOL     OW11351   6.257   9.265  12.614
 3173SOL    HW111352   6.171   9.307  12.602
 3173SOL    HW211353   6.254   9.189  12.557
 3174SOL     OW11354   4.031   5.277   1.733
 3174SOL    HW111355   3.966   5.335   1.771
 3174SOL    HW211356   4.030   5.199   1.790
 3175SOL     OW11357   1.953   8.538  13.394
 3175SOL    HW111358   1.963   8.515  13.487
 3175SOL    HW211359   1.859   8.530  13.378
 3176SOL     OW11360   1.206  14.813   8.214
 3176SOL    HW111361   1.218  14.767   8.297
 3176SOL    HW211362   1.294  14.821   8.178
 3177SOL     OW11363   2.247  14.852   3.310
 3177SOL    HW111364   2.230  14.764   3.274
 3177SOL    HW211365   2.292  14.836   3.393
 3178SOL     OW11366  14.563   8.306  12.714
 3178SOL    HW111367  14.572   8.396  12.744
 3178SOL    HW211368  14.619   8.299  12.638
 3179SOL     OW11369   4.117  14.561   0.161
 3179SOL    HW111370   4.102  14.655   0.152
 3179SOL    HW211371   4.185  14.541   0.098
 3180SOL     OW11372  11.109   6.854   6.547
 3180SOL    HW111373  11.056   6.879   6.471
 3180SOL    HW211374  11.073   6.770   6.574
 3181SOL     OW11375  10.355   6.498  13.884
 3181SOL    HW111376  10.305   6.443  13.945
 3181SOL    HW211377  10.305   6.579  13.879
 3182SOL     OW11378   3.170  10.364  12.137
 3182SOL    HW111379   3.137  10.274  12.143
 3182SOL    HW211380   3.122  10.402  12.064
 3183SOL     OW11381  10.073   6.331  12.042
 3183SOL    HW111382  10.127   6.405  12.071
 3183SOL    HW211383   9.983   6.359  12.061
 3184SOL     OW11384  12.432  14.860  12.446
 3184SOL    HW111385  12.472  14.858  12.533
 3184SOL    HW211386  12.417   0.073  12.428
 3185SOL     OW11387  10.429   7.328   1.000
 3185SOL    HW111388  10.465   7.407   1.040
 3185SOL    HW211389  10.481   7.257   1.038
 3186SOL     OW11390   5.547   3.156   8.587
 3186SOL    HW111391   5.466   3.206   8.572
 3186SOL    HW211392   5.588   3.200   8.661
 3187SOL     OW11393  11.094   7.575   7.162
 3187SOL    HW111394  11.032   7.648   7.168
 3187SOL    HW211395  11.081   7.541   7.073
 3188SOL     OW11396   4.166  13.888   3.185
 3188SOL    HW111397   4.190  13.981   3.184
 3188SOL    HW211398   4.220  13.849   3.116
 3189SOL     OW11399  11.119   8.771  12.711
 3189SOL    HW111400  11.214   8.765  12.722
 3189SOL    HW211401  11.088   8.680  12.717
 3190SOL     OW11402   1.046   5.050   9.863
 3190SOL    HW111403   0.968   5.062   9.919
 3190SOL    HW211404   1.104   4.995   9.915
 3191SOL     OW11405  14.603   0.655   9.295
 3191SOL    HW111406  14.569   0.656   9.384
 3191SOL    HW211407  14.681   0.711   9.298
 3192SOL     OW11408  12.119   6.039   4.525
 3192SOL    HW111409  12.049   5.984   4.560
 3192SOL    HW211410  12.122   6.114   4.584
 3193SOL     OW11411   7.131  11.193  12.782
 3193SOL    HW111412   7.112  11.264  12.843
 3193SOL    HW211413   7.152  11.238  12.699
 3194SOL     OW11414   6.450   6.045   0.875
 3194SOL    HW111415   6.435   5.976   0.939
 3194SOL    HW211416   6.532   6.086   0.902
 3195SOL     OW11417   5.901  12.734   9.241
 3195SOL    HW111418   5.831  12.728   9.177
 3195SOL    HW211419   5.919  12.643   9.266
 3196SOL     OW11420  10.650   6.794   6.537
 3196SOL    HW111421  10.665   6.887   6.553
 3196SOL    HW211422  10.563   6.790   6.497
 3197SOL     OW11423   1.980  13.734  14.652
 3197SOL    HW111424   2.032  13.691  14.721
 3197SOL    HW211425   1.965  13.822  14.686
 3198SOL     OW11426   5.756  12.187  11.475
 3198SOL    HW111427   5.834  12.190  11.530
 3198SOL    HW211428   5.724  12.277  11.473
 3199SOL     OW11429  10.075   4.917   6.026
 3199SOL    HW111430   9.989   4.958   6.034
 3199SOL    HW211431  10.072   4.843   6.086
 3200SOL     OW11432  11.685  10.409  12.573
 3200SOL    HW111433  11.655  10.471  12.506
 3200SOL    HW211434  11.775  10.438  12.592
 3201SOL     OW11435   5.746   3.148   7.171
 3201SOL    HW111436   5.826   3.200   7.159
 3201SOL    HW211437   5.770   3.060   7.141
 3202SOL     OW11438  14.628   9.433  13.784
 3202SOL    HW111439  14.686   9.472  13.850
 3202SOL    HW211440  14.645   9.339  13.788
 3203SOL     OW11441  13.863   2.965  12.157
 3203SOL    HW111442  13.786   2.972  12.214
 3203SOL    HW211443  13.922   2.904  12.203
 3204SOL     OW11444   7.525   9.464   0.975
 3204SOL    HW111445   7.448   9.422   0.937
 3204SOL    HW211446   7.539   9.543   0.922
 3205SOL     OW11447   4.145   2.187   0.184
 3205SOL    HW111448   4.112   2.178   0.095
 3205SOL    HW211449   4.239   2.199   0.173
 3206SOL     OW11450   9.150  11.110  12.287
 3206SOL    HW111451   9.067  11.149  12.259
 3206SOL    HW211452   9.133  11.079  12.376
 3207SOL     OW11453  14.134   4.180   5.501
 3207SOL    HW111454  14.177   4.136   5.575
 3207SOL    HW211455  14.181   4.263   5.492
 3208SOL     OW11456  13.896  10.826   9.171
 3208SOL    HW111457  13.919  10.741   9.135
 3208SOL    HW211458  13.814  10.850   9.127
 3209SOL     OW11459   9.790   3.778  14.688
 3209SOL    HW111460   9.701   3.812  14.679
 3209SOL    HW211461   9.793   3.740  14.776
 3210SOL     OW11462   2.256   5.180  10.593
 3210SOL    HW111463   2.275   5.087  10.587
 3210SOL    HW211464   2.253   5.210  10.502
 3211SOL     OW11465  12.884  11.728   3.991
 3211SOL    HW111466  12.863  11.635   3.996
 3211SOL    HW211467  12.805  11.769   3.955
 3212SOL     OW11468   0.785  12.422   1.379
 3212SOL    HW111469   0.736  12.452   1.302
 3212SOL    HW211470   0.817  12.502   1.420
 3213SOL     OW11471   5.576  11.988   0.545
 3213SOL    HW111472   5.552  11.917   0.485
 3213SOL    HW211473   5.664  12.014   0.518
 3214SOL     OW11474   0.696   3.939   8.209
 3214SOL    HW111475   0.661   4.002   8.272
 3214SOL    HW211476   0.656   3.855   8.234
 3215SOL     OW11477   1.957   9.931  14.392
 3215SOL    HW111478   2.021   9.956  14.326
 3215SOL    HW211479   1.984   9.978  14.471
 3216SOL     OW11480   5.619   6.423   2.895
 3216SOL    HW111481   5.566   6.394   2.970
 3216SOL    HW211482   5.665   6.345   2.866
 3217SOL     OW11483  10.973   2.713   7.433
 3217SOL    HW111484  10.880   2.698   7.419
 3217SOL    HW211485  10.992   2.791   7.381
 3218SOL     OW11486   1.412   7.036   9.917
 3218SOL    HW111487   1.398   7.127   9.941
 3218SOL    HW211488   1.403   7.034   9.822
 3219SOL     OW11489   3.893   8.356   6.633
 3219SOL    HW111490   3.847   8.427   6.678
 3219SOL    HW211491   3.956   8.401   6.577
 3220SOL     OW11492  10.220  12.947  13.404
 3220SOL    HW111493  10.269  12.938  13.323
 3220SOL    HW211494  10.261  13.021  13.449
 3221SOL     OW11495   3.011   4.504   4.320
 3221SOL    HW111496   2.989   4.582   4.372
 3221SOL    HW211497   3.018   4.434   4.385
 3222SOL     OW11498   1.370   1.847  10.331
 3222SOL    HW111499   1.297   1.878  10.384
 3222SOL    HW211500   1.337   1.851  10.241
 3223SOL     OW11501   0.380   3.862   7.689
 3223SOL    HW111502   0.427   3.935   7.730
 3223SOL    HW211503   0.292   3.897   7.672
 3224SOL     OW11504   4.827  12.744   0.348
 3224SOL    HW111505   4.878  12.820   0.375
 3224SOL    HW211506   4.881  12.669   0.373
 3225SOL     OW11507   6.174  10.254  11.331
 3225SOL    HW111508   6.241  10.298  11.279
 3225SOL    HW211509   6.223  10.191  11.384
 3226SOL     OW11510  11.301   6.430   3.303
 3226SOL    HW111511  11.302   6.334   3.309
 3226SOL    HW211512  11.282   6.448   3.211
 3227SOL     OW11513   7.477   0.498   8.312
 3227SOL    HW111514   7.407   0.440   8.345
 3227SOL    HW211515   7.431   0.564   8.261
 3228SOL     OW11516   5.400  10.058   0.653
 3228SOL    HW111517   5.356   9.974   0.666
 3228SOL    HW211518   5.403  10.097   0.740
 3229SOL     OW11519   7.253   2.982   7.148
 3229SOL    HW111520   7.203   3.053   7.189
 3229SOL    HW211521   7.308   3.027   7.083
 3230SOL     OW11522  12.534   3.151   3.688
 3230SOL    HW111523  12.508   3.061   3.670
 3230SOL    HW211524  12.591   3.174   3.615
 3231SOL     OW11525   7.656   3.828   6.654
 3231SOL    HW111526   7.565   3.830   6.624
 3231SOL    HW211527   7.706   3.796   6.579
 3232SOL     OW11528   9.716  13.067   6.659
 3232SOL    HW111529   9.734  13.013   6.582
 3232SOL    HW211530   9.771  13.029   6.727
 3233SOL     OW11531   6.344   7.247   9.213
 3233SOL    HW111532   6.384   7.161   9.200
 3233SOL    HW211533   6.379   7.300   9.141
 3234SOL     OW11534   7.273   6.750   1.500
 3234SOL    HW111535   7.243   6.711   1.583
 3234SOL    HW211536   7.306   6.836   1.525
 3235SOL     OW11537   6.848   9.666  12.967
 3235SOL    HW111538   6.844   9.577  12.930
 3235SOL    HW211539   6.762   9.679  13.006
 3236SOL     OW11540   3.633  11.665   2.170
 3236SOL    HW111541   3.600  11.696   2.086
 3236SOL    HW211542   3.554  11.643   2.220
 3237SOL     OW11543  14.122   9.633   8.495
 3237SOL    HW111544  14.100   9.727   8.497
 3237SOL    HW211545  14.066   9.595   8.563
 3238SOL     OW11546   9.944   2.875   1.918
 3238SOL    HW111547   9.875   2.838   1.862
 3238SOL    HW211548  10.010   2.807   1.922
 3239SOL     OW11549  12.799   7.257  13.322
 3239SOL    HW111550  12.841   7.302  13.250
 3239SOL    HW211551  12.801   7.165  13.297
 3240SOL     OW11552   2.742  11.578   1.519
 3240SOL    HW111553   2.651  11.592   1.543
 3240SOL    HW211554   2.745  11.590   1.424
 3241SOL     OW11555   4.994   2.972   0.920
 3241SOL    HW111556   5.080   3.012   0.926
 3241SOL    HW211557   4.943   3.011   0.990
 3242SOL     OW11558   6.206   7.680   9.955
 3242SOL    HW111559   6.220   7.715  10.043
 3242SOL    HW211560   6.259   7.736   9.899
 3243SOL     OW11561   8.249  14.074   6.105
 3243SOL    HW111562   8.202  14.132   6.165
 3243SOL    HW211563   8.243  13.988   6.145
 3244SOL     OW11564   6.590  12.367  14.725
 3244SOL    HW111565   6.589  12.283  14.771
 3244SOL    HW211566   6.675  12.370  14.681
 3245SOL     OW11567   7.152  13.452   3.580
 3245SOL    HW111568   7.222  13.472   3.643
 3245SOL    HW211569   7.195  13.400   3.513
 3246SOL     OW11570  14.353  14.810   1.295
 3246SOL    HW111571  14.416   0.000   1.276
 3246SOL    HW211572  14.401  14.747   1.349
 3247SOL     OW11573  12.748   5.697  13.364
 3247SOL    HW111574  12.820   5.634  13.357
 3247SOL    HW211575  12.759   5.736  13.451
 3248SOL     OW11576  12.264   7.546   4.094
 3248SOL    HW111577  12.206   7.504   4.031
 3248SOL    HW211578  12.234   7.515   4.179
 3249SOL     OW11579  11.361   9.272   1.082
 3249SOL    HW111580  11.336   9.296   0.993
 3249SOL    HW211581  11.431   9.208   1.072
 3250SOL     OW11582   3.959   7.357  14.240
 3250SOL    HW111583   3.935   7.375  14.331
 3250SOL    HW211584   3.879   7.374  14.191
 3251SOL     OW11585   8.513  12.663   8.496
 3251SOL    HW111586   8.607  12.658   8.511
 3251SOL    HW211587   8.474  12.646   8.582
 3252SOL     OW11588   7.774   3.696   1.541
 3252SOL    HW111589   7.759   3.663   1.452
 3252SOL    HW211590   7.831   3.772   1.529
 3253SOL     OW11591  14.202   4.669   9.592
 3253SOL    HW111592  14.297   4.667   9.600
 3253SOL    HW211593  14.171   4.692   9.680
 3254SOL     OW11594   8.571   0.960   4.584
 3254SOL    HW111595   8.628   1.002   4.649
 3254SOL    HW211596   8.580   1.016   4.506
 3255SOL     OW11597  10.689   1.378   5.581
 3255SOL    HW111598  10.772   1.371   5.534
 3255SOL    HW211599  10.681   1.471   5.603
 3256SOL     OW11600  13.896   6.398   9.355
 3256SOL    HW111601  13.901   6.303   9.344
 3256SOL    HW211602  13.852   6.429   9.276
 3257SOL     OW11603  11.997  13.172   0.910
 3257SOL    HW111604  12.078  13.133   0.944
 3257SOL    HW211605  12.026  13.234   0.844
 3258SOL     OW11606   0.330  13.920  10.682
 3258SOL    HW111607   0.235  13.935  10.687
 3258SOL    HW211608   0.341  13.858  10.611
 3259SOL     OW11609   1.957   0.627  12.230
 3259SOL    HW111610   2.005   0.640  12.312
 3259SOL    HW211611   1.985   0.541  12.199
 3260SOL     OW11612  10.849   4.166   5.304
 3260SOL    HW111613  10.799   4.160   5.223
 3260SOL    HW211614  10.860   4.075   5.332
 3261SOL     OW11615   0.932   8.614  10.945
 3261SOL    HW111616   0.934   8.606  10.849
 3261SOL    HW211617   0.849   8.575  10.971
 3262SOL     OW11618   5.950   3.273  13.605
 3262SOL    HW111619   5.854   3.271  13.602
 3262SOL    HW211620   5.970   3.357  13.647
 3263SOL     OW11621   3.168  12.426  11.009
 3263SOL    HW111622   3.156  12.349  11.064
 3263SOL    HW211623   3.251  12.464  11.038
 3264SOL     OW11624   1.855   3.508  12.504
 3264SOL    HW111625   1.777   3.507  12.561
 3264SOL    HW211626   1.827   3.462  12.425
 3265SOL     OW11627   1.705   7.624   8.115
 3265SOL    HW111628   1.691   7.686   8.044
 3265SOL    HW211629   1.738   7.545   8.072
 3266SOL     OW11630  14.788   9.842   1.189
 3266SOL    HW111631  14.716   9.889   1.147
 3266SOL    HW211632  14.846   9.817   1.116
 3267SOL     OW11633  11.917  11.038   7.947
 3267SOL    HW111634  11.899  11.021   7.854
 3267SOL    HW211635  11.891  10.958   7.992
 3268SOL     OW11636   5.072   4.473  10.976
 3268SOL    HW111637   5.058   4.407  10.907
 3268SOL    HW211638   4.984   4.491  11.010
 3269SOL     OW11639   6.508   4.224   8.117
 3269SOL    HW111640   6.429   4.275   8.096
 3269SOL    HW211641   6.511   4.224   8.213
 3270SOL     OW11642  13.906   7.214   2.154
 3270SOL    HW111643  13.911   7.122   2.180
 3270SOL    HW211644  13.926   7.262   2.235
 3271SOL     OW11645   4.276  11.401   4.739
 3271SOL    HW111646   4.259  11.308   4.748
 3271SOL    HW211647   4.240  11.440   4.819
 3272SOL     OW11648   6.750  12.821   0.511
 3272SOL    HW111649   6.841  12.846   0.493
 3272SOL    HW211650   6.755  12.728   0.533
 3273SOL     OW11651   7.340   6.120  10.422
 3273SOL    HW111652   7.397   6.044  10.411
 3273SOL    HW211653   7.271   6.107  10.358
 3274SOL     OW11654   8.581   0.504   1.344
 3274SOL    HW111655   8.528   0.554   1.406
 3274SOL    HW211656   8.524   0.432   1.318
 3275SOL     OW11657   8.070   1.886  10.069
 3275SOL    HW111658   8.142   1.949  10.065
 3275SOL    HW211659   7.999   1.934  10.111
 3276SOL     OW11660  11.379   0.822  13.429
 3276SOL    HW111661  11.404   0.799  13.340
 3276SOL    HW211662  11.450   0.879  13.460
 3277SOL     OW11663   3.852   3.264   9.033
 3277SOL    HW111664   3.930   3.294   9.079
 3277SOL    HW211665   3.884   3.233   8.948
 3278SOL     OW11666   0.692   1.737   4.772
 3278SOL    HW111667   0.610   1.737   4.722
 3278SOL    HW211668   0.748   1.801   4.729
 3279SOL     OW11669   0.470   1.388   3.294
 3279SOL    HW111670   0.448   1.352   3.208
 3279SOL    HW211671   0.391   1.374   3.347
 3280SOL     OW11672   8.052   4.506   0.059
 3280SOL    HW111673   7.962   4.531   0.039
 3280SOL    HW211674   8.056   4.412   0.038
 3281SOL     OW11675   5.627   9.171   0.500
 3281SOL    HW111676   5.674   9.183   0.582
 3281SOL    HW211677   5.563   9.102   0.519
 3282SOL     OW11678   1.503   2.056   3.139
 3282SOL    HW111679   1.593   2.054   3.170
 3282SOL    HW211680   1.466   2.136   3.177
 3283SOL     OW11681   7.382  10.805  10.140
 3283SOL    HW111682   7.294  10.840  10.154
 3283SOL    HW211683   7.370  10.737  10.073
 3284SOL     OW11684   2.681   6.692  13.651
 3284SOL    HW111685   2.603   6.660  13.605
 3284SOL    HW211686   2.647   6.759  13.711
 3285SOL     OW11687  13.446   8.337   1.250
 3285SOL    HW111688  13.417   8.309   1.163
 3285SOL    HW211689  13.531   8.294   1.262
 3286SOL     OW11690   1.321  12.661   4.655
 3286SOL    HW111691   1.248  12.706   4.613
 3286SOL    HW211692   1.398  12.688   4.605
 3287SOL     OW11693   6.295   5.152  11.863
 3287SOL    HW111694   6.284   5.141  11.769
 3287SOL    HW211695   6.250   5.234  11.883
 3288SOL     OW11696  10.702   1.028  12.940
 3288SOL    HW111697  10.681   0.959  13.003
 3288SOL    HW211698  10.796   1.020  12.927
 3289SOL     OW11699  13.172   6.660  12.079
 3289SOL    HW111700  13.081   6.689  12.093
 3289SOL    HW211701  13.225   6.734  12.106
 3290SOL     OW11702   0.451  14.511   8.649
 3290SOL    HW111703   0.387  14.581   8.643
 3290SOL    HW211704   0.423  14.459   8.724
 3291SOL     OW11705   0.760   4.051  14.212
 3291SOL    HW111706   0.749   4.020  14.122
 3291SOL    HW211707   0.674   4.038  14.253
 3292SOL     OW11708  12.841  13.827  14.599
 3292SOL    HW111709  12.802  13.914  14.606
 3292SOL    HW211710  12.931  13.844  14.570
 3293SOL     OW11711   9.431   5.358   1.449
 3293SOL    HW111712   9.475   5.324   1.527
 3293SOL    HW211713   9.372   5.287   1.423
 3294SOL     OW11714   0.319  11.872  13.667
 3294SOL    HW111715   0.224  11.881  13.675
 3294SOL    HW211716   0.351  11.961  13.656
 3295SOL     OW11717   4.141   4.765   1.258
 3295SOL    HW111718   4.115   4.826   1.326
 3295SOL    HW211719   4.144   4.817   1.178
 3296SOL     OW11720  14.787   8.859   5.897
 3296SOL    HW111721  14.841   8.809   5.958
 3296SOL    HW211722  14.825   8.842   5.811
 3297SOL     OW11723   3.823   8.159   2.499
 3297SOL    HW111724   3.899   8.216   2.503
 3297SOL    HW211725   3.847   8.083   2.552
 3298SOL     OW11726   7.648  12.791   7.778
 3298SOL    HW111727   7.585  12.763   7.844
 3298SOL    HW211728   7.705  12.715   7.766
 3299SOL     OW11729   3.087   6.697   9.566
 3299SOL    HW111730   3.132   6.764   9.513
 3299SOL    HW211731   2.997   6.697   9.533
 3300SOL     OW11732  12.456   8.074   4.747
 3300SOL    HW111733  12.506   8.121   4.813
 3300SOL    HW211734  12.431   7.992   4.789
 3301SOL     OW11735   4.209   2.322   5.175
 3301SOL    HW111736   4.123   2.283   5.190
 3301SOL    HW211737   4.207   2.403   5.227
 3302SOL     OW11738   7.102  14.404   1.313
 3302SOL    HW111739   7.074  14.314   1.324
 3302SOL    HW211740   7.144  14.426   1.396
 3303SOL     OW11741  14.814   9.807   5.969
 3303SOL    HW111742  14.803   9.810   5.874
 3303SOL    HW211743  14.840   9.896   5.992
 3304SOL     OW11744   8.409   8.629  14.695
 3304SOL    HW111745   8.500   8.603  14.709
 3304SOL    HW211746   8.370   8.625  14.782
 3305SOL     OW11747   1.077   7.711   8.138
 3305SOL    HW111748   1.067   7.795   8.183
 3305SOL    HW211749   1.116   7.733   8.054
 3306SOL     OW11750   9.074  11.131   1.173
 3306SOL    HW111751   9.121  11.211   1.150
 3306SOL    HW211752   9.104  11.066   1.109
 3307SOL     OW11753   8.301   7.021  10.370
 3307SOL    HW111754   8.271   6.931  10.352
 3307SOL    HW211755   8.396   7.017  10.362
 3308SOL     OW11756   9.798   9.780   6.252
 3308SOL    HW111757   9.834   9.754   6.337
 3308SOL    HW211758   9.833   9.868   6.237
 3309SOL     OW11759   1.073   8.765   0.783
 3309SOL    HW111760   1.014   8.714   0.839
 3309SOL    HW211761   1.153   8.773   0.835
 3310SOL     OW11762   5.751   8.043   3.738
 3310SOL    HW111763   5.765   8.021   3.830
 3310SOL    HW211764   5.804   8.121   3.723
 3311SOL     OW11765  12.782   0.110   0.911
 3311SOL    HW111766  12.718   0.078   0.974
 3311SOL    HW211767  12.784   0.205   0.925
 3312SOL     OW11768  14.667   3.480   8.755
 3312SOL    HW111769  14.743   3.479   8.813
 3312SOL    HW211770  14.592   3.464   8.813
 3313SOL     OW11771  14.051   9.605   8.927
 3313SOL    HW111772  14.052   9.693   8.890
 3313SOL    HW211773  14.030   9.618   9.019
 3314SOL     OW11774  11.480  10.809   7.042
 3314SOL    HW111775  11.523  10.889   7.072
 3314SOL    HW211776  11.546  10.767   6.986
 3315SOL     OW11777   2.805  12.120  13.798
 3315SOL    HW111778   2.787  12.075  13.715
 3315SOL    HW211779   2.836  12.051  13.857
 3316SOL     OW11780   8.282   8.484  12.608
 3316SOL    HW111781   8.278   8.406  12.663
 3316SOL    HW211782   8.258   8.454  12.521
 3317SOL     OW11783  12.969  13.432  10.153
 3317SOL    HW111784  12.892  13.488  10.150
 3317SOL    HW211785  12.960  13.382  10.234
 3318SOL     OW11786  13.338   4.955  10.954
 3318SOL    HW111787  13.258   4.965  11.006
 3318SOL    HW211788  13.317   4.997  10.870
 3319SOL     OW11789   4.232  10.508  10.353
 3319SOL    HW111790   4.293  10.461  10.411
 3319SOL    HW211791   4.163  10.445  10.335
 3320SOL     OW11792   3.752  12.587  11.196
 3320SOL    HW111793   3.809  12.615  11.267
 3320SOL    HW211794   3.667  12.626  11.217
 3321SOL     OW11795   0.509   9.571   6.313
 3321SOL    HW111796   0.562   9.584   6.392
 3321SOL    HW211797   0.499   9.659   6.277
 3322SOL     OW11798  11.134   7.098   8.792
 3322SOL    HW111799  11.082   7.167   8.752
 3322SOL    HW211800  11.223   7.112   8.758
 3323SOL     OW11801   3.521   6.784   0.981
 3323SOL    HW111802   3.565   6.732   0.914
 3323SOL    HW211803   3.483   6.720   1.042
 3324SOL     OW11804   4.020   0.067   4.476
 3324SOL    HW111805   4.115   0.055   4.478
 3324SOL    HW211806   3.997   0.089   4.566
 3325SOL     OW11807   0.298  11.807   0.285
 3325SOL    HW111808   0.270  11.887   0.241
 3325SOL    HW211809   0.312  11.745   0.214
 3326SOL     OW11810   9.676   3.832   8.227
 3326SOL    HW111811   9.766   3.805   8.208
 3326SOL    HW211812   9.622   3.776   8.171
 3327SOL     OW11813  13.683   0.686   7.635
 3327SOL    HW111814  13.763   0.658   7.590
 3327SOL    HW211815  13.700   0.667   7.728
 3328SOL     OW11816   9.976   8.831   0.906
 3328SOL    HW111817   9.928   8.890   0.965
 3328SOL    HW211818  10.055   8.880   0.882
 3329SOL     OW11819   3.323   3.237   7.400
 3329SOL    HW111820   3.415   3.237   7.426
 3329SOL    HW211821   3.312   3.156   7.350
 3330SOL     OW11822   6.792   9.112   5.164
 3330SOL    HW111823   6.719   9.111   5.226
 3330SOL    HW211824   6.775   9.038   5.106
 3331SOL     OW11825  14.526   1.592  13.251
 3331SOL    HW111826  14.598   1.562  13.307
 3331SOL    HW211827  14.482   1.512  13.223
 3332SOL     OW11828  12.661  12.537   0.060
 3332SOL    HW111829  12.715  12.572   0.130
 3332SOL    HW211830  12.582  12.591   0.061
 3333SOL     OW11831   1.096  11.241   5.143
 3333SOL    HW111832   1.079  11.319   5.091
 3333SOL    HW211833   1.184  11.214   5.118
 3334SOL     OW11834   3.698  13.513  13.223
 3334SOL    HW111835   3.698  13.523  13.128
 3334SOL    HW211836   3.636  13.578  13.255
 3335SOL     OW11837   3.070  11.578   2.098
 3335SOL    HW111838   3.078  11.575   2.194
 3335SOL    HW211839   3.019  11.657   2.081
 3336SOL     OW11840   9.793   5.640   4.668
 3336SOL    HW111841   9.811   5.726   4.631
 3336SOL    HW211842   9.723   5.604   4.614
 3337SOL     OW11843  11.350  11.282   4.378
 3337SOL    HW111844  11.433  11.322   4.355
 3337SOL    HW211845  11.284  11.348   4.358
 3338SOL     OW11846  14.771   2.689  10.191
 3338SOL    HW111847  14.699   2.672  10.131
 3338SOL    HW211848  14.844   2.638  10.156
 3339SOL     OW11849   2.042  10.298   3.370
 3339SOL    HW111850   1.988  10.369   3.338
 3339SOL    HW211851   2.024  10.294   3.464
 3340SOL     OW11852   3.648  14.633   8.739
 3340SOL    HW111853   3.732  14.655   8.698
 3340SOL    HW211854   3.649  14.679   8.823
 3341SOL     OW11855  10.950  10.567   3.985
 3341SOL    HW111856  10.937  10.480   3.946
 3341SOL    HW211857  11.022  10.605   3.936
 3342SOL     OW11858   4.784   9.612   2.780
 3342SOL    HW111859   4.835   9.533   2.796
 3342SOL    HW211860   4.695   9.580   2.764
 3343SOL     OW11861   6.698   6.023   0.333
 3343SOL    HW111862   6.775   6.076   0.314
 3343SOL    HW211863   6.625   6.074   0.298
 3344SOL     OW11864  11.241   9.242  12.192
 3344SOL    HW111865  11.322   9.192  12.205
 3344SOL    HW211866  11.229   9.288  12.275
 3345SOL     OW11867  12.301  10.166   2.895
 3345SOL    HW111868  12.305  10.072   2.916
 3345SOL    HW211869  12.382  10.202   2.930
 3346SOL     OW11870  13.681   8.828  13.135
 3346SOL    HW111871  13.751   8.879  13.177
 3346SOL    HW211872  13.701   8.737  13.158
 3347SOL     OW11873  11.432   0.567  10.200
 3347SOL    HW111874  11.390   0.597  10.119
 3347SOL    HW211875  11.417   0.639  10.262
 3348SOL     OW11876   9.956   0.595   7.522
 3348SOL    HW111877   9.968   0.688   7.505
 3348SOL    HW211878   9.878   0.591   7.578
 3349SOL     OW11879  13.629  11.122   5.152
 3349SOL    HW111880  13.675  11.203   5.176
 3349SOL    HW211881  13.695  11.053   5.161
 3350SOL     OW11882   5.464   2.713   0.997
 3350SOL    HW111883   5.455   2.808   1.010
 3350SOL    HW211884   5.556   2.695   1.013
 3351SOL     OW11885  11.651   9.343  12.968
 3351SOL    HW111886  11.621   9.270  13.022
 3351SOL    HW211887  11.681   9.302  12.887
 3352SOL     OW11888   5.291   4.922   4.561
 3352SOL    HW111889   5.362   4.984   4.543
 3352SOL    HW211890   5.242   4.919   4.479
 3353SOL     OW11891   0.486   9.362  13.426
 3353SOL    HW111892   0.419   9.296  13.442
 3353SOL    HW211893   0.520   9.383  13.512
 3354SOL     OW11894   3.031   6.194   4.621
 3354SOL    HW111895   3.013   6.287   4.608
 3354SOL    HW211896   3.030   6.157   4.532
 3355SOL     OW11897   4.544  10.270  11.007
 3355SOL    HW111898   4.633  10.276  10.971
 3355SOL    HW211899   4.496  10.339  10.962
 3356SOL     OW11900  11.854   9.021   1.279
 3356SOL    HW111901  11.884   9.110   1.296
 3356SOL    HW211902  11.836   9.019   1.185
 3357SOL     OW11903   5.312  14.462  13.782
 3357SOL    HW111904   5.267  14.519  13.843
 3357SOL    HW211905   5.258  14.382  13.780
 3358SOL     OW11906   6.250   9.003   5.667
 3358SOL    HW111907   6.212   8.959   5.743
 3358SOL    HW211908   6.196   8.974   5.593
 3359SOL     OW11909  11.590   9.156   6.538
 3359SOL    HW111910  11.578   9.073   6.583
 3359SOL    HW211911  11.527   9.215   6.580
 3360SOL     OW11912   0.891   2.903   7.940
 3360SOL    HW111913   0.871   2.842   7.869
 3360SOL    HW211914   0.842   2.871   8.015
 3361SOL     OW11915   8.160   8.610   4.176
 3361SOL    HW111916   8.065   8.607   4.167
 3361SOL    HW211917   8.175   8.665   4.253
 3362SOL     OW11918  11.384   9.982   9.651
 3362SOL    HW111919  11.325  10.034   9.705
 3362SOL    HW211920  11.331   9.956   9.576
 3363SOL     OW11921   7.502   6.172   4.872
 3363SOL    HW111922   7.467   6.083   4.874
 3363SOL    HW211923   7.471   6.212   4.954
 3364SOL     OW11924  14.253   6.104   8.581
 3364SOL    HW111925  14.250   6.174   8.516
 3364SOL    HW211926  14.342   6.107   8.615
 3365SOL     OW11927  14.022   2.505   9.457
 3365SOL    HW111928  13.954   2.563   9.489
 3365SOL    HW211929  14.104   2.552   9.475
 3366SOL     OW11930   2.686   1.210   1.639
 3366SOL    HW111931   2.669   1.141   1.703
 3366SOL    HW211932   2.715   1.163   1.561
 3367SOL     OW11933  11.441  11.413  10.458
 3367SOL    HW111934  11.380  11.343  10.483
 3367SOL    HW211935  11.389  11.493  10.466
 3368SOL     OW11936   8.722   4.081   6.245
 3368SOL    HW111937   8.806   4.074   6.199
 3368SOL    HW211938   8.746   4.087   6.337
 3369SOL     OW11939  14.137   7.761   5.460
 3369SOL    HW111940  14.163   7.748   5.552
 3369SOL    HW211941  14.117   7.672   5.429
 3370SOL     OW11942   4.132   7.785   5.006
 3370SOL    HW111943   4.186   7.754   4.934
 3370SOL    HW211944   4.194   7.819   5.070
 3371SOL     OW11945   7.774   0.045   1.116
 3371SOL    HW111946   7.708   0.085   1.060
 3371SOL    HW211947   7.849   0.032   1.059
 3372SOL     OW11948  14.419  11.961   9.708
 3372SOL    HW111949  14.329  11.930   9.695
 3372SOL    HW211950  14.443  12.001   9.624
 3373SOL     OW11951   0.187   8.040   9.903
 3373SOL    HW111952   0.195   8.107   9.836
 3373SOL    HW211953   0.274   8.000   9.908
 3374SOL     OW11954   3.014   5.870   6.061
 3374SOL    HW111955   3.052   5.786   6.086
 3374SOL    HW211956   3.008   5.919   6.143
 3375SOL     OW11957  12.383   0.575   9.645
 3375SOL    HW111958  12.405   0.519   9.570
 3375SOL    HW211959  12.335   0.518   9.704
 3376SOL     OW11960   5.249   2.291   6.093
 3376SOL    HW111961   5.311   2.222   6.118
 3376SOL    HW211962   5.214   2.263   6.009
 3377SOL     OW11963   4.135  11.997   2.997
 3377SOL    HW111964   4.193  12.038   3.061
 3377SOL    HW211965   4.107  11.916   3.039
 3378SOL     OW11966   3.920   8.842  13.934
 3378SOL    HW111967   3.877   8.756  13.933
 3378SOL    HW211968   3.960   8.848  14.021
 3379SOL     OW11969   1.009  12.535   5.916
 3379SOL    HW111970   0.962  12.575   5.990
 3379SOL    HW211971   1.101  12.548   5.935
 3380SOL     OW11972  14.649   8.600   2.785
 3380SOL    HW111973  14.571   8.565   2.828
 3380SOL    HW211974  14.694   8.523   2.751
 3381SOL     OW11975  13.223  14.033   6.665
 3381SOL    HW111976  13.285  14.032   6.592
 3381SOL    HW211977  13.139  14.007   6.626
 3382SOL     OW11978  12.389  10.346   9.784
 3382SOL    HW111979  12.440  10.327   9.863
 3382SOL    HW211980  12.451  10.389   9.725
 3383SOL     OW11981  13.941   7.959  14.734
 3383SOL    HW111982  13.899   7.894  14.677
 3383SOL    HW211983  14.032   7.959  14.706
 3384SOL     OW11984   9.245   1.924   6.085
 3384SOL    HW111985   9.174   1.965   6.036
 3384SOL    HW211986   9.242   1.832   6.059
 3385SOL     OW11987   6.960  11.788   8.104
 3385SOL    HW111988   7.036  11.773   8.048
 3385SOL    HW211989   6.961  11.715   8.165
 3386SOL     OW11990  12.292   9.472  10.932
 3386SOL    HW111991  12.365   9.469  10.870
 3386SOL    HW211992  12.216   9.447  10.880
 3387SOL     OW11993   5.942  13.317   2.462
 3387SOL    HW111994   5.943  13.313   2.366
 3387SOL    HW211995   5.906  13.233   2.489
 3388SOL     OW11996  13.468  14.585   6.131
 3388SOL    HW111997  13.457  14.677   6.156
 3388SOL    HW211998  13.533  14.551   6.193
 3389SOL     OW11999   8.611   1.123   6.542
 3389SOL    HW112000   8.691   1.158   6.503
 3389SOL    HW212001   8.566   1.079   6.470
 3390SOL     OW12002   0.457   1.275   3.048
 3390SOL    HW112003   0.523   1.314   2.991
 3390SOL    HW212004   0.475   1.181   3.044
 3391SOL     OW12005  10.525   8.672   3.310
 3391SOL    HW112006  10.567   8.608   3.368
 3391SOL    HW212007  10.433   8.668   3.333
 3392SOL     OW12008   9.972   4.671   7.485
 3392SOL    HW112009  10.010   4.585   7.501
 3392SOL    HW212010   9.946   4.670   7.393
 3393SOL     OW12011   2.347  12.562   4.735
 3393SOL    HW112012   2.266  12.513   4.724
 3393SOL    HW212013   2.335  12.610   4.816
 3394SOL     OW12014   8.779  12.135   8.990
 3394SOL    HW112015   8.696  12.157   8.948
 3394SOL    HW212016   8.826  12.084   8.924
 3395SOL     OW12017   8.741   9.245   9.211
 3395SOL    HW112018   8.759   9.338   9.226
 3395SOL    HW212019   8.789   9.224   9.131
 3396SOL     OW12020   4.057  12.918  14.544
 3396SOL    HW112021   4.011  12.854  14.599
 3396SOL    HW212022   4.133  12.945  14.597
 3397SOL     OW12023  12.026  14.290  12.852
 3397SOL    HW112024  12.072  14.331  12.779
 3397SOL    HW212025  11.947  14.252  12.812
 3398SOL     OW12026  11.801  13.068   3.323
 3398SOL    HW112027  11.770  12.984   3.355
 3398SOL    HW212028  11.896  13.064   3.334
 3399SOL     OW12029  11.691  13.632   6.756
 3399SOL    HW112030  11.627  13.639   6.827
 3399SOL    HW212031  11.642  13.649   6.676
 3400SOL     OW12032   6.674   5.741  11.887
 3400SOL    HW112033   6.674   5.686  11.965
 3400SOL    HW212034   6.648   5.828  11.919
 3401SOL     OW12035   9.877   0.977  11.781
 3401SOL    HW112036   9.784   0.986  11.761
 3401SOL    HW212037   9.917   0.944  11.701
 3402SOL     OW12038  12.570   2.182   0.820
 3402SOL    HW112039  12.485   2.218   0.793
 3402SOL    HW212040  12.563   2.173   0.915
 3403SOL     OW12041  12.808  11.726   5.933
 3403SOL    HW112042  12.819  11.633   5.913
 3403SOL    HW212043  12.848  11.736   6.020
 3404SOL     OW12044   1.332   0.686  13.659
 3404SOL    HW112045   1.279   0.616  13.622
 3404SOL    HW212046   1.280   0.765  13.646
 3405SOL     OW12047  14.794   1.771   2.990
 3405SOL    HW112048  14.861   1.838   2.989
 3405SOL    HW212049  14.756   1.776   3.078
 3406SOL     OW12050  14.159   8.078  12.670
 3406SOL    HW112051  14.151   7.996  12.620
 3406SOL    HW212052  14.233   8.063  12.729
 3407SOL     OW12053   3.033  14.879   7.943
 3407SOL    HW112054   2.993  14.878   8.029
 3407SOL    HW212055   2.968  14.837   7.886
 3408SOL     OW12056  13.427   6.391  12.599
 3408SOL    HW112057  13.485   6.431  12.535
 3408SOL    HW212058  13.482   6.375  12.675
 3409SOL     OW12059   6.292  10.604   4.776
 3409SOL    HW112060   6.285  10.688   4.731
 3409SOL    HW212061   6.364  10.559   4.732
 3410SOL     OW12062  12.523  14.386   7.921
 3410SOL    HW112063  12.539  14.384   8.015
 3410SOL    HW212064  12.429  14.373   7.912
 3411SOL     OW12065   9.931  13.153   7.929
 3411SOL    HW112066   9.872  13.145   7.854
 3411SOL    HW212067   9.919  13.072   7.978
 3412SOL     OW12068   6.727   4.219   5.453
 3412SOL    HW112069   6.774   4.302   5.441
 3412SOL    HW212070   6.635   4.244   5.457
 3413SOL     OW12071   8.735   4.884   8.642
 3413SOL    HW112072   8.781   4.844   8.568
 3413SOL    HW212073   8.667   4.938   8.602
 3414SOL     OW12074   3.449  10.219   9.337
 3414SOL    HW112075   3.460  10.287   9.271
 3414SOL    HW212076   3.360  10.231   9.370
 3415SOL     OW12077   0.036   5.608   2.589
 3415SOL    HW112078   0.045   5.607   2.684
 3415SOL    HW212079  14.822   5.623   2.574
 3416SOL     OW12080  11.102   5.457   4.135
 3416SOL    HW112081  11.147   5.383   4.175
 3416SOL    HW212082  11.172   5.511   4.098
 3417SOL     OW12083   8.819   0.705   7.799
 3417SOL    HW112084   8.838   0.612   7.783
 3417SOL    HW212085   8.760   0.729   7.728
 3418SOL     OW12086  12.098   9.688  14.849
 3418SOL    HW112087  12.120   9.781  14.846
 3418SOL    HW212088  12.067   9.668  14.761
 3419SOL     OW12089   4.897  14.824  12.786
 3419SOL    HW112090   4.839  14.757  12.751
 3419SOL    HW212091   4.904   0.010  12.716
 3420SOL     OW12092   9.724  14.567  10.604
 3420SOL    HW112093   9.661  14.495  10.590
 3420SOL    HW212094   9.737  14.569  10.699
 3421SOL     OW12095  14.866  10.644   4.371
 3421SOL    HW112096  14.814  10.610   4.444
 3421SOL    HW212097   0.016  10.730   4.400
 3422SOL     OW12098   2.957   5.932   3.222
 3422SOL    HW112099   2.994   5.952   3.135
 3422SOL    HW212100   2.950   5.837   3.224
 3423SOL     OW12101   8.146   2.471  10.645
 3423SOL    HW112102   8.081   2.453  10.713
 3423SOL    HW212103   8.136   2.564  10.626
 3424SOL     OW12104   2.658   4.025  14.831
 3424SOL    HW112105   2.660   4.053  14.740
 3424SOL    HW212106   2.650   3.930  14.827
 3425SOL     OW12107  11.695  12.429  11.135
 3425SOL    HW112108  11.608  12.461  11.158
 3425SOL    HW212109  11.755  12.484  11.185
 3426SOL     OW12110   3.046   3.475  10.247
 3426SOL    HW112111   2.985   3.545  10.270
 3426SOL    HW212112   3.130   3.504  10.280
 3427SOL     OW12113   3.650   0.676   6.657
 3427SOL    HW112114   3.565   0.711   6.629
 3427SOL    HW212115   3.629   0.622   6.733
 3428SOL     OW12116   9.563  13.523  12.300
 3428SOL    HW112117   9.513  13.459  12.250
 3428SOL    HW212118   9.529  13.515  12.389
 3429SOL     OW12119   5.076   3.858   0.825
 3429SOL    HW112120   5.019   3.927   0.858
 3429SOL    HW212121   5.034   3.776   0.853
 3430SOL     OW12122   7.917   5.682  10.631
 3430SOL    HW112123   7.839   5.737  10.627
 3430SOL    HW212124   7.989   5.743  10.644
 3431SOL     OW12125   3.302  12.582  12.496
 3431SOL    HW112126   3.325  12.524  12.423
 3431SOL    HW212127   3.207  12.591  12.491
 3432SOL     OW12128  12.177  11.463  11.623
 3432SOL    HW112129  12.136  11.450  11.708
 3432SOL    HW212130  12.221  11.380  11.604
 3433SOL     OW12131   1.992  13.714   0.754
 3433SOL    HW112132   1.923  13.765   0.796
 3433SOL    HW212133   2.067  13.774   0.747
 3434SOL     OW12134   6.447   3.255  11.272
 3434SOL    HW112135   6.400   3.334  11.248
 3434SOL    HW212136   6.379   3.188  11.281
 3435SOL     OW12137   0.722   9.027   2.470
 3435SOL    HW112138   0.637   9.069   2.479
 3435SOL    HW212139   0.724   8.961   2.539
 3436SOL     OW12140   4.320   2.826   6.648
 3436SOL    HW112141   4.380   2.875   6.592
 3436SOL    HW212142   4.366   2.744   6.666
 3437SOL     OW12143  14.199   0.936   6.909
 3437SOL    HW112144  14.237   0.863   6.959
 3437SOL    HW212145  14.275   0.988   6.882
 3438SOL     OW12146   3.469   0.129   9.972
 3438SOL    HW112147   3.374   0.133   9.964
 3438SOL    HW212148   3.497   0.220   9.978
 3439SOL     OW12149  14.268   1.874  12.373
 3439SOL    HW112150  14.281   1.780  12.385
 3439SOL    HW212151  14.309   1.893  12.289
 3440SOL     OW12152   8.043  14.191   0.015
 3440SOL    HW112153   8.079  14.237   0.090
 3440SOL    HW212154   7.992  14.257  14.847
 3441SOL     OW12155  14.418   0.513   0.190
 3441SOL    HW112156  14.426   0.418   0.192
 3441SOL    HW212157  14.493   0.543   0.140
 3442SOL     OW12158   8.152   3.962   0.651
 3442SOL    HW112159   8.204   3.994   0.577
 3442SOL    HW212160   8.179   3.870   0.660
 3443SOL     OW12161  12.438   6.810   7.545
 3443SOL    HW112162  12.365   6.829   7.486
 3443SOL    HW212163  12.401   6.751   7.611
 3444SOL     OW12164  12.673  11.231   5.523
 3444SOL    HW112165  12.681  11.170   5.597
 3444SOL    HW212166  12.632  11.309   5.561
 3445SOL     OW12167   0.773  10.205  10.768
 3445SOL    HW112168   0.839  10.156  10.719
 3445SOL    HW212169   0.712  10.139  10.799
 3446SOL     OW12170  11.637  12.127  14.049
 3446SOL    HW112171  11.592  12.167  13.974
 3446SOL    HW212172  11.613  12.034  14.044
 3447SOL     OW12173   5.578   8.646   3.723
 3447SOL    HW112174   5.546   8.734   3.744
 3447SOL    HW212175   5.590   8.647   3.628
 3448SOL     OW12176  14.317   1.427   2.055
 3448SOL    HW112177  14.376   1.494   2.020
 3448SOL    HW212178  14.371   1.379   2.119
 3449SOL     OW12179  14.598   0.959  14.132
 3449SOL    HW112180  14.578   1.051  14.116
 3449SOL    HW212181  14.694   0.954  14.124
 3450SOL     OW12182   9.293   3.858  13.277
 3450SOL    HW112183   9.277   3.808  13.197
 3450SOL    HW212184   9.375   3.823  13.311
 3451SOL     OW12185   1.434   5.935  10.657
 3451SOL    HW112186   1.400   6.024  10.653
 3451SOL    HW212187   1.384   5.888  10.590
 3452SOL     OW12188   5.343  13.475  14.702
 3452SOL    HW112189   5.327  13.570  14.706
 3452SOL    HW212190   5.403  13.464  14.629
 3453SOL     OW12191   1.182   5.247   3.241
 3453SOL    HW112192   1.214   5.174   3.187
 3453SOL    HW212193   1.261   5.299   3.259
 3454SOL     OW12194  14.154  12.525   2.107
 3454SOL    HW112195  14.185  12.529   2.017
 3454SOL    HW212196  14.229  12.553   2.160
 3455SOL     OW12197   6.519  13.495  14.296
 3455SOL    HW112198   6.576  13.433  14.342
 3455SOL    HW212199   6.564  13.579  14.304
 3456SOL     OW12200   3.543   6.642   3.005
 3456SOL    HW112201   3.579   6.594   3.079
 3456SOL    HW212202   3.585   6.728   3.009
 3457SOL     OW12203  10.281   4.588   5.896
 3457SOL    HW112204  10.348   4.592   5.964
 3457SOL    HW212205  10.312   4.519   5.837
 3458SOL     OW12206   7.784   8.042  14.852
 3458SOL    HW112207   7.717   8.059   0.040
 3458SOL    HW212208   7.837   8.122  14.851
 3459SOL     OW12209   9.114   1.737   3.560
 3459SOL    HW112210   9.106   1.830   3.536
 3459SOL    HW212211   9.176   1.701   3.497
 3460SOL     OW12212  13.022   1.063   9.380
 3460SOL    HW112213  12.960   0.992   9.394
 3460SOL    HW212214  13.030   1.069   9.285
 3461SOL     OW12215  10.785   8.608   9.849
 3461SOL    HW112216  10.783   8.691   9.802
 3461SOL    HW212217  10.850   8.622   9.918
 3462SOL     OW12218   5.618   6.092   5.127
 3462SOL    HW112219   5.596   6.030   5.197
 3462SOL    HW212220   5.539   6.096   5.073
 3463SOL     OW12221  11.112   5.848   6.536
 3463SOL    HW112222  11.163   5.786   6.484
 3463SOL    HW212223  11.023   5.812   6.536
 3464SOL     OW12224  11.954   0.595   3.108
 3464SOL    HW112225  11.997   0.664   3.059
 3464SOL    HW212226  12.019   0.524   3.112
 3465SOL     OW12227   2.665   5.328   1.393
 3465SOL    HW112228   2.746   5.278   1.384
 3465SOL    HW212229   2.666   5.362   1.482
 3466SOL     OW12230   7.371   2.652   8.084
 3466SOL    HW112231   7.372   2.591   8.158
 3466SOL    HW212232   7.278   2.677   8.075
 3467SOL     OW12233   6.721   0.392   6.945
 3467SOL    HW112234   6.706   0.464   6.885
 3467SOL    HW212235   6.641   0.386   6.998
 3468SOL     OW12236   7.196  14.737  13.883
 3468SOL    HW112237   7.182  14.802  13.952
 3468SOL    HW212238   7.114  14.687  13.881
 3469SOL     OW12239   0.601  12.533   8.379
 3469SOL    HW112240   0.604  12.454   8.434
 3469SOL    HW212241   0.579  12.603   8.441
 3470SOL     OW12242   8.112   0.626  13.025
 3470SOL    HW112243   8.017   0.634  13.033
 3470SOL    HW212244   8.133   0.549  13.078
 3471SOL     OW12245   0.624   7.947   8.386
 3471SOL    HW112246   0.576   8.002   8.324
 3471SOL    HW212247   0.716   7.965   8.368
 3472SOL     OW12248  13.243  12.614   1.769
 3472SOL    HW112249  13.192  12.538   1.742
 3472SOL    HW212250  13.306  12.579   1.832
 3473SOL     OW12251   7.425  11.791  12.982
 3473SOL    HW112252   7.363  11.864  12.971
 3473SOL    HW212253   7.502  11.831  13.022
 3474SOL     OW12254  13.579   4.182   0.906
 3474SOL    HW112255  13.541   4.241   0.971
 3474SOL    HW212256  13.504   4.135   0.869
 3475SOL     OW12257  10.115   0.800   8.882
 3475SOL    HW112258  10.071   0.791   8.797
 3475SOL    HW212259  10.051   0.768   8.946
 3476SOL     OW12260   9.895   2.443   2.015
 3476SOL    HW112261   9.864   2.435   2.105
 3476SOL    HW212262   9.980   2.487   2.022
 3477SOL     OW12263   8.862   8.115   1.559
 3477SOL    HW112264   8.897   8.130   1.647
 3477SOL    HW212265   8.909   8.038   1.527
 3478SOL     OW12266   1.495  11.466   7.621
 3478SOL    HW112267   1.455  11.506   7.698
 3478SOL    HW212268   1.582  11.506   7.616
 3479SOL     OW12269  10.768   6.978   3.077
 3479SOL    HW112270  10.808   7.009   2.996
 3479SOL    HW212271  10.721   6.899   3.052
 3480SOL     OW12272   8.696   9.489   0.483
 3480SOL    HW112273   8.736   9.538   0.554
 3480SOL    HW212274   8.686   9.401   0.517
 3481SOL     OW12275   2.840  10.244   5.671
 3481SOL    HW112276   2.782  10.194   5.613
 3481SOL    HW212277   2.845  10.191   5.751
 3482SOL     OW12278   5.620  14.226   9.229
 3482SOL    HW112279   5.658  14.159   9.173
 3482SOL    HW212280   5.691  14.289   9.242
 3483SOL     OW12281   7.296   4.418   2.067
 3483SOL    HW112282   7.351   4.348   2.103
 3483SOL    HW212283   7.348   4.498   2.078
 3484SOL     OW12284   8.375  11.603  12.604
 3484SOL    HW112285   8.318  11.667  12.562
 3484SOL    HW212286   8.360  11.616  12.698
 3485SOL     OW12287   8.866   1.248   6.666
 3485SOL    HW112288   8.886   1.249   6.573
 3485SOL    HW212289   8.911   1.325   6.701
 3486SOL     OW12290   5.952   8.714  14.511
 3486SOL    HW112291   6.034   8.673  14.538
 3486SOL    HW212292   5.975   8.764  14.432
 3487SOL     OW12293   1.962   4.619   7.117
 3487SOL    HW112294   1.977   4.632   7.211
 3487SOL    HW212295   2.049   4.631   7.077
 3488SOL     OW12296   3.040   5.456  10.020
 3488SOL    HW112297   2.989   5.385   9.980
 3488SOL    HW212298   3.033   5.441  10.114
 3489SOL     OW12299  13.474   5.055   3.342
 3489SOL    HW112300  13.420   5.036   3.419
 3489SOL    HW212301  13.493   4.969   3.304
 3490SOL     OW12302   8.674   2.679  14.139
 3490SOL    HW112303   8.691   2.661  14.046
 3490SOL    HW212304   8.692   2.596  14.183
 3491SOL     OW12305   2.774  13.776   7.912
 3491SOL    HW112306   2.833  13.754   7.985
 3491SOL    HW212307   2.786  13.705   7.849
 3492SOL     OW12308  11.586  11.288   1.728
 3492SOL    HW112309  11.621  11.231   1.660
 3492SOL    HW212310  11.559  11.228   1.798
 3493SOL     OW12311   7.604  12.573   4.222
 3493SOL    HW112312   7.594  12.482   4.249
 3493SOL    HW212313   7.548  12.623   4.282
 3494SOL     OW12314   9.740  13.017  10.258
 3494SOL    HW112315   9.775  13.101  10.288
 3494SOL    HW212316   9.675  13.041  10.192
 3495SOL     OW12317   3.940  10.879   3.568
 3495SOL    HW112318   3.886  10.821   3.621
 3495SOL    HW212319   3.984  10.821   3.505
 3496SOL     OW12320   3.046   2.790   9.775
 3496SOL    HW112321   3.060   2.797   9.869
 3496SOL    HW212322   3.065   2.698   9.754
 3497SOL     OW12323   2.762  10.795   4.810
 3497SOL    HW112324   2.680  10.767   4.850
 3497SOL    HW212325   2.779  10.730   4.742
 3498SOL     OW12326   6.981   2.182  11.231
 3498SOL    HW112327   7.064   2.168  11.185
 3498SOL    HW212328   6.930   2.103  11.210
 3499SOL     OW12329   5.692  13.357   9.115
 3499SOL    HW112330   5.768  13.403   9.151
 3499SOL    HW212331   5.729  13.290   9.058
 3500SOL     OW12332  14.095  10.422  10.480
 3500SOL    HW112333  14.171  10.376  10.516
 3500SOL    HW212334  14.051  10.357  10.426
 3501SOL     OW12335  10.157   9.593   7.156
 3501SOL    HW112336  10.204   9.522   7.113
 3501SOL    HW212337  10.182   9.586   7.249
 3502SOL     OW12338  10.916   3.901   0.816
 3502SOL    HW112339  10.862   3.906   0.737
 3502SOL    HW212340  10.925   3.808   0.833
 3503SOL     OW12341   7.519   1.904  11.949
 3503SOL    HW112342   7.554   1.862  11.871
 3503SOL    HW212343   7.474   1.982  11.915
 3504SOL     OW12344   6.018   0.425   0.076
 3504SOL    HW112345   6.066   0.368   0.135
 3504SOL    HW212346   5.957   0.473   0.133
 3505SOL     OW12347   5.199  11.627   9.219
 3505SOL    HW112348   5.122  11.663   9.264
 3505SOL    HW212349   5.274  11.661   9.268
 3506SOL     OW12350  11.117   8.459   8.459
 3506SOL    HW112351  11.080   8.375   8.430
 3506SOL    HW212352  11.041   8.518   8.463
 3507SOL     OW12353   5.073   7.194   3.647
 3507SOL    HW112354   5.130   7.254   3.696
 3507SOL    HW212355   5.069   7.116   3.701
 3508SOL     OW12356   3.203  12.427  13.938
 3508SOL    HW112357   3.234  12.344  13.902
 3508SOL    HW212358   3.242  12.494  13.881
 3509SOL     OW12359   8.729   0.393   7.122
 3509SOL    HW112360   8.824   0.404   7.123
 3509SOL    HW212361   8.709   0.366   7.032
 3510SOL     OW12362  13.667  12.135   2.749
 3510SOL    HW112363  13.630  12.179   2.672
 3510SOL    HW212364  13.593  12.088   2.788
 3511SOL     OW12365   9.267   0.369   7.918
 3511SOL    HW112366   9.310   0.451   7.943
 3511SOL    HW212367   9.177   0.396   7.896
 3512SOL     OW12368   8.929   0.679   9.477
 3512SOL    HW112369   9.017   0.696   9.511
 3512SOL    HW212370   8.939   0.605   9.417
 3513SOL     OW12371  10.837  12.992  11.769
 3513SOL    HW112372  10.840  13.040  11.687
 3513SOL    HW212373  10.744  12.989  11.793
 3514SOL     OW12374  10.339   8.846  13.189
 3514SOL    HW112375  10.273   8.777  13.177
 3514SOL    HW212376  10.423   8.800  13.181
 3515SOL     OW12377   4.396  14.307   8.331
 3515SOL    HW112378   4.478  14.268   8.361
 3515SOL    HW212379   4.351  14.234   8.287
 3516SOL     OW12380   3.947   0.558   4.096
 3516SOL    HW112381   3.863   0.582   4.057
 3516SOL    HW212382   3.943   0.593   4.185
 3517SOL     OW12383   3.284   6.545   8.356
 3517SOL    HW112384   3.344   6.553   8.282
 3517SOL    HW212385   3.332   6.493   8.420
 3518SOL     OW12386   6.753  12.224   1.775
 3518SOL    HW112387   6.808  12.159   1.819
 3518SOL    HW212388   6.813  12.296   1.754
 3519SOL     OW12389   4.961   8.624   0.950
 3519SOL    HW112390   5.009   8.593   0.873
 3519SOL    HW212391   5.013   8.596   1.024
 3520SOL     OW12392   5.859  12.807   8.895
 3520SOL    HW112393   5.888  12.741   8.832
 3520SOL    HW212394   5.789  12.764   8.944
 3521SOL     OW12395   0.622   2.159   8.646
 3521SOL    HW112396   0.539   2.134   8.687
 3521SOL    HW212397   0.623   2.254   8.649
 3522SOL     OW12398   0.899  11.470   0.051
 3522SOL    HW112399   0.987  11.445   0.024
 3522SOL    HW212400   0.886  11.556   0.013
 3523SOL     OW12401  13.024   5.639  12.605
 3523SOL    HW112402  12.928   5.648  12.610
 3523SOL    HW212403  13.046   5.679  12.521
 3524SOL     OW12404  12.627   7.914  13.016
 3524SOL    HW112405  12.561   7.847  13.033
 3524SOL    HW212406  12.657   7.897  12.927
 3525SOL     OW12407  13.043   7.589   8.631
 3525SOL    HW112408  13.066   7.667   8.581
 3525SOL    HW212409  13.082   7.516   8.583
 3526SOL     OW12410   8.724   0.232   8.724
 3526SOL    HW112411   8.655   0.170   8.703
 3526SOL    HW212412   8.723   0.295   8.651
 3527SOL     OW12413  10.293  10.061   6.975
 3527SOL    HW112414  10.235  10.046   7.050
 3527SOL    HW212415  10.368  10.109   7.013
 3528SOL     OW12416   2.275  13.435  14.240
 3528SOL    HW112417   2.210  13.483  14.289
 3528SOL    HW212418   2.295  13.490  14.164
 3529SOL     OW12419  11.141  10.383  12.082
 3529SOL    HW112420  11.133  10.457  12.021
 3529SOL    HW212421  11.054  10.374  12.120
 3530SOL     OW12422   9.287   3.979   4.241
 3530SOL    HW112423   9.304   3.950   4.151
 3530SOL    HW212424   9.322   3.909   4.296
 3531SOL     OW12425  13.361   5.370  13.099
 3531SOL    HW112426  13.432   5.322  13.056
 3531SOL    HW212427  13.301   5.302  13.129
 3532SOL     OW12428  14.245   4.878   2.830
 3532SOL    HW112429  14.329   4.860   2.787
 3532SOL    HW212430  14.181   4.874   2.759
 3533SOL     OW12431  12.390   2.868   8.810
 3533SOL    HW112432  12.348   2.881   8.895
 3533SOL    HW212433  12.472   2.915   8.816
 3534SOL     OW12434   9.655   7.788   1.315
 3534SOL    HW112435   9.591   7.824   1.254
 3534SOL    HW212436   9.613   7.709   1.349
 3535SOL     OW12437   3.560   4.647   8.789
 3535SOL    HW112438   3.467   4.650   8.769
 3535SOL    HW212439   3.595   4.728   8.752
 3536SOL     OW12440   9.332  13.879  10.960
 3536SOL    HW112441   9.405  13.818  10.972
 3536SOL    HW212442   9.315  13.877  10.866
 3537SOL     OW12443   3.761   3.628   1.552
 3537SOL    HW112444   3.758   3.533   1.543
 3537SOL    HW212445   3.852   3.649   1.570
 3538SOL     OW12446   4.123   7.197   8.899
 3538SOL    HW112447   4.121   7.226   8.808
 3538SOL    HW212448   4.184   7.256   8.943
 3539SOL     OW12449  13.557   0.376  14.419
 3539SOL    HW112450  13.645   0.398  14.450
 3539SOL    HW212451  13.562   0.282  14.399
 3540SOL     OW12452   8.132   6.421  10.174
 3540SOL    HW112453   8.181   6.340  10.186
 3540SOL    HW212454   8.191   6.478  10.125
 3541SOL     OW12455  13.004   1.565   7.133
 3541SOL    HW112456  13.002   1.648   7.084
 3541SOL    HW212457  12.972   1.500   7.072
 3542SOL     OW12458  10.853   4.677  10.425
 3542SOL    HW112459  10.862   4.586  10.453
 3542SOL    HW212460  10.930   4.694  10.371
 3543SOL     OW12461  12.099  10.601  11.191
 3543SOL    HW112462  12.081  10.538  11.121
 3543SOL    HW212463  12.128  10.547  11.264
 3544SOL     OW12464  12.990   2.813  13.692
 3544SOL    HW112465  13.062   2.853  13.643
 3544SOL    HW212466  12.966   2.880  13.757
 3545SOL     OW12467   4.460   6.965   5.375
 3545SOL    HW112468   4.501   7.052   5.377
 3545SOL    HW212469   4.403   6.964   5.451
 3546SOL     OW12470  13.013   3.874  10.400
 3546SOL    HW112471  13.041   3.913  10.483
 3546SOL    HW212472  13.076   3.805  10.382
 3547SOL     OW12473   9.290  12.411   4.661
 3547SOL    HW112474   9.337  12.338   4.620
 3547SOL    HW212475   9.327  12.489   4.620
 3548SOL     OW12476   5.014  10.753  13.716
 3548SOL    HW112477   5.078  10.794  13.773
 3548SOL    HW212478   5.055  10.671  13.689
 3549SOL     OW12479   6.070   7.589  12.861
 3549SOL    HW112480   6.115   7.520  12.910
 3549SOL    HW212481   6.111   7.670  12.891
 3550SOL     OW12482  13.755   9.316  12.628
 3550SOL    HW112483  13.730   9.350  12.542
 3550SOL    HW212484  13.782   9.393  12.678
 3551SOL     OW12485  13.022   0.048   6.439
 3551SOL    HW112486  13.038   0.142   6.427
 3551SOL    HW212487  12.992   0.041   6.530
 3552SOL     OW12488   0.244   0.884  13.047
 3552SOL    HW112489   0.209   0.820  12.986
 3552SOL    HW212490   0.215   0.969  13.012
 3553SOL     OW12491   0.379   0.915   9.421
 3553SOL    HW112492   0.305   0.854   9.415
 3553SOL    HW212493   0.455   0.863   9.395
 3554SOL     OW12494  11.371   4.841   9.718
 3554SOL    HW112495  11.439   4.776   9.735
 3554SOL    HW212496  11.414   4.906   9.662
 3555SOL     OW12497   0.063   1.464  14.426
 3555SOL    HW112498   0.108   1.450  14.509
 3555SOL    HW212499  14.852   1.487  14.451
 3556SOL     OW12500  10.016  14.058   6.875
 3556SOL    HW112501   9.984  13.981   6.921
 3556SOL    HW212502   9.942  14.119   6.876
 3557SOL     OW12503   0.014  14.362   7.710
 3557SOL    HW112504   0.043  14.288   7.656
 3557SOL    HW212505  14.841  14.322   7.780
 3558SOL     OW12506   3.302   4.197   9.820
 3558SOL    HW112507   3.335   4.246   9.745
 3558SOL    HW212508   3.369   4.207   9.887
 3559SOL     OW12509   8.271   7.825   2.990
 3559SOL    HW112510   8.235   7.764   2.925
 3559SOL    HW212511   8.246   7.787   3.075
 3560SOL     OW12512   0.176   5.976   5.474
 3560SOL    HW112513   0.121   5.924   5.414
 3560SOL    HW212514   0.266   5.957   5.445
 3561SOL     OW12515   2.213   8.397   7.664
 3561SOL    HW112516   2.289   8.426   7.715
 3561SOL    HW212517   2.142   8.455   7.693
 3562SOL     OW12518   0.889   4.074   6.639
 3562SOL    HW112519   0.969   4.120   6.665
 3562SOL    HW212520   0.882   4.001   6.700
 3563SOL     OW12521  10.342  11.991   1.865
 3563SOL    HW112522  10.251  11.962   1.864
 3563SOL    HW212523  10.343  12.069   1.809
 3564SOL     OW12524   5.403   9.390  10.231
 3564SOL    HW112525   5.470   9.430  10.174
 3564SOL    HW212526   5.423   9.297  10.229
 3565SOL     OW12527   2.349   4.839   1.718
 3565SOL    HW112528   2.388   4.908   1.772
 3565SOL    HW212529   2.255   4.846   1.734
 3566SOL     OW12530   2.535   1.842   7.566
 3566SOL    HW112531   2.469   1.839   7.635
 3566SOL    HW212532   2.544   1.934   7.544
 3567SOL     OW12533  12.186  14.145   8.872
 3567SOL    HW112534  12.275  14.146   8.837
 3567SOL    HW212535  12.181  14.223   8.927
 3568SOL     OW12536   9.598   5.995  14.374
 3568SOL    HW112537   9.673   5.962  14.325
 3568SOL    HW212538   9.528   5.933  14.355
 3569SOL     OW12539   1.646  14.625   0.910
 3569SOL    HW112540   1.675  14.579   0.832
 3569SOL    HW212541   1.722  14.623   0.968
 3570SOL     OW12542   3.231   8.549  11.642
 3570SOL    HW112543   3.170   8.616  11.611
 3570SOL    HW212544   3.269   8.587  11.721
 3571SOL     OW12545   1.768   6.790  14.041
 3571SOL    HW112546   1.717   6.710  14.033
 3571SOL    HW212547   1.840   6.768  14.100
 3572SOL     OW12548  12.147  11.187   3.420
 3572SOL    HW112549  12.149  11.223   3.331
 3572SOL    HW212550  12.231  11.142   3.430
 3573SOL     OW12551   6.458  12.568   6.699
 3573SOL    HW112552   6.363  12.582   6.699
 3573SOL    HW212553   6.469  12.485   6.652
 3574SOL     OW12554   5.594   8.768  10.201
 3574SOL    HW112555   5.533   8.698  10.179
 3574SOL    HW212556   5.584   8.831  10.129
 3575SOL     OW12557   8.789  12.759  10.933
 3575SOL    HW112558   8.784  12.812  10.853
 3575SOL    HW212559   8.880  12.730  10.936
 3576SOL     OW12560   9.148   9.401  13.738
 3576SOL    HW112561   9.132   9.313  13.705
 3576SOL    HW212562   9.238   9.420  13.711
 3577SOL     OW12563   3.382   2.923  10.997
 3577SOL    HW112564   3.300   2.907  11.044
 3577SOL    HW212565   3.388   2.851  10.934
 3578SOL     OW12566   9.112   1.157   6.784
 3578SOL    HW112567   9.097   1.064   6.799
 3578SOL    HW212568   9.075   1.200   6.861
 3579SOL     OW12569   4.535  11.059  14.696
 3579SOL    HW112570   4.578  10.997  14.755
 3579SOL    HW212571   4.442  11.033  14.698
 3580SOL     OW12572  14.664   9.026   0.717
 3580SOL    HW112573  14.705   9.079   0.648
 3580SOL    HW212574  14.600   9.085   0.757
 3581SOL     OW12575   1.182   2.840   9.965
 3581SOL    HW112576   1.190   2.803   9.877
 3581SOL    HW212577   1.096   2.881   9.966
 3582SOL     OW12578   3.930   0.168   4.726
 3582SOL    HW112579   3.960   0.255   4.701
 3582SOL    HW212580   3.885   0.181   4.810
 3583SOL     OW12581   6.895   3.986   8.768
 3583SOL    HW112582   6.876   3.941   8.851
 3583SOL    HW212583   6.990   4.000   8.770
 3584SOL     OW12584   8.865  12.208   0.982
 3584SOL    HW112585   8.854  12.211   0.887
 3584SOL    HW212586   8.885  12.298   1.007
 3585SOL     OW12587   7.678   7.424   2.949
 3585SOL    HW112588   7.620   7.412   2.873
 3585SOL    HW212589   7.758   7.461   2.911
 3586SOL     OW12590   6.146   7.770  11.276
 3586SOL    HW112591   6.183   7.733  11.356
 3586SOL    HW212592   6.191   7.854  11.265
 3587SOL     OW12593   9.336   2.382   2.912
 3587SOL    HW112594   9.361   2.351   2.998
 3587SOL    HW212595   9.241   2.369   2.909
 3588SOL     OW12596  10.636   1.621   3.509
 3588SOL    HW112597  10.712   1.612   3.452
 3588SOL    HW212598  10.621   1.533   3.543
 3589SOL     OW12599   0.127   7.733  10.033
 3589SOL    HW112600   0.164   7.719   9.946
 3589SOL    HW212601   0.176   7.808  10.068
 3590SOL     OW12602   1.167  14.066  10.333
 3590SOL    HW112603   1.163  13.972  10.346
 3590SOL    HW212604   1.187  14.077  10.240
 3591SOL     OW12605   0.756  10.987  13.037
 3591SOL    HW112606   0.835  10.967  13.088
 3591SOL    HW212607   0.694  11.022  13.100
 3592SOL     OW12608  12.496   1.370   2.436
 3592SOL    HW112609  12.591   1.361   2.435
 3592SOL    HW212610  12.466   1.315   2.364
 3593SOL     OW12611  10.115  14.188  14.176
 3593SOL    HW112612  10.085  14.105  14.214
 3593SOL    HW212613  10.057  14.254  14.214
 3594SOL     OW12614  12.896   6.763  11.236
 3594SOL    HW112615  12.870   6.842  11.283
 3594SOL    HW212616  12.826   6.748  11.172
 3595SOL     OW12617   7.391   2.569  13.235
 3595SOL    HW112618   7.440   2.495  13.199
 3595SOL    HW212619   7.427   2.646  13.190
 3596SOL     OW12620  14.147   4.545   6.274
 3596SOL    HW112621  14.188   4.459   6.286
 3596SOL    HW212622  14.055   4.531   6.292
 3597SOL     OW12623  11.654   9.893   0.958
 3597SOL    HW112624  11.681   9.802   0.947
 3597SOL    HW212625  11.578   9.889   1.016
 3598SOL     OW12626   1.360   6.121   1.251
 3598SOL    HW112627   1.371   6.042   1.197
 3598SOL    HW212628   1.450   6.150   1.270
 3599SOL     OW12629  12.156  12.486   9.542
 3599SOL    HW112630  12.137  12.575   9.569
 3599SOL    HW212631  12.177  12.493   9.449
 3600SOL     OW12632   0.148  12.651  14.182
 3600SOL    HW112633   0.232  12.609  14.162
 3600SOL    HW212634   0.166  12.745  14.177
 3601SOL     OW12635  11.807   5.355  13.045
 3601SOL    HW112636  11.789   5.379  12.954
 3601SOL    HW212637  11.753   5.278  13.060
 3602SOL     OW12638   7.881  11.930  10.157
 3602SOL    HW112639   7.947  11.894  10.097
 3602SOL    HW212640   7.899  12.024  10.159
 3603SOL     OW12641   2.698  10.229   9.125
 3603SOL    HW112642   2.737  10.190   9.204
 3603SOL    HW212643   2.753  10.198   9.053
 3604SOL     OW12644   5.892  11.631   9.196
 3604SOL    HW112645   5.977  11.630   9.152
 3604SOL    HW212646   5.841  11.562   9.152
 3605SOL     OW12647   7.398  11.658   0.315
 3605SOL    HW112648   7.395  11.625   0.225
 3605SOL    HW212649   7.379  11.581   0.369
 3606SOL     OW12650   0.365  13.143  14.489
 3606SOL    HW112651   0.443  13.198  14.495
 3606SOL    HW212652   0.340  13.129  14.581
 3607SOL     OW12653  12.210   9.554   4.487
 3607SOL    HW112654  12.247   9.634   4.523
 3607SOL    HW212655  12.273   9.486   4.510
 3608SOL     OW12656   3.346   2.405   8.582
 3608SOL    HW112657   3.276   2.429   8.522
 3608SOL    HW212658   3.400   2.484   8.591
 3609SOL     OW12659   4.202   3.820  12.184
 3609SOL    HW112660   4.217   3.850  12.274
 3609SOL    HW212661   4.107   3.818  12.175
 3610SOL     OW12662   3.060   3.408   1.702
 3610SOL    HW112663   3.086   3.316   1.702
 3610SOL    HW212664   3.111   3.447   1.631
 3611SOL     OW12665   4.364   7.254   6.588
 3611SOL    HW112666   4.273   7.266   6.615
 3611SOL    HW212667   4.363   7.173   6.536
 3612SOL     OW12668   1.534  13.161   0.821
 3612SOL    HW112669   1.472  13.168   0.893
 3612SOL    HW212670   1.619  13.148   0.863
 3613SOL     OW12671   8.986   5.358   6.573
 3613SOL    HW112672   9.074   5.392   6.558
 3613SOL    HW212673   8.967   5.379   6.664
 3614SOL     OW12674  12.376  10.051   1.719
 3614SOL    HW112675  12.394   9.962   1.750
 3614SOL    HW212676  12.353  10.100   1.797
 3615SOL     OW12677  13.946   1.100  14.044
 3615SOL    HW112678  13.878   1.100  14.111
 3615SOL    HW212679  14.028   1.090  14.093
 3616SOL     OW12680   0.172   5.473   6.715
 3616SOL    HW112681   0.230   5.493   6.642
 3616SOL    HW212682   0.085   5.467   6.675
 3617SOL     OW12683   2.512   2.756  12.769
 3617SOL    HW112684   2.597   2.795  12.791
 3617SOL    HW212685   2.459   2.766  12.848
 3618SOL     OW12686  10.952  14.470   9.646
 3618SOL    HW112687  10.987  14.542   9.699
 3618SOL    HW212688  10.997  14.392   9.678
 3619SOL     OW12689  11.093  14.671   5.776
 3619SOL    HW112690  11.155  14.641   5.843
 3619SOL    HW212691  11.060  14.590   5.736
 3620SOL     OW12692  12.901  10.136   8.193
 3620SOL    HW112693  12.856  10.181   8.264
 3620SOL    HW212694  12.832  10.117   8.129
 3621SOL     OW12695   7.106   2.296   9.671
 3621SOL    HW112696   7.095   2.391   9.668
 3621SOL    HW212697   7.187   2.279   9.623
 3622SOL     OW12698   4.972   5.491  10.555
 3622SOL    HW112699   4.912   5.519  10.486
 3622SOL    HW212700   4.933   5.411  10.590
 3623SOL     OW12701  11.822  14.559   0.796
 3623SOL    HW112702  11.847  14.606   0.717
 3623SOL    HW212703  11.905  14.530   0.834
 3624SOL     OW12704   7.029   1.194  13.654
 3624SOL    HW112705   7.105   1.157  13.609
 3624SOL    HW212706   7.017   1.138  13.731
 3625SOL     OW12707  10.150   4.830  13.396
 3625SOL    HW112708  10.232   4.875  13.379
 3625SOL    HW212709  10.137   4.838  13.491
 3626SOL     OW12710  14.780   4.514   3.166
 3626SOL    HW112711  14.709   4.450   3.163
 3626SOL    HW212712  14.820   4.501   3.252
 3627SOL     OW12713   2.867  12.810  12.837
 3627SOL    HW112714   2.797  12.848  12.890
 3627SOL    HW212715   2.938  12.874  12.842
 3628SOL     OW12716   5.079   7.693  13.054
 3628SOL    HW112717   5.047   7.748  13.125
 3628SOL    HW212718   5.108   7.613  13.096
 3629SOL     OW12719   8.968  11.738   6.092
 3629SOL    HW112720   9.041  11.692   6.133
 3629SOL    HW212721   8.953  11.692   6.010
 3630SOL     OW12722   5.479  11.927   3.249
 3630SOL    HW112723   5.502  11.841   3.284
 3630SOL    HW212724   5.488  11.986   3.324
 3631SOL     OW12725   0.064  14.465   5.606
 3631SOL    HW112726  14.854  14.498   5.613
 3631SOL    HW212727   0.110  14.530   5.554
 3632SOL     OW12728  13.067   1.972  10.488
 3632SOL    HW112729  13.077   2.061  10.454
 3632SOL    HW212730  12.974   1.955  10.482
 3633SOL     OW12731   4.645   4.153   0.163
 3633SOL    HW112732   4.637   4.075   0.219
 3633SOL    HW212733   4.686   4.121   0.083
 3634SOL     OW12734   5.138   8.387   0.885
 3634SOL    HW112735   5.051   8.364   0.852
 3634SOL    HW212736   5.198   8.329   0.838
 3635SOL     OW12737   4.378  13.290  13.160
 3635SOL    HW112738   4.348  13.340  13.236
 3635SOL    HW212739   4.421  13.213  13.197
 3636SOL     OW12740  14.181   3.182   2.367
 3636SOL    HW112741  14.170   3.093   2.399
 3636SOL    HW212742  14.274   3.201   2.381
 3637SOL     OW12743  10.888   8.757   5.494
 3637SOL    HW112744  10.836   8.677   5.502
 3637SOL    HW212745  10.967   8.730   5.449
 3638SOL     OW12746   1.128   8.479  12.541
 3638SOL    HW112747   1.122   8.497  12.447
 3638SOL    HW212748   1.050   8.520  12.578
 3639SOL     OW12749   7.124   1.726  13.735
 3639SOL    HW112750   7.099   1.656  13.795
 3639SOL    HW212751   7.046   1.744  13.684
 3640SOL     OW12752   7.431   6.140   0.409
 3640SOL    HW112753   7.385   6.217   0.376
 3640SOL    HW212754   7.382   6.066   0.374
 3641SOL     OW12755   9.830   8.498  13.084
 3641SOL    HW112756   9.861   8.409  13.099
 3641SOL    HW212757   9.776   8.518  13.160
 3642SOL     OW12758  11.182   8.459  12.700
 3642SOL    HW112759  11.092   8.454  12.732
 3642SOL    HW212760  11.229   8.394  12.751
 3643SOL     OW12761  12.207   5.377   4.882
 3643SOL    HW112762  12.117   5.406   4.895
 3643SOL    HW212763  12.227   5.401   4.791
 3644SOL     OW12764   0.019  14.620   8.938
 3644SOL    HW112765  14.832  14.671   8.891
 3644SOL    HW212766   0.086  14.683   8.963
 3645SOL     OW12767  13.320   2.835   3.763
 3645SOL    HW112768  13.397   2.857   3.816
 3645SOL    HW212769  13.356   2.789   3.688
 3646SOL     OW12770  13.659  14.632   0.838
 3646SOL    HW112771  13.645  14.710   0.784
 3646SOL    HW212772  13.588  14.635   0.902
 3647SOL     OW12773   4.610   5.845   8.197
 3647SOL    HW112774   4.702   5.869   8.185
 3647SOL    HW212775   4.600   5.836   8.292
 3648SOL     OW12776   7.453   8.023   6.367
 3648SOL    HW112777   7.483   8.072   6.290
 3648SOL    HW212778   7.532   8.009   6.419
 3649SOL     OW12779   7.546   2.537   9.160
 3649SOL    HW112780   7.589   2.587   9.090
 3649SOL    HW212781   7.590   2.565   9.240
 3650SOL     OW12782   9.569   7.490  14.073
 3650SOL    HW112783   9.572   7.456  14.163
 3650SOL    HW212784   9.509   7.564  14.078
 3651SOL     OW12785   5.033   2.812   1.801
 3651SOL    HW112786   5.127   2.798   1.815
 3651SOL    HW212787   5.016   2.896   1.844
 3652SOL     OW12788   2.937   4.965   2.685
 3652SOL    HW112789   3.011   5.025   2.701
 3652SOL    HW212790   2.888   4.965   2.768
 3653SOL     OW12791   8.357   5.592  12.504
 3653SOL    HW112792   8.411   5.670  12.518
 3653SOL    HW212793   8.412   5.519  12.533
 3654SOL     OW12794  10.655  10.205   7.590
 3654SOL    HW112795  10.738  10.158   7.590
 3654SOL    HW212796  10.629  10.208   7.682
 3655SOL     OW12797  11.825   0.439  12.186
 3655SOL    HW112798  11.908   0.395  12.172
 3655SOL    HW212799  11.841   0.530  12.160
 3656SOL     OW12800  10.433   8.457  13.098
 3656SOL    HW112801  10.487   8.512  13.155
 3656SOL    HW212802  10.347   8.499  13.098
 3657SOL     OW12803   3.056  13.441   2.923
 3657SOL    HW112804   3.093  13.523   2.890
 3657SOL    HW212805   2.969  13.465   2.956
 3658SOL     OW12806   4.563   9.452   9.987
 3658SOL    HW112807   4.609   9.529  10.019
 3658SOL    HW212808   4.569   9.458   9.892
 3659SOL     OW12809  10.200  13.793   9.013
 3659SOL    HW112810  10.115  13.775   8.972
 3659SOL    HW212811  10.198  13.887   9.033
 3660SOL     OW12812   5.816   9.778   1.225
 3660SOL    HW112813   5.782   9.857   1.182
 3660SOL    HW212814   5.910   9.780   1.208
 3661SOL     OW12815   9.588  11.664   8.278
 3661SOL    HW112816   9.620  11.735   8.333
 3661SOL    HW212817   9.667  11.615   8.253
 3662SOL     OW12818  11.199   0.564  13.093
 3662SOL    HW112819  11.181   0.568  13.187
 3662SOL    HW212820  11.233   0.475  13.079
 3663SOL     OW12821   8.397   8.682  14.367
 3663SOL    HW112822   8.488   8.705  14.351
 3663SOL    HW212823   8.394   8.661  14.461
 3664SOL     OW12824   5.180   2.267   4.947
 3664SOL    HW112825   5.235   2.304   5.016
 3664SOL    HW212826   5.223   2.185   4.923
 3665SOL     OW12827  13.067   0.633   9.235
 3665SOL    HW112828  13.009   0.557   9.243
 3665SOL    HW212829  13.149   0.604   9.275
 3666SOL     OW12830  10.198  13.082   5.967
 3666SOL    HW112831  10.276  13.043   5.927
 3666SOL    HW212832  10.228  13.168   5.998
 3667SOL     OW12833  11.967   7.747  12.729
 3667SOL    HW112834  11.901   7.813  12.751
 3667SOL    HW212835  11.994   7.769  12.639
 3668SOL     OW12836   8.400  12.267   7.669
 3668SOL    HW112837   8.387  12.289   7.577
 3668SOL    HW212838   8.318  12.294   7.711
 3669SOL     OW12839   5.882  13.024   5.930
 3669SOL    HW112840   5.929  13.082   5.988
 3669SOL    HW212841   5.950  12.980   5.878
 3670SOL     OW12842   8.624  14.183   2.853
 3670SOL    HW112843   8.533  14.157   2.844
 3670SOL    HW212844   8.636  14.194   2.948
 3671SOL     OW12845   0.629  14.170   3.668
 3671SOL    HW112846   0.611  14.194   3.577
 3671SOL    HW212847   0.656  14.078   3.663
 3672SOL     OW12848  10.610   8.127   9.500
 3672SOL    HW112849  10.537   8.187   9.514
 3672SOL    HW212850  10.650   8.117   9.586
 3673SOL     OW12851  14.331  12.516   2.628
 3673SOL    HW112852  14.320  12.605   2.592
 3673SOL    HW212853  14.269  12.511   2.700
 3674SOL     OW12854  10.953   7.383   6.839
 3674SOL    HW112855  11.040   7.367   6.803
 3674SOL    HW212856  10.894   7.369   6.765
 3675SOL     OW12857  11.164   7.609  13.736
 3675SOL    HW112858  11.193   7.517  13.741
 3675SOL    HW212859  11.202   7.641  13.654
 3676SOL     OW12860   9.859  10.710  12.159
 3676SOL    HW112861   9.888  10.729  12.070
 3676SOL    HW212862   9.786  10.770  12.174
 3677SOL     OW12863  13.333  10.458   3.231
 3677SOL    HW112864  13.354  10.369   3.201
 3677SOL    HW212865  13.398  10.477   3.299
 3678SOL     OW12866  12.478   5.702   0.552
 3678SOL    HW112867  12.486   5.791   0.586
 3678SOL    HW212868  12.552   5.692   0.493
 3679SOL     OW12869   0.565   5.939   9.026
 3679SOL    HW112870   0.610   6.015   8.990
 3679SOL    HW212871   0.514   5.905   8.953
 3680SOL     OW12872  13.257  10.998   0.029
 3680SOL    HW112873  13.346  10.975   0.002
 3680SOL    HW212874  13.203  10.927  14.873
 3681SOL     OW12875   8.310   7.985  10.222
 3681SOL    HW112876   8.400   8.014  10.236
 3681SOL    HW212877   8.317   7.903  10.174
 3682SOL     OW12878   8.655   3.033   6.868
 3682SOL    HW112879   8.570   3.002   6.837
 3682SOL    HW212880   8.716   3.015   6.796
 3683SOL     OW12881  12.151   7.782   6.166
 3683SOL    HW112882  12.150   7.686   6.162
 3683SOL    HW212883  12.214   7.807   6.098
 3684SOL     OW12884  12.996   0.776   6.176
 3684SOL    HW112885  13.004   0.688   6.212
 3684SOL    HW212886  12.902   0.792   6.172
 3685SOL     OW12887   6.164   9.851  11.175
 3685SOL    HW112888   6.219   9.853  11.098
 3685SOL    HW212889   6.211   9.905  11.240
 3686SOL     OW12890  13.540   4.424  10.401
 3686SOL    HW112891  13.511   4.473  10.324
 3686SOL    HW212892  13.465   4.369  10.424
 3687SOL     OW12893   5.489   6.609   0.020
 3687SOL    HW112894   5.481   6.620   0.115
 3687SOL    HW212895   5.583   6.594   0.005
 3688SOL     OW12896   6.572   4.649   8.110
 3688SOL    HW112897   6.501   4.589   8.086
 3688SOL    HW212898   6.556   4.727   8.057
 3689SOL     OW12899   0.017   7.358   1.631
 3689SOL    HW112900  14.855   7.322   1.709
 3689SOL    HW212901   0.072   7.430   1.663
 3690SOL     OW12902  13.328   6.858  12.235
 3690SOL    HW112903  13.299   6.804  12.308
 3690SOL    HW212904  13.272   6.935  12.238
 3691SOL     OW12905   9.260  10.403   2.197
 3691SOL    HW112906   9.267  10.431   2.289
 3691SOL    HW212907   9.217  10.476   2.153
 3692SOL     OW12908   5.542  12.681   5.171
 3692SOL    HW112909   5.599  12.744   5.128
 3692SOL    HW212910   5.531  12.610   5.107
 3693SOL     OW12911   1.550   0.992   5.675
 3693SOL    HW112912   1.544   1.006   5.770
 3693SOL    HW212913   1.469   1.028   5.640
 3694SOL     OW12914  10.385   3.069  14.341
 3694SOL    HW112915  10.376   3.041  14.250
 3694SOL    HW212916  10.437   3.149  14.337
 3695SOL     OW12917  13.247   4.442   7.322
 3695SOL    HW112918  13.247   4.411   7.231
 3695SOL    HW212919  13.164   4.488   7.332
 3696SOL     OW12920   0.108  11.159  10.417
 3696SOL    HW112921   0.118  11.072  10.454
 3696SOL    HW212922   0.188  11.173  10.366
 3697SOL     OW12923  12.407   7.896   8.834
 3697SOL    HW112924  12.448   7.981   8.818
 3697SOL    HW212925  12.357   7.879   8.754
 3698SOL     OW12926   0.006   7.493  11.004
 3698SOL    HW112927   0.080   7.521  11.058
 3698SOL    HW212928  14.812   7.548  11.032
 3699SOL     OW12929   0.117   7.447   3.306
 3699SOL    HW112930   0.088   7.505   3.376
 3699SOL    HW212931   0.141   7.365   3.351
 3700SOL     OW12932  10.143  10.261  12.859
 3700SOL    HW112933  10.071  10.279  12.799
 3700SOL    HW212934  10.158  10.167  12.851
 3701SOL     OW12935   9.553  12.886   1.261
 3701SOL    HW112936   9.532  12.851   1.174
 3701SOL    HW212937   9.554  12.981   1.250
 3702SOL     OW12938  11.601   4.838   8.242
 3702SOL    HW112939  11.545   4.895   8.190
 3702SOL    HW212940  11.690   4.869   8.223
 3703SOL     OW12941   5.515   7.225   7.106
 3703SOL    HW112942   5.537   7.252   7.017
 3703SOL    HW212943   5.421   7.239   7.113
 3704SOL     OW12944   2.821   1.043   2.722
 3704SOL    HW112945   2.904   1.026   2.678
 3704SOL    HW212946   2.795   0.958   2.758
 3705SOL     OW12947   2.046   1.487  11.362
 3705SOL    HW112948   2.004   1.561  11.406
 3705SOL    HW212949   2.071   1.428  11.433
 3706SOL     OW12950  10.892   5.625   0.603
 3706SOL    HW112951  10.843   5.648   0.682
 3706SOL    HW212952  10.866   5.691   0.539
 3707SOL     OW12953  13.298   9.184   0.666
 3707SOL    HW112954  13.287   9.253   0.730
 3707SOL    HW212955  13.324   9.107   0.717
 3708SOL     OW12956   8.864  11.902   8.304
 3708SOL    HW112957   8.810  11.956   8.247
 3708SOL    HW212958   8.807  11.880   8.378
 3709SOL     OW12959   6.627  11.821   3.619
 3709SOL    HW112960   6.563  11.749   3.614
 3709SOL    HW212961   6.686  11.796   3.689
 3710SOL     OW12962  11.964  11.499  14.699
 3710SOL    HW112963  11.995  11.529  14.784
 3710SOL    HW212964  11.899  11.564  14.672
 3711SOL     OW12965  12.735  11.643   9.407
 3711SOL    HW112966  12.653  11.655   9.359
 3711SOL    HW212967  12.750  11.548   9.405
 3712SOL     OW12968   1.716   2.992  11.579
 3712SOL    HW112969   1.805   2.964  11.598
 3712SOL    HW212970   1.712   3.083  11.611
 3713SOL     OW12971  13.179   1.493   8.504
 3713SOL    HW112972  13.138   1.577   8.523
 3713SOL    HW212973  13.252   1.514   8.446
 3714SOL     OW12974   6.516   4.218   6.403
 3714SOL    HW112975   6.540   4.160   6.331
 3714SOL    HW212976   6.425   4.196   6.422
 3715SOL     OW12977   6.951   6.040   8.287
 3715SOL    HW112978   7.042   6.069   8.296
 3715SOL    HW212979   6.949   5.954   8.327
 3716SOL     OW12980   6.572  10.039  11.679
 3716SOL    HW112981   6.575  10.011  11.770
 3716SOL    HW212982   6.517  10.118  11.680
 3717SOL     OW12983   8.803   0.274   1.356
 3717SOL    HW112984   8.760   0.247   1.436
 3717SOL    HW212985   8.833   0.363   1.373
 3718SOL     OW12986   8.065   4.282   1.155
 3718SOL    HW112987   8.082   4.318   1.242
 3718SOL    HW212988   8.152   4.274   1.115
 3719SOL     OW12989  13.415  12.123   1.076
 3719SOL    HW112990  13.390  12.193   1.016
 3719SOL    HW212991  13.383  12.043   1.035
 3720SOL     OW12992  10.864   8.927  10.086
 3720SOL    HW112993  10.893   8.953  10.173
 3720SOL    HW212994  10.778   8.967  10.076
 3721SOL     OW12995   7.027   7.298   4.568
 3721SOL    HW112996   7.095   7.349   4.524
 3721SOL    HW212997   6.958   7.362   4.589
 3722SOL     OW12998   7.206   1.532   7.026
 3722SOL    HW112999   7.119   1.565   7.006
 3722SOL    HW213000   7.248   1.519   6.940
 3723SOL     OW13001   9.560  11.849   0.333
 3723SOL    HW113002   9.520  11.935   0.344
 3723SOL    HW213003   9.619  11.860   0.258
 3724SOL     OW13004   1.219  12.722   9.287
 3724SOL    HW113005   1.250  12.812   9.277
 3724SOL    HW213006   1.291  12.678   9.333
 3725SOL     OW13007  10.170   5.083   6.728
 3725SOL    HW113008  10.189   5.099   6.636
 3725SOL    HW213009  10.220   5.150   6.775
 3726SOL     OW13010  10.192  10.224   4.607
 3726SOL    HW113011  10.168  10.276   4.684
 3726SOL    HW213012  10.156  10.273   4.533
 3727SOL     OW13013   3.022   3.870  14.457
 3727SOL    HW113014   3.017   3.875  14.552
 3727SOL    HW213015   3.046   3.779  14.438
 3728SOL     OW13016   4.868   0.074  12.181
 3728SOL    HW113017   4.891  14.862  12.199
 3728SOL    HW213018   4.951   0.121  12.185
 3729SOL     OW13019   9.850   2.524   5.565
 3729SOL    HW113020   9.878   2.591   5.502
 3729SOL    HW213021   9.791   2.570   5.624
 3730SOL     OW13022  10.701  12.858   5.265
 3730SOL    HW113023  10.687  12.763   5.263
 3730SOL    HW213024  10.617  12.894   5.291
 3731SOL     OW13025   5.805   9.075   3.204
 3731SOL    HW113026   5.734   9.110   3.150
 3731SOL    HW213027   5.885   9.100   3.157
 3732SOL     OW13028   4.433   5.554   4.896
 3732SOL    HW113029   4.445   5.465   4.863
 3732SOL    HW213030   4.504   5.604   4.857
 3733SOL     OW13031  11.460   5.766   8.093
 3733SOL    HW113032  11.497   5.708   8.026
 3733SOL    HW213033  11.445   5.708   8.168
 3734SOL     OW13034   2.130   5.315   1.197
 3734SOL    HW113035   2.207   5.340   1.248
 3734SOL    HW213036   2.142   5.359   1.113
 3735SOL     OW13037   5.848   6.039   1.652
 3735SOL    HW113038   5.782   6.004   1.593
 3735SOL    HW213039   5.927   5.988   1.635
 3736SOL     OW13040   5.374   1.379   0.723
 3736SOL    HW113041   5.335   1.454   0.677
 3736SOL    HW213042   5.376   1.405   0.815
 3737SOL     OW13043   1.495   7.211   7.150
 3737SOL    HW113044   1.427   7.233   7.087
 3737SOL    HW213045   1.473   7.261   7.228
 3738SOL     OW13046   0.204   7.658  11.822
 3738SOL    HW113047   0.163   7.658  11.908
 3738SOL    HW213048   0.236   7.568  11.811
 3739SOL     OW13049  13.924  11.980  14.010
 3739SOL    HW113050  13.893  11.921  13.941
 3739SOL    HW213051  13.921  11.927  14.089
 3740SOL     OW13052   3.361  12.664   8.035
 3740SOL    HW113053   3.269  12.673   8.062
 3740SOL    HW213054   3.364  12.581   7.987
 3741SOL     OW13055   7.176   6.236   2.329
 3741SOL    HW113056   7.141   6.153   2.363
 3741SOL    HW213057   7.228   6.271   2.402
 3742SOL     OW13058   3.654   8.217  11.788
 3742SOL    HW113059   3.675   8.124  11.792
 3742SOL    HW213060   3.596   8.232  11.863
 3743SOL     OW13061   1.593   9.915  10.423
 3743SOL    HW113062   1.585  10.004  10.390
 3743SOL    HW213063   1.511   9.873  10.399
 3744SOL     OW13064   3.812   0.858  12.144
 3744SOL    HW113065   3.899   0.820  12.153
 3744SOL    HW213066   3.808   0.886  12.052
 3745SOL     OW13067  11.179  10.503   5.231
 3745SOL    HW113068  11.244  10.536   5.294
 3745SOL    HW213069  11.100  10.553   5.249
 3746SOL     OW13070   5.517   9.266   4.696
 3746SOL    HW113071   5.549   9.199   4.636
 3746SOL    HW213072   5.592   9.286   4.752
 3747SOL     OW13073   2.865   1.800   2.871
 3747SOL    HW113074   2.774   1.825   2.883
 3747SOL    HW213075   2.884   1.820   2.779
 3748SOL     OW13076   6.835  11.319  10.675
 3748SOL    HW113077   6.864  11.381  10.608
 3748SOL    HW213078   6.821  11.373  10.753
 3749SOL     OW13079   9.335  13.303  11.806
 3749SOL    HW113080   9.328  13.224  11.751
 3749SOL    HW213081   9.264  13.359  11.775
 3750SOL     OW13082   3.650   9.790   0.042
 3750SOL    HW113083   3.584   9.733   0.002
 3750SOL    HW213084   3.709   9.813  14.850
 3751SOL     OW13085  12.954   4.536   5.227
 3751SOL    HW113086  13.028   4.595   5.240
 3751SOL    HW213087  12.993   4.457   5.191
 3752SOL     OW13088   4.212   4.395   3.273
 3752SOL    HW113089   4.231   4.476   3.319
 3752SOL    HW213090   4.220   4.417   3.180
 3753SOL     OW13091   1.301   3.212   8.745
 3753SOL    HW113092   1.206   3.215   8.759
 3753SOL    HW213093   1.317   3.121   8.720
 3754SOL     OW13094  13.544   5.189  12.981
 3754SOL    HW113095  13.554   5.103  12.942
 3754SOL    HW213096  13.631   5.229  12.975
 3755SOL     OW13097   4.999   1.917   3.795
 3755SOL    HW113098   5.086   1.952   3.811
 3755SOL    HW213099   4.948   1.941   3.873
 3756SOL     OW13100   9.877   7.117  10.665
 3756SOL    HW113101   9.960   7.148  10.700
 3756SOL    HW213102   9.900   7.039  10.614
 3757SOL     OW13103   7.230   9.933   7.415
 3757SOL    HW113104   7.167   9.970   7.353
 3757SOL    HW213105   7.302   9.901   7.360
 3758SOL     OW13106  12.653  10.941   7.818
 3758SOL    HW113107  12.745  10.965   7.820
 3758SOL    HW213108  12.626  10.957   7.727
 3759SOL     OW13109  13.864  12.534   7.314
 3759SOL    HW113110  13.818  12.553   7.232
 3759SOL    HW213111  13.856  12.615   7.366
 3760SOL     OW13112  14.134   1.929  12.824
 3760SOL    HW113113  14.200   1.981  12.779
 3760SOL    HW213114  14.145   1.952  12.917
 3761SOL     OW13115   9.552  14.349  11.700
 3761SOL    HW113116   9.466  14.367  11.662
 3761SOL    HW213117   9.605  14.426  11.677
 3762SOL     OW13118   9.168   6.686   7.251
 3762SOL    HW113119   9.214   6.763   7.284
 3762SOL    HW213120   9.231   6.642   7.194
 3763SOL     OW13121   1.128   1.732   4.513
 3763SOL    HW113122   1.152   1.804   4.572
 3763SOL    HW213123   1.159   1.653   4.559
 3764SOL     OW13124   2.291  10.227  11.622
 3764SOL    HW113125   2.318  10.135  11.621
 3764SOL    HW213126   2.205  10.228  11.579
 3765SOL     OW13127  14.199  14.110   4.932
 3765SOL    HW113128  14.125  14.051   4.917
 3765SOL    HW213129  14.159  14.195   4.949
 3766SOL     OW13130  14.548   9.203   7.499
 3766SOL    HW113131  14.585   9.172   7.416
 3766SOL    HW213132  14.619   9.196   7.562
 3767SOL     OW13133   8.819  11.245   6.715
 3767SOL    HW113134   8.823  11.196   6.797
 3767SOL    HW213135   8.905  11.287   6.708
 3768SOL     OW13136   2.982   5.154  10.291
 3768SOL    HW113137   2.970   5.090  10.222
 3768SOL    HW213138   2.898   5.157  10.336
 3769SOL     OW13139   5.559   5.959   3.824
 3769SOL    HW113140   5.472   5.969   3.861
 3769SOL    HW213141   5.618   5.956   3.899
 3770SOL     OW13142   9.496   6.498   2.438
 3770SOL    HW113143   9.586   6.532   2.435
 3770SOL    HW213144   9.471   6.506   2.530
 3771SOL     OW13145   9.776   8.155  13.947
 3771SOL    HW113146   9.864   8.134  13.916
 3771SOL    HW213147   9.728   8.073  13.938
 3772SOL     OW13148   3.002   7.394   1.269
 3772SOL    HW113149   2.970   7.398   1.179
 3772SOL    HW213150   2.990   7.483   1.303
 3773SOL     OW13151   2.423  14.066   4.376
 3773SOL    HW113152   2.333  14.036   4.365
 3773SOL    HW213153   2.451  14.092   4.288
 3774SOL     OW13154   6.645   7.635   3.743
 3774SOL    HW113155   6.562   7.604   3.778
 3774SOL    HW213156   6.666   7.713   3.795
 3775SOL     OW13157  13.268   2.134   9.593
 3775SOL    HW113158  13.201   2.066   9.606
 3775SOL    HW213159  13.348   2.086   9.576
 3776SOL     OW13160   6.486   9.257   2.934
 3776SOL    HW113161   6.478   9.163   2.950
 3776SOL    HW213162   6.448   9.298   3.012
 3777SOL     OW13163   7.900   5.019   2.317
 3777SOL    HW113164   7.944   4.973   2.388
 3777SOL    HW213165   7.963   5.019   2.245
 3778SOL     OW13166   3.749   5.162  12.844
 3778SOL    HW113167   3.774   5.077  12.809
 3778SOL    HW213168   3.778   5.160  12.935
 3779SOL     OW13169   9.737   3.842  10.394
 3779SOL    HW113170   9.721   3.845  10.489
 3779SOL    HW213171   9.656   3.871  10.355
 3780SOL     OW13172   9.826   2.057   1.997
 3780SOL    HW113173   9.913   2.080   2.032
 3780SOL    HW213174   9.770   2.053   2.075
 3781SOL     OW13175   4.243   6.245   4.745
 3781SOL    HW113176   4.279   6.285   4.666
 3781SOL    HW213177   4.319   6.204   4.788
 3782SOL     OW13178  13.936  10.014   0.147
 3782SOL    HW113179  13.842  10.003   0.163
 3782SOL    HW213180  13.974   9.927   0.164
 3783SOL     OW13181   9.196   6.968  10.042
 3783SOL    HW113182   9.191   6.876  10.016
 3783SOL    HW213183   9.251   6.967  10.121
 3784SOL     OW13184   7.001   7.065  11.287
 3784SOL    HW113185   6.948   6.990  11.314
 3784SOL    HW213186   6.940   7.139  11.288
 3785SOL     OW13187   9.522   0.387   1.246
 3785SOL    HW113188   9.581   0.462   1.232
 3785SOL    HW213189   9.478   0.375   1.162
 3786SOL     OW13190  13.920   4.213   1.794
 3786SOL    HW113191  13.934   4.201   1.700
 3786SOL    HW213192  13.954   4.301   1.812
 3787SOL     OW13193   3.444   1.201   7.250
 3787SOL    HW113194   3.469   1.203   7.342
 3787SOL    HW213195   3.349   1.215   7.251
 3788SOL     OW13196  12.226   8.017   5.139
 3788SOL    HW113197  12.233   8.016   5.234
 3788SOL    HW213198  12.278   8.092   5.112
 3789SOL     OW13199  10.024  11.459  13.158
 3789SOL    HW113200  10.094  11.510  13.117
 3789SOL    HW213201  10.062  11.372  13.170
 3790SOL     OW13202   3.923   3.771  10.374
 3790SOL    HW113203   3.846   3.727  10.410
 3790SOL    HW213204   3.916   3.759  10.280
 3791SOL     OW13205  12.985  13.105   9.091
 3791SOL    HW113206  13.068  13.121   9.136
 3791SOL    HW213207  12.997  13.021   9.047
 3792SOL     OW13208   3.129  13.730  14.484
 3792SOL    HW113209   3.208  13.704  14.436
 3792SOL    HW213210   3.131  13.678  14.564
 3793SOL     OW13211   8.431   2.311  14.036
 3793SOL    HW113212   8.455   2.321  14.128
 3793SOL    HW213213   8.482   2.378  13.991
 3794SOL     OW13214   8.238   9.230   1.460
 3794SOL    HW113215   8.180   9.244   1.535
 3794SOL    HW213216   8.323   9.261   1.490
 3795SOL     OW13217   3.192  12.681   4.490
 3795SOL    HW113218   3.100  12.688   4.514
 3795SOL    HW213219   3.205  12.588   4.470
 3796SOL     OW13220   2.416  13.675   4.666
 3796SOL    HW113221   2.458  13.626   4.595
 3796SOL    HW213222   2.354  13.613   4.704
 3797SOL     OW13223   4.607   3.947   0.331
 3797SOL    HW113224   4.519   3.913   0.316
 3797SOL    HW213225   4.666   3.875   0.307
 3798SOL     OW13226   4.575   9.998   6.861
 3798SOL    HW113227   4.646  10.039   6.911
 3798SOL    HW213228   4.619   9.953   6.789
 3799SOL     OW13229   1.209   5.165  13.346
 3799SOL    HW113230   1.221   5.204  13.259
 3799SOL    HW213231   1.297   5.155  13.380
 3800SOL     OW13232  13.343   4.482   9.459
 3800SOL    HW113233  13.304   4.504   9.544
 3800SOL    HW213234  13.418   4.542   9.452
 3801SOL     OW13235  14.063  13.175   8.457
 3801SOL    HW113236  14.113  13.112   8.406
 3801SOL    HW213237  14.067  13.256   8.406
 3802SOL     OW13238   0.197   8.706   0.722
 3802SOL    HW113239   0.133   8.663   0.666
 3802SOL    HW213240   0.240   8.770   0.665
 3803SOL     OW13241   6.526   1.084   6.345
 3803SOL    HW113242   6.608   1.037   6.330
 3803SOL    HW213243   6.539   1.169   6.303
 3804SOL     OW13244  12.137   0.434  10.303
 3804SOL    HW113245  12.149   0.510  10.360
 3804SOL    HW213246  12.127   0.360  10.363
 3805SOL     OW13247   1.149   0.621  13.990
 3805SOL    HW113248   1.064   0.659  13.968
 3805SOL    HW213249   1.136   0.581  14.076
 3806SOL     OW13250  14.342   8.221   0.702
 3806SOL    HW113251  14.322   8.184   0.788
 3806SOL    HW213252  14.289   8.170   0.641
 3807SOL     OW13253   1.331   6.655  13.177
 3807SOL    HW113254   1.390   6.662  13.102
 3807SOL    HW213255   1.373   6.593  13.236
 3808SOL     OW13256   9.511   5.482   5.765
 3808SOL    HW113257   9.549   5.482   5.853
 3808SOL    HW213258   9.534   5.396   5.730
 3809SOL     OW13259   0.693  12.669   7.633
 3809SOL    HW113260   0.774  12.712   7.607
 3809SOL    HW213261   0.695  12.669   7.729
 3810SOL     OW13262  12.635  12.495   8.505
 3810SOL    HW113263  12.728  12.516   8.498
 3810SOL    HW213264  12.590  12.572   8.470
 3811SOL     OW13265   6.299  12.404  12.969
 3811SOL    HW113266   6.372  12.341  12.965
 3811SOL    HW213267   6.264  12.394  13.057
 3812SOL     OW13268  11.020   6.509   8.923
 3812SOL    HW113269  11.083   6.501   8.852
 3812SOL    HW213270  11.032   6.429   8.975
 3813SOL     OW13271   7.391   8.248   8.268
 3813SOL    HW113272   7.437   8.280   8.345
 3813SOL    HW213273   7.438   8.288   8.194
 3814SOL     OW13274   4.358  14.127  10.805
 3814SOL    HW113275   4.376  14.044  10.850
 3814SOL    HW213276   4.270  14.151  10.836
 3815SOL     OW13277   5.122   0.074   9.284
 3815SOL    HW113278   5.107   0.097   9.376
 3815SOL    HW213279   5.039   0.038   9.255
 3816SOL     OW13280  11.508   3.303  12.930
 3816SOL    HW113281  11.595   3.310  12.890
 3816SOL    HW213282  11.455   3.258  12.864
 3817SOL     OW13283   2.932   5.429   5.781
 3817SOL    HW113284   2.911   5.357   5.723
 3817SOL    HW213285   2.930   5.507   5.725
 3818SOL     OW13286  13.745   5.856   7.502
 3818SOL    HW113287  13.770   5.764   7.510
 3818SOL    HW213288  13.818   5.898   7.457
 3819SOL     OW13289   0.484   6.553   2.500
 3819SOL    HW113290   0.492   6.643   2.532
 3819SOL    HW213291   0.573   6.518   2.501
 3820SOL     OW13292  13.580  14.178  10.851
 3820SOL    HW113293  13.660  14.154  10.805
 3820SOL    HW213294  13.546  14.253  10.803
 3821SOL     OW13295  10.393  12.583   2.057
 3821SOL    HW113296  10.319  12.565   1.999
 3821SOL    HW213297  10.440  12.655   2.014
 3822SOL     OW13298   5.799  13.208   5.611
 3822SOL    HW113299   5.773  13.116   5.606
 3822SOL    HW213300   5.727  13.251   5.657
 3823SOL     OW13301   3.691  14.098  11.247
 3823SOL    HW113302   3.596  14.109  11.243
 3823SOL    HW213303   3.705  14.004  11.242
 3824SOL     OW13304   3.069   8.308   0.088
 3824SOL    HW113305   3.086   8.335   0.178
 3824SOL    HW213306   3.029   8.385   0.047
 3825SOL     OW13307   8.885  13.482   1.281
 3825SOL    HW113308   8.856  13.398   1.316
 3825SOL    HW213309   8.943  13.517   1.349
 3826SOL     OW13310   2.742  12.148   2.697
 3826SOL    HW113311   2.731  12.053   2.699
 3826SOL    HW213312   2.720  12.172   2.607
 3827SOL     OW13313   0.152   2.915   2.517
 3827SOL    HW113314   0.148   2.974   2.441
 3827SOL    HW213315   0.240   2.928   2.552
 3828SOL     OW13316  10.026   8.541   0.946
 3828SOL    HW113317   9.941   8.499   0.960
 3828SOL    HW213318  10.004   8.631   0.919
 3829SOL     OW13319   8.129  13.786  10.997
 3829SOL    HW113320   8.078  13.708  10.976
 3829SOL    HW213321   8.120  13.842  10.920
 3830SOL     OW13322   9.439   8.967   6.114
 3830SOL    HW113323   9.438   8.991   6.021
 3830SOL    HW213324   9.463   8.875   6.114
 3831SOL     OW13325   9.039   8.943   2.591
 3831SOL    HW113326   8.966   8.915   2.535
 3831SOL    HW213327   9.094   8.865   2.599
 3832SOL     OW13328  11.480   0.084   7.260
 3832SOL    HW113329  11.540   0.155   7.238
 3832SOL    HW213330  11.397   0.109   7.219
 3833SOL     OW13331   5.989  10.819   6.412
 3833SOL    HW113332   5.943  10.735   6.415
 3833SOL    HW213333   6.025  10.824   6.323
 3834SOL     OW13334  11.434   3.379   8.271
 3834SOL    HW113335  11.348   3.342   8.292
 3834SOL    HW213336  11.487   3.362   8.349
 3835SOL     OW13337  11.751   3.874  14.738
 3835SOL    HW113338  11.803   3.799  14.765
 3835SOL    HW213339  11.782   3.894  14.649
 3836SOL     OW13340   2.933   8.007  14.023
 3836SOL    HW113341   2.976   7.921  14.029
 3836SOL    HW213342   2.946   8.046  14.109
 3837SOL     OW13343   4.507  10.076  11.195
 3837SOL    HW113344   4.456  10.114  11.267
 3837SOL    HW213345   4.530  10.151  11.140
 3838SOL     OW13346   0.232   9.817   9.082
 3838SOL    HW113347   0.199   9.778   9.163
 3838SOL    HW213348   0.245   9.909   9.103
 3839SOL     OW13349  10.673   5.600   1.900
 3839SOL    HW113350  10.747   5.543   1.920
 3839SOL    HW213351  10.604   5.540   1.871
 3840SOL     OW13352  13.134  10.184   6.952
 3840SOL    HW113353  13.038  10.181   6.944
 3840SOL    HW213354  13.162  10.096   6.929
 3841SOL     OW13355  11.165  10.090   2.760
 3841SOL    HW113356  11.071  10.099   2.745
 3841SOL    HW213357  11.194  10.177   2.788
 3842SOL     OW13358   7.862   2.167  13.288
 3842SOL    HW113359   7.844   2.244  13.234
 3842SOL    HW213360   7.822   2.094  13.239
 3843SOL     OW13361   5.971   2.634   4.174
 3843SOL    HW113362   5.977   2.558   4.115
 3843SOL    HW213363   5.952   2.596   4.260
 3844SOL     OW13364  11.478   6.171   2.525
 3844SOL    HW113365  11.532   6.217   2.589
 3844SOL    HW213366  11.541   6.140   2.460
 3845SOL     OW13367   3.885   9.810   8.808
 3845SOL    HW113368   3.918   9.869   8.741
 3845SOL    HW213369   3.964   9.778   8.853
 3846SOL     OW13370  13.706  14.395   2.051
 3846SOL    HW113371  13.728  14.488   2.049
 3846SOL    HW213372  13.687  14.376   2.142
 3847SOL     OW13373   1.470   3.314   3.547
 3847SOL    HW113374   1.405   3.248   3.523
 3847SOL    HW213375   1.491   3.359   3.465
 3848SOL     OW13376   1.220   7.782   7.922
 3848SOL    HW113377   1.300   7.783   7.974
 3848SOL    HW213378   1.241   7.729   7.845
 3849SOL     OW13379   6.557  13.008   0.413
 3849SOL    HW113380   6.619  12.942   0.446
 3849SOL    HW213381   6.612  13.077   0.378
 3850SOL     OW13382   0.695   5.673   8.372
 3850SOL    HW113383   0.724   5.727   8.446
 3850SOL    HW213384   0.751   5.702   8.299
 3851SOL     OW13385   9.153  13.331  14.263
 3851SOL    HW113386   9.073  13.383  14.267
 3851SOL    HW213387   9.145  13.269  14.335
 3852SOL     OW13388   7.218  10.179   7.566
 3852SOL    HW113389   7.225  10.084   7.552
 3852SOL    HW213390   7.309  10.208   7.575
 3853SOL     OW13391   0.628  10.072   1.825
 3853SOL    HW113392   0.706  10.097   1.874
 3853SOL    HW213393   0.649   9.984   1.791
 3854SOL     OW13394   7.221   9.027  12.834
 3854SOL    HW113395   7.167   8.953  12.863
 3854SOL    HW213396   7.261   9.060  12.914
 3855SOL     OW13397   2.987   1.601   0.813
 3855SOL    HW113398   3.011   1.677   0.759
 3855SOL    HW213399   2.967   1.638   0.899
 3856SOL     OW13400   9.054  14.051   5.517
 3856SOL    HW113401   9.003  13.972   5.538
 3856SOL    HW213402   8.995  14.124   5.538
 3857SOL     OW13403  12.579   6.520   9.075
 3857SOL    HW113404  12.614   6.494   8.990
 3857SOL    HW213405  12.552   6.611   9.063
 3858SOL     OW13406   9.721   3.675  13.153
 3858SOL    HW113407   9.673   3.594  13.167
 3858SOL    HW213408   9.777   3.658  13.078
 3859SOL     OW13409  10.982   4.244   3.959
 3859SOL    HW113410  11.037   4.254   3.882
 3859SOL    HW213411  11.042   4.217   4.028
 3860SOL     OW13412   5.768   3.727   2.598
 3860SOL    HW113413   5.850   3.751   2.642
 3860SOL    HW213414   5.729   3.661   2.656
 3861SOL     OW13415  10.316   9.761  10.278
 3861SOL    HW113416  10.284   9.851  10.280
 3861SOL    HW213417  10.255   9.715  10.221
 3862SOL     OW13418  10.234   0.562  14.276
 3862SOL    HW113419  10.241   0.488  14.337
 3862SOL    HW213420  10.243   0.640  14.332
 3863SOL     OW13421  10.787  13.331  14.151
 3863SOL    HW113422  10.722  13.262  14.141
 3863SOL    HW213423  10.802  13.336  14.245
 3864SOL     OW13424  13.743   5.343   0.619
 3864SOL    HW113425  13.696   5.282   0.676
 3864SOL    HW213426  13.773   5.413   0.678
 3865SOL     OW13427  10.844   0.575  11.403
 3865SOL    HW113428  10.882   0.584  11.490
 3865SOL    HW213429  10.756   0.610  11.411
 3866SOL     OW13430   0.805   5.194   9.686
 3866SOL    HW113431   0.769   5.254   9.621
 3866SOL    HW213432   0.811   5.110   9.640
 3867SOL     OW13433  14.660   3.928  13.178
 3867SOL    HW113434  14.644   3.839  13.146
 3867SOL    HW213435  14.573   3.969  13.181
 3868SOL     OW13436   2.985   4.404   3.286
 3868SOL    HW113437   3.022   4.318   3.307
 3868SOL    HW213438   2.926   4.424   3.359
 3869SOL     OW13439   6.262  14.807   4.604
 3869SOL    HW113440   6.218  14.731   4.642
 3869SOL    HW213441   6.343  14.815   4.655
 3870SOL     OW13442   9.410   0.460   7.140
 3870SOL    HW113443   9.453   0.393   7.194
 3870SOL    HW213444   9.372   0.412   7.067
 3871SOL     OW13445   7.717   2.686  13.250
 3871SOL    HW113446   7.623   2.668  13.250
 3871SOL    HW213447   7.730   2.749  13.321
 3872SOL     OW13448  12.453   3.465   4.181
 3872SOL    HW113449  12.407   3.529   4.127
 3872SOL    HW213450  12.528   3.438   4.128
 3873SOL     OW13451   6.796  10.297   0.020
 3873SOL    HW113452   6.743  10.354  14.843
 3873SOL    HW213453   6.874  10.349   0.040
 3874SOL     OW13454   8.765  13.112   2.749
 3874SOL    HW113455   8.785  13.140   2.838
 3874SOL    HW213456   8.701  13.176   2.717
 3875SOL     OW13457   9.113   7.582  10.290
 3875SOL    HW113458   9.142   7.547  10.374
 3875SOL    HW213459   9.153   7.669  10.285
 3876SOL     OW13460   6.617  13.260  11.819
 3876SOL    HW113461   6.528  13.224  11.822
 3876SOL    HW213462   6.607  13.352  11.844
 3877SOL     OW13463  11.959   8.316   4.061
 3877SOL    HW113464  11.940   8.381   3.993
 3877SOL    HW213465  12.047   8.286   4.041
 3878SOL     OW13466   0.420  12.912  14.378
 3878SOL    HW113467   0.511  12.923  14.352
 3878SOL    HW213468   0.398  12.993  14.425
 3879SOL     OW13469   4.081   2.131   7.938
 3879SOL    HW113470   4.099   2.070   7.866
 3879SOL    HW213471   4.144   2.202   7.925
 3880SOL     OW13472   6.456   5.583   4.595
 3880SOL    HW113473   6.367   5.592   4.629
 3880SOL    HW213474   6.476   5.669   4.558
 3881SOL     OW13475   9.833   8.675   2.503
 3881SOL    HW113476   9.805   8.588   2.473
 3881SOL    HW213477   9.755   8.713   2.544
 3882SOL     OW13478  10.767  10.713   9.385
 3882SOL    HW113479  10.825  10.661   9.329
 3882SOL    HW213480  10.824  10.777   9.426
 3883SOL     OW13481  13.409   4.063   3.475
 3883SOL    HW113482  13.383   3.988   3.421
 3883SOL    HW213483  13.399   4.033   3.565
 3884SOL     OW13484  14.386  10.629   3.539
 3884SOL    HW113485  14.292  10.647   3.537
 3884SOL    HW213486  14.397  10.566   3.610
 3885SOL     OW13487  10.626   0.203   1.638
 3885SOL    HW113488  10.606   0.114   1.665
 3885SOL    HW213489  10.694   0.194   1.572
 3886SOL     OW13490  14.718   2.066   9.856
 3886SOL    HW113491  14.741   2.073   9.763
 3886SOL    HW213492  14.801   2.078   9.902
 3887SOL     OW13493  13.480   1.907  12.099
 3887SOL    HW113494  13.536   1.832  12.078
 3887SOL    HW213495  13.433   1.880  12.178
 3888SOL     OW13496  12.761   0.503   8.861
 3888SOL    HW113497  12.669   0.513   8.885
 3888SOL    HW213498  12.793   0.592   8.851
 3889SOL     OW13499  13.234   6.563   9.664
 3889SOL    HW113500  13.289   6.512   9.724
 3889SOL    HW213501  13.246   6.520   9.580
 3890SOL     OW13502   0.753   0.808   0.910
 3890SOL    HW113503   0.680   0.849   0.956
 3890SOL    HW213504   0.778   0.735   0.966
 3891SOL     OW13505   1.957   0.485  14.357
 3891SOL    HW113506   2.044   0.452  14.380
 3891SOL    HW213507   1.931   0.540  14.431
 3892SOL     OW13508   3.551  12.372   3.342
 3892SOL    HW113509   3.572  12.446   3.286
 3892SOL    HW213510   3.563  12.405   3.431
 3893SOL     OW13511   9.153   1.431  10.259
 3893SOL    HW113512   9.140   1.454  10.351
 3893SOL    HW213513   9.155   1.515  10.214
 3894SOL     OW13514   9.487   1.878   4.703
 3894SOL    HW113515   9.549   1.823   4.750
 3894SOL    HW213516   9.536   1.909   4.626
 3895SOL     OW13517   0.936   1.889   5.295
 3895SOL    HW113518   0.842   1.886   5.313
 3895SOL    HW213519   0.977   1.860   5.376
 3896SOL     OW13520   0.756  10.897   7.058
 3896SOL    HW113521   0.805  10.847   7.124
 3896SOL    HW213522   0.819  10.961   7.025
 3897SOL     OW13523   3.337   7.382  10.406
 3897SOL    HW113524   3.345   7.347  10.494
 3897SOL    HW213525   3.300   7.469  10.417
 3898SOL     OW13526   1.776  12.247   3.892
 3898SOL    HW113527   1.775  12.341   3.874
 3898SOL    HW213528   1.726  12.238   3.973
 3899SOL     OW13529   7.950   5.244  11.012
 3899SOL    HW113530   7.998   5.164  11.033
 3899SOL    HW213531   7.973   5.305  11.083
 3900SOL     OW13532   0.122   4.378   4.408
 3900SOL    HW113533   0.052   4.360   4.345
 3900SOL    HW213534   0.195   4.409   4.354
 3901SOL     OW13535   4.395  14.259   5.794
 3901SOL    HW113536   4.468  14.316   5.771
 3901SOL    HW213537   4.434  14.189   5.846
 3902SOL     OW13538  13.486   6.825   6.315
 3902SOL    HW113539  13.472   6.790   6.227
 3902SOL    HW213540  13.573   6.864   6.312
 3903SOL     OW13541   3.300   9.608  11.363
 3903SOL    HW113542   3.251   9.528  11.347
 3903SOL    HW213543   3.241   9.678  11.336
 3904SOL     OW13544   7.734   9.126   9.973
 3904SOL    HW113545   7.685   9.081   9.904
 3904SOL    HW213546   7.795   9.183   9.926
 3905SOL     OW13547  10.218  13.715   1.763
 3905SOL    HW113548  10.289  13.739   1.822
 3905SOL    HW213549  10.223  13.619   1.758
 3906SOL     OW13550   1.530  10.287   8.247
 3906SOL    HW113551   1.566  10.212   8.295
 3906SOL    HW213552   1.575  10.285   8.163
 3907SOL     OW13553   9.380   2.910  13.821
 3907SOL    HW113554   9.372   2.835  13.762
 3907SOL    HW213555   9.375   2.872  13.909
 3908SOL     OW13556   4.287   4.265  14.739
 3908SOL    HW113557   4.378   4.289  14.758
 3908SOL    HW213558   4.290   4.231  14.649
 3909SOL     OW13559  13.227   6.649  13.615
 3909SOL    HW113560  13.248   6.570  13.666
 3909SOL    HW213561  13.134   6.664  13.632
 3910SOL     OW13562   0.854   2.961   8.304
 3910SOL    HW113563   0.765   2.984   8.331
 3910SOL    HW213564   0.842   2.885   8.247
 3911SOL     OW13565  10.104   9.201  12.839
 3911SOL    HW113566  10.131   9.138  12.906
 3911SOL    HW213567  10.137   9.285  12.870
 3912SOL     OW13568   3.777   0.401  10.828
 3912SOL    HW113569   3.816   0.486  10.808
 3912SOL    HW213570   3.773   0.356  10.744
 3913SOL     OW13571   2.540   3.968   0.294
 3913SOL    HW113572   2.476   4.026   0.336
 3913SOL    HW213573   2.545   3.999   0.204
 3914SOL     OW13574  10.268  12.743   7.341
 3914SOL    HW113575  10.326  12.748   7.265
 3914SOL    HW213576  10.295  12.662   7.385
 3915SOL     OW13577   0.359   2.870   5.261
 3915SOL    HW113578   0.347   2.782   5.298
 3915SOL    HW213579   0.449   2.894   5.284
 3916SOL     OW13580   8.005  11.324  11.047
 3916SOL    HW113581   7.968  11.300  11.131
 3916SOL    HW213582   7.933  11.311  10.984
 3917SOL     OW13583   0.055   3.541  14.841
 3917SOL    HW113584   0.050   3.613  14.777
 3917SOL    HW213585  14.851   3.545   0.009
 3918SOL     OW13586   6.408   5.313   4.848
 3918SOL    HW113587   6.435   5.400   4.875
 3918SOL    HW213588   6.467   5.254   4.895
 3919SOL     OW13589   9.928   7.972   2.302
 3919SOL    HW113590   9.984   7.982   2.225
 3919SOL    HW213591   9.934   7.879   2.323
 3920SOL     OW13592  10.258   9.353   8.045
 3920SOL    HW113593  10.348   9.350   8.013
 3920SOL    HW213594  10.230   9.444   8.031
 3921SOL     OW13595  10.944   6.322  13.803
 3921SOL    HW113596  10.941   6.310  13.708
 3921SOL    HW213597  10.912   6.239  13.838
 3922SOL     OW13598  10.421   9.141   6.507
 3922SOL    HW113599  10.460   9.057   6.485
 3922SOL    HW213600  10.327   9.128   6.494
 3923SOL     OW13601   2.288   4.102   7.707
 3923SOL    HW113602   2.227   4.160   7.753
 3923SOL    HW213603   2.315   4.038   7.773
 3924SOL     OW13604  13.715  10.138   1.810
 3924SOL    HW113605  13.647  10.071   1.812
 3924SOL    HW213606  13.791  10.094   1.772
 3925SOL     OW13607   2.388   3.193   5.284
 3925SOL    HW113608   2.475   3.168   5.315
 3925SOL    HW213609   2.404   3.237   5.200
 3926SOL     OW13610   9.146  11.006  13.182
 3926SOL    HW113611   9.066  11.058  13.175
 3926SOL    HW213612   9.168  11.009  13.276
 3927SOL     OW13613  14.530  13.742   2.431
 3927SOL    HW113614  14.592  13.730   2.503
 3927SOL    HW213615  14.445  13.748   2.474
 3928SOL     OW13616  13.011  11.329  14.331
 3928SOL    HW113617  13.075  11.387  14.372
 3928SOL    HW213618  12.926  11.370  14.351
 3929SOL     OW13619   1.632  13.759  14.725
 3929SOL    HW113620   1.573  13.733  14.654
 3929SOL    HW213621   1.697  13.688  14.730
 3930SOL     OW13622   9.439  13.487   3.779
 3930SOL    HW113623   9.400  13.445   3.703
 3930SOL    HW213624   9.497  13.421   3.816
 3931SOL     OW13625   9.906   2.983   4.092
 3931SOL    HW113626   9.974   3.050   4.103
 3931SOL    HW213627   9.952   2.900   4.107
 3932SOL     OW13628  13.708   9.955   6.780
 3932SOL    HW113629  13.747   9.975   6.695
 3932SOL    HW213630  13.640   9.891   6.760
 3933SOL     OW13631   3.507   2.805   7.303
 3933SOL    HW113632   3.430   2.753   7.284
 3933SOL    HW213633   3.520   2.796   7.397
 3934SOL     OW13634   7.714  13.514   3.821
 3934SOL    HW113635   7.791  13.503   3.877
 3934SOL    HW213636   7.640  13.486   3.876
 3935SOL     OW13637   4.945   8.557   7.187
 3935SOL    HW113638   4.992   8.485   7.144
 3935SOL    HW213639   4.854   8.528   7.192
 3936SOL     OW13640  12.349  12.486   3.947
 3936SOL    HW113641  12.436  12.492   3.987
 3936SOL    HW213642  12.328  12.393   3.948
 3937SOL     OW13643   1.334   8.191   2.846
 3937SOL    HW113644   1.274   8.163   2.777
 3937SOL    HW213645   1.278   8.228   2.913
 3938SOL     OW13646   4.521   0.854  11.094
 3938SOL    HW113647   4.447   0.905  11.062
 3938SOL    HW213648   4.483   0.772  11.125
 3939SOL     OW13649   5.499  10.154  14.162
 3939SOL    HW113650   5.435  10.210  14.206
 3939SOL    HW213651   5.501  10.187  14.072
 3940SOL     OW13652   8.911   5.317  12.088
 3940SOL    HW113653   9.000   5.306  12.123
 3940SOL    HW213654   8.867   5.375  12.151
 3941SOL     OW13655  14.877   1.841   8.179
 3941SOL    HW113656  14.814   1.787   8.132
 3941SOL    HW213657  14.824   1.903   8.228
 3942SOL     OW13658   6.076   7.940   6.819
 3942SOL    HW113659   5.992   7.929   6.862
 3942SOL    HW213660   6.136   7.965   6.889
 3943SOL     OW13661   5.734   2.255  13.829
 3943SOL    HW113662   5.655   2.301  13.857
 3943SOL    HW213663   5.802   2.284  13.890
 3944SOL     OW13664   8.928   9.293  14.461
 3944SOL    HW113665   8.845   9.279  14.414
 3944SOL    HW213666   8.915   9.249  14.545
 3945SOL     OW13667   4.565   4.188  14.347
 3945SOL    HW113668   4.568   4.128  14.273
 3945SOL    HW213669   4.560   4.275  14.308
 3946SOL     OW13670   9.064   6.336  14.108
 3946SOL    HW113671   9.060   6.392  14.186
 3946SOL    HW213672   9.061   6.247  14.142
 3947SOL     OW13673   4.001   7.467   7.384
 3947SOL    HW113674   4.033   7.386   7.345
 3947SOL    HW213675   3.982   7.524   7.310
 3948SOL     OW13676  13.245   1.352   9.028
 3948SOL    HW113677  13.202   1.273   9.060
 3948SOL    HW213678  13.184   1.388   8.963
 3949SOL     OW13679   8.243   1.864   0.402
 3949SOL    HW113680   8.287   1.947   0.422
 3949SOL    HW213681   8.156   1.890   0.372
 3950SOL     OW13682   0.858   0.610   4.383
 3950SOL    HW113683   0.793   0.547   4.353
 3950SOL    HW213684   0.930   0.556   4.416
 3951SOL     OW13685  13.430   7.193   7.410
 3951SOL    HW113686  13.363   7.244   7.363
 3951SOL    HW213687  13.445   7.243   7.490
 3952SOL     OW13688   2.710   5.893   5.715
 3952SOL    HW113689   2.752   5.969   5.674
 3952SOL    HW213690   2.618   5.900   5.689
 3953SOL     OW13691  13.285   8.077   9.181
 3953SOL    HW113692  13.366   8.123   9.162
 3953SOL    HW213693  13.232   8.140   9.230
 3954SOL     OW13694   6.434   5.845   9.247
 3954SOL    HW113695   6.433   5.750   9.263
 3954SOL    HW213696   6.494   5.857   9.174
 3955SOL     OW13697   0.657   2.451  13.674
 3955SOL    HW113698   0.590   2.515  13.699
 3955SOL    HW213699   0.615   2.366  13.690
 3956SOL     OW13700   8.870  13.322   3.983
 3956SOL    HW113701   8.838  13.412   3.981
 3956SOL    HW213702   8.878  13.297   3.891
 3957SOL     OW13703   6.623   4.892  13.062
 3957SOL    HW113704   6.632   4.880  13.156
 3957SOL    HW213705   6.548   4.838  13.037
 3958SOL     OW13706   0.924  10.475   7.568
 3958SOL    HW113707   0.938  10.567   7.547
 3958SOL    HW213708   1.002  10.430   7.536
 3959SOL     OW13709   5.217   5.621   7.208
 3959SOL    HW113710   5.191   5.578   7.289
 3959SOL    HW213711   5.214   5.552   7.142
 3960SOL     OW13712   5.125   5.257   4.808
 3960SOL    HW113713   5.056   5.251   4.742
 3960SOL    HW213714   5.114   5.179   4.861
 3961SOL     OW13715   2.552   6.569   1.695
 3961SOL    HW113716   2.480   6.608   1.745
 3961SOL    HW213717   2.624   6.562   1.759
 3962SOL     OW13718   8.324   8.448  10.041
 3962SOL    HW113719   8.393   8.512  10.029
 3962SOL    HW213720   8.368   8.363  10.036
 3963SOL     OW13721   3.599   1.595   8.846
 3963SOL    HW113722   3.596   1.648   8.925
 3963SOL    HW213723   3.659   1.523   8.867
 3964SOL     OW13724   0.583   4.930  14.431
 3964SOL    HW113725   0.628   4.851  14.402
 3964SOL    HW213726   0.500   4.900  14.467
 3965SOL     OW13727   0.665  13.936   7.799
 3965SOL    HW113728   0.740  13.886   7.830
 3965SOL    HW213729   0.609  13.872   7.756
 3966SOL     OW13730  14.217   1.692  10.192
 3966SOL    HW113731  14.140   1.684  10.136
 3966SOL    HW213732  14.186   1.741  10.269
 3967SOL     OW13733   0.282   1.546   6.789
 3967SOL    HW113734   0.259   1.580   6.876
 3967SOL    HW213735   0.364   1.589   6.767
 3968SOL     OW13736   4.133  12.056   7.217
 3968SOL    HW113737   4.183  12.103   7.284
 3968SOL    HW213738   4.068  12.006   7.266
 3969SOL     OW13739   6.930  11.024  13.777
 3969SOL    HW113740   7.022  11.038  13.796
 3969SOL    HW213741   6.928  10.991  13.687
 3970SOL     OW13742   8.306  14.301   3.692
 3970SOL    HW113743   8.227  14.261   3.728
 3970SOL    HW213744   8.378  14.257   3.738
 3971SOL     OW13745   2.899   3.811   1.773
 3971SOL    HW113746   2.846   3.770   1.842
 3971SOL    HW213747   2.897   3.904   1.792
 3972SOL     OW13748  10.850   6.440   0.769
 3972SOL    HW113749  10.850   6.364   0.711
 3972SOL    HW213750  10.758   6.465   0.775
 3973SOL     OW13751   2.995  13.947   9.663
 3973SOL    HW113752   2.967  14.037   9.651
 3973SOL    HW213753   3.079  13.942   9.617
 3974SOL     OW13754  11.573   6.055   8.816
 3974SOL    HW113755  11.662   6.028   8.838
 3974SOL    HW213756  11.572   6.149   8.834
 3975SOL     OW13757  13.639  14.313   8.987
 3975SOL    HW113758  13.724  14.355   8.975
 3975SOL    HW213759  13.581  14.360   8.928
 3976SOL     OW13760   4.310   2.114  14.813
 3976SOL    HW113761   4.393   2.141  14.774
 3976SOL    HW213762   4.332   2.096   0.026
 3977SOL     OW13763   6.451  11.817   6.336
 3977SOL    HW113764   6.363  11.780   6.336
 3977SOL    HW213765   6.497  11.768   6.404
 3978SOL     OW13766  11.890  14.493   6.496
 3978SOL    HW113767  11.867  14.531   6.411
 3978SOL    HW213768  11.956  14.552   6.532
 3979SOL     OW13769  14.594   3.379   6.519
 3979SOL    HW113770  14.631   3.461   6.550
 3979SOL    HW213771  14.501   3.397   6.506
 3980SOL     OW13772  11.765  11.792   1.682
 3980SOL    HW113773  11.829  11.792   1.611
 3980SOL    HW213774  11.797  11.725   1.743
 3981SOL     OW13775   1.179   2.482   9.737
 3981SOL    HW113776   1.217   2.570   9.742
 3981SOL    HW213777   1.124   2.484   9.659
 3982SOL     OW13778   3.065   5.968  12.093
 3982SOL    HW113779   3.118   6.024  12.036
 3982SOL    HW213780   3.119   5.890  12.106
 3983SOL     OW13781   2.937   0.948   7.502
 3983SOL    HW113782   2.958   0.857   7.521
 3983SOL    HW213783   2.861   0.968   7.558
 3984SOL     OW13784  11.240   2.321   1.497
 3984SOL    HW113785  11.176   2.390   1.483
 3984SOL    HW213786  11.242   2.273   1.414
 3985SOL     OW13787  11.488   9.512   1.428
 3985SOL    HW113788  11.427   9.497   1.500
 3985SOL    HW213789  11.571   9.477   1.459
 3986SOL     OW13790  10.085  14.341  11.328
 3986SOL    HW113791  10.014  14.279  11.344
 3986SOL    HW213792  10.091  14.393  11.409
 3987SOL     OW13793   0.447   8.285  11.850
 3987SOL    HW113794   0.385   8.238  11.794
 3987SOL    HW213795   0.462   8.226  11.924
 3988SOL     OW13796   3.740   3.424  10.914
 3988SOL    HW113797   3.808   3.487  10.941
 3988SOL    HW213798   3.789   3.346  10.890
 3989SOL     OW13799   9.326  14.872   8.577
 3989SOL    HW113800   9.296   0.012   8.666
 3989SOL    HW213801   9.419  14.850   8.587
 3990SOL     OW13802  11.906   1.836  13.374
 3990SOL    HW113803  11.912   1.803  13.464
 3990SOL    HW213804  11.995   1.826  13.339
 3991SOL     OW13805   4.811  13.752  12.526
 3991SOL    HW113806   4.741  13.702  12.569
 3991SOL    HW213807   4.886  13.693  12.525
 3992SOL     OW13808   0.811   4.005   2.062
 3992SOL    HW113809   0.790   3.929   2.116
 3992SOL    HW213810   0.762   4.077   2.101
 3993SOL     OW13811   3.333  10.884   2.043
 3993SOL    HW113812   3.373  10.970   2.057
 3993SOL    HW213813   3.344  10.868   1.949
 3994SOL     OW13814  11.780  11.330  11.741
 3994SOL    HW113815  11.861  11.382  11.741
 3994SOL    HW213816  11.718  11.382  11.791
 3995SOL     OW13817   2.634  11.103  13.372
 3995SOL    HW113818   2.666  11.013  13.379
 3995SOL    HW213819   2.538  11.094  13.373
 3996SOL     OW13820   2.122  11.433  13.953
 3996SOL    HW113821   2.073  11.448  14.034
 3996SOL    HW213822   2.062  11.460  13.884
 3997SOL     OW13823   7.266   1.435   9.203
 3997SOL    HW113824   7.354   1.452   9.238
 3997SOL    HW213825   7.208   1.491   9.254
 3998SOL     OW13826   4.295   0.370   2.531
 3998SOL    HW113827   4.237   0.301   2.500
 3998SOL    HW213828   4.345   0.330   2.601
 3999SOL     OW13829   7.262   7.634   2.001
 3999SOL    HW113830   7.227   7.603   1.918
 3999SOL    HW213831   7.304   7.556   2.040
 4000SOL     OW13832   2.473  11.076   6.664
 4000SOL    HW113833   2.555  11.037   6.632
 4000SOL    HW213834   2.465  11.158   6.615
 4001SOL     OW13835   3.278   9.909   2.239
 4001SOL    HW113836   3.205   9.934   2.181
 4001SOL    HW213837   3.311   9.828   2.201
 4002SOL     OW13838   9.932  11.674   6.190
 4002SOL    HW113839   9.846  11.637   6.169
 4002SOL    HW213840   9.980  11.673   6.107
 4003SOL     OW13841   7.640   2.330   1.376
 4003SOL    HW113842   7.629   2.407   1.432
 4003SOL    HW213843   7.633   2.255   1.435
 4004SOL     OW13844   8.913   6.584   1.584
 4004SOL    HW113845   8.932   6.514   1.521
 4004SOL    HW213846   8.843   6.548   1.639
 4005SOL     OW13847   8.202   6.114   5.361
 4005SOL    HW113848   8.115   6.084   5.389
 4005SOL    HW213849   8.187   6.156   5.277
 4006SOL     OW13850   0.239   3.421   9.502
 4006SOL    HW113851   0.170   3.448   9.563
 4006SOL    HW213852   0.268   3.336   9.533
 4007SOL     OW13853   9.868  13.817  11.204
 4007SOL    HW113854   9.807  13.807  11.277
 4007SOL    HW213855   9.905  13.729  11.192
 4008SOL     OW13856  13.535   4.705  11.824
 4008SOL    HW113857  13.571   4.708  11.736
 4008SOL    HW213858  13.493   4.619  11.830
 4009SOL     OW13859  13.729  12.503   7.858
 4009SOL    HW113860  13.709  12.499   7.951
 4009SOL    HW213861  13.761  12.415   7.837
 4010SOL     OW13862  14.547   3.087  12.335
 4010SOL    HW113863  14.617   3.068  12.272
 4010SOL    HW213864  14.531   3.181  12.324
 4011SOL     OW13865   7.525  12.405   3.496
 4011SOL    HW113866   7.467  12.411   3.572
 4011SOL    HW213867   7.474  12.359   3.429
 4012SOL     OW13868   1.088   7.004   9.855
 4012SOL    HW113869   1.181   6.986   9.866
 4012SOL    HW213870   1.044   6.947   9.917
 4013SOL     OW13871   2.382   1.897   0.044
 4013SOL    HW113872   2.441   1.860   0.109
 4013SOL    HW213873   2.314   1.940   0.095
 4014SOL     OW13874   9.177   9.057   3.487
 4014SOL    HW113875   9.231   9.132   3.511
 4014SOL    HW213876   9.093   9.095   3.459
 4015SOL     OW13877  14.738  10.807  12.429
 4015SOL    HW113878  14.801  10.792  12.499
 4015SOL    HW213879  14.769  10.887  12.385
 4016SOL     OW13880   4.548   1.595   7.935
 4016SOL    HW113881   4.555   1.654   8.011
 4016SOL    HW213882   4.496   1.645   7.871
 4017SOL     OW13883   1.623   2.000  13.190
 4017SOL    HW113884   1.633   1.999  13.286
 4017SOL    HW213885   1.528   2.007  13.177
 4018SOL     OW13886   6.103   6.057  10.992
 4018SOL    HW113887   6.191   6.088  11.014
 4018SOL    HW213888   6.047   6.093  11.061
 4019SOL     OW13889   5.953   3.338   0.504
 4019SOL    HW113890   5.979   3.374   0.588
 4019SOL    HW213891   5.857   3.337   0.507
 4020SOL     OW13892  14.228  10.408   3.312
 4020SOL    HW113893  14.182  10.349   3.372
 4020SOL    HW213894  14.316  10.416   3.349
 4021SOL     OW13895   3.063  10.659   3.173
 4021SOL    HW113896   3.070  10.730   3.109
 4021SOL    HW213897   3.045  10.581   3.122
 4022SOL     OW13898  12.756   6.034   1.803
 4022SOL    HW113899  12.821   6.086   1.756
 4022SOL    HW213900  12.735   6.086   1.880
 4023SOL     OW13901  11.716   1.658   9.862
 4023SOL    HW113902  11.762   1.592   9.913
 4023SOL    HW213903  11.706   1.732   9.922
 4024SOL     OW13904   1.355   8.499   9.043
 4024SOL    HW113905   1.293   8.439   9.085
 4024SOL    HW213906   1.414   8.527   9.113
 4025SOL     OW13907  14.455  12.933  12.193
 4025SOL    HW113908  14.545  12.956  12.170
 4025SOL    HW213909  14.405  13.014  12.183
 4026SOL     OW13910   2.479  10.818   1.206
 4026SOL    HW113911   2.518  10.880   1.267
 4026SOL    HW213912   2.394  10.855   1.184
 4027SOL     OW13913  11.335   2.058   8.790
 4027SOL    HW113914  11.372   2.055   8.702
 4027SOL    HW213915  11.253   2.105   8.780
 4028SOL     OW13916  11.649   8.319   7.957
 4028SOL    HW113917  11.560   8.351   7.944
 4028SOL    HW213918  11.693   8.389   8.005
 4029SOL     OW13919   4.557  14.256   2.168
 4029SOL    HW113920   4.542  14.290   2.079
 4029SOL    HW213921   4.630  14.196   2.159
 4030SOL     OW13922   1.531  12.314  12.102
 4030SOL    HW113923   1.555  12.344  12.015
 4030SOL    HW213924   1.600  12.347  12.159
 4031SOL     OW13925  14.654   7.661  11.019
 4031SOL    HW113926  14.693   7.749  11.011
 4031SOL    HW213927  14.575   7.666  10.966
 4032SOL     OW13928   2.109   9.128   6.059
 4032SOL    HW113929   2.124   9.166   5.972
 4032SOL    HW213930   2.088   9.036   6.042
 4033SOL     OW13931   1.417  10.691   9.768
 4033SOL    HW113932   1.510  10.713   9.757
 4033SOL    HW213933   1.381  10.763   9.819
 4034SOL     OW13934   9.242   0.802   6.285
 4034SOL    HW113935   9.205   0.821   6.372
 4034SOL    HW213936   9.285   0.717   6.295
 4035SOL     OW13937   4.638   6.605  12.893
 4035SOL    HW113938   4.676   6.544  12.829
 4035SOL    HW213939   4.544   6.585  12.891
 4036SOL     OW13940  10.586  12.284  12.820
 4036SOL    HW113941  10.659  12.341  12.796
 4036SOL    HW213942  10.627  12.202  12.848
 4037SOL     OW13943   5.756   6.957   8.295
 4037SOL    HW113944   5.817   7.031   8.285
 4037SOL    HW213945   5.727   6.937   8.206
 4038SOL     OW13946   6.149   7.091  11.905
 4038SOL    HW113947   6.164   7.147  11.829
 4038SOL    HW213948   6.226   7.104  11.960
 4039SOL     OW13949  10.590  10.467   6.310
 4039SOL    HW113950  10.666  10.472   6.252
 4039SOL    HW213951  10.609  10.396   6.370
 4040SOL     OW13952   6.747   0.268   4.957
 4040SOL    HW113953   6.803   0.190   4.966
 4040SOL    HW213954   6.673   0.238   4.905
 4041SOL     OW13955   8.014  12.864  14.201
 4041SOL    HW113956   7.997  12.919  14.125
 4041SOL    HW213957   8.097  12.821  14.182
 4042SOL     OW13958   7.733   4.979  12.355
 4042SOL    HW113959   7.760   4.890  12.335
 4042SOL    HW213960   7.677   4.970  12.432
 4043SOL     OW13961  11.503   0.961  11.096
 4043SOL    HW113962  11.578   0.967  11.037
 4043SOL    HW213963  11.528   1.013  11.172
 4044SOL     OW13964  10.524  10.191   7.064
 4044SOL    HW113965  10.594  10.255   7.076
 4044SOL    HW213966  10.563  10.108   7.090
 4045SOL     OW13967  10.489   0.331   7.488
 4045SOL    HW113968  10.459   0.292   7.570
 4045SOL    HW213969  10.574   0.291   7.471
 4046SOL     OW13970   6.868   3.734   6.020
 4046SOL    HW113971   6.892   3.760   5.931
 4046SOL    HW213972   6.944   3.685   6.052
 4047SOL     OW13973   0.443  10.380  10.595
 4047SOL    HW113974   0.494  10.332  10.529
 4047SOL    HW213975   0.468  10.339  10.678
 4048SOL     OW13976  14.647   3.097  10.947
 4048SOL    HW113977  14.725   3.047  10.972
 4048SOL    HW213978  14.585   3.030  10.916
 4049SOL     OW13979  10.447   1.465   0.023
 4049SOL    HW113980  10.394   1.456   0.102
 4049SOL    HW213981  10.390   1.511  14.840
 4050SOL     OW13982   7.934   2.020  13.700
 4050SOL    HW113983   7.856   2.003  13.648
 4050SOL    HW213984   7.988   2.076  13.645
 4051SOL     OW13985   6.450  10.175  12.147
 4051SOL    HW113986   6.375  10.135  12.191
 4051SOL    HW213987   6.480  10.243  12.207
 4052SOL     OW13988   2.867   5.625   8.542
 4052SOL    HW113989   2.783   5.664   8.567
 4052SOL    HW213990   2.869   5.633   8.446
 4053SOL     OW13991   1.538   1.119  12.905
 4053SOL    HW113992   1.508   1.028  12.908
 4053SOL    HW213993   1.499   1.155  12.825
 4054SOL     OW13994   2.734  10.391  12.527
 4054SOL    HW113995   2.693  10.477  12.517
 4054SOL    HW213996   2.759  10.387  12.620
 4055SOL     OW13997  12.182  13.968   2.963
 4055SOL    HW113998  12.160  13.913   2.888
 4055SOL    HW213999  12.218  13.907   3.028
 4056SOL     OW14000   9.320   7.925   4.193
 4056SOL    HW114001   9.228   7.903   4.178
 4056SOL    HW214002   9.318   8.008   4.240
 4057SOL     OW14003   9.584   1.930   6.190
 4057SOL    HW114004   9.527   1.910   6.264
 4057SOL    HW214005   9.559   2.018   6.162
 4058SOL     OW14006   2.603   2.740   2.434
 4058SOL    HW114007   2.543   2.678   2.476
 4058SOL    HW214008   2.662   2.767   2.504
 4059SOL     OW14009  13.637   5.729  14.726
 4059SOL    HW114010  13.544   5.723  14.750
 4059SOL    HW214011  13.669   5.639  14.733
 4060SOL     OW14012  10.423   0.938  11.471
 4060SOL    HW114013  10.506   0.984  11.457
 4060SOL    HW214014  10.375   0.993  11.532
 4061SOL     OW14015   3.045   2.062  14.738
 4061SOL    HW114016   2.953   2.084  14.753
 4061SOL    HW214017   3.043   1.997  14.668
 4062SOL     OW14018  10.871   8.931  14.331
 4062SOL    HW114019  10.787   8.909  14.291
 4062SOL    HW214020  10.856   8.920  14.425
 4063SOL     OW14021  11.124   8.795   0.207
 4063SOL    HW114022  11.112   8.748   0.289
 4063SOL    HW214023  11.064   8.752   0.146
 4064SOL     OW14024   2.659  10.119   4.670
 4064SOL    HW114025   2.683  10.194   4.724
 4064SOL    HW214026   2.584  10.149   4.619
 4065SOL     OW14027   2.429  12.318  13.985
 4065SOL    HW114028   2.494  12.385  14.003
 4065SOL    HW214029   2.358  12.364  13.941
 4066SOL     OW14030   4.290   0.272   9.042
 4066SOL    HW114031   4.303   0.239   9.131
 4066SOL    HW214032   4.343   0.351   9.038
 4067SOL     OW14033   7.149   5.040   0.344
 4067SOL    HW114034   7.134   5.131   0.369
 4067SOL    HW214035   7.150   4.992   0.427
 4068SOL     OW14036  10.851   6.693  13.385
 4068SOL    HW114037  10.842   6.706  13.480
 4068SOL    HW214038  10.767   6.722  13.349
 4069SOL     OW14039  12.498  10.733   7.261
 4069SOL    HW114040  12.504  10.791   7.185
 4069SOL    HW214041  12.456  10.786   7.329
 4070SOL     OW14042   0.726   2.117  14.183
 4070SOL    HW114043   0.735   2.180  14.111
 4070SOL    HW214044   0.759   2.164  14.260
 4071SOL     OW14045   1.406   8.707   5.064
 4071SOL    HW114046   1.469   8.776   5.046
 4071SOL    HW214047   1.452   8.646   5.122
 4072SOL     OW14048   2.298   9.765   9.526
 4072SOL    HW114049   2.293   9.670   9.519
 4072SOL    HW214050   2.235   9.788   9.593
 4073SOL     OW14051   8.579   5.082  14.597
 4073SOL    HW114052   8.511   5.026  14.560
 4073SOL    HW214053   8.597   5.045  14.683
 4074SOL     OW14054   4.165   8.425   1.908
 4074SOL    HW114055   4.130   8.354   1.854
 4074SOL    HW214056   4.101   8.496   1.898
 4075SOL     OW14057   7.442   1.294   2.246
 4075SOL    HW114058   7.417   1.259   2.160
 4075SOL    HW214059   7.537   1.305   2.241
 4076SOL     OW14060   3.870   2.967   6.164
 4076SOL    HW114061   3.822   2.911   6.103
 4076SOL    HW214062   3.956   2.980   6.123
 4077SOL     OW14063   2.651   0.951   8.101
 4077SOL    HW114064   2.590   0.994   8.040
 4077SOL    HW214065   2.606   0.952   8.185
 4078SOL     OW14066   9.797   5.460   7.973
 4078SOL    HW114067   9.860   5.388   7.964
 4078SOL    HW214068   9.756   5.467   7.886
 4079SOL     OW14069   7.905   2.123   4.762
 4079SOL    HW114070   7.894   2.218   4.764
 4079SOL    HW214071   7.921   2.098   4.852
 4080SOL     OW14072   2.357   6.120  13.042
 4080SOL    HW114073   2.288   6.183  13.061
 4080SOL    HW214074   2.391   6.146  12.956
 4081SOL     OW14075   4.823  10.070   4.204
 4081SOL    HW114076   4.859  10.101   4.287
 4081SOL    HW214077   4.853   9.980   4.196
 4082SOL     OW14078   0.476   1.405   4.531
 4082SOL    HW114079   0.482   1.347   4.456
 4082SOL    HW214080   0.563   1.405   4.570
 4083SOL     OW14081  14.799   6.681   9.899
 4083SOL    HW114082  14.787   6.774   9.883
 4083SOL    HW214083  14.851   6.677   9.980
 4084SOL     OW14084   3.808  11.312  14.412
 4084SOL    HW114085   3.748  11.321  14.338
 4084SOL    HW214086   3.836  11.401  14.432
 4085SOL     OW14087  10.189   8.561  13.141
 4085SOL    HW114088  10.134   8.604  13.076
 4085SOL    HW214089  10.128   8.527  13.207
 4086SOL     OW14090   3.207   0.846   0.525
 4086SOL    HW114091   3.123   0.806   0.546
 4086SOL    HW214092   3.192   0.940   0.535
 4087SOL     OW14093  11.121   8.328   9.177
 4087SOL    HW114094  11.092   8.418   9.193
 4087SOL    HW214095  11.128   8.289   9.264
 4088SOL     OW14096   6.062   5.681   0.606
 4088SOL    HW114097   6.101   5.713   0.524
 4088SOL    HW214098   5.972   5.713   0.603
 4089SOL     OW14099   0.797   7.301   7.954
 4089SOL    HW114100   0.735   7.351   8.007
 4089SOL    HW214101   0.776   7.324   7.864
 4090SOL     OW14102   7.834   1.366   8.385
 4090SOL    HW114103   7.769   1.400   8.447
 4090SOL    HW214104   7.898   1.320   8.440
 4091SOL     OW14105   4.480   4.129   7.094
 4091SOL    HW114106   4.397   4.091   7.065
 4091SOL    HW214107   4.497   4.089   7.179
 4092SOL     OW14108   6.812   6.643  13.976
 4092SOL    HW114109   6.743   6.706  13.956
 4092SOL    HW214110   6.769   6.558  13.976
 4093SOL     OW14111  11.287   9.546   5.832
 4093SOL    HW114112  11.323   9.496   5.905
 4093SOL    HW214113  11.357   9.547   5.767
 4094SOL     OW14114   8.730   2.433  14.258
 4094SOL    HW114115   8.764   2.345  14.247
 4094SOL    HW214116   8.643   2.421  14.295
 4095SOL     OW14117  12.007   3.063  13.774
 4095SOL    HW114118  11.995   3.107  13.859
 4095SOL    HW214119  11.957   3.116  13.712
 4096SOL     OW14120   7.290  14.785   8.722
 4096SOL    HW114121   7.210  14.824   8.757
 4096SOL    HW214122   7.310  14.838   8.644
 4097SOL     OW14123  14.530   5.089   0.487
 4097SOL    HW114124  14.526   5.142   0.567
 4097SOL    HW214125  14.457   5.028   0.495
 4098SOL     OW14126  14.205   4.103  11.087
 4098SOL    HW114127  14.256   4.183  11.072
 4098SOL    HW214128  14.123   4.134  11.126
 4099SOL     OW14129  11.504   7.980   5.666
 4099SOL    HW114130  11.463   7.897   5.691
 4099SOL    HW214131  11.552   8.008   5.744
 4100SOL     OW14132  11.078   4.162  10.404
 4100SOL    HW114133  11.080   4.145  10.498
 4100SOL    HW214134  11.028   4.089  10.368
 4101SOL     OW14135  10.327   1.457   4.010
 4101SOL    HW114136  10.236   1.465   4.036
 4101SOL    HW214137  10.324   1.442   3.916
 4102SOL     OW14138  13.627  10.926   6.100
 4102SOL    HW114139  13.568  11.000   6.087
 4102SOL    HW214140  13.708  10.951   6.056
 4103SOL     OW14141   9.810   7.288   3.158
 4103SOL    HW114142   9.899   7.268   3.128
 4103SOL    HW214143   9.820   7.367   3.211
 4104SOL     OW14144   9.486   6.064  13.465
 4104SOL    HW114145   9.499   5.979  13.424
 4104SOL    HW214146   9.392   6.067  13.483
 4105SOL     OW14147   3.491  14.477   0.071
 4105SOL    HW114148   3.488  14.572   0.081
 4105SOL    HW214149   3.402  14.453   0.046
 4106SOL     OW14150   2.961   1.621   2.274
 4106SOL    HW114151   3.039   1.579   2.310
 4106SOL    HW214152   2.910   1.648   2.350
 4107SOL     OW14153   5.065  14.840  13.900
 4107SOL    HW114154   4.992  14.855  13.960
 4107SOL    HW214155   5.117   0.041  13.905
 4108SOL     OW14156  10.706  12.388   2.385
 4108SOL    HW114157  10.635  12.434   2.430
 4108SOL    HW214158  10.766  12.362   2.455
 4109SOL     OW14159  14.340   2.210   3.973
 4109SOL    HW114160  14.369   2.301   3.980
 4109SOL    HW214161  14.270   2.202   4.037
 4110SOL     OW14162   0.689   5.877   9.339
 4110SOL    HW114163   0.674   5.936   9.266
 4110SOL    HW214164   0.758   5.819   9.310
 4111SOL     OW14165   3.936  11.032   5.500
 4111SOL    HW114166   3.895  10.981   5.429
 4111SOL    HW214167   3.894  11.000   5.580
 4112SOL     OW14168   6.685   6.881   5.399
 4112SOL    HW114169   6.761   6.934   5.373
 4112SOL    HW214170   6.715   6.834   5.477
 4113SOL     OW14171   4.257   7.478   9.276
 4113SOL    HW114172   4.340   7.456   9.320
 4113SOL    HW214173   4.264   7.571   9.258
 4114SOL     OW14174   8.623  12.713  11.240
 4114SOL    HW114175   8.663  12.739  11.158
 4114SOL    HW214176   8.621  12.793  11.293
 4115SOL     OW14177   2.265  11.096   8.586
 4115SOL    HW114178   2.245  11.190   8.581
 4115SOL    HW214179   2.359  11.091   8.567
 4116SOL     OW14180   0.932  13.250  12.413
 4116SOL    HW114181   0.857  13.261  12.472
 4116SOL    HW214182   0.943  13.336  12.371
 4117SOL     OW14183   1.403   4.231   1.341
 4117SOL    HW114184   1.309   4.240   1.356
 4117SOL    HW214185   1.418   4.278   1.259
 4118SOL     OW14186   4.298  10.134  12.432
 4118SOL    HW114187   4.343  10.168  12.510
 4118SOL    HW214188   4.263  10.211  12.389
 4119SOL     OW14189  13.478  12.777   1.505
 4119SOL    HW114190  13.533  12.832   1.449
 4119SOL    HW214191  13.466  12.829   1.585
 4120SOL     OW14192   8.788  12.479  13.365
 4120SOL    HW114193   8.872  12.523  13.358
 4120SOL    HW214194   8.779  12.431  13.282
 4121SOL     OW14195   5.227  12.673   1.320
 4121SOL    HW114196   5.190  12.687   1.232
 4121SOL    HW214197   5.154  12.691   1.380
 4122SOL     OW14198   5.401   5.916  12.470
 4122SOL    HW114199   5.344   5.964  12.530
 4122SOL    HW214200   5.469   5.980  12.446
 4123SOL     OW14201   9.794  10.785  10.484
 4123SOL    HW114202   9.787  10.854  10.418
 4123SOL    HW214203   9.782  10.704  10.435
 4124SOL     OW14204  13.513  10.005   7.169
 4124SOL    HW114205  13.538   9.915   7.189
 4124SOL    HW214206  13.576  10.034   7.103
 4125SOL     OW14207  10.367   8.786  12.749
 4125SOL    HW114208  10.400   8.748  12.668
 4125SOL    HW214209  10.419   8.745  12.818
 4126SOL     OW14210  12.922   4.622   1.331
 4126SOL    HW114211  12.960   4.650   1.414
 4126SOL    HW214212  12.924   4.701   1.276
 4127SOL     OW14213  12.164   7.997   5.605
 4127SOL    HW114214  12.143   7.947   5.527
 4127SOL    HW214215  12.126   8.084   5.590
 4128SOL     OW14216   2.551   4.722   0.040
 4128SOL    HW114217   2.480   4.660   0.056
 4128SOL    HW214218   2.598   4.726   0.123
 4129SOL     OW14219   1.258  14.422  13.316
 4129SOL    HW114220   1.331  14.473  13.282
 4129SOL    HW214221   1.271  14.424  13.411
 4130SOL     OW14222   8.826  14.592   2.353
 4130SOL    HW114223   8.803  14.649   2.427
 4130SOL    HW214224   8.831  14.504   2.391
 4131SOL     OW14225   2.110   6.255  13.394
 4131SOL    HW114226   2.171   6.198  13.441
 4131SOL    HW214227   2.144   6.257  13.304
 4132SOL     OW14228   0.360  10.846   6.732
 4132SOL    HW114229   0.359  10.879   6.822
 4132SOL    HW214230   0.428  10.898   6.688
 4133SOL     OW14231   1.717   1.212   8.035
 4133SOL    HW114232   1.641   1.187   7.983
 4133SOL    HW214233   1.764   1.275   7.980
 4134SOL     OW14234   0.329  12.560   7.674
 4134SOL    HW114235   0.235  12.569   7.685
 4134SOL    HW214236   0.362  12.545   7.763
 4135SOL     OW14237  13.216   6.785   0.857
 4135SOL    HW114238  13.122   6.770   0.865
 4135SOL    HW214239  13.249   6.778   0.946
 4136SOL     OW14240   1.847   7.111   5.164
 4136SOL    HW114241   1.752   7.123   5.174
 4136SOL    HW214242   1.884   7.190   5.203
 4137SOL     OW14243  11.250  12.970  11.713
 4137SOL    HW114244  11.343  12.964  11.737
 4137SOL    HW214245  11.220  12.879  11.712
 4138SOL     OW14246  14.354   7.931   3.306
 4138SOL    HW114247  14.426   7.869   3.317
 4138SOL    HW214248  14.351   7.979   3.389
 4139SOL     OW14249   2.900   3.787  13.699
 4139SOL    HW114250   2.833   3.829  13.752
 4139SOL    HW214251   2.980   3.791  13.752
 4140SOL     OW14252   0.998  11.570  10.217
 4140SOL    HW114253   0.911  11.609  10.219
 4140SOL    HW214254   1.052  11.629  10.269
 4141SOL     OW14255   1.500   1.543   0.227
 4141SOL    HW114256   1.580   1.587   0.197
 4141SOL    HW214257   1.486   1.473   0.163
 4142SOL     OW14258  12.843  10.125   1.484
 4142SOL    HW114259  12.825  10.061   1.552
 4142SOL    HW214260  12.789  10.098   1.410
 4143SOL     OW14261   2.623   7.673   6.749
 4143SOL    HW114262   2.621   7.595   6.694
 4143SOL    HW214263   2.658   7.742   6.693
 4144SOL     OW14264   0.402   6.724   1.876
 4144SOL    HW114265   0.449   6.650   1.914
 4144SOL    HW214266   0.354   6.687   1.802
 4145SOL     OW14267   7.613   2.122   4.035
 4145SOL    HW114268   7.530   2.073   4.037
 4145SOL    HW214269   7.665   2.083   4.106
 4146SOL     OW14270   4.041   8.577   4.509
 4146SOL    HW114271   4.108   8.559   4.443
 4146SOL    HW214272   3.958   8.554   4.465
 4147SOL     OW14273   5.577  10.021   5.416
 4147SOL    HW114274   5.611  10.083   5.351
 4147SOL    HW214275   5.644  10.018   5.484
 4148SOL     OW14276  13.662   8.480   0.668
 4148SOL    HW114277  13.626   8.479   0.579
 4148SOL    HW214278  13.737   8.539   0.663
 4149SOL     OW14279   1.273  13.250   4.553
 4149SOL    HW114280   1.189  13.225   4.590
 4149SOL    HW214281   1.304  13.320   4.611
 4150SOL     OW14282   8.997   5.155  11.507
 4150SOL    HW114283   9.081   5.195  11.530
 4150SOL    HW214284   9.005   5.064  11.535
 4151SOL     OW14285  13.380   0.024   3.490
 4151SOL    HW114286  13.405   0.049   3.578
 4151SOL    HW214287  13.438   0.074   3.433
 4152SOL     OW14288   2.995  14.556  13.310
 4152SOL    HW114289   2.952  14.493  13.252
 4152SOL    HW214290   3.010  14.633  13.255
 4153SOL     OW14291   5.136  11.618   7.668
 4153SOL    HW114292   5.190  11.697   7.661
 4153SOL    HW214293   5.199  11.546   7.669
 4154SOL     OW14294   1.793   7.019   6.140
 4154SOL    HW114295   1.705   7.021   6.103
 4154SOL    HW214296   1.830   6.936   6.110
 4155SOL     OW14297  10.306  11.889   6.702
 4155SOL    HW114298  10.279  11.818   6.762
 4155SOL    HW214299  10.223  11.926   6.671
 4156SOL     OW14300   4.095  12.854   9.083
 4156SOL    HW114301   4.044  12.789   9.035
 4156SOL    HW214302   4.115  12.922   9.018
 4157SOL     OW14303  13.494  10.799   3.966
 4157SOL    HW114304  13.562  10.857   3.932
 4157SOL    HW214305  13.478  10.830   4.055
 4158SOL     OW14306   9.133  10.832   3.778
 4158SOL    HW114307   9.159  10.915   3.816
 4158SOL    HW214308   9.108  10.854   3.688
 4159SOL     OW14309   9.873  12.117   7.399
 4159SOL    HW114310   9.892  12.040   7.345
 4159SOL    HW214311   9.946  12.177   7.384
 4160SOL     OW14312  11.240   3.445   9.738
 4160SOL    HW114313  11.211   3.375   9.679
 4160SOL    HW214314  11.175   3.514   9.726
 4161SOL     OW14315   4.823   8.694  13.892
 4161SOL    HW114316   4.918   8.687  13.884
 4161SOL    HW214317   4.807   8.786  13.912
 4162SOL     OW14318   3.032   1.762  13.582
 4162SOL    HW114319   2.995   1.850  13.579
 4162SOL    HW214320   3.126   1.776  13.590
 4163SOL     OW14321   5.668   2.068  14.204
 4163SOL    HW114322   5.594   2.068  14.143
 4163SOL    HW214323   5.634   2.025  14.283
 4164SOL     OW14324  14.076  11.440   5.447
 4164SOL    HW114325  14.082  11.417   5.354
 4164SOL    HW214326  14.031  11.525   5.447
 4165SOL     OW14327  10.791  13.468   1.742
 4165SOL    HW114328  10.743  13.527   1.800
 4165SOL    HW214329  10.875  13.513   1.728
 4166SOL     OW14330  14.254  13.997   8.812
 4166SOL    HW114331  14.305  13.916   8.818
 4166SOL    HW214332  14.320  14.066   8.802
 4167SOL     OW14333  14.243  13.054  10.200
 4167SOL    HW114334  14.170  13.007  10.160
 4167SOL    HW214335  14.308  12.985  10.220
 4168SOL     OW14336   5.576   9.508  13.270
 4168SOL    HW114337   5.512   9.452  13.226
 4168SOL    HW214338   5.636   9.535  13.201
 4169SOL     OW14339   4.376   0.882   9.062
 4169SOL    HW114340   4.431   0.812   9.097
 4169SOL    HW214341   4.438   0.942   9.020
 4170SOL     OW14342  12.668   5.981   9.675
 4170SOL    HW114343  12.730   5.940   9.614
 4170SOL    HW214344  12.665   5.921   9.750
 4171SOL     OW14345  10.825  11.391   4.025
 4171SOL    HW114346  10.736  11.358   4.034
 4171SOL    HW214347  10.843  11.386   3.931
 4172SOL     OW14348  10.951   8.738   2.359
 4172SOL    HW114349  11.045   8.726   2.367
 4172SOL    HW214350  10.927   8.693   2.278
 4173SOL     OW14351  10.418   0.756   6.327
 4173SOL    HW114352  10.429   0.820   6.256
 4173SOL    HW214353  10.480   0.784   6.394
 4174SOL     OW14354  14.689   2.049   0.810
 4174SOL    HW114355  14.629   1.975   0.824
 4174SOL    HW214356  14.634   2.126   0.826
 4175SOL     OW14357   0.351  13.602  14.240
 4175SOL    HW114358   0.327  13.669  14.175
 4175SOL    HW214359   0.378  13.652  14.317
 4176SOL     OW14360   6.956   0.828   6.251
 4176SOL    HW114361   6.938   0.736   6.229
 4176SOL    HW214362   7.032   0.851   6.197
 4177SOL     OW14363  11.472   7.122   1.334
 4177SOL    HW114364  11.450   7.181   1.262
 4177SOL    HW214365  11.515   7.179   1.398
 4178SOL     OW14366   8.590   9.743  13.861
 4178SOL    HW114367   8.669   9.753  13.915
 4178SOL    HW214368   8.534   9.683  13.911
 4179SOL     OW14369   7.848   2.010   3.235
 4179SOL    HW114370   7.847   2.098   3.274
 4179SOL    HW214371   7.936   1.977   3.253
 4180SOL     OW14372   9.794  12.540   4.616
 4180SOL    HW114373   9.780  12.507   4.528
 4180SOL    HW214374   9.718  12.596   4.633
 4181SOL     OW14375   7.168   3.363   1.636
 4181SOL    HW114376   7.150   3.457   1.648
 4181SOL    HW214377   7.180   3.354   1.541
 4182SOL     OW14378   3.846   0.405   2.254
 4182SOL    HW114379   3.917   0.350   2.223
 4182SOL    HW214380   3.779   0.344   2.285
 4183SOL     OW14381   3.511   0.786   9.939
 4183SOL    HW114382   3.547   0.870   9.969
 4183SOL    HW214383   3.532   0.783   9.846
 4184SOL     OW14384   6.363   8.627   5.394
 4184SOL    HW114385   6.451   8.595   5.413
 4184SOL    HW214386   6.370   8.722   5.402
 4185SOL     OW14387  11.232   5.305   8.951
 4185SOL    HW114388  11.221   5.366   8.878
 4185SOL    HW214389  11.167   5.332   9.015
 4186SOL     OW14390   0.614   6.380   2.749
 4186SOL    HW114391   0.681   6.448   2.754
 4186SOL    HW214392   0.618   6.348   2.659
 4187SOL     OW14393  11.799   4.108   4.579
 4187SOL    HW114394  11.842   4.082   4.661
 4187SOL    HW214395  11.761   4.027   4.545
 4188SOL     OW14396  12.485  12.340   2.381
 4188SOL    HW114397  12.448  12.254   2.359
 4188SOL    HW214398  12.547  12.357   2.311
 4189SOL     OW14399   9.313  10.084   5.013
 4189SOL    HW114400   9.270  10.169   5.020
 4189SOL    HW214401   9.386  10.099   4.952
 4190SOL     OW14402  13.688  10.340  14.748
 4190SOL    HW114403  13.763  10.399  14.744
 4190SOL    HW214404  13.612  10.398  14.754
 4191SOL     OW14405  11.956  12.610  10.077
 4191SOL    HW114406  11.999  12.653  10.152
 4191SOL    HW214407  12.019  12.619  10.005
 4192SOL     OW14408   0.590   6.942   4.804
 4192SOL    HW114409   0.678   6.906   4.791
 4192SOL    HW214410   0.583   6.955   4.898
 4193SOL     OW14411   2.892   2.830   9.546
 4193SOL    HW114412   2.946   2.813   9.623
 4193SOL    HW214413   2.870   2.743   9.513
 4194SOL     OW14414  14.191  13.897  13.128
 4194SOL    HW114415  14.161  13.985  13.104
 4194SOL    HW214416  14.286  13.899  13.114
 4195SOL     OW14417  14.599  10.899   0.457
 4195SOL    HW114418  14.654  10.938   0.389
 4195SOL    HW214419  14.570  10.974   0.509
 4196SOL     OW14420  13.069   6.144  14.286
 4196SOL    HW114421  13.068   6.230  14.329
 4196SOL    HW214422  13.090   6.083  14.356
 4197SOL     OW14423   9.052   9.647   0.438
 4197SOL    HW114424   8.982   9.663   0.501
 4197SOL    HW214425   9.084   9.559   0.460
 4198SOL     OW14426  11.258   5.162  13.959
 4198SOL    HW114427  11.267   5.252  13.927
 4198SOL    HW214428  11.333   5.150  14.017
 4199SOL     OW14429  10.202   3.416   6.802
 4199SOL    HW114430  10.186   3.337   6.751
 4199SOL    HW214431  10.233   3.480   6.738
 4200SOL     OW14432  12.070   7.590   8.922
 4200SOL    HW114433  12.079   7.612   9.015
 4200SOL    HW214434  12.036   7.501   8.922
 4201SOL     OW14435   7.006   3.645   1.217
 4201SOL    HW114436   6.944   3.666   1.147
 4201SOL    HW214437   7.078   3.707   1.204
 4202SOL     OW14438   5.678   8.793  10.831
 4202SOL    HW114439   5.608   8.853  10.805
 4202SOL    HW214440   5.744   8.803  10.763
 4203SOL     OW14441   2.880   7.831   6.598
 4203SOL    HW114442   2.800   7.810   6.550
 4203SOL    HW214443   2.926   7.893   6.542
 4204SOL     OW14444   8.796   5.100  10.359
 4204SOL    HW114445   8.799   5.186  10.316
 4204SOL    HW214446   8.852   5.111  10.436
 4205SOL     OW14447  11.514  11.115   8.287
 4205SOL    HW114448  11.496  11.208   8.273
 4205SOL    HW214449  11.609  11.110   8.295
 4206SOL     OW14450   9.382   5.055   4.327
 4206SOL    HW114451   9.340   4.986   4.378
 4206SOL    HW214452   9.322   5.129   4.334
 4207SOL     OW14453   6.090   2.447  13.420
 4207SOL    HW114454   6.050   2.395  13.490
 4207SOL    HW214455   6.053   2.410  13.340
 4208SOL     OW14456   7.007   4.241   2.182
 4208SOL    HW114457   6.996   4.327   2.143
 4208SOL    HW214458   7.061   4.256   2.260
 4209SOL     OW14459   5.645   9.310  14.110
 4209SOL    HW114460   5.679   9.269  14.190
 4209SOL    HW214461   5.723   9.337  14.061
 4210SOL     OW14462   7.855  12.443   8.994
 4210SOL    HW114463   7.853  12.404   9.081
 4210SOL    HW214464   7.769  12.423   8.956
 4211SOL     OW14465   1.095   6.863  11.896
 4211SOL    HW114466   1.116   6.853  11.804
 4211SOL    HW214467   1.027   6.930  11.898
 4212SOL     OW14468   7.928  13.755   5.314
 4212SOL    HW114469   7.882  13.829   5.274
 4212SOL    HW214470   8.020  13.782   5.313
 4213SOL     OW14471   3.085   0.107  14.601
 4213SOL    HW114472   3.070   0.013  14.598
 4213SOL    HW214473   3.022   0.143  14.538
 4214SOL     OW14474  12.541   4.804   1.221
 4214SOL    HW114475  12.573   4.718   1.194
 4214SOL    HW214476  12.446   4.796   1.220
 4215SOL     OW14477   8.649   8.292   2.193
 4215SOL    HW114478   8.675   8.206   2.159
 4215SOL    HW214479   8.705   8.305   2.270
 4216SOL     OW14480   0.427   4.383   8.129
 4216SOL    HW114481   0.414   4.452   8.194
 4216SOL    HW214482   0.517   4.353   8.145
 4217SOL     OW14483   2.549  11.106  10.619
 4217SOL    HW114484   2.553  11.064  10.533
 4217SOL    HW214485   2.615  11.175  10.614
 4218SOL     OW14486  11.806   7.069   2.429
 4218SOL    HW114487  11.726   7.054   2.479
 4218SOL    HW214488  11.826   6.983   2.391
 4219SOL     OW14489   5.544   9.715   9.010
 4219SOL    HW114490   5.622   9.752   9.052
 4219SOL    HW214491   5.504   9.661   9.078
 4220SOL     OW14492   2.194   8.636   3.584
 4220SOL    HW114493   2.265   8.700   3.574
 4220SOL    HW214494   2.123   8.671   3.530
 4221SOL     OW14495   5.536  10.873   5.661
 4221SOL    HW114496   5.513  10.818   5.587
 4221SOL    HW214497   5.612  10.830   5.700
 4222SOL     OW14498   1.044   1.021   6.576
 4222SOL    HW114499   1.063   0.929   6.591
 4222SOL    HW214500   1.124   1.056   6.537
 4223SOL     OW14501  11.851  14.766   9.953
 4223SOL    HW114502  11.881  14.676   9.945
 4223SOL    HW214503  11.815  14.771  10.042
 4224SOL     OW14504   8.314   0.563  11.842
 4224SOL    HW114505   8.245   0.623  11.872
 4224SOL    HW214506   8.355   0.609  11.769
 4225SOL     OW14507  13.410   1.994  10.625
 4225SOL    HW114508  13.459   1.912  10.615
 4225SOL    HW214509  13.381   2.015  10.537
 4226SOL     OW14510   7.293  13.443   8.673
 4226SOL    HW114511   7.317  13.516   8.729
 4226SOL    HW214512   7.275  13.482   8.588
 4227SOL     OW14513   2.777  12.530   6.454
 4227SOL    HW114514   2.785  12.606   6.512
 4227SOL    HW214515   2.692  12.492   6.477
 4228SOL     OW14516  12.172   4.653   0.794
 4228SOL    HW114517  12.087   4.624   0.826
 4228SOL    HW214518  12.152   4.709   0.719
 4229SOL     OW14519  10.254  12.679   3.430
 4229SOL    HW114520  10.178  12.684   3.489
 4229SOL    HW214521  10.232  12.610   3.368
 4230SOL     OW14522  13.279  14.250  13.169
 4230SOL    HW114523  13.237  14.188  13.227
 4230SOL    HW214524  13.207  14.295  13.125
 4231SOL     OW14525   3.807   4.719   7.601
 4231SOL    HW114526   3.860   4.765   7.667
 4231SOL    HW214527   3.825   4.626   7.617
 4232SOL     OW14528   9.402   9.022   7.854
 4232SOL    HW114529   9.320   9.069   7.871
 4232SOL    HW214530   9.414   9.027   7.759
 4233SOL     OW14531   5.537   4.249  14.824
 4233SOL    HW114532   5.539   4.343  14.843
 4233SOL    HW214533   5.451   4.235  14.783
 4234SOL     OW14534   4.189  13.700  13.222
 4234SOL    HW114535   4.123  13.718  13.289
 4234SOL    HW214536   4.248  13.775  13.227
 4235SOL     OW14537   3.065   3.916   7.501
 4235SOL    HW114538   3.022   3.974   7.565
 4235SOL    HW214539   3.016   3.930   7.420
 4236SOL     OW14540  10.218   0.532   2.977
 4236SOL    HW114541  10.294   0.478   2.997
 4236SOL    HW214542  10.213   0.594   3.050
 4237SOL     OW14543   3.205  11.186  10.951
 4237SOL    HW114544   3.250  11.258  10.908
 4237SOL    HW214545   3.264  11.111  10.944
 4238SOL     OW14546   0.211   2.984   4.856
 4238SOL    HW114547   0.190   2.966   4.765
 4238SOL    HW214548   0.128   3.011   4.896
 4239SOL     OW14549   1.516   2.696  14.218
 4239SOL    HW114550   1.502   2.602  14.219
 4239SOL    HW214551   1.542   2.716  14.128
 4240SOL     OW14552  14.619   3.589   1.499
 4240SOL    HW114553  14.612   3.678   1.535
 4240SOL    HW214554  14.627   3.602   1.404
 4241SOL     OW14555  12.903   3.574  12.697
 4241SOL    HW114556  12.906   3.667  12.675
 4241SOL    HW214557  12.811   3.558  12.720
 4242SOL     OW14558   0.383   2.754  10.391
 4242SOL    HW114559   0.310   2.798  10.433
 4242SOL    HW214560   0.457   2.815  10.401
 4243SOL     OW14561  10.598  13.354   2.854
 4243SOL    HW114562  10.623  13.298   2.780
 4243SOL    HW214563  10.577  13.294   2.925
 4244SOL     OW14564   5.023   5.701   1.581
 4244SOL    HW114565   5.097   5.737   1.533
 4244SOL    HW214566   5.001   5.769   1.645
 4245SOL     OW14567   3.524  11.578   4.661
 4245SOL    HW114568   3.592  11.606   4.599
 4245SOL    HW214569   3.459  11.533   4.606
 4246SOL     OW14570   8.978   5.419  11.809
 4246SOL    HW114571   9.008   5.492  11.861
 4246SOL    HW214572   9.013   5.341  11.852
 4247SOL     OW14573   6.587   1.224   2.939
 4247SOL    HW114574   6.646   1.297   2.961
 4247SOL    HW214575   6.605   1.158   3.006
 4248SOL     OW14576   9.792   1.845   6.957
 4248SOL    HW114577   9.749   1.903   6.895
 4248SOL    HW214578   9.733   1.842   7.032
 4249SOL     OW14579  13.945   5.139   4.609
 4249SOL    HW114580  13.854   5.167   4.617
 4249SOL    HW214581  13.952   5.062   4.666
 4250SOL     OW14582  11.238  10.292   4.825
 4250SOL    HW114583  11.296  10.228   4.866
 4250SOL    HW214584  11.220  10.356   4.894
 4251SOL     OW14585  10.838  14.496   8.515
 4251SOL    HW114586  10.833  14.591   8.524
 4251SOL    HW214587  10.929  14.479   8.494
 4252SOL     OW14588  10.085   8.873   4.704
 4252SOL    HW114589  10.052   8.889   4.615
 4252SOL    HW214590  10.135   8.793   4.697
 4253SOL     OW14591  13.237   8.874   8.596
 4253SOL    HW114592  13.327   8.840   8.601
 4253SOL    HW214593  13.247   8.969   8.602
 4254SOL     OW14594   9.709  13.359  11.360
 4254SOL    HW114595   9.656  13.280  11.360
 4254SOL    HW214596   9.713  13.385  11.268
 4255SOL     OW14597   6.565   1.636   1.440
 4255SOL    HW114598   6.485   1.611   1.396
 4255SOL    HW214599   6.571   1.577   1.515
 4256SOL     OW14600   9.484   7.558   0.526
 4256SOL    HW114601   9.404   7.520   0.563
 4256SOL    HW214602   9.471   7.652   0.531
 4257SOL     OW14603  13.724   6.390  10.881
 4257SOL    HW114604  13.759   6.471  10.919
 4257SOL    HW214605  13.791   6.363  10.818
 4258SOL     OW14606  14.013   7.127  11.827
 4258SOL    HW114607  13.989   7.084  11.744
 4258SOL    HW214608  14.036   7.054  11.885
 4259SOL     OW14609   8.550   6.727   3.575
 4259SOL    HW114610   8.589   6.774   3.649
 4259SOL    HW214611   8.501   6.655   3.615
 4260SOL     OW14612  11.198   2.999   0.272
 4260SOL    HW114613  11.116   3.030   0.234
 4260SOL    HW214614  11.266   3.041   0.220
 4261SOL     OW14615   9.146   5.095   2.534
 4261SOL    HW114616   9.210   5.102   2.463
 4261SOL    HW214617   9.066   5.065   2.491
 4262SOL     OW14618   8.318   7.057   1.922
 4262SOL    HW114619   8.257   7.060   1.995
 4262SOL    HW214620   8.390   7.114   1.947
 4263SOL     OW14621  11.186   3.051  12.038
 4263SOL    HW114622  11.138   3.131  12.059
 4263SOL    HW214623  11.277   3.072  12.062
 4264SOL     OW14624  13.636   5.431   7.061
 4264SOL    HW114625  13.600   5.477   6.985
 4264SOL    HW214626  13.658   5.501   7.122
 4265SOL     OW14627  11.123   9.674   4.531
 4265SOL    HW114628  11.078   9.613   4.472
 4265SOL    HW214629  11.178   9.727   4.474
 4266SOL     OW14630   1.948   5.359   9.537
 4266SOL    HW114631   1.932   5.360   9.443
 4266SOL    HW214632   2.007   5.432   9.552
 4267SOL     OW14633   1.340   2.609   2.021
 4267SOL    HW114634   1.421   2.563   1.999
 4267SOL    HW214635   1.277   2.578   1.956
 4268SOL     OW14636  13.367  13.312   4.656
 4268SOL    HW114637  13.277  13.298   4.628
 4268SOL    HW214638  13.359  13.356   4.741
 4269SOL     OW14639  10.860   6.146   1.209
 4269SOL    HW114640  10.929   6.212   1.194
 4269SOL    HW214641  10.887   6.102   1.290
 4270SOL     OW14642   7.975  14.813   8.905
 4270SOL    HW114643   7.969  14.723   8.938
 4270SOL    HW214644   7.943  14.867   8.977
 4271SOL     OW14645   3.893   5.612  10.687
 4271SOL    HW114646   3.956   5.666  10.638
 4271SOL    HW214647   3.885   5.657  10.771
 4272SOL     OW14648  13.477   6.326   8.155
 4272SOL    HW114649  13.499   6.244   8.198
 4272SOL    HW214650  13.561   6.370   8.141
 4273SOL     OW14651   9.049   0.146   1.741
 4273SOL    HW114652   9.033   0.060   1.780
 4273SOL    HW214653   8.992   0.148   1.663
 4274SOL     OW14654   4.845   7.556  14.339
 4274SOL    HW114655   4.859   7.599  14.424
 4274SOL    HW214656   4.832   7.628  14.278
 4275SOL     OW14657   4.883   6.511   3.570
 4275SOL    HW114658   4.805   6.484   3.617
 4275SOL    HW214659   4.948   6.443   3.589
 4276SOL     OW14660  12.781   4.501   8.179
 4276SOL    HW114661  12.780   4.412   8.145
 4276SOL    HW214662  12.837   4.549   8.118
 4277SOL     OW14663   0.957   2.027   5.084
 4277SOL    HW114664   0.951   1.972   5.163
 4277SOL    HW214665   0.867   2.035   5.053
 4278SOL     OW14666   4.931   1.375  14.542
 4278SOL    HW114667   4.947   1.390  14.448
 4278SOL    HW214668   4.967   1.288  14.559
 4279SOL     OW14669   6.858   4.628   1.036
 4279SOL    HW114670   6.784   4.677   1.000
 4279SOL    HW214671   6.818   4.557   1.086
 4280SOL     OW14672   2.325   7.273   1.584
 4280SOL    HW114673   2.308   7.213   1.656
 4280SOL    HW214674   2.420   7.285   1.585
 4281SOL     OW14675  10.250  10.440   6.894
 4281SOL    HW114676  10.284  10.523   6.927
 4281SOL    HW214677  10.325  10.398   6.852
 4282SOL     OW14678  12.954   1.952   0.391
 4282SOL    HW114679  12.906   1.900   0.456
 4282SOL    HW214680  13.012   2.008   0.442
 4283SOL     OW14681  12.545   3.712  13.655
 4283SOL    HW114682  12.472   3.744  13.706
 4283SOL    HW214683  12.602   3.788  13.643
 4284SOL     OW14684   6.097   3.526   5.656
 4284SOL    HW114685   6.034   3.599   5.657
 4284SOL    HW214686   6.065   3.468   5.588
 4285SOL     OW14687   3.467   9.373   8.394
 4285SOL    HW114688   3.509   9.298   8.436
 4285SOL    HW214689   3.404   9.333   8.333
 4286SOL     OW14690   8.217   0.318  12.915
 4286SOL    HW114691   8.180   0.356  12.995
 4286SOL    HW214692   8.162   0.351  12.845
 4287SOL     OW14693  10.200  13.973   3.627
 4287SOL    HW114694  10.203  13.968   3.532
 4287SOL    HW214695  10.285  14.010   3.652
 4288SOL     OW14696   2.187  12.970   4.017
 4288SOL    HW114697   2.238  13.000   3.942
 4288SOL    HW214698   2.242  12.904   4.059
 4289SOL     OW14699   0.560  11.118  14.611
 4289SOL    HW114700   0.512  11.056  14.557
 4289SOL    HW214701   0.535  11.205  14.578
 4290SOL     OW14702   4.723  12.371   4.599
 4290SOL    HW114703   4.748  12.399   4.512
 4290SOL    HW214704   4.725  12.451   4.652
 4291SOL     OW14705   4.673   1.821  11.572
 4291SOL    HW114706   4.725   1.795  11.649
 4291SOL    HW214707   4.738   1.857  11.511
 4292SOL     OW14708  14.241   7.307   5.439
 4292SOL    HW114709  14.213   7.222   5.407
 4292SOL    HW214710  14.306   7.336   5.375
 4293SOL     OW14711   7.434   8.008   0.675
 4293SOL    HW114712   7.433   8.097   0.641
 4293SOL    HW214713   7.449   8.018   0.769
 4294SOL     OW14714   7.630   0.932   4.498
 4294SOL    HW114715   7.663   0.883   4.573
 4294SOL    HW214716   7.537   0.943   4.515
 4295SOL     OW14717   2.151   8.077   1.089
 4295SOL    HW114718   2.228   8.023   1.107
 4295SOL    HW214719   2.170   8.118   1.004
 4296SOL     OW14720   7.522   2.457   9.891
 4296SOL    HW114721   7.609   2.468   9.929
 4296SOL    HW214722   7.531   2.490   9.801
 4297SOL     OW14723   3.047  14.318   0.719
 4297SOL    HW114724   3.044  14.317   0.815
 4297SOL    HW214725   3.073  14.408   0.697
 4298SOL     OW14726   1.867   9.208  14.199
 4298SOL    HW114727   1.947   9.241  14.160
 4298SOL    HW214728   1.814   9.286  14.217
 4299SOL     OW14729   0.017  11.668   3.933
 4299SOL    HW114730  14.823  11.610   3.951
 4299SOL    HW214731   0.043  11.648   3.843
 4300SOL     OW14732   7.861  11.727  11.872
 4300SOL    HW114733   7.822  11.643  11.849
 4300SOL    HW214734   7.955  11.715  11.857
 4301SOL     OW14735   9.578   1.774  14.554
 4301SOL    HW114736   9.569   1.774  14.649
 4301SOL    HW214737   9.522   1.846  14.525
 4302SOL     OW14738   0.171  14.851   3.554
 4302SOL    HW114739   0.171   0.063   3.584
 4302SOL    HW214740   0.080  14.822   3.568
 4303SOL     OW14741   0.749   4.676   1.256
 4303SOL    HW114742   0.745   4.714   1.169
 4303SOL    HW214743   0.841   4.681   1.282
 4304SOL     OW14744   7.411   3.338   3.253
 4304SOL    HW114745   7.346   3.345   3.183
 4304SOL    HW214746   7.493   3.362   3.212
 4305SOL     OW14747  14.835   1.730   9.679
 4305SOL    HW114748   0.050   1.743   9.685
 4305SOL    HW214749  14.814   1.671   9.752
 4306SOL     OW14750   8.502   1.906   4.852
 4306SOL    HW114751   8.538   1.851   4.921
 4306SOL    HW214752   8.430   1.953   4.893
 4307SOL     OW14753   8.989  12.048   2.188
 4307SOL    HW114754   8.933  12.116   2.226
 4307SOL    HW214755   8.928  11.981   2.159
 4308SOL     OW14756   0.877   1.544  10.205
 4308SOL    HW114757   0.912   1.600  10.274
 4308SOL    HW214758   0.928   1.463  10.212
 4309SOL     OW14759   7.279  13.851  13.461
 4309SOL    HW114760   7.193  13.864  13.422
 4309SOL    HW214761   7.262  13.835  13.554
 4310SOL     OW14762  10.308  14.253   2.296
 4310SOL    HW114763  10.228  14.229   2.251
 4310SOL    HW214764  10.281  14.266   2.387
 4311SOL     OW14765   4.198   5.542   6.124
 4311SOL    HW114766   4.220   5.451   6.105
 4311SOL    HW214767   4.278   5.579   6.162
 4312SOL     OW14768  12.834  12.970  12.784
 4312SOL    HW114769  12.813  12.936  12.698
 4312SOL    HW214770  12.750  12.972  12.831
 4313SOL     OW14771   1.487   6.531  14.805
 4313SOL    HW114772   1.490   6.627  14.806
 4313SOL    HW214773   1.450   6.510  14.719
 4314SOL     OW14774   8.839  14.365   2.536
 4314SOL    HW114775   8.852  14.367   2.631
 4314SOL    HW214776   8.766  14.304   2.523
 4315SOL     OW14777   1.593   7.765   3.356
 4315SOL    HW114778   1.580   7.772   3.450
 4315SOL    HW214779   1.656   7.834   3.334
 4316SOL     OW14780   2.528   4.459   9.322
 4316SOL    HW114781   2.490   4.417   9.399
 4316SOL    HW214782   2.516   4.395   9.252
 4317SOL     OW14783   0.163   5.116   2.508
 4317SOL    HW114784   0.085   5.168   2.530
 4317SOL    HW214785   0.233   5.180   2.502
 4318SOL     OW14786  14.415   4.974   7.331
 4318SOL    HW114787  14.332   4.925   7.331
 4318SOL    HW214788  14.462   4.940   7.255
 4319SOL     OW14789  12.395  11.594   6.925
 4319SOL    HW114790  12.302  11.617   6.935
 4319SOL    HW214791  12.393  11.506   6.887
 4320SOL     OW14792  14.493  14.767  12.335
 4320SOL    HW114793  14.492  14.857  12.369
 4320SOL    HW214794  14.571  14.728  12.374
 4321SOL     OW14795   6.914   0.738  13.485
 4321SOL    HW114796   6.943   0.648  13.473
 4321SOL    HW214797   6.829   0.730  13.528
 4322SOL     OW14798   2.831  11.251  10.519
 4322SOL    HW114799   2.826  11.164  10.479
 4322SOL    HW214800   2.915  11.250  10.566
 4323SOL     OW14801   2.239   2.058   0.631
 4323SOL    HW114802   2.230   2.079   0.724
 4323SOL    HW214803   2.321   2.099   0.605
 4324SOL     OW14804   9.355   2.982   3.062
 4324SOL    HW114805   9.294   2.916   3.096
 4324SOL    HW214806   9.341   2.980   2.967
 4325SOL     OW14807   2.352  12.308   1.640
 4325SOL    HW114808   2.337  12.260   1.721
 4325SOL    HW214809   2.422  12.369   1.661
 4326SOL     OW14810  13.130   2.542   4.021
 4326SOL    HW114811  13.199   2.515   4.081
 4326SOL    HW214812  13.169   2.530   3.934
 4327SOL     OW14813  10.454   3.711   7.387
 4327SOL    HW114814  10.418   3.687   7.301
 4327SOL    HW214815  10.397   3.667   7.450
 4328SOL     OW14816   8.241   5.300   3.487
 4328SOL    HW114817   8.302   5.232   3.459
 4328SOL    HW214818   8.291   5.381   3.480
 4329SOL     OW14819  11.251   6.460  10.747
 4329SOL    HW114820  11.248   6.537  10.690
 4329SOL    HW214821  11.166   6.418  10.735
 4330SOL     OW14822   0.542   1.948   2.535
 4330SOL    HW114823   0.573   1.895   2.462
 4330SOL    HW214824   0.621   1.984   2.575
 4331SOL     OW14825   5.586   1.865  13.021
 4331SOL    HW114826   5.492   1.871  13.003
 4331SOL    HW214827   5.594   1.793  13.083
 4332SOL     OW14828  11.101  13.715   4.401
 4332SOL    HW114829  11.023  13.659   4.407
 4332SOL    HW214830  11.158  13.685   4.472
 4333SOL     OW14831   9.065   2.262  12.634
 4333SOL    HW114832   8.996   2.325  12.656
 4333SOL    HW214833   9.065   2.258  12.538
 4334SOL     OW14834   6.885   4.009  14.438
 4334SOL    HW114835   6.884   4.058  14.356
 4334SOL    HW214836   6.951   3.940  14.424
 4335SOL     OW14837   8.299  11.400  13.247
 4335SOL    HW114838   8.350  11.476  13.276
 4335SOL    HW214839   8.208  11.426  13.257
 4336SOL     OW14840  12.140  11.352   2.020
 4336SOL    HW114841  12.186  11.404   2.085
 4336SOL    HW214842  12.109  11.275   2.068
 4337SOL     OW14843  13.147  10.920   5.918
 4337SOL    HW114844  13.144  10.946   5.826
 4337SOL    HW214845  13.195  10.837   5.918
 4338SOL     OW14846   5.886   7.874   1.119
 4338SOL    HW114847   5.871   7.948   1.177
 4338SOL    HW214848   5.800   7.832   1.111
 4339SOL     OW14849  13.489  14.718  10.265
 4339SOL    HW114850  13.435  14.681  10.335
 4339SOL    HW214851  13.578  14.717  10.301
 4340SOL     OW14852  12.191   3.331   4.185
 4340SOL    HW114853  12.275   3.376   4.172
 4340SOL    HW214854  12.195   3.256   4.126
 4341SOL     OW14855   8.330   6.744   7.362
 4341SOL    HW114856   8.391   6.675   7.385
 4341SOL    HW214857   8.370   6.788   7.286
 4342SOL     OW14858  12.166   8.048   5.881
 4342SOL    HW114859  12.128   8.041   5.793
 4342SOL    HW214860  12.117   8.119   5.922
 4343SOL     OW14861   8.996   6.242   5.102
 4343SOL    HW114862   9.077   6.197   5.078
 4343SOL    HW214863   8.941   6.173   5.141
 4344SOL     OW14864  11.606  10.223   4.229
 4344SOL    HW114865  11.684  10.263   4.190
 4344SOL    HW214866  11.574  10.163   4.161
 4345SOL     OW14867   5.478  11.299  12.732
 4345SOL    HW114868   5.406  11.295  12.794
 4345SOL    HW214869   5.544  11.239  12.768
 4346SOL     OW14870  10.243   2.921  11.314
 4346SOL    HW114871  10.312   2.877  11.364
 4346SOL    HW214872  10.259   3.014  11.328
 4347SOL     OW14873   0.574   4.808   5.949
 4347SOL    HW114874   0.636   4.845   5.886
 4347SOL    HW214875   0.488   4.837   5.919
 4348SOL     OW14876  14.382   4.965  13.954
 4348SOL    HW114877  14.380   4.943  14.048
 4348SOL    HW214878  14.298   4.933  13.921
 4349SOL     OW14879  14.129   5.966   8.819
 4349SOL    HW114880  14.181   5.891   8.849
 4349SOL    HW214881  14.180   6.042   8.844
 4350SOL     OW14882   9.766   1.634   6.689
 4350SOL    HW114883   9.710   1.661   6.762
 4350SOL    HW214884   9.742   1.693   6.618
 4351SOL     OW14885  13.250   6.197   5.181
 4351SOL    HW114886  13.288   6.265   5.126
 4351SOL    HW214887  13.250   6.234   5.269
 4352SOL     OW14888   1.237   4.384   3.749
 4352SOL    HW114889   1.233   4.308   3.806
 4352SOL    HW214890   1.217   4.350   3.662
 4353SOL     OW14891  10.218   7.658   7.610
 4353SOL    HW114892  10.134   7.640   7.653
 4353SOL    HW214893  10.210   7.748   7.579
 4354SOL     OW14894   5.448   3.518  10.892
 4354SOL    HW114895   5.514   3.582  10.864
 4354SOL    HW214896   5.396   3.565  10.958
 4355SOL     OW14897   9.640   7.156  13.197
 4355SOL    HW114898   9.644   7.237  13.147
 4355SOL    HW214899   9.652   7.183  13.288
 4356SOL     OW14900  11.524  12.020   2.277
 4356SOL    HW114901  11.568  11.940   2.306
 4356SOL    HW214902  11.582  12.091   2.305
 4357SOL     OW14903   8.041   5.254   0.499
 4357SOL    HW114904   7.977   5.187   0.474
 4357SOL    HW214905   7.989   5.331   0.521
 4358SOL     OW14906  10.636   3.222   3.014
 4358SOL    HW114907  10.704   3.287   3.032
 4358SOL    HW214908  10.572   3.269   2.961
 4359SOL     OW14909   4.000  13.090  10.002
 4359SOL    HW114910   4.018  13.166   9.946
 4359SOL    HW214911   4.085  13.049  10.015
 4360SOL     OW14912   9.030  11.582   0.022
 4360SOL    HW114913   8.952  11.637   0.008
 4360SOL    HW214914   8.998  11.492   0.015
 4361SOL     OW14915   4.348   9.172   1.467
 4361SOL    HW114916   4.415   9.235   1.441
 4361SOL    HW214917   4.299   9.155   1.387
 4362SOL     OW14918   7.239   9.026   2.059
 4362SOL    HW114919   7.248   8.948   2.115
 4362SOL    HW214920   7.312   9.083   2.085
 4363SOL     OW14921  12.586  12.347  12.849
 4363SOL    HW114922  12.529  12.405  12.898
 4363SOL    HW214923  12.545  12.340  12.763
 4364SOL     OW14924   9.640   6.162   1.443
 4364SOL    HW114925   9.624   6.251   1.414
 4364SOL    HW214926   9.593   6.107   1.379
 4365SOL     OW14927   2.955  13.012   4.217
 4365SOL    HW114928   3.015  13.080   4.186
 4365SOL    HW214929   3.011  12.951   4.265
 4366SOL     OW14930   6.732   2.505  13.701
 4366SOL    HW114931   6.659   2.520  13.761
 4366SOL    HW214932   6.799   2.567  13.729
 4367SOL     OW14933  14.705   9.137   9.990
 4367SOL    HW114934  14.619   9.097  10.006
 4367SOL    HW214935  14.748   9.078   9.929
 4368SOL     OW14936   7.167   9.907  13.400
 4368SOL    HW114937   7.193   9.994  13.431
 4368SOL    HW214938   7.207   9.846  13.462
 4369SOL     OW14939  13.593  11.972   3.042
 4369SOL    HW114940  13.532  11.963   2.970
 4369SOL    HW214941  13.598  11.884   3.081
 4370SOL     OW14942   7.218   2.948   5.721
 4370SOL    HW114943   7.131   2.922   5.752
 4370SOL    HW214944   7.244   2.878   5.661
 4371SOL     OW14945   0.388  13.123   6.077
 4371SOL    HW114946   0.330  13.050   6.056
 4371SOL    HW214947   0.433  13.142   5.995
 4372SOL     OW14948   6.913   4.671  13.561
 4372SOL    HW114949   6.900   4.745  13.501
 4372SOL    HW214950   7.001   4.640  13.542
 4373SOL     OW14951  12.480  14.741   2.387
 4373SOL    HW114952  12.400  14.692   2.404
 4373SOL    HW214953  12.524  14.747   2.472
 4374SOL     OW14954   4.214   3.557   6.081
 4374SOL    HW114955   4.229   3.585   5.991
 4374SOL    HW214956   4.173   3.471   6.073
 4375SOL     OW14957   1.429  12.508   5.260
 4375SOL    HW114958   1.497  12.547   5.315
 4375SOL    HW214959   1.370  12.581   5.240
 4376SOL     OW14960   0.837  12.822  14.141
 4376SOL    HW114961   0.927  12.801  14.166
 4376SOL    HW214962   0.844  12.855  14.052
 4377SOL     OW14963   1.246  11.594   6.366
 4377SOL    HW114964   1.276  11.645   6.291
 4377SOL    HW214965   1.200  11.657   6.421
 4378SOL     OW14966   4.481  13.065  13.319
 4378SOL    HW114967   4.492  13.014  13.400
 4378SOL    HW214968   4.450  13.002  13.255
 4379SOL     OW14969   6.647  12.086  10.425
 4379SOL    HW114970   6.732  12.116  10.393
 4379SOL    HW214971   6.656  12.083  10.520
 4380SOL     OW14972  14.493   5.263   0.683
 4380SOL    HW114973  14.436   5.215   0.743
 4380SOL    HW214974  14.442   5.340   0.657
 4381SOL     OW14975  14.271  13.532   1.872
 4381SOL    HW114976  14.305  13.561   1.957
 4381SOL    HW214977  14.319  13.452   1.852
 4382SOL     OW14978   1.071   2.370   5.847
 4382SOL    HW114979   1.092   2.459   5.875
 4382SOL    HW214980   1.155   2.331   5.823
 4383SOL     OW14981  12.011   1.711   1.881
 4383SOL    HW114982  12.105   1.695   1.879
 4383SOL    HW214983  11.996   1.777   1.812
 4384SOL     OW14984   0.234   6.968   8.204
 4384SOL    HW114985   0.307   6.933   8.255
 4384SOL    HW214986   0.231   7.061   8.226
 4385SOL     OW14987   9.730  10.232  12.515
 4385SOL    HW114988   9.730  10.148  12.470
 4385SOL    HW214989   9.642  10.267  12.502
 4386SOL     OW14990   2.215  13.810   3.620
 4386SOL    HW114991   2.298  13.786   3.579
 4386SOL    HW214992   2.153  13.743   3.590
 4387SOL     OW14993   8.768   4.619   6.653
 4387SOL    HW114994   8.719   4.558   6.709
 4387SOL    HW214995   8.747   4.592   6.564
 4388SOL     OW14996  14.003   1.506  13.999
 4388SOL    HW114997  14.088   1.490  14.042
 4388SOL    HW214998  14.017   1.585  13.947
 4389SOL     OW14999   4.004   5.064   9.471
 4389SOL    HW115000   3.987   5.147   9.516
 4389SOL    HW215001   3.921   5.017   9.477
 4390SOL     OW15002   0.310   8.036   9.611
 4390SOL    HW115003   0.242   8.096   9.641
 4390SOL    HW215004   0.311   7.967   9.677
 4391SOL     OW15005   5.395  14.324   1.628
 4391SOL    HW115006   5.409  14.232   1.604
 4391SOL    HW215007   5.482  14.358   1.648
 4392SOL     OW15008  14.200  13.308   7.581
 4392SOL    HW115009  14.294  13.307   7.601
 4392SOL    HW215010  14.157  13.321   7.665
 4393SOL     OW15011  11.724  14.720  13.147
 4393SOL    HW115012  11.658  14.789  13.143
 4393SOL    HW215013  11.678  14.640  13.123
 4394SOL     OW15014  14.718   7.922  11.104
 4394SOL    HW115015  14.750   7.962  11.023
 4394SOL    HW215016  14.794   7.878  11.142
 4395SOL     OW15017  12.793   7.818   6.677
 4395SOL    HW115018  12.874   7.774   6.651
 4395SOL    HW215019  12.744   7.751   6.724
 4396SOL     OW15020   7.656   8.818  10.181
 4396SOL    HW115021   7.743   8.853  10.201
 4396SOL    HW215022   7.665   8.723  10.193
 4397SOL     OW15023  10.032   1.790  11.353
 4397SOL    HW115024  10.112   1.757  11.394
 4397SOL    HW215025   9.974   1.714  11.348
 4398SOL     OW15026   8.819   0.286   6.642
 4398SOL    HW115027   8.738   0.260   6.598
 4398SOL    HW215028   8.877   0.313   6.571
 4399SOL     OW15029  12.064   2.694   7.177
 4399SOL    HW115030  12.074   2.775   7.127
 4399SOL    HW215031  12.153   2.657   7.180
 4400SOL     OW15032   0.455   2.081  10.429
 4400SOL    HW115033   0.381   2.034  10.467
 4400SOL    HW215034   0.524   2.014  10.422
 4401SOL     OW15035   8.226  12.654   6.218
 4401SOL    HW115036   8.253  12.572   6.260
 4401SOL    HW215037   8.130  12.647   6.212
 4402SOL     OW15038   7.228   8.663  10.055
 4402SOL    HW115039   7.204   8.747  10.016
 4402SOL    HW215040   7.323   8.667  10.066
 4403SOL     OW15041   7.679   8.808   5.491
 4403SOL    HW115042   7.630   8.736   5.530
 4403SOL    HW215043   7.615   8.879   5.483
 4404SOL     OW15044   7.658   7.106   2.271
 4404SOL    HW115045   7.658   7.083   2.178
 4404SOL    HW215046   7.642   7.200   2.273
 4405SOL     OW15047   8.696  13.022   6.911
 4405SOL    HW115048   8.622  13.075   6.879
 4405SOL    HW215049   8.706  13.049   7.002
 4406SOL     OW15050   0.969  10.183   9.963
 4406SOL    HW115051   0.898  10.234  10.004
 4406SOL    HW215052   0.945  10.181   9.870
 4407SOL     OW15053  10.248  10.928   0.799
 4407SOL    HW115054  10.239  10.871   0.722
 4407SOL    HW215055  10.196  11.005   0.779
 4408SOL     OW15056   1.806  12.921  10.885
 4408SOL    HW115057   1.730  12.928  10.943
 4408SOL    HW215058   1.778  12.961  10.803
 4409SOL     OW15059   6.575   2.732  12.429
 4409SOL    HW115060   6.536   2.644  12.432
 4409SOL    HW215061   6.669   2.716  12.440
 4410SOL     OW15062   2.940   4.442   4.024
 4410SOL    HW115063   2.990   4.368   3.990
 4410SOL    HW215064   2.935   4.425   4.118
 4411SOL     OW15065   1.243   5.128   0.899
 4411SOL    HW115066   1.181   5.073   0.850
 4411SOL    HW215067   1.213   5.217   0.884
 4412SOL     OW15068  10.365   3.882   9.387
 4412SOL    HW115069  10.380   3.893   9.481
 4412SOL    HW215070  10.418   3.805   9.363
 4413SOL     OW15071  12.394   9.204  14.289
 4413SOL    HW115072  12.364   9.266  14.355
 4413SOL    HW215073  12.347   9.231  14.209
 4414SOL     OW15074  12.734   6.671  14.564
 4414SOL    HW115075  12.753   6.627  14.647
 4414SOL    HW215076  12.673   6.741  14.589
 4415SOL     OW15077  13.026   7.931   6.142
 4415SOL    HW115078  12.940   7.973   6.146
 4415SOL    HW215079  13.027   7.872   6.217
 4416SOL     OW15080  13.116   5.739   2.045
 4416SOL    HW115081  13.074   5.778   2.121
 4416SOL    HW215082  13.208   5.764   2.052
 4417SOL     OW15083   1.782   4.292   5.000
 4417SOL    HW115084   1.712   4.229   4.981
 4417SOL    HW215085   1.849   4.240   5.044
 4418SOL     OW15086  14.180   2.734  10.367
 4418SOL    HW115087  14.266   2.774  10.379
 4418SOL    HW215088  14.199   2.640  10.357
 4419SOL     OW15089  14.551   3.667  12.732
 4419SOL    HW115090  14.507   3.622  12.805
 4419SOL    HW215091  14.562   3.757  12.763
 4420SOL     OW15092   2.882  13.779   8.147
 4420SOL    HW115093   2.936  13.717   8.197
 4420SOL    HW215094   2.828  13.822   8.213
 4421SOL     OW15095   2.366   2.528   8.893
 4421SOL    HW115096   2.414   2.602   8.857
 4421SOL    HW215097   2.369   2.541   8.988
 4422SOL     OW15098   1.379   5.196  12.636
 4422SOL    HW115099   1.328   5.152  12.569
 4422SOL    HW215100   1.398   5.282  12.598
 4423SOL     OW15101  11.893   9.695  12.683
 4423SOL    HW115102  11.868   9.757  12.752
 4423SOL    HW215103  11.819   9.695  12.622
 4424SOL     OW15104   4.842  10.911  14.683
 4424SOL    HW115105   4.913  10.946  14.629
 4424SOL    HW215106   4.781  10.871  14.621
 4425SOL     OW15107  12.544   8.776   6.378
 4425SOL    HW115108  12.512   8.819   6.298
 4425SOL    HW215109  12.507   8.687   6.374
 4426SOL     OW15110   0.726   3.094  14.850
 4426SOL    HW115111   0.668   3.019  14.860
 4426SOL    HW215112   0.808   3.067   0.013
 4427SOL     OW15113   1.857   3.676   8.524
 4427SOL    HW115114   1.781   3.647   8.575
 4427SOL    HW215115   1.832   3.762   8.490
 4428SOL     OW15116   9.445   2.116  11.953
 4428SOL    HW115117   9.501   2.191  11.933
 4428SOL    HW215118   9.357   2.144  11.929
 4429SOL     OW15119   7.350   6.807  12.195
 4429SOL    HW115120   7.440   6.775  12.192
 4429SOL    HW215121   7.344   6.868  12.121
 4430SOL     OW15122  10.161   8.275  11.233
 4430SOL    HW115123  10.120   8.227  11.161
 4430SOL    HW215124  10.247   8.234  11.243
 4431SOL     OW15125   4.567   7.389  12.969
 4431SOL    HW115126   4.497   7.328  12.995
 4431SOL    HW215127   4.544   7.414  12.879
 4432SOL     OW15128   6.091   6.587   0.886
 4432SOL    HW115129   6.180   6.598   0.854
 4432SOL    HW215130   6.085   6.494   0.909
 4433SOL     OW15131   0.807   6.002   8.272
 4433SOL    HW115132   0.761   6.062   8.214
 4433SOL    HW215133   0.748   5.990   8.347
 4434SOL     OW15134   1.813   5.509   1.941
 4434SOL    HW115135   1.905   5.531   1.953
 4434SOL    HW215136   1.765   5.581   1.983
 4435SOL     OW15137  13.527   8.998   8.784
 4435SOL    HW115138  13.475   9.072   8.753
 4435SOL    HW215139  13.479   8.965   8.860
 4436SOL     OW15140   5.738   1.484   8.439
 4436SOL    HW115141   5.810   1.530   8.396
 4436SOL    HW215142   5.673   1.470   8.370
 4437SOL     OW15143   1.045   1.802   4.912
 4437SOL    HW115144   1.013   1.869   4.851
 4437SOL    HW215145   0.994   1.816   4.991
 4438SOL     OW15146  14.262   6.460   2.140
 4438SOL    HW115147  14.249   6.514   2.218
 4438SOL    HW215148  14.211   6.503   2.072
 4439SOL     OW15149   9.458   1.521  14.857
 4439SOL    HW115150   9.426   1.523  14.767
 4439SOL    HW215151   9.402   1.584   0.024
 4440SOL     OW15152   9.019  12.468   4.644
 4440SOL    HW115153   9.106  12.436   4.668
 4440SOL    HW215154   8.972  12.474   4.727
 4441SOL     OW15155  12.301  11.984   6.716
 4441SOL    HW115156  12.272  11.901   6.678
 4441SOL    HW215157  12.270  12.050   6.655
 4442SOL     OW15158   2.285   1.455  12.216
 4442SOL    HW115159   2.267   1.363  12.237
 4442SOL    HW215160   2.245   1.505  12.287
 4443SOL     OW15161   6.096   8.584   5.901
 4443SOL    HW115162   6.071   8.597   5.993
 4443SOL    HW215163   6.129   8.670   5.873
 4444SOL     OW15164   6.078   6.932   8.049
 4444SOL    HW115165   6.063   6.915   8.142
 4444SOL    HW215166   6.098   7.026   8.045
 4445SOL     OW15167  13.328   5.016   0.565
 4445SOL    HW115168  13.365   5.052   0.485
 4445SOL    HW215169  13.392   4.951   0.595
 4446SOL     OW15170  10.074   8.715  11.200
 4446SOL    HW115171  10.019   8.715  11.122
 4446SOL    HW215172  10.047   8.793  11.248
 4447SOL     OW15173   6.605   4.211   0.642
 4447SOL    HW115174   6.554   4.202   0.722
 4447SOL    HW215175   6.588   4.301   0.614
 4448SOL     OW15176  12.366  10.620   6.819
 4448SOL    HW115177  12.407  10.546   6.864
 4448SOL    HW215178  12.274  10.594   6.810
 4449SOL     OW15179   7.300   1.563  11.733
 4449SOL    HW115180   7.378   1.618  11.732
 4449SOL    HW215181   7.255   1.586  11.814
 4450SOL     OW15182  10.754  13.232  11.920
 4450SOL    HW115183  10.740  13.283  12.000
 4450SOL    HW215184  10.848  13.217  11.918
 4451SOL     OW15185   5.945   3.028   3.940
 4451SOL    HW115186   5.987   2.942   3.940
 4451SOL    HW215187   6.013   3.088   3.910
 4452SOL     OW15188   6.840   4.257  10.524
 4452SOL    HW115189   6.847   4.345  10.487
 4452SOL    HW215190   6.834   4.200  10.448
 4453SOL     OW15191   3.170   5.687   2.888
 4453SOL    HW115192   3.237   5.627   2.921
 4453SOL    HW215193   3.211   5.774   2.893
 4454SOL     OW15194  11.825   5.941   6.104
 4454SOL    HW115195  11.821   5.992   6.023
 4454SOL    HW215196  11.791   5.855   6.080
 4455SOL     OW15197   8.660   9.128   6.722
 4455SOL    HW115198   8.615   9.050   6.753
 4455SOL    HW215199   8.605   9.201   6.751
 4456SOL     OW15200  14.650   2.153   7.122
 4456SOL    HW115201  14.704   2.129   7.197
 4456SOL    HW215202  14.706   2.138   7.046
 4457SOL     OW15203  12.954   6.709   0.887
 4457SOL    HW115204  12.890   6.779   0.876
 4457SOL    HW215205  12.906   6.629   0.864
 4458SOL     OW15206   1.093  10.073   6.943
 4458SOL    HW115207   1.083  10.114   6.857
 4458SOL    HW215208   1.147   9.996   6.927
 4459SOL     OW15209  10.497   4.582  10.234
 4459SOL    HW115210  10.409   4.620  10.229
 4459SOL    HW215211  10.535   4.620  10.313
 4460SOL     OW15212  10.465  10.920  10.122
 4460SOL    HW115213  10.403  10.851  10.146
 4460SOL    HW215214  10.509  10.942  10.205
 4461SOL     OW15215   5.961  14.571   5.616
 4461SOL    HW115216   5.926  14.482   5.618
 4461SOL    HW215217   5.893  14.623   5.574
 4462SOL     OW15218   3.607   9.059   8.937
 4462SOL    HW115219   3.556   9.074   9.016
 4462SOL    HW215220   3.548   9.083   8.865
 4463SOL     OW15221  14.097  13.150   2.711
 4463SOL    HW115222  14.180  13.165   2.756
 4463SOL    HW215223  14.120  13.098   2.634
 4464SOL     OW15224  12.673  12.170   5.631
 4464SOL    HW115225  12.709  12.211   5.552
 4464SOL    HW215226  12.718  12.213   5.703
 4465SOL     OW15227   1.982   7.917   9.841
 4465SOL    HW115228   2.065   7.915   9.889
 4465SOL    HW215229   1.918   7.879   9.901
 4466SOL     OW15230   6.174  13.053  13.158
 4466SOL    HW115231   6.216  13.034  13.242
 4466SOL    HW215232   6.085  13.080  13.182
 4467SOL     OW15233   9.431  11.643   4.055
 4467SOL    HW115234   9.510  11.678   4.096
 4467SOL    HW215235   9.366  11.641   4.125
 4468SOL     OW15236  11.527   9.578   0.272
 4468SOL    HW115237  11.491   9.650   0.220
 4468SOL    HW215238  11.605   9.550   0.224
 4469SOL     OW15239   1.594   7.880  10.163
 4469SOL    HW115240   1.562   7.819  10.230
 4469SOL    HW215241   1.598   7.965  10.207
 4470SOL     OW15242   9.670   6.924   7.117
 4470SOL    HW115243   9.765   6.939   7.116
 4470SOL    HW215244   9.653   6.871   7.039
 4471SOL     OW15245  12.872   8.318   1.056
 4471SOL    HW115246  12.822   8.267   0.992
 4471SOL    HW215247  12.806   8.350   1.117
 4472SOL     OW15248   2.161   9.563  11.696
 4472SOL    HW115249   2.184   9.477  11.732
 4472SOL    HW215250   2.185   9.625  11.764
 4473SOL     OW15251   9.427   8.855   9.404
 4473SOL    HW115252   9.336   8.826   9.412
 4473SOL    HW215253   9.458   8.815   9.323
 4474SOL     OW15254   7.683   8.820  12.325
 4474SOL    HW115255   7.755   8.759  12.340
 4474SOL    HW215256   7.686   8.880  12.400
 4475SOL     OW15257  13.514  10.802   7.698
 4475SOL    HW115258  13.568  10.879   7.679
 4475SOL    HW215259  13.513  10.796   7.794
 4476SOL     OW15260  11.543  11.655   8.111
 4476SOL    HW115261  11.625  11.655   8.062
 4476SOL    HW215262  11.497  11.577   8.081
 4477SOL     OW15263   2.116   2.017  11.548
 4477SOL    HW115264   2.190   1.959  11.566
 4477SOL    HW215265   2.095   2.057  11.632
 4478SOL     OW15266  13.458   9.330   9.609
 4478SOL    HW115267  13.538   9.376   9.582
 4478SOL    HW215268  13.416   9.306   9.526
 4479SOL     OW15269   4.152   7.242   6.307
 4479SOL    HW115270   4.205   7.181   6.256
 4479SOL    HW215271   4.212   7.313   6.328
 4480SOL     OW15272  14.439   2.644   6.851
 4480SOL    HW115273  14.346   2.624   6.864
 4480SOL    HW215274  14.446   2.737   6.872
 4481SOL     OW15275   0.829   5.930   9.776
 4481SOL    HW115276   0.735   5.942   9.786
 4481SOL    HW215277   0.850   5.973   9.693
 4482SOL     OW15278   3.599  13.230   8.072
 4482SOL    HW115279   3.661  13.289   8.029
 4482SOL    HW215280   3.651  13.183   8.136
 4483SOL     OW15281   0.378   6.723   9.908
 4483SOL    HW115282   0.360   6.787   9.839
 4483SOL    HW215283   0.446   6.764   9.961
 4484SOL     OW15284   1.230   9.709  10.951
 4484SOL    HW115285   1.192   9.767  10.884
 4484SOL    HW215286   1.309   9.675  10.910
 4485SOL     OW15287   7.030   6.464  13.584
 4485SOL    HW115288   7.044   6.401  13.655
 4485SOL    HW215289   6.986   6.538  13.625
 4486SOL     OW15290   4.558   4.160  10.393
 4486SOL    HW115291   4.531   4.151  10.484
 4486SOL    HW215292   4.503   4.230  10.358
 4487SOL     OW15293   1.598   9.839   6.198
 4487SOL    HW115294   1.679   9.849   6.147
 4487SOL    HW215295   1.611   9.760   6.250
 4488SOL     OW15296  10.984   3.191  14.525
 4488SOL    HW115297  11.056   3.145  14.482
 4488SOL    HW215298  10.921   3.207  14.455
 4489SOL     OW15299   7.381   1.008   5.628
 4489SOL    HW115300   7.391   1.032   5.720
 4489SOL    HW215301   7.385   1.091   5.581
 4490SOL     OW15302   8.829   2.259   5.926
 4490SOL    HW115303   8.885   2.224   5.996
 4490SOL    HW215304   8.825   2.189   5.861
 4491SOL     OW15305  10.935   7.680  14.675
 4491SOL    HW115306  10.874   7.720  14.737
 4491SOL    HW215307  10.917   7.586  14.682
 4492SOL     OW15308  10.838   1.748   1.834
 4492SOL    HW115309  10.810   1.782   1.749
 4492SOL    HW215310  10.782   1.794   1.897
 4493SOL     OW15311  12.009   5.024  13.249
 4493SOL    HW115312  12.038   5.115  13.253
 4493SOL    HW215313  11.957   5.019  13.169
 4494SOL     OW15314  10.984  10.698   5.272
 4494SOL    HW115315  10.956  10.752   5.198
 4494SOL    HW215316  10.923  10.625   5.274
 4495SOL     OW15317  13.799  12.000   1.304
 4495SOL    HW115318  13.856  12.031   1.375
 4495SOL    HW215319  13.714  12.041   1.322
 4496SOL     OW15320  14.309   4.251  14.141
 4496SOL    HW115321  14.396   4.238  14.178
 4496SOL    HW215322  14.300   4.347  14.136
 4497SOL     OW15323  12.327   0.446   3.749
 4497SOL    HW115324  12.383   0.407   3.817
 4497SOL    HW215325  12.249   0.474   3.796
 4498SOL     OW15326   0.848   8.452   3.030
 4498SOL    HW115327   0.904   8.521   3.066
 4498SOL    HW215328   0.870   8.375   3.082
 4499SOL     OW15329  14.733  10.681   3.268
 4499SOL    HW115330  14.724  10.629   3.188
 4499SOL    HW215331  14.642  10.700   3.294
 4500SOL     OW15332   7.836   9.725  14.763
 4500SOL    HW115333   7.891   9.752  14.837
 4500SOL    HW215334   7.782   9.802  14.745
 4501SOL     OW15335   8.842  11.839  10.809
 4501SOL    HW115336   8.835  11.835  10.714
 4501SOL    HW215337   8.755  11.814  10.841
 4502SOL     OW15338   9.501   1.534  14.161
 4502SOL    HW115339   9.547   1.601  14.212
 4502SOL    HW215340   9.442   1.493  14.225
 4503SOL     OW15341  12.255  10.463   7.061
 4503SOL    HW115342  12.307  10.469   7.141
 4503SOL    HW215343  12.181  10.522   7.076
 4504SOL     OW15344   8.853  12.793   4.761
 4504SOL    HW115345   8.882  12.857   4.696
 4504SOL    HW215346   8.759  12.782   4.743
 4505SOL     OW15347   6.100   4.476   7.772
 4505SOL    HW115348   6.138   4.557   7.740
 4505SOL    HW215349   6.066   4.497   7.859
 4506SOL     OW15350  12.989   3.631  10.812
 4506SOL    HW115351  12.955   3.699  10.754
 4506SOL    HW215352  13.062   3.673  10.858
 4507SOL     OW15353   3.808  13.250   5.478
 4507SOL    HW115354   3.718  13.282   5.490
 4507SOL    HW215355   3.813  13.171   5.531
 4508SOL     OW15356   8.953   1.900   2.506
 4508SOL    HW115357   8.894   1.955   2.558
 4508SOL    HW215358   9.033   1.951   2.498
 4509SOL     OW15359   6.405   6.275   0.756
 4509SOL    HW115360   6.419   6.189   0.796
 4509SOL    HW215361   6.472   6.282   0.688
 4510SOL     OW15362   5.428  11.485   5.213
 4510SOL    HW115363   5.365  11.477   5.141
 4510SOL    HW215364   5.514  11.484   5.170
 4511SOL     OW15365   5.634   8.616   7.448
 4511SOL    HW115366   5.725   8.627   7.474
 4511SOL    HW215367   5.599   8.550   7.508
 4512SOL     OW15368   4.281   9.675   0.451
 4512SOL    HW115369   4.289   9.584   0.423
 4512SOL    HW215370   4.294   9.726   0.371
 4513SOL     OW15371   9.370   0.854   0.254
 4513SOL    HW115372   9.426   0.779   0.236
 4513SOL    HW215373   9.285   0.830   0.218
 4514SOL     OW15374   7.270   3.404   4.220
 4514SOL    HW115375   7.254   3.358   4.137
 4514SOL    HW215376   7.182   3.420   4.255
 4515SOL     OW15377  13.212   6.442  14.767
 4515SOL    HW115378  13.236   6.465  14.857
 4515SOL    HW215379  13.262   6.362  14.749
 4516SOL     OW15380   5.507   4.437  10.485
 4516SOL    HW115381   5.581   4.497  10.476
 4516SOL    HW215382   5.431   4.493  10.498
 4517SOL     OW15383   7.204  11.658   3.463
 4517SOL    HW115384   7.114  11.678   3.488
 4517SOL    HW215385   7.220  11.712   3.386
 4518SOL     OW15386   7.675   2.646   5.281
 4518SOL    HW115387   7.714   2.712   5.337
 4518SOL    HW215388   7.740   2.576   5.277
 4519SOL     OW15389   4.421   0.067   0.585
 4519SOL    HW115390   4.472   0.147   0.568
 4519SOL    HW215391   4.392   0.038   0.498
 4520SOL     OW15392   1.236   3.006  13.201
 4520SOL    HW115393   1.244   2.962  13.285
 4520SOL    HW215394   1.255   3.098  13.219
 4521SOL     OW15395   3.227   5.069  10.316
 4521SOL    HW115396   3.137   5.093  10.335
 4521SOL    HW215397   3.257   5.132  10.251
 4522SOL     OW15398   4.167   0.729  13.126
 4522SOL    HW115399   4.121   0.812  13.120
 4522SOL    HW215400   4.246   0.748  13.178
 4523SOL     OW15401  10.078   8.393  12.534
 4523SOL    HW115402  10.032   8.338  12.471
 4523SOL    HW215403  10.035   8.376  12.618
 4524SOL     OW15404   4.328  10.732   7.444
 4524SOL    HW115405   4.417  10.759   7.464
 4524SOL    HW215406   4.337  10.667   7.374
 4525SOL     OW15407   2.948   0.431  13.593
 4525SOL    HW115408   2.890   0.409  13.520
 4525SOL    HW215409   3.019   0.481  13.552
 4526SOL     OW15410   4.812   5.289   7.592
 4526SOL    HW115411   4.735   5.233   7.580
 4526SOL    HW215412   4.855   5.289   7.506
 4527SOL     OW15413   6.987   5.525   5.819
 4527SOL    HW115414   7.065   5.577   5.801
 4527SOL    HW215415   6.948   5.510   5.732
 4528SOL     OW15416  14.198  14.732   5.020
 4528SOL    HW115417  14.110  14.761   4.995
 4528SOL    HW215418  14.255  14.767   4.952
 4529SOL     OW15419   4.092   1.657   5.403
 4529SOL    HW115420   4.052   1.741   5.384
 4529SOL    HW215421   4.019   1.596   5.408
 4530SOL     OW15422  11.426   1.840  10.768
 4530SOL    HW115423  11.374   1.797  10.835
 4530SOL    HW215424  11.367   1.904  10.728
 4531SOL     OW15425   1.675   6.847  13.159
 4531SOL    HW115426   1.749   6.908  13.164
 4531SOL    HW215427   1.610   6.884  13.219
 4532SOL     OW15428   2.393   9.106   4.495
 4532SOL    HW115429   2.401   9.110   4.399
 4532SOL    HW215430   2.426   9.191   4.525
 4533SOL     OW15431  13.162   3.832  13.323
 4533SOL    HW115432  13.247   3.833  13.366
 4533SOL    HW215433  13.171   3.769  13.252
 4534SOL     OW15434  11.605   0.987   2.036
 4534SOL    HW115435  11.698   0.989   2.016
 4534SOL    HW215436  11.578   1.078   2.039
 4535SOL     OW15437   4.649   1.041   1.232
 4535SOL    HW115438   4.716   1.023   1.167
 4535SOL    HW215439   4.687   1.109   1.288
 4536SOL     OW15440   4.055  11.996  12.775
 4536SOL    HW115441   4.084  11.978  12.865
 4536SOL    HW215442   4.133  12.027  12.730
 4537SOL     OW15443   2.887  12.416  10.625
 4537SOL    HW115444   2.962  12.358  10.608
 4537SOL    HW215445   2.810  12.362  10.605
 4538SOL     OW15446  10.249   0.403   0.515
 4538SOL    HW115447  10.265   0.329   0.574
 4538SOL    HW215448  10.293   0.477   0.558
 4539SOL     OW15449   6.874   1.857   3.472
 4539SOL    HW115450   6.903   1.767   3.457
 4539SOL    HW215451   6.934   1.890   3.538
 4540SOL     OW15452   8.241   5.452   6.096
 4540SOL    HW115453   8.332   5.475   6.114
 4540SOL    HW215454   8.232   5.364   6.132
 4541SOL     OW15455   8.866   9.432   6.918
 4541SOL    HW115456   8.784   9.481   6.922
 4541SOL    HW215457   8.933   9.495   6.943
 4542SOL     OW15458  10.773  12.289  10.828
 4542SOL    HW115459  10.768  12.203  10.869
 4542SOL    HW215460  10.827  12.341  10.887
 4543SOL     OW15461   7.864   4.990   7.506
 4543SOL    HW115462   7.927   4.960   7.440
 4543SOL    HW215463   7.828   4.909   7.543
 4544SOL     OW15464   0.897   2.974  10.229
 4544SOL    HW115465   0.866   2.963  10.139
 4544SOL    HW215466   0.979   3.023  10.221
 4545SOL     OW15467   1.808   5.583   3.176
 4545SOL    HW115468   1.857   5.608   3.254
 4545SOL    HW215469   1.873   5.580   3.106
 4546SOL     OW15470   3.242  14.717   6.445
 4546SOL    HW115471   3.317  14.728   6.386
 4546SOL    HW215472   3.200  14.803   6.446
 4547SOL     OW15473  13.015   2.132   1.811
 4547SOL    HW115474  13.026   2.178   1.894
 4547SOL    HW215475  12.996   2.202   1.748
 4548SOL     OW15476   4.015  13.529   4.965
 4548SOL    HW115477   4.047  13.473   4.894
 4548SOL    HW215478   4.066  13.610   4.956
 4549SOL     OW15479  13.207   7.981  12.077
 4549SOL    HW115480  13.234   8.005  11.989
 4549SOL    HW215481  13.111   7.973  12.072
 4550SOL     OW15482  12.460   9.234  11.901
 4550SOL    HW115483  12.413   9.158  11.935
 4550SOL    HW215484  12.401   9.271  11.835
 4551SOL     OW15485  14.683  11.695   8.791
 4551SOL    HW115486  14.643  11.696   8.704
 4551SOL    HW215487  14.630  11.756   8.843
 4552SOL     OW15488   7.033   2.922   6.500
 4552SOL    HW115489   7.095   2.878   6.559
 4552SOL    HW215490   7.077   3.003   6.475
 4553SOL     OW15491   0.222   6.469   1.291
 4553SOL    HW115492   0.181   6.500   1.372
 4553SOL    HW215493   0.169   6.507   1.221
 4554SOL     OW15494  10.878  14.175   0.933
 4554SOL    HW115495  10.938  14.161   1.006
 4554SOL    HW215496  10.867  14.087   0.895
 4555SOL     OW15497   6.757   4.190   8.417
 4555SOL    HW115498   6.826   4.188   8.482
 4555SOL    HW215499   6.741   4.098   8.397
 4556SOL     OW15500   0.438   5.757   6.182
 4556SOL    HW115501   0.522   5.802   6.193
 4556SOL    HW215502   0.399   5.758   6.270
 4557SOL     OW15503   4.243   0.701   8.897
 4557SOL    HW115504   4.217   0.761   8.826
 4557SOL    HW215505   4.272   0.759   8.967
 4558SOL     OW15506   4.860  13.880  10.654
 4558SOL    HW115507   4.850  13.876  10.749
 4558SOL    HW215508   4.876  13.789  10.628
 4559SOL     OW15509   9.111  11.206   8.527
 4559SOL    HW115510   9.026  11.192   8.485
 4559SOL    HW215511   9.174  11.170   8.464
 4560SOL     OW15512  10.311   9.422   7.323
 4560SOL    HW115513  10.395   9.383   7.301
 4560SOL    HW215514  10.273   9.363   7.388
 4561SOL     OW15515   5.095   0.721   9.090
 4561SOL    HW115516   5.017   0.677   9.124
 4561SOL    HW215517   5.164   0.654   9.094
 4562SOL     OW15518  13.770   2.922   7.160
 4562SOL    HW115519  13.865   2.915   7.148
 4562SOL    HW215520  13.760   2.966   7.245
 4563SOL     OW15521   8.878   0.931   8.023
 4563SOL    HW115522   8.936   0.978   7.963
 4563SOL    HW215523   8.832   0.868   7.968
 4564SOL     OW15524  11.247   2.285  11.205
 4564SOL    HW115525  11.174   2.232  11.173
 4564SOL    HW215526  11.308   2.222  11.242
 4565SOL     OW15527   9.738   4.051   8.974
 4565SOL    HW115528   9.809   3.989   8.990
 4565SOL    HW215529   9.712   4.081   9.061
 4566SOL     OW15530   9.385  14.377   1.246
 4566SOL    HW115531   9.404  14.460   1.203
 4566SOL    HW215532   9.403  14.311   1.178
 4567SOL     OW15533   9.811   1.711  11.085
 4567SOL    HW115534   9.881   1.740  11.026
 4567SOL    HW215535   9.854   1.651  11.146
 4568SOL     OW15536  10.345   8.523  14.758
 4568SOL    HW115537  10.320   8.614  14.747
 4568SOL    HW215538  10.383   8.498  14.674
 4569SOL     OW15539   4.330   4.449  12.987
 4569SOL    HW115540   4.287   4.428  12.904
 4569SOL    HW215541   4.273   4.513  13.029
 4570SOL     OW15542  14.264   3.584  10.090
 4570SOL    HW115543  14.187   3.632  10.062
 4570SOL    HW215544  14.325   3.591  10.016
 4571SOL     OW15545  14.846  13.229  12.262
 4571SOL    HW115546   0.035  13.290  12.292
 4571SOL    HW215547  14.764  13.278  12.271
 4572SOL     OW15548  11.564   6.921   5.083
 4572SOL    HW115549  11.507   6.990   5.049
 4572SOL    HW215550  11.513   6.879   5.151
 4573SOL     OW15551   0.867  10.378  14.587
 4573SOL    HW115552   0.936  10.419  14.534
 4573SOL    HW215553   0.788  10.387  14.535
 4574SOL     OW15554   2.354  11.934   1.802
 4574SOL    HW115555   2.350  12.024   1.833
 4574SOL    HW215556   2.302  11.934   1.722
 4575SOL     OW15557   3.056   3.467   0.787
 4575SOL    HW115558   3.045   3.509   0.702
 4575SOL    HW215559   3.012   3.525   0.849
 4576SOL     OW15560   1.775   6.456  12.692
 4576SOL    HW115561   1.850   6.442  12.634
 4576SOL    HW215562   1.704   6.485  12.635
 4577SOL     OW15563  13.903   6.282   1.815
 4577SOL    HW115564  13.852   6.301   1.736
 4577SOL    HW215565  13.869   6.199   1.846
 4578SOL     OW15566  13.880  12.492   2.156
 4578SOL    HW115567  13.869  12.398   2.139
 4578SOL    HW215568  13.975  12.505   2.156
 4579SOL     OW15569  14.436  10.212   7.800
 4579SOL    HW115570  14.350  10.250   7.785
 4579SOL    HW215571  14.442  10.201   7.894
 4580SOL     OW15572   0.366   8.815  14.137
 4580SOL    HW115573   0.307   8.766  14.194
 4580SOL    HW215574   0.413   8.874  14.196
 4581SOL     OW15575   8.741   1.734  10.936
 4581SOL    HW115576   8.700   1.703  10.855
 4581SOL    HW215577   8.745   1.656  10.992
 4582SOL     OW15578   7.430   2.739  14.183
 4582SOL    HW115579   7.515   2.721  14.224
 4582SOL    HW215580   7.369   2.683  14.231
 4583SOL     OW15581   7.359   1.322  11.944
 4583SOL    HW115582   7.408   1.402  11.924
 4583SOL    HW215583   7.325   1.336  12.033
 4584SOL     OW15584   8.926   3.050   1.201
 4584SOL    HW115585   8.903   3.119   1.263
 4584SOL    HW215586   8.946   3.095   1.120
 4585SOL     OW15587  11.375   5.012   5.952
 4585SOL    HW115588  11.358   5.029   5.860
 4585SOL    HW215589  11.455   4.960   5.953
 4586SOL     OW15590   6.581   9.621  11.789
 4586SOL    HW115591   6.673   9.645  11.780
 4586SOL    HW215592   6.563   9.563  11.715
 4587SOL     OW15593   2.388  10.772  12.747
 4587SOL    HW115594   2.353  10.728  12.824
 4587SOL    HW215595   2.414  10.700  12.689
 4588SOL     OW15596   4.652   4.675   5.886
 4588SOL    HW115597   4.575   4.671   5.830
 4588SOL    HW215598   4.624   4.639   5.970
 4589SOL     OW15599   9.153   2.659   6.008
 4589SOL    HW115600   9.166   2.625   5.920
 4589SOL    HW215601   9.060   2.645   6.025
 4590SOL     OW15602   2.706  11.751   9.540
 4590SOL    HW115603   2.631  11.692   9.549
 4590SOL    HW215604   2.773  11.715   9.598
 4591SOL     OW15605   0.935   3.023   4.067
 4591SOL    HW115606   1.007   2.971   4.104
 4591SOL    HW215607   0.929   3.100   4.123
 4592SOL     OW15608  14.053   4.158   4.413
 4592SOL    HW115609  14.115   4.105   4.463
 4592SOL    HW215610  14.043   4.111   4.330
 4593SOL     OW15611   5.278   9.423   3.237
 4593SOL    HW115612   5.316   9.345   3.280
 4593SOL    HW215613   5.184   9.412   3.246
 4594SOL     OW15614  11.638  10.800   2.406
 4594SOL    HW115615  11.561  10.857   2.408
 4594SOL    HW215616  11.683  10.823   2.325
 4595SOL     OW15617  10.950   8.765   8.096
 4595SOL    HW115618  11.037   8.728   8.080
 4595SOL    HW215619  10.917   8.718   8.172
 4596SOL     OW15620  12.992   4.171  12.429
 4596SOL    HW115621  13.082   4.136  12.428
 4596SOL    HW215622  12.958   4.147  12.515
 4597SOL     OW15623   9.010   1.726  10.852
 4597SOL    HW115624   9.026   1.799  10.792
 4597SOL    HW215625   8.916   1.726  10.866
 4598SOL     OW15626   1.257  13.677   6.202
 4598SOL    HW115627   1.239  13.646   6.114
 4598SOL    HW215628   1.208  13.618   6.259
 4599SOL     OW15629   0.890   5.706  13.277
 4599SOL    HW115630   0.886   5.677  13.186
 4599SOL    HW215631   0.862   5.630  13.328
 4600SOL     OW15632   0.108   5.062  13.305
 4600SOL    HW115633   0.035   5.037  13.361
 4600SOL    HW215634   0.099   5.005  13.228
 4601SOL     OW15635  12.199   6.011  10.234
 4601SOL    HW115636  12.229   6.027  10.145
 4601SOL    HW215637  12.245   5.932  10.261
 4602SOL     OW15638   3.761   1.061  10.346
 4602SOL    HW115639   3.853   1.052  10.323
 4602SOL    HW215640   3.721   0.978  10.318
 4603SOL     OW15641   9.390   4.765   4.452
 4603SOL    HW115642   9.458   4.699   4.438
 4603SOL    HW215643   9.422   4.818   4.525
 4604SOL     OW15644  13.677  13.498   1.229
 4604SOL    HW115645  13.594  13.544   1.218
 4604SOL    HW215646  13.739  13.548   1.176
 4605SOL     OW15647  13.093  11.488   8.344
 4605SOL    HW115648  13.017  11.473   8.287
 4605SOL    HW215649  13.056  11.508   8.429
 4606SOL     OW15650   1.283  13.529   4.161
 4606SOL    HW115651   1.203  13.540   4.212
 4606SOL    HW215652   1.342  13.480   4.218
 4607SOL     OW15653   6.955   8.922  14.510
 4607SOL    HW115654   6.905   8.840  14.510
 4607SOL    HW215655   7.035   8.901  14.463
 4608SOL     OW15656   8.623   2.878   0.444
 4608SOL    HW115657   8.709   2.920   0.453
 4608SOL    HW215658   8.563   2.936   0.493
 4609SOL     OW15659   6.783   7.627  13.539
 4609SOL    HW115660   6.687   7.627  13.541
 4609SOL    HW215661   6.808   7.580  13.618
 4610SOL     OW15662   6.525   3.042   5.994
 4610SOL    HW115663   6.439   3.038   6.035
 4610SOL    HW215664   6.586   3.019   6.064
 4611SOL     OW15665   3.537  12.691  10.554
 4611SOL    HW115666   3.602  12.755  10.525
 4611SOL    HW215667   3.482  12.738  10.616
 4612SOL     OW15668   8.799   1.260   6.398
 4612SOL    HW115669   8.743   1.326   6.357
 4612SOL    HW215670   8.873   1.251   6.338
 4613SOL     OW15671   1.098  13.324   7.145
 4613SOL    HW115672   1.042  13.280   7.209
 4613SOL    HW215673   1.160  13.374   7.197
 4614SOL     OW15674  10.387   1.709  14.591
 4614SOL    HW115675  10.473   1.675  14.567
 4614SOL    HW215676  10.342   1.721  14.507
 4615SOL     OW15677   8.869   0.406   7.482
 4615SOL    HW115678   8.857   0.446   7.395
 4615SOL    HW215679   8.951   0.443   7.514
 4616SOL     OW15680  12.274   1.823  13.494
 4616SOL    HW115681  12.212   1.750  13.496
 4616SOL    HW215682  12.234   1.887  13.435
 4617SOL     OW15683   3.444   5.060   4.862
 4617SOL    HW115684   3.386   4.995   4.900
 4617SOL    HW215685   3.505   5.010   4.807
 4618SOL     OW15686  10.119  10.869   6.051
 4618SOL    HW115687  10.117  10.950   6.001
 4618SOL    HW215688  10.165  10.807   5.994
 4619SOL     OW15689   3.511   9.893   1.963
 4619SOL    HW115690   3.570   9.833   2.009
 4619SOL    HW215691   3.563   9.973   1.951
 4620SOL     OW15692  13.850   6.411   8.409
 4620SOL    HW115693  13.870   6.498   8.373
 4620SOL    HW215694  13.807   6.365   8.336
 4621SOL     OW15695   1.159   8.471  13.105
 4621SOL    HW115696   1.089   8.477  13.040
 4621SOL    HW215697   1.142   8.543  13.166
 4622SOL     OW15698  12.231  10.225   5.239
 4622SOL    HW115699  12.274  10.178   5.311
 4622SOL    HW215700  12.293  10.220   5.167
 4623SOL     OW15701   5.904   1.123   0.314
 4623SOL    HW115702   5.937   1.139   0.403
 4623SOL    HW215703   5.978   1.143   0.257
 4624SOL     OW15704   8.948   1.134   0.148
 4624SOL    HW115705   8.944   1.229   0.155
 4624SOL    HW215706   8.880   1.103   0.208
 4625SOL     OW15707   5.662   8.187  11.839
 4625SOL    HW115708   5.757   8.195  11.842
 4625SOL    HW215709   5.636   8.238  11.762
 4626SOL     OW15710   3.009   0.168   2.249
 4626SOL    HW115711   3.100   0.170   2.278
 4626SOL    HW215712   2.996   0.079   2.217
 4627SOL     OW15713   7.184   2.561   0.613
 4627SOL    HW115714   7.155   2.651   0.631
 4627SOL    HW215715   7.103   2.511   0.606
 4628SOL     OW15716   7.919   2.740  14.280
 4628SOL    HW115717   7.928   2.783  14.196
 4628SOL    HW215718   7.912   2.811  14.343
 4629SOL     OW15719   9.377   7.248  14.065
 4629SOL    HW115720   9.312   7.306  14.104
 4629SOL    HW215721   9.407   7.295  13.987
 4630SOL     OW15722   0.248  10.570  12.375
 4630SOL    HW115723   0.164  10.605  12.346
 4630SOL    HW215724   0.248  10.479  12.345
 4631SOL     OW15725  12.769   5.215   7.425
 4631SOL    HW115726  12.811   5.131   7.406
 4631SOL    HW215727  12.835   5.264   7.474
 4632SOL     OW15728  12.187  10.771  10.812
 4632SOL    HW115729  12.123  10.812  10.871
 4632SOL    HW215730  12.153  10.788  10.724
 4633SOL     OW15731   9.569  14.157  11.906
 4633SOL    HW115732   9.560  14.213  11.829
 4633SOL    HW215733   9.598  14.216  11.975
 4634SOL     OW15734   9.556   1.506   4.654
 4634SOL    HW115735   9.625   1.447   4.625
 4634SOL    HW215736   9.534   1.557   4.576
 4635SOL     OW15737   7.445   8.187   2.347
 4635SOL    HW115738   7.435   8.221   2.257
 4635SOL    HW215739   7.458   8.266   2.400
 4636SOL     OW15740   4.522   1.771   9.945
 4636SOL    HW115741   4.611   1.797   9.920
 4636SOL    HW215742   4.473   1.770   9.862
 4637SOL     OW15743   9.721   3.505   1.548
 4637SOL    HW115744   9.659   3.456   1.493
 4637SOL    HW215745   9.727   3.591   1.505
 4638SOL     OW15746  11.039   5.586   4.996
 4638SOL    HW115747  11.076   5.638   4.924
 4638SOL    HW215748  10.945   5.582   4.976
 4639SOL     OW15749   2.575   9.501  13.992
 4639SOL    HW115750   2.554   9.580  13.943
 4639SOL    HW215751   2.625   9.448  13.930
 4640SOL     OW15752   2.752   1.061  14.122
 4640SOL    HW115753   2.819   0.999  14.151
 4640SOL    HW215754   2.675   1.007  14.106
 4641SOL     OW15755   4.417   1.479  14.302
 4641SOL    HW115756   4.347   1.448  14.360
 4641SOL    HW215757   4.454   1.398  14.265
 4642SOL     OW15758   3.505  14.059   1.702
 4642SOL    HW115759   3.526  13.980   1.652
 4642SOL    HW215760   3.570  14.060   1.772
 4643SOL     OW15761  13.929  12.344   3.607
 4643SOL    HW115762  13.945  12.423   3.658
 4643SOL    HW215763  13.884  12.374   3.528
 4644SOL     OW15764  10.468   1.251   8.209
 4644SOL    HW115765  10.418   1.281   8.286
 4644SOL    HW215766  10.549   1.216   8.246
 4645SOL     OW15767   7.555   1.583   1.022
 4645SOL    HW115768   7.592   1.638   0.952
 4645SOL    HW215769   7.502   1.518   0.976
 4646SOL     OW15770  13.066   9.167   9.724
 4646SOL    HW115771  13.149   9.130   9.754
 4646SOL    HW215772  13.090   9.220   9.647
 4647SOL     OW15773   0.846   0.661  12.838
 4647SOL    HW115774   0.800   0.595  12.787
 4647SOL    HW215775   0.814   0.650  12.927
 4648SOL     OW15776   9.807   3.332   4.440
 4648SOL    HW115777   9.789   3.277   4.517
 4648SOL    HW215778   9.791   3.421   4.471
 4649SOL     OW15779   0.255  13.103   4.793
 4649SOL    HW115780   0.277  13.019   4.834
 4649SOL    HW215781   0.215  13.078   4.709
 4650SOL     OW15782   2.687  12.771   9.091
 4650SOL    HW115783   2.596  12.764   9.063
 4650SOL    HW215784   2.685  12.831   9.165
 4651SOL     OW15785   6.489   6.417   1.706
 4651SOL    HW115786   6.494   6.321   1.708
 4651SOL    HW215787   6.438   6.437   1.627
 4652SOL     OW15788  13.836   3.013   9.262
 4652SOL    HW115789  13.759   2.984   9.212
 4652SOL    HW215790  13.910   2.985   9.209
 4653SOL     OW15791   3.021  10.811   4.533
 4653SOL    HW115792   3.041  10.728   4.490
 4653SOL    HW215793   2.976  10.863   4.467
 4654SOL     OW15794   9.347   4.685   3.683
 4654SOL    HW115795   9.424   4.711   3.632
 4654SOL    HW215796   9.383   4.640   3.759
 4655SOL     OW15797   1.353   8.057  13.038
 4655SOL    HW115798   1.353   8.123  13.107
 4655SOL    HW215799   1.321   8.103  12.961
 4656SOL     OW15800  11.495   4.165   2.015
 4656SOL    HW115801  11.498   4.187   1.922
 4656SOL    HW215802  11.573   4.110   2.029
 4657SOL     OW15803   3.438   7.028  12.610
 4657SOL    HW115804   3.457   6.951  12.664
 4657SOL    HW215805   3.459   7.102  12.667
 4658SOL     OW15806   5.076  13.411   4.980
 4658SOL    HW115807   5.054  13.466   4.905
 4658SOL    HW215808   5.170  13.395   4.971
 4659SOL     OW15809  13.026   1.295   3.578
 4659SOL    HW115810  13.074   1.338   3.649
 4659SOL    HW215811  12.934   1.303   3.604
 4660SOL     OW15812  11.423  14.813   9.249
 4660SOL    HW115813  11.472  14.877   9.302
 4660SOL    HW215814  11.396  14.746   9.312
 4661SOL     OW15815   3.532  14.376   9.132
 4661SOL    HW115816   3.597  14.446   9.136
 4661SOL    HW215817   3.565  14.309   9.192
 4662SOL     OW15818  11.680  12.640   2.257
 4662SOL    HW115819  11.712  12.706   2.318
 4662SOL    HW215820  11.670  12.561   2.310
 4663SOL     OW15821   0.331   7.041  10.154
 4663SOL    HW115822   0.304   7.042  10.246
 4663SOL    HW215823   0.252   7.016  10.106
 4664SOL     OW15824   1.791   2.292   4.572
 4664SOL    HW115825   1.849   2.245   4.512
 4664SOL    HW215826   1.828   2.278   4.659
 4665SOL     OW15827  10.379  13.555   8.175
 4665SOL    HW115828  10.449  13.611   8.141
 4665SOL    HW215829  10.418  13.513   8.251
 4666SOL     OW15830  10.455   7.820  11.543
 4666SOL    HW115831  10.517   7.852  11.609
 4666SOL    HW215832  10.477   7.727  11.534
 4667SOL     OW15833   2.523  12.207   7.208
 4667SOL    HW115834   2.470  12.249   7.141
 4667SOL    HW215835   2.592  12.162   7.160
 4668SOL     OW15836  12.959   9.063   3.895
 4668SOL    HW115837  12.900   9.132   3.865
 4668SOL    HW215838  12.959   8.999   3.824
 4669SOL     OW15839   4.298   5.991   7.172
 4669SOL    HW115840   4.209   6.011   7.199
 4669SOL    HW215841   4.340   6.077   7.162
 4670SOL     OW15842   5.402   6.574  14.651
 4670SOL    HW115843   5.391   6.482  14.626
 4670SOL    HW215844   5.433   6.571  14.741
 4671SOL     OW15845   8.470   9.506  13.382
 4671SOL    HW115846   8.557   9.503  13.342
 4671SOL    HW215847   8.454   9.416  13.410
 4672SOL     OW15848   5.867   6.440   1.256
 4672SOL    HW115849   5.883   6.534   1.261
 4672SOL    HW215850   5.954   6.401   1.252
 4673SOL     OW15851  11.820   3.065   7.285
 4673SOL    HW115852  11.850   2.991   7.337
 4673SOL    HW215853  11.843   3.142   7.336
 4674SOL     OW15854  11.237   1.058   2.152
 4674SOL    HW115855  11.307   1.047   2.088
 4674SOL    HW215856  11.253   0.990   2.218
 4675SOL     OW15857   6.732  11.520   3.559
 4675SOL    HW115858   6.792  11.447   3.545
 4675SOL    HW215859   6.652  11.494   3.513
 4676SOL     OW15860   7.306  14.212   9.343
 4676SOL    HW115861   7.238  14.265   9.386
 4676SOL    HW215862   7.388  14.255   9.367
 4677SOL     OW15863   9.136   7.416   1.308
 4677SOL    HW115864   9.115   7.326   1.333
 4677SOL    HW215865   9.064   7.442   1.251
 4678SOL     OW15866  12.352   3.151   5.204
 4678SOL    HW115867  12.350   3.225   5.143
 4678SOL    HW215868  12.445   3.137   5.223
 4679SOL     OW15869   8.890   4.429  13.733
 4679SOL    HW115870   8.953   4.409  13.663
 4679SOL    HW215871   8.872   4.523  13.722
 4680SOL     OW15872   8.654   9.995   3.301
 4680SOL    HW115873   8.608   9.940   3.238
 4680SOL    HW215874   8.657   9.943   3.381
 4681SOL     OW15875  11.554  14.639   1.071
 4681SOL    HW115876  11.503  14.566   1.107
 4681SOL    HW215877  11.515  14.655   0.985
 4682SOL     OW15878   9.215   7.856   9.886
 4682SOL    HW115879   9.199   7.770   9.848
 4682SOL    HW215880   9.225   7.914   9.811
 4683SOL     OW15881   4.652   7.829   9.970
 4683SOL    HW115882   4.559   7.808   9.977
 4683SOL    HW215883   4.656   7.895   9.901
 4684SOL     OW15884   4.717   7.269   2.421
 4684SOL    HW115885   4.698   7.357   2.390
 4684SOL    HW215886   4.803   7.276   2.464
 4685SOL     OW15887  14.558   0.071   1.200
 4685SOL    HW115888  14.562   0.167   1.209
 4685SOL    HW215889  14.647   0.041   1.220
 4686SOL     OW15890  12.091  12.347  11.337
 4686SOL    HW115891  12.062  12.324  11.426
 4686SOL    HW215892  12.091  12.264  11.290
 4687SOL     OW15893   1.125  11.084   2.614
 4687SOL    HW115894   1.040  11.063   2.653
 4687SOL    HW215895   1.112  11.072   2.520
 4688SOL     OW15896  10.417   0.241  14.254
 4688SOL    HW115897  10.511   0.224  14.259
 4688SOL    HW215898  10.384   0.219  14.342
 4689SOL     OW15899   6.337   2.149   6.636
 4689SOL    HW115900   6.306   2.116   6.721
 4689SOL    HW215901   6.378   2.233   6.657
 4690SOL     OW15902   2.548  13.665   2.205
 4690SOL    HW115903   2.579  13.595   2.147
 4690SOL    HW215904   2.623  13.688   2.259
 4691SOL     OW15905   2.078  14.654   4.160
 4691SOL    HW115906   2.018  14.632   4.231
 4691SOL    HW215907   2.120  14.570   4.138
 4692SOL     OW15908   5.865   2.898   7.221
 4692SOL    HW115909   5.944   2.945   7.245
 4692SOL    HW215910   5.840   2.850   7.300
 4693SOL     OW15911   4.951   3.502   5.358
 4693SOL    HW115912   4.902   3.582   5.377
 4693SOL    HW215913   4.992   3.478   5.442
 4694SOL     OW15914  12.457   0.978  13.908
 4694SOL    HW115915  12.434   0.965  14.000
 4694SOL    HW215916  12.433   0.895  13.866
 4695SOL     OW15917  10.746   2.877  13.129
 4695SOL    HW115918  10.712   2.936  13.062
 4695SOL    HW215919  10.706   2.792  13.108
 4696SOL     OW15920   1.085   7.608  13.701
 4696SOL    HW115921   0.991   7.592  13.708
 4696SOL    HW215922   1.126   7.538  13.752
 4697SOL     OW15923  14.090   4.127   6.819
 4697SOL    HW115924  14.049   4.131   6.906
 4697SOL    HW215925  14.114   4.035   6.808
 4698SOL     OW15926  14.077  11.122   8.707
 4698SOL    HW115927  14.040  11.115   8.619
 4698SOL    HW215928  14.074  11.216   8.726
 4699SOL     OW15929  14.144  11.874   3.491
 4699SOL    HW115930  14.104  11.788   3.504
 4699SOL    HW215931  14.080  11.936   3.524
 4700SOL     OW15932   7.513  12.434   2.114
 4700SOL    HW115933   7.551  12.485   2.043
 4700SOL    HW215934   7.573  12.361   2.127
 4701SOL     OW15935  10.116   0.973   0.435
 4701SOL    HW115936  10.209   0.966   0.454
 4701SOL    HW215937  10.077   0.898   0.481
 4702SOL     OW15938   3.053  14.138  12.690
 4702SOL    HW115939   3.063  14.231  12.669
 4702SOL    HW215940   3.136  14.114  12.734
 4703SOL     OW15941   2.745   3.543   5.100
 4703SOL    HW115942   2.737   3.623   5.049
 4703SOL    HW215943   2.742   3.572   5.192
 4704SOL     OW15944  12.732   7.947   7.161
 4704SOL    HW115945  12.825   7.959   7.142
 4704SOL    HW215946  12.730   7.877   7.226
 4705SOL     OW15947   9.057   1.548   6.441
 4705SOL    HW115948   9.117   1.480   6.472
 4705SOL    HW215949   8.987   1.550   6.506
 4706SOL     OW15950   1.309   6.915   1.500
 4706SOL    HW115951   1.374   6.952   1.559
 4706SOL    HW215952   1.237   6.979   1.501
 4707SOL     OW15953   5.197  10.755   8.308
 4707SOL    HW115954   5.139  10.682   8.286
 4707SOL    HW215955   5.284  10.726   8.281
 4708SOL     OW15956  12.580  13.228  12.639
 4708SOL    HW115957  12.506  13.284  12.661
 4708SOL    HW215958  12.549  13.173  12.567
 4709SOL     OW15959   1.313   2.713   1.494
 4709SOL    HW115960   1.319   2.757   1.579
 4709SOL    HW215961   1.319   2.620   1.515
 4710SOL     OW15962   7.177   3.319   1.352
 4710SOL    HW115963   7.255   3.347   1.304
 4710SOL    HW215964   7.106   3.369   1.313
 4711SOL     OW15965  12.479  12.228   9.288
 4711SOL    HW115966  12.504  12.137   9.302
 4711SOL    HW215967  12.496  12.271   9.372
 4712SOL     OW15968   2.940   6.248   0.182
 4712SOL    HW115969   2.937   6.315   0.250
 4712SOL    HW215970   2.922   6.166   0.227
 4713SOL     OW15971   5.160   3.092   6.448
 4713SOL    HW115972   5.082   3.119   6.398
 4713SOL    HW215973   5.134   3.105   6.540
 4714SOL     OW15974   7.949   6.238   8.235
 4714SOL    HW115975   7.972   6.327   8.207
 4714SOL    HW215976   8.017   6.183   8.198
 4715SOL     OW15977  11.367  12.857  13.149
 4715SOL    HW115978  11.280  12.896  13.138
 4715SOL    HW215979  11.415  12.919  13.204
 4716SOL     OW15980   3.529   3.234   6.392
 4716SOL    HW115981   3.550   3.152   6.348
 4716SOL    HW215982   3.452   3.214   6.445
 4717SOL     OW15983   0.588   5.208   2.190
 4717SOL    HW115984   0.626   5.167   2.113
 4717SOL    HW215985   0.494   5.205   2.176
 4718SOL     OW15986  10.458   1.472   8.013
 4718SOL    HW115987  10.436   1.419   8.090
 4718SOL    HW215988  10.473   1.407   7.944
 4719SOL     OW15989   3.538   0.579  10.138
 4719SOL    HW115990   3.548   0.500  10.085
 4719SOL    HW215991   3.532   0.651  10.074
 4720SOL     OW15992  11.671   1.801  12.817
 4720SOL    HW115993  11.692   1.894  12.806
 4720SOL    HW215994  11.584   1.801  12.859
 4721SOL     OW15995   8.281   9.173   2.313
 4721SOL    HW115996   8.265   9.178   2.407
 4721SOL    HW215997   8.246   9.254   2.277
 4722SOL     OW15998   0.511  12.940   6.228
 4722SOL    HW115999   0.475  12.983   6.150
 4722SOL    HW216000   0.517  13.010   6.293
 4723SOL     OW16001   7.408   5.481  10.235
 4723SOL    HW116002   7.423   5.445  10.147
 4723SOL    HW216003   7.450   5.419  10.294
 4724SOL     OW16004   2.587   7.217   0.887
 4724SOL    HW116005   2.495   7.224   0.914
 4724SOL    HW216006   2.585   7.232   0.792
 4725SOL     OW16007   5.677   5.785   7.344
 4725SOL    HW116008   5.689   5.740   7.260
 4725SOL    HW216009   5.745   5.853   7.344
 4726SOL     OW16010   8.758   4.345   1.351
 4726SOL    HW116011   8.813   4.397   1.293
 4726SOL    HW216012   8.674   4.337   1.304
 4727SOL     OW16013   8.725  12.375   6.975
 4727SOL    HW116014   8.635  12.407   6.978
 4727SOL    HW216015   8.730  12.324   6.894
 4728SOL     OW16016  14.144   4.415   4.345
 4728SOL    HW116017  14.112   4.327   4.367
 4728SOL    HW216018  14.136   4.465   4.426
 4729SOL     OW16019   8.562   5.216   5.051
 4729SOL    HW116020   8.636   5.274   5.033
 4729SOL    HW216021   8.601   5.129   5.059
 4730SOL     OW16022   8.141  13.453   9.738
 4730SOL    HW116023   8.224  13.412   9.760
 4730SOL    HW216024   8.088  13.383   9.700
 4731SOL     OW16025   7.817   5.953   0.852
 4731SOL    HW116026   7.869   5.949   0.772
 4731SOL    HW216027   7.755   5.880   0.844
 4732SOL     OW16028   0.825   0.544   1.749
 4732SOL    HW116029   0.809   0.605   1.821
 4732SOL    HW216030   0.917   0.520   1.758
 4733SOL     OW16031   3.255   8.545   6.333
 4733SOL    HW116032   3.200   8.532   6.410
 4733SOL    HW216033   3.206   8.607   6.279
 4734SOL     OW16034   8.785   7.999   8.750
 4734SOL    HW116035   8.778   8.087   8.787
 4734SOL    HW216036   8.876   7.975   8.763
 4735SOL     OW16037   2.079   1.164   9.057
 4735SOL    HW116038   2.108   1.090   9.111
 4735SOL    HW216039   1.984   1.163   9.065
 4736SOL     OW16040   5.054   0.410   2.413
 4736SOL    HW116041   4.999   0.440   2.485
 4736SOL    HW216042   5.114   0.347   2.454
 4737SOL     OW16043   0.158   8.853   1.377
 4737SOL    HW116044   0.120   8.907   1.307
 4737SOL    HW216045   0.204   8.916   1.433
 4738SOL     OW16046   1.250  12.699   5.988
 4738SOL    HW116047   1.305  12.703   5.910
 4738SOL    HW216048   1.285  12.626   6.039
 4739SOL     OW16049  10.665   2.318   6.823
 4739SOL    HW116050  10.744   2.362   6.789
 4739SOL    HW216051  10.601   2.326   6.752
 4740SOL     OW16052   4.884   1.180  14.862
 4740SOL    HW116053   4.942   1.161   0.057
 4740SOL    HW216054   4.828   1.251   0.014
 4741SOL     OW16055  13.711  11.421   3.157
 4741SOL    HW116056  13.619  11.400   3.147
 4741SOL    HW216057  13.751  11.339   3.188
 4742SOL     OW16058  10.822   8.430   8.715
 4742SOL    HW116059  10.765   8.494   8.759
 4742SOL    HW216060  10.880   8.484   8.661
 4743SOL     OW16061  11.255   2.503   4.408
 4743SOL    HW116062  11.185   2.438   4.408
 4743SOL    HW216063  11.324   2.464   4.355
 4744SOL     OW16064   1.360   0.735   8.218
 4744SOL    HW116065   1.283   0.792   8.225
 4744SOL    HW216066   1.326   0.647   8.234
 4745SOL     OW16067  14.740   0.549   5.322
 4745SOL    HW116068  14.804   0.535   5.252
 4745SOL    HW216069  14.655   0.542   5.278
 4746SOL     OW16070   6.360  13.982   2.901
 4746SOL    HW116071   6.359  13.997   2.807
 4746SOL    HW216072   6.406  13.898   2.911
 4747SOL     OW16073  13.400  11.722   8.102
 4747SOL    HW116074  13.359  11.767   8.028
 4747SOL    HW216075  13.484  11.690   8.068
 4748SOL     OW16076  12.263   9.242   1.539
 4748SOL    HW116077  12.214   9.224   1.459
 4748SOL    HW216078  12.355   9.243   1.512
 4749SOL     OW16079   8.239   4.203  14.420
 4749SOL    HW116080   8.334   4.211  14.423
 4749SOL    HW216081   8.220   4.121  14.465
 4750SOL     OW16082   6.308   9.505  14.879
 4750SOL    HW116083   6.225   9.462  14.858
 4750SOL    HW216084   6.368   9.476  14.810
 4751SOL     OW16085   5.706  12.568   9.531
 4751SOL    HW116086   5.675  12.657   9.510
 4751SOL    HW216087   5.794  12.565   9.493
 4752SOL     OW16088   0.710  14.675  14.653
 4752SOL    HW116089   0.801  14.652  14.672
 4752SOL    HW216090   0.662  14.593  14.665
 4753SOL     OW16091  14.846   3.815   8.397
 4753SOL    HW116092  14.879   3.758   8.327
 4753SOL    HW216093  14.865   3.767   8.478
 4754SOL     OW16094  10.493   0.390   6.997
 4754SOL    HW116095  10.560   0.398   6.929
 4754SOL    HW216096  10.417   0.355   6.953
 4755SOL     OW16097  14.527   0.285   4.690
 4755SOL    HW116098  14.556   0.371   4.721
 4755SOL    HW216099  14.483   0.303   4.607
 4756SOL     OW16100   3.919   1.530  11.899
 4756SOL    HW116101   3.860   1.597  11.932
 4756SOL    HW216102   3.981   1.515  11.971
 4757SOL     OW16103   4.840  13.362   0.298
 4757SOL    HW116104   4.899  13.429   0.332
 4757SOL    HW216105   4.773  13.411   0.251
 4758SOL     OW16106  10.201  12.969   3.517
 4758SOL    HW116107  10.144  13.000   3.447
 4758SOL    HW216108  10.253  12.899   3.477
 4759SOL     OW16109  13.266   4.785   8.045
 4759SOL    HW116110  13.240   4.815   8.132
 4759SOL    HW216111  13.254   4.862   7.989
 4760SOL     OW16112  13.548   0.203   8.146
 4760SOL    HW116113  13.642   0.190   8.149
 4760SOL    HW216114  13.512   0.114   8.138
 4761SOL     OW16115   4.278   3.747   2.739
 4761SOL    HW116116   4.359   3.798   2.735
 4761SOL    HW216117   4.306   3.656   2.734
 4762SOL     OW16118   1.241  12.402   2.034
 4762SOL    HW116119   1.273  12.413   2.123
 4762SOL    HW216120   1.313  12.359   1.988
 4763SOL     OW16121   3.445  13.232  13.359
 4763SOL    HW116122   3.377  13.168  13.380
 4763SOL    HW216123   3.399  13.316  13.358
 4764SOL     OW16124   2.660   7.635   2.529
 4764SOL    HW116125   2.716   7.642   2.606
 4764SOL    HW216126   2.580   7.592   2.561
 4765SOL     OW16127   7.238   3.688   7.524
 4765SOL    HW116128   7.292   3.634   7.581
 4765SOL    HW216129   7.297   3.714   7.453
 4766SOL     OW16130  14.857   8.627   1.461
 4766SOL    HW116131  14.864   8.672   1.377
 4766SOL    HW216132   0.037   8.552   1.453
 4767SOL     OW16133  14.135   3.639   6.849
 4767SOL    HW116134  14.162   3.559   6.895
 4767SOL    HW216135  14.047   3.620   6.818
 4768SOL     OW16136  14.415   5.951  12.212
 4768SOL    HW116137  14.440   5.938  12.303
 4768SOL    HW216138  14.422   6.046  12.199
 4769SOL     OW16139   3.787   9.146  14.797
 4769SOL    HW116140   3.826   9.215  14.743
 4769SOL    HW216141   3.700   9.133  14.760
 4770SOL     OW16142   3.918  13.729   8.127
 4770SOL    HW116143   3.916  13.659   8.193
 4770SOL    HW216144   3.826  13.752   8.116
 4771SOL     OW16145   4.796  12.148   9.941
 4771SOL    HW116146   4.733  12.219   9.958
 4771SOL    HW216147   4.848  12.179   9.867
 4772SOL     OW16148  14.388   7.879  10.125
 4772SOL    HW116149  14.302   7.836  10.120
 4772SOL    HW216150  14.446   7.811  10.160
 4773SOL     OW16151  12.249   7.828  12.088
 4773SOL    HW116152  12.193   7.806  12.013
 4773SOL    HW216153  12.307   7.753  12.098
 4774SOL     OW16154   8.809   0.610  12.696
 4774SOL    HW116155   8.725   0.655  12.706
 4774SOL    HW216156   8.786   0.517  12.693
 4775SOL     OW16157  13.569   8.237   4.316
 4775SOL    HW116158  13.640   8.291   4.281
 4775SOL    HW216159  13.590   8.148   4.287
 4776SOL     OW16160   3.380   8.950   3.744
 4776SOL    HW116161   3.326   9.016   3.701
 4776SOL    HW216162   3.366   8.964   3.838
 4777SOL     OW16163   0.353   8.493   2.895
 4777SOL    HW116164   0.415   8.464   2.961
 4777SOL    HW216165   0.390   8.461   2.812
 4778SOL     OW16166   2.770   6.984   0.529
 4778SOL    HW116167   2.701   6.932   0.568
 4778SOL    HW216168   2.813   7.027   0.603
 4779SOL     OW16169   1.520   4.197   5.638
 4779SOL    HW116170   1.462   4.266   5.607
 4779SOL    HW216171   1.524   4.134   5.565
 4780SOL     OW16172  12.531  10.627   8.190
 4780SOL    HW116173  12.475  10.704   8.197
 4780SOL    HW216174  12.498  10.580   8.113
 4781SOL     OW16175  11.052  12.802  14.036
 4781SOL    HW116176  11.027  12.737  13.970
 4781SOL    HW216177  11.005  12.881  14.011
 4782SOL     OW16178  10.708   5.340   2.572
 4782SOL    HW116179  10.673   5.345   2.661
 4782SOL    HW216180  10.633   5.319   2.517
 4783SOL     OW16181  10.715   9.935  10.344
 4783SOL    HW116182  10.641   9.897  10.392
 4783SOL    HW216183  10.762   9.987  10.409
 4784SOL     OW16184   0.073  10.205  11.866
 4784SOL    HW116185   0.023  10.277  11.827
 4784SOL    HW216186   0.105  10.156  11.791
 4785SOL     OW16187   9.944  13.424  12.814
 4785SOL    HW116188   9.855  13.457  12.818
 4785SOL    HW216189   9.951  13.364  12.889
 4786SOL     OW16190   7.155   5.600   9.341
 4786SOL    HW116191   7.080   5.603   9.282
 4786SOL    HW216192   7.208   5.676   9.317
 4787SOL     OW16193   0.708  14.833   4.910
 4787SOL    HW116194   0.741   0.028   4.859
 4787SOL    HW216195   0.779  14.768   4.908
 4788SOL     OW16196  14.055   4.811   8.963
 4788SOL    HW116197  13.973   4.805   9.012
 4788SOL    HW216198  14.073   4.722   8.934
 4789SOL     OW16199   3.804   1.420  14.465
 4789SOL    HW116200   3.771   1.462  14.544
 4789SOL    HW216201   3.799   1.488  14.398
 4790SOL     OW16202   3.702   9.927  10.021
 4790SOL    HW116203   3.662   9.938  10.107
 4790SOL    HW216204   3.674   9.840   9.992
 4791SOL     OW16205  11.735   8.431   1.419
 4791SOL    HW116206  11.689   8.450   1.338
 4791SOL    HW216207  11.787   8.509   1.437
 4792SOL     OW16208   9.676   1.493  10.231
 4792SOL    HW116209   9.660   1.418  10.173
 4792SOL    HW216210   9.762   1.525  10.206
 4793SOL     OW16211   9.955   8.386   3.250
 4793SOL    HW116212   9.996   8.453   3.195
 4793SOL    HW216213   9.867   8.419   3.268
 4794SOL     OW16214   1.593   3.208  11.170
 4794SOL    HW116215   1.664   3.181  11.228
 4794SOL    HW216216   1.620   3.294  11.138
 4795SOL     OW16217   2.093   8.379  11.198
 4795SOL    HW116218   2.105   8.353  11.289
 4795SOL    HW216219   2.100   8.297  11.149
 4796SOL     OW16220  13.107   2.241  11.837
 4796SOL    HW116221  13.104   2.146  11.854
 4796SOL    HW216222  13.172   2.274  11.899
 4797SOL     OW16223  12.241  12.831  10.477
 4797SOL    HW116224  12.178  12.890  10.519
 4797SOL    HW216225  12.324  12.879  10.478
 4798SOL     OW16226   1.937   4.108   3.905
 4798SOL    HW116227   1.947   4.100   3.810
 4798SOL    HW216228   1.899   4.194   3.917
 4799SOL     OW16229  11.009   9.252  11.697
 4799SOL    HW116230  11.063   9.250  11.777
 4799SOL    HW216231  11.036   9.175  11.648
 4800SOL     OW16232   9.145   9.816   8.043
 4800SOL    HW116233   9.150   9.755   7.970
 4800SOL    HW216234   9.067   9.788   8.092
 4801SOL     OW16235   7.146  11.091   9.941
 4801SOL    HW116236   7.125  11.137   9.860
 4801SOL    HW216237   7.196  11.155   9.992
 4802SOL     OW16238  13.337   4.471   6.792
 4802SOL    HW116239  13.360   4.434   6.878
 4802SOL    HW216240  13.402   4.539   6.778
 4803SOL     OW16241  11.390   9.316   9.663
 4803SOL    HW116242  11.307   9.336   9.618
 4803SOL    HW216243  11.363   9.292   9.752
 4804SOL     OW16244   6.224   5.578  10.731
 4804SOL    HW116245   6.220   5.525  10.811
 4804SOL    HW216246   6.208   5.668  10.760
 4805SOL     OW16247  12.157   5.511   0.623
 4805SOL    HW116248  12.201   5.571   0.563
 4805SOL    HW216249  12.223   5.444   0.642
 4806SOL     OW16250   8.406   6.525   5.584
 4806SOL    HW116251   8.458   6.532   5.504
 4806SOL    HW216252   8.347   6.452   5.569
 4807SOL     OW16253   4.093  12.028   5.348
 4807SOL    HW116254   4.033  12.059   5.416
 4807SOL    HW216255   4.164  11.985   5.396
 4808SOL     OW16256   0.296   8.637   3.712
 4808SOL    HW116257   0.217   8.589   3.686
 4808SOL    HW216258   0.268   8.688   3.788
 4809SOL     OW16259   2.526   3.234  10.024
 4809SOL    HW116260   2.602   3.187  10.059
 4809SOL    HW216261   2.562   3.312   9.983
 4810SOL     OW16262  10.328   3.157  10.708
 4810SOL    HW116263  10.245   3.169  10.754
 4810SOL    HW216264  10.332   3.063  10.690
 4811SOL     OW16265  14.591   8.695   9.196
 4811SOL    HW116266  14.505   8.652   9.198
 4811SOL    HW216267  14.606   8.722   9.287
 4812SOL     OW16268  10.823   3.652   8.909
 4812SOL    HW116269  10.746   3.635   8.856
 4812SOL    HW216270  10.857   3.736   8.876
 4813SOL     OW16271   4.672   9.500   4.135
 4813SOL    HW116272   4.767   9.512   4.128
 4813SOL    HW216273   4.654   9.423   4.082
 4814SOL     OW16274   8.133   4.170   7.215
 4814SOL    HW116275   8.082   4.099   7.176
 4814SOL    HW216276   8.207   4.126   7.258
 4815SOL     OW16277   6.316   9.612   1.424
 4815SOL    HW116278   6.244   9.566   1.380
 4815SOL    HW216279   6.274   9.680   1.476
 4816SOL     OW16280   6.752   6.263  10.762
 4816SOL    HW116281   6.680   6.313  10.724
 4816SOL    HW216282   6.754   6.182  10.711
 4817SOL     OW16283   7.764   4.806  10.234
 4817SOL    HW116284   7.827   4.765  10.174
 4817SOL    HW216285   7.808   4.885  10.265
 4818SOL     OW16286   3.016  12.472  13.324
 4818SOL    HW116287   3.062  12.486  13.407
 4818SOL    HW216288   2.940  12.419  13.347
 4819SOL     OW16289  12.562   0.865  11.842
 4819SOL    HW116290  12.480   0.854  11.795
 4819SOL    HW216291  12.583   0.958  11.833
 4820SOL     OW16292   5.374  11.810   0.080
 4820SOL    HW116293   5.300  11.751   0.077
 4820SOL    HW216294   5.428  11.786   0.004
 4821SOL     OW16295  13.315   0.107  13.727
 4821SOL    HW116296  13.236   0.070  13.766
 4821SOL    HW216297  13.361   0.032  13.688
 4822SOL     OW16298  11.100   1.969  11.583
 4822SOL    HW116299  11.174   1.915  11.610
 4822SOL    HW216300  11.068   2.008  11.665
 4823SOL     OW16301  14.259   3.204   8.075
 4823SOL    HW116302  14.309   3.277   8.110
 4823SOL    HW216303  14.286   3.129   8.128
 4824SOL     OW16304   9.950   4.051   8.181
 4824SOL    HW116305   9.964   4.081   8.091
 4824SOL    HW216306   9.952   3.956   8.176
 4825SOL     OW16307  13.433  11.781   9.727
 4825SOL    HW116308  13.450  11.687   9.733
 4825SOL    HW216309  13.516  11.818   9.697
 4826SOL     OW16310  14.191   7.058   6.175
 4826SOL    HW116311  14.174   7.030   6.265
 4826SOL    HW216312  14.105   7.053   6.132
 4827SOL     OW16313   9.111   3.620  10.618
 4827SOL    HW116314   9.200   3.601  10.646
 4827SOL    HW216315   9.121   3.679  10.543
 4828SOL     OW16316  14.301   8.384   0.397
 4828SOL    HW116317  14.296   8.480   0.393
 4828SOL    HW216318  14.256   8.354   0.318
 4829SOL     OW16319   2.782   8.776  13.523
 4829SOL    HW116320   2.753   8.731  13.444
 4829SOL    HW216321   2.735   8.860  13.522
 4830SOL     OW16322   9.831  14.158   7.347
 4830SOL    HW116323   9.877  14.219   7.290
 4830SOL    HW216324   9.774  14.109   7.289
 4831SOL     OW16325   5.333  11.959   8.139
 4831SOL    HW116326   5.317  11.901   8.065
 4831SOL    HW216327   5.319  11.905   8.216
 4832SOL     OW16328   4.017   0.419  12.679
 4832SOL    HW116329   3.953   0.489  12.695
 4832SOL    HW216330   3.998   0.354  12.747
 4833SOL     OW16331  11.183  11.335   6.626
 4833SOL    HW116332  11.221  11.408   6.578
 4833SOL    HW216333  11.250  11.267   6.626
 4834SOL     OW16334   0.005  12.235   1.771
 4834SOL    HW116335   0.071  12.291   1.732
 4834SOL    HW216336  14.839  12.291   1.834
 4835SOL     OW16337   5.446   6.487  10.384
 4835SOL    HW116338   5.397   6.459  10.461
 4835SOL    HW216339   5.511   6.418  10.372
 4836SOL     OW16340   3.026   1.985   4.648
 4836SOL    HW116341   2.977   2.030   4.718
 4836SOL    HW216342   3.097   1.941   4.694
 4837SOL     OW16343  14.777   1.726   1.679
 4837SOL    HW116344  14.726   1.779   1.740
 4837SOL    HW216345  14.824   1.789   1.625
 4838SOL     OW16346  13.010   8.731   8.996
 4838SOL    HW116347  13.011   8.674   8.919
 4838SOL    HW216348  13.021   8.819   8.960
 4839SOL     OW16349  10.587   6.265  12.743
 4839SOL    HW116350  10.499   6.237  12.717
 4839SOL    HW216351  10.621   6.310  12.666
 4840SOL     OW16352   6.126   7.992   4.072
 4840SOL    HW116353   6.086   7.956   3.993
 4840SOL    HW216354   6.069   7.964   4.143
 4841SOL     OW16355   6.054  10.940   4.559
 4841SOL    HW116356   6.047  11.030   4.591
 4841SOL    HW216357   6.096  10.892   4.631
 4842SOL     OW16358   6.813   8.212   4.444
 4842SOL    HW116359   6.748   8.161   4.395
 4842SOL    HW216360   6.787   8.303   4.431
 4843SOL     OW16361  12.046  12.026   3.411
 4843SOL    HW116362  12.059  12.112   3.372
 4843SOL    HW216363  11.972  12.038   3.472
 4844SOL     OW16364   0.650  14.259  12.523
 4844SOL    HW116365   0.594  14.296  12.455
 4844SOL    HW216366   0.739  14.274  12.491
 4845SOL     OW16367   8.398  14.219   9.752
 4845SOL    HW116368   8.386  14.302   9.798
 4845SOL    HW216369   8.410  14.244   9.660
 4846SOL     OW16370   7.765   2.485  10.007
 4846SOL    HW116371   7.807   2.571  10.000
 4846SOL    HW216372   7.772   2.462  10.099
 4847SOL     OW16373   6.941   8.221  12.435
 4847SOL    HW116374   6.875   8.289  12.418
 4847SOL    HW216375   6.994   8.219  12.356
 4848SOL     OW16376  13.537  11.550   2.456
 4848SOL    HW116377  13.615  11.522   2.407
 4848SOL    HW216378  13.466  11.500   2.417
 4849SOL     OW16379   2.965   1.431   0.130
 4849SOL    HW116380   2.970   1.483   0.210
 4849SOL    HW216381   2.918   1.487   0.068
 4850SOL     OW16382  13.636  14.360   3.271
 4850SOL    HW116383  13.650  14.353   3.366
 4850SOL    HW216384  13.607  14.450   3.257
 4851SOL     OW16385   2.057   5.281   4.583
 4851SOL    HW116386   1.999   5.206   4.570
 4851SOL    HW216387   2.009   5.356   4.550
 4852SOL     OW16388   2.560   2.898   3.140
 4852SOL    HW116389   2.641   2.911   3.090
 4852SOL    HW216390   2.499   2.961   3.103
 4853SOL     OW16391   2.750   3.874   8.512
 4853SOL    HW116392   2.728   3.803   8.453
 4853SOL    HW216393   2.684   3.869   8.581
 4854SOL     OW16394   6.341  10.353  10.610
 4854SOL    HW116395   6.384  10.438  10.605
 4854SOL    HW216396   6.405  10.292  10.573
 4855SOL     OW16397  13.722   0.973  13.932
 4855SOL    HW116398  13.814   0.996  13.942
 4855SOL    HW216399  13.724   0.881  13.904
 4856SOL     OW16400   3.375  10.437   3.273
 4856SOL    HW116401   3.304  10.381   3.304
 4856SOL    HW216402   3.395  10.494   3.347
 4857SOL     OW16403  10.277   3.963   5.807
 4857SOL    HW116404  10.285   3.871   5.781
 4857SOL    HW216405  10.244   4.006   5.728
 4858SOL     OW16406   9.085   5.862  13.671
 4858SOL    HW116407   9.161   5.850  13.616
 4858SOL    HW216408   9.117   5.914  13.746
 4859SOL     OW16409   7.041   9.090   9.436
 4859SOL    HW116410   6.998   9.013   9.474
 4859SOL    HW216411   6.993   9.164   9.473
 4860SOL     OW16412   0.893   3.117   5.655
 4860SOL    HW116413   0.881   3.209   5.677
 4860SOL    HW216414   0.812   3.074   5.683
 4861SOL     OW16415  10.499   8.199   2.775
 4861SOL    HW116416  10.568   8.266   2.768
 4861SOL    HW216417  10.530   8.127   2.720
 4862SOL     OW16418   9.396   9.798  11.483
 4862SOL    HW116419   9.448   9.730  11.439
 4862SOL    HW216420   9.318   9.807  11.429
 4863SOL     OW16421   6.679   8.708   2.436
 4863SOL    HW116422   6.755   8.739   2.388
 4863SOL    HW216423   6.671   8.769   2.510
 4864SOL     OW16424  13.281   2.715   9.941
 4864SOL    HW116425  13.330   2.633   9.949
 4864SOL    HW216426  13.239   2.726  10.026
 4865SOL     OW16427   5.623   3.898  10.739
 4865SOL    HW116428   5.573   3.966  10.784
 4865SOL    HW216429   5.557   3.839  10.705
 4866SOL     OW16430   3.739   7.201  12.703
 4866SOL    HW116431   3.795   7.272  12.735
 4866SOL    HW216432   3.759   7.196  12.609
 4867SOL     OW16433   2.218   8.426  11.853
 4867SOL    HW116434   2.286   8.362  11.832
 4867SOL    HW216435   2.264   8.509  11.856
 4868SOL     OW16436   9.365   2.739   6.931
 4868SOL    HW116437   9.307   2.670   6.963
 4868SOL    HW216438   9.441   2.735   6.988
 4869SOL     OW16439  13.637   6.237   3.454
 4869SOL    HW116440  13.644   6.310   3.392
 4869SOL    HW216441  13.550   6.201   3.439
 4870SOL     OW16442  12.894  13.741  13.228
 4870SOL    HW116443  12.823  13.722  13.167
 4870SOL    HW216444  12.972  13.706  13.185
 4871SOL     OW16445   0.914   2.803  13.472
 4871SOL    HW116446   0.846   2.866  13.494
 4871SOL    HW216447   0.878   2.718  13.499
 4872SOL     OW16448   2.367   1.510   0.711
 4872SOL    HW116449   2.330   1.598   0.706
 4872SOL    HW216450   2.345   1.480   0.799
 4873SOL     OW16451  11.862  12.271  13.366
 4873SOL    HW116452  11.924  12.341  13.383
 4873SOL    HW216453  11.807  12.304  13.294
 4874SOL     OW16454   5.568   2.912  12.115
 4874SOL    HW116455   5.565   2.849  12.187
 4874SOL    HW216456   5.482   2.903  12.073
 4875SOL     OW16457   7.965  14.793   0.393
 4875SOL    HW116458   8.001  14.747   0.317
 4875SOL    HW216459   7.948  14.724   0.456
 4876SOL     OW16460   7.908   6.291  10.095
 4876SOL    HW116461   7.996   6.317  10.121
 4876SOL    HW216462   7.884   6.353  10.027
 4877SOL     OW16463  11.621  13.104   4.599
 4877SOL    HW116464  11.665  13.035   4.549
 4877SOL    HW216465  11.645  13.087   4.690
 4878SOL     OW16466  11.220   8.339   0.627
 4878SOL    HW116467  11.200   8.275   0.695
 4878SOL    HW216468  11.303   8.379   0.653
 4879SOL     OW16469  11.229   5.251  13.259
 4879SOL    HW116470  11.324   5.264  13.254
 4879SOL    HW216471  11.210   5.247  13.353
 4880SOL     OW16472   2.815   3.342  10.575
 4880SOL    HW116473   2.749   3.277  10.553
 4880SOL    HW216474   2.866   3.352  10.495
 4881SOL     OW16475   2.092   3.836  10.284
 4881SOL    HW116476   2.009   3.820  10.330
 4881SOL    HW216477   2.108   3.755  10.235
 4882SOL     OW16478   8.582   7.797   9.950
 4882SOL    HW116479   8.637   7.872   9.973
 4882SOL    HW216480   8.559   7.811   9.859
 4883SOL     OW16481   1.298   6.167   2.377
 4883SOL    HW116482   1.358   6.178   2.451
 4883SOL    HW216483   1.329   6.089   2.331
 4884SOL     OW16484   8.198  10.036   6.958
 4884SOL    HW116485   8.191  10.045   7.053
 4884SOL    HW216486   8.266   9.970   6.945
 4885SOL     OW16487   1.605   9.212   3.284
 4885SOL    HW116488   1.652   9.211   3.200
 4885SOL    HW216489   1.601   9.305   3.306
 4886SOL     OW16490   6.397   0.575   2.155
 4886SOL    HW116491   6.437   0.651   2.196
 4886SOL    HW216492   6.465   0.540   2.098
 4887SOL     OW16493   0.429  10.014   3.218
 4887SOL    HW116494   0.373  10.087   3.191
 4887SOL    HW216495   0.373   9.937   3.210
 4888SOL     OW16496   2.943   3.874   0.782
 4888SOL    HW116497   2.991   3.913   0.855
 4888SOL    HW216498   3.004   3.877   0.708
 4889SOL     OW16499   4.714   5.156   4.894
 4889SOL    HW116500   4.624   5.189   4.896
 4889SOL    HW216501   4.732   5.142   4.801
 4890SOL     OW16502  11.048  11.101   7.808
 4890SOL    HW116503  10.961  11.094   7.769
 4890SOL    HW216504  11.107  11.114   7.734
 4891SOL     OW16505   6.579  10.303   1.456
 4891SOL    HW116506   6.583  10.396   1.436
 4891SOL    HW216507   6.665  10.282   1.493
 4892SOL     OW16508  11.209   4.241   3.453
 4892SOL    HW116509  11.271   4.169   3.448
 4892SOL    HW216510  11.260   4.318   3.426
 4893SOL     OW16511   2.662  10.072  11.855
 4893SOL    HW116512   2.709  10.104  11.778
 4893SOL    HW216513   2.674  10.140  11.921
 4894SOL     OW16514  13.525   9.619   8.986
 4894SOL    HW116515  13.569   9.570   9.055
 4894SOL    HW216516  13.516   9.557   8.913
 4895SOL     OW16517   6.260   1.357   6.031
 4895SOL    HW116518   6.186   1.304   6.003
 4895SOL    HW216519   6.220   1.439   6.062
 4896SOL     OW16520   1.124   2.106   7.810
 4896SOL    HW116521   1.165   2.116   7.896
 4896SOL    HW216522   1.116   2.011   7.799
 4897SOL     OW16523   3.651   6.728   7.061
 4897SOL    HW116524   3.596   6.733   6.982
 4897SOL    HW216525   3.608   6.787   7.123
 4898SOL     OW16526  13.996   8.964   8.710
 4898SOL    HW116527  13.905   8.971   8.680
 4898SOL    HW216528  13.990   8.919   8.794
 4899SOL     OW16529   7.605   3.076   8.862
 4899SOL    HW116530   7.639   3.166   8.860
 4899SOL    HW216531   7.587   3.056   8.770
 4900SOL     OW16532   2.777   0.104   5.889
 4900SOL    HW116533   2.865   0.133   5.865
 4900SOL    HW216534   2.783   0.008   5.889
 4901SOL     OW16535  10.742   3.823   8.106
 4901SOL    HW116536  10.684   3.896   8.131
 4901SOL    HW216537  10.800   3.812   8.182
 4902SOL     OW16538   4.595  10.924   4.226
 4902SOL    HW116539   4.624  10.987   4.160
 4902SOL    HW216540   4.551  10.977   4.292
 4903SOL     OW16541   5.920   6.138  13.444
 4903SOL    HW116542   5.878   6.118  13.360
 4903SOL    HW216543   5.876   6.217  13.475
 4904SOL     OW16544   4.579  10.816  13.537
 4904SOL    HW116545   4.518  10.757  13.492
 4904SOL    HW216546   4.576  10.788  13.628
 4905SOL     OW16547   3.443   8.116   4.116
 4905SOL    HW116548   3.528   8.157   4.098
 4905SOL    HW216549   3.390   8.186   4.154
 4906SOL     OW16550  14.549   8.241  10.266
 4906SOL    HW116551  14.595   8.208  10.344
 4906SOL    HW216552  14.457   8.225  10.284
 4907SOL     OW16553  12.383  11.757   5.088
 4907SOL    HW116554  12.419  11.671   5.109
 4907SOL    HW216555  12.347  11.788   5.171
 4908SOL     OW16556  13.717  14.775   3.788
 4908SOL    HW116557  13.656  14.743   3.854
 4908SOL    HW216558  13.797  14.796   3.837
 4909SOL     OW16559   8.000   9.094   2.516
 4909SOL    HW116560   8.077   9.113   2.570
 4909SOL    HW216561   7.958   9.179   2.503
 4910SOL     OW16562   5.283  14.837   8.133
 4910SOL    HW116563   5.367  14.792   8.125
 4910SOL    HW216564   5.218  14.767   8.132
 4911SOL     OW16565   6.558   0.255  12.215
 4911SOL    HW116566   6.549   0.350  12.226
 4911SOL    HW216567   6.652   0.241  12.206
 4912SOL     OW16568  14.724  10.219   0.070
 4912SOL    HW116569  14.654  10.228   0.005
 4912SOL    HW216570  14.724  10.302   0.117
 4913SOL     OW16571   6.110   9.355   2.172
 4913SOL    HW116572   6.148   9.442   2.164
 4913SOL    HW216573   6.126   9.330   2.263
 4914SOL     OW16574   5.236   0.228   6.961
 4914SOL    HW116575   5.313   0.270   6.997
 4914SOL    HW216576   5.251   0.134   6.975
 4915SOL     OW16577  14.026  13.420   1.870
 4915SOL    HW116578  14.115  13.449   1.853
 4915SOL    HW216579  13.970  13.489   1.833
 4916SOL     OW16580   6.074   2.054  12.592
 4916SOL    HW116581   5.980   2.057  12.574
 4916SOL    HW216582   6.112   2.118  12.532
 4917SOL     OW16583  11.101   8.635   7.634
 4917SOL    HW116584  11.071   8.564   7.577
 4917SOL    HW216585  11.028   8.650   7.694
 4918SOL     OW16586   4.177   4.199   4.926
 4918SOL    HW116587   4.089   4.237   4.927
 4918SOL    HW216588   4.206   4.209   4.835
 4919SOL     OW16589   0.724  11.114   6.313
 4919SOL    HW116590   0.814  11.147   6.315
 4919SOL    HW216591   0.672  11.184   6.353
 4920SOL     OW16592   2.890   2.898  13.914
 4920SOL    HW116593   2.921   2.853  13.835
 4920SOL    HW216594   2.887   2.991  13.889
 4921SOL     OW16595   3.965  13.980   4.326
 4921SOL    HW116596   3.909  13.922   4.274
 4921SOL    HW216597   4.035  14.005   4.265
 4922SOL     OW16598   8.325   5.534   1.882
 4922SOL    HW116599   8.402   5.537   1.940
 4922SOL    HW216600   8.355   5.575   1.801
 4923SOL     OW16601  10.186   5.721  11.468
 4923SOL    HW116602  10.159   5.812  11.473
 4923SOL    HW216603  10.275   5.724  11.433
 4924SOL     OW16604  14.252  13.753   2.300
 4924SOL    HW116605  14.283  13.662   2.304
 4924SOL    HW216606  14.166  13.751   2.343
 4925SOL     OW16607   7.227  14.527   4.559
 4925SOL    HW116608   7.185  14.455   4.606
 4925SOL    HW216609   7.313  14.535   4.600
 4926SOL     OW16610   9.558   2.003   0.326
 4926SOL    HW116611   9.563   1.940   0.398
 4926SOL    HW216612   9.647   2.003   0.288
 4927SOL     OW16613  13.935   8.846  13.247
 4927SOL    HW116614  13.934   8.822  13.154
 4927SOL    HW216615  14.009   8.905  13.256
 4928SOL     OW16616  13.591   1.591  12.804
 4928SOL    HW116617  13.539   1.524  12.759
 4928SOL    HW216618  13.620   1.547  12.885
 4929SOL     OW16619   2.263   0.931   2.667
 4929SOL    HW116620   2.284   1.023   2.649
 4929SOL    HW216621   2.347   0.886   2.660
 4930SOL     OW16622   3.388   6.788   2.330
 4930SOL    HW116623   3.402   6.766   2.238
 4930SOL    HW216624   3.471   6.827   2.358
 4931SOL     OW16625   8.283   1.913   2.535
 4931SOL    HW116626   8.326   1.926   2.450
 4931SOL    HW216627   8.191   1.938   2.519
 4932SOL     OW16628   8.740   6.661   2.750
 4932SOL    HW116629   8.755   6.618   2.834
 4932SOL    HW216630   8.647   6.684   2.751
 4933SOL     OW16631   2.693   4.325  11.444
 4933SOL    HW116632   2.650   4.239  11.447
 4933SOL    HW216633   2.637   4.378  11.386
 4934SOL     OW16634   6.521   9.974   8.454
 4934SOL    HW116635   6.602   9.924   8.452
 4934SOL    HW216636   6.471   9.937   8.527
 4935SOL     OW16637   5.193   0.068   0.508
 4935SOL    HW116638   5.176   0.034   0.421
 4935SOL    HW216639   5.107   0.093   0.543
 4936SOL     OW16640   7.366   7.810  12.664
 4936SOL    HW116641   7.456   7.827  12.689
 4936SOL    HW216642   7.334   7.749  12.731
 4937SOL     OW16643  12.287   5.063   3.444
 4937SOL    HW116644  12.208   5.015   3.468
 4937SOL    HW216645  12.348   5.047   3.516
 4938SOL     OW16646   4.838  14.058  13.166
 4938SOL    HW116647   4.855  14.151  13.149
 4938SOL    HW216648   4.921  14.025  13.201
 4939SOL     OW16649  10.316   8.811   0.998
 4939SOL    HW116650  10.329   8.870   0.924
 4939SOL    HW216651  10.340   8.864   1.075
 4940SOL     OW16652   4.308   9.523   3.299
 4940SOL    HW116653   4.309   9.543   3.393
 4940SOL    HW216654   4.258   9.595   3.260
 4941SOL     OW16655   4.489   8.322   3.735
 4941SOL    HW116656   4.438   8.243   3.717
 4941SOL    HW216657   4.477   8.376   3.657
 4942SOL     OW16658   9.025   5.207   3.546
 4942SOL    HW116659   9.059   5.283   3.594
 4942SOL    HW216660   8.988   5.243   3.466
 4943SOL     OW16661   9.781  12.294   0.546
 4943SOL    HW116662   9.812  12.213   0.507
 4943SOL    HW216663   9.794  12.281   0.640
 4944SOL     OW16664   5.216  10.187   4.317
 4944SOL    HW116665   5.145  10.157   4.374
 4944SOL    HW216666   5.226  10.117   4.253
 4945SOL     OW16667   0.895   9.730   9.287
 4945SOL    HW116668   0.880   9.773   9.371
 4945SOL    HW216669   0.953   9.789   9.240
 4946SOL     OW16670   9.033   3.869   1.856
 4946SOL    HW116671   8.956   3.918   1.827
 4946SOL    HW216672   9.106   3.929   1.842
 4947SOL     OW16673  12.031   8.977   8.783
 4947SOL    HW116674  12.049   9.066   8.812
 4947SOL    HW216675  12.023   8.927   8.865
 4948SOL     OW16676   2.718   7.241  10.685
 4948SOL    HW116677   2.706   7.146  10.694
 4948SOL    HW216678   2.752   7.268  10.770
 4949SOL     OW16679   7.473   3.510   6.912
 4949SOL    HW116680   7.430   3.438   6.865
 4949SOL    HW216681   7.544   3.538   6.854
 4950SOL     OW16682   1.825   7.932   6.600
 4950SOL    HW116683   1.771   7.899   6.529
 4950SOL    HW216684   1.822   8.027   6.590
 4951SOL     OW16685   2.103   9.376   6.725
 4951SOL    HW116686   2.075   9.348   6.638
 4951SOL    HW216687   2.150   9.459   6.710
 4952SOL     OW16688   3.855   2.644   1.670
 4952SOL    HW116689   3.949   2.637   1.687
 4952SOL    HW216690   3.814   2.587   1.735
 4953SOL     OW16691   2.225   4.350   0.803
 4953SOL    HW116692   2.270   4.433   0.788
 4953SOL    HW216693   2.294   4.284   0.798
 4954SOL     OW16694   6.374   7.136   5.673
 4954SOL    HW116695   6.458   7.091   5.662
 4954SOL    HW216696   6.355   7.173   5.586
 4955SOL     OW16697   5.811  13.636  10.800
 4955SOL    HW116698   5.854  13.551  10.808
 4955SOL    HW216699   5.727  13.625  10.844
 4956SOL     OW16700   5.504   1.830   1.180
 4956SOL    HW116701   5.431   1.888   1.158
 4956SOL    HW216702   5.472   1.778   1.253
 4957SOL     OW16703   9.953   0.714   0.889
 4957SOL    HW116704   9.972   0.622   0.911
 4957SOL    HW216705  10.038   0.752   0.868
 4958SOL     OW16706   6.767   7.012  13.883
 4958SOL    HW116707   6.830   6.995  13.813
 4958SOL    HW216708   6.706   6.939  13.879
 4959SOL     OW16709   5.722   1.895   4.493
 4959SOL    HW116710   5.690   1.951   4.423
 4959SOL    HW216711   5.792   1.843   4.453
 4960SOL     OW16712  14.586   6.631  14.374
 4960SOL    HW116713  14.581   6.535  14.366
 4960SOL    HW216714  14.546   6.663  14.293
 4961SOL     OW16715   7.479  13.688   1.534
 4961SOL    HW116716   7.398  13.709   1.580
 4961SOL    HW216717   7.500  13.599   1.563
 4962SOL     OW16718  10.074   7.805   8.530
 4962SOL    HW116719  10.057   7.712   8.516
 4962SOL    HW216720  10.067   7.816   8.625
 4963SOL     OW16721  13.276   2.884   5.377
 4963SOL    HW116722  13.341   2.838   5.325
 4963SOL    HW216723  13.216   2.815   5.407
 4964SOL     OW16724   1.688   8.661   2.550
 4964SOL    HW116725   1.772   8.624   2.523
 4964SOL    HW216726   1.628   8.640   2.478
 4965SOL     OW16727   7.572   5.597   1.128
 4965SOL    HW116728   7.538   5.580   1.216
 4965SOL    HW216729   7.544   5.521   1.076
 4966SOL     OW16730   3.118   7.311   2.323
 4966SOL    HW116731   3.179   7.330   2.252
 4966SOL    HW216732   3.086   7.397   2.350
 4967SOL     OW16733  14.324   9.055   5.065
 4967SOL    HW116734  14.331   9.144   5.099
 4967SOL    HW216735  14.389   9.050   4.996
 4968SOL     OW16736   9.125   4.628   6.895
 4968SOL    HW116737   9.063   4.698   6.878
 4968SOL    HW216738   9.084   4.576   6.964
 4969SOL     OW16739   3.421   9.400   1.054
 4969SOL    HW116740   3.509   9.432   1.077
 4969SOL    HW216741   3.435   9.342   0.979
 4970SOL     OW16742   1.419  11.568  14.316
 4970SOL    HW116743   1.342  11.544  14.265
 4970SOL    HW216744   1.407  11.661  14.335
 4971SOL     OW16745   9.122   4.196   3.537
 4971SOL    HW116746   9.161   4.283   3.550
 4971SOL    HW216747   9.080   4.176   3.621
 4972SOL     OW16748   3.518  10.638   2.209
 4972SOL    HW116749   3.501  10.732   2.221
 4972SOL    HW216750   3.438  10.595   2.241
 4973SOL     OW16751   9.644   0.054   3.899
 4973SOL    HW116752   9.567   0.049   3.955
 4973SOL    HW216753   9.695  14.855   3.920
 4974SOL     OW16754   2.342   4.256  10.265
 4974SOL    HW116755   2.306   4.343  10.252
 4974SOL    HW216756   2.269   4.197  10.245
 4975SOL     OW16757   3.921   7.893   7.459
 4975SOL    HW116758   3.926   7.960   7.391
 4975SOL    HW216759   4.008   7.892   7.499
 4976SOL     OW16760  13.736   8.169  13.877
 4976SOL    HW116761  13.768   8.197  13.790
 4976SOL    HW216762  13.774   8.082  13.890
 4977SOL     OW16763  10.284   5.387  13.643
 4977SOL    HW116764  10.264   5.303  13.684
 4977SOL    HW216765  10.321   5.440  13.714
 4978SOL     OW16766   7.555   4.206  12.149
 4978SOL    HW116767   7.542   4.269  12.078
 4978SOL    HW216768   7.561   4.260  12.228
 4979SOL     OW16769   1.114  13.950  11.051
 4979SOL    HW116770   1.074  13.894  10.986
 4979SOL    HW216771   1.171  14.009  11.001
 4980SOL     OW16772   5.286  14.713   0.768
 4980SOL    HW116773   5.299  14.740   0.677
 4980SOL    HW216774   5.374  14.693   0.799
 4981SOL     OW16775  11.897   2.906  14.216
 4981SOL    HW116776  11.992   2.921  14.214
 4981SOL    HW216777  11.883   2.836  14.152
 4982SOL     OW16778  14.039   6.172   5.175
 4982SOL    HW116779  14.106   6.192   5.241
 4982SOL    HW216780  14.054   6.080   5.154
 4983SOL     OW16781   1.060   1.340  11.232
 4983SOL    HW116782   0.966   1.326  11.220
 4983SOL    HW216783   1.070   1.435  11.233
 4984SOL     OW16784   3.068   2.242   2.681
 4984SOL    HW116785   3.143   2.208   2.729
 4984SOL    HW216786   2.991   2.209   2.728
 4985SOL     OW16787   8.890  10.057   5.154
 4985SOL    HW116788   8.907   9.989   5.089
 4985SOL    HW216789   8.835  10.014   5.220
 4986SOL     OW16790   4.873   3.400   7.266
 4986SOL    HW116791   4.878   3.458   7.342
 4986SOL    HW216792   4.788   3.419   7.226
 4987SOL     OW16793  11.563   4.028   1.036
 4987SOL    HW116794  11.590   3.974   0.962
 4987SOL    HW216795  11.602   4.114   1.020
 4988SOL     OW16796  13.824   0.679   4.557
 4988SOL    HW116797  13.804   0.743   4.625
 4988SOL    HW216798  13.868   0.607   4.603
 4989SOL     OW16799   5.872   9.798  14.339
 4989SOL    HW116800   5.832   9.880  14.308
 4989SOL    HW216801   5.940   9.826  14.399
 4990SOL     OW16802   0.005   0.938  10.632
 4990SOL    HW116803   0.079   0.884  10.602
 4990SOL    HW216804  14.838   0.882  10.695
 4991SOL     OW16805  12.255  10.751  11.775
 4991SOL    HW116806  12.185  10.787  11.829
 4991SOL    HW216807  12.285  10.674  11.823
 4992SOL     OW16808   6.509   4.538   7.246
 4992SOL    HW116809   6.466   4.547   7.161
 4992SOL    HW216810   6.491   4.620   7.291
 4993SOL     OW16811   9.192  14.429  10.644
 4993SOL    HW116812   9.192  14.524  10.630
 4993SOL    HW216813   9.100  14.407  10.659
 4994SOL     OW16814   0.124  12.712   8.608
 4994SOL    HW116815   0.182  12.639   8.630
 4994SOL    HW216816   0.101  12.697   8.516
 4995SOL     OW16817  13.332   9.527   2.742
 4995SOL    HW116818  13.327   9.461   2.811
 4995SOL    HW216819  13.417   9.513   2.701
 4996SOL     OW16820   1.018  11.359   3.382
 4996SOL    HW116821   0.965  11.406   3.446
 4996SOL    HW216822   1.108  11.386   3.400
 4997SOL     OW16823   8.044  11.494  12.763
 4997SOL    HW116824   8.010  11.580  12.739
 4997SOL    HW216825   8.107  11.511  12.833
 4998SOL     OW16826   4.872  12.482  10.027
 4998SOL    HW116827   4.875  12.577  10.041
 4998SOL    HW216828   4.948  12.465   9.971
 4999SOL     OW16829   8.720  13.603   6.385
 4999SOL    HW116830   8.743  13.674   6.445
 4999SOL    HW216831   8.741  13.523   6.434
 5000SOL     OW16832  10.130   8.686  12.472
 5000SOL    HW116833  10.098   8.596  12.482
 5000SOL    HW216834  10.209   8.689  12.525
 5001SOL     OW16835   6.904  12.516  11.468
 5001SOL    HW116836   6.833  12.455  11.451
 5001SOL    HW216837   6.874  12.567  11.544
 5002SOL     OW16838   4.101  14.868  11.131
 5002SOL    HW116839   4.095  14.863  11.035
 5002SOL    HW216840   4.095   0.082  11.151
 5003SOL     OW16841  10.118   6.219  10.585
 5003SOL    HW116842  10.112   6.271  10.505
 5003SOL    HW216843  10.121   6.283  10.656
 5004SOL     OW16844   1.345   3.185  10.583
 5004SOL    HW116845   1.375   3.151  10.667
 5004SOL    HW216846   1.256   3.214  10.599
 5005SOL     OW16847   7.299   0.926  10.197
 5005SOL    HW116848   7.292   1.005  10.249
 5005SOL    HW216849   7.329   0.956  10.111
 5006SOL     OW16850  14.386  10.422   5.540
 5006SOL    HW116851  14.456  10.479   5.508
 5006SOL    HW216852  14.342  10.391   5.461
 5007SOL     OW16853  12.136   7.741  10.966
 5007SOL    HW116854  12.138   7.689  11.046
 5007SOL    HW216855  12.044   7.765  10.955
 5008SOL     OW16856   2.117  12.369   6.446
 5008SOL    HW116857   2.108  12.347   6.353
 5008SOL    HW216858   2.133  12.464   6.447
 5009SOL     OW16859   8.450   1.016   7.466
 5009SOL    HW116860   8.394   0.988   7.538
 5009SOL    HW216861   8.529   0.962   7.474
 5010SOL     OW16862   1.910   8.666  12.399
 5010SOL    HW116863   1.939   8.736  12.457
 5010SOL    HW216864   1.857   8.609  12.455
 5011SOL     OW16865   5.461   2.224   3.363
 5011SOL    HW116866   5.482   2.134   3.388
 5011SOL    HW216867   5.508   2.236   3.280
 5012SOL     OW16868   6.385   7.174  12.044
 5012SOL    HW116869   6.480   7.172  12.031
 5012SOL    HW216870   6.371   7.131  12.128
 5013SOL     OW16871  11.679  11.246  13.922
 5013SOL    HW116872  11.750  11.276  13.867
 5013SOL    HW216873  11.722  11.190  13.988
 5014SOL     OW16874   8.288   7.095   0.468
 5014SOL    HW116875   8.344   7.024   0.436
 5014SOL    HW216876   8.346   7.148   0.523
 5015SOL     OW16877  13.199  11.765  13.377
 5015SOL    HW116878  13.272  11.757  13.316
 5015SOL    HW216879  13.150  11.841  13.347
 5016SOL     OW16880   1.749  10.958   0.804
 5016SOL    HW116881   1.701  11.013   0.866
 5016SOL    HW216882   1.753  10.872   0.846
 5017SOL     OW16883   3.047   8.556   8.440
 5017SOL    HW116884   3.041   8.548   8.535
 5017SOL    HW216885   2.959   8.581   8.412
 5018SOL     OW16886   4.232   8.519   5.002
 5018SOL    HW116887   4.229   8.582   5.074
 5018SOL    HW216888   4.157   8.462   5.016
 5019SOL     OW16889  13.089   2.199   6.886
 5019SOL    HW116890  12.995   2.216   6.885
 5019SOL    HW216891  13.123   2.245   6.809
 5020SOL     OW16892   1.463   2.482   6.907
 5020SOL    HW116893   1.381   2.523   6.937
 5020SOL    HW216894   1.450   2.468   6.813
 5021SOL     OW16895   0.330  11.342   8.534
 5021SOL    HW116896   0.418  11.349   8.573
 5021SOL    HW216897   0.288  11.271   8.582
 5022SOL     OW16898  13.485   3.594  11.387
 5022SOL    HW116899  13.527   3.508  11.395
 5022SOL    HW216900  13.397   3.575  11.353
 5023SOL     OW16901   4.897   6.858   3.800
 5023SOL    HW116902   4.986   6.893   3.802
 5023SOL    HW216903   4.891   6.814   3.714
 5024SOL     OW16904   0.033   3.702  10.445
 5024SOL    HW116905   0.027   3.609  10.422
 5024SOL    HW216906  14.822   3.729  10.462
 5025SOL     OW16907   3.574   0.044   5.561
 5025SOL    HW116908   3.600  14.840   5.521
 5025SOL    HW216909   3.646   0.104   5.542
 5026SOL     OW16910   2.906   7.771  13.200
 5026SOL    HW116911   2.996   7.792  13.226
 5026SOL    HW216912   2.913   7.683  13.163
 5027SOL     OW16913  12.759  10.184   7.613
 5027SOL    HW116914  12.745  10.249   7.544
 5027SOL    HW216915  12.767  10.101   7.566
 5028SOL     OW16916  10.484  12.668   3.883
 5028SOL    HW116917  10.435  12.750   3.889
 5028SOL    HW216918  10.567  12.693   3.843
 5029SOL     OW16919   2.869   4.969   2.950
 5029SOL    HW116920   2.843   5.041   3.007
 5029SOL    HW216921   2.960   4.951   2.973
 5030SOL     OW16922   3.175   3.615   2.461
 5030SOL    HW116923   3.167   3.531   2.417
 5030SOL    HW216924   3.138   3.678   2.399
 5031SOL     OW16925   8.401   5.525   0.228
 5031SOL    HW116926   8.358   5.440   0.216
 5031SOL    HW216927   8.376   5.552   0.316
 5032SOL     OW16928  14.593   0.271  11.566
 5032SOL    HW116929  14.549   0.231  11.490
 5032SOL    HW216930  14.685   0.275  11.540
 5033SOL     OW16931   0.327   9.153  10.868
 5033SOL    HW116932   0.416   9.128  10.892
 5033SOL    HW216933   0.271   9.093  10.917
 5034SOL     OW16934   1.619  11.864   9.596
 5034SOL    HW116935   1.694  11.874   9.654
 5034SOL    HW216936   1.586  11.776   9.615
 5035SOL     OW16937   9.568  11.291   4.735
 5035SOL    HW116938   9.501  11.229   4.763
 5035SOL    HW216939   9.533  11.377   4.760
 5036SOL     OW16940  13.224  12.378   8.949
 5036SOL    HW116941  13.297  12.350   9.003
 5036SOL    HW216942  13.233  12.328   8.868
 5037SOL     OW16943   7.467   0.090  13.124
 5037SOL    HW116944   7.451   0.099  13.217
 5037SOL    HW216945   7.393   0.133  13.082
 5038SOL     OW16946   1.888   9.815   6.354
 5038SOL    HW116947   1.931   9.738   6.390
 5038SOL    HW216948   1.817   9.780   6.300
 5039SOL     OW16949  13.703   2.081  12.020
 5039SOL    HW116950  13.658   2.001  12.046
 5039SOL    HW216951  13.793   2.069  12.050
 5040SOL     OW16952  12.120   4.634  12.491
 5040SOL    HW116953  12.171   4.600  12.565
 5040SOL    HW216954  12.183   4.637  12.419
 5041SOL     OW16955   7.588   9.883   0.203
 5041SOL    HW116956   7.638   9.959   0.171
 5041SOL    HW216957   7.524   9.920   0.264
 5042SOL     OW16958   4.242   7.377  14.511
 5042SOL    HW116959   4.155   7.340  14.528
 5042SOL    HW216960   4.300   7.331  14.571
 5043SOL     OW16961   5.251   4.711   6.499
 5043SOL    HW116962   5.169   4.662   6.503
 5043SOL    HW216963   5.236   4.778   6.432
 5044SOL     OW16964   8.296   3.619   9.963
 5044SOL    HW116965   8.213   3.615  10.011
 5044SOL    HW216966   8.280   3.680   9.892
 5045SOL     OW16967  14.221  11.108   5.721
 5045SOL    HW116968  14.164  11.074   5.652
 5045SOL    HW216969  14.163  11.161   5.776
 5046SOL     OW16970   8.035   0.516  10.804
 5046SOL    HW116971   8.013   0.472  10.886
 5046SOL    HW216972   7.950   0.537  10.765
 5047SOL     OW16973   1.969  14.142   1.129
 5047SOL    HW116974   2.018  14.180   1.056
 5047SOL    HW216975   1.983  14.048   1.122
 5048SOL     OW16976   8.475  12.033   9.829
 5048SOL    HW116977   8.463  11.948   9.786
 5048SOL    HW216978   8.401  12.086   9.801
 5049SOL     OW16979  14.568  12.763  11.818
 5049SOL    HW116980  14.523  12.724  11.893
 5049SOL    HW216981  14.638  12.816  11.855
 5050SOL     OW16982   3.202  10.675   4.170
 5050SOL    HW116983   3.157  10.597   4.137
 5050SOL    HW216984   3.293  10.663   4.143
 5051SOL     OW16985  11.267   0.242   7.746
 5051SOL    HW116986  11.295   0.204   7.662
 5051SOL    HW216987  11.226   0.168   7.792
 5052SOL     OW16988   3.993  13.994   9.932
 5052SOL    HW116989   3.944  14.074   9.914
 5052SOL    HW216990   4.069  14.023   9.983
 5053SOL     OW16991  13.376   5.699   2.357
 5053SOL    HW116992  13.407   5.642   2.427
 5053SOL    HW216993  13.291   5.730   2.388
 5054SOL     OW16994  14.833  11.070   6.346
 5054SOL    HW116995  14.741  11.044   6.346
 5054SOL    HW216996   0.001  10.989   6.366
 5055SOL     OW16997  13.901   0.625   8.105
 5055SOL    HW116998  13.963   0.576   8.159
 5055SOL    HW216999  13.922   0.717   8.121
 5056SOL     OW17000   1.810   8.525   4.777
 5056SOL    HW117001   1.839   8.442   4.741
 5056SOL    HW217002   1.870   8.590   4.739
 5057SOL     OW17003  10.260   1.677  11.436
 5057SOL    HW117004  10.239   1.689  11.529
 5057SOL    HW217005  10.334   1.616  11.435
 5058SOL     OW17006   0.071   9.462   4.553
 5058SOL    HW117007   0.158   9.456   4.514
 5058SOL    HW217008   0.075   9.537   4.612
 5059SOL     OW17009  10.641   1.597   0.144
 5059SOL    HW117010  10.591   1.531   0.096
 5059SOL    HW217011  10.584   1.674   0.146
 5060SOL     OW17012   5.701   0.995   3.556
 5060SOL    HW117013   5.660   0.998   3.470
 5060SOL    HW217014   5.644   0.938   3.608
 5061SOL     OW17015   5.848  14.138   4.216
 5061SOL    HW117016   5.886  14.050   4.219
 5061SOL    HW217017   5.758  14.125   4.248
 5062SOL     OW17018   3.618   2.871   8.466
 5062SOL    HW117019   3.603   2.960   8.498
 5062SOL    HW217020   3.711   2.868   8.445
 5063SOL     OW17021  10.789   5.257  10.970
 5063SOL    HW117022  10.862   5.284  10.913
 5063SOL    HW217023  10.814   5.287  11.057
 5064SOL     OW17024  14.438   1.382   6.869
 5064SOL    HW117025  14.407   1.460   6.916
 5064SOL    HW217026  14.501   1.416   6.806
 5065SOL     OW17027   5.538  10.346   3.646
 5065SOL    HW117028   5.459  10.399   3.632
 5065SOL    HW217029   5.599  10.406   3.689
 5066SOL     OW17030   6.269  12.785   5.981
 5066SOL    HW117031   6.275  12.693   5.956
 5066SOL    HW217032   6.204  12.822   5.922
 5067SOL     OW17033   8.746   1.619   3.776
 5067SOL    HW117034   8.747   1.523   3.776
 5067SOL    HW217035   8.712   1.642   3.862
 5068SOL     OW17036  14.871   1.559   7.166
 5068SOL    HW117037   0.077   1.531   7.133
 5068SOL    HW217038  14.854   1.501   7.241
 5069SOL     OW17039   7.867   1.377   1.555
 5069SOL    HW117040   7.885   1.286   1.533
 5069SOL    HW217041   7.818   1.412   1.480
 5070SOL     OW17042   7.673   8.207   9.598
 5070SOL    HW117043   7.617   8.175   9.669
 5070SOL    HW217044   7.733   8.135   9.580
 5071SOL     OW17045   5.157   2.187   0.632
 5071SOL    HW117046   5.090   2.216   0.569
 5071SOL    HW217047   5.168   2.262   0.690
 5072SOL     OW17048  13.385  14.097   3.705
 5072SOL    HW117049  13.351  14.092   3.794
 5072SOL    HW217050  13.477  14.122   3.716
 5073SOL     OW17051   4.067   7.677  10.403
 5073SOL    HW117052   4.011   7.627  10.463
 5073SOL    HW217053   4.005   7.717  10.342
 5074SOL     OW17054   4.231  10.438   1.387
 5074SOL    HW117055   4.267  10.461   1.473
 5074SOL    HW217056   4.258  10.348   1.372
 5075SOL     OW17057   1.476  11.075   0.779
 5075SOL    HW117058   1.499  11.149   0.836
 5075SOL    HW217059   1.515  11.096   0.695
 5076SOL     OW17060   2.118   4.314   1.996
 5076SOL    HW117061   2.025   4.335   2.005
 5076SOL    HW217062   2.119   4.220   1.976
 5077SOL     OW17063   5.963   0.059   1.155
 5077SOL    HW117064   5.917   0.008   1.221
 5077SOL    HW217065   5.908   0.136   1.141
 5078SOL     OW17066   4.424   1.203  11.387
 5078SOL    HW117067   4.366   1.147  11.439
 5078SOL    HW217068   4.444   1.277  11.444
 5079SOL     OW17069  13.993  10.951   8.265
 5079SOL    HW117070  13.899  10.946   8.244
 5079SOL    HW217071  14.036  10.950   8.179
 5080SOL     OW17072   5.311   9.573   7.497
 5080SOL    HW117073   5.384   9.581   7.436
 5080SOL    HW217074   5.235   9.607   7.448
 5081SOL     OW17075  14.245  14.686   6.400
 5081SOL    HW117076  14.292  14.642   6.329
 5081SOL    HW217077  14.310  14.744   6.440
 5082SOL     OW17078  14.694  11.220   6.652
 5082SOL    HW117079  14.716  11.132   6.623
 5082SOL    HW217080  14.729  11.278   6.583
 5083SOL     OW17081   7.534   2.204   8.694
 5083SOL    HW117082   7.444   2.207   8.664
 5083SOL    HW217083   7.547   2.113   8.723
 5084SOL     OW17084   2.871   6.720  14.216
 5084SOL    HW117085   2.879   6.747  14.307
 5084SOL    HW217086   2.784   6.680  14.210
 5085SOL     OW17087   2.747   3.737   2.391
 5085SOL    HW117088   2.678   3.798   2.418
 5085SOL    HW217089   2.725   3.715   2.300
 5086SOL     OW17090   2.940  13.760  11.405
 5086SOL    HW117091   2.879  13.833  11.400
 5086SOL    HW217092   3.027  13.800  11.394
 5087SOL     OW17093   0.701  10.405  11.134
 5087SOL    HW117094   0.729  10.388  11.224
 5087SOL    HW217095   0.722  10.325  11.086
 5088SOL     OW17096  14.539   3.110   9.098
 5088SOL    HW117097  14.532   3.069   9.184
 5088SOL    HW217098  14.469   3.175   9.096
 5089SOL     OW17099   0.902  12.108   0.289
 5089SOL    HW117100   0.871  12.108   0.199
 5089SOL    HW217101   0.843  12.168   0.335
 5090SOL     OW17102   4.887  14.391  10.099
 5090SOL    HW117103   4.941  14.423  10.171
 5090SOL    HW217104   4.798  14.419  10.121
 5091SOL     OW17105   0.086   6.024   5.714
 5091SOL    HW117106   0.145   6.091   5.751
 5091SOL    HW217107   0.126   6.000   5.631
 5092SOL     OW17108  11.588   0.289  11.604
 5092SOL    HW117109  11.499   0.258  11.585
 5092SOL    HW217110  11.576   0.354  11.674
 5093SOL     OW17111   8.445   2.747  13.096
 5093SOL    HW117112   8.484   2.708  13.017
 5093SOL    HW217113   8.352   2.758  13.074
 5094SOL     OW17114  13.576  13.634   3.850
 5094SOL    HW117115  13.589  13.655   3.757
 5094SOL    HW217116  13.662  13.609   3.882
 5095SOL     OW17117  10.786   5.990  14.789
 5095SOL    HW117118  10.870   5.948  14.812
 5095SOL    HW217119  10.811   6.076  14.755
 5096SOL     OW17120   9.037   6.756  11.206
 5096SOL    HW117121   9.114   6.751  11.262
 5096SOL    HW217122   9.065   6.808  11.131
 5097SOL     OW17123  12.957  11.940   4.970
 5097SOL    HW117124  12.937  12.013   4.911
 5097SOL    HW217125  12.873  11.920   5.011
 5098SOL     OW17126   0.447   3.497   1.572
 5098SOL    HW117127   0.354   3.477   1.583
 5098SOL    HW217128   0.480   3.427   1.517
 5099SOL     OW17129  14.399   8.355   4.804
 5099SOL    HW117130  14.388   8.443   4.839
 5099SOL    HW217131  14.314   8.313   4.819
 5100SOL     OW17132   0.610   1.905   6.541
 5100SOL    HW117133   0.628   1.999   6.540
 5100SOL    HW217134   0.678   1.869   6.597
 5101SOL     OW17135   4.870  11.319   2.870
 5101SOL    HW117136   4.913  11.319   2.956
 5101SOL    HW217137   4.778  11.336   2.890
 5102SOL     OW17138   5.934   0.376  12.259
 5102SOL    HW117139   5.949   0.291  12.218
 5102SOL    HW217140   5.929   0.438  12.186
 5103SOL     OW17141  10.773   2.223   5.168
 5103SOL    HW117142  10.689   2.180   5.179
 5103SOL    HW217143  10.816   2.216   5.253
 5104SOL     OW17144   0.913   3.920  10.906
 5104SOL    HW117145   0.970   3.843  10.899
 5104SOL    HW217146   0.914   3.958  10.818
 5105SOL     OW17147   3.376   9.570   5.603
 5105SOL    HW117148   3.418   9.636   5.657
 5105SOL    HW217149   3.423   9.572   5.520
 5106SOL     OW17150   3.355   6.436   5.818
 5106SOL    HW117151   3.276   6.385   5.800
 5106SOL    HW217152   3.345   6.515   5.766
 5107SOL     OW17153   7.420   5.390  14.783
 5107SOL    HW117154   7.353   5.365  14.846
 5107SOL    HW217155   7.395   5.478  14.755
 5108SOL     OW17156   5.813   5.877  12.552
 5108SOL    HW117157   5.814   5.961  12.507
 5108SOL    HW217158   5.726   5.871  12.591
 5109SOL     OW17159   9.819  14.253   6.881
 5109SOL    HW117160   9.795  14.345   6.874
 5109SOL    HW217161   9.825  14.237   6.975
 5110SOL     OW17162   5.177   7.811   7.285
 5110SOL    HW117163   5.268   7.792   7.310
 5110SOL    HW217164   5.129   7.732   7.310
 5111SOL     OW17165  11.866   0.661   7.919
 5111SOL    HW117166  11.861   0.668   8.015
 5111SOL    HW217167  11.821   0.578   7.899
 5112SOL     OW17168   0.614   2.724   6.436
 5112SOL    HW117169   0.616   2.696   6.527
 5112SOL    HW217170   0.665   2.806   6.434
 5113SOL     OW17171   5.647   5.295   5.122
 5113SOL    HW117172   5.625   5.217   5.072
 5113SOL    HW217173   5.709   5.343   5.066
 5114SOL     OW17174   8.076   2.788   8.511
 5114SOL    HW117175   8.125   2.870   8.499
 5114SOL    HW217176   8.016   2.806   8.583
 5115SOL     OW17177  13.906   9.910   0.455
 5115SOL    HW117178  13.819   9.930   0.489
 5115SOL    HW217179  13.948   9.996   0.445
 5116SOL     OW17180   1.849  13.143   2.426
 5116SOL    HW117181   1.790  13.126   2.499
 5116SOL    HW217182   1.905  13.214   2.456
 5117SOL     OW17183  13.398  14.683  11.102
 5117SOL    HW117184  13.335  14.698  11.031
 5117SOL    HW217185  13.452  14.762  11.103
 5118SOL     OW17186   2.890   6.340   0.720
 5118SOL    HW117187   2.822   6.381   0.773
 5118SOL    HW217188   2.973   6.370   0.759
 5119SOL     OW17189   3.522   3.596   9.196
 5119SOL    HW117190   3.595   3.637   9.243
 5119SOL    HW217191   3.445   3.644   9.225
 5120SOL     OW17192  14.835   3.230   9.800
 5120SOL    HW117193   0.029   3.168   9.796
 5120SOL    HW217194  14.763   3.179   9.837
 5121SOL     OW17195   0.021   7.887   2.036
 5121SOL    HW117196   0.019   7.819   1.969
 5121SOL    HW217197   0.023   7.840   2.119
 5122SOL     OW17198   7.829   5.275   5.680
 5122SOL    HW117199   7.747   5.242   5.642
 5122SOL    HW217200   7.801   5.338   5.746
 5123SOL     OW17201   9.527  10.202   7.256
 5123SOL    HW117202   9.525  10.283   7.206
 5123SOL    HW217203   9.495  10.226   7.343
 5124SOL     OW17204  11.095  14.634  12.295
 5124SOL    HW117205  11.062  14.553  12.334
 5124SOL    HW217206  11.050  14.704  12.343
 5125SOL     OW17207   5.628   0.932   6.756
 5125SOL    HW117208   5.696   0.972   6.809
 5125SOL    HW217209   5.611   0.848   6.797
 5126SOL     OW17210   5.636  10.437  11.117
 5126SOL    HW117211   5.726  10.443  11.087
 5126SOL    HW217212   5.601  10.359  11.074
 5127SOL     OW17213  14.311   3.492   7.811
 5127SOL    HW117214  14.222   3.459   7.809
 5127SOL    HW217215  14.307   3.569   7.868
 5128SOL     OW17216   8.405   0.130   0.969
 5128SOL    HW117217   8.397   0.060   0.905
 5128SOL    HW217218   8.388   0.088   1.053
 5129SOL     OW17219   0.807   4.851  12.474
 5129SOL    HW117220   0.800   4.815  12.563
 5129SOL    HW217221   0.842   4.779  12.422
 5130SOL     OW17222  13.427   0.856  14.012
 5130SOL    HW117223  13.341   0.855  14.055
 5130SOL    HW217224  13.434   0.944  13.974
 5131SOL     OW17225   0.385  14.753  12.897
 5131SOL    HW117226   0.411  14.842  12.920
 5131SOL    HW217227   0.303  14.738  12.944
 5132SOL     OW17228  14.452   1.948  13.013
 5132SOL    HW117229  14.498   1.917  12.935
 5132SOL    HW217230  14.391   1.878  13.035
 5133SOL     OW17231   2.640   2.638   7.067
 5133SOL    HW117232   2.611   2.581   7.139
 5133SOL    HW217233   2.559   2.657   7.019
 5134SOL     OW17234  10.111   4.810   6.472
 5134SOL    HW117235  10.162   4.771   6.543
 5134SOL    HW217236  10.117   4.746   6.401
 5135SOL     OW17237   6.484   0.901   0.267
 5135SOL    HW117238   6.474   0.879   0.359
 5135SOL    HW217239   6.562   0.956   0.263
 5136SOL     OW17240   3.432   2.724  13.140
 5136SOL    HW117241   3.505   2.785  13.133
 5136SOL    HW217242   3.469   2.639  13.114
 5137SOL     OW17243   5.214   4.913   0.395
 5137SOL    HW117244   5.240   4.987   0.340
 5137SOL    HW217245   5.294   4.862   0.408
 5138SOL     OW17246   5.467   6.758   9.512
 5138SOL    HW117247   5.493   6.678   9.558
 5138SOL    HW217248   5.378   6.776   9.543
 5139SOL     OW17249  10.966   9.361   7.043
 5139SOL    HW117250  11.046   9.342   6.994
 5139SOL    HW217251  10.971   9.305   7.120
 5140SOL     OW17252   0.618   7.268   9.360
 5140SOL    HW117253   0.654   7.328   9.425
 5140SOL    HW217254   0.695   7.225   9.322
 5141SOL     OW17255   8.013   2.565   0.547
 5141SOL    HW117256   8.038   2.576   0.639
 5141SOL    HW217257   8.015   2.470   0.533
 5142SOL     OW17258  14.012   4.396   0.203
 5142SOL    HW117259  14.002   4.305   0.232
 5142SOL    HW217260  14.098   4.398   0.160
 5143SOL     OW17261  12.831  11.380   2.488
 5143SOL    HW117262  12.811  11.311   2.551
 5143SOL    HW217263  12.831  11.461   2.540
 5144SOL     OW17264   0.458   5.904   9.486
 5144SOL    HW117265   0.386   5.958   9.452
 5144SOL    HW217266   0.533   5.927   9.431
 5145SOL     OW17267   8.148   7.705   4.331
 5145SOL    HW117268   8.076   7.732   4.388
 5145SOL    HW217269   8.176   7.785   4.287
 5146SOL     OW17270  10.006   8.389   3.736
 5146SOL    HW117271  10.016   8.364   3.644
 5146SOL    HW217272   9.926   8.441   3.738
 5147SOL     OW17273   4.767   2.672  14.868
 5147SOL    HW117274   4.713   2.624   0.051
 5147SOL    HW217275   4.827   2.723   0.044
 5148SOL     OW17276  11.866  12.760   7.206
 5148SOL    HW117277  11.832  12.786   7.291
 5148SOL    HW217278  11.954  12.728   7.224
 5149SOL     OW17279   7.924   2.031  10.672
 5149SOL    HW117280   7.836   2.070  10.673
 5149SOL    HW217281   7.978   2.094  10.719
 5150SOL     OW17282   5.907   6.985  13.343
 5150SOL    HW117283   5.970   7.021  13.281
 5150SOL    HW217284   5.824   7.026  13.318
 5151SOL     OW17285  12.775   5.669   9.117
 5151SOL    HW117286  12.687   5.676   9.081
 5151SOL    HW217287  12.763   5.639   9.207
 5152SOL     OW17288   6.525  12.245   5.890
 5152SOL    HW117289   6.475  12.248   5.972
 5152SOL    HW217290   6.507  12.158   5.854
 5153SOL     OW17291   2.817  10.554   7.478
 5153SOL    HW117292   2.727  10.520   7.477
 5153SOL    HW217293   2.818  10.616   7.550
 5154SOL     OW17294  10.407   8.260   4.034
 5154SOL    HW117295  10.378   8.249   4.125
 5154SOL    HW217296  10.331   8.234   3.982
 5155SOL     OW17297   9.076   0.800   0.620
 5155SOL    HW117298   9.085   0.860   0.546
 5155SOL    HW217299   9.162   0.758   0.628
 5156SOL     OW17300   7.322   3.626  12.023
 5156SOL    HW117301   7.400   3.576  12.048
 5156SOL    HW217302   7.299   3.675  12.102
 5157SOL     OW17303   1.371  11.499  13.815
 5157SOL    HW117304   1.334  11.425  13.864
 5157SOL    HW217305   1.295  11.543  13.777
 5158SOL     OW17306  13.871   8.528   1.719
 5158SOL    HW117307  13.812   8.508   1.646
 5158SOL    HW217308  13.820   8.582   1.779
 5159SOL     OW17309  11.644   6.175  14.715
 5159SOL    HW117310  11.723   6.142  14.759
 5159SOL    HW217311  11.657   6.152  14.623
 5160SOL     OW17312  12.040   3.924   5.570
 5160SOL    HW117313  12.012   3.950   5.482
 5160SOL    HW217314  12.136   3.920   5.564
 5161SOL     OW17315  12.766   0.721   7.477
 5161SOL    HW117316  12.812   0.761   7.404
 5161SOL    HW217317  12.817   0.643   7.498
 5162SOL     OW17318   6.344   9.732   9.291
 5162SOL    HW117319   6.271   9.671   9.296
 5162SOL    HW217320   6.417   9.680   9.258
 5163SOL     OW17321  11.474  13.358   7.805
 5163SOL    HW117322  11.505  13.299   7.873
 5163SOL    HW217323  11.434  13.431   7.852
 5164SOL     OW17324   0.548   6.303  11.887
 5164SOL    HW117325   0.639   6.333  11.891
 5164SOL    HW217326   0.501   6.376  11.848
 5165SOL     OW17327   8.137   9.335  11.118
 5165SOL    HW117328   8.053   9.351  11.162
 5165SOL    HW217329   8.112   9.300  11.033
 5166SOL     OW17330   9.941   1.483  13.731
 5166SOL    HW117331   9.940   1.463  13.824
 5166SOL    HW217332   9.882   1.419  13.692
 5167SOL     OW17333   2.902  13.089   7.313
 5167SOL    HW117334   2.917  13.151   7.385
 5167SOL    HW217335   2.820  13.046   7.337
 5168SOL     OW17336   7.582   4.123   8.831
 5168SOL    HW117337   7.541   4.133   8.745
 5168SOL    HW217338   7.598   4.212   8.861
 5169SOL     OW17339   1.695  10.893  10.396
 5169SOL    HW117340   1.615  10.863  10.439
 5169SOL    HW217341   1.703  10.985  10.421
 5170SOL     OW17342   1.368   6.595   6.189
 5170SOL    HW117343   1.307   6.577   6.260
 5170SOL    HW217344   1.354   6.687   6.167
 5171SOL     OW17345   2.084   3.720  13.039
 5171SOL    HW117346   2.000   3.678  13.022
 5171SOL    HW217347   2.074   3.809  13.006
 5172SOL     OW17348   7.681   5.593  12.224
 5172SOL    HW117349   7.611   5.539  12.187
 5172SOL    HW217350   7.744   5.529  12.258
 5173SOL     OW17351  13.139  14.790   7.332
 5173SOL    HW117352  13.044  14.801   7.330
 5173SOL    HW217353  13.170  14.860   7.390
 5174SOL     OW17354   3.212   4.228   9.419
 5174SOL    HW117355   3.218   4.145   9.371
 5174SOL    HW217356   3.124   4.229   9.455
 5175SOL     OW17357  14.038   1.361   5.815
 5175SOL    HW117358  13.968   1.425   5.812
 5175SOL    HW217359  14.061   1.345   5.724
 5176SOL     OW17360   2.693  11.888   3.769
 5176SOL    HW117361   2.657  11.818   3.715
 5176SOL    HW217362   2.698  11.963   3.710
 5177SOL     OW17363   0.151   2.733  14.719
 5177SOL    HW117364   0.211   2.659  14.708
 5177SOL    HW217365   0.081   2.715  14.657
 5178SOL     OW17366   6.655  10.380   3.673
 5178SOL    HW117367   6.720  10.449   3.689
 5178SOL    HW217368   6.693  10.327   3.604
 5179SOL     OW17369  11.702   1.296  11.951
 5179SOL    HW117370  11.646   1.262  12.022
 5179SOL    HW217371  11.645   1.295  11.874
 5180SOL     OW17372   5.240   3.111   0.922
 5180SOL    HW117373   5.332   3.092   0.908
 5180SOL    HW217374   5.234   3.137   1.013
 5181SOL     OW17375   6.841   1.543   7.824
 5181SOL    HW117376   6.883   1.618   7.781
 5181SOL    HW217377   6.896   1.468   7.801
 5182SOL     OW17378   3.902  11.108  13.902
 5182SOL    HW117379   3.976  11.161  13.873
 5182SOL    HW217380   3.846  11.100  13.824
 5183SOL     OW17381  14.693   0.719   2.785
 5183SOL    HW117382  14.609   0.715   2.741
 5183SOL    HW217383  14.690   0.648   2.849
 5184SOL     OW17384   4.550   8.586   1.655
 5184SOL    HW117385   4.499   8.595   1.735
 5184SOL    HW217386   4.490   8.610   1.585
 5185SOL     OW17387   7.569  13.589   5.803
 5185SOL    HW117388   7.576  13.630   5.890
 5185SOL    HW217389   7.509  13.516   5.816
 5186SOL     OW17390  10.846  12.597   7.059
 5186SOL    HW117391  10.827  12.634   7.145
 5186SOL    HW217392  10.920  12.539   7.074
 5187SOL     OW17393   0.705  12.572   6.004
 5187SOL    HW117394   0.779  12.588   6.064
 5187SOL    HW217395   0.744  12.572   5.917
 5188SOL     OW17396   8.168   8.556  11.666
 5188SOL    HW117397   8.199   8.633  11.618
 5188SOL    HW217398   8.087   8.586  11.708
 5189SOL     OW17399   3.909   8.452  10.301
 5189SOL    HW117400   3.828   8.486  10.263
 5189SOL    HW217401   3.950   8.403  10.229
 5190SOL     OW17402   8.976   0.101   8.160
 5190SOL    HW117403   8.973   0.036   8.089
 5190SOL    HW217404   9.047   0.072   8.216
 5191SOL     OW17405  12.913   2.713  12.783
 5191SOL    HW117406  12.863   2.762  12.717
 5191SOL    HW217407  13.004   2.723  12.756
 5192SOL     OW17408  14.783  11.378   5.158
 5192SOL    HW117409  14.803  11.351   5.068
 5192SOL    HW217410  14.842  11.451   5.175
 5193SOL     OW17411   6.805   3.919  11.441
 5193SOL    HW117412   6.733   3.907  11.380
 5193SOL    HW217413   6.854   3.836  11.437
 5194SOL     OW17414   7.371   8.530   7.157
 5194SOL    HW117415   7.287   8.494   7.185
 5194SOL    HW217416   7.387   8.490   7.071
 5195SOL     OW17417   3.365   8.828   5.838
 5195SOL    HW117418   3.457   8.818   5.813
 5195SOL    HW217419   3.319   8.760   5.788
 5196SOL     OW17420   1.857   3.112   9.379
 5196SOL    HW117421   1.825   3.032   9.419
 5196SOL    HW217422   1.795   3.179   9.407
 5197SOL     OW17423  13.968  10.195  10.711
 5197SOL    HW117424  13.982  10.192  10.616
 5197SOL    HW217425  14.048  10.233  10.746
 5198SOL     OW17426  11.671  13.748  13.338
 5198SOL    HW117427  11.634  13.799  13.409
 5198SOL    HW217428  11.600  13.739  13.274
 5199SOL     OW17429   1.300   0.222   1.996
 5199SOL    HW117430   1.253   0.306   1.996
 5199SOL    HW217431   1.366   0.233   1.928
 5200SOL     OW17432   6.893   4.179  14.225
 5200SOL    HW117433   6.973   4.231  14.214
 5200SOL    HW217434   6.874   4.146  14.137
 5201SOL     OW17435   0.541   2.768   5.938
 5201SOL    HW117436   0.587   2.706   5.881
 5201SOL    HW217437   0.570   2.745   6.026
 5202SOL     OW17438   7.719  14.502   5.961
 5202SOL    HW117439   7.698  14.426   5.908
 5202SOL    HW217440   7.730  14.573   5.898
 5203SOL     OW17441   2.686  11.262   5.519
 5203SOL    HW117442   2.758  11.211   5.481
 5203SOL    HW217443   2.724  11.348   5.535
 5204SOL     OW17444  14.541  14.711  10.846
 5204SOL    HW117445  14.483  14.748  10.912
 5204SOL    HW217446  14.551  14.780  10.781
 5205SOL     OW17447   3.701  13.168   0.812
 5205SOL    HW117448   3.668  13.179   0.723
 5205SOL    HW217449   3.783  13.119   0.801
 5206SOL     OW17450   1.431  12.647  12.157
 5206SOL    HW117451   1.361  12.586  12.181
 5206SOL    HW217452   1.415  12.667  12.065
 5207SOL     OW17453   9.983  12.810   1.380
 5207SOL    HW117454  10.041  12.875   1.340
 5207SOL    HW217455   9.977  12.740   1.315
 5208SOL     OW17456   8.118  12.842   8.879
 5208SOL    HW117457   8.145  12.811   8.965
 5208SOL    HW217458   8.036  12.796   8.861
 5209SOL     OW17459   9.708   4.349   8.151
 5209SOL    HW117460   9.640   4.325   8.088
 5209SOL    HW217461   9.666   4.336   8.237
 5210SOL     OW17462  12.665   5.140   1.801
 5210SOL    HW117463  12.658   5.236   1.801
 5210SOL    HW217464  12.650   5.116   1.893
 5211SOL     OW17465   2.676  12.753   8.384
 5211SOL    HW117466   2.623  12.795   8.315
 5211SOL    HW217467   2.679  12.661   8.359
 5212SOL     OW17468  10.229  14.852  11.211
 5212SOL    HW117469  10.154  14.792  11.213
 5212SOL    HW217470  10.238   0.004  11.301
 5213SOL     OW17471   8.465  10.287  10.782
 5213SOL    HW117472   8.390  10.294  10.841
 5213SOL    HW217473   8.427  10.295  10.694
 5214SOL     OW17474   2.659   1.854   1.153
 5214SOL    HW117475   2.713   1.917   1.107
 5214SOL    HW217476   2.579   1.902   1.176
 5215SOL     OW17477   5.460   0.916  12.317
 5215SOL    HW117478   5.533   0.969  12.351
 5215SOL    HW217479   5.495   0.875  12.238
 5216SOL     OW17480   0.289  14.761   2.889
 5216SOL    HW117481   0.194  14.757   2.905
 5216SOL    HW217482   0.327  14.704   2.956
 5217SOL     OW17483  11.311   1.343  11.215
 5217SOL    HW117484  11.237   1.379  11.265
 5217SOL    HW217485  11.348   1.276  11.272
 5218SOL     OW17486   9.211   3.149  13.478
 5218SOL    HW117487   9.197   3.171  13.570
 5218SOL    HW217488   9.257   3.225  13.442
 5219SOL     OW17489   3.250   8.264  14.049
 5219SOL    HW117490   3.322   8.213  14.013
 5219SOL    HW217491   3.181   8.259  13.982
 5220SOL     OW17492  12.787   9.267   8.693
 5220SOL    HW117493  12.699   9.291   8.667
 5220SOL    HW217494  12.821   9.217   8.619
 5221SOL     OW17495   6.129   6.868  14.534
 5221SOL    HW117496   6.154   6.820  14.613
 5221SOL    HW217497   6.075   6.807  14.485
 5222SOL     OW17498   6.740   5.360   6.304
 5222SOL    HW117499   6.791   5.290   6.263
 5222SOL    HW217500   6.686   5.395   6.233
 5223SOL     OW17501  12.427  14.150  12.631
 5223SOL    HW117502  12.467  14.132  12.716
 5223SOL    HW217503  12.475  14.225  12.597
 5224SOL     OW17504   7.352  10.113   2.708
 5224SOL    HW117505   7.420  10.177   2.689
 5224SOL    HW217506   7.393  10.052   2.769
 5225SOL     OW17507   9.022   6.465  12.851
 5225SOL    HW117508   9.070   6.459  12.934
 5225SOL    HW217509   8.930   6.451  12.875
 5226SOL     OW17510   4.407   4.890  10.691
 5226SOL    HW117511   4.395   4.963  10.751
 5226SOL    HW217512   4.440   4.929  10.611
 5227SOL     OW17513  11.361   6.594   0.290
 5227SOL    HW117514  11.452   6.585   0.320
 5227SOL    HW217515  11.311   6.537   0.348
 5228SOL     OW17516   6.088  13.151  12.758
 5228SOL    HW117517   6.122  13.076  12.807
 5228SOL    HW217518   6.134  13.226  12.795
 5229SOL     OW17519   2.285  10.085   2.654
 5229SOL    HW117520   2.228  10.123   2.587
 5229SOL    HW217521   2.238  10.008   2.685
 5230SOL     OW17522  12.989   7.541   9.249
 5230SOL    HW117523  12.981   7.446   9.236
 5230SOL    HW217524  12.930   7.579   9.184
 5231SOL     OW17525   9.841   4.388   4.355
 5231SOL    HW117526   9.890   4.379   4.273
 5231SOL    HW217527   9.907   4.417   4.418
 5232SOL     OW17528   5.045  11.005   4.315
 5232SOL    HW117529   5.044  11.099   4.329
 5232SOL    HW217530   4.975  10.971   4.371
 5233SOL     OW17531   1.450  10.722   7.762
 5233SOL    HW117532   1.416  10.741   7.849
 5233SOL    HW217533   1.387  10.763   7.702
 5234SOL     OW17534   7.220   3.136  12.069
 5234SOL    HW117535   7.288   3.072  12.049
 5234SOL    HW217536   7.143   3.083  12.090
 5235SOL     OW17537  10.626   9.864   6.447
 5235SOL    HW117538  10.632   9.875   6.542
 5235SOL    HW217539  10.586   9.778   6.435
 5236SOL     OW17540   3.357  14.325   0.897
 5236SOL    HW117541   3.268  14.298   0.916
 5236SOL    HW217542   3.405  14.243   0.885
 5237SOL     OW17543  13.684  12.074   0.552
 5237SOL    HW117544  13.739  12.150   0.533
 5237SOL    HW217545  13.611  12.080   0.490
 5238SOL     OW17546   2.486   2.665   3.778
 5238SOL    HW117547   2.422   2.716   3.828
 5238SOL    HW217548   2.453   2.576   3.781
 5239SOL     OW17549   5.007   7.784  11.709
 5239SOL    HW117550   4.954   7.712  11.675
 5239SOL    HW217551   5.040   7.751  11.793
 5240SOL     OW17552   2.756  14.820  11.043
 5240SOL    HW117553   2.720  14.735  11.070
 5240SOL    HW217554   2.831  14.798  10.988
 5241SOL     OW17555   2.364   9.682  12.372
 5241SOL    HW117556   2.396   9.657  12.458
 5241SOL    HW217557   2.270   9.669  12.376
 5242SOL     OW17558   8.016   5.534   9.298
 5242SOL    HW117559   8.078   5.516   9.368
 5242SOL    HW217560   7.983   5.622   9.318
 5243SOL     OW17561  14.419   0.753   9.756
 5243SOL    HW117562  14.343   0.697   9.774
 5243SOL    HW217563  14.477   0.739   9.831
 5244SOL     OW17564  12.613   4.445   7.370
 5244SOL    HW117565  12.583   4.515   7.429
 5244SOL    HW217566  12.548   4.443   7.300
 5245SOL     OW17567  13.192   8.812   3.769
 5245SOL    HW117568  13.174   8.718   3.759
 5245SOL    HW217569  13.114   8.854   3.734
 5246SOL     OW17570   7.682   9.442  12.551
 5246SOL    HW117571   7.650   9.387  12.623
 5246SOL    HW217572   7.660   9.531  12.578
 5247SOL     OW17573   8.286   6.247   1.711
 5247SOL    HW117574   8.301   6.270   1.802
 5247SOL    HW217575   8.261   6.329   1.669
 5248SOL     OW17576   8.363   7.494   5.668
 5248SOL    HW117577   8.330   7.452   5.747
 5248SOL    HW217578   8.336   7.585   5.675
 5249SOL     OW17579   5.792   1.770   0.569
 5249SOL    HW117580   5.882   1.794   0.591
 5249SOL    HW217581   5.769   1.828   0.496
 5250SOL     OW17582   9.688   6.106   3.052
 5250SOL    HW117583   9.780   6.095   3.078
 5250SOL    HW217584   9.654   6.016   3.048
 5251SOL     OW17585   8.660  12.912   6.168
 5251SOL    HW117586   8.644  12.885   6.078
 5251SOL    HW217587   8.578  12.894   6.214
 5252SOL     OW17588   5.239   5.061   8.992
 5252SOL    HW117589   5.264   4.969   8.998
 5252SOL    HW217590   5.179   5.065   8.917
 5253SOL     OW17591  10.221   8.506   9.635
 5253SOL    HW117592  10.161   8.434   9.616
 5253SOL    HW217593  10.172   8.585   9.613
 5254SOL     OW17594   7.367   6.318  13.539
 5254SOL    HW117595   7.316   6.380  13.487
 5254SOL    HW217596   7.346   6.339  13.629
 5255SOL     OW17597   6.115   6.352  10.261
 5255SOL    HW117598   6.105   6.260  10.284
 5255SOL    HW217599   6.140   6.351  10.168
 5256SOL     OW17600  13.900   3.129  11.883
 5256SOL    HW117601  13.965   3.075  11.840
 5256SOL    HW217602  13.832   3.068  11.911
 5257SOL     OW17603   0.686  12.098   5.287
 5257SOL    HW117604   0.699  12.189   5.315
 5257SOL    HW217605   0.593  12.094   5.263
 5258SOL     OW17606   0.756   5.952  14.817
 5258SOL    HW117607   0.698   5.959  14.742
 5258SOL    HW217608   0.773   6.043  14.843
 5259SOL     OW17609   5.058   7.036   2.500
 5259SOL    HW117610   5.062   6.946   2.531
 5259SOL    HW217611   4.984   7.074   2.547
 5260SOL     OW17612   6.551  14.557   0.129
 5260SOL    HW117613   6.605  14.619   0.081
 5260SOL    HW217614   6.608  14.522   0.197
 5261SOL     OW17615   8.028  14.650   2.890
 5261SOL    HW117616   7.980  14.585   2.839
 5261SOL    HW217617   8.115  14.612   2.902
 5262SOL     OW17618  12.468  11.462   3.125
 5262SOL    HW117619  12.433  11.501   3.205
 5262SOL    HW217620  12.393  11.420   3.083
 5263SOL     OW17621   3.693   8.575   2.111
 5263SOL    HW117622   3.719   8.649   2.166
 5263SOL    HW217623   3.666   8.508   2.173
 5264SOL     OW17624   0.371   3.766   9.412
 5264SOL    HW117625   0.277   3.772   9.429
 5264SOL    HW217626   0.394   3.851   9.376
 5265SOL     OW17627  11.008  10.392  14.231
 5265SOL    HW117628  11.040  10.444  14.158
 5265SOL    HW217629  10.942  10.447  14.273
 5266SOL     OW17630  11.451   1.497  11.024
 5266SOL    HW117631  11.534   1.453  11.005
 5266SOL    HW217632  11.406   1.439  11.085
 5267SOL     OW17633  10.107   7.467  14.339
 5267SOL    HW117634  10.021   7.475  14.299
 5267SOL    HW217635  10.155   7.544  14.308
 5268SOL     OW17636   9.066  13.171   0.257
 5268SOL    HW117637   9.035  13.080   0.258
 5268SOL    HW217638   8.994  13.221   0.296
 5269SOL     OW17639   1.929   5.233  12.319
 5269SOL    HW117640   2.025   5.235  12.313
 5269SOL    HW217641   1.909   5.147  12.355
 5270SOL     OW17642   3.817   7.859   3.797
 5270SOL    HW117643   3.880   7.910   3.847
 5270SOL    HW217644   3.742   7.918   3.785
 5271SOL     OW17645  12.889   3.715   8.211
 5271SOL    HW117646  12.947   3.710   8.136
 5271SOL    HW217647  12.937   3.673   8.283
 5272SOL     OW17648   5.217   6.125   7.706
 5272SOL    HW117649   5.149   6.163   7.762
 5272SOL    HW217650   5.257   6.201   7.663
 5273SOL     OW17651   2.077   0.958  11.229
 5273SOL    HW117652   2.023   1.030  11.262
 5273SOL    HW217653   2.133   0.998  11.163
 5274SOL     OW17654  13.766   2.497   0.976
 5274SOL    HW117655  13.719   2.423   0.937
 5274SOL    HW217656  13.825   2.527   0.906
 5275SOL     OW17657   2.197   3.774  12.312
 5275SOL    HW117658   2.165   3.863  12.328
 5275SOL    HW217659   2.189   3.731  12.398
 5276SOL     OW17660   3.367   3.791   3.557
 5276SOL    HW117661   3.377   3.769   3.649
 5276SOL    HW217662   3.366   3.707   3.512
 5277SOL     OW17663   9.543   8.417  14.059
 5277SOL    HW117664   9.588   8.462  13.989
 5277SOL    HW217665   9.484   8.356  14.014
 5278SOL     OW17666  13.137   8.617  11.396
 5278SOL    HW117667  13.182   8.637  11.314
 5278SOL    HW217668  13.176   8.534  11.425
 5279SOL     OW17669  14.041   2.925  14.217
 5279SOL    HW117670  14.013   2.914  14.125
 5279SOL    HW217671  14.016   2.842  14.258
 5280SOL     OW17672  10.745   5.445   7.134
 5280SOL    HW117673  10.751   5.349   7.137
 5280SOL    HW217674  10.777   5.467   7.046
 5281SOL     OW17675   3.315  14.308  14.404
 5281SOL    HW117676   3.330  14.248  14.477
 5281SOL    HW217677   3.291  14.251  14.331
 5282SOL     OW17678  14.554   0.264   9.166
 5282SOL    HW117679  14.485   0.219   9.215
 5282SOL    HW217680  14.613   0.298   9.234
 5283SOL     OW17681  11.230  10.485  11.693
 5283SOL    HW117682  11.304  10.518  11.643
 5283SOL    HW217683  11.236  10.529  11.778
 5284SOL     OW17684   1.248   9.162   6.231
 5284SOL    HW117685   1.260   9.209   6.313
 5284SOL    HW217686   1.193   9.086   6.255
 5285SOL     OW17687   6.755   6.194   3.243
 5285SOL    HW117688   6.687   6.243   3.196
 5285SOL    HW217689   6.759   6.235   3.329
 5286SOL     OW17690  13.161   7.485  13.667
 5286SOL    HW117691  13.092   7.519  13.724
 5286SOL    HW217692  13.243   7.509  13.710
 5287SOL     OW17693   5.500  13.587   3.426
 5287SOL    HW117694   5.572  13.564   3.485
 5287SOL    HW217695   5.443  13.643   3.478
 5288SOL     OW17696   5.637   8.745  13.237
 5288SOL    HW117697   5.657   8.655  13.263
 5288SOL    HW217698   5.715   8.773  13.189
 5289SOL     OW17699  14.467  11.350   8.451
 5289SOL    HW117700  14.517  11.420   8.493
 5289SOL    HW217701  14.434  11.391   8.370
 5290SOL     OW17702  14.671   8.743   0.579
 5290SOL    HW117703  14.664   8.821   0.634
 5290SOL    HW217704  14.624   8.676   0.629
 5291SOL     OW17705   3.768   3.779   6.489
 5291SOL    HW117706   3.845   3.834   6.499
 5291SOL    HW217707   3.788   3.722   6.415
 5292SOL     OW17708   8.382   3.294   8.497
 5292SOL    HW117709   8.475   3.318   8.495
 5292SOL    HW217710   8.363   3.279   8.590
 5293SOL     OW17711   9.544   2.581   4.069
 5293SOL    HW117712   9.601   2.656   4.053
 5293SOL    HW217713   9.493   2.607   4.147
 5294SOL     OW17714   0.319   7.197   2.244
 5294SOL    HW117715   0.232   7.160   2.257
 5294SOL    HW217716   0.378   7.139   2.293
 5295SOL     OW17717  11.597   3.570   6.138
 5295SOL    HW117718  11.570   3.661   6.127
 5295SOL    HW217719  11.667   3.574   6.203
 5296SOL     OW17720   9.517  11.141   9.222
 5296SOL    HW117721   9.561  11.079   9.280
 5296SOL    HW217722   9.579  11.213   9.212
 5297SOL     OW17723  14.841   3.883   3.822
 5297SOL    HW117724   0.047   3.861   3.784
 5297SOL    HW217725  14.804   3.948   3.762
 5298SOL     OW17726   9.935   2.312   5.408
 5298SOL    HW117727   9.862   2.286   5.351
 5298SOL    HW217728   9.904   2.393   5.451
 5299SOL     OW17729   8.287   4.374   4.826
 5299SOL    HW117730   8.267   4.453   4.776
 5299SOL    HW217731   8.313   4.405   4.912
 5300SOL     OW17732   7.715   2.260  11.870
 5300SOL    HW117733   7.770   2.218  11.937
 5300SOL    HW217734   7.674   2.334  11.915
 5301SOL     OW17735   9.879   7.075   0.723
 5301SOL    HW117736   9.786   7.092   0.707
 5301SOL    HW217737   9.885   6.980   0.733
 5302SOL     OW17738  11.552   4.298   7.058
 5302SOL    HW117739  11.613   4.357   7.102
 5302SOL    HW217740  11.473   4.300   7.113
 5303SOL     OW17741   9.822   8.236   7.717
 5303SOL    HW117742   9.828   8.149   7.677
 5303SOL    HW217743   9.755   8.226   7.785
 5304SOL     OW17744   0.247   4.297  12.084
 5304SOL    HW117745   0.316   4.231  12.080
 5304SOL    HW217746   0.197   4.285  12.003
 5305SOL     OW17747   8.363   3.712   0.427
 5305SOL    HW117748   8.333   3.767   0.354
 5305SOL    HW217749   8.387   3.629   0.386
 5306SOL     OW17750   3.733  12.687   4.361
 5306SOL    HW117751   3.651  12.736   4.365
 5306SOL    HW217752   3.748  12.673   4.268
 5307SOL     OW17753   0.506   1.132   2.341
 5307SOL    HW117754   0.416   1.114   2.370
 5307SOL    HW217755   0.542   1.188   2.409
 5308SOL     OW17756   2.312   3.191   8.448
 5308SOL    HW117757   2.247   3.160   8.510
 5308SOL    HW217758   2.344   3.273   8.485
 5309SOL     OW17759   1.822  13.472  10.019
 5309SOL    HW117760   1.803  13.445   9.929
 5309SOL    HW217761   1.742  13.517  10.047
 5310SOL     OW17762  14.247  13.044  13.745
 5310SOL    HW117763  14.294  13.096  13.810
 5310SOL    HW217764  14.203  13.109  13.689
 5311SOL     OW17765  10.054   1.412  13.335
 5311SOL    HW117766   9.985   1.348  13.315
 5311SOL    HW217767  10.049   1.476  13.264
 5312SOL     OW17768   6.214   2.893   1.961
 5312SOL    HW117769   6.194   2.830   1.893
 5312SOL    HW217770   6.274   2.956   1.920
 5313SOL     OW17771  11.725   2.917  11.501
 5313SOL    HW117772  11.762   2.924  11.413
 5313SOL    HW217773  11.709   3.008  11.528
 5314SOL     OW17774   6.682  12.796  14.185
 5314SOL    HW117775   6.671  12.714  14.137
 5314SOL    HW217776   6.594  12.817  14.217
 5315SOL     OW17777   5.355  13.545   2.075
 5315SOL    HW117778   5.347  13.621   2.018
 5315SOL    HW217779   5.388  13.476   2.018
 5316SOL     OW17780   7.663  14.041   3.926
 5316SOL    HW117781   7.719  14.091   3.985
 5316SOL    HW217782   7.651  13.956   3.970
 5317SOL     OW17783   2.914   0.908   9.813
 5317SOL    HW117784   2.978   0.883   9.747
 5317SOL    HW217785   2.877   0.990   9.781
 5318SOL     OW17786  14.656   8.499  12.972
 5318SOL    HW117787  14.601   8.532  13.043
 5318SOL    HW217788  14.628   8.549  12.895
 5319SOL     OW17789   3.284   8.228  11.603
 5319SOL    HW117790   3.202   8.274  11.588
 5319SOL    HW217791   3.273   8.184  11.687
 5320SOL     OW17792   1.887   3.453   6.798
 5320SOL    HW117793   1.820   3.492   6.742
 5320SOL    HW217794   1.841   3.431   6.879
 5321SOL     OW17795  12.065   2.726   8.821
 5321SOL    HW117796  12.041   2.634   8.824
 5321SOL    HW217797  12.077   2.745   8.728
 5322SOL     OW17798   2.802   8.665   4.493
 5322SOL    HW117799   2.811   8.646   4.399
 5322SOL    HW217800   2.759   8.588   4.529
 5323SOL     OW17801  14.776  12.001   8.816
 5323SOL    HW117802  14.739  12.067   8.757
 5323SOL    HW217803  14.700  11.964   8.862
 5324SOL     OW17804   7.011   6.316   7.887
 5324SOL    HW117805   6.983   6.258   7.958
 5324SOL    HW217806   7.105   6.302   7.880
 5325SOL     OW17807   8.161  14.540   8.616
 5325SOL    HW117808   8.177  14.630   8.645
 5325SOL    HW217809   8.225  14.527   8.546
 5326SOL     OW17810  13.737   8.821  12.306
 5326SOL    HW117811  13.706   8.792  12.392
 5326SOL    HW217812  13.832   8.804  12.308
 5327SOL     OW17813  13.136   5.339   4.199
 5327SOL    HW117814  13.041   5.327   4.197
 5327SOL    HW217815  13.149   5.426   4.163
 5328SOL     OW17816   1.442  12.297   8.740
 5328SOL    HW117817   1.381  12.295   8.667
 5328SOL    HW217818   1.405  12.361   8.801
 5329SOL     OW17819   2.626  12.134   3.073
 5329SOL    HW117820   2.585  12.065   3.020
 5329SOL    HW217821   2.700  12.164   3.020
 5330SOL     OW17822   8.667   0.957  10.519
 5330SOL    HW117823   8.659   0.876  10.468
 5330SOL    HW217824   8.693   1.023  10.455
 5331SOL     OW17825  12.548   3.105  13.918
 5331SOL    HW117826  12.569   3.091  14.011
 5331SOL    HW217827  12.457   3.134  13.919
 5332SOL     OW17828  13.016   8.799   9.489
 5332SOL    HW117829  12.962   8.742   9.544
 5332SOL    HW217830  13.007   8.762   9.401
 5333SOL     OW17831   5.790   5.741   5.027
 5333SOL    HW117832   5.723   5.750   5.095
 5333SOL    HW217833   5.872   5.760   5.072
 5334SOL     OW17834   9.904  12.787   4.969
 5334SOL    HW117835   9.953  12.709   4.941
 5334SOL    HW217836   9.951  12.860   4.930
 5335SOL     OW17837   1.355  11.433   7.385
 5335SOL    HW117838   1.270  11.471   7.364
 5335SOL    HW217839   1.357  11.430   7.481
 5336SOL     OW17840  10.635  14.250   1.045
 5336SOL    HW117841  10.716  14.215   1.007
 5336SOL    HW217842  10.623  14.201   1.126
 5337SOL     OW17843   6.194   1.779   1.209
 5337SOL    HW117844   6.141   1.796   1.131
 5337SOL    HW217845   6.217   1.866   1.242
 5338SOL     OW17846   2.651   9.127  11.259
 5338SOL    HW117847   2.565   9.170  11.254
 5338SOL    HW217848   2.631   9.036  11.281
 5339SOL     OW17849   8.511   4.571   1.011
 5339SOL    HW117850   8.419   4.588   0.990
 5339SOL    HW217851   8.554   4.566   0.926
 5340SOL     OW17852   0.666  12.857   9.030
 5340SOL    HW117853   0.696  12.807   9.105
 5340SOL    HW217854   0.627  12.792   8.972
 5341SOL     OW17855   5.895   5.839   9.012
 5341SOL    HW117856   5.898   5.892   9.091
 5341SOL    HW217857   5.986   5.813   8.997
 5342SOL     OW17858   1.922  11.405   6.201
 5342SOL    HW117859   1.885  11.322   6.232
 5342SOL    HW217860   1.910  11.403   6.106
 5343SOL     OW17861   4.911   4.241   1.684
 5343SOL    HW117862   4.993   4.216   1.725
 5343SOL    HW217863   4.936   4.307   1.619
 5344SOL     OW17864   9.927   3.088   8.480
 5344SOL    HW117865   9.860   3.021   8.489
 5344SOL    HW217866  10.010   3.040   8.479
 5345SOL     OW17867  13.736  12.460   3.435
 5345SOL    HW117868  13.802  12.450   3.366
 5345SOL    HW217869  13.655  12.429   3.396
 5346SOL     OW17870   8.447  14.733   0.489
 5346SOL    HW117871   8.415  14.718   0.400
 5346SOL    HW217872   8.458  14.645   0.526
 5347SOL     OW17873   1.492   7.014   2.520
 5347SOL    HW117874   1.568   6.988   2.468
 5347SOL    HW217875   1.527   7.070   2.589
 5348SOL     OW17876  12.842   2.450  10.713
 5348SOL    HW117877  12.784   2.396  10.659
 5348SOL    HW217878  12.786   2.480  10.785
 5349SOL     OW17879   8.981   2.784   1.978
 5349SOL    HW117880   8.920   2.747   1.914
 5349SOL    HW217881   9.065   2.744   1.957
 5350SOL     OW17882   7.830   8.860   7.445
 5350SOL    HW117883   7.890   8.805   7.395
 5350SOL    HW217884   7.829   8.944   7.400
 5351SOL     OW17885   5.232  11.825   4.926
 5351SOL    HW117886   5.216  11.899   4.868
 5351SOL    HW217887   5.263  11.755   4.868
 5352SOL     OW17888   1.900  14.731   9.942
 5352SOL    HW117889   1.992  14.754   9.931
 5352SOL    HW217890   1.876  14.765  10.028
 5353SOL     OW17891  12.572  11.607   3.822
 5353SOL    HW117892  12.504  11.599   3.755
 5353SOL    HW217893  12.600  11.699   3.817
 5354SOL     OW17894  11.957  12.849   7.779
 5354SOL    HW117895  11.952  12.793   7.857
 5354SOL    HW217896  11.937  12.937   7.812
 5355SOL     OW17897   5.834  13.781   4.435
 5355SOL    HW117898   5.855  13.825   4.517
 5355SOL    HW217899   5.770  13.838   4.393
 5356SOL     OW17900   6.618   6.442   7.775
 5356SOL    HW117901   6.650   6.521   7.732
 5356SOL    HW217902   6.674   6.372   7.741
 5357SOL     OW17903   3.483   8.253  10.567
 5357SOL    HW117904   3.396   8.279  10.597
 5357SOL    HW217905   3.513   8.189  10.632
 5358SOL     OW17906   3.208  13.808   1.033
 5358SOL    HW117907   3.241  13.804   1.123
 5358SOL    HW217908   3.287  13.812   0.978
 5359SOL     OW17909   9.942   6.390   9.528
 5359SOL    HW117910   9.871   6.432   9.478
 5359SOL    HW217911  10.017   6.393   9.469
 5360SOL     OW17912   7.440  14.705   7.708
 5360SOL    HW117913   7.452  14.636   7.643
 5360SOL    HW217914   7.517  14.697   7.765
 5361SOL     OW17915   4.760   4.175   7.085
 5361SOL    HW117916   4.783   4.124   7.163
 5361SOL    HW217917   4.664   4.179   7.087
 5362SOL     OW17918   8.460   8.934   8.273
 5362SOL    HW117919   8.421   8.980   8.199
 5362SOL    HW217920   8.539   8.893   8.238
 5363SOL     OW17921  10.945   1.035  10.184
 5363SOL    HW117922  11.025   1.060  10.230
 5363SOL    HW217923  10.889   0.999  10.253
 5364SOL     OW17924   6.495   9.779  14.799
 5364SOL    HW117925   6.416   9.749  14.754
 5364SOL    HW217926   6.567   9.733  14.756
 5365SOL     OW17927  14.771   0.533  14.100
 5365SOL    HW117928  14.686   0.501  14.130
 5365SOL    HW217929  14.750   0.594  14.029
 5366SOL     OW17930  14.661  13.151   3.807
 5366SOL    HW117931  14.588  13.143   3.868
 5366SOL    HW217932  14.704  13.065   3.809
 5367SOL     OW17933  14.523   1.211   6.008
 5367SOL    HW117934  14.561   1.179   5.926
 5367SOL    HW217935  14.472   1.137   6.041
 5368SOL     OW17936   5.421   8.428   5.942
 5368SOL    HW117937   5.437   8.367   6.014
 5368SOL    HW217938   5.505   8.432   5.895
 5369SOL     OW17939   1.901   2.168   8.535
 5369SOL    HW117940   1.944   2.089   8.503
 5369SOL    HW217941   1.903   2.160   8.630
 5370SOL     OW17942  12.846   4.764   8.968
 5370SOL    HW117943  12.761   4.732   8.999
 5370SOL    HW217944  12.830   4.854   8.941
 5371SOL     OW17945   2.180   8.032   1.753
 5371SOL    HW117946   2.217   8.004   1.670
 5371SOL    HW217947   2.229   7.983   1.819
 5372SOL     OW17948   8.076   9.207  14.799
 5372SOL    HW117949   8.121   9.125  14.817
 5372SOL    HW217950   8.116   9.239  14.718
 5373SOL     OW17951   3.131  10.873   6.656
 5373SOL    HW117952   3.156  10.788   6.693
 5373SOL    HW217953   3.198  10.892   6.591
 5374SOL     OW17954  13.129   2.520   1.840
 5374SOL    HW117955  13.083   2.595   1.878
 5374SOL    HW217956  13.108   2.447   1.898
 5375SOL     OW17957   4.086  11.379   5.628
 5375SOL    HW117958   4.153  11.345   5.569
 5375SOL    HW217959   4.076  11.311   5.695
 5376SOL     OW17960   3.757  11.636   4.518
 5376SOL    HW117961   3.732  11.689   4.443
 5376SOL    HW217962   3.840  11.596   4.493
 5377SOL     OW17963   3.584   5.269   9.612
 5377SOL    HW117964   3.604   5.190   9.662
 5377SOL    HW217965   3.640   5.337   9.649
 5378SOL     OW17966   6.707   6.321   7.064
 5378SOL    HW117967   6.652   6.264   7.011
 5378SOL    HW217968   6.770   6.359   7.002
 5379SOL     OW17969   0.410  14.321   7.152
 5379SOL    HW117970   0.421  14.415   7.170
 5379SOL    HW217971   0.394  14.316   7.058
 5380SOL     OW17972  13.175   3.736   4.036
 5380SOL    HW117973  13.148   3.736   3.945
 5380SOL    HW217974  13.095   3.755   4.085
 5381SOL     OW17975   3.290   1.649  14.561
 5381SOL    HW117976   3.240   1.654  14.480
 5381SOL    HW217977   3.365   1.707  14.546
 5382SOL     OW17978   3.986   0.840   2.724
 5382SOL    HW117979   4.016   0.904   2.789
 5382SOL    HW217980   4.061   0.782   2.712
 5383SOL     OW17981  12.833   1.235   6.003
 5383SOL    HW117982  12.837   1.235   5.907
 5383SOL    HW217983  12.924   1.222   6.030
 5384SOL     OW17984   5.577  10.014   0.086
 5384SOL    HW117985   5.484  10.037   0.082
 5384SOL    HW217986   5.604  10.006  14.873
 5385SOL     OW17987   1.613   3.079   8.516
 5385SOL    HW117988   1.621   3.011   8.449
 5385SOL    HW217989   1.703   3.096   8.545
 5386SOL     OW17990   7.305   4.203   1.680
 5386SOL    HW117991   7.323   4.239   1.593
 5386SOL    HW217992   7.357   4.123   1.683
 5387SOL     OW17993   3.088   8.089   1.253
 5387SOL    HW117994   3.024   8.064   1.320
 5387SOL    HW217995   3.125   8.171   1.284
 5388SOL     OW17996   2.052   4.881   6.463
 5388SOL    HW117997   2.020   4.908   6.549
 5388SOL    HW217998   2.068   4.963   6.417
 5389SOL     OW17999   4.827  14.749   4.700
 5389SOL    HW118000   4.765  14.697   4.751
 5389SOL    HW218001   4.781  14.832   4.685
 5390SOL     OW18002   4.434  13.861  11.342
 5390SOL    HW118003   4.443  13.956  11.330
 5390SOL    HW218004   4.485  13.842  11.420
 5391SOL     OW18005   2.300   9.637  12.753
 5391SOL    HW118006   2.337   9.622  12.840
 5391SOL    HW218007   2.206   9.624  12.764
 5392SOL     OW18008  10.668  12.784   5.889
 5392SOL    HW118009  10.761  12.764   5.900
 5392SOL    HW218010  10.660  12.813   5.798
 5393SOL     OW18011   6.145   6.479   8.318
 5393SOL    HW118012   6.055   6.502   8.299
 5393SOL    HW218013   6.178   6.552   8.371
 5394SOL     OW18014   6.441   0.665   0.406
 5394SOL    HW118015   6.469   0.591   0.459
 5394SOL    HW218016   6.345   0.659   0.404
 5395SOL     OW18017   5.028  12.831   4.788
 5395SOL    HW118018   4.998  12.882   4.864
 5395SOL    HW218019   5.049  12.745   4.825
 5396SOL     OW18020  14.473   6.225  11.362
 5396SOL    HW118021  14.448   6.151  11.307
 5396SOL    HW218022  14.415   6.296  11.335
 5397SOL     OW18023   6.935   8.921   2.715
 5397SOL    HW118024   6.857   8.930   2.659
 5397SOL    HW218025   6.905   8.866   2.788
 5398SOL     OW18026   8.054   7.570   5.986
 5398SOL    HW118027   8.004   7.589   5.906
 5398SOL    HW218028   7.995   7.516   6.038
 5399SOL     OW18029  14.247   3.612   1.975
 5399SOL    HW118030  14.221   3.537   2.028
 5399SOL    HW218031  14.281   3.675   2.039
 5400SOL     OW18032   5.634   9.258   2.786
 5400SOL    HW118033   5.586   9.333   2.750
 5400SOL    HW218034   5.612   9.186   2.727
 5401SOL     OW18035   8.278   4.094  12.008
 5401SOL    HW118036   8.199   4.056  12.047
 5401SOL    HW218037   8.255   4.109  11.916
 5402SOL     OW18038   8.774  12.508   2.845
 5402SOL    HW118039   8.806  12.540   2.761
 5402SOL    HW218040   8.710  12.441   2.822
 5403SOL     OW18041   1.286  13.607   8.490
 5403SOL    HW118042   1.334  13.674   8.441
 5403SOL    HW218043   1.194  13.621   8.467
 5404SOL     OW18044   1.865   6.297   2.200
 5404SOL    HW118045   1.888   6.379   2.157
 5404SOL    HW218046   1.776   6.311   2.233
 5405SOL     OW18047   1.292   4.013   5.729
 5405SOL    HW118048   1.379   4.052   5.726
 5405SOL    HW218049   1.283   3.980   5.818
 5406SOL     OW18050  10.819   2.216   3.030
 5406SOL    HW118051  10.764   2.167   2.968
 5406SOL    HW218052  10.866   2.148   3.078
 5407SOL     OW18053  14.194   9.335   5.050
 5407SOL    HW118054  14.199   9.365   4.960
 5407SOL    HW218055  14.285   9.324   5.077
 5408SOL     OW18056   2.096   9.214  11.631
 5408SOL    HW118057   2.053   9.210  11.716
 5408SOL    HW218058   2.034   9.172  11.571
 5409SOL     OW18059   6.424   6.126  14.144
 5409SOL    HW118060   6.451   6.217  14.136
 5409SOL    HW218061   6.497   6.075  14.107
 5410SOL     OW18062  12.354   0.125  11.937
 5410SOL    HW118063  12.407   0.179  11.996
 5410SOL    HW218064  12.330   0.049  11.990
 5411SOL     OW18065  14.719   3.418  12.581
 5411SOL    HW118066  14.658   3.348  12.606
 5411SOL    HW218067  14.675   3.498  12.609
 5412SOL     OW18068  10.640  13.230   4.956
 5412SOL    HW118069  10.701  13.157   4.964
 5412SOL    HW218070  10.676  13.297   5.014
 5413SOL     OW18071   1.749   6.495   8.026
 5413SOL    HW118072   1.838   6.470   8.052
 5413SOL    HW218073   1.722   6.558   8.092
 5414SOL     OW18074  10.973   1.358  13.814
 5414SOL    HW118075  10.950   1.332  13.725
 5414SOL    HW218076  10.998   1.450  13.806
 5415SOL     OW18077  12.516  12.883  11.844
 5415SOL    HW118078  12.441  12.930  11.808
 5415SOL    HW218079  12.592  12.927  11.807
 5416SOL     OW18080   3.790   8.804  11.129
 5416SOL    HW118081   3.708   8.756  11.114
 5416SOL    HW218082   3.799   8.805  11.225
 5417SOL     OW18083   5.220   3.430  13.871
 5417SOL    HW118084   5.169   3.454  13.794
 5417SOL    HW218085   5.207   3.504  13.932
 5418SOL     OW18086   6.709  13.420  12.136
 5418SOL    HW118087   6.688  13.510  12.111
 5418SOL    HW218088   6.624  13.375  12.139
 5419SOL     OW18089   6.036   2.871  14.231
 5419SOL    HW118090   6.115   2.902  14.188
 5419SOL    HW218091   6.025   2.781  14.198
 5420SOL     OW18092  13.150  11.460   0.813
 5420SOL    HW118093  13.073  11.510   0.788
 5420SOL    HW218094  13.117  11.373   0.834
 5421SOL     OW18095   6.624   7.375  13.783
 5421SOL    HW118096   6.641   7.324  13.863
 5421SOL    HW218097   6.694   7.440  13.781
 5422SOL     OW18098   5.176  12.518  10.123
 5422SOL    HW118099   5.107  12.464  10.161
 5422SOL    HW218100   5.200  12.579  10.193
 5423SOL     OW18101   1.786  11.569   7.664
 5423SOL    HW118102   1.871  11.579   7.620
 5423SOL    HW218103   1.756  11.658   7.679
 5424SOL     OW18104  13.837  13.371   8.937
 5424SOL    HW118105  13.894  13.421   8.996
 5424SOL    HW218106  13.836  13.421   8.856
 5425SOL     OW18107   2.287  11.727   7.771
 5425SOL    HW118108   2.316  11.637   7.782
 5425SOL    HW218109   2.300  11.768   7.856
 5426SOL     OW18110   5.717   6.949   3.756
 5426SOL    HW118111   5.706   6.866   3.710
 5426SOL    HW218112   5.737   7.012   3.687
 5427SOL     OW18113   9.704   3.048   8.883
 5427SOL    HW118114   9.778   2.989   8.870
 5427SOL    HW218115   9.694   3.053   8.978
 5428SOL     OW18116   2.791  11.281   9.649
 5428SOL    HW118117   2.861  11.322   9.598
 5428SOL    HW218118   2.835  11.246   9.727
 5429SOL     OW18119   0.033   6.852  13.715
 5429SOL    HW118120   0.106   6.901  13.677
 5429SOL    HW218121  14.840   6.915  13.717
 5430SOL     OW18122   8.153  14.590  11.778
 5430SOL    HW118123   8.087  14.544  11.726
 5430SOL    HW218124   8.132  14.568  11.868
 5431SOL     OW18125   6.820   4.789   1.479
 5431SOL    HW118126   6.796   4.879   1.498
 5431SOL    HW218127   6.783   4.738   1.552
 5432SOL     OW18128   9.864   9.830   3.840
 5432SOL    HW118129   9.792   9.790   3.890
 5432SOL    HW218130   9.895   9.900   3.896
 5433SOL     OW18131   0.745  13.661   2.679
 5433SOL    HW118132   0.660  13.705   2.685
 5433SOL    HW218133   0.757  13.621   2.765
 5434SOL     OW18134   0.152  10.023  10.911
 5434SOL    HW118135   0.247  10.034  10.907
 5434SOL    HW218136   0.139   9.929  10.905
 5435SOL     OW18137  12.210   6.915  14.093
 5435SOL    HW118138  12.188   6.926  14.186
 5435SOL    HW218139  12.265   6.991  14.073
 5436SOL     OW18140   9.443  10.910   8.269
 5436SOL    HW118141   9.394  10.830   8.251
 5436SOL    HW218142   9.479  10.898   8.357
 5437SOL     OW18143  13.881  10.209   6.659
 5437SOL    HW118144  13.939  10.148   6.705
 5437SOL    HW218145  13.843  10.157   6.588
 5438SOL     OW18146  12.396  11.185   9.762
 5438SOL    HW118147  12.356  11.189   9.675
 5438SOL    HW218148  12.402  11.091   9.782
 5439SOL     OW18149  13.187  11.172  14.715
 5439SOL    HW118150  13.254  11.152  14.650
 5439SOL    HW218151  13.225  11.143  14.798
 5440SOL     OW18152  12.595  14.491  13.914
 5440SOL    HW118153  12.510  14.509  13.874
 5440SOL    HW218154  12.658  14.515  13.847
 5441SOL     OW18155  14.079  12.267   8.905
 5441SOL    HW118156  14.012  12.336   8.909
 5441SOL    HW218157  14.031  12.189   8.877
 5442SOL     OW18158  10.439   4.883   7.006
 5442SOL    HW118159  10.350   4.868   7.037
 5442SOL    HW218160  10.432   4.957   6.946
 5443SOL     OW18161  14.484  12.022  11.914
 5443SOL    HW118162  14.534  11.941  11.911
 5443SOL    HW218163  14.540  12.082  11.964
 5444SOL     OW18164  11.608   3.062   9.917
 5444SOL    HW118165  11.650   2.990   9.869
 5444SOL    HW218166  11.547   3.100   9.854
 5445SOL     OW18167   8.675  13.551   7.448
 5445SOL    HW118168   8.596  13.541   7.396
 5445SOL    HW218169   8.665  13.635   7.492
 5446SOL     OW18170  12.633  12.721  14.201
 5446SOL    HW118171  12.581  12.783  14.149
 5446SOL    HW218172  12.705  12.695  14.143
 5447SOL     OW18173  12.982  10.389   5.765
 5447SOL    HW118174  12.904  10.444   5.775
 5447SOL    HW218175  12.948  10.302   5.744
 5448SOL     OW18176  14.329   7.560   7.422
 5448SOL    HW118177  14.276   7.480   7.422
 5448SOL    HW218178  14.325   7.591   7.332
 5449SOL     OW18179   0.731   9.945  11.506
 5449SOL    HW118180   0.755  10.032  11.474
 5449SOL    HW218181   0.636   9.950  11.519
 5450SOL     OW18182   8.964   0.158   2.593
 5450SOL    HW118183   8.912   0.106   2.655
 5450SOL    HW218184   9.011   0.221   2.648
 5451SOL     OW18185   1.075   0.488  11.598
 5451SOL    HW118186   1.153   0.471  11.545
 5451SOL    HW218187   1.107   0.483  11.688
 5452SOL     OW18188   3.338   3.084   9.756
 5452SOL    HW118189   3.340   3.036   9.839
 5452SOL    HW218190   3.412   3.047   9.707
 5453SOL     OW18191  12.108   9.790   8.327
 5453SOL    HW118192  12.181   9.741   8.366
 5453SOL    HW218193  12.067   9.834   8.402
 5454SOL     OW18194   9.498  13.423   9.882
 5454SOL    HW118195   9.524  13.332   9.869
 5454SOL    HW218196   9.563  13.474   9.835
 5455SOL     OW18197   8.615   3.035   8.932
 5455SOL    HW118198   8.598   2.957   8.880
 5455SOL    HW218199   8.637   3.102   8.867
 5456SOL     OW18200   2.432   3.790   4.672
 5456SOL    HW118201   2.528   3.786   4.672
 5456SOL    HW218202   2.409   3.803   4.580
 5457SOL     OW18203   2.756  11.239  14.227
 5457SOL    HW118204   2.825  11.258  14.290
 5457SOL    HW218205   2.679  11.285  14.260
 5458SOL     OW18206  11.109   0.915   7.491
 5458SOL    HW118207  11.134   0.831   7.529
 5458SOL    HW218208  11.154   0.916   7.406
 5459SOL     OW18209   4.515   3.135   1.940
 5459SOL    HW118210   4.572   3.204   1.906
 5459SOL    HW218211   4.488   3.086   1.862
 5460SOL     OW18212   3.221   6.072  11.882
 5460SOL    HW118213   3.190   6.159  11.855
 5460SOL    HW218214   3.313   6.071  11.857
 5461SOL     OW18215   5.473  10.125  12.708
 5461SOL    HW118216   5.381  10.103  12.692
 5461SOL    HW218217   5.503  10.060  12.772
 5462SOL     OW18218   6.769   4.514  12.359
 5462SOL    HW118219   6.677   4.515  12.384
 5462SOL    HW218220   6.815   4.540  12.438
 5463SOL     OW18221   3.039   7.539   6.758
 5463SOL    HW118222   3.044   7.632   6.779
 5463SOL    HW218223   2.976   7.533   6.686
 5464SOL     OW18224   1.164  10.957   5.367
 5464SOL    HW118225   1.244  10.943   5.417
 5464SOL    HW218226   1.094  10.955   5.433
 5465SOL     OW18227   6.473   9.061   9.653
 5465SOL    HW118228   6.489   9.130   9.590
 5465SOL    HW218229   6.408   9.005   9.611
 5466SOL     OW18230   9.357   9.934   3.217
 5466SOL    HW118231   9.370   9.941   3.123
 5466SOL    HW218232   9.282   9.876   3.227
 5467SOL     OW18233   5.932   3.618   3.439
 5467SOL    HW118234   5.948   3.622   3.533
 5467SOL    HW218235   6.010   3.575   3.403
 5468SOL     OW18236   0.764  11.950  11.817
 5468SOL    HW118237   0.822  12.012  11.862
 5468SOL    HW218238   0.755  11.877  11.878
 5469SOL     OW18239   8.759   1.183   7.543
 5469SOL    HW118240   8.747   1.218   7.455
 5469SOL    HW218241   8.854   1.190   7.559
 5470SOL     OW18242   6.177   9.712   5.670
 5470SOL    HW118243   6.183   9.794   5.717
 5470SOL    HW218244   6.209   9.732   5.582
 5471SOL     OW18245   1.437   9.316  12.309
 5471SOL    HW118246   1.397   9.384  12.255
 5471SOL    HW218247   1.449   9.242  12.249
 5472SOL     OW18248   2.538   7.794   0.888
 5472SOL    HW118249   2.531   7.732   0.815
 5472SOL    HW218250   2.467   7.769   0.947
 5473SOL     OW18251  13.904   8.304  11.086
 5473SOL    HW118252  13.857   8.292  11.003
 5473SOL    HW218253  13.900   8.218  11.128
 5474SOL     OW18254  11.266  10.396   0.735
 5474SOL    HW118255  11.330  10.464   0.753
 5474SOL    HW218256  11.306  10.315   0.767
 5475SOL     OW18257   0.135   7.858   0.558
 5475SOL    HW118258   0.099   7.818   0.637
 5475SOL    HW218259   0.147   7.950   0.582
 5476SOL     OW18260   7.369  12.660   6.408
 5476SOL    HW118261   7.300  12.607   6.447
 5476SOL    HW218262   7.411  12.601   6.344
 5477SOL     OW18263   1.098   4.905  12.310
 5477SOL    HW118264   1.033   4.856  12.360
 5477SOL    HW218265   1.139   4.840  12.253
 5478SOL     OW18266   4.201   4.657  14.490
 5478SOL    HW118267   4.155   4.661  14.574
 5478SOL    HW218268   4.289   4.628  14.513
 5479SOL     OW18269   6.160  14.222   7.673
 5479SOL    HW118270   6.197  14.209   7.585
 5479SOL    HW218271   6.181  14.313   7.694
 5480SOL     OW18272  11.604   6.487   6.252
 5480SOL    HW118273  11.668   6.521   6.314
 5480SOL    HW218274  11.643   6.407   6.218
 5481SOL     OW18275   1.794   9.772   3.562
 5481SOL    HW118276   1.798   9.834   3.489
 5481SOL    HW218277   1.881   9.731   3.563
 5482SOL     OW18278   4.769   1.864  13.559
 5482SOL    HW118279   4.683   1.905  13.571
 5482SOL    HW218280   4.758   1.776  13.593
 5483SOL     OW18281  13.922   9.848  11.477
 5483SOL    HW118282  13.927   9.827  11.384
 5483SOL    HW218283  13.829   9.862  11.495
 5484SOL     OW18284   8.072   1.042   0.088
 5484SOL    HW118285   8.057   1.004   0.001
 5484SOL    HW218286   8.065   1.136   0.074
 5485SOL     OW18287  12.270   4.476  11.475
 5485SOL    HW118288  12.292   4.562  11.441
 5485SOL    HW218289  12.232   4.429  11.401
 5486SOL     OW18290   7.594   2.781  12.352
 5486SOL    HW118291   7.509   2.786  12.395
 5486SOL    HW218292   7.577   2.738  12.268
 5487SOL     OW18293   7.970  14.600   9.407
 5487SOL    HW118294   7.948  14.596   9.314
 5487SOL    HW218295   7.946  14.688   9.434
 5488SOL     OW18296   5.226   2.695   5.173
 5488SOL    HW118297   5.136   2.682   5.143
 5488SOL    HW218298   5.219   2.766   5.237
 5489SOL     OW18299  14.271   3.589   4.549
 5489SOL    HW118300  14.214   3.654   4.508
 5489SOL    HW218301  14.268   3.610   4.642
 5490SOL     OW18302   0.614   9.178  10.218
 5490SOL    HW118303   0.549   9.224  10.272
 5490SOL    HW218304   0.608   9.220  10.132
 5491SOL     OW18305  11.278  12.965   0.093
 5491SOL    HW118306  11.234  12.970   0.008
 5491SOL    HW218307  11.360  12.920   0.074
 5492SOL     OW18308   8.594   5.719  13.777
 5492SOL    HW118309   8.625   5.682  13.695
 5492SOL    HW218310   8.666   5.775  13.807
 5493SOL     OW18311   1.494  11.926   4.898
 5493SOL    HW118312   1.492  12.019   4.919
 5493SOL    HW218313   1.442  11.918   4.817
 5494SOL     OW18314  11.077  11.559   0.233
 5494SOL    HW118315  11.043  11.646   0.212
 5494SOL    HW218316  11.063  11.549   0.327
 5495SOL     OW18317   3.303  10.161   0.111
 5495SOL    HW118318   3.396  10.166   0.087
 5495SOL    HW218319   3.288  10.240   0.163
 5496SOL     OW18320   0.081   6.460   8.623
 5496SOL    HW118321   0.046   6.549   8.619
 5496SOL    HW218322   0.135   6.452   8.545
 5497SOL     OW18323  11.013  11.182   9.209
 5497SOL    HW118324  11.084  11.200   9.147
 5497SOL    HW218325  10.992  11.268   9.246
 5498SOL     OW18326   1.061   7.859   6.930
 5498SOL    HW118327   0.981   7.902   6.959
 5498SOL    HW218328   1.033   7.803   6.857
 5499SOL     OW18329  11.023   3.398   4.967
 5499SOL    HW118330  11.040   3.439   5.052
 5499SOL    HW218331  10.946   3.343   4.983
 5500SOL     OW18332  10.264   1.151   6.185
 5500SOL    HW118333  10.249   1.196   6.102
 5500SOL    HW218334  10.250   1.058   6.165
 5501SOL     OW18335   9.490   0.483   3.971
 5501SOL    HW118336   9.439   0.490   3.890
 5501SOL    HW218337   9.430   0.444   4.034
 5502SOL     OW18338  12.972   0.515   6.255
 5502SOL    HW118339  12.989   0.433   6.303
 5502SOL    HW218340  12.990   0.493   6.164
 5503SOL     OW18341   6.895   2.248   8.430
 5503SOL    HW118342   6.860   2.319   8.376
 5503SOL    HW218343   6.977   2.225   8.387
 5504SOL     OW18344   2.462  12.316   3.563
 5504SOL    HW118345   2.467  12.313   3.468
 5504SOL    HW218346   2.373  12.349   3.581
 5505SOL     OW18347  12.243  10.359   4.749
 5505SOL    HW118348  12.201  10.403   4.675
 5505SOL    HW218349  12.332  10.342   4.719
 5506SOL     OW18350   5.242   8.690  11.885
 5506SOL    HW118351   5.157   8.723  11.857
 5506SOL    HW218352   5.297   8.768  11.894
 5507SOL     OW18353   4.898   3.997  11.238
 5507SOL    HW118354   4.863   3.916  11.202
 5507SOL    HW218355   4.857   4.005  11.324
 5508SOL     OW18356  12.054   6.372   1.599
 5508SOL    HW118357  12.123   6.316   1.638
 5508SOL    HW218358  12.014   6.416   1.674
 5509SOL     OW18359  12.993   6.013   9.320
 5509SOL    HW118360  12.939   6.090   9.340
 5509SOL    HW218361  12.930   5.947   9.293
 5510SOL     OW18362   4.561   4.007   7.375
 5510SOL    HW118363   4.477   3.972   7.405
 5510SOL    HW218364   4.624   3.978   7.441
 5511SOL     OW18365   8.800  14.287   4.562
 5511SOL    HW118366   8.794  14.282   4.658
 5511SOL    HW218367   8.833  14.376   4.546
 5512SOL     OW18368  11.145   1.798   0.216
 5512SOL    HW118369  11.110   1.756   0.138
 5512SOL    HW218370  11.195   1.729   0.260
 5513SOL     OW18371  12.595  12.792  11.167
 5513SOL    HW118372  12.605  12.750  11.252
 5513SOL    HW218373  12.674  12.846  11.158
 5514SOL     OW18374  12.036   6.606   0.068
 5514SOL    HW118375  12.053   6.642  14.860
 5514SOL    HW218376  11.953   6.646   0.095
 5515SOL     OW18377   0.322  14.100   3.758
 5515SOL    HW118378   0.312  14.155   3.681
 5515SOL    HW218379   0.407  14.057   3.746
 5516SOL     OW18380   0.172   6.767   7.830
 5516SOL    HW118381   0.228   6.723   7.893
 5516SOL    HW218382   0.223   6.844   7.802
 5517SOL     OW18383   2.747   2.195   1.300
 5517SOL    HW118384   2.687   2.266   1.278
 5517SOL    HW218385   2.764   2.151   1.216
 5518SOL     OW18386   9.170  11.912   3.294
 5518SOL    HW118387   9.206  11.980   3.238
 5518SOL    HW218388   9.245  11.879   3.343
 5519SOL     OW18389   7.299   5.730  12.028
 5519SOL    HW118390   7.216   5.766  12.059
 5519SOL    HW218391   7.359   5.804  12.031
 5520SOL     OW18392   4.494   6.676   7.981
 5520SOL    HW118393   4.518   6.616   8.051
 5520SOL    HW218394   4.543   6.756   7.998
 5521SOL     OW18395   0.592   7.250   5.038
 5521SOL    HW118396   0.589   7.340   5.069
 5521SOL    HW218397   0.673   7.245   4.986
 5522SOL     OW18398   5.562   9.559   1.756
 5522SOL    HW118399   5.623   9.608   1.700
 5522SOL    HW218400   5.561   9.471   1.718
 5523SOL     OW18401   8.122  10.458   5.488
 5523SOL    HW118402   8.206  10.487   5.524
 5523SOL    HW218403   8.064  10.454   5.564
 5524SOL     OW18404   9.857   1.126   3.091
 5524SOL    HW118405   9.824   1.165   3.171
 5524SOL    HW218406   9.870   1.033   3.113
 5525SOL     OW18407   5.824  13.896   5.264
 5525SOL    HW118408   5.783  13.814   5.236
 5525SOL    HW218409   5.836  13.885   5.359
 5526SOL     OW18410   8.943   8.645   8.958
 5526SOL    HW118411   8.867   8.687   8.997
 5526SOL    HW218412   8.996   8.718   8.925
 5527SOL     OW18413   8.911   7.664   2.130
 5527SOL    HW118414   8.910   7.568   2.131
 5527SOL    HW218415   8.978   7.688   2.194
 5528SOL     OW18416  12.935  14.427   7.856
 5528SOL    HW118417  12.890  14.369   7.794
 5528SOL    HW218418  13.023  14.389   7.863
 5529SOL     OW18419  11.314   1.728   6.166
 5529SOL    HW118420  11.297   1.818   6.196
 5529SOL    HW218421  11.332   1.679   6.246
 5530SOL     OW18422  12.969  11.241  11.506
 5530SOL    HW118423  12.929  11.184  11.440
 5530SOL    HW218424  13.062  11.243  11.484
 5531SOL     OW18425   0.387   8.105   0.548
 5531SOL    HW118426   0.302   8.086   0.588
 5531SOL    HW218427   0.366   8.163   0.475
 5532SOL     OW18428   3.261   0.325   9.330
 5532SOL    HW118429   3.214   0.345   9.410
 5532SOL    HW218430   3.262   0.229   9.325
 5533SOL     OW18431   1.555   0.016   1.803
 5533SOL    HW118432   1.650   0.031   1.807
 5533SOL    HW218433   1.546  14.801   1.821
 5534SOL     OW18434  11.817   3.623   6.276
 5534SOL    HW118435  11.903   3.596   6.310
 5534SOL    HW218436  11.837   3.670   6.195
 5535SOL     OW18437   2.528   9.347   1.454
 5535SOL    HW118438   2.581   9.282   1.499
 5535SOL    HW218439   2.500   9.304   1.374
 5536SOL     OW18440   0.857   0.375   9.058
 5536SOL    HW118441   0.896   0.292   9.030
 5536SOL    HW218442   0.763   0.363   9.044
 5537SOL     OW18443   3.381  10.915  11.722
 5537SOL    HW118444   3.476  10.900  11.715
 5537SOL    HW218445   3.374  10.994  11.775
 5538SOL     OW18446   5.346   8.228   0.777
 5538SOL    HW118447   5.407   8.253   0.709
 5538SOL    HW218448   5.400   8.191   0.846
 5539SOL     OW18449  13.022   2.073   9.275
 5539SOL    HW118450  13.045   2.165   9.293
 5539SOL    HW218451  13.093   2.041   9.219
 5540SOL     OW18452   9.389  11.690   3.610
 5540SOL    HW118453   9.365  11.626   3.542
 5540SOL    HW218454   9.466  11.652   3.652
 5541SOL     OW18455   9.948   5.410   8.926
 5541SOL    HW118456  10.005   5.385   8.853
 5541SOL    HW218457  10.007   5.442   8.994
 5542SOL     OW18458   7.316  12.576   6.822
 5542SOL    HW118459   7.311  12.671   6.807
 5542SOL    HW218460   7.226  12.545   6.806
 5543SOL     OW18461   0.909   3.938   1.130
 5543SOL    HW118462   0.979   4.003   1.140
 5543SOL    HW218463   0.899   3.900   1.218
 5544SOL     OW18464   7.663   4.376   1.175
 5544SOL    HW118465   7.570   4.361   1.156
 5544SOL    HW218466   7.671   4.470   1.186
 5545SOL     OW18467   7.006  13.031   7.534
 5545SOL    HW118468   7.029  13.117   7.570
 5545SOL    HW218469   6.925  13.007   7.580
 5546SOL     OW18470   4.925  14.525  13.324
 5546SOL    HW118471   4.906  14.588  13.254
 5546SOL    HW218472   4.886  14.564  13.402
 5547SOL     OW18473  12.906  14.507  11.155
 5547SOL    HW118474  12.827  14.495  11.206
 5547SOL    HW218475  12.885  14.579  11.095
 5548SOL     OW18476   8.178   6.923   3.730
 5548SOL    HW118477   8.197   6.846   3.783
 5548SOL    HW218478   8.083   6.934   3.737
 5549SOL     OW18479  14.472   8.162   2.386
 5549SOL    HW118480  14.404   8.095   2.378
 5549SOL    HW218481  14.439   8.235   2.334
 5550SOL     OW18482   0.343   9.699   2.425
 5550SOL    HW118483   0.315   9.687   2.334
 5550SOL    HW218484   0.299   9.629   2.473
 5551SOL     OW18485  11.515   4.729   3.692
 5551SOL    HW118486  11.490   4.774   3.773
 5551SOL    HW218487  11.582   4.786   3.653
 5552SOL     OW18488   5.463  12.104  13.318
 5552SOL    HW118489   5.490  12.153  13.395
 5552SOL    HW218490   5.385  12.055  13.346
 5553SOL     OW18491  10.806  14.829   9.981
 5553SOL    HW118492  10.888  14.827   9.932
 5553SOL    HW218493  10.804  14.746  10.029
 5554SOL     OW18494  10.708  13.346   4.354
 5554SOL    HW118495  10.785  13.298   4.385
 5554SOL    HW218496  10.664  13.375   4.434
 5555SOL     OW18497   5.656  14.561   5.946
 5555SOL    HW118498   5.582  14.613   5.915
 5555SOL    HW218499   5.620  14.507   6.016
 5556SOL     OW18500   7.096   4.778   4.584
 5556SOL    HW118501   7.060   4.697   4.548
 5556SOL    HW218502   7.085   4.843   4.514
 5557SOL     OW18503   4.683   4.845  14.137
 5557SOL    HW118504   4.659   4.783  14.206
 5557SOL    HW218505   4.772   4.821  14.112
 5558SOL     OW18506  11.691  12.521   0.263
 5558SOL    HW118507  11.616  12.565   0.301
 5558SOL    HW218508  11.664  12.498   0.174
 5559SOL     OW18509   4.533   8.348  13.011
 5559SOL    HW118510   4.460   8.402  13.040
 5559SOL    HW218511   4.610   8.404  13.024
 5560SOL     OW18512   6.177   8.265   4.422
 5560SOL    HW118513   6.087   8.234   4.417
 5560SOL    HW218514   6.206   8.272   4.331
 5561SOL     OW18515   9.775  11.131   3.168
 5561SOL    HW118516   9.762  11.175   3.253
 5561SOL    HW218517   9.782  11.203   3.105
 5562SOL     OW18518  12.776   0.878   8.354
 5562SOL    HW118519  12.764   0.830   8.272
 5562SOL    HW218520  12.865   0.913   8.348
 5563SOL     OW18521   3.321   6.635   2.091
 5563SOL    HW118522   3.361   6.559   2.133
 5563SOL    HW218523   3.359   6.636   2.003
 5564SOL     OW18524   9.561  13.645   0.104
 5564SOL    HW118525   9.644  13.684   0.074
 5564SOL    HW218526   9.496  13.714   0.088
 5565SOL     OW18527  14.025   1.830   6.565
 5565SOL    HW118528  13.934   1.836   6.537
 5565SOL    HW218529  14.063   1.915   6.541
 5566SOL     OW18530   4.152  12.894  13.757
 5566SOL    HW118531   4.113  12.909  13.671
 5566SOL    HW218532   4.227  12.837  13.739
 5567SOL     OW18533   6.662   2.816   4.507
 5567SOL    HW118534   6.610   2.768   4.571
 5567SOL    HW218535   6.744   2.767   4.501
 5568SOL     OW18536   2.909   4.295   5.353
 5568SOL    HW118537   2.905   4.363   5.285
 5568SOL    HW218538   2.991   4.312   5.399
 5569SOL     OW18539   5.890  14.110  13.411
 5569SOL    HW118540   5.922  14.106  13.501
 5569SOL    HW218541   5.837  14.190  13.408
 5570SOL     OW18542   3.756  14.551   9.235
 5570SOL    HW118543   3.792  14.514   9.315
 5570SOL    HW218544   3.798  14.502   9.165
 5571SOL     OW18545   1.513   1.608  10.341
 5571SOL    HW118546   1.440   1.669  10.337
 5571SOL    HW218547   1.485   1.541  10.403
 5572SOL     OW18548   6.023  11.820   2.756
 5572SOL    HW118549   5.946  11.877   2.750
 5572SOL    HW218550   6.067  11.830   2.671
 5573SOL     OW18551  14.409  13.864   1.335
 5573SOL    HW118552  14.349  13.856   1.262
 5573SOL    HW218553  14.435  13.956   1.334
 5574SOL     OW18554   0.771  13.704  13.641
 5574SOL    HW118555   0.679  13.728  13.653
 5574SOL    HW218556   0.790  13.726  13.550
 5575SOL     OW18557   8.866   8.435   9.440
 5575SOL    HW118558   8.862   8.520   9.485
 5575SOL    HW218559   8.912   8.454   9.358
 5576SOL     OW18560   3.668   3.619   5.342
 5576SOL    HW118561   3.661   3.569   5.424
 5576SOL    HW218562   3.624   3.702   5.361
 5577SOL     OW18563   2.240   3.127   6.121
 5577SOL    HW118564   2.334   3.124   6.102
 5577SOL    HW218565   2.208   3.199   6.066
 5578SOL     OW18566  13.629  12.795   4.155
 5578SOL    HW118567  13.706  12.768   4.104
 5578SOL    HW218568  13.665  12.847   4.227
 5579SOL     OW18569   3.188   2.225  14.568
 5579SOL    HW118570   3.206   2.159  14.501
 5579SOL    HW218571   3.152   2.176  14.641
 5580SOL     OW18572   4.451   0.526   8.973
 5580SOL    HW118573   4.384   0.588   8.943
 5580SOL    HW218574   4.503   0.576   9.036
 5581SOL     OW18575   7.148   0.237  13.992
 5581SOL    HW118576   7.115   0.219  13.904
 5581SOL    HW218577   7.114   0.165  14.046
 5582SOL     OW18578   0.608   2.186  13.737
 5582SOL    HW118579   0.644   2.107  13.775
 5582SOL    HW218580   0.522   2.195  13.777
 5583SOL     OW18581   6.517   4.782  11.446
 5583SOL    HW118582   6.520   4.824  11.360
 5583SOL    HW218583   6.603   4.741  11.456
 5584SOL     OW18584  11.324   0.257  11.506
 5584SOL    HW118585  11.256   0.309  11.462
 5584SOL    HW218586  11.311   0.168  11.475
 5585SOL     OW18587  13.864   0.596   5.515
 5585SOL    HW118588  13.956   0.594   5.490
 5585SOL    HW218589  13.861   0.555   5.601
 5586SOL     OW18590   4.272   8.543   5.510
 5586SOL    HW118591   4.352   8.569   5.555
 5586SOL    HW218592   4.287   8.565   5.418
 5587SOL     OW18593   5.111   6.420   9.643
 5587SOL    HW118594   5.047   6.349   9.656
 5587SOL    HW218595   5.134   6.447   9.732
 5588SOL     OW18596   4.829   6.249   7.609
 5588SOL    HW118597   4.751   6.289   7.647
 5588SOL    HW218598   4.798   6.203   7.531
 5589SOL     OW18599   7.351   1.760   1.909
 5589SOL    HW118600   7.271   1.738   1.957
 5589SOL    HW218601   7.421   1.712   1.956
 5590SOL     OW18602  13.819  10.924  13.263
 5590SOL    HW118603  13.760  10.998  13.249
 5590SOL    HW218604  13.796  10.861  13.195
 5591SOL     OW18605   4.451  12.089   9.242
 5591SOL    HW118606   4.416  12.016   9.293
 5591SOL    HW218607   4.377  12.149   9.233
 5592SOL     OW18608   0.640   2.484  13.073
 5592SOL    HW118609   0.597   2.491  13.158
 5592SOL    HW218610   0.622   2.568  13.030
 5593SOL     OW18611  13.728   7.970   1.908
 5593SOL    HW118612  13.633   7.968   1.909
 5593SOL    HW218613  13.754   7.878   1.911
 5594SOL     OW18614   6.523   5.702   8.479
 5594SOL    HW118615   6.448   5.687   8.536
 5594SOL    HW218616   6.500   5.660   8.397
 5595SOL     OW18617   3.989   7.937   1.335
 5595SOL    HW118618   4.083   7.954   1.321
 5595SOL    HW218619   3.985   7.845   1.359
 5596SOL     OW18620   2.453   6.736   0.319
 5596SOL    HW118621   2.359   6.728   0.338
 5596SOL    HW218622   2.495   6.682   0.386
 5597SOL     OW18623  10.119   6.996   8.761
 5597SOL    HW118624  10.053   7.063   8.781
 5597SOL    HW218625  10.195   7.021   8.814
 5598SOL     OW18626   3.635   3.990   1.199
 5598SOL    HW118627   3.710   3.957   1.249
 5598SOL    HW218628   3.645   3.951   1.112
 5599SOL     OW18629   6.206  11.245   3.758
 5599SOL    HW118630   6.230  11.306   3.689
 5599SOL    HW218631   6.205  11.159   3.715
 5600SOL     OW18632  13.733   2.159   6.426
 5600SOL    HW118633  13.684   2.090   6.471
 5600SOL    HW218634  13.781   2.114   6.358
 5601SOL     OW18635   0.643   0.825   8.909
 5601SOL    HW118636   0.560   0.864   8.934
 5601SOL    HW218637   0.666   0.768   8.983
 5602SOL     OW18638   2.284   3.018  11.179
 5602SOL    HW118639   2.319   2.954  11.241
 5602SOL    HW218640   2.334   3.004  11.099
 5603SOL     OW18641   6.753   7.646  12.062
 5603SOL    HW118642   6.724   7.560  12.093
 5603SOL    HW218643   6.799   7.684  12.137
 5604SOL     OW18644   8.303   9.376   4.232
 5604SOL    HW118645   8.369   9.446   4.233
 5604SOL    HW218646   8.220   9.421   4.244
 5605SOL     OW18647   9.589  10.410  13.731
 5605SOL    HW118648   9.588  10.450  13.644
 5605SOL    HW218649   9.525  10.462  13.781
 5606SOL     OW18650  13.934   7.269   0.428
 5606SOL    HW118651  14.003   7.225   0.377
 5606SOL    HW218652  13.861   7.277   0.367
 5607SOL     OW18653   8.906   6.296  13.396
 5607SOL    HW118654   8.929   6.365  13.459
 5607SOL    HW218655   8.946   6.325  13.314
 5608SOL     OW18656   1.258   3.644   8.229
 5608SOL    HW118657   1.302   3.590   8.295
 5608SOL    HW218658   1.234   3.724   8.276
 5609SOL     OW18659   6.158  14.706   1.213
 5609SOL    HW118660   6.098  14.780   1.226
 5609SOL    HW218661   6.233  14.743   1.168
 5610SOL     OW18662   1.971  12.474   4.101
 5610SOL    HW118663   1.932  12.522   4.174
 5610SOL    HW218664   1.991  12.541   4.036
 5611SOL     OW18665   6.413  13.815  11.050
 5611SOL    HW118666   6.343  13.823  11.114
 5611SOL    HW218667   6.384  13.745  10.991
 5612SOL     OW18668  10.378  11.222   0.061
 5612SOL    HW118669  10.454  11.200   0.006
 5612SOL    HW218670  10.416  11.270   0.135
 5613SOL     OW18671   3.417   7.984   2.133
 5613SOL    HW118672   3.452   7.895   2.138
 5613SOL    HW218673   3.393   7.995   2.041
 5614SOL     OW18674   8.727   5.347  12.825
 5614SOL    HW118675   8.815   5.329  12.858
 5614SOL    HW218676   8.686   5.261  12.819
 5615SOL     OW18677   8.310   5.670   0.755
 5615SOL    HW118678   8.235   5.621   0.790
 5615SOL    HW218679   8.324   5.740   0.819
 5616SOL     OW18680  12.353  14.652   1.145
 5616SOL    HW118681  12.410  14.582   1.177
 5616SOL    HW218682  12.353  14.642   1.050
 5617SOL     OW18683   7.572  11.937  12.177
 5617SOL    HW118684   7.534  11.910  12.094
 5617SOL    HW218685   7.612  11.858  12.213
 5618SOL     OW18686   4.107   4.212   1.764
 5618SOL    HW118687   4.140   4.223   1.675
 5618SOL    HW218688   4.012   4.222   1.756
 5619SOL     OW18689   5.647   1.244   4.121
 5619SOL    HW118690   5.699   1.317   4.155
 5619SOL    HW218691   5.692   1.219   4.040
 5620SOL     OW18692  12.068   2.513   9.508
 5620SOL    HW118693  12.095   2.467   9.428
 5620SOL    HW218694  12.147   2.557   9.538
 5621SOL     OW18695   9.914   4.923   0.536
 5621SOL    HW118696  10.001   4.908   0.501
 5621SOL    HW218697   9.911   5.017   0.554
 5622SOL     OW18698  14.671  11.925   9.842
 5622SOL    HW118699  14.599  11.959   9.789
 5622SOL    HW218700  14.658  11.830   9.843
 5623SOL     OW18701   6.909   3.667  14.120
 5623SOL    HW118702   6.976   3.618  14.167
 5623SOL    HW218703   6.857   3.710  14.188
 5624SOL     OW18704  11.593   0.139  14.153
 5624SOL    HW118705  11.645   0.205  14.108
 5624SOL    HW218706  11.503   0.153  14.121
 5625SOL     OW18707   7.623   0.229   7.922
 5625SOL    HW118708   7.547   0.171   7.931
 5625SOL    HW218709   7.670   0.195   7.846
 5626SOL     OW18710   3.378   6.718  10.947
 5626SOL    HW118711   3.420   6.760  10.872
 5626SOL    HW218712   3.288   6.750  10.946
 5627SOL     OW18713   9.418  14.068   6.515
 5627SOL    HW118714   9.351  14.113   6.465
 5627SOL    HW218715   9.373  13.994   6.556
 5628SOL     OW18716   6.862   3.428   0.319
 5628SOL    HW118717   6.831   3.487   0.251
 5628SOL    HW218718   6.957   3.439   0.319
 5629SOL     OW18719   5.130   8.791  11.182
 5629SOL    HW118720   5.190   8.825  11.116
 5629SOL    HW218721   5.046   8.830  11.160
 5630SOL     OW18722   2.959   9.378   6.657
 5630SOL    HW118723   3.026   9.350   6.718
 5630SOL    HW218724   2.905   9.300   6.643
 5631SOL     OW18725  14.135   3.225   8.544
 5631SOL    HW118726  14.041   3.236   8.531
 5631SOL    HW218727  14.144   3.142   8.591
 5632SOL     OW18728   7.058   0.191   9.923
 5632SOL    HW118729   7.145   0.223   9.902
 5632SOL    HW218730   7.044   0.118   9.863
 5633SOL     OW18731   1.123  11.866   2.773
 5633SOL    HW118732   1.117  11.961   2.772
 5633SOL    HW218733   1.056  11.839   2.836
 5634SOL     OW18734   5.699   7.933   2.819
 5634SOL    HW118735   5.682   8.000   2.885
 5634SOL    HW218736   5.619   7.930   2.766
 5635SOL     OW18737   2.440  13.173  14.315
 5635SOL    HW118738   2.491  13.098  14.346
 5635SOL    HW218739   2.349  13.149  14.331
 5636SOL     OW18740  11.174  12.332   3.264
 5636SOL    HW118741  11.150  12.425   3.267
 5636SOL    HW218742  11.106  12.291   3.210
 5637SOL     OW18743  12.679   7.136   7.109
 5637SOL    HW118744  12.684   7.056   7.057
 5637SOL    HW218745  12.589   7.167   7.097
 5638SOL     OW18746   3.758  12.652   9.346
 5638SOL    HW118747   3.724  12.741   9.354
 5638SOL    HW218748   3.744  12.613   9.433
 5639SOL     OW18749  14.201   4.224   7.643
 5639SOL    HW118750  14.281   4.267   7.616
 5639SOL    HW218751  14.186   4.156   7.577
 5640SOL     OW18752   9.132   9.445  12.961
 5640SOL    HW118753   9.204   9.482  12.910
 5640SOL    HW218754   9.164   9.443  13.051
 5641SOL     OW18755  10.236  13.172   6.733
 5641SOL    HW118756  10.176  13.137   6.798
 5641SOL    HW218757  10.182  13.231   6.680
 5642SOL     OW18758  13.699   6.018   4.399
 5642SOL    HW118759  13.766   6.086   4.398
 5642SOL    HW218760  13.716   5.968   4.319
 5643SOL     OW18761   5.731   2.178  11.828
 5643SOL    HW118762   5.670   2.146  11.894
 5643SOL    HW218763   5.690   2.258  11.794
 5644SOL     OW18764  12.812  14.666  12.241
 5644SOL    HW118765  12.766  14.741  12.279
 5644SOL    HW218766  12.849  14.620  12.316
 5645SOL     OW18767   7.920  10.929   7.899
 5645SOL    HW118768   7.989  10.912   7.962
 5645SOL    HW218769   7.905  10.845   7.856
 5646SOL     OW18770   9.981   7.885   7.392
 5646SOL    HW118771   9.979   7.793   7.368
 5646SOL    HW218772  10.070   7.913   7.374
 5647SOL     OW18773  13.007  13.858   8.979
 5647SOL    HW118774  12.991  13.936   9.031
 5647SOL    HW218775  13.098  13.836   8.996
 5648SOL     OW18776  12.841   1.369  12.914
 5648SOL    HW118777  12.852   1.458  12.949
 5648SOL    HW218778  12.927   1.346  12.880
 5649SOL     OW18779   0.166  14.427  11.898
 5649SOL    HW118780   0.171  14.503  11.840
 5649SOL    HW218781   0.139  14.355  11.841
 5650SOL     OW18782   3.919  10.117   9.504
 5650SOL    HW118783   3.980  10.137   9.434
 5650SOL    HW218784   3.849  10.182   9.495
 5651SOL     OW18785   5.247  11.289   5.489
 5651SOL    HW118786   5.266  11.283   5.395
 5651SOL    HW218787   5.207  11.204   5.510
 5652SOL     OW18788   6.763   3.480  12.240
 5652SOL    HW118789   6.847   3.503  12.202
 5652SOL    HW218790   6.780   3.470  12.333
 5653SOL     OW18791   6.967  13.633  13.137
 5653SOL    HW118792   6.960  13.719  13.094
 5653SOL    HW218793   6.880  13.595  13.128
 5654SOL     OW18794   0.636   4.571  12.547
 5654SOL    HW118795   0.603   4.607  12.465
 5654SOL    HW218796   0.560   4.569  12.605
 5655SOL     OW18797  11.384   4.341   4.490
 5655SOL    HW118798  11.420   4.280   4.555
 5655SOL    HW218799  11.442   4.332   4.415
 5656SOL     OW18800   2.249   4.401  12.782
 5656SOL    HW118801   2.273   4.441  12.865
 5656SOL    HW218802   2.303   4.321  12.778
 5657SOL     OW18803   0.481  10.610   2.317
 5657SOL    HW118804   0.565  10.591   2.359
 5657SOL    HW218805   0.416  10.569   2.373
 5658SOL     OW18806  12.816   5.683   4.609
 5658SOL    HW118807  12.734   5.707   4.567
 5658SOL    HW218808  12.822   5.740   4.686
 5659SOL     OW18809   2.875   9.300   9.006
 5659SOL    HW118810   2.847   9.209   9.000
 5659SOL    HW218811   2.944   9.308   8.940
 5660SOL     OW18812   8.873   2.478  11.666
 5660SOL    HW118813   8.779   2.464  11.650
 5660SOL    HW218814   8.899   2.543  11.601
 5661SOL     OW18815   1.689   7.832  14.525
 5661SOL    HW118816   1.600   7.810  14.497
 5661SOL    HW218817   1.746   7.782  14.467
 5662SOL     OW18818   2.624   8.525  12.060
 5662SOL    HW118819   2.589   8.516  12.149
 5662SOL    HW218820   2.611   8.440  12.020
 5663SOL     OW18821  10.570  11.838  11.215
 5663SOL    HW118822  10.498  11.888  11.254
 5663SOL    HW218823  10.588  11.883  11.132
 5664SOL     OW18824  10.691  12.024   2.513
 5664SOL    HW118825  10.772  11.979   2.535
 5664SOL    HW218826  10.688  12.023   2.418
 5665SOL     OW18827  10.710  12.882   3.694
 5665SOL    HW118828  10.664  12.821   3.636
 5665SOL    HW218829  10.730  12.829   3.772
 5666SOL     OW18830  13.870   7.565   5.661
 5666SOL    HW118831  13.935   7.572   5.591
 5666SOL    HW218832  13.882   7.644   5.713
 5667SOL     OW18833   7.617  10.956  11.509
 5667SOL    HW118834   7.658  10.885  11.557
 5667SOL    HW218835   7.524  10.949  11.529
 5668SOL     OW18836  10.506  11.624   8.319
 5668SOL    HW118837  10.586  11.677   8.325
 5668SOL    HW218838  10.522  11.565   8.246
 5669SOL     OW18839   2.501   0.090  12.036
 5669SOL    HW118840   2.529   0.061  11.950
 5669SOL    HW218841   2.406   0.079  12.036
 5670SOL     OW18842   3.668  12.054  10.403
 5670SOL    HW118843   3.699  11.977  10.356
 5670SOL    HW218844   3.723  12.126  10.371
 5671SOL     OW18845   0.312   7.526  10.740
 5671SOL    HW118846   0.260   7.570  10.673
 5671SOL    HW218847   0.358   7.457  10.693
 5672SOL     OW18848   0.139   8.533  10.891
 5672SOL    HW118849   0.164   8.581  10.971
 5672SOL    HW218850   0.110   8.448  10.923
 5673SOL     OW18851   4.946   5.214   8.537
 5673SOL    HW118852   4.854   5.192   8.548
 5673SOL    HW218853   4.985   5.134   8.500
 5674SOL     OW18854   0.652  10.894   3.126
 5674SOL    HW118855   0.679  10.985   3.110
 5674SOL    HW218856   0.564  10.901   3.164
 5675SOL     OW18857   2.440  13.731   5.039
 5675SOL    HW118858   2.398  13.711   5.123
 5675SOL    HW218859   2.506  13.662   5.029
 5676SOL     OW18860   6.102   5.759   6.671
 5676SOL    HW118861   6.040   5.829   6.651
 5676SOL    HW218862   6.111   5.711   6.589
 5677SOL     OW18863  12.787   5.002  12.600
 5677SOL    HW118864  12.757   5.046  12.679
 5677SOL    HW218865  12.856   5.057  12.566
 5678SOL     OW18866   2.589  12.949  14.436
 5678SOL    HW118867   2.679  12.949  14.471
 5678SOL    HW218868   2.594  12.894  14.358
 5679SOL     OW18869   7.539  12.681  13.819
 5679SOL    HW118870   7.603  12.619  13.785
 5679SOL    HW218871   7.456  12.652  13.782
 5680SOL     OW18872   9.167  12.604   1.055
 5680SOL    HW118873   9.085  12.555   1.050
 5680SOL    HW218874   9.180  12.618   1.149
 5681SOL     OW18875   5.261   1.904   6.531
 5681SOL    HW118876   5.352   1.933   6.530
 5681SOL    HW218877   5.243   1.875   6.442
 5682SOL     OW18878   2.399  14.879  14.248
 5682SOL    HW118879   2.471   0.058  14.270
 5682SOL    HW218880   2.329   0.058  14.218
 5683SOL     OW18881   0.944  13.464   9.644
 5683SOL    HW118882   0.917  13.442   9.555
 5683SOL    HW218883   0.872  13.518   9.678
 5684SOL     OW18884   3.961   5.359   8.679
 5684SOL    HW118885   4.003   5.437   8.643
 5684SOL    HW218886   3.897   5.333   8.613
 5685SOL     OW18887   6.247   9.550   3.002
 5685SOL    HW118888   6.221   9.508   2.921
 5685SOL    HW218889   6.318   9.495   3.037
 5686SOL     OW18890   5.333   4.495  10.940
 5686SOL    HW118891   5.372   4.498  11.027
 5686SOL    HW218892   5.240   4.476  10.957
 5687SOL     OW18893   7.909   2.097   5.216
 5687SOL    HW118894   7.961   2.169   5.252
 5687SOL    HW218895   7.944   2.019   5.260
 5688SOL     OW18896   1.337   2.549  12.095
 5688SOL    HW118897   1.409   2.603  12.062
 5688SOL    HW218898   1.262   2.575  12.043
 5689SOL     OW18899   9.359   7.803   5.875
 5689SOL    HW118900   9.357   7.899   5.877
 5689SOL    HW218901   9.431   7.782   5.817
 5690SOL     OW18902  10.023  13.752   6.151
 5690SOL    HW118903  10.027  13.848   6.141
 5690SOL    HW218904  10.109  13.722   6.122
 5691SOL     OW18905   6.203  13.763   1.927
 5691SOL    HW118906   6.276  13.792   1.873
 5691SOL    HW218907   6.238  13.762   2.016
 5692SOL     OW18908  12.861  12.995   0.643
 5692SOL    HW118909  12.936  12.997   0.703
 5692SOL    HW218910  12.900  12.979   0.557
 5693SOL     OW18911  13.228   2.149   8.094
 5693SOL    HW118912  13.204   2.135   8.186
 5693SOL    HW218913  13.245   2.061   8.060
 5694SOL     OW18914   4.818   7.967   1.754
 5694SOL    HW118915   4.820   7.950   1.848
 5694SOL    HW218916   4.909   7.962   1.727
 5695SOL     OW18917   4.715   1.066   8.169
 5695SOL    HW118918   4.792   1.123   8.174
 5695SOL    HW218919   4.734   0.995   8.230
 5696SOL     OW18920  11.292   4.538  13.145
 5696SOL    HW118921  11.373   4.489  13.157
 5696SOL    HW218922  11.226   4.487  13.191
 5697SOL     OW18923  11.211   9.809   8.242
 5697SOL    HW118924  11.159   9.772   8.313
 5697SOL    HW218925  11.155   9.877   8.204
 5698SOL     OW18926   8.170   4.366   1.406
 5698SOL    HW118927   8.218   4.285   1.422
 5698SOL    HW218928   8.148   4.399   1.493
 5699SOL     OW18929   4.572   3.419   1.582
 5699SOL    HW118930   4.642   3.391   1.523
 5699SOL    HW218931   4.606   3.402   1.670
 5700SOL     OW18932   4.304  12.945   2.059
 5700SOL    HW118933   4.324  13.032   2.024
 5700SOL    HW218934   4.374  12.889   2.028
 5701SOL     OW18935   5.249   4.977  13.324
 5701SOL    HW118936   5.310   5.023  13.267
 5701SOL    HW218937   5.302   4.909  13.366
 5702SOL     OW18938   7.903   7.157   8.603
 5702SOL    HW118939   7.961   7.209   8.659
 5702SOL    HW218940   7.857   7.099   8.664
 5703SOL     OW18941  10.239   8.130  11.519
 5703SOL    HW118942  10.276   8.160  11.436
 5703SOL    HW218943  10.160   8.183  11.530
 5704SOL     OW18944  12.329   0.887   6.533
 5704SOL    HW118945  12.244   0.849   6.556
 5704SOL    HW218946  12.331   0.887   6.437
 5705SOL     OW18947   6.461  12.396   9.691
 5705SOL    HW118948   6.403  12.332   9.732
 5705SOL    HW218949   6.403  12.458   9.647
 5706SOL     OW18950  13.885   3.920  10.706
 5706SOL    HW118951  13.973   3.887  10.693
 5706SOL    HW218952  13.890   3.968  10.789
 5707SOL     OW18953   7.636   1.806   1.566
 5707SOL    HW118954   7.715   1.769   1.526
 5707SOL    HW218955   7.586   1.842   1.492
 5708SOL     OW18956   4.076   6.260   0.744
 5708SOL    HW118957   4.059   6.279   0.836
 5708SOL    HW218958   4.054   6.342   0.698
 5709SOL     OW18959   9.428   9.052   1.577
 5709SOL    HW118960   9.502   9.005   1.539
 5709SOL    HW218961   9.427   9.025   1.669
 5710SOL     OW18962   6.174   0.585   5.032
 5710SOL    HW118963   6.131   0.572   4.948
 5710SOL    HW218964   6.214   0.501   5.053
 5711SOL     OW18965  11.014   3.357  12.447
 5711SOL    HW118966  11.072   3.433  12.439
 5711SOL    HW218967  10.930   3.389  12.414
 5712SOL     OW18968  12.472  11.397   7.247
 5712SOL    HW118969  12.385  11.384   7.285
 5712SOL    HW218970  12.497  11.311   7.214
 5713SOL     OW18971   6.765  11.811   5.884
 5713SOL    HW118972   6.824  11.818   5.960
 5713SOL    HW218973   6.732  11.722   5.888
 5714SOL     OW18974  13.196   2.715   0.665
 5714SOL    HW118975  13.135   2.677   0.728
 5714SOL    HW218976  13.261   2.760   0.719
 5715SOL     OW18977  14.029   9.267   2.018
 5715SOL    HW118978  13.944   9.228   2.039
 5715SOL    HW218979  14.023   9.291   1.925
 5716SOL     OW18980  11.363  11.342   0.611
 5716SOL    HW118981  11.325  11.319   0.696
 5716SOL    HW218982  11.295  11.394   0.569
 5717SOL     OW18983   8.264   4.573   2.900
 5717SOL    HW118984   8.315   4.640   2.945
 5717SOL    HW218985   8.329   4.512   2.866
 5718SOL     OW18986   5.288   3.712   0.493
 5718SOL    HW118987   5.253   3.690   0.407
 5718SOL    HW218988   5.239   3.656   0.554
 5719SOL     OW18989  13.329  13.941   0.896
 5719SOL    HW118990  13.268  13.878   0.859
 5719SOL    HW218991  13.276  14.020   0.911
 5720SOL     OW18992   8.703   3.177   1.484
 5720SOL    HW118993   8.640   3.170   1.411
 5720SOL    HW218994   8.681   3.103   1.541
 5721SOL     OW18995   1.129   3.935   2.937
 5721SOL    HW118996   1.154   3.938   3.030
 5721SOL    HW218997   1.033   3.940   2.939
 5722SOL     OW18998   0.960  10.729   7.161
 5722SOL    HW118999   1.021  10.778   7.105
 5722SOL    HW219000   1.016  10.693   7.230
 5723SOL     OW19001   8.154   5.600   2.723
 5723SOL    HW119002   8.213   5.577   2.651
 5723SOL    HW219003   8.132   5.692   2.709
 5724SOL     OW19004   3.527   7.331   8.092
 5724SOL    HW119005   3.501   7.314   8.002
 5724SOL    HW219006   3.523   7.246   8.135
 5725SOL     OW19007   2.969   4.715   5.661
 5725SOL    HW119008   3.026   4.679   5.593
 5725SOL    HW219009   2.937   4.797   5.625
 5726SOL     OW19010   5.141  12.811   6.490
 5726SOL    HW119011   5.183  12.759   6.558
 5726SOL    HW219012   5.079  12.752   6.448
 5727SOL     OW19013  11.141   7.896  10.875
 5727SOL    HW119014  11.170   7.975  10.920
 5727SOL    HW219015  11.071   7.861  10.931
 5728SOL     OW19016   4.259   7.568   8.183
 5728SOL    HW119017   4.321   7.637   8.158
 5728SOL    HW219018   4.216   7.603   8.261
 5729SOL     OW19019   0.639   1.255   9.449
 5729SOL    HW119020   0.577   1.219   9.386
 5729SOL    HW219021   0.672   1.179   9.497
 5730SOL     OW19022   8.007   8.948   5.249
 5730SOL    HW119023   7.930   8.993   5.285
 5730SOL    HW219024   8.050   9.014   5.194
 5731SOL     OW19025  14.116   4.269   8.375
 5731SOL    HW119026  14.038   4.294   8.424
 5731SOL    HW219027  14.092   4.285   8.283
 5732SOL     OW19028   2.772   4.606  13.632
 5732SOL    HW119029   2.854   4.627  13.588
 5732SOL    HW219030   2.797   4.588  13.723
 5733SOL     OW19031   4.218  12.001   6.433
 5733SOL    HW119032   4.147  11.992   6.497
 5733SOL    HW219033   4.247  11.911   6.416
 5734SOL     OW19034   6.184   7.670   6.805
 5734SOL    HW119035   6.116   7.735   6.822
 5734SOL    HW219036   6.248   7.715   6.749
 5735SOL     OW19037  12.976   9.826   3.681
 5735SOL    HW119038  12.930   9.870   3.752
 5735SOL    HW219039  12.921   9.842   3.604
 5736SOL     OW19040   1.224   2.194   1.679
 5736SOL    HW119041   1.139   2.151   1.675
 5736SOL    HW219042   1.263   2.178   1.593
 5737SOL     OW19043   9.430   0.760   3.777
 5737SOL    HW119044   9.366   0.689   3.778
 5737SOL    HW219045   9.513   0.718   3.799
 5738SOL     OW19046  12.164   5.583   2.701
 5738SOL    HW119047  12.075   5.554   2.681
 5738SOL    HW219048  12.219   5.506   2.686
 5739SOL     OW19049   0.208   5.308   7.995
 5739SOL    HW119050   0.138   5.266   7.946
 5739SOL    HW219051   0.174   5.395   8.016
 5740SOL     OW19052  12.530   1.007   5.679
 5740SOL    HW119053  12.548   1.043   5.593
 5740SOL    HW219054  12.617   0.988   5.716
 5741SOL     OW19055   4.592   2.338   0.194
 5741SOL    HW119056   4.544   2.420   0.203
 5741SOL    HW219057   4.592   2.300   0.282
 5742SOL     OW19058  14.488  11.702   7.999
 5742SOL    HW119059  14.478  11.612   8.030
 5742SOL    HW219060  14.400  11.728   7.973
 5743SOL     OW19061   6.024   2.573   6.368
 5743SOL    HW119062   5.983   2.599   6.285
 5743SOL    HW219063   5.950   2.553   6.425
 5744SOL     OW19064   1.015   5.045   8.335
 5744SOL    HW119065   1.062   5.110   8.283
 5744SOL    HW219066   1.084   4.996   8.381
 5745SOL     OW19067  10.074   5.311   8.374
 5745SOL    HW119068  10.044   5.293   8.285
 5745SOL    HW219069  10.077   5.225   8.417
 5746SOL     OW19070   1.227   0.163   1.007
 5746SOL    HW119071   1.141   0.190   1.039
 5746SOL    HW219072   1.211   0.079   0.963
 5747SOL     OW19073  13.182   1.741  10.645
 5747SOL    HW119074  13.172   1.831  10.613
 5747SOL    HW219075  13.119   1.733  10.716
 5748SOL     OW19076  12.412  13.323   3.159
 5748SOL    HW119077  12.416  13.234   3.193
 5748SOL    HW219078  12.470  13.373   3.217
 5749SOL     OW19079   8.405   1.947   7.227
 5749SOL    HW119080   8.338   1.966   7.161
 5749SOL    HW219081   8.420   1.852   7.220
 5750SOL     OW19082   5.878  11.396   5.530
 5750SOL    HW119083   5.910  11.309   5.507
 5750SOL    HW219084   5.833  11.383   5.614
 5751SOL     OW19085  14.353  12.662   2.268
 5751SOL    HW119086  14.421  12.729   2.270
 5751SOL    HW219087  14.281  12.697   2.320
 5752SOL     OW19088   5.915   7.183  12.036
 5752SOL    HW119089   5.957   7.142  12.111
 5752SOL    HW219090   5.983   7.184  11.968
 5753SOL     OW19091   6.227  11.651  14.378
 5753SOL    HW119092   6.222  11.560  14.351
 5753SOL    HW219093   6.308  11.683  14.338
 5754SOL     OW19094  10.410   4.102  10.942
 5754SOL    HW119095  10.419   4.013  10.977
 5754SOL    HW219096  10.340   4.142  10.994
 5755SOL     OW19097   9.037   3.091  14.089
 5755SOL    HW119098   8.944   3.077  14.074
 5755SOL    HW219099   9.075   3.099  14.001
 5756SOL     OW19100   6.565   5.690   5.846
 5756SOL    HW119101   6.643   5.647   5.882
 5756SOL    HW219102   6.535   5.631   5.777
 5757SOL     OW19103   1.824   5.725   6.707
 5757SOL    HW119104   1.760   5.682   6.650
 5757SOL    HW219105   1.772   5.766   6.775
 5758SOL     OW19106  10.328   2.185   9.805
 5758SOL    HW119107  10.236   2.197   9.827
 5758SOL    HW219108  10.335   2.093   9.781
 5759SOL     OW19109  13.605   1.300   0.209
 5759SOL    HW119110  13.551   1.348   0.273
 5759SOL    HW219111  13.604   1.210   0.241
 5760SOL     OW19112   2.827   1.664   4.562
 5760SOL    HW119113   2.772   1.664   4.484
 5760SOL    HW219114   2.903   1.717   4.538
 5761SOL     OW19115   2.385   4.125  12.775
 5761SOL    HW119116   2.391   4.093  12.685
 5761SOL    HW219117   2.475   4.137  12.803
 5762SOL     OW19118   1.563   8.008  11.152
 5762SOL    HW119119   1.639   7.966  11.193
 5762SOL    HW219120   1.600   8.083  11.106
 5763SOL     OW19121  11.433   0.152   2.854
 5763SOL    HW119122  11.510   0.149   2.798
 5763SOL    HW219123  11.402   0.242   2.848
 5764SOL     OW19124   3.661   3.764   7.383
 5764SOL    HW119125   3.616   3.680   7.391
 5764SOL    HW219126   3.626   3.801   7.301
 5765SOL     OW19127   7.784  14.441   9.870
 5765SOL    HW119128   7.841  14.432   9.794
 5765SOL    HW219129   7.696  14.427   9.836
 5766SOL     OW19130   1.742   4.791   5.796
 5766SOL    HW119131   1.796   4.802   5.718
 5766SOL    HW219132   1.802   4.759   5.863
 5767SOL     OW19133   5.512   9.861  13.278
 5767SOL    HW119134   5.558   9.914  13.212
 5767SOL    HW219135   5.450   9.808  13.227
 5768SOL     OW19136   9.017   8.905   9.626
 5768SOL    HW119137   9.100   8.907   9.674
 5768SOL    HW219138   8.974   8.824   9.654
 5769SOL     OW19139  11.287   9.136  10.738
 5769SOL    HW119140  11.202   9.109  10.703
 5769SOL    HW219141  11.270   9.155  10.830
 5770SOL     OW19142  10.796   8.510   2.704
 5770SOL    HW119143  10.787   8.600   2.674
 5770SOL    HW219144  10.890   8.498   2.719
 5771SOL     OW19145  12.421   8.938   8.427
 5771SOL    HW119146  12.339   8.923   8.473
 5771SOL    HW219147  12.408   8.901   8.340
 5772SOL     OW19148   1.671   0.669   5.883
 5772SOL    HW119149   1.578   0.645   5.880
 5772SOL    HW219150   1.697   0.674   5.791
 5773SOL     OW19151  11.538  10.800  12.219
 5773SOL    HW119152  11.575  10.851  12.147
 5773SOL    HW219153  11.470  10.856  12.256
 5774SOL     OW19154   6.042   2.393   1.321
 5774SOL    HW119155   5.963   2.340   1.312
 5774SOL    HW219156   6.080   2.366   1.405
 5775SOL     OW19157   1.362   9.520   7.931
 5775SOL    HW119158   1.428   9.500   7.865
 5775SOL    HW219159   1.278   9.506   7.885
 5776SOL     OW19160   4.482   2.044   9.636
 5776SOL    HW119161   4.401   2.060   9.685
 5776SOL    HW219162   4.528   1.978   9.687
 5777SOL     OW19163   1.554   5.702   0.200
 5777SOL    HW119164   1.644   5.705   0.233
 5777SOL    HW219165   1.556   5.634   0.133
 5778SOL     OW19166  14.052   4.024  11.447
 5778SOL    HW119167  14.061   3.936  11.483
 5778SOL    HW219168  14.091   4.081  11.514
 5779SOL     OW19169   9.439  10.459   4.014
 5779SOL    HW119170   9.468  10.445   3.923
 5779SOL    HW219171   9.362  10.515   4.006
 5780SOL     OW19172   1.810  11.538  12.921
 5780SOL    HW119173   1.756  11.488  12.983
 5780SOL    HW219174   1.774  11.517  12.835
 5781SOL     OW19175   7.054  10.567  11.044
 5781SOL    HW119176   7.098  10.636  10.994
 5781SOL    HW219177   6.994  10.527  10.982
 5782SOL     OW19178   8.488   2.030  14.870
 5782SOL    HW119179   8.415   2.054   0.048
 5782SOL    HW219180   8.459   2.053  14.782
 5783SOL     OW19181   5.903  12.549   5.953
 5783SOL    HW119182   5.827  12.490   5.955
 5783SOL    HW219183   5.932  12.553   6.044
 5784SOL     OW19184   8.528   5.796  12.606
 5784SOL    HW119185   8.479   5.852  12.667
 5784SOL    HW219186   8.585   5.744  12.663
 5785SOL     OW19187   9.682  10.517  13.506
 5785SOL    HW119188   9.665  10.608  13.482
 5785SOL    HW219189   9.728  10.481  13.430
 5786SOL     OW19190   0.025   9.898   3.095
 5786SOL    HW119191   0.057   9.914   3.006
 5786SOL    HW219192   0.088   9.837   3.133
 5787SOL     OW19193   3.469  12.352   5.517
 5787SOL    HW119194   3.538  12.304   5.472
 5787SOL    HW219195   3.388  12.308   5.491
 5788SOL     OW19196  14.298  10.447   6.261
 5788SOL    HW119197  14.207  10.440   6.234
 5788SOL    HW219198  14.301  10.405   6.347
 5789SOL     OW19199   3.815   8.956   6.746
 5789SOL    HW119200   3.790   8.965   6.654
 5789SOL    HW219201   3.857   8.870   6.751
 5790SOL     OW19202  10.024   0.352   8.354
 5790SOL    HW119203  10.018   0.267   8.310
 5790SOL    HW219204  10.086   0.337   8.426
 5791SOL     OW19205   4.969   9.859   3.433
 5791SOL    HW119206   4.934   9.924   3.493
 5791SOL    HW219207   4.893   9.816   3.396
 5792SOL     OW19208   0.739   4.538   0.385
 5792SOL    HW119209   0.763   4.534   0.478
 5792SOL    HW219210   0.814   4.580   0.342
 5793SOL     OW19211   9.800   0.874   3.921
 5793SOL    HW119212   9.778   0.805   3.859
 5793SOL    HW219213   9.883   0.846   3.960
 5794SOL     OW19214   3.500  11.894   3.577
 5794SOL    HW119215   3.500  11.970   3.519
 5794SOL    HW219216   3.585  11.852   3.562
 5795SOL     OW19217  10.239  13.959   0.641
 5795SOL    HW119218  10.300  13.974   0.714
 5795SOL    HW219219  10.292  13.973   0.563
 5796SOL     OW19220  14.696   7.071   8.445
 5796SOL    HW119221  14.708   7.147   8.388
 5796SOL    HW219222  14.777   7.067   8.497
 5797SOL     OW19223   5.752   7.316  11.599
 5797SOL    HW119224   5.843   7.321  11.568
 5797SOL    HW219225   5.700   7.319  11.519
 5798SOL     OW19226   3.662  10.295   8.343
 5798SOL    HW119227   3.594  10.252   8.396
 5798SOL    HW219228   3.741  10.242   8.358
 5799SOL     OW19229   5.066   3.927   2.328
 5799SOL    HW119230   5.101   3.876   2.401
 5799SOL    HW219231   5.136   3.926   2.263
 5800SOL     OW19232   7.468   7.745   7.562
 5800SOL    HW119233   7.448   7.822   7.508
 5800SOL    HW219234   7.382   7.713   7.590
 5801SOL     OW19235   0.401   5.979   6.824
 5801SOL    HW119236   0.440   6.013   6.743
 5801SOL    HW219237   0.458   6.012   6.893
 5802SOL     OW19238   4.462   7.672  13.375
 5802SOL    HW119239   4.422   7.733  13.313
 5802SOL    HW219240   4.548   7.710  13.394
 5803SOL     OW19241   0.356   4.470   4.301
 5803SOL    HW119242   0.358   4.564   4.288
 5803SOL    HW219243   0.400   4.456   4.385
 5804SOL     OW19244   9.722   7.434   2.239
 5804SOL    HW119245   9.671   7.405   2.163
 5804SOL    HW219246   9.673   7.509   2.273
 5805SOL     OW19247  13.553   6.852   1.085
 5805SOL    HW119248  13.565   6.908   1.163
 5805SOL    HW219249  13.529   6.767   1.121
 5806SOL     OW19250  14.069   4.470   7.078
 5806SOL    HW119251  14.084   4.561   7.055
 5806SOL    HW219252  14.139   4.448   7.140
 5807SOL     OW19253  14.574   1.484  14.788
 5807SOL    HW119254  14.635   1.515  14.855
 5807SOL    HW219255  14.537   1.403  14.824
 5808SOL     OW19256   5.173   5.949  13.753
 5808SOL    HW119257   5.148   5.991  13.835
 5808SOL    HW219258   5.131   5.863  13.757
 5809SOL     OW19259   5.060   7.031   7.407
 5809SOL    HW119260   4.972   6.996   7.396
 5809SOL    HW219261   5.102   6.972   7.469
 5810SOL     OW19262   4.908   4.454   4.691
 5810SOL    HW119263   4.843   4.442   4.760
 5810SOL    HW219264   4.962   4.375   4.695
 5811SOL     OW19265   9.522   7.796  10.468
 5811SOL    HW119266   9.478   7.881  10.457
 5811SOL    HW219267   9.459   7.743  10.516
 5812SOL     OW19268   4.432   1.548   3.946
 5812SOL    HW119269   4.402   1.471   3.995
 5812SOL    HW219270   4.353   1.601   3.935
 5813SOL     OW19271   5.952   5.414   9.799
 5813SOL    HW119272   5.883   5.426   9.864
 5813SOL    HW219273   5.938   5.325   9.765
 5814SOL     OW19274   3.270  12.630  11.533
 5814SOL    HW119275   3.282  12.536  11.542
 5814SOL    HW219276   3.304  12.667  11.614
 5815SOL     OW19277   4.024   9.167  12.934
 5815SOL    HW119278   4.057   9.247  12.975
 5815SOL    HW219279   4.047   9.097  12.995
 5816SOL     OW19280   1.666   8.456   7.859
 5816SOL    HW119281   1.614   8.463   7.779
 5816SOL    HW219282   1.719   8.536   7.861
 5817SOL     OW19283  13.978   1.024   1.689
 5817SOL    HW119284  13.889   1.056   1.708
 5817SOL    HW219285  14.034   1.101   1.701
 5818SOL     OW19286   3.149   4.739   4.135
 5818SOL    HW119287   3.215   4.705   4.074
 5818SOL    HW219288   3.125   4.664   4.190
 5819SOL     OW19289  10.116   5.617   9.379
 5819SOL    HW119290  10.129   5.612   9.473
 5819SOL    HW219291  10.196   5.655   9.345
 5820SOL     OW19292   7.548   1.084   3.756
 5820SOL    HW119293   7.549   0.997   3.716
 5820SOL    HW219294   7.554   1.145   3.683
 5821SOL     OW19295   9.556   4.537   5.775
 5821SOL    HW119296   9.499   4.600   5.731
 5821SOL    HW219297   9.502   4.459   5.787
 5822SOL     OW19298   5.915   0.286   7.542
 5822SOL    HW119299   6.010   0.280   7.531
 5822SOL    HW219300   5.903   0.329   7.626
 5823SOL     OW19301   6.480   5.076   2.005
 5823SOL    HW119302   6.493   5.046   2.095
 5823SOL    HW219303   6.448   5.165   2.014
 5824SOL     OW19304   3.338   6.887   8.516
 5824SOL    HW119305   3.383   6.951   8.462
 5824SOL    HW219306   3.405   6.856   8.577
 5825SOL     OW19307   0.369   5.538   8.675
 5825SOL    HW119308   0.418   5.505   8.599
 5825SOL    HW219309   0.431   5.532   8.748
 5826SOL     OW19310   3.158   1.882  12.028
 5826SOL    HW119311   3.153   1.919  12.116
 5826SOL    HW219312   3.132   1.955  11.971
 5827SOL     OW19313   7.220  12.007   7.628
 5827SOL    HW119314   7.168  12.087   7.622
 5827SOL    HW219315   7.155  11.936   7.631
 5828SOL     OW19316   9.947  12.606   5.192
 5828SOL    HW119317   9.935  12.594   5.097
 5828SOL    HW219318  10.033  12.567   5.210
 5829SOL     OW19319   7.752   0.239   8.744
 5829SOL    HW119320   7.844   0.264   8.736
 5829SOL    HW219321   7.753   0.147   8.768
 5830SOL     OW19322  10.230  13.050   9.326
 5830SOL    HW119323  10.279  13.055   9.244
 5830SOL    HW219324  10.233  13.139   9.360
 5831SOL     OW19325   4.456   9.388   4.842
 5831SOL    HW119326   4.452   9.463   4.902
 5831SOL    HW219327   4.545   9.389   4.809
 5832SOL     OW19328   8.748   5.149   9.475
 5832SOL    HW119329   8.668   5.115   9.434
 5832SOL    HW219330   8.796   5.071   9.502
 5833SOL     OW19331   3.345   4.374   7.403
 5833SOL    HW119332   3.440   4.361   7.394
 5833SOL    HW219333   3.324   4.336   7.488
 5834SOL     OW19334  14.130   9.565   7.010
 5834SOL    HW119335  14.111   9.480   7.050
 5834SOL    HW219336  14.173   9.615   7.079
 5835SOL     OW19337   8.576   0.208   6.540
 5835SOL    HW119338   8.487   0.232   6.518
 5835SOL    HW219339   8.606   0.153   6.468
 5836SOL     OW19340   2.777  10.337   9.400
 5836SOL    HW119341   2.843  10.352   9.467
 5836SOL    HW219342   2.737  10.253   9.424
 5837SOL     OW19343   5.040   1.555  13.308
 5837SOL    HW119344   5.061   1.479  13.254
 5837SOL    HW219345   5.064   1.630  13.254
 5838SOL     OW19346   3.911   5.547   1.797
 5838SOL    HW119347   3.990   5.542   1.850
 5838SOL    HW219348   3.935   5.605   1.725
 5839SOL     OW19349  10.434   9.744   3.956
 5839SOL    HW119350  10.370   9.814   3.941
 5839SOL    HW219351  10.495   9.781   4.020
 5840SOL     OW19352   5.122   8.674  10.793
 5840SOL    HW119353   5.143   8.591  10.750
 5840SOL    HW219354   5.028   8.667  10.814
 5841SOL     OW19355  12.171   0.816  14.333
 5841SOL    HW119356  12.118   0.737  14.326
 5841SOL    HW219357  12.109   0.888  14.321
 5842SOL     OW19358   8.143   0.252  10.267
 5842SOL    HW119359   8.120   0.225  10.356
 5842SOL    HW219360   8.238   0.268  10.271
 5843SOL     OW19361   6.416   9.455   0.575
 5843SOL    HW119362   6.354   9.459   0.501
 5843SOL    HW219363   6.403   9.538   0.620
 5844SOL     OW19364  13.770   1.369   8.605
 5844SOL    HW119365  13.843   1.321   8.566
 5844SOL    HW219366  13.693   1.336   8.560
 5845SOL     OW19367  12.747  11.120   8.665
 5845SOL    HW119368  12.658  11.155   8.656
 5845SOL    HW219369  12.804  11.190   8.632
 5846SOL     OW19370   2.621   3.624   7.725
 5846SOL    HW119371   2.705   3.583   7.743
 5846SOL    HW219372   2.564   3.552   7.698
 5847SOL     OW19373   5.711  14.161  10.639
 5847SOL    HW119374   5.783  14.164  10.702
 5847SOL    HW219375   5.751  14.130  10.558
 5848SOL     OW19376  13.792   0.257   9.267
 5848SOL    HW119377  13.811   0.336   9.318
 5848SOL    HW219378  13.875   0.210   9.265
 5849SOL     OW19379  11.623   2.774   3.604
 5849SOL    HW119380  11.679   2.799   3.531
 5849SOL    HW219381  11.679   2.781   3.682
 5850SOL     OW19382   4.365   6.335  13.917
 5850SOL    HW119383   4.311   6.331  13.838
 5850SOL    HW219384   4.308   6.372  13.984
 5851SOL     OW19385   7.559  13.042  11.389
 5851SOL    HW119386   7.598  12.977  11.447
 5851SOL    HW219387   7.473  13.006  11.366
 5852SOL     OW19388   0.867   5.699  10.995
 5852SOL    HW119389   0.868   5.629  11.060
 5852SOL    HW219390   0.956   5.733  10.995
 5853SOL     OW19391   1.144   4.227  10.223
 5853SOL    HW119392   1.198   4.299  10.189
 5853SOL    HW219393   1.056   4.246  10.191
 5854SOL     OW19394   2.841   7.628   4.619
 5854SOL    HW119395   2.925   7.585   4.602
 5854SOL    HW219396   2.780   7.556   4.635
 5855SOL     OW19397   4.697  12.972  14.046
 5855SOL    HW119398   4.662  13.050  14.088
 5855SOL    HW219399   4.722  12.915  14.118
 5856SOL     OW19400  12.472   1.273   6.975
 5856SOL    HW119401  12.465   1.368   6.981
 5856SOL    HW219402  12.505   1.245   7.060
 5857SOL     OW19403   0.326   5.995   0.197
 5857SOL    HW119404   0.410   5.954   0.216
 5857SOL    HW219405   0.279   5.931   0.144
 5858SOL     OW19406   7.079   9.876   1.219
 5858SOL    HW119407   7.139   9.867   1.144
 5858SOL    HW219408   7.007   9.817   1.199
 5859SOL     OW19409   1.285   7.720   8.669
 5859SOL    HW119410   1.337   7.745   8.745
 5859SOL    HW219411   1.349   7.714   8.598
 5860SOL     OW19412  11.544   6.064   9.826
 5860SOL    HW119413  11.521   6.006   9.754
 5860SOL    HW219414  11.567   6.147   9.784
 5861SOL     OW19415  11.462   0.914   1.830
 5861SOL    HW119416  11.493   0.920   1.921
 5861SOL    HW219417  11.535   0.949   1.778
 5862SOL     OW19418   7.700  11.665  13.509
 5862SOL    HW119419   7.739  11.594  13.457
 5862SOL    HW219420   7.736  11.745  13.472
 5863SOL     OW19421  11.315  12.802   7.677
 5863SOL    HW119422  11.266  12.773   7.754
 5863SOL    HW219423  11.352  12.886   7.702
 5864SOL     OW19424   4.156   6.826   7.184
 5864SOL    HW119425   4.070   6.868   7.178
 5864SOL    HW219426   4.153   6.754   7.122
 5865SOL     OW19427  13.063   8.304   2.757
 5865SOL    HW119428  13.031   8.226   2.804
 5865SOL    HW219429  12.990   8.365   2.760
 5866SOL     OW19430  12.096  14.788  11.371
 5866SOL    HW119431  12.019  14.734  11.355
 5866SOL    HW219432  12.151  14.774  11.294
 5867SOL     OW19433   0.101  12.555   5.177
 5867SOL    HW119434   0.014  12.530   5.208
 5867SOL    HW219435   0.088  12.638   5.131
 5868SOL     OW19436   1.328   1.832   5.454
 5868SOL    HW119437   1.270   1.765   5.490
 5868SOL    HW219438   1.380   1.863   5.528
 5869SOL     OW19439   1.618   3.637   8.191
 5869SOL    HW119440   1.526   3.614   8.181
 5869SOL    HW219441   1.649   3.651   8.101
 5870SOL     OW19442   3.199   4.901   2.028
 5870SOL    HW119443   3.221   4.830   2.089
 5870SOL    HW219444   3.259   4.972   2.052
 5871SOL     OW19445   3.433  14.316   7.652
 5871SOL    HW119446   3.341  14.317   7.678
 5871SOL    HW219447   3.436  14.256   7.578
 5872SOL     OW19448  10.862  13.081  12.797
 5872SOL    HW119449  10.925  13.081  12.869
 5872SOL    HW219450  10.865  12.991  12.763
 5873SOL     OW19451   1.865   9.917   0.596
 5873SOL    HW119452   1.824   9.832   0.606
 5873SOL    HW219453   1.931   9.920   0.665
 5874SOL     OW19454  11.002   1.490   1.956
 5874SOL    HW119455  11.031   1.402   1.931
 5874SOL    HW219456  10.912   1.495   1.925
 5875SOL     OW19457  11.816   6.935  10.516
 5875SOL    HW119458  11.847   7.001  10.578
 5875SOL    HW219459  11.768   6.985  10.450
 5876SOL     OW19460   3.949   1.864   2.213
 5876SOL    HW119461   3.968   1.940   2.269
 5876SOL    HW219462   3.857   1.846   2.228
 5877SOL     OW19463  13.407   9.532   2.324
 5877SOL    HW119464  13.329   9.491   2.363
 5877SOL    HW219465  13.398   9.515   2.230
 5878SOL     OW19466  11.466  14.308   3.546
 5878SOL    HW119467  11.382  14.275   3.579
 5878SOL    HW219468  11.503  14.235   3.498
 5879SOL     OW19469  13.837   0.143   9.747
 5879SOL    HW119470  13.755   0.145   9.796
 5879SOL    HW219471  13.854   0.235   9.726
 5880SOL     OW19472   9.615   0.820  14.547
 5880SOL    HW119473   9.635   0.758  14.477
 5880SOL    HW219474   9.621   0.768  14.627
 5881SOL     OW19475  14.800   1.851   9.208
 5881SOL    HW119476   0.016   1.857   9.196
 5881SOL    HW219477  14.781   1.758   9.195
 5882SOL     OW19478   3.268  13.823   8.324
 5882SOL    HW119479   3.295  13.907   8.362
 5882SOL    HW219480   3.334  13.804   8.258
 5883SOL     OW19481   8.473   0.358   7.947
 5883SOL    HW119482   8.450   0.441   7.988
 5883SOL    HW219483   8.567   0.348   7.964
 5884SOL     OW19484  14.272   8.539   9.865
 5884SOL    HW119485  14.310   8.451   9.863
 5884SOL    HW219486  14.284   8.572   9.776
 5885SOL     OW19487  13.882  14.474  13.266
 5885SOL    HW119488  13.850  14.493  13.178
 5885SOL    HW219489  13.920  14.386  13.260
 5886SOL     OW19490  14.477  14.389   3.983
 5886SOL    HW119491  14.406  14.411   3.922
 5886SOL    HW219492  14.492  14.296   3.971
 5887SOL     OW19493   7.480   1.325  12.331
 5887SOL    HW119494   7.552   1.382  12.359
 5887SOL    HW219495   7.515   1.237  12.336
 5888SOL     OW19496   1.031   3.747   0.245
 5888SOL    HW119497   1.087   3.800   0.188
 5888SOL    HW219498   1.070   3.660   0.243
 5889SOL     OW19499   5.814   6.739  12.284
 5889SOL    HW119500   5.727   6.705  12.304
 5889SOL    HW219501   5.825   6.814  12.342
 5890SOL     OW19502   2.849  12.394   8.959
 5890SOL    HW119503   2.864  12.485   8.982
 5890SOL    HW219504   2.932  12.365   8.921
 5891SOL     OW19505  11.082   8.282  14.110
 5891SOL    HW119506  11.087   8.189  14.088
 5891SOL    HW219507  11.164   8.319  14.074
 5892SOL     OW19508   3.826   4.411   5.092
 5892SOL    HW119509   3.921   4.420   5.098
 5892SOL    HW219510   3.811   4.351   5.019
 5893SOL     OW19511   0.431   3.075  14.608
 5893SOL    HW119512   0.442   2.981  14.592
 5893SOL    HW219513   0.520   3.110  14.605
 5894SOL     OW19514  12.922   4.951   8.508
 5894SOL    HW119515  12.942   4.898   8.586
 5894SOL    HW219516  12.862   4.896   8.457
 5895SOL     OW19517   5.298   4.569  12.839
 5895SOL    HW119518   5.226   4.511  12.863
 5895SOL    HW219519   5.315   4.621  12.917
 5896SOL     OW19520   6.706   3.283   5.969
 5896SOL    HW119521   6.760   3.239   5.903
 5896SOL    HW219522   6.647   3.214   6.001
 5897SOL     OW19523   8.208   6.382   6.177
 5897SOL    HW119524   8.297   6.350   6.191
 5897SOL    HW219525   8.206   6.408   6.085
 5898SOL     OW19526   2.051   4.637   5.813
 5898SOL    HW119527   2.029   4.653   5.904
 5898SOL    HW219528   2.003   4.557   5.790
 5899SOL     OW19529  14.635   4.418  14.607
 5899SOL    HW119530  14.551   4.386  14.572
 5899SOL    HW219531  14.699   4.354  14.578
 5900SOL     OW19532   3.381  12.657  13.552
 5900SOL    HW119533   3.310  12.668  13.615
 5900SOL    HW219534   3.406  12.746  13.528
 5901SOL     OW19535  12.034   5.156   6.312
 5901SOL    HW119536  12.039   5.109   6.395
 5901SOL    HW219537  11.962   5.114   6.265
 5902SOL     OW19538   6.040  13.711   0.229
 5902SOL    HW119539   6.024  13.640   0.167
 5902SOL    HW219540   5.968  13.773   0.215
 5903SOL     OW19541  12.387  13.619   3.528
 5903SOL    HW119542  12.385  13.543   3.586
 5903SOL    HW219543  12.423  13.690   3.581
 5904SOL     OW19544   3.051   6.606  13.839
 5904SOL    HW119545   2.982   6.657  13.794
 5904SOL    HW219546   3.095   6.670  13.895
 5905SOL     OW19547   0.187   3.086   9.857
 5905SOL    HW119548   0.223   2.998   9.867
 5905SOL    HW219549   0.254   3.143   9.894
 5906SOL     OW19550  10.312  11.552  14.303
 5906SOL    HW119551  10.378  11.507  14.356
 5906SOL    HW219552  10.354  11.561  14.217
 5907SOL     OW19553  12.438   9.155   9.600
 5907SOL    HW119554  12.469   9.089   9.662
 5907SOL    HW219555  12.517   9.197   9.567
 5908SOL     OW19556   9.255  12.190   3.039
 5908SOL    HW119557   9.182  12.129   3.025
 5908SOL    HW219558   9.246  12.217   3.130
 5909SOL     OW19559  14.155   6.513  14.498
 5909SOL    HW119560  14.117   6.512  14.586
 5909SOL    HW219561  14.113   6.440  14.453
 5910SOL     OW19562  11.777   6.066   7.397
 5910SOL    HW119563  11.728   6.095   7.320
 5910SOL    HW219564  11.710   6.055   7.465
 5911SOL     OW19565  14.729   1.933  10.705
 5911SOL    HW119566  14.664   1.898  10.765
 5911SOL    HW219567  14.677   1.964  10.630
 5912SOL     OW19568   2.117  14.285   4.864
 5912SOL    HW119569   2.055  14.293   4.938
 5912SOL    HW219570   2.203  14.289   4.905
 5913SOL     OW19571  10.703  13.587   0.682
 5913SOL    HW119572  10.677  13.582   0.774
 5913SOL    HW219573  10.709  13.681   0.664
 5914SOL     OW19574  10.536   7.877   5.657
 5914SOL    HW119575  10.595   7.809   5.692
 5914SOL    HW219576  10.453   7.832   5.647
 5915SOL     OW19577   7.805   4.427   3.598
 5915SOL    HW119578   7.729   4.378   3.566
 5915SOL    HW219579   7.799   4.421   3.693
 5916SOL     OW19580   2.930  11.822   2.049
 5916SOL    HW119581   2.922  11.917   2.048
 5916SOL    HW219582   2.853  11.791   2.001
 5917SOL     OW19583   2.204  10.578   8.587
 5917SOL    HW119584   2.111  10.594   8.572
 5917SOL    HW219585   2.210  10.564   8.682
 5918SOL     OW19586   8.320   6.114  13.713
 5918SOL    HW119587   8.362   6.199  13.722
 5918SOL    HW219588   8.384   6.061  13.665
 5919SOL     OW19589   1.379   3.390   0.063
 5919SOL    HW119590   1.309   3.373   0.126
 5919SOL    HW219591   1.352   3.343  14.863
 5920SOL     OW19592  14.069   2.918   9.128
 5920SOL    HW119593  14.110   3.000   9.154
 5920SOL    HW219594  14.099   2.904   9.038
 5921SOL     OW19595  10.720  12.095   5.930
 5921SOL    HW119596  10.672  12.177   5.924
 5921SOL    HW219597  10.760  12.084   5.845
 5922SOL     OW19598   7.625   5.822  10.893
 5922SOL    HW119599   7.592   5.909  10.915
 5922SOL    HW219600   7.649   5.829  10.800
 5923SOL     OW19601  11.621   2.993  14.062
 5923SOL    HW119602  11.695   2.995  14.123
 5923SOL    HW219603  11.582   2.906  14.075
 5924SOL     OW19604   3.711   4.703  11.552
 5924SOL    HW119605   3.648   4.635  11.529
 5924SOL    HW219606   3.795   4.670  11.518
 5925SOL     OW19607   3.780   2.008   7.928
 5925SOL    HW119608   3.801   1.931   7.981
 5925SOL    HW219609   3.856   2.021   7.872
 5926SOL     OW19610   8.287   1.080   9.901
 5926SOL    HW119611   8.310   0.994   9.935
 5926SOL    HW219612   8.270   1.066   9.808
 5927SOL     OW19613   3.870   9.996   8.092
 5927SOL    HW119614   3.919  10.075   8.069
 5927SOL    HW219615   3.780  10.016   8.068
 5928SOL     OW19616   8.062   7.086   0.641
 5928SOL    HW119617   8.066   7.174   0.679
 5928SOL    HW219618   8.135   7.085   0.579
 5929SOL     OW19619  13.241   5.211   3.187
 5929SOL    HW119620  13.204   5.123   3.195
 5929SOL    HW219621  13.331   5.202   3.219
 5930SOL     OW19622   9.783   1.808   1.134
 5930SOL    HW119623   9.784   1.744   1.205
 5930SOL    HW219624   9.772   1.893   1.179
 5931SOL     OW19625   2.728   1.299  12.909
 5931SOL    HW119626   2.794   1.248  12.862
 5931SOL    HW219627   2.728   1.384  12.864
 5932SOL     OW19628  11.806   8.883   6.975
 5932SOL    HW119629  11.864   8.935   7.031
 5932SOL    HW219630  11.845   8.795   6.976
 5933SOL     OW19631   4.282  12.190   7.430
 5933SOL    HW119632   4.364  12.152   7.464
 5933SOL    HW219633   4.266  12.265   7.486
 5934SOL     OW19634   7.069   0.411   8.961
 5934SOL    HW119635   6.977   0.417   8.938
 5934SOL    HW219636   7.094   0.501   8.982
 5935SOL     OW19637   8.278  14.555   1.763
 5935SOL    HW119638   8.317  14.467   1.763
 5935SOL    HW219639   8.331  14.605   1.825
 5936SOL     OW19640   5.343   6.304   2.265
 5936SOL    HW119641   5.398   6.362   2.214
 5936SOL    HW219642   5.268   6.357   2.291
 5937SOL     OW19643   2.256   8.390  10.072
 5937SOL    HW119644   2.265   8.382  10.166
 5937SOL    HW219645   2.183   8.451  10.060
 5938SOL     OW19646  14.293   7.546   8.403
 5938SOL    HW119647  14.363   7.480   8.408
 5938SOL    HW219648  14.261   7.554   8.493
 5939SOL     OW19649   7.102  11.849   4.831
 5939SOL    HW119650   7.126  11.855   4.739
 5939SOL    HW219651   7.097  11.939   4.861
 5940SOL     OW19652   7.611  12.147  14.066
 5940SOL    HW119653   7.704  12.151  14.090
 5940SOL    HW219654   7.567  12.124  14.148
 5941SOL     OW19655   6.023  13.452   1.288
 5941SOL    HW119656   6.111  13.435   1.256
 5941SOL    HW219657   5.996  13.370   1.330
 5942SOL     OW19658   5.967   4.071   0.663
 5942SOL    HW119659   6.023   4.149   0.660
 5942SOL    HW219660   6.014   4.011   0.721
 5943SOL     OW19661   5.112  13.226   6.985
 5943SOL    HW119662   5.130  13.314   7.017
 5943SOL    HW219663   5.052  13.239   6.912
 5944SOL     OW19664   8.947   0.486   8.667
 5944SOL    HW119665   9.011   0.495   8.597
 5944SOL    HW219666   8.883   0.555   8.650
 5945SOL     OW19667   8.798   6.255   3.198
 5945SOL    HW119668   8.860   6.325   3.219
 5945SOL    HW219669   8.852   6.177   3.191
 5946SOL     OW19670   7.333   2.597   7.457
 5946SOL    HW119671   7.404   2.642   7.503
 5946SOL    HW219672   7.254   2.644   7.483
 5947SOL     OW19673   3.088  12.790   3.894
 5947SOL    HW119674   3.036  12.738   3.832
 5947SOL    HW219675   3.098  12.733   3.971
 5948SOL     OW19676   5.593  11.877   8.415
 5948SOL    HW119677   5.511  11.874   8.366
 5948SOL    HW219678   5.589  11.801   8.474
 5949SOL     OW19679   5.367   1.058   6.638
 5949SOL    HW119680   5.420   1.005   6.698
 5949SOL    HW219681   5.428   1.123   6.603
 5950SOL     OW19682   6.890   8.012   1.671
 5950SOL    HW119683   6.801   7.995   1.702
 5950SOL    HW219684   6.885   8.002   1.576
 5951SOL     OW19685   9.615  14.643   9.267
 5951SOL    HW119686   9.602  14.612   9.357
 5951SOL    HW219687   9.562  14.585   9.213
 5952SOL     OW19688   9.788   3.054  11.994
 5952SOL    HW119689   9.821   2.972  11.957
 5952SOL    HW219690   9.865   3.097  12.029
 5953SOL     OW19691   7.284  13.651   4.975
 5953SOL    HW119692   7.190  13.636   4.976
 5953SOL    HW219693   7.301  13.705   5.052
 5954SOL     OW19694   9.897   2.890   3.147
 5954SOL    HW119695   9.938   2.847   3.221
 5954SOL    HW219696   9.970   2.924   3.095
 5955SOL     OW19697   4.522   4.257   7.660
 5955SOL    HW119698   4.589   4.255   7.591
 5955SOL    HW219699   4.565   4.220   7.737
 5956SOL     OW19700   1.911  10.685   0.614
 5956SOL    HW119701   1.869  10.762   0.577
 5956SOL    HW219702   1.936  10.632   0.538
 5957SOL     OW19703  14.838  13.864   7.737
 5957SOL    HW119704  14.869  13.935   7.793
 5957SOL    HW219705   0.028  13.798   7.743
 5958SOL     OW19706  13.304   8.616   0.552
 5958SOL    HW119707  13.312   8.625   0.457
 5958SOL    HW219708  13.237   8.680   0.576
 5959SOL     OW19709   4.201  10.680   7.687
 5959SOL    HW119710   4.246  10.761   7.710
 5959SOL    HW219711   4.195  10.682   7.591
 5960SOL     OW19712   5.358  13.580   5.143
 5960SOL    HW119713   5.391  13.525   5.214
 5960SOL    HW219714   5.289  13.632   5.185
 5961SOL     OW19715   0.127   2.964   4.569
 5961SOL    HW119716   0.066   2.980   4.641
 5961SOL    HW219717   0.123   2.870   4.555
 5962SOL     OW19718  14.688  14.055  10.975
 5962SOL    HW119719  14.782  14.070  10.965
 5962SOL    HW219720  14.655  14.135  11.014
 5963SOL     OW19721  10.762   1.733   4.868
 5963SOL    HW119722  10.796   1.713   4.781
 5963SOL    HW219723  10.780   1.827   4.879
 5964SOL     OW19724  10.780   7.304  11.891
 5964SOL    HW119725  10.816   7.228  11.937
 5964SOL    HW219726  10.852   7.338  11.839
 5965SOL     OW19727   7.139   4.479   9.974
 5965SOL    HW119728   7.194   4.549   9.938
 5965SOL    HW219729   7.130   4.416   9.902
 5966SOL     OW19730  14.346   9.422  12.357
 5966SOL    HW119731  14.359   9.356  12.289
 5966SOL    HW219732  14.394   9.499  12.326
 5967SOL     OW19733   4.733   9.613   3.583
 5967SOL    HW119734   4.702   9.627   3.494
 5967SOL    HW219735   4.657   9.631   3.638
 5968SOL     OW19736   8.488   2.557   3.983
 5968SOL    HW119737   8.552   2.626   4.001
 5968SOL    HW219738   8.410   2.583   4.032
 5969SOL     OW19739   0.583  13.310  14.538
 5969SOL    HW119740   0.631  13.271  14.611
 5969SOL    HW219741   0.556  13.396  14.570
 5970SOL     OW19742  11.294  10.648  10.572
 5970SOL    HW119743  11.354  10.670  10.643
 5970SOL    HW219744  11.235  10.583  10.610
 5971SOL     OW19745   1.521   9.195   7.900
 5971SOL    HW119746   1.445   9.220   7.952
 5971SOL    HW219747   1.574   9.275   7.896
 5972SOL     OW19748   2.198   8.393   3.740
 5972SOL    HW119749   2.202   8.456   3.668
 5972SOL    HW219750   2.236   8.313   3.704
 5973SOL     OW19751   6.008   1.389   1.950
 5973SOL    HW119752   5.999   1.399   2.044
 5973SOL    HW219753   5.990   1.296   1.934
 5974SOL     OW19754   5.751   3.575  11.218
 5974SOL    HW119755   5.687   3.621  11.165
 5974SOL    HW219756   5.708   3.562  11.302
 5975SOL     OW19757   6.956   2.661   7.441
 5975SOL    HW119758   6.913   2.640   7.358
 5975SOL    HW219759   6.998   2.745   7.425
 5976SOL     OW19760   3.634  12.351   6.117
 5976SOL    HW119761   3.711  12.326   6.066
 5976SOL    HW219762   3.668  12.368   6.205
 5977SOL     OW19763   6.591   1.695   0.715
 5977SOL    HW119764   6.648   1.624   0.747
 5977SOL    HW219765   6.630   1.774   0.752
 5978SOL     OW19766   0.382   4.800  14.596
 5978SOL    HW119767   0.395   4.733  14.662
 5978SOL    HW219768   0.338   4.755  14.524
 5979SOL     OW19769   5.013  11.848   2.854
 5979SOL    HW119770   4.956  11.826   2.928
 5979SOL    HW219771   5.097  11.870   2.894
 5980SOL     OW19772   8.034  11.856  13.833
 5980SOL    HW119773   8.063  11.816  13.914
 5980SOL    HW219774   7.951  11.813  13.812
 5981SOL     OW19775   2.853  14.218   6.831
 5981SOL    HW119776   2.767  14.255   6.812
 5981SOL    HW219777   2.900  14.288   6.876
 5982SOL     OW19778   1.920  10.235   6.766
 5982SOL    HW119779   1.865  10.236   6.845
 5982SOL    HW219780   1.969  10.318   6.771
 5983SOL     OW19781   9.037   8.356   4.568
 5983SOL    HW119782   9.033   8.265   4.597
 5983SOL    HW219783   8.945   8.382   4.559
 5984SOL     OW19784   3.255  14.062   6.451
 5984SOL    HW119785   3.206  14.122   6.394
 5984SOL    HW219786   3.206  13.980   6.447
 5985SOL     OW19787   3.879   6.881   7.130
 5985SOL    HW119788   3.820   6.937   7.179
 5985SOL    HW219789   3.823   6.811   7.095
 5986SOL     OW19790   7.549   2.268  13.107
 5986SOL    HW119791   7.568   2.176  13.126
 5986SOL    HW219792   7.632   2.313  13.122
 5987SOL     OW19793   5.903   7.301  13.861
 5987SOL    HW119794   5.995   7.312  13.839
 5987SOL    HW219795   5.869   7.241  13.795
 5988SOL     OW19796   1.179  10.547   3.859
 5988SOL    HW119797   1.260  10.545   3.910
 5988SOL    HW219798   1.179  10.464   3.811
 5989SOL     OW19799   0.105   1.411   2.646
 5989SOL    HW119800   0.120   1.476   2.714
 5989SOL    HW219801   0.010   1.398   2.645
 5990SOL     OW19802  11.327   7.370   2.850
 5990SOL    HW119803  11.421   7.378   2.837
 5990SOL    HW219804  11.289   7.390   2.765
 5991SOL     OW19805   2.430   4.952   2.949
 5991SOL    HW119806   2.369   4.915   3.013
 5991SOL    HW219807   2.453   5.037   2.985
 5992SOL     OW19808   7.417   7.811   4.986
 5992SOL    HW119809   7.423   7.774   5.075
 5992SOL    HW219810   7.342   7.870   4.990
 5993SOL     OW19811  12.306  12.296  14.382
 5993SOL    HW119812  12.397  12.281  14.406
 5993SOL    HW219813  12.309  12.346  14.301
 5994SOL     OW19814   8.783   5.117   6.209
 5994SOL    HW119815   8.789   5.152   6.298
 5994SOL    HW219816   8.837   5.038   6.211
 5995SOL     OW19817  11.674   1.025   4.285
 5995SOL    HW119818  11.653   0.945   4.236
 5995SOL    HW219819  11.589   1.062   4.308
 5996SOL     OW19820  14.016   3.199   9.588
 5996SOL    HW119821  14.095   3.180   9.639
 5996SOL    HW219822  13.975   3.113   9.574
 5997SOL     OW19823   8.505  13.984   1.211
 5997SOL    HW119824   8.501  14.018   1.121
 5997SOL    HW219825   8.565  14.043   1.256
 5998SOL     OW19826  12.897  11.178  12.483
 5998SOL    HW119827  12.885  11.208  12.393
 5998SOL    HW219828  12.914  11.258  12.532
 5999SOL     OW19829   5.245   7.154  10.403
 5999SOL    HW119830   5.275   7.102  10.328
 5999SOL    HW219831   5.313   7.221  10.414
 6000SOL     OW19832   9.882  10.816  10.062
 6000SOL    HW119833   9.848  10.847   9.978
 6000SOL    HW219834   9.976  10.829  10.056
 6001SOL     OW19835  11.303  10.254  12.253
 6001SOL    HW119836  11.275  10.303  12.176
 6001SOL    HW219837  11.228  10.257  12.312
 6002SOL     OW19838  10.324   3.196  11.297
 6002SOL    HW119839  10.238   3.236  11.285
 6002SOL    HW219840  10.378   3.267  11.333
 6003SOL     OW19841   6.722   1.634   5.312
 6003SOL    HW119842   6.733   1.548   5.272
 6003SOL    HW219843   6.628   1.645   5.321
 6004SOL     OW19844   5.259   6.110   5.675
 6004SOL    HW119845   5.341   6.097   5.722
 6004SOL    HW219846   5.193   6.119   5.744
 6005SOL     OW19847  11.353   6.478   4.532
 6005SOL    HW119848  11.429   6.453   4.584
 6005SOL    HW219849  11.358   6.423   4.454
 6006SOL     OW19850  11.117  11.090   8.381
 6006SOL    HW119851  11.131  10.996   8.389
 6006SOL    HW219852  11.193  11.129   8.425
 6007SOL     OW19853  14.675   7.320   9.903
 6007SOL    HW119854  14.604   7.257   9.886
 6007SOL    HW219855  14.726   7.321   9.822
 6008SOL     OW19856   8.248  10.943  11.684
 6008SOL    HW119857   8.162  10.966  11.650
 6008SOL    HW219858   8.279  11.023  11.726
 6009SOL     OW19859   7.317   1.218   5.457
 6009SOL    HW119860   7.228   1.252   5.464
 6009SOL    HW219861   7.343   1.237   5.367
 6010SOL     OW19862   5.469   8.979   8.215
 6010SOL    HW119863   5.530   9.042   8.178
 6010SOL    HW219864   5.523   8.905   8.241
 6011SOL     OW19865   8.019  13.249  14.134
 6011SOL    HW119866   8.058  13.193  14.067
 6011SOL    HW219867   7.939  13.283  14.094
 6012SOL     OW19868   5.662   2.298   7.558
 6012SOL    HW119869   5.715   2.360   7.609
 6012SOL    HW219870   5.573   2.311   7.590
 6013SOL     OW19871   9.228  12.482   4.041
 6013SOL    HW119872   9.260  12.440   4.121
 6013SOL    HW219873   9.289  12.553   4.025
 6014SOL     OW19874   8.667   3.216   7.421
 6014SOL    HW119875   8.588   3.167   7.446
 6014SOL    HW219876   8.709   3.160   7.356
 6015SOL     OW19877  13.581   3.597   3.257
 6015SOL    HW119878  13.664   3.564   3.292
 6015SOL    HW219879  13.563   3.542   3.181
 6016SOL     OW19880   7.683   4.990   6.428
 6016SOL    HW119881   7.761   5.023   6.384
 6016SOL    HW219882   7.633   5.068   6.451
 6017SOL     OW19883   4.928   1.406   5.496
 6017SOL    HW119884   4.854   1.438   5.446
 6017SOL    HW219885   4.960   1.330   5.447
 6018SOL     OW19886   5.542   9.166   3.331
 6018SOL    HW119887   5.492   9.133   3.405
 6018SOL    HW219888   5.558   9.089   3.276
 6019SOL     OW19889  14.245  10.357   9.280
 6019SOL    HW119890  14.231  10.277   9.331
 6019SOL    HW219891  14.157  10.395   9.272
 6020SOL     OW19892   6.625  11.630   7.585
 6020SOL    HW119893   6.629  11.715   7.629
 6020SOL    HW219894   6.531  11.614   7.572
 6021SOL     OW19895  12.617  11.121   1.376
 6021SOL    HW119896  12.569  11.160   1.449
 6021SOL    HW219897  12.553  11.113   1.306
 6022SOL     OW19898  12.268   6.152  12.178
 6022SOL    HW119899  12.265   6.166  12.273
 6022SOL    HW219900  12.361   6.142  12.159
 6023SOL     OW19901  13.818   6.836   1.439
 6023SOL    HW119902  13.880   6.862   1.507
 6023SOL    HW219903  13.865   6.769   1.389
 6024SOL     OW19904   8.685  13.050  13.250
 6024SOL    HW119905   8.713  12.965  13.283
 6024SOL    HW219906   8.602  13.067  13.293
 6025SOL     OW19907   6.766  10.216   0.278
 6025SOL    HW119908   6.801  10.132   0.311
 6025SOL    HW219909   6.797  10.221   0.188
 6026SOL     OW19910   6.660   1.394   9.319
 6026SOL    HW119911   6.602   1.454   9.366
 6026SOL    HW219912   6.623   1.390   9.230
 6027SOL     OW19913  10.303  10.892   1.129
 6027SOL    HW119914  10.283  10.880   1.036
 6027SOL    HW219915  10.228  10.855   1.175
 6028SOL     OW19916   7.569   8.515   5.322
 6028SOL    HW119917   7.510   8.507   5.396
 6028SOL    HW219918   7.621   8.594   5.340
 6029SOL     OW19919   9.172  13.508  11.722
 6029SOL    HW119920   9.089  13.480  11.685
 6029SOL    HW219921   9.161  13.601  11.738
 6030SOL     OW19922   0.853   5.041  10.521
 6030SOL    HW119923   0.826   5.132  10.524
 6030SOL    HW219924   0.949   5.044  10.516
 6031SOL     OW19925  10.252   3.540  11.892
 6031SOL    HW119926  10.250   3.578  11.980
 6031SOL    HW219927  10.341   3.557  11.860
 6032SOL     OW19928  10.769  11.879   6.861
 6032SOL    HW119929  10.804  11.885   6.772
 6032SOL    HW219930  10.710  11.954   6.869
 6033SOL     OW19931  11.809   8.564   6.647
 6033SOL    HW119932  11.719   8.591   6.627
 6033SOL    HW219933  11.818   8.580   6.741
 6034SOL     OW19934   2.076  11.477   2.472
 6034SOL    HW119935   1.988  11.490   2.436
 6034SOL    HW219936   2.062  11.435   2.557
 6035SOL     OW19937   0.779   6.366  11.576
 6035SOL    HW119938   0.685   6.360  11.592
 6035SOL    HW219939   0.797   6.307  11.504
 6036SOL     OW19940  13.243  10.021   5.919
 6036SOL    HW119941  13.326  10.068   5.929
 6036SOL    HW219942  13.252   9.972   5.837
 6037SOL     OW19943  13.734   0.562   5.181
 6037SOL    HW119944  13.735   0.639   5.238
 6037SOL    HW219945  13.818   0.520   5.196
 6038SOL     OW19946   8.989   8.673   0.873
 6038SOL    HW119947   8.981   8.676   0.778
 6038SOL    HW219948   9.028   8.758   0.897
 6039SOL     OW19949  11.856  10.104   8.592
 6039SOL    HW119950  11.831  10.151   8.513
 6039SOL    HW219951  11.877  10.172   8.656
 6040SOL     OW19952   3.429  10.191   3.770
 6040SOL    HW119953   3.417  10.151   3.856
 6040SOL    HW219954   3.501  10.142   3.730
 6041SOL     OW19955   8.600   1.208  11.993
 6041SOL    HW119956   8.622   1.116  12.010
 6041SOL    HW219957   8.509   1.217  12.022
 6042SOL     OW19958  11.606  12.049  12.272
 6042SOL    HW119959  11.671  11.988  12.236
 6042SOL    HW219960  11.608  12.032  12.366
 6043SOL     OW19961  10.029  12.094   3.831
 6043SOL    HW119962  10.025  12.183   3.797
 6043SOL    HW219963  10.015  12.039   3.754
 6044SOL     OW19964   3.828  12.580   7.275
 6044SOL    HW119965   3.818  12.549   7.185
 6044SOL    HW219966   3.903  12.639   7.272
 6045SOL     OW19967   7.593   5.345   3.683
 6045SOL    HW119968   7.547   5.428   3.694
 6045SOL    HW219969   7.680   5.361   3.720
 6046SOL     OW19970   5.121  13.182   7.965
 6046SOL    HW119971   5.047  13.162   8.022
 6046SOL    HW219972   5.129  13.105   7.908
 6047SOL     OW19973   9.357  11.002  10.995
 6047SOL    HW119974   9.352  11.025  10.902
 6047SOL    HW219975   9.276  10.954  11.012
 6048SOL     OW19976   6.367  11.536  12.871
 6048SOL    HW119977   6.412  11.567  12.950
 6048SOL    HW219978   6.436  11.529  12.805
 6049SOL     OW19979   2.082   7.722   0.270
 6049SOL    HW119980   2.030   7.713   0.190
 6049SOL    HW219981   2.040   7.792   0.318
 6050SOL     OW19982   6.948   2.593   3.159
 6050SOL    HW119983   7.008   2.518   3.151
 6050SOL    HW219984   6.866   2.562   3.120
 6051SOL     OW19985  11.542   5.567   5.122
 6051SOL    HW119986  11.532   5.491   5.065
 6051SOL    HW219987  11.454   5.607   5.124
 6052SOL     OW19988   3.941   9.381   6.509
 6052SOL    HW119989   3.849   9.399   6.489
 6052SOL    HW219990   3.948   9.396   6.603
 6053SOL     OW19991   9.707  13.267  12.143
 6053SOL    HW119992   9.754  13.199  12.096
 6053SOL    HW219993   9.620  13.268  12.103
 6054SOL     OW19994  14.379  12.425   5.579
 6054SOL    HW119995  14.410  12.336   5.561
 6054SOL    HW219996  14.452  12.468   5.623
 6055SOL     OW19997  12.403   2.582   3.300
 6055SOL    HW119998  12.336   2.521   3.333
 6055SOL    HW219999  12.478   2.567   3.356
 6056SOL     OW20000   4.580  14.073  10.546
 6056SOL    HW120001   4.570  14.089  10.640
 6056SOL    HW220002   4.638  14.143  10.516
 6057SOL     OW20003   1.350   3.682   7.963
 6057SOL    HW120004   1.301   3.662   8.042
 6057SOL    HW220005   1.387   3.769   7.979
 6058SOL     OW20006   0.437  13.251  10.185
 6058SOL    HW120007   0.401  13.276  10.270
 6058SOL    HW220008   0.507  13.189  10.206
 6059SOL     OW20009   4.988  12.011   8.456
 6059SOL    HW120010   4.950  11.996   8.369
 6059SOL    HW220011   4.917  12.049   8.507
 6060SOL     OW20012  14.317   0.322   6.538
 6060SOL    HW120013  14.365   0.243   6.511
 6060SOL    HW220014  14.239   0.323   6.483
 6061SOL     OW20015   8.601   2.421  13.162
 6061SOL    HW120016   8.589   2.326  13.170
 6061SOL    HW220017   8.582   2.455  13.250
 6062SOL     OW20018   5.566   0.243  11.274
 6062SOL    HW120019   5.642   0.285  11.313
 6062SOL    HW220020   5.499   0.247  11.342
 6063SOL     OW20021   2.285  13.612  10.114
 6063SOL    HW120022   2.345  13.552  10.156
 6063SOL    HW220023   2.289  13.692  10.167
 6064SOL     OW20024   8.009  12.424   6.057
 6064SOL    HW120025   8.052  12.355   6.108
 6064SOL    HW220026   7.927  12.441   6.103
 6065SOL     OW20027   0.808   5.061  10.013
 6065SOL    HW120028   0.789   5.017  10.096
 6065SOL    HW220029   0.723   5.094   9.983
 6066SOL     OW20030   0.059   4.189   2.823
 6066SOL    HW120031   0.130   4.124   2.827
 6066SOL    HW220032   0.085   4.256   2.887
 6067SOL     OW20033  12.672   1.560  12.642
 6067SOL    HW120034  12.642   1.611  12.717
 6067SOL    HW220035  12.741   1.614  12.602
 6068SOL     OW20036   8.780  10.894   0.218
 6068SOL    HW120037   8.780  10.817   0.274
 6068SOL    HW220038   8.774  10.968   0.278
 6069SOL     OW20039   3.903   9.887   9.171
 6069SOL    HW120040   3.914   9.792   9.170
 6069SOL    HW220041   3.812   9.899   9.199
 6070SOL     OW20042   2.236  13.629   7.280
 6070SOL    HW120043   2.200  13.560   7.224
 6070SOL    HW220044   2.301  13.673   7.225
 6071SOL     OW20045   9.972   1.017   8.613
 6071SOL    HW120046  10.065   1.038   8.622
 6071SOL    HW220047   9.936   1.090   8.561
 6072SOL     OW20048  10.373   0.034  14.516
 6072SOL    HW120049  10.277   0.026  14.520
 6072SOL    HW220050  10.391   0.117  14.559
 6073SOL     OW20051   4.974  11.871   0.353
 6073SOL    HW120052   5.007  11.950   0.396
 6073SOL    HW220053   4.896  11.900   0.305
 6074SOL     OW20054   8.993   5.691  11.476
 6074SOL    HW120055   9.045   5.705  11.555
 6074SOL    HW220056   9.055   5.699  11.404
 6075SOL     OW20057  13.800   6.254   6.330
 6075SOL    HW120058  13.875   6.235   6.386
 6075SOL    HW220059  13.832   6.320   6.269
 6076SOL     OW20060   7.654   4.222   4.083
 6076SOL    HW120061   7.564   4.240   4.055
 6076SOL    HW220062   7.686   4.307   4.113
 6077SOL     OW20063   2.145   8.569   6.038
 6077SOL    HW120064   2.231   8.555   6.077
 6077SOL    HW220065   2.104   8.483   6.038
 6078SOL     OW20066  12.889   8.588   5.075
 6078SOL    HW120067  12.801   8.627   5.075
 6078SOL    HW220068  12.891   8.534   5.153
 6079SOL     OW20069   8.236   6.925   6.616
 6079SOL    HW120070   8.271   7.011   6.590
 6079SOL    HW220071   8.220   6.933   6.710
 6080SOL     OW20072  13.527  12.311  14.121
 6080SOL    HW120073  13.482  12.261  14.188
 6080SOL    HW220074  13.486  12.284  14.039
 6081SOL     OW20075   6.511  13.792  13.784
 6081SOL    HW120076   6.496  13.729  13.854
 6081SOL    HW220077   6.589  13.840  13.811
 6082SOL     OW20078  13.835   9.124   7.805
 6082SOL    HW120079  13.756   9.161   7.845
 6082SOL    HW220080  13.907   9.171   7.848
 6083SOL     OW20081  11.314  14.794   4.688
 6083SOL    HW120082  11.402  14.827   4.671
 6083SOL    HW220083  11.274  14.860   4.745
 6084SOL     OW20084   6.454  14.014   0.604
 6084SOL    HW120085   6.427  13.932   0.564
 6084SOL    HW220086   6.464  13.994   0.697
 6085SOL     OW20087   6.157  12.004   9.874
 6085SOL    HW120088   6.075  11.973   9.835
 6085SOL    HW220089   6.134  12.024   9.965
 6086SOL     OW20090   1.625   3.440  11.037
 6086SOL    HW120091   1.567   3.515  11.049
 6086SOL    HW220092   1.642   3.437  10.943
 6087SOL     OW20093  10.726  14.357  12.714
 6087SOL    HW120094  10.794  14.300  12.679
 6087SOL    HW220095  10.696  14.408  12.639
 6088SOL     OW20096   3.976  13.356   5.699
 6088SOL    HW120097   3.920  13.323   5.629
 6088SOL    HW220098   4.065  13.347   5.665
 6089SOL     OW20099   2.642  13.917   3.282
 6089SOL    HW120100   2.617  13.826   3.296
 6089SOL    HW220101   2.652  13.925   3.187
 6090SOL     OW20102   0.972   9.091   7.338
 6090SOL    HW120103   0.922   9.126   7.265
 6090SOL    HW220104   0.908   9.041   7.389
 6091SOL     OW20105   9.067   8.219   8.094
 6091SOL    HW120106   9.037   8.286   8.156
 6091SOL    HW220107   8.991   8.201   8.039
 6092SOL     OW20108  12.409   4.276  13.314
 6092SOL    HW120109  12.459   4.305  13.390
 6092SOL    HW220110  12.325   4.320  13.323
 6093SOL     OW20111   1.362   3.261   4.547
 6093SOL    HW120112   1.327   3.251   4.458
 6093SOL    HW220113   1.332   3.347   4.575
 6094SOL     OW20114   9.872   4.342   8.691
 6094SOL    HW120115   9.817   4.264   8.680
 6094SOL    HW220116   9.882   4.376   8.602
 6095SOL     OW20117  14.482   0.215   8.908
 6095SOL    HW120118  14.498   0.173   8.992
 6095SOL    HW220119  14.468   0.142   8.847
 6096SOL     OW20120   8.667   9.813   9.192
 6096SOL    HW120121   8.726   9.831   9.119
 6096SOL    HW220122   8.601   9.882   9.187
 6097SOL     OW20123   6.122  12.462  14.381
 6097SOL    HW120124   6.069  12.458  14.460
 6097SOL    HW220125   6.208  12.429  14.407
 6098SOL     OW20126   9.454  13.034   8.796
 6098SOL    HW120127   9.505  13.079   8.729
 6098SOL    HW220128   9.364  13.065   8.783
 6099SOL     OW20129   4.663   9.297   6.203
 6099SOL    HW120130   4.726   9.370   6.200
 6099SOL    HW220131   4.602   9.321   6.272
 6100SOL     OW20132  11.808   1.168   2.271
 6100SOL    HW120133  11.841   1.246   2.316
 6100SOL    HW220134  11.878   1.144   2.211
 6101SOL     OW20135  14.386   7.277  11.175
 6101SOL    HW120136  14.424   7.355  11.216
 6101SOL    HW220137  14.458   7.241  11.122
 6102SOL     OW20138  10.254   7.882   8.327
 6102SOL    HW120139  10.199   7.841   8.393
 6102SOL    HW220140  10.339   7.894   8.370
 6103SOL     OW20141   6.431  13.993   2.634
 6103SOL    HW120142   6.477  14.051   2.572
 6103SOL    HW220143   6.343  13.983   2.597
 6104SOL     OW20144   3.867   0.429   8.671
 6104SOL    HW120145   3.943   0.396   8.622
 6104SOL    HW220146   3.793   0.381   8.634
 6105SOL     OW20147  11.425   8.431   5.284
 6105SOL    HW120148  11.474   8.348   5.286
 6105SOL    HW220149  11.369   8.427   5.362
 6106SOL     OW20150   3.262   9.451   2.524
 6106SOL    HW120151   3.352   9.476   2.501
 6106SOL    HW220152   3.213   9.534   2.519
 6107SOL     OW20153  14.043   8.534   7.293
 6107SOL    HW120154  13.949   8.520   7.305
 6107SOL    HW220155  14.082   8.500   7.374
 6108SOL     OW20156  10.921  13.214   2.420
 6108SOL    HW120157  10.850  13.157   2.389
 6108SOL    HW220158  10.966  13.242   2.340
 6109SOL     OW20159   3.360   9.424  13.476
 6109SOL    HW120160   3.355   9.445  13.382
 6109SOL    HW220161   3.443   9.463  13.505
 6110SOL     OW20162   5.989   7.497  12.329
 6110SOL    HW120163   6.061   7.511  12.268
 6110SOL    HW220164   6.003   7.561  12.399
 6111SOL     OW20165  12.810   9.940  14.653
 6111SOL    HW120166  12.799   9.971  14.563
 6111SOL    HW220167  12.856  10.011  14.697
 6112SOL     OW20168   4.403   5.156  11.314
 6112SOL    HW120169   4.467   5.124  11.378
 6112SOL    HW220170   4.456   5.191  11.242
 6113SOL     OW20171   0.562   7.724   8.253
 6113SOL    HW120172   0.635   7.712   8.192
 6113SOL    HW220173   0.582   7.806   8.298
 6114SOL     OW20174   1.256   7.496  13.869
 6114SOL    HW120175   1.330   7.489  13.809
 6114SOL    HW220176   1.273   7.429  13.936
 6115SOL     OW20177   1.202   5.415  12.890
 6115SOL    HW120178   1.173   5.370  12.811
 6115SOL    HW220179   1.274   5.471  12.861
 6116SOL     OW20180  14.705   5.971  11.400
 6116SOL    HW120181  14.633   5.939  11.345
 6116SOL    HW220182  14.740   5.891  11.441
 6117SOL     OW20183   6.655   1.898   5.912
 6117SOL    HW120184   6.743   1.931   5.931
 6117SOL    HW220185   6.670   1.811   5.873
 6118SOL     OW20186  10.917  10.907   9.562
 6118SOL    HW120187  10.911  10.856   9.643
 6118SOL    HW220188  11.003  10.885   9.527
 6119SOL     OW20189   8.002   1.272   4.990
 6119SOL    HW120190   8.078   1.330   5.000
 6119SOL    HW220191   8.021   1.197   5.046
 6120SOL     OW20192  14.615   2.440   2.761
 6120SOL    HW120193  14.577   2.524   2.735
 6120SOL    HW220194  14.679   2.462   2.828
 6121SOL     OW20195  12.962   2.879  11.538
 6121SOL    HW120196  12.914   2.799  11.516
 6121SOL    HW220197  12.895   2.947  11.540
 6122SOL     OW20198   0.287   2.609  13.481
 6122SOL    HW120199   0.355   2.593  13.416
 6122SOL    HW220200   0.315   2.561  13.558
 6123SOL     OW20201  14.491   7.330   3.550
 6123SOL    HW120202  14.421   7.356   3.489
 6123SOL    HW220203  14.569   7.373   3.517
 6124SOL     OW20204   5.921   4.031   3.356
 6124SOL    HW120205   5.866   4.051   3.432
 6124SOL    HW220206   5.988   4.099   3.357
 6125SOL     OW20207   8.471   3.053  12.788
 6125SOL    HW120208   8.378   3.052  12.809
 6125SOL    HW220209   8.474   3.044  12.693
 6126SOL     OW20210   8.999  11.628  14.029
 6126SOL    HW120211   9.051  11.617  14.109
 6126SOL    HW220212   9.027  11.556  13.973
 6127SOL     OW20213  14.628   2.593  11.439
 6127SOL    HW120214  14.590   2.554  11.518
 6127SOL    HW220215  14.555   2.596  11.377
 6128SOL     OW20216   6.281   6.899   6.311
 6128SOL    HW120217   6.210   6.842   6.340
 6128SOL    HW220218   6.325   6.926   6.391
 6129SOL     OW20219   6.223  12.616   0.030
 6129SOL    HW120220   6.203  12.661  14.827
 6129SOL    HW220221   6.153  12.643   0.090
 6130SOL     OW20222   1.711   0.251   2.261
 6130SOL    HW120223   1.790   0.303   2.279
 6130SOL    HW220224   1.638   0.309   2.284
 6131SOL     OW20225   2.677   6.564   3.125
 6131SOL    HW120226   2.704   6.510   3.050
 6131SOL    HW220227   2.618   6.508   3.175
 6132SOL     OW20228  11.563  11.234   8.681
 6132SOL    HW120229  11.651  11.246   8.644
 6132SOL    HW220230  11.573  11.165   8.745
 6133SOL     OW20231  10.213   9.010   7.475
 6133SOL    HW120232  10.173   8.930   7.440
 6133SOL    HW220233  10.265   9.044   7.402
 6134SOL     OW20234   9.312   6.087  14.626
 6134SOL    HW120235   9.355   6.172  14.635
 6134SOL    HW220236   9.218   6.108  14.627
 6135SOL     OW20237   9.882   6.623  13.451
 6135SOL    HW120238   9.897   6.649  13.542
 6135SOL    HW220239   9.916   6.534  13.446
 6136SOL     OW20240   1.264  12.542   1.264
 6136SOL    HW120241   1.306  12.621   1.295
 6136SOL    HW220242   1.336  12.485   1.238
 6137SOL     OW20243   7.861  10.337   7.004
 6137SOL    HW120244   7.865  10.415   6.949
 6137SOL    HW220245   7.952  10.320   7.028
 6138SOL     OW20246   9.242   7.149   4.030
 6138SOL    HW120247   9.287   7.218   4.078
 6138SOL    HW220248   9.153   7.182   4.018
 6139SOL     OW20249   4.953  13.513   5.683
 6139SOL    HW120250   4.971  13.546   5.771
 6139SOL    HW220251   4.863  13.542   5.665
 6140SOL     OW20252  12.051   9.598  12.177
 6140SOL    HW120253  12.118   9.664  12.194
 6140SOL    HW220254  12.098   9.514  12.183
 6141SOL     OW20255  11.654   7.366  11.428
 6141SOL    HW120256  11.690   7.284  11.461
 6141SOL    HW220257  11.561   7.349  11.418
 6142SOL     OW20258  13.603  11.714   3.190
 6142SOL    HW120259  13.582  11.716   3.283
 6142SOL    HW220260  13.654  11.634   3.179
 6143SOL     OW20261  13.511   4.863   7.844
 6143SOL    HW120262  13.579   4.816   7.892
 6143SOL    HW220263  13.444   4.796   7.827
 6144SOL     OW20264  13.853   4.926   2.825
 6144SOL    HW120265  13.834   4.850   2.879
 6144SOL    HW220266  13.906   4.892   2.752
 6145SOL     OW20267   0.889   0.615  10.400
 6145SOL    HW120268   0.814   0.615  10.459
 6145SOL    HW220269   0.903   0.523  10.378
 6146SOL     OW20270   8.302   4.612   1.939
 6146SOL    HW120271   8.281   4.647   1.852
 6146SOL    HW220272   8.390   4.644   1.958
 6147SOL     OW20273   3.857   4.206  12.268
 6147SOL    HW120274   3.925   4.268  12.296
 6147SOL    HW220275   3.889   4.121  12.299
 6148SOL     OW20276   1.477   3.984   8.428
 6148SOL    HW120277   1.392   3.988   8.384
 6148SOL    HW220278   1.512   4.072   8.421
 6149SOL     OW20279   6.418   9.550   7.438
 6149SOL    HW120280   6.347   9.539   7.501
 6149SOL    HW220281   6.469   9.623   7.472
 6150SOL     OW20282  11.048  13.276  13.820
 6150SOL    HW120283  10.983  13.213  13.791
 6150SOL    HW220284  11.132  13.240  13.791
 6151SOL     OW20285   7.938   2.761   7.004
 6151SOL    HW120286   7.933   2.666   7.005
 6151SOL    HW220287   7.896   2.787   6.922
 6152SOL     OW20288  10.287  11.203  13.469
 6152SOL    HW120289  10.288  11.297  13.486
 6152SOL    HW220290  10.293  11.162  13.555
 6153SOL     OW20291  11.294   8.195   0.110
 6153SOL    HW120292  11.235   8.120   0.100
 6153SOL    HW220293  11.308   8.202   0.205
 6154SOL     OW20294   8.316  12.514   3.944
 6154SOL    HW120295   8.391  12.550   3.898
 6154SOL    HW220296   8.352  12.447   4.002
 6155SOL     OW20297   4.053  12.540   3.617
 6155SOL    HW120298   3.965  12.538   3.580
 6155SOL    HW220299   4.112  12.533   3.542
 6156SOL     OW20300   0.812  14.855   8.383
 6156SOL    HW120301   0.782   0.059   8.346
 6156SOL    HW220302   0.892  14.877   8.430
 6157SOL     OW20303  13.732  10.234  11.518
 6157SOL    HW120304  13.756  10.327  11.525
 6157SOL    HW220305  13.771  10.193  11.595
 6158SOL     OW20306   0.576   4.022  12.669
 6158SOL    HW120307   0.561   4.115  12.653
 6158SOL    HW220308   0.620   4.019  12.754
 6159SOL     OW20309   0.090  10.557   3.805
 6159SOL    HW120310   0.169  10.599   3.770
 6159SOL    HW220311   0.111  10.464   3.808
 6160SOL     OW20312   2.838   4.544   7.717
 6160SOL    HW120313   2.750   4.557   7.682
 6160SOL    HW220314   2.895   4.593   7.658
 6161SOL     OW20315  12.043   9.442  11.163
 6161SOL    HW120316  12.092   9.367  11.198
 6161SOL    HW220317  11.978   9.403  11.104
 6162SOL     OW20318   8.768   4.440   9.940
 6162SOL    HW120319   8.708   4.422   9.867
 6162SOL    HW220320   8.822   4.512   9.908
 6163SOL     OW20321   4.330   1.566  13.339
 6163SOL    HW120322   4.257   1.521  13.296
 6163SOL    HW220323   4.379   1.496  13.383
 6164SOL     OW20324  12.975  13.019   8.001
 6164SOL    HW120325  13.003  12.968   8.078
 6164SOL    HW220326  12.919  13.087   8.037
 6165SOL     OW20327   9.737  12.283   8.489
 6165SOL    HW120328   9.742  12.378   8.476
 6165SOL    HW220329   9.681  12.252   8.418
 6166SOL     OW20330   9.822   9.943  14.112
 6166SOL    HW120331   9.844  10.028  14.150
 6166SOL    HW220332   9.897   9.921  14.056
 6167SOL     OW20333   8.625   9.551   8.923
 6167SOL    HW120334   8.636   9.600   8.841
 6167SOL    HW220335   8.539   9.508   8.913
 6168SOL     OW20336  10.542   1.133   6.584
 6168SOL    HW120337  10.622   1.159   6.629
 6168SOL    HW220338  10.561   1.145   6.491
 6169SOL     OW20339   4.175   4.117  12.196
 6169SOL    HW120340   4.113   4.117  12.268
 6169SOL    HW220341   4.210   4.206  12.195
 6170SOL     OW20342   3.079   7.590  12.963
 6170SOL    HW120343   3.032   7.655  12.911
 6170SOL    HW220344   3.161   7.632  12.986
 6171SOL     OW20345   1.585   0.259  13.214
 6171SOL    HW120346   1.646   0.333  13.209
 6171SOL    HW220347   1.640   0.181  13.209
 6172SOL     OW20348  11.636  13.300  10.719
 6172SOL    HW120349  11.662  13.224  10.667
 6172SOL    HW220350  11.716  13.329  10.762
 6173SOL     OW20351   9.633   1.869   1.865
 6173SOL    HW120352   9.678   1.819   1.797
 6173SOL    HW220353   9.703   1.910   1.915
 6174SOL     OW20354   3.391   1.259   7.571
 6174SOL    HW120355   3.338   1.262   7.650
 6174SOL    HW220356   3.436   1.175   7.574
 6175SOL     OW20357   0.966   4.108   7.736
 6175SOL    HW120358   1.008   4.061   7.808
 6175SOL    HW220359   0.928   4.040   7.681
 6176SOL     OW20360  10.618  10.952  12.019
 6176SOL    HW120361  10.617  11.017  11.949
 6176SOL    HW220362  10.529  10.953  12.054
 6177SOL     OW20363  13.376  11.969   8.933
 6177SOL    HW120364  13.403  12.060   8.939
 6177SOL    HW220365  13.282  11.970   8.955
 6178SOL     OW20366  10.470   0.829  13.918
 6178SOL    HW120367  10.445   0.757  13.861
 6178SOL    HW220368  10.468   0.793  14.006
 6179SOL     OW20369   7.166   5.528  13.812
 6179SOL    HW120370   7.133   5.439  13.824
 6179SOL    HW220371   7.160   5.543  13.718
 6180SOL     OW20372   2.124   1.491   5.212
 6180SOL    HW120373   2.155   1.537   5.290
 6180SOL    HW220374   2.195   1.498   5.149
 6181SOL     OW20375   6.870   5.476   7.847
 6181SOL    HW120376   6.903   5.556   7.888
 6181SOL    HW220377   6.898   5.405   7.906
 6182SOL     OW20378   5.596  12.363   7.317
 6182SOL    HW120379   5.650  12.379   7.394
 6182SOL    HW220380   5.506  12.370   7.350
 6183SOL     OW20381   0.170  12.692   3.437
 6183SOL    HW120382   0.193  12.779   3.470
 6183SOL    HW220383   0.166  12.703   3.342
 6184SOL     OW20384   5.494   2.785  12.558
 6184SOL    HW120385   5.484   2.720  12.628
 6184SOL    HW220386   5.577   2.827  12.576
 6185SOL     OW20387  13.103   5.596   9.348
 6185SOL    HW120388  13.106   5.566   9.439
 6185SOL    HW220389  13.134   5.687   9.352
 6186SOL     OW20390   8.170   7.877   5.242
 6186SOL    HW120391   8.224   7.943   5.201
 6186SOL    HW220392   8.104   7.854   5.176
 6187SOL     OW20393  13.679   5.677  11.258
 6187SOL    HW120394  13.684   5.771  11.272
 6187SOL    HW220395  13.597   5.664  11.211
 6188SOL     OW20396   6.048   4.091   1.268
 6188SOL    HW120397   6.041   4.024   1.201
 6188SOL    HW220398   6.057   4.042   1.350
 6189SOL     OW20399   8.469   1.790   7.567
 6189SOL    HW120400   8.451   1.797   7.660
 6189SOL    HW220401   8.410   1.853   7.526
 6190SOL     OW20402  10.380   7.765   6.308
 6190SOL    HW120403  10.319   7.839   6.313
 6190SOL    HW220404  10.324   7.689   6.291
 6191SOL     OW20405   2.703   3.910   2.760
 6191SOL    HW120406   2.747   3.914   2.845
 6191SOL    HW220407   2.713   3.998   2.723
 6192SOL     OW20408   0.405   7.474  13.574
 6192SOL    HW120409   0.316   7.442  13.588
 6192SOL    HW220410   0.461   7.399  13.594
 6193SOL     OW20411  13.144   3.556  12.195
 6193SOL    HW120412  13.137   3.649  12.176
 6193SOL    HW220413  13.188   3.552  12.280
 6194SOL     OW20414   6.120   2.194   7.117
 6194SOL    HW120415   6.052   2.168   7.055
 6194SOL    HW220416   6.193   2.134   7.098
 6195SOL     OW20417  12.994   1.193  14.645
 6195SOL    HW120418  12.954   1.278  14.663
 6195SOL    HW220419  12.958   1.134  14.711
 6196SOL     OW20420   8.831   3.504   8.222
 6196SOL    HW120421   8.850   3.416   8.255
 6196SOL    HW220422   8.900   3.558   8.260
 6197SOL     OW20423  13.904   0.675   1.801
 6197SOL    HW120424  13.966   0.745   1.781
 6197SOL    HW220425  13.914   0.659   1.894
 6198SOL     OW20426  13.000  12.949   0.400
 6198SOL    HW120427  13.069  12.906   0.350
 6198SOL    HW220428  12.949  12.997   0.335
 6199SOL     OW20429   3.540   1.082   5.053
 6199SOL    HW120430   3.636   1.087   5.054
 6199SOL    HW220431   3.512   1.144   5.120
 6200SOL     OW20432   6.237   6.541   8.043
 6200SOL    HW120433   6.195   6.456   8.041
 6200SOL    HW220434   6.237   6.566   8.135
 6201SOL     OW20435  14.866   9.738  11.409
 6201SOL    HW120436   0.014   9.649  11.430
 6201SOL    HW220437   0.052   9.794  11.451
 6202SOL     OW20438  11.393  13.653   3.244
 6202SOL    HW120439  11.302  13.665   3.219
 6202SOL    HW220440  11.412  13.728   3.301
 6203SOL     OW20441  14.667  14.396   0.743
 6203SOL    HW120442  14.651  14.357   0.829
 6203SOL    HW220443  14.750  14.359   0.715
 6204SOL     OW20444   0.407   1.484   5.643
 6204SOL    HW120445   0.400   1.411   5.581
 6204SOL    HW220446   0.475   1.457   5.705
 6205SOL     OW20447   6.396   8.540   2.588
 6205SOL    HW120448   6.347   8.508   2.663
 6205SOL    HW220449   6.331   8.580   2.531
 6206SOL     OW20450   5.189   1.579  13.766
 6206SOL    HW120451   5.226   1.494  13.790
 6206SOL    HW220452   5.265   1.635  13.751
 6207SOL     OW20453   8.941   7.674   3.820
 6207SOL    HW120454   8.972   7.755   3.779
 6207SOL    HW220455   8.992   7.604   3.778
 6208SOL     OW20456   8.375   8.316   5.139
 6208SOL    HW120457   8.342   8.401   5.108
 6208SOL    HW220458   8.315   8.292   5.210
 6209SOL     OW20459  13.427  13.359   8.166
 6209SOL    HW120460  13.444  13.311   8.085
 6209SOL    HW220461  13.513  13.374   8.204
 6210SOL     OW20462   9.368   1.288   1.749
 6210SOL    HW120463   9.349   1.376   1.780
 6210SOL    HW220464   9.302   1.270   1.683
 6211SOL     OW20465  10.940   9.822   0.587
 6211SOL    HW120466  10.940   9.733   0.550
 6211SOL    HW220467  10.847   9.842   0.599
 6212SOL     OW20468   9.236   8.921   6.446
 6212SOL    HW120469   9.146   8.947   6.466
 6212SOL    HW220470   9.289   8.976   6.504
 6213SOL     OW20471   8.372   9.480  14.461
 6213SOL    HW120472   8.450   9.533  14.447
 6213SOL    HW220473   8.392   9.397  14.417
 6214SOL     OW20474  12.747   9.327   6.951
 6214SOL    HW120475  12.780   9.241   6.927
 6214SOL    HW220476  12.653   9.315   6.964
 6215SOL     OW20477  12.245   2.383   3.406
 6215SOL    HW120478  12.250   2.301   3.456
 6215SOL    HW220479  12.193   2.441   3.462
 6216SOL     OW20480   4.819   5.692   8.431
 6216SOL    HW120481   4.784   5.779   8.450
 6216SOL    HW220482   4.742   5.635   8.426
 6217SOL     OW20483   4.567   7.088   0.565
 6217SOL    HW120484   4.488   7.094   0.618
 6217SOL    HW220485   4.564   7.165   0.507
 6218SOL     OW20486   3.838  13.056  13.530
 6218SOL    HW120487   3.908  13.087  13.587
 6218SOL    HW220488   3.804  13.135  13.489
 6219SOL     OW20489   6.536  14.812   1.761
 6219SOL    HW120490   6.445  14.824   1.737
 6219SOL    HW220491   6.533  14.762   1.842
 6220SOL     OW20492   2.503   8.890   2.206
 6220SOL    HW120493   2.575   8.860   2.150
 6220SOL    HW220494   2.532   8.976   2.237
 6221SOL     OW20495   1.639   2.760   6.691
 6221SOL    HW120496   1.629   2.789   6.782
 6221SOL    HW220497   1.589   2.678   6.687
 6222SOL     OW20498   8.646  14.262   4.306
 6222SOL    HW120499   8.707  14.226   4.371
 6222SOL    HW220500   8.619  14.347   4.342
 6223SOL     OW20501  13.668  12.225   6.197
 6223SOL    HW120502  13.649  12.259   6.284
 6223SOL    HW220503  13.620  12.282   6.137
 6224SOL     OW20504  10.005  12.222   5.663
 6224SOL    HW120505  10.086  12.273   5.669
 6224SOL    HW220506   9.935  12.286   5.674
 6225SOL     OW20507   2.954  14.547   4.655
 6225SOL    HW120508   3.039  14.510   4.630
 6225SOL    HW220509   2.971  14.641   4.665
 6226SOL     OW20510   0.633   5.536  14.078
 6226SOL    HW120511   0.538   5.543  14.080
 6226SOL    HW220512   0.653   5.465  14.139
 6227SOL     OW20513   7.576   1.512   2.535
 6227SOL    HW120514   7.619   1.428   2.549
 6227SOL    HW220515   7.626   1.553   2.464
 6228SOL     OW20516   1.548   9.243   1.911
 6228SOL    HW120517   1.508   9.314   1.862
 6228SOL    HW220518   1.494   9.166   1.889
 6229SOL     OW20519   0.622   3.707   0.250
 6229SOL    HW120520   0.687   3.777   0.236
 6229SOL    HW220521   0.579   3.731   0.332
 6230SOL     OW20522   3.944   5.280   9.618
 6230SOL    HW120523   3.904   5.367   9.627
 6230SOL    HW220524   4.005   5.275   9.692
 6231SOL     OW20525  14.400   8.954   9.177
 6231SOL    HW120526  14.359   8.899   9.110
 6231SOL    HW220527  14.357   9.039   9.168
 6232SOL     OW20528   5.928   3.537   9.209
 6232SOL    HW120529   5.930   3.450   9.171
 6232SOL    HW220530   5.839   3.547   9.241
 6233SOL     OW20531   4.576   7.487   3.806
 6233SOL    HW120532   4.533   7.402   3.812
 6233SOL    HW220533   4.555   7.531   3.888
 6234SOL     OW20534  14.644  14.295  10.080
 6234SOL    HW120535  14.612  14.347  10.154
 6234SOL    HW220536  14.671  14.212  10.119
 6235SOL     OW20537   4.432   6.601  11.824
 6235SOL    HW120538   4.522   6.618  11.795
 6235SOL    HW220539   4.416   6.510  11.798
 6236SOL     OW20540  14.408   9.901  14.055
 6236SOL    HW120541  14.464   9.975  14.079
 6236SOL    HW220542  14.359   9.931  13.979
 6237SOL     OW20543  14.187  11.974   9.319
 6237SOL    HW120544  14.185  12.002   9.410
 6237SOL    HW220545  14.125  11.901   9.315
 6238SOL     OW20546  12.646  11.228  11.728
 6238SOL    HW120547  12.635  11.192  11.640
 6238SOL    HW220548  12.661  11.321  11.715
 6239SOL     OW20549   8.550  10.617   4.040
 6239SOL    HW120550   8.593  10.677   3.978
 6239SOL    HW220551   8.594  10.533   4.027
 6240SOL     OW20552  10.456   1.625   4.723
 6240SOL    HW120553  10.388   1.615   4.790
 6240SOL    HW220554  10.523   1.561   4.748
 6241SOL     OW20555  12.814   8.844   8.299
 6241SOL    HW120556  12.880   8.779   8.273
 6241SOL    HW220557  12.855   8.893   8.370
 6242SOL     OW20558   1.850   1.898   4.364
 6242SOL    HW120559   1.871   1.991   4.358
 6242SOL    HW220560   1.758   1.896   4.390
 6243SOL     OW20561   4.589   2.593   3.294
 6243SOL    HW120562   4.520   2.527   3.298
 6243SOL    HW220563   4.544   2.675   3.315
 6244SOL     OW20564  10.767   6.545   6.130
 6244SOL    HW120565  10.825   6.470   6.114
 6244SOL    HW220566  10.787   6.571   6.220
 6245SOL     OW20567  13.694  13.453   4.806
 6245SOL    HW120568  13.629  13.512   4.767
 6245SOL    HW220569  13.681  13.370   4.760
 6246SOL     OW20570  14.727  13.784   5.969
 6246SOL    HW120571  14.698  13.811   6.056
 6246SOL    HW220572  14.821  13.768   5.979
 6247SOL     OW20573  14.134   7.119   9.882
 6247SOL    HW120574  14.154   7.114   9.975
 6247SOL    HW220575  14.055   7.174   9.878
 6248SOL     OW20576   8.258   8.288   8.741
 6248SOL    HW120577   8.333   8.244   8.700
 6248SOL    HW220578   8.216   8.336   8.670
 6249SOL     OW20579  12.731  11.160   6.245
 6249SOL    HW120580  12.731  11.128   6.154
 6249SOL    HW220581  12.654  11.217   6.249
 6250SOL     OW20582   6.394   4.634   2.851
 6250SOL    HW120583   6.308   4.628   2.892
 6250SOL    HW220584   6.385   4.702   2.784
 6251SOL     OW20585  10.530   3.762  13.622
 6251SOL    HW120586  10.501   3.829  13.685
 6251SOL    HW220587  10.612   3.729  13.658
 6252SOL     OW20588   5.137   6.884   9.444
 6252SOL    HW120589   5.178   6.960   9.486
 6252SOL    HW220590   5.107   6.829   9.516
 6253SOL     OW20591   2.518   5.773   4.218
 6253SOL    HW120592   2.588   5.816   4.266
 6253SOL    HW220593   2.527   5.680   4.240
 6254SOL     OW20594   2.509   2.398   2.958
 6254SOL    HW120595   2.555   2.415   3.041
 6254SOL    HW220596   2.518   2.479   2.908
 6255SOL     OW20597   0.433  12.139   5.164
 6255SOL    HW120598   0.372  12.213   5.166
 6255SOL    HW220599   0.436  12.113   5.072
 6256SOL     OW20600   4.827   5.732   3.659
 6256SOL    HW120601   4.743   5.725   3.705
 6256SOL    HW220602   4.851   5.642   3.638
 6257SOL     OW20603   2.545   1.415  12.153
 6257SOL    HW120604   2.606   1.464  12.208
 6257SOL    HW220605   2.459   1.452  12.175
 6258SOL     OW20606  12.265   1.570  14.868
 6258SOL    HW120607  12.178   1.589   0.023
 6258SOL    HW220608  12.287   1.646  14.813
 6259SOL     OW20609   1.282   4.472  10.205
 6259SOL    HW120610   1.317   4.434  10.286
 6259SOL    HW220611   1.274   4.566  10.225
 6260SOL     OW20612   3.390   1.171   9.190
 6260SOL    HW120613   3.466   1.169   9.132
 6260SOL    HW220614   3.425   1.145   9.276
 6261SOL     OW20615   2.292  14.439   4.289
 6261SOL    HW120616   2.206  14.430   4.330
 6261SOL    HW220617   2.350  14.464   4.360
 6262SOL     OW20618   0.980  12.393   0.746
 6262SOL    HW120619   0.992  12.418   0.654
 6262SOL    HW220620   1.017  12.467   0.795
 6263SOL     OW20621   4.907   3.692  12.353
 6263SOL    HW120622   4.968   3.621  12.373
 6263SOL    HW220623   4.898   3.691  12.258
 6264SOL     OW20624   7.257  11.547   2.360
 6264SOL    HW120625   7.286  11.471   2.309
 6264SOL    HW220626   7.310  11.545   2.440
 6265SOL     OW20627   7.398   6.264   1.618
 6265SOL    HW120628   7.357   6.193   1.569
 6265SOL    HW220629   7.435   6.222   1.695
 6266SOL     OW20630   4.798   4.780  12.710
 6266SOL    HW120631   4.851   4.798  12.633
 6266SOL    HW220632   4.806   4.858  12.764
 6267SOL     OW20633   3.412  10.073  10.896
 6267SOL    HW120634   3.493  10.044  10.937
 6267SOL    HW220635   3.360  10.110  10.967
 6268SOL     OW20636   5.505   1.025  13.508
 6268SOL    HW120637   5.558   1.071  13.573
 6268SOL    HW220638   5.505   0.934  13.536
 6269SOL     OW20639  14.877   3.902   6.830
 6269SOL    HW120640   0.065   3.843   6.864
 6269SOL    HW220641   0.020   3.988   6.868
 6270SOL     OW20642   0.580   4.584  12.280
 6270SOL    HW120643   0.654   4.569  12.223
 6270SOL    HW220644   0.508   4.534  12.242
 6271SOL     OW20645  11.475   0.966   2.433
 6271SOL    HW120646  11.531   0.904   2.386
 6271SOL    HW220647  11.388   0.953   2.395
 6272SOL     OW20648  13.800   6.323   5.289
 6272SOL    HW120649  13.741   6.259   5.331
 6272SOL    HW220650  13.859   6.270   5.237
 6273SOL     OW20651   1.867  14.606   1.789
 6273SOL    HW120652   1.877  14.665   1.864
 6273SOL    HW220653   1.917  14.649   1.719
 6274SOL     OW20654   7.271  10.706   5.988
 6274SOL    HW120655   7.252  10.628   6.041
 6274SOL    HW220656   7.315  10.672   5.910
 6275SOL     OW20657  10.239   9.428  12.823
 6275SOL    HW120658  10.247   9.523  12.835
 6275SOL    HW220659  10.224   9.418  12.729
 6276SOL     OW20660   0.715   0.091   1.044
 6276SOL    HW120661   0.686   0.081   1.135
 6276SOL    HW220662   0.663   0.026   0.996
 6277SOL     OW20663   3.366   5.333  10.821
 6277SOL    HW120664   3.418   5.255  10.842
 6277SOL    HW220665   3.382   5.349  10.728
 6278SOL     OW20666   1.763   4.888   9.099
 6278SOL    HW120667   1.802   4.810   9.139
 6278SOL    HW220668   1.796   4.887   9.009
 6279SOL     OW20669   2.634   0.837   9.840
 6279SOL    HW120670   2.729   0.843   9.846
 6279SOL    HW220671   2.615   0.845   9.747
 6280SOL     OW20672   8.074   8.185  12.053
 6280SOL    HW120673   8.042   8.136  11.977
 6280SOL    HW220674   8.165   8.158  12.063
 6281SOL     OW20675   2.635   6.151  10.138
 6281SOL    HW120676   2.612   6.120  10.050
 6281SOL    HW220677   2.731   6.150  10.140
 6282SOL     OW20678   3.481  13.464  11.996
 6282SOL    HW120679   3.396  13.434  12.031
 6282SOL    HW220680   3.458  13.514  11.918
 6283SOL     OW20681  14.692   5.823   2.875
 6283SOL    HW120682  14.697   5.907   2.829
 6283SOL    HW220683  14.606   5.789   2.852
 6284SOL     OW20684  12.836   2.419  11.950
 6284SOL    HW120685  12.886   2.362  12.009
 6284SOL    HW220686  12.750   2.427  11.991
 6285SOL     OW20687   1.181  13.953   3.411
 6285SOL    HW120688   1.203  14.024   3.351
 6285SOL    HW220689   1.113  13.904   3.366
 6286SOL     OW20690  13.281   4.742   8.594
 6286SOL    HW120691  13.376   4.731   8.593
 6286SOL    HW220692  13.264   4.816   8.536
 6287SOL     OW20693   8.145   4.442   2.078
 6287SOL    HW120694   8.198   4.516   2.048
 6287SOL    HW220695   8.169   4.431   2.170
 6288SOL     OW20696   7.549   9.172   1.158
 6288SOL    HW120697   7.527   9.106   1.223
 6288SOL    HW220698   7.544   9.126   1.074
 6289SOL     OW20699   7.004   2.454   7.984
 6289SOL    HW120700   6.954   2.383   7.944
 6289SOL    HW220701   7.059   2.410   8.049
 6290SOL     OW20702   2.805  13.610  10.099
 6290SOL    HW120703   2.802  13.537  10.160
 6290SOL    HW220704   2.816  13.687  10.154
 6291SOL     OW20705  12.595   8.403   9.691
 6291SOL    HW120706  12.551   8.321   9.714
 6291SOL    HW220707  12.526   8.459   9.657
 6292SOL     OW20708   7.913   1.674   8.587
 6292SOL    HW120709   7.968   1.639   8.657
 6292SOL    HW220710   7.965   1.662   8.508
 6293SOL     OW20711   5.811   8.191   0.245
 6293SOL    HW120712   5.876   8.261   0.238
 6293SOL    HW220713   5.728   8.232   0.219
 6294SOL     OW20714  11.214   9.622  13.756
 6294SOL    HW120715  11.273   9.690  13.789
 6294SOL    HW220716  11.199   9.647  13.665
 6295SOL     OW20717  12.577  10.751  12.455
 6295SOL    HW120718  12.548  10.681  12.398
 6295SOL    HW220719  12.538  10.830  12.418
 6296SOL     OW20720  12.397   3.110   1.015
 6296SOL    HW120721  12.449   3.191   1.014
 6296SOL    HW220722  12.309   3.139   0.989
 6297SOL     OW20723   9.487   8.237   7.753
 6297SOL    HW120724   9.476   8.199   7.840
 6297SOL    HW220725   9.403   8.280   7.735
 6298SOL     OW20726  14.757   8.743   3.128
 6298SOL    HW120727  14.771   8.796   3.049
 6298SOL    HW220728  14.662   8.739   3.138
 6299SOL     OW20729   1.938  10.898   7.014
 6299SOL    HW120730   2.000  10.828   6.995
 6299SOL    HW220731   1.912  10.932   6.928
 6300SOL     OW20732   8.656   8.915  10.253
 6300SOL    HW120733   8.592   8.961  10.198
 6300SOL    HW220734   8.611   8.902  10.337
 6301SOL     OW20735   5.494  10.136   6.763
 6301SOL    HW120736   5.508  10.159   6.855
 6301SOL    HW220737   5.432  10.203   6.731
 6302SOL     OW20738   9.877   8.828  12.502
 6302SOL    HW120739   9.847   8.897  12.561
 6302SOL    HW220740   9.972   8.828  12.511
 6303SOL     OW20741  10.340   2.104   2.673
 6303SOL    HW120742  10.260   2.064   2.707
 6303SOL    HW220743  10.343   2.190   2.715
 6304SOL     OW20744  14.004   8.658   0.489
 6304SOL    HW120745  13.963   8.664   0.576
 6304SOL    HW220746  13.947   8.711   0.433
 6305SOL     OW20747   3.460   5.440  14.369
 6305SOL    HW120748   3.552   5.423  14.389
 6305SOL    HW220749   3.460   5.526  14.328
 6306SOL     OW20750   2.341   8.098   5.612
 6306SOL    HW120751   2.280   8.141   5.672
 6306SOL    HW220752   2.411   8.064   5.669
 6307SOL     OW20753   7.661  11.610  12.561
 6307SOL    HW120754   7.575  11.570  12.553
 6307SOL    HW220755   7.718  11.539  12.589
 6308SOL     OW20756   5.387   7.851  10.521
 6308SOL    HW120757   5.365   7.930  10.571
 6308SOL    HW220758   5.478   7.864  10.496
 6309SOL     OW20759   8.551  14.344   0.790
 6309SOL    HW120760   8.552  14.383   0.878
 6309SOL    HW220761   8.612  14.398   0.739
 6310SOL     OW20762   4.861  10.058   5.146
 6310SOL    HW120763   4.918  10.019   5.213
 6310SOL    HW220764   4.921  10.086   5.077
 6311SOL     OW20765   6.028   8.672   1.352
 6311SOL    HW120766   6.025   8.739   1.420
 6311SOL    HW220767   5.943   8.628   1.359
 6312SOL     OW20768   9.262   2.303  11.833
 6312SOL    HW120769   9.262   2.388  11.789
 6312SOL    HW220770   9.170   2.278  11.837
 6313SOL     OW20771   0.427   3.551  14.297
 6313SOL    HW120772   0.418   3.466  14.339
 6313SOL    HW220773   0.455   3.531  14.208
 6314SOL     OW20774   9.161  10.151  13.582
 6314SOL    HW120775   9.116  10.132  13.665
 6314SOL    HW220776   9.121  10.091  13.519
 6315SOL     OW20777   6.054  13.489  14.724
 6315SOL    HW120778   6.076  13.406  14.682
 6315SOL    HW220779   6.133  13.543  14.714
 6316SOL     OW20780   3.657   1.608   3.357
 6316SOL    HW120781   3.633   1.530   3.307
 6316SOL    HW220782   3.751   1.599   3.373
 6317SOL     OW20783   8.003   3.989   5.535
 6317SOL    HW120784   8.018   4.053   5.605
 6317SOL    HW220785   8.077   3.929   5.542
 6318SOL     OW20786   5.068   9.922  10.862
 6318SOL    HW120787   5.109   9.962  10.938
 6318SOL    HW220788   5.123   9.846  10.842
 6319SOL     OW20789   1.284   8.755   0.975
 6319SOL    HW120790   1.198   8.756   1.019
 6319SOL    HW220791   1.309   8.847   0.971
 6320SOL     OW20792  14.253   7.572   5.116
 6320SOL    HW120793  14.186   7.506   5.100
 6320SOL    HW220794  14.320   7.526   5.168
 6321SOL     OW20795   3.936   8.542   3.022
 6321SOL    HW120796   3.963   8.547   2.930
 6321SOL    HW220797   3.977   8.462   3.054
 6322SOL     OW20798  12.264  11.471  12.384
 6322SOL    HW120799  12.174  11.478  12.352
 6322SOL    HW220800  12.318  11.471  12.304
 6323SOL     OW20801   0.009   2.767  13.216
 6323SOL    HW120802   0.069   2.731  13.150
 6323SOL    HW220803   0.039   2.857  13.230
 6324SOL     OW20804  13.065   5.951   7.175
 6324SOL    HW120805  13.016   5.986   7.100
 6324SOL    HW220806  13.149   5.997   7.173
 6325SOL     OW20807   4.775   6.254  12.137
 6325SOL    HW120808   4.731   6.210  12.210
 6325SOL    HW220809   4.705   6.299  12.090
 6326SOL     OW20810  12.524   1.687   4.581
 6326SOL    HW120811  12.481   1.768   4.610
 6326SOL    HW220812  12.520   1.691   4.486
 6327SOL     OW20813   0.456   9.289   7.748
 6327SOL    HW120814   0.381   9.320   7.800
 6327SOL    HW220815   0.432   9.310   7.657
 6328SOL     OW20816  12.722  13.465   0.747
 6328SOL    HW120817  12.727  13.560   0.749
 6328SOL    HW220818  12.805  13.436   0.785
 6329SOL     OW20819   8.482   3.632  14.331
 6329SOL    HW120820   8.568   3.624  14.372
 6329SOL    HW220821   8.479   3.561  14.267
 6330SOL     OW20822  14.350  12.049   8.577
 6330SOL    HW120823  14.318  11.980   8.635
 6330SOL    HW220824  14.308  12.129   8.609
 6331SOL     OW20825  12.244   4.459   3.705
 6331SOL    HW120826  12.191   4.381   3.719
 6331SOL    HW220827  12.328   4.425   3.672
 6332SOL     OW20828   5.150  14.410   2.560
 6332SOL    HW120829   5.114  14.351   2.494
 6332SOL    HW220830   5.190  14.352   2.624
 6333SOL     OW20831   5.320   6.586   5.230
 6333SOL    HW120832   5.394   6.527   5.244
 6333SOL    HW220833   5.360   6.670   5.211
 6334SOL     OW20834   7.909   2.496   6.964
 6334SOL    HW120835   7.826   2.455   6.940
 6334SOL    HW220836   7.975   2.445   6.917
 6335SOL     OW20837  10.814  13.182  14.673
 6335SOL    HW120838  10.873  13.132  14.729
 6335SOL    HW220839  10.820  13.272  14.707
 6336SOL     OW20840   8.854   2.888  10.533
 6336SOL    HW120841   8.913   2.957  10.563
 6336SOL    HW220842   8.900   2.806  10.553
 6337SOL     OW20843   7.058   2.658   1.113
 6337SOL    HW120844   7.076   2.730   1.173
 6337SOL    HW220845   7.114   2.587   1.143
 6338SOL     OW20846   3.086   1.384  12.953
 6338SOL    HW120847   3.167   1.411  12.911
 6338SOL    HW220848   3.034   1.464  12.960
 6339SOL     OW20849   4.902   6.494   5.727
 6339SOL    HW120850   4.884   6.402   5.706
 6339SOL    HW220851   4.826   6.542   5.692
 6340SOL     OW20852  13.313   5.575   7.268
 6340SOL    HW120853  13.371   5.642   7.230
 6340SOL    HW220854  13.365   5.495   7.265
 6341SOL     OW20855   7.066  12.758  13.383
 6341SOL    HW120856   6.998  12.826  13.383
 6341SOL    HW220857   7.136  12.795  13.438
 6342SOL     OW20858  14.601  10.015  13.411
 6342SOL    HW120859  14.516  10.000  13.452
 6342SOL    HW220860  14.660   9.954  13.455
 6343SOL     OW20861   0.935   2.043   6.302
 6343SOL    HW120862   1.015   2.020   6.255
 6343SOL    HW220863   0.925   2.137   6.288
 6344SOL     OW20864  14.622   0.785  14.365
 6344SOL    HW120865  14.707   0.812  14.331
 6344SOL    HW220866  14.569   0.769  14.287
 6345SOL     OW20867  13.658   1.718  11.989
 6345SOL    HW120868  13.723   1.707  11.919
 6345SOL    HW220869  13.703   1.689  12.068
 6346SOL     OW20870   8.982   8.634  12.994
 6346SOL    HW120871   8.987   8.549  13.039
 6346SOL    HW220872   9.071   8.670  13.001
 6347SOL     OW20873   8.743   4.609   4.584
 6347SOL    HW120874   8.677   4.662   4.628
 6347SOL    HW220875   8.820   4.614   4.641
 6348SOL     OW20876  13.010   6.412   5.182
 6348SOL    HW120877  13.086   6.467   5.204
 6348SOL    HW220878  12.971   6.390   5.267
 6349SOL     OW20879   3.180   2.841   1.698
 6349SOL    HW120880   3.266   2.798   1.702
 6349SOL    HW220881   3.200   2.934   1.713
 6350SOL     OW20882  13.363   8.074   5.596
 6350SOL    HW120883  13.363   8.166   5.624
 6350SOL    HW220884  13.454   8.057   5.571
 6351SOL     OW20885  13.678   5.138  10.316
 6351SOL    HW120886  13.692   5.052  10.277
 6351SOL    HW220887  13.763   5.181  10.313
 6352SOL     OW20888   4.552   0.909  10.043
 6352SOL    HW120889   4.560   0.861  10.125
 6352SOL    HW220890   4.478   0.968  10.057
 6353SOL     OW20891   4.082   7.234   6.884
 6353SOL    HW120892   4.127   7.312   6.916
 6353SOL    HW220893   4.012   7.269   6.828
 6354SOL     OW20894  10.969   3.762  13.087
 6354SOL    HW120895  10.875   3.745  13.100
 6354SOL    HW220896  10.998   3.796  13.172
 6355SOL     OW20897   8.659   6.110   1.944
 6355SOL    HW120898   8.752   6.093   1.957
 6355SOL    HW220899   8.623   6.116   2.033
 6356SOL     OW20900   6.104  12.970   3.249
 6356SOL    HW120901   6.072  12.888   3.212
 6356SOL    HW220902   6.095  12.959   3.344
 6357SOL     OW20903  11.463  14.053  13.746
 6357SOL    HW120904  11.467  14.105  13.825
 6357SOL    HW220905  11.371  14.058  13.719
 6358SOL     OW20906   8.525  12.670  10.799
 6358SOL    HW120907   8.536  12.668  10.704
 6358SOL    HW220908   8.603  12.628  10.834
 6359SOL     OW20909   1.229   3.813  14.529
 6359SOL    HW120910   1.250   3.906  14.534
 6359SOL    HW220911   1.208   3.798  14.437
 6360SOL     OW20912  13.668   9.999   1.518
 6360SOL    HW120913  13.617  10.030   1.594
 6360SOL    HW220914  13.758  10.026   1.537
 6361SOL     OW20915   6.697  13.811   7.133
 6361SOL    HW120916   6.791  13.822   7.147
 6361SOL    HW220917   6.661  13.797   7.220
 6362SOL     OW20918   7.095   5.841  14.669
 6362SOL    HW120919   7.159   5.896  14.713
 6362SOL    HW220920   7.123   5.839  14.577
 6363SOL     OW20921   7.062   3.893   5.232
 6363SOL    HW120922   6.979   3.852   5.208
 6363SOL    HW220923   7.039   3.958   5.298
 6364SOL     OW20924   5.097  13.079  11.314
 6364SOL    HW120925   5.075  13.054  11.403
 6364SOL    HW220926   5.167  13.143  11.323
 6365SOL     OW20927  11.397  13.836  14.156
 6365SOL    HW120928  11.356  13.754  14.186
 6365SOL    HW220929  11.334  13.904  14.179
 6366SOL     OW20930  12.900   6.911   8.111
 6366SOL    HW120931  12.974   6.880   8.061
 6366SOL    HW220932  12.827   6.911   8.049
 6367SOL     OW20933   9.764   1.432   9.732
 6367SOL    HW120934   9.746   1.475   9.648
 6367SOL    HW220935   9.696   1.465   9.791
 6368SOL     OW20936   0.872   3.159   3.292
 6368SOL    HW120937   0.957   3.140   3.332
 6368SOL    HW220938   0.888   3.234   3.235
 6369SOL     OW20939   1.084   6.268  12.286
 6369SOL    HW120940   1.109   6.359  12.298
 6369SOL    HW220941   1.032   6.247  12.363
 6370SOL     OW20942  13.017   9.178  14.263
 6370SOL    HW120943  12.962   9.144  14.192
 6370SOL    HW220944  13.103   9.139  14.249
 6371SOL     OW20945   8.530  13.371   6.385
 6371SOL    HW120946   8.545  13.326   6.469
 6371SOL    HW220947   8.570  13.457   6.396
 6372SOL     OW20948   5.991  14.700   6.104
 6372SOL    HW120949   6.029  14.655   6.028
 6372SOL    HW220950   5.909  14.737   6.070
 6373SOL     OW20951   2.937   2.929  11.143
 6373SOL    HW120952   3.020   2.902  11.183
 6373SOL    HW220953   2.954   2.927  11.049
 6374SOL     OW20954   2.549  13.306  14.097
 6374SOL    HW120955   2.586  13.232  14.049
 6374SOL    HW220956   2.500  13.265  14.168
 6375SOL     OW20957  11.154  13.387   8.605
 6375SOL    HW120958  11.189  13.425   8.685
 6375SOL    HW220959  11.216  13.317   8.582
 6376SOL     OW20960   2.697   5.113  11.387
 6376SOL    HW120961   2.736   5.100  11.473
 6376SOL    HW220962   2.759   5.072  11.326
 6377SOL     OW20963   1.947   9.413   4.542
 6377SOL    HW120964   1.868   9.371   4.508
 6377SOL    HW220965   1.918   9.498   4.574
 6378SOL     OW20966   9.785   9.510   0.240
 6378SOL    HW120967   9.846   9.500   0.167
 6378SOL    HW220968   9.805   9.437   0.299
 6379SOL     OW20969   4.111   7.143  13.944
 6379SOL    HW120970   4.073   7.141  14.032
 6379SOL    HW220971   4.156   7.228  13.940
 6380SOL     OW20972   2.511   9.426   7.830
 6380SOL    HW120973   2.605   9.410   7.838
 6380SOL    HW220974   2.502   9.521   7.832
 6381SOL     OW20975   2.484  14.740   8.562
 6381SOL    HW120976   2.419  14.693   8.510
 6381SOL    HW220977   2.557  14.679   8.570
 6382SOL     OW20978  11.036   8.281   4.180
 6382SOL    HW120979  11.005   8.341   4.113
 6382SOL    HW220980  11.009   8.320   4.263
 6383SOL     OW20981   3.624   7.001   3.306
 6383SOL    HW120982   3.684   7.066   3.269
 6383SOL    HW220983   3.570   6.974   3.232
 6384SOL     OW20984   8.059  11.266   9.880
 6384SOL    HW120985   8.102  11.346   9.912
 6384SOL    HW220986   8.119  11.196   9.904
 6385SOL     OW20987   6.247   5.992   3.152
 6385SOL    HW120988   6.290   5.998   3.238
 6385SOL    HW220989   6.313   5.952   3.096
 6386SOL     OW20990  13.917   6.898  12.895
 6386SOL    HW120991  13.948   6.821  12.942
 6386SOL    HW220992  13.941   6.882  12.804
 6387SOL     OW20993   9.582  11.831  11.067
 6387SOL    HW120994   9.593  11.892  11.140
 6387SOL    HW220995   9.549  11.884  10.996
 6388SOL     OW20996   2.964   1.121   6.883
 6388SOL    HW120997   3.033   1.074   6.929
 6388SOL    HW220998   2.987   1.113   6.791
 6389SOL     OW20999  11.957   4.209   1.100
 6389SOL    HW121000  12.047   4.225   1.072
 6389SOL    HW221001  11.952   4.115   1.114
 6390SOL     OW21002  10.620   7.883   7.210
 6390SOL    HW121003  10.585   7.799   7.180
 6390SOL    HW221004  10.588   7.946   7.146
 6391SOL     OW21005  14.312  10.291  13.252
 6391SOL    HW121006  14.358  10.279  13.170
 6391SOL    HW221007  14.381  10.308  13.316
 6392SOL     OW21008  10.919   8.022   4.884
 6392SOL    HW121009  10.871   8.084   4.939
 6392SOL    HW221010  10.923   8.065   4.798
 6393SOL     OW21011   6.812  14.020  13.294
 6393SOL    HW121012   6.810  14.092  13.357
 6393SOL    HW221013   6.748  13.957  13.327
 6394SOL     OW21014  13.322   4.676  13.840
 6394SOL    HW121015  13.325   4.770  13.823
 6394SOL    HW221016  13.269   4.668  13.920
 6395SOL     OW21017  10.298   5.531  13.064
 6395SOL    HW121018  10.343   5.599  13.015
 6395SOL    HW221019  10.234   5.578  13.118
 6396SOL     OW21020   6.776  14.291  12.976
 6396SOL    HW121021   6.684  14.296  12.951
 6396SOL    HW221022   6.787  14.358  13.043
 6397SOL     OW21023   6.705   5.369   7.266
 6397SOL    HW121024   6.799   5.364   7.249
 6397SOL    HW221025   6.664   5.336   7.186
 6398SOL     OW21026  14.254   6.453   4.383
 6398SOL    HW121027  14.262   6.481   4.475
 6398SOL    HW221028  14.292   6.525   4.333
 6399SOL     OW21029   7.178   4.643  11.143
 6399SOL    HW121030   7.178   4.739  11.142
 6399SOL    HW221031   7.218   4.618  11.060
 6400SOL     OW21032  11.064  13.265   2.204
 6400SOL    HW121033  11.047  13.341   2.148
 6400SOL    HW221034  11.085  13.194   2.144
 6401SOL     OW21035  10.792   7.844   1.683
 6401SOL    HW121036  10.723   7.903   1.714
 6401SOL    HW221037  10.751   7.758   1.685
 6402SOL     OW21038   0.888  14.778   9.244
 6402SOL    HW121039   0.920  14.857   9.288
 6402SOL    HW221040   0.793  14.788   9.242
 6403SOL     OW21041   8.941  13.369  12.729
 6403SOL    HW121042   8.993  13.443  12.696
 6403SOL    HW221043   8.902  13.401  12.810
 6404SOL     OW21044   4.059  11.477   0.309
 6404SOL    HW121045   4.005  11.468   0.230
 6404SOL    HW221046   4.017  11.547   0.359
 6405SOL     OW21047   1.287  13.695   0.244
 6405SOL    HW121048   1.272  13.784   0.210
 6405SOL    HW221049   1.309  13.709   0.336
 6406SOL     OW21050   7.962   6.985  13.315
 6406SOL    HW121051   8.037   7.028  13.356
 6406SOL    HW221052   7.994   6.957  13.230
 6407SOL     OW21053  11.950   8.902   6.507
 6407SOL    HW121054  11.997   8.841   6.450
 6407SOL    HW221055  11.991   8.987   6.490
 6408SOL     OW21056  11.938  13.387  14.162
 6408SOL    HW121057  11.938  13.298  14.195
 6408SOL    HW221058  11.979  13.439  14.231
 6409SOL     OW21059  11.006   8.776   6.536
 6409SOL    HW121060  11.047   8.690   6.550
 6409SOL    HW221061  11.079   8.833   6.511
 6410SOL     OW21062   0.353   2.698   1.056
 6410SOL    HW121063   0.342   2.787   1.023
 6410SOL    HW221064   0.447   2.691   1.076
 6411SOL     OW21065  11.057   4.362   8.257
 6411SOL    HW121066  11.042   4.335   8.348
 6411SOL    HW221067  10.990   4.428   8.241
 6412SOL     OW21068  11.502   4.031   9.660
 6412SOL    HW121069  11.581   3.995   9.618
 6412SOL    HW221070  11.430   3.989   9.613
 6413SOL     OW21071   4.524  12.647  12.898
 6413SOL    HW121072   4.484  12.566  12.865
 6413SOL    HW221073   4.495  12.714  12.837
 6414SOL     OW21074  14.344  11.356  10.004
 6414SOL    HW121075  14.438  11.358   9.989
 6414SOL    HW221076  14.332  11.300  10.080
 6415SOL     OW21077   1.850   0.188  12.144
 6415SOL    HW121078   1.758   0.186  12.172
 6415SOL    HW221079   1.863   0.104  12.099
 6416SOL     OW21080   4.150  11.552  14.355
 6416SOL    HW121081   4.068  11.557  14.305
 6416SOL    HW221082   4.148  11.627  14.414
 6417SOL     OW21083  10.544   6.816   7.714
 6417SOL    HW121084  10.505   6.787   7.796
 6417SOL    HW221085  10.613   6.752   7.697
 6418SOL     OW21086  10.274   2.687   5.924
 6418SOL    HW121087  10.269   2.767   5.872
 6418SOL    HW221088  10.267   2.616   5.860
 6419SOL     OW21089  12.245   7.960   1.260
 6419SOL    HW121090  12.241   8.043   1.308
 6419SOL    HW221091  12.227   7.893   1.326
 6420SOL     OW21092   0.372   3.072   3.368
 6420SOL    HW121093   0.353   3.015   3.442
 6420SOL    HW221094   0.467   3.087   3.373
 6421SOL     OW21095   4.111   5.385   2.747
 6421SOL    HW121096   4.172   5.459   2.743
 6421SOL    HW221097   4.128   5.336   2.666
 6422SOL     OW21098   5.935  13.303  14.477
 6422SOL    HW121099   5.982  13.336  14.401
 6422SOL    HW221100   5.968  13.213  14.488
 6423SOL     OW21101  10.679  11.892   7.739
 6423SOL    HW121102  10.709  11.983   7.736
 6423SOL    HW221103  10.584  11.899   7.736
 6424SOL     OW21104   6.865  14.405   7.130
 6424SOL    HW121105   6.796  14.471   7.129
 6424SOL    HW221106   6.827  14.330   7.085
 6425SOL     OW21107   8.663  13.058   1.557
 6425SOL    HW121108   8.668  12.975   1.605
 6425SOL    HW221109   8.645  13.124   1.624
 6426SOL     OW21110  12.329   0.928   7.238
 6426SOL    HW121111  12.355   0.857   7.179
 6426SOL    HW221112  12.243   0.956   7.206
 6427SOL     OW21113  12.889  12.648   5.458
 6427SOL    HW121114  12.859  12.693   5.379
 6427SOL    HW221115  12.808  12.625   5.505
 6428SOL     OW21116  13.428  14.790   2.254
 6428SOL    HW121117  13.408  14.708   2.211
 6428SOL    HW221118  13.479  14.765   2.331
 6429SOL     OW21119   6.187   1.508   4.996
 6429SOL    HW121120   6.271   1.543   4.968
 6429SOL    HW221121   6.122   1.573   4.967
 6430SOL     OW21122  12.870   4.352   1.816
 6430SOL    HW121123  12.937   4.293   1.851
 6430SOL    HW221124  12.842   4.310   1.734
 6431SOL     OW21125  12.665  13.008  13.577
 6431SOL    HW121126  12.726  12.978  13.509
 6431SOL    HW221127  12.694  13.097  13.596
 6432SOL     OW21128   3.836  14.739   4.854
 6432SOL    HW121129   3.909  14.795   4.829
 6432SOL    HW221130   3.769  14.755   4.787
 6433SOL     OW21131   0.884   7.256   9.559
 6433SOL    HW121132   0.895   7.182   9.499
 6433SOL    HW221133   0.874   7.332   9.503
 6434SOL     OW21134   4.984   1.118   9.519
 6434SOL    HW121135   4.922   1.122   9.592
 6434SOL    HW221136   4.970   1.031   9.481
 6435SOL     OW21137   1.818   9.305  11.912
 6435SOL    HW121138   1.841   9.398  11.921
 6435SOL    HW221139   1.818   9.272  12.001
 6436SOL     OW21140   8.263   1.673  11.049
 6436SOL    HW121141   8.280   1.590  11.095
 6436SOL    HW221142   8.343   1.723  11.059
 6437SOL     OW21143   8.439   3.608   6.997
 6437SOL    HW121144   8.441   3.517   6.967
 6437SOL    HW221145   8.510   3.651   6.949
 6438SOL     OW21146   5.048  13.153  13.374
 6438SOL    HW121147   5.040  13.081  13.436
 6438SOL    HW221148   4.979  13.214  13.398
 6439SOL     OW21149   0.297   6.640  13.358
 6439SOL    HW121150   0.369   6.685  13.315
 6439SOL    HW221151   0.287   6.686  13.442
 6440SOL     OW21152   1.468   7.202  12.589
 6440SOL    HW121153   1.534   7.140  12.558
 6440SOL    HW221154   1.517   7.283  12.603
 6441SOL     OW21155   4.322   2.777  10.443
 6441SOL    HW121156   4.367   2.769  10.527
 6441SOL    HW221157   4.391   2.779  10.377
 6442SOL     OW21158   1.550   0.806  11.825
 6442SOL    HW121159   1.581   0.812  11.735
 6442SOL    HW221160   1.628   0.786  11.877
 6443SOL     OW21161   8.015  14.655  13.280
 6443SOL    HW121162   7.951  14.701  13.335
 6443SOL    HW221163   8.097  14.702  13.297
 6444SOL     OW21164  12.908  14.007  11.860
 6444SOL    HW121165  13.002  13.992  11.869
 6444SOL    HW221166  12.885  14.065  11.933
 6445SOL     OW21167   1.886  11.124  10.094
 6445SOL    HW121168   1.791  11.128  10.088
 6445SOL    HW221169   1.904  11.084  10.179
 6446SOL     OW21170   4.064  10.182  13.564
 6446SOL    HW121171   3.983  10.216  13.602
 6446SOL    HW221172   4.133  10.238  13.599
 6447SOL     OW21173  14.632   7.539   0.022
 6447SOL    HW121174  14.574   7.503  14.834
 6447SOL    HW221175  14.666   7.462   0.068
 6448SOL     OW21176  11.729   6.021  10.821
 6448SOL    HW121177  11.730   6.012  10.916
 6448SOL    HW221178  11.658   5.964  10.792
 6449SOL     OW21179   7.555   5.297   0.234
 6449SOL    HW121180   7.491   5.330   0.170
 6449SOL    HW221181   7.518   5.213   0.262
 6450SOL     OW21182  12.928   5.213   8.540
 6450SOL    HW121183  13.009   5.222   8.590
 6450SOL    HW221184  12.911   5.119   8.538
 6451SOL     OW21185  14.567   1.992   6.758
 6451SOL    HW121186  14.541   2.021   6.671
 6451SOL    HW221187  14.627   2.060   6.789
 6452SOL     OW21188  13.100   2.825   1.443
 6452SOL    HW121189  13.121   2.801   1.353
 6452SOL    HW221190  13.179   2.868   1.476
 6453SOL     OW21191   9.468  13.289  13.699
 6453SOL    HW121192   9.437  13.206  13.663
 6453SOL    HW221193   9.404  13.311  13.766
 6454SOL     OW21194  10.056   2.895   4.746
 6454SOL    HW121195  10.103   2.969   4.784
 6454SOL    HW221196  10.069   2.823   4.808
 6455SOL     OW21197   8.676   2.630   2.410
 6455SOL    HW121198   8.728   2.710   2.418
 6455SOL    HW221199   8.612   2.636   2.482
 6456SOL     OW21200   3.191   2.429   0.633
 6456SOL    HW121201   3.108   2.406   0.676
 6456SOL    HW221202   3.206   2.358   0.571
 6457SOL     OW21203   7.025   7.501   4.882
 6457SOL    HW121204   6.962   7.452   4.829
 6457SOL    HW221205   7.059   7.437   4.944
 6458SOL     OW21206  12.767   2.758   8.137
 6458SOL    HW121207  12.859   2.768   8.113
 6458SOL    HW221208  12.743   2.671   8.104
 6459SOL     OW21209   9.502  11.245  14.227
 6459SOL    HW121210   9.456  11.165  14.203
 6459SOL    HW221211   9.544  11.224  14.311
 6460SOL     OW21212   9.222  14.113  12.734
 6460SOL    HW121213   9.269  14.030  12.744
 6460SOL    HW221214   9.131  14.087  12.723
 6461SOL     OW21215  10.859   1.367   3.905
 6461SOL    HW121216  10.852   1.366   3.809
 6461SOL    HW221217  10.948   1.335   3.922
 6462SOL     OW21218   8.812   6.478  14.719
 6462SOL    HW121219   8.718   6.460  14.718
 6462SOL    HW221220   8.842   6.456  14.631
 6463SOL     OW21221  13.156  10.373   9.984
 6463SOL    HW121222  13.092  10.442   9.969
 6463SOL    HW221223  13.131  10.334  10.068
 6464SOL     OW21224   7.528   5.795   8.974
 6464SOL    HW121225   7.535   5.719   9.032
 6464SOL    HW221226   7.440   5.829   8.990
 6465SOL     OW21227   1.364   1.432  12.435
 6465SOL    HW121228   1.390   1.349  12.476
 6465SOL    HW221229   1.349   1.491  12.509
 6466SOL     OW21230   9.007   6.737   7.589
 6466SOL    HW121231   9.042   6.653   7.559
 6466SOL    HW221232   8.971   6.718   7.676
 6467SOL     OW21233  11.792   5.748  13.514
 6467SOL    HW121234  11.706   5.706  13.517
 6467SOL    HW221235  11.774   5.838  13.487
 6468SOL     OW21236  14.705   5.236  13.260
 6468SOL    HW121237  14.768   5.275  13.319
 6468SOL    HW221238  14.707   5.291  13.182
 6469SOL     OW21239   1.235  14.500  11.574
 6469SOL    HW121240   1.200  14.411  11.565
 6469SOL    HW221241   1.237  14.534  11.485
 6470SOL     OW21242   7.300   2.719  12.297
 6470SOL    HW121243   7.302   2.800  12.349
 6470SOL    HW221244   7.323   2.651  12.360
 6471SOL     OW21245  11.885  14.075   9.871
 6471SOL    HW121246  11.966  14.026   9.886
 6471SOL    HW221247  11.829  14.014   9.824
 6472SOL     OW21248   5.163   4.248   3.131
 6472SOL    HW121249   5.100   4.309   3.169
 6472SOL    HW221250   5.149   4.166   3.179
 6473SOL     OW21251  11.232  10.697   3.113
 6473SOL    HW121252  11.220  10.684   3.019
 6473SOL    HW221253  11.311  10.751   3.120
 6474SOL     OW21254   3.078   7.890   3.431
 6474SOL    HW121255   3.008   7.890   3.496
 6474SOL    HW221256   3.157   7.914   3.480
 6475SOL     OW21257   3.427  12.432  14.842
 6475SOL    HW121258   3.491  12.498  14.813
 6475SOL    HW221259   3.410  12.379  14.764
 6476SOL     OW21260   5.592   6.491  11.634
 6476SOL    HW121261   5.648   6.487  11.712
 6476SOL    HW221262   5.572   6.399  11.615
 6477SOL     OW21263   5.217   1.917  12.035
 6477SOL    HW121264   5.206   2.002  11.993
 6477SOL    HW221265   5.295   1.928  12.090
 6478SOL     OW21266   6.124   0.159   7.096
 6478SOL    HW121267   6.210   0.141   7.135
 6478SOL    HW221268   6.065   0.098   7.140
 6479SOL     OW21269   4.974   3.111   2.252
 6479SOL    HW121270   4.968   3.194   2.206
 6479SOL    HW221271   4.886   3.073   2.247
 6480SOL     OW21272   1.010   6.957   6.162
 6480SOL    HW121273   0.925   6.957   6.205
 6480SOL    HW221274   1.061   7.024   6.209
 6481SOL     OW21275   5.216  11.065   0.396
 6481SOL    HW121276   5.251  11.012   0.324
 6481SOL    HW221277   5.123  11.074   0.377
 6482SOL     OW21278   6.687   2.240   4.433
 6482SOL    HW121279   6.704   2.334   4.434
 6482SOL    HW221280   6.601   2.232   4.393
 6483SOL     OW21281  13.595   2.176   2.241
 6483SOL    HW121282  13.529   2.204   2.304
 6483SOL    HW221283  13.651   2.116   2.290
 6484SOL     OW21284   4.300   7.823   7.010
 6484SOL    HW121285   4.353   7.891   6.968
 6484SOL    HW221286   4.336   7.815   7.098
 6485SOL     OW21287   4.468  10.284   0.894
 6485SOL    HW121288   4.476  10.202   0.845
 6485SOL    HW221289   4.429  10.258   0.977
 6486SOL     OW21290  13.155  14.646   5.075
 6486SOL    HW121291  13.232  14.648   5.018
 6486SOL    HW221292  13.190  14.657   5.163
 6487SOL     OW21293  12.505   7.943  14.752
 6487SOL    HW121294  12.580   7.984  14.708
 6487SOL    HW221295  12.519   7.960  14.845
 6488SOL     OW21296   1.456   2.347   3.955
 6488SOL    HW121297   1.404   2.344   3.874
 6488SOL    HW221298   1.391   2.345   4.025
 6489SOL     OW21299   6.723   4.979   0.554
 6489SOL    HW121300   6.794   4.916   0.543
 6489SOL    HW221301   6.743   5.050   0.494
 6490SOL     OW21302  14.652   1.777   5.193
 6490SOL    HW121303  14.603   1.761   5.274
 6490SOL    HW221304  14.691   1.864   5.205
 6491SOL     OW21305   1.729  11.660  14.334
 6491SOL    HW121306   1.683  11.742  14.317
 6491SOL    HW221307   1.799  11.658  14.269
 6492SOL     OW21308   7.515   5.798  14.266
 6492SOL    HW121309   7.566   5.777  14.343
 6492SOL    HW221310   7.480   5.714  14.236
 6493SOL     OW21311   1.994   9.966   3.184
 6493SOL    HW121312   1.985  10.016   3.265
 6493SOL    HW221313   1.905   9.936   3.165
 6494SOL     OW21314   1.537   2.629   7.300
 6494SOL    HW121315   1.588   2.555   7.331
 6494SOL    HW221316   1.481   2.653   7.373
 6495SOL     OW21317  11.949   6.439   3.713
 6495SOL    HW121318  12.005   6.497   3.763
 6495SOL    HW221319  11.861   6.453   3.749
 6496SOL     OW21320  10.488  12.966   2.936
 6496SOL    HW121321  10.542  12.960   3.015
 6496SOL    HW221322  10.550  12.961   2.864
 6497SOL     OW21323  10.211  12.291   0.332
 6497SOL    HW121324  10.171  12.369   0.371
 6497SOL    HW221325  10.294  12.280   0.378
 6498SOL     OW21326   9.326  11.920   6.619
 6498SOL    HW121327   9.323  12.016   6.619
 6498SOL    HW221328   9.262  11.894   6.553
 6499SOL     OW21329  12.929  10.754  12.707
 6499SOL    HW121330  13.024  10.746  12.698
 6499SOL    HW221331  12.911  10.847  12.691
 6500SOL     OW21332  11.832  13.837   2.698
 6500SOL    HW121333  11.815  13.860   2.607
 6500SOL    HW221334  11.926  13.856   2.711
 6501SOL     OW21335   1.076   4.296   9.510
 6501SOL    HW121336   0.997   4.244   9.522
 6501SOL    HW221337   1.081   4.312   9.416
 6502SOL     OW21338   3.452   9.933   0.243
 6502SOL    HW121339   3.528   9.908   0.189
 6502SOL    HW221340   3.422  10.015   0.204
 6503SOL     OW21341  11.125   2.098   4.624
 6503SOL    HW121342  11.200   2.142   4.663
 6503SOL    HW221343  11.050   2.152   4.648
 6504SOL     OW21344   4.397   6.285   1.106
 6504SOL    HW121345   4.415   6.226   1.033
 6504SOL    HW221346   4.481   6.330   1.121
 6505SOL     OW21347   1.839   3.410   2.121
 6505SOL    HW121348   1.859   3.415   2.027
 6505SOL    HW221349   1.823   3.501   2.146
 6506SOL     OW21350   9.357   3.553  14.303
 6506SOL    HW121351   9.360   3.574  14.210
 6506SOL    HW221352   9.405   3.470  14.311
 6507SOL     OW21353  10.850   8.898  11.802
 6507SOL    HW121354  10.755   8.902  11.791
 6507SOL    HW221355  10.864   8.916  11.895
 6508SOL     OW21356   7.980   0.076  13.113
 6508SOL    HW121357   8.014   0.146  13.169
 6508SOL    HW221358   8.058   0.031  13.081
 6509SOL     OW21359   2.476   5.251   7.350
 6509SOL    HW121360   2.479   5.157   7.332
 6509SOL    HW221361   2.525   5.291   7.278
 6510SOL     OW21362  12.620  11.202   6.569
 6510SOL    HW121363  12.705  11.246   6.578
 6510SOL    HW221364  12.640  11.125   6.515
 6511SOL     OW21365   2.630   6.173   3.869
 6511SOL    HW121366   2.563   6.105   3.879
 6511SOL    HW221367   2.708   6.125   3.841
 6512SOL     OW21368   0.160   9.868  13.307
 6512SOL    HW121369   0.130   9.821  13.230
 6512SOL    HW221370   0.234   9.816  13.339
 6513SOL     OW21371   2.754   2.850   7.414
 6513SOL    HW121372   2.684   2.790   7.441
 6513SOL    HW221373   2.812   2.795   7.360
 6514SOL     OW21374  11.026   0.271   8.582
 6514SOL    HW121375  11.062   0.214   8.650
 6514SOL    HW221376  10.992   0.347   8.630
 6515SOL     OW21377   1.474   9.911   0.042
 6515SOL    HW121378   1.415   9.982   0.068
 6515SOL    HW221379   1.425   9.831   0.058
 6516SOL     OW21380  11.197   5.959   2.741
 6516SOL    HW121381  11.288   5.983   2.757
 6516SOL    HW221382  11.190   5.953   2.645
 6517SOL     OW21383   5.261   6.707  13.579
 6517SOL    HW121384   5.255   6.668  13.492
 6517SOL    HW221385   5.349   6.684  13.609
 6518SOL     OW21386   3.808   9.984   0.284
 6518SOL    HW121387   3.797  10.079   0.282
 6518SOL    HW221388   3.790   9.956   0.194
 6519SOL     OW21389   6.305   2.737   3.923
 6519SOL    HW121390   6.369   2.778   3.865
 6519SOL    HW221391   6.284   2.805   3.986
 6520SOL     OW21392  12.354  12.254  10.852
 6520SOL    HW121393  12.409  12.331  10.858
 6520SOL    HW221394  12.286  12.268  10.917
 6521SOL     OW21395   8.897   2.955   4.669
 6521SOL    HW121396   8.878   2.873   4.624
 6521SOL    HW221397   8.817   2.973   4.719
 6522SOL     OW21398   5.879  11.905   6.733
 6522SOL    HW121399   5.800  11.900   6.680
 6522SOL    HW221400   5.877  11.825   6.786
 6523SOL     OW21401   5.425   0.269   5.155
 6523SOL    HW121402   5.513   0.257   5.191
 6523SOL    HW221403   5.394   0.351   5.194
 6524SOL     OW21404   6.381   7.800  12.116
 6524SOL    HW121405   6.426   7.785  12.033
 6524SOL    HW221406   6.377   7.895  12.125
 6525SOL     OW21407  13.830  12.810   8.829
 6525SOL    HW121408  13.844  12.899   8.798
 6525SOL    HW221409  13.746  12.784   8.791
 6526SOL     OW21410   9.294  14.630   5.708
 6526SOL    HW121411   9.281  14.637   5.802
 6526SOL    HW221412   9.216  14.671   5.670
 6527SOL     OW21413  13.626  11.773  10.927
 6527SOL    HW121414  13.577  11.842  10.970
 6527SOL    HW221415  13.560  11.716  10.889
 6528SOL     OW21416   6.793   3.933   0.876
 6528SOL    HW121417   6.883   3.901   0.864
 6528SOL    HW221418   6.759   3.880   0.948
 6529SOL     OW21419  10.511  13.754   5.047
 6529SOL    HW121420  10.435  13.793   5.089
 6529SOL    HW221421  10.564  13.720   5.119
 6530SOL     OW21422  10.807   3.322   1.902
 6530SOL    HW121423  10.759   3.242   1.882
 6530SOL    HW221424  10.830   3.358   1.817
 6531SOL     OW21425   9.864   7.435   9.790
 6531SOL    HW121426   9.778   7.467   9.818
 6531SOL    HW221427   9.926   7.497   9.827
 6532SOL     OW21428   2.537   0.467   8.417
 6532SOL    HW121429   2.575   0.543   8.373
 6532SOL    HW221430   2.504   0.502   8.500
 6533SOL     OW21431   1.856   4.608  11.353
 6533SOL    HW121432   1.822   4.533  11.401
 6533SOL    HW221433   1.839   4.683  11.410
 6534SOL     OW21434   2.783   0.573   1.356
 6534SOL    HW121435   2.766   0.516   1.281
 6534SOL    HW221436   2.787   0.514   1.431
 6535SOL     OW21437   7.292  14.351  11.073
 6535SOL    HW121438   7.321  14.353  10.982
 6535SOL    HW221439   7.200  14.380  11.069
 6536SOL     OW21440  14.274   4.673   6.501
 6536SOL    HW121441  14.346   4.730   6.476
 6536SOL    HW221442  14.274   4.604   6.434
 6537SOL     OW21443  10.418  13.506   3.923
 6537SOL    HW121444  10.453  13.480   4.009
 6537SOL    HW221445  10.474  13.461   3.860
 6538SOL     OW21446  11.138  10.308  12.927
 6538SOL    HW121447  11.149  10.335  13.018
 6538SOL    HW221448  11.044  10.293  12.917
 6539SOL     OW21449  10.150   0.948  14.658
 6539SOL    HW121450  10.161   0.915  14.569
 6539SOL    HW221451  10.087   0.887  14.698
 6540SOL     OW21452   3.249   7.057  11.676
 6540SOL    HW121453   3.282   7.130  11.728
 6540SOL    HW221454   3.273   7.080  11.586
 6541SOL     OW21455  11.276  14.291  13.417
 6541SOL    HW121456  11.329  14.214  13.398
 6541SOL    HW221457  11.189  14.270  13.383
 6542SOL     OW21458  13.182   3.537   3.371
 6542SOL    HW121459  13.197   3.531   3.277
 6542SOL    HW221460  13.269   3.548   3.408
 6543SOL     OW21461   7.710  13.288  11.476
 6543SOL    HW121462   7.798  13.253  11.464
 6543SOL    HW221463   7.654  13.210  11.481
 6544SOL     OW21464  13.623  10.059   2.372
 6544SOL    HW121465  13.717  10.049   2.388
 6544SOL    HW221466  13.606  10.152   2.381
 6545SOL     OW21467  12.444   5.631   8.767
 6545SOL    HW121468  12.419   5.539   8.772
 6545SOL    HW221469  12.362   5.679   8.778
 6546SOL     OW21470   7.381   5.205   6.719
 6546SOL    HW121471   7.309   5.148   6.747
 6546SOL    HW221472   7.337   5.281   6.681
 6547SOL     OW21473   9.884   1.108   4.751
 6547SOL    HW121474   9.905   1.201   4.752
 6547SOL    HW221475   9.871   1.087   4.659
 6548SOL     OW21476   0.815  10.866   0.079
 6548SOL    HW121477   0.875  10.890   0.149
 6548SOL    HW221478   0.730  10.856   0.122
 6549SOL     OW21479   9.749  10.378   6.708
 6549SOL    HW121480   9.830  10.381   6.759
 6549SOL    HW221481   9.754  10.457   6.653
 6550SOL     OW21482   1.306  12.433  12.448
 6550SOL    HW121483   1.325  12.520  12.484
 6550SOL    HW221484   1.221  12.410  12.486
 6551SOL     OW21485  10.784  12.343  13.378
 6551SOL    HW121486  10.723  12.306  13.315
 6551SOL    HW221487  10.782  12.282  13.452
 6552SOL     OW21488   7.494   4.492  12.027
 6552SOL    HW121489   7.415   4.471  11.977
 6552SOL    HW221490   7.470   4.570  12.076
 6553SOL     OW21491  12.004   6.224   2.103
 6553SOL    HW121492  12.032   6.156   2.041
 6553SOL    HW221493  12.079   6.284   2.108
 6554SOL     OW21494   0.740   7.136   4.427
 6554SOL    HW121495   0.729   7.041   4.438
 6554SOL    HW221496   0.660   7.173   4.464
 6555SOL     OW21497   5.147   6.024   6.416
 6555SOL    HW121498   5.152   6.047   6.509
 6555SOL    HW221499   5.110   5.935   6.416
 6556SOL     OW21500  13.025   3.373   0.206
 6556SOL    HW121501  12.966   3.389   0.132
 6556SOL    HW221502  13.100   3.329   0.166
 6557SOL     OW21503   4.394  14.197   7.815
 6557SOL    HW121504   4.325  14.244   7.768
 6557SOL    HW221505   4.374  14.104   7.799
 6558SOL     OW21506  12.956   3.523   6.986
 6558SOL    HW121507  12.962   3.618   7.000
 6558SOL    HW221508  12.992   3.510   6.898
 6559SOL     OW21509   6.477   4.539  12.313
 6559SOL    HW121510   6.433   4.618  12.281
 6559SOL    HW221511   6.482   4.482  12.236
 6560SOL     OW21512   5.046   5.990   5.166
 6560SOL    HW121513   5.013   6.029   5.247
 6560SOL    HW221514   4.991   6.027   5.098
 6561SOL     OW21515   1.015   2.240   8.412
 6561SOL    HW121516   1.082   2.219   8.347
 6561SOL    HW221517   1.022   2.170   8.477
 6562SOL     OW21518   6.993   3.323  10.134
 6562SOL    HW121519   7.029   3.343  10.048
 6562SOL    HW221520   6.903   3.293  10.116
 6563SOL     OW21521   0.153   7.500   8.678
 6563SOL    HW121522   0.149   7.554   8.757
 6563SOL    HW221523   0.215   7.431   8.699
 6564SOL     OW21524  13.168  12.726  11.985
 6564SOL    HW121525  13.130  12.660  11.927
 6564SOL    HW221526  13.107  12.731  12.059
 6565SOL     OW21527   2.025   9.219   5.092
 6565SOL    HW121528   2.035   9.255   5.004
 6565SOL    HW221529   1.987   9.291   5.143
 6566SOL     OW21530  10.007   2.900   5.182
 6566SOL    HW121531  10.088   2.919   5.231
 6566SOL    HW221532  10.038   2.861   5.100
 6567SOL     OW21533   4.861  10.645  13.486
 6567SOL    HW121534   4.919  10.654  13.411
 6567SOL    HW221535   4.897  10.704  13.552
 6568SOL     OW21536  12.625   4.174  10.527
 6568SOL    HW121537  12.612   4.262  10.561
 6568SOL    HW221538  12.702   4.141  10.574
 6569SOL     OW21539   3.232   1.172  12.751
 6569SOL    HW121540   3.139   1.193  12.744
 6569SOL    HW221541   3.276   1.257  12.756
 6570SOL     OW21542   7.878  14.578   1.521
 6570SOL    HW121543   7.831  14.560   1.603
 6570SOL    HW221544   7.947  14.512   1.518
 6571SOL     OW21545   1.030   3.848  14.018
 6571SOL    HW121546   0.947   3.891  14.000
 6571SOL    HW221547   1.023   3.764  13.974
 6572SOL     OW21548   9.852   0.610  14.506
 6572SOL    HW121549   9.816   0.521  14.513
 6572SOL    HW221550   9.848   0.630  14.412
 6573SOL     OW21551   3.092   0.552  12.823
 6573SOL    HW121552   3.165   0.514  12.774
 6573SOL    HW221553   3.018   0.549  12.762
 6574SOL     OW21554  11.648   6.898   3.148
 6574SOL    HW121555  11.597   6.911   3.068
 6574SOL    HW221556  11.728   6.855   3.117
 6575SOL     OW21557   2.925  13.073   0.322
 6575SOL    HW121558   2.981  13.122   0.261
 6575SOL    HW221559   2.872  13.016   0.266
 6576SOL     OW21560   9.827   0.747   2.777
 6576SOL    HW121561   9.873   0.685   2.835
 6576SOL    HW221562   9.878   0.745   2.696
 6577SOL     OW21563   6.760   0.582  13.125
 6577SOL    HW121564   6.810   0.502  13.110
 6577SOL    HW221565   6.697   0.584  13.054
 6578SOL     OW21566   4.740   5.550  10.388
 6578SOL    HW121567   4.692   5.520  10.465
 6578SOL    HW221568   4.686   5.620  10.351
 6579SOL     OW21569   6.758   8.966   4.931
 6579SOL    HW121570   6.699   9.033   4.899
 6579SOL    HW221571   6.701   8.895   4.961
 6580SOL     OW21572  12.695  10.307   3.899
 6580SOL    HW121573  12.772  10.295   3.954
 6580SOL    HW221574  12.721  10.374   3.836
 6581SOL     OW21575   0.387  12.566   5.615
 6581SOL    HW121576   0.317  12.588   5.554
 6581SOL    HW221577   0.377  12.472   5.629
 6582SOL     OW21578   5.240   7.394   4.839
 6582SOL    HW121579   5.333   7.375   4.830
 6582SOL    HW221580   5.225   7.392   4.933
 6583SOL     OW21581   8.108   2.105  11.808
 6583SOL    HW121582   8.114   2.200  11.815
 6583SOL    HW221583   8.028   2.090  11.757
 6584SOL     OW21584  10.054  14.041   6.135
 6584SOL    HW121585  10.007  14.094   6.072
 6584SOL    HW221586  10.004  14.049   6.216
 6585SOL     OW21587   7.638  12.385   7.948
 6585SOL    HW121588   7.599  12.391   7.861
 6585SOL    HW221589   7.660  12.475   7.971
 6586SOL     OW21590   4.286   1.303  10.537
 6586SOL    HW121591   4.375   1.333  10.555
 6586SOL    HW221592   4.270   1.235  10.603
 6587SOL     OW21593   9.556   0.646   6.520
 6587SOL    HW121594   9.566   0.738   6.493
 6587SOL    HW221595   9.601   0.596   6.451
 6588SOL     OW21596  14.336   5.612   8.108
 6588SOL    HW121597  14.402   5.671   8.143
 6588SOL    HW221598  14.256   5.635   8.154
 6589SOL     OW21599  10.789   4.583   1.422
 6589SOL    HW121600  10.694   4.590   1.423
 6589SOL    HW221601  10.818   4.624   1.504
 6590SOL     OW21602   6.962   3.373  14.318
 6590SOL    HW121603   7.055   3.352  14.305
 6590SOL    HW221604   6.928   3.384  14.230
 6591SOL     OW21605   5.759   0.984   7.109
 6591SOL    HW121606   5.852   1.001   7.094
 6591SOL    HW221607   5.735   0.919   7.044
 6592SOL     OW21608   3.245  12.817  13.025
 6592SOL    HW121609   3.192  12.894  13.007
 6592SOL    HW221610   3.190  12.762  13.080
 6593SOL     OW21611   1.800  11.884   6.867
 6593SOL    HW121612   1.847  11.939   6.929
 6593SOL    HW221613   1.867  11.823   6.834
 6594SOL     OW21614  12.777   0.562   7.014
 6594SOL    HW121615  12.698   0.610   7.039
 6594SOL    HW221616  12.766   0.476   7.054
 6595SOL     OW21617   8.872   7.538   5.523
 6595SOL    HW121618   8.785   7.498   5.521
 6595SOL    HW221619   8.924   7.480   5.579
 6596SOL     OW21620   1.896   6.932   7.497
 6596SOL    HW121621   1.852   6.872   7.557
 6596SOL    HW221622   1.870   6.903   7.410
 6597SOL     OW21623   5.794   3.736   4.285
 6597SOL    HW121624   5.788   3.693   4.200
 6597SOL    HW221625   5.876   3.703   4.323
 6598SOL     OW21626   8.962   6.301   4.594
 6598SOL    HW121627   8.918   6.372   4.641
 6598SOL    HW221628   8.998   6.343   4.515
 6599SOL     OW21629   8.096   0.483  10.473
 6599SOL    HW121630   8.056   0.544  10.536
 6599SOL    HW221631   8.113   0.537  10.395
 6600SOL     OW21632   8.624   6.854   3.824
 6600SOL    HW121633   8.691   6.919   3.846
 6600SOL    HW221634   8.652   6.775   3.868
 6601SOL     OW21635   5.167   6.564   5.754
 6601SOL    HW121636   5.228   6.497   5.724
 6601SOL    HW221637   5.080   6.527   5.738
 6602SOL     OW21638  10.323   0.126   8.453
 6602SOL    HW121639  10.410   0.157   8.476
 6602SOL    HW221640  10.336   0.071   8.375
 6603SOL     OW21641   5.273   6.405   4.461
 6603SOL    HW121642   5.274   6.310   4.472
 6603SOL    HW221643   5.195   6.433   4.508
 6604SOL     OW21644  14.638  13.429   5.211
 6604SOL    HW121645  14.547  13.448   5.189
 6604SOL    HW221646  14.642  13.334   5.220
 6605SOL     OW21647   3.374   1.559  11.749
 6605SOL    HW121648   3.290   1.602  11.764
 6605SOL    HW221649   3.409   1.602  11.671
 6606SOL     OW21650   0.513   5.358  12.533
 6606SOL    HW121651   0.522   5.348  12.438
 6606SOL    HW221652   0.600   5.382  12.563
 6607SOL     OW21653   4.512   5.653   0.234
 6607SOL    HW121654   4.542   5.691   0.317
 6607SOL    HW221655   4.589   5.657   0.177
 6608SOL     OW21656   3.347  11.845   7.399
 6608SOL    HW121657   3.340  11.930   7.356
 6608SOL    HW221658   3.272  11.842   7.458
 6609SOL     OW21659  14.734   5.763   0.537
 6609SOL    HW121660  14.644   5.794   0.545
 6609SOL    HW221661  14.729   5.670   0.561
 6610SOL     OW21662   8.093   5.329  13.502
 6610SOL    HW121663   8.089   5.344  13.596
 6610SOL    HW221664   8.005   5.351  13.470
 6611SOL     OW21665  12.468  11.597   9.875
 6611SOL    HW121666  12.467  11.647   9.957
 6611SOL    HW221667  12.529  11.525   9.892
 6612SOL     OW21668   7.887   5.637  11.919
 6612SOL    HW121669   7.802   5.653  11.877
 6612SOL    HW221670   7.870   5.567  11.981
 6613SOL     OW21671  11.041  10.030  13.908
 6613SOL    HW121672  11.088   9.977  13.843
 6613SOL    HW221673  10.955   9.988  13.915
 6614SOL     OW21674   9.588  12.233   4.173
 6614SOL    HW121675   9.511  12.181   4.150
 6614SOL    HW221676   9.606  12.211   4.264
 6615SOL     OW21677  13.996   0.237   3.796
 6615SOL    HW121678  14.027   0.158   3.752
 6615SOL    HW221679  13.933   0.206   3.860
 6616SOL     OW21680  11.242   6.455   6.025
 6616SOL    HW121681  11.284   6.435   6.109
 6616SOL    HW221682  11.314   6.466   5.964
 6617SOL     OW21683  13.372   4.719   1.345
 6617SOL    HW121684  13.296   4.671   1.314
 6617SOL    HW221685  13.446   4.660   1.327
 6618SOL     OW21686   0.961   8.401   1.394
 6618SOL    HW121687   1.003   8.403   1.480
 6618SOL    HW221688   0.956   8.308   1.372
 6619SOL     OW21689   3.361  11.488   2.529
 6619SOL    HW121690   3.450  11.513   2.504
 6619SOL    HW221691   3.358  11.394   2.514
 6620SOL     OW21692   2.708   8.487   8.602
 6620SOL    HW121693   2.730   8.483   8.509
 6620SOL    HW221694   2.717   8.396   8.632
 6621SOL     OW21695   8.637  12.969   4.673
 6621SOL    HW121696   8.614  12.971   4.766
 6621SOL    HW221697   8.621  12.879   4.646
 6622SOL     OW21698   7.704   2.744   6.190
 6622SOL    HW121699   7.757   2.667   6.169
 6622SOL    HW221700   7.699   2.793   6.108
 6623SOL     OW21701   2.226   2.296   8.271
 6623SOL    HW121702   2.158   2.245   8.227
 6623SOL    HW221703   2.186   2.323   8.353
 6624SOL     OW21704  12.266  13.729  12.197
 6624SOL    HW121705  12.270  13.749  12.104
 6624SOL    HW221706  12.358  13.733  12.226
 6625SOL     OW21707   9.225   5.383   4.213
 6625SOL    HW121708   9.169   5.330   4.156
 6625SOL    HW221709   9.169   5.454   4.242
 6626SOL     OW21710   0.306   6.699   6.478
 6626SOL    HW121711   0.274   6.627   6.532
 6626SOL    HW221712   0.317   6.773   6.538
 6627SOL     OW21713   2.292  10.768  11.398
 6627SOL    HW121714   2.311  10.752  11.490
 6627SOL    HW221715   2.250  10.854  11.397
 6628SOL     OW21716  13.661  12.829   2.335
 6628SOL    HW121717  13.661  12.733   2.332
 6628SOL    HW221718  13.699  12.855   2.251
 6629SOL     OW21719  12.914   8.377   1.837
 6629SOL    HW121720  12.930   8.298   1.888
 6629SOL    HW221721  12.906   8.447   1.903
 6630SOL     OW21722   9.455  10.071   6.463
 6630SOL    HW121723   9.452   9.999   6.401
 6630SOL    HW221724   9.537  10.059   6.511
 6631SOL     OW21725  12.322   1.678   8.807
 6631SOL    HW121726  12.228   1.672   8.786
 6631SOL    HW221727  12.351   1.759   8.765
 6632SOL     OW21728   1.355   6.608   9.268
 6632SOL    HW121729   1.295   6.586   9.339
 6632SOL    HW221730   1.441   6.577   9.298
 6633SOL     OW21731  13.099   4.045   3.589
 6633SOL    HW121732  13.104   4.125   3.537
 6633SOL    HW221733  13.047   3.985   3.536
 6634SOL     OW21734  13.556   6.880   7.055
 6634SOL    HW121735  13.470   6.840   7.073
 6634SOL    HW221736  13.616   6.806   7.053
 6635SOL     OW21737   9.693   1.340  14.547
 6635SOL    HW121738   9.676   1.345  14.642
 6635SOL    HW221739   9.638   1.409  14.509
 6636SOL     OW21740   7.576  12.840   3.775
 6636SOL    HW121741   7.636  12.903   3.815
 6636SOL    HW221742   7.548  12.784   3.847
 6637SOL     OW21743   9.340  12.627   2.853
 6637SOL    HW121744   9.402  12.561   2.822
 6637SOL    HW221745   9.304  12.665   2.773
 6638SOL     OW21746   3.455   1.938   9.572
 6638SOL    HW121747   3.467   1.904   9.483
 6638SOL    HW221748   3.394   1.876   9.613
 6639SOL     OW21749   4.598   1.780   8.117
 6639SOL    HW121750   4.679   1.824   8.145
 6639SOL    HW221751   4.530   1.817   8.174
 6640SOL     OW21752   0.972  10.846   5.152
 6640SOL    HW121753   1.000  10.890   5.072
 6640SOL    HW221754   1.006  10.900   5.223
 6641SOL     OW21755   3.722  12.628  11.930
 6641SOL    HW121756   3.782  12.653  11.859
 6641SOL    HW221757   3.723  12.533  11.930
 6642SOL     OW21758  11.579   1.094  12.075
 6642SOL    HW121759  11.486   1.078  12.090
 6642SOL    HW221760  11.616   1.107  12.162
 6643SOL     OW21761   4.888   7.500   2.944
 6643SOL    HW121762   4.835   7.545   3.009
 6643SOL    HW221763   4.963   7.558   2.930
 6644SOL     OW21764   6.311  11.453   2.172
 6644SOL    HW121765   6.404  11.455   2.193
 6644SOL    HW221766   6.307  11.474   2.079
 6645SOL     OW21767  14.436  14.429   1.327
 6645SOL    HW121768  14.482  14.496   1.276
 6645SOL    HW221769  14.438  14.462   1.417
 6646SOL     OW21770   1.613   8.671   1.609
 6646SOL    HW121771   1.700   8.660   1.649
 6646SOL    HW221772   1.583   8.582   1.592
 6647SOL     OW21773   3.596   5.512   2.209
 6647SOL    HW121774   3.643   5.475   2.135
 6647SOL    HW221775   3.655   5.579   2.244
 6648SOL     OW21776   6.205   9.199   1.506
 6648SOL    HW121777   6.278   9.137   1.510
 6648SOL    HW221778   6.228   9.258   1.434
 6649SOL     OW21779   8.532  13.964   7.947
 6649SOL    HW121780   8.530  14.057   7.922
 6649SOL    HW221781   8.576  13.963   8.032
 6650SOL     OW21782  14.108   0.416   1.433
 6650SOL    HW121783  14.152   0.338   1.400
 6650SOL    HW221784  14.019   0.411   1.398
 6651SOL     OW21785  11.728  12.948   2.212
 6651SOL    HW121786  11.817  12.946   2.177
 6651SOL    HW221787  11.738  12.920   2.303
 6652SOL     OW21788   3.994   7.801   8.481
 6652SOL    HW121789   3.941   7.880   8.477
 6652SOL    HW221790   3.931   7.729   8.479
 6653SOL     OW21791  12.885   8.176   8.925
 6653SOL    HW121792  12.808   8.229   8.948
 6653SOL    HW221793  12.900   8.197   8.832
 6654SOL     OW21794  14.619   8.979   4.231
 6654SOL    HW121795  14.644   9.056   4.281
 6654SOL    HW221796  14.573   9.013   4.154
 6655SOL     OW21797  12.189   2.237   0.070
 6655SOL    HW121798  12.151   2.181   0.138
 6655SOL    HW221799  12.234   2.176   0.011
 6656SOL     OW21800   8.456   6.038   2.795
 6656SOL    HW121801   8.445   6.066   2.886
 6656SOL    HW221802   8.500   5.953   2.801
 6657SOL     OW21803   5.808   1.286   0.055
 6657SOL    HW121804   5.737   1.299   0.118
 6657SOL    HW221805   5.847   1.202   0.080
 6658SOL     OW21806   4.765   0.426   2.935
 6658SOL    HW121807   4.777   0.331   2.946
 6658SOL    HW221808   4.844   0.464   2.974
 6659SOL     OW21809   7.802  14.002  14.683
 6659SOL    HW121810   7.874  13.965  14.733
 6659SOL    HW221811   7.827  14.093  14.667
 6660SOL     OW21812   3.336   1.553   5.780
 6660SOL    HW121813   3.249   1.518   5.799
 6660SOL    HW221814   3.384   1.546   5.863
 6661SOL     OW21815   9.531   6.504   8.014
 6661SOL    HW121816   9.616   6.498   8.057
 6661SOL    HW221817   9.471   6.533   8.083
 6662SOL     OW21818   5.658   1.962   8.897
 6662SOL    HW121819   5.644   1.868   8.908
 6662SOL    HW221820   5.624   2.002   8.977
 6663SOL     OW21821  14.122  10.250  11.275
 6663SOL    HW121822  14.094  10.222  11.362
 6663SOL    HW221823  14.118  10.346  11.278
 6664SOL     OW21824   2.752   2.880   8.256
 6664SOL    HW121825   2.722   2.963   8.294
 6664SOL    HW221826   2.796   2.835   8.328
 6665SOL     OW21827   6.739   7.261   8.322
 6665SOL    HW121828   6.673   7.265   8.392
 6665SOL    HW221829   6.716   7.333   8.264
 6666SOL     OW21830   6.480   5.570   3.345
 6666SOL    HW121831   6.537   5.538   3.275
 6666SOL    HW221832   6.397   5.524   3.331
 6667SOL     OW21833   5.618   0.937   6.317
 6667SOL    HW121834   5.626   0.923   6.222
 6667SOL    HW221835   5.640   0.852   6.355
 6668SOL     OW21836   7.994   2.965   0.458
 6668SOL    HW121837   7.935   2.890   0.471
 6668SOL    HW221838   7.938   3.042   0.467
 6669SOL     OW21839   1.244   8.041   7.410
 6669SOL    HW121840   1.188   8.082   7.345
 6669SOL    HW221841   1.184   8.013   7.479
 6670SOL     OW21842   2.887   7.860   9.216
 6670SOL    HW121843   2.813   7.921   9.207
 6670SOL    HW221844   2.864   7.807   9.293
 6671SOL     OW21845  12.550   6.685  13.958
 6671SOL    HW121846  12.554   6.602  14.007
 6671SOL    HW221847  12.494   6.741  14.012
 6672SOL     OW21848   0.039   5.769   6.542
 6672SOL    HW121849   0.013   5.678   6.555
 6672SOL    HW221850   0.108   5.784   6.608
 6673SOL     OW21851   4.378   3.940   3.503
 6673SOL    HW121852   4.369   4.027   3.464
 6673SOL    HW221853   4.442   3.953   3.573
 6674SOL     OW21854   8.357  10.067   8.327
 6674SOL    HW121855   8.341   9.975   8.307
 6674SOL    HW221856   8.437  10.089   8.278
 6675SOL     OW21857  13.857  14.776  12.722
 6675SOL    HW121858  13.929  14.762  12.662
 6675SOL    HW221859  13.898  14.786  12.808
 6676SOL     OW21860   2.619  14.786   6.398
 6676SOL    HW121861   2.695  14.792   6.454
 6676SOL    HW221862   2.555  14.845   6.437
 6677SOL     OW21863  10.706   0.644  10.153
 6677SOL    HW121864  10.801   0.652  10.161
 6677SOL    HW221865  10.674   0.734  10.159
 6678SOL     OW21866   2.285   1.817  10.221
 6678SOL    HW121867   2.210   1.758  10.221
 6678SOL    HW221868   2.351   1.772  10.168
 6679SOL     OW21869   2.862   1.610   7.870
 6679SOL    HW121870   2.893   1.545   7.807
 6679SOL    HW221871   2.772   1.629   7.842
 6680SOL     OW21872   1.003   5.306  10.092
 6680SOL    HW121873   0.994   5.394  10.054
 6680SOL    HW221874   0.952   5.250  10.034
 6681SOL     OW21875   9.803   1.518   2.748
 6681SOL    HW121876   9.738   1.587   2.762
 6681SOL    HW221877   9.814   1.478   2.834
 6682SOL     OW21878   1.941   4.362   2.383
 6682SOL    HW121879   1.979   4.408   2.458
 6682SOL    HW221880   1.895   4.430   2.334
 6683SOL     OW21881   6.284   1.523   3.175
 6683SOL    HW121882   6.299   1.435   3.142
 6683SOL    HW221883   6.372   1.558   3.191
 6684SOL     OW21884  11.728   3.156   8.395
 6684SOL    HW121885  11.735   3.080   8.453
 6684SOL    HW221886  11.783   3.133   8.320
 6685SOL     OW21887   8.375   9.436   8.946
 6685SOL    HW121888   8.361   9.346   8.976
 6685SOL    HW221889   8.290   9.478   8.955
 6686SOL     OW21890   8.869   7.892  13.141
 6686SOL    HW121891   8.786   7.870  13.099
 6686SOL    HW221892   8.883   7.821  13.203
 6687SOL     OW21893   9.172  13.420  10.982
 6687SOL    HW121894   9.135  13.502  10.948
 6687SOL    HW221895   9.105  13.388  11.043
 6688SOL     OW21896   9.806  10.322   8.670
 6688SOL    HW121897   9.829  10.368   8.751
 6688SOL    HW221898   9.754  10.386   8.620
 6689SOL     OW21899   8.977  12.538   9.201
 6689SOL    HW121900   9.041  12.473   9.230
 6689SOL    HW221901   8.892  12.496   9.213
 6690SOL     OW21902   0.905   8.580   1.812
 6690SOL    HW121903   0.865   8.503   1.852
 6690SOL    HW221904   0.993   8.584   1.852
 6691SOL     OW21905   9.348   1.393   2.235
 6691SOL    HW121906   9.378   1.351   2.316
 6691SOL    HW221907   9.252   1.391   2.241
 6692SOL     OW21908   9.576   4.140   3.128
 6692SOL    HW121909   9.650   4.158   3.070
 6692SOL    HW221910   9.519   4.215   3.117
 6693SOL     OW21911  12.434  10.890   8.646
 6693SOL    HW121912  12.402  10.973   8.681
 6693SOL    HW221913  12.422  10.898   8.551
 6694SOL     OW21914   9.373   7.709  12.398
 6694SOL    HW121915   9.450   7.761  12.422
 6694SOL    HW221916   9.403   7.655  12.325
 6695SOL     OW21917   4.032   8.570   5.805
 6695SOL    HW121918   4.124   8.595   5.812
 6695SOL    HW221919   4.024   8.493   5.862
 6696SOL     OW21920  13.984   4.506   9.862
 6696SOL    HW121921  13.940   4.503   9.777
 6696SOL    HW221922  13.959   4.424   9.905
 6697SOL     OW21923  11.692   0.704   6.116
 6697SOL    HW121924  11.651   0.714   6.030
 6697SOL    HW221925  11.630   0.651   6.167
 6698SOL     OW21926   3.693   0.032   9.828
 6698SOL    HW121927   3.612   0.044   9.877
 6698SOL    HW221928   3.695  14.818   9.807
 6699SOL     OW21929  12.058  10.248   0.117
 6699SOL    HW121930  12.147  10.280   0.128
 6699SOL    HW221931  12.010  10.281   0.193
 6700SOL     OW21932  14.800   4.277  14.114
 6700SOL    HW121933  14.796   4.187  14.149
 6700SOL    HW221934  14.770   4.332  14.187
 6701SOL     OW21935  14.009   0.540   6.482
 6701SOL    HW121936  13.940   0.592   6.443
 6701SOL    HW221937  14.029   0.584   6.565
 6702SOL     OW21938   0.692   6.861   9.941
 6702SOL    HW121939   0.660   6.824  10.024
 6702SOL    HW221940   0.636   6.938   9.927
 6703SOL     OW21941  10.150   0.028   2.265
 6703SOL    HW121942  10.243   0.041   2.283
 6703SOL    HW221943  10.112   0.116   2.272
 6704SOL     OW21944   9.251   9.422   1.332
 6704SOL    HW121945   9.233   9.412   1.239
 6704SOL    HW221946   9.179   9.475   1.366
 6705SOL     OW21947   3.334   0.445  12.727
 6705SOL    HW121948   3.373   0.435  12.814
 6705SOL    HW221949   3.364   0.531  12.698
 6706SOL     OW21950   4.752   4.150  11.847
 6706SOL    HW121951   4.839   4.130  11.882
 6706SOL    HW221952   4.696   4.156  11.924
 6707SOL     OW21953   8.819   4.829  13.846
 6707SOL    HW121954   8.833   4.884  13.922
 6707SOL    HW221955   8.819   4.889  13.772
 6708SOL     OW21956  12.744   8.162  10.369
 6708SOL    HW121957  12.711   8.088  10.420
 6708SOL    HW221958  12.695   8.238  10.401
 6709SOL     OW21959   0.049   8.892   0.876
 6709SOL    HW121960   0.028   8.801   0.855
 6709SOL    HW221961   0.116   8.886   0.944
 6710SOL     OW21962  11.564  14.853   4.627
 6710SOL    HW121963  11.633   0.026   4.668
 6710SOL    HW221964  11.611  14.788   4.575
 6711SOL     OW21965   6.450  12.978   2.140
 6711SOL    HW121966   6.414  12.990   2.052
 6711SOL    HW221967   6.538  13.015   2.134
 6712SOL     OW21968   2.873  11.603  10.303
 6712SOL    HW121969   2.925  11.640  10.375
 6712SOL    HW221970   2.825  11.530  10.344
 6713SOL     OW21971   3.646   4.171   9.733
 6713SOL    HW121972   3.662   4.260   9.764
 6713SOL    HW221973   3.563   4.177   9.686
 6714SOL     OW21974   2.402   4.119   0.814
 6714SOL    HW121975   2.316   4.078   0.813
 6714SOL    HW221976   2.442   4.094   0.731
 6715SOL     OW21977  10.573   8.138  13.353
 6715SOL    HW121978  10.547   8.166  13.265
 6715SOL    HW221979  10.586   8.220  13.401
 6716SOL     OW21980   2.446   9.675   5.051
 6716SOL    HW121981   2.386   9.603   5.071
 6716SOL    HW221982   2.411   9.749   5.100
 6717SOL     OW21983  12.642   9.816   6.171
 6717SOL    HW121984  12.593   9.764   6.108
 6717SOL    HW221985  12.734   9.801   6.149
 6718SOL     OW21986   4.611   4.229   5.599
 6718SOL    HW121987   4.587   4.138   5.581
 6718SOL    HW221988   4.528   4.277   5.594
 6719SOL     OW21989   2.535   0.837   4.794
 6719SOL    HW121990   2.596   0.893   4.841
 6719SOL    HW221991   2.465   0.819   4.856
 6720SOL     OW21992  11.064   0.015   1.324
 6720SOL    HW121993  11.158   0.027   1.312
 6720SOL    HW221994  11.054  14.799   1.337
 6721SOL     OW21995  13.295   7.271  12.984
 6721SOL    HW121996  13.271   7.363  12.995
 6721SOL    HW221997  13.296   7.236  13.073
 6722SOL     OW21998   1.628   5.540   2.285
 6722SOL    HW121999   1.599   5.527   2.194
 6722SOL    HW222000   1.561   5.497   2.338
 6723SOL     OW22001   0.707   2.404  10.506
 6723SOL    HW122002   0.652   2.474  10.470
 6723SOL    HW222003   0.716   2.342  10.434
 6724SOL     OW22004   1.482   3.919   8.024
 6724SOL    HW122005   1.561   3.903   7.973
 6724SOL    HW222006   1.499   4.002   8.069
 6725SOL     OW22007   0.894  10.134   9.694
 6725SOL    HW122008   0.976  10.153   9.648
 6725SOL    HW222009   0.826  10.164   9.633
 6726SOL     OW22010  13.985   0.220   0.580
 6726SOL    HW122011  14.004   0.126   0.576
 6726SOL    HW222012  13.958   0.243   0.491
 6727SOL     OW22013  12.046  13.195   3.897
 6727SOL    HW122014  12.105  13.241   3.956
 6727SOL    HW222015  11.966  13.182   3.947
 6728SOL     OW22016  13.239   0.772   3.471
 6728SOL    HW122017  13.252   0.702   3.535
 6728SOL    HW222018  13.145   0.785   3.468
 6729SOL     OW22019   7.553   1.636  12.192
 6729SOL    HW122020   7.585   1.582  12.265
 6729SOL    HW222021   7.459   1.641  12.206
 6730SOL     OW22022  13.399   2.445   3.831
 6730SOL    HW122023  13.458   2.399   3.891
 6730SOL    HW222024  13.443   2.440   3.746
 6731SOL     OW22025   3.639   5.648   9.021
 6731SOL    HW122026   3.592   5.708   9.079
 6731SOL    HW222027   3.730   5.679   9.023
 6732SOL     OW22028  13.162   6.698   4.992
 6732SOL    HW122029  13.217   6.714   4.915
 6732SOL    HW222030  13.090   6.760   4.984
 6733SOL     OW22031   4.684   3.269   3.389
 6733SOL    HW122032   4.734   3.191   3.413
 6733SOL    HW222033   4.649   3.250   3.302
 6734SOL     OW22034  14.080  13.714  13.307
 6734SOL    HW122035  14.132  13.713  13.387
 6734SOL    HW222036  14.119  13.783  13.254
 6735SOL     OW22037  12.569   6.138   4.696
 6735SOL    HW122038  12.634   6.208   4.696
 6735SOL    HW222039  12.508   6.161   4.765
 6736SOL     OW22040   0.975   6.230   2.955
 6736SOL    HW122041   0.989   6.227   2.860
 6736SOL    HW222042   0.899   6.173   2.970
 6737SOL     OW22043   7.744   6.425  11.823
 6737SOL    HW122044   7.713   6.355  11.765
 6737SOL    HW222045   7.673   6.438  11.886
 6738SOL     OW22046  13.859   0.510   5.849
 6738SOL    HW122047  13.884   0.547   5.934
 6738SOL    HW222048  13.817   0.583   5.803
 6739SOL     OW22049  11.005  11.832   8.938
 6739SOL    HW122050  10.958  11.827   8.854
 6739SOL    HW222051  10.936  11.828   9.004
 6740SOL     OW22052   5.170  13.332   7.342
 6740SOL    HW122053   5.150  13.385   7.265
 6740SOL    HW222054   5.231  13.385   7.392
 6741SOL     OW22055   3.389  10.975  13.670
 6741SOL    HW122056   3.363  11.034  13.599
 6741SOL    HW222057   3.380  11.027  13.750
 6742SOL     OW22058   5.717   8.762   5.746
 6742SOL    HW122059   5.744   8.854   5.737
 6742SOL    HW222060   5.740   8.740   5.837
 6743SOL     OW22061   3.764   5.352  13.193
 6743SOL    HW122062   3.672   5.329  13.180
 6743SOL    HW222063   3.797   5.368  13.105
 6744SOL     OW22064   6.621   6.571   7.131
 6744SOL    HW122065   6.594   6.517   7.205
 6744SOL    HW222066   6.619   6.512   7.056
 6745SOL     OW22067   3.123   4.513  11.368
 6745SOL    HW122068   3.111   4.568  11.291
 6745SOL    HW222069   3.037   4.514  11.411
 6746SOL     OW22070   6.046  14.459  11.819
 6746SOL    HW122071   6.056  14.384  11.877
 6746SOL    HW222072   6.116  14.448  11.754
 6747SOL     OW22073  10.566   2.866   3.823
 6747SOL    HW122074  10.625   2.797   3.851
 6747SOL    HW222075  10.540   2.910   3.904
 6748SOL     OW22076   4.489  14.580  11.338
 6748SOL    HW122077   4.401  14.595  11.304
 6748SOL    HW222078   4.507  14.658  11.391
 6749SOL     OW22079   7.362  13.606   9.073
 6749SOL    HW122080   7.322  13.675   9.125
 6749SOL    HW222081   7.456  13.614   9.091
 6750SOL     OW22082  14.121   4.598   2.689
 6750SOL    HW122083  14.201   4.563   2.649
 6750SOL    HW222084  14.128   4.576   2.782
 6751SOL     OW22085   5.800   9.550  10.716
 6751SOL    HW122086   5.802   9.466  10.761
 6751SOL    HW222087   5.786   9.614  10.785
 6752SOL     OW22088   8.053  11.397   6.553
 6752SOL    HW122089   8.109  11.474   6.548
 6752SOL    HW222090   8.039  11.372   6.461
 6753SOL     OW22091   2.998   1.606   1.814
 6753SOL    HW122092   3.006   1.667   1.741
 6753SOL    HW222093   2.910   1.569   1.805
 6754SOL     OW22094   8.286  11.924   1.557
 6754SOL    HW122095   8.344  11.947   1.629
 6754SOL    HW222096   8.340  11.933   1.478
 6755SOL     OW22097   0.953  10.815  12.708
 6755SOL    HW122098   0.879  10.757  12.730
 6755SOL    HW222099   0.916  10.903  12.711
 6756SOL     OW22100  11.974   3.050   4.923
 6756SOL    HW122101  12.050   3.099   4.892
 6756SOL    HW222102  12.005   3.004   5.001
 6757SOL     OW22103  11.554   3.662  12.751
 6757SOL    HW122104  11.598   3.705  12.824
 6757SOL    HW222105  11.539   3.732  12.687
 6758SOL     OW22106   4.850   9.578   2.101
 6758SOL    HW122107   4.790   9.535   2.162
 6758SOL    HW222108   4.915   9.621   2.157
 6759SOL     OW22109   1.445   9.557  11.588
 6759SOL    HW122110   1.528   9.518  11.558
 6759SOL    HW222111   1.433   9.632  11.531
 6760SOL     OW22112   3.382  12.178   8.568
 6760SOL    HW122113   3.347  12.098   8.607
 6760SOL    HW222114   3.435  12.148   8.494
 6761SOL     OW22115   5.866   3.974   2.912
 6761SOL    HW122116   5.898   4.061   2.932
 6761SOL    HW222117   5.802   3.955   2.981
 6762SOL     OW22118  11.858   1.273  13.863
 6762SOL    HW122119  11.901   1.242  13.784
 6762SOL    HW222120  11.785   1.326  13.832
 6763SOL     OW22121   4.647   8.959   2.397
 6763SOL    HW122122   4.657   9.049   2.367
 6763SOL    HW222123   4.708   8.950   2.470
 6764SOL     OW22124  11.876  13.684   1.614
 6764SOL    HW122125  11.864  13.613   1.552
 6764SOL    HW222126  11.835  13.653   1.695
 6765SOL     OW22127   1.445  14.466   2.210
 6765SOL    HW122128   1.430  14.445   2.118
 6765SOL    HW222129   1.470  14.558   2.209
 6766SOL     OW22130   3.448   8.853   1.034
 6766SOL    HW122131   3.537   8.875   1.009
 6766SOL    HW222132   3.447   8.757   1.037
 6767SOL     OW22133   4.941   6.134   9.058
 6767SOL    HW122134   4.860   6.182   9.039
 6767SOL    HW222135   5.009   6.202   9.063
 6768SOL     OW22136   4.656   2.959  13.324
 6768SOL    HW122137   4.688   2.928  13.408
 6768SOL    HW222138   4.667   3.054  13.328
 6769SOL     OW22139   4.741   3.386   4.047
 6769SOL    HW122140   4.706   3.381   4.136
 6769SOL    HW222141   4.768   3.297   4.026
 6770SOL     OW22142   5.491  13.144  11.698
 6770SOL    HW122143   5.486  13.051  11.677
 6770SOL    HW222144   5.399  13.173  11.700
 6771SOL     OW22145   3.501   1.013   3.598
 6771SOL    HW122146   3.459   1.092   3.632
 6771SOL    HW222147   3.544   1.042   3.518
 6772SOL     OW22148  14.554   1.952   0.371
 6772SOL    HW122149  14.500   2.006   0.313
 6772SOL    HW222150  14.608   2.015   0.419
 6773SOL     OW22151  12.855   9.308   3.828
 6773SOL    HW122152  12.931   9.349   3.869
 6773SOL    HW222153  12.824   9.372   3.764
 6774SOL     OW22154  11.618  10.190   7.907
 6774SOL    HW122155  11.597  10.142   7.827
 6774SOL    HW222156  11.627  10.281   7.879
 6775SOL     OW22157  12.072   5.150   7.906
 6775SOL    HW122158  12.061   5.071   7.853
 6775SOL    HW222159  11.983   5.180   7.924
 6776SOL     OW22160   6.288  11.096  13.836
 6776SOL    HW122161   6.360  11.118  13.896
 6776SOL    HW222162   6.213  11.083  13.893
 6777SOL     OW22163  10.619  14.384   7.102
 6777SOL    HW122164  10.539  14.363   7.151
 6777SOL    HW222165  10.677  14.310   7.118
 6778SOL     OW22166   2.964   1.283  14.681
 6778SOL    HW122167   2.952   1.366  14.728
 6778SOL    HW222168   3.051   1.254  14.706
 6779SOL     OW22169   2.956   8.747  12.629
 6779SOL    HW122170   2.972   8.717  12.719
 6779SOL    HW222171   2.906   8.828  12.640
 6780SOL     OW22172   2.142  10.516  14.277
 6780SOL    HW122173   2.211  10.478  14.222
 6780SOL    HW222174   2.093  10.441  14.310
 6781SOL     OW22175  13.302  12.140   0.728
 6781SOL    HW122176  13.235  12.141   0.796
 6781SOL    HW222177  13.302  12.050   0.696
 6782SOL     OW22178   2.068  10.988  10.258
 6782SOL    HW122179   2.089  10.895  10.265
 6782SOL    HW222180   2.094  11.012  10.169
 6783SOL     OW22181   0.955   7.716  10.562
 6783SOL    HW122182   0.958   7.736  10.656
 6783SOL    HW222183   0.875   7.665  10.551
 6784SOL     OW22184   1.417   9.713  14.716
 6784SOL    HW122185   1.455   9.752  14.638
 6784SOL    HW222186   1.345   9.772  14.739
 6785SOL     OW22187   9.008  11.191   9.418
 6785SOL    HW122188   9.095  11.215   9.447
 6785SOL    HW222189   9.006  11.095   9.424
 6786SOL     OW22190  14.010  12.314  13.021
 6786SOL    HW122191  13.966  12.294  12.938
 6786SOL    HW222192  13.955  12.272  13.088
 6787SOL     OW22193   9.305   2.886   2.161
 6787SOL    HW122194   9.317   2.976   2.130
 6787SOL    HW222195   9.357   2.833   2.101
 6788SOL     OW22196   7.576  13.229  10.465
 6788SOL    HW122197   7.586  13.134  10.463
 6788SOL    HW222198   7.500  13.247  10.410
 6789SOL     OW22199   4.805  12.737  12.831
 6789SOL    HW122200   4.734  12.713  12.890
 6789SOL    HW222201   4.836  12.822  12.864
 6790SOL     OW22202   5.645   8.331   5.577
 6790SOL    HW122203   5.569   8.295   5.530
 6790SOL    HW222204   5.666   8.412   5.530
 6791SOL     OW22205  13.247  12.256   5.981
 6791SOL    HW122206  13.259  12.224   5.891
 6791SOL    HW222207  13.298  12.196   6.035
 6792SOL     OW22208   4.198   8.006   6.521
 6792SOL    HW122209   4.276   7.951   6.529
 6792SOL    HW222210   4.209   8.073   6.589
 6793SOL     OW22211   2.202   1.775   1.621
 6793SOL    HW122212   2.258   1.749   1.694
 6793SOL    HW222213   2.218   1.708   1.554
 6794SOL     OW22214   9.692   9.547   5.315
 6794SOL    HW122215   9.598   9.547   5.298
 6794SOL    HW222216   9.721   9.635   5.291
 6795SOL     OW22217  10.524  10.293   3.057
 6795SOL    HW122218  10.572  10.373   3.075
 6795SOL    HW222219  10.474  10.312   2.978
 6796SOL     OW22220   5.006  11.368   7.848
 6796SOL    HW122221   5.060  11.312   7.792
 6796SOL    HW222222   4.958  11.306   7.904
 6797SOL     OW22223   2.597   8.771  12.363
 6797SOL    HW122224   2.631   8.854  12.329
 6797SOL    HW222225   2.502   8.784  12.366
 6798SOL     OW22226  14.427  11.317   0.731
 6798SOL    HW122227  14.386  11.403   0.735
 6798SOL    HW222228  14.400  11.274   0.813
 6799SOL     OW22229   2.532   7.177   8.485
 6799SOL    HW122230   2.501   7.222   8.564
 6799SOL    HW222231   2.619   7.145   8.508
 6800SOL     OW22232   6.107   3.441   3.172
 6800SOL    HW122233   6.157   3.486   3.241
 6800SOL    HW222234   6.170   3.380   3.134
 6801SOL     OW22235   5.843   5.614   7.563
 6801SOL    HW122236   5.797   5.606   7.480
 6801SOL    HW222237   5.787   5.568   7.626
 6802SOL     OW22238  13.065   2.305   2.506
 6802SOL    HW122239  13.093   2.352   2.584
 6802SOL    HW222240  13.020   2.371   2.453
 6803SOL     OW22241   6.972  13.786  11.558
 6803SOL    HW122242   7.062  13.819  11.563
 6803SOL    HW222243   6.969  13.717  11.625
 6804SOL     OW22244   2.322   3.884   6.243
 6804SOL    HW122245   2.312   3.975   6.215
 6804SOL    HW222246   2.232   3.852   6.253
 6805SOL     OW22247  10.038  10.664   2.757
 6805SOL    HW122248  10.111  10.710   2.716
 6805SOL    HW222249   9.968  10.667   2.691
 6806SOL     OW22250   9.375   2.737   5.022
 6806SOL    HW122251   9.463   2.711   4.996
 6806SOL    HW222252   9.354   2.811   4.964
 6807SOL     OW22253  13.130   7.482   6.725
 6807SOL    HW122254  13.206   7.455   6.674
 6807SOL    HW222255  13.131   7.425   6.802
 6808SOL     OW22256   7.015   7.692   2.259
 6808SOL    HW122257   7.035   7.718   2.169
 6808SOL    HW222258   7.083   7.627   2.280
 6809SOL     OW22259   4.191   4.842  10.847
 6809SOL    HW122260   4.215   4.902  10.777
 6809SOL    HW222261   4.230   4.879  10.926
 6810SOL     OW22262   6.253   2.410  10.573
 6810SOL    HW122263   6.204   2.341  10.618
 6810SOL    HW222264   6.269   2.476  10.641
 6811SOL     OW22265   5.216   6.520   0.396
 6811SOL    HW122266   5.303   6.525   0.356
 6811SOL    HW222267   5.156   6.517   0.322
 6812SOL     OW22268   8.606  10.786   7.570
 6812SOL    HW122269   8.545  10.859   7.559
 6812SOL    HW222270   8.607  10.769   7.664
 6813SOL     OW22271   0.438   0.190   8.378
 6813SOL    HW122272   0.493   0.181   8.456
 6813SOL    HW222273   0.408   0.281   8.380
 6814SOL     OW22274  14.857  14.486   5.257
 6814SOL    HW122275  14.864  14.396   5.287
 6814SOL    HW222276  14.764  14.498   5.240
 6815SOL     OW22277   9.926   1.020   1.465
 6815SOL    HW122278  10.002   1.078   1.464
 6815SOL    HW222279   9.905   1.006   1.373
 6816SOL     OW22280  11.189   8.566   2.453
 6816SOL    HW122281  11.271   8.519   2.439
 6816SOL    HW222282  11.121   8.501   2.437
 6817SOL     OW22283   0.920  10.736   0.471
 6817SOL    HW122284   0.865  10.663   0.499
 6817SOL    HW222285   0.966  10.703   0.394
 6818SOL     OW22286  13.401  10.938   3.703
 6818SOL    HW122287  13.364  10.892   3.628
 6818SOL    HW222288  13.491  10.906   3.709
 6819SOL     OW22289   9.077  13.168  13.388
 6819SOL    HW122290   9.049  13.257  13.406
 6819SOL    HW222291   9.047  13.151  13.298
 6820SOL     OW22292   6.409   4.390   2.069
 6820SOL    HW122293   6.385   4.373   1.978
 6820SOL    HW222294   6.502   4.366   2.074
 6821SOL     OW22295  10.841   7.673  11.225
 6821SOL    HW122296  10.918   7.618  11.213
 6821SOL    HW222297  10.843   7.697  11.318
 6822SOL     OW22298   5.003  14.528   3.571
 6822SOL    HW122299   5.033  14.447   3.613
 6822SOL    HW222300   4.977  14.501   3.482
 6823SOL     OW22301   8.530  13.984  13.990
 6823SOL    HW122302   8.439  14.013  13.994
 6823SOL    HW222303   8.575  14.053  13.941
 6824SOL     OW22304   4.740   7.368   6.950
 6824SOL    HW122305   4.651   7.396   6.929
 6824SOL    HW222306   4.775   7.439   7.004
 6825SOL     OW22307   3.695   2.862   5.369
 6825SOL    HW122308   3.783   2.871   5.334
 6825SOL    HW222309   3.641   2.918   5.314
 6826SOL     OW22310   2.889  14.438   3.224
 6826SOL    HW122311   2.799  14.467   3.211
 6826SOL    HW222312   2.889  14.399   3.311
 6827SOL     OW22313   0.844  12.526   4.019
 6827SOL    HW122314   0.871  12.600   4.074
 6827SOL    HW222315   0.860  12.449   4.074
 6828SOL     OW22316   4.785   3.731   0.253
 6828SOL    HW122317   4.879   3.747   0.258
 6828SOL    HW222318   4.776   3.662   0.187
 6829SOL     OW22319   9.025   5.062  12.937
 6829SOL    HW122320   9.079   5.005  12.991
 6829SOL    HW222321   8.940   5.018  12.932
 6830SOL     OW22322  13.386   4.448  11.434
 6830SOL    HW122323  13.444   4.509  11.479
 6830SOL    HW222324  13.369   4.378  11.497
 6831SOL     OW22325   8.377   1.014   4.132
 6831SOL    HW122326   8.460   1.019   4.085
 6831SOL    HW222327   8.368   0.921   4.154
 6832SOL     OW22328  11.688   2.912   0.301
 6832SOL    HW122329  11.744   2.951   0.234
 6832SOL    HW222330  11.745   2.848   0.345
 6833SOL     OW22331  10.863  12.036  11.045
 6833SOL    HW122332  10.926  12.101  11.074
 6833SOL    HW222333  10.883  11.958  11.097
 6834SOL     OW22334   5.081  13.010  14.306
 6834SOL    HW122335   5.080  12.917  14.331
 6834SOL    HW222336   5.095  13.009  14.212
 6835SOL     OW22337   1.595   9.027   7.368
 6835SOL    HW122338   1.598   9.075   7.451
 6835SOL    HW222339   1.677   8.977   7.366
 6836SOL     OW22340   3.679  13.498   7.405
 6836SOL    HW122341   3.585  13.478   7.402
 6836SOL    HW222342   3.714  13.458   7.325
 6837SOL     OW22343  11.561  12.727   3.147
 6837SOL    HW122344  11.648  12.764   3.164
 6837SOL    HW222345  11.546  12.667   3.220
 6838SOL     OW22346   6.621  14.529   6.764
 6838SOL    HW122347   6.585  14.511   6.851
 6838SOL    HW222348   6.638  14.624   6.765
 6839SOL     OW22349  14.227   5.324   9.279
 6839SOL    HW122350  14.248   5.295   9.368
 6839SOL    HW222351  14.309   5.359   9.245
 6840SOL     OW22352   9.872  10.767   1.033
 6840SOL    HW122353   9.777  10.779   1.029
 6840SOL    HW222354   9.904  10.791   0.946
 6841SOL     OW22355   5.712   3.271   6.689
 6841SOL    HW122356   5.755   3.332   6.628
 6841SOL    HW222357   5.740   3.300   6.776
 6842SOL     OW22358   3.988  13.496  10.765
 6842SOL    HW122359   4.046  13.516  10.692
 6842SOL    HW222360   3.920  13.563  10.761
 6843SOL     OW22361   9.966   4.416   8.094
 6843SOL    HW122362   9.993   4.387   8.007
 6843SOL    HW222363   9.888   4.365   8.114
 6844SOL     OW22364   7.852  12.758  10.535
 6844SOL    HW122365   7.938  12.721  10.519
 6844SOL    HW222366   7.827  12.796  10.451
 6845SOL     OW22367   2.041   2.525  13.770
 6845SOL    HW122368   2.096   2.456  13.808
 6845SOL    HW222369   2.012   2.577  13.845
 6846SOL     OW22370   7.541  13.420   4.001
 6846SOL    HW122371   7.544  13.479   4.076
 6846SOL    HW222372   7.490  13.345   4.031
 6847SOL     OW22373  11.841   3.908  14.456
 6847SOL    HW122374  11.927   3.944  14.433
 6847SOL    HW222375  11.862   3.827  14.504
 6848SOL     OW22376  13.476   3.013   2.931
 6848SOL    HW122377  13.450   3.036   3.020
 6848SOL    HW222378  13.452   2.920   2.922
 6849SOL     OW22379  11.581   2.343  13.570
 6849SOL    HW122380  11.677   2.342  13.574
 6849SOL    HW222381  11.557   2.421  13.619
 6850SOL     OW22382  14.191   2.635   8.654
 6850SOL    HW122383  14.164   2.713   8.604
 6850SOL    HW222384  14.156   2.649   8.742
 6851SOL     OW22385   1.127   9.509  11.572
 6851SOL    HW122386   1.039   9.527  11.540
 6851SOL    HW222387   1.115   9.493  11.666
 6852SOL     OW22388   4.168   6.837   5.506
 6852SOL    HW122389   4.176   6.742   5.512
 6852SOL    HW222390   4.241   6.871   5.559
 6853SOL     OW22391   5.701  12.691   8.198
 6853SOL    HW122392   5.642  12.687   8.273
 6853SOL    HW222393   5.760  12.617   8.209
 6854SOL     OW22394   8.990  10.616   7.244
 6854SOL    HW122395   9.024  10.701   7.217
 6854SOL    HW222396   8.908  10.637   7.289
 6855SOL     OW22397   8.666   8.254   3.641
 6855SOL    HW122398   8.576   8.277   3.617
 6855SOL    HW222399   8.675   8.162   3.614
 6856SOL     OW22400   5.793  11.892   1.613
 6856SOL    HW122401   5.832  11.835   1.547
 6856SOL    HW222402   5.737  11.951   1.563
 6857SOL     OW22403  12.958  11.293  13.663
 6857SOL    HW122404  12.907  11.227  13.710
 6857SOL    HW222405  13.040  11.301  13.712
 6858SOL     OW22406  11.036  11.565   4.609
 6858SOL    HW122407  11.083  11.524   4.682
 6858SOL    HW222408  10.947  11.533   4.617
 6859SOL     OW22409   6.187  11.733   4.276
 6859SOL    HW122410   6.123  11.794   4.239
 6859SOL    HW222411   6.250  11.789   4.322
 6860SOL     OW22412   7.213   6.361   2.586
 6860SOL    HW122413   7.171   6.439   2.622
 6860SOL    HW222414   7.212   6.298   2.658
 6861SOL     OW22415   8.744  13.036   6.512
 6861SOL    HW122416   8.756  13.000   6.425
 6861SOL    HW222417   8.679  12.979   6.553
 6862SOL     OW22418   9.518  10.714   2.717
 6862SOL    HW122419   9.486  10.624   2.724
 6862SOL    HW222420   9.450  10.760   2.669
 6863SOL     OW22421  13.583   5.864   6.198
 6863SOL    HW122422  13.642   5.796   6.230
 6863SOL    HW222423  13.529   5.886   6.273
 6864SOL     OW22424   8.191   6.138   9.297
 6864SOL    HW122425   8.120   6.195   9.268
 6864SOL    HW222426   8.195   6.070   9.229
 6865SOL     OW22427   5.612   2.956  14.151
 6865SOL    HW122428   5.656   2.920  14.228
 6865SOL    HW222429   5.550   2.889  14.125
 6866SOL     OW22430  13.375   0.528  10.984
 6866SOL    HW122431  13.364   0.451  10.929
 6866SOL    HW222432  13.351   0.602  10.928
 6867SOL     OW22433   0.747   1.667   4.123
 6867SOL    HW122434   0.773   1.577   4.105
 6867SOL    HW222435   0.827   1.709   4.154
 6868SOL     OW22436   3.215  13.954   9.497
 6868SOL    HW122437   3.165  13.974   9.418
 6868SOL    HW222438   3.234  13.860   9.489
 6869SOL     OW22439   2.835  10.358   0.522
 6869SOL    HW122440   2.913  10.309   0.497
 6869SOL    HW222441   2.850  10.383   0.613
 6870SOL     OW22442  13.954  10.269   8.000
 6870SOL    HW122443  13.858  10.271   8.002
 6870SOL    HW222444  13.980  10.275   8.092
 6871SOL     OW22445   6.961   2.643  13.748
 6871SOL    HW122446   7.001   2.557  13.734
 6871SOL    HW222447   7.009   2.679  13.822
 6872SOL     OW22448  11.909   2.261  13.667
 6872SOL    HW122449  11.903   2.355  13.653
 6872SOL    HW222450  11.895   2.222  13.581
 6873SOL     OW22451   8.558  11.633   6.925
 6873SOL    HW122452   8.576  11.541   6.907
 6873SOL    HW222453   8.538  11.635   7.019
 6874SOL     OW22454   4.980   4.146  11.980
 6874SOL    HW122455   5.001   4.240  11.986
 6874SOL    HW222456   5.048   4.103  12.032
 6875SOL     OW22457   9.712   4.301  14.074
 6875SOL    HW122458   9.689   4.367  14.140
 6875SOL    HW222459   9.673   4.333  13.993
 6876SOL     OW22460  13.765  12.884  11.067
 6876SOL    HW122461  13.840  12.899  11.125
 6876SOL    HW222462  13.733  12.797  11.091
 6877SOL     OW22463   9.151   8.645   9.475
 6877SOL    HW122464   9.121   8.612   9.390
 6877SOL    HW222465   9.072   8.648   9.529
 6878SOL     OW22466   6.169   9.168   0.037
 6878SOL    HW122467   6.199   9.143   0.125
 6878SOL    HW222468   6.116   9.094   0.008
 6879SOL     OW22469  10.126  10.237  14.544
 6879SOL    HW122470  10.093  10.237  14.634
 6879SOL    HW222471  10.217  10.264  14.551
 6880SOL     OW22472  12.561  10.668  13.075
 6880SOL    HW122473  12.486  10.667  13.016
 6880SOL    HW222474  12.638  10.665  13.017
 6881SOL     OW22475   2.886   7.604   2.106
 6881SOL    HW122476   2.913   7.663   2.176
 6881SOL    HW222477   2.799   7.633   2.081
 6882SOL     OW22478   9.326  10.588   6.522
 6882SOL    HW122479   9.336  10.558   6.612
 6882SOL    HW222480   9.247  10.544   6.490
 6883SOL     OW22481  10.185   7.427   7.799
 6883SOL    HW122482  10.192   7.493   7.868
 6883SOL    HW222483  10.268   7.433   7.752
 6884SOL     OW22484   9.172   3.371   4.291
 6884SOL    HW122485   9.094   3.316   4.287
 6884SOL    HW222486   9.143   3.450   4.338
 6885SOL     OW22487  14.380   5.678  11.293
 6885SOL    HW122488  14.303   5.625  11.269
 6885SOL    HW222489  14.453   5.637  11.246
 6886SOL     OW22490   8.745  11.574   0.318
 6886SOL    HW122491   8.752  11.494   0.265
 6886SOL    HW222492   8.836  11.600   0.335
 6887SOL     OW22493   7.337  10.474   7.219
 6887SOL    HW122494   7.257  10.514   7.254
 6887SOL    HW222495   7.343  10.389   7.263
 6888SOL     OW22496  13.820   3.268   9.067
 6888SOL    HW122497  13.861   3.208   9.006
 6888SOL    HW222498  13.894   3.314   9.108
 6889SOL     OW22499  14.835   3.421   5.835
 6889SOL    HW122500   0.033   3.459   5.793
 6889SOL    HW222501  14.776   3.495   5.850
 6890SOL     OW22502   5.884   0.585  14.625
 6890SOL    HW122503   5.808   0.556  14.574
 6890SOL    HW222504   5.901   0.513  14.686
 6891SOL     OW22505  10.928   4.246   1.133
 6891SOL    HW122506  10.845   4.290   1.149
 6891SOL    HW222507  10.940   4.251   1.038
 6892SOL     OW22508  13.791   2.355   5.024
 6892SOL    HW122509  13.758   2.407   5.097
 6892SOL    HW222510  13.730   2.281   5.017
 6893SOL     OW22511   4.896   8.093   9.537
 6893SOL    HW122512   4.851   8.013   9.511
 6893SOL    HW222513   4.982   8.064   9.568
 6894SOL     OW22514   1.950  14.365   9.606
 6894SOL    HW122515   2.026  14.387   9.552
 6894SOL    HW222516   1.910  14.290   9.562
 6895SOL     OW22517  14.173   0.783  10.407
 6895SOL    HW122518  14.099   0.842  10.423
 6895SOL    HW222519  14.133   0.697  10.396
 6896SOL     OW22520   8.811   5.664  12.659
 6896SOL    HW122521   8.827   5.705  12.743
 6896SOL    HW222522   8.830   5.732  12.595
 6897SOL     OW22523   6.406  10.840  14.309
 6897SOL    HW122524   6.364  10.758  14.283
 6897SOL    HW222525   6.338  10.907  14.298
 6898SOL     OW22526   1.165   1.231  13.035
 6898SOL    HW122527   1.238   1.193  13.083
 6898SOL    HW222528   1.087   1.197  13.079
 6899SOL     OW22529  13.278   2.940   1.666
 6899SOL    HW122530  13.319   2.994   1.734
 6899SOL    HW222531  13.352   2.896   1.624
 6900SOL     OW22532   3.009  13.332   2.513
 6900SOL    HW122533   3.101  13.318   2.535
 6900SOL    HW222534   2.966  13.347   2.597
 6901SOL     OW22535  13.495  10.311   7.180
 6901SOL    HW122536  13.485  10.218   7.200
 6901SOL    HW222537  13.406  10.342   7.161
 6902SOL     OW22538   4.065   5.063  13.483
 6902SOL    HW122539   3.995   5.114  13.441
 6902SOL    HW222540   4.144   5.115  13.468
 6903SOL     OW22541   0.669   2.093   3.748
 6903SOL    HW122542   0.751   2.046   3.762
 6903SOL    HW222543   0.601   2.030   3.771
 6904SOL     OW22544   3.373   4.353   4.234
 6904SOL    HW122545   3.364   4.345   4.139
 6904SOL    HW222546   3.296   4.307   4.268
 6905SOL     OW22547  12.590   4.011  11.168
 6905SOL    HW122548  12.578   4.068  11.244
 6905SOL    HW222549  12.547   3.929  11.194
 6906SOL     OW22550   0.684  14.868   2.012
 6906SOL    HW122551   0.717   0.015   2.099
 6906SOL    HW222552   0.690   0.069   1.960
 6907SOL     OW22553  12.006   8.914  10.680
 6907SOL    HW122554  11.943   8.984  10.698
 6907SOL    HW222555  12.055   8.945  10.603
 6908SOL     OW22556   7.417   1.247  14.136
 6908SOL    HW122557   7.370   1.316  14.182
 6908SOL    HW222558   7.509   1.273  14.142
 6909SOL     OW22559   7.672   0.545   5.849
 6909SOL    HW122560   7.733   0.542   5.923
 6909SOL    HW222561   7.611   0.615   5.870
 6910SOL     OW22562   6.179   4.474  12.695
 6910SOL    HW122563   6.150   4.524  12.771
 6910SOL    HW222564   6.267   4.508  12.676
 6911SOL     OW22565   6.066   5.231  11.101
 6911SOL    HW122566   6.016   5.158  11.065
 6911SOL    HW222567   6.001   5.284  11.148
 6912SOL     OW22568   8.280   9.524   6.242
 6912SOL    HW122569   8.187   9.545   6.247
 6912SOL    HW222570   8.324   9.610   6.242
 6913SOL     OW22571   8.823   0.587   6.598
 6913SOL    HW122572   8.741   0.578   6.647
 6913SOL    HW222573   8.874   0.649   6.648
 6914SOL     OW22574  11.345  10.541  13.133
 6914SOL    HW122575  11.436  10.540  13.162
 6914SOL    HW222576  11.336  10.624  13.085
 6915SOL     OW22577   6.510   5.598  13.755
 6915SOL    HW122578   6.556   5.558  13.680
 6915SOL    HW222579   6.418   5.600  13.728
 6916SOL     OW22580   6.593  14.581   4.815
 6916SOL    HW122581   6.662  14.606   4.876
 6916SOL    HW222582   6.639  14.543   4.741
 6917SOL     OW22583   9.815   5.953   0.529
 6917SOL    HW122584   9.724   5.978   0.514
 6917SOL    HW222585   9.809   5.873   0.582
 6918SOL     OW22586   3.435   1.703  11.274
 6918SOL    HW122587   3.367   1.753  11.229
 6918SOL    HW222588   3.401   1.691  11.363
 6919SOL     OW22589   2.128  13.189  11.425
 6919SOL    HW122590   2.105  13.250  11.495
 6919SOL    HW222591   2.071  13.113  11.440
 6920SOL     OW22592   9.696  13.002   0.862
 6920SOL    HW122593   9.789  13.024   0.859
 6920SOL    HW222594   9.683  12.964   0.948
 6921SOL     OW22595  12.628  14.741   6.216
 6921SOL    HW122596  12.657  14.816   6.267
 6921SOL    HW222597  12.658  14.665   6.265
 6922SOL     OW22598   0.366   4.857   3.002
 6922SOL    HW122599   0.400   4.783   3.052
 6922SOL    HW222600   0.431   4.927   3.017
 6923SOL     OW22601  13.511   7.807   5.856
 6923SOL    HW122602  13.590   7.757   5.875
 6923SOL    HW222603  13.494   7.856   5.937
 6924SOL     OW22604   9.171   2.214  13.235
 6924SOL    HW122605   9.105   2.163  13.283
 6924SOL    HW222606   9.244   2.153  13.224
 6925SOL     OW22607   6.110  13.624   3.367
 6925SOL    HW122608   6.116  13.640   3.461
 6925SOL    HW222609   6.035  13.565   3.357
 6926SOL     OW22610   4.332   1.724   7.211
 6926SOL    HW122611   4.413   1.756   7.250
 6926SOL    HW222612   4.292   1.671   7.280
 6927SOL     OW22613   3.328   8.659   0.273
 6927SOL    HW122614   3.376   8.603   0.335
 6927SOL    HW222615   3.331   8.610   0.191
 6928SOL     OW22616   0.081   9.857  11.902
 6928SOL    HW122617   0.171   9.858  11.868
 6928SOL    HW222618   0.088   9.896  11.989
 6929SOL     OW22619   4.780   9.882  10.183
 6929SOL    HW122620   4.817   9.966  10.156
 6929SOL    HW222621   4.711   9.905  10.245
 6930SOL     OW22622   9.510  10.075   8.423
 6930SOL    HW122623   9.583  10.087   8.485
 6930SOL    HW222624   9.464   9.998   8.456
 6931SOL     OW22625  11.411  11.286  11.544
 6931SOL    HW122626  11.490  11.336  11.525
 6931SOL    HW222627  11.434  11.196  11.522
 6932SOL     OW22628   7.846  13.929   3.197
 6932SOL    HW122629   7.802  13.875   3.263
 6932SOL    HW222630   7.823  14.018   3.220
 6933SOL     OW22631  11.490   5.141   6.294
 6933SOL    HW122632  11.408   5.179   6.264
 6933SOL    HW222633  11.517   5.197   6.368
 6934SOL     OW22634   9.637   4.336   8.432
 6934SOL    HW122635   9.556   4.337   8.482
 6934SOL    HW222636   9.668   4.246   8.436
 6935SOL     OW22637   6.468   2.421  13.200
 6935SOL    HW122638   6.430   2.345  13.246
 6935SOL    HW222639   6.534   2.454  13.260
 6936SOL     OW22640   1.048   7.404  14.178
 6936SOL    HW122641   0.976   7.406  14.242
 6936SOL    HW222642   1.121   7.447  14.224
 6937SOL     OW22643  13.052   2.412  11.614
 6937SOL    HW122644  12.979   2.454  11.658
 6937SOL    HW222645  13.071   2.335  11.667
 6938SOL     OW22646   4.507   8.250   2.130
 6938SOL    HW122647   4.446   8.252   2.204
 6938SOL    HW222648   4.455   8.218   2.057
 6939SOL     OW22649   5.368   4.164   1.487
 6939SOL    HW122650   5.319   4.087   1.518
 6939SOL    HW222651   5.355   4.230   1.555
 6940SOL     OW22652   9.433   5.772   2.249
 6940SOL    HW122653   9.498   5.702   2.244
 6940SOL    HW222654   9.439   5.805   2.339
 6941SOL     OW22655   6.185   3.822   2.537
 6941SOL    HW122656   6.135   3.847   2.615
 6941SOL    HW222657   6.178   3.727   2.534
 6942SOL     OW22658   0.890   6.145   2.697
 6942SOL    HW122659   0.894   6.201   2.619
 6942SOL    HW222660   0.844   6.066   2.667
 6943SOL     OW22661   2.141   0.130   2.454
 6943SOL    HW122662   2.130   0.222   2.475
 6943SOL    HW222663   2.195   0.128   2.376
 6944SOL     OW22664   4.803   3.858   9.268
 6944SOL    HW122665   4.713   3.883   9.287
 6944SOL    HW222666   4.831   3.918   9.199
 6945SOL     OW22667  14.465   6.018   1.516
 6945SOL    HW122668  14.445   6.056   1.430
 6945SOL    HW222669  14.383   6.026   1.564
 6946SOL     OW22670  10.127   3.313   3.564
 6946SOL    HW122671  10.036   3.305   3.536
 6946SOL    HW222672  10.149   3.405   3.549
 6947SOL     OW22673   5.328   0.285   1.416
 6947SOL    HW122674   5.301   0.338   1.341
 6947SOL    HW222675   5.322   0.195   1.385
 6948SOL     OW22676   7.077   4.051  11.773
 6948SOL    HW122677   7.159   4.022  11.814
 6948SOL    HW222678   7.095   4.047  11.679
 6949SOL     OW22679   5.548  12.488  14.760
 6949SOL    HW122680   5.491  12.527  14.826
 6949SOL    HW222681   5.499  12.413  14.727
 6950SOL     OW22682  13.328   7.484   4.532
 6950SOL    HW122683  13.287   7.569   4.513
 6950SOL    HW222684  13.386   7.502   4.606
 6951SOL     OW22685   4.305   2.439  11.641
 6951SOL    HW122686   4.287   2.365  11.699
 6951SOL    HW222687   4.274   2.516  11.690
 6952SOL     OW22688  12.613  13.163   0.124
 6952SOL    HW122689  12.688  13.160   0.183
 6952SOL    HW222690  12.648  13.194   0.041
 6953SOL     OW22691   9.596  13.830   9.167
 6953SOL    HW122692   9.646  13.828   9.249
 6953SOL    HW222693   9.598  13.739   9.136
 6954SOL     OW22694   1.436   5.436   2.465
 6954SOL    HW122695   1.467   5.412   2.553
 6954SOL    HW222696   1.353   5.390   2.456
 6955SOL     OW22697   7.909   2.550   5.356
 6955SOL    HW122698   7.869   2.478   5.406
 6955SOL    HW222699   7.914   2.623   5.418
 6956SOL     OW22700  10.379   3.565  12.782
 6956SOL    HW122701  10.322   3.488  12.785
 6956SOL    HW222702  10.351   3.618  12.857
 6957SOL     OW22703   3.084   8.617   1.644
 6957SOL    HW122704   3.095   8.672   1.566
 6957SOL    HW222705   3.125   8.666   1.715
 6958SOL     OW22706   5.669   3.128   6.181
 6958SOL    HW122707   5.615   3.113   6.258
 6958SOL    HW222708   5.691   3.040   6.150
 6959SOL     OW22709   6.756   4.378   7.362
 6959SOL    HW122710   6.786   4.425   7.284
 6959SOL    HW222711   6.668   4.412   7.379
 6960SOL     OW22712  13.362   4.056   5.395
 6960SOL    HW122713  13.281   4.011   5.418
 6960SOL    HW222714  13.425   3.985   5.379
 6961SOL     OW22715  10.516   5.756  10.921
 6961SOL    HW122716  10.593   5.756  10.863
 6961SOL    HW222717  10.488   5.665  10.923
 6962SOL     OW22718   1.060   1.067   1.582
 6962SOL    HW122719   1.147   1.074   1.543
 6962SOL    HW222720   1.021   0.991   1.539
 6963SOL     OW22721   6.166  12.718   0.940
 6963SOL    HW122722   6.227  12.771   0.889
 6963SOL    HW222723   6.081  12.733   0.899
 6964SOL     OW22724   1.974  10.931   4.014
 6964SOL    HW122725   2.042  10.989   3.979
 6964SOL    HW222726   2.003  10.911   4.103
 6965SOL     OW22727  10.291   7.777   3.021
 6965SOL    HW122728  10.328   7.830   2.951
 6965SOL    HW222729  10.253   7.840   3.082
 6966SOL     OW22730   5.541  11.064   1.463
 6966SOL    HW122731   5.633  11.038   1.451
 6966SOL    HW222732   5.525  11.053   1.556
 6967SOL     OW22733   8.489   8.106  14.869
 6967SOL    HW122734   8.448   8.041  14.811
 6967SOL    HW222735   8.524   8.172  14.810
 6968SOL     OW22736  10.744   2.600   7.158
 6968SOL    HW122737  10.826   2.557   7.137
 6968SOL    HW222738  10.736   2.594   7.253
 6969SOL     OW22739   4.128  11.442   7.795
 6969SOL    HW122740   4.198  11.425   7.858
 6969SOL    HW222741   4.051  11.461   7.850
 6970SOL     OW22742   3.367   3.189   5.944
 6970SOL    HW122743   3.331   3.188   5.855
 6970SOL    HW222744   3.462   3.195   5.932
 6971SOL     OW22745  12.020  10.831  10.597
 6971SOL    HW122746  11.959  10.879  10.652
 6971SOL    HW222747  12.062  10.898  10.543
 6972SOL     OW22748  13.613  10.505  12.929
 6972SOL    HW122749  13.544  10.444  12.957
 6972SOL    HW222750  13.623  10.489  12.835
 6973SOL     OW22751  13.135   4.263   4.518
 6973SOL    HW122752  13.185   4.265   4.436
 6973SOL    HW222753  13.099   4.351   4.526
 6974SOL     OW22754  12.393   0.571   1.703
 6974SOL    HW122755  12.298   0.579   1.713
 6974SOL    HW222756  12.405   0.496   1.646
 6975SOL     OW22757  12.682   6.184  11.867
 6975SOL    HW122758  12.755   6.122  11.864
 6975SOL    HW222759  12.721   6.268  11.840
 6976SOL     OW22760   0.138  11.131   9.641
 6976SOL    HW122761   0.219  11.112   9.689
 6976SOL    HW222762   0.076  11.065   9.672
 6977SOL     OW22763   4.579  13.216  14.138
 6977SOL    HW122764   4.587  13.265  14.056
 6977SOL    HW222765   4.556  13.282  14.203
 6978SOL     OW22766  10.411   8.716  10.930
 6978SOL    HW122767  10.428   8.669  11.012
 6978SOL    HW222768  10.354   8.788  10.956
 6979SOL     OW22769   5.648   3.279   7.787
 6979SOL    HW122770   5.695   3.360   7.808
 6979SOL    HW222771   5.666   3.222   7.862
 6980SOL     OW22772  10.316   7.738  11.285
 6980SOL    HW122773  10.346   7.650  11.262
 6980SOL    HW222774  10.287   7.730  11.376
 6981SOL     OW22775  11.192   7.927   4.906
 6981SOL    HW122776  11.103   7.962   4.901
 6981SOL    HW222777  11.222   7.950   4.994
 6982SOL     OW22778   5.443   5.400   9.517
 6982SOL    HW122779   5.400   5.320   9.548
 6982SOL    HW222780   5.373   5.449   9.473
 6983SOL     OW22781  14.862  13.912  11.418
 6983SOL    HW122782   0.028  13.842  11.465
 6983SOL    HW222783  14.829  13.869  11.339
 6984SOL     OW22784  14.003   5.817  13.222
 6984SOL    HW122785  14.060   5.852  13.290
 6984SOL    HW222786  13.914   5.824  13.258
 6985SOL     OW22787   7.945   1.514   9.858
 6985SOL    HW122788   8.040   1.518   9.863
 6985SOL    HW222789   7.917   1.491   9.946
 6986SOL     OW22790  12.212   3.617  13.380
 6986SOL    HW122791  12.281   3.550  13.373
 6986SOL    HW222792  12.159   3.589  13.455
 6987SOL     OW22793   2.280  13.236   2.955
 6987SOL    HW122794   2.321  13.199   3.033
 6987SOL    HW222795   2.300  13.173   2.886
 6988SOL     OW22796  13.783   0.294  12.331
 6988SOL    HW122797  13.803   0.223  12.270
 6988SOL    HW222798  13.688   0.301  12.329
 6989SOL     OW22799   6.037   3.174  13.994
 6989SOL    HW122800   5.998   3.170  14.081
 6989SOL    HW222801   5.981   3.117  13.941
 6990SOL     OW22802   0.926  11.065   6.901
 6990SOL    HW122803   0.861  11.075   6.832
 6990SOL    HW222804   0.994  11.129   6.880
 6991SOL     OW22805   6.516  11.351   4.927
 6991SOL    HW122806   6.565  11.317   4.852
 6991SOL    HW222807   6.538  11.444   4.929
 6992SOL     OW22808   7.678   3.939   9.973
 6992SOL    HW122809   7.633   4.023   9.979
 6992SOL    HW222810   7.667   3.912   9.882
 6993SOL     OW22811  13.119  14.624  14.696
 6993SOL    HW122812  13.173  14.546  14.697
 6993SOL    HW222813  13.061  14.614  14.771
 6994SOL     OW22814   6.801  12.689  14.706
 6994SOL    HW122815   6.721  12.669  14.755
 6994SOL    HW222816   6.840  12.763  14.753
 6995SOL     OW22817   7.664   9.633   9.187
 6995SOL    HW122818   7.712   9.677   9.258
 6995SOL    HW222819   7.610   9.702   9.149
 6996SOL     OW22820   1.822  10.144   0.020
 6996SOL    HW122821   1.875  10.129   0.099
 6996SOL    HW222822   1.794  10.056  14.872
 6997SOL     OW22823   7.536   6.604   3.888
 6997SOL    HW122824   7.492   6.689   3.893
 6997SOL    HW222825   7.494   6.560   3.815
 6998SOL     OW22826  11.585   9.701   2.794
 6998SOL    HW122827  11.491   9.705   2.775
 6998SOL    HW222828  11.604   9.784   2.839
 6999SOL     OW22829   3.700  12.847  12.880
 6999SOL    HW122830   3.787  12.819  12.907
 6999SOL    HW222831   3.654  12.865  12.963
 7000SOL     OW22832   3.345   5.344   7.406
 7000SOL    HW122833   3.431   5.313   7.378
 7000SOL    HW222834   3.350   5.439   7.397
 7001SOL     OW22835  13.954  12.064   3.606
 7001SOL    HW122836  13.934  12.154   3.580
 7001SOL    HW222837  13.892  12.010   3.556
 7002SOL     OW22838   9.549  10.211   0.663
 7002SOL    HW122839   9.528  10.248   0.577
 7002SOL    HW222840   9.467  10.175   0.695
 7003SOL     OW22841   1.971   7.275   3.455
 7003SOL    HW122842   1.930   7.361   3.453
 7003SOL    HW222843   1.909   7.220   3.503
 7004SOL     OW22844  10.057   1.256  12.727
 7004SOL    HW122845  10.105   1.227  12.804
 7004SOL    HW222846  10.103   1.217  12.653
 7005SOL     OW22847   6.302   6.962   8.569
 7005SOL    HW122848   6.210   6.980   8.587
 7005SOL    HW222849   6.302   6.914   8.486
 7006SOL     OW22850  13.487   2.565   8.975
 7006SOL    HW122851  13.432   2.607   9.042
 7006SOL    HW222852  13.436   2.573   8.894
 7007SOL     OW22853   5.191   7.628  14.242
 7007SOL    HW122854   5.171   7.592  14.155
 7007SOL    HW222855   5.247   7.562  14.283
 7008SOL     OW22856   3.270   1.776   1.258
 7008SOL    HW122857   3.230   1.863   1.262
 7008SOL    HW222858   3.233   1.728   1.332
 7009SOL     OW22859   0.058  13.218  11.001
 7009SOL    HW122860   0.023  13.180  11.082
 7009SOL    HW222861   0.133  13.163  10.979
 7010SOL     OW22862   6.533   7.455  14.375
 7010SOL    HW122863   6.555   7.364  14.396
 7010SOL    HW222864   6.486   7.450  14.292
 7011SOL     OW22865  14.537  12.773   5.684
 7011SOL    HW122866  14.573  12.860   5.699
 7011SOL    HW222867  14.543  12.729   5.769
 7012SOL     OW22868  11.589  11.250   9.425
 7012SOL    HW122869  11.543  11.304   9.361
 7012SOL    HW222870  11.658  11.308   9.460
 7013SOL     OW22871  11.254   9.374   3.745
 7013SOL    HW122872  11.179   9.365   3.686
 7013SOL    HW222873  11.321   9.317   3.707
 7014SOL     OW22874  14.766  14.545  14.079
 7014SOL    HW122875  14.808  14.564  13.995
 7014SOL    HW222876  14.787  14.621  14.133
 7015SOL     OW22877  10.986   2.219   6.997
 7015SOL    HW122878  11.066   2.236   7.046
 7015SOL    HW222879  11.010   2.235   6.906
 7016SOL     OW22880   5.154   7.194   6.470
 7016SOL    HW122881   5.063   7.212   6.495
 7016SOL    HW222882   5.178   7.116   6.520
 7017SOL     OW22883   6.579  10.444  10.048
 7017SOL    HW122884   6.528  10.421  10.126
 7017SOL    HW222885   6.574  10.366   9.993
 7018SOL     OW22886   3.303   0.371   1.011
 7018SOL    HW122887   3.298   0.342   1.102
 7018SOL    HW222888   3.217   0.410   0.994
 7019SOL     OW22889  10.555   7.777   6.840
 7019SOL    HW122890  10.649   7.779   6.858
 7019SOL    HW222891  10.541   7.696   6.791
 7020SOL     OW22892  10.052  12.334   8.821
 7020SOL    HW122893  10.065  12.363   8.731
 7020SOL    HW222894  10.002  12.405   8.862
 7021SOL     OW22895   4.013   1.124  12.139
 7021SOL    HW122896   4.097   1.146  12.179
 7021SOL    HW222897   3.955   1.105  12.213
 7022SOL     OW22898   8.143   6.816   9.353
 7022SOL    HW122899   8.141   6.877   9.279
 7022SOL    HW222900   8.169   6.870   9.428
 7023SOL     OW22901   3.492   4.029  13.429
 7023SOL    HW122902   3.550   3.956  13.448
 7023SOL    HW222903   3.422   4.021  13.493
 7024SOL     OW22904   5.484  14.211  12.920
 7024SOL    HW122905   5.505  14.298  12.886
 7024SOL    HW222906   5.542  14.152  12.871
 7025SOL     OW22907  10.604   0.641   1.922
 7025SOL    HW122908  10.532   0.619   1.982
 7025SOL    HW222909  10.562   0.649   1.836
 7026SOL     OW22910   2.175  14.158   3.927
 7026SOL    HW122911   2.103  14.130   3.870
 7026SOL    HW222912   2.254  14.137   3.877
 7027SOL     OW22913  10.539   0.875   4.894
 7027SOL    HW122914  10.483   0.892   4.970
 7027SOL    HW222915  10.479   0.874   4.820
 7028SOL     OW22916   0.688   8.559  12.852
 7028SOL    HW122917   0.659   8.575  12.941
 7028SOL    HW222918   0.650   8.474  12.829
 7029SOL     OW22919  10.153  11.242   0.889
 7029SOL    HW122920  10.090  11.193   0.836
 7029SOL    HW222921  10.099  11.298   0.944
 7030SOL     OW22922   0.686  14.240   6.996
 7030SOL    HW122923   0.605  14.283   6.969
 7030SOL    HW222924   0.673  14.148   6.972
 7031SOL     OW22925   2.749   3.570   7.448
 7031SOL    HW122926   2.725   3.644   7.503
 7031SOL    HW222927   2.667   3.524   7.432
 7032SOL     OW22928   6.143   7.061  11.142
 7032SOL    HW122929   6.154   6.975  11.100
 7032SOL    HW222930   6.214   7.114  11.106
 7033SOL     OW22931   6.082   7.842  10.384
 7033SOL    HW122932   6.099   7.874  10.295
 7033SOL    HW222933   6.020   7.770  10.372
 7034SOL     OW22934   7.176   3.006  14.629
 7034SOL    HW122935   7.268   2.981  14.629
 7034SOL    HW222936   7.149   3.001  14.538
 7035SOL     OW22937   8.707   8.206   8.555
 7035SOL    HW122938   8.616   8.191   8.581
 7035SOL    HW222939   8.757   8.142   8.607
 7036SOL     OW22940   4.422   6.107  14.656
 7036SOL    HW122941   4.363   6.110  14.732
 7036SOL    HW222942   4.428   6.198  14.627
 7037SOL     OW22943  12.088   3.644   6.302
 7037SOL    HW122944  12.118   3.580   6.238
 7037SOL    HW222945  12.169   3.685   6.334
 7038SOL     OW22946  14.412   3.193   4.847
 7038SOL    HW122947  14.434   3.212   4.756
 7038SOL    HW222948  14.336   3.135   4.842
 7039SOL     OW22949   4.523   2.028   3.435
 7039SOL    HW122950   4.526   2.080   3.355
 7039SOL    HW222951   4.509   2.093   3.505
 7040SOL     OW22952   1.542   8.599  10.980
 7040SOL    HW122953   1.551   8.692  10.959
 7040SOL    HW222954   1.553   8.594  11.075
 7041SOL     OW22955  11.878  13.834   7.794
 7041SOL    HW122956  11.817  13.773   7.834
 7041SOL    HW222957  11.905  13.792   7.712
 7042SOL     OW22958  12.439   1.977  10.423
 7042SOL    HW122959  12.435   2.051  10.485
 7042SOL    HW222960  12.380   1.912  10.461
 7043SOL     OW22961  13.140  14.134  10.650
 7043SOL    HW122962  13.079  14.075  10.696
 7043SOL    HW222963  13.192  14.174  10.719
 7044SOL     OW22964   5.867  11.833   9.796
 7044SOL    HW122965   5.783  11.879   9.789
 7044SOL    HW222966   5.870  11.802   9.886
 7045SOL     OW22967   9.724   6.537   2.034
 7045SOL    HW122968   9.678   6.455   2.049
 7045SOL    HW222969   9.665   6.588   1.979
 7046SOL     OW22970  11.927   2.058  14.390
 7046SOL    HW122971  11.949   2.048  14.297
 7046SOL    HW222972  11.875   1.981  14.412
 7047SOL     OW22973   9.339   6.668   7.679
 7047SOL    HW122974   9.382   6.736   7.627
 7047SOL    HW222975   9.323   6.597   7.618
 7048SOL     OW22976   6.606  10.149  13.367
 7048SOL    HW122977   6.533  10.138  13.307
 7048SOL    HW222978   6.684  10.141  13.312
 7049SOL     OW22979   1.666  11.142  11.257
 7049SOL    HW122980   1.744  11.196  11.245
 7049SOL    HW222981   1.666  11.119  11.350
 7050SOL     OW22982   7.199   1.259   2.550
 7050SOL    HW122983   7.283   1.273   2.594
 7050SOL    HW222984   7.207   1.173   2.510
 7051SOL     OW22985  14.004   0.135   3.486
 7051SOL    HW122986  13.926   0.082   3.471
 7051SOL    HW222987  13.992   0.212   3.431
 7052SOL     OW22988   8.799   1.988   6.331
 7052SOL    HW122989   8.867   1.969   6.267
 7052SOL    HW222990   8.730   1.924   6.313
 7053SOL     OW22991  14.458   9.406  11.554
 7053SOL    HW122992  14.459   9.415  11.650
 7053SOL    HW222993  14.425   9.490  11.522
 7054SOL     OW22994  12.203   3.994   7.886
 7054SOL    HW122995  12.255   3.923   7.924
 7054SOL    HW222996  12.175   4.046   7.962
 7055SOL     OW22997  14.350   3.247   7.669
 7055SOL    HW122998  14.318   3.320   7.722
 7055SOL    HW222999  14.294   3.247   7.592
 7056SOL     OW23000   0.907  11.571   2.491
 7056SOL    HW123001   0.980  11.543   2.546
 7056SOL    HW223002   0.925  11.664   2.473
 7057SOL     OW23003   3.630   6.581   7.340
 7057SOL    HW123004   3.643   6.654   7.401
 7057SOL    HW223005   3.535   6.570   7.336
 7058SOL     OW23006   4.900   4.144  13.980
 7058SOL    HW123007   4.859   4.217  14.027
 7058SOL    HW223008   4.829   4.083  13.964
 7059SOL     OW23009   5.023  13.055  12.703
 7059SOL    HW123010   4.968  13.062  12.624
 7059SOL    HW223011   5.100  13.005  12.673
 7060SOL     OW23012   7.765  12.975  10.140
 7060SOL    HW123013   7.854  12.959  10.109
 7060SOL    HW223014   7.737  12.893  10.179
 7061SOL     OW23015   8.948   6.265   4.244
 7061SOL    HW123016   8.881   6.280   4.177
 7061SOL    HW223017   8.925   6.327   4.314
 7062SOL     OW23018   2.716  12.886  13.699
 7062SOL    HW123019   2.629  12.852  13.678
 7062SOL    HW223020   2.715  12.976  13.666
 7063SOL     OW23021   3.265   0.499   4.482
 7063SOL    HW123022   3.225   0.412   4.482
 7063SOL    HW223023   3.231   0.541   4.562
 7064SOL     OW23024   9.564  10.185   1.541
 7064SOL    HW123025   9.645  10.148   1.575
 7064SOL    HW223026   9.496  10.122   1.565
 7065SOL     OW23027  14.737   9.138  12.825
 7065SOL    HW123028  14.718   9.223  12.867
 7065SOL    HW223029  14.688   9.141  12.743
 7066SOL     OW23030   3.071   8.791  10.861
 7066SOL    HW123031   3.109   8.822  10.943
 7066SOL    HW223032   2.987   8.837  10.854
 7067SOL     OW23033   9.983  13.508   2.685
 7067SOL    HW123034  10.074  13.537   2.691
 7067SOL    HW223035   9.951  13.547   2.604
 7068SOL     OW23036  13.436   7.859  14.702
 7068SOL    HW123037  13.487   7.807  14.764
 7068SOL    HW223038  13.501   7.896  14.643
 7069SOL     OW23039   9.704   1.589  13.445
 7069SOL    HW123040   9.758   1.516  13.414
 7069SOL    HW223041   9.705   1.652  13.374
 7070SOL     OW23042  10.422   4.892   6.697
 7070SOL    HW123043  10.341   4.938   6.720
 7070SOL    HW223044  10.399   4.799   6.702
 7071SOL     OW23045   4.502   5.403   5.285
 7071SOL    HW123046   4.596   5.416   5.292
 7071SOL    HW223047   4.471   5.398   5.375
 7072SOL     OW23048   0.660   4.628   7.395
 7072SOL    HW123049   0.727   4.617   7.328
 7072SOL    HW223050   0.629   4.539   7.413
 7073SOL     OW23051   4.837  12.068  10.540
 7073SOL    HW123052   4.924  12.093  10.510
 7073SOL    HW223053   4.777  12.112  10.481
 7074SOL     OW23054   3.511  13.715  13.312
 7074SOL    HW123055   3.577  13.779  13.283
 7074SOL    HW223056   3.457  13.764  13.374
 7075SOL     OW23057   8.188   9.895   0.952
 7075SOL    HW123058   8.256   9.956   0.925
 7075SOL    HW223059   8.137   9.943   1.017
 7076SOL     OW23060   9.693   3.766   1.948
 7076SOL    HW123061   9.723   3.677   1.967
 7076SOL    HW223062   9.642   3.757   1.867
 7077SOL     OW23063  10.645   0.901   0.821
 7077SOL    HW123064  10.659   0.815   0.781
 7077SOL    HW223065  10.665   0.887   0.914
 7078SOL     OW23066  11.073   1.512   7.164
 7078SOL    HW123067  11.051   1.599   7.132
 7078SOL    HW223068  10.989   1.468   7.175
 7079SOL     OW23069   5.069   7.337   3.134
 7079SOL    HW123070   5.118   7.309   3.211
 7079SOL    HW223071   4.978   7.315   3.153
 7080SOL     OW23072   9.105   6.935   7.791
 7080SOL    HW123073   9.069   6.900   7.873
 7080SOL    HW223074   9.099   6.862   7.729
 7081SOL     OW23075   9.071   0.903   3.855
 7081SOL    HW123076   9.104   0.852   3.781
 7081SOL    HW223077   9.087   0.847   3.931
 7082SOL     OW23078  10.995   9.462   3.295
 7082SOL    HW123079  10.910   9.420   3.309
 7082SOL    HW223080  10.977   9.556   3.306
 7083SOL     OW23081   5.147  11.255  11.172
 7083SOL    HW123082   5.121  11.311  11.099
 7083SOL    HW223083   5.166  11.316  11.243
 7084SOL     OW23084   2.667  11.981   9.301
 7084SOL    HW123085   2.681  11.890   9.327
 7084SOL    HW223086   2.674  12.030   9.383
 7085SOL     OW23087   6.565   4.554   4.812
 7085SOL    HW123088   6.558   4.621   4.744
 7085SOL    HW223089   6.585   4.603   4.892
 7086SOL     OW23090  14.405   2.454   4.053
 7086SOL    HW123091  14.373   2.477   4.140
 7086SOL    HW223092  14.501   2.458   4.061
 7087SOL     OW23093   0.922  11.291   1.565
 7087SOL    HW123094   0.848  11.262   1.511
 7087SOL    HW223095   0.902  11.258   1.652
 7088SOL     OW23096  11.737  13.048   9.716
 7088SOL    HW123097  11.722  13.052   9.621
 7088SOL    HW223098  11.831  13.061   9.726
 7089SOL     OW23099   9.300   5.624   6.107
 7089SOL    HW123100   9.372   5.640   6.168
 7089SOL    HW223101   9.252   5.551   6.146
 7090SOL     OW23102   9.363   8.204   1.577
 7090SOL    HW123103   9.363   8.119   1.534
 7090SOL    HW223104   9.411   8.190   1.659
 7091SOL     OW23105   9.144   5.224   4.446
 7091SOL    HW123106   9.067   5.259   4.402
 7091SOL    HW223107   9.163   5.286   4.516
 7092SOL     OW23108   1.592  11.941   1.137
 7092SOL    HW123109   1.520  11.878   1.125
 7092SOL    HW223110   1.588  11.997   1.059
 7093SOL     OW23111  14.313   3.324   4.582
 7093SOL    HW123112  14.305   3.419   4.569
 7093SOL    HW223113  14.282   3.286   4.501
 7094SOL     OW23114   0.334   4.904   2.077
 7094SOL    HW123115   0.356   4.996   2.064
 7094SOL    HW223116   0.387   4.877   2.152
 7095SOL     OW23117   0.970  11.934   6.022
 7095SOL    HW123118   1.032  12.000   5.989
 7095SOL    HW223119   0.996  11.919   6.112
 7096SOL     OW23120  10.411  13.301   8.349
 7096SOL    HW123121  10.363  13.290   8.431
 7096SOL    HW223122  10.343  13.294   8.281
 7097SOL     OW23123  11.052   6.371  12.384
 7097SOL    HW123124  11.122   6.348  12.445
 7097SOL    HW223125  11.071   6.319  12.306
 7098SOL     OW23126  10.659   1.655   5.705
 7098SOL    HW123127  10.697   1.742   5.712
 7098SOL    HW223128  10.589   1.665   5.641
 7099SOL     OW23129   4.218   0.058   0.801
 7099SOL    HW123130   4.275   0.055   0.724
 7099SOL    HW223131   4.213   0.151   0.824
 7100SOL     OW23132   0.399   4.896  13.068
 7100SOL    HW123133   0.453   4.974  13.081
 7100SOL    HW223134   0.391   4.857  13.154
 7101SOL     OW23135   6.660   5.498   9.564
 7101SOL    HW123136   6.720   5.468   9.495
 7101SOL    HW223137   6.574   5.466   9.538
 7102SOL     OW23138  12.683   5.510   7.270
 7102SOL    HW123139  12.621   5.495   7.341
 7102SOL    HW223140  12.660   5.445   7.203
 7103SOL     OW23141  12.469   1.787  11.412
 7103SOL    HW123142  12.496   1.866  11.458
 7103SOL    HW223143  12.546   1.761  11.361
 7104SOL     OW23144   2.690   4.418   2.439
 7104SOL    HW123145   2.704   4.491   2.378
 7104SOL    HW223146   2.663   4.345   2.383
 7105SOL     OW23147   0.206   9.558   4.206
 7105SOL    HW123148   0.192   9.540   4.113
 7105SOL    HW223149   0.256   9.483   4.238
 7106SOL     OW23150  10.915  10.234   6.414
 7106SOL    HW123151  10.824  10.237   6.386
 7106SOL    HW223152  10.914  10.178   6.492
 7107SOL     OW23153  11.101  12.398  13.527
 7107SOL    HW123154  11.109  12.303  13.513
 7107SOL    HW223155  11.094  12.435  13.439
 7108SOL     OW23156  11.994   1.796  12.645
 7108SOL    HW123157  11.901   1.787  12.621
 7108SOL    HW223158  11.993   1.809  12.740
 7109SOL     OW23159  14.091  11.719   5.066
 7109SOL    HW123160  14.179  11.752   5.045
 7109SOL    HW223161  14.106  11.633   5.105
 7110SOL     OW23162  11.701  11.565   6.418
 7110SOL    HW123163  11.687  11.528   6.505
 7110SOL    HW223164  11.764  11.636   6.432
 7111SOL     OW23165   2.784  11.149  13.144
 7111SOL    HW123166   2.860  11.198  13.177
 7111SOL    HW223167   2.726  11.140  13.220
 7112SOL     OW23168  10.267   4.659   0.062
 7112SOL    HW123169  10.358   4.647   0.036
 7112SOL    HW223170  10.241   4.743   0.024
 7113SOL     OW23171   6.172   1.442  14.244
 7113SOL    HW123172   6.165   1.524  14.194
 7113SOL    HW223173   6.110   1.453  14.316
 7114SOL     OW23174   4.809   3.525   3.409
 7114SOL    HW123175   4.783   3.562   3.493
 7114SOL    HW223176   4.771   3.437   3.409
 7115SOL     OW23177   2.257   9.684   0.451
 7115SOL    HW123178   2.337   9.732   0.434
 7115SOL    HW223179   2.245   9.628   0.374
 7116SOL     OW23180  13.797  14.704   9.420
 7116SOL    HW123181  13.890  14.689   9.438
 7116SOL    HW223182  13.752  14.663   9.494
 7117SOL     OW23183   0.420   9.666   7.127
 7117SOL    HW123184   0.490   9.655   7.191
 7117SOL    HW223185   0.422   9.585   7.075
 7118SOL     OW23186  14.526   6.638   9.850
 7118SOL    HW123187  14.525   6.548   9.816
 7118SOL    HW223188  14.604   6.641   9.906
 7119SOL     OW23189   0.931  13.848   9.718
 7119SOL    HW123190   0.849  13.802   9.735
 7119SOL    HW223191   0.924  13.878   9.627
 7120SOL     OW23192   9.412   7.942  10.048
 7120SOL    HW123193   9.332   7.907  10.009
 7120SOL    HW223194   9.386   8.027  10.083
 7121SOL     OW23195   3.268   4.559   2.929
 7121SOL    HW123196   3.326   4.521   2.863
 7121SOL    HW223197   3.191   4.589   2.879
 7122SOL     OW23198   7.066   3.784  11.826
 7122SOL    HW123199   7.119   3.819  11.897
 7122SOL    HW223200   6.978   3.819  11.842
 7123SOL     OW23201   3.152  14.045  11.323
 7123SOL    HW123202   3.182  13.989  11.394
 7123SOL    HW223203   3.121  14.125  11.367
 7124SOL     OW23204  10.433   3.502   3.209
 7124SOL    HW123205  10.499   3.523   3.143
 7124SOL    HW223206  10.475   3.522   3.292
 7125SOL     OW23207   2.116   3.051   4.770
 7125SOL    HW123208   2.204   3.019   4.750
 7125SOL    HW223209   2.107   3.131   4.717
 7126SOL     OW23210   2.951   4.700  11.990
 7126SOL    HW123211   2.904   4.769  11.943
 7126SOL    HW223212   2.977   4.638  11.921
 7127SOL     OW23213  10.835   3.161   9.242
 7127SOL    HW123214  10.752   3.201   9.219
 7127SOL    HW223215  10.839   3.166   9.337
 7128SOL     OW23216   5.835   4.985  11.090
 7128SOL    HW123217   5.912   4.968  11.036
 7128SOL    HW223218   5.785   4.903  11.086
 7129SOL     OW23219   6.620   7.885   4.787
 7129SOL    HW123220   6.645   7.868   4.696
 7129SOL    HW223221   6.696   7.927   4.826
 7130SOL     OW23222   7.250   5.687   0.429
 7130SOL    HW123223   7.282   5.704   0.341
 7130SOL    HW223224   7.327   5.657   0.477
 7131SOL     OW23225   3.391  14.114   7.165
 7131SOL    HW123226   3.367  14.163   7.244
 7131SOL    HW223227   3.484  14.131   7.154
 7132SOL     OW23228   7.000   3.590   3.079
 7132SOL    HW123229   7.085   3.623   3.052
 7132SOL    HW223230   6.938   3.633   3.020
 7133SOL     OW23231   9.512   5.434  13.413
 7133SOL    HW123232   9.562   5.464  13.489
 7133SOL    HW223233   9.578   5.395  13.355
 7134SOL     OW23234   4.202  13.056  10.490
 7134SOL    HW123235   4.184  13.047  10.396
 7134SOL    HW223236   4.119  13.081  10.529
 7135SOL     OW23237   7.182  13.289   7.330
 7135SOL    HW123238   7.227  13.366   7.294
 7135SOL    HW223239   7.209  13.287   7.422
 7136SOL     OW23240  14.600   4.540   9.876
 7136SOL    HW123241  14.641   4.497   9.800
 7136SOL    HW223242  14.553   4.470   9.921
 7137SOL     OW23243   7.325   0.443   2.609
 7137SOL    HW123244   7.374   0.367   2.579
 7137SOL    HW223245   7.358   0.515   2.556
 7138SOL     OW23246  10.804   1.871   3.772
 7138SOL    HW123247  10.836   1.952   3.810
 7138SOL    HW223248  10.828   1.803   3.836
 7139SOL     OW23249   5.905   7.851  13.966
 7139SOL    HW123250   5.973   7.802  13.921
 7139SOL    HW223251   5.862   7.786  14.023
 7140SOL     OW23252  10.879   8.705   7.783
 7140SOL    HW123253  10.813   8.650   7.825
 7140SOL    HW223254  10.888   8.781   7.840
 7141SOL     OW23255   6.837   6.043   9.001
 7141SOL    HW123256   6.901   6.016   9.066
 7141SOL    HW223257   6.889   6.077   8.929
 7142SOL     OW23258   2.043   1.160  10.024
 7142SOL    HW123259   2.077   1.160  10.113
 7142SOL    HW223260   2.063   1.247   9.991
 7143SOL     OW23261   2.713  13.157  12.654
 7143SOL    HW123262   2.659  13.235  12.646
 7143SOL    HW223263   2.778  13.179  12.721
 7144SOL     OW23264   6.245   6.475   0.632
 7144SOL    HW123265   6.279   6.428   0.708
 7144SOL    HW223266   6.294   6.558   0.631
 7145SOL     OW23267   3.915  13.315   6.740
 7145SOL    HW123268   3.954  13.361   6.666
 7145SOL    HW223269   3.951  13.359   6.817
 7146SOL     OW23270   6.384   0.721   4.831
 7146SOL    HW123271   6.342   0.636   4.817
 7146SOL    HW223272   6.356   0.774   4.757
 7147SOL     OW23273  14.027  14.232   7.414
 7147SOL    HW123274  14.104  14.281   7.444
 7147SOL    HW223275  14.063  14.149   7.382
 7148SOL     OW23276   6.800   4.658  14.289
 7148SOL    HW123277   6.754   4.724  14.342
 7148SOL    HW223278   6.875   4.706  14.252
 7149SOL     OW23279  11.248   6.246  11.755
 7149SOL    HW123280  11.229   6.157  11.784
 7149SOL    HW223281  11.273   6.293  11.834
 7150SOL     OW23282   8.123   0.953  11.721
 7150SOL    HW123283   8.189   0.975  11.787
 7150SOL    HW223284   8.046   0.929  11.773
 7151SOL     OW23285   4.301  12.538  11.694
 7151SOL    HW123286   4.391  12.569  11.701
 7151SOL    HW223287   4.308  12.442  11.695
 7152SOL     OW23288   8.825   9.912  14.373
 7152SOL    HW123289   8.753   9.896  14.312
 7152SOL    HW223290   8.787   9.901  14.459
 7153SOL     OW23291   7.355  10.593  10.710
 7153SOL    HW123292   7.408  10.596  10.630
 7153SOL    HW223293   7.283  10.534  10.689
 7154SOL     OW23294   7.716  12.758   5.329
 7154SOL    HW123295   7.685  12.698   5.397
 7154SOL    HW223296   7.732  12.840   5.375
 7155SOL     OW23297   4.367   2.568   6.714
 7155SOL    HW123298   4.405   2.529   6.635
 7155SOL    HW223299   4.426   2.542   6.784
 7156SOL     OW23300  13.951   3.262  10.889
 7156SOL    HW123301  14.004   3.228  10.816
 7156SOL    HW223302  14.016   3.295  10.951
 7157SOL     OW23303  10.824  14.242   0.257
 7157SOL    HW123304  10.826  14.213   0.348
 7157SOL    HW223305  10.746  14.201   0.220
 7158SOL     OW23306   5.114   3.554   2.764
 7158SOL    HW123307   5.192   3.573   2.817
 7158SOL    HW223308   5.041   3.569   2.824
 7159SOL     OW23309   8.579  10.039  10.807
 7159SOL    HW123310   8.565  10.129  10.778
 7159SOL    HW223311   8.496  10.015  10.848
 7160SOL     OW23312  10.038   9.611   8.322
 7160SOL    HW123313  10.128   9.584   8.309
 7160SOL    HW223314   9.986   9.549   8.270
 7161SOL     OW23315   3.483  11.570  12.991
 7161SOL    HW123316   3.441  11.653  12.968
 7161SOL    HW223317   3.411  11.507  12.997
 7162SOL     OW23318   7.082   5.299   9.478
 7162SOL    HW123319   7.072   5.347   9.560
 7162SOL    HW223320   7.177   5.295   9.464
 7163SOL     OW23321   2.411   3.500   8.011
 7163SOL    HW123322   2.319   3.526   8.022
 7163SOL    HW223323   2.436   3.539   7.927
 7164SOL     OW23324  10.097   3.892   6.827
 7164SOL    HW123325  10.036   3.849   6.888
 7164SOL    HW223326  10.062   3.871   6.740
 7165SOL     OW23327  13.880  12.609   7.664
 7165SOL    HW123328  13.828  12.548   7.718
 7165SOL    HW223329  13.839  12.604   7.578
 7166SOL     OW23330   1.111  10.037  12.823
 7166SOL    HW123331   1.115  10.011  12.915
 7166SOL    HW223332   1.018  10.040  12.802
 7167SOL     OW23333   2.100  12.552  14.691
 7167SOL    HW123334   2.079  12.637  14.653
 7167SOL    HW223335   2.026  12.496  14.668
 7168SOL     OW23336  13.054   1.093   5.393
 7168SOL    HW123337  13.026   1.112   5.303
 7168SOL    HW223338  13.150   1.088   5.387
 7169SOL     OW23339  14.470   9.799  14.506
 7169SOL    HW123340  14.445   9.877  14.458
 7169SOL    HW223341  14.388   9.752  14.520
 7170SOL     OW23342  12.643  11.588  12.943
 7170SOL    HW123343  12.629  11.501  12.906
 7170SOL    HW223344  12.559  11.633  12.931
 7171SOL     OW23345  12.290  13.735   0.247
 7171SOL    HW123346  12.281  13.667   0.180
 7171SOL    HW223347  12.200  13.756   0.272
 7172SOL     OW23348   2.203   9.668   7.333
 7172SOL    HW123349   2.194   9.666   7.238
 7172SOL    HW223350   2.200   9.576   7.359
 7173SOL     OW23351  14.091  12.257  11.120
 7173SOL    HW123352  14.025  12.188  11.117
 7173SOL    HW223353  14.171  12.214  11.090
 7174SOL     OW23354   9.824   6.852  12.461
 7174SOL    HW123355   9.915   6.880  12.458
 7174SOL    HW223356   9.827   6.759  12.443
 7175SOL     OW23357  13.834  14.238   3.771
 7175SOL    HW123358  13.873  14.302   3.830
 7175SOL    HW223359  13.908  14.196   3.727
 7176SOL     OW23360   7.427  10.882   7.514
 7176SOL    HW123361   7.456  10.823   7.584
 7176SOL    HW223362   7.349  10.839   7.477
 7177SOL     OW23363   6.783   2.211   0.886
 7177SOL    HW123364   6.866   2.198   0.933
 7177SOL    HW223365   6.721   2.153   0.930
 7178SOL     OW23366   6.966  12.088   4.272
 7178SOL    HW123367   6.880  12.064   4.306
 7178SOL    HW223368   6.952  12.172   4.227
 7179SOL     OW23369   4.051  13.297   0.002
 7179SOL    HW123370   4.060  13.210  14.843
 7179SOL    HW223371   4.090  13.289   0.089
 7180SOL     OW23372   9.575   2.218   9.316
 7180SOL    HW123373   9.646   2.162   9.285
 7180SOL    HW223374   9.499   2.188   9.266
 7181SOL     OW23375   9.108  11.064  10.443
 7181SOL    HW123376   9.032  11.071  10.502
 7181SOL    HW223377   9.183  11.083  10.499
 7182SOL     OW23378   1.075  13.191  11.952
 7182SOL    HW123379   0.992  13.192  12.000
 7182SOL    HW223380   1.127  13.123  11.994
 7183SOL     OW23381   9.436  11.546   6.940
 7183SOL    HW123382   9.487  11.606   6.994
 7183SOL    HW223383   9.378  11.603   6.889
 7184SOL     OW23384   5.014   6.188   1.274
 7184SOL    HW123385   5.053   6.155   1.356
 7184SOL    HW223386   5.011   6.283   1.286
 7185SOL     OW23387   8.186  14.155   5.371
 7185SOL    HW123388   8.100  14.143   5.411
 7185SOL    HW223389   8.193  14.084   5.307
 7186SOL     OW23390   5.045   9.242   9.219
 7186SOL    HW123391   5.101   9.239   9.296
 7186SOL    HW223392   4.958   9.219   9.252
 7187SOL     OW23393  12.891   9.316   0.730
 7187SOL    HW123394  12.947   9.313   0.808
 7187SOL    HW223395  12.952   9.332   0.657
 7188SOL     OW23396   3.203   3.283   5.217
 7188SOL    HW123397   3.172   3.211   5.272
 7188SOL    HW223398   3.275   3.322   5.267
 7189SOL     OW23399   1.305   9.869  11.170
 7189SOL    HW123400   1.232   9.808  11.180
 7189SOL    HW223401   1.319   9.875  11.076
 7190SOL     OW23402  14.318   5.817   1.121
 7190SOL    HW123403  14.359   5.737   1.153
 7190SOL    HW223404  14.241   5.828   1.176
 7191SOL     OW23405   3.070  14.348  12.424
 7191SOL    HW123406   3.072  14.443  12.409
 7191SOL    HW223407   3.001  14.316  12.367
 7192SOL     OW23408  14.231  12.075   4.226
 7192SOL    HW123409  14.176  12.003   4.258
 7192SOL    HW223410  14.250  12.127   4.305
 7193SOL     OW23411   8.966   2.654  10.913
 7193SOL    HW123412   8.968   2.558  10.913
 7193SOL    HW223413   8.971   2.679  10.821
 7194SOL     OW23414  12.738   8.378  14.590
 7194SOL    HW123415  12.773   8.430  14.662
 7194SOL    HW223416  12.733   8.289  14.625
 7195SOL     OW23417   0.376   5.569   8.967
 7195SOL    HW123418   0.425   5.640   9.009
 7195SOL    HW223419   0.328   5.527   9.039
 7196SOL     OW23420   5.427  10.487   0.783
 7196SOL    HW123421   5.438  10.546   0.709
 7196SOL    HW223422   5.495  10.513   0.845
 7197SOL     OW23423  11.877   3.346   0.012
 7197SOL    HW123424  11.940   3.319  14.824
 7197SOL    HW223425  11.919   3.324   0.095
 7198SOL     OW23426   3.942  10.678   0.617
 7198SOL    HW123427   3.917  10.756   0.666
 7198SOL    HW223428   4.035  10.692   0.597
 7199SOL     OW23429   6.155   5.228  14.576
 7199SOL    HW123430   6.185   5.220  14.485
 7199SOL    HW223431   6.204   5.160  14.623
 7200SOL     OW23432   0.066   3.777  14.583
 7200SOL    HW123433   0.005   3.710  14.553
 7200SOL    HW223434   0.090   3.824  14.503
 7201SOL     OW23435  10.310   8.174   5.596
 7201SOL    HW123436  10.263   8.116   5.536
 7201SOL    HW223437  10.298   8.262   5.558
 7202SOL     OW23438   4.745   4.140  12.667
 7202SOL    HW123439   4.802   4.107  12.737
 7202SOL    HW223440   4.804   4.187  12.609
 7203SOL     OW23441   3.013  14.874   3.339
 7203SOL    HW123442   2.948   0.049   3.294
 7203SOL    HW223443   3.067   0.057   3.387
 7204SOL     OW23444   1.532  10.204   2.561
 7204SOL    HW123445   1.469  10.212   2.633
 7204SOL    HW223446   1.519  10.284   2.510
 7205SOL     OW23447   9.557   3.222   4.327
 7205SOL    HW123448   9.535   3.129   4.328
 7205SOL    HW223449   9.650   3.225   4.350
 7206SOL     OW23450   3.287   4.675   8.765
 7206SOL    HW123451   3.252   4.760   8.791
 7206SOL    HW223452   3.270   4.618   8.840
 7207SOL     OW23453   1.677   9.626  10.625
 7207SOL    HW123454   1.720   9.703  10.587
 7207SOL    HW223455   1.613   9.600  10.559
 7208SOL     OW23456   6.056  13.348  10.458
 7208SOL    HW123457   6.072  13.416  10.393
 7208SOL    HW223458   5.978  13.378  10.506
 7209SOL     OW23459   7.365   7.709   6.696
 7209SOL    HW123460   7.314   7.771   6.748
 7209SOL    HW223461   7.454   7.716   6.730
 7210SOL     OW23462   4.403   4.404   2.196
 7210SOL    HW123463   4.476   4.462   2.217
 7210SOL    HW223464   4.403   4.398   2.101
 7211SOL     OW23465   3.533  12.120   7.097
 7211SOL    HW123466   3.499  12.113   7.186
 7211SOL    HW223467   3.620  12.159   7.107
 7212SOL     OW23468   2.497   0.057   6.623
 7212SOL    HW123469   2.574   0.017   6.662
 7212SOL    HW223470   2.496   0.146   6.656
 7213SOL     OW23471   6.579  11.113  12.248
 7213SOL    HW123472   6.659  11.165  12.247
 7213SOL    HW223473   6.605  11.028  12.212
 7214SOL     OW23474   9.326  11.574   7.430
 7214SOL    HW123475   9.312  11.622   7.511
 7214SOL    HW223476   9.373  11.494   7.457
 7215SOL     OW23477  13.958   8.336   3.794
 7215SOL    HW123478  14.049   8.364   3.795
 7215SOL    HW223479  13.962   8.240   3.785
 7216SOL     OW23480   1.727  12.047  11.176
 7216SOL    HW123481   1.788  12.121  11.168
 7216SOL    HW223482   1.671  12.053  11.099
 7217SOL     OW23483   3.000  12.254   2.445
 7217SOL    HW123484   3.024  12.185   2.508
 7217SOL    HW223485   2.905  12.252   2.443
 7218SOL     OW23486   2.539  12.201   8.160
 7218SOL    HW123487   2.536  12.147   8.080
 7218SOL    HW223488   2.467  12.264   8.149
 7219SOL     OW23489   3.873   9.789   6.776
 7219SOL    HW123490   3.934   9.738   6.723
 7219SOL    HW223491   3.894   9.880   6.755
 7220SOL     OW23492  11.504   2.166  11.625
 7220SOL    HW123493  11.442   2.165  11.698
 7220SOL    HW223494  11.548   2.081  11.629
 7221SOL     OW23495  12.971   1.694  10.215
 7221SOL    HW123496  12.997   1.646  10.137
 7221SOL    HW223497  12.939   1.778  10.183
 7222SOL     OW23498  14.848  14.113   3.826
 7222SOL    HW123499  14.863  14.197   3.783
 7222SOL    HW223500  14.841  14.050   3.755
 7223SOL     OW23501  13.816  13.509   3.927
 7223SOL    HW123502  13.831  13.539   4.017
 7223SOL    HW223503  13.771  13.425   3.936
 7224SOL     OW23504   3.817   0.356  11.356
 7224SOL    HW123505   3.734   0.320  11.386
 7224SOL    HW223506   3.828   0.320  11.268
 7225SOL     OW23507   8.987   8.956   0.957
 7225SOL    HW123508   8.966   8.941   1.049
 7225SOL    HW223509   8.903   8.982   0.918
 7226SOL     OW23510   5.164   4.121   1.752
 7226SOL    HW123511   5.213   4.201   1.730
 7226SOL    HW223512   5.168   4.115   1.847
 7227SOL     OW23513   6.006  14.281   2.464
 7227SOL    HW123514   6.001  14.214   2.396
 7227SOL    HW223515   6.049  14.237   2.538
 7228SOL     OW23516   6.782   6.967   2.814
 7228SOL    HW123517   6.849   6.898   2.808
 7228SOL    HW223518   6.795   7.006   2.901
 7229SOL     OW23519  12.253   6.145   0.560
 7229SOL    HW123520  12.201   6.080   0.607
 7229SOL    HW223521  12.253   6.222   0.616
 7230SOL     OW23522   3.543   2.363   6.575
 7230SOL    HW123523   3.633   2.343   6.599
 7230SOL    HW223524   3.509   2.414   6.649
 7231SOL     OW23525   2.494   2.182   3.366
 7231SOL    HW123526   2.582   2.208   3.339
 7231SOL    HW223527   2.436   2.246   3.325
 7232SOL     OW23528   7.073  13.513   5.167
 7232SOL    HW123529   7.050  13.466   5.247
 7232SOL    HW223530   7.044  13.456   5.096
 7233SOL     OW23531   0.014   0.148   7.914
 7233SOL    HW123532  14.802   0.133   7.941
 7233SOL    HW223533   0.059   0.066   7.935
 7234SOL     OW23534   8.306  12.611  11.314
 7234SOL    HW123535   8.373  12.593  11.248
 7234SOL    HW223536   8.231  12.645  11.265
 7235SOL     OW23537   7.207   3.465   9.193
 7235SOL    HW123538   7.125   3.415   9.194
 7235SOL    HW223539   7.222   3.486   9.101
 7236SOL     OW23540  14.660   8.868   0.992
 7236SOL    HW123541  14.714   8.921   0.934
 7236SOL    HW223542  14.622   8.931   1.053
 7237SOL     OW23543  10.364  12.341   6.534
 7237SOL    HW123544  10.278  12.360   6.571
 7237SOL    HW223545  10.409  12.425   6.531
 7238SOL     OW23546   8.124  14.022   3.436
 7238SOL    HW123547   8.216  13.998   3.428
 7238SOL    HW223548   8.098  14.049   3.348
 7239SOL     OW23549  10.931   5.342   3.967
 7239SOL    HW123550  10.920   5.253   3.999
 7239SOL    HW223551  10.990   5.384   4.029
 7240SOL     OW23552   3.879  11.217   1.798
 7240SOL    HW123553   3.855  11.131   1.833
 7240SOL    HW223554   3.924  11.261   1.870
 7241SOL     OW23555   5.998   9.050   6.046
 7241SOL    HW123556   6.059   9.121   6.028
 7241SOL    HW223557   5.994   9.045   6.142
 7242SOL     OW23558   9.359   7.048   5.937
 7242SOL    HW123559   9.420   6.992   5.984
 7242SOL    HW223560   9.290   7.067   6.000
 7243SOL     OW23561   5.487   9.282  13.501
 7243SOL    HW123562   5.501   9.305  13.593
 7243SOL    HW223563   5.398   9.311  13.482
 7244SOL     OW23564   2.301  13.038   3.521
 7244SOL    HW123565   2.274  13.061   3.432
 7244SOL    HW223566   2.224  12.995   3.559
 7245SOL     OW23567   7.539   6.238  12.209
 7245SOL    HW123568   7.516   6.167  12.149
 7245SOL    HW223569   7.536   6.317  12.155
 7246SOL     OW23570   7.334  13.202   4.672
 7246SOL    HW123571   7.319  13.142   4.745
 7246SOL    HW223572   7.366  13.282   4.713
 7247SOL     OW23573   0.038   5.725   6.995
 7247SOL    HW123574   0.087   5.644   7.011
 7247SOL    HW223575   0.066   5.752   6.908
 7248SOL     OW23576   3.235  14.359  13.413
 7248SOL    HW123577   3.237  14.298  13.487
 7248SOL    HW223578   3.155  14.410  13.425
 7249SOL     OW23579   5.332   1.601   8.331
 7249SOL    HW123580   5.267   1.654   8.285
 7249SOL    HW223581   5.416   1.630   8.295
 7250SOL     OW23582  10.484   7.235   0.267
 7250SOL    HW123583  10.459   7.228   0.175
 7250SOL    HW223584  10.533   7.317   0.273
 7251SOL     OW23585   5.709   4.875   8.543
 7251SOL    HW123586   5.630   4.892   8.491
 7251SOL    HW223587   5.676   4.862   8.632
 7252SOL     OW23588  13.316  13.320   3.336
 7252SOL    HW123589  13.359  13.381   3.395
 7252SOL    HW223590  13.222  13.330   3.353
 7253SOL     OW23591  12.515  10.585   3.507
 7253SOL    HW123592  12.596  10.636   3.510
 7253SOL    HW223593  12.453  10.635   3.560
 7254SOL     OW23594  11.148   1.259   3.505
 7254SOL    HW123595  11.128   1.236   3.595
 7254SOL    HW223596  11.240   1.288   3.507
 7255SOL     OW23597   7.558   1.573   8.984
 7255SOL    HW123598   7.620   1.533   9.044
 7255SOL    HW223599   7.607   1.585   8.903
 7256SOL     OW23600   0.562   3.946   8.645
 7256SOL    HW123601   0.485   3.996   8.671
 7256SOL    HW223602   0.608   4.005   8.584
 7257SOL     OW23603   5.784   5.791   2.242
 7257SOL    HW123604   5.753   5.881   2.228
 7257SOL    HW223605   5.851   5.800   2.310
 7258SOL     OW23606   9.693  13.172   4.373
 7258SOL    HW123607   9.747  13.250   4.388
 7258SOL    HW223608   9.739  13.123   4.306
 7259SOL     OW23609   2.432   8.288   9.213
 7259SOL    HW123610   2.473   8.315   9.296
 7259SOL    HW223611   2.506   8.271   9.154
 7260SOL     OW23612   2.921   1.992   0.410
 7260SOL    HW123613   2.920   2.088   0.419
 7260SOL    HW223614   3.004   1.973   0.367
 7261SOL     OW23615  13.267   7.630   2.543
 7261SOL    HW123616  13.312   7.715   2.536
 7261SOL    HW223617  13.261   7.598   2.453
 7262SOL     OW23618   8.401   1.907   6.866
 7262SOL    HW123619   8.337   1.932   6.933
 7262SOL    HW223620   8.461   1.847   6.910
 7263SOL     OW23621  10.470   6.913   7.083
 7263SOL    HW123622  10.508   6.879   7.164
 7263SOL    HW223623  10.461   7.007   7.098
 7264SOL     OW23624   8.170   8.110   8.093
 7264SOL    HW123625   8.089   8.065   8.070
 7264SOL    HW223626   8.143   8.193   8.131
 7265SOL     OW23627   8.369   1.462   0.963
 7265SOL    HW123628   8.382   1.556   0.968
 7265SOL    HW223629   8.377   1.431   1.053
 7266SOL     OW23630   8.754  14.601   7.446
 7266SOL    HW123631   8.809  14.590   7.368
 7266SOL    HW223632   8.815  14.628   7.515
 7267SOL     OW23633   3.483  13.566  14.666
 7267SOL    HW123634   3.400  13.591  14.705
 7267SOL    HW223635   3.507  13.484  14.711
 7268SOL     OW23636   6.775   6.510   8.782
 7268SOL    HW123637   6.739   6.583   8.732
 7268SOL    HW223638   6.746   6.525   8.872
 7269SOL     OW23639   7.268   1.604  10.252
 7269SOL    HW123640   7.311   1.682  10.286
 7269SOL    HW223641   7.184   1.635  10.218
 7270SOL     OW23642   1.395   1.971   8.390
 7270SOL    HW123643   1.436   1.896   8.433
 7270SOL    HW223644   1.441   2.047   8.425
 7271SOL     OW23645  10.228   7.516  14.856
 7271SOL    HW123646  10.212   7.574  14.782
 7271SOL    HW223647  10.143   7.507   0.019
 7272SOL     OW23648   8.874   6.914   7.995
 7272SOL    HW123649   8.805   6.951   7.939
 7272SOL    HW223650   8.940   6.984   8.000
 7273SOL     OW23651  11.637  14.710   4.918
 7273SOL    HW123652  11.728  14.681   4.911
 7273SOL    HW223653  11.597  14.681   4.836
 7274SOL     OW23654  14.475   2.111   4.625
 7274SOL    HW123655  14.467   2.180   4.691
 7274SOL    HW223656  14.569   2.094   4.621
 7275SOL     OW23657   8.943   3.547  14.495
 7275SOL    HW123658   8.973   3.538  14.585
 7275SOL    HW223659   8.860   3.595  14.501
 7276SOL     OW23660   2.990   2.599   8.056
 7276SOL    HW123661   3.021   2.666   8.117
 7276SOL    HW223662   2.909   2.566   8.096
 7277SOL     OW23663   1.919   7.397   1.049
 7277SOL    HW123664   2.000   7.436   1.015
 7277SOL    HW223665   1.879   7.355   0.972
 7278SOL     OW23666   9.595   3.450   7.807
 7278SOL    HW123667   9.585   3.379   7.745
 7278SOL    HW223668   9.544   3.522   7.770
 7279SOL     OW23669  13.557   7.002  13.539
 7279SOL    HW123670  13.500   7.053  13.596
 7279SOL    HW223671  13.562   7.054  13.458
 7280SOL     OW23672   1.127  13.319   0.433
 7280SOL    HW123673   1.217  13.345   0.454
 7280SOL    HW223674   1.118  13.232   0.471
 7281SOL     OW23675  13.501  13.051   2.486
 7281SOL    HW123676  13.453  12.971   2.509
 7281SOL    HW223677  13.573  13.020   2.431
 7282SOL     OW23678   6.570   2.013   8.882
 7282SOL    HW123679   6.641   1.989   8.822
 7282SOL    HW223680   6.505   2.057   8.827
 7283SOL     OW23681  13.904  13.101   8.942
 7283SOL    HW123682  13.925  13.078   8.851
 7283SOL    HW223683  13.898  13.196   8.942
 7284SOL     OW23684   7.209   7.841   0.752
 7284SOL    HW123685   7.279   7.879   0.699
 7284SOL    HW223686   7.254   7.802   0.827
 7285SOL     OW23687   5.406  11.142   4.958
 7285SOL    HW123688   5.438  11.060   4.921
 7285SOL    HW223689   5.474  11.170   5.019
 7286SOL     OW23690   8.774  11.005   5.737
 7286SOL    HW123691   8.841  11.034   5.674
 7286SOL    HW223692   8.790  10.911   5.747
 7287SOL     OW23693  13.649   5.684   4.348
 7287SOL    HW123694  13.645   5.734   4.429
 7287SOL    HW223695  13.620   5.596   4.373
 7288SOL     OW23696   2.061   7.831   3.539
 7288SOL    HW123697   2.117   7.805   3.466
 7288SOL    HW223698   2.091   7.919   3.562
 7289SOL     OW23699   3.872   5.208   6.760
 7289SOL    HW123700   3.828   5.128   6.731
 7289SOL    HW223701   3.956   5.178   6.795
 7290SOL     OW23702  12.548   4.744  10.154
 7290SOL    HW123703  12.497   4.770  10.078
 7290SOL    HW223704  12.629   4.794  10.148
 7291SOL     OW23705   9.625   0.834  13.223
 7291SOL    HW123706   9.588   0.921  13.237
 7291SOL    HW223707   9.719   0.849  13.210
 7292SOL     OW23708   2.705  12.141   3.636
 7292SOL    HW123709   2.660  12.116   3.555
 7292SOL    HW223710   2.638  12.188   3.686
 7293SOL     OW23711   4.431  11.424   4.995
 7293SOL    HW123712   4.503  11.428   5.059
 7293SOL    HW223713   4.417  11.330   4.981
 7294SOL     OW23714  10.873  13.698  10.305
 7294SOL    HW123715  10.877  13.743  10.221
 7294SOL    HW223716  10.794  13.733  10.347
 7295SOL     OW23717   4.670   3.219  10.018
 7295SOL    HW123718   4.668   3.207  10.113
 7295SOL    HW223719   4.730   3.292  10.003
 7296SOL     OW23720   4.095  14.690   9.412
 7296SOL    HW123721   4.187  14.690   9.385
 7296SOL    HW223722   4.099  14.693   9.507
 7297SOL     OW23723  12.031  14.652  13.648
 7297SOL    HW123724  12.038  14.572  13.700
 7297SOL    HW223725  12.080  14.633  13.568
 7298SOL     OW23726   2.035   8.727   8.647
 7298SOL    HW123727   2.120   8.702   8.683
 7298SOL    HW223728   2.037   8.823   8.644
 7299SOL     OW23729   2.244  11.858   3.966
 7299SOL    HW123730   2.220  11.889   3.879
 7299SOL    HW223731   2.337  11.877   3.973
 7300SOL     OW23732   0.333   1.245  11.952
 7300SOL    HW123733   0.246   1.205  11.945
 7300SOL    HW223734   0.344   1.260  12.046
 7301SOL     OW23735   7.874  12.055   8.126
 7301SOL    HW123736   7.810  12.008   8.179
 7301SOL    HW223737   7.855  12.147   8.143
 7302SOL     OW23738   2.174  11.625   3.336
 7302SOL    HW123739   2.104  11.654   3.278
 7302SOL    HW223740   2.188  11.533   3.313
 7303SOL     OW23741   6.221   7.359  14.491
 7303SOL    HW123742   6.219   7.304  14.570
 7303SOL    HW223743   6.152   7.424  14.507
 7304SOL     OW23744   9.061   6.691   4.258
 7304SOL    HW123745   9.009   6.668   4.181
 7304SOL    HW223746   9.150   6.703   4.225
 7305SOL     OW23747   7.438   2.831  10.355
 7305SOL    HW123748   7.366   2.813  10.293
 7305SOL    HW223749   7.423   2.770  10.427
 7306SOL     OW23750  10.405   5.855  13.855
 7306SOL    HW123751  10.430   5.839  13.764
 7306SOL    HW223752  10.422   5.949  13.869
 7307SOL     OW23753   2.126   7.002   2.074
 7307SOL    HW123754   2.174   7.078   2.108
 7307SOL    HW223755   2.190   6.931   2.076
 7308SOL     OW23756   6.641  13.643   8.564
 7308SOL    HW123757   6.610  13.602   8.483
 7308SOL    HW223758   6.735  13.655   8.551
 7309SOL     OW23759   0.784   9.605   2.678
 7309SOL    HW123760   0.760   9.663   2.750
 7309SOL    HW223761   0.709   9.608   2.619
 7310SOL     OW23762   0.249  10.424  12.832
 7310SOL    HW123763   0.322  10.481  12.808
 7310SOL    HW223764   0.235  10.440  12.925
 7311SOL     OW23765   2.261  13.708   3.204
 7311SOL    HW123766   2.349  13.739   3.183
 7311SOL    HW223767   2.275  13.633   3.262
 7312SOL     OW23768  10.180   8.020   3.939
 7312SOL    HW123769  10.223   7.992   4.020
 7312SOL    HW223770  10.181   7.942   3.883
 7313SOL     OW23771   6.209   6.244   7.785
 7313SOL    HW123772   6.169   6.269   7.868
 7313SOL    HW223773   6.266   6.317   7.762
 7314SOL     OW23774  13.499   0.974   3.713
 7314SOL    HW123775  13.475   0.908   3.649
 7314SOL    HW223776  13.594   0.986   3.701
 7315SOL     OW23777   7.653  13.850   7.476
 7315SOL    HW123778   7.692  13.890   7.554
 7315SOL    HW223779   7.610  13.922   7.431
 7316SOL     OW23780   2.781  14.759  13.961
 7316SOL    HW123781   2.700  14.806  13.941
 7316SOL    HW223782   2.755  14.667  13.964
 7317SOL     OW23783  13.478   2.835   6.379
 7317SOL    HW123784  13.390   2.828   6.417
 7317SOL    HW223785  13.507   2.744   6.371
 7318SOL     OW23786   1.871   6.634   0.330
 7318SOL    HW123787   1.955   6.644   0.373
 7318SOL    HW223788   1.849   6.541   0.340
 7319SOL     OW23789  10.898   4.421  10.482
 7319SOL    HW123790  10.963   4.361  10.444
 7319SOL    HW223791  10.866   4.376  10.560
 7320SOL     OW23792   4.696   1.568   5.633
 7320SOL    HW123793   4.669   1.543   5.545
 7320SOL    HW223794   4.782   1.527   5.644
 7321SOL     OW23795   7.500  12.221  10.179
 7321SOL    HW123796   7.528  12.138  10.140
 7321SOL    HW223797   7.522  12.213  10.272
 7322SOL     OW23798   4.274   2.915   3.605
 7322SOL    HW123799   4.256   2.998   3.649
 7322SOL    HW223800   4.190   2.890   3.567
 7323SOL     OW23801   4.738   3.799   5.024
 7323SOL    HW123802   4.712   3.733   4.960
 7323SOL    HW223803   4.813   3.759   5.069
 7324SOL     OW23804  11.521   3.085   1.803
 7324SOL    HW123805  11.499   2.995   1.779
 7324SOL    HW223806  11.438   3.125   1.828
 7325SOL     OW23807   7.967  11.858   3.329
 7325SOL    HW123808   7.988  11.782   3.275
 7325SOL    HW223809   8.011  11.931   3.286
 7326SOL     OW23810  14.834   8.336  13.134
 7326SOL    HW123811   0.037   8.341  13.085
 7326SOL    HW223812  14.786   8.414  13.106
 7327SOL     OW23813   5.823   2.407   4.965
 7327SOL    HW123814   5.764   2.365   4.903
 7327SOL    HW223815   5.881   2.336   4.995
 7328SOL     OW23816  11.741   6.235   5.355
 7328SOL    HW123817  11.697   6.264   5.434
 7328SOL    HW223818  11.715   6.143   5.345
 7329SOL     OW23819   1.418   1.663  14.591
 7329SOL    HW123820   1.419   1.692  14.682
 7329SOL    HW223821   1.325   1.648  14.572
 7330SOL     OW23822  13.557   1.591  13.519
 7330SOL    HW123823  13.567   1.630  13.606
 7330SOL    HW223824  13.552   1.497  13.536
 7331SOL     OW23825   8.772   6.466  11.709
 7331SOL    HW123826   8.791   6.517  11.630
 7331SOL    HW223827   8.854   6.468  11.759
 7332SOL     OW23828   8.095   0.654   9.215
 7332SOL    HW123829   8.098   0.744   9.247
 7332SOL    HW223830   8.180   0.641   9.173
 7333SOL     OW23831   0.655   6.566  13.415
 7333SOL    HW123832   0.712   6.529  13.348
 7333SOL    HW223833   0.582   6.506  13.421
 7334SOL     OW23834   4.861  11.338   0.973
 7334SOL    HW123835   4.877  11.431   0.985
 7334SOL    HW223836   4.907  11.296   1.046
 7335SOL     OW23837  10.945   4.513  12.647
 7335SOL    HW123838  11.001   4.581  12.684
 7335SOL    HW223839  10.973   4.433  12.692
 7336SOL     OW23840   2.760  14.738   9.377
 7336SOL    HW123841   2.680  14.776   9.343
 7336SOL    HW223842   2.798  14.806   9.433
 7337SOL     OW23843   6.583   5.825   4.789
 7337SOL    HW123844   6.664   5.789   4.752
 7337SOL    HW223845   6.592   5.919   4.780
 7338SOL     OW23846   8.491  12.790   6.854
 7338SOL    HW123847   8.514  12.862   6.913
 7338SOL    HW223848   8.421  12.743   6.900
 7339SOL     OW23849   9.030  12.330   8.703
 7339SOL    HW123850   9.014  12.354   8.795
 7339SOL    HW223851   9.007  12.409   8.654
 7340SOL     OW23852   4.299   9.457   0.288
 7340SOL    HW123853   4.366   9.391   0.303
 7340SOL    HW223854   4.310   9.482   0.197
 7341SOL     OW23855   2.437   9.752  11.692
 7341SOL    HW123856   2.491   9.720  11.763
 7341SOL    HW223857   2.498   9.772  11.621
 7342SOL     OW23858   9.304   7.401  12.495
 7342SOL    HW123859   9.292   7.494  12.509
 7342SOL    HW223860   9.254   7.359  12.565
 7343SOL     OW23861  12.307   7.802   4.640
 7343SOL    HW123862  12.269   7.768   4.721
 7343SOL    HW223863  12.280   7.893   4.637
 7344SOL     OW23864  10.798   6.874  12.965
 7344SOL    HW123865  10.865   6.807  12.960
 7344SOL    HW223866  10.770   6.873  13.057
 7345SOL     OW23867   0.998  12.892   1.753
 7345SOL    HW123868   0.934  12.823   1.735
 7345SOL    HW223869   0.990  12.908   1.846
 7346SOL     OW23870  12.617   9.824   1.093
 7346SOL    HW123871  12.530   9.802   1.128
 7346SOL    HW223872  12.601   9.897   1.034
 7347SOL     OW23873   2.103   4.091  11.728
 7347SOL    HW123874   2.080   4.145  11.653
 7347SOL    HW223875   2.089   4.148  11.804
 7348SOL     OW23876   2.751   7.495  10.053
 7348SOL    HW123877   2.730   7.588  10.068
 7348SOL    HW223878   2.843   7.496  10.024
 7349SOL     OW23879   3.637  12.148   5.749
 7349SOL    HW123880   3.657  12.203   5.824
 7349SOL    HW223881   3.547  12.171   5.726
 7350SOL     OW23882   2.943   6.690   5.286
 7350SOL    HW123883   2.925   6.680   5.193
 7350SOL    HW223884   3.037   6.702   5.291
 7351SOL     OW23885   4.908   9.126   3.486
 7351SOL    HW123886   4.877   9.047   3.529
 7351SOL    HW223887   4.970   9.165   3.547
 7352SOL     OW23888   5.648   6.921   8.568
 7352SOL    HW123889   5.690   6.909   8.483
 7352SOL    HW223890   5.608   7.007   8.563
 7353SOL     OW23891   9.581   4.444   9.064
 7353SOL    HW123892   9.537   4.520   9.102
 7353SOL    HW223893   9.511   4.380   9.050
 7354SOL     OW23894   3.024  10.817  10.061
 7354SOL    HW123895   3.018  10.856   9.973
 7354SOL    HW223896   3.033  10.892  10.119
 7355SOL     OW23897  11.683  13.314  12.398
 7355SOL    HW123898  11.776  13.315  12.375
 7355SOL    HW223899  11.641  13.358  12.324
 7356SOL     OW23900  10.734   8.533   5.537
 7356SOL    HW123901  10.650   8.556   5.498
 7356SOL    HW223902  10.733   8.437   5.540
 7357SOL     OW23903  12.107   4.044   6.847
 7357SOL    HW123904  12.193   4.003   6.836
 7357SOL    HW223905  12.125   4.137   6.856
 7358SOL     OW23906   8.362  14.598  11.592
 7358SOL    HW123907   8.278  14.621  11.632
 7358SOL    HW223908   8.378  14.508  11.618
 7359SOL     OW23909  14.810  11.166   0.550
 7359SOL    HW123910  14.800  11.251   0.507
 7359SOL    HW223911  14.777  11.180   0.639
 7360SOL     OW23912  10.152   5.694  12.596
 7360SOL    HW123913  10.060   5.715  12.577
 7360SOL    HW223914  10.161   5.602  12.570
 7361SOL     OW23915   0.153   1.712   8.410
 7361SOL    HW123916   0.117   1.792   8.372
 7361SOL    HW223917   0.149   1.647   8.340
 7362SOL     OW23918  10.869  12.067   1.547
 7362SOL    HW123919  10.932  11.997   1.533
 7362SOL    HW223920  10.835  12.052   1.635
 7363SOL     OW23921  10.788   0.116  12.955
 7363SOL    HW123922  10.815   0.129  13.046
 7363SOL    HW223923  10.720   0.182  12.941
 7364SOL     OW23924   4.554   8.840   4.434
 7364SOL    HW123925   4.479   8.885   4.473
 7364SOL    HW223926   4.515   8.778   4.373
 7365SOL     OW23927  14.567   1.717   8.482
 7365SOL    HW123928  14.537   1.680   8.400
 7365SOL    HW223929  14.653   1.677   8.496
 7366SOL     OW23930   2.348   7.788   6.526
 7366SOL    HW123931   2.254   7.803   6.516
 7366SOL    HW223932   2.363   7.702   6.488
 7367SOL     OW23933  12.006   8.419   6.152
 7367SOL    HW123934  11.947   8.420   6.227
 7367SOL    HW223935  12.094   8.416   6.191
 7368SOL     OW23936  14.505  14.580  13.972
 7368SOL    HW123937  14.594  14.575  14.009
 7368SOL    HW223938  14.497  14.501  13.919
 7369SOL     OW23939   8.327   3.871   8.259
 7369SOL    HW123940   8.338   3.836   8.171
 7369SOL    HW223941   8.289   3.799   8.309
 7370SOL     OW23942   7.892   4.704   9.149
 7370SOL    HW123943   7.845   4.778   9.187
 7370SOL    HW223944   7.982   4.714   9.180
 7371SOL     OW23945   7.953   1.719   5.839
 7371SOL    HW123946   7.879   1.668   5.806
 7371SOL    HW223947   8.027   1.658   5.839
 7372SOL     OW23948   1.673   8.787   5.432
 7372SOL    HW123949   1.735   8.823   5.369
 7372SOL    HW223950   1.710   8.701   5.455
 7373SOL     OW23951   4.014   9.653   7.926
 7373SOL    HW123952   3.928   9.612   7.920
 7373SOL    HW223953   4.024   9.673   8.020
 7374SOL     OW23954   9.960  11.820   2.114
 7374SOL    HW123955   9.871  11.845   2.089
 7374SOL    HW223956   9.953  11.797   2.206
 7375SOL     OW23957  14.083   1.897  14.202
 7375SOL    HW123958  14.137   1.936  14.270
 7375SOL    HW223959  14.055   1.813  14.238
 7376SOL     OW23960   9.668   1.367   2.230
 7376SOL    HW123961   9.598   1.318   2.188
 7376SOL    HW223962   9.630   1.453   2.248
 7377SOL     OW23963  10.680   4.835   4.255
 7377SOL    HW123964  10.665   4.830   4.349
 7377SOL    HW223965  10.632   4.760   4.219
 7378SOL     OW23966   2.542   3.971   4.213
 7378SOL    HW123967   2.637   3.974   4.224
 7378SOL    HW223968   2.509   3.938   4.297
 7379SOL     OW23969   6.788  14.630   8.766
 7379SOL    HW123970   6.880  14.606   8.759
 7379SOL    HW223971   6.784  14.690   8.841
 7380SOL     OW23972   0.016  13.632  10.327
 7380SOL    HW123973   0.049  13.616  10.415
 7380SOL    HW223974  14.849  13.552  10.303
 7381SOL     OW23975   3.500   5.901   5.675
 7381SOL    HW123976   3.456   5.823   5.641
 7381SOL    HW223977   3.439   5.972   5.658
 7382SOL     OW23978   2.581   8.602  10.582
 7382SOL    HW123979   2.652   8.541  10.604
 7382SOL    HW223980   2.504   8.546  10.571
 7383SOL     OW23981   8.033   2.836   7.469
 7383SOL    HW123982   7.983   2.817   7.548
 7383SOL    HW223983   8.111   2.782   7.476
 7384SOL     OW23984   6.664   1.614  11.711
 7384SOL    HW123985   6.669   1.523  11.740
 7384SOL    HW223986   6.673   1.666  11.791
 7385SOL     OW23987   3.773  13.200  10.121
 7385SOL    HW123988   3.853  13.154  10.096
 7385SOL    HW223989   3.703  13.140  10.095
 7386SOL     OW23990   8.823   6.189  10.625
 7386SOL    HW123991   8.900   6.241  10.649
 7386SOL    HW223992   8.802   6.217  10.536
 7387SOL     OW23993  14.323  13.557   5.775
 7387SOL    HW123994  14.361  13.476   5.739
 7387SOL    HW223995  14.392  13.593   5.830
 7388SOL     OW23996  14.570   2.451   3.122
 7388SOL    HW123997  14.502   2.427   3.060
 7388SOL    HW223998  14.629   2.508   3.072
 7389SOL     OW23999   2.659   6.932   7.407
 7389SOL    HW124000   2.568   6.909   7.392
 7389SOL    HW224001   2.657   6.996   7.478
 7390SOL     OW24002   3.729  13.059   4.288
 7390SOL    HW124003   3.788  13.001   4.240
 7390SOL    HW224004   3.778  13.142   4.295
 7391SOL     OW24005  14.009   7.979   1.058
 7391SOL    HW124006  14.054   7.903   1.023
 7391SOL    HW224007  14.069   8.015   1.124
 7392SOL     OW24008  13.160  12.953   3.037
 7392SOL    HW124009  13.228  13.016   3.060
 7392SOL    HW224010  13.083  12.980   3.087
 7393SOL     OW24011   9.549   1.218   2.560
 7393SOL    HW124012   9.634   1.218   2.604
 7393SOL    HW224013   9.564   1.266   2.479
 7394SOL     OW24014   1.449   2.545   9.487
 7394SOL    HW124015   1.371   2.491   9.488
 7394SOL    HW224016   1.453   2.583   9.575
 7395SOL     OW24017  13.705  12.178  10.919
 7395SOL    HW124018  13.747  12.092  10.931
 7395SOL    HW224019  13.778  12.240  10.921
 7396SOL     OW24020   9.782   1.628   4.415
 7396SOL    HW124021   9.688   1.613   4.413
 7396SOL    HW224022   9.798   1.692   4.346
 7397SOL     OW24023   8.823   6.522   2.975
 7397SOL    HW124024   8.855   6.575   3.048
 7397SOL    HW224025   8.876   6.442   2.978
 7398SOL     OW24026  13.324   6.335   3.536
 7398SOL    HW124027  13.304   6.241   3.530
 7398SOL    HW224028  13.292   6.372   3.454
 7399SOL     OW24029  12.401   2.089   7.320
 7399SOL    HW124030  12.446   2.007   7.344
 7399SOL    HW224031  12.308   2.068   7.328
 7400SOL     OW24032   9.277   8.882  13.422
 7400SOL    HW124033   9.365   8.845  13.420
 7400SOL    HW224034   9.239   8.855  13.338
 7401SOL     OW24035   9.889   6.473   3.599
 7401SOL    HW124036   9.973   6.430   3.611
 7401SOL    HW224037   9.890   6.547   3.658
 7402SOL     OW24038   9.819  10.427   2.758
 7402SOL    HW124039   9.832  10.448   2.850
 7402SOL    HW224040   9.820  10.512   2.713
 7403SOL     OW24041   5.600  14.017  11.165
 7403SOL    HW124042   5.601  14.110  11.188
 7403SOL    HW224043   5.629  14.015  11.074
 7404SOL     OW24044   8.908   3.606  14.066
 7404SOL    HW124045   8.839   3.659  14.024
 7404SOL    HW224046   8.874   3.517  14.064
 7405SOL     OW24047   6.417   6.122   4.721
 7405SOL    HW124048   6.384   6.045   4.674
 7405SOL    HW224049   6.373   6.196   4.679
 7406SOL     OW24050  14.524   2.688  11.991
 7406SOL    HW124051  14.443   2.735  11.974
 7406SOL    HW224052  14.588   2.728  11.931
 7407SOL     OW24053   8.731   5.238   8.698
 7407SOL    HW124054   8.672   5.307   8.667
 7407SOL    HW224055   8.733   5.175   8.626
 7408SOL     OW24056   2.059   8.601   5.376
 7408SOL    HW124057   2.002   8.566   5.307
 7408SOL    HW224058   2.017   8.573   5.458
 7409SOL     OW24059  12.478   1.442   8.382
 7409SOL    HW124060  12.515   1.431   8.470
 7409SOL    HW224061  12.485   1.535   8.364
 7410SOL     OW24062  10.487   4.540   7.709
 7410SOL    HW124063  10.573   4.581   7.707
 7410SOL    HW224064  10.501   4.457   7.756
 7411SOL     OW24065   2.650   9.193   0.011
 7411SOL    HW124066   2.697   9.274   0.031
 7411SOL    HW224067   2.643   9.148   0.095
 7412SOL     OW24068   4.202   0.121   7.514
 7412SOL    HW124069   4.170   0.166   7.436
 7412SOL    HW224070   4.286   0.084   7.487
 7413SOL     OW24071   1.637   5.133  12.666
 7413SOL    HW124072   1.645   5.051  12.618
 7413SOL    HW224073   1.546   5.159  12.655
 7414SOL     OW24074   9.989   0.721  14.735
 7414SOL    HW124075   9.920   0.714  14.669
 7414SOL    HW224076   9.943   0.732  14.818
 7415SOL     OW24077   7.087  10.129   0.742
 7415SOL    HW124078   7.023  10.167   0.802
 7415SOL    HW224079   7.080  10.182   0.663
 7416SOL     OW24080  11.901   2.144   8.119
 7416SOL    HW124081  11.840   2.174   8.186
 7416SOL    HW224082  11.865   2.177   8.036
 7417SOL     OW24083  11.963   6.167  11.126
 7417SOL    HW124084  12.027   6.096  11.131
 7417SOL    HW224085  11.921   6.167  11.212
 7418SOL     OW24086   3.133  10.096   6.218
 7418SOL    HW124087   3.089  10.154   6.280
 7418SOL    HW224088   3.099  10.009   6.236
 7419SOL     OW24089   3.282   2.595   9.914
 7419SOL    HW124090   3.363   2.601   9.965
 7419SOL    HW224091   3.213   2.580   9.979
 7420SOL     OW24092  14.618  14.615   4.066
 7420SOL    HW124093  14.595  14.526   4.042
 7420SOL    HW224094  14.669  14.605   4.147
 7421SOL     OW24095   5.940   0.030  13.811
 7421SOL    HW124096   5.879   0.104  13.815
 7421SOL    HW224097   5.934  14.869  13.898
 7422SOL     OW24098  12.118  13.213   1.432
 7422SOL    HW124099  12.044  13.171   1.476
 7422SOL    HW224100  12.183  13.144   1.423
 7423SOL     OW24101   3.017  11.631   8.859
 7423SOL    HW124102   2.970  11.549   8.849
 7423SOL    HW224103   2.962  11.696   8.817
 7424SOL     OW24104  10.068  10.908   7.138
 7424SOL    HW124105  10.125  10.842   7.099
 7424SOL    HW224106   9.994  10.914   7.078
 7425SOL     OW24107  11.680   1.839  10.293
 7425SOL    HW124108  11.658   1.882  10.211
 7425SOL    HW224109  11.707   1.750  10.267
 7426SOL     OW24110  11.763   5.227   8.238
 7426SOL    HW124111  11.782   5.197   8.149
 7426SOL    HW224112  11.738   5.319   8.228
 7427SOL     OW24113  10.537   5.220  10.998
 7427SOL    HW124114  10.632   5.213  10.991
 7427SOL    HW224115  10.503   5.152  10.939
 7428SOL     OW24116   9.534  11.182   5.542
 7428SOL    HW124117   9.599  11.236   5.498
 7428SOL    HW224118   9.554  11.192   5.635
 7429SOL     OW24119   5.908  11.192   7.639
 7429SOL    HW124120   5.863  11.163   7.718
 7429SOL    HW224121   5.910  11.115   7.583
 7430SOL     OW24122   7.065   2.873   5.007
 7430SOL    HW124123   6.972   2.892   5.019
 7430SOL    HW224124   7.081   2.798   5.065
 7431SOL     OW24125   1.549  14.423   3.330
 7431SOL    HW124126   1.499  14.501   3.306
 7431SOL    HW224127   1.482  14.356   3.349
 7432SOL     OW24128   0.747   8.495  13.119
 7432SOL    HW124129   0.746   8.469  13.211
 7432SOL    HW224130   0.794   8.424  13.074
 7433SOL     OW24131   6.368   3.340   8.331
 7433SOL    HW124132   6.423   3.375   8.401
 7433SOL    HW224133   6.425   3.281   8.282
 7434SOL     OW24134  13.706   6.557   3.870
 7434SOL    HW124135  13.708   6.478   3.816
 7434SOL    HW224136  13.770   6.615   3.830
 7435SOL     OW24137   0.928  10.580  10.959
 7435SOL    HW124138   0.860  10.605  10.896
 7435SOL    HW224139   0.929  10.485  10.956
 7436SOL     OW24140  12.418   7.602  10.641
 7436SOL    HW124141  12.471   7.523  10.627
 7436SOL    HW224142  12.438   7.657  10.565
 7437SOL     OW24143   4.147  13.111  13.923
 7437SOL    HW124144   4.165  13.132  14.014
 7437SOL    HW224145   4.178  13.021  13.913
 7438SOL     OW24146   7.122  11.295   9.727
 7438SOL    HW124147   7.085  11.281   9.640
 7438SOL    HW224148   7.051  11.335   9.777
 7439SOL     OW24149  12.759   8.441  14.341
 7439SOL    HW124150  12.796   8.523  14.309
 7439SOL    HW224151  12.777   8.441  14.435
 7440SOL     OW24152  12.093   6.930   9.852
 7440SOL    HW124153  12.037   6.910   9.927
 7440SOL    HW224154  12.043   6.992   9.799
 7441SOL     OW24155   0.869   8.826   6.435
 7441SOL    HW124156   0.821   8.809   6.354
 7441SOL    HW224157   0.832   8.765   6.499
 7442SOL     OW24158   3.957   3.427   9.986
 7442SOL    HW124159   4.044   3.408   9.951
 7442SOL    HW224160   3.938   3.353  10.044
 7443SOL     OW24161  14.368   4.385   8.432
 7443SOL    HW124162  14.278   4.355   8.441
 7443SOL    HW224163  14.389   4.369   8.340
 7444SOL     OW24164   0.503   5.552   3.250
 7444SOL    HW124165   0.509   5.529   3.157
 7444SOL    HW224166   0.586   5.521   3.287
 7445SOL     OW24167   9.465  13.889   5.663
 7445SOL    HW124168   9.527  13.841   5.608
 7445SOL    HW224169   9.386  13.834   5.664
 7446SOL     OW24170   4.103  11.432   9.340
 7446SOL    HW124171   4.116  11.500   9.405
 7446SOL    HW224172   4.170  11.448   9.274
 7447SOL     OW24173   9.263  12.489   7.962
 7447SOL    HW124174   9.311  12.439   7.896
 7447SOL    HW224175   9.172  12.462   7.950
 7448SOL     OW24176   8.367   5.802   5.908
 7448SOL    HW124177   8.360   5.812   6.003
 7448SOL    HW224178   8.283   5.835   5.874
 7449SOL     OW24179   7.361   9.893   0.657
 7449SOL    HW124180   7.326   9.816   0.702
 7449SOL    HW224181   7.362   9.961   0.725
 7450SOL     OW24182  13.655   2.321   0.290
 7450SOL    HW124183  13.724   2.346   0.229
 7450SOL    HW224184  13.696   2.255   0.347
 7451SOL     OW24185   2.806   6.781  10.514
 7451SOL    HW124186   2.827   6.841  10.443
 7451SOL    HW224187   2.749   6.715  10.474
 7452SOL     OW24188   6.827   2.328   0.102
 7452SOL    HW124189   6.772   2.375   0.164
 7452SOL    HW224190   6.913   2.370   0.111
 7453SOL     OW24191   6.382   9.440  10.164
 7453SOL    HW124192   6.407   9.525  10.128
 7453SOL    HW224193   6.293   9.425  10.130
 7454SOL     OW24194  11.902   5.047   5.843
 7454SOL    HW124195  11.927   4.958   5.869
 7454SOL    HW224196  11.971   5.074   5.782
 7455SOL     OW24197  11.577   1.801   9.575
 7455SOL    HW124198  11.671   1.797   9.560
 7455SOL    HW224199  11.567   1.867   9.643
 7456SOL     OW24200   8.968   0.539  10.380
 7456SOL    HW124201   8.975   0.539  10.475
 7456SOL    HW224202   9.057   0.557  10.349
 7457SOL     OW24203  13.352  13.968  12.155
 7457SOL    HW124204  13.379  14.014  12.076
 7457SOL    HW224205  13.427  13.913  12.178
 7458SOL     OW24206   4.173   3.324   1.232
 7458SOL    HW124207   4.138   3.391   1.174
 7458SOL    HW224208   4.255   3.296   1.190
 7459SOL     OW24209   7.859  11.059   7.306
 7459SOL    HW124210   7.925  10.993   7.329
 7459SOL    HW224211   7.797  11.057   7.379
 7460SOL     OW24212   3.965   3.358   8.010
 7460SOL    HW124213   4.007   3.365   7.924
 7460SOL    HW224214   3.873   3.381   7.993
 7461SOL     OW24215   8.154   4.896  10.985
 7461SOL    HW124216   8.169   4.948  11.064
 7461SOL    HW224217   8.171   4.806  11.012
 7462SOL     OW24218  11.646   2.513   8.540
 7462SOL    HW124219  11.605   2.555   8.615
 7462SOL    HW224220  11.638   2.576   8.469
 7463SOL     OW24221   7.272   0.811   9.573
 7463SOL    HW124222   7.177   0.801   9.585
 7463SOL    HW224223   7.282   0.838   9.482
 7464SOL     OW24224   1.605   7.230   5.352
 7464SOL    HW124225   1.617   7.135   5.345
 7464SOL    HW224226   1.607   7.248   5.446
 7465SOL     OW24227   6.415   0.708  14.228
 7465SOL    HW124228   6.482   0.725  14.294
 7465SOL    HW224229   6.346   0.771  14.247
 7466SOL     OW24230   5.402   7.861  12.579
 7466SOL    HW124231   5.353   7.873  12.497
 7466SOL    HW224232   5.429   7.769  12.577
 7467SOL     OW24233   7.779  11.771   8.849
 7467SOL    HW124234   7.798  11.830   8.776
 7467SOL    HW224235   7.860  11.722   8.862
 7468SOL     OW24236   8.140   4.853  14.505
 7468SOL    HW124237   8.044   4.844  14.503
 7468SOL    HW224238   8.172   4.785  14.447
 7469SOL     OW24239   0.245  14.205   3.493
 7469SOL    HW124240   0.153  14.183   3.505
 7469SOL    HW224241   0.247  14.266   3.419
 7470SOL     OW24242  14.753   5.722   5.467
 7470SOL    HW124243  14.758   5.632   5.435
 7470SOL    HW224244  14.816   5.770   5.413
 7471SOL     OW24245  12.050  13.905   2.442
 7471SOL    HW124246  12.080  13.847   2.373
 7471SOL    HW224247  12.074  13.861   2.523
 7472SOL     OW24248   5.750  10.154   7.242
 7472SOL    HW124249   5.763  10.110   7.326
 7472SOL    HW224250   5.827  10.130   7.191
 7473SOL     OW24251  11.244  12.859   8.658
 7473SOL    HW124252  11.214  12.838   8.746
 7473SOL    HW224253  11.333  12.824   8.653
 7474SOL     OW24254  12.378   1.947   7.635
 7474SOL    HW124255  12.398   1.911   7.721
 7474SOL    HW224256  12.433   2.025   7.628
 7475SOL     OW24257  11.568   7.051  14.229
 7475SOL    HW124258  11.479   7.037  14.261
 7475SOL    HW224259  11.618   6.977  14.263
 7476SOL     OW24260   3.798   0.043  13.855
 7476SOL    HW124261   3.839  14.838  13.873
 7476SOL    HW224262   3.865   0.108  13.876
 7477SOL     OW24263   1.976  12.543  14.004
 7477SOL    HW124264   2.026  12.536  14.085
 7477SOL    HW224265   1.902  12.599  14.027
 7478SOL     OW24266   2.184  12.983  12.122
 7478SOL    HW124267   2.169  12.954  12.212
 7478SOL    HW224268   2.099  13.015  12.092
 7479SOL     OW24269   9.869   8.492  12.226
 7479SOL    HW124270   9.886   8.584  12.205
 7479SOL    HW224271   9.786   8.493  12.273
 7480SOL     OW24272   6.318  12.587   9.527
 7480SOL    HW124273   6.376  12.651   9.485
 7480SOL    HW224274   6.232  12.628   9.527
 7481SOL     OW24275   1.835   2.293   5.504
 7481SOL    HW124276   1.915   2.282   5.554
 7481SOL    HW224277   1.854   2.367   5.445
 7482SOL     OW24278   3.954   4.122   3.726
 7482SOL    HW124279   3.959   4.218   3.731
 7482SOL    HW224280   3.862   4.103   3.746
 7483SOL     OW24281   5.231  14.139   9.852
 7483SOL    HW124282   5.229  14.229   9.885
 7483SOL    HW224283   5.156  14.133   9.793
 7484SOL     OW24284  14.504  13.442  14.222
 7484SOL    HW124285  14.428  13.438  14.281
 7484SOL    HW224286  14.579  13.452  14.280
 7485SOL     OW24287   7.378   3.459  11.023
 7485SOL    HW124288   7.426   3.383  11.055
 7485SOL    HW224289   7.349   3.434  10.935
 7486SOL     OW24290  12.660  13.271   7.640
 7486SOL    HW124291  12.707  13.319   7.708
 7486SOL    HW224292  12.568  13.296   7.652
 7487SOL     OW24293   1.395   6.823   5.488
 7487SOL    HW124294   1.328   6.850   5.426
 7487SOL    HW224295   1.445   6.903   5.506
 7488SOL     OW24296   8.713   6.536   6.454
 7488SOL    HW124297   8.639   6.488   6.492
 7488SOL    HW224298   8.705   6.624   6.490
 7489SOL     OW24299   3.481   4.943   8.828
 7489SOL    HW124300   3.387   4.959   8.840
 7489SOL    HW224301   3.523   5.002   8.891
 7490SOL     OW24302   7.718  14.709  10.532
 7490SOL    HW124303   7.643  14.656  10.557
 7490SOL    HW224304   7.685  14.799  10.534
 7491SOL     OW24305   5.698   7.575  10.498
 7491SOL    HW124306   5.686   7.643  10.564
 7491SOL    HW224307   5.619   7.579  10.444
 7492SOL     OW24308  14.438  10.136   8.060
 7492SOL    HW124309  14.497  10.072   8.098
 7492SOL    HW224310  14.367  10.144   8.123
 7493SOL     OW24311   4.990   7.941   0.847
 7493SOL    HW124312   4.961   7.862   0.801
 7493SOL    HW224313   5.080   7.956   0.816
 7494SOL     OW24314   3.017   0.160   3.966
 7494SOL    HW124315   3.038   0.106   3.890
 7494SOL    HW224316   2.980   0.240   3.930
 7495SOL     OW24317  13.937   2.930  11.279
 7495SOL    HW124318  13.858   2.950  11.227
 7495SOL    HW224319  14.009   2.962  11.224
 7496SOL     OW24320   6.860   4.159   0.639
 7496SOL    HW124321   6.892   4.228   0.698
 7496SOL    HW224322   6.765   4.163   0.648
 7497SOL     OW24323   4.926  13.595  11.218
 7497SOL    HW124324   4.855  13.635  11.168
 7497SOL    HW224325   4.882  13.551  11.291
 7498SOL     OW24326   4.428   6.093   9.970
 7498SOL    HW124327   4.333   6.084   9.984
 7498SOL    HW224328   4.437   6.178   9.928
 7499SOL     OW24329   1.276   9.112  12.043
 7499SOL    HW124330   1.371   9.106  12.036
 7499SOL    HW224331   1.242   9.058  11.971
 7500SOL     OW24332   0.495  12.146   3.044
 7500SOL    HW124333   0.430  12.091   3.089
 7500SOL    HW224334   0.562  12.084   3.014
 7501SOL     OW24335   9.491  13.636  11.238
 7501SOL    HW124336   9.438  13.556  11.234
 7501SOL    HW224337   9.526  13.645  11.149
 7502SOL     OW24338   5.274   3.734   9.204
 7502SOL    HW124339   5.326   3.654   9.207
 7502SOL    HW224340   5.187   3.708   9.234
 7503SOL     OW24341   7.672   0.936   1.438
 7503SOL    HW124342   7.650   0.856   1.389
 7503SOL    HW224343   7.687   0.905   1.528
 7504SOL     OW24344   0.890   3.006   8.722
 7504SOL    HW124345   0.796   3.018   8.738
 7504SOL    HW224346   0.929   3.007   8.809
 7505SOL     OW24347  13.064   3.838   9.600
 7505SOL    HW124348  13.036   3.747   9.587
 7505SOL    HW224349  13.033   3.883   9.522
 7506SOL     OW24350   9.484   3.371   2.508
 7506SOL    HW124351   9.475   3.307   2.437
 7506SOL    HW224352   9.414   3.434   2.491
 7507SOL     OW24353  13.578  12.796  14.369
 7507SOL    HW124354  13.532  12.872  14.404
 7507SOL    HW224355  13.598  12.742  14.445
 7508SOL     OW24356  10.142  10.380   6.069
 7508SOL    HW124357  10.142  10.414   5.980
 7508SOL    HW224358  10.215  10.424   6.112
 7509SOL     OW24359  14.680   5.380   1.706
 7509SOL    HW124360  14.753   5.421   1.660
 7509SOL    HW224361  14.617   5.359   1.638
 7510SOL     OW24362   4.191   6.791   6.033
 7510SOL    HW124363   4.101   6.790   5.999
 7510SOL    HW224364   4.200   6.877   6.075
 7511SOL     OW24365   9.955  13.412   4.651
 7511SOL    HW124366   9.988  13.439   4.736
 7511SOL    HW224367   9.862  13.392   4.666
 7512SOL     OW24368   5.176   1.569   8.778
 7512SOL    HW124369   5.086   1.537   8.788
 7512SOL    HW224370   5.166   1.660   8.750
 7513SOL     OW24371  11.978  12.890   1.088
 7513SOL    HW124372  12.048  12.955   1.093
 7513SOL    HW224373  11.998  12.840   1.009
 7514SOL     OW24374   9.664   0.776   5.192
 7514SOL    HW124375   9.753   0.743   5.179
 7514SOL    HW224376   9.632   0.792   5.103
 7515SOL     OW24377  12.482   6.155   9.608
 7515SOL    HW124378  12.511   6.212   9.537
 7515SOL    HW224379  12.563   6.124   9.648
 7516SOL     OW24380   3.355   5.723   9.883
 7516SOL    HW124381   3.324   5.784   9.950
 7516SOL    HW224382   3.329   5.763   9.800
 7517SOL     OW24383   8.120   4.142   4.406
 7517SOL    HW124384   8.180   4.071   4.382
 7517SOL    HW224385   8.171   4.197   4.466
 7518SOL     OW24386   3.857  14.009   9.232
 7518SOL    HW124387   3.855  14.024   9.138
 7518SOL    HW224388   3.776  13.961   9.251
 7519SOL     OW24389   1.689   8.416  10.466
 7519SOL    HW124390   1.726   8.393  10.551
 7519SOL    HW224391   1.595   8.424  10.483
 7520SOL     OW24392   8.183  11.398   8.962
 7520SOL    HW124393   8.135  11.474   8.928
 7520SOL    HW224394   8.123  11.325   8.949
 7521SOL     OW24395   5.323   8.498  12.306
 7521SOL    HW124396   5.322   8.465  12.217
 7521SOL    HW224397   5.395   8.561  12.307
 7522SOL     OW24398   5.713   8.615   5.537
 7522SOL    HW124399   5.720   8.645   5.627
 7522SOL    HW224400   5.626   8.643   5.509
 7523SOL     OW24401   8.204   5.035   3.751
 7523SOL    HW124402   8.129   4.987   3.784
 7523SOL    HW224403   8.167   5.108   3.702
 7524SOL     OW24404   1.088   3.660   3.998
 7524SOL    HW124405   1.049   3.745   4.016
 7524SOL    HW224406   1.060   3.639   3.909
 7525SOL     OW24407   1.506   5.507  10.050
 7525SOL    HW124408   1.429   5.473  10.096
 7525SOL    HW224409   1.484   5.498   9.957
 7526SOL     OW24410  11.733  10.465   9.970
 7526SOL    HW124411  11.763  10.410   9.898
 7526SOL    HW224412  11.713  10.404  10.041
 7527SOL     OW24413  10.681   7.609   1.535
 7527SOL    HW124414  10.677   7.521   1.498
 7527SOL    HW224415  10.655   7.667   1.464
 7528SOL     OW24416   7.489  10.590   9.376
 7528SOL    HW124417   7.493  10.494   9.376
 7528SOL    HW224418   7.512  10.615   9.465
 7529SOL     OW24419  12.080   8.555  13.730
 7529SOL    HW124420  12.017   8.487  13.753
 7529SOL    HW224421  12.160   8.530  13.777
 7530SOL     OW24422   6.345  14.394   0.320
 7530SOL    HW124423   6.315  14.452   0.250
 7530SOL    HW224424   6.441  14.398   0.315
 7531SOL     OW24425   0.857   0.140   5.626
 7531SOL    HW124426   0.840   0.139   5.531
 7531SOL    HW224427   0.786   0.087   5.662
 7532SOL     OW24428  12.786  11.473  14.241
 7532SOL    HW124429  12.709  11.460  14.186
 7532SOL    HW224430  12.850  11.514  14.182
 7533SOL     OW24431  11.690   3.452   5.636
 7533SOL    HW124432  11.754   3.508   5.682
 7533SOL    HW224433  11.694   3.481   5.545
 7534SOL     OW24434   8.888   8.413  11.349
 7534SOL    HW124435   8.923   8.437  11.264
 7534SOL    HW224436   8.801   8.454  11.352
 7535SOL     OW24437   1.856   3.606   5.994
 7535SOL    HW124438   1.888   3.529   6.041
 7535SOL    HW224439   1.932   3.662   5.983
 7536SOL     OW24440   6.014   3.265  11.060
 7536SOL    HW124441   5.957   3.203  11.016
 7536SOL    HW224442   5.972   3.350  11.047
 7537SOL     OW24443   5.872   8.206   6.509
 7537SOL    HW124444   5.928   8.129   6.511
 7537SOL    HW224445   5.932   8.280   6.518
 7538SOL     OW24446  10.739   0.453   8.006
 7538SOL    HW124447  10.828   0.445   8.040
 7538SOL    HW224448  10.684   0.459   8.085
 7539SOL     OW24449  10.419   0.783   5.405
 7539SOL    HW124450  10.414   0.747   5.494
 7539SOL    HW224451  10.511   0.775   5.381
 7540SOL     OW24452   3.423   5.345  14.702
 7540SOL    HW124453   3.356   5.414  14.706
 7540SOL    HW224454   3.400   5.285  14.773
 7541SOL     OW24455  14.700   4.691   6.642
 7541SOL    HW124456  14.729   4.782   6.646
 7541SOL    HW224457  14.634   4.690   6.573
 7542SOL     OW24458  10.839   4.029  10.799
 7542SOL    HW124459  10.851   3.962  10.866
 7542SOL    HW224460  10.774   3.992  10.740
 7543SOL     OW24461   9.120  12.071   8.797
 7543SOL    HW124462   9.204  12.075   8.842
 7543SOL    HW224463   9.119  12.149   8.740
 7544SOL     OW24464   6.224   2.464   7.693
 7544SOL    HW124465   6.193   2.554   7.704
 7544SOL    HW224466   6.319   2.472   7.679
 7545SOL     OW24467   5.028  13.872   3.018
 7545SOL    HW124468   4.970  13.945   2.999
 7545SOL    HW224469   5.106  13.889   2.965
 7546SOL     OW24470   9.378   6.171   4.079
 7546SOL    HW124471   9.373   6.212   3.993
 7546SOL    HW224472   9.470   6.181   4.105
 7547SOL     OW24473   3.805   9.547   8.364
 7547SOL    HW124474   3.861   9.623   8.384
 7547SOL    HW224475   3.758   9.573   8.285
 7548SOL     OW24476  13.451   1.261   7.051
 7548SOL    HW124477  13.383   1.212   7.098
 7548SOL    HW224478  13.517   1.195   7.029
 7549SOL     OW24479   0.548  10.169   7.535
 7549SOL    HW124480   0.602  10.247   7.520
 7549SOL    HW224481   0.470  10.183   7.482
 7550SOL     OW24482   8.918   8.475   2.572
 7550SOL    HW124483   9.005   8.441   2.554
 7550SOL    HW224484   8.916   8.560   2.527
 7551SOL     OW24485   1.132   5.005  10.498
 7551SOL    HW124486   1.182   5.019  10.578
 7551SOL    HW224487   1.185   5.045  10.429
 7552SOL     OW24488   1.747   4.964   8.623
 7552SOL    HW124489   1.659   4.929   8.631
 7552SOL    HW224490   1.749   5.008   8.538
 7553SOL     OW24491  10.593   2.469   9.384
 7553SOL    HW124492  10.622   2.560   9.369
 7553SOL    HW224493  10.647   2.439   9.457
 7554SOL     OW24494  14.290  10.313   6.501
 7554SOL    HW124495  14.208  10.278   6.468
 7554SOL    HW224496  14.277  10.321   6.595
 7555SOL     OW24497   0.833   0.903   3.465
 7555SOL    HW124498   0.801   0.909   3.555
 7555SOL    HW224499   0.782   0.833   3.425
 7556SOL     OW24500   6.588   5.326   4.644
 7556SOL    HW124501   6.563   5.235   4.658
 7556SOL    HW224502   6.517   5.377   4.683
 7557SOL     OW24503   6.980  10.496   7.598
 7557SOL    HW124504   7.037  10.547   7.656
 7557SOL    HW224505   6.994  10.405   7.624
 7558SOL     OW24506   4.543  11.985   5.098
 7558SOL    HW124507   4.456  12.005   5.131
 7558SOL    HW224508   4.528  11.936   5.017
 7559SOL     OW24509   8.087   4.725   3.561
 7559SOL    HW124510   8.089   4.715   3.656
 7559SOL    HW224511   7.994   4.738   3.540
 7560SOL     OW24512  10.763   0.216   9.665
 7560SOL    HW124513  10.779   0.238   9.757
 7560SOL    HW224514  10.846   0.234   9.622
 7561SOL     OW24515   9.548  11.470   2.533
 7561SOL    HW124516   9.477  11.424   2.488
 7561SOL    HW224517   9.517  11.477   2.624
 7562SOL     OW24518  11.998   2.152   8.741
 7562SOL    HW124519  11.950   2.137   8.659
 7562SOL    HW224520  11.941   2.209   8.792
 7563SOL     OW24521   8.648   7.270   8.662
 7563SOL    HW124522   8.589   7.320   8.605
 7563SOL    HW224523   8.609   7.277   8.749
 7564SOL     OW24524   3.861   1.332   1.884
 7564SOL    HW124525   3.790   1.394   1.871
 7564SOL    HW224526   3.817   1.247   1.889
 7565SOL     OW24527   5.733   9.730  12.612
 7565SOL    HW124528   5.658   9.759  12.559
 7565SOL    HW224529   5.782   9.672  12.554
 7566SOL     OW24530   6.183   5.746   1.796
 7566SOL    HW124531   6.091   5.747   1.822
 7566SOL    HW224532   6.229   5.781   1.872
 7567SOL     OW24533   8.353   5.547   3.177
 7567SOL    HW124534   8.275   5.603   3.174
 7567SOL    HW224535   8.389   5.551   3.088
 7568SOL     OW24536   5.301  11.045  10.040
 7568SOL    HW124537   5.284  10.951  10.032
 7568SOL    HW224538   5.240  11.075  10.107
 7569SOL     OW24539   7.350  12.725  14.113
 7569SOL    HW124540   7.279  12.760  14.058
 7569SOL    HW224541   7.321  12.740  14.202
 7570SOL     OW24542  13.012  13.039  10.835
 7570SOL    HW124543  13.093  13.011  10.879
 7570SOL    HW224544  13.038  13.110  10.778
 7571SOL     OW24545   9.978   2.362  11.592
 7571SOL    HW124546  10.041   2.366  11.664
 7571SOL    HW224547   9.910   2.425  11.617
 7572SOL     OW24548   0.432   5.634   9.396
 7572SOL    HW124549   0.456   5.674   9.312
 7572SOL    HW224550   0.428   5.707   9.457
 7573SOL     OW24551   5.122   6.616  12.780
 7573SOL    HW124552   5.130   6.700  12.735
 7573SOL    HW224553   5.116   6.639  12.873
 7574SOL     OW24554   5.397   7.973  11.565
 7574SOL    HW124555   5.350   7.975  11.482
 7574SOL    HW224556   5.475   8.026  11.550
 7575SOL     OW24557  14.290   6.833  12.385
 7575SOL    HW124558  14.341   6.822  12.305
 7575SOL    HW224559  14.243   6.751  12.395
 7576SOL     OW24560  14.856   9.259  12.454
 7576SOL    HW124561   0.003   9.177  12.493
 7576SOL    HW224562   0.013   9.327  12.511
 7577SOL     OW24563   3.926   9.762  11.042
 7577SOL    HW124564   3.922   9.837  11.102
 7577SOL    HW224565   4.003   9.780  10.988
 7578SOL     OW24566   9.946   6.953   8.530
 7578SOL    HW124567  10.005   6.968   8.604
 7578SOL    HW224568   9.999   6.972   8.452
 7579SOL     OW24569   0.868  12.972   3.483
 7579SOL    HW124570   0.914  12.954   3.401
 7579SOL    HW224571   0.930  13.022   3.535
 7580SOL     OW24572   8.203   8.519   9.811
 7580SOL    HW124573   8.128   8.465   9.788
 7580SOL    HW224574   8.234   8.485   9.894
 7581SOL     OW24575   0.543   1.744   5.350
 7581SOL    HW124576   0.579   1.826   5.384
 7581SOL    HW224577   0.607   1.678   5.376
 7582SOL     OW24578  10.506   0.987   2.414
 7582SOL    HW124579  10.487   0.912   2.469
 7582SOL    HW224580  10.602   0.991   2.410
 7583SOL     OW24581   5.897  12.678  10.109
 7583SOL    HW124582   5.861  12.590  10.119
 7583SOL    HW224583   5.820  12.734  10.096
 7584SOL     OW24584   4.634   5.939   7.505
 7584SOL    HW124585   4.724   5.909   7.491
 7584SOL    HW224586   4.619   5.926   7.599
 7585SOL     OW24587   8.180   9.358   6.731
 7585SOL    HW124588   8.119   9.420   6.692
 7585SOL    HW224589   8.222   9.315   6.657
 7586SOL     OW24590   9.376   5.367   9.315
 7586SOL    HW124591   9.332   5.452   9.307
 7586SOL    HW224592   9.469   5.387   9.307
 7587SOL     OW24593  13.262   8.847   6.991
 7587SOL    HW124594  13.291   8.798   7.068
 7587SOL    HW224595  13.319   8.924   6.989
 7588SOL     OW24596  10.261   8.802   5.089
 7588SOL    HW124597  10.308   8.732   5.043
 7588SOL    HW224598  10.249   8.870   5.023
 7589SOL     OW24599  12.449   9.446   1.051
 7589SOL    HW124600  12.473   9.501   1.126
 7589SOL    HW224601  12.511   9.472   0.982
 7590SOL     OW24602  14.474   1.312  13.470
 7590SOL    HW124603  14.441   1.227  13.499
 7590SOL    HW224604  14.554   1.325  13.521
 7591SOL     OW24605  14.556   3.229   8.679
 7591SOL    HW124606  14.495   3.242   8.606
 7591SOL    HW224607  14.603   3.313   8.686
 7592SOL     OW24608   5.588  11.997   6.614
 7592SOL    HW124609   5.614  11.939   6.542
 7592SOL    HW224610   5.493  11.990   6.618
 7593SOL     OW24611   1.294   9.397   3.974
 7593SOL    HW124612   1.309   9.408   4.068
 7593SOL    HW224613   1.270   9.485   3.944
 7594SOL     OW24614  13.567  13.329   3.068
 7594SOL    HW124615  13.555  13.419   3.036
 7594SOL    HW224616  13.570  13.275   2.989
 7595SOL     OW24617  13.796   1.098   4.261
 7595SOL    HW124618  13.736   1.026   4.242
 7595SOL    HW224619  13.820   1.087   4.353
 7596SOL     OW24620   3.392   1.646   7.192
 7596SOL    HW124621   3.488   1.638   7.186
 7596SOL    HW224622   3.358   1.586   7.126
 7597SOL     OW24623   3.461   4.232   0.025
 7597SOL    HW124624   3.549   4.194   0.020
 7597SOL    HW224625   3.409   4.165   0.070
 7598SOL     OW24626   4.787  10.299   9.548
 7598SOL    HW124627   4.752  10.215   9.517
 7598SOL    HW224628   4.850  10.275   9.616
 7599SOL     OW24629   2.983   4.019   6.406
 7599SOL    HW124630   3.008   3.928   6.386
 7599SOL    HW224631   2.926   4.011   6.482
 7600SOL     OW24632  14.286   2.280   8.373
 7600SOL    HW124633  14.194   2.302   8.391
 7600SOL    HW224634  14.310   2.336   8.300
 7601SOL     OW24635   4.907   8.474  13.090
 7601SOL    HW124636   4.883   8.481  12.997
 7601SOL    HW224637   4.987   8.525  13.098
 7602SOL     OW24638   7.207   9.727   0.790
 7602SOL    HW124639   7.123   9.774   0.784
 7602SOL    HW224640   7.187   9.648   0.840
 7603SOL     OW24641   6.921   5.483   0.264
 7603SOL    HW124642   6.879   5.566   0.288
 7603SOL    HW224643   6.890   5.465   0.176
 7604SOL     OW24644  13.025   4.289   3.453
 7604SOL    HW124645  13.006   4.383   3.452
 7604SOL    HW224646  12.939   4.248   3.450
 7605SOL     OW24647   1.513   5.106   8.183
 7605SOL    HW124648   1.520   5.200   8.202
 7605SOL    HW224649   1.574   5.092   8.112
 7606SOL     OW24650   4.814   8.631   1.661
 7606SOL    HW124651   4.824   8.725   1.645
 7606SOL    HW224652   4.722   8.613   1.642
 7607SOL     OW24653   0.263   1.927   0.190
 7607SOL    HW124654   0.329   1.992   0.216
 7607SOL    HW224655   0.204   1.976   0.132
 7608SOL     OW24656   1.729   1.660   6.470
 7608SOL    HW124657   1.782   1.592   6.511
 7608SOL    HW224658   1.756   1.661   6.378
 7609SOL     OW24659  12.416   7.049   9.385
 7609SOL    HW124660  12.453   7.119   9.332
 7609SOL    HW224661  12.383   7.092   9.463
 7610SOL     OW24662   0.264   2.872   2.890
 7610SOL    HW124663   0.277   2.885   2.984
 7610SOL    HW224664   0.172   2.850   2.880
 7611SOL     OW24665  10.322   3.046   0.900
 7611SOL    HW124666  10.305   2.954   0.921
 7611SOL    HW224667  10.262   3.095   0.956
 7612SOL     OW24668   1.302   0.279  12.153
 7612SOL    HW124669   1.229   0.260  12.093
 7612SOL    HW224670   1.317   0.196  12.199
 7613SOL     OW24671   8.705   8.717   5.747
 7613SOL    HW124672   8.613   8.691   5.756
 7613SOL    HW224673   8.703   8.812   5.737
 7614SOL     OW24674   2.967   0.731   4.850
 7614SOL    HW124675   3.055   0.751   4.821
 7614SOL    HW224676   2.945   0.801   4.912
 7615SOL     OW24677   7.169  12.613   7.247
 7615SOL    HW124678   7.240  12.574   7.196
 7615SOL    HW224679   7.095  12.615   7.187
 7616SOL     OW24680   1.554   9.480   3.725
 7616SOL    HW124681   1.539   9.574   3.735
 7616SOL    HW224682   1.476   9.439   3.763
 7617SOL     OW24683   9.704  13.250  11.813
 7617SOL    HW124684   9.693  13.183  11.746
 7617SOL    HW224685   9.743  13.203  11.887
 7618SOL     OW24686   8.382   2.250   4.767
 7618SOL    HW124687   8.301   2.217   4.726
 7618SOL    HW224688   8.452   2.216   4.712
 7619SOL     OW24689  10.756  11.062   5.177
 7619SOL    HW124690  10.748  10.984   5.232
 7619SOL    HW224691  10.811  11.034   5.104
 7620SOL     OW24692   0.605   7.546   2.717
 7620SOL    HW124693   0.580   7.454   2.716
 7620SOL    HW224694   0.678   7.552   2.655
 7621SOL     OW24695   5.176  10.311  14.088
 7621SOL    HW124696   5.184  10.404  14.068
 7621SOL    HW224697   5.186  10.305  14.183
 7622SOL     OW24698  12.424  13.875  10.882
 7622SOL    HW124699  12.467  13.872  10.968
 7622SOL    HW224700  12.489  13.916  10.825
 7623SOL     OW24701  14.359   5.210   1.803
 7623SOL    HW124702  14.429   5.271   1.827
 7623SOL    HW224703  14.292   5.264   1.761
 7624SOL     OW24704  10.543   4.478   3.180
 7624SOL    HW124705  10.534   4.522   3.096
 7624SOL    HW224706  10.453   4.462   3.209
 7625SOL     OW24707   5.681  10.692  13.365
 7625SOL    HW124708   5.738  10.665  13.293
 7625SOL    HW224709   5.702  10.629  13.435
 7626SOL     OW24710   8.655   4.383  11.918
 7626SOL    HW124711   8.713   4.369  11.843
 7626SOL    HW224712   8.715   4.401  11.991
 7627SOL     OW24713  14.270   7.569  12.545
 7627SOL    HW124714  14.254   7.479  12.573
 7627SOL    HW224715  14.317   7.560  12.462
 7628SOL     OW24716   6.355   7.464  13.807
 7628SOL    HW124717   6.436   7.413  13.807
 7628SOL    HW224718   6.377   7.545  13.853
 7629SOL     OW24719   8.422  13.646   6.698
 7629SOL    HW124720   8.405  13.668   6.606
 7629SOL    HW224721   8.517  13.649   6.706
 7630SOL     OW24722   3.330   4.437   8.363
 7630SOL    HW124723   3.327   4.508   8.427
 7630SOL    HW224724   3.420   4.405   8.366
 7631SOL     OW24725   6.856  12.112   9.800
 7631SOL    HW124726   6.807  12.089   9.721
 7631SOL    HW224727   6.946  12.088   9.780
 7632SOL     OW24728   5.680   0.238  11.596
 7632SOL    HW124729   5.611   0.180  11.628
 7632SOL    HW224730   5.634   0.298  11.537
 7633SOL     OW24731   9.726   6.583   9.429
 7633SOL    HW124732   9.763   6.669   9.410
 7633SOL    HW224733   9.640   6.584   9.387
 7634SOL     OW24734  12.051  13.487   0.413
 7634SOL    HW124735  12.139  13.508   0.444
 7634SOL    HW224736  12.023  13.566   0.366
 7635SOL     OW24737   5.545   0.735  12.101
 7635SOL    HW124738   5.603   0.681  12.154
 7635SOL    HW224739   5.492   0.672  12.052
 7636SOL     OW24740   7.318   8.088   9.959
 7636SOL    HW124741   7.297   8.062  10.049
 7636SOL    HW224742   7.243   8.059   9.908
 7637SOL     OW24743   1.496  11.304   3.482
 7637SOL    HW124744   1.501  11.368   3.412
 7637SOL    HW224745   1.405  11.307   3.512
 7638SOL     OW24746   6.582   6.906   6.767
 7638SOL    HW124747   6.622   6.828   6.805
 7638SOL    HW224748   6.582   6.970   6.838
 7639SOL     OW24749   8.857   4.355  14.402
 7639SOL    HW124750   8.773   4.366  14.446
 7639SOL    HW224751   8.844   4.397  14.317
 7640SOL     OW24752  12.522  10.430   2.941
 7640SOL    HW124753  12.582  10.355   2.943
 7640SOL    HW224754  12.580  10.506   2.951
 7641SOL     OW24755   4.358   6.501   7.576
 7641SOL    HW124756   4.361   6.584   7.623
 7641SOL    HW224757   4.338   6.526   7.485
 7642SOL     OW24758  12.515   5.101  14.494
 7642SOL    HW124759  12.462   5.040  14.546
 7642SOL    HW224760  12.460   5.179  14.486
 7643SOL     OW24761   9.169   6.057  12.385
 7643SOL    HW124762   9.160   6.099  12.470
 7643SOL    HW224763   9.167   5.963  12.403
 7644SOL     OW24764   5.654   8.431   2.389
 7644SOL    HW124765   5.742   8.406   2.362
 7644SOL    HW224766   5.633   8.371   2.461
 7645SOL     OW24767  13.025   7.596  10.099
 7645SOL    HW124768  13.037   7.647  10.179
 7645SOL    HW224769  12.976   7.518  10.128
 7646SOL     OW24770   7.218  10.676   1.197
 7646SOL    HW124771   7.238  10.606   1.135
 7646SOL    HW224772   7.294  10.734   1.194
 7647SOL     OW24773   9.824  13.822  12.709
 7647SOL    HW124774   9.809  13.737  12.668
 7647SOL    HW224775   9.919  13.829  12.714
 7648SOL     OW24776  10.869  10.613   3.406
 7648SOL    HW124777  10.906  10.578   3.487
 7648SOL    HW224778  10.929  10.583   3.338
 7649SOL     OW24779   0.027   4.297  10.056
 7649SOL    HW124780   0.081   4.225  10.087
 7649SOL    HW224781  14.831   4.299  10.116
 7650SOL     OW24782   7.127   3.987   6.491
 7650SOL    HW124783   7.118   4.082   6.489
 7650SOL    HW224784   7.210   3.970   6.446
 7651SOL     OW24785  13.166  14.748   6.875
 7651SOL    HW124786  13.242  14.753   6.817
 7651SOL    HW224787  13.135  14.658   6.866
 7652SOL     OW24788  14.395   4.242   0.012
 7652SOL    HW124789  14.439   4.188  14.826
 7652SOL    HW224790  14.349   4.180   0.068
 7653SOL     OW24791  13.810  14.563  14.189
 7653SOL    HW124792  13.848  14.608  14.265
 7653SOL    HW224793  13.720  14.544  14.216
 7654SOL     OW24794  14.196  10.689  14.729
 7654SOL    HW124795  14.281  10.714  14.763
 7654SOL    HW224796  14.149  10.771  14.717
 7655SOL     OW24797  14.384   3.553   5.668
 7655SOL    HW124798  14.423   3.476   5.625
 7655SOL    HW224799  14.437   3.565   5.747
 7656SOL     OW24800   3.465  14.126  13.226
 7656SOL    HW124801   3.446  14.164  13.312
 7656SOL    HW224802   3.513  14.046  13.245
 7657SOL     OW24803  14.637  14.285  11.528
 7657SOL    HW124804  14.650  14.201  11.483
 7657SOL    HW224805  14.548  14.280  11.562
 7658SOL     OW24806   7.196   4.778   8.620
 7658SOL    HW124807   7.248   4.770   8.539
 7658SOL    HW224808   7.127   4.840   8.598
 7659SOL     OW24809   7.023   6.309  14.287
 7659SOL    HW124810   6.958   6.274  14.347
 7659SOL    HW224811   7.015   6.404  14.297
 7660SOL     OW24812   5.864   4.045  13.484
 7660SOL    HW124813   5.856   3.952  13.460
 7660SOL    HW224814   5.955   4.055  13.511
 7661SOL     OW24815  13.203   6.781  10.689
 7661SOL    HW124816  13.218   6.772  10.595
 7661SOL    HW224817  13.164   6.868  10.699
 7662SOL     OW24818   9.149   6.302   2.125
 7662SOL    HW124819   9.189   6.351   2.196
 7662SOL    HW224820   9.174   6.349   2.046
 7663SOL     OW24821  10.483   7.741   1.384
 7663SOL    HW124822  10.456   7.820   1.432
 7663SOL    HW224823  10.412   7.679   1.397
 7664SOL     OW24824  11.923  14.682   2.443
 7664SOL    HW124825  11.833  14.662   2.471
 7664SOL    HW224826  11.920  14.675   2.347
 7665SOL     OW24827   3.934   4.159  11.274
 7665SOL    HW124828   4.012   4.213  11.258
 7665SOL    HW224829   3.954   4.075  11.233
 7666SOL     OW24830   8.292  13.275  10.287
 7666SOL    HW124831   8.303  13.321  10.204
 7666SOL    HW224832   8.198  13.270  10.300
 7667SOL     OW24833  11.210   6.782   9.745
 7667SOL    HW124834  11.230   6.729   9.822
 7667SOL    HW224835  11.268   6.858   9.753
 7668SOL     OW24836   1.972  11.685   3.144
 7668SOL    HW124837   1.973  11.781   3.137
 7668SOL    HW224838   1.879  11.663   3.154
 7669SOL     OW24839   3.269   6.854  12.944
 7669SOL    HW124840   3.230   6.923  12.890
 7669SOL    HW224841   3.342   6.821  12.892
 7670SOL     OW24842  11.465   9.916   1.761
 7670SOL    HW124843  11.453   9.886   1.671
 7670SOL    HW224844  11.544   9.970   1.757
 7671SOL     OW24845   4.250   5.885   1.064
 7671SOL    HW124846   4.179   5.833   1.100
 7671SOL    HW224847   4.208   5.967   1.036
 7672SOL     OW24848   4.013   6.493  13.534
 7672SOL    HW124849   3.931   6.458  13.497
 7672SOL    HW224850   3.991   6.582  13.561
 7673SOL     OW24851   6.739   9.604   9.553
 7673SOL    HW124852   6.790   9.665   9.499
 7673SOL    HW224853   6.711   9.536   9.493
 7674SOL     OW24854   4.405  11.589  11.573
 7674SOL    HW124855   4.326  11.559  11.618
 7674SOL    HW224856   4.468  11.605  11.644
 7675SOL     OW24857   1.367   9.554  11.143
 7675SOL    HW124858   1.295   9.508  11.099
 7675SOL    HW224859   1.436   9.488  11.153
 7676SOL     OW24860   2.595  13.902   5.204
 7676SOL    HW124861   2.573  13.977   5.149
 7676SOL    HW224862   2.565  13.826   5.154
 7677SOL     OW24863  12.869  11.173   7.702
 7677SOL    HW124864  12.900  11.179   7.612
 7677SOL    HW224865  12.795  11.234   7.706
 7678SOL     OW24866   2.989  11.109   8.323
 7678SOL    HW124867   2.944  11.032   8.289
 7678SOL    HW224868   2.954  11.119   8.412
 7679SOL     OW24869  11.732   5.071   8.639
 7679SOL    HW124870  11.720   4.976   8.642
 7679SOL    HW224871  11.745   5.096   8.731
 7680SOL     OW24872   0.471  10.367   2.082
 7680SOL    HW124873   0.462  10.462   2.082
 7680SOL    HW224874   0.566  10.352   2.089
 7681SOL     OW24875   6.948  13.792   6.245
 7681SOL    HW124876   6.940  13.726   6.176
 7681SOL    HW224877   6.989  13.746   6.318
 7682SOL     OW24878   2.177  13.080   8.880
 7682SOL    HW124879   2.262  13.044   8.906
 7682SOL    HW224880   2.160  13.043   8.794
 7683SOL     OW24881   5.463   7.439   9.376
 7683SOL    HW124882   5.524   7.378   9.417
 7683SOL    HW224883   5.515   7.482   9.307
 7684SOL     OW24884   1.226  11.482  12.798
 7684SOL    HW124885   1.190  11.461  12.712
 7684SOL    HW224886   1.260  11.399  12.831
 7685SOL     OW24887  13.717  14.394   5.883
 7685SOL    HW124888  13.635  14.426   5.920
 7685SOL    HW224889  13.691  14.345   5.805
 7686SOL     OW24890   0.284   9.069   7.402
 7686SOL    HW124891   0.261   9.159   7.378
 7686SOL    HW224892   0.302   9.072   7.495
 7687SOL     OW24893  13.164   2.515   8.835
 7687SOL    HW124894  13.128   2.485   8.752
 7687SOL    HW224895  13.193   2.435   8.879
 7688SOL     OW24896  11.849   6.025   0.276
 7688SOL    HW124897  11.908   5.957   0.310
 7688SOL    HW224898  11.781   6.034   0.344
 7689SOL     OW24899   1.626   5.797   9.994
 7689SOL    HW124900   1.719   5.818  10.001
 7689SOL    HW224901   1.624   5.701   9.984
 7690SOL     OW24902  11.028   3.907  13.306
 7690SOL    HW124903  11.046   3.952  13.388
 7690SOL    HW224904  11.084   3.950  13.242
 7691SOL     OW24905  12.335   9.569   4.120
 7691SOL    HW124906  12.378   9.632   4.178
 7691SOL    HW224907  12.252   9.611   4.097
 7692SOL     OW24908   8.017   4.219   9.375
 7692SOL    HW124909   7.967   4.279   9.320
 7692SOL    HW224910   8.107   4.250   9.369
 7693SOL     OW24911  12.808  14.241  11.569
 7693SOL    HW124912  12.837  14.330  11.548
 7693SOL    HW224913  12.875  14.185  11.530
 7694SOL     OW24914   6.053   0.880  10.539
 7694SOL    HW124915   6.135   0.836  10.519
 7694SOL    HW224916   6.077   0.972  10.550
 7695SOL     OW24917   4.648   2.114   7.517
 7695SOL    HW124918   4.699   2.188   7.483
 7695SOL    HW224919   4.571   2.111   7.461
 7696SOL     OW24920   2.836   5.946   2.703
 7696SOL    HW124921   2.752   5.993   2.698
 7696SOL    HW224922   2.826   5.874   2.642
 7697SOL     OW24923   3.503  11.405   1.058
 7697SOL    HW124924   3.445  11.436   1.128
 7697SOL    HW224925   3.496  11.309   1.063
 7698SOL     OW24926   0.124  14.035   7.881
 7698SOL    HW124927   0.114  14.020   7.975
 7698SOL    HW224928   0.216  14.060   7.871
 7699SOL     OW24929   0.341   6.559  11.411
 7699SOL    HW124930   0.249   6.553  11.386
 7699SOL    HW224931   0.389   6.538  11.332
 7700SOL     OW24932  10.642   1.126   6.061
 7700SOL    HW124933  10.563   1.119   6.009
 7700SOL    HW224934  10.638   1.050   6.120
 7701SOL     OW24935  13.957  13.208   5.284
 7701SOL    HW124936  13.969  13.283   5.225
 7701SOL    HW224937  14.022  13.222   5.353
 7702SOL     OW24938   2.674   7.249  10.009
 7702SOL    HW124939   2.616   7.261   9.934
 7702SOL    HW224940   2.706   7.337  10.029
 7703SOL     OW24941   1.755   1.253  14.324
 7703SOL    HW124942   1.727   1.241  14.415
 7703SOL    HW224943   1.771   1.164  14.293
 7704SOL     OW24944  13.952   6.552   6.437
 7704SOL    HW124945  13.972   6.459   6.434
 7704SOL    HW224946  13.985   6.586   6.353
 7705SOL     OW24947  11.266   6.031   8.089
 7705SOL    HW124948  11.339   5.983   8.127
 7705SOL    HW224949  11.243   6.097   8.154
 7706SOL     OW24950  12.239   2.901   1.738
 7706SOL    HW124951  12.267   2.812   1.757
 7706SOL    HW224952  12.315   2.942   1.696
 7707SOL     OW24953  13.630   1.766   0.521
 7707SOL    HW124954  13.628   1.798   0.431
 7707SOL    HW224955  13.723   1.747   0.537
 7708SOL     OW24956  11.835   6.498   5.821
 7708SOL    HW124957  11.831   6.549   5.740
 7708SOL    HW224958  11.913   6.444   5.813
 7709SOL     OW24959   8.843   9.942   0.038
 7709SOL    HW124960   8.930   9.973   0.066
 7709SOL    HW224961   8.861   9.879  14.848
 7710SOL     OW24962   6.460   9.686   9.568
 7710SOL    HW124963   6.438   9.734   9.489
 7710SOL    HW224964   6.552   9.660   9.556
 7711SOL     OW24965   7.792  11.249   5.917
 7711SOL    HW124966   7.740  11.169   5.910
 7711SOL    HW224967   7.825  11.262   5.828
 7712SOL     OW24968   2.583   3.323  13.363
 7712SOL    HW124969   2.660   3.370  13.331
 7712SOL    HW224970   2.604   3.300  13.454
 7713SOL     OW24971   9.070  11.858  12.942
 7713SOL    HW124972   9.016  11.864  13.021
 7713SOL    HW224973   9.058  11.768  12.912
 7714SOL     OW24974   9.539  12.693  11.594
 7714SOL    HW124975   9.587  12.614  11.619
 7714SOL    HW224976   9.448  12.671  11.610
 7715SOL     OW24977   4.224   0.863   8.077
 7715SOL    HW124978   4.319   0.866   8.077
 7715SOL    HW224979   4.201   0.818   8.158
 7716SOL     OW24980   8.868   6.493  14.007
 7716SOL    HW124981   8.943   6.457  14.054
 7716SOL    HW224982   8.905   6.561  13.950
 7717SOL     OW24983  10.314  14.574   4.876
 7717SOL    HW124984  10.275  14.661   4.882
 7717SOL    HW224985  10.406  14.590   4.852
 7718SOL     OW24986  12.575   6.224   6.275
 7718SOL    HW124987  12.484   6.207   6.250
 7718SOL    HW224988  12.573   6.309   6.318
 7719SOL     OW24989   1.931   3.902  13.912
 7719SOL    HW124990   2.007   3.846  13.894
 7719SOL    HW224991   1.946   3.937  14.000
 7720SOL     OW24992  11.361   4.411   2.060
 7720SOL    HW124993  11.415   4.333   2.046
 7720SOL    HW224994  11.272   4.378   2.073
 7721SOL     OW24995   9.073   8.135  13.991
 7721SOL    HW124996   9.037   8.163  14.075
 7721SOL    HW224997   9.040   8.046  13.979
 7722SOL     OW24998   9.261   9.334   3.208
 7722SOL    HW124999   9.196   9.392   3.249
 7722SOL    HW225000   9.236   9.331   3.116
 7723SOL     OW25001   2.663  14.858   3.885
 7723SOL    HW125002   2.586  14.829   3.933
 7723SOL    HW225003   2.727  14.787   3.895
 7724SOL     OW25004  10.878  10.540  10.704
 7724SOL    HW125005  10.873  10.518  10.611
 7724SOL    HW225006  10.961  10.503  10.734
 7725SOL     OW25007   0.410  14.390   0.708
 7725SOL    HW125008   0.469  14.357   0.777
 7725SOL    HW225009   0.330  14.413   0.755
 7726SOL     OW25010  12.403   8.438   1.251
 7726SOL    HW125011  12.425   8.473   1.338
 7726SOL    HW225012  12.308   8.446   1.246
 7727SOL     OW25013  11.253  10.183   1.201
 7727SOL    HW125014  11.252  10.114   1.267
 7727SOL    HW225015  11.203  10.145   1.127
 7728SOL     OW25016  10.169   1.960   5.083
 7728SOL    HW125017  10.144   1.880   5.036
 7728SOL    HW225018  10.110   2.027   5.049
 7729SOL     OW25019  14.372   3.870   9.715
 7729SOL    HW125020  14.341   3.855   9.626
 7729SOL    HW225021  14.436   3.942   9.707
 7730SOL     OW25022   4.669  10.339   0.369
 7730SOL    HW125023   4.707  10.391   0.439
 7730SOL    HW225024   4.741  10.326   0.307
 7731SOL     OW25025   2.038   0.385  10.125
 7731SOL    HW125026   2.049   0.314  10.188
 7731SOL    HW225027   1.943   0.386  10.107
 7732SOL     OW25028   8.214   0.654   1.956
 7732SOL    HW125029   8.158   0.730   1.967
 7732SOL    HW225030   8.153   0.583   1.933
 7733SOL     OW25031   8.153   2.177   4.648
 7733SOL    HW125032   8.099   2.186   4.727
 7733SOL    HW225033   8.090   2.167   4.577
 7734SOL     OW25034   9.367  10.829   2.904
 7734SOL    HW125035   9.402  10.780   2.829
 7734SOL    HW225036   9.440  10.835   2.966
 7735SOL     OW25037   1.099   6.448   3.436
 7735SOL    HW125038   1.159   6.391   3.387
 7735SOL    HW225039   1.030   6.389   3.466
 7736SOL     OW25040   0.231  14.718   4.697
 7736SOL    HW125041   0.163  14.693   4.760
 7736SOL    HW225042   0.235  14.646   4.635
 7737SOL     OW25043   9.591   8.383  11.541
 7737SOL    HW125044   9.622   8.293  11.548
 7737SOL    HW225045   9.618   8.411  11.454
 7738SOL     OW25046   6.361   5.097   6.250
 7738SOL    HW125047   6.321   5.124   6.333
 7738SOL    HW225048   6.369   5.178   6.200
 7739SOL     OW25049  13.950   7.298   2.407
 7739SOL    HW125050  13.931   7.241   2.481
 7739SOL    HW225051  14.044   7.316   2.413
 7740SOL     OW25052  14.003   4.746  10.197
 7740SOL    HW125053  14.011   4.656  10.167
 7740SOL    HW225054  13.979   4.740  10.289
 7741SOL     OW25055  13.527  11.586   3.996
 7741SOL    HW125056  13.623  11.588   3.991
 7741SOL    HW225057  13.508  11.530   4.070
 7742SOL     OW25058   8.029   6.874   8.111
 7742SOL    HW125059   7.995   6.848   8.025
 7742SOL    HW225060   8.110   6.921   8.092
 7743SOL     OW25061   8.987   4.342   1.491
 7743SOL    HW125062   8.896   4.329   1.464
 7743SOL    HW225063   8.983   4.346   1.586
 7744SOL     OW25064   8.784  13.931  10.524
 7744SOL    HW125065   8.696  13.907  10.553
 7744SOL    HW225066   8.815  13.855  10.474
 7745SOL     OW25067  10.723  13.739   6.261
 7745SOL    HW125068  10.746  13.826   6.228
 7745SOL    HW225069  10.759  13.678   6.197
 7746SOL     OW25070   6.928   4.840   1.201
 7746SOL    HW125071   6.916   4.773   1.134
 7746SOL    HW225072   6.893   4.801   1.281
 7747SOL     OW25073   7.952   7.803   6.107
 7747SOL    HW125074   7.989   7.730   6.058
 7747SOL    HW225075   7.870   7.822   6.063
 7748SOL     OW25076  10.436  12.897  13.212
 7748SOL    HW125077  10.386  12.918  13.133
 7748SOL    HW225078  10.523  12.876  13.179
 7749SOL     OW25079   6.310  10.540   3.432
 7749SOL    HW125080   6.305  10.531   3.527
 7749SOL    HW225081   6.250  10.474   3.398
 7750SOL     OW25082   9.614   2.357   8.345
 7750SOL    HW125083   9.525   2.322   8.333
 7750SOL    HW225084   9.614   2.392   8.434
 7751SOL     OW25085   4.053   0.395   7.509
 7751SOL    HW125086   3.985   0.437   7.455
 7751SOL    HW225087   4.038   0.301   7.496
 7752SOL     OW25088   0.243  10.087  10.232
 7752SOL    HW125089   0.183  10.057  10.301
 7752SOL    HW225090   0.203  10.168  10.199
 7753SOL     OW25091   8.140   2.925   5.519
 7753SOL    HW125092   8.083   2.847   5.520
 7753SOL    HW225093   8.192   2.915   5.439
 7754SOL     OW25094  13.412  12.953  13.852
 7754SOL    HW125095  13.341  12.924  13.795
 7754SOL    HW225096  13.415  12.889  13.923
 7755SOL     OW25097  10.805   4.819  12.764
 7755SOL    HW125098  10.895   4.844  12.787
 7755SOL    HW225099  10.816   4.753  12.696
 7756SOL     OW25100   0.359   5.698  14.052
 7756SOL    HW125101   0.338   5.652  13.971
 7756SOL    HW225102   0.400   5.780  14.023
 7757SOL     OW25103  10.734   2.000   1.245
 7757SOL    HW125104  10.653   2.012   1.195
 7757SOL    HW225105  10.704   1.981   1.334
 7758SOL     OW25106  11.112  11.520   5.615
 7758SOL    HW125107  11.046  11.452   5.602
 7758SOL    HW225108  11.195  11.475   5.596
 7759SOL     OW25109   2.929   8.067   9.607
 7759SOL    HW125110   2.996   8.027   9.553
 7759SOL    HW225111   2.857   8.085   9.547
 7760SOL     OW25112  12.616   0.647   5.102
 7760SOL    HW125113  12.616   0.625   5.009
 7760SOL    HW225114  12.651   0.735   5.106
 7761SOL     OW25115  10.444   6.778  12.927
 7761SOL    HW125116  10.509   6.818  12.868
 7761SOL    HW225117  10.360   6.793  12.884
 7762SOL     OW25118   1.248   1.822   1.636
 7762SOL    HW125119   1.203   1.832   1.719
 7762SOL    HW225120   1.211   1.743   1.597
 7763SOL     OW25121  12.677   3.828   3.098
 7763SOL    HW125122  12.674   3.801   3.190
 7763SOL    HW225123  12.613   3.772   3.054
 7764SOL     OW25124  10.342  10.714  11.014
 7764SOL    HW125125  10.312  10.805  11.013
 7764SOL    HW225126  10.283  10.669  10.953
 7765SOL     OW25127   9.576  13.526   5.061
 7765SOL    HW125128   9.647  13.512   4.998
 7765SOL    HW225129   9.557  13.439   5.096
 7766SOL     OW25130   1.636  13.628   7.658
 7766SOL    HW125131   1.706  13.684   7.622
 7766SOL    HW225132   1.643  13.640   7.752
 7767SOL     OW25133   4.764   7.643   9.203
 7767SOL    HW125134   4.811   7.709   9.254
 7767SOL    HW225135   4.825   7.619   9.133
 7768SOL     OW25136   4.944   9.668   4.648
 7768SOL    HW125137   4.893   9.709   4.719
 7768SOL    HW225138   4.911   9.578   4.643
 7769SOL     OW25139   3.154   2.592   9.333
 7769SOL    HW125140   3.152   2.664   9.396
 7769SOL    HW225141   3.212   2.527   9.371
 7770SOL     OW25142   0.828  10.042   3.940
 7770SOL    HW125143   0.884  10.113   3.972
 7770SOL    HW225144   0.844  10.039   3.846
 7771SOL     OW25145   2.189   3.287  11.085
 7771SOL    HW125146   2.205   3.207  11.136
 7771SOL    HW225147   2.125   3.261  11.019
 7772SOL     OW25148  10.810   1.721  13.396
 7772SOL    HW125149  10.767   1.696  13.314
 7772SOL    HW225150  10.765   1.800  13.424
 7773SOL     OW25151  10.101   2.228   5.582
 7773SOL    HW125152  10.073   2.278   5.659
 7773SOL    HW225153  10.043   2.258   5.512
 7774SOL     OW25154  11.337   8.009   9.990
 7774SOL    HW125155  11.349   8.095  10.032
 7774SOL    HW225156  11.352   7.946  10.060
 7775SOL     OW25157   5.691   0.963  12.034
 7775SOL    HW125158   5.739   0.958  12.117
 7775SOL    HW225159   5.613   0.909  12.049
 7776SOL     OW25160   8.820  12.365   5.905
 7776SOL    HW125161   8.839  12.354   5.812
 7776SOL    HW225162   8.748  12.304   5.922
 7777SOL     OW25163   2.690   8.230  12.977
 7777SOL    HW125164   2.686   8.295  13.048
 7777SOL    HW225165   2.731   8.154  13.017
 7778SOL     OW25166   1.569   3.974   4.654
 7778SOL    HW125167   1.613   4.017   4.727
 7778SOL    HW225168   1.638   3.960   4.589
 7779SOL     OW25169  10.573   0.514  14.742
 7779SOL    HW125170  10.632   0.509  14.667
 7779SOL    HW225171  10.512   0.584  14.720
 7780SOL     OW25172  13.970   3.809   7.126
 7780SOL    HW125173  14.058   3.846   7.120
 7780SOL    HW225174  13.960   3.785   7.219
 7781SOL     OW25175   9.736   2.770   3.722
 7781SOL    HW125176   9.723   2.851   3.772
 7781SOL    HW225177   9.649   2.750   3.686
 7782SOL     OW25178  12.848   5.790  11.497
 7782SOL    HW125179  12.942   5.799  11.486
 7782SOL    HW225180  12.819   5.875  11.530
 7783SOL     OW25181  13.997  11.715   0.114
 7783SOL    HW125182  14.062  11.760   0.061
 7783SOL    HW225183  14.042  11.638   0.148
 7784SOL     OW25184  10.621  11.808  12.668
 7784SOL    HW125185  10.590  11.742  12.730
 7784SOL    HW225186  10.541  11.853  12.640
 7785SOL     OW25187   7.910   4.355   7.847
 7785SOL    HW125188   7.874   4.398   7.770
 7785SOL    HW225189   7.870   4.400   7.921
 7786SOL     OW25190   7.648  12.962   9.600
 7786SOL    HW125191   7.568  13.010   9.623
 7786SOL    HW225192   7.618  12.874   9.580
 7787SOL     OW25193   2.979   7.951  14.733
 7787SOL    HW125194   2.909   7.999  14.778
 7787SOL    HW225195   2.934   7.896  14.669
 7788SOL     OW25196   2.407   6.368   8.386
 7788SOL    HW125197   2.318   6.340   8.366
 7788SOL    HW225198   2.455   6.353   8.305
 7789SOL     OW25199  12.220   8.253   5.531
 7789SOL    HW125200  12.268   8.298   5.601
 7789SOL    HW225201  12.221   8.316   5.458
 7790SOL     OW25202  10.628  10.375   2.211
 7790SOL    HW125203  10.635  10.285   2.241
 7790SOL    HW225204  10.695  10.422   2.262
 7791SOL     OW25205   6.500   2.447   6.088
 7791SOL    HW125206   6.589   2.464   6.060
 7791SOL    HW225207   6.478   2.362   6.051
 7792SOL     OW25208   7.856  14.183   8.008
 7792SOL    HW125209   7.820  14.103   8.046
 7792SOL    HW225210   7.826  14.253   8.065
 7793SOL     OW25211   5.738   0.633   9.081
 7793SOL    HW125212   5.645   0.610   9.077
 7793SOL    HW225213   5.782   0.551   9.104
 7794SOL     OW25214   5.861  14.081  13.135
 7794SOL    HW125215   5.885  14.059  13.225
 7794SOL    HW225216   5.779  14.034  13.121
 7795SOL     OW25217   5.371   3.426  12.222
 7795SOL    HW125218   5.377   3.436  12.127
 7795SOL    HW225219   5.461   3.412  12.251
 7796SOL     OW25220   7.389   2.467   7.205
 7796SOL    HW125221   7.392   2.550   7.158
 7796SOL    HW225222   7.373   2.491   7.296
 7797SOL     OW25223   9.284   1.136  10.481
 7797SOL    HW125224   9.327   1.068  10.534
 7797SOL    HW225225   9.214   1.169  10.537
 7798SOL     OW25226  11.890   4.063   1.839
 7798SOL    HW125227  11.978   4.040   1.809
 7798SOL    HW225228  11.864   3.991   1.897
 7799SOL     OW25229   0.487  13.424   2.659
 7799SOL    HW125230   0.460  13.514   2.681
 7799SOL    HW225231   0.404  13.377   2.650
 7800SOL     OW25232   5.898  10.373   1.639
 7800SOL    HW125233   5.972  10.325   1.677
 7800SOL    HW225234   5.882  10.330   1.555
 7801SOL     OW25235   6.020   9.642   9.642
 7801SOL    HW125236   6.062   9.578   9.585
 7801SOL    HW225237   5.926   9.633   9.623
 7802SOL     OW25238   7.375  11.192   4.033
 7802SOL    HW125239   7.352  11.284   4.022
 7802SOL    HW225240   7.312  11.159   4.097
 7803SOL     OW25241  10.848   5.271   6.389
 7803SOL    HW125242  10.790   5.347   6.382
 7803SOL    HW225243  10.831   5.221   6.308
 7804SOL     OW25244   7.916   7.174  13.032
 7804SOL    HW125245   7.968   7.149  12.956
 7804SOL    HW225246   7.981   7.193  13.100
 7805SOL     OW25247  12.020  13.334   4.472
 7805SOL    HW125248  11.994  13.256   4.423
 7805SOL    HW225249  11.995  13.407   4.415
 7806SOL     OW25250   5.064  13.417   5.952
 7806SOL    HW125251   4.971  13.436   5.961
 7806SOL    HW225252   5.074  13.328   5.987
 7807SOL     OW25253   5.677  13.494   2.813
 7807SOL    HW125254   5.619  13.548   2.758
 7807SOL    HW225255   5.641  13.503   2.901
 7808SOL     OW25256   3.560   9.241   5.936
 7808SOL    HW125257   3.581   9.247   6.029
 7808SOL    HW225258   3.620   9.175   5.902
 7809SOL     OW25259   1.912   9.019  14.663
 7809SOL    HW125260   1.939   9.044  14.574
 7809SOL    HW225261   1.843   9.081  14.685
 7810SOL     OW25262   3.367  10.011   7.657
 7810SOL    HW125263   3.282  10.038   7.623
 7810SOL    HW225264   3.351   9.995   7.751
 7811SOL     OW25265   9.016  12.962  13.743
 7811SOL    HW125266   9.040  13.054  13.754
 7811SOL    HW225267   9.024  12.924  13.830
 7812SOL     OW25268  13.719   1.695  10.742
 7812SOL    HW125269  13.728   1.734  10.655
 7812SOL    HW225270  13.680   1.764  10.795
 7813SOL     OW25271  11.429  10.677   4.390
 7813SOL    HW125272  11.475  10.638   4.315
 7813SOL    HW225273  11.465  10.631   4.466
 7814SOL     OW25274   3.101   0.341  11.371
 7814SOL    HW125275   3.156   0.322  11.447
 7814SOL    HW225276   3.161   0.338  11.297
 7815SOL     OW25277  13.749   5.633   8.140
 7815SOL    HW125278  13.710   5.589   8.065
 7815SOL    HW225279  13.675   5.677   8.183
 7816SOL     OW25280  14.709  13.664  14.702
 7816SOL    HW125281  14.658  13.599  14.750
 7816SOL    HW225282  14.644  13.712  14.651
 7817SOL     OW25283  11.301  10.259   7.509
 7817SOL    HW125284  11.300  10.332   7.447
 7817SOL    HW225285  11.331  10.297   7.591
 7818SOL     OW25286   1.325  10.028   6.564
 7818SOL    HW125287   1.391  10.042   6.496
 7818SOL    HW225288   1.325   9.934   6.579
 7819SOL     OW25289   7.822   2.495  12.861
 7819SOL    HW125290   7.786   2.491  12.773
 7819SOL    HW225291   7.845   2.587  12.874
 7820SOL     OW25292   4.999   6.600  11.906
 7820SOL    HW125293   4.936   6.590  11.835
 7820SOL    HW225294   5.010   6.512  11.942
 7821SOL     OW25295   0.382   4.954   7.231
 7821SOL    HW125296   0.411   5.012   7.160
 7821SOL    HW225297   0.463   4.921   7.270
 7822SOL     OW25298   0.938   4.807   8.219
 7822SOL    HW125299   0.933   4.752   8.298
 7822SOL    HW225300   0.936   4.896   8.252
 7823SOL     OW25301   3.913  10.013   6.303
 7823SOL    HW125302   3.871   9.949   6.360
 7823SOL    HW225303   3.997   9.975   6.281
 7824SOL     OW25304   6.568   8.472   3.993
 7824SOL    HW125305   6.607   8.508   4.072
 7824SOL    HW225306   6.494   8.530   3.974
 7825SOL     OW25307   2.491   6.198  12.379
 7825SOL    HW125308   2.481   6.121  12.436
 7825SOL    HW225309   2.438   6.178  12.302
 7826SOL     OW25310  11.482  11.613   9.700
 7826SOL    HW125311  11.534  11.540   9.666
 7826SOL    HW225312  11.407  11.618   9.641
 7827SOL     OW25313   2.643  12.693  13.081
 7827SOL    HW125314   2.609  12.739  13.005
 7827SOL    HW225315   2.712  12.636  13.047
 7828SOL     OW25316   3.708   2.186   8.258
 7828SOL    HW125317   3.719   2.281   8.258
 7828SOL    HW225318   3.657   2.169   8.178
 7829SOL     OW25319  13.729  14.526  13.634
 7829SOL    HW125320  13.804  14.567  13.590
 7829SOL    HW225321  13.660  14.526  13.568
 7830SOL     OW25322   4.474  11.202   5.985
 7830SOL    HW125323   4.555  11.165   5.950
 7830SOL    HW225324   4.441  11.258   5.915
 7831SOL     OW25325   2.992  10.736  10.350
 7831SOL    HW125326   3.056  10.782  10.404
 7831SOL    HW225327   3.034  10.728  10.264
 7832SOL     OW25328   3.752   5.384   1.958
 7832SOL    HW125329   3.785   5.441   1.889
 7832SOL    HW225330   3.687   5.329   1.914
 7833SOL     OW25331   4.256  14.149   4.346
 7833SOL    HW125332   4.334  14.137   4.292
 7833SOL    HW225333   4.185  14.162   4.283
 7834SOL     OW25334   6.934   6.055  12.042
 7834SOL    HW125335   6.967   6.145  12.044
 7834SOL    HW225336   6.844   6.062  12.072
 7835SOL     OW25337   1.141   7.272  10.931
 7835SOL    HW125338   1.158   7.224  11.013
 7835SOL    HW225339   1.046   7.285  10.931
 7836SOL     OW25340   4.651  11.764  14.601
 7836SOL    HW125341   4.569  11.716  14.608
 7836SOL    HW225342   4.646  11.829  14.672
 7837SOL     OW25343  11.688  13.430  14.118
 7837SOL    HW125344  11.782  13.423  14.138
 7837SOL    HW225345  11.659  13.508  14.166
 7838SOL     OW25346   0.297   4.930   2.363
 7838SOL    HW125347   0.255   5.003   2.408
 7838SOL    HW225348   0.224   4.871   2.340
 7839SOL     OW25349   1.505  14.339   0.557
 7839SOL    HW125350   1.575  14.388   0.599
 7839SOL    HW225351   1.482  14.271   0.620
 7840SOL     OW25352   2.982   6.624  12.315
 7840SOL    HW125353   2.994   6.539  12.272
 7840SOL    HW225354   2.906   6.662  12.271
 7841SOL     OW25355   9.834  12.299  14.729
 7841SOL    HW125356   9.739  12.303  14.740
 7841SOL    HW225357   9.859  12.215  14.768
 7842SOL     OW25358   4.469   5.662   8.053
 7842SOL    HW125359   4.382   5.699   8.033
 7842SOL    HW225360   4.512   5.730   8.105
 7843SOL     OW25361   9.304  14.743   4.513
 7843SOL    HW125362   9.271  14.717   4.599
 7843SOL    HW225363   9.316  14.660   4.467
 7844SOL     OW25364  14.260  14.119   8.481
 7844SOL    HW125365  14.188  14.134   8.542
 7844SOL    HW225366  14.277  14.025   8.486
 7845SOL     OW25367   1.920   0.116   6.226
 7845SOL    HW125368   1.991   0.134   6.288
 7845SOL    HW225369   1.876   0.200   6.216
 7846SOL     OW25370   2.802  13.351   2.698
 7846SOL    HW125371   2.811  13.385   2.787
 7846SOL    HW225372   2.712  13.318   2.694
 7847SOL     OW25373   4.877  11.117   0.764
 7847SOL    HW125374   4.906  11.081   0.848
 7847SOL    HW225375   4.782  11.114   0.768
 7848SOL     OW25376   2.916   4.621  12.756
 7848SOL    HW125377   2.899   4.715  12.759
 7848SOL    HW225378   2.998   4.613  12.708
 7849SOL     OW25379  14.545   8.715  12.527
 7849SOL    HW125380  14.584   8.800  12.547
 7849SOL    HW225381  14.594   8.683  12.451
 7850SOL     OW25382   3.484   1.879   7.695
 7850SOL    HW125383   3.462   1.896   7.786
 7850SOL    HW225384   3.496   1.784   7.690
 7851SOL     OW25385   4.679   4.691  11.510
 7851SOL    HW125386   4.687   4.755  11.581
 7851SOL    HW225387   4.695   4.607  11.552
 7852SOL     OW25388   5.074  14.655   8.151
 7852SOL    HW125389   5.103  14.565   8.135
 7852SOL    HW225390   4.994  14.663   8.101
 7853SOL     OW25391  11.196   9.053   5.145
 7853SOL    HW125392  11.287   9.033   5.125
 7853SOL    HW225393  11.199   9.098   5.230
 7854SOL     OW25394   6.115   7.213  13.246
 7854SOL    HW125395   6.165   7.263  13.310
 7854SOL    HW225396   6.028   7.251  13.248
 7855SOL     OW25397   1.014   3.079   0.045
 7855SOL    HW125398   1.030   3.044  14.837
 7855SOL    HW225399   1.011   3.174   0.033
 7856SOL     OW25400   6.668  10.925   3.253
 7856SOL    HW125401   6.762  10.941   3.240
 7856SOL    HW225402   6.663  10.833   3.279
 7857SOL     OW25403  13.360   7.243   8.444
 7857SOL    HW125404  13.301   7.168   8.454
 7857SOL    HW225405  13.302   7.318   8.434
 7858SOL     OW25406   9.712   1.823  11.549
 7858SOL    HW125407   9.714   1.790  11.639
 7858SOL    HW225408   9.670   1.753  11.499
 7859SOL     OW25409   6.693   8.575  14.610
 7859SOL    HW125410   6.609   8.540  14.581
 7859SOL    HW225411   6.693   8.665  14.577
 7860SOL     OW25412  12.854  12.643   4.801
 7860SOL    HW125413  12.887  12.706   4.866
 7860SOL    HW225414  12.929  12.586   4.783
 7861SOL     OW25415   1.938   4.112  13.015
 7861SOL    HW125416   1.932   4.205  13.037
 7861SOL    HW225417   2.016   4.106  12.959
 7862SOL     OW25418  14.021  12.656  14.373
 7862SOL    HW125419  14.042  12.579  14.321
 7862SOL    HW225420  13.956  12.703  14.321
 7863SOL     OW25421   9.601   3.787   1.690
 7863SOL    HW125422   9.542   3.822   1.624
 7863SOL    HW225423   9.671   3.746   1.640
 7864SOL     OW25424  11.169  11.769   8.120
 7864SOL    HW125425  11.208  11.727   8.043
 7864SOL    HW225426  11.238  11.766   8.186
 7865SOL     OW25427   1.376   4.786   7.562
 7865SOL    HW125428   1.426   4.778   7.644
 7865SOL    HW225429   1.285   4.777   7.588
 7866SOL     OW25430  10.551   5.386   7.992
 7866SOL    HW125431  10.536   5.465   8.044
 7866SOL    HW225432  10.539   5.414   7.902
 7867SOL     OW25433  10.084  10.422   4.032
 7867SOL    HW125434  10.103  10.330   4.053
 7867SOL    HW225435   9.998  10.419   3.990
 7868SOL     OW25436   4.830  11.669  13.186
 7868SOL    HW125437   4.763  11.607  13.216
 7868SOL    HW225438   4.869  11.703  13.266
 7869SOL     OW25439   6.522   6.401   4.496
 7869SOL    HW125440   6.454   6.334   4.508
 7869SOL    HW225441   6.474   6.483   4.489
 7870SOL     OW25442   1.194   4.237   2.168
 7870SOL    HW125443   1.121   4.212   2.224
 7870SOL    HW225444   1.251   4.288   2.224
 7871SOL     OW25445  12.692  10.053   5.853
 7871SOL    HW125446  12.746  10.118   5.899
 7871SOL    HW225447  12.604  10.091   5.853
 7872SOL     OW25448   3.458   3.561   5.040
 7872SOL    HW125449   3.410   3.588   5.118
 7872SOL    HW225450   3.543   3.606   5.047
 7873SOL     OW25451   1.456   9.148   8.609
 7873SOL    HW125452   1.464   9.193   8.525
 7873SOL    HW225453   1.535   9.172   8.658
 7874SOL     OW25454   7.849  10.582   6.578
 7874SOL    HW125455   7.761  10.551   6.556
 7874SOL    HW225456   7.906  10.507   6.564
 7875SOL     OW25457   8.343   8.687   7.168
 7875SOL    HW125458   8.268   8.708   7.225
 7875SOL    HW225459   8.378   8.772   7.143
 7876SOL     OW25460   8.632  14.562   8.387
 7876SOL    HW125461   8.639  14.474   8.351
 7876SOL    HW225462   8.703  14.567   8.452
 7877SOL     OW25463  13.773   1.512  13.347
 7877SOL    HW125464  13.702   1.541  13.405
 7877SOL    HW225465  13.849   1.564  13.375
 7878SOL     OW25466   4.287   2.058   7.744
 7878SOL    HW125467   4.232   2.007   7.685
 7878SOL    HW225468   4.312   2.135   7.693
 7879SOL     OW25469  10.816   9.160   4.665
 7879SOL    HW125470  10.776   9.163   4.751
 7879SOL    HW225471  10.746   9.131   4.606
 7880SOL     OW25472  12.223   1.830   4.291
 7880SOL    HW125473  12.307   1.874   4.303
 7880SOL    HW225474  12.243   1.737   4.296
 7881SOL     OW25475  11.540   8.810   0.241
 7881SOL    HW125476  11.506   8.796   0.152
 7881SOL    HW225477  11.494   8.888   0.272
 7882SOL     OW25478   3.042   7.284  11.250
 7882SOL    HW125479   3.016   7.333  11.328
 7882SOL    HW225480   3.055   7.195  11.281
 7883SOL     OW25481   4.153   8.987   8.612
 7883SOL    HW125482   4.064   8.967   8.582
 7883SOL    HW225483   4.141   9.035   8.694
 7884SOL     OW25484   3.214   6.969   8.992
 7884SOL    HW125485   3.142   6.938   9.046
 7884SOL    HW225486   3.249   7.044   9.040
 7885SOL     OW25487   7.432  11.304   7.569
 7885SOL    HW125488   7.406  11.218   7.534
 7885SOL    HW225489   7.477  11.283   7.651
 7886SOL     OW25490   7.338   8.887  14.687
 7886SOL    HW125491   7.425   8.908  14.722
 7886SOL    HW225492   7.302   8.824  14.749
 7887SOL     OW25493  12.147   9.374   3.377
 7887SOL    HW125494  12.237   9.369   3.410
 7887SOL    HW225495  12.116   9.283   3.377
 7888SOL     OW25496   5.568  11.377   9.258
 7888SOL    HW125497   5.568  11.466   9.224
 7888SOL    HW225498   5.636  11.377   9.326
 7889SOL     OW25499   4.400   6.626   8.941
 7889SOL    HW125500   4.422   6.623   9.034
 7889SOL    HW225501   4.425   6.714   8.913
 7890SOL     OW25502  14.465  12.860   7.510
 7890SOL    HW125503  14.435  12.770   7.523
 7890SOL    HW225504  14.478  12.868   7.416
 7891SOL     OW25505   6.972  14.291  12.778
 7891SOL    HW125506   7.013  14.367  12.819
 7891SOL    HW225507   6.896  14.271  12.833
 7892SOL     OW25508   5.704   1.622  13.142
 7892SOL    HW125509   5.763   1.642  13.068
 7892SOL    HW225510   5.738   1.675  13.214
 7893SOL     OW25511   0.614   0.088  12.738
 7893SOL    HW125512   0.682   0.083  12.671
 7893SOL    HW225513   0.607  14.878  12.772
 7894SOL     OW25514   5.275   8.246   8.628
 7894SOL    HW125515   5.228   8.223   8.548
 7894SOL    HW225516   5.320   8.165   8.653
 7895SOL     OW25517   6.140  11.222  13.066
 7895SOL    HW125518   6.234  11.201  13.074
 7895SOL    HW225519   6.096  11.141  13.089
 7896SOL     OW25520   1.152   7.065  13.141
 7896SOL    HW125521   1.235   7.057  13.095
 7896SOL    HW225522   1.140   7.159  13.153
 7897SOL     OW25523   0.720   1.628   6.179
 7897SOL    HW125524   0.788   1.626   6.246
 7897SOL    HW225525   0.648   1.578   6.217
 7898SOL     OW25526   5.892   6.658   5.107
 7898SOL    HW125527   5.913   6.605   5.031
 7898SOL    HW225528   5.844   6.733   5.071
 7899SOL     OW25529   3.289   2.277   8.814
 7899SOL    HW125530   3.204   2.317   8.830
 7899SOL    HW225531   3.315   2.309   8.728
 7900SOL     OW25532   9.893   5.556  10.085
 7900SOL    HW125533   9.954   5.485  10.104
 7900SOL    HW225534   9.947   5.623  10.044
 7901SOL     OW25535   0.403   0.143   5.086
 7901SOL    HW125536   0.381   0.118   4.996
 7901SOL    HW225537   0.447   0.228   5.077
 7902SOL     OW25538   5.483  12.095   3.491
 7902SOL    HW125539   5.419  12.075   3.559
 7902SOL    HW225540   5.568  12.089   3.535
 7903SOL     OW25541   6.719   9.199   3.790
 7903SOL    HW125542   6.763   9.122   3.824
 7903SOL    HW225543   6.751   9.271   3.844
 7904SOL     OW25544  11.105   3.107   4.748
 7904SOL    HW125545  11.107   3.192   4.704
 7904SOL    HW225546  11.022   3.106   4.796
 7905SOL     OW25547   3.577   5.888   6.472
 7905SOL    HW125548   3.640   5.952   6.437
 7905SOL    HW225549   3.625   5.804   6.469
 7906SOL     OW25550   0.890   4.924   9.326
 7906SOL    HW125551   0.906   4.841   9.370
 7906SOL    HW225552   0.811   4.959   9.368
 7907SOL     OW25553   6.709  13.762   5.178
 7907SOL    HW125554   6.788  13.739   5.227
 7907SOL    HW225555   6.649  13.689   5.194
 7908SOL     OW25556   6.826   4.215   9.222
 7908SOL    HW125557   6.754   4.184   9.168
 7908SOL    HW225558   6.812   4.174   9.307
 7909SOL     OW25559   3.752   1.654  13.210
 7909SOL    HW125560   3.742   1.617  13.297
 7909SOL    HW225561   3.765   1.748  13.225
 7910SOL     OW25562   5.128  13.732  11.089
 7910SOL    HW125563   5.057  13.696  11.141
 7910SOL    HW225564   5.198  13.750  11.152
 7911SOL     OW25565  14.347   1.885   7.302
 7911SOL    HW125566  14.421   1.825   7.287
 7911SOL    HW225567  14.284   1.833   7.352
 7912SOL     OW25568   7.342  13.772   5.206
 7912SOL    HW125569   7.427  13.776   5.251
 7912SOL    HW225570   7.279  13.760   5.277
 7913SOL     OW25571   4.954  14.684   0.072
 7913SOL    HW125572   4.937  14.724   0.157
 7913SOL    HW225573   5.016  14.744   0.029
 7914SOL     OW25574  10.734   3.053   8.583
 7914SOL    HW125575  10.780   2.969   8.590
 7914SOL    HW225576  10.803   3.119   8.589
 7915SOL     OW25577   4.107  12.308   5.742
 7915SOL    HW125578   4.085  12.268   5.827
 7915SOL    HW225579   4.104  12.403   5.759
 7916SOL     OW25580  11.591  12.700   9.787
 7916SOL    HW125581  11.535  12.749   9.846
 7916SOL    HW225582  11.530  12.651   9.731
 7917SOL     OW25583  14.574   3.243  13.375
 7917SOL    HW125584  14.483   3.264  13.394
 7917SOL    HW225585  14.602   3.310  13.312
 7918SOL     OW25586  10.771   8.105   9.725
 7918SOL    HW125587  10.771   8.201   9.718
 7918SOL    HW225588  10.804   8.088   9.813
 7919SOL     OW25589   7.833  12.329   8.173
 7919SOL    HW125590   7.787  12.349   8.091
 7919SOL    HW225591   7.880  12.410   8.194
 7920SOL     OW25592  12.112   5.717  10.441
 7920SOL    HW125593  12.165   5.667  10.504
 7920SOL    HW225594  12.170   5.787  10.412
 7921SOL     OW25595   5.031   8.253   6.993
 7921SOL    HW125596   5.013   8.187   7.061
 7921SOL    HW225597   5.123   8.241   6.971
 7922SOL     OW25598   7.674   1.477  12.409
 7922SOL    HW125599   7.687   1.398  12.462
 7922SOL    HW225600   7.733   1.542  12.449
 7923SOL     OW25601   0.453   2.138   6.810
 7923SOL    HW125602   0.401   2.074   6.860
 7923SOL    HW225603   0.543   2.105   6.815
 7924SOL     OW25604   4.668  14.541  13.061
 7924SOL    HW125605   4.633  14.481  13.126
 7924SOL    HW225606   4.646  14.501  12.977
 7925SOL     OW25607   9.952   3.741   6.333
 7925SOL    HW125608   9.931   3.683   6.259
 7925SOL    HW225609   9.984   3.821   6.292
 7926SOL     OW25610  12.756   9.680  14.079
 7926SOL    HW125611  12.681   9.646  14.128
 7926SOL    HW225612  12.806   9.602  14.054
 7927SOL     OW25613  11.740   7.423   6.833
 7927SOL    HW125614  11.700   7.425   6.920
 7927SOL    HW225615  11.682   7.478   6.780
 7928SOL     OW25616  11.353  13.932   0.257
 7928SOL    HW125617  11.267  13.965   0.231
 7928SOL    HW225618  11.413  13.966   0.191
 7929SOL     OW25619   1.279   9.467  14.836
 7929SOL    HW125620   1.214   9.535  14.817
 7929SOL    HW225621   1.240   9.416   0.028
 7930SOL     OW25622   3.597  14.798  14.761
 7930SOL    HW125623   3.582  14.878  14.710
 7930SOL    HW225624   3.692  14.790  14.765
 7931SOL     OW25625  12.697   8.594   9.419
 7931SOL    HW125626  12.732   8.570   9.505
 7931SOL    HW225627  12.770   8.636   9.374
 7932SOL     OW25628   9.300   6.400   6.465
 7932SOL    HW125629   9.244   6.343   6.413
 7932SOL    HW225630   9.286   6.487   6.428
 7933SOL     OW25631  13.561   3.527   9.417
 7933SOL    HW125632  13.643   3.549   9.462
 7933SOL    HW225633  13.588   3.473   9.342
 7934SOL     OW25634   6.907  14.783   4.007
 7934SOL    HW125635   6.886  14.690   4.016
 7934SOL    HW225636   6.831  14.829   4.042
 7935SOL     OW25637   3.224  12.569   2.690
 7935SOL    HW125638   3.157  12.540   2.752
 7935SOL    HW225639   3.307  12.541   2.729
 7936SOL     OW25640   3.053   6.580   7.386
 7936SOL    HW125641   2.977   6.637   7.384
 7936SOL    HW225642   3.038   6.516   7.316
 7937SOL     OW25643  10.420   9.188   2.680
 7937SOL    HW125644  10.495   9.130   2.666
 7937SOL    HW225645  10.454   9.260   2.733
 7938SOL     OW25646   6.873   4.767   8.419
 7938SOL    HW125647   6.855   4.674   8.430
 7938SOL    HW225648   6.844   4.787   8.330
 7939SOL     OW25649   4.414  11.105  11.528
 7939SOL    HW125650   4.479  11.114  11.597
 7939SOL    HW225651   4.441  11.169  11.462
 7940SOL     OW25652  10.956   8.548  11.260
 7940SOL    HW125653  10.947   8.510  11.173
 7940SOL    HW225654  10.963   8.643  11.245
 7941SOL     OW25655  14.673  10.363   6.487
 7941SOL    HW125656  14.644  10.310   6.412
 7941SOL    HW225657  14.690  10.299   6.556
 7942SOL     OW25658   0.830  12.513   3.532
 7942SOL    HW125659   0.891  12.574   3.574
 7942SOL    HW225660   0.754  12.567   3.510
 7943SOL     OW25661   6.075  14.032   9.560
 7943SOL    HW125662   6.025  13.977   9.620
 7943SOL    HW225663   6.091  13.977   9.483
 7944SOL     OW25664   7.161   7.497   5.448
 7944SOL    HW125665   7.247   7.455   5.443
 7944SOL    HW225666   7.101   7.426   5.473
 7945NA      NA25667   7.812  10.454   1.557
 7946NA      NA25668   6.926  10.932   4.808
 7947NA      NA25669   6.441  10.054   3.694
 7948NA      NA25670   4.998  12.902   9.493
 7949NA      NA25671   7.269   9.712   8.869
 7950NA      NA25672   8.705   9.172   4.037
 7951NA      NA25673   7.233   8.744   9.203
 7952NA      NA25674   1.654  10.165   1.801
 7953NA      NA25675   5.171   8.425   8.725
 7954NA      NA25676   8.223  11.669   0.854
 7955NA      NA25677   0.928   0.200  10.433
 7956NA      NA25678  11.097  13.629  10.381
 7957NA      NA25679   9.777   3.578  14.544
 7958NA      NA25680   8.568   9.726   1.160
 7959NA      NA25681   6.065   7.102   5.995
 7960NA      NA25682  10.526   6.144  10.485
 7961NA      NA25683   7.289   8.205   5.384
 7962NA      NA25684   7.758  11.943   3.271
 7963NA      NA25685   5.615  13.260   6.254
 7964NA      NA25686   4.774   7.016   6.693
 7965NA      NA25687   8.855   9.089   6.598
 7966NA      NA25688  13.879   8.146   1.982
 7967NA      NA25689   7.016   7.625   1.120
 7968NA      NA25690   8.291   8.714   6.918
 7969NA      NA25691   8.162  10.375   6.017
 7970NA      NA25692  11.263  11.995   1.164
 7971NA      NA25693   7.799   7.025   9.697
 7972NA      NA25694   8.881  11.042   1.268
 7973NA      NA25695   4.073  10.931  11.889
 7974NA      NA25696   9.355  12.911   6.390
 7975NA      NA25697   6.881   7.876   6.720
 7976NA      NA25698   7.263  10.332   5.477
 7977NA      NA25699   6.690   4.895   8.551
 7978NA      NA25700   7.248  10.468   2.811
 7979NA      NA25701   6.083   6.422  11.801
 7980NA      NA25702   9.617   0.829   2.797
 7981NA      NA25703   8.490  10.450   2.434
 7982NA      NA25704   8.800   8.243   6.345
 7983NA      NA25705   6.828   9.638   3.894
 7984NA      NA25706   8.514  10.968   3.350
 7985NA      NA25707   7.903   9.173   3.665
 7986NA      NA25708  10.022  11.421   1.831
 7987NA      NA25709   7.208   7.951  10.596
 7988NA      NA25710   5.195   9.853   3.446
 7989NA      NA25711   4.081   2.310   9.851
 7990NA      NA25712   6.886   8.280   8.090
 7991NA      NA25713   2.081   5.136  11.671
 7992NA      NA25714   7.055  11.543   3.159
 7993NA      NA25715   8.311   9.242   5.647
 7994NA      NA25716   5.453   9.021   7.193
 7995NA      NA25717   7.770   9.852   3.542
 7996NA      NA25718   5.970   5.116   5.493
 7997NA      NA25719   6.916   9.747   5.748
 7998NA      NA25720  10.480  14.339   6.521
 7999NA      NA25721  10.990  13.504  13.808
 8000NA      NA25722   7.503   2.859   8.089
 8001NA      NA25723   5.508   5.045   7.903
 8002NA      NA25724   6.519   9.354   7.066
 8003NA      NA25725   9.232  10.398   0.788
 8004NA      NA25726   9.301   9.733   3.988
 8005NA      NA25727   7.138   9.749   6.661
 8006NA      NA25728   5.568   9.108   8.833
  14.87910  14.87910  14.87910
